/*--------------------------------*- C++ -*----------------------------------*\
| =========                 |                                                 |
| \\      /  F ield         | OpenFOAM: The Open Source CFD Toolbox           |
|  \\    /   O peration     | Version:  2506                                  |
|   \\  /    A nd           | Website:  www.openfoam.com                      |
|    \\/     M anipulation  |                                                 |
\*---------------------------------------------------------------------------*/
FoamFile
{
    version     2.0;
    format      ascii;
    arch        "LSB;label=32;scalar=64";
    class       volScalarField;
    location    "0.24";
    object      p;
}
// * * * * * * * * * * * * * * * * * * * * * * * * * * * * * * * * * * * * * //

dimensions      [0 2 -2 0 0 0 0];

internalField   nonuniform List<scalar> 
1600
(
1.79325e-06
-0.00118829
-0.00391777
-0.00759017
-0.0115333
-0.0152518
-0.018388
-0.0206896
-0.0219891
-0.0221868
-0.0212371
-0.0191379
-0.0159229
-0.0116549
-0.00642121
-0.000329519
0.00649525
0.0139137
0.0217746
0.029917
0.0381728
0.0463694
0.0543323
0.0618888
0.0688713
0.0751212
0.0804939
0.0848637
0.0881288
0.0902178
0.0910959
0.0907717
0.0893054
0.0868182
0.0835033
0.0796397
0.0756075
0.0719153
0.0692309
0.0681148
0.00119186
7.74294e-07
-0.00221495
-0.00506522
-0.00810671
-0.0109742
-0.0133832
-0.0151208
-0.0160369
-0.0160355
-0.0150667
-0.0131188
-0.0102127
-0.00639659
-0.00174162
0.00366154
0.00970579
0.0162702
0.0232224
0.030421
0.0377181
0.0449618
0.0519989
0.0586781
0.0648536
0.0703887
0.07516
0.0790618
0.0820114
0.0839535
0.0848663
0.0847668
0.0837167
0.0818291
0.0792745
0.0762868
0.0731679
0.0702937
0.0681115
0.0670009
0.0039349
0.00220778
-3.8276e-05
-0.00259665
-0.00522427
-0.00765139
-0.00965442
-0.0110618
-0.0117479
-0.0116291
-0.0106595
-0.00882564
-0.00614298
-0.00265129
0.00158854
0.00649752
0.0119812
0.0179323
0.0242324
0.0307548
0.0373667
0.0439312
0.0503107
0.0563692
0.0619763
0.0670099
0.0713607
0.0749359
0.0776635
0.0794973
0.0804204
0.0804508
0.0796446
0.0781009
0.0759637
0.0734238
0.0707212
0.0681375
0.0659314
0.0643141
0.00769699
0.00508672
0.00244646
-0.000181514
-0.0027354
-0.00501553
-0.00684772
-0.00810023
-0.00867472
-0.00850445
-0.00755274
-0.0058102
-0.00329164
-3.32984e-05
0.00390985
0.00846642
0.0135509
0.0190656
0.0249028
0.0309465
0.0370749
0.0431626
0.0490826
0.0547102
0.0599248
0.0646141
0.0686772
0.0720286
0.0746016
0.0763528
0.0772652
0.0773522
0.0766601
0.0752707
0.0733008
0.0709023
0.0682675
0.0656113
0.0630211
0.0605533
0.0118837
0.00824558
0.00503784
0.0021583
-0.000498097
-0.00278771
-0.00457806
-0.00577452
-0.00630591
-0.0061239
-0.00520352
-0.00354182
-0.00115589
0.00191901
0.00563131
0.00991495
0.0146911
0.0198696
0.0253513
0.0310288
0.0367892
0.0425158
0.0480903
0.053396
0.0583198
0.0627558
0.0666086
0.0697963
0.0722543
0.0739387
0.0748292
0.0749319
0.0742811
0.0729405
0.0710009
0.0685791
0.0658285
0.0629123
0.05976
0.0562914
0.016069
0.0113602
0.0074924
0.00424359
0.00136243
-0.00105031
-0.00289572
-0.00411184
-0.00465288
-0.00448878
-0.0036072
-0.00201312
0.000272216
0.00321254
0.0067577
0.0108449
0.0154
0.0203386
0.0255678
0.030987
0.0364899
0.0419665
0.0473048
0.0523935
0.0571244
0.0613954
0.0651134
0.0681975
0.0705824
0.0722209
0.073087
0.0731778
0.0725146
0.0711435
0.0691314
0.0665654
0.0635692
0.0602679
0.0564535
0.0519339
0.019944
0.0141694
0.00959509
0.00590109
0.00271048
9.26647e-05
-0.00187934
-0.00317131
-0.00376017
-0.00363311
-0.00279048
-0.00124598
0.000973814
0.00383011
0.00727251
0.0112398
0.0156607
0.0204548
0.0255335
0.0308011
0.036156
0.0414927
0.0467032
0.0516794
0.0563155
0.0605106
0.0641714
0.0672157
0.0695745
0.0711954
0.0720448
0.0721094
0.0713974
0.0699382
0.0677781
0.0649797
0.0616451
0.0578741
0.0533423
0.0477672
0.0232757
0.0164595
0.0111608
0.00697809
0.00342547
0.000549886
-0.00159525
-0.00299891
-0.00365792
-0.00357525
-0.00276348
-0.00124526
0.000946778
0.00377028
0.00717339
0.011095
0.0154654
0.0202064
0.0252322
0.0304501
0.0357618
0.0410641
0.0462511
0.0512161
0.0558533
0.0600609
0.0637433
0.0668142
0.0691995
0.0708393
0.0716909
0.07173
0.0709515
0.0693695
0.0670124
0.0639233
0.0601898
0.055896
0.0506179
0.0439997
0.0258822
0.0180515
0.0120253
0.0073313
0.00338698
0.000223204
-0.00212137
-0.00365515
-0.0043923
-0.00435007
-0.00355258
-0.00203138
0.000174489
0.0030184
0.00644608
0.0103956
0.0147972
0.019574
0.0246416
0.0299089
0.0352789
0.0406497
0.0459157
0.0509694
0.0557036
0.0600133
0.0637988
0.066968
0.0694392
0.0711438
0.0720287
0.0720575
0.0712122
0.0694926
0.0669115
0.0634966
0.0593265
0.0544769
0.0484364
0.0407865
0.0276131
0.0187897
0.0120387
0.00682375
0.00247353
-0.000992569
-0.0035471
-0.005215
-0.0060257
-0.00600945
-0.00520123
-0.00364131
-0.00137535
0.00154527
0.00506319
0.00911467
0.0136294
0.0185302
0.0237331
0.0291476
0.0346767
0.0402182
0.0456655
0.050909
0.055838
0.0603431
0.0643183
0.0676639
0.0702892
0.0721151
0.0730766
0.0731249
0.0722285
0.0703736
0.0675595
0.0638011
0.0591724
0.0537458
0.0469301
0.0382508
0.0283354
0.0185326
0.0110606
0.0053224
0.000562723
-0.00320764
-0.00597
-0.0077638
-0.00863228
-0.00861773
-0.00776549
-0.00612438
-0.00374684
-0.000689324
0.00298717
0.00721652
0.0119269
0.0170404
0.0224724
0.0281319
0.0339211
0.0397365
0.045469
0.0510057
0.0562312
0.06103
0.0652881
0.0688966
0.0717541
0.0737692
0.074864
0.0749758
0.0740593
0.0720872
0.0690462
0.0649405
0.0598421
0.0538239
0.0462185
0.0364983
0.0279238
0.0171451
0.00895415
0.00269472
-0.00247052
-0.00653767
-0.00949528
-0.0113961
-0.0122965
-0.01225
-0.0113123
-0.00954058
-0.00699427
-0.00373519
0.000171622
0.00465718
0.00964766
0.0150637
0.0208195
0.026823
0.0329748
0.039169
0.0452934
0.0512307
0.0568595
0.0620566
0.066699
0.0706667
0.0738457
0.0761309
0.0774295
0.0776637
0.0767732
0.0747169
0.0714688
0.0670233
0.0614523
0.0548315
0.0464175
0.0356302
0.0262528
0.0144921
0.00558149
-0.00119482
-0.00675619
-0.0111049
-0.0142361
-0.0162156
-0.0171123
-0.0169913
-0.0159183
-0.0139593
-0.0111809
-0.00765049
-0.00343757
0.00138569
0.00674313
0.0125536
0.0187298
0.025178
0.0317969
0.0384778
0.0451045
0.0515546
0.0576996
0.0634077
0.0685452
0.0729794
0.0765819
0.079232
0.0808201
0.0812512
0.0804486
0.0783559
0.0749338
0.0701667
0.0641271
0.0568944
0.0476474
0.0357516
0.0231916
0.010434
0.000799476
-0.00648793
-0.0124315
-0.0170397
-0.0203145
-0.0223348
-0.0231827
-0.0229353
-0.0216686
-0.0194579
-0.0163773
-0.0125002
-0.00790079
-0.0026546
0.00315965
0.00945889
0.0161543
0.0231504
0.0303436
0.0376223
0.0448662
0.0519468
0.0587283
0.0650688
0.0708228
0.0758433
0.0799857
0.0831112
0.085091
0.0858108
0.0851748
0.0831092
0.0795598
0.0744999
0.0680021
0.06015
0.0500396
0.0369792
0.0185999
0.0048215
-0.00554421
-0.0133357
-0.0196431
-0.0244819
-0.0278617
-0.0298755
-0.0306195
-0.0301837
-0.0286555
-0.0261202
-0.0226598
-0.0183544
-0.0132828
-0.00752427
-0.00115995
0.00572527
0.0130412
0.0206907
0.0285685
0.0365599
0.0445404
0.0523756
0.0599215
0.0670256
0.0735293
0.0792698
0.0840841
0.0878128
0.0903054
0.0914246
0.0910527
0.0890954
0.0854807
0.0801682
0.0732299
0.0647527
0.053743
0.039448
0.0123239
-0.00250715
-0.0136146
-0.0219017
-0.0285499
-0.033583
-0.0370196
-0.0389687
-0.0395424
-0.038845
-0.036977
-0.0340343
-0.0301083
-0.0252856
-0.0196504
-0.0132854
-0.00627411
0.00129726
0.00933754
0.0177487
0.026424
0.0352465
0.0440879
0.0528078
0.0612542
0.0692636
0.0766629
0.0832721
0.0889077
0.0933871
0.0965342
0.0981853
0.0981965
0.0964488
0.0928481
0.0873372
0.0799849
0.0708799
0.0589304
0.0433171
0.00419387
-0.0117306
-0.0235934
-0.0323655
-0.0393255
-0.0445076
-0.0479414
-0.0497548
-0.0500784
-0.0490332
-0.0467345
-0.0432908
-0.0388032
-0.0333663
-0.0270694
-0.0199987
-0.0122395
-0.00387894
0.00499188
0.014275
0.0238632
0.0336383
0.0434691
0.05321
0.0627012
0.0717678
0.080222
0.087865
0.0944904
0.0998894
0.103856
0.106197
0.106735
0.105322
0.101836
0.0961973
0.0884687
0.0787383
0.0658047
0.0487763
-0.00597991
-0.023048
-0.0356829
-0.0449263
-0.0521616
-0.0574357
-0.060793
-0.0623839
-0.0623612
-0.0608659
-0.0580308
-0.0539788
-0.0488225
-0.0426648
-0.0356006
-0.0277193
-0.0191075
-0.00985183
-4.24086e-05
0.0102243
0.0208424
0.0316939
0.0426459
0.0535493
0.0642369
0.0745233
0.0842053
0.0930641
0.100869
0.10738
0.11236
0.115575
0.116814
0.115888
0.112643
0.106969
0.0989167
0.0885704
0.0746058
0.0560522
-0.0184109
-0.0366847
-0.0501113
-0.0598078
-0.067271
-0.0725653
-0.0757539
-0.0770153
-0.0765295
-0.0744619
-0.0709662
-0.0661825
-0.0602366
-0.0532405
-0.045295
-0.0364922
-0.0269188
-0.01666
-0.00580282
0.00555965
0.0173249
0.0293771
0.0415843
0.0537953
0.0658375
0.0775157
0.0886118
0.0988864
0.108081
0.115925
0.122139
0.126449
0.128596
0.128346
0.125499
0.119908
0.111605
0.100663
0.0856192
0.0654164
-0.0333417
-0.0528975
-0.0671391
-0.0772634
-0.0848929
-0.0901149
-0.0930184
-0.093817
-0.092725
-0.0899378
-0.0856346
-0.0799761
-0.0731031
-0.0651381
-0.0561877
-0.0463458
-0.0356982
-0.0243264
-0.0123124
0.000256757
0.0132847
0.0266609
0.0402571
0.0539226
0.0674821
0.0807324
0.0934416
0.105349
0.116169
0.125593
0.133299
0.138962
0.142266
0.142921
0.140669
0.135314
0.126858
0.115355
0.0991857
0.0771946
-0.0510506
-0.0719842
-0.0870676
-0.0975841
-0.105298
-0.110327
-0.112797
-0.112965
-0.111089
-0.107403
-0.102117
-0.0954167
-0.0874597
-0.0783801
-0.0682901
-0.0572848
-0.0454467
-0.0328517
-0.0195735
-0.00568979
0.00871251
0.0235321
0.0386478
0.0539139
0.0691552
0.0841638
0.098696
0.112472
0.125175
0.136459
0.145952
0.15327
0.158029
0.159869
0.15846
0.153537
0.14506
0.133054
0.115713
0.0917778
-0.0718616
-0.0942941
-0.11025
-0.121108
-0.128794
-0.133473
-0.135315
-0.13464
-0.13176
-0.126955
-0.120476
-0.112536
-0.103315
-0.0929576
-0.0815817
-0.0692815
-0.0561342
-0.0422064
-0.0275602
-0.01226
0.00362135
0.0199962
0.0367557
0.0537632
0.0708491
0.0878048
0.104378
0.120272
0.135142
0.148599
0.160216
0.169542
0.176115
0.179483
0.179226
0.174989
0.166669
0.154244
0.135694
0.109637
-0.0961583
-0.120245
-0.137108
-0.148232
-0.15574
-0.159855
-0.160818
-0.159025
-0.154862
-0.148669
-0.140742
-0.131331
-0.120638
-0.10882
-0.0959993
-0.0822663
-0.0676895
-0.0523225
-0.0362111
-0.0194014
-0.00194702
0.0160837
0.0345997
0.0534803
0.072567
0.0916565
0.110494
0.128769
0.146111
0.162088
0.176215
0.187962
0.196774
0.202092
0.203375
0.200152
0.19223
0.179513
0.159724
0.131343
-0.124404
-0.150346
-0.168153
-0.179432
-0.186548
-0.189813
-0.189564
-0.186301
-0.180503
-0.172587
-0.162906
-0.15175
-0.139346
-0.125863
-0.111426
-0.0961168
-0.0799912
-0.0630844
-0.0454206
-0.0270217
-0.00791569
0.0118547
0.0322238
0.0530935
0.0743246
0.0957272
0.117051
0.137979
0.158118
0.176998
0.19407
0.208721
0.220283
0.228066
0.231379
0.229597
0.222396
0.209572
0.188531
0.157589
-0.157169
-0.185232
-0.204015
-0.215284
-0.221706
-0.22373
-0.221825
-0.216635
-0.208757
-0.198704
-0.186898
-0.173676
-0.159288
-0.143916
-0.127678
-0.110647
-0.0928579
-0.074321
-0.0550322
-0.0349824
-0.0141672
0.00740445
0.0296998
0.0526526
0.0761522
0.100032
0.124057
0.147912
0.171191
0.193389
0.213898
0.232009
0.246932
0.257816
0.263782
0.263998
0.257959
0.245294
0.223014
0.189233
-0.195181
-0.225709
-0.245491
-0.256492
-0.261791
-0.262033
-0.25788
-0.250166
-0.239645
-0.226947
-0.212573
-0.196909
-0.180231
-0.162723
-0.144495
-0.125598
-0.10604
-0.0857983
-0.0648326
-0.0430949
-0.0205399
0.00286499
0.0271296
0.0522293
0.0780931
0.10459
0.131513
0.158564
0.185336
0.2113
0.235792
0.25801
0.277023
0.291792
0.301202
0.304151
0.299878
0.287764
0.264297
0.227341
-0.239384
-0.272834
-0.293602
-0.303938
-0.307487
-0.305195
-0.297999
-0.286987
-0.273114
-0.257148
-0.239681
-0.221147
-0.201838
-0.181935
-0.161525
-0.140628
-0.119213
-0.0972161
-0.0745499
-0.0511189
-0.0268286
-0.00159522
0.024643
0.0519144
0.0802005
0.10942
0.139411
0.16991
0.200529
0.230731
0.25981
0.286875
0.310845
0.330468
0.344336
0.350998
0.349327
0.338336
0.313813
0.273267
-0.291045
-0.328016
-0.349681
-0.358721
-0.359605
-0.353726
-0.342418
-0.327106
-0.308994
-0.28901
-0.267839
-0.245955
-0.223653
-0.201091
-0.178318
-0.155309
-0.131979
-0.108208
-0.0838556
-0.0587668
-0.0327886
-0.00577726
0.0223915
0.0518106
0.0825278
0.114529
0.147717
0.181885
0.21669
0.251616
0.285938
0.318692
0.348653
0.374326
0.393957
0.40564
0.407748
0.398738
0.373412
0.328764
-0.351924
-0.393189
-0.4155
-0.422236
-0.419093
-0.408152
-0.391298
-0.370398
-0.346951
-0.322062
-0.296496
-0.270744
-0.245079
-0.219609
-0.194323
-0.169126
-0.143865
-0.118351
-0.0923747
-0.065714
-0.0381482
-0.00946393
0.0205353
0.0520187
0.085115
0.119895
0.15635
0.19436
0.23366
0.273791
0.314052
0.353441
0.390606
0.423806
0.450884
0.46936
0.476918
0.471191
0.445547
0.396166
-0.424543
-0.471071
-0.493441
-0.496237
-0.487036
-0.468958
-0.444645
-0.41652
-0.386417
-0.355602
-0.324889
-0.294741
-0.265366
-0.236783
-0.208887
-0.181488
-0.154343
-0.127178
-0.0997028
-0.0716183
-0.0426274
-0.0124393
0.0192236
0.0526176
0.0879668
0.125447
0.165161
0.207113
0.251156
0.296944
0.343857
0.390917
0.436698
0.479234
0.51593
0.543606
0.559023
0.558597
0.533548
0.478683
-0.512668
-0.565577
-0.58674
-0.582912
-0.564609
-0.536484
-0.502189
-0.464802
-0.42649
-0.388627
-0.351998
-0.316966
-0.283602
-0.251786
-0.221273
-0.191746
-0.162849
-0.134206
-0.105433
-0.0761466
-0.0459656
-0.0145161
0.0185672
0.0536368
0.0910245
0.131029
0.173895
0.219783
0.268722
0.320545
0.374798
0.430625
0.486626
0.540687
0.589788
0.629949
0.656729
0.664781
0.642052
0.580913
-0.622168
-0.682476
-0.699802
-0.684914
-0.652939
-0.610728
-0.563184
-0.514076
-0.465818
-0.419754
-0.376505
-0.336213
-0.29872
-0.263689
-0.230684
-0.199227
-0.168821
-0.138972
-0.109194
-0.079011
-0.0479563
-0.0155694
0.0186061
0.0550239
0.094133
0.136371
0.18215
0.231828
0.285669
0.343767
0.405952
0.471633
0.539605
0.607775
0.672818
0.729926
0.773198
0.794814
0.777691
0.709771
-0.762662
-0.830447
-0.838563
-0.805273
-0.752817
-0.691003
-0.62611
-0.562456
-0.502449
-0.44714
-0.396762
-0.35106
-0.30952
-0.271498
-0.236312
-0.203279
-0.171742
-0.141077
-0.11069
-0.0800098
-0.0484857
-0.0155727
0.0192747
0.0566118
0.0970087
0.141053
0.189344
0.242476
0.301009
0.365399
0.435898
0.512384
0.594109
0.679315
0.764674
0.844727
0.911991
0.95537
0.950184
0.876245
-0.950838
-1.02276
-1.01076
-0.946964
-0.864053
-0.775338
-0.68821
-0.60703
-0.533658
-0.468406
-0.410779
-0.359893
-0.31472
-0.274216
-0.237391
-0.203331
-0.171201
-0.14024
-0.109749
-0.079069
-0.0475702
-0.0146324
0.0203713
0.0580904
0.0992122
0.144475
0.194679
0.250683
0.313399
0.383744
0.46256
0.55045
0.647499
0.752798
0.863631
0.974482
1.07658
1.15497
1.17407
1.09896
-1.2172
-1.2797
-1.22551
-1.11154
-0.984066
-0.859365
-0.744748
-0.643424
-0.555736
-0.480565
-0.416234
-0.360954
-0.313022
-0.270907
-0.233271
-0.19895
-0.166935
-0.136337
-0.106361
-0.0762739
-0.0453841
-0.0130108
0.0215376
0.058989
0.100133
0.145848
0.197128
0.25511
0.321092
0.396538
0.483043
0.582228
0.695499
0.823549
0.965361
1.11671
1.26884
1.40348
1.47114
1.41126
-1.61775
-1.63095
-1.49153
-1.29671
-1.10589
-0.935001
-0.788309
-0.665543
-0.563981
-0.480138
-0.410639
-0.352514
-0.303264
-0.260828
-0.223514
-0.189926
-0.158901
-0.12945
-0.100706
-0.0718887
-0.042267
-0.0111241
0.0222718
0.0587007
0.0990269
0.144239
0.1955
0.254199
0.322022
0.401016
0.493651
0.60284
0.731852
0.883968
1.06154
1.26421
1.4865
1.71008
1.8724
1.87279
-2.25449
-2.11587
-1.81358
-1.49441
-1.21742
-0.99051
-0.809413
-0.666452
-0.553625
-0.464013
-0.392067
-0.333471
-0.284902
-0.243803
-0.208186
-0.176482
-0.147425
-0.119969
-0.0932182
-0.0663778
-0.0387084
-0.00948869
0.022021
0.0566177
0.0951992
0.138817
0.188746
0.246566
0.314288
0.394499
0.490561
0.60685
0.748981
0.923935
1.13977
1.4042
1.72092
2.07937
2.41784
2.58915
-3.35576
-2.78332
-2.17267
-1.6758
-1.29256
-1.00572
-0.794142
-0.637269
-0.519327
-0.429173
-0.358973
-0.303183
-0.257839
-0.220059
-0.187702
-0.159135
-0.133077
-0.108491
-0.0845028
-0.0603455
-0.0353105
-0.00870817
0.0201709
0.0520967
0.0879477
0.128771
0.175861
0.230876
0.295997
0.374168
0.469449
0.587541
0.736519
0.927881
1.17796
1.50832
1.94093
2.49104
3.1581
3.79428
-5.51935
-3.66181
-2.43101
-1.71405
-1.24172
-0.921775
-0.704838
-0.553949
-0.445479
-0.365201
-0.304182
-0.256568
-0.218402
-0.18692
-0.160128
-0.136535
-0.114987
-0.0945566
-0.0744704
-0.0540496
-0.0326697
-0.00972268
0.0154175
0.0434323
0.0751028
0.111367
0.153396
0.202713
0.261362
0.332184
0.419261
0.528656
0.669653
0.857037
1.11537
1.48384
2.01585
2.80546
4.12445
6.09001
-9.20432
-4.52037
-2.30635
-1.42115
-0.958956
-0.682933
-0.512273
-0.400598
-0.322929
-0.266428
-0.223903
-0.190923
-0.16458
-0.142863
-0.124317
-0.107844
-0.0925833
-0.0778379
-0.0630174
-0.0476006
-0.0311045
-0.0130583
0.00702317
0.0296655
0.0554672
0.0851414
0.119572
0.159897
0.207638
0.264904
0.334758
0.421863
0.533767
0.683759
0.897468
1.22412
1.75388
2.73339
5.06223
9.86659
)
;

boundaryField
{
    movingWall
    {
        type            zeroGradient;
    }
    fixedWalls
    {
        type            zeroGradient;
    }
    frontAndBack
    {
        type            empty;
    }
}


// ************************************************************************* //
