/*--------------------------------*- C++ -*----------------------------------*\
| =========                 |                                                 |
| \\      /  F ield         | OpenFOAM: The Open Source CFD Toolbox           |
|  \\    /   O peration     | Version:  2506                                  |
|   \\  /    A nd           | Website:  www.openfoam.com                      |
|    \\/     M anipulation  |                                                 |
\*---------------------------------------------------------------------------*/
FoamFile
{
    version     2.0;
    format      ascii;
    arch        "LSB;label=32;scalar=64";
    class       surfaceScalarField;
    location    "0.24";
    object      phi;
}
// * * * * * * * * * * * * * * * * * * * * * * * * * * * * * * * * * * * * * //

dimensions      [0 3 -1 0 0 0 0];

oriented        oriented;

internalField   nonuniform List<scalar> 
3120
(
2.53907e-09
-2.54303e-09
4.0967e-09
-1.55778e-09
2.2518e-09
1.84482e-09
-3.55582e-09
5.80748e-09
-1.31369e-08
9.58113e-09
-2.59831e-08
1.28463e-08
-4.14552e-08
1.54721e-08
-5.88769e-08
1.74217e-08
-7.75808e-08
1.87038e-08
-9.69304e-08
1.93495e-08
-1.16331e-07
1.9401e-08
-1.35238e-07
1.89066e-08
-1.53156e-07
1.79175e-08
-1.69642e-07
1.64863e-08
-1.84308e-07
1.46665e-08
-1.9682e-07
1.25117e-08
-2.06896e-07
1.00761e-08
-2.14311e-07
7.41479e-09
-2.18895e-07
4.58396e-09
-2.20537e-07
1.64146e-09
-2.19184e-07
-1.35287e-09
-2.14847e-07
-4.33692e-09
-2.07601e-07
-7.2463e-09
-1.97586e-07
-1.00144e-08
-1.85013e-07
-1.25729e-08
-1.70161e-07
-1.48523e-08
-1.53378e-07
-1.6783e-08
-1.35081e-07
-1.82966e-08
-1.15754e-07
-1.93276e-08
-9.59385e-08
-1.98149e-08
-7.62341e-08
-1.97044e-08
-5.72828e-08
-1.89513e-08
-3.97589e-08
-1.75239e-08
-2.435e-08
-1.54089e-08
-1.17281e-08
-1.26219e-08
-2.49881e-09
-9.22923e-09
2.8941e-09
-5.39292e-09
4.35596e-09
-1.46189e-09
2.56043e-09
1.79548e-09
2.56041e-09
1.61641e-09
-4.15939e-09
-1.17287e-09
1.2314e-09
-1.17169e-08
1.23891e-08
-3.10736e-08
2.51642e-08
-5.90413e-08
3.75488e-08
-9.46767e-08
4.84815e-08
-1.36631e-07
5.74262e-08
-1.83365e-07
6.41555e-08
-2.33279e-07
6.86181e-08
-2.84793e-07
7.08634e-08
-3.36393e-07
7.10008e-08
-3.86662e-07
6.91756e-08
-4.34299e-07
6.55549e-08
-4.78132e-07
6.03188e-08
-5.17121e-07
5.36558e-08
-5.5037e-07
4.57604e-08
-5.77125e-07
3.68317e-08
-5.96784e-07
2.70737e-08
-6.08896e-07
1.66959e-08
-6.13169e-07
5.91393e-09
-6.09472e-07
-5.04931e-09
-5.97845e-07
-1.59636e-08
-5.785e-07
-2.65914e-08
-5.51826e-07
-3.66885e-08
-5.18393e-07
-4.60063e-08
-4.78951e-07
-5.42944e-08
-4.34429e-07
-6.13045e-08
-3.8593e-07
-6.67955e-08
-3.34718e-07
-7.05401e-08
-2.82201e-07
-7.23323e-08
-2.29908e-07
-7.19968e-08
-1.79459e-07
-6.94009e-08
-1.32512e-07
-6.44705e-08
-9.07076e-08
-5.72132e-08
-5.55726e-08
-4.7757e-08
-2.83835e-08
-3.64184e-08
-9.95093e-09
-2.38254e-08
-2.93888e-10
-1.11188e-08
1.8531e-09
-3.51221e-10
4.41344e-09
-1.66781e-09
-2.49163e-09
-1.21167e-08
1.16801e-08
-3.40875e-08
3.436e-08
-6.84423e-08
5.95192e-08
-1.14767e-07
8.38739e-08
-1.71777e-07
1.05491e-07
-2.37639e-07
1.23288e-07
-3.10217e-07
1.36733e-07
-3.87241e-07
1.45643e-07
-4.66429e-07
1.50052e-07
-5.45561e-07
1.50133e-07
-6.22537e-07
1.46151e-07
-6.95408e-07
1.38427e-07
-7.6241e-07
1.27321e-07
-8.21972e-07
1.13218e-07
-8.72734e-07
9.6522e-08
-9.13553e-07
7.76508e-08
-9.43515e-07
5.70351e-08
-9.61938e-07
3.51189e-08
-9.68384e-07
1.23599e-08
-9.62664e-07
-1.07694e-08
-9.44845e-07
-3.37821e-08
-9.15259e-07
-5.61771e-08
-8.74506e-07
-7.74422e-08
-8.23454e-07
-9.70577e-08
-7.63246e-07
-1.14503e-07
-6.95283e-07
-1.29267e-07
-6.21224e-07
-1.40855e-07
-5.42955e-07
-1.48809e-07
-4.62568e-07
-1.52719e-07
-3.82317e-07
-1.52248e-07
-3.04559e-07
-1.47158e-07
-2.31688e-07
-1.37342e-07
-1.66025e-07
-1.22876e-07
-1.09696e-07
-1.04086e-07
-6.44426e-08
-8.16719e-08
-3.13819e-08
-5.68862e-08
-1.06922e-08
-3.18085e-08
-1.23933e-09
-9.80389e-09
3.17404e-09
-5.56831e-09
3.07673e-09
-2.49748e-08
3.10866e-08
-5.96767e-08
6.90618e-08
-1.0985e-07
1.09692e-07
-1.74603e-07
1.48627e-07
-2.5223e-07
1.83119e-07
-3.4046e-07
2.11518e-07
-4.36675e-07
2.32948e-07
-5.38087e-07
2.47055e-07
-6.41868e-07
2.53832e-07
-7.45247e-07
2.53512e-07
-8.45585e-07
2.46489e-07
-9.40422e-07
2.33264e-07
-1.02752e-06
2.14414e-07
-1.10487e-06
1.90568e-07
-1.17074e-06
1.62393e-07
-1.22367e-06
1.30583e-07
-1.26249e-06
9.58591e-08
-1.28634e-06
5.89668e-08
-1.29466e-06
2.06747e-08
-1.2872e-06
-1.82244e-08
-1.26407e-06
-5.69142e-08
-1.22569e-06
-9.45569e-08
-1.17283e-06
-1.30299e-07
-1.10661e-06
-1.63276e-07
-1.02849e-06
-1.92628e-07
-9.40245e-07
-2.17512e-07
-8.4398e-07
-2.3712e-07
-7.4208e-07
-2.50708e-07
-6.37176e-07
-2.57623e-07
-5.32089e-07
-2.57335e-07
-4.29758e-07
-2.4949e-07
-3.33142e-07
-2.33958e-07
-2.45105e-07
-2.10913e-07
-1.68259e-07
-1.80932e-07
-1.04782e-07
-1.45149e-07
-5.61902e-08
-1.05478e-07
-2.30984e-08
-6.49003e-08
-4.9862e-09
-2.79161e-08
-1.8122e-09
-9.46708e-09
1.25439e-08
-3.81674e-08
5.97872e-08
-8.60601e-08
1.16954e-07
-1.52359e-07
1.75991e-07
-2.35496e-07
2.31764e-07
-3.33234e-07
2.80856e-07
-4.42834e-07
3.21118e-07
-5.61231e-07
3.51345e-07
-6.85189e-07
3.71013e-07
-8.11431e-07
3.80074e-07
-9.36742e-07
3.78823e-07
-1.05805e-06
3.67795e-07
-1.17248e-06
3.47695e-07
-1.27741e-06
3.19346e-07
-1.3705e-06
2.83657e-07
-1.44971e-06
2.41599e-07
-1.51332e-06
1.94191e-07
-1.55995e-06
1.42496e-07
-1.5886e-06
8.76128e-08
-1.5986e-06
3.06754e-08
-1.58968e-06
-2.71456e-08
-1.56195e-06
-8.46465e-08
-1.51591e-06
-1.40595e-07
-1.45247e-06
-1.93735e-07
-1.37294e-06
-2.42803e-07
-1.27903e-06
-2.86541e-07
-1.17282e-06
-3.23719e-07
-1.05677e-06
-3.53169e-07
-9.33667e-07
-3.73816e-07
-8.06565e-07
-3.84724e-07
-6.7875e-07
-3.8515e-07
-5.53633e-07
-3.74606e-07
-4.34655e-07
-3.52937e-07
-3.25149e-07
-3.20418e-07
-2.28196e-07
-2.77885e-07
-1.46444e-07
-2.26901e-07
-8.19295e-08
-1.69992e-07
-3.59095e-08
-1.1092e-07
-8.75461e-09
-5.5071e-08
-1.05668e-08
-1.31599e-08
2.57038e-08
-5.10166e-08
9.7644e-08
-1.12069e-07
1.78006e-07
-1.94458e-07
2.5838e-07
-2.9581e-07
3.33117e-07
-4.13262e-07
3.98308e-07
-5.43554e-07
4.5141e-07
-6.83164e-07
4.90956e-07
-8.28434e-07
5.16282e-07
-9.75686e-07
5.27326e-07
-1.12133e-06
5.24463e-07
-1.26192e-06
5.08391e-07
-1.39427e-06
4.80039e-07
-1.51543e-06
4.40506e-07
-1.62278e-06
3.91011e-07
-1.71405e-06
3.32866e-07
-1.78731e-06
2.67453e-07
-1.84102e-06
1.96213e-07
-1.87405e-06
1.20642e-07
-1.88566e-06
4.22823e-08
-1.87553e-06
-3.72735e-08
-1.84379e-06
-1.1639e-07
-1.79099e-06
-1.93393e-07
-1.71815e-06
-2.66581e-07
-1.62671e-06
-3.3424e-07
-1.51858e-06
-3.9467e-07
-1.39609e-06
-4.46211e-07
-1.26197e-06
-4.87287e-07
-1.11933e-06
-5.16456e-07
-9.71593e-07
-5.32463e-07
-8.22425e-07
-5.34318e-07
-6.75654e-07
-5.21377e-07
-5.35156e-07
-4.93435e-07
-4.04724e-07
-4.5085e-07
-2.87924e-07
-3.94685e-07
-1.87942e-07
-3.26883e-07
-1.07438e-07
-2.50496e-07
-4.84431e-08
-1.69916e-07
-1.23339e-08
-9.11803e-08
-2.29006e-08
-1.66068e-08
4.23105e-08
-6.32964e-08
1.44334e-07
-1.3724e-07
2.5195e-07
-2.35495e-07
3.56635e-07
-3.54819e-07
4.52441e-07
-4.91649e-07
5.35138e-07
-6.42155e-07
6.01916e-07
-8.02328e-07
6.51128e-07
-9.68085e-07
6.8204e-07
-1.13537e-06
6.94613e-07
-1.30025e-06
6.89343e-07
-1.45898e-06
6.67118e-07
-1.60807e-06
6.29125e-07
-1.74432e-06
5.76765e-07
-1.86491e-06
5.11598e-07
-1.96735e-06
4.35306e-07
-2.04956e-06
3.49663e-07
-2.10987e-06
2.56523e-07
-2.14704e-06
1.57808e-07
-2.16026e-06
5.55022e-08
-2.14918e-06
-4.83481e-08
-2.11393e-06
-1.51641e-07
-2.0551e-06
-2.52227e-07
-1.97376e-06
-3.47921e-07
-1.87147e-06
-4.36523e-07
-1.75029e-06
-5.15851e-07
-1.61273e-06
-5.83776e-07
-1.46174e-06
-6.38274e-07
-1.30071e-06
-6.77492e-07
-1.13335e-06
-6.99819e-07
-9.63688e-07
-7.03979e-07
-7.95936e-07
-6.89129e-07
-6.34395e-07
-6.54976e-07
-4.83331e-07
-6.01915e-07
-3.46837e-07
-5.31179e-07
-2.28702e-07
-4.45018e-07
-1.32294e-07
-3.46904e-07
-6.04878e-08
-2.41722e-07
-1.56855e-08
-1.35983e-07
-3.85861e-08
-1.98371e-08
6.21475e-08
-7.50114e-08
1.99508e-07
-1.61511e-07
3.3845e-07
-2.75343e-07
4.70467e-07
-4.12374e-07
5.89472e-07
-5.68298e-07
6.91062e-07
-7.38669e-07
7.72286e-07
-9.1896e-07
8.3142e-07
-1.10465e-06
8.67733e-07
-1.29132e-06
8.8128e-07
-1.4747e-06
8.72721e-07
-1.65077e-06
8.43184e-07
-1.81579e-06
7.94145e-07
-1.96636e-06
7.27341e-07
-2.09947e-06
6.44703e-07
-2.21247e-06
5.48311e-07
-2.30316e-06
4.40356e-07
-2.36977e-06
3.23127e-07
-2.41096e-06
1.98997e-07
-2.42587e-06
7.0414e-08
-2.41412e-06
-6.00986e-08
-2.37581e-06
-1.89949e-07
-2.31155e-06
-3.16486e-07
-2.22246e-06
-4.37015e-07
-2.11016e-06
-5.4882e-07
-1.97681e-06
-6.49203e-07
-1.82506e-06
-7.35526e-07
-1.65805e-06
-8.05281e-07
-1.47938e-06
-8.56159e-07
-1.29306e-06
-8.86145e-07
-1.10341e-06
-8.93624e-07
-9.15039e-07
-8.77502e-07
-7.32675e-07
-8.3734e-07
-5.61088e-07
-7.73502e-07
-4.04949e-07
-6.87318e-07
-2.68709e-07
-5.81258e-07
-1.56499e-07
-4.59113e-07
-7.20782e-08
-3.26143e-07
-1.88464e-08
-1.89215e-07
-5.74325e-08
-2.29031e-08
8.50507e-08
-8.62674e-08
2.62872e-07
-1.85017e-07
4.372e-07
-3.14154e-07
5.99604e-07
-4.68654e-07
7.43971e-07
-6.43442e-07
8.65851e-07
-8.33422e-07
9.62266e-07
-1.03352e-06
1.03152e-06
-1.23878e-06
1.07299e-06
-1.44437e-06
1.08688e-06
-1.64574e-06
1.07409e-06
-1.83858e-06
1.03603e-06
-2.01897e-06
9.74528e-07
-2.18331e-06
8.91682e-07
-2.32843e-06
7.89828e-07
-2.45159e-06
6.71465e-07
-2.55046e-06
5.39228e-07
-2.62319e-06
3.95857e-07
-2.66838e-06
2.4419e-07
-2.68512e-06
8.71549e-08
-2.67299e-06
-7.22351e-08
-2.63205e-06
-2.30884e-07
-2.56292e-06
-3.85622e-07
-2.46671e-06
-5.33225e-07
-2.34509e-06
-6.70436e-07
-2.20028e-06
-7.94012e-07
-2.03503e-06
-9.00774e-07
-1.85263e-06
-9.87682e-07
-1.65687e-06
-1.05193e-06
-1.45198e-06
-1.09103e-06
-1.24263e-06
-1.10297e-06
-1.03379e-06
-1.08635e-06
-8.3064e-07
-1.04049e-06
-6.38493e-07
-9.65649e-07
-4.62643e-07
-8.63169e-07
-3.08257e-07
-7.35644e-07
-1.80278e-07
-5.87092e-07
-8.33633e-08
-4.23057e-07
-2.1881e-08
-2.50697e-07
-7.93135e-08
-2.58607e-08
1.10911e-07
-9.7206e-08
3.34218e-07
-2.07978e-07
5.47972e-07
-3.52215e-07
7.4384e-07
-5.24002e-07
9.15759e-07
-7.17484e-07
1.05933e-06
-9.26887e-07
1.17167e-06
-1.14658e-06
1.25121e-06
-1.37111e-06
1.29752e-06
-1.5953e-06
1.31107e-06
-1.81427e-06
1.29305e-06
-2.02348e-06
1.24524e-06
-2.21879e-06
1.16984e-06
-2.39647e-06
1.06937e-06
-2.55324e-06
9.46595e-07
-2.68624e-06
8.04467e-07
-2.79309e-06
6.46076e-07
-2.87186e-06
4.74628e-07
-2.92111e-06
2.93435e-07
-2.93986e-06
1.05908e-07
-2.92765e-06
-8.44419e-08
-2.88453e-06
-2.7401e-07
-2.81105e-06
-4.59101e-07
-2.70832e-06
-6.35947e-07
-2.57803e-06
-8.00734e-07
-2.42239e-06
-9.49645e-07
-2.24424e-06
-1.07893e-06
-2.04696e-06
-1.18496e-06
-1.83451e-06
-1.26438e-06
-1.61135e-06
-1.31419e-06
-1.38244e-06
-1.33188e-06
-1.15314e-06
-1.31565e-06
-9.29114e-07
-1.26451e-06
-7.16244e-07
-1.17852e-06
-5.20494e-07
-1.05892e-06
-3.47799e-07
-9.08339e-07
-2.03955e-07
-7.30936e-07
-9.45368e-08
-5.32476e-07
-2.48603e-08
-3.20374e-07
-1.04174e-07
-2.87621e-08
1.39674e-07
-1.07974e-07
4.1343e-07
-2.30642e-07
6.7064e-07
-3.89859e-07
9.03057e-07
-5.78827e-07
1.10473e-06
-7.9089e-07
1.2714e-06
-1.01958e-06
1.40036e-06
-1.25868e-06
1.49031e-06
-1.50227e-06
1.54111e-06
-1.74477e-06
1.55356e-06
-1.98099e-06
1.52928e-06
-2.20618e-06
1.47044e-06
-2.41603e-06
1.37969e-06
-2.60669e-06
1.26002e-06
-2.77477e-06
1.11467e-06
-2.91735e-06
9.47055e-07
-3.03201e-06
7.60735e-07
-3.11678e-06
5.59392e-07
-3.17016e-06
3.46813e-07
-3.19114e-06
1.26891e-07
-3.17921e-06
-9.63725e-08
-3.13435e-06
-3.18865e-07
-3.05709e-06
-5.36366e-07
-2.94847e-06
-7.4456e-07
-2.81015e-06
-9.39061e-07
-2.64433e-06
-1.11546e-06
-2.45387e-06
-1.26939e-06
-2.24221e-06
-1.39662e-06
-2.01345e-06
-1.49315e-06
-1.77226e-06
-1.55538e-06
-1.52388e-06
-1.58026e-06
-1.27407e-06
-1.56546e-06
-1.02899e-06
-1.50959e-06
-7.95123e-07
-1.41238e-06
-5.79163e-07
-1.27488e-06
-3.87856e-07
-1.09965e-06
-2.27896e-07
-8.90896e-07
-1.05805e-07
-6.54567e-07
-2.78538e-08
-3.98325e-07
-1.32027e-07
-3.16535e-08
1.71327e-07
-1.1871e-07
5.00487e-07
-2.53249e-07
8.05179e-07
-4.27424e-07
1.07723e-06
-6.33539e-07
1.31084e-06
-8.64124e-07
1.50198e-06
-1.112e-06
1.64824e-06
-1.37034e-06
1.74866e-06
-1.63274e-06
1.8035e-06
-1.89324e-06
1.81406e-06
-2.14635e-06
1.78239e-06
-2.38712e-06
1.7112e-06
-2.61109e-06
1.60365e-06
-2.8143e-06
1.46324e-06
-2.99332e-06
1.2937e-06
-3.14521e-06
1.09894e-06
-3.2675e-06
8.83025e-07
-3.3582e-06
6.50096e-07
-3.4158e-06
4.04412e-07
-3.43925e-06
1.50338e-07
-3.42798e-06
-1.07647e-07
-3.3819e-06
-3.64939e-07
-3.30147e-06
-6.168e-07
-3.18766e-06
-8.58371e-07
-3.04203e-06
-1.08469e-06
-2.86675e-06
-1.29074e-06
-2.66464e-06
-1.4715e-06
-2.43919e-06
-1.62207e-06
-2.19456e-06
-1.73777e-06
-1.93562e-06
-1.81432e-06
-1.66788e-06
-1.848e-06
-1.39749e-06
-1.83585e-06
-1.13113e-06
-1.77595e-06
-8.75924e-07
-1.66758e-06
-6.39328e-07
-1.51147e-06
-4.28962e-07
-1.31001e-06
-2.52469e-07
-1.06739e-06
-1.17371e-07
-7.89665e-07
-3.09267e-08
-4.84769e-07
-1.62954e-07
-3.45752e-08
2.05902e-07
-1.2954e-07
5.95452e-07
-2.76027e-07
9.51666e-07
-4.65226e-07
1.26643e-06
-6.88523e-07
1.53414e-06
-9.37607e-07
1.75106e-06
-1.20456e-06
1.91519e-06
-1.48195e-06
2.02605e-06
-1.76287e-06
2.08442e-06
-2.04097e-06
2.09216e-06
-2.31052e-06
2.05193e-06
-2.56634e-06
1.96703e-06
-2.80388e-06
1.84119e-06
-3.01913e-06
1.67849e-06
-3.20864e-06
1.4832e-06
-3.36945e-06
1.25976e-06
-3.49912e-06
1.01269e-06
-3.59566e-06
7.46636e-07
-3.65755e-06
4.66298e-07
-3.6837e-06
1.76489e-07
-3.67349e-06
-1.17855e-07
-3.62677e-06
-4.11661e-07
-3.54387e-06
-6.99698e-07
-3.42566e-06
-9.76576e-07
-3.2736e-06
-1.23676e-06
-3.08973e-06
-1.4746e-06
-2.8768e-06
-1.68442e-06
-2.63828e-06
-1.86059e-06
-2.37838e-06
-1.99768e-06
-2.10208e-06
-2.09061e-06
-1.81518e-06
-2.1349e-06
-1.5242e-06
-2.12684e-06
-1.23633e-06
-2.06382e-06
-9.59395e-07
-1.94452e-06
-7.01644e-07
-1.76923e-06
-4.71633e-07
-1.54002e-06
-2.78032e-07
-1.26099e-06
-1.29428e-07
-9.38269e-07
-3.41393e-08
-5.80058e-07
-1.97093e-07
-3.75624e-08
2.43464e-07
-1.40576e-07
6.98465e-07
-2.99178e-07
1.11027e-06
-5.03551e-07
1.4708e-06
-7.44118e-07
1.77471e-06
-1.01169e-06
2.01864e-06
-1.2976e-06
2.2011e-06
-1.59377e-06
2.32222e-06
-1.8928e-06
2.38345e-06
-2.18798e-06
2.38734e-06
-2.47332e-06
2.33727e-06
-2.7435e-06
2.23721e-06
-2.99389e-06
2.09158e-06
-3.22047e-06
1.90507e-06
-3.41982e-06
1.68254e-06
-3.58902e-06
1.42896e-06
-3.72569e-06
1.14936e-06
-3.82787e-06
8.48815e-07
-3.89405e-06
5.32475e-07
-3.92312e-06
2.05568e-07
-3.91442e-06
-1.26555e-07
-3.8677e-06
-4.58388e-07
-3.78316e-06
-7.84238e-07
-3.66152e-06
-1.09821e-06
-3.50407e-06
-1.39421e-06
-3.3127e-06
-1.66597e-06
-3.09002e-06
-1.9071e-06
-2.83939e-06
-2.11122e-06
-2.56502e-06
-2.27205e-06
-2.272e-06
-2.38364e-06
-1.9663e-06
-2.4406e-06
-1.65481e-06
-2.43833e-06
-1.34528e-06
-2.37335e-06
-1.04621e-06
-2.24359e-06
-7.66716e-07
-2.04872e-06
-5.1636e-07
-1.79038e-06
-3.04923e-07
-1.47243e-06
-1.42159e-07
-1.10103e-06
-3.7548e-08
-6.8467e-07
-2.34641e-07
-4.0647e-08
2.84111e-07
-1.51921e-07
8.0974e-07
-3.22889e-07
1.28124e-06
-5.42655e-07
1.69057e-06
-8.00618e-07
2.03267e-06
-1.08667e-06
2.30469e-06
-1.39133e-06
2.50577e-06
-1.7059e-06
2.63679e-06
-2.02247e-06
2.70002e-06
-2.33399e-06
2.69886e-06
-2.63424e-06
2.63752e-06
-2.91782e-06
2.52079e-06
-3.18006e-06
2.35383e-06
-3.417e-06
2.14201e-06
-3.6253e-06
1.89084e-06
-3.80214e-06
1.60581e-06
-3.94524e-06
1.29245e-06
-4.05271e-06
9.56288e-07
-4.12309e-06
6.02855e-07
-4.15528e-06
2.37756e-07
-4.14854e-06
-1.3329e-07
-4.10253e-06
-5.04397e-07
-4.01731e-06
-8.69461e-07
-3.8934e-06
-1.22212e-06
-3.73186e-06
-1.55575e-06
-3.53436e-06
-1.86347e-06
-3.3033e-06
-2.13817e-06
-3.04186e-06
-2.37265e-06
-2.75416e-06
-2.55974e-06
-2.4453e-06
-2.6925e-06
-2.12142e-06
-2.76448e-06
-1.78973e-06
-2.77001e-06
-1.4585e-06
-2.70458e-06
-1.13694e-06
-2.56515e-06
-8.35087e-07
-2.35057e-06
-5.63595e-07
-2.06187e-06
-3.33462e-07
-1.70256e-06
-1.55739e-07
-1.27876e-06
-4.12063e-08
-7.99202e-07
-2.75847e-07
-4.38597e-08
3.27971e-07
-1.63675e-07
9.29555e-07
-3.47337e-07
1.4649e-06
-5.82774e-07
1.92601e-06
-8.58276e-07
2.30817e-06
-1.16274e-06
2.60915e-06
-1.48587e-06
2.8289e-06
-1.81827e-06
2.96919e-06
-2.15158e-06
3.03332e-06
-2.47841e-06
3.02569e-06
-2.79238e-06
2.95149e-06
-3.08804e-06
2.81645e-06
-3.36079e-06
2.62657e-06
-3.60676e-06
2.38799e-06
-3.82278e-06
2.10685e-06
-4.00622e-06
1.78924e-06
-4.15492e-06
1.44116e-06
-4.26715e-06
1.06852e-06
-4.3415e-06
6.77214e-07
-4.37692e-06
2.73172e-07
-4.37262e-06
-1.37594e-07
-4.32813e-06
-5.48884e-07
-4.24334e-06
-9.54249e-07
-4.11854e-06
-1.34692e-06
-3.9545e-06
-1.71979e-06
-3.7526e-06
-2.06537e-06
-3.51491e-06
-2.37586e-06
-3.24437e-06
-2.64319e-06
-2.9449e-06
-2.85922e-06
-2.6215e-06
-3.0159e-06
-2.28041e-06
-3.10557e-06
-1.9291e-06
-3.12132e-06
-1.57632e-06
-3.05736e-06
-1.23203e-06
-2.90944e-06
-9.07231e-07
-2.67537e-06
-6.13754e-07
-2.35535e-06
-3.63951e-07
-1.95236e-06
-1.70333e-07
-1.47237e-06
-4.51664e-08
-9.24369e-07
-3.21014e-07
-4.7232e-08
3.75203e-07
-1.75939e-07
1.05826e-06
-3.727e-07
1.66166e-06
-6.24136e-07
2.17744e-06
-9.17317e-07
2.60135e-06
-1.24007e-06
2.93191e-06
-1.5812e-06
3.17003e-06
-1.93066e-06
3.31865e-06
-2.27958e-06
3.38225e-06
-2.62032e-06
3.36644e-06
-2.9464e-06
3.27757e-06
-3.25239e-06
3.12244e-06
-3.53383e-06
2.90801e-06
-3.78708e-06
2.64124e-06
-4.00919e-06
2.32897e-06
-4.19779e-06
1.97784e-06
-4.35096e-06
1.59432e-06
-4.46714e-06
1.1847e-06
-4.54507e-06
7.55148e-07
-4.58373e-06
3.11831e-07
-4.58231e-06
-1.39014e-07
-4.54023e-06
-5.90967e-07
-4.45716e-06
-1.03732e-06
-4.33311e-06
-1.47097e-06
-4.16851e-06
-1.88439e-06
-3.96434e-06
-2.26955e-06
-3.72226e-06
-2.61793e-06
-3.44484e-06
-2.92061e-06
-3.13566e-06
-3.1684e-06
-2.79955e-06
-3.35202e-06
-2.44268e-06
-3.46245e-06
-2.07272e-06
-3.49128e-06
-1.69887e-06
-3.43121e-06
-1.3318e-06
-3.27651e-06
-9.83544e-07
-3.02363e-06
-6.67216e-07
-2.67168e-06
-3.96681e-07
-2.2229e-06
-1.86109e-07
-1.68295e-06
-4.9481e-08
-1.061e-06
-3.70495e-07
-5.07997e-08
4.26003e-07
-1.88827e-07
1.19629e-06
-3.99172e-07
1.872e-06
-6.6698e-07
2.44525e-06
-9.77959e-07
2.91233e-06
-1.31875e-06
3.2727e-06
-1.67723e-06
3.5285e-06
-2.04263e-06
3.68404e-06
-2.40565e-06
3.74527e-06
-2.75844e-06
3.71922e-06
-3.09448e-06
3.61362e-06
-3.4085e-06
3.43646e-06
-3.69628e-06
3.19579e-06
-3.9545e-06
2.89945e-06
-4.18056e-06
2.55503e-06
-4.37244e-06
2.16972e-06
-4.52854e-06
1.75042e-06
-4.64756e-06
1.30372e-06
-4.72843e-06
8.36018e-07
-4.77021e-06
3.53613e-07
-4.77209e-06
-1.37137e-07
-4.73336e-06
-6.29695e-07
-4.65348e-06
-1.1172e-06
-4.53211e-06
-1.59234e-06
-4.36927e-06
-2.04723e-06
-4.16545e-06
-2.47338e-06
-3.92179e-06
-2.86159e-06
-3.64031e-06
-3.20209e-06
-3.32415e-06
-3.48456e-06
-2.97776e-06
-3.69841e-06
-2.60715e-06
-3.83306e-06
-2.22005e-06
-3.87838e-06
-1.82601e-06
-3.82525e-06
-1.43641e-06
-3.66611e-06
-1.06434e-06
-3.3957e-06
-7.24331e-07
-3.01169e-06
-4.31938e-07
-2.51529e-06
-2.03237e-07
-1.91165e-06
-5.42052e-08
-1.21003e-06
-4.247e-07
-5.46061e-08
4.80609e-07
-2.02473e-07
1.34416e-06
-4.26981e-07
2.09651e-06
-7.1158e-07
2.72985e-06
-1.04043e-06
3.24118e-06
-1.39886e-06
3.63114e-06
-1.77373e-06
3.90337e-06
-2.15357e-06
4.06388e-06
-2.52867e-06
4.12038e-06
-2.89105e-06
4.0816e-06
-3.23429e-06
3.95686e-06
-3.55337e-06
3.75554e-06
-3.84446e-06
3.48688e-06
-4.10469e-06
3.15969e-06
-4.33196e-06
2.78229e-06
-4.52469e-06
2.36246e-06
-4.68172e-06
1.90745e-06
-4.80209e-06
1.42409e-06
-4.88497e-06
9.18899e-07
-4.92957e-06
3.98216e-07
-4.9351e-06
-1.31613e-07
-4.90073e-06
-6.64065e-07
-4.82567e-06
-1.19226e-06
-4.70922e-06
-1.70879e-06
-4.55089e-06
-2.20556e-06
-4.35057e-06
-2.67369e-06
-4.10876e-06
-3.1034e-06
-3.82679e-06
-3.48405e-06
-3.50714e-06
-3.80421e-06
-3.15372e-06
-4.05183e-06
-2.77216e-06
-4.21462e-06
-2.37009e-06
-4.28045e-06
-1.9573e-06
-4.23803e-06
-1.54584e-06
-4.07758e-06
-1.14986e-06
-3.79167e-06
-7.85425e-07
-3.37612e-06
-4.70014e-07
-2.8307e-06
-2.21897e-07
-2.15976e-06
-5.94001e-08
-1.37253e-06
-4.841e-07
-5.87076e-08
5.39317e-07
-2.17054e-07
1.5025e-06
-4.56417e-07
2.33588e-06
-7.58271e-07
3.0317e-06
-1.10499e-06
3.5879e-06
-1.48045e-06
4.0066e-06
-1.8704e-06
4.29331e-06
-2.26265e-06
4.45614e-06
-2.64719e-06
4.50491e-06
-3.01598e-06
4.4504e-06
-3.36286e-06
4.30373e-06
-3.68322e-06
4.07591e-06
-3.97381e-06
3.77746e-06
-4.23235e-06
3.41823e-06
-4.45738e-06
3.00731e-06
-4.64792e-06
2.553e-06
-4.80332e-06
2.06286e-06
-4.92309e-06
1.54386e-06
-5.00672e-06
1.00253e-06
-5.05361e-06
4.4511e-07
-5.06303e-06
-1.222e-07
-5.03405e-06
-6.93046e-07
-4.96562e-06
-1.26069e-06
-4.85662e-06
-1.81779e-06
-4.706e-06
-2.35618e-06
-4.51295e-06
-2.86674e-06
-4.27716e-06
-3.3392e-06
-3.99909e-06
-3.76212e-06
-3.68036e-06
-4.12294e-06
-3.32409e-06
-4.4081e-06
-2.9353e-06
-4.6034e-06
-2.52131e-06
-4.69444e-06
-2.09197e-06
-4.66737e-06
-1.65985e-06
-4.50969e-06
-1.24023e-06
-4.2113e-06
-8.50806e-07
-3.76554e-06
-5.11217e-07
-3.17029e-06
-2.42292e-07
-2.42869e-06
-6.51353e-08
-1.54968e-06
-5.49235e-07
-6.31796e-08
6.02496e-07
-2.328e-07
1.67212e-06
-4.87858e-07
2.59093e-06
-8.07484e-07
3.35133e-06
-1.17198e-06
3.9524e-06
-1.56356e-06
4.39817e-06
-1.96679e-06
4.69653e-06
-2.3688e-06
4.85815e-06
-2.75932e-06
4.89543e-06
-3.13047e-06
4.82154e-06
-3.4765e-06
4.64976e-06
-3.79344e-06
4.39286e-06
-4.07878e-06
4.0628e-06
-4.33106e-06
3.67052e-06
-4.5496e-06
3.22585e-06
-4.73418e-06
2.73757e-06
-4.8848e-06
2.21348e-06
-5.00152e-06
1.66058e-06
-5.08423e-06
1.08524e-06
-5.13262e-06
4.93493e-07
-5.14602e-06
-1.08797e-07
-5.12345e-06
-7.15614e-07
-5.0636e-06
-1.32054e-06
-4.9649e-06
-1.91649e-06
-4.82566e-06
-2.49542e-06
-4.64427e-06
-3.04813e-06
-4.41946e-06
-3.56401e-06
-4.15063e-06
-4.03095e-06
-3.83828e-06
-4.43529e-06
-3.48447e-06
-4.76191e-06
-3.09333e-06
-4.99454e-06
-2.67154e-06
-5.11623e-06
-2.22877e-06
-5.11014e-06
-1.77799e-06
-4.96048e-06
-1.3355e-06
-4.65379e-06
-9.20774e-07
-4.18027e-06
-5.5589e-07
-3.53517e-06
-2.64659e-07
-2.71992e-06
-7.1495e-08
-1.74285e-06
-6.2073e-07
-6.81254e-08
6.70621e-07
-2.50023e-07
1.85402e-06
-5.21806e-07
2.86272e-06
-8.59786e-07
3.68931e-06
-1.24182e-06
4.33444e-06
-1.64823e-06
4.80458e-06
-2.06232e-06
5.11062e-06
-2.47059e-06
5.26643e-06
-2.86268e-06
5.28752e-06
-3.23106e-06
5.18992e-06
-3.57064e-06
4.98935e-06
-3.87836e-06
4.70057e-06
-4.15267e-06
4.3371e-06
-4.39313e-06
3.91098e-06
-4.60006e-06
3.43278e-06
-4.77413e-06
2.91164e-06
-4.91614e-06
2.3555e-06
-5.02679e-06
1.77123e-06
-5.10649e-06
1.16495e-06
-5.15525e-06
5.42244e-07
-5.17255e-06
-9.14935e-08
-5.15737e-06
-7.30791e-07
-5.10815e-06
-1.36976e-06
-5.02286e-06
-2.00178e-06
-4.89913e-06
-2.61915e-06
-4.73444e-06
-3.21282e-06
-4.52642e-06
-3.77203e-06
-4.2732e-06
-4.28417e-06
-3.9739e-06
-4.73459e-06
-3.62919e-06
-5.10662e-06
-3.24192e-06
-5.38181e-06
-2.81779e-06
-5.54037e-06
-2.36594e-06
-5.56199e-06
-1.89945e-06
-5.42697e-06
-1.43558e-06
-5.11766e-06
-9.95631e-07
-4.62021e-06
-6.04431e-07
-3.92637e-06
-2.89284e-07
-3.03507e-06
-7.85843e-08
-1.95355e-06
-6.99314e-07
-7.36883e-08
7.4431e-07
-2.69151e-07
2.04948e-06
-5.5894e-07
3.15251e-06
-9.15919e-07
4.04629e-06
-1.31504e-06
4.73356e-06
-1.73446e-06
5.224e-06
-2.15618e-06
5.53234e-06
-2.56617e-06
5.67642e-06
-2.9542e-06
5.67555e-06
-3.31339e-06
5.54911e-06
-3.63964e-06
5.31559e-06
-3.93106e-06
4.99199e-06
-4.18737e-06
4.59342e-06
-4.4094e-06
4.13302e-06
-4.59864e-06
3.62201e-06
-4.75683e-06
3.06983e-06
-4.8857e-06
2.48436e-06
-4.98669e-06
1.87223e-06
-5.06081e-06
1.23907e-06
-5.10846e-06
5.89892e-07
-5.12935e-06
-7.06088e-08
-5.12244e-06
-7.377e-07
-5.08596e-06
-1.40624e-06
-5.01741e-06
-2.07032e-06
-4.91373e-06
-2.72284e-06
-4.77142e-06
-3.35513e-06
-4.58686e-06
-3.95659e-06
-4.35672e-06
-4.51431e-06
-4.07846e-06
-5.01286e-06
-3.75098e-06
-5.4341e-06
-3.37544e-06
-5.75735e-06
-2.95606e-06
-5.95975e-06
-2.50098e-06
-6.01706e-06
-2.02305e-06
-5.9049e-06
-1.54022e-06
-5.60048e-06
-1.07569e-06
-5.08475e-06
-6.57321e-07
-4.34474e-06
-3.16534e-07
-3.37585e-06
-8.65394e-08
-2.18354e-06
-7.85854e-07
-8.00684e-08
8.24378e-07
-2.90769e-07
2.26018e-06
-6.00169e-07
3.4619e-06
-9.7685e-07
4.42297e-06
-1.39227e-06
5.14898e-06
-1.82216e-06
5.6539e-06
-2.2472e-06
5.95738e-06
-2.65303e-06
6.08225e-06
-3.02989e-06
6.05241e-06
-3.37192e-06
5.89114e-06
-3.67643e-06
5.6201e-06
-3.94306e-06
5.25862e-06
-4.17314e-06
4.82349e-06
-4.36899e-06
4.32887e-06
-4.53349e-06
3.78651e-06
-4.6696e-06
3.20595e-06
-4.7801e-06
2.59486e-06
-4.86727e-06
1.9594e-06
-4.93277e-06
1.30457e-06
-4.97747e-06
6.34593e-07
-5.00135e-06
-4.67305e-08
-5.00343e-06
-7.35618e-07
-4.98177e-06
-1.42791e-06
-4.93345e-06
-2.11864e-06
-4.85469e-06
-2.8016e-06
-4.74099e-06
-3.46883e-06
-4.58741e-06
-4.11017e-06
-4.38895e-06
-4.71277e-06
-4.14112e-06
-5.26068e-06
-3.8407e-06
-5.73452e-06
-3.48661e-06
-6.11143e-06
-3.08103e-06
-6.36533e-06
-2.63051e-06
-6.46759e-06
-2.14705e-06
-6.38836e-06
-1.64899e-06
-6.09855e-06
-1.16128e-06
-5.57246e-06
-7.1516e-07
-4.79086e-06
-3.46884e-07
-3.74413e-06
-9.55426e-08
-2.43488e-06
-8.81396e-07
-8.75471e-08
9.11925e-07
-3.15684e-07
2.48832e-06
-6.46706e-07
3.79293e-06
-1.04381e-06
4.82007e-06
-1.47425e-06
5.57942e-06
-1.91105e-06
6.09069e-06
-2.33364e-06
6.37997e-06
-2.7277e-06
6.47631e-06
-3.08442e-06
6.40913e-06
-3.3995e-06
6.20623e-06
-3.67213e-06
5.89273e-06
-3.90396e-06
5.49045e-06
-4.09821e-06
5.01774e-06
-4.259e-06
4.48967e-06
-4.39077e-06
3.91829e-06
-4.49785e-06
3.31302e-06
-4.5841e-06
2.68111e-06
-4.65276e-06
2.02805e-06
-4.70617e-06
1.35798e-06
-4.74572e-06
6.74143e-07
-4.77171e-06
-2.07403e-08
-4.78328e-06
-7.2404e-07
-4.7784e-06
-1.4328e-06
-4.75379e-06
-2.14325e-06
-4.70502e-06
-2.85036e-06
-4.6266e-06
-3.54724e-06
-4.51223e-06
-4.22454e-06
-4.35512e-06
-4.86989e-06
-4.14859e-06
-5.46721e-06
-3.88686e-06
-5.99625e-06
-3.56609e-06
-6.4322e-06
-3.18571e-06
-6.74572e-06
-2.74985e-06
-6.90344e-06
-2.26896e-06
-6.86925e-06
-1.76109e-06
-6.60643e-06
-1.25272e-06
-6.08082e-06
-7.78715e-07
-5.26487e-06
-3.80976e-07
-4.14187e-06
-1.05845e-07
-2.71001e-06
-9.87241e-07
-9.65238e-08
1.00845e-06
-3.45004e-07
2.7368e-06
-7.00155e-07
4.14808e-06
-1.11832e-06
5.23824e-06
-1.56168e-06
6.02278e-06
-2.00035e-06
6.52936e-06
-2.41278e-06
6.7924e-06
-2.78525e-06
6.84878e-06
-3.1106e-06
6.73447e-06
-3.38679e-06
6.48242e-06
-3.6155e-06
6.12144e-06
-3.80085e-06
5.67579e-06
-3.94836e-06
5.16524e-06
-4.06416e-06
4.60547e-06
-4.1544e-06
4.00853e-06
-4.22484e-06
3.38346e-06
-4.28051e-06
2.73679e-06
-4.32556e-06
2.0731e-06
-4.36306e-06
1.39549e-06
-4.39494e-06
7.06023e-07
-4.42187e-06
6.18189e-09
-4.44317e-06
-7.0274e-07
-4.45678e-06
-1.41918e-06
-4.45921e-06
-2.14082e-06
-4.44549e-06
-2.86409e-06
-4.40924e-06
-3.58349e-06
-4.34282e-06
-4.29096e-06
-4.23763e-06
-4.97508e-06
-4.08462e-06
-5.62022e-06
-3.87509e-06
-6.20578e-06
-3.60187e-06
-6.70542e-06
-3.2608e-06
-7.08679e-06
-2.85264e-06
-7.3116e-06
-2.38518e-06
-7.33671e-06
-1.87526e-06
-7.11634e-06
-1.35034e-06
-6.60574e-06
-8.48976e-07
-5.76623e-06
-4.19686e-07
-4.57116e-06
-1.17801e-07
-3.0119e-06
-1.10504e-06
-1.07573e-07
1.11602e-06
-3.80263e-07
3.00949e-06
-7.62617e-07
4.53043e-06
-1.20216e-06
5.67778e-06
-1.65506e-06
6.47568e-06
-2.08842e-06
6.96272e-06
-2.48033e-06
7.18431e-06
-2.81854e-06
7.187e-06
-3.09854e-06
7.01447e-06
-3.32144e-06
6.70532e-06
-3.49213e-06
6.29214e-06
-3.61772e-06
5.80138e-06
-3.70636e-06
5.25388e-06
-3.76638e-06
4.66549e-06
-3.80573e-06
4.04788e-06
-3.83157e-06
3.4093e-06
-3.85008e-06
2.75529e-06
-3.86625e-06
2.08927e-06
-3.88386e-06
1.41309e-06
-3.90534e-06
7.27501e-07
-3.93174e-06
3.2583e-08
-3.96265e-06
-6.71824e-07
-3.99613e-06
-1.3857e-06
-4.02857e-06
-2.10838e-06
-4.05466e-06
-2.83799e-06
-4.06733e-06
-3.57082e-06
-4.05779e-06
-4.30051e-06
-4.01568e-06
-5.01718e-06
-3.92956e-06
-5.70635e-06
-3.78754e-06
-6.34779e-06
-3.57855e-06
-6.91441e-06
-3.294e-06
-7.37134e-06
-2.93006e-06
-7.67553e-06
-2.49045e-06
-7.77632e-06
-1.9894e-06
-7.6174e-06
-1.4543e-06
-7.14084e-06
-9.27215e-07
-6.29332e-06
-4.64234e-07
-5.03414e-06
-1.31923e-07
-3.34421e-06
-1.23697e-06
-1.21536e-07
1.23756e-06
-4.23589e-07
3.31154e-06
-8.36789e-07
4.94363e-06
-1.29726e-06
6.13825e-06
-1.75418e-06
6.93259e-06
-2.17195e-06
7.3805e-06
-2.52936e-06
7.54173e-06
-2.81704e-06
7.47468e-06
-3.03445e-06
7.23187e-06
-3.18695e-06
6.85783e-06
-3.28345e-06
6.38864e-06
-3.33457e-06
5.8525e-06
-3.35132e-06
5.27064e-06
-3.34433e-06
4.65849e-06
-3.32327e-06
4.02681e-06
-3.29662e-06
3.38265e-06
-3.27152e-06
2.73019e-06
-3.2537e-06
2.07146e-06
-3.24749e-06
1.40688e-06
-3.25579e-06
7.35792e-07
-3.28001e-06
5.6803e-08
-3.32006e-06
-6.31773e-07
-3.37421e-06
-1.33154e-06
-3.439e-06
-2.0436e-06
-3.50901e-06
-2.76798e-06
-3.57678e-06
-3.50304e-06
-3.63268e-06
-4.24461e-06
-3.66491e-06
-4.98496e-06
-3.65972e-06
-5.71154e-06
-3.60201e-06
-6.40551e-06
-3.47637e-06
-7.04005e-06
-3.26891e-06
-7.5788e-06
-2.96985e-06
-7.9746e-06
-2.57702e-06
-8.16915e-06
-2.10002e-06
-8.0944e-06
-1.56444e-06
-7.67641e-06
-1.01504e-06
-6.84272e-06
-5.16337e-07
-5.53284e-06
-1.48976e-07
-3.71157e-06
-1.38594e-06
-1.39673e-07
1.37723e-06
-4.77953e-07
3.64982e-06
-9.26038e-07
5.39172e-06
-1.40537e-06
6.61758e-06
-1.85734e-06
7.38456e-06
-2.24469e-06
7.76785e-06
-2.54878e-06
7.84582e-06
-2.76515e-06
7.69105e-06
-2.89897e-06
7.36569e-06
-2.96118e-06
6.92003e-06
-2.96549e-06
6.39296e-06
-2.92642e-06
5.81343e-06
-2.85796e-06
5.20218e-06
-2.7729e-06
4.57343e-06
-2.68243e-06
3.93634e-06
-2.59605e-06
3.29628e-06
-2.5216e-06
2.65573e-06
-2.46527e-06
2.01513e-06
-2.43175e-06
1.37337e-06
-2.42426e-06
7.28303e-07
-2.44455e-06
7.70907e-08
-2.49287e-06
-5.83457e-07
-2.56786e-06
-1.25656e-06
-2.66638e-06
-1.94507e-06
-2.7833e-06
-2.65107e-06
-2.91118e-06
-3.37516e-06
-3.04005e-06
-4.11574e-06
-3.15713e-06
-4.86787e-06
-3.24685e-06
-5.62182e-06
-3.29108e-06
-6.36128e-06
-3.26995e-06
-7.06118e-06
-3.16356e-06
-7.68519e-06
-2.95474e-06
-8.18341e-06
-2.63324e-06
-8.49065e-06
-2.20125e-06
-8.52639e-06
-1.67975e-06
-8.19791e-06
-1.11438e-06
-7.4081e-06
-5.7843e-07
-6.06879e-06
-1.70124e-07
-4.11988e-06
-1.55607e-06
-1.63924e-07
1.54116e-06
-5.47503e-07
4.0334e-06
-1.03435e-06
5.87856e-06
-1.52723e-06
7.11046e-06
-1.95975e-06
7.81708e-06
-2.29527e-06