/*--------------------------------*- C++ -*----------------------------------*\
| =========                 |                                                 |
| \\      /  F ield         | OpenFOAM: The Open Source CFD Toolbox           |
|  \\    /   O peration     | Version:  2506                                  |
|   \\  /    A nd           | Website:  www.openfoam.com                      |
|    \\/     M anipulation  |                                                 |
\*---------------------------------------------------------------------------*/
FoamFile
{
    version     2.0;
    format      ascii;
    arch        "LSB;label=32;scalar=64";
    class       volVectorField;
    location    "0.24";
    object      U;
}
// * * * * * * * * * * * * * * * * * * * * * * * * * * * * * * * * * * * * * //

dimensions      [0 1 -1 0 0 0 0];

internalField   nonuniform List<vector> 
1600
(
(6.05791e-05 -6.04314e-05 0)
(0.000155992 -5.70721e-05 0)
(0.00015686 -7.00915e-06 0)
(6.54443e-06 5.24525e-05 0)
(-0.000303374 0.000107964 0)
(-0.000756518 0.000154811 0)
(-0.00132844 0.000191628 0)
(-0.00199216 0.000218461 0)
(-0.00272048 0.000235884 0)
(-0.00348712 0.000244643 0)
(-0.00426736 0.000245528 0)
(-0.00503832 0.000239323 0)
(-0.00577915 0.00022679 0)
(-0.00647111 0.000208662 0)
(-0.00709755 0.00018565 0)
(-0.007644 0.000158443 0)
(-0.00809813 0.000127723 0)
(-0.00844979 9.41705e-05 0)
(-0.00869107 5.84748e-05 0)
(-0.00881633 2.13439e-05 0)
(-0.00882228 -1.64878e-05 0)
(-0.00870806 -5.42534e-05 0)
(-0.00847536 -9.11506e-05 0)
(-0.00812849 -0.000126341 0)
(-0.00767444 -0.000158951 0)
(-0.007123 -0.000188085 0)
(-0.00648672 -0.000212829 0)
(-0.00578096 -0.000232268 0)
(-0.00502375 -0.000245504 0)
(-0.00423566 -0.00025167 0)
(-0.00343964 -0.000249955 0)
(-0.0026606 -0.000239617 0)
(-0.00192505 -0.000220021 0)
(-0.00126049 -0.000190685 0)
(-0.000694483 -0.00015141 0)
(-0.000253261 -0.000102618 0)
(4.06777e-05 -4.61907e-05 0)
(0.000174202 1.26404e-05 0)
(0.000160285 6.01786e-05 0)
(6.02526e-05 6.00166e-05 0)
(5.86986e-05 -0.000156794 0)
(7.25488e-05 -6.93271e-05 0)
(-0.000178488 0.000182397 0)
(-0.000772704 0.000476914 0)
(-0.00172459 0.000760899 0)
(-0.0030076 0.00100921 0)
(-0.00457319 0.00121053 0)
(-0.00636197 0.00136097 0)
(-0.0083102 0.00146044 0)
(-0.0103537 0.00151082 0)
(-0.0124301 0.00151509 0)
(-0.0144806 0.00147682 0)
(-0.0164508 0.00139986 0)
(-0.0182909 0.00128828 0)
(-0.0199568 0.0011462 0)
(-0.0214096 0.000977825 0)
(-0.0226162 0.000787414 0)
(-0.0235496 0.000579299 0)
(-0.0241887 0.000357912 0)
(-0.0245184 0.000127813 0)
(-0.0245303 -0.000106283 0)
(-0.0242226 -0.00033949 0)
(-0.0236003 -0.00056675 0)
(-0.0226752 -0.000782845 0)
(-0.0214666 -0.000982429 0)
(-0.020001 -0.00116009 0)
(-0.0183118 -0.00131041 0)
(-0.0164399 -0.0014281 0)
(-0.0144328 -0.00150812 0)
(-0.012344 -0.0015458 0)
(-0.0102326 -0.00153706 0)
(-0.00816199 -0.00147861 0)
(-0.00619823 -0.0013683 0)
(-0.00440806 -0.00120557 0)
(-0.00285586 -0.000992309 0)
(-0.00159938 -0.000734574 0)
(-0.000683043 -0.000445916 0)
(-0.000127 -0.000153483 0)
(9.19244e-05 8.83122e-05 0)
(6.17303e-05 0.000160674 0)
(1.146e-05 -0.00016263 0)
(-0.000171885 0.000178591 0)
(-0.000803905 0.000813909 0)
(-0.00193069 0.00153613 0)
(-0.00355312 0.0022383 0)
(-0.00563525 0.00286095 0)
(-0.00811229 0.00337251 0)
(-0.0109028 0.00375859 0)
(-0.0139172 0.00401503 0)
(-0.0170636 0.00414378 0)
(-0.0202512 0.00415051 0)
(-0.0233932 0.00404323 0)
(-0.0264084 0.00383134 0)
(-0.0292223 0.00352517 0)
(-0.031768 0.00313563 0)
(-0.0339868 0.00267401 0)
(-0.0358285 0.00215196 0)
(-0.037252 0.00158142 0)
(-0.0382252 0.000974692 0)
(-0.0387257 0.000344428 0)
(-0.0387408 -0.000296303 0)
(-0.038268 -0.000934005 0)
(-0.0373154 -0.00155478 0)
(-0.0359013 -0.00214436 0)
(-0.0340553 -0.00268825 0)
(-0.0318176 -0.00317188 0)
(-0.0292391 -0.00358086 0)
(-0.0263813 -0.00390125 0)
(-0.0233152 -0.00411998 0)
(-0.0201207 -0.00422528 0)
(-0.0168853 -0.00420729 0)
(-0.0137018 -0.00405873 0)
(-0.010666 -0.00377593 0)
(-0.00787346 -0.00336014 0)
(-0.00541452 -0.00281981 0)
(-0.00336866 -0.00217426 0)
(-0.00179555 -0.00146012 0)
(-0.000723083 -0.000741158 0)
(-0.000138895 -0.000126553 0)
(1.76579e-05 0.000179949 0)
(-4.54051e-05 -2.18855e-05 0)
(-0.000464275 0.000768062 0)
(-0.00153503 0.00194119 0)
(-0.00324103 0.00322609 0)
(-0.00555318 0.00446718 0)
(-0.00842049 0.00556965 0)
(-0.011762 0.00647849 0)
(-0.0154778 0.00716563 0)
(-0.0194583 0.00762042 0)
(-0.0235899 0.00784355 0)
(-0.0277598 0.00784315 0)
(-0.0318594 0.00763225 0)
(-0.0357862 0.00722708 0)
(-0.0394458 0.00664605 0)
(-0.0427532 0.00590903 0)
(-0.0456334 0.00503692 0)
(-0.0480225 0.00405147 0)
(-0.0498677 0.00297515 0)
(-0.0511281 0.00183114 0)
(-0.0517753 0.00064334 0)
(-0.0517932 -0.000563572 0)
(-0.0511789 -0.00176418 0)
(-0.0499427 -0.00293238 0)
(-0.0481086 -0.00404149 0)
(-0.0457144 -0.00506452 0)
(-0.0428115 -0.00597447 0)
(-0.0394649 -0.00674484 0)
(-0.0357526 -0.00735018 0)
(-0.0317644 -0.00776688 0)
(-0.0276014 -0.00797407 0)
(-0.0233731 -0.00795472 0)
(-0.0191955 -0.00769708 0)
(-0.0151877 -0.0071964 0)
(-0.0114674 -0.00645748 0)
(-0.00814578 -0.0054982 0)
(-0.00532097 -0.00435502 0)
(-0.00306831 -0.00309145 0)
(-0.00142964 -0.00180968 0)
(-0.000420004 -0.000669599 0)
(-3.66963e-05 5.96844e-05 0)
(-0.000100477 0.000278656 0)
(-0.000761007 0.001729 0)
(-0.0022892 0.00359136 0)
(-0.00459233 0.00555487 0)
(-0.00760092 0.0074269 0)
(-0.0112429 0.00908242 0)
(-0.0154187 0.0104445 0)
(-0.0200102 0.0114711 0)
(-0.0248898 0.0121443 0)
(-0.0299261 0.012463 0)
(-0.0349885 0.0124377 0)
(-0.0399504 0.0120866 0)
(-0.0446924 0.0114338 0)
(-0.0491044 0.0105069 0)
(-0.0530865 0.0093363 0)
(-0.0565511 0.00795445 0)
(-0.0594227 0.0063952 0)
(-0.0616394 0.00469376 0)
(-0.0631534 0.00288653 0)
(-0.0639309 0.0010111 0)
(-0.0639533 -0.00089377 0)
(-0.0632172 -0.00278819 0)
(-0.0617348 -0.00463127 0)
(-0.0595343 -0.00638135 0)
(-0.0566601 -0.0079964 0)
(-0.0531724 -0.00943453 0)
(-0.0491475 -0.0106548 0)
(-0.0446764 -0.0116181 0)
(-0.0398642 -0.0122886 0)
(-0.0348285 -0.0126347 0)
(-0.0296969 -0.0126313 0)
(-0.0246042 -0.0122617 0)
(-0.0196885 -0.0115205 0)
(-0.0150867 -0.0104166 0)
(-0.0109288 -0.00897845 0)
(-0.00733159 -0.00726038 0)
(-0.004389 -0.00535194 0)
(-0.00216316 -0.00338945 0)
(-0.000707106 -0.00157323 0)
(-8.96189e-05 -0.000214768 0)
(-0.000150709 0.000732577 0)
(-0.00104563 0.00306214 0)
(-0.00302876 0.00577171 0)
(-0.00592887 0.00852983 0)
(-0.0096309 0.0111185 0)
(-0.014037 0.0133893 0)
(-0.0190258 0.0152474 0)
(-0.0244599 0.0166384 0)
(-0.0301942 0.0175381 0)
(-0.0360809 0.0179439 0)
(-0.0419738 0.017869 0)
(-0.0477316 0.0173377 0)
(-0.053221 0.0163824 0)
(-0.0583187 0.0150414 0)
(-0.0629134 0.0133568 0)
(-0.0669067 0.011374 0)
(-0.0702144 0.00914063 0)
(-0.0727673 0.00670651 0)
(-0.0745115 0.00412308 0)
(-0.0754094 0.00144355 0)
(-0.07544 -0.00127722 0)
(-0.0745992 -0.00398284 0)
(-0.0729005 -0.00661559 0)
(-0.0703754 -0.00911674 0)
(-0.0670731 -0.0114271 0)
(-0.0630608 -0.0134881 0)
(-0.0584232 -0.0152421 0)
(-0.0532619 -0.0166349 0)
(-0.0476943 -0.0176163 0)
(-0.0418514 -0.0181431 0)
(-0.0358759 -0.0181809 0)
(-0.0299187 -0.0177074 0)
(-0.024135 -0.0167156 0)
(-0.0186796 -0.0152187 0)
(-0.0137011 -0.013255 0)
(-0.00933672 -0.0108954 0)
(-0.00570256 -0.00825229 0)
(-0.002886 -0.00549031 0)
(-0.000983443 -0.00283996 0)
(-0.000137888 -0.000637736 0)
(-0.000196007 0.00132954 0)
(-0.00131379 0.00475606 0)
(-0.00373993 0.00847459 0)
(-0.0072275 0.0121453 0)
(-0.0116143 0.0155346 0)
(-0.0167735 0.0184781 0)
(-0.0225595 0.0208675 0)
(-0.0288136 0.0226395 0)
(-0.035373 0.0237654 0)
(-0.0420738 0.0242427 0)
(-0.0487555 0.0240884 0)
(-0.0552638 0.0233337 0)
(-0.0614533 0.0220208 0)
(-0.0671903 0.0201991 0)
(-0.0723537 0.0179242 0)
(-0.0768369 0.0152555 0)
(-0.0805486 0.0122558 0)
(-0.0834135 0.00899092 0)
(-0.0853732 0.00552877 0)
(-0.0863866 0.00193968 0)
(-0.0864307 -0.00170386 0)
(-0.0855006 -0.0053274 0)
(-0.0836106 -0.00885476 0)
(-0.0807939 -0.0122085 0)
(-0.0771035 -0.0153108 0)
(-0.0726115 -0.0180843 0)
(-0.0674093 -0.0204535 0)
(-0.0616068 -0.022347 0)
(-0.0553309 -0.0236991 0)
(-0.0487245 -0.0244532 0)
(-0.0419431 -0.0245642 0)
(-0.0351523 -0.0240029 0)
(-0.0285236 -0.0227598 0)
(-0.0222295 -0.0208507 0)
(-0.0164389 -0.018322 0)
(-0.0113113 -0.0152584 0)
(-0.00698804 -0.0117915 0)
(-0.00358533 -0.00810809 0)
(-0.00124487 -0.00446046 0)
(-0.000181383 -0.00119952 0)
(-0.000237305 0.00205985 0)
(-0.00156671 0.00679622 0)
(-0.00442166 0.0116866 0)
(-0.00848406 0.0163899 0)
(-0.0135449 0.0206644 0)
(-0.0194467 0.024336 0)
(-0.0260175 0.0272882 0)
(-0.0330761 0.0294527 0)
(-0.0404406 0.0307992 0)
(-0.0479313 0.0313274 0)
(-0.0553736 0.0310599 0)
(-0.0626013 0.0300364 0)
(-0.0694586 0.0283098 0)
(-0.0758026 0.0259425 0)
(-0.0815044 0.0230041 0)
(-0.0864507 0.0195695 0)
(-0.0905446 0.0157178 0)
(-0.0937059 0.0115316 0)
(-0.0958727 0.00709657 0)
(-0.0970009 0.00250128 0)
(-0.0970655 -0.00216311 0)
(-0.0960607 -0.00680292 0)
(-0.0940008 -0.0113224 0)
(-0.09092 -0.015624 0)
(-0.0868733 -0.01961 0)
(-0.0819364 -0.0231828 0)
(-0.0762055 -0.0262476 0)
(-0.0697967 -0.0287141 0)
(-0.0628454 -0.0304996 0)
(-0.0555039 -0.0315321 0)
(-0.0479399 -0.0317543 0)
(-0.0403329 -0.031128 0)
(-0.0328706 -0.0296393 0)
(-0.0257443 -0.0273042 0)
(-0.0191441 -0.0241747 0)
(-0.0132545 -0.0203461 0)
(-0.00824477 -0.0159646 0)
(-0.00426193 -0.0112341 0)
(-0.00149322 -0.00642303 0)
(-0.00022112 -0.00189126 0)
(-0.000275741 0.00291572 0)
(-0.00180774 0.00916927 0)
(-0.0050789 0.0153941 0)
(-0.00970427 0.0212517 0)
(-0.015429 0.0264972 0)
(-0.0220645 0.0309523 0)
(-0.0294106 0.0344975 0)
(-0.0372626 0.0370633 0)
(-0.0454187 0.0386214 0)
(-0.0536826 0.0391766 0)
(-0.0618661 0.0387592 0)
(-0.0697916 0.0374195 0)
(-0.0772938 0.0352228 0)
(-0.084222 0.0322457 0)
(-0.0904409 0.028573 0)
(-0.0958317 0.0242962 0)
(-0.100293 0.0195116 0)
(-0.103741 0.0143195 0)
(-0.106111 0.00882409 0)
(-0.107357 0.00313277 0)
(-0.10745 -0.00264381 0)
(-0.106385 -0.00839202 0)
(-0.104175 -0.0139956 0)
(-0.100855 -0.0193362 0)
(-0.0964787 -0.0242948 0)
(-0.0911255 -0.0287526 0)
(-0.0848942 -0.0325939 0)
(-0.077906 -0.0357079 0)
(-0.0703025 -0.0379929 0)
(-0.0622451 -0.0393597 0)
(-0.0539124 -0.0397362 0)
(-0.0454977 -0.0390732 0)
(-0.0372053 -0.0373494 0)
(-0.0292463 -0.034578 0)
(-0.021834 -0.0308134 0)
(-0.0151798 -0.0261577 0)
(-0.00948303 -0.0207681 0)
(-0.00492322 -0.0148613 0)
(-0.00173277 -0.00871827 0)
(-0.000258395 -0.00270642 0)
(-0.000312371 0.00389166 0)
(-0.00204077 0.0118649 0)
(-0.00571895 0.0195863 0)
(-0.0108983 0.0267208 0)
(-0.0172794 0.0330244 0)
(-0.0246416 0.0383192 0)
(-0.0327563 0.0424868 0)
(-0.0413937 0.0454612 0)
(-0.0503315 0.0472197 0)
(-0.0593564 0.0477755 0)
(-0.0682666 0.0471694 0)
(-0.0768734 0.0454647 0)
(-0.0850031 0.0427408 0)
(-0.0924981 0.0390902 0)
(-0.0992178 0.0346143 0)
(-0.105039 0.0294221 0)
(-0.109858 0.0236278 0)
(-0.113587 0.0173502 0)
(-0.116159 0.0107122 0)
(-0.117526 0.00384069 0)
(-0.117659 -0.00313393 0)
(-0.11655 -0.0100777 0)
(-0.114209 -0.0168532 0)
(-0.110671 -0.0233209 0)
(-0.105991 -0.0293393 0)
(-0.100248 -0.0347677 0)
(-0.0935409 -0.0394676 0)
(-0.0859957 -0.0433065 0)
(-0.077759 -0.0461612 0)
(-0.0689996 -0.047923 0)
(-0.0599068 -0.0485025 0)
(-0.0506875 -0.047836 0)
(-0.0415632 -0.0458915 0)
(-0.0327659 -0.0426762 0)
(-0.024534 -0.038243 0)
(-0.0171078 -0.0326971 0)
(-0.0107184 -0.0262028 0)
(-0.00557953 -0.0189871 0)
(-0.00196859 -0.0113412 0)
(-0.000294473 -0.00364131 0)
(-0.000348098 0.00498439 0)
(-0.00226959 0.0148767 0)
(-0.00634969 0.0242558 0)
(-0.012078 0.0327906 0)
(-0.019111 0.0402403 0)
(-0.0271957 0.046431 0)
(-0.0360742 0.05125 0)
(-0.045491 0.0546387 0)
(-0.0552023 0.0565845 0)
(-0.0649778 0.0571122 0)
(-0.0746019 0.0562768 0)
(-0.0838756 0.0541566 0)
(-0.0926173 0.0508481 0)
(-0.100664 0.0464609 0)
(-0.10787 0.0411147 0)
(-0.11411 0.0349366 0)
(-0.119276 0.0280596 0)
(-0.123282 0.0206213 0)
(-0.126057 0.0127638 0)
(-0.127552 0.00463318 0)
(-0.127736 -0.00362025 0)
(-0.126597 -0.0118421 0)
(-0.124147 -0.0198739 0)
(-0.120416 -0.027554 0)
(-0.115458 -0.0347186 0)
(-0.10935 -0.0412033 0)
(-0.102193 -0.0468461 0)
(-0.0941131 -0.0514904 0)
(-0.0852611 -0.0549897 0)
(-0.0758124 -0.0572126 0)
(-0.0659662 -0.0580492 0)
(-0.0559428 -0.0574177 0)
(-0.0459816 -0.0552716 0)
(-0.0363368 -0.0516079 0)
(-0.0272732 -0.0464736 0)
(-0.0190621 -0.0399734 0)
(-0.0119687 -0.0322757 0)
(-0.00624213 -0.0236148 0)
(-0.00220579 -0.0142923 0)
(-0.000330494 -0.00469511 0)
(-0.000383671 0.00619263 0)
(-0.00249763 0.0182019 0)
(-0.00697869 0.0293997 0)
(-0.0132551 0.0394582 0)
(-0.0209389 0.048142 0)
(-0.0297446 0.0552845 0)
(-0.0393837 0.0607825 0)
(-0.0495745 0.0645895 0)
(-0.0600513 0.0667069 0)
(-0.0705664 0.0671755 0)
(-0.0808908 0.0660677 0)
(-0.0908156 0.0634804 0)
(-0.100152 0.0595291 0)
(-0.108733 0.0543428 0)
(-0.116409 0.0480608 0)
(-0.123054 0.0408294 0)
(-0.12856 0.0328007 0)
(-0.132837 0.0241314 0)
(-0.135816 0.0149826 0)
(-0.137445 0.00551942 0)
(-0.137692 -0.00408827 0)
(-0.136543 -0.013666 0)
(-0.134006 -0.0230344 0)
(-0.130108 -0.0320099 0)
(-0.124901 -0.0404055 0)
(-0.118458 -0.048033 0)
(-0.110879 -0.0547049 0)
(-0.102289 -0.060239 0)
(-0.0928426 -0.0644625 0)
(-0.0827194 -0.0672187 0)
(-0.0721275 -0.068373 0)
(-0.0613009 -0.0678213 0)
(-0.0504968 -0.0654983 0)
(-0.0399925 -0.0613855 0)
(-0.0300812 -0.0555201 0)
(-0.0210673 -0.0480019 0)
(-0.013252 -0.0389999 0)
(-0.00692228 -0.0287545 0)
(-0.00244926 -0.0175775 0)
(-0.000367474 -0.00586971 0)
(-0.000419717 0.0075168 0)
(-0.00272793 0.0218414 0)
(-0.00761291 0.0350191 0)
(-0.0144405 0.0467247 0)
(-0.0227775 0.0567297 0)
(-0.0323045 0.0648781 0)
(-0.042702 0.0710804 0)
(-0.0536609 0.0753065 0)
(-0.0648934 0.0775767 0)
(-0.0761342 0.077952 0)
(-0.0871417 0.0765263 0)
(-0.0976976 0.0734183 0)
(-0.107608 0.0687654 0)
(-0.116701 0.0627182 0)
(-0.124828 0.0554368 0)
(-0.131861 0.0470878 0)
(-0.137693 0.037843 0)
(-0.142234 0.0278778 0)
(-0.145416 0.0173719 0)
(-0.147185 0.00650909 0)
(-0.147508 -0.00452214 0)
(-0.146368 -0.0155279 0)
(-0.14377 -0.0263085 0)
(-0.139736 -0.0366589 0)
(-0.134313 -0.046369 0)
(-0.12757 -0.0552255 0)
(-0.119604 -0.0630148 0)
(-0.110537 -0.0695269 0)
(-0.100522 -0.0745601 0)
(-0.0897445 -0.0779283 0)
(-0.0784193 -0.0794685 0)
(-0.066793 -0.0790493 0)
(-0.0551409 -0.0765809 0)
(-0.0437644 -0.0720244 0)
(-0.0329867 -0.0654016 0)
(-0.0231471 -0.0568031 0)
(-0.0145861 -0.0463954 0)
(-0.00763082 -0.034423 0)
(-0.0027036 -0.0212082 0)
(-0.000406325 -0.00716953 0)
(-0.000456769 0.00895887 0)
(-0.00296318 0.0257994 0)
(-0.00825864 0.0411189 0)
(-0.0156442 0.0545945 0)
(-0.0246396 0.066006 0)
(-0.0348898 0.0752115 0)
(-0.0460432 0.0821393 0)
(-0.0577624 0.086781 0)
(-0.069737 0.0891804 0)
(-0.0816848 0.089424 0)
(-0.0933516 0.0876313 0)
(-0.104512 0.0839467 0)
(-0.114966 0.0785325 0)
(-0.124543 0.0715632 0)
(-0.133093 0.0632213 0)
(-0.14049 0.0536945 0)
(-0.146629 0.0431743 0)
(-0.151423 0.0318548 0)
(-0.154803 0.0199335 0)
(-0.156717 0.00761161 0)
(-0.157129 -0.00490479 0)
(-0.156021 -0.0174036 0)
(-0.153391 -0.0296661 0)
(-0.149257 -0.0414662 0)
(-0.14366 -0.052571 0)
(-0.136661 -0.0627423 0)
(-0.12835 -0.0717389 0)
(-0.118847 -0.0793209 0)
(-0.1083 -0.0852551 0)
(-0.0968974 -0.0893221 0)
(-0.0848587 -0.0913253 0)
(-0.072442 -0.0911007 0)
(-0.0599406 -0.0885277 0)
(-0.0476803 -0.0835409 0)
(-0.0360157 -0.0761406 0)
(-0.0253239 -0.0664032 0)
(-0.0159876 -0.0544885 0)
(-0.00837803 -0.0406434 0)
(-0.00297311 -0.0252011 0)
(-0.000447882 -0.0086013 0)
(-0.0004953 0.0105221 0)
(-0.00320584 0.0300829 0)
(-0.00892167 0.0477077 0)
(-0.0168754 0.063075 0)
(-0.0265365 0.0759755 0)
(-0.0375126 0.0862844 0)
(-0.0494178 0.0939533 0)
(-0.0618858 0.0990005 0)
(-0.0745834 0.101499 0)
(-0.0872115 0.101567 0)
(-0.099505 0.0993533 0)
(-0.111232 0.0950331 0)
(-0.122191 0.0887967 0)
(-0.132211 0.0808449 0)
(-0.141147 0.0713843 0)
(-0.148875 0.0606244 0)
(-0.155294 0.0487763 0)
(-0.160322 0.0360521 0)
(-0.163892 0.0226661 0)
(-0.165952 0.00883537 0)
(-0.166467 -0.00521814 0)
(-0.165413 -0.019266 0)
(-0.162786 -0.0330717 0)
(-0.158595 -0.0463897 0)
(-0.152872 -0.0589652 0)
(-0.145671 -0.0705349 0)
(-0.137072 -0.0808293 0)
(-0.127186 -0.0895769 0)
(-0.116158 -0.0965096 0)
(-0.104171 -0.101371 0)
(-0.0914493 -0.103925 0)
(-0.0782607 -0.103968 0)
(-0.064915 -0.101344 0)
(-0.0517627 -0.0959507 0)
(-0.0391911 -0.0877617 0)
(-0.0276181 -0.0768322 0)
(-0.0174722 -0.0633111 0)
(-0.00917367 -0.0474448 0)
(-0.00326189 -0.0295778 0)
(-0.000492939 -0.010174 0)
(-0.000535763 0.012211 0)
(-0.00345827 0.0347019 0)
(-0.00960753 0.0547969 0)
(-0.0181425 0.0721762 0)
(-0.0284786 0.0866435 0)
(-0.0401828 0.0980958 0)
(-0.0528331 0.106513 0)
(-0.0660328 0.111947 0)
(-0.0794259 0.114506 0)
(-0.0926973 0.114346 0)
(-0.105572 0.111652 0)
(-0.117815 0.106633 0)
(-0.129225 0.099512 0)
(-0.139635 0.0905185 0)
(-0.148904 0.0798845 0)
(-0.156916 0.0678422 0)
(-0.163578 0.0546218 0)
(-0.168812 0.0404526 0)
(-0.172556 0.0255639 0)
(-0.174761 0.0101867 0)
(-0.175389 -0.00544358 0)
(-0.174416 -0.0210844 0)
(-0.17183 -0.0364839 0)
(-0.167633 -0.0513791 0)
(-0.161845 -0.0654943 0)
(-0.154509 -0.0785421 0)
(-0.145693 -0.0902242 0)
(-0.135494 -0.100236 0)
(-0.12405 -0.108271 0)
(-0.111536 -0.114031 0)
(-0.0981785 -0.117236 0)
(-0.0842495 -0.117636 0)
(-0.0700745 -0.115027 0)
(-0.0560283 -0.109266 0)
(-0.0425324 -0.100289 0)
(-0.0300482 -0.0881233 0)
(-0.0190549 -0.0729 0)
(-0.0100271 -0.0548621 0)
(-0.00357396 -0.0343647 0)
(-0.000542277 -0.0118986 0)
(-0.000578629 0.0140314 0)
(-0.00372293 0.0396688 0)
(-0.0103219 0.0624013 0)
(-0.0194542 0.0819105 0)
(-0.0304756 0.0980161 0)
(-0.0429088 0.110642 0)
(-0.0562927 0.119804 0)
(-0.0701993 0.125593 0)
(-0.0842494 0.128164 0)
(-0.0981133 0.127713 0)
(-0.111509 0.124471 0)
(-0.1242 0.118686 0)
(-0.135989 0.110616 0)
(-0.146715 0.100523 0)
(-0.156249 0.0886657 0)
(-0.164484 0.075299 0)
(-0.171336 0.0606722 0)
(-0.176737 0.0450301 0)
(-0.180631 0.0286147 0)
(-0.182972 0.0116685 0)
(-0.183723 -0.00556254 0)
(-0.182858 -0.022825 0)
(-0.180356 -0.0398548 0)
(-0.176212 -0.0563739 0)
(-0.170432 -0.0720883 0)
(-0.163043 -0.0866873 0)
(-0.154097 -0.0998444 0)
(-0.143677 -0.11122 0)
(-0.131904 -0.120468 0)
(-0.118943 -0.127243 0)
(-0.105015 -0.131213 0)
(-0.090394 -0.132074 0)
(-0.0754188 -0.129566 0)
(-0.0604869 -0.123495 0)
(-0.0460548 -0.113746 0)
(-0.0326306 -0.100311 0)
(-0.0207494 -0.0832963 0)
(-0.0109476 -0.0629354 0)
(-0.00391333 -0.0395924 0)
(-0.000596699 -0.0137882 0)
(-0.000624435 0.0159902 0)
(-0.00400256 0.0449992 0)
(-0.011071 0.0705386 0)
(-0.0208195 0.0922919 0)
(-0.0325374 0.110099 0)
(-0.0456979 0.123917 0)
(-0.0597977 0.133804 0)
(-0.0743757 0.139903 0)
(-0.0890299 0.14242 0)
(-0.103418 0.141605 0)
(-0.117253 0.137738 0)
(-0.130302 0.131112 0)
(-0.142375 0.122027 0)
(-0.153324 0.110778 0)
(-0.163033 0.0976531 0)
(-0.171409 0.0829297 0)
(-0.178383 0.0668749 0)
(-0.183897 0.049747 0)
(-0.187905 0.0317983 0)
(-0.190366 0.0132792 0)
(-0.191247 -0.00555744 0)
(-0.190516 -0.0244512 0)
(-0.188148 -0.0431294 0)
(-0.184125 -0.061303 0)
(-0.178438 -0.0786624 0)
(-0.171097 -0.0948761 0)
(-0.162132 -0.10959 0)
(-0.151604 -0.12243 0)
(-0.139614 -0.133005 0)
(-0.126311 -0.140921 0)
(-0.111903 -0.145786 0)
(-0.0966626 -0.147233 0)
(-0.0809354 -0.144935 0)
(-0.0651403 -0.138632 0)
(-0.0497691 -0.128151 0)
(-0.0353798 -0.113431 0)
(-0.0225693 -0.0945441 0)
(-0.0119444 -0.0717092 0)
(-0.00428423 -0.0452964 0)
(-0.000657076 -0.0158582 0)
(-0.000673849 0.0180961 0)
(-0.00430054 0.0507119 0)
(-0.0118624 0.0792299 0)
(-0.0222493 0.103336 0)
(-0.0346751 0.122895 0)
(-0.0485573 0.137906 0)
(-0.0633464 0.148482 0)
(-0.0785465 0.154825 0)
(-0.0937338 0.157206 0)
(-0.108555 0.155936 0)
(-0.122725 0.151355 0)
(-0.136015 0.143807 0)
(-0.148251 0.133638 0)
(-0.159302 0.12118 0)
(-0.16907 0.10675 0)
(-0.177484 0.0906489 0)
(-0.184489 0.0731597 0)
(-0.190046 0.0545516 0)
(-0.194119 0.0350838 0)
(-0.196676 0.0150107 0)
(-0.197686 -0.00541268 0)
(-0.197117 -0.0259236 0)
(-0.194936 -0.0462457 0)
(-0.191112 -0.0660833 0)
(-0.185619 -0.0851156 0)
(-0.178445 -0.102993 0)
(-0.169593 -0.119337 0)
(-0.159099 -0.133738 0)
(-0.147036 -0.145761 0)
(-0.133527 -0.154954 0)
(-0.118762 -0.160862 0)
(-0.103003 -0.163042 0)
(-0.086597 -0.16109 0)
(-0.069981 -0.154663 0)
(-0.0536812 -0.143513 0)
(-0.0383083 -0.127514 0)
(-0.0245279 -0.106689 0)
(-0.0130274 -0.0812331 0)
(-0.00469128 -0.0515166 0)
(-0.000724391 -0.018126 0)
(-0.000727742 0.0203596 0)
(-0.00462119 0.0568299 0)
(-0.0127057 0.0885005 0)
(-0.023757 0.115061 0)
(-0.036902 0.136408 0)
(-0.0514948 0.152592 0)
(-0.0669348 0.163794 0)
(-0.0826901 0.170291 0)
(-0.0983161 0.172429 0)
(-0.113453 0.170595 0)
(-0.12782 0.165196 0)
(-0.141204 0.156638 0)
(-0.15345 0.145313 0)
(-0.164451 0.131596 0)
(-0.174134 0.115834 0)
(-0.182453 0.0983479 0)
(-0.189378 0.0794363 0)
(-0.194886 0.0593758 0)
(-0.198959 0.0384282 0)
(-0.201576 0.0168468 0)
(-0.20271 -0.00511607 0)
(-0.202328 -0.0272012 0)
(-0.200391 -0.0491346 0)
(-0.196853 -0.0706194 0)
(-0.19167 -0.0913291 0)
(-0.184803 -0.110901 0)
(-0.176225 -0.128935 0)
(-0.165938 -0.144987 0)
(-0.153979 -0.158577 0)
(-0.140439 -0.169195 0)
(-0.125477 -0.176311 0)
(-0.109337 -0.179399 0)
(-0.0923588 -0.177959 0)
(-0.0749907 -0.171551 0)
(-0.0577914 -0.159831 0)
(-0.0414271 -0.142587 0)
(-0.0266391 -0.119779 0)
(-0.0142075 -0.0915606 0)
(-0.00513977 -0.0582982 0)
(-0.000799807 -0.0206118 0)
(-0.000787302 0.0227938 0)
(-0.00497033 0.0633813 0)
(-0.0136135 0.0983806 0)
(-0.0253599 0.127486 0)
(-0.0392351 0.150634 0)
(-0.0545198 0.167944 0)
(-0.0705572 0.179678 0)
(-0.0867778 0.186206 0)
(-0.102719 0.187968 0)
(-0.11802 0.185439 0)
(-0.132412 0.179104 0)
(-0.145703 0.169436 0)
(-0.157768 0.156884 0)
(-0.168531 0.141862 0)
(-0.177951 0.124751 0)
(-0.186014 0.105891 0)
(-0.192718 0.0855913 0)
(-0.198064 0.0641322 0)
(-0.202055 0.0417733 0)
(-0.204681 0.0187614 0)
(-0.205925 -0.00466031 0)
(-0.205753 -0.0282426 0)
(-0.204119 -0.0517206 0)
(-0.200964 -0.0748034 0)
(-0.196222 -0.0971654 0)
(-0.189824 -0.118437 0)
(-0.181709 -0.138201 0)
(-0.171837 -0.155983 0)
(-0.160202 -0.171259 0)
(-0.146849 -0.183456 0)
(-0.131897 -0.191965 0)
(-0.115558 -0.196162 0)
(-0.0981543 -0.195438 0)
(-0.0801372 -0.189234 0)
(-0.0620934 -0.177084 0)
(-0.0447451 -0.158669 0)
(-0.0289176 -0.133859 0)
(-0.0154972 -0.10275 0)
(-0.00563604 -0.0656918 0)
(-0.000884761 -0.0233388 0)
(-0.000854177 0.0254154 0)
(-0.00535587 0.0704016 0)
(-0.0146029 0.108907 0)
(-0.0270813 0.140633 0)
(-0.0416965 0.165569 0)
(-0.0576439 0.183919 0)
(-0.0742045 0.196052 0)
(-0.0907711 0.202452 0)
(-0.106867 0.20367 0)
(-0.122139 0.200287 0)
(-0.136339 0.192878 0)
(-0.149307 0.181993 0)
(-0.160957 0.168139 0)
(-0.171253 0.151777 0)
(-0.180195 0.133315 0)
(-0.187807 0.113113 0)
(-0.194121 0.0914851 0)
(-0.199168 0.0687118 0)
(-0.202973 0.0450443 0)
(-0.205544 0.0207164 0)
(-0.206873 -0.00404475 0)
(-0.206928 -0.0290074 0)
(-0.205658 -0.0539233 0)
(-0.202989 -0.078516 0)
(-0.198833 -0.102468 0)
(-0.193089 -0.125413 0)
(-0.185657 -0.14692 0)
(-0.176446 -0.166493 0)
(-0.165398 -0.183565 0)
(-0.152501 -0.1975 0)
(-0.13782 -0.207603 0)
(-0.121519 -0.213143 0)
(-0.10389 -0.213381 0)
(-0.085372 -0.207615 0)
(-0.0665728 -0.195231 0)
(-0.04827 -0.175767 0)
(-0.0313798 -0.148972 0)
(-0.0169116 -0.114862 0)
(-0.00618797 -0.0737546 0)
(-0.000981086 -0.0263339 0)
(-0.000930688 0.0282459 0)
(-0.00578875 0.0779359 0)
(-0.0156969 0.120126 0)
(-0.028952 0.154527 0)
(-0.0443145 0.181199 0)
(-0.0608808 0.200458 0)
(-0.0778633 0.212806 0)
(-0.0946187 0.218868 0)
(-0.110664 0.219335 0)
(-0.125663 0.214908 0)
(-0.139401 0.20627 0)
(-0.151764 0.194052 0)
(-0.162715 0.178827 0)
(-0.17227 0.161098 0)
(-0.180479 0.141303 0)
(-0.18741 0.119815 0)
(-0.193135 0.0969508 0)
(-0.197719 0.0729829 0)
(-0.201215 0.0481481 0)
(-0.203649 0.0226603 0)
(-0.205026 -0.00327713 0)
(-0.205319 -0.0294578 0)
(-0.204472 -0.055659 0)
(-0.202399 -0.0816272 0)
(-0.198987 -0.107064 0)
(-0.194103 -0.131613 0)
(-0.187601 -0.154843 0)
(-0.179337 -0.176241 0)
(-0.169188 -0.195203 0)
(-0.157074 -0.211032 0)
(-0.142988 -0.222946 0)
(-0.12703 -0.230093 0)
(-0.109437 -0.231587 0)
(-0.0906244 -0.226554 0)
(-0.0712047 -0.214196 0)
(-0.052007 -0.193868 0)
(-0.0340451 -0.165158 0)
(-0.0184694 -0.127965 0)
(-0.00680578 -0.0825519 0)
(-0.00109121 -0.0296287 0)
(-0.00102014 0.0313132 0)
(-0.0062842 0.0860425 0)
(-0.016927 0.132094 0)
(-0.0310127 0.169194 0)
(-0.0471255 0.197501 0)
(-0.0642456 0.217474 0)
(-0.0815117 0.22979 0)
(-0.0982492 0.235251 0)
(-0.11398 0.234712 0)
(-0.1284 0.22902 0)
(-0.141345 0.218976 0)
(-0.152762 0.205304 0)
(-0.162677 0.188642 0)
(-0.17117 0.169538 0)
(-0.178347 0.148452 0)
(-0.18433 0.125766 0)
(-0.189237 0.101793 0)
(-0.19317 0.0767898 0)
(-0.196211 0.0509724 0)
(-0.19841 0.0245268 0)
(-0.199786 -0.00237524 0)
(-0.20032 -0.0295612 0)
(-0.199952 -0.0568429 0)
(-0.198585 -0.084 0)
(-0.196085 -0.110763 0)
(-0.192282 -0.136798 0)
(-0.186987 -0.161685 0)
(-0.179994 -0.184904 0)
(-0.171107 -0.205826 0)
(-0.160165 -0.223697 0)
(-0.147072 -0.237646 0)
(-0.131837 -0.246693 0)
(-0.114624 -0.249787 0)
(-0.0957948 -0.245851 0)
(-0.0759499 -0.23386 0)
(-0.0559589 -0.212933 0)
(-0.0369367 -0.182446 0)
(-0.020195 -0.14213 0)
(-0.00750307 -0.0921595 0)
(-0.00121844 -0.033261 0)
(-0.00112729 0.0346552 0)
(-0.00686351 0.0947974 0)
(-0.0183361 0.144883 0)
(-0.033317 0.184665 0)
(-0.0501739 0.214435 0)
(-0.0677513 0.234851 0)
(-0.0851123 0.246809 0)
(-0.10156 0.251334 0)
(-0.11664 0.249482 0)
(-0.1301 0.242269 0)
(-0.141849 0.230628 0)
(-0.151913 0.21538 0)
(-0.160397 0.19723 0)
(-0.167455 0.176764 0)
(-0.173263 0.154461 0)
(-0.177998 0.130702 0)
(-0.181829 0.105788 0)
(-0.184899 0.0799546 0)
(-0.187322 0.0533865 0)
(-0.189172 0.0262348 0)
(-0.190485 -0.00136825 0)
(-0.19125 -0.0292924 0)
(-0.19141 -0.0573931 0)
(-0.190858 -0.0854935 0)
(-0.18944 -0.113365 0)
(-0.186955 -0.140709 0)
(-0.183164 -0.167129 0)
(-0.177802 -0.192117 0)
(-0.170592 -0.215029 0)
(-0.161276 -0.235066 0)
(-0.14965 -0.251272 0)
(-0.135612 -0.262539 0)
(-0.119218 -0.267629 0)
(-0.100743 -0.265232 0)
(-0.080748 -0.254044 0)
(-0.0601233 -0.232888 0)
(-0.040083 -0.200853 0)
(-0.0221208 -0.157434 0)
(-0.0082985 -0.102666 0)
(-0.00136744 -0.0372774 0)
(-0.0012591 0.0383225 0)
(-0.0075567 0.104301 0)
(-0.0199822 0.158583 0)
(-0.0359341 0.200968 0)
(-0.0535111 0.231939 0)
(-0.0714028 0.25242 0)
(-0.0885991 0.263597 0)
(-0.1044 0.266774 0)
(-0.118401 0.263246 0)
(-0.130432 0.254224 0)
(-0.1405 0.240783 0)
(-0.148732 0.223846 0)
(-0.15533 0.204179 0)
(-0.160535 0.182399 0)
(-0.164596 0.158991 0)
(-0.167756 0.134329 0)
(-0.170232 0.108691 0)
(-0.17221 0.08228 0)
(-0.173836 0.0552434 0)
(-0.17521 0.0276891 0)
(-0.176386 -0.000297395 0)
(-0.177364 -0.0286361 0)
(-0.178089 -0.0572346 0)
(-0.178452 -0.0859695 0)
(-0.178282 -0.114665 0)
(-0.177351 -0.143071 0)
(-0.175379 -0.170834 0)
(-0.172035 -0.197473 0)
(-0.166959 -0.222348 0)
(-0.159789 -0.244634 0)
(-0.150193 -0.263306 0)
(-0.137927 -0.277123 0)
(-0.122904 -0.284655 0)
(-0.105272 -0.284323 0)
(-0.0855076 -0.274492 0)
(-0.0644893 -0.253607 0)
(-0.0435185 -0.220373 0)
(-0.0242899 -0.173958 0)
(-0.00921822 -0.114179 0)
(-0.00154492 -0.0417358 0)
(-0.00142594 0.0423851 0)
(-0.00840651 0.114687 0)
(-0.0219442 0.173305 0)
(-0.0389512 0.218125 0)
(-0.0571918 0.249909 0)
(-0.0751833 0.269945 0)
(-0.0918562 0.279802 0)
(-0.10654 0.281129 0)
(-0.118919 0.275506 0)
(-0.128945 0.264361 0)
(-0.136756 0.24892 0)
(-0.142605 0.230204 0)
(-0.146807 0.209026 0)
(-0.149699 0.186024 0)
(-0.151611 0.161677 0)
(-0.152848 0.136334 0)
(-0.153679 0.11024 0)
(-0.154329 0.0835564 0)
(-0.154974 0.0563851 0)
(-0.155738 0.0287837 0)
(-0.156692 0.000784312 0)
(-0.157849 -0.0275893 0)
(-0.159164 -0.0563043 0)
(-0.160526 -0.0852995 0)
(-0.161757 -0.114463 0)
(-0.162611 -0.143608 0)
(-0.162768 -0.172442 0)
(-0.161843 -0.200532 0)
(-0.159395 -0.227268 0)
(-0.154947 -0.251826 0)
(-0.148028 -0.273128 0)
(-0.138223 -0.289823 0)
(-0.125258 -0.30028 0)
(-0.109103 -0.302629 0)
(-0.0900878 -0.29484 0)
(-0.0690289 -0.274887 0)
(-0.0472844 -0.24097 0)
(-0.0267612 -0.191788 0)
(-0.0102997 -0.12683 0)
(-0.00176094 -0.0467114 0)
(-0.00164368 0.0469406 0)
(-0.00947463 0.126133 0)
(-0.0243288 0.189185 0)
(-0.0424747 0.23614 0)
(-0.0612626 0.268175 0)
(-0.0790298 0.287089 0)
(-0.0946816 0.294948 0)
(-0.10763 0.293827 0)
(-0.117705 0.285641 0)
(-0.12503 0.272051 0)
(-0.129911 0.254433 0)
(-0.132756 0.233889 0)
(-0.134005 0.211266 0)
(-0.134099 0.187196 0)
(-0.133448 0.162136 0)
(-0.132416 0.136394 0)
(-0.131317 0.110169 0)
(-0.130409 0.0835723 0)
(-0.129892 0.0566505 0)
(-0.129912 0.0294062 0)
(-0.130555 0.00181384 0)
(-0.131849 -0.0261634 0)
(-0.133758 -0.0545569 0)
(-0.13618 -0.0833743 0)
(-0.138939 -0.112578 0)
(-0.141779 -0.142056 0)
(-0.144358 -0.171596 0)
(-0.146246 -0.200839 0)
(-0.14693 -0.229235 0)
(-0.145825 -0.255993 0)
(-0.142306 -0.280021 0)
(-0.135766 -0.299884 0)
(-0.125701 -0.313767 0)
(-0.111833 -0.319491 0)
(-0.0942692 -0.314578 0)
(-0.0736813 -0.29642 0)
(-0.0514258 -0.262551 0)
(-0.029615 -0.211012 0)
(-0.0115981 -0.140783 0)
(-0.00203101 -0.0523042 0)
(-0.00193743 0.0521272 0)
(-0.0108516 0.138876 0)
(-0.027279 0.20638 0)
(-0.0466261 0.254974 0)
(-0.0657383 0.286466 0)
(-0.0827897 0.303366 0)
(-0.0967271 0.308391 0)
(-0.107129 0.304137 0)
(-0.114049 0.292891 0)
(-0.117845 0.276554 0)
(-0.119034 0.256634 0)
(-0.118197 0.234287 0)
(-0.115913 0.210362 0)
(-0.112724 0.185461 0)
(-0.109111 0.159989 0)
(-0.105488 0.1342 0)
(-0.102202 0.10823 0)
(-0.0995323 0.0821298 0)
(-0.0976961 0.0558876 0)
(-0.0968511 0.0294465 0)
(-0.0970967 0.00272166 0)
(-0.0984736 -0.0243852 0)
(-0.100961 -0.0519713 0)
(-0.104471 -0.0801161 0)
(-0.108841 -0.108861 0)
(-0.113822 -0.138185 0)
(-0.119069 -0.167968 0)
(-0.124127 -0.19795 0)
(-0.128429 -0.227679 0)
(-0.131297 -0.256438 0)
(-0.131958 -0.283174 0)
(-0.129596 -0.306414 0)
(-0.123435 -0.3242 0)
(-0.112877 -0.334051 0)
(-0.0977045 -0.333 0)
(-0.0783231 -0.317738 0)
(-0.0559833 -0.284935 0)
(-0.0329596 -0.231706 0)