/*--------------------------------*- C++ -*----------------------------------*\
| =========                 |                                                 |
| \\      /  F ield         | OpenFOAM: The Open Source CFD Toolbox           |
|  \\    /   O peration     | Version:  2506                                  |
|   \\  /    A nd           | Website:  www.openfoam.com                      |
|    \\/     M anipulation  |                                                 |
\*---------------------------------------------------------------------------*/
FoamFile
{
    version     2.0;
    format      ascii;
    arch        "LSB;label=32;scalar=64";
    class       volVectorField;
    location    "8.5";
    object      ddtU;
}
// * * * * * * * * * * * * * * * * * * * * * * * * * * * * * * * * * * * * * //

dimensions      [0 1 -2 0 0 0 0];

internalField   nonuniform List<vector> 
400
(
(1.77636e-13 2.76765e-14 0)
(-4.44089e-14 -1.27372e-14 0)
(-4.44089e-14 1.38486e-15 0)
(0 5.37579e-15 0)
(-4.44089e-14 9.97754e-15 0)
(-2.22045e-14 -5.83706e-15 0)
(-2.22045e-14 -4.99722e-15 0)
(-2.22045e-14 -2.44406e-15 0)
(2.22045e-14 -1.20122e-14 0)
(0 -2.04639e-14 0)
(2.22045e-14 -9.60427e-15 0)
(4.44089e-14 8.7737e-15 0)
(0 3.81958e-15 0)
(4.44089e-14 1.24155e-14 0)
(2.22045e-14 1.20507e-14 0)
(0 -2.91188e-15 0)
(0 -2.17444e-15 0)
(2.22045e-14 1.92355e-16 0)
(2.22045e-14 -3.72214e-15 0)
(2.22045e-14 3.89437e-15 0)
(-2.22045e-14 -4.55802e-14 0)
(-8.88178e-14 -2.22683e-14 0)
(-4.44089e-14 -6.22528e-15 0)
(0 -1.84276e-14 0)
(0 -1.63343e-14 0)
(4.44089e-14 1.48242e-15 0)
(-4.44089e-14 -1.5399e-15 0)
(4.44089e-14 -4.32834e-15 0)
(0 -1.9281e-15 0)
(0 -1.69399e-15 0)
(-4.44089e-14 6.40808e-15 0)
(-4.44089e-14 5.95427e-15 0)
(-4.44089e-14 -1.68761e-14 0)
(-4.44089e-14 -1.44943e-14 0)
(0 1.44576e-14 0)
(0 3.04804e-14 0)
(-4.44089e-14 1.06623e-14 0)
(-4.44089e-14 -1.46112e-14 0)
(0 -9.16473e-15 0)
(-4.44089e-14 2.76238e-15 0)
(8.88178e-14 -2.99774e-14 0)
(-4.44089e-14 -3.66873e-14 0)
(0 -4.35664e-14 0)
(0 -3.48277e-14 0)
(-2.22045e-14 -2.83143e-14 0)
(-6.66134e-14 1.2156e-14 0)
(-2.22045e-14 9.24412e-15 0)
(-6.66134e-14 -5.23456e-15 0)
(-2.22045e-14 3.33441e-15 0)
(0 1.6901e-14 0)
(0 2.06589e-15 0)
(0 -4.07431e-15 0)
(0 -4.80876e-15 0)
(-6.66134e-14 -1.46867e-14 0)
(-6.66134e-14 -1.26777e-14 0)
(0 4.32503e-15 0)
(0 1.25834e-14 0)
(4.44089e-14 -8.6308e-15 0)
(0 -4.40236e-15 0)
(0 1.52481e-15 0)
(0 4.83175e-14 0)
(1.33227e-13 -1.87131e-14 0)
(-4.44089e-14 -4.11779e-14 0)
(-4.44089e-14 -6.02456e-15 0)
(-6.66134e-14 1.31345e-14 0)
(-2.22045e-14 6.85661e-15 0)
(4.44089e-14 1.80174e-14 0)
(-6.66134e-14 1.75787e-15 0)
(-2.22045e-14 -7.66277e-15 0)
(2.22045e-14 -8.26058e-15 0)
(0 -1.88216e-14 0)
(2.22045e-14 -7.04576e-15 0)
(2.22045e-14 1.19639e-14 0)
(0 9.79381e-15 0)
(0 -1.34461e-14 0)
(-2.22045e-14 -2.53133e-14 0)
(-2.22045e-14 -9.72922e-16 0)
(0 2.22183e-14 0)
(-4.44089e-14 1.82639e-15 0)
(-2.22045e-14 -9.31692e-15 0)
(-1.77636e-13 -2.49727e-14 0)
(4.44089e-14 -6.69597e-15 0)
(-2.22045e-14 7.22854e-15 0)
(-8.88178e-14 -2.22605e-17 0)
(0 -1.14739e-14 0)
(0 -1.46417e-14 0)
(0 6.92686e-16 0)
(0 -7.15384e-16 0)
(4.44089e-14 -1.0885e-14 0)
(6.66134e-14 -5.43635e-15 0)
(0 7.75861e-15 0)
(0 1.56591e-15 0)
(4.44089e-14 1.17317e-14 0)
(-4.44089e-14 1.06578e-14 0)
(-2.22045e-14 7.50409e-15 0)
(0 3.57986e-15 0)
(-2.22045e-14 4.07205e-15 0)
(0 9.9879e-15 0)
(2.22045e-14 2.11388e-16 0)
(4.44089e-14 -1.14101e-14 0)
(0 -1.24202e-13 0)
(-2.22045e-14 1.28793e-14 0)
(2.22045e-14 1.06495e-14 0)
(0 -5.24673e-16 0)
(4.44089e-14 -1.97709e-14 0)
(0 -1.67946e-14 0)
(2.22045e-14 -1.88418e-14 0)
(0 -9.80542e-15 0)
(2.22045e-14 -5.0328e-15 0)
(-2.22045e-14 1.15813e-14 0)
(0 9.72489e-15 0)
(-4.44089e-14 7.54466e-16 0)
(-4.44089e-14 3.47849e-15 0)
(-4.44089e-14 3.9075e-15 0)
(0 -1.98735e-15 0)
(2.22045e-14 -8.57702e-15 0)
(0 2.11021e-15 0)
(8.88178e-14 1.45843e-15 0)
(-2.22045e-14 7.37997e-15 0)
(0 4.33929e-15 0)
(0 8.03614e-14 0)
(-4.44089e-14 -2.45635e-14 0)
(2.22045e-14 -7.206e-15 0)
(-4.44089e-14 -1.35205e-14 0)
(0 -2.62017e-14 0)
(4.44089e-14 -3.33233e-14 0)
(2.22045e-14 -1.23474e-14 0)
(2.22045e-14 -1.75614e-15 0)
(2.22045e-14 1.27442e-14 0)
(0 1.89718e-14 0)
(4.44089e-14 6.76698e-15 0)
(-2.22045e-14 8.00118e-15 0)
(4.44089e-14 -3.98076e-15 0)
(-2.22045e-14 -1.55368e-14 0)
(2.22045e-14 -1.33682e-14 0)
(-4.44089e-14 -8.97053e-15 0)
(0 -2.41018e-15 0)
(-2.22045e-14 4.86085e-15 0)
(-2.22045e-14 9.30304e-15 0)
(2.22045e-14 1.39213e-14 0)
(4.44089e-14 -2.74713e-14 0)
(4.44089e-14 1.73639e-15 0)
(0 -1.17266e-14 0)
(0 -1.19842e-14 0)
(-4.44089e-14 -3.09671e-14 0)
(-2.22045e-14 -2.49484e-14 0)
(-8.88178e-14 -1.70769e-14 0)
(-4.44089e-14 -1.16895e-14 0)
(-4.44089e-14 2.53385e-15 0)
(-4.44089e-14 6.65516e-15 0)
(4.44089e-14 -2.03249e-15 0)
(-4.44089e-14 1.79052e-15 0)
(4.44089e-14 3.03465e-15 0)
(4.44089e-14 1.18671e-15 0)
(4.44089e-14 -3.51012e-15 0)
(-4.44089e-14 -5.60549e-15 0)
(0 -7.61489e-15 0)
(0 -5.35891e-16 0)
(-2.22045e-14 1.95729e-15 0)
(0 3.4385e-15 0)
(-2.22045e-13 -7.68894e-14 0)
(2.22045e-14 -1.3773e-14 0)
(-4.44089e-14 -2.42769e-14 0)
(8.88178e-14 -1.98401e-14 0)
(8.88178e-14 1.38274e-15 0)
(4.44089e-14 1.85247e-14 0)
(4.44089e-14 -8.64096e-16 0)
(0 -8.12974e-15 0)
(0 -7.50863e-15 0)
(2.22045e-14 1.28126e-15 0)
(2.22045e-14 -8.13421e-15 0)
(-2.22045e-14 -1.42619e-14 0)
(-2.22045e-14 -4.29841e-15 0)
(-8.88178e-14 1.32987e-14 0)
(0 -2.01207e-15 0)
(0 -5.80719e-15 0)
(-2.22045e-14 -1.31282e-14 0)
(0 -5.24062e-15 0)
(0 -8.71386e-15 0)
(-2.22045e-14 -9.28494e-15 0)
(8.88178e-14 6.63635e-14 0)
(-4.44089e-14 -5.21969e-14 0)
(0 -2.19974e-14 0)
(-2.22045e-14 -2.72046e-14 0)
(0 -3.75639e-15 0)
(-2.22045e-14 1.98415e-14 0)
(4.44089e-14 1.9576e-14 0)
(2.22045e-14 1.56138e-14 0)
(-2.22045e-14 5.77873e-15 0)
(-2.22045e-14 -1.92353e-15 0)
(2.22045e-14 -6.56813e-15 0)
(6.66134e-14 -4.35792e-15 0)
(-2.22045e-14 -1.21154e-14 0)
(4.44089e-14 -1.23944e-14 0)
(6.66134e-14 -1.99667e-14 0)
(0 -1.35087e-14 0)
(4.44089e-14 -8.7118e-15 0)
(0 1.88195e-15 0)
(4.44089e-14 2.47708e-15 0)
(-2.22045e-14 -2.11865e-15 0)
(6.66134e-14 -1.89296e-13 0)
(-4.44089e-14 2.12923e-14 0)
(-2.22045e-14 -8.53365e-15 0)
(-4.44089e-14 -9.88833e-15 0)
(-6.66134e-14 -1.52718e-14 0)
(0 -1.18387e-15 0)
(2.22045e-14 1.01007e-14 0)
(0 1.047e-14 0)
(-4.44089e-14 -8.1508e-15 0)
(0 -6.47976e-15 0)
(4.44089e-14 1.99168e-16 0)
(0 8.4975e-15 0)
(2.22045e-14 -1.76547e-14 0)
(2.22045e-14 -2.28131e-14 0)
(2.22045e-14 -2.62428e-15 0)
(-4.44089e-14 -1.31843e-14 0)
(-4.44089e-14 -1.15492e-14 0)
(0 -4.89282e-15 0)
(0 -1.08052e-15 0)
(2.22045e-14 5.92493e-15 0)
(4.44089e-14 5.65124e-14 0)
(-4.44089e-14 -4.24191e-14 0)
(-2.22045e-14 -2.27598e-14 0)
(0 -1.37963e-14 0)
(2.22045e-14 5.56028e-15 0)
(-4.44089e-14 1.82854e-14 0)
(-4.44089e-14 2.85731e-14 0)
(-2.22045e-14 1.13918e-14 0)
(0 -2.18019e-14 0)
(-1.11022e-13 -2.24943e-14 0)
(-4.44089e-14 7.42545e-15 0)
(0 1.27591e-14 0)
(0 8.04789e-15 0)
(-4.44089e-14 -1.79682e-14 0)
(0 -2.51465e-15 0)
(4.44089e-14 -5.17938e-15 0)
(0 -2.24945e-14 0)
(6.66134e-14 -1.76729e-14 0)
(0 6.81954e-16 0)
(0 1.47144e-14 0)
(0 9.08023e-14 0)
(-2.22045e-14 -1.72003e-14 0)
(0 -3.26441e-14 0)
(-4.44089e-14 -9.92574e-15 0)
(-4.44089e-14 -6.30028e-15 0)
(-4.44089e-14 5.92462e-15 0)
(4.44089e-14 2.2302e-14 0)
(0 1.55906e-14 0)
(4.44089e-14 1.26583e-14 0)
(-4.44089e-14 -1.05377e-14 0)
(-4.44089e-14 -3.77872e-15 0)
(0 -5.69886e-15 0)
(0 4.01757e-15 0)
(4.44089e-14 -2.71494e-14 0)
(4.44089e-14 -3.48887e-14 0)
(0 -1.53716e-14 0)
(4.44089e-14 -1.17442e-14 0)
(-4.44089e-14 -1.8969e-15 0)
(-4.44089e-14 1.26019e-14 0)
(0 9.28474e-15 0)
(0 -1.92273e-13 0)
(6.66134e-14 3.91785e-14 0)
(0 -2.11821e-15 0)
(0 7.03937e-15 0)
(0 -1.72388e-14 0)
(0 -2.75115e-14 0)
(4.44089e-14 -9.68506e-15 0)
(-2.22045e-14 1.38791e-14 0)
(0 1.75238e-14 0)
(2.22045e-14 6.30072e-15 0)
(2.22045e-14 9.32456e-15 0)
(2.22045e-14 -1.63512e-14 0)
(4.44089e-14 -3.7952e-14 0)
(6.66134e-14 -2.54391e-14 0)
(0 -1.66793e-14 0)
(2.22045e-14 -4.10599e-15 0)
(0 1.4488e-14 0)
(-4.44089e-14 7.7042e-15 0)
(0 -5.91509e-15 0)
(6.66134e-14 1.24911e-15 0)
(-4.44089e-14 1.22216e-13 0)
(-4.44089e-14 -3.80835e-14 0)
(0 3.59369e-14 0)
(-4.44089e-14 8.70818e-15 0)
(0 -4.18283e-15 0)
(-4.44089e-14 -2.3209e-14 0)
(-8.88178e-14 -2.23181e-14 0)
(0 -6.83934e-15 0)
(0 -6.45776e-15 0)
(-4.44089e-14 -5.74209e-15 0)
(0 -6.49371e-15 0)
(-4.44089e-14 -1.34693e-14 0)
(0 -1.66257e-14 0)
(-2.22045e-14 -7.89925e-16 0)
(-2.22045e-14 -7.17149e-15 0)
(0 -2.79515e-14 0)
(0 1.30908e-15 0)
(4.44089e-14 1.91163e-14 0)
(2.22045e-14 1.44776e-14 0)
(2.22045e-14 9.67941e-15 0)
(4.44089e-14 3.36167e-14 0)
(-6.66134e-14 3.73614e-14 0)
(0 1.57036e-14 0)
(0 -1.00943e-14 0)
(2.22045e-14 -1.93183e-14 0)
(0 -3.03216e-14 0)
(0 -3.4614e-14 0)
(0 -2.38955e-14 0)
(0 -6.71213e-15 0)
(4.44089e-14 9.12963e-16 0)
(2.22045e-14 -1.38613e-14 0)
(2.22045e-14 -5.71343e-15 0)
(4.44089e-14 -3.35716e-16 0)
(4.44089e-14 6.52985e-15 0)
(6.66134e-14 5.71517e-15 0)
(2.22045e-14 -1.14901e-14 0)
(-2.22045e-14 -2.27673e-14 0)
(-4.44089e-14 -1.76795e-15 0)
(0 2.53501e-14 0)
(0 1.89883e-14 0)
(-1.33227e-13 -1.51679e-13 0)
(-2.22045e-14 5.41252e-14 0)
(8.88178e-14 -1.7786e-14 0)
(8.88178e-14 -1.38473e-14 0)
(4.44089e-14 -1.24024e-14 0)
(4.44089e-14 1.19686e-14 0)
(-4.44089e-14 1.95457e-15 0)
(0 -1.48206e-14 0)
(0 -2.69685e-14 0)
(-4.44089e-14 -1.54318e-14 0)
(4.44089e-14 -1.39568e-14 0)
(0 -1.24927e-14 0)
(0 -9.95568e-15 0)
(-4.44089e-14 -6.46043e-15 0)
(-4.44089e-14 2.35754e-15 0)
(4.44089e-14 2.19817e-14 0)
(4.44089e-14 6.19852e-15 0)
(4.44089e-14 -3.18001e-15 0)
(0 1.62346e-14 0)
(0 2.09731e-14 0)
(-6.66134e-14 1.55149e-13 0)
(0 -6.2191e-14 0)
(-4.44089e-14 -1.16764e-14 0)
(0 -7.82912e-15 0)
(-4.44089e-14 8.67596e-15 0)
(-8.88178e-14 1.69659e-14 0)
(0 -4.22686e-15 0)
(4.44089e-14 -2.39225e-14 0)
(0 -2.83134e-14 0)
(6.66134e-14 -1.78738e-14 0)
(2.22045e-14 -1.58021e-14 0)
(4.44089e-14 4.90709e-15 0)
(-2.22045e-14 5.92791e-15 0)
(2.22045e-14 -2.38272e-15 0)
(0 -1.54881e-14 0)
(0 -1.28208e-14 0)
(-4.44089e-14 1.68638e-14 0)
(-4.44089e-14 1.54374e-14 0)
(0 1.0012e-14 0)
(2.22045e-14 1.18649e-14 0)
(8.88178e-14 4.1587e-14 0)
(0 -3.80715e-15 0)
(-2.22045e-14 -8.50984e-15 0)
(0 3.86827e-15 0)
(-4.44089e-14 1.115e-14 0)
(0 -1.56159e-14 0)
(6.66134e-14 -2.38017e-14 0)
(0 -1.06045e-14 0)
(2.22045e-14 2.81549e-15 0)
(-8.88178e-14 -7.52934e-16 0)
(0 -9.54359e-16 0)
(0 -1.39028e-14 0)
(4.44089e-14 -1.68195e-14 0)
(0 5.24455e-15 0)
(-4.44089e-14 1.50587e-14 0)
(-4.44089e-14 3.7986e-15 0)
(-4.44089e-14 -2.80833e-15 0)
(0 -3.93457e-15 0)
(2.22045e-14 -5.52102e-15 0)
(0 2.48767e-15 0)
(-4.44089e-14 -8.3377e-14 0)
(4.44089e-14 2.87177e-14 0)
(-2.22045e-14 -6.50885e-15 0)
(2.22045e-14 4.88182e-15 0)
(2.22045e-14 -1.79748e-15 0)
(0 -9.07448e-15 0)
(-4.44089e-14 1.94105e-17 0)
(0 6.62425e-15 0)
(4.44089e-14 5.20031e-15 0)
(2.22045e-14 -7.58835e-16 0)
(8.88178e-14 -1.96818e-15 0)
(4.44089e-14 -3.00343e-14 0)
(-2.22045e-14 -1.97291e-14 0)
(0 5.60544e-15 0)
(2.22045e-14 1.77204e-14 0)
(4.44089e-14 1.58209e-14 0)
(6.66134e-14 -1.1566e-15 0)
(0 -7.99986e-15 0)
(2.22045e-14 -5.29924e-15 0)
(0 1.14946e-15 0)
)
;

boundaryField
{
    movingWall
    {
        type            calculated;
        value           uniform (0 0 0);
    }
    fixedWalls
    {
        type            calculated;
        value           uniform (0 0 0);
    }
    frontAndBack
    {
        type            empty;
    }
}


// ************************************************************************* //
