/*--------------------------------*- C++ -*----------------------------------*\
| =========                 |                                                 |
| \\      /  F ield         | OpenFOAM: The Open Source CFD Toolbox           |
|  \\    /   O peration     | Version:  2506                                  |
|   \\  /    A nd           | Website:  www.openfoam.com                      |
|    \\/     M anipulation  |                                                 |
\*---------------------------------------------------------------------------*/
FoamFile
{
    version     2.0;
    format      ascii;
    arch        "LSB;label=32;scalar=64";
    class       volVectorField;
    location    "8.5";
    object      diffU;
}
// * * * * * * * * * * * * * * * * * * * * * * * * * * * * * * * * * * * * * //

dimensions      [0 1 -1 0 0 0 0];

internalField   nonuniform List<vector> 
400
(
(0 0 0)
(1.36557e-14 -1.43729e-13 0)
(9.88098e-15 -1.12328e-13 0)
(9.99201e-15 -1.19612e-13 0)
(9.65894e-15 -1.18064e-13 0)
(9.65894e-15 -1.18447e-13 0)
(9.76996e-15 -1.18416e-13 0)
(9.54792e-15 -1.18461e-13 0)
(9.65894e-15 -1.18466e-13 0)
(9.54792e-15 -1.18572e-13 0)
(9.54792e-15 -1.18654e-13 0)
(9.76996e-15 -1.18629e-13 0)
(9.54792e-15 -1.18566e-13 0)
(9.76996e-15 -1.18486e-13 0)
(9.65894e-15 -1.18438e-13 0)
(9.65894e-15 -1.18478e-13 0)
(9.54792e-15 -1.18533e-13 0)
(9.54792e-15 -1.18494e-13 0)
(9.4369e-15 -1.18455e-13 0)
(9.4369e-15 -1.18487e-13 0)
(2.5091e-14 -1.08735e-13 0)
(3.55271e-15 -1.20127e-13 0)
(8.21565e-15 -1.17861e-13 0)
(8.21565e-15 -1.1856e-13 0)
(8.43769e-15 -1.1858e-13 0)
(8.65974e-15 -1.18581e-13 0)
(8.88178e-15 -1.18581e-13 0)
(8.88178e-15 -1.18572e-13 0)
(9.10383e-15 -1.18558e-13 0)
(9.10383e-15 -1.18586e-13 0)
(9.10383e-15 -1.18523e-13 0)
(8.88178e-15 -1.18504e-13 0)
(8.88178e-15 -1.18445e-13 0)
(8.43769e-15 -1.1856e-13 0)
(8.65974e-15 -1.18581e-13 0)
(9.10383e-15 -1.18487e-13 0)
(9.10383e-15 -1.18463e-13 0)
(9.10383e-15 -1.18471e-13 0)
(9.10383e-15 -1.18525e-13 0)
(9.10383e-15 -1.18535e-13 0)
(7.99361e-15 -2.0477e-13 0)
(1.07692e-14 -9.96887e-14 0)
(9.88098e-15 -1.22854e-13 0)
(9.88098e-15 -1.17695e-13 0)
(9.65894e-15 -1.18893e-13 0)
(9.54792e-15 -1.18621e-13 0)
(9.65894e-15 -1.18631e-13 0)
(9.32587e-15 -1.18646e-13 0)
(9.32587e-15 -1.18644e-13 0)
(9.10383e-15 -1.18539e-13 0)
(9.10383e-15 -1.18461e-13 0)
(8.88178e-15 -1.18464e-13 0)
(9.10383e-15 -1.1844e-13 0)
(9.10383e-15 -1.18553e-13 0)
(9.10383e-15 -1.18639e-13 0)
(9.10383e-15 -1.18639e-13 0)
(9.10383e-15 -1.18532e-13 0)
(9.32587e-15 -1.18549e-13 0)
(9.32587e-15 -1.18653e-13 0)
(9.32587e-15 -1.18623e-13 0)
(-3.9968e-15 -5.9815e-14 0)
(1.27676e-14 -1.31113e-13 0)
(8.88178e-15 -1.1559e-13 0)
(9.4369e-15 -1.19231e-13 0)
(9.4369e-15 -1.18295e-13 0)
(9.54792e-15 -1.18505e-13 0)
(9.76996e-15 -1.18383e-13 0)
(9.65894e-15 -1.18397e-13 0)
(9.32587e-15 -1.18323e-13 0)
(9.65894e-15 -1.18388e-13 0)
(9.54792e-15 -1.18485e-13 0)
(9.65894e-15 -1.18527e-13 0)
(9.65894e-15 -1.18559e-13 0)
(9.4369e-15 -1.18497e-13 0)
(9.4369e-15 -1.18511e-13 0)
(9.32587e-15 -1.18621e-13 0)
(9.32587e-15 -1.18605e-13 0)
(9.32587e-15 -1.18549e-13 0)
(9.32587e-15 -1.18581e-13 0)
(9.32587e-15 -1.18616e-13 0)
(2.04281e-14 -1.31452e-13 0)
(5.55112e-15 -1.15856e-13 0)
(9.54792e-15 -1.19316e-13 0)
(8.65974e-15 -1.18451e-13 0)
(8.88178e-15 -1.18682e-13 0)
(9.10383e-15 -1.18683e-13 0)
(9.10383e-15 -1.18612e-13 0)
(9.10383e-15 -1.18551e-13 0)
(9.32587e-15 -1.1857e-13 0)
(9.76996e-15 -1.18575e-13 0)
(9.54792e-15 -1.18533e-13 0)
(9.65894e-15 -1.18514e-13 0)
(9.65894e-15 -1.18467e-13 0)
(9.4369e-15 -1.18419e-13 0)
(9.54792e-15 -1.18394e-13 0)
(9.65894e-15 -1.18448e-13 0)
(9.54792e-15 -1.18475e-13 0)
(9.32587e-15 -1.18489e-13 0)
(9.4369e-15 -1.18577e-13 0)
(9.54792e-15 -1.18582e-13 0)
(-4.21885e-15 -1.64139e-13 0)
(1.35447e-14 -1.09168e-13 0)
(9.65894e-15 -1.20629e-13 0)
(1.0103e-14 -1.17969e-13 0)
(1.0103e-14 -1.18638e-13 0)
(9.99201e-15 -1.18561e-13 0)
(9.88098e-15 -1.18633e-13 0)
(9.99201e-15 -1.18639e-13 0)
(9.88098e-15 -1.18732e-13 0)
(9.65894e-15 -1.18549e-13 0)
(9.65894e-15 -1.18447e-13 0)
(9.32587e-15 -1.18432e-13 0)
(8.88178e-15 -1.1845e-13 0)
(8.88178e-15 -1.18479e-13 0)
(9.10383e-15 -1.18494e-13 0)
(9.4369e-15 -1.185e-13 0)
(9.10383e-15 -1.18513e-13 0)
(9.32587e-15 -1.18526e-13 0)
(9.4369e-15 -1.18551e-13 0)
(9.32587e-15 -1.18509e-13 0)
(2.29816e-14 -3.48047e-14 0)
(6.88338e-15 -1.36148e-13 0)
(1.04361e-14 -1.14294e-13 0)
(8.88178e-15 -1.19386e-13 0)
(9.32587e-15 -1.18398e-13 0)
(9.32587e-15 -1.18732e-13 0)
(9.4369e-15 -1.18683e-13 0)
(9.4369e-15 -1.186e-13 0)
(9.54792e-15 -1.18509e-13 0)
(9.4369e-15 -1.18309e-13 0)
(9.54792e-15 -1.1829e-13 0)
(9.32587e-15 -1.1834e-13 0)
(9.76996e-15 -1.18358e-13 0)
(9.88098e-15 -1.185e-13 0)
(9.65894e-15 -1.18562e-13 0)
(9.4369e-15 -1.18486e-13 0)
(9.54792e-15 -1.18466e-13 0)
(9.32587e-15 -1.18471e-13 0)
(9.32587e-15 -1.18471e-13 0)
(9.4369e-15 -1.18454e-13 0)
(4.44089e-15 -1.58847e-13 0)
(8.88178e-15 -1.0963e-13 0)
(8.21565e-15 -1.20475e-13 0)
(9.32587e-15 -1.1798e-13 0)
(8.88178e-15 -1.18652e-13 0)
(9.32587e-15 -1.18566e-13 0)
(8.88178e-15 -1.18487e-13 0)
(8.65974e-15 -1.18511e-13 0)
(8.43769e-15 -1.18506e-13 0)
(8.43769e-15 -1.18479e-13 0)
(8.88178e-15 -1.18548e-13 0)
(8.65974e-15 -1.1861e-13 0)
(8.65974e-15 -1.18527e-13 0)
(8.88178e-15 -1.18474e-13 0)
(9.10383e-15 -1.18452e-13 0)
(9.10383e-15 -1.18483e-13 0)
(8.65974e-15 -1.1852e-13 0)
(9.10383e-15 -1.18542e-13 0)
(9.32587e-15 -1.18492e-13 0)
(9.32587e-15 -1.18488e-13 0)
(5.77316e-15 -1.58463e-13 0)
(9.65894e-15 -1.10447e-13 0)
(8.88178e-15 -1.20709e-13 0)
(8.65974e-15 -1.18323e-13 0)
(9.32587e-15 -1.1874e-13 0)
(8.88178e-15 -1.18495e-13 0)
(9.10383e-15 -1.18448e-13 0)
(9.54792e-15 -1.18516e-13 0)
(9.88098e-15 -1.18506e-13 0)
(9.76996e-15 -1.18555e-13 0)
(9.99201e-15 -1.18574e-13 0)
(9.76996e-15 -1.18624e-13 0)
(9.76996e-15 -1.18679e-13 0)
(9.32587e-15 -1.18479e-13 0)
(9.54792e-15 -1.18465e-13 0)
(9.65894e-15 -1.18507e-13 0)
(9.54792e-15 -1.18566e-13 0)
(9.54792e-15 -1.18551e-13 0)
(9.32587e-15 -1.18508e-13 0)
(9.32587e-15 -1.18556e-13 0)
(4.66294e-15 -3.55069e-14 0)
(1.03251e-14 -1.36887e-13 0)
(9.10383e-15 -1.14777e-13 0)
(9.76996e-15 -1.19827e-13 0)
(9.65894e-15 -1.18639e-13 0)
(9.54792e-15 -1.18775e-13 0)
(9.76996e-15 -1.18716e-13 0)
(9.54792e-15 -1.18674e-13 0)
(9.4369e-15 -1.18579e-13 0)
(9.54792e-15 -1.18539e-13 0)
(9.65894e-15 -1.18482e-13 0)
(9.88098e-15 -1.18367e-13 0)
(9.4369e-15 -1.18399e-13 0)
(9.10383e-15 -1.18416e-13 0)
(9.4369e-15 -1.1853e-13 0)
(9.10383e-15 -1.18561e-13 0)
(9.32587e-15 -1.18523e-13 0)
(9.32587e-15 -1.1844e-13 0)
(9.54792e-15 -1.18446e-13 0)
(9.32587e-15 -1.18543e-13 0)
(1.42109e-14 -1.87774e-13 0)
(8.43769e-15 -1.0439e-13 0)
(9.76996e-15 -1.21964e-13 0)
(9.54792e-15 -1.17925e-13 0)
(9.4369e-15 -1.18804e-13 0)
(9.32587e-15 -1.18631e-13 0)
(9.54792e-15 -1.18652e-13 0)
(9.4369e-15 -1.18587e-13 0)
(8.88178e-15 -1.18713e-13 0)
(9.10383e-15 -1.1875e-13 0)
(9.32587e-15 -1.18637e-13 0)
(9.4369e-15 -1.18352e-13 0)
(9.4369e-15 -1.18345e-13 0)
(9.65894e-15 -1.18477e-13 0)
(9.65894e-15 -1.18497e-13 0)
(9.54792e-15 -1.18541e-13 0)
(9.10383e-15 -1.18515e-13 0)
(9.10383e-15 -1.18457e-13 0)
(9.32587e-15 -1.18461e-13 0)
(9.54792e-15 -1.18502e-13 0)
(2.4869e-14 -7.34078e-14 0)
(7.77156e-15 -1.27774e-13 0)
(1.13243e-14 -1.16509e-13 0)
(9.4369e-15 -1.1915e-13 0)
(1.0103e-14 -1.18528e-13 0)
(9.65894e-15 -1.18543e-13 0)
(9.4369e-15 -1.18392e-13 0)
(9.32587e-15 -1.18352e-13 0)
(9.4369e-15 -1.18555e-13 0)
(8.88178e-15 -1.18669e-13 0)
(8.65974e-15 -1.18657e-13 0)
(8.88178e-15 -1.18461e-13 0)
(8.88178e-15 -1.18327e-13 0)
(8.65974e-15 -1.18462e-13 0)
(8.88178e-15 -1.18456e-13 0)
(9.10383e-15 -1.18392e-13 0)
(8.88178e-15 -1.18461e-13 0)
(9.4369e-15 -1.18553e-13 0)
(9.32587e-15 -1.18474e-13 0)
(9.4369e-15 -1.18431e-13 0)
(-5.77316e-15 -1.28835e-13 0)
(1.07692e-14 -1.15551e-13 0)
(6.88338e-15 -1.19149e-13 0)
(8.65974e-15 -1.18439e-13 0)
(8.43769e-15 -1.18604e-13 0)
(8.65974e-15 -1.18485e-13 0)
(8.65974e-15 -1.18462e-13 0)
(9.10383e-15 -1.18409e-13 0)
(9.10383e-15 -1.18352e-13 0)
(8.88178e-15 -1.184e-13 0)
(8.65974e-15 -1.18463e-13 0)
(8.88178e-15 -1.18508e-13 0)
(8.43769e-15 -1.18416e-13 0)
(9.10383e-15 -1.1855e-13 0)
(9.10383e-15 -1.18657e-13 0)
(8.88178e-15 -1.18584e-13 0)
(9.10383e-15 -1.18625e-13 0)
(9.10383e-15 -1.18696e-13 0)
(8.88178e-15 -1.18589e-13 0)
(9.10383e-15 -1.18521e-13 0)
(5.55112e-15 -1.63269e-13 0)
(1.07692e-14 -1.09883e-13 0)
(9.65894e-15 -1.20518e-13 0)
(9.10383e-15 -1.18164e-13 0)
(9.10383e-15 -1.18753e-13 0)
(9.10383e-15 -1.18714e-13 0)
(9.32587e-15 -1.18754e-13 0)
(9.32587e-15 -1.18561e-13 0)
(9.32587e-15 -1.18463e-13 0)
(9.4369e-15 -1.18496e-13 0)
(9.65894e-15 -1.18418e-13 0)
(9.88098e-15 -1.18438e-13 0)
(9.88098e-15 -1.18619e-13 0)
(1.02141e-14 -1.18637e-13 0)
(9.99201e-15 -1.18555e-13 0)
(9.76996e-15 -1.1853e-13 0)
(9.76996e-15 -1.18526e-13 0)
(9.65894e-15 -1.18535e-13 0)
(9.4369e-15 -1.18657e-13 0)
(9.4369e-15 -1.18635e-13 0)
(1.94289e-14 -2.31749e-14 0)
(7.10543e-15 -1.38771e-13 0)
(1.0103e-14 -1.13842e-13 0)
(9.32587e-15 -1.19409e-13 0)
(9.32587e-15 -1.18317e-13 0)
(8.88178e-15 -1.18662e-13 0)
(8.65974e-15 -1.18644e-13 0)
(8.65974e-15 -1.18623e-13 0)
(9.10383e-15 -1.18587e-13 0)
(9.10383e-15 -1.18614e-13 0)
(9.10383e-15 -1.18598e-13 0)
(8.88178e-15 -1.18689e-13 0)
(9.4369e-15 -1.18768e-13 0)
(9.32587e-15 -1.18595e-13 0)
(9.32587e-15 -1.18387e-13 0)
(9.4369e-15 -1.18483e-13 0)
(9.32587e-15 -1.18509e-13 0)
(9.32587e-15 -1.18439e-13 0)
(9.65894e-15 -1.18458e-13 0)
(9.54792e-15 -1.18523e-13 0)
(5.9952e-15 -1.98468e-13 0)
(9.10383e-15 -1.00917e-13 0)
(8.43769e-15 -1.2258e-13 0)
(9.54792e-15 -1.17504e-13 0)
(9.4369e-15 -1.18624e-13 0)
(9.76996e-15 -1.18533e-13 0)
(9.65894e-15 -1.18721e-13 0)
(9.76996e-15 -1.18796e-13 0)
(9.54792e-15 -1.18671e-13 0)
(9.65894e-15 -1.18549e-13 0)
(9.4369e-15 -1.18546e-13 0)
(9.65894e-15 -1.1865e-13 0)
(9.32587e-15 -1.18617e-13 0)
(9.10383e-15 -1.18521e-13 0)
(9.4369e-15 -1.18458e-13 0)
(9.4369e-15 -1.18461e-13 0)
(9.32587e-15 -1.18555e-13 0)
(9.10383e-15 -1.18566e-13 0)
(9.32587e-15 -1.18451e-13 0)
(9.32587e-15 -1.18456e-13 0)
(-3.33067e-15 -1.23389e-13 0)
(1.24345e-14 -1.18702e-13 0)
(9.32587e-15 -1.1877e-13 0)
(9.32587e-15 -1.18915e-13 0)
(9.54792e-15 -1.1877e-13 0)
(9.54792e-15 -1.18629e-13 0)
(9.4369e-15 -1.18448e-13 0)
(9.4369e-15 -1.18433e-13 0)
(9.32587e-15 -1.1846e-13 0)
(8.88178e-15 -1.18493e-13 0)
(9.10383e-15 -1.18523e-13 0)
(8.88178e-15 -1.18501e-13 0)
(8.88178e-15 -1.18498e-13 0)
(8.88178e-15 -1.18603e-13 0)
(8.88178e-15 -1.18677e-13 0)
(9.10383e-15 -1.18613e-13 0)
(9.32587e-15 -1.18549e-13 0)
(9.54792e-15 -1.1853e-13 0)
(9.32587e-15 -1.18481e-13 0)
(9.32587e-15 -1.18472e-13 0)
(1.68754e-14 -3.08822e-14 0)
(7.54952e-15 -1.36954e-13 0)
(9.88098e-15 -1.14561e-13 0)
(9.32587e-15 -1.19754e-13 0)
(9.32587e-15 -1.18548e-13 0)
(8.88178e-15 -1.18579e-13 0)
(8.88178e-15 -1.18416e-13 0)
(9.10383e-15 -1.18558e-13 0)
(9.10383e-15 -1.18645e-13 0)
(9.88098e-15 -1.18641e-13 0)
(9.54792e-15 -1.18559e-13 0)
(9.76996e-15 -1.1846e-13 0)
(9.32587e-15 -1.18474e-13 0)
(9.54792e-15 -1.18536e-13 0)
(9.4369e-15 -1.18584e-13 0)
(9.4369e-15 -1.18681e-13 0)
(8.88178e-15 -1.18542e-13 0)
(8.88178e-15 -1.18489e-13 0)
(9.10383e-15 -1.18545e-13 0)
(9.4369e-15 -1.18536e-13 0)
(2.39808e-14 -1.70673e-13 0)
(5.77316e-15 -1.07172e-13 0)
(9.4369e-15 -1.21231e-13 0)
(9.10383e-15 -1.18026e-13 0)
(8.88178e-15 -1.18646e-13 0)
(8.88178e-15 -1.18542e-13 0)
(9.4369e-15 -1.18664e-13 0)
(9.4369e-15 -1.18727e-13 0)
(9.4369e-15 -1.18677e-13 0)
(8.88178e-15 -1.18581e-13 0)
(8.88178e-15 -1.18447e-13 0)
(8.65974e-15 -1.18471e-13 0)
(9.10383e-15 -1.18573e-13 0)
(8.88178e-15 -1.18556e-13 0)
(8.88178e-15 -1.18533e-13 0)
(9.10383e-15 -1.18519e-13 0)
(9.10383e-15 -1.18555e-13 0)
(9.32587e-15 -1.186e-13 0)
(9.4369e-15 -1.1868e-13 0)
(9.32587e-15 -1.18616e-13 0)
(3.33067e-15 -1.6769e-13 0)
(1.16573e-14 -1.08621e-13 0)
(1.03251e-14 -1.20802e-13 0)
(9.99201e-15 -1.18074e-13 0)
(1.02141e-14 -1.18652e-13 0)
(9.99201e-15 -1.18574e-13 0)
(9.88098e-15 -1.18578e-13 0)
(9.88098e-15 -1.1849e-13 0)
(9.76996e-15 -1.1845e-13 0)
(9.76996e-15 -1.1849e-13 0)
(1.0103e-14 -1.18514e-13 0)
(1.02141e-14 -1.18645e-13 0)
(9.76996e-15 -1.18695e-13 0)
(9.88098e-15 -1.18636e-13 0)
(9.76996e-15 -1.18628e-13 0)
(9.76996e-15 -1.18579e-13 0)
(9.76996e-15 -1.18613e-13 0)
(9.32587e-15 -1.18604e-13 0)
(9.54792e-15 -1.18614e-13 0)
(9.54792e-15 -1.18585e-13 0)
)
;

boundaryField
{
    movingWall
    {
        type            calculated;
        value           uniform (9.32587e-15 -1.18537e-13 0);
    }
    fixedWalls
    {
        type            calculated;
        value           uniform (9.32587e-15 -1.18537e-13 0);
    }
    frontAndBack
    {
        type            empty;
    }
}


// ************************************************************************* //
