/*--------------------------------*- C++ -*----------------------------------*\
| =========                 |                                                 |
| \\      /  F ield         | OpenFOAM: The Open Source CFD Toolbox           |
|  \\    /   O peration     | Version:  2506                                  |
|   \\  /    A nd           | Website:  www.openfoam.com                      |
|    \\/     M anipulation  |                                                 |
\*---------------------------------------------------------------------------*/
FoamFile
{
    version     2.0;
    format      ascii;
    arch        "LSB;label=32;scalar=64";
    class       volScalarField;
    location    "8.5";
    object      divPhi;
}
// * * * * * * * * * * * * * * * * * * * * * * * * * * * * * * * * * * * * * //

dimensions      [0 0 -1 0 0 0 0];

internalField   nonuniform List<scalar> 
400
(
0
6.59095e-16
2.49229e-15
-7.20791e-15
1.36364e-15
5.51962e-15
8.52513e-15
2.02294e-16
7.9106e-15
-3.42613e-15
-7.46194e-15
-6.70222e-15
-1.78651e-15
-9.80726e-16
1.17319e-14
-1.26197e-14
3.68151e-15
2.80939e-15
1.13259e-14
0
2.71051e-14
-7.02318e-15
9.844e-15
-1.20322e-14
-1.4011e-15
-1.45363e-14
5.76062e-15
-1.41162e-14
-1.59976e-14
1.05394e-14
-1.65392e-14
7.93143e-15
1.4618e-15
3.42819e-15
1.05179e-14
-3.1086e-14
7.69819e-15
8.25695e-15
4.10793e-14
-2.71051e-14
-2.71051e-14
-1.70474e-14
7.5937e-15
-9.26332e-15
-2.18406e-15
2.515e-14
1.76183e-14
5.4091e-15
1.46116e-15
2.40793e-14
8.20407e-15
-1.64571e-14
1.95656e-15
2.19673e-14
-1.04385e-14
7.99889e-16
-2.06816e-15
2.72867e-14
-1.62907e-14
0
2.71051e-14
-4.51891e-15
2.87256e-15
3.62414e-15
7.48696e-15
-9.82123e-15
-2.45078e-14
5.84104e-15
1.30341e-14
8.37798e-15
9.69334e-15
3.84349e-14
-1.91824e-14
-1.05697e-14
1.16697e-14
4.59684e-15
-6.25112e-15
8.85189e-16
2.34687e-14
0
-2.71051e-14
1.50114e-14
1.10711e-14
-2.31197e-14
-1.56412e-15
-3.22513e-15
5.15557e-15
2.22527e-14
1.46875e-14
-4.08837e-15
5.11028e-15
-6.97684e-15
8.61449e-15
-6.42146e-15
3.49023e-14
-1.16034e-14
1.61696e-14
-1.12288e-14
1.72931e-14
0
2.71051e-14
-1.72058e-14
2.73206e-15
1.69878e-14
-1.08254e-14
2.36227e-14
-1.66043e-14
1.30542e-14
-3.52307e-14
-8.34784e-15
1.49184e-15
-3.21508e-15
8.80189e-15
-1.77937e-14
1.26789e-14
-2.36417e-14
-2.5916e-14
-4.24045e-15
-2.17877e-14
0
2.71051e-14
-5.58228e-15
8.3822e-15
-2.14883e-14
-1.32939e-14
2.07816e-14
3.17838e-15
3.55823e-14
-1.21904e-14
-2.51864e-14
1.13486e-14
-2.97853e-15
-8.80173e-15
1.37593e-14
1.09574e-14
1.01571e-14
-1.25691e-14
1.97422e-14
-8.56846e-15
2.71051e-14
-2.71051e-14
4.88173e-15
-2.03684e-14
1.65753e-14
-2.20029e-14
-5.69217e-15
5.34838e-15
2.63131e-14
-2.84785e-14
7.99634e-15
1.89177e-14
-1.03636e-14
-1.56578e-14
3.80994e-16
1.74206e-14
-1.15132e-14
-2.7137e-14
7.93586e-15
-2.98088e-14
0
0
2.51586e-14
7.43224e-15
-1.80686e-14
1.56881e-14
1.44243e-14
-2.28288e-14
2.42097e-14
-6.78461e-15
-1.45797e-15
1.19222e-15
1.43389e-14
-1.22727e-14
-1.36152e-15
8.71828e-15
-2.72699e-14
2.26869e-16
1.82139e-14
-1.8024e-14
0
0
-3.43238e-15
6.71395e-15
2.36594e-14
-5.33324e-15
2.21814e-15
-1.44246e-14
-1.28584e-14
2.00423e-15
-2.43438e-14
1.76535e-14
-2.67776e-14
-3.03085e-14
2.22113e-14
-1.84739e-15
-1.30914e-14
-7.76504e-15
1.52412e-14
5.31106e-15
0
0
-1.39912e-14
4.91867e-15
-3.68486e-15
-2.00327e-14
8.55402e-15
9.45418e-15
-1.41592e-14
-1.49344e-14
1.34188e-14
-2.55019e-14
3.38804e-14
-4.92007e-15
3.35393e-15
-2.69477e-14
-6.14409e-15
-1.07254e-14
-1.54876e-14
5.28761e-16
0
2.71051e-14
8.31426e-15
-8.28106e-15
-4.18521e-15
1.43196e-14
4.60268e-15
1.46974e-14
1.80905e-14
3.65001e-14
5.91463e-15
-5.77266e-15
-1.43958e-15
-5.60208e-17
1.36835e-14
-1.99305e-14
1.0206e-14
-2.90385e-15
-2.92528e-15
8.21302e-15
2.71051e-14
-2.71051e-14
7.8016e-15
5.29893e-15
-2.73882e-14
5.47251e-16
-9.32988e-15
9.35706e-15
-8.21474e-15
-2.24575e-14
1.65674e-14
-2.41019e-14
1.95142e-14
-5.43538e-15
-6.23364e-15
-1.11027e-14
1.57539e-14
-6.98234e-15
-1.42191e-14
7.30654e-16
0
0
1.47526e-14
-4.90842e-15
7.5691e-16
2.2815e-14
-7.93357e-15
3.72619e-15
-2.3513e-15
8.7642e-15
6.63416e-16
-7.48246e-15
-5.74158e-15
-1.10176e-15
9.60872e-16
-3.53099e-14
-2.51764e-15
7.00799e-15
2.12675e-14
2.31542e-15
0
0
-1.15111e-14
1.11211e-16
-1.29738e-14
1.57771e-14
-3.30198e-14
1.77442e-14
-8.46742e-15
1.98735e-15
-1.08544e-14
-2.00189e-14
2.82044e-14
7.04405e-15
-1.21269e-14
-7.82259e-15
-1.04016e-14
2.30188e-14
-2.48382e-14
1.74324e-14
0
2.71051e-14
-1.93597e-14
-1.3859e-14
-1.17005e-14
-1.51524e-14
-7.56895e-15
1.01194e-14
-1.81435e-14
9.43802e-15
-3.33131e-15
-2.52845e-15
2.10798e-14
8.33933e-15
-1.98738e-14
-8.87948e-15
-5.14782e-15
4.70696e-15
2.07907e-14
-1.61275e-14
-2.71051e-14
-2.71051e-14
3.78521e-15
1.80524e-14
5.36207e-15
2.90143e-15
-2.8436e-14
1.32075e-14
6.01627e-15
-4.66132e-15
-1.50346e-14
-1.73928e-15
4.2828e-15
6.39631e-15
2.05695e-14
-1.56095e-14
-1.23957e-14
1.5395e-14
-2.2885e-14
1.27422e-14
0
2.71051e-14
-1.57181e-14
1.80213e-14
-1.97478e-14
2.41299e-14
9.76281e-15
1.56977e-14
1.1437e-14
-2.02917e-14
1.64631e-14
-1.02088e-14
-3.9486e-15
-1.18245e-14
-7.88861e-15
-2.97633e-15
-5.62387e-15
-1.6984e-14
1.28553e-14
3.28972e-15
2.71051e-14
0
-1.94266e-14
1.62335e-15
3.32778e-14
-1.90697e-14
4.31474e-14
-2.33555e-15
9.51278e-15
4.06679e-15
-1.52996e-14
-1.97986e-14
-9.72778e-15
-6.86109e-15
-3.34459e-15
-8.97224e-15
-2.29893e-15
6.05497e-15
7.8523e-16
6.86115e-15
-2.71051e-14
0
0
0
2.71051e-14
0
0
-2.71051e-14
0
0
2.71051e-14
2.71051e-14
-2.71051e-14
0
0
-2.71051e-14
-2.71051e-14
2.71051e-14
2.71051e-14
0
0
)
;

boundaryField
{
    movingWall
    {
        type            extrapolatedCalculated;
        value           nonuniform List<scalar> 
20
(
0
0
0
2.71051e-14
0
0
-2.71051e-14
0
0
2.71051e-14
2.71051e-14
-2.71051e-14
0
0
-2.71051e-14
-2.71051e-14
2.71051e-14
2.71051e-14
0
0
)
;
    }
    fixedWalls
    {
        type            extrapolatedCalculated;
        value           nonuniform List<scalar> 
60
(
0
2.71051e-14
-2.71051e-14
2.71051e-14
-2.71051e-14
2.71051e-14
2.71051e-14
-2.71051e-14
0
0
0
2.71051e-14
-2.71051e-14
0
0
2.71051e-14
-2.71051e-14
2.71051e-14
0
0
0
-2.71051e-14
0
0
0
0
2.71051e-14
0
0
0
0
2.71051e-14
0
0
0
-2.71051e-14
0
2.71051e-14
-2.71051e-14
0
0
6.59095e-16
2.49229e-15
-7.20791e-15
1.36364e-15
5.51962e-15
8.52513e-15
2.02294e-16
7.9106e-15
-3.42613e-15
-7.46194e-15
-6.70222e-15
-1.78651e-15
-9.80726e-16
1.17319e-14
-1.26197e-14
3.68151e-15
2.80939e-15
1.13259e-14
0
)
;
    }
    frontAndBack
    {
        type            empty;
    }
}


// ************************************************************************* //
