/*--------------------------------*- C++ -*----------------------------------*\
| =========                 |                                                 |
| \\      /  F ield         | OpenFOAM: The Open Source CFD Toolbox           |
|  \\    /   O peration     | Version:  2506                                  |
|   \\  /    A nd           | Website:  www.openfoam.com                      |
|    \\/     M anipulation  |                                                 |
\*---------------------------------------------------------------------------*/
FoamFile
{
    version     2.0;
    format      ascii;
    arch        "LSB;label=32;scalar=64";
    class       volScalarField;
    location    "8.5";
    object      divU;
}
// * * * * * * * * * * * * * * * * * * * * * * * * * * * * * * * * * * * * * //

dimensions      [0 0 -1 0 0 0 0];

internalField   nonuniform List<scalar> 
400
(
1.23328e-11
-1.70255e-12
3.36109e-13
-1.36901e-13
-1.12808e-14
3.16759e-14
-1.94537e-14
4.01366e-15
4.93951e-15
-8.4451e-15
-1.04131e-14
-5.95648e-15
6.22036e-15
2.68622e-15
5.44074e-15
1.07923e-14
7.70806e-15
1.08568e-14
-1.77694e-14
-2.71051e-14
-1.94343e-11
2.70152e-12
-5.53836e-13
2.17389e-13
-3.99819e-14
-1.27968e-14
4.03964e-14
-1.44265e-14
1.41835e-14
-5.08261e-15
-1.82295e-14
1.05965e-14
-3.53529e-14
-3.95966e-15
3.96191e-14
2.18219e-14
7.83185e-15
5.38141e-15
-1.04632e-14
5.42101e-14
4.90601e-12
-9.44908e-13
1.33998e-13
-9.36792e-14
-1.14483e-14
-5.23527e-15
3.30877e-14
-2.40986e-14
1.0592e-14
-3.95607e-14
1.26887e-14
-1.87859e-14
7.43521e-15
2.39697e-15
1.94733e-14
-1.86359e-14
4.78179e-14
-2.45646e-15
-1.61153e-14
-2.71051e-14
6.34258e-12
-3.39029e-13
-1.45842e-16
-6.67431e-15
3.67885e-14
-1.15112e-14
3.49747e-14
-1.46305e-14
-9.06389e-15
1.09507e-14
5.48319e-15
3.33993e-15
4.7071e-15
-1.13546e-14
1.67909e-14
4.32598e-16
-6.70831e-16
3.50815e-15
1.86384e-14
2.71051e-14
-9.73071e-12
1.12359e-12
-2.05866e-13
3.81843e-14
2.96224e-14
1.0009e-14
-1.72138e-14
-1.16462e-14
5.84686e-14
-5.06028e-15
9.35352e-15
1.27892e-14
1.55908e-14
-9.52524e-15
-8.59526e-15
1.25197e-14
-1.85571e-14
-2.13294e-14
2.16646e-14
-2.71051e-14
8.75493e-12
-6.34526e-13
1.60845e-13
-2.81468e-14
3.78259e-15
-2.19526e-14
2.75481e-15
1.0551e-14
-4.3883e-14
-5.53094e-15
3.37235e-14
-7.83022e-14
-2.76793e-14
-1.7625e-14
5.59275e-14
8.76337e-15
-4.47535e-14
6.18148e-14
5.13207e-15
0
1.65341e-12
-1.33126e-12
2.03356e-13
-1.10554e-13
5.65422e-14
4.59937e-15
4.45272e-14
5.04373e-14
5.79921e-15
2.84896e-14
-3.06385e-14
1.22886e-14
4.59782e-14
-1.71829e-14
-2.11848e-14
1.04817e-14
-1.83054e-14
-2.1067e-14
3.81027e-14
-2.71051e-14
-1.2902e-11
2.97355e-12
-6.55009e-13
1.85466e-13
-3.18746e-14
2.82728e-14
-1.32727e-14
-4.95543e-14
-4.80608e-14
3.09841e-14
2.22036e-14
-7.03091e-14
1.38206e-14
3.90955e-14
1.56278e-14
-1.8781e-14
-1.19405e-15
7.93121e-14
7.27588e-15
0
1.20346e-11
-2.43548e-12
4.84026e-13
-1.88937e-13
2.36384e-14
-4.68293e-14
4.50778e-14
4.25749e-14
2.60155e-14
2.50466e-14
1.69111e-15
8.24204e-15
-2.7602e-14
-9.27246e-15
7.79543e-15
5.15232e-16
-1.51853e-15
-1.88544e-14
-1.51646e-14
0
-3.27971e-12
1.01624e-12
-1.56506e-13
6.7634e-14
-9.88099e-15
-6.23681e-15
-2.95137e-14
-4.58472e-14
5.28789e-15
-2.15055e-14
2.25743e-14
8.383e-15
-2.1259e-14
-9.0667e-15
4.67158e-15
-2.8277e-15
3.53772e-15
4.47883e-14
1.66469e-14
-2.71051e-14
-3.38813e-12
4.63841e-13
-5.86403e-14
8.11024e-14
-2.58946e-14
1.69968e-14
5.71549e-14
-6.78591e-14
7.65635e-15
4.67884e-14
-2.20134e-14
2.61108e-14
4.01734e-14
-1.36716e-14
1.20645e-14
-4.01641e-14
-4.4485e-14
3.34295e-14
1.38492e-14
0
7.31836e-12
-2.46831e-12
4.39732e-13
-1.87141e-13
4.83652e-14
-4.9708e-14
-3.2289e-14
3.12391e-14
-1.04842e-14
4.42763e-16
-3.17485e-14
3.75815e-14
-4.82552e-14
6.14711e-15
7.7354e-14
-1.73459e-14
-1.2628e-15
3.66481e-14
1.10388e-15
-5.42101e-14
-1.03812e-11
3.0884e-12
-6.11739e-13
2.09584e-13
2.59008e-14
-1.25844e-14
1.28231e-14
1.032e-14
-2.84173e-14
1.77568e-14
1.92637e-14
-4.14805e-14
3.09217e-14
1.56886e-14
-4.09254e-14
2.31323e-14
-7.75997e-15
-1.57671e-14
9.86332e-15
5.42101e-14
1.03541e-11
-1.91697e-12
3.79736e-13
-1.85564e-13
2.74738e-14
-3.02666e-14
4.8876e-14
-1.10078e-14
2.34279e-15
-3.62782e-15
5.70591e-15
2.16859e-14
2.28614e-14
-1.59299e-14
-1.39087e-14
-2.10326e-14
3.87808e-15
9.94915e-15
-4.21495e-15
-2.71051e-14
-2.73761e-12
-1.75301e-14
1.0919e-14
-1.10944e-14
-4.09758e-14
-1.21523e-14
-5.62091e-14
1.97228e-14
8.70526e-15
-8.90505e-15
-3.41868e-14
4.51344e-16
5.01652e-14
2.28413e-14
2.28282e-14
4.00331e-14
-2.60931e-14
6.1057e-14
1.64328e-14
-5.42101e-14
-1.03812e-11
2.23333e-12
-4.27626e-13
1.7384e-13
-3.21155e-14
1.82522e-14
1.75506e-14
-1.54961e-14
2.13577e-14
3.22335e-15
4.75683e-16
1.92796e-14
-3.12333e-14
-5.06604e-15
-6.23251e-15
-2.72155e-14
-5.72036e-14
5.19613e-14
-1.2933e-14
2.71051e-14
1.57751e-11
-2.31896e-12
5.09819e-13
-1.86712e-13
2.97208e-14
-1.34476e-14
-6.22441e-15
8.24368e-15
-5.73515e-14
-3.31494e-14
-8.84614e-16
1.12642e-14
1.02007e-14
-6.58785e-15
-1.87917e-14
5.91911e-14
2.53644e-14
5.48042e-15
-4.94609e-14
-2.71051e-14
-4.14707e-12
4.6031e-13
-6.15851e-14
3.77341e-14
-3.9122e-14
-3.18238e-14
-7.1833e-16
-2.11723e-14
5.6504e-14
3.93549e-14
-2.03506e-14
1.42838e-14
-2.44909e-14
2.5282e-14
-4.39284e-15
-6.68778e-14
-2.95045e-14
-1.57951e-15
6.61911e-14
0
-1.25767e-11
1.36914e-12
-2.79102e-13
9.73363e-14
-2.24589e-14
2.28993e-14
6.44604e-14
1.2744e-14
-5.95875e-14
2.88807e-16
1.13336e-14
-3.13427e-14
7.57411e-15
-3.89069e-14
1.83464e-14
-2.43539e-15
4.47226e-14
1.4008e-14
-2.20055e-14
0
9.78492e-12
-1.46367e-12
3.52366e-13
-1.35525e-13
2.71051e-14
-2.71051e-14
0
0
0
2.71051e-14
8.13152e-14
-5.42101e-14
0
-2.71051e-14
0
0
-2.71051e-14
-2.71051e-14
5.42101e-14
-5.42101e-14
)
;

boundaryField
{
    movingWall
    {
        type            extrapolatedCalculated;
        value           nonuniform List<scalar> 
20
(
9.78492e-12
-1.46367e-12
3.52366e-13
-1.35525e-13
2.71051e-14
-2.71051e-14
0
0
0
2.71051e-14
8.13152e-14
-5.42101e-14
0
-2.71051e-14
0
0
-2.71051e-14
-2.71051e-14
5.42101e-14
-5.42101e-14
)
;
    }
    fixedWalls
    {
        type            extrapolatedCalculated;
        value           nonuniform List<scalar> 
60
(
1.23328e-11
-1.94343e-11
4.90601e-12
6.34258e-12
-9.73071e-12
8.75493e-12
1.65341e-12
-1.2902e-11
1.20346e-11
-3.27971e-12
-3.38813e-12
7.31836e-12
-1.03812e-11
1.03541e-11
-2.73761e-12
-1.03812e-11
1.57751e-11
-4.14707e-12
-1.25767e-11
9.78492e-12
-2.71051e-14
5.42101e-14
-2.71051e-14
2.71051e-14
-2.71051e-14
0
-2.71051e-14
0
0
-2.71051e-14
0
-5.42101e-14
5.42101e-14
-2.71051e-14
-5.42101e-14
2.71051e-14
-2.71051e-14
0
0
-5.42101e-14
1.23328e-11
-1.70255e-12
3.36109e-13
-1.36901e-13
-1.12808e-14
3.16759e-14
-1.94537e-14
4.01366e-15
4.93951e-15
-8.4451e-15
-1.04131e-14
-5.95648e-15
6.22036e-15
2.68622e-15
5.44074e-15
1.07923e-14
7.70806e-15
1.08568e-14
-1.77694e-14
-2.71051e-14
)
;
    }
    frontAndBack
    {
        type            empty;
    }
}


// ************************************************************************* //
