/*--------------------------------*- C++ -*----------------------------------*\
| =========                 |                                                 |
| \\      /  F ield         | OpenFOAM: The Open Source CFD Toolbox           |
|  \\    /   O peration     | Version:  2506                                  |
|   \\  /    A nd           | Website:  www.openfoam.com                      |
|    \\/     M anipulation  |                                                 |
\*---------------------------------------------------------------------------*/
FoamFile
{
    version     2.0;
    format      ascii;
    arch        "LSB;label=32;scalar=64";
    class       volScalarField;
    location    "8.5";
    object      enstrophyField;
}
// * * * * * * * * * * * * * * * * * * * * * * * * * * * * * * * * * * * * * //

dimensions      [0 0 -2 0 0 0 0];

internalField   nonuniform List<scalar> 
400
(
3.77049e-23
6.12742e-23
3.04055e-24
1.49334e-25
1.03042e-26
1.80064e-28
1.04285e-30
1.22539e-29
7.28433e-28
1.77424e-28
1.63137e-29
3.8521e-29
1.02472e-28
2.24527e-27
1.51336e-27
4.49783e-29
1.29299e-30
3.03138e-29
2.28569e-31
8.54163e-29
6.1426e-28
1.88753e-25
1.22858e-26
2.58733e-27
2.17259e-30
1.00459e-33
3.93404e-31
1.59323e-27
3.19362e-27
1.66435e-27
1.94755e-27
3.97576e-27
1.17792e-27
9.1449e-29
5.91871e-28
2.17549e-27
1.56144e-27
1.15446e-27
2.08431e-29
9.00157e-31
7.36632e-24
2.64271e-23
1.72021e-24
4.13666e-26
2.01997e-26
3.37901e-27
1.60897e-27
6.02436e-27
9.44876e-28
6.44325e-28
1.09193e-27
3.1355e-27
1.99037e-27
5.11893e-27
4.04452e-27
5.69354e-29
4.04277e-29
2.20092e-27
2.72617e-29
2.05315e-28
5.67079e-24
1.26778e-23
7.05887e-25
1.31267e-26
1.63841e-26
1.03186e-27
7.16822e-28
5.46512e-28
4.08771e-31
2.4799e-27
2.31328e-27
1.89661e-27
1.31325e-27
2.48754e-28
2.21904e-27
4.11747e-27
2.74746e-27
2.9114e-30
2.25291e-29
1.08056e-28
4.6977e-25
6.10745e-25
4.92117e-26
4.25793e-29
8.66543e-27
1.1159e-27
9.6295e-29
2.61961e-28
1.60394e-27
2.74889e-28
1.9207e-29
5.68113e-28
2.02629e-27
3.92487e-27
1.3159e-27
6.17245e-28
2.64342e-28
5.21101e-29
6.609e-28
3.62797e-29
7.58328e-24
8.88502e-24
4.62161e-25
1.05046e-26
3.72074e-27
8.22825e-32
3.02447e-29
6.82783e-28
4.06257e-29
1.54832e-27
6.78794e-29
3.57499e-28
1.08538e-29
1.7155e-27
2.31358e-30
3.16851e-28
3.46408e-30
7.14238e-30
4.15153e-28
3.32643e-28
1.6501e-23
2.78334e-23
1.6412e-24
4.56043e-26
2.01761e-26
3.29516e-28
7.39283e-27
1.16962e-26
1.35531e-26
1.24007e-26
5.54537e-27
1.12258e-27
7.30818e-28
2.09077e-28
1.02871e-30
6.76234e-28
1.55033e-27
1.43997e-27
1.40481e-30
8.7848e-28
1.02642e-24
6.26237e-24
2.08171e-25
2.19249e-26
1.71818e-27
2.50162e-27
1.54391e-29
1.87917e-30
2.86965e-28
4.89586e-28
4.45648e-27
2.26563e-30
8.24088e-28
1.90381e-27
3.8271e-31
2.30618e-29
1.75064e-29
1.32443e-27
1.44455e-29
1.5894e-28
5.24192e-24
6.62439e-24
4.01411e-25
6.67879e-27
7.89745e-27
4.25837e-28
3.47643e-27
6.51679e-27
6.31073e-27
6.64523e-27
3.88961e-27
1.49891e-26
7.8936e-28
5.37716e-28
4.469e-28
6.8952e-28
3.6744e-27
2.28513e-28
3.79984e-28
4.1358e-31
1.59886e-23
3.03534e-23
1.2761e-24
9.69927e-26
5.52881e-27
3.96577e-27
1.43607e-28
9.50441e-29
7.43249e-27
2.03872e-27
2.54864e-27
1.95523e-27
2.46834e-28
8.61194e-29
8.6657e-28
3.87017e-28
7.70302e-28
6.06815e-28
5.39456e-29
6.31447e-28
2.82364e-23
2.31051e-23
1.23305e-24
4.99319e-26
4.77371e-27
1.1577e-28
9.86571e-30
2.20801e-28
1.32277e-28
3.95666e-27
1.09859e-26
9.46391e-27
2.36341e-27
7.62631e-28
1.14577e-27
1.71174e-30
4.02131e-27
1.44565e-29
2.55413e-28
6.0581e-29
1.55004e-23
1.02465e-23
6.73427e-25
4.37405e-27
1.00856e-26
4.50662e-27
8.13355e-27
5.8345e-29
3.69179e-27
5.20849e-29
5.21673e-27
1.80802e-27
3.29681e-27
1.00135e-28
1.87044e-27
3.26643e-27
1.29396e-28
7.85003e-31
2.20375e-27
5.26698e-29
7.1185e-25
2.24743e-25
7.96358e-27
3.33212e-27
8.57164e-27
8.50704e-28
2.89916e-29
2.12634e-27
1.51974e-27
7.28204e-28
4.24219e-27
2.93687e-27
3.65773e-27
1.2735e-26
6.24524e-27
3.05197e-27
7.15858e-27
2.75781e-28
1.53078e-28
6.56497e-30
1.87802e-23
1.08327e-23
6.6518e-25
4.53334e-27
1.81394e-26
6.69549e-33
8.98657e-28
1.57795e-27
2.12263e-29
1.23412e-27
1.17331e-27
2.02446e-28
8.23699e-27
2.13712e-28
5.81506e-29
1.31775e-27
3.82684e-28
8.08282e-28
7.01492e-27
1.34662e-29
2.80177e-23
3.94005e-23
2.09011e-24
1.12616e-25
1.13346e-27
6.49884e-27
2.67637e-28
2.8581e-27
1.42288e-27
6.79339e-31
2.85735e-29
1.43358e-28
2.02439e-27
7.13169e-27
2.14042e-27
1.11212e-28
1.71974e-27
1.75342e-27
1.73592e-28
4.18611e-29
7.81855e-24
2.46374e-23
1.244e-24
7.82443e-26
8.44809e-27
2.03881e-27
9.07532e-27
1.21108e-27
2.84931e-30
7.79215e-29
5.19088e-29
2.54583e-29
2.25658e-27
4.72189e-27
1.81105e-27
1.52775e-28
5.53147e-29
5.42087e-29
7.27382e-28
5.41973e-29
1.21491e-24
1.9502e-25
1.23082e-26
3.65284e-28
1.55193e-27
3.73398e-27
8.20239e-27
1.4057e-27
2.22744e-28
1.95981e-29
3.69568e-31
3.20476e-30
5.21271e-29
1.0158e-27
5.18291e-31
8.2742e-29
1.95874e-27
2.2803e-29
1.68024e-29
7.27556e-29
8.64887e-24
2.95699e-23
1.47909e-24
7.94838e-26
1.97741e-26
4.46304e-27
2.0612e-30
2.60709e-28
3.43582e-29
3.62736e-29
1.65043e-28
3.65819e-29
2.91969e-29
2.12775e-27
1.05388e-28
8.7653e-30
1.84797e-28
1.45513e-27
1.11292e-29
2.84334e-31
3.70428e-24
1.02948e-23
6.49374e-25
2.08754e-26
1.28008e-26
6.08132e-27
8.05234e-27
1.53837e-27
7.84215e-28
2.6561e-28
9.34821e-28
7.91978e-28
4.03027e-27
2.66527e-28
1.27697e-27
4.29203e-28
4.00081e-27
2.22254e-27
1.55745e-27
1.16964e-29
4.67063e-24
1.03662e-23
3.50206e-25
3.62217e-26
9.04237e-30
5.97659e-28
1.95555e-27
2.24086e-27
1.47171e-27
2.00798e-29
7.49347e-28
3.99113e-29
3.9217e-28
5.73259e-28
1.6205e-29
4.08114e-28
3.02089e-28
1.60971e-33
1.57495e-27
7.85131e-28
)
;

boundaryField
{
    movingWall
    {
        type            calculated;
        value           nonuniform List<scalar> 
20
(
1.99825e-23
1.58001e-23
1.48865e-25
1.15871e-25
4.66083e-26
3.75166e-26
2.65359e-26
2.75609e-26
1.57849e-26
1.46716e-26
4.36203e-26
5.68184e-26
1.59377e-26
2.61747e-26
1.68047e-26
1.60385e-26
1.53319e-26
1.60971e-33
4.11612e-27
5.13483e-27
)
;
    }
    fixedWalls
    {
        type            calculated;
        value           nonuniform List<scalar> 
60
(
1.09344e-21
4.91285e-24
4.99064e-22
2.4735e-22
1.30667e-23
1.71346e-22
5.3221e-22
1.03917e-22
1.28397e-22
5.2484e-22
4.41066e-22
2.00605e-22
2.40869e-24
2.08363e-22
7.26477e-22
4.40918e-22
4.49372e-24
5.21552e-22
1.90108e-22
1.76605e-22
1.94871e-28
1.58951e-31
5.91684e-28
1.1077e-29
1.62211e-28
1.30519e-28
1.80722e-27
3.01342e-29
2.96754e-29
2.98012e-28
9.60734e-29
1.1298e-28
1.99684e-29
7.6921e-29
1.40791e-29
1.36893e-29
3.38013e-28
2.82059e-32
1.11699e-29
1.07699e-27
8.53439e-23
8.40422e-23
2.39747e-24
3.52854e-25
1.40712e-28
1.41894e-26
1.60348e-26
4.39626e-27
1.04099e-26
5.79483e-27
4.46795e-27
1.42566e-26
2.77527e-27
1.35852e-26
8.76768e-27
1.01833e-26
4.08843e-27
3.28305e-27
9.56279e-28
1.65193e-27
)
;
    }
    frontAndBack
    {
        type            empty;
    }
}


// ************************************************************************* //
