/*--------------------------------*- C++ -*----------------------------------*\
| =========                 |                                                 |
| \\      /  F ield         | OpenFOAM: The Open Source CFD Toolbox           |
|  \\    /   O peration     | Version:  2506                                  |
|   \\  /    A nd           | Website:  www.openfoam.com                      |
|    \\/     M anipulation  |                                                 |
\*---------------------------------------------------------------------------*/
FoamFile
{
    version     2.0;
    format      ascii;
    arch        "LSB;label=32;scalar=64";
    class       volScalarField;
    location    "8.5";
    object      flowTypeField;
}
// * * * * * * * * * * * * * * * * * * * * * * * * * * * * * * * * * * * * * //

dimensions      [0 0 0 0 0 0 0];

internalField   nonuniform List<scalar> 
400
(
0.409449
0.0439269
0.0262405
0.0642433
-0.0399908
0.666135
0.899272
0.185743
-0.362175
0.0814695
0.439904
0.15155
0.07644
-0.231155
-0.00960034
0.293921
0.670225
0.356942
0.935118
0.504546
0.99754
0.833857
0.825659
0.592341
0.961121
0.942205
0.962386
0.0146413
0.0834166
-0.0613061
0.0261867
-0.071995
0.338382
0.497984
0.414381
-0.0341878
-0.0304539
0.116127
0.608602
0.949897
0.511091
0.119709
-0.0207466
0.28256
-0.549902
0.241679
0.0176257
0.0987571
0.250275
0.500176
0.138022
0.0735784
-0.0124732
-0.237283
-0.100692
0.326247
0.784882
-0.205238
0.177742
0.0669483
0.561517
0.147394
0.0754274
0.432551
-0.496849
0.164646
0.048055
0.158499
0.923422
-0.128515
-0.237193
-0.128955
0.0550317
0.402657
-0.101382
-0.0277216
0.0896763
0.504771
0.288529
0.450181
0.877193
0.540354
0.461684
0.921568
-0.0280007
0.209298
0.577281
0.331674
0.50115
0.233911
0.130401
-0.154967
-0.145249
-0.0885001
0.0534159
-0.153177
0.372454
0.575428
0.0765587
0.645246
0.567909
0.147398
0.101734
0.341264
-0.146161
0.945405
0.226326
0.0698135
0.779309
-0.0170248
0.500118
0.704622
0.774867
-0.066856
0.952761
0.0774454
0.917312
0.890564
0.0109673
0.129245
0.144606
0.0724841
-0.0733472
0.283052
-0.316505
0.51968
-0.0739983
-0.0981565
-0.166142
-0.133347
0.0598134
0.231518
0.459752
0.35217
0.897206
-0.343649
0.077833
0.108326
0.887436
-0.0185352
0.853711
0.219978
0.358948
0.0775853
0.127781
-0.165832
0.784084
0.934643
0.542373
0.466529
0.0768339
0.937059
0.46364
-0.00976236
0.802812
0.68263
0.415159
0.425748
0.150074
0.36486
0.691059
0.204128
0.0838476
0.533536
-0.118435
0.313752
0.26295
0.0652216
-0.00253335
-0.0284184
-0.0801068
-0.0374013
0.336277
0.438827
0.21565
-0.285316
-0.0537573
0.413445
0.257176
0.681978
0.194909
0.0211535
0.066008
-0.130032
0.00184117
-0.0781235
0.460694
0.492845
-0.0671897
-0.0976428
-0.137041
0.0636469
0.615431
0.000116595
-0.501949
-0.018069
-0.396011
0.124794
0.0807683
0.0968985
-0.0778568
-0.0204044
-0.144837
0.0218901
-0.236489
0.397295
0.84355
0.766166
0.00995465
0.0955827
-0.338307
-0.21287
0.192722
0.277975
0.122606
0.938803
0.0836694
0.857355
0.368817
0.576613
0.220612
0.0279641
-0.228957
0.596322
-0.461068
0.046843
-0.0273517
0.63101
0.0486653
0.709045
-0.00709633
0.140406
0.159514
0.477983
0.345134
0.00732007
0.157508
0.954655
-0.0526829
0.686795
0.833299
0.668328
0.722487
0.436167
0.108121
-0.197296
0.836075
-0.00240659
0.0954278
-0.129076
-0.0809698
0.199723
0.151509
-0.139058
0.00424002
0.0956338
-0.100759
0.346954
0.467671
0.900487
0.419438
0.0483224
-0.105977
0.532661
-0.355408
0.937986
0.313219
-0.295513
0.755304
0.209454
0.204545
0.420331
-0.00446038
0.239454
0.766749
0.153496
0.059158
0.150151
-0.0495774
0.828666
0.097487
0.0303831
-0.0429608
-0.0313188
0.456401
-0.257644
0.556025
0.227828
0.155379
0.630386
0.682215
0.495297
0.163553
-0.438005
-0.181612
0.566526
0.0350094
0.210639
0.414589
0.785352
0.614013
0.103643
0.0864219
0.0587869
-0.133143
-0.0393555
-0.21581
0.208211
0.894441
0.248644
0.173581
0.5657
0.170417
-0.193339
0.1023
0.515621
0.749221
0.753604
-0.388951
0.604548
0.876754
0.792953
0.770529
0.841567
-0.16358
-0.573014
-0.0945507
0.171513
0.588841
0.713654
0.284723
0.791457
0.363699
-0.638692
0.829378
0.797607
-0.0227484
0.290035
0.730154
0.149789
0.478728
0.0918069
0.0158067
0.0319118
-0.391277
-0.0874972
0.895717
0.343367
0.86052
0.790513
0.404153
0.0515531
0.663279
-0.0568832
0.506486
0.919405
0.372542
0.0129496
0.912927
0.870855
0.762016
0.213254
0.1184
0.333225
-0.460077
0.0131555
0.0755498
-0.0148826
0.546619
0.358428
0.2021
-0.139265
-0.0095112
0.372617
0.157524
-0.00821797
0.0861783
-0.0606017
0.0813145
0.802382
0.663513
0.117527
0.209265
-0.111376
0.91342
0.112057
0.0142192
-0.0539754
0.00403058
0.697711
0.550906
0.806369
0.311826
0.154546
0.382809
-0.048322
0.336878
0.965314
0.122029
0.334138
)
;

boundaryField
{
    movingWall
    {
        type            calculated;
        value           nonuniform List<scalar> 
20
(
0.629989
0.0962213
0.547444
-0.281623
0.146616
-0.0209809
-0.0267031
-0.0452155
0.0179766
0.0509993
0.0791679
0.0676248
0.0611128
-0.00670158
-0.0105449
-0.00369212
0.0385077
0.972493
0.0699307
0.0476587
)
;
    }
    fixedWalls
    {
        type            calculated;
        value           nonuniform List<scalar> 
60
(
0.049625
0.814481
0.0925252
0.112123
0.534707
0.12584
0.0383231
0.27087
0.193175
0.0296387
-0.0590704
0.00242595
0.76465
0.026937
0.0103763
0.111029
0.784064
0.0895387
0.221562
0.146791
0.531952
0.980301
0.0257312
0.83424
0.745695
0.434899
0.0243069
0.706929
0.162001
0.112097
0.79572
0.713746
0.897249
0.751154
0.910898
0.821468
0.0424668
0.972094
0.83404
0.461404
0.674818
0.139921
0.337178
-0.103546
0.910802
-0.180162
0.0366296
0.00145553
-0.0572746
-0.1917
0.0586732
0.0680566
0.166233
0.0773176
0.0455095
-0.0536103
-0.0178359
0.10182
0.260021
-0.00550975
)
;
    }
    frontAndBack
    {
        type            empty;
    }
}


// ************************************************************************* //
