/*--------------------------------*- C++ -*----------------------------------*\
| =========                 |                                                 |
| \\      /  F ield         | OpenFOAM: The Open Source CFD Toolbox           |
|  \\    /   O peration     | Version:  2506                                  |
|   \\  /    A nd           | Website:  www.openfoam.com                      |
|    \\/     M anipulation  |                                                 |
\*---------------------------------------------------------------------------*/
FoamFile
{
    version     2.0;
    format      ascii;
    arch        "LSB;label=32;scalar=64";
    class       surfaceScalarField;
    location    "8.5";
    object      fluxField;
}
// * * * * * * * * * * * * * * * * * * * * * * * * * * * * * * * * * * * * * //

dimensions      [0 3 -1 0 0 0 0];

oriented        oriented;

internalField   nonuniform List<scalar> 
760
(
-5e-05
3.20846e-18
-5e-05
-6.69582e-19
-5e-05
1.72119e-19
-5e-05
-2.74489e-20
-5e-05
1.07323e-20
-5e-05
1.14271e-21
-5e-05
1.91285e-21
-5e-05
1.00342e-21
-5e-05
1.23488e-21
-5e-05
-2.11128e-21
-5e-05
-2.60328e-21
-5e-05
-1.48912e-21
-5e-05
1.55509e-21
-5e-05
6.71554e-22
-5e-05
1.36019e-21
-5e-05
2.69808e-21
-5e-05
1.92701e-21
-5e-05
2.7142e-21
-5e-05
2.33391e-21
1.26911e-21
-5e-05
-1.9108e-18
-5e-05
4.31434e-19
-5e-05
-9.10252e-20
-5e-05
2.04659e-20
-5e-05
-9.99547e-21
-5e-05
-3.19921e-21
-5e-05
-3.45343e-21
-5e-05
-3.60663e-21
-5e-05
-3.23039e-21
-5e-05
-1.27065e-21
-5e-05
2.2189e-21
-5e-05
2.64912e-21
-5e-05
4.7143e-21
-5e-05
-9.89916e-22
-5e-05
-3.64776e-21
-5e-05
-1.32079e-21
-5e-05
1.95796e-21
-5e-05
1.34535e-21
-5e-05
-2.61579e-21
-2.11477e-21
-5e-05
-6.87794e-19
-5e-05
1.56796e-19
-5e-05
-3.42632e-20
-5e-05
3.68526e-21
-5e-05
-2.86207e-21
-5e-05
-1.30882e-21
-5e-05
1.49567e-21
-5e-05
7.5161e-22
-5e-05
2.64801e-21
-5e-05
3.66236e-21
-5e-05
3.17218e-21
-5e-05
2.07979e-21
-5e-05
1.8588e-21
-5e-05
5.99243e-22
-5e-05
-1.90794e-21
-5e-05
-4.65897e-21
-5e-05
-1.59805e-21
-5e-05
-6.14114e-22
-5e-05
-4.02884e-21
-4.13825e-21
-5e-05
1.14515e-18
-5e-05
-2.47388e-19
-5e-05
5.41736e-20
-5e-05
-1.52211e-20
-5e-05
2.42085e-21
-5e-05
-2.87781e-21
-5e-05
1.9674e-21
-5e-05
3.11864e-21
-5e-05
4.51029e-21
-5e-05
2.73768e-21
-5e-05
1.3708e-21
-5e-05
8.34982e-22
-5e-05
1.17678e-21
-5e-05
3.93761e-21
-5e-05
4.19772e-21
-5e-05
1.0815e-22
-5e-05
-1.67708e-22
-5e-05
8.77037e-22
-5e-05
-2.11665e-21
-3.11397e-21
-5e-05
-1.46295e-18
-5e-05
3.01226e-19
-5e-05
-7.17953e-20
-5e-05
1.63223e-20
-5e-05
-6.14692e-21
-5e-05
-4.27402e-21
-5e-05
-4.30345e-21
-5e-05
-2.91155e-21
-5e-05
-5.71165e-21
-5e-05
-1.26507e-21
-5e-05
2.33838e-21
-5e-05
3.19729e-21
-5e-05
3.89771e-21
-5e-05
4.39495e-21
-5e-05
4.62745e-21
-5e-05
3.12994e-21
-5e-05
2.13698e-21
-5e-05
1.44392e-21
-5e-05
-1.36011e-21
-4.41462e-22
-5e-05
9.53246e-19
-5e-05
-2.06065e-19
-5e-05
5.37637e-20
-5e-05
-7.03671e-21
-5e-05
9.45647e-22
-5e-05
-5.48815e-21
-5e-05
-6.08756e-21
-5e-05
-4.13851e-21
-5e-05
-4.19449e-21
-5e-05
5.39353e-21
-5e-05
8.43086e-21
-5e-05
7.5295e-21
-5e-05
6.63269e-21
-5e-05
2.37002e-21
-5e-05
4.2934e-22
-5e-05
2.19084e-21
-5e-05
2.36415e-21
-5e-05
1.90118e-21
-5e-05
1.28302e-21
2.74772e-21
-5e-05
1.08555e-18
-5e-05
-2.17618e-19
-5e-05
5.76154e-20
-5e-05
-7.3096e-21
-5e-05
5.83012e-22
-5e-05
-5.62642e-21
-5e-05
-2.42074e-21
-5e-05
-9.43203e-22
-5e-05
1.4498e-21
-5e-05
7.1224e-21
-5e-05
5.8929e-21
-5e-05
3.07214e-21
-5e-05
4.71829e-21
-5e-05
2.48055e-21
-5e-05
1.48005e-21
-5e-05
2.62042e-21
-5e-05
2.1999e-21
-5e-05
1.5095e-21
-5e-05
2.74942e-21
3.27231e-21
-5e-05
-2.00592e-18
-5e-05
4.24903e-19
-5e-05
-1.02766e-19
-5e-05
1.92614e-20
-5e-05
-7.96865e-21
-5e-05
2.91927e-22
-5e-05
3.4581e-21
-5e-05
1.16396e-21
-5e-05
1.53732e-21
-5e-05
9.69756e-22
-5e-05
-1.22536e-21
-5e-05
-4.02474e-21
-5e-05
-3.32111e-21
-5e-05
2.9976e-21
-5e-05
3.90694e-21
-5e-05
2.08102e-21
-5e-05
-2.98512e-22
-5e-05
-5.00772e-22
-5e-05
1.81897e-21
7.27365e-22
-5e-05
1.07758e-18
-5e-05
-2.56504e-19
-5e-05
3.96914e-20
-5e-05
-2.69055e-20
-5e-05
-7.64293e-21
-5e-05
-4.93106e-21
-5e-05
-2.28308e-21
-5e-05
-2.90881e-21
-5e-05
-2.72385e-22
-5e-05
-5.14619e-22
-5e-05
4.22777e-22
-5e-05
2.06051e-21
-5e-05
-1.24233e-22
-5e-05
4.45815e-21
-5e-05
1.94886e-21
-5e-05
1.28808e-22
-5e-05
-3.79632e-22
-5e-05
2.06268e-21
-5e-05
2.98512e-21
-6.49712e-22
-5e-05
3.44813e-19
-5e-05
-1.05082e-19
-5e-05
8.30731e-21
-5e-05
-1.69728e-20
-5e-05
-9.24651e-21
-5e-05
-8.33547e-21
-5e-05
-7.37842e-21
-5e-05
-4.68555e-21
-5e-05
-5.45429e-21
-5e-05
-5.37638e-21
-5e-05
-1.13268e-21
-5e-05
8.87201e-21
-5e-05
8.23777e-21
-5e-05
4.50959e-21
-5e-05
1.16789e-21
-5e-05
-7.06926e-22
-5e-05
8.8443e-22
-5e-05
4.42081e-21
-5e-05
4.16174e-21
6.98141e-22
-5e-05
-6.02711e-19
-5e-05
1.22737e-19
-5e-05
-3.49889e-20
-5e-05
-5.31949e-23
-5e-05
-6.47365e-21
-5e-05
-2.52707e-21
-5e-05
7.36193e-22
-5e-05
3.36402e-21
-5e-05
-4.86218e-21
-5e-05
-8.63168e-21
-5e-05
-5.50334e-21
-5e-05
6.5277e-21
-5e-05
1.00433e-20
-5e-05
3.35837e-21
-5e-05
3.01612e-21
-5e-05
3.5115e-21
-5e-05
2.43129e-21
-5e-05
1.58111e-21
-5e-05
3.46231e-21
3.49992e-21
-5e-05
8.70765e-19
-5e-05
-1.56292e-19
-5e-05
3.53942e-20
-5e-05
-1.29038e-20
-5e-05
-1.46122e-21
-5e-05
1.12553e-21
-5e-05
5.48028e-21
-5e-05
7.80979e-21
-5e-05
4.1552e-21
-5e-05
1.10691e-22
-5e-05
-1.16085e-21
-5e-05
2.61911e-21
-5e-05
8.26499e-21
-5e-05
1.53678e-21
-5e-05
-9.90296e-22
-5e-05
2.43978e-21
-5e-05
-3.15699e-22
-5e-05
-4.39051e-21
-5e-05
2.7597e-22
3.02853e-21
-5e-05
-1.37577e-18
-5e-05
2.90985e-19
-5e-05
-6.48433e-20
-5e-05
1.17384e-20
-5e-05
-7.07732e-21
-5e-05
-3.1461e-21
-5e-05
-3.57049e-21
-5e-05
2.57999e-21
-5e-05
6.44821e-21
-5e-05
4.43921e-21
-5e-05
4.81593e-21
-5e-05
3.1824e-21
-5e-05
9.54167e-22
-5e-05
-2.8541e-21
-5e-05
-3.45508e-21
-5e-05
-9.93185e-22
-5e-05
-1.93999e-21
-5e-05
-3.94177e-21
-5e-05
-4.31043e-21
-2.0743e-21
-5e-05
1.26573e-18
-5e-05
-2.89506e-19
-5e-05
6.78289e-20
-5e-05
-1.25097e-20
-5e-05
9.21864e-23
-5e-05
-7.56665e-21
-5e-05
-8.1098e-21
-5e-05
-2.75195e-21
-5e-05
5.85697e-22
-5e-05
-9.06956e-22
-5e-05
1.42648e-21
-5e-05
-1.35478e-21
-5e-05
-7.83717e-21
-5e-05
-3.98247e-21
-5e-05
3.29908e-21
-5e-05
1.51812e-21
-5e-05
9.69519e-22
-5e-05
2.48729e-21
-5e-05
-1.05374e-21
-2.13762e-21
-5e-05
3.85763e-19
-5e-05
-6.53689e-20
-5e-05
1.62823e-20
-5e-05
4.00267e-21
-5e-05
3.30858e-21
-5e-05
-3.03808e-21
-5e-05
-7.276e-21
-5e-05
-8.62184e-21
-5e-05
-4.59995e-21
-5e-05
-2.22626e-21
-5e-05
-1.77043e-21
-5e-05
-6.66343e-21
-5e-05
-7.7875e-21
-5e-05
-1.06595e-21
-5e-05
5.70704e-21
-5e-05
3.232e-21
-5e-05
2.52995e-22
-5e-05
1.71172e-21
-5e-05
4.10819e-21
2.35275e-21
-5e-05
-2.11958e-18
-5e-05
4.36361e-19
-5e-05
-1.06906e-19
-5e-05
1.63551e-20
-5e-05
-8.02888e-21
-5e-05
-2.21322e-21
-5e-05
-2.38862e-21
-5e-05
-3.87402e-21
-5e-05
-1.43684e-21
-5e-05
8.05837e-22
-5e-05
1.18921e-22
-5e-05
-1.95637e-21
-5e-05
-1.03205e-21
-5e-05
-1.26651e-21
-5e-05
-1.55813e-21
-5e-05
-2.75998e-23
-5e-05
-7.48378e-22
-5e-05
-5.62192e-22
-5e-05
3.54302e-21
3.64613e-21
-5e-05
2.07006e-18
-5e-05
-4.64543e-19
-5e-05
9.35736e-20
-5e-05
-3.99017e-20
-5e-05
-6.12233e-21
-5e-05
-3.3619e-21
-5e-05
5.22016e-21
-5e-05
2.06092e-21
-5e-05
-7.85349e-22
-5e-05
-1.51108e-21
-5e-05
-2.21153e-22
-5e-05
2.81606e-21
-5e-05
2.55017e-21
-5e-05
-1.64696e-21
-5e-05
-4.69793e-21
-5e-05
-5.53102e-21
-5e-05
-4.35175e-22
-5e-05
1.3701e-21
-5e-05
1.1873e-21
1.63988e-21
-5e-05
8.87964e-19
-5e-05
-1.76302e-19
-5e-05
3.20376e-20
-5e-05
-1.76715e-20
-5e-05
-3.00425e-21
-5e-05
-1.17969e-21
-5e-05
-1.79583e-22
-5e-05
-5.29309e-21
-5e-05
-6.2028e-21
-5e-05
-3.7138e-21
-5e-05
1.68862e-21
-5e-05
3.57096e-21
-5e-05
6.53544e-22
-5e-05
-4.55772e-22
-5e-05
-1.09821e-21
-5e-05
-3.16692e-21
-5e-05
-5.99853e-22
-5e-05
-3.94878e-22
-5e-05
-3.78101e-21
-1.97463e-21
-5e-05
-2.53223e-18
-5e-05
5.3202e-19
-5e-05
-1.23986e-19
-5e-05
2.43341e-20
-5e-05
-5.61474e-21
-5e-05
-1.05145e-21
-5e-05
-4.21368e-21
-5e-05
-3.59027e-21
-5e-05
-1.34435e-21
-5e-05
7.22017e-23
-5e-05
2.83341e-21
-5e-05
-1.0594e-21
-5e-05
-4.88274e-21
-5e-05
-2.95047e-21
-5e-05
-2.18966e-21
-5e-05
-6.08847e-22
-5e-05
-2.37188e-21
-5e-05
-3.27427e-21
-5e-05
-5.50139e-21
-3.19609e-21
-5e-05
-5e-05
-5e-05
-5e-05
-5e-05
-5e-05
-5e-05
-5e-05
-5e-05
-5e-05
-5e-05
-5e-05
-5e-05
-5e-05
-5e-05
-5e-05
-5e-05
-5e-05
-5e-05
)
;

boundaryField
{
    movingWall
    {
        type            calculated;
        value           uniform -0;
    }
    fixedWalls
    {
        type            calculated;
        value           nonuniform List<scalar> 
60
(
5e-05
5e-05
5e-05
5e-05
5e-05
5e-05
5e-05
5e-05
5e-05
5e-05
5e-05
5e-05
5e-05
5e-05
5e-05
5e-05
5e-05
5e-05
5e-05
5e-05
-5e-05
-5e-05
-5e-05
-5e-05
-5e-05
-5e-05
-5e-05
-5e-05
-5e-05
-5e-05
-5e-05
-5e-05
-5e-05
-5e-05
-5e-05
-5e-05
-5e-05
-5e-05
-5e-05
-5e-05
0
0
0
0
0
0
0
0
0
0
0
0
0
0
0
0
0
0
0
0
)
;
    }
    frontAndBack
    {
        type            empty;
    }
}


// ************************************************************************* //
