/*--------------------------------*- C++ -*----------------------------------*\
| =========                 |                                                 |
| \\      /  F ield         | OpenFOAM: The Open Source CFD Toolbox           |
|  \\    /   O peration     | Version:  2506                                  |
|   \\  /    A nd           | Website:  www.openfoam.com                      |
|    \\/     M anipulation  |                                                 |
\*---------------------------------------------------------------------------*/
FoamFile
{
    version     2.0;
    format      ascii;
    arch        "LSB;label=32;scalar=64";
    class       volTensorField;
    location    "8.5";
    object      gradU;
}
// * * * * * * * * * * * * * * * * * * * * * * * * * * * * * * * * * * * * * //

dimensions      [0 0 -1 0 0 0 0];

internalField   nonuniform List<tensor> 
400
(
(-4.87891e-13 9.33441e-12 0 6.50521e-13 1.28338e-11 0 0 0 0)
(9.75782e-13 -1.12328e-11 0 -1.6263e-13 -2.67833e-12 0 0 0 0)
(-3.52366e-13 2.41178e-12 0 -5.42101e-14 6.88475e-13 0 0 0 0)
(-2.71051e-14 -5.73611e-13 0 -2.71051e-14 -1.09796e-13 0 0 0 0)
(-5.42101e-14 1.16451e-13 0 -2.71051e-14 4.29293e-14 0 0 0 0)
(2.71051e-14 -3.52331e-14 0 -5.42101e-14 4.57084e-15 0 0 0 0)
(-2.71051e-14 -1.4442e-15 0 0 7.65138e-15 0 0 0 0)
(0 -4.95055e-15 0 0 4.01366e-15 0 0 0 0)
(0 -1.10639e-14 0 2.71051e-14 4.93951e-15 0 0 0 0)
(0 -1.88374e-14 0 0 -8.4451e-15 0 0 0 0)
(0 -5.71204e-15 0 0 -1.04131e-14 0 0 0 0)
(0 8.77735e-15 0 0 -5.95648e-15 0 0 0 0)
(0 1.43159e-14 0 0 6.22036e-15 0 0 0 0)
(0 1.28015e-14 0 -5.42101e-14 2.68622e-15 0 0 0 0)
(0 8.05593e-16 0 -5.42101e-14 5.44074e-15 0 0 0 0)
(0 -9.48455e-15 0 0 1.07923e-14 0 0 0 0)
(0 -1.6081e-15 0 0 7.70806e-15 0 0 0 0)
(0 7.78637e-15 0 0 1.08568e-14 0 0 0 0)
(-2.71051e-14 6.76119e-16 0 0 9.33563e-15 0 0 0 0)
(-2.71051e-14 -1.30703e-14 0 0 5.07643e-15 0 0 0 0)
(1.02999e-12 8.21097e-13 0 7.86047e-13 -2.0477e-11 0 0 0 0)
(-1.70762e-12 -9.12571e-13 0 -2.98156e-13 4.40406e-12 0 0 0 0)
(4.87891e-13 1.56753e-13 0 0 -1.05258e-12 0 0 0 0)
(2.71051e-14 -7.19351e-14 0 0 1.91659e-13 0 0 0 0)
(5.42101e-14 -2.08451e-15 0 0 -8.29112e-14 0 0 0 0)
(0 -4.48239e-17 0 0 -1.73677e-14 0 0 0 0)
(5.42101e-14 8.87023e-16 0 0 -2.14651e-14 0 0 0 0)
(0 2.23868e-15 0 -5.42101e-14 -1.84402e-14 0 0 0 0)
(2.71051e-14 -1.3949e-15 0 -8.13152e-14 -1.78611e-14 0 0 0 0)
(0 3.48478e-15 0 -5.42101e-14 3.3625e-15 0 0 0 0)
(-2.71051e-14 8.20066e-15 0 -5.42101e-14 1.92887e-14 0 0 0 0)
(0 7.85612e-15 0 -8.13152e-14 1.65529e-14 0 0 0 0)
(-5.42101e-14 -5.67318e-15 0 -5.42101e-14 1.26368e-14 0 0 0 0)
(0 -1.35811e-14 0 -2.71051e-14 -6.64588e-15 0 0 0 0)
(5.42101e-14 7.30049e-15 0 -2.71051e-14 -2.00318e-14 0 0 0 0)
(2.71051e-14 1.17519e-14 0 -5.42101e-14 -1.60754e-14 0 0 0 0)
(0 1.67259e-15 0 -5.42101e-14 1.2379e-16 0 0 0 0)
(0 -6.1588e-15 0 -5.42101e-14 -5.47539e-15 0 0 0 0)
(0 -6.45649e-15 0 0 -1.97988e-14 0 0 0 0)
(5.42101e-14 -1.34176e-15 0 0 -1.35355e-14 0 0 0 0)
(2.71051e-14 -6.73855e-12 0 -2.90024e-12 4.89201e-12 0 0 0 0)
(1.6263e-13 8.19166e-12 0 9.21572e-13 -1.09855e-12 0 0 0 0)
(-8.13152e-14 -1.80062e-12 0 5.42101e-14 2.27048e-13 0 0 0 0)
(-2.71051e-14 3.96054e-13 0 1.0842e-13 -6.71226e-14 0 0 0 0)
(-2.71051e-14 -9.25759e-14 0 1.0842e-13 2.85336e-14 0 0 0 0)
(0 2.6213e-14 0 1.0842e-13 7.56156e-15 0 0 0 0)
(0 -2.51672e-15 0 5.42101e-14 1.97964e-14 0 0 0 0)
(-5.42101e-14 -1.34649e-15 0 1.0842e-13 1.7433e-14 0 0 0 0)
(0 1.07388e-14 0 5.42101e-14 2.35136e-14 0 0 0 0)
(-5.42101e-14 1.83123e-14 0 5.42101e-14 1.97321e-14 0 0 0 0)
(0 7.47842e-15 0 5.42101e-14 3.81312e-15 0 0 0 0)
(-2.71051e-14 2.12549e-15 0 8.13152e-14 -2.2773e-15 0 0 0 0)
(2.71051e-14 -8.88295e-15 0 5.42101e-14 -1.1422e-14 0 0 0 0)
(0 -1.98672e-14 0 8.13152e-14 6.35663e-15 0 0 0 0)
(0 -8.62397e-15 0 8.13152e-14 6.95927e-15 0 0 0 0)
(0 1.0671e-14 0 0 -1.33527e-14 0 0 0 0)
(5.42101e-14 8.99196e-15 0 0 -1.4224e-14 0 0 0 0)
(0 -1.21362e-14 0 5.42101e-14 -7.83787e-15 0 0 0 0)
(0 -7.38399e-15 0 0 -5.65218e-15 0 0 0 0)
(0 2.0264e-14 0 0 -8.09392e-15 0 0 0 0)
(-1.00289e-12 4.61456e-12 0 1.24683e-12 7.33178e-12 0 0 0 0)
(1.27394e-12 -5.57754e-12 0 -5.42101e-13 -1.61674e-12 0 0 0 0)
(-3.52366e-13 1.18818e-12 0 0 3.53748e-13 0 0 0 0)
(8.13152e-14 -2.70449e-13 0 -1.0842e-13 -7.56254e-14 0 0 0 0)
(2.71051e-14 7.25996e-14 0 -1.0842e-13 2.11317e-14 0 0 0 0)
(0 -8.78203e-15 0 -5.42101e-14 -6.27597e-15 0 0 0 0)
(2.71051e-14 1.07584e-14 0 -2.71051e-14 1.88692e-15 0 0 0 0)
(-2.71051e-14 5.95584e-15 0 -2.71051e-14 9.46812e-15 0 0 0 0)
(-2.71051e-14 9.0418e-16 0 0 7.44912e-15 0 0 0 0)
(2.71051e-14 -1.62157e-14 0 5.42101e-14 -3.69873e-15 0 0 0 0)
(0 -1.38087e-14 0 5.42101e-14 -7.20552e-15 0 0 0 0)
(0 -7.379e-15 0 5.42101e-14 -4.97925e-15 0 0 0 0)
(0 2.96075e-15 0 5.42101e-14 -2.72811e-15 0 0 0 0)
(-2.71051e-14 4.80019e-15 0 2.71051e-14 1.33535e-14 0 0 0 0)
(0 -1.24089e-14 0 5.42101e-14 2.44226e-14 0 0 0 0)
(-2.71051e-14 -9.43144e-15 0 8.13152e-14 1.90685e-14 0 0 0 0)
(0 7.18746e-15 0 8.13152e-14 5.72135e-15 0 0 0 0)
(0 2.41305e-15 0 0 5.96461e-15 0 0 0 0)
(0 -6.71254e-15 0 0 7.64872e-15 0 0 0 0)
(0 1.24043e-14 0 2.71051e-14 4.09709e-15 0 0 0 0)
(7.04731e-13 -1.02351e-12 0 -5.42101e-14 -1.04324e-11 0 0 0 0)
(-1.0842e-12 1.21363e-12 0 1.0842e-13 2.19446e-12 0 0 0 0)
(2.98156e-13 -2.59515e-13 0 5.42101e-14 -5.03876e-13 0 0 0 0)
(-8.13152e-14 6.34382e-14 0 5.42101e-14 1.26174e-13 0 0 0 0)
(5.42101e-14 -2.32265e-14 0 1.0842e-13 -3.42711e-14 0 0 0 0)
(2.71051e-14 6.96822e-15 0 5.42101e-14 -5.58485e-15 0 0 0 0)
(0 1.32274e-14 0 2.71051e-14 -2.50834e-14 0 0 0 0)
(0 4.21572e-15 0 2.71051e-14 -2.41208e-14 0 0 0 0)
(1.0842e-13 -2.42802e-15 0 5.42101e-14 -4.08878e-14 0 0 0 0)
(0 3.65771e-15 0 2.71051e-14 -1.6011e-14 0 0 0 0)
(0 6.1979e-15 0 0 3.87033e-15 0 0 0 0)
(0 6.6029e-15 0 -2.71051e-14 9.44925e-15 0 0 0 0)
(0 9.44978e-15 0 -5.42101e-14 1.08837e-14 0 0 0 0)
(0 7.28357e-15 0 -8.13152e-14 1.82936e-15 0 0 0 0)
(0 -2.90898e-15 0 -5.42101e-14 1.71893e-15 0 0 0 0)
(0 -8.03026e-15 0 2.71051e-14 1.20871e-14 0 0 0 0)
(-2.71051e-14 -4.11191e-15 0 -2.71051e-14 9.21876e-15 0 0 0 0)
(-2.71051e-14 -1.02088e-14 0 0 2.26755e-15 0 0 0 0)
(2.71051e-14 -9.2515e-15 0 2.71051e-14 3.02619e-15 0 0 0 0)
(-2.71051e-14 8.51818e-15 0 0 1.06901e-14 0 0 0 0)
(-9.21572e-13 -3.62338e-12 0 2.71051e-13 9.66478e-12 0 0 0 0)
(1.38236e-12 4.35098e-12 0 1.35525e-13 -2.02917e-12 0 0 0 0)
(-3.52366e-13 -8.80101e-13 0 8.13152e-14 5.02236e-13 0 0 0 0)
(5.42101e-14 1.99155e-13 0 5.42101e-14 -9.34362e-14 0 0 0 0)
(-2.71051e-14 -5.9159e-14 0 2.71051e-14 2.83703e-14 0 0 0 0)
(-2.71051e-14 4.05666e-16 0 0 -4.8565e-15 0 0 0 0)
(0 -7.77749e-15 0 0 -7.13646e-15 0 0 0 0)
(2.71051e-14 -9.84851e-15 0 2.71051e-14 -4.90781e-15 0 0 0 0)
(-5.42101e-14 9.01396e-15 0 0 6.06862e-15 0 0 0 0)
(-2.71051e-14 2.85424e-14 0 -2.71051e-14 2.66344e-14 0 0 0 0)
(0 1.16516e-14 0 0 2.43699e-14 0 0 0 0)
(-1.0842e-13 -3.65602e-16 0 -2.71051e-14 1.73288e-14 0 0 0 0)
(-2.71051e-14 -4.65914e-15 0 0 1.09399e-14 0 0 0 0)
(0 -4.3646e-15 0 5.42101e-14 -8.09973e-15 0 0 0 0)
(8.13152e-14 -2.15108e-15 0 0 -1.67924e-14 0 0 0 0)
(0 -1.93161e-15 0 -2.71051e-14 -3.75638e-15 0 0 0 0)
(-5.42101e-14 -2.63214e-15 0 0 9.08672e-16 0 0 0 0)
(5.42101e-14 -3.77952e-15 0 0 1.82903e-15 0 0 0 0)
(0 1.70996e-15 0 -2.71051e-14 1.05725e-14 0 0 0 0)
(0 -1.3119e-15 0 -2.71051e-14 1.27567e-14 0 0 0 0)
(1.13841e-12 6.6121e-12 0 8.67362e-13 5.29198e-13 0 0 0 0)
(-1.27394e-12 -7.94891e-12 0 -4.87891e-13 -4.62115e-14 0 0 0 0)
(1.89735e-13 1.67622e-12 0 -1.35525e-13 1.54065e-14 0 0 0 0)
(-1.0842e-13 -4.10428e-13 0 -1.0842e-13 -1.09158e-15 0 0 0 0)
(5.42101e-14 6.53532e-14 0 -1.35525e-13 -1.45054e-15 0 0 0 0)
(0 -2.85385e-14 0 -5.42101e-14 -5.53093e-16 0 0 0 0)
(2.71051e-14 1.31761e-14 0 -1.0842e-13 1.46673e-14 0 0 0 0)
(2.71051e-14 1.74208e-14 0 -1.35525e-13 1.27812e-14 0 0 0 0)
(-2.71051e-14 2.91142e-14 0 -1.35525e-13 2.25772e-14 0 0 0 0)
(2.71051e-14 2.1959e-14 0 -1.35525e-13 6.91547e-15 0 0 0 0)
(-2.71051e-14 -3.10767e-15 0 -1.0842e-13 -1.01519e-14 0 0 0 0)
(2.71051e-14 -6.82709e-15 0 -5.42101e-14 -1.78294e-14 0 0 0 0)
(5.42101e-14 -1.59788e-14 0 -5.42101e-14 -7.65759e-15 0 0 0 0)
(-2.71051e-14 -2.04488e-14 0 0 4.4211e-16 0 0 0 0)
(-2.71051e-14 1.43437e-15 0 0 4.20285e-15 0 0 0 0)
(0 9.67085e-15 0 -2.71051e-14 1.71831e-15 0 0 0 0)
(-2.71051e-14 1.4735e-15 0 -5.42101e-14 -6.56979e-16 0 0 0 0)
(-2.71051e-14 -5.45011e-16 0 -5.42101e-14 -1.56671e-15 0 0 0 0)
(2.71051e-14 1.67619e-15 0 0 5.86559e-15 0 0 0 0)
(-2.71051e-14 -1.4811e-14 0 2.71051e-14 2.09836e-15 0 0 0 0)
(-5.42101e-13 -3.14039e-12 0 -1.70762e-12 -1.23658e-11 0 0 0 0)
(4.06576e-13 3.83719e-12 0 2.98156e-13 2.57008e-12 0 0 0 0)
(0 -8.34981e-13 0 -1.89735e-13 -6.41524e-13 0 0 0 0)
(8.13152e-14 1.82298e-13 0 -2.71051e-14 1.06284e-13 0 0 0 0)
(0 -5.86205e-14 0 0 -3.42066e-14 0 0 0 0)
(0 1.65235e-14 0 -5.42101e-14 2.36734e-14 0 0 0 0)
(-2.71051e-14 5.55681e-15 0 0 2.35153e-14 0 0 0 0)
(-5.42101e-14 -1.93864e-15 0 0 8.42867e-15 0 0 0 0)
(-5.42101e-14 3.14822e-15 0 2.71051e-14 3.50072e-16 0 0 0 0)
(5.42101e-14 -4.18665e-15 0 2.71051e-14 -2.46106e-14 0 0 0 0)
(5.42101e-14 -1.30933e-14 0 8.13152e-14 -2.8473e-14 0 0 0 0)
(-5.42101e-14 2.12868e-15 0 0 -2.83876e-14 0 0 0 0)
(5.42101e-14 1.36124e-14 0 5.42101e-14 -3.21576e-14 0 0 0 0)
(2.71051e-14 7.49584e-15 0 -5.42101e-14 2.0682e-15 0 0 0 0)
(0 -8.74883e-16 0 0 9.70755e-15 0 0 0 0)
(-2.71051e-14 -6.79144e-15 0 0 -2.15759e-15 0 0 0 0)
(0 -5.91716e-15 0 0 -9.99366e-15 0 0 0 0)
(8.13152e-14 2.74305e-15 0 5.42101e-14 -8.04111e-15 0 0 0 0)
(0 5.37503e-15 0 0 -3.72178e-15 0 0 0 0)
(0 -9.27585e-15 0 -2.71051e-14 -1.01798e-14 0 0 0 0)
(-2.98156e-13 -3.18366e-12 0 5.42101e-14 1.2334e-11 0 0 0 0)
(2.98156e-13 3.77541e-12 0 1.35525e-13 -2.72563e-12 0 0 0 0)
(-8.13152e-14 -7.87583e-13 0 1.0842e-13 5.69829e-13 0 0 0 0)
(0 1.9689e-13 0 8.13152e-14 -1.84668e-13 0 0 0 0)
(2.71051e-14 -1.72575e-14 0 1.0842e-13 1.30289e-15 0 0 0 0)
(-2.71051e-14 2.91835e-14 0 0 -2.0892e-14 0 0 0 0)
(8.13152e-14 -2.06866e-15 0 8.13152e-14 -2.29647e-14 0 0 0 0)
(5.42101e-14 -5.74446e-15 0 1.0842e-13 -1.62911e-14 0 0 0 0)
(2.71051e-14 -3.92505e-15 0 1.0842e-13 -7.23882e-15 0 0 0 0)
(2.71051e-14 -6.86408e-15 0 1.0842e-13 -5.9375e-15 0 0 0 0)
(0 -6.88467e-15 0 8.13152e-14 6.59256e-15 0 0 0 0)
(-2.71051e-14 -1.05117e-14 0 1.6263e-13 2.4341e-14 0 0 0 0)
(-2.71051e-14 1.4477e-14 0 5.42101e-14 1.27875e-14 0 0 0 0)
(-2.71051e-14 2.14163e-14 0 5.42101e-14 5.8422e-15 0 0 0 0)
(2.71051e-14 -2.79142e-15 0 2.71051e-14 -7.83233e-15 0 0 0 0)
(0 -1.00304e-14 0 2.71051e-14 -7.80886e-15 0 0 0 0)
(0 -4.41001e-15 0 8.13152e-14 -3.24481e-16 0 0 0 0)
(-2.71051e-14 5.72687e-15 0 2.71051e-14 1.02538e-14 0 0 0 0)
(-2.71051e-14 -4.62481e-16 0 2.71051e-14 4.66461e-15 0 0 0 0)
(0 -9.09483e-16 0 0 -5.50831e-15 0 0 0 0)
(-3.52366e-13 6.46798e-12 0 8.13152e-13 -2.93109e-12 0 0 0 0)
(4.06576e-13 -7.92698e-12 0 -1.35525e-13 6.05691e-13 0 0 0 0)
(-2.71051e-14 1.70598e-12 0 1.0842e-13 -1.25537e-13 0 0 0 0)
(2.71051e-14 -3.86228e-13 0 5.42101e-14 3.97307e-14 0 0 0 0)
(0 1.05155e-13 0 0 -6.41433e-15 0 0 0 0)
(0 -7.74408e-15 0 8.13152e-14 -1.36176e-14 0 0 0 0)
(0 1.01577e-14 0 2.71051e-14 -2.03813e-14 0 0 0 0)
(-2.71051e-14 1.37873e-14 0 0 -7.10695e-15 0 0 0 0)
(2.71051e-14 1.35018e-14 0 -1.0842e-13 -2.07276e-14 0 0 0 0)
(0 9.64473e-15 0 -5.42101e-14 -1.9447e-14 0 0 0 0)
(2.71051e-14 1.71852e-14 0 -5.42101e-14 -6.22184e-15 0 0 0 0)
(-2.71051e-14 8.32361e-15 0 -5.42101e-14 2.7246e-14 0 0 0 0)
(-5.42101e-14 -4.88643e-15 0 -2.71051e-14 3.3448e-14 0 0 0 0)
(0 -1.3124e-14 0 0 2.05763e-16 0 0 0 0)
(0 -1.45259e-14 0 2.71051e-14 -3.12385e-15 0 0 0 0)
(0 7.16404e-16 0 -2.71051e-14 -3.34294e-15 0 0 0 0)
(0 1.21455e-14 0 -2.71051e-14 5.05625e-15 0 0 0 0)
(2.71051e-14 7.73214e-15 0 -2.71051e-14 9.43254e-15 0 0 0 0)
(0 -1.03871e-14 0 0 4.70647e-15 0 0 0 0)
(-2.71051e-14 -8.43215e-15 0 2.71051e-14 5.39141e-15 0 0 0 0)
(4.06576e-13 -5.50906e-12 0 2.00577e-12 -3.79009e-12 0 0 0 0)
(-4.60786e-13 6.58096e-12 0 -2.1684e-13 9.11272e-13 0 0 0 0)
(1.0842e-13 -1.35354e-12 0 2.1684e-13 -1.73185e-13 0 0 0 0)
(0 3.16012e-13 0 0 6.76785e-14 0 0 0 0)
(-2.71051e-14 -7.06058e-14 0 2.71051e-14 1.10915e-14 0 0 0 0)
(0 1.52164e-14 0 0 2.32336e-14 0 0 0 0)
(2.71051e-14 4.44201e-15 0 0 3.24585e-14 0 0 0 0)
(-1.0842e-13 -6.09074e-15 0 -2.71051e-14 3.21983e-14 0 0 0 0)
(0 -1.62651e-14 0 0 2.36846e-15 0 0 0 0)
(5.42101e-14 7.6417e-15 0 -8.13152e-14 -1.30212e-14 0 0 0 0)
(0 3.98084e-14 0 -1.0842e-13 -1.74826e-14 0 0 0 0)
(2.71051e-14 2.91582e-14 0 -1.0842e-13 -9.37724e-15 0 0 0 0)
(2.71051e-14 -1.25633e-14 0 -8.13152e-14 7.22227e-15 0 0 0 0)
(0 -1.51555e-14 0 -5.42101e-14 -4.60488e-15 0 0 0 0)
(0 -6.34012e-15 0 -5.42101e-14 7.39289e-15 0 0 0 0)
(-5.42101e-14 -1.85026e-15 0 0 1.68737e-14 0 0 0 0)
(-5.42101e-14 8.36547e-15 0 -8.13152e-14 6.18742e-15 0 0 0 0)
(5.42101e-14 5.37709e-15 0 0 -1.13588e-14 0 0 0 0)
(2.71051e-14 -4.50361e-15 0 -2.71051e-14 -2.79772e-15 0 0 0 0)
(-2.71051e-14 -1.10074e-14 0 0 1.12071e-14 0 0 0 0)
(1.40946e-12 3.58916e-12 0 -1.97867e-12 5.8939e-12 0 0 0 0)
(-1.35525e-12 -4.31008e-12 0 2.1684e-13 -1.11611e-12 0 0 0 0)
(1.6263e-13 8.62385e-13 0 -2.98156e-13 2.81532e-13 0 0 0 0)
(-1.35525e-13 -2.01951e-13 0 -1.0842e-13 -5.14025e-14 0 0 0 0)
(2.71051e-14 6.07103e-14 0 -8.13152e-14 2.00497e-14 0 0 0 0)
(-5.42101e-14 1.36229e-14 0 -8.13152e-14 1.46104e-14 0 0 0 0)
(-5.42101e-14 1.91223e-14 0 -1.0842e-13 1.89763e-14 0 0 0 0)
(0 -1.63027e-14 0 -2.71051e-14 1.77831e-14 0 0 0 0)
(-5.42101e-14 -3.17177e-14 0 5.42101e-14 3.60695e-14 0 0 0 0)
(-2.71051e-14 -1.02064e-14 0 0 3.49695e-14 0 0 0 0)
(-5.42101e-14 2.08292e-14 0 -8.13152e-14 1.737e-14 0 0 0 0)
(5.42101e-14 3.30285e-14 0 -2.71051e-14 -1.56344e-14 0 0 0 0)
(-5.42101e-14 -1.14072e-16 0 -8.13152e-14 -7.11339e-15 0 0 0 0)
(0 -1.29534e-14 0 -2.71051e-14 -7.28637e-15 0 0 0 0)
(8.13152e-14 6.95265e-15 0 -5.42101e-14 -1.60256e-14 0 0 0 0)
(0 -4.89059e-16 0 -8.13152e-14 -4.28688e-15 0 0 0 0)
(0 -1.6087e-14 0 0 -1.09879e-14 0 0 0 0)
(5.42101e-14 -1.253e-15 0 0 -2.38865e-14 0 0 0 0)
(2.71051e-14 1.21788e-14 0 -5.42101e-14 -1.27454e-14 0 0 0 0)
(-2.71051e-14 -1.68415e-14 0 -2.71051e-14 -1.88553e-15 0 0 0 0)
(-1.38236e-12 -7.3127e-13 0 -1.92446e-12 -8.98616e-12 0 0 0 0)
(1.30104e-12 9.68593e-13 0 2.98156e-13 1.78911e-12 0 0 0 0)
(-2.1684e-13 -2.88833e-13 0 -1.6263e-13 -4.0095e-13 0 0 0 0)
(1.0842e-13 5.45298e-14 0 -2.71051e-14 9.85687e-14 0 0 0 0)
(5.42101e-14 -4.59295e-15 0 -1.35525e-13 -2.24644e-14 0 0 0 0)
(0 1.41431e-14 0 -2.71051e-14 -1.70865e-14 0 0 0 0)
(5.42101e-14 7.61467e-15 0 0 -3.62031e-14 0 0 0 0)
(2.71051e-14 1.10024e-14 0 -5.42101e-14 -2.09192e-14 0 0 0 0)
(-2.71051e-14 9.21295e-16 0 -5.42101e-14 9.17201e-15 0 0 0 0)
(0 -1.10578e-14 0 2.71051e-14 1.73141e-14 0 0 0 0)
(0 -1.07955e-14 0 8.13152e-14 2.39071e-14 0 0 0 0)
(-5.42101e-14 4.67485e-15 0 8.13152e-14 2.25317e-15 0 0 0 0)
(5.42101e-14 -4.21526e-15 0 8.13152e-14 -2.92433e-14 0 0 0 0)
(2.71051e-14 -2.40678e-14 0 1.35525e-13 -1.75635e-14 0 0 0 0)
(-2.71051e-14 -3.34063e-15 0 1.0842e-13 -9.85914e-15 0 0 0 0)
(2.71051e-14 3.18744e-15 0 8.13152e-14 -1.37319e-14 0 0 0 0)
(0 -1.12341e-14 0 1.0842e-13 -6.49717e-15 0 0 0 0)
(-2.71051e-14 3.61968e-15 0 2.71051e-14 1.79494e-15 0 0 0 0)
(2.71051e-14 1.74973e-14 0 0 -1.83456e-14 0 0 0 0)
(5.42101e-14 3.62353e-15 0 0 -2.04113e-14 0 0 0 0)
(-2.1684e-13 -3.60789e-12 0 2.52077e-12 1.0566e-11 0 0 0 0)
(4.06576e-13 4.27513e-12 0 -3.79471e-13 -2.32196e-12 0 0 0 0)
(-1.6263e-13 -8.28152e-13 0 3.25261e-13 5.30689e-13 0 0 0 0)
(-8.13152e-14 1.76534e-13 0 8.13152e-14 -9.69924e-14 0 0 0 0)
(0 -5.49449e-14 0 1.35525e-13 2.8678e-14 0 0 0 0)
(0 -1.15719e-16 0 0 -1.76822e-14 0 0 0 0)
(5.42101e-14 1.52897e-14 0 -2.71051e-14 -1.81572e-14 0 0 0 0)
(0 2.90723e-14 0 -2.71051e-14 -2.13278e-14 0 0 0 0)
(2.71051e-14 6.51556e-15 0 0 -2.345e-14 0 0 0 0)
(2.71051e-14 4.52874e-15 0 5.42101e-14 -2.13846e-14 0 0 0 0)
(2.71051e-14 5.76828e-15 0 5.42101e-14 -1.35578e-14 0 0 0 0)
(2.71051e-14 -2.01219e-14 0 0 -1.81487e-14 0 0 0 0)
(5.42101e-14 -1.99308e-14 0 1.0842e-13 -3.51653e-14 0 0 0 0)
(0 6.4308e-15 0 2.71051e-14 -4.51348e-15 0 0 0 0)
(-5.42101e-14 1.07843e-14 0 0 2.70166e-14 0 0 0 0)
(-2.71051e-14 2.87291e-15 0 5.42101e-14 1.00452e-14 0 0 0 0)
(0 -5.6022e-16 0 2.71051e-14 1.1638e-14 0 0 0 0)
(-2.71051e-14 -1.31015e-14 0 2.71051e-14 2.57162e-14 0 0 0 0)
(-2.71051e-14 -1.00274e-14 0 1.0842e-13 1.30268e-14 0 0 0 0)
(-2.71051e-14 2.19154e-14 0 2.71051e-14 -2.53282e-16 0 0 0 0)
(7.86047e-13 7.51278e-12 0 2.71051e-14 -3.51986e-12 0 0 0 0)
(-9.21572e-13 -9.06673e-12 0 -1.89735e-13 8.9655e-13 0 0 0 0)
(2.1684e-13 1.93614e-12 0 -1.0842e-13 -2.06186e-13 0 0 0 0)
(-8.13152e-14 -4.47481e-13 0 2.71051e-14 6.60496e-14 0 0 0 0)
(-5.42101e-14 7.47172e-14 0 2.71051e-14 1.28656e-14 0 0 0 0)
(-2.71051e-14 -3.26922e-14 0 8.13152e-14 1.81143e-14 0 0 0 0)
(-5.42101e-14 3.96908e-15 0 2.71051e-14 3.33517e-15 0 0 0 0)
(5.42101e-14 5.70965e-15 0 8.13152e-14 -2.34795e-14 0 0 0 0)
(2.71051e-14 8.64426e-16 0 5.42101e-14 -2.07426e-14 0 0 0 0)
(0 -1.16562e-15 0 0 -5.27723e-15 0 0 0 0)
(-2.71051e-14 -7.55956e-15 0 0 -1.27876e-14 0 0 0 0)
(2.71051e-14 -1.69327e-14 0 0 -2.12346e-14 0 0 0 0)
(5.42101e-14 9.41998e-15 0 -5.42101e-14 1.98695e-16 0 0 0 0)
(0 3.81142e-14 0 -8.13152e-14 1.16661e-14 0 0 0 0)
(0 1.1218e-14 0 -5.42101e-14 9.63186e-15 0 0 0 0)
(2.71051e-14 -1.21911e-14 0 -2.71051e-14 6.85556e-15 0 0 0 0)
(-2.71051e-14 4.43691e-15 0 -5.42101e-14 -2.8661e-15 0 0 0 0)
(5.42101e-14 5.00842e-15 0 -5.42101e-14 -3.10227e-15 0 0 0 0)
(0 -8.4722e-15 0 -2.71051e-14 2.06477e-14 0 0 0 0)
(-5.42101e-14 -9.14998e-15 0 0 1.79615e-14 0 0 0 0)
(-3.52366e-13 -6.2312e-12 0 -2.27682e-12 -1.00214e-11 0 0 0 0)
(2.1684e-13 7.58881e-12 0 5.69206e-13 2.00692e-12 0 0 0 0)
(5.42101e-14 -1.65865e-12 0 -8.13152e-14 -4.92755e-13 0 0 0 0)
(1.35525e-13 3.95586e-13 0 0 4.94095e-14 0 0 0 0)
(0 -1.0288e-13 0 2.71051e-14 -4.53499e-14 0 0 0 0)
(2.71051e-14 -9.64614e-15 0 5.42101e-14 3.29944e-15 0 0 0 0)
(0 -2.63041e-14 0 1.0842e-13 1.95495e-14 0 0 0 0)
(-2.71051e-14 4.99457e-15 0 5.42101e-14 1.89913e-14 0 0 0 0)
(0 2.47179e-14 0 2.71051e-14 1.26524e-14 0 0 0 0)
(0 1.24837e-14 0 0 1.21284e-14 0 0 0 0)
(0 -1.01891e-14 0 0 7.55739e-15 0 0 0 0)
(0 -7.13559e-15 0 0 1.88282e-14 0 0 0 0)
(-5.42101e-14 1.29699e-14 0 -5.42101e-14 2.70218e-14 0 0 0 0)
(0 1.5864e-14 0 -8.13152e-14 -8.02244e-16 0 0 0 0)
(2.71051e-14 5.97376e-15 0 -5.42101e-14 -2.90607e-14 0 0 0 0)
(-2.71051e-14 -9.62505e-15 0 -2.71051e-14 -1.30384e-14 0 0 0 0)
(-5.42101e-14 -1.05181e-14 0 0 -4.00549e-15 0 0 0 0)
(5.42101e-14 1.04124e-14 0 0 -9.09565e-15 0 0 0 0)
(0 1.10363e-14 0 -2.71051e-14 -2.2607e-15 0 0 0 0)
(0 -1.66938e-14 0 -2.71051e-14 5.17352e-15 0 0 0 0)
(-9.75782e-13 -5.01689e-13 0 1.0571e-12 1.67586e-11 0 0 0 0)
(1.27394e-12 4.61901e-13 0 -1.6263e-13 -3.60362e-12 0 0 0 0)
(-2.98156e-13 -2.13709e-14 0 1.35525e-13 8.0192e-13 0 0 0 0)
(2.71051e-14 -7.60493e-17 0 -2.71051e-14 -2.25027e-13 0 0 0 0)
(2.71051e-14 2.86072e-14 0 -2.71051e-14 7.6262e-15 0 0 0 0)
(0 3.22072e-14 0 -5.42101e-14 -4.59473e-15 0 0 0 0)
(-2.71051e-14 1.96609e-14 0 -1.0842e-13 3.04351e-14 0 0 0 0)
(-2.71051e-14 -1.18745e-15 0 -5.42101e-14 2.37398e-14 0 0 0 0)
(-5.42101e-14 -5.99845e-15 0 -2.71051e-14 2.60595e-15 0 0 0 0)
(-2.71051e-14 -6.26068e-15 0 0 -9.26766e-15 0 0 0 0)
(0 -8.5973e-16 0 0 -1.3603e-15 0 0 0 0)
(0 2.5317e-15 0 0 1.90897e-14 0 0 0 0)
(0 -1.02105e-14 0 0 1.43289e-14 0 0 0 0)
(0 -1.79683e-14 0 2.71051e-14 -1.52181e-15 0 0 0 0)
(0 -1.01813e-15 0 0 -1.25592e-14 0 0 0 0)
(8.13152e-14 1.28641e-14 0 0 -2.20137e-14 0 0 0 0)
(2.71051e-14 8.37968e-15 0 -5.42101e-14 1.25281e-15 0 0 0 0)
(0 6.75322e-15 0 0 7.72919e-15 0 0 0 0)
(-2.71051e-14 5.79697e-15 0 0 -9.42288e-15 0 0 0 0)
(0 -1.20628e-14 0 0 -8.025e-15 0 0 0 0)
(5.69206e-13 6.92377e-12 0 2.76472e-12 -4.7284e-12 0 0 0 0)
(-7.04731e-13 -8.36786e-12 0 -6.77626e-13 1.15297e-12 0 0 0 0)
(1.89735e-13 1.71994e-12 0 0 -2.46144e-13 0 0 0 0)
(-5.42101e-14 -3.98708e-13 0 0 8.89206e-14 0 0 0 0)
(-5.42101e-14 1.17552e-13 0 -8.13152e-14 1.24723e-14 0 0 0 0)
(-2.71051e-14 1.31628e-14 0 -8.13152e-14 8.72885e-15 0 0 0 0)
(2.71051e-14 2.03037e-15 0 0 -2.1599e-14 0 0 0 0)
(0 -2.28346e-14 0 0 -2.9416e-14 0 0 0 0)
(8.13152e-14 -8.28954e-15 0 0 -2.16698e-14 0 0 0 0)
(5.42101e-14 8.51746e-15 0 0 -8.81088e-15 0 0 0 0)
(-2.71051e-14 1.81683e-14 0 0 7.63909e-15 0 0 0 0)
(0 8.55359e-15 0 0 3.01959e-15 0 0 0 0)
(-2.71051e-14 -7.64159e-15 0 0 -7.5865e-15 0 0 0 0)
(2.71051e-14 -1.10241e-14 0 5.42101e-14 4.76476e-15 0 0 0 0)
(-2.71051e-14 -1.45181e-14 0 0 1.43989e-14 0 0 0 0)
(-8.13152e-14 4.18696e-15 0 0 9.45641e-15 0 0 0 0)
(-2.71051e-14 1.92248e-14 0 0 -6.5871e-16 0 0 0 0)
(0 -2.63318e-16 0 -5.42101e-14 -7.05993e-15 0 0 0 0)
(8.13152e-14 -4.71788e-15 0 0 -1.98732e-14 0 0 0 0)
(0 7.54101e-16 0 0 -1.4458e-14 0 0 0 0)
(1.11131e-12 -4.07712e-12 0 -1.35525e-12 -1.36808e-11 0 0 0 0)
(-1.46367e-12 4.94415e-12 0 4.06576e-13 2.83329e-12 0 0 0 0)
(3.52366e-13 -1.08542e-12 0 5.42101e-14 -6.24092e-13 0 0 0 0)
(-8.13152e-14 2.5854e-13 0 5.42101e-14 1.68022e-13 0 0 0 0)
(0 -5.15846e-14 0 1.0842e-13 -1.0442e-14 0 0 0 0)
(2.71051e-14 -1.8641e-15 0 1.0842e-13 5.12967e-16 0 0 0 0)
(8.13152e-14 -1.8484e-14 0 1.0842e-13 -1.61364e-14 0 0 0 0)
(0 -1.25828e-15 0 5.42101e-14 6.81126e-15 0 0 0 0)
(-8.13152e-14 1.46067e-14 0 5.42101e-14 1.94338e-14 0 0 0 0)
(-2.71051e-14 2.30482e-14 0 0 1.5144e-14 0 0 0 0)
(0 1.09707e-14 0 5.42101e-14 4.57917e-15 0 0 0 0)
(0 -1.26939e-14 0 2.71051e-14 -1.85214e-14 0 0 0 0)
(2.71051e-14 -8.46533e-15 0 8.13152e-14 -2.21451e-14 0 0 0 0)
(-2.71051e-14 4.0171e-15 0 2.71051e-14 -9.9788e-15 0 0 0 0)
(2.71051e-14 3.67353e-15 0 5.42101e-14 -4.36578e-15 0 0 0 0)
(0 -2.19353e-15 0 2.71051e-14 1.02323e-14 0 0 0 0)
(5.42101e-14 -8.13667e-15 0 8.13152e-14 -7.08809e-15 0 0 0 0)
(2.71051e-14 -1.24613e-14 0 5.42101e-14 -1.15176e-14 0 0 0 0)
(-2.71051e-14 -1.60111e-15 0 5.42101e-14 -6.88151e-15 0 0 0 0)
(0 2.22684e-14 0 2.71051e-14 -4.88586e-15 0 0 0 0)
(-3.52366e-13 -3.92371e-12 0 -8.67362e-13 1.01289e-11 0 0 0 0)
(6.77626e-13 4.68881e-12 0 1.35525e-13 -2.12808e-12 0 0 0 0)
(-1.35525e-13 -9.45326e-13 0 -1.0842e-13 4.95942e-13 0 0 0 0)
(-2.71051e-14 2.14943e-13 0 -5.42101e-14 -9.73363e-14 0 0 0 0)
(0 -4.99575e-14 0 -5.42101e-14 2.24589e-14 0 0 0 0)
(-2.71051e-14 7.46833e-15 0 -2.71051e-14 4.20578e-15 0 0 0 0)
(-2.71051e-14 8.32866e-15 0 -5.42101e-14 1.68547e-14 0 0 0 0)
(-2.71051e-14 1.27356e-14 0 -5.42101e-14 1.43611e-14 0 0 0 0)
(0 4.31989e-17 0 -5.42101e-14 5.37741e-15 0 0 0 0)
(2.71051e-14 -6.33717e-15 0 0 -2.88807e-16 0 0 0 0)
(8.13152e-14 -1.54972e-14 0 -5.42101e-14 -1.13336e-14 0 0 0 0)
(-5.42101e-14 -1.81707e-14 0 -2.71051e-14 4.2376e-15 0 0 0 0)
(-2.71051e-14 9.01034e-16 0 -2.71051e-14 1.95309e-14 0 0 0 0)
(-2.71051e-14 6.75522e-15 0 -2.71051e-14 1.18019e-14 0 0 0 0)
(0 5.69298e-15 0 0 8.75862e-15 0 0 0 0)
(0 1.46464e-15 0 -2.71051e-14 2.43539e-15 0 0 0 0)
(-2.71051e-14 -2.52504e-15 0 -2.71051e-14 9.4875e-15 0 0 0 0)
(-2.71051e-14 -5.67399e-17 0 0 1.30971e-14 0 0 0 0)
(2.71051e-14 1.91383e-15 0 -5.42101e-14 2.20055e-14 0 0 0 0)
(-5.42101e-14 1.25215e-14 0 -2.71051e-14 1.27844e-14 0 0 0 0)
)
;

boundaryField
{
    movingWall
    {
        type            extrapolatedCalculated;
        value           nonuniform List<tensor> 
20
(
(-3.52366e-13 -3.92371e-12 0 2.39808e-12 1.96612e-11 0 0 0 0)
(6.77626e-13 4.68881e-12 0 -9.32587e-13 -3.9664e-12 0 0 0 0)
(-1.35525e-13 -9.45326e-13 0 -3.9968e-13 9.05989e-13 0 0 0 0)
(-2.71051e-14 2.14943e-13 0 -2.66454e-13 -1.85094e-13 0 0 0 0)
(0 -4.99575e-14 0 -3.55271e-13 4.62167e-14 0 0 0 0)
(-2.71051e-14 7.46833e-15 0 -2.66454e-13 1.4736e-14 0 0 0 0)
(-2.71051e-14 8.32866e-15 0 -2.22045e-13 1.63434e-14 0 0 0 0)
(-2.71051e-14 1.27356e-14 0 -2.22045e-13 -1.85787e-14 0 0 0 0)
(0 4.31989e-17 0 -1.77636e-13 -3.4599e-14 0 0 0 0)
(2.71051e-14 -6.33717e-15 0 -1.77636e-13 -1.87514e-14 0 0 0 0)
(8.13152e-14 -1.54972e-14 0 -3.10862e-13 -9.25031e-15 0 0 0 0)
(-5.42101e-14 -1.81707e-14 0 -3.55271e-13 4.32372e-14 0 0 0 0)
(-2.71051e-14 9.01034e-16 0 -1.77636e-13 6.34325e-14 0 0 0 0)
(-2.71051e-14 6.75522e-15 0 -2.22045e-13 3.9633e-14 0 0 0 0)
(0 5.69298e-15 0 -1.77636e-13 3.64116e-14 0 0 0 0)
(0 1.46464e-15 0 -1.77636e-13 1.68611e-14 0 0 0 0)
(-2.71051e-14 -2.52504e-15 0 -1.77636e-13 3.0553e-14 0 0 0 0)
(-2.71051e-14 -5.67399e-17 0 0 2.69613e-14 0 0 0 0)
(2.71051e-14 1.91383e-15 0 -8.88178e-14 3.078e-14 0 0 0 0)
(-5.42101e-14 1.25215e-14 0 -8.88178e-14 1.93059e-14 0 0 0 0)
)
;
    }
    fixedWalls
    {
        type            extrapolatedCalculated;
        value           nonuniform List<tensor> 
60
(
(-3.73035e-12 4.74147e-11 0 6.50521e-13 1.28338e-11 0 0 0 0)
(6.30607e-12 3.92064e-12 0 7.86047e-13 -2.0477e-11 0 0 0 0)
(-5.32907e-13 -3.44934e-11 0 -2.90024e-12 4.89201e-12 0 0 0 0)
(-5.32907e-12 2.34887e-11 0 1.24683e-12 7.33178e-12 0 0 0 0)
(4.44089e-12 -5.16629e-12 0 -5.42101e-14 -1.04324e-11 0 0 0 0)
(-5.41789e-12 -1.82409e-11 0 2.71051e-13 9.66478e-12 0 0 0 0)
(5.4623e-12 3.34928e-11 0 8.67362e-13 5.29198e-13 0 0 0 0)
(-1.95399e-12 -1.61241e-11 0 -1.70762e-12 -1.23658e-11 0 0 0 0)
(-1.42109e-12 -1.59706e-11 0 5.42101e-14 1.2334e-11 0 0 0 0)
(-1.86517e-12 3.32119e-11 0 8.13152e-13 -2.93109e-12 0 0 0 0)
(1.95399e-12 -2.76949e-11 0 2.00577e-12 -3.79009e-12 0 0 0 0)
(6.21725e-12 1.80515e-11 0 -1.97867e-12 5.8939e-12 0 0 0 0)
(-6.03961e-12 -4.11931e-12 0 -1.92446e-12 -8.98616e-12 0 0 0 0)
(-1.5099e-12 -1.78931e-11 0 2.52077e-12 1.0566e-11 0 0 0 0)
(4.04121e-12 3.81447e-11 0 2.71051e-14 -3.51986e-12 0 0 0 0)
(-1.33227e-12 -3.19725e-11 0 -2.27682e-12 -1.00214e-11 0 0 0 0)
(-5.06262e-12 -1.94081e-12 0 1.0571e-12 1.67586e-11 0 0 0 0)
(3.01981e-12 3.50618e-11 0 2.76472e-12 -4.7284e-12 0 0 0 0)
(5.86198e-12 -2.08544e-11 0 -1.35525e-12 -1.36808e-11 0 0 0 0)
(-2.39808e-12 -1.96612e-11 0 -8.67362e-13 1.01289e-11 0 0 0 0)
(-4.44089e-14 -1.97419e-14 0 0 5.07643e-15 0 0 0 0)
(8.88178e-14 -5.63829e-16 0 0 -1.35355e-14 0 0 0 0)
(0 3.44001e-14 0 0 -8.09392e-15 0 0 0 0)
(0 3.18118e-14 0 2.71051e-14 4.09709e-15 0 0 0 0)
(-8.88178e-14 1.80117e-14 0 0 1.06901e-14 0 0 0 0)
(0 -1.09484e-14 0 -2.71051e-14 1.27567e-14 0 0 0 0)
(-4.44089e-14 -3.30152e-14 0 2.71051e-14 2.09836e-15 0 0 0 0)
(0 -1.93418e-14 0 -2.71051e-14 -1.01798e-14 0 0 0 0)
(0 7.70395e-15 0 0 -5.50831e-15 0 0 0 0)
(0 2.69144e-15 0 2.71051e-14 5.39141e-15 0 0 0 0)
(-8.88178e-14 -1.38617e-14 0 0 1.12071e-14 0 0 0 0)
(-4.44089e-14 -4.2137e-14 0 -2.71051e-14 -1.88553e-15 0 0 0 0)
(8.88178e-14 -6.31956e-15 0 0 -2.04113e-14 0 0 0 0)
(-4.44089e-14 3.95084e-14 0 2.71051e-14 -2.53282e-16 0 0 0 0)
(-8.88178e-14 -5.30643e-15 0 0 1.79615e-14 0 0 0 0)
(0 -3.23375e-14 0 -2.71051e-14 5.17352e-15 0 0 0 0)
(0 -2.60005e-14 0 0 -8.025e-15 0 0 0 0)
(-4.44089e-14 -2.37512e-16 0 0 -1.4458e-14 0 0 0 0)
(0 3.18315e-14 0 2.71051e-14 -4.88586e-15 0 0 0 0)
(-8.88178e-14 1.93059e-14 0 -2.71051e-14 1.27844e-14 0 0 0 0)
(-4.87891e-13 9.33441e-12 0 -3.73035e-12 4.74147e-11 0 0 0 0)
(9.75782e-13 -1.12328e-11 0 1.73195e-12 -1.00771e-11 0 0 0 0)
(-3.52366e-13 2.41178e-12 0 2.22045e-13 2.48354e-12 0 0 0 0)
(-2.71051e-14 -5.73611e-13 0 2.66454e-13 -4.2994e-13 0 0 0 0)
(-5.42101e-14 1.16451e-13 0 1.33227e-13 1.89101e-13 0 0 0 0)
(2.71051e-14 -3.52331e-14 0 1.33227e-13 3.58643e-14 0 0 0 0)
(-2.71051e-14 -1.4442e-15 0 1.77636e-13 4.81686e-14 0 0 0 0)
(0 -4.95055e-15 0 8.88178e-14 3.00875e-14 0 0 0 0)
(0 -1.10639e-14 0 1.33227e-13 2.83664e-14 0 0 0 0)
(0 -1.88374e-14 0 8.88178e-14 -1.41679e-14 0 0 0 0)
(0 -5.71204e-15 0 8.88178e-14 -4.69832e-14 0 0 0 0)
(0 8.77735e-15 0 1.77636e-13 -3.70161e-14 0 0 0 0)
(0 1.43159e-14 0 8.88178e-14 -1.18738e-14 0 0 0 0)
(0 1.28015e-14 0 1.77636e-13 2.02474e-14 0 0 0 0)
(0 8.05593e-16 0 1.33227e-13 3.9332e-14 0 0 0 0)
(0 -9.48455e-15 0 1.33227e-13 2.34698e-14 0 0 0 0)
(0 -1.6081e-15 0 8.88178e-14 1.3938e-15 0 0 0 0)
(0 7.78637e-15 0 8.88178e-14 1.70374e-14 0 0 0 0)
(-2.71051e-14 6.76119e-16 0 4.44089e-14 3.25393e-14 0 0 0 0)
(-2.71051e-14 -1.30703e-14 0 4.44089e-14 1.97419e-14 0 0 0 0)
)
;
    }
    frontAndBack
    {
        type            empty;
    }
}


// ************************************************************************* //
