/*--------------------------------*- C++ -*----------------------------------*\
| =========                 |                                                 |
| \\      /  F ield         | OpenFOAM: The Open Source CFD Toolbox           |
|  \\    /   O peration     | Version:  2506                                  |
|   \\  /    A nd           | Website:  www.openfoam.com                      |
|    \\/     M anipulation  |                                                 |
\*---------------------------------------------------------------------------*/
FoamFile
{
    version     2.0;
    format      ascii;
    arch        "LSB;label=32;scalar=64";
    class       volVectorField;
    location    "8.5";
    object      gradPhi;
}
// * * * * * * * * * * * * * * * * * * * * * * * * * * * * * * * * * * * * * //

dimensions      [0 2 -1 0 0 0 0];

internalField   nonuniform List<vector> 
400
(
(-0.02 6.90614e-17 0)
(1.05879e-16 -1.05677e-16 0)
(-3.47416e-17 3.40059e-17 0)
(3.30872e-18 -3.0709e-18 0)
(-3.30872e-18 2.77869e-18 0)
(0 2.75981e-19 0)
(0 4.26256e-19 0)
(0 1.01147e-20 0)
(0 3.9553e-19 0)
(0 -1.71307e-19 0)
(0 -3.73097e-19 0)
(0 -3.35111e-19 0)
(0 -8.93255e-20 0)
(0 -4.90363e-20 0)
(0 5.86597e-19 0)
(-1.65436e-18 7.24267e-19 0)
(0 1.84076e-19 0)
(0 1.4047e-19 0)
(0 5.66296e-19 0)
(0 1.26781e-18 0)
(-0.02 -1.08603e-16 0)
(-1.65436e-16 1.64957e-16 0)
(5.12852e-17 -5.1132e-17 0)
(-4.96308e-18 5.17979e-18 0)
(4.96308e-18 -5.55925e-18 0)
(0 -1.0028e-18 0)
(1.65436e-18 -1.49348e-18 0)
(0 -7.15925e-19 0)
(0 -1.19541e-18 0)
(1.65436e-18 -6.56978e-19 0)
(-1.65436e-18 9.01391e-19 0)
(0 7.31683e-19 0)
(-1.65436e-18 1.51767e-18 0)
(0 2.20446e-19 0)
(1.65436e-18 -1.41595e-18 0)
(0 -9.23316e-19 0)
(0 2.00834e-19 0)
(0 2.72378e-19 0)
(1.65436e-18 -1.22284e-18 0)
(1.65436e-18 -2.32539e-18 0)
(-0.02 7.67334e-18 0)
(2.15067e-17 -2.21853e-17 0)
(-8.27181e-18 9.37425e-18 0)
(0 -1.21681e-18 0)
(-1.65436e-18 2.67136e-18 0)
(0 6.29062e-19 0)
(-1.65436e-18 1.94814e-18 0)
(-1.65436e-18 9.76266e-19 0)
(-1.65436e-18 8.72936e-19 0)
(0 2.03225e-18 0)
(0 -1.1809e-19 0)
(-1.65436e-18 1.35825e-19 0)
(1.65436e-18 -1.33051e-18 0)
(0 -4.28296e-19 0)
(0 3.07434e-19 0)
(0 -1.11621e-18 0)
(0 -4.88317e-19 0)
(1.65436e-18 -4.03765e-19 0)
(0 -1.57995e-19 0)
(0 9.0519e-20 0)
(-0.02 5.91403e-17 0)
(7.44463e-17 -7.52677e-17 0)
(-1.98523e-17 1.87375e-17 0)
(4.96308e-18 -3.42138e-18 0)
(0 4.83551e-19 0)
(0 -3.93307e-19 0)
(0 -7.51052e-19 0)
(0 2.15968e-20 0)
(-1.65436e-18 1.9339e-18 0)
(1.65436e-18 -7.85066e-19 0)
(0 7.44633e-20 0)
(1.65436e-18 3.4098e-20 0)
(-1.65436e-18 2.98303e-19 0)
(-1.65436e-18 1.08365e-18 0)
(0 1.10541e-18 0)
(-1.65436e-18 1.5451e-18 0)
(0 -2.09148e-19 0)
(0 3.51765e-20 0)
(0 6.32718e-19 0)
(0 2.71849e-19 0)
(-0.02 -5.94848e-17 0)
(-8.43724e-17 8.63574e-17 0)
(2.48154e-17 -2.53399e-17 0)
(-6.61744e-18 5.43907e-18 0)
(1.65436e-18 -1.80781e-18 0)
(1.65436e-18 -1.02545e-18 0)
(1.65436e-18 -1.22734e-18 0)
(0 -5.34668e-19 0)
(4.96308e-18 -3.98309e-18 0)
(0 -6.23318e-19 0)
(0 -2.29153e-19 0)
(0 -9.15336e-19 0)
(0 3.45935e-20 0)
(0 2.07414e-19 0)
(0 1.16163e-18 0)
(-1.65436e-18 5.45241e-19 0)
(0 1.12104e-18 0)
(-1.65436e-18 7.49554e-19 0)
(1.65436e-18 -3.08779e-19 0)
(-1.65436e-18 5.80408e-19 0)
(-0.02 6.64564e-17 0)
(9.42986e-17 -9.51233e-17 0)
(-2.48154e-17 2.53328e-17 0)
(4.96308e-18 -4.77089e-18 0)
(-3.30872e-18 2.24744e-18 0)
(0 1.34239e-18 0)
(-1.65436e-18 2.67257e-19 0)
(1.65436e-18 -4.59929e-19 0)
(-1.65436e-18 1.56985e-18 0)
(-1.65436e-18 1.14228e-18 0)
(-1.65436e-18 1.17433e-18 0)
(-3.30872e-18 2.89859e-18 0)
(-1.65436e-18 1.36462e-18 0)
(0 -5.68612e-19 0)
(3.30872e-18 -2.46642e-18 0)
(0 -6.01915e-19 0)
(0 -7.49026e-19 0)
(1.65436e-18 -1.00584e-18 0)
(-1.65436e-18 7.56465e-19 0)
(0 6.97364e-19 0)
(-0.02 -3.34682e-17 0)
(-3.30872e-17 3.31072e-17 0)
(0 2.82507e-19 0)
(-3.30872e-18 2.14195e-18 0)
(1.65436e-18 -1.47868e-18 0)
(3.30872e-18 -1.49731e-18 0)
(0 -3.66116e-19 0)
(0 -2.28846e-19 0)
(0 -2.03239e-19 0)
(0 5.13326e-19 0)
(0 4.92839e-19 0)
(1.65436e-18 -2.69868e-18 0)
(0 -8.80181e-19 0)
(0 2.22397e-19 0)
(-1.65436e-18 1.26917e-18 0)
(0 3.34688e-19 0)
(0 6.67345e-19 0)
(0 1.19913e-18 0)
(-1.65436e-18 6.60961e-19 0)
(0 5.84552e-19 0)
(-0.02 -3.01223e-17 0)
(-5.9557e-17 6.01543e-17 0)
(2.97785e-17 -3.12531e-17 0)
(-1.65436e-18 1.90318e-18 0)
(0 -4.35449e-19 0)
(-1.65436e-18 1.38682e-18 0)
(-1.65436e-18 2.81901e-18 0)
(-1.65436e-18 2.24705e-18 0)
(-3.30872e-18 1.8961e-18 0)
(1.65436e-18 -1.05137e-18 0)
(3.30872e-18 -2.33205e-18 0)
(0 -3.69253e-19 0)
(1.65436e-18 -1.69806e-18 0)
(0 -6.68914e-19 0)
(0 3.23161e-19 0)
(0 2.71734e-19 0)
(0 -7.28399e-19 0)
(1.65436e-18 -1.94557e-18 0)
(0 -1.06202e-18 0)
(1.65436e-18 -1.40797e-18 0)
(-0.02 5.69261e-17 0)
(7.11375e-17 -7.08146e-17 0)
(-2.64698e-17 2.71398e-17 0)
(6.61744e-18 -7.15321e-18 0)
(1.65436e-18 -8.25954e-19 0)
(0 -3.49429e-19 0)
(1.65436e-18 -2.76411e-18 0)
(4.96308e-18 -2.81567e-18 0)
(1.65436e-18 -1.62581e-18 0)
(0 -4.72716e-19 0)
(0 4.68981e-19 0)
(0 1.23512e-18 0)
(-1.65436e-18 1.69256e-19 0)
(-1.65436e-18 1.26813e-18 0)
(1.65436e-18 -4.35116e-19 0)
(0 -7.87834e-19 0)
(0 1.29421e-20 0)
(-1.65436e-18 1.86915e-18 0)
(-1.65436e-18 5.8924e-19 0)
(0 1.14946e-19 0)
(-0.02 7.58649e-19 0)
(0 -7.42938e-20 0)
(4.96308e-18 -5.45693e-18 0)
(-1.65436e-18 2.0864e-18 0)
(0 3.04186e-19 0)
(1.65436e-18 -6.10308e-19 0)
(-1.65436e-18 4.20206e-19 0)
(0 8.57101e-19 0)
(0 -9.15811e-19 0)
(0 -1.14429e-18 0)
(1.65436e-18 -5.3219e-19 0)
(-1.65436e-18 6.54679e-19 0)
(-3.30872e-18 3.16397e-18 0)
(1.65436e-18 -1.76614e-19 0)
(0 -5.28283e-19 0)
(0 -6.46327e-19 0)
(0 -3.99596e-19 0)
(1.65436e-18 -1.48632e-19 0)
(-1.65436e-18 1.16675e-18 0)
(0 1.35914e-19 0)
(-0.02 -2.33067e-17 0)
(-2.64698e-17 2.65771e-17 0)
(8.27181e-18 -8.22128e-18 0)
(-1.65436e-18 1.34329e-18 0)
(-1.65436e-18 6.20278e-19 0)
(0 3.16794e-19 0)
(0 -1.61312e-19 0)
(-1.65436e-18 1.29021e-18 0)
(-1.65436e-18 5.08322e-19 0)
(1.65436e-18 -8.22375e-19 0)
(0 -8.02518e-19 0)
(1.65436e-18 3.22398e-19 0)
(1.65436e-18 -1.44108e-18 0)
(1.65436e-18 -9.42867e-19 0)
(-3.30872e-18 1.45549e-18 0)
(-1.65436e-18 1.70262e-18 0)
(-1.65436e-18 1.20723e-18 0)
(0 -1.81187e-19 0)
(1.65436e-18 -1.59437e-18 0)
(0 6.64208e-19 0)
(-0.02 -2.45068e-17 0)
(-6.61744e-18 6.53628e-18 0)
(-1.48893e-17 1.28925e-17 0)
(0 1.33024e-18 0)
(0 3.62363e-19 0)
(-1.65436e-18 1.15769e-18 0)
(-3.30872e-18 2.97267e-18 0)
(-1.65436e-18 1.61248e-18 0)
(0 1.21647e-18 0)
(-1.65436e-18 2.3353e-18 0)
(-1.65436e-18 9.86464e-19 0)
(1.65436e-18 -1.766e-18 0)
(-1.65436e-18 1.59845e-18 0)
(0 5.1648e-19 0)
(1.65436e-18 -2.35964e-18 0)
(0 -5.37746e-19 0)
(1.65436e-18 -9.64174e-19 0)
(1.65436e-18 -2.08239e-18 0)
(0 3.84213e-19 0)
(0 1.06614e-18 0)
(-0.02 1.30886e-17 0)
(-1.48893e-17 1.35269e-17 0)
(1.98523e-17 -1.82945e-17 0)
(-1.65436e-18 1.95104e-19 0)
(1.65436e-18 -6.88617e-19 0)
(0 -6.96628e-19 0)
(3.30872e-18 -2.97752e-18 0)
(3.30872e-18 -2.67051e-18 0)
(-3.30872e-18 1.11788e-18 0)
(0 5.3264e-19 0)
(-1.65436e-18 1.79405e-18 0)
(0 1.04769e-18 0)
(1.65436e-18 -2.97947e-18 0)
(1.65436e-18 -9.95858e-19 0)
(-1.65436e-18 4.41391e-19 0)
(1.65436e-18 -1.07786e-18 0)
(0 -2.03925e-19 0)
(-1.65436e-18 7.90561e-19 0)
(1.65436e-18 -1.72937e-18 0)
(3.30872e-18 -3.40099e-18 0)
(-0.02 4.57326e-17 0)
(6.78288e-17 -6.74151e-17 0)
(-2.64698e-17 2.52394e-17 0)
(1.65436e-18 -1.30325e-18 0)
(0 1.11339e-18 0)
(1.65436e-18 -1.28544e-18 0)
(1.65436e-18 -1.6368e-18 0)
(0 2.93172e-19 0)
(1.65436e-18 -1.14942e-18 0)
(0 -7.95201e-19 0)
(1.65436e-18 -1.87954e-18 0)
(1.65436e-18 -1.26279e-18 0)
(1.65436e-18 -1.13857e-18 0)
(1.65436e-18 -9.95527e-19 0)
(-3.30872e-18 1.50014e-18 0)
(-1.65436e-18 1.79693e-18 0)
(0 6.99516e-19 0)
(-1.65436e-18 1.77433e-18 0)
(0 1.43449e-18 0)
(-1.65436e-18 1.10046e-18 0)
(-0.02 -4.05818e-17 0)
(-4.79765e-17 4.88312e-17 0)
(9.92617e-18 -1.0591e-17 0)
(-3.30872e-18 3.37922e-18 0)
(0 1.00336e-18 0)
(-3.30872e-18 1.4562e-18 0)
(-1.65436e-18 2.05615e-18 0)
(1.65436e-18 -1.66106e-18 0)
(1.65436e-18 -1.6941e-18 0)
(0 -5.7589e-19 0)
(-1.65436e-18 7.28432e-19 0)
(3.30872e-18 -1.01321e-18 0)
(0 -9.47962e-19 0)
(0 7.00864e-19 0)
(0 1.91126e-20 0)
(0 -1.74945e-18 0)
(1.65436e-18 -5.54714e-19 0)
(0 -9.50035e-19 0)
(0 7.55848e-19 0)
(-1.65436e-18 1.58845e-18 0)
(-0.02 -2.89191e-17 0)
(-5.29396e-17 5.24624e-17 0)
(2.31611e-17 -2.37378e-17 0)
(1.65436e-18 -1.29159e-18 0)
(0 -1.54648e-18 0)
(0 -8.27118e-20 0)
(1.65436e-18 -3.81241e-19 0)
(-1.65436e-18 8.7145e-19 0)
(0 3.72534e-19 0)
(0 3.76154e-19 0)
(0 -4.80732e-19 0)
(0 9.99027e-19 0)
(-1.65436e-18 2.77527e-18 0)
(-1.65436e-18 9.67909e-19 0)
(1.65436e-18 -1.4081e-18 0)
(-1.65436e-18 1.61794e-18 0)
(0 4.39663e-19 0)
(1.65436e-18 -4.29059e-19 0)
(0 -3.22741e-19 0)
(0 -4.0234e-19 0)
(-0.02 9.5712e-17 0)
(1.27386e-16 -1.28947e-16 0)
(-3.80503e-17 3.95426e-17 0)
(8.27181e-18 -7.27839e-18 0)
(0 -1.80782e-18 0)
(0 -1.04335e-18 0)
(0 1.50966e-18 0)
(-1.65436e-18 1.20799e-18 0)
(-3.30872e-18 2.00554e-18 0)
(-1.65436e-18 7.70086e-19 0)
(0 3.94583e-20 0)
(0 5.15401e-19 0)
(0 -9.71512e-20 0)
(1.65436e-18 -6.88343e-19 0)
(0 -3.36503e-19 0)
(3.30872e-18 -3.0729e-18 0)
(1.65436e-18 -8.2085e-19 0)
(-1.65436e-18 5.26722e-19 0)
(0 8.82339e-20 0)
(0 4.18183e-20 0)
(-0.02 -3.48598e-17 0)
(-4.46678e-17 4.37482e-17 0)
(1.32349e-17 -1.21988e-17 0)
(-4.96308e-18 2.81027e-18 0)
(0 2.41668e-18 0)
(-1.65436e-18 1.90994e-18 0)
(0 1.2451e-19 0)
(1.65436e-18 -1.08421e-18 0)
(1.65436e-18 -3.49202e-18 0)
(3.30872e-18 -2.49087e-18 0)
(0 -4.23476e-19 0)
(-1.65436e-18 9.43682e-19 0)
(-1.65436e-18 4.44214e-19 0)
(0 -6.76508e-20 0)
(-1.65436e-18 6.31661e-19 0)
(0 1.69385e-18 0)
(-1.65436e-18 1.09156e-18 0)
(0 4.31761e-19 0)
(1.65436e-18 -1.82788e-18 0)
(0 -1.2924e-18 0)
(-0.02 -9.14205e-17 0)
(-1.19114e-16 1.19077e-16 0)
(2.97785e-17 -3.06355e-17 0)
(-6.61744e-18 8.07229e-18 0)
(0 -8.04727e-19 0)
(3.30872e-18 -1.04128e-18 0)
(3.30872e-18 -2.25691e-18 0)
(0 -9.62126e-20 0)
(-3.30872e-18 2.57318e-18 0)
(-3.30872e-18 2.47762e-18 0)
(-1.65436e-18 2.23102e-18 0)
(0 -1.64421e-18 0)
(3.30872e-18 -2.46234e-18 0)
(0 2.27201e-19 0)
(0 -2.99796e-19 0)
(0 1.66247e-19 0)
(1.65436e-18 -1.55856e-18 0)
(1.65436e-18 -1.95876e-18 0)
(0 1.78572e-19 0)
(0 -4.81657e-19 0)
(-0.02 6.07235e-17 0)
(8.93355e-17 -8.98306e-17 0)
(-2.48154e-17 2.43134e-17 0)
(4.96308e-18 -4.37439e-18 0)
(0 9.53484e-19 0)
(0 5.53138e-19 0)
(-3.30872e-18 1.47203e-18 0)
(-1.65436e-18 8.79614e-19 0)
(0 -2.03339e-19 0)
(1.65436e-18 -5.90274e-19 0)
(3.30872e-18 -1.72058e-18 0)
(-1.65436e-18 4.86389e-19 0)
(-1.65436e-18 1.69831e-18 0)
(0 1.6723e-19 0)
(-1.65436e-18 4.48612e-19 0)
(-1.65436e-18 1.14947e-19 0)
(0 1.0525e-18 0)
(0 1.31599e-18 0)
(0 1.0122e-18 0)
(-1.65436e-18 1.10632e-18 0)
)
;

boundaryField
{
    movingWall
    {
        type            extrapolatedCalculated;
        value           nonuniform List<vector> 
20
(
(-0.02 6.07235e-17 0)
(8.93355e-17 -8.98306e-17 0)
(-2.48154e-17 2.43134e-17 0)
(4.96308e-18 -4.37439e-18 0)
(0 9.53484e-19 0)
(0 5.53138e-19 0)
(-3.30872e-18 1.47203e-18 0)
(-1.65436e-18 8.79614e-19 0)
(0 -2.03339e-19 0)
(1.65436e-18 -5.90274e-19 0)
(3.30872e-18 -1.72058e-18 0)
(-1.65436e-18 4.86389e-19 0)
(-1.65436e-18 1.69831e-18 0)
(0 1.6723e-19 0)
(-1.65436e-18 4.48612e-19 0)
(-1.65436e-18 1.14947e-19 0)
(0 1.0525e-18 0)
(0 1.31599e-18 0)
(0 1.0122e-18 0)
(-1.65436e-18 1.10632e-18 0)
)
;
    }
    fixedWalls
    {
        type            extrapolatedCalculated;
        value           nonuniform List<vector> 
60
(
(-0.02 6.90614e-17 0)
(-0.02 -1.08603e-16 0)
(-0.02 7.67334e-18 0)
(-0.02 5.91403e-17 0)
(-0.02 -5.94848e-17 0)
(-0.02 6.64564e-17 0)
(-0.02 -3.34682e-17 0)
(-0.02 -3.01223e-17 0)
(-0.02 5.69261e-17 0)
(-0.02 7.58649e-19 0)
(-0.02 -2.33067e-17 0)
(-0.02 -2.45068e-17 0)
(-0.02 1.30886e-17 0)
(-0.02 4.57326e-17 0)
(-0.02 -4.05818e-17 0)
(-0.02 -2.89191e-17 0)
(-0.02 9.5712e-17 0)
(-0.02 -3.48598e-17 0)
(-0.02 -9.14205e-17 0)
(-0.02 6.07235e-17 0)
(0 1.26781e-18 0)
(1.65436e-18 -2.32539e-18 0)
(0 9.0519e-20 0)
(0 2.71849e-19 0)
(-1.65436e-18 5.80408e-19 0)
(0 6.97364e-19 0)
(0 5.84552e-19 0)
(1.65436e-18 -1.40797e-18 0)
(0 1.14946e-19 0)
(0 1.35914e-19 0)
(0 6.64208e-19 0)
(0 1.06614e-18 0)
(3.30872e-18 -3.40099e-18 0)
(-1.65436e-18 1.10046e-18 0)
(-1.65436e-18 1.58845e-18 0)
(0 -4.0234e-19 0)
(0 4.18183e-20 0)
(0 -1.2924e-18 0)
(0 -4.81657e-19 0)
(-1.65436e-18 1.10632e-18 0)
(-0.02 6.90614e-17 0)
(1.05879e-16 -1.05677e-16 0)
(-3.47416e-17 3.40059e-17 0)
(3.30872e-18 -3.0709e-18 0)
(-3.30872e-18 2.77869e-18 0)
(0 2.75981e-19 0)
(0 4.26256e-19 0)
(0 1.01147e-20 0)
(0 3.9553e-19 0)
(0 -1.71307e-19 0)
(0 -3.73097e-19 0)
(0 -3.35111e-19 0)
(0 -8.93255e-20 0)
(0 -4.90363e-20 0)
(0 5.86597e-19 0)
(-1.65436e-18 7.24267e-19 0)
(0 1.84076e-19 0)
(0 1.4047e-19 0)
(0 5.66296e-19 0)
(0 1.26781e-18 0)
)
;
    }
    frontAndBack
    {
        type            empty;
    }
}


// ************************************************************************* //
