/*--------------------------------*- C++ -*----------------------------------*\
| =========                 |                                                 |
| \\      /  F ield         | OpenFOAM: The Open Source CFD Toolbox           |
|  \\    /   O peration     | Version:  2506                                  |
|   \\  /    A nd           | Website:  www.openfoam.com                      |
|    \\/     M anipulation  |                                                 |
\*---------------------------------------------------------------------------*/
FoamFile
{
    version     2.0;
    format      ascii;
    arch        "LSB;label=32;scalar=64";
    class       volScalarField;
    location    "8.5";
    object      initialResidual:k;
}
// * * * * * * * * * * * * * * * * * * * * * * * * * * * * * * * * * * * * * //

dimensions      [0 0 0 0 0 0 0];

internalField   nonuniform List<scalar> 
400
(
-2.59445e-13
-2.59458e-13
-2.59453e-13
-2.59456e-13
-2.59447e-13
-2.59478e-13
-2.59433e-13
-2.5949e-13
-2.59412e-13
-2.59499e-13
-2.59405e-13
-2.59501e-13
-2.59409e-13
-2.59492e-13
-2.59422e-13
-2.59476e-13
-2.59441e-13
-2.59458e-13
-2.59453e-13
-2.59454e-13
-2.6935e-13
-2.69244e-13
-2.69615e-13
-2.69178e-13
-2.69463e-13
-2.69291e-13
-2.69367e-13
-2.69327e-13
-2.69357e-13
-2.69338e-13
-2.69354e-13
-2.69265e-13
-2.69398e-13
-2.69267e-13
-2.69355e-13
-2.693e-13
-2.69328e-13
-2.69316e-13
-2.69311e-13
-2.69303e-13
-2.844e-13
-2.83524e-13
-2.84937e-13
-2.84318e-13
-2.84396e-13
-2.83964e-13
-2.84747e-13
-2.83887e-13
-2.85364e-13
-2.83323e-13
-2.85453e-13
-2.83204e-13
-2.85295e-13
-2.83324e-13
-2.8484e-13
-2.83701e-13
-2.84436e-13
-2.84071e-13
-2.8423e-13
-2.84251e-13
-2.98872e-13
-2.991e-13
-2.9903e-13
-2.9855e-13
-2.99153e-13
-2.98943e-13
-2.9899e-13
-2.98866e-13
-2.98996e-13
-2.98906e-13
-2.98824e-13
-2.98854e-13
-2.98873e-13
-2.98846e-13
-2.98906e-13
-2.98851e-13
-2.98894e-13
-2.98899e-13
-2.98843e-13
-2.98858e-13
-3.10161e-13
-3.10208e-13
-3.1037e-13
-3.09989e-13
-3.10333e-13
-3.10093e-13
-3.10219e-13
-3.10141e-13
-3.10197e-13
-3.10162e-13
-3.1021e-13
-3.10031e-13
-3.10243e-13
-3.10087e-13
-3.10174e-13
-3.10134e-13
-3.10159e-13
-3.10117e-13
-3.1014e-13
-3.10123e-13
-3.17744e-13
-3.16762e-13
-3.18465e-13
-3.17503e-13
-3.17671e-13
-3.17615e-13
-3.17719e-13
-3.17642e-13
-3.17699e-13
-3.17631e-13
-3.17707e-13
-3.1752e-13
-3.1772e-13
-3.17599e-13
-3.17675e-13
-3.17641e-13
-3.17655e-13
-3.17601e-13
-3.17625e-13
-3.17606e-13
-3.2219e-13
-3.22692e-13
-3.22105e-13
-3.22092e-13
-3.22366e-13
-3.22087e-13
-3.22432e-13
-3.21979e-13
-3.22326e-13
-3.22173e-13
-3.22137e-13
-3.2221e-13
-3.22182e-13
-3.22177e-13
-3.22218e-13
-3.22167e-13
-3.22198e-13
-3.22205e-13
-3.22143e-13
-3.22163e-13
-3.24958e-13
-3.25105e-13
-3.25125e-13
-3.24661e-13
-3.25173e-13
-3.24738e-13
-3.25312e-13
-3.24527e-13
-3.25928e-13
-3.23995e-13
-3.25664e-13
-3.24172e-13
-3.25396e-13
-3.24389e-13
-3.253e-13
-3.24506e-13
-3.24978e-13
-3.24758e-13
-3.24862e-13
-3.24869e-13
-3.26606e-13
-3.26578e-13
-3.26912e-13
-3.26383e-13
-3.26774e-13
-3.26544e-13
-3.26654e-13
-3.26585e-13
-3.26645e-13
-3.26577e-13
-3.26608e-13
-3.26546e-13
-3.26675e-13
-3.26501e-13
-3.26632e-13
-3.26551e-13
-3.26588e-13
-3.26571e-13
-3.2657e-13
-3.26557e-13
-3.27889e-13
-3.26888e-13
-3.2866e-13
-3.27637e-13
-3.27818e-13
-3.27774e-13
-3.27883e-13
-3.27798e-13
-3.27875e-13
-3.27715e-13
-3.27874e-13
-3.27661e-13
-3.27862e-13
-3.27759e-13
-3.27821e-13
-3.27789e-13
-3.27819e-13
-3.27731e-13
-3.27768e-13
-3.27752e-13
-3.28827e-13
-3.28421e-13
-3.29406e-13
-3.28556e-13
-3.28925e-13
-3.2877e-13
-3.28834e-13
-3.28763e-13
-3.28819e-13
-3.28773e-13
-3.28816e-13
-3.28764e-13
-3.28784e-13
-3.28809e-13
-3.28798e-13
-3.28759e-13
-3.28755e-13
-3.28761e-13
-3.28738e-13
-3.28747e-13
-3.29679e-13
-3.30267e-13
-3.29647e-13
-3.2933e-13
-3.30036e-13
-3.29564e-13
-3.29873e-13
-3.29707e-13
-3.29824e-13
-3.29683e-13
-3.30375e-13
-3.29108e-13
-3.30469e-13
-3.29072e-13
-3.29981e-13
-3.29472e-13
-3.29711e-13
-3.29687e-13
-3.2971e-13
-3.29701e-13
-3.30736e-13
-3.31346e-13
-3.30578e-13
-3.30603e-13
-3.30948e-13
-3.30574e-13
-3.30988e-13
-3.30552e-13
-3.30788e-13
-3.30733e-13
-3.30674e-13
-3.30733e-13
-3.30726e-13
-3.30701e-13
-3.30762e-13
-3.30702e-13
-3.30747e-13
-3.3075e-13
-3.3068e-13
-3.30699e-13
-3.31786e-13
-3.32501e-13
-3.31658e-13
-3.31579e-13
-3.32115e-13
-3.31699e-13
-3.32082e-13
-3.31573e-13
-3.32916e-13
-3.30826e-13
-3.33233e-13
-3.30496e-13
-3.33092e-13
-3.30611e-13
-3.32525e-13
-3.31112e-13
-3.31984e-13
-3.31595e-13
-3.31773e-13
-3.31794e-13
-3.33001e-13
-3.33731e-13
-3.32877e-13
-3.32805e-13
-3.33338e-13
-3.32908e-13
-3.33309e-13
-3.32795e-13
-3.34151e-13
-3.32039e-13
-3.34441e-13
-3.31734e-13
-3.34261e-13
-3.31887e-13
-3.33681e-13
-3.32391e-13
-3.33185e-13
-3.32837e-13
-3.32999e-13
-3.33016e-13
-3.34335e-13
-3.34835e-13
-3.34361e-13
-3.34185e-13
-3.34638e-13
-3.34301e-13
-3.34474e-13
-3.34377e-13
-3.34448e-13
-3.34389e-13
-3.34418e-13
-3.34327e-13
-3.34489e-13
-3.34306e-13
-3.34433e-13
-3.34362e-13
-3.34389e-13
-3.34377e-13
-3.34376e-13
-3.34361e-13
-3.35914e-13
-3.3483e-13
-3.36719e-13
-3.3565e-13
-3.3582e-13
-3.35789e-13
-3.35896e-13
-3.35828e-13
-3.35876e-13
-3.35768e-13
-3.359e-13
-3.35677e-13
-3.35895e-13
-3.35776e-13
-3.35842e-13
-3.35819e-13
-3.35839e-13
-3.35762e-13
-3.35794e-13
-3.35775e-13
-3.37156e-13
-3.37806e-13
-3.36985e-13
-3.37003e-13
-3.37383e-13
-3.37069e-13
-3.37416e-13
-3.36949e-13
-3.37237e-13
-3.37147e-13
-3.37117e-13
-3.37161e-13
-3.37158e-13
-3.37132e-13
-3.37189e-13
-3.37131e-13
-3.37173e-13
-3.37178e-13
-3.37107e-13
-3.37127e-13
-3.38153e-13
-3.39062e-13
-3.37802e-13
-3.38104e-13
-3.3857e-13
-3.3815e-13
-3.38425e-13
-3.38236e-13
-3.38356e-13
-3.38176e-13
-3.38375e-13
-3.38146e-13
-3.38463e-13
-3.38063e-13
-3.38452e-13
-3.38031e-13
-3.3833e-13
-3.38136e-13
-3.38221e-13
-3.38218e-13
-3.3875e-13
-3.39075e-13
-3.38471e-13
-3.39238e-13
-3.38427e-13
-3.39208e-13
-3.38533e-13
-3.3905e-13
-3.38707e-13
-3.38869e-13
-3.38826e-13
-3.38831e-13
-3.38834e-13
-3.38835e-13
-3.38837e-13
-3.38834e-13
-3.38835e-13
-3.38834e-13
-3.38834e-13
-3.38834e-13
)
;

boundaryField
{
    movingWall
    {
        type            zeroGradient;
    }
    fixedWalls
    {
        type            zeroGradient;
    }
    frontAndBack
    {
        type            empty;
    }
}


// ************************************************************************* //
