/*--------------------------------*- C++ -*----------------------------------*\
| =========                 |                                                 |
| \\      /  F ield         | OpenFOAM: The Open Source CFD Toolbox           |
|  \\    /   O peration     | Version:  2506                                  |
|   \\  /    A nd           | Website:  www.openfoam.com                      |
|    \\/     M anipulation  |                                                 |
\*---------------------------------------------------------------------------*/
FoamFile
{
    version     2.0;
    format      ascii;
    arch        "LSB;label=32;scalar=64";
    class       volScalarField;
    location    "8.5";
    object      initialResidual:Uy;
}
// * * * * * * * * * * * * * * * * * * * * * * * * * * * * * * * * * * * * * //

dimensions      [0 0 0 0 0 0 0];

internalField   nonuniform List<scalar> 
400
(
4.59274e-20
6.41165e-21
8.08785e-21
-8.57366e-22
1.1476e-21
-7.52808e-22
-4.15635e-21
-3.92202e-22
1.3746e-21
-4.81945e-21
-3.84854e-21
2.4009e-21
4.82185e-21
1.89023e-21
4.74987e-21
-1.63817e-22
-8.73481e-22
4.32169e-21
2.19165e-21
-2.3235e-21
5.72462e-20
1.40262e-20
9.4719e-21
1.54214e-22
-1.6455e-21
-9.19948e-22
2.02641e-21
1.4009e-21
-4.42627e-21
-2.00533e-21
4.30639e-21
1.39066e-20
7.02795e-21
-5.8654e-21
-6.07788e-21
-3.40027e-22
6.9769e-21
3.5854e-21
-3.1186e-21
-1.0008e-21
3.98022e-20
1.56745e-20
-1.50788e-22
2.07496e-21
-3.45606e-21
1.13499e-21
7.23614e-21
2.10484e-21
-5.81195e-21
6.22513e-21
9.79941e-21
9.9325e-21
3.5821e-21
-1.50231e-21
-9.81343e-21
-4.83066e-21
5.31469e-21
2.73225e-21
-4.41294e-21
1.34938e-21
4.10489e-20
1.94234e-20
3.96183e-21
2.02424e-21
2.52012e-21
4.49865e-21
5.04687e-21
1.11257e-20
6.5376e-21
-5.93319e-22
-6.66046e-22
-5.31415e-21
-7.19133e-22
5.9763e-21
-5.02694e-23
-4.95793e-21
-6.00652e-21
4.19856e-21
5.70971e-21
8.78408e-22
1.9026e-20
7.55031e-21
1.25258e-20
8.49056e-21
5.29852e-21
1.37995e-21
9.13766e-22
5.92555e-21
5.17697e-21
-1.49699e-21
-1.06659e-21
-5.17033e-21
-2.00403e-22
5.65353e-21
1.58176e-21
-5.9807e-21
-1.63463e-21
1.38178e-21
3.78213e-21
2.04991e-21
-1.9923e-20
1.81442e-20
1.13579e-20
1.50146e-20
8.71522e-21
5.18329e-21
-6.11494e-22
-4.97661e-21
-6.89012e-22
8.75349e-21
4.2831e-21
-3.22896e-21
-3.25361e-21
-2.05351e-22
2.47884e-21
-4.44405e-21
-1.69168e-21
-8.16573e-22
1.40332e-21
9.46718e-22
3.00924e-20
3.27783e-21
1.67304e-20
1.61558e-20
7.25976e-21
1.48894e-22
4.50067e-21
3.34796e-21
2.75435e-21
7.97675e-21
3.13118e-21
2.6272e-21
-2.55391e-21
-6.19215e-21
-7.98691e-22
2.14646e-21
1.97248e-22
-4.6554e-21
-6.1723e-22
-3.93892e-22
8.91565e-22
1.78871e-20
1.23671e-20
1.06882e-20
2.73294e-21
4.52854e-21
1.1892e-20
4.92442e-21
1.38081e-21
1.07207e-21
1.10941e-21
3.61762e-21
1.93912e-21
2.11694e-22
1.33607e-21
3.36557e-21
9.47589e-22
-2.9351e-21
-1.38124e-21
-7.65336e-22
-4.55464e-21
1.3585e-20
1.90284e-21
1.33118e-21
5.19608e-21
1.46776e-20
1.09561e-20
7.75765e-21
3.72899e-21
-9.41399e-22
-3.0127e-21
-3.85174e-21
-2.09913e-22
4.18594e-21
6.83034e-22
7.13118e-22
-4.33386e-21
3.05048e-22
-1.77991e-21
-2.74946e-21
3.65286e-20
-1.38102e-20
5.68384e-21
3.47609e-21
7.22522e-21
5.877e-21
4.77419e-21
6.90527e-21
8.01911e-21
2.92709e-21
4.79116e-22
1.98096e-21
4.19325e-21
2.16278e-21
-4.65145e-21
-5.50677e-21
-6.06482e-21
-2.71079e-21
-6.03035e-21
-2.35712e-21
-3.67048e-20
2.15198e-20
3.76465e-21
9.44157e-21
4.58809e-21
-6.01947e-22
4.31891e-21
5.96418e-22
-1.92859e-21
-1.54396e-21
9.55961e-21
1.29433e-20
5.39087e-21
-3.68407e-21
-1.10983e-21
-1.3592e-21
-2.12094e-21
-3.65427e-21
-7.74214e-21
-2.31472e-21
4.17502e-20
-4.8775e-21
6.12747e-21
4.67413e-21
2.60385e-21
-1.08759e-21
1.70343e-21
2.24765e-21
-6.1598e-21
-1.3082e-20
-2.88016e-21
9.54708e-21
9.7051e-21
4.41203e-22
2.49259e-21
3.22483e-21
-5.35584e-21
-6.47022e-21
-4.71771e-21
-8.2732e-22
2.80754e-20
7.60663e-21
5.44734e-21
-5.91537e-23
1.23692e-21
-5.38384e-21
-3.72025e-21
-8.55952e-22
9.91711e-22
-3.59359e-21
-6.52518e-21
3.93758e-22
9.29752e-21
5.29516e-21
5.56938e-22
-1.08371e-21
-8.93204e-21
-9.64505e-21
-2.78783e-21
4.49916e-22
-5.54974e-20
2.66968e-20
-3.04115e-21
5.07713e-22
8.27007e-22
-3.09267e-21
-4.03381e-21
-2.81876e-21
2.24229e-21
4.32952e-21
7.16843e-21
1.56879e-21
-4.14621e-21
3.68209e-21
5.64327e-21
-1.06249e-21
-8.37808e-22
-6.40053e-21
-7.4026e-21
-2.96004e-21
4.45678e-20
-2.93563e-20
5.04787e-21
2.42943e-21
4.7481e-22
7.88803e-22
-1.24501e-21
6.6835e-22
-2.12569e-21
9.57078e-22
2.32473e-21
-4.4839e-21
-4.58245e-21
6.75406e-21
8.89197e-21
-4.81612e-21
-5.60667e-21
-2.42345e-21
-5.22741e-21
-3.2643e-21
-4.57045e-21
3.62167e-21
5.47347e-21
7.11737e-21
4.0929e-22
-1.98607e-21
-3.35115e-21
1.08541e-21
9.017e-22
6.43896e-21
-1.02367e-21
-1.2351e-21
-1.69408e-21
-4.60549e-21
-4.49289e-21
-2.91832e-21
-5.04343e-21
-3.60831e-21
-3.28387e-21
-1.78049e-21
-5.42574e-20
2.31927e-20
-4.55693e-21
6.24373e-22
1.23481e-21
6.81598e-21
1.0294e-20
9.37497e-21
6.51882e-21
3.89738e-21
2.48163e-22
2.54206e-21
-2.76318e-21
-1.05574e-20
-1.5083e-20
-5.48378e-21
1.71095e-21
1.65958e-21
-4.24033e-21
-4.0618e-21
4.79636e-20
-3.02034e-20
-1.00352e-21
-6.51618e-21
1.54867e-21
1.25974e-20
9.81647e-21
3.15155e-21
6.75398e-21
6.8474e-21
3.19991e-21
-1.83612e-21
-2.04354e-22
1.04853e-21
-2.26065e-21
-8.87568e-21
-3.53277e-21
-1.48318e-21
-6.01787e-21
-4.35313e-21
4.54706e-21
-2.26071e-21
-4.31481e-21
-4.19241e-21
3.10877e-21
7.38057e-21
-1.19506e-21
-4.34593e-21
5.51323e-21
9.95407e-21
1.32338e-20
5.68928e-21
-5.14987e-21
-3.3528e-21
3.04359e-21
-5.22849e-22
-5.29514e-21
-7.12834e-21
-7.45436e-21
-1.20193e-21
-2.95899e-20
1.63752e-20
-5.8206e-21
-1.67925e-21
1.0648e-21
-6.97503e-23
7.28041e-22
1.18689e-21
1.60975e-21
2.00599e-21
7.90388e-21
3.87559e-21
-5.24095e-21
-4.28972e-21
-1.72678e-21
2.30463e-22
-8.7442e-22
-5.70753e-22
-3.51545e-21
-2.01184e-22
)
;

boundaryField
{
    movingWall
    {
        type            zeroGradient;
    }
    fixedWalls
    {
        type            zeroGradient;
    }
    frontAndBack
    {
        type            empty;
    }
}


// ************************************************************************* //
