/*--------------------------------*- C++ -*----------------------------------*\
| =========                 |                                                 |
| \\      /  F ield         | OpenFOAM: The Open Source CFD Toolbox           |
|  \\    /   O peration     | Version:  2506                                  |
|   \\  /    A nd           | Website:  www.openfoam.com                      |
|    \\/     M anipulation  |                                                 |
\*---------------------------------------------------------------------------*/
FoamFile
{
    version     2.0;
    format      ascii;
    arch        "LSB;label=32;scalar=64";
    class       volScalarField;
    location    "8.5";
    object      initialResidual:epsilon;
}
// * * * * * * * * * * * * * * * * * * * * * * * * * * * * * * * * * * * * * //

dimensions      [0 0 0 0 0 0 0];

internalField   nonuniform List<scalar> 
400
(
0
0
0
0
0
0
0
0
0
0
0
0
0
0
0
0
0
0
0
0
0
-1.22096e-13
-1.21666e-13
-1.21864e-13
-1.22035e-13
-1.22043e-13
-1.22249e-13
-1.22216e-13
-1.22458e-13
-1.22409e-13
-1.22641e-13
-1.22631e-13
-1.22805e-13
-1.22875e-13
-1.22969e-13
-1.23122e-13
-1.23147e-13
-1.23364e-13
-2.46583e-13
0
0
-1.30363e-13
-1.29848e-13
-1.30089e-13
-1.30288e-13
-1.30284e-13
-1.3052e-13
-1.30478e-13
-1.30757e-13
-1.30685e-13
-1.30959e-13
-1.30933e-13
-1.31134e-13
-1.31206e-13
-1.31306e-13
-1.31484e-13
-1.31495e-13
-1.31754e-13
-2.6359e-13
0
0
-1.38972e-13
-1.3843e-13
-1.38688e-13
-1.38902e-13
-1.38897e-13
-1.39144e-13
-1.3911e-13
-1.39407e-13
-1.39327e-13
-1.39629e-13
-1.39594e-13
-1.39816e-13
-1.39892e-13
-1.40001e-13
-1.40194e-13
-1.40205e-13
-1.40486e-13
-2.81051e-13
0
0
-1.45858e-13
-1.45293e-13
-1.45564e-13
-1.45791e-13
-1.45786e-13
-1.46048e-13
-1.46012e-13
-1.46327e-13
-1.46243e-13
-1.46563e-13
-1.46527e-13
-1.46762e-13
-1.46843e-13
-1.4696e-13
-1.47163e-13
-1.47177e-13
-1.47473e-13
-2.95029e-13
0
0
-1.50605e-13
-1.50014e-13
-1.50298e-13
-1.50534e-13
-1.5053e-13
-1.50803e-13
-1.50766e-13
-1.51093e-13
-1.51007e-13
-1.51339e-13
-1.51302e-13
-1.51547e-13
-1.51631e-13
-1.51753e-13
-1.51964e-13
-1.5198e-13
-1.52287e-13
-3.04661e-13
0
0
-1.53583e-13
-1.52991e-13
-1.53278e-13
-1.53519e-13
-1.53515e-13
-1.53796e-13
-1.53756e-13
-1.54092e-13
-1.54005e-13
-1.54344e-13
-1.54309e-13
-1.54558e-13
-1.54645e-13
-1.5477e-13
-1.54986e-13
-1.55003e-13
-1.55317e-13
-3.10724e-13
0
0
-1.554e-13
-1.54804e-13
-1.55094e-13
-1.55338e-13
-1.55336e-13
-1.55621e-13
-1.5558e-13
-1.5592e-13
-1.55834e-13
-1.56176e-13
-1.56142e-13
-1.56394e-13
-1.56483e-13
-1.56609e-13
-1.56829e-13
-1.56846e-13
-1.57165e-13
-3.14421e-13
0
0
-1.56553e-13
-1.55948e-13
-1.56242e-13
-1.56489e-13
-1.56487e-13
-1.56775e-13
-1.56732e-13
-1.57077e-13
-1.56989e-13
-1.57335e-13
-1.573e-13
-1.57555e-13
-1.57645e-13
-1.57773e-13
-1.57994e-13
-1.58012e-13
-1.58334e-13
-3.1676e-13
0
0
-1.5737e-13
-1.56752e-13
-1.57051e-13
-1.573e-13
-1.57298e-13
-1.57588e-13
-1.57546e-13
-1.57893e-13
-1.57804e-13
-1.58152e-13
-1.58117e-13
-1.58374e-13
-1.58464e-13
-1.58593e-13
-1.58816e-13
-1.58834e-13
-1.59158e-13
-3.18409e-13
0
0
-1.58031e-13
-1.57417e-13
-1.57716e-13
-1.57965e-13
-1.57964e-13
-1.58256e-13
-1.58212e-13
-1.58561e-13
-1.58473e-13
-1.58822e-13
-1.58787e-13
-1.59045e-13
-1.59136e-13
-1.59266e-13
-1.59489e-13
-1.59508e-13
-1.59833e-13
-3.1976e-13
0
0
-1.58656e-13
-1.58043e-13
-1.5834e-13
-1.58591e-13
-1.58591e-13
-1.58883e-13
-1.5884e-13
-1.5919e-13
-1.59102e-13
-1.59453e-13
-1.59418e-13
-1.59677e-13
-1.59769e-13
-1.59899e-13
-1.60124e-13
-1.60143e-13
-1.60469e-13
-3.21033e-13
0
0
-1.59303e-13
-1.5869e-13
-1.58988e-13
-1.5924e-13
-1.59239e-13
-1.59535e-13
-1.59489e-13
-1.59842e-13
-1.59754e-13
-1.60105e-13
-1.60072e-13
-1.60331e-13
-1.60423e-13
-1.60554e-13
-1.6078e-13
-1.60799e-13
-1.61127e-13
-3.2235e-13
0
0
-1.60008e-13
-1.59394e-13
-1.59693e-13
-1.59946e-13
-1.59945e-13
-1.60243e-13
-1.60197e-13
-1.60551e-13
-1.60463e-13
-1.60815e-13
-1.60783e-13
-1.61042e-13
-1.61137e-13
-1.61267e-13
-1.61495e-13
-1.61514e-13
-1.61844e-13
-3.23783e-13
0
0
-1.60789e-13
-1.60173e-13
-1.60473e-13
-1.60728e-13
-1.60727e-13
-1.61027e-13
-1.6098e-13
-1.61337e-13
-1.61249e-13
-1.61602e-13
-1.61571e-13
-1.61831e-13
-1.61926e-13
-1.62057e-13
-1.62287e-13
-1.62305e-13
-1.62637e-13
-3.2537e-13
0
0
-1.61647e-13
-1.61023e-13
-1.61327e-13
-1.61583e-13
-1.61583e-13
-1.61885e-13
-1.61837e-13
-1.62197e-13
-1.62107e-13
-1.62464e-13
-1.62431e-13
-1.62694e-13
-1.62789e-13
-1.62922e-13
-1.63152e-13
-1.63172e-13
-1.63505e-13
-3.27107e-13
0
0
-1.62545e-13
-1.61908e-13
-1.62217e-13
-1.62475e-13
-1.62476e-13
-1.62779e-13
-1.62732e-13
-1.63094e-13
-1.63004e-13
-1.63363e-13
-1.63329e-13
-1.63595e-13
-1.6369e-13
-1.63824e-13
-1.64055e-13
-1.64076e-13
-1.6441e-13
-3.28919e-13
0
0
-1.63383e-13
-1.62761e-13
-1.63063e-13
-1.63321e-13
-1.63325e-13
-1.63637e-13
-1.63578e-13
-1.63945e-13
-1.63859e-13
-1.64213e-13
-1.64187e-13
-1.64448e-13
-1.64547e-13
-1.6468e-13
-1.64913e-13
-1.64935e-13
-1.65269e-13
-3.30639e-13
0
0
-1.64534e-13
-1.63792e-13
-1.64138e-13
-1.64404e-13
-1.64388e-13
-1.64721e-13
-1.64627e-13
-1.65025e-13
-1.64901e-13
-1.65283e-13
-1.65231e-13
-1.65505e-13
-1.65599e-13
-1.65724e-13
-1.65976e-13
-1.65968e-13
-1.66343e-13
-3.32382e-13
0
0
0
0
0
0
0
0
0
0
0
0
0
0
0
0
0
0
0
0
0
)
;

boundaryField
{
    movingWall
    {
        type            zeroGradient;
    }
    fixedWalls
    {
        type            zeroGradient;
    }
    frontAndBack
    {
        type            empty;
    }
}


// ************************************************************************* //
