/*--------------------------------*- C++ -*----------------------------------*\
| =========                 |                                                 |
| \\      /  F ield         | OpenFOAM: The Open Source CFD Toolbox           |
|  \\    /   O peration     | Version:  2506                                  |
|   \\  /    A nd           | Website:  www.openfoam.com                      |
|    \\/     M anipulation  |                                                 |
\*---------------------------------------------------------------------------*/
FoamFile
{
    version     2.0;
    format      ascii;
    arch        "LSB;label=32;scalar=64";
    class       volScalarField;
    location    "8.5";
    object      initialResidual:p;
}
// * * * * * * * * * * * * * * * * * * * * * * * * * * * * * * * * * * * * * //

dimensions      [0 0 0 0 0 0 0];

internalField   nonuniform List<scalar> 
400
(
1.55854e-19
-5.13286e-20
6.20667e-21
-1.43162e-20
-8.06398e-21
6.59845e-21
-8.38356e-21
-8.52608e-21
7.10671e-21
-6.77555e-21
8.40545e-21
4.5398e-21
9.65132e-21
-1.13424e-21
-4.89884e-21
-3.84566e-21
1.47679e-21
8.00943e-21
9.50139e-22
-6.77624e-21
2.71054e-20
-3.3283e-20
8.12626e-21
8.0176e-21
2.03844e-20
-2.0097e-20
3.60199e-21
9.23413e-21
-8.29559e-21
-1.70404e-20
7.26694e-21
1.47596e-20
2.56045e-21
-2.45364e-21
-6.24147e-21
-1.56067e-20
-2.35794e-21
7.98381e-21
-1.75177e-20
1.35526e-20
-6.77647e-21
-1.06225e-20
2.23364e-20
-5.1094e-21
-1.14571e-20
4.79349e-21
-8.27912e-21
-1.03243e-20
2.10152e-20
-2.5724e-21
-2.81417e-21
1.45031e-20
-3.4922e-20
-8.36713e-21
1.18116e-20
1.96579e-20
1.35299e-20
-1.13916e-20
8.36519e-21
1.04833e-26
6.77631e-21
-8.18058e-21
-1.34871e-20
3.55478e-21
-3.89085e-21
3.78064e-21
1.07448e-20
-7.58946e-22
1.14161e-20
-1.58927e-20
-1.55928e-20
-2.05588e-21
1.36527e-21
2.30147e-21
4.27842e-21
-9.90079e-21
-1.76805e-22
-1.8538e-20
3.40507e-21
1.35526e-20
6.77611e-21
-4.46999e-21
-1.10046e-20
1.52827e-20
1.23605e-20
-5.62731e-21
-1.34521e-20
7.47549e-21
-1.2605e-20
9.00781e-21
-7.78549e-21
-3.32042e-21
-8.04337e-22
-4.32469e-21
8.53559e-21
3.08645e-21
-6.69052e-23
2.28904e-21
3.77085e-22
-6.77626e-21
-2.71051e-20
1.23051e-20
1.91677e-20
3.67103e-21
-9.5099e-21
3.99913e-21
9.39103e-21
1.04294e-21
-4.43233e-21
-9.00181e-21
2.00599e-21
-4.47429e-22
4.32214e-21
-3.24474e-21
-1.74451e-21
2.69915e-20
-2.22317e-21
-1.54812e-20
1.70221e-21
-6.77624e-21
6.77607e-21
-9.52768e-21
1.25063e-20
3.63949e-21
1.24651e-20
-4.908e-21
1.03725e-20
-3.27749e-21
-3.97737e-21
-3.22735e-21
-5.64413e-21
9.93405e-22
1.69768e-22
6.4115e-21
6.81404e-22
1.08679e-22
7.66109e-21
-2.00858e-21
-1.79344e-21
-6.77627e-21
1.35527e-20
-1.53646e-21
-1.35683e-20
-8.69311e-21
-1.80093e-21
-4.19553e-21
1.07848e-20
-9.3119e-21
1.48739e-20
-1.37422e-20
7.94951e-21
1.09797e-21
1.42681e-20
-6.38618e-21
-5.56782e-21
8.61868e-21
-1.81339e-21
5.09058e-21
-7.95348e-22
1.57393e-26
-6.77647e-21
1.25038e-21
-3.83895e-21
2.50529e-20
-5.50964e-21
1.94209e-21
-2.95859e-20
-8.38847e-21
3.59628e-21
6.49938e-21
-1.62395e-20
-7.53167e-21
-6.97814e-23
8.06592e-21
-2.91183e-21
-4.06888e-21
-3.92384e-21
5.79876e-21
-2.07911e-21
-6.77628e-21
1.35526e-20
-2.90405e-20
6.13687e-21
-1.18055e-21
-1.87806e-21
-3.37548e-21
1.19704e-20
-1.7715e-20
-1.1015e-20
1.71626e-20
1.27421e-20
4.24663e-21
3.12463e-21
1.1509e-20
-3.31437e-21
2.79643e-21
9.14754e-21
-1.83669e-20
-1.16985e-20
6.77627e-21
6.77612e-21
1.26668e-20
-2.83375e-21
-1.85566e-21
-1.19342e-20
-9.22571e-23
-6.04901e-21
6.93657e-23
-2.05227e-21
4.94048e-21
-1.48919e-20
1.80771e-21
-4.86069e-21
-1.59542e-21
8.92977e-23
-7.80161e-22
1.6841e-20
1.02614e-20
1.06045e-20
-1.35526e-20
-6.77637e-21
-1.01911e-20
1.06765e-20
-5.76022e-21
-7.50902e-21
-9.35303e-21
-7.97917e-21
5.88037e-21
-1.75123e-20
9.70339e-21
-8.43215e-22
-9.56205e-21
-6.55874e-21
1.48202e-21
1.92668e-20
-2.90749e-21
-5.90831e-21
-1.23965e-20
4.41951e-21
-5.89187e-27
-2.71051e-20
2.80969e-21
-1.16194e-20
-1.44788e-20
6.30141e-21
1.74364e-20
2.4486e-20
-1.55485e-21
1.23291e-21
-6.05642e-21
8.36318e-21
-5.47874e-21
-5.23086e-21
3.0859e-21
6.63677e-21
1.03972e-20
-5.41469e-21
-5.21711e-21
3.98611e-21
-3.20595e-26
-1.11603e-25
4.83917e-21
-2.82908e-20
7.6436e-21
-1.37861e-20
5.97018e-21
2.61715e-20
2.98402e-22
8.04825e-21
-4.20587e-21
8.36391e-21
-5.93154e-21
-6.67455e-21
3.25672e-21
-3.89721e-21
-2.74715e-21
3.48933e-21
2.05867e-21
2.84392e-21
-6.77628e-21
-6.7764e-21
-1.12229e-20
1.02439e-20
-4.56032e-21
6.05457e-21
-1.59976e-21
5.89154e-21
1.45105e-20
1.37103e-20
-1.32582e-20
6.82502e-21
-1.08534e-20
-2.31743e-20
-2.04079e-20
2.09327e-22
2.87357e-21
8.69783e-21
2.48333e-20
-2.63403e-21
-1.35526e-20
-1.35525e-20
1.18756e-21
9.62452e-21
1.0185e-20
-4.04082e-21
4.58638e-21
3.38343e-21
9.81878e-21
8.65416e-21
9.58072e-21
-8.62151e-21
1.31266e-20
-1.69432e-20
-7.62355e-21
-2.2878e-20
-1.6601e-20
1.29927e-20
1.11852e-20
1.05816e-20
-2.10801e-26
-2.06505e-25
4.92583e-21
5.44378e-21
-6.43328e-21
-1.91204e-21
-1.36629e-20
8.55086e-21
7.72179e-21
6.87239e-21
-3.90309e-21
6.47944e-21
-2.79399e-21
-1.11968e-20
1.23456e-21
1.47105e-20
-5.7758e-21
-2.66364e-21
-2.70239e-22
4.18731e-21
-6.77629e-21
-6.77636e-21
-9.78654e-21
5.45963e-21
3.54356e-22
-9.55647e-21
8.09608e-21
3.60291e-21
1.34404e-21
4.82392e-21
-1.39732e-20
1.15154e-20
-5.04165e-22
-2.82102e-20
1.919e-20
5.80432e-21
3.44732e-21
1.68564e-20
-2.62365e-20
1.55973e-20
6.77624e-21
-2.6192e-26
9.54723e-21
-2.93127e-21
-8.01941e-21
2.59377e-21
-4.54123e-21
-6.51332e-21
8.28938e-21
-8.23667e-21
-7.94745e-21
-2.11618e-20
2.9527e-20
2.03724e-21
-9.14301e-21
-1.49965e-20
-8.57683e-21
-3.9493e-21
1.75642e-20
3.33751e-21
6.77624e-21
-1.02925e-25
1.35526e-20
-1.35526e-20
6.77624e-21
-2.86789e-26
-6.77629e-21
-6.77629e-21
2.03288e-20
-1.35526e-20
-6.77629e-21
-6.77629e-21
-2.03288e-20
-6.77629e-21
6.77624e-21
6.77624e-21
1.35525e-20
1.35525e-20
-6.77629e-21
1.35525e-20
3.1323e-27
)
;

boundaryField
{
    movingWall
    {
        type            zeroGradient;
    }
    fixedWalls
    {
        type            zeroGradient;
    }
    frontAndBack
    {
        type            empty;
    }
}


// ************************************************************************* //
