/*--------------------------------*- C++ -*----------------------------------*\
| =========                 |                                                 |
| \\      /  F ield         | OpenFOAM: The Open Source CFD Toolbox           |
|  \\    /   O peration     | Version:  2506                                  |
|   \\  /    A nd           | Website:  www.openfoam.com                      |
|    \\/     M anipulation  |                                                 |
\*---------------------------------------------------------------------------*/
FoamFile
{
    version     2.0;
    format      ascii;
    arch        "LSB;label=32;scalar=64";
    class       volVectorField;
    location    "8.5";
    object      LambVectorField;
}
// * * * * * * * * * * * * * * * * * * * * * * * * * * * * * * * * * * * * * //

dimensions      [0 1 -2 0 0 0 0];

internalField   nonuniform List<vector> 
400
(
(-1.02936e-24 -8.68389e-12 0)
(-2.78886e-25 1.10702e-11 -0)
(-1.5311e-26 -2.46599e-12 0)
(-5.87412e-28 5.46506e-13 -0)
(-6.78664e-29 -1.43556e-13 0)
(-1.7015e-30 -1.8977e-14 0)
(1.73912e-31 1.4442e-15 0)
(3.72374e-31 4.95055e-15 0)
(2.70678e-30 3.81689e-14 0)
(-6.67218e-31 1.88374e-14 -0)
(-6.70925e-31 5.71204e-15 -0)
(8.12258e-31 -8.77735e-15 -0)
(4.24961e-31 -1.43159e-14 -0)
(-3.39203e-30 -6.70116e-14 0)
(-5.40969e-30 -5.50157e-14 0)
(5.56501e-31 9.48455e-15 0)
(5.60341e-33 1.6081e-15 0)
(-3.31649e-31 -7.78637e-15 0)
(-5.50011e-32 -6.76119e-16 0)
(6.45081e-31 1.30703e-14 0)
(-3.43549e-28 -3.50503e-14 0)
(-9.77313e-28 6.14416e-13 -0)
(-1.05948e-28 -1.56753e-13 0)
(-1.66222e-30 7.19351e-14 -0)
(-9.05913e-32 2.08451e-15 -0)
(-1.97011e-33 4.48239e-17 -0)
(3.8947e-32 -8.87023e-16 -0)
(1.98034e-30 -5.64488e-14 -0)
(1.71995e-30 -7.99203e-14 -0)
(2.82885e-30 -5.76949e-14 -0)
(-8.31749e-31 -6.24108e-14 0)
(-2.94046e-30 -8.91713e-14 0)
(-4.45997e-30 -4.85369e-14 0)
(3.21281e-31 -1.3524e-14 -0)
(1.51118e-30 -3.44055e-14 -0)
(-3.24853e-30 -6.5962e-14 0)
(-4.11275e-30 -5.58827e-14 0)
(-3.17016e-30 -4.80513e-14 0)
(7.75296e-32 6.45649e-15 0)
(1.8913e-33 1.34176e-15 0)
(-3.30991e-25 3.83831e-12 -0)
(-1.37027e-25 -7.27009e-12 0)
(-8.00714e-27 1.85483e-12 -0)
(-2.42114e-28 -2.87634e-13 0)
(-7.16269e-29 2.00996e-13 -0)
(-6.90672e-30 8.22072e-14 -0)
(-5.34535e-30 5.67268e-14 -0)
(-1.19847e-29 1.09767e-13 -0)
(-4.68162e-30 4.34713e-14 -0)
(-6.44333e-32 3.58978e-14 -0)
(3.52492e-30 4.67317e-14 0)
(5.77999e-30 7.91897e-14 0)
(6.10008e-30 6.30931e-14 0)
(-1.60275e-30 1.01182e-13 -0)
(-9.1727e-30 8.99391e-14 -0)
(1.0893e-30 -1.0671e-14 -0)
(-4.24637e-32 -8.99196e-15 0)
(-8.06795e-31 6.63463e-14 -0)
(-8.61266e-31 7.38399e-15 -0)
(1.74271e-30 -2.0264e-14 -0)
(-1.97759e-25 -3.36773e-12 0)
(-6.33264e-26 5.03544e-12 -0)
(-3.50082e-27 -1.18818e-12 0)
(-1.12502e-28 1.62029e-13 -0)
(-4.37845e-29 -1.8102e-13 0)
(-1.4384e-30 -4.54281e-14 0)
(-5.83312e-30 -3.78635e-14 0)
(-4.60365e-30 -3.30609e-14 0)
(-1.93147e-31 -9.0418e-16 0)
(1.04434e-29 7.04258e-14 0)
(3.50013e-30 6.80188e-14 0)
(6.28361e-31 6.15891e-14 0)
(-1.14449e-30 5.12494e-14 -0)
(8.87956e-31 2.23049e-14 0)
(1.71012e-30 6.6619e-14 0)
(-7.64801e-30 9.07466e-14 -0)
(-5.08844e-30 7.41277e-14 -0)
(2.99319e-32 -2.41305e-15 -0)
(-2.98801e-31 6.71254e-15 -0)
(-1.16914e-30 1.47007e-14 -0)
(-1.25192e-26 9.69299e-13 -0)
(-2.96267e-27 -1.10521e-12 0)
(-2.44525e-28 3.13725e-13 -0)
(-7.88905e-31 -9.22814e-15 0)
(-1.90944e-29 1.31647e-13 -0)
(-6.93396e-30 4.72419e-14 -0)
(-1.04583e-30 1.38777e-14 -0)
(-3.3194e-31 2.28893e-14 -0)
(-1.88058e-30 5.66381e-14 -0)
(-9.09339e-31 2.34473e-14 -0)
(-2.091e-32 -6.1979e-15 0)
(-7.81916e-31 -3.3708e-14 0)
(-4.41817e-30 -6.36599e-14 0)
(-1.04276e-29 -8.85987e-14 0)
(-7.297e-30 -5.13011e-14 0)
(3.11316e-30 3.51353e-14 0)
(-1.4241e-30 -2.29931e-14 0)
(4.84773e-31 1.02088e-14 0)
(-1.4598e-30 3.63566e-14 -0)
(3.83568e-31 -8.51818e-15 -0)
(-1.77594e-25 3.89443e-12 -0)
(-3.94921e-26 -4.21545e-12 0)
(-2.01166e-27 9.61416e-13 -0)
(-8.22426e-29 -1.44945e-13 0)
(-8.69834e-30 8.6264e-14 -0)
(9.81113e-33 -4.05666e-16 -0)
(-7.52685e-31 7.77749e-15 -0)
(-3.76779e-30 3.69536e-14 -0)
(1.76009e-30 -9.01396e-15 -0)
(6.57786e-31 -5.56474e-14 -0)
(-1.05052e-30 -1.16516e-14 0)
(-2.79949e-30 -2.67395e-14 0)
(4.03041e-31 4.65914e-15 0)
(3.4034e-30 5.85747e-14 0)
(9.21942e-32 2.15108e-15 0)
(-9.21164e-31 -2.51734e-14 0)
(6.19693e-32 2.63214e-15 0)
(3.88206e-32 3.77952e-15 0)
(4.10668e-31 -2.8815e-14 -0)
(-7.05982e-31 -2.57932e-14 0)
(-4.81019e-25 -5.74474e-12 0)
(-1.31396e-25 7.46102e-12 -0)
(-7.6871e-27 -1.81174e-12 0)
(-2.56366e-28 3.02007e-13 -0)
(-2.78538e-29 -2.00878e-13 0)
(5.01471e-30 -2.56716e-14 -0)
(1.78412e-29 -1.21596e-13 -0)
(9.72432e-30 -1.52946e-13 -0)
(-4.52474e-30 -1.64639e-13 0)
(-3.58374e-29 -1.57484e-13 0)
(-2.60199e-29 -1.05313e-13 0)
(-9.31005e-30 -4.7383e-14 0)
(-6.83585e-30 -3.82313e-14 0)
(7.50416e-31 2.04488e-14 0)
(3.6843e-32 -1.43437e-15 -0)
(-1.87708e-30 -3.67759e-14 0)
(-3.9548e-30 -5.56836e-14 0)
(-3.52988e-30 -5.36651e-14 0)
(-1.09912e-31 -1.67619e-15 0)
(3.45967e-30 4.19161e-14 0)
(-5.77553e-26 1.43277e-12 -0)
(-3.15197e-26 -3.53903e-12 0)
(-1.2507e-27 6.45246e-13 -0)
(-1.16531e-28 -2.09403e-13 0)
(-6.76125e-30 5.86205e-14 -0)
(2.10193e-30 -7.07336e-14 -0)
(-2.77261e-31 -5.55681e-15 0)
(5.01177e-32 1.93864e-15 0)
(7.30906e-31 2.39568e-14 0)
(1.79408e-30 3.12917e-14 0)
(-1.07222e-30 9.44085e-14 -0)
(1.56669e-31 -2.12868e-15 -0)
(4.03116e-31 4.05977e-14 0)
(-3.85814e-30 -6.1706e-14 0)
(7.42671e-32 8.74883e-16 0)
(3.65215e-31 6.79144e-15 0)
(1.00435e-31 5.91716e-15 0)
(-2.77707e-31 5.14671e-14 -0)
(-2.38673e-31 -5.37503e-15 0)
(-8.62121e-31 -1.78292e-14 0)
(-1.29277e-25 3.23787e-12 -0)
(-2.9446e-26 -3.63989e-12 0)
(-1.9464e-27 8.96003e-13 -0)
(-2.47294e-29 -1.15575e-13 0)
(-2.55637e-29 1.25678e-13 -0)
(-1.208e-30 -2.91835e-14 0)
(7.37347e-30 8.33838e-14 0)
(2.36397e-30 1.14165e-13 0)
(3.48085e-30 1.12345e-13 0)
(-2.13782e-30 1.15284e-13 -0)
(-3.32137e-30 8.81998e-14 -0)
(-1.5131e-29 1.73142e-13 -0)
(-5.67285e-30 3.97331e-14 -0)
(1.88168e-30 3.27938e-14 0)
(2.1343e-30 2.98965e-14 0)
(1.0942e-30 3.71354e-14 0)
(-2.47866e-30 8.57252e-14 -0)
(-3.12871e-31 2.13782e-14 -0)
(7.81669e-31 2.75675e-14 0)
(-1.75165e-32 9.09483e-16 -0)
(-4.6952e-25 -5.65483e-12 0)
(-1.42973e-25 7.79146e-12 -0)
(-6.00677e-27 -1.59756e-12 0)
(-5.68248e-28 4.40438e-13 -0)
(1.07585e-29 -1.05155e-13 -0)
(-2.12527e-29 8.90592e-14 -0)
(-3.04632e-30 1.69474e-14 -0)
(1.88967e-30 -1.37873e-14 -0)
(5.10596e-30 -1.21922e-13 -0)
(1.30319e-31 -6.38548e-14 -0)
(-3.89593e-30 -7.13953e-14 0)
(-1.06189e-29 -6.25337e-14 0)
(-3.06183e-30 -2.22186e-14 0)
(1.5873e-30 1.3124e-14 0)
(2.73294e-31 4.1631e-14 0)
(6.76416e-31 -2.78215e-14 -0)
(-5.38859e-31 -3.92505e-14 0)
(-3.38416e-30 -3.48372e-14 0)
(9.45744e-31 1.03871e-14 0)
(-2.39115e-31 3.55372e-14 -0)
(-5.20307e-25 7.51483e-12 -0)
(-9.61666e-26 -6.7978e-12 0)
(-5.38276e-27 1.57038e-12 -0)
(-1.9317e-28 -3.16012e-13 0)
(-2.61425e-29 9.77109e-14 -0)
(1.44226e-30 -1.52164e-14 -0)
(5.12543e-31 -4.44201e-15 -0)
(1.05834e-30 -2.10143e-14 -0)
(-2.86743e-30 1.62651e-14 -0)
(1.89491e-29 -8.89569e-14 -0)
(1.48044e-29 -1.48229e-13 -0)
(-2.54616e-29 -1.37578e-13 0)
(-1.31802e-29 -6.87519e-14 0)
(-2.32129e-30 -3.90546e-14 0)
(-1.92203e-30 -4.787e-14 0)
(-7.33494e-33 1.85026e-15 -0)
(-1.94145e-30 -8.96806e-14 0)
(-4.28502e-31 -5.37709e-15 0)
(-1.70459e-30 -2.26014e-14 0)
(3.81452e-31 1.10074e-14 0)
(-2.5127e-25 -5.56783e-12 0)
(-4.18163e-26 4.52692e-12 -0)
(-2.35371e-27 -1.16054e-12 0)
(-5.73723e-29 9.35313e-14 -0)
(-1.22199e-30 -1.42025e-13 0)
(5.98096e-31 -9.49381e-14 -0)
(-1.84724e-29 -1.27543e-13 0)
(-1.9976e-30 -1.08023e-14 0)
(-1.5634e-30 8.59278e-14 -0)
(-1.34982e-30 1.02064e-14 -0)
(1.22837e-29 -1.02144e-13 -0)
(-4.57247e-30 -6.01336e-14 0)
(-1.70544e-29 -8.12011e-14 0)
(-1.05993e-30 -1.41517e-14 0)
(-4.92321e-30 -6.11628e-14 0)
(-1.16733e-29 -8.08261e-14 0)
(1.21623e-30 1.6087e-14 0)
(-2.06068e-32 1.253e-15 -0)
(-4.18735e-30 -6.6389e-14 0)
(-1.08118e-30 -1.02635e-14 0)
(1.22878e-26 -1.19319e-12 -0)
(-2.00165e-27 -6.70437e-13 0)
(-7.72804e-29 1.26203e-13 -0)
(-7.93903e-30 -8.16348e-14 0)
(8.77937e-30 -1.30932e-13 -0)
(-2.1169e-30 -4.12481e-14 0)
(-5.66364e-31 -7.61467e-15 0)
(-8.3125e-30 -6.52125e-14 0)
(-1.01664e-29 -5.51314e-14 0)
(5.21613e-30 3.81629e-14 0)
(6.79997e-30 9.21107e-14 0)
(2.20156e-30 7.66403e-14 0)
(1.03126e-29 8.55304e-14 0)
(-2.14281e-30 1.59593e-13 -0)
(-1.34231e-29 1.11761e-13 -0)
(-3.65896e-30 7.81277e-14 -0)
(-1.05572e-29 1.19654e-13 -0)
(-3.73827e-30 2.34854e-14 -0)
(9.10458e-31 -1.74973e-14 -0)
(-5.72477e-32 -3.62353e-15 0)
(-2.74152e-25 6.12866e-12 -0)
(-4.028e-26 -4.6546e-12 0)
(-2.28535e-27 1.15341e-12 -0)
(-3.54486e-29 -9.52192e-14 0)
(-4.11492e-29 1.9047e-13 -0)
(-2.05014e-32 1.15719e-16 -0)
(9.20803e-30 -4.23947e-14 -0)
(1.36332e-30 -5.61774e-14 -0)
(-4.79062e-31 -6.51556e-15 0)
(2.03135e-30 4.96814e-14 0)
(5.75553e-30 4.84418e-14 0)
(1.98342e-30 2.01219e-14 0)
(-1.05769e-29 1.28351e-13 -0)
(-2.08267e-30 2.06743e-14 -0)
(1.95172e-31 -1.07843e-14 -0)
(3.64784e-31 5.13372e-14 0)
(2.94117e-31 2.76653e-14 0)
(6.04482e-32 4.02065e-14 0)
(-1.42591e-29 1.18448e-13 -0)
(-5.12586e-31 5.18964e-15 -0)
(-7.13848e-25 -7.48567e-12 0)
(-1.79618e-25 8.877e-12 -0)
(-9.59826e-27 -2.04456e-12 0)
(-4.14159e-28 4.74586e-13 -0)
(-1.04617e-29 -4.76122e-14 0)
(-1.4308e-29 1.14007e-13 -0)
(-2.48005e-30 2.3136e-14 -0)
(-6.48771e-30 7.56055e-14 -0)
(-2.67251e-30 5.33457e-14 -0)
(-8.99462e-32 1.16562e-15 -0)
(-4.66835e-31 7.55956e-15 -0)
(-2.58666e-30 1.69327e-14 -0)
(1.47037e-29 -6.36301e-14 -0)
(6.99396e-30 -1.19429e-13 -0)
(-9.81821e-30 -6.54282e-14 0)
(-7.99669e-31 -1.49139e-14 0)
(-1.65088e-30 -5.8647e-14 0)
(-5.80271e-30 -5.92185e-14 0)
(-1.45772e-30 -1.86329e-14 0)
(1.21384e-31 9.14998e-15 0)
(-3.16079e-25 3.95438e-12 -0)
(-1.2368e-25 -7.0196e-12 0)
(-6.37756e-27 1.57734e-12 -0)
(-4.08554e-28 -3.95586e-13 0)
(-1.13587e-29 1.29985e-13 -0)
(2.53999e-31 6.38563e-14 0)
(-2.47685e-29 1.34724e-13 -0)
(-1.275e-29 4.92155e-14 -0)
(-3.19643e-31 2.38718e-15 -0)
(1.48366e-31 -1.24837e-14 -0)
(-9.23428e-32 1.01891e-14 -0)
(-8.11857e-31 7.13559e-15 -0)
(5.40254e-30 -6.718e-14 -0)
(-1.54744e-30 -9.71791e-14 0)
(-4.70763e-30 -6.01839e-14 0)
(-1.32256e-30 -1.748e-14 0)
(-1.89637e-31 1.05181e-14 -0)
(3.07366e-31 -1.04124e-14 -0)
(-3.28374e-30 -3.81414e-14 0)
(-8.41687e-31 -1.04113e-14 0)
(-7.56327e-27 1.55879e-12 -0)
(1.02966e-28 -6.24531e-13 -0)
(-3.65585e-29 1.56896e-13 -0)
(1.02326e-29 -2.7029e-14 -0)
(1.30239e-29 -5.57122e-14 -0)
(7.99415e-30 -8.64173e-14 -0)
(-1.13097e-29 -1.28081e-13 0)
(-5.5198e-30 -5.30227e-14 0)
(-1.6131e-30 -2.11066e-14 0)
(2.7621e-31 6.26068e-15 0)
(1.18812e-32 8.5973e-16 0)
(-8.99286e-32 -2.5317e-15 0)
(3.99606e-31 1.02105e-14 0)
(-3.00116e-30 4.50733e-14 -0)
(-1.43094e-31 1.01813e-15 -0)
(9.87512e-31 -1.28641e-14 -0)
(7.45157e-31 -6.25898e-14 -0)
(-4.74858e-32 -6.75322e-15 0)
(-3.22467e-31 -5.79697e-15 0)
(7.84098e-31 1.20628e-14 0)
(-3.6456e-25 -4.15905e-12 0)
(-1.4163e-25 7.69023e-12 -0)
(-6.83839e-27 -1.71994e-12 0)
(-4.85422e-28 3.98708e-13 -0)
(2.21186e-30 -1.98867e-13 -0)
(3.96521e-30 -9.44779e-14 -0)
(-2.4467e-31 -2.03037e-15 0)
(-4.94734e-31 2.28346e-14 -0)
(-8.93948e-31 8.28954e-15 -0)
(8.90597e-31 -8.51746e-15 -0)
(4.118e-31 -1.81683e-14 -0)
(-6.59664e-31 -8.55359e-15 0)
(4.80427e-31 7.64159e-15 0)
(4.60211e-32 6.52342e-14 0)
(-6.8774e-31 1.45181e-14 -0)
(6.04913e-31 -4.18696e-15 -0)
(1.05767e-31 -1.92248e-14 -0)
(-2.57718e-30 -5.39468e-14 0)
(-3.8379e-32 4.71788e-15 -0)
(-4.47769e-34 -7.54101e-16 0)
(-1.41907e-25 2.72187e-12 -0)
(-5.15686e-26 -4.53758e-12 0)
(-3.07066e-27 1.13963e-12 -0)
(-1.04337e-28 -2.0433e-13 0)
(-1.74481e-29 1.60005e-13 -0)
(-5.75442e-31 1.10284e-13 -0)
(-1.62042e-29 1.26904e-13 -0)
(-1.05422e-29 5.54684e-14 -0)
(-5.55523e-30 3.96034e-14 -0)
(1.0139e-30 -2.30482e-14 -0)
(3.90065e-30 4.32394e-14 0)
(2.61546e-30 3.97989e-14 0)
(-3.29748e-30 8.97805e-14 -0)
(-4.37202e-31 2.3088e-14 -0)
(1.73986e-31 5.05366e-14 0)
(5.21483e-31 2.92986e-14 0)
(-1.65419e-30 8.94518e-14 -0)
(-4.23815e-30 6.66714e-14 -0)
(-7.98689e-30 5.58112e-14 -0)
(-3.84893e-31 4.83662e-15 -0)
(-1.50229e-25 3.05635e-12 -0)
(-4.51504e-26 -4.55329e-12 0)
(-1.89557e-27 8.36906e-13 -0)
(-1.24547e-28 -2.69153e-13 0)
(4.91355e-31 -4.25262e-15 -0)
(1.27368e-30 -3.45734e-14 -0)
(2.55524e-30 -6.25388e-14 -0)
(-3.1094e-30 -6.69457e-14 0)
(-4.69277e-30 -5.42533e-14 0)
(2.97078e-31 6.33717e-15 0)
(-8.95267e-31 -3.8713e-14 0)
(9.6574e-31 -8.93435e-15 -0)
(4.44124e-30 -2.80061e-14 -0)
(3.35496e-30 -3.38603e-14 -0)
(5.18226e-31 -5.69298e-15 -0)
(1.20429e-30 -2.85697e-14 -0)
(1.87748e-30 -2.458e-14 -0)
(-3.82445e-33 5.67399e-17 -0)
(4.31873e-30 -5.61239e-14 -0)
(1.91257e-30 -3.96265e-14 -0)
)
;

boundaryField
{
    movingWall
    {
        type            calculated;
        value           nonuniform List<vector> 
20
(
(0 6.32179e-12 -0)
(0 -5.6214e-12 -0)
(0 5.45646e-13 -0)
(0 -4.81396e-13 -0)
(0 -3.05314e-13 -0)
(0 -2.73922e-13 -0)
(0 -2.30373e-13 -0)
(0 -2.3478e-13 -0)
(0 -1.77679e-13 -0)
(0 -1.71299e-13 -0)
(0 -2.95365e-13 -0)
(0 -3.37101e-13 -0)
(0 -1.78537e-13 -0)
(0 -2.288e-13 -0)
(0 -1.83329e-13 -0)
(0 -1.791e-13 -0)
(0 -1.75111e-13 -0)
(0 5.67399e-17 -0)
(0 -9.07317e-14 -0)
(0 -1.01339e-13 -0)
)
;
    }
    fixedWalls
    {
        type            calculated;
        value           nonuniform List<vector> 
60
(
(0 -4.67642e-11 -0)
(0 -3.1346e-12 -0)
(0 3.15932e-11 -0)
(0 -2.22419e-11 -0)
(0 5.11208e-12 -0)
(0 1.85119e-11 -0)
(0 -3.26255e-11 -0)
(0 1.44165e-11 -0)
(0 1.60248e-11 -0)
(0 -3.23988e-11 -0)
(0 2.97007e-11 -0)
(0 -2.00302e-11 -0)
(0 2.19485e-12 -0)
(0 2.04139e-11 -0)
(0 -3.81176e-11 -0)
(0 2.96957e-11 -0)
(0 2.99791e-12 -0)
(0 -3.22971e-11 -0)
(0 1.94991e-11 -0)
(0 1.87939e-11 -0)
(0 1.97419e-14 -0)
(0 5.63829e-16 -0)
(0 -3.44001e-14 -0)
(0 -4.7068e-15 -0)
(0 -1.80117e-14 -0)
(0 -1.61567e-14 -0)
(0 6.01202e-14 -0)
(0 -7.76327e-15 -0)
(0 -7.70395e-15 -0)
(0 2.44136e-14 -0)
(0 1.38617e-14 -0)
(0 1.50319e-14 -0)
(0 6.31956e-15 -0)
(0 -1.24033e-14 -0)
(0 5.30643e-15 -0)
(0 5.23247e-15 -0)
(0 2.60005e-14 -0)
(0 2.37512e-16 -0)
(0 -4.72649e-15 -0)
(0 -4.6411e-14 -0)
(0 -1.30648e-11 -0)
(0 1.29647e-11 -0)
(0 -2.18973e-12 -0)
(0 8.40064e-13 -0)
(0 1.67757e-14 -0)
(0 1.6846e-13 -0)
(0 1.7908e-13 -0)
(0 9.37684e-14 -0)
(0 1.44291e-13 -0)
(0 1.07655e-13 -0)
(0 9.45299e-14 -0)
(0 1.68858e-13 -0)
(0 7.4502e-14 -0)
(0 1.64834e-13 -0)
(0 1.32421e-13 -0)
(0 1.42711e-13 -0)
(0 9.04259e-14 -0)
(0 8.10315e-14 -0)
(0 4.37328e-14 -0)
(0 5.74792e-14 -0)
)
;
    }
    frontAndBack
    {
        type            empty;
    }
}


// ************************************************************************* //
