/*--------------------------------*- C++ -*----------------------------------*\
| =========                 |                                                 |
| \\      /  F ield         | OpenFOAM: The Open Source CFD Toolbox           |
|  \\    /   O peration     | Version:  2506                                  |
|   \\  /    A nd           | Website:  www.openfoam.com                      |
|    \\/     M anipulation  |                                                 |
\*---------------------------------------------------------------------------*/
FoamFile
{
    version     2.0;
    format      ascii;
    arch        "LSB;label=32;scalar=64";
    class       volScalarField;
    location    "8.5";
    object      magSqrP;
}
// * * * * * * * * * * * * * * * * * * * * * * * * * * * * * * * * * * * * * //

dimensions      [0 4 -4 0 0 0 0];

internalField   nonuniform List<scalar> 
400
(
0
1.26461e-29
7.03982e-30
9.84641e-30
1.07425e-29
1.17714e-29
1.32482e-29
1.54793e-29
1.56696e-29
1.65007e-29
1.70676e-29
1.70194e-29
1.64206e-29
1.569e-29
1.48998e-29
1.50305e-29
1.63172e-29
1.7969e-29
1.9952e-29
2.05747e-29
5.8777e-30
0
7.72943e-30
7.65152e-30
9.46418e-30
1.18592e-29
1.35263e-29
1.60621e-29
1.5976e-29
1.7109e-29
1.75008e-29
1.6945e-29
1.69753e-29
1.54769e-29
1.41037e-29
1.48249e-29
1.7229e-29
1.90761e-29
2.04639e-29
1.87705e-29
6.2696e-30
1.09002e-29
7.27736e-30
1.00903e-29
1.17528e-29
1.20085e-29
1.42631e-29
1.67404e-29
1.59995e-29
1.76252e-29
1.72709e-29
1.73742e-29
1.65419e-29
1.54669e-29
1.40291e-29
1.38068e-29
1.68424e-29
1.95764e-29
2.05352e-29
2.00958e-29
6.41032e-30
1.10723e-29
9.8305e-30
1.16266e-29
1.16237e-29
1.20079e-29
1.36504e-29
1.71429e-29
1.72159e-29
1.73551e-29
1.79313e-29
1.76984e-29
1.64805e-29
1.58748e-29
1.48562e-29
1.56062e-29
1.64445e-29
1.86677e-29
2.01694e-29
2.10169e-29
1.10991e-29
3.89108e-30
1.13348e-29
1.204e-29
1.15662e-29
1.28166e-29
1.47576e-29
1.85052e-29
1.64661e-29
1.71589e-29
1.73235e-29
1.73133e-29
1.63505e-29
1.59737e-29
1.51924e-29
1.53701e-29
1.65561e-29
1.69847e-29
1.94124e-29
2.28429e-29
8.76759e-30
1.68659e-29
1.17222e-29
1.32641e-29
1.33841e-29
1.46204e-29
1.5408e-29
1.77759e-29
1.83206e-29
1.77485e-29
1.70755e-29
1.85669e-29
1.64579e-29
1.52599e-29
1.41312e-29
1.49996e-29
1.57922e-29
1.59353e-29
1.92059e-29
2.30697e-29
1.33003e-29
2.14152e-29
1.26922e-29
1.45134e-29
1.39595e-29
1.50496e-29
1.61179e-29
1.82445e-29
1.93259e-29
1.79949e-29
1.71097e-29
1.7213e-29
1.57714e-29
1.51487e-29
1.54991e-29
1.59775e-29
1.60922e-29
1.55012e-29
1.83065e-29
2.21143e-29
2.0745e-29
1.75412e-30
1.49214e-29
1.42449e-29
1.67201e-29
1.81759e-29
1.78072e-29
1.96717e-29
2.05607e-29
1.77534e-29
1.55576e-29
1.77883e-29
1.52965e-29
1.54568e-29
1.59612e-29
1.61586e-29
1.56133e-29
1.46113e-29
1.76662e-29
2.00816e-29
1.75713e-29
3.76602e-29
1.62714e-29
1.66643e-29
1.81227e-29
2.0118e-29
1.81789e-29
1.93692e-29
2.00265e-29
1.7218e-29
1.61396e-29
1.80004e-29
1.6749e-29
1.6005e-29
1.57143e-29
1.58738e-29
1.57371e-29
1.57428e-29
1.84612e-29
2.0595e-29
1.72048e-29
1.26841e-29
1.96412e-29
1.94165e-29
1.93453e-29
2.0052e-29
1.84919e-29
2.07814e-29
2.09153e-29
1.73207e-29
1.65051e-29
1.75229e-29
1.81142e-29
1.53111e-29
1.58202e-29
1.62956e-29
1.61378e-29
1.57593e-29
1.8921e-29
2.08322e-29
1.70875e-29
1.7229e-29
2.13912e-29
2.04773e-29
2.03138e-29
1.93292e-29
1.84075e-29
2.06271e-29
2.14724e-29
1.90463e-29
1.96405e-29
1.88357e-29
1.76236e-29
1.55917e-29
1.63287e-29
1.76242e-29
1.74951e-29
1.5625e-29
1.67688e-29
2.05415e-29
1.80088e-29
4.62643e-29
2.15802e-29
2.37818e-29
2.11648e-29
2.08088e-29
1.99091e-29
1.94409e-29
2.18822e-29
2.0615e-29
2.15154e-29
1.88424e-29
1.85044e-29
1.67557e-29
1.51709e-29
1.73662e-29
1.7969e-29
1.65287e-29
1.80428e-29
1.92968e-29
2.817e-29
4.73294e-30
2.42881e-29
2.25628e-29
2.2227e-29
2.04879e-29
1.77166e-29
1.82973e-29
2.1868e-29
2.09377e-29
2.18745e-29
2.09282e-29
1.66923e-29
1.71615e-29
1.75253e-29
1.71196e-29
1.77864e-29
1.76859e-29
1.75614e-29
1.70244e-29
2.25915e-29
4.22103e-29
2.36135e-29
2.50938e-29
2.3832e-29
2.12164e-29
1.87537e-29
2.0125e-29
2.07418e-29
2.1055e-29
2.1551e-29
2.10329e-29
1.7737e-29
1.78421e-29
1.87269e-29
1.77862e-29
1.73204e-29
1.69825e-29
1.77185e-29
1.88331e-29
2.58014e-29
2.63926e-29
2.3403e-29
2.29405e-29
2.43645e-29
2.25688e-29
2.16262e-29
2.02834e-29
2.08103e-29
2.15986e-29
2.19292e-29
2.07733e-29
1.94952e-29
2.06796e-29
1.88076e-29
1.64578e-29
1.64541e-29
1.52838e-29
1.69602e-29
1.94595e-29
2.87561e-29
9.34136e-30
2.45936e-29
2.17741e-29
2.44951e-29
2.3242e-29
2.19684e-29
2.20091e-29
2.21009e-29
2.18352e-29
2.14961e-29
2.05036e-29
2.11769e-29
2.18425e-29
1.93563e-29
1.91096e-29
1.64975e-29
1.4475e-29
1.53958e-29
1.79014e-29
1.78777e-29
4.77186e-29
2.49904e-29
2.72193e-29
2.45137e-29
2.48836e-29
2.40813e-29
2.4077e-29
2.41083e-29
2.30688e-29
2.18569e-29
2.08718e-29
2.06616e-29
2.0524e-29
1.85441e-29
1.68462e-29
1.64471e-29
1.50759e-29
1.46734e-29
1.66923e-29
2.15422e-29
1.90653e-29
2.56836e-29
2.7066e-29
2.91201e-29
2.69217e-29
2.50699e-29
2.58345e-29
2.40574e-29
2.29456e-29
2.33095e-29
2.15657e-29
2.02089e-29
1.98061e-29
1.80301e-29
1.78443e-29
1.59473e-29
1.44561e-29
1.33905e-29
1.53891e-29
2.48723e-29
1.05898e-29
2.57608e-29
2.79541e-29
2.88717e-29
2.7507e-29
2.56154e-29
2.68386e-29
2.72604e-29
2.57491e-29
2.55842e-29
2.05074e-29
1.8752e-29
1.9738e-29
1.79913e-29
1.77919e-29
1.51549e-29
1.24479e-29
1.37945e-29
1.61915e-29
1.31109e-29
3.59979e-29
2.44122e-29
2.89681e-29
2.88758e-29
2.87878e-29
2.70971e-29
2.69355e-29
2.68713e-29
2.64212e-29
2.39111e-29
2.25043e-29
2.0619e-29
1.82826e-29
1.6944e-29
1.68422e-29
1.58196e-29
1.34163e-29
1.41039e-29
1.73248e-29
)
;

boundaryField
{
    movingWall
    {
        type            calculated;
        value           nonuniform List<scalar> 
20
(
1.31109e-29
3.59979e-29
2.44122e-29
2.89681e-29
2.88758e-29
2.87878e-29
2.70971e-29
2.69355e-29
2.68713e-29
2.64212e-29
2.39111e-29
2.25043e-29
2.0619e-29
1.82826e-29
1.6944e-29
1.68422e-29
1.58196e-29
1.34163e-29
1.41039e-29
1.73248e-29
)
;
    }
    fixedWalls
    {
        type            calculated;
        value           nonuniform List<scalar> 
60
(
0
5.8777e-30
6.2696e-30
6.41032e-30
1.10991e-29
8.76759e-30
1.33003e-29
2.0745e-29
1.75713e-29
1.72048e-29
1.70875e-29
1.80088e-29
2.817e-29
2.25915e-29
2.58014e-29
2.87561e-29
1.78777e-29
2.15422e-29
2.48723e-29
1.31109e-29
2.05747e-29
1.87705e-29
2.00958e-29
2.10169e-29
2.28429e-29
2.30697e-29
2.21143e-29
2.00816e-29
2.0595e-29
2.08322e-29
2.05415e-29
1.92968e-29
1.70244e-29
1.88331e-29
1.94595e-29
1.79014e-29
1.66923e-29
1.53891e-29
1.61915e-29
1.73248e-29
0
1.26461e-29
7.03982e-30
9.84641e-30
1.07425e-29
1.17714e-29
1.32482e-29
1.54793e-29
1.56696e-29
1.65007e-29
1.70676e-29
1.70194e-29
1.64206e-29
1.569e-29
1.48998e-29
1.50305e-29
1.63172e-29
1.7969e-29
1.9952e-29
2.05747e-29
)
;
    }
    frontAndBack
    {
        type            empty;
    }
}


// ************************************************************************* //
