/*--------------------------------*- C++ -*----------------------------------*\
| =========                 |                                                 |
| \\      /  F ield         | OpenFOAM: The Open Source CFD Toolbox           |
|  \\    /   O peration     | Version:  2506                                  |
|   \\  /    A nd           | Website:  www.openfoam.com                      |
|    \\/     M anipulation  |                                                 |
\*---------------------------------------------------------------------------*/
FoamFile
{
    version     2.0;
    format      ascii;
    arch        "LSB;label=32;scalar=64";
    class       volVectorField;
    location    "8.5";
    object      momentum1:momentum;
}
// * * * * * * * * * * * * * * * * * * * * * * * * * * * * * * * * * * * * * //

dimensions      [1 1 -1 0 0 0 0];

internalField   nonuniform List<vector> 
400
(
(-2.5e-07 2.96342e-20 0)
(-2.5e-07 -6.29816e-21 0)
(-2.5e-07 1.55221e-21 0)
(-2.5e-07 -2.68712e-22 0)
(-2.5e-07 1.18188e-22 0)
(-2.5e-07 2.24152e-23 0)
(-2.5e-07 3.01053e-23 0)
(-2.5e-07 1.88047e-23 0)
(-2.5e-07 1.7729e-23 0)
(-2.5e-07 -8.85497e-24 0)
(-2.5e-07 -2.93645e-23 0)
(-2.5e-07 -2.31351e-23 0)
(-2.5e-07 -7.42114e-24 0)
(-2.5e-07 1.26546e-23 0)
(-2.5e-07 2.45825e-23 0)
(-2.5e-07 1.46686e-23 0)
(-2.5e-07 8.71125e-25 0)
(-2.5e-07 1.06484e-23 0)
(-2.5e-07 2.03371e-23 0)
(-2.5e-07 1.23387e-23 0)
(-2.5e-07 2.4504e-21 0)
(-2.5e-07 -3.97659e-22 0)
(-2.5e-07 1.68973e-22 0)
(-2.5e-07 -5.77682e-24 0)
(-2.5e-07 -1.08648e-23 0)
(-2.5e-07 -1.09881e-23 0)
(-2.5e-07 -1.09769e-23 0)
(-2.5e-07 -8.77053e-24 0)
(-2.5e-07 -5.3802e-24 0)
(-2.5e-07 -1.22578e-23 0)
(-2.5e-07 3.33175e-24 0)
(-2.5e-07 8.24387e-24 0)
(-2.5e-07 2.2972e-23 0)
(-2.5e-07 -5.93909e-24 0)
(-2.5e-07 -1.09806e-23 0)
(-2.5e-07 1.23121e-23 0)
(-2.5e-07 1.8399e-23 0)
(-2.5e-07 1.64936e-23 0)
(-2.5e-07 3.002e-24 0)
(-2.5e-07 3.52393e-25 0)
(-2.5e-07 -2.15584e-20 0)
(-2.5e-07 4.712e-21 0)
(-2.5e-07 -1.07923e-21 0)
(-2.5e-07 2.10436e-22 0)
(-2.5e-07 -8.90899e-23 0)
(-2.5e-07 -2.1004e-23 0)
(-2.5e-07 -2.35574e-23 0)
(-2.5e-07 -2.72958e-23 0)
(-2.5e-07 -2.69237e-23 0)
(-2.5e-07 -4.48728e-25 0)
(-2.5e-07 1.88572e-23 0)
(-2.5e-07 1.82473e-23 0)
(-2.5e-07 2.4171e-23 0)
(-2.5e-07 -3.96006e-24 0)
(-2.5e-07 -2.5497e-23 0)
(-2.5e-07 -2.552e-23 0)
(-2.5e-07 1.1806e-24 0)
(-2.5e-07 -3.04009e-24 0)
(-2.5e-07 -2.91599e-23 0)
(-2.5e-07 -2.15001e-23 0)
(-2.5e-07 1.46804e-20 0)
(-2.5e-07 -3.14404e-21 0)
(-2.5e-07 7.36593e-22 0)
(-2.5e-07 -1.73583e-22 0)
(-2.5e-07 6.04692e-23 0)
(-2.5e-07 7.91581e-24 0)
(-2.5e-07 3.85142e-23 0)
(-2.5e-07 3.48119e-23 0)
(-2.5e-07 5.34038e-23 0)
(-2.5e-07 3.70723e-23 0)
(-2.5e-07 1.28646e-23 0)
(-2.5e-07 2.55062e-24 0)
(-2.5e-07 -5.58294e-24 0)
(-2.5e-07 9.95249e-24 0)
(-2.5e-07 6.41753e-24 0)
(-2.5e-07 -2.10697e-23 0)
(-2.5e-07 -1.71611e-23 0)
(-2.5e-07 -3.10105e-24 0)
(-2.5e-07 -1.11284e-23 0)
(-2.5e-07 -1.98824e-23 0)
(-2.5e-07 -3.22893e-21 0)
(-2.5e-07 6.7016e-22 0)
(-2.5e-07 -1.94856e-22 0)
(-2.5e-07 2.13723e-23 0)
(-2.5e-07 -3.62607e-23 0)
(-2.5e-07 -3.66939e-23 0)
(-2.5e-07 -1.88401e-23 0)
(-2.5e-07 -3.62549e-24 0)
(-2.5e-07 -8.30085e-24 0)
(-2.5e-07 -9.69555e-24 0)
(-2.5e-07 8.43433e-25 0)
(-2.5e-07 5.7992e-24 0)
(-2.5e-07 1.73507e-23 0)
(-2.5e-07 2.94236e-23 0)
(-2.5e-07 3.55596e-23 0)
(-2.5e-07 2.21512e-23 0)
(-2.5e-07 1.5484e-23 0)
(-2.5e-07 1.18714e-23 0)
(-2.5e-07 -1.00381e-23 0)
(-2.5e-07 -1.12573e-23 0)
(-2.5e-07 -1.14005e-20 0)
(-2.5e-07 2.3421e-21 0)
(-2.5e-07 -5.23097e-22 0)
(-2.5e-07 1.41851e-22 0)
(-2.5e-07 -2.52085e-23 0)
(-2.5e-07 -6.04631e-24 0)
(-2.5e-07 -2.41943e-23 0)
(-2.5e-07 -2.549e-23 0)
(-2.5e-07 -4.88156e-23 0)
(-2.5e-07 -2.95515e-24 0)
(-2.5e-07 2.25404e-23 0)
(-2.5e-07 2.61737e-23 0)
(-2.5e-07 2.16264e-23 0)
(-2.5e-07 1.45259e-23 0)
(-2.5e-07 1.07149e-23 0)
(-2.5e-07 9.14818e-24 0)
(-2.5e-07 5.88583e-24 0)
(-2.5e-07 2.56782e-24 0)
(-2.5e-07 -3.56297e-24 0)
(-2.5e-07 6.84272e-24 0)
(-2.5e-07 2.0933e-20 0)
(-2.5e-07 -4.40276e-21 0)
(-2.5e-07 1.06073e-21 0)
(-2.5e-07 -2.12218e-22 0)
(-2.5e-07 3.4665e-23 0)
(-2.5e-07 -4.88352e-23 0)
(-2.5e-07 -3.66813e-23 0)
(-2.5e-07 -1.5895e-23 0)
(-2.5e-07 6.87069e-24 0)
(-2.5e-07 5.68904e-23 0)
(-2.5e-07 6.17683e-23 0)
(-2.5e-07 4.91212e-23 0)
(-2.5e-07 4.47005e-23 0)
(-2.5e-07 9.17432e-24 0)
(-2.5e-07 -6.42146e-24 0)
(-2.5e-07 1.27602e-23 0)
(-2.5e-07 1.77557e-23 0)
(-2.5e-07 1.6444e-23 0)
(-2.5e-07 1.63931e-23 0)
(-2.5e-07 2.06345e-23 0)
(-2.5e-07 -1.00775e-20 0)
(-2.5e-07 2.22658e-21 0)
(-2.5e-07 -4.84581e-22 0)
(-2.5e-07 1.39122e-22 0)
(-2.5e-07 -2.88349e-23 0)
(-2.5e-07 -7.42904e-24 0)
(-2.5e-07 1.24739e-23 0)
(-2.5e-07 6.46298e-24 0)
(-2.5e-07 7.62733e-24 0)
(-2.5e-07 1.43335e-23 0)
(-2.5e-07 -2.83931e-24 0)
(-2.5e-07 -1.83998e-23 0)
(-2.5e-07 2.48238e-24 0)
(-2.5e-07 1.56312e-23 0)
(-2.5e-07 2.1222e-23 0)
(-2.5e-07 1.3444e-23 0)
(-2.5e-07 4.24338e-24 0)
(-2.5e-07 -1.34895e-24 0)
(-2.5e-07 1.1101e-23 0)
(-2.5e-07 1.20886e-23 0)
(-2.5e-07 -9.98161e-21 0)
(-2.5e-07 2.02245e-21 0)
(-2.5e-07 -5.43077e-22 0)
(-2.5e-07 5.34921e-23 0)
(-2.5e-07 -5.08516e-23 0)
(-2.5e-07 1.03483e-23 0)
(-2.5e-07 2.2107e-23 0)
(-2.5e-07 5.17666e-24 0)
(-2.5e-07 7.74587e-24 0)
(-2.5e-07 -4.63597e-24 0)
(-2.5e-07 -9.41433e-24 0)
(-2.5e-07 -2.18476e-23 0)
(-2.5e-07 -3.56935e-23 0)
(-2.5e-07 1.43448e-23 0)
(-2.5e-07 1.78474e-23 0)
(-2.5e-07 7.36627e-24 0)
(-2.5e-07 -7.2285e-24 0)
(-2.5e-07 -3.65877e-24 0)
(-2.5e-07 7.08868e-24 0)
(-2.5e-07 -4.81497e-24 0)
(-2.5e-07 2.07575e-20 0)
(-2.5e-07 -4.58749e-21 0)
(-2.5e-07 9.39991e-22 0)
(-2.5e-07 -3.22547e-22 0)
(-2.5e-07 -2.55776e-23 0)
(-2.5e-07 -5.96589e-23 0)
(-2.5e-07 -4.49378e-23 0)
(-2.5e-07 -3.42648e-23 0)
(-2.5e-07 -1.04697e-23 0)
(-2.5e-07 -5.10218e-25 0)
(-2.5e-07 1.36421e-23 0)
(-2.5e-07 4.24527e-23 0)
(-2.5e-07 3.44511e-23 0)
(-2.5e-07 3.02367e-23 0)
(-2.5e-07 1.64117e-24 0)
(-2.5e-07 -6.07819e-24 0)
(-2.5e-07 3.43218e-24 0)
(-2.5e-07 2.42855e-23 0)
(-2.5e-07 2.27625e-23 0)
(-2.5e-07 -1.68215e-24 0)
(-2.5e-07 -1.73093e-20 0)
(-2.5e-07 3.53668e-21 0)
(-2.5e-07 -8.56918e-22 0)
(-2.5e-07 1.52819e-22 0)
(-2.5e-07 -6.68875e-23 0)
(-2.5e-07 -2.36957e-23 0)
(-2.5e-07 -2.88464e-23 0)
(-2.5e-07 -1.25907e-23 0)
(-2.5e-07 -4.40732e-23 0)
(-2.5e-07 -5.32536e-23 0)
(-2.5e-07 -2.49689e-23 0)
(-2.5e-07 4.62674e-23 0)
(-2.5e-07 4.79266e-23 0)
(-2.5e-07 1.48592e-23 0)
(-2.5e-07 1.00378e-23 0)
(-2.5e-07 -9.91068e-25 0)
(-2.5e-07 5.41212e-24 0)
(-2.5e-07 1.99226e-23 0)
(-2.5e-07 1.88548e-23 0)
(-2.5e-07 8.66356e-24 0)
(-2.5e-07 1.12822e-20 0)
(-2.5e-07 -2.30931e-21 0)
(-2.5e-07 5.0703e-22 0)
(-2.5e-07 -1.53351e-22 0)
(-2.5e-07 2.151e-24 0)
(-2.5e-07 -1.57496e-24 0)
(-2.5e-07 3.62083e-23 0)
(-2.5e-07 4.62309e-23 0)
(-2.5e-07 -4.54858e-24 0)
(-2.5e-07 -3.30633e-23 0)
(-2.5e-07 -3.00645e-23 0)
(-2.5e-07 1.90096e-23 0)
(-2.5e-07 5.25068e-23 0)
(-2.5e-07 1.87245e-23 0)
(-2.5e-07 2.01234e-23 0)
(-2.5e-07 3.61061e-23 0)
(-2.5e-07 1.89007e-23 0)
(-2.5e-07 -4.11149e-24 0)
(-2.5e-07 1.57682e-23 0)
(-2.5e-07 2.63356e-23 0)
(-2.5e-07 -2.57457e-21 0)
(-2.5e-07 7.46396e-22 0)
(-2.5e-07 -1.53088e-22 0)
(-2.5e-07 2.43126e-23 0)
(-2.5e-07 -1.67632e-23 0)
(-2.5e-07 1.28303e-23 0)
(-2.5e-07 1.85945e-23 0)
(-2.5e-07 3.18669e-23 0)
(-2.5e-07 4.61006e-23 0)
(-2.5e-07 3.41702e-23 0)
(-2.5e-07 1.8456e-23 0)
(-2.5e-07 7.18146e-24 0)
(-2.5e-07 3.01431e-23 0)
(-2.5e-07 -3.35668e-24 0)
(-2.5e-07 -3.00263e-23 0)
(-2.5e-07 -1.17083e-23 0)
(-2.5e-07 -2.20577e-23 0)
(-2.5e-07 -3.97936e-23 0)
(-2.5e-07 -1.30085e-23 0)
(-2.5e-07 3.94973e-24 0)
(-2.5e-07 -1.11832e-20 0)
(-2.5e-07 2.16345e-21 0)
(-2.5e-07 -4.95346e-22 0)
(-2.5e-07 9.3071e-23 0)
(-2.5e-07 -5.40101e-23 0)
(-2.5e-07 -4.42913e-23 0)
(-2.5e-07 -5.42994e-23 0)
(-2.5e-07 -6.06703e-24 0)
(-2.5e-07 1.83815e-23 0)
(-2.5e-07 1.02219e-23 0)
(-2.5e-07 2.97033e-23 0)
(-2.5e-07 2.46426e-23 0)
(-2.5e-07 -2.06014e-23 0)
(-2.5e-07 -2.51843e-23 0)
(-2.5e-07 -4.52445e-24 0)
(-2.5e-07 1.77641e-24 0)
(-2.5e-07 2.65782e-24 0)
(-2.5e-07 3.75861e-25 0)
(-2.5e-07 -3.00958e-23 0)
(-2.5e-07 -2.46927e-23 0)
(-2.5e-07 2.38405e-20 0)
(-2.5e-07 -5.05851e-21 0)
(-2.5e-07 1.17363e-21 0)
(-2.5e-07 -2.18168e-22 0)
(-2.5e-07 5.49319e-23 0)
(-2.5e-07 -3.13752e-23 0)
(-2.5e-07 -2.67986e-23 0)
(-2.5e-07 -2.14525e-23 0)
(-2.5e-07 -1.25245e-23 0)
(-2.5e-07 -1.92914e-23 0)
(-2.5e-07 -1.54385e-23 0)
(-2.5e-07 -3.81903e-23 0)
(-2.5e-07 -5.77703e-23 0)
(-2.5e-07 -1.46404e-23 0)
(-2.5e-07 3.75152e-23 0)
(-2.5e-07 1.34047e-23 0)
(-2.5e-07 7.03738e-24 0)
(-2.5e-07 2.4497e-23 0)
(-2.5e-07 1.95584e-23 0)
(-2.5e-07 3.31652e-24 0)
(-2.5e-07 -1.99828e-20 0)
(-2.5e-07 4.40483e-21 0)
(-2.5e-07 -1.01081e-21 0)
(-2.5e-07 2.58195e-22 0)
(-2.5e-07 -2.18461e-23 0)
(-2.5e-07 9.94416e-25 0)
(-2.5e-07 -4.59614e-23 0)
(-2.5e-07 -6.47659e-23 0)
(-2.5e-07 -3.3475e-23 0)
(-2.5e-07 -2.9712e-24 0)
(-2.5e-07 -2.26573e-24 0)
(-2.5e-07 -2.84439e-23 0)
(-2.5e-07 -2.01047e-23 0)
(-2.5e-07 3.9809e-24 0)
(-2.5e-07 1.95552e-23 0)
(-2.5e-07 1.89153e-23 0)
(-2.5e-07 -4.50742e-24 0)
(-2.5e-07 -7.37982e-24 0)
(-2.5e-07 2.15235e-23 0)
(-2.5e-07 2.02109e-23 0)
(-2.5e-07 -1.21301e-21 0)
(-2.5e-07 -4.12173e-23 0)
(-2.5e-07 -5.82526e-23 0)
(-2.5e-07 -9.46445e-23 0)
(-2.5e-07 -5.84428e-23 0)
(-2.5e-07 -2.31266e-23 0)
(-2.5e-07 2.20753e-23 0)
(-2.5e-07 2.60257e-23 0)
(-2.5e-07 1.91066e-23 0)
(-2.5e-07 1.10296e-23 0)
(-2.5e-07 3.45493e-24 0)
(-2.5e-07 8.88025e-24 0)
(-2.5e-07 9.78419e-24 0)
(-2.5e-07 -1.6646e-23 0)
(-2.5e-07 -3.51365e-23 0)
(-2.5e-07 -1.91913e-23 0)
(-2.5e-07 -2.97635e-24 0)
(-2.5e-07 1.75789e-24 0)
(-2.5e-07 1.39067e-23 0)
(-2.5e-07 1.62503e-23 0)
(-2.5e-07 2.19136e-20 0)
(-2.5e-07 -4.60422e-21 0)
(-2.5e-07 9.93988e-22 0)
(-2.5e-07 -3.04372e-22 0)
(-2.5e-07 -2.78057e-24 0)
(-2.5e-07 -1.04924e-23 0)
(-2.5e-07 3.01263e-23 0)
(-2.5e-07 -5.4165e-24 0)
(-2.5e-07 -2.69601e-23 0)
(-2.5e-07 -2.61403e-23 0)
(-2.5e-07 -5.66647e-24 0)
(-2.5e-07 1.92803e-23 0)
(-2.5e-07 1.57175e-23 0)
(-2.5e-07 1.76369e-25 0)
(-2.5e-07 -1.18428e-23 0)
(-2.5e-07 -3.61189e-23 0)
(-2.5e-07 -1.3754e-24 0)
(-2.5e-07 1.19432e-23 0)
(-2.5e-07 -2.0337e-24 0)
(-2.5e-07 1.48445e-25 0)
(-2.5e-07 -1.3034e-20 0)
(-2.5e-07 2.8412e-21 0)
(-2.5e-07 -6.73612e-22 0)
(-2.5e-07 1.27657e-22 0)
(-2.5e-07 -2.72619e-23 0)
(-2.5e-07 -1.30445e-24 0)
(-2.5e-07 -3.19222e-23 0)
(-2.5e-07 -4.75144e-23 0)
(-2.5e-07 -3.50679e-23 0)
(-2.5e-07 -1.09976e-23 0)
(-2.5e-07 2.25526e-23 0)
(-2.5e-07 1.64292e-23 0)
(-2.5e-07 -9.18206e-24 0)
(-2.5e-07 -4.73409e-24 0)
(-2.5e-07 8.60694e-25 0)
(-2.5e-07 4.44972e-24 0)
(-2.5e-07 -4.62313e-24 0)
(-2.5e-07 -1.58919e-23 0)
(-2.5e-07 -3.57764e-23 0)
(-2.5e-07 -1.98947e-23 0)
(-2.5e-07 -1.22883e-20 0)
(-2.5e-07 2.479e-21 0)
(-2.5e-07 -5.66243e-22 0)
(-2.5e-07 1.15684e-22 0)
(-2.5e-07 -2.88855e-23 0)
(-2.5e-07 -9.21e-24 0)
(-2.5e-07 -1.02146e-23 0)
(-2.5e-07 1.16117e-23 0)
(-2.5e-07 2.16244e-23 0)
(-2.5e-07 1.17197e-23 0)
(-2.5e-07 5.78145e-24 0)
(-2.5e-07 -2.70232e-23 0)
(-2.5e-07 -3.96453e-23 0)
(-2.5e-07 -2.47706e-23 0)
(-2.5e-07 -2.27572e-23 0)
(-2.5e-07 -1.05382e-23 0)
(-2.5e-07 -1.90956e-23 0)
(-2.5e-07 -1.68508e-23 0)
(-2.5e-07 -1.92375e-23 0)
(-2.5e-07 -1.20662e-23 0)
)
;

boundaryField
{
    movingWall
    {
        type            calculated;
        value           uniform (0 0 0);
    }
    fixedWalls
    {
        type            calculated;
        value           uniform (0 0 0);
    }
    frontAndBack
    {
        type            empty;
    }
}


// ************************************************************************* //
