/*--------------------------------*- C++ -*----------------------------------*\
| =========                 |                                                 |
| \\      /  F ield         | OpenFOAM: The Open Source CFD Toolbox           |
|  \\    /   O peration     | Version:  2506                                  |
|   \\  /    A nd           | Website:  www.openfoam.com                      |
|    \\/     M anipulation  |                                                 |
\*---------------------------------------------------------------------------*/
FoamFile
{
    version     2.0;
    format      ascii;
    arch        "LSB;label=32;scalar=64";
    class       volVectorField;
    location    "8.5";
    object      norm_U_L1;
}
// * * * * * * * * * * * * * * * * * * * * * * * * * * * * * * * * * * * * * //

dimensions      [0 0 0 0 0 0 0];

internalField   nonuniform List<vector> 
400
(
(-0.0025 2.96342e-16 0)
(-0.0025 -6.29816e-17 0)
(-0.0025 1.55221e-17 0)
(-0.0025 -2.68712e-18 0)
(-0.0025 1.18188e-18 0)
(-0.0025 2.24152e-19 0)
(-0.0025 3.01053e-19 0)
(-0.0025 1.88047e-19 0)
(-0.0025 1.7729e-19 0)
(-0.0025 -8.85497e-20 0)
(-0.0025 -2.93645e-19 0)
(-0.0025 -2.31351e-19 0)
(-0.0025 -7.42114e-20 0)
(-0.0025 1.26546e-19 0)
(-0.0025 2.45825e-19 0)
(-0.0025 1.46686e-19 0)
(-0.0025 8.71125e-21 0)
(-0.0025 1.06484e-19 0)
(-0.0025 2.03371e-19 0)
(-0.0025 1.23387e-19 0)
(-0.0025 2.4504e-17 0)
(-0.0025 -3.97659e-18 0)
(-0.0025 1.68973e-18 0)
(-0.0025 -5.77682e-20 0)
(-0.0025 -1.08648e-19 0)
(-0.0025 -1.09881e-19 0)
(-0.0025 -1.09769e-19 0)
(-0.0025 -8.77053e-20 0)
(-0.0025 -5.3802e-20 0)
(-0.0025 -1.22578e-19 0)
(-0.0025 3.33175e-20 0)
(-0.0025 8.24387e-20 0)
(-0.0025 2.2972e-19 0)
(-0.0025 -5.93909e-20 0)
(-0.0025 -1.09806e-19 0)
(-0.0025 1.23121e-19 0)
(-0.0025 1.8399e-19 0)
(-0.0025 1.64936e-19 0)
(-0.0025 3.002e-20 0)
(-0.0025 3.52393e-21 0)
(-0.0025 -2.15584e-16 0)
(-0.0025 4.712e-17 0)
(-0.0025 -1.07923e-17 0)
(-0.0025 2.10436e-18 0)
(-0.0025 -8.90899e-19 0)
(-0.0025 -2.1004e-19 0)
(-0.0025 -2.35574e-19 0)
(-0.0025 -2.72958e-19 0)
(-0.0025 -2.69237e-19 0)
(-0.0025 -4.48728e-21 0)
(-0.0025 1.88572e-19 0)
(-0.0025 1.82473e-19 0)
(-0.0025 2.4171e-19 0)
(-0.0025 -3.96006e-20 0)
(-0.0025 -2.5497e-19 0)
(-0.0025 -2.552e-19 0)
(-0.0025 1.1806e-20 0)
(-0.0025 -3.04009e-20 0)
(-0.0025 -2.91599e-19 0)
(-0.0025 -2.15001e-19 0)
(-0.0025 1.46804e-16 0)
(-0.0025 -3.14404e-17 0)
(-0.0025 7.36593e-18 0)
(-0.0025 -1.73583e-18 0)
(-0.0025 6.04692e-19 0)
(-0.0025 7.91581e-20 0)
(-0.0025 3.85142e-19 0)
(-0.0025 3.48119e-19 0)
(-0.0025 5.34038e-19 0)
(-0.0025 3.70723e-19 0)
(-0.0025 1.28646e-19 0)
(-0.0025 2.55062e-20 0)
(-0.0025 -5.58294e-20 0)
(-0.0025 9.95249e-20 0)
(-0.0025 6.41753e-20 0)
(-0.0025 -2.10697e-19 0)
(-0.0025 -1.71611e-19 0)
(-0.0025 -3.10105e-20 0)
(-0.0025 -1.11284e-19 0)
(-0.0025 -1.98824e-19 0)
(-0.0025 -3.22893e-17 0)
(-0.0025 6.7016e-18 0)
(-0.0025 -1.94856e-18 0)
(-0.0025 2.13723e-19 0)
(-0.0025 -3.62607e-19 0)
(-0.0025 -3.66939e-19 0)
(-0.0025 -1.88401e-19 0)
(-0.0025 -3.62549e-20 0)
(-0.0025 -8.30085e-20 0)
(-0.0025 -9.69555e-20 0)
(-0.0025 8.43433e-21 0)
(-0.0025 5.7992e-20 0)
(-0.0025 1.73507e-19 0)
(-0.0025 2.94236e-19 0)
(-0.0025 3.55596e-19 0)
(-0.0025 2.21512e-19 0)
(-0.0025 1.5484e-19 0)
(-0.0025 1.18714e-19 0)
(-0.0025 -1.00381e-19 0)
(-0.0025 -1.12573e-19 0)
(-0.0025 -1.14005e-16 0)
(-0.0025 2.3421e-17 0)
(-0.0025 -5.23097e-18 0)
(-0.0025 1.41851e-18 0)
(-0.0025 -2.52085e-19 0)
(-0.0025 -6.04631e-20 0)
(-0.0025 -2.41943e-19 0)
(-0.0025 -2.549e-19 0)
(-0.0025 -4.88156e-19 0)
(-0.0025 -2.95515e-20 0)
(-0.0025 2.25404e-19 0)
(-0.0025 2.61737e-19 0)
(-0.0025 2.16264e-19 0)
(-0.0025 1.45259e-19 0)
(-0.0025 1.07149e-19 0)
(-0.0025 9.14818e-20 0)
(-0.0025 5.88583e-20 0)
(-0.0025 2.56782e-20 0)
(-0.0025 -3.56297e-20 0)
(-0.0025 6.84272e-20 0)
(-0.0025 2.0933e-16 0)
(-0.0025 -4.40276e-17 0)
(-0.0025 1.06073e-17 0)
(-0.0025 -2.12218e-18 0)
(-0.0025 3.4665e-19 0)
(-0.0025 -4.88352e-19 0)
(-0.0025 -3.66813e-19 0)
(-0.0025 -1.5895e-19 0)
(-0.0025 6.87069e-20 0)
(-0.0025 5.68904e-19 0)
(-0.0025 6.17683e-19 0)
(-0.0025 4.91212e-19 0)
(-0.0025 4.47005e-19 0)
(-0.0025 9.17432e-20 0)
(-0.0025 -6.42146e-20 0)
(-0.0025 1.27602e-19 0)
(-0.0025 1.77557e-19 0)
(-0.0025 1.6444e-19 0)
(-0.0025 1.63931e-19 0)
(-0.0025 2.06345e-19 0)
(-0.0025 -1.00775e-16 0)
(-0.0025 2.22658e-17 0)
(-0.0025 -4.84581e-18 0)
(-0.0025 1.39122e-18 0)
(-0.0025 -2.88349e-19 0)
(-0.0025 -7.42904e-20 0)
(-0.0025 1.24739e-19 0)
(-0.0025 6.46298e-20 0)
(-0.0025 7.62733e-20 0)
(-0.0025 1.43335e-19 0)
(-0.0025 -2.83931e-20 0)
(-0.0025 -1.83998e-19 0)
(-0.0025 2.48238e-20 0)
(-0.0025 1.56312e-19 0)
(-0.0025 2.1222e-19 0)
(-0.0025 1.3444e-19 0)
(-0.0025 4.24338e-20 0)
(-0.0025 -1.34895e-20 0)
(-0.0025 1.1101e-19 0)
(-0.0025 1.20886e-19 0)
(-0.0025 -9.98161e-17 0)
(-0.0025 2.02245e-17 0)
(-0.0025 -5.43077e-18 0)
(-0.0025 5.34921e-19 0)
(-0.0025 -5.08516e-19 0)
(-0.0025 1.03483e-19 0)
(-0.0025 2.2107e-19 0)
(-0.0025 5.17666e-20 0)
(-0.0025 7.74587e-20 0)
(-0.0025 -4.63597e-20 0)
(-0.0025 -9.41433e-20 0)
(-0.0025 -2.18476e-19 0)
(-0.0025 -3.56935e-19 0)
(-0.0025 1.43448e-19 0)
(-0.0025 1.78474e-19 0)
(-0.0025 7.36627e-20 0)
(-0.0025 -7.2285e-20 0)
(-0.0025 -3.65877e-20 0)
(-0.0025 7.08868e-20 0)
(-0.0025 -4.81497e-20 0)
(-0.0025 2.07575e-16 0)
(-0.0025 -4.58749e-17 0)
(-0.0025 9.39991e-18 0)
(-0.0025 -3.22547e-18 0)
(-0.0025 -2.55776e-19 0)
(-0.0025 -5.96589e-19 0)
(-0.0025 -4.49378e-19 0)
(-0.0025 -3.42648e-19 0)
(-0.0025 -1.04697e-19 0)
(-0.0025 -5.10218e-21 0)
(-0.0025 1.36421e-19 0)
(-0.0025 4.24527e-19 0)
(-0.0025 3.44511e-19 0)
(-0.0025 3.02367e-19 0)
(-0.0025 1.64117e-20 0)
(-0.0025 -6.07819e-20 0)
(-0.0025 3.43218e-20 0)
(-0.0025 2.42855e-19 0)
(-0.0025 2.27625e-19 0)
(-0.0025 -1.68215e-20 0)
(-0.0025 -1.73093e-16 0)
(-0.0025 3.53668e-17 0)
(-0.0025 -8.56918e-18 0)
(-0.0025 1.52819e-18 0)
(-0.0025 -6.68875e-19 0)
(-0.0025 -2.36957e-19 0)
(-0.0025 -2.88464e-19 0)
(-0.0025 -1.25907e-19 0)
(-0.0025 -4.40732e-19 0)
(-0.0025 -5.32536e-19 0)
(-0.0025 -2.49689e-19 0)
(-0.0025 4.62674e-19 0)
(-0.0025 4.79266e-19 0)
(-0.0025 1.48592e-19 0)
(-0.0025 1.00378e-19 0)
(-0.0025 -9.91068e-21 0)
(-0.0025 5.41212e-20 0)
(-0.0025 1.99226e-19 0)
(-0.0025 1.88548e-19 0)
(-0.0025 8.66356e-20 0)
(-0.0025 1.12822e-16 0)
(-0.0025 -2.30931e-17 0)
(-0.0025 5.0703e-18 0)
(-0.0025 -1.53351e-18 0)
(-0.0025 2.151e-20 0)
(-0.0025 -1.57496e-20 0)
(-0.0025 3.62083e-19 0)
(-0.0025 4.62309e-19 0)
(-0.0025 -4.54858e-20 0)
(-0.0025 -3.30633e-19 0)
(-0.0025 -3.00645e-19 0)
(-0.0025 1.90096e-19 0)
(-0.0025 5.25068e-19 0)
(-0.0025 1.87245e-19 0)
(-0.0025 2.01234e-19 0)
(-0.0025 3.61061e-19 0)
(-0.0025 1.89007e-19 0)
(-0.0025 -4.11149e-20 0)
(-0.0025 1.57682e-19 0)
(-0.0025 2.63356e-19 0)
(-0.0025 -2.57457e-17 0)
(-0.0025 7.46396e-18 0)
(-0.0025 -1.53088e-18 0)
(-0.0025 2.43126e-19 0)
(-0.0025 -1.67632e-19 0)
(-0.0025 1.28303e-19 0)
(-0.0025 1.85945e-19 0)
(-0.0025 3.18669e-19 0)
(-0.0025 4.61006e-19 0)
(-0.0025 3.41702e-19 0)
(-0.0025 1.8456e-19 0)
(-0.0025 7.18146e-20 0)
(-0.0025 3.01431e-19 0)
(-0.0025 -3.35668e-20 0)
(-0.0025 -3.00263e-19 0)
(-0.0025 -1.17083e-19 0)
(-0.0025 -2.20577e-19 0)
(-0.0025 -3.97936e-19 0)
(-0.0025 -1.30085e-19 0)
(-0.0025 3.94973e-20 0)
(-0.0025 -1.11832e-16 0)
(-0.0025 2.16345e-17 0)
(-0.0025 -4.95346e-18 0)
(-0.0025 9.3071e-19 0)
(-0.0025 -5.40101e-19 0)
(-0.0025 -4.42913e-19 0)
(-0.0025 -5.42994e-19 0)
(-0.0025 -6.06703e-20 0)
(-0.0025 1.83815e-19 0)
(-0.0025 1.02219e-19 0)
(-0.0025 2.97033e-19 0)
(-0.0025 2.46426e-19 0)
(-0.0025 -2.06014e-19 0)
(-0.0025 -2.51843e-19 0)
(-0.0025 -4.52445e-20 0)
(-0.0025 1.77641e-20 0)
(-0.0025 2.65782e-20 0)
(-0.0025 3.75861e-21 0)
(-0.0025 -3.00958e-19 0)
(-0.0025 -2.46927e-19 0)
(-0.0025 2.38405e-16 0)
(-0.0025 -5.05851e-17 0)
(-0.0025 1.17363e-17 0)
(-0.0025 -2.18168e-18 0)
(-0.0025 5.49319e-19 0)
(-0.0025 -3.13752e-19 0)
(-0.0025 -2.67986e-19 0)
(-0.0025 -2.14525e-19 0)
(-0.0025 -1.25245e-19 0)
(-0.0025 -1.92914e-19 0)
(-0.0025 -1.54385e-19 0)
(-0.0025 -3.81903e-19 0)
(-0.0025 -5.77703e-19 0)
(-0.0025 -1.46404e-19 0)
(-0.0025 3.75152e-19 0)
(-0.0025 1.34047e-19 0)
(-0.0025 7.03738e-20 0)
(-0.0025 2.4497e-19 0)
(-0.0025 1.95584e-19 0)
(-0.0025 3.31652e-20 0)
(-0.0025 -1.99828e-16 0)
(-0.0025 4.40483e-17 0)
(-0.0025 -1.01081e-17 0)
(-0.0025 2.58195e-18 0)
(-0.0025 -2.18461e-19 0)
(-0.0025 9.94416e-21 0)
(-0.0025 -4.59614e-19 0)
(-0.0025 -6.47659e-19 0)
(-0.0025 -3.3475e-19 0)
(-0.0025 -2.9712e-20 0)
(-0.0025 -2.26573e-20 0)
(-0.0025 -2.84439e-19 0)
(-0.0025 -2.01047e-19 0)
(-0.0025 3.9809e-20 0)
(-0.0025 1.95552e-19 0)
(-0.0025 1.89153e-19 0)
(-0.0025 -4.50742e-20 0)
(-0.0025 -7.37982e-20 0)
(-0.0025 2.15235e-19 0)
(-0.0025 2.02109e-19 0)
(-0.0025 -1.21301e-17 0)
(-0.0025 -4.12173e-19 0)
(-0.0025 -5.82526e-19 0)
(-0.0025 -9.46445e-19 0)
(-0.0025 -5.84428e-19 0)
(-0.0025 -2.31266e-19 0)
(-0.0025 2.20753e-19 0)
(-0.0025 2.60257e-19 0)
(-0.0025 1.91066e-19 0)
(-0.0025 1.10296e-19 0)
(-0.0025 3.45493e-20 0)
(-0.0025 8.88025e-20 0)
(-0.0025 9.78419e-20 0)
(-0.0025 -1.6646e-19 0)
(-0.0025 -3.51365e-19 0)
(-0.0025 -1.91913e-19 0)
(-0.0025 -2.97635e-20 0)
(-0.0025 1.75789e-20 0)
(-0.0025 1.39067e-19 0)
(-0.0025 1.62503e-19 0)
(-0.0025 2.19136e-16 0)
(-0.0025 -4.60422e-17 0)
(-0.0025 9.93988e-18 0)
(-0.0025 -3.04372e-18 0)
(-0.0025 -2.78057e-20 0)
(-0.0025 -1.04924e-19 0)
(-0.0025 3.01263e-19 0)
(-0.0025 -5.4165e-20 0)
(-0.0025 -2.69601e-19 0)
(-0.0025 -2.61403e-19 0)
(-0.0025 -5.66647e-20 0)
(-0.0025 1.92803e-19 0)
(-0.0025 1.57175e-19 0)
(-0.0025 1.76369e-21 0)
(-0.0025 -1.18428e-19 0)
(-0.0025 -3.61189e-19 0)
(-0.0025 -1.3754e-20 0)
(-0.0025 1.19432e-19 0)
(-0.0025 -2.0337e-20 0)
(-0.0025 1.48445e-21 0)
(-0.0025 -1.3034e-16 0)
(-0.0025 2.8412e-17 0)
(-0.0025 -6.73612e-18 0)
(-0.0025 1.27657e-18 0)
(-0.0025 -2.72619e-19 0)
(-0.0025 -1.30445e-20 0)
(-0.0025 -3.19222e-19 0)
(-0.0025 -4.75144e-19 0)
(-0.0025 -3.50679e-19 0)
(-0.0025 -1.09976e-19 0)
(-0.0025 2.25526e-19 0)
(-0.0025 1.64292e-19 0)
(-0.0025 -9.18206e-20 0)
(-0.0025 -4.73409e-20 0)
(-0.0025 8.60694e-21 0)
(-0.0025 4.44972e-20 0)
(-0.0025 -4.62313e-20 0)
(-0.0025 -1.58919e-19 0)
(-0.0025 -3.57764e-19 0)
(-0.0025 -1.98947e-19 0)
(-0.0025 -1.22883e-16 0)
(-0.0025 2.479e-17 0)
(-0.0025 -5.66243e-18 0)
(-0.0025 1.15684e-18 0)
(-0.0025 -2.88855e-19 0)
(-0.0025 -9.21e-20 0)
(-0.0025 -1.02146e-19 0)
(-0.0025 1.16117e-19 0)
(-0.0025 2.16244e-19 0)
(-0.0025 1.17197e-19 0)
(-0.0025 5.78145e-20 0)
(-0.0025 -2.70232e-19 0)
(-0.0025 -3.96453e-19 0)
(-0.0025 -2.47706e-19 0)
(-0.0025 -2.27572e-19 0)
(-0.0025 -1.05382e-19 0)
(-0.0025 -1.90956e-19 0)
(-0.0025 -1.68508e-19 0)
(-0.0025 -1.92375e-19 0)
(-0.0025 -1.20662e-19 0)
)
;

boundaryField
{
    movingWall
    {
        type            calculated;
        value           uniform (-0.0025 -0 -0);
    }
    fixedWalls
    {
        type            calculated;
        value           uniform (-0.0025 -0 -0);
    }
    frontAndBack
    {
        type            empty;
    }
}


// ************************************************************************* //
