/*--------------------------------*- C++ -*----------------------------------*\
| =========                 |                                                 |
| \\      /  F ield         | OpenFOAM: The Open Source CFD Toolbox           |
|  \\    /   O peration     | Version:  2506                                  |
|   \\  /    A nd           | Website:  www.openfoam.com                      |
|    \\/     M anipulation  |                                                 |
\*---------------------------------------------------------------------------*/
FoamFile
{
    version     2.0;
    format      ascii;
    arch        "LSB;label=32;scalar=64";
    class       volScalarField;
    location    "8.5";
    object      norm_k_field;
}
// * * * * * * * * * * * * * * * * * * * * * * * * * * * * * * * * * * * * * //

dimensions      [0 0 0 0 0 0 0];

internalField   nonuniform List<scalar> 
400
(
3.52966e+09
7.74703e+08
9.66164e+08
8.53006e+08
8.25154e+08
7.96591e+08
7.60732e+08
7.15319e+08
7.11841e+08
6.97269e+08
6.87868e+08
6.88651e+08
6.98631e+08
7.11471e+08
7.26262e+08
7.23745e+08
7.00404e+08
6.73728e+08
6.45656e+08
6.37588e+08
1.04905e+09
3.59237e+09
9.50289e+08
9.53825e+08
8.81212e+08
8.08361e+08
7.67896e+08
7.17297e+08
7.1883e+08
6.9933e+08
6.92968e+08
7.02036e+08
7.01523e+08
7.27973e+08
7.55304e+08
7.40538e+08
6.97334e+08
6.69164e+08
6.50253e+08
6.7357e+08
1.05358e+09
8.58218e+08
9.98347e+08
8.83873e+08
8.33615e+08
8.26681e+08
7.72791e+08
7.24993e+08
7.38262e+08
7.10092e+08
7.15927e+08
7.14201e+08
7.28442e+08
7.4828e+08
7.77802e+08
7.82713e+08
7.2318e+08
6.8044e+08
6.67271e+08
6.73202e+08
1.07486e+09
8.77244e+08
9.17974e+08
8.6084e+08
8.60907e+08
8.50121e+08
8.08566e+08
7.38444e+08
7.37171e+08
7.34776e+08
7.2514e+08
7.28977e+08
7.50197e+08
7.61528e+08
7.81908e+08
7.66728e+08
7.50841e+08
7.13383e+08
6.91242e+08
6.79683e+08
8.96824e+08
1.30682e+09
8.89571e+08
8.69032e+08
8.82632e+08
8.48104e+08
8.02277e+08
7.32632e+08
7.67951e+08
7.5533e+08
7.52418e+08
7.52596e+08
7.70096e+08
7.77317e+08
7.93017e+08
7.89352e+08
7.66232e+08
7.58401e+08
7.1846e+08
6.72031e+08
9.9706e+08
7.73354e+08
8.92731e+08
8.50759e+08
8.47735e+08
8.18689e+08
8.01779e+08
7.57067e+08
7.47862e+08
7.57523e+08
7.69413e+08
7.43806e+08
7.80877e+08
8.04819e+08
8.2971e+08
8.10337e+08
7.93876e+08
7.91018e+08
7.33621e+08
6.80444e+08
8.59207e+08
7.09478e+08
8.75063e+08
8.30109e+08
8.42955e+08
8.1822e+08
7.96123e+08
7.57355e+08
7.39833e+08
7.61572e+08
7.7723e+08
7.75342e+08
8.03023e+08
8.16018e+08
8.08614e+08
7.98855e+08
7.96568e+08
8.08563e+08
7.5626e+08
7.00032e+08
7.23797e+08
1.72965e+09
8.26747e+08
8.42076e+08
7.89973e+08
7.63804e+08
7.70151e+08
7.39618e+08
7.26363e+08
7.71066e+08
8.13034e+08
7.7044e+08
8.18524e+08
8.15127e+08
8.04737e+08
8.00785e+08
8.11848e+08
8.33544e+08
7.72563e+08
7.33361e+08
7.77837e+08
5.65855e+08
8.02231e+08
7.94581e+08
7.68132e+08
7.36163e+08
7.67147e+08
7.47628e+08
7.37503e+08
7.84137e+08
8.04761e+08
7.70178e+08
7.92874e+08
8.07448e+08
8.13376e+08
8.10101e+08
8.12901e+08
8.12781e+08
7.62305e+08
7.2906e+08
7.86894e+08
8.88054e+08
7.45729e+08
7.49233e+08
7.50335e+08
7.39424e+08
7.64202e+08
7.28667e+08
7.26736e+08
7.84671e+08
8.00026e+08
7.80989e+08
7.70573e+08
8.24391e+08
8.13695e+08
8.04111e+08
8.07247e+08
8.14944e+08
7.57052e+08
7.27881e+08
7.90964e+08
7.88342e+08
7.21848e+08
7.34888e+08
7.3729e+08
7.52387e+08
7.67465e+08
7.32652e+08
7.20663e+08
7.56878e+08
7.47457e+08
7.60292e+08
7.8105e+08
8.20411e+08
8.05392e+08
7.81028e+08
7.83346e+08
8.197e+08
7.96832e+08
7.33847e+08
7.76041e+08
5.21587e+08
7.20789e+08
6.92423e+08
7.26547e+08
7.31614e+08
7.44958e+08
7.52217e+08
7.16616e+08
7.34387e+08
7.21604e+08
7.61818e+08
7.67432e+08
7.98813e+08
8.31183e+08
7.87379e+08
7.76599e+08
8.03188e+08
7.7531e+08
7.54444e+08
6.4653e+08
1.2842e+09
6.87867e+08
7.09184e+08
7.1357e+08
7.37865e+08
7.82785e+08
7.72629e+08
7.18338e+08
7.31286e+08
7.18235e+08
7.31409e+08
8.01744e+08
7.92851e+08
7.86166e+08
7.93623e+08
7.8148e+08
7.8327e+08
7.85506e+08
7.954e+08
7.10443e+08
5.45184e+08
6.9753e+08
6.8011e+08
6.94845e+08
7.29004e+08
7.6668e+08
7.44933e+08
7.35774e+08
7.31256e+08
7.24285e+08
7.31558e+08
7.8414e+08
7.82264e+08
7.67068e+08
7.83249e+08
7.91681e+08
7.97986e+08
7.84451e+08
7.65298e+08
6.73927e+08
6.67572e+08
7.01824e+08
7.07638e+08
6.90168e+08
7.12408e+08
7.25037e+08
7.44352e+08
7.36565e+08
7.25392e+08
7.20862e+08
7.3708e+08
7.5646e+08
7.38438e+08
7.67587e+08
8.10078e+08
8.10149e+08
8.34391e+08
8.00346e+08
7.57009e+08
6.45614e+08
1.01266e+09
6.89282e+08
7.24906e+08
6.90409e+08
7.05615e+08
7.2222e+08
7.21664e+08
7.20413e+08
7.24009e+08
7.28677e+08
7.4295e+08
7.33159e+08
7.23885e+08
7.60613e+08
7.64595e+08
8.11378e+08
8.54796e+08
8.34111e+08
7.85116e+08
7.87723e+08
5.20796e+08
6.86482e+08
6.62389e+08
6.91987e+08
6.87681e+08
6.97104e+08
6.97151e+08
6.96761e+08
7.09609e+08
7.25583e+08
7.39468e+08
7.42534e+08
7.44567e+08
7.75999e+08
8.06687e+08
8.14487e+08
8.433e+08
8.52407e+08
8.0966e+08
7.31781e+08
7.69276e+08
6.80318e+08
6.65546e+08
6.45366e+08
6.67018e+08
6.87171e+08
6.78605e+08
6.99043e+08
7.12881e+08
7.08245e+08
7.31343e+08
7.51092e+08
7.57294e+08
7.86765e+08
7.90067e+08
8.26588e+08
8.59513e+08
8.85856e+08
8.38425e+08
6.90793e+08
9.72197e+08
6.80734e+08
6.57809e+08
6.48909e+08
6.6226e+08
6.823e+08
6.69111e+08
6.64737e+08
6.80797e+08
6.82617e+08
7.48e+08
7.75798e+08
7.59774e+08
7.88924e+08
7.92483e+08
8.45138e+08
9.13217e+08
8.77197e+08
8.23108e+08
8.95812e+08
5.91366e+08
6.96776e+08
6.48594e+08
6.49466e+08
6.50303e+08
6.67063e+08
6.68738e+08
6.69407e+08
6.7416e+08
7.02806e+08
7.20672e+08
7.47083e+08
7.84609e+08
8.0907e+08
8.11032e+08
8.31652e+08
8.87754e+08
8.70453e+08
8.0186e+08
)
;

boundaryField
{
    movingWall
    {
        type            calculated;
        value           nonuniform List<scalar> 
20
(
8.95812e+08
5.91366e+08
6.96776e+08
6.48594e+08
6.49466e+08
6.50303e+08
6.67063e+08
6.68738e+08
6.69407e+08
6.7416e+08
7.02806e+08
7.20672e+08
7.47083e+08
7.84609e+08
8.0907e+08
8.11032e+08
8.31652e+08
8.87754e+08
8.70453e+08
8.0186e+08
)
;
    }
    fixedWalls
    {
        type            calculated;
        value           nonuniform List<scalar> 
60
(
3.52966e+09
1.04905e+09
1.05358e+09
1.07486e+09
8.96824e+08
9.9706e+08
8.59207e+08
7.23797e+08
7.77837e+08
7.86894e+08
7.90964e+08
7.76041e+08
6.4653e+08
7.10443e+08
6.73927e+08
6.45614e+08
7.87723e+08
7.31781e+08
6.90793e+08
8.95812e+08
6.37588e+08
6.7357e+08
6.73202e+08
6.79683e+08
6.72031e+08
6.80444e+08
7.00032e+08
7.33361e+08
7.2906e+08
7.27881e+08
7.33847e+08
7.54444e+08
7.954e+08
7.65298e+08
7.57009e+08
7.85116e+08
8.0966e+08
8.38425e+08
8.23108e+08
8.0186e+08
3.52966e+09
7.74703e+08
9.66164e+08
8.53006e+08
8.25154e+08
7.96591e+08
7.60732e+08
7.15319e+08
7.11841e+08
6.97269e+08
6.87868e+08
6.88651e+08
6.98631e+08
7.11471e+08
7.26262e+08
7.23745e+08
7.00404e+08
6.73728e+08
6.45656e+08
6.37588e+08
)
;
    }
    frontAndBack
    {
        type            empty;
    }
}


// ************************************************************************* //
