/*--------------------------------*- C++ -*----------------------------------*\
| =========                 |                                                 |
| \\      /  F ield         | OpenFOAM: The Open Source CFD Toolbox           |
|  \\    /   O peration     | Version:  2506                                  |
|   \\  /    A nd           | Website:  www.openfoam.com                      |
|    \\/     M anipulation  |                                                 |
\*---------------------------------------------------------------------------*/
FoamFile
{
    version     2.0;
    format      ascii;
    arch        "LSB;label=32;scalar=64";
    class       volVectorField;
    location    "8.5";
    object      norm_U_composite;
}
// * * * * * * * * * * * * * * * * * * * * * * * * * * * * * * * * * * * * * //

dimensions      [0 0 0 0 0 0 0];

internalField   nonuniform List<vector> 
400
(
(-0.5 5.92684e-14 0)
(-0.5 -1.25963e-14 0)
(-0.5 3.10443e-15 0)
(-0.5 -5.37425e-16 0)
(-0.5 2.36376e-16 0)
(-0.5 4.48304e-17 0)
(-0.5 6.02107e-17 0)
(-0.5 3.76094e-17 0)
(-0.5 3.5458e-17 0)
(-0.5 -1.77099e-17 0)
(-0.5 -5.8729e-17 0)
(-0.5 -4.62701e-17 0)
(-0.5 -1.48423e-17 0)
(-0.5 2.53093e-17 0)
(-0.5 4.9165e-17 0)
(-0.5 2.93372e-17 0)
(-0.5 1.74225e-18 0)
(-0.5 2.12968e-17 0)
(-0.5 4.06741e-17 0)
(-0.5 2.46774e-17 0)
(-0.5 4.9008e-15 0)
(-0.5 -7.95319e-16 0)
(-0.5 3.37946e-16 0)
(-0.5 -1.15536e-17 0)
(-0.5 -2.17297e-17 0)
(-0.5 -2.19762e-17 0)
(-0.5 -2.19538e-17 0)
(-0.5 -1.75411e-17 0)
(-0.5 -1.07604e-17 0)
(-0.5 -2.45156e-17 0)
(-0.5 6.6635e-18 0)
(-0.5 1.64877e-17 0)
(-0.5 4.59441e-17 0)
(-0.5 -1.18782e-17 0)
(-0.5 -2.19613e-17 0)
(-0.5 2.46243e-17 0)
(-0.5 3.6798e-17 0)
(-0.5 3.29872e-17 0)
(-0.5 6.004e-18 0)
(-0.5 7.04786e-19 0)
(-0.5 -4.31168e-14 0)
(-0.5 9.424e-15 0)
(-0.5 -2.15845e-15 0)
(-0.5 4.20872e-16 0)
(-0.5 -1.7818e-16 0)
(-0.5 -4.2008e-17 0)
(-0.5 -4.71149e-17 0)
(-0.5 -5.45916e-17 0)
(-0.5 -5.38473e-17 0)
(-0.5 -8.97456e-19 0)
(-0.5 3.77144e-17 0)
(-0.5 3.64946e-17 0)
(-0.5 4.83419e-17 0)
(-0.5 -7.92012e-18 0)
(-0.5 -5.09939e-17 0)
(-0.5 -5.104e-17 0)
(-0.5 2.3612e-18 0)
(-0.5 -6.08018e-18 0)
(-0.5 -5.83198e-17 0)
(-0.5 -4.30001e-17 0)
(-0.5 2.93609e-14 0)
(-0.5 -6.28807e-15 0)
(-0.5 1.47319e-15 0)
(-0.5 -3.47167e-16 0)
(-0.5 1.20938e-16 0)
(-0.5 1.58316e-17 0)
(-0.5 7.70283e-17 0)
(-0.5 6.96238e-17 0)
(-0.5 1.06808e-16 0)
(-0.5 7.41447e-17 0)
(-0.5 2.57291e-17 0)
(-0.5 5.10124e-18 0)
(-0.5 -1.11659e-17 0)
(-0.5 1.9905e-17 0)
(-0.5 1.28351e-17 0)
(-0.5 -4.21394e-17 0)
(-0.5 -3.43221e-17 0)
(-0.5 -6.2021e-18 0)
(-0.5 -2.22569e-17 0)
(-0.5 -3.97648e-17 0)
(-0.5 -6.45787e-15 0)
(-0.5 1.34032e-15 0)
(-0.5 -3.89713e-16 0)
(-0.5 4.27445e-17 0)
(-0.5 -7.25214e-17 0)
(-0.5 -7.33878e-17 0)
(-0.5 -3.76803e-17 0)
(-0.5 -7.25098e-18 0)
(-0.5 -1.66017e-17 0)
(-0.5 -1.93911e-17 0)
(-0.5 1.68687e-18 0)
(-0.5 1.15984e-17 0)
(-0.5 3.47014e-17 0)
(-0.5 5.88473e-17 0)
(-0.5 7.11192e-17 0)
(-0.5 4.43024e-17 0)
(-0.5 3.0968e-17 0)
(-0.5 2.37428e-17 0)
(-0.5 -2.00762e-17 0)
(-0.5 -2.25147e-17 0)
(-0.5 -2.28011e-14 0)
(-0.5 4.68421e-15 0)
(-0.5 -1.04619e-15 0)
(-0.5 2.83702e-16 0)
(-0.5 -5.0417e-17 0)
(-0.5 -1.20926e-17 0)
(-0.5 -4.83887e-17 0)
(-0.5 -5.09801e-17 0)
(-0.5 -9.76312e-17 0)
(-0.5 -5.91029e-18 0)
(-0.5 4.50807e-17 0)
(-0.5 5.23475e-17 0)
(-0.5 4.32527e-17 0)
(-0.5 2.90518e-17 0)
(-0.5 2.14297e-17 0)
(-0.5 1.82964e-17 0)
(-0.5 1.17717e-17 0)
(-0.5 5.13565e-18 0)
(-0.5 -7.12594e-18 0)
(-0.5 1.36854e-17 0)
(-0.5 4.1866e-14 0)
(-0.5 -8.80552e-15 0)
(-0.5 2.12147e-15 0)
(-0.5 -4.24436e-16 0)
(-0.5 6.93299e-17 0)
(-0.5 -9.76703e-17 0)
(-0.5 -7.33626e-17 0)
(-0.5 -3.179e-17 0)
(-0.5 1.37414e-17 0)
(-0.5 1.13781e-16 0)
(-0.5 1.23537e-16 0)
(-0.5 9.82425e-17 0)
(-0.5 8.94011e-17 0)
(-0.5 1.83486e-17 0)
(-0.5 -1.28429e-17 0)
(-0.5 2.55205e-17 0)
(-0.5 3.55113e-17 0)
(-0.5 3.2888e-17 0)
(-0.5 3.27863e-17 0)
(-0.5 4.1269e-17 0)
(-0.5 -2.01551e-14 0)
(-0.5 4.45315e-15 0)
(-0.5 -9.69161e-16 0)
(-0.5 2.78244e-16 0)
(-0.5 -5.76697e-17 0)
(-0.5 -1.48581e-17 0)
(-0.5 2.49479e-17 0)
(-0.5 1.2926e-17 0)
(-0.5 1.52547e-17 0)
(-0.5 2.86671e-17 0)
(-0.5 -5.67862e-18 0)
(-0.5 -3.67996e-17 0)
(-0.5 4.96476e-18 0)
(-0.5 3.12623e-17 0)
(-0.5 4.2444e-17 0)
(-0.5 2.68879e-17 0)
(-0.5 8.48676e-18 0)
(-0.5 -2.69791e-18 0)
(-0.5 2.2202e-17 0)
(-0.5 2.41772e-17 0)
(-0.5 -1.99632e-14 0)
(-0.5 4.0449e-15 0)
(-0.5 -1.08615e-15 0)
(-0.5 1.06984e-16 0)
(-0.5 -1.01703e-16 0)
(-0.5 2.06966e-17 0)
(-0.5 4.4214e-17 0)
(-0.5 1.03533e-17 0)
(-0.5 1.54917e-17 0)
(-0.5 -9.27195e-18 0)
(-0.5 -1.88287e-17 0)
(-0.5 -4.36953e-17 0)
(-0.5 -7.13869e-17 0)
(-0.5 2.86897e-17 0)
(-0.5 3.56948e-17 0)
(-0.5 1.47325e-17 0)
(-0.5 -1.4457e-17 0)
(-0.5 -7.31753e-18 0)
(-0.5 1.41774e-17 0)
(-0.5 -9.62994e-18 0)
(-0.5 4.15149e-14 0)
(-0.5 -9.17499e-15 0)
(-0.5 1.87998e-15 0)
(-0.5 -6.45094e-16 0)
(-0.5 -5.11553e-17 0)
(-0.5 -1.19318e-16 0)
(-0.5 -8.98757e-17 0)
(-0.5 -6.85295e-17 0)
(-0.5 -2.09394e-17 0)
(-0.5 -1.02044e-18 0)
(-0.5 2.72842e-17 0)
(-0.5 8.49055e-17 0)
(-0.5 6.89022e-17 0)
(-0.5 6.04733e-17 0)
(-0.5 3.28234e-18 0)
(-0.5 -1.21564e-17 0)
(-0.5 6.86436e-18 0)
(-0.5 4.8571e-17 0)
(-0.5 4.55251e-17 0)
(-0.5 -3.3643e-18 0)
(-0.5 -3.46186e-14 0)
(-0.5 7.07336e-15 0)
(-0.5 -1.71384e-15 0)
(-0.5 3.05638e-16 0)
(-0.5 -1.33775e-16 0)
(-0.5 -4.73914e-17 0)
(-0.5 -5.76927e-17 0)
(-0.5 -2.51814e-17 0)
(-0.5 -8.81464e-17 0)
(-0.5 -1.06507e-16 0)
(-0.5 -4.99379e-17 0)
(-0.5 9.25348e-17 0)
(-0.5 9.58531e-17 0)
(-0.5 2.97185e-17 0)
(-0.5 2.00756e-17 0)
(-0.5 -1.98214e-18 0)
(-0.5 1.08242e-17 0)
(-0.5 3.98452e-17 0)
(-0.5 3.77097e-17 0)
(-0.5 1.73271e-17 0)
(-0.5 2.25644e-14 0)
(-0.5 -4.61863e-15 0)
(-0.5 1.01406e-15 0)
(-0.5 -3.06701e-16 0)
(-0.5 4.302e-18 0)
(-0.5 -3.14992e-18 0)
(-0.5 7.24166e-17 0)
(-0.5 9.24618e-17 0)
(-0.5 -9.09716e-18 0)
(-0.5 -6.61266e-17 0)
(-0.5 -6.0129e-17 0)
(-0.5 3.80193e-17 0)
(-0.5 1.05014e-16 0)
(-0.5 3.74489e-17 0)
(-0.5 4.02468e-17 0)
(-0.5 7.22122e-17 0)
(-0.5 3.78015e-17 0)
(-0.5 -8.22299e-18 0)
(-0.5 3.15365e-17 0)
(-0.5 5.26712e-17 0)
(-0.5 -5.14914e-15 0)
(-0.5 1.49279e-15 0)
(-0.5 -3.06175e-16 0)
(-0.5 4.86253e-17 0)
(-0.5 -3.35264e-17 0)
(-0.5 2.56606e-17 0)
(-0.5 3.7189e-17 0)
(-0.5 6.37339e-17 0)
(-0.5 9.22012e-17 0)
(-0.5 6.83404e-17 0)
(-0.5 3.6912e-17 0)
(-0.5 1.43629e-17 0)
(-0.5 6.02862e-17 0)
(-0.5 -6.71336e-18 0)
(-0.5 -6.00527e-17 0)
(-0.5 -2.34165e-17 0)
(-0.5 -4.41155e-17 0)
(-0.5 -7.95872e-17 0)
(-0.5 -2.60171e-17 0)
(-0.5 7.89945e-18 0)
(-0.5 -2.23664e-14 0)
(-0.5 4.3269e-15 0)
(-0.5 -9.90692e-16 0)
(-0.5 1.86142e-16 0)
(-0.5 -1.0802e-16 0)
(-0.5 -8.85825e-17 0)
(-0.5 -1.08599e-16 0)
(-0.5 -1.21341e-17 0)
(-0.5 3.67629e-17 0)
(-0.5 2.04437e-17 0)
(-0.5 5.94066e-17 0)
(-0.5 4.92851e-17 0)
(-0.5 -4.12029e-17 0)
(-0.5 -5.03687e-17 0)
(-0.5 -9.0489e-18 0)
(-0.5 3.55282e-18 0)
(-0.5 5.31564e-18 0)
(-0.5 7.51722e-19 0)
(-0.5 -6.01916e-17 0)
(-0.5 -4.93854e-17 0)
(-0.5 4.76809e-14 0)
(-0.5 -1.0117e-14 0)
(-0.5 2.34727e-15 0)
(-0.5 -4.36337e-16 0)
(-0.5 1.09864e-16 0)
(-0.5 -6.27504e-17 0)
(-0.5 -5.35972e-17 0)
(-0.5 -4.2905e-17 0)
(-0.5 -2.5049e-17 0)
(-0.5 -3.85829e-17 0)
(-0.5 -3.08771e-17 0)
(-0.5 -7.63807e-17 0)
(-0.5 -1.15541e-16 0)
(-0.5 -2.92808e-17 0)
(-0.5 7.50305e-17 0)
(-0.5 2.68095e-17 0)
(-0.5 1.40748e-17 0)
(-0.5 4.8994e-17 0)
(-0.5 3.91169e-17 0)
(-0.5 6.63304e-18 0)
(-0.5 -3.99657e-14 0)
(-0.5 8.80965e-15 0)
(-0.5 -2.02162e-15 0)
(-0.5 5.1639e-16 0)
(-0.5 -4.36921e-17 0)
(-0.5 1.98883e-18 0)
(-0.5 -9.19229e-17 0)
(-0.5 -1.29532e-16 0)
(-0.5 -6.695e-17 0)
(-0.5 -5.9424e-18 0)
(-0.5 -4.53145e-18 0)
(-0.5 -5.68879e-17 0)
(-0.5 -4.02094e-17 0)
(-0.5 7.9618e-18 0)
(-0.5 3.91104e-17 0)
(-0.5 3.78306e-17 0)
(-0.5 -9.01485e-18 0)
(-0.5 -1.47596e-17 0)
(-0.5 4.3047e-17 0)
(-0.5 4.04219e-17 0)
(-0.5 -2.42601e-15 0)
(-0.5 -8.24346e-17 0)
(-0.5 -1.16505e-16 0)
(-0.5 -1.89289e-16 0)
(-0.5 -1.16886e-16 0)
(-0.5 -4.62532e-17 0)
(-0.5 4.41505e-17 0)
(-0.5 5.20514e-17 0)
(-0.5 3.82133e-17 0)
(-0.5 2.20591e-17 0)
(-0.5 6.90986e-18 0)
(-0.5 1.77605e-17 0)
(-0.5 1.95684e-17 0)
(-0.5 -3.3292e-17 0)
(-0.5 -7.0273e-17 0)
(-0.5 -3.83826e-17 0)
(-0.5 -5.95271e-18 0)
(-0.5 3.51579e-18 0)
(-0.5 2.78134e-17 0)
(-0.5 3.25006e-17 0)
(-0.5 4.38273e-14 0)
(-0.5 -9.20843e-15 0)
(-0.5 1.98798e-15 0)
(-0.5 -6.08745e-16 0)
(-0.5 -5.56114e-18 0)
(-0.5 -2.09848e-17 0)
(-0.5 6.02527e-17 0)
(-0.5 -1.0833e-17 0)
(-0.5 -5.39202e-17 0)
(-0.5 -5.22807e-17 0)
(-0.5 -1.13329e-17 0)
(-0.5 3.85607e-17 0)
(-0.5 3.1435e-17 0)
(-0.5 3.52737e-19 0)
(-0.5 -2.36856e-17 0)
(-0.5 -7.22378e-17 0)
(-0.5 -2.7508e-18 0)
(-0.5 2.38863e-17 0)
(-0.5 -4.06739e-18 0)
(-0.5 2.96889e-19 0)
(-0.5 -2.6068e-14 0)
(-0.5 5.68239e-15 0)
(-0.5 -1.34722e-15 0)
(-0.5 2.55314e-16 0)
(-0.5 -5.45238e-17 0)
(-0.5 -2.6089e-18 0)
(-0.5 -6.38443e-17 0)
(-0.5 -9.50287e-17 0)
(-0.5 -7.01357e-17 0)
(-0.5 -2.19953e-17 0)
(-0.5 4.51053e-17 0)
(-0.5 3.28585e-17 0)
(-0.5 -1.83641e-17 0)
(-0.5 -9.46818e-18 0)
(-0.5 1.72139e-18 0)
(-0.5 8.89945e-18 0)
(-0.5 -9.24626e-18 0)
(-0.5 -3.17839e-17 0)
(-0.5 -7.15527e-17 0)
(-0.5 -3.97894e-17 0)
(-0.5 -2.45765e-14 0)
(-0.5 4.958e-15 0)
(-0.5 -1.13249e-15 0)
(-0.5 2.31367e-16 0)
(-0.5 -5.77709e-17 0)
(-0.5 -1.842e-17 0)
(-0.5 -2.04293e-17 0)
(-0.5 2.32233e-17 0)
(-0.5 4.32487e-17 0)
(-0.5 2.34393e-17 0)
(-0.5 1.15629e-17 0)
(-0.5 -5.40464e-17 0)
(-0.5 -7.92906e-17 0)
(-0.5 -4.95413e-17 0)
(-0.5 -4.55145e-17 0)
(-0.5 -2.10764e-17 0)
(-0.5 -3.81913e-17 0)
(-0.5 -3.37016e-17 0)
(-0.5 -3.8475e-17 0)
(-0.5 -2.41324e-17 0)
)
;

boundaryField
{
    movingWall
    {
        type            calculated;
        value           uniform (-0.5 -0 -0);
    }
    fixedWalls
    {
        type            calculated;
        value           uniform (-0.5 -0 -0);
    }
    frontAndBack
    {
        type            empty;
    }
}


// ************************************************************************* //
