/*--------------------------------*- C++ -*----------------------------------*\
| =========                 |                                                 |
| \\      /  F ield         | OpenFOAM: The Open Source CFD Toolbox           |
|  \\    /   O peration     | Version:  2506                                  |
|   \\  /    A nd           | Website:  www.openfoam.com                      |
|    \\/     M anipulation  |                                                 |
\*---------------------------------------------------------------------------*/
FoamFile
{
    version     2.0;
    format      ascii;
    arch        "LSB;label=32;scalar=64";
    class       volScalarField;
    location    "8.5";
    object      P_A;
}
// * * * * * * * * * * * * * * * * * * * * * * * * * * * * * * * * * * * * * //

dimensions      [1 -1 -3 0 0 0 0];

internalField   nonuniform List<scalar> 
400
(
3.10474e-33
3.10473e-33
3.10473e-33
3.10472e-33
3.10472e-33
3.10472e-33
3.10471e-33
3.10471e-33
3.10471e-33
3.10471e-33
3.1047e-33
3.10471e-33
3.1047e-33
3.1047e-33
3.1047e-33
3.1047e-33
3.1047e-33
3.1047e-33
3.1047e-33
3.1047e-33
3.33148e-33
3.29392e-33
3.29688e-33
3.29813e-33
3.3006e-33
3.3019e-33
3.30439e-33
3.30573e-33
3.30825e-33
3.30963e-33
3.31218e-33
3.3136e-33
3.31618e-33
3.31764e-33
3.32026e-33
3.32175e-33
3.3244e-33
3.32594e-33
3.32727e-33
3.3294e-33
3.71558e-33
3.6724e-33
3.67584e-33
3.67731e-33
3.68018e-33
3.68168e-33
3.68459e-33
3.68609e-33
3.68905e-33
3.69059e-33
3.69357e-33
3.69514e-33
3.69816e-33
3.69976e-33
3.70281e-33
3.70446e-33
3.70752e-33
3.70922e-33
3.71074e-33
3.71315e-33
4.1552e-33
4.10622e-33
4.11014e-33
4.11179e-33
4.11504e-33
4.11672e-33
4.12002e-33
4.12174e-33
4.12506e-33
4.12682e-33
4.13019e-33
4.13199e-33
4.13539e-33
4.13723e-33
4.14066e-33
4.14254e-33
4.146e-33
4.14793e-33
4.14967e-33
4.15239e-33
4.5559e-33
4.50156e-33
4.5059e-33
4.50773e-33
4.51132e-33
4.51321e-33
4.51683e-33
4.51878e-33
4.52243e-33
4.52443e-33
4.52811e-33
4.53015e-33
4.53388e-33
4.53594e-33
4.53974e-33
4.54183e-33
4.54567e-33
4.54781e-33
4.54973e-33
4.55275e-33
4.86737e-33
4.80883e-33
4.81345e-33
4.81547e-33
4.81933e-33
4.82138e-33
4.82526e-33
4.82737e-33
4.83128e-33
4.83345e-33
4.83741e-33
4.83962e-33
4.84363e-33
4.84586e-33
4.84994e-33
4.8522e-33
4.85632e-33
4.85865e-33
4.86071e-33
4.86397e-33
5.08458e-33
5.02303e-33
5.02795e-33
5.03e-33
5.03407e-33
5.03621e-33
5.0403e-33
5.0425e-33
5.04666e-33
5.04887e-33
5.0531e-33
5.05535e-33
5.05962e-33
5.06193e-33
5.06624e-33
5.0686e-33
5.07294e-33
5.07537e-33
5.07755e-33
5.08097e-33
5.22745e-33
5.16393e-33
5.16899e-33
5.17111e-33
5.17533e-33
5.17749e-33
5.18177e-33
5.18397e-33
5.18832e-33
5.19057e-33
5.19495e-33
5.19725e-33
5.20169e-33
5.20404e-33
5.20851e-33
5.21093e-33
5.21542e-33
5.21792e-33
5.22017e-33
5.2237e-33
5.32136e-33
5.25655e-33
5.26171e-33
5.26389e-33
5.26817e-33
5.27041e-33
5.27473e-33
5.27704e-33
5.28139e-33
5.28376e-33
5.28816e-33
5.29058e-33
5.29504e-33
5.29749e-33
5.30201e-33
5.30451e-33
5.30908e-33
5.31164e-33
5.31393e-33
5.31753e-33
5.38722e-33
5.32153e-33
5.32671e-33
5.32897e-33
5.33329e-33
5.33559e-33
5.33994e-33
5.34231e-33
5.34669e-33
5.34912e-33
5.35356e-33
5.35603e-33
5.36054e-33
5.36303e-33
5.36761e-33
5.37014e-33
5.37477e-33
5.37737e-33
5.37969e-33
5.38335e-33
5.43928e-33
5.37284e-33
5.37812e-33
5.38035e-33
5.38477e-33
5.38702e-33
5.3915e-33
5.39381e-33
5.39833e-33
5.4007e-33
5.40527e-33
5.40769e-33
5.41231e-33
5.41478e-33
5.41945e-33
5.42199e-33
5.42668e-33
5.4293e-33
5.43165e-33
5.43534e-33
5.48624e-33
5.41916e-33
5.42452e-33
5.42675e-33
5.4312e-33
5.43349e-33
5.43802e-33
5.44033e-33
5.44492e-33
5.44727e-33
5.45192e-33
5.45435e-33
5.45903e-33
5.46151e-33
5.46624e-33
5.46879e-33
5.47354e-33
5.47618e-33
5.47855e-33
5.48228e-33
5.53334e-33
5.46559e-33
5.47101e-33
5.47325e-33
5.47772e-33
5.48008e-33
5.48459e-33
5.48698e-33
5.49157e-33
5.494e-33
5.49865e-33
5.50113e-33
5.50583e-33
5.50836e-33
5.5131e-33
5.5157e-33
5.52048e-33
5.52316e-33
5.52555e-33
5.52931e-33
5.58346e-33
5.51502e-33
5.52049e-33
5.52276e-33
5.52729e-33
5.52963e-33
5.53423e-33
5.5366e-33
5.54127e-33
5.5437e-33
5.54842e-33
5.5509e-33
5.55567e-33
5.55821e-33
5.56303e-33
5.56563e-33
5.57047e-33
5.57317e-33
5.57558e-33
5.57939e-33
5.63792e-33
5.56873e-33
5.57426e-33
5.57655e-33
5.58114e-33
5.5835e-33
5.58815e-33
5.59054e-33
5.59527e-33
5.59772e-33
5.60249e-33
5.605e-33
5.60983e-33
5.61239e-33
5.61726e-33
5.61989e-33
5.62479e-33
5.62751e-33
5.62995e-33
5.6338e-33
5.69627e-33
5.62629e-33
5.63187e-33
5.6342e-33
5.63882e-33
5.64125e-33
5.6459e-33
5.6484e-33
5.65309e-33
5.65565e-33
5.6604e-33
5.66301e-33
5.66782e-33
5.67047e-33
5.67535e-33
5.67805e-33
5.68298e-33
5.68575e-33
5.68821e-33
5.69211e-33
5.75577e-33
5.68501e-33
5.69059e-33
5.69301e-33
5.69767e-33
5.70014e-33
5.70483e-33
5.70738e-33
5.7121e-33
5.71471e-33
5.71949e-33
5.72215e-33
5.72701e-33
5.72969e-33
5.73463e-33
5.73735e-33
5.74234e-33
5.74514e-33
5.74764e-33
5.75158e-33
5.81109e-33
5.73953e-33
5.74525e-33
5.74761e-33
5.75234e-33
5.75481e-33
5.75957e-33
5.76211e-33
5.76695e-33
5.76951e-33
5.77443e-33
5.77704e-33
5.782e-33
5.78468e-33
5.78969e-33
5.79244e-33
5.79748e-33
5.80031e-33
5.80284e-33
5.80682e-33
5.85453e-33
5.78376e-33
5.78932e-33
5.79163e-33
5.79621e-33
5.79867e-33
5.8033e-33
5.80583e-33
5.81054e-33
5.81313e-33
5.81794e-33
5.82056e-33
5.82548e-33
5.82815e-33
5.83314e-33
5.83591e-33
5.84093e-33
5.84382e-33
5.84633e-33
5.85033e-33
5.87459e-33
5.87458e-33
5.87456e-33
5.87457e-33
5.87454e-33
5.87456e-33
5.87453e-33
5.87455e-33
5.87453e-33
5.87453e-33
5.87453e-33
5.87453e-33
5.87452e-33
5.87452e-33
5.87452e-33
5.87452e-33
5.87452e-33
5.87452e-33
5.87452e-33
5.87452e-33
)
;

boundaryField
{
    movingWall
    {
        type            calculated;
        value           nonuniform List<scalar> 
20
(
5.87459e-33
5.87458e-33
5.87456e-33
5.87457e-33
5.87454e-33
5.87456e-33
5.87453e-33
5.87455e-33
5.87453e-33
5.87453e-33
5.87453e-33
5.87453e-33
5.87452e-33
5.87452e-33
5.87452e-33
5.87452e-33
5.87452e-33
5.87452e-33
5.87452e-33
5.87452e-33
)
;
    }
    fixedWalls
    {
        type            calculated;
        value           nonuniform List<scalar> 
60
(
3.10474e-33
3.33148e-33
3.71558e-33
4.1552e-33
4.5559e-33
4.86737e-33
5.08458e-33
5.22745e-33
5.32136e-33
5.38722e-33
5.43928e-33
5.48624e-33
5.53334e-33
5.58346e-33
5.63792e-33
5.69627e-33
5.75577e-33
5.81109e-33
5.85453e-33
5.87459e-33
3.1047e-33
3.3294e-33
3.71315e-33
4.15239e-33
4.55275e-33
4.86397e-33
5.08097e-33
5.2237e-33
5.31753e-33
5.38335e-33
5.43534e-33
5.48228e-33
5.52931e-33
5.57939e-33
5.6338e-33
5.69211e-33
5.75158e-33
5.80682e-33
5.85033e-33
5.87452e-33
3.10474e-33
3.10473e-33
3.10473e-33
3.10472e-33
3.10472e-33
3.10472e-33
3.10471e-33
3.10471e-33
3.10471e-33
3.10471e-33
3.1047e-33
3.10471e-33
3.1047e-33
3.1047e-33
3.1047e-33
3.1047e-33
3.1047e-33
3.1047e-33
3.1047e-33
3.1047e-33
)
;
    }
    frontAndBack
    {
        type            empty;
    }
}


// ************************************************************************* //
