/*--------------------------------*- C++ -*----------------------------------*\
| =========                 |                                                 |
| \\      /  F ield         | OpenFOAM: The Open Source CFD Toolbox           |
|  \\    /   O peration     | Version:  2506                                  |
|   \\  /    A nd           | Website:  www.openfoam.com                      |
|    \\/     M anipulation  |                                                 |
\*---------------------------------------------------------------------------*/
FoamFile
{
    version     2.0;
    format      ascii;
    arch        "LSB;label=32;scalar=64";
    class       surfaceScalarField;
    location    "8.5";
    object      PecletNoField;
}
// * * * * * * * * * * * * * * * * * * * * * * * * * * * * * * * * * * * * * //

dimensions      [0 0 0 0 0 0 0];

oriented        oriented;

internalField   nonuniform List<scalar> 
760
(
452.389
3.12295e-12
452.389
4.77608e-12
452.389
1.53698e-12
452.389
1.388e-13
452.389
1.25597e-13
452.389
1.24747e-14
452.389
1.92681e-14
452.389
4.57224e-16
452.389
1.78802e-14
452.389
7.74421e-15
452.389
1.68672e-14
452.389
1.51502e-14
452.389
4.03852e-15
452.389
2.21704e-15
452.389
2.65224e-14
452.389
3.27478e-14
452.389
8.32332e-15
452.389
6.35173e-15
452.389
2.56072e-14
5.73307e-14
451.763
1.78614e-12
451.539
2.67477e-12
451.57
7.72824e-13
451.598
9.5169e-14
451.625
1.2549e-13
451.653
3.28035e-14
451.681
4.8171e-14
451.708
3.18595e-14
451.736
3.61085e-14
451.764
3.73925e-14
451.791
2.38515e-14
451.819
1.79053e-14
451.847
6.44951e-14
451.875
7.74014e-15
451.902
3.74533e-14
451.93
8.98934e-15
451.958
1.73845e-14
451.977
1.86471e-14
452
2.96552e-14
4.77728e-14
451.16
1.43761e-12
450.927
1.67145e-12
450.96
3.49327e-13
450.989
4.02025e-14
451.019
4.92174e-15
451.047
4.40596e-15
451.077
3.97078e-14
451.106
1.21915e-14
451.134
3.29354e-15
451.163
5.42789e-14
451.192
1.84949e-14
451.221
2.40054e-14
451.25
4.41135e-15
451.279
1.15843e-14
451.307
2.35381e-14
451.336
5.93193e-14
451.365
4.66417e-15
451.384
4.09701e-16
451.408
3.67425e-14
4.36256e-14
450.54
1.22874e-12
450.3
1.71784e-12
450.335
4.94424e-13
450.364
1.1384e-13
450.394
1.68503e-14
450.424
2.21049e-14
450.454
5.84632e-15
450.484
1.31483e-14
450.513
9.03622e-14
450.543
1.88616e-14
450.573
2.18248e-14
450.602
2.55107e-14
450.632
1.78403e-14
450.661
3.72363e-14
450.691
2.62815e-14
450.72
1.03531e-14
450.749
1.40801e-14
450.769
1.99391e-15
450.793
8.19129e-15
3.1323e-14
450.023
1.44992e-12
449.778
2.1662e-12
449.813
6.45387e-13
449.844
1.30834e-13
449.874
6.44591e-14
449.905
6.81969e-14
449.935
4.93574e-14
449.966
1.09118e-14
449.996
8.8886e-14
450.026
9.19513e-15
450.057
1.14945e-14
450.087
1.56937e-14
450.117
1.93791e-14
450.147
4.6532e-14
450.177
7.85269e-14
450.207
3.48789e-14
450.237
3.63849e-14
450.258
3.57266e-14
450.282
2.20809e-14
5.16751e-15
449.648
1.54028e-12
449.4
2.10872e-12
449.436
4.93269e-13
449.466
8.36236e-14
449.497
3.65773e-14
449.528
7.8245e-15
449.559
3.73119e-14
449.59
3.15755e-14
449.621
1.82618e-14
449.652
4.21575e-14
449.682
6.42783e-14
449.713
1.14629e-13
449.744
8.07205e-14
449.774
2.09333e-14
449.805
3.2435e-14
449.835
7.78725e-15
449.866
2.67387e-15
449.887
9.5358e-15
449.912
1.19581e-14
2.62037e-14
449.4
3.4868e-14
449.148
6.211e-13
449.184
5.05731e-13
449.216
1.26128e-14
449.247
2.98553e-14
449.278
7.50768e-14
449.31
5.37416e-14
449.341
4.18419e-14
449.372
2.73847e-14
449.403
6.52023e-14
449.434
8.63946e-14
449.465
6.69224e-15
449.496
4.11281e-14
449.527
3.0919e-14
449.558
2.4625e-14
449.589
2.28276e-14
449.619
3.26718e-14
449.64
4.43757e-14
449.665
4.16676e-14
5.24736e-14
449.241
1.31905e-12
448.988
2.07947e-12
449.024
8.97564e-13
449.056
9.80589e-14
449.088
4.93994e-14
449.119
1.27802e-14
449.15
7.28723e-14
449.182
5.90874e-14
449.213
5.77869e-14
449.244
1.79587e-14
449.276
1.83894e-14
449.307
2.32785e-14
449.338
3.51734e-14
449.369
8.55899e-16
449.4
3.91387e-14
449.431
3.50317e-14
449.462
7.18448e-17
449.483
4.30753e-14
449.509
6.07593e-15
1.08258e-14
449.139
1.23937e-12
448.885
1.09925e-12
448.921
3.20851e-13
448.953
2.23065e-13
448.985
8.647e-14
449.016
2.84657e-14
449.048
5.12507e-14
449.079
6.73543e-14
449.111
1.52336e-14
449.142
3.27377e-15
449.174
2.6773e-15
449.205
3.22015e-14
449.236
2.75639e-14
449.267
5.78215e-14
449.299
1.95836e-14
449.33
3.70367e-16
449.361
5.09677e-16
449.382
4.09209e-14
449.407
2.04031e-14
5.65819e-15
449.068
1.27329e-12
448.814
1.10243e-12
448.85
7.58918e-14
448.882
1.29389e-13
448.913
7.28037e-14
448.945
5.58583e-14
448.977
3.23788e-14
449.008
2.88644e-14
449.04
5.63515e-14
449.071
5.46547e-14
449.103
2.12219e-14
449.134
6.15977e-14
449.166
1.14542e-13
449.197
4.98809e-14
449.228
4.14914e-15
449.26
2.94041e-14
449.291
1.74423e-14
449.312
3.42375e-14
449.338
7.28219e-14
4.49559e-16
449.013
2.26042e-13
448.758
9.02324e-14
448.794
2.93054e-13
448.826
6.90895e-14
448.858
4.49556e-14
448.89
4.16326e-14
448.921
3.96161e-14
448.953
2.90575e-14
448.985
3.35239e-14
449.016
9.15707e-14
449.048
5.72534e-14
449.079
7.60674e-14
449.111
4.98136e-14
449.142
7.5312e-15
449.174
6.12228e-14
449.205
4.70741e-14
449.236
3.67887e-14
449.257
2.60942e-14
449.283
1.18771e-15
3.02907e-14
448.963
8.7488e-13
448.708
3.83477e-13
448.744
2.85478e-13
448.776
9.39014e-15
448.808
2.86888e-14
448.84
1.03283e-14
448.872
9.38123e-14
448.903
1.01432e-13
448.935
2.10871e-14
448.967
1.3276e-14
448.998
1.29585e-14
449.03
3.23174e-15
449.061
1.21583e-13
449.093
3.07228e-14
449.124
4.47528e-14
449.156
2.29182e-14
449.187
6.52135e-15
449.208
6.74442e-14
449.234
1.84462e-14
7.81809e-14
448.914
2.86879e-13
448.658
9.90258e-13
448.695
5.35353e-13
448.727
6.35185e-16
448.759
5.95853e-14
448.791
2.09336e-14
448.822
3.98252e-14
448.854
1.84342e-14
448.886
7.12606e-14
448.918
3.71832e-14
448.949
6.75798e-14
448.981
4.38031e-14
449.013
1.22018e-14
449.044
1.39945e-14
449.076
2.49277e-14
449.107
2.54869e-14
449.138
1.56789e-14
449.16
3.19307e-14
449.185
5.92295e-14
7.45918e-14
448.862
1.76709e-12
448.606
2.03377e-12
448.642
5.96961e-13
448.674
5.91022e-14
448.706
9.62415e-15
448.738
7.86073e-14
448.77
1.13269e-13
448.802
5.27577e-15
448.834
1.96666e-14
448.866
1.48876e-15
448.897
1.67928e-14
448.929
1.28864e-14
448.961
6.33133e-14
448.992
5.86864e-14
449.024
4.24296e-14
449.055
5.51996e-14
449.087
1.57346e-14
449.108
4.77531e-14
449.134
5.19917e-15
2.5159e-14
448.806
5.55054e-14
448.549
1.56533e-13
448.586
1.21828e-13
448.618
9.24862e-14
448.65
3.53889e-14
448.682
1.32676e-14
448.714
2.09998e-14
448.746
7.98061e-14
448.778
5.63562e-14
448.81
2.4355e-14
448.842
1.59014e-14
448.873
5.83599e-14
448.905
1.05856e-13
448.937
2.7218e-14
448.968
4.32822e-14
449
2.3349e-14
449.032
9.17353e-15
449.053
5.08916e-15
449.079
3.91386e-14
4.61757e-14
448.747
1.35397e-12
448.489
2.5091e-12
448.526
9.42794e-13
448.558
3.45452e-14
448.59
3.3983e-14
448.622
1.69761e-14
448.655
3.81e-14
448.687
4.0699e-14
448.719
3.9634e-14
448.75
7.47379e-15
448.782
5.67309e-15
448.814
1.35195e-14
448.846
1.87137e-14
448.878
1.6228e-14
448.909
1.99286e-14
448.941
4.9282e-14
448.973
1.05655e-14
448.994
1.41743e-14
449.02
2.46432e-14
2.81043e-14
448.687
2.94314e-12
448.429
3.27288e-12
448.466
8.30528e-13
448.498
2.91858e-13
448.53
1.15058e-13
448.562
6.37695e-14
448.594
2.96215e-14
448.626
1.34938e-14
448.658
5.03435e-14
448.69
2.70765e-14
448.722
3.90194e-15
448.754
9.60859e-15
448.786
1.43516e-14
448.818
1.46649e-14
448.85
3.50287e-14
448.881
8.86464e-14
448.913
2.62817e-14
448.935
9.47194e-15
448.961
2.86011e-14
2.99782e-14
448.632
1.37798e-12
448.373
1.3112e-12
448.41
2.83471e-13
448.442
1.65815e-13
448.475
6.67095e-15
448.507
2.18915e-14
448.539
3.52028e-14
448.571
3.5138e-14
448.603
1.06304e-13
448.635
8.46654e-14
448.667
2.29002e-14
448.699
5.19466e-14
448.731
3.42819e-14
448.763
1.7699e-14
448.795
6.67834e-15
448.827
1.26195e-14
448.859
2.2713e-14
448.88
2.88505e-14
448.906
5.34498e-14
2.80412e-14
448.594
2.72566e-12
448.339
4.02966e-12
448.375
1.09072e-12
448.407
1.96244e-13
448.438
4.27772e-14
448.469
2.48166e-14
448.501
6.6046e-14
448.532
3.94668e-14
448.564
9.12392e-15
448.595
2.64865e-14
448.627
7.72083e-14
448.658
2.18265e-14
448.69
7.62144e-14
448.721
7.5049e-15
448.753
2.01336e-14
448.784
5.15892e-15
448.816
4.72395e-14
448.838
5.90672e-14
448.863
4.54325e-14
4.96591e-14
448.855
448.855
448.856
448.856
448.856
448.856
448.856
448.856
448.856
448.856
448.856
448.856
448.856
448.856
448.856
448.856
448.856
448.856
448.856
)
;

boundaryField
{
    movingWall
    {
        type            calculated;
        value           uniform 0;
    }
    fixedWalls
    {
        type            calculated;
        value           nonuniform List<scalar> 
60
(
250
250
250
250
250
250
250
250
250
250
250
250
250
250
250
250
250
250
250
250
250
250
250
250
250
250
250
250
250
250
250
250
250
250
250
250
250
250
250
250
0
0
0
0
0
0
0
0
0
0
0
0
0
0
0
0
0
0
0
0
)
;
    }
    frontAndBack
    {
        type            empty;
    }
}


// ************************************************************************* //
