/*--------------------------------*- C++ -*----------------------------------*\
| =========                 |                                                 |
| \\      /  F ield         | OpenFOAM: The Open Source CFD Toolbox           |
|  \\    /   O peration     | Version:  2506                                  |
|   \\  /    A nd           | Website:  www.openfoam.com                      |
|    \\/     M anipulation  |                                                 |
\*---------------------------------------------------------------------------*/
FoamFile
{
    version     2.0;
    format      ascii;
    arch        "LSB;label=32;scalar=64";
    class       surfaceScalarField;
    location    "8.5";
    object      phi;
}
// * * * * * * * * * * * * * * * * * * * * * * * * * * * * * * * * * * * * * //

dimensions      [0 3 -1 0 0 0 0];

oriented        oriented;

internalField   nonuniform List<scalar> 
760
(
-5e-05
3.45307e-19
-5e-05
-5.28384e-19
-5e-05
1.7003e-19
-5e-05
-1.53545e-20
-5e-05
1.38934e-20
-5e-05
1.37991e-21
-5e-05
2.13128e-21
-5e-05
5.05734e-23
-5e-05
1.97765e-21
-5e-05
-8.56533e-22
-5e-05
-1.86549e-21
-5e-05
-1.67556e-21
-5e-05
-4.46627e-22
-5e-05
-2.45182e-22
-5e-05
2.93298e-21
-5e-05
3.62134e-21
-5e-05
9.20378e-22
-5e-05
7.02348e-22
-5e-05
2.83148e-21
6.33907e-21
-5e-05
-1.97707e-19
-5e-05
2.964e-19
-5e-05
-8.56304e-20
-5e-05
1.05445e-20
-5e-05
-1.39028e-20
-5e-05
-3.63408e-21
-5e-05
-5.33611e-21
-5e-05
-3.52905e-21
-5e-05
-3.99939e-21
-5e-05
-4.14142e-21
-5e-05
2.64147e-21
-5e-05
1.98286e-21
-5e-05
7.14171e-21
-5e-05
8.57048e-22
-5e-05
-4.14678e-21
-5e-05
-9.95245e-22
-5e-05
1.92455e-21
-5e-05
2.06424e-21
-5e-05
-3.2827e-21
-5.2879e-21
-5e-05
-1.59341e-19
-5e-05
1.85474e-19
-5e-05
-3.87592e-20
-5e-05
4.46043e-21
-5e-05
-5.46016e-22
-5e-05
-4.88773e-22
-5e-05
4.40459e-21
-5e-05
1.35228e-21
-5e-05
3.65289e-22
-5e-05
6.01983e-21
-5e-05
2.05102e-21
-5e-05
2.66198e-21
-5e-05
4.89139e-22
-5e-05
-1.28443e-21
-5e-05
-2.60962e-21
-5e-05
-6.57629e-21
-5e-05
-5.17039e-22
-5e-05
4.54146e-23
-5e-05
-4.07268e-21
-4.83531e-21
-5e-05
1.36361e-19
-5e-05
-1.90865e-19
-5e-05
5.49282e-20
-5e-05
-1.26465e-20
-5e-05
1.87174e-21
-5e-05
-2.45531e-21
-5e-05
6.49326e-22
-5e-05
1.46026e-21
-5e-05
1.00348e-20
-5e-05
2.0945e-21
-5e-05
2.42334e-21
-5e-05
2.83247e-21
-5e-05
1.98065e-21
-5e-05
4.13383e-21
-5e-05
2.91742e-21
-5e-05
1.14921e-21
-5e-05
-1.56278e-21
-5e-05
2.21297e-22
-5e-05
-9.09087e-22
-3.47606e-21
-5e-05
-1.61063e-19
-5e-05
2.40922e-19
-5e-05
-7.17711e-20
-5e-05
1.45489e-20
-5e-05
-7.16729e-21
-5e-05
-7.58255e-21
-5e-05
-5.48737e-21
-5e-05
-1.21308e-21
-5e-05
-9.88066e-21
-5e-05
-1.02209e-21
-5e-05
1.27757e-21
-5e-05
-1.74421e-21
-5e-05
2.15362e-21
-5e-05
5.1709e-21
-5e-05
8.72559e-21
-5e-05
3.87542e-21
-5e-05
4.0424e-21
-5e-05
3.96907e-21
-5e-05
-2.45298e-21
-5.74025e-22
-5e-05
1.71219e-19
-5e-05
-2.34694e-19
-5e-05
5.48931e-20
-5e-05
-9.30557e-21
-5e-05
4.06992e-21
-5e-05
-8.70583e-22
-5e-05
-4.15109e-21
-5e-05
-3.51272e-21
-5e-05
-2.03141e-21
-5e-05
4.6893e-21
-5e-05
7.14922e-21
-5e-05
1.27488e-20
-5e-05
8.97674e-21
-5e-05
2.32784e-21
-5e-05
-3.60653e-21
-5e-05
8.65842e-22
-5e-05
2.97274e-22
-5e-05
-1.06011e-21
-5e-05
1.32934e-21
2.9128e-21
-5e-05
3.87768e-21
-5e-05
-6.91582e-20
-5e-05
5.63057e-20
-5e-05
1.40418e-21
-5e-05
-3.32349e-21
-5e-05
-8.35713e-21
-5e-05
-5.98167e-21
-5e-05
-4.65695e-21
-5e-05
-3.04761e-21
-5e-05
7.25593e-21
-5e-05
9.61342e-21
-5e-05
-7.44632e-22
-5e-05
4.57583e-21
-5e-05
3.43982e-21
-5e-05
2.73934e-21
-5e-05
2.53928e-21
-5e-05
3.634e-21
-5e-05
4.93555e-21
-5e-05
4.63415e-21
5.83556e-21
-5e-05
-1.46734e-19
-5e-05
2.31613e-19
-5e-05
-9.99598e-20
-5e-05
1.09201e-20
-5e-05
-5.50073e-21
-5e-05
-1.42304e-21
-5e-05
8.11336e-21
-5e-05
6.57828e-21
-5e-05
6.4329e-21
-5e-05
1.99909e-21
-5e-05
-2.04685e-21
-5e-05
-2.5909e-21
-5e-05
-3.91445e-21
-5e-05
9.52485e-23
-5e-05
4.35515e-21
-5e-05
3.89795e-21
-5e-05
-7.9934e-24
-5e-05
-4.7923e-21
-5e-05
-6.75941e-22
-1.20427e-21
-5e-05
1.37897e-19
-5e-05
-1.22459e-19
-5e-05
3.57394e-20
-5e-05
-2.48459e-20
-5e-05
-9.6305e-21
-5e-05
-3.17019e-21
-5e-05
-5.70719e-21
-5e-05
-7.50009e-21
-5e-05
-1.69615e-21
-5e-05
-3.64493e-22
-5e-05
2.98056e-22
-5e-05
3.58472e-21
-5e-05
-3.06817e-21
-5e-05
6.43588e-21
-5e-05
2.17957e-21
-5e-05
-4.12184e-23
-5e-05
5.67172e-23
-5e-05
4.55347e-21
-5e-05
2.27026e-21
-6.29544e-22
-5e-05
1.4169e-19
-5e-05
-1.22831e-19
-5e-05
8.45475e-21
-5e-05
-1.44139e-20
-5e-05
-8.10957e-21
-5e-05
-6.22173e-21
-5e-05
-3.60616e-21
-5e-05
-3.21459e-21
-5e-05
-6.27521e-21
-5e-05
-6.08596e-21
-5e-05
-2.3629e-21
-5e-05
6.85812e-21
-5e-05
1.27517e-20
-5e-05
5.55282e-21
-5e-05
-4.61847e-22
-5e-05
-3.27285e-21
-5e-05
-1.94126e-21
-5e-05
3.81031e-21
-5e-05
8.10403e-21
5.00259e-23
-5e-05
2.51566e-20
-5e-05
1.00547e-20
-5e-05
-3.26516e-20
-5e-05
-7.69748e-21
-5e-05
-5.00818e-21
-5e-05
-4.63776e-21
-5e-05
-4.41272e-21
-5e-05
3.23646e-21
-5e-05
-3.7336e-21
-5e-05
-1.01978e-20
-5e-05
-6.37549e-21
-5e-05
8.47011e-21
-5e-05
5.54625e-21
-5e-05
8.38482e-22
-5e-05
6.81559e-21
-5e-05
5.24024e-21
-5e-05
4.0949e-21
-5e-05
2.90437e-21
-5e-05
1.3219e-22
3.37107e-21
-5e-05
-9.73774e-20
-5e-05
4.27361e-20
-5e-05
3.18111e-20
-5e-05
-1.0463e-21
-5e-05
-3.19637e-21
-5e-05
1.15067e-21
-5e-05
1.04506e-20
-5e-05
1.12989e-20
-5e-05
2.34876e-21
-5e-05
1.47866e-21
-5e-05
-1.44316e-21
-5e-05
-3.59894e-22
-5e-05
1.35385e-20
-5e-05
3.42088e-21
-5e-05
-4.98262e-21
-5e-05
2.55151e-21
-5e-05
-7.25963e-22
-5e-05
-7.50758e-21
-5e-05
2.05326e-21
8.70175e-21
-5e-05
-3.19342e-20
-5e-05
1.10371e-19
-5e-05
-5.96616e-20
-5e-05
-7.07839e-23
-5e-05
-6.63945e-21
-5e-05
-2.33247e-21
-5e-05
-4.437e-21
-5e-05
-2.05368e-21
-5e-05
7.93815e-21
-5e-05
4.14186e-21
-5e-05
7.52706e-21
-5e-05
4.87856e-21
-5e-05
-1.35884e-21
-5e-05
-1.55841e-21
-5e-05
-2.77567e-21
-5e-05
-2.8378e-21
-5e-05
-1.74559e-21
-5e-05
-3.55478e-21
-5e-05
-6.5936e-21
-8.3032e-21
-5e-05
1.96729e-19
-5e-05
-2.26705e-19
-5e-05
6.65355e-20
-5e-05
-6.58704e-21
-5e-05
-1.07253e-21
-5e-05
-8.75966e-21
-5e-05
-1.2621e-20
-5e-05
-5.87825e-22
-5e-05
2.19105e-21
-5e-05
1.65854e-22
-5e-05
-1.87061e-21
-5e-05
-1.4354e-21
-5e-05
-7.0517e-21
-5e-05
-6.53605e-21
-5e-05
4.72505e-21
-5e-05
6.14685e-21
-5e-05
1.752e-21
-5e-05
5.31688e-21
-5e-05
5.78855e-22
-2.80091e-21
-5e-05
-6.18017e-21
-5e-05
1.7451e-20
-5e-05
1.35803e-20
-5e-05
1.03091e-20
-5e-05
3.94429e-21
-5e-05
-1.47868e-21
-5e-05
-2.34021e-21
-5e-05
-8.89312e-21
-5e-05
-6.27943e-21
-5e-05
-2.7136e-21
-5e-05
1.77155e-21
-5e-05
-6.50144e-21
-5e-05
-1.17915e-20
-5e-05
-3.03173e-21
-5e-05
4.82062e-21
-5e-05
-2.6004e-21
-5e-05
-1.02157e-21
-5e-05
5.66705e-22
-5e-05
4.3581e-21
5.14131e-21
-5e-05
-1.50775e-19
-5e-05
2.79763e-19
-5e-05
-1.05109e-19
-5e-05
3.85114e-21
-5e-05
-3.7881e-21
-5e-05
-1.89224e-21
-5e-05
-4.24641e-21
-5e-05
-4.53587e-21
-5e-05
-4.41676e-21
-5e-05
-8.32828e-22
-5e-05
-6.32112e-22
-5e-05
-1.5063e-21
-5e-05
2.08483e-21
-5e-05
1.80782e-21
-5e-05
-2.21987e-21
-5e-05
5.48931e-21
-5e-05
1.17674e-21
-5e-05
-1.57859e-21
-5e-05
2.74439e-21
3.12962e-21
-5e-05
3.27784e-19
-5e-05
-3.64972e-19
-5e-05
9.26045e-20
-5e-05
-3.25408e-20
-5e-05
-1.28272e-20
-5e-05
-7.10899e-21
-5e-05
3.30187e-21
-5e-05
1.50407e-21
-5e-05
5.61093e-21
-5e-05
3.0176e-21
-5e-05
-4.3482e-22
-5e-05
1.0707e-21
-5e-05
1.59908e-21
-5e-05
-1.6339e-21
-5e-05
-3.90239e-21
-5e-05
-9.87519e-21
-5e-05
-2.92751e-21
-5e-05
1.05502e-21
-5e-05
3.18556e-21
3.33871e-21
-5e-05
1.53485e-19
-5e-05
-1.46231e-19
-5e-05
3.16104e-20
-5e-05
-1.84895e-20
-5e-05
-7.43785e-22
-5e-05
2.4407e-21
-5e-05
3.92442e-21
-5e-05
-3.91701e-21
-5e-05
-1.18492e-20
-5e-05
-9.43674e-21
-5e-05
-2.5522e-21
-5e-05
5.78911e-21
-5e-05
3.82015e-21
-5e-05
-1.97215e-21
-5e-05
-7.44083e-22
-5e-05
-1.40597e-21
-5e-05
2.53027e-21
-5e-05
3.21383e-21
-5e-05
-5.95383e-21
-3.12332e-21
-5e-05
-3.03617e-19
-5e-05
4.49153e-19
-5e-05
-1.21567e-19
-5e-05
2.1872e-20
-5e-05
-4.76742e-21
-5e-05
-2.76569e-21
-5e-05
-7.36015e-21
-5e-05
-4.39807e-21
-5e-05
1.0167e-21
-5e-05
2.95137e-21
-5e-05
8.60288e-21
-5e-05
-2.43194e-21
-5e-05
-8.49154e-21
-5e-05
-8.36148e-22
-5e-05
-2.24306e-21
-5e-05
-5.74734e-22
-5e-05
-5.26252e-21
-5e-05
-6.57996e-21
-5e-05
-5.06098e-21
-5.5316e-21
-5e-05
-5e-05
-5e-05
-5e-05
-5e-05
-5e-05
-5e-05
-5e-05
-5e-05
-5e-05
-5e-05
-5e-05
-5e-05
-5e-05
-5e-05
-5e-05
-5e-05
-5e-05
-5e-05
)
;

boundaryField
{
    movingWall
    {
        type            calculated;
        value           uniform 0;
    }
    fixedWalls
    {
        type            calculated;
        value           nonuniform List<scalar> 
60
(
5e-05
5e-05
5e-05
5e-05
5e-05
5e-05
5e-05
5e-05
5e-05
5e-05
5e-05
5e-05
5e-05
5e-05
5e-05
5e-05
5e-05
5e-05
5e-05
5e-05
-5e-05
-5e-05
-5e-05
-5e-05
-5e-05
-5e-05
-5e-05
-5e-05
-5e-05
-5e-05
-5e-05
-5e-05
-5e-05
-5e-05
-5e-05
-5e-05
-5e-05
-5e-05
-5e-05
-5e-05
0
0
0
0
0
0
0
0
0
0
0
0
0
0
0
0
0
0
0
0
)
;
    }
    frontAndBack
    {
        type            empty;
    }
}


// ************************************************************************* //
