/*--------------------------------*- C++ -*----------------------------------*\
| =========                 |                                                 |
| \\      /  F ield         | OpenFOAM: The Open Source CFD Toolbox           |
|  \\    /   O peration     | Version:  2506                                  |
|   \\  /    A nd           | Website:  www.openfoam.com                      |
|    \\/     M anipulation  |                                                 |
\*---------------------------------------------------------------------------*/
FoamFile
{
    version     2.0;
    format      ascii;
    arch        "LSB;label=32;scalar=64";
    class       volScalarField;
    location    "8.5";
    object      QField;
}
// * * * * * * * * * * * * * * * * * * * * * * * * * * * * * * * * * * * * * //

dimensions      [0 0 -2 0 0 0 0];

internalField   nonuniform List<scalar> 
400
(
-1.23337e-23
-4.44026e-24
-1.11852e-25
-1.25717e-26
8.29212e-28
-1.7861e-27
-2.07391e-28
0
2.99887e-28
0
0
0
0
6.93968e-28
4.36713e-29
0
0
0
-2.53043e-28
-1.37597e-28
-2.17366e-23
-7.79255e-24
-5.13542e-25
5.19494e-27
-4.49462e-27
0
-1.16363e-27
1.21359e-28
-5.97552e-28
1.8891e-28
-7.82624e-29
6.38821e-28
-9.92588e-28
-3.68116e-28
-8.88045e-28
2.01344e-28
9.06715e-29
-3.33869e-28
0
-7.33761e-28
-1.94108e-23
-7.72786e-24
7.91496e-26
-4.11209e-26
9.2637e-27
-2.84202e-27
1.36432e-28
-7.99057e-28
-5.82153e-28
-2.06239e-27
-4.05406e-28
-1.11109e-28
1.71952e-28
1.6155e-27
7.0126e-28
0
-7.71086e-28
6.57905e-28
0
0
-1.31065e-23
-5.08321e-24
-1.24649e-25
-3.54717e-26
8.44404e-27
-4.76075e-28
3.42753e-28
-9.52004e-29
-2.01909e-28
7.788e-28
7.48571e-28
4.00016e-28
-1.60503e-28
-4.92056e-28
6.72686e-28
2.50067e-28
-5.84449e-28
0
0
-3.3622e-28
-7.40752e-24
-2.51082e-24
-1.36165e-25
-1.36988e-26
6.6038e-28
-5.29125e-28
-3.58529e-28
-1.14267e-28
-4.30144e-27
-9.91425e-29
0
1.78972e-28
5.12274e-28
5.92265e-28
-1.57696e-28
2.17661e-28
-3.61328e-28
-6.1462e-29
3.32788e-28
-2.89754e-28
-7.92467e-24
-3.3947e-24
-1.05405e-25
-1.58614e-26
8.3453e-28
1.31636e-28
0
1.33918e-28
-3.2898e-28
5.17166e-29
0
-1.8887e-27
-2.96528e-28
2.36606e-28
-1.36548e-27
-5.23565e-29
-4.92592e-29
9.9152e-29
4.63486e-29
-3.55592e-29
-5.13264e-24
-3.81933e-24
2.30093e-25
-4.43803e-26
8.77838e-27
-1.54708e-27
1.82611e-27
2.70739e-27
3.33375e-27
3.16345e-27
-6.17677e-29
-8.53365e-28
-1.28133e-27
-1.19834e-29
-1.13918e-28
2.62129e-28
9.76861e-29
1.29207e-29
1.58987e-28
3.44578e-28
1.34095e-24
-9.9145e-26
-1.58426e-25
1.35837e-26
0
8.95742e-28
-6.37384e-28
-4.56919e-28
-1.0431e-28
-1.22066e-27
-4.7884e-28
1.53889e-27
-2.4812e-27
4.62409e-28
0
5.84816e-29
0
-8.02565e-28
0
-2.51422e-28
-3.50486e-24
-1.32433e-24
3.90542e-26
-1.60102e-26
1.90638e-27
5.66278e-28
-1.69917e-27
-2.60327e-28
2.29347e-28
5.83268e-28
5.59828e-28
1.04975e-27
-1.1314e-27
-1.31934e-27
-1.36634e-28
2.71873e-28
3.58601e-28
-4.33157e-28
-1.13899e-28
0
-4.22664e-24
-8.28047e-25
-1.8156e-25
2.20143e-26
0
6.29712e-28
-2.75324e-28
1.92634e-28
9.02047e-28
5.22842e-28
7.62967e-28
-2.87281e-28
-1.94567e-27
0
3.93726e-28
1.94182e-29
3.29204e-28
4.6525e-28
0
8.24194e-29
9.50896e-24
1.00712e-24
2.74726e-25
0
1.61314e-27
0
8.79788e-28
-3.65603e-27
0
-8.44957e-29
4.31603e-27
2.90717e-27
-8.25824e-28
-8.21582e-28
-3.43699e-28
-9.14725e-28
3.44818e-28
-6.15762e-28
-1.97903e-28
-3.03769e-28
1.5409e-23
2.44721e-24
3.02911e-25
-1.49293e-26
5.48012e-27
3.15718e-28
1.04454e-27
-4.41887e-28
-2.35914e-28
-9.4785e-28
7.52099e-28
4.76987e-29
3.76342e-28
-3.51102e-28
-9.26225e-28
-3.97679e-29
0
-1.29489e-27
3.14753e-28
-4.05383e-28
1.10148e-23
2.03891e-24
3.99692e-26
1.21649e-26
-1.84026e-27
3.83349e-28
-1.96257e-27
2.94281e-29
-1.98664e-28
2.99724e-28
8.77837e-28
-5.02281e-28
-1.24252e-27
2.78573e-27
6.29424e-28
-6.31391e-28
1.21801e-27
-1.46764e-28
-4.97259e-28
-1.1065e-27
6.80353e-24
6.78234e-25
1.83059e-25
-6.46797e-27
7.44642e-27
0
-5.69878e-28
7.88007e-28
-6.35614e-28
-8.25136e-28
-6.80184e-28
-4.91922e-28
2.5458e-28
-1.74307e-28
-1.46457e-27
-4.28016e-28
1.51848e-29
-3.41925e-28
7.34085e-28
-5.87153e-28
-2.97041e-24
-2.54652e-24
1.65207e-25
6.75817e-27
-2.72266e-27
2.16738e-27
-2.88382e-28
-1.73711e-27
-6.0909e-28
0
3.46609e-28
-5.75565e-28
5.2143e-28
3.09926e-27
6.08132e-28
-1.44621e-28
3.18211e-28
1.03333e-28
-2.29639e-28
-9.73693e-28
-1.06562e-23
-3.88442e-24
-1.61586e-25
6.69624e-27
2.78857e-27
6.1235e-28
2.8519e-27
-7.85516e-28
-6.69979e-28
0
0
0
-7.61752e-28
1.28998e-27
-4.63853e-28
9.25195e-29
2.17138e-28
-4.93076e-28
2.9914e-28
-4.52486e-28
-1.58224e-23
-4.51566e-24
-2.36201e-25
-6.10143e-27
9.82107e-28
1.74596e-27
1.30669e-27
-7.07839e-28
-3.03857e-28
2.512e-28
0
0
0
4.87031e-28
0
-1.79005e-27
4.88221e-28
0
2.55408e-28
0
-2.18337e-23
-6.48281e-24
-4.67022e-26
-4.8204e-27
8.88263e-27
8.33736e-28
-5.85441e-28
0
-1.76208e-27
-4.77639e-28
-2.07058e-28
0
2.05633e-28
7.26768e-28
-3.90282e-28
-7.6895e-28
1.78544e-29
-1.42745e-29
-1.61599e-27
0
-2.07291e-23
-6.15718e-24
-1.61068e-25
-2.76783e-26
5.59282e-27
2.1601e-28
6.91902e-28
6.82117e-29
-2.37209e-27
-4.10479e-28
-5.94725e-28
3.44068e-28
8.81149e-29
1.61592e-28
-3.17477e-28
5.94557e-29
2.77388e-28
3.63344e-28
2.7332e-28
-6.03587e-28
-6.97236e-24
-2.07749e-24
-1.69705e-25
1.42904e-26
-2.7082e-27
8.84316e-29
-5.35041e-30
3.0114e-28
2.34182e-30
-7.82813e-30
-1.7617e-27
-7.22238e-28
-5.04965e-28
-1.3679e-28
0
3.96993e-29
-3.25601e-28
-3.54997e-28
7.0021e-28
-3.53647e-28
)
;

boundaryField
{
    movingWall
    {
        type            calculated;
        value           nonuniform List<scalar> 
20
(
2.48143e-24
1.68499e-24
-5.00613e-25
6.22893e-26
-1.77485e-26
1.59054e-27
1.40635e-27
3.33145e-27
7.67367e-30
-1.63397e-27
-5.56967e-27
-8.79942e-27
-1.55929e-27
4.25706e-28
1.01128e-27
2.60173e-28
-1.27668e-27
-7.30787e-28
1.00428e-27
6.55534e-29
)
;
    }
    fixedWalls
    {
        type            calculated;
        value           nonuniform List<scalar> 
60
(
-7.87189e-23
-1.32211e-22
-1.02646e-22
-6.8358e-23
-4.66092e-23
-4.74185e-23
-2.61597e-23
-3.371e-24
-1.66619e-23
-2.15393e-23
4.81439e-23
7.23619e-23
4.63455e-23
2.91507e-23
-1.52584e-23
-5.94447e-23
-8.27907e-23
-1.11215e-22
-1.08459e-22
-4.13434e-23
-2.25439e-28
-1.20219e-27
0
-8.62262e-28
-9.49467e-28
-2.96756e-28
8.01692e-28
-5.2426e-28
0
-7.29516e-29
-9.95391e-28
-1.05839e-27
-1.81289e-27
-1.05963e-27
-1.5953e-27
-8.7651e-28
0
6.42065e-28
-8.62796e-28
-6.12192e-28
1.16874e-23
9.62159e-24
-1.41064e-24
1.64494e-25
-2.57656e-26
5.66609e-27
-1.04907e-27
4.39697e-28
1.474e-27
1.6731e-27
5.07331e-28
-1.55917e-27
-1.27151e-27
-2.274e-27
-1.07327e-28
1.2636e-27
1.42828e-28
-6.91569e-28
-9.12005e-28
4.53329e-29
)
;
    }
    frontAndBack
    {
        type            empty;
    }
}


// ************************************************************************* //
