/*--------------------------------*- C++ -*----------------------------------*\
| =========                 |                                                 |
| \\      /  F ield         | OpenFOAM: The Open Source CFD Toolbox           |
|  \\    /   O peration     | Version:  2506                                  |
|   \\  /    A nd           | Website:  www.openfoam.com                      |
|    \\/     M anipulation  |                                                 |
\*---------------------------------------------------------------------------*/
FoamFile
{
    version     2.0;
    format      ascii;
    arch        "LSB;label=32;scalar=64";
    class       surfaceScalarField;
    location    "8.5";
    object      surfaceDivU;
}
// * * * * * * * * * * * * * * * * * * * * * * * * * * * * * * * * * * * * * //

dimensions      [0 0 -1 0 0 0 0];

internalField   nonuniform List<scalar> 
760
(
5.31513e-12
-3.55076e-12
-6.83218e-13
4.99486e-13
9.96043e-14
-1.08863e-13
-7.40908e-14
4.02441e-14
1.01975e-14
-2.56314e-14
6.11111e-15
9.43953e-15
-7.72001e-15
1.04714e-14
4.47659e-15
-5.20643e-15
-1.7528e-15
9.56151e-15
-9.42911e-15
-6.76386e-15
-8.18479e-15
-1.43213e-14
1.31942e-16
2.32e-15
4.45329e-15
-1.45663e-14
4.06348e-15
-6.36723e-16
8.11652e-15
2.25299e-14
9.25018e-15
1.63071e-14
9.28243e-15
7.76995e-15
-3.45631e-15
8.11911e-15
-2.24372e-14
-1.41163e-14
1.35525e-14
-8.3664e-12
-7.26415e-12
1.07384e-12
8.78304e-13
-1.68224e-13
-2.09919e-13
8.87035e-14
6.18548e-14
-2.63894e-14
-2.57151e-14
1.37998e-14
-9.01605e-15
1.29849e-14
3.67421e-14
-1.21508e-16
-1.92626e-14
4.55045e-15
1.23878e-14
-1.1656e-14
-2.23216e-14
-3.8165e-15
-2.77038e-15
-1.23782e-14
-4.09471e-15
-1.96563e-14
-1.39588e-14
1.78297e-14
-7.81345e-16
3.07205e-14
2.95462e-14
1.48269e-14
1.59302e-15
6.60663e-15
2.78249e-14
-2.54088e-15
1.46248e-15
2.18735e-14
-1.32893e-14
1.35525e-14
1.98055e-12
5.6243e-12
-4.05455e-13
-6.41969e-13
2.01592e-14
6.69259e-14
-5.25637e-14
-5.01768e-14
-8.34177e-15
1.26701e-14
1.39262e-14
-8.37326e-15
4.49457e-15
3.40312e-14
-6.75328e-15
-1.93646e-14
-1.44843e-14
7.64082e-16
-1.3436e-14
-1.4305e-14
-3.04859e-15
9.08595e-15
-5.67534e-15
-7.72298e-15
4.91609e-15
6.07116e-15
1.09351e-14
-4.47881e-15
4.18702e-16
1.81321e-14
1.4591e-14
-9.10164e-15
2.26807e-14
2.35735e-14
-9.2859e-15
5.25847e-16
-2.16102e-14
1.26155e-15
-2.8399e-29
3.00178e-12
-1.69407e-12
-1.69587e-13
3.92281e-13
-3.41008e-15
-1.03006e-13
1.50571e-14
1.5755e-14
1.26386e-14
3.32055e-14
1.17317e-14
-7.51142e-16
1.01721e-14
8.88044e-15
-1.18472e-14
-1.31384e-14
9.43417e-16
2.47023e-14
8.21696e-15
2.94522e-15
4.41156e-15
7.41836e-15
4.02351e-15
8.06455e-15
-3.32375e-15
1.0149e-14
2.71813e-15
-1.04399e-14
8.61173e-15
4.0978e-15
-1.19116e-16
6.47617e-15
1.41866e-15
-9.61398e-15
1.10733e-14
-8.9106e-15
2.28717e-14
2.01515e-14
2.52435e-29
-4.30356e-12
-4.87891e-13
4.58862e-13
2.44532e-13
-8.38409e-14
-2.25107e-14
3.39034e-14
5.01873e-15
1.98157e-14
1.67025e-14
-3.60241e-15
-5.97181e-15
-1.443e-14
-7.22949e-15
2.34112e-14
-5.47591e-16
2.67041e-14
7.29278e-15
2.14662e-15
-5.29561e-15
1.10713e-14
2.15385e-14
1.419e-14
-3.27565e-14
3.03279e-15
-6.04426e-15
-9.06025e-15
-1.35751e-14
1.96224e-15
2.36661e-14
-3.01869e-15
1.06416e-14
-1.99432e-14
-3.16553e-14
1.67636e-16
2.02427e-14
-2.72021e-15
1.33983e-14
-1.35525e-14
4.0602e-12
5.20417e-12
-2.36841e-13
-9.82893e-13
6.6349e-14
1.82101e-13
-1.21821e-14
-6.93502e-14
-9.085e-15
3.01624e-14
-9.59889e-15
-8.67661e-15
6.65292e-15
2.3641e-14
-1.6666e-14
3.04942e-14
-2.4707e-14
-1.90419e-14
1.40963e-14
1.14793e-14
-2.22894e-14
1.54247e-15
-5.29908e-14
-3.30068e-14
-2.26522e-14
9.14944e-15
1.91512e-14
-1.74039e-14
3.23454e-14
1.73713e-14
-1.79951e-14
9.62252e-15
8.53066e-15
-3.15295e-14
3.34735e-14
2.03739e-14
2.56603e-15
2.16174e-14
-1.35525e-14
1.61075e-13
-5.6243e-12
-5.63951e-13
8.21144e-13
4.64014e-14
-2.25826e-13
-2.70057e-14
3.74562e-14
3.05708e-14
1.23338e-14
2.45633e-14
1.64361e-14
4.74822e-14
1.56272e-14
2.81183e-14
4.41522e-16
1.71444e-14
-2.11308e-14
-1.07447e-15
2.97368e-14
-9.17497e-15
-4.21746e-15
2.91334e-14
-2.90103e-14
1.43977e-14
2.98994e-14
-1.91839e-14
1.09563e-14
-5.35158e-15
-2.77854e-15
-3.91188e-15
-4.14964e-15
-1.96862e-14
-9.74974e-15
8.51784e-15
2.91225e-14
5.49883e-15
2.26893e-14
-1.35525e-14
-4.96423e-12
-4.33681e-13
1.15927e-12
2.69034e-13
-2.34771e-13
-8.54911e-14
7.67957e-14
-1.73561e-15
-1.80091e-15
-4.1181e-15
7.50005e-15
-9.27827e-15
-3.14135e-14
1.59026e-14
-4.88075e-14
-3.48969e-15
-8.53838e-15
-1.10227e-14
2.65938e-14
2.80153e-14
-2.40527e-14
1.19474e-14
-2.82442e-14
-3.10335e-14
2.6458e-14
-6.89068e-15
2.73616e-14
1.49115e-14
-1.5766e-15
1.17116e-14
-9.98751e-15
-9.13287e-15
3.9059e-14
-1.35629e-15
4.3294e-14
3.02289e-14
3.63794e-15
-3.94435e-15
0
4.79958e-12
4.37747e-12
-9.75727e-13
-7.09619e-13
1.47545e-13
1.6376e-13
-8.26494e-14
-6.06516e-14
-1.15955e-14
6.87871e-15
-8.75764e-16
-2.65331e-14
4.38263e-14
7.78205e-15
3.42952e-14
-1.63619e-15
2.5531e-14
1.56517e-14
1.33688e-14
1.77053e-15
4.96657e-15
1.21327e-14
-9.67998e-15
8.31252e-15
-1.84372e-14
-2.44305e-14
-7.38516e-16
-9.16958e-15
4.15533e-15
6.2335e-15
-5.01647e-16
-1.15624e-15
-1.01864e-14
1.0096e-15
-1.70095e-14
1.2967e-14
-7.58229e-15
7.41188e-16
-1.35525e-14
-1.13173e-12
-3.33392e-12
4.29868e-13
7.40041e-13
-4.44361e-14
-1.07573e-13
2.88765e-14
7.43682e-14
-8.0589e-15
-1.78878e-14
-1.78752e-14
5.37999e-15
-3.76805e-14
1.38206e-14
-2.02797e-14
-5.68532e-14
-8.10881e-15
6.47212e-15
5.34402e-16
1.26415e-14
1.54787e-14
2.80475e-16
-6.43802e-15
1.72469e-14
-1.51629e-14
9.45716e-15
-2.19756e-15
-1.13691e-14
9.21938e-16
8.36802e-15
3.55009e-16
-2.14959e-14
2.4163e-14
-2.04736e-14
3.07176e-14
3.91089e-14
-5.22905e-15
1.52481e-14
-1.35525e-14
-1.46215e-12
1.96512e-12
2.026e-13
-1.00223e-12
1.12311e-14
1.90546e-13
2.76039e-14
-5.30191e-14
-4.4489e-15
1.12353e-14
3.70758e-14
-1.63556e-14
-5.3521e-15
1.24329e-14
-3.01014e-14
-1.831e-14
2.72224e-14
-1.41395e-15
1.23875e-14
2.36156e-14
2.04872e-15
-2.68809e-14
3.31421e-14
3.18462e-14
1.32509e-14
-4.04092e-15
-8.03555e-16
-3.76223e-15
-1.40498e-14
4.47092e-14
-4.23245e-14
-2.8755e-14
-5.52773e-15
-2.28739e-14
2.36394e-14
3.50388e-14
6.92462e-15
7.47656e-15
-2.71051e-14
2.42503e-12
-1.53144e-12
-1.01429e-12
3.10043e-13
1.26296e-13
-8.60033e-14
-6.93876e-14
1.12216e-14
-6.71373e-16
3.7133e-14
-4.09985e-14
-3.11462e-14
-5.24928e-16
-9.73294e-15
1.03774e-14
2.07796e-14
-5.02074e-15
-1.94508e-14
-1.56528e-14
9.09979e-15
2.91652e-15
-6.24237e-15
-5.33685e-15
-1.9495e-15
-2.1054e-14
-8.66674e-15
4.17505e-14
1.09179e-14
3.0004e-14
1.82143e-14
-9.30436e-15
2.89319e-15
1.76926e-14
-4.51138e-15
1.8876e-14
1.04405e-14
-2.65531e-14
5.4836e-15
-1.26218e-28
-3.64642e-12
-1.35525e-14
1.23833e-12
5.85715e-13
-2.01078e-13
-1.16002e-13
1.17742e-13
1.20098e-14
6.65821e-15
2.66873e-14
1.19361e-16
-2.14255e-14
1.15715e-14
3.08495e-14
-9.04866e-15
-3.43919e-16
-5.33023e-15
-1.30372e-14
1.85103e-14
7.0645e-15
-1.11084e-14
1.24848e-14
-5.27939e-15
-9.89728e-15
2.33052e-14
2.68916e-14
-1.26184e-14
-1.2062e-16
-8.89653e-15
-2.74171e-14
7.68617e-15
1.04986e-15
-1.17635e-14
-1.94094e-15
-2.95189e-15
-2.90897e-15
3.20367e-14
2.82418e-15
1.35525e-14
4.21858e-12
3.80826e-12
-7.68616e-13
-9.67249e-13
9.70858e-14
1.95327e-13
-7.90452e-14
-9.83293e-14
-1.39639e-15
-6.75098e-15
9.3047e-15
-2.12094e-14
1.89341e-14
-3.66654e-15
-4.33251e-15
4.35747e-15
-6.42517e-16
5.52402e-15
1.03904e-15
-6.26644e-15
1.36959e-14
-1.42404e-14
2.22737e-14
1.10686e-14
3.46577e-15
3.65133e-14
-1.49193e-14
3.45569e-15
-1.74707e-14
4.45972e-15
-8.57726e-15
9.50024e-15
6.91361e-15
-1.11075e-14
2.8671e-15
3.55031e-14
-1.566e-14
6.10891e-15
-4.06576e-14
-1.37757e-12
-6.55942e-12
-3.30557e-15
1.1079e-12
-8.76853e-17
-2.08353e-13
-2.60351e-14
8.1373e-14
-2.6564e-14
-3.65457e-14
-3.41807e-14
3.04994e-15
-1.82432e-14
-1.93292e-14
1.4214e-14
2.11334e-15
-9.98968e-17
1.50315e-14
-2.15459e-14
-2.84085e-15
-1.68677e-14
-1.68555e-14
2.53083e-14
9.86546e-15
3.65032e-14
9.46596e-15
2.28347e-14
8.88761e-15
3.14306e-14
8.29783e-15
6.97e-15
6.40881e-15
1.7482e-14
-4.16483e-14
3.87449e-14
5.65092e-14
-1.88887e-14
1.7499e-15
-1.35525e-14
-4.07395e-12
2.69695e-12
9.02854e-13
-4.28123e-14
-1.26893e-13
4.10968e-14
7.08624e-14
-6.43568e-15
-6.93168e-15
-1.19738e-15
1.79014e-14
2.40229e-15
1.02726e-15
5.66309e-15
2.93081e-15
-3.6262e-15
1.22905e-14
-1.79969e-14
1.84952e-15
-1.4963e-14
9.87763e-15
-2.04466e-16
-5.97684e-15
1.52719e-14
-1.81496e-14
-1.05163e-14
-5.64927e-15
-5.82694e-15
-1.6724e-14
-1.25121e-14
-4.22095e-14
1.59878e-14
-2.62114e-15
-1.59196e-14
1.95142e-14
2.87209e-14
7.08604e-15
-3.11969e-14
-1.67239e-28
6.72809e-12
5.81403e-12
-9.0457e-13
-9.29324e-13
1.61554e-13
2.24117e-13
-7.84955e-14
-7.44888e-14
8.13659e-15
-4.70064e-15
-9.83601e-15
-2.26357e-14
1.00963e-15
-3.47137e-15
-2.45539e-14
-6.46433e-15
-4.52504e-14
-4.2377e-16
-1.7017e-14
3.10278e-15
5.18981e-15
-1.06176e-14
1.07325e-14
1.2774e-14
1.80641e-15
-7.1451e-15
-1.26898e-14
9.34706e-15
2.01997e-14
-1.15923e-14
4.22777e-14
-3.84335e-15
1.54224e-14
-2.07006e-15
-2.19902e-14
1.95045e-15
-3.8283e-14
8.36511e-15
-1.35525e-14
-1.84338e-12
-8.36191e-12
1.99362e-13
9.14724e-13
-1.19255e-14
-1.70343e-13
-6.93951e-16
6.75352e-14
-3.54729e-14
-3.07905e-14
-1.62711e-14
-4.46226e-15
-1.09453e-14
3.18711e-14
1.76658e-14
-4.21419e-15
4.79294e-14
-1.54177e-15
9.50217e-15
1.98219e-14
-3.03338e-15
-4.50847e-15
-5.10352e-15
-8.52941e-15
3.95543e-16
-8.45839e-15
1.04446e-14
-6.81249e-15
-3.56353e-14
6.9768e-15
-4.81911e-14
-3.46566e-14
-1.5542e-14
7.60907e-15
3.23058e-14
6.21422e-15
3.30956e-14
2.20928e-14
0
-5.6038e-12
-1.39591e-12
5.45018e-13
-4.72679e-14
-9.08827e-14
3.6632e-14
3.74387e-14
-1.90945e-14
2.20163e-16
2.32305e-15
4.36799e-14
-2.10289e-15
3.86022e-14
3.22302e-14
-2.34218e-14
6.37199e-15
-2.96494e-14
-2.97938e-14
5.81122e-15
1.36969e-14
-1.00045e-14
4.63244e-14
-1.18843e-14
-4.27764e-14
-1.56664e-14
3.78705e-15
-1.02803e-14
-3.3006e-14
7.95552e-15
9.17322e-15
2.11436e-14
-1.21769e-15
2.93653e-14
8.80877e-15
-3.99879e-15
-6.54855e-15
-1.10028e-14
1.61023e-14
-2.71051e-14
4.16063e-12
-5.55654e-13
1.0842e-13
-5.42101e-14
-4.41762e-29
-1.35525e-14
0
0
1.35525e-14
5.42101e-14
1.35525e-14
-2.71051e-14
-1.35525e-14
-1.35525e-14
0
-1.35525e-14
-2.71051e-14
1.35525e-14
-3.34477e-28
)
;

boundaryField
{
    movingWall
    {
        type            calculated;
        value           nonuniform List<scalar> 
20
(
9.78492e-12
-1.46367e-12
3.52366e-13
-1.35525e-13
2.71051e-14
-2.71051e-14
0
0
0
2.71051e-14
8.13152e-14
-5.42101e-14
0
-2.71051e-14
0
0
-2.71051e-14
-2.71051e-14
5.42101e-14
-5.42101e-14
)
;
    }
    fixedWalls
    {
        type            calculated;
        value           nonuniform List<scalar> 
60
(
1.23328e-11
-1.94343e-11
4.90601e-12
6.34258e-12
-9.73071e-12
8.75493e-12
1.65341e-12
-1.2902e-11
1.20346e-11
-3.27971e-12
-3.38813e-12
7.31836e-12
-1.03812e-11
1.03541e-11
-2.73761e-12
-1.03812e-11
1.57751e-11
-4.14707e-12
-1.25767e-11
9.78492e-12
-2.71051e-14
5.42101e-14
-2.71051e-14
2.71051e-14
-2.71051e-14
0
-2.71051e-14
0
0
-2.71051e-14
0
-5.42101e-14
5.42101e-14
-2.71051e-14
-5.42101e-14
2.71051e-14
-2.71051e-14
0
0
-5.42101e-14
1.23328e-11
-1.70255e-12
3.36109e-13
-1.36901e-13
-1.12808e-14
3.16759e-14
-1.94537e-14
4.01366e-15
4.93951e-15
-8.4451e-15
-1.04131e-14
-5.95648e-15
6.22036e-15
2.68622e-15
5.44074e-15
1.07923e-14
7.70806e-15
1.08568e-14
-1.77694e-14
-2.71051e-14
)
;
    }
    frontAndBack
    {
        type            empty;
    }
}


// ************************************************************************* //
