/*--------------------------------*- C++ -*----------------------------------*\
| =========                 |                                                 |
| \\      /  F ield         | OpenFOAM: The Open Source CFD Toolbox           |
|  \\    /   O peration     | Version:  2506                                  |
|   \\  /    A nd           | Website:  www.openfoam.com                      |
|    \\/     M anipulation  |                                                 |
\*---------------------------------------------------------------------------*/
FoamFile
{
    version     2.0;
    format      ascii;
    arch        "LSB;label=32;scalar=64";
    class       surfaceVectorField;
    location    "8.5";
    object      surfaceU;
}
// * * * * * * * * * * * * * * * * * * * * * * * * * * * * * * * * * * * * * //

dimensions      [0 1 -1 0 0 0 0];

internalField   nonuniform List<vector> 
760
(
(-1 4.6672e-14 0)
(-1 6.41692e-14 0)
(-1 -9.49189e-15 0)
(-1 -1.33916e-14 0)
(-1 2.567e-15 0)
(-1 3.44238e-15 0)
(-1 -3.01049e-16 0)
(-1 -5.48979e-16 0)
(-1 2.81206e-16 0)
(-1 2.14646e-16 0)
(-1 1.05041e-16 0)
(-1 2.28542e-17 0)
(-1 9.78201e-17 0)
(-1 3.82569e-17 0)
(-1 7.30673e-17 0)
(-1 2.00683e-17 0)
(-1 1.7748e-17 0)
(-1 2.46976e-17 0)
(-1 -7.6439e-17 0)
(-1 -4.22255e-17 0)
(-1 -1.04999e-16 0)
(-1 -5.20655e-17 0)
(-1 -6.11124e-17 0)
(-1 -2.97824e-17 0)
(-1 1.0467e-17 0)
(-1 3.11018e-17 0)
(-1 7.44743e-17 0)
(-1 1.34311e-17 0)
(-1 7.85022e-17 0)
(-1 2.72037e-17 0)
(-1 3.10795e-17 0)
(-1 5.39615e-17 0)
(-1 2.3039e-17 0)
(-1 3.85403e-17 0)
(-1 6.19709e-17 0)
(-1 5.4284e-17 0)
(-1 6.53515e-17 0)
(-1 4.66781e-17 0)
(-1 2.53821e-17 0)
(-1 4.10548e-15 0)
(-1 -3.8216e-14 0)
(-1 -4.57373e-16 0)
(-1 8.62868e-15 0)
(-1 3.26392e-16 0)
(-1 -1.8205e-15 0)
(-1 -3.32833e-17 0)
(-1 4.09318e-16 0)
(-1 -4.37058e-17 0)
(-1 -1.99909e-16 0)
(-1 -4.393e-17 0)
(-1 -6.39842e-17 0)
(-1 -3.94948e-17 0)
(-1 -6.90687e-17 0)
(-1 -2.83015e-17 0)
(-1 -7.21326e-17 0)
(-1 -3.5276e-17 0)
(-1 -6.46077e-17 0)
(-1 -1.78521e-17 0)
(-1 -2.5413e-17 0)
(-1 2.31512e-17 0)
(-1 4.43779e-17 0)
(-1 6.24318e-17 0)
(-1 5.29824e-17 0)
(-1 3.40659e-17 0)
(-1 9.4286e-17 0)
(-1 -3.38395e-17 0)
(-1 -1.97983e-17 0)
(-1 2.663e-18 0)
(-1 -7.29552e-17 0)
(-1 6.14223e-17 0)
(-1 -2.64157e-17 0)
(-1 6.97853e-17 0)
(-1 3.91592e-17 0)
(-1 3.89912e-17 0)
(-1 2.69071e-17 0)
(-1 6.70879e-18 0)
(-1 -5.23158e-17 0)
(-1 -4.22954e-17 0)
(-1 -3.36928e-14 0)
(-1 -1.37559e-14 0)
(-1 7.26554e-15 0)
(-1 3.13592e-15 0)
(-1 -1.73758e-15 0)
(-1 -6.85265e-16 0)
(-1 2.42692e-16 0)
(-1 7.37051e-17 0)
(-1 -2.20188e-16 0)
(-1 -5.72413e-17 0)
(-1 -8.91229e-17 0)
(-1 -2.61764e-17 0)
(-1 -1.01706e-16 0)
(-1 2.99135e-17 0)
(-1 -1.08439e-16 0)
(-1 1.50322e-17 0)
(-1 -5.47448e-17 0)
(-1 5.29602e-17 0)
(-1 3.6817e-17 0)
(-1 7.32472e-17 0)
(-1 7.42091e-17 0)
(-1 6.34435e-17 0)
(-1 8.48365e-17 0)
(-1 4.15959e-17 0)
(-1 4.04218e-17 0)
(-1 3.7176e-17 0)
(-1 -5.89141e-17 0)
(-1 1.19849e-17 0)
(-1 -1.02034e-16 0)
(-1 -3.81589e-17 0)
(-1 -4.86788e-17 0)
(-1 -9.31794e-17 0)
(-1 -3.71898e-18 0)
(-1 -3.19609e-17 0)
(-1 -6.44e-17 0)
(-1 -1.22823e-17 0)
(-1 -1.0132e-16 0)
(-1 -8.05767e-17 0)
(-1 -8.2765e-17 0)
(-1 2.30728e-14 0)
(-1 2.2903e-14 0)
(-1 -4.81489e-15 0)
(-1 -4.94775e-15 0)
(-1 1.12602e-15 0)
(-1 1.08347e-15 0)
(-1 -2.26228e-16 0)
(-1 -3.04422e-16 0)
(-1 1.3677e-16 0)
(-1 4.84171e-17 0)
(-1 9.28599e-17 0)
(-1 -5.75562e-17 0)
(-1 1.46652e-16 0)
(-1 3.9348e-17 0)
(-1 1.76431e-16 0)
(-1 6.23728e-17 0)
(-1 1.80952e-16 0)
(-1 9.02058e-17 0)
(-1 9.98738e-17 0)
(-1 5.47536e-17 0)
(-1 3.08303e-17 0)
(-1 2.7416e-17 0)
(-1 -6.06463e-18 0)
(-1 1.66996e-17 0)
(-1 8.73911e-18 0)
(-1 2.35355e-17 0)
(-1 3.27401e-17 0)
(-1 7.87523e-17 0)
(-1 -2.93043e-17 0)
(-1 8.39543e-17 0)
(-1 -7.64615e-17 0)
(-1 2.16299e-18 0)
(-1 -4.05242e-17 0)
(-1 -3.35415e-18 0)
(-1 -2.8459e-17 0)
(-1 1.75407e-17 0)
(-1 -6.20217e-17 0)
(-1 -4.23331e-17 0)
(-1 -6.22795e-17 0)
(-1 -5.11755e-15 0)
(-1 -2.9259e-14 0)
(-1 9.50607e-16 0)
(-1 6.02453e-15 0)
(-1 -3.46968e-16 0)
(-1 -1.43591e-15 0)
(-1 -2.97769e-17 0)
(-1 3.26447e-16 0)
(-1 -1.45909e-16 0)
(-1 -1.22938e-16 0)
(-1 -1.11068e-16 0)
(-1 -8.54805e-17 0)
(-1 -4.49313e-17 0)
(-1 -8.60689e-17 0)
(-1 -2.38527e-17 0)
(-1 -5.82311e-17 0)
(-1 -3.59928e-17 0)
(-1 -1.14233e-16 0)
(-1 -1.77042e-17 0)
(-1 -2.53014e-17 0)
(-1 1.32853e-17 0)
(-1 4.67676e-17 0)
(-1 4.62998e-17 0)
(-1 6.39459e-17 0)
(-1 9.35487e-17 0)
(-1 7.79541e-17 0)
(-1 1.29967e-16 0)
(-1 8.78991e-17 0)
(-1 1.15422e-16 0)
(-1 9.2549e-17 0)
(-1 7.52704e-17 0)
(-1 6.25987e-17 0)
(-1 5.47108e-17 0)
(-1 4.27396e-17 0)
(-1 3.66665e-18 0)
(-1 2.88785e-17 0)
(-1 -4.25909e-17 0)
(-1 -2.72021e-17 0)
(-1 -8.82923e-18 0)
(-1 -1.81169e-14 0)
(-1 1.90649e-14 0)
(-1 3.63801e-15 0)
(-1 -4.12131e-15 0)
(-1 -7.62492e-16 0)
(-1 1.07527e-15 0)
(-1 2.33285e-16 0)
(-1 -1.40734e-16 0)
(-1 -6.25096e-17 0)
(-1 1.89129e-17 0)
(-1 -6.04813e-17 0)
(-1 -1.09763e-16 0)
(-1 -9.93687e-17 0)
(-1 -1.21751e-16 0)
(-1 -1.48611e-16 0)
(-1 -8.27701e-17 0)
(-1 -1.03542e-16 0)
(-1 -8.38898e-17 0)
(-1 3.91704e-17 0)
(-1 1.07871e-16 0)
(-1 9.74282e-17 0)
(-1 1.68617e-16 0)
(-1 9.56002e-17 0)
(-1 1.5059e-16 0)
(-1 7.23045e-17 0)
(-1 1.32654e-16 0)
(-1 5.04815e-17 0)
(-1 4.74004e-17 0)
(-1 3.97261e-17 0)
(-1 8.58679e-18 0)
(-1 3.0068e-17 0)
(-1 4.38168e-17 0)
(-1 1.69073e-17 0)
(-1 4.7283e-17 0)
(-1 -1.99029e-18 0)
(-1 3.80236e-17 0)
(-1 6.55951e-18 0)
(-1 2.56603e-17 0)
(-1 5.49544e-17 0)
(-1 3.30605e-14 0)
(-1 2.17109e-14 0)
(-1 -6.68405e-15 0)
(-1 -4.35237e-15 0)
(-1 1.69703e-15 0)
(-1 1.15231e-15 0)
(-1 -3.55106e-16 0)
(-1 -1.46192e-16 0)
(-1 -2.83404e-17 0)
(-1 1.16602e-17 0)
(-1 -1.71033e-16 0)
(-1 -1.12528e-16 0)
(-1 -1.05153e-16 0)
(-1 -4.84147e-17 0)
(-1 -1.80487e-17 0)
(-1 -1.88641e-17 0)
(-1 1.27522e-16 0)
(-1 2.8996e-17 0)
(-1 2.37317e-16 0)
(-1 1.42448e-16 0)
(-1 2.21779e-16 0)
(-1 1.17858e-16 0)
(-1 1.87644e-16 0)
(-1 6.14429e-17 0)
(-1 1.0775e-16 0)
(-1 9.43658e-17 0)
(-1 5.50572e-18 0)
(-1 4.9611e-17 0)
(-1 1.26776e-17 0)
(-1 2.9601e-17 0)
(-1 6.10318e-17 0)
(-1 5.24084e-17 0)
(-1 6.83993e-17 0)
(-1 4.39981e-17 0)
(-1 6.56743e-17 0)
(-1 3.01901e-17 0)
(-1 7.40552e-17 0)
(-1 5.49883e-17 0)
(-1 6.54462e-17 0)
(-1 -1.57019e-14 0)
(-1 -4.01183e-14 0)
(-1 3.48399e-15 0)
(-1 8.49805e-15 0)
(-1 -6.90917e-16 0)
(-1 -2.05532e-15 0)
(-1 2.20575e-16 0)
(-1 3.85229e-16 0)
(-1 -7.25278e-17 0)
(-1 -1.59373e-16 0)
(-1 1.00898e-17 0)
(-1 5.83854e-18 0)
(-1 3.78738e-17 0)
(-1 6.91619e-17 0)
(-1 2.81806e-17 0)
(-1 2.32793e-17 0)
(-1 4.39217e-17 0)
(-1 3.07464e-17 0)
(-1 2.29885e-17 0)
(-1 1.93951e-17 0)
(-1 -4.24782e-17 0)
(-1 -2.45073e-17 0)
(-1 -3.18348e-17 0)
(-1 -8.04949e-17 0)
(-1 3.62271e-17 0)
(-1 -6.64221e-17 0)
(-1 7.37063e-17 0)
(-1 5.9952e-17 0)
(-1 6.93319e-17 0)
(-1 7.81388e-17 0)
(-1 3.53747e-17 0)
(-1 4.16204e-17 0)
(-1 5.78885e-18 0)
(-1 -5.97023e-18 0)
(-1 1.95041e-17 0)
(-1 -1.00154e-17 0)
(-1 4.63793e-17 0)
(-1 3.63794e-17 0)
(-1 1.45473e-17 0)
(-1 -1.59183e-14 0)
(-1 2.15517e-14 0)
(-1 2.95875e-15 0)
(-1 -5.13009e-15 0)
(-1 -9.7917e-16 0)
(-1 7.93829e-16 0)
(-1 5.28093e-18 0)
(-1 -5.3811e-16 0)
(-1 -8.10066e-17 0)
(-1 -1.52859e-16 0)
(-1 6.49107e-17 0)
(-1 -9.86212e-17 0)
(-1 5.45674e-17 0)
(-1 -4.56617e-17 0)
(-1 2.58451e-17 0)
(-1 -5.81762e-17 0)
(-1 6.21978e-18 0)
(-1 -5.44771e-18 0)
(-1 -2.81006e-17 0)
(-1 -1.02924e-17 0)
(-1 -6.25239e-17 0)
(-1 8.45554e-18 0)
(-1 -1.15082e-16 0)
(-1 4.12102e-17 0)
(-1 -4.26972e-17 0)
(-1 -2.48467e-18 0)
(-1 6.43845e-17 0)
(-1 8.9163e-17 0)
(-1 5.04273e-17 0)
(-1 3.89771e-17 0)
(-1 2.75548e-19 0)
(-1 2.57616e-18 0)
(-1 -2.17745e-17 0)
(-1 -7.59263e-18 0)
(-1 6.85982e-18 0)
(-1 4.12535e-17 0)
(-1 4.54742e-18 0)
(-1 5.97024e-17 0)
(-1 -1.29942e-17 0)
(-1 3.23399e-14 0)
(-1 6.89626e-15 0)
(-1 -7.29501e-15 0)
(-1 -2.10163e-15 0)
(-1 1.23489e-15 0)
(-1 1.66146e-16 0)
(-1 -6.96249e-16 0)
(-1 -3.39457e-16 0)
(-1 -1.70473e-16 0)
(-1 -1.8493e-16 0)
(-1 -2.09194e-16 0)
(-1 -1.66709e-16 0)
(-1 -1.58405e-16 0)
(-1 -1.47568e-16 0)
(-1 -8.9469e-17 0)
(-1 -9.37109e-17 0)
(-1 -2.19599e-17 0)
(-1 -1.09086e-16 0)
(-1 2.62638e-17 0)
(-1 -1.07528e-16 0)
(-1 1.1219e-16 0)
(-1 -2.26537e-17 0)
(-1 1.53808e-16 0)
(-1 1.7744e-16 0)
(-1 1.29376e-16 0)
(-1 1.64755e-16 0)
(-1 6.37556e-17 0)
(-1 9.01918e-17 0)
(-1 -8.87404e-18 0)
(-1 2.33579e-17 0)
(-1 -5.29202e-18 0)
(-1 -1.41385e-17 0)
(-1 5.54354e-17 0)
(-1 1.76886e-17 0)
(-1 9.40961e-17 0)
(-1 8.84162e-17 0)
(-1 4.21608e-17 0)
(-1 8.32347e-17 0)
(-1 1.39628e-17 0)
(-1 -2.75453e-14 0)
(-1 -1.20542e-14 0)
(-1 5.35952e-15 0)
(-1 2.45473e-15 0)
(-1 -1.4082e-15 0)
(-1 -6.99777e-16 0)
(-1 1.71863e-16 0)
(-1 -1.0639e-18 0)
(-1 -1.81166e-16 0)
(-1 -1.29473e-16 0)
(-1 -1.05084e-16 0)
(-1 -5.05414e-17 0)
(-1 -8.28741e-17 0)
(-1 1.47239e-17 0)
(-1 -1.13328e-16 0)
(-1 6.72804e-17 0)
(-1 -1.94654e-16 0)
(-1 -9.72435e-17 0)
(-1 -1.56445e-16 0)
(-1 -1.72634e-16 0)
(-1 4.25969e-17 0)
(-1 -1.10067e-16 0)
(-1 1.88388e-16 0)
(-1 1.30554e-16 0)
(-1 1.25572e-16 0)
(-1 2.00867e-16 0)
(-1 4.9794e-17 0)
(-1 6.71674e-17 0)
(-1 1.80934e-17 0)
(-1 6.03223e-17 0)
(-1 8.84211e-18 0)
(-1 7.023e-17 0)
(-1 5.06694e-17 0)
(-1 4.86257e-17 0)
(-1 7.75549e-17 0)
(-1 3.16222e-17 0)
(-1 5.50368e-17 0)
(-1 6.92462e-17 0)
(-1 6.99984e-17 0)
(-1 1.79458e-14 0)
(-1 1.74153e-14 0)
(-1 -3.60457e-15 0)
(-1 -3.12584e-15 0)
(-1 7.07358e-16 0)
(-1 7.07884e-16 0)
(-1 -3.02399e-16 0)
(-1 -2.58076e-16 0)
(-1 1.15207e-18 0)
(-1 -2.92244e-17 0)
(-1 6.92666e-17 0)
(-1 2.25106e-17 0)
(-1 1.64878e-16 0)
(-1 1.09606e-16 0)
(-1 8.33646e-17 0)
(-1 1.56196e-16 0)
(-1 -7.52237e-17 0)
(-1 8.3104e-17 0)
(-1 -1.26256e-16 0)
(-1 2.21382e-18 0)
(-1 -2.21097e-17 0)
(-1 -2.3217e-17 0)
(-1 1.43033e-16 0)
(-1 5.23822e-17 0)
(-1 1.42463e-16 0)
(-1 1.653e-16 0)
(-1 7.76957e-17 0)
(-1 3.07356e-17 0)
(-1 1.12459e-16 0)
(-1 -1.98059e-17 0)
(-1 1.10014e-16 0)
(-1 4.87956e-17 0)
(-1 2.95785e-17 0)
(-1 -6.31399e-18 0)
(-1 2.33135e-17 0)
(-1 -8.78102e-17 0)
(-1 8.42077e-17 0)
(-1 5.5194e-18 0)
(-1 6.05707e-17 0)
(-1 -3.65635e-15 0)
(-1 -2.75155e-14 0)
(-1 1.18662e-15 0)
(-1 5.81969e-15 0)
(-1 -2.5755e-16 0)
(-1 -1.29687e-15 0)
(-1 1.50989e-17 0)
(-1 2.34767e-16 0)
(-1 -7.8658e-18 0)
(-1 -1.41546e-16 0)
(-1 6.28496e-17 0)
(-1 -6.2922e-17 0)
(-1 1.00923e-16 0)
(-1 -7.14097e-17 0)
(-1 1.55935e-16 0)
(-1 5.15998e-17 0)
(-1 1.60542e-16 0)
(-1 1.28964e-16 0)
(-1 1.05252e-16 0)
(-1 8.87841e-17 0)
(-1 5.12749e-17 0)
(-1 9.63186e-17 0)
(-1 7.46491e-17 0)
(-1 6.3648e-17 0)
(-1 5.35729e-17 0)
(-1 1.90833e-17 0)
(-1 -6.6766e-17 0)
(-1 -5.7082e-17 0)
(-1 -8.34692e-17 0)
(-1 -6.91016e-17 0)
(-1 -6.7532e-17 0)
(-1 -1.98637e-17 0)
(-1 -1.23703e-16 0)
(-1 -3.87998e-17 0)
(-1 -1.05604e-16 0)
(-1 -7.88354e-17 0)
(-1 -1.81176e-17 0)
(-1 -8.62087e-17 0)
(-1 -4.1486e-17 0)
(-1 -1.80395e-14 0)
(-1 2.53146e-14 0)
(-1 3.33621e-15 0)
(-1 -5.79013e-15 0)
(-1 -8.0455e-16 0)
(-1 1.35658e-15 0)
(-1 7.81219e-17 0)
(-1 -2.50195e-16 0)
(-1 -1.96603e-16 0)
(-1 1.84373e-18 0)
(-1 -1.97181e-16 0)
(-1 -1.51333e-16 0)
(-1 -1.20733e-16 0)
(-1 -1.62196e-16 0)
(-1 2.46289e-17 0)
(-1 -5.5039e-17 0)
(-1 5.72067e-17 0)
(-1 1.17139e-17 0)
(-1 7.98504e-17 0)
(-1 -1.81391e-17 0)
(-1 1.08692e-16 0)
(-1 2.85295e-17 0)
(-1 8.08223e-18 0)
(-1 -2.70956e-17 0)
(-1 -9.15716e-17 0)
(-1 -1.56743e-16 0)
(-1 -5.94176e-17 0)
(-1 -7.96494e-17 0)
(-1 -5.49608e-18 0)
(-1 6.59816e-17 0)
(-1 8.86846e-18 0)
(-1 3.03623e-17 0)
(-1 6.06736e-18 0)
(-1 1.93904e-17 0)
(-1 -5.94399e-17 0)
(-1 4.97457e-17 0)
(-1 -1.09577e-16 0)
(-1 -2.10747e-17 0)
(-1 -4.27524e-17 0)
(-1 3.75639e-14 0)
(-1 7.71526e-15 0)
(-1 -7.76976e-15 0)
(-1 -1.30738e-15 0)
(-1 1.91093e-15 0)
(-1 3.25646e-16 0)
(-1 -3.26473e-16 0)
(-1 8.00534e-17 0)
(-1 4.71135e-17 0)
(-1 6.61717e-17 0)
(-1 -1.16348e-16 0)
(-1 -6.07616e-17 0)
(-1 -9.65022e-17 0)
(-1 -1.4552e-16 0)
(-1 -6.7954e-17 0)
(-1 -1.72437e-16 0)
(-1 -6.36318e-17 0)
(-1 -9.1999e-17 0)
(-1 -6.94599e-17 0)
(-1 -4.45253e-17 0)
(-1 -1.07258e-16 0)
(-1 -3.54085e-17 0)
(-1 -1.91921e-16 0)
(-1 -1.33269e-16 0)
(-1 -1.44821e-16 0)
(-1 -1.5575e-16 0)
(-1 4.57497e-17 0)
(-1 -2.1319e-17 0)
(-1 1.0184e-16 0)
(-1 1.14141e-16 0)
(-1 4.08842e-17 0)
(-1 6.46401e-17 0)
(-1 6.30688e-17 0)
(-1 5.0599e-18 0)
(-1 8.81109e-17 0)
(-1 3.42344e-17 0)
(-1 4.57499e-17 0)
(-1 8.21639e-17 0)
(-1 4.70549e-17 0)
(-1 -3.1156e-14 0)
(-1 -4.23917e-14 0)
(-1 6.78803e-15 0)
(-1 8.72722e-15 0)
(-1 -1.50523e-15 0)
(-1 -2.13813e-15 0)
(-1 4.72698e-16 0)
(-1 3.27101e-16 0)
(-1 -4.17033e-17 0)
(-1 -1.60578e-16 0)
(-1 -8.9934e-17 0)
(-1 -4.42643e-17 0)
(-1 -2.21455e-16 0)
(-1 -4.77723e-17 0)
(-1 -1.96482e-16 0)
(-1 -7.74804e-17 0)
(-1 -7.28924e-17 0)
(-1 -2.87367e-17 0)
(-1 -1.04738e-17 0)
(-1 1.61167e-17 0)
(-1 -6.14193e-17 0)
(-1 2.37841e-18 0)
(-1 -9.70973e-17 0)
(-1 -3.91274e-17 0)
(-1 -3.22476e-17 0)
(-1 -2.0641e-17 0)
(-1 4.70722e-17 0)
(-1 -2.53302e-17 0)
(-1 7.6941e-17 0)
(-1 -3.11626e-17 0)
(-1 2.88158e-17 0)
(-1 -5.51996e-19 0)
(-1 -2.37745e-17 0)
(-1 -1.49676e-17 0)
(-1 2.82874e-17 0)
(-1 -1.12438e-17 0)
(-1 8.34689e-17 0)
(-1 7.08604e-17 0)
(-1 7.29225e-17 0)
(-1 -2.50845e-15 0)
(-1 4.14013e-14 0)
(-1 -1.9894e-16 0)
(-1 -9.29086e-15 0)
(-1 -3.05794e-16 0)
(-1 1.87147e-15 0)
(-1 -3.06175e-16 0)
(-1 -7.98034e-16 0)
(-1 -1.63139e-16 0)
(-1 -1.22447e-16 0)
(-1 -2.10263e-18 0)
(-1 -6.7238e-17 0)
(-1 9.62019e-17 0)
(-1 1.04403e-16 0)
(-1 9.02646e-17 0)
(-1 4.12184e-17 0)
(-1 6.02724e-17 0)
(-1 -1.5707e-17 0)
(-1 2.8969e-17 0)
(-1 -3.02215e-17 0)
(-1 2.46704e-17 0)
(-1 -4.42307e-18 0)
(-1 3.73289e-17 0)
(-1 5.63212e-17 0)
(-1 -1.37236e-17 0)
(-1 5.10034e-17 0)
(-1 -1.03565e-16 0)
(-1 -3.29392e-17 0)
(-1 -1.08656e-16 0)
(-1 -9.39586e-17 0)
(-1 -4.43353e-17 0)
(-1 -1.1062e-16 0)
(-1 -2.43692e-18 0)
(-1 -8.70351e-18 0)
(-1 3.13292e-17 0)
(-1 2.74021e-17 0)
(-1 6.0314e-17 0)
(-1 2.3746e-17 0)
(-1 3.27975e-17 0)
(-1 3.46189e-14 0)
(-1 1.77593e-14 0)
(-1 -7.22045e-15 0)
(-1 -3.52604e-15 0)
(-1 1.37923e-15 0)
(-1 6.40752e-16 0)
(-1 -6.14306e-16 0)
(-1 -3.5343e-16 0)
(-1 -2.6546e-17 0)
(-1 -6.0085e-17 0)
(-1 3.92678e-17 0)
(-1 -2.35937e-17 0)
(-1 4.94197e-17 0)
(-1 -3.59165e-18 0)
(-1 -6.47532e-17 0)
(-1 -1.05862e-16 0)
(-1 -1.06201e-16 0)
(-1 -1.24056e-16 0)
(-1 -6.36136e-17 0)
(-1 -7.4276e-17 0)
(-1 2.72277e-17 0)
(-1 3.37724e-17 0)
(-1 6.99957e-17 0)
(-1 7.14191e-17 0)
(-1 3.17877e-17 0)
(-1 1.30709e-17 0)
(-1 -2.33328e-17 0)
(-1 -9.11544e-18 0)
(-1 -9.59234e-17 0)
(-1 -2.19642e-17 0)
(-1 -7.49886e-17 0)
(-1 -6.33384e-17 0)
(-1 2.11355e-17 0)
(-1 -1.19971e-17 0)
(-1 1.98189e-17 0)
(-1 -7.89757e-18 0)
(-1 -3.7705e-18 0)
(-1 -7.56201e-17 0)
(-1 -3.94925e-17 0)
(-1 -2.03856e-14 0)
(-1 -5.06445e-14 0)
(-1 4.33517e-15 0)
(-1 1.06404e-14 0)
(-1 -1.09191e-15 0)
(-1 -2.47971e-15 0)
(-1 2.0079e-16 0)
(-1 4.86682e-16 0)
(-1 -5.71327e-17 0)
(-1 -1.12295e-16 0)
(-1 -6.64532e-17 0)
(-1 -2.10289e-17 0)
(-1 -1.58873e-16 0)
(-1 -8.42736e-17 0)
(-1 -1.65164e-16 0)
(-1 -7.18054e-17 0)
(-1 -9.2131e-17 0)
(-1 -2.6887e-17 0)
(-1 2.311e-17 0)
(-1 1.44403e-18 0)
(-1 7.79638e-17 0)
(-1 5.66682e-17 0)
(-1 1.44943e-17 0)
(-1 -2.1188e-17 0)
(-1 -2.78323e-17 0)
(-1 -9.76547e-17 0)
(-1 -7.74679e-18 0)
(-1 -5.90095e-17 0)
(-1 1.06208e-17 0)
(-1 -4.37931e-17 0)
(-1 -3.46806e-19 0)
(-1 -1.21769e-17 0)
(-1 -4.10301e-17 0)
(-1 -4.74375e-17 0)
(-1 -1.03337e-16 0)
(-1 -6.54855e-17 0)
(-1 -1.11342e-16 0)
(-1 -1.10028e-16 0)
(-1 -6.39219e-17 0)
(-1 -1.96185e-14 0)
(-1 3.82551e-15 0)
(-1 -9.01118e-16 0)
(-1 1.73597e-16 0)
(-1 -7.61909e-17 0)
(-1 -3.88493e-17 0)
(-1 2.79404e-18 0)
(-1 6.6472e-17 0)
(-1 6.6688e-17 0)
(-1 3.50022e-17 0)
(-1 -4.24836e-17 0)
(-1 -1.33337e-16 0)
(-1 -1.28832e-16 0)
(-1 -9.50558e-17 0)
(-1 -6.65909e-17 0)
(-1 -5.92677e-17 0)
(-1 -7.18929e-17 0)
(-1 -7.21765e-17 0)
(-1 -6.26074e-17 0)
)
;

boundaryField
{
    movingWall
    {
        type            calculated;
        value           uniform (-1 -0 -0);
    }
    fixedWalls
    {
        type            calculated;
        value           uniform (-1 -0 -0);
    }
    frontAndBack
    {
        type            empty;
    }
}


// ************************************************************************* //
