/*--------------------------------*- C++ -*----------------------------------*\
| =========                 |                                                 |
| \\      /  F ield         | OpenFOAM: The Open Source CFD Toolbox           |
|  \\    /   O peration     | Version:  2506                                  |
|   \\  /    A nd           | Website:  www.openfoam.com                      |
|    \\/     M anipulation  |                                                 |
\*---------------------------------------------------------------------------*/
FoamFile
{
    version     2.0;
    format      ascii;
    arch        "LSB;label=32;scalar=64";
    class       surfaceScalarField;
    location    "8.5";
    object      surfaceK;
}
// * * * * * * * * * * * * * * * * * * * * * * * * * * * * * * * * * * * * * //

dimensions      [0 2 -2 0 0 0 0];

internalField   nonuniform List<scalar> 
760
(
3.52966e-06
3.56101e-06
3.52966e-06
3.56101e-06
3.52965e-06
3.56096e-06
3.52965e-06
3.56095e-06
3.52965e-06
3.56091e-06
3.52965e-06
3.56089e-06
3.52965e-06
3.56086e-06
3.52965e-06
3.56085e-06
3.52965e-06
3.56082e-06
3.52965e-06
3.56081e-06
3.52965e-06
3.56079e-06
3.52965e-06
3.56078e-06
3.52965e-06
3.56076e-06
3.52965e-06
3.56076e-06
3.52965e-06
3.56074e-06
3.52965e-06
3.56074e-06
3.52965e-06
3.56073e-06
3.52965e-06
3.56073e-06
3.52965e-06
3.56073e-06
3.56073e-06
3.59237e-06
3.64201e-06
3.59232e-06
3.64202e-06
3.59225e-06
3.64191e-06
3.5922e-06
3.64188e-06
3.59215e-06
3.6418e-06
3.5921e-06
3.64177e-06
3.59206e-06
3.64171e-06
3.59202e-06
3.64168e-06
3.59199e-06
3.64163e-06
3.59195e-06
3.6416e-06
3.59192e-06
3.64156e-06
3.5919e-06
3.64154e-06
3.59187e-06
3.64151e-06
3.59186e-06
3.64149e-06
3.59184e-06
3.64147e-06
3.59183e-06
3.64146e-06
3.59182e-06
3.64144e-06
3.59181e-06
3.64144e-06
3.59181e-06
3.64143e-06
3.64143e-06
3.69166e-06
3.74397e-06
3.6916e-06
3.74397e-06
3.69153e-06
3.74385e-06
3.69148e-06
3.74382e-06
3.69142e-06
3.74374e-06
3.69138e-06
3.7437e-06
3.69133e-06
3.74364e-06
3.69129e-06
3.7436e-06
3.69125e-06
3.74356e-06
3.69121e-06
3.74352e-06
3.69118e-06
3.74348e-06
3.69115e-06
3.74346e-06
3.69113e-06
3.74343e-06
3.69111e-06
3.74341e-06
3.69109e-06
3.74338e-06
3.69108e-06
3.74337e-06
3.69107e-06
3.74336e-06
3.69106e-06
3.74335e-06
3.69106e-06
3.74335e-06
3.74334e-06
3.79627e-06
3.84045e-06
3.79621e-06
3.84045e-06
3.79614e-06
3.84033e-06
3.79608e-06
3.84029e-06
3.79602e-06
3.84021e-06
3.79597e-06
3.84017e-06
3.79592e-06
3.8401e-06
3.79587e-06
3.84007e-06
3.79583e-06
3.84001e-06
3.79579e-06
3.83999e-06
3.79576e-06
3.83993e-06
3.79573e-06
3.83992e-06
3.79571e-06
3.83988e-06
3.79568e-06
3.83986e-06
3.79567e-06
3.83983e-06
3.79565e-06
3.83982e-06
3.79564e-06
3.83981e-06
3.79564e-06
3.8398e-06
3.79563e-06
3.8398e-06
3.83979e-06
3.88463e-06
3.917e-06
3.88457e-06
3.917e-06
3.88449e-06
3.91687e-06
3.88442e-06
3.91684e-06
3.88436e-06
3.91675e-06
3.88431e-06
3.91672e-06
3.88426e-06
3.91664e-06
3.88421e-06
3.91661e-06
3.88417e-06
3.91654e-06
3.88413e-06
3.91652e-06
3.88409e-06
3.91646e-06
3.88406e-06
3.91645e-06
3.88403e-06
3.9164e-06
3.88401e-06
3.91639e-06
3.88399e-06
3.91636e-06
3.88398e-06
3.91635e-06
3.88397e-06
3.91633e-06
3.88396e-06
3.91633e-06
3.88396e-06
3.91632e-06
3.91632e-06
3.94937e-06
3.97104e-06
3.9493e-06
3.97104e-06
3.94922e-06
3.9709e-06
3.94916e-06
3.97087e-06
3.9491e-06
3.97078e-06
3.94904e-06
3.97074e-06
3.94899e-06
3.97066e-06
3.94894e-06
3.97064e-06
3.9489e-06
3.97057e-06
3.94886e-06
3.97054e-06
3.94882e-06
3.97049e-06
3.94879e-06
3.97047e-06
3.94876e-06
3.97042e-06
3.94874e-06
3.97041e-06
3.94871e-06
3.97038e-06
3.9487e-06
3.97037e-06
3.94869e-06
3.97035e-06
3.94868e-06
3.97034e-06
3.94868e-06
3.97034e-06
3.97034e-06
3.9927e-06
4.00658e-06
3.99264e-06
4.00658e-06
3.99255e-06
4.00645e-06
3.99249e-06
4.0064e-06
3.99242e-06
4.00632e-06
3.99236e-06
4.00627e-06
3.99231e-06
4.0062e-06
3.99226e-06
4.00616e-06
3.99221e-06
4.00611e-06
3.99217e-06
4.00607e-06
3.99214e-06
4.00602e-06
3.9921e-06
4.00599e-06
3.99208e-06
4.00596e-06
3.99205e-06
4.00594e-06
3.99203e-06
4.00591e-06
3.99202e-06
4.0059e-06
3.992e-06
4.00588e-06
3.992e-06
4.00587e-06
3.99199e-06
4.00587e-06
4.00586e-06
4.02045e-06
4.02942e-06
4.02039e-06
4.02942e-06
4.0203e-06
4.02929e-06
4.02024e-06
4.02925e-06
4.02017e-06
4.02916e-06
4.02011e-06
4.02911e-06
4.02005e-06
4.02904e-06
4.02e-06
4.029e-06
4.01996e-06
4.02894e-06
4.01992e-06
4.02891e-06
4.01988e-06
4.02886e-06
4.01985e-06
4.02883e-06
4.01982e-06
4.02879e-06
4.01979e-06
4.02877e-06
4.01977e-06
4.02874e-06
4.01976e-06
4.02873e-06
4.01975e-06
4.02871e-06
4.01974e-06
4.02871e-06
4.01974e-06
4.0287e-06
4.0287e-06
4.03839e-06
4.04461e-06
4.03832e-06
4.04461e-06
4.03824e-06
4.04447e-06
4.03817e-06
4.04444e-06
4.0381e-06
4.04434e-06
4.03804e-06
4.04431e-06
4.03799e-06
4.04422e-06
4.03794e-06
4.04419e-06
4.03789e-06
4.04412e-06
4.03785e-06
4.0441e-06
4.03781e-06
4.04403e-06
4.03778e-06
4.04402e-06
4.03775e-06
4.04397e-06
4.03772e-06
4.04396e-06
4.0377e-06
4.04392e-06
4.03769e-06
4.04392e-06
4.03767e-06
4.04389e-06
4.03767e-06
4.04389e-06
4.03766e-06
4.04388e-06
4.04388e-06
4.05083e-06
4.0557e-06
4.05076e-06
4.05571e-06
4.05067e-06
4.05556e-06
4.05061e-06
4.05553e-06
4.05054e-06
4.05544e-06
4.05048e-06
4.05539e-06
4.05043e-06
4.05532e-06
4.05037e-06
4.05528e-06
4.05033e-06
4.05521e-06
4.05029e-06
4.05519e-06
4.05025e-06
4.05513e-06
4.05021e-06
4.05511e-06
4.05018e-06
4.05506e-06
4.05016e-06
4.05505e-06
4.05014e-06
4.05501e-06
4.05012e-06
4.055e-06
4.05011e-06
4.05498e-06
4.0501e-06
4.05498e-06
4.0501e-06
4.05497e-06
4.05497e-06
4.06058e-06
4.06494e-06
4.06051e-06
4.06494e-06
4.06042e-06
4.06481e-06
4.06035e-06
4.06477e-06
4.06029e-06
4.06468e-06
4.06023e-06
4.06463e-06
4.06017e-06
4.06456e-06
4.06012e-06
4.06451e-06
4.06007e-06
4.06446e-06
4.06003e-06
4.06441e-06
4.05999e-06
4.06437e-06
4.05996e-06
4.06434e-06
4.05993e-06
4.06431e-06
4.0599e-06
4.06428e-06
4.05988e-06
4.06426e-06
4.05986e-06
4.06424e-06
4.05985e-06
4.06422e-06
4.05985e-06
4.06422e-06
4.05984e-06
4.06421e-06
4.06421e-06
4.06931e-06
4.07366e-06
4.06925e-06
4.07366e-06
4.06916e-06
4.07353e-06
4.06909e-06
4.07348e-06
4.06902e-06
4.07339e-06
4.06896e-06
4.07335e-06
4.0689e-06
4.07328e-06
4.06885e-06
4.07323e-06
4.0688e-06
4.07318e-06
4.06876e-06
4.07313e-06
4.06872e-06
4.07309e-06
4.06869e-06
4.07306e-06
4.06866e-06
4.07302e-06
4.06864e-06
4.073e-06
4.06862e-06
4.07297e-06
4.0686e-06
4.07296e-06
4.06859e-06
4.07294e-06
4.06858e-06
4.07293e-06
4.06858e-06
4.07293e-06
4.07292e-06
4.07801e-06
4.08261e-06
4.07795e-06
4.08261e-06
4.07786e-06
4.08248e-06
4.07778e-06
4.08243e-06
4.07772e-06
4.08234e-06
4.07766e-06
4.0823e-06
4.0776e-06
4.08222e-06
4.07755e-06
4.08218e-06
4.0775e-06
4.08212e-06
4.07746e-06
4.08208e-06
4.07742e-06
4.08204e-06
4.07739e-06
4.082e-06
4.07736e-06
4.08197e-06
4.07733e-06
4.08195e-06
4.07731e-06
4.08192e-06
4.0773e-06
4.0819e-06
4.07728e-06
4.08189e-06
4.07728e-06
4.08188e-06
4.07727e-06
4.08187e-06
4.08187e-06
4.08721e-06
4.09218e-06
4.08715e-06
4.09218e-06
4.08706e-06
4.09205e-06
4.08699e-06
4.092e-06
4.08692e-06
4.09191e-06
4.08686e-06
4.09186e-06
4.0868e-06
4.09179e-06
4.08675e-06
4.09173e-06
4.0867e-06
4.09169e-06
4.08666e-06
4.09164e-06
4.08662e-06
4.0916e-06
4.08658e-06
4.09156e-06
4.08655e-06
4.09153e-06
4.08653e-06
4.0915e-06
4.08651e-06
4.09148e-06
4.08649e-06
4.09146e-06
4.08648e-06
4.09145e-06
4.08647e-06
4.09144e-06
4.08647e-06
4.09143e-06
4.09143e-06
4.09714e-06
4.10242e-06
4.09707e-06
4.10242e-06
4.09698e-06
4.10229e-06
4.09691e-06
4.10224e-06
4.09684e-06
4.10214e-06
4.09678e-06
4.1021e-06
4.09672e-06
4.10202e-06
4.09667e-06
4.10198e-06
4.09663e-06
4.10192e-06
4.09658e-06
4.10189e-06
4.09654e-06
4.10183e-06
4.09651e-06
4.10181e-06
4.09648e-06
4.10176e-06
4.09645e-06
4.10175e-06
4.09643e-06
4.10172e-06
4.09642e-06
4.1017e-06
4.09641e-06
4.10169e-06
4.0964e-06
4.10168e-06
4.09639e-06
4.10167e-06
4.10167e-06
4.1077e-06
4.11304e-06
4.10763e-06
4.11304e-06
4.10754e-06
4.1129e-06
4.10747e-06
4.11286e-06
4.1074e-06
4.11276e-06
4.10734e-06
4.11273e-06
4.10728e-06
4.11264e-06
4.10723e-06
4.11261e-06
4.10718e-06
4.11253e-06
4.10714e-06
4.11251e-06
4.1071e-06
4.11245e-06
4.10706e-06
4.11243e-06
4.10703e-06
4.11238e-06
4.10701e-06
4.11237e-06
4.10699e-06
4.11233e-06
4.10697e-06
4.11232e-06
4.10696e-06
4.1123e-06
4.10695e-06
4.1123e-06
4.10695e-06
4.11229e-06
4.11229e-06
4.11838e-06
4.12331e-06
4.11831e-06
4.12331e-06
4.11822e-06
4.12317e-06
4.11816e-06
4.12313e-06
4.11809e-06
4.12303e-06
4.11803e-06
4.12299e-06
4.11797e-06
4.12291e-06
4.11791e-06
4.12287e-06
4.11787e-06
4.1228e-06
4.11782e-06
4.12278e-06
4.11778e-06
4.12272e-06
4.11775e-06
4.1227e-06
4.11772e-06
4.12265e-06
4.11769e-06
4.12263e-06
4.11767e-06
4.1226e-06
4.11765e-06
4.12259e-06
4.11764e-06
4.12257e-06
4.11763e-06
4.12256e-06
4.11763e-06
4.12255e-06
4.12255e-06
4.12823e-06
4.13208e-06
4.12817e-06
4.13208e-06
4.12808e-06
4.13195e-06
4.128e-06
4.1319e-06
4.12793e-06
4.1318e-06
4.12787e-06
4.13177e-06
4.12781e-06
4.13168e-06
4.12776e-06
4.13165e-06
4.12771e-06
4.13158e-06
4.12767e-06
4.13155e-06
4.12763e-06
4.1315e-06
4.12759e-06
4.13147e-06
4.12756e-06
4.13143e-06
4.12754e-06
4.13141e-06
4.12752e-06
4.13138e-06
4.1275e-06
4.13136e-06
4.12749e-06
4.13135e-06
4.12748e-06
4.13134e-06
4.12748e-06
4.13133e-06
4.13133e-06
4.13593e-06
4.13769e-06
4.13586e-06
4.13769e-06
4.13578e-06
4.13763e-06
4.1357e-06
4.13761e-06
4.13564e-06
4.13755e-06
4.13558e-06
4.13754e-06
4.13552e-06
4.13749e-06
4.13547e-06
4.13748e-06
4.13542e-06
4.13744e-06
4.13537e-06
4.13743e-06
4.13533e-06
4.1374e-06
4.1353e-06
4.13738e-06
4.13527e-06
4.13737e-06
4.13524e-06
4.13735e-06
4.13522e-06
4.13734e-06
4.13521e-06
4.13733e-06
4.1352e-06
4.13732e-06
4.13519e-06
4.13732e-06
4.13518e-06
4.13732e-06
4.13732e-06
4.13946e-06
4.13946e-06
4.13946e-06
4.13946e-06
4.13945e-06
4.13945e-06
4.13945e-06
4.13945e-06
4.13945e-06
4.13945e-06
4.13945e-06
4.13945e-06
4.13945e-06
4.13945e-06
4.13945e-06
4.13945e-06
4.13945e-06
4.13945e-06
4.13945e-06
)
;

boundaryField
{
    movingWall
    {
        type            calculated;
        value           nonuniform List<scalar> 
20
(
4.13946e-06
4.13946e-06
4.13946e-06
4.13946e-06
4.13945e-06
4.13946e-06
4.13945e-06
4.13945e-06
4.13945e-06
4.13945e-06
4.13945e-06
4.13945e-06
4.13945e-06
4.13945e-06
4.13945e-06
4.13945e-06
4.13945e-06
4.13945e-06
4.13945e-06
4.13945e-06
)
;
    }
    fixedWalls
    {
        type            calculated;
        value           nonuniform List<scalar> 
60
(
3.52966e-06
3.59237e-06
3.69166e-06
3.79627e-06
3.88463e-06
3.94937e-06
3.9927e-06
4.02045e-06
4.03839e-06
4.05083e-06
4.06058e-06
4.06931e-06
4.07801e-06
4.08721e-06
4.09714e-06
4.1077e-06
4.11838e-06
4.12823e-06
4.13592e-06
4.13946e-06
3.52965e-06
3.59181e-06
3.69106e-06
3.79563e-06
3.88396e-06
3.94868e-06
3.99199e-06
4.01973e-06
4.03766e-06
4.0501e-06
4.05984e-06
4.06858e-06
4.07727e-06
4.08647e-06
4.09639e-06
4.10695e-06
4.11763e-06
4.12748e-06
4.13518e-06
4.13945e-06
3.52966e-06
3.52966e-06
3.52966e-06
3.52965e-06
3.52965e-06
3.52965e-06
3.52965e-06
3.52965e-06
3.52965e-06
3.52965e-06
3.52965e-06
3.52965e-06
3.52965e-06
3.52965e-06
3.52965e-06
3.52965e-06
3.52965e-06
3.52965e-06
3.52965e-06
3.52965e-06
)
;
    }
    frontAndBack
    {
        type            empty;
    }
}


// ************************************************************************* //
