/*--------------------------------*- C++ -*----------------------------------*\
| =========                 |                                                 |
| \\      /  F ield         | OpenFOAM: The Open Source CFD Toolbox           |
|  \\    /   O peration     | Version:  2506                                  |
|   \\  /    A nd           | Website:  www.openfoam.com                      |
|    \\/     M anipulation  |                                                 |
\*---------------------------------------------------------------------------*/
FoamFile
{
    version     2.0;
    format      ascii;
    arch        "LSB;label=32;scalar=64";
    class       surfaceScalarField;
    location    "8.5";
    object      surfaceP;
}
// * * * * * * * * * * * * * * * * * * * * * * * * * * * * * * * * * * * * * //

dimensions      [0 2 -2 0 0 0 0];

internalField   nonuniform List<scalar> 
760
(
1.77807e-15
1.2122e-15
3.1047e-15
1.77807e-15
2.89558e-15
2.71673e-15
3.20774e-15
2.95202e-15
3.35426e-15
3.17698e-15
3.53538e-15
3.43734e-15
3.78709e-15
3.65881e-15
3.94643e-15
3.97107e-15
4.01029e-15
3.97774e-15
4.0967e-15
4.09921e-15
4.12837e-15
4.15734e-15
4.08885e-15
4.12094e-15
4.00665e-15
4.08618e-15
3.91054e-15
3.94757e-15
3.86847e-15
3.80776e-15
3.95819e-15
3.86362e-15
4.13922e-15
4.09512e-15
4.35287e-15
4.3033e-15
4.50135e-15
4.49523e-15
4.43422e-15
1.2122e-15
2.46416e-15
1.39009e-15
1.65077e-15
2.77316e-15
2.73892e-15
2.92126e-15
2.97133e-15
3.26006e-15
3.25231e-15
3.56077e-15
3.45453e-15
3.84279e-15
3.72723e-15
4.00238e-15
4.04963e-15
4.06665e-15
3.99847e-15
4.15985e-15
4.16727e-15
4.14991e-15
4.16961e-15
4.11827e-15
4.14234e-15
4.02709e-15
4.09364e-15
3.84478e-15
3.93344e-15
3.8029e-15
3.75052e-15
4.00055e-15
3.78303e-15
4.2592e-15
4.12736e-15
4.44566e-15
4.39607e-15
4.4281e-15
4.52764e-15
4.40767e-15
2.90273e-15
2.51789e-15
2.9996e-15
3.31452e-15
2.93709e-15
2.91651e-15
3.30238e-15
3.29315e-15
3.44678e-15
3.41879e-15
3.62099e-15
3.46529e-15
3.93408e-15
3.73565e-15
4.04572e-15
4.11595e-15
4.09909e-15
4.07457e-15
4.17703e-15
4.18209e-15
4.16203e-15
4.19518e-15
4.1177e-15
4.1876e-15
3.99998e-15
4.06339e-15
3.83917e-15
3.95856e-15
3.73065e-15
3.79996e-15
3.90985e-15
3.83311e-15
4.26423e-15
4.07957e-15
4.47805e-15
4.37257e-15
4.5072e-15
4.5113e-15
4.53363e-15
2.92968e-15
2.9317e-15
3.23143e-15
2.65004e-15
3.27257e-15
3.25104e-15
3.40957e-15
3.43983e-15
3.4373e-15
3.40513e-15
3.57995e-15
3.52264e-15
3.91753e-15
3.7681e-15
4.1448e-15
4.22108e-15
4.15757e-15
4.10352e-15
4.20024e-15
4.15414e-15
4.22074e-15
4.19835e-15
4.13329e-15
4.18394e-15
4.02197e-15
4.0516e-15
3.91935e-15
3.99052e-15
3.90242e-15
3.87606e-15
4.00283e-15
3.93547e-15
4.1879e-15
4.06205e-15
4.40582e-15
4.22094e-15
4.53772e-15
4.44849e-15
4.68192e-15
2.65206e-15
3.14628e-15
2.66965e-15
3.0397e-15
3.4183e-15
3.39524e-15
3.43539e-15
3.55593e-15
3.49047e-15
3.52967e-15
3.71079e-15
3.70185e-15
4.07166e-15
3.88343e-15
4.17981e-15
4.25896e-15
4.10009e-15
4.16905e-15
4.15225e-15
4.17762e-15
4.16154e-15
4.1472e-15
4.10225e-15
4.23493e-15
4.02015e-15
4.0502e-15
3.94723e-15
3.95155e-15
3.90911e-15
3.82845e-15
3.9947e-15
3.8967e-15
4.09509e-15
4.02143e-15
4.2636e-15
4.05658e-15
4.59269e-15
4.3942e-15
4.79126e-15
3.53391e-15
3.30399e-15
3.76529e-15
4.36724e-15
3.53288e-15
3.49319e-15
3.65021e-15
3.72582e-15
3.74105e-15
3.69734e-15
3.87448e-15
3.85152e-15
4.07073e-15
3.97e-15
4.2482e-15
4.24376e-15
4.24658e-15
4.33819e-15
4.17257e-15
4.22747e-15
4.22059e-15
4.13432e-15
4.18288e-15
4.22889e-15
3.98161e-15
4.01408e-15
3.83277e-15
3.89926e-15
3.81604e-15
3.84802e-15
3.92343e-15
3.93506e-15
3.98292e-15
3.99272e-15
4.18718e-15
3.96453e-15
4.59277e-15
4.33053e-15
4.75284e-15
4.13731e-15
4.10082e-15
4.09514e-15
2.97605e-15
3.68613e-15
3.71272e-15
3.77295e-15
3.79195e-15
3.80781e-15
3.91263e-15
3.94704e-15
4.07135e-15
4.14303e-15
4.11728e-15
4.33374e-15
4.35332e-15
4.31908e-15
4.46526e-15
4.18921e-15
4.22776e-15
4.14262e-15
4.04035e-15
4.06009e-15
4.18324e-15
3.93173e-15
3.9412e-15
3.91451e-15
3.91182e-15
3.96704e-15
3.96602e-15
4.00435e-15
4.00848e-15
3.97433e-15
3.98144e-15
4.10788e-15
3.87981e-15
4.4906e-15
4.24086e-15
4.59192e-15
2.93955e-15
4.37324e-15
2.59363e-15
3.73061e-15
3.81853e-15
3.9483e-15
3.93164e-15
3.92822e-15
4.17617e-15
4.17305e-15
4.24159e-15
4.37432e-15
4.32757e-15
4.24176e-15
4.48484e-15
4.41816e-15
4.37394e-15
4.50475e-15
4.0789e-15
4.18147e-15
4.08097e-15
3.98086e-15
4.06434e-15
4.23015e-15
3.92129e-15
4.00181e-15
3.96333e-15
3.96607e-15
4.00747e-15
3.97964e-15
3.98557e-15
4.00198e-15
3.88692e-15
3.95918e-15
4.0128e-15
3.8951e-15
4.34219e-15
4.24989e-15
4.50971e-15
5.1643e-15
4.16984e-15
5.08528e-15
4.84913e-15
4.05799e-15
4.23281e-15
4.16963e-15
4.2443e-15
4.37119e-15
4.3277e-15
4.37449e-15
4.48163e-15
4.33236e-15
4.28194e-15
4.43807e-15
4.47985e-15
4.31228e-15
4.52421e-15
4.08343e-15
4.15563e-15
4.13005e-15
4.04003e-15
4.16762e-15
4.21436e-15
4.04659e-15
4.17431e-15
3.98238e-15
3.95678e-15
3.97416e-15
3.9708e-15
3.97559e-15
4.01048e-15
3.96736e-15
3.99209e-15
4.13219e-15
3.96876e-15
4.41741e-15
4.32324e-15
4.5512e-15
3.85467e-15
4.14079e-15
3.99666e-15
3.85613e-15
4.41913e-15
4.52845e-15
4.40237e-15
4.4658e-15
4.43814e-15
4.45271e-15
4.38908e-15
4.43722e-15
4.42944e-15
4.29531e-15
4.56599e-15
4.55019e-15
4.36756e-15
4.60358e-15
4.11223e-15
4.26301e-15
4.12434e-15
4.2472e-15
4.22106e-15
4.26303e-15
4.0845e-15
4.22706e-15
3.9452e-15
3.93079e-15
4.00712e-15
4.00917e-15
4.02699e-15
4.11745e-15
3.9935e-15
4.09995e-15
4.15982e-15
3.96132e-15
4.45703e-15
4.2224e-15
4.54825e-15
4.14224e-15
4.18869e-15
4.38792e-15
5.47628e-15
4.57512e-15
4.63526e-15
4.51613e-15
4.70092e-15
4.45179e-15
4.5538e-15
4.34345e-15
4.47909e-15
4.41605e-15
4.37618e-15
4.58777e-15
4.47544e-15
4.49902e-15
4.65584e-15
4.39798e-15
4.45229e-15
4.38589e-15
4.53512e-15
4.26903e-15
4.3404e-15
4.07334e-15
4.24986e-15
3.99476e-15
4.021e-15
4.1195e-15
3.96793e-15
4.19041e-15
4.1827e-15
4.06778e-15
4.21085e-15
4.02391e-15
4.0092e-15
4.31363e-15
4.17133e-15
4.46255e-15
5.52274e-15
4.77561e-15
5.72362e-15
4.48866e-15
4.76106e-15
4.78688e-15
4.73859e-15
4.81335e-15
4.5811e-15
4.65754e-15
4.51181e-15
4.54401e-15
4.43557e-15
4.33554e-15
4.54351e-15
4.34336e-15
4.60911e-15
4.67708e-15
4.58942e-15
4.55807e-15
4.48963e-15
4.65775e-15
4.32123e-15
4.45776e-15
4.19752e-15
4.19365e-15
3.99417e-15
4.11801e-15
4.03113e-15
4.04065e-15
4.20313e-15
4.15243e-15
4.15227e-15
4.22819e-15
4.15661e-15
4.1355e-15
4.32025e-15
4.21915e-15
4.25944e-15
3.74154e-15
5.0303e-15
3.55192e-15
4.33624e-15
4.83917e-15
4.89383e-15
4.73229e-15
4.8797e-15
4.62045e-15
4.79818e-15
4.36773e-15
4.56624e-15
4.24333e-15
4.26983e-15
4.47693e-15
4.38182e-15
4.62605e-15
4.61532e-15
4.62639e-15
4.58217e-15
4.62588e-15
4.65966e-15
4.33018e-15
4.58045e-15
4.11413e-15
4.14858e-15
4.16449e-15
4.18332e-15
4.16196e-15
4.25689e-15
4.17749e-15
4.17748e-15
4.21143e-15
4.18959e-15
4.19805e-15
4.16322e-15
4.15835e-15
4.19998e-15
4.23289e-15
5.625e-15
4.91628e-15
5.67816e-15
5.81716e-15
4.93437e-15
4.84852e-15
4.94559e-15
4.8995e-15
4.74397e-15
4.90892e-15
4.46834e-15
4.6784e-15
4.40832e-15
4.49047e-15
4.52021e-15
4.4949e-15
4.57145e-15
4.55808e-15
4.61544e-15
4.618e-15
4.61424e-15
4.66259e-15
4.39885e-15
4.57197e-15
4.21776e-15
4.31344e-15
4.27572e-15
4.38573e-15
4.27241e-15
4.33211e-15
4.18958e-15
4.1371e-15
4.14139e-15
4.10908e-15
4.16516e-15
4.01522e-15
4.27452e-15
4.16381e-15
4.3755e-15
5.10844e-15
5.22099e-15
4.98752e-15
4.09687e-15
4.81364e-15
4.89843e-15
4.86283e-15
4.72795e-15
4.84335e-15
4.94265e-15
4.70053e-15
4.78583e-15
4.57705e-15
4.66872e-15
4.53277e-15
4.59755e-15
4.60463e-15
4.6315e-15
4.66515e-15
4.66012e-15
4.62032e-15
4.65963e-15
4.48656e-15
4.54293e-15
4.48141e-15
4.50859e-15
4.44213e-15
4.61054e-15
4.1968e-15
4.36818e-15
4.0566e-15
4.21414e-15
3.98291e-15
4.05904e-15
4.01387e-15
3.85703e-15
4.26478e-15
4.02101e-15
4.32115e-15
4.20942e-15
4.79534e-15
4.00778e-15
4.98211e-15
4.81273e-15
4.97912e-15
4.80776e-15
4.94174e-15
4.88513e-15
4.95019e-15
4.75402e-15
4.90467e-15
4.68921e-15
4.79716e-15
4.69627e-15
4.79911e-15
4.68699e-15
4.80559e-15
4.6546e-15
4.73791e-15
4.58224e-15
4.65576e-15
4.56496e-15
4.54833e-15
4.63772e-15
4.57367e-15
4.53659e-15
4.60197e-15
4.38551e-15
4.35294e-15
4.21658e-15
4.23793e-15
3.93316e-15
4.05861e-15
3.86417e-15
3.84369e-15
4.07738e-15
3.87717e-15
4.15832e-15
5.56804e-15
4.43478e-15
5.95345e-15
5.63713e-15
5.10812e-15
5.03347e-15
5.08417e-15
5.20985e-15
4.96974e-15
5.17372e-15
4.94781e-15
5.08848e-15
4.90705e-15
4.95713e-15
4.90843e-15
4.9948e-15
4.85651e-15
4.90743e-15
4.73907e-15
4.79658e-15
4.62186e-15
4.75157e-15
4.55703e-15
4.60623e-15
4.53792e-15
4.52047e-15
4.41832e-15
4.49037e-15
4.20535e-15
4.27624e-15
4.07996e-15
4.16433e-15
3.96914e-15
4.02445e-15
3.85668e-15
3.84244e-15
3.95811e-15
3.74495e-15
4.00426e-15
4.50387e-15
4.81428e-15
4.71714e-15
3.8103e-15
5.1352e-15
5.0717e-15
5.2994e-15
5.24483e-15
5.29245e-15
5.38477e-15
5.0978e-15
5.21666e-15
5.04488e-15
5.03408e-15
4.9938e-15
5.13168e-15
4.84749e-15
5.06299e-15
4.80907e-15
4.93225e-15
4.73594e-15
4.94304e-15
4.56966e-15
4.58619e-15
4.47292e-15
4.4129e-15
4.3483e-15
4.44657e-15
4.23522e-15
4.2439e-15
4.10883e-15
4.22115e-15
3.89776e-15
3.94317e-15
3.73071e-15
3.66514e-15
3.7911e-15
3.6867e-15
3.97338e-15
4.12071e-15
4.30406e-15
4.16486e-15
4.62702e-15
5.18134e-15
5.00819e-15
5.3302e-15
5.33469e-15
5.30898e-15
5.37343e-15
5.15294e-15
5.30507e-15
5.12088e-15
5.13333e-15
5.20087e-15
5.18527e-15
5.14775e-15
5.20245e-15
5.06622e-15
5.10725e-15
4.79329e-15
4.97399e-15
4.42943e-15
4.63619e-15
4.38655e-15
4.43559e-15
4.34218e-15
4.35928e-15
4.22983e-15
4.17896e-15
4.05549e-15
4.16099e-15
3.71054e-15
3.93516e-15
3.62113e-15
3.5955e-15
3.86898e-15
3.7348e-15
4.09309e-15
4.81037e-15
5.47035e-15
5.16154e-15
5.37791e-15
5.36952e-15
5.28546e-15
5.19772e-15
5.18685e-15
5.16196e-15
5.01503e-15
4.81688e-15
4.64234e-15
4.40831e-15
4.19606e-15
4.11012e-15
4.04066e-15
3.82011e-15
3.70917e-15
3.95891e-15
)
;

boundaryField
{
    movingWall
    {
        type            calculated;
        value           nonuniform List<scalar> 
20
(
3.6209e-15
5.99983e-15
4.94087e-15
5.3822e-15
5.37362e-15
5.36542e-15
5.20549e-15
5.18994e-15
5.18376e-15
5.14016e-15
4.88989e-15
4.74387e-15
4.54082e-15
4.27581e-15
4.1163e-15
4.10393e-15
3.97738e-15
3.66283e-15
3.75551e-15
4.16231e-15
)
;
    }
    fixedWalls
    {
        type            calculated;
        value           nonuniform List<scalar> 
60
(
0
2.4244e-15
2.50392e-15
2.53186e-15
3.33154e-15
2.96101e-15
3.64696e-15
4.55467e-15
4.19182e-15
4.14787e-15
4.1337e-15
4.24368e-15
5.30754e-15
4.75305e-15
5.07951e-15
5.36247e-15
4.22821e-15
4.64136e-15
4.98721e-15
3.6209e-15
4.53594e-15
4.3325e-15
4.48284e-15
4.58442e-15
4.77943e-15
4.80309e-15
4.70258e-15
4.48125e-15
4.53817e-15
4.56423e-15
4.53227e-15
4.39282e-15
4.12606e-15
4.33971e-15
4.41129e-15
4.23101e-15
4.08563e-15
3.92289e-15
4.02386e-15
4.16231e-15
0
3.55614e-15
2.65327e-15
3.1379e-15
3.27757e-15
3.43095e-15
3.63981e-15
3.93438e-15
3.95848e-15
4.06211e-15
4.13129e-15
4.12545e-15
4.05224e-15
3.96106e-15
3.86002e-15
3.87693e-15
4.03945e-15
4.23898e-15
4.46676e-15
4.53594e-15
)
;
    }
    frontAndBack
    {
        type            empty;
    }
}


// ************************************************************************* //
