/*--------------------------------*- C++ -*----------------------------------*\
| =========                 |                                                 |
| \\      /  F ield         | OpenFOAM: The Open Source CFD Toolbox           |
|  \\    /   O peration     | Version:  2506                                  |
|   \\  /    A nd           | Website:  www.openfoam.com                      |
|    \\/     M anipulation  |                                                 |
\*---------------------------------------------------------------------------*/
FoamFile
{
    version     2.0;
    format      ascii;
    arch        "LSB;label=32;scalar=64";
    class       volScalarField;
    location    "8.5";
    object      turbulenceProperties:omega;
}
// * * * * * * * * * * * * * * * * * * * * * * * * * * * * * * * * * * * * * //

dimensions      [0 0 -1 0 0 0 0];

internalField   nonuniform List<scalar> 
400
(
3.3538
3.3538
3.3538
3.3538
3.3538
3.3538
3.3538
3.3538
3.3538
3.3538
3.3538
3.3538
3.3538
3.3538
3.3538
3.3538
3.3538
3.3538
3.3538
3.3538
3.38361
3.34547
3.34881
3.35018
3.35292
3.35433
3.35706
3.35851
3.36124
3.36271
3.36545
3.36694
3.36969
3.3712
3.37395
3.37549
3.37824
3.37981
3.38119
3.38335
3.43026
3.39039
3.39395
3.3954
3.39829
3.39979
3.40266
3.40419
3.40705
3.40859
3.41146
3.413
3.41588
3.41743
3.4203
3.42187
3.42474
3.42633
3.42776
3.42998
3.47871
3.4377
3.44136
3.44285
3.44582
3.44737
3.45032
3.45189
3.45484
3.45642
3.45937
3.46095
3.46391
3.4655
3.46847
3.47007
3.47302
3.47466
3.47612
3.47841
3.51907
3.4771
3.48084
3.48236
3.48541
3.48698
3.49002
3.49161
3.49464
3.49624
3.49928
3.50088
3.50393
3.50555
3.50859
3.51023
3.51325
3.51492
3.51643
3.51877
3.54833
3.50563
3.50945
3.51099
3.5141
3.51569
3.51878
3.52039
3.52348
3.52511
3.5282
3.52983
3.53293
3.53458
3.53767
3.53934
3.54241
3.54411
3.54564
3.54803
3.56778
3.52459
3.52843
3.53001
3.53315
3.53476
3.53788
3.53952
3.54263
3.54429
3.5474
3.54907
3.55219
3.55386
3.55698
3.55868
3.56178
3.56351
3.56505
3.56746
3.58017
3.53667
3.54054
3.54213
3.54528
3.54692
3.55005
3.55172
3.55483
3.55651
3.55964
3.56133
3.56446
3.56615
3.56929
3.571
3.57413
3.57587
3.57742
3.57985
3.58815
3.54445
3.54834
3.54993
3.55311
3.55474
3.5579
3.55956
3.56271
3.56438
3.56754
3.56921
3.57238
3.57406
3.57723
3.57894
3.58208
3.58383
3.58539
3.58783
3.59368
3.54983
3.55375
3.55533
3.55852
3.56016
3.56333
3.56499
3.56816
3.56982
3.573
3.57468
3.57786
3.57955
3.58272
3.58444
3.58759
3.58934
3.59091
3.59335
3.598
3.55406
3.55797
3.55957
3.56275
3.56441
3.56757
3.56925
3.57241
3.5741
3.57727
3.57897
3.58214
3.58384
3.58702
3.58874
3.5919
3.59366
3.59523
3.59768
3.60188
3.55784
3.56176
3.56336
3.56656
3.56821
3.57138
3.57307
3.57623
3.57793
3.58109
3.5828
3.58598
3.58769
3.59086
3.5926
3.59576
3.59752
3.5991
3.60155
3.60574
3.5616
3.56552
3.56714
3.57034
3.57199
3.57518
3.57686
3.58003
3.58173
3.58491
3.58661
3.5898
3.59151
3.5947
3.59643
3.5996
3.60137
3.60295
3.60541
3.60981
3.56557
3.56951
3.57112
3.57433
3.57599
3.57918
3.58087
3.58404
3.58575
3.58893
3.59065
3.59384
3.59556
3.59875
3.60048
3.60366
3.60543
3.60701
3.60948
3.61421
3.56986
3.5738
3.57542
3.57864
3.5803
3.5835
3.5852
3.58837
3.59009
3.59327
3.59499
3.59819
3.59991
3.60311
3.60485
3.60804
3.60981
3.6114
3.61387
3.61887
3.57441
3.57837
3.57999
3.58322
3.58488
3.58809
3.58977
3.59298
3.59468
3.5979
3.5996
3.60282
3.60454
3.60775
3.60949
3.61269
3.61447
3.61606
3.61854
3.62358
3.57901
3.58299
3.5846
3.58784
3.5895
3.59273
3.59441
3.59764
3.59933
3.60256
3.60426
3.6075
3.60922
3.61244
3.61419
3.61739
3.61917
3.62077
3.62326
3.62794
3.58327
3.58723
3.58887
3.59211
3.59378
3.597
3.5987
3.60191
3.60363
3.60685
3.60857
3.6118
3.61353
3.61676
3.61851
3.62172
3.62351
3.62511
3.6276
3.63133
3.58742
3.59125
3.59283
3.59598
3.59761
3.60074
3.60241
3.60555
3.60724
3.61039
3.6121
3.61527
3.61701
3.62017
3.62195
3.62511
3.62693
3.62851
3.631
3.63288
3.63288
3.63288
3.63288
3.63287
3.63288
3.63287
3.63288
3.63288
3.63288
3.63288
3.63288
3.63288
3.63288
3.63288
3.63288
3.63288
3.63288
3.63288
3.63288
)
;

boundaryField
{
    movingWall
    {
        type            calculated;
        value           nonuniform List<scalar> 
20
(
3.63288
3.63288
3.63288
3.63288
3.63287
3.63288
3.63287
3.63288
3.63288
3.63288
3.63288
3.63288
3.63288
3.63288
3.63288
3.63288
3.63288
3.63288
3.63288
3.63288
)
;
    }
    fixedWalls
    {
        type            calculated;
        value           nonuniform List<scalar> 
60
(
3.3538
3.38361
3.43026
3.47871
3.51907
3.54833
3.56778
3.58017
3.58815
3.59368
3.598
3.60188
3.60574
3.60981
3.61421
3.61887
3.62358
3.62794
3.63133
3.63288
3.3538
3.38335
3.42998
3.47841
3.51877
3.54803
3.56746
3.57985
3.58783
3.59335
3.59768
3.60155
3.60541
3.60948
3.61387
3.61854
3.62326
3.6276
3.631
3.63288
3.3538
3.3538
3.3538
3.3538
3.3538
3.3538
3.3538
3.3538
3.3538
3.3538
3.3538
3.3538
3.3538
3.3538
3.3538
3.3538
3.3538
3.3538
3.3538
3.3538
)
;
    }
    frontAndBack
    {
        type            empty;
    }
}


// ************************************************************************* //
