/*--------------------------------*- C++ -*----------------------------------*\
| =========                 |                                                 |
| \\      /  F ield         | OpenFOAM: The Open Source CFD Toolbox           |
|  \\    /   O peration     | Version:  2506                                  |
|   \\  /    A nd           | Website:  www.openfoam.com                      |
|    \\/     M anipulation  |                                                 |
\*---------------------------------------------------------------------------*/
FoamFile
{
    version     2.0;
    format      ascii;
    arch        "LSB;label=32;scalar=64";
    class       volScalarField;
    location    "8.5";
    object      turbulenceProperties:k;
}
// * * * * * * * * * * * * * * * * * * * * * * * * * * * * * * * * * * * * * //

dimensions      [0 2 -2 0 0 0 0];

internalField   nonuniform List<scalar> 
400
(
3.52966e-06
3.52966e-06
3.52966e-06
3.52965e-06
3.52965e-06
3.52965e-06
3.52965e-06
3.52965e-06
3.52965e-06
3.52965e-06
3.52965e-06
3.52965e-06
3.52965e-06
3.52965e-06
3.52965e-06
3.52965e-06
3.52965e-06
3.52965e-06
3.52965e-06
3.52965e-06
3.59237e-06
3.59237e-06
3.59227e-06
3.59224e-06
3.59217e-06
3.59213e-06
3.59208e-06
3.59205e-06
3.592e-06
3.59198e-06
3.59193e-06
3.59192e-06
3.59188e-06
3.59187e-06
3.59184e-06
3.59184e-06
3.59182e-06
3.59182e-06
3.59181e-06
3.59181e-06
3.69166e-06
3.69166e-06
3.69155e-06
3.69152e-06
3.69144e-06
3.69141e-06
3.69135e-06
3.69131e-06
3.69127e-06
3.69123e-06
3.69119e-06
3.69116e-06
3.69114e-06
3.69112e-06
3.6911e-06
3.69108e-06
3.69107e-06
3.69106e-06
3.69106e-06
3.69106e-06
3.79627e-06
3.79627e-06
3.79616e-06
3.79612e-06
3.79604e-06
3.796e-06
3.79594e-06
3.7959e-06
3.79585e-06
3.79581e-06
3.79577e-06
3.79575e-06
3.79571e-06
3.7957e-06
3.79567e-06
3.79566e-06
3.79564e-06
3.79564e-06
3.79563e-06
3.79563e-06
3.88463e-06
3.88463e-06
3.8845e-06
3.88447e-06
3.88438e-06
3.88435e-06
3.88427e-06
3.88424e-06
3.88418e-06
3.88416e-06
3.8841e-06
3.88409e-06
3.88404e-06
3.88403e-06
3.884e-06
3.88399e-06
3.88397e-06
3.88397e-06
3.88396e-06
3.88396e-06
3.94937e-06
3.94938e-06
3.94923e-06
3.94921e-06
3.94912e-06
3.94908e-06
3.949e-06
3.94898e-06
3.9489e-06
3.94889e-06
3.94882e-06
3.94882e-06
3.94876e-06
3.94876e-06
3.94872e-06
3.94871e-06
3.94869e-06
3.94869e-06
3.94868e-06
3.94868e-06
3.9927e-06
3.9927e-06
3.99258e-06
3.99253e-06
3.99244e-06
3.9924e-06
3.99232e-06
3.99229e-06
3.99223e-06
3.9922e-06
3.99215e-06
3.99212e-06
3.99208e-06
3.99207e-06
3.99204e-06
3.99203e-06
3.99201e-06
3.992e-06
3.992e-06
3.99199e-06
4.02045e-06
4.02045e-06
4.02032e-06
4.02028e-06
4.02019e-06
4.02014e-06
4.02008e-06
4.02003e-06
4.01998e-06
4.01994e-06
4.0199e-06
4.01986e-06
4.01983e-06
4.0198e-06
4.01978e-06
4.01976e-06
4.01975e-06
4.01974e-06
4.01974e-06
4.01973e-06
4.03839e-06
4.03839e-06
4.03826e-06
4.03822e-06
4.03812e-06
4.03808e-06
4.03801e-06
4.03797e-06
4.0379e-06
4.03788e-06
4.03782e-06
4.0378e-06
4.03775e-06
4.03774e-06
4.03771e-06
4.0377e-06
4.03768e-06
4.03767e-06
4.03767e-06
4.03766e-06
4.05083e-06
4.05083e-06
4.05068e-06
4.05066e-06
4.05056e-06
4.05053e-06
4.05044e-06
4.05041e-06
4.05033e-06
4.05032e-06
4.05025e-06
4.05024e-06
4.05019e-06
4.05018e-06
4.05014e-06
4.05013e-06
4.05011e-06
4.05011e-06
4.0501e-06
4.0501e-06
4.06058e-06
4.06058e-06
4.06044e-06
4.0604e-06
4.06031e-06
4.06026e-06
4.06019e-06
4.06014e-06
4.06009e-06
4.06005e-06
4.06001e-06
4.05997e-06
4.05994e-06
4.05992e-06
4.05989e-06
4.05987e-06
4.05986e-06
4.05985e-06
4.05984e-06
4.05984e-06
4.06931e-06
4.06931e-06
4.06918e-06
4.06913e-06
4.06905e-06
4.069e-06
4.06893e-06
4.06888e-06
4.06883e-06
4.06878e-06
4.06874e-06
4.06871e-06
4.06867e-06
4.06865e-06
4.06862e-06
4.06861e-06
4.06859e-06
4.06858e-06
4.06858e-06
4.06858e-06
4.07801e-06
4.07801e-06
4.07788e-06
4.07783e-06
4.07774e-06
4.0777e-06
4.07762e-06
4.07758e-06
4.07752e-06
4.07748e-06
4.07744e-06
4.07741e-06
4.07737e-06
4.07735e-06
4.07732e-06
4.07731e-06
4.07729e-06
4.07728e-06
4.07727e-06
4.07727e-06
4.08721e-06
4.08721e-06
4.08708e-06
4.08703e-06
4.08694e-06
4.08689e-06
4.08682e-06
4.08677e-06
4.08672e-06
4.08668e-06
4.08664e-06
4.0866e-06
4.08657e-06
4.08654e-06
4.08652e-06
4.0865e-06
4.08649e-06
4.08648e-06
4.08647e-06
4.08647e-06
4.09714e-06
4.09714e-06
4.09701e-06
4.09696e-06
4.09687e-06
4.09682e-06
4.09675e-06
4.0967e-06
4.09665e-06
4.0966e-06
4.09656e-06
4.09653e-06
4.09649e-06
4.09647e-06
4.09644e-06
4.09642e-06
4.09641e-06
4.0964e-06
4.0964e-06
4.09639e-06
4.1077e-06
4.1077e-06
4.10756e-06
4.10752e-06
4.10742e-06
4.10738e-06
4.1073e-06
4.10727e-06
4.10719e-06
4.10717e-06
4.10711e-06
4.10709e-06
4.10704e-06
4.10703e-06
4.10699e-06
4.10698e-06
4.10696e-06
4.10696e-06
4.10695e-06
4.10695e-06
4.11838e-06
4.11839e-06
4.11823e-06
4.11821e-06
4.11811e-06
4.11807e-06
4.11798e-06
4.11795e-06
4.11787e-06
4.11786e-06
4.11779e-06
4.11778e-06
4.11772e-06
4.11771e-06
4.11767e-06
4.11766e-06
4.11764e-06
4.11764e-06
4.11763e-06
4.11763e-06
4.12823e-06
4.12823e-06
4.1281e-06
4.12805e-06
4.12795e-06
4.12791e-06
4.12783e-06
4.12779e-06
4.12773e-06
4.12769e-06
4.12764e-06
4.12761e-06
4.12757e-06
4.12755e-06
4.12752e-06
4.12751e-06
4.12749e-06
4.12748e-06
4.12748e-06
4.12748e-06
4.13592e-06
4.13593e-06
4.1358e-06
4.13575e-06
4.13565e-06
4.13562e-06
4.13553e-06
4.1355e-06
4.13543e-06
4.1354e-06
4.13535e-06
4.13532e-06
4.13528e-06
4.13526e-06
4.13523e-06
4.13522e-06
4.1352e-06
4.13519e-06
4.13519e-06
4.13518e-06
4.13946e-06
4.13946e-06
4.13946e-06
4.13946e-06
4.13945e-06
4.13946e-06
4.13945e-06
4.13945e-06
4.13945e-06
4.13945e-06
4.13945e-06
4.13945e-06
4.13945e-06
4.13945e-06
4.13945e-06
4.13945e-06
4.13945e-06
4.13945e-06
4.13945e-06
4.13945e-06
)
;

boundaryField
{
    movingWall
    {
        type            kqRWallFunction;
        value           nonuniform List<scalar> 
20
(
4.13946e-06
4.13946e-06
4.13946e-06
4.13946e-06
4.13945e-06
4.13946e-06
4.13945e-06
4.13945e-06
4.13945e-06
4.13945e-06
4.13945e-06
4.13945e-06
4.13945e-06
4.13945e-06
4.13945e-06
4.13945e-06
4.13945e-06
4.13945e-06
4.13945e-06
4.13945e-06
)
;
    }
    fixedWalls
    {
        type            kqRWallFunction;
        value           nonuniform List<scalar> 
60
(
3.52966e-06
3.59237e-06
3.69166e-06
3.79627e-06
3.88463e-06
3.94937e-06
3.9927e-06
4.02045e-06
4.03839e-06
4.05083e-06
4.06058e-06
4.06931e-06
4.07801e-06
4.08721e-06
4.09714e-06
4.1077e-06
4.11838e-06
4.12823e-06
4.13592e-06
4.13946e-06
3.52965e-06
3.59181e-06
3.69106e-06
3.79563e-06
3.88396e-06
3.94868e-06
3.99199e-06
4.01973e-06
4.03766e-06
4.0501e-06
4.05984e-06
4.06858e-06
4.07727e-06
4.08647e-06
4.09639e-06
4.10695e-06
4.11763e-06
4.12748e-06
4.13518e-06
4.13945e-06
3.52966e-06
3.52966e-06
3.52966e-06
3.52965e-06
3.52965e-06
3.52965e-06
3.52965e-06
3.52965e-06
3.52965e-06
3.52965e-06
3.52965e-06
3.52965e-06
3.52965e-06
3.52965e-06
3.52965e-06
3.52965e-06
3.52965e-06
3.52965e-06
3.52965e-06
3.52965e-06
)
;
    }
    frontAndBack
    {
        type            empty;
    }
}


// ************************************************************************* //
