/*--------------------------------*- C++ -*----------------------------------*\
| =========                 |                                                 |
| \\      /  F ield         | OpenFOAM: The Open Source CFD Toolbox           |
|  \\    /   O peration     | Version:  2506                                  |
|   \\  /    A nd           | Website:  www.openfoam.com                      |
|    \\/     M anipulation  |                                                 |
\*---------------------------------------------------------------------------*/
FoamFile
{
    version     2.0;
    format      ascii;
    arch        "LSB;label=32;scalar=64";
    class       volSymmTensorField;
    location    "8.5";
    object      turbulenceProperties:devReff;
}
// * * * * * * * * * * * * * * * * * * * * * * * * * * * * * * * * * * * * * //

dimensions      [0 2 -2 0 0 0 0];

internalField   nonuniform List<symmTensor> 
400
(
(1.01753e-16 -1.10358e-16 -0 -1.92722e-16 -0 9.09685e-17)
(-3.41144e-17 1.25947e-16 -0 4.66592e-17 -0 -1.25449e-17)
(1.02655e-17 -2.60569e-17 -0 -1.27421e-17 -0 2.47655e-18)
(-4.09571e-19 6.63937e-18 -0 1.4183e-18 -0 -1.00872e-18)
(1.11519e-18 -9.87491e-19 -0 -1.03207e-18 -0 -8.31205e-20)
(-3.65757e-19 9.88565e-19 -0 1.32359e-19 -0 2.33397e-19)
(4.55813e-19 1.59619e-20 -0 -3.12473e-19 -0 -1.4334e-19)
(2.95738e-20 5.47156e-20 -0 -5.91477e-20 -0 2.95738e-20)
(3.63958e-20 -1.77294e-19 -0 -7.27915e-20 -0 3.63958e-20)
(-6.2226e-20 2.08199e-19 -0 1.24452e-19 -0 -6.2226e-20)
(-7.67268e-20 6.31319e-20 -0 1.53454e-19 -0 -7.67268e-20)
(-4.3889e-20 -9.70111e-20 -0 8.77781e-20 -0 -4.3889e-20)
(4.58334e-20 -1.58225e-19 -0 -9.16668e-20 -0 4.58334e-20)
(1.97928e-20 4.57666e-19 -0 -3.95856e-20 -0 1.97928e-20)
(4.0089e-20 5.9025e-19 -0 -8.01779e-20 -0 4.0089e-20)
(7.95208e-20 1.04827e-19 -0 -1.59042e-19 -0 7.95208e-20)
(5.67952e-20 1.77734e-20 -0 -1.1359e-19 -0 5.67952e-20)
(7.9996e-20 -8.60584e-20 -0 -1.59992e-19 -0 7.9996e-20)
(4.68223e-19 -7.47277e-21 -0 -3.37293e-19 -0 -1.3093e-19)
(4.3684e-19 1.44459e-19 -0 -2.74527e-19 -0 -1.62313e-19)
(-1.66198e-16 -1.77777e-17 -0 3.0961e-16 -0 -1.43411e-16)
(5.77263e-17 1.34074e-17 -0 -7.76328e-17 -0 1.99066e-17)
(-1.49729e-17 -1.73568e-18 -0 1.91413e-17 -0 -4.16839e-18)
(1.01458e-18 7.96484e-19 -0 -2.62939e-18 -0 1.61481e-18)
(-1.4122e-18 2.30783e-20 -0 1.62404e-18 -0 -2.1184e-19)
(-1.28184e-19 4.9624e-22 -0 2.56367e-19 -0 -1.28184e-19)
(-9.58554e-19 -9.81934e-21 -0 7.16896e-19 -0 2.41658e-19)
(-1.36083e-19 5.753e-19 -0 2.72166e-19 -0 -1.36083e-19)
(-5.3182e-19 9.15489e-19 -0 4.63608e-19 -0 6.82124e-20)
(2.48111e-20 5.61437e-19 -0 -4.96223e-20 -0 2.48111e-20)
(5.42289e-19 5.092e-19 -0 -4.84618e-19 -0 -5.76706e-20)
(1.22126e-19 8.12958e-19 -0 -2.44251e-19 -0 1.22126e-19)
(8.93073e-19 6.62665e-19 -0 -5.86375e-19 -0 -3.06698e-19)
(-4.90265e-20 4.50211e-19 -0 9.80529e-20 -0 -4.90265e-20)
(-9.47512e-19 2.19129e-19 -0 6.95399e-19 -0 2.52113e-19)
(-5.18431e-19 4.69762e-19 -0 4.37076e-19 -0 8.13551e-20)
(9.13013e-22 5.81234e-19 -0 -1.82603e-21 -0 9.13013e-22)
(-4.03818e-20 6.67845e-19 -0 8.07636e-20 -0 -4.03818e-20)
(-1.46013e-19 7.14236e-20 -0 2.92027e-19 -0 -1.46013e-19)
(-8.99351e-19 1.4842e-20 -0 5.994e-19 -0 2.99951e-19)
(3.5723e-17 1.06761e-16 -0 -7.20464e-17 -0 3.63234e-17)
(-1.05256e-17 -1.01055e-16 -0 1.74445e-17 -0 -6.91886e-18)
(2.88042e-18 1.93637e-17 -0 -3.95765e-18 -0 1.07723e-18)
(-9.54423e-20 -5.59321e-18 -0 7.91924e-19 -0 -6.96481e-19)
(6.11546e-19 -1.75654e-19 -0 -6.22104e-19 -0 1.05584e-20)
(5.58838e-20 -1.49251e-18 -0 -1.11768e-19 -0 5.58838e-20)
(1.46293e-19 -5.73013e-19 -0 -2.92587e-19 -0 1.46293e-19)
(9.3e-19 -1.18684e-18 -0 -6.58233e-19 -0 -2.71767e-19)
(1.73741e-19 -7.19856e-19 -0 -3.47481e-19 -0 1.73741e-19)
(9.46868e-19 -8.03761e-19 -0 -6.92123e-19 -0 -2.54745e-19)
(2.81713e-20 -6.83632e-19 -0 -5.63427e-20 -0 2.81713e-20)
(3.83662e-19 -9.24648e-19 -0 -1.66595e-19 -0 -2.17067e-19)
(-4.84828e-19 -5.02251e-19 -0 3.68976e-19 -0 1.15852e-19)
(4.69547e-20 -6.80849e-19 -0 -9.39094e-20 -0 4.69547e-20)
(5.1402e-20 -8.05358e-19 -0 -1.02804e-19 -0 5.1402e-20)
(-9.86204e-20 -1.18221e-19 -0 1.97241e-19 -0 -9.86204e-20)
(-9.0575e-19 -9.96109e-20 -0 6.10445e-19 -0 2.95304e-19)
(-5.78814e-20 -4.66064e-19 -0 1.15763e-19 -0 -5.78814e-20)
(-4.17387e-20 8.17911e-20 -0 8.34775e-20 -0 -4.17387e-20)
(-5.97661e-20 -2.24446e-19 -0 1.19532e-19 -0 -5.97661e-20)
(6.90437e-17 -6.50104e-17 -0 -1.15841e-16 -0 4.6797e-17)
(-3.08301e-17 6.79543e-17 -0 3.33678e-17 -0 -2.53769e-18)
(7.83493e-18 -1.31925e-17 -0 -7.84516e-18 -0 1.02286e-20)
(-1.76351e-18 4.20644e-18 -0 1.72139e-18 -0 4.21138e-20)
(-2.44816e-19 3.97667e-19 -0 -1.12188e-19 -0 3.57004e-19)
(-4.64469e-20 6.99284e-19 -0 9.28938e-20 -0 -4.64469e-20)
(-3.87197e-19 1.8145e-19 -0 1.72654e-19 -0 2.14544e-19)
(4.71204e-19 2.34749e-19 -0 -3.40695e-19 -0 -1.30509e-19)
(4.56225e-19 -1.00352e-20 -0 -3.10788e-19 -0 -1.45437e-19)
(-4.28456e-19 -4.21669e-19 -0 2.55277e-19 -0 1.73179e-19)
(-5.33076e-20 -4.48344e-19 -0 1.06615e-19 -0 -5.33076e-20)
(-3.68356e-20 -5.19672e-19 -0 7.36712e-20 -0 -3.68356e-20)
(-2.01803e-20 -6.34356e-19 -0 4.03606e-20 -0 -2.01803e-20)
(4.99758e-19 -3.53998e-19 -0 -3.9804e-19 -0 -1.01718e-19)
(1.80635e-19 -4.63757e-19 -0 -3.61271e-19 -0 1.80635e-19)
(5.4196e-19 -7.97466e-19 -0 -4.82522e-19 -0 -5.94376e-20)
(4.23109e-20 -9.8175e-19 -0 -8.46218e-20 -0 4.23109e-20)
(4.41078e-20 -2.67665e-20 -0 -8.82155e-20 -0 4.41078e-20)
(5.65593e-20 7.4455e-20 -0 -1.13119e-19 -0 5.65593e-20)
(3.02944e-20 -4.38206e-19 -0 -6.05889e-20 -0 3.02944e-20)
(-8.76603e-17 1.19669e-17 -0 1.5967e-16 -0 -7.20098e-17)
(3.23352e-17 -1.46975e-17 -0 -4.05638e-17 -0 8.22861e-18)
(-8.1531e-18 2.28216e-18 -0 9.67762e-18 -0 -1.52452e-18)
(2.14013e-18 -1.30772e-18 -0 -2.47254e-18 -0 3.32416e-19)
(-1.05729e-18 -9.46883e-19 -0 9.09551e-19 -0 1.47741e-19)
(-4.43039e-19 -6.79933e-19 -0 2.83589e-19 -0 1.5945e-19)
(-1.85834e-19 -4.48213e-19 -0 3.71668e-19 -0 -1.85834e-19)
(-1.78694e-19 -3.48051e-19 -0 3.57388e-19 -0 -1.78694e-19)
(-1.90916e-18 -5.75375e-19 -0 1.4089e-18 -0 5.00256e-19)
(-1.18598e-19 -3.41804e-19 -0 2.37197e-19 -0 -1.18598e-19)
(2.86661e-20 -6.88585e-20 -0 -5.73323e-20 -0 2.86661e-20)
(6.9984e-20 2.27768e-19 -0 -1.39968e-19 -0 6.9984e-20)
(8.06011e-20 4.97219e-19 -0 -1.61202e-19 -0 8.06011e-20)
(1.3547e-20 8.2234e-19 -0 -2.70939e-20 -0 1.3547e-20)
(1.27281e-20 6.34422e-19 -0 -2.54562e-20 -0 1.27281e-20)
(8.94971e-20 -2.11854e-19 -0 -1.78994e-19 -0 8.94971e-20)
(4.69607e-19 3.46681e-19 -0 -3.37183e-19 -0 -1.32424e-19)
(4.18123e-19 1.13369e-19 -0 -2.34242e-19 -0 -1.8388e-19)
(-3.78915e-19 -1.98255e-19 -0 1.55853e-19 -0 2.23062e-19)
(4.80425e-19 -9.4584e-20 -0 -3.58912e-19 -0 -1.21512e-19)
(8.52585e-17 3.72545e-17 -0 -1.50034e-16 -0 6.47756e-17)
(-3.55597e-17 -4.99194e-17 -0 4.03575e-17 -0 -4.79785e-18)
(8.95193e-18 8.88675e-18 -0 -1.00635e-17 -0 1.11157e-18)
(-1.49708e-18 -2.81864e-18 -0 1.788e-18 -0 -2.90922e-19)
(6.12405e-19 3.56561e-19 -0 -6.21787e-19 -0 9.38259e-21)
(3.65983e-19 -4.51234e-21 -0 -1.28971e-19 -0 -2.37011e-19)
(-5.29157e-20 8.65033e-20 -0 1.05831e-19 -0 -5.29157e-20)
(-4.3833e-19 -1.91923e-19 -0 2.73748e-19 -0 1.64581e-19)
(8.488e-19 -1.00242e-19 -0 -4.91888e-19 -0 -3.56913e-19)
(5.99339e-19 -1.59835e-20 -0 -5.9585e-19 -0 -3.48928e-21)
(1.8065e-19 -1.29556e-19 -0 -3.61299e-19 -0 1.8065e-19)
(1.73577e-18 3.05438e-19 -0 -1.06056e-18 -0 -6.75212e-19)
(4.82879e-19 5.1799e-20 -0 -3.63067e-19 -0 -1.19813e-19)
(-6.00308e-20 -5.54141e-19 -0 1.20062e-19 -0 -6.00308e-20)
(-1.32967e-18 2.39119e-20 -0 8.51501e-19 -0 4.78165e-19)
(-2.78364e-20 3.22762e-19 -0 5.56728e-20 -0 -2.78364e-20)
(8.10104e-19 2.92554e-20 -0 -4.15152e-19 -0 -3.94953e-19)
(-7.89781e-19 4.20062e-20 -0 3.74562e-19 -0 4.15218e-19)
(7.83328e-20 2.82233e-19 -0 -1.56666e-19 -0 7.83328e-20)
(9.45097e-20 3.15795e-19 -0 -1.89019e-19 -0 9.45097e-20)
(-1.29547e-17 -8.31649e-17 -0 5.93139e-19 -0 1.23615e-17)
(1.8567e-17 9.39253e-17 -0 -8.76905e-18 -0 -9.79798e-18)
(-2.70173e-18 -1.71503e-17 -0 1.17937e-18 -0 1.52236e-18)
(1.601e-18 5.77531e-18 -0 -7.88352e-19 -0 -8.12652e-19)
(-8.15241e-19 7.81015e-19 -0 4.23765e-19 -0 3.91476e-19)
(-4.10375e-21 9.20948e-19 -0 8.2075e-21 -0 -4.10375e-21)
(-2.93367e-19 1.05992e-18 -0 -1.6541e-20 -0 3.09908e-19)
(-3.07345e-19 1.31426e-18 -0 1.14442e-20 -0 2.95901e-19)
(5.69604e-19 1.18403e-18 -0 -5.36016e-19 -0 -3.35875e-20)
(-3.50812e-19 1.26358e-18 -0 9.84618e-20 -0 2.5235e-19)
(3.26776e-19 1.24079e-18 -0 -5.04447e-20 -0 -2.76331e-19)
(-5.34285e-19 6.79029e-19 -0 4.65492e-19 -0 6.87933e-20)
(-8.6082e-19 7.8077e-19 -0 5.15592e-19 -0 3.45228e-19)
(4.05275e-19 2.27458e-19 -0 -2.07555e-19 -0 -1.9772e-19)
(4.33125e-19 -1.59535e-20 -0 -2.63308e-19 -0 -1.69817e-19)
(1.27404e-20 1.93899e-19 -0 -2.54809e-20 -0 1.27404e-20)
(3.97035e-19 5.86473e-19 -0 -1.91212e-19 -0 -2.05824e-19)
(3.90272e-19 6.0889e-19 -0 -1.77714e-19 -0 -2.12558e-19)
(-3.58386e-19 -1.86388e-20 -0 1.13969e-19 -0 2.44417e-19)
(4.17396e-19 -1.36697e-19 -0 -2.3203e-19 -0 -1.85366e-19)
(-8.3657e-17 5.39243e-17 -0 1.79374e-16 -0 -9.57166e-17)
(1.30444e-17 -4.60544e-17 -0 -3.51447e-17 -0 2.21003e-17)
(-4.76247e-18 1.14107e-17 -0 9.52494e-18 -0 -4.76247e-18)
(-4.18276e-19 -1.72808e-18 -0 -9.74334e-19 -0 1.39261e-18)
(-2.53903e-19 6.52678e-19 -0 5.07807e-19 -0 -2.53903e-19)
(1.7571e-19 4.19581e-19 -0 -3.51421e-19 -0 1.7571e-19)
(5.76847e-19 -6.18606e-20 -0 -5.50206e-19 -0 -2.66415e-20)
(8.67163e-19 2.15807e-20 -0 -5.27408e-19 -0 -3.39755e-19)
(8.07137e-19 -3.36745e-19 -0 -4.07465e-19 -0 -3.99672e-19)
(-9.87115e-19 -2.55089e-19 -0 7.67481e-19 -0 2.19635e-19)
(-1.01568e-18 -7.59261e-19 -0 8.24727e-19 -0 1.90957e-19)
(5.93776e-19 -2.36895e-20 -0 1.90301e-20 -0 -6.12806e-19)
(-1.04288e-18 -7.54712e-19 -0 8.7928e-19 -0 1.63597e-19)
(-3.86796e-19 5.19799e-19 -0 1.70385e-19 -0 2.16411e-19)
(7.20055e-20 9.73414e-21 -0 -1.44011e-19 -0 7.20055e-20)
(3.86079e-19 7.55593e-20 -0 -1.69035e-19 -0 -2.17044e-19)
(-7.41176e-20 6.58265e-20 -0 1.48235e-19 -0 -7.41176e-20)
(-1.26571e-18 -6.33554e-19 -0 7.22307e-19 -0 5.43407e-19)
(-2.75999e-20 -5.97899e-20 -0 5.51997e-20 -0 -2.75999e-20)
(-7.54856e-20 4.0466e-19 -0 1.50971e-19 -0 -7.54856e-20)
(9.59039e-17 3.48167e-17 -0 -1.85174e-16 -0 8.92697e-17)
(-2.46695e-17 -4.35653e-17 -0 4.26965e-17 -0 -1.8027e-17)
(5.43879e-18 7.56456e-18 -0 -9.06619e-18 -0 3.6274e-18)
(-1.37116e-18 -3.09852e-18 -0 2.74233e-18 -0 -1.37116e-18)
(-3.92801e-19 -1.01523e-18 -0 1.81891e-19 -0 2.1091e-19)
(2.47353e-19 -3.24986e-19 -0 1.08976e-19 -0 -3.56329e-19)
(-1.37773e-18 -8.82405e-19 -0 9.44574e-19 -0 4.33153e-19)
(-9.25724e-19 -1.14323e-18 -0 6.44254e-19 -0 2.8147e-19)
(-4.56089e-19 -1.16338e-18 -0 3.08637e-19 -0 1.47452e-19)
(-4.46409e-19 -1.13061e-18 -0 2.89306e-19 -0 1.57103e-19)
(4.89248e-20 -8.28547e-19 -0 -9.78496e-20 -0 4.89248e-20)
(5.82917e-19 -1.69328e-18 -0 -5.62405e-19 -0 -2.05116e-20)
(4.97134e-19 -7.64506e-19 -0 -3.90895e-19 -0 -1.06239e-19)
(4.45577e-19 -8.41702e-19 -0 -2.87811e-19 -0 -1.57767e-19)
(-4.60302e-19 -2.7058e-19 -0 3.17315e-19 -0 1.42987e-19)
(-5.79323e-20 -1.9001e-19 -0 1.15865e-19 -0 -5.79323e-20)
(-2.40704e-21 -8.55738e-19 -0 4.81408e-21 -0 -2.40704e-21)
(4.78178e-19 -3.65309e-19 -0 -3.53179e-19 -0 -1.24999e-19)
(4.36699e-19 -2.96429e-19 -0 -2.70249e-19 -0 -1.6645e-19)
(-4.08547e-20 1.01183e-20 -0 8.17093e-20 -0 -4.08547e-20)
(-1.65154e-17 -8.10187e-17 -0 4.08725e-17 -0 -2.43571e-17)
(-1.54089e-18 8.98255e-17 -0 -5.97764e-18 -0 7.51854e-18)
(-5.2971e-19 -2.02121e-17 -0 1.66331e-18 -0 -1.1336e-18)
(-1.07527e-19 3.69845e-18 -0 -3.88809e-19 -0 4.96336e-19)
(-4.76297e-20 -1.17125e-18 -0 9.52594e-20 -0 -4.76297e-20)
(-1.01113e-19 -8.19415e-19 -0 2.02226e-19 -0 -1.01113e-19)
(-1.51321e-19 -4.14984e-19 -0 3.02641e-19 -0 -1.51321e-19)
(3.49699e-19 -1.53537e-19 -0 -9.57054e-20 -0 -2.53994e-19)
(-5.56294e-19 1.05693e-18 -0 5.08952e-19 -0 4.73424e-20)
(-1.44357e-19 4.96218e-19 -0 2.88713e-19 -0 -1.44357e-19)
(-4.48549e-19 4.1222e-19 -0 2.93546e-19 -0 1.55003e-19)
(6.04569e-19 5.10856e-19 -0 -6.05616e-19 -0 1.04622e-21)
(1.05285e-18 3.5613e-19 -0 -8.9877e-19 -0 -1.54083e-19)
(1.52697e-21 1.46089e-19 -0 -3.05394e-21 -0 1.52697e-21)
(-2.31799e-20 -1.40011e-19 -0 4.63599e-20 -0 -2.31799e-20)
(-2.48044e-20 2.93704e-19 -0 4.96088e-20 -0 -2.48044e-20)
(3.75137e-20 1.66484e-19 -0 -7.50275e-20 -0 3.75137e-20)
(-3.32201e-19 2.15589e-19 -0 6.11316e-20 -0 2.71069e-19)
(3.49153e-20 1.15586e-19 -0 -6.98306e-20 -0 3.49153e-20)
(4.42128e-19 -2.07775e-19 -0 -2.81055e-19 -0 -1.61073e-19)
(-3.41517e-17 3.89865e-17 -0 5.92541e-17 -0 -2.51025e-17)
(1.3615e-17 -7.09123e-17 -0 -1.69614e-17 -0 3.34637e-18)
(-2.8969e-18 1.26643e-17 -0 3.37794e-18 -0 -4.81037e-19)
(5.02657e-19 -3.5206e-18 -0 -1.00531e-18 -0 5.02657e-19)
(4.84958e-19 4.84583e-19 -0 -3.66034e-19 -0 -1.18924e-19)
(1.72534e-19 -1.69498e-19 -0 -3.45069e-19 -0 1.72534e-19)
(-1.61515e-19 -4.94754e-20 -0 -2.80768e-19 -0 4.42282e-19)
(1.84912e-18 3.69719e-19 -0 -1.28317e-18 -0 -5.6595e-19)
(1.75842e-20 1.81137e-19 -0 -3.51685e-20 -0 1.75842e-20)
(-9.01578e-19 8.20425e-19 -0 5.95793e-19 -0 3.05785e-19)
(-1.29779e-19 7.63989e-19 -0 2.59558e-19 -0 -1.29779e-19)
(-4.72005e-19 8.82535e-19 -0 3.40412e-19 -0 1.31592e-19)
(-3.48756e-19 1.04518e-18 -0 9.39695e-20 -0 2.54786e-19)
(-3.41769e-20 7.72236e-19 -0 6.83538e-20 -0 -3.41769e-20)
(5.48642e-20 6.74035e-19 -0 -1.09728e-19 -0 5.48642e-20)
(9.29788e-19 2.05958e-20 -0 -6.5272e-19 -0 -2.77068e-19)
(8.5041e-19 8.11951e-19 -0 -4.94073e-19 -0 -3.56337e-19)
(-8.88739e-19 -5.98455e-20 -0 5.7079e-19 -0 3.17949e-19)
(-4.22969e-19 3.5178e-19 -0 2.42621e-19 -0 1.80348e-19)
(4.85329e-19 1.22495e-19 -0 -3.67382e-19 -0 -1.17946e-19)
(2.28159e-17 -1.79244e-17 -0 -7.70057e-17 -0 5.41899e-17)
(1.1845e-17 4.5614e-17 -0 6.51519e-18 -0 -1.83602e-17)
(-3.24828e-19 -6.28691e-18 -0 -2.97455e-18 -0 3.29938e-18)
(1.63154e-18 3.45814e-18 -0 -2.43046e-19 -0 -1.38849e-18)
(-2.53718e-19 2.29556e-19 -0 -9.65126e-20 -0 3.50231e-19)
(9.13736e-19 7.54115e-19 -0 -6.19633e-19 -0 -2.94103e-19)
(9.46074e-19 9.94717e-19 -0 -6.8442e-19 -0 -2.61653e-19)
(1.32054e-19 4.83509e-19 -0 -2.64108e-19 -0 1.32054e-19)
(1.07286e-18 -2.50515e-19 -0 -9.38163e-19 -0 -1.34697e-19)
(6.6214e-19 1.1367e-19 -0 -7.20532e-19 -0 5.83919e-20)
(9.33881e-19 6.73583e-19 -0 -6.60375e-19 -0 -2.73505e-19)
(-9.2095e-19 -6.59614e-20 -0 6.34573e-19 -0 2.86377e-19)
(7.52008e-19 9.06683e-19 -0 -2.96799e-19 -0 -4.55209e-19)
(-5.40846e-20 4.46013e-19 -0 1.08169e-19 -0 -5.40846e-20)
(-1.32599e-18 5.2612e-19 -0 8.4141e-19 -0 4.84581e-19)
(-3.18158e-20 9.10685e-19 -0 6.36315e-20 -0 -3.18158e-20)
(-8.15415e-20 1.79073e-19 -0 1.63083e-19 -0 -8.15415e-20)
(-9.81799e-19 1.39471e-20 -0 7.56778e-19 -0 2.2502e-19)
(-4.96829e-19 4.67827e-19 -0 3.90276e-19 -0 1.06553e-19)
(3.88237e-19 4.89111e-19 -0 -1.73133e-19 -0 -2.15104e-19)
(-4.61672e-17 2.95609e-17 -0 1.23108e-16 -0 -7.69412e-17)
(-6.04044e-18 -1.41179e-17 -0 -1.69193e-17 -0 2.29598e-17)
(2.4316e-19 5.03097e-18 -0 4.34649e-18 -0 -4.58965e-18)
(-8.78615e-19 -3.05598e-19 -0 -6.5906e-19 -0 1.53767e-18)
(-9.72221e-19 1.56121e-18 -0 7.36412e-19 -0 2.35809e-19)
(-1.26914e-19 1.44417e-19 -0 2.53828e-19 -0 -1.26914e-19)
(-1.07412e-18 -8.48315e-20 -0 9.40382e-19 -0 1.33739e-19)
(-5.5796e-19 4.81333e-19 -0 5.12019e-19 -0 4.59404e-20)
(4.70674e-19 5.93582e-19 -0 -3.37504e-19 -0 -1.3317e-19)
(1.28567e-19 -1.7874e-19 -0 -2.57135e-19 -0 1.28567e-19)
(1.77509e-19 -7.85405e-19 -0 -3.55017e-19 -0 1.77509e-19)
(8.21701e-19 -9.57657e-19 -0 -4.35944e-19 -0 -3.85757e-19)
(-1.022e-18 -8.58571e-19 -0 8.36647e-19 -0 1.85351e-19)
(-5.32813e-19 -1.24111e-18 -0 4.61981e-19 -0 7.08317e-20)
(3.2921e-19 -1.16998e-18 -0 -5.48309e-20 -0 -2.74379e-19)
(-5.04297e-19 -9.40827e-19 -0 4.05035e-19 -0 9.92621e-20)
(-4.82207e-20 -1.08194e-18 -0 9.64414e-20 -0 -4.82207e-20)
(4.15638e-19 -3.42032e-19 -0 -2.278e-19 -0 -1.87837e-19)
(-5.38443e-19 -1.94774e-19 -0 4.73439e-19 -0 6.50046e-20)
(-9.56005e-19 -4.0333e-20 -0 7.05199e-19 -0 2.50807e-19)
(8.16342e-17 1.21021e-17 -0 -1.58441e-16 -0 7.68064e-17)
(-2.32966e-17 -4.34222e-17 -0 3.75296e-17 -0 -1.4233e-17)
(6.35971e-18 5.60472e-18 -0 -9.09438e-18 -0 2.73468e-18)
(4.87667e-19 -2.87359e-18 -0 8.37095e-19 -0 -1.32476e-18)
(2.13048e-19 -8.9794e-19 -0 -4.26095e-19 -0 2.13048e-19)
(-1.31354e-19 1.28945e-21 -0 2.62707e-19 -0 -1.31354e-19)
(-9.40203e-19 1.31645e-19 -0 6.72407e-19 -0 2.67797e-19)
(-1.58412e-19 -2.19179e-20 -0 3.16825e-19 -0 -1.58412e-19)
(-5.76769e-19 -7.2585e-20 -0 5.49624e-19 -0 2.71452e-20)
(-5.61402e-19 -6.54333e-19 -0 5.18919e-19 -0 4.24824e-20)
(-5.0323e-19 -6.6808e-19 -0 4.02631e-19 -0 1.00599e-19)
(-5.37294e-19 2.2412e-19 -0 4.7079e-19 -0 6.65045e-20)
(-1.06608e-18 -9.85516e-19 -0 9.24683e-19 -0 1.41402e-19)
(-3.35097e-20 -3.73474e-19 -0 6.70195e-20 -0 -3.35097e-20)
(1.00544e-18 -1.20089e-19 -0 -8.03566e-19 -0 -2.01876e-19)
(4.76988e-19 -6.35619e-19 -0 -3.50347e-19 -0 -1.26641e-19)
(8.63852e-20 -2.9555e-19 -0 -1.7277e-19 -0 8.63852e-20)
(5.93236e-19 -1.55908e-19 -0 -5.82928e-19 -0 -1.03082e-20)
(4.99029e-19 -1.0954e-18 -0 -3.94541e-19 -0 -1.04488e-19)
(4.00437e-19 -5.45703e-19 -0 -1.97399e-19 -0 -2.03038e-19)
(-3.77946e-17 -8.39462e-17 -0 5.80861e-17 -0 -2.02915e-17)
(2.03609e-17 1.03188e-16 -0 -2.01749e-17 -0 -1.85956e-19)
(-4.75481e-18 -2.03725e-17 -0 4.67564e-18 -0 7.91692e-20)
(1.69922e-18 4.68546e-18 -0 -1.58579e-18 -0 -1.13432e-19)
(9.01138e-19 -1.13479e-18 -0 -5.93954e-19 -0 -3.07185e-19)
(5.37335e-19 -5.41867e-19 -0 -4.70538e-19 -0 -6.67971e-20)
(8.3021e-19 -3.46266e-19 -0 -4.5227e-19 -0 -3.77941e-19)
(-9.7981e-19 -9.69689e-19 -0 7.5153e-19 -0 2.2828e-19)
(-5.56731e-19 -6.13621e-19 -0 5.09472e-19 -0 4.72589e-20)
(-3.9196e-20 1.29863e-20 -0 7.83921e-20 -0 -3.9196e-20)
(3.07633e-19 8.4214e-20 -0 -1.13615e-20 -0 -2.96271e-19)
(-5.60278e-19 1.88622e-19 -0 5.16682e-19 -0 4.3596e-20)
(-8.03616e-19 4.98894e-19 -0 3.99595e-19 -0 4.04021e-19)
(8.66241e-20 4.8117e-19 -0 -1.73248e-19 -0 8.66241e-20)
(7.15129e-20 4.78799e-19 -0 -1.43026e-19 -0 7.15129e-20)
(-3.51572e-19 4.37617e-19 -0 9.94398e-20 -0 2.52132e-19)
(3.81156e-19 5.54242e-19 -0 -1.58663e-19 -0 -2.22493e-19)
(-8.27853e-19 5.47851e-19 -0 4.4847e-19 -0 3.79384e-19)
(1.53265e-19 3.96128e-19 -0 -3.06531e-19 -0 1.53265e-19)
(9.38049e-19 1.01871e-19 -0 -6.68999e-19 -0 -2.6905e-19)
(-6.91611e-17 9.47375e-17 -0 1.46169e-16 -0 -7.70084e-17)
(1.16936e-17 -9.09553e-17 -0 -2.82223e-17 -0 1.65288e-17)
(-4.46789e-18 1.9397e-17 -0 7.72712e-18 -0 -3.25923e-18)
(-1.64714e-18 -4.40974e-18 -0 2.72785e-19 -0 1.37436e-18)
(-3.36989e-19 8.44613e-19 -0 6.73977e-19 -0 -3.36989e-19)
(-3.78292e-19 -4.96699e-19 -0 1.52371e-19 -0 2.25921e-19)
(1.45249e-19 -9.1516e-19 -0 -2.90499e-19 -0 1.45249e-19)
(5.43845e-19 -6.59786e-19 -0 -4.83564e-19 -0 -6.02808e-20)
(9.39918e-20 -5.77469e-19 -0 -1.87984e-19 -0 9.39918e-20)
(9.00944e-20 -1.39101e-19 -0 -1.80189e-19 -0 9.00944e-20)
(5.61339e-20 1.13522e-19 -0 -1.12268e-19 -0 5.61339e-20)
(1.39843e-19 7.94975e-20 -0 -2.79687e-19 -0 1.39843e-19)
(1.00588e-18 4.59413e-19 -0 -8.0396e-19 -0 -2.01918e-19)
(-5.95768e-21 7.29087e-19 -0 1.19154e-20 -0 -5.95768e-21)
(-6.18334e-19 5.37275e-19 -0 6.32856e-19 -0 -1.45217e-20)
(3.05709e-19 4.09094e-19 -0 -7.63474e-21 -0 -2.98074e-19)
(7.75232e-19 1.17138e-19 -0 -3.43007e-19 -0 -4.32224e-19)
(-8.72458e-19 -1.15955e-19 -0 5.3752e-19 -0 3.34937e-19)
(-1.6783e-20 1.78938e-19 -0 3.35661e-20 -0 -1.6783e-20)
(3.84047e-20 4.87699e-19 -0 -7.68093e-20 -0 3.84047e-20)
(1.38911e-16 -6.18533e-18 -0 -2.56088e-16 -0 1.17177e-16)
(-4.5729e-17 -3.33708e-18 -0 6.30474e-17 -0 -1.73184e-17)
(1.03929e-17 -1.27275e-18 -0 -1.41374e-17 -0 3.74444e-18)
(-2.07545e-18 3.03038e-19 -0 3.54652e-18 -0 -1.47107e-18)
(-3.46205e-19 -1.67452e-20 -0 8.80873e-20 -0 2.58118e-19)
(-3.41458e-20 2.45272e-19 -0 6.82915e-20 -0 -3.41458e-20)
(6.28982e-19 9.89329e-19 -0 -6.53727e-19 -0 2.4745e-20)
(5.79201e-19 6.17442e-19 -0 -5.54196e-19 -0 -2.50056e-20)
(8.24895e-19 3.68925e-19 -0 -4.4149e-19 -0 -3.83405e-19)
(3.33894e-19 6.97694e-20 -0 -6.36678e-20 -0 -2.70226e-19)
(-1.01052e-20 9.57998e-21 -0 2.02104e-20 -0 -1.01052e-20)
(1.41804e-19 -2.82095e-20 -0 -2.83609e-19 -0 1.41804e-19)
(1.0643e-19 1.1376e-19 -0 -2.12859e-19 -0 1.0643e-19)
(-1.13029e-20 -1.01792e-19 -0 2.26058e-20 -0 -1.13029e-20)
(-9.32718e-20 1.13418e-20 -0 1.86544e-19 -0 -9.32718e-20)
(-1.3712e-18 -1.43297e-19 -0 9.30819e-19 -0 4.40385e-19)
(-3.93236e-19 5.10473e-19 -0 1.82664e-19 -0 2.10572e-19)
(5.73904e-20 -7.52155e-20 -0 -1.14781e-19 -0 5.73904e-20)
(3.32537e-19 -6.45621e-20 -0 -6.13237e-20 -0 -2.71213e-19)
(-5.958e-20 1.34337e-19 -0 1.1916e-19 -0 -5.958e-20)
(-4.35626e-17 -1.07909e-16 -0 7.44457e-17 -0 -3.08831e-17)
(1.90509e-17 1.00876e-16 -0 -2.23834e-17 -0 3.3325e-18)
(-4.65073e-18 -1.91786e-17 -0 5.07006e-18 -0 -4.19333e-19)
(1.46693e-18 4.44568e-18 -0 -1.72495e-18 -0 2.58021e-19)
(8.98568e-19 -4.0401e-19 -0 -5.8834e-19 -0 -3.10228e-19)
(4.67789e-19 7.59806e-19 -0 -3.31209e-19 -0 -1.3658e-19)
(-5.63392e-19 -2.26337e-20 -0 5.22472e-19 -0 4.09196e-20)
(-2.18601e-19 2.54538e-19 -0 4.37201e-19 -0 -2.18601e-19)
(-1.36947e-18 9.2395e-20 -0 9.26267e-19 -0 4.43204e-19)
(-8.7106e-19 -9.49307e-20 -0 5.33731e-19 -0 3.37329e-19)
(4.59514e-19 -2.02474e-19 -0 -3.1489e-19 -0 -1.44624e-19)
(2.24332e-20 -9.53198e-20 -0 -4.48665e-20 -0 2.24332e-20)
(3.46345e-19 8.51487e-20 -0 -8.86376e-20 -0 -2.57707e-19)
(-3.67288e-19 -4.81189e-19 -0 1.30554e-19 -0 2.36734e-19)
(5.09592e-19 1.61749e-19 -0 -4.15217e-19 -0 -9.43749e-20)
(1.27811e-18 -4.66455e-20 -0 -7.44404e-19 -0 -5.33703e-19)
(3.97696e-19 -2.14158e-19 -0 -1.9151e-19 -0 -2.06186e-19)
(-5.24275e-20 6.06784e-19 -0 1.04855e-19 -0 -5.24275e-20)
(-1.35522e-18 5.25505e-20 -0 8.9897e-19 -0 4.56251e-19)
(-1.07354e-19 -8.39902e-21 -0 2.14707e-19 -0 -1.07354e-19)
(-1.18098e-16 6.0511e-17 -0 2.11438e-16 -0 -9.33404e-17)
(4.28318e-17 -5.96761e-17 -0 -5.30153e-17 -0 1.01834e-17)
(-9.87904e-18 1.14996e-17 -0 1.18992e-17 -0 -2.02013e-18)
(2.4581e-18 -3.48751e-18 -0 -3.10269e-18 -0 6.44588e-19)
(-7.76191e-20 -6.33721e-19 -0 1.55238e-19 -0 -7.76191e-20)
(-3.99133e-19 -1.18805e-18 -0 1.93847e-19 -0 2.05286e-19)
(-1.32866e-18 -1.00266e-18 -0 8.44225e-19 -0 4.84431e-19)
(5.06212e-20 -5.90306e-19 -0 -1.01242e-19 -0 5.06212e-20)
(1.35297e-18 -7.67098e-19 -0 -8.93115e-19 -0 -4.5986e-19)
(5.15367e-19 -2.56905e-19 -0 -4.26485e-19 -0 -8.8882e-20)
(3.40244e-20 -7.26467e-19 -0 -6.80488e-20 -0 3.40244e-20)
(-1.37612e-19 -1.6061e-19 -0 2.75225e-19 -0 -1.37612e-19)
(-5.6726e-19 -8.11827e-19 -0 5.30412e-19 -0 3.68484e-20)
(3.28588e-19 -3.46803e-19 -0 -5.30974e-20 -0 -2.75491e-19)
(-4.35112e-19 -6.44955e-19 -0 2.66201e-19 -0 1.68911e-19)
(7.60034e-20 -2.77557e-19 -0 -1.52007e-19 -0 7.60034e-20)
(-8.57896e-19 -8.1526e-19 -0 5.07915e-19 -0 3.49982e-19)
(-4.88144e-19 -4.65087e-19 -0 3.72379e-19 -0 1.15764e-19)
(3.51482e-19 -5.86045e-19 -0 -9.90836e-20 -0 -2.52399e-19)
(-3.6282e-20 -5.49964e-19 -0 7.25639e-20 -0 -3.6282e-20)
(8.04538e-17 5.33699e-17 -0 -1.53057e-16 -0 7.26035e-17)
(-2.58682e-17 -5.37404e-17 -0 3.66397e-17 -0 -1.07715e-17)
(5.69591e-18 1.17382e-17 -0 -8.37248e-18 -0 2.67656e-18)
(-3.20268e-19 -1.79047e-18 -0 1.24441e-18 -0 -9.24138e-19)
(1.66787e-19 1.16037e-18 -0 -3.33574e-19 -0 1.66787e-19)
(4.33814e-19 2.18742e-19 -0 -2.63757e-19 -0 -1.70057e-19)
(5.27748e-19 5.11094e-19 -0 -4.51626e-19 -0 -7.6122e-20)
(5.0923e-19 4.62003e-19 -0 -4.14589e-19 -0 -9.46405e-20)
(3.99342e-20 6.03389e-19 -0 -7.98684e-20 -0 3.99342e-20)
(-4.04725e-19 7.05925e-20 -0 2.0558e-19 -0 1.99145e-19)
(-1.29191e-18 7.765e-19 -0 7.72204e-19 -0 5.19703e-19)
(8.3663e-19 5.04347e-19 -0 -4.65519e-19 -0 -3.71111e-19)
(5.47623e-19 2.91898e-19 -0 -4.91375e-19 -0 -5.62475e-20)
(4.90225e-19 2.26686e-19 -0 -3.76579e-19 -0 -1.13646e-19)
(6.50441e-20 -6.34166e-20 -0 -1.30088e-19 -0 6.50441e-20)
(1.80859e-20 2.8562e-19 -0 -3.61718e-20 -0 1.80859e-20)
(4.73037e-19 3.30063e-19 -0 -3.42204e-19 -0 -1.30833e-19)
(4.99843e-19 6.32051e-22 -0 -3.95816e-19 -0 -1.04027e-19)
(-2.39161e-19 5.82551e-19 -0 -1.25549e-19 -0 3.6471e-19)
(9.00101e-19 1.62453e-19 -0 -5.92461e-19 -0 -3.0764e-19)
)
;

boundaryField
{
    movingWall
    {
        type            calculated;
        value           nonuniform List<symmTensor> 
20
(
(1.35773e-16 1.52563e-17 -0 -2.64499e-16 -0 1.28726e-16)
(-3.54777e-17 -3.75622e-17 -0 5.74028e-17 -0 -2.19252e-17)
(7.84693e-18 1.34501e-17 -0 -1.29833e-17 -0 5.13642e-18)
(-8.72559e-19 5.15106e-19 -0 2.28722e-18 -0 -1.41466e-18)
(3.08112e-19 4.05229e-18 -0 -6.16223e-19 -0 3.08112e-19)
(4.59641e-19 2.58985e-18 -0 -3.7718e-19 -0 -8.24604e-20)
(4.70357e-19 2.13716e-18 -0 -3.98613e-19 -0 -7.17442e-20)
(2.37543e-19 2.09309e-18 -0 6.7015e-20 -0 -3.04558e-19)
(-2.3066e-19 1.77592e-18 -0 4.6132e-19 -0 -2.3066e-19)
(-4.8641e-19 1.83973e-18 -0 4.3072e-19 -0 5.56907e-20)
(-1.14587e-18 3.2636e-18 -0 6.65439e-19 -0 4.80432e-19)
(1.01105e-18 3.73442e-18 -0 -9.37896e-19 -0 -7.3153e-20)
(7.84284e-19 1.76735e-18 -0 -1.02647e-18 -0 2.42183e-19)
(6.25621e-19 2.15289e-18 -0 -7.09141e-19 -0 8.35198e-20)
(2.42744e-19 1.71943e-18 -0 -4.85488e-19 -0 2.42744e-19)
(1.12407e-19 1.76171e-18 -0 -2.24815e-19 -0 1.12407e-19)
(5.65087e-19 1.80161e-18 -0 -5.88074e-19 -0 2.29864e-20)
(5.41142e-19 5.67399e-22 -0 -5.40184e-19 -0 -9.58592e-22)
(-1.56201e-19 8.6904e-19 -0 -2.29699e-19 -0 3.859e-19)
(8.51508e-19 7.62964e-19 -0 -6.18813e-19 -0 -2.32694e-19)
)
;
    }
    fixedWalls
    {
        type            calculated;
        value           nonuniform List<symmTensor> 
60
(
(1.35297e-16 -4.80652e-16 -0 -1.95987e-16 -0 6.06899e-17)
(-2.20594e-16 -4.70669e-17 -0 3.15067e-16 -0 -9.4473e-17)
(3.97188e-17 3.73936e-16 -0 -6.87795e-17 -0 2.90607e-17)
(1.19933e-16 -2.47355e-16 -0 -1.33284e-16 -0 1.33514e-17)
(-1.28761e-16 5.2205e-17 -0 1.68704e-16 -0 -3.99433e-17)
(1.3667e-16 1.79698e-16 -0 -1.64983e-16 -0 2.83126e-17)
(-6.93026e-17 -3.43602e-16 -0 2.93593e-17 -0 3.99433e-17)
(-5.63857e-17 1.78317e-16 -0 1.51851e-16 -0 -9.54656e-17)
(1.01174e-16 1.59164e-16 -0 -1.73927e-16 -0 7.27528e-17)
(5.32843e-18 -3.40251e-16 -0 2.66466e-17 -0 -3.19751e-17)
(-5.13205e-17 2.56891e-16 -0 6.35612e-17 -0 -1.22407e-17)
(-4.3604e-17 -1.60729e-16 -0 -3.7137e-17 -0 8.0741e-17)
(2.06204e-17 6.04377e-17 -0 7.95514e-17 -0 -1.00172e-16)
(9.05721e-17 1.53723e-16 -0 -1.50946e-16 -0 6.03741e-17)
(-7.73486e-17 -3.81718e-16 -0 7.38729e-17 -0 3.47567e-18)
(-4.90457e-17 3.42494e-16 -0 1.24737e-16 -0 -7.5691e-17)
(1.79225e-16 8.83712e-18 -0 -2.57199e-16 -0 7.79731e-17)
(-7.17867e-17 -3.78265e-16 -0 8.31773e-17 -0 -1.13906e-17)
(-1.69365e-16 2.22097e-16 -0 2.2149e-16 -0 -5.21253e-17)
(9.95005e-17 2.05286e-16 -0 -1.51039e-16 -0 5.15388e-17)
(6.25962e-19 1.97419e-19 -0 -3.63745e-19 -0 -2.62217e-19)
(-1.27447e-18 5.63829e-21 -0 7.72592e-19 -0 5.01882e-19)
(-5.39595e-20 -3.44001e-19 -0 1.07919e-19 -0 -5.39595e-20)
(2.7314e-20 -5.89169e-19 -0 -5.46279e-20 -0 2.7314e-20)
(1.2555e-18 -1.80117e-19 -0 -7.34653e-19 -0 -5.20852e-19)
(8.50448e-20 3.80534e-19 -0 -1.7009e-19 -0 8.50448e-20)
(6.06108e-19 5.91011e-20 -0 -3.24038e-19 -0 -2.8207e-19)
(-6.78652e-20 4.64468e-19 -0 1.3573e-19 -0 -6.78652e-20)
(-3.6722e-20 -7.70395e-20 -0 7.34441e-20 -0 -3.6722e-20)
(3.59427e-20 -2.97965e-19 -0 -7.18855e-20 -0 3.59427e-20)
(1.25895e-18 1.38617e-19 -0 -7.41547e-19 -0 -5.17405e-19)
(5.79549e-19 6.9242e-19 -0 -2.70919e-19 -0 -3.0863e-19)
(-1.32031e-18 6.31956e-20 -0 8.6427e-19 -0 4.56043e-19)
(5.9043e-19 -6.66134e-19 -0 -2.92682e-19 -0 -2.97748e-19)
(1.30398e-18 5.30643e-20 -0 -8.31605e-19 -0 -4.72376e-19)
(3.44901e-20 5.94426e-19 -0 -6.89802e-20 -0 3.44901e-20)
(-5.35e-20 2.60005e-19 -0 1.07e-19 -0 -5.35e-20)
(4.95732e-19 2.37512e-21 -0 -1.03286e-19 -0 -3.92446e-19)
(-3.25724e-20 -5.89366e-19 -0 6.51449e-20 -0 -3.25724e-20)
(1.26947e-18 7.79911e-20 -0 -7.62577e-19 -0 -5.0689e-19)
(3.22603e-16 -5.60406e-17 -0 -6.35448e-16 -0 3.12845e-16)
(-8.01908e-17 9.50084e-17 -0 1.40866e-16 -0 -6.06752e-17)
(2.12552e-17 -2.63382e-17 -0 -3.5463e-17 -0 1.42079e-17)
(-2.50487e-18 3.07157e-18 -0 5.55183e-18 -0 -3.04697e-18)
(1.98347e-18 -2.49678e-18 -0 -2.88274e-18 -0 8.99271e-19)
(-1.22305e-19 -9.79937e-19 -0 -2.9749e-19 -0 4.19796e-19)
(6.82524e-19 -1.76191e-18 -0 -8.22948e-19 -0 1.40423e-19)
(2.00583e-19 -8.38673e-19 -0 -4.01167e-19 -0 2.00583e-19)
(1.89109e-19 -1.22163e-18 -0 -3.78218e-19 -0 1.89109e-19)
(-9.4453e-20 -6.99804e-19 -0 1.88906e-19 -0 -9.4453e-20)
(-3.13222e-19 -8.31058e-19 -0 6.26443e-19 -0 -3.13222e-19)
(-2.46774e-19 -1.86413e-18 -0 4.93548e-19 -0 -2.46774e-19)
(-7.91589e-20 -1.03134e-18 -0 1.58318e-19 -0 -7.91589e-20)
(1.34983e-19 -1.90437e-18 -0 -2.69966e-19 -0 1.34983e-19)
(2.62213e-19 -1.34032e-18 -0 -5.24427e-19 -0 2.62213e-19)
(1.56465e-19 -1.23742e-18 -0 -3.12931e-19 -0 1.56465e-19)
(9.292e-21 -8.72097e-19 -0 -1.8584e-20 -0 9.292e-21)
(1.13583e-19 -9.66042e-19 -0 -2.27165e-19 -0 1.13583e-19)
(5.78329e-19 -4.5085e-19 -0 -6.14558e-19 -0 3.62283e-20)
(4.93013e-19 -3.13386e-19 -0 -4.43925e-19 -0 -4.90878e-20)
)
;
    }
    frontAndBack
    {
        type            empty;
    }
}


// ************************************************************************* //
