/*--------------------------------*- C++ -*----------------------------------*\
| =========                 |                                                 |
| \\      /  F ield         | OpenFOAM: The Open Source CFD Toolbox           |
|  \\    /   O peration     | Version:  2506                                  |
|   \\  /    A nd           | Website:  www.openfoam.com                      |
|    \\/     M anipulation  |                                                 |
\*---------------------------------------------------------------------------*/
FoamFile
{
    version     2.0;
    format      ascii;
    arch        "LSB;label=32;scalar=64";
    class       volScalarField;
    location    "8.5";
    object      turbulenceProperties:nuTilda;
}
// * * * * * * * * * * * * * * * * * * * * * * * * * * * * * * * * * * * * * //

dimensions      [0 2 -1 0 0 0 0];

internalField   nonuniform List<scalar> 
400
(
1.05243e-06
1.05243e-06
1.05243e-06
1.05243e-06
1.05243e-06
1.05243e-06
1.05243e-06
1.05243e-06
1.05243e-06
1.05243e-06
1.05243e-06
1.05243e-06
1.05243e-06
1.05243e-06
1.05243e-06
1.05243e-06
1.05243e-06
1.05243e-06
1.05243e-06
1.05243e-06
1.0617e-06
1.0738e-06
1.0727e-06
1.07225e-06
1.07136e-06
1.07089e-06
1.07001e-06
1.06954e-06
1.06865e-06
1.06818e-06
1.06729e-06
1.06682e-06
1.06594e-06
1.06546e-06
1.06458e-06
1.06409e-06
1.06322e-06
1.06273e-06
1.06229e-06
1.06161e-06
1.0762e-06
1.08886e-06
1.08768e-06
1.08721e-06
1.08626e-06
1.08578e-06
1.08484e-06
1.08434e-06
1.08342e-06
1.08292e-06
1.082e-06
1.0815e-06
1.08058e-06
1.08009e-06
1.07917e-06
1.07867e-06
1.07777e-06
1.07726e-06
1.07681e-06
1.07612e-06
1.09129e-06
1.1043e-06
1.1031e-06
1.10261e-06
1.10164e-06
1.10113e-06
1.10017e-06
1.09966e-06
1.0987e-06
1.09819e-06
1.09724e-06
1.09674e-06
1.09579e-06
1.09528e-06
1.09434e-06
1.09383e-06
1.09289e-06
1.09238e-06
1.09192e-06
1.0912e-06
1.10388e-06
1.1172e-06
1.11597e-06
1.11547e-06
1.11447e-06
1.11396e-06
1.11297e-06
1.11245e-06
1.11147e-06
1.11095e-06
1.10997e-06
1.10946e-06
1.10848e-06
1.10797e-06
1.107e-06
1.10648e-06
1.10552e-06
1.10499e-06
1.10452e-06
1.10378e-06
1.11302e-06
1.12658e-06
1.12531e-06
1.12481e-06
1.12379e-06
1.12327e-06
1.12226e-06
1.12174e-06
1.12074e-06
1.12022e-06
1.11922e-06
1.1187e-06
1.1177e-06
1.11718e-06
1.11619e-06
1.11566e-06
1.11469e-06
1.11415e-06
1.11367e-06
1.11292e-06
1.1191e-06
1.13281e-06
1.13154e-06
1.13102e-06
1.13e-06
1.12947e-06
1.12845e-06
1.12792e-06
1.12691e-06
1.12637e-06
1.12537e-06
1.12484e-06
1.12384e-06
1.1233e-06
1.12231e-06
1.12177e-06
1.12079e-06
1.12025e-06
1.11976e-06
1.119e-06
1.12298e-06
1.13679e-06
1.13551e-06
1.13499e-06
1.13396e-06
1.13342e-06
1.1324e-06
1.13185e-06
1.13085e-06
1.1303e-06
1.1293e-06
1.12875e-06
1.12775e-06
1.12721e-06
1.12621e-06
1.12567e-06
1.12468e-06
1.12413e-06
1.12364e-06
1.12288e-06
1.12548e-06
1.13936e-06
1.13807e-06
1.13755e-06
1.13651e-06
1.13597e-06
1.13494e-06
1.1344e-06
1.13338e-06
1.13284e-06
1.13182e-06
1.13129e-06
1.13027e-06
1.12973e-06
1.12872e-06
1.12818e-06
1.12719e-06
1.12664e-06
1.12614e-06
1.12538e-06
1.12721e-06
1.14113e-06
1.13983e-06
1.13932e-06
1.13827e-06
1.13774e-06
1.1367e-06
1.13617e-06
1.13513e-06
1.1346e-06
1.13357e-06
1.13304e-06
1.13202e-06
1.13148e-06
1.13047e-06
1.12992e-06
1.12892e-06
1.12837e-06
1.12788e-06
1.12711e-06
1.12856e-06
1.14252e-06
1.14122e-06
1.1407e-06
1.13966e-06
1.13911e-06
1.13808e-06
1.13753e-06
1.13651e-06
1.13596e-06
1.13495e-06
1.1344e-06
1.13338e-06
1.13284e-06
1.13183e-06
1.13128e-06
1.13028e-06
1.12973e-06
1.12923e-06
1.12846e-06
1.12977e-06
1.14376e-06
1.14246e-06
1.14194e-06
1.14089e-06
1.14035e-06
1.13932e-06
1.13876e-06
1.13774e-06
1.13719e-06
1.13617e-06
1.13562e-06
1.13461e-06
1.13406e-06
1.13305e-06
1.1325e-06
1.1315e-06
1.13094e-06
1.13044e-06
1.12967e-06
1.13098e-06
1.14499e-06
1.1437e-06
1.14317e-06
1.14211e-06
1.14158e-06
1.14054e-06
1.13999e-06
1.13896e-06
1.13841e-06
1.13739e-06
1.13684e-06
1.13582e-06
1.13527e-06
1.13426e-06
1.13371e-06
1.1327e-06
1.13215e-06
1.13165e-06
1.13088e-06
1.13225e-06
1.1463e-06
1.145e-06
1.14447e-06
1.14341e-06
1.14287e-06
1.14183e-06
1.14128e-06
1.14025e-06
1.1397e-06
1.13868e-06
1.13812e-06
1.1371e-06
1.13655e-06
1.13554e-06
1.13499e-06
1.13398e-06
1.13342e-06
1.13292e-06
1.13215e-06
1.13362e-06
1.1477e-06
1.1464e-06
1.14587e-06
1.14481e-06
1.14427e-06
1.14323e-06
1.14267e-06
1.14164e-06
1.14109e-06
1.14006e-06
1.13951e-06
1.13849e-06
1.13793e-06
1.13692e-06
1.13636e-06
1.13536e-06
1.1348e-06
1.1343e-06
1.13352e-06
1.13508e-06
1.1492e-06
1.14789e-06
1.14736e-06
1.14629e-06
1.14575e-06
1.1447e-06
1.14416e-06
1.14312e-06
1.14257e-06
1.14153e-06
1.14099e-06
1.13995e-06
1.13941e-06
1.13838e-06
1.13783e-06
1.13681e-06
1.13626e-06
1.13575e-06
1.13497e-06
1.13655e-06
1.15071e-06
1.14938e-06
1.14886e-06
1.1478e-06
1.14725e-06
1.1462e-06
1.14565e-06
1.14461e-06
1.14406e-06
1.14302e-06
1.14247e-06
1.14143e-06
1.14089e-06
1.13986e-06
1.13931e-06
1.13829e-06
1.13773e-06
1.13723e-06
1.13644e-06
1.1379e-06
1.15209e-06
1.15078e-06
1.15024e-06
1.14917e-06
1.14863e-06
1.14757e-06
1.14702e-06
1.14598e-06
1.14543e-06
1.14439e-06
1.14384e-06
1.1428e-06
1.14225e-06
1.14122e-06
1.14067e-06
1.13965e-06
1.13909e-06
1.13858e-06
1.1378e-06
1.13896e-06
1.1529e-06
1.15163e-06
1.15111e-06
1.15008e-06
1.14955e-06
1.14852e-06
1.14798e-06
1.14696e-06
1.14642e-06
1.1454e-06
1.14485e-06
1.14384e-06
1.14328e-06
1.14227e-06
1.14171e-06
1.14071e-06
1.14014e-06
1.13964e-06
1.13886e-06
1.13944e-06
1.13944e-06
1.13944e-06
1.13944e-06
1.13944e-06
1.13944e-06
1.13944e-06
1.13944e-06
1.13944e-06
1.13944e-06
1.13944e-06
1.13944e-06
1.13944e-06
1.13944e-06
1.13944e-06
1.13944e-06
1.13944e-06
1.13944e-06
1.13944e-06
1.13944e-06
)
;

boundaryField
{
    movingWall
    {
        type            calculated;
        value           nonuniform List<scalar> 
20
(
1.13944e-06
1.13944e-06
1.13944e-06
1.13944e-06
1.13944e-06
1.13944e-06
1.13944e-06
1.13944e-06
1.13944e-06
1.13944e-06
1.13944e-06
1.13944e-06
1.13944e-06
1.13944e-06
1.13944e-06
1.13944e-06
1.13944e-06
1.13944e-06
1.13944e-06
1.13944e-06
)
;
    }
    fixedWalls
    {
        type            calculated;
        value           nonuniform List<scalar> 
60
(
1.05243e-06
1.0617e-06
1.0762e-06
1.09129e-06
1.10388e-06
1.11302e-06
1.1191e-06
1.12298e-06
1.12548e-06
1.12721e-06
1.12856e-06
1.12977e-06
1.13098e-06
1.13225e-06
1.13362e-06
1.13508e-06
1.13655e-06
1.1379e-06
1.13896e-06
1.13944e-06
1.05243e-06
1.06161e-06
1.07612e-06
1.0912e-06
1.10378e-06
1.11292e-06
1.119e-06
1.12288e-06
1.12538e-06
1.12711e-06
1.12846e-06
1.12967e-06
1.13088e-06
1.13215e-06
1.13352e-06
1.13497e-06
1.13644e-06
1.1378e-06
1.13886e-06
1.13944e-06
1.05243e-06
1.05243e-06
1.05243e-06
1.05243e-06
1.05243e-06
1.05243e-06
1.05243e-06
1.05243e-06
1.05243e-06
1.05243e-06
1.05243e-06
1.05243e-06
1.05243e-06
1.05243e-06
1.05243e-06
1.05243e-06
1.05243e-06
1.05243e-06
1.05243e-06
1.05243e-06
)
;
    }
    frontAndBack
    {
        type            empty;
    }
}


// ************************************************************************* //
