/*--------------------------------*- C++ -*----------------------------------*\
| =========                 |                                                 |
| \\      /  F ield         | OpenFOAM: The Open Source CFD Toolbox           |
|  \\    /   O peration     | Version:  2506                                  |
|   \\  /    A nd           | Website:  www.openfoam.com                      |
|    \\/     M anipulation  |                                                 |
\*---------------------------------------------------------------------------*/
FoamFile
{
    version     2.0;
    format      ascii;
    arch        "LSB;label=32;scalar=64";
    class       volSymmTensorField;
    location    "8.5";
    object      turbulenceProperties:R;
}
// * * * * * * * * * * * * * * * * * * * * * * * * * * * * * * * * * * * * * //

dimensions      [0 2 -2 0 0 0 0];

internalField   nonuniform List<symmTensor> 
400
(
(2.35311e-06 -1.05085e-17 -0 2.35311e-06 -0 2.35311e-06)
(2.3531e-06 1.19929e-17 -0 2.3531e-06 -0 2.3531e-06)
(2.3531e-06 -2.48119e-18 -0 2.3531e-06 -0 2.3531e-06)
(2.3531e-06 6.32214e-19 -0 2.3531e-06 -0 2.3531e-06)
(2.3531e-06 -9.40308e-20 -0 2.3531e-06 -0 2.3531e-06)
(2.3531e-06 9.4133e-20 -0 2.3531e-06 -0 2.3531e-06)
(2.3531e-06 1.51992e-21 -0 2.3531e-06 -0 2.3531e-06)
(2.3531e-06 5.21012e-21 -0 2.3531e-06 -0 2.3531e-06)
(2.3531e-06 -1.68823e-20 -0 2.3531e-06 -0 2.3531e-06)
(2.3531e-06 1.98251e-20 -0 2.3531e-06 -0 2.3531e-06)
(2.3531e-06 6.01154e-21 -0 2.3531e-06 -0 2.3531e-06)
(2.3531e-06 -9.23758e-21 -0 2.3531e-06 -0 2.3531e-06)
(2.3531e-06 -1.50665e-20 -0 2.3531e-06 -0 2.3531e-06)
(2.3531e-06 4.35798e-20 -0 2.3531e-06 -0 2.3531e-06)
(2.3531e-06 5.62047e-20 -0 2.3531e-06 -0 2.3531e-06)
(2.3531e-06 9.98185e-21 -0 2.3531e-06 -0 2.3531e-06)
(2.3531e-06 1.69241e-21 -0 2.3531e-06 -0 2.3531e-06)
(2.3531e-06 -8.19464e-21 -0 2.3531e-06 -0 2.3531e-06)
(2.3531e-06 -7.11571e-22 -0 2.3531e-06 -0 2.3531e-06)
(2.3531e-06 1.37556e-20 -0 2.3531e-06 -0 2.3531e-06)
(2.39491e-06 -1.7063e-18 -0 2.39491e-06 -0 2.39491e-06)
(2.39491e-06 1.30008e-18 -0 2.39491e-06 -0 2.39491e-06)
(2.39484e-06 -1.68149e-19 -0 2.39484e-06 -0 2.39484e-06)
(2.39482e-06 7.71326e-20 -0 2.39482e-06 -0 2.39482e-06)
(2.39478e-06 2.23325e-21 -0 2.39478e-06 -0 2.39478e-06)
(2.39476e-06 4.80016e-23 -0 2.39476e-06 -0 2.39476e-06)
(2.39472e-06 -9.49119e-22 -0 2.39472e-06 -0 2.39472e-06)
(2.3947e-06 5.55853e-20 -0 2.3947e-06 -0 2.3947e-06)
(2.39466e-06 8.83882e-20 -0 2.39466e-06 -0 2.39466e-06)
(2.39465e-06 5.41837e-20 -0 2.39465e-06 -0 2.39465e-06)
(2.39462e-06 4.91056e-20 -0 2.39462e-06 -0 2.39462e-06)
(2.39461e-06 7.83676e-20 -0 2.39461e-06 -0 2.39461e-06)
(2.39458e-06 6.38318e-20 -0 2.39458e-06 -0 2.39458e-06)
(2.39458e-06 4.33494e-20 -0 2.39458e-06 -0 2.39458e-06)
(2.39456e-06 2.10835e-20 -0 2.39456e-06 -0 2.39456e-06)
(2.39456e-06 4.51795e-20 -0 2.39456e-06 -0 2.39456e-06)
(2.39455e-06 5.58591e-20 -0 2.39455e-06 -0 2.39455e-06)
(2.39454e-06 6.41556e-20 -0 2.39454e-06 -0 2.39454e-06)
(2.39454e-06 6.85868e-21 -0 2.39454e-06 -0 2.39454e-06)
(2.39454e-06 1.42443e-21 -0 2.39454e-06 -0 2.39454e-06)
(2.46111e-06 1.03733e-17 -0 2.46111e-06 -0 2.46111e-06)
(2.46111e-06 -9.92305e-18 -0 2.46111e-06 -0 2.46111e-06)
(2.46103e-06 1.89955e-18 -0 2.46103e-06 -0 2.46103e-06)
(2.46101e-06 -5.48471e-19 -0 2.46101e-06 -0 2.46101e-06)
(2.46096e-06 -1.72111e-20 -0 2.46096e-06 -0 2.46096e-06)
(2.46094e-06 -1.46181e-19 -0 2.46094e-06 -0 2.46094e-06)
(2.4609e-06 -5.60792e-20 -0 2.4609e-06 -0 2.4609e-06)
(2.46087e-06 -1.16105e-19 -0 2.46087e-06 -0 2.46087e-06)
(2.46084e-06 -7.0367e-20 -0 2.46084e-06 -0 2.46084e-06)
(2.46082e-06 -7.8536e-20 -0 2.46082e-06 -0 2.46082e-06)
(2.4608e-06 -6.67469e-20 -0 2.4608e-06 -0 2.4608e-06)
(2.46078e-06 -9.02412e-20 -0 2.46078e-06 -0 2.46078e-06)
(2.46076e-06 -4.89797e-20 -0 2.46076e-06 -0 2.46076e-06)
(2.46074e-06 -6.63691e-20 -0 2.46074e-06 -0 2.46074e-06)
(2.46073e-06 -7.84463e-20 -0 2.46073e-06 -0 2.46073e-06)
(2.46072e-06 -1.15106e-20 -0 2.46072e-06 -0 2.46072e-06)
(2.46071e-06 -9.69124e-21 -0 2.46071e-06 -0 2.46071e-06)
(2.46071e-06 -4.53247e-20 -0 2.46071e-06 -0 2.46071e-06)
(2.46071e-06 7.95119e-21 -0 2.46071e-06 -0 2.46071e-06)
(2.4607e-06 -2.18064e-20 -0 2.4607e-06 -0 2.4607e-06)
(2.53085e-06 -6.39647e-18 -0 2.53085e-06 -0 2.53085e-06)
(2.53085e-06 6.75794e-18 -0 2.53085e-06 -0 2.53085e-06)
(2.53077e-06 -1.31068e-18 -0 2.53077e-06 -0 2.53077e-06)
(2.53075e-06 4.17745e-19 -0 2.53075e-06 -0 2.53075e-06)
(2.53069e-06 3.94612e-20 -0 2.53069e-06 -0 2.53069e-06)
(2.53066e-06 6.93624e-20 -0 2.53066e-06 -0 2.53066e-06)
(2.53062e-06 1.7984e-20 -0 2.53062e-06 -0 2.53062e-06)
(2.5306e-06 2.32569e-20 -0 2.5306e-06 -0 2.5306e-06)
(2.53056e-06 -9.93427e-22 -0 2.53056e-06 -0 2.53056e-06)
(2.53054e-06 -4.17252e-20 -0 2.53054e-06 -0 2.53054e-06)
(2.53051e-06 -4.43302e-20 -0 2.53051e-06 -0 2.53051e-06)
(2.5305e-06 -5.13614e-20 -0 2.5305e-06 -0 2.5305e-06)
(2.53048e-06 -6.26471e-20 -0 2.53048e-06 -0 2.53048e-06)
(2.53046e-06 -3.49452e-20 -0 2.53046e-06 -0 2.53046e-06)
(2.53045e-06 -4.57446e-20 -0 2.53045e-06 -0 2.53045e-06)
(2.53044e-06 -7.86284e-20 -0 2.53044e-06 -0 2.53044e-06)
(2.53043e-06 -9.6724e-20 -0 2.53043e-06 -0 2.53043e-06)
(2.53043e-06 -2.63596e-21 -0 2.53043e-06 -0 2.53043e-06)
(2.53042e-06 7.32953e-21 -0 2.53042e-06 -0 2.53042e-06)
(2.53042e-06 -4.31125e-20 -0 2.53042e-06 -0 2.53042e-06)
(2.58975e-06 1.18967e-18 -0 2.58975e-06 -0 2.58975e-06)
(2.58975e-06 -1.477e-18 -0 2.58975e-06 -0 2.58975e-06)
(2.58967e-06 2.29114e-19 -0 2.58967e-06 -0 2.58967e-06)
(2.58965e-06 -1.31233e-19 -0 2.58965e-06 -0 2.58965e-06)
(2.58959e-06 -9.49456e-20 -0 2.58959e-06 -0 2.58959e-06)
(2.58956e-06 -6.815e-20 -0 2.58956e-06 -0 2.58956e-06)
(2.58951e-06 -4.48886e-20 -0 2.58951e-06 -0 2.58951e-06)
(2.5895e-06 -3.48428e-20 -0 2.5895e-06 -0 2.5895e-06)
(2.58945e-06 -5.7554e-20 -0 2.58945e-06 -0 2.58945e-06)
(2.58944e-06 -3.4176e-20 -0 2.58944e-06 -0 2.58944e-06)
(2.5894e-06 -6.87948e-21 -0 2.5894e-06 -0 2.5894e-06)
(2.58939e-06 2.27463e-20 -0 2.58939e-06 -0 2.58939e-06)
(2.58936e-06 4.96159e-20 -0 2.58936e-06 -0 2.58936e-06)
(2.58935e-06 8.20245e-20 -0 2.58935e-06 -0 2.58935e-06)
(2.58933e-06 6.32307e-20 -0 2.58933e-06 -0 2.58933e-06)
(2.58933e-06 -2.11058e-20 -0 2.58933e-06 -0 2.58933e-06)
(2.58931e-06 3.4511e-20 -0 2.58931e-06 -0 2.58931e-06)
(2.58931e-06 1.12807e-20 -0 2.58931e-06 -0 2.58931e-06)
(2.58931e-06 -1.97196e-20 -0 2.58931e-06 -0 2.58931e-06)
(2.58931e-06 -9.40222e-21 -0 2.58931e-06 -0 2.58931e-06)
(2.63291e-06 3.73121e-18 -0 2.63291e-06 -0 2.63291e-06)
(2.63292e-06 -5.05441e-18 -0 2.63292e-06 -0 2.63292e-06)
(2.63282e-06 8.98885e-19 -0 2.63282e-06 -0 2.63282e-06)
(2.63281e-06 -2.84989e-19 -0 2.63281e-06 -0 2.63281e-06)
(2.63274e-06 3.6022e-20 -0 2.63274e-06 -0 2.63274e-06)
(2.63272e-06 -4.55674e-22 -0 2.63272e-06 -0 2.63272e-06)
(2.63267e-06 8.7284e-21 -0 2.63267e-06 -0 2.63267e-06)
(2.63265e-06 -1.93574e-20 -0 2.63265e-06 -0 2.63265e-06)
(2.6326e-06 -1.01023e-20 -0 2.6326e-06 -0 2.6326e-06)
(2.63259e-06 -1.61013e-21 -0 2.63259e-06 -0 2.63259e-06)
(2.63255e-06 -1.30406e-20 -0 2.63255e-06 -0 2.63255e-06)
(2.63254e-06 3.07314e-20 -0 2.63254e-06 -0 2.63254e-06)
(2.63251e-06 5.20753e-21 -0 2.63251e-06 -0 2.63251e-06)
(2.6325e-06 -5.56864e-20 -0 2.6325e-06 -0 2.6325e-06)
(2.63248e-06 2.40102e-21 -0 2.63248e-06 -0 2.63248e-06)
(2.63247e-06 3.23952e-20 -0 2.63247e-06 -0 2.63247e-06)
(2.63246e-06 2.93402e-21 -0 2.63246e-06 -0 2.63246e-06)
(2.63246e-06 4.21096e-21 -0 2.63246e-06 -0 2.63246e-06)
(2.63245e-06 2.82818e-20 -0 2.63245e-06 -0 2.63245e-06)
(2.63245e-06 3.16259e-20 -0 2.63245e-06 -0 2.63245e-06)
(2.6618e-06 -8.37026e-18 -0 2.6618e-06 -0 2.6618e-06)
(2.6618e-06 9.55731e-18 -0 2.6618e-06 -0 2.6618e-06)
(2.66172e-06 -1.74336e-18 -0 2.66172e-06 -0 2.66172e-06)
(2.66169e-06 5.8683e-19 -0 2.66169e-06 -0 2.66169e-06)
(2.66163e-06 7.92941e-20 -0 2.66163e-06 -0 2.66163e-06)
(2.6616e-06 9.3462e-20 -0 2.6616e-06 -0 2.6616e-06)
(2.66155e-06 1.07478e-19 -0 2.66155e-06 -0 2.66155e-06)
(2.66153e-06 1.33212e-19 -0 2.66153e-06 -0 2.66153e-06)
(2.66149e-06 1.19916e-19 -0 2.66149e-06 -0 2.66149e-06)
(2.66146e-06 1.27918e-19 -0 2.66146e-06 -0 2.66146e-06)
(2.66143e-06 1.2551e-19 -0 2.66143e-06 -0 2.66143e-06)
(2.66142e-06 6.86569e-20 -0 2.66142e-06 -0 2.66142e-06)
(2.66139e-06 7.88809e-20 -0 2.66139e-06 -0 2.66139e-06)
(2.66138e-06 2.29702e-20 -0 2.66138e-06 -0 2.66138e-06)
(2.66136e-06 -1.6098e-21 -0 2.66136e-06 -0 2.66136e-06)
(2.66135e-06 1.95572e-20 -0 2.66135e-06 -0 2.66135e-06)
(2.66134e-06 5.91066e-20 -0 2.66134e-06 -0 2.66134e-06)
(2.66133e-06 6.13392e-20 -0 2.66133e-06 -0 2.66133e-06)
(2.66133e-06 -1.87693e-21 -0 2.66133e-06 -0 2.66133e-06)
(2.66133e-06 -1.3757e-20 -0 2.66133e-06 -0 2.66133e-06)
(2.6803e-06 5.44421e-18 -0 2.6803e-06 -0 2.6803e-06)
(2.6803e-06 -4.70102e-18 -0 2.6803e-06 -0 2.6803e-06)
(2.68022e-06 1.16358e-18 -0 2.68022e-06 -0 2.68022e-06)
(2.68019e-06 -1.76143e-19 -0 2.68019e-06 -0 2.68019e-06)
(2.68013e-06 6.64731e-20 -0 2.68013e-06 -0 2.68013e-06)
(2.68009e-06 4.27146e-20 -0 2.68009e-06 -0 2.68009e-06)
(2.68005e-06 -6.29254e-21 -0 2.68005e-06 -0 2.68005e-06)
(2.68002e-06 2.19426e-21 -0 2.68002e-06 -0 2.68002e-06)
(2.67999e-06 -3.42119e-20 -0 2.67999e-06 -0 2.67999e-06)
(2.67996e-06 -2.59047e-20 -0 2.67996e-06 -0 2.67996e-06)
(2.67993e-06 -7.70428e-20 -0 2.67993e-06 -0 2.67993e-06)
(2.67991e-06 -2.40275e-21 -0 2.67991e-06 -0 2.67991e-06)
(2.67989e-06 -7.6487e-20 -0 2.67989e-06 -0 2.67989e-06)
(2.67987e-06 5.26568e-20 -0 2.67987e-06 -0 2.67987e-06)
(2.67985e-06 9.85305e-22 -0 2.67985e-06 -0 2.67985e-06)
(2.67984e-06 7.64492e-21 -0 2.67984e-06 -0 2.67984e-06)
(2.67983e-06 6.65492e-21 -0 2.67983e-06 -0 2.67983e-06)
(2.67983e-06 -6.40228e-20 -0 2.67983e-06 -0 2.67983e-06)
(2.67982e-06 -6.0396e-21 -0 2.67982e-06 -0 2.67982e-06)
(2.67982e-06 4.08513e-20 -0 2.67982e-06 -0 2.67982e-06)
(2.69226e-06 3.52213e-18 -0 2.69226e-06 -0 2.69226e-06)
(2.69226e-06 -4.45595e-18 -0 2.69226e-06 -0 2.69226e-06)
(2.69217e-06 7.72934e-19 -0 2.69217e-06 -0 2.69217e-06)
(2.69214e-06 -3.16472e-19 -0 2.69214e-06 -0 2.69214e-06)
(2.69208e-06 -1.03607e-19 -0 2.69208e-06 -0 2.69208e-06)
(2.69206e-06 -3.31516e-20 -0 2.69206e-06 -0 2.69206e-06)
(2.692e-06 -8.99401e-20 -0 2.692e-06 -0 2.692e-06)
(2.69198e-06 -1.16476e-19 -0 2.69198e-06 -0 2.69198e-06)
(2.69193e-06 -1.18433e-19 -0 2.69193e-06 -0 2.69193e-06)
(2.69192e-06 -1.15047e-19 -0 2.69192e-06 -0 2.69192e-06)
(2.69188e-06 -8.4242e-20 -0 2.69188e-06 -0 2.69188e-06)
(2.69187e-06 -1.7209e-19 -0 2.69187e-06 -0 2.69187e-06)
(2.69183e-06 -7.76349e-20 -0 2.69183e-06 -0 2.69183e-06)
(2.69183e-06 -8.54378e-20 -0 2.69183e-06 -0 2.69183e-06)
(2.6918e-06 -2.74434e-20 -0 2.6918e-06 -0 2.6918e-06)
(2.6918e-06 -1.92634e-20 -0 2.6918e-06 -0 2.6918e-06)
(2.69178e-06 -8.66865e-20 -0 2.69178e-06 -0 2.69178e-06)
(2.69178e-06 -3.69897e-20 -0 2.69178e-06 -0 2.69178e-06)
(2.69178e-06 -3.00034e-20 -0 2.69178e-06 -0 2.69178e-06)
(2.69178e-06 1.02351e-21 -0 2.69178e-06 -0 2.69178e-06)
(2.70055e-06 -8.20736e-18 -0 2.70055e-06 -0 2.70055e-06)
(2.70056e-06 9.2004e-18 -0 2.70056e-06 -0 2.70056e-06)
(2.70045e-06 -2.06811e-18 -0 2.70045e-06 -0 2.70045e-06)
(2.70044e-06 3.78274e-19 -0 2.70044e-06 -0 2.70044e-06)
(2.70037e-06 -1.19695e-19 -0 2.70037e-06 -0 2.70037e-06)
(2.70035e-06 -8.37046e-20 -0 2.70035e-06 -0 2.70035e-06)
(2.70029e-06 -4.23565e-20 -0 2.70029e-06 -0 2.70029e-06)
(2.70028e-06 -1.56646e-20 -0 2.70028e-06 -0 2.70028e-06)
(2.70022e-06 1.07745e-19 -0 2.70022e-06 -0 2.70022e-06)
(2.70021e-06 5.05639e-20 -0 2.70021e-06 -0 2.70021e-06)
(2.70017e-06 4.19704e-20 -0 2.70017e-06 -0 2.70017e-06)
(2.70016e-06 5.19911e-20 -0 2.70016e-06 -0 2.70016e-06)
(2.70012e-06 3.62148e-20 -0 2.70012e-06 -0 2.70012e-06)
(2.70012e-06 1.48495e-20 -0 2.70012e-06 -0 2.70012e-06)
(2.70009e-06 -1.42203e-20 -0 2.70009e-06 -0 2.70009e-06)
(2.70009e-06 2.98171e-20 -0 2.70009e-06 -0 2.70009e-06)
(2.70007e-06 1.68882e-20 -0 2.70007e-06 -0 2.70007e-06)
(2.70007e-06 2.18598e-20 -0 2.70007e-06 -0 2.70007e-06)
(2.70007e-06 1.17153e-20 -0 2.70007e-06 -0 2.70007e-06)
(2.70007e-06 -2.10464e-20 -0 2.70007e-06 -0 2.70007e-06)
(2.70705e-06 3.95368e-18 -0 2.70705e-06 -0 2.70705e-06)
(2.70705e-06 -7.27113e-18 -0 2.70705e-06 -0 2.70705e-06)
(2.70696e-06 1.29723e-18 -0 2.70696e-06 -0 2.70696e-06)
(2.70693e-06 -3.60475e-19 -0 2.70693e-06 -0 2.70693e-06)
(2.70688e-06 4.95759e-20 -0 2.70688e-06 -0 2.70688e-06)
(2.70684e-06 -1.73332e-20 -0 2.70684e-06 -0 2.70684e-06)
(2.7068e-06 -5.05538e-21 -0 2.7068e-06 -0 2.7068e-06)
(2.70676e-06 3.77613e-20 -0 2.70676e-06 -0 2.70676e-06)
(2.70673e-06 1.84856e-20 -0 2.70673e-06 -0 2.70673e-06)
(2.7067e-06 8.36903e-20 -0 2.7067e-06 -0 2.7067e-06)
(2.70667e-06 7.78707e-20 -0 2.70667e-06 -0 2.70667e-06)
(2.70665e-06 8.99147e-20 -0 2.70665e-06 -0 2.70665e-06)
(2.70662e-06 1.064e-19 -0 2.70662e-06 -0 2.70662e-06)
(2.70661e-06 7.85801e-20 -0 2.70661e-06 -0 2.70661e-06)
(2.70659e-06 6.85325e-20 -0 2.70659e-06 -0 2.70659e-06)
(2.70658e-06 2.09317e-21 -0 2.70658e-06 -0 2.70658e-06)
(2.70657e-06 8.24537e-20 -0 2.70657e-06 -0 2.70657e-06)
(2.70657e-06 -6.07464e-21 -0 2.70657e-06 -0 2.70657e-06)
(2.70656e-06 3.56935e-20 -0 2.70656e-06 -0 2.70656e-06)
(2.70656e-06 1.24214e-20 -0 2.70656e-06 -0 2.70656e-06)
(2.71287e-06 -1.81949e-18 -0 2.71287e-06 -0 2.71287e-06)
(2.71287e-06 4.68167e-18 -0 2.71287e-06 -0 2.71287e-06)
(2.71279e-06 -6.44612e-19 -0 2.71279e-06 -0 2.71279e-06)
(2.71276e-06 3.54425e-19 -0 2.71276e-06 -0 2.71276e-06)
(2.7127e-06 2.35079e-20 -0 2.7127e-06 -0 2.7127e-06)
(2.71266e-06 7.71925e-20 -0 2.71266e-06 -0 2.71266e-06)
(2.71262e-06 1.01739e-19 -0 2.71262e-06 -0 2.71262e-06)
(2.71258e-06 4.94312e-20 -0 2.71258e-06 -0 2.71258e-06)
(2.71255e-06 -2.55906e-20 -0 2.71255e-06 -0 2.71255e-06)
(2.71252e-06 1.16065e-20 -0 2.71252e-06 -0 2.71252e-06)
(2.7125e-06 6.87226e-20 -0 2.7125e-06 -0 2.7125e-06)
(2.71247e-06 -6.72681e-21 -0 2.71247e-06 -0 2.71247e-06)
(2.71245e-06 9.23902e-20 -0 2.71245e-06 -0 2.71245e-06)
(2.71243e-06 4.54286e-20 -0 2.71243e-06 -0 2.71243e-06)
(2.71242e-06 5.3545e-20 -0 2.71242e-06 -0 2.71242e-06)
(2.7124e-06 9.26431e-20 -0 2.7124e-06 -0 2.7124e-06)
(2.71239e-06 1.82024e-20 -0 2.71239e-06 -0 2.71239e-06)
(2.71239e-06 1.41707e-21 -0 2.71239e-06 -0 2.71239e-06)
(2.71238e-06 4.7514e-20 -0 2.71238e-06 -0 2.71238e-06)
(2.71238e-06 4.96452e-20 -0 2.71238e-06 -0 2.71238e-06)
(2.71867e-06 3.00357e-18 -0 2.71867e-06 -0 2.71867e-06)
(2.71867e-06 -1.45042e-18 -0 2.71867e-06 -0 2.71867e-06)
(2.71859e-06 5.16338e-19 -0 2.71859e-06 -0 2.71859e-06)
(2.71855e-06 -3.1351e-20 -0 2.71855e-06 -0 2.71855e-06)
(2.71849e-06 1.60031e-19 -0 2.71849e-06 -0 2.71849e-06)
(2.71847e-06 1.47971e-20 -0 2.71847e-06 -0 2.71847e-06)
(2.71841e-06 -8.6848e-21 -0 2.71841e-06 -0 2.71841e-06)
(2.71839e-06 4.92563e-20 -0 2.71839e-06 -0 2.71839e-06)
(2.71835e-06 6.06939e-20 -0 2.71835e-06 -0 2.71835e-06)
(2.71832e-06 -1.82683e-20 -0 2.71832e-06 -0 2.71832e-06)
(2.71829e-06 -8.02083e-20 -0 2.71829e-06 -0 2.71829e-06)
(2.71827e-06 -9.7757e-20 -0 2.71827e-06 -0 2.71827e-06)
(2.71824e-06 -8.75716e-20 -0 2.71824e-06 -0 2.71824e-06)
(2.71823e-06 -1.26535e-19 -0 2.71823e-06 -0 2.71823e-06)
(2.71821e-06 -1.19187e-19 -0 2.71821e-06 -0 2.71821e-06)
(2.7182e-06 -9.58014e-20 -0 2.7182e-06 -0 2.7182e-06)
(2.71819e-06 -1.10083e-19 -0 2.71819e-06 -0 2.71819e-06)
(2.71819e-06 -3.47849e-20 -0 2.71819e-06 -0 2.71819e-06)
(2.71818e-06 -1.98008e-20 -0 2.71818e-06 -0 2.71818e-06)
(2.71818e-06 -4.09776e-21 -0 2.71818e-06 -0 2.71818e-06)
(2.72481e-06 1.23089e-18 -0 2.72481e-06 -0 2.72481e-06)
(2.72481e-06 -4.46559e-18 -0 2.72481e-06 -0 2.72481e-06)
(2.72472e-06 5.7581e-19 -0 2.72472e-06 -0 2.72472e-06)
(2.72469e-06 -2.951e-19 -0 2.72469e-06 -0 2.72469e-06)
(2.72463e-06 -9.21368e-20 -0 2.72463e-06 -0 2.72463e-06)
(2.7246e-06 1.32252e-22 -0 2.7246e-06 -0 2.7246e-06)
(2.72455e-06 1.34912e-20 -0 2.72455e-06 -0 2.72455e-06)
(2.72451e-06 -2.2452e-21 -0 2.72451e-06 -0 2.72451e-06)
(2.72448e-06 -7.42939e-21 -0 2.72448e-06 -0 2.72448e-06)
(2.72445e-06 -6.69446e-20 -0 2.72445e-06 -0 2.72445e-06)
(2.72442e-06 -6.8296e-20 -0 2.72442e-06 -0 2.72442e-06)
(2.7244e-06 2.29012e-20 -0 2.7244e-06 -0 2.7244e-06)
(2.72438e-06 -1.00622e-19 -0 2.72438e-06 -0 2.72438e-06)
(2.72436e-06 -3.81153e-20 -0 2.72436e-06 -0 2.72436e-06)
(2.72435e-06 -1.2246e-20 -0 2.72435e-06 -0 2.72435e-06)
(2.72433e-06 -6.47884e-20 -0 2.72433e-06 -0 2.72433e-06)
(2.72432e-06 -3.01014e-20 -0 2.72432e-06 -0 2.72432e-06)
(2.72432e-06 -1.5872e-20 -0 2.72432e-06 -0 2.72432e-06)
(2.72431e-06 -1.11471e-19 -0 2.72431e-06 -0 2.72431e-06)
(2.72431e-06 -5.54984e-20 -0 2.72431e-06 -0 2.72431e-06)
(2.73143e-06 -8.54737e-18 -0 2.73143e-06 -0 2.73143e-06)
(2.73143e-06 1.06237e-17 -0 2.73143e-06 -0 2.73143e-06)
(2.73134e-06 -2.0953e-18 -0 2.73134e-06 -0 2.73134e-06)
(2.73131e-06 4.81695e-19 -0 2.73131e-06 -0 2.73131e-06)
(2.73125e-06 -1.16567e-19 -0 2.73125e-06 -0 2.73125e-06)
(2.73121e-06 -5.56376e-20 -0 2.73121e-06 -0 2.73121e-06)
(2.73117e-06 -3.55248e-20 -0 2.73117e-06 -0 2.73117e-06)
(2.73113e-06 -9.94406e-20 -0 2.73113e-06 -0 2.73113e-06)
(2.7311e-06 -6.28756e-20 -0 2.7311e-06 -0 2.7311e-06)
(2.73107e-06 1.33008e-21 -0 2.73107e-06 -0 2.73107e-06)
(2.73104e-06 8.61838e-21 -0 2.73104e-06 -0 2.73104e-06)
(2.73102e-06 1.9295e-20 -0 2.73102e-06 -0 2.73102e-06)
(2.73099e-06 5.0993e-20 -0 2.73099e-06 -0 2.73099e-06)
(2.73098e-06 4.91599e-20 -0 2.73098e-06 -0 2.73098e-06)
(2.73096e-06 4.88785e-20 -0 2.73096e-06 -0 2.73096e-06)
(2.73095e-06 4.46548e-20 -0 2.73095e-06 -0 2.73095e-06)
(2.73094e-06 5.65103e-20 -0 2.73094e-06 -0 2.73094e-06)
(2.73093e-06 5.58339e-20 -0 2.73093e-06 -0 2.73093e-06)
(2.73093e-06 4.03551e-20 -0 2.73093e-06 -0 2.73093e-06)
(2.73093e-06 1.03717e-20 -0 2.73093e-06 -0 2.73093e-06)
(2.73846e-06 9.65727e-18 -0 2.73846e-06 -0 2.73846e-06)
(2.73847e-06 -9.37516e-18 -0 2.73847e-06 -0 2.73847e-06)
(2.73838e-06 1.99729e-18 -0 2.73838e-06 -0 2.73838e-06)
(2.73835e-06 -4.53878e-19 -0 2.73835e-06 -0 2.73835e-06)
(2.73828e-06 8.68607e-20 -0 2.73828e-06 -0 2.73828e-06)
(2.73826e-06 -5.10593e-20 -0 2.73826e-06 -0 2.73826e-06)
(2.7382e-06 -9.39986e-20 -0 2.7382e-06 -0 2.7382e-06)
(2.73818e-06 -6.77395e-20 -0 2.73818e-06 -0 2.73818e-06)
(2.73813e-06 -5.92396e-20 -0 2.73813e-06 -0 2.73813e-06)
(2.73811e-06 -1.42635e-20 -0 2.73811e-06 -0 2.73811e-06)
(2.73807e-06 1.16312e-20 -0 2.73807e-06 -0 2.73807e-06)
(2.73806e-06 8.14161e-21 -0 2.73806e-06 -0 2.73806e-06)
(2.73802e-06 4.70117e-20 -0 2.73802e-06 -0 2.73802e-06)
(2.73802e-06 7.45755e-20 -0 2.73802e-06 -0 2.73802e-06)
(2.73799e-06 5.49112e-20 -0 2.73799e-06 -0 2.73799e-06)
(2.73799e-06 4.17926e-20 -0 2.73799e-06 -0 2.73799e-06)
(2.73797e-06 1.19571e-20 -0 2.73797e-06 -0 2.73797e-06)
(2.73797e-06 -1.18311e-20 -0 2.73797e-06 -0 2.73797e-06)
(2.73797e-06 1.82501e-20 -0 2.73797e-06 -0 2.73797e-06)
(2.73796e-06 4.97105e-20 -0 2.73796e-06 -0 2.73796e-06)
(2.74559e-06 -6.31248e-19 -0 2.74559e-06 -0 2.74559e-06)
(2.74559e-06 -3.44373e-19 -0 2.74559e-06 -0 2.74559e-06)
(2.74549e-06 -1.31207e-19 -0 2.74549e-06 -0 2.74549e-06)
(2.74547e-06 3.12273e-20 -0 2.74547e-06 -0 2.74547e-06)
(2.7454e-06 -1.72411e-21 -0 2.7454e-06 -0 2.7454e-06)
(2.74538e-06 2.52429e-20 -0 2.74538e-06 -0 2.74538e-06)
(2.74532e-06 1.01736e-19 -0 2.74532e-06 -0 2.74532e-06)
(2.7453e-06 6.34665e-20 -0 2.7453e-06 -0 2.7453e-06)
(2.74525e-06 3.78904e-20 -0 2.74525e-06 -0 2.74525e-06)
(2.74524e-06 7.16261e-21 -0 2.74524e-06 -0 2.74524e-06)
(2.74519e-06 9.82685e-22 -0 2.74519e-06 -0 2.74519e-06)
(2.74518e-06 -2.89241e-21 -0 2.74518e-06 -0 2.74518e-06)
(2.74515e-06 1.16546e-20 -0 2.74515e-06 -0 2.74515e-06)
(2.74514e-06 -1.0424e-20 -0 2.74514e-06 -0 2.74514e-06)
(2.74512e-06 1.16052e-21 -0 2.74512e-06 -0 2.74512e-06)
(2.74511e-06 -1.46561e-20 -0 2.74511e-06 -0 2.74511e-06)
(2.74509e-06 5.21683e-20 -0 2.74509e-06 -0 2.74509e-06)
(2.74509e-06 -7.68333e-21 -0 2.74509e-06 -0 2.74509e-06)
(2.74509e-06 -6.59246e-21 -0 2.74509e-06 -0 2.74509e-06)
(2.74509e-06 1.37087e-20 -0 2.74509e-06 -0 2.74509e-06)
(2.75216e-06 -1.10245e-17 -0 2.75216e-06 -0 2.75216e-06)
(2.75216e-06 1.04212e-17 -0 2.75216e-06 -0 2.75216e-06)
(2.75207e-06 -1.97926e-18 -0 2.75207e-06 -0 2.75207e-06)
(2.75203e-06 4.58609e-19 -0 2.75203e-06 -0 2.75203e-06)
(2.75197e-06 -4.16424e-20 -0 2.75197e-06 -0 2.75197e-06)
(2.75194e-06 7.82817e-20 -0 2.75194e-06 -0 2.75194e-06)
(2.75189e-06 -2.33e-21 -0 2.75189e-06 -0 2.75189e-06)
(2.75186e-06 2.61918e-20 -0 2.75186e-06 -0 2.75186e-06)
(2.75182e-06 9.49967e-21 -0 2.75182e-06 -0 2.75182e-06)
(2.7518e-06 -9.75612e-21 -0 2.7518e-06 -0 2.7518e-06)
(2.75176e-06 -2.07916e-20 -0 2.75176e-06 -0 2.75176e-06)
(2.75174e-06 -9.7839e-21 -0 2.75174e-06 -0 2.75174e-06)
(2.75172e-06 8.73283e-21 -0 2.75172e-06 -0 2.75172e-06)
(2.7517e-06 -4.93292e-20 -0 2.7517e-06 -0 2.7517e-06)
(2.75168e-06 1.65684e-20 -0 2.75168e-06 -0 2.75168e-06)
(2.75167e-06 -4.77592e-21 -0 2.75167e-06 -0 2.75167e-06)
(2.75166e-06 -2.19095e-20 -0 2.75166e-06 -0 2.75166e-06)
(2.75166e-06 6.20499e-20 -0 2.75166e-06 -0 2.75166e-06)
(2.75165e-06 5.37169e-21 -0 2.75165e-06 -0 2.75165e-06)
(2.75165e-06 -8.58014e-22 -0 2.75165e-06 -0 2.75165e-06)
(2.75728e-06 6.18724e-18 -0 2.75728e-06 -0 2.75728e-06)
(2.75728e-06 -6.16884e-18 -0 2.75728e-06 -0 2.75728e-06)
(2.7572e-06 1.18757e-18 -0 2.7572e-06 -0 2.7572e-06)
(2.75717e-06 -3.60011e-19 -0 2.75717e-06 -0 2.75717e-06)
(2.7571e-06 -6.53654e-20 -0 2.7571e-06 -0 2.7571e-06)
(2.75708e-06 -1.22491e-19 -0 2.75708e-06 -0 2.75708e-06)
(2.75702e-06 -1.03294e-19 -0 2.75702e-06 -0 2.75702e-06)
(2.757e-06 -6.07878e-20 -0 2.757e-06 -0 2.757e-06)
(2.75695e-06 -7.89304e-20 -0 2.75695e-06 -0 2.75695e-06)
(2.75694e-06 -2.64229e-20 -0 2.75694e-06 -0 2.75694e-06)
(2.7569e-06 -7.46583e-20 -0 2.7569e-06 -0 2.7569e-06)
(2.75688e-06 -1.64986e-20 -0 2.75688e-06 -0 2.75688e-06)
(2.75685e-06 -8.33285e-20 -0 2.75685e-06 -0 2.75685e-06)
(2.75684e-06 -3.55814e-20 -0 2.75684e-06 -0 2.75684e-06)
(2.75682e-06 -6.6119e-20 -0 2.75682e-06 -0 2.75682e-06)
(2.75681e-06 -2.84418e-20 -0 2.75681e-06 -0 2.75681e-06)
(2.7568e-06 -8.34754e-20 -0 2.7568e-06 -0 2.7568e-06)
(2.75679e-06 -4.75994e-20 -0 2.75679e-06 -0 2.75679e-06)
(2.75679e-06 -5.99552e-20 -0 2.75679e-06 -0 2.75679e-06)
(2.75679e-06 -5.62293e-20 -0 2.75679e-06 -0 2.75679e-06)
(2.75964e-06 5.45915e-18 -0 2.75964e-06 -0 2.75964e-06)
(2.75964e-06 -5.49705e-18 -0 2.75964e-06 -0 2.75964e-06)
(2.75964e-06 1.20068e-18 -0 2.75964e-06 -0 2.75964e-06)
(2.75964e-06 -1.83146e-19 -0 2.75964e-06 -0 2.75964e-06)
(2.75964e-06 1.18693e-19 -0 2.75964e-06 -0 2.75964e-06)
(2.75964e-06 2.23749e-20 -0 2.75964e-06 -0 2.75964e-06)
(2.75963e-06 5.22793e-20 -0 2.75963e-06 -0 2.75963e-06)
(2.75964e-06 4.72578e-20 -0 2.75964e-06 -0 2.75964e-06)
(2.75963e-06 6.172e-20 -0 2.75963e-06 -0 2.75963e-06)
(2.75963e-06 7.22083e-21 -0 2.75963e-06 -0 2.75963e-06)
(2.75963e-06 7.94273e-20 -0 2.75963e-06 -0 2.75963e-06)
(2.75963e-06 5.15891e-20 -0 2.75963e-06 -0 2.75963e-06)
(2.75963e-06 2.98579e-20 -0 2.75963e-06 -0 2.75963e-06)
(2.75963e-06 2.31874e-20 -0 2.75963e-06 -0 2.75963e-06)
(2.75963e-06 -6.48681e-21 -0 2.75963e-06 -0 2.75963e-06)
(2.75963e-06 2.92157e-20 -0 2.75963e-06 -0 2.75963e-06)
(2.75963e-06 3.37617e-20 -0 2.75963e-06 -0 2.75963e-06)
(2.75963e-06 6.46518e-23 -0 2.75963e-06 -0 2.75963e-06)
(2.75963e-06 5.95885e-20 -0 2.75963e-06 -0 2.75963e-06)
(2.75963e-06 1.66171e-20 -0 2.75963e-06 -0 2.75963e-06)
)
;

boundaryField
{
    movingWall
    {
        type            kqRWallFunction;
        value           nonuniform List<symmTensor> 
20
(
(2.75964e-06 0 -0 2.75964e-06 -0 2.75964e-06)
(2.75964e-06 -0 -0 2.75964e-06 -0 2.75964e-06)
(2.75964e-06 0 -0 2.75964e-06 -0 2.75964e-06)
(2.75964e-06 0 -0 2.75964e-06 -0 2.75964e-06)
(2.75964e-06 0 -0 2.75964e-06 -0 2.75964e-06)
(2.75964e-06 0 -0 2.75964e-06 -0 2.75964e-06)
(2.75963e-06 0 -0 2.75963e-06 -0 2.75963e-06)
(2.75964e-06 0 -0 2.75964e-06 -0 2.75964e-06)
(2.75963e-06 0 -0 2.75963e-06 -0 2.75963e-06)
(2.75963e-06 0 -0 2.75963e-06 -0 2.75963e-06)
(2.75963e-06 0 -0 2.75963e-06 -0 2.75963e-06)
(2.75963e-06 0 -0 2.75963e-06 -0 2.75963e-06)
(2.75963e-06 0 -0 2.75963e-06 -0 2.75963e-06)
(2.75963e-06 0 -0 2.75963e-06 -0 2.75963e-06)
(2.75963e-06 0 -0 2.75963e-06 -0 2.75963e-06)
(2.75963e-06 0 -0 2.75963e-06 -0 2.75963e-06)
(2.75963e-06 0 -0 2.75963e-06 -0 2.75963e-06)
(2.75963e-06 0 -0 2.75963e-06 -0 2.75963e-06)
(2.75963e-06 0 -0 2.75963e-06 -0 2.75963e-06)
(2.75963e-06 0 -0 2.75963e-06 -0 2.75963e-06)
)
;
    }
    fixedWalls
    {
        type            kqRWallFunction;
        value           nonuniform List<symmTensor> 
60
(
(2.35311e-06 -0 -0 2.35311e-06 -0 2.35311e-06)
(2.39491e-06 -0 -0 2.39491e-06 -0 2.39491e-06)
(2.46111e-06 0 -0 2.46111e-06 -0 2.46111e-06)
(2.53085e-06 -0 -0 2.53085e-06 -0 2.53085e-06)
(2.58975e-06 0 -0 2.58975e-06 -0 2.58975e-06)
(2.63291e-06 0 -0 2.63291e-06 -0 2.63291e-06)
(2.6618e-06 -0 -0 2.6618e-06 -0 2.6618e-06)
(2.6803e-06 0 -0 2.6803e-06 -0 2.6803e-06)
(2.69226e-06 0 -0 2.69226e-06 -0 2.69226e-06)
(2.70055e-06 -0 -0 2.70055e-06 -0 2.70055e-06)
(2.70705e-06 0 -0 2.70705e-06 -0 2.70705e-06)
(2.71287e-06 -0 -0 2.71287e-06 -0 2.71287e-06)
(2.71867e-06 0 -0 2.71867e-06 -0 2.71867e-06)
(2.72481e-06 0 -0 2.72481e-06 -0 2.72481e-06)
(2.73143e-06 -0 -0 2.73143e-06 -0 2.73143e-06)
(2.73846e-06 0 -0 2.73846e-06 -0 2.73846e-06)
(2.74559e-06 0 -0 2.74559e-06 -0 2.74559e-06)
(2.75216e-06 -0 -0 2.75216e-06 -0 2.75216e-06)
(2.75728e-06 0 -0 2.75728e-06 -0 2.75728e-06)
(2.75964e-06 0 -0 2.75964e-06 -0 2.75964e-06)
(2.3531e-06 0 -0 2.3531e-06 -0 2.3531e-06)
(2.39454e-06 0 -0 2.39454e-06 -0 2.39454e-06)
(2.4607e-06 -0 -0 2.4607e-06 -0 2.4607e-06)
(2.53042e-06 -0 -0 2.53042e-06 -0 2.53042e-06)
(2.58931e-06 -0 -0 2.58931e-06 -0 2.58931e-06)
(2.63245e-06 0 -0 2.63245e-06 -0 2.63245e-06)
(2.66133e-06 0 -0 2.66133e-06 -0 2.66133e-06)
(2.67982e-06 0 -0 2.67982e-06 -0 2.67982e-06)
(2.69178e-06 -0 -0 2.69178e-06 -0 2.69178e-06)
(2.70007e-06 -0 -0 2.70007e-06 -0 2.70007e-06)
(2.70656e-06 0 -0 2.70656e-06 -0 2.70656e-06)
(2.71238e-06 0 -0 2.71238e-06 -0 2.71238e-06)
(2.71818e-06 0 -0 2.71818e-06 -0 2.71818e-06)
(2.72431e-06 -0 -0 2.72431e-06 -0 2.72431e-06)
(2.73093e-06 0 -0 2.73093e-06 -0 2.73093e-06)
(2.73796e-06 0 -0 2.73796e-06 -0 2.73796e-06)
(2.74509e-06 0 -0 2.74509e-06 -0 2.74509e-06)
(2.75165e-06 0 -0 2.75165e-06 -0 2.75165e-06)
(2.75679e-06 -0 -0 2.75679e-06 -0 2.75679e-06)
(2.75963e-06 0 -0 2.75963e-06 -0 2.75963e-06)
(2.35311e-06 -0 -0 2.35311e-06 -0 2.35311e-06)
(2.3531e-06 0 -0 2.3531e-06 -0 2.3531e-06)
(2.3531e-06 -0 -0 2.3531e-06 -0 2.3531e-06)
(2.3531e-06 0 -0 2.3531e-06 -0 2.3531e-06)
(2.3531e-06 -0 -0 2.3531e-06 -0 2.3531e-06)
(2.3531e-06 -0 -0 2.3531e-06 -0 2.3531e-06)
(2.3531e-06 -0 -0 2.3531e-06 -0 2.3531e-06)
(2.3531e-06 -0 -0 2.3531e-06 -0 2.3531e-06)
(2.3531e-06 -0 -0 2.3531e-06 -0 2.3531e-06)
(2.3531e-06 -0 -0 2.3531e-06 -0 2.3531e-06)
(2.3531e-06 -0 -0 2.3531e-06 -0 2.3531e-06)
(2.3531e-06 -0 -0 2.3531e-06 -0 2.3531e-06)
(2.3531e-06 -0 -0 2.3531e-06 -0 2.3531e-06)
(2.3531e-06 -0 -0 2.3531e-06 -0 2.3531e-06)
(2.3531e-06 -0 -0 2.3531e-06 -0 2.3531e-06)
(2.3531e-06 -0 -0 2.3531e-06 -0 2.3531e-06)
(2.3531e-06 -0 -0 2.3531e-06 -0 2.3531e-06)
(2.3531e-06 -0 -0 2.3531e-06 -0 2.3531e-06)
(2.3531e-06 -0 -0 2.3531e-06 -0 2.3531e-06)
(2.3531e-06 -0 -0 2.3531e-06 -0 2.3531e-06)
)
;
    }
    frontAndBack
    {
        type            empty;
    }
}


// ************************************************************************* //
