/*--------------------------------*- C++ -*----------------------------------*\
| =========                 |                                                 |
| \\      /  F ield         | OpenFOAM: The Open Source CFD Toolbox           |
|  \\    /   O peration     | Version:  2506                                  |
|   \\  /    A nd           | Website:  www.openfoam.com                      |
|    \\/     M anipulation  |                                                 |
\*---------------------------------------------------------------------------*/
FoamFile
{
    version     2.0;
    format      ascii;
    arch        "LSB;label=32;scalar=64";
    class       volScalarField;
    location    "8.5";
    object      turbulenceProperties:epsilon;
}
// * * * * * * * * * * * * * * * * * * * * * * * * * * * * * * * * * * * * * //

dimensions      [0 2 -3 0 0 0 0];

internalField   nonuniform List<scalar> 
400
(
1.0654e-06
1.0654e-06
1.0654e-06
1.0654e-06
1.0654e-06
1.0654e-06
1.0654e-06
1.0654e-06
1.0654e-06
1.0654e-06
1.0654e-06
1.0654e-06
1.0654e-06
1.0654e-06
1.0654e-06
1.0654e-06
1.0654e-06
1.0654e-06
1.0654e-06
1.0654e-06
1.09397e-06
1.08163e-06
1.08268e-06
1.08312e-06
1.08398e-06
1.08443e-06
1.08529e-06
1.08575e-06
1.08662e-06
1.08709e-06
1.08796e-06
1.08844e-06
1.08932e-06
1.0898e-06
1.09068e-06
1.09118e-06
1.09206e-06
1.09257e-06
1.09301e-06
1.09371e-06
1.1397e-06
1.12646e-06
1.1276e-06
1.12807e-06
1.12901e-06
1.1295e-06
1.13044e-06
1.13093e-06
1.13187e-06
1.13237e-06
1.13331e-06
1.13382e-06
1.13476e-06
1.13527e-06
1.13622e-06
1.13674e-06
1.13768e-06
1.13821e-06
1.13868e-06
1.13942e-06
1.18855e-06
1.17454e-06
1.17575e-06
1.17625e-06
1.17724e-06
1.17776e-06
1.17875e-06
1.17927e-06
1.18026e-06
1.18079e-06
1.18179e-06
1.18232e-06
1.18332e-06
1.18386e-06
1.18486e-06
1.18541e-06
1.18641e-06
1.18697e-06
1.18747e-06
1.18825e-06
1.23033e-06
1.21565e-06
1.21692e-06
1.21744e-06
1.21848e-06
1.21902e-06
1.22006e-06
1.2206e-06
1.22164e-06
1.2222e-06
1.22324e-06
1.2238e-06
1.22485e-06
1.22541e-06
1.22646e-06
1.22703e-06
1.22808e-06
1.22867e-06
1.22919e-06
1.23001e-06
1.26123e-06
1.24606e-06
1.24737e-06
1.24791e-06
1.24898e-06
1.24954e-06
1.25061e-06
1.25118e-06
1.25225e-06
1.25282e-06
1.2539e-06
1.25448e-06
1.25556e-06
1.25615e-06
1.25723e-06
1.25782e-06
1.25891e-06
1.25951e-06
1.26006e-06
1.2609e-06
1.28206e-06
1.26654e-06
1.26788e-06
1.26843e-06
1.26953e-06
1.2701e-06
1.27119e-06
1.27177e-06
1.27287e-06
1.27346e-06
1.27456e-06
1.27515e-06
1.27626e-06
1.27685e-06
1.27796e-06
1.27857e-06
1.27968e-06
1.2803e-06
1.28085e-06
1.28172e-06
1.29545e-06
1.27971e-06
1.28107e-06
1.28163e-06
1.28274e-06
1.28332e-06
1.28443e-06
1.28502e-06
1.28613e-06
1.28673e-06
1.28785e-06
1.28844e-06
1.28957e-06
1.29017e-06
1.2913e-06
1.29191e-06
1.29304e-06
1.29367e-06
1.29423e-06
1.2951e-06
1.30413e-06
1.28825e-06
1.28962e-06
1.29019e-06
1.29131e-06
1.29189e-06
1.29301e-06
1.29361e-06
1.29473e-06
1.29533e-06
1.29646e-06
1.29706e-06
1.29819e-06
1.2988e-06
1.29994e-06
1.30056e-06
1.3017e-06
1.30233e-06
1.3029e-06
1.30378e-06
1.31016e-06
1.29418e-06
1.29556e-06
1.29613e-06
1.29726e-06
1.29785e-06
1.29897e-06
1.29957e-06
1.3007e-06
1.3013e-06
1.30244e-06
1.30305e-06
1.30419e-06
1.3048e-06
1.30595e-06
1.30657e-06
1.30771e-06
1.30835e-06
1.30892e-06
1.30981e-06
1.3149e-06
1.29884e-06
1.30022e-06
1.30079e-06
1.30193e-06
1.30252e-06
1.30365e-06
1.30425e-06
1.30539e-06
1.30599e-06
1.30714e-06
1.30775e-06
1.30889e-06
1.30951e-06
1.31066e-06
1.31128e-06
1.31243e-06
1.31307e-06
1.31365e-06
1.31454e-06
1.31915e-06
1.30302e-06
1.30441e-06
1.30498e-06
1.30612e-06
1.30671e-06
1.30785e-06
1.30845e-06
1.3096e-06
1.3102e-06
1.31135e-06
1.31196e-06
1.31311e-06
1.31373e-06
1.31489e-06
1.31552e-06
1.31667e-06
1.31731e-06
1.31789e-06
1.31879e-06
1.32338e-06
1.30718e-06
1.30858e-06
1.30916e-06
1.3103e-06
1.3109e-06
1.31204e-06
1.31264e-06
1.31379e-06
1.3144e-06
1.31555e-06
1.31617e-06
1.31732e-06
1.31795e-06
1.31911e-06
1.31974e-06
1.3209e-06
1.32154e-06
1.32212e-06
1.32302e-06
1.32787e-06
1.31159e-06
1.313e-06
1.31358e-06
1.31473e-06
1.31532e-06
1.31647e-06
1.31708e-06
1.31823e-06
1.31884e-06
1.32e-06
1.32062e-06
1.32178e-06
1.3224e-06
1.32357e-06
1.3242e-06
1.32537e-06
1.32602e-06
1.3266e-06
1.3275e-06
1.33271e-06
1.31636e-06
1.31777e-06
1.31835e-06
1.31951e-06
1.32011e-06
1.32126e-06
1.32187e-06
1.32303e-06
1.32364e-06
1.32481e-06
1.32543e-06
1.3266e-06
1.32722e-06
1.32839e-06
1.32903e-06
1.3302e-06
1.33085e-06
1.33143e-06
1.33235e-06
1.33787e-06
1.32143e-06
1.32285e-06
1.32344e-06
1.3246e-06
1.3252e-06
1.32636e-06
1.32697e-06
1.32814e-06
1.32876e-06
1.32992e-06
1.33055e-06
1.33172e-06
1.33235e-06
1.33353e-06
1.33417e-06
1.33535e-06
1.336e-06
1.33659e-06
1.3375e-06
1.3431e-06
1.32658e-06
1.328e-06
1.32859e-06
1.32976e-06
1.33036e-06
1.33153e-06
1.33215e-06
1.33331e-06
1.33394e-06
1.33511e-06
1.33574e-06
1.33692e-06
1.33755e-06
1.33874e-06
1.33938e-06
1.34056e-06
1.34122e-06
1.34181e-06
1.34273e-06
1.34793e-06
1.33133e-06
1.33276e-06
1.33335e-06
1.33452e-06
1.33513e-06
1.3363e-06
1.33692e-06
1.3381e-06
1.33872e-06
1.3399e-06
1.34053e-06
1.34172e-06
1.34235e-06
1.34354e-06
1.34419e-06
1.34538e-06
1.34604e-06
1.34663e-06
1.34755e-06
1.3517e-06
1.33536e-06
1.33674e-06
1.33731e-06
1.33845e-06
1.33905e-06
1.34019e-06
1.3408e-06
1.34194e-06
1.34256e-06
1.34372e-06
1.34435e-06
1.34551e-06
1.34615e-06
1.34732e-06
1.34798e-06
1.34915e-06
1.34982e-06
1.35041e-06
1.35134e-06
1.35344e-06
1.35344e-06
1.35343e-06
1.35343e-06
1.35343e-06
1.35343e-06
1.35343e-06
1.35343e-06
1.35343e-06
1.35343e-06
1.35343e-06
1.35343e-06
1.35343e-06
1.35343e-06
1.35343e-06
1.35343e-06
1.35343e-06
1.35343e-06
1.35343e-06
1.35343e-06
)
;

boundaryField
{
    movingWall
    {
        type            epsilonWallFunction;
        blending        stepwise;
        value           nonuniform List<scalar> 
20
(
1.35344e-06
1.35344e-06
1.35343e-06
1.35343e-06
1.35343e-06
1.35343e-06
1.35343e-06
1.35343e-06
1.35343e-06
1.35343e-06
1.35343e-06
1.35343e-06
1.35343e-06
1.35343e-06
1.35343e-06
1.35343e-06
1.35343e-06
1.35343e-06
1.35343e-06
1.35343e-06
)
;
    }
    fixedWalls
    {
        type            epsilonWallFunction;
        blending        stepwise;
        value           nonuniform List<scalar> 
60
(
1.0654e-06
1.09397e-06
1.1397e-06
1.18855e-06
1.23033e-06
1.26123e-06
1.28206e-06
1.29545e-06
1.30413e-06
1.31016e-06
1.3149e-06
1.31915e-06
1.32338e-06
1.32787e-06
1.33271e-06
1.33787e-06
1.3431e-06
1.34793e-06
1.3517e-06
1.35344e-06
1.0654e-06
1.09371e-06
1.13942e-06
1.18825e-06
1.23001e-06
1.2609e-06
1.28172e-06
1.2951e-06
1.30378e-06
1.30981e-06
1.31454e-06
1.31879e-06
1.32302e-06
1.3275e-06
1.33235e-06
1.3375e-06
1.34273e-06
1.34755e-06
1.35134e-06
1.35343e-06
1.0654e-06
1.0654e-06
1.0654e-06
1.0654e-06
1.0654e-06
1.0654e-06
1.0654e-06
1.0654e-06
1.0654e-06
1.0654e-06
1.0654e-06
1.0654e-06
1.0654e-06
1.0654e-06
1.0654e-06
1.0654e-06
1.0654e-06
1.0654e-06
1.0654e-06
1.0654e-06
)
;
    }
    frontAndBack
    {
        type            empty;
    }
}


// ************************************************************************* //
