/*--------------------------------*- C++ -*----------------------------------*\
| =========                 |                                                 |
| \\      /  F ield         | OpenFOAM: The Open Source CFD Toolbox           |
|  \\    /   O peration     | Version:  2506                                  |
|   \\  /    A nd           | Website:  www.openfoam.com                      |
|    \\/     M anipulation  |                                                 |
\*---------------------------------------------------------------------------*/
FoamFile
{
    version     2.0;
    format      ascii;
    arch        "LSB;label=32;scalar=64";
    class       volScalarField;
    location    "8.5";
    object      Uy;
}
// * * * * * * * * * * * * * * * * * * * * * * * * * * * * * * * * * * * * * //

dimensions      [0 1 -1 0 0 0 0];

internalField   nonuniform List<scalar> 
400
(
1.18537e-13
-2.51926e-14
6.20886e-15
-1.07485e-15
4.72752e-16
8.96607e-17
1.20421e-16
7.52187e-17
7.09159e-17
-3.54199e-17
-1.17458e-16
-9.25402e-17
-2.96846e-17
5.06185e-17
9.833e-17
5.86745e-17
3.4845e-18
4.25935e-17
8.13482e-17
4.93547e-17
9.80161e-15
-1.59064e-15
6.75892e-16
-2.31073e-17
-4.34593e-17
-4.39523e-17
-4.39076e-17
-3.50821e-17
-2.15208e-17
-4.90312e-17
1.3327e-17
3.29755e-17
9.18882e-17
-2.37564e-17
-4.39225e-17
4.92485e-17
7.35961e-17
6.59745e-17
1.2008e-17
1.40957e-18
-8.62335e-14
1.8848e-14
-4.3169e-15
8.41743e-16
-3.5636e-16
-8.4016e-17
-9.42297e-17
-1.09183e-16
-1.07695e-16
-1.79491e-18
7.54289e-17
7.29892e-17
9.66838e-17
-1.58402e-17
-1.01988e-16
-1.0208e-16
4.7224e-18
-1.21604e-17
-1.1664e-16
-8.60003e-17
5.87217e-14
-1.25761e-14
2.94637e-15
-6.94333e-16
2.41877e-16
3.16632e-17
1.54057e-16
1.39248e-16
2.13615e-16
1.48289e-16
5.14582e-17
1.02025e-17
-2.23317e-17
3.981e-17
2.56701e-17
-8.42788e-17
-6.86443e-17
-1.24042e-17
-4.45138e-17
-7.95296e-17
-1.29157e-14
2.68064e-15
-7.79425e-16
8.5489e-17
-1.45043e-16
-1.46776e-16
-7.53606e-17
-1.4502e-17
-3.32034e-17
-3.87822e-17
3.37373e-18
2.31968e-17
6.94028e-17
1.17695e-16
1.42238e-16
8.86048e-17
6.19359e-17
4.74857e-17
-4.01524e-17
-4.50294e-17
-4.56022e-14
9.36842e-15
-2.09239e-15
5.67405e-16
-1.00834e-16
-2.41852e-17
-9.67773e-17
-1.0196e-16
-1.95262e-16
-1.18206e-17
9.01615e-17
1.04695e-16
8.65055e-17
5.81035e-17
4.28594e-17
3.65927e-17
2.35433e-17
1.02713e-17
-1.42519e-17
2.73709e-17
8.3732e-14
-1.7611e-14
4.24294e-15
-8.48873e-16
1.3866e-16
-1.95341e-16
-1.46725e-16
-6.35801e-17
2.74827e-17
2.27562e-16
2.47073e-16
1.96485e-16
1.78802e-16
3.66973e-17
-2.56859e-17
5.1041e-17
7.10227e-17
6.5776e-17
6.55726e-17
8.25379e-17
-4.03102e-14
8.9063e-15
-1.93832e-15
5.56489e-16
-1.15339e-16
-2.97162e-17
4.98958e-17
2.58519e-17
3.05093e-17
5.73342e-17
-1.13572e-17
-7.35992e-17
9.92951e-18
6.25246e-17
8.48879e-17
5.37758e-17
1.69735e-17
-5.39582e-18
4.44041e-17
4.83545e-17
-3.99264e-14
8.0898e-15
-2.17231e-15
2.13968e-16
-2.03407e-16
4.13932e-17
8.84281e-17
2.07066e-17
3.09835e-17
-1.85439e-17
-3.76573e-17
-8.73906e-17
-1.42774e-16
5.73793e-17
7.13896e-17
2.94651e-17
-2.8914e-17
-1.46351e-17
2.83547e-17
-1.92599e-17
8.30298e-14
-1.835e-14
3.75997e-15
-1.29019e-15
-1.02311e-16
-2.38636e-16
-1.79751e-16
-1.37059e-16
-4.18789e-17
-2.04087e-18
5.45684e-17
1.69811e-16
1.37804e-16
1.20947e-16
6.56467e-18
-2.43128e-17
1.37287e-17
9.71421e-17
9.10501e-17
-6.7286e-18
-6.92373e-14
1.41467e-14
-3.42767e-15
6.11275e-16
-2.6755e-16
-9.47829e-17
-1.15385e-16
-5.03628e-17
-1.76293e-16
-2.13014e-16
-9.98757e-17
1.8507e-16
1.91706e-16
5.9437e-17
4.01511e-17
-3.96427e-18
2.16485e-17
7.96904e-17
7.54194e-17
3.46542e-17
4.51289e-14
-9.23725e-15
2.02812e-15
-6.13403e-16
8.60399e-18
-6.29985e-18
1.44833e-16
1.84924e-16
-1.81943e-17
-1.32253e-16
-1.20258e-16
7.60386e-17
2.10027e-16
7.48978e-17
8.04935e-17
1.44424e-16
7.5603e-17
-1.6446e-17
6.3073e-17
1.05342e-16
-1.02983e-14
2.98558e-15
-6.1235e-16
9.72506e-17
-6.70527e-17
5.13211e-17
7.4378e-17
1.27468e-16
1.84402e-16
1.36681e-16
7.38239e-17
2.87259e-17
1.20572e-16
-1.34267e-17
-1.20105e-16
-4.6833e-17
-8.82309e-17
-1.59174e-16
-5.20342e-17
1.57989e-17
-4.47327e-14
8.6538e-15
-1.98138e-15
3.72284e-16
-2.1604e-16
-1.77165e-16
-2.17197e-16
-2.42681e-17
7.35258e-17
4.08875e-17
1.18813e-16
9.85702e-17
-8.24058e-17
-1.00737e-16
-1.80978e-17
7.10565e-18
1.06313e-17
1.50344e-18
-1.20383e-16
-9.87709e-17
9.53619e-14
-2.02341e-14
4.69454e-15
-8.72673e-16
2.19728e-16
-1.25501e-16
-1.07194e-16
-8.581e-17
-5.00979e-17
-7.71657e-17
-6.17542e-17
-1.52761e-16
-2.31081e-16
-5.85615e-17
1.50061e-16
5.3619e-17
2.81495e-17
9.79881e-17
7.82337e-17
1.32661e-17
-7.99313e-14
1.76193e-14
-4.04325e-15
1.03278e-15
-8.73843e-17
3.97767e-18
-1.83846e-16
-2.59064e-16
-1.339e-16
-1.18848e-17
-9.0629e-18
-1.13776e-16
-8.04188e-17
1.59236e-17
7.82208e-17
7.56612e-17
-1.80297e-17
-2.95193e-17
8.6094e-17
8.08438e-17
-4.85202e-15
-1.64869e-16
-2.33011e-16
-3.78578e-16
-2.33771e-16
-9.25063e-17
8.83011e-17
1.04103e-16
7.64265e-17
4.41183e-17
1.38197e-17
3.5521e-17
3.91368e-17
-6.6584e-17
-1.40546e-16
-7.67652e-17
-1.19054e-17
7.03157e-18
5.56268e-17
6.50013e-17
8.76546e-14
-1.84169e-14
3.97595e-15
-1.21749e-15
-1.11223e-17
-4.19697e-17
1.20505e-16
-2.1666e-17
-1.0784e-16
-1.04561e-16
-2.26659e-17
7.71214e-17
6.287e-17
7.05474e-19
-4.73712e-17
-1.44476e-16
-5.50161e-18
4.77726e-17
-8.13479e-18
5.93779e-19
-5.2136e-14
1.13648e-14
-2.69445e-15
5.10629e-16
-1.09048e-16
-5.21781e-18
-1.27689e-16
-1.90057e-16
-1.40271e-16
-4.39906e-17
9.02106e-17
6.57169e-17
-3.67282e-17
-1.89364e-17
3.44278e-18
1.77989e-17
-1.84925e-17
-6.35678e-17
-1.43105e-16
-7.95789e-17
-4.91531e-14
9.916e-15
-2.26497e-15
4.62735e-16
-1.15542e-16
-3.684e-17
-4.08586e-17
4.64466e-17
8.64974e-17
4.68786e-17
2.31258e-17
-1.08093e-16
-1.58581e-16
-9.90826e-17
-9.1029e-17
-4.21528e-17
-7.63825e-17
-6.74032e-17
-7.69499e-17
-4.82649e-17
)
;

boundaryField
{
    movingWall
    {
        type            calculated;
        value           uniform -0;
    }
    fixedWalls
    {
        type            calculated;
        value           uniform -0;
    }
    frontAndBack
    {
        type            empty;
    }
}


// ************************************************************************* //
