/*--------------------------------*- C++ -*----------------------------------*\
| =========                 |                                                 |
| \\      /  F ield         | OpenFOAM: The Open Source CFD Toolbox           |
|  \\    /   O peration     | Version:  2506                                  |
|   \\  /    A nd           | Website:  www.openfoam.com                      |
|    \\/     M anipulation  |                                                 |
\*---------------------------------------------------------------------------*/
FoamFile
{
    version     2.0;
    format      ascii;
    arch        "LSB;label=32;scalar=64";
    class       volVectorField;
    location    "8.5";
    object      vorticityField;
}
// * * * * * * * * * * * * * * * * * * * * * * * * * * * * * * * * * * * * * //

dimensions      [0 0 -1 0 0 0 0];

internalField   nonuniform List<vector> 
400
(
(0 -0 8.68389e-12)
(0 -0 -1.10702e-11)
(0 -0 2.46599e-12)
(0 -0 -5.46506e-13)
(0 -0 1.43556e-13)
(0 -0 1.8977e-14)
(0 -0 -1.4442e-15)
(0 -0 -4.95055e-15)
(0 -0 -3.81689e-14)
(0 -0 -1.88374e-14)
(0 -0 -5.71204e-15)
(0 -0 8.77735e-15)
(0 -0 1.43159e-14)
(0 -0 6.70116e-14)
(0 -0 5.50157e-14)
(0 -0 -9.48455e-15)
(0 -0 -1.6081e-15)
(0 -0 7.78637e-15)
(0 -0 6.76119e-16)
(0 -0 -1.30703e-14)
(0 -0 3.50503e-14)
(0 -0 -6.14416e-13)
(0 -0 1.56753e-13)
(0 -0 -7.19351e-14)
(0 -0 -2.08451e-15)
(0 -0 -4.48239e-17)
(0 -0 8.87023e-16)
(0 -0 5.64488e-14)
(0 -0 7.99203e-14)
(0 -0 5.76949e-14)
(0 -0 6.24108e-14)
(0 -0 8.91713e-14)
(0 -0 4.85369e-14)
(0 -0 1.3524e-14)
(0 -0 3.44055e-14)
(0 -0 6.5962e-14)
(0 -0 5.58827e-14)
(0 -0 4.80513e-14)
(0 -0 -6.45649e-15)
(0 -0 -1.34176e-15)
(0 -0 -3.83831e-12)
(0 -0 7.27009e-12)
(0 -0 -1.85483e-12)
(0 -0 2.87634e-13)
(0 -0 -2.00996e-13)
(0 -0 -8.22072e-14)
(0 -0 -5.67268e-14)
(0 -0 -1.09767e-13)
(0 -0 -4.34713e-14)
(0 -0 -3.58978e-14)
(0 -0 -4.67317e-14)
(0 -0 -7.91897e-14)
(0 -0 -6.30931e-14)
(0 -0 -1.01182e-13)
(0 -0 -8.99391e-14)
(0 -0 1.0671e-14)
(0 -0 8.99196e-15)
(0 -0 -6.63463e-14)
(0 -0 -7.38399e-15)
(0 -0 2.0264e-14)
(0 -0 3.36773e-12)
(0 -0 -5.03544e-12)
(0 -0 1.18818e-12)
(0 -0 -1.62029e-13)
(0 -0 1.8102e-13)
(0 -0 4.54281e-14)
(0 -0 3.78635e-14)
(0 -0 3.30609e-14)
(0 -0 9.0418e-16)
(0 -0 -7.04258e-14)
(0 -0 -6.80188e-14)
(0 -0 -6.15891e-14)
(0 -0 -5.12494e-14)
(0 -0 -2.23049e-14)
(0 -0 -6.6619e-14)
(0 -0 -9.07466e-14)
(0 -0 -7.41277e-14)
(0 -0 2.41305e-15)
(0 -0 -6.71254e-15)
(0 -0 -1.47007e-14)
(0 -0 -9.69299e-13)
(0 -0 1.10521e-12)
(0 -0 -3.13725e-13)
(0 -0 9.22814e-15)
(0 -0 -1.31647e-13)
(0 -0 -4.72419e-14)
(0 -0 -1.38777e-14)
(0 -0 -2.28893e-14)
(0 -0 -5.66381e-14)
(0 -0 -2.34473e-14)
(0 -0 6.1979e-15)
(0 -0 3.3708e-14)
(0 -0 6.36599e-14)
(0 -0 8.85987e-14)
(0 -0 5.13011e-14)
(0 -0 -3.51353e-14)
(0 -0 2.29931e-14)
(0 -0 -1.02088e-14)
(0 -0 -3.63566e-14)
(0 -0 8.51818e-15)
(0 -0 -3.89443e-12)
(0 -0 4.21545e-12)
(0 -0 -9.61416e-13)
(0 -0 1.44945e-13)
(0 -0 -8.6264e-14)
(0 -0 4.05666e-16)
(0 -0 -7.77749e-15)
(0 -0 -3.69536e-14)
(0 -0 9.01396e-15)
(0 -0 5.56474e-14)
(0 -0 1.16516e-14)
(0 -0 2.67395e-14)
(0 -0 -4.65914e-15)
(0 -0 -5.85747e-14)
(0 -0 -2.15108e-15)
(0 -0 2.51734e-14)
(0 -0 -2.63214e-15)
(0 -0 -3.77952e-15)
(0 -0 2.8815e-14)
(0 -0 2.57932e-14)
(0 -0 5.74474e-12)
(0 -0 -7.46102e-12)
(0 -0 1.81174e-12)
(0 -0 -3.02007e-13)
(0 -0 2.00878e-13)
(0 -0 2.56716e-14)
(0 -0 1.21596e-13)
(0 -0 1.52946e-13)
(0 -0 1.64639e-13)
(0 -0 1.57484e-13)
(0 -0 1.05313e-13)
(0 -0 4.7383e-14)
(0 -0 3.82313e-14)
(0 -0 -2.04488e-14)
(0 -0 1.43437e-15)
(0 -0 3.67759e-14)
(0 -0 5.56836e-14)
(0 -0 5.36651e-14)
(0 -0 1.67619e-15)
(0 -0 -4.19161e-14)
(0 -0 -1.43277e-12)
(0 -0 3.53903e-12)
(0 -0 -6.45246e-13)
(0 -0 2.09403e-13)
(0 -0 -5.86205e-14)
(0 -0 7.07336e-14)
(0 -0 5.55681e-15)
(0 -0 -1.93864e-15)
(0 -0 -2.39568e-14)
(0 -0 -3.12917e-14)
(0 -0 -9.44085e-14)
(0 -0 2.12868e-15)
(0 -0 -4.05977e-14)
(0 -0 6.1706e-14)
(0 -0 -8.74883e-16)
(0 -0 -6.79144e-15)
(0 -0 -5.91716e-15)
(0 -0 -5.14671e-14)
(0 -0 5.37503e-15)
(0 -0 1.78292e-14)
(0 -0 -3.23787e-12)
(0 -0 3.63989e-12)
(0 -0 -8.96003e-13)
(0 -0 1.15575e-13)
(0 -0 -1.25678e-13)
(0 -0 2.91835e-14)
(0 -0 -8.33838e-14)
(0 -0 -1.14165e-13)
(0 -0 -1.12345e-13)
(0 -0 -1.15284e-13)
(0 -0 -8.81998e-14)
(0 -0 -1.73142e-13)
(0 -0 -3.97331e-14)
(0 -0 -3.27938e-14)
(0 -0 -2.98965e-14)
(0 -0 -3.71354e-14)
(0 -0 -8.57252e-14)
(0 -0 -2.13782e-14)
(0 -0 -2.75675e-14)
(0 -0 -9.09483e-16)
(0 -0 5.65483e-12)
(0 -0 -7.79146e-12)
(0 -0 1.59756e-12)
(0 -0 -4.40438e-13)
(0 -0 1.05155e-13)
(0 -0 -8.90592e-14)
(0 -0 -1.69474e-14)
(0 -0 1.37873e-14)
(0 -0 1.21922e-13)
(0 -0 6.38548e-14)
(0 -0 7.13953e-14)
(0 -0 6.25337e-14)
(0 -0 2.22186e-14)
(0 -0 -1.3124e-14)
(0 -0 -4.1631e-14)
(0 -0 2.78215e-14)
(0 -0 3.92505e-14)
(0 -0 3.48372e-14)
(0 -0 -1.03871e-14)
(0 -0 -3.55372e-14)
(0 -0 -7.51483e-12)
(0 -0 6.7978e-12)
(0 -0 -1.57038e-12)
(0 -0 3.16012e-13)
(0 -0 -9.77109e-14)
(0 -0 1.52164e-14)
(0 -0 4.44201e-15)
(0 -0 2.10143e-14)
(0 -0 -1.62651e-14)
(0 -0 8.89569e-14)
(0 -0 1.48229e-13)
(0 -0 1.37578e-13)
(0 -0 6.87519e-14)
(0 -0 3.90546e-14)
(0 -0 4.787e-14)
(0 -0 -1.85026e-15)
(0 -0 8.96806e-14)
(0 -0 5.37709e-15)
(0 -0 2.26014e-14)
(0 -0 -1.10074e-14)
(0 -0 5.56783e-12)
(0 -0 -4.52692e-12)
(0 -0 1.16054e-12)
(0 -0 -9.35313e-14)
(0 -0 1.42025e-13)
(0 -0 9.49381e-14)
(0 -0 1.27543e-13)
(0 -0 1.08023e-14)
(0 -0 -8.59278e-14)
(0 -0 -1.02064e-14)
(0 -0 1.02144e-13)
(0 -0 6.01336e-14)
(0 -0 8.12011e-14)
(0 -0 1.41517e-14)
(0 -0 6.11628e-14)
(0 -0 8.08261e-14)
(0 -0 -1.6087e-14)
(0 -0 -1.253e-15)
(0 -0 6.6389e-14)
(0 -0 1.02635e-14)
(0 -0 1.19319e-12)
(0 -0 6.70437e-13)
(0 -0 -1.26203e-13)
(0 -0 8.16348e-14)
(0 -0 1.30932e-13)
(0 -0 4.12481e-14)
(0 -0 7.61467e-15)
(0 -0 6.52125e-14)
(0 -0 5.51314e-14)
(0 -0 -3.81629e-14)
(0 -0 -9.21107e-14)
(0 -0 -7.66403e-14)
(0 -0 -8.55304e-14)
(0 -0 -1.59593e-13)
(0 -0 -1.11761e-13)
(0 -0 -7.81277e-14)
(0 -0 -1.19654e-13)
(0 -0 -2.34854e-14)
(0 -0 1.74973e-14)
(0 -0 3.62353e-15)
(0 -0 -6.12866e-12)
(0 -0 4.6546e-12)
(0 -0 -1.15341e-12)
(0 -0 9.52192e-14)
(0 -0 -1.9047e-13)
(0 -0 -1.15719e-16)
(0 -0 4.23947e-14)
(0 -0 5.61774e-14)
(0 -0 6.51556e-15)
(0 -0 -4.96814e-14)
(0 -0 -4.84418e-14)
(0 -0 -2.01219e-14)
(0 -0 -1.28351e-13)
(0 -0 -2.06743e-14)
(0 -0 1.07843e-14)
(0 -0 -5.13372e-14)
(0 -0 -2.76653e-14)
(0 -0 -4.02065e-14)
(0 -0 -1.18448e-13)
(0 -0 -5.18964e-15)
(0 -0 7.48567e-12)
(0 -0 -8.877e-12)
(0 -0 2.04456e-12)
(0 -0 -4.74586e-13)
(0 -0 4.76122e-14)
(0 -0 -1.14007e-13)
(0 -0 -2.3136e-14)
(0 -0 -7.56055e-14)
(0 -0 -5.33457e-14)
(0 -0 -1.16562e-15)
(0 -0 -7.55956e-15)
(0 -0 -1.69327e-14)
(0 -0 6.36301e-14)
(0 -0 1.19429e-13)
(0 -0 6.54282e-14)
(0 -0 1.49139e-14)
(0 -0 5.8647e-14)
(0 -0 5.92185e-14)
(0 -0 1.86329e-14)
(0 -0 -9.14998e-15)
(0 -0 -3.95438e-12)
(0 -0 7.0196e-12)
(0 -0 -1.57734e-12)
(0 -0 3.95586e-13)
(0 -0 -1.29985e-13)
(0 -0 -6.38563e-14)
(0 -0 -1.34724e-13)
(0 -0 -4.92155e-14)
(0 -0 -2.38718e-15)
(0 -0 1.24837e-14)
(0 -0 -1.01891e-14)
(0 -0 -7.13559e-15)
(0 -0 6.718e-14)
(0 -0 9.71791e-14)
(0 -0 6.01839e-14)
(0 -0 1.748e-14)
(0 -0 -1.05181e-14)
(0 -0 1.04124e-14)
(0 -0 3.81414e-14)
(0 -0 1.04113e-14)
(0 -0 -1.55879e-12)
(0 -0 6.24531e-13)
(0 -0 -1.56896e-13)
(0 -0 2.7029e-14)
(0 -0 5.57122e-14)
(0 -0 8.64173e-14)
(0 -0 1.28081e-13)
(0 -0 5.30227e-14)
(0 -0 2.11066e-14)
(0 -0 -6.26068e-15)
(0 -0 -8.5973e-16)
(0 -0 2.5317e-15)
(0 -0 -1.02105e-14)
(0 -0 -4.50733e-14)
(0 -0 -1.01813e-15)
(0 -0 1.28641e-14)
(0 -0 6.25898e-14)
(0 -0 6.75322e-15)
(0 -0 5.79697e-15)
(0 -0 -1.20628e-14)
(0 -0 4.15905e-12)
(0 -0 -7.69023e-12)
(0 -0 1.71994e-12)
(0 -0 -3.98708e-13)
(0 -0 1.98867e-13)
(0 -0 9.44779e-14)
(0 -0 2.03037e-15)
(0 -0 -2.28346e-14)
(0 -0 -8.28954e-15)
(0 -0 8.51746e-15)
(0 -0 1.81683e-14)
(0 -0 8.55359e-15)
(0 -0 -7.64159e-15)
(0 -0 -6.52342e-14)
(0 -0 -1.45181e-14)
(0 -0 4.18696e-15)
(0 -0 1.92248e-14)
(0 -0 5.39468e-14)
(0 -0 -4.71788e-15)
(0 -0 7.54101e-16)
(0 -0 -2.72187e-12)
(0 -0 4.53758e-12)
(0 -0 -1.13963e-12)
(0 -0 2.0433e-13)
(0 -0 -1.60005e-13)
(0 -0 -1.10284e-13)
(0 -0 -1.26904e-13)
(0 -0 -5.54684e-14)
(0 -0 -3.96034e-14)
(0 -0 2.30482e-14)
(0 -0 -4.32394e-14)
(0 -0 -3.97989e-14)
(0 -0 -8.97805e-14)
(0 -0 -2.3088e-14)
(0 -0 -5.05366e-14)
(0 -0 -2.92986e-14)
(0 -0 -8.94518e-14)
(0 -0 -6.66714e-14)
(0 -0 -5.58112e-14)
(0 -0 -4.83662e-15)
(0 -0 -3.05635e-12)
(0 -0 4.55329e-12)
(0 -0 -8.36906e-13)
(0 -0 2.69153e-13)
(0 -0 4.25262e-15)
(0 -0 3.45734e-14)
(0 -0 6.25388e-14)
(0 -0 6.69457e-14)
(0 -0 5.42533e-14)
(0 -0 -6.33717e-15)
(0 -0 3.8713e-14)
(0 -0 8.93435e-15)
(0 -0 2.80061e-14)
(0 -0 3.38603e-14)
(0 -0 5.69298e-15)
(0 -0 2.85697e-14)
(0 -0 2.458e-14)
(0 -0 -5.67399e-17)
(0 -0 5.61239e-14)
(0 -0 3.96265e-14)
)
;

boundaryField
{
    movingWall
    {
        type            calculated;
        value           nonuniform List<vector> 
20
(
(0 -0 -6.32179e-12)
(0 -0 5.6214e-12)
(0 -0 -5.45646e-13)
(0 -0 4.81396e-13)
(0 -0 3.05314e-13)
(0 -0 2.73922e-13)
(0 -0 2.30373e-13)
(0 -0 2.3478e-13)
(0 -0 1.77679e-13)
(0 -0 1.71299e-13)
(0 -0 2.95365e-13)
(0 -0 3.37101e-13)
(0 -0 1.78537e-13)
(0 -0 2.288e-13)
(0 -0 1.83329e-13)
(0 -0 1.791e-13)
(0 -0 1.75111e-13)
(0 -0 -5.67399e-17)
(0 -0 9.07317e-14)
(0 -0 1.01339e-13)
)
;
    }
    fixedWalls
    {
        type            calculated;
        value           nonuniform List<vector> 
60
(
(0 -0 4.67642e-11)
(0 -0 3.1346e-12)
(0 -0 -3.15932e-11)
(0 -0 2.22419e-11)
(0 -0 -5.11208e-12)
(0 -0 -1.85119e-11)
(0 -0 3.26255e-11)
(0 -0 -1.44165e-11)
(0 -0 -1.60248e-11)
(0 -0 3.23988e-11)
(0 -0 -2.97007e-11)
(0 -0 2.00302e-11)
(0 -0 -2.19485e-12)
(0 -0 -2.04139e-11)
(0 -0 3.81176e-11)
(0 -0 -2.96957e-11)
(0 -0 -2.99791e-12)
(0 -0 3.22971e-11)
(0 -0 -1.94991e-11)
(0 -0 -1.87939e-11)
(0 -0 -1.97419e-14)
(0 -0 -5.63829e-16)
(0 -0 3.44001e-14)
(0 -0 4.7068e-15)
(0 -0 1.80117e-14)
(0 -0 1.61567e-14)
(0 -0 -6.01202e-14)
(0 -0 7.76327e-15)
(0 -0 7.70395e-15)
(0 -0 -2.44136e-14)
(0 -0 -1.38617e-14)
(0 -0 -1.50319e-14)
(0 -0 -6.31956e-15)
(0 -0 1.24033e-14)
(0 -0 -5.30643e-15)
(0 -0 -5.23247e-15)
(0 -0 -2.60005e-14)
(0 -0 -2.37512e-16)
(0 -0 4.72649e-15)
(0 -0 4.6411e-14)
(0 -0 1.30648e-11)
(0 -0 -1.29647e-11)
(0 -0 2.18973e-12)
(0 -0 -8.40064e-13)
(0 -0 -1.67757e-14)
(0 -0 -1.6846e-13)
(0 -0 -1.7908e-13)
(0 -0 -9.37684e-14)
(0 -0 -1.44291e-13)
(0 -0 -1.07655e-13)
(0 -0 -9.45299e-14)
(0 -0 -1.68858e-13)
(0 -0 -7.4502e-14)
(0 -0 -1.64834e-13)
(0 -0 -1.32421e-13)
(0 -0 -1.42711e-13)
(0 -0 -9.04259e-14)
(0 -0 -8.10315e-14)
(0 -0 -4.37328e-14)
(0 -0 -5.74792e-14)
)
;
    }
    frontAndBack
    {
        type            empty;
    }
}


// ************************************************************************* //
