/*--------------------------------*- C++ -*----------------------------------*\
| =========                 |                                                 |
| \\      /  F ield         | OpenFOAM: The Open Source CFD Toolbox           |
|  \\    /   O peration     | Version:  2506                                  |
|   \\  /    A nd           | Website:  www.openfoam.com                      |
|    \\/     M anipulation  |                                                 |
\*---------------------------------------------------------------------------*/
FoamFile
{
    version     2.0;
    format      ascii;
    arch        "LSB;label=32;scalar=64";
    class       volVectorField;
    location    "8.5";
    object      wallShearStress;
}
// * * * * * * * * * * * * * * * * * * * * * * * * * * * * * * * * * * * * * //

dimensions      [0 2 -2 0 0 0 0];

internalField   uniform (0 0 0);

boundaryField
{
    movingWall
    {
        type            calculated;
        value           uniform (0 0 0);
    }
    fixedWalls
    {
        type            calculated;
        value           nonuniform List<vector> 
60
(
(1.35297e-16 -4.80652e-16 0)
(-2.20594e-16 -4.70669e-17 0)
(3.97188e-17 3.73936e-16 0)
(1.19933e-16 -2.47355e-16 0)
(-1.28761e-16 5.2205e-17 0)
(1.3667e-16 1.79698e-16 0)
(-6.93026e-17 -3.43602e-16 0)
(-5.63857e-17 1.78317e-16 0)
(1.01174e-16 1.59164e-16 0)
(5.32843e-18 -3.40251e-16 0)
(-5.13205e-17 2.56891e-16 0)
(-4.3604e-17 -1.60729e-16 0)
(2.06204e-17 6.04377e-17 0)
(9.05721e-17 1.53723e-16 0)
(-7.73486e-17 -3.81718e-16 0)
(-4.90457e-17 3.42494e-16 0)
(1.79225e-16 8.83712e-18 0)
(-7.17867e-17 -3.78265e-16 0)
(-1.69365e-16 2.22097e-16 0)
(9.95005e-17 2.05286e-16 0)
(-6.25962e-19 -1.97419e-19 0)
(1.27447e-18 -5.63829e-21 0)
(5.39595e-20 3.44001e-19 0)
(-2.7314e-20 5.89169e-19 0)
(-1.2555e-18 1.80117e-19 0)
(-8.50448e-20 -3.80534e-19 0)
(-6.06108e-19 -5.91011e-20 0)
(6.78652e-20 -4.64468e-19 0)
(3.6722e-20 7.70395e-20 0)
(-3.59427e-20 2.97965e-19 0)
(-1.25895e-18 -1.38617e-19 0)
(-5.79549e-19 -6.9242e-19 0)
(1.32031e-18 -6.31956e-20 0)
(-5.9043e-19 6.66134e-19 0)
(-1.30398e-18 -5.30643e-20 0)
(-3.44901e-20 -5.94426e-19 0)
(5.35e-20 -2.60005e-19 0)
(-4.95732e-19 -2.37512e-21 0)
(3.25724e-20 5.89366e-19 0)
(-1.26947e-18 -7.79911e-20 0)
(-5.60406e-17 -6.35448e-16 0)
(9.50084e-17 1.40866e-16 0)
(-2.63382e-17 -3.5463e-17 0)
(3.07157e-18 5.55183e-18 0)
(-2.49678e-18 -2.88274e-18 0)
(-9.79937e-19 -2.9749e-19 0)
(-1.76191e-18 -8.22948e-19 0)
(-8.38673e-19 -4.01167e-19 0)
(-1.22163e-18 -3.78218e-19 0)
(-6.99804e-19 1.88906e-19 0)
(-8.31058e-19 6.26443e-19 0)
(-1.86413e-18 4.93548e-19 0)
(-1.03134e-18 1.58318e-19 0)
(-1.90437e-18 -2.69966e-19 0)
(-1.34032e-18 -5.24427e-19 0)
(-1.23742e-18 -3.12931e-19 0)
(-8.72097e-19 -1.8584e-20 0)
(-9.66042e-19 -2.27165e-19 0)
(-4.5085e-19 -6.14558e-19 0)
(-3.13386e-19 -4.43925e-19 0)
)
;
    }
    frontAndBack
    {
        type            empty;
    }
}


// ************************************************************************* //
