/*--------------------------------*- C++ -*----------------------------------*\
| =========                 |                                                 |
| \\      /  F ield         | OpenFOAM: The Open Source CFD Toolbox           |
|  \\    /   O peration     | Version:  2506                                  |
|   \\  /    A nd           | Website:  www.openfoam.com                      |
|    \\/     M anipulation  |                                                 |
\*---------------------------------------------------------------------------*/
FoamFile
{
    version     2.0;
    format      ascii;
    arch        "LSB;label=32;scalar=64";
    class       volScalarField;
    location    "8.5";
    object      yPlus;
}
// * * * * * * * * * * * * * * * * * * * * * * * * * * * * * * * * * * * * * //

dimensions      [0 0 0 0 0 0 0];

internalField   uniform 0;

boundaryField
{
    movingWall
    {
        type            calculated;
        value           nonuniform List<scalar> 
20
(
3.51843e-06
1.59581e-06
7.86699e-07
4.50301e-07
4.73197e-07
4.08397e-07
3.73033e-07
3.73179e-07
3.36316e-07
3.34124e-07
4.4088e-07
4.72951e-07
3.43349e-07
3.75461e-07
3.36646e-07
3.33948e-07
3.35638e-07
1.29811e-07
2.42384e-07
2.38343e-07
)
;
    }
    fixedWalls
    {
        type            calculated;
        value           nonuniform List<scalar> 
60
(
5.45213e-06
2.15428e-06
4.64338e-06
3.87989e-06
2.06347e-06
3.44859e-06
4.60538e-06
3.18611e-06
3.1656e-06
4.55962e-06
4.16562e-06
3.45436e-06
2.13756e-06
3.35006e-06
4.89631e-06
4.47216e-06
1.84084e-06
4.68986e-06
3.67956e-06
3.51843e-06
1.74283e-07
2.3561e-07
1.46629e-07
1.41005e-07
2.37994e-07
8.27208e-08
1.85972e-07
1.09948e-07
6.939e-08
4.1014e-08
2.3703e-07
1.95605e-07
2.35906e-07
1.92743e-07
2.35818e-07
1.42165e-07
1.27477e-07
1.66601e-07
1.41049e-07
2.38343e-07
5.45213e-06
2.52794e-06
1.24836e-06
5.62257e-07
3.80229e-07
2.93651e-07
3.39163e-07
2.42095e-07
2.91776e-07
2.37093e-07
2.50598e-07
3.3676e-07
2.36654e-07
3.34277e-07
2.94652e-07
2.90773e-07
2.35623e-07
2.37746e-07
1.85496e-07
1.74283e-07
)
;
    }
    frontAndBack
    {
        type            empty;
    }
}


// ************************************************************************* //
