/*--------------------------------*- C++ -*----------------------------------*\
| =========                 |                                                 |
| \\      /  F ield         | OpenFOAM: The Open Source CFD Toolbox           |
|  \\    /   O peration     | Version:  2506                                  |
|   \\  /    A nd           | Website:  www.openfoam.com                      |
|    \\/     M anipulation  |                                                 |
\*---------------------------------------------------------------------------*/
FoamFile
{
    version     2.0;
    format      ascii;
    arch        "LSB;label=32;scalar=64";
    class       volScalarField;
    location    "8.5";
    object      zeroGradient(p);
}
// * * * * * * * * * * * * * * * * * * * * * * * * * * * * * * * * * * * * * //

dimensions      [0 2 -2 0 0 0 0];

internalField   nonuniform List<scalar> 
400
(
0
3.55614e-15
2.65327e-15
3.1379e-15
3.27757e-15
3.43095e-15
3.63981e-15
3.93438e-15
3.95848e-15
4.06211e-15
4.13129e-15
4.12545e-15
4.05224e-15
3.96106e-15
3.86002e-15
3.87693e-15
4.03945e-15
4.23898e-15
4.46676e-15
4.53594e-15
2.4244e-15
0
2.78018e-15
2.76614e-15
3.07639e-15
3.44372e-15
3.67782e-15
4.00775e-15
3.997e-15
4.13631e-15
4.18339e-15
4.11643e-15
4.12011e-15
3.93407e-15
3.75549e-15
3.85031e-15
4.15078e-15
4.36762e-15
4.52371e-15
4.3325e-15
2.50392e-15
3.30155e-15
2.69766e-15
3.17653e-15
3.42823e-15
3.46533e-15
3.77665e-15
4.09151e-15
3.99994e-15
4.19824e-15
4.15582e-15
4.16824e-15
4.06717e-15
3.9328e-15
3.74555e-15
3.71575e-15
4.10394e-15
4.42452e-15
4.53157e-15
4.48284e-15
2.53186e-15
3.3275e-15
3.13536e-15
3.40978e-15
3.40935e-15
3.46524e-15
3.69465e-15
4.1404e-15
4.14921e-15
4.16594e-15
4.23454e-15
4.20695e-15
4.05962e-15
3.98432e-15
3.85437e-15
3.95046e-15
4.05519e-15
4.32062e-15
4.49103e-15
4.58442e-15
3.33154e-15
1.97258e-15
3.36672e-15
3.46988e-15
3.40091e-15
3.58003e-15
3.84156e-15
4.30177e-15
4.05784e-15
4.14234e-15
4.16215e-15
4.16092e-15
4.04358e-15
3.99671e-15
3.89775e-15
3.92048e-15
4.06892e-15
4.12125e-15
4.40595e-15
4.77943e-15
2.96101e-15
4.10681e-15
3.42377e-15
3.64199e-15
3.65843e-15
3.82367e-15
3.9253e-15
4.21615e-15
4.28026e-15
4.2129e-15
4.13225e-15
4.30894e-15
4.05683e-15
3.90639e-15
3.75915e-15
3.87293e-15
3.97394e-15
3.99191e-15
4.38245e-15
4.80309e-15
3.64696e-15
4.62766e-15
3.56262e-15
3.80965e-15
3.73624e-15
3.87938e-15
4.01471e-15
4.27136e-15
4.39612e-15
4.24204e-15
4.13639e-15
4.14885e-15
3.97132e-15
3.89213e-15
3.93689e-15
3.99719e-15
4.01151e-15
3.93716e-15
4.27861e-15
4.70258e-15
4.55467e-15
1.32443e-15
3.86282e-15
3.77425e-15
4.08902e-15
4.26332e-15
4.21986e-15
4.43528e-15
4.5344e-15
4.21348e-15
3.94432e-15
4.21762e-15
3.91107e-15
3.93151e-15
3.99515e-15
4.01978e-15
3.95136e-15
3.82247e-15
4.20312e-15
4.48125e-15
4.19182e-15
6.13679e-15
4.03378e-15
4.0822e-15
4.25707e-15
4.48531e-15
4.26367e-15
4.40104e-15
4.4751e-15
4.14946e-15
4.01741e-15
4.24269e-15
4.09255e-15
4.00062e-15
3.96413e-15
3.98419e-15
3.967e-15
3.96772e-15
4.29665e-15
4.53817e-15
4.14787e-15
3.56147e-15
4.43184e-15
4.40641e-15
4.39833e-15
4.47795e-15
4.30022e-15
4.55866e-15
4.57332e-15
4.16181e-15
4.06265e-15
4.18604e-15
4.25607e-15
3.91293e-15
3.97747e-15
4.03678e-15
4.01719e-15
3.9698e-15
4.34983e-15
4.56423e-15
4.1337e-15
4.15078e-15
4.62506e-15
4.52519e-15
4.50708e-15
4.3965e-15
4.2904e-15
4.54171e-15
4.63383e-15
4.36421e-15
4.43176e-15
4.34002e-15
4.19805e-15
3.94864e-15
4.04088e-15
4.19812e-15
4.18271e-15
3.95285e-15
4.09498e-15
4.53227e-15
4.24368e-15
6.80179e-15
4.64545e-15
4.87666e-15
4.60052e-15
4.56167e-15
4.46196e-15
4.40918e-15
4.67784e-15
4.54037e-15
4.63847e-15
4.34079e-15
4.30167e-15
4.09337e-15
3.89498e-15
4.16727e-15
4.23899e-15
4.06555e-15
4.24768e-15
4.39282e-15
5.30754e-15
2.17553e-15
4.9283e-15
4.75003e-15
4.71456e-15
4.52635e-15
4.20911e-15
4.27754e-15
4.67633e-15
4.57577e-15
4.67702e-15
4.57473e-15
4.08562e-15
4.14264e-15
4.18633e-15
4.13758e-15
4.21739e-15
4.20546e-15
4.19063e-15
4.12606e-15
4.75305e-15
6.49695e-15
4.85937e-15
5.00937e-15
4.8818e-15
4.60613e-15
4.33055e-15
4.48609e-15
4.55432e-15
4.58858e-15
4.64231e-15
4.58616e-15
4.21153e-15
4.22399e-15
4.32745e-15
4.21737e-15
4.16178e-15
4.12099e-15
4.20934e-15
4.33971e-15
5.07951e-15
5.13737e-15
4.83766e-15
4.78962e-15
4.93604e-15
4.75066e-15
4.6504e-15
4.50371e-15
4.56183e-15
4.64743e-15
4.68286e-15
4.55778e-15
4.41534e-15
4.54748e-15
4.33678e-15
4.05682e-15
4.05637e-15
3.90945e-15
4.11828e-15
4.41129e-15
5.36247e-15
3.05636e-15
4.95919e-15
4.66627e-15
4.94926e-15
4.821e-15
4.68704e-15
4.69138e-15
4.70116e-15
4.67281e-15
4.63639e-15
4.52809e-15
4.60184e-15
4.67359e-15
4.39958e-15
4.37145e-15
4.06171e-15
3.8046e-15
3.92374e-15
4.23101e-15
4.22821e-15
6.90787e-15
4.99904e-15
5.21721e-15
4.95113e-15
4.98834e-15
4.90727e-15
4.90684e-15
4.91002e-15
4.803e-15
4.67514e-15
4.56857e-15
4.5455e-15
4.53034e-15
4.30629e-15
4.10441e-15
4.0555e-15
3.88277e-15
3.83059e-15
4.08563e-15
4.64136e-15
4.36639e-15
5.0679e-15
5.2025e-15
5.3963e-15
5.18861e-15
5.00699e-15
5.08276e-15
4.90483e-15
4.79015e-15
4.82799e-15
4.64388e-15
4.49543e-15
4.4504e-15
4.24619e-15
4.22425e-15
3.9934e-15
3.80212e-15
3.65931e-15
3.92289e-15
4.98721e-15
3.2542e-15
5.07551e-15
5.28717e-15
5.37324e-15
5.24471e-15
5.06116e-15
5.18059e-15
5.22115e-15
5.07435e-15
5.05808e-15
4.5285e-15
4.33036e-15
4.44274e-15
4.24161e-15
4.21805e-15
3.89293e-15
3.52816e-15
3.71409e-15
4.02386e-15
3.6209e-15
5.99983e-15
4.94087e-15
5.3822e-15
5.37362e-15
5.36542e-15
5.20549e-15
5.18994e-15
5.18376e-15
5.14016e-15
4.88989e-15
4.74387e-15
4.54082e-15
4.27581e-15
4.1163e-15
4.10393e-15
3.97738e-15
3.66283e-15
3.75551e-15
4.16231e-15
)
;

boundaryField
{
    movingWall
    {
        type            zeroGradient;
    }
    fixedWalls
    {
        type            zeroGradient;
    }
    frontAndBack
    {
        type            empty;
    }
}


// ************************************************************************* //
