/*--------------------------------*- C++ -*----------------------------------*\
| =========                 |                                                 |
| \\      /  F ield         | OpenFOAM: The Open Source CFD Toolbox           |
|  \\    /   O peration     | Version:  2506                                  |
|   \\  /    A nd           | Website:  www.openfoam.com                      |
|    \\/     M anipulation  |                                                 |
\*---------------------------------------------------------------------------*/
FoamFile
{
    version     2.0;
    format      ascii;
    arch        "LSB;label=32;scalar=64";
    class       volScalarField;
    location    "1.675";
    object      p;
}
// * * * * * * * * * * * * * * * * * * * * * * * * * * * * * * * * * * * * * //

dimensions      [0 2 -2 0 0 0 0];

internalField   nonuniform List<scalar> 
6400
(
-1.25553e-08
-3.61574e-06
-6.74725e-05
-0.000189185
-0.000353858
-0.000548164
-0.000760531
-0.000981156
-0.00120202
-0.00141673
-0.00162025
-0.00180867
-0.00197901
-0.002129
-0.00225697
-0.0023617
-0.00244232
-0.00249822
-0.00252899
-0.00253435
-0.00251411
-0.00246818
-0.00239649
-0.00229902
-0.00217583
-0.00202698
-0.00185262
-0.00165298
-0.00142838
-0.00117925
-0.000906155
-0.000609831
-0.00029119
4.86606e-05
0.00040839
0.000786431
0.00118098
0.00158997
0.00201109
0.00244178
0.00287923
0.00332042
0.00376211
0.0042009
0.00463324
0.00505547
0.00546389
0.00585477
0.00622446
0.00656938
0.00688615
0.0071716
0.00742284
0.00763735
0.00781299
0.00794808
0.00804148
0.00809254
0.00810122
0.00806805
0.00799419
0.00788141
0.00773211
0.00754928
0.00733652
0.00709797
0.00683833
0.00656279
0.00627703
0.00598717
0.00569976
0.00542176
0.00516045
0.00492346
0.00471858
0.00455351
0.00443514
0.00436867
0.00435618
0.00438441
3.51209e-06
-8.15997e-08
-5.64514e-05
-0.000159644
-0.000297581
-0.000460735
-0.000640317
-0.000828424
-0.00101826
-0.00120417
-0.00138155
-0.00154669
-0.00169666
-0.00182917
-0.00194247
-0.0020352
-0.00210638
-0.00215526
-0.0021813
-0.00218412
-0.00216342
-0.00211903
-0.00205082
-0.00195872
-0.00184275
-0.00170296
-0.00153949
-0.00135256
-0.00114247
-0.000909661
-0.000654685
-0.000378253
-8.12468e-05
0.000235269
0.000570029
0.000921549
0.00128812
0.00166783
0.00205849
0.00245773
0.00286295
0.00327135
0.00367994
0.00408559
0.00448503
0.00487492
0.00525188
0.0056125
0.00595345
0.00627151
0.00656359
0.00682685
0.00705869
0.00725685
0.00741945
0.00754502
0.00763256
0.00768158
0.0076921
0.00766469
0.00760048
0.00750118
0.00736904
0.00720688
0.00701805
0.00680637
0.00657618
0.00633224
0.00607972
0.00582417
0.00557144
0.00532766
0.00509917
0.00489239
0.00471368
0.00456904
0.00446337
0.0044002
0.00438414
0.00441256
6.75119e-05
5.61298e-05
-6.61066e-07
-9.60471e-05
-0.000220042
-0.000365137
-0.000524344
-0.000691147
-0.0008598
-0.00102539
-0.00118381
-0.00133167
-0.00146624
-0.00158532
-0.00168719
-0.00177049
-0.00183421
-0.00187753
-0.00189986
-0.00190076
-0.00187989
-0.001837
-0.00177193
-0.00168459
-0.00157493
-0.00144301
-0.00128891
-0.00111285
-0.000915119
-0.00069611
-0.000456358
-0.000196535
8.25229e-05
0.000379806
0.000694116
0.00102405
0.00136801
0.00172417
0.00209049
0.00246475
0.00284451
0.00322713
0.00360984
0.00398969
0.00436366
0.00472861
0.00508139
0.00541884
0.00573787
0.00603547
0.0063088
0.00655522
0.00677234
0.00695809
0.00711074
0.00722898
0.00731191
0.00735913
0.00737069
0.0073472
0.00728975
0.00719998
0.00708005
0.00693263
0.00676084
0.00656831
0.00635906
0.00613751
0.00590844
0.0056769
0.00544822
0.00522789
0.0050215
0.00483467
0.00467283
0.00454104
0.00444339
0.00438318
0.00436767
0.00440057
0.000190462
0.000159702
9.36863e-05
-2.65215e-06
-0.000122243
-0.000258865
-0.000406712
-0.000560399
-0.000715102
-0.000866628
-0.00101141
-0.00114645
-0.0012693
-0.00137796
-0.00147084
-0.00154665
-0.00160441
-0.00164332
-0.00166279
-0.00166235
-0.00164165
-0.0016004
-0.00153841
-0.00145556
-0.00135178
-0.00122708
-0.00108153
-0.000915299
-0.00072864
-0.000521917
-0.000295614
-5.03518e-05
0.000213089
0.000493769
0.000790561
0.00110215
0.00142703
0.00176348
0.00210958
0.00246324
0.00282214
0.0031838
0.0035456
0.00390476
0.0042584
0.00460356
0.00493727
0.00525653
0.00555841
0.00584008
0.00609885
0.00633221
0.00653793
0.00671404
0.00685893
0.00697138
0.00705056
0.0070961
0.0071081
0.00708714
0.00703431
0.00695118
0.00683981
0.00670275
0.00654299
0.00636394
0.00616938
0.00596346
0.00575062
0.00553554
0.00532311
0.00511832
0.00492621
0.00475179
0.00459991
0.00447513
0.00438121
0.00432155
0.0043045
0.00433585
0.000358554
0.000299284
0.000217208
0.000114047
-6.9242e-06
-0.00014063
-0.000282259
-0.000427465
-0.000572307
-0.000713305
-0.000847452
-0.000972201
-0.00108543
-0.00118539
-0.00127067
-0.00134012
-0.00139283
-0.00142807
-0.00144526
-0.00144396
-0.00142379
-0.00138447
-0.00132579
-0.00124758
-0.00114976
-0.0010323
-0.000895225
-0.000738664
-0.000562822
-0.000368011
-0.00015466
7.66765e-05
0.000325284
0.000590297
0.000870678
0.0011652
0.00147244
0.00179082
0.0021185
0.00245351
0.00279367
0.00313663
0.00347989
0.00382081
0.00415664
0.00448458
0.00480177
0.00510537
0.00539255
0.00566062
0.00590699
0.00612927
0.00632532
0.00649326
0.00663155
0.00673901
0.00681488
0.0068588
0.00687088
0.00685169
0.00680228
0.00672416
0.00661932
0.0064902
0.00633963
0.00617086
0.00598747
0.00579335
0.00559265
0.00538974
0.00518909
0.00499528
0.0048129
0.00464646
0.00450032
0.00437861
0.00428486
0.00422243
0.00419918
0.00422068
0.0005594
0.000465906
0.000362768
0.00024813
0.000121092
-1.42723e-05
-0.000154015
-0.000294741
-0.000433338
-0.000567009
-0.000693317
-0.000810176
-0.000915831
-0.00100882
-0.00108795
-0.00115225
-0.00120091
-0.0012333
-0.0012489
-0.00124728
-0.0012281
-0.00119107
-0.00113595
-0.00106258
-0.000970814
-0.000860598
-0.000731923
-0.000584858
-0.000419552
-0.000236254
-3.5326e-05
0.000182748
0.000417335
0.000667652
0.00093275
0.0012115
0.00150258
0.0018045
0.00211556
0.00243388
0.0027574
0.00308387
0.00341091
0.003736
0.00405651
0.00436973
0.00467291
0.0049633
0.00523818
0.00549493
0.00573104
0.00594419
0.0061323
0.00629354
0.00642641
0.00652976
0.00660283
0.00664528
0.0066572
0.00663914
0.00659212
0.00651758
0.00641744
0.00629404
0.00615008
0.00598867
0.0058132
0.00562736
0.00543505
0.00524033
0.00504737
0.00486038
0.00468356
0.00452099
0.00437666
0.00425428
0.00415716
0.00408851
0.00405465
0.00405976
0.000782055
0.000651075
0.000523466
0.000393777
0.000256912
0.0001161
-2.54324e-05
-0.000165154
-0.000300721
-0.000429986
-0.000551062
-0.00066233
-0.000762414
-0.000850165
-0.000924635
-0.000985035
-0.00103072
-0.00106117
-0.00107593
-0.00107463
-0.00105695
-0.0010226
-0.000971363
-0.00090303
-0.000817447
-0.000714505
-0.000594148
-0.00045639
-0.000301316
-0.000129103
5.9962e-05
0.000265477
0.000486895
0.000723524
0.000974509
0.00123882
0.00151524
0.00180238
0.00209863
0.00240222
0.0027112
0.00302341
0.00333658
0.00364826
0.00395592
0.00425693
0.0045486
0.00482826
0.00509325
0.00534098
0.00556899
0.00577501
0.00595695
0.00611303
0.00624173
0.00634191
0.0064128
0.00645405
0.00646571
0.00644831
0.0064028
0.0063306
0.00623352
0.00611382
0.00597411
0.00581735
0.0056468
0.00546595
0.0052785
0.00508827
0.00489917
0.0047151
0.00453994
0.00437744
0.0042312
0.00410463
0.0040008
0.0039227
0.00387459
0.00385873
0.00101688
0.000846789
0.000692528
0.000545224
0.000395718
0.000246529
0.000100283
-4.1269e-05
-0.000176489
-0.000303836
-0.000421956
-0.000529682
-0.000626023
-0.00071015
-0.000781375
-0.000839123
-0.000882914
-0.000912342
-0.000927057
-0.000926746
-0.000911128
-0.000879939
-0.000832943
-0.000769926
-0.000690699
-0.00059511
-0.000483049
-0.000354469
-0.000209383
-4.78907e-05
0.000129806
0.000323389
0.000532408
0.00075627
0.000994217
0.00124532
0.00150846
0.00178234
0.00206547
0.00235617
0.00265256
0.0029526
0.00325407
0.0035546
0.00385173
0.00414288
0.00442542
0.00469669
0.00495407
0.00519498
0.00541699
0.0056178
0.00579533
0.00594777
0.0060736
0.00617163
0.00624107
0.00628151
0.00629299
0.00627596
0.00623134
0.00616047
0.00606511
0.00594741
0.00580992
0.00565547
0.00548719
0.00530845
0.00512275
0.00493375
0.0047451
0.00456048
0.00438351
0.00421765
0.00406621
0.00393227
0.00381874
0.00372839
0.00366319
0.00362326
0.00125551
0.00104574
0.000863561
0.000696906
0.000532727
0.00037296
0.000219726
7.40775e-05
-6.29934e-05
-0.000190514
-0.000307633
-0.000413623
-0.000507869
-0.000589866
-0.000659185
-0.000715475
-0.00075843
-0.000787777
-0.000803269
-0.000804663
-0.00079172
-0.000764203
-0.000721876
-0.000664502
-0.000591867
-0.000503773
-0.000400052
-0.000280584
-0.000145308
5.75591e-06
0.000172498
0.0003547
0.000552008
0.000763926
0.000989803
0.00122881
0.00147994
0.00174199
0.00201355
0.00229305
0.00257868
0.00286847
0.00316027
0.00345178
0.00374057
0.00402408
0.00429972
0.00456484
0.0048168
0.00505304
0.00527107
0.00546859
0.00564347
0.00579384
0.00591814
0.00601513
0.00608396
0.00612416
0.0061357
0.00611898
0.00607486
0.00600459
0.00590988
0.00579281
0.00565583
0.00550169
0.00533343
0.00515427
0.00496761
0.00477692
0.00458572
0.00439748
0.0042156
0.00404334
0.00388374
0.00373964
0.00361381
0.00350885
0.00342437
0.0033584
0.0014907
0.00124132
0.00103062
0.000843513
0.000663247
0.000491288
0.00032933
0.000177795
3.70841e-05
-9.23567e-05
-0.000210147
-0.000315982
-0.000409613
-0.000490845
-0.000559518
-0.000615498
-0.000658657
-0.000688862
-0.000705968
-0.000709812
-0.000700202
-0.00067692
-0.000639734
-0.000588395
-0.000522649
-0.000442249
-0.000346968
-0.000236616
-0.000111047
2.98115e-05
0.000185944
0.000357231
0.000543423
0.000744134
0.000958818
0.00118675
0.00142702
0.00167854
0.00193998
0.00220984
0.00248641
0.00276776
0.00305182
0.00333631
0.00361883
0.00389685
0.00416775
0.00442888
0.00467758
0.00491124
0.00512733
0.00532347
0.00549749
0.00564743
0.00577165
0.00586883
0.00593804
0.00597873
0.00599078
0.00597453
0.00593075
0.00586062
0.00576579
0.00564825
0.00551039
0.00535489
0.00518469
0.00500294
0.00481292
0.004618
0.00442157
0.00422696
0.00403742
0.00385603
0.00368566
0.00352893
0.00338855
0.003267
0.00316161
0.00306837
0.00171604
0.00142755
0.00118819
0.000979997
0.000782723
0.000597432
0.000425456
0.000266649
0.000120868
-1.19315e-05
-0.000131813
-0.000238867
-0.000333199
-0.000414914
-0.000484117
-0.00054088
-0.000585253
-0.000617249
-0.000636825
-0.000643886
-0.000638296
-0.000619861
-0.000588348
-0.000543484
-0.000484982
-0.000412546
-0.000325879
-0.000224713
-0.000108816
2.19788e-05
0.000167757
0.000328508
0.000504093
0.000694235
0.000898498
0.00111626
0.00134673
0.0015889
0.00184154
0.00210323
0.00237231
0.00264694
0.00292507
0.00320445
0.00348269
0.00375725
0.00402551
0.00428478
0.00453234
0.00476552
0.00498171
0.00517845
0.00535346
0.00550469
0.0056304
0.00572915
0.00579989
0.00584199
0.00585523
0.00583984
0.00579649
0.00572631
0.00563085
0.00551205
0.00537222
0.00521399
0.00504022
0.004854
0.00465855
0.00445715
0.00425312
0.0040497
0.00385003
0.00365708
0.0034736
0.00330206
0.00314517
0.00300538
0.00287782
0.00275655
0.00192581
0.00159896
0.00133111
0.00110157
0.00088675
0.000687366
0.000504445
0.000337319
0.00018534
4.80098e-05
-7.51519e-05
-0.000184614
-0.000280815
-0.000364147
-0.000434962
-0.000493548
-0.000540124
-0.000574828
-0.000597727
-0.000608804
-0.000607961
-0.000595023
-0.000569757
-0.000531873
-0.00048104
-0.000416902
-0.000339093
-0.000247264
-0.000141092
-2.0308e-05
0.000115284
0.000265784
0.000431167
0.000611271
0.000805776
0.00101418
0.00123578
0.00146967
0.00171471
0.00196957
0.00223265
0.00250215
0.00277605
0.00305214
0.00332801
0.00360111
0.00386878
0.00412828
0.00437681
0.00461162
0.00483
0.00502936
0.00520732
0.00536169
0.00549058
0.00559244
0.00566608
0.00571072
0.00572603
0.00571213
0.00566959
0.00559944
0.00550314
0.00538257
0.00523997
0.00507792
0.00489924
0.00470698
0.00450431
0.00429448
0.00408076
0.00386635
0.00365434
0.00344765
0.00324895
0.00306065
0.00288555
0.0027261
0.00257534
0.00242555
0.00211481
0.0017505
0.00145457
0.0012037
0.000971081
0.000757149
0.000562649
0.000386434
0.000227388
8.45815e-05
-4.28579e-05
-0.000155748
-0.000254842
-0.000340823
-0.000414267
-0.000475657
-0.00052538
-0.000563706
-0.000590796
-0.000606698
-0.000611355
-0.000604611
-0.000586227
-0.000555884
-0.000513206
-0.000457775
-0.000389152
-0.0003069
-0.000210595
-9.98619e-05
2.56081e-05
0.000166032
0.000321506
0.000491992
0.000677287
0.000877
0.00109054
0.0013171
0.00155564
0.00180489
0.00206332
0.00232918
0.00260048
0.00287501
0.00315035
0.00342394
0.00369304
0.00395484
0.00420648
0.00444506
0.00466777
0.00487189
0.00505485
0.00521434
0.00534829
0.00545498
0.00553306
0.00558162
0.00560015
0.00558864
0.00554754
0.00547777
0.00538071
0.00525816
0.00511229
0.00494564
0.004761
0.00456139
0.00434999
0.00413003
0.00390478
0.00367743
0.0034511
0.0032287
0.00301289
0.00280609
0.0026112
0.00243083
0.00225601
0.00207727
0.00227825
0.0018775
0.00155404
0.00128205
0.00103162
0.000802915
0.000596445
0.0004106
0.000243822
9.47891e-05
-3.77464e-05
-0.000154945
-0.000257853
-0.000347407
-0.000424414
-0.000489548
-0.000543342
-0.000586187
-0.000618334
-0.000639893
-0.000650843
-0.000651037
-0.00064022
-0.000618042
-0.000584078
-0.000537846
-0.000478823
-0.000406477
-0.000320281
-0.000219747
-0.000104448
2.5959e-05
0.000171699
0.000332859
0.00050936
0.000700929
0.000907091
0.00112714
0.00136014
0.00160488
0.00185991
0.00212352
0.00239374
0.00266836
0.00294496
0.00322092
0.00349344
0.00375964
0.00401652
0.00426109
0.00449035
0.00470144
0.00489161
0.00505835
0.00519942
0.00531288
0.00539722
0.0054513
0.00547446
0.00546652
0.00542779
0.00535907
0.00526162
0.00513717
0.00498782
0.00481607
0.0046247
0.00441672
0.00419532
0.00396377
0.00372537
0.00348338
0.00324093
0.00300103
0.00276638
0.00253944
0.00232334
0.00212086
0.00192114
0.00171302
0.00241166
0.00197555
0.00162525
0.0013325
0.00106441
0.000820903
0.000602251
0.000406422
0.000231433
7.55753e-05
-6.27433e-05
-0.000184998
-0.000292527
-0.000386506
-0.000467957
-0.000537726
-0.000596487
-0.000644743
-0.000682826
-0.000710897
-0.000728963
-0.000736881
-0.000734376
-0.00072106
-0.000696451
-0.000659994
-0.000611078
-0.000549071
-0.000473337
-0.000383268
-0.000278309
-0.000157987
-2.19411e-05
0.000130047
0.000298026
0.000481855
0.000681178
0.0008954
0.00112367
0.00136488
0.00161763
0.00188026
0.00215082
0.00242712
0.00270669
0.00298687
0.00326481
0.00353748
0.00380181
0.00405461
0.00429276
0.00451317
0.0047129
0.00488922
0.00503967
0.00516208
0.00525471
0.0053162
0.0053457
0.00534281
0.0053077
0.005241
0.00514385
0.00501788
0.00486515
0.0046881
0.0044895
0.0042724
0.00403999
0.00379563
0.00354268
0.0032845
0.00302433
0.00276528
0.00251017
0.00226157
0.00202288
0.00179714
0.00157164
0.00133361
0.00251081
0.0020405
0.00166414
0.0013511
0.00106564
0.000807449
0.000576562
0.000370534
0.000186987
2.38449e-05
-0.00012082
-0.000248788
-0.00036166
-0.000460848
-0.000547568
-0.000622828
-0.000687436
-0.000741994
-0.000786903
-0.000822368
-0.000848414
-0.000864893
-0.000871509
-0.000867823
-0.000853292
-0.000827279
-0.000789082
-0.000737962
-0.000673165
-0.000593954
-0.00049964
-0.000389613
-0.000263372
-0.000120557
3.90234e-05
0.00021536
0.000408226
0.000617143
0.000841365
0.00107987
0.00133133
0.00159413
0.00186636
0.00214582
0.00243001
0.00271623
0.00300154
0.00328281
0.0035568
0.00382019
0.00406964
0.00430186
0.00451367
0.00470211
0.00486443
0.00499822
0.00510147
0.00517257
0.00521041
0.0052144
0.00518447
0.00512109
0.00502527
0.00489851
0.0047428
0.00456056
0.00435453
0.0041278
0.00388363
0.00362545
0.00335675
0.00308102
0.00280166
0.00252193
0.00224483
0.0019731
0.00171046
0.00146031
0.00120808
0.000939393
0.00257173
0.0020684
0.00166681
0.00133407
0.00103164
0.000758988
0.000515928
0.000299612
0.000107274
-6.35126e-05
-0.000214996
-0.000349246
-0.000468116
-0.00057324
-0.000666014
-0.000747599
-0.000818922
-0.000880675
-0.000933315
-0.000977087
-0.00101202
-0.00103796
-0.00105457
-0.00106136
-0.00105773
-0.00104293
-0.00101618
-0.000976616
-0.00092336
-0.000855541
-0.000772329
-0.000672966
-0.000556803
-0.000423326
-0.000272196
-0.000103276
8.3341e-05
0.000287304
0.000507985
0.000744455
0.000995471
0.00125947
0.00153458
0.00181858
0.00210898
0.00240301
0.00269763
0.00298961
0.00327555
0.00355194
0.00381523
0.00406191
0.00428852
0.00449181
0.00466875
0.00481664
0.00493314
0.00501636
0.00506491
0.00507794
0.00505512
0.00499674
0.00490362
0.00477715
0.00461921
0.00443219
0.00421883
0.00398224
0.00372579
0.00345302
0.00316756
0.00287308
0.00257318
0.00227136
0.0019708
0.00167449
0.00138655
0.00111074
0.0008307
0.00053042
0.00259058
0.00205548
0.00162958
0.00127778
0.00095887
0.000672072
0.000416992
0.000190388
-1.08844e-05
-0.000189591
-0.000348292
-0.000489329
-0.000614801
-0.000726546
-0.000826131
-0.000914861
-0.000993765
-0.00106361
-0.00112492
-0.00117794
-0.00122273
-0.00125908
-0.00128664
-0.00130485
-0.00131302
-0.00131033
-0.00129587
-0.00126867
-0.0012277
-0.00117197
-0.00110048
-0.00101232
-0.000906684
-0.000782896
-0.000640455
-0.000479071
-0.000298684
-9.95067e-05
0.000117958
0.000352892
0.000604144
0.000870216
0.00114926
0.0014391
0.0017372
0.00204074
0.0023466
0.00265141
0.00295162
0.00324352
0.00352333
0.00378726
0.00403157
0.0042527
0.00444728
0.00461227
0.00474499
0.00484321
0.00490521
0.00492981
0.00491644
0.00486512
0.00477647
0.00465173
0.00449268
0.00430163
0.00408135
0.00383498
0.00356599
0.00327807
0.00297503
0.00266076
0.0023391
0.00201381
0.00168838
0.00136604
0.00105139
0.000748613
0.00043952
0.000106447
0.0025637
0.00199813
0.0015489
0.00117875
0.000843912
0.000543363
0.000276491
3.96702e-05
-0.000170613
-0.000357454
-0.000523712
-0.000671995
-0.000804633
-0.000923655
-0.00103079
-0.00112748
-0.00121483
-0.0012937
-0.00136463
-0.0014279
-0.00148355
-0.00153135
-0.00157089
-0.00160154
-0.00162254
-0.00163297
-0.00163178
-0.00161789
-0.00159012
-0.00154733
-0.00148836
-0.00141214
-0.00131768
-0.00120413
-0.00107083
-0.00091731
-0.000743347
-0.000548999
-0.000334629
-0.000100931
0.000151038
0.00041989
0.000703808
0.00100063
0.00130783
0.00162252
0.0019415
0.00226127
0.00257811
0.0028881
0.0031872
0.00347135
0.00373648
0.00397867
0.0041942
0.00437963
0.00453189
0.00464836
0.00472693
0.00476609
0.00476491
0.00472314
0.00464116
0.00452001
0.00436134
0.00416741
0.00394095
0.00368518
0.00340367
0.00310027
0.00277903
0.00244407
0.00209954
0.00174952
0.0013978
0.00104798
0.000705138
0.000373961
3.43851e-05
-0.000332966
0.0024876
0.00189293
0.00142138
0.00103366
0.000683499
0.000369649
9.12692e-05
-0.000155643
-0.000374961
-0.000570105
-0.00074422
-0.000900174
-0.00104051
-0.00116745
-0.00128288
-0.00138833
-0.00148502
-0.00157385
-0.0016554
-0.00172996
-0.00179754
-0.0018579
-0.00191054
-0.00195478
-0.00198975
-0.00201442
-0.00202764
-0.00202816
-0.00201468
-0.00198587
-0.00194042
-0.00187706
-0.00179463
-0.00169211
-0.00156862
-0.00142352
-0.00125641
-0.00106717
-0.000856004
-0.000623471
-0.000370533
-9.83609e-05
0.00019118
0.000495992
0.000813551
0.00114093
0.00147485
0.00181169
0.00214754
0.00247827
0.00279957
0.00310706
0.00339633
0.00366308
0.00390316
0.00411271
0.00428821
0.00442659
0.00452532
0.00458245
0.00459669
0.00456743
0.00449477
0.00437952
0.00422318
0.00402789
0.00379638
0.00353192
0.00323819
0.00291925
0.00257937
0.00222299
0.00185459
0.00147862
0.00109923
0.00072043
0.000347849
-1.32846e-05
-0.000384978
-0.00078839
0.00235893
0.00173658
0.0012438
0.000839325
0.000474505
0.000147849
-0.000141707
-0.000398543
-0.000626884
-0.000830465
-0.00101271
-0.00117674
-0.0013253
-0.00146079
-0.00158524
-0.00170028
-0.00180721
-0.00190698
-0.0020002
-0.00208715
-0.00216781
-0.0022419
-0.00230887
-0.00236794
-0.00241814
-0.00245834
-0.00248724
-0.00250345
-0.00250551
-0.00249192
-0.00246118
-0.00241184
-0.00234255
-0.00225206
-0.00213931
-0.00200345
-0.00184387
-0.00166027
-0.00145268
-0.00122145
-0.000967355
-0.000691723
-0.000396045
-8.24275e-05
0.000246603
0.000588099
0.0009387
0.00129466
0.00165191
0.00200608
0.00235258
0.00268669
0.00300364
0.00329869
0.00356725
0.00380496
0.0040078
0.0041722
0.00429512
0.00437414
0.00440752
0.00439425
0.00433408
0.00422754
0.00407593
0.00388126
0.00364624
0.00337416
0.00306886
0.00273458
0.00237588
0.00199751
0.00160435
0.00120126
0.000792846
0.000383517
-2.04524e-05
-0.000413242
-0.000818901
-0.00126047
0.00217449
0.00152598
0.0010131
0.000592733
0.000213956
-0.000124969
-0.00042534
-0.000691902
-0.000929228
-0.00114136
-0.00133199
-0.00150449
-0.00166179
-0.00180647
-0.00194067
-0.00206614
-0.00218425
-0.00229598
-0.00240195
-0.00250244
-0.00259741
-0.00268651
-0.00276912
-0.00284438
-0.00291121
-0.00296835
-0.00301437
-0.00304773
-0.00306678
-0.00306985
-0.00305525
-0.00302132
-0.0029665
-0.00288933
-0.00278852
-0.00266298
-0.00251191
-0.00233477
-0.00213139
-0.00190196
-0.00164707
-0.00136781
-0.00106566
-0.000742639
-0.00040121
-4.43315e-05
0.000324576
0.000701659
0.00108266
0.00146299
0.00183778
0.00220194
0.00255029
0.00287766
0.00317892
0.00344919
0.0036839
0.00387888
0.00403054
0.0041359
0.0041927
0.00419945
0.0041555
0.00406103
0.00391708
0.00372552
0.00348898
0.00321079
0.00289491
0.00254579
0.00216831
0.00176758
0.00134891
0.000917629
0.000478812
3.73723e-05
-0.000399733
-0.000826029
-0.00126773
-0.00174986
0.00193127
0.00125816
0.000726387
0.000291038
-0.000100956
-0.000451585
-0.000762382
-0.00103845
-0.00128471
-0.00150549
-0.00170476
-0.0018861
-0.00205267
-0.00220718
-0.0023519
-0.00248867
-0.00261892
-0.00274366
-0.00286353
-0.00297879
-0.00308935
-0.00319481
-0.00329449
-0.00338742
-0.00347242
-0.00354808
-0.00361282
-0.00366495
-0.00370265
-0.00372404
-0.00372724
-0.00371037
-0.00367162
-0.00360932
-0.00352192
-0.00340811
-0.00326682
-0.00309728
-0.00289907
-0.00267217
-0.00241699
-0.0021344
-0.00182577
-0.00149299
-0.00113847
-0.000765135
-0.000376451
2.36287e-05
0.00043069
0.000839909
0.00124611
0.00164386
0.00202754
0.00239146
0.00272998
0.0030376
0.00330912
0.00353975
0.00372523
0.00386195
0.00394703
0.00397845
0.00395505
0.00387661
0.00374385
0.00355843
0.00332287
0.00304053
0.00271546
0.00235237
0.00195644
0.00153319
0.0010884
0.00062792
0.000157361
-0.000317819
-0.000789907
-0.00125171
-0.00173176
-0.0022572
0.00162641
0.000930366
0.000380951
-6.8431e-05
-0.000472868
-0.000834607
-0.00115542
-0.00144076
-0.00169588
-0.0019254
-0.00213356
-0.00232415
-0.00250051
-0.0026655
-0.00282151
-0.00297047
-0.00311386
-0.00325272
-0.00338768
-0.00351899
-0.00364652
-0.00376981
-0.00388809
-0.00400029
-0.00410511
-0.00420101
-0.00428627
-0.00435899
-0.0044172
-0.0044588
-0.00448169
-0.00448377
-0.00446299
-0.00441741
-0.00434522
-0.00424484
-0.00411493
-0.00395445
-0.00376272
-0.00353946
-0.00328484
-0.00299953
-0.00268471
-0.00234213
-0.00197408
-0.00158346
-0.00117373
-0.000748929
-0.000313615
0.000127166
0.000567945
0.0010029
0.00142598
0.00183094
0.00221156
0.00256168
0.00287542
0.00314724
0.00337217
0.00354587
0.00366475
0.00372614
0.0037283
0.00367051
0.00355312
0.00337748
0.00314599
0.00286197
0.00252959
0.00215377
0.00174004
0.00129435
0.000823009
0.000332426
-0.00017119
-0.000681776
-0.00119079
-0.00169026
-0.00221118
-0.002783
0.00125727
0.000540025
-2.57231e-05
-0.000488147
-0.000904225
-0.00127646
-0.00160686
-0.00190123
-0.00216514
-0.0024035
-0.00262079
-0.00282102
-0.00300771
-0.00318385
-0.00335196
-0.00351403
-0.00367159
-0.00382571
-0.00397702
-0.00412573
-0.00427169
-0.00441435
-0.00455286
-0.00468605
-0.0048125
-0.00493052
-0.00503823
-0.00513357
-0.00521435
-0.00527828
-0.00532302
-0.00534622
-0.00534557
-0.00531885
-0.00526399
-0.0051791
-0.00506252
-0.00491293
-0.00472935
-0.00451121
-0.0042584
-0.00397133
-0.00365097
-0.00329887
-0.00291719
-0.00250874
-0.00207695
-0.00162592
-0.00116031
-0.000685383
-0.000206903
0.000268931
0.000735577
0.00118626
0.0016141
0.00201224
0.00237402
0.00269312
0.00296371
0.00318063
0.0033395
0.00343688
0.00347033
0.00343856
0.00334141
0.00317989
0.00295619
0.00267355
0.00233624
0.00194939
0.00151887
0.00105113
0.000553001
3.15397e-05
-0.000506397
-0.00105408
-0.00160205
-0.00214149
-0.00270606
-0.00332766
0.000821396
8.47725e-05
-0.000495943
-0.000970382
-0.00139727
-0.00177936
-0.00211892
-0.00242206
-0.00269469
-0.00294198
-0.00316866
-0.00337893
-0.00357649
-0.00376448
-0.0039455
-0.00412163
-0.00429443
-0.00446499
-0.00463395
-0.00480149
-0.00496739
-0.00513105
-0.00529153
-0.00544755
-0.00559756
-0.00573973
-0.00587202
-0.00599218
-0.00609782
-0.00618642
-0.0062554
-0.00630216
-0.0063241
-0.00631873
-0.00628364
-0.00621662
-0.00611571
-0.00597923
-0.00580586
-0.00559471
-0.00534536
-0.00505791
-0.00473306
-0.00437212
-0.00397708
-0.00355059
-0.00309605
-0.00261753
-0.0021198
-0.00160831
-0.00108909
-0.000568736
-5.42621e-05
0.000446969
0.000927394
0.0013794
0.00179548
0.00216843
0.00249148
0.00275854
0.0029643
0.00310443
0.00317569
0.00317608
0.00310484
0.00296254
0.00275107
0.00247354
0.00213427
0.00173859
0.00129274
0.00080364
0.000278748
-0.00027421
-0.000847661
-0.00143413
-0.00202317
-0.00260503
-0.00321624
-0.00389136
0.000316575
-0.000437526
-0.00103179
-0.00151719
-0.00195403
-0.00234533
-0.00269358
-0.00300525
-0.00328652
-0.00354283
-0.00377915
-0.00399988
-0.00420887
-0.0044094
-0.00460417
-0.00479532
-0.00498446
-0.0051727
-0.00536065
-0.00554848
-0.00573591
-0.00592229
-0.00610656
-0.00628736
-0.00646299
-0.00663148
-0.00679063
-0.00693799
-0.00707096
-0.0071868
-0.00728268
-0.00735571
-0.00740301
-0.00742176
-0.00740923
-0.00736286
-0.00728031
-0.00715956
-0.00699889
-0.00679705
-0.00655324
-0.00626723
-0.00593938
-0.00557072
-0.005163
-0.00471869
-0.00424105
-0.00373413
-0.00320274
-0.00265249
-0.00208966
-0.00152121
-0.000954656
-0.00039795
0.000140625
0.000652637
0.00112967
0.00156353
0.00194643
0.00227121
0.00253149
0.00272194
0.00283837
0.00287792
0.00283912
0.00272197
0.00252795
0.00226
0.00192241
0.00152069
0.00106145
0.000552103
7.53734e-07
-0.000584127
-0.00119418
-0.00182112
-0.00245341
-0.00308027
-0.00374135
-0.00447403
-0.000259166
-0.00102877
-0.00163511
-0.00213037
-0.00257628
-0.00297613
-0.00333262
-0.00365255
-0.00394237
-0.00420781
-0.00445402
-0.00468562
-0.00490661
-0.00512039
-0.00532975
-0.00553691
-0.00574351
-0.00595067
-0.006159
-0.00636863
-0.00657924
-0.0067901
-0.00700008
-0.00720769
-0.00741111
-0.00760823
-0.00779666
-0.00797378
-0.00813676
-0.00828263
-0.00840829
-0.00851057
-0.00858627
-0.00863224
-0.0086454
-0.0086228
-0.00856172
-0.00845971
-0.00831466
-0.00812489
-0.00788918
-0.0076069
-0.00727804
-0.00690327
-0.00648403
-0.00602256
-0.00552193
-0.00498609
-0.00441987
-0.00382896
-0.00321988
-0.00259994
-0.00197711
-0.00135998
-0.000757563
-0.000179165
0.000365822
0.00086813
0.00131883
0.00170956
0.00203277
0.00228193
0.00245177
0.0025384
0.00253948
0.00245432
0.00228389
0.00203081
0.00169929
0.001295
0.000824853
0.000296824
-0.00028032
-0.000897302
-0.00154491
-0.00221396
-0.00289172
-0.00356628
-0.00428066
-0.00507529
-0.000907526
-0.00169059
-0.00230749
-0.00281149
-0.00326558
-0.00367329
-0.00403756
-0.00436547
-0.00466377
-0.00493841
-0.00519477
-0.00543765
-0.0056712
-0.00589894
-0.00612375
-0.0063479
-0.00657308
-0.00680043
-0.00703054
-0.00726352
-0.00749899
-0.00773616
-0.00797381
-0.00821035
-0.00844383
-0.00867199
-0.00889227
-0.00910185
-0.00929769
-0.00947657
-0.00963511
-0.00976986
-0.00987729
-0.00995389
-0.00999619
-0.0100009
-0.00996472
-0.0098849
-0.00975883
-0.00958435
-0.00935979
-0.00908404
-0.00875666
-0.00837791
-0.00794885
-0.0074714
-0.00694838
-0.0063836
-0.0057818
-0.00514873
-0.00449109
-0.00381649
-0.00313337
-0.00245092
-0.00177893
-0.00112761
-0.000507381
7.13154e-05
0.000598294
0.00106388
0.00145916
0.00177629
0.00200868
0.00215128
0.0022007
0.00215537
0.0020156
0.0017836
0.0014634
0.00106074
0.000582855
3.82367e-05
-0.000563624
-0.00121259
-0.00189851
-0.00261124
-0.0033367
-0.00406178
-0.00483309
-0.00569439
-0.00162993
-0.00242434
-0.00305026
-0.00356185
-0.00402321
-0.00443807
-0.00480964
-0.00514526
-0.00545194
-0.00573587
-0.00600263
-0.00625719
-0.00650385
-0.00674624
-0.00698733
-0.00722945
-0.00747434
-0.00772313
-0.00797643
-0.0082343
-0.00849634
-0.00876168
-0.00902901
-0.00929665
-0.00956252
-0.00982422
-0.010079
-0.0103239
-0.0105556
-0.0107706
-0.0109654
-0.011136
-0.0112788
-0.0113897
-0.0114649
-0.0115007
-0.0114933
-0.0114396
-0.0113363
-0.0111808
-0.0109709
-0.010705
-0.0103822
-0.0100021
-0.00956552
-0.00907385
-0.00852963
-0.00793641
-0.00729882
-0.00662257
-0.00591447
-0.0051824
-0.00443523
-0.00368275
-0.0029355
-0.00220463
-0.00150168
-0.000838312
-0.000226088
0.000323856
0.000801107
0.00119629
0.00150134
0.00170981
0.00181706
0.00182047
0.0017195
0.00151581
0.00121312
0.000817146
0.000335407
-0.000223084
-0.000848094
-0.00152857
-0.00225334
-0.00301119
-0.00378659
-0.00456507
-0.00539715
-0.00633011
-0.00242748
-0.00323109
-0.00386444
-0.00438246
-0.00485015
-0.00527148
-0.00564986
-0.0059929
-0.00630785
-0.00660113
-0.00687852
-0.00714514
-0.00740543
-0.00766314
-0.00792132
-0.00818237
-0.00844805
-0.00871953
-0.00899739
-0.0092817
-0.009572
-0.00986736
-0.0101664
-0.0104673
-0.010768
-0.0110658
-0.0113578
-0.0116409
-0.0119116
-0.0121661
-0.0124005
-0.0126108
-0.0127926
-0.0129418
-0.013054
-0.013125
-0.0131507
-0.0131272
-0.0130509
-0.0129186
-0.0127275
-0.0124753
-0.0121606
-0.0117825
-0.0113412
-0.0108377
-0.0102741
-0.00965359
-0.00898058
-0.00826069
-0.00750077
-0.00670889
-0.0058943
-0.00506734
-0.00423932
-0.00342234
-0.00262907
-0.0018725
-0.00116567
-0.000521307
4.85001e-05
0.000532654
0.000921407
0.00120669
0.00138238
0.00144457
0.0013917
0.00122463
0.000946669
0.000563405
8.25456e-05
-0.000486391
-0.00113241
-0.00184348
-0.00260734
-0.00341159
-0.00423911
-0.00507395
-0.00597082
-0.00698077
-0.00330099
-0.00411161
-0.00475079
-0.00527406
-0.00574715
-0.00617422
-0.00655891
-0.00690906
-0.00723217
-0.00753485
-0.00782305
-0.00810207
-0.00837649
-0.00865014
-0.00892617
-0.00920704
-0.00949456
-0.00978991
-0.0100937
-0.0104059
-0.0107261
-0.0110533
-0.0113861
-0.0117225
-0.0120603
-0.0123968
-0.0127289
-0.0130532
-0.013366
-0.0136634