/*--------------------------------*- C++ -*----------------------------------*\
| =========                 |                                                 |
| \\      /  F ield         | OpenFOAM: The Open Source CFD Toolbox           |
|  \\    /   O peration     | Version:  2506                                  |
|   \\  /    A nd           | Website:  www.openfoam.com                      |
|    \\/     M anipulation  |                                                 |
\*---------------------------------------------------------------------------*/
FoamFile
{
    version     2.0;
    format      ascii;
    arch        "LSB;label=32;scalar=64";
    class       surfaceScalarField;
    location    "1.675";
    object      phi;
}
// * * * * * * * * * * * * * * * * * * * * * * * * * * * * * * * * * * * * * //

dimensions      [0 3 -1 0 0 0 0];

oriented        oriented;

internalField   nonuniform List<scalar> 
12640
(
2.23659e-10
-2.23603e-10
6.16894e-10
-3.93253e-10
9.34415e-10
-3.17513e-10
1.04311e-09
-1.08704e-10
8.83846e-10
1.59274e-10
4.37329e-10
4.46511e-10
-2.93497e-10
7.30825e-10
-1.29358e-09
1.00009e-09
-2.54153e-09
1.24795e-09
-4.01291e-09
1.47139e-09
-5.68236e-09
1.66945e-09
-7.52469e-09
1.84233e-09
-9.51563e-09
1.99095e-09
-1.16322e-08
2.1166e-09
-1.3853e-08
2.22078e-09
-1.6158e-08
2.30499e-09
-1.85287e-08
2.37072e-09
-2.0948e-08
2.41929e-09
-2.34e-08
2.45193e-09
-2.58696e-08
2.46965e-09
-2.83429e-08
2.4733e-09
-3.08064e-08
2.4635e-09
-3.32472e-08
2.44074e-09
-3.56525e-08
2.40531e-09
-3.80099e-08
2.3574e-09
-4.0307e-08
2.29707e-09
-4.25312e-08
2.22428e-09
-4.46702e-08
2.13896e-09
-4.67112e-08
2.041e-09
-4.86415e-08
1.93028e-09
-5.04482e-08
1.80671e-09
-5.21185e-08
1.67028e-09
-5.36395e-08
1.52105e-09
-5.49987e-08
1.3592e-09
-5.61838e-08
1.18504e-09
-5.71828e-08
9.99031e-10
-5.79846e-08
8.01817e-10
-5.85788e-08
5.94214e-10
-5.89561e-08
3.77243e-10
-5.91082e-08
1.52135e-10
-5.90285e-08
-7.96956e-11
-5.87119e-08
-3.16619e-10
-5.81551e-08
-5.56796e-10
-5.73569e-08
-7.98228e-10
-5.63181e-08
-1.03875e-09
-5.50421e-08
-1.27603e-09
-5.35344e-08
-1.50764e-09
-5.18034e-08
-1.73108e-09
-4.98596e-08
-1.94378e-09
-4.77164e-08
-2.14316e-09
-4.53897e-08
-2.3267e-09
-4.28977e-08
-2.49195e-09
-4.02612e-08
-2.63656e-09
-3.75028e-08
-2.75836e-09
-3.46474e-08
-2.85542e-09
-3.17213e-08
-2.92607e-09
-2.87525e-08
-2.96889e-09
-2.57696e-08
-2.98283e-09
-2.28024e-08
-2.9672e-09
-1.98807e-08
-2.9217e-09
-1.70343e-08
-2.84643e-09
-1.42924e-08
-2.74188e-09
-1.16834e-08
-2.60898e-09
-9.2343e-09
-2.4491e-09
-6.97033e-09
-2.26399e-09
-4.91451e-09
-2.05583e-09
-3.0873e-09
-1.8272e-09
-1.50613e-09
-1.58115e-09
-1.84982e-10
-1.32116e-09
8.66214e-10
-1.05121e-09
1.64214e-09
-7.75921e-10
2.14295e-09
-5.00802e-10
2.37553e-09
-2.32575e-10
2.3553e-09
2.02241e-11
2.10918e-09
2.46125e-10
1.67997e-09
4.29218e-10
1.13317e-09
5.46808e-10
5.67826e-10
5.65335e-10
1.32652e-10
4.3516e-10
1.32648e-10
3.95397e-10
-6.18975e-10
9.03383e-10
-9.01212e-10
1.13529e-09
-5.4941e-10
8.55232e-10
1.71363e-10
-6.9604e-11
1.08411e-09
-1.69763e-09
2.07455e-09
-4.03769e-09
3.07086e-09
-7.06656e-09
4.02896e-09
-1.07416e-08
4.92294e-09
-1.50087e-08
5.73855e-09
-1.98084e-08
6.46904e-09
-2.50785e-08
7.11249e-09
-3.07576e-08
7.67005e-09
-3.67857e-08
8.14472e-09
-4.31055e-08
8.54057e-09
-4.96627e-08
8.86211e-09
-5.64059e-08
9.11396e-09
-6.3287e-08
9.30045e-09
-7.02606e-08
9.42556e-09
-7.72837e-08
9.49275e-09
-8.43153e-08
9.50491e-09
-9.13162e-08
9.46434e-09
-9.82482e-08
9.37279e-09
-1.05074e-07
9.23147e-09
-1.11758e-07
9.04113e-09
-1.18263e-07
8.80215e-09
-1.24554e-07
8.51464e-09
-1.30593e-07
8.17852e-09
-1.36346e-07
7.79362e-09
-1.41775e-07
7.3598e-09
-1.46846e-07
6.87706e-09
-1.51521e-07
6.3456e-09
-1.55766e-07
5.76596e-09
-1.59546e-07
5.13911e-09
-1.62827e-07
4.4665e-09
-1.65578e-07
3.75014e-09
-1.67769e-07
2.99265e-09
-1.69372e-07
2.19737e-09
-1.70363e-07
1.36831e-09
-1.70721e-07
5.10206e-10
-1.7043e-07
-3.71454e-10
-1.69476e-07
-1.27049e-09
-1.67853e-07
-2.18003e-09
-1.65558e-07
-3.09255e-09
-1.62597e-07
-3.99995e-09
-1.58979e-07
-4.89367e-09
-1.54722e-07
-5.76474e-09
-1.4985e-07
-6.60389e-09
-1.44392e-07
-7.40176e-09
-1.38386e-07
-8.14896e-09
-1.31876e-07
-8.83624e-09
-1.24914e-07
-9.45467e-09
-1.17554e-07
-9.99581e-09
-1.09861e-07
-1.04519e-08
-1.019e-07
-1.08158e-08
-9.37448e-08
-1.10816e-08
-8.54696e-08
-1.12442e-08
-7.71525e-08
-1.12999e-08
-6.88735e-08
-1.12462e-08
-6.0713e-08
-1.10822e-08
-5.27511e-08
-1.08083e-08
-4.50665e-08
-1.04265e-08
-3.77352e-08
-9.94036e-09
-3.08293e-08
-9.35502e-09
-2.44161e-08
-8.67717e-09
-1.85568e-08
-7.91511e-09
-1.33053e-08
-7.07877e-09
-8.70671e-09
-6.17972e-09
-4.79652e-09
-5.23134e-09
-1.59863e-09
-4.24908e-09
8.7629e-10
-3.25083e-09
2.6331e-09
-2.25761e-09
3.69515e-09
-1.29464e-09
4.10839e-09
-3.93004e-10
3.94664e-09
4.07889e-10
3.31883e-09
1.05703e-09
2.37782e-09
1.48781e-09
1.32916e-09
1.61397e-09
4.33235e-10
1.33108e-09
5.65873e-10
3.23775e-10
-9.42767e-10
5.59004e-10
-1.13643e-09
2.73122e-10
-2.63523e-10
-8.04143e-10
1.24864e-09
-2.83458e-09
3.11453e-09
-5.89621e-09
5.13619e-09
-1.00056e-08
7.18025e-09
-1.51366e-08
9.15994e-09
-2.12344e-08
1.10207e-08
-2.8226e-08
1.27302e-08
-3.60279e-08
1.42709e-08
-4.45512e-08
1.56359e-08
-5.37057e-08
1.68245e-08
-6.34018e-08
1.78409e-08
-7.35528e-08
1.86915e-08
-8.4075e-08
1.93843e-08
-9.48888e-08
1.99277e-08
-1.05918e-07
2.033e-08
-1.17091e-07
2.05987e-08
-1.28339e-07
2.07407e-08
-1.39596e-07
2.07618e-08
-1.50798e-07
2.06665e-08
-1.61884e-07
2.04586e-08
-1.72793e-07
2.01406e-08
-1.83466e-07
1.97143e-08
-1.93845e-07
1.91807e-08
-2.03871e-07
1.85403e-08
-2.13486e-07
1.77933e-08
-2.22632e-07
1.69397e-08
-2.31252e-07
1.59797e-08
-2.39288e-07
1.49136e-08
-2.46685e-07
1.37424e-08
-2.53386e-07
1.24676e-08
-2.59339e-07
1.10918e-08
-2.64491e-07
9.6186e-09
-2.68794e-07
8.05264e-09
-2.72201e-07
6.39996e-09
-2.74672e-07
4.66802e-09
-2.76169e-07
2.86574e-09
-2.76662e-07
1.00351e-09
-2.76127e-07
-9.06769e-10
-2.74546e-07
-2.85169e-09
-2.7191e-07
-4.81648e-09
-2.68217e-07
-6.78506e-09
-2.63477e-07
-8.7402e-09
-2.57707e-07
-1.06637e-08
-2.50935e-07
-1.25365e-08
-2.432e-07
-1.43391e-08
-2.3455e-07
-1.60518e-08
-2.25044e-07
-1.76549e-08
-2.14751e-07
-1.91289e-08
-2.03751e-07
-2.04552e-08
-1.92131e-07
-2.16161e-08
-1.79987e-07
-2.25953e-08
-1.67425e-07
-2.33782e-08
-1.54554e-07
-2.39522e-08
-1.41491e-07
-2.4307e-08
-1.28356e-07
-2.44347e-08
-1.15272e-07
-2.43306e-08
-1.02362e-07
-2.39925e-08
-8.97485e-08
-2.34216e-08
-7.75527e-08
-2.26223e-08
-6.58907e-08
-2.16023e-08
-5.4873e-08
-2.03727e-08
-4.46022e-08
-1.8948e-08
-3.51714e-08
-1.73459e-08
-2.66621e-08
-1.5588e-08
-1.91425e-08
-1.36993e-08
-1.26651e-08
-1.17087e-08
-7.26458e-09
-9.64963e-09
-2.95498e-09
-7.56043e-09
2.73324e-10
-5.4859e-09
2.45752e-09
-3.47881e-09
3.66705e-09
-1.60252e-09
4.0094e-09
6.55362e-11
3.63664e-09
1.42979e-09
2.75293e-09
2.37151e-09
1.62068e-09
2.74623e-09
5.64529e-10
2.38722e-09
1.13039e-09
1.17052e-10
-1.05981e-09
-1.64964e-10
-8.54415e-10
-1.25458e-09
8.26084e-10
-3.41518e-09
3.40927e-09
-6.80697e-09
6.5063e-09
-1.15083e-08
9.83747e-09
-1.75341e-08
1.32061e-08
-2.48528e-08
1.64787e-08
-3.33997e-08
1.95675e-08
-4.30873e-08
2.24178e-08
-5.38144e-08
2.4998e-08
-6.54714e-08
2.72929e-08
-7.79455e-08
2.92987e-08
-9.11236e-08
3.1019e-08
-1.04894e-07
3.24623e-08
-1.1915e-07
3.36397e-08
-1.33786e-07
3.45635e-08
-1.48702e-07
3.52461e-08
-1.63802e-07
3.56992e-08
-1.78995e-07
3.59334e-08
-1.94191e-07
3.59578e-08
-2.09304e-07
3.57799e-08
-2.24251e-07
3.54057e-08
-2.38951e-07
3.48396e-08
-2.53321e-07
3.40846e-08
-2.67283e-07
3.31428e-08
-2.80758e-07
3.20154e-08
-2.93668e-07
3.0703e-08
-3.05934e-07
2.92064e-08
-3.17481e-07
2.75262e-08
-3.28231e-07
2.56639e-08
-3.3811e-07
2.36215e-08
-3.47045e-07
2.14026e-08
-3.54966e-07
1.90121e-08
-3.61804e-07
1.64565e-08
-3.67496e-07
1.37446e-08
-3.71983e-07
1.08872e-08
-3.75212e-07
7.89731e-09
-3.77137e-07
4.79064e-09
-3.77719e-07
1.58521e-09
-3.76927e-07
-1.69848e-09
-3.74741e-07
-5.03752e-09
-3.71151e-07
-8.40669e-09
-3.66157e-07
-1.17787e-08
-3.59773e-07
-1.51243e-08
-3.52024e-07
-1.84129e-08
-3.42948e-07
-2.16124e-08
-3.32597e-07
-2.46901e-08
-3.21036e-07
-2.76129e-08
-3.08343e-07
-3.03477e-08
-2.9461e-07
-3.28622e-08
-2.7994e-07
-3.51252e-08
-2.64448e-07
-3.71073e-08
-2.48262e-07
-3.87814e-08
-2.31517e-07
-4.01231e-08
-2.14358e-07
-4.11115e-08
-1.96935e-07
-4.17296e-08
-1.79406e-07
-4.19645e-08
-1.61928e-07
-4.18081e-08
-1.44663e-07
-4.12572e-08
-1.27771e-07
-4.0314e-08
-1.11407e-07
-3.89861e-08
-9.57229e-08
-3.72865e-08
-8.08614e-08
-3.52342e-08
-6.69555e-08
-3.28539e-08
-5.41256e-08
-3.01759e-08
-4.24768e-08
-2.72368e-08
-3.20968e-08
-2.40793e-08
-2.30528e-08
-2.07527e-08
-1.5389e-08
-1.73134e-08
-9.12304e-09
-1.38264e-08
-4.24261e-09
-1.03663e-08
-7.01528e-10
-7.01988e-09
1.58504e-09
-3.88908e-09
2.74554e-09
-1.09497e-09
2.95789e-09
1.21744e-09
2.4553e-09
2.8741e-09
1.53267e-09
3.66886e-09
5.55726e-10
3.36415e-09
1.68611e-09
-1.55564e-10
-9.04234e-10
-1.10659e-09
9.6613e-11
-3.19231e-09
2.9118e-09
-6.63826e-09
6.85523e-09
-1.1581e-08
1.14491e-08
-1.80835e-08
1.63399e-08
-2.61493e-08
2.12719e-08
-3.57363e-08
2.60657e-08
-4.67683e-08
3.05996e-08
-5.9145e-08
3.47945e-08
-7.27498e-08
3.86028e-08
-8.74565e-08
4.19996e-08
-1.03134e-07
4.49761e-08
-1.19649e-07
4.75345e-08
-1.36871e-07
4.96843e-08
-1.54671e-07
5.14392e-08
-1.72923e-07
5.28153e-08
-1.91506e-07
5.3829e-08
-2.10303e-07
5.44961e-08
-2.29201e-07
5.48313e-08
-2.4809e-07
5.48473e-08
-2.66865e-07
5.45545e-08
-2.8542e-07
5.39616e-08
-3.03656e-07
5.3075e-08
-3.21471e-07
5.18994e-08
-3.38766e-07
5.04381e-08
-3.55444e-07
4.86935e-08
-3.71408e-07
4.6667e-08
-3.86562e-07
4.43604e-08
-4.00811e-07
4.17754e-08
-4.14062e-07
3.8915e-08
-4.26224e-07
3.57833e-08
-4.37208e-07
3.23862e-08
-4.46928e-07
2.8732e-08
-4.55303e-07
2.48315e-08
-4.62256e-07
2.06983e-08
-4.67719e-07
1.63494e-08
-4.71627e-07
1.18053e-08
-4.73926e-07
7.08965e-09
-4.7457e-07
2.23007e-09
-4.73527e-07
-2.74242e-09
-4.70771e-07
-7.79327e-09
-4.66293e-07
-1.28847e-08
-4.60096e-07
-1.79757e-08
-4.52197e-07
-2.3023e-08
-4.42629e-07
-2.79807e-08
-4.3144e-07
-3.28014e-08
-4.18694e-07
-3.74365e-08
-4.0447e-07
-4.18371e-08
-3.88863e-07
-4.59544e-08
-3.71985e-07
-4.97406e-08
-3.5396e-07
-5.31498e-08
-3.34929e-07
-5.61387e-08
-3.15043e-07
-5.86673e-08
-2.94466e-07
-6.06999e-08
-2.73372e-07
-6.22059e-08
-2.51941e-07
-6.31599e-08
-2.30362e-07
-6.35434e-08
-2.08826e-07
-6.33445e-08
-1.87525e-07
-6.25586e-08
-1.6665e-07
-6.1189e-08
-1.46389e-07
-5.92472e-08
-1.26922e-07
-5.67529e-08
-1.08422e-07
-5.37343e-08
-9.10478e-08
-5.02282e-08
-7.49435e-08
-4.62803e-08
-6.02352e-08
-4.19451e-08
-4.70282e-08
-3.72863e-08
-3.54034e-08
-3.23775e-08
-2.54141e-08
-2.73027e-08
-1.70831e-08
-2.21574e-08
-1.03985e-08
-1.70509e-08
-5.31006e-09
-1.21083e-08
-1.72497e-09
-7.47416e-09
4.96395e-10
-3.31633e-09
1.54524e-09
1.68606e-10
1.66941e-09
2.74993e-09
1.17963e-09
4.15865e-09
4.59887e-10
4.08388e-09
2.146e-09
-4.58176e-10
-4.46044e-10
-2.16497e-09
1.8034e-09
-5.3685e-09
6.11532e-09
-1.0236e-08
1.17228e-08
-1.68643e-08
1.80773e-08
-2.52882e-08
2.47639e-08
-3.5491e-08
3.14747e-08
-4.74142e-08
3.79888e-08
-6.0967e-08
4.41524e-08
-7.60351e-08
4.98626e-08
-9.24879e-08
5.50556e-08
-1.10184e-07
5.96957e-08
-1.28976e-07
6.37685e-08
-1.48716e-07
6.7274e-08
-1.69254e-07
7.0222e-08
-1.90443e-07
7.26284e-08
-2.1214e-07
7.45125e-08
-2.34206e-07
7.58946e-08
-2.56504e-07
7.67947e-08
-2.78904e-07
7.72311e-08
-3.01277e-07
7.72203e-08
-3.23499e-07
7.67759e-08
-3.45446e-07
7.59092e-08
-3.67e-07
7.4629e-08
-3.88043e-07
7.29419e-08
-4.08457e-07
7.08526e-08
-4.28129e-07
6.83648e-08
-4.46943e-07
6.54814e-08
-4.64788e-07
6.22054e-08
-4.81553e-07
5.85403e-08
-4.97129e-07
5.44909e-08
-5.1141e-07
5.00641e-08
-5.24292e-07
4.52692e-08
-5.35679e-07
4.01185e-08
-5.45475e-07
3.46279e-08
-5.53595e-07
2.88175e-08
-5.59957e-07
2.27115e-08
-5.6449e-07
1.63389e-08
-5.67134e-07
9.73327e-09
-5.67837e-07
2.93321e-09
-5.66562e-07
-4.01796e-09
-5.63283e-07
-1.10722e-08
-5.5799e-07
-1.81773e-08
-5.50689e-07
-2.52766e-08
-5.41402e-07
-3.23105e-08
-5.30166e-07
-3.92159e-08
-5.1704e-07
-4.59278e-08
-5.02097e-07
-5.23797e-08
-4.85429e-07
-5.85047e-08
-4.67148e-07
-6.4236e-08
-4.47379e-07
-6.95086e-08
-4.2627e-07
-7.42598e-08
-4.03978e-07
-7.84304e-08
-3.80679e-07
-8.1966e-08
-3.56561e-07
-8.48181e-08
-3.31822e-07
-8.69446e-08
-3.06671e-07
-8.83114e-08
-2.81321e-07
-8.8893e-08
-2.55993e-07
-8.86731e-08
-2.30905e-07
-8.76458e-08
-2.06279e-07
-8.58155e-08
-1.82328e-07
-8.31981e-08
-1.5926e-07
-7.98206e-08
-1.37273e-07
-7.57217e-08
-1.16549e-07
-7.09523e-08
-9.72537e-08
-6.55751e-08
-7.95337e-08
-5.96651e-08
-6.35101e-08
-5.33099e-08
-4.92775e-08
-4.66102e-08
-3.68995e-08
-3.96806e-08
-2.64057e-08
-3.26512e-08
-1.77879e-08
-2.56687e-08
-1.09966e-08
-1.88997e-08
-5.93714e-09
-1.25336e-08
-2.46663e-09
-6.78684e-09
-3.89733e-10
-1.9083e-09
5.45256e-10
1.81495e-09
6.51504e-10
4.05239e-09
3.11915e-10
4.42347e-09
2.45792e-09
-7.71741e-10
3.25698e-10
-3.27869e-09
4.31036e-09
-7.67068e-09
1.05073e-08
-1.40454e-08
1.80975e-08
-2.24487e-08
2.64806e-08
-3.28781e-08
3.51932e-08
-4.52884e-08
4.3885e-08
-5.95992e-08
5.22996e-08
-7.57017e-08
6.02548e-08
-9.34656e-08
6.76265e-08
-1.12745e-07
7.43353e-08
-1.33385e-07
8.03356e-08
-1.55224e-07
8.5607e-08
-1.78097e-07
9.0147e-08
-2.0184e-07
9.39655e-08
-2.26292e-07
9.70802e-08
-2.51293e-07
9.95134e-08
-2.76687e-07
1.01289e-07
-3.02323e-07
1.0243e-07
-3.28052e-07
1.0296e-07
-3.5373e-07
1.02898e-07
-3.79216e-07
1.02262e-07
-4.0437e-07
1.01064e-07
-4.29058e-07
9.93167e-08
-4.53145e-07
9.70283e-08
-4.76497e-07
9.42054e-08
-4.98986e-07
9.0853e-08
-5.2048e-07
8.6976e-08
-5.40854e-07
8.25789e-08
-5.59981e-07
7.76674e-08
-5.77739e-07
7.2249e-08
-5.94008e-07
6.63337e-08
-6.08674e-07
5.9935e-08
-6.21626e-07
5.30702e-08
-6.32759e-07
4.57612e-08
-6.41977e-07
3.80354e-08
-6.49191e-07
2.99255e-08
-6.54323e-07
2.14703e-08
-6.57304e-07
1.27144e-08
-6.5808e-07
3.70909e-09
-6.56609e-07
-5.48868e-09
-6.52865e-07
-1.48159e-08
-6.46839e-07
-2.42038e-08
-6.38536e-07
-3.35789e-08
-6.27984e-07
-4.28631e-08
-6.15225e-07
-5.19745e-08
-6.00324e-07
-6.08286e-08
-5.83365e-07
-6.93392e-08
-5.6445e-07
-7.74193e-08
-5.43704e-07
-8.49826e-08
-5.21267e-07
-9.19449e-08
-4.97302e-07
-9.82248e-08
-4.71987e-07
-1.03746e-07
-4.45515e-07
-1.08438e-07
-4.18095e-07
-1.12238e-07
-3.89948e-07
-1.15091e-07
-3.61305e-07
-1.16954e-07
-3.32406e-07
-1.17793e-07
-3.03493e-07
-1.17586e-07
-2.74812e-07
-1.16326e-07
-2.46608e-07
-1.1402e-07
-2.19121e-07
-1.10686e-07
-1.92581e-07
-1.0636e-07
-1.67211e-07
-1.01092e-07
-1.43214e-07
-9.49493e-08
-1.20777e-07
-8.80117e-08
-1.00065e-07
-8.03772e-08
-8.12154e-08
-7.21594e-08
-6.43372e-08
-6.34885e-08
-4.95055e-08
-5.45123e-08
-3.67592e-08
-4.53975e-08
-2.60969e-08
-3.63309e-08
-1.74742e-08
-2.75224e-08
-1.08e-08
-1.92077e-08
-5.93418e-09
-1.16527e-08
-2.6845e-09
-5.15798e-09
-8.03847e-10
-6.5702e-11
1.29938e-11
3.23555e-09
1.34109e-10
4.30234e-09
2.59201e-09
-1.08621e-09
1.41191e-09
-4.41105e-09
7.63522e-09
-1.0027e-08
1.61232e-08
-1.7957e-08
2.60275e-08
-2.81893e-08
3.6713e-08
-4.06772e-08
4.76811e-08
-5.53412e-08
5.85491e-08
-7.2074e-08
6.90324e-08
-9.07449e-08
7.89257e-08
-1.11205e-07
8.8087e-08
-1.33294e-07
9.64237e-08
-1.5684e-07
1.03881e-07
-1.81667e-07
1.10435e-07
-2.07599e-07
1.16079e-07
-2.34457e-07
1.20824e-07
-2.62066e-07
1.24689e-07
-2.90251e-07
1.27699e-07
-3.18844e-07
1.29882e-07
-3.47678e-07
1.31264e-07
-3.76591e-07
1.31873e-07
-4.05423e-07
1.3173e-07
-4.34018e-07
1.30857e-07
-4.62224e-07
1.2927e-07
-4.89889e-07
1.26982e-07
-5.16865e-07
1.24004e-07
-5.43005e-07
1.20345e-07
-5.68164e-07
1.16012e-07
-5.92199e-07
1.11011e-07
-6.14969e-07
1.05349e-07
-6.36336e-07
9.90343e-08
-6.56165e-07
9.20775e-08
-6.74323e-07
8.44925e-08
-6.90686e-07
7.62973e-08
-7.05131e-07
6.75152e-08
-7.17545e-07
5.8175e-08
-7.27821e-07
4.83122e-08
-7.35865e-07
3.79689e-08
-7.41589e-07
2.71949e-08
-7.44922e-07
1.60472e-08
-7.45803e-07
4.5905e-09
-7.44189e-07
-7.10293e-09
-7.40051e-07
-1.89537e-08
-7.3338e-07
-3.08755e-08
-7.24183e-07
-4.2776e-08
-7.12488e-07
-5.45574e-08
-6.98345e-07
-6.61173e-08
-6.81824e-07
-7.73502e-08
-6.63015e-07
-8.81484e-08
-6.42031e-07
-9.84034e-08
-6.19005e-07
-1.08008e-07
-5.94094e-07
-1.16856e-07
-5.67472e-07
-1.24847e-07
-5.39332e-07
-1.31886e-07
-5.09885e-07
-1.37885e-07
-4.79359e-07
-1.42764e-07
-4.47995e-07
-1.46456e-07
-4.16043e-07
-1.48906e-07
-3.83765e-07
-1.50071e-07
-3.51426e-07
-1.49925e-07
-3.19294e-07
-1.48458e-07
-2.87638e-07
-1.45676e-07
-2.5672e-07
-1.41604e-07
-2.26795e-07
-1.36285e-07
-1.98105e-07
-1.29783e-07
-1.70876e-07
-1.22178e-07
-1.45316e-07
-1.13572e-07
-1.21607e-07
-1.04086e-07
-9.99047e-08
-9.38619e-08
-8.03324e-08
-8.30607e-08
-6.29794e-08
-7.18653e-08
-4.78961e-08
-6.04809e-08
-3.50911e-08
-4.91359e-08
-2.45288e-08
-3.80847e-08
-1.61262e-08
-2.76104e-08
-9.75101e-09
-1.80279e-08
-5.21981e-09
-9.68919e-09
-2.29652e-09
-2.98898e-09
-6.91211e-10
1.63026e-09
-5.92999e-11
3.67043e-09
2.5327e-09
-1.39639e-09
2.80828e-09
-5.54056e-09
1.17794e-08
-1.2392e-08
2.29746e-08
-2.1898e-08
3.55335e-08
-3.39858e-08
4.88008e-08
-4.85599e-08
6.22552e-08
-6.55022e-08
7.54914e-08
-8.46744e-08
8.82046e-08
-1.05921e-07
1.00172e-07
-1.29072e-07
1.11239e-07
-1.5395e-07
1.21301e-07
-1.80367e-07
1.30299e-07
-2.08134e-07
1.38202e-07
-2.37061e-07
1.45005e-07
-2.66956e-07
1.50719e-07
-2.97631e-07
1.55364e-07
-3.28901e-07
1.58969e-07
-3.60582e-07
1.61563e-07
-3.92497e-07
1.63179e-07
-4.24469e-07
1.63845e-07
-4.56327e-07
1.63588e-07
-4.87901e-07
1.62432e-07
-5.19027e-07
1.60395e-07
-5.49539e-07
1.57494e-07
-5.79276e-07
1.53742e-07
-6.08079e-07
1.49148e-07
-6.3579e-07
1.43723e-07
-6.62253e-07
1.37474e-07
-6.87316e-07
1.30412e-07
-7.10829e-07
1.22547e-07
-7.32644e-07
1.13893e-07
-7.5262e-07
1.04469e-07
-7.7062e-07
9.42973e-08
-7.86513e-07
8.34085e-08
-8.00177e-07
7.18389e-08
-8.11498e-07
5.96327e-08
-8.20372e-07
4.68426e-08
-8.26707e-07
3.353e-08
-8.30425e-07
1.97652e-08
-8.31462e-07
5.62761e-09
-8.2977e-07
-8.79426e-09
-8.25321e-07
-2.34035e-08
-8.18101e-07
-3.80949e-08
-8.08121e-07
-5.27562e-08
-7.9541e-07
-6.72684e-08
-7.8002e-07
-8.15076e-08
-7.62025e-07
-9.53454e-08
-7.41521e-07
-1.08651e-07
-7.1863e-07
-1.21294e-07
-6.93494e-07
-1.33144e-07
-6.66279e-07
-1.44072e-07
-6.37169e-07
-1.53956e-07
-6.06374e-07
-1.62681e-07
-5.74119e-07
-1.7014e-07
-5.40647e-07
-1.76236e-07
-5.06216e-07
-1.80887e-07
-4.71097e-07
-1.84025e-07
-4.35569e-07
-1.85599e-07
-3.99919e-07
-1.85574e-07
-3.64438e-07
-1.83939e-07
-3.29413e-07
-1.807e-07
-2.95131e-07
-1.75886e-07
-2.61867e-07
-1.69549e-07
-2.29886e-07
-1.61763e-07
-1.99436e-07
-1.52628e-07
-1.70744e-07
-1.42264e-07
-1.44011e-07
-1.30819e-07
-1.19413e-07
-1.18461e-07
-9.7088e-08
-1.05385e-07
-7.7142e-08
-9.18113e-08
-5.96395e-08
-7.79834e-08
-4.46021e-08
-6.41732e-08
-3.20064e-08
-5.06804e-08
-2.17813e-08
-3.78355e-08
-1.38065e-08
-2.60027e-08
-7.91184e-09
-1.55838e-08
-3.87692e-09
-7.0239e-09
-1.43189e-09
-8.14762e-10
-2.59653e-10
2.49819e-09
2.27305e-09
-1.69967e-09
4.50794e-09
-6.6547e-09
1.67345e-08
-1.47372e-08
3.10571e-08
-2.58203e-08
4.66166e-08
-3.9769e-08
6.27495e-08
-5.64366e-08
7.89228e-08
-7.56635e-08
9.47183e-08
-9.72773e-08
1.09818e-07
-1.21095e-07
1.2399e-07
-1.46924e-07
1.37068e-07
-1.74567e-07
1.48944e-07
-2.03821e-07
1.59552e-07
-2.34481e-07
1.68863e-07
-2.66345e-07
1.76869e-07
-2.99209e-07
1.83583e-07
-3.32872e-07
1.89028e-07
-3.67139e-07
1.93235e-07
-4.01814e-07
1.96238e-07
-4.36708e-07
1.98073e-07
-4.71635e-07
1.98771e-07
-5.0641e-07
1.98364e-07
-5.40855e-07
1.96876e-07
-5.7479e-07
1.9433e-07
-6.08041e-07
1.90745e-07
-6.40435e-07
1.86135e-07
-6.718e-07
1.80514e-07
-7.01968e-07
1.73891e-07
-7.30773e-07
1.66279e-07
-7.5805e-07
1.57689e-07
-7.83639e-07
1.48135e-07
-8.07382e-07
1.37637e-07
-8.29129e-07
1.26215e-07
-8.48733e-07
1.13901e-07
-8.66054e-07
1.0073e-07
-8.80961e-07
8.67464e-08
-8.93334e-07
7.20051e-08
-9.0306e-07
5.65694e-08
-9.10043e-07
4.05131e-08
-9.14199e-07
2.39207e-08
-9.15459e-07
6.88723e-09
-9.13771e-07
-1.04819e-08
-9.09103e-07
-2.80711e-08
-9.01443e-07
-4.57555e-08
-8.90797e-07
-6.34016e-08
-8.77197e-07
-8.08685e-08
-8.60696e-07
-9.80088e-08
-8.4137e-07
-1.14671e-07
-8.19322e-07
-1.307e-07
-7.94676e-07
-1.45941e-07
-7.67582e-07
-1.60238e-07
-7.38214e-07
-1.7344e-07
-7.06768e-07
-1.85402e-07
-6.73463e-07
-1.95986e-07
-6.38537e-07
-2.05065e-07
-6.02248e-07
-2.12525e-07
-5.6487e-07
-2.18265e-07
-5.26691e-07
-2.22205e-07
-4.88008e-07
-2.24282e-07
-4.49127e-07
-2.24455e-07
-4.1036e-07
-2.22707e-07
-3.72015e-07
-2.19045e-07
-3.344e-07
-2.13501e-07
-2.97812e-07
-2.06136e-07
-2.62539e-07
-1.97036e-07
-2.2885e-07
-1.86317e-07
-1.96993e-07
-1.74121e-07
-1.67191e-07
-1.60621e-07
-1.39637e-07
-1.46015e-07
-1.14491e-07
-1.30531e-07
-9.18751e-08
-1.14427e-07
-7.18708e-08
-9.79877e-08
-5.45159e-08
-8.15281e-08
-3.98023e-08
-6.5394e-08
-2.76739e-08
-4.99639e-08
-1.8026e-08
-3.56506e-08
-1.07048e-08
-2.2905e-08
-5.50882e-09
-1.22199e-08
-2.19073e-09
-4.13286e-09
-4.61935e-10
7.69391e-10
1.81112e-09
-1.99484e-09
6.50277e-09
-7.74629e-09
2.24859e-08
-1.7045e-08
4.03559e-08
-2.96923e-08
5.92639e-08
-4.54914e-08
7.85486e-08
-6.42436e-08
9.7675e-08
-8.57457e-08
1.1622e-07
-1.0979e-07
1.33862e-07
-1.36162e-07
1.50363e-07
-1.64648e-07
1.65553e-07
-1.95027e-07
1.79323e-07
-2.2708e-07
1.91606e-07
-2.60589e-07
2.02371e-07
-2.95335e-07
2.11615e-07
-3.31105e-07
2.19352e-07
-3.67687e-07
2.25609e-07
-4.04873e-07
2.30421e-07
-4.4246e-07
2.33825e-07
-4.80247e-07
2.3586e-07
-5.18038e-07
2.36562e-07
-5.55639e-07
2.35965e-07
-5.92861e-07
2.34098e-07
-6.29515e-07
2.30985e-07
-6.65417e-07
2.26647e-07
-7.00382e-07
2.21101e-07
-7.34231e-07
2.14362e-07
-7.66783e-07
2.06444e-07
-7.97864e-07
1.97359e-07
-8.27298e-07
1.87123e-07
-8.54917e-07
1.75754e-07
-8.80553e-07
1.63273e-07
-9.04047e-07
1.49709e-07
-9.25243e-07
1.35097e-07
-9.43993e-07
1.1948e-07
-9.60159e-07
1.02913e-07
-9.73613e-07
8.54582e-08
-9.84235e-07
6.71918e-08
-9.91923e-07
4.82006e-08
-9.96585e-07
2.85836e-08
-9.9815e-07
8.45202e-09
-9.96561e-07
-1.2071e-08
-9.91782e-07
-3.28506e-08
-9.83796e-07
-5.37412e-08
-9.7261e-07
-7.45874e-08
-9.58254e-07
-9.52252e-08
-9.40779e-07
-1.15483e-07
-9.20265e-07
-1.35185e-07
-8.96815e-07
-1.5415e-07
-8.70559e-07
-1.72197e-07
-8.41649e-07
-1.89147e-07
-8.10268e-07
-2.04822e-07
-7.76618e-07
-2.19052e-07
-7.40929e-07
-2.31676e-07
-7.03449e-07
-2.42545e-07
-6.6445e-07
-2.51524e-07
-6.24218e-07
-2.58497e-07
-5.83058e-07
-2.63365e-07
-5.41285e-07
-2.66055e-07
-4.99223e-07
-2.66516e-07
-4.57204e-07
-2.64727e-07
-4.15557e-07
-2.60692e-07
-3.74611e-07
-2.54447e-07
-3.34687e-07
-2.4606e-07
-2.96094e-07
-2.3563e-07
-2.59124e-07
-2.23287e-07
-2.24048e-07
-2.09198e-07
-1.91111e-07
-1.93557e-07
-1.60529e-07
-1.76597e-07
-1.32481e-07
-1.58579e-07
-1.07111e-07
-1.39797e-07
-8.45199e-08
-1.20579e-07
-6.47635e-08
-1.01285e-07
-4.7852e-08
-8.23055e-08
-3.37475e-08
-6.40684e-08
-2.23633e-08
-4.70348e-08
-1.35647e-08
-3.17036e-08
-7.17071e-09
-1.86139e-08
-2.95735e-09
-8.34622e-09
-6.63539e-10
-1.52442e-09
1.14758e-09
-2.28138e-09
8.78415e-09
-8.81124e-09
2.90158e-08
-1.93042e-08
5.08489e-08
-3.34928e-08
7.34525e-08
-5.112e-08
9.61758e-08
-7.19349e-08
1.1849e-07
-9.56902e-08
1.39976e-07
-1.22141e-07
1.60313e-07
-1.51043e-07
1.79264e-07
-1.82154e-07
1.96664e-07
-2.15234e-07
2.12403e-07
-2.50046e-07
2.26418e-07
-2.86356e-07
2.38681e-07
-3.23932e-07
2.49192e-07
-3.62549e-07
2.57969e-07
-4.01985e-07
2.65045e-07
-4.42022e-07
2.70458e-07
-4.82446e-07
2.7425e-07
-5.2305e-07
2.76464e-07
-5.63628e-07
2.7714e-07
-6.03977e-07
2.76314e-07
-6.43898e-07
2.74019e-07
-6.83196e-07
2.70282e-07
-7.21675e-07
2.65126e-07
-7.59145e-07
2.5857e-07
-7.95415e-07
2.50632e-07
-8.30298e-07
2.41326e-07
-8.63608e-07
2.30669e-07
-8.95163e-07
2.18679e-07
-9.24785e-07
2.05376e-07
-9.52299e-07
1.90787e-07
-9.77536e-07
1.74946e-07
-1.00033e-06
1.57894e-07
-1.02054e-06
1.39682e-07
-1.038e-06
1.20373e-07
-1.05258e-06
1.0004e-07
-1.06416e-06
7.87712e-08
-1.07262e-06
5.66665e-08
-1.07788e-06
3.384e-08
-1.07985e-06
1.04197e-08
-1.07846e-06
-1.34532e-08
-1.07369e-06
-3.7624e-08
-1.06551e-06
-6.19258e-08
-1.05391e-06
-8.61806e-08
-1.03894e-06
-1.102e-07
-1.02063e-06
-1.33789e-07
-9.99073e-07
-1.56744e-07
-9.74364e-07
-1.78859e-07
-9.46637e-07
-1.99925e-07
-9.16048e-07
-2.19735e-07
-8.82783e-07
-2.38087e-07
-8.47052e-07
-2.54783e-07
-8.0909e-07
-2.69638e-07
-7.69156e-07
-2.82478e-07
-7.27533e-07
-2.93148e-07
-6.8452e-07
-3.01509e-07
-6.40437e-07
-3.07448e-07
-5.95616e-07
-3.10876e-07
-5.50399e-07
-3.11733e-07
-5.05136e-07
-3.0999e-07
-4.6018e-07
-3.05648e-07
-4.1588e-07
-2.98747e-07
-3.72582e-07
-2.89358e-07
-3.30617e-07
-2.77594e-07
-2.90303e-07
-2.63602e-07
-2.51934e-07
-2.47566e-07
-2.15781e-07
-2.29711e-07
-1.82083e-07
-2.10296e-07
-1.51042e-07
-1.89619e-07
-1.22826e-07
-1.68013e-07
-9.75566e-08
-1.45849e-07
-7.53123e-08
-1.23529e-07
-5.61238e-08
-1.01494e-07
-3.99735e-08
-8.02187e-08
-2.67951e-08
-6.02132e-08
-1.64744e-08
-4.20242e-08
-8.85203e-09
-2.62363e-08
-3.72701e-09
-1.34712e-08
-8.63467e-10
-4.38794e-09
2.84117e-10
-2.55911e-09
1.13433e-08
-9.8472e-09
3.63039e-08
-2.15077e-08
6.25093e-08
-3.72077e-08
8.91524e-08
-5.66315e-08
1.156e-07
-7.9477e-08
1.41335e-07
-1.05453e-07
1.65951e-07
-1.34276e-07
1.89136e-07
-1.65672e-07
2.1066e-07
-1.9937e-07
2.30363e-07
-2.35111e-07
2.48143e-07
-2.72636e-07
2.63943e-07
-3.11697e-07
2.77742e-07
-3.52049e-07
2.89544e-07
-3.93456e-07
2.99376e-07
-4.35684e-07
3.07273e-07
-4.78507e-07
3.13281e-07
-5.21703e-07
3.17447e-07
-5.65056e-07
3.19817e-07
-6.08351e-07
3.20435e-07
-6.5138e-07
3.19343e-07
-6.93936e-07
3.16575e-07
-7.35814e-07
3.12161e-07
-7.76814e-07
3.06126e-07
-8.16735e-07
2.98492e-07
-8.55381e-07
2.89277e-07
-8.92555e-07
2.78501e-07
-9.28065e-07
2.6618e-07
-9.61722e-07
2.52336e-07
-9.93339e-07
2.36992e-07
-1.02273e-06
2.20181e-07
-1.04973e-06
2.01941e-07
-1.07415e-06
1.82319e-07
-1.09585e-06
1.61375e-07
-1.11465e-06
1.39179e-07
-1.13043e-06
1.15816e-07
-1.14304e-06
9.13853e-08
-1.15238e-06
6.60007e-08
-1.15833e-06
3.97914e-08
-1.16081e-06
1.29022e-08
-1.15976e-06
-1.4507e-08
-1.15512e-06
-4.22615e-08
-1.14687e-06
-7.01728e-08
-1.13501e-06
-9.80394e-08
-1.11956e-06
-1.25649e-07
-1.10057e-06
-1.5278e-07
-1.07812e-06
-1.79202e-07
-1.05229e-06
-2.04682e-07
-1.02323e-06
-2.28983e-07
-9.911e-07
-2.5187e-07
-9.56075e-07
-2.73111e-07
-9.18376e-07
-2.92483e-07
-8.78243e-07
-3.09771e-07
-8.35944e-07
-3.24777e-07
-7.9177e-07
-3.37322e-07
-7.46035e-07
-3.47245e-07
-6.99069e-07
-3.54413e-07
-6.51223e-07
-3.58723e-07
-6.02856e-07
-3.601e-07
-5.54339e-07
-3.58507e-07
-5.06045e-07
-3.53942e-07
-4.58348e-07
-3.46443e-07
-4.11617e-07
-3.3609e-07
-3.6621e-07
-3.23002e-07
-3.22469e-07
-3.07343e-07
-2.80716e-07
-2.89318e-07
-2.41249e-07
-2.69178e-07
-2.04331e-07
-2.47213e-07
-1.70194e-07
-2.23756e-07
-1.39029e-07
-1.99179e-07
-1.10984e-07
-1.73894e-07
-8.61599e-08
-1.48353e-07
-6.46121e-08
-1.23042e-07
-4.63453e-08
-9.84855e-08
-3.13152e-08
-7.52433e-08
-1.94295e-08
-5.39099e-08
-1.05503e-08
-3.51154e-08
-4.49896e-09
-1.95226e-08
-1.06181e-09
-7.82508e-09
-7.77685e-10
-2.82797e-09
1.41712e-08
-1.08528e-08
4.43287e-08
-2.36507e-08
7.53073e-08
-4.08267e-08
1.06328e-07
-6.20087e-08
1.36782e-07
-8.68446e-08
1.66171e-07
-1.14999e-07
1.94106e-07
-1.46153e-07
2.20289e-07
-1.79997e-07
2.44505e-07
-2.16238e-07
2.66604e-07
-2.5459e-07
2.86495e-07
-2.94779e-07
3.04132e-07
-3.36538e-07
3.19501e-07
-3.79611e-07
3.32617e-07
-4.23749e-07
3.43514e-07
-4.68709e-07
3.52234e-07
-5.14257e-07
3.58829e-07
-5.60163e-07
3.63352e-07
-6.06202e-07
3.65856e-07
-6.52154e-07
3.66388e-07
-6.97803e-07
3.64993e-07
-7.42937e-07
3.61708e-07
-7.87344e-07
3.56568e-07
-8.30817e-07
3.49598e-07
-8.73149e-07
3.40824e-07
-9.14136e-07
3.30265e-07
-9.53578e-07
3.17942e-07
-9.91273e-07
3.03875e-07
-1.02703e-06
2.88088e-07
-1.06064e-06
2.70609e-07
-1.09193e-06
2.51473e-07
-1.12072e-06
2.30724e-07
-1.14681e-06
2.08415e-07
-1.17005e-06
1.84614e-07
-1.19027e-06
1.59399e-07
-1.20732e-06
1.32867e-07
-1.22107e-06
1.05127e-07
-1.23137e-06
7.63079e-08
-1.23813e-06
4.65533e-08
-1.24126e-06
1.60251e-08
-1.24067e-06
-1.50983e-08
-1.23631e-06
-4.66218e-08
-1.22814e-06
-7.83348e-08
-1.21617e-06
-1.10013e-07
-1.2004e-06
-1.41418e-07
-1.18088e-06
-1.72301e-07
-1.15768e-06
-2.02407e-07
-1.13089e-06
-2.31472e-07
-1.10064e-06
-2.5923e-07
-1.06709e-06
-2.85417e-07
-1.03043e-06
-3.09771e-07
-9.90874e-07
-3.32039e-07
-9.48667e-07
-3.51977e-07
-9.04085e-07
-3.6936e-07
-8.57425e-07
-3.83981e-07
-8.09013e-07
-3.95657e-07
-7.59194e-07
-4.04232e-07
-7.08332e-07
-4.09584e-07
-6.56807e-07
-4.11625e-07
-6.05008e-07
-4.10306e-07
-5.53332e-07
-4.05618e-07
-5.02177e-07
-3.97599e-07
-4.51937e-07
-3.8633e-07
-4.02998e-07
-3.71941e-07
-3.5573e-07
-3.5461e-07
-3.10486e-07
-3.34563e-07
-2.6759e-07
-3.12074e-07
-2.27337e-07
-2.87466e-07
-1.89987e-07
-2.61106e-07
-1.5576e-07
-2.33406e-07
-1.2483e-07
-2.04823e-07
-9.73277e-08
-1.75855e-07
-7.33324e-08
-1.47037e-07
-5.28738e-08
-1.18944e-07
-3.59313e-08
-9.21858e-08
-2.24352e-08
-6.7406e-08
-1.22693e-08
-4.52813e-08
-5.27536e-09
-2.65165e-08
-1.2594e-09
-1.1841e-08
-2.03708e-09
-3.08795e-09
1.72592e-08
-1.18269e-08
5.30676e-08
-2.57298e-08
8.92102e-08
-4.43424e-08
1.24941e-07
-6.72385e-08
1.59678e-07
-9.40177e-08
1.9295e-07
-1.24302e-07
2.24391e-07
-1.57735e-07
2.53722e-07
-1.93977e-07
2.80747e-07
-2.32706e-07
3.05333e-07
-2.73616e-07
3.27404e-07
-3.16411e-07
3.46927e-07
-3.60812e-07
3.63901e-07
-4.06547e-07
3.78353e-07
-4.53357e-07
3.90323e-07
-5.0099e-07
3.99866e-07
-5.49202e-07
4.07041e-07
-5.97757e-07
4.11907e-07
-6.46424e-07
4.14523e-07
-6.94977e-07
4.14941e-07
-7.43193e-07
4.13209e-07
-7.90855e-07
4.0937e-07
-8.37747e-07
4.03459e-07
-8.83654e-07
3.95506e-07
-9.28366e-07
3.85536e-07
-9.71673e-07
3.73572e-07
-1.01337e-06
3.59637e-07
-1.05324e-06
3.43752e-07
-1.0911e-06
3.25944e-07
-1.12674e-06
3.06245e-07
-1.15996e-06
2.84693e-07
-1.19057e-06
2.61337e-07
-1.21839e-06
2.36238e-07
-1.24325e-06
2.09467e-07
-1.26496e-06
1.81115e-07
-1.28338e-06
1.51287e-07
-1.29836e-06
1.20103e-07
-1.30976e-06
8.77059e-08
-1.31746e-06
5.42542e-08
-1.32136e-06
1.99263e-08
-1.32138e-06
-1.50807e-08