/*--------------------------------*- C++ -*----------------------------------*\
| =========                 |                                                 |
| \\      /  F ield         | OpenFOAM: The Open Source CFD Toolbox           |
|  \\    /   O peration     | Version:  2506                                  |
|   \\  /    A nd           | Website:  www.openfoam.com                      |
|    \\/     M anipulation  |                                                 |
\*---------------------------------------------------------------------------*/
FoamFile
{
    version     2.0;
    format      ascii;
    arch        "LSB;label=32;scalar=64";
    class       volVectorField;
    location    "1.675";
    object      U;
}
// * * * * * * * * * * * * * * * * * * * * * * * * * * * * * * * * * * * * * //

dimensions      [0 1 -1 0 0 0 0];

internalField   nonuniform List<vector> 
6400
(
(8.72405e-06 -8.70658e-06 0)
(3.39902e-05 -1.6007e-05 0)
(6.44131e-05 -1.46676e-05 0)
(8.32344e-05 -8.8957e-06 0)
(8.19992e-05 -1.37525e-06 0)
(5.79718e-05 6.54668e-06 0)
(1.07777e-05 1.42085e-05 0)
(-5.87365e-05 2.13008e-05 0)
(-0.000149036 2.76937e-05 0)
(-0.000258237 3.33494e-05 0)
(-0.000384317 3.82791e-05 0)
(-0.000525234 4.2518e-05 0)
(-0.000678998 4.61133e-05 0)
(-0.000843713 4.91168e-05 0)
(-0.0010176 5.15815e-05 0)
(-0.00119899 5.35564e-05 0)
(-0.00138636 5.50882e-05 0)
(-0.00157828 5.62159e-05 0)
(-0.00177343 5.69749e-05 0)
(-0.00197058 5.73944e-05 0)
(-0.00216857 5.74968e-05 0)
(-0.0023663 5.72991e-05 0)
(-0.00256273 5.68128e-05 0)
(-0.00275682 5.60448e-05 0)
(-0.00294757 5.49982e-05 0)
(-0.00313399 5.36726e-05 0)
(-0.00331509 5.20655e-05 0)
(-0.00348987 5.01722e-05 0)
(-0.00365731 4.79871e-05 0)
(-0.00381641 4.55043e-05 0)
(-0.00396614 4.27188e-05 0)
(-0.00410546 3.96268e-05 0)
(-0.00423336 3.62265e-05 0)
(-0.0043488 3.25193e-05 0)
(-0.0044508 2.85091e-05 0)
(-0.00453838 2.42043e-05 0)
(-0.00461061 1.96183e-05 0)
(-0.00466664 1.47681e-05 0)
(-0.00470566 9.67639e-06 0)
(-0.00472697 4.37133e-06 0)
(-0.00472997 -1.11428e-06 0)
(-0.00471419 -6.74199e-06 0)
(-0.00467929 -1.24674e-05 0)
(-0.00462508 -1.82419e-05 0)
(-0.00455156 -2.40128e-05 0)
(-0.00445888 -2.97221e-05 0)
(-0.00434739 -3.53092e-05 0)
(-0.00421766 -4.0712e-05 0)
(-0.00407043 -4.5866e-05 0)
(-0.00390668 -5.07056e-05 0)
(-0.00372755 -5.51668e-05 0)
(-0.00353444 -5.91874e-05 0)
(-0.00332889 -6.27073e-05 0)
(-0.00311264 -6.56703e-05 0)
(-0.0028876 -6.80269e-05 0)
(-0.00265583 -6.97336e-05 0)
(-0.0024195 -7.07538e-05 0)
(-0.00218088 -7.10592e-05 0)
(-0.00194232 -7.06317e-05 0)
(-0.00170621 -6.94627e-05 0)
(-0.00147493 -6.75528e-05 0)
(-0.00125085 -6.49128e-05 0)
(-0.0010363 -6.15645e-05 0)
(-0.00083349 -5.75406e-05 0)
(-0.000644517 -5.28823e-05 0)
(-0.000471321 -4.76404e-05 0)
(-0.00031565 -4.18757e-05 0)
(-0.000179027 -3.56593e-05 0)
(-6.27192e-05 -2.90713e-05 0)
(3.23055e-05 -2.22031e-05 0)
(0.000105422 -1.51604e-05 0)
(0.000156407 -8.07146e-06 0)
(0.000185514 -1.09815e-06 0)
(0.000193596 5.54214e-06 0)
(0.000182292 1.15357e-05 0)
(0.000154315 1.6402e-05 0)
(0.000113832 1.93884e-05 0)
(6.72136e-05 1.92694e-05 0)
(2.52927e-05 1.42052e-05 0)
(3.62282e-06 3.63536e-06 0)
(1.61244e-05 -3.40329e-05 0)
(5.46904e-05 -5.44567e-05 0)
(8.89217e-05 -4.15562e-05 0)
(9.08405e-05 -9.9844e-06 0)
(4.45106e-05 3.06349e-05 0)
(-5.69952e-05 7.45319e-05 0)
(-0.00021586 0.000118318 0)
(-0.000431232 0.00016005 0)
(-0.000700301 0.000198661 0)
(-0.00101907 0.000233618 0)
(-0.00138291 0.000264715 0)
(-0.00178689 0.00029194 0)
(-0.00222603 0.000315406 0)
(-0.00269546 0.000335291 0)
(-0.00319047 0.000351809 0)
(-0.00370657 0.000365185 0)
(-0.00423957 0.000375641 0)
(-0.00478546 0.000383379 0)
(-0.00534052 0.000388583 0)
(-0.00590122 0.000391411 0)
(-0.0064642 0.000391991 0)
(-0.00702627 0.000390424 0)
(-0.00758433 0.000386786 0)
(-0.00813539 0.000381124 0)
(-0.00867651 0.000373469 0)
(-0.00920478 0.000363832 0)
(-0.00971731 0.000352212 0)
(-0.0102112 0.000338598 0)
(-0.0106836 0.000322977 0)
(-0.0111316 0.000305334 0)
(-0.0115523 0.000285658 0)
(-0.0119428 0.000263952 0)
(-0.0123003 0.000240228 0)
(-0.012622 0.000214518 0)
(-0.0129051 0.000186874 0)
(-0.013147 0.000157373 0)
(-0.0133452 0.000126118 0)
(-0.0134975 9.32407e-05 0)
(-0.0136017 5.89048e-05 0)
(-0.013656 2.33048e-05 0)
(-0.013659 -1.33332e-05 0)
(-0.0136093 -5.07521e-05 0)
(-0.0135063 -8.86637e-05 0)
(-0.0133496 -0.000126752 0)
(-0.0131392 -0.000164675 0)
(-0.0128758 -0.000202071 0)
(-0.0125604 -0.000238557 0)
(-0.0121947 -0.000273739 0)
(-0.0117808 -0.000307218 0)
(-0.0113214 -0.000338592 0)
(-0.0108199 -0.000367464 0)
(-0.0102799 -0.00039345 0)
(-0.00970589 -0.000416189 0)
(-0.0091025 -0.000435342 0)
(-0.00847499 -0.000450606 0)
(-0.00782891 -0.00046172 0)
(-0.00717018 -0.000468467 0)
(-0.00650495 -0.000470684 0)
(-0.00583954 -0.000468263 0)
(-0.0051804 -0.000461157 0)
(-0.00453395 -0.000449384 0)
(-0.00390658 -0.000433023 0)
(-0.0033045 -0.000412224 0)
(-0.00273365 -0.000387199 0)
(-0.00219963 -0.000358227 0)
(-0.00170762 -0.000325652 0)
(-0.00126222 -0.000289888 0)
(-0.000867431 -0.000251415 0)
(-0.000526507 -0.000210786 0)
(-0.000241851 -0.00016864 0)
(-1.48868e-05 -0.000125718 0)
(0.000154105 -8.29001e-05 0)
(0.000266187 -4.12559e-05 0)
(0.000324044 -2.13709e-06 0)
(0.000332363 3.26832e-05 0)
(0.000298334 6.08018e-05 0)
(0.000232126 7.89169e-05 0)
(0.000147605 8.24634e-05 0)
(6.54711e-05 6.56003e-05 0)
(1.409e-05 2.52057e-05 0)
(1.49819e-05 -6.48125e-05 0)
(4.22964e-05 -8.89071e-05 0)
(4.60815e-05 -4.53804e-05 0)
(-3.9338e-06 3.80655e-05 0)
(-0.000125901 0.000142979 0)
(-0.000328724 0.000257004 0)
(-0.000615688 0.000372097 0)
(-0.000986107 0.000483189 0)
(-0.00143651 0.000587207 0)
(-0.00196163 0.000682401 0)
(-0.00255506 0.000767891 0)
(-0.00320983 0.000843375 0)
(-0.00391871 0.00090892 0)
(-0.00467447 0.000964822 0)
(-0.00547003 0.00101151 0)
(-0.00629857 0.00104949 0)
(-0.00715355 0.00107925 0)
(-0.00802875 0.0011013 0)
(-0.00891825 0.00111609 0)
(-0.00981644 0.001124 0)
(-0.0107179 0.00112538 0)
(-0.0116175 0.00112048 0)
(-0.0125102 0.00110951 0)
(-0.0133912 0.00109262 0)
(-0.0142557 0.00106989 0)
(-0.0150989 0.00104138 0)
(-0.0159162 0.00100711 0)
(-0.016703 0.000967064 0)
(-0.0174546 0.00092124 0)
(-0.0181664 0.00086963 0)
(-0.0188338 0.000812241 0)
(-0.0194522 0.000749106 0)
(-0.0200172 0.0006803 0)
(-0.0205244 0.000605944 0)
(-0.0209696 0.000526218 0)
(-0.0213487 0.000441367 0)
(-0.021658 0.000351708 0)
(-0.0218939 0.000257638 0)
(-0.0220533 0.000159637 0)
(-0.0221334 5.82662e-05 0)
(-0.0221322 -4.58259e-05 0)
(-0.0220478 -0.000151909 0)
(-0.0218791 -0.000259172 0)
(-0.0216259 -0.000366733 0)
(-0.0212883 -0.000473642 0)
(-0.0208675 -0.000578892 0)
(-0.0203651 -0.000681434 0)
(-0.019784 -0.000780186 0)
(-0.0191275 -0.000874051 0)
(-0.0184 -0.000961933 0)
(-0.0176066 -0.00104275 0)
(-0.0167532 -0.00111547 0)
(-0.0158466 -0.0011791 0)
(-0.014894 -0.00123274 0)
(-0.0139037 -0.00127556 0)
(-0.0128841 -0.00130687 0)
(-0.0118445 -0.00132608 0)
(-0.0107942 -0.00133275 0)
(-0.00974296 -0.00132662 0)
(-0.00870075 -0.00130755 0)
(-0.0076774 -0.00127562 0)
(-0.0066827 -0.00123106 0)
(-0.00572615 -0.00117428 0)
(-0.00481686 -0.0011059 0)
(-0.00396339 -0.0010267 0)
(-0.0031736 -0.000937664 0)
(-0.00245452 -0.000839965 0)
(-0.00181217 -0.000734972 0)
(-0.00125143 -0.000624268 0)
(-0.000775824 -0.00050968 0)
(-0.000387368 -0.000393322 0)
(-8.63021e-05 -0.000277674 0)
(0.000129162 -0.000165691 0)
(0.000263189 -6.09769e-05 0)
(0.000322748 3.19697e-05 0)
(0.000318119 0.000107445 0)
(0.000263228 0.000158199 0)
(0.000176103 0.000175156 0)
(8.26289e-05 0.000147728 0)
(1.91213e-05 6.69058e-05 0)
(9.38836e-06 -8.43066e-05 0)
(1.08581e-05 -9.11513e-05 0)
(-3.80196e-05 4.67508e-06 0)
(-0.000163817 0.000162732 0)
(-0.000383584 0.000355774 0)
(-0.000706439 0.000564585 0)
(-0.00113572 0.000775936 0)
(-0.00167048 0.00098104 0)
(-0.00230662 0.00117426 0)
(-0.00303788 0.00135215 0)
(-0.00385656 0.00151282 0)
(-0.00475412 0.00165542 0)
(-0.00572161 0.00177981 0)
(-0.00674992 0.00188632 0)
(-0.00783006 0.00197557 0)
(-0.00895321 0.00204832 0)
(-0.0101109 0.00210541 0)
(-0.0112949 0.00214765 0)
(-0.0124974 0.00217583 0)
(-0.013711 0.00219062 0)
(-0.0149283 0.00219261 0)
(-0.0161423 0.0021823 0)
(-0.0173464 0.00216004 0)
(-0.0185339 0.00212612 0)
(-0.0196982 0.00208072 0)
(-0.0208331 0.00202395 0)
(-0.0219322 0.00195589 0)
(-0.0229891 0.00187655 0)
(-0.0239977 0.00178596 0)
(-0.0249517 0.00168414 0)
(-0.0258451 0.00157115 0)
(-0.0266718 0.00144711 0)
(-0.0274258 0.0013122 0)
(-0.0281013 0.0011667 0)
(-0.028693 0.00101099 0)
(-0.0291954 0.000845593 0)
(-0.0296036 0.00067115 0)
(-0.0299133 0.000488455 0)
(-0.0301203 0.000298453 0)
(-0.0302212 0.000102243 0)
(-0.0302133 -9.89174e-05 0)
(-0.0300945 -0.000303622 0)
(-0.0298636 -0.000510317 0)
(-0.0295201 -0.000717319 0)
(-0.0290646 -0.000922821 0)
(-0.0284986 -0.00112492 0)
(-0.0278247 -0.00132163 0)
(-0.0270465 -0.00151092 0)
(-0.0261686 -0.00169072 0)
(-0.0251967 -0.00185898 0)
(-0.0241378 -0.00201369 0)
(-0.0229994 -0.00215289 0)
(-0.0217906 -0.00227476 0)
(-0.0205209 -0.00237759 0)
(-0.0192009 -0.00245987 0)
(-0.0178418 -0.00252029 0)
(-0.0164555 -0.00255778 0)
(-0.0150542 -0.00257154 0)
(-0.0136508 -0.00256105 0)
(-0.0122579 -0.00252611 0)
(-0.0108885 -0.00246685 0)
(-0.00955518 -0.00238373 0)
(-0.00827035 -0.00227757 0)
(-0.00704578 -0.00214951 0)
(-0.00589257 -0.00200109 0)
(-0.0048209 -0.00183419 0)
(-0.00383984 -0.00165105 0)
(-0.00295714 -0.00145431 0)
(-0.00217907 -0.001247 0)
(-0.00151014 -0.00103264 0)
(-0.000952884 -0.00081525 0)
(-0.000507591 -0.000599497 0)
(-0.000172008 -0.00039086 0)
(5.90053e-05 -0.000195849 0)
(0.000193888 -2.23148e-05 0)
(0.000244813 0.000120181 0)
(0.000227915 0.000219986 0)
(0.00016363 0.00026313 0)
(8.06946e-05 0.000233516 0)
(1.94513e-05 0.00011367 0)
(1.8892e-06 -8.37159e-05 0)
(-3.06889e-05 -4.41562e-05 0)
(-0.000146635 0.000128612 0)
(-0.000364646 0.000383676 0)
(-0.000698269 0.000685989 0)
(-0.00115544 0.00101001 0)
(-0.00173859 0.00133751 0)
(-0.00244591 0.00165592 0)
(-0.00327245 0.00195685 0)
(-0.00421096 0.00223495 0)
(-0.00525264 0.00248707 0)
(-0.00638766 0.00271164 0)
(-0.00760566 0.00290816 0)
(-0.008896 0.00307691 0)
(-0.0102481 0.0032186 0)
(-0.0116515 0.00333424 0)
(-0.013096 0.00342497 0)
(-0.0145717 0.00349196 0)
(-0.0160692 0.00353629 0)
(-0.0175792 0.00355899 0)
(-0.0190929 0.00356091 0)
(-0.0206016 0.00354278 0)
(-0.0220968 0.00350517 0)
(-0.0235705 0.00344852 0)
(-0.0250145 0.00337313 0)
(-0.0264208 0.0032792 0)
(-0.0277817 0.00316687 0)
(-0.0290893 0.00303623 0)
(-0.0303359 0.00288736 0)
(-0.0315139 0.00272034 0)
(-0.0326158 0.00253535 0)
(-0.0336341 0.00233261 0)
(-0.0345616 0.0021125 0)
(-0.0353914 0.00187551 0)
(-0.0361168 0.00162232 0)
(-0.0367314 0.00135381 0)
(-0.0372294 0.00107106 0)
(-0.0376053 0.000775376 0)
(-0.0378546 0.000468314 0)
(-0.0379732 0.000151656 0)
(-0.0379578 -0.000172571 0)
(-0.0378061 -0.000502108 0)
(-0.0375168 -0.000834474 0)
(-0.0370896 -0.00116698 0)
(-0.0365253 -0.00149678 0)
(-0.0358258 -0.00182084 0)
(-0.0349944 -0.00213605 0)
(-0.0340356 -0.00243918 0)
(-0.032955 -0.00272702 0)
(-0.0317597 -0.00299632 0)
(-0.030458 -0.00324392 0)
(-0.0290592 -0.0034668 0)
(-0.0275741 -0.00366207 0)
(-0.0260143 -0.00382708 0)
(-0.0243924 -0.00395948 0)
(-0.022722 -0.00405722 0)
(-0.0210174 -0.00411863 0)
(-0.0192932 -0.00414247 0)
(-0.0175648 -0.00412796 0)
(-0.0158475 -0.00407478 0)
(-0.0141567 -0.00398315 0)
(-0.0125076 -0.00385383 0)
(-0.010915 -0.0036881 0)
(-0.00939302 -0.00348782 0)
(-0.00795503 -0.00325542 0)
(-0.00661319 -0.00299389 0)
(-0.00537838 -0.00270682 0)
(-0.00425991 -0.00239841 0)
(-0.00326529 -0.0020735 0)
(-0.00239995 -0.00173764 0)
(-0.00166702 -0.00139716 0)
(-0.001067 -0.00105936 0)
(-0.000597473 -0.000732629 0)
(-0.00025282 -0.000426766 0)
(-2.382e-05 -0.000153287 0)
(0.000102695 7.41725e-05 0)
(0.000144014 0.000239429 0)
(0.000121868 0.000323469 0)
(6.60015e-05 0.000304288 0)
(1.70296e-05 0.000155522 0)
(-6.28698e-06 -5.9595e-05 0)
(-7.71839e-05 6.09243e-05 0)
(-0.000268921 0.000338354 0)
(-0.000589898 0.000714071 0)
(-0.0010485 0.00114663 0)
(-0.0016504 0.00160502 0)
(-0.00239625 0.00206653 0)
(-0.0032828 0.00251505 0)
(-0.0043039 0.00293948 0)
(-0.00545119 0.00333252 0)
(-0.00671475 0.0036897 0)
(-0.00808359 0.00400861 0)
(-0.00954609 0.00428831 0)
(-0.0110903 0.00452891 0)
(-0.0127044 0.00473119 0)
(-0.0143763 0.00489635 0)
(-0.0160946 0.0050258 0)
(-0.0178479 0.00512102 0)
(-0.0196251 0.00518344 0)
(-0.0214156 0.00521439 0)
(-0.0232091 0.00521502 0)
(-0.0249953 0.00518632 0)
(-0.0267645 0.00512906 0)
(-0.0285069 0.00504387 0)
(-0.0302131 0.00493117 0)
(-0.0318737 0.0047913 0)
(-0.0334794 0.00462448 0)
(-0.0350211 0.00443089 0)
(-0.0364897 0.00421069 0)
(-0.0378763 0.00396411 0)
(-0.0391721 0.00369143 0)
(-0.0403684 0.00339309 0)
(-0.041457 0.00306967 0)
(-0.0424297 0.00272197 0)
(-0.0432788 0.00235107 0)
(-0.0439971 0.00195826 0)
(-0.0445778 0.0015452 0)
(-0.045015 0.0011138 0)
(-0.0453032 0.000666365 0)
(-0.0454379 0.000205487 0)
(-0.0454157 -0.000265887 0)
(-0.0452338 -0.000744488 0)
(-0.044891 -0.00122675 0)
(-0.044387 -0.00170881 0)
(-0.0437228 -0.00218657 0)
(-0.042901 -0.00265574 0)
(-0.0419252 -0.00311185 0)
(-0.0408008 -0.00355034 0)
(-0.0395343 -0.0039666 0)
(-0.038134 -0.00435607 0)
(-0.0366093 -0.00471426 0)
(-0.0349711 -0.00503686 0)
(-0.0332317 -0.00531982 0)
(-0.0314045 -0.00555939 0)
(-0.029504 -0.00575223 0)
(-0.0275457 -0.00589545 0)
(-0.0255458 -0.00598671 0)
(-0.0235215 -0.00602424 0)
(-0.02149 -0.00600695 0)
(-0.019469 -0.0059344 0)
(-0.0174761 -0.00580693 0)
(-0.0155288 -0.00562559 0)
(-0.013644 -0.00539226 0)
(-0.011838 -0.00510959 0)
(-0.0101261 -0.00478105 0)
(-0.00852222 -0.00441095 0)
(-0.00703895 -0.00400442 0)
(-0.00568705 -0.00356747 0)
(-0.00447521 -0.00310701 0)
(-0.00340984 -0.00263094 0)
(-0.00249474 -0.00214821 0)
(-0.00173083 -0.00166902 0)
(-0.00111588 -0.00120498 0)
(-0.000644191 -0.000769417 0)
(-0.000306336 -0.000377681 0)
(-8.88376e-05 -4.7583e-05 0)
(2.5978e-05 0.000200141 0)
(6.02767e-05 0.000341457 0)
(4.33115e-05 0.000348556 0)
(1.31285e-05 0.000187135 0)
(-1.45662e-05 -1.05696e-05 0)
(-0.000125708 0.000228869 0)
(-0.00039803 0.000641154 0)
(-0.000828483 0.00116247 0)
(-0.00141929 0.0017465 0)
(-0.00217302 0.00235782 0)
(-0.00308788 0.00296992 0)
(-0.00415864 0.00356356 0)
(-0.00537757 0.00412522 0)
(-0.00673499 0.00464575 0)
(-0.00821976 0.00511939 0)
(-0.00981971 0.00554287 0)
(-0.0115221 0.00591479 0)
(-0.0133138 0.00623504 0)
(-0.0151818 0.00650443 0)
(-0.0171128 0.0067243 0)
(-0.019094 0.00689631 0)
(-0.0211129 0.00702223 0)
(-0.0231571 0.00710382 0)
(-0.0252146 0.00714271 0)
(-0.0272737 0.00714034 0)
(-0.0293231 0.00709796 0)
(-0.0313515 0.00701655 0)
(-0.0333479 0.00689693 0)
(-0.0353015 0.00673969 0)
(-0.0372017 0.00654529 0)
(-0.0390379 0.00631407 0)
(-0.0407998 0.00604633 0)
(-0.042477 0.00574237 0)
(-0.0440595 0.00540254 0)
(-0.0455373 0.00502733 0)
(-0.0469008 0.0046174 0)
(-0.0481405 0.00417364 0)
(-0.0492473 0.00369723 0)
(-0.0502127 0.00318967 0)
(-0.0510286 0.00265282 0)
(-0.0516875 0.00208895 0)
(-0.0521828 0.00150074 0)
(-0.0525085 0.000891304 0)
(-0.0526598 0.000264195 0)
(-0.0526326 -0.000376595 0)
(-0.0524244 -0.00102665 0)
(-0.0520336 -0.00168118 0)
(-0.0514602 -0.00233499 0)
(-0.0507053 -0.00298261 0)
(-0.0497717 -0.00361828 0)
(-0.0486639 -0.00423606 0)
(-0.0473876 -0.00482987 0)
(-0.0459504 -0.00539358 0)
(-0.0443613 -0.00592111 0)
(-0.042631 -0.00640652 0)
(-0.0407715 -0.00684409 0)
(-0.0387966 -0.00722842 0)
(-0.0367211 -0.00755455 0)
(-0.0345611 -0.00781805 0)
(-0.0323339 -0.00801508 0)
(-0.0300577 -0.00814253 0)
(-0.0277512 -0.00819807 0)
(-0.0254338 -0.00818022 0)
(-0.0231252 -0.00808842 0)
(-0.020845 -0.00792309 0)
(-0.0186126 -0.00768568 0)
(-0.016447 -0.00737865 0)
(-0.0143664 -0.00700556 0)
(-0.0123878 -0.00657104 0)
(-0.0105269 -0.00608085 0)
(-0.00879795 -0.00554183 0)
(-0.00721302 -0.00496201 0)
(-0.00578205 -0.00435058 0)
(-0.0045125 -0.00371799 0)
(-0.00340899 -0.00307607 0)
(-0.00247308 -0.00243814 0)
(-0.00170301 -0.0018192 0)
(-0.00109342 -0.00123625 0)
(-0.000635111 -0.000708566 0)
(-0.000314839 -0.000258153 0)
(-0.000115149 8.97855e-05 0)
(-1.41307e-05 0.000306398 0)
(1.58664e-05 0.000358547 0)
(8.49558e-06 0.000205423 0)
(-2.26953e-05 6.37239e-05 0)
(-0.000174642 0.000461931 0)
(-0.00052974 0.00104101 0)
(-0.00107314 0.001734 0)
(-0.00180037 0.00249115 0)
(-0.00271034 0.00327373 0)
(-0.00379829 0.00405222 0)
(-0.00505656 0.00480482 0)
(-0.00647551 0.00551592 0)
(-0.00804388 0.0061748 0)
(-0.00974916 0.00677452 0)
(-0.011578 0.00731105 0)
(-0.0135165 0.00778252 0)
(-0.0155504 0.00818865 0)
(-0.0176655 0.00853021 0)
(-0.0198477 0.00880869 0)
(-0.0220829 0.00902598 0)
(-0.0243574 0.00918413 0)
(-0.0266577 0.0092852 0)
(-0.0289708 0.00933109 0)
(-0.0312837 0.00932356 0)
(-0.0335839 0.00926407 0)
(-0.035859 0.00915387 0)
(-0.0380968 0.00899394 0)
(-0.0402854 0.00878504 0)
(-0.042413 0.00852778 0)
(-0.0444678 0.00822264 0)
(-0.0464384 0.00787006 0)
(-0.0483134 0.00747049 0)
(-0.0500816 0.0070245 0)
(-0.0517321 0.00653277 0)
(-0.0532542 0.00599628 0)
(-0.0546375 0.00541625 0)
(-0.0558721 0.0047943 0)
(-0.0569487 0.00413245 0)
(-0.0578583 0.00343318 0)
(-0.0585929 0.00269949 0)
(-0.0591452 0.00193488 0)
(-0.0595088 0.00114341 0)
(-0.0596784 0.000329679 0)
(-0.0596498 -0.000501154 0)
(-0.0594201 -0.00134342 0)
(-0.0589877 -0.00219095 0)
(-0.0583526 -0.00303713 0)
(-0.0575162 -0.00387495 0)
(-0.0564815 -0.00469708 0)
(-0.0552533 -0.00549595 0)
(-0.0538381 -0.00626382 0)
(-0.0522439 -0.00699291 0)
(-0.0504806 -0.0076755 0)
(-0.0485599 -0.00830404 0)
(-0.0464949 -0.00887127 0)
(-0.0443003 -0.00937033 0)
(-0.0419925 -0.00979493 0)
(-0.0395889 -0.0101394 0)
(-0.0371084 -0.010399 0)
(-0.0345707 -0.0105695 0)
(-0.0319962 -0.0106482 0)
(-0.0294062 -0.010633 0)
(-0.0268221 -0.0105233 0)
(-0.0242653 -0.0103196 0)
(-0.0217571 -0.0100236 0)
(-0.0193185 -0.00963857 0)
(-0.0169691 -0.00916893 0)
(-0.0147281 -0.00862058 0)
(-0.0126126 -0.00800082 0)
(-0.0106385 -0.00731837 0)
(-0.00881922 -0.0065834 0)
(-0.00716609 -0.00580754 0)
(-0.00568767 -0.005004 0)
(-0.00438961 -0.00418761 0)
(-0.00327432 -0.00337496 0)
(-0.0023408 -0.0025846 0)
(-0.00158433 -0.00183726 0)
(-0.000996347 -0.00115619 0)
(-0.000564268 -0.000567505 0)
(-0.000271335 -0.000100737 0)
(-9.64147e-05 0.00021078 0)
(-1.41999e-05 0.000329213 0)
(3.56824e-06 0.000208668 0)
(-3.05727e-05 0.000163088 0)
(-0.000223109 0.000760736 0)
(-0.000661492 0.00153963 0)
(-0.00131918 0.00243124 0)
(-0.00218479 0.00338366 0)
(-0.00325326 0.00435588 0)
(-0.00451648 0.00531619 0)
(-0.00596403 0.00624084 0)
(-0.00758404 0.00711261 0)
(-0.00936345 0.00791949 0)
(-0.0112883 0.00865359 0)
(-0.0133438 0.00931027 0)
(-0.015515 0.00988729 0)
(-0.0177866 0.0103842 0)
(-0.0201432 0.0108018 0)
(-0.0225698 0.0111417 0)
(-0.0250513 0.0114061 0)
(-0.0275729 0.0115972 0)
(-0.0301203 0.0117173 0)
(-0.0326792 0.0117688 0)
(-0.0352358 0.0117535 0)
(-0.0377765 0.0116733 0)
(-0.0402878 0.0115295 0)
(-0.0427565 0.0113234 0)
(-0.0451697 0.0110559 0)
(-0.0475145 0.0107277 0)
(-0.0497782 0.0103396 0)
(-0.0519482 0.009892 0)
(-0.0540123 0.00938566 0)
(-0.0559583 0.00882132 0)
(-0.0577743 0.00819996 0)
(-0.0594487 0.00752286 0)
(-0.0609704 0.00679168 0)
(-0.0623287 0.0060085 0)
(-0.0635133 0.00517594 0)
(-0.0645149 0.00429716 0)
(-0.0653246 0.00337595 0)
(-0.0659346 0.00241674 0)
(-0.0663382 0.00142459 0)
(-0.0665295 0.00040527 0)
(-0.0665041 -0.000634827 0)
(-0.0662589 -0.00168866 0)
(-0.0657921 -0.00274861 0)
(-0.0651037 -0.00380649 0)
(-0.0641953 -0.00485367 0)
(-0.0630699 -0.00588111 0)
(-0.0617328 -0.0068795 0)
(-0.0601907 -0.00783932 0)
(-0.0584523 -0.00875103 0)
(-0.0565282 -0.00960512 0)
(-0.0544306 -0.0103923 0)
(-0.0521737 -0.0111037 0)
(-0.0497732 -0.0117309 0)
(-0.0472465 -0.012266 0)
(-0.0446124 -0.0127022 0)
(-0.041891 -0.0130335 0)
(-0.0391035 -0.0132548 0)
(-0.036272 -0.0133626 0)
(-0.0334191 -0.0133545 0)
(-0.0305681 -0.0132295 0)
(-0.0277421 -0.0129881 0)
(-0.0249643 -0.0126326 0)
(-0.022257 -0.0121667 0)
(-0.0196421 -0.011596 0)
(-0.0171401 -0.0109276 0)
(-0.0147701 -0.0101705 0)
(-0.0125494 -0.00933529 0)
(-0.010493 -0.00843443 0)
(-0.00861358 -0.00748214 0)
(-0.00692105 -0.00649448 0)
(-0.00542222 -0.00548941 0)
(-0.00412062 -0.00448691 0)
(-0.00301622 -0.00350915 0)
(-0.00210528 -0.00258064 0)
(-0.00138017 -0.00172856 0)
(-0.000829306 -0.000983106 0)
(-0.000436994 -0.000377896 0)
(-0.000183254 4.96046e-05 0)
(-4.55404e-05 0.000257514 0)
(-1.41043e-06 0.000196037 0)
(-3.81665e-05 0.000287036 0)
(-0.000270641 0.0011249 0)
(-0.000791751 0.00213717 0)
(-0.00156359 0.00325492 0)
(-0.00256789 0.00442518 0)
(-0.00379542 0.00560558 0)
(-0.00523451 0.006763 0)
(-0.00687171 0.0078724 0)
(-0.00869273 0.00891539 0)
(-0.0106825 0.00987908 0)
(-0.0128254 0.0107549 0)
(-0.0151053 0.0115378 0)
(-0.017506 0.0122253 0)
(-0.020011 0.0128169 0)
(-0.0226042 0.0133135 0)
(-0.0252692 0.0137168 0)
(-0.0279903 0.0140291 0)
(-0.0307518 0.0142532 0)
(-0.0335384 0.0143915 0)
(-0.0363349 0.0144467 0)
(-0.0391267 0.0144209 0)
(-0.041899 0.0143161 0)
(-0.0446377 0.014134 0)
(-0.0473287 0.0138759 0)
(-0.0499579 0.0135431 0)
(-0.0525117 0.0131363 0)
(-0.0549764 0.0126564 0)
(-0.0573386 0.0121042 0)
(-0.0595851 0.0114806 0)
(-0.0617029 0.0107865 0)
(-0.0636793 0.0100233 0)
(-0.0655019 0.00919249 0)
(-0.0671587 0.00829628 0)
(-0.0686384 0.00733728 0)
(-0.0699301 0.00631872 0)
(-0.0710236 0.00524453 0)
(-0.0719096 0.00411933 0)
(-0.0725798 0.00294854 0)
(-0.0730269 0.00173833 0)
(-0.0732447 0.000495666 0)
(-0.0732284 -0.000771718 0)
(-0.0729746 -0.00205534 0)
(-0.0724816 -0.00334601 0)
(-0.0717489 -0.00463391 0)
(-0.0707783 -0.00590868 0)
(-0.0695729 -0.00715949 0)
(-0.068138 -0.00837515 0)
(-0.0664808 -0.00954429 0)
(-0.0646103 -0.0106554 0)
(-0.0625375 -0.0116972 0)
(-0.0602753 -0.0126586 0)
(-0.0578386 -0.0135287 0)
(-0.055244 -0.0142975 0)
(-0.0525098 -0.0149558 0)
(-0.0496559 -0.015495 0)
(-0.0467037 -0.0159079 0)
(-0.0436755 -0.0161886 0)
(-0.040595 -0.0163326 0)
(-0.0374863 -0.016337 0)
(-0.0343742 -0.0162004 0)
(-0.0312835 -0.0159235 0)
(-0.0282391 -0.0155088 0)
(-0.0252652 -0.0149608 0)
(-0.0223852 -0.0142859 0)
(-0.0196215 -0.0134926 0)
(-0.016995 -0.0125916 0)
(-0.0145244 -0.0115956 0)
(-0.0122266 -0.0105192 0)
(-0.0101158 -0.00937948 0)
(-0.00820328 -0.00819535 0)
(-0.00649726 -0.00698801 0)
(-0.00500257 -0.00578092 0)
(-0.00372046 -0.00459988 0)
(-0.00264836 -0.00347325 0)
(-0.00177988 -0.00243212 0)
(-0.0011047 -0.00151061 0)
(-0.000608455 -0.000746274 0)
(-0.000272539 -0.000180362 0)
(-7.73536e-05 0.000141741 0)
(-6.31437e-06 0.000167228 0)
(-4.54765e-05 0.000434949 0)
(-0.000317001 0.00155346 0)
(-0.0009196 0.00283278 0)
(-0.00180444 0.00420449 0)
(-0.00294649 0.00561543 0)
(-0.00433234 0.00702269 0)
(-0.00594661 0.00839249 0)
(-0.00777268 0.00969907 0)
(-0.00979365 0.0109234 0)
(-0.0119923 0.0120522 0)
(-0.0143513 0.0130765 0)
(-0.016853 0.0139909 0)
(-0.0194798 0.014793 0)
(-0.0222143 0.0154824 0)
(-0.0250393 0.01606 0)
(-0.0279375 0.0165279 0)
(-0.0308924 0.0168887 0)
(-0.0338873 0.0171452 0)
(-0.0369063 0.0173004 0)
(-0.0399333 0.0173571 0)
(-0.0429528 0.0173177 0)
(-0.0459495 0.0171844 0)
(-0.0489083 0.0169592 0)
(-0.0518142 0.0166436 0)
(-0.0546525 0.0162389 0)
(-0.0574087 0.0157463 0)
(-0.0600683 0.0151665 0)
(-0.0626171 0.0145008 0)
(-0.0650411 0.01375 0)
(-0.0673266 0.0129156 0)
(-0.0694601 0.011999 0)
(-0.0714284 0.0110024 0)
(-0.073219 0.00992829 0)
(-0.0748197 0.00877992 0)
(-0.0762191 0.00756118 0)
(-0.0774063 0.00627679 0)
(-0.0783715 0.00493228 0)
(-0.0791059 0.00353408 0)
(-0.0796015 0.00208953 0)
(-0.0798519 0.000606861 0)
(-0.0798518 -0.000904794 0)
(-0.0795976 -0.00243543 0)
(-0.0790871 -0.00397426 0)
(-0.0783199 -0.00550972 0)
(-0.0772974 -0.00702963 0)
(-0.0760228 -0.00852127 0)
(-0.0745015 -0.00997154 0)
(-0.0727406 -0.0113671 0)
(-0.0707495 -0.0126944 0)
(-0.0685395 -0.0139401 0)
(-0.066124 -0.0150912 0)
(-0.0635185 -0.016135 0)
(-0.0607402 -0.0170597 0)
(-0.0578082 -0.0178541 0)
(-0.0547435 -0.0185084 0)
(-0.0515683 -0.0190139 0)
(-0.0483065 -0.0193636 0)
(-0.0449828 -0.0195519 0)
(-0.0416229 -0.0195754 0)
(-0.038253 -0.0194323 0)
(-0.0348998 -0.0191233 0)
(-0.0315896 -0.018651 0)
(-0.0283485 -0.0180207 0)
(-0.0252018 -0.0172397 0)
(-0.0221736 -0.0163179 0)
(-0.0192866 -0.0152677 0)
(-0.0165615 -0.0141036 0)
(-0.0140168 -0.0128431 0)
(-0.0116683 -0.0115055 0)
(-0.00952918 -0.010113 0)
(-0.00760914 -0.00869008 0)
(-0.00591454 -0.00726367 0)
(-0.00444808 -0.0058633 0)
(-0.00320867 -0.00452115 0)
(-0.00219132 -0.0032722 0)
(-0.00138723 -0.00215444 0)
(-0.000783506 -0.0012092 0)
(-0.000363046 -0.000481224 0)
(-0.000109207 -1.90051e-05 0)
(-1.1088e-05 0.000122225 0)
(-5.25143e-05 0.000606145 0)
(-0.000362071 0.00204507 0)
(-0.0010445 0.00362492 0)
(-0.00204049 0.00527844 0)
(-0.00331848 0.00695302 0)
(-0.00486089 0.00860592 0)
(-0.0066486 0.0102033 0)
(-0.00866174 0.0117194 0)
(-0.0108807 0.0131351 0)
(-0.013286 0.0144367 0)
(-0.0158585 0.0156156 0)
(-0.0185789 0.0166664 0)
(-0.0214284 0.0175867 0)
(-0.0243884 0.0183764 0)
(-0.0274406 0.0190367 0)
(-0.0305671 0.0195699 0)
(-0.0337504 0.019979 0)
(-0.0369731 0.0202671 0)
(-0.0402184 0.0204375 0)
(-0.0434697 0.0204933 0)
(-0.0467108 0.0204371 0)
(-0.0499255 0.0202716 0)
(-0.0530982 0.0199987 0)
(-0.0562132 0.0196202 0)
(-0.059255 0.0191376 0)
(-0.0622083 0.0185521 0)
(-0.0650581 0.0178649 0)
(-0.0677895 0.0170771 0)
(-0.0703878 0.0161902 0)
(-0.0728384 0.0152055 0)
(-0.0751273 0.0141252 0)
(-0.0772406 0.0129515 0)
(-0.0791652 0.0116877 0)
(-0.0808881 0.0103374 0)
(-0.0823974 0.00890537 0)
(-0.0836817 0.00739706 0)
(-0.0847305 0.00581898 0)
(-0.0855344 0.0041786 0)
(-0.086085 0.00248445 0)
(-0.0863753 0.000746082 0)
(-0.0863998 -0.00102592 0)
(-0.0861542 -0.00282 0)
(-0.085636 -0.00462367 0)
(-0.0848446 -0.00642359 0)
(-0.0837811 -0.00820571 0)
(-0.0824485 -0.00995533 0)
(-0.0808521 -0.0116573 0)
(-0.0789991 -0.0132962 0)
(-0.0768988 -0.0148565 0)
(-0.0745627 -0.0163227 0)
(-0.0720046 -0.0176796 0)
(-0.0692403 -0.0189126 0)
(-0.0662876 -0.0200078 0)
(-0.0631664 -0.0209525 0)
(-0.0598983 -0.0217349 0)
(-0.0565067 -0.022345 0)
(-0.0530164 -0.0227743 0)
(-0.0494535 -0.0230163 0)
(-0.045845 -0.0230668 0)
(-0.0422188 -0.0229235 0)
(-0.0386031 -0.022587 0)
(-0.0350259 -0.0220602 0)
(-0.0315152 -0.0213486 0)
(-0.0280982 -0.0204608 0)
(-0.0248009 -0.0194078 0)
(-0.021648 -0.0182038 0)
(-0.018662 -0.0168654 0)
(-0.0158635 -0.0154124 0)
(-0.0132702 -0.0138671 0)
(-0.0108971 -0.0122545 0)
(-0.0087556 -0.0106026 0)
(-0.00685395 -0.00894193 0)
(-0.00519648 -0.00730569 0)
(-0.00378374 -0.00572994 0)
(-0.00261239 -0.00425355 0)
(-0.00167525 -0.00291834 0)
(-0.000961042 -0.00176926 0)
(-0.000454193 -0.000854434 0)
(-0.000140921 -0.000225185 0)
(-1.57187e-05 6.11489e-05 0)
(-5.92937e-05 0.000799919 0)
(-0.0004058 0.00259819 0)
(-0.00116611 0.00451161 0)
(-0.00227093 0.00647463 0)
(-0.00368237 0.00843575 0)
(-0.00537879 0.0103531 0)
(-0.00733736 0.0121933 0)
(-0.00953492 0.0139311 0)
(-0.0119491 0.0155478 0)
(-0.0145582 0.01703 0)
(-0.0173409 0.0183693 0)
(-0.0202766 0.0195609 0)
(-0.023345 0.0206026 0)
(-0.0265264 0.0214947 0)
(-0.0298014 0.0222388 0)
(-0.0331514 0.0228377 0)
(-0.036558 0.0232947 0)
(-0.0400031 0.0236133 0)
(-0.0434694 0.0237971 0)
(-0.0469396 0.0238495 0)
(-0.0503967 0.0237735 0)
(-0.0538242 0.0235719 0)
(-0.0572056 0.0232469 0)
(-0.0605247 0.0228004 0)
(-0.0637656 0.0222341 0)
(-0.0669121 0.0215495 0)
(-0.0699488 0.0207478 0)
(-0.07286 0.0198304 0)
(-0.0756305 0.0187989 0)
(-0.0782451 0.0176551 0)
(-0.0806891 0.0164013 0)
(-0.0829481 0.0150404 0)
(-0.0850083 0.0135759 0)
(-0.0868562 0.0120123 0)
(-0.0884791 0.0103548 0)
(-0.0898651 0.00860993 0)
(-0.0910032 0.00678502 0)
(-0.0918833 0.00488867 0)
(-0.0924966 0.00293061 0)
(-0.0928355 0.000921736 0)
(-0.0928938 -0.0011259 0)
(-0.0926669 -0.00319913 0)
(-0.0921517 -0.00528374 0)
(-0.0913473 -0.00736457 0)
(-0.0902543 -0.00942562 0)
(-0.0888755 -0.0114502 0)
(-0.0872158 -0.0134209 0)
(-0.0852822 -0.0153204 0)
(-0.0830841 -0.0171307 0)
(-0.0806329 -0.0188342 0)
(-0.0779426 -0.0204136 0)
(-0.0750291 -0.021852 0)
(-0.0719107 -0.0231336 0)
(-0.0686079 -0.0242434 0)
(-0.0651429 -0.0251681 0)
(-0.0615401 -0.0258959 0)
(-0.0578253 -0.0264169 0)
(-0.0540257 -0.0267233 0)
(-0.0501699 -0.0268101 0)
(-0.0462871 -0.0266743 0)
(-0.0424072 -0.0263163 0)
(-0.0385602 -0.0257389 0)
(-0.0347758 -0.0249484 0)
(-0.0310833 -0.023954 0)
(-0.0275107 -0.0227682 0)
(-0.0240848 -0.0214066 0)
(-0.0208303 -0.0198881 0)
(-0.0177699 -0.0182349 0)
(-0.0149235 -0.0164719 0)
(-0.0123081 -0.0146276 0)
(-0.00993711 -0.0127332 0)
(-0.00782076 -0.0108227 0)
(-0.00596528 -0.00893344 0)
(-0.00437307 -0.00710517 0)
(-0.00304255 -0.00538071 0)
(-0.00196833 -0.00380571 0)
(-0.00114079 -0.00242873 0)
(-0.000545866 -0.00130116 0)
(-0.000172489 -0.000477094 0)
(-2.02208e-05 -1.58535e-05 0)
(-6.58282e-05 0.00101556 0)
(-0.000448163 0.00321112 0)
(-0.00128424 0.00549056 0)
(-0.0024952 0.00779041 0)
(-0.0040371 0.0100608 0)
(-0.00588437 0.0122612 0)
(-0.00801052 0.0143595 0)
(-0.0103891 0.0163311 0)
(-0.0129951 0.0181583 0)
(-0.0158043 0.0198286 0)
(-0.0187936 0.021334 0)
(-0.0219406 0.0226705 0)
(-0.0252238 0.0238365 0)
(-0.0286221 0.0248328 0)
(-0.0321155 0.0256617 0)
(-0.0356842 0.0263264 0)
(-0.0393092 0.0268307 0)
(-0.0429719 0.0271786 0)
(-0.0466541 0.027374 0)
(-0.0503381 0.0274206 0)
(-0.0540065 0.0273218 0)
(-0.0576421 0.0270805 0)
(-0.0612279 0.0266992 0)
(-0.0647472 0.0261801 0)
(-0.0681835 0.025525 0)
(-0.0715204 0.0247354 0)
(-0.0747415 0.0238128 0)
(-0.077831 0.0227588 0)
(-0.0807728 0.0215753 0)
(-0.0835514 0.0202642 0)
(-0.0861515 0.0188283 0)
(-0.0885581 0.0172708 0)
(-0.0907567 0.0155958 0)
(-0.0927334 0.0138083 0)
(-0.0944749 0.0119144 0)
(-0.0959687 0.00992126 0)
(-0.097203 0.00783729 0)
(-0.0981673 0.00567212 0)
(-0.0988521 0.00343672 0)
(-0.0992492 0.00114334 0)
(-0.0993518 -0.00119448 0)
(-0.0991546 -0.00356196 0)
(-0.0986541 -0.00594312 0)
(-0.0978486 -0.00832095 0)
(-0.0967384 -0.0106774 0)
(-0.0953256 -0.0129938 0)