/*--------------------------------*- C++ -*----------------------------------*\
| =========                 |                                                 |
| \\      /  F ield         | OpenFOAM: The Open Source CFD Toolbox           |
|  \\    /   O peration     | Version:  2506                                  |
|   \\  /    A nd           | Website:  www.openfoam.com                      |
|    \\/     M anipulation  |                                                 |
\*---------------------------------------------------------------------------*/
FoamFile
{
    version     2.0;
    format      ascii;
    arch        "LSB;label=32;scalar=64";
    class       volScalarField;
    location    "0.48";
    object      p;
}
// * * * * * * * * * * * * * * * * * * * * * * * * * * * * * * * * * * * * * //

dimensions      [0 2 -2 0 0 0 0];

internalField   nonuniform List<scalar> 
1600
(
7.40582e-06
-0.00117893
-0.00390864
-0.00758251
-0.0115275
-0.0152479
-0.018386
-0.0206892
-0.0219901
-0.022189
-0.0212401
-0.0191415
-0.0159268
-0.0116588
-0.00642483
-0.000332617
0.00649287
0.0139122
0.0217741
0.0299176
0.0381744
0.0463721
0.0543361
0.0618936
0.0688768
0.0751274
0.0805006
0.0848705
0.0881355
0.0902241
0.0911014
0.0907762
0.0893086
0.0868198
0.0835032
0.0796377
0.0756039
0.0719103
0.0692252
0.0681092
0.00120155
1.07677e-05
-0.00220574
-0.00505719
-0.00810008
-0.0109691
-0.0133797
-0.0151188
-0.0160361
-0.0160358
-0.0150678
-0.0131205
-0.0102148
-0.00639885
-0.00174381
0.00365966
0.00970439
0.0162694
0.0232223
0.0304216
0.0377195
0.044964
0.0520018
0.0586817
0.0648578
0.0703934
0.0751649
0.0790668
0.0820161
0.0839578
0.0848699
0.0847694
0.0837182
0.0818293
0.0792732
0.076284
0.0731637
0.0702883
0.0681054
0.0669949
0.00394627
0.00221861
-2.83982e-05
-0.00258793
-0.00521684
-0.00764531
-0.00964973
-0.0110585
-0.0117458
-0.011628
-0.0106591
-0.00882595
-0.00614376
-0.00265234
0.00158741
0.00649651
0.0119805
0.0179319
0.0242325
0.0307555
0.0373679
0.043933
0.050313
0.056372
0.0619795
0.0670134
0.0713643
0.0749394
0.0776668
0.0795001
0.0804225
0.0804519
0.0796447
0.0780998
0.0759614
0.0734202
0.0707163
0.0681315
0.0659245
0.064307
0.0077099
0.00509871
0.00245739
-0.000171791
-0.00272706
-0.00500857
-0.00684209
-0.00809588
-0.00867152
-0.00850224
-0.00755136
-0.00580949
-0.00329146
-3.34765e-05
0.00390947
0.00846602
0.0135506
0.0190655
0.024903
0.0309471
0.0370759
0.0431639
0.0490843
0.0547122
0.0599271
0.0646165
0.0686797
0.0720309
0.0746037
0.0763544
0.0772661
0.0773522
0.076659
0.0752684
0.0732973
0.0708976
0.0682616
0.0656043
0.0630131
0.0605445
0.0118986
0.00825899
0.00504993
0.00216907
-0.000488815
-0.0027799
-0.0045716
-0.00576929
-0.0063018
-0.00612078
-0.00520126
-0.00354028
-0.00115494
0.0019195
0.00563149
0.00991497
0.0146911
0.0198697
0.0253515
0.0310292
0.0367898
0.0425166
0.0480915
0.0533974
0.0583213
0.0627574
0.06661
0.0697975
0.0722552
0.0739392
0.0748291
0.0749309
0.074279
0.0729372
0.0709963
0.0685733
0.0658215
0.0629042
0.0597505
0.0562806
0.0160861
0.0113752
0.00750567
0.00425534
0.0013726
-0.00104167
-0.00288848
-0.00410585
-0.00464802
-0.00448492
-0.00360423
-0.00201093
0.000273739
0.00321351
0.00675823
0.0108451
0.0154001
0.0203387
0.0255679
0.0309871
0.0364901
0.0419669
0.0473053
0.0523942
0.0571252
0.0613961
0.0651139
0.0681978
0.0705823
0.0722203
0.0730858
0.0731758
0.0725116
0.0711392
0.0691258
0.0665585
0.063561
0.0602583
0.0564424
0.051921
0.0199632
0.0141859
0.00960946
0.0059137
0.0027214
0.000102015
-0.00187142
-0.0031647
-0.00375474
-0.00362873
-0.00278702
-0.00124335
0.00097571
0.00383136
0.00727323
0.0112401
0.0156608
0.0204547
0.0255333
0.0308009
0.0361558
0.0414925
0.046703
0.0516793
0.0563154
0.0605104
0.0641712
0.0672151
0.0695735
0.0711939
0.0720426
0.0721064
0.0713935
0.0699331
0.0677716
0.0649717
0.0616357
0.0578632
0.0533295
0.0477522
0.0232968
0.0164774
0.0111762
0.00699145
0.003437
0.000559784
-0.00158683
-0.00299186
-0.00365211
-0.00357054
-0.00275973
-0.0012424
0.000948837
0.00377163
0.00717411
0.0110953
0.0154653
0.020206
0.0252316
0.0304494
0.035761
0.0410632
0.0462503
0.0512152
0.0558523
0.0600599
0.0637421
0.0668128
0.0691976
0.0708369
0.0716879
0.0717261
0.0709468
0.0693636
0.0670052
0.0639144
0.0601793
0.0558837
0.0506035
0.0439825
0.0259047
0.0180704
0.0120414
0.00734525
0.00339896
0.000233451
-0.00211268
-0.00364787
-0.0043863
-0.00434522
-0.00354874
-0.00202848
0.000176522
0.00301965
0.00644663
0.0103955
0.0147967
0.0195732
0.0246404
0.0299076
0.0352775
0.0406482
0.0459141
0.0509677
0.0557018
0.0600114
0.0637968
0.0669658
0.0694366
0.0711407
0.0720248
0.0720529
0.0712067
0.0694859
0.0669035
0.063487
0.0593151
0.0544635
0.0484206
0.0407676
0.0276365
0.0188092
0.0120552
0.00683802
0.00248573
-0.000982198
-0.00353834
-0.00520769
-0.00601971
-0.00600464
-0.00519749
-0.00363856
-0.00137353
0.00154623
0.00506338
0.0091142
0.0136284
0.0185287
0.0237313
0.0291455
0.0346745
0.0402159
0.0456631
0.0509065
0.0558354
0.0603404
0.0643154
0.0676608
0.0702858
0.0721112
0.0730721
0.0731196
0.0722222
0.0703662
0.0675508
0.0637908
0.0591603
0.0537316
0.0469132
0.0382304
0.0283592
0.0185522
0.0110771
0.00533663
0.000574833
-0.00319741
-0.00596141
-0.00775669
-0.00862651
-0.00861318
-0.00776205
-0.00612199
-0.00374544
-0.000688849
0.00298681
0.00721542
0.0119252
0.0170381
0.0224698
0.0281289
0.033918
0.0397333
0.0454657
0.0510024
0.0562278
0.0610264
0.0652844
0.0688927
0.0717498
0.0737646
0.0748589
0.0749699
0.0740525
0.0720792
0.0690369
0.0649296
0.0598294
0.053809
0.0462009
0.036477
0.0279473
0.0171643
0.00897026
0.00270848
-0.00245886
-0.00652785
-0.00948711
-0.0113895
-0.0122911
-0.012246
-0.0113094
-0.00953875
-0.00699348
-0.00373538
0.000170539
0.0046553
0.0096451
0.0150606
0.020816
0.0268191
0.0329707
0.0391648
0.0452891
0.0512264
0.0568552
0.0620523
0.0666945
0.070662
0.0738407
0.0761256
0.0774237
0.0776573
0.0767659
0.0747085
0.0714591
0.0670121
0.0614393
0.0548163
0.0463996
0.0356084
0.0262753
0.0145104
0.00559668
-0.00118193
-0.00674533
-0.0110958
-0.0142287
-0.0162096
-0.0171077
-0.016988
-0.0159161
-0.0139582
-0.0111809
-0.00765151
-0.00343954
0.00138287
0.00673958
0.0125494
0.0187252
0.0251731
0.0317917
0.0384724
0.0450992
0.0515492
0.0576944
0.0634025
0.0685399
0.0729739
0.0765762
0.0792261
0.0808138
0.0812444
0.080441
0.0783472
0.0749239
0.0701553
0.0641139
0.0568793
0.0476295
0.0357299
0.0232123
0.0104507
0.000813268
-0.00647631
-0.0124218
-0.0170317
-0.020308
-0.0223298
-0.0231791
-0.0229329
-0.0216674
-0.0194578
-0.0163782
-0.0125022
-0.00790379
-0.00265849
0.00315498
0.00945358
0.0161485
0.0231442
0.0303372
0.0376158
0.0448597
0.0519403
0.0587219
0.0650626
0.0708166
0.0758371
0.0799794
0.0831046
0.0850842
0.0858036
0.0851669
0.0831005
0.07955
0.0744886
0.0679891
0.0601351
0.0500222
0.0369582
0.018618
0.00483608
-0.00553224
-0.0133257
-0.0196349
-0.0244753
-0.0278565
-0.0298717
-0.030617
-0.0301824
-0.0286554
-0.0261212
-0.0226619
-0.0183576
-0.013287
-0.00752935
-0.00116584
0.00571872
0.0130341
0.0206833
0.0285609
0.0365522
0.0445327
0.0523679
0.0599139
0.0670183
0.0735222
0.0792628
0.0840771
0.0878058
0.0902981
0.0914171
0.0910447
0.0890867
0.085471
0.0801573
0.0732174
0.0647384
0.0537264
0.0394281
0.012339
-0.00249513
-0.0136049
-0.0218937
-0.0285434
-0.033578
-0.0370159
-0.0389663
-0.0395412
-0.038845
-0.0369782
-0.0340367
-0.0301117
-0.0252901
-0.0196559
-0.0132918
-0.00628127
0.00128942
0.00932917
0.01774
0.0264151
0.0352375
0.0440789
0.052799
0.0612456
0.0692552
0.0766548
0.0832643
0.0889001
0.0933796
0.0965266
0.0981776
0.0981884
0.0964402
0.0928387
0.0873268
0.0799731
0.0708666
0.058915
0.0432988
0.00420547
-0.0117215
-0.0235862
-0.0323597
-0.0393211
-0.0445045
-0.0479394
-0.0497539
-0.0500787
-0.0490346
-0.0467371
-0.0432945
-0.038808
-0.0333721
-0.0270762
-0.0200064
-0.012248
-0.00388808
0.00498223
0.0142649
0.023853
0.0336281
0.0434589
0.0532001
0.0626915
0.0717584
0.080213
0.0878564
0.0944821
0.0998814
0.103849
0.106189
0.106727
0.105313
0.101827
0.0961875
0.0884578
0.0787261
0.0657907
0.0487599
-0.00597227
-0.0230423
-0.0356785
-0.0449231
-0.0521594
-0.0574346
-0.0607928
-0.0623847
-0.0623631
-0.0608689
-0.0580348
-0.0539839
-0.0488287
-0.042672
-0.0356088
-0.0277283
-0.0191173
-0.00986222
-5.32875e-05
0.0102131
0.020831
0.0316824
0.0426346
0.0535383
0.0642262
0.074513
0.0841954
0.0930548
0.10086
0.107372
0.112351
0.115567
0.116806
0.11588
0.112634
0.10696
0.0989069
0.0885596
0.0745937
0.0560381
-0.0184076
-0.0366825
-0.05011
-0.0598073
-0.0672712
-0.0725662
-0.0757557
-0.0770179
-0.076533
-0.0744664
-0.0709717
-0.0661891
-0.0602442
-0.0532491
-0.0453045
-0.0365025
-0.0269298
-0.0166716
-0.00581487
0.0055473
0.0173123
0.0293646
0.041572
0.0537833
0.0658259
0.0775046
0.0886013
0.0988764
0.108072
0.115916
0.122131
0.126442
0.128588
0.128339
0.125491
0.1199
0.111596
0.100654
0.0856091
0.065405
-0.033343
-0.0528992
-0.0671411
-0.0772658
-0.0848956
-0.0901181
-0.0930222
-0.0938215
-0.0927303
-0.0899439
-0.0856417
-0.0799841
-0.073112
-0.065148
-0.0561984
-0.0463573
-0.0357104
-0.0243391
-0.0123255
0.000243367
0.0132712
0.0266475
0.0402438
0.0539097
0.0674697
0.0807206
0.0934304
0.105339
0.11616
0.125584
0.133291
0.138954
0.142259
0.142914
0.140662
0.135307
0.126851
0.115348
0.0991779
0.0771861
-0.0510566
-0.0719897
-0.0870729
-0.0975894
-0.105303
-0.110333
-0.112802
-0.112971
-0.111096
-0.107411
-0.102126
-0.095426
-0.0874698
-0.0783911
-0.0683019
-0.0572973
-0.04546
-0.0328654
-0.0195876
-0.00570412
0.00869813
0.0235178
0.0386338
0.0539002
0.0691421
0.0841513
0.0986844
0.112461
0.125165
0.13645
0.145944
0.153262
0.158022
0.159863
0.158454
0.153532
0.145055
0.133048
0.115708
0.0917724
-0.0718722
-0.0943034
-0.110259
-0.121116
-0.128802
-0.133481
-0.135323
-0.134648
-0.131768
-0.126964
-0.120486
-0.112547
-0.103326
-0.0929696
-0.0815944
-0.0692949
-0.0561483
-0.042221
-0.0275752
-0.0122751
0.00360624
0.0199813
0.036741
0.053749
0.0708355
0.0877919
0.104366
0.120261
0.135132
0.14859
0.160208
0.169535
0.176108
0.179478
0.17922
0.174984
0.166665
0.154241
0.135691
0.109635
-0.0961732
-0.120258
-0.13712
-0.148243
-0.15575
-0.159865
-0.160827
-0.159035
-0.154872
-0.148679
-0.140753
-0.131343
-0.12065
-0.108833
-0.0960127
-0.0822804
-0.0677043
-0.0523377
-0.0362266
-0.0194171
-0.00196266
0.0160682
0.0345847
0.0534658
0.0725531
0.0916435
0.110482
0.128758
0.146101
0.162079
0.176207
0.187956
0.196768
0.202087
0.20337
0.200149
0.192227
0.179511
0.159724
0.131343
-0.124422
-0.150362
-0.168167
-0.179445
-0.18656
-0.189825
-0.189575
-0.186312
-0.180514
-0.172598
-0.162918
-0.151762
-0.139358
-0.125877
-0.11144
-0.0961313
-0.0800063
-0.0631
-0.0454364
-0.0270376
-0.0079316
0.0118391
0.0322086
0.0530789
0.0743108
0.0957142
0.117039
0.137968
0.158109
0.176989
0.194063
0.208714
0.220278
0.228062
0.231376
0.229595
0.222395
0.209572
0.188533
0.157593
-0.157192
-0.18525
-0.204032
-0.215299
-0.22172
-0.223743
-0.221837
-0.216646
-0.208769
-0.198716
-0.18691
-0.173688
-0.159301
-0.143929
-0.127692
-0.110662
-0.0928731
-0.0743366
-0.055048
-0.0349984
-0.014183
0.00738886
0.0296847
0.0526381
0.0761386
0.100019
0.124045
0.147901
0.171182
0.193381
0.213891
0.232004
0.246928
0.257813
0.26378
0.263997
0.25796
0.245297
0.223018
0.18924
-0.195206
-0.225731
-0.24551
-0.256509
-0.261807
-0.262047
-0.257893
-0.250178
-0.239658
-0.226959
-0.212585
-0.196921
-0.180244
-0.162736
-0.144509
-0.125613
-0.106055
-0.0858137
-0.0648482
-0.0431106
-0.0205555
0.00284974
0.0271148
0.0522153
0.0780801
0.104578
0.131502
0.158554
0.185328
0.211293
0.235786
0.258006
0.277019
0.29179
0.301201
0.304152
0.299881
0.287768
0.264304
0.22735
-0.239411
-0.272857
-0.293622
-0.303955
-0.307504
-0.30521
-0.298012
-0.287
-0.273126
-0.25716
-0.239693
-0.221159
-0.201851
-0.181948
-0.161538
-0.140642
-0.119228
-0.097231
-0.0745649
-0.051134
-0.0268436
-0.00160987
0.0246289
0.0519011
0.0801881
0.109409
0.139401
0.169902
0.200521
0.230725
0.259805
0.286871
0.310843
0.330467
0.344337
0.351
0.349331
0.338342
0.313821
0.273279
-0.291074
-0.32804
-0.349702
-0.35874
-0.359621
-0.353741
-0.342432
-0.327119
-0.309006
-0.289022
-0.267851
-0.245966
-0.223665
-0.201103
-0.178331
-0.155322
-0.131992
-0.108223
-0.0838699
-0.0587811
-0.0328028
-0.0057911
0.0223782
0.0517981
0.0825163
0.114519
0.147708
0.181877
0.216684
0.251611
0.285934
0.31869
0.348652
0.374326
0.393959
0.405644
0.407753
0.398746
0.373422
0.328778
-0.351953
-0.393213
-0.415521
-0.422255
-0.419109
-0.408167
-0.391311
-0.37041
-0.346963
-0.322073
-0.296507
-0.270755
-0.24509
-0.21962
-0.194335
-0.169138
-0.143878
-0.118365
-0.092388
-0.0657274
-0.0381615
-0.00947678
0.0205231
0.0520073
0.0851046
0.119886
0.156342
0.194354
0.233655
0.273788
0.31405
0.35344
0.390607
0.423808
0.450887
0.469365
0.476925
0.4712
0.445559
0.396182
-0.424571
-0.471095
-0.493461
-0.496255
-0.487052
-0.468972
-0.444658
-0.416531
-0.386427
-0.355612
-0.324898
-0.294751
-0.265376
-0.236793
-0.208897
-0.181499
-0.154355
-0.12719
-0.0997151
-0.0716306
-0.0426396
-0.0124511
0.0192124
0.0526073
0.0879576
0.125439
0.165155
0.207107
0.251152
0.296942
0.343856
0.390918
0.4367
0.479238
0.515934
0.543613
0.559032
0.558607
0.533562
0.4787
-0.512694
-0.565599
-0.58676
-0.582929
-0.564624
-0.536497
-0.5022
-0.464812
-0.426499
-0.388636
-0.352006
-0.316974
-0.283611
-0.251795
-0.221282
-0.191756
-0.16286
-0.134217
-0.105445
-0.0761578
-0.0459766
-0.0145267
0.0185572
0.0536277
0.0910164
0.131022
0.17389
0.219779
0.268719
0.320544
0.374798
0.430627
0.486629
0.540691
0.589794
0.629956
0.656738
0.664793
0.642066
0.580931
-0.622193
-0.682497
-0.69982
-0.68493
-0.652952
-0.610739
-0.563194
-0.514085
-0.465826
-0.419761
-0.376511
-0.33622
-0.298727
-0.263696
-0.230692
-0.199236
-0.16883
-0.138982
-0.109204
-0.079021
-0.0479661
-0.0155789
0.0185972
0.0550159
0.0941261
0.136366
0.182146
0.231826
0.285667
0.343768
0.405954
0.471636
0.539609
0.607781
0.672825
0.729934
0.773208
0.794826
0.777706
0.70979
-0.762684
-0.830465
-0.838579
-0.805287
-0.752828
-0.691012
-0.626118
-0.562463
-0.502454
-0.447145
-0.396767
-0.351065
-0.309525
-0.271504
-0.236318
-0.203286
-0.17175
-0.141086
-0.110698
-0.0800187
-0.0484945
-0.0155812
0.0192669
0.0566048
0.0970028
0.141048
0.18934
0.242475
0.301009
0.3654
0.435901
0.512389
0.594115
0.679322
0.764682
0.844737
0.912002
0.955383
0.950199
0.876263
-0.950856
-1.02277
-1.01077
-0.946976
-0.864063
-0.775346
-0.688216
-0.607034
-0.533661
-0.46841
-0.410782
-0.359896
-0.314723
-0.274221
-0.237396
-0.203337
-0.171207
-0.140247
-0.109756
-0.0790768
-0.047578
-0.0146399
0.0203643
0.0580841
0.0992069
0.144471
0.194676
0.250682
0.313399
0.383746
0.462564
0.550455
0.647506
0.752806
0.86364
0.974493
1.07659
1.15498
1.17408
1.09898
-1.21722
-1.27972
-1.22552
-1.11155
-0.984074
-0.859371
-0.744753
-0.643426
-0.555738
-0.480566
-0.416236
-0.360956
-0.313024
-0.27091
-0.233275
-0.198955
-0.166941
-0.136343
-0.106367
-0.0762808
-0.0453911
-0.0130176
0.0215312
0.0589832
0.100128
0.145844
0.197126
0.255109
0.321093
0.39654
0.483047
0.582234
0.695506
0.823557
0.96537
1.11672
1.26885
1.40349
1.47115
1.41127
-1.61776
-1.63096
-1.49154
-1.29672
-1.10589
-0.935005
-0.788311
-0.665544
-0.563982
-0.480138
-0.410639
-0.352514
-0.303265
-0.26083
-0.223516
-0.189929
-0.158906
-0.129455
-0.100711
-0.0718949
-0.0422733
-0.0111303
0.0222658
0.0586953
0.0990223
0.144236
0.195498
0.254198
0.322023
0.401018
0.493655
0.602846
0.731859
0.883976
1.06155
1.26423
1.48651
1.71009
1.87241
1.87281
-2.2545
-2.11588
-1.81358
-1.49442
-1.21742
-0.990513
-0.809414
-0.666452
-0.553624
-0.464011
-0.392066
-0.333469
-0.284901
-0.243803
-0.208187
-0.176484
-0.147428
-0.119973
-0.0932231
-0.0663833
-0.0387142
-0.0094946
0.0220152
0.0566123
0.0951944
0.138814
0.188743
0.246565
0.314288
0.3945
0.490564
0.606855
0.748988
0.923943
1.13978
1.40421
1.72093
2.07938
2.41785
2.58916
-3.35577
-2.78332
-2.17268
-1.6758
-1.29256
-1.00572
-0.794142
-0.637268
-0.519325
-0.42917
-0.35897
-0.30318
-0.257837
-0.220058
-0.187702
-0.159136
-0.133079
-0.108494
-0.084507
-0.0603504
-0.0353159
-0.00871393
0.020165
0.0520911
0.0879425
0.128766
0.175857
0.230874
0.295996
0.374168
0.469451
0.587545
0.736525
0.927888
1.17797
1.50833
1.94094
2.49106
3.15811
3.79429
-5.51936
-3.66182
-2.43101
-1.71406
-1.24173
-0.921775
-0.704837
-0.553946
-0.445476
-0.365197
-0.304178
-0.256564
-0.218398
-0.186917
-0.160126
-0.136535
-0.114988
-0.094559
-0.0744739
-0.0540541
-0.032675
-0.00972856
0.0154113
0.0434261
0.0750968
0.111361
0.153391
0.20271
0.26136
0.332184
0.419262
0.528658
0.669657
0.857043
1.11537
1.48385
2.01586
2.80548
4.12447
6.09002
-9.20433
-4.52038
-2.30636
-1.42115
-0.958957
-0.682933
-0.51227
-0.400593
-0.322923
-0.266422
-0.223897
-0.190917
-0.164574
-0.142859
-0.124314
-0.107842
-0.0925831
-0.0778394
-0.0630204
-0.0476049
-0.03111
-0.0130646
0.00701626
0.0296582
0.05546
0.0851346
0.119566
0.159892
0.207634
0.264902
0.334757
0.421864
0.53377
0.683763
0.897475
1.22413
1.75389
2.7334
5.06224
9.86661
)
;

boundaryField
{
    movingWall
    {
        type            zeroGradient;
    }
    fixedWalls
    {
        type            zeroGradient;
    }
    frontAndBack
    {
        type            empty;
    }
}


// ************************************************************************* //
