/*--------------------------------*- C++ -*----------------------------------*\
| =========                 |                                                 |
| \\      /  F ield         | OpenFOAM: The Open Source CFD Toolbox           |
|  \\    /   O peration     | Version:  2506                                  |
|   \\  /    A nd           | Website:  www.openfoam.com                      |
|    \\/     M anipulation  |                                                 |
\*---------------------------------------------------------------------------*/
FoamFile
{
    version     2.0;
    format      ascii;
    arch        "LSB;label=32;scalar=64";
    class       surfaceScalarField;
    location    "0.48";
    object      phi;
}
// * * * * * * * * * * * * * * * * * * * * * * * * * * * * * * * * * * * * * //

dimensions      [0 3 -1 0 0 0 0];

oriented        oriented;

internalField   nonuniform List<scalar> 
3120
(
2.53401e-09
-2.55035e-09
4.09648e-09
-1.56248e-09
2.2536e-09
1.84288e-09
-3.55397e-09
5.80757e-09
-1.31369e-08
9.58289e-09
-2.59863e-08
1.28495e-08
-4.14627e-08
1.54764e-08
-5.88897e-08
1.74269e-08
-7.75993e-08
1.87097e-08
-9.69548e-08
1.93556e-08
-1.16362e-07
1.94071e-08
-1.35274e-07
1.89125e-08
-1.53197e-07
1.79231e-08
-1.69689e-07
1.64915e-08
-1.8436e-07
1.46711e-08
-1.96876e-07
1.25156e-08
-2.06955e-07
1.00792e-08
-2.14372e-07
7.41704e-09
-2.18957e-07
4.58532e-09
-2.20599e-07
1.64189e-09
-2.19246e-07
-1.35338e-09
-2.14907e-07
-4.3384e-09
-2.07659e-07
-7.24872e-09
-1.97641e-07
-1.00177e-08
-1.85064e-07
-1.2577e-08
-1.70207e-07
-1.4857e-08
-1.53419e-07
-1.67883e-08
-1.35116e-07
-1.83025e-08
-1.15783e-07
-1.93338e-08
-9.59615e-08
-1.98211e-08
-7.62511e-08
-1.97104e-08
-5.72942e-08
-1.89569e-08
-3.97652e-08
-1.75289e-08
-2.4352e-08
-1.54131e-08
-1.17269e-08
-1.26253e-08
-2.4959e-09
-9.23128e-09
2.89739e-09
-5.39344e-09
4.35841e-09
-1.46093e-09
2.56139e-09
1.79733e-09
2.56166e-09
1.61475e-09
-4.1651e-09
-1.17329e-09
1.22554e-09
-1.17179e-08
1.23874e-08
-3.10782e-08
2.51679e-08
-5.90529e-08
3.75576e-08
-9.46985e-08
4.8495e-08
-1.36665e-07
5.74434e-08
-1.83414e-07
6.41755e-08
-2.33344e-07
6.86399e-08
-2.84875e-07
7.08861e-08
-3.36491e-07
7.10237e-08
-3.86776e-07
6.91979e-08
-4.34429e-07
6.5576e-08
-4.78276e-07
6.03381e-08
-5.17278e-07
5.36729e-08
-5.50537e-07
4.57749e-08
-5.77301e-07
3.68432e-08
-5.96966e-07
2.7082e-08
-6.09081e-07
1.67008e-08
-6.13355e-07
5.91536e-09
-6.09657e-07
-5.05144e-09
-5.98026e-07
-1.59693e-08
-5.78674e-07
-2.66004e-08
-5.51991e-07
-3.67008e-08
-5.18547e-07
-4.60216e-08
-4.79091e-07
-5.43123e-08
-4.34555e-07
-6.13245e-08
-3.8604e-07
-6.68172e-08
-3.34811e-07
-7.05628e-08
-2.82277e-07
-7.23554e-08
-2.29968e-07
-7.20194e-08
-1.79503e-07
-6.94223e-08
-1.32542e-07
-6.44897e-08
-9.07256e-08
-5.72296e-08
-5.55808e-08
-4.77699e-08
-2.83848e-08
-3.64272e-08
-9.94871e-09
-2.38298e-08
-2.91133e-10
-1.11189e-08
1.85436e-09
-3.48386e-10
4.41629e-09
-1.66857e-09
-2.49654e-09
-1.21196e-08
1.16766e-08
-3.40958e-08
3.43636e-08
-6.84602e-08
5.95322e-08
-1.14799e-07
8.38968e-08
-1.71827e-07
1.05523e-07
-2.37711e-07
1.23327e-07
-3.10313e-07
1.36777e-07
-3.87363e-07
1.45691e-07
-4.66578e-07
1.50101e-07
-5.45737e-07
1.50183e-07
-6.22738e-07
1.46199e-07
-6.95634e-07
1.38472e-07
-7.62659e-07
1.27362e-07
-8.2224e-07
1.13255e-07
-8.73019e-07
9.65532e-08
-9.13851e-07
7.76756e-08
-9.43822e-07
5.70529e-08
-9.62251e-07
3.51293e-08
-9.68698e-07
1.23628e-08
-9.62975e-07
-1.07742e-08
-9.4515e-07
-3.37945e-08
-9.15554e-07
-5.61969e-08
-8.74786e-07
-7.74689e-08
-8.23716e-07
-9.70909e-08
-7.63487e-07
-1.14542e-07
-6.95501e-07
-1.2931e-07
-6.21416e-07
-1.40902e-07
-5.43121e-07
-1.48858e-07
-4.62708e-07
-1.52769e-07
-3.8243e-07
-1.52298e-07
-3.04647e-07
-1.47205e-07
-2.31752e-07
-1.37385e-07
-1.66069e-07
-1.22913e-07
-1.09722e-07
-1.04116e-07
-6.44558e-08
-8.16936e-08
-3.13863e-08
-5.68992e-08
-1.06923e-08
-3.18132e-08
-1.23878e-09
-9.80223e-09
3.17759e-09
-5.5701e-09
3.07355e-09
-2.49828e-08
3.10893e-08
-5.96961e-08
6.90768e-08
-1.09886e-07
1.09722e-07
-1.74661e-07
1.48672e-07
-2.52316e-07
1.83178e-07
-3.40577e-07
2.11588e-07
-4.36827e-07
2.33027e-07
-5.38275e-07
2.47139e-07
-6.42092e-07
2.53918e-07
-7.45508e-07
2.53598e-07
-8.45881e-07
2.46572e-07
-9.40751e-07
2.33342e-07
-1.02787e-06
2.14486e-07
-1.10525e-06
1.90632e-07
-1.17114e-06
1.62446e-07
-1.22409e-06
1.30625e-07
-1.26293e-06
9.58895e-08
-1.28679e-06
5.89845e-08
-1.2951e-06
2.06793e-08
-1.28764e-06
-1.8233e-08
-1.2645e-06
-5.69358e-08
-1.22611e-06
-9.45913e-08
-1.17323e-06
-1.30345e-07
-1.10699e-06
-1.63333e-07
-1.02884e-06
-1.92695e-07
-9.40561e-07
-2.17586e-07
-8.44262e-07
-2.37201e-07
-7.42327e-07
-2.50793e-07
-6.37386e-07
-2.57709e-07
-5.32263e-07
-2.57421e-07
-4.29896e-07
-2.49572e-07
-3.33248e-07
-2.34034e-07
-2.45181e-07
-2.1098e-07
-1.6831e-07
-1.80987e-07
-1.04812e-07
-1.45191e-07
-5.6205e-08
-1.05506e-07
-2.31036e-08
-6.49146e-08
-4.98698e-09
-2.79191e-08
-1.8095e-09
-9.47058e-09
1.25441e-08
-3.81819e-08
5.98006e-08
-8.60928e-08
1.16988e-07
-1.52417e-07
1.76046e-07
-2.35586e-07
2.31841e-07
-3.3336e-07
2.80952e-07
-4.43001e-07
3.21229e-07
-5.61442e-07
3.51468e-07
-6.85447e-07
3.71143e-07
-8.11735e-07
3.80207e-07
-9.37092e-07
3.78955e-07
-1.05844e-06
3.67923e-07
-1.17292e-06
3.47815e-07
-1.27788e-06
3.19456e-07
-1.37101e-06
2.83753e-07
-1.45024e-06
2.4168e-07
-1.51387e-06
1.94255e-07
-1.56052e-06
1.42542e-07
-1.58918e-06
8.76391e-08
-1.59918e-06
3.06819e-08
-1.59025e-06
-2.71591e-08
-1.56251e-06
-8.46799e-08
-1.51645e-06
-1.40647e-07
-1.45299e-06
-1.93806e-07
-1.37344e-06
-2.4289e-07
-1.27949e-06
-2.86643e-07
-1.17324e-06
-3.23833e-07
-1.05715e-06
-3.53293e-07
-9.33997e-07
-3.73946e-07
-8.0685e-07
-3.84857e-07
-6.78988e-07
-3.85282e-07
-5.53827e-07
-3.74733e-07
-4.34806e-07
-3.53055e-07
-3.25262e-07
-3.20524e-07
-2.28274e-07
-2.77975e-07
-1.46493e-07
-2.26972e-07
-8.19568e-08
-1.70042e-07
-3.59209e-08
-1.1095e-07
-8.75712e-09
-5.50828e-08
-1.05668e-08
-1.31654e-08
2.57095e-08
-5.10381e-08
9.76732e-08
-1.12115e-07
1.78065e-07
-1.94538e-07
2.58469e-07
-2.95932e-07
3.33234e-07
-4.13429e-07
3.9845e-07
-5.43773e-07
4.51572e-07
-6.83437e-07
4.91132e-07
-8.28762e-07
5.16468e-07
-9.7607e-07
5.27515e-07
-1.12176e-06
5.2465e-07
-1.26241e-06
5.08571e-07
-1.3948e-06
4.80208e-07
-1.51601e-06
4.40659e-07
-1.6234e-06
3.91145e-07
-1.7147e-06
3.32979e-07
-1.78799e-06
2.67542e-07
-1.84172e-06
1.96277e-07
-1.87476e-06
1.20678e-07
-1.88637e-06
4.22907e-08
-1.87623e-06
-3.72931e-08
-1.84448e-06
-1.16437e-07
-1.79166e-06
-1.93467e-07
-1.71878e-06
-2.6668e-07
-1.62731e-06
-3.34362e-07
-1.51914e-06
-3.94812e-07
-1.39661e-06
-4.46371e-07
-1.26244e-06
-4.87461e-07
-1.11975e-06
-5.16638e-07
-9.71952e-07
-5.3265e-07
-8.22729e-07
-5.34505e-07
-6.75904e-07
-5.21557e-07
-5.35355e-07
-4.93605e-07
-4.04875e-07
-4.51004e-07
-2.88032e-07
-3.94818e-07
-1.88013e-07
-3.26991e-07
-1.07479e-07
-2.50576e-07
-4.84612e-08
-1.69967e-07
-1.23383e-08
-9.12056e-08
-2.29052e-08
-1.66144e-08
4.23239e-08
-6.33248e-08
1.44384e-07
-1.37301e-07
2.52041e-07
-2.35597e-07
3.56766e-07
-3.54971e-07
4.52608e-07
-4.91857e-07
5.35336e-07
-6.42423e-07
6.02138e-07
-8.02658e-07
6.51368e-07
-9.6848e-07
6.82289e-07
-1.13583e-06
6.94866e-07
-1.30077e-06
6.89591e-07
-1.45956e-06
6.67357e-07
-1.6087e-06
6.29348e-07
-1.74501e-06
5.76967e-07
-1.86564e-06
5.11775e-07
-1.96811e-06
4.35454e-07
-2.05035e-06
3.4978e-07
-2.11068e-06
2.56606e-07
-2.14786e-06
1.57855e-07
-2.16108e-06
5.55127e-08
-2.15e-06
-4.83746e-08
-2.11473e-06
-1.51704e-07
-2.05587e-06
-2.52325e-07
-1.9745e-06
-3.48052e-07
-1.87218e-06
-4.36685e-07
-1.75095e-06
-5.1604e-07
-1.61333e-06
-5.83987e-07
-1.46229e-06
-6.38503e-07
-1.3012e-06
-6.77734e-07
-1.13378e-06
-7.00068e-07
-9.64054e-07
-7.04228e-07
-7.9624e-07
-6.89371e-07
-6.34638e-07
-6.55206e-07
-4.83517e-07
-6.02125e-07
-3.46972e-07
-5.31364e-07
-2.28792e-07
-4.45171e-07
-1.32347e-07
-3.47022e-07
-6.05123e-08
-2.41802e-07
-1.56919e-08
-1.36026e-07
-3.8597e-08
-1.98465e-08
6.21703e-08
-7.50461e-08
1.99583e-07
-1.61584e-07
3.38579e-07
-2.75465e-07
4.70646e-07
-4.12554e-07
5.89696e-07
-5.68542e-07
6.91324e-07
-7.3898e-07
7.72577e-07
-9.19342e-07
8.3173e-07
-1.10511e-06
8.68055e-07
-1.29185e-06
8.81603e-07
-1.47529e-06
8.73039e-07
-1.65142e-06
8.43488e-07
-1.8165e-06
7.94428e-07
-1.96713e-06
7.27597e-07
-2.10029e-06
6.44928e-07
-2.21333e-06
5.48498e-07
-2.30405e-06
4.40503e-07
-2.37068e-06
3.23232e-07
-2.41188e-06
1.99056e-07
-2.42679e-06
7.04264e-08
-2.41503e-06
-6.01329e-08
-2.37671e-06
-1.90029e-07
-2.31242e-06
-3.16611e-07
-2.22329e-06
-4.37182e-07
-2.11095e-06
-5.49025e-07
-1.97755e-06
-6.49442e-07
-1.82574e-06
-7.35794e-07
-1.65867e-06
-8.05572e-07
-1.47994e-06
-8.56467e-07
-1.29355e-06
-8.86462e-07
-1.10383e-06
-8.93943e-07
-9.15389e-07
-8.77814e-07
-7.32958e-07
-8.37637e-07
-5.61307e-07
-7.73776e-07
-4.05109e-07
-6.87562e-07
-2.68816e-07
-5.81464e-07
-1.56563e-07
-4.59275e-07
-7.21084e-08
-3.26257e-07
-1.88545e-08
-1.8928e-07
-5.74514e-08
-2.2914e-08
8.50843e-08
-8.63074e-08
2.62976e-07
-1.85101e-07
4.37372e-07
-3.14293e-07
5.99838e-07
-4.68856e-07
7.4426e-07
-6.43715e-07
8.66183e-07
-8.33769e-07
9.62631e-07
-1.03395e-06
1.03191e-06
-1.23928e-06
1.07338e-06
-1.44495e-06
1.08728e-06
-1.64639e-06
1.07448e-06
-1.83931e-06
1.03641e-06
-2.01975e-06
9.74875e-07
-2.18415e-06
8.91996e-07
-2.32932e-06
7.90101e-07
-2.45252e-06
6.71694e-07
-2.55142e-06
5.39407e-07
-2.62418e-06
3.95983e-07
-2.66938e-06
2.44261e-07
-2.68612e-06
8.71691e-08
-2.67398e-06
-7.22778e-08
-2.63303e-06
-2.30983e-07
-2.56386e-06
-3.85775e-07
-2.46761e-06
-5.33429e-07
-2.34595e-06
-6.70687e-07
-2.20109e-06
-7.94305e-07
-2.03578e-06
-9.01103e-07
-1.85331e-06
-9.8804e-07
-1.65748e-06
-1.0523e-06
-1.45252e-06
-1.09142e-06
-1.2431e-06
-1.10337e-06
-1.03418e-06
-1.08673e-06
-8.30956e-07
-1.04086e-06
-6.38739e-07
-9.65993e-07
-4.62823e-07
-8.63477e-07
-3.08379e-07
-7.35908e-07
-1.80351e-07
-5.87303e-07
-8.3398e-08
-4.2321e-07
-2.18904e-08
-2.50787e-07
-7.93417e-08
-2.58728e-08
1.10957e-07
-9.725e-08
3.34354e-07
-2.0807e-07
5.48192e-07
-3.52365e-07
7.44134e-07
-5.24222e-07
9.16116e-07
-7.17778e-07
1.05974e-06
-9.27261e-07
1.17211e-06
-1.14703e-06
1.25168e-06
-1.37165e-06
1.298e-06
-1.59592e-06
1.31155e-06
-1.81496e-06
1.29352e-06
-2.02424e-06
1.24569e-06
-2.21962e-06
1.17025e-06
-2.39736e-06
1.06974e-06
-2.55418e-06
9.46919e-07
-2.68723e-06
8.04738e-07
-2.79411e-06
6.46287e-07
-2.8729e-06
4.74776e-07
-2.92216e-06
2.93518e-07
-2.94091e-06
1.05924e-07
-2.92869e-06
-8.44935e-08
-2.88555e-06
-2.74128e-07
-2.81204e-06
-4.59284e-07
-2.70928e-06
-6.3619e-07
-2.57894e-06
-8.01032e-07
-2.42325e-06
-9.49993e-07
-2.24503e-06
-1.07932e-06
-2.04769e-06
-1.18539e-06
-1.83516e-06
-1.26483e-06
-1.61192e-06
-1.31465e-06
-1.38293e-06
-1.33235e-06
-1.15355e-06
-1.31611e-06
-9.29453e-07
-1.26496e-06
-7.16508e-07
-1.17894e-06
-5.20689e-07
-1.0593e-06
-3.47932e-07
-9.08665e-07
-2.04035e-07
-7.312e-07
-9.45749e-08
-5.3267e-07
-2.48706e-08
-3.20492e-07
-1.04212e-07
-2.87749e-08
1.39732e-07
-1.08021e-07
4.13599e-07
-2.30738e-07
6.70909e-07
-3.90017e-07
9.03413e-07
-5.79056e-07
1.10516e-06
-7.91197e-07
1.27188e-06
-1.01997e-06
1.40089e-06
-1.25915e-06
1.49086e-06
-1.50282e-06
1.54167e-06
-1.7454e-06
1.55412e-06
-1.9817e-06
1.52982e-06
-2.20697e-06
1.47095e-06
-2.41689e-06
1.38017e-06
-2.6076e-06
1.26046e-06
-2.77573e-06
1.11505e-06
-2.91836e-06
9.47368e-07
-3.03305e-06
7.60979e-07
-3.11784e-06
5.59563e-07
-3.17123e-06
3.46908e-07
-3.19221e-06
1.26908e-07
-3.18027e-06
-9.64332e-08
-3.1354e-06
-3.19002e-07
-3.0581e-06
-5.36578e-07
-2.94945e-06
-7.44841e-07
-2.81108e-06
-9.39407e-07
-2.64521e-06
-1.11586e-06
-2.45468e-06
-1.26984e-06
-2.24296e-06
-1.39711e-06
-2.01412e-06
-1.49367e-06
-1.77285e-06
-1.55592e-06
-1.52439e-06
-1.58081e-06
-1.2745e-06
-1.56601e-06
-1.02934e-06
-1.51012e-06
-7.95399e-07
-1.41288e-06
-5.79367e-07
-1.27533e-06
-3.87996e-07
-1.10004e-06
-2.2798e-07
-8.91216e-07
-1.05845e-07
-6.54805e-07
-2.78647e-08
-3.98472e-07
-1.32077e-07
-3.16666e-08
1.71398e-07
-1.18757e-07
5.0069e-07
-2.53347e-07
8.05499e-07
-4.27584e-07
1.07765e-06
-6.33771e-07
1.31134e-06
-8.64434e-07
1.50254e-06
-1.11239e-06
1.64884e-06
-1.37082e-06
1.74929e-06
-1.6333e-06
1.80415e-06
-1.89387e-06
1.8147e-06
-2.14707e-06
1.78301e-06
-2.38791e-06
1.71179e-06
-2.61194e-06
1.6042e-06
-2.81521e-06
1.46373e-06
-2.99428e-06
1.29412e-06
-3.14621e-06
1.0993e-06
-3.26853e-06
8.83301e-07
-3.35926e-06
6.50289e-07
-3.41687e-06
4.04519e-07
-3.44032e-06
1.50357e-07
-3.42904e-06
-1.07717e-07
-3.38294e-06
-3.65095e-07
-3.30248e-06
-6.17041e-07
-3.18863e-06
-8.58691e-07
-3.04295e-06
-1.08508e-06
-2.86762e-06
-1.2912e-06
-2.66545e-06
-1.47201e-06
-2.43993e-06
-1.62263e-06
-2.19523e-06
-1.73837e-06
-1.93621e-06
-1.81494e-06
-1.66839e-06
-1.84863e-06
-1.39792e-06
-1.83648e-06
-1.13148e-06
-1.77656e-06
-8.76202e-07
-1.66815e-06
-6.39535e-07
-1.51199e-06
-4.29103e-07
-1.31047e-06
-2.52555e-07
-1.06776e-06
-1.17412e-07
-7.89948e-07
-3.09377e-08
-4.84946e-07
-1.63015e-07
-3.4588e-08
2.05986e-07
-1.29586e-07
5.95688e-07
-2.76123e-07
9.52035e-07
-4.65383e-07
1.26691e-06
-6.8875e-07
1.53471e-06
-9.3791e-07
1.7517e-06
-1.20495e-06
1.91588e-06
-1.48242e-06
2.02676e-06
-1.76341e-06
2.08515e-06
-2.04159e-06
2.09288e-06
-2.31121e-06
2.05263e-06
-2.5671e-06
1.96769e-06
-2.80471e-06
1.8418e-06
-3.02002e-06
1.67904e-06
-3.20957e-06
1.48367e-06
-3.37042e-06
1.26015e-06
-3.50012e-06
1.013e-06
-3.59668e-06
7.46851e-07
-3.65858e-06
4.66416e-07
-3.68473e-06
1.7651e-07
-3.67451e-06
-1.17933e-07
-3.62777e-06
-4.11836e-07
-3.54485e-06
-6.99966e-07
-3.42661e-06
-9.76933e-07
-3.27449e-06
-1.2372e-06
-3.09057e-06
-1.47511e-06
-2.87759e-06
-1.685e-06
-2.639e-06
-1.86122e-06
-2.37903e-06
-1.99835e-06
-2.10266e-06
-2.09131e-06
-1.81568e-06
-2.1356e-06
-1.52462e-06
-2.12754e-06
-1.23668e-06
-2.0645e-06
-9.59668e-07
-1.94516e-06
-7.01846e-07
-1.76982e-06
-4.71772e-07
-1.54054e-06
-2.78116e-07
-1.26142e-06
-1.29468e-07
-9.38595e-07
-3.41502e-08
-5.80264e-07
-1.97165e-07
-3.75745e-08
2.43561e-07
-1.4062e-07
6.98733e-07
-2.99269e-07
1.11068e-06
-5.037e-07
1.47134e-06
-7.44333e-07
1.77534e-06
-1.01198e-06
2.01935e-06
-1.29796e-06
2.20186e-06
-1.59421e-06
2.32301e-06
-1.89331e-06
2.38425e-06
-2.18857e-06
2.38813e-06
-2.47397e-06
2.33803e-06
-2.74422e-06
2.23794e-06
-2.99467e-06
2.09225e-06
-3.2213e-06
1.90567e-06
-3.42069e-06
1.68306e-06
-3.58993e-06
1.42939e-06
-3.72663e-06
1.14969e-06
-3.82883e-06
8.49049e-07
-3.89501e-06
5.32603e-07
-3.92409e-06
2.05589e-07
-3.91538e-06
-1.26641e-07
-3.86864e-06
-4.58579e-07
-3.78407e-06
-7.84532e-07
-3.6624e-06
-1.0986e-06
-3.50491e-06
-1.39469e-06
-3.31349e-06
-1.66653e-06
-3.09076e-06
-1.90773e-06
-2.84007e-06
-2.11191e-06
-2.56564e-06
-2.27278e-06
-2.27254e-06
-2.38441e-06
-1.96677e-06
-2.44138e-06
-1.65521e-06
-2.4391e-06
-1.34561e-06
-2.3741e-06
-1.04647e-06
-2.24431e-06
-7.66908e-07
-2.04938e-06
-5.16493e-07
-1.79096e-06
-3.05003e-07
-1.47291e-06
-1.42198e-07
-1.1014e-06
-3.75584e-08
-6.84903e-07
-2.34723e-07
-4.06581e-08
2.84219e-07
-1.51961e-07
8.10036e-07
-3.22972e-07
1.28169e-06
-5.4279e-07
1.69116e-06
-8.00813e-07
2.03336e-06
-1.08693e-06
2.30546e-06
-1.39166e-06
2.5066e-06
-1.7063e-06
2.63764e-06
-2.02293e-06
2.70089e-06
-2.33452e-06
2.69972e-06
-2.63483e-06
2.63835e-06
-2.91847e-06
2.52157e-06
-3.18077e-06
2.35455e-06
-3.41775e-06
2.14266e-06
-3.62609e-06
1.89139e-06
-3.80296e-06
1.60627e-06
-3.94608e-06
1.29281e-06
-4.05358e-06
9.5654e-07
-4.12396e-06
6.02993e-07
-4.15615e-06
2.37779e-07
-4.14941e-06
-1.33383e-07
-4.10339e-06
-5.04603e-07
-4.01814e-06
-8.69777e-07
-3.8942e-06
-1.22254e-06
-3.73262e-06
-1.55627e-06
-3.53508e-06
-1.86407e-06
-3.30397e-06
-2.13885e-06
-3.04248e-06
-2.3734e-06
-2.75472e-06
-2.56054e-06
-2.4458e-06
-2.69333e-06
-2.12185e-06
-2.76532e-06
-1.7901e-06
-2.77085e-06
-1.4588e-06
-2.7054e-06
-1.13718e-06
-2.56593e-06
-8.35264e-07
-2.35129e-06
-5.63717e-07
-2.0625e-06
-3.33535e-07
-1.70309e-06
-1.55774e-07
-1.27916e-06
-4.12159e-08
-7.99461e-07
-2.75939e-07
-4.38694e-08
3.28088e-07
-1.6371e-07
9.29877e-07
-3.47409e-07
1.46539e-06
-5.82891e-07
1.92664e-06
-8.58445e-07
2.30892e-06
-1.16297e-06
2.60998e-06
-1.48615e-06
2.82978e-06
-1.81862e-06
2.97011e-06
-2.15198e-06
3.03425e-06
-2.47887e-06
3.02661e-06
-2.79289e-06
2.95238e-06
-3.08861e-06
2.81728e-06
-3.36139e-06
2.62734e-06
-3.60741e-06
2.38868e-06
-3.82347e-06
2.10745e-06
-4.00693e-06
1.78974e-06
-4.15565e-06
1.44154e-06
-4.2679e-06
1.06878e-06
-4.34226e-06
6.77361e-07
-4.37768e-06
2.73195e-07
-4.37337e-06
-1.37692e-07
-4.32887e-06
-5.49103e-07
-4.24406e-06
-9.54585e-07
-4.11924e-06
-1.34737e-06
-3.95517e-06
-1.72034e-06
-3.75322e-06
-2.06602e-06
-3.51549e-06
-2.37658e-06
-3.24491e-06
-2.64398e-06
-2.94538e-06
-2.86006e-06
-2.62193e-06
-3.01678e-06
-2.28078e-06
-3.10647e-06
-1.92942e-06
-3.12222e-06
-1.57659e-06
-3.05823e-06
-1.23224e-06
-2.91028e-06
-9.07387e-07
-2.67614e-06
-6.13861e-07
-2.35603e-06
-3.64016e-07
-1.95294e-06
-1.70364e-07
-1.47281e-06
-4.51749e-08
-9.2465e-07
-3.21114e-07
-4.72399e-08
3.75328e-07
-1.75968e-07
1.0586e-06
-3.72758e-07
1.66218e-06
-6.24231e-07
2.17812e-06
-9.17455e-07
2.60214e-06
-1.24025e-06
2.93278e-06
-1.58143e-06
3.17096e-06
-1.93094e-06
3.31961e-06
-2.27991e-06
3.38322e-06
-2.6207e-06
3.3674e-06
-2.94682e-06
3.2785e-06
-3.25285e-06
3.12331e-06
-3.53433e-06
2.90881e-06
-3.78761e-06
2.64196e-06
-4.00975e-06
2.32959e-06
-4.19837e-06
1.97836e-06
-4.35156e-06
1.59472e-06
-4.46775e-06
1.18498e-06
-4.54569e-06
7.55301e-07
-4.58435e-06
3.11856e-07
-4.58293e-06
-1.39117e-07
-4.54084e-06
-5.91196e-07
-4.45775e-06
-1.03767e-06
-4.33368e-06
-1.47144e-06
-4.16906e-06
-1.88497e-06
-3.96485e-06
-2.27022e-06
-3.72275e-06
-2.61869e-06
-3.44529e-06
-2.92144e-06
-3.13607e-06
-3.16928e-06
-2.79991e-06
-3.35294e-06
-2.44299e-06
-3.46339e-06
-2.07299e-06
-3.49222e-06
-1.69909e-06
-3.43213e-06
-1.33198e-06
-3.27739e-06
-9.83674e-07
-3.02444e-06
-6.67305e-07
-2.6724e-06
-3.96735e-07
-2.22351e-06
-1.86136e-07
-1.68341e-06
-4.94881e-08
-1.0613e-06
-3.70602e-07
-5.08055e-08
4.26134e-07
-1.88847e-07
1.19665e-06
-3.99215e-07
1.87255e-06
-6.67051e-07
2.44595e-06
-9.7806e-07
2.91315e-06
-1.31889e-06
3.27361e-06
-1.6774e-06
3.52947e-06
-2.04283e-06
3.68505e-06
-2.40589e-06
3.74628e-06
-2.75872e-06
3.72022e-06
-3.09479e-06
3.61458e-06
-3.40885e-06
3.43737e-06
-3.69665e-06
3.19662e-06
-3.95489e-06
2.9002e-06
-4.18097e-06
2.55567e-06
-4.37287e-06
2.17026e-06
-4.52899e-06
1.75084e-06
-4.64802e-06
1.30401e-06
-4.7289e-06
8.36177e-07
-4.77068e-06
3.5364e-07
-4.77255e-06
-1.37242e-07
-4.73382e-06
-6.29931e-07
-4.65393e-06
-1.11756e-06
-4.53255e-06
-1.59282e-06
-4.36969e-06
-2.04783e-06
-4.16584e-06
-2.47407e-06
-3.92215e-06
-2.86237e-06
-3.64065e-06
-3.20294e-06
-3.32446e-06
-3.48547e-06
-2.97804e-06
-3.69936e-06
-2.60739e-06
-3.83403e-06
-2.22025e-06
-3.87936e-06
-1.82618e-06
-3.82621e-06
-1.43655e-06
-3.66702e-06
-1.06444e-06
-3.39654e-06
-7.24401e-07
-3.01244e-06
-4.3198e-07
-2.51593e-06
-2.03257e-07
-1.91214e-06
-5.42108e-08
-1.21034e-06
-4.24813e-07
-5.46096e-08
4.80743e-07
-2.02486e-07
1.34452e-06
-4.27007e-07
2.09707e-06
-7.11623e-07
2.73057e-06
-1.04049e-06
3.24202e-06
-1.39895e-06
3.63207e-06
-1.77384e-06
3.90436e-06
-2.1537e-06
4.06491e-06
-2.52882e-06
4.12141e-06
-2.89122e-06
4.08262e-06
-3.23448e-06
3.95784e-06
-3.55358e-06
3.75646e-06
-3.84469e-06
3.48773e-06
-4.10494e-06
3.16045e-06
-4.33222e-06
2.78295e-06
-4.52497e-06
2.363e-06
-4.682e-06
1.90787e-06
-4.80238e-06
1.42439e-06
-4.88527e-06
9.19063e-07
-4.92987e-06
3.98244e-07
-4.93539e-06
-1.3172e-07
-4.90102e-06
-6.64304e-07
-4.82595e-06
-1.19263e-06
-4.70949e-06
-1.70928e-06
-4.55115e-06
-2.20617e-06
-4.35082e-06
-2.6744e-06
-4.109e-06
-3.1042e-06
-3.82701e-06
-3.48493e-06
-3.50735e-06
-3.80514e-06
-3.1539e-06
-4.05281e-06
-2.77232e-06
-4.21562e-06
-2.37023e-06
-4.28145e-06
-1.95742e-06
-4.23901e-06
-1.54593e-06
-4.07851e-06
-1.14993e-06
-3.79254e-06
-7.85473e-07
-3.3769e-06
-4.70043e-07
-2.83136e-06
-2.21911e-07
-2.16027e-06
-5.9404e-08
-1.37285e-06
-4.84217e-07
-5.87086e-08
5.39452e-07
-2.17058e-07
1.50287e-06
-4.56425e-07
2.33644e-06
-7.58284e-07
3.03243e-06
-1.10501e-06
3.58875e-06
-1.48048e-06
4.00753e-06
-1.87043e-06
4.29431e-06
-2.2627e-06
4.45717e-06
-2.64724e-06
4.50595e-06
-3.01604e-06
4.45142e-06
-3.36293e-06
4.30472e-06
-3.6833e-06
4.07684e-06
-3.97389e-06
3.77832e-06
-4.23245e-06
3.419e-06
-4.45748e-06
3.00798e-06
-4.64802e-06
2.55355e-06
-4.80343e-06
2.06329e-06
-4.92321e-06
1.54416e-06
-5.00684e-06
1.00269e-06
-5.05373e-06
4.4514e-07
-5.06315e-06
-1.22305e-07
-5.03417e-06
-6.93285e-07
-4.96573e-06
-1.26106e-06
-4.85674e-06
-1.81828e-06
-4.70611e-06
-2.35679e-06
-4.51306e-06
-2.86745e-06
-4.27726e-06
-3.34e-06
-3.99919e-06
-3.763e-06
-3.68045e-06
-4.12388e-06
-3.32417e-06
-4.40909e-06
-2.93538e-06
-4.60441e-06
-2.52138e-06
-4.69546e-06
-2.09203e-06
-4.66836e-06
-1.6599e-06
-4.51064e-06
-1.24027e-06
-4.21218e-06
-8.50831e-07
-3.76633e-06
-5.11232e-07
-3.17096e-06
-2.423e-07
-2.4292e-06
-6.51375e-08
-1.55001e-06
-5.49354e-07
-6.31781e-08
6.0263e-07
-2.32795e-07
1.67249e-06
-4.87847e-07
2.59149e-06
-8.07468e-07
3.35205e-06
-1.17196e-06
3.95324e-06
-1.56353e-06
4.39911e-06
-1.96675e-06
4.69752e-06
-2.36876e-06
4.85918e-06
-2.75927e-06
4.89646e-06
-3.13041e-06
4.82257e-06
-3.47644e-06
4.65074e-06
-3.79338e-06
4.39379e-06
-4.07872e-06
4.06365e-06
-4.331e-06
3.67128e-06
-4.54954e-06
3.22652e-06
-4.73411e-06
2.73812e-06
-4.88474e-06
2.21391e-06
-5.00145e-06
1.66088e-06
-5.08417e-06
1.08541e-06
-5.13255e-06
4.93525e-07
-5.14596e-06
-1.089e-07
-5.1234e-06
-7.15849e-07
-5.06355e-06
-1.32091e-06
-4.96485e-06
-1.91698e-06
-4.82562e-06
-2.49602e-06
-4.64423e-06
-3.04883e-06
-4.41943e-06
-3.5648e-06
-4.1506e-06
-4.03182e-06
-3.83826e-06
-4.43622e-06
-3.48446e-06
-4.76289e-06
-3.09332e-06
-4.99554e-06
-2.67153e-06
-5.11724e-06
-2.22877e-06
-5.11113e-06
-1.77799e-06
-4.96142e-06
-1.3355e-06
-4.65467e-06
-9.20775e-07
-4.18105e-06
-5.55891e-07
-3.53584e-06
-2.6466e-07
-2.72043e-06
-7.14954e-08
-1.74318e-06
-6.2085e-07
-6.81214e-08
6.70752e-07
-2.50009e-07
1.85438e-06
-5.21777e-07
2.86326e-06
-8.5974e-07
3.69001e-06
-1.24176e-06
4.33526e-06
-1.64814e-06
4.80549e-06
-2.06221e-06
5.11159e-06
-2.47046e-06
5.26743e-06
-2.86253e-06
5.28853e-06
-3.23089e-06
5.19092e-06
-3.57046e-06
4.99031e-06
-3.87816e-06
4.70149e-06
-4.15246e-06
4.33795e-06
-4.39291e-06
3.91174e-06
-4.59983e-06
3.43343e-06
-4.77389e-06
2.91219e-06
-4.9159e-06
2.35592e-06
-5.02655e-06
1.77153e-06
-5.10625e-06
1.16511e-06
-5.155e-06
5.42279e-07
-5.17231e-06
-9.15917e-08
-5.15714e-06
-7.3102e-07
-5.10793e-06
-1.37012e-06
-5.02265e-06
-2.00225e-06
-4.89893e-06
-2.61974e-06
-4.73426e-06
-3.2135e-06
-4.52625e-06
-3.77281e-06
-4.27305e-06
-4.28503e-06
-3.97376e-06
-4.73551e-06
-3.62907e-06
-5.10758e-06
-3.24182e-06
-5.38279e-06
-2.81771e-06
-5.54136e-06
-2.36588e-06
-5.56296e-06
-1.8994e-06
-5.4279e-06
-1.43554e-06
-5.11853e-06
-9.95609e-07
-4.62099e-06
-6.04418e-07
-3.92703e-06
-2.89278e-07
-3.03557e-06
-7.85828e-08
-1.95387e-06
-6.99432e-07
-7.3682e-08
7.44434e-07
-2.69128e-07
2.04982e-06
-5.58894e-07
3.15303e-06
-9.15844e-07
4.04696e-06
-1.31493e-06
4.73435e-06
-1.73432e-06
5.22488e-06
-2.156e-06
5.53328e-06
-2.56596e-06
5.67739e-06
-2.95396e-06
5.67653e-06
-3.31312e-06
5.55008e-06
-3.63934e-06
5.31653e-06
-3.93073e-06
4.99288e-06
-4.18702e-06
4.59423e-06
-4.40903e-06
4.13375e-06
-4.59825e-06
3.62265e-06
-4.75643e-06
3.07036e-06
-4.88528e-06
2.48478e-06
-4.98627e-06
1.87252e-06
-5.06039e-06
1.23923e-06
-5.10804e-06
5.89929e-07
-5.12894e-06
-7.07008e-08
-5.12204e-06
-7.37919e-07
-5.08557e-06
-1.40659e-06
-5.01704e-06
-2.07078e-06
-4.91338e-06
-2.7234e-06
-4.77109e-06
-3.35579e-06
-4.58656e-06
-3.95734e-06
-4.35645e-06
-4.51514e-06
-4.07821e-06
-5.01374e-06
-3.75077e-06
-5.43503e-06
-3.37526e-06
-5.7583e-06
-2.95591e-06
-5.96071e-06
-2.50086e-06
-6.018e-06
-2.02296e-06
-5.90581e-06
-1.54016e-06
-5.60133e-06
-1.07564e-06
-5.0855e-06
-6.57294e-07
-4.34538e-06
-3.16521e-07
-3.37634e-06
-8.6536e-08
-2.18386e-06
-7.85969e-07
-8.00598e-08
8.24493e-07
-2.90739e-07
2.2605e-06
-6.00106e-07
3.46239e-06
-9.76749e-07
4.4236e-06
-1.39213e-06
5.14972e-06
-1.82197e-06
5.65473e-06
-2.24696e-06
5.95827e-06
-2.65275e-06
6.08318e-06
-3.02956e-06
6.05335e-06
-3.37155e-06
5.89207e-06
-3.67601e-06
5.621e-06
-3.94261e-06
5.25947e-06
-4.17265e-06
4.82427e-06
-4.36848e-06
4.32958e-06
-4.53295e-06
3.78713e-06
-4.66905e-06
3.20646e-06
-4.77953e-06
2.59526e-06
-4.86669e-06
1.95968e-06
-4.93219e-06
1.30473e-06
-4.97689e-06
6.34632e-07
-5.00078e-06
-4.68152e-08
-5.00287e-06
-7.35824e-07
-4.98122e-06
-1.42823e-06
-4.93293e-06
-2.11908e-06
-4.85419e-06
-2.80213e-06
-4.74053e-06
-3.46946e-06
-4.58698e-06
-4.11089e-06
-4.38856e-06
-4.71356e-06
-4.14078e-06
-5.26153e-06
-3.8404e-06
-5.73541e-06
-3.48635e-06
-6.11235e-06
-3.08082e-06
-6.36625e-06
-2.63033e-06
-6.46849e-06
-2.14692e-06
-6.38922e-06
-1.64889e-06
-6.09936e-06
-1.16121e-06
-5.57318e-06
-7.1512e-07
-4.79147e-06
-3.46865e-07
-3.7446e-06
-9.55376e-08
-2.43519e-06
-8.81506e-07
-8.75365e-08
9.1203e-07
-3.15646e-07
2.48861e-06
-6.46629e-07
3.79338e-06
-1.04369e-06
4.82066e-06
-1.47407e-06
5.58011e-06
-1.91081e-06
6.09147e-06
-2.33335e-06
6.3808e-06
-2.72735e-06
6.47718e-06
-3.08401e-06
6.41001e-06
-3.39904e-06
6.2071e-06
-3.67162e-06
5.89358e-06
-3.9034e-06
5.49125e-06
-4.0976e-06
5.01848e-06
-4.25836e-06
4.49034e-06
-4.3901e-06
3.91887e-06
-4.49715e-06
3.31351e-06
-4.58339e-06
2.6815e-06
-4.65203e-06
2.02832e-06
-4.70544e-06
1.35814e-06
-4.74499e-06
6.74183e-07
-4.77099e-06
-2.08165e-08
-4.78258e-06
-7.24231e-07
-4.77772e-06
-1.4331e-06
-4.75313e-06
-2.14366e-06
-4.7044e-06
-2.85087e-06
-4.62602e-06
-3.54783e-06
-4.51169e-06
-4.22522e-06
-4.35463e-06
-4.87063e-06
-4.14815e-06
-5.46801e-06
-3.88647e-06
-5.99708e-06
-3.56576e-06
-6.43306e-06
-3.18543e-06
-6.74658e-06
-2.74963e-06
-6.90429e-06
-2.26879e-06
-6.87006e-06
-1.76096e-06
-6.60718e-06
-1.25264e-06
-6.0815e-06
-7.78663e-07
-5.26544e-06
-3.80952e-07
-4.14231e-06
-1.05838e-07
-2.7103e-06
-9.87345e-07
-9.65117e-08
1.00854e-06
-3.4496e-07
2.73706e-06
-7.00067e-07
4.14848e-06
-1.11817e-06
5.23877e-06
-1.56148e-06
6.02341e-06
-2.00008e-06
6.53007e-06
-2.41245e-06
6.79317e-06
-2.78485e-06
6.84958e-06
-3.11013e-06
6.73529e-06
-3.38626e-06
6.48323e-06
-3.61491e-06
6.12223e-06
-3.8002e-06
5.67654e-06
-3.94766e-06
5.16594e-06
-4.06341e-06
4.60609e-06
-4.15362e-06
4.00908e-06
-4.22403e-06
3.38391e-06
-4.27968e-06
2.73715e-06
-4.32471e-06
2.07335e-06
-4.36221e-06
1.39564e-06
-4.39409e-06
7.06065e-07
-4.42102e-06
6.11481e-09
-4.44234e-06
-7.02913e-07
-4.45598e-06
-1.41945e-06
-4.45844e-06
-2.1412e-06
-4.44476e-06
-2.86455e-06
-4.40856e-06
-3.58404e-06
-4.34219e-06
-4.29159e-06
-4.23705e-06
-4.97577e-06
-4.0841e-06
-5.62096e-06
-3.87463e-06
-6.20655e-06
-3.60147e-06
-6.70622e-06
-3.26046e-06
-7.08759e-06
-2.85237e-06
-7.31238e-06
-2.38497e-06
-7.33746e-06
-1.8751e-06
-7.11705e-06
-1.35023e-06
-6.60637e-06
-8.48913e-07
-5.76676e-06
-4.19657e-07
-4.57157e-06
-1.17793e-07
-3.01216e-06
-1.10514e-06
-1.0756e-07
1.1161e-06
-3.80215e-07
3.00971e-06
-7.6252e-07
4.53079e-06
-1.202e-06
5.67824e-06
-1.65483e-06
6.47624e-06
-2.08812e-06
6.96336e-06
-2.47995e-06
7.185e-06
-2.81809e-06
7.18772e-06
-3.09802e-06
7.01521e-06
-3.32085e-06
6.70606e-06
-3.49147e-06
6.29286e-06
-3.617e-06
5.80207e-06
-3.70558e-06
5.25452e-06
-3.76555e-06
4.66606e-06
-3.80486e-06
4.04838e-06
-3.83067e-06
3.40972e-06
-3.84915e-06
2.75563e-06
-3.8653e-06
2.08951e-06
-3.8829e-06
1.41323e-06
-3.90438e-06
7.27543e-07
-3.93079e-06
3.25253e-08
-3.96173e-06
-6.7198e-07
-3.99523e-06
-1.38595e-06
-4.0277e-06
-2.10872e-06
-4.05384e-06
-2.83842e-06
-4.06656e-06
-3.57132e-06
-4.05707e-06
-4.30108e-06
-4.01503e-06
-5.01781e-06
-3.92897e-06
-5.70702e-06
-3.78702e-06
-6.34849e-06
-3.5781e-06
-6.91513e-06
-3.29362e-06
-7.37207e-06
-2.92975e-06
-7.67625e-06
-2.49021e-06
-7.77701e-06
-1.98922e-06
-7.61804e-06
-1.45418e-06
-7.14141e-06
-9.27144e-07
-6.2938e-06
-4.642e-07
-5.03451e-06
-1.31914e-07
-3.34445e-06
-1.23705e-06
-1.21522e-07
1.23762e-06
-4.2354e-07
3.31173e-06
-8.36686e-07
4.94394e-06
-1.2971e-06
6.13865e-06
-1.75394e-06
6.93308e-06
-2.17163e-06
7.38105e-06
-2.52897e-06
7.54234e-06
-2.81657e-06
7.47532e-06
-3.03389e-06
7.23253e-06
-3.18632e-06
6.85849e-06
-3.28275e-06
6.38929e-06
-3.3338e-06
5.85312e-06
-3.35049e-06
5.27121e-06
-3.34344e-06
4.65901e-06
-3.32233e-06
4.02727e-06
-3.29565e-06
3.38304e-06
-3.27052e-06
2.7305e-06
-3.25268e-06
2.07168e-06
-3.24646e-06
1.40702e-06
-3.25475e-06
7.35834e-07
-3.27898e-06
5.67546e-08
-3.31905e-06
-6.3191e-07
-3.37324e-06
-1.33177e-06
-3.43806e-06
-2.0439e-06
-3.50812e-06
-2.76836e-06
-3.57594e-06
-3.50349e-06
-3.63191e-06
-4.24511e-06
-3.6642e-06
-4.98551e-06
-3.65908e-06
-5.71214e-06
-3.60144e-06
-6.40614e-06
-3.47588e-06
-7.04069e-06
-3.2685e-06
-7.57945e-06
-2.96951e-06
-7.97523e-06
-2.57676e-06
-8.16977e-06
-2.09982e-06
-8.09497e-06
-1.56431e-06
-7.67692e-06
-1.01496e-06
-6.84315e-06
-5.163e-07
-5.53317e-06
-1.48966e-07
-3.71178e-06
-1.38602e-06
-1.39659e-07
1.37728e-06
-4.77903e-07
3.64998e-06
-9.25934e-07
5.39197e-06
-1.4052e-06
6.61792e-06
-1.85709e-06
7.38498e-06
-2.24437e-06
7.76833e-06
-2.54838e-06
7.84634e-06
-2.76466e-06
7.69161e-06
-2.8984e-06
7.36627e-06
-2.96053e-06
6.92061e-06
-2.96476e-06
6.39353e-06
-2.92562e-06
5.81398e-06
-2.8571e-06
5.20269e-06
-2.77198e-06
4.57389e-06
-2.68146e-06
3.93675e-06
-2.59504e-06
3.29662e-06
-2.52055e-06
2.65601e-06
-2.4642e-06
2.01533e-06
-2.43068e-06
1.37349e-06
-2.42319e-06
7.28343e-07
-2.44348e-06
7.7051e-08
-2.49182e-06
-5.83575e-07
-2.56684e-06
-1.25675e-06
-2.6654e-06
-1.94534e-06
-2.78236e-06
-2.6514e-06
-2.9103e-06
-3.37555e-06
-3.03923e-06
-4.11619e-06
-3.15638e-06
-4.86836e-06
-3.24618e-06
-5.62234e-06
-3.29048e-06
-6.36183e-06
-3.26943e-06
-7.06174e-06
-3.16313e-06
-7.68576e-06
-2.95439e-06
-8.18397e-06
-2.63296e-06
-8.49119e-06
-2.20104e-06
-8.52689e-06
-1.67962e-06
-8.19835e-06
-1.11429e-06
-7.40847e-06
-5.7839e-07
-6.06907e-06
-1.70113e-07
-4.12006e-06
-1.55613e-06
-1.63911e-07
1.54119e-06
-5.47454e-07
4.03352e-06
-1.03424e-06
5.87876e-06
-1.52706e-06
7.11074e-06
-1.95951e-06
7.81742e-06