/*--------------------------------*- C++ -*----------------------------------*\
| =========                 |                                                 |
| \\      /  F ield         | OpenFOAM: The Open Source CFD Toolbox           |
|  \\    /   O peration     | Version:  2506                                  |
|   \\  /    A nd           | Website:  www.openfoam.com                      |
|    \\/     M anipulation  |                                                 |
\*---------------------------------------------------------------------------*/
FoamFile
{
    version     2.0;
    format      ascii;
    arch        "LSB;label=32;scalar=64";
    class       volVectorField;
    location    "0.48";
    object      U;
}
// * * * * * * * * * * * * * * * * * * * * * * * * * * * * * * * * * * * * * //

dimensions      [0 1 -1 0 0 0 0];

internalField   nonuniform List<vector> 
1600
(
(6.04696e-05 -6.05893e-05 0)
(0.000155873 -5.71892e-05 0)
(0.000156893 -7.06755e-06 0)
(6.63358e-06 5.24335e-05 0)
(-0.000303321 0.000107974 0)
(-0.00075657 0.000154843 0)
(-0.00132864 0.000191678 0)
(-0.00199256 0.000218524 0)
(-0.0027211 0.000235954 0)
(-0.00348798 0.000244716 0)
(-0.00426846 0.000245602 0)
(-0.00503966 0.000239396 0)
(-0.00578072 0.000226859 0)
(-0.00647289 0.000208726 0)
(-0.00709953 0.000185706 0)
(-0.00764615 0.000158491 0)
(-0.00810042 0.000127761 0)
(-0.00845219 9.41986e-05 0)
(-0.00869354 5.84922e-05 0)
(-0.00881883 2.135e-05 0)
(-0.00882477 -1.64935e-05 0)
(-0.00871052 -5.42712e-05 0)
(-0.00847774 -9.11798e-05 0)
(-0.00813075 -0.00012638 0)
(-0.00767656 -0.000159 0)
(-0.00712494 -0.000188142 0)
(-0.00648847 -0.000212894 0)
(-0.00578248 -0.00023234 0)
(-0.00502503 -0.00024558 0)
(-0.0042367 -0.000251747 0)
(-0.00344043 -0.000250027 0)
(-0.00266116 -0.000239683 0)
(-0.0019254 -0.000220079 0)
(-0.00126065 -0.000190734 0)
(-0.000694491 -0.000151446 0)
(-0.000253168 -0.000102635 0)
(4.08127e-05 -4.61851e-05 0)
(0.000174325 1.26687e-05 0)
(0.000160356 6.0219e-05 0)
(6.02731e-05 6.00422e-05 0)
(5.86536e-05 -0.000157077 0)
(7.25014e-05 -6.95768e-05 0)
(-0.000178495 0.000182284 0)
(-0.000772783 0.000476939 0)
(-0.00172488 0.00076105 0)
(-0.00300824 0.00100947 0)
(-0.00457429 0.00121088 0)
(-0.00636363 0.00136138 0)
(-0.00831248 0.00146089 0)
(-0.0103566 0.00151129 0)
(-0.0124337 0.00151557 0)
(-0.0144849 0.00147728 0)
(-0.0164557 0.00140031 0)
(-0.0182964 0.00128868 0)
(-0.0199628 0.00114656 0)
(-0.0214161 0.000978129 0)
(-0.0226231 0.000787657 0)
(-0.0235568 0.000579475 0)
(-0.024196 0.000358017 0)
(-0.0245258 0.000127846 0)
(-0.0245378 -0.000106324 0)
(-0.02423 -0.000339606 0)
(-0.0236074 -0.000566939 0)
(-0.022682 -0.000783102 0)
(-0.021473 -0.000982746 0)
(-0.0200068 -0.00116046 0)
(-0.0183172 -0.00131083 0)
(-0.0164447 -0.00142856 0)
(-0.0144368 -0.0015086 0)
(-0.0123474 -0.00154629 0)
(-0.0102353 -0.00153753 0)
(-0.00816407 -0.00147905 0)
(-0.00619971 -0.00136869 0)
(-0.004409 -0.0012059 0)
(-0.00285636 -0.000992564 0)
(-0.00159954 -0.000734737 0)
(-0.000682996 -0.000445973 0)
(-0.000126877 -0.000153439 0)
(9.20185e-05 8.84216e-05 0)
(6.17608e-05 0.00016076 0)
(1.14503e-05 -0.000162862 0)
(-0.000171938 0.000178368 0)
(-0.000804093 0.000813895 0)
(-0.00193117 0.0015364 0)
(-0.00355408 0.00223885 0)
(-0.00563686 0.00286176 0)
(-0.0081147 0.00337353 0)
(-0.0109061 0.00375977 0)
(-0.0139215 0.00401632 0)
(-0.017069 0.00414512 0)
(-0.0202577 0.00415186 0)
(-0.0234008 0.00404454 0)
(-0.026417 0.00383258 0)
(-0.0292318 0.00352631 0)
(-0.0317784 0.00313663 0)
(-0.0339979 0.00267486 0)
(-0.0358402 0.00215263 0)
(-0.0372642 0.00158191 0)
(-0.0382376 0.000974981 0)
(-0.0387382 0.00034451 0)
(-0.0387533 -0.000296429 0)
(-0.0382804 -0.000934339 0)
(-0.0373274 -0.00155531 0)
(-0.0359128 -0.00214508 0)
(-0.0340662 -0.00268915 0)
(-0.0318277 -0.00317293 0)
(-0.0292483 -0.00358204 0)
(-0.0263895 -0.00390252 0)
(-0.0233223 -0.00412131 0)
(-0.0201268 -0.00422663 0)
(-0.0168903 -0.00420862 0)
(-0.0137058 -0.00406 0)
(-0.0106691 -0.00377707 0)
(-0.00787559 -0.00336112 0)
(-0.00541588 -0.00282058 0)
(-0.00336941 -0.0021748 0)
(-0.00179585 -0.00146041 0)
(-0.000723136 -0.000741212 0)
(-0.000138859 -0.000126435 0)
(1.76802e-05 0.000180087 0)
(-4.54193e-05 -2.206e-05 0)
(-0.000464422 0.000768002 0)
(-0.00153553 0.0019415 0)
(-0.00324209 0.00322687 0)
(-0.00555502 0.00446845 0)
(-0.00842334 0.00557136 0)
(-0.0117661 0.00648058 0)
(-0.0154832 0.00716798 0)
(-0.019465 0.00762295 0)
(-0.0235981 0.00784617 0)
(-0.0277696 0.00784578 0)
(-0.0318706 0.00763479 0)
(-0.0357987 0.00722948 0)
(-0.0394596 0.00664825 0)
(-0.0427681 0.00591097 0)
(-0.0456493 0.00503856 0)
(-0.0480392 0.00405277 0)
(-0.049885 0.00297609 0)
(-0.0511459 0.00183168 0)
(-0.0517932 0.000643487 0)
(-0.0518111 -0.000563829 0)
(-0.0511965 -0.00176484 0)
(-0.0499598 -0.00293343 0)
(-0.0481251 -0.00404291 0)
(-0.04573 -0.00506627 0)
(-0.042826 -0.00597651 0)
(-0.0394782 -0.00674712 0)
(-0.0357646 -0.00735264 0)
(-0.031775 -0.00776946 0)
(-0.0276105 -0.0079767 0)
(-0.0233808 -0.00795733 0)
(-0.0192017 -0.00769956 0)
(-0.0151925 -0.00719867 0)
(-0.011471 -0.00645946 0)
(-0.00814827 -0.00549982 0)
(-0.00532254 -0.00435622 0)
(-0.00306915 -0.00309221 0)
(-0.00142998 -0.00181001 0)
(-0.000420077 -0.000669587 0)
(-3.66923e-05 5.98242e-05 0)
(-0.000100512 0.00027858 0)
(-0.000761292 0.00172927 0)
(-0.00229006 0.00359226 0)
(-0.00459407 0.00555649 0)
(-0.0076038 0.00742925 0)
(-0.0112472 0.00908542 0)
(-0.0154246 0.010448 0)
(-0.0200177 0.011475 0)
(-0.0248992 0.0121485 0)
(-0.0299374 0.0124673 0)
(-0.0350015 0.012442 0)
(-0.0399653 0.0120908 0)
(-0.044709 0.0114377 0)
(-0.0491226 0.0105104 0)
(-0.0531061 0.00933943 0)
(-0.0565719 0.00795709 0)
(-0.0594445 0.00639729 0)
(-0.061662 0.00469525 0)
(-0.0631764 0.0028874 0)
(-0.0639542 0.00101132 0)
(-0.0639765 -0.000894202 0)
(-0.06324 -0.00278927 0)
(-0.061757 -0.00463297 0)
(-0.0595557 -0.00638364 0)
(-0.0566804 -0.00799923 0)
(-0.0531914 -0.00943783 0)
(-0.049165 -0.0106585 0)
(-0.0446922 -0.0116221 0)
(-0.0398783 -0.0122928 0)
(-0.0348408 -0.012639 0)
(-0.0297073 -0.0126355 0)
(-0.0246128 -0.0122658 0)
(-0.0196954 -0.0115243 0)
(-0.015092 -0.0104199 0)
(-0.0109326 -0.00898126 0)
(-0.0073341 -0.00726256 0)
(-0.00439047 -0.00535343 0)
(-0.00216386 -0.00339027 0)
(-0.000707319 -0.00157349 0)
(-8.96391e-05 -0.000214697 0)
(-0.000150772 0.000732678 0)
(-0.00104607 0.00306294 0)
(-0.00303003 0.00577348 0)
(-0.00593133 0.00853263 0)
(-0.00963486 0.0111223 0)
(-0.0140428 0.013394 0)
(-0.0190335 0.0152528 0)
(-0.0244697 0.0166443 0)
(-0.0302062 0.0175443 0)
(-0.0360952 0.0179503 0)
(-0.0419903 0.0178753 0)
(-0.0477502 0.0173438 0)
(-0.0532416 0.0163881 0)
(-0.0583412 0.0150466 0)
(-0.0629375 0.0133613 0)
(-0.0669322 0.0113778 0)
(-0.0702411 0.00914366 0)
(-0.0727949 0.00670867 0)
(-0.0745396 0.00412432 0)
(-0.0754378 0.00144385 0)
(-0.0754682 -0.00127787 0)
(-0.074627 -0.00398443 0)
(-0.0729277 -0.00661808 0)
(-0.0704016 -0.00912009 0)
(-0.067098 -0.0114313 0)
(-0.0630841 -0.0134929 0)
(-0.0584448 -0.0152475 0)
(-0.0532816 -0.0166407 0)
(-0.0477119 -0.0176225 0)
(-0.0418669 -0.0181494 0)
(-0.0358892 -0.0181872 0)
(-0.0299298 -0.0177134 0)
(-0.024144 -0.0167213 0)
(-0.0186865 -0.0152238 0)
(-0.0137062 -0.0132594 0)
(-0.00934021 -0.0108989 0)
(-0.00570471 -0.00825483 0)
(-0.00288708 -0.00549188 0)
(-0.000983806 -0.00284066 0)
(-0.000137936 -0.000637809 0)
(-0.000196099 0.00132991 0)
(-0.00131438 0.0047576 0)
(-0.0037416 0.0084775 0)
(-0.00723067 0.0121497 0)
(-0.0116193 0.0155403 0)
(-0.0167807 0.0184849 0)
(-0.022569 0.0208751 0)
(-0.0288256 0.0226477 0)
(-0.0353875 0.023774 0)
(-0.0420909 0.0242515 0)
(-0.0487752 0.024097 0)
(-0.0552858 0.023342 0)
(-0.0614777 0.0220285 0)
(-0.0672167 0.0202062 0)
(-0.072382 0.0179304 0)
(-0.0768668 0.0152607 0)
(-0.0805798 0.0122599 0)
(-0.0834456 0.00899383 0)
(-0.0854059 0.00553043 0)
(-0.0864196 0.00194006 0)
(-0.0864636 -0.00170477 0)
(-0.085533 -0.00532958 0)
(-0.0836422 -0.00885818 0)
(-0.0808244 -0.0122131 0)
(-0.0771326 -0.0153164 0)
(-0.0726389 -0.0180908 0)
(-0.0674347 -0.0204609 0)
(-0.0616299 -0.022355 0)
(-0.0553518 -0.0237076 0)
(-0.0487429 -0.0244618 0)
(-0.0419589 -0.0245728 0)
(-0.0351656 -0.0240113 0)
(-0.0285345 -0.0227678 0)
(-0.0222381 -0.0208579 0)
(-0.0164453 -0.0183283 0)
(-0.0113157 -0.0152636 0)
(-0.00699082 -0.0117954 0)
(-0.00358678 -0.00811067 0)
(-0.00124538 -0.00446178 0)
(-0.000181458 -0.00119981 0)
(-0.000237422 0.00206055 0)
(-0.00156745 0.00679869 0)
(-0.00442369 0.0116909 0)
(-0.00848787 0.0163961 0)
(-0.0135508 0.0206721 0)
(-0.0194551 0.0243451 0)
(-0.0260286 0.0272984 0)
(-0.03309 0.0294636 0)
(-0.0404573 0.0308105 0)
(-0.0479509 0.0313389 0)
(-0.055396 0.0310711 0)
(-0.0626264 0.0300472 0)
(-0.0694862 0.0283199 0)
(-0.0758324 0.0259516 0)
(-0.0815363 0.0230121 0)
(-0.0864843 0.0195762 0)
(-0.0905795 0.015723 0)
(-0.0937419 0.0115353 0)
(-0.0959093 0.00709868 0)
(-0.0970378 0.00250174 0)
(-0.0971023 -0.00216432 0)
(-0.0960971 -0.00680578 0)
(-0.0940362 -0.0113268 0)
(-0.0909542 -0.01563 0)
(-0.086906 -0.0196173 0)
(-0.0819672 -0.0231913 0)
(-0.0762341 -0.0262572 0)
(-0.069823 -0.0287245 0)
(-0.062869 -0.0305106 0)
(-0.0555248 -0.0315434 0)
(-0.0479581 -0.0317656 0)
(-0.0403483 -0.031139 0)
(-0.0328833 -0.0296498 0)
(-0.0257543 -0.0273139 0)
(-0.0191516 -0.0241832 0)
(-0.0132598 -0.0203532 0)
(-0.00824811 -0.0159702 0)
(-0.00426369 -0.011238 0)
(-0.00149385 -0.00642516 0)
(-0.000221219 -0.00189184 0)
(-0.00027588 0.00291683 0)
(-0.0018086 0.00917282 0)
(-0.00508123 0.0154001 0)
(-0.00970861 0.0212599 0)
(-0.0154358 0.0265073 0)
(-0.0220739 0.0309641 0)
(-0.029423 0.0345105 0)
(-0.0372781 0.0370772 0)
(-0.0454372 0.0386358 0)
(-0.0537042 0.039191 0)
(-0.0618907 0.0387733 0)
(-0.069819 0.037433 0)
(-0.0773239 0.0352354 0)
(-0.0842546 0.032257 0)
(-0.0904756 0.028583 0)
(-0.0958682 0.0243045 0)
(-0.100331 0.0195181 0)
(-0.10378 0.0143241 0)
(-0.106151 0.00882668 0)
(-0.107397 0.0031333 0)
(-0.10749 -0.00264535 0)
(-0.106425 -0.0083956 0)
(-0.104214 -0.0140011 0)
(-0.100892 -0.0193436 0)
(-0.0965142 -0.0243039 0)
(-0.0911589 -0.0287632 0)
(-0.0849254 -0.0326058 0)
(-0.0779346 -0.0357209 0)
(-0.0703284 -0.0380066 0)
(-0.0622681 -0.0393738 0)
(-0.0539324 -0.0397504 0)
(-0.0455147 -0.0390871 0)
(-0.0372194 -0.0373627 0)
(-0.0292575 -0.0345903 0)
(-0.0218425 -0.0308243 0)
(-0.0151858 -0.026167 0)
(-0.00948684 -0.0207755 0)
(-0.00492525 -0.0148666 0)
(-0.00173351 -0.00872135 0)
(-0.000258513 -0.00270735 0)
(-0.000312526 0.00389324 0)
(-0.00204172 0.0118697 0)
(-0.00572151 0.0195941 0)
(-0.0109031 0.0267313 0)
(-0.0172868 0.0330372 0)
(-0.0246518 0.0383339 0)
(-0.0327696 0.042503 0)
(-0.0414103 0.0454782 0)
(-0.0503513 0.0472373 0)
(-0.0593794 0.047793 0)
(-0.0682927 0.0471866 0)
(-0.0769026 0.045481 0)
(-0.0850351 0.042756 0)
(-0.0925326 0.0391039 0)
(-0.0992545 0.0346263 0)
(-0.105078 0.0294321 0)
(-0.109898 0.0236356 0)
(-0.113628 0.0173557 0)
(-0.116201 0.0107153 0)
(-0.117568 0.0038413 0)
(-0.117701 -0.00313582 0)
(-0.116591 -0.010082 0)
(-0.11425 -0.0168599 0)
(-0.11071 -0.0233298 0)
(-0.106029 -0.0293503 0)
(-0.100283 -0.0347805 0)
(-0.0935738 -0.039482 0)
(-0.086026 -0.0433221 0)
(-0.0777864 -0.0461778 0)
(-0.0690241 -0.0479402 0)
(-0.0599281 -0.0485198 0)
(-0.0507057 -0.047853 0)
(-0.0415783 -0.0459078 0)
(-0.0327779 -0.0426915 0)
(-0.0245432 -0.0382566 0)
(-0.0171143 -0.0327088 0)
(-0.0107226 -0.0262123 0)
(-0.00558175 -0.018994 0)
(-0.0019694 -0.0113454 0)
(-0.000294603 -0.00364264 0)
(-0.000348262 0.00498647 0)
(-0.00227059 0.0148828 0)
(-0.00635239 0.0242656 0)
(-0.012083 0.0328036 0)
(-0.0191187 0.0402559 0)
(-0.0272064 0.0464488 0)
(-0.0360881 0.0512694 0)
(-0.0455082 0.0546591 0)
(-0.0552228 0.0566053 0)
(-0.0650016 0.057133 0)
(-0.0746289 0.056297 0)
(-0.0839057 0.0541759 0)
(-0.0926501 0.0508659 0)
(-0.100699 0.046477 0)
(-0.107907 0.0411287 0)
(-0.114149 0.0349483 0)
(-0.119317 0.0280687 0)
(-0.123324 0.0206277 0)
(-0.1261 0.0127674 0)
(-0.127595 0.00463385 0)
(-0.127779 -0.0036225 0)
(-0.12664 -0.0118472 0)
(-0.124189 -0.0198817 0)
(-0.120456 -0.0275645 0)
(-0.115496 -0.0347315 0)
(-0.109386 -0.0412184 0)
(-0.102227 -0.046863 0)
(-0.0941443 -0.0515088 0)
(-0.0852893 -0.0550092 0)
(-0.0758376 -0.0572328 0)
(-0.0659882 -0.0580697 0)
(-0.0559616 -0.0574379 0)
(-0.0459973 -0.0552911 0)
(-0.0363493 -0.0516261 0)
(-0.0272828 -0.0464901 0)
(-0.0190689 -0.0399877 0)
(-0.0119731 -0.0322873 0)
(-0.00624447 -0.0236234 0)
(-0.00220665 -0.0142976 0)
(-0.000330631 -0.00469687 0)
(-0.000383839 0.00619522 0)
(-0.00249865 0.0182094 0)
(-0.00698143 0.0294115 0)
(-0.0132602 0.0394737 0)
(-0.0209467 0.0481605 0)
(-0.0297553 0.0553054 0)
(-0.0393977 0.0608051 0)
(-0.0495918 0.0646132 0)
(-0.060072 0.066731 0)
(-0.0705903 0.0671995 0)
(-0.0809179 0.0660911 0)
(-0.0908456 0.0635026 0)
(-0.100185 0.0595496 0)
(-0.108768 0.0543613 0)
(-0.116447 0.0480768 0)
(-0.123094 0.0408427 0)
(-0.128601 0.0328111 0)
(-0.132879 0.0241387 0)
(-0.135859 0.0149866 0)
(-0.137488 0.00552015 0)
(-0.137734 -0.00409088 0)
(-0.136585 -0.0136718 0)
(-0.134047 -0.0230434 0)
(-0.130148 -0.0320219 0)
(-0.124939 -0.0404204 0)
(-0.118494 -0.0480503 0)
(-0.110912 -0.0547243 0)
(-0.10232 -0.0602601 0)
(-0.0928709 -0.064485 0)
(-0.0827446 -0.067242 0)
(-0.0721497 -0.0683966 0)
(-0.0613198 -0.0678448 0)
(-0.0505125 -0.065521 0)
(-0.0400051 -0.0614068 0)
(-0.0300909 -0.0555395 0)
(-0.0210741 -0.0480188 0)
(-0.0132565 -0.0390138 0)
(-0.00692466 -0.0287649 0)
(-0.00245014 -0.0175839 0)
(-0.000367613 -0.00587192 0)
(-0.000419883 0.00751993 0)
(-0.00272893 0.0218502 0)
(-0.0076156 0.0350329 0)
(-0.0144455 0.0467427 0)
(-0.0227851 0.0567511 0)
(-0.032315 0.0649021 0)
(-0.0427157 0.0711063 0)
(-0.0536778 0.0753335 0)
(-0.0649135 0.0776041 0)
(-0.0761575 0.0779792 0)
(-0.0871679 0.0765527 0)
(-0.0977267 0.0734433 0)
(-0.107639 0.0687885 0)
(-0.116735 0.062739 0)
(-0.124864 0.0554548 0)
(-0.131899 0.0471028 0)
(-0.137732 0.0378546 0)
(-0.142275 0.027886 0)
(-0.145457 0.0173764 0)
(-0.147226 0.00650986 0)
(-0.147549 -0.00452511 0)
(-0.146409 -0.0155345 0)
(-0.143809 -0.0263187 0)
(-0.139774 -0.0366725 0)
(-0.13435 -0.0463856 0)
(-0.127605 -0.0552449 0)
(-0.119636 -0.0630367 0)
(-0.110567 -0.0695507 0)
(-0.10055 -0.0745854 0)
(-0.0897691 -0.0779547 0)
(-0.0784409 -0.0794953 0)
(-0.0668114 -0.0790759 0)
(-0.0551563 -0.0766067 0)
(-0.0437768 -0.0720487 0)
(-0.0329961 -0.0654238 0)
(-0.0231538 -0.0568227 0)
(-0.0145904 -0.0464116 0)
(-0.00763317 -0.0344352 0)
(-0.00270446 -0.0212158 0)
(-0.000406463 -0.00717218 0)
(-0.000456926 0.0089625 0)
(-0.00296413 0.0258095 0)
(-0.00826119 0.0411347 0)
(-0.0156489 0.0546149 0)
(-0.0246468 0.0660302 0)
(-0.0348998 0.0752384 0)
(-0.0460561 0.0821683 0)
(-0.0577783 0.0868112 0)
(-0.0697559 0.089211 0)
(-0.0817067 0.0894542 0)
(-0.0933763 0.0876605 0)
(-0.104539 0.0839744 0)
(-0.114996 0.078558 0)
(-0.124575 0.0715861 0)
(-0.133127 0.0632412 0)
(-0.140526 0.053711 0)
(-0.146666 0.0431871 0)
(-0.151461 0.0318638 0)
(-0.154842 0.0199385 0)
(-0.156756 0.00761244 0)
(-0.157168 -0.00490809 0)
(-0.156059 -0.017411 0)
(-0.153428 -0.0296774 0)
(-0.149294 -0.0414812 0)
(-0.143694 -0.0525894 0)
(-0.136694 -0.0627638 0)
(-0.128381 -0.0717631 0)
(-0.118875 -0.0793473 0)
(-0.108326 -0.0852832 0)
(-0.0969206 -0.0893514 0)
(-0.084879 -0.0913551 0)
(-0.0724595 -0.0911303 0)
(-0.0599552 -0.0885565 0)
(-0.047692 -0.0835681 0)
(-0.0360246 -0.0761656 0)
(-0.0253303 -0.0664252 0)
(-0.0159917 -0.0545068 0)
(-0.00838027 -0.0406573 0)
(-0.00297393 -0.0252099 0)
(-0.000448015 -0.00860439 0)
(-0.000495444 0.0105262 0)
(-0.00320671 0.0300942 0)
(-0.00892399 0.0477252 0)
(-0.0168797 0.0630976 0)
(-0.0265431 0.0760021 0)
(-0.0375217 0.0863141 0)
(-0.0494295 0.0939852 0)
(-0.0619003 0.0990335 0)
(-0.0746006 0.101533 0)
(-0.0872314 0.1016 0)
(-0.0995275 0.0993852 0)
(-0.111257 0.0950632 0)
(-0.122218 0.0888245 0)
(-0.13224 0.0808699 0)
(-0.141177 0.0714059 0)
(-0.148907 0.0606424 0)
(-0.155328 0.0487902 0)
(-0.160356 0.0360619 0)
(-0.163927 0.0226714 0)
(-0.165987 0.00883624 0)
(-0.166502 -0.00522174 0)
(-0.165448 -0.019274 0)
(-0.162819 -0.0330839 0)
(-0.158628 -0.046406 0)
(-0.152904 -0.0589852 0)
(-0.145701 -0.0705583 0)
(-0.1371 -0.0808556 0)
(-0.127212 -0.0896056 0)
(-0.116181 -0.0965402 0)
(-0.104192 -0.101403 0)
(-0.0914678 -0.103957 0)
(-0.0782767 -0.104001 0)
(-0.0649283 -0.101375 0)
(-0.0517734 -0.0959806 0)
(-0.0391994 -0.0877892 0)
(-0.027624 -0.0768566 0)
(-0.0174761 -0.0633314 0)
(-0.00917572 -0.0474603 0)
(-0.00326265 -0.0295877 0)
(-0.000493061 -0.0101775 0)
(-0.000535888 0.0122156 0)
(-0.00345903 0.0347143 0)
(-0.00960955 0.054816 0)
(-0.0181462 0.0722009 0)
(-0.0284843 0.0866725 0)
(-0.0401907 0.0981279 0)
(-0.0528432 0.106547 0)
(-0.0660453 0.111982 0)
(-0.0794408 0.114542 0)
(-0.0927145 0.114381 0)
(-0.105592 0.111686 0)
(-0.117837 0.106665 0)
(-0.129249 0.0995418 0)
(-0.13966 0.0905452 0)
(-0.14893 0.0799077 0)
(-0.156944 0.0678613 0)
(-0.163607 0.0546367 0)
(-0.168842 0.040463 0)
(-0.172586 0.0255696 0)
(-0.174791 0.0101876 0)
(-0.175419 -0.00544743 0)
(-0.174446 -0.0210929 0)
(-0.171859 -0.036497 0)
(-0.167661 -0.0513965 0)
(-0.161873 -0.0655157 0)
(-0.154535 -0.0785671 0)
(-0.145717 -0.0902523 0)
(-0.135517 -0.100267 0)
(-0.12407 -0.108304 0)
(-0.111555 -0.114065 0)
(-0.0981947 -0.117271 0)
(-0.0842635 -0.117671 0)
(-0.0700862 -0.115061 0)
(-0.0560377 -0.109299 0)
(-0.0425397 -0.100319 0)
(-0.0300534 -0.0881498 0)
(-0.0190582 -0.0729222 0)
(-0.0100289 -0.0548791 0)
(-0.00357462 -0.0343755 0)
(-0.000542384 -0.0119024 0)
(-0.000578731 0.0140363 0)
(-0.00372354 0.0396821 0)
(-0.0103235 0.0624218 0)
(-0.0194572 0.0819368 0)
(-0.0304802 0.098047 0)
(-0.0429152 0.110676 0)
(-0.056301 0.11984 0)
(-0.0702095 0.125631 0)
(-0.0842615 0.128202 0)
(-0.0981273 0.127751 0)
(-0.111525 0.124507 0)
(-0.124217 0.11872 0)
(-0.136008 0.110648 0)
(-0.146736 0.100551 0)
(-0.15627 0.0886901 0)
(-0.164507 0.0753193 0)
(-0.17136 0.060688 0)
(-0.176762 0.045041 0)
(-0.180656 0.0286207 0)
(-0.182997 0.0116695 0)
(-0.183748 -0.0055666 0)
(-0.182882 -0.022834 0)
(-0.18038 -0.0398686 0)
(-0.176235 -0.0563922 0)
(-0.170454 -0.0721108 0)
(-0.163065 -0.0867137 0)
(-0.154118 -0.099874 0)
(-0.143696 -0.111252 0)
(-0.131921 -0.120502 0)
(-0.118958 -0.127279 0)
(-0.105028 -0.13125 0)
(-0.0904057 -0.13211 0)
(-0.0754285 -0.129602 0)
(-0.0604947 -0.123529 0)
(-0.0460609 -0.113778 0)
(-0.032635 -0.10034 0)
(-0.0207522 -0.0833201 0)
(-0.0109491 -0.0629536 0)
(-0.00391389 -0.039604 0)
(-0.000596789 -0.0137924 0)
(-0.00062451 0.0159953 0)
(-0.00400301 0.0450133 0)
(-0.0110722 0.0705601 0)
(-0.0208217 0.0923194 0)
(-0.0325408 0.110131 0)
(-0.0457026 0.123952 0)
(-0.0598038 0.133842 0)
(-0.0743832 0.139943 0)
(-0.0890389 0.14246 0)
(-0.103428 0.141644 0)
(-0.117265 0.137776 0)
(-0.130315 0.131148 0)
(-0.142389 0.12206 0)
(-0.15334 0.110807 0)
(-0.163049 0.0976786 0)
(-0.171426 0.0829508 0)
(-0.178401 0.0668913 0)
(-0.183915 0.0497584 0)
(-0.187923 0.0318045 0)
(-0.190385 0.0132802 0)
(-0.191266 -0.00556163 0)
(-0.190535 -0.0244605 0)
(-0.188166 -0.0431437 0)
(-0.184142 -0.061322 0)
(-0.178455 -0.0786858 0)
(-0.171113 -0.0949035 0)
(-0.162147 -0.109621 0)
(-0.151618 -0.122463 0)
(-0.139627 -0.133041 0)
(-0.126323 -0.140959 0)
(-0.111913 -0.145825 0)
(-0.0966715 -0.147272 0)
(-0.0809429 -0.144973 0)
(-0.0651464 -0.138668 0)
(-0.0497738 -0.128184 0)
(-0.0353832 -0.11346 0)
(-0.0225715 -0.0945691 0)
(-0.0119456 -0.0717285 0)
(-0.00428467 -0.0453087 0)
(-0.000657147 -0.0158626 0)
(-0.000673894 0.0181014 0)
(-0.00430081 0.0507265 0)
(-0.0118632 0.0792521 0)
(-0.0222507 0.103365 0)
(-0.0346772 0.122929 0)
(-0.0485601 0.137943 0)
(-0.0633501 0.148521 0)
(-0.0785511 0.154866 0)
(-0.0937393 0.157247 0)
(-0.108562 0.155977 0)
(-0.122732 0.151393 0)
(-0.136023 0.143844 0)
(-0.14826 0.133672 0)
(-0.159312 0.12121 0)
(-0.16908 0.106776 0)
(-0.177494 0.0906706 0)
(-0.1845 0.0731765 0)
(-0.190057 0.0545633 0)
(-0.19413 0.0350903 0)
(-0.196688 0.0150118 0)
(-0.197698 -0.00541695 0)
(-0.197129 -0.0259331 0)
(-0.194948 -0.0462603 0)
(-0.191123 -0.0661028 0)
(-0.18563 -0.0851396 0)
(-0.178455 -0.103022 0)
(-0.169603 -0.119369 0)
(-0.159109 -0.133773 0)
(-0.147044 -0.145798 0)
(-0.133535 -0.154993 0)
(-0.118769 -0.160901 0)
(-0.103009 -0.163082 0)
(-0.0866021 -0.161129 0)
(-0.0699852 -0.1547 0)
(-0.0536845 -0.143547 0)
(-0.0383107 -0.127544 0)
(-0.0245295 -0.106715 0)
(-0.0130283 -0.0812531 0)
(-0.00469159 -0.0515295 0)
(-0.00072444 -0.0181306 0)
(-0.000727755 0.020365 0)
(-0.00462128 0.0568446 0)
(-0.0127059 0.0885231 0)
(-0.0237574 0.11509 0)
(-0.0369026 0.136441 0)
(-0.0514957 0.15263 0)
(-0.0669361 0.163834 0)
(-0.0826917 0.170332 0)
(-0.098318 0.17247 0)
(-0.113456 0.170636 0)
(-0.127823 0.165236 0)
(-0.141207 0.156675 0)
(-0.153453 0.145348 0)
(-0.164455 0.131627 0)
(-0.174138 0.11586 0)
(-0.182457 0.0983699 0)
(-0.189382 0.0794534 0)
(-0.19489 0.0593878 0)
(-0.198963 0.0384348 0)
(-0.20158 0.016848 0)
(-0.202715 -0.00512033 0)
(-0.202333 -0.0272108 0)
(-0.200396 -0.0491493 0)
(-0.196858 -0.070639 0)
(-0.191675 -0.0913533 0)
(-0.184807 -0.11093 0)
(-0.17623 -0.128967 0)
(-0.165942 -0.145022 0)
(-0.153983 -0.158615 0)
(-0.140443 -0.169234 0)
(-0.125481 -0.176351 0)
(-0.10934 -0.179439 0)
(-0.0923613 -0.177998 0)
(-0.0749927 -0.171589 0)
(-0.0577931 -0.159866 0)
(-0.0414283 -0.142618 0)
(-0.0266399 -0.119805 0)
(-0.014208 -0.091581 0)
(-0.00513994 -0.0583114 0)
(-0.000799835 -0.0206165 0)
(-0.000787282 0.0227992 0)
(-0.00497022 0.063396 0)
(-0.0136133 0.0984032 0)
(-0.0253594 0.127515 0)
(-0.0392343 0.150668 0)
(-0.0545188 0.167982 0)
(-0.0705559 0.179718 0)
(-0.0867762 0.186248 0)
(-0.102717 0.18801 0)
(-0.118018 0.18548 0)
(-0.132409 0.179144 0)
(-0.145701 0.169473 0)
(-0.157766 0.156918 0)
(-0.168528 0.141893 0)
(-0.177949 0.124778 0)
(-0.186012 0.105913 0)
(-0.192715 0.0856085 0)
(-0.198062 0.0641442 0)
(-0.202052 0.04178 0)
(-0.204679 0.0187626 0)
(-0.205922 -0.00466449 0)
(-0.205751 -0.0282522 0)
(-0.204117 -0.0517353 0)
(-0.200962 -0.0748231 0)
(-0.19622 -0.0971896 0)
(-0.189822 -0.118466 0)
(-0.181708 -0.138233 0)
(-0.171836 -0.156018 0)
(-0.160201 -0.171297 0)
(-0.146848 -0.183495 0)
(-0.131896 -0.192005 0)
(-0.115557 -0.196202 0)
(-0.0981541 -0.195478 0)
(-0.0801372 -0.189272 0)
(-0.0620934 -0.17712 0)
(-0.0447452 -0.158701 0)
(-0.0289176 -0.133885 0)
(-0.0154973 -0.10277 0)
(-0.00563606 -0.0657051 0)
(-0.000884766 -0.0233436 0)
(-0.000854125 0.0254207 0)
(-0.00535556 0.0704161 0)
(-0.0146021 0.108929 0)
(-0.0270799 0.140661 0)
(-0.0416942 0.165602 0)
(-0.0576409 0.183956 0)
(-0.0742006 0.196092 0)
(-0.0907664 0.202492 0)
(-0.106862 0.203711 0)
(-0.122133 0.200327 0)
(-0.136332 0.192917 0)
(-0.1493 0.18203 0)
(-0.160949 0.168173 0)
(-0.171244 0.151808 0)
(-0.180186 0.133342 0)
(-0.187798 0.113135 0)
(-0.194111 0.0915023 0)
(-0.199159 0.0687238 0)
(-0.202963 0.045051 0)
(-0.205534 0.0207177 0)
(-0.206863 -0.00404879 0)
(-0.206918 -0.0290167 0)
(-0.205648 -0.0539378 0)
(-0.202981 -0.0785353 0)
(-0.198825 -0.102492 0)
(-0.193082 -0.125441 0)
(-0.18565 -0.146952 0)
(-0.17644 -0.166528 0)
(-0.165392 -0.183602 0)
(-0.152496 -0.197538 0)
(-0.137816 -0.207642 0)
(-0.121516 -0.213183 0)
(-0.103887 -0.21342 0)
(-0.0853698 -0.207653 0)
(-0.0665712 -0.195266 0)
(-0.0482689 -0.175798 0)
(-0.0313791 -0.148999 0)
(-0.0169112 -0.114883 0)
(-0.00618785 -0.0737678 0)
(-0.000981068 -0.0263386 0)
(-0.000930605 0.028251 0)
(-0.00578826 0.0779499 0)
(-0.0156956 0.120147 0)
(-0.0289496 0.154554 0)
(-0.0443109 0.181231 0)
(-0.0608759 0.200494 0)
(-0.077857 0.212844 0)
(-0.094611 0.218908 0)
(-0.110655 0.219375 0)
(-0.125653 0.214948 0)
(-0.139389 0.206308 0)
(-0.151752 0.194088 0)
(-0.162702 0.17886 0)
(-0.172256 0.161128 0)
(-0.180464 0.141329 0)
(-0.187394 0.119836 0)
(-0.193118 0.0969676 0)
(-0.197703 0.0729947 0)
(-0.201198 0.0481548 0)
(-0.203632 0.0226617 0)
(-0.205009 -0.00328095 0)
(-0.205303 -0.0294668 0)
(-0.204456 -0.0556729 0)
(-0.202384 -0.081646 0)
(-0.198973 -0.107087 0)
(-0.19409 -0.13164 0)
(-0.187588 -0.154873 0)
(-0.179325 -0.176275 0)
(-0.169177 -0.195239 0)
(-0.157065 -0.21107 0)
(-0.14298 -0.222985 0)
(-0.127023 -0.230132 0)
(-0.109432 -0.231625 0)
(-0.0906202 -0.226591 0)
(-0.0712016 -0.21423 0)
(-0.0520048 -0.193898 0)
(-0.0340437 -0.165184 0)
(-0.0184686 -0.127985 0)
(-0.00680552 -0.0825649 0)
(-0.00109117 -0.0296333 0)
(-0.00102003 0.031318 0)
(-0.00628354 0.0860557 0)
(-0.0169253 0.132114 0)
(-0.0310094 0.169221 0)
(-0.0471207 0.197532 0)
(-0.0642389 0.217509 0)
(-0.0815032 0.229827 0)
(-0.0982388 0.235289 0)
(-0.113968 0.23475 0)
(-0.128386 0.229058 0)
(-0.141329 0.219013 0)
(-0.152745 0.205339 0)
(-0.162659 0.188674 0)
(-0.17115 0.169567 0)
(-0.178326 0.148477 0)
(-0.184308 0.125787 0)
(-0.189214 0.101809 0)
(-0.193147 0.0768014 0)
(-0.196187 0.050979 0)
(-0.198387 0.0245283 0)
(-0.199763 -0.00237879 0)
(-0.200297 -0.0295697 0)
(-0.19993 -0.0568562 0)
(-0.198564 -0.0840179 0)
(-0.196064 -0.110786 0)
(-0.192263 -0.136824 0)
(-0.186969 -0.161714 0)
(-0.179977 -0.184937 0)
(-0.171093 -0.205861 0)
(-0.160152 -0.223734 0)
(-0.14706 -0.237683 0)
(-0.131827 -0.246731 0)
(-0.114616 -0.249824 0)
(-0.0957886 -0.245887 0)
(-0.0759452 -0.233893 0)
(-0.0559556 -0.212963 0)
(-0.0369346 -0.182471 0)
(-0.0201939 -0.14215 0)
(-0.00750268 -0.0921719 0)
(-0.00121838 -0.0332655 0)
(-0.00112716 0.0346596 0)
(-0.0068627 0.0948096 0)
(-0.0183339 0.144902 0)
(-0.033313 0.18469 0)
(-0.0501679 0.214464 0)
(-0.0677431 0.234883 0)
(-0.0851017 0.246843 0)
(-0.101547 0.25137 0)
(-0.116625 0.249518 0)
(-0.130083 0.242305 0)
(-0.14183 0.230663 0)
(-0.151892 0.215413 0)
(-0.160374 0.19726 0)
(-0.16743 0.176792 0)
(-0.173236 0.154485 0)
(-0.177971 0.130722 0)
(-0.181801 0.105804 0)
(-0.18487 0.0799657 0)
(-0.187292 0.0533929 0)
(-0.189143 0.0262363 0)
(-0.190456 -0.00137147 0)
(-0.191222 -0.0293003 0)
(-0.191382 -0.0574056 0)
(-0.190831 -0.0855104 0)
(-0.189414 -0.113386 0)
(-0.18693 -0.140733 0)
(-0.183142 -0.167157 0)
(-0.177781 -0.192148 0)
(-0.170573 -0.215061 0)
(-0.161259 -0.2351 0)
(-0.149636 -0.251308 0)
(-0.1356 -0.262575 0)
(-0.119208 -0.267664 0)
(-0.100735 -0.265265 0)
(-0.0807419 -0.254075 0)
(-0.0601191 -0.232916 0)
(-0.0400803 -0.200876 0)
(-0.0221193 -0.157452 0)
(-0.00829798 -0.102678 0)
(-0.00136736 -0.0372816 0)
(-0.00125894 0.0383265 0)
(-0.00755576 0.104312 0)
(-0.0199797 0.1586 0)
(-0.0359295 0.20099 0)
(-0.0535042 0.231966 0)
(-0.0713933 0.252449 0)
(-0.0885869 0.263629 0)
(-0.104385 0.266808 0)
(-0.118383 0.26328 0)
(-0.130411 0.254258 0)
(-0.140477 0.240816 0)
(-0.148707 0.223877 0)
(-0.155303 0.204208 0)
(-0.160506 0.182425 0)
(-0.164566 0.159014 0)
(-0.167724 0.134348 0)
(-0.170199 0.108706 0)
(-0.172176 0.0822906 0)
(-0.173802 0.0552496 0)
(-0.175176 0.0276908 0)
(-0.176352 -0.000300265 0)
(-0.17733 -0.0286434 0)
(-0.178056 -0.0572462 0)
(-0.17842 -0.0859852 0)
(-0.178251 -0.114685 0)
(-0.177323 -0.143094 0)
(-0.175352 -0.17086 0)
(-0.17201 -0.197501 0)
(-0.166937 -0.222378 0)
(-0.15977 -0.244667 0)
(-0.150176 -0.263339 0)
(-0.137913 -0.277156 0)
(-0.122892 -0.284688 0)
(-0.105263 -0.284355 0)
(-0.0855003 -0.274521 0)
(-0.0644842 -0.253633 0)
(-0.0435153 -0.220396 0)
(-0.0242881 -0.173975 0)
(-0.00921759 -0.114191 0)
(-0.00154482 -0.0417398 0)
(-0.00142576 0.0423886 0)
(-0.00840547 0.114697 0)
(-0.0219415 0.17332 0)
(-0.0389462 0.218145 0)
(-0.0571842 0.249933 0)
(-0.0751728 0.269972 0)
(-0.0918428 0.279832 0)
(-0.106524 0.281159 0)
(-0.1189 0.275537 0)
(-0.128923 0.264392 0)
(-0.136731 0.248951 0)
(-0.142577 0.230232 0)
(-0.146777 0.209053 0)
(-0.149667 0.186049 0)
(-0.151577 0.161698 0)
(-0.152813 0.136352 0)
(-0.153643 0.110253 0)
(-0.154292 0.0835663 0)
(-0.154936 0.056391 0)
(-0.1557 0.0287854 0)
(-0.156654 0.000781817 0)
(-0.157812 -0.0275959 0)
(-0.159127 -0.0563149 0)
(-0.16049 -0.0853138 0)
(-0.161723 -0.114481 0)
(-0.162579 -0.143629 0)
(-0.162738 -0.172466 0)
(-0.161815 -0.200558 0)
(-0.15937 -0.227296 0)
(-0.154925 -0.251855 0)
(-0.148008 -0.273158 0)
(-0.138206 -0.289853 0)
(-0.125244 -0.300311 0)
(-0.109092 -0.302657 0)
(-0.0900795 -0.294867 0)
(-0.069023 -0.274911 0)
(-0.0472807 -0.240991 0)
(-0.0267592 -0.191804 0)
(-0.010299 -0.12684 0)
(-0.00176083 -0.0467151 0)
(-0.0016435 0.0469435 0)
(-0.00947354 0.126141 0)
(-0.0243259 0.189198 0)
(-0.0424695 0.236158 0)
(-0.0612545 0.268197 0)
(-0.0790188 0.287113 0)
(-0.0946674 0.294974 0)
(-0.107612 0.293854 0)
(-0.117684 0.285669 0)
(-0.125006 0.272079 0)
(-0.129885 0.254461 0)
(-0.132726 0.233915 0)
(-0.133973 0.21129 0)
(-0.134065 0.187218 0)
(-0.133411 0.162155 0)
(-0.132378 0.13641 0)
(-0.131278 0.110182 0)
(-0.130368 0.0835815 0)
(-0.129851 0.056656 0)
(-0.129871 0.0294079 0)
(-0.130514 0.00181172 0)
(-0.131808 -0.0261693 0)
(-0.133719 -0.0545664 0)
(-0.136142 -0.0833872 0)
(-0.138902 -0.112594 0)
(-0.141744 -0.142075 0)
(-0.144325 -0.171618 0)
(-0.146217 -0.200863 0)
(-0.146903 -0.229261 0)
(-0.145801 -0.256019 0)
(-0.142285 -0.280048 0)
(-0.135748 -0.299911 0)
(-0.125686 -0.313795 0)
(-0.111821 -0.319517 0)
(-0.0942602 -0.314602 0)
(-0.0736749 -0.296442 0)
(-0.0514217 -0.262569 0)
(-0.0296128 -0.211026 0)
(-0.0115973 -0.140792 0)
(-0.00203089 -0.0523074 0)
(-0.00193724 0.0521295 0)
(-0.0108505 0.138883 0)
(-0.0272761 0.206391 0)
(-0.0466207 0.254989 0)
(-0.0657301 0.286484 0)
(-0.0827785 0.303387 0)
(-0.0967126 0.308413 0)
(-0.107111 0.304161 0)
(-0.114028 0.292916 0)
(-0.11782 0.276578 0)
(-0.119006 0.256659 0)
(-0.118166 0.23431 0)
(-0.11588 0.210384 0)
(-0.112688 0.185481 0)
(-0.109073 0.160006 0)
(-0.105449 0.134214 0)
(-0.102161 0.108241 0)
(-0.09949 0.0821382 0)
(-0.0976532 0.0558926 0)
(-0.096808 0.0294481 0)
(-0.0970537 0.0027199 0)
(-0.0984312 -0.0243903 0)
(-0.10092 -0.0519796 0)
(-0.104431 -0.0801275 0)
(-0.108803 -0.108875 0)
(-0.113786 -0.138201 0)
(-0.119035 -0.167987 0)
(-0.124095 -0.197971 0)
(-0.128401 -0.227702 0)
(-0.131271 -0.256462 0)
(-0.131936 -0.283198 0)
(-0.129577 -0.306438 0)
(-0.123419 -0.324224 0)
(-0.112865 -0.334075 0)
(-0.0976949 -0.333021 0)
(-0.0783163 -0.317758 0)
(-0.055979 -0.284951 0)
(-0.0329572 -0.231718 0)
(-0.0131946 -0.156255 0)