/*--------------------------------*- C++ -*----------------------------------*\
| =========                 |                                                 |
| \\      /  F ield         | OpenFOAM: The Open Source CFD Toolbox           |
|  \\    /   O peration     | Version:  2506                                  |
|   \\  /    A nd           | Website:  www.openfoam.com                      |
|    \\/     M anipulation  |                                                 |
\*---------------------------------------------------------------------------*/
FoamFile
{
    version     2.0;
    format      ascii;
    arch        "LSB;label=32;scalar=64";
    class       volVectorField;
    location    "3";
    object      ddtU;
}
// * * * * * * * * * * * * * * * * * * * * * * * * * * * * * * * * * * * * * //

dimensions      [0 1 -2 0 0 0 0];

internalField   nonuniform List<vector> 
400
(
(1.22326e-06 -9.44108e-07 0)
(-3.01128e-07 2.99908e-07 0)
(1.32268e-07 -7.07638e-08 0)
(-2.21751e-08 2.26527e-08 0)
(2.11222e-08 -4.86775e-09 0)
(4.12768e-09 2.26543e-09 0)
(7.20326e-09 3.31135e-10 0)
(4.24207e-09 7.35681e-10 0)
(3.50555e-09 5.21933e-10 0)
(2.32632e-09 4.54659e-10 0)
(1.55294e-09 3.54659e-10 0)
(8.99947e-10 2.68491e-10 0)
(4.39604e-10 1.88274e-10 0)
(1.31362e-10 1.11391e-10 0)
(-2.74891e-11 4.93823e-11 0)
(-6.96332e-11 6.77953e-12 0)
(-5.78204e-11 -2.67154e-11 0)
(3.16858e-11 -6.41874e-11 0)
(2.12408e-10 -8.52145e-11 0)
(2.5524e-10 1.39117e-10 0)
(1.71106e-07 8.11012e-07 0)
(-1.05647e-07 -2.85778e-07 0)
(4.03868e-08 7.18812e-08 0)
(-7.75491e-09 -2.06792e-08 0)
(1.57166e-08 8.82673e-09 0)
(5.31903e-09 6.90677e-10 0)
(7.01004e-09 2.80879e-09 0)
(4.27853e-09 1.84555e-09 0)
(3.44809e-09 1.7109e-09 0)
(2.27822e-09 1.36239e-09 0)
(1.50697e-09 1.08918e-09 0)
(8.61067e-10 8.16937e-10 0)
(4.06009e-10 5.74875e-10 0)
(1.04783e-10 3.41671e-10 0)
(-4.8761e-11 1.48776e-10 0)
(-8.98615e-11 1.9617e-11 0)
(-7.52953e-11 -7.64244e-11 0)
(2.82663e-11 -1.82262e-10 0)
(2.06746e-10 -2.66697e-10 0)
(2.49289e-10 4.17056e-10 0)
(3.27942e-06 -5.91219e-07 0)
(-7.55577e-07 1.64168e-07 0)
(3.15962e-07 -3.8652e-08 0)
(-6.16978e-08 1.44592e-08 0)
(3.60371e-08 1.67636e-09 0)
(3.42038e-10 5.41115e-09 0)
(7.97042e-09 3.70732e-09 0)
(3.57536e-09 3.40553e-09 0)
(3.25162e-09 2.75207e-09 0)
(2.03255e-09 2.26066e-09 0)
(1.35207e-09 1.78023e-09 0)
(7.45315e-10 1.33841e-09 0)
(3.29603e-10 9.38015e-10 0)
(5.10703e-11 5.54594e-10 0)
(-8.47544e-11 2.38921e-10 0)
(-1.09934e-10 2.60044e-11 0)
(-8.92175e-11 -1.3431e-10 0)
(1.46549e-12 -3.0863e-10 0)
(1.85474e-10 -4.42427e-10 0)
(2.36322e-10 6.80128e-10 0)
(-1.04226e-07 7.14196e-08 0)
(-8.208e-08 5.15059e-09 0)
(3.04875e-08 1.4914e-08 0)
(-3.0099e-09 1.36461e-08 0)
(1.58004e-08 7.89928e-09 0)
(4.7911e-09 7.56947e-09 0)
(5.92126e-09 5.42722e-09 0)
(3.29945e-09 4.66342e-09 0)
(2.69322e-09 3.74725e-09 0)
(1.71199e-09 3.06537e-09 0)
(1.10565e-09 2.40978e-09 0)
(5.80758e-10 1.81155e-09 0)
(2.16271e-10 1.26683e-09 0)
(-2.06057e-11 7.45065e-10 0)
(-1.31162e-10 3.12655e-10 0)
(-1.47904e-10 2.23197e-11 0)
(-1.1815e-10 -1.93818e-10 0)
(-3.90799e-12 -4.30181e-10 0)
(1.70375e-10 -6.19395e-10 0)
(2.18381e-10 9.25378e-10 0)
(2.95847e-06 4.0251e-08 0)
(-6.29703e-07 1.34832e-07 0)
(2.65754e-07 -9.07362e-09 0)
(-5.05663e-08 3.30873e-08 0)
(2.4797e-08 6.95476e-09 0)
(-9.52283e-10 1.0528e-08 0)
(5.02367e-09 6.28345e-09 0)
(2.19518e-09 5.80679e-09 0)
(2.07168e-09 4.51411e-09 0)
(1.26801e-09 3.75592e-09 0)
(7.97518e-10 2.93983e-09 0)
(3.73301e-10 2.21717e-09 0)
(7.92033e-11 1.5461e-09 0)
(-1.11355e-10 9.01584e-10 0)
(-1.90403e-10 3.66731e-10 0)
(-1.805e-10 8.27699e-12 0)
(-1.37956e-10 -2.58948e-10 0)
(-4.26548e-11 -5.56136e-10 0)
(1.35958e-10 -7.88638e-10 0)
(1.94822e-10 1.14404e-09 0)
(-3.12348e-06 -6.94718e-07 0)
(7.20137e-07 2.92592e-07 0)
(-2.90442e-07 -5.61843e-08 0)
(6.91959e-08 3.97019e-08 0)
(-2.22931e-08 3.88247e-09 0)
(8.59406e-09 1.14625e-08 0)
(3.31957e-11 6.8004e-09 0)
(2.21445e-09 6.46763e-09 0)
(1.04448e-09 5.10602e-09 0)
(8.5616e-10 4.26842e-09 0)
(4.24505e-10 3.36111e-09 0)
(1.47748e-10 2.53662e-09 0)
(-7.69163e-11 1.76602e-09 0)
(-2.03793e-10 1.01828e-09 0)
(-2.46403e-10 3.94407e-10 0)
(-2.25397e-10 -2.21982e-11 0)
(-1.72551e-10 -3.289e-10 0)
(-4.73621e-11 -6.76065e-10 0)
(1.14242e-10 -9.53395e-10 0)
(1.66023e-10 1.33224e-09 0)
(1.69263e-07 6.515e-07 0)
(7.41923e-08 -1.795e-07 0)
(-1.11987e-08 5.49474e-08 0)
(1.53548e-08 -1.56378e-09 0)
(-5.14071e-09 1.23693e-08 0)
(2.44369e-09 8.39239e-09 0)
(-8.73301e-11 7.73265e-09 0)
(9.09028e-10 6.57019e-09 0)
(3.95217e-10 5.53579e-09 0)
(3.17302e-10 4.59256e-09 0)
(6.40155e-11 3.65955e-09 0)
(-9.76996e-11 2.76021e-09 0)
(-2.31637e-10 1.91809e-09 0)
(-3.01026e-10 1.08859e-09 0)
(-3.05511e-10 3.95378e-10 0)
(-2.53553e-10 -6.59455e-11 0)
(-1.85718e-10 -4.04227e-10 0)
(-8.75078e-11 -7.9605e-10 0)
(7.19425e-11 -1.10481e-09 0)
(1.33649e-10 1.48349e-09 0)
(-3.293e-06 -1.30315e-06 0)
(8.34813e-07 3.59436e-07 0)
(-3.11325e-07 -7.23838e-08 0)
(8.27268e-08 2.84858e-08 0)
(-2.86089e-08 5.27045e-09 0)
(8.11409e-09 9.60639e-09 0)
(-2.86833e-09 7.66539e-09 0)
(6.09024e-10 6.73987e-09 0)
(-4.42335e-10 5.70884e-09 0)
(-1.53544e-10 4.76479e-09 0)
(-3.07798e-10 3.82071e-09 0)
(-3.33067e-10 2.88224e-09 0)
(-3.82361e-10 1.99555e-09 0)
(-3.81717e-10 1.10997e-09 0)
(-3.45524e-10 3.66105e-10 0)
(-2.86082e-10 -1.26415e-10 0)
(-2.12008e-10 -4.82475e-10 0)
(-8.3622e-11 -9.05763e-10 0)
(4.89386e-11 -1.24292e-09 0)
(9.61675e-11 1.59529e-09 0)
(5.98386e-07 1.05593e-06 0)
(-1.52642e-07 -4.02666e-07 0)
(4.9749e-08 1.12333e-07 0)
(-1.09697e-08 -2.33818e-08 0)
(2.26914e-09 1.90686e-08 0)
(-2.24309e-09 6.10003e-09 0)
(-1.25597e-09 8.28915e-09 0)
(-1.25659e-09 6.44133e-09 0)
(-9.14091e-10 5.73219e-09 0)
(-7.2895e-10 4.76307e-09 0)
(-6.3578e-10 3.84723e-09 0)
(-5.62905e-10 2.89866e-09 0)
(-5.09326e-10 1.99563e-09 0)
(-4.51239e-10 1.08045e-09 0)
(-3.78142e-10 3.09053e-10 0)
(-2.90723e-10 -1.98006e-10 0)
(-2.05413e-10 -5.61109e-10 0)
(-1.15596e-10 -1.0067e-09 0)
(4.15223e-12 -1.35962e-09 0)
(5.80647e-11 1.66365e-09 0)
(-4.05593e-07 -6.74363e-07 0)
(2.76094e-07 3.76806e-07 0)
(-7.46762e-08 -7.62696e-08 0)
(3.63958e-08 3.98469e-08 0)
(-1.43843e-08 7.81342e-10 0)
(1.05569e-09 1.06979e-08 0)
(-3.82787e-09 6.69496e-09 0)
(-1.48639e-09 6.44463e-09 0)
(-1.70521e-09 5.46778e-09 0)
(-1.15574e-09 4.61762e-09 0)
(-9.70624e-10 3.71663e-09 0)
(-7.55263e-10 2.80464e-09 0)
(-6.15175e-10 1.9144e-09 0)
(-4.87654e-10 1.00057e-09 0)
(-3.77987e-10 2.2494e-10 0)
(-2.923e-10 -2.80516e-10 0)
(-2.1052e-10 -6.35447e-10 0)
(-9.70779e-11 -1.08903e-09 0)
(-1.57208e-11 -1.45222e-09 0)
(1.52767e-11 1.68779e-09 0)
(-2.43012e-06 -1.25588e-06 0)
(3.64745e-07 7.09974e-08 0)
(-1.87643e-07 1.589e-08 0)
(2.17764e-08 -3.45971e-09 0)
(-1.27313e-08 1.3367e-08 0)
(-1.53539e-09 5.20326e-09 0)
(-4.45315e-09 7.03352e-09 0)
(-2.83122e-09 5.54597e-09 0)
(-2.22096e-09 5.00482e-09 0)
(-1.69302e-09 4.21428e-09 0)
(-1.24118e-09 3.44038e-09 0)
(-9.1307e-10 2.59513e-09 0)
(-6.76326e-10 1.75534e-09 0)
(-4.97957e-10 8.72918e-10 0)
(-3.61666e-10 1.18979e-10 0)
(-2.58038e-10 -3.6618e-10 0)
(-1.74349e-10 -7.00219e-10 0)
(-1.13154e-10 -1.15027e-09 0)
(-5.7776e-11 -1.5149e-09 0)
(-2.45359e-11 1.66696e-09 0)
(4.00184e-06 3.50094e-06 0)
(-5.64331e-07 -4.35221e-07 0)
(2.61339e-07 9.13238e-08 0)
(-3.71674e-08 3.15648e-09 0)
(2.49254e-09 3.92826e-09 0)
(-6.55231e-09 6.773e-09 0)
(-4.20295e-09 4.21284e-09 0)
(-3.4555e-09 4.91461e-09 0)
(-2.78926e-09 4.02193e-09 0)
(-1.9633e-09 3.66817e-09 0)
(-1.44058e-09 3.00987e-09 0)
(-1.00018e-09 2.28354e-09 0)
(-6.94222e-10 1.52363e-09 0)
(-4.61209e-10 7.05128e-10 0)
(-3.02447e-10 -1.50817e-12 0)
(-2.15428e-10 -4.50016e-10 0)
(-1.49591e-10 -7.48741e-10 0)
(-7.62501e-11 -1.18166e-09 0)
(-6.99663e-11 -1.54157e-09 0)
(-6.83453e-11 1.60223e-09 0)
(-9.77409e-06 -8.70963e-06 0)
(1.7056e-06 1.49302e-06 0)
(-7.29945e-07 -3.51548e-07 0)
(1.31978e-07 6.65052e-08 0)
(-4.97881e-08 -3.18293e-09 0)
(5.4782e-09 7.73385e-09 0)
(-8.33789e-09 4.43421e-09 0)
(-3.01217e-09 3.81082e-09 0)
(-3.32108e-09 3.4582e-09 0)
(-2.06837e-09 2.98537e-09 0)
(-1.54998e-09 2.48605e-09 0)
(-1.0183e-09 1.87913e-09 0)
(-6.49791e-10 1.23361e-09 0)
(-3.86713e-10 5.07301e-10 0)
(-2.22267e-10 -1.27533e-10 0)
(-1.34848e-10 -5.22216e-10 0)
(-7.96474e-11 -7.74068e-10 0)
(-6.72795e-11 -1.17875e-09 0)
(-1.00386e-10 -1.5305e-09 0)
(-1.05782e-10 1.49804e-09 0)
(1.31656e-05 1.68967e-05 0)
(-2.24846e-06 -3.26107e-06 0)
(1.03287e-06 7.63122e-07 0)
(-1.7298e-07 -1.0565e-07 0)
(4.64689e-08 2.92701e-08 0)
(-2.18518e-08 2.04672e-09 0)
(-4.40248e-09 3.30509e-09 0)
(-5.69484e-09 2.92945e-09 0)
(-3.38403e-09 2.33445e-09 0)
(-2.4563e-09 2.19356e-09 0)
(-1.57534e-09 1.81227e-09 0)
(-9.67271e-10 1.40411e-09 0)
(-5.45231e-10 8.95913e-10 0)
(-2.5866e-10 2.95046e-10 0)
(-9.56346e-11 -2.46366e-10 0)
(-4.45199e-11 -5.73957e-10 0)
(-2.27374e-11 -7.73094e-10 0)
(-1.03473e-11 -1.13936e-09 0)
(-9.861e-11 -1.47129e-09 0)
(-1.46083e-10 1.35772e-09 0)
(-2.07647e-05 -2.05935e-05 0)
(4.32105e-06 4.76603e-06 0)
(-1.90198e-06 -1.09448e-06 0)
(3.65817e-07 2.68426e-07 0)
(-1.56057e-07 -5.43927e-08 0)
(2.42367e-08 1.5556e-08 0)
(-1.81124e-08 -2.16915e-09 0)
(-2.3511e-09 1.52605e-09 0)
(-4.58524e-09 7.29273e-10 0)
(-2.10105e-09 1.10176e-09 0)
(-1.52889e-09 1.04525e-09 0)
(-7.72182e-10 8.65492e-10 0)
(-3.65841e-10 5.42411e-10 0)
(-8.25562e-11 8.731e-11 0)
(5.01821e-11 -3.4365e-10 0)
(7.69607e-11 -5.9658e-10 0)
(7.38076e-11 -7.3799e-10 0)
(2.73559e-11 -1.05665e-09 0)
(-1.09024e-10 -1.36774e-09 0)
(-1.77591e-10 1.19033e-09 0)
(1.57001e-05 2.18009e-05 0)
(-2.9269e-06 -4.73702e-06 0)
(1.29853e-06 1.10031e-06 0)
(-2.56913e-07 -2.25963e-07 0)
(5.75759e-08 4.35661e-08 0)
(-3.36493e-08 -1.13279e-08 0)
(-4.51461e-09 -1.71583e-09 0)
(-6.79625e-09 -1.79903e-09 0)
(-3.18052e-09 -8.85688e-10 0)
(-2.05511e-09 -7.19742e-11 0)
(-1.08109e-09 2.49254e-10 0)
(-4.77796e-10 3.3965e-10 0)
(-9.11271e-11 2.09407e-10 0)
(1.42553e-10 -9.14242e-11 0)
(2.34612e-10 -4.01843e-10 0)
(2.02194e-10 -5.80847e-10 0)
(1.51701e-10 -6.70816e-10 0)
(9.30367e-11 -9.40072e-10 0)
(-9.56568e-11 -1.21117e-09 0)
(-2.0981e-10 9.9876e-10 0)
(-3.51835e-05 -2.37643e-05 0)
(8.11775e-06 6.27816e-06 0)
(-3.32819e-06 -1.50772e-06 0)
(7.52942e-07 3.82281e-07 0)
(-2.96861e-07 -1.1202e-07 0)
(6.46881e-08 1.41609e-08 0)
(-3.06706e-08 -1.41084e-08 0)
(3.03491e-09 -3.0357e-09 0)
(-4.30773e-09 -2.94364e-09 0)
(-5.16964e-10 -1.04507e-09 0)
(-6.43086e-10 -4.36768e-10 0)
(3.15747e-11 -8.95364e-11 0)
(2.35367e-10 -5.59769e-11 0)
(4.01368e-10 -2.11521e-10 0)
(4.19131e-10 -4.14574e-10 0)
(3.37108e-10 -5.24174e-10 0)
(2.50866e-10 -5.69084e-10 0)
(1.35003e-10 -7.85347e-10 0)
(-1.0183e-10 -1.01838e-09 0)
(-2.33813e-10 7.88868e-10 0)
(-2.012e-06 2.55052e-05 0)
(1.30051e-06 -7.08156e-06 0)
(-3.42355e-07 1.59063e-06 0)
(1.30038e-07 -5.37762e-07 0)
(-7.40982e-08 8.22004e-08 0)
(7.88376e-09 -5.61956e-08 0)
(-9.77032e-09 -2.84094e-09 0)
(9.73399e-10 -9.33293e-09 0)
(-8.13616e-10 -2.73e-09 0)
(4.02167e-10 -1.96594e-09 0)
(3.01181e-10 -7.40679e-10 0)
(5.39968e-10 -3.87093e-10 0)
(6.07248e-10 -2.18449e-10 0)
(6.56097e-10 -2.74613e-10 0)
(6.03251e-10 -3.80745e-10 0)
(4.5639e-10 -4.34576e-10 0)
(3.16769e-10 -4.47646e-10 0)
(1.72973e-10 -6.0301e-10 0)
(-1.03872e-10 -7.77307e-10 0)
(-2.56906e-10 5.57833e-10 0)
(-1.73161e-05 -2.29378e-05 0)
(3.92137e-06 3.93008e-06 0)
(-1.51611e-06 -9.94226e-07 0)
(3.79405e-07 -4.89153e-09 0)
(-8.91574e-08 -4.28172e-08 0)
(4.44543e-08 -3.44561e-08 0)
(-2.8475e-10 -5.86796e-09 0)
(6.60472e-09 -8.15611e-09 0)
(1.86993e-09 -2.0475e-09 0)
(1.75047e-09 -1.73149e-09 0)
(1.14775e-09 -5.41002e-10 0)
(1.02807e-09 -3.20763e-10 0)
(9.37028e-10 -1.36394e-10 0)
(8.75255e-10 -1.59108e-10 0)
(7.502e-10 -2.10618e-10 0)
(5.48495e-10 -2.39323e-10 0)
(3.9817e-10 -2.18788e-10 0)
(2.51843e-10 -3.1128e-10 0)
(-7.47846e-11 -4.80681e-10 0)
(-2.72604e-10 3.14001e-10 0)
(4.90312e-05 2.53175e-05 0)
(-1.25873e-05 -8.27232e-06 0)
(4.79848e-06 1.99382e-06 0)
(-1.21983e-06 -6.64746e-07 0)
(4.80698e-07 1.63067e-07 0)
(-1.0506e-07 -6.04818e-08 0)
(5.44589e-08 1.14363e-08 0)
(-5.21598e-09 -6.76869e-09 0)
(8.07989e-09 3.20372e-10 0)
(1.33453e-09 -8.94212e-10 0)
(2.09597e-09 -6.16714e-11 0)
(1.2168e-09 -9.23525e-11 0)
(1.16658e-09 5.49989e-12 0)
(9.84945e-10 -1.45237e-11 0)
(8.29647e-10 -3.25984e-11 0)
(5.96634e-10 -4.39767e-11 0)
(4.62164e-10 -2.75256e-11 0)
(3.47722e-10 -6.60654e-11 0)
(-1.23457e-11 -1.5682e-10 0)
(-2.77978e-10 9.41968e-11 0)
)
;

boundaryField
{
    movingWall
    {
        type            calculated;
        value           uniform (0 0 0);
    }
    fixedWalls
    {
        type            calculated;
        value           uniform (0 0 0);
    }
    frontAndBack
    {
        type            empty;
    }
}


// ************************************************************************* //
