/*--------------------------------*- C++ -*----------------------------------*\
| =========                 |                                                 |
| \\      /  F ield         | OpenFOAM: The Open Source CFD Toolbox           |
|  \\    /   O peration     | Version:  2506                                  |
|   \\  /    A nd           | Website:  www.openfoam.com                      |
|    \\/     M anipulation  |                                                 |
\*---------------------------------------------------------------------------*/
FoamFile
{
    version     2.0;
    format      ascii;
    arch        "LSB;label=32;scalar=64";
    class       volScalarField;
    location    "3";
    object      divPhi;
}
// * * * * * * * * * * * * * * * * * * * * * * * * * * * * * * * * * * * * * //

dimensions      [0 0 -1 0 0 0 0];

internalField   nonuniform List<scalar> 
400
(
-7.83092e-10
-1.89937e-11
-2.3786e-11
-1.94347e-11
-1.28967e-11
-7.53348e-12
-3.40662e-12
-6.59911e-13
1.43318e-12
2.87427e-12
3.99663e-12
4.80415e-12
5.49376e-12
5.94182e-12
6.32216e-12
6.48019e-12
6.38164e-12
6.06773e-12
7.0165e-12
3.00866e-12
-1.84314e-11
-1.08594e-11
-1.48396e-11
-1.25892e-11
-8.78235e-12
-4.74018e-12
-1.75256e-12
6.72372e-13
2.29559e-12
3.67333e-12
4.60122e-12
5.36702e-12
5.92572e-12
6.39065e-12
6.70026e-12
6.77821e-12
6.73744e-12
6.73735e-12
5.96476e-12
3.93023e-12
4.64581e-11
5.80179e-12
-1.46194e-12
-3.18093e-12
-1.96818e-12
-2.82407e-13
1.53571e-12
2.84443e-12
4.00697e-12
4.82086e-12
5.56046e-12
6.06698e-12
6.51914e-12
6.82653e-12
6.99727e-12
7.09965e-12
6.81702e-12
6.35191e-12
7.84057e-12
2.87314e-12
2.16298e-11
1.1761e-11
6.45779e-12
4.20908e-12
3.63423e-12
4.06063e-12
4.57703e-12
5.23254e-12
5.7324e-12
6.22056e-12
6.53735e-12
6.87875e-12
7.07141e-12
7.29548e-12
7.34446e-12
7.19875e-12
7.0733e-12
7.35561e-12
5.65387e-12
4.41812e-12
4.37476e-11
1.63441e-11
1.20382e-11
9.52742e-12
8.40533e-12
7.82321e-12
7.66402e-12
7.56324e-12
7.56214e-12
7.61342e-12
7.65286e-12
7.64499e-12
7.70561e-12
7.68293e-12
7.62912e-12
7.53154e-12
7.04332e-12
6.27265e-12
8.74156e-12
2.60209e-12
3.23092e-11
1.76467e-11
1.48023e-11
1.28651e-11
1.14389e-11
1.05084e-11
9.7511e-12
9.33489e-12
8.92142e-12
8.62216e-12
8.40835e-12
8.24631e-12
8.0923e-12
7.95708e-12
7.81155e-12
7.39065e-12
7.20904e-12
7.76094e-12
4.97663e-12
4.74338e-12
3.00595e-11
1.69985e-11
1.56379e-11
1.42679e-11
1.31458e-11
1.20606e-11
1.12046e-11
1.04409e-11
9.85415e-12
9.28759e-12
8.90437e-12
8.54786e-12
8.26105e-12
7.99467e-12
7.75358e-12
7.49836e-12
6.80942e-12
5.66755e-12
9.26548e-12
2.11419e-12
3.67002e-11
1.74004e-11
1.58183e-11
1.466e-11
1.35628e-11
1.25526e-11
1.16021e-11
1.07066e-11
9.94054e-12
9.34545e-12
8.8155e-12
8.44178e-12
8.0401e-12
7.73276e-12
7.45891e-12
6.85414e-12
6.62348e-12
7.56063e-12
3.73117e-12
4.55365e-12
1.63715e-11
1.42086e-11
1.41791e-11
1.35866e-11
1.27921e-11
1.18544e-11
1.10125e-11
1.01271e-11
9.40989e-12
8.76387e-12
8.2594e-12
7.81659e-12
7.43593e-12
7.08171e-12
6.77802e-12
6.52209e-12
5.76728e-12
4.23592e-12
8.74143e-12
1.27394e-12
3.61581e-11
1.40749e-11
1.26237e-11
1.17621e-11
1.09716e-11
1.02441e-11
9.45836e-12
8.7325e-12
8.06362e-12
7.59507e-12
7.05976e-12
6.7446e-12
6.39704e-12
6.14056e-12
5.81455e-12
5.24988e-12
5.11973e-12
6.36638e-12
1.73032e-12
3.7676e-12
2.79182e-12
8.7823e-12
8.97293e-12
8.63251e-12
8.12501e-12
7.59599e-12
6.98588e-12
6.53401e-12
6.07953e-12
5.71308e-12
5.43608e-12
5.15882e-12
4.97912e-12
4.72825e-12
4.4849e-12
4.36155e-12
3.75059e-12
2.01348e-12
7.08244e-12
1.0842e-13
2.65901e-11
7.26027e-12
5.75814e-12
5.07804e-12
4.60719e-12
4.26388e-12
3.96659e-12
3.72472e-12
3.58023e-12
3.42147e-12
3.35108e-12
3.30565e-12
3.22205e-12
3.16595e-12
3.10017e-12
2.68227e-12
2.70804e-12
4.3276e-12
-5.88696e-13
2.43945e-12
-1.05168e-11
6.9908e-13
8.26942e-13
6.32014e-13
4.62083e-13
4.52848e-13
4.12662e-13
5.75807e-13
6.39918e-13
8.71241e-13
1.00145e-12
1.23232e-12
1.29918e-12
1.43444e-12
1.42229e-12
1.58234e-12
1.27025e-12
-4.32362e-13
4.52897e-12
-8.94467e-13
7.77915e-12
-2.17935e-12
-3.33356e-12
-3.59852e-12
-3.63956e-12
-3.37186e-12
-3.10426e-12
-2.60628e-12
-2.26116e-12
-1.67231e-12
-1.32627e-12
-8.247e-13
-5.71844e-13
-2.47553e-13
-8.97715e-14
-9.62092e-14
1.82178e-13
2.04722e-12
-2.53244e-12
8.40257e-13
-2.10335e-11
-8.11226e-12
-7.84197e-12
-7.97692e-12
-7.42929e-12
-7.21829e-12
-6.27683e-12
-5.84802e-12
-4.84589e-12
-4.29336e-12
-3.37799e-12
-2.97459e-12
-2.23739e-12
-1.9336e-12
-1.5116e-12
-1.05591e-12
-7.93555e-13
-2.22939e-12
1.58561e-12
-1.49078e-12
-1.36338e-11
-1.1072e-11
-1.12997e-11
-1.11063e-11
-1.05862e-11
-9.91467e-12
-9.01528e-12
-8.07881e-12
-7.10277e-12
-6.17816e-12
-5.24474e-12
-4.47146e-12
-3.76381e-12
-3.22574e-12
-2.66059e-12
-2.25564e-12
-1.60029e-12
-3.04802e-14
-3.4838e-12
-8.94467e-13
-2.66985e-11
-1.39452e-11
-1.41107e-11
-1.3143e-11
-1.30747e-11
-1.17301e-11
-1.13631e-11
-9.78941e-12
-9.26083e-12
-7.70202e-12
-7.23869e-12
-5.90523e-12
-5.46276e-12
-4.52553e-12
-4.12308e-12
-3.16073e-12
-2.57494e-12
-3.5111e-12
-2.04457e-12
-2.62919e-12
-2.51535e-11
-1.52256e-11
-1.45491e-11
-1.44026e-11
-1.34336e-11
-1.30068e-11
-1.18234e-11
-1.11612e-11
-9.87484e-12
-9.16282e-12
-8.02523e-12
-7.31273e-12
-6.4311e-12
-5.8594e-12
-5.08805e-12
-4.40129e-12
-3.66924e-12
-2.95852e-12
-5.51594e-12
-2.98156e-12
-2.43403e-11
-1.40478e-11
-1.33896e-11
-1.33189e-11
-1.25051e-11
-1.21659e-11
-1.11797e-11
-1.07034e-11
-9.59991e-12
-9.06055e-12
-8.065e-12
-7.51003e-12
-6.72984e-12
-6.21113e-12
-5.59532e-12
-4.7497e-12
-3.92807e-12
-5.00554e-12
-5.703e-12
-2.84603e-12
-1.00018e-11
-6.39679e-12
-6.39679e-12
-6.01732e-12
-5.99022e-12
-5.47522e-12
-5.3668e-12
-4.8247e-12
-4.63496e-12
-4.11997e-12
-3.90313e-12
-3.49655e-12
-3.27971e-12
-2.98156e-12
-2.62919e-12
-2.11419e-12
-2.1413e-12
-2.79182e-12
-2.87314e-12
0
)
;

boundaryField
{
    movingWall
    {
        type            extrapolatedCalculated;
        value           nonuniform List<scalar> 
20
(
-1.00018e-11
-6.39679e-12
-6.39679e-12
-6.01732e-12
-5.99022e-12
-5.47522e-12
-5.3668e-12
-4.8247e-12
-4.63496e-12
-4.11997e-12
-3.90313e-12
-3.49655e-12
-3.27971e-12
-2.98156e-12
-2.62919e-12
-2.11419e-12
-2.1413e-12
-2.79182e-12
-2.87314e-12
0
)
;
    }
    fixedWalls
    {
        type            extrapolatedCalculated;
        value           nonuniform List<scalar> 
60
(
-7.83092e-10
-1.84314e-11
4.64581e-11
2.16298e-11
4.37476e-11
3.23092e-11
3.00595e-11
3.67002e-11
1.63715e-11
3.61581e-11
2.79182e-12
2.65901e-11
-1.05168e-11
7.77915e-12
-2.10335e-11
-1.36338e-11
-2.66985e-11
-2.51535e-11
-2.43403e-11
-1.00018e-11
3.00866e-12
3.93023e-12
2.87314e-12
4.41812e-12
2.60209e-12
4.74338e-12
2.11419e-12
4.55365e-12
1.27394e-12
3.7676e-12
1.0842e-13
2.43945e-12
-8.94467e-13
8.40257e-13
-1.49078e-12
-8.94467e-13
-2.62919e-12
-2.98156e-12
-2.84603e-12
0
-7.83092e-10
-1.89937e-11
-2.3786e-11
-1.94347e-11
-1.28967e-11
-7.53348e-12
-3.40662e-12
-6.59911e-13
1.43318e-12
2.87427e-12
3.99663e-12
4.80415e-12
5.49376e-12
5.94182e-12
6.32216e-12
6.48019e-12
6.38164e-12
6.06773e-12
7.0165e-12
3.00866e-12
)
;
    }
    frontAndBack
    {
        type            empty;
    }
}


// ************************************************************************* //
