/*--------------------------------*- C++ -*----------------------------------*\
| =========                 |                                                 |
| \\      /  F ield         | OpenFOAM: The Open Source CFD Toolbox           |
|  \\    /   O peration     | Version:  2506                                  |
|   \\  /    A nd           | Website:  www.openfoam.com                      |
|    \\/     M anipulation  |                                                 |
\*---------------------------------------------------------------------------*/
FoamFile
{
    version     2.0;
    format      ascii;
    arch        "LSB;label=32;scalar=64";
    class       volScalarField;
    location    "3";
    object      divU;
}
// * * * * * * * * * * * * * * * * * * * * * * * * * * * * * * * * * * * * * //

dimensions      [0 0 -1 0 0 0 0];

internalField   nonuniform List<scalar> 
400
(
-4.98615e-06
5.27582e-06
-1.4597e-06
5.30669e-07
-1.64161e-07
5.51195e-08
-1.7834e-08
5.57776e-09
-1.92701e-09
5.69304e-10
-1.95707e-10
6.91793e-11
-6.3945e-12
1.94289e-11
1.18056e-11
1.28882e-11
2.88014e-12
9.69344e-12
1.39514e-11
1.13299e-11
1.40784e-06
1.30185e-06
-3.38082e-07
1.60219e-07
-5.855e-08
2.07241e-08
-8.21201e-09
2.85495e-09
-1.0205e-09
3.94041e-10
-1.03861e-10
6.26904e-11
2.23355e-12
1.93046e-11
1.34592e-11
5.16512e-12
-3.12132e-12
2.21185e-11
1.48224e-11
7.23705e-12
-1.41406e-05
1.22479e-05
-3.49962e-06
1.15364e-06
-3.50663e-07
1.12688e-07
-3.39306e-08
1.0939e-08
-3.16439e-09
1.08457e-09
-2.74649e-10
1.20893e-10
-1.02297e-11
2.26177e-11
1.20174e-11
1.49599e-11
-2.66612e-12
5.02556e-12
1.34555e-11
1.04083e-11
3.57506e-06
4.10511e-06
-6.55656e-07
3.79029e-07
-6.52096e-08
3.18546e-08
-7.40365e-09
3.35189e-09
-7.78666e-10
4.00965e-10
-7.0158e-11
5.80899e-11
4.33956e-12
1.81273e-11
1.43115e-11
1.92727e-12
-6.35936e-12
2.36467e-11
2.03172e-11
1.65341e-12
-1.3457e-05
4.01715e-06
-1.97643e-06
3.56959e-07
-2.08121e-07
5.25221e-08
-1.75599e-08
5.85806e-09
-1.6542e-09
5.68233e-10
-1.48275e-10
6.27713e-11
-2.99351e-12
1.40817e-11
1.02579e-11
1.13644e-11
-5.89888e-12
1.46222e-12
1.71711e-11
5.3397e-12
1.48557e-05
1.98989e-06
1.10247e-06
1.92619e-07
1.42318e-07
-2.22728e-08
9.84095e-09
-4.60587e-09
1.0909e-09
-4.87911e-10
1.30298e-10
-4.62436e-11
1.85231e-11
4.61685e-12
1.50557e-11
-6.2018e-12
-1.38386e-11
2.36635e-11
2.6224e-11
-5.77338e-12
-5.39763e-06
-2.28541e-05
3.54218e-06
-2.07432e-06
3.03245e-07
-1.38292e-07
3.40593e-08
-9.34743e-09
2.85571e-09
-8.47443e-10
2.13644e-10
-8.06933e-11
2.0589e-11
-3.27394e-12
9.27282e-12
4.95061e-12
-1.14332e-11
-2.99485e-12
2.1179e-11
-1.27394e-12
1.60491e-05
2.07164e-05
-1.74919e-06
1.8237e-06
-7.85119e-08
8.34677e-08
-1.25168e-08
9.16575e-10
-5.17666e-10
-1.55055e-10
4.5474e-11
-3.81621e-11
8.32098e-12
1.36723e-12
1.32666e-11
-1.42436e-11
-2.25327e-11
2.22503e-11
3.16447e-11
-1.34441e-11
-7.81351e-06
-4.64006e-05
7.108e-06
-4.22427e-06
5.9729e-07
-2.72334e-07
6.87647e-08
-1.68633e-08
5.85193e-09
-1.39109e-09
4.02536e-10
-1.26458e-10
3.02455e-11
-8.02951e-12
7.95367e-12
-1.28144e-12
-1.81026e-11
-7.48402e-12
2.4225e-11
-7.42678e-12
7.07602e-06
6.41867e-05
-9.87984e-06
5.76683e-06
-7.80355e-07
3.60278e-07
-8.1146e-08
2.06079e-08
-6.90885e-09
1.39036e-09
-4.04525e-10
9.86847e-11
-2.51997e-11
1.21732e-11
1.0383e-11
-2.04348e-11
-3.12574e-11
1.90384e-11
3.48609e-11
-1.88109e-11
5.69403e-06
-9.53992e-05
1.61048e-05
-8.65415e-06
1.36763e-06
-5.83971e-07
1.42161e-07
-3.76911e-08
1.30079e-08
-2.94195e-09
9.58049e-10
-2.46303e-10
6.75779e-11
-1.74294e-11
9.24224e-12
-8.29961e-12
-2.41953e-11
-1.22304e-11
2.45259e-11
-1.09504e-11
-1.91666e-05
0.000121153
-2.06109e-05
1.09725e-05
-1.71735e-06
7.28289e-07
-1.78897e-07
4.41326e-08
-1.56437e-08
3.34866e-09
-1.04734e-09
2.75142e-10
-7.11241e-11
2.34757e-11
4.02594e-12
-2.71627e-11
-4.00768e-11
1.30293e-11
3.37183e-11
-1.92446e-11
6.91108e-05
-0.000161434
2.99216e-05
-1.48009e-05
2.51335e-06
-1.05758e-06
2.53865e-07
-7.15644e-08
2.39187e-08
-5.46789e-09
1.87819e-09
-4.85519e-10
1.27344e-10
-4.74431e-11
6.41378e-12
-2.02482e-11
-2.90297e-11
-1.52238e-11
2.03877e-11
-9.05309e-12
-0.000112198
0.000178369
-3.40958e-05
1.63195e-05
-2.79744e-06
1.16342e-06
-2.74477e-07
7.72025e-08
-2.44659e-08
5.64055e-09
-1.74062e-09
4.19395e-10
-1.53266e-10
1.44481e-11
-1.25456e-11
-3.42906e-11
-4.50636e-11
5.48914e-12
2.62482e-11
-1.19804e-11
0.000145535
-0.000200609
4.1211e-05
-1.86743e-05
3.72458e-06
-1.45696e-06
3.78086e-07
-1.10219e-07
3.58267e-08
-9.20549e-09
2.79765e-09
-9.22703e-10
1.58894e-10
-1.12377e-10
-1.58778e-12
-3.63152e-11
-3.31796e-11
-1.55472e-11
1.2267e-11
3.25261e-13
-0.00012934
0.000167988
-3.31808e-05
1.52536e-05
-2.80687e-06
1.09097e-06
-2.72409e-07
7.43334e-08
-2.41017e-08
4.9469e-09
-1.9779e-09
1.79997e-10
-2.45277e-10
-3.9981e-11
-3.49928e-11
-4.36674e-11
-4.29429e-11
5.00402e-12
2.05536e-11
3.52366e-12
0.000187055
-0.000234704
5.33117e-05
-2.17678e-05
4.99641e-06
-1.7758e-06
4.99135e-07
-1.48645e-07
4.39909e-08
-1.40096e-08
3.34299e-09
-1.39194e-09
2.3476e-10
-1.2255e-10
3.81111e-11
-6.66941e-12
2.52572e-12
6.47442e-12
1.14723e-11
1.31731e-11
-4.65477e-05
6.02077e-05
-8.88129e-06
5.81495e-06
-8.39278e-07
3.72122e-07
-1.19114e-07
1.44896e-08
-1.22066e-08
8.3313e-10
-8.43931e-10
6.60527e-11
-5.61739e-11
2.80458e-11
2.96303e-11
-1.0158e-12
-2.61892e-11
-7.618e-12
1.13821e-11
2.09793e-11
0.000106761
-0.000120473
2.62217e-05
-1.07607e-05
2.21884e-06
-7.9994e-07
2.14602e-07
-5.20712e-08
1.93188e-08
-3.603e-09
1.50919e-09
-2.05098e-10
1.30625e-10
1.53078e-11
2.16894e-11
-3.47504e-11
-3.62842e-11
3.88454e-12
1.09038e-11
3.15503e-11
-0.000188571
0.000220887
-5.68417e-05
2.03703e-05
-5.41396e-06
1.84034e-06
-5.15304e-07
1.70226e-07
-4.73517e-08
1.6749e-08
-3.88551e-09
1.85109e-09
-1.97108e-10
3.04146e-10
7.00666e-11
5.84656e-11
4.48318e-11
5.63514e-11
2.84603e-12
3.47758e-11
)
;

boundaryField
{
    movingWall
    {
        type            extrapolatedCalculated;
        value           nonuniform List<scalar> 
20
(
-0.000188571
0.000220887
-5.68417e-05
2.03703e-05
-5.41396e-06
1.84034e-06
-5.15304e-07
1.70226e-07
-4.73517e-08
1.6749e-08
-3.88551e-09
1.85109e-09
-1.97108e-10
3.04146e-10
7.00666e-11
5.84656e-11
4.48318e-11
5.63514e-11
2.84603e-12
3.47758e-11
)
;
    }
    fixedWalls
    {
        type            extrapolatedCalculated;
        value           nonuniform List<scalar> 
60
(
-4.98615e-06
1.40784e-06
-1.41406e-05
3.57506e-06
-1.3457e-05
1.48557e-05
-5.39763e-06
1.60491e-05
-7.81351e-06
7.07602e-06
5.69403e-06
-1.91666e-05
6.91108e-05
-0.000112198
0.000145535
-0.00012934
0.000187055
-4.65477e-05
0.000106761
-0.000188571
1.13299e-11
7.23705e-12
1.04083e-11
1.65341e-12
5.3397e-12
-5.77338e-12
-1.27394e-12
-1.34441e-11
-7.42678e-12
-1.88109e-11
-1.09504e-11
-1.92446e-11
-9.05309e-12
-1.19804e-11
3.25261e-13
3.52366e-12
1.31731e-11
2.09793e-11
3.15503e-11
3.47758e-11
-4.98615e-06
5.27582e-06
-1.4597e-06
5.30669e-07
-1.64161e-07
5.51195e-08
-1.7834e-08
5.57776e-09
-1.92701e-09
5.69304e-10
-1.95707e-10
6.91793e-11
-6.3945e-12
1.94289e-11
1.18056e-11
1.28882e-11
2.88014e-12
9.69344e-12
1.39514e-11
1.13299e-11
)
;
    }
    frontAndBack
    {
        type            empty;
    }
}


// ************************************************************************* //
