/*--------------------------------*- C++ -*----------------------------------*\
| =========                 |                                                 |
| \\      /  F ield         | OpenFOAM: The Open Source CFD Toolbox           |
|  \\    /   O peration     | Version:  2506                                  |
|   \\  /    A nd           | Website:  www.openfoam.com                      |
|    \\/     M anipulation  |                                                 |
\*---------------------------------------------------------------------------*/
FoamFile
{
    version     2.0;
    format      ascii;
    arch        "LSB;label=32;scalar=64";
    class       volScalarField;
    location    "3";
    object      dpdt2;
}
// * * * * * * * * * * * * * * * * * * * * * * * * * * * * * * * * * * * * * //

dimensions      [0 4 -6 0 0 0 0];

internalField   nonuniform List<scalar> 
400
(
7.57437e-19
1.69781e-14
9.30058e-18
1.31145e-16
1.88775e-15
3.6262e-15
5.97681e-15
8.2657e-15
1.05944e-14
1.28111e-14
1.49045e-14
1.6841e-14
1.86121e-14
2.02084e-14
2.16256e-14
2.28539e-14
2.38844e-14
2.47038e-14
2.53034e-14
2.57153e-14
7.30439e-16
9.25439e-16
3.76047e-16
5.83787e-16
2.3672e-15
4.19248e-15
6.57453e-15
8.88761e-15
1.12084e-14
1.34014e-14
1.54622e-14
1.73627e-14
1.90982e-14
2.06609e-14
2.20478e-14
2.32506e-14
2.42601e-14
2.50633e-14
2.56496e-14
2.60553e-14
1.57129e-14
5.4097e-14
8.65497e-16
3.68599e-16
3.54149e-15
5.30045e-15
7.91016e-15
1.01904e-14
1.24843e-14
1.461e-14
1.65963e-14
1.8418e-14
2.00772e-14
2.15699e-14
2.28944e-14
2.40434e-14
2.50087e-14
2.57785e-14
2.63425e-14
2.67324e-14
1.72198e-14
1.77339e-15
2.97257e-15
2.64013e-15
5.26073e-15
7.51006e-15
1.00472e-14
1.23143e-14
1.44883e-14
1.6488e-14
1.83377e-14
2.00274e-14
2.15629e-14
2.29433e-14
2.41692e-14
2.52353e-14
2.61331e-14
2.68495e-14
2.73753e-14
2.77441e-14
1.90441e-14
2.41569e-14
5.49753e-15
4.583e-15
9.25101e-15
1.10042e-14
1.33695e-14
1.53645e-14
1.73077e-14
1.90813e-14
2.0717e-14
2.22084e-14
2.35638e-14
2.47851e-14
2.58732e-14
2.68227e-14
2.76256e-14
2.82692e-14
2.87466e-14
2.90824e-14
2.05252e-15
9.67371e-14
8.91182e-15
1.68861e-14
1.38816e-14
1.63057e-14
1.77151e-14
1.94565e-14
2.09802e-14
2.24282e-14
2.3752e-14
2.49699e-14
2.60822e-14
2.70916e-14
2.79983e-14
2.87977e-14
2.94794e-14
3.00284e-14
3.04383e-14
3.07353e-14
2.78969e-15
1.19037e-14
1.41703e-14
2.07579e-14
2.1059e-14
2.25573e-14
2.34441e-14
2.45404e-14
2.55437e-14
2.65251e-14
2.74417e-14
2.83029e-14
2.91052e-14
2.98487e-14
3.05301e-14
3.11422e-14
3.16726e-14
3.21059e-14
3.24383e-14
3.26828e-14
6.82156e-16
1.43609e-13
2.22251e-14
3.56661e-14
2.8608e-14
3.05212e-14
3.01459e-14
3.06314e-14
3.09357e-14
3.1343e-14
3.17503e-14
3.21754e-14
3.26024e-14
3.30255e-14
3.3437e-14
3.3828e-14
3.41813e-14
3.4477e-14
3.47113e-14
3.48974e-14
8.73627e-14
3.67007e-14
4.31917e-14
4.07357e-14
4.00729e-14
3.92323e-14
3.8331e-14
3.75786e-14
3.70901e-14
3.67889e-14
3.66082e-14
3.65248e-14
3.65177e-14
3.65726e-14
3.66755e-14
3.68116e-14
3.69599e-14
3.70987e-14
3.72267e-14
3.73406e-14
1.88269e-15
6.2894e-14
4.28532e-14
5.56127e-14
5.02111e-14
4.91546e-14
4.68132e-14
4.51183e-14
4.37544e-14
4.27321e-14
4.18998e-14
4.12572e-14
4.07711e-14
4.04183e-14
4.01787e-14
4.00348e-14
3.99589e-14
3.99231e-14
3.99263e-14
3.99634e-14
2.29699e-13
2.45972e-13
9.10417e-14
7.58228e-14
6.23942e-14
5.90539e-14
5.54464e-14
5.28989e-14
5.08465e-14
4.89922e-14
4.74775e-14
4.62463e-14
4.5254e-14
4.44697e-14
4.38668e-14
4.34222e-14
4.31036e-14
4.28813e-14
4.27565e-14
4.27061e-14
7.74818e-15
7.50728e-16
7.25359e-14
7.55939e-14
7.39181e-14
6.78126e-14
6.37087e-14
6.07826e-14
5.78076e-14
5.52984e-14
5.31498e-14
5.1341e-14
4.98391e-14
4.8614e-14
4.76368e-14
4.68843e-14
4.63176e-14
4.59012e-14
4.56369e-14
4.54984e-14
5.52597e-13
1.01667e-12
1.20216e-13
1.0835e-13
7.7777e-14
7.70372e-14
7.1386e-14
6.82582e-14
6.46055e-14
6.15047e-14
5.8741e-14
5.63798e-14
5.43811e-14
5.27244e-14
5.13793e-14
5.03192e-14
4.95022e-14
4.88928e-14
4.84947e-14
4.82641e-14
1.9775e-14
5.63911e-13
3.85745e-14
6.10876e-14
9.05206e-14
8.4833e-14
8.11354e-14
7.55548e-14
7.12204e-14
6.74191e-14
6.40809e-14
6.11906e-14
5.87285e-14
5.66655e-14
5.49704e-14
5.3619e-14
5.25653e-14
5.17704e-14
5.12383e-14
5.09208e-14
5.80407e-14
3.69455e-12
9.41811e-14
1.83739e-13
8.8304e-14
9.56217e-14
8.58613e-14
8.20565e-14
7.69601e-14
7.27669e-14
6.892e-14
6.55926e-14
6.2724e-14
6.03019e-14
5.82936e-14
5.66762e-14
5.54036e-14
5.44394e-14
5.37888e-14
5.33882e-14
5.4534e-14
9.32054e-13
5.52704e-14
6.80522e-14
1.08283e-13
9.80772e-14
9.32441e-14
8.71679e-14
8.19688e-14
7.7275e-14
7.30902e-14
6.94158e-14
6.62279e-14
6.35088e-14
6.12345e-14
5.93902e-14
5.79309e-14
5.68195e-14
5.60612e-14
5.55868e-14
1.49535e-12
8.2999e-12
5.44452e-14
2.83983e-13
9.24312e-14
1.11221e-13
9.46905e-14
9.14663e-14
8.54233e-14
8.0818e-14
7.64001e-14
7.25343e-14
6.91184e-14
6.61798e-14
6.36995e-14
6.16738e-14
6.00625e-14
5.88318e-14
5.79852e-14
5.74435e-14
2.4873e-13
4.55325e-14
5.57549e-14
1.33901e-13
1.13222e-13
1.07612e-13
9.8245e-14
9.28976e-14
8.7718e-14
8.31225e-14
7.87857e-14
7.48393e-14
7.13077e-14
6.82259e-14
6.56031e-14
6.34491e-14
6.17295e-14
6.04072e-14
5.94856e-14
5.88896e-14
2.37289e-14
2.14399e-12
9.4696e-14
1.37724e-13
8.90307e-14
9.75199e-14
9.44832e-14
9.23111e-14
8.84376e-14
8.43115e-14
8.01704e-14
7.62616e-14
7.27017e-14
6.95548e-14
6.68593e-14
6.46363e-14
6.28478e-14
6.14636e-14
6.04962e-14
5.98726e-14
1.18634e-11
7.86152e-12
4.00473e-13
9.08538e-16
1.17067e-13
8.0418e-14
9.64e-14
9.05021e-14
8.87331e-14
8.45545e-14
8.07181e-14
7.68491e-14
7.33191e-14
7.01609e-14
6.74492e-14
6.52036e-14
6.33826e-14
6.19732e-14
6.09955e-14
6.03682e-14
)
;

boundaryField
{
    movingWall
    {
        type            calculated;
        value           nonuniform List<scalar> 
20
(
1.18634e-11
7.86152e-12
4.00473e-13
9.08538e-16
1.17067e-13
8.0418e-14
9.64e-14
9.05021e-14
8.87331e-14
8.45545e-14
8.07181e-14
7.68491e-14
7.33191e-14
7.01609e-14
6.74492e-14
6.52036e-14
6.33826e-14
6.19732e-14
6.09955e-14
6.03682e-14
)
;
    }
    fixedWalls
    {
        type            calculated;
        value           nonuniform List<scalar> 
60
(
7.57437e-19
7.30439e-16
1.57129e-14
1.72198e-14
1.90441e-14
2.05252e-15
2.78969e-15
6.82156e-16
8.73627e-14
1.88269e-15
2.29699e-13
7.74818e-15
5.52597e-13
1.9775e-14
5.80407e-14
5.4534e-14
1.49535e-12
2.4873e-13
2.37289e-14
1.18634e-11
2.57153e-14
2.60553e-14
2.67324e-14
2.77441e-14
2.90824e-14
3.07353e-14
3.26828e-14
3.48974e-14
3.73406e-14
3.99634e-14
4.27061e-14
4.54984e-14
4.82641e-14
5.09208e-14
5.33882e-14
5.55868e-14
5.74435e-14
5.88896e-14
5.98726e-14
6.03682e-14
7.57437e-19
1.69781e-14
9.30058e-18
1.31145e-16
1.88775e-15
3.6262e-15
5.97681e-15
8.2657e-15
1.05944e-14
1.28111e-14
1.49045e-14
1.6841e-14
1.86121e-14
2.02084e-14
2.16256e-14
2.28539e-14
2.38844e-14
2.47038e-14
2.53034e-14
2.57153e-14
)
;
    }
    frontAndBack
    {
        type            empty;
    }
}


// ************************************************************************* //
