/*--------------------------------*- C++ -*----------------------------------*\
| =========                 |                                                 |
| \\      /  F ield         | OpenFOAM: The Open Source CFD Toolbox           |
|  \\    /   O peration     | Version:  2506                                  |
|   \\  /    A nd           | Website:  www.openfoam.com                      |
|    \\/     M anipulation  |                                                 |
\*---------------------------------------------------------------------------*/
FoamFile
{
    version     2.0;
    format      ascii;
    arch        "LSB;label=32;scalar=64";
    class       volScalarField;
    location    "3";
    object      dUdt2;
}
// * * * * * * * * * * * * * * * * * * * * * * * * * * * * * * * * * * * * * //

dimensions      [0 2 -4 0 0 0 0];

internalField   nonuniform List<scalar> 
400
(
2.3877e-12
1.80623e-13
2.25024e-14
1.00488e-15
4.69843e-16
2.21699e-17
5.19966e-17
1.85364e-17
1.25613e-17
5.61847e-18
2.53739e-18
8.81991e-19
2.28699e-19
2.96639e-20
3.19427e-21
4.89474e-21
4.05691e-21
5.12401e-21
5.23786e-20
8.45013e-20
6.87018e-13
9.28306e-14
6.798e-15
4.87769e-16
3.24923e-16
2.87692e-17
5.70299e-17
2.17119e-17
1.48165e-17
7.04641e-18
3.45728e-18
1.40882e-18
4.95324e-19
1.27719e-19
2.45119e-20
8.45991e-21
1.15101e-20
3.40186e-20
1.13871e-19
2.36081e-19
1.11041e-11
5.97848e-13
1.01326e-13
4.01569e-15
1.30148e-15
2.93975e-17
7.72718e-17
2.43809e-17
1.81469e-17
9.24186e-18
4.99731e-18
2.34683e-18
9.8851e-19
3.10182e-19
6.42664e-20
1.27618e-20
2.5999e-20
9.52544e-20
2.30143e-19
5.18423e-19
1.59638e-14
6.76366e-15
1.15192e-15
1.95275e-16
3.12051e-16
8.02515e-17
6.45161e-17
3.26338e-17
2.12953e-17
1.23274e-17
7.0295e-18
3.61901e-18
1.65164e-18
5.55546e-19
1.14956e-19
2.23737e-20
5.15247e-20
1.85071e-19
4.12678e-19
9.04015e-19
8.75414e-12
4.14706e-13
7.07073e-14
3.65172e-15
6.63258e-16
1.11746e-16
6.47191e-17
3.85376e-17
2.4669e-17
1.57148e-17
9.27863e-18
5.05521e-18
2.39671e-18
8.25254e-19
1.70745e-19
3.26488e-20
8.60858e-20
3.11106e-19
6.40434e-19
1.34677e-18
1.02388e-11
6.04208e-13
8.75134e-14
6.36431e-15
5.12056e-16
2.05246e-16
4.62465e-17
4.67341e-17
2.71623e-17
1.89524e-17
1.14773e-17
6.45628e-18
3.12474e-18
1.07843e-18
2.16271e-19
5.12968e-20
1.37949e-19
4.59307e-19
9.22012e-19
1.80242e-18
4.53102e-13
3.77248e-14
3.14462e-15
2.38216e-16
1.79427e-16
7.64038e-17
5.98015e-17
4.39938e-17
3.08011e-17
2.11923e-17
1.33964e-17
7.62828e-18
3.73273e-18
1.27565e-18
2.49661e-19
6.86378e-20
1.97891e-19
6.41353e-19
1.22579e-18
2.21862e-18
1.25421e-11
8.26106e-13
1.02163e-13
7.65516e-15
8.46249e-16
1.58121e-16
6.69856e-17
4.57967e-17
3.27866e-17
2.27268e-17
1.46925e-17
8.41826e-18
4.12843e-18
1.37774e-18
2.5342e-19
9.78239e-20
2.7773e-19
8.274e-19
1.54725e-18
2.55419e-18
1.47304e-12
1.85439e-13
1.50937e-14
6.67044e-16
3.6876e-16
4.22418e-17
7.02875e-17
4.30697e-17
3.36936e-17
2.32183e-17
1.52054e-17
8.7191e-18
4.24197e-18
1.37098e-18
2.38505e-19
1.23726e-19
3.57038e-19
1.02681e-18
1.84858e-18
2.77109e-18
6.19272e-13
2.1821e-13
1.13936e-14
2.91243e-15
2.07518e-16
1.1556e-16
5.94751e-17
4.37426e-17
3.28044e-17
2.26582e-17
1.47555e-17
8.43643e-18
4.04337e-18
1.23895e-18
1.93472e-19
1.64128e-19
4.48112e-19
1.19542e-18
2.10918e-18
2.84887e-18
7.48272e-12
1.38079e-13
3.54623e-14
4.86181e-16
3.40765e-16
2.94314e-17
6.9301e-17
3.87736e-17
2.99809e-17
2.06264e-17
1.33767e-17
7.56842e-18
3.53865e-18
1.00995e-18
1.44958e-19
2.00671e-19
5.20704e-19
1.33593e-18
2.29826e-18
2.77936e-18
2.82713e-11
5.07887e-13
7.66382e-14
1.39138e-15
2.1644e-17
8.88063e-17
3.54128e-17
3.60939e-17
2.39559e-17
1.731e-17
1.11346e-17
6.21492e-18
2.80338e-18
7.09919e-19
9.14764e-20
2.48923e-19
5.82991e-19
1.40215e-18
2.38132e-18
2.5718e-18
1.7139e-10
5.1382e-12
6.56405e-13
2.1841e-14
2.48898e-15
8.98231e-17
8.91826e-17
2.35955e-17
2.29887e-17
1.31906e-17
8.58291e-18
4.56806e-18
1.94403e-18
4.06901e-19
6.56671e-20
2.90894e-19
6.05524e-19
1.39399e-18
2.35252e-18
2.25531e-18
4.58831e-10
1.56902e-11
1.64918e-12
4.1084e-14
3.01609e-15
4.81691e-16
3.03054e-17
4.1013e-17
1.69013e-17
1.08451e-17
5.76601e-18
2.90713e-18
1.09994e-18
1.53957e-19
6.9842e-20
3.31409e-19
5.98191e-19
1.29824e-18
2.1744e-18
1.86474e-18
8.55268e-10
4.13865e-11
4.81542e-12
2.05875e-13
2.73122e-14
8.2941e-16
3.32765e-16
7.85648e-18
2.15563e-17
5.6283e-18
3.43004e-18
1.34534e-18
4.28049e-19
1.44386e-20
1.20613e-19
3.61831e-19
5.50077e-19
1.11726e-18
1.88259e-18
1.44843e-18
7.21775e-10
3.10061e-11
2.89687e-12
1.17064e-13
5.21299e-15
1.2606e-15
2.33258e-17
4.94256e-17
1.09002e-17
4.22866e-18
1.23088e-18
3.43651e-19
5.21556e-20
2.86796e-20
2.16521e-19
3.78266e-19
4.73007e-19
8.92392e-19
1.47607e-18
1.04154e-18
1.80262e-09
1.05313e-10
1.33501e-11
7.13061e-13
1.00675e-13
4.38508e-15
1.13973e-15
1.84261e-17
2.72216e-17
1.35943e-18
6.04325e-19
9.01372e-21
5.85312e-20
2.05837e-19
3.47542e-19
3.88401e-19
3.8679e-19
6.34996e-19
1.04746e-18
6.76981e-19
6.54561e-10
5.18398e-11
2.6473e-12
3.06098e-13
1.22475e-14
3.2201e-15
1.0353e-16
8.8051e-17
8.11489e-18
4.02666e-18
6.39316e-19
4.41406e-19
4.1647e-19
5.05876e-19
5.08878e-19
3.97148e-19
3.00729e-19
3.93541e-19
6.14996e-19
3.77178e-19
8.25991e-10
3.08227e-11
3.28708e-12
1.43972e-13
9.78236e-15
3.1634e-15
3.4514e-17
1.10144e-16
7.6889e-18
6.0622e-18
1.61001e-18
1.15981e-18
8.96625e-19
7.91387e-19
6.0716e-19
3.58122e-19
2.06408e-19
1.6032e-19
2.36647e-19
1.7291e-19
3.04504e-09
2.26872e-10
2.70007e-11
1.92987e-12
2.57662e-13
1.46957e-14
3.09656e-15
7.30217e-17
6.53873e-17
2.58059e-18
4.39688e-18
1.48914e-18
1.36093e-18
9.70328e-19
6.89378e-19
3.57906e-19
2.14353e-19
1.25275e-19
2.47451e-20
8.61446e-20
)
;

boundaryField
{
    movingWall
    {
        type            calculated;
        value           uniform 0;
    }
    fixedWalls
    {
        type            calculated;
        value           uniform 0;
    }
    frontAndBack
    {
        type            empty;
    }
}


// ************************************************************************* //
