/*--------------------------------*- C++ -*----------------------------------*\
| =========                 |                                                 |
| \\      /  F ield         | OpenFOAM: The Open Source CFD Toolbox           |
|  \\    /   O peration     | Version:  2506                                  |
|   \\  /    A nd           | Website:  www.openfoam.com                      |
|    \\/     M anipulation  |                                                 |
\*---------------------------------------------------------------------------*/
FoamFile
{
    version     2.0;
    format      ascii;
    arch        "LSB;label=32;scalar=64";
    class       volScalarField;
    location    "3";
    object      enstrophyField;
}
// * * * * * * * * * * * * * * * * * * * * * * * * * * * * * * * * * * * * * //

dimensions      [0 0 -2 0 0 0 0];

internalField   nonuniform List<scalar> 
400
(
5.73726e-10
6.0463e-10
3.75619e-11
2.08178e-12
1.71999e-13
4.71347e-15
2.01347e-15
3.83506e-17
9.78109e-17
1.5369e-17
4.6634e-18
1.87997e-19
1.31434e-19
5.66454e-19
6.45551e-19
4.6106e-19
2.13757e-19
5.40927e-20
4.09262e-21
3.03504e-21
1.83373e-10
4.92074e-10
2.65285e-11
1.44149e-12
7.73731e-14
4.4433e-15
2.02477e-16
2.14563e-17
3.38716e-22
9.21559e-19
3.28267e-19
2.46606e-19
1.17373e-19
4.68578e-20
1.23086e-20
1.21736e-21
1.22911e-21
2.24162e-20
2.564e-20
7.43713e-21
5.84447e-10
6.62229e-10
3.58829e-11
1.94265e-12
1.06925e-13
5.56044e-15
3.73438e-16
7.92957e-18
5.31225e-18
8.4974e-19
1.09245e-18
5.94681e-19
3.24536e-19
1.25695e-19
3.28588e-20
2.75556e-21
4.27483e-21
6.63769e-20
7.70594e-20
2.35049e-20
9.06333e-10
8.01192e-10
4.24861e-11
2.26818e-12
1.19519e-13
6.80404e-15
2.77783e-16
3.81087e-17
5.72329e-19
3.20974e-18
1.62643e-18
1.13665e-18
5.64646e-19
2.16338e-19
5.00851e-20
2.17879e-21
1.33976e-20
1.44828e-19
1.67373e-19
5.36537e-20
6.24907e-10
9.17937e-10
4.65325e-11
2.33495e-12
1.18839e-13
5.44086e-15
3.6645e-16
1.89811e-18
8.46546e-18
3.03471e-18
2.73834e-18
1.62323e-18
8.25977e-19
2.95305e-19
5.80479e-20
3.1906e-22
3.44601e-20
2.70016e-19
3.11793e-19
1.05701e-19
3.00635e-09
1.66207e-09
8.73033e-11
4.60206e-12
2.38895e-13
1.33206e-14
5.40585e-16
7.31851e-17
1.08427e-18
6.25087e-18
3.15399e-18
2.16873e-18
1.02324e-18
3.43174e-19
5.03808e-20
1.62005e-21
7.90424e-20
4.59246e-19
5.26532e-19
1.87969e-19
3.14324e-09
2.38784e-09
1.22886e-10
6.27116e-12
3.22818e-13
1.54491e-14
9.82045e-16
1.27987e-17
1.63542e-17
4.23387e-18
4.33147e-18
2.42215e-18
1.16421e-18
3.42914e-19
3.076e-20
1.60303e-20
1.59728e-19
7.25076e-19
8.25634e-19
3.09686e-19
4.93821e-09
3.72273e-09
1.8903e-10
9.55644e-12
4.74882e-13
2.4757e-14
9.9093e-16
1.10208e-16
1.10257e-18
8.07153e-18
4.06423e-18
2.68818e-18
1.1632e-18
2.97312e-19
8.21386e-21
5.84206e-20
2.92576e-19
1.07724e-18
1.21524e-18
4.75862e-19
1.07873e-08
6.93764e-09
3.6096e-10
1.8665e-11
9.68554e-13
4.82739e-14
2.82534e-15
7.23272e-17
2.79197e-17
3.64292e-18
4.96988e-18
2.49371e-18
1.0878e-18
2.12953e-19
5.44605e-22
1.43806e-19
4.85667e-19
1.50794e-18
1.6874e-18
6.86462e-19
1.62405e-08
1.15367e-08
6.02147e-10
3.12963e-11
1.61175e-12
8.47134e-14
3.92614e-15
3.04342e-16
4.83621e-19
9.87002e-18
3.45832e-18
2.44828e-18
8.6896e-19
1.20137e-19
2.66182e-20
2.8307e-19
7.39213e-19
1.99448e-18
2.21692e-18
9.31465e-19
2.49466e-08
1.95712e-08
1.04104e-09
5.51176e-11
2.91548e-12
1.51158e-13
8.41854e-15
3.21733e-16
4.98131e-17
1.38104e-18
4.47557e-18
1.78382e-18
6.61843e-19
3.87703e-20
9.93624e-20
4.7451e-19
1.03286e-18
2.48658e-18
2.75344e-18
1.18862e-18
3.6684e-08
3.12816e-08
1.68568e-09
9.04369e-11
4.82898e-12
2.59406e-13
1.32336e-14
8.4404e-16
1.64198e-17
1.15882e-17
1.80534e-18
1.63325e-18
3.78783e-19
1.98125e-21
2.19986e-19
6.93757e-19
1.32262e-18
2.90945e-18
3.23002e-18
1.4272e-18
4.34603e-08
4.584e-08
2.52751e-09
1.38725e-10
7.59563e-12
4.12314e-13
2.29278e-14
1.09598e-15
9.74549e-17
3.32865e-20
3.40132e-18
7.83589e-19
2.19072e-19
1.55099e-20
3.66758e-19
9.07742e-19
1.55938e-18
3.18771e-18
3.55506e-18
1.60095e-18
4.17275e-08
5.58503e-08
3.19571e-09
1.81952e-10
1.03044e-11
5.81147e-13
3.20443e-14
1.91647e-15
7.3302e-17
1.37424e-17
3.42194e-19
7.80687e-19
5.37597e-20
6.36056e-20
5.07906e-19
1.05278e-18
1.67151e-18
3.23109e-18
3.64262e-18
1.66994e-18
3.29726e-08
5.99237e-08
3.43688e-09
1.96666e-10
1.12378e-11
6.41454e-13
3.68927e-14
2.00546e-15
1.42847e-16
2.44216e-18
2.15974e-18
1.45936e-19
1.68546e-20
1.41675e-19
5.91459e-19
1.09885e-18
1.63248e-18
3.011e-18
3.41897e-18
1.58941e-18
5.56264e-08
7.06567e-08
4.10372e-09
2.38189e-10
1.38567e-11
8.07149e-13
4.70085e-14
2.81601e-15
1.43581e-16
1.43703e-17
2.26489e-20
2.5438e-19
6.54463e-21
1.76794e-19
6.01721e-19
1.00706e-18
1.42517e-18
2.53102e-18
2.88591e-18
1.35396e-18
1.17489e-08
5.79201e-08
3.28824e-09
1.86401e-10
1.05545e-11
5.98183e-13
3.37887e-14
1.87906e-15
1.15536e-16
3.9619e-18
8.61467e-19
3.57409e-22
1.05411e-20
2.0619e-19
5.15867e-19
8.11461e-19
1.09736e-18
1.88156e-18
2.13372e-18
9.93487e-19
1.46801e-08
6.23591e-08
3.55521e-09
2.02453e-10
1.15451e-11
6.5754e-13
3.75835e-14
2.15591e-15
1.17818e-16
8.57449e-18
1.85882e-19
4.88189e-20
3.16896e-20
1.2901e-19
3.23515e-19
4.78002e-19
6.27268e-19
1.09166e-18
1.2988e-18
5.9813e-19
1.39231e-07
9.53179e-08
5.70224e-09
3.42597e-10
2.06468e-11
1.25613e-12
7.61766e-14
4.72176e-15
2.88716e-16
1.73224e-17
1.32171e-18
5.18098e-20
3.26372e-25
4.2176e-20
8.61343e-20
1.27655e-19
1.59181e-19
3.4549e-19
5.38314e-19
2.61592e-19
9.17703e-08
8.8404e-08
7.09155e-09
4.04618e-10
3.93604e-11
1.78348e-12
3.45677e-13
1.30336e-15
9.223e-15
9.1187e-16
1.00955e-15
3.7786e-16
2.18652e-16
1.02036e-16
4.81835e-17
1.98456e-17
7.05611e-18
1.78767e-18
2.48272e-19
3.79993e-20
)
;

boundaryField
{
    movingWall
    {
        type            calculated;
        value           nonuniform List<scalar> 
20
(
9.60227e-07
2.17302e-07
2.2403e-08
1.31972e-09
1.57527e-10
7.58601e-12
1.63095e-12
9.41222e-15
4.44482e-14
3.54583e-15
4.50098e-15
1.57629e-15
9.30932e-16
4.25801e-16
2.00745e-16
8.20104e-17
2.8959e-17
6.68942e-18
5.64731e-19
3.85515e-20
)
;
    }
    fixedWalls
    {
        type            calculated;
        value           nonuniform List<scalar> 
60
(
1.07706e-08
9.10352e-09
1.20955e-08
1.4687e-08
1.74018e-08
3.03483e-08
4.43946e-08
6.95533e-08
1.27715e-07
2.12186e-07
3.57119e-07
5.6656e-07
8.21748e-07
9.85983e-07
1.06275e-06
1.23909e-06
1.04311e-06
1.12172e-06
1.62465e-06
1.56863e-06
2.73005e-21
6.35622e-21
1.94022e-20
4.213e-20
7.846e-20
1.31995e-19
2.06967e-19
3.03754e-19
4.21185e-19
5.49697e-19
6.76693e-19
7.82106e-19
8.46966e-19
8.53144e-19
7.88873e-19
6.54545e-19
4.61155e-19
2.57887e-19
9.86771e-20
1.3568e-20
1.20351e-09
7.59809e-10
5.28645e-11
2.99801e-12
3.14886e-13
5.76663e-15
5.61764e-15
2.45618e-16
3.60347e-16
6.47593e-17
1.84682e-17
8.01131e-19
5.04648e-19
2.20669e-18
2.5127e-18
1.78446e-18
8.13311e-19
1.69306e-19
4.94901e-21
6.62368e-21
)
;
    }
    frontAndBack
    {
        type            empty;
    }
}


// ************************************************************************* //
