/*--------------------------------*- C++ -*----------------------------------*\
| =========                 |                                                 |
| \\      /  F ield         | OpenFOAM: The Open Source CFD Toolbox           |
|  \\    /   O peration     | Version:  2506                                  |
|   \\  /    A nd           | Website:  www.openfoam.com                      |
|    \\/     M anipulation  |                                                 |
\*---------------------------------------------------------------------------*/
FoamFile
{
    version     2.0;
    format      ascii;
    arch        "LSB;label=32;scalar=64";
    class       volScalarField;
    location    "3";
    object      epsilon;
}
// * * * * * * * * * * * * * * * * * * * * * * * * * * * * * * * * * * * * * //

dimensions      [0 2 -3 0 0 0 0];

internalField   nonuniform List<scalar> 
400
(
7.79275e-05
7.79222e-05
7.79158e-05
7.79132e-05
7.79064e-05
7.79059e-05
7.78991e-05
7.78994e-05
7.78938e-05
7.78934e-05
7.789e-05
7.7889e-05
7.78872e-05
7.78862e-05
7.78852e-05
7.78845e-05
7.78839e-05
7.78836e-05
7.78834e-05
7.78833e-05
0.000171242
0.000162054
0.000162659
0.000162916
0.000163438
0.000163725
0.00016425
0.000164565
0.000165095
0.000165436
0.000165974
0.000166339
0.000166888
0.000167274
0.000167836
0.00016824
0.00016882
0.000169241
0.00016954
0.000170053
0.000366966
0.000339347
0.000341062
0.00034179
0.000343284
0.000344112
0.000345619
0.000346539
0.000348064
0.000349071
0.000350623
0.00035171
0.000353299
0.000354455
0.000356093
0.000357311
0.000359005
0.000360282
0.000361161
0.00036269
0.000570354
0.000518604
0.000521622
0.00052291
0.000525573
0.000527064
0.000529762
0.000531438
0.000534184
0.000536037
0.000538844
0.000540861
0.000543751
0.000545916
0.000548908
0.00055121
0.000554319
0.000556753
0.000558374
0.00056124
0.000717834
0.000646383
0.000650362
0.000652087
0.000655641
0.000657647
0.000661262
0.000663533
0.000667223
0.00066975
0.000673536
0.000676301
0.000680211
0.000683195
0.000687257
0.000690446
0.00069468
0.000698069
0.000700284
0.000704234
0.000807189
0.000723064
0.000727677
0.000729624
0.000733736
0.000736056
0.000740237
0.000742879
0.000747154
0.000750104
0.0007545
0.000757739
0.000762288
0.000765794
0.000770527
0.000774285
0.000779227
0.000783231
0.000785822
0.000790465
0.000860162
0.000768354
0.000773326
0.000775413
0.000779852
0.00078236
0.000786876
0.00078974
0.000794364
0.000797568
0.000802328
0.000805853
0.000810783
0.000814606
0.00081974
0.000823845
0.000829211
0.000833591
0.000836407
0.00084147
0.000894134
0.000797341
0.000802544
0.000804718
0.000809367
0.000811994
0.000816725
0.000819731
0.000824579
0.000827947
0.00083294
0.000836649
0.000841825
0.000845852
0.000851246
0.000855573
0.000861214
0.000865837
0.000868799
0.000874133
0.000919404
0.000818888
0.000824259
0.0008265
0.000831303
0.00083402
0.000838911
0.000842022
0.000847036
0.000850525
0.000855693
0.000859539
0.000864898
0.000869077
0.000874664
0.000879158
0.000885003
0.000889807
0.000892878
0.000898414
0.000941326
0.000837574
0.000843057
0.000845383
0.000850312
0.000853111
0.000858136
0.000861343
0.000866498
0.000870096
0.000875411
0.000879379
0.000884894
0.000889207
0.000894961
0.000899601
0.000905623
0.000910586
0.000913751
0.000919464
0.000962815
0.000855873
0.000861536
0.000863887
0.000868957
0.000871827
0.000876992
0.000880285
0.000885584
0.000889284
0.00089475
0.000898833
0.000904506
0.000908949
0.000914868
0.000919651
0.000925848
0.000930967
0.000934224
0.000940111
0.000985709
0.000875396
0.000881055
0.000883593
0.00088877
0.000891733
0.000897035
0.000900431
0.000905875
0.000909691
0.000915311
0.000919524
0.00092536
0.000929945
0.000936038
0.000940976
0.000947358
0.000952645
0.000956002
0.000962074
0.00101125
0.000897058
0.000903011
0.000905515
0.000910874
0.000913919
0.000919388
0.000922888
0.000928504
0.000932443
0.000938242
0.000942594
0.000948618
0.000953358
0.000959649
0.00096476
0.000971352
0.000976827
0.000980295
0.000986576
0.00104061
0.000921971
0.000928091
0.000930694
0.000936227
0.00093938
0.000945032
0.00094866
0.000954468
0.000958553
0.000964554
0.000969071
0.000975309
0.000980233
0.000986751
0.000992062
0.000998895
0.00100459
0.00100819
0.00101471
0.00107506
0.000951194
0.000957374
0.000960202
0.000965914
0.000969199
0.000975066
0.000978843
0.00098488
0.000989136
0.000995378
0.00100009
0.00100658
0.00101172
0.00101851
0.00102406
0.00103117
0.00103713
0.00104088
0.00104769
0.00111637
0.000986085
0.000992528
0.000995471
0.00100144
0.00100487
0.001011
0.00101496
0.00102127
0.00102573
0.00103226
0.00103721
0.001044
0.0010494
0.00105652
0.00106235
0.00106982
0.00107609
0.00108002
0.00108718
0.00116728
0.00102901
0.00103575
0.00103886
0.00104513
0.00104875
0.0010552
0.00105938
0.00106603
0.00107075
0.00107764
0.00108288
0.00109006
0.00109578
0.0011033
0.00110949
0.00111739
0.00112405
0.00112821
0.0011358
0.00123039
0.00108225
0.00108932
0.00109264
0.00109927
0.00110312
0.00110997
0.00111442
0.00112148
0.00112652
0.00113386
0.00113945
0.0011471
0.00115324
0.00116125
0.0011679
0.00117633
0.00118349
0.00118793
0.00119607
0.00129734
0.00114396
0.00115117
0.0011543
0.00116098
0.00116488
0.00117177
0.00117637
0.00118351
0.00118879
0.00119625
0.00120217
0.00121002
0.00121655
0.00122486
0.00123199
0.00124081
0.00124855
0.00125325
0.00126195
0.00131047
0.0013102
0.00131008
0.00130999
0.00130982
0.00130981
0.00130963
0.00130968
0.00130951
0.00130957
0.00130945
0.00130949
0.00130941
0.00130943
0.0013094
0.0013094
0.0013094
0.0013094
0.0013094
0.0013094
)
;

boundaryField
{
    movingWall
    {
        type            epsilonWallFunction;
        blending        stepwise;
        value           nonuniform List<scalar> 
20
(
0.00131047
0.0013102
0.00131008
0.00130999
0.00130982
0.00130981
0.00130963
0.00130968
0.00130951
0.00130957
0.00130945
0.00130949
0.00130941
0.00130943
0.0013094
0.0013094
0.0013094
0.0013094
0.0013094
0.0013094
)
;
    }
    fixedWalls
    {
        type            epsilonWallFunction;
        blending        stepwise;
        value           nonuniform List<scalar> 
60
(
7.79275e-05
0.000171242
0.000366966
0.000570354
0.000717834
0.000807189
0.000860162
0.000894134
0.000919404
0.000941326
0.000962815
0.000985709
0.00101125
0.00104061
0.00107506
0.00111637
0.00116728
0.00123039
0.00129734
0.00131047
7.78833e-05
0.000170053
0.00036269
0.00056124
0.000704234
0.000790465
0.00084147
0.000874133
0.000898414
0.000919464
0.000940111
0.000962074
0.000986576
0.00101471
0.00104769
0.00108718
0.0011358
0.00119607
0.00126195
0.0013094
7.79275e-05
7.79222e-05
7.79158e-05
7.79132e-05
7.79064e-05
7.79059e-05
7.78991e-05
7.78994e-05
7.78938e-05
7.78934e-05
7.789e-05
7.7889e-05
7.78872e-05
7.78862e-05
7.78852e-05
7.78845e-05
7.78839e-05
7.78836e-05
7.78834e-05
7.78833e-05
)
;
    }
    frontAndBack
    {
        type            empty;
    }
}


// ************************************************************************* //
