/*--------------------------------*- C++ -*----------------------------------*\
| =========                 |                                                 |
| \\      /  F ield         | OpenFOAM: The Open Source CFD Toolbox           |
|  \\    /   O peration     | Version:  2506                                  |
|   \\  /    A nd           | Website:  www.openfoam.com                      |
|    \\/     M anipulation  |                                                 |
\*---------------------------------------------------------------------------*/
FoamFile
{
    version     2.0;
    format      ascii;
    arch        "LSB;label=32;scalar=64";
    class       volScalarField;
    location    "3";
    object      flowTypeField;
}
// * * * * * * * * * * * * * * * * * * * * * * * * * * * * * * * * * * * * * //

dimensions      [0 0 0 0 0 0 0];

internalField   nonuniform List<scalar> 
400
(
-0.256052
-0.0452423
-0.0855206
-0.0455236
-0.214303
0.2226
-0.518273
0.544243
-0.0103011
0.291052
0.287116
0.686021
0.589111
0.197173
0.109947
0.123247
0.201079
0.342062
0.458885
-0.0870022
0.298075
0.0692037
0.100509
0.122275
0.167806
0.226961
0.271837
0.572405
0.995367
0.750282
0.752548
0.682799
0.615814
0.556288
0.638405
0.876731
0.883354
0.530304
0.190466
0.0864627
-0.0937773
0.0326348
0.0343119
0.133459
0.168977
0.345333
0.312744
0.771922
0.579669
0.775771
0.619936
0.592011
0.528377
0.527861
0.636613
0.861391
0.819758
0.381285
0.0944588
0.0395944
-0.251287
-0.0382587
-0.108756
-0.0333808
-0.199968
0.0761658
-0.344493
0.488891
0.852553
0.610406
0.59522
0.527025
0.508977
0.538665
0.668751
0.902934
0.743677
0.279081
0.0611881
0.0287855
0.0757794
0.0365896
0.0476319
0.0939115
0.211825
0.176167
0.469354
0.796584
0.628512
0.610327
0.551446
0.504217
0.506618
0.561098
0.711488
0.968575
0.666834
0.229633
0.0466803
0.0194694
-0.414168
-0.135486
-0.299447
-0.251277
-0.490467
-0.369324
0.0202642
0.226809
0.841326
0.514211
0.549897
0.493976
0.516622
0.592322
0.766706
0.941381
0.588161
0.181647
0.0380411
0.0164575
-0.0907452
0.0381419
-0.0552379
0.129818
0.00688452
0.19662
0.248751
0.670073
0.484876
0.614737
0.504765
0.5096
0.529126
0.631563
0.834452
0.845539
0.510827
0.158149
0.0331983
0.0120078
-0.0994843
0.00587409
-0.1085
0.0490975
-0.155365
-0.0188471
-0.143028
0.253821
0.81924
0.519591
0.532734
0.512802
0.555797
0.676669
0.918724
0.74967
0.438537
0.12832
0.0283218
0.0106066
-0.102905
0.0423342
-0.0836042
0.141313
-0.0465304
0.192982
0.14133
0.537376
0.298938
0.677902
0.498312
0.545326
0.582737
0.733706
0.979889
0.654569
0.370803
0.113192
0.0255301
0.00806906
-0.0452958
0.0699979
-0.0429481
0.177157
0.0011607
0.202626
0.261937
0.0475297
0.92306
0.448843
0.600711
0.547651
0.631144
0.799024
0.873096
0.569563
0.313924
0.0938949
0.0218922
0.00706607
-0.00634388
0.0967672
0.00219506
0.213972
0.077919
0.285228
0.254598
0.491611
0.206727
0.820872
0.519797
0.622073
0.671061
0.883956
0.775702
0.492607
0.266059
0.0853595
0.0204721
0.00542464
0.000585511
0.0984755
0.00789109
0.211695
0.0800377
0.255113
0.320924
0.155184
0.746914
0.389686
0.726804
0.622838
0.750043
0.972964
0.693145
0.438622
0.23731
0.0782167
0.0183585
0.00438971
0.0532738
0.121688
0.0514659
0.244368
0.127999
0.326123
0.297318
0.474595
0.282663
0.976927
0.577372
0.753151
0.805673
0.929818
0.636891
0.406879
0.224443
0.0805139
0.0193546
0.00315548
0.1054
0.120605
0.0699754
0.230673
0.129144
0.291175
0.321952
0.253198
0.654428
0.402827
0.891018
0.750732
0.908272
0.872105
0.613862
0.410588
0.240048
0.0928841
0.0214566
0.00225541
0.222327
0.142899
0.125026
0.261807
0.219174
0.367525
0.364373
0.524633
0.390474
0.867105
0.710691
0.905814
0.952417
0.835718
0.627676
0.444767
0.279616
0.118473
0.0300874
0.00245635
0.00348922
0.0666932
0.0298066
0.14786
0.0789431
0.179538
0.260976
0.0883653
0.579807
0.602386
0.976113
0.88912
0.974697
0.842346
0.666413
0.507704
0.347317
0.16385
0.0444523
0.00470035
0.553357
0.223577
0.245034
0.367302
0.369071
0.505598
0.509796
0.667626
0.616393
0.878421
0.876543
0.996336
0.973073
0.851888
0.722143
0.583977
0.434169
0.229421
0.0722097
0.0111975
0.439429
0.0855406
0.136304
0.132802
0.223004
0.154483
0.410865
-0.214142
0.717186
0.723445
0.955681
0.961685
0.960659
0.895758
0.798095
0.694513
0.570805
0.35442
0.124733
0.0180441
-0.495856
-0.0939725
-0.183301
-0.095411
-0.219626
-0.0947734
0.12898
-0.138258
0.610468
0.686263
0.898323
0.964911
0.999885
0.945148
0.900262
0.842945
0.77354
0.582916
0.266108
0.0307967
-0.125618
0.0777534
0.0309589
0.174378
0.0630732
0.330491
-0.02922
0.788155
-0.345051
0.334712
-0.0643336
0.100584
0.0398123
0.0815336
0.0891742
0.125879
0.183109
0.292816
0.400487
0.1827
)
;

boundaryField
{
    movingWall
    {
        type            calculated;
        value           nonuniform List<scalar> 
20
(
0.280761
0.0526542
-0.0943746
0.0317247
-0.117914
0.0868008
-0.168513
0.560702
-0.169035
0.179146
-0.0524626
0.0231219
-0.00668969
0.0109558
0.0102588
0.0217104
0.0409776
0.0956659
0.238286
0.177193
)
;
    }
    fixedWalls
    {
        type            calculated;
        value           nonuniform List<scalar> 
60
(
-0.0386049
0.0571671
0.0283008
-0.0513099
0.00809816
-0.151475
0.0230156
-0.0139802
0.0339395
0.062594
0.0945316
0.099032
0.12779
0.133525
0.15595
0.0822899
0.232848
0.0877946
-0.0659418
0.0979459
0.227648
0.1887
0.0812179
0.0447188
0.027052
0.0187811
0.0134365
0.0108043
0.0086774
0.00748354
0.00637036
0.00537623
0.00440162
0.00344047
0.00376596
0.00657021
0.0148046
0.0231733
0.0336043
0.184397
0.601691
0.167512
0.102732
0.120797
-0.0764279
0.360744
-0.298607
0.326379
-0.0706354
0.106629
0.0655901
0.450855
0.396821
0.105642
0.0574708
0.052254
0.0729076
0.143424
0.419497
-0.227987
)
;
    }
    frontAndBack
    {
        type            empty;
    }
}


// ************************************************************************* //
