/*--------------------------------*- C++ -*----------------------------------*\
| =========                 |                                                 |
| \\      /  F ield         | OpenFOAM: The Open Source CFD Toolbox           |
|  \\    /   O peration     | Version:  2506                                  |
|   \\  /    A nd           | Website:  www.openfoam.com                      |
|    \\/     M anipulation  |                                                 |
\*---------------------------------------------------------------------------*/
FoamFile
{
    version     2.0;
    format      ascii;
    arch        "LSB;label=32;scalar=64";
    class       surfaceScalarField;
    location    "3";
    object      fluxField;
}
// * * * * * * * * * * * * * * * * * * * * * * * * * * * * * * * * * * * * * //

dimensions      [0 3 -1 0 0 0 0];

oriented        oriented;

internalField   nonuniform List<scalar> 
760
(
-5e-05
-2.19961e-13
-5e-05
6.20821e-14
-5e-05
-1.84632e-14
-5e-05
1.94692e-15
-5e-05
-5.10753e-15
-5e-05
-2.62199e-15
-5e-05
-2.81328e-15
-5e-05
-1.98246e-15
-5e-05
-1.52453e-15
-5e-05
-1.04158e-15
-5e-05
-6.84269e-16
-5e-05
-4.01106e-16
-5e-05
-1.97284e-16
-5e-05
-5.90633e-17
-5e-05
2.58348e-17
-5e-05
7.14522e-17
-5e-05
9.02277e-17
-5e-05
8.06553e-17
-5e-05
3.16703e-17
9.45436e-18
-5e-05
4.66874e-13
-5e-05
9.97853e-15
-5e-05
-1.35069e-14
-5e-05
1.83967e-15
-5e-05
-1.14208e-14
-5e-05
-5.51408e-15
-5e-05
-5.85728e-15
-5e-05
-3.97964e-15
-5e-05
-3.01564e-15
-5e-05
-2.03582e-15
-5e-05
-1.32031e-15
-5e-05
-7.61755e-16
-5e-05
-3.61504e-16
-5e-05
-9.26165e-17
-5e-05
7.09648e-17
-5e-05
1.56447e-16
-5e-05
1.89009e-16
-5e-05
1.67747e-16
-5e-05
6.59659e-17
1.95687e-17
-5e-05
-6.16723e-13
-5e-05
1.67637e-14
-5e-05
-2.45611e-14
-5e-05
-2.27103e-14
-5e-05
-1.14184e-14
-5e-05
-1.19278e-14
-5e-05
-7.81034e-15
-5e-05
-6.16585e-15
-5e-05
-4.22399e-15
-5e-05
-2.90858e-15
-5e-05
-1.8222e-15
-5e-05
-1.0299e-15
-5e-05
-4.53843e-16
-5e-05
-7.48611e-17
-5e-05
1.52773e-16
-5e-05
2.66781e-16
-5e-05
3.04306e-16
-5e-05
2.64474e-16
-5e-05
1.06499e-16
3.07386e-17
-5e-05
1.69461e-12
-5e-05
-5.13972e-13
-5e-05
8.8341e-14
-5e-05
-6.62533e-14
-5e-05
-9.11025e-15
-5e-05
-1.82053e-14
-5e-05
-9.37597e-15
-5e-05
-7.88415e-15
-5e-05
-5.11062e-15
-5e-05
-3.52062e-15
-5e-05
-2.13253e-15
-5e-05
-1.15636e-15
-5e-05
-4.43438e-16
-5e-05
1.61192e-17
-5e-05
2.85633e-16
-5e-05
4.1155e-16
-5e-05
4.41998e-16
-5e-05
3.74933e-16
-5e-05
1.54997e-16
4.32528e-17
-5e-05
-1.48039e-12
-5e-05
-3.59804e-14
-5e-05
-1.97219e-14
-5e-05
-6.20691e-14
-5e-05
-1.11132e-14
-5e-05
-2.09127e-14
-5e-05
-1.01034e-14
-5e-05
-8.8479e-15
-5e-05
-5.52854e-15
-5e-05
-3.78627e-15
-5e-05
-2.1964e-15
-5e-05
-1.10406e-15
-5e-05
-3.06127e-16
-5e-05
1.96441e-16
-5e-05
4.7983e-16
-5e-05
5.97092e-16
-5e-05
6.05414e-16
-5e-05
5.00447e-16
-5e-05
2.12595e-16
5.72823e-17
-5e-05
3.82905e-12
-5e-05
-9.78577e-13
-5e-05
1.98244e-13
-5e-05
-8.8044e-14
-5e-05
-5.60204e-15
-5e-05
-2.05188e-14
-5e-05
-1.0411e-14
-5e-05
-8.66999e-15
-5e-05
-5.51954e-15
-5e-05
-3.61766e-15
-5e-05
-1.99598e-15
-5e-05
-8.48755e-16
-5e-05
-3.07955e-17
-5e-05
4.73717e-16
-5e-05
7.38982e-16
-5e-05
8.24903e-16
-5e-05
7.94594e-16
-5e-05
6.40784e-16
-5e-05
2.79104e-16
7.27877e-17
-5e-05
-4.29853e-12
-5e-05
8.29886e-13
-5e-05
-2.2748e-13
-5e-05
1.76952e-14
-5e-05
-2.69678e-14
-5e-05
-1.25679e-14
-5e-05
-1.09346e-14
-5e-05
-7.46854e-15
-5e-05
-5.03315e-15
-5e-05
-3.04454e-15
-5e-05
-1.5169e-15
-5e-05
-3.92468e-16
-5e-05
3.83486e-16
-5e-05
8.45456e-16
-5e-05
1.06005e-15
-5e-05
1.09149e-15
-5e-05
1.00625e-15
-5e-05
7.92914e-16
-5e-05
3.53317e-16
8.94589e-17
-5e-05
6.63066e-12
-5e-05
-1.34004e-12
-5e-05
2.83744e-13
-5e-05
-7.46101e-14
-5e-05
-4.71562e-15
-5e-05
-1.36381e-14
-5e-05
-8.932e-15
-5e-05
-6.14136e-15
-5e-05
-3.98355e-15
-5e-05
-2.1362e-15
-5e-05
-7.72327e-16
-5e-05
2.46839e-16
-5e-05
9.23849e-16
-5e-05
1.29968e-15
-5e-05
1.43267e-15
-5e-05
1.38789e-15
-5e-05
1.23306e-15
-5e-05
9.51949e-16
-5e-05
4.32593e-16
1.06694e-16
-5e-05
-8.75272e-12
-5e-05
1.91587e-12
-5e-05
-4.73796e-13
-5e-05
8.47217e-14
-5e-05
-3.59329e-14
-5e-05
-3.95003e-15
-5e-05
-7.78499e-15
-5e-05
-4.06116e-15
-5e-05
-2.52048e-15
-5e-05
-9.36046e-16
-5e-05
2.02454e-16
-5e-05
1.03808e-15
-5e-05
1.56668e-15
-5e-05
1.81561e-15
-5e-05
1.83981e-15
-5e-05
1.70035e-15
-5e-05
1.4646e-15
-5e-05
1.11032e-15
-5e-05
5.13361e-16
1.23597e-16
-5e-05
1.16404e-11
-5e-05
-2.71482e-12
-5e-05
6.11647e-13
-5e-05
-1.60305e-13
-5e-05
2.24276e-14
-5e-05
-1.42371e-14
-5e-05
-2.34296e-15
-5e-05
-2.50112e-15
-5e-05
-5.84605e-16
-5e-05
4.79381e-16
-5e-05
1.35983e-15
-5e-05
1.94452e-15
-5e-05
2.27782e-15
-5e-05
2.36554e-15
-5e-05
2.25825e-15
-5e-05
2.0105e-15
-5e-05
1.68697e-15
-5e-05
1.25911e-15
-5e-05
5.90756e-16
1.39014e-16
-5e-05
-1.33244e-11
-5e-05
2.99098e-12
-5e-05
-7.38549e-13
-5e-05
1.45276e-13
-5e-05
-4.32661e-14
-5e-05
4.94315e-15
-5e-05
-2.62243e-15
-5e-05
8.08657e-16
-5e-05
1.34945e-15
-5e-05
2.14548e-15
-5e-05
2.63286e-15
-5e-05
2.92212e-15
-5e-05
3.01612e-15
-5e-05
2.91467e-15
-5e-05
2.6596e-15
-5e-05
2.29626e-15
-5e-05
1.88399e-15
-5e-05
1.38711e-15
-5e-05
6.59323e-16
1.51667e-16
-5e-05
1.4869e-11
-5e-05
-3.78056e-12
-5e-05
9.05799e-13
-5e-05
-2.20483e-13
-5e-05
5.58388e-14
-5e-05
-1.09555e-14
-5e-05
6.00921e-15
-5e-05
2.53203e-15
-5e-05
3.93357e-15
-5e-05
3.86817e-15
-5e-05
3.99578e-15
-5e-05
3.91223e-15
-5e-05
3.73393e-15
-5e-05
3.42161e-15
-5e-05
3.01048e-15
-5e-05
2.53187e-15
-5e-05
2.03691e-15
-5e-05
1.4825e-15
-5e-05
7.12409e-16
1.60246e-16
-5e-05
-9.65885e-12
-5e-05
3.07717e-12
-5e-05
-6.74359e-13
-5e-05
2.00348e-13
-5e-05
-3.8576e-14
-5e-05
1.62526e-14
-5e-05
4.01653e-15
-5e-05
6.91502e-15
-5e-05
6.14099e-15
-5e-05
5.80561e-15
-5e-05
5.33776e-15
-5e-05
4.85678e-15
-5e-05
4.3701e-15
-5e-05
3.83752e-15
-5e-05
3.27282e-15
-5e-05
2.68959e-15
-5e-05
2.12646e-15
-5e-05
1.53176e-15
-5e-05
7.43039e-16
1.63583e-16
-5e-05
6.39302e-12
-5e-05
-2.25328e-12
-5e-05
5.32844e-13
-5e-05
-1.91371e-13
-5e-05
6.05489e-14
-5e-05
-5.85904e-15
-5e-05
1.61564e-14
-5e-05
8.71034e-15
-5e-05
9.40809e-15
-5e-05
7.56002e-15
-5e-05
6.63827e-15
-5e-05
5.64688e-15
-5e-05
4.85296e-15
-5e-05
4.104e-15
-5e-05
3.40497e-15
-5e-05
2.73993e-15
-5e-05
2.13233e-15
-5e-05
1.52222e-15
-5e-05
7.43887e-16
1.60618e-16
-5e-05
-3.20634e-12
-5e-05
2.72716e-13
-5e-05
-6.27747e-14
-5e-05
-1.75193e-14
-5e-05
2.97354e-14
-5e-05
1.251e-14
-5e-05
1.95553e-14
-5e-05
1.36147e-14
-5e-05
1.21047e-14
-5e-05
9.33935e-15
-5e-05
7.64283e-15
-5e-05
6.17721e-15
-5e-05
5.0825e-15
-5e-05
4.15701e-15
-5e-05
3.3626e-15
-5e-05
2.65449e-15
-5e-05
2.03654e-15
-5e-05
1.442e-15
-5e-05
7.08584e-16
1.50506e-16
-5e-05
3.44273e-12
-5e-05
-2.27469e-12
-5e-05
6.27436e-13
-5e-05
-2.10893e-13
-5e-05
1.13258e-13
-5e-05
6.5543e-15
-5e-05
3.3516e-14
-5e-05
1.68066e-14
-5e-05
1.50856e-14
-5e-05
1.04347e-14
-5e-05
8.1561e-15
-5e-05
6.24359e-15
-5e-05
4.94986e-15
-5e-05
3.92599e-15
-5e-05
3.10532e-15
-5e-05
2.4103e-15
-5e-05
1.82741e-15
-5e-05
1.28595e-15
-5e-05
6.34375e-16
1.32238e-16
-4.99999e-05
-2.62439e-12
-5e-05
9.70969e-13
-5e-05
-7.95357e-14
-5e-05
1.95297e-13
-5e-05
5.2445e-14
-5e-05
6.20045e-14
-5e-05
3.15989e-14
-5e-05
2.41065e-14
-5e-05
1.50706e-14
-5e-05
1.08627e-14
-5e-05
7.64904e-15
-5e-05
5.72948e-15
-5e-05
4.3553e-15
-5e-05
3.37922e-15
-5e-05
2.61913e-15
-5e-05
2.00677e-15
-5e-05
1.50746e-15
-5e-05
1.05609e-15
-5e-05
5.22465e-16
1.05422e-16
-5e-05
-2.95544e-12
-5e-05
4.02827e-12
-5e-05
-7.4045e-13
-5e-05
6.90314e-13
-5e-05
-4.3915e-14
-5e-05
1.2255e-13
-5e-05
1.73943e-14
-5e-05
2.81896e-14
-5e-05
1.14778e-14
-5e-05
9.61017e-15
-5e-05
5.91899e-15
-5e-05
4.4812e-15
-5e-05
3.25711e-15
-5e-05
2.49725e-15
-5e-05
1.90105e-15
-5e-05
1.44316e-15
-5e-05
1.07661e-15
-5e-05
7.56752e-16
-5e-05
3.79579e-16
7.19736e-17
-5e-05
-3.62349e-12
-5e-05
6.11166e-12
-5e-05
-1.37792e-12
-5e-05
9.12116e-13
-5e-05
-1.64807e-13
-5e-05
1.29494e-13
-5e-05
-5.64072e-15
-5e-05
2.26419e-14
-5e-05
4.97701e-15
-5e-05
6.06158e-15
-5e-05
3.10569e-15
-5e-05
2.49207e-15
-5e-05
1.71944e-15
-5e-05
1.3193e-15
-5e-05
9.87845e-16
-5e-05
7.45585e-16
-5e-05
5.54741e-16
-5e-05
3.97342e-16
-5e-05
2.0535e-16
3.59485e-17
-5.00001e-05
-5e-05
-5e-05
-5e-05
-5e-05
-5e-05
-5e-05
-5e-05
-5e-05
-5e-05
-5e-05
-5e-05
-5e-05
-5e-05
-5e-05
-5e-05
-5e-05
-5e-05
-5e-05
)
;

boundaryField
{
    movingWall
    {
        type            calculated;
        value           uniform -0;
    }
    fixedWalls
    {
        type            calculated;
        value           nonuniform List<scalar> 
60
(
5e-05
5e-05
5e-05
5e-05
5e-05
5e-05
5e-05
5e-05
5e-05
5e-05
5e-05
5e-05
5e-05
5e-05
5e-05
5e-05
5e-05
5e-05
5e-05
5e-05
-5e-05
-5e-05
-5e-05
-5e-05
-5e-05
-5e-05
-5e-05
-5e-05
-5e-05
-5e-05
-5e-05
-5e-05
-5e-05
-5e-05
-5e-05
-5e-05
-5e-05
-5e-05
-5e-05
-5e-05
0
0
0
0
0
0
0
0
0
0
0
0
0
0
0
0
0
0
0
0
)
;
    }
    frontAndBack
    {
        type            empty;
    }
}


// ************************************************************************* //
