/*--------------------------------*- C++ -*----------------------------------*\
| =========                 |                                                 |
| \\      /  F ield         | OpenFOAM: The Open Source CFD Toolbox           |
|  \\    /   O peration     | Version:  2506                                  |
|   \\  /    A nd           | Website:  www.openfoam.com                      |
|    \\/     M anipulation  |                                                 |
\*---------------------------------------------------------------------------*/
FoamFile
{
    version     2.0;
    format      ascii;
    arch        "LSB;label=32;scalar=64";
    class       volVectorField;
    location    "3";
    object      gradPhi;
}
// * * * * * * * * * * * * * * * * * * * * * * * * * * * * * * * * * * * * * //

dimensions      [0 2 -1 0 0 0 0];

internalField   nonuniform List<vector> 
400
(
(-0.02 5.29095e-12 0)
(7.57353e-13 -7.58303e-13 0)
(8.81543e-13 -8.82732e-13 0)
(7.37835e-13 -7.38807e-13 0)
(6.60583e-13 -6.61228e-13 0)
(6.6617e-13 -6.66547e-13 0)
(5.062e-13 -5.06369e-13 0)
(4.03214e-13 -4.03248e-13 0)
(2.98118e-13 -2.98046e-13 0)
(2.08598e-13 -2.08454e-13 0)
(1.36576e-13 -1.36376e-13 0)
(8.07064e-14 -8.04664e-14 0)
(3.99677e-14 -3.96931e-14 0)
(1.23763e-14 -1.20791e-14 0)
(-4.60905e-15 4.92532e-15 0)
(-1.36799e-14 1.40039e-14 0)
(-1.75246e-14 1.78425e-14 0)
(-1.5814e-14 1.61178e-14 0)
(-5.91103e-15 6.26244e-15 0)
(-1.5948e-15 1.74489e-15 0)
(-0.02 -1.62981e-11 0)
(-2.63745e-11 2.6374e-11 0)
(9.19938e-12 -9.20012e-12 0)
(-3.43256e-12 3.43193e-12 0)
(2.39931e-12 -2.39975e-12 0)
(1.29485e-13 -1.29722e-13 0)
(7.41566e-13 -7.41654e-13 0)
(3.58479e-13 -3.58445e-13 0)
(3.11913e-13 -3.11798e-13 0)
(1.965e-13 -1.96316e-13 0)
(1.29217e-13 -1.28988e-13 0)
(7.26513e-14 -7.2383e-14 0)
(3.35968e-14 -3.33e-14 0)
(7.29739e-15 -6.97879e-15 0)
(-8.50342e-15 8.83889e-15 0)
(-1.67074e-14 1.70464e-14 0)
(-1.93577e-14 1.96933e-14 0)
(-1.66958e-14 1.70324e-14 0)
(-6.37922e-15 6.67895e-15 0)
(-1.87274e-15 2.06849e-15 0)
(-0.02 2.33096e-11 0)
(2.75357e-11 -2.75355e-11 0)
(-1.45399e-11 1.45398e-11 0)
(8.88603e-12 -8.88618e-12 0)
(-1.61791e-12 1.61781e-12 0)
(1.83572e-12 -1.83573e-12 0)
(2.15853e-13 -2.15777e-13 0)
(4.98573e-13 -4.98429e-13 0)
(2.29108e-13 -2.28907e-13 0)
(1.81474e-13 -1.81232e-13 0)
(1.00335e-13 -1.00056e-13 0)
(5.49347e-14 -5.46318e-14 0)
(1.90814e-14 -1.87541e-14 0)
(-2.95303e-15 3.29337e-15 0)
(-1.58256e-14 1.61762e-14 0)
(-2.13694e-14 2.17232e-14 0)
(-2.26151e-14 2.29579e-14 0)
(-1.93296e-14 1.96468e-14 0)
(-7.81189e-15 8.20362e-15 0)
(-1.88763e-15 2.03145e-15 0)
(-0.02 1.49513e-10 0)
(1.37117e-10 -1.37117e-10 0)
(9.904e-13 -9.90078e-13 0)
(8.11983e-12 -8.11962e-12 0)
(1.38565e-12 -1.38548e-12 0)
(8.17453e-13 -8.17248e-13 0)
(5.04689e-13 -5.0446e-13 0)
(3.02439e-13 -3.02178e-13 0)
(1.97071e-13 -1.96783e-13 0)
(1.20006e-13 -1.19695e-13 0)
(6.45763e-14 -6.42498e-14 0)
(2.5727e-14 -2.53826e-14 0)
(-1.34334e-15 1.69728e-15 0)
(-1.76289e-14 1.79941e-14 0)
(-2.60628e-14 2.64299e-14 0)
(-2.87346e-14 2.90955e-14 0)
(-2.71431e-14 2.74973e-14 0)
(-2.12834e-14 2.16502e-14 0)
(-9.19494e-15 9.47637e-15 0)
(-2.42695e-15 2.64826e-15 0)
(-0.02 -2.25876e-10 0)
(-2.06498e-10 2.06499e-10 0)
(-1.29404e-11 1.2941e-11 0)
(-6.46586e-12 6.46633e-12 0)
(-1.26937e-12 1.26979e-12 0)
(1.05371e-12 -1.05331e-12 0)
(6.53588e-14 -6.49764e-14 0)
(2.52833e-13 -2.52454e-13 0)
(7.19349e-14 -7.1558e-14 0)
(5.85677e-14 -5.81872e-14 0)
(1.20967e-14 -1.17146e-14 0)
(-9.45467e-15 9.83679e-15 0)
(-2.70554e-14 2.74417e-14 0)
(-3.56234e-14 3.60068e-14 0)
(-3.84424e-14 3.88232e-14 0)
(-3.6439e-14 3.68158e-14 0)
(-3.22584e-14 3.26113e-14 0)
(-2.52174e-14 2.55303e-14 0)
(-1.13125e-14 1.17499e-14 0)
(-2.48816e-15 2.61858e-15 0)
(-0.02 5.0141e-10 0)
(4.78391e-10 -4.78391e-10 0)
(1.70969e-12 -1.70895e-12 0)
(2.25309e-11 -2.25303e-11 0)
(-3.13427e-13 3.13998e-13 0)
(-3.28485e-13 3.29011e-13 0)
(-8.31217e-14 8.3611e-14 0)
(-8.31151e-14 8.35816e-14 0)
(-1.67918e-15 2.12524e-15 0)
(-3.60998e-14 3.65311e-14 0)
(-3.91587e-14 3.95786e-14 0)
(-5.1042e-14 5.14538e-14 0)
(-5.4675e-14 5.50792e-14 0)
(-5.50555e-14 5.5453e-14 0)
(-5.14275e-14 5.18177e-14 0)
(-4.55181e-14 4.58872e-14 0)
(-3.75954e-14 3.79567e-14 0)
(-2.72539e-14 2.76403e-14 0)
(-1.28312e-14 1.3081e-14 0)
(-3.11847e-15 3.35507e-15 0)
(-0.02 -9.29017e-10 0)
(-9.08453e-10 9.08454e-10 0)
(2.86807e-11 -2.868e-11 0)
(-5.14809e-11 5.14816e-11 0)
(4.81067e-12 -4.81002e-12 0)
(-2.1159e-12 2.11651e-12 0)
(5.43066e-13 -5.42505e-13 0)
(-2.5051e-13 2.51032e-13 0)
(-8.21572e-14 8.26506e-14 0)
(-1.19428e-13 1.19892e-13 0)
(-9.58537e-14 9.62992e-14 0)
(-9.14729e-14 9.18999e-14 0)
(-8.26717e-14 8.30854e-14 0)
(-7.42113e-14 7.46113e-14 0)
(-6.40105e-14 6.43974e-14 0)
(-5.27361e-14 5.31123e-14 0)
(-4.19761e-14 4.23168e-14 0)
(-3.07265e-14 3.10092e-14 0)
(-1.47586e-14 1.52225e-14 0)
(-3.08704e-15 3.19366e-15 0)
(-0.02 1.30161e-09 0)
(1.2726e-09 -1.2726e-09 0)
(-2.98096e-11 2.98104e-11 0)
(6.60234e-11 -6.60226e-11 0)
(-6.17073e-12 6.17141e-12 0)
(1.5178e-12 -1.51718e-12 0)
(-1.19849e-12 1.19907e-12 0)
(-2.25885e-13 2.2642e-13 0)
(-2.53453e-13 2.53952e-13 0)
(-1.72957e-13 1.73424e-13 0)
(-1.50818e-13 1.51259e-13 0)
(-1.27311e-13 1.27734e-13 0)
(-1.08146e-13 1.08547e-13 0)
(-9.05796e-14 9.09664e-14 0)
(-7.42874e-14 7.46597e-14 0)
(-5.9428e-14 5.9771e-14 0)
(-4.53047e-14 4.56356e-14 0)
(-3.10441e-14 3.14227e-14 0)
(-1.54683e-14 1.56556e-14 0)
(-3.57342e-15 3.79985e-15 0)
(-0.02 -1.94277e-09 0)
(-1.90368e-09 1.90368e-09 0)
(6.04619e-11 -6.04612e-11 0)
(-1.05501e-10 1.05502e-10 0)
(1.04752e-11 -1.04746e-11 0)
(-3.81905e-12 3.81964e-12 0)
(1.08206e-12 -1.08151e-12 0)
(-5.00004e-13 5.00511e-13 0)
(-2.08761e-13 2.0923e-13 0)
(-2.58019e-13 2.58458e-13 0)
(-1.91603e-13 1.92016e-13 0)
(-1.59649e-13 1.60039e-13 0)
(-1.28231e-13 1.28604e-13 0)
(-1.03288e-13 1.03643e-13 0)
(-8.13863e-14 8.17243e-14 0)
(-6.20369e-14 6.23643e-14 0)
(-4.60558e-14 4.63434e-14 0)
(-3.21575e-14 3.23693e-14 0)
(-1.62227e-14 1.66599e-14 0)
(-3.23262e-15 3.29679e-15 0)
(-0.02 2.74263e-09 0)
(2.71207e-09 -2.71207e-09 0)
(-1.07144e-10 1.07145e-10 0)
(1.56322e-10 -1.56322e-10 0)
(-1.94384e-11 1.94389e-11 0)
(5.40213e-12 -5.40162e-12 0)
(-2.7194e-12 2.71988e-12 0)
(-1.70288e-13 1.70726e-13 0)
(-5.33015e-13 5.33418e-13 0)
(-2.54939e-13 2.55317e-13 0)
(-2.38122e-13 2.38475e-13 0)
(-1.78731e-13 1.79067e-13 0)
(-1.4272e-13 1.4304e-13 0)
(-1.09689e-13 1.09997e-13 0)
(-8.36098e-14 8.39002e-14 0)
(-6.23446e-14 6.26073e-14 0)
(-4.46049e-14 4.48604e-14 0)
(-2.91068e-14 2.94261e-14 0)
(-1.52102e-14 1.52972e-14 0)
(-3.31369e-15 3.50168e-15 0)
(-0.02 -3.57363e-09 0)
(-3.52433e-09 3.52433e-09 0)
(1.40358e-10 -1.40357e-10 0)
(-2.06011e-10 2.06011e-10 0)
(2.50901e-11 -2.50897e-11 0)
(-8.74841e-12 8.74879e-12 0)
(2.32214e-12 -2.32179e-12 0)
(-8.39507e-13 8.39834e-13 0)
(-1.80507e-13 1.80811e-13 0)
(-3.71275e-13 3.71561e-13 0)
(-2.43011e-13 2.43282e-13 0)
(-1.99228e-13 1.99487e-13 0)
(-1.46732e-13 1.46981e-13 0)
(-1.10185e-13 1.10422e-13 0)
(-8.03325e-14 8.05575e-14 0)
(-5.68538e-14 5.70727e-14 0)
(-3.92596e-14 3.9448e-14 0)
(-2.62382e-14 2.63385e-14 0)
(-1.39463e-14 1.42999e-14 0)
(-2.49478e-15 2.49994e-15 0)
(-0.02 4.43794e-09 0)
(4.3876e-09 -4.3876e-09 0)
(-1.7769e-10 1.7769e-10 0)
(2.61807e-10 -2.61806e-10 0)
(-3.65545e-11 3.65547e-11 0)
(9.88026e-12 -9.88004e-12 0)
(-4.99826e-12 4.99846e-12 0)
(-1.05722e-13 1.05908e-13 0)
(-8.00478e-13 8.00656e-13 0)
(-2.91945e-13 2.92117e-13 0)
(-2.88585e-13 2.88753e-13 0)
(-1.91858e-13 1.92023e-13 0)
(-1.44652e-13 1.44814e-13 0)
(-1.00977e-13 1.01135e-13 0)
(-7.03286e-14 7.04839e-14 0)
(-4.76241e-14 4.77578e-14 0)
(-3.09614e-14 3.10956e-14 0)
(-1.86248e-14 1.88412e-14 0)
(-1.04837e-14 1.0453e-14 0)
(-2.01336e-15 2.13541e-15 0)
(-0.02 -5.09082e-09 0)
(-4.96252e-09 4.96252e-09 0)
(1.64585e-10 -1.64585e-10 0)
(-3.18059e-10 3.18059e-10 0)
(3.88171e-11 -3.88171e-11 0)
(-1.50412e-11 1.50412e-11 0)
(3.94619e-12 -3.94617e-12 0)
(-1.26969e-12 1.26972e-12 0)
(-5.99838e-14 6.00154e-14 0)
(-4.51839e-13 4.51883e-13 0)
(-2.43009e-13 2.4306e-13 0)
(-1.96077e-13 1.96138e-13 0)
(-1.2571e-13 1.25774e-13 0)
(-8.41623e-14 8.42345e-14 0)
(-5.27956e-14 5.28672e-14 0)
(-3.15503e-14 3.16295e-14 0)
(-1.79002e-14 1.79638e-14 0)
(-1.05432e-14 1.05214e-14 0)
(-6.47186e-15 6.6974e-15 0)
(-7.27919e-16 6.84528e-16 0)
(-0.02 5.08705e-09 0)
(4.90173e-09 -4.90173e-09 0)
(-1.19087e-10 1.19086e-10 0)
(3.40767e-10 -3.40767e-10 0)
(-4.37318e-11 4.37317e-11 0)
(1.58965e-11 -1.58966e-11 0)
(-6.77776e-12 6.7776e-12 0)
(2.37583e-13 -2.37713e-13 0)
(-1.10681e-12 1.1067e-12 0)
(-2.58094e-13 2.58011e-13 0)
(-2.88509e-13 2.88443e-13 0)
(-1.48788e-13 1.48746e-13 0)
(-9.94999e-14 9.94714e-14 0)
(-5.32489e-14 5.3237e-14 0)
(-2.70852e-14 2.70796e-14 0)
(-1.07351e-14 1.07296e-14 0)
(-1.74204e-15 1.75215e-15 0)
(2.10104e-15 -1.9997e-15 0)
(-1.70399e-16 4.40187e-17 0)
(3.09366e-16 -2.65908e-16 0)
(-0.02 -4.42171e-09 0)
(-4.19299e-09 4.19299e-09 0)
(4.43402e-11 -4.43406e-11 0)
(-2.90458e-10 2.90458e-10 0)
(3.1902e-11 -3.19024e-11 0)
(-1.59939e-11 1.59936e-11 0)
(3.97797e-12 -3.97828e-12 0)
(-1.7324e-12 1.73211e-12 0)
(-7.71098e-15 7.46967e-15 0)
(-4.63109e-13 4.62894e-13 0)
(-1.6917e-13 1.69e-13 0)
(-1.19638e-13 1.19491e-13 0)
(-4.52782e-14 4.51659e-14 0)
(-1.2861e-14 1.27648e-14 0)
(7.663e-15 -7.73776e-15 0)
(1.66065e-14 -1.66607e-14 0)
(1.89044e-14 -1.89437e-14 0)
(1.53359e-14 -1.54455e-14 0)
(6.66873e-15 -6.58933e-15 0)
(1.97365e-15 -2.04994e-15 0)
(-0.02 4.19986e-09 0)
(4.07038e-09 -4.07038e-09 0)
(-1.16158e-10 1.16158e-10 0)
(2.88982e-10 -2.88983e-10 0)
(-4.78297e-11 4.78292e-11 0)
(1.30748e-11 -1.30753e-11 0)
(-7.77587e-12 7.77542e-12 0)
(3.4396e-13 -3.44365e-13 0)
(-1.14513e-12 1.14477e-12 0)
(-1.05929e-13 1.0562e-13 0)
(-1.50666e-13 1.50403e-13 0)
(-8.15931e-15 7.93606e-15 0)
(1.93908e-14 -1.95798e-14 0)
(4.47025e-14 -4.48638e-14 0)
(4.97466e-14 -4.98806e-14 0)
(4.77366e-14 -4.78489e-14 0)
(4.11109e-14 -4.11899e-14 0)
(3.1375e-14 -3.13766e-14 0)
(1.49769e-14 -1.51518e-14 0)
(3.55522e-15 -3.59936e-15 0)
(-0.02 -3.94286e-09 0)
(-3.80541e-09 3.80541e-09 0)
(1.48895e-10 -1.48896e-10 0)
(-3.11926e-10 3.11925e-10 0)
(4.33667e-11 -4.33674e-11 0)
(-2.18601e-11 2.18596e-11 0)
(5.61894e-12 -5.61951e-12 0)
(-2.47667e-12 2.47618e-12 0)
(4.2595e-13 -4.26413e-13 0)
(-2.44113e-13 2.43727e-13 0)
(1.1939e-13 -1.19751e-13 0)
(8.5825e-14 -8.61207e-14 0)
(1.19764e-13 -1.20037e-13 0)
(1.08061e-13 -1.08287e-13 0)
(9.76735e-14 -9.7879e-14 0)
(8.14591e-14 -8.16179e-14 0)
(6.50644e-14 -6.5193e-14 0)
(4.63767e-14 -4.65521e-14 0)
(2.22925e-14 -2.23954e-14 0)
(5.29065e-15 -5.42162e-15 0)
(-0.02 1.91286e-09 0)
(1.75826e-09 -1.75826e-09 0)
(9.3884e-11 -9.38847e-11 0)
(7.01682e-11 -7.01689e-11 0)
(-5.42734e-12 5.42667e-12 0)
(-3.4702e-12 3.46955e-12 0)
(-2.15547e-12 2.15488e-12 0)
(-3.78404e-13 3.77846e-13 0)
(2.47951e-13 -2.48444e-13 0)
(3.31916e-13 -3.32374e-13 0)
(3.15232e-13 -3.15633e-13 0)
(2.5763e-13 -2.57997e-13 0)
(2.17337e-13 -2.17659e-13 0)
(1.77412e-13 -1.77705e-13 0)
(1.43921e-13 -1.44175e-13 0)
(1.13018e-13 -1.13238e-13 0)
(8.582e-14 -8.60035e-14 0)
(5.94147e-14 -5.95642e-14 0)
(2.83938e-14 -2.86691e-14 0)
(6.77461e-15 -6.92269e-15 0)
(-0.02 -2.54682e-09 0)
(-2.61968e-09 2.61968e-09 0)
(2.29666e-10 -2.29667e-10 0)
(-2.10774e-10 2.10774e-10 0)
(5.12583e-11 -5.12589e-11 0)
(-1.11211e-11 1.11205e-11 0)
(8.88467e-12 -8.88523e-12 0)
(5.33106e-13 -5.33642e-13 0)
(1.72093e-12 -1.72141e-12 0)
(6.29096e-13 -6.29549e-13 0)
(5.94556e-13 -5.94959e-13 0)
(3.90859e-13 -3.91235e-13 0)
(3.10161e-13 -3.10497e-13 0)
(2.34335e-13 -2.34646e-13 0)
(1.81804e-13 -1.82085e-13 0)
(1.3807e-13 -1.38307e-13 0)
(1.03121e-13 -1.03317e-13 0)
(7.13294e-14 -7.15797e-14 0)
(3.49997e-14 -3.52852e-14 0)
(7.63322e-15 -7.77571e-15 0)
(-0.02 2.32833e-09 0)
(2.40349e-09 -2.40349e-09 0)
(-3.46283e-10 3.46283e-10 0)
(2.79765e-10 -2.79765e-10 0)
(-4.78126e-11 4.78123e-11 0)
(3.22248e-11 -3.2225e-11 0)
(-2.69959e-12 2.69932e-12 0)
(5.10316e-12 -5.1034e-12 0)
(8.78209e-13 -8.78441e-13 0)
(1.30342e-12 -1.30363e-12 0)
(6.28646e-13 -6.28841e-13 0)
(5.15461e-13 -5.15636e-13 0)
(3.50018e-13 -3.50182e-13 0)
(2.69049e-13 -2.69198e-13 0)
(2.00793e-13 -2.00924e-13 0)
(1.51837e-13 -1.51944e-13 0)
(1.13221e-13 -1.13328e-13 0)
(8.08883e-14 -8.10283e-14 0)
(4.15476e-14 -4.16911e-14 0)
(7.54389e-15 -7.54338e-15 0)
)
;

boundaryField
{
    movingWall
    {
        type            extrapolatedCalculated;
        value           nonuniform List<vector> 
20
(
(-0.02 2.32833e-09 0)
(2.40349e-09 -2.40349e-09 0)
(-3.46283e-10 3.46283e-10 0)
(2.79765e-10 -2.79765e-10 0)
(-4.78126e-11 4.78123e-11 0)
(3.22248e-11 -3.2225e-11 0)
(-2.69959e-12 2.69932e-12 0)
(5.10316e-12 -5.1034e-12 0)
(8.78209e-13 -8.78441e-13 0)
(1.30342e-12 -1.30363e-12 0)
(6.28646e-13 -6.28841e-13 0)
(5.15461e-13 -5.15636e-13 0)
(3.50018e-13 -3.50182e-13 0)
(2.69049e-13 -2.69198e-13 0)
(2.00793e-13 -2.00924e-13 0)
(1.51837e-13 -1.51944e-13 0)
(1.13221e-13 -1.13328e-13 0)
(8.08883e-14 -8.10283e-14 0)
(4.15476e-14 -4.16911e-14 0)
(7.54389e-15 -7.54338e-15 0)
)
;
    }
    fixedWalls
    {
        type            extrapolatedCalculated;
        value           nonuniform List<vector> 
60
(
(-0.02 5.29095e-12 0)
(-0.02 -1.62981e-11 0)
(-0.02 2.33096e-11 0)
(-0.02 1.49513e-10 0)
(-0.02 -2.25876e-10 0)
(-0.02 5.0141e-10 0)
(-0.02 -9.29017e-10 0)
(-0.02 1.30161e-09 0)
(-0.02 -1.94277e-09 0)
(-0.02 2.74263e-09 0)
(-0.02 -3.57363e-09 0)
(-0.02 4.43794e-09 0)
(-0.02 -5.09082e-09 0)
(-0.02 5.08705e-09 0)
(-0.02 -4.42171e-09 0)
(-0.02 4.19986e-09 0)
(-0.02 -3.94286e-09 0)
(-0.02 1.91286e-09 0)
(-0.02 -2.54682e-09 0)
(-0.02 2.32833e-09 0)
(-1.5948e-15 1.74489e-15 0)
(-1.87274e-15 2.06849e-15 0)
(-1.88763e-15 2.03145e-15 0)
(-2.42695e-15 2.64826e-15 0)
(-2.48816e-15 2.61858e-15 0)
(-3.11847e-15 3.35507e-15 0)
(-3.08704e-15 3.19366e-15 0)
(-3.57342e-15 3.79985e-15 0)
(-3.23262e-15 3.29679e-15 0)
(-3.31369e-15 3.50168e-15 0)
(-2.49478e-15 2.49994e-15 0)
(-2.01336e-15 2.13541e-15 0)
(-7.27919e-16 6.84528e-16 0)
(3.09366e-16 -2.65908e-16 0)
(1.97365e-15 -2.04994e-15 0)
(3.55522e-15 -3.59936e-15 0)
(5.29065e-15 -5.42162e-15 0)
(6.77461e-15 -6.92269e-15 0)
(7.63322e-15 -7.77571e-15 0)
(7.54389e-15 -7.54338e-15 0)
(-0.02 5.29095e-12 0)
(7.57353e-13 -7.58303e-13 0)
(8.81543e-13 -8.82732e-13 0)
(7.37835e-13 -7.38807e-13 0)
(6.60583e-13 -6.61228e-13 0)
(6.6617e-13 -6.66547e-13 0)
(5.062e-13 -5.06369e-13 0)
(4.03214e-13 -4.03248e-13 0)
(2.98118e-13 -2.98046e-13 0)
(2.08598e-13 -2.08454e-13 0)
(1.36576e-13 -1.36376e-13 0)
(8.07064e-14 -8.04664e-14 0)
(3.99677e-14 -3.96931e-14 0)
(1.23763e-14 -1.20791e-14 0)
(-4.60905e-15 4.92532e-15 0)
(-1.36799e-14 1.40039e-14 0)
(-1.75246e-14 1.78425e-14 0)
(-1.5814e-14 1.61178e-14 0)
(-5.91103e-15 6.26244e-15 0)
(-1.5948e-15 1.74489e-15 0)
)
;
    }
    frontAndBack
    {
        type            empty;
    }
}


// ************************************************************************* //
