/*--------------------------------*- C++ -*----------------------------------*\
| =========                 |                                                 |
| \\      /  F ield         | OpenFOAM: The Open Source CFD Toolbox           |
|  \\    /   O peration     | Version:  2506                                  |
|   \\  /    A nd           | Website:  www.openfoam.com                      |
|    \\/     M anipulation  |                                                 |
\*---------------------------------------------------------------------------*/
FoamFile
{
    version     2.0;
    format      ascii;
    arch        "LSB;label=32;scalar=64";
    class       volTensorField;
    location    "3";
    object      gradU;
}
// * * * * * * * * * * * * * * * * * * * * * * * * * * * * * * * * * * * * * //

dimensions      [0 0 -1 0 0 0 0];

internalField   nonuniform List<tensor> 
400
(
(-4.10631e-06 2.65191e-05 0 -7.35496e-06 -8.79845e-07 0 0 0 0)
(5.02749e-06 -3.28653e-05 0 1.90915e-06 2.48328e-07 0 0 0 0)
(-1.38585e-06 7.85019e-06 0 -8.17206e-07 -7.3853e-08 0 0 0 0)
(5.22881e-07 -1.87509e-06 0 1.65393e-07 7.78767e-09 0 0 0 0)
(-1.43731e-07 4.52838e-07 0 -1.33676e-07 -2.04301e-08 0 0 0 0)
(6.56075e-08 -1.08728e-07 0 -1.16351e-08 -1.0488e-08 0 0 0 0)
(-6.58084e-09 2.76821e-08 0 -3.57762e-08 -1.12531e-08 0 0 0 0)
(1.35076e-08 -5.49403e-09 0 -1.42519e-08 -7.92982e-09 0 0 0 0)
(4.17112e-09 2.5617e-09 0 -1.14248e-08 -6.09812e-09 0 0 0 0)
(4.73561e-09 4.07271e-10 0 -5.13692e-09 -4.1663e-09 0 0 0 0)
(2.54137e-09 7.35849e-10 0 -2.31813e-09 -2.73708e-09 0 0 0 0)
(1.6736e-09 4.58006e-10 0 -1.55176e-10 -1.60442e-09 0 0 0 0)
(7.8274e-10 3.48014e-10 0 8.60721e-10 -7.89134e-10 0 0 0 0)
(2.55682e-10 2.22269e-10 0 1.28665e-09 -2.36253e-10 0 0 0 0)
(-9.15338e-11 1.33605e-10 0 1.26987e-09 1.03339e-10 0 0 0 0)
(-2.72921e-10 6.78515e-11 0 1.02812e-09 2.85809e-10 0 0 0 0)
(-3.58031e-10 8.24892e-12 0 6.62095e-10 3.60911e-10 0 0 0 0)
(-3.12928e-10 -5.70788e-11 0 2.71837e-10 3.22621e-10 0 0 0 0)
(-1.1273e-10 -6.75144e-11 0 2.2958e-11 1.26681e-10 0 0 0 0)
(-2.64816e-11 -4.11563e-11 0 3.67545e-11 3.78174e-11 0 0 0 0)
(-1.3395e-06 -2.71506e-05 0 -7.99998e-06 2.74734e-06 0 0 0 0)
(1.51026e-06 3.36713e-05 0 2.30013e-06 -2.08414e-07 0 0 0 0)
(-3.57907e-07 -8.09073e-06 0 -8.06699e-07 1.98254e-08 0 0 0 0)
(1.60648e-07 1.92851e-06 0 2.30577e-07 -4.28978e-10 0 0 0 0)
(-3.3297e-08 -4.71114e-07 0 -7.77356e-08 -2.5253e-08 0 0 0 0)
(3.22924e-08 1.17905e-07 0 2.36358e-08 -1.15683e-08 0 0 0 0)
(3.96401e-09 -2.51239e-08 0 -5.00042e-09 -1.2176e-08 0 0 0 0)
(1.08437e-08 1.0649e-08 0 4.09826e-09 -7.98876e-09 0 0 0 0)
(4.94393e-09 1.20182e-09 0 1.17579e-09 -5.96443e-09 0 0 0 0)
(4.37102e-09 2.95378e-09 0 1.59616e-09 -3.97696e-09 0 0 0 0)
(2.44032e-09 1.82603e-09 0 1.01576e-09 -2.54417e-09 0 0 0 0)
(1.50528e-09 1.48994e-09 0 7.87646e-10 -1.4426e-09 0 0 0 0)
(6.59114e-10 1.02016e-09 0 5.3565e-10 -6.56882e-10 0 0 0 0)
(1.53523e-10 6.70205e-10 0 3.64075e-10 -1.34213e-10 0 0 0 0)
(-1.67048e-10 3.88457e-10 0 2.31558e-10 1.8052e-10 0 0 0 0)
(-3.34829e-10 1.8972e-10 0 1.40377e-10 3.39981e-10 0 0 0 0)
(-3.98255e-10 2.85634e-11 0 7.81439e-11 3.95126e-10 0 0 0 0)
(-3.26236e-10 -1.77151e-10 0 3.4586e-11 3.48365e-10 0 0 0 0)
(-1.22352e-10 -2.17289e-10 0 9.16151e-12 1.37182e-10 0 0 0 0)
(-3.32308e-11 -1.23342e-10 0 -1.38236e-12 4.04573e-11 0 0 0 0)
(-9.80616e-06 2.9058e-05 0 -5.13109e-06 -4.33439e-06 0 0 0 0)
(1.22208e-05 -3.55928e-05 0 8.00308e-07 2.71407e-08 0 0 0 0)
(-3.45541e-06 8.05817e-06 0 -4.13292e-07 -4.42169e-08 0 0 0 0)
(1.25184e-06 -1.92017e-06 0 5.09503e-08 -9.82e-08 0 0 0 0)
(-3.50673e-07 4.41699e-07 0 -2.07396e-08 9.35793e-12 0 0 0 0)
(1.38343e-07 -9.56506e-08 0 9.80498e-09 -2.56549e-08 0 0 0 0)
(-2.61184e-08 3.12617e-08 0 3.93262e-09 -7.81221e-09 0 0 0 0)
(1.96839e-08 7.17554e-10 0 4.69991e-09 -8.74484e-09 0 0 0 0)
(1.66902e-09 6.5735e-09 0 3.31397e-09 -4.83342e-09 0 0 0 0)
(4.57563e-09 3.82753e-09 0 2.52389e-09 -3.49105e-09 0 0 0 0)
(1.73288e-09 3.27022e-09 0 1.79208e-09 -2.00753e-09 0 0 0 0)
(1.19346e-09 2.3453e-09 0 1.25472e-09 -1.07257e-09 0 0 0 0)
(3.59115e-10 1.6564e-09 0 8.50746e-10 -3.69356e-10 0 0 0 0)
(-4.84096e-11 1.05967e-09 0 5.58283e-10 7.10215e-11 0 0 0 0)
(-3.15205e-10 6.07798e-10 0 3.51444e-10 3.27234e-10 0 0 0 0)
(-4.26363e-10 2.82458e-10 0 2.08221e-10 4.41334e-10 0 0 0 0)
(-4.63849e-10 1.66335e-11 0 1.09098e-10 4.61187e-10 0 0 0 0)
(-3.81883e-10 -3.15023e-10 0 4.93312e-11 3.86908e-10 0 0 0 0)
(-1.48671e-10 -3.75422e-10 0 1.71575e-11 1.62131e-10 0 0 0 0)
(-3.42608e-11 -2.18796e-10 0 -1.97867e-12 4.46797e-11 0 0 0 0)
(-5.67027e-06 -3.14579e-05 0 1.11176e-05 9.24534e-06 0 0 0 0)
(6.22805e-06 3.79614e-05 0 -2.06837e-06 -2.12294e-06 0 0 0 0)
(-1.10726e-06 -8.21607e-06 0 1.00197e-06 4.51608e-07 0 0 0 0)
(5.53201e-07 1.97274e-06 0 -1.57135e-07 -1.74172e-07 0 0 0 0)
(-7.44423e-08 -3.98568e-07 0 9.03477e-08 9.23274e-09 0 0 0 0)
(5.69646e-08 1.10083e-07 0 -6.5707e-09 -2.511e-08 0 0 0 0)
(-1.1411e-09 -8.2139e-09 0 1.53566e-08 -6.26255e-09 0 0 0 0)
(1.02251e-08 1.36278e-08 0 4.89756e-09 -6.87318e-09 0 0 0 0)
(2.76783e-09 6.45561e-09 0 5.38572e-09 -3.54649e-09 0 0 0 0)
(2.84915e-09 5.77966e-09 0 3.24599e-09 -2.44817e-09 0 0 0 0)
(1.17118e-09 4.24451e-09 0 2.44095e-09 -1.24135e-09 0 0 0 0)
(5.63948e-10 3.12812e-09 0 1.62037e-09 -5.05862e-10 0 0 0 0)
(-3.72694e-11 2.16374e-09 0 1.10106e-09 4.16201e-11 0 0 0 0)
(-3.45806e-10 1.36679e-09 0 7.09014e-10 3.63921e-10 0 0 0 0)
(-5.17137e-10 7.5877e-10 0 4.42273e-10 5.31439e-10 0 0 0 0)
(-5.77148e-10 3.23673e-10 0 2.57661e-10 5.79077e-10 0 0 0 0)
(-5.57117e-10 -2.58631e-11 0 1.37829e-10 5.50768e-10 0 0 0 0)
(-4.18204e-10 -4.76207e-10 0 6.19893e-11 4.41839e-10 0 0 0 0)
(-1.73689e-10 -5.59518e-10 0 1.90549e-11 1.93995e-10 0 0 0 0)
(-4.84096e-11 -3.30153e-10 0 -2.57498e-12 5.00568e-11 0 0 0 0)
(-7.56964e-07 3.61804e-05 0 8.27703e-07 -1.27e-05 0 0 0 0)
(2.10518e-06 -4.43865e-05 0 -1.53942e-06 1.91196e-06 0 0 0 0)
(-1.54418e-06 1.00069e-05 0 3.59921e-07 -4.32252e-07 0 0 0 0)
(3.40222e-07 -2.36254e-06 0 -2.01546e-07 1.67368e-08 0 0 0 0)
(-2.00109e-07 5.90761e-07 0 1.03239e-07 -8.01189e-09 0 0 0 0)
(6.33515e-08 -1.11146e-07 0 -6.83037e-09 -1.08294e-08 0 0 0 0)
(-1.46502e-08 4.94985e-08 0 2.24264e-08 -2.90968e-09 0 0 0 0)
(9.71307e-09 3.43362e-09 0 5.38201e-09 -3.855e-09 0 0 0 0)
(1.74828e-11 1.09985e-08 0 6.88379e-09 -1.67169e-09 0 0 0 0)
(1.63083e-09 6.13267e-09 0 3.66905e-09 -1.0626e-09 0 0 0 0)
(1.072e-10 5.21252e-09 0 2.8723e-09 -2.55465e-10 0 0 0 0)
(-1.46422e-10 3.62827e-09 0 1.82647e-09 2.09189e-10 0 0 0 0)
(-5.52238e-10 2.52618e-09 0 1.2409e-09 5.49242e-10 0 0 0 0)
(-7.07198e-10 1.54949e-09 0 7.80978e-10 7.21286e-10 0 0 0 0)
(-7.66531e-10 8.22954e-10 0 4.82226e-10 7.76789e-10 0 0 0 0)
(-7.30806e-10 3.01787e-10 0 2.76526e-10 7.42168e-10 0 0 0 0)
(-6.59574e-10 -1.20604e-10 0 1.41922e-10 6.53665e-10 0 0 0 0)
(-5.00603e-10 -6.71795e-10 0 6.30735e-11 5.02054e-10 0 0 0 0)
(-2.13208e-10 -7.67205e-10 0 2.24701e-11 2.30391e-10 0 0 0 0)
(-5.07678e-11 -4.62848e-10 0 -3.06287e-12 5.61181e-11 0 0 0 0)
(-6.38199e-06 -4.22459e-05 0 3.52958e-05 2.12377e-05 0 0 0 0)
(5.76027e-06 5.02292e-05 0 -7.42611e-06 -3.77039e-06 0 0 0 0)
(2.30608e-07 -1.01113e-05 0 3.10258e-06 8.71865e-07 0 0 0 0)
(2.96519e-07 2.39698e-06 0 -6.36853e-07 -1.03899e-07 0 0 0 0)
(1.20274e-07 -4.26135e-07 0 2.65089e-07 2.20448e-08 0 0 0 0)
(-2.38481e-08 1.15185e-07 0 -4.80364e-08 1.57531e-09 0 0 0 0)
(1.10713e-08 -1.23946e-09 0 3.16417e-08 -1.23033e-09 0 0 0 0)
(-5.31752e-09 1.48658e-08 0 2.76745e-09 7.11639e-10 0 0 0 0)
(1.0549e-09 9.24801e-09 0 7.77541e-09 3.60007e-11 0 0 0 0)
(-1.16235e-09 7.19588e-09 0 3.6601e-09 6.74433e-10 0 0 0 0)
(-6.71365e-10 5.5163e-09 0 3.00473e-09 8.01673e-10 0 0 0 0)
(-1.06748e-09 3.93282e-09 0 1.85016e-09 1.02124e-09 0 0 0 0)
(-1.08279e-09 2.67584e-09 0 1.24529e-09 1.10133e-09 0 0 0 0)
(-1.10448e-09 1.59434e-09 0 7.6588e-10 1.10911e-09 0 0 0 0)
(-1.02156e-09 7.79652e-10 0 4.62222e-10 1.03661e-09 0 0 0 0)
(-9.17452e-10 2.00549e-10 0 2.57471e-10 9.11243e-10 0 0 0 0)
(-7.7057e-10 -2.65977e-10 0 1.31622e-10 7.56721e-10 0 0 0 0)
(-5.37683e-10 -8.99481e-10 0 5.88993e-11 5.61348e-10 0 0 0 0)
(-2.39798e-10 -1.00545e-09 0 2.07354e-11 2.66036e-10 0 0 0 0)
(-6.78168e-11 -6.16662e-10 0 -3.52366e-12 6.20215e-11 0 0 0 0)
(2.71127e-05 5.36478e-05 0 -2.56396e-05 -3.25103e-05 0 0 0 0)
(-3.0088e-05 -6.47524e-05 0 4.35385e-06 7.23385e-06 0 0 0 0)
(5.24508e-06 1.36734e-05 0 -2.00368e-06 -1.7029e-06 0 0 0 0)
(-2.49727e-06 -3.21236e-06 0 3.29152e-07 4.22957e-07 0 0 0 0)
(3.88708e-07 6.96235e-07 0 -1.0728e-07 -8.54629e-08 0 0 0 0)
(-1.70096e-07 -1.34421e-07 0 4.13577e-08 3.18038e-08 0 0 0 0)
(3.61537e-08 4.86348e-08 0 4.31678e-09 -2.09438e-09 0 0 0 0)
(-1.41532e-08 4.69995e-09 0 9.75934e-09 4.80579e-09 0 0 0 0)
(9.10161e-10 1.09613e-08 0 5.24217e-09 1.94555e-09 0 0 0 0)
(-3.13993e-09 6.89834e-09 0 3.9884e-09 2.29248e-09 0 0 0 0)
(-1.70269e-09 5.55933e-09 0 2.61604e-09 1.91633e-09 0 0 0 0)
(-1.90584e-09 3.92792e-09 0 1.72694e-09 1.82515e-09 0 0 0 0)
(-1.63655e-09 2.61405e-09 0 1.08813e-09 1.65713e-09 0 0 0 0)
(-1.49024e-09 1.48477e-09 0 6.5662e-10 1.48695e-09 0 0 0 0)
(-1.27499e-09 6.25091e-10 0 3.77058e-10 1.28426e-09 0 0 0 0)
(-1.06141e-09 2.19019e-11 0 2.00957e-10 1.06635e-09 0 0 0 0)
(-8.58065e-10 -4.70499e-10 0 9.47051e-11 8.46619e-10 0 0 0 0)
(-6.11517e-10 -1.16248e-09 0 4.17418e-11 6.08522e-10 0 0 0 0)
(-2.75686e-10 -1.26653e-09 0 1.84856e-11 2.96851e-10 0 0 0 0)
(-6.79524e-11 -7.90905e-10 0 -3.90313e-12 6.6685e-11 0 0 0 0)
(-2.76677e-05 -6.75224e-05 0 3.18578e-05 4.37168e-05 0 0 0 0)
(2.93962e-05 8.10366e-05 0 -5.25049e-06 -8.67972e-06 0 0 0 0)
(-3.79409e-06 -1.69222e-05 0 2.5216e-06 2.0449e-06 0 0 0 0)
(2.19292e-06 4.01441e-06 0 -3.57415e-07 -3.69221e-07 0 0 0 0)
(-1.67521e-07 -8.17288e-07 0 1.57271e-07 8.90086e-08 0 0 0 0)
(8.77486e-08 1.98554e-07 0 -2.39636e-08 -4.2809e-09 0 0 0 0)
(-2.05271e-08 -2.82375e-08 0 1.62806e-08 8.01029e-09 0 0 0 0)
(-4.39216e-09 1.89057e-08 0 4.05931e-09 5.30875e-09 0 0 0 0)
(-4.71609e-09 6.7347e-09 0 5.24973e-09 4.19842e-09 0 0 0 0)
(-3.78842e-09 7.16666e-09 0 3.14882e-09 3.63337e-09 0 0 0 0)
(-2.93282e-09 5.04897e-09 0 2.19792e-09 2.97829e-09 0 0 0 0)
(-2.59539e-09 3.67363e-09 0 1.35493e-09 2.55723e-09 0 0 0 0)
(-2.15312e-09 2.33765e-09 0 8.12393e-10 2.16145e-09 0 0 0 0)
(-1.81555e-09 1.22147e-09 0 4.5035e-10 1.81691e-09 0 0 0 0)
(-1.47723e-09 3.59052e-10 0 2.30881e-10 1.49049e-09 0 0 0 0)
(-1.19983e-09 -2.37087e-10 0 1.04734e-10 1.1856e-09 0 0 0 0)
(-9.29785e-10 -7.23807e-10 0 4.11455e-11 9.07247e-10 0 0 0 0)
(-6.13875e-10 -1.44925e-09 0 1.8567e-11 6.36139e-10 0 0 0 0)
(-2.8547e-10 -1.54729e-09 0 1.17094e-11 3.17105e-10 0 0 0 0)
(-8.23723e-11 -9.80198e-10 0 -4.63496e-12 6.89396e-11 0 0 0 0)
(5.372e-05 8.86848e-05 0 -5.81979e-05 -6.15335e-05 0 0 0 0)
(-5.94242e-05 -0.000106424 0 1.13691e-05 1.30236e-05 0 0 0 0)
(1.01382e-05 2.19839e-05 0 -4.88464e-06 -3.03016e-06 0 0 0 0)
(-4.8616e-06 -5.16825e-06 0 9.41578e-07 6.37327e-07 0 0 0 0)
(7.22159e-07 1.06118e-06 0 -3.30624e-07 -1.24869e-07 0 0 0 0)
(-3.11087e-07 -2.15419e-07 0 9.53022e-08 3.87523e-08 0 0 0 0)
(6.41766e-08 5.82245e-08 0 -1.69466e-08 4.58806e-09 0 0 0 0)
(-2.51841e-08 8.88083e-10 0 1.29153e-08 8.3208e-09 0 0 0 0)
(-3.52366e-13 9.28593e-09 0 1.81336e-09 5.85227e-09 0 0 0 0)
(-6.19172e-09 5.67821e-09 0 2.97898e-09 4.80062e-09 0 0 0 0)
(-3.49658e-09 4.48319e-09 0 1.33045e-09 3.89912e-09 0 0 0 0)
(-3.29142e-09 3.11108e-09 0 8.77824e-10 3.16496e-09 0 0 0 0)
(-2.5411e-09 1.87373e-09 0 3.98742e-10 2.57134e-09 0 0 0 0)
(-2.07175e-09 8.13808e-10 0 1.61194e-10 2.06371e-09 0 0 0 0)
(-1.62061e-09 -6.22338e-12 0 2.67798e-11 1.62855e-09 0 0 0 0)
(-1.25112e-09 -5.6134e-10 0 -2.50451e-11 1.24985e-09 0 0 0 0)
(-9.44259e-10 -1.01996e-09 0 -3.43963e-11 9.26165e-10 0 0 0 0)
(-6.40953e-10 -1.75262e-09 0 -1.5992e-11 6.33472e-10 0 0 0 0)
(-2.9886e-10 -1.83373e-09 0 3.33392e-12 3.23072e-10 0 0 0 0)
(-7.50539e-11 -1.17695e-09 0 -5.23128e-12 6.7612e-11 0 0 0 0)
(-7.44965e-05 -0.000116032 0 6.41927e-05 8.15726e-05 0 0 0 0)
(8.27095e-05 0.00013954 0 -1.23593e-05 -1.85228e-05 0 0 0 0)
(-1.42216e-05 -2.93085e-05 0 5.39443e-06 4.34177e-06 0 0 0 0)
(6.74693e-06 6.9197e-06 0 -9.91849e-07 -9.80106e-07 0 0 0 0)
(-1.0138e-06 -1.41586e-06 0 3.79549e-07 2.33442e-07 0 0 0 0)
(4.01426e-07 3.28011e-07 0 -8.36041e-08 -4.11481e-08 0 0 0 0)
(-1.02914e-07 -5.8669e-08 0 2.99442e-08 2.17681e-08 0 0 0 0)
(1.43678e-08 2.01699e-08 0 -4.50155e-09 6.24014e-09 0 0 0 0)
(-1.46523e-08 3.21452e-09 0 4.198e-09 7.74349e-09 0 0 0 0)
(-4.27135e-09 5.21352e-09 0 7.70542e-10 5.66171e-09 0 0 0 0)
(-5.03403e-09 3.41331e-09 0 7.83363e-10 4.62951e-09 0 0 0 0)
(-3.52707e-09 2.34585e-09 0 1.33032e-10 3.62577e-09 0 0 0 0)
(-2.86972e-09 1.23639e-09 0 -8.19115e-11 2.84452e-09 0 0 0 0)
(-2.18754e-09 2.78677e-10 0 -2.11501e-10 2.19972e-09 0 0 0 0)
(-1.66341e-09 -4.54808e-10 0 -2.24077e-10 1.67378e-09 0 0 0 0)
(-1.26104e-09 -9.39475e-10 0 -1.87052e-10 1.24061e-09 0 0 0 0)
(-9.20732e-10 -1.34018e-09 0 -1.24277e-10 8.89471e-10 0 0 0 0)
(-5.76145e-10 -2.05234e-09 0 -5.51046e-11 5.95186e-10 0 0 0 0)
(-2.7471e-10 -2.11315e-09 0 -7.48099e-12 3.09578e-10 0 0 0 0)
(-8.04749e-11 -1.37088e-09 0 -5.99022e-12 6.16705e-11 0 0 0 0)
(0.000105553 0.000151735 0 -7.16333e-05 -9.98594e-05 0 0 0 0)
(-0.000118222 -0.000183655 0 1.41894e-05 2.28232e-05 0 0 0 0)
(2.15056e-05 3.95266e-05 0 -6.1032e-06 -5.40078e-06 0 0 0 0)
(-9.87648e-06 -9.27658e-06 0 1.22271e-06 1.22232e-06 0 0 0 0)
(1.6304e-06 2.00013e-06 0 -4.14603e-07 -2.62775e-07 0 0 0 0)
(-6.60691e-07 -4.27093e-07 0 1.22739e-07 7.67208e-08 0 0 0 0)
(1.43279e-07 1.05613e-07 0 -2.4145e-08 -1.11791e-09 0 0 0 0)
(-5.09302e-08 -1.31365e-08 0 1.22301e-08 1.32391e-08 0 0 0 0)
(5.27172e-09 8.70749e-09 0 -1.2738e-09 7.73623e-09 0 0 0 0)
(-9.60636e-09 2.56422e-09 0 9.02273e-10 6.6644e-09 0 0 0 0)
(-4.13406e-09 2.44725e-09 0 -5.44595e-10 5.09212e-09 0 0 0 0)
(-4.1567e-09 1.32609e-09 0 -5.62728e-10 3.9104e-09 0 0 0 0)
(-2.88563e-09 4.47681e-10 0 -7.02834e-10 2.9532e-09 0 0 0 0)
(-2.21397e-09 -3.56935e-10 0 -6.35397e-10 2.19654e-09 0 0 0 0)
(-1.59616e-09 -9.65335e-10 0 -5.1955e-10 1.6054e-09 0 0 0 0)
(-1.15131e-09 -1.34565e-09 0 -3.71475e-10 1.14301e-09 0 0 0 0)
(-8.12257e-10 -1.66538e-09 0 -2.28116e-10 7.88067e-10 0 0 0 0)
(-5.24212e-10 -2.33252e-09 0 -1.02457e-10 5.11971e-10 0 0 0 0)
(-2.49746e-10 -2.36725e-09 0 -2.05727e-11 2.74268e-10 0 0 0 0)
(-6.15556e-11 -1.5482e-09 0 -6.36969e-12 5.06088e-11 0 0 0 0)
(-0.00013194 -0.000193068 0 7.77967e-05 0.000112774 0 0 0 0)
(0.00014824 0.000233999 0 -1.61279e-05 -2.70862e-05 0 0 0 0)
(-2.71883e-05 -5.09094e-05 0 7.15398e-06 6.57739e-06 0 0 0 0)
(1.24355e-05 1.20577e-05 0 -1.39122e-06 -1.46303e-06 0 0 0 0)
(-2.11377e-06 -2.56147e-06 0 5.46261e-07 3.96419e-07 0 0 0 0)
(7.91884e-07 5.89668e-07 0 -1.30618e-07 -6.35948e-08 0 0 0 0)
(-2.13423e-07 -1.22151e-07 0 4.05364e-08 3.45266e-08 0 0 0 0)
(3.72391e-08 2.90241e-08 0 -1.20622e-08 6.89349e-09 0 0 0 0)
(-2.59802e-08 -3.36019e-09 0 2.37039e-09 1.03365e-08 0 0 0 0)
(-3.54212e-09 2.56941e-09 0 -2.24479e-09 6.89077e-09 0 0 0 0)
(-6.49901e-09 6.59307e-10 0 -1.24087e-09 5.45167e-09 0 0 0 0)
(-3.68531e-09 2.06926e-10 0 -1.60042e-09 3.96045e-09 0 0 0 0)
(-2.94239e-09 -4.77471e-10 0 -1.34785e-09 2.87126e-09 0 0 0 0)
(-2.00426e-09 -1.06912e-09 0 -1.13207e-09 2.02773e-09 0 0 0 0)
(-1.39949e-09 -1.50833e-09 0 -8.45027e-10 1.40351e-09 0 0 0 0)
(-9.69602e-10 -1.75681e-09 0 -5.78883e-10 9.42445e-10 0 0 0 0)
(-6.51768e-10 -1.97122e-09 0 -3.44803e-10 6.11682e-10 0 0 0 0)
(-3.68547e-10 -2.56614e-09 0 -1.53902e-10 3.81583e-10 0 0 0 0)
(-1.78622e-10 -2.57451e-09 0 -3.28513e-11 2.12345e-10 0 0 0 0)
(-5.35596e-11 -1.69576e-09 0 -6.26127e-12 3.43165e-11 0 0 0 0)
(0.000167222 0.000237422 0 -5.74006e-05 -9.81115e-05 0 0 0 0)
(-0.000188865 -0.000289851 0 1.29356e-05 2.74309e-05 0 0 0 0)
(3.62423e-05 6.51497e-05 0 -5.94887e-06 -6.32063e-06 0 0 0 0)
(-1.64842e-05 -1.54575e-05 0 1.19927e-06 1.68332e-06 0 0 0 0)
(2.89101e-06 3.39957e-06 0 -4.98022e-07 -3.77659e-07 0 0 0 0)
(-1.16642e-06 -7.88986e-07 0 1.19104e-07 1.08833e-07 0 0 0 0)
(2.61835e-07 1.76101e-07 0 -3.80384e-08 -7.97074e-09 0 0 0 0)
(-8.90963e-08 -3.73267e-08 0 9.49162e-09 1.7532e-08 0 0 0 0)
(1.50891e-08 8.70477e-09 0 -5.25624e-09 8.82966e-09 0 0 0 0)
(-1.32176e-08 -2.32058e-09 0 -2.06256e-09 7.74973e-09 0 0 0 0)
(-3.48972e-09 -4.83065e-10 0 -3.09125e-09 5.36792e-09 0 0 0 0)
(-4.26368e-09 -1.25432e-09 0 -2.50619e-09 3.77816e-09 0 0 0 0)
(-2.41734e-09 -1.48504e-09 0 -2.14696e-09 2.54468e-09 0 0 0 0)
(-1.71109e-09 -1.82468e-09 0 -1.64856e-09 1.66364e-09 0 0 0 0)
(-1.04295e-09 -2.05062e-09 0 -1.19417e-09 1.04937e-09 0 0 0 0)
(-6.51118e-10 -2.13748e-09 0 -7.90085e-10 6.30873e-10 0 0 0 0)
(-3.8725e-10 -2.22624e-09 0 -4.60244e-10 3.58209e-10 0 0 0 0)
(-2.1226e-10 -2.73185e-09 0 -2.06893e-10 1.97044e-10 0 0 0 0)
(-1.02132e-10 -2.71451e-09 0 -4.80302e-11 1.2252e-10 0 0 0 0)
(-2.24159e-11 -1.79486e-09 0 -5.47522e-12 1.33491e-11 0 0 0 0)
(-0.000176405 -0.000263749 0 2.51369e-05 6.42075e-05 0 0 0 0)
(0.000199691 0.000325789 0 -8.42682e-06 -2.13218e-05 0 0 0 0)
(-3.89246e-05 -7.6657e-05 0 3.28929e-06 4.82881e-06 0 0 0 0)
(1.78864e-05 1.80007e-05 0 -1.07556e-06 -1.56687e-06 0 0 0 0)
(-3.19394e-06 -4.13595e-06 0 4.0373e-07 3.96499e-07 0 0 0 0)
(1.25187e-06 9.59356e-07 0 -1.18741e-07 -8.84465e-08 0 0 0 0)
(-3.23036e-07 -2.13451e-07 0 3.9706e-08 4.85593e-08 0 0 0 0)
(7.00212e-08 4.58245e-08 0 -1.60862e-08 7.1813e-09 0 0 0 0)
(-3.75343e-08 -1.31424e-08 0 -1.03441e-09 1.30684e-08 0 0 0 0)
(-1.3771e-09 -8.92337e-10 0 -6.13493e-09 7.01765e-09 0 0 0 0)
(-6.94269e-09 -3.31226e-09 0 -4.13954e-09 5.20207e-09 0 0 0 0)
(-2.74103e-09 -2.61631e-09 0 -3.86586e-09 3.16043e-09 0 0 0 0)
(-2.0847e-09 -2.59199e-09 0 -2.91989e-09 1.93143e-09 0 0 0 0)
(-1.05146e-09 -2.56443e-09 0 -2.20776e-09 1.06592e-09 0 0 0 0)
(-5.41098e-10 -2.5411e-09 0 -1.53322e-09 5.28563e-10 0 0 0 0)
(-2.35651e-10 -2.44798e-09 0 -9.96924e-10 2.01361e-10 0 0 0 0)
(-6.85487e-11 -2.40505e-09 0 -5.7666e-10 2.34853e-11 0 0 0 0)
(4.36391e-11 -2.80183e-09 0 -2.59748e-10 -3.81592e-11 0 0 0 0)
(2.28496e-11 -2.75821e-09 0 -5.9089e-11 3.39393e-12 0 0 0 0)
(-1.0842e-13 -1.83163e-09 0 -4.09286e-12 -1.18585e-11 0 0 0 0)
(0.000183932 0.000280308 0 2.35099e-05 -3.83974e-05 0 0 0 0)
(-0.000210713 -0.00034923 0 -3.04026e-06 1.0104e-05 0 0 0 0)
(4.35935e-05 8.49047e-05 0 1.9965e-06 -2.38247e-06 0 0 0 0)
(-1.93698e-05 -1.98899e-05 0 -5.72487e-08 6.95406e-07 0 0 0 0)
(3.84783e-06 4.878e-06 0 1.37167e-07 -1.23254e-07 0 0 0 0)
(-1.53044e-06 -1.13693e-06 0 -4.27086e-09 7.34761e-08 0 0 0 0)
(3.6449e-07 2.71729e-07 0 9.40274e-11 1.35959e-08 0 0 0 0)
(-1.29837e-07 -7.28176e-08 0 -9.48582e-09 1.96173e-08 0 0 0 0)
(2.50403e-08 8.54112e-09 0 -8.36134e-09 1.07864e-08 0 0 0 0)
(-1.63228e-08 -1.01869e-08 0 -7.97688e-09 7.11732e-09 0 0 0 0)
(-1.22059e-09 -4.34028e-09 0 -6.41861e-09 4.01824e-09 0 0 0 0)
(-3.04401e-09 -4.52495e-09 0 -5.0652e-09 2.1213e-09 0 0 0 0)
(-7.59267e-10 -3.57956e-09 0 -3.76316e-09 9.18148e-10 0 0 0 0)
(-3.2442e-10 -3.22755e-09 0 -2.69525e-09 2.12042e-10 0 0 0 0)
(1.67862e-10 -2.91518e-09 0 -1.82756e-09 -1.69453e-10 0 0 0 0)
(3.05447e-10 -2.64256e-09 0 -1.1601e-09 -3.41759e-10 0 0 0 0)
(3.49953e-10 -2.46576e-09 0 -6.58843e-10 -3.83145e-10 0 0 0 0)
(3.05366e-10 -2.75194e-09 0 -2.97966e-10 -3.209e-10 0 0 0 0)
(1.53469e-10 -2.68821e-09 0 -7.3265e-11 -1.41212e-10 0 0 0 0)
(4.0766e-11 -1.78639e-09 0 -3.46945e-12 -4.04493e-11 0 0 0 0)
(-0.000155936 -0.000292042 0 4.15034e-05 2.65963e-05 0 0 0 0)
(0.000178178 0.000361804 0 -1.41123e-05 -1.01896e-05 0 0 0 0)
(-3.59416e-05 -8.60656e-05 0 4.52925e-06 2.76084e-06 0 0 0 0)
(1.6027e-05 2.02599e-05 0 -1.56618e-06 -7.73496e-07 0 0 0 0)
(-3.14096e-06 -4.75788e-06 0 5.06473e-07 3.34091e-07 0 0 0 0)
(1.1148e-06 1.09621e-06 0 -1.74345e-07 -2.38228e-08 0 0 0 0)
(-3.28251e-07 -2.6731e-07 0 3.9312e-08 5.58425e-08 0 0 0 0)
(6.15659e-08 4.30149e-08 0 -3.20319e-08 1.27675e-08 0 0 0 0)
(-3.60254e-08 -2.56425e-08 0 -8.6966e-09 1.19236e-08 0 0 0 0)
(5.65574e-10 -7.66046e-09 0 -1.30215e-08 4.38131e-09 0 0 0 0)
(-4.03098e-09 -8.30827e-09 0 -8.09544e-09 2.05308e-09 0 0 0 0)
(-8.55436e-11 -5.7164e-09 0 -6.42967e-09 2.65534e-10 0 0 0 0)
(2.85254e-10 -4.50125e-09 0 -4.38684e-09 -5.30535e-10 0 0 0 0)
(8.84086e-10 -3.65203e-09 0 -3.0574e-09 -9.24067e-10 0 0 0 0)
(9.94105e-10 -3.0949e-09 0 -1.99789e-09 -1.02911e-09 0 0 0 0)
(9.33064e-10 -2.66167e-09 0 -1.24247e-09 -9.76737e-10 0 0 0 0)
(7.93582e-10 -2.38419e-09 0 -6.95895e-10 -8.36522e-10 0 0 0 0)
(6.2919e-10 -2.5599e-09 0 -3.10001e-10 -6.24197e-10 0 0 0 0)
(3.174e-10 -2.47776e-09 0 -7.52978e-11 -2.96835e-10 0 0 0 0)
(7.65989e-11 -1.64997e-09 0 -4.39102e-12 -7.30745e-11 0 0 0 0)
(0.000211324 0.000296715 0 0.000143425 -2.42685e-05 0 0 0 0)
(-0.000247687 -0.000373066 0 -3.27125e-05 1.29826e-05 0 0 0 0)
(5.61396e-05 9.43208e-05 0 1.32254e-05 -2.82789e-06 0 0 0 0)
(-2.33925e-05 -2.23166e-05 0 -3.00851e-06 1.62476e-06 0 0 0 0)
(5.23966e-06 5.62767e-06 0 1.03322e-06 -2.43252e-07 0 0 0 0)
(-1.9976e-06 -1.41517e-06 0 -3.21389e-07 2.21801e-07 0 0 0 0)
(5.06803e-07 3.08319e-07 0 4.83625e-08 -7.66822e-09 0 0 0 0)
(-1.77845e-07 -1.16736e-07 0 -5.54328e-08 2.91999e-08 0 0 0 0)
(4.40508e-08 1.54894e-10 0 -1.50462e-08 -5.98111e-11 0 0 0 0)
(-1.57216e-08 -2.00575e-08 0 -1.72426e-08 1.71194e-09 0 0 0 0)
(5.37125e-09 -8.45606e-09 0 -9.76866e-09 -2.02826e-09 0 0 0 0)
(6.64535e-10 -7.10856e-09 0 -7.1353e-09 -2.05647e-09 0 0 0 0)
(2.61301e-09 -4.76916e-09 0 -4.62396e-09 -2.37824e-09 0 0 0 0)
(2.06454e-09 -3.72613e-09 0 -3.08396e-09 -2.18709e-09 0 0 0 0)
(1.98287e-09 -2.96785e-09 0 -1.95211e-09 -1.94476e-09 0 0 0 0)
(1.60747e-09 -2.44997e-09 0 -1.17603e-09 -1.61413e-09 0 0 0 0)
(1.28234e-09 -2.11322e-09 0 -6.31765e-10 -1.27981e-09 0 0 0 0)
(9.25936e-10 -2.21226e-09 0 -2.72379e-10 -9.19451e-10 0 0 0 0)
(4.59105e-10 -2.13709e-09 0 -7.13134e-11 -4.47641e-10 0 0 0 0)
(1.20428e-10 -1.41649e-09 0 -6.88468e-12 -1.07261e-10 0 0 0 0)
(-4.52235e-05 -0.000303328 0 -0.00013198 -1.3242e-06 0 0 0 0)
(4.79785e-05 0.000383245 0 3.00903e-05 1.22292e-05 0 0 0 0)
(-6.23763e-06 -9.74235e-05 0 -1.31002e-05 -2.64366e-06 0 0 0 0)
(3.83488e-06 2.28445e-05 0 2.72228e-06 1.98007e-06 0 0 0 0)
(-4.53838e-07 -6.16085e-06 0 -1.35563e-06 -3.8544e-07 0 0 0 0)
(1.29942e-07 1.33179e-06 0 1.8502e-07 2.4218e-07 0 0 0 0)
(-6.22954e-08 -4.59911e-07 0 -1.85745e-07 -5.68185e-08 0 0 0 0)
(-1.84271e-09 5.06234e-08 0 -1.50411e-08 1.63323e-08 0 0 0 0)
(2.16485e-09 -5.31304e-08 0 -3.77799e-08 -1.43715e-08 0 0 0 0)
(5.84312e-09 -9.62891e-09 0 -1.377e-08 -5.00998e-09 0 0 0 0)
(6.07625e-09 -1.20767e-08 0 -1.1467e-08 -6.92017e-09 0 0 0 0)
(5.05919e-09 -6.06638e-09 0 -6.37885e-09 -4.99312e-09 0 0 0 0)
(4.33659e-09 -4.63187e-09 0 -4.38012e-09 -4.39277e-09 0 0 0 0)
(3.55594e-09 -3.21854e-09 0 -2.71059e-09 -3.52789e-09 0 0 0 0)
(2.90195e-09 -2.52195e-09 0 -1.71757e-09 -2.87232e-09 0 0 0 0)
(2.25341e-09 -1.99672e-09 0 -1.01896e-09 -2.25442e-09 0 0 0 0)
(1.69721e-09 -1.68951e-09 0 -5.6945e-10 -1.7234e-09 0 0 0 0)
(1.18972e-09 -1.72773e-09 0 -2.50125e-10 -1.19734e-09 0 0 0 0)
(5.82921e-10 -1.66557e-09 0 -5.38577e-11 -5.71546e-10 0 0 0 0)
(1.54797e-10 -1.09506e-09 0 -1.32815e-12 -1.33795e-10 0 0 0 0)
(0.000109434 0.00030762 0 -0.000220075 -2.67218e-06 0 0 0 0)
(-0.000128807 -0.000374385 0 6.22336e-05 8.33357e-06 0 0 0 0)
(2.87715e-05 8.40717e-05 0 -2.27201e-05 -2.54989e-06 0 0 0 0)
(-1.16479e-05 -2.00584e-05 0 6.11781e-06 8.87208e-07 0 0 0 0)
(2.70241e-06 3.88979e-06 0 -2.53623e-06 -4.8357e-07 0 0 0 0)
(-8.2772e-07 -1.08655e-06 0 4.9846e-07 2.77797e-08 0 0 0 0)
(3.06742e-07 8.24712e-08 0 -3.07853e-07 -9.214e-08 0 0 0 0)
(-2.98803e-08 -7.42895e-08 0 2.28883e-08 -2.21909e-08 0 0 0 0)
(4.53218e-08 -2.11874e-08 0 -4.52172e-08 -2.6003e-08 0 0 0 0)
(1.05914e-08 -1.26062e-08 0 -6.72018e-09 -1.41944e-08 0 0 0 0)
(1.27624e-08 -8.43919e-09 0 -1.00651e-08 -1.12532e-08 0 0 0 0)
(7.7514e-09 -4.58116e-09 0 -4.25926e-09 -7.95649e-09 0 0 0 0)
(6.2813e-09 -3.30392e-09 0 -3.30473e-09 -6.15066e-09 0 0 0 0)
(4.72709e-09 -2.20568e-09 0 -1.91524e-09 -4.71178e-09 0 0 0 0)
(3.67452e-09 -1.69438e-09 0 -1.27933e-09 -3.65284e-09 0 0 0 0)
(2.75558e-09 -1.30106e-09 0 -7.95777e-10 -2.79032e-09 0 0 0 0)
(2.0512e-09 -1.05614e-09 0 -4.91903e-10 -2.08748e-09 0 0 0 0)
(1.44153e-09 -1.0604e-09 0 -2.29146e-10 -1.43764e-09 0 0 0 0)
(7.07821e-10 -1.07355e-09 0 -3.59413e-11 -6.96916e-10 0 0 0 0)
(1.75641e-10 -7.11144e-10 0 1.21702e-11 -1.44101e-10 0 0 0 0)
(-0.000203065 -0.000297667 0 0.000130749 1.44939e-05 0 0 0 0)
(0.000245333 0.000383367 0 -3.71181e-05 -2.44467e-05 0 0 0 0)
(-6.23534e-05 -0.00010487 0 1.4223e-05 5.51169e-06 0 0 0 0)
(2.40187e-05 2.49109e-05 0 -3.5362e-06 -3.64847e-06 0 0 0 0)
(-6.07319e-06 -7.02027e-06 0 1.85219e-06 6.5923e-07 0 0 0 0)
(2.35832e-06 1.72322e-06 0 -1.6542e-07 -5.17978e-07 0 0 0 0)
(-5.37867e-07 -5.09881e-07 0 3.21595e-07 2.25629e-08 0 0 0 0)
(2.60793e-07 1.1676e-07 0 6.57043e-08 -9.05676e-08 0 0 0 0)
(-2.74437e-08 -4.51339e-08 0 9.06822e-08 -1.99081e-08 0 0 0 0)
(4.09953e-08 5.12087e-09 0 4.78261e-08 -2.42463e-08 0 0 0 0)
(8.53722e-09 -5.83881e-09 0 3.90955e-08 -1.24227e-08 0 0 0 0)
(1.18194e-08 -9.63807e-10 0 2.65266e-08 -9.9683e-09 0 0 0 0)
(6.68066e-09 -1.38716e-09 0 1.95246e-08 -6.87778e-09 0 0 0 0)
(5.58136e-09 -7.20721e-10 0 1.35647e-08 -5.27721e-09 0 0 0 0)
(4.02144e-09 -6.00488e-10 0 9.21618e-09 -3.95138e-09 0 0 0 0)
(3.04081e-09 -4.31357e-10 0 5.86873e-09 -2.98234e-09 0 0 0 0)
(2.26379e-09 -3.36834e-10 0 3.41979e-09 -2.21896e-09 0 0 0 0)
(1.64571e-09 -3.37167e-10 0 1.55369e-09 -1.58937e-09 0 0 0 0)
(8.24238e-10 -3.72025e-10 0 3.32633e-10 -8.21399e-10 0 0 0 0)
(1.78568e-10 -2.54049e-10 0 2.16298e-11 -1.43794e-10 0 0 0 0)
)
;

boundaryField
{
    movingWall
    {
        type            extrapolatedCalculated;
        value           nonuniform List<tensor> 
20
(
(-0.000203065 -0.000297667 0 0.00108814 0.00164048 0 0 0 0)
(0.000245333 0.000383367 0 -0.000275878 -0.000449815 0 0 0 0)
(-6.23534e-05 -0.00010487 0 0.000106804 0.000107013 0 0 0 0)
(2.40187e-05 2.49109e-05 0 -2.64647e-05 -3.03354e-05 0 0 0 0)
(-6.07319e-06 -7.02027e-06 0 1.07295e-05 7.36972e-06 0 0 0 0)
(2.35832e-06 1.72322e-06 0 -2.17191e-06 -2.25435e-06 0 0 0 0)
(-5.37867e-07 -5.09881e-07 0 1.29619e-06 4.7684e-07 0 0 0 0)
(2.60793e-07 1.1676e-07 0 -2.04418e-08 -2.1482e-07 0 0 0 0)
(-2.74437e-08 -4.51339e-08 0 2.53021e-07 9.79816e-09 0 0 0 0)
(4.09953e-08 5.12087e-09 0 8.93328e-08 -3.42844e-08 0 0 0 0)
(8.53722e-09 -5.83881e-09 0 8.90399e-08 -1.06853e-08 0 0 0 0)
(1.18194e-08 -9.63807e-10 0 5.5184e-08 -1.09291e-08 0 0 0 0)
(6.68066e-09 -1.38716e-09 0 4.17621e-08 -6.83007e-09 0 0 0 0)
(5.58136e-09 -7.20721e-10 0 2.84615e-08 -5.38049e-09 0 0 0 0)
(4.02144e-09 -6.00488e-10 0 1.94367e-08 -3.94719e-09 0 0 0 0)
(3.04081e-09 -4.31357e-10 0 1.23757e-08 -2.97854e-09 0 0 0 0)
(2.26379e-09 -3.36834e-10 0 7.27356e-09 -2.22176e-09 0 0 0 0)
(1.64571e-09 -3.37167e-10 0 3.32054e-09 -1.6312e-09 0 0 0 0)
(8.24238e-10 -3.72025e-10 0 6.90736e-10 -8.73095e-10 0 0 0 0)
(1.78568e-10 -2.54049e-10 0 2.36255e-11 -1.431e-10 0 0 0 0)
)
;
    }
    fixedWalls
    {
        type            extrapolatedCalculated;
        value           nonuniform List<tensor> 
60
(
(-2.25422e-05 0.000139414 0 -7.35496e-06 -8.79845e-07 0 0 0 0)
(-6.8776e-06 -0.000142933 0 -7.99998e-06 2.74734e-06 0 0 0 0)
(-5.45422e-05 0.000150403 0 -5.13109e-06 -4.33439e-06 0 0 0 0)
(-2.74019e-05 -0.000160271 0 1.11176e-05 9.24534e-06 0 0 0 0)
(-1.00719e-05 0.000187385 0 8.27703e-07 -1.27e-05 0 0 0 0)
(-2.40911e-05 -0.000211071 0 3.52958e-05 2.12377e-05 0 0 0 0)
(0.000131111 0.000272336 0 -2.56396e-05 -3.25103e-05 0 0 0 0)
(-0.000126649 -0.000341112 0 3.18578e-05 4.37168e-05 0 0 0 0)
(0.000258542 0.000447203 0 -5.81979e-05 -6.15335e-05 0 0 0 0)
(-0.000359441 -0.000587246 0 6.41927e-05 8.15726e-05 0 0 0 0)
(0.000515313 0.000773493 0 -7.16333e-05 -9.98594e-05 0 0 0 0)
(-0.000645974 -0.000986684 0 7.77967e-05 0.000112774 0 0 0 0)
(0.0008265 0.00122459 0 -5.74006e-05 -9.81115e-05 0 0 0 0)
(-0.000875577 -0.00137913 0 2.51369e-05 6.42075e-05 0 0 0 0)
(0.000927048 0.00148142 0 2.35099e-05 -3.83974e-05 0 0 0 0)
(-0.000781537 -0.00153272 0 4.15034e-05 2.65963e-05 0 0 0 0)
(0.00109306 0.0015878 0 0.000143425 -2.42685e-05 0 0 0 0)
(-0.000207838 -0.00162979 0 -0.00013198 -1.3242e-06 0 0 0 0)
(0.00056514 0.00158251 0 -0.000220075 -2.67218e-06 0 0 0 0)
(-0.00108814 -0.00164048 0 0.000130749 1.44939e-05 0 0 0 0)
(-7.39409e-11 -3.7138e-11 0 3.67545e-11 3.78174e-11 0 0 0 0)
(-7.30527e-11 -1.14132e-10 0 -1.38236e-12 4.04573e-11 0 0 0 0)
(-6.84341e-11 -1.98967e-10 0 -1.97867e-12 4.46797e-11 0 0 0 0)
(-6.51479e-11 -2.92851e-10 0 -2.57498e-12 5.00568e-11 0 0 0 0)
(-5.80869e-11 -3.99194e-10 0 -3.06287e-12 5.61181e-11 0 0 0 0)
(-5.29798e-11 -5.17323e-10 0 -3.52366e-12 6.20215e-11 0 0 0 0)
(-4.39204e-11 -6.4728e-10 0 -3.90313e-12 6.6685e-11 0 0 0 0)
(-3.73479e-11 -7.84063e-10 0 -4.63496e-12 6.89396e-11 0 0 0 0)
(-2.54463e-11 -9.23039e-10 0 -5.23128e-12 6.7612e-11 0 0 0 0)
(-1.63425e-11 -1.05451e-09 0 -5.99022e-12 6.16705e-11 0 0 0 0)
(-1.46549e-12 -1.16972e-09 0 -6.36969e-12 5.06088e-11 0 0 0 0)
(9.14824e-12 -1.25695e-09 0 -6.26127e-12 3.43165e-11 0 0 0 0)
(2.35367e-11 -1.30699e-09 0 -5.47522e-12 1.33491e-11 0 0 0 0)
(3.09086e-11 -1.31034e-09 0 -4.09286e-12 -1.18585e-11 0 0 0 0)
(3.9968e-11 -1.25955e-09 0 -3.46945e-12 -4.04493e-11 0 0 0 0)
(4.47642e-11 -1.14855e-09 0 -4.39102e-12 -7.30745e-11 0 0 0 0)
(5.7554e-11 -9.67255e-10 0 -6.88468e-12 -1.07261e-10 0 0 0 0)
(7.23865e-11 -7.19503e-10 0 -1.32815e-12 -1.33795e-10 0 0 0 0)
(6.2883e-11 -4.32075e-10 0 1.21702e-11 -1.44101e-10 0 0 0 0)
(2.36255e-11 -1.431e-10 0 2.16298e-11 -1.43794e-10 0 0 0 0)
(-4.10631e-06 2.65191e-05 0 -2.25422e-05 0.000139414 0 0 0 0)
(5.02749e-06 -3.28653e-05 0 6.117e-06 -3.33377e-05 0 0 0 0)
(-1.38585e-06 7.85019e-06 0 -2.43227e-06 7.95297e-06 0 0 0 0)
(5.22881e-07 -1.87509e-06 0 5.73591e-07 -1.93692e-06 0 0 0 0)
(-1.43731e-07 4.52838e-07 0 -3.40744e-07 4.52621e-07 0 0 0 0)
(6.56075e-08 -1.08728e-07 0 -1.33458e-09 -1.25571e-07 0 0 0 0)
(-6.58084e-09 2.76821e-08 0 -7.83145e-08 1.77103e-08 0 0 0 0)