/*--------------------------------*- C++ -*----------------------------------*\
| =========                 |                                                 |
| \\      /  F ield         | OpenFOAM: The Open Source CFD Toolbox           |
|  \\    /   O peration     | Version:  2506                                  |
|   \\  /    A nd           | Website:  www.openfoam.com                      |
|    \\/     M anipulation  |                                                 |
\*---------------------------------------------------------------------------*/
FoamFile
{
    version     2.0;
    format      ascii;
    arch        "LSB;label=32;scalar=64";
    class       volScalarField;
    location    "3";
    object      initialResidual:Uy;
}
// * * * * * * * * * * * * * * * * * * * * * * * * * * * * * * * * * * * * * //

dimensions      [0 0 0 0 0 0 0];

internalField   nonuniform List<scalar> 
400
(
-3.16376e-13
1.58857e-13
-4.26988e-14
1.17527e-14
-3.23279e-15
8.39023e-16
-2.30172e-16
2.20465e-17
-5.95759e-17
-5.4517e-17
-6.66218e-17
-7.33938e-17
-8.00011e-17
-8.71847e-17
-9.40808e-17
-9.62249e-17
-9.73956e-17
-9.9233e-17
-1.80247e-16
-6.18396e-17
2.68176e-13
-1.47083e-13
4.08365e-14
-1.19379e-14
3.60629e-15
-9.42334e-16
2.63864e-16
-1.60607e-16
-1.11566e-16
-1.70431e-16
-1.88719e-16
-2.14434e-16
-2.34089e-16
-2.55139e-16
-2.79443e-16
-2.88458e-16
-2.83936e-16
-2.95885e-16
-5.40312e-16
-1.81987e-16
-1.98619e-13
8.8998e-14
-2.4087e-14
6.26078e-15
-1.43955e-15
6.41858e-16
-1.66072e-16
-1.13097e-16
-2.41413e-16
-2.80183e-16
-3.20844e-16
-3.56457e-16
-3.88206e-16
-4.21906e-16
-4.6046e-16
-4.74429e-16
-4.69127e-16
-4.86877e-16
-8.87961e-16
-2.99942e-16
2.19031e-14
-5.26523e-15
3.07424e-15
2.33555e-15
1.73731e-16
4.86017e-16
-1.92523e-16
-2.28772e-16
-3.72492e-16
-4.15113e-16
-4.61203e-16
-5.02447e-16
-5.41704e-16
-5.84353e-16
-6.36293e-16
-6.5544e-16
-6.43922e-16
-6.68585e-16
-1.22088e-15
-4.11492e-16
4.21659e-15
4.31938e-14
-1.29898e-14
9.12108e-15
-1.78899e-15
9.41285e-16
-5.83974e-16
-3.3319e-16
-5.70268e-16
-5.62857e-16
-6.13778e-16
-6.49392e-16
-6.91947e-16
-7.40628e-16
-8.02523e-16
-8.23921e-16
-8.08697e-16
-8.38352e-16
-1.52906e-15
-5.14988e-16
-2.34358e-13
1.36302e-13
-3.91828e-14
1.36471e-14
-3.95787e-15
8.43859e-16
-9.73936e-16
-5.74742e-16
-7.77421e-16
-7.38042e-16
-7.68457e-16
-7.95689e-16
-8.35114e-16
-8.86022e-16
-9.55987e-16
-9.79844e-16
-9.5643e-16
-9.90906e-16
-1.80803e-15
-6.07073e-16
2.17031e-13
-1.07906e-13
2.64594e-14
-7.54274e-15
6.78127e-16
-1.26915e-15
-9.51971e-16
-9.91939e-16
-9.679e-16
-9.30271e-16
-9.1943e-16
-9.35844e-16
-9.67083e-16
-1.01801e-15
-1.09259e-15
-1.11613e-15
-1.08647e-15
-1.12433e-15
-2.0488e-15
-6.86112e-16
-4.4529e-13
1.96881e-13
-5.08275e-14
9.28442e-15
-4.07916e-15
-9.95549e-16
-1.46355e-15
-1.25563e-15
-1.18848e-15
-1.10696e-15
-1.06328e-15
-1.06358e-15
-1.08439e-15
-1.13193e-15
-1.2091e-15
-1.23237e-15
-1.19322e-15
-1.23336e-15
-2.24689e-15
-7.49425e-16
3.6841e-13
-2.13319e-13
5.92703e-14
-2.00919e-14
3.2997e-15
-3.2275e-15
-1.34757e-15
-1.61347e-15
-1.3516e-15
-1.27087e-15
-1.19024e-15
-1.17456e-15
-1.18309e-15
-1.22529e-15
-1.302e-15
-1.32246e-15
-1.27509e-15
-1.31627e-15
-2.39484e-15
-7.95601e-16
-2.85947e-13
1.75443e-13
-5.87598e-14
1.24646e-14
-7.22731e-15
-7.11982e-16
-2.11791e-15
-1.62202e-15
-1.559e-15
-1.39871e-15
-1.30638e-15
-1.26651e-15
-1.26219e-15
-1.29532e-15
-1.36873e-15
-1.38592e-15
-1.32823e-15
-1.36808e-15
-2.48909e-15
-8.22996e-16
-3.47674e-13
5.85553e-14
6.61556e-16
-1.00137e-14
-1.15429e-16
-3.40638e-15
-1.66331e-15
-1.99066e-15
-1.68312e-15
-1.53579e-15
-1.40243e-15
-1.34243e-15
-1.31991e-15
-1.34107e-15
-1.40732e-15
-1.41855e-15
-1.35049e-15
-1.38795e-15
-2.52496e-15
-8.30705e-16
9.66494e-13
-3.15859e-13
3.69583e-14
-7.86626e-15
-4.0884e-15
-2.06914e-15
-2.86977e-15
-2.03053e-15
-1.95908e-15
-1.6539e-15
-1.49712e-15
-1.40183e-15
-1.35761e-15
-1.36121e-15
-1.41574e-15
-1.41975e-15
-1.34064e-15
-1.37167e-15
-2.50001e-15
-8.18572e-16
-2.59571e-12
9.38156e-13
-1.93818e-13
3.46142e-14
-9.08796e-15
-1.95242e-15
-3.08249e-15
-2.45065e-15
-2.06038e-15
-1.79723e-15
-1.57708e-15
-1.44706e-15
-1.37209e-15
-1.354e-15
-1.39265e-15
-1.38706e-15
-1.29579e-15
-1.32066e-15
-2.41309e-15
-7.85864e-16
5.24148e-12
-1.98407e-12
4.12801e-13
-7.89371e-14
9.21076e-15
-5.42395e-15
-3.14623e-15
-2.61377e-15
-2.31625e-15
-1.90051e-15
-1.65707e-15
-1.46661e-15
-1.36085e-15
-1.31555e-15
-1.33472e-15
-1.31796e-15
-1.21874e-15
-1.23342e-15
-2.26207e-15
-7.33754e-16
-6.53183e-12
2.72173e-12
-6.40032e-13
1.43016e-13
-3.89102e-14
3.44617e-15
-5.39412e-15
-2.67526e-15
-2.64611e-15
-2.03587e-15
-1.69992e-15
-1.45747e-15
-1.31217e-15
-1.24005e-15
-1.23879e-15
-1.21209e-15
-1.10508e-15
-1.11283e-15
-2.04976e-15
-6.61455e-16
6.87532e-12
-2.82762e-12
6.20093e-13
-1.45366e-13
2.02682e-14
-1.10184e-14
-3.89467e-15
-3.64993e-15
-2.79249e-15
-2.10888e-15
-1.6845e-15
-1.38803e-15
-1.2129e-15
-1.12e-15
-1.09954e-15
-1.0651e-15
-9.60767e-16
-9.61084e-16
-1.77634e-15
-5.71243e-16
-7.58456e-12
3.43033e-12
-8.73635e-13
2.04786e-13
-6.56404e-14
6.24269e-15
-9.16441e-15
-3.04757e-15
-3.05894e-15
-1.99302e-15
-1.5662e-15
-1.23457e-15
-1.05087e-15
-9.47637e-16
-9.17768e-16
-8.81283e-16
-7.82407e-16
-7.81335e-16
-1.45311e-15
-4.63533e-16
8.1874e-12
-3.84378e-12
9.33694e-13
-2.79563e-13
5.33287e-14
-2.77078e-14
-6.44167e-16
-5.23698e-15
-2.11772e-15
-1.88478e-15
-1.24688e-15
-1.00299e-15
-8.1886e-16
-7.29165e-16
-6.9534e-16
-6.62992e-16
-5.82888e-16
-5.75579e-16
-1.08092e-15
-3.44424e-16
-7.31962e-12
2.64665e-12
-5.57959e-13
4.90215e-14
-1.62303e-14
-1.212e-14
-1.77853e-15
-3.923e-15
-1.31638e-15
-1.343e-15
-7.73487e-16
-6.43286e-16
-4.9952e-16
-4.43136e-16
-4.19596e-16
-4.05471e-16
-3.38339e-16
-3.20934e-16
-6.66573e-16
-2.19478e-16
8.12025e-12
-4.17867e-12
1.14397e-12
-3.37227e-13
9.2146e-14
-3.06602e-14
6.67456e-15
-3.46914e-15
1.12702e-16
-6.24141e-16
-2.07042e-16
-2.20981e-16
-1.53327e-16
-1.39816e-16
-1.32134e-16
-1.2945e-16
-9.98761e-17
-8.98315e-17
-2.23546e-16
-7.87411e-17
)
;

boundaryField
{
    movingWall
    {
        type            zeroGradient;
    }
    fixedWalls
    {
        type            zeroGradient;
    }
    frontAndBack
    {
        type            empty;
    }
}


// ************************************************************************* //
