/*--------------------------------*- C++ -*----------------------------------*\
| =========                 |                                                 |
| \\      /  F ield         | OpenFOAM: The Open Source CFD Toolbox           |
|  \\    /   O peration     | Version:  2506                                  |
|   \\  /    A nd           | Website:  www.openfoam.com                      |
|    \\/     M anipulation  |                                                 |
\*---------------------------------------------------------------------------*/
FoamFile
{
    version     2.0;
    format      ascii;
    arch        "LSB;label=32;scalar=64";
    class       volScalarField;
    location    "3";
    object      initialResidual:k;
}
// * * * * * * * * * * * * * * * * * * * * * * * * * * * * * * * * * * * * * //

dimensions      [0 0 0 0 0 0 0];

internalField   nonuniform List<scalar> 
400
(
-1.31363e-11
-1.31693e-11
-1.31179e-11
-1.322e-11
-1.30571e-11
-1.32281e-11
-1.30451e-11
-1.3197e-11
-1.30825e-11
-1.3142e-11
-1.31238e-11
-1.31262e-11
-1.31332e-11
-1.31277e-11
-1.31313e-11
-1.31298e-11
-1.31302e-11
-1.313e-11
-1.31286e-11
-1.31287e-11
-3.79806e-11
-3.78367e-11
-3.80305e-11
-3.78309e-11
-3.78993e-11
-3.77561e-11
-3.78365e-11
-3.77166e-11
-3.77712e-11
-3.76797e-11
-3.77222e-11
-3.7649e-11
-3.76769e-11
-3.76305e-11
-3.76603e-11
-3.7636e-11
-3.76169e-11
-3.76166e-11
-3.76089e-11
-3.76093e-11
-9.31081e-11
-9.22036e-11
-9.33945e-11
-9.27161e-11
-9.26103e-11
-9.28191e-11
-9.19873e-11
-9.26683e-11
-9.15781e-11
-9.25251e-11
-9.13938e-11
-9.20856e-11
-9.14955e-11
-9.18122e-11
-9.15593e-11
-9.18342e-11
-9.13903e-11
-9.15773e-11
-9.15152e-11
-9.15475e-11
-1.46999e-10
-1.45182e-10
-1.47666e-10
-1.46122e-10
-1.45994e-10
-1.45376e-10
-1.45361e-10
-1.45116e-10
-1.44689e-10
-1.4521e-10
-1.43877e-10
-1.44815e-10
-1.43579e-10
-1.44482e-10
-1.43439e-10
-1.43894e-10
-1.43581e-10
-1.43688e-10
-1.43633e-10
-1.43639e-10
-1.83923e-10
-1.8194e-10
-1.84487e-10
-1.82595e-10
-1.82451e-10
-1.81508e-10
-1.81553e-10
-1.80813e-10
-1.80855e-10
-1.80643e-10
-1.79993e-10
-1.80165e-10
-1.79488e-10
-1.79464e-10
-1.79312e-10
-1.79233e-10
-1.79079e-10
-1.79052e-10
-1.7899e-10
-1.78976e-10
-2.05219e-10
-2.04327e-10
-2.05209e-10
-2.03488e-10
-2.03455e-10
-2.02658e-10
-2.0244e-10
-2.01779e-10
-2.0136e-10
-2.01989e-10
-1.99968e-10
-2.01187e-10
-1.99517e-10
-2.00657e-10
-1.99145e-10
-1.99791e-10
-1.99257e-10
-1.99421e-10
-1.99331e-10
-1.99334e-10
-2.17944e-10
-2.15188e-10
-2.18989e-10
-2.15969e-10
-2.1582e-10
-2.14967e-10
-2.14752e-10
-2.13819e-10
-2.13903e-10
-2.12818e-10
-2.13078e-10
-2.12207e-10
-2.12436e-10
-2.11827e-10
-2.11833e-10
-2.11677e-10
-2.1136e-10
-2.11346e-10
-2.11263e-10
-2.11241e-10
-2.26078e-10
-2.23302e-10
-2.27078e-10
-2.23985e-10
-2.23868e-10
-2.22849e-10
-2.22716e-10
-2.21618e-10
-2.21698e-10
-2.20719e-10
-2.20865e-10
-2.19981e-10
-2.202e-10
-2.19527e-10
-2.19579e-10
-2.19315e-10
-2.19111e-10
-2.19034e-10
-2.18963e-10
-2.18928e-10
-2.32198e-10
-2.2995e-10
-2.32867e-10
-2.30023e-10
-2.30075e-10
-2.28652e-10
-2.28689e-10
-2.27636e-10
-2.27651e-10
-2.26641e-10
-2.26766e-10
-2.25856e-10
-2.26036e-10
-2.25482e-10
-2.25388e-10
-2.25241e-10
-2.24884e-10
-2.24871e-10
-2.2478e-10
-2.24755e-10
-2.37492e-10
-2.37025e-10
-2.36864e-10
-2.35567e-10
-2.35125e-10
-2.34169e-10
-2.3387e-10
-2.32796e-10
-2.32734e-10
-2.32932e-10
-2.31093e-10
-2.32003e-10
-2.3043e-10
-2.31014e-10
-2.30138e-10
-2.30259e-10
-2.30021e-10
-2.29998e-10
-2.2991e-10
-2.29885e-10
-2.43097e-10
-2.39766e-10
-2.44271e-10
-2.40799e-10
-2.40628e-10
-2.39317e-10
-2.39247e-10
-2.38003e-10
-2.38037e-10
-2.37087e-10
-2.37129e-10
-2.36364e-10
-2.36251e-10
-2.35828e-10
-2.35505e-10
-2.35584e-10
-2.35021e-10
-2.35098e-10
-2.34978e-10
-2.34968e-10
-2.48748e-10
-2.47088e-10
-2.48772e-10
-2.46303e-10
-2.4624e-10
-2.44938e-10
-2.44821e-10
-2.43761e-10
-2.43565e-10
-2.42676e-10
-2.42554e-10
-2.4176e-10
-2.41687e-10
-2.4154e-10
-2.40804e-10
-2.4106e-10
-2.40424e-10
-2.40534e-10
-2.40413e-10
-2.40404e-10
-2.55307e-10
-2.52094e-10
-2.56249e-10
-2.52849e-10
-2.52634e-10
-2.51135e-10
-2.51076e-10
-2.49811e-10
-2.49922e-10
-2.48666e-10
-2.48809e-10
-2.47916e-10
-2.47904e-10
-2.47879e-10
-2.46715e-10
-2.47416e-10
-2.46286e-10
-2.46631e-10
-2.4645e-10
-2.46481e-10
-2.62778e-10
-2.5886e-10
-2.63951e-10
-2.60318e-10
-2.59892e-10
-2.58412e-10
-2.58301e-10
-2.56901e-10
-2.56936e-10
-2.56314e-10
-2.55406e-10
-2.56247e-10
-2.53962e-10
-2.55043e-10
-2.53555e-10
-2.54036e-10
-2.53493e-10
-2.53595e-10
-2.53474e-10
-2.53462e-10
-2.7131e-10
-2.69296e-10
-2.71176e-10
-2.68681e-10
-2.68505e-10
-2.66785e-10
-2.66863e-10
-2.65224e-10
-2.65373e-10
-2.64097e-10
-2.6418e-10
-2.63562e-10
-2.62893e-10
-2.63425e-10
-2.61659e-10
-2.62811e-10
-2.61292e-10
-2.61807e-10
-2.61577e-10
-2.61634e-10
-2.81534e-10
-2.81149e-10
-2.80732e-10
-2.78432e-10
-2.78758e-10
-2.76806e-10
-2.76889e-10
-2.75373e-10
-2.75335e-10
-2.74115e-10
-2.74178e-10
-2.72931e-10
-2.73193e-10
-2.72285e-10
-2.72311e-10
-2.72031e-10
-2.71604e-10
-2.71553e-10
-2.71433e-10
-2.71395e-10
-2.94483e-10
-2.93173e-10
-2.93918e-10
-2.91301e-10
-2.91327e-10
-2.89363e-10
-2.89354e-10
-2.87723e-10
-2.8768e-10
-2.86534e-10
-2.863e-10
-2.85428e-10
-2.85062e-10
-2.84894e-10
-2.83987e-10
-2.84392e-10
-2.83425e-10
-2.83629e-10
-2.83448e-10
-2.83449e-10
-3.10551e-10
-3.12945e-10
-3.07485e-10
-3.07685e-10
-3.07051e-10
-3.04973e-10
-3.05305e-10
-3.03357e-10
-3.03527e-10
-3.01881e-10
-3.0204e-10
-3.00625e-10
-3.00847e-10
-2.99963e-10
-2.99796e-10
-2.99609e-10
-2.98975e-10
-2.98979e-10
-2.98822e-10
-2.98789e-10
-3.28833e-10
-3.2552e-10
-3.29302e-10
-3.25719e-10
-3.25182e-10
-3.23106e-10
-3.22862e-10
-3.21376e-10
-3.20981e-10
-3.20787e-10
-3.18687e-10
-3.19588e-10
-3.17423e-10
-3.18516e-10
-3.1659e-10
-3.16947e-10
-3.16493e-10
-3.16492e-10
-3.16345e-10
-3.16307e-10
-3.29698e-10
-3.29997e-10
-3.29459e-10
-3.30616e-10
-3.28674e-10
-3.30565e-10
-3.28341e-10
-3.30582e-10
-3.28361e-10
-3.30373e-10
-3.28679e-10
-3.29947e-10
-3.29087e-10
-3.29571e-10
-3.29317e-10
-3.29442e-10
-3.29394e-10
-3.29414e-10
-3.29416e-10
-3.29416e-10
)
;

boundaryField
{
    movingWall
    {
        type            zeroGradient;
    }
    fixedWalls
    {
        type            zeroGradient;
    }
    frontAndBack
    {
        type            empty;
    }
}


// ************************************************************************* //
