/*--------------------------------*- C++ -*----------------------------------*\
| =========                 |                                                 |
| \\      /  F ield         | OpenFOAM: The Open Source CFD Toolbox           |
|  \\    /   O peration     | Version:  2506                                  |
|   \\  /    A nd           | Website:  www.openfoam.com                      |
|    \\/     M anipulation  |                                                 |
\*---------------------------------------------------------------------------*/
FoamFile
{
    version     2.0;
    format      ascii;
    arch        "LSB;label=32;scalar=64";
    class       volScalarField;
    location    "3";
    object      initialResidual:p;
}
// * * * * * * * * * * * * * * * * * * * * * * * * * * * * * * * * * * * * * //

dimensions      [0 0 0 0 0 0 0];

internalField   nonuniform List<scalar> 
400
(
2.17017e-14
-5.38269e-14
1.54277e-14
-4.28864e-15
1.5696e-15
-5.16183e-16
2.73283e-17
-2.00307e-16
-1.40813e-16
-1.54173e-16
-1.35905e-16
-1.24147e-16
-1.08945e-16
-9.26595e-17
-8.07888e-17
-6.96704e-17
-5.60315e-17
-3.77031e-17
-4.74641e-17
4.63027e-17
-3.26873e-15
2.09259e-14
7.24397e-15
-4.61463e-17
5.78888e-16
-3.68612e-16
-4.91004e-17
-1.86982e-16
-1.40509e-16
-1.49638e-16
-1.32891e-16
-1.2161e-16
-1.06473e-16
-9.07023e-17
-7.96472e-17
-6.68554e-17
-5.30455e-17
-3.69257e-17
-4.75938e-17
4.76917e-17
8.25235e-14
-1.60354e-13
3.5269e-14
-1.07001e-14
3.53701e-15
-9.78894e-16
1.72196e-16
-2.30633e-16
-1.20281e-16
-1.47532e-16
-1.27409e-16
-1.1855e-16
-1.04606e-16
-8.90679e-17
-7.78254e-17
-6.70301e-17
-5.34292e-17
-3.53875e-17
-4.3664e-17
4.33797e-17
9.5034e-15
3.95856e-14
2.16048e-15
-9.32781e-16
-2.12021e-16
-3.23778e-16
-6.1818e-17
-1.52507e-16
-1.21632e-16
-1.31844e-16
-1.20025e-16
-1.12043e-16
-9.96233e-17
-8.60406e-17
-7.6257e-17
-6.3639e-17
-4.97809e-17
-3.5392e-17
-4.52072e-17
4.30332e-17
9.09134e-14
-1.66153e-13
3.21173e-14
-9.8333e-15
3.10508e-15
-6.93753e-16
1.42144e-16
-1.70673e-16
-9.60966e-17
-1.18771e-16
-1.07704e-16
-1.0282e-16
-9.33336e-17
-8.0857e-17
-7.12015e-17
-6.15249e-17
-4.89316e-17
-3.30643e-17
-3.8136e-17
3.63305e-17
-1.33309e-13
1.80239e-13
-3.4061e-14
1.22837e-14
-3.45069e-15
7.73524e-16
-3.40894e-16
-2.25977e-19
-1.10744e-16
-8.69026e-17
-9.62799e-17
-9.0638e-17
-8.44675e-17
-7.4803e-17
-6.76576e-17
-5.58653e-17
-4.29498e-17
-3.20609e-17
-3.94302e-17
3.46472e-17
3.24612e-14
-4.77078e-14
-1.77194e-15
-4.13329e-16
1.60324e-16
2.05463e-16
-1.1777e-17
-1.70058e-17
-6.46048e-17
-6.82127e-17
-7.77016e-17
-7.75226e-17
-7.50042e-17
-6.71067e-17
-6.01511e-17
-5.21084e-17
-4.12106e-17
-2.90893e-17
-3.00488e-17
2.56623e-17
-1.76971e-13
1.65863e-13
-3.95445e-14
1.18787e-14
-3.88795e-15
1.24832e-15
-3.6576e-16
1.14693e-16
-5.41192e-17
-3.47782e-17
-6.05752e-17
-6.24494e-17
-6.32126e-17
-5.88661e-17
-5.50786e-17
-4.46235e-17
-3.34034e-17
-2.71895e-17
-3.08892e-17
2.25277e-17
1.45243e-13
-5.33689e-14
1.00662e-14
-2.70671e-15
1.4152e-15
3.26313e-16
3.40528e-16
5.78496e-17
1.93576e-17
-1.96599e-17
-3.79264e-17
-4.76723e-17
-5.16857e-17
-4.95423e-17
-4.56e-17
-3.94728e-17
-3.08513e-17
-2.37141e-17
-2.00107e-17
1.2044e-17
-2.23293e-13
2.54566e-14
-2.10141e-14
5.15823e-15
-9.21249e-16
1.06197e-15
2.04299e-16
1.46332e-16
1.9697e-18
1.61633e-17
-2.01477e-17
-3.21477e-17
-3.89385e-17
-4.03233e-17
-3.96926e-17
-3.08384e-17
-2.18409e-17
-2.1189e-17
-2.02514e-17
7.59443e-18
1.88624e-13
1.10955e-13
-8.59205e-15
4.77981e-15
-1.70952e-15
9.03732e-16
1.86761e-16
1.30694e-16
1.81347e-16
3.26745e-17
-2.35806e-18
-1.92488e-17
-2.83281e-17
-3.10335e-17
-2.968e-17
-2.51525e-17
-1.90621e-17
-1.75674e-17
-8.96139e-18
-3.47621e-18
-2.48805e-13
-2.1702e-13
1.90405e-14
-5.75011e-15
2.97732e-15
-3.96526e-16
1.13526e-16
3.19221e-16
6.19766e-17
3.76789e-17
1.04526e-17
-7.42998e-18
-1.73545e-17
-2.27534e-17
-2.4364e-17
-1.68698e-17
-1.01057e-17
-1.49241e-17
-8.66801e-18
-8.79818e-18
3.30828e-13
4.57992e-13
-6.40312e-14
1.96865e-14
-8.81537e-15
1.51435e-15
-9.64421e-16
2.75136e-16
-1.15523e-17
5.37513e-17
1.13946e-17
3.60104e-18
-9.15669e-18
-1.51232e-17
-1.53616e-17
-1.16814e-17
-8.01238e-18
-1.17553e-17
2.00738e-18
-1.9458e-17
-1.20173e-13
-7.76499e-13
9.06067e-14
-3.3096e-14
1.12491e-14
-1.24033e-15
1.42691e-15
-1.38633e-16
8.95855e-17
4.33435e-17
3.06806e-17
9.77577e-18
-2.78507e-19
-8.30991e-18
-1.11336e-17
-4.72214e-18
-1.6972e-19
-8.97364e-18
3.12884e-18
-2.52926e-17
-5.26261e-13
1.30303e-12
-2.16416e-13
7.36219e-14
-2.47751e-14
4.95681e-15
-2.09729e-15
5.0015e-16
-9.08175e-17
9.36947e-17
2.31432e-17
2.2366e-17
6.01072e-18
-1.41531e-18
-3.34594e-18
2.19454e-19
1.73814e-18
-6.25968e-18
1.24524e-17
-3.44957e-17
6.54834e-13
-1.21009e-12
1.51138e-13
-6.02902e-14
1.73039e-14
-3.8153e-15
1.15189e-15
-1.95214e-16
1.30165e-16
4.38233e-17
4.31891e-17
2.5674e-17
1.54615e-17
4.8704e-18
8.68809e-19
6.06206e-18
8.35727e-18
-3.30106e-18
1.4614e-17
-4.00142e-17
-1.19496e-12
1.92806e-12
-3.97297e-13
1.20067e-13
-4.24078e-14
9.77348e-15
-3.52401e-15
9.68463e-16
-2.11431e-16
1.38311e-16
2.01441e-17
3.88693e-17
1.88697e-17
1.09321e-17
7.42502e-18
1.08813e-17
1.07763e-17
-3.22829e-19
2.20441e-17
-4.65288e-17
1.19055e-13
-3.52038e-13
-1.23543e-14
-1.4535e-15
5.77491e-15
1.21524e-15
2.03805e-16
5.22447e-17
7.48786e-18
5.03086e-17
4.30593e-17
3.94305e-17
2.98261e-17
1.94899e-17
1.51752e-17
1.89493e-17
2.05374e-17
6.25984e-18
2.4634e-17
-5.12649e-17
-9.88356e-13
1.13677e-12
-1.93465e-13
5.94295e-14
-2.2052e-14
3.58087e-15
-1.71203e-15
3.21094e-16
-6.25652e-17
6.48671e-17
3.36936e-17
3.80311e-17
3.01491e-17
2.02084e-17
1.81324e-17
2.45024e-17
2.28937e-17
5.62922e-18
2.64265e-17
-5.50067e-17
1.8135e-12
-2.16463e-12
5.74897e-13
-1.57987e-13
5.41487e-14
-1.4803e-14
4.89086e-15
-1.46123e-15
4.33444e-16
-1.26755e-16
5.76695e-17
5.86045e-18
2.10639e-17
8.24507e-18
1.19257e-17
1.96636e-17
1.40031e-17
1.98833e-18
3.20089e-17
-5.41363e-17
)
;

boundaryField
{
    movingWall
    {
        type            zeroGradient;
    }
    fixedWalls
    {
        type            zeroGradient;
    }
    frontAndBack
    {
        type            empty;
    }
}


// ************************************************************************* //
