/*--------------------------------*- C++ -*----------------------------------*\
| =========                 |                                                 |
| \\      /  F ield         | OpenFOAM: The Open Source CFD Toolbox           |
|  \\    /   O peration     | Version:  2506                                  |
|   \\  /    A nd           | Website:  www.openfoam.com                      |
|    \\/     M anipulation  |                                                 |
\*---------------------------------------------------------------------------*/
FoamFile
{
    version     2.0;
    format      ascii;
    arch        "LSB;label=32;scalar=64";
    class       volScalarField;
    location    "3";
    object      initialResidual:epsilon;
}
// * * * * * * * * * * * * * * * * * * * * * * * * * * * * * * * * * * * * * //

dimensions      [0 0 0 0 0 0 0];

internalField   nonuniform List<scalar> 
400
(
0
0
0
0
0
0
0
0
0
0
0
0
0
0
0
0
0
0
0
0
0
-8.91345e-11
-8.88533e-11
-8.91589e-11
-8.93983e-11
-8.96645e-11
-8.98685e-11
-9.01519e-11
-9.03938e-11
-9.06525e-11
-9.0963e-11
-9.11755e-11
-9.15655e-11
-9.17302e-11
-9.21868e-11
-9.233e-11
-9.28164e-11
-9.29816e-11
-1.86223e-10
0
0
-2.73812e-10
-2.7252e-10
-2.73991e-10
-2.75345e-10
-2.76433e-10
-2.77603e-10
-2.78805e-10
-2.80096e-10
-2.8126e-10
-2.82797e-10
-2.83849e-10
-2.85656e-10
-2.86609e-10
-2.88638e-10
-2.89571e-10
-2.91712e-10
-2.9275e-10
-5.8598e-10
0
0
-4.91175e-10
-4.88265e-10
-4.91385e-10
-4.9438e-10
-4.96577e-10
-4.99153e-10
-5.0166e-10
-5.04499e-10
-5.07015e-10
-5.10303e-10
-5.12703e-10
-5.16502e-10
-5.18807e-10
-5.23038e-10
-5.25381e-10
-5.29861e-10
-5.3247e-10
-1.06579e-09
0
0
-6.54555e-10
-6.52801e-10
-6.56448e-10
-6.60487e-10
-6.63634e-10
-6.6737e-10
-6.70957e-10
-6.75069e-10
-6.78729e-10
-6.83473e-10
-6.87054e-10
-6.92491e-10
-6.9603e-10
-7.0205e-10
-7.05717e-10
-7.12133e-10
-7.16204e-10
-1.43376e-09
0
0
-7.5983e-10
-7.50078e-10
-7.56613e-10
-7.62376e-10
-7.65866e-10
-7.7042e-10
-7.74639e-10
-7.79584e-10
-7.83943e-10
-7.89641e-10
-7.93957e-10
-8.00464e-10
-8.04792e-10
-8.11995e-10
-8.16518e-10
-8.2418e-10
-8.29227e-10
-1.66025e-09
0
0
-8.21891e-10
-8.09573e-10
-8.1723e-10
-8.23698e-10
-8.27492e-10
-8.32499e-10
-8.3712e-10
-8.42552e-10
-8.47398e-10
-8.53559e-10
-8.58443e-10
-8.65488e-10
-8.70391e-10
-8.78234e-10
-8.83352e-10
-8.91757e-10
-8.97425e-10
-1.7969e-09
0
0
-8.62773e-10
-8.48398e-10
-8.56851e-10
-8.6387e-10
-8.67832e-10
-8.7313e-10
-8.78031e-10
-8.83753e-10
-8.88903e-10
-8.95431e-10
-9.00627e-10
-9.08083e-10
-9.13323e-10
-9.21621e-10
-9.27107e-10
-9.36001e-10
-9.42083e-10
-1.88637e-09
0
0
-8.9374e-10
-8.7818e-10
-8.87109e-10
-8.94519e-10
-8.98627e-10
-9.04104e-10
-9.09229e-10
-9.15184e-10
-9.20574e-10
-9.27358e-10
-9.32808e-10
-9.40562e-10
-9.46063e-10
-9.54715e-10
-9.60475e-10
-9.69752e-10
-9.76141e-10
-1.9546e-09
0
0
-9.18181e-10
-9.06502e-10
-9.14352e-10
-9.21531e-10
-9.25816e-10
-9.31545e-10
-9.36796e-10
-9.43007e-10
-9.48526e-10
-9.55666e-10
-9.61228e-10
-9.69351e-10
-9.75028e-10
-9.83997e-10
-9.9001e-10
-9.99586e-10
-1.00629e-09
-2.01494e-09
0
0
-9.48796e-10
-9.30469e-10
-9.40501e-10
-9.48618e-10
-9.52926e-10
-9.58848e-10
-9.64301e-10
-9.70686e-10
-9.76455e-10
-9.83755e-10
-9.89602e-10
-9.97931e-10
-1.00388e-09
-1.01313e-09
-1.0194e-09
-1.02933e-09
-1.03629e-09
-2.07503e-09
0
0
-9.63662e-10
-9.68392e-10
-9.71583e-10
-9.77111e-10
-9.82186e-10
-9.88214e-10
-9.93835e-10
-1.00052e-09
-1.00645e-09
-1.01405e-09
-1.0201e-09
-1.02873e-09
-1.03492e-09
-1.04451e-09
-1.05105e-09
-1.06133e-09
-1.06859e-09
-2.13971e-09
0
0
-1.00847e-09
-9.92268e-10
-1.00196e-09
-1.01026e-09
-1.01494e-09
-1.02128e-09
-1.02715e-09
-1.03404e-09
-1.04028e-09
-1.04811e-09
-1.05446e-09
-1.06341e-09
-1.06988e-09
-1.07985e-09
-1.08669e-09
-1.09738e-09
-1.10499e-09
-2.21258e-09
0
0
-1.04429e-09
-1.03067e-09
-1.03981e-09
-1.04804e-09
-1.05298e-09
-1.05961e-09
-1.06572e-09
-1.07291e-09
-1.07938e-09
-1.08762e-09
-1.09421e-09
-1.10364e-09
-1.11039e-09
-1.1208e-09
-1.12802e-09
-1.13912e-09
-1.14719e-09
-2.29702e-09
0
0
-1.0737e-09
-1.0849e-09
-1.08659e-09
-1.09223e-09
-1.09807e-09
-1.10491e-09
-1.1113e-09
-1.11888e-09
-1.12567e-09
-1.1343e-09
-1.14129e-09
-1.1511e-09
-1.15831e-09
-1.1692e-09
-1.17686e-09
-1.18856e-09
-1.19708e-09
-2.39693e-09
0
0
-1.12778e-09
-1.13787e-09
-1.14014e-09
-1.14624e-09
-1.15242e-09
-1.1596e-09
-1.16637e-09
-1.17438e-09
-1.18157e-09
-1.19071e-09
-1.19815e-09
-1.20849e-09
-1.21622e-09
-1.22769e-09
-1.23593e-09
-1.24826e-09
-1.25742e-09
-2.51772e-09
0
0
-1.19301e-09
-1.20564e-09
-1.20741e-09
-1.21372e-09
-1.22029e-09
-1.228e-09
-1.23518e-09
-1.24378e-09
-1.25144e-09
-1.26124e-09
-1.26922e-09
-1.28028e-09
-1.28861e-09
-1.30087e-09
-1.3098e-09
-1.32297e-09
-1.33291e-09
-2.66884e-09
0
0
-1.27443e-09
-1.29485e-09
-1.29434e-09
-1.30054e-09
-1.30766e-09
-1.31598e-09
-1.32371e-09
-1.33303e-09
-1.34135e-09
-1.35189e-09
-1.36063e-09
-1.37255e-09
-1.38173e-09
-1.39494e-09
-1.40481e-09
-1.41902e-09
-1.43002e-09
-2.86313e-09
0
0
-1.40734e-09
-1.39091e-09
-1.40192e-09
-1.412e-09
-1.41863e-09
-1.42695e-09
-1.43523e-09
-1.44451e-09
-1.45345e-09
-1.46434e-09
-1.4736e-09
-1.48624e-09
-1.49595e-09
-1.51015e-09
-1.52068e-09
-1.53607e-09
-1.54796e-09
-3.09298e-09
0
0
0
0
0
0
0
0
0
0
0
0
0
0
0
0
0
0
0
0
0
)
;

boundaryField
{
    movingWall
    {
        type            zeroGradient;
    }
    fixedWalls
    {
        type            zeroGradient;
    }
    frontAndBack
    {
        type            empty;
    }
}


// ************************************************************************* //
