/*--------------------------------*- C++ -*----------------------------------*\
| =========                 |                                                 |
| \\      /  F ield         | OpenFOAM: The Open Source CFD Toolbox           |
|  \\    /   O peration     | Version:  2506                                  |
|   \\  /    A nd           | Website:  www.openfoam.com                      |
|    \\/     M anipulation  |                                                 |
\*---------------------------------------------------------------------------*/
FoamFile
{
    version     2.0;
    format      ascii;
    arch        "LSB;label=32;scalar=64";
    class       volScalarField;
    location    "3";
    object      initialResidual:Ux;
}
// * * * * * * * * * * * * * * * * * * * * * * * * * * * * * * * * * * * * * //

dimensions      [0 0 0 0 0 0 0];

internalField   nonuniform List<scalar> 
400
(
4.08387e-13
-1.83366e-13
5.76822e-14
-1.94049e-14
5.37243e-15
-2.50927e-15
-8.95077e-17
-9.93427e-16
-8.26264e-16
-9.77435e-16
-9.93e-16
-1.01514e-15
-9.96361e-16
-9.5464e-16
-8.8149e-16
-7.73043e-16
-6.61628e-16
-5.40177e-16
-3.40677e-16
-3.28107e-17
7.46635e-14
-6.02639e-14
1.71605e-14
-9.70339e-15
3.03213e-15
-1.86515e-15
-1.91287e-16
-9.55385e-16
-8.1818e-16
-9.57784e-16
-9.71201e-16
-9.92059e-16
-9.74732e-16
-9.34033e-16
-8.62022e-16
-7.60351e-16
-6.50433e-16
-5.25472e-16
-3.35805e-16
-3.25396e-17
1.07298e-12
-4.50947e-13
1.45611e-13
-4.30718e-14
1.25344e-14
-4.61996e-15
3.89527e-16
-1.20542e-15
-8.00236e-16
-9.73525e-16
-9.51475e-16
-9.65096e-16
-9.39753e-16
-8.99095e-16
-8.29489e-16
-7.2607e-16
-6.22393e-16
-5.10781e-16
-3.20626e-16
-3.09133e-17
-3.0299e-15
-3.92944e-14
1.43345e-14
-7.41905e-15
2.70058e-15
-2.11789e-15
-4.71696e-16
-1.13862e-15
-8.88165e-16
-9.62914e-16
-9.25726e-16
-9.1937e-16
-8.88334e-16
-8.4397e-16
-7.74866e-16
-6.8422e-16
-5.85584e-16
-4.70239e-16
-3.01374e-16
-2.91786e-17
9.54265e-13
-3.81692e-13
1.19243e-13
-3.55581e-14
7.79891e-15
-4.38139e-15
-4.16808e-16
-1.33681e-15
-9.17716e-16
-9.48846e-16
-8.80298e-16
-8.54277e-16
-8.14514e-16
-7.70332e-16
-7.07781e-16
-6.16925e-16
-5.28813e-16
-4.36439e-16
-2.71315e-16
-2.55872e-17
-1.02917e-12
4.20701e-13
-1.45098e-13
3.62066e-14
-1.44809e-14
1.6529e-15
-2.50704e-15
-8.76937e-16
-1.09421e-15
-8.59813e-16
-8.22184e-16
-7.60839e-16
-7.21489e-16
-6.74143e-16
-6.14831e-16
-5.44358e-16
-4.66553e-16
-3.7098e-16
-2.37827e-16
-2.27411e-17
2.34202e-14
2.76691e-14
-1.65669e-14
2.94037e-15
-5.94687e-15
-1.13256e-15
-1.99094e-15
-1.06326e-15
-1.015e-15
-7.9081e-16
-7.18406e-16
-6.46781e-16
-6.01583e-16
-5.59137e-16
-5.11818e-16
-4.44462e-16
-3.81714e-16
-3.17332e-16
-1.93896e-16
-1.76318e-17
-1.10625e-12
4.77117e-13
-1.60172e-13
4.31188e-14
-1.75388e-14
2.41671e-15
-2.9251e-15
-7.12931e-16
-1.00111e-15
-6.51321e-16
-5.91412e-16
-5.03951e-16
-4.62527e-16
-4.22392e-16
-3.81727e-16
-3.42283e-16
-2.95547e-16
-2.29553e-16
-1.47187e-16
-1.41082e-17
2.03632e-13
-8.62734e-14
2.14042e-14
-9.85041e-15
-1.05248e-15
-2.54594e-15
-1.32935e-15
-1.05934e-15
-7.39135e-16
-5.39065e-16
-4.22005e-16
-3.44376e-16
-2.9886e-16
-2.69492e-16
-2.46094e-16
-2.13757e-16
-1.86022e-16
-1.58355e-16
-9.2618e-17
-7.83336e-18
-2.00691e-13
1.31875e-13
-5.15537e-14
1.49537e-14
-9.39289e-15
3.84892e-18
-2.08623e-15
-5.82237e-16
-6.68682e-16
-3.47189e-16
-2.50153e-16
-1.6013e-16
-1.22677e-16
-9.9008e-17
-8.55503e-17
-8.69937e-17
-8.05494e-17
-5.39391e-17
-3.62327e-17
-4.01155e-18
-7.24672e-13
2.49187e-13
-8.0429e-14
1.57086e-14
-5.73317e-15
-3.41632e-16
-1.6089e-15
-8.03543e-16
-4.47742e-16
-1.93625e-16
-4.74406e-17
3.55076e-17
7.29397e-17
8.29482e-17
7.47015e-17
6.23077e-17
4.66885e-17
2.9619e-17
2.38728e-17
2.76472e-18
1.1873e-12
-3.82796e-13
1.07757e-13
-2.43015e-14
1.77779e-15
-2.01467e-15
-1.04218e-15
-6.28946e-16
-2.76065e-16
2.60818e-17
1.59046e-16
2.50864e-16
2.7717e-16
2.77739e-16
2.56048e-16
2.05511e-16
1.63599e-16
1.42329e-16
8.51573e-17
6.09864e-18
-2.98361e-12
1.10469e-12
-3.24283e-13
8.61426e-14
-2.24622e-14
4.84815e-15
-2.60236e-15
8.25552e-17
-1.54289e-16
3.18796e-16
3.98322e-16
4.83263e-16
4.99539e-16
4.81189e-16
4.31851e-16
3.64875e-16
2.98176e-16
2.32311e-16
1.46374e-16
1.22786e-17
4.05394e-12
-1.44924e-12
4.50228e-13
-1.13127e-13
2.35607e-14
-8.66305e-15
6.93503e-16
-3.042e-16
3.78095e-16
5.06268e-16
6.74455e-16
7.36614e-16
7.32514e-16
6.93076e-16
6.23342e-16
5.14129e-16
4.15981e-16
3.43638e-16
2.08763e-16
1.4325e-17
-6.70394e-12
2.6285e-12
-8.71616e-13
2.30663e-13
-6.95112e-14
1.804e-14
-5.6414e-15
1.8873e-15
1.69481e-16
1.02147e-15
9.47037e-16
1.02963e-15
9.78736e-16
9.10655e-16
8.0294e-16
6.69332e-16
5.43802e-16
4.32542e-16
2.67588e-16
1.89058e-17
4.98354e-12
-1.81821e-12
5.88266e-13
-1.52952e-13
3.50173e-14
-1.13537e-14
2.69828e-15
2.49339e-16
1.32083e-15
1.31013e-15
1.37053e-15
1.32785e-15
1.23817e-15
1.12523e-15
9.86793e-16
8.08713e-16
6.48983e-16
5.29186e-16
3.24461e-16
2.0112e-17
-1.15676e-11
4.81356e-12
-1.58251e-12
4.57156e-13
-1.38088e-13
4.31759e-14
-1.06781e-14
5.68376e-15
8.61941e-16
2.23795e-15
1.69314e-15
1.67851e-15
1.48378e-15
1.32984e-15
1.14499e-15
9.37713e-16
7.53785e-16
6.01725e-16
3.68459e-16
2.35407e-17
-8.35056e-13
6.5794e-13
-2.06846e-13
7.92922e-14
-2.83134e-14
1.32601e-14
3.84912e-16
4.52654e-15
2.58489e-15
2.66884e-15
2.18295e-15
1.96742e-15
1.7129e-15
1.50188e-15
1.28368e-15
1.04114e-15
8.29564e-16
6.64833e-16
4.02212e-16
2.41913e-17
-5.66982e-12
2.34102e-12
-7.26334e-13
2.27034e-13
-4.28391e-14
2.65604e-14
2.48406e-15
6.28648e-15
3.53778e-15
3.19715e-15
2.5611e-15
2.20473e-15
1.88988e-15
1.63217e-15
1.3812e-15
1.10976e-15
8.8723e-16
7.2277e-16
4.37428e-16
2.20635e-17
1.64803e-11
-7.28198e-12
2.40061e-12
-6.98947e-13
2.46165e-13
-5.82174e-14
3.04413e-14
-7.31694e-16
6.57108e-15
2.82316e-15
3.0103e-15
2.28574e-15
2.01248e-15
1.69904e-15
1.43621e-15
1.14365e-15
9.14877e-16
7.66924e-16
4.74718e-16
1.92852e-17
)
;

boundaryField
{
    movingWall
    {
        type            zeroGradient;
    }
    fixedWalls
    {
        type            zeroGradient;
    }
    frontAndBack
    {
        type            empty;
    }
}


// ************************************************************************* //
