/*--------------------------------*- C++ -*----------------------------------*\
| =========                 |                                                 |
| \\      /  F ield         | OpenFOAM: The Open Source CFD Toolbox           |
|  \\    /   O peration     | Version:  2506                                  |
|   \\  /    A nd           | Website:  www.openfoam.com                      |
|    \\/     M anipulation  |                                                 |
\*---------------------------------------------------------------------------*/
FoamFile
{
    version     2.0;
    format      ascii;
    arch        "LSB;label=32;scalar=64";
    class       volScalarField;
    location    "3";
    object      k2;
}
// * * * * * * * * * * * * * * * * * * * * * * * * * * * * * * * * * * * * * //

dimensions      [0 4 -4 0 0 0 0];

internalField   nonuniform List<scalar> 
400
(
3.80593e-09
3.80557e-09
3.80519e-09
3.80496e-09
3.80462e-09
3.80447e-09
3.80414e-09
3.80409e-09
3.80378e-09
3.80371e-09
3.80351e-09
3.80345e-09
3.8033e-09
3.80327e-09
3.80318e-09
3.80316e-09
3.8031e-09
3.80309e-09
3.80307e-09
3.80307e-09
1.08407e-08
1.08395e-08
1.08222e-08
1.08155e-08
1.08034e-08
1.07973e-08
1.07872e-08
1.07818e-08
1.07735e-08
1.07688e-08
1.07621e-08
1.07584e-08
1.07532e-08
1.07505e-08
1.07467e-08
1.0745e-08
1.07427e-08
1.07418e-08
1.0741e-08
1.07407e-08
2.98493e-08
2.98427e-08
2.97641e-08
2.97327e-08
2.96765e-08
2.96489e-08
2.96011e-08
2.95774e-08
2.9538e-08
2.95182e-08
2.94861e-08
2.94703e-08
2.94455e-08
2.94335e-08
2.9416e-08
2.94076e-08
2.93977e-08
2.93934e-08
2.93899e-08
2.93886e-08
5.36397e-08
5.36231e-08
5.34292e-08
5.33516e-08
5.32157e-08
5.31457e-08
5.30305e-08
5.29711e-08
5.28738e-08
5.28248e-08
5.27459e-08
5.27068e-08
5.2646e-08
5.26163e-08
5.25735e-08
5.25535e-08
5.25288e-08
5.25177e-08
5.25094e-08
5.25061e-08
7.28218e-08
7.2794e-08
7.24819e-08
7.23578e-08
7.21381e-08
7.20273e-08
7.18418e-08
7.17466e-08
7.15902e-08
7.15118e-08
7.13839e-08
7.13219e-08
7.12234e-08
7.11766e-08
7.11077e-08
7.10756e-08
7.10357e-08
7.10181e-08
7.10048e-08
7.09995e-08
8.51149e-08
8.50784e-08
8.4679e-08
8.45196e-08
8.42411e-08
8.40995e-08
8.38596e-08
8.37405e-08
8.35399e-08
8.34401e-08
8.3278e-08
8.31982e-08
8.30733e-08
8.30124e-08
8.29251e-08
8.28841e-08
8.28336e-08
8.28111e-08
8.27941e-08
8.27874e-08
9.26218e-08
9.25799e-08
9.21223e-08
9.19422e-08
9.1626e-08
9.14607e-08
9.11887e-08
9.10519e-08
9.08212e-08
9.07096e-08
9.0524e-08
9.04336e-08
9.02908e-08
9.02229e-08
9.01222e-08
9.00761e-08
9.00176e-08
8.99923e-08
8.99729e-08
8.99652e-08
9.7516e-08
9.74699e-08
9.69741e-08
9.67791e-08
9.64354e-08
9.62567e-08
9.59628e-08
9.58131e-08
9.55663e-08
9.54432e-08
9.52423e-08
9.5145e-08
9.49894e-08
9.49169e-08
9.48073e-08
9.47578e-08
9.46943e-08
9.4667e-08
9.4646e-08
9.46377e-08
1.01195e-07
1.01146e-07
1.00621e-07
1.00414e-07
1.00049e-07
9.98597e-08
9.95532e-08
9.93899e-08
9.91324e-08
9.89985e-08
9.87892e-08
9.86835e-08
9.85216e-08
9.8443e-08
9.83277e-08
9.8275e-08
9.82079e-08
9.81789e-08
9.81567e-08
9.81479e-08
1.04413e-07
1.0436e-07
1.03813e-07
1.03594e-07
1.03206e-07
1.03016e-07
1.02685e-07
1.02523e-07
1.02246e-07
1.0211e-07
1.01887e-07
1.01778e-07
1.01606e-07
1.01524e-07
1.01404e-07
1.01348e-07
1.01279e-07
1.01248e-07
1.01225e-07
1.01216e-07
1.07594e-07
1.07538e-07
1.06963e-07
1.06735e-07
1.06335e-07
1.06126e-07
1.05788e-07
1.0561e-07
1.05328e-07
1.05181e-07
1.04949e-07
1.04835e-07
1.04656e-07
1.0457e-07
1.04445e-07
1.04386e-07
1.04313e-07
1.04281e-07
1.04257e-07
1.04247e-07
1.11005e-07
1.10945e-07
1.10343e-07
1.10104e-07
1.09682e-07
1.09469e-07
1.09108e-07
1.08928e-07
1.08624e-07
1.08476e-07
1.0823e-07
1.08112e-07
1.07924e-07
1.07834e-07
1.07703e-07
1.07641e-07
1.07565e-07
1.07531e-07
1.07506e-07
1.07495e-07
1.14843e-07
1.1478e-07
1.14146e-07
1.13894e-07
1.1345e-07
1.13222e-07
1.12848e-07
1.12653e-07
1.1234e-07
1.12178e-07
1.11925e-07
1.11796e-07
1.11599e-07
1.11504e-07
1.11366e-07
1.11301e-07
1.11221e-07
1.11185e-07
1.11159e-07
1.11148e-07
1.19294e-07
1.19225e-07
1.18555e-07
1.18288e-07
1.17816e-07
1.17577e-07
1.17177e-07
1.16974e-07
1.1664e-07
1.16471e-07
1.16199e-07
1.16066e-07
1.15856e-07
1.15755e-07
1.15609e-07
1.1554e-07
1.15456e-07
1.15418e-07
1.1539e-07
1.15379e-07
1.24567e-07
1.24493e-07
1.2378e-07
1.23494e-07
1.22986e-07
1.22734e-07
1.22305e-07
1.22087e-07
1.21733e-07
1.2155e-07
1.21264e-07
1.21119e-07
1.20897e-07
1.20789e-07
1.20633e-07
1.2056e-07
1.20469e-07
1.20429e-07
1.20399e-07
1.20387e-07
1.30963e-07
1.30883e-07
1.30109e-07
1.29802e-07
1.29258e-07
1.28982e-07
1.28524e-07
1.28286e-07
1.27904e-07
1.27708e-07
1.27395e-07
1.27242e-07
1.27001e-07
1.26887e-07
1.26717e-07
1.26639e-07
1.2654e-07
1.26498e-07
1.26465e-07
1.26452e-07
1.38955e-07
1.38865e-07
1.38021e-07
1.37684e-07
1.37087e-07
1.36788e-07
1.36283e-07
1.36027e-07
1.35605e-07
1.35394e-07
1.3505e-07
1.34884e-07
1.3462e-07
1.34495e-07
1.3431e-07
1.34224e-07
1.34117e-07
1.3407e-07
1.34034e-07
1.3402e-07
1.49015e-07
1.48915e-07
1.47979e-07
1.47608e-07
1.46939e-07
1.46615e-07
1.4605e-07
1.4577e-07
1.45301e-07
1.45066e-07
1.44689e-07
1.44501e-07
1.44211e-07
1.4407e-07
1.43865e-07
1.4377e-07
1.43651e-07
1.43599e-07
1.4356e-07
1.43544e-07
1.59877e-07
1.59818e-07
1.58833e-07
1.58444e-07
1.57753e-07
1.57407e-07
1.56819e-07
1.56522e-07
1.56023e-07
1.55777e-07
1.5537e-07
1.55172e-07
1.54856e-07
1.54704e-07
1.54482e-07
1.54377e-07
1.54249e-07
1.54191e-07
1.54149e-07
1.54131e-07
1.6204e-07
1.61994e-07
1.61977e-07
1.61958e-07
1.61937e-07
1.61929e-07
1.61907e-07
1.61908e-07
1.61887e-07
1.61891e-07
1.61875e-07
1.61879e-07
1.61869e-07
1.6187e-07
1.61866e-07
1.61866e-07
1.61865e-07
1.61865e-07
1.61865e-07
1.61865e-07
)
;

boundaryField
{
    movingWall
    {
        type            calculated;
        value           nonuniform List<scalar> 
20
(
1.6204e-07
1.61994e-07
1.61977e-07
1.61958e-07
1.61937e-07
1.61929e-07
1.61907e-07
1.61908e-07
1.61887e-07
1.61891e-07
1.61875e-07
1.61879e-07
1.61869e-07
1.6187e-07
1.61866e-07
1.61866e-07
1.61865e-07
1.61865e-07
1.61865e-07
1.61865e-07
)
;
    }
    fixedWalls
    {
        type            calculated;
        value           nonuniform List<scalar> 
60
(
3.80593e-09
1.08407e-08
2.98493e-08
5.36397e-08
7.28218e-08
8.51149e-08
9.26218e-08
9.7516e-08
1.01195e-07
1.04413e-07
1.07594e-07
1.11005e-07
1.14843e-07
1.19294e-07
1.24567e-07
1.30963e-07
1.38955e-07
1.49015e-07
1.59877e-07
1.6204e-07
3.80307e-09
1.07407e-08
2.93886e-08
5.25061e-08
7.09995e-08
8.27874e-08
8.99652e-08
9.46377e-08
9.81479e-08
1.01216e-07
1.04247e-07
1.07495e-07
1.11148e-07
1.15379e-07
1.20387e-07
1.26452e-07
1.3402e-07
1.43544e-07
1.54131e-07
1.61865e-07
3.80593e-09
3.80557e-09
3.80519e-09
3.80496e-09
3.80462e-09
3.80447e-09
3.80414e-09
3.80409e-09
3.80378e-09
3.80371e-09
3.80351e-09
3.80345e-09
3.8033e-09
3.80327e-09
3.80318e-09
3.80316e-09
3.8031e-09
3.80309e-09
3.80307e-09
3.80307e-09
)
;
    }
    frontAndBack
    {
        type            empty;
    }
}


// ************************************************************************* //
