/*--------------------------------*- C++ -*----------------------------------*\
| =========                 |                                                 |
| \\      /  F ield         | OpenFOAM: The Open Source CFD Toolbox           |
|  \\    /   O peration     | Version:  2506                                  |
|   \\  /    A nd           | Website:  www.openfoam.com                      |
|    \\/     M anipulation  |                                                 |
\*---------------------------------------------------------------------------*/
FoamFile
{
    version     2.0;
    format      ascii;
    arch        "LSB;label=32;scalar=64";
    class       volScalarField;
    location    "3";
    object      kDiff;
}
// * * * * * * * * * * * * * * * * * * * * * * * * * * * * * * * * * * * * * //

dimensions      [0 2 -2 0 0 0 0];

internalField   nonuniform List<scalar> 
400
(
-2.62703e-07
-2.63004e-07
-2.62397e-07
-2.63263e-07
-2.61752e-07
-2.63514e-07
-2.61804e-07
-2.62819e-07
-2.61898e-07
-2.62653e-07
-2.62358e-07
-2.62247e-07
-2.62678e-07
-2.62124e-07
-2.62672e-07
-2.62206e-07
-2.62537e-07
-2.62328e-07
-2.6239e-07
-2.6238e-07
-7.54922e-07
-7.53638e-07
-7.55887e-07
-7.51723e-07
-7.53891e-07
-7.50491e-07
-7.52874e-07
-7.49414e-07
-7.51855e-07
-7.4856e-07
-7.51024e-07
-7.47934e-07
-7.50219e-07
-7.47856e-07
-7.49628e-07
-7.47962e-07
-7.48449e-07
-7.4811e-07
-7.48121e-07
-7.48112e-07
-1.83888e-06
-1.83257e-06
-1.84708e-06
-1.83115e-06
-1.83369e-06
-1.83217e-06
-1.82104e-06
-1.83026e-06
-1.81376e-06
-1.82777e-06
-1.8094e-06
-1.82257e-06
-1.81051e-06
-1.81791e-06
-1.81196e-06
-1.81552e-06
-1.80924e-06
-1.81345e-06
-1.81144e-06
-1.81203e-06
-2.89533e-06
-2.88302e-06
-2.91147e-06
-2.8772e-06
-2.8792e-06
-2.87162e-06
-2.86709e-06
-2.86537e-06
-2.8567e-06
-2.86199e-06
-2.84192e-06
-2.85696e-06
-2.8361e-06
-2.85076e-06
-2.83263e-06
-2.8432e-06
-2.8353e-06
-2.83891e-06
-2.83686e-06
-2.8372e-06
-3.62049e-06
-3.6053e-06
-3.63352e-06
-3.59173e-06
-3.59492e-06
-3.58e-06
-3.57726e-06
-3.56803e-06
-3.56626e-06
-3.56006e-06
-3.55002e-06
-3.55184e-06
-3.53945e-06
-3.54181e-06
-3.53721e-06
-3.53606e-06
-3.53352e-06
-3.53321e-06
-3.53216e-06
-3.5321e-06
-4.04268e-06
-4.03622e-06
-4.03574e-06
-4.00959e-06
-4.00626e-06
-3.99649e-06
-3.98516e-06
-3.98e-06
-3.97052e-06
-3.97401e-06
-3.9442e-06
-3.96451e-06
-3.93503e-06
-3.95353e-06
-3.9275e-06
-3.94214e-06
-3.92971e-06
-3.93524e-06
-3.93193e-06
-3.93241e-06
-4.2865e-06
-4.26499e-06
-4.30835e-06
-4.24141e-06
-4.25506e-06
-4.23374e-06
-4.22837e-06
-4.21455e-06
-4.21192e-06
-4.19507e-06
-4.19929e-06
-4.18264e-06
-4.18849e-06
-4.17461e-06
-4.17809e-06
-4.17117e-06
-4.16837e-06
-4.16802e-06
-4.16657e-06
-4.16646e-06
-4.44619e-06
-4.42397e-06
-4.46709e-06
-4.39808e-06
-4.41294e-06
-4.38738e-06
-4.3853e-06
-4.3661e-06
-4.36745e-06
-4.34822e-06
-4.35301e-06
-4.3341e-06
-4.34168e-06
-4.32501e-06
-4.33071e-06
-4.32118e-06
-4.32095e-06
-4.31856e-06
-4.31791e-06
-4.3175e-06
-4.5683e-06
-4.54958e-06
-4.57974e-06
-4.51957e-06
-4.53184e-06
-4.50139e-06
-4.50458e-06
-4.48297e-06
-4.48431e-06
-4.46408e-06
-4.46879e-06
-4.44939e-06
-4.45688e-06
-4.44146e-06
-4.44457e-06
-4.43713e-06
-4.43412e-06
-4.43362e-06
-4.4321e-06
-4.43195e-06
-4.67752e-06
-4.67217e-06
-4.65784e-06
-4.63883e-06
-4.62506e-06
-4.61449e-06
-4.60058e-06
-4.59031e-06
-4.58624e-06
-4.58065e-06
-4.55475e-06
-4.56842e-06
-4.5404e-06
-4.5529e-06
-4.53475e-06
-4.54051e-06
-4.53397e-06
-4.53468e-06
-4.53274e-06
-4.53267e-06
-4.77786e-06
-4.75171e-06
-4.80359e-06
-4.72555e-06
-4.73915e-06
-4.71155e-06
-4.70758e-06
-4.68912e-06
-4.68643e-06
-4.67142e-06
-4.66998e-06
-4.65614e-06
-4.65488e-06
-4.64557e-06
-4.64242e-06
-4.64049e-06
-4.63257e-06
-4.6351e-06
-4.6322e-06
-4.63243e-06
-4.89413e-06
-4.87914e-06
-4.88973e-06
-4.84409e-06
-4.84602e-06
-4.82368e-06
-4.81682e-06
-4.80151e-06
-4.79326e-06
-4.78084e-06
-4.77539e-06
-4.76358e-06
-4.76268e-06
-4.75543e-06
-4.74603e-06
-4.74879e-06
-4.73828e-06
-4.74216e-06
-4.73877e-06
-4.7391e-06
-5.01748e-06
-4.99143e-06
-5.03787e-06
-4.96225e-06
-4.97264e-06
-4.94368e-06
-4.93938e-06
-4.92145e-06
-4.91667e-06
-4.89937e-06
-4.8986e-06
-4.88461e-06
-4.88461e-06
-4.87728e-06
-4.86286e-06
-4.87161e-06
-4.85364e-06
-4.86293e-06
-4.85725e-06
-4.85833e-06
-5.16084e-06
-5.13041e-06
-5.18943e-06
-5.10591e-06
-5.11352e-06
-5.08749e-06
-5.07867e-06
-5.06198e-06
-5.05727e-06
-5.04552e-06
-5.03251e-06
-5.03723e-06
-5.00319e-06
-5.02219e-06
-4.99421e-06
-5.007e-06
-4.99409e-06
-4.99861e-06
-4.99493e-06
-4.99526e-06
-5.33462e-06
-5.31649e-06
-5.32901e-06
-5.28207e-06
-5.27755e-06
-5.25364e-06
-5.24409e-06
-5.22524e-06
-5.21839e-06
-5.20371e-06
-5.19929e-06
-5.18908e-06
-5.17847e-06
-5.18118e-06
-5.15611e-06
-5.17297e-06
-5.14807e-06
-5.16145e-06
-5.15397e-06
-5.15555e-06
-5.54128e-06
-5.53356e-06
-5.51284e-06
-5.47972e-06
-5.48042e-06
-5.44567e-06
-5.4466e-06
-5.41792e-06
-5.4183e-06
-5.39407e-06
-5.39642e-06
-5.37217e-06
-5.38041e-06
-5.35912e-06
-5.36513e-06
-5.35363e-06
-5.3505e-06
-5.34908e-06
-5.34725e-06
-5.34696e-06
-5.79123e-06
-5.77693e-06
-5.77103e-06
-5.72801e-06
-5.72459e-06
-5.69349e-06
-5.68709e-06
-5.66313e-06
-5.65748e-06
-5.63916e-06
-5.63197e-06
-5.6177e-06
-5.61198e-06
-5.60518e-06
-5.5928e-06
-5.59675e-06
-5.58139e-06
-5.58769e-06
-5.58265e-06
-5.5833e-06
-6.11782e-06
-6.12615e-06
-6.04218e-06
-6.06084e-06
-6.02534e-06
-6.00284e-06
-6.00024e-06
-5.96595e-06
-5.96913e-06
-5.93685e-06
-5.94244e-06
-5.91382e-06
-5.92247e-06
-5.90026e-06
-5.90328e-06
-5.89313e-06
-5.88656e-06
-5.88684e-06
-5.88389e-06
-5.88381e-06
-6.45548e-06
-6.42909e-06
-6.46336e-06
-6.38924e-06
-6.3851e-06
-6.35375e-06
-6.34187e-06
-6.32259e-06
-6.31104e-06
-6.30093e-06
-6.26955e-06
-6.28192e-06
-6.245e-06
-6.26196e-06
-6.22747e-06
-6.2405e-06
-6.22775e-06
-6.23017e-06
-6.22652e-06
-6.22651e-06
-6.49019e-06
-6.49243e-06
-6.48549e-06
-6.49469e-06
-6.47723e-06
-6.49564e-06
-6.47636e-06
-6.49094e-06
-6.47584e-06
-6.48961e-06
-6.47742e-06
-6.48663e-06
-6.47997e-06
-6.48375e-06
-6.4817e-06
-6.48277e-06
-6.48238e-06
-6.48258e-06
-6.4826e-06
-6.48261e-06
)
;

boundaryField
{
    movingWall
    {
        type            calculated;
        value           nonuniform List<scalar> 
20
(
-6.49019e-06
-6.49243e-06
-6.48549e-06
-6.49469e-06
-6.47723e-06
-6.49564e-06
-6.47636e-06
-6.49094e-06
-6.47584e-06
-6.48961e-06
-6.47742e-06
-6.48663e-06
-6.47997e-06
-6.48375e-06
-6.4817e-06
-6.48277e-06
-6.48238e-06
-6.48258e-06
-6.4826e-06
-6.48261e-06
)
;
    }
    fixedWalls
    {
        type            calculated;
        value           nonuniform List<scalar> 
60
(
-2.62703e-07
-7.54922e-07
-1.83888e-06
-2.89533e-06
-3.62049e-06
-4.04268e-06
-4.2865e-06
-4.44619e-06
-4.5683e-06
-4.67752e-06
-4.77786e-06
-4.89413e-06
-5.01748e-06
-5.16084e-06
-5.33462e-06
-5.54128e-06
-5.79123e-06
-6.11782e-06
-6.45548e-06
-6.49019e-06
-2.6238e-07
-7.48112e-07
-1.81203e-06
-2.8372e-06
-3.5321e-06
-3.93241e-06
-4.16646e-06
-4.3175e-06
-4.43195e-06
-4.53267e-06
-4.63243e-06
-4.7391e-06
-4.85833e-06
-4.99526e-06
-5.15555e-06
-5.34696e-06
-5.5833e-06
-5.88381e-06
-6.22651e-06
-6.48261e-06
-2.62703e-07
-2.63004e-07
-2.62397e-07
-2.63263e-07
-2.61752e-07
-2.63514e-07
-2.61804e-07
-2.62819e-07
-2.61898e-07
-2.62653e-07
-2.62358e-07
-2.62247e-07
-2.62678e-07
-2.62124e-07
-2.62672e-07
-2.62206e-07
-2.62537e-07
-2.62328e-07
-2.6239e-07
-2.6238e-07
)
;
    }
    frontAndBack
    {
        type            empty;
    }
}


// ************************************************************************* //
