/*--------------------------------*- C++ -*----------------------------------*\
| =========                 |                                                 |
| \\      /  F ield         | OpenFOAM: The Open Source CFD Toolbox           |
|  \\    /   O peration     | Version:  2506                                  |
|   \\  /    A nd           | Website:  www.openfoam.com                      |
|    \\/     M anipulation  |                                                 |
\*---------------------------------------------------------------------------*/
FoamFile
{
    version     2.0;
    format      ascii;
    arch        "LSB;label=32;scalar=64";
    class       volScalarField;
    location    "3";
    object      kTotal;
}
// * * * * * * * * * * * * * * * * * * * * * * * * * * * * * * * * * * * * * //

dimensions      [0 2 -2 0 0 0 0];

internalField   nonuniform List<scalar> 
400
(
0.000123385
0.000123379
0.000123373
0.000123369
0.000123363
0.000123361
0.000123356
0.000123355
0.00012335
0.000123349
0.000123345
0.000123344
0.000123342
0.000123342
0.00012334
0.00012334
0.000123339
0.000123339
0.000123338
0.000123338
0.000208238
0.000208227
0.000208061
0.000207996
0.00020788
0.000207822
0.000207725
0.000207672
0.000207592
0.000207547
0.000207483
0.000207447
0.000207397
0.000207371
0.000207334
0.000207317
0.000207295
0.000207286
0.000207279
0.000207276
0.000345544
0.000345506
0.00034505
0.000344868
0.000344542
0.000344382
0.000344105
0.000343967
0.000343737
0.000343622
0.000343435
0.000343343
0.000343199
0.000343129
0.000343027
0.000342978
0.00034292
0.000342895
0.000342875
0.000342867
0.000463214
0.000463142
0.000462304
0.000461968
0.000461379
0.000461076
0.000460576
0.000460318
0.000459895
0.000459682
0.000459338
0.000459168
0.000458903
0.000458774
0.000458587
0.0004585
0.000458392
0.000458344
0.000458307
0.000458293
0.000539722
0.000539619
0.000538461
0.000538
0.000537183
0.00053677
0.000536078
0.000535723
0.000535139
0.000534846
0.000534367
0.000534135
0.000533766
0.000533591
0.000533332
0.000533212
0.000533062
0.000532996
0.000532946
0.000532926
0.000583503
0.000583378
0.000582007
0.000581459
0.0005805
0.000580012
0.000579184
0.000578773
0.000578079
0.000577734
0.000577172
0.000576896
0.000576462
0.000576251
0.000575948
0.000575805
0.00057563
0.000575552
0.000575493
0.000575469
0.000608692
0.000608554
0.000607048
0.000606454
0.000605411
0.000604864
0.000603964
0.000603511
0.000602746
0.000602375
0.000601759
0.000601458
0.000600983
0.000600757
0.000600422
0.000600268
0.000600073
0.000599989
0.000599924
0.000599898
0.000624567
0.000624419
0.000622829
0.000622202
0.000621097
0.000620521
0.000619573
0.000619089
0.000618292
0.000617893
0.000617242
0.000616927
0.000616422
0.000616187
0.000615831
0.00061567
0.000615464
0.000615375
0.000615307
0.00061528
0.000636241
0.000636085
0.000634433
0.000633781
0.000632626
0.000632028
0.000631057
0.000630539
0.000629722
0.000629297
0.000628631
0.000628294
0.000627779
0.000627528
0.000627161
0.000626992
0.000626779
0.000626686
0.000626615
0.000626587
0.000646278
0.000646112
0.000644416
0.000643737
0.000642532
0.00064194
0.000640906
0.000640399
0.000639535
0.000639111
0.000638411
0.00063807
0.000637531
0.000637273
0.000636897
0.00063672
0.000636503
0.000636406
0.000636333
0.000636304
0.000656047
0.000655877
0.000654121
0.000653424
0.000652198
0.000651558
0.000650518
0.000649972
0.000649102
0.00064865
0.000647935
0.000647583
0.000647027
0.000646764
0.000646374
0.000646193
0.000645967
0.000645868
0.000645793
0.000645763
0.000666365
0.000666185
0.000664378
0.000663657
0.000662384
0.000661738
0.000660647
0.000660101
0.00065918
0.000658732
0.000657984
0.000657626
0.000657053
0.00065678
0.000656379
0.000656191
0.000655958
0.000655855
0.000655778
0.000655747
0.000677789
0.000677601
0.000675728
0.000674982
0.000673665
0.000672989
0.000671876
0.000671295
0.00067036
0.000669876
0.000669122
0.000668735
0.000668147
0.000667863
0.000667449
0.000667254
0.000667013
0.000666907
0.000666827
0.000666795
0.000690798
0.000690599
0.000688657
0.00068788
0.000686507
0.000685808
0.000684642
0.000684047
0.000683069
0.000682576
0.000681779
0.000681387
0.000680771
0.000680475
0.000680044
0.000679842
0.000679594
0.000679482
0.0006794
0.000679367
0.000705901
0.00070569
0.000703667
0.000702853
0.000701408
0.000700688
0.000699462
0.00069884
0.000697826
0.000697301
0.000696478
0.000696062
0.000695425
0.000695113
0.000694666
0.000694453
0.000694191
0.000694076
0.000693989
0.000693955
0.000723798
0.000723576
0.000721433
0.000720581
0.00071907
0.000718302
0.000717026
0.00071636
0.000715293
0.000714745
0.00071387
0.000713441
0.000712764
0.000712444
0.000711966
0.000711748
0.00071147
0.00071135
0.000711259
0.000711222
0.000745557
0.000745314
0.000743047
0.000742139
0.000740528
0.00073972
0.000738353
0.000737657
0.000736514
0.00073594
0.000735004
0.000734553
0.000733834
0.000733492
0.000732989
0.000732753
0.000732461
0.000732332
0.000732236
0.000732197
0.000772073
0.000771815
0.000769385
0.000768419
0.000766675
0.00076583
0.000764354
0.000763619
0.000762391
0.000761773
0.000760783
0.000760288
0.000759525
0.000759155
0.000758614
0.000758364
0.000758049
0.000757912
0.000757809
0.000757767
0.000799718
0.00079957
0.000797103
0.000796127
0.000794388
0.000793516
0.000792033
0.000791282
0.00079002
0.000789397
0.000788366
0.000787861
0.000787061
0.000786673
0.000786108
0.000785842
0.000785516
0.000785368
0.00078526
0.000785216
0.000805111
0.000804997
0.000804954
0.000804907
0.000804855
0.000804834
0.00080478
0.000804783
0.000804731
0.000804741
0.000804701
0.000804709
0.000804685
0.000804688
0.000804679
0.000804679
0.000804676
0.000804676
0.000804676
0.000804676
)
;

boundaryField
{
    movingWall
    {
        type            calculated;
        value           nonuniform List<scalar> 
20
(
0.000805111
0.000804997
0.000804954
0.000804907
0.000804855
0.000804834
0.00080478
0.000804783
0.000804731
0.000804741
0.000804701
0.000804709
0.000804685
0.000804688
0.000804679
0.000804679
0.000804676
0.000804676
0.000804676
0.000804676
)
;
    }
    fixedWalls
    {
        type            calculated;
        value           nonuniform List<scalar> 
60
(
0.000123385
0.000208238
0.000345544
0.000463214
0.000539722
0.000583503
0.000608692
0.000624567
0.000636241
0.000646278
0.000656047
0.000666365
0.000677789
0.000690798
0.000705901
0.000723798
0.000745557
0.000772073
0.000799718
0.000805111
0.000123338
0.000207276
0.000342867
0.000458293
0.000532926
0.000575469
0.000599898
0.00061528
0.000626587
0.000636304
0.000645763
0.000655747
0.000666795
0.000679367
0.000693955
0.000711222
0.000732197
0.000757767
0.000785216
0.000804676
0.000123385
0.000123379
0.000123373
0.000123369
0.000123363
0.000123361
0.000123356
0.000123355
0.00012335
0.000123349
0.000123345
0.000123344
0.000123342
0.000123342
0.00012334
0.00012334
0.000123339
0.000123339
0.000123338
0.000123338
)
;
    }
    frontAndBack
    {
        type            empty;
    }
}


// ************************************************************************* //
