/*--------------------------------*- C++ -*----------------------------------*\
| =========                 |                                                 |
| \\      /  F ield         | OpenFOAM: The Open Source CFD Toolbox           |
|  \\    /   O peration     | Version:  2506                                  |
|   \\  /    A nd           | Website:  www.openfoam.com                      |
|    \\/     M anipulation  |                                                 |
\*---------------------------------------------------------------------------*/
FoamFile
{
    version     2.0;
    format      ascii;
    arch        "LSB;label=32;scalar=64";
    class       volVectorField;
    location    "3";
    object      kU;
}
// * * * * * * * * * * * * * * * * * * * * * * * * * * * * * * * * * * * * * //

dimensions      [0 3 -3 0 0 0 0];

internalField   nonuniform List<vector> 
400
(
(-6.1561e-05 2.14562e-11 0)
(-6.15579e-05 -5.1305e-12 0)
(-6.15551e-05 1.22387e-12 0)
(-6.15529e-05 -2.98058e-13 0)
(-6.15508e-05 6.96479e-14 0)
(-6.15488e-05 -1.93218e-14 0)
(-6.15469e-05 2.72504e-15 0)
(-6.1546e-05 -2.28374e-15 0)
(-6.1544e-05 -6.56334e-16 0)
(-6.1543e-05 -7.07079e-16 0)
(-6.15416e-05 -4.05667e-16 0)
(-6.15411e-05 -2.54207e-16 0)
(-6.15397e-05 -1.23799e-16 0)
(-6.15398e-05 -4.00347e-17 0)
(-6.15387e-05 1.29841e-17 0)
(-6.15388e-05 4.21848e-17 0)
(-6.15381e-05 5.47385e-17 0)
(-6.15382e-05 4.72606e-17 0)
(-6.1538e-05 1.96133e-17 0)
(-6.1538e-05 5.7135e-18 0)
(-0.000103742 -3.70704e-11 0)
(-0.000103737 8.90345e-12 0)
(-0.000103652 -2.13741e-12 0)
(-0.000103622 5.09841e-13 0)
(-0.000103563 -1.38345e-13 0)
(-0.000103536 2.16438e-14 0)
(-0.000103486 -1.62273e-14 0)
(-0.000103461 -4.36524e-15 0)
(-0.00010342 -5.20377e-15 0)
(-0.000103399 -3.11996e-15 0)
(-0.000103366 -2.14784e-15 0)
(-0.00010335 -1.23126e-15 0)
(-0.000103323 -6.07505e-16 0)
(-0.000103311 -1.76867e-16 0)
(-0.000103292 8.49477e-17 0)
(-0.000103285 2.24395e-16 0)
(-0.000103273 2.80863e-16 0)
(-0.000103269 2.53859e-16 0)
(-0.000103265 9.79054e-17 0)
(-0.000103264 2.94642e-17 0)
(-0.000171853 6.4618e-11 0)
(-0.000171837 -1.46797e-11 0)
(-0.000171602 3.44588e-12 0)
(-0.000171518 -8.31281e-13 0)
(-0.000171354 1.50624e-13 0)
(-0.000171275 -7.35815e-14 0)
(-0.000171142 -1.32608e-14 0)
(-0.000171068 -2.00139e-14 0)
(-0.000170962 -1.20201e-14 0)
(-0.000170897 -8.75999e-15 0)
(-0.000170813 -5.47173e-15 0)
(-0.00017076 -3.16874e-15 0)
(-0.000170694 -1.46464e-15 0)
(-0.000170655 -3.40062e-16 0)
(-0.000170607 3.43977e-16 0)
(-0.000170581 6.96876e-16 0)
(-0.000170555 8.25619e-16 0)
(-0.000170541 7.25078e-16 0)
(-0.000170532 2.88291e-16 0)
(-0.000170527 8.48233e-17 0)
(-0.000230159 -9.22196e-11 0)
(-0.00023013 1.98139e-11 0)
(-0.000229696 -4.83812e-12 0)
(-0.000229545 9.03992e-13 0)
(-0.00022925 -3.06223e-13 0)
(-0.000229102 -1.08827e-14 0)
(-0.000228854 -5.37646e-14 0)
(-0.000228726 -2.96522e-14 0)
(-0.000228519 -2.25436e-14 0)
(-0.00022841 -1.48659e-14 0)
(-0.000228248 -9.32493e-15 0)
(-0.000228156 -5.16526e-15 0)
(-0.000228033 -2.18301e-15 0)
(-0.000227961 -2.28364e-16 0)
(-0.000227877 9.33099e-16 0)
(-0.000227828 1.50046e-15 0)
(-0.000227778 1.66995e-15 0)
(-0.000227752 1.44106e-15 0)
(-0.000227735 5.85144e-16 0)
(-0.000227728 1.66726e-16 0)
(-0.000268051 1.25572e-10 0)
(-0.000268007 -2.8585e-11 0)
(-0.000267414 6.57752e-12 0)
(-0.000267204 -1.76043e-12 0)
(-0.000266794 2.5915e-13 0)
(-0.000266595 -1.81474e-13 0)
(-0.000266251 -3.73043e-14 0)
(-0.000266077 -4.94174e-14 0)
(-0.000265786 -2.81132e-14 0)
(-0.000265643 -2.01199e-14 0)
(-0.000265409 -1.17966e-14 0)
(-0.000265292 -6.26493e-15 0)
(-0.000265113 -2.16447e-15 0)
(-0.000265024 4.36372e-16 0)
(-0.000264898 1.94185e-15 0)
(-0.000264838 2.61556e-15 0)
(-0.000264764 2.7399e-15 0)
(-0.000264732 2.29523e-15 0)
(-0.000264707 9.61017e-16 0)
(-0.000264697 2.64164e-16 0)
(-0.00028973 -1.52884e-10 0)
(-0.000289671 3.04787e-11 0)
(-0.000288986 -7.33609e-12 0)
(-0.000288725 1.18537e-12 0)
(-0.000288247 -4.08122e-13 0)
(-0.000288008 -4.48704e-14 0)
(-0.000287599 -7.59337e-14 0)
(-0.000287396 -4.83373e-14 0)
(-0.000287054 -3.31168e-14 0)
(-0.00028688 -2.17198e-14 0)
(-0.000286614 -1.24416e-14 0)
(-0.000286466 -5.88609e-15 0)
(-0.000286264 -1.16818e-15 0)
(-0.000286149 1.7773e-15 0)
(-0.00028601 3.39283e-15 0)
(-0.000285932 4.00522e-15 0)
(-0.00028585 3.9642e-15 0)
(-0.000285808 3.24331e-15 0)
(-0.00028578 1.3927e-15 0)
(-0.000285768 3.69586e-16 0)
(-0.000302202 2.05751e-10 0)
(-0.000302144 -4.36181e-11 0)
(-0.00030137 1.00403e-11 0)
(-0.000301106 -2.29663e-12 0)
(-0.000300578 3.58228e-13 0)
(-0.000300315 -1.99697e-13 0)
(-0.000299868 -4.57038e-14 0)
(-0.000299648 -5.35199e-14 0)
(-0.000299267 -3.15468e-14 0)
(-0.00029909 -2.06361e-14 0)
(-0.00029878 -1.08846e-14 0)
(-0.000298638 -4.00261e-15 0)
(-0.000298397 8.50122e-16 0)
(-0.000298291 3.79951e-15 0)
(-0.000298122 5.27575e-15 0)
(-0.000298048 5.6595e-15 0)
(-0.000297952 5.33801e-15 0)
(-0.00029791 4.25521e-15 0)
(-0.000297879 1.87391e-15 0)
(-0.000297866 4.82007e-16 0)
(-0.00031006 -2.64413e-10 0)
(-0.000309998 5.50423e-11 0)
(-0.000309181 -1.31138e-11 0)
(-0.000308902 2.57474e-12 0)
(-0.000308342 -7.00092e-13 0)
(-0.000308067 4.99815e-14 0)
(-0.000307594 -8.76549e-14 0)
(-0.000307362 -3.69241e-14 0)
(-0.000306962 -2.94415e-14 0)
(-0.000306772 -1.61931e-14 0)
(-0.000306445 -7.42998e-15 0)
(-0.000306296 -7.03208e-16 0)
(-0.00030604 3.82259e-15 0)
(-0.000305931 6.44922e-15 0)
(-0.00030575 7.55361e-15 0)
(-0.000305675 7.54134e-15 0)
(-0.000305571 6.82473e-15 0)
(-0.000305528 5.32629e-15 0)
(-0.000305494 2.39563e-15 0)
(-0.000305481 5.98791e-16 0)
(-0.000315836 3.53107e-10 0)
(-0.000315768 -7.29925e-11 0)
(-0.000314927 1.69318e-11 0)
(-0.000314631 -3.56147e-12 0)
(-0.000314047 6.53809e-13 0)
(-0.000313763 -2.22071e-13 0)
(-0.000313276 -2.26531e-14 0)
(-0.000313028 -3.92918e-14 0)
(-0.000312619 -1.98292e-14 0)
(-0.000312416 -1.02043e-14 0)
(-0.000312081 -2.0745e-15 0)
(-0.000311922 3.79591e-15 0)
(-0.000311661 7.6243e-15 0)
(-0.000311543 9.62878e-15 0)
(-0.000311358 1.01507e-14 0)
(-0.000311278 9.6012e-15 0)
(-0.000311172 8.39795e-15 0)
(-0.000311126 6.42317e-15 0)
(-0.000311092 2.94352e-15 0)
(-0.000311078 7.17842e-16 0)
(-0.0003208 -4.70972e-10 0)
(-0.00032072 9.87156e-11 0)
(-0.000319879 -2.32604e-11 0)
(-0.000319549 4.70005e-12 0)
(-0.000318953 -1.12246e-12 0)
(-0.000318663 1.7519e-13 0)
(-0.000318152 -7.60668e-14 0)
(-0.000317904 -1.17385e-14 0)
(-0.000317475 -1.18703e-14 0)
(-0.000317265 -1.51632e-15 0)
(-0.000316928 4.67325e-15 0)
(-0.000316751 9.29783e-15 0)
(-0.000316496 1.20914e-14 0)
(-0.00031636 1.31978e-14 0)
(-0.000316181 1.29605e-14 0)
(-0.00031609 1.17489e-14 0)
(-0.000315984 9.98383e-15 0)
(-0.000315936 7.50909e-15 0)
(-0.0003159 3.49782e-15 0)
(-0.000315886 8.32763e-16 0)
(-0.000325634 6.29691e-10 0)
(-0.000325563 -1.3556e-10 0)
(-0.000324659 3.1551e-11 0)
(-0.000324349 -6.85045e-12 0)
(-0.000323729 1.42969e-12 0)
(-0.000323423 -3.61991e-13 0)
(-0.000322905 4.69411e-14 0)
(-0.000322641 -2.03652e-14 0)
(-0.000322208 4.51269e-15 0)
(-0.000321989 7.71313e-15 0)
(-0.000321632 1.2752e-14 0)
(-0.000321463 1.55675e-14 0)
(-0.000321186 1.69935e-14 0)
(-0.000321059 1.69853e-14 0)
(-0.000320866 1.58313e-14 0)
(-0.000320776 1.38738e-14 0)
(-0.000320667 1.15064e-14 0)
(-0.000320616 8.52736e-15 0)
(-0.00032058 4.02574e-15 0)
(-0.000320565 9.37429e-16 0)
(-0.000330736 -8.15829e-10 0)
(-0.000330653 1.77238e-10 0)
(-0.000329744 -4.17865e-11 0)
(-0.000329406 8.87145e-12 0)
(-0.000328769 -2.02092e-12 0)
(-0.000328457 4.3257e-13 0)
(-0.000327915 -8.20667e-14 0)
(-0.00032765 3.12796e-14 0)
(-0.000327193 1.30788e-14 0)
(-0.000326976 2.02282e-14 0)
(-0.000326604 2.1447e-14 0)
(-0.000326431 2.23467e-14 0)
(-0.000326145 2.20917e-14 0)
(-0.000326012 2.07615e-14 0)
(-0.000325816 1.85861e-14 0)
(-0.000325721 1.583e-14 0)
(-0.00032561 1.2854e-14 0)
(-0.000325556 9.40451e-15 0)
(-0.00032552 4.49713e-15 0)
(-0.000325504 1.02285e-15 0)
(-0.000336385 1.02984e-09 0)
(-0.000336305 -2.31125e-10 0)
(-0.000335345 5.46465e-11 0)
(-0.00033501 -1.19769e-11 0)
(-0.000334346 2.80199e-12 0)
(-0.000334023 -5.86275e-13 0)
(-0.000333468 1.63612e-13 0)
(-0.000333187 1.93735e-15 0)
(-0.000332722 3.90516e-14 0)
(-0.000332488 3.08756e-14 0)
(-0.000332112 3.12731e-14 0)
(-0.000331925 2.92199e-14 0)
(-0.000331631 2.70682e-14 0)
(-0.000331493 2.42591e-14 0)
(-0.000331293 2.09955e-14 0)
(-0.000331191 1.74455e-14 0)
(-0.00033108 1.39052e-14 0)
(-0.000331022 1.00672e-14 0)
(-0.000330985 4.85923e-15 0)
(-0.000330968 1.08143e-15 0)
(-0.000342819 -1.18198e-09 0)
(-0.000342734 2.7773e-10 0)
(-0.000341734 -6.49056e-11 0)
(-0.000341387 1.49407e-11 0)
(-0.000340697 -3.38092e-12 0)
(-0.00034036 8.18668e-13 0)
(-0.000339782 -1.1212e-13 0)
(-0.000339492 9.19299e-14 0)
(-0.000339006 4.3484e-14 0)
(-0.000338765 4.7211e-14 0)
(-0.000338373 4.03835e-14 0)
(-0.000338175 3.59275e-14 0)
(-0.000337884 3.14849e-14 0)
(-0.000337726 2.7126e-14 0)
(-0.000337525 2.27959e-14 0)
(-0.000337417 1.85271e-14 0)
(-0.0003373 1.45237e-14 0)
(-0.000337242 1.04066e-14 0)
(-0.000337203 5.07167e-15 0)
(-0.000337186 1.10457e-15 0)
(-0.000350282 1.29729e-09 0)
(-0.000350187 -3.15332e-10 0)
(-0.000349169 7.37599e-11 0)
(-0.000348786 -1.79344e-11 0)
(-0.000348065 4.29704e-12 0)
(-0.000347717 -9.17856e-13 0)
(-0.000347109 3.38858e-13 0)
(-0.000346807 2.69218e-14 0)
(-0.000346304 8.59022e-14 0)
(-0.000346049 5.64193e-14 0)
(-0.000345639 5.05274e-14 0)
(-0.000345436 4.13266e-14 0)
(-0.000345123 3.48352e-14 0)
(-0.000344966 2.89221e-14 0)
(-0.000344755 2.36709e-14 0)
(-0.00034464 1.88479e-14 0)
(-0.000344522 1.45507e-14 0)
(-0.000344457 1.03444e-14 0)
(-0.000344418 5.06813e-15 0)
(-0.0003444 1.08447e-15 0)
(-0.000359129 -1.37611e-09 0)
(-0.000359021 3.27203e-10 0)
(-0.00035796 -7.65157e-11 0)
(-0.000357551 1.81346e-11 0)
(-0.000356795 -3.98043e-12 0)
(-0.000356428 1.11921e-12 0)
(-0.00035579 -6.90292e-14 0)
(-0.000355471 1.65991e-13 0)
(-0.000354938 8.38124e-14 0)
(-0.000354675 7.46716e-14 0)
(-0.000354237 5.65107e-14 0)
(-0.000354035 4.51226e-14 0)
(-0.000353692 3.62054e-14 0)
(-0.000353542 2.9146e-14 0)
(-0.0003533 2.32627e-14 0)
(-0.000353197 1.81864e-14 0)
(-0.00035306 1.38496e-14 0)
(-0.000353 9.76009e-15 0)
(-0.000352956 4.81019e-15 0)
(-0.000352938 1.01341e-15 0)
(-0.000369882 1.46825e-09 0)
(-0.000369769 -3.70642e-10 0)
(-0.000368638 8.80501e-11 0)
(-0.000368205 -2.17811e-11 0)
(-0.000367402 5.76321e-12 0)
(-0.000367013 -1.05622e-12 0)
(-0.000366333 5.62195e-13 0)
(-0.000365997 7.51403e-14 0)
(-0.000365428 1.34218e-13 0)
(-0.000365151 7.55321e-14 0)
(-0.000364686 6.0799e-14 0)
(-0.000364468 4.45712e-14 0)
(-0.000364111 3.482e-14 0)
(-0.000363943 2.71501e-14 0)
(-0.000363698 2.12287e-14 0)
(-0.000363578 1.63324e-14 0)
(-0.00036344 1.23094e-14 0)
(-0.000363372 8.64427e-15 0)
(-0.000363326 4.26789e-15 0)
(-0.000363307 8.78526e-16 0)
(-0.000382978 -1.56044e-09 0)
(-0.000382845 3.98618e-10 0)
(-0.000381671 -9.23774e-11 0)
(-0.000381179 2.55262e-11 0)
(-0.000380325 -5.16808e-12 0)
(-0.000379914 2.0356e-12 0)
(-0.000379177 -1.02643e-13 0)
(-0.000378826 2.87514e-13 0)
(-0.000378211 8.90818e-14 0)
(-0.000377918 8.60348e-14 0)
(-0.00037742 5.25541e-14 0)
(-0.000377187 4.03167e-14 0)
(-0.000376801 2.96097e-14 0)
(-0.000376627 2.28119e-14 0)
(-0.000376355 1.74615e-14 0)
(-0.000376236 1.32998e-14 0)
(-0.000376081 9.93954e-15 0)
(-0.000376013 6.9391e-15 0)
(-0.000375962 3.44077e-15 0)
(-0.000375942 6.76228e-16 0)
(-0.00039663 1.56918e-09 0)
(-0.000396571 -3.4901e-10 0)
(-0.00039532 8.39723e-11 0)
(-0.000394869 -1.55396e-11 0)
(-0.000394001 4.66182e-12 0)
(-0.000393581 -1.79507e-13 0)
(-0.000392846 3.79674e-13 0)
(-0.00039248 1.44678e-13 0)
(-0.000391854 8.76092e-14 0)
(-0.000391548 6.1376e-14 0)
(-0.000391048 3.81327e-14 0)
(-0.00039079 2.82776e-14 0)
(-0.000390408 2.01851e-14 0)
(-0.000390206 1.53432e-14 0)
(-0.00038994 1.15601e-14 0)
(-0.000389801 8.7226e-15 0)
(-0.000389644 6.48182e-15 0)
(-0.000389569 4.60302e-15 0)
(-0.000389517 2.34927e-15 0)
(-0.000389495 4.20728e-16 0)
(-0.000399312 -1.63765e-09 0)
(-0.000399252 4.48974e-10 0)
(-0.000399234 -1.06808e-10 0)
(-0.000399206 3.02753e-11 0)
(-0.000399189 -7.35477e-12 0)
(-0.000399169 2.24966e-12 0)
(-0.000399152 -4.75828e-13 0)
(-0.000399146 2.14361e-13 0)
(-0.000399127 -9.77679e-15 0)
(-0.000399126 3.42095e-14 0)
(-0.000399112 1.06616e-14 0)
(-0.000399111 1.09049e-14 0)
(-0.000399103 6.81475e-15 0)
(-0.000399102 5.36841e-15 0)
(-0.000399099 3.93829e-15 0)
(-0.000399098 2.97182e-15 0)
(-0.000399097 2.21675e-15 0)
(-0.000399097 1.62752e-15 0)
(-0.000399096 8.71123e-16 0)
(-0.000399096 1.42777e-16 0)
)
;

boundaryField
{
    movingWall
    {
        type            calculated;
        value           nonuniform List<vector> 
20
(
(-0.00039931 -0 -0)
(-0.000399252 -0 -0)
(-0.000399234 -0 -0)
(-0.000399206 -0 -0)
(-0.000399189 -0 -0)
(-0.000399169 -0 -0)
(-0.000399152 -0 -0)
(-0.000399146 -0 -0)
(-0.000399127 -0 -0)
(-0.000399126 -0 -0)
(-0.000399112 -0 -0)
(-0.000399111 -0 -0)
(-0.000399103 -0 -0)
(-0.000399102 -0 -0)
(-0.000399099 -0 -0)
(-0.000399098 -0 -0)
(-0.000399097 -0 -0)
(-0.000399097 -0 -0)
(-0.000399096 -0 -0)
(-0.000399096 -0 -0)
)
;
    }
    fixedWalls
    {
        type            calculated;
        value           nonuniform List<vector> 
60
(
(-6.1561e-05 -0 -0)
(-0.000103742 -0 -0)
(-0.000171853 -0 -0)
(-0.000230159 -0 -0)
(-0.000268051 -0 -0)
(-0.00028973 -0 -0)
(-0.000302203 -0 -0)
(-0.00031006 -0 -0)
(-0.000315836 -0 -0)
(-0.0003208 -0 -0)
(-0.000325635 -0 -0)
(-0.000330736 -0 -0)
(-0.000336386 -0 -0)
(-0.000342819 -0 -0)
(-0.000350283 -0 -0)
(-0.000359129 -0 -0)
(-0.000369883 -0 -0)
(-0.000382978 -0 -0)
(-0.000396631 -0 -0)
(-0.00039931 -0 -0)
(-6.1538e-05 -0 -0)
(-0.000103264 -0 -0)
(-0.000170527 -0 -0)
(-0.000227728 -0 -0)
(-0.000264697 -0 -0)
(-0.000285768 -0 -0)
(-0.000297866 -0 -0)
(-0.000305481 -0 -0)
(-0.000311078 -0 -0)
(-0.000315886 -0 -0)
(-0.000320565 -0 -0)
(-0.000325504 -0 -0)
(-0.000330968 -0 -0)
(-0.000337186 -0 -0)
(-0.0003444 -0 -0)
(-0.000352938 -0 -0)
(-0.000363307 -0 -0)
(-0.000375942 -0 -0)
(-0.000389495 -0 -0)
(-0.000399096 -0 -0)
(-6.1561e-05 -0 -0)
(-6.15579e-05 -0 -0)
(-6.15551e-05 -0 -0)
(-6.15529e-05 -0 -0)
(-6.15508e-05 -0 -0)
(-6.15488e-05 -0 -0)
(-6.15469e-05 -0 -0)
(-6.1546e-05 -0 -0)
(-6.1544e-05 -0 -0)
(-6.1543e-05 -0 -0)
(-6.15416e-05 -0 -0)
(-6.15411e-05 -0 -0)
(-6.15397e-05 -0 -0)
(-6.15398e-05 -0 -0)
(-6.15387e-05 -0 -0)
(-6.15388e-05 -0 -0)
(-6.15381e-05 -0 -0)
(-6.15382e-05 -0 -0)
(-6.1538e-05 -0 -0)
(-6.1538e-05 -0 -0)
)
;
    }
    frontAndBack
    {
        type            empty;
    }
}


// ************************************************************************* //
