/*--------------------------------*- C++ -*----------------------------------*\
| =========                 |                                                 |
| \\      /  F ield         | OpenFOAM: The Open Source CFD Toolbox           |
|  \\    /   O peration     | Version:  2506                                  |
|   \\  /    A nd           | Website:  www.openfoam.com                      |
|    \\/     M anipulation  |                                                 |
\*---------------------------------------------------------------------------*/
FoamFile
{
    version     2.0;
    format      ascii;
    arch        "LSB;label=32;scalar=64";
    class       volTensorField;
    location    "3";
    object      kU2;
}
// * * * * * * * * * * * * * * * * * * * * * * * * * * * * * * * * * * * * * //

dimensions      [0 4 -4 0 0 0 0];

internalField   nonuniform List<tensor> 
400
(
(6.1561e-05 -2.17468e-11 -0 -2.14562e-11 7.57952e-18 0 -0 0 0)
(6.15579e-05 5.2228e-12 -0 5.1305e-12 4.3529e-19 -0 -0 -0 0)
(6.15551e-05 -1.24564e-12 -0 -1.22387e-12 2.47664e-20 0 -0 0 0)
(6.15529e-05 3.0503e-13 -0 2.98058e-13 1.47705e-21 -0 -0 -0 0)
(6.15508e-05 -7.1146e-14 -0 -6.96479e-14 8.05054e-23 0 -0 0 0)
(6.15488e-05 2.0019e-14 -0 1.93218e-14 6.2845e-24 -0 -0 -0 0)
(6.15469e-05 -2.62314e-15 -0 -2.72504e-15 1.16142e-25 0 -0 0 0)
(6.1546e-05 2.51013e-15 -0 2.28374e-15 9.31414e-26 -0 -0 -0 0)
(6.1544e-05 8.16943e-16 -0 6.56334e-16 8.71226e-27 -0 -0 -0 0)
(6.1543e-05 8.46984e-16 -0 7.07079e-16 9.73115e-27 -0 -0 -0 0)
(6.15416e-05 5.14798e-16 -0 4.05667e-16 3.39343e-27 -0 -0 -0 0)
(6.15411e-05 3.36823e-16 -0 2.54207e-16 1.39131e-27 -0 -0 -0 0)
(6.15397e-05 1.81731e-16 -0 1.23799e-16 3.65587e-28 -0 -0 -0 0)
(6.15398e-05 7.43097e-17 -0 4.00347e-17 4.83422e-29 -0 -0 -0 0)
(6.15387e-05 2.21054e-18 -0 -1.29841e-17 -4.66403e-31 0 -0 -0 0)
(6.15388e-05 -4.00988e-17 -0 -4.21848e-17 2.74877e-29 0 -0 0 0)
(6.15381e-05 -6.29586e-17 -0 -5.47385e-17 5.60021e-29 0 -0 0 0)
(6.15382e-05 -6.70105e-17 -0 -4.72606e-17 5.14633e-29 0 -0 0 0)
(6.1538e-05 -4.58329e-17 -0 -1.96133e-17 1.46078e-29 0 -0 0 0)
(6.1538e-05 3.70916e-17 -0 -5.7135e-18 -3.44377e-30 0 -0 -0 0)
(0.000103742 3.74911e-11 -0 3.70704e-11 1.33968e-17 -0 -0 -0 0)
(0.000103737 -9.05168e-12 -0 -8.90345e-12 7.76883e-19 0 -0 0 0)
(0.000103652 2.17466e-12 -0 2.13741e-12 4.48437e-20 -0 -0 -0 0)
(0.000103622 -5.20555e-13 -0 -5.09841e-13 2.56122e-21 0 -0 0 0)
(0.000103563 1.42916e-13 -0 1.38345e-13 1.90914e-22 -0 -0 -0 0)
(0.000103536 -2.12863e-14 -0 -2.16438e-14 4.44984e-24 0 -0 0 0)
(0.000103486 1.76807e-14 -0 1.62273e-14 2.77245e-24 -0 -0 -0 0)
(0.000103461 5.31996e-15 -0 4.36524e-15 2.2446e-25 -0 -0 -0 0)
(0.00010342 6.08847e-15 -0 5.20377e-15 3.06352e-25 -0 -0 -0 0)
(0.000103399 3.82431e-15 -0 3.11996e-15 1.15394e-25 -0 -0 -0 0)
(0.000103366 2.71076e-15 -0 2.14784e-15 5.63269e-26 -0 -0 -0 0)
(0.00010335 1.65341e-15 -0 1.23126e-15 1.9698e-26 -0 -0 -0 0)
(0.000103323 9.04494e-16 -0 6.07505e-16 5.31811e-27 -0 -0 -0 0)
(0.000103311 3.5336e-16 -0 1.76867e-16 6.04946e-28 -0 -0 -0 0)
(0.000103292 -8.11092e-18 -0 -8.49477e-17 6.67044e-30 0 -0 0 0)
(0.000103285 -2.14264e-16 -0 -2.24395e-16 4.65509e-28 0 -0 0 0)
(0.000103273 -3.20326e-16 -0 -2.80863e-16 8.71158e-28 0 -0 0 0)
(0.000103269 -3.47969e-16 -0 -2.53859e-16 8.55386e-28 0 -0 0 0)
(0.000103265 -2.35608e-16 -0 -9.79054e-17 2.23379e-28 0 -0 0 0)
(0.000103264 1.8587e-16 -0 -2.94642e-17 -5.30342e-29 0 -0 -0 0)
(0.000171853 -6.51261e-11 -0 -6.4618e-11 2.44879e-17 0 -0 0 0)
(0.000171837 1.48208e-11 -0 1.46797e-11 1.26611e-18 -0 -0 -0 0)
(0.000171602 -3.47904e-12 -0 -3.44588e-12 6.98615e-20 0 -0 0 0)
(0.000171518 8.43681e-13 -0 8.31281e-13 4.08898e-21 -0 -0 -0 0)
(0.000171354 -1.49188e-13 -0 -1.50624e-13 1.31139e-22 0 -0 0 0)
(0.000171275 7.82155e-14 -0 7.35815e-14 3.36022e-23 -0 -0 -0 0)
(0.000171142 1.64332e-14 -0 1.32608e-14 1.27331e-24 -0 -0 -0 0)
(0.000171068 2.29268e-14 -0 2.00139e-14 2.68229e-24 -0 -0 -0 0)
(0.000170962 1.43726e-14 -0 1.20201e-14 1.01052e-24 -0 -0 -0 0)
(0.000170897 1.06917e-14 -0 8.75999e-15 5.48043e-25 -0 -0 -0 0)
(0.000170813 6.99216e-15 -0 5.47173e-15 2.23983e-25 -0 -0 -0 0)
(0.00017076 4.31148e-15 -0 3.16874e-15 8.00065e-26 -0 -0 -0 0)
(0.000170694 2.26521e-15 -0 1.46464e-15 1.94367e-26 -0 -0 -0 0)
(0.000170655 8.13284e-16 -0 3.40062e-16 1.62061e-27 -0 -0 -0 0)
(0.000170607 -1.40169e-16 -0 -3.43977e-16 2.82606e-28 0 -0 0 0)
(0.000170581 -6.74697e-16 -0 -6.96876e-16 2.75634e-27 0 -0 0 0)
(0.000170555 -9.40155e-16 -0 -8.25619e-16 4.55107e-27 0 -0 0 0)
(0.000170541 -9.88247e-16 -0 -7.25078e-16 4.20167e-27 0 -0 0 0)
(0.000170532 -6.6553e-16 -0 -2.88291e-16 1.12511e-27 0 -0 0 0)
(0.000170527 4.95079e-16 -0 -8.48233e-17 -2.46261e-28 0 -0 -0 0)
(0.000230159 9.23018e-11 -0 9.22196e-11 3.69833e-17 -0 -0 -0 0)
(0.00023013 -1.9808e-11 -0 -1.98139e-11 1.70544e-18 0 -0 0 0)
(0.000229696 4.85525e-12 -0 4.83812e-12 1.02267e-19 -0 -0 -0 0)
(0.000229545 -8.8833e-13 -0 -9.03992e-13 3.49841e-21 0 -0 0 0)
(0.00022925 3.15277e-13 -0 3.06223e-13 4.21135e-22 -0 -0 -0 0)
(0.000229102 1.95536e-14 -0 1.08827e-14 9.28823e-25 -0 -0 -0 0)
(0.000228854 5.99748e-14 -0 5.37646e-14 1.40898e-23 -0 -0 -0 0)
(0.000228726 3.49854e-14 -0 2.96522e-14 4.53552e-24 -0 -0 -0 0)
(0.000228519 2.68252e-14 -0 2.25436e-14 2.64633e-24 -0 -0 -0 0)
(0.00022841 1.83667e-14 -0 1.48659e-14 1.19539e-24 -0 -0 -0 0)
(0.000228248 1.20751e-14 -0 9.32493e-15 4.93319e-25 -0 -0 -0 0)
(0.000228156 7.23184e-15 -0 5.16526e-15 1.63723e-25 -0 -0 -0 0)
(0.000228033 3.62741e-15 -0 2.18301e-15 3.4726e-26 -0 -0 -0 0)
(0.000227961 1.07759e-15 -0 2.28364e-16 1.0795e-27 -0 -0 -0 0)
(0.000227877 -5.76864e-16 -0 -9.33099e-16 2.36211e-27 0 -0 0 0)
(0.000227828 -1.47504e-15 -0 -1.50046e-15 9.71449e-27 0 -0 0 0)
(0.000227778 -1.89069e-15 -0 -1.66995e-15 1.38615e-26 0 -0 0 0)
(0.000227752 -1.93093e-15 -0 -1.44106e-15 1.22176e-26 0 -0 0 0)
(0.000227735 -1.29043e-15 -0 -5.85144e-16 3.31565e-27 0 -0 0 0)
(0.000227728 8.86947e-16 -0 -1.66726e-16 -6.49357e-28 0 -0 -0 0)
(0.000268051 -1.25518e-10 -0 -1.25572e-10 5.88003e-17 0 -0 0 0)
(0.000268007 2.87657e-11 -0 2.8585e-11 3.06809e-18 -0 -0 -0 0)
(0.000267414 -6.58965e-12 -0 -6.57752e-12 1.62084e-19 0 -0 0 0)
(0.000267204 1.80463e-12 -0 1.76043e-12 1.18895e-20 -0 -0 -0 0)
(0.000266794 -2.49872e-13 -0 -2.5915e-13 2.42713e-22 0 -0 0 0)
(0.000266595 1.95508e-13 -0 1.81474e-13 1.33084e-22 -0 -0 -0 0)
(0.000266251 4.56692e-14 -0 3.73043e-14 6.3987e-24 -0 -0 -0 0)
(0.000266077 5.71427e-14 -0 4.94174e-14 1.06129e-23 -0 -0 -0 0)
(0.000265786 3.41121e-14 -0 2.81132e-14 3.60816e-24 -0 -0 -0 0)
(0.000265643 2.51086e-14 -0 2.01199e-14 1.90174e-24 -0 -0 -0 0)
(0.000265409 1.56979e-14 -0 1.17966e-14 6.97724e-25 -0 -0 -0 0)
(0.000265292 9.20592e-15 -0 6.26493e-15 2.174e-25 -0 -0 -0 0)
(0.000265113 4.21393e-15 -0 2.16447e-15 3.44039e-26 -0 -0 -0 0)
(0.000265024 7.58337e-16 -0 -4.36372e-16 -1.24863e-27 0 -0 -0 0)
(0.000264898 -1.45612e-15 -0 -1.94185e-15 1.06742e-26 0 -0 0 0)
(0.000264838 -2.6046e-15 -0 -2.61556e-15 2.57232e-26 0 -0 0 0)
(0.000264764 -3.0827e-15 -0 -2.7399e-15 3.19011e-26 0 -0 0 0)
(0.000264732 -3.03136e-15 -0 -2.29523e-15 2.6282e-26 0 -0 0 0)
(0.000264707 -2.00481e-15 -0 -9.61017e-16 7.27843e-27 0 -0 0 0)
(0.000264697 1.24995e-15 -0 -2.64164e-16 -1.24743e-27 0 -0 -0 0)
(0.00028973 1.51878e-10 -0 1.52884e-10 8.01424e-17 -0 -0 -0 0)
(0.000289671 -3.0055e-11 -0 -3.04787e-11 3.16234e-18 0 -0 0 0)
(0.000288986 7.2549e-12 -0 7.33609e-12 1.8417e-19 -0 -0 -0 0)
(0.000288725 -1.12806e-12 -0 -1.18537e-12 4.63131e-21 0 -0 0 0)
(0.000288247 4.13718e-13 -0 4.08122e-13 5.85774e-22 -0 -0 -0 0)
(0.000288008 6.13768e-14 -0 4.48704e-14 9.56225e-24 -0 -0 -0 0)
(0.000287599 8.57127e-14 -0 7.59337e-14 2.26304e-23 -0 -0 -0 0)
(0.000287396 5.76312e-14 -0 4.83373e-14 9.69301e-24 -0 -0 -0 0)
(0.000287054 4.04454e-14 -0 3.31168e-14 4.66609e-24 -0 -0 -0 0)
(0.00028688 2.78424e-14 -0 2.17198e-14 2.10796e-24 -0 -0 -0 0)
(0.000286614 1.72583e-14 -0 1.24416e-14 7.49167e-25 -0 -0 -0 0)
(0.000286466 9.51937e-15 -0 5.88609e-15 1.95597e-25 -0 -0 -0 0)
(0.000286264 3.69592e-15 -0 1.16818e-15 1.50822e-26 -0 -0 -0 0)
(0.000286149 -3.20393e-16 -0 -1.7773e-15 1.98999e-27 0 -0 0 0)
(0.00028601 -2.82881e-15 -0 -3.39283e-15 3.35572e-26 0 -0 0 0)
(0.000285932 -4.03696e-15 -0 -4.00522e-15 5.65481e-26 0 -0 0 0)
(0.00028585 -4.43429e-15 -0 -3.9642e-15 6.14952e-26 0 -0 0 0)
(0.000285808 -4.20943e-15 -0 -3.24331e-15 4.7768e-26 0 -0 0 0)
(0.00028578 -2.75501e-15 -0 -1.3927e-15 1.3426e-26 0 -0 0 0)
(0.000285768 1.53397e-15 -0 -3.69586e-16 -1.98389e-27 0 -0 -0 0)
(0.000302202 -2.04767e-10 -0 -2.05751e-10 1.39413e-16 0 -0 0 0)
(0.000302144 4.33469e-11 -0 4.36181e-11 6.25763e-18 -0 -0 -0 0)
(0.00030137 -9.95747e-12 -0 -1.00403e-11 3.31737e-19 0 -0 0 0)
(0.000301106 2.29428e-12 -0 2.29663e-12 1.74992e-20 -0 -0 -0 0)
(0.000300578 -3.39638e-13 -0 -3.58228e-13 4.04779e-22 0 -0 0 0)
(0.000300315 2.12299e-13 -0 1.99697e-13 1.4117e-22 -0 -0 -0 0)
(0.000299868 5.72977e-14 -0 4.57038e-14 8.73292e-24 -0 -0 -0 0)
(0.000299648 6.33637e-14 -0 5.35199e-14 1.13173e-23 -0 -0 -0 0)
(0.000299267 3.98302e-14 -0 3.15468e-14 4.19865e-24 -0 -0 -0 0)
(0.00029909 2.7504e-14 -0 2.06361e-14 1.89767e-24 -0 -0 -0 0)
(0.00029878 1.63516e-14 -0 1.08846e-14 5.95693e-25 -0 -0 -0 0)
(0.000298638 8.12411e-15 -0 4.00261e-15 1.08887e-25 -0 -0 -0 0)
(0.000298397 2.01164e-15 -0 -8.50122e-16 -5.7311e-27 0 -0 -0 0)
(0.000298291 -2.17592e-15 -0 -3.79951e-15 2.7716e-26 0 -0 0 0)
(0.000298122 -4.6864e-15 -0 -5.27575e-15 8.29335e-26 0 -0 0 0)
(0.000298048 -5.75777e-15 -0 -5.6595e-15 1.09331e-25 0 -0 0 0)
(0.000297952 -5.94022e-15 -0 -5.33801e-15 1.06423e-25 0 -0 0 0)
(0.00029791 -5.44096e-15 -0 -4.25521e-15 7.77161e-26 0 -0 0 0)
(0.000297879 -3.51941e-15 -0 -1.87391e-15 2.21401e-26 0 -0 0 0)
(0.000297866 1.7274e-15 -0 -4.82007e-16 -2.79529e-27 0 -0 -0 0)
(0.000310061 2.62393e-10 -0 2.64414e-10 2.23764e-16 -0 -0 -0 0)
(0.000309998 -5.44851e-11 -0 -5.50422e-11 9.67422e-18 0 -0 0 0)
(0.000309181 1.30019e-11 -0 1.31138e-11 5.51471e-19 -0 -0 -0 0)
(0.000308902 -2.53074e-12 -0 -2.57474e-12 2.1094e-20 0 -0 0 0)
(0.000308342 7.08218e-13 -0 7.00092e-13 1.60801e-21 -0 -0 -0 0)
(0.000308067 -3.51844e-14 -0 -4.99815e-14 5.7084e-24 0 -0 0 0)
(0.000307594 9.94441e-14 -0 8.76549e-14 2.83386e-23 -0 -0 -0 0)
(0.000307362 4.7282e-14 -0 3.69241e-14 5.68011e-24 -0 -0 -0 0)
(0.000306962 3.82035e-14 -0 2.94415e-14 3.66419e-24 -0 -0 -0 0)
(0.000306772 2.35017e-14 -0 1.61931e-14 1.24055e-24 -0 -0 -0 0)
(0.000306445 1.32842e-14 -0 7.42998e-15 3.22085e-25 -0 -0 -0 0)
(0.000306296 5.11731e-15 -0 7.03208e-16 1.17485e-26 -0 -0 -0 0)
(0.00030604 -7.68995e-16 -0 -3.82259e-15 9.60513e-27 0 -0 0 0)
(0.000305931 -4.75135e-15 -0 -6.44922e-15 1.00161e-25 0 -0 0 0)
(0.00030575 -6.99393e-15 -0 -7.55361e-15 1.72786e-25 0 -0 0 0)
(0.000305675 -7.73455e-15 -0 -7.54134e-15 1.9082e-25 0 -0 0 0)
(0.000305571 -7.56188e-15 -0 -6.82473e-15 1.6889e-25 0 -0 0 0)
(0.000305528 -6.70998e-15 -0 -5.32629e-15 1.16975e-25 0 -0 0 0)
(0.000305494 -4.29416e-15 -0 -2.39563e-15 3.36741e-26 0 -0 0 0)
(0.000305481 1.83786e-15 -0 -5.98791e-16 -3.60249e-27 0 -0 -0 0)
(0.000315836 -3.5144e-10 -0 -3.53107e-10 3.92912e-16 0 -0 0 0)
(0.000315768 7.23568e-11 -0 7.29925e-11 1.67259e-17 -0 -0 -0 0)
(0.000314927 -1.6755e-11 -0 -1.69318e-11 9.0082e-19 0 -0 0 0)
(0.000314631 3.52468e-12 -0 3.56147e-12 3.98977e-20 -0 -0 -0 0)
(0.000314047 -6.23867e-13 -0 -6.53809e-13 1.29882e-21 0 -0 0 0)
(0.000313763 2.31641e-13 -0 2.22071e-13 1.63948e-22 -0 -0 -0 0)
(0.000313276 3.5637e-14 -0 2.26531e-14 2.57692e-24 -0 -0 -0 0)
(0.000313028 4.93734e-14 -0 3.92918e-14 6.19744e-24 -0 -0 -0 0)
(0.000312619 2.87892e-14 -0 1.98292e-14 1.82608e-24 -0 -0 -0 0)
(0.000312416 1.76446e-14 -0 1.02043e-14 5.76317e-25 -0 -0 -0 0)
(0.000312081 8.07773e-15 -0 2.0745e-15 5.36952e-26 -0 -0 -0 0)
(0.000311922 7.24873e-16 -0 -3.79591e-15 -8.82128e-27 0 -0 -0 0)
(0.000311661 -4.5145e-15 -0 -7.6243e-15 1.1044e-25 0 -0 0 0)
(0.000311543 -7.94575e-15 -0 -9.62878e-15 2.45577e-25 0 -0 0 0)
(0.000311358 -9.66962e-15 -0 -1.01507e-14 3.15244e-25 0 -0 0 0)
(0.000311278 -9.90938e-15 -0 -9.6012e-15 3.0565e-25 0 -0 0 0)
(0.000311172 -9.27096e-15 -0 -8.39795e-15 2.50206e-25 0 -0 0 0)
(0.000311126 -7.98923e-15 -0 -6.42317e-15 1.64937e-25 0 -0 0 0)
(0.000311092 -5.05835e-15 -0 -2.94352e-15 4.78616e-26 0 -0 0 0)
(0.000311078 1.86978e-15 -0 -7.17842e-16 -4.31469e-27 0 -0 -0 0)
(0.000320801 4.69891e-10 -0 4.70972e-10 6.89853e-16 -0 -0 -0 0)
(0.00032072 -9.81113e-11 -0 -9.87155e-11 3.0198e-17 0 -0 0 0)
(0.000319879 2.31384e-11 -0 2.32604e-11 1.68254e-18 -0 -0 -0 0)
(0.000319549 -4.63639e-12 -0 -4.70005e-12 6.81938e-20 0 -0 0 0)
(0.000318953 1.12371e-12 -0 1.12246e-12 3.95454e-21 -0 -0 -0 0)
(0.000318663 -1.58144e-13 -0 -1.7519e-13 8.69423e-23 0 -0 0 0)
(0.000318152 8.67169e-14 -0 7.60668e-14 2.07331e-23 -0 -0 -0 0)
(0.000317904 2.19824e-14 -0 1.17385e-14 8.11689e-25 -0 -0 -0 0)
(0.000317475 2.05497e-14 -0 1.18703e-14 7.68347e-25 -0 -0 -0 0)
(0.000317265 8.84137e-15 -0 1.51632e-15 4.2256e-26 -0 -0 -0 0)
(0.000316928 1.21627e-15 -0 -4.67325e-15 -1.79344e-26 0 -0 -0 0)
(0.000316751 -4.85597e-15 -0 -9.29783e-15 1.42541e-25 0 -0 0 0)
(0.000316496 -9.06188e-15 -0 -1.20914e-14 3.462e-25 0 -0 0 0)
(0.00031636 -1.16151e-14 -0 -1.31978e-14 4.84555e-25 0 -0 0 0)
(0.000316181 -1.26049e-14 -0 -1.29605e-14 5.16683e-25 0 -0 0 0)
(0.00031609 -1.21923e-14 -0 -1.17489e-14 4.53182e-25 0 -0 0 0)
(0.000315984 -1.09878e-14 -0 -9.98383e-15 3.4717e-25 0 -0 0 0)
(0.000315936 -9.22941e-15 -0 -7.50909e-15 2.19363e-25 0 -0 0 0)
(0.0003159 -5.7916e-15 -0 -3.49782e-15 6.41278e-26 0 -0 0 0)
(0.000315886 1.83298e-15 -0 -8.32763e-16 -4.83225e-27 0 -0 -0 0)
(0.000325634 -6.31735e-10 -0 -6.2969e-10 1.22161e-15 0 -0 0 0)
(0.000325563 1.35676e-10 -0 1.3556e-10 5.64934e-17 -0 -0 -0 0)
(0.000324659 -3.15252e-11 -0 -3.1551e-11 3.06369e-18 0 -0 0 0)
(0.000324349 6.84484e-12 -0 6.85045e-12 1.44567e-19 -0 -0 -0 0)
(0.000323729 -1.40805e-12 -0 -1.42969e-12 6.21837e-21 0 -0 0 0)
(0.000323423 3.70405e-13 -0 3.61991e-13 4.14575e-22 -0 -0 -0 0)
(0.000322905 -3.55853e-14 -0 -4.69411e-14 5.17306e-24 0 -0 0 0)
(0.000322641 2.9312e-14 -0 2.03652e-14 1.85018e-24 -0 -0 -0 0)
(0.000322208 3.55027e-15 -0 -4.51269e-15 -4.97234e-26 0 -0 -0 0)
(0.000321989 -9.28363e-16 -0 -7.71313e-15 2.22386e-26 0 -0 0 0)
(0.000321632 -7.21932e-15 -0 -1.2752e-14 2.8623e-25 0 -0 0 0)
(0.000321463 -1.13963e-14 -0 -1.55675e-14 5.51892e-25 0 -0 0 0)
(0.000321186 -1.41746e-14 -0 -1.69935e-14 7.49958e-25 0 -0 0 0)
(0.000321059 -1.5584e-14 -0 -1.69853e-14 8.24455e-25 0 -0 0 0)
(0.000320866 -1.56404e-14 -0 -1.58313e-14 7.71689e-25 0 -0 0 0)
(0.000320776 -1.44611e-14 -0 -1.38738e-14 6.2545e-25 0 -0 0 0)
(0.000320667 -1.26291e-14 -0 -1.15064e-14 4.53169e-25 0 -0 0 0)
(0.000320616 -1.03713e-14 -0 -8.52736e-15 2.75844e-25 0 -0 0 0)
(0.00032058 -6.45398e-15 -0 -4.02574e-15 8.1047e-26 0 -0 0 0)
(0.000320565 1.73442e-15 -0 -9.37429e-16 -5.07197e-27 0 -0 -0 0)
(0.000330737 8.21619e-10 -0 8.1583e-10 2.02669e-15 -0 -0 -0 0)
(0.000330653 -1.77958e-10 -0 -1.77238e-10 9.539e-17 0 -0 0 0)
(0.000329744 4.19371e-11 -0 4.17865e-11 5.31443e-18 -0 -0 -0 0)
(0.000329406 -8.86625e-12 -0 -8.87145e-12 2.38783e-19 0 -0 0 0)
(0.000328769 2.02738e-12 -0 2.02092e-12 1.24622e-20 -0 -0 -0 0)
(0.000328457 -4.21446e-13 -0 -4.3257e-13 5.55034e-22 0 -0 0 0)
(0.000327915 8.8974e-14 -0 8.20667e-14 2.22674e-23 -0 -0 -0 0)
(0.00032765 -2.32283e-14 -0 -3.12796e-14 2.21752e-24 0 -0 0 0)
(0.000327193 -6.49902e-15 -0 -1.30788e-14 2.59783e-25 0 -0 0 0)
(0.000326976 -1.42312e-14 -0 -2.02282e-14 8.8041e-25 0 -0 0 0)
(0.000326604 -1.65318e-14 -0 -2.1447e-14 1.08559e-24 0 -0 0 0)
(0.000326431 -1.86196e-14 -0 -2.23467e-14 1.27466e-24 0 -0 0 0)
(0.000326145 -1.96071e-14 -0 -2.20917e-14 1.32811e-24 0 -0 0 0)
(0.000326012 -1.96121e-14 -0 -2.07615e-14 1.24896e-24 0 -0 0 0)
(0.000325816 -1.85886e-14 -0 -1.85861e-14 1.06038e-24 0 -0 0 0)
(0.000325721 -1.65629e-14 -0 -1.583e-14 8.0495e-25 0 -0 0 0)
(0.00032561 -1.4073e-14 -0 -1.2854e-14 5.55553e-25 0 -0 0 0)
(0.000325556 -1.1328e-14 -0 -9.40451e-15 3.27238e-25 0 -0 0 0)
(0.00032552 -7.00618e-15 -0 -4.49713e-15 9.67919e-26 0 -0 0 0)
(0.000325504 1.5848e-15 -0 -1.02285e-15 -4.98002e-27 0 -0 -0 0)
(0.000336384 -1.04448e-09 -0 -1.02983e-09 3.19766e-15 0 -0 0 0)
(0.000336305 2.33636e-10 -0 2.31125e-10 1.60566e-16 -0 -0 -0 0)
(0.000335345 -5.52359e-11 -0 -5.46464e-11 9.00102e-18 0 -0 0 0)
(0.00033501 1.20883e-11 -0 1.19769e-11 4.32169e-19 -0 -0 -0 0)
(0.000334346 -2.80731e-12 -0 -2.80199e-12 2.35266e-20 0 -0 0 0)
(0.000334023 5.99191e-13 -0 5.86275e-13 1.0517e-21 -0 -0 -0 0)
(0.000333468 -1.56218e-13 -0 -1.63612e-13 7.66465e-23 0 -0 0 0)
(0.000333187 4.41123e-15 -0 -1.93735e-15 -2.56495e-26 0 -0 -0 0)
(0.000332722 -3.32985e-14 -0 -3.90516e-14 3.90826e-24 0 -0 0 0)
(0.000332488 -2.59126e-14 -0 -3.08756e-14 2.40631e-24 0 -0 0 0)
(0.000332112 -2.71449e-14 -0 -3.12731e-14 2.55608e-24 0 -0 0 0)
(0.000331925 -2.61013e-14 -0 -2.92199e-14 2.29774e-24 0 -0 0 0)
(0.000331631 -2.50227e-14 -0 -2.70682e-14 2.04238e-24 0 -0 0 0)
(0.000331493 -2.34182e-14 -0 -2.42591e-14 1.71377e-24 0 -0 0 0)
(0.000331293 -2.12068e-14 -0 -2.09955e-14 1.34397e-24 0 -0 0 0)
(0.000331191 -1.83103e-14 -0 -1.74455e-14 9.64494e-25 0 -0 0 0)
(0.00033108 -1.51866e-14 -0 -1.39052e-14 6.37833e-25 0 -0 0 0)
(0.000331022 -1.20182e-14 -0 -1.00672e-14 3.65505e-25 0 -0 0 0)
(0.000330985 -7.3921e-15 -0 -4.85923e-15 1.08524e-25 0 -0 0 0)
(0.000330968 1.39759e-15 -0 -1.08143e-15 -4.56658e-27 0 -0 -0 0)
(0.00034282 1.21094e-09 -0 1.18198e-09 4.17511e-15 -0 -0 -0 0)
(0.000342734 -2.83318e-10 -0 -2.7773e-10 2.29583e-16 0 -0 0 0)
(0.000341734 6.62096e-11 -0 6.49056e-11 1.25752e-17 -0 -0 -0 0)
(0.000341387 -1.51211e-11 -0 -1.49407e-11 6.61772e-19 0 -0 0 0)
(0.000340697 3.43078e-12 -0 3.38092e-12 3.40454e-20 -0 -0 -0 0)
(0.00034036 -8.15185e-13 -0 -8.18668e-13 1.96076e-21 0 -0 0 0)
(0.000339782 1.17735e-13 -0 1.1212e-13 3.88496e-23 -0 -0 -0 0)
(0.000339492 -8.69572e-14 -0 -9.19299e-14 2.35468e-23 0 -0 0 0)
(0.000339006 -3.95271e-14 -0 -4.3484e-14 5.07011e-24 0 -0 0 0)
(0.000338765 -4.34955e-14 -0 -4.7211e-14 6.06161e-24 0 -0 0 0)
(0.000338373 -3.73173e-14 -0 -4.03835e-14 4.45367e-24 0 -0 0 0)
(0.000338175 -3.35533e-14 -0 -3.59275e-14 3.56468e-24 0 -0 0 0)
(0.000337884 -2.99714e-14 -0 -3.14849e-14 2.79282e-24 0 -0 0 0)
(0.000337726 -2.66278e-14 -0 -2.7126e-14 2.13873e-24 0 -0 0 0)
(0.000337525 -2.32117e-14 -0 -2.27959e-14 1.56768e-24 0 -0 0 0)
(0.000337417 -1.94954e-14 -0 -1.85271e-14 1.07046e-24 0 -0 0 0)
(0.0003373 -1.58275e-14 -0 -1.45237e-14 6.81513e-25 0 -0 0 0)
(0.000337242 -1.23278e-14 -0 -1.04066e-14 3.8041e-25 0 -0 0 0)
(0.000337203 -7.55227e-15 -0 -5.07167e-15 1.13589e-25 0 -0 0 0)
(0.000337186 1.18444e-15 -0 -1.10457e-15 -3.88007e-27 0 -0 -0 0)
(0.000350282 -1.33335e-09 -0 -1.29729e-09 4.93815e-15 0 -0 0 0)
(0.000350187 3.23677e-10 -0 3.15332e-10 2.9146e-16 -0 -0 -0 0)
(0.000349169 -7.56706e-11 -0 -7.37599e-11 1.5985e-17 0 -0 0 0)
(0.000348786 1.84026e-11 -0 1.79344e-11 9.46253e-19 -0 -0 -0 0)
(0.000348065 -4.3917e-12 -0 -4.29704e-12 5.42176e-20 0 -0 0 0)
(0.000347717 9.44901e-13 -0 9.17856e-13 2.49422e-21 -0 -0 -0 0)
(0.000347109 -3.42623e-13 -0 -3.38858e-13 3.34479e-22 0 -0 0 0)
(0.000346807 -2.42756e-14 -0 -2.69218e-14 1.88445e-24 0 -0 0 0)
(0.000346304 -8.46394e-14 -0 -8.59022e-14 2.09952e-23 0 -0 0 0)
(0.000346049 -5.4513e-14 -0 -5.64193e-14 8.88773e-24 0 -0 0 0)
(0.000345639 -4.8721e-14 -0 -5.05274e-14 7.12228e-24 0 -0 0 0)
(0.000345436 -3.98317e-14 -0 -4.13266e-14 4.76531e-24 0 -0 0 0)
(0.000345123 -3.38992e-14 -0 -3.48352e-14 3.42164e-24 0 -0 0 0)
(0.000344966 -2.87715e-14 -0 -2.89221e-14 2.41221e-24 0 -0 0 0)
(0.000344755 -2.42633e-14 -0 -2.36709e-14 1.66592e-24 0 -0 0 0)
(0.00034464 -1.98759e-14 -0 -1.88479e-14 1.08699e-24 0 -0 0 0)
(0.000344522 -1.5822e-14 -0 -1.45507e-14 6.68233e-25 0 -0 0 0)
(0.000344457 -1.21643e-14 -0 -1.03444e-14 3.65305e-25 0 -0 0 0)
(0.000344418 -7.42349e-15 -0 -5.06813e-15 1.09237e-25 0 -0 0 0)
(0.0003444 9.65278e-16 -0 -1.08447e-15 -3.03955e-27 0 -0 -0 0)
(0.00035913 1.41526e-09 -0 1.37611e-09 5.42297e-15 -0 -0 -0 0)
(0.000359021 -3.35706e-10 -0 -3.27203e-10 3.05955e-16 0 -0 0 0)
(0.00035796 7.84851e-11 -0 7.65158e-11 1.67766e-17 -0 -0 -0 0)
(0.000357551 -1.85385e-11 -0 -1.81346e-11 9.40254e-19 0 -0 0 0)
(0.000356795 4.05815e-12 -0 3.98043e-12 4.5273e-20 -0 -0 -0 0)
(0.000356428 -1.13939e-12 -0 -1.11921e-12 3.57777e-21 0 -0 0 0)
(0.00035579 6.59768e-14 -0 6.90292e-14 1.28006e-23 -0 -0 -0 0)
(0.000355471 -1.69188e-13 -0 -1.65991e-13 7.90041e-23 0 -0 0 0)
(0.000354938 -8.53842e-14 -0 -8.38124e-14 2.0162e-23 0 -0 0 0)
(0.000354675 -7.47993e-14 -0 -7.46716e-14 1.57479e-23 0 -0 0 0)
(0.000354237 -5.60693e-14 -0 -5.65107e-14 8.94463e-24 0 -0 0 0)
(0.000354035 -4.45213e-14 -0 -4.51226e-14 5.67435e-24 0 -0 0 0)
(0.000353692 -3.58351e-14 -0 -3.62054e-14 3.66823e-24 0 -0 0 0)
(0.000353542 -2.93076e-14 -0 -2.9146e-14 2.41611e-24 0 -0 0 0)
(0.0003533 -2.39725e-14 -0 -2.32627e-14 1.57845e-24 0 -0 0 0)
(0.000353197 -1.92122e-14 -0 -1.81864e-14 9.89252e-25 0 -0 0 0)
(0.00035306 -1.50338e-14 -0 -1.38496e-14 5.89734e-25 0 -0 0 0)
(0.000353 -1.14193e-14 -0 -9.76009e-15 3.15732e-25 0 -0 0 0)
(0.000352956 -6.94763e-15 -0 -4.81019e-15 9.46844e-26 0 -0 0 0)
(0.000352938 7.49087e-16 -0 -1.01341e-15 -2.1509e-27 0 -0 -0 0)
(0.000369881 -1.5122e-09 -0 -1.46825e-09 6.0027e-15 0 -0 0 0)
(0.000369769 3.8225e-10 -0 3.70643e-10 3.83153e-16 -0 -0 -0 0)
(0.000368638 -9.08291e-11 -0 -8.80501e-11 2.16948e-17 0 -0 0 0)
(0.000368205 2.24848e-11 -0 2.17811e-11 1.33008e-18 -0 -0 -0 0)
(0.000367402 -5.96899e-12 -0 -5.76321e-12 9.3632e-20 0 -0 0 0)
(0.000367013 1.08221e-12 -0 1.05622e-12 3.11448e-21 -0 -0 -0 0)
(0.000366333 -5.88037e-13 -0 -5.62195e-13 9.02433e-22 0 -0 0 0)
(0.000365997 -8.06955e-14 -0 -7.51403e-14 1.6567e-23 0 -0 0 0)
(0.000365428 -1.39597e-13 -0 -1.34218e-13 5.12726e-23 0 -0 0 0)
(0.000365151 -7.74401e-14 -0 -7.55321e-14 1.60186e-23 0 -0 0 0)
(0.000364686 -6.15954e-14 -0 -6.0799e-14 1.02689e-23 0 -0 0 0)
(0.000364468 -4.47344e-14 -0 -4.45712e-14 5.47063e-24 0 -0 0 0)
(0.000364111 -3.4922e-14 -0 -3.482e-14 3.3396e-24 0 -0 0 0)
(0.000363943 -2.7535e-14 -0 -2.71501e-14 2.0541e-24 0 -0 0 0)
(0.000363698 -2.19826e-14 -0 -2.12287e-14 1.2831e-24 0 -0 0 0)
(0.000363578 -1.72853e-14 -0 -1.63324e-14 7.76476e-25 0 -0 0 0)
(0.00036344 -1.33436e-14 -0 -1.23094e-14 4.51938e-25 0 -0 0 0)
(0.000363372 -1.00711e-14 -0 -8.64427e-15 2.39583e-25 0 -0 0 0)
(0.000363326 -6.11791e-15 -0 -4.26789e-15 7.18653e-26 0 -0 0 0)
(0.000363307 5.5448e-16 -0 -8.78526e-16 -1.34081e-27 0 -0 -0 0)
(0.000382978 1.60928e-09 -0 1.56044e-09 6.55697e-15 -0 -0 -0 0)
(0.000382845 -4.12174e-10 -0 -3.98618e-10 4.29156e-16 0 -0 0 0)
(0.000381671 9.54129e-11 -0 9.23774e-11 2.30932e-17 -0 -0 -0 0)
(0.000381179 -2.65511e-11 -0 -2.55262e-11 1.77804e-18 0 -0 0 0)
(0.000380325 5.3244e-12 -0 5.16808e-12 7.23511e-20 -0 -0 -0 0)
(0.000379914 -2.14235e-12 -0 -2.0356e-12 1.14789e-20 0 -0 0 0)
(0.000379177 9.72567e-14 -0 1.02643e-13 2.63273e-23 -0 -0 -0 0)
(0.000378826 -3.05191e-13 -0 -2.87514e-13 2.31628e-22 0 -0 0 0)
(0.000378211 -9.42444e-14 -0 -8.90818e-14 2.21978e-23 0 -0 0 0)
(0.000377918 -8.97496e-14 -0 -8.60348e-14 2.04319e-23 0 -0 0 0)
(0.00037742 -5.39518e-14 -0 -5.25541e-14 7.51255e-24 0 -0 0 0)
(0.000377187 -4.10467e-14 -0 -4.03167e-14 4.38739e-24 0 -0 0 0)
(0.000376801 -3.00213e-14 -0 -2.96097e-14 2.35913e-24 0 -0 0 0)
(0.000376627 -2.33291e-14 -0 -2.28119e-14 1.41302e-24 0 -0 0 0)
(0.000376355 -1.8178e-14 -0 -1.74615e-14 8.43393e-25 0 -0 0 0)
(0.000376236 -1.41173e-14 -0 -1.32998e-14 4.99039e-25 0 -0 0 0)
(0.000376081 -1.07813e-14 -0 -9.93954e-15 2.84941e-25 0 -0 0 0)
(0.000376013 -8.0728e-15 -0 -6.9391e-15 1.48979e-25 0 -0 0 0)
(0.000375962 -4.90196e-15 -0 -3.44077e-15 4.48622e-26 0 -0 0 0)
(0.000375942 3.72335e-16 -0 -6.76228e-16 -6.6974e-28 0 -0 -0 0)
(0.00039663 -1.61466e-09 -0 -1.56918e-09 6.38805e-15 0 -0 0 0)
(0.000396571 3.56803e-10 -0 3.4901e-10 3.14012e-16 -0 -0 -0 0)
(0.00039532 -8.59374e-11 -0 -8.39722e-11 1.82545e-17 0 -0 0 0)
(0.000394869 1.553e-11 -0 1.55396e-11 6.11167e-19 -0 -0 -0 0)
(0.000394001 -4.74617e-12 -0 -4.66182e-12 5.61567e-20 0 -0 0 0)
(0.000393581 1.117e-13 -0 1.79507e-13 5.0945e-23 -0 -0 -0 0)
(0.000392846 -3.912e-13 -0 -3.79674e-13 3.78083e-22 0 -0 0 0)
(0.00039248 -1.60684e-13 -0 -1.44678e-13 5.92322e-23 0 -0 0 0)
(0.000391854 -9.16208e-14 -0 -8.76092e-14 2.04842e-23 0 -0 0 0)
(0.000391548 -6.47658e-14 -0 -6.1376e-14 1.01522e-23 0 -0 0 0)
(0.000391048 -3.91905e-14 -0 -3.81327e-14 3.82163e-24 0 -0 0 0)
(0.00039079 -2.89043e-14 -0 -2.82776e-14 2.09152e-24 0 -0 0 0)
(0.000390408 -2.04513e-14 -0 -2.01851e-14 1.05739e-24 0 -0 0 0)
(0.000390206 -1.56537e-14 -0 -1.53432e-14 6.15516e-25 0 -0 0 0)
(0.00038994 -1.19707e-14 -0 -1.15601e-14 3.54882e-25 0 -0 0 0)
(0.000389801 -9.18904e-15 -0 -8.7226e-15 2.05624e-25 0 -0 0 0)
(0.000389644 -6.90807e-15 -0 -6.48182e-15 1.14917e-25 0 -0 0 0)
(0.000389569 -5.20934e-15 -0 -4.60302e-15 6.15519e-26 0 -0 0 0)
(0.000389517 -3.28544e-15 -0 -2.34927e-15 1.98153e-26 0 -0 0 0)
(0.000389495 1.90781e-16 -0 -4.20728e-16 -2.06079e-28 0 -0 -0 0)
(0.000399313 1.68821e-09 -0 1.63766e-09 6.92366e-15 -0 -0 -0 0)
(0.000399252 -4.65487e-10 -0 -4.48974e-10 5.23458e-16 0 -0 0 0)
(0.000399234 1.10788e-10 -0 1.06808e-10 2.96395e-17 -0 -0 -0 0)
(0.000399206 -3.16021e-11 -0 -3.02753e-11 2.39666e-18 0 -0 0 0)
(0.000399189 7.68025e-12 -0 7.35477e-12 1.41503e-19 -0 -0 -0 0)
(0.000399169 -2.37038e-12 -0 -2.24966e-12 1.33591e-20 0 -0 0 0)
(0.000399152 4.98652e-13 -0 4.75828e-13 5.94443e-22 -0 -0 -0 0)
(0.000399146 -2.2787e-13 -0 -2.14361e-13 1.22377e-22 0 -0 0 0)
(0.000399127 1.04161e-14 -0 9.77679e-15 2.55148e-25 -0 -0 -0 0)
(0.000399126 -3.5994e-14 -0 -3.42095e-14 3.08508e-24 0 -0 0 0)
(0.000399112 -1.07846e-14 -0 -1.06616e-14 2.88093e-25 0 -0 0 0)
(0.000399111 -1.10891e-14 -0 -1.09049e-14 3.02987e-25 0 -0 0 0)
(0.000399103 -6.80378e-15 -0 -6.81475e-15 1.16176e-25 0 -0 0 0)
(0.000399102 -5.39739e-15 -0 -5.36841e-15 7.26015e-26 0 -0 0 0)
(0.000399099 -4.00334e-15 -0 -3.93829e-15 3.95049e-26 0 -0 0 0)
(0.000399098 -3.05958e-15 -0 -2.97182e-15 2.27827e-26 0 -0 0 0)
(0.000399097 -2.27167e-15 -0 -2.21675e-15 1.26178e-26 0 -0 0 0)
(0.000399097 -1.75935e-15 -0 -1.62752e-15 7.17464e-27 0 -0 0 0)
(0.000399096 -1.18406e-15 -0 -8.71123e-16 2.58448e-27 0 -0 0 0)
(0.000399096 4.51913e-17 -0 -1.42777e-16 -1.61672e-29 0 -0 -0 0)
)
;

boundaryField
{
    movingWall
    {
        type            calculated;
        value           nonuniform List<tensor> 
20
(
(0.00039931 0 0 0 0 0 0 0 0)
(0.000399252 0 0 0 0 0 0 0 0)
(0.000399234 0 0 0 0 0 0 0 0)
(0.000399206 0 0 0 0 0 0 0 0)
(0.000399189 0 0 0 0 0 0 0 0)
(0.000399169 0 0 0 0 0 0 0 0)
(0.000399152 0 0 0 0 0 0 0 0)
(0.000399146 0 0 0 0 0 0 0 0)
(0.000399127 0 0 0 0 0 0 0 0)
(0.000399126 0 0 0 0 0 0 0 0)
(0.000399112 0 0 0 0 0 0 0 0)
(0.000399111 0 0 0 0 0 0 0 0)
(0.000399103 0 0 0 0 0 0 0 0)
(0.000399102 0 0 0 0 0 0 0 0)
(0.000399099 0 0 0 0 0 0 0 0)
(0.000399098 0 0 0 0 0 0 0 0)
(0.000399097 0 0 0 0 0 0 0 0)
(0.000399097 0 0 0 0 0 0 0 0)
(0.000399096 0 0 0 0 0 0 0 0)
(0.000399096 0 0 0 0 0 0 0 0)
)
;
    }
    fixedWalls
    {
        type            calculated;
        value           nonuniform List<tensor> 
60
(
(6.1561e-05 0 0 0 0 0 0 0 0)
(0.000103742 0 0 0 0 0 0 0 0)
(0.000171853 0 0 0 0 0 0 0 0)
(0.000230159 0 0 0 0 0 0 0 0)
(0.000268051 0 0 0 0 0 0 0 0)
(0.00028973 0 0 0 0 0 0 0 0)
(0.000302203 0 0 0 0 0 0 0 0)
(0.00031006 0 0 0 0 0 0 0 0)
(0.000315836 0 0 0 0 0 0 0 0)
(0.0003208 0 0 0 0 0 0 0 0)
(0.000325635 0 0 0 0 0 0 0 0)
(0.000330736 0 0 0 0 0 0 0 0)
(0.000336386 0 0 0 0 0 0 0 0)
(0.000342819 0 0 0 0 0 0 0 0)
(0.000350283 0 0 0 0 0 0 0 0)
(0.000359129 0 0 0 0 0 0 0 0)
(0.000369883 0 0 0 0 0 0 0 0)
(0.000382978 0 0 0 0 0 0 0 0)
(0.000396631 0 0 0 0 0 0 0 0)
(0.00039931 0 0 0 0 0 0 0 0)
(6.1538e-05 0 0 0 0 0 0 0 0)
(0.000103264 0 0 0 0 0 0 0 0)
(0.000170527 0 0 0 0 0 0 0 0)
(0.000227728 0 0 0 0 0 0 0 0)
(0.000264697 0 0 0 0 0 0 0 0)
(0.000285768 0 0 0 0 0 0 0 0)
(0.000297866 0 0 0 0 0 0 0 0)
(0.000305481 0 0 0 0 0 0 0 0)
(0.000311078 0 0 0 0 0 0 0 0)
(0.000315886 0 0 0 0 0 0 0 0)
(0.000320565 0 0 0 0 0 0 0 0)
(0.000325504 0 0 0 0 0 0 0 0)
(0.000330968 0 0 0 0 0 0 0 0)
(0.000337186 0 0 0 0 0 0 0 0)
(0.0003444 0 0 0 0 0 0 0 0)
(0.000352938 0 0 0 0 0 0 0 0)
(0.000363307 0 0 0 0 0 0 0 0)
(0.000375942 0 0 0 0 0 0 0 0)
(0.000389495 0 0 0 0 0 0 0 0)
(0.000399096 0 0 0 0 0 0 0 0)
(6.1561e-05 0 0 0 0 0 0 0 0)
(6.15579e-05 0 0 0 0 0 0 0 0)
(6.15551e-05 0 0 0 0 0 0 0 0)
(6.15529e-05 0 0 0 0 0 0 0 0)
(6.15508e-05 0 0 0 0 0 0 0 0)
(6.15488e-05 0 0 0 0 0 0 0 0)
(6.15469e-05 0 0 0 0 0 0 0 0)
(6.1546e-05 0 0 0 0 0 0 0 0)
(6.1544e-05 0 0 0 0 0 0 0 0)
(6.1543e-05 0 0 0 0 0 0 0 0)
(6.15416e-05 0 0 0 0 0 0 0 0)
(6.15411e-05 0 0 0 0 0 0 0 0)
(6.15397e-05 0 0 0 0 0 0 0 0)
(6.15398e-05 0 0 0 0 0 0 0 0)
(6.15387e-05 0 0 0 0 0 0 0 0)
(6.15388e-05 0 0 0 0 0 0 0 0)
(6.15381e-05 0 0 0 0 0 0 0 0)
(6.15382e-05 0 0 0 0 0 0 0 0)
(6.1538e-05 0 0 0 0 0 0 0 0)
(6.1538e-05 0 0 0 0 0 0 0 0)
)
;
    }
    frontAndBack
    {
        type            empty;
    }
}


// ************************************************************************* //
