/*--------------------------------*- C++ -*----------------------------------*\
| =========                 |                                                 |
| \\      /  F ield         | OpenFOAM: The Open Source CFD Toolbox           |
|  \\    /   O peration     | Version:  2506                                  |
|   \\  /    A nd           | Website:  www.openfoam.com                      |
|    \\/     M anipulation  |                                                 |
\*---------------------------------------------------------------------------*/
FoamFile
{
    version     2.0;
    format      ascii;
    arch        "LSB;label=32;scalar=64";
    class       volScalarField;
    location    "3";
    object      Lambda2Field;
}
// * * * * * * * * * * * * * * * * * * * * * * * * * * * * * * * * * * * * * //

dimensions      [0 0 -2 0 0 0 0];

internalField   nonuniform List<scalar> 
400
(
-1.78185e-10
-3.74691e-11
-4.49463e-12
-3.67219e-14
-3.98748e-14
1.37505e-15
-8.63725e-16
1.41183e-16
0
1.52659e-17
4.75277e-18
2.5031e-18
9.12224e-19
3.41797e-19
1.7804e-19
1.44245e-19
1.33648e-19
8.24077e-20
1.1158e-20
-8.25178e-23
2.18999e-10
7.74918e-11
6.52718e-12
4.44671e-13
3.726e-14
2.9206e-15
1.41344e-16
1.07463e-16
2.58556e-17
2.05309e-17
7.80998e-18
3.25463e-18
9.77941e-19
2.62018e-19
1.17856e-19
1.38743e-19
1.58357e-19
1.00303e-19
1.29794e-20
1.27479e-21
-5.29384e-11
0
0
0
0
0
1.83971e-16
7.98447e-17
2.457e-17
2.18477e-17
8.86336e-18
4.09309e-18
1.53814e-18
5.93939e-19
3.12961e-19
2.40599e-19
2.14508e-19
1.30294e-19
1.56618e-20
1.60673e-21
-2.64259e-10
-3.97294e-11
-7.00623e-12
-3.95463e-15
-3.04681e-14
0
-8.69176e-17
1.13984e-16
4.2429e-17
2.47543e-17
1.17323e-17
5.32459e-18
2.3838e-18
1.08866e-18
6.03015e-19
4.16497e-19
2.9978e-19
1.45375e-19
1.95064e-20
3.19363e-21
3.05196e-11
7.19851e-11
3.78855e-12
4.76442e-13
6.10538e-14
8.76444e-16
1.11854e-15
3.33408e-17
7.57117e-17
2.36302e-17
1.49834e-17
6.64837e-18
3.4364e-18
1.71025e-18
9.8442e-19
6.1753e-19
4.10162e-19
2.08231e-19
2.82186e-20
3.99501e-21
-1.04006e-09
-3.39827e-10
-3.0611e-11
-1.4386e-12
-9.8498e-14
-4.96435e-15
0
4.16469e-17
7.19084e-17
2.67925e-17
1.70257e-17
8.3193e-18
4.50463e-18
2.44094e-18
1.40396e-18
8.81999e-19
5.37618e-19
2.36124e-19
3.66548e-20
6.01957e-21
-3.18584e-10
0
0
0
0
0
2.14332e-16
6.8964e-17
5.82894e-17
3.27688e-17
1.74426e-17
1.01145e-17
5.52272e-18
3.18596e-18
1.86131e-18
1.13099e-18
6.72206e-19
3.21774e-19
5.25898e-20
7.53389e-21
-2.39958e-10
0
-2.82758e-11
0
-1.00473e-13
0
-3.83616e-17
9.60352e-17
5.29821e-17
3.57679e-17
1.96987e-17
1.15169e-17
6.535e-18
3.84631e-18
2.26509e-18
1.38081e-18
7.93315e-19
3.49935e-19
6.33755e-20
9.29586e-21
-1.3749e-09
0
-4.60131e-12
0
0
0
0
8.07056e-17
1.68387e-17
3.99612e-17
1.81907e-17
1.2748e-17
7.20432e-18
4.39006e-18
2.62621e-18
1.57618e-18
8.92864e-19
4.29315e-19
8.3204e-20
1.07283e-20
-7.94336e-10
0
0
0
0
0
0
0
7.34563e-17
2.22617e-17
2.41062e-17
1.27523e-17
7.99005e-18
4.72639e-18
2.86885e-18
1.71484e-18
9.57711e-19
4.45037e-19
9.12739e-20
1.20151e-20
0
0
0
0
0
0
0
1.46133e-17
1.66994e-17
4.67279e-17
1.57577e-17
1.4545e-17
8.01222e-18
5.05156e-18
3.04927e-18
1.80635e-18
1.00095e-18
5.01097e-19
1.11074e-19
1.24228e-20
0
0
0
0
0
0
0
0
9.88777e-17
6.77881e-18
2.89026e-17
1.32504e-17
8.88769e-18
5.22736e-18
3.23315e-18
1.90519e-18
1.05384e-18
5.30763e-19
1.16482e-19
1.17952e-20
0
0
0
0
0
0
0
0
3.22086e-17
6.48446e-17
1.36714e-17
1.74181e-17
9.03185e-18
5.77579e-18
3.53653e-18
2.0868e-18
1.15293e-18
6.04027e-19
1.40809e-19
1.00055e-20
0
0
0
0
0
0
0
0
1.84378e-16
7.37083e-18
4.07727e-17
1.76275e-17
1.12988e-17
6.76721e-18
4.17546e-18
2.48099e-18
1.38745e-18
7.29225e-19
1.62991e-19
7.49662e-21
8.06438e-09
1.16384e-09
1.75188e-10
1.62226e-12
6.84291e-13
1.02544e-14
2.10399e-16
1.07557e-15
4.49303e-17
1.31916e-16
2.93484e-17
2.74197e-17
1.40469e-17
8.74401e-18
5.35584e-18
3.15892e-18
1.74702e-18
9.13233e-19
2.16893e-19
7.83394e-21
0
0
0
0
0
0
0
0
3.65175e-16
1.0007e-16
7.14742e-17
3.67619e-17
1.98277e-17
1.19473e-17
7.17151e-18
4.17765e-18
2.28892e-18
1.18319e-18
2.74681e-19
1.25849e-20
4.31452e-08
1.23725e-08
1.25543e-09
6.97796e-11
5.87377e-12
5.04016e-13
1.49699e-14
7.32367e-15
0
3.48773e-16
8.67182e-17
5.11633e-17
2.77084e-17
1.57535e-17
9.57564e-18
5.4652e-18
2.97296e-18
1.44796e-18
3.52786e-19
2.12569e-20
4.00351e-08
1.16815e-08
1.28326e-09
6.61099e-11
8.50037e-12
2.63293e-13
8.86545e-14
-4.94686e-16
2.01195e-15
1.5769e-16
1.75404e-16
6.36278e-17
3.90942e-17
2.11701e-17
1.25818e-17
7.11241e-18
3.84261e-18
1.84759e-18
4.16369e-19
1.93555e-20
-5.57237e-08
-6.7081e-09
-1.08231e-09
0
-2.5624e-12
0
0
-8.0753e-16
1.63419e-15
1.96893e-16
2.11576e-16
7.95965e-17
4.87492e-17
2.64253e-17
1.55109e-17
8.62858e-18
4.72695e-18
2.3098e-18
5.24276e-19
1.21103e-20
0
0
0
0
0
0
0
1.58742e-14
-3.33969e-15
8.32795e-16
-7.39469e-17
7.38004e-17
1.75474e-17
1.80726e-17
1.00792e-17
6.36284e-18
3.7719e-18
2.00224e-18
5.50949e-19
1.51817e-20
)
;

boundaryField
{
    movingWall
    {
        type            calculated;
        value           nonuniform List<scalar> 
20
(
0
0
0
0
-2.10111e-11
1.3394e-12
-3.71605e-13
4.37608e-14
-1.06667e-14
1.63288e-15
-4.05712e-16
6.62593e-17
-1.1281e-17
8.43687e-18
3.9088e-18
3.53334e-18
2.48625e-18
1.54124e-18
4.22396e-19
1.44756e-20
)
;
    }
    fixedWalls
    {
        type            calculated;
        value           nonuniform List<scalar> 
60
(
-5.17232e-10
1.15101e-09
0
-1.03096e-09
2.56543e-10
-6.86953e-09
0
0
0
0
0
0
0
0
3.63024e-08
0
2.28319e-07
2.15102e-07
-2.88867e-08
0
6.5172e-23
1.79456e-21
2.38997e-21
3.25976e-21
4.37192e-21
4.62973e-21
4.45542e-21
5.02897e-21
5.47618e-21
6.58382e-21
7.4529e-21
7.95376e-21
7.33424e-21
5.50368e-21
5.9674e-21
7.04712e-21
9.9717e-21
6.19542e-21
0
0
0
0
0
0
0
4.44945e-15
-1.85425e-15
3.34408e-16
-4.40116e-17
1.66511e-17
2.52789e-18
2.36004e-18
1.08342e-18
5.8172e-19
3.2448e-19
2.07272e-19
1.37184e-19
6.44127e-20
1.05493e-20
-1.6639e-21
)
;
    }
    frontAndBack
    {
        type            empty;
    }
}


// ************************************************************************* //
