/*--------------------------------*- C++ -*----------------------------------*\
| =========                 |                                                 |
| \\      /  F ield         | OpenFOAM: The Open Source CFD Toolbox           |
|  \\    /   O peration     | Version:  2506                                  |
|   \\  /    A nd           | Website:  www.openfoam.com                      |
|    \\/     M anipulation  |                                                 |
\*---------------------------------------------------------------------------*/
FoamFile
{
    version     2.0;
    format      ascii;
    arch        "LSB;label=32;scalar=64";
    class       volVectorField;
    location    "3";
    object      LambVectorField;
}
// * * * * * * * * * * * * * * * * * * * * * * * * * * * * * * * * * * * * * //

dimensions      [0 1 -2 0 0 0 0];

internalField   nonuniform List<vector> 
400
(
(-1.18063e-11 -3.38741e-05 0)
(-2.89825e-12 3.47744e-05 -0)
(-1.72329e-13 -8.66739e-06 0)
(-9.88063e-15 2.04048e-06 -0)
(-6.63671e-16 -5.86514e-07 0)
(-3.04799e-17 9.70925e-08 -0)
(-2.80966e-18 -6.34582e-08 0)
(3.24973e-19 -8.75792e-09 -0)
(1.49158e-19 -1.39865e-08 -0)
(6.36982e-20 -5.54419e-09 -0)
(2.01311e-20 -3.05398e-09 -0)
(2.53287e-21 -6.13183e-10 -0)
(-1.03141e-21 5.12707e-10 -0)
(-6.92433e-22 1.06438e-09 -0)
(2.39742e-22 1.13627e-09 0)
(6.58265e-22 9.6027e-10 0)
(5.816e-22 6.53846e-10 0)
(2.52603e-22 3.28915e-10 0)
(2.88352e-23 9.04724e-11 0)
(7.23362e-24 7.79107e-11 0)
(-6.84316e-12 1.91506e-05 -0)
(-2.69251e-12 -3.13711e-05 0)
(-1.50204e-13 7.28403e-06 -0)
(-8.35414e-15 -1.69793e-06 0)
(-5.25495e-16 3.93378e-07 -0)
(-1.97066e-17 -9.42687e-08 0)
(-3.15551e-18 2.01235e-08 -0)
(2.7639e-19 -6.55077e-09 -0)
(1.30962e-21 -2.60275e-11 -0)
(4.09644e-20 -1.35761e-09 -0)
(1.68366e-20 -8.10268e-10 -0)
(8.36676e-21 -7.0229e-10 -0)
(2.84872e-21 -4.84505e-10 -0)
(5.24089e-22 -3.0613e-10 -0)
(-1.29034e-22 -1.56899e-10 0)
(-1.07202e-22 -4.93428e-11 0)
(1.34839e-22 4.95805e-11 0)
(5.20496e-22 2.11737e-10 0)
(2.14697e-22 2.26451e-10 0)
(3.47988e-23 1.2196e-10 0)
(-1.28554e-11 -3.41891e-05 0)
(-3.109e-12 3.63931e-05 -0)
(-1.70113e-13 -8.47147e-06 0)
(-9.55321e-15 1.97112e-06 -0)
(-4.06493e-16 -4.62438e-07 0)
(-4.53048e-17 1.05456e-07 -0)
(2.11757e-18 -2.7329e-08 -0)
(-4.65911e-19 3.98235e-09 -0)
(2.29173e-19 -3.25952e-09 -0)
(6.68231e-20 -1.30364e-09 -0)
(4.735e-20 -1.47814e-09 -0)
(2.02375e-20 -1.09058e-09 -0)
(6.9129e-21 -8.0565e-10 -0)
(9.99106e-22 -5.01388e-10 -0)
(-5.16859e-22 -2.56354e-10 0)
(-3.03281e-22 -7.42369e-11 0)
(4.47598e-22 9.24643e-11 0)
(1.5491e-21 3.64354e-10 0)
(6.63672e-22 3.9258e-10 0)
(1.07849e-22 2.16817e-10 0)
(-1.7059e-11 4.25754e-05 -0)
(-3.44652e-12 -4.00298e-05 0)
(-1.94161e-13 9.21804e-06 -0)
(-8.38782e-15 -2.12987e-06 0)
(-6.53074e-16 4.88916e-07 -0)
(5.54122e-18 -1.16654e-07 -0)
(-5.53739e-18 2.35705e-08 -0)
(1.13179e-18 -8.73026e-09 -0)
(1.05545e-19 -1.06989e-09 -0)
(1.64902e-19 -2.53367e-09 -0)
(7.36836e-20 -1.80357e-09 -0)
(3.41342e-20 -1.50775e-09 -0)
(1.01733e-20 -1.06268e-09 -0)
(6.58942e-22 -6.57781e-10 -0)
(-1.29597e-21 -3.16497e-10 0)
(-4.34751e-22 -6.6012e-11 0)
(1.20011e-21 1.63692e-10 0)
(3.40533e-21 5.38196e-10 0)
(1.48659e-21 5.78572e-10 0)
(2.39828e-22 3.27578e-10 0)
(-1.65614e-11 -3.53527e-05 0)
(-4.56997e-12 4.28471e-05 -0)
(-2.37286e-13 -9.64702e-06 0)
(-1.42373e-14 2.161e-06 -0)
(-4.73553e-16 -4.87521e-07 0)
(-7.10087e-17 1.04316e-07 -0)
(3.79307e-18 -2.70721e-08 -0)
(-3.61865e-19 1.94839e-09 -0)
(4.35229e-19 -4.11472e-09 -0)
(1.86596e-19 -2.46362e-09 -0)
(1.04016e-19 -2.34023e-09 -0)
(4.25498e-20 -1.80179e-09 -0)
(1.04935e-20 -1.28528e-09 -0)
(-1.26538e-21 -7.68512e-10 0)
(-2.49774e-21 -3.40728e-10 0)
(-2.4948e-22 -2.5261e-11 0)
(2.71674e-21 2.62526e-10 0)
(6.37134e-21 7.34869e-10 0)
(2.86691e-21 7.89675e-10 0)
(4.58858e-22 4.59785e-10 0)
(-4.0917e-11 7.75417e-05 -0)
(-6.0664e-12 -5.76553e-05 0)
(-3.35443e-13 1.32139e-05 -0)
(-1.24555e-14 -3.03383e-06 0)
(-9.78689e-16 6.91224e-07 -0)
(2.54292e-17 -1.63222e-07 -0)
(-8.68148e-18 3.28811e-08 -0)
(2.03483e-18 -1.20984e-08 -0)
(1.69891e-19 -1.4726e-09 -0)
(2.67695e-19 -3.53578e-09 -0)
(1.09025e-19 -2.51157e-09 -0)
(4.2793e-20 -2.08266e-09 -0)
(5.83777e-21 -1.43055e-09 -0)
(-5.14565e-21 -8.28461e-10 0)
(-3.76555e-21 -3.1743e-10 0)
(7.9734e-22 5.69219e-11 0)
(5.51395e-21 3.97599e-10 0)
(1.08756e-20 9.5838e-10 0)
(5.00094e-21 1.02619e-09 0)
(7.92976e-22 6.13138e-10 0)
(-5.39819e-11 -7.92873e-05 0)
(-9.97629e-12 6.91062e-05 -0)
(-5.22289e-13 -1.56771e-05 0)
(-2.70122e-14 3.54151e-06 -0)
(-9.57627e-16 -8.03515e-07 0)
(-1.16885e-16 1.75779e-07 -0)
(6.75466e-18 -4.43181e-08 -0)
(-9.03652e-19 5.05938e-09 -0)
(6.02874e-19 -5.71913e-09 -0)
(2.00775e-19 -2.90994e-09 -0)
(1.07225e-19 -2.94329e-09 -0)
(2.94994e-20 -2.20098e-09 -0)
(-4.34727e-21 -1.52592e-09 0)
(-1.05486e-20 -8.28148e-10 0)
(-4.38933e-21 -2.48032e-10 0)
(3.39999e-21 1.79055e-10 0)
(1.0126e-20 5.65204e-10 0)
(1.72005e-20 1.20422e-09 0)
(8.08385e-21 1.28502e-09 0)
(1.27353e-21 7.87002e-10 0)
(-8.47495e-11 9.93802e-05 -0)
(-1.53209e-11 -8.62871e-05 0)
(-8.24701e-13 1.94438e-05 -0)
(-3.64397e-14 -4.37183e-06 0)
(-2.21274e-15 9.74559e-07 -0)
(-3.61017e-17 -2.22517e-07 0)
(-1.26863e-17 4.45181e-08 -0)
(1.78354e-18 -1.48464e-08 -0)
(1.42427e-19 -1.48497e-09 -0)
(2.12084e-19 -4.01784e-09 -0)
(6.91258e-20 -2.85105e-09 -0)
(5.32336e-21 -2.3187e-09 -0)
(-1.90512e-20 -1.52525e-09 0)
(-1.62557e-20 -7.71118e-10 0)
(-3.16648e-21 -1.28171e-10 0)
(8.4331e-21 3.41821e-10 0)
(1.70847e-20 7.64953e-10 0)
(2.55885e-20 1.46782e-09 0)
(1.22254e-20 1.559e-09 0)
(1.91226e-21 9.75563e-10 0)
(-1.64216e-10 -0.000146883 0)
(-2.7229e-11 0.000117793 -0)
(-1.44457e-12 -2.68686e-05 0)
(-6.91603e-14 6.10983e-06 -0)
(-2.89756e-15 -1.3918e-06 0)
(-2.19918e-16 3.10722e-07 -0)
(5.43564e-18 -7.51711e-08 -0)
(-1.50968e-18 1.20272e-08 -0)
(4.73981e-19 -7.47257e-09 -0)
(8.81636e-20 -2.69923e-09 -0)
(2.09572e-20 -3.15274e-09 -0)
(-2.71774e-20 -2.23325e-09 0)
(-3.60833e-20 -1.47499e-09 0)
(-2.01702e-20 -6.52614e-10 0)
(1.07595e-21 3.30032e-11 0)
(1.65418e-20 5.36295e-10 0)
(2.65985e-20 9.85562e-10 0)
(3.58526e-20 1.73663e-09 0)
(1.73821e-20 1.83706e-09 0)
(2.70385e-21 1.17172e-09 0)
(-2.64591e-10 0.000180225 -0)
(-4.67536e-11 -0.000151899 0)
(-2.52347e-12 3.47029e-05 -0)
(-1.16366e-13 -7.91155e-06 0)
(-6.31841e-15 1.79541e-06 -0)
(-2.26291e-16 -4.11615e-07 0)
(-2.11864e-17 8.86131e-08 -0)
(9.10984e-19 -2.46715e-08 -0)
(-3.67722e-20 9.83485e-10 -0)
(2.12346e-20 -4.44298e-09 -0)
(-3.87799e-20 -2.62995e-09 0)
(-6.49545e-20 -2.21282e-09 0)
(-5.03643e-20 -1.3183e-09 0)
(-2.04491e-20 -4.90178e-10 0)
(9.45779e-21 2.3073e-10 0)
(2.79673e-20 7.52423e-10 0)
(3.84177e-20 1.21591e-09 0)
(4.74699e-20 1.99724e-09 0)
(2.33151e-20 2.10567e-09 0)
(3.59823e-21 1.36489e-09 0)
(-4.31934e-10 -0.000223368 0)
(-8.23798e-11 0.000197845 -0)
(-4.4344e-12 -4.56298e-05 0)
(-2.21751e-13 1.04993e-05 -0)
(-1.06642e-14 -2.41474e-06 0)
(-6.15399e-16 5.49833e-07 -0)
(-1.8863e-17 -1.29758e-07 0)
(-1.60115e-18 2.53666e-08 -0)
(-1.39793e-19 -9.98129e-09 0)
(-3.98114e-20 -1.66195e-09 0)
(-1.1862e-19 -2.99185e-09 0)
(-9.14701e-20 -1.88882e-09 0)
(-6.08723e-20 -1.15052e-09 0)
(-1.47317e-20 -2.78461e-10 0)
(2.19948e-20 4.45786e-10 0)
(4.21337e-20 9.74176e-10 0)
(5.15731e-20 1.43726e-09 0)
(5.93123e-20 2.23006e-09 0)
(2.94688e-20 2.34667e-09 0)
(4.50877e-21 1.54183e-09 0)
(-6.68146e-10 0.000270866 -0)
(-1.34074e-10 -0.000250126 0)
(-7.35803e-12 5.80634e-05 -0)
(-3.62202e-13 -1.34489e-05 0)
(-1.9103e-14 3.10773e-06 -0)
(-9.48597e-16 -7.20286e-07 0)
(-4.07154e-17 1.62687e-07 -0)
(-3.92237e-18 -4.10862e-08 0)
(2.29066e-19 5.73059e-09 0)
(-2.97829e-19 -4.8142e-09 0)
(-1.24778e-19 -1.90018e-09 0)
(-1.23727e-19 -1.80734e-09 0)
(-5.89562e-20 -8.70382e-10 0)
(-4.00875e-21 -6.29485e-11 0)
(3.7838e-20 6.63304e-10 0)
(5.7247e-20 1.17793e-09 0)
(6.42056e-20 1.62642e-09 0)
(6.96835e-20 2.41224e-09 0)
(3.51136e-20 2.54166e-09 0)
(5.30902e-21 1.6895e-09 0)
(-9.02592e-10 -0.000294822 0)
(-2.0809e-10 0.000302787 -0)
(-1.15859e-11 -7.10986e-05 0)
(-5.95497e-13 1.66568e-05 -0)
(-3.26638e-14 -3.8976e-06 0)
(-1.59388e-15 9.0809e-07 -0)
(-1.05065e-16 -2.14139e-07 0)
(2.72229e-19 4.68183e-08 0)
(-1.63861e-18 -1.3961e-08 0)
(2.39601e-20 2.58017e-10 0)
(-2.45598e-19 -2.60819e-09 0)
(-1.10204e-19 -1.25187e-09 0)
(-5.40271e-20 -6.61925e-10 0)
(1.2889e-20 1.76124e-10 0)
(5.42774e-20 8.56456e-10 0)
(7.09743e-20 1.3474e-09 0)
(7.41713e-20 1.766e-09 0)
(7.67906e-20 2.52496e-09 0)
(3.9147e-20 2.66648e-09 0)
(5.84675e-21 1.78938e-09 0)
(-9.96028e-10 0.000288887 -0)
(-2.70827e-10 -0.000334216 0)
(-1.51842e-11 7.99463e-05 -0)
(-8.34869e-13 -1.90762e-05 0)
(-4.50497e-14 4.53968e-06 -0)
(-2.59315e-15 -1.0781e-06 0)
(-8.35358e-17 2.53157e-07 -0)
(-1.67646e-17 -6.19107e-08 0)
(1.55309e-18 1.2108e-08 0)
(-7.30618e-19 -5.24259e-09 0)
(-9.87322e-20 -8.27278e-10 0)
(-1.32751e-19 -1.24955e-09 0)
(-3.05548e-20 -3.27902e-10 0)
(2.86473e-20 3.56667e-10 0)
(6.80704e-20 1.00788e-09 0)
(7.96751e-20 1.45105e-09 0)
(7.87283e-20 1.82839e-09 0)
(7.84434e-20 2.54208e-09 0)
(4.05959e-20 2.69912e-09 0)
(5.98674e-21 1.82754e-09 0)
(-9.51063e-10 -0.000256797 0)
(-3.11732e-10 0.00034619 -0)
(-1.75139e-11 -8.29082e-05 0)
(-1.01979e-12 1.98326e-05 -0)
(-5.85279e-14 -4.74083e-06 0)
(-2.98982e-15 1.13266e-06 -0)
(-2.65178e-16 -2.71635e-07 0)
(4.91629e-18 6.33318e-08 0)
(-4.19273e-18 -1.69025e-08 0)
(3.60324e-19 2.21005e-09 0)
(-3.03822e-19 -2.07834e-09 0)
(-6.46336e-20 -5.40252e-10 0)
(-1.85319e-20 -1.83601e-10 0)
(4.46288e-20 5.32307e-10 0)
(7.46761e-20 1.08762e-09 0)
(8.1074e-20 1.48247e-09 0)
(7.63144e-20 1.80692e-09 0)
(7.36954e-20 2.45398e-09 0)
(3.84791e-20 2.61495e-09 0)
(5.61422e-21 1.78293e-09 0)
(-1.27808e-09 0.000333547 -0)
(-3.42601e-10 -0.000375917 0)
(-1.93651e-11 9.05949e-05 -0)
(-1.10699e-12 -2.18261e-05 0)
(-5.87296e-14 5.26436e-06 -0)
(-3.9896e-15 -1.27055e-06 0)
(-5.94898e-17 3.06622e-07 -0)
(-3.50438e-17 -7.50468e-08 0)
(4.00147e-18 1.69459e-08 0)
(-1.12868e-18 -5.36102e-09 0)
(3.39528e-20 2.12833e-10 0)
(-9.09085e-20 -7.13274e-10 0)
(1.17113e-20 1.14408e-10 0)
(4.90214e-20 5.94633e-10 0)
(7.22318e-20 1.09701e-09 0)
(7.30758e-20 1.4192e-09 0)
(6.62273e-20 1.6883e-09 0)
(6.22072e-20 2.2499e-09 0)
(3.27414e-20 2.40246e-09 0)
(4.72505e-21 1.64558e-09 0)
(-6.08485e-10 -0.000153289 0)
(-3.41157e-10 0.000340353 -0)
(-1.93699e-11 -8.10954e-05 0)
(-1.14216e-12 1.93081e-05 -0)
(-7.20705e-14 -4.59446e-06 0)
(-3.14779e-15 1.09379e-06 -0)
(-3.98944e-16 -2.59957e-07 0)
(1.25858e-17 6.13036e-08 0)
(-5.58321e-18 -1.52011e-08 0)
(5.82272e-19 2.81492e-09 0)
(-2.18832e-19 -1.31261e-09 0)
(-3.26959e-21 -2.67361e-11 0)
(1.38853e-20 1.45197e-10 0)
(4.79055e-20 6.42168e-10 0)
(5.92879e-20 1.01574e-09 0)
(5.7227e-20 1.27394e-09 0)
(5.01759e-20 1.48146e-09 0)
(4.61478e-20 1.93988e-09 0)
(2.42661e-20 2.06578e-09 0)
(3.40861e-21 1.4096e-09 0)
(-6.98154e-10 0.000171348 -0)
(-3.67705e-10 -0.000353155 0)
(-2.04091e-11 8.43233e-05 -0)
(-1.34752e-12 -2.01223e-05 0)
(-6.52962e-14 4.80522e-06 -0)
(-6.14447e-15 -1.14677e-06 0)
(-7.42164e-17 2.74166e-07 -0)
(-4.98366e-17 -6.56644e-08 0)
(3.61557e-18 1.53505e-08 0)
(-9.42748e-19 -4.14113e-09 0)
(8.49014e-20 6.09725e-10 0)
(-3.33993e-20 -3.1247e-10 0)
(1.97831e-20 2.51752e-10 0)
(3.07664e-20 5.07956e-10 0)
(3.73204e-20 8.04382e-10 0)
(3.45632e-20 9.77755e-10 0)
(2.96023e-20 1.12006e-09 0)
(2.72684e-20 1.47761e-09 0)
(1.47502e-20 1.61171e-09 0)
(1.96737e-21 1.09374e-09 0)
(-2.0877e-09 -0.000527694 0)
(-3.84255e-10 0.000436619 -0)
(-2.26843e-11 -0.000106792 0)
(-1.03014e-12 2.61762e-05 -0)
(-7.60326e-14 -6.42602e-06 0)
(-7.22901e-16 1.58501e-06 -0)
(-3.77237e-16 -3.90324e-07 0)
(3.58223e-17 9.71778e-08 0)
(-5.37249e-18 -2.40298e-08 0)
(9.22641e-19 5.88599e-09 0)
(-1.58545e-19 -1.62586e-09 0)
(2.32927e-20 3.219e-10 0)
(-4.17718e-23 -8.07925e-13 0)
(1.14201e-20 2.90434e-10 0)
(1.23046e-20 4.15052e-10 0)
(1.13067e-20 5.05281e-10 0)
(9.38621e-21 5.64236e-10 0)
(9.82181e-21 8.31252e-10 0)
(6.25807e-21 1.03761e-09 0)
(7.81316e-22 7.23314e-10 0)
(-1.75702e-09 0.000428417 -0)
(-4.72851e-10 -0.000420485 0)
(-3.18613e-11 0.000119093 -0)
(-2.15739e-12 -2.84471e-05 0)
(-1.63469e-13 8.87247e-06 -0)
(-1.06441e-14 -1.88864e-06 0)
(-9.91202e-16 8.31477e-07 -0)
(-2.74196e-17 -5.1056e-08 0)
(-3.32687e-18 1.35816e-07 -0)
(3.66031e-18 4.27053e-08 0)
(1.20034e-18 4.49343e-08 0)
(7.51115e-19 2.74904e-08 0)
(3.57073e-19 2.09118e-08 0)
(1.92156e-19 1.42854e-08 0)
(9.68706e-20 9.81667e-09 0)
(4.69126e-20 6.30009e-09 0)
(2.08658e-20 3.75662e-09 0)
(7.71092e-21 1.89086e-09 0)
(1.53808e-21 7.04659e-10 0)
(9.86241e-23 2.75679e-10 0)
)
;

boundaryField
{
    movingWall
    {
        type            calculated;
        value           nonuniform List<vector> 
20
(
(0 0.0013858 -0)
(0 -0.000659246 -0)
(0 0.000211674 -0)
(0 -5.13755e-05 -0)
(0 1.77497e-05 -0)
(0 -3.89513e-06 -0)
(0 1.80608e-06 -0)
(0 -1.37202e-07 -0)
(0 2.98155e-07 -0)
(0 8.42119e-08 -0)
(0 9.48787e-08 -0)
(0 5.61478e-08 -0)
(0 4.31493e-08 -0)
(0 2.91822e-08 -0)
(0 2.00372e-08 -0)
(0 1.28071e-08 -0)
(0 7.61039e-09 -0)
(0 3.65771e-09 -0)
(0 1.06276e-09 -0)
(0 2.77674e-10 -0)
)
;
    }
    fixedWalls
    {
        type            calculated;
        value           nonuniform List<vector> 
60
(
(0 -0.000146769 -0)
(0 0.000134933 -0)
(0 -0.000155535 -0)
(0 0.000171389 -0)
(0 -0.000186557 -0)
(0 0.000246367 -0)
(0 -0.000297975 -0)
(0 0.00037297 -0)
(0 -0.000505401 -0)
(0 0.000651439 -0)
(0 -0.000845126 -0)
(0 0.00106448 -0)
(0 -0.00128199 -0)
(0 0.00140427 -0)
(0 -0.00145791 -0)
(0 0.00157422 -0)
(0 -0.00144438 -0)
(0 0.00149781 -0)
(0 -0.00180258 -0)
(0 0.00177123 -0)
(0 7.38925e-11 -0)
(0 1.12749e-10 -0)
(0 1.96988e-10 -0)
(0 2.90276e-10 -0)
(0 3.96131e-10 -0)
(0 5.13799e-10 -0)
(0 6.43377e-10 -0)
(0 7.79428e-10 -0)
(0 9.17807e-10 -0)
(0 1.04852e-09 -0)
(0 1.16335e-09 -0)
(0 1.25068e-09 -0)
(0 1.30151e-09 -0)
(0 1.30625e-09 -0)
(0 1.25608e-09 -0)
(0 1.14415e-09 -0)
(0 9.6037e-10 -0)
(0 7.18175e-10 -0)
(0 4.44246e-10 -0)
(0 1.6473e-10 -0)
(0 -4.90613e-05 -0)
(0 3.89823e-05 -0)
(0 -1.02825e-05 -0)
(0 2.44868e-06 -0)
(0 -7.93582e-07 -0)
(0 1.07393e-07 -0)
(0 -1.05997e-07 -0)
(0 -2.21638e-08 -0)
(0 -2.68457e-08 -0)
(0 -1.13806e-08 -0)
(0 -6.07753e-09 -0)
(0 -1.2658e-09 -0)
(0 1.00464e-09 -0)
(0 2.10081e-09 -0)
(0 2.24174e-09 -0)
(0 1.88916e-09 -0)
(0 1.27539e-09 -0)
(0 5.81903e-10 -0)
(0 9.94888e-11 -0)
(0 1.15097e-10 -0)
)
;
    }
    frontAndBack
    {
        type            empty;
    }
}


// ************************************************************************* //
