/*--------------------------------*- C++ -*----------------------------------*\
| =========                 |                                                 |
| \\      /  F ield         | OpenFOAM: The Open Source CFD Toolbox           |
|  \\    /   O peration     | Version:  2506                                  |
|   \\  /    A nd           | Website:  www.openfoam.com                      |
|    \\/     M anipulation  |                                                 |
\*---------------------------------------------------------------------------*/
FoamFile
{
    version     2.0;
    format      ascii;
    arch        "LSB;label=32;scalar=64";
    class       volVectorField;
    location    "3";
    object      momentum1:momentum;
}
// * * * * * * * * * * * * * * * * * * * * * * * * * * * * * * * * * * * * * //

dimensions      [1 1 -1 0 0 0 0];

internalField   nonuniform List<vector> 
400
(
(-2.5e-07 8.71338e-14 0)
(-2.5e-07 -2.0836e-14 0)
(-2.5e-07 4.97061e-15 0)
(-2.5e-07 -1.21058e-15 0)
(-2.5e-07 2.82888e-16 0)
(-2.5e-07 -7.84817e-17 0)
(-2.5e-07 1.1069e-17 0)
(-2.5e-07 -9.27655e-18 0)
(-2.5e-07 -2.66612e-18 0)
(-2.5e-07 -2.87229e-18 0)
(-2.5e-07 -1.64794e-18 0)
(-2.5e-07 -1.03267e-18 0)
(-2.5e-07 -5.02924e-19 0)
(-2.5e-07 -1.62637e-19 0)
(-2.5e-07 5.27476e-20 0)
(-2.5e-07 1.71375e-19 0)
(-2.5e-07 2.22376e-19 0)
(-2.5e-07 1.91997e-19 0)
(-2.5e-07 7.96795e-20 0)
(-2.5e-07 2.32113e-20 0)
(-2.5e-07 -8.93334e-14 0)
(-2.5e-07 2.14569e-14 0)
(-2.5e-07 -5.15524e-15 0)
(-2.5e-07 1.23005e-15 0)
(-2.5e-07 -3.33963e-16 0)
(-2.5e-07 5.22618e-17 0)
(-2.5e-07 -3.92018e-17 0)
(-2.5e-07 -1.0548e-17 0)
(-2.5e-07 -1.25792e-17 0)
(-2.5e-07 -7.54346e-18 0)
(-2.5e-07 -5.19475e-18 0)
(-2.5e-07 -2.97838e-18 0)
(-2.5e-07 -1.46991e-18 0)
(-2.5e-07 -4.27995e-19 0)
(-2.5e-07 2.05601e-19 0)
(-2.5e-07 5.43148e-19 0)
(-2.5e-07 6.79901e-19 0)
(-2.5e-07 6.14556e-19 0)
(-2.5e-07 2.37024e-19 0)
(-2.5e-07 7.13324e-20 0)
(-2.5e-07 9.40021e-14 0)
(-2.5e-07 -2.13571e-14 0)
(-2.5e-07 5.02017e-15 0)
(-2.5e-07 -1.21165e-15 0)
(-2.5e-07 2.19755e-16 0)
(-2.5e-07 -1.07403e-16 0)
(-2.5e-07 -1.93711e-17 0)
(-2.5e-07 -2.92484e-17 0)
(-2.5e-07 -1.75772e-17 0)
(-2.5e-07 -1.28147e-17 0)
(-2.5e-07 -8.00838e-18 0)
(-2.5e-07 -4.63916e-18 0)
(-2.5e-07 -2.14513e-18 0)
(-2.5e-07 -4.9817e-19 0)
(-2.5e-07 5.04047e-19 0)
(-2.5e-07 1.02133e-18 0)
(-2.5e-07 1.21019e-18 0)
(-2.5e-07 1.06291e-18 0)
(-2.5e-07 4.22635e-19 0)
(-2.5e-07 1.24354e-19 0)
(-2.5e-07 -1.00169e-13 0)
(-2.5e-07 2.15247e-14 0)
(-2.5e-07 -5.26578e-15 0)
(-2.5e-07 9.84546e-16 0)
(-2.5e-07 -3.3394e-16 0)
(-2.5e-07 -1.18754e-17 0)
(-2.5e-07 -5.87323e-17 0)
(-2.5e-07 -3.24101e-17 0)
(-2.5e-07 -2.46627e-17 0)
(-2.5e-07 -1.62711e-17 0)
(-2.5e-07 -1.02136e-17 0)
(-2.5e-07 -5.6598e-18 0)
(-2.5e-07 -2.3933e-18 0)
(-2.5e-07 -2.50441e-19 0)
(-2.5e-07 1.02369e-18 0)
(-2.5e-07 1.64648e-18 0)
(-2.5e-07 1.83287e-18 0)
(-2.5e-07 1.58183e-18 0)
(-2.5e-07 6.42351e-19 0)
(-2.5e-07 1.83032e-19 0)
(-2.5e-07 1.17115e-13 0)
(-2.5e-07 -2.66644e-14 0)
(-2.5e-07 6.14919e-15 0)
(-2.5e-07 -1.64708e-15 0)
(-2.5e-07 2.42837e-16 0)
(-2.5e-07 -1.70178e-16 0)
(-2.5e-07 -3.50275e-17 0)
(-2.5e-07 -4.64314e-17 0)
(-2.5e-07 -2.64434e-17 0)
(-2.5e-07 -1.89351e-17 0)
(-2.5e-07 -1.11117e-17 0)
(-2.5e-07 -5.90382e-18 0)
(-2.5e-07 -2.04108e-18 0)
(-2.5e-07 4.11634e-19 0)
(-2.5e-07 1.83264e-18 0)
(-2.5e-07 2.46902e-18 0)
(-2.5e-07 2.58711e-18 0)
(-2.5e-07 2.16751e-18 0)
(-2.5e-07 9.07623e-19 0)
(-2.5e-07 2.49496e-19 0)
(-2.5e-07 -1.31919e-13 0)
(-2.5e-07 2.63046e-14 0)
(-2.5e-07 -6.34641e-15 0)
(-2.5e-07 1.02639e-15 0)
(-2.5e-07 -3.53969e-16 0)
(-2.5e-07 -3.89489e-17 0)
(-2.5e-07 -6.60065e-17 0)
(-2.5e-07 -4.20476e-17 0)
(-2.5e-07 -2.8842e-17 0)
(-2.5e-07 -1.89276e-17 0)
(-2.5e-07 -1.08523e-17 0)
(-2.5e-07 -5.13683e-18 0)
(-2.5e-07 -1.0202e-18 0)
(-2.5e-07 1.55277e-18 0)
(-2.5e-07 2.96566e-18 0)
(-2.5e-07 3.5019e-18 0)
(-2.5e-07 3.46703e-18 0)
(-2.5e-07 2.83696e-18 0)
(-2.5e-07 1.21833e-18 0)
(-2.5e-07 3.23327e-19 0)
(-2.5e-07 1.7021e-13 0)
(-2.5e-07 -3.60904e-14 0)
(-2.5e-07 8.32885e-15 0)
(-2.5e-07 -1.90683e-15 0)
(-2.5e-07 2.97949e-16 0)
(-2.5e-07 -1.66239e-16 0)
(-2.5e-07 -3.81033e-17 0)
(-2.5e-07 -4.46523e-17 0)
(-2.5e-07 -2.63534e-17 0)
(-2.5e-07 -1.7249e-17 0)
(-2.5e-07 -9.10756e-18 0)
(-2.5e-07 -3.35072e-18 0)
(-2.5e-07 7.1224e-19 0)
(-2.5e-07 3.1844e-18 0)
(-2.5e-07 4.42416e-18 0)
(-2.5e-07 4.74713e-18 0)
(-2.5e-07 4.47891e-18 0)
(-2.5e-07 3.57088e-18 0)
(-2.5e-07 1.57271e-18 0)
(-2.5e-07 4.0455e-19 0)
(-2.5e-07 -2.13195e-13 0)
(-2.5e-07 4.43893e-14 0)
(-2.5e-07 -1.06037e-14 0)
(-2.5e-07 2.08378e-15 0)
(-2.5e-07 -5.67627e-16 0)
(-2.5e-07 4.05606e-17 0)
(-2.5e-07 -7.12424e-17 0)
(-2.5e-07 -3.00331e-17 0)
(-2.5e-07 -2.39781e-17 0)
(-2.5e-07 -1.31964e-17 0)
(-2.5e-07 -6.06144e-18 0)
(-2.5e-07 -5.7396e-19 0)
(-2.5e-07 3.12262e-18 0)
(-2.5e-07 5.27016e-18 0)
(-2.5e-07 6.1763e-18 0)
(-2.5e-07 6.16778e-18 0)
(-2.5e-07 5.58358e-18 0)
(-2.5e-07 4.35827e-18 0)
(-2.5e-07 1.96046e-18 0)
(-2.5e-07 4.90039e-19 0)
(-2.5e-07 2.79502e-13 0)
(-2.5e-07 -5.77897e-14 0)
(-2.5e-07 1.34411e-14 0)
(-2.5e-07 -2.82988e-15 0)
(-2.5e-07 5.20471e-16 0)
(-2.5e-07 -1.76942e-16 0)
(-2.5e-07 -1.80776e-17 0)
(-2.5e-07 -3.13804e-17 0)
(-2.5e-07 -1.58574e-17 0)
(-2.5e-07 -8.16562e-18 0)
(-2.5e-07 -1.66183e-18 0)
(-2.5e-07 3.04235e-18 0)
(-2.5e-07 6.11586e-18 0)
(-2.5e-07 7.72668e-18 0)
(-2.5e-07 8.15038e-18 0)
(-2.5e-07 7.71112e-18 0)
(-2.5e-07 6.74703e-18 0)
(-2.5e-07 5.16123e-18 0)
(-2.5e-07 2.36548e-18 0)
(-2.5e-07 5.76899e-19 0)
(-2.5e-07 -3.67029e-13 0)
(-2.5e-07 7.69484e-14 0)
(-2.5e-07 -1.81791e-14 0)
(-2.5e-07 3.6771e-15 0)
(-2.5e-07 -8.79799e-16 0)
(-2.5e-07 1.37441e-16 0)
(-2.5e-07 -5.97723e-17 0)
(-2.5e-07 -9.23114e-18 0)
(-2.5e-07 -9.34743e-18 0)
(-2.5e-07 -1.19484e-18 0)
(-2.5e-07 3.68637e-18 0)
(-2.5e-07 7.33844e-18 0)
(-2.5e-07 9.55099e-18 0)
(-2.5e-07 1.04294e-17 0)
(-2.5e-07 1.02477e-17 0)
(-2.5e-07 9.2924e-18 0)
(-2.5e-07 7.89899e-18 0)
(-2.5e-07 5.94195e-18 0)
(-2.5e-07 2.76814e-18 0)
(-2.5e-07 6.59069e-19 0)
(-2.5e-07 4.83433e-13 0)
(-2.5e-07 -1.04097e-13 0)
(-2.5e-07 2.42955e-14 0)
(-2.5e-07 -5.28015e-15 0)
(-2.5e-07 1.10408e-15 0)
(-2.5e-07 -2.79812e-16 0)
(-2.5e-07 3.63427e-17 0)
(-2.5e-07 -1.57801e-17 0)
(-2.5e-07 3.50138e-18 0)
(-2.5e-07 5.98865e-18 0)
(-2.5e-07 9.91194e-18 0)
(-2.5e-07 1.21068e-17 0)
(-2.5e-07 1.32272e-17 0)
(-2.5e-07 1.3226e-17 0)
(-2.5e-07 1.23348e-17 0)
(-2.5e-07 1.08126e-17 0)
(-2.5e-07 8.97071e-18 0)
(-2.5e-07 6.64919e-18 0)
(-2.5e-07 3.13942e-18 0)
(-2.5e-07 7.31075e-19 0)
(-2.5e-07 -6.16677e-13 0)
(-2.5e-07 1.34006e-13 0)
(-2.5e-07 -3.1681e-14 0)
(-2.5e-07 6.73291e-15 0)
(-2.5e-07 -1.53674e-15 0)
(-2.5e-07 3.29243e-16 0)
(-2.5e-07 -6.25671e-17 0)
(-2.5e-07 2.38667e-17 0)
(-2.5e-07 9.99315e-18 0)
(-2.5e-07 1.54662e-17 0)
(-2.5e-07 1.64167e-17 0)
(-2.5e-07 1.71144e-17 0)
(-2.5e-07 1.6934e-17 0)
(-2.5e-07 1.59208e-17 0)
(-2.5e-07 1.42612e-17 0)
(-2.5e-07 1.21499e-17 0)
(-2.5e-07 9.86916e-18 0)
(-2.5e-07 7.22187e-18 0)
(-2.5e-07 3.45381e-18 0)
(-2.5e-07 7.85591e-19 0)
(-2.49999e-07 7.65368e-13 0)
(-2.5e-07 -1.71812e-13 0)
(-2.5e-07 4.0739e-14 0)
(-2.5e-07 -8.93773e-15 0)
(-2.5e-07 2.09512e-15 0)
(-2.5e-07 -4.38799e-16 0)
(-2.5e-07 1.22659e-16 0)
(-2.5e-07 1.45365e-18 0)
(-2.5e-07 2.93426e-17 0)
(-2.5e-07 2.32156e-17 0)
(-2.5e-07 2.35411e-17 0)
(-2.5e-07 2.20079e-17 0)
(-2.5e-07 2.04053e-17 0)
(-2.5e-07 1.82953e-17 0)
(-2.5e-07 1.58436e-17 0)
(-2.5e-07 1.31688e-17 0)
(-2.5e-07 1.04999e-17 0)
(-2.5e-07 7.60315e-18 0)
(-2.5e-07 3.67028e-18 0)
(-2.5e-07 8.16867e-19 0)
(-2.50001e-07 -8.61956e-13 0)
(-2.5e-07 2.02584e-13 0)
(-2.5e-07 -4.74826e-14 0)
(-2.5e-07 1.09412e-14 0)
(-2.5e-07 -2.48088e-15 0)
(-2.5e-07 6.01325e-16 0)
(-2.5e-07 -8.24939e-17 0)
(-2.5e-07 6.76966e-17 0)
(-2.5e-07 3.20673e-17 0)
(-2.5e-07 3.48405e-17 0)
(-2.5e-07 2.98365e-17 0)
(-2.5e-07 2.65598e-17 0)
(-2.5e-07 2.32957e-17 0)
(-2.5e-07 2.00799e-17 0)
(-2.5e-07 1.68846e-17 0)
(-2.5e-07 1.37271e-17 0)
(-2.5e-07 1.07647e-17 0)
(-2.5e-07 7.71448e-18 0)
(-2.5e-07 3.76011e-18 0)
(-2.5e-07 8.18964e-19 0)
(-2.49999e-07 9.25886e-13 0)
(-2.5e-07 -2.25117e-13 0)
(-2.5e-07 5.2811e-14 0)
(-2.5e-07 -1.28549e-14 0)
(-2.5e-07 3.08637e-15 0)
(-2.5e-07 -6.59915e-16 0)
(-2.5e-07 2.44058e-16 0)
(-2.5e-07 1.94069e-17 0)
(-2.5e-07 6.20136e-17 0)
(-2.5e-07 4.07597e-17 0)
(-2.5e-07 3.65463e-17 0)
(-2.5e-07 2.9909e-17 0)
(-2.5e-07 2.52339e-17 0)
(-2.5e-07 2.09601e-17 0)
(-2.5e-07 1.7165e-17 0)
(-2.5e-07 1.36722e-17 0)
(-2.5e-07 1.05586e-17 0)
(-2.5e-07 7.50775e-18 0)
(-2.5e-07 3.67877e-18 0)
(-2.5e-07 7.87221e-19 0)
(-2.5e-07 -9.5795e-13 0)
(-2.5e-07 2.27844e-13 0)
(-2.5e-07 -5.34388e-14 0)
(-2.5e-07 1.26797e-14 0)
(-2.5e-07 -2.78902e-15 0)
(-2.5e-07 7.85015e-16 0)
(-2.5e-07 -4.85042e-17 0)
(-2.5e-07 1.1674e-16 0)
(-2.5e-07 5.90332e-17 0)
(-2.5e-07 5.26338e-17 0)
(-2.5e-07 3.98821e-17 0)
(-2.5e-07 3.18631e-17 0)
(-2.5e-07 2.55911e-17 0)
(-2.5e-07 2.061e-17 0)
(-2.5e-07 1.6461e-17 0)
(-2.5e-07 1.28727e-17 0)
(-2.5e-07 9.80682e-18 0)
(-2.5e-07 6.91223e-18 0)
(-2.5e-07 3.40708e-18 0)
(-2.5e-07 7.17841e-19 0)
(-2.49999e-07 9.92377e-13 0)
(-2.5e-07 -2.50591e-13 0)
(-2.5e-07 5.97131e-14 0)
(-2.5e-07 -1.47887e-14 0)
(-2.5e-07 3.9216e-15 0)
(-2.5e-07 -7.19472e-16 0)
(-2.5e-07 3.83664e-16 0)
(-2.5e-07 5.13257e-17 0)
(-2.5e-07 9.18227e-17 0)
(-2.5e-07 5.1713e-17 0)
(-2.5e-07 4.1679e-17 0)
(-2.5e-07 3.05728e-17 0)
(-2.5e-07 2.39076e-17 0)
(-2.5e-07 1.86499e-17 0)
(-2.5e-07 1.45923e-17 0)
(-2.5e-07 1.12303e-17 0)
(-2.5e-07 8.46732e-18 0)
(-2.5e-07 5.94726e-18 0)
(-2.5e-07 2.93668e-18 0)
(-2.5e-07 6.04534e-19 0)
(-2.5e-07 -1.01862e-12 0)
(-2.5e-07 2.603e-13 0)
(-2.5e-07 -6.05085e-14 0)
(-2.5e-07 1.67416e-14 0)
(-2.5e-07 -3.39715e-15 0)
(-2.5e-07 1.33952e-15 0)
(-2.5e-07 -6.76747e-17 0)
(-2.5e-07 1.8974e-16 0)
(-2.5e-07 5.88837e-17 0)
(-2.5e-07 5.69136e-17 0)
(-2.5e-07 3.48114e-17 0)
(-2.5e-07 2.67219e-17 0)
(-2.5e-07 1.96454e-17 0)
(-2.5e-07 1.51423e-17 0)
(-2.5e-07 1.15991e-17 0)
(-2.5e-07 8.83738e-18 0)
(-2.5e-07 6.6073e-18 0)
(-2.5e-07 4.61361e-18 0)
(-2.5e-07 2.28797e-18 0)
(-2.5e-07 4.49689e-19 0)
(-2.5e-07 9.89067e-13 0)
(-2.5e-07 -2.20018e-13 0)
(-2.5e-07 5.3104e-14 0)
(-2.5e-07 -9.83849e-15 0)
(-2.5e-07 2.958e-15 0)
(-2.5e-07 -1.14021e-16 0)
(-2.5e-07 2.41618e-16 0)
(-2.5e-07 9.21565e-17 0)
(-2.5e-07 5.5894e-17 0)
(-2.5e-07 3.9188e-17 0)
(-2.5e-07 2.43786e-17 0)
(-2.5e-07 1.809e-17 0)
(-2.5e-07 1.29256e-17 0)
(-2.5e-07 9.83022e-18 0)
(-2.5e-07 7.41146e-18 0)
(-2.5e-07 5.59426e-18 0)
(-2.5e-07 4.15881e-18 0)
(-2.5e-07 2.95392e-18 0)
(-2.5e-07 1.50781e-18 0)
(-2.5e-07 2.70047e-19 0)
(-2.50001e-07 -1.0253e-12 0)
(-2.5e-07 2.81134e-13 0)
(-2.5e-07 -6.68832e-14 0)
(-2.5e-07 1.89597e-14 0)
(-2.5e-07 -4.60607e-15 0)
(-2.5e-07 1.40897e-15 0)
(-2.5e-07 -2.98025e-16 0)
(-2.5e-07 1.34262e-16 0)
(-2.5e-07 -6.12385e-18 0)
(-2.5e-07 2.14277e-17 0)
(-2.5e-07 6.67831e-18 0)
(-2.5e-07 6.83071e-18 0)
(-2.5e-07 4.2688e-18 0)
(-2.5e-07 3.36281e-18 0)
(-2.5e-07 2.46699e-18 0)
(-2.5e-07 1.86159e-18 0)
(-2.5e-07 1.3886e-18 0)
(-2.5e-07 1.0195e-18 0)
(-2.5e-07 5.45684e-19 0)
(-2.5e-07 8.94376e-20 0)
)
;

boundaryField
{
    movingWall
    {
        type            calculated;
        value           uniform (0 0 0);
    }
    fixedWalls
    {
        type            calculated;
        value           uniform (0 0 0);
    }
    frontAndBack
    {
        type            empty;
    }
}


// ************************************************************************* //
