/*--------------------------------*- C++ -*----------------------------------*\
| =========                 |                                                 |
| \\      /  F ield         | OpenFOAM: The Open Source CFD Toolbox           |
|  \\    /   O peration     | Version:  2506                                  |
|   \\  /    A nd           | Website:  www.openfoam.com                      |
|    \\/     M anipulation  |                                                 |
\*---------------------------------------------------------------------------*/
FoamFile
{
    version     2.0;
    format      ascii;
    arch        "LSB;label=32;scalar=64";
    class       volScalarField;
    location    "3";
    object      norm_k_field;
}
// * * * * * * * * * * * * * * * * * * * * * * * * * * * * * * * * * * * * * //

dimensions      [0 0 0 0 0 0 0];

internalField   nonuniform List<scalar> 
400
(
2.65425e+07
6.15579e+10
6.15551e+10
6.15529e+10
6.15508e+10
6.15488e+10
6.15469e+10
6.1546e+10
6.1544e+10
6.1543e+10
6.15416e+10
6.15411e+10
6.15397e+10
6.15398e+10
6.15387e+10
6.15388e+10
6.15381e+10
6.15382e+10
6.1538e+10
6.1538e+10
1.03742e+11
1.03737e+11
1.03652e+11
1.03622e+11
1.03563e+11
1.03536e+11
1.03486e+11
1.03461e+11
1.0342e+11
1.03399e+11
1.03366e+11
1.0335e+11
1.03323e+11
1.03311e+11
1.03292e+11
1.03285e+11
1.03273e+11
1.03269e+11
1.03265e+11
1.03264e+11
21462.1
1.71837e+11
1.71602e+11
1.71518e+11
1.71354e+11
1.71275e+11
1.71142e+11
1.71068e+11
1.70962e+11
1.70897e+11
1.70813e+11
1.7076e+11
1.70694e+11
1.70655e+11
1.70607e+11
1.70581e+11
1.70555e+11
1.70541e+11
1.70532e+11
1.70527e+11
2.30159e+11
2.3013e+11
2.29696e+11
2.29545e+11
2.2925e+11
2.29102e+11
2.28854e+11
2.28726e+11
2.28519e+11
2.2841e+11
2.28248e+11
2.28156e+11
2.28033e+11
2.27961e+11
2.27877e+11
2.27828e+11
2.27778e+11
2.27752e+11
2.27735e+11
2.27728e+11
33468
2.68007e+11
2.67414e+11
2.67204e+11
2.66794e+11
2.66595e+11
2.66251e+11
2.66077e+11
2.65786e+11
2.65643e+11
2.65409e+11
2.65292e+11
2.65113e+11
2.65024e+11
2.64898e+11
2.64838e+11
2.64764e+11
2.64732e+11
2.64707e+11
2.64697e+11
2.8973e+11
2.89671e+11
2.88986e+11
2.88725e+11
2.88247e+11
2.88008e+11
2.87599e+11
2.87396e+11
2.87054e+11
2.8688e+11
2.86614e+11
2.86466e+11
2.86264e+11
2.86149e+11
2.8601e+11
2.85932e+11
2.8585e+11
2.85808e+11
2.8578e+11
2.85768e+11
229718
14409.7
3.0137e+11
3.01106e+11
3.00578e+11
3.00315e+11
2.99868e+11
2.99648e+11
2.99267e+11
2.9909e+11
2.9878e+11
2.98638e+11
2.98397e+11
2.98291e+11
2.98122e+11
2.98048e+11
2.97952e+11
2.9791e+11
2.97879e+11
2.97866e+11
3.1006e+11
3.09998e+11
3.09181e+11
3.08902e+11
3.08342e+11
3.08067e+11
3.07594e+11
3.07362e+11
3.06962e+11
3.06772e+11
3.06445e+11
3.06296e+11
3.0604e+11
3.05931e+11
3.0575e+11
3.05675e+11
3.05571e+11
3.05528e+11
3.05494e+11
3.05481e+11
34156.7
6771.15
3.14927e+11
3.14631e+11
3.14047e+11
3.13763e+11
3.13276e+11
3.13028e+11
3.12619e+11
3.12416e+11
3.12081e+11
3.11922e+11
3.11661e+11
3.11543e+11
3.11358e+11
3.11278e+11
3.11172e+11
3.11126e+11
3.11092e+11
3.11078e+11
3.208e+11
3.2072e+11
3.19879e+11
3.19549e+11
3.18953e+11
3.18663e+11
3.18152e+11
3.17904e+11
3.17475e+11
3.17265e+11
3.16928e+11
3.16751e+11
3.16496e+11
3.1636e+11
3.16181e+11
3.1609e+11
3.15984e+11
3.15936e+11
3.159e+11
3.15886e+11
40543.3
3431.05
549221
341951
3.23729e+11
3.23423e+11
3.22905e+11
3.22641e+11
3.22208e+11
3.21989e+11
3.21632e+11
3.21463e+11
3.21186e+11
3.21059e+11
3.20866e+11
3.20776e+11
3.20667e+11
3.20616e+11
3.2058e+11
3.20565e+11
3.30736e+11
3.30653e+11
3.29744e+11
3.29406e+11
3.28769e+11
3.28457e+11
3.27915e+11
3.2765e+11
3.27193e+11
3.26976e+11
3.26604e+11
3.26431e+11
3.26145e+11
3.26012e+11
3.25816e+11
3.25721e+11
3.2561e+11
3.25556e+11
3.2552e+11
3.25504e+11
3.36386e+11
2119.93
141375
59970.8
3.34346e+11
3.34023e+11
3.33468e+11
3.33187e+11
3.32722e+11
3.32488e+11
3.32112e+11
3.31925e+11
3.31631e+11
3.31493e+11
3.31293e+11
3.31191e+11
3.3108e+11
3.31022e+11
3.30985e+11
3.30968e+11
30354.3
3.42734e+11
3.41734e+11
3.41387e+11
3.40697e+11
3.4036e+11
3.39782e+11
3.39492e+11
3.39006e+11
3.38765e+11
3.38373e+11
3.38175e+11
3.37884e+11
3.37726e+11
3.37525e+11
3.37417e+11
3.373e+11
3.37242e+11
3.37203e+11
3.37186e+11
3.50283e+11
1951.67
3.49169e+11
42214.7
3.48065e+11
3.47717e+11
3.47109e+11
3.46807e+11
3.46304e+11
3.46049e+11
3.45639e+11
3.45436e+11
3.45123e+11
3.44966e+11
3.44755e+11
3.4464e+11
3.44522e+11
3.44457e+11
3.44418e+11
3.444e+11
15368.3
3.59021e+11
3.5796e+11
3.57551e+11
3.56795e+11
3.56428e+11
3.5579e+11
3.55471e+11
3.54938e+11
3.54675e+11
3.54237e+11
3.54035e+11
3.53692e+11
3.53542e+11
3.533e+11
3.53197e+11
3.5306e+11
3.53e+11
3.52956e+11
3.52938e+11
3.69883e+11
1882.05
3.68638e+11
34823.1
3.67402e+11
3.67013e+11
3.66333e+11
3.65997e+11
3.65428e+11
3.65151e+11
3.64686e+11
3.64468e+11
3.64111e+11
3.63943e+11
3.63698e+11
3.63578e+11
3.6344e+11
3.63372e+11
3.63326e+11
3.63307e+11
3.82978e+11
3.82845e+11
3.81671e+11
3.81179e+11
3.80325e+11
3.79914e+11
3.79177e+11
3.78826e+11
3.78211e+11
3.77918e+11
3.7742e+11
3.77187e+11
3.76801e+11
3.76627e+11
3.76355e+11
3.76236e+11
3.76081e+11
3.76013e+11
3.75962e+11
3.75942e+11
3.96631e+11
4375.61
3.9532e+11
3.94869e+11
3.94001e+11
3.93581e+11
3.92846e+11
3.9248e+11
3.91854e+11
3.91548e+11
3.91048e+11
3.9079e+11
3.90408e+11
3.90206e+11
3.8994e+11
3.89801e+11
3.89644e+11
3.89569e+11
3.89517e+11
3.89495e+11
2498.49
3.99252e+11
43389.3
3.99206e+11
3.99189e+11
3.99169e+11
3.99152e+11
3.99146e+11
3.99127e+11
3.99126e+11
3.99112e+11
3.99111e+11
3.99103e+11
3.99102e+11
3.99099e+11
3.99098e+11
3.99097e+11
3.99097e+11
3.99096e+11
3.99096e+11
)
;

boundaryField
{
    movingWall
    {
        type            calculated;
        value           nonuniform List<scalar> 
20
(
2498.49
3.99252e+11
43389.3
3.99206e+11
3.99189e+11
3.99169e+11
3.99152e+11
3.99146e+11
3.99127e+11
3.99126e+11
3.99112e+11
3.99111e+11
3.99103e+11
3.99102e+11
3.99099e+11
3.99098e+11
3.99097e+11
3.99097e+11
3.99096e+11
3.99096e+11
)
;
    }
    fixedWalls
    {
        type            calculated;
        value           nonuniform List<scalar> 
60
(
2.65425e+07
1.03742e+11
21462.1
2.30159e+11
33468
2.8973e+11
229718
3.1006e+11
34156.7
3.208e+11
40543.3
3.30736e+11
3.36386e+11
30354.3
3.50283e+11
15368.3
3.69883e+11
3.82978e+11
3.96631e+11
2498.49
6.1538e+10
1.03264e+11
1.70527e+11
2.27728e+11
2.64697e+11
2.85768e+11
2.97866e+11
3.05481e+11
3.11078e+11
3.15886e+11
3.20565e+11
3.25504e+11
3.30968e+11
3.37186e+11
3.444e+11
3.52938e+11
3.63307e+11
3.75942e+11
3.89495e+11
3.99096e+11
2.65425e+07
6.15579e+10
6.15551e+10
6.15529e+10
6.15508e+10
6.15488e+10
6.15469e+10
6.1546e+10
6.1544e+10
6.1543e+10
6.15416e+10
6.15411e+10
6.15397e+10
6.15398e+10
6.15387e+10
6.15388e+10
6.15381e+10
6.15382e+10
6.1538e+10
6.1538e+10
)
;
    }
    frontAndBack
    {
        type            empty;
    }
}


// ************************************************************************* //
