/*--------------------------------*- C++ -*----------------------------------*\
| =========                 |                                                 |
| \\      /  F ield         | OpenFOAM: The Open Source CFD Toolbox           |
|  \\    /   O peration     | Version:  2506                                  |
|   \\  /    A nd           | Website:  www.openfoam.com                      |
|    \\/     M anipulation  |                                                 |
\*---------------------------------------------------------------------------*/
FoamFile
{
    version     2.0;
    format      ascii;
    arch        "LSB;label=32;scalar=64";
    class       volVectorField;
    location    "3";
    object      norm_U_max;
}
// * * * * * * * * * * * * * * * * * * * * * * * * * * * * * * * * * * * * * //

dimensions      [0 0 0 0 0 0 0];

internalField   nonuniform List<vector> 
400
(
(-0.999997 3.48534e-07 0)
(-0.999997 -8.3344e-08 0)
(-0.999997 1.98824e-08 0)
(-0.999997 -4.84229e-09 0)
(-0.999997 1.13155e-09 0)
(-0.999997 -3.13926e-10 0)
(-0.999997 4.42757e-11 0)
(-0.999997 -3.71061e-11 0)
(-0.999997 -1.06644e-11 0)
(-0.999997 -1.14891e-11 0)
(-0.999997 -6.59174e-12 0)
(-0.999997 -4.13068e-12 0)
(-0.999997 -2.01169e-12 0)
(-0.999997 -6.50548e-13 0)
(-0.999997 2.1099e-13 0)
(-0.999997 6.85498e-13 0)
(-0.999997 8.89503e-13 0)
(-0.999997 7.67987e-13 0)
(-0.999997 3.18717e-13 0)
(-0.999997 9.28448e-14 0)
(-0.999997 -3.57333e-07 0)
(-0.999997 8.58272e-08 0)
(-0.999997 -2.06209e-08 0)
(-0.999997 4.92017e-09 0)
(-0.999997 -1.33585e-09 0)
(-0.999997 2.09047e-10 0)
(-0.999997 -1.56807e-10 0)
(-0.999997 -4.21919e-11 0)
(-0.999997 -5.03166e-11 0)
(-0.999997 -3.01738e-11 0)
(-0.999997 -2.0779e-11 0)
(-0.999997 -1.19135e-11 0)
(-0.999997 -5.87963e-12 0)
(-0.999997 -1.71198e-12 0)
(-0.999997 8.22401e-13 0)
(-0.999997 2.17258e-12 0)
(-0.999997 2.71959e-12 0)
(-0.999997 2.45822e-12 0)
(-0.999997 9.48093e-13 0)
(-0.999997 2.85329e-13 0)
(-0.999997 3.76008e-07 0)
(-0.999997 -8.54281e-08 0)
(-0.999997 2.00806e-08 0)
(-0.999997 -4.84658e-09 0)
(-0.999997 8.79019e-10 0)
(-0.999997 -4.29609e-10 0)
(-0.999997 -7.74841e-11 0)
(-0.999997 -1.16993e-10 0)
(-0.999997 -7.03086e-11 0)
(-0.999997 -5.12587e-11 0)
(-0.999997 -3.20334e-11 0)
(-0.999997 -1.85566e-11 0)
(-0.999997 -8.5805e-12 0)
(-0.999997 -1.99267e-12 0)
(-0.999997 2.01618e-12 0)
(-0.999997 4.08529e-12 0)
(-0.999997 4.84076e-12 0)
(-0.999997 4.25163e-12 0)
(-0.999997 1.69054e-12 0)
(-0.999997 4.97416e-13 0)
(-0.999997 -4.00676e-07 0)
(-0.999997 8.60986e-08 0)
(-0.999997 -2.10631e-08 0)
(-0.999997 3.93817e-09 0)
(-0.999997 -1.33576e-09 0)
(-0.999997 -4.75013e-11 0)
(-0.999997 -2.34928e-10 0)
(-0.999997 -1.2964e-10 0)
(-0.999997 -9.86507e-11 0)
(-0.999997 -6.50842e-11 0)
(-0.999997 -4.08542e-11 0)
(-0.999997 -2.26391e-11 0)
(-0.999997 -9.57318e-12 0)
(-0.999997 -1.00176e-12 0)
(-0.999997 4.09473e-12 0)
(-0.999997 6.58592e-12 0)
(-0.999997 7.33145e-12 0)
(-0.999997 6.32729e-12 0)
(-0.999997 2.5694e-12 0)
(-0.999997 7.32124e-13 0)
(-0.999997 4.68461e-07 0)
(-0.999997 -1.06657e-07 0)
(-0.999997 2.45967e-08 0)
(-0.999997 -6.5883e-09 0)
(-0.999997 9.71346e-10 0)
(-0.999997 -6.80709e-10 0)
(-0.999997 -1.40109e-10 0)
(-0.999997 -1.85725e-10 0)
(-0.999997 -1.05773e-10 0)
(-0.999997 -7.57403e-11 0)
(-0.999997 -4.44469e-11 0)
(-0.999997 -2.36152e-11 0)
(-0.999997 -8.1643e-12 0)
(-0.999997 1.64653e-12 0)
(-0.999997 7.33056e-12 0)
(-0.999997 9.87605e-12 0)
(-0.999997 1.03484e-11 0)
(-0.999997 8.67001e-12 0)
(-0.999997 3.63048e-12 0)
(-0.999997 9.97983e-13 0)
(-0.999997 -5.27676e-07 0)
(-0.999997 1.05218e-07 0)
(-0.999997 -2.53856e-08 0)
(-0.999997 4.10554e-09 0)
(-0.999997 -1.41587e-09 0)
(-0.999997 -1.55795e-10 0)
(-0.999997 -2.64025e-10 0)
(-0.999997 -1.6819e-10 0)
(-0.999997 -1.15368e-10 0)
(-0.999997 -7.57101e-11 0)
(-0.999997 -4.34089e-11 0)
(-0.999997 -2.05473e-11 0)
(-0.999997 -4.08077e-12 0)
(-0.999997 6.21107e-12 0)
(-0.999997 1.18626e-11 0)
(-0.999997 1.40076e-11 0)
(-0.999997 1.38681e-11 0)
(-0.999997 1.13478e-11 0)
(-0.999997 4.8733e-12 0)
(-0.999997 1.2933e-12 0)
(-0.999997 6.80837e-07 0)
(-0.999997 -1.44361e-07 0)
(-0.999997 3.33153e-08 0)
(-0.999997 -7.62729e-09 0)
(-0.999997 1.19179e-09 0)
(-0.999997 -6.64956e-10 0)
(-0.999997 -1.52413e-10 0)
(-0.999997 -1.78609e-10 0)
(-0.999997 -1.05413e-10 0)
(-0.999997 -6.8996e-11 0)
(-0.999997 -3.64301e-11 0)
(-0.999997 -1.34028e-11 0)
(-0.999997 2.84895e-12 0)
(-0.999997 1.27376e-11 0)
(-0.999997 1.76966e-11 0)
(-0.999997 1.89885e-11 0)
(-0.999997 1.79156e-11 0)
(-0.999997 1.42835e-11 0)
(-0.999997 6.29083e-12 0)
(-0.999997 1.6182e-12 0)
(-0.999998 -8.52778e-07 0)
(-0.999997 1.77557e-07 0)
(-0.999997 -4.24145e-08 0)
(-0.999997 8.33509e-09 0)
(-0.999997 -2.2705e-09 0)
(-0.999997 1.62242e-10 0)
(-0.999997 -2.84969e-10 0)
(-0.999997 -1.20132e-10 0)
(-0.999997 -9.59121e-11 0)
(-0.999997 -5.27854e-11 0)
(-0.999997 -2.42457e-11 0)
(-0.999997 -2.29583e-12 0)
(-0.999997 1.24905e-11 0)
(-0.999997 2.10806e-11 0)
(-0.999997 2.47051e-11 0)
(-0.999997 2.46711e-11 0)
(-0.999997 2.23343e-11 0)
(-0.999997 1.7433e-11 0)
(-0.999997 7.8418e-12 0)
(-0.999997 1.96015e-12 0)
(-0.999997 1.118e-06 0)
(-0.999997 -2.31158e-07 0)
(-0.999997 5.37642e-08 0)
(-0.999997 -1.13195e-08 0)
(-0.999997 2.08188e-09 0)
(-0.999997 -7.07765e-10 0)
(-0.999997 -7.231e-11 0)
(-0.999997 -1.25521e-10 0)
(-0.999997 -6.34292e-11 0)
(-0.999997 -3.26624e-11 0)
(-0.999997 -6.64729e-12 0)
(-0.999997 1.21694e-11 0)
(-0.999997 2.44634e-11 0)
(-0.999997 3.09066e-11 0)
(-0.999997 3.26014e-11 0)
(-0.999997 3.08444e-11 0)
(-0.999997 2.6988e-11 0)
(-0.999997 2.06448e-11 0)
(-0.999997 9.46188e-12 0)
(-0.999997 2.30759e-12 0)
(-0.999998 -1.46811e-06 0)
(-0.999997 3.07793e-07 0)
(-0.999997 -7.2716e-08 0)
(-0.999997 1.47084e-08 0)
(-0.999997 -3.51919e-09 0)
(-0.999997 5.49764e-10 0)
(-0.999997 -2.39089e-10 0)
(-0.999997 -3.69244e-11 0)
(-0.999997 -3.73896e-11 0)
(-0.999997 -4.77934e-12 0)
(-0.999997 1.47454e-11 0)
(-0.999997 2.93537e-11 0)
(-0.999997 3.82038e-11 0)
(-0.999997 4.17176e-11 0)
(-0.999997 4.09906e-11 0)
(-0.999997 3.71695e-11 0)
(-0.999997 3.15959e-11 0)
(-0.999997 2.37677e-11 0)
(-0.999997 1.10725e-11 0)
(-0.999997 2.63627e-12 0)
(-0.999996 1.93373e-06 0)
(-0.999998 -4.16385e-07 0)
(-0.999997 9.71818e-08 0)
(-0.999997 -2.11205e-08 0)
(-0.999997 4.41629e-09 0)
(-0.999997 -1.11924e-09 0)
(-0.999997 1.45371e-10 0)
(-0.999997 -6.31202e-11 0)
(-0.999997 1.40055e-11 0)
(-0.999997 2.39545e-11 0)
(-0.999997 3.96477e-11 0)
(-0.999997 4.8427e-11 0)
(-0.999997 5.29086e-11 0)
(-0.999997 5.29038e-11 0)
(-0.999997 4.93392e-11 0)
(-0.999997 4.32505e-11 0)
(-0.999997 3.58827e-11 0)
(-0.999997 2.65967e-11 0)
(-0.999997 1.25576e-11 0)
(-0.999997 2.92429e-12 0)
(-0.999999 -2.4667e-06 0)
(-0.999997 5.36024e-07 0)
(-0.999997 -1.26724e-07 0)
(-0.999997 2.69316e-08 0)
(-0.999997 -6.14693e-09 0)
(-0.999997 1.31697e-09 0)
(-0.999997 -2.50268e-10 0)
(-0.999997 9.54664e-11 0)
(-0.999997 3.99725e-11 0)
(-0.999997 6.18645e-11 0)
(-0.999997 6.56665e-11 0)
(-0.999997 6.84576e-11 0)
(-0.999997 6.77358e-11 0)
(-0.999997 6.36829e-11 0)
(-0.999997 5.70446e-11 0)
(-0.999997 4.85996e-11 0)
(-0.999997 3.94765e-11 0)
(-0.999997 2.88874e-11 0)
(-0.999997 1.38152e-11 0)
(-0.999997 3.14236e-12 0)
(-0.999995 3.06146e-06 0)
(-0.999998 -6.87246e-07 0)
(-0.999997 1.62956e-07 0)
(-0.999997 -3.57508e-08 0)
(-0.999997 8.38047e-09 0)
(-0.999997 -1.75519e-09 0)
(-0.999997 4.90636e-10 0)
(-0.999997 5.81458e-12 0)
(-0.999997 1.1737e-10 0)
(-0.999997 9.2862e-11 0)
(-0.999997 9.41642e-11 0)
(-0.999997 8.80314e-11 0)
(-0.999997 8.16211e-11 0)
(-0.999997 7.31811e-11 0)
(-0.999997 6.33743e-11 0)
(-0.999997 5.26749e-11 0)
(-0.999997 4.19995e-11 0)
(-0.999997 3.04125e-11 0)
(-0.999997 1.46811e-11 0)
(-0.999997 3.26746e-12 0)
(-0.999999 -3.44782e-06 0)
(-0.999997 8.10333e-07 0)
(-0.999997 -1.8993e-07 0)
(-0.999997 4.37647e-08 0)
(-0.999997 -9.92351e-09 0)
(-0.999997 2.40529e-09 0)
(-0.999997 -3.29975e-10 0)
(-0.999997 2.70785e-10 0)
(-0.999997 1.28269e-10 0)
(-0.999997 1.39362e-10 0)
(-0.999997 1.19346e-10 0)
(-0.999997 1.06239e-10 0)
(-0.999997 9.31825e-11 0)
(-0.999997 8.03192e-11 0)
(-0.999997 6.75383e-11 0)
(-0.999997 5.49083e-11 0)
(-0.999997 4.30586e-11 0)
(-0.999997 3.08578e-11 0)
(-0.999997 1.50404e-11 0)
(-0.999997 3.27585e-12 0)
(-0.999995 3.70354e-06 0)
(-0.999998 -9.00464e-07 0)
(-0.999997 2.11244e-07 0)
(-0.999997 -5.14195e-08 0)
(-0.999997 1.23455e-08 0)
(-0.999997 -2.63965e-09 0)
(-0.999997 9.76228e-10 0)
(-0.999997 7.76273e-11 0)
(-0.999997 2.48054e-10 0)
(-0.999997 1.63038e-10 0)
(-0.999997 1.46185e-10 0)
(-0.999997 1.19636e-10 0)
(-0.999997 1.00935e-10 0)
(-0.999997 8.38402e-11 0)
(-0.999997 6.86599e-11 0)
(-0.999997 5.46885e-11 0)
(-0.999997 4.22344e-11 0)
(-0.999997 3.00309e-11 0)
(-0.999997 1.4715e-11 0)
(-0.999997 3.14887e-12 0)
(-0.999999 -3.83179e-06 0)
(-0.999997 9.11373e-07 0)
(-0.999997 -2.13755e-07 0)
(-0.999997 5.07188e-08 0)
(-0.999997 -1.1156e-08 0)
(-0.999997 3.14005e-09 0)
(-0.999997 -1.94016e-10 0)
(-0.999997 4.66958e-10 0)
(-0.999997 2.36132e-10 0)
(-0.999997 2.10535e-10 0)
(-0.999997 1.59528e-10 0)
(-0.999997 1.27452e-10 0)
(-0.999997 1.02364e-10 0)
(-0.999997 8.24397e-11 0)
(-0.999997 6.58438e-11 0)
(-0.999997 5.14907e-11 0)
(-0.999997 3.92272e-11 0)
(-0.999997 2.76489e-11 0)
(-0.999997 1.36283e-11 0)
(-0.999997 2.87136e-12 0)
(-0.999995 3.9695e-06 0)
(-0.999998 -1.00236e-06 0)
(-0.999997 2.38852e-07 0)
(-0.999997 -5.91545e-08 0)
(-0.999997 1.56864e-08 0)
(-0.999997 -2.87788e-09 0)
(-0.999997 1.53465e-09 0)
(-0.999997 2.05302e-10 0)
(-0.999997 3.6729e-10 0)
(-0.999997 2.06851e-10 0)
(-0.999997 1.66715e-10 0)
(-0.999997 1.22291e-10 0)
(-0.999997 9.563e-11 0)
(-0.999997 7.45995e-11 0)
(-0.999997 5.83689e-11 0)
(-0.999997 4.49211e-11 0)
(-0.999997 3.38692e-11 0)
(-0.999997 2.3789e-11 0)
(-0.999997 1.17467e-11 0)
(-0.999997 2.41813e-12 0)
(-0.999998 -4.07447e-06 0)
(-0.999997 1.0412e-06 0)
(-0.999997 -2.42033e-07 0)
(-0.999997 6.69663e-08 0)
(-0.999997 -1.35886e-08 0)
(-0.999997 5.35805e-09 0)
(-0.999997 -2.70698e-10 0)
(-0.999997 7.58957e-10 0)
(-0.999997 2.35534e-10 0)
(-0.999997 2.27654e-10 0)
(-0.999997 1.39245e-10 0)
(-0.999997 1.06887e-10 0)
(-0.999997 7.85816e-11 0)
(-0.999997 6.05688e-11 0)
(-0.999997 4.63962e-11 0)
(-0.999997 3.53494e-11 0)
(-0.999997 2.64291e-11 0)
(-0.999997 1.84544e-11 0)
(-0.999997 9.15187e-12 0)
(-0.999997 1.79875e-12 0)
(-0.999996 3.95626e-06 0)
(-0.999998 -8.80068e-07 0)
(-0.999997 2.12415e-07 0)
(-0.999997 -3.93538e-08 0)
(-0.999997 1.1832e-08 0)
(-0.999997 -4.56084e-10 0)
(-0.999997 9.66468e-10 0)
(-0.999997 3.68625e-10 0)
(-0.999997 2.23575e-10 0)
(-0.999997 1.56752e-10 0)
(-0.999997 9.75139e-11 0)
(-0.999997 7.23599e-11 0)
(-0.999997 5.17025e-11 0)
(-0.999997 3.93208e-11 0)
(-0.999997 2.96457e-11 0)
(-0.999997 2.2377e-11 0)
(-0.999997 1.66352e-11 0)
(-0.999997 1.18156e-11 0)
(-0.999997 6.03124e-12 0)
(-0.999997 1.08019e-12 0)
(-1 -4.10119e-06 0)
(-0.999997 1.12453e-06 0)
(-0.999998 -2.67532e-07 0)
(-0.999997 7.58384e-08 0)
(-0.999997 -1.84242e-08 0)
(-0.999997 5.63585e-09 0)
(-0.999997 -1.1921e-09 0)
(-0.999997 5.37048e-10 0)
(-0.999997 -2.44953e-11 0)
(-0.999997 8.57108e-11 0)
(-0.999997 2.67132e-11 0)
(-0.999997 2.73228e-11 0)
(-0.999997 1.70751e-11 0)
(-0.999997 1.34512e-11 0)
(-0.999997 9.86795e-12 0)
(-0.999997 7.44632e-12 0)
(-0.999997 5.55439e-12 0)
(-0.999997 4.07799e-12 0)
(-0.999997 2.18273e-12 0)
(-0.999997 3.57749e-13 0)
)
;

boundaryField
{
    movingWall
    {
        type            calculated;
        value           uniform (-0.999997 -0 -0);
    }
    fixedWalls
    {
        type            calculated;
        value           uniform (-0.999997 -0 -0);
    }
    frontAndBack
    {
        type            empty;
    }
}


// ************************************************************************* //
