/*--------------------------------*- C++ -*----------------------------------*\
| =========                 |                                                 |
| \\      /  F ield         | OpenFOAM: The Open Source CFD Toolbox           |
|  \\    /   O peration     | Version:  2506                                  |
|   \\  /    A nd           | Website:  www.openfoam.com                      |
|    \\/     M anipulation  |                                                 |
\*---------------------------------------------------------------------------*/
FoamFile
{
    version     2.0;
    format      ascii;
    arch        "LSB;label=32;scalar=64";
    class       volVectorField;
    location    "3";
    object      norm_U_composite;
}
// * * * * * * * * * * * * * * * * * * * * * * * * * * * * * * * * * * * * * //

dimensions      [0 0 0 0 0 0 0];

internalField   nonuniform List<vector> 
400
(
(-0.5 1.74268e-07 0)
(-0.5 -4.16721e-08 0)
(-0.5 9.94121e-09 0)
(-0.5 -2.42115e-09 0)
(-0.5 5.65776e-10 0)
(-0.5 -1.56963e-10 0)
(-0.5 2.21379e-11 0)
(-0.5 -1.85531e-11 0)
(-0.5 -5.33223e-12 0)
(-0.5 -5.74459e-12 0)
(-0.5 -3.29588e-12 0)
(-0.5 -2.06534e-12 0)
(-0.5 -1.00585e-12 0)
(-0.5 -3.25275e-13 0)
(-0.5 1.05495e-13 0)
(-0.5 3.4275e-13 0)
(-0.5 4.44753e-13 0)
(-0.5 3.83994e-13 0)
(-0.5 1.59359e-13 0)
(-0.5 4.64225e-14 0)
(-0.5 -1.78667e-07 0)
(-0.5 4.29137e-08 0)
(-0.5 -1.03105e-08 0)
(-0.5 2.46009e-09 0)
(-0.5 -6.67926e-10 0)
(-0.5 1.04524e-10 0)
(-0.5 -7.84035e-11 0)
(-0.5 -2.1096e-11 0)
(-0.5 -2.51584e-11 0)
(-0.5 -1.50869e-11 0)
(-0.5 -1.03895e-11 0)
(-0.5 -5.95677e-12 0)
(-0.5 -2.93982e-12 0)
(-0.5 -8.5599e-13 0)
(-0.5 4.11202e-13 0)
(-0.5 1.0863e-12 0)
(-0.5 1.3598e-12 0)
(-0.5 1.22911e-12 0)
(-0.5 4.74048e-13 0)
(-0.5 1.42665e-13 0)
(-0.5 1.88004e-07 0)
(-0.5 -4.27142e-08 0)
(-0.5 1.00403e-08 0)
(-0.5 -2.4233e-09 0)
(-0.5 4.39511e-10 0)
(-0.5 -2.14805e-10 0)
(-0.5 -3.87422e-11 0)
(-0.5 -5.84969e-11 0)
(-0.5 -3.51544e-11 0)
(-0.5 -2.56294e-11 0)
(-0.5 -1.60168e-11 0)
(-0.5 -9.27832e-12 0)
(-0.5 -4.29026e-12 0)
(-0.5 -9.9634e-13 0)
(-0.5 1.00809e-12 0)
(-0.5 2.04265e-12 0)
(-0.5 2.42038e-12 0)
(-0.5 2.12582e-12 0)
(-0.5 8.45271e-13 0)
(-0.5 2.48709e-13 0)
(-0.5 -2.00339e-07 0)
(-0.5 4.30494e-08 0)
(-0.5 -1.05316e-08 0)
(-0.5 1.96909e-09 0)
(-0.5 -6.6788e-10 0)
(-0.5 -2.37507e-11 0)
(-0.5 -1.17465e-10 0)
(-0.5 -6.48202e-11 0)
(-0.5 -4.93255e-11 0)
(-0.5 -3.25422e-11 0)
(-0.5 -2.04272e-11 0)
(-0.5 -1.13196e-11 0)
(-0.5 -4.7866e-12 0)
(-0.5 -5.00883e-13 0)
(-0.5 2.04737e-12 0)
(-0.5 3.29297e-12 0)
(-0.5 3.66574e-12 0)
(-0.5 3.16365e-12 0)
(-0.5 1.2847e-12 0)
(-0.5 3.66063e-13 0)
(-0.5 2.34231e-07 0)
(-0.5 -5.33289e-08 0)
(-0.5 1.22984e-08 0)
(-0.5 -3.29416e-09 0)
(-0.5 4.85674e-10 0)
(-0.5 -3.40355e-10 0)
(-0.5 -7.00549e-11 0)
(-0.5 -9.28628e-11 0)
(-0.5 -5.28868e-11 0)
(-0.5 -3.78703e-11 0)
(-0.5 -2.22235e-11 0)
(-0.5 -1.18076e-11 0)
(-0.5 -4.08216e-12 0)
(-0.5 8.23267e-13 0)
(-0.5 3.66529e-12 0)
(-0.5 4.93804e-12 0)
(-0.5 5.17422e-12 0)
(-0.5 4.33502e-12 0)
(-0.5 1.81525e-12 0)
(-0.5 4.98993e-13 0)
(-0.5 -2.63839e-07 0)
(-0.5 5.26093e-08 0)
(-0.5 -1.26928e-08 0)
(-0.5 2.05278e-09 0)
(-0.5 -7.07939e-10 0)
(-0.5 -7.78979e-11 0)
(-0.5 -1.32013e-10 0)
(-0.5 -8.40952e-11 0)
(-0.5 -5.76839e-11 0)
(-0.5 -3.78552e-11 0)
(-0.5 -2.17045e-11 0)
(-0.5 -1.02737e-11 0)
(-0.5 -2.04039e-12 0)
(-0.5 3.10555e-12 0)
(-0.5 5.93132e-12 0)
(-0.5 7.00381e-12 0)
(-0.5 6.93406e-12 0)
(-0.5 5.67392e-12 0)
(-0.5 2.43666e-12 0)
(-0.5 6.46654e-13 0)
(-0.5 3.4042e-07 0)
(-0.5 -7.21808e-08 0)
(-0.5 1.66577e-08 0)
(-0.5 -3.81366e-09 0)
(-0.5 5.95898e-10 0)
(-0.5 -3.32479e-10 0)
(-0.5 -7.62066e-11 0)
(-0.5 -8.93046e-11 0)
(-0.5 -5.27068e-11 0)
(-0.5 -3.44981e-11 0)
(-0.5 -1.82151e-11 0)
(-0.5 -6.70144e-12 0)
(-0.5 1.42448e-12 0)
(-0.5 6.3688e-12 0)
(-0.5 8.84832e-12 0)
(-0.5 9.49425e-12 0)
(-0.5 8.95783e-12 0)
(-0.5 7.14176e-12 0)
(-0.5 3.14543e-12 0)
(-0.5 8.091e-13 0)
(-0.5 -4.2639e-07 0)
(-0.5 8.87785e-08 0)
(-0.5 -2.12073e-08 0)
(-0.5 4.16756e-09 0)
(-0.5 -1.13525e-09 0)
(-0.5 8.11212e-11 0)
(-0.5 -1.42485e-10 0)
(-0.5 -6.00663e-11 0)
(-0.5 -4.79562e-11 0)
(-0.5 -2.63928e-11 0)
(-0.5 -1.21229e-11 0)
(-0.5 -1.14792e-12 0)
(-0.5 6.24525e-12 0)
(-0.5 1.05403e-11 0)
(-0.5 1.23526e-11 0)
(-0.5 1.23356e-11 0)
(-0.5 1.11672e-11 0)
(-0.5 8.71653e-12 0)
(-0.5 3.92091e-12 0)
(-0.5 9.80078e-13 0)
(-0.5 5.59004e-07 0)
(-0.5 -1.15579e-07 0)
(-0.5 2.68822e-08 0)
(-0.5 -5.65976e-09 0)
(-0.5 1.04094e-09 0)
(-0.5 -3.53883e-10 0)
(-0.5 -3.61551e-11 0)
(-0.5 -6.27609e-11 0)
(-0.5 -3.17147e-11 0)
(-0.5 -1.63312e-11 0)
(-0.5 -3.32366e-12 0)
(-0.5 6.08471e-12 0)
(-0.5 1.22317e-11 0)
(-0.5 1.54534e-11 0)
(-0.5 1.63008e-11 0)
(-0.5 1.54222e-11 0)
(-0.5 1.34941e-11 0)
(-0.5 1.03225e-11 0)
(-0.5 4.73095e-12 0)
(-0.5 1.1538e-12 0)
(-0.5 -7.34058e-07 0)
(-0.5 1.53897e-07 0)
(-0.5 -3.63581e-08 0)
(-0.5 7.3542e-09 0)
(-0.5 -1.7596e-09 0)
(-0.5 2.74883e-10 0)
(-0.5 -1.19545e-10 0)
(-0.5 -1.84623e-11 0)
(-0.5 -1.86949e-11 0)
(-0.5 -2.38968e-12 0)
(-0.5 7.37274e-12 0)
(-0.5 1.46769e-11 0)
(-0.5 1.9102e-11 0)
(-0.5 2.08588e-11 0)
(-0.5 2.04954e-11 0)
(-0.5 1.85848e-11 0)
(-0.5 1.5798e-11 0)
(-0.5 1.18839e-11 0)
(-0.5 5.53627e-12 0)
(-0.5 1.31814e-12 0)
(-0.499999 9.66866e-07 0)
(-0.5 -2.08193e-07 0)
(-0.5 4.8591e-08 0)
(-0.5 -1.05603e-08 0)
(-0.5 2.20815e-09 0)
(-0.5 -5.59624e-10 0)
(-0.5 7.26855e-11 0)
(-0.5 -3.15602e-11 0)
(-0.5 7.00276e-12 0)
(-0.5 1.19773e-11 0)
(-0.5 1.98239e-11 0)
(-0.5 2.42136e-11 0)
(-0.5 2.64543e-11 0)
(-0.5 2.6452e-11 0)
(-0.5 2.46697e-11 0)
(-0.5 2.16253e-11 0)
(-0.5 1.79414e-11 0)
(-0.5 1.32984e-11 0)
(-0.5 6.27884e-12 0)
(-0.5 1.46215e-12 0)
(-0.500001 -1.23335e-06 0)
(-0.5 2.68013e-07 0)
(-0.5 -6.3362e-08 0)
(-0.5 1.34658e-08 0)
(-0.5 -3.07347e-09 0)
(-0.5 6.58487e-10 0)
(-0.5 -1.25134e-10 0)
(-0.5 4.77333e-11 0)
(-0.5 1.99863e-11 0)
(-0.5 3.09323e-11 0)
(-0.5 3.28333e-11 0)
(-0.5 3.42289e-11 0)
(-0.5 3.3868e-11 0)
(-0.5 3.18415e-11 0)
(-0.5 2.85224e-11 0)
(-0.5 2.42999e-11 0)
(-0.5 1.97383e-11 0)
(-0.5 1.44437e-11 0)
(-0.5 6.90761e-12 0)
(-0.5 1.57118e-12 0)
(-0.499999 1.53074e-06 0)
(-0.5 -3.43624e-07 0)
(-0.5 8.1478e-08 0)
(-0.5 -1.78755e-08 0)
(-0.5 4.19025e-09 0)
(-0.5 -8.77597e-10 0)
(-0.5 2.45318e-10 0)
(-0.5 2.9073e-12 0)
(-0.5 5.86851e-11 0)
(-0.5 4.64311e-11 0)
(-0.5 4.70822e-11 0)
(-0.5 4.40158e-11 0)
(-0.5 4.08106e-11 0)
(-0.5 3.65906e-11 0)
(-0.5 3.16872e-11 0)
(-0.5 2.63375e-11 0)
(-0.5 2.09998e-11 0)
(-0.5 1.52063e-11 0)
(-0.5 7.34056e-12 0)
(-0.5 1.63373e-12 0)
(-0.500001 -1.72391e-06 0)
(-0.5 4.05168e-07 0)
(-0.5 -9.49652e-08 0)
(-0.5 2.18824e-08 0)
(-0.5 -4.96177e-09 0)
(-0.5 1.20265e-09 0)
(-0.5 -1.64988e-10 0)
(-0.5 1.35393e-10 0)
(-0.5 6.41346e-11 0)
(-0.5 6.9681e-11 0)
(-0.5 5.96729e-11 0)
(-0.5 5.31197e-11 0)
(-0.5 4.65914e-11 0)
(-0.5 4.01597e-11 0)
(-0.5 3.37692e-11 0)
(-0.5 2.74542e-11 0)
(-0.5 2.15294e-11 0)
(-0.5 1.5429e-11 0)
(-0.5 7.52021e-12 0)
(-0.5 1.63793e-12 0)
(-0.499999 1.85177e-06 0)
(-0.5 -4.50233e-07 0)
(-0.5 1.05622e-07 0)
(-0.5 -2.57098e-08 0)
(-0.5 6.17275e-09 0)
(-0.5 -1.31983e-09 0)
(-0.5 4.88115e-10 0)
(-0.5 3.88138e-11 0)
(-0.5 1.24027e-10 0)
(-0.5 8.15194e-11 0)
(-0.5 7.30926e-11 0)
(-0.5 5.9818e-11 0)
(-0.5 5.04678e-11 0)
(-0.5 4.19202e-11 0)
(-0.5 3.43301e-11 0)
(-0.5 2.73443e-11 0)
(-0.5 2.11173e-11 0)
(-0.5 1.50155e-11 0)
(-0.5 7.35753e-12 0)
(-0.5 1.57444e-12 0)
(-0.500001 -1.9159e-06 0)
(-0.5 4.55688e-07 0)
(-0.5 -1.06878e-07 0)
(-0.5 2.53594e-08 0)
(-0.5 -5.57804e-09 0)
(-0.5 1.57003e-09 0)
(-0.5 -9.70083e-11 0)
(-0.5 2.3348e-10 0)
(-0.5 1.18066e-10 0)
(-0.5 1.05268e-10 0)
(-0.5 7.97641e-11 0)
(-0.5 6.37262e-11 0)
(-0.5 5.11821e-11 0)
(-0.5 4.12199e-11 0)
(-0.5 3.2922e-11 0)
(-0.5 2.57454e-11 0)
(-0.5 1.96136e-11 0)
(-0.5 1.38245e-11 0)
(-0.5 6.81415e-12 0)
(-0.5 1.43568e-12 0)
(-0.499999 1.98475e-06 0)
(-0.5 -5.01181e-07 0)
(-0.5 1.19426e-07 0)
(-0.5 -2.95773e-08 0)
(-0.5 7.8432e-09 0)
(-0.5 -1.43894e-09 0)
(-0.5 7.67327e-10 0)
(-0.5 1.02651e-10 0)
(-0.5 1.83645e-10 0)
(-0.5 1.03426e-10 0)
(-0.5 8.33579e-11 0)
(-0.5 6.11457e-11 0)
(-0.5 4.78151e-11 0)
(-0.5 3.72999e-11 0)
(-0.5 2.91845e-11 0)
(-0.5 2.24606e-11 0)
(-0.5 1.69346e-11 0)
(-0.5 1.18945e-11 0)
(-0.5 5.87336e-12 0)
(-0.5 1.20907e-12 0)
(-0.5 -2.03724e-06 0)
(-0.5 5.20601e-07 0)
(-0.5 -1.21017e-07 0)
(-0.5 3.34833e-08 0)
(-0.5 -6.7943e-09 0)
(-0.5 2.67903e-09 0)
(-0.5 -1.35349e-10 0)
(-0.5 3.79479e-10 0)
(-0.5 1.17767e-10 0)
(-0.5 1.13827e-10 0)
(-0.5 6.96228e-11 0)
(-0.5 5.34439e-11 0)
(-0.5 3.92909e-11 0)
(-0.5 3.02845e-11 0)
(-0.5 2.31982e-11 0)
(-0.5 1.76748e-11 0)
(-0.5 1.32146e-11 0)
(-0.5 9.22721e-12 0)
(-0.5 4.57595e-12 0)
(-0.5 8.99378e-13 0)
(-0.499999 1.97813e-06 0)
(-0.5 -4.40035e-07 0)
(-0.5 1.06208e-07 0)
(-0.5 -1.9677e-08 0)
(-0.5 5.916e-09 0)
(-0.5 -2.28043e-10 0)
(-0.5 4.83235e-10 0)
(-0.5 1.84313e-10 0)
(-0.5 1.11788e-10 0)
(-0.5 7.8376e-11 0)
(-0.5 4.87571e-11 0)
(-0.5 3.61801e-11 0)
(-0.5 2.58513e-11 0)
(-0.5 1.96604e-11 0)
(-0.5 1.48229e-11 0)
(-0.5 1.11885e-11 0)
(-0.5 8.31762e-12 0)
(-0.5 5.90784e-12 0)
(-0.5 3.01563e-12 0)
(-0.5 5.40094e-13 0)
(-0.500001 -2.0506e-06 0)
(-0.5 5.62269e-07 0)
(-0.5 -1.33766e-07 0)
(-0.5 3.79193e-08 0)
(-0.5 -9.21215e-09 0)
(-0.5 2.81793e-09 0)
(-0.5 -5.9605e-10 0)
(-0.5 2.68525e-10 0)
(-0.5 -1.22477e-11 0)
(-0.5 4.28555e-11 0)
(-0.5 1.33566e-11 0)
(-0.5 1.36614e-11 0)
(-0.5 8.53759e-12 0)
(-0.5 6.72561e-12 0)
(-0.5 4.93399e-12 0)
(-0.5 3.72317e-12 0)
(-0.5 2.7772e-12 0)
(-0.5 2.039e-12 0)
(-0.5 1.09137e-12 0)
(-0.5 1.78875e-13 0)
)
;

boundaryField
{
    movingWall
    {
        type            calculated;
        value           uniform (-0.5 -0 -0);
    }
    fixedWalls
    {
        type            calculated;
        value           uniform (-0.5 -0 -0);
    }
    frontAndBack
    {
        type            empty;
    }
}


// ************************************************************************* //
