/*--------------------------------*- C++ -*----------------------------------*\
| =========                 |                                                 |
| \\      /  F ield         | OpenFOAM: The Open Source CFD Toolbox           |
|  \\    /   O peration     | Version:  2506                                  |
|   \\  /    A nd           | Website:  www.openfoam.com                      |
|    \\/     M anipulation  |                                                 |
\*---------------------------------------------------------------------------*/
FoamFile
{
    version     2.0;
    format      ascii;
    arch        "LSB;label=32;scalar=64";
    class       volVectorField;
    location    "3";
    object      norm_U_L1;
}
// * * * * * * * * * * * * * * * * * * * * * * * * * * * * * * * * * * * * * //

dimensions      [0 0 0 0 0 0 0];

internalField   nonuniform List<vector> 
400
(
(-0.0025 8.71338e-10 0)
(-0.0025 -2.0836e-10 0)
(-0.0025 4.97061e-11 0)
(-0.0025 -1.21058e-11 0)
(-0.0025 2.82888e-12 0)
(-0.0025 -7.84817e-13 0)
(-0.0025 1.1069e-13 0)
(-0.0025 -9.27655e-14 0)
(-0.0025 -2.66612e-14 0)
(-0.0025 -2.87229e-14 0)
(-0.0025 -1.64794e-14 0)
(-0.0025 -1.03267e-14 0)
(-0.0025 -5.02924e-15 0)
(-0.0025 -1.62637e-15 0)
(-0.0025 5.27476e-16 0)
(-0.0025 1.71375e-15 0)
(-0.0025 2.22376e-15 0)
(-0.0025 1.91997e-15 0)
(-0.0025 7.96795e-16 0)
(-0.0025 2.32113e-16 0)
(-0.0025 -8.93334e-10 0)
(-0.0025 2.14569e-10 0)
(-0.0025 -5.15524e-11 0)
(-0.0025 1.23005e-11 0)
(-0.0025 -3.33963e-12 0)
(-0.0025 5.22618e-13 0)
(-0.0025 -3.92018e-13 0)
(-0.0025 -1.0548e-13 0)
(-0.0025 -1.25792e-13 0)
(-0.0025 -7.54346e-14 0)
(-0.0025 -5.19475e-14 0)
(-0.0025 -2.97838e-14 0)
(-0.0025 -1.46991e-14 0)
(-0.0025 -4.27995e-15 0)
(-0.0025 2.05601e-15 0)
(-0.0025 5.43148e-15 0)
(-0.0025 6.79901e-15 0)
(-0.0025 6.14556e-15 0)
(-0.0025 2.37024e-15 0)
(-0.0025 7.13324e-16 0)
(-0.0025 9.40021e-10 0)
(-0.0025 -2.13571e-10 0)
(-0.0025 5.02017e-11 0)
(-0.0025 -1.21165e-11 0)
(-0.0025 2.19755e-12 0)
(-0.0025 -1.07403e-12 0)
(-0.0025 -1.93711e-13 0)
(-0.0025 -2.92484e-13 0)
(-0.0025 -1.75772e-13 0)
(-0.0025 -1.28147e-13 0)
(-0.0025 -8.00838e-14 0)
(-0.0025 -4.63916e-14 0)
(-0.0025 -2.14513e-14 0)
(-0.0025 -4.9817e-15 0)
(-0.0025 5.04047e-15 0)
(-0.0025 1.02133e-14 0)
(-0.0025 1.21019e-14 0)
(-0.0025 1.06291e-14 0)
(-0.0025 4.22635e-15 0)
(-0.0025 1.24354e-15 0)
(-0.0025 -1.00169e-09 0)
(-0.0025 2.15247e-10 0)
(-0.0025 -5.26578e-11 0)
(-0.0025 9.84546e-12 0)
(-0.0025 -3.3394e-12 0)
(-0.0025 -1.18754e-13 0)
(-0.0025 -5.87323e-13 0)
(-0.0025 -3.24101e-13 0)
(-0.0025 -2.46627e-13 0)
(-0.0025 -1.62711e-13 0)
(-0.0025 -1.02136e-13 0)
(-0.0025 -5.6598e-14 0)
(-0.0025 -2.3933e-14 0)
(-0.0025 -2.50441e-15 0)
(-0.0025 1.02369e-14 0)
(-0.0025 1.64648e-14 0)
(-0.0025 1.83287e-14 0)
(-0.0025 1.58183e-14 0)
(-0.0025 6.42351e-15 0)
(-0.0025 1.83032e-15 0)
(-0.0025 1.17115e-09 0)
(-0.0025 -2.66644e-10 0)
(-0.0025 6.14919e-11 0)
(-0.0025 -1.64708e-11 0)
(-0.0025 2.42837e-12 0)
(-0.0025 -1.70178e-12 0)
(-0.0025 -3.50275e-13 0)
(-0.0025 -4.64314e-13 0)
(-0.0025 -2.64434e-13 0)
(-0.0025 -1.89351e-13 0)
(-0.0025 -1.11117e-13 0)
(-0.0025 -5.90382e-14 0)
(-0.0025 -2.04108e-14 0)
(-0.0025 4.11634e-15 0)
(-0.0025 1.83264e-14 0)
(-0.0025 2.46902e-14 0)
(-0.0025 2.58711e-14 0)
(-0.0025 2.16751e-14 0)
(-0.0025 9.07623e-15 0)
(-0.0025 2.49496e-15 0)
(-0.0025 -1.31919e-09 0)
(-0.0025 2.63046e-10 0)
(-0.0025 -6.34641e-11 0)
(-0.0025 1.02639e-11 0)
(-0.0025 -3.53969e-12 0)
(-0.0025 -3.89489e-13 0)
(-0.0025 -6.60065e-13 0)
(-0.0025 -4.20476e-13 0)
(-0.0025 -2.8842e-13 0)
(-0.0025 -1.89276e-13 0)
(-0.0025 -1.08523e-13 0)
(-0.0025 -5.13683e-14 0)
(-0.0025 -1.0202e-14 0)
(-0.0025 1.55277e-14 0)
(-0.0025 2.96566e-14 0)
(-0.0025 3.5019e-14 0)
(-0.0025 3.46703e-14 0)
(-0.0025 2.83696e-14 0)
(-0.0025 1.21833e-14 0)
(-0.0025 3.23327e-15 0)
(-0.0025 1.7021e-09 0)
(-0.0025 -3.60904e-10 0)
(-0.0025 8.32885e-11 0)
(-0.0025 -1.90683e-11 0)
(-0.0025 2.97949e-12 0)
(-0.0025 -1.66239e-12 0)
(-0.0025 -3.81033e-13 0)
(-0.0025 -4.46523e-13 0)
(-0.0025 -2.63534e-13 0)
(-0.0025 -1.7249e-13 0)
(-0.0025 -9.10756e-14 0)
(-0.0025 -3.35072e-14 0)
(-0.0025 7.1224e-15 0)
(-0.0025 3.1844e-14 0)
(-0.0025 4.42416e-14 0)
(-0.0025 4.74713e-14 0)
(-0.0025 4.47891e-14 0)
(-0.0025 3.57088e-14 0)
(-0.0025 1.57271e-14 0)
(-0.0025 4.0455e-15 0)
(-0.0025 -2.13195e-09 0)
(-0.0025 4.43893e-10 0)
(-0.0025 -1.06037e-10 0)
(-0.0025 2.08378e-11 0)
(-0.0025 -5.67627e-12 0)
(-0.0025 4.05606e-13 0)
(-0.0025 -7.12424e-13 0)
(-0.0025 -3.00331e-13 0)
(-0.0025 -2.39781e-13 0)
(-0.0025 -1.31964e-13 0)
(-0.0025 -6.06144e-14 0)
(-0.0025 -5.7396e-15 0)
(-0.0025 3.12262e-14 0)
(-0.0025 5.27016e-14 0)
(-0.0025 6.1763e-14 0)
(-0.0025 6.16778e-14 0)
(-0.0025 5.58358e-14 0)
(-0.0025 4.35827e-14 0)
(-0.0025 1.96046e-14 0)
(-0.0025 4.90039e-15 0)
(-0.0025 2.79502e-09 0)
(-0.0025 -5.77897e-10 0)
(-0.0025 1.34411e-10 0)
(-0.0025 -2.82988e-11 0)
(-0.0025 5.20471e-12 0)
(-0.0025 -1.76942e-12 0)
(-0.0025 -1.80776e-13 0)
(-0.0025 -3.13804e-13 0)
(-0.0025 -1.58574e-13 0)
(-0.0025 -8.16562e-14 0)
(-0.0025 -1.66183e-14 0)
(-0.0025 3.04235e-14 0)
(-0.0025 6.11586e-14 0)
(-0.0025 7.72668e-14 0)
(-0.0025 8.15038e-14 0)
(-0.0025 7.71112e-14 0)
(-0.0025 6.74703e-14 0)
(-0.0025 5.16123e-14 0)
(-0.0025 2.36548e-14 0)
(-0.0025 5.76899e-15 0)
(-0.0025 -3.67029e-09 0)
(-0.0025 7.69484e-10 0)
(-0.0025 -1.81791e-10 0)
(-0.0025 3.6771e-11 0)
(-0.0025 -8.79799e-12 0)
(-0.0025 1.37441e-12 0)
(-0.0025 -5.97723e-13 0)
(-0.0025 -9.23114e-14 0)
(-0.0025 -9.34743e-14 0)
(-0.0025 -1.19484e-14 0)
(-0.0025 3.68637e-14 0)
(-0.0025 7.33844e-14 0)
(-0.0025 9.55099e-14 0)
(-0.0025 1.04294e-13 0)
(-0.0025 1.02477e-13 0)
(-0.0025 9.2924e-14 0)
(-0.0025 7.89899e-14 0)
(-0.0025 5.94195e-14 0)
(-0.0025 2.76814e-14 0)
(-0.0025 6.59069e-15 0)
(-0.0025 4.83433e-09 0)
(-0.0025 -1.04097e-09 0)
(-0.0025 2.42955e-10 0)
(-0.0025 -5.28015e-11 0)
(-0.0025 1.10408e-11 0)
(-0.0025 -2.79812e-12 0)
(-0.0025 3.63427e-13 0)
(-0.0025 -1.57801e-13 0)
(-0.0025 3.50138e-14 0)
(-0.0025 5.98865e-14 0)
(-0.0025 9.91194e-14 0)
(-0.0025 1.21068e-13 0)
(-0.0025 1.32272e-13 0)
(-0.0025 1.3226e-13 0)
(-0.0025 1.23348e-13 0)
(-0.0025 1.08126e-13 0)
(-0.0025 8.97071e-14 0)
(-0.0025 6.64919e-14 0)
(-0.0025 3.13942e-14 0)
(-0.0025 7.31075e-15 0)
(-0.0025 -6.16677e-09 0)
(-0.0025 1.34006e-09 0)
(-0.0025 -3.1681e-10 0)
(-0.0025 6.73291e-11 0)
(-0.0025 -1.53674e-11 0)
(-0.0025 3.29243e-12 0)
(-0.0025 -6.25671e-13 0)
(-0.0025 2.38667e-13 0)
(-0.0025 9.99315e-14 0)
(-0.0025 1.54662e-13 0)
(-0.0025 1.64167e-13 0)
(-0.0025 1.71144e-13 0)
(-0.0025 1.6934e-13 0)
(-0.0025 1.59208e-13 0)
(-0.0025 1.42612e-13 0)
(-0.0025 1.21499e-13 0)
(-0.0025 9.86916e-14 0)
(-0.0025 7.22187e-14 0)
(-0.0025 3.45381e-14 0)
(-0.0025 7.85591e-15 0)
(-0.00249999 7.65368e-09 0)
(-0.0025 -1.71812e-09 0)
(-0.0025 4.0739e-10 0)
(-0.0025 -8.93773e-11 0)
(-0.0025 2.09512e-11 0)
(-0.0025 -4.38799e-12 0)
(-0.0025 1.22659e-12 0)
(-0.0025 1.45365e-14 0)
(-0.0025 2.93426e-13 0)
(-0.0025 2.32156e-13 0)
(-0.0025 2.35411e-13 0)
(-0.0025 2.20079e-13 0)
(-0.0025 2.04053e-13 0)
(-0.0025 1.82953e-13 0)
(-0.0025 1.58436e-13 0)
(-0.0025 1.31688e-13 0)
(-0.0025 1.04999e-13 0)
(-0.0025 7.60315e-14 0)
(-0.0025 3.67028e-14 0)
(-0.0025 8.16867e-15 0)
(-0.00250001 -8.61956e-09 0)
(-0.0025 2.02584e-09 0)
(-0.0025 -4.74826e-10 0)
(-0.0025 1.09412e-10 0)
(-0.0025 -2.48088e-11 0)
(-0.0025 6.01325e-12 0)
(-0.0025 -8.24939e-13 0)
(-0.0025 6.76966e-13 0)
(-0.0025 3.20673e-13 0)
(-0.0025 3.48405e-13 0)
(-0.0025 2.98365e-13 0)
(-0.0025 2.65598e-13 0)
(-0.0025 2.32957e-13 0)
(-0.0025 2.00799e-13 0)
(-0.0025 1.68846e-13 0)
(-0.0025 1.37271e-13 0)
(-0.0025 1.07647e-13 0)
(-0.0025 7.71448e-14 0)
(-0.0025 3.76011e-14 0)
(-0.0025 8.18964e-15 0)
(-0.00249999 9.25886e-09 0)
(-0.0025 -2.25117e-09 0)
(-0.0025 5.2811e-10 0)
(-0.0025 -1.28549e-10 0)
(-0.0025 3.08637e-11 0)
(-0.0025 -6.59915e-12 0)
(-0.0025 2.44058e-12 0)
(-0.0025 1.94069e-13 0)
(-0.0025 6.20136e-13 0)
(-0.0025 4.07597e-13 0)
(-0.0025 3.65463e-13 0)
(-0.0025 2.9909e-13 0)
(-0.0025 2.52339e-13 0)
(-0.0025 2.09601e-13 0)
(-0.0025 1.7165e-13 0)
(-0.0025 1.36722e-13 0)
(-0.0025 1.05586e-13 0)
(-0.0025 7.50775e-14 0)
(-0.0025 3.67877e-14 0)
(-0.0025 7.87221e-15 0)
(-0.0025 -9.5795e-09 0)
(-0.0025 2.27844e-09 0)
(-0.0025 -5.34388e-10 0)
(-0.0025 1.26797e-10 0)
(-0.0025 -2.78902e-11 0)
(-0.0025 7.85015e-12 0)
(-0.0025 -4.85042e-13 0)
(-0.0025 1.1674e-12 0)
(-0.0025 5.90332e-13 0)
(-0.0025 5.26338e-13 0)
(-0.0025 3.98821e-13 0)
(-0.0025 3.18631e-13 0)
(-0.0025 2.55911e-13 0)
(-0.0025 2.061e-13 0)
(-0.0025 1.6461e-13 0)
(-0.0025 1.28727e-13 0)
(-0.0025 9.80682e-14 0)
(-0.0025 6.91223e-14 0)
(-0.0025 3.40708e-14 0)
(-0.0025 7.17841e-15 0)
(-0.00249999 9.92377e-09 0)
(-0.0025 -2.50591e-09 0)
(-0.0025 5.97131e-10 0)
(-0.0025 -1.47887e-10 0)
(-0.0025 3.9216e-11 0)
(-0.0025 -7.19472e-12 0)
(-0.0025 3.83664e-12 0)
(-0.0025 5.13257e-13 0)
(-0.0025 9.18227e-13 0)
(-0.0025 5.1713e-13 0)
(-0.0025 4.1679e-13 0)
(-0.0025 3.05728e-13 0)
(-0.0025 2.39076e-13 0)
(-0.0025 1.86499e-13 0)
(-0.0025 1.45923e-13 0)
(-0.0025 1.12303e-13 0)
(-0.0025 8.46732e-14 0)
(-0.0025 5.94726e-14 0)
(-0.0025 2.93668e-14 0)
(-0.0025 6.04534e-15 0)
(-0.0025 -1.01862e-08 0)
(-0.0025 2.603e-09 0)
(-0.0025 -6.05085e-10 0)
(-0.0025 1.67416e-10 0)
(-0.0025 -3.39715e-11 0)
(-0.0025 1.33952e-11 0)
(-0.0025 -6.76747e-13 0)
(-0.0025 1.8974e-12 0)
(-0.0025 5.88837e-13 0)
(-0.0025 5.69136e-13 0)
(-0.0025 3.48114e-13 0)
(-0.0025 2.67219e-13 0)
(-0.0025 1.96454e-13 0)
(-0.0025 1.51423e-13 0)
(-0.0025 1.15991e-13 0)
(-0.0025 8.83738e-14 0)
(-0.0025 6.6073e-14 0)
(-0.0025 4.61361e-14 0)
(-0.0025 2.28797e-14 0)
(-0.0025 4.49689e-15 0)
(-0.0025 9.89067e-09 0)
(-0.0025 -2.20018e-09 0)
(-0.0025 5.3104e-10 0)
(-0.0025 -9.83849e-11 0)
(-0.0025 2.958e-11 0)
(-0.0025 -1.14021e-12 0)
(-0.0025 2.41618e-12 0)
(-0.0025 9.21565e-13 0)
(-0.0025 5.5894e-13 0)
(-0.0025 3.9188e-13 0)
(-0.0025 2.43786e-13 0)
(-0.0025 1.809e-13 0)
(-0.0025 1.29256e-13 0)
(-0.0025 9.83022e-14 0)
(-0.0025 7.41146e-14 0)
(-0.0025 5.59426e-14 0)
(-0.0025 4.15881e-14 0)
(-0.0025 2.95392e-14 0)
(-0.0025 1.50781e-14 0)
(-0.0025 2.70047e-15 0)
(-0.00250001 -1.0253e-08 0)
(-0.0025 2.81134e-09 0)
(-0.0025 -6.68832e-10 0)
(-0.0025 1.89597e-10 0)
(-0.0025 -4.60607e-11 0)
(-0.0025 1.40897e-11 0)
(-0.0025 -2.98025e-12 0)
(-0.0025 1.34262e-12 0)
(-0.0025 -6.12385e-14 0)
(-0.0025 2.14277e-13 0)
(-0.0025 6.67831e-14 0)
(-0.0025 6.83071e-14 0)
(-0.0025 4.2688e-14 0)
(-0.0025 3.36281e-14 0)
(-0.0025 2.46699e-14 0)
(-0.0025 1.86159e-14 0)
(-0.0025 1.3886e-14 0)
(-0.0025 1.0195e-14 0)
(-0.0025 5.45684e-15 0)
(-0.0025 8.94376e-16 0)
)
;

boundaryField
{
    movingWall
    {
        type            calculated;
        value           uniform (-0.0025 -0 -0);
    }
    fixedWalls
    {
        type            calculated;
        value           uniform (-0.0025 -0 -0);
    }
    frontAndBack
    {
        type            empty;
    }
}


// ************************************************************************* //
