/*--------------------------------*- C++ -*----------------------------------*\
| =========                 |                                                 |
| \\      /  F ield         | OpenFOAM: The Open Source CFD Toolbox           |
|  \\    /   O peration     | Version:  2506                                  |
|   \\  /    A nd           | Website:  www.openfoam.com                      |
|    \\/     M anipulation  |                                                 |
\*---------------------------------------------------------------------------*/
FoamFile
{
    version     2.0;
    format      ascii;
    arch        "LSB;label=32;scalar=64";
    class       volScalarField;
    location    "3";
    object      P_A;
}
// * * * * * * * * * * * * * * * * * * * * * * * * * * * * * * * * * * * * * //

dimensions      [1 -1 -3 0 0 0 0];

internalField   nonuniform List<scalar> 
400
(
2.88493e-28
2.88438e-28
2.88381e-28
2.88345e-28
2.88296e-28
2.8827e-28
2.88223e-28
2.88213e-28
2.88169e-28
2.88157e-28
2.88127e-28
2.88118e-28
2.88095e-28
2.88092e-28
2.88076e-28
2.88074e-28
2.88064e-28
2.88063e-28
2.88061e-28
2.8806e-28
2.33709e-27
2.21142e-27
2.21517e-27
2.21706e-27
2.221e-27
2.22341e-27
2.22787e-27
2.23081e-27
2.23577e-27
2.23927e-27
2.24473e-27
2.24878e-27
2.25476e-27
2.25933e-27
2.26586e-27
2.27091e-27
2.27811e-27
2.28355e-27
2.28738e-27
2.29422e-27
1.76887e-26
1.63536e-26
1.63801e-26
1.63952e-26
1.64275e-26
1.64481e-26
1.6488e-26
1.65141e-26
1.6561e-26
1.65933e-26
1.66465e-26
1.66853e-26
1.67444e-26
1.67897e-26
1.68554e-26
1.69065e-26
1.69802e-26
1.7037e-26
1.70763e-26
1.71475e-26
5.70685e-26
5.18737e-26
5.19304e-26
5.19731e-26
5.20699e-26
5.21334e-26
5.22589e-26
5.23508e-26
5.25021e-26
5.26214e-26
5.28034e-26
5.29473e-26
5.3159e-26
5.33286e-26
5.35712e-26
5.37671e-26
5.40407e-26
5.42626e-26
5.44104e-26
5.46851e-26
1.05135e-25
9.46316e-26
9.46882e-26
9.47531e-26
9.49043e-26
9.50173e-26
9.52314e-26
9.54032e-26
9.56714e-26
9.59042e-26
9.6234e-26
9.65226e-26
9.69175e-26
9.72612e-26
9.77224e-26
9.81207e-26
9.86537e-26
9.91043e-26
9.93958e-26
9.99472e-26
1.43595e-25
1.28564e-25
1.2862e-25
1.28674e-25
1.28864e-25
1.29004e-25
1.29277e-25
1.29509e-25
1.29868e-25
1.30182e-25
1.30642e-25
1.31033e-25
1.31587e-25
1.3206e-25
1.32716e-25
1.33271e-25
1.34026e-25
1.34666e-25
1.35078e-25
1.35862e-25
1.70022e-25
1.51802e-25
1.51808e-25
1.51885e-25
1.52084e-25
1.52241e-25
1.5255e-25
1.52825e-25
1.53231e-25
1.53622e-25
1.54138e-25
1.54631e-25
1.55265e-25
1.55858e-25
1.56618e-25
1.57305e-25
1.58202e-25
1.58982e-25
1.59477e-25
1.60425e-25
1.88451e-25
1.67966e-25
1.67951e-25
1.68026e-25
1.68231e-25
1.68401e-25
1.68733e-25
1.69035e-25
1.69482e-25
1.69912e-25
1.7048e-25
1.71032e-25
1.71731e-25
1.72398e-25
1.73242e-25
1.74015e-25
1.75014e-25
1.75892e-25
1.76444e-25
1.77508e-25
2.02928e-25
1.80645e-25
1.80621e-25
1.80686e-25
1.80895e-25
1.81076e-25
1.81432e-25
1.81745e-25
1.8223e-25
1.82684e-25
1.83302e-25
1.83892e-25
1.84651e-25
1.85368e-25
1.86282e-25
1.87119e-25
1.88203e-25
1.89155e-25
1.89755e-25
1.9091e-25
2.16026e-25
1.92096e-25
1.92089e-25
1.92122e-25
1.92343e-25
1.92537e-25
1.92897e-25
1.93241e-25
1.9374e-25
1.94224e-25
1.94892e-25
1.95502e-25
1.96332e-25
1.97078e-25
1.98072e-25
1.98956e-25
2.00121e-25
2.0114e-25
2.01783e-25
2.03021e-25
2.29377e-25
2.03787e-25
2.03714e-25
2.03784e-25
2.04002e-25
2.04192e-25
2.0458e-25
2.04929e-25
2.05471e-25
2.0598e-25
2.06672e-25
2.07343e-25
2.08201e-25
2.09017e-25
2.10062e-25
2.11013e-25
2.12254e-25
2.13343e-25
2.14029e-25
2.15353e-25
2.44136e-25
2.16678e-25
2.16584e-25
2.16652e-25
2.16868e-25
2.17077e-25
2.17467e-25
2.17849e-25
2.18404e-25
2.18959e-25
2.19687e-25
2.20405e-25
2.21319e-25
2.22189e-25
2.23309e-25
2.24323e-25
2.25652e-25
2.26818e-25
2.27553e-25
2.28971e-25
2.61297e-25
2.31651e-25
2.31528e-25
2.3159e-25
2.31809e-25
2.32021e-25
2.32442e-25
2.32835e-25
2.33436e-25
2.34015e-25
2.34804e-25
2.35562e-25
2.36543e-25
2.37477e-25
2.38684e-25
2.39771e-25
2.41206e-25
2.4246e-25
2.43253e-25
2.44781e-25
2.81922e-25
2.49627e-25
2.49454e-25
2.4952e-25
2.49736e-25
2.49959e-25
2.50395e-25
2.50822e-25
2.51455e-25
2.52083e-25
2.52928e-25
2.5374e-25
2.54824e-25
2.55812e-25
2.5713e-25
2.58308e-25
2.59861e-25
2.6123e-25
2.62089e-25
2.63752e-25
3.0737e-25
2.71769e-25
2.71551e-25
2.71606e-25
2.71813e-25
2.72057e-25
2.72508e-25
2.72969e-25
2.73657e-25
2.74333e-25
2.7525e-25
2.76146e-25
2.77309e-25
2.78408e-25
2.79847e-25
2.81137e-25
2.82848e-25
2.84349e-25
2.85294e-25
2.87123e-25
3.39714e-25
2.99844e-25
2.99577e-25
2.99608e-25
2.99813e-25
3.00069e-25
3.00549e-25
3.0105e-25
3.01786e-25
3.02546e-25
3.03531e-25
3.0455e-25
3.05805e-25
3.07062e-25
3.08615e-25
3.10093e-25
3.11969e-25
3.13665e-25
3.14711e-25
3.16757e-25
3.82397e-25
3.36841e-25
3.36463e-25
3.36482e-25
3.36669e-25
3.36942e-25
3.37447e-25
3.38007e-25
3.38809e-25
3.39663e-25
3.40763e-25
3.41906e-25
3.43332e-25
3.44738e-25
3.46518e-25
3.48177e-25
3.5032e-25
3.52245e-25
3.53439e-25
3.55769e-25
4.39699e-25
3.86424e-25
3.85976e-25
3.85903e-25
3.86077e-25
3.86381e-25
3.86897e-25
3.87551e-25
3.88427e-25
3.89416e-25
3.90661e-25
3.91985e-25
3.93608e-25
3.95256e-25
3.97285e-25
3.99242e-25
4.0171e-25
4.03971e-25
4.05353e-25
4.08073e-25
5.06061e-25
4.46061e-25
4.45341e-25
4.45277e-25
4.454e-25
4.45707e-25
4.46249e-25
4.46958e-25
4.47884e-25
4.49001e-25
4.50378e-25
4.5186e-25
4.53699e-25
4.5556e-25
4.5789e-25
4.60146e-25
4.62974e-25
4.65635e-25
4.67233e-25
4.7041e-25
5.19857e-25
5.1956e-25
5.19454e-25
5.19327e-25
5.19204e-25
5.19138e-25
5.1901e-25
5.19008e-25
5.18883e-25
5.189e-25
5.18804e-25
5.1882e-25
5.18763e-25
5.18767e-25
5.18745e-25
5.18744e-25
5.18738e-25
5.18737e-25
5.18736e-25
5.18736e-25
)
;

boundaryField
{
    movingWall
    {
        type            calculated;
        value           nonuniform List<scalar> 
20
(
5.19857e-25
5.1956e-25
5.19454e-25
5.19327e-25
5.19204e-25
5.19138e-25
5.1901e-25
5.19008e-25
5.18883e-25
5.189e-25
5.18804e-25
5.1882e-25
5.18763e-25
5.18767e-25
5.18745e-25
5.18744e-25
5.18738e-25
5.18737e-25
5.18736e-25
5.18736e-25
)
;
    }
    fixedWalls
    {
        type            calculated;
        value           nonuniform List<scalar> 
60
(
2.88493e-28
2.33709e-27
1.76887e-26
5.70685e-26
1.05135e-25
1.43595e-25
1.70022e-25
1.88451e-25
2.02928e-25
2.16026e-25
2.29377e-25
2.44136e-25
2.61297e-25
2.81922e-25
3.0737e-25
3.39714e-25
3.82397e-25
4.39699e-25
5.06061e-25
5.19857e-25
2.8806e-28
2.29422e-27
1.71475e-26
5.46851e-26
9.99472e-26
1.35862e-25
1.60425e-25
1.77508e-25
1.9091e-25
2.03021e-25
2.15353e-25
2.28971e-25
2.44781e-25
2.63752e-25
2.87123e-25
3.16757e-25
3.55769e-25
4.08073e-25
4.7041e-25
5.18736e-25
2.88493e-28
2.88438e-28
2.88381e-28
2.88345e-28
2.88296e-28
2.8827e-28
2.88223e-28
2.88213e-28
2.88169e-28
2.88157e-28
2.88127e-28
2.88118e-28
2.88095e-28
2.88092e-28
2.88076e-28
2.88074e-28
2.88064e-28
2.88063e-28
2.88061e-28
2.8806e-28
)
;
    }
    frontAndBack
    {
        type            empty;
    }
}


// ************************************************************************* //
