/*--------------------------------*- C++ -*----------------------------------*\
| =========                 |                                                 |
| \\      /  F ield         | OpenFOAM: The Open Source CFD Toolbox           |
|  \\    /   O peration     | Version:  2506                                  |
|   \\  /    A nd           | Website:  www.openfoam.com                      |
|    \\/     M anipulation  |                                                 |
\*---------------------------------------------------------------------------*/
FoamFile
{
    version     2.0;
    format      ascii;
    arch        "LSB;label=32;scalar=64";
    class       surfaceScalarField;
    location    "3";
    object      PecletNoField;
}
// * * * * * * * * * * * * * * * * * * * * * * * * * * * * * * * * * * * * * //

dimensions      [0 0 0 0 0 0 0];

oriented        oriented;

internalField   nonuniform List<scalar> 
760
(
347.783
1.7617e-07
347.785
2.49826e-08
347.787
2.91126e-08
347.788
2.43764e-08
347.791
2.18352e-08
347.792
2.20208e-08
347.793
1.67425e-08
347.794
1.33391e-08
347.795
9.86679e-09
347.797
6.90416e-09
347.797
4.52026e-09
347.798
2.6684e-09
347.799
1.31725e-09
347.799
4.01048e-10
347.8
1.63647e-10
347.8
4.65513e-10
347.8
5.93525e-10
347.8
5.36415e-10
347.8
2.08491e-10
5.8125e-11
316.127
3.34568e-07
313.272
7.57686e-07
313.712
2.9906e-07
314.092
7.99662e-08
314.478
9.10895e-08
314.854
2.37232e-08
315.236
3.72598e-08
315.609
2.27681e-08
315.986
1.82653e-08
316.355
1.21383e-08
316.728
7.97296e-09
317.094
4.59825e-09
317.461
2.19994e-09
317.825
5.75117e-10
318.188
4.16116e-10
318.547
9.39895e-10
318.907
1.1382e-09
319.162
1.00649e-09
319.444
3.93263e-10
1.16051e-10
285.108
3.45552e-07
280.885
5.18559e-08
281.555
1.20871e-07
282.131
1.6822e-07
282.722
3.93259e-08
283.29
7.18437e-08
283.87
4.00769e-08
284.432
3.45617e-08
285.001
2.30706e-08
285.556
1.6148e-08
286.116
1.00971e-08
286.665
5.74365e-09
287.216
2.54648e-09
287.759
4.38366e-10
288.302
8.34675e-10
288.836
1.47394e-09
289.37
1.69373e-09
289.752
1.48097e-09
290.167
5.93855e-10
1.64494e-10
266.313
4.33036e-06
261.138
3.54759e-06
261.972
8.88971e-08
262.684
3.67717e-07
263.419
7.29588e-08
264.128
8.91529e-08
264.848
5.10626e-08
265.548
4.06188e-08
266.257
2.70184e-08
266.945
1.84534e-08
267.641
1.12733e-08
268.321
6.1235e-09
269.005
2.37559e-09
269.677
5.89531e-11
270.349
1.4951e-09
271.011
2.17634e-09
271.674
2.34607e-09
272.15
1.98947e-09
272.66
8.19525e-10
2.27878e-10
256.347
1.66963e-06
250.646
1.66799e-06
251.571
4.07905e-07
252.366
1.95489e-07
253.183
3.90082e-08
253.97
1.12934e-07
254.77
5.12088e-08
255.548
4.58163e-08
256.336
2.806e-08
257.101
1.9409e-08
257.875
1.12565e-08
258.629
5.70215e-09
259.388
1.60638e-09
260.133
9.83552e-10
260.879
2.45699e-09
261.612
3.07109e-09
262.347
3.13095e-09
262.875
2.60209e-09
263.439
1.1046e-09
2.90485e-10
251.233
1.12385e-05
245.259
9.98914e-06
246.234
3.59396e-07
247.071
7.44416e-07
247.931
3.06478e-08
248.763
1.03006e-07
249.606
4.83283e-08
250.424
4.30221e-08
251.254
2.7574e-08
252.057
1.81979e-08
252.871
1.00925e-08
253.665
4.32095e-09
254.465
1.90324e-10
255.247
2.37467e-09
256.031
3.73955e-09
256.801
4.19745e-09
257.573
4.05803e-09
258.13
3.27489e-09
258.721
1.42545e-09
3.72974e-10
248.454
1.25322e-05
242.346
1.19769e-05
243.348
3.38603e-07
244.201
5.12317e-07
245.088
1.47684e-07
245.943
5.03017e-08
246.808
6.12153e-08
247.65
3.64525e-08
248.5
2.52852e-08
249.327
1.50644e-08
250.162
7.60715e-09
250.977
1.98922e-09
251.798
1.89378e-09
252.6
4.22983e-09
253.406
5.333e-09
254.195
5.50635e-09
254.988
5.09923e-09
255.559
4.03784e-09
256.165
1.80221e-09
4.51701e-10
246.768
2.05352e-05
240.574
1.854e-05
241.593
3.80979e-07
242.46
1.08362e-06
243.361
2.8253e-09
244.229
8.68738e-08
245.108
3.15729e-08
245.963
3.06942e-08
246.826
1.88933e-08
247.667
1.07016e-08
248.515
3.8189e-09
249.343
1.19317e-09
250.176
4.58874e-09
250.99
6.48009e-09
251.809
7.17702e-09
252.609
6.98037e-09
253.415
6.22428e-09
253.995
4.81213e-09
254.609
2.18986e-09
5.46034e-10
245.56
2.86039e-05
239.304
2.68643e-05
240.334
1.06896e-06
241.213
1.45459e-06
242.124
2.49922e-07
242.999
5.93714e-09
243.889
5.77126e-08
244.753
1.83561e-08
245.626
1.36866e-08
246.476
4.30977e-09
247.333
9.30924e-10
248.17
5.14386e-09
249.012
7.76037e-09
249.835
9.03185e-09
250.662
9.18826e-09
251.471
8.51363e-09
252.285
7.3638e-09
252.871
5.60867e-09
253.492
2.60181e-09
6.27377e-10
244.545
4.04964e-05
238.23
3.75242e-05
239.267
1.49074e-06
240.163
2.28868e-06
241.078
2.18174e-07
241.963
1.24213e-07
242.861
8.35757e-09
243.732
1.4137e-08
244.616
6.26936e-10
245.47
1.94938e-09
246.337
6.78199e-09
247.18
9.53246e-09
248.029
1.12662e-08
248.86
1.17241e-08
249.694
1.12413e-08
250.512
1.00442e-08
251.331
8.46016e-09
251.923
6.32728e-09
252.549
2.9773e-09
7.13516e-10
243.56
4.92196e-05
237.211
4.57904e-05
238.26
1.84824e-06
239.152
2.6248e-06
240.08
3.82986e-07
240.972
8.61806e-08
241.878
4.76393e-08
242.756
6.22022e-09
243.644
3.76562e-09
244.51
1.09885e-08
245.382
1.27042e-08
246.233
1.4387e-08
247.09
1.48418e-08
247.926
1.44058e-08
248.768
1.31957e-08
249.591
1.14254e-08
250.418
9.41311e-09
251.015
6.9632e-09
251.646
3.32497e-09
7.73814e-10
242.554
6.17629e-05
236.142
5.74517e-05
237.196
2.35959e-06
238.108
3.5902e-06
239.041
4.89296e-07
239.942
1.50146e-07
240.856
7.25145e-08
241.742
8.74135e-09
242.639
2.31044e-08
243.51
1.80232e-08
244.391
1.9681e-08
245.248
1.90157e-08
246.113
1.83312e-08
246.956
1.68339e-08
247.805
1.48822e-08
248.635
1.25621e-08
249.469
1.01485e-08
250.071
7.40549e-09
250.707
3.57303e-09
8.24322e-10
241.442
6.50355e-05
234.988
5.87609e-05
236.055
1.5221e-06
236.966
3.9252e-06
237.911
4.3293e-07
238.819
2.07997e-07
239.741
2.20675e-08
240.636
3.91036e-08
241.542
2.44367e-08
242.421
2.88403e-08
243.31
2.54785e-08
244.177
2.36947e-08
245.05
2.13164e-08
245.9
1.88194e-08
246.757
1.61145e-08
247.594
1.32858e-08
248.435
1.05483e-08
249.044
7.63428e-09
249.685
3.72407e-09
8.37855e-10
240.205
6.10921e-05
233.691
5.53972e-05
234.77
1.27021e-06
235.691
4.08319e-06
236.646
5.99826e-07
237.564
1.68757e-07
238.496
1.38983e-07
239.401
3.32261e-08
240.316
5.07818e-08
241.205
3.48758e-08
242.105
3.22953e-08
242.977
2.71657e-08
243.859
2.36201e-08
244.72
2.00187e-08
245.584
1.66942e-08
246.431
1.34818e-08
247.281
1.05386e-08
247.896
7.54707e-09
248.543
3.70681e-09
8.27167e-10
238.806
4.79812e-05
232.211
4.16682e-05
233.298
2.32278e-07
234.243
2.70522e-06
235.207
1.50761e-07
236.136
2.07735e-07
237.081
4.42352e-08
237.994
7.3997e-08
238.921
5.06389e-08
239.821
4.56964e-08
240.73
3.61449e-08
241.615
2.98707e-08
242.507
2.4568e-08
243.376
2.02078e-08
244.251
1.64078e-08
245.108
1.29967e-08
245.967
1.0014e-08
246.59
7.12461e-09
247.244
3.5236e-09
7.71901e-10
237.18
5.49132e-05
230.503
5.17654e-05
231.604
2.90519e-06
232.564
3.98963e-06
233.541
9.61048e-07
234.482
9.83888e-08
235.44
2.25929e-07
236.368
6.5352e-08
237.306
7.72771e-08
238.219
4.78597e-08
239.14
3.94594e-08
240.037
2.98449e-08
240.941
2.39244e-08
241.822
1.89871e-08
242.711
1.50897e-08
243.577
1.17484e-08
244.449
8.94435e-09
245.079
6.31128e-09
245.741
3.12969e-09
6.7851e-10
235.254
4.10486e-05
228.483
3.493e-05
229.602
5.1846e-07
230.578
3.18347e-06
231.571
4.55539e-08
232.528
4.06944e-07
233.502
9.35188e-08
234.444
1.22393e-07
235.398
6.66215e-08
236.326
5.316e-08
237.262
3.62954e-08
238.172
2.75529e-08
239.091
2.08702e-08
239.986
1.62471e-08
240.887
1.26217e-08
241.768
9.69199e-09
242.653
7.29971e-09
243.294
5.13437e-09
243.966
2.56177e-09
5.41246e-10
233.005
5.24678e-06
226.12
4.85139e-06
227.254
2.63518e-06
228.255
1.56354e-06
229.261
7.8552e-08
230.237
4.82456e-07
231.227
1.42168e-07
232.185
1.29961e-07
233.156
6.02429e-08
234.099
4.49398e-08
235.051
2.85857e-08
235.979
2.1253e-08
236.914
1.55541e-08
237.825
1.19016e-08
238.743
9.08674e-09
239.638
6.90939e-09
240.54
5.17875e-09
241.193
3.6604e-09
241.876
1.85019e-09
3.69543e-10
231.02
5.56165e-05
224.261
5.5479e-05
225.352
8.02181e-06
226.289
6.49016e-06
227.261
1.11234e-06
228.198
7.50877e-07
229.155
6.30649e-08
230.087
1.19424e-07
231.036
2.06085e-08
231.956
3.06342e-08
232.894
1.48126e-08
233.81
1.21667e-08
234.737
8.28152e-09
235.645
6.37728e-09
236.561
4.77022e-09
237.462
3.6136e-09
238.368
2.70085e-09
239.032
1.93442e-09
239.721
9.96356e-10
1.80605e-10
238.662
238.667
238.672
238.674
238.677
238.68
238.68
238.682
238.684
238.685
238.686
238.687
238.687
238.688
238.688
238.688
238.688
238.689
238.689
)
;

boundaryField
{
    movingWall
    {
        type            calculated;
        value           uniform 0;
    }
    fixedWalls
    {
        type            calculated;
        value           nonuniform List<scalar> 
60
(
250
250
250
250
250
250
250
250
250
250
250
250
250
250
250
250
250
250
250
250
250
250
250
250
250
250
250
250
250
250
250
250
250
250
250
250
250
250
250
250
0
0
0
0
0
0
0
0
0
0
0
0
0
0
0
0
0
0
0
0
)
;
    }
    frontAndBack
    {
        type            empty;
    }
}


// ************************************************************************* //
