/*--------------------------------*- C++ -*----------------------------------*\
| =========                 |                                                 |
| \\      /  F ield         | OpenFOAM: The Open Source CFD Toolbox           |
|  \\    /   O peration     | Version:  2506                                  |
|   \\  /    A nd           | Website:  www.openfoam.com                      |
|    \\/     M anipulation  |                                                 |
\*---------------------------------------------------------------------------*/
FoamFile
{
    version     2.0;
    format      ascii;
    arch        "LSB;label=32;scalar=64";
    class       surfaceScalarField;
    location    "3";
    object      phi;
}
// * * * * * * * * * * * * * * * * * * * * * * * * * * * * * * * * * * * * * //

dimensions      [0 3 -1 0 0 0 0];

oriented        oriented;

internalField   nonuniform List<scalar> 
760
(
-5e-05
2.64548e-14
-5e-05
-3.79151e-15
-5e-05
-4.41366e-15
-5e-05
-3.69403e-15
-5e-05
-3.30614e-15
-5e-05
-3.33274e-15
-5e-05
-2.53185e-15
-5e-05
-2.01624e-15
-5e-05
-1.49023e-15
-5e-05
-1.04227e-15
-5e-05
-6.81879e-16
-5e-05
-4.02332e-16
-5e-05
-1.98465e-16
-5e-05
-6.03954e-17
-5e-05
2.46266e-17
-5e-05
7.00197e-17
-5e-05
8.92125e-17
-5e-05
8.05892e-17
-5e-05
3.13122e-17
8.72446e-18
-5e-05
-5.50357e-14
-5e-05
1.28078e-13
-5e-05
-5.04143e-14
-5e-05
1.34656e-14
-5e-05
-1.53049e-14
-5e-05
-3.98135e-15
-5e-05
-6.24012e-15
-5e-05
-3.80846e-15
-5e-05
-3.04922e-15
-5e-05
-2.02385e-15
-5e-05
-1.32682e-15
-5e-05
-7.64247e-16
-5e-05
-3.64965e-16
-5e-05
-9.52894e-17
-5e-05
6.88211e-17
-5e-05
1.55251e-16
-5e-05
1.87679e-16
-5e-05
1.65751e-16
-5e-05
6.4707e-17
1.90669e-17
-5e-05
6.15121e-14
-5e-05
-9.59905e-15
-5e-05
2.22849e-14
-5e-05
-3.09653e-14
-5e-05
-7.21585e-15
-5e-05
-1.316e-14
-5e-05
-7.319e-15
-5e-05
-6.30061e-15
-5e-05
-4.19376e-15
-5e-05
-2.93001e-15
-5e-05
-1.8271e-15
-5e-05
-1.03741e-15
-5e-05
-4.58736e-16
-5e-05
-7.88225e-17
-5e-05
1.49702e-16
-5e-05
2.63867e-16
-5e-05
3.02469e-16
-5e-05
2.63985e-16
-5e-05
1.05725e-16
2.92242e-17
-5e-05
8.09075e-13
-5e-05
-6.95183e-13
-5e-05
1.73345e-14
-5e-05
-7.15634e-14
-5e-05
-1.41432e-14
-5e-05
-1.72462e-14
-5e-05
-9.8413e-15
-5e-05
-7.8115e-15
-5e-05
-5.17767e-15
-5e-05
-3.52849e-15
-5e-05
-2.14835e-15
-5e-05
-1.16432e-15
-5e-05
-4.5025e-16
-5e-05
1.1148e-17
-5e-05
2.81852e-16
-5e-05
4.09345e-16
-5e-05
4.39955e-16
-5e-05
3.72236e-16
-5e-05
1.53107e-16
4.24655e-17
-5e-05
-3.20303e-13
-5e-05
3.37312e-13
-5e-05
8.20396e-14
-5e-05
-3.92317e-14
-5e-05
-7.79425e-15
-5e-05
-2.25128e-14
-5e-05
-1.01662e-14
-5e-05
-9.07377e-15
-5e-05
-5.53546e-15
-5e-05
-3.81942e-15
-5e-05
-2.20693e-15
-5e-05
-1.11514e-15
-5e-05
-3.13041e-16
-5e-05
1.91182e-16
-5e-05
4.75968e-16
-5e-05
5.93424e-16
-5e-05
6.03012e-16
-5e-05
4.99888e-16
-5e-05
2.11857e-16
5.55584e-17
-5e-05
2.18675e-12
-5e-05
-2.05464e-12
-5e-05
7.34948e-14
-5e-05
-1.51883e-13
-5e-05
-6.22426e-15
-5e-05
-2.08678e-14
-5e-05
-9.74813e-15
-5e-05
-8.65586e-15
-5e-05
-5.52484e-15
-5e-05
-3.63677e-15
-5e-05
-2.00903e-15
-5e-05
-8.57867e-16
-5e-05
-3.76452e-17
-5e-05
4.68447e-16
-5e-05
7.35057e-16
-5e-05
8.2286e-16
-5e-05
7.92796e-16
-5e-05
6.38089e-16
-5e-05
2.77262e-16
7.23338e-17
-5e-05
-2.45834e-12
-5e-05
2.48763e-12
-5e-05
-6.9905e-14
-5e-05
1.05525e-13
-5e-05
-3.02743e-14
-5e-05
-1.02852e-14
-5e-05
-1.24607e-14
-5e-05
-7.4007e-15
-5e-05
-5.11158e-15
-5e-05
-3.03731e-15
-5e-05
-1.52754e-15
-5e-05
-3.98367e-16
-5e-05
3.77782e-16
-5e-05
8.41503e-16
-5e-05
1.05704e-15
-5e-05
1.08842e-15
-5e-05
1.00438e-15
-5e-05
7.93135e-16
-5e-05
3.53374e-16
8.83021e-17
-5e-05
4.0497e-12
-5e-05
-3.87538e-12
-5e-05
7.91472e-14
-5e-05
-2.24588e-13
-5e-05
5.82714e-16
-5e-05
-1.78711e-14
-5e-05
-6.46533e-15
-5e-05
-6.2686e-15
-5e-05
-3.84182e-15
-5e-05
-2.17019e-15
-5e-05
-7.71239e-16
-5e-05
2.40303e-16
-5e-05
9.20519e-16
-5e-05
1.29634e-15
-5e-05
1.43034e-15
-5e-05
1.38728e-15
-5e-05
1.23256e-15
-5e-05
9.50249e-16
-5e-05
4.31652e-16
1.07301e-16
-5e-05
-5.66417e-12
-5e-05
5.64304e-12
-5e-05
-2.23159e-13
-5e-05
3.02922e-13
-5e-05
-5.17903e-14
-5e-05
1.2271e-15
-5e-05
-1.18729e-14
-5e-05
-3.76605e-15
-5e-05
-2.79568e-15
-5e-05
-8.77897e-16
-5e-05
1.88839e-16
-5e-05
1.0405e-15
-5e-05
1.56354e-15
-5e-05
1.81455e-15
-5e-05
1.83896e-15
-5e-05
1.6991e-15
-5e-05
1.46427e-15
-5e-05
1.1121e-15
-5e-05
5.14952e-16
1.23785e-16
-5e-05
8.04896e-12
-5e-05
-7.91729e-12
-5e-05
3.12566e-13
-5e-05
-4.78687e-13
-5e-05
4.54043e-14
-5e-05
-2.5781e-14
-5e-05
1.72652e-15
-5e-05
-2.91242e-15
-5e-05
-1.28583e-16
-5e-05
3.9869e-16
-5e-05
1.38122e-15
-5e-05
1.93584e-15
-5e-05
2.27874e-15
-5e-05
2.36453e-15
-5e-05
2.25846e-15
-5e-05
2.01213e-15
-5e-05
1.68858e-15
-5e-05
1.25923e-15
-5e-05
5.91438e-16
1.41294e-16
-5e-05
-9.81918e-12
-5e-05
9.70436e-12
-5e-05
-3.8922e-13
-5e-05
5.51371e-13
-5e-05
-8.0044e-14
-5e-05
1.79629e-14
-5e-05
-9.88246e-15
-5e-05
1.28675e-15
-5e-05
7.75471e-16
-5e-05
2.25649e-15
-5e-05
2.59762e-15
-5e-05
2.93327e-15
-5e-05
3.01364e-15
-5e-05
2.91664e-15
-5e-05
2.66125e-15
-5e-05
2.2975e-15
-5e-05
1.88582e-15
-5e-05
1.39092e-15
-5e-05
6.62937e-16
1.53793e-16
-5e-05
1.23705e-11
-5e-05
-1.22337e-11
-5e-05
4.9923e-13
-5e-05
-7.57661e-13
-5e-05
1.0273e-13
-5e-05
-3.14373e-14
-5e-05
1.51098e-14
-5e-05
1.81629e-15
-5e-05
4.77875e-15
-5e-05
3.71708e-15
-5e-05
4.04139e-15
-5e-05
3.89338e-15
-5e-05
3.73771e-15
-5e-05
3.42232e-15
-5e-05
3.01367e-15
-5e-05
2.53629e-15
-5e-05
2.04129e-15
-5e-05
1.48512e-15
-5e-05
7.15203e-16
1.6447e-16
-5e-05
-1.30836e-11
-5e-05
1.25789e-11
-5e-05
-3.23696e-13
-5e-05
8.32633e-13
-5e-05
-9.13559e-14
-5e-05
4.37688e-14
-5e-05
-4.621e-15
-5e-05
8.1649e-15
-5e-05
5.07883e-15
-5e-05
5.9765e-15
-5e-05
5.25669e-15
-5e-05
4.87407e-15
-5e-05
4.36658e-15
-5e-05
3.84349e-15
-5e-05
3.27801e-15
-5e-05
2.69443e-15
-5e-05
2.13111e-15
-5e-05
1.53773e-15
-5e-05
7.4869e-16
1.67893e-16
-5e-05
1.23517e-11
-5e-05
-1.19297e-11
-5e-05
2.71736e-13
-5e-05
-8.71201e-13
-5e-05
1.27302e-13
-5e-05
-3.57144e-14
-5e-05
2.9267e-14
-5e-05
6.97634e-15
-5e-05
1.06123e-14
-5e-05
7.26655e-15
-5e-05
6.6989e-15
-5e-05
5.6178e-15
-5e-05
4.86394e-15
-5e-05
4.10967e-15
-5e-05
3.41341e-15
-5e-05
2.74808e-15
-5e-05
2.13987e-15
-5e-05
1.52773e-15
-5e-05
7.4891e-16
1.66563e-16
-5e-05
-9.75686e-12
-5e-05
9.03521e-12
-5e-05
5.0033e-14
-5e-05
5.81089e-13
-5e-05
-3.22094e-14
-5e-05
4.42535e-14
-5e-05
9.37559e-15
-5e-05
1.56369e-14
-5e-05
1.06497e-14
-5e-05
9.58102e-15
-5e-05
7.5439e-15
-5e-05
6.21526e-15
-5e-05
5.08977e-15
-5e-05
4.1735e-15
-5e-05
3.37472e-15
-5e-05
2.66478e-15
-5e-05
2.04516e-15
-5e-05
1.4505e-15
-5e-05
7.15963e-16
1.56314e-16
-5e-05
1.12424e-11
-5e-05
-1.13167e-11
-5e-05
6.30821e-13
-5e-05
-8.63825e-13
-5e-05
2.06937e-13
-5e-05
-2.11229e-14
-5e-05
4.82527e-14
-5e-05
1.3915e-14
-5e-05
1.63735e-14
-5e-05
1.01091e-14
-5e-05
8.29592e-15
-5e-05
6.25494e-15
-5e-05
4.99187e-15
-5e-05
3.94918e-15
-5e-05
3.12531e-15
-5e-05
2.42553e-15
-5e-05
1.83921e-15
-5e-05
1.29362e-15
-5e-05
6.40204e-16
1.38317e-16
-5e-05
-8.47187e-12
-5e-05
7.71036e-12
-5e-05
-1.13656e-13
-5e-05
6.95802e-13
-5e-05
-9.90036e-15
-5e-05
8.81748e-14
-5e-05
2.01551e-14
-5e-05
2.6296e-14
-5e-05
1.42415e-14
-5e-05
1.13278e-14
-5e-05
7.69716e-15
-5e-05
5.82433e-15
-5e-05
4.39169e-15
-5e-05
3.40774e-15
-5e-05
2.63592e-15
-5e-05
2.01745e-15
-5e-05
1.51324e-15
-5e-05
1.06086e-15
-5e-05
5.28227e-16
1.11209e-16
-5e-05
1.09244e-12
-5e-05
-1.08093e-12
-5e-05
-5.8308e-13
-5e-05
3.44957e-13
-5e-05
1.7233e-14
-5e-05
1.05523e-13
-5e-05
3.09295e-14
-5e-05
2.81852e-14
-5e-05
1.29992e-14
-5e-05
9.66588e-15
-5e-05
6.119e-15
-5e-05
4.53435e-15
-5e-05
3.30339e-15
-5e-05
2.51922e-15
-5e-05
1.91504e-15
-5e-05
1.45126e-15
-5e-05
1.08322e-15
-5e-05
7.6304e-16
-5e-05
3.84882e-16
7.65954e-17
-5e-05
-1.16417e-11
-5e-05
1.20175e-11
-5e-05
-1.73141e-12
-5e-05
1.39883e-12
-5e-05
-2.39062e-13
-5e-05
1.61125e-13
-5e-05
-1.34966e-14
-5e-05
2.5517e-14
-5e-05
4.3922e-15
-5e-05
6.51813e-15
-5e-05
3.1442e-15
-5e-05
2.57818e-15
-5e-05
1.75091e-15
-5e-05
1.34599e-15
-5e-05
1.00462e-15
-5e-05
7.59719e-16
-5e-05
5.66638e-16
-5e-05
4.05141e-16
-5e-05
2.08455e-16
3.77169e-17
-5e-05
-5e-05
-5e-05
-5e-05
-5e-05
-5e-05
-5e-05
-5e-05
-5e-05
-5e-05
-5e-05
-5e-05
-5e-05
-5e-05
-5e-05
-5e-05
-5e-05
-5e-05
-5e-05
)
;

boundaryField
{
    movingWall
    {
        type            calculated;
        value           uniform 0;
    }
    fixedWalls
    {
        type            calculated;
        value           nonuniform List<scalar> 
60
(
5e-05
5e-05
5e-05
5e-05
5e-05
5e-05
5e-05
5e-05
5e-05
5e-05
5e-05
5e-05
5e-05
5e-05
5e-05
5e-05
5e-05
5e-05
5e-05
5e-05
-5e-05
-5e-05
-5e-05
-5e-05
-5e-05
-5e-05
-5e-05
-5e-05
-5e-05
-5e-05
-5e-05
-5e-05
-5e-05
-5e-05
-5e-05
-5e-05
-5e-05
-5e-05
-5e-05
-5e-05
0
0
0
0
0
0
0
0
0
0
0
0
0
0
0
0
0
0
0
0
)
;
    }
    frontAndBack
    {
        type            empty;
    }
}


// ************************************************************************* //
