/*--------------------------------*- C++ -*----------------------------------*\
| =========                 |                                                 |
| \\      /  F ield         | OpenFOAM: The Open Source CFD Toolbox           |
|  \\    /   O peration     | Version:  2506                                  |
|   \\  /    A nd           | Website:  www.openfoam.com                      |
|    \\/     M anipulation  |                                                 |
\*---------------------------------------------------------------------------*/
FoamFile
{
    version     2.0;
    format      ascii;
    arch        "LSB;label=32;scalar=64";
    class       volScalarField;
    location    "3";
    object      QField;
}
// * * * * * * * * * * * * * * * * * * * * * * * * * * * * * * * * * * * * * //

dimensions      [0 0 -2 0 0 0 0];

internalField   nonuniform List<scalar> 
400
(
1.9866e-10
6.39933e-11
6.51757e-12
3.14199e-13
6.347e-14
-1.95314e-15
1.06441e-15
-1.85413e-16
3.83091e-18
-1.76378e-17
-5.25013e-18
-2.61409e-18
-9.1723e-19
-3.46387e-19
-1.7912e-19
-1.47763e-19
-1.34679e-19
-8.54411e-20
-1.27308e-20
5.11209e-22
-2.20885e-10
-7.77631e-11
-6.53388e-12
-4.4474e-13
-3.57815e-14
-3.16034e-15
-1.73896e-16
-1.3027e-16
-3.09008e-17
-2.20981e-17
-8.06342e-18
-3.34505e-18
-9.79406e-19
-2.6461e-19
-1.20106e-19
-1.40468e-19
-1.59593e-19
-1.07522e-19
-1.47939e-20
-1.51493e-21
1.91603e-10
2.88169e-11
3.48316e-12
-2.50981e-14
9.15737e-15
-2.61131e-15
8.1102e-17
-1.75505e-16
-2.98515e-17
-2.5634e-17
-9.3393e-18
-4.22276e-18
-1.54181e-18
-5.95034e-19
-3.16753e-19
-2.46982e-19
-2.15736e-19
-1.32213e-19
-1.76629e-20
-1.96369e-21
2.97311e-10
6.52963e-11
7.73221e-12
2.13633e-13
3.53224e-14
-7.07062e-16
1.33283e-16
-1.37022e-16
-4.45842e-17
-2.57359e-17
-1.18145e-17
-5.35398e-18
-2.38397e-18
-1.09492e-18
-6.1041e-19
-4.17611e-19
-3.03278e-19
-1.55259e-19
-2.30333e-20
-3.27337e-21
-2.03332e-11
-6.43044e-11
-2.93424e-12
-4.70467e-13
-5.93863e-14
-1.44523e-15
-1.06744e-15
-5.59236e-17
-7.57406e-17
-2.4234e-17
-1.49993e-17
-6.65756e-18
-3.43804e-18
-1.72021e-18
-9.92283e-19
-6.25833e-19
-4.14024e-19
-2.08958e-19
-3.18821e-20
-4.26663e-21
1.35556e-09
3.51289e-10
3.15722e-11
1.49571e-12
1.15615e-13
5.49551e-15
2.55974e-17
-4.49246e-17
-7.18691e-17
-2.71216e-17
-1.71132e-17
-8.36652e-18
-4.5247e-18
-2.44606e-18
-1.41933e-18
-8.87657e-19
-5.48098e-19
-2.48848e-19
-4.29466e-20
-6.37901e-21
4.94063e-10
6.42701e-11
1.84653e-11
1.11726e-15
4.14719e-14
1.49637e-16
-2.85665e-16
-1.13886e-16
-5.56903e-17
-3.47116e-17
-1.78064e-17
-1.02617e-17
-5.5564e-18
-3.19084e-18
-1.87311e-18
-1.13623e-18
-6.81896e-19
-3.23597e-19
-5.84249e-20
-7.61841e-21
9.41572e-10
1.70332e-10
3.49124e-11
6.25138e-13
1.13625e-13
4.38242e-15
2.95295e-16
-1.00061e-16
-5.51555e-17
-3.63313e-17
-1.9832e-17
-1.16145e-17
-6.55294e-18
-3.84879e-18
-2.28469e-18
-1.39769e-18
-8.13763e-19
-3.63602e-19
-7.24063e-20
-1.02219e-20
1.85569e-09
4.36028e-10
7.66633e-11
1.76788e-12
2.60675e-13
8.47463e-15
1.28115e-15
-2.21021e-16
-1.68407e-17
-4.66393e-17
-1.95983e-17
-1.31482e-17
-7.28118e-18
-4.40666e-18
-2.63908e-18
-1.57776e-18
-9.09622e-19
-4.34054e-19
-9.04399e-20
-1.12315e-20
1.37154e-09
1.92603e-10
9.63557e-11
2.50589e-13
3.00727e-13
1.09051e-14
-4.83453e-16
1.80453e-16
-1.26955e-16
-2.82004e-17
-2.5979e-17
-1.31004e-17
-8.06172e-18
-4.75304e-18
-2.8861e-18
-1.74018e-18
-9.85517e-19
-4.56007e-19
-1.00852e-19
-1.31748e-20
3.28749e-10
-9.22583e-11
1.25092e-10
-7.29669e-13
4.00832e-13
1.73238e-15
2.38985e-15
-5.1361e-16
5.18748e-17
-6.63343e-17
-1.97184e-17
-1.55081e-17
-8.2072e-18
-5.08985e-18
-3.06402e-18
-1.81584e-18
-1.02001e-18
-5.07364e-19
-1.17198e-19
-1.29768e-20
1.40671e-10
-2.41336e-10
1.85377e-10
-1.41864e-12
5.61289e-13
2.66617e-14
-2.41723e-15
6.068e-16
-2.60579e-16
-1.86401e-17
-3.46123e-17
-1.42643e-17
-9.09192e-18
-5.27442e-18
-3.23878e-18
-1.93078e-18
-1.07836e-18
-5.35567e-19
-1.22506e-19
-1.24556e-20
-2.77824e-09
-1.43135e-09
1.58493e-10
-9.21036e-12
6.01247e-13
-3.29724e-14
4.61159e-15
-1.20774e-15
1.78986e-16
-1.07219e-16
-2.02258e-17
-1.92524e-17
-9.33968e-18
-5.85473e-18
-3.54323e-18
-2.09957e-18
-1.16333e-18
-6.07025e-19
-1.42892e-19
-1.01265e-20
-4.69671e-09
-1.51241e-09
6.41874e-11
-8.6648e-12
4.03415e-13
3.19187e-15
-7.21112e-15
1.23999e-15
-5.04108e-16
-1.51384e-17
-4.98276e-17
-1.87771e-17
-1.15948e-17
-6.78241e-18
-4.18208e-18
-2.4879e-18
-1.38851e-18
-7.29434e-19
-1.62902e-19
-7.49532e-21
-1.36525e-08
-3.19079e-09
-2.73372e-10
-1.46085e-11
-1.14336e-12
-1.17306e-13
4.93003e-15
-3.23779e-15
3.41509e-16
-1.97434e-16
-3.27632e-17
-2.93771e-17
-1.41676e-17
-8.76784e-18
-5.3561e-18
-3.17002e-18
-1.75863e-18
-9.17977e-19
-2.18623e-19
-7.84676e-21
7.97345e-09
3.29032e-09
2.90584e-10
1.93337e-11
1.36038e-12
1.6456e-13
-7.82186e-15
2.16389e-15
-6.52555e-16
-9.72726e-17
-7.5535e-17
-3.67773e-17
-1.98976e-17
-1.19827e-17
-7.2063e-18
-4.2184e-18
-2.323e-18
-1.18631e-18
-2.80785e-19
-1.28425e-20
-4.76847e-08
-1.54195e-08
-1.40618e-09
-1.05147e-10
-7.08916e-12
-8.9789e-13
-1.87974e-14
-1.16641e-14
-3.04166e-19
-3.72757e-16
-9.34987e-17
-5.20883e-17
-2.82668e-17
-1.60065e-17
-9.64976e-18
-5.47592e-18
-2.97621e-18
-1.45392e-18
-3.57918e-19
-2.26692e-20
-3.99735e-08
-1.09452e-08
-1.25978e-09
-5.45959e-11
-8.17688e-12
-2.14938e-13
-8.18866e-14
7.31334e-16
-2.03838e-15
-1.61864e-16
-1.80531e-16
-6.39576e-17
-3.93378e-17
-2.12691e-17
-1.26669e-17
-7.1147e-18
-3.88707e-18
-1.85665e-18
-4.2287e-19
-2.21654e-20
6.74069e-08
2.22259e-08
1.83675e-09
1.12379e-10
8.55859e-12
5.18609e-13
-2.87418e-15
2.36343e-15
-2.13654e-15
-2.35053e-16
-2.28559e-16
-8.11863e-17
-4.95527e-17
-2.64974e-17
-1.55901e-17
-8.7243e-18
-4.80136e-18
-2.31539e-18
-5.31876e-19
-1.66552e-20
3.59766e-08
8.23227e-09
1.14789e-09
4.58228e-13
8.99929e-12
-9.36502e-13
1.5184e-13
-3.12911e-14
4.63919e-15
-1.2389e-15
1.22216e-16
-9.22526e-17
-1.88643e-17
-1.96777e-17
-1.0356e-17
-6.53721e-18
-3.87136e-18
-2.09179e-18
-5.5328e-19
-2.0182e-20
)
;

boundaryField
{
    movingWall
    {
        type            calculated;
        value           nonuniform List<scalar> 
20
(
-9.22181e-09
-4.5919e-09
4.52794e-09
-6.93621e-11
3.05662e-11
-1.57379e-12
4.04429e-13
-5.36368e-14
1.11509e-14
-1.86296e-15
4.28665e-16
-7.59888e-17
1.23015e-17
-9.51768e-18
-4.20188e-18
-3.71882e-18
-2.57962e-18
-1.56491e-18
-4.62666e-19
-1.95511e-20
)
;
    }
    fixedWalls
    {
        type            calculated;
        value           nonuniform List<scalar> 
60
(
1.04522e-09
-1.16236e-09
1.00814e-09
1.52848e-09
-2.71857e-11
6.93827e-09
2.7201e-09
5.33039e-09
1.01173e-08
8.37638e-09
3.949e-09
3.91182e-09
-1.0797e-08
-2.15515e-08
-7.04243e-08
4.28271e-08
-2.54257e-07
-2.14826e-07
3.4676e-07
1.98721e-07
-1.43127e-21
-3.11328e-21
-3.45131e-21
-4.01518e-21
-4.4824e-21
-5.10876e-21
-5.45525e-21
-6.20885e-21
-6.54914e-21
-7.3246e-21
-7.52492e-21
-7.55614e-21
-6.84185e-21
-5.72958e-21
-5.98663e-21
-8.31441e-21
-1.28325e-20
-1.06406e-20
-3.80305e-21
-3.01977e-22
2.53224e-11
3.34319e-11
8.07214e-12
6.27522e-14
8.92462e-14
-8.38349e-15
2.05136e-15
-3.52439e-16
4.44154e-17
-1.72942e-17
-2.77017e-18
-2.39527e-18
-1.10059e-18
-5.8288e-19
-3.25083e-19
-2.07621e-19
-1.37977e-19
-6.61737e-20
-1.22129e-20
2.05966e-21
)
;
    }
    frontAndBack
    {
        type            empty;
    }
}


// ************************************************************************* //
