/*--------------------------------*- C++ -*----------------------------------*\
| =========                 |                                                 |
| \\      /  F ield         | OpenFOAM: The Open Source CFD Toolbox           |
|  \\    /   O peration     | Version:  2506                                  |
|   \\  /    A nd           | Website:  www.openfoam.com                      |
|    \\/     M anipulation  |                                                 |
\*---------------------------------------------------------------------------*/
FoamFile
{
    version     2.0;
    format      ascii;
    arch        "LSB;label=32;scalar=64";
    class       surfaceVectorField;
    location    "3";
    object      surfaceU;
}
// * * * * * * * * * * * * * * * * * * * * * * * * * * * * * * * * * * * * * //

dimensions      [0 1 -1 0 0 0 0];

internalField   nonuniform List<vector> 
760
(
(-1 1.32595e-07 0)
(-1 -4.39923e-09 0)
(-1 -3.17309e-08 0)
(-1 1.24164e-09 0)
(-1 7.52006e-09 0)
(-1 -3.69265e-10 0)
(-1 -1.85538e-09 0)
(-1 3.89383e-11 0)
(-1 4.08812e-10 0)
(-1 -1.02151e-10 0)
(-1 -1.34826e-10 0)
(-1 -5.24399e-11 0)
(-1 3.5848e-12 0)
(-1 -5.62656e-11 0)
(-1 -2.38853e-11 0)
(-1 -3.96491e-11 0)
(-1 -1.10768e-11 0)
(-1 -3.04906e-11 0)
(-1 -9.04047e-12 0)
(-1 -2.08315e-11 0)
(-1 -5.36122e-12 0)
(-1 -1.36854e-11 0)
(-1 -3.07119e-12 0)
(-1 -8.02211e-12 0)
(-1 -1.33112e-12 0)
(-1 -3.94567e-12 0)
(-1 -2.1978e-13 0)
(-1 -1.18127e-12 0)
(-1 4.48245e-13 0)
(-1 5.16697e-13 0)
(-1 7.87503e-13 0)
(-1 1.42904e-12 0)
(-1 8.28747e-13 0)
(-1 1.80455e-12 0)
(-1 5.43353e-13 0)
(-1 1.61311e-12 0)
(-1 2.05781e-13 0)
(-1 6.33407e-13 0)
(-1 1.89087e-13 0)
(-1 -1.35753e-07 0)
(-1 9.33748e-09 0)
(-1 3.26033e-08 0)
(-1 1.99571e-10 0)
(-1 -7.85039e-09 0)
(-1 -2.70138e-10 0)
(-1 1.79217e-09 0)
(-1 3.67935e-11 0)
(-1 -5.63403e-10 0)
(-1 -2.28416e-10 0)
(-1 2.612e-11 0)
(-1 -1.10282e-10 0)
(-1 -9.94995e-11 0)
(-1 -1.17146e-10 0)
(-1 -4.62544e-11 0)
(-1 -7.95929e-11 0)
(-1 -4.02453e-11 0)
(-1 -6.03128e-11 0)
(-1 -2.54764e-11 0)
(-1 -4.07163e-11 0)
(-1 -1.63463e-11 0)
(-1 -2.64063e-11 0)
(-1 -8.89659e-12 0)
(-1 -1.52351e-11 0)
(-1 -3.79581e-12 0)
(-1 -7.23008e-12 0)
(-1 -4.44789e-13 0)
(-1 -1.85233e-12 0)
(-1 1.4975e-12 0)
(-1 1.4193e-12 0)
(-1 2.4461e-12 0)
(-1 3.12895e-12 0)
(-1 2.58891e-12 0)
(-1 3.78019e-12 0)
(-1 1.70316e-12 0)
(-1 3.35493e-12 0)
(-1 6.16712e-13 0)
(-1 1.31932e-12 0)
(-1 3.91374e-13 0)
(-1 1.4529e-07 0)
(-1 -1.23345e-08 0)
(-1 -3.26738e-08 0)
(-1 3.35274e-10 0)
(-1 7.61704e-09 0)
(-1 -4.91222e-10 0)
(-1 -1.98379e-09 0)
(-1 -4.54207e-10 0)
(-1 2.24706e-10 0)
(-1 -2.28369e-10 0)
(-1 -2.53547e-10 0)
(-1 -2.38556e-10 0)
(-1 -9.7239e-11 0)
(-1 -1.56207e-10 0)
(-1 -9.36513e-11 0)
(-1 -1.23317e-10 0)
(-1 -6.07838e-11 0)
(-1 -8.44799e-11 0)
(-1 -4.16462e-11 0)
(-1 -5.81716e-11 0)
(-1 -2.52951e-11 0)
(-1 -3.64439e-11 0)
(-1 -1.35686e-11 0)
(-1 -2.05979e-11 0)
(-1 -5.2866e-12 0)
(-1 -9.07686e-12 0)
(-1 1.17544e-14 0)
(-1 -1.49722e-12 0)
(-1 3.05075e-12 0)
(-1 3.05547e-12 0)
(-1 4.46304e-12 0)
(-1 5.33562e-12 0)
(-1 4.5462e-12 0)
(-1 6.08612e-12 0)
(-1 2.97109e-12 0)
(-1 5.28947e-12 0)
(-1 1.09398e-12 0)
(-1 2.12997e-12 0)
(-1 6.14772e-13 0)
(-1 -1.57289e-07 0)
(-1 3.38922e-08 0)
(-1 3.25179e-08 0)
(-1 -1.02794e-08 0)
(-1 -8.56247e-09 0)
(-1 1.76682e-09 0)
(-1 1.30121e-09 0)
(-1 -1.32507e-09 0)
(-1 -6.9163e-10 0)
(-1 -1.82205e-10 0)
(-1 -1.41215e-10 0)
(-1 -3.64106e-10 0)
(-1 -1.82285e-10 0)
(-1 -1.87519e-10 0)
(-1 -1.14146e-10 0)
(-1 -1.57683e-10 0)
(-1 -8.18677e-11 0)
(-1 -1.02212e-10 0)
(-1 -5.29693e-11 0)
(-1 -7.04124e-11 0)
(-1 -3.17468e-11 0)
(-1 -4.26507e-11 0)
(-1 -1.61062e-11 0)
(-1 -2.31272e-11 0)
(-1 -5.28748e-12 0)
(-1 -8.86876e-12 0)
(-1 1.54649e-12 0)
(-1 3.22385e-13 0)
(-1 5.34034e-12 0)
(-1 5.71266e-12 0)
(-1 6.9587e-12 0)
(-1 8.23101e-12 0)
(-1 6.82939e-12 0)
(-1 8.83996e-12 0)
(-1 4.44835e-12 0)
(-1 7.49867e-12 0)
(-1 1.65076e-12 0)
(-1 3.09995e-12 0)
(-1 8.65056e-13 0)
(-1 1.80902e-07 0)
(-1 -2.96077e-08 0)
(-1 -4.10305e-08 0)
(-1 -7.19608e-10 0)
(-1 9.00422e-09 0)
(-1 -3.94438e-10 0)
(-1 -2.80848e-09 0)
(-1 -1.24138e-09 0)
(-1 1.45319e-10 0)
(-1 -2.22265e-10 0)
(-1 -4.1041e-10 0)
(-1 -4.18253e-10 0)
(-1 -1.62918e-10 0)
(-1 -2.02068e-10 0)
(-1 -1.4575e-10 0)
(-1 -1.76958e-10 0)
(-1 -9.07571e-11 0)
(-1 -1.10571e-10 0)
(-1 -6.00937e-11 0)
(-1 -7.57254e-11 0)
(-1 -3.40311e-11 0)
(-1 -4.3928e-11 0)
(-1 -1.58898e-11 0)
(-1 -2.20813e-11 0)
(-1 -3.25889e-12 0)
(-1 -6.12255e-12 0)
(-1 4.48856e-12 0)
(-1 3.92881e-12 0)
(-1 8.60333e-12 0)
(-1 9.59661e-12 0)
(-1 1.01123e-11 0)
(-1 1.19418e-11 0)
(-1 9.50924e-12 0)
(-1 1.21083e-11 0)
(-1 6.15026e-12 0)
(-1 1.00089e-11 0)
(-1 2.31424e-12 0)
(-1 4.2519e-12 0)
(-1 1.14565e-12 0)
(-1 -2.11229e-07 0)
(-1 7.65809e-08 0)
(-1 3.99164e-08 0)
(-1 -1.95715e-08 0)
(-1 -1.064e-08 0)
(-1 3.96489e-09 0)
(-1 1.34484e-09 0)
(-1 -1.76088e-09 0)
(-1 -7.85837e-10 0)
(-1 -1.12041e-10 0)
(-1 -2.09911e-10 0)
(-1 -4.10377e-10 0)
(-1 -2.16108e-10 0)
(-1 -2.0822e-10 0)
(-1 -1.41779e-10 0)
(-1 -1.734e-10 0)
(-1 -9.55391e-11 0)
(-1 -1.10391e-10 0)
(-1 -5.95597e-11 0)
(-1 -7.23532e-11 0)
(-1 -3.19782e-11 0)
(-1 -3.99196e-11 0)
(-1 -1.2314e-11 0)
(-1 -1.69751e-11 0)
(-1 1.06515e-12 0)
(-1 -6.1591e-13 0)
(-1 9.03686e-12 0)
(-1 9.47435e-12 0)
(-1 1.29351e-11 0)
(-1 1.47796e-11 0)
(-1 1.39379e-11 0)
(-1 1.64981e-11 0)
(-1 1.2608e-11 0)
(-1 1.58919e-11 0)
(-1 8.11058e-12 0)
(-1 1.28157e-11 0)
(-1 3.08331e-12 0)
(-1 5.58208e-12 0)
(-1 1.45575e-12 0)
(-1 2.68239e-07 0)
(-1 -8.59707e-08 0)
(-1 -5.55231e-08 0)
(-1 1.65977e-08 0)
(-1 1.28441e-08 0)
(-1 -4.54961e-09 0)
(-1 -3.21776e-09 0)
(-1 3.53904e-10 0)
(-1 2.6342e-10 0)
(-1 -5.39355e-10 0)
(-1 -4.08685e-10 0)
(-1 -2.51358e-10 0)
(-1 -1.65511e-10 0)
(-1 -2.18691e-10 0)
(-1 -1.42011e-10 0)
(-1 -1.49371e-10 0)
(-1 -8.72049e-11 0)
(-1 -1.00663e-10 0)
(-1 -5.27132e-11 0)
(-1 -6.08908e-11 0)
(-1 -2.49166e-11 0)
(-1 -3.0338e-11 0)
(-1 -5.27696e-12 0)
(-1 -7.84936e-12 0)
(-1 7.79328e-12 0)
(-1 7.66973e-12 0)
(-1 1.52171e-11 0)
(-1 1.69091e-11 0)
(-1 1.83426e-11 0)
(-1 2.12009e-11 0)
(-1 1.84521e-11 0)
(-1 2.18298e-11 0)
(-1 1.60996e-11 0)
(-1 2.0125e-11 0)
(-1 1.02872e-11 0)
(-1 1.58583e-11 0)
(-1 3.95453e-12 0)
(-1 7.06634e-12 0)
(-1 1.78918e-12 0)
(-1 -3.37612e-07 0)
(-1 1.32613e-07 0)
(-1 6.75712e-08 0)
(-1 -2.68009e-08 0)
(-1 -1.70398e-08 0)
(-1 5.67488e-09 0)
(-1 3.03231e-09 0)
(-1 -1.4922e-09 0)
(-1 -1.05413e-09 0)
(-1 -9.43123e-11 0)
(-1 -6.13637e-11 0)
(-1 -2.72762e-10 0)
(-1 -2.02551e-10 0)
(-1 -1.7864e-10 0)
(-1 -1.08022e-10 0)
(-1 -1.22827e-10 0)
(-1 -7.4349e-11 0)
(-1 -7.96709e-11 0)
(-1 -3.85156e-11 0)
(-1 -4.2724e-11 0)
(-1 -1.32708e-11 0)
(-1 -1.54465e-11 0)
(-1 5.09733e-12 0)
(-1 4.93679e-12 0)
(-1 1.67856e-11 0)
(-1 1.8477e-11 0)
(-1 2.28929e-11 0)
(-1 2.59937e-11 0)
(-1 2.46882e-11 0)
(-1 2.86534e-11 0)
(-1 2.35027e-11 0)
(-1 2.77578e-11 0)
(-1 1.98837e-11 0)
(-1 2.46612e-11 0)
(-1 1.26374e-11 0)
(-1 1.9039e-11 0)
(-1 4.90099e-12 0)
(-1 8.65186e-12 0)
(-1 2.13388e-12 0)
(-1 4.43424e-07 0)
(-1 -1.75054e-07 0)
(-1 -8.86972e-08 0)
(-1 3.83174e-08 0)
(-1 2.12224e-08 0)
(-1 -9.47592e-09 0)
(-1 -4.61882e-09 0)
(-1 1.69443e-09 0)
(-1 6.87058e-10 0)
(-1 -7.18657e-10 0)
(-1 -3.90038e-10 0)
(-1 -7.90007e-11 0)
(-1 -9.8916e-11 0)
(-1 -1.557e-10 0)
(-1 -9.44756e-11 0)
(-1 -8.12231e-11 0)
(-1 -4.8046e-11 0)
(-1 -5.04096e-11 0)
(-1 -1.96549e-11 0)
(-1 -1.87209e-11 0)
(-1 2.76105e-12 0)
(-1 4.04908e-12 0)
(-1 1.83164e-11 0)
(-1 2.07616e-11 0)
(-1 2.76851e-11 0)
(-1 3.13337e-11 0)
(-1 3.17541e-11 0)
(-1 3.63122e-11 0)
(-1 3.1723e-11 0)
(-1 3.67961e-11 0)
(-1 2.89163e-11 0)
(-1 3.4007e-11 0)
(-1 2.38165e-11 0)
(-1 2.9292e-11 0)
(-1 1.50534e-11 0)
(-1 2.22063e-11 0)
(-1 5.88475e-12 0)
(-1 1.02672e-11 0)
(-1 2.47194e-12 0)
(-1 -5.80161e-07 0)
(-1 2.32808e-07 0)
(-1 1.17539e-07 0)
(-1 -5.42965e-08 0)
(-1 -2.90039e-08 0)
(-1 1.22329e-08 0)
(-1 5.5946e-09 0)
(-1 -3.2061e-09 0)
(-1 -1.48472e-09 0)
(-1 4.48552e-10 0)
(-1 1.55338e-10 0)
(-1 -2.84741e-10 0)
(-1 -1.38007e-10 0)
(-1 -4.68591e-11 0)
(-1 -3.71571e-11 0)
(-1 -5.00224e-11 0)
(-1 -2.10845e-11 0)
(-1 -1.16921e-11 0)
(-1 4.98306e-12 0)
(-1 9.58762e-12 0)
(-1 2.20496e-11 0)
(-1 2.71966e-11 0)
(-1 3.37789e-11 0)
(-1 3.88904e-11 0)
(-1 3.99608e-11 0)
(-1 4.55563e-11 0)
(-1 4.13542e-11 0)
(-1 4.73108e-11 0)
(-1 3.90802e-11 0)
(-1 4.5165e-11 0)
(-1 3.43828e-11 0)
(-1 4.02101e-11 0)
(-1 2.76819e-11 0)
(-1 3.37394e-11 0)
(-1 1.74202e-11 0)
(-1 2.51823e-11 0)
(-1 6.85441e-12 0)
(-1 1.18151e-11 0)
(-1 2.78029e-12 0)
(-0.999999 7.58673e-07 0)
(-1 -2.66489e-07 0)
(-1 -1.59602e-07 0)
(-1 5.98196e-08 0)
(-1 3.80308e-08 0)
(-1 -1.4771e-08 0)
(-1 -8.35214e-09 0)
(-1 2.90552e-09 0)
(-1 1.64853e-09 0)
(-1 -8.65322e-10 0)
(-1 -4.86938e-10 0)
(-1 9.8863e-11 0)
(-1 4.11253e-11 0)
(-1 -5.24487e-11 0)
(-1 -2.45574e-11 0)
(-1 1.61731e-11 0)
(-1 1.89801e-11 0)
(-1 2.69891e-11 0)
(-1 3.18012e-11 0)
(-1 4.29096e-11 0)
(-1 4.40374e-11 0)
(-1 5.26572e-11 0)
(-1 5.06679e-11 0)
(-1 5.84424e-11 0)
(-1 5.29063e-11 0)
(-1 6.03223e-11 0)
(-1 5.11216e-11 0)
(-1 5.82935e-11 0)
(-1 4.6295e-11 0)
(-1 5.3192e-11 0)
(-1 3.95667e-11 0)
(-1 4.59252e-11 0)
(-1 3.12398e-11 0)
(-1 3.76797e-11 0)
(-1 1.95772e-11 0)
(-1 2.77421e-11 0)
(-1 7.74099e-12 0)
(-1 1.31865e-11 0)
(-1 3.03333e-12 0)
(-1 -9.65342e-07 0)
(-1 2.9738e-07 0)
(-1 2.04651e-07 0)
(-1 -7.56112e-08 0)
(-1 -4.98962e-08 0)
(-1 1.8116e-08 0)
(-1 1.03923e-08 0)
(-1 -4.40965e-09 0)
(-1 -2.41499e-09 0)
(-1 1.11678e-09 0)
(-1 5.33353e-10 0)
(-1 -2.19111e-10 0)
(-1 -7.74009e-11 0)
(-1 1.20184e-10 0)
(-1 6.77196e-11 0)
(-1 5.06406e-11 0)
(-1 5.09186e-11 0)
(-1 7.86714e-11 0)
(-1 6.37657e-11 0)
(-1 7.73635e-11 0)
(-1 6.70622e-11 0)
(-1 7.99156e-11 0)
(-1 6.80968e-11 0)
(-1 7.82447e-11 0)
(-1 6.57095e-11 0)
(-1 7.46786e-11 0)
(-1 6.03639e-11 0)
(-1 6.84321e-11 0)
(-1 5.28222e-11 0)
(-1 6.02096e-11 0)
(-1 4.40382e-11 0)
(-1 5.06374e-11 0)
(-1 3.41821e-11 0)
(-1 4.07381e-11 0)
(-1 2.13514e-11 0)
(-1 2.965e-11 0)
(-1 8.4788e-12 0)
(-1 1.42482e-11 0)
(-1 3.20492e-12 0)
(-0.999999 1.18711e-06 0)
(-1 -1.93177e-07 0)
(-1 -2.62146e-07 0)
(-1 6.15435e-08 0)
(-1 6.36025e-08 0)
(-1 -1.34872e-08 0)
(-1 -1.36852e-08 0)
(-1 4.00695e-09 0)
(-1 3.31265e-09 0)
(-1 -7.71519e-10 0)
(-1 -6.32279e-10 0)
(-1 3.25052e-10 0)
(-1 2.48226e-10 0)
(-1 8.03306e-11 0)
(-1 6.15924e-11 0)
(-1 1.383e-10 0)
(-1 1.05116e-10 0)
(-1 1.2282e-10 0)
(-1 9.35134e-11 0)
(-1 1.16112e-10 0)
(-1 9.10981e-11 0)
(-1 1.06755e-10 0)
(-1 8.48265e-11 0)
(-1 9.71355e-11 0)
(-1 7.74013e-11 0)
(-1 8.7402e-11 0)
(-1 6.82779e-11 0)
(-1 7.67504e-11 0)
(-1 5.80248e-11 0)
(-1 6.54565e-11 0)
(-1 4.73373e-11 0)
(-1 5.37917e-11 0)
(-1 3.62061e-11 0)
(-1 4.25292e-11 0)
(-1 2.25469e-11 0)
(-1 3.06353e-11 0)
(-1 8.9743e-12 0)
(-1 1.48608e-11 0)
(-1 3.27166e-12 0)
(-1 -1.31874e-06 0)
(-1 1.2786e-07 0)
(-1 3.10202e-07 0)
(-1 -4.50656e-08 0)
(-1 -7.30828e-08 0)
(-1 1.06569e-08 0)
(-1 1.69207e-08 0)
(-1 -3.82742e-09 0)
(-1 -3.75912e-09 0)
(-1 1.21098e-09 0)
(-1 1.03766e-09 0)
(-1 -1.17181e-10 0)
(-1 -2.95948e-11 0)
(-1 3.23127e-10 0)
(-1 1.99528e-10 0)
(-1 1.74207e-10 0)
(-1 1.33816e-10 0)
(-1 1.88162e-10 0)
(-1 1.29354e-10 0)
(-1 1.512e-10 0)
(-1 1.12793e-10 0)
(-1 1.32765e-10 0)
(-1 9.97111e-11 0)
(-1 1.12938e-10 0)
(-1 8.67511e-11 0)
(-1 9.70592e-11 0)
(-1 7.3929e-11 0)
(-1 8.20799e-11 0)
(-1 6.12235e-11 0)
(-1 6.80993e-11 0)
(-1 4.89836e-11 0)
(-1 5.47985e-11 0)
(-1 3.69583e-11 0)
(-1 4.26466e-11 0)
(-1 2.29492e-11 0)
(-1 3.04445e-11 0)
(-1 9.15814e-12 0)
(-1 1.48777e-11 0)
(-1 3.21237e-12 0)
(-0.999999 1.40154e-06 0)
(-1 -6.41269e-08 0)
(-1 -3.44611e-07 0)
(-1 5.45431e-09 0)
(-1 7.99122e-08 0)
(-1 -1.25549e-09 0)
(-1 -1.95371e-08 0)
(-1 -3.50387e-10 0)
(-1 4.85291e-09 0)
(-1 5.94707e-10 0)
(-1 -8.31715e-10 0)
(-1 2.502e-10 0)
(-1 5.26929e-10 0)
(-1 3.91107e-10 0)
(-1 1.62841e-10 0)
(-1 2.72294e-10 0)
(-1 2.05547e-10 0)
(-1 2.42094e-10 0)
(-1 1.54612e-10 0)
(-1 1.86787e-10 0)
(-1 1.32911e-10 0)
(-1 1.52857e-10 0)
(-1 1.10286e-10 0)
(-1 1.23544e-10 0)
(-1 9.2388e-11 0)
(-1 1.0165e-10 0)
(-1 7.62503e-11 0)
(-1 8.31401e-11 0)
(-1 6.16744e-11 0)
(-1 6.7252e-11 0)
(-1 4.84616e-11 0)
(-1 5.30897e-11 0)
(-1 3.61328e-11 0)
(-1 4.07309e-11 0)
(-1 2.2373e-11 0)
(-1 2.884e-11 0)
(-1 8.93197e-12 0)
(-1 1.41717e-11 0)
(-1 3.01012e-12 0)
(-1 -1.46021e-06 0)
(-1 6.88546e-08 0)
(-1 3.4881e-07 0)
(-1 -4.54938e-08 0)
(-1 -8.15181e-08 0)
(-1 1.25487e-08 0)
(-1 1.97814e-08 0)
(-1 -4.21787e-09 0)
(-1 -4.00801e-09 0)
(-1 2.26516e-09 0)
(-1 1.47302e-09 0)
(-1 1.31086e-10 0)
(-1 1.36472e-10 0)
(-1 6.70319e-10 0)
(-1 3.51546e-10 0)
(-1 3.36131e-10 0)
(-1 2.23334e-10 0)
(-1 3.01712e-10 0)
(-1 1.85032e-10 0)
(-1 2.08694e-10 0)
(-1 1.4349e-10 0)
(-1 1.63122e-10 0)
(-1 1.14908e-10 0)
(-1 1.24872e-10 0)
(-1 9.24021e-11 0)
(-1 9.89973e-11 0)
(-1 7.41419e-11 0)
(-1 7.85198e-11 0)
(-1 5.86674e-11 0)
(-1 6.21065e-11 0)
(-1 4.53591e-11 0)
(-1 4.82061e-11 0)
(-1 3.34381e-11 0)
(-1 3.65483e-11 0)
(-1 2.06386e-11 0)
(-1 2.5719e-11 0)
(-1 8.24983e-12 0)
(-1 1.26875e-11 0)
(-1 2.64475e-12 0)
(-0.999999 1.48357e-06 0)
(-0.999999 -5.24878e-08 0)
(-1 -3.81755e-07 0)
(-1 1.94194e-08 0)
(-1 8.98489e-08 0)
(-1 -1.59071e-09 0)
(-1 -2.17341e-08 0)
(-1 3.90595e-09 0)
(-1 6.40425e-09 0)
(-1 1.0489e-09 0)
(-1 -6.71617e-10 0)
(-1 1.24009e-09 0)
(-1 8.69979e-10 0)
(-1 6.31978e-10 0)
(-1 2.86297e-10 0)
(-1 4.82131e-10 0)
(-1 2.87071e-10 0)
(-1 3.01413e-10 0)
(-1 1.86784e-10 0)
(-1 2.17253e-10 0)
(-1 1.44504e-10 0)
(-1 1.52981e-10 0)
(-1 1.08961e-10 0)
(-1 1.1459e-10 0)
(-1 8.5115e-11 0)
(-1 8.7106e-11 0)
(-1 6.64844e-11 0)
(-1 6.75844e-11 0)
(-1 5.16451e-11 0)
(-1 5.23827e-11 0)
(-1 3.93953e-11 0)
(-1 4.01354e-11 0)
(-1 2.88292e-11 0)
(-1 3.01492e-11 0)
(-1 1.77679e-11 0)
(-1 2.11217e-11 0)
(-1 7.08243e-12 0)
(-1 1.04493e-11 0)
(-1 2.10845e-12 0)
(-1 -1.51664e-06 0)
(-1 -5.91088e-08 0)
(-1 3.99584e-07 0)
(-1 8.05655e-08 0)
(-1 -8.75337e-08 0)
(-1 -1.4809e-08 0)
(-1 2.6689e-08 0)
(-1 1.38063e-08 0)
(-1 -4.11527e-09 0)
(-1 -8.78301e-10 0)
(-1 2.54368e-09 0)
(-1 2.45099e-09 0)
(-1 2.4413e-10 0)
(-1 3.47886e-10 0)
(-1 4.97247e-10 0)
(-1 5.63792e-10 0)
(-1 2.31595e-10 0)
(-1 2.29555e-10 0)
(-1 1.8345e-10 0)
(-1 1.92203e-10 0)
(-1 1.23067e-10 0)
(-1 1.1838e-10 0)
(-1 9.27348e-11 0)
(-1 8.96239e-11 0)
(-1 6.95754e-11 0)
(-1 6.51422e-11 0)
(-1 5.34827e-11 0)
(-1 4.9945e-11 0)
(-1 4.08729e-11 0)
(-1 3.80211e-11 0)
(-1 3.08894e-11 0)
(-1 2.88633e-11 0)
(-1 2.24418e-11 0)
(-1 2.15322e-11 0)
(-1 1.38032e-11 0)
(-1 1.5135e-11 0)
(-1 5.47532e-12 0)
(-1 7.59157e-12 0)
(-1 1.43947e-12 0)
(-0.999999 1.5381e-06 0)
(-1 -7.24697e-08 0)
(-1 -3.33827e-07 0)
(-1 1.22233e-07 0)
(-1 8.6531e-08 0)
(-1 -2.75585e-08 0)
(-1 -1.3761e-08 0)
(-1 1.82423e-08 0)
(-1 5.68795e-09 0)
(-1 -3.29615e-09 0)
(-1 2.55192e-10 0)
(-1 2.58989e-09 0)
(-1 6.67548e-10 0)
(-1 -1.12814e-10 0)
(-1 2.96101e-10 0)
(-1 4.52838e-10 0)
(-1 1.90164e-10 0)
(-1 9.95403e-11 0)
(-1 1.27133e-10 0)
(-1 1.21232e-10 0)
(-1 8.49372e-11 0)
(-1 6.21137e-11 0)
(-1 6.20314e-11 0)
(-1 4.98415e-11 0)
(-1 4.55117e-11 0)
(-1 3.43889e-11 0)
(-1 3.44834e-11 0)
(-1 2.63861e-11 0)
(-1 2.60114e-11 0)
(-1 1.97569e-11 0)
(-1 1.95061e-11 0)
(-1 1.49117e-11 0)
(-1 1.42255e-11 0)
(-1 1.10948e-11 0)
(-1 8.92346e-12 0)
(-1 7.94684e-12 0)
(-1 3.55572e-12 0)
(-1 4.107e-12 0)
(-1 7.18969e-13 0)
(-1 -1.48833e-06 0)
(-1 4.28502e-07 0)
(-1 -9.58471e-08 0)
(-1 2.87072e-08 0)
(-1 -6.39421e-09 0)
(-1 2.22188e-09 0)
(-1 -3.27525e-10 0)
(-1 2.56277e-10 0)
(-1 3.06078e-11 0)
(-1 5.62121e-11 0)
(-1 2.7018e-11 0)
(-1 2.2199e-11 0)
(-1 1.52632e-11 0)
(-1 1.16596e-11 0)
(-1 8.65716e-12 0)
(-1 6.50038e-12 0)
(-1 4.81621e-12 0)
(-1 3.13037e-12 0)
(-1 1.27024e-12 0)
)
;

boundaryField
{
    movingWall
    {
        type            calculated;
        value           uniform (-1 -0 -0);
    }
    fixedWalls
    {
        type            calculated;
        value           uniform (-1 -0 -0);
    }
    frontAndBack
    {
        type            empty;
    }
}


// ************************************************************************* //
