/*--------------------------------*- C++ -*----------------------------------*\
| =========                 |                                                 |
| \\      /  F ield         | OpenFOAM: The Open Source CFD Toolbox           |
|  \\    /   O peration     | Version:  2506                                  |
|   \\  /    A nd           | Website:  www.openfoam.com                      |
|    \\/     M anipulation  |                                                 |
\*---------------------------------------------------------------------------*/
FoamFile
{
    version     2.0;
    format      ascii;
    arch        "LSB;label=32;scalar=64";
    class       surfaceScalarField;
    location    "3";
    object      surfaceK;
}
// * * * * * * * * * * * * * * * * * * * * * * * * * * * * * * * * * * * * * //

dimensions      [0 2 -2 0 0 0 0];

internalField   nonuniform List<scalar> 
760
(
6.15595e-05
8.26514e-05
6.15565e-05
8.26473e-05
6.1554e-05
8.26038e-05
6.15519e-05
8.25876e-05
6.15498e-05
8.2557e-05
6.15478e-05
8.25422e-05
6.15465e-05
8.25164e-05
6.1545e-05
8.25037e-05
6.15435e-05
8.2482e-05
6.15423e-05
8.24712e-05
6.15413e-05
8.24537e-05
6.15404e-05
8.24453e-05
6.15398e-05
8.24315e-05
6.15392e-05
8.24256e-05
6.15387e-05
8.24153e-05
6.15385e-05
8.24117e-05
6.15382e-05
8.24058e-05
6.15381e-05
8.24036e-05
6.1538e-05
8.24017e-05
8.2401e-05
0.000103739
0.000137797
0.000103695
0.000137787
0.000103637
0.000137627
0.000103593
0.00013757
0.000103549
0.000137459
0.000103511
0.000137405
0.000103474
0.000137314
0.000103441
0.000137265
0.00010341
0.000137191
0.000103383
0.000137148
0.000103358
0.000137089
0.000103336
0.000137055
0.000103317
0.000137009
0.000103302
0.000136983
0.000103288
0.00013695
0.000103279
0.000136933
0.000103271
0.000136914
0.000103267
0.000136905
0.000103265
0.000136898
0.000136896
0.000171845
0.000201006
0.000171719
0.000200983
0.00017156
0.000200649
0.000171436
0.000200532
0.000171315
0.000200302
0.000171208
0.000200189
0.000171105
0.000199998
0.000171015
0.000199897
0.000170929
0.00019974
0.000170855
0.000199654
0.000170787
0.00019953
0.000170727
0.000199458
0.000170675
0.000199364
0.000170631
0.000199308
0.000170594
0.000199242
0.000170568
0.000199205
0.000170548
0.000199167
0.000170536
0.000199147
0.000170529
0.000199133
0.000199128
0.000230144
0.000249105
0.000229913
0.000249068
0.000229621
0.000248555
0.000229398
0.000248375
0.000229176
0.000248022
0.000228978
0.000247849
0.00022879
0.000247553
0.000228623
0.000247402
0.000228464
0.000247153
0.000228329
0.000247026
0.000228202
0.000246828
0.000228095
0.000246724
0.000227997
0.000246573
0.000227919
0.000246493
0.000227853
0.000246387
0.000227803
0.000246333
0.000227765
0.000246271
0.000227744
0.000246242
0.000227732
0.000246221
0.000246212
0.000268029
0.000278891
0.000267711
0.000278839
0.000267309
0.0002782
0.000266999
0.000277964
0.000266694
0.00027752
0.000266423
0.000277301
0.000266164
0.000276925
0.000265932
0.000276737
0.000265714
0.00027642
0.000265526
0.000276261
0.00026535
0.000276011
0.000265202
0.000275879
0.000265069
0.000275688
0.000264961
0.000275587
0.000264868
0.000275454
0.000264801
0.000275385
0.000264748
0.000275307
0.000264719
0.00027527
0.000264702
0.000275244
0.000275233
0.000289701
0.000295966
0.000289328
0.000295908
0.000288855
0.000295178
0.000288486
0.000294916
0.000288127
0.000294412
0.000287804
0.000294162
0.000287498
0.000293734
0.000287225
0.000293522
0.000286967
0.000293161
0.000286747
0.000292985
0.00028654
0.000292697
0.000286365
0.000292552
0.000286206
0.00029233
0.000286079
0.00029222
0.000285971
0.000292066
0.000285891
0.00029199
0.000285829
0.000291901
0.000285794
0.000291859
0.000285774
0.00029183
0.000291817
0.000302173
0.000306131
0.000301757
0.000306071
0.000301238
0.000305276
0.000300842
0.000305004
0.000300446
0.00030446
0.000300092
0.000304191
0.000299758
0.000303731
0.000299458
0.000303505
0.000299179
0.000303114
0.000298935
0.000302931
0.000298709
0.000302612
0.000298518
0.000302467
0.000298344
0.000302219
0.000298207
0.000302111
0.000298085
0.000301936
0.000298
0.000301862
0.000297931
0.000301762
0.000297895
0.000301719
0.000297872
0.000301687
0.000301674
0.000310029
0.000312948
0.000309589
0.000312883
0.000309042
0.000312054
0.000308622
0.000311766
0.000308204
0.000311194
0.00030783
0.000310915
0.000307478
0.000310435
0.000307162
0.000310195
0.000306867
0.00030979
0.000306608
0.000309594
0.000306371
0.000309263
0.000306168
0.000309109
0.000305986
0.000308851
0.000305841
0.000308737
0.000305712
0.000308554
0.000305623
0.000308476
0.00030555
0.000308372
0.000305511
0.000308327
0.000305488
0.000308293
0.000308279
0.000315802
0.000318318
0.000315347
0.000318244
0.000314779
0.000317403
0.000314339
0.00031709
0.000313905
0.0003165
0.00031352
0.000316213
0.000313152
0.000315714
0.000312823
0.000315466
0.000312517
0.000315047
0.000312249
0.000314841
0.000312002
0.000314505
0.000311792
0.000314337
0.000311602
0.000314078
0.000311451
0.000313952
0.000311318
0.000313769
0.000311225
0.000313684
0.000311149
0.000313578
0.000311109
0.000313531
0.000311085
0.000313496
0.000313482
0.00032076
0.000323217
0.0003203
0.000323141
0.000319714
0.000322269
0.000319251
0.000321949
0.000318808
0.000321341
0.000318408
0.000321043
0.000318028
0.000320529
0.00031769
0.000320273
0.00031737
0.000319841
0.000317097
0.000319627
0.000316839
0.00031928
0.000316623
0.000319107
0.000316428
0.000318841
0.000316271
0.00031871
0.000316135
0.000318523
0.000316037
0.000318433
0.00031596
0.000318326
0.000315918
0.000318276
0.000315893
0.00031824
0.000318226
0.000325599
0.000328185
0.000325111
0.000328108
0.000324504
0.000327201
0.000324039
0.000326878
0.000323576
0.000326249
0.000323164
0.00032594
0.000322773
0.00032541
0.000322425
0.000325146
0.000322099
0.000324701
0.000321811
0.000324483
0.000321548
0.000324118
0.000321325
0.000323947
0.000321123
0.000323666
0.000320963
0.000323536
0.000320821
0.000323341
0.000320722
0.000323249
0.000320642
0.000323139
0.000320598
0.000323086
0.000320573
0.00032305
0.000323035
0.000330694
0.000333561
0.000330198
0.000333479
0.000329575
0.000332544
0.000329088
0.000332208
0.000328613
0.000331558
0.000328186
0.00033124
0.000327782
0.000330691
0.000327422
0.000330418
0.000327085
0.000329958
0.00032679
0.000329732
0.000326518
0.000329358
0.000326288
0.000329178
0.000326079
0.000328888
0.000325914
0.000328753
0.000325769
0.000328555
0.000325665
0.000328456
0.000325583
0.000328345
0.000325538
0.000328289
0.000325512
0.000328252
0.000328236
0.000336345
0.000339602
0.000335825
0.00033952
0.000335177
0.000338539
0.000334678
0.000338199
0.000334184
0.000337521
0.000333745
0.000337191
0.000333327
0.000336625
0.000332954
0.00033634
0.000332605
0.000335864
0.0003323
0.000335627
0.000332019
0.000335243
0.000331778
0.00033505
0.000331562
0.000334758
0.000331393
0.000334609
0.000331242
0.000334409
0.000331135
0.000334304
0.000331051
0.00033419
0.000331003
0.000334132
0.000330977
0.000334094
0.000334077
0.000342776
0.000346551
0.000342234
0.000346461
0.00034156
0.000345451
0.000341042
0.000345086
0.000340528
0.000344381
0.000340071
0.000344039
0.000339637
0.000343445
0.000339249
0.00034315
0.000338886
0.000342655
0.000338569
0.000342407
0.000338274
0.000342006
0.000338029
0.000341806
0.000337805
0.000341503
0.000337626
0.000341346
0.000337471
0.00034114
0.000337359
0.000341029
0.000337271
0.000340911
0.000337222
0.00034085
0.000337194
0.00034081
0.000340793
0.000350235
0.000354706
0.000349678
0.000354604
0.000348977
0.000353564
0.000348425
0.000353168
0.000347891
0.00035243
0.000347413
0.000352073
0.000346958
0.00035145
0.000346555
0.000351139
0.000346176
0.000350621
0.000345844
0.000350362
0.000345538
0.000349938
0.00034528
0.000349735
0.000345044
0.000349407
0.00034486
0.000349254
0.000344697
0.000349028
0.000344581
0.000348918
0.00034449
0.000348791
0.000344438
0.000348729
0.000344409
0.000348687
0.000348669
0.000359075
0.000364506
0.000358491
0.000364395
0.000357755
0.000363299
0.000357173
0.000362878
0.000356612
0.000362098
0.000356109
0.000361721
0.000355631
0.000361061
0.000355204
0.000360734
0.000354806
0.000360183
0.000354456
0.000359913
0.000354136
0.000359461
0.000353863
0.000359251
0.000353617
0.000358901
0.000353421
0.000358743
0.000353249
0.000358499
0.000353128
0.000358388
0.00035303
0.00035825
0.000352978
0.000358186
0.000352947
0.000358141
0.000358122
0.000369826
0.00037643
0.000369203
0.000376307
0.000368422
0.000375155
0.000367804
0.000374692
0.000367207
0.000373863
0.000366673
0.000373463
0.000366165
0.000372755
0.000365713
0.000372412
0.000365289
0.00037182
0.000364918
0.000371534
0.000364577
0.000371053
0.000364289
0.000370827
0.000364027
0.000370456
0.000363821
0.000370285
0.000363638
0.000370027
0.000363509
0.000369907
0.000363406
0.000369761
0.000363349
0.000369692
0.000363317
0.000369644
0.000369624
0.000382911
0.000389804
0.000382258
0.000389708
0.000381425
0.000388496
0.000380752
0.000388024
0.000380119
0.000387163
0.000379545
0.000386747
0.000379002
0.000386011
0.000378519
0.000385653
0.000378065
0.000385033
0.000377669
0.000384733
0.000377304
0.000384234
0.000376994
0.000383988
0.000376714
0.000383605
0.000376491
0.000383416
0.000376295
0.000383148
0.000376158
0.000383018
0.000376047
0.000382863
0.000375988
0.000382791
0.000375952
0.00038274
0.000382718
0.000396601
0.000397971
0.000395945
0.000397911
0.000395094
0.000397277
0.000394435
0.000397038
0.000393791
0.000396595
0.000393213
0.000396375
0.000392663
0.000395999
0.000392167
0.000395813
0.000391701
0.000395491
0.000391298
0.000395337
0.000390919
0.00039508
0.000390599
0.00039495
0.000390307
0.000394755
0.000390073
0.000394654
0.000389871
0.000394519
0.000389722
0.000394449
0.000389606
0.00039437
0.000389543
0.000394333
0.000389506
0.000394307
0.000394296
0.000399281
0.000399243
0.00039922
0.000399198
0.000399179
0.000399161
0.000399149
0.000399137
0.000399127
0.000399119
0.000399111
0.000399107
0.000399102
0.0003991
0.000399098
0.000399097
0.000399097
0.000399097
0.000399096
)
;

boundaryField
{
    movingWall
    {
        type            calculated;
        value           nonuniform List<scalar> 
20
(
0.00039931
0.000399252
0.000399234
0.000399206
0.000399189
0.000399169
0.000399152
0.000399146
0.000399127
0.000399126
0.000399112
0.000399111
0.000399103
0.000399102
0.000399099
0.000399098
0.000399097
0.000399097
0.000399096
0.000399096
)
;
    }
    fixedWalls
    {
        type            calculated;
        value           nonuniform List<scalar> 
60
(
6.1561e-05
0.000103742
0.000171853
0.000230159
0.000268051
0.00028973
0.000302203
0.00031006
0.000315836
0.0003208
0.000325635
0.000330736
0.000336386
0.000342819
0.000350283
0.000359129
0.000369883
0.000382978
0.000396631
0.00039931
6.1538e-05
0.000103264
0.000170527
0.000227728
0.000264697
0.000285768
0.000297866
0.000305481
0.000311078
0.000315886
0.000320565
0.000325504
0.000330968
0.000337186
0.0003444
0.000352938
0.000363307
0.000375942
0.000389495
0.000399096
6.1561e-05
6.15579e-05
6.15551e-05
6.15529e-05
6.15508e-05
6.15488e-05
6.15469e-05
6.1546e-05
6.1544e-05
6.1543e-05
6.15416e-05
6.15411e-05
6.15397e-05
6.15398e-05
6.15387e-05
6.15388e-05
6.15381e-05
6.15382e-05
6.1538e-05
6.1538e-05
)
;
    }
    frontAndBack
    {
        type            empty;
    }
}


// ************************************************************************* //
