/*--------------------------------*- C++ -*----------------------------------*\
| =========                 |                                                 |
| \\      /  F ield         | OpenFOAM: The Open Source CFD Toolbox           |
|  \\    /   O peration     | Version:  2506                                  |
|   \\  /    A nd           | Website:  www.openfoam.com                      |
|    \\/     M anipulation  |                                                 |
\*---------------------------------------------------------------------------*/
FoamFile
{
    version     2.0;
    format      ascii;
    arch        "LSB;label=32;scalar=64";
    class       surfaceScalarField;
    location    "3";
    object      surfaceDivU;
}
// * * * * * * * * * * * * * * * * * * * * * * * * * * * * * * * * * * * * * //

dimensions      [0 0 -1 0 0 0 0];

internalField   nonuniform List<scalar> 
760
(
1.44833e-07
-1.78916e-06
1.90806e-06
3.28883e-06
-4.64518e-07
-8.98893e-07
1.83254e-07
3.45444e-07
-5.4521e-08
-1.11356e-07
1.86428e-08
3.79218e-08
-6.1281e-09
-1.3023e-08
1.82538e-09
4.21636e-09
-6.78853e-10
-1.47375e-09
1.86799e-10
4.81673e-10
-6.32639e-11
-1.49784e-10
3.13924e-11
6.59349e-11
6.51721e-12
-2.08048e-12
1.56173e-11
1.93668e-11
1.23469e-11
1.26324e-11
7.88417e-12
9.02666e-12
6.28679e-12
-1.20592e-13
1.18224e-11
1.5906e-11
1.26407e-11
1.43869e-11
9.28348e-12
1.35485e-06
-6.36635e-06
4.81882e-07
6.77488e-06
-8.89313e-08
-1.91885e-06
5.08347e-08
6.56932e-07
-1.8913e-08
-2.04607e-07
6.25602e-09
6.67059e-08
-2.67853e-09
-2.10713e-08
9.17226e-10
6.89698e-09
-3.13229e-10
-2.09245e-09
1.4509e-10
7.39305e-10
-2.05852e-11
-1.89255e-10
3.2462e-11
9.17916e-11
1.07691e-11
-3.99809e-12
1.63819e-11
2.09612e-11
9.31214e-12
1.27383e-11
1.0219e-12
1.00625e-11
9.49861e-12
-2.89372e-12
1.84705e-11
1.35721e-11
1.10297e-11
1.4139e-11
8.8227e-12
-9.46316e-07
-5.28274e-06
4.37415e-06
8.17652e-06
-1.17299e-06
-2.07764e-06
4.01491e-07
7.66337e-07
-1.18988e-07
-2.07936e-07
3.93786e-08
7.22712e-08
-1.14958e-08
-2.06671e-08
3.88731e-09
7.14545e-09
-1.03991e-09
-1.97153e-09
4.0496e-10
7.42767e-10
-7.68781e-11
-1.72403e-10
5.53315e-11
8.94913e-11
6.194e-12
-2.94508e-12
1.73176e-11
2.03725e-11
1.34886e-11
1.31644e-11
6.14687e-12
8.44356e-12
1.17972e-12
-4.51274e-12
9.24053e-12
1.43361e-11
1.19319e-11
1.68864e-11
6.03087e-12
3.84009e-06
-4.94095e-06
1.72473e-06
4.06113e-06
-1.38314e-07
-1.31604e-06
1.5691e-07
3.67994e-07
-1.66775e-08
-1.36665e-07
1.22255e-08
4.21883e-08
-2.02588e-09
-1.24818e-08
1.28661e-09
4.60498e-09
-1.8885e-10
-1.21643e-09
1.65404e-10
4.84599e-10
-6.03408e-12
-1.09216e-10
3.12147e-11
6.04306e-11
1.12334e-11
6.73025e-13
1.62194e-11
1.61045e-11
8.11937e-12
1.22847e-11
-2.21604e-12
6.64583e-12
8.64366e-12
-6.12912e-12
2.19819e-11
1.25545e-11
1.09853e-11
1.87441e-11
3.49655e-12
-4.7199e-06
6.99394e-07
1.02036e-06
3.00352e-06
-8.09734e-07
-4.36977e-07
7.4419e-08
2.74789e-07
-7.77993e-08
-3.29011e-08
1.74811e-08
1.51246e-08
-5.8509e-09
-3.85946e-09
2.10193e-09
6.26095e-10
-5.42983e-10
-2.8165e-10
2.09979e-10
4.0161e-11
-4.27517e-11
-8.98845e-12
2.98889e-11
8.26389e-12
5.54408e-12
7.76482e-12
1.21698e-11
9.34926e-12
1.08111e-11
1.26568e-11
2.73276e-12
2.5813e-12
-2.21833e-12
-9.86874e-12
9.31665e-12
1.25629e-11
1.12554e-11
2.16976e-11
-2.1684e-13
8.42281e-06
4.72906e-06
1.54618e-06
-1.04321e-05
6.47546e-07
2.32233e-06
1.67469e-07
-9.40848e-07
6.00228e-08
2.22782e-07
-6.21592e-09
-8.02826e-08
2.61754e-09
2.19501e-08
-1.75749e-09
-6.97665e-09
3.01494e-10
1.9733e-09
-1.78806e-10
-6.67677e-10
4.20271e-11
1.71971e-10
-1.38602e-11
-6.34684e-11
1.157e-11
1.95561e-11
9.83625e-12
6.71454e-13
4.42693e-12
1.21642e-11
-1.00202e-11
-6.25592e-13
4.91244e-12
-1.26359e-11
2.49438e-11
1.03343e-11
1.02253e-11
2.37015e-11
-3.52366e-12
-1.41259e-05
5.32573e-06
-9.65598e-06
-1.06885e-06
7.33933e-07
8.96494e-07
-8.85536e-07
-1.25309e-07
8.24762e-08
1.12366e-07
-5.21165e-08
-2.74123e-08
1.23559e-08
1.07712e-08
-3.24586e-09
-4.21543e-09
1.00413e-09
1.16902e-09
-3.169e-10
-5.01249e-10
6.64753e-11
1.29559e-10
-3.00522e-11
-5.94277e-11
8.65754e-12
1.4455e-11
2.99944e-12
-9.53353e-13
7.11172e-12
1.12697e-11
-3.24127e-12
-4.64651e-12
-7.21401e-12
-1.6983e-11
9.09207e-12
9.6277e-12
9.95252e-12
2.64119e-11
-7.35902e-12
1.83828e-05
4.11779e-06
9.48362e-06
-1.28421e-05
3.72523e-08
2.6794e-06
8.72593e-07
-1.20029e-06
2.47789e-09
2.59389e-07
3.54754e-08
-9.44333e-08
-5.80012e-09
2.81239e-08
1.99454e-10
-7.97335e-09
-3.3636e-10
2.66713e-09
-5.47903e-11
-7.73071e-10
3.65595e-12
2.24005e-10
-1.49206e-11
-8.23098e-11
4.84411e-12
1.92832e-11
7.3169e-12
-3.33114e-12
-4.88526e-13
1.06101e-11
-1.83882e-11
-7.76254e-12
-1.41242e-13
-2.03176e-11
2.69475e-11
7.38312e-12
9.10031e-12
2.79348e-11
-1.04354e-11
-2.7107e-05
-3.68745e-07
-1.96463e-05
8.89305e-06
1.44186e-06
-1.38592e-06
-1.81349e-06
7.71279e-07
1.62478e-07
-9.15324e-08
-1.01785e-07
4.3972e-08
2.59507e-08
-6.19065e-09
-5.50567e-09
1.87232e-09
2.23042e-09
-5.28458e-10
-4.94276e-10
-3.64733e-13
1.38039e-10
-9.94847e-13
-4.8106e-11
-1.38864e-11
1.1108e-11
2.52288e-12
-3.7919e-14
2.07186e-12
3.33611e-12
9.16834e-12
-9.692e-12
-1.08581e-11
-1.27933e-11
-2.468e-11
8.37047e-12
5.77721e-12
8.39909e-12
2.95429e-11
-1.31188e-11
3.56314e-05
6.38503e-06
2.71534e-05
-1.56063e-05
-2.05651e-06
3.11248e-06
2.49324e-06
-1.44366e-06
-2.10038e-07
2.93637e-07
1.39566e-07
-1.11846e-07
-3.0269e-08
3.05076e-08
6.84953e-09
-8.54161e-09
-2.75924e-09
3.04954e-09
4.92916e-10
-7.75797e-10
-1.5292e-10
2.76762e-10
3.67425e-11
-7.38094e-11
-6.51325e-12
2.11891e-11
1.12781e-11
-2.62808e-12
-5.02591e-12
9.81263e-12
-2.58461e-11
-1.43672e-11
-6.10947e-12
-2.77264e-11
2.69496e-11
3.404e-12
8.02497e-12
2.96934e-11
-1.48807e-11
-4.48526e-05
-6.73629e-06
-3.96472e-05
1.28771e-05
3.72532e-06
-2.25307e-06
-3.64326e-06
1.15917e-06
3.91829e-07
-1.7486e-07
-2.20905e-07
7.21593e-08
5.22351e-08
-1.83678e-08
-1.23416e-08
3.22071e-09
5.03299e-09
-1.31789e-09
-9.91951e-10
2.03355e-10
3.55873e-10
-4.46464e-11
-8.93628e-11
1.44193e-11
2.50743e-11
-1.77306e-12
-4.09357e-12
3.02314e-12
4.71311e-13
6.63409e-12
-1.62475e-11
-1.77312e-11
-1.82129e-11
-3.21361e-11
6.14775e-12
3.99452e-13
6.78774e-12
2.91221e-11
-1.50975e-11
5.09934e-05
2.49721e-05
5.02712e-05
-2.01405e-05
-4.81922e-06
4.65534e-06
4.62757e-06
-1.91419e-06
-4.9453e-07
3.98001e-07
2.74696e-07
-1.64647e-07
-6.73822e-08
3.74838e-08
1.42444e-08
-1.37159e-08
-6.14753e-09
4.13751e-09
1.15066e-09
-1.05962e-09
-3.861e-10
4.15425e-10
1.02009e-10
-1.05188e-10
-2.38242e-11
2.81097e-11
1.37508e-11
-1.19837e-11
-1.15684e-11
5.21986e-12
-3.36198e-11
-2.37054e-11
-1.35238e-11
-3.45533e-11
2.33738e-11
-1.09725e-12
7.23685e-12
2.7053e-11
-1.41488e-11
-4.61618e-05
-2.15436e-05
-6.57563e-05
8.4676e-06
7.56037e-06
-2.0871e-06
-6.14376e-06
7.59315e-07
7.27884e-07
-1.42044e-07
-4.01859e-07
5.2919e-08
9.11501e-08
-1.03062e-08
-2.38228e-08
2.81907e-09
9.22542e-09
-2.73557e-10
-1.79485e-09
8.63297e-11
6.96337e-10
6.87862e-11
-1.79088e-10
-3.30621e-11
3.99502e-11
-1.29613e-11
-2.05147e-11
-1.64975e-11
-6.9172e-12
-3.06592e-12
-2.4639e-11
-2.72694e-11
-2.21268e-11
-3.70467e-11
2.58194e-12
-4.86735e-12
5.66732e-12
2.3318e-11
-1.05168e-11
3.30857e-05
1.66685e-05
7.21368e-05
-1.11197e-05
-8.88816e-06
3.55761e-06
6.76103e-06
-1.17742e-06
-8.17009e-07
4.6357e-07
4.44472e-07
-1.46771e-07
-9.86372e-08
5.18047e-08
2.63683e-08
-1.65084e-08
-9.41265e-09
5.68042e-09
1.94997e-09
-1.78247e-09
-6.60613e-10
5.28517e-10
1.33064e-10
-2.51654e-10
-6.9409e-11
2.8138e-12
9.51223e-13
-4.89646e-11
-2.34181e-11
-7.0667e-12
-3.96771e-11
-3.53029e-11
-1.97872e-11
-3.91216e-11
1.58687e-11
-5.02902e-12
7.13389e-12
1.92576e-11
-5.82759e-12
-2.7537e-05
8.0977e-06
-7.96989e-05
-1.63103e-05
1.12683e-05
4.01513e-06
-7.47488e-06
-1.7104e-06
1.13381e-06
4.58855e-07
-5.39439e-07
-1.82996e-07
1.33933e-07
5.28388e-08
-3.71963e-08
-1.7943e-08
1.33106e-08
5.86248e-09
-3.20392e-09
-2.1293e-09
9.37475e-10
4.09876e-10
-3.81905e-10
-3.71353e-10
2.32582e-11
-4.31918e-11
-5.69826e-11
-7.61792e-11
-1.89515e-11
-1.82903e-11
-3.47474e-11
-3.99913e-11
-2.43634e-11
-3.80613e-11
-1.64008e-12
-5.27158e-12
6.29614e-12
1.64103e-11
1.92446e-12
1.93244e-05
2.88578e-05
6.74037e-05
-3.33581e-05
-8.96361e-06
1.00655e-05
6.22334e-06
-3.25711e-06
-8.57949e-07
1.09477e-06
4.09282e-07
-3.42414e-07
-9.90376e-08
1.13363e-07
2.51158e-08
-3.7156e-08
-9.57742e-09
9.9446e-09
1.4845e-09
-4.53137e-09
-8.98952e-10
6.82545e-10
-3.26401e-11
-6.05971e-10
-1.42629e-10
-5.25868e-12
-3.74869e-11
-8.12656e-11
-3.93301e-11
1.55916e-12
-4.33051e-11
-2.51684e-11
-1.89695e-11
-2.02086e-11
1.27788e-11
5.73922e-12
1.20387e-11
1.6013e-11
8.34836e-12
-2.38247e-05
7.02536e-05
-9.06963e-05
-8.72483e-05
1.5772e-05
2.22152e-05
-8.38568e-06
-7.97641e-06
1.61031e-06
2.07857e-06
-6.38333e-07
-7.01839e-07
1.75245e-07
1.9001e-07
-5.23273e-08
-6.70779e-08
1.49907e-08
1.58922e-08
-5.33332e-09
-6.58825e-09
9.75526e-10
1.24953e-09
-5.78589e-10
-6.62943e-10
5.61048e-11
8.9293e-11
-4.22196e-11
-4.72522e-11
1.57209e-11
3.38707e-11
-2.07184e-12
-3.8426e-12
4.50007e-12
-1.18318e-11
8.97338e-12
-5.71791e-13
1.23227e-11
1.14272e-11
1.70762e-11
6.82999e-06
3.01068e-05
2.56632e-05
-3.01328e-05
-1.53317e-06
8.67018e-06
2.48784e-06
-2.47289e-06
-2.33578e-07
6.89779e-07
1.26504e-07
-2.13909e-07
-5.23121e-08
4.7744e-08
1.14149e-09
-1.87908e-08
-5.68674e-09
3.5561e-09
-5.40061e-12
-1.38494e-09
-3.88939e-10
3.32631e-10
4.93942e-12
-6.95228e-11
-1.4064e-11
3.72256e-11
2.88381e-11
2.16768e-11
1.43072e-11
2.56599e-11
-1.36025e-11
-1.78831e-11
-1.69036e-11
-3.12367e-11
1.88204e-12
-1.86673e-12
1.61807e-11
1.11429e-11
2.62648e-11
-6.856e-06
-4.09048e-05
-4.71258e-05
5.02067e-05
7.73046e-06
-1.531e-05
-4.27095e-06
4.80477e-06
7.09448e-07
-1.59756e-06
-2.92669e-07
5.20201e-07
8.12654e-08
-1.50351e-07
-1.63762e-08
5.90773e-08
7.85791e-09
-1.40164e-08
-1.0469e-09
6.57299e-09
6.52048e-10
-1.18816e-09
-3.72366e-11
8.22994e-10
7.29665e-11
-3.32414e-11
1.84986e-11
1.59727e-10
-6.53052e-12
4.5878e-11
-3.55173e-11
1.18576e-11
-1.61998e-11
4.27379e-12
7.39417e-12
3.0118e-11
2.1227e-11
6.87491e-12
3.3163e-11
1.61579e-05
8.20225e-05
-1.82357e-05
7.47816e-06
-1.78681e-06
6.62519e-07
-1.72539e-07
6.1437e-08
-1.53014e-08
6.43173e-09
-1.01721e-09
8.26989e-10
5.35189e-11
1.87106e-10
6.42661e-11
5.16487e-11
5.05916e-11
2.95987e-11
1.88109e-11
)
;

boundaryField
{
    movingWall
    {
        type            calculated;
        value           nonuniform List<scalar> 
20
(
-0.000188571
0.000220887
-5.68417e-05
2.03703e-05
-5.41396e-06
1.84034e-06
-5.15304e-07
1.70226e-07
-4.73517e-08
1.6749e-08
-3.88551e-09
1.85109e-09
-1.97108e-10
3.04146e-10
7.00666e-11
5.84656e-11
4.48318e-11
5.63514e-11
2.84603e-12
3.47758e-11
)
;
    }
    fixedWalls
    {
        type            calculated;
        value           nonuniform List<scalar> 
60
(
-4.98615e-06
1.40784e-06
-1.41406e-05
3.57506e-06
-1.3457e-05
1.48557e-05
-5.39763e-06
1.60491e-05
-7.81351e-06
7.07602e-06
5.69403e-06
-1.91666e-05
6.91108e-05
-0.000112198
0.000145535
-0.00012934
0.000187055
-4.65477e-05
0.000106761
-0.000188571
1.13299e-11
7.23705e-12
1.04083e-11
1.65341e-12
5.3397e-12
-5.77338e-12
-1.27394e-12
-1.34441e-11
-7.42678e-12
-1.88109e-11
-1.09504e-11
-1.92446e-11
-9.05309e-12
-1.19804e-11
3.25261e-13
3.52366e-12
1.31731e-11
2.09793e-11
3.15503e-11
3.47758e-11
-4.98615e-06
5.27582e-06
-1.4597e-06
5.30669e-07
-1.64161e-07
5.51195e-08
-1.7834e-08
5.57776e-09
-1.92701e-09
5.69304e-10
-1.95707e-10
6.91793e-11
-6.3945e-12
1.94289e-11
1.18056e-11
1.28882e-11
2.88014e-12
9.69344e-12
1.39514e-11
1.13299e-11
)
;
    }
    frontAndBack
    {
        type            empty;
    }
}


// ************************************************************************* //
