/*--------------------------------*- C++ -*----------------------------------*\
| =========                 |                                                 |
| \\      /  F ield         | OpenFOAM: The Open Source CFD Toolbox           |
|  \\    /   O peration     | Version:  2506                                  |
|   \\  /    A nd           | Website:  www.openfoam.com                      |
|    \\/     M anipulation  |                                                 |
\*---------------------------------------------------------------------------*/
FoamFile
{
    version     2.0;
    format      ascii;
    arch        "LSB;label=32;scalar=64";
    class       volScalarField;
    location    "3";
    object      turbulenceProperties:omega;
}
// * * * * * * * * * * * * * * * * * * * * * * * * * * * * * * * * * * * * * //

dimensions      [0 0 -1 0 0 0 0];

internalField   nonuniform List<scalar> 
400
(
14.0651
14.0648
14.0643
14.0644
14.0636
14.064
14.0632
14.0634
14.0629
14.063
14.0628
14.0627
14.0627
14.0625
14.0626
14.0624
14.0625
14.0624
14.0624
14.0624
18.3407
17.3574
17.4364
17.469
17.535
17.5704
17.6353
17.6732
17.7373
17.7775
17.8411
17.8831
17.9467
17.9902
18.0541
18.0989
18.1632
18.2093
18.2421
18.2975
23.7261
21.9425
22.0836
22.1415
22.2595
22.3235
22.4388
22.5081
22.6213
22.6954
22.8075
22.8852
22.9975
23.078
23.1912
23.2741
23.3879
23.4732
23.5317
23.6319
27.5343
25.0392
25.2324
25.3114
25.473
25.5618
25.7205
25.8163
25.9732
26.0758
26.2309
26.3398
26.4947
26.6086
26.7643
26.8823
27.0399
27.1617
27.2429
27.3835
29.7553
26.7979
27.0227
27.1156
27.3054
27.4093
27.5956
27.7084
27.893
28.0138
28.197
28.3253
28.5082
28.6429
28.827
28.9672
29.153
29.2988
29.3945
29.5614
30.9556
27.7351
27.9782
28.0784
28.2835
28.3965
28.5983
28.7207
28.9204
29.0522
29.2496
29.3904
29.5877
29.7357
29.9339
30.0882
30.2889
30.449
30.5527
30.7345
31.6257
28.2556
28.5115
28.6135
28.8279
28.9459
29.1564
29.284
29.4929
29.6294
29.8372
29.9825
30.1903
30.3434
30.552
30.7125
30.9226
31.0903
31.1986
31.3888
32.0416
28.5788
28.8412
28.9455
29.1656
29.2864
29.5023
29.6333
29.8473
29.9877
30.2009
30.35
30.5633
30.7205
30.9347
31.0996
31.3152
31.4878
31.599
31.7944
32.3446
28.8147
29.0811
29.1877
29.4118
29.5346
29.754
29.8881
30.1054
30.249
30.4655
30.618
30.8347
30.9954
31.2132
31.3817
31.601
31.7773
31.8905
32.0897
32.6034
29.0171
29.2839
29.395
29.6216
29.7462
29.9694
30.1049
30.3261
30.4721
30.6909
30.8472
31.0657
31.2305
31.4504
31.6226
31.8449
32.0243
32.1392
32.3416
32.8526
29.21
29.4852
29.5939
29.8246
29.9514
30.1771
30.3152
30.5387
30.6871
30.91
31.0674
31.2905
31.4566
31.6805
31.855
32.0806
32.2631
32.3796
32.5852
33.115
29.4164
29.6882
29.8042
30.037
30.1657
30.3952
30.535
30.7625
30.9126
31.139
31.2989
31.5252
31.6942
31.9211
32.0989
32.3276
32.5134
32.6317
32.8405
33.4025
29.6377
29.9198
30.0328
30.2705
30.4011
30.6339
30.7765
31.007
31.1604
31.3897
31.5531
31.7829
31.9551
32.1853
32.3667
32.5988
32.7882
32.9084
33.1209
33.7273
29.8894
30.1759
30.2913
30.5331
30.6662
30.9033
31.0483
31.2832
31.4394
31.6729
31.8399
32.0725
32.2494
32.4832
32.6685
32.905
33.0982
33.2206
33.4372
34.1013
30.1805
30.4652
30.5887
30.8344
30.9702
31.2123
31.3605
31.5997
31.7597
31.9979
32.1683
32.4065
32.5868
32.8255
33.0153
33.2562
33.4545
33.5793
33.8008
34.5394
30.5177
30.8082
30.9349
31.1862
31.3253
31.5729
31.7249
31.9701
32.1336
32.3782
32.5519
32.797
32.9806
33.2269
33.4202
33.6681
33.8711
33.9992
34.2263
35.0645
30.9205
31.2187
31.349
31.6072
31.7503
32.0049
32.1611
32.4135
32.5817
32.8331
33.0125
33.2639
33.454
33.7062
33.9067
34.1609
34.371
34.5026
34.7366
35.6966
31.4096
31.712
31.8496
32.1151
32.2623
32.5256
32.6862
32.9471
33.1207
33.3803
33.5658
33.8258
34.0223
34.2836
34.4908
34.7539
34.9718
35.1079
35.3502
36.3435
32.0516
32.3556
32.4805
32.7405
32.8856
33.1419
33.3031
33.5587
33.7347
33.9898
34.1806
34.4374
34.6414
34.9016
35.1174
35.3831
35.6105
35.7494
35.9996
36.4648
36.4626
36.4609
36.4609
36.4578
36.4594
36.456
36.4578
36.4549
36.4567
36.4544
36.4557
36.4544
36.4549
36.4545
36.4546
36.4545
36.4545
36.4545
36.4545
)
;

boundaryField
{
    movingWall
    {
        type            calculated;
        value           nonuniform List<scalar> 
20
(
36.4648
36.4626
36.4609
36.4609
36.4578
36.4594
36.456
36.4578
36.4549
36.4567
36.4544
36.4557
36.4544
36.4549
36.4545
36.4546
36.4545
36.4545
36.4545
36.4545
)
;
    }
    fixedWalls
    {
        type            calculated;
        value           nonuniform List<scalar> 
60
(
14.0651
18.3407
23.7261
27.5343
29.7553
30.9556
31.6257
32.0416
32.3446
32.6034
32.8526
33.115
33.4025
33.7273
34.1013
34.5394
35.0645
35.6966
36.3435
36.4648
14.0624
18.2975
23.6319
27.3835
29.5614
30.7345
31.3888
31.7944
32.0897
32.3416
32.5852
32.8405
33.1209
33.4372
33.8008
34.2263
34.7366
35.3502
35.9996
36.4545
14.0651
14.0648
14.0643
14.0644
14.0636
14.064
14.0632
14.0634
14.0629
14.063
14.0628
14.0627
14.0627
14.0625
14.0626
14.0624
14.0625
14.0624
14.0624
14.0624
)
;
    }
    frontAndBack
    {
        type            empty;
    }
}


// ************************************************************************* //
