/*--------------------------------*- C++ -*----------------------------------*\
| =========                 |                                                 |
| \\      /  F ield         | OpenFOAM: The Open Source CFD Toolbox           |
|  \\    /   O peration     | Version:  2506                                  |
|   \\  /    A nd           | Website:  www.openfoam.com                      |
|    \\/     M anipulation  |                                                 |
\*---------------------------------------------------------------------------*/
FoamFile
{
    version     2.0;
    format      ascii;
    arch        "LSB;label=32;scalar=64";
    class       volScalarField;
    location    "3";
    object      turbulenceProperties:I;
}
// * * * * * * * * * * * * * * * * * * * * * * * * * * * * * * * * * * * * * //

dimensions      [0 0 0 0 0 0 0];

internalField   nonuniform List<scalar> 
400
(
0.0064063
0.00640614
0.00640599
0.00640588
0.00640577
0.00640566
0.00640557
0.00640552
0.00640541
0.00640536
0.00640529
0.00640526
0.00640519
0.00640519
0.00640514
0.00640514
0.00640511
0.00640511
0.0064051
0.0064051
0.00831632
0.00831611
0.00831274
0.00831153
0.00830916
0.00830806
0.00830606
0.00830507
0.00830342
0.00830259
0.00830124
0.00830059
0.00829953
0.00829906
0.00829827
0.00829798
0.00829753
0.00829735
0.0082972
0.00829715
0.0107037
0.0107032
0.0106958
0.0106933
0.0106881
0.0106857
0.0106815
0.0106792
0.0106759
0.0106739
0.0106712
0.0106696
0.0106675
0.0106663
0.0106648
0.010664
0.0106632
0.0106627
0.0106624
0.0106623
0.0123871
0.0123863
0.0123746
0.0123705
0.0123626
0.0123586
0.0123519
0.0123484
0.0123429
0.0123399
0.0123355
0.012333
0.0123297
0.0123278
0.0123255
0.0123242
0.0123228
0.0123221
0.0123217
0.0123215
0.0133679
0.0133668
0.013352
0.0133468
0.0133365
0.0133315
0.0133229
0.0133186
0.0133113
0.0133077
0.0133018
0.0132989
0.0132944
0.0132922
0.013289
0.0132875
0.0132857
0.0132849
0.0132843
0.013284
0.013898
0.0138965
0.0138801
0.0138738
0.0138623
0.0138566
0.0138468
0.0138419
0.0138336
0.0138294
0.013823
0.0138194
0.0138146
0.0138118
0.0138085
0.0138066
0.0138046
0.0138036
0.0138029
0.0138026
0.014194
0.0141926
0.0141744
0.0141682
0.0141557
0.0141496
0.014139
0.0141338
0.0141248
0.0141207
0.0141133
0.01411
0.0141043
0.0141018
0.0140978
0.0140961
0.0140938
0.0140928
0.014092
0.0140917
0.0143773
0.0143759
0.0143569
0.0143504
0.0143374
0.014331
0.01432
0.0143146
0.0143053
0.0143009
0.0142932
0.0142898
0.0142838
0.0142812
0.014277
0.0142753
0.0142729
0.0142718
0.0142711
0.0142707
0.0145106
0.014509
0.0144897
0.0144829
0.0144694
0.0144629
0.0144517
0.0144459
0.0144365
0.0144318
0.0144241
0.0144204
0.0144144
0.0144116
0.0144074
0.0144055
0.0144031
0.014402
0.0144012
0.0144009
0.0146242
0.0146224
0.0146032
0.0145956
0.014582
0.0145754
0.0145637
0.014558
0.0145482
0.0145434
0.0145357
0.0145316
0.0145257
0.0145226
0.0145185
0.0145164
0.014514
0.0145129
0.0145121
0.0145117
0.014734
0.0147323
0.0147119
0.0147049
0.0146908
0.0146839
0.0146721
0.0146661
0.0146562
0.0146513
0.0146431
0.0146393
0.014633
0.0146301
0.0146257
0.0146236
0.0146212
0.01462
0.0146192
0.0146188
0.0148489
0.0148471
0.0148266
0.014819
0.0148047
0.0147977
0.0147855
0.0147795
0.0147692
0.0147643
0.0147559
0.014752
0.0147455
0.0147425
0.0147381
0.0147359
0.0147334
0.0147322
0.0147314
0.014731
0.0149753
0.0149734
0.014952
0.0149446
0.0149298
0.0149225
0.0149101
0.0149038
0.0148934
0.0148882
0.0148798
0.0148756
0.014869
0.0148659
0.0148614
0.0148591
0.0148566
0.0148553
0.0148545
0.0148541
0.0151177
0.0151159
0.0150938
0.0150861
0.0150709
0.0150634
0.0150506
0.0150442
0.0150334
0.0150281
0.0150194
0.015015
0.0150085
0.015005
0.0150006
0.0149982
0.0149955
0.0149943
0.0149934
0.014993
0.0152815
0.0152793
0.0152571
0.0152487
0.015233
0.0152254
0.015212
0.0152054
0.0151944
0.0151888
0.0151798
0.0151753
0.0151685
0.015165
0.0151604
0.0151578
0.0151552
0.0151538
0.0151529
0.0151525
0.0154731
0.0154709
0.015448
0.0154391
0.0154228
0.0154149
0.0154011
0.0153942
0.0153826
0.0153769
0.0153674
0.015363
0.0153556
0.0153524
0.0153471
0.0153449
0.0153419
0.0153406
0.0153396
0.0153392
0.0157032
0.0157007
0.0156767
0.0156675
0.0156504
0.0156421
0.0156276
0.0156204
0.0156083
0.0156024
0.0155924
0.0155878
0.0155801
0.0155765
0.0155713
0.0155687
0.0155658
0.0155643
0.0155633
0.0155629
0.0159787
0.0159759
0.0159514
0.0159411
0.0159233
0.0159146
0.0158992
0.0158919
0.0158789
0.0158728
0.0158623
0.0158574
0.0158493
0.0158457
0.0158399
0.0158374
0.0158342
0.0158327
0.0158317
0.0158312
0.016261
0.0162598
0.0162341
0.0162249
0.016207
0.0161984
0.0161832
0.0161757
0.0161628
0.0161565
0.0161462
0.0161408
0.0161329
0.0161288
0.0161233
0.0161204
0.0161172
0.0161156
0.0161145
0.0161141
0.0163158
0.0163147
0.0163143
0.0163137
0.0163134
0.016313
0.0163126
0.0163125
0.0163121
0.0163121
0.0163118
0.0163118
0.0163116
0.0163116
0.0163115
0.0163115
0.0163115
0.0163115
0.0163115
0.0163115
)
;

boundaryField
{
    movingWall
    {
        type            calculated;
        value           nonuniform List<scalar> 
20
(
0.0163158
0.0163147
0.0163143
0.0163137
0.0163134
0.016313
0.0163126
0.0163125
0.0163121
0.0163121
0.0163118
0.0163118
0.0163116
0.0163116
0.0163115
0.0163115
0.0163115
0.0163115
0.0163115
0.0163115
)
;
    }
    fixedWalls
    {
        type            calculated;
        value           nonuniform List<scalar> 
60
(
0.0064063
0.00831632
0.0107037
0.0123871
0.0133679
0.013898
0.014194
0.0143773
0.0145106
0.0146242
0.014734
0.0148489
0.0149752
0.0151177
0.0152814
0.0154732
0.0157031
0.0159787
0.016261
0.0163158
0.0064051
0.00829715
0.0106623
0.0123215
0.013284
0.0138026
0.0140917
0.0142707
0.0144009
0.0145117
0.0146188
0.014731
0.0148541
0.014993
0.0151525
0.0153392
0.0155629
0.0158312
0.0161141
0.0163115
0.0064063
0.00640614
0.00640599
0.00640588
0.00640577
0.00640566
0.00640557
0.00640552
0.00640541
0.00640536
0.00640529
0.00640526
0.00640519
0.00640519
0.00640514
0.00640514
0.00640511
0.00640511
0.0064051
0.0064051
)
;
    }
    frontAndBack
    {
        type            empty;
    }
}


// ************************************************************************* //
