/*--------------------------------*- C++ -*----------------------------------*\
| =========                 |                                                 |
| \\      /  F ield         | OpenFOAM: The Open Source CFD Toolbox           |
|  \\    /   O peration     | Version:  2506                                  |
|   \\  /    A nd           | Website:  www.openfoam.com                      |
|    \\/     M anipulation  |                                                 |
\*---------------------------------------------------------------------------*/
FoamFile
{
    version     2.0;
    format      ascii;
    arch        "LSB;label=32;scalar=64";
    class       volSymmTensorField;
    location    "3";
    object      turbulenceProperties:R;
}
// * * * * * * * * * * * * * * * * * * * * * * * * * * * * * * * * * * * * * //

dimensions      [0 2 -2 0 0 0 0];

internalField   nonuniform List<symmTensor> 
400
(
(4.10407e-05 -8.38789e-11 -0 4.10407e-05 -0 4.10407e-05)
(4.10386e-05 1.35486e-10 -0 4.10386e-05 -0 4.10386e-05)
(4.10368e-05 -3.07812e-11 -0 4.10368e-05 -0 4.10368e-05)
(4.10353e-05 7.4825e-12 -0 4.10353e-05 -0 4.10353e-05)
(4.10339e-05 -1.39685e-12 -0 4.10339e-05 -0 4.10339e-05)
(4.10325e-05 5.26748e-13 -0 4.10325e-05 -0 4.10325e-05)
(4.10313e-05 3.54234e-14 -0 4.10313e-05 -0 4.10313e-05)
(4.10307e-05 8.64146e-14 -0 4.10307e-05 -0 4.10307e-05)
(4.10293e-05 3.87878e-14 -0 4.10293e-05 -0 4.10293e-05)
(4.10287e-05 2.0698e-14 -0 4.10287e-05 -0 4.10287e-05)
(4.10277e-05 6.9244e-15 -0 4.10277e-05 -0 4.10277e-05)
(4.10274e-05 -1.32524e-15 -0 4.10274e-05 -0 4.10274e-05)
(4.10265e-05 -5.28955e-15 -0 4.10265e-05 -0 4.10265e-05)
(4.10265e-05 -6.60327e-15 -0 4.10265e-05 -0 4.10265e-05)
(4.10258e-05 -6.14171e-15 -0 4.10258e-05 -0 4.10258e-05)
(4.10258e-05 -4.79611e-15 -0 4.10258e-05 -0 4.10258e-05)
(4.10254e-05 -2.93347e-15 -0 4.10254e-05 -0 4.10254e-05)
(4.10255e-05 -9.39798e-16 -0 4.10255e-05 -0 4.10255e-05)
(4.10253e-05 1.94982e-16 -0 4.10253e-05 -0 4.10253e-05)
(4.10253e-05 1.92628e-17 -0 4.10253e-05 -0 4.10253e-05)
(6.91612e-05 1.98825e-10 -0 6.91611e-05 -0 6.91612e-05)
(6.91578e-05 -2.14983e-10 -0 6.91578e-05 -0 6.91578e-05)
(6.91016e-05 5.28916e-11 -0 6.91016e-05 -0 6.91016e-05)
(6.90815e-05 -1.28072e-11 -0 6.90815e-05 -0 6.90815e-05)
(6.90421e-05 3.24155e-12 -0 6.90421e-05 -0 6.90421e-05)
(6.90238e-05 -8.34045e-13 -0 6.90238e-05 -0 6.90238e-05)
(6.89906e-05 1.76773e-13 -0 6.89906e-05 -0 6.89906e-05)
(6.89742e-05 -8.63325e-14 -0 6.89742e-05 -0 6.89742e-05)
(6.89467e-05 -1.3863e-14 -0 6.89467e-05 -0 6.89467e-05)
(6.8933e-05 -2.64639e-14 -0 6.8933e-05 -0 6.8933e-05)
(6.89106e-05 -1.64645e-14 -0 6.89106e-05 -0 6.89106e-05)
(6.88997e-05 -1.31625e-14 -0 6.88997e-05 -0 6.88997e-05)
(6.88822e-05 -8.95714e-15 -0 6.88822e-05 -0 6.88822e-05)
(6.88743e-05 -5.93951e-15 -0 6.88743e-05 -0 6.88743e-05)
(6.88613e-05 -3.54726e-15 -0 6.88613e-05 -0 6.88613e-05)
(6.88564e-05 -1.88376e-15 -0 6.88564e-05 -0 6.88564e-05)
(6.88489e-05 -6.06723e-16 -0 6.88489e-05 -0 6.88489e-05)
(6.8846e-05 8.08518e-16 -0 6.8846e-05 -0 6.8846e-05)
(6.88436e-05 1.17818e-15 -0 6.88436e-05 -0 6.88436e-05)
(6.88426e-05 7.03897e-16 -0 6.88426e-05 -0 6.88426e-05)
(0.000114568 -1.73307e-10 -0 0.000114568 -0 0.000114568)
(0.000114558 2.72468e-10 -0 0.000114558 -0 0.000114558)
(0.000114401 -5.9405e-11 -0 0.000114401 -0 0.000114401)
(0.000114346 1.44799e-11 -0 0.000114346 -0 0.000114346)
(0.000114236 -3.24055e-12 -0 0.000114236 -0 0.000114236)
(0.000114183 6.58642e-13 -0 0.000114183 -0 0.000114183)
(0.000114094 -2.68429e-13 -0 0.000114094 -0 0.000114094)
(0.000114045 -4.11742e-14 -0 0.000114045 -0 0.000114045)
(0.000113974 -7.47249e-14 -0 0.000113974 -0 0.000113974)
(0.000113931 -4.78265e-14 -0 0.000113931 -0 0.000113931)
(0.000113875 -3.79131e-14 -0 0.000113875 -0 0.000113875)
(0.00011384 -2.68619e-14 -0 0.00011384 -0 0.00011384)
(0.000113796 -1.86087e-14 -0 0.000113796 -0 0.000113796)
(0.00011377 -1.19643e-14 -0 0.00011377 -0 0.00011377)
(0.000113738 -7.05673e-15 -0 0.000113738 -0 0.000113738)
(0.000113721 -3.5963e-15 -0 0.000113721 -0 0.000113721)
(0.000113704 -9.16889e-16 -0 0.000113704 -0 0.000113704)
(0.000113694 1.93034e-15 -0 0.000113694 -0 0.000113694)
(0.000113688 2.59631e-15 -0 0.000113688 -0 0.000113688)
(0.000113685 1.59311e-15 -0 0.000113685 -0 0.000113685)
(0.00015344 1.70025e-10 -0 0.000153439 -0 0.00015344)
(0.00015342 -3.29885e-10 -0 0.00015342 -0 0.00015342)
(0.000153131 6.56715e-11 -0 0.000153131 -0 0.000153131)
(0.00015303 -1.64655e-11 -0 0.00015303 -0 0.00015303)
(0.000152833 2.7739e-12 -0 0.000152833 -0 0.000152833)
(0.000152735 -9.27747e-13 -0 0.000152735 -0 0.000152735)
(0.00015257 -6.35536e-14 -0 0.00015257 -0 0.00015257)
(0.000152484 -1.6413e-13 -0 0.000152484 -0 0.000152484)
(0.000152346 -1.04183e-13 -0 0.000152346 -0 0.000152346)
(0.000152273 -7.906e-14 -0 0.000152273 -0 0.000152273)
(0.000152165 -5.81735e-14 -0 0.000152165 -0 0.000152165)
(0.000152104 -4.11314e-14 -0 0.000152104 -0 0.000152104)
(0.000152022 -2.80994e-14 -0 0.000152022 -0 0.000152022)
(0.000151974 -1.77839e-14 -0 0.000151974 -0 0.000151974)
(0.000151918 -1.02259e-14 -0 0.000151918 -0 0.000151918)
(0.000151886 -4.92681e-15 -0 0.000151886 -0 0.000151886)
(0.000151852 -9.43179e-16 -0 0.000151852 -0 0.000151852)
(0.000151835 3.47324e-15 -0 0.000151835 -0 0.000151835)
(0.000151824 4.51797e-15 -0 0.000151824 -0 0.000151824)
(0.000151819 2.76704e-15 -0 0.000151819 -0 0.000151819)
(0.000178701 -3.33388e-10 -0 0.000178701 -0 0.000178701)
(0.000178671 4.59307e-10 -0 0.000178671 -0 0.000178671)
(0.000178276 -1.0259e-10 -0 0.000178276 -0 0.000178276)
(0.000178136 2.52671e-11 -0 0.000178136 -0 0.000178136)
(0.000177863 -6.7809e-12 -0 0.000177863 -0 0.000177863)
(0.00017773 1.14749e-12 -0 0.00017773 -0 0.00017773)
(0.0001775 -6.93952e-13 -0 0.0001775 -0 0.0001775)
(0.000177385 -8.46543e-14 -0 0.000177385 -0 0.000177385)
(0.000177191 -1.70396e-13 -0 0.000177191 -0 0.000177191)
(0.000177095 -9.29454e-14 -0 0.000177095 -0 0.000177095)
(0.000176939 -7.60996e-14 -0 0.000176939 -0 0.000176939)
(0.000176861 -5.10885e-14 -0 0.000176861 -0 0.000176861)
(0.000176742 -3.50321e-14 -0 0.000176742 -0 0.000176742)
(0.000176683 -2.15631e-14 -0 0.000176683 -0 0.000176683)
(0.000176598 -1.19936e-14 -0 0.000176598 -0 0.000176598)
(0.000176559 -5.28732e-15 -0 0.000176559 -0 0.000176559)
(0.00017651 -1.93605e-16 -0 0.00017651 -0 0.00017651)
(0.000176488 5.50015e-15 -0 0.000176488 -0 0.000176488)
(0.000176471 6.70658e-15 -0 0.000176471 -0 0.000176471)
(0.000176465 4.17183e-15 -0 0.000176465 -0 0.000176465)
(0.000193154 6.50499e-11 -0 0.000193153 -0 0.000193154)
(0.000193114 -4.47044e-10 -0 0.000193114 -0 0.000193114)
(0.000192657 7.23927e-11 -0 0.000192657 -0 0.000192657)
(0.000192483 -1.8099e-11 -0 0.000192483 -0 0.000192483)
(0.000192165 1.64127e-12 -0 0.000192165 -0 0.000192165)
(0.000192005 -6.8105e-13 -0 0.000192005 -0 0.000192005)
(0.000191733 -3.05741e-13 -0 0.000191733 -0 0.000191733)
(0.000191598 -1.76449e-13 -0 0.000191598 -0 0.000191598)
(0.00019137 -1.68969e-13 -0 0.00019137 -0 0.00019137)
(0.000191253 -1.07199e-13 -0 0.000191253 -0 0.000191253)
(0.000191076 -8.34968e-14 -0 0.000191076 -0 0.000191076)
(0.000190977 -5.63663e-14 -0 0.000190977 -0 0.000190977)
(0.000190842 -3.79373e-14 -0 0.000190842 -0 0.000190842)
(0.000190766 -2.27126e-14 -0 0.000190766 -0 0.000190766)
(0.000190673 -1.18658e-14 -0 0.000190673 -0 0.000190673)
(0.000190621 -4.35262e-15 -0 0.000190621 -0 0.000190621)
(0.000190567 1.26797e-15 -0 0.000190567 -0 0.000190567)
(0.000190539 7.89009e-15 -0 0.000190539 -0 0.000190539)
(0.00019052 9.21076e-15 -0 0.00019052 -0 0.00019052)
(0.000190512 5.76647e-15 -0 0.000190512 -0 0.000190512)
(0.000201468 -2.67635e-10 -0 0.000201469 -0 0.000201468)
(0.00020143 6.45858e-10 -0 0.000201429 -0 0.000201429)
(0.000200913 -1.23351e-10 -0 0.000200913 -0 0.000200913)
(0.000200738 3.03407e-11 -0 0.000200738 -0 0.000200738)
(0.000200385 -6.14082e-12 -0 0.000200385 -0 0.000200385)
(0.00020021 9.65537e-13 -0 0.00020021 -0 0.00020021)
(0.000199912 -5.44597e-13 -0 0.000199912 -0 0.000199912)
(0.000199765 -1.47955e-13 -0 0.000199765 -0 0.000199765)
(0.000199511 -1.64418e-13 -0 0.000199511 -0 0.000199511)
(0.000199393 -1.09895e-13 -0 0.000199393 -0 0.000199393)
(0.000199186 -8.18654e-14 -0 0.000199186 -0 0.000199186)
(0.000199092 -5.63246e-14 -0 0.000199092 -0 0.000199092)
(0.000198932 -3.65919e-14 -0 0.000198932 -0 0.000198932)
(0.000198861 -2.10509e-14 -0 0.000198861 -0 0.000198861)
(0.000198748 -9.77881e-15 -0 0.000198748 -0 0.000198748)
(0.000198699 -2.16272e-15 -0 0.000198699 -0 0.000198699)
(0.000198635 3.62094e-15 -0 0.000198635 -0 0.000198635)
(0.000198607 1.0739e-14 -0 0.000198607 -0 0.000198607)
(0.000198586 1.19161e-14 -0 0.000198586 -0 0.000198586)
(0.000198577 7.54238e-15 -0 0.000198577 -0 0.000198577)
(0.000206708 3.45119e-10 -0 0.000206706 -0 0.000206707)
(0.000206665 -8.22062e-10 -0 0.000206665 -0 0.000206665)
(0.000206121 1.54376e-10 -0 0.000206121 -0 0.000206121)
(0.000205935 -3.9027e-11 -0 0.000205935 -0 0.000205935)
(0.000205561 6.97777e-12 -0 0.000205561 -0 0.000205561)
(0.000205378 -1.83653e-12 -0 0.000205378 -0 0.000205378)
(0.000205063 1.24664e-13 -0 0.000205063 -0 0.000205063)
(0.000204908 -2.38198e-13 -0 0.000204908 -0 0.000204908)
(0.000204641 -1.23253e-13 -0 0.000204641 -0 0.000204641)
(0.000204515 -1.05527e-13 -0 0.000204515 -0 0.000204515)
(0.000204296 -7.35334e-14 -0 0.000204296 -0 0.000204296)
(0.000204198 -5.07488e-14 -0 0.000204198 -0 0.000204198)
(0.000204027 -3.15423e-14 -0 0.000204027 -0 0.000204027)
(0.000203954 -1.66489e-14 -0 0.000203954 -0 0.000203954)
(0.000203833 -5.83073e-15 -0 0.000203833 -0 0.000203833)
(0.000203783 1.30088e-15 -0 0.000203783 -0 0.000203783)
(0.000203714 6.66136e-15 -0 0.000203714 -0 0.000203714)
(0.000203686 1.3882e-14 -0 0.000203686 -0 0.000203686)
(0.000203663 1.48458e-14 -0 0.000203663 -0 0.000203663)
(0.000203654 9.4623e-15 -0 0.000203654 -0 0.000203654)
(0.000210557 -2.97697e-10 -0 0.000210559 -0 0.000210558)
(0.000210513 1.04167e-09 -0 0.000210511 -0 0.000210512)
(0.000209951 -1.85172e-10 -0 0.000209951 -0 0.000209951)
(0.000209754 4.55617e-11 -0 0.000209754 -0 0.000209754)
(0.000209365 -7.80052e-12 -0 0.000209365 -0 0.000209365)
(0.000209176 1.27607e-12 -0 0.000209175 -0 0.000209175)
(0.000208851 -4.34609e-13 -0 0.000208851 -0 0.000208851)
(0.000208685 -1.44568e-13 -0 0.000208685 -0 0.000208685)
(0.000208413 -1.15257e-13 -0 0.000208413 -0 0.000208413)
(0.000208277 -8.94127e-14 -0 0.000208277 -0 0.000208277)
(0.000208054 -5.95536e-14 -0 0.000208054 -0 0.000208054)
(0.000207948 -4.06372e-14 -0 0.000207948 -0 0.000207948)
(0.000207774 -2.2969e-14 -0 0.000207774 -0 0.000207774)
(0.000207696 -9.80001e-15 -0 0.000207696 -0 0.000207696)
(0.000207572 -2.05054e-16 -0 0.000207572 -0 0.000207572)
(0.000207518 5.81641e-15 -0 0.000207518 -0 0.000207518)
(0.000207448 1.03821e-14 -0 0.000207448 -0 0.000207448)
(0.000207417 1.73162e-14 -0 0.000207417 -0 0.000207417)
(0.000207394 1.78555e-14 -0 0.000207394 -0 0.000207394)
(0.000207385 1.14601e-14 -0 0.000207385 -0 0.000207385)
(0.000213868 5.10074e-10 -0 0.000213865 -0 0.000213867)
(0.000213812 -1.4057e-09 -0 0.000213814 -0 0.000213814)
(0.000213253 2.61223e-10 -0 0.000213253 -0 0.000213253)
(0.000213033 -6.44408e-11 -0 0.000213033 -0 0.000213033)
(0.000212636 1.11586e-11 -0 0.000212635 -0 0.000212635)
(0.000212442 -2.61826e-12 -0 0.000212442 -0 0.000212442)
(0.000212102 3.04939e-13 -0 0.000212102 -0 0.000212102)
(0.000211936 -1.65457e-13 -0 0.000211936 -0 0.000211936)
(0.00021165 -7.75995e-14 -0 0.00021165 -0 0.00021165)
(0.00021151 -6.2304e-14 -0 0.00021151 -0 0.00021151)
(0.000211285 -4.33368e-14 -0 0.000211285 -0 0.000211285)
(0.000211167 -2.54541e-14 -0 0.000211167 -0 0.000211167)
(0.000210997 -1.17618e-14 -0 0.000210997 -0 0.000210997)
(0.000210907 -6.80486e-16 -0 0.000210907 -0 0.000210907)
(0.000210787 6.82506e-15 -0 0.000210787 -0 0.000210787)
(0.000210727 1.12604e-14 -0 0.000210727 -0 0.000210727)
(0.000210656 1.45313e-14 -0 0.000210656 -0 0.000210656)
(0.000210624 2.0791e-14 -0 0.000210624 -0 0.000210624)
(0.0002106 2.0844e-14 -0 0.0002106 -0 0.0002106)
(0.000210591 1.34481e-14 -0 0.000210591 -0 0.000210591)
(0.000217088 -7.93964e-10 -0 0.000217092 -0 0.00021709)
(0.000217044 1.88879e-09 -0 0.000217041 -0 0.000217041)
(0.000216439 -3.68022e-10 -0 0.000216439 -0 0.000216439)
(0.000216233 8.82706e-11 -0 0.000216233 -0 0.000216233)
(0.000215819 -1.72101e-11 -0 0.000215819 -0 0.000215819)
(0.000215616 3.28649e-12 -0 0.000215616 -0 0.000215616)
(0.00021527 -8.71731e-13 -0 0.00021527 -0 0.00021527)
(0.000215094 9.6475e-15 -0 0.000215094 -0 0.000215094)
(0.000214805 -7.84313e-14 -0 0.000214805 -0 0.000214805)
(0.00021466 -3.63728e-14 -0 0.00021466 -0 0.00021466)
(0.000214422 -1.9798e-14 -0 0.000214422 -0 0.000214422)
(0.000214309 -7.89875e-15 -0 0.000214309 -0 0.000214309)
(0.000214124 2.61905e-15 -0 0.000214124 -0 0.000214124)
(0.000214039 1.01282e-14 -0 0.000214039 -0 0.000214039)
(0.000213911 1.50392e-14 -0 0.000213911 -0 0.000213911)
(0.000213851 1.72913e-14 -0 0.000213851 -0 0.000213851)
(0.000213778 1.89268e-14 -0 0.000213778 -0 0.000213778)
(0.000213744 2.41977e-14 -0 0.000213744 -0 0.000213744)
(0.00021372 2.3641e-14 -0 0.00021372 -0 0.00021372)
(0.00021371 1.52935e-14 -0 0.00021371 -0 0.00021371)
(0.000220493 1.15127e-09 -0 0.000220488 -0 0.00022049)
(0.000220433 -2.44896e-09 -0 0.000220437 -0 0.000220436)
(0.00021983 4.85988e-10 -0 0.000219829 -0 0.000219829)
(0.000219604 -1.1789e-10 -0 0.000219604 -0 0.000219604)
(0.000219179 2.20573e-11 -0 0.000219179 -0 0.000219179)
(0.000218972 -4.99833e-12 -0 0.000218972 -0 0.000218972)
(0.00021861 8.80484e-13 -0 0.00021861 -0 0.00021861)
(0.000218433 -1.82007e-13 -0 0.000218433 -0 0.000218433)
(0.000218129 1.05277e-14 -0 0.000218129 -0 0.000218129)
(0.000217984 -3.43367e-15 -0 0.000217984 -0 0.000217984)
(0.000217736 6.09977e-15 -0 0.000217736 -0 0.000217736)
(0.000217621 1.45334e-14 -0 0.000217621 -0 0.000217621)
(0.00021743 1.8884e-14 -0 0.00021743 -0 0.00021743)
(0.000217342 2.26418e-14 -0 0.000217342 -0 0.000217342)
(0.000217211 2.40205e-14 -0 0.000217211 -0 0.000217211)
(0.000217147 2.37013e-14 -0 0.000217147 -0 0.000217147)
(0.000217073 2.33274e-14 -0 0.000217073 -0 0.000217073)
(0.000217038 2.72358e-14 -0 0.000217038 -0 0.000217038)
(0.000217013 2.601e-14 -0 0.000217013 -0 0.000217013)
(0.000217003 1.68699e-14 -0 0.000217003 -0 0.000217003)
(0.000224254 -1.81294e-09 -0 0.00022426 -0 0.000224258)
(0.000224206 3.14222e-09 -0 0.000224201 -0 0.000224202)
(0.000223563 -6.6353e-10 -0 0.000223564 -0 0.000223563)
(0.00022334 1.59049e-10 -0 0.00022334 -0 0.00022334)
(0.000222897 -3.20485e-11 -0 0.000222898 -0 0.000222898)
(0.000222682 7.36011e-12 -0 0.000222682 -0 0.000222682)
(0.000222312 -1.50289e-12 -0 0.000222312 -0 0.000222312)
(0.000222124 3.01343e-13 -0 0.000222124 -0 0.000222124)
(0.000221815 -3.70046e-14 -0 0.000221815 -0 0.000221815)
(0.000221659 4.6769e-14 -0 0.000221659 -0 0.000221659)
(0.000221408 3.78172e-14 -0 0.000221408 -0 0.000221408)
(0.000221283 3.95589e-14 -0 0.000221283 -0 0.000221283)
(0.000221088 3.78973e-14 -0 0.000221088 -0 0.000221088)
(0.000220995 3.60304e-14 -0 0.000220995 -0 0.000220995)
(0.000220862 3.33996e-14 -0 0.000220862 -0 0.000220862)
(0.000220794 2.99563e-14 -0 0.000220794 -0 0.000220794)
(0.00022072 2.72845e-14 -0 0.00022072 -0 0.00022072)
(0.000220681 2.96688e-14 -0 0.000220681 -0 0.000220681)
(0.000220657 2.7785e-14 -0 0.000220657 -0 0.000220657)
(0.000220646 1.79903e-14 -0 0.000220646 -0 0.000220646)
(0.000228548 2.42535e-09 -0 0.000228544 -0 0.000228545)
(0.000228486 -3.63912e-09 -0 0.000228491 -0 0.000228491)
(0.000227823 8.30869e-10 -0 0.000227822 -0 0.000227822)
(0.000227591 -1.90749e-10 -0 0.000227592 -0 0.000227591)
(0.000227131 4.16452e-11 -0 0.000227131 -0 0.000227131)
(0.000226907 -9.32987e-12 -0 0.000226907 -0 0.000226907)
(0.000226521 1.91033e-12 -0 0.000226521 -0 0.000226521)
(0.000226328 -3.25168e-13 -0 0.000226328 -0 0.000226328)
(0.000226004 1.5363e-13 -0 0.000226004 -0 0.000226004)
(0.000225843 7.572e-14 -0 0.000225843 -0 0.000225843)
(0.000225582 7.96103e-14 -0 0.000225582 -0 0.000225582)
(0.00022545 6.88477e-14 -0 0.00022545 -0 0.00022545)
(0.000225256 5.80678e-14 -0 0.000225256 -0 0.000225256)
(0.000225151 4.99759e-14 -0 0.000225151 -0 0.000225151)
(0.000225017 4.23353e-14 -0 0.000225017 -0 0.000225017)
(0.000224945 3.55807e-14 -0 0.000224945 -0 0.000224945)
(0.000224866 3.05647e-14 -0 0.000224866 -0 0.000224866)
(0.000224828 3.11948e-14 -0 0.000224828 -0 0.000224828)
(0.000224802 2.85967e-14 -0 0.000224802 -0 0.000224802)
(0.00022479 1.85117e-14 -0 0.00022479 -0 0.00022479)
(0.000233519 -3.12077e-09 -0 0.000233524 -0 0.000233523)
(0.000233461 4.08742e-09 -0 0.000233456 -0 0.000233456)
(0.000232779 -9.95995e-10 -0 0.00023278 -0 0.00023278)
(0.000232524 2.27445e-10 -0 0.000232524 -0 0.000232524)
(0.000232043 -5.66123e-11 -0 0.000232043 -0 0.000232043)
(0.000231812 1.28128e-11 -0 0.000231812 -0 0.000231812)
(0.000231406 -3.02292e-12 -0 0.000231406 -0 0.000231406)
(0.000231205 9.10171e-13 -0 0.000231205 -0 0.000231205)
(0.000230869 -1.97022e-15 -0 0.000230869 -0 0.000230869)
(0.000230699 1.9791e-13 -0 0.000230699 -0 0.000230699)
(0.000230426 1.16217e-13 -0 0.000230426 -0 0.000230426)
(0.000230291 1.02983e-13 -0 0.000230291 -0 0.000230291)
(0.000230082 7.81985e-14 -0 0.000230082 -0 0.000230082)
(0.000229977 6.26992e-14 -0 0.000229977 -0 0.000229977)
(0.000229837 4.98114e-14 -0 0.000229837 -0 0.000229837)
(0.00022976 3.96952e-14 -0 0.00022976 -0 0.00022976)
(0.000229681 3.23697e-14 -0 0.000229681 -0 0.000229681)
(0.000229638 3.14028e-14 -0 0.000229638 -0 0.000229638)
(0.000229612 2.83241e-14 -0 0.000229612 -0 0.000229612)
(0.0002296 1.82371e-14 -0 0.0002296 -0 0.0002296)
(0.000239421 2.60501e-09 -0 0.000239418 -0 0.000239418)
(0.000239345 -4.09038e-09 -0 0.000239349 -0 0.000239349)
(0.00023864 9.47371e-10 -0 0.00023864 -0 0.00023864)
(0.000238367 -2.16065e-10 -0 0.000238367 -0 0.000238367)
(0.000237863 4.86396e-11 -0 0.000237863 -0 0.000237863)
(0.000237619 -1.04892e-11 -0 0.000237619 -0 0.000237619)
(0.000237193 2.56927e-12 -0 0.000237193 -0 0.000237193)
(0.000236981 -1.23063e-13 -0 0.000236981 -0 0.000236981)
(0.000236625 3.81238e-13 -0 0.000236625 -0 0.000236625)
(0.00023645 2.28278e-13 -0 0.00023645 -0 0.00023645)
(0.000236158 1.79466e-13 -0 0.000236158 -0 0.000236158)
(0.000236023 1.32101e-13 -0 0.000236023 -0 0.000236023)
(0.000235795 9.58516e-14 -0 0.000235795 -0 0.000235795)
(0.000235695 7.1923e-14 -0 0.000235695 -0 0.000235695)
(0.000235534 5.41514e-14 -0 0.000235534 -0 0.000235534)
(0.000235465 4.12603e-14 -0 0.000235465 -0 0.000235465)
(0.000235373 3.22993e-14 -0 0.000235373 -0 0.000235373)
(0.000235334 2.99097e-14 -0 0.000235334 -0 0.000235334)
(0.000235304 2.6504e-14 -0 0.000235304 -0 0.000235304)
(0.000235292 1.70596e-14 -0 0.000235292 -0 0.000235292)
(0.000246585 -4.64287e-09 -0 0.00024659 -0 0.00024659)
(0.000246517 4.85257e-09 -0 0.00024651 -0 0.000246511)
(0.000245758 -1.26993e-09 -0 0.000245759 -0 0.000245759)
(0.000245471 2.97453e-10 -0 0.00024547 -0 0.00024547)
(0.000244934 -7.74261e-11 -0 0.000244935 -0 0.000244935)
(0.000244675 2.00736e-11 -0 0.000244675 -0 0.000244675)
(0.000244222 -4.08263e-12 -0 0.000244222 -0 0.000244222)
(0.000243998 1.9593e-12 -0 0.000243998 -0 0.000243998)
(0.000243619 1.67884e-13 -0 0.000243619 -0 0.000243619)
(0.000243434 4.1803e-13 -0 0.000243434 -0 0.000243434)
(0.000243124 2.02427e-13 -0 0.000243124 -0 0.000243124)
(0.000242978 1.57257e-13 -0 0.000242978 -0 0.000242978)
(0.000242741 1.02818e-13 -0 0.000242741 -0 0.000242741)
(0.000242629 7.40863e-14 -0 0.000242629 -0 0.000242629)
(0.000242465 5.30875e-14 -0 0.000242465 -0 0.000242465)
(0.000242385 3.88814e-14 -0 0.000242385 -0 0.000242385)
(0.000242293 2.92041e-14 -0 0.000242293 -0 0.000242293)
(0.000242248 2.62677e-14 -0 0.000242248 -0 0.000242248)
(0.000242218 2.32554e-14 -0 0.000242218 -0 0.000242218)
(0.000242205 1.48869e-14 -0 0.000242205 -0 0.000242205)
(0.000255319 4.67029e-09 -0 0.000255318 -0 0.000255318)
(0.000255229 -5.03805e-09 -0 0.00025523 -0 0.00025523)
(0.000254448 1.33021e-09 -0 0.000254448 -0 0.000254447)
(0.000254119 -3.05986e-10 -0 0.000254119 -0 0.000254119)
(0.00025355 8.90144e-11 -0 0.00025355 -0 0.00025355)
(0.000253276 -1.78616e-11 -0 0.000253276 -0 0.000253276)
(0.000252785 7.52691e-12 -0 0.000252785 -0 0.000252785)
(0.000252551 -4.12391e-13 -0 0.000252551 -0 0.000252551)
(0.000252141 1.04359e-12 -0 0.000252141 -0 0.000252141)
(0.000251945 2.6699e-13 -0 0.000251945 -0 0.000251945)
(0.000251613 2.662e-13 -0 0.000251613 -0 0.000251613)
(0.000251458 1.3985e-13 -0 0.000251458 -0 0.000251458)
(0.000251201 1.00389e-13 -0 0.000251201 -0 0.000251201)
(0.000251085 6.56355e-14 -0 0.000251085 -0 0.000251085)
(0.000250903 4.65401e-14 -0 0.000250903 -0 0.000250903)
(0.000250824 3.28958e-14 -0 0.000250824 -0 0.000250824)
(0.000250721 2.44448e-14 -0 0.000250721 -0 0.000250721)
(0.000250675 2.12657e-14 -0 0.000250675 -0 0.000250675)
(0.000250642 1.84129e-14 -0 0.000250642 -0 0.000250642)
(0.000250628 1.16599e-14 -0 0.000250628 -0 0.000250628)
(0.000264419 -9.55411e-10 -0 0.000264422 -0 0.000264421)
(0.000264383 3.86222e-09 -0 0.000264379 -0 0.000264379)
(0.000263546 -7.49592e-10 -0 0.000263547 -0 0.000263547)
(0.000263246 1.69477e-10 -0 0.000263246 -0 0.000263246)
(0.000262667 -1.62888e-11 -0 0.000262668 -0 0.000262668)
(0.000262388 7.03841e-12 -0 0.000262388 -0 0.000262388)
(0.000261897 2.67155e-12 -0 0.000261897 -0 0.000261897)
(0.000261653 6.05766e-13 -0 0.000261653 -0 0.000261653)
(0.000261236 7.75385e-13 -0 0.000261236 -0 0.000261236)
(0.000261032 2.24315e-13 -0 0.000261032 -0 0.000261032)
(0.000260699 2.12889e-13 -0 0.000260699 -0 0.000260699)
(0.000260526 1.01073e-13 -0 0.000260526 -0 0.000260526)
(0.000260272 7.49205e-14 -0 0.000260272 -0 0.000260272)
(0.000260137 4.64186e-14 -0 0.000260137 -0 0.000260137)
(0.00025996 3.3224e-14 -0 0.00025996 -0 0.00025996)
(0.000259867 2.32747e-14 -0 0.000259867 -0 0.000259867)
(0.000259763 1.70472e-14 -0 0.000259763 -0 0.000259763)
(0.000259713 1.41073e-14 -0 0.000259713 -0 0.000259713)
(0.000259678 1.20887e-14 -0 0.000259678 -0 0.000259678)
(0.000259663 7.56249e-15 -0 0.000259663 -0 0.000259663)
(0.00026621 1.82784e-09 -0 0.000266205 -0 0.000266206)
(0.000266164 -3.79131e-09 -0 0.00026617 -0 0.00026617)
(0.000266157 9.92553e-10 -0 0.000266156 -0 0.000266156)
(0.000266137 -2.34029e-10 -0 0.000266138 -0 0.000266138)
(0.000266126 5.65871e-11 -0 0.000266126 -0 0.000266126)
(0.000266113 -1.70553e-11 -0 0.000266113 -0 0.000266113)
(0.000266101 2.06152e-12 -0 0.000266101 -0 0.000266101)
(0.000266097 -1.99766e-12 -0 0.000266097 -0 0.000266097)
(0.000266085 -4.98686e-13 -0 0.000266085 -0 0.000266085)
(0.000266084 -5.79661e-13 -0 0.000266084 -0 0.000266084)
(0.000266074 -3.64102e-13 -0 0.000266074 -0 0.000266074)
(0.000266074 -2.79857e-13 -0 0.000266074 -0 0.000266074)
(0.000266068 -1.98569e-13 -0 0.000266068 -0 0.000266068)
(0.000266068 -1.40613e-13 -0 0.000266068 -0 0.000266068)
(0.000266066 -9.43235e-14 -0 0.000266066 -0 0.000266066)
(0.000266065 -5.95274e-14 -0 0.000266065 -0 0.000266065)
(0.000266065 -3.37516e-14 -0 0.000266065 -0 0.000266065)
(0.000266064 -1.33182e-14 -0 0.000266064 -0 0.000266064)
(0.000266064 4.31258e-16 -0 0.000266064 -0 0.000266064)
(0.000266064 2.54448e-15 -0 0.000266064 -0 0.000266064)
)
;

boundaryField
{
    movingWall
    {
        type            kqRWallFunction;
        value           nonuniform List<symmTensor> 
20
(
(0.000266207 -0 -0 0.000266207 -0 0.000266207)
(0.000266168 -0 -0 0.000266168 -0 0.000266168)
(0.000266156 -0 -0 0.000266156 -0 0.000266156)
(0.000266138 0 -0 0.000266138 -0 0.000266138)
(0.000266126 -0 -0 0.000266126 -0 0.000266126)
(0.000266113 0 -0 0.000266113 -0 0.000266113)
(0.000266101 -0 -0 0.000266101 -0 0.000266101)
(0.000266097 -0 -0 0.000266097 -0 0.000266097)
(0.000266085 -0 -0 0.000266085 -0 0.000266085)
(0.000266084 -0 -0 0.000266084 -0 0.000266084)
(0.000266074 -0 -0 0.000266074 -0 0.000266074)
(0.000266074 -0 -0 0.000266074 -0 0.000266074)
(0.000266068 -0 -0 0.000266068 -0 0.000266068)
(0.000266068 -0 -0 0.000266068 -0 0.000266068)
(0.000266066 -0 -0 0.000266066 -0 0.000266066)
(0.000266065 -0 -0 0.000266065 -0 0.000266065)
(0.000266065 -0 -0 0.000266065 -0 0.000266065)
(0.000266064 -0 -0 0.000266064 -0 0.000266064)
(0.000266064 -0 -0 0.000266064 -0 0.000266064)
(0.000266064 0 -0 0.000266064 -0 0.000266064)
)
;
    }
    fixedWalls
    {
        type            kqRWallFunction;
        value           nonuniform List<symmTensor> 
60
(
(4.10407e-05 -0 -0 4.10407e-05 -0 4.10407e-05)
(6.91612e-05 0 -0 6.91612e-05 -0 6.91612e-05)
(0.000114568 -0 -0 0.000114568 -0 0.000114568)
(0.00015344 0 -0 0.00015344 -0 0.00015344)
(0.000178701 -0 -0 0.000178701 -0 0.000178701)
(0.000193153 0 -0 0.000193153 -0 0.000193153)
(0.000201468 -0 -0 0.000201468 -0 0.000201468)
(0.000206707 0 -0 0.000206707 -0 0.000206707)
(0.000210558 -0 -0 0.000210558 -0 0.000210558)
(0.000213867 0 -0 0.000213867 -0 0.000213867)
(0.00021709 -0 -0 0.00021709 -0 0.00021709)
(0.00022049 0 -0 0.00022049 -0 0.00022049)
(0.000224257 -0 -0 0.000224257 -0 0.000224257)
(0.000228546 0 -0 0.000228546 -0 0.000228546)
(0.000233522 -0 -0 0.000233522 -0 0.000233522)
(0.000239419 0 -0 0.000239419 -0 0.000239419)
(0.000246588 -0 -0 0.000246588 -0 0.000246588)
(0.000255318 0 -0 0.000255318 -0 0.000255318)
(0.000264421 -0 -0 0.000264421 -0 0.000264421)
(0.000266207 0 -0 0.000266207 -0 0.000266207)
(4.10253e-05 0 -0 4.10253e-05 -0 4.10253e-05)
(6.88426e-05 0 -0 6.88426e-05 -0 6.88426e-05)
(0.000113685 0 -0 0.000113685 -0 0.000113685)
(0.000151819 0 -0 0.000151819 -0 0.000151819)
(0.000176465 0 -0 0.000176465 -0 0.000176465)
(0.000190512 0 -0 0.000190512 -0 0.000190512)
(0.000198577 0 -0 0.000198577 -0 0.000198577)
(0.000203654 0 -0 0.000203654 -0 0.000203654)
(0.000207385 0 -0 0.000207385 -0 0.000207385)
(0.000210591 0 -0 0.000210591 -0 0.000210591)
(0.00021371 0 -0 0.00021371 -0 0.00021371)
(0.000217003 0 -0 0.000217003 -0 0.000217003)
(0.000220646 0 -0 0.000220646 -0 0.000220646)
(0.00022479 0 -0 0.00022479 -0 0.00022479)
(0.0002296 0 -0 0.0002296 -0 0.0002296)
(0.000235292 0 -0 0.000235292 -0 0.000235292)
(0.000242205 0 -0 0.000242205 -0 0.000242205)
(0.000250628 0 -0 0.000250628 -0 0.000250628)
(0.000259663 0 -0 0.000259663 -0 0.000259663)
(0.000266064 0 -0 0.000266064 -0 0.000266064)
(4.10407e-05 -0 -0 4.10407e-05 -0 4.10407e-05)
(4.10386e-05 0 -0 4.10386e-05 -0 4.10386e-05)
(4.10368e-05 -0 -0 4.10368e-05 -0 4.10368e-05)
(4.10353e-05 0 -0 4.10353e-05 -0 4.10353e-05)
(4.10339e-05 -0 -0 4.10339e-05 -0 4.10339e-05)
(4.10325e-05 0 -0 4.10325e-05 -0 4.10325e-05)
(4.10313e-05 0 -0 4.10313e-05 -0 4.10313e-05)
(4.10307e-05 0 -0 4.10307e-05 -0 4.10307e-05)
(4.10293e-05 0 -0 4.10293e-05 -0 4.10293e-05)
(4.10287e-05 0 -0 4.10287e-05 -0 4.10287e-05)
(4.10277e-05 0 -0 4.10277e-05 -0 4.10277e-05)
(4.10274e-05 0 -0 4.10274e-05 -0 4.10274e-05)
(4.10265e-05 -0 -0 4.10265e-05 -0 4.10265e-05)
(4.10265e-05 -0 -0 4.10265e-05 -0 4.10265e-05)
(4.10258e-05 -0 -0 4.10258e-05 -0 4.10258e-05)
(4.10258e-05 -0 -0 4.10258e-05 -0 4.10258e-05)
(4.10254e-05 -0 -0 4.10254e-05 -0 4.10254e-05)
(4.10255e-05 -0 -0 4.10255e-05 -0 4.10255e-05)
(4.10253e-05 0 -0 4.10253e-05 -0 4.10253e-05)
(4.10253e-05 -0 -0 4.10253e-05 -0 4.10253e-05)
)
;
    }
    frontAndBack
    {
        type            empty;
    }
}


// ************************************************************************* //
