/*--------------------------------*- C++ -*----------------------------------*\
| =========                 |                                                 |
| \\      /  F ield         | OpenFOAM: The Open Source CFD Toolbox           |
|  \\    /   O peration     | Version:  2506                                  |
|   \\  /    A nd           | Website:  www.openfoam.com                      |
|    \\/     M anipulation  |                                                 |
\*---------------------------------------------------------------------------*/
FoamFile
{
    version     2.0;
    format      ascii;
    arch        "LSB;label=32;scalar=64";
    class       volScalarField;
    location    "3";
    object      turbulenceProperties:L;
}
// * * * * * * * * * * * * * * * * * * * * * * * * * * * * * * * * * * * * * //

dimensions      [0 1 0 0 0 0 0];

internalField   nonuniform List<scalar> 
400
(
0.00101847
0.00101847
0.00101848
0.00101846
0.0010185
0.00101845
0.00101849
0.00101847
0.00101849
0.00101847
0.00101848
0.00101848
0.00101847
0.00101849
0.00101847
0.00101848
0.00101848
0.00101848
0.00101848
0.00101848
0.00101391
0.00107132
0.00106604
0.00106389
0.00105959
0.00105731
0.00105317
0.00105078
0.00104678
0.00104431
0.00104041
0.00103789
0.00103408
0.00103152
0.00102777
0.00102519
0.00102151
0.0010189
0.00101705
0.00101396
0.00100877
0.00109072
0.00108301
0.00107991
0.00107367
0.00107034
0.00106443
0.00106092
0.00105529
0.00105165
0.00104622
0.0010425
0.00103721
0.00103348
0.00102829
0.00102455
0.00101948
0.00101574
0.00101318
0.00100888
0.00100596
0.00110613
0.00109662
0.00109284
0.00108521
0.00108109
0.00107384
0.00106955
0.00106261
0.00105818
0.00105155
0.00104699
0.00104059
0.00103597
0.00102975
0.00102512
0.00101904
0.00101441
0.00101135
0.00100614
0.00100458
0.00111535
0.00110485
0.00110063
0.00109214
0.00108759
0.00107955
0.00107481
0.00106711
0.00106222
0.00105486
0.00104985
0.00104276
0.00103769
0.00103081
0.0010257
0.00101903
0.00101389
0.00101055
0.00100482
0.00100392
0.00112037
0.00110932
0.00110486
0.00109595
0.00109113
0.00108266
0.00107767
0.00106959
0.00106441
0.00105674
0.00105141
0.00104403
0.00103862
0.00103149
0.00102606
0.00101912
0.00101369
0.0010102
0.0010042
0.00100357
0.00112316
0.00111165
0.00110721
0.00109801
0.00109305
0.00108435
0.00107923
0.0010709
0.00106566
0.00105769
0.00105231
0.00104465
0.00103919
0.0010318
0.00102628
0.00101915
0.00101358
0.00101
0.00100386
0.00100334
0.0011248
0.0011131
0.00110859
0.00109922
0.0010942
0.00108536
0.00108015
0.00107171
0.00106636
0.00105827
0.00105281
0.00104503
0.0010395
0.00103199
0.00102639
0.00101915
0.0010135
0.00100988
0.00100365
0.00100316
0.00112592
0.00111412
0.00110953
0.00110006
0.00109499
0.00108607
0.00108077
0.00107227
0.00106683
0.00105868
0.00105314
0.0010453
0.00103968
0.00103212
0.00102645
0.00101915
0.00101342
0.00100977
0.00100348
0.00100298
0.0011268
0.00111507
0.00111028
0.00110076
0.00109565
0.00108662
0.00108131
0.0010727
0.00106721
0.00105904
0.00105337
0.00104554
0.0010398
0.00103224
0.00102647
0.00101914
0.00101335
0.00100967
0.00100333
0.00100285
0.00112778
0.0011157
0.00111108
0.00110143
0.00109625
0.00108717
0.00108178
0.00107314
0.00106759
0.0010593
0.00105366
0.0010457
0.00103997
0.00103231
0.00102651
0.00101912
0.00101327
0.00100957
0.00100318
0.00100266
0.00112859
0.00111672
0.0011118
0.00110212
0.0010969
0.00108771
0.0010823
0.00107355
0.00106797
0.00105961
0.00105392
0.00104589
0.0010401
0.0010324
0.00102653
0.00101909
0.00101319
0.00100946
0.00100302
0.00100249
0.00112969
0.00111744
0.00111269
0.00110285
0.00109758
0.00108834
0.00108284
0.00107404
0.00106838
0.00105997
0.00105419
0.0010461
0.00104025
0.00103249
0.00102655
0.00101907
0.00101309
0.00100934
0.00100284
0.00100228
0.00113084
0.00111847
0.00111364
0.0011037
0.00109837
0.00108902
0.00108347
0.00107456
0.00106884
0.00106035
0.00105448
0.00104638
0.0010404
0.0010326
0.00102658
0.00101903
0.00101299
0.0010092
0.00100264
0.00100202
0.00113204
0.00111983
0.0011147
0.00110467
0.00109928
0.0010898
0.00108418
0.00107519
0.00106938
0.00106079
0.00105486
0.00104663
0.00104061
0.00103272
0.00102661
0.001019
0.00101287
0.00100905
0.00100241
0.00100173
0.00113357
0.00112122
0.00111599
0.00110583
0.00110035
0.00109074
0.00108503
0.0010759
0.00107003
0.00106129
0.00105532
0.00104693
0.00104088
0.00103281
0.00102669
0.00101893
0.00101274
0.00100886
0.00100214
0.00100139
0.00113542
0.00112286
0.00111754
0.00110719
0.00110162
0.00109184
0.00108604
0.00107675
0.00107078
0.00106191
0.00105582
0.00104733
0.00104114
0.001033
0.00102672
0.00101889
0.00101257
0.00100864
0.00100182
0.00100092
0.00113733
0.00112476
0.00111918
0.00110868
0.00110303
0.00109304
0.00108716
0.00107768
0.00107161
0.00106258
0.00105638
0.00104773
0.00104143
0.00103312
0.00102675
0.00101877
0.00101233
0.00100834
0.0010014
0.00100048
0.00113436
0.00112193
0.00111698
0.00110689
0.00110141
0.00109187
0.00108608
0.00107695
0.00107092
0.0010622
0.00105592
0.00104753
0.0010411
0.00103298
0.00102645
0.00101854
0.00101194
0.00100794
0.0010009
0.00100051
0.0010005
0.00100052
0.00100049
0.00100055
0.00100048
0.00100055
0.0010005
0.00100055
0.0010005
0.00100054
0.00100051
0.00100053
0.00100052
0.00100053
0.00100052
0.00100052
0.00100052
0.00100052
0.00100052
)
;

boundaryField
{
    movingWall
    {
        type            calculated;
        value           nonuniform List<scalar> 
20
(
0.00100051
0.0010005
0.00100052
0.00100049
0.00100055
0.00100048
0.00100055
0.0010005
0.00100055
0.0010005
0.00100054
0.00100051
0.00100053
0.00100052
0.00100053
0.00100052
0.00100052
0.00100052
0.00100052
0.00100052
)
;
    }
    fixedWalls
    {
        type            calculated;
        value           nonuniform List<scalar> 
60
(
0.00101847
0.00101391
0.00100877
0.00100596
0.00100458
0.00100392
0.00100357
0.00100334
0.00100316
0.00100298
0.00100285
0.00100266
0.00100249
0.00100228
0.00100202
0.00100173
0.00100139
0.00100092
0.00100048
0.00100051
0.00101848
0.00101396
0.00100888
0.00100614
0.00100482
0.0010042
0.00100386
0.00100365
0.00100348
0.00100333
0.00100318
0.00100302
0.00100284
0.00100264
0.00100241
0.00100214
0.00100182
0.0010014
0.0010009
0.00100052
0.00101847
0.00101847
0.00101848
0.00101846
0.0010185
0.00101845
0.00101849
0.00101847
0.00101849
0.00101847
0.00101848
0.00101848
0.00101847
0.00101849
0.00101847
0.00101848
0.00101848
0.00101848
0.00101848
0.00101848
)
;
    }
    frontAndBack
    {
        type            empty;
    }
}


// ************************************************************************* //
