/*--------------------------------*- C++ -*----------------------------------*\
| =========                 |                                                 |
| \\      /  F ield         | OpenFOAM: The Open Source CFD Toolbox           |
|  \\    /   O peration     | Version:  2506                                  |
|   \\  /    A nd           | Website:  www.openfoam.com                      |
|    \\/     M anipulation  |                                                 |
\*---------------------------------------------------------------------------*/
FoamFile
{
    version     2.0;
    format      ascii;
    arch        "LSB;label=32;scalar=64";
    class       volSymmTensorField;
    location    "3";
    object      turbulenceProperties:devReff;
}
// * * * * * * * * * * * * * * * * * * * * * * * * * * * * * * * * * * * * * //

dimensions      [0 2 -2 0 0 0 0];

internalField   nonuniform List<symmTensor> 
400
(
(7.02815e-11 -2.7552e-10 -0 -2.24914e-11 -0 -4.77902e-11)
(-9.39917e-11 4.45048e-10 -0 4.34257e-11 -0 5.0566e-11)
(2.58574e-11 -1.01111e-10 -0 -1.1867e-11 -0 -1.39905e-11)
(-9.94831e-12 2.45794e-11 -0 4.8622e-12 -0 5.08611e-12)
(2.55935e-12 -4.58847e-12 -0 -9.85958e-13 -0 -1.57339e-12)
(-1.35811e-12 1.73037e-12 -0 8.29835e-13 -0 5.28278e-13)
(1.82921e-14 1.16364e-13 -0 1.52634e-13 -0 -1.70926e-13)
(-3.3492e-13 2.83874e-13 -0 2.81462e-13 -0 5.34585e-14)
(-1.384e-13 1.27419e-13 -0 1.56869e-13 -0 -1.84689e-14)
(-1.30704e-13 6.79945e-14 -0 1.25248e-13 -0 5.4563e-15)
(-7.49462e-14 2.27472e-14 -0 7.68219e-14 -0 -1.87568e-15)
(-4.7457e-14 -4.35354e-15 -0 4.6794e-14 -0 6.63024e-16)
(-2.25668e-14 -1.73769e-14 -0 2.26281e-14 -0 -6.12854e-17)
(-7.16524e-15 -2.16925e-14 -0 6.97903e-15 -0 1.86209e-16)
(2.74494e-15 -2.01765e-14 -0 -2.85808e-15 -0 1.13146e-16)
(7.97061e-15 -1.57558e-14 -0 -8.09413e-15 -0 1.23522e-16)
(1.03217e-14 -9.63691e-15 -0 -1.03493e-14 -0 2.76033e-17)
(9.09026e-15 -3.08738e-15 -0 -9.18316e-15 -0 9.29024e-17)
(3.37494e-15 6.40546e-16 -0 -3.50865e-15 -0 1.33711e-16)
(8.70047e-16 6.32811e-17 -0 -9.7869e-16 -0 1.08643e-16)
(5.66378e-11 5.50331e-10 -0 -7.13323e-11 -0 1.46945e-11)
(-3.43914e-11 -5.74697e-10 -0 2.05254e-11 -0 1.3866e-11)
(7.81966e-12 1.41866e-10 -0 -4.22594e-12 -0 -3.59372e-12)
(-3.41711e-12 -3.43981e-11 -0 1.71539e-12 -0 1.70172e-12)
(4.38383e-13 8.73004e-12 -0 1.82485e-13 -0 -6.20868e-13)
(-8.06849e-13 -2.24945e-12 -0 5.87276e-13 -0 2.19573e-13)
(-2.12675e-13 4.78016e-13 -0 2.99548e-13 -0 -8.68727e-14)
(-3.1366e-13 -2.33805e-13 -0 2.83485e-13 -0 3.01751e-14)
(-1.67302e-13 -3.76391e-14 -0 1.78072e-13 -0 -1.07701e-14)
(-1.34112e-13 -7.19633e-14 -0 1.29957e-13 -0 4.15497e-15)
(-7.81769e-14 -4.48824e-14 -0 7.92704e-14 -0 -1.09347e-15)
(-4.68447e-14 -3.59384e-14 -0 4.61853e-14 -0 6.59393e-16)
(-2.07482e-14 -2.45152e-14 -0 2.07247e-14 -0 2.3439e-17)
(-4.63106e-15 -1.62823e-14 -0 4.4284e-15 -0 2.02661e-16)
(5.39361e-15 -9.74741e-15 -0 -5.5348e-15 -0 1.41191e-16)
(1.0572e-14 -5.18473e-15 -0 -1.0626e-14 -0 5.39453e-17)
(1.24612e-14 -1.6738e-15 -0 -1.24285e-14 -0 -3.27136e-17)
(1.04562e-14 2.23416e-15 -0 -1.06874e-14 -0 2.3119e-16)
(3.98711e-15 3.25946e-15 -0 -4.14194e-15 -0 1.54835e-16)
(1.11506e-15 1.95115e-15 -0 -1.19043e-15 -0 7.53653e-17)
(1.75627e-10 -4.12576e-10 -0 -1.30748e-11 -0 -1.62552e-10)
(-2.90226e-10 6.20393e-10 -0 1.44629e-10 -0 1.45597e-10)
(8.13488e-11 -1.35854e-10 -0 -3.98886e-11 -0 -4.14602e-11)
(-3.07829e-11 3.3172e-11 -0 1.71342e-11 -0 1.36488e-11)
(8.27506e-12 -7.45014e-12 -0 -4.1377e-12 -0 -4.13736e-12)
(-3.56205e-12 1.5171e-12 -0 2.23441e-12 -0 1.32764e-12)
(5.22049e-13 -6.20372e-13 -0 -1.23318e-13 -0 -3.98731e-13)
(-5.64529e-13 -9.53488e-14 -0 4.36176e-13 -0 1.28353e-13)
(-9.56471e-14 -1.736e-13 -0 1.32686e-13 -0 -3.70394e-14)
(-1.47747e-13 -1.11341e-13 -0 1.35072e-13 -0 1.26752e-14)
(-6.38161e-14 -8.8536e-14 -0 6.70185e-14 -0 -3.20235e-15)
(-4.02722e-14 -6.28621e-14 -0 3.88648e-14 -0 1.40736e-15)
(-1.26321e-14 -4.36801e-14 -0 1.27511e-14 -0 -1.18944e-16)
(1.94636e-15 -2.81438e-14 -0 -2.20858e-15 -0 2.62218e-16)
(1.10809e-14 -1.66492e-14 -0 -1.12201e-14 -0 1.39193e-16)
(1.495e-14 -8.50309e-15 -0 -1.5123e-14 -0 1.72967e-16)
(1.60115e-14 -2.1742e-15 -0 -1.59808e-14 -0 -3.06869e-17)
(1.32445e-14 4.58726e-15 -0 -1.33024e-14 -0 5.78359e-17)
(5.28299e-15 6.17895e-15 -0 -5.43775e-15 -0 1.54757e-16)
(1.29925e-15 3.80085e-15 -0 -1.41883e-15 -0 1.19581e-16)
(2.51958e-10 3.73428e-10 -0 -2.95714e-10 -0 4.37564e-11)
(-1.86522e-10 -6.88816e-10 -0 1.34002e-10 -0 5.25202e-11)
(3.39545e-11 1.37813e-10 -0 -2.56044e-11 -0 -8.3501e-12)
(-1.62794e-11 -3.46215e-11 -0 1.1461e-11 -0 4.81843e-12)
(2.00279e-12 5.85611e-12 -0 -1.17681e-12 -0 -8.25975e-13)
(-1.7577e-12 -1.96287e-12 -0 1.35501e-12 -0 4.02699e-13)
(-5.01466e-14 -1.3498e-13 -0 1.43421e-13 -0 -9.32749e-14)
(-3.4354e-13 -3.49384e-13 -0 3.01397e-13 -0 4.21437e-14)
(-1.13819e-13 -2.22596e-13 -0 1.23577e-13 -0 -9.75822e-15)
(-1.01882e-13 -1.69316e-13 -0 9.68675e-14 -0 5.01475e-15)
(-4.46805e-14 -1.25028e-13 -0 4.55553e-14 -0 -8.74788e-16)
(-2.03261e-14 -8.86162e-14 -0 1.96035e-14 -0 7.22663e-16)
(1.4409e-15 -6.07475e-14 -0 -1.49486e-15 -0 5.39679e-17)
(1.30655e-14 -3.8542e-14 -0 -1.32898e-14 -0 2.24232e-16)
(1.93253e-14 -2.22364e-14 -0 -1.95018e-14 -0 1.76522e-16)
(2.13494e-14 -1.07401e-14 -0 -2.13732e-14 -0 2.37638e-17)
(2.04504e-14 -2.06284e-15 -0 -2.03724e-14 -0 -7.79883e-17)
(1.56671e-14 7.61541e-15 -0 -1.59568e-14 -0 2.89694e-16)
(6.62621e-15 9.9226e-15 -0 -6.87475e-15 -0 2.48536e-16)
(1.79348e-15 6.09432e-15 -0 -1.81359e-15 -0 2.01129e-17)
(-1.41754e-10 -7.03469e-10 -0 3.12285e-10 -0 -1.70531e-10)
(-3.0647e-11 9.18566e-10 -0 -2.29178e-11 -0 5.35648e-11)
(3.52303e-11 -2.06258e-10 -0 -9.01513e-12 -0 -2.62152e-11)
(-8.78493e-12 5.0908e-11 -0 4.06017e-12 -0 4.72476e-12)
(5.16947e-12 -1.37209e-11 -0 -2.42633e-12 -0 -2.74313e-12)
(-1.80868e-12 2.32725e-12 -0 1.11797e-12 -0 6.90715e-13)
(3.45688e-13 -1.4132e-12 -0 -1.15674e-13 -0 -2.30014e-13)
(-3.0425e-13 -1.72811e-13 -0 2.27693e-13 -0 7.65562e-14)
(-2.22192e-14 -3.49219e-13 -0 4.37556e-14 -0 -2.15364e-14)
(-5.61651e-14 -1.90963e-13 -0 4.87847e-14 -0 7.38042e-15)
(-6.0809e-15 -1.56948e-13 -0 7.9997e-15 -0 -1.91881e-15)
(6.48153e-15 -1.05636e-13 -0 -7.2919e-15 -0 8.10367e-16)
(2.12773e-14 -7.27028e-14 -0 -2.12388e-14 -0 -3.85509e-17)
(2.74118e-14 -4.48678e-14 -0 -2.75926e-14 -0 1.80817e-16)
(2.95495e-14 -2.50454e-14 -0 -2.96807e-14 -0 1.31228e-16)
(2.81242e-14 -1.10704e-14 -0 -2.82692e-14 -0 1.44994e-16)
(2.50967e-14 -4.06782e-16 -0 -2.50215e-14 -0 -7.51726e-17)
(1.9077e-14 1.15874e-14 -0 -1.90954e-14 -0 1.84156e-17)
(8.3219e-15 1.41539e-14 -0 -8.5396e-15 -0 2.17708e-16)
(1.99213e-15 8.83093e-15 -0 -2.05973e-15 -0 6.76068e-17)
(4.38838e-10 1.34551e-10 -0 -6.30572e-10 -0 1.91734e-10)
(-2.08407e-10 -8.75075e-10 -0 1.81286e-10 -0 2.71211e-11)
(5.56537e-12 1.4248e-10 -0 -2.05068e-11 -0 1.49414e-11)
(-9.42389e-12 -3.57002e-11 -0 6.81931e-12 -0 2.60457e-12)
(-2.94124e-12 3.25173e-12 -0 1.02551e-12 -0 1.91574e-12)
(6.61631e-13 -1.35254e-12 -0 -3.62546e-13 -0 -2.99085e-13)
(-3.12519e-13 -6.09763e-13 -0 1.80936e-13 -0 1.31583e-13)
(1.51339e-13 -3.52782e-13 -0 -8.9907e-14 -0 -6.14321e-14)
(-2.7548e-14 -3.39203e-13 -0 1.30566e-14 -0 1.44913e-14)
(3.97377e-14 -2.15759e-13 -0 -3.32729e-14 -0 -6.46473e-15)
(2.83046e-14 -1.68707e-13 -0 -3.00245e-14 -0 1.71997e-15)
(4.15501e-14 -1.14196e-13 -0 -4.09414e-14 -0 -6.08726e-16)
(4.28512e-14 -7.71486e-14 -0 -4.30944e-14 -0 2.4312e-16)
(4.34071e-14 -4.63148e-14 -0 -4.34676e-14 -0 6.05674e-17)
(4.01488e-14 -2.42845e-14 -0 -4.03449e-14 -0 1.96114e-16)
(3.57056e-14 -8.93282e-15 -0 -3.56249e-14 -0 -8.07322e-17)
(2.97764e-14 2.61151e-15 -0 -2.95969e-14 -0 -1.79455e-16)
(2.11534e-14 1.62959e-14 -0 -2.14592e-14 -0 3.05853e-16)
(9.6205e-15 1.90579e-14 -0 -9.95903e-15 -0 3.38529e-16)
(2.5429e-15 1.19683e-14 -0 -2.46834e-15 -0 -7.45589e-17)
(-1.13078e-09 -5.47717e-10 -0 1.20115e-09 -0 -7.03693e-11)
(9.29953e-10 1.24984e-09 -0 -6.14669e-10 -0 -3.15285e-10)
(-1.67208e-10 -2.40048e-10 -0 1.18633e-10 -0 4.85754e-11)
(7.41231e-11 5.91728e-11 -0 -4.5742e-11 -0 -2.83811e-11)
(-1.17505e-11 -1.20304e-11 -0 7.62095e-12 -0 4.12951e-12)
(5.05296e-12 1.89617e-12 -0 -3.17449e-12 -0 -1.87848e-12)
(-1.00615e-12 -1.07411e-12 -0 5.45559e-13 -0 4.60591e-13)
(4.46629e-13 -2.92548e-13 -0 -3.20548e-13 -0 -1.26081e-13)
(1.68194e-15 -3.26452e-13 -0 -4.0038e-14 -0 3.83561e-14)
(1.14837e-13 -2.18762e-13 -0 -1.03484e-13 -0 -1.13527e-14)
(7.10044e-14 -1.63619e-13 -0 -7.38549e-14 -0 2.85048e-15)
(7.50088e-14 -1.12873e-13 -0 -7.3935e-14 -0 -1.07375e-15)
(6.53547e-14 -7.36137e-14 -0 -6.56275e-14 -0 2.72789e-16)
(5.90609e-14 -4.24648e-14 -0 -5.90175e-14 -0 -4.34014e-17)
(5.05043e-14 -1.98003e-14 -0 -5.06263e-14 -0 1.21978e-16)
(4.18938e-14 -4.39131e-15 -0 -4.19588e-14 -0 6.49636e-17)
(3.35471e-14 7.37888e-15 -0 -3.33973e-14 -0 -1.49821e-16)
(2.39105e-14 2.19464e-14 -0 -2.38714e-14 -0 -3.9107e-17)
(1.10539e-14 2.43966e-14 -0 -1.13298e-14 -0 2.75827e-16)
(2.63226e-15 1.54905e-14 -0 -2.61579e-15 -0 -1.64674e-17)
(1.29935e-09 7.01764e-10 -0 -1.50988e-09 -0 2.1053e-10)
(-9.37732e-10 -1.57992e-09 -0 6.49813e-10 -0 2.87919e-10)
(1.33066e-10 2.98382e-10 -0 -1.08903e-10 -0 -2.41623e-11)
(-6.55307e-11 -7.5597e-11 -0 4.03978e-11 -0 2.51328e-11)
(5.81573e-12 1.35779e-11 -0 -4.73896e-12 -0 -1.07677e-12)
(-2.45926e-12 -3.58244e-12 -0 1.31747e-12 -0 1.14179e-12)
(6.6813e-13 2.44232e-13 -0 -4.97684e-13 -0 -1.70446e-13)
(1.91404e-13 -4.67848e-13 -0 -2.03853e-13 -0 1.24486e-14)
(1.84326e-13 -2.43097e-13 -0 -1.77326e-13 -0 -7.00038e-15)
(1.51188e-13 -2.08682e-13 -0 -1.49097e-13 -0 -2.09111e-15)
(1.18785e-13 -1.46002e-13 -0 -1.19396e-13 -0 6.10749e-16)
(1.03783e-13 -1.01034e-13 -0 -1.03272e-13 -0 -5.11151e-16)
(8.62932e-14 -6.30427e-14 -0 -8.64043e-14 -0 1.11165e-16)
(7.24896e-14 -3.33671e-14 -0 -7.25077e-14 -0 1.81152e-17)
(5.89213e-14 -1.17301e-14 -0 -5.90972e-14 -0 1.75821e-16)
(4.73945e-14 2.62441e-15 -0 -4.72063e-14 -0 -1.88163e-16)
(3.64444e-14 1.3488e-14 -0 -3.61475e-14 -0 -2.96868e-16)
(2.44829e-14 2.81888e-14 -0 -2.47753e-14 -0 2.9244e-16)
(1.1644e-14 3.02016e-14 -0 -1.20588e-14 -0 4.14792e-16)
(3.05472e-15 1.93106e-14 -0 -2.87913e-15 -0 -1.75591e-16)
(-2.22648e-09 -6.02565e-10 -0 2.32943e-09 -0 -1.02955e-10)
(1.84257e-09 1.99222e-09 -0 -1.19424e-09 -0 -6.48327e-10)
(-3.23637e-10 -3.56165e-10 -0 2.24935e-10 -0 9.87028e-11)
(1.43525e-10 8.78284e-11 -0 -8.50058e-11 -0 -5.8519e-11)
(-2.16313e-11 -1.5106e-11 -0 1.33976e-11 -0 8.23367e-12)
(9.08709e-12 2.47724e-12 -0 -5.34276e-12 -0 -3.74434e-12)
(-1.69384e-12 -8.47388e-13 -0 7.52732e-13 -0 9.41107e-13)
(8.01039e-13 -2.82602e-13 -0 -5.70874e-13 -0 -2.30165e-13)
(7.95386e-14 -2.26249e-13 -0 -1.59063e-13 -0 7.95242e-14)
(2.3288e-13 -1.75985e-13 -0 -2.14028e-13 -0 -1.88523e-14)
(1.47e-13 -1.1769e-13 -0 -1.52433e-13 -0 5.43267e-15)
(1.3119e-13 -8.05262e-14 -0 -1.29488e-13 -0 -1.70194e-15)
(1.02596e-13 -4.56937e-14 -0 -1.03001e-13 -0 4.05444e-16)
(8.29749e-14 -1.955e-14 -0 -8.28674e-14 -0 -1.07495e-16)
(6.48498e-14 -4.10618e-16 -0 -6.49556e-14 -0 1.05755e-16)
(4.98253e-14 1.16803e-14 -0 -4.98085e-14 -0 -1.68378e-17)
(3.72418e-14 2.09257e-14 -0 -3.70024e-14 -0 -2.39408e-16)
(2.52713e-14 3.50023e-14 -0 -2.51726e-14 -0 -9.87038e-17)
(1.21268e-14 3.61595e-14 -0 -1.24457e-14 -0 3.1887e-16)
(2.85852e-15 2.32819e-14 -0 -2.76081e-15 -0 -9.77077e-17)
(3.04953e-09 1.02847e-09 -0 -3.14312e-09 -0 9.35897e-11)
(-2.58166e-09 -2.67751e-09 -0 1.68078e-09 -0 9.00872e-10)
(4.57315e-10 5.00364e-10 -0 -3.19502e-10 -0 -1.37813e-10)
(-2.01389e-10 -1.23719e-10 -0 1.2115e-10 -0 8.02391e-11)
(3.13042e-11 2.15217e-11 -0 -2.05001e-11 -0 -1.08041e-11)
(-1.16544e-11 -5.06232e-12 -0 6.67947e-12 -0 4.97489e-12)
(3.12807e-12 5.92187e-13 -0 -2.0128e-12 -0 -1.11526e-12)
(-3.08335e-13 -3.2214e-13 -0 2.58709e-14 -0 2.82464e-13)
(5.05552e-13 -1.51725e-13 -0 -4.11275e-13 -0 -9.42768e-14)
(1.9329e-13 -1.22145e-13 -0 -2.1221e-13 -0 1.89197e-14)
(1.99166e-13 -8.53036e-14 -0 -1.93685e-13 -0 -5.48169e-15)
(1.4431e-13 -5.02428e-14 -0 -1.45643e-13 -0 1.33362e-15)
(1.15528e-13 -2.33066e-14 -0 -1.15189e-13 -0 -3.39104e-16)
(8.82332e-14 -1.35225e-15 -0 -8.83966e-14 -0 1.6345e-16)
(6.68525e-14 1.36139e-14 -0 -6.69911e-14 -0 1.3865e-16)
(5.01583e-14 2.25257e-14 -0 -4.9886e-14 -0 -2.72306e-16)
(3.62716e-14 2.91759e-14 -0 -3.58564e-14 -0 -4.15201e-16)
(2.3143e-14 4.18654e-14 -0 -2.33952e-14 -0 2.52179e-16)
(1.13554e-14 4.20503e-14 -0 -1.18164e-14 -0 4.60932e-16)
(2.93371e-15 2.72169e-14 -0 -2.68591e-15 -0 -2.47806e-16)
(-4.12797e-09 -1.59498e-09 -0 4.05239e-09 -0 7.55864e-11)
(3.65492e-09 3.58345e-09 -0 -2.31007e-09 -0 -1.34485e-09)
(-6.78119e-10 -7.02255e-10 -0 4.52535e-10 -0 2.25584e-10)
(2.93095e-10 1.68809e-10 -0 -1.72167e-10 -0 -1.20928e-10)
(-4.89883e-11 -3.30654e-11 -0 2.99742e-11 -0 1.90141e-11)
(1.93854e-11 6.33003e-12 -0 -1.12884e-11 -0 -8.09706e-12)
(-3.97e-12 -1.68641e-12 -0 2.00814e-12 -0 1.96186e-12)
(1.58399e-12 1.87123e-14 -0 -1.06529e-12 -0 -5.18702e-13)
(-3.84601e-14 -1.52768e-13 -0 -1.39756e-13 -0 1.78216e-13)
(3.53527e-13 -7.10377e-14 -0 -3.13335e-13 -0 -4.01923e-14)
(1.81748e-13 -3.88245e-14 -0 -1.94781e-13 -0 1.30331e-14)
(1.65814e-13 -1.55324e-14 -0 -1.62473e-13 -0 -3.34101e-15)
(1.17865e-13 5.17058e-15 -0 -1.18778e-13 -0 9.12854e-16)
(8.92379e-14 2.00515e-14 -0 -8.9003e-14 -0 -2.34831e-16)
(6.43797e-14 2.9888e-14 -0 -6.45037e-14 -0 1.23996e-16)
(4.61024e-14 3.44625e-14 -0 -4.59913e-14 -0 -1.1108e-16)
(3.21608e-14 3.78617e-14 -0 -3.18383e-14 -0 -3.22465e-16)
(2.07403e-14 4.85474e-14 -0 -2.05776e-14 -0 -1.62705e-16)
(1.02656e-14 4.75192e-14 -0 -1.05909e-14 -0 3.25339e-16)
(2.29748e-15 3.08391e-14 -0 -2.1527e-15 -0 -1.44773e-16)
(5.01892e-09 2.30399e-09 -0 -4.76352e-09 -0 -2.55395e-10)
(-4.58177e-09 -4.62766e-09 -0 2.86621e-09 -0 1.71556e-09)
(8.57701e-10 9.23542e-10 -0 -5.67679e-10 -0 -2.90022e-10)
(-3.69596e-10 -2.24554e-10 -0 2.15598e-10 -0 1.53998e-10)
(6.45673e-11 4.22094e-11 -0 -4.05868e-11 -0 -2.39805e-11)
(-2.29406e-11 -9.58883e-12 -0 1.27987e-11 -0 1.01419e-11)
(6.39413e-12 1.69663e-12 -0 -3.91482e-12 -0 -2.47932e-12)
(-9.34034e-13 -3.51626e-13 -0 3.24113e-13 -0 6.09921e-13)
(8.57044e-13 2.04257e-14 -0 -6.41827e-13 -0 -2.15217e-13)
(1.91713e-13 -6.6799e-15 -0 -2.37651e-13 -0 4.59378e-14)
(2.52005e-13 1.19154e-14 -0 -2.377e-13 -0 -1.43056e-14)
(1.54325e-13 2.84683e-14 -0 -1.58073e-13 -0 3.74734e-15)
(1.18764e-13 3.71372e-14 -0 -1.17799e-13 -0 -9.64773e-16)
(8.16349e-14 4.46537e-14 -0 -8.19524e-14 -0 3.17499e-16)
(5.66129e-14 4.75541e-14 -0 -5.66672e-14 -0 5.42425e-17)
(3.87052e-14 4.70582e-14 -0 -3.83404e-14 -0 -3.64766e-16)
(2.56284e-14 4.64877e-14 -0 -2.5092e-14 -0 -5.36413e-16)
(1.49254e-14 5.44362e-14 -0 -1.50993e-14 -0 1.73918e-16)
(7.58525e-15 5.20836e-14 -0 -8.03433e-15 -0 4.49083e-16)
(1.87748e-15 3.38901e-14 -0 -1.62204e-15 -0 -2.55441e-16)
(-5.78779e-09 -3.61315e-09 -0 4.86306e-09 -0 9.24733e-10)
(5.76604e-09 5.91138e-09 -0 -3.46859e-09 -0 -2.29745e-09)
(-1.11421e-09 -1.25554e-09 -0 6.91152e-10 -0 4.23054e-10)
(4.887e-10 3.01631e-10 -0 -2.79961e-10 -0 -2.0874e-10)
(-8.64215e-11 -6.1064e-11 -0 5.11587e-11 -0 3.52628e-11)
(3.41624e-11 1.40589e-11 -0 -1.93653e-11 -0 -1.47971e-11)
(-7.40243e-12 -2.88352e-12 -0 3.86769e-12 -0 3.53474e-12)
(2.71744e-12 5.79693e-13 -0 -1.72384e-12 -0 -9.936e-13)
(-2.95044e-13 -7.14899e-14 -0 -3.55216e-14 -0 3.30566e-13)
(4.71074e-13 9.06004e-14 -0 -3.95726e-13 -0 -7.53483e-14)
(1.69408e-13 7.35604e-14 -0 -1.95177e-13 -0 2.57692e-14)
(1.68336e-13 7.7164e-14 -0 -1.61694e-13 -0 -6.64174e-15)
(1.00528e-13 7.42174e-14 -0 -1.02263e-13 -0 1.73479e-15)
(6.9078e-14 7.07627e-14 -0 -6.84336e-14 -0 -6.44431e-16)
(4.24167e-14 6.58475e-14 -0 -4.25036e-14 -0 8.6943e-17)
(2.60744e-14 5.9232e-14 -0 -2.58013e-14 -0 -2.73067e-16)
(1.52207e-14 5.41494e-14 -0 -1.48305e-14 -0 -3.90241e-16)
(8.32719e-15 5.90563e-14 -0 -8.12334e-15 -0 -2.03847e-16)
(4.3697e-15 5.54105e-14 -0 -4.64233e-15 -0 2.72627e-16)
(7.75464e-16 3.59936e-14 -0 -6.54618e-16 -0 -1.20846e-16)
(5.60596e-09 4.81147e-09 -0 -4.09769e-09 -0 -1.50827e-09)
(-6.02077e-09 -6.81275e-09 -0 3.4681e-09 -0 2.55268e-09)
(1.17539e-09 1.56455e-09 -0 -6.90669e-10 -0 -4.84723e-10)
(-5.2948e-10 -3.6e-10 -0 2.98067e-10 -0 2.31412e-10)
(9.56971e-11 7.89674e-11 -0 -5.62378e-11 -0 -3.94593e-11)
(-3.64614e-11 -1.7736e-11 -0 2.00968e-11 -0 1.63646e-11)
(9.72253e-12 3.64778e-12 -0 -5.88077e-12 -0 -3.84176e-12)
(-1.85424e-12 -6.22551e-13 -0 7.76784e-13 -0 1.07746e-12)
(1.22432e-12 2.95398e-13 -0 -8.84463e-13 -0 -3.39858e-13)
(1.35341e-13 1.45993e-13 -0 -2.13463e-13 -0 7.81222e-14)
(2.63195e-13 1.54128e-13 -0 -2.39194e-13 -0 -2.40013e-14)
(1.18812e-13 1.33669e-13 -0 -1.24577e-13 -0 5.76576e-15)
(8.35206e-14 1.13187e-13 -0 -8.14223e-14 -0 -2.09827e-15)
(4.32489e-14 9.76977e-14 -0 -4.34462e-14 -0 1.97317e-16)
(2.18964e-14 8.30785e-14 -0 -2.1726e-14 -0 -1.70405e-16)
(9.11618e-15 7.00297e-14 -0 -8.65147e-15 -0 -4.64709e-16)
(2.16794e-15 6.03819e-14 -0 -1.55957e-15 -0 -6.08377e-16)
(-1.68831e-15 6.18106e-14 -0 1.61456e-15 -0 7.37569e-17)
(-5.68311e-16 5.67697e-14 -0 2.15767e-16 -0 3.52545e-16)
(-1.55875e-16 3.68689e-14 -0 3.16105e-16 -0 -1.6023e-16)
(-5.49045e-09 -6.15894e-09 -0 3.52361e-09 -0 1.96684e-09)
(6.21491e-09 7.61012e-09 -0 -3.32573e-09 -0 -2.88918e-09)
(-1.28152e-09 -1.86501e-09 -0 6.91888e-10 -0 5.89627e-10)
(5.62668e-10 4.26916e-10 -0 -2.96217e-10 -0 -2.66451e-10)
(-1.10967e-10 -1.06764e-10 -0 5.81075e-11 -0 5.28597e-11)
(4.43563e-11 2.42247e-11 -0 -2.37379e-11 -0 -2.06184e-11)
(-1.00731e-11 -5.74115e-12 -0 4.74937e-12 -0 5.32368e-12)
(3.92101e-12 1.73321e-12 -0 -2.37362e-12 -0 -1.54739e-12)
(-5.49048e-13 -3.76802e-15 -0 4.84519e-14 -0 5.00596e-13)
(5.5392e-13 3.79548e-13 -0 -4.25682e-13 -0 -1.28238e-13)
(8.9579e-14 2.23806e-13 -0 -1.28377e-13 -0 3.87976e-14)
(1.13499e-13 1.98885e-13 -0 -1.00742e-13 -0 -1.27569e-14)
(3.35447e-14 1.51626e-13 -0 -3.57319e-14 -0 2.18724e-15)
(1.18148e-14 1.21927e-13 -0 -1.02725e-14 -0 -1.54229e-15)
(-6.90498e-15 9.72387e-14 -0 6.92673e-15 -0 -2.17575e-17)
(-1.29807e-14 7.77217e-14 -0 1.34755e-14 -0 -4.94788e-16)
(-1.47003e-14 6.36158e-14 -0 1.51509e-14 -0 -4.50514e-16)
(-1.26058e-14 6.19019e-14 -0 1.2816e-14 -0 -2.10189e-16)
(-6.05207e-15 5.59388e-14 -0 5.88655e-15 -0 1.65519e-16)
(-1.6418e-15 3.61358e-14 -0 1.63753e-15 -0 4.26315e-18)
(4.60263e-09 5.1104e-09 -0 -2.84382e-09 -0 -1.75881e-09)
(-5.31842e-09 -7.5673e-09 -0 2.88098e-09 -0 2.43744e-09)
(1.07582e-09 1.76273e-09 -0 -5.97597e-10 -0 -4.78223e-10)
(-4.71802e-10 -4.03002e-10 -0 2.52576e-10 -0 2.19226e-10)
(9.45684e-11 9.11537e-11 -0 -5.44474e-11 -0 -4.0121e-11)
(-3.21161e-11 -1.97078e-11 -0 1.65673e-11 -0 1.55487e-11)
(1.01005e-11 4.84925e-12 -0 -6.23795e-12 -0 -3.86254e-12)
(-1.56017e-12 -2.32894e-13 -0 5.0935e-13 -0 1.05082e-12)
(1.18136e-12 7.24628e-13 -0 -8.42294e-13 -0 -3.39066e-13)
(4.55836e-14 4.35097e-13 -0 -1.14964e-13 -0 6.93802e-14)
(1.4121e-13 3.43503e-13 -0 -1.13598e-13 -0 -2.76123e-14)
(6.0766e-15 2.53561e-13 -0 -8.58158e-15 -0 2.50498e-15)
(-1.52562e-14 1.84733e-13 -0 1.86549e-14 -0 -3.39866e-15)
(-3.71882e-14 1.39017e-13 -0 3.77405e-14 -0 -5.52266e-16)
(-4.15041e-14 1.05079e-13 -0 4.19856e-14 -0 -4.81494e-16)
(-3.89821e-14 8.03017e-14 -0 3.95809e-14 -0 -5.98854e-16)
(-3.31018e-14 6.31002e-14 -0 3.36883e-14 -0 -5.86459e-16)
(-2.56305e-14 5.86087e-14 -0 2.55625e-14 -0 6.79763e-17)
(-1.26586e-14 5.20346e-14 -0 1.23792e-14 -0 2.79431e-16)
(-3.06401e-15 3.36031e-14 -0 3.01629e-15 -0 4.77242e-17)
(-6.12233e-09 -9.04426e-09 -0 3.55985e-09 -0 2.56248e-09)
(7.4419e-09 8.91035e-09 -0 -4.00603e-09 -0 -3.43587e-09)
(-1.67352e-09 -2.3454e-09 -0 8.98433e-10 -0 7.75091e-10)
(7.01793e-10 5.50704e-10 -0 -3.86228e-10 -0 -3.15566e-10)
(-1.54577e-10 -1.44035e-10 -0 8.25484e-11 -0 7.20282e-11)
(6.06106e-11 3.74392e-11 -0 -3.50872e-11 -0 -2.55234e-11)
(-1.46016e-11 -7.64944e-12 -0 7.46525e-12 -0 7.13634e-12)
(5.486e-12 3.681e-12 -0 -3.3673e-12 -0 -2.1187e-12)
(-1.25036e-12 3.16797e-13 -0 6.26453e-13 -0 6.23908e-13)
(4.68752e-13 7.9103e-13 -0 -2.70682e-13 -0 -1.9807e-13)
(-1.79704e-13 3.84674e-13 -0 1.32663e-13 -0 4.70408e-14)
(-4.74884e-14 2.99695e-13 -0 6.70129e-14 -0 -1.95244e-14)
(-1.06187e-13 1.9675e-13 -0 1.02908e-13 -0 3.27826e-15)
(-8.79164e-14 1.42187e-13 -0 8.96222e-14 -0 -1.7058e-15)
(-8.19205e-14 1.02287e-13 -0 8.13923e-14 -0 5.28229e-16)
(-6.67148e-14 7.51414e-14 -0 6.6807e-14 -0 -9.21243e-17)
(-5.28977e-14 5.6654e-14 -0 5.28629e-14 -0 3.48697e-17)
(-3.80079e-14 5.11141e-14 -0 3.79189e-14 -0 8.89376e-17)
(-1.86943e-14 4.53394e-14 -0 1.85374e-14 -0 1.56911e-16)
(-4.74805e-15 2.91206e-14 -0 4.56846e-15 -0 1.7959e-16)
(1.2316e-09 9.02338e-09 -0 -5.88351e-10 -0 -6.43249e-10)
(-1.23855e-09 -9.17141e-09 -0 3.47921e-10 -0 8.90624e-10)
(1.4443e-10 2.43545e-09 -0 -1.39605e-11 -0 -1.30469e-10)
(-8.33278e-11 -5.61654e-10 -0 -1.83438e-12 -0 8.51622e-11)
(7.60465e-12 1.64179e-10 -0 4.61668e-12 -0 -1.22213e-11)
(-2.57015e-13 -3.30297e-11 -0 -5.14515e-12 -0 5.40217e-12)
(9.78533e-13 1.39835e-11 -0 7.41295e-13 -0 -1.71983e-12)
(2.88119e-13 -7.68214e-13 -0 -4.96671e-13 -0 2.08552e-13)
(-2.67793e-13 1.9527e-12 -0 4.42587e-13 -0 -1.74794e-13)
(-2.38314e-13 5.00979e-13 -0 2.26423e-13 -0 1.18918e-14)
(-2.70917e-13 5.01637e-13 -0 2.82904e-13 -0 -1.19874e-14)
(-2.13951e-13 2.64302e-13 -0 2.13016e-13 -0 9.3536e-16)
(-1.84138e-13 1.90509e-13 -0 1.8493e-13 -0 -7.91701e-16)
(-1.49453e-13 1.24927e-13 -0 1.49059e-13 -0 3.94067e-16)
(-1.21338e-13 8.89353e-14 -0 1.20924e-13 -0 4.14364e-16)
(-9.42438e-14 6.30526e-14 -0 9.4258e-14 -0 -1.41372e-17)
(-7.10397e-14 4.70344e-14 -0 7.14033e-14 -0 -3.63598e-16)
(-4.94833e-14 4.10443e-14 -0 4.95886e-14 -0 -1.05341e-16)
(-2.39861e-14 3.56072e-14 -0 2.38291e-14 -0 1.57044e-16)
(-6.09948e-15 2.26238e-14 -0 5.81057e-15 -0 2.88916e-16)
(-3.08876e-09 -1.83086e-09 -0 1.60026e-09 -0 1.4885e-09)
(3.96668e-09 6.98373e-09 -0 -2.16978e-09 -0 -1.79689e-09)
(-8.90096e-10 -1.36311e-09 -0 5.01701e-10 -0 3.88395e-10)
(3.57218e-10 3.08883e-10 -0 -1.98267e-10 -0 -1.58951e-10)
(-8.64967e-11 -2.98243e-11 -0 5.39033e-11 -0 3.25933e-11)
(2.46515e-11 1.29193e-11 -0 -1.2936e-11 -0 -1.17155e-11)
(-1.02802e-11 4.92537e-12 -0 7.15367e-12 -0 3.12652e-12)
(5.4564e-13 1.11978e-12 -0 2.1061e-13 -0 -7.5625e-13)
(-1.68567e-12 1.43943e-12 -0 1.4065e-12 -0 2.79178e-13)
(-5.09587e-13 4.17579e-13 -0 5.61487e-13 -0 -5.18993e-14)
(-5.27272e-13 3.97932e-13 -0 5.05635e-13 -0 2.16365e-14)
(-3.35203e-13 1.89477e-13 -0 3.38134e-13 -0 -2.93056e-15)
(-2.66187e-13 1.41007e-13 -0 2.64328e-13 -0 1.85825e-15)
(-2.00818e-13 8.76278e-14 -0 2.00601e-13 -0 2.17117e-16)
(-1.55292e-13 6.29611e-14 -0 1.54986e-13 -0 3.06084e-16)
(-1.16774e-13 4.42431e-14 -0 1.17262e-13 -0 -4.8864e-16)
(-8.67085e-14 3.25277e-14 -0 8.72167e-14 -0 -5.08191e-16)
(-6.03162e-14 2.70027e-14 -0 6.02619e-14 -0 5.42481e-17)
(-2.9429e-14 2.31836e-14 -0 2.92771e-14 -0 1.51924e-16)
(-6.87571e-15 1.45522e-14 -0 6.43795e-15 -0 4.37764e-16)
(5.87487e-09 3.49702e-09 -0 -3.24109e-09 -0 -2.63378e-09)
(-7.19429e-09 -7.2538e-09 -0 4.1093e-09 -0 3.085e-09)
(1.81869e-09 1.89902e-09 -0 -1.02481e-09 -0 -7.93876e-10)
(-7.21842e-10 -4.47775e-10 -0 4.37353e-10 -0 2.8449e-10)
(1.78846e-10 1.08268e-10 -0 -1.03233e-10 -0 -7.56126e-11)
(-7.31043e-11 -3.26333e-11 -0 4.74029e-11 -0 2.57014e-11)
(1.53387e-11 3.94438e-12 -0 -8.14201e-12 -0 -7.19668e-12)
(-8.54901e-12 -3.8223e-12 -0 6.17173e-12 -0 2.37728e-12)
(4.88509e-13 -9.54169e-13 -0 1.7279e-13 -0 -6.61299e-13)
(-1.48363e-12 -1.10913e-12 -0 1.24972e-12 -0 2.33904e-13)
(-4.11943e-13 -6.96669e-13 -0 4.66206e-13 -0 -5.42632e-14)
(-4.6933e-13 -5.35485e-13 -0 4.4348e-13 -0 2.58508e-14)
(-2.82646e-13 -3.79944e-13 -0 2.85399e-13 -0 -2.75276e-15)
(-2.29587e-13 -2.69053e-13 -0 2.2534e-13 -0 4.24756e-15)
(-1.67503e-13 -1.8048e-13 -0 1.66524e-13 -0 9.78422e-16)
(-1.2658e-13 -1.13901e-13 -0 1.25764e-13 -0 8.16509e-16)
(-9.42168e-14 -6.45812e-14 -0 9.35909e-14 -0 6.25952e-16)
(-6.81612e-14 -2.54835e-14 -0 6.73744e-14 -0 7.8684e-16)
(-3.44923e-14 8.2518e-16 -0 3.44527e-14 -0 3.96397e-17)
(-6.99559e-15 4.86866e-15 -0 6.50996e-15 -0 4.85629e-16)
)
;

boundaryField
{
    movingWall
    {
        type            calculated;
        value           nonuniform List<symmTensor> 
20
(
(1.36441e-08 -7.90471e-09 -0 -2.32269e-08 -0 9.58278e-09)
(-6.26988e-09 -1.07489e-09 -0 7.63309e-09 -0 -1.36321e-09)
(1.5448e-09 -1.9346e-11 -0 -1.84253e-09 -0 2.97732e-10)
(-5.22486e-10 1.5538e-11 -0 5.64598e-10 -0 -4.21113e-11)
(1.30107e-10 -3.7092e-11 -0 -1.38751e-10 -0 8.64353e-12)
(-4.64732e-11 4.48689e-12 -0 4.57801e-11 -0 6.93161e-13)
(1.03505e-11 -7.86313e-12 -0 -9.94364e-12 -0 -4.06847e-13)
(-4.90938e-12 -9.63185e-13 -0 4.60289e-12 -0 3.06489e-13)
(4.31236e-13 -2.07887e-12 -0 -3.136e-13 -0 -1.17637e-13)
(-7.75166e-13 -9.44537e-13 -0 7.30427e-13 -0 4.47392e-14)
(-1.85065e-13 -8.32011e-13 -0 1.99386e-13 -0 -1.43205e-14)
(-2.30453e-13 -5.42202e-13 -0 2.24518e-13 -0 5.93492e-15)
(-1.34609e-13 -4.0375e-13 -0 1.35605e-13 -0 -9.96054e-16)
(-1.10288e-13 -2.77408e-13 -0 1.08949e-13 -0 1.33917e-15)
(-7.99338e-14 -1.88362e-13 -0 7.94388e-14 -0 4.95008e-16)
(-6.0401e-14 -1.19443e-13 -0 5.99859e-14 -0 4.15134e-16)
(-4.49956e-14 -6.93673e-14 -0 4.47154e-14 -0 2.80161e-16)
(-3.28175e-14 -2.98338e-14 -0 3.27208e-14 -0 9.67246e-17)
(-1.68105e-14 -3.18711e-15 -0 1.71362e-14 -0 -3.25714e-16)
(-3.33491e-15 2.30423e-15 -0 3.09846e-15 -0 2.36453e-16)
)
;
    }
    fixedWalls
    {
        type            calculated;
        value           nonuniform List<symmTensor> 
60
(
(2.94698e-10 -1.32059e-09 -0 -1.3855e-10 -0 -1.56147e-10)
(1.10017e-10 1.50933e-09 -0 -8.24818e-11 -0 -2.7535e-11)
(6.98333e-10 -1.45272e-09 -0 -3.05823e-10 -0 -3.9251e-10)
(4.26995e-10 1.49153e-09 -0 -3.05951e-10 -0 -1.21044e-10)
(4.96256e-11 -1.88212e-09 -0 1.02187e-10 -0 -1.51813e-10)
(4.628e-10 1.75775e-09 -0 -4.43777e-10 -0 -1.90226e-11)
(-1.96488e-09 -2.46696e-09 -0 1.30755e-09 -0 6.57339e-10)
(1.9801e-09 3.09254e-09 -0 -1.42722e-09 -0 -5.52884e-10)
(-3.85746e-09 -3.89005e-09 -0 2.54406e-09 -0 1.31339e-09)
(5.33637e-09 5.23054e-09 -0 -3.48391e-09 -0 -1.85246e-09)
(-7.53657e-09 -7.0186e-09 -0 4.76688e-09 -0 2.76969e-09)
(9.36482e-09 9.08887e-09 -0 -5.81015e-09 -0 -3.55467e-09)
(-1.16741e-08 -1.16719e-08 -0 6.81815e-09 -0 4.85592e-09)
(1.21024e-08 1.35399e-08 -0 -6.69328e-09 -0 -5.40913e-09)
(-1.26166e-08 -1.50493e-08 -0 6.69228e-09 -0 5.92434e-09)
(1.05978e-08 1.49122e-08 -0 -5.56487e-09 -0 -5.03294e-09)
(-1.47359e-08 -1.73123e-08 -0 7.61066e-09 -0 7.12529e-09)
(2.76235e-09 1.76177e-08 -0 -1.36793e-09 -0 -1.39442e-09)
(-7.55302e-09 -1.36243e-08 -0 3.80323e-09 -0 3.74979e-09)
(1.46051e-08 1.50973e-08 -0 -7.44751e-09 -0 -7.15763e-09)
(1.23799e-15 3.83554e-18 -0 -9.97172e-16 -0 -2.40823e-16)
(1.24375e-15 1.15514e-15 -0 -1.02645e-15 -0 -2.17303e-16)
(1.21032e-15 2.00946e-15 -0 -1.05196e-15 -0 -1.58363e-16)
(1.20235e-15 2.95426e-15 -0 -1.10174e-15 -0 -1.00608e-16)
(1.14861e-15 4.02257e-15 -0 -1.13549e-15 -0 -1.31254e-17)
(1.11987e-15 5.20846e-15 -0 -1.18015e-15 -0 6.02777e-17)
(1.03017e-15 6.51183e-15 -0 -1.18194e-15 -0 1.51764e-16)
(9.5757e-16 7.88698e-15 -0 -1.16818e-15 -0 2.10612e-16)
(7.90031e-16 9.2827e-15 -0 -1.07113e-15 -0 2.81104e-16)
(6.29037e-16 1.0605e-14 -0 -9.31223e-16 -0 3.02187e-16)
(3.56932e-16 1.17609e-14 -0 -6.84554e-16 -0 3.27622e-16)
(1.068e-16 1.26321e-14 -0 -3.96566e-16 -0 2.89765e-16)
(-2.24829e-16 1.31246e-14 -0 -2.1077e-17 -0 2.45906e-16)
(-4.91171e-16 1.31444e-14 -0 3.64171e-16 -0 1.27001e-16)
(-8.02569e-16 1.26302e-14 -0 8.05777e-16 -0 -3.20821e-18)
(-1.08402e-15 1.15294e-14 -0 1.27276e-15 -0 -1.88736e-16)
(-1.48246e-15 9.74139e-15 -0 1.81384e-15 -0 -3.31378e-16)
(-1.85712e-15 7.20831e-15 -0 2.26651e-15 -0 -4.09389e-16)
(-1.79911e-15 4.19905e-15 -0 2.34056e-15 -0 -5.41451e-16)
(-1.27363e-15 1.2147e-15 -0 2.07476e-15 -0 -8.01122e-16)
(9.84178e-10 -3.97686e-11 -0 -1.88623e-09 -0 9.02052e-10)
(-2.89284e-10 2.67483e-10 -0 4.78019e-10 -0 -1.88735e-10)
(7.14978e-11 -5.41792e-11 -0 -1.15279e-10 -0 4.37808e-11)
(-1.98846e-11 1.3015e-11 -0 2.93115e-11 -0 -9.42694e-12)
(4.93389e-12 -1.12094e-12 -0 -6.99315e-12 -0 2.05926e-12)
(-1.7119e-12 1.10062e-12 -0 2.11166e-12 -0 -3.99755e-13)
(2.05813e-13 5.06324e-13 -0 -2.8001e-13 -0 7.41966e-14)
(-2.79051e-13 3.31519e-13 -0 2.8795e-13 -0 -8.8993e-15)
(-8.40535e-14 2.17223e-13 -0 8.46846e-14 -0 -6.31143e-16)
(-9.37792e-14 1.05661e-13 -0 9.28463e-14 -0 9.329e-16)
(-5.1463e-14 4.60583e-14 -0 5.20985e-14 -0 -6.3556e-16)
(-3.33299e-14 3.49792e-15 -0 3.31877e-14 -0 1.42177e-16)
(-1.58011e-14 -1.70067e-14 -0 1.59473e-14 -0 -1.46255e-16)
(-5.14389e-15 -2.54534e-14 -0 5.17415e-15 -0 -3.02533e-17)
(1.78309e-15 -2.50895e-14 -0 -1.73551e-15 -0 -4.75835e-17)
(5.46694e-15 -2.02486e-14 -0 -5.47547e-15 -0 8.52695e-18)
(7.14576e-15 -1.29189e-14 -0 -7.1309e-15 -0 -1.48554e-17)
(6.22034e-15 -4.67746e-15 -0 -6.18213e-15 -0 -3.82156e-17)
(2.35298e-15 3.554e-16 -0 -2.45136e-15 -0 9.83816e-17)
(6.00675e-16 -3.27846e-16 -0 -6.71718e-16 -0 7.10425e-17)
)
;
    }
    frontAndBack
    {
        type            empty;
    }
}


// ************************************************************************* //
