/*--------------------------------*- C++ -*----------------------------------*\
| =========                 |                                                 |
| \\      /  F ield         | OpenFOAM: The Open Source CFD Toolbox           |
|  \\    /   O peration     | Version:  2506                                  |
|   \\  /    A nd           | Website:  www.openfoam.com                      |
|    \\/     M anipulation  |                                                 |
\*---------------------------------------------------------------------------*/
FoamFile
{
    version     2.0;
    format      ascii;
    arch        "LSB;label=32;scalar=64";
    class       volScalarField;
    location    "3";
    object      turbulenceProperties:nuEff;
}
// * * * * * * * * * * * * * * * * * * * * * * * * * * * * * * * * * * * * * //

dimensions      [0 2 -1 0 0 0 0];

internalField   nonuniform List<scalar> 
400
(
1.43769e-05
1.43767e-05
1.43767e-05
1.43765e-05
1.43766e-05
1.43763e-05
1.43765e-05
1.43763e-05
1.43763e-05
1.43762e-05
1.43762e-05
1.43762e-05
1.43761e-05
1.43762e-05
1.43761e-05
1.43761e-05
1.43761e-05
1.43761e-05
1.43761e-05
1.43761e-05
1.56564e-05
1.59765e-05
1.59446e-05
1.59318e-05
1.59061e-05
1.58926e-05
1.58681e-05
1.58541e-05
1.58307e-05
1.58163e-05
1.57937e-05
1.57792e-05
1.57572e-05
1.57426e-05
1.57212e-05
1.57067e-05
1.56859e-05
1.56712e-05
1.56608e-05
1.56436e-05
1.72432e-05
1.78312e-05
1.77706e-05
1.77465e-05
1.7698e-05
1.76724e-05
1.76271e-05
1.76003e-05
1.75575e-05
1.753e-05
1.74893e-05
1.74616e-05
1.74223e-05
1.73947e-05
1.73566e-05
1.73292e-05
1.72924e-05
1.72653e-05
1.72469e-05
1.7216e-05
1.8359e-05
1.91908e-05
1.91032e-05
1.90689e-05
1.89997e-05
1.89627e-05
1.88977e-05
1.88598e-05
1.87983e-05
1.87595e-05
1.87015e-05
1.8662e-05
1.86068e-05
1.85672e-05
1.85142e-05
1.8475e-05
1.84238e-05
1.83851e-05
1.83594e-05
1.83162e-05
1.90085e-05
2.0001e-05
1.98959e-05
1.98542e-05
1.97708e-05
1.97264e-05
1.96483e-05
1.96028e-05
1.95288e-05
1.94826e-05
1.94126e-05
1.93659e-05
1.92995e-05
1.92527e-05
1.91892e-05
1.91427e-05
1.90819e-05
1.90356e-05
1.90053e-05
1.89541e-05
1.93595e-05
2.04442e-05
2.0329e-05
2.02828e-05
2.01914e-05
2.01424e-05
2.00565e-05
2.00066e-05
1.99257e-05
1.98746e-05
1.97989e-05
1.97469e-05
1.96751e-05
1.96231e-05
1.95547e-05
1.95031e-05
1.94375e-05
1.93865e-05
1.93537e-05
1.9298e-05
1.95556e-05
2.06933e-05
2.05701e-05
2.05232e-05
2.04266e-05
2.03751e-05
2.02848e-05
2.02325e-05
2.01471e-05
2.00944e-05
2.00137e-05
1.99604e-05
1.98839e-05
1.98305e-05
1.97578e-05
1.97045e-05
1.96354e-05
1.95821e-05
1.95478e-05
1.94896e-05
1.96768e-05
2.08471e-05
2.07201e-05
2.06719e-05
2.05721e-05
2.05191e-05
2.04261e-05
2.03722e-05
2.02844e-05
2.02299e-05
2.01469e-05
2.00921e-05
2.00133e-05
1.99585e-05
1.98837e-05
1.98289e-05
1.97579e-05
1.97031e-05
1.96679e-05
1.9608e-05
1.97647e-05
2.09586e-05
2.08292e-05
2.07796e-05
2.06776e-05
2.06236e-05
2.05289e-05
2.04734e-05
2.03841e-05
2.03281e-05
2.02438e-05
2.01876e-05
2.01075e-05
2.00513e-05
1.99752e-05
1.99191e-05
1.98469e-05
1.97908e-05
1.9755e-05
1.9694e-05
1.98395e-05
2.10528e-05
2.09234e-05
2.08708e-05
2.07676e-05
2.07127e-05
2.06159e-05
2.05599e-05
2.04687e-05
2.04117e-05
2.03265e-05
2.02684e-05
2.01879e-05
2.01298e-05
2.00533e-05
1.99957e-05
1.99226e-05
1.98655e-05
1.98291e-05
1.97672e-05
1.9912e-05
2.11456e-05
2.10109e-05
2.096e-05
2.08544e-05
2.07983e-05
2.07003e-05
2.06429e-05
2.05508e-05
2.04927e-05
2.04054e-05
2.03473e-05
2.02646e-05
2.02064e-05
2.01282e-05
2.00699e-05
1.99957e-05
1.99376e-05
1.99007e-05
1.98378e-05
1.99875e-05
2.12404e-05
2.11069e-05
2.10523e-05
2.09455e-05
2.08884e-05
2.07884e-05
2.07303e-05
2.06361e-05
2.05774e-05
2.04886e-05
2.04295e-05
2.03455e-05
2.02862e-05
2.02069e-05
2.01474e-05
2.00722e-05
2.0013e-05
1.99756e-05
1.99117e-05
2.00707e-05
2.13472e-05
2.12081e-05
2.11548e-05
2.10453e-05
2.09872e-05
2.08856e-05
2.0826e-05
2.07305e-05
2.06702e-05
2.05803e-05
2.05196e-05
2.04343e-05
2.03737e-05
2.02933e-05
2.02325e-05
2.01562e-05
2.00958e-05
2.00578e-05
1.99927e-05
2.01644e-05
2.14668e-05
2.13247e-05
2.12701e-05
2.11583e-05
2.10989e-05
2.0995e-05
2.09343e-05
2.08367e-05
2.07752e-05
2.06834e-05
2.06211e-05
2.0535e-05
2.04723e-05
2.03907e-05
2.03285e-05
2.02507e-05
2.01891e-05
2.01504e-05
2.00841e-05
2.02718e-05
2.16031e-05
2.14612e-05
2.14024e-05
2.12882e-05
2.12275e-05
2.11209e-05
2.10587e-05
2.09591e-05
2.08958e-05
2.08019e-05
2.07384e-05
2.06498e-05
2.05861e-05
2.05027e-05
2.04388e-05
2.03596e-05
2.02963e-05
2.02568e-05
2.01891e-05
2.03976e-05
2.17644e-05
2.1619e-05
2.15582e-05
2.14408e-05
2.13783e-05
2.12688e-05
2.12048e-05
2.11022e-05
2.10375e-05
2.09406e-05
2.0876e-05
2.07843e-05
2.07197e-05
2.0633e-05
2.05684e-05
2.04865e-05
2.04219e-05
2.03813e-05
2.03119e-05
2.05486e-05
2.19587e-05
2.18083e-05
2.17454e-05
2.1624e-05
2.15594e-05
2.14461e-05
2.13801e-05
2.1274e-05
2.12072e-05
2.11073e-05
2.10403e-05
2.09461e-05
2.08789e-05
2.07902e-05
2.07229e-05
2.06391e-05
2.05721e-05
2.05304e-05
2.04589e-05
2.07287e-05
2.21888e-05
2.20355e-05
2.19681e-05
2.18426e-05
2.17758e-05
2.16578e-05
2.15898e-05
2.14794e-05
2.14103e-05
2.13067e-05
2.12372e-05
2.11395e-05
2.107e-05
2.09777e-05
2.09083e-05
2.08213e-05
2.07519e-05
2.07088e-05
2.06348e-05
2.09134e-05
2.23729e-05
2.2218e-05
2.21571e-05
2.20341e-05
2.19682e-05
2.18534e-05
2.17851e-05
2.16767e-05
2.16067e-05
2.15049e-05
2.14331e-05
2.13367e-05
2.12641e-05
2.11725e-05
2.10999e-05
2.10121e-05
2.09397e-05
2.08957e-05
2.08194e-05
2.09506e-05
2.09496e-05
2.09497e-05
2.09489e-05
2.09493e-05
2.09483e-05
2.09489e-05
2.09482e-05
2.09485e-05
2.09479e-05
2.09482e-05
2.09479e-05
2.0948e-05
2.09478e-05
2.09479e-05
2.09478e-05
2.09478e-05
2.09478e-05
2.09478e-05
2.09478e-05
)
;

boundaryField
{
    movingWall
    {
        type            calculated;
        value           uniform 1e-05;
    }
    fixedWalls
    {
        type            calculated;
        value           uniform 1e-05;
    }
    frontAndBack
    {
        type            empty;
    }
}


// ************************************************************************* //
