/*--------------------------------*- C++ -*----------------------------------*\
| =========                 |                                                 |
| \\      /  F ield         | OpenFOAM: The Open Source CFD Toolbox           |
|  \\    /   O peration     | Version:  2506                                  |
|   \\  /    A nd           | Website:  www.openfoam.com                      |
|    \\/     M anipulation  |                                                 |
\*---------------------------------------------------------------------------*/
FoamFile
{
    version     2.0;
    format      ascii;
    arch        "LSB;label=32;scalar=64";
    class       volScalarField;
    location    "3";
    object      turbulenceProperties:nut;
}
// * * * * * * * * * * * * * * * * * * * * * * * * * * * * * * * * * * * * * //

dimensions      [0 2 -1 0 0 0 0];

internalField   nonuniform List<scalar> 
400
(
4.37687e-06
4.37672e-06
4.37669e-06
4.37652e-06
4.3766e-06
4.37634e-06
4.37645e-06
4.37631e-06
4.37634e-06
4.37623e-06
4.3762e-06
4.3762e-06
4.3761e-06
4.37616e-06
4.37607e-06
4.37612e-06
4.37606e-06
4.37608e-06
4.37607e-06
4.37607e-06
5.65637e-06
5.9765e-06
5.94459e-06
5.93177e-06
5.90608e-06
5.89263e-06
5.86811e-06
5.85413e-06
5.83066e-06
5.81632e-06
5.7937e-06
5.77917e-06
5.75724e-06
5.74265e-06
5.72124e-06
5.70668e-06
5.68587e-06
5.67124e-06
5.66083e-06
5.6436e-06
7.24317e-06
7.83123e-06
7.77056e-06
7.74649e-06
7.69802e-06
7.6724e-06
7.62706e-06
7.60028e-06
7.55754e-06
7.53005e-06
7.48931e-06
7.4616e-06
7.42228e-06
7.39471e-06
7.35656e-06
7.32924e-06
7.29245e-06
7.26535e-06
7.24689e-06
7.21599e-06
8.35901e-06
9.19077e-06
9.10322e-06
9.06887e-06
8.99971e-06
8.96267e-06
8.89775e-06
8.85976e-06
8.79826e-06
8.75947e-06
8.7015e-06
8.66201e-06
8.60676e-06
8.56721e-06
8.51422e-06
8.47502e-06
8.42379e-06
8.38506e-06
8.35945e-06
8.31623e-06
9.00851e-06
1.0001e-05
9.89591e-06
9.85424e-06
9.77075e-06
9.72643e-06
9.64829e-06
9.60276e-06
9.52876e-06
9.48257e-06
9.41265e-06
9.3659e-06
9.29954e-06
9.25271e-06
9.18923e-06
9.14267e-06
9.0819e-06
9.03557e-06
9.00532e-06
8.95414e-06
9.35954e-06
1.04442e-05
1.0329e-05
1.02828e-05
1.01914e-05
1.01424e-05
1.00565e-05
1.00066e-05
9.92568e-06
9.87463e-06
9.79891e-06
9.74692e-06
9.6751e-06
9.62309e-06
9.55471e-06
9.50312e-06
9.43746e-06
9.38646e-06
9.3537e-06
9.29797e-06
9.55561e-06
1.06933e-05
1.05701e-05
1.05232e-05
1.04266e-05
1.03751e-05
1.02848e-05
1.02325e-05
1.01471e-05
1.00944e-05
1.00137e-05
9.96039e-06
9.88389e-06
9.8305e-06
9.75785e-06
9.70445e-06
9.63544e-06
9.5821e-06
9.54781e-06
9.48956e-06
9.67682e-06
1.08471e-05
1.07201e-05
1.06719e-05
1.05721e-05
1.05191e-05
1.04261e-05
1.03722e-05
1.02844e-05
1.02299e-05
1.01469e-05
1.00921e-05
1.00133e-05
9.95853e-06
9.88373e-06
9.82888e-06
9.75792e-06
9.70307e-06
9.66785e-06
9.60802e-06
9.76474e-06
1.09586e-05
1.08292e-05
1.07796e-05
1.06776e-05
1.06236e-05
1.05289e-05
1.04734e-05
1.03841e-05
1.03281e-05
1.02438e-05
1.01876e-05
1.01075e-05
1.00513e-05
9.9752e-06
9.91908e-06
9.8469e-06
9.79083e-06
9.75499e-06
9.694e-06
9.83947e-06
1.10528e-05
1.09234e-05
1.08708e-05
1.07676e-05
1.07127e-05
1.06159e-05
1.05599e-05
1.04687e-05
1.04117e-05
1.03265e-05
1.02684e-05
1.01879e-05
1.01298e-05
1.00533e-05
9.99571e-06
9.92262e-06
9.86548e-06
9.82913e-06
9.76716e-06
9.912e-06
1.11456e-05
1.10109e-05
1.096e-05
1.08544e-05
1.07983e-05
1.07003e-05
1.06429e-05
1.05508e-05
1.04927e-05
1.04054e-05
1.03473e-05
1.02646e-05
1.02064e-05
1.01282e-05
1.00699e-05
9.99568e-06
9.93756e-06
9.90068e-06
9.83776e-06
9.98748e-06
1.12404e-05
1.11069e-05
1.10523e-05
1.09455e-05
1.08884e-05
1.07884e-05
1.07303e-05
1.06361e-05
1.05774e-05
1.04886e-05
1.04295e-05
1.03455e-05
1.02862e-05
1.02069e-05
1.01474e-05
1.00722e-05
1.0013e-05
9.97558e-06
9.91166e-06
1.00707e-05
1.13472e-05
1.12081e-05
1.11548e-05
1.10453e-05
1.09872e-05
1.08856e-05
1.0826e-05
1.07305e-05
1.06702e-05
1.05803e-05
1.05196e-05
1.04343e-05
1.03737e-05
1.02933e-05
1.02325e-05
1.01562e-05
1.00958e-05
1.00578e-05
9.99274e-06
1.01644e-05
1.14668e-05
1.13247e-05
1.12701e-05
1.11583e-05
1.10989e-05
1.0995e-05
1.09343e-05
1.08367e-05
1.07752e-05
1.06834e-05
1.06211e-05
1.0535e-05
1.04723e-05
1.03907e-05
1.03285e-05
1.02507e-05
1.01891e-05
1.01504e-05
1.00841e-05
1.02718e-05
1.16031e-05
1.14612e-05
1.14024e-05
1.12882e-05
1.12275e-05
1.11209e-05
1.10587e-05
1.09591e-05
1.08958e-05
1.08019e-05
1.07384e-05
1.06498e-05
1.05861e-05
1.05027e-05
1.04388e-05
1.03596e-05
1.02963e-05
1.02568e-05
1.01891e-05
1.03976e-05
1.17644e-05
1.1619e-05
1.15582e-05
1.14408e-05
1.13783e-05
1.12688e-05
1.12048e-05
1.11022e-05
1.10375e-05
1.09406e-05
1.0876e-05
1.07843e-05
1.07197e-05
1.0633e-05
1.05684e-05
1.04865e-05
1.04219e-05
1.03813e-05
1.03119e-05
1.05486e-05
1.19587e-05
1.18083e-05
1.17454e-05
1.1624e-05
1.15594e-05
1.14461e-05
1.13801e-05
1.1274e-05
1.12072e-05
1.11073e-05
1.10403e-05
1.09461e-05
1.08789e-05
1.07902e-05
1.07229e-05
1.06391e-05
1.05721e-05
1.05304e-05
1.04589e-05
1.07287e-05
1.21888e-05
1.20355e-05
1.19681e-05
1.18426e-05
1.17758e-05
1.16578e-05
1.15898e-05
1.14794e-05
1.14103e-05
1.13067e-05
1.12372e-05
1.11395e-05
1.107e-05
1.09777e-05
1.09083e-05
1.08213e-05
1.07519e-05
1.07088e-05
1.06348e-05
1.09134e-05
1.23729e-05
1.2218e-05
1.21571e-05
1.20341e-05
1.19682e-05
1.18534e-05
1.17851e-05
1.16767e-05
1.16067e-05
1.15049e-05
1.14331e-05
1.13367e-05
1.12641e-05
1.11725e-05
1.10999e-05
1.10121e-05
1.09397e-05
1.08957e-05
1.08194e-05
1.09506e-05
1.09496e-05
1.09497e-05
1.09489e-05
1.09493e-05
1.09483e-05
1.09489e-05
1.09482e-05
1.09485e-05
1.09479e-05
1.09482e-05
1.09479e-05
1.0948e-05
1.09478e-05
1.09479e-05
1.09478e-05
1.09478e-05
1.09478e-05
1.09478e-05
1.09478e-05
)
;

boundaryField
{
    movingWall
    {
        type            nutkWallFunction;
        blending        stepwise;
        value           uniform 0;
    }
    fixedWalls
    {
        type            nutkWallFunction;
        blending        stepwise;
        value           uniform 0;
    }
    frontAndBack
    {
        type            empty;
    }
}


// ************************************************************************* //
