/*--------------------------------*- C++ -*----------------------------------*\
| =========                 |                                                 |
| \\      /  F ield         | OpenFOAM: The Open Source CFD Toolbox           |
|  \\    /   O peration     | Version:  2506                                  |
|   \\  /    A nd           | Website:  www.openfoam.com                      |
|    \\/     M anipulation  |                                                 |
\*---------------------------------------------------------------------------*/
FoamFile
{
    version     2.0;
    format      ascii;
    arch        "LSB;label=32;scalar=64";
    class       volScalarField;
    location    "3";
    object      turbulenceProperties:k;
}
// * * * * * * * * * * * * * * * * * * * * * * * * * * * * * * * * * * * * * //

dimensions      [0 2 -2 0 0 0 0];

internalField   nonuniform List<scalar> 
400
(
6.1561e-05
6.15579e-05
6.15551e-05
6.15529e-05
6.15508e-05
6.15488e-05
6.15469e-05
6.1546e-05
6.1544e-05
6.1543e-05
6.15416e-05
6.15411e-05
6.15397e-05
6.15398e-05
6.15387e-05
6.15388e-05
6.15381e-05
6.15382e-05
6.1538e-05
6.1538e-05
0.000103742
0.000103737
0.000103652
0.000103622
0.000103563
0.000103536
0.000103486
0.000103461
0.00010342
0.000103399
0.000103366
0.00010335
0.000103323
0.000103311
0.000103292
0.000103285
0.000103273
0.000103269
0.000103265
0.000103264
0.000171853
0.000171837
0.000171602
0.000171518
0.000171354
0.000171275
0.000171142
0.000171068
0.000170962
0.000170897
0.000170813
0.00017076
0.000170694
0.000170655
0.000170607
0.000170581
0.000170555
0.000170541
0.000170532
0.000170527
0.000230159
0.00023013
0.000229696
0.000229545
0.00022925
0.000229102
0.000228854
0.000228726
0.000228519
0.00022841
0.000228248
0.000228156
0.000228033
0.000227961
0.000227877
0.000227828
0.000227778
0.000227752
0.000227735
0.000227728
0.000268051
0.000268007
0.000267414
0.000267204
0.000266794
0.000266595
0.000266251
0.000266077
0.000265786
0.000265643
0.000265409
0.000265292
0.000265113
0.000265024
0.000264898
0.000264838
0.000264764
0.000264732
0.000264707
0.000264697
0.00028973
0.000289671
0.000288986
0.000288725
0.000288247
0.000288008
0.000287599
0.000287396
0.000287054
0.00028688
0.000286614
0.000286466
0.000286264
0.000286149
0.00028601
0.000285932
0.00028585
0.000285808
0.00028578
0.000285768
0.000302203
0.000302144
0.00030137
0.000301106
0.000300578
0.000300315
0.000299868
0.000299648
0.000299267
0.00029909
0.00029878
0.000298638
0.000298397
0.000298291
0.000298122
0.000298048
0.000297952
0.00029791
0.000297879
0.000297866
0.00031006
0.000309998
0.000309181
0.000308902
0.000308342
0.000308067
0.000307594
0.000307362
0.000306962
0.000306772
0.000306445
0.000306296
0.00030604
0.000305931
0.00030575
0.000305675
0.000305571
0.000305528
0.000305494
0.000305481
0.000315836
0.000315768
0.000314927
0.000314631
0.000314047
0.000313763
0.000313276
0.000313028
0.000312619
0.000312416
0.000312081
0.000311922
0.000311661
0.000311543
0.000311358
0.000311278
0.000311172
0.000311126
0.000311092
0.000311078
0.0003208
0.00032072
0.000319879
0.000319549
0.000318953
0.000318663
0.000318152
0.000317904
0.000317475
0.000317265
0.000316928
0.000316751
0.000316496
0.00031636
0.000316181
0.00031609
0.000315984
0.000315936
0.0003159
0.000315886
0.000325635
0.000325563
0.000324659
0.000324349
0.000323729
0.000323423
0.000322905
0.000322641
0.000322208
0.000321989
0.000321632
0.000321463
0.000321186
0.000321059
0.000320866
0.000320776
0.000320667
0.000320616
0.00032058
0.000320565
0.000330736
0.000330653
0.000329744
0.000329406
0.000328769
0.000328457
0.000327915
0.00032765
0.000327193
0.000326976
0.000326604
0.000326431
0.000326145
0.000326012
0.000325816
0.000325721
0.00032561
0.000325556
0.00032552
0.000325504
0.000336386
0.000336305
0.000335345
0.00033501
0.000334346
0.000334023
0.000333468
0.000333187
0.000332722
0.000332488
0.000332112
0.000331925
0.000331631
0.000331493
0.000331293
0.000331191
0.00033108
0.000331022
0.000330985
0.000330968
0.000342819
0.000342734
0.000341734
0.000341387
0.000340697
0.00034036
0.000339782
0.000339492
0.000339006
0.000338765
0.000338373
0.000338175
0.000337884
0.000337726
0.000337525
0.000337417
0.0003373
0.000337242
0.000337203
0.000337186
0.000350283
0.000350187
0.000349169
0.000348786
0.000348065
0.000347717
0.000347109
0.000346807
0.000346304
0.000346049
0.000345639
0.000345436
0.000345123
0.000344966
0.000344755
0.00034464
0.000344522
0.000344457
0.000344418
0.0003444
0.000359129
0.000359021
0.00035796
0.000357551
0.000356795
0.000356428
0.00035579
0.000355471
0.000354938
0.000354675
0.000354237
0.000354035
0.000353692
0.000353542
0.0003533
0.000353197
0.00035306
0.000353
0.000352956
0.000352938
0.000369883
0.000369769
0.000368638
0.000368205
0.000367402
0.000367013
0.000366333
0.000365997
0.000365428
0.000365151
0.000364686
0.000364468
0.000364111
0.000363943
0.000363698
0.000363578
0.00036344
0.000363372
0.000363326
0.000363307
0.000382978
0.000382845
0.000381671
0.000381179
0.000380325
0.000379914
0.000379177
0.000378826
0.000378211
0.000377918
0.00037742
0.000377187
0.000376801
0.000376627
0.000376355
0.000376236
0.000376081
0.000376013
0.000375962
0.000375942
0.000396631
0.000396571
0.00039532
0.000394869
0.000394001
0.000393581
0.000392846
0.00039248
0.000391854
0.000391548
0.000391048
0.00039079
0.000390408
0.000390206
0.00038994
0.000389801
0.000389644
0.000389569
0.000389517
0.000389495
0.00039931
0.000399252
0.000399234
0.000399206
0.000399189
0.000399169
0.000399152
0.000399146
0.000399127
0.000399126
0.000399112
0.000399111
0.000399103
0.000399102
0.000399099
0.000399098
0.000399097
0.000399097
0.000399096
0.000399096
)
;

boundaryField
{
    movingWall
    {
        type            kqRWallFunction;
        value           nonuniform List<scalar> 
20
(
0.00039931
0.000399252
0.000399234
0.000399206
0.000399189
0.000399169
0.000399152
0.000399146
0.000399127
0.000399126
0.000399112
0.000399111
0.000399103
0.000399102
0.000399099
0.000399098
0.000399097
0.000399097
0.000399096
0.000399096
)
;
    }
    fixedWalls
    {
        type            kqRWallFunction;
        value           nonuniform List<scalar> 
60
(
6.1561e-05
0.000103742
0.000171853
0.000230159
0.000268051
0.00028973
0.000302203
0.00031006
0.000315836
0.0003208
0.000325635
0.000330736
0.000336386
0.000342819
0.000350283
0.000359129
0.000369883
0.000382978
0.000396631
0.00039931
6.1538e-05
0.000103264
0.000170527
0.000227728
0.000264697
0.000285768
0.000297866
0.000305481
0.000311078
0.000315886
0.000320565
0.000325504
0.000330968
0.000337186
0.0003444
0.000352938
0.000363307
0.000375942
0.000389495
0.000399096
6.1561e-05
6.15579e-05
6.15551e-05
6.15529e-05
6.15508e-05
6.15488e-05
6.15469e-05
6.1546e-05
6.1544e-05
6.1543e-05
6.15416e-05
6.15411e-05
6.15397e-05
6.15398e-05
6.15387e-05
6.15388e-05
6.15381e-05
6.15382e-05
6.1538e-05
6.1538e-05
)
;
    }
    frontAndBack
    {
        type            empty;
    }
}


// ************************************************************************* //
