/*--------------------------------*- C++ -*----------------------------------*\
| =========                 |                                                 |
| \\      /  F ield         | OpenFOAM: The Open Source CFD Toolbox           |
|  \\    /   O peration     | Version:  2506                                  |
|   \\  /    A nd           | Website:  www.openfoam.com                      |
|    \\/     M anipulation  |                                                 |
\*---------------------------------------------------------------------------*/
FoamFile
{
    version     2.0;
    format      ascii;
    arch        "LSB;label=32;scalar=64";
    class       volTensorField;
    location    "3";
    object      U2;
}
// * * * * * * * * * * * * * * * * * * * * * * * * * * * * * * * * * * * * * //

dimensions      [0 2 -2 0 0 0 0];

internalField   nonuniform List<tensor> 
400
(
(1 -3.53256e-07 -0 -3.48535e-07 1.23122e-13 0 -0 0 0)
(1 8.48437e-08 -0 8.33442e-08 7.07123e-15 -0 -0 -0 0)
(1 -2.02362e-08 -0 -1.98824e-08 4.02346e-16 0 -0 0 0)
(1 4.95557e-09 -0 4.84231e-09 2.39964e-17 -0 -0 -0 0)
(1 -1.15589e-09 -0 -1.13155e-09 1.30795e-18 0 -0 0 0)
(1 3.25254e-10 -0 3.13927e-10 1.02106e-19 -0 -0 -0 0)
(1 -4.26201e-11 -0 -4.42758e-11 1.88704e-21 0 -0 0 0)
(1 4.07846e-11 -0 3.71062e-11 1.51336e-21 -0 -0 -0 0)
(1 1.32741e-11 -0 1.06645e-11 1.41562e-22 -0 -0 -0 0)
(1 1.37625e-11 -0 1.14892e-11 1.58119e-22 -0 -0 -0 0)
(1 8.36506e-12 -0 6.59176e-12 5.51404e-23 -0 -0 -0 0)
(1 5.47314e-12 -0 4.13069e-12 2.26078e-23 -0 -0 -0 0)
(1 2.95307e-12 -0 2.0117e-12 5.94067e-24 -0 -0 -0 0)
(1 1.20751e-12 -0 6.5055e-13 7.85543e-25 -0 -0 -0 0)
(1 3.59211e-14 -0 -2.10991e-13 -7.57902e-27 0 -0 -0 0)
(1 -6.51602e-13 -0 -6.855e-13 4.46673e-25 0 -0 0 0)
(1 -1.02308e-12 -0 -8.89506e-13 9.10038e-25 0 -0 0 0)
(1 -1.08893e-12 -0 -7.67989e-13 8.36283e-25 0 -0 0 0)
(1 -7.44791e-13 -0 -3.18718e-13 2.37378e-25 0 -0 0 0)
(1 6.02742e-13 -0 -9.2845e-14 -5.59616e-26 0 -0 -0 0)
(1 3.61389e-07 -0 3.57334e-07 1.29136e-13 -0 -0 -0 0)
(1 -8.72564e-08 -0 -8.58275e-08 7.48899e-15 0 -0 0 0)
(1 2.09804e-08 -0 2.0621e-08 4.32635e-16 -0 -0 -0 0)
(1 -5.02358e-09 -0 -4.92018e-09 2.47169e-17 0 -0 0 0)
(1 1.37999e-09 -0 1.33585e-09 1.84346e-18 -0 -0 -0 0)
(1 -2.05594e-10 -0 -2.09047e-10 4.29788e-20 0 -0 0 0)
(1 1.70851e-10 -0 1.56807e-10 2.67906e-20 -0 -0 -0 0)
(1 5.14198e-11 -0 4.2192e-11 2.1695e-21 -0 -0 -0 0)
(1 5.88713e-11 -0 5.03168e-11 2.96221e-21 -0 -0 -0 0)
(1 3.69858e-11 -0 3.01738e-11 1.116e-21 -0 -0 -0 0)
(1 2.62249e-11 -0 2.0779e-11 5.44928e-22 -0 -0 -0 0)
(1 1.59982e-11 -0 1.19135e-11 1.90595e-22 -0 -0 -0 0)
(1 8.75402e-12 -0 5.87965e-12 5.14706e-23 -0 -0 -0 0)
(1 3.42034e-12 -0 1.71198e-12 5.85555e-24 -0 -0 -0 0)
(1 -7.85241e-14 -0 -8.22403e-13 6.45785e-26 0 -0 0 0)
(1 -2.07451e-12 -0 -2.17259e-12 4.50705e-24 0 -0 0 0)
(1 -3.10172e-12 -0 -2.7196e-12 8.43545e-24 0 -0 0 0)
(1 -3.36954e-12 -0 -2.45822e-12 8.28308e-24 0 -0 0 0)
(1 -2.28158e-12 -0 -9.48095e-13 2.16316e-24 0 -0 0 0)
(1 1.79995e-12 -0 -2.85329e-13 -5.13579e-25 0 -0 -0 0)
(1 -3.78965e-07 -0 -3.76009e-07 1.42494e-13 0 -0 0 0)
(1 8.62492e-08 -0 8.54283e-08 7.36812e-15 -0 -0 -0 0)
(1 -2.02739e-08 -0 -2.00807e-08 4.07115e-16 0 -0 0 0)
(1 4.91889e-09 -0 4.8466e-09 2.38399e-17 -0 -0 -0 0)
(1 -8.7064e-10 -0 -8.79022e-10 7.65311e-19 0 -0 0 0)
(1 4.56666e-10 -0 4.2961e-10 1.96188e-19 -0 -0 -0 0)
(1 9.60209e-11 -0 7.74843e-11 7.44011e-21 -0 -0 -0 0)
(1 1.34021e-10 -0 1.16994e-10 1.56797e-20 -0 -0 -0 0)
(1 8.40691e-11 -0 7.03088e-11 5.9108e-21 -0 -0 -0 0)
(1 6.25621e-11 -0 5.12588e-11 3.20686e-21 -0 -0 -0 0)
(1 4.09346e-11 -0 3.20335e-11 1.31128e-21 -0 -0 -0 0)
(1 2.52487e-11 -0 1.85566e-11 4.68531e-22 -0 -0 -0 0)
(1 1.32706e-11 -0 8.58052e-12 1.13869e-22 -0 -0 -0 0)
(1 4.76565e-12 -0 1.99268e-12 9.49641e-24 -0 -0 -0 0)
(1 -8.21585e-13 -0 -2.01619e-12 1.65647e-24 0 -0 0 0)
(1 -3.95528e-12 -0 -4.08531e-12 1.61585e-23 0 -0 0 0)
(1 -5.51232e-12 -0 -4.84077e-12 2.66839e-23 0 -0 0 0)
(1 -5.79479e-12 -0 -4.25164e-12 2.46374e-23 0 -0 0 0)
(1 -3.90268e-12 -0 -1.69054e-12 6.59764e-24 0 -0 0 0)
(1 2.90322e-12 -0 -4.97418e-13 -1.44412e-24 0 -0 -0 0)
(1 4.01035e-07 -0 4.00677e-07 1.60686e-13 -0 -0 -0 0)
(1 -8.60731e-08 -0 -8.60989e-08 7.4108e-15 0 -0 0 0)
(1 2.11377e-08 -0 2.10631e-08 4.45226e-16 -0 -0 -0 0)
(1 -3.86995e-09 -0 -3.93818e-09 1.52406e-17 0 -0 0 0)
(1 1.37526e-09 -0 1.33576e-09 1.83701e-18 -0 -0 -0 0)
(1 8.53488e-11 -0 4.75014e-11 4.05419e-21 -0 -0 -0 0)
(1 2.62065e-10 -0 2.34929e-10 6.15668e-20 -0 -0 -0 0)
(1 1.52958e-10 -0 1.2964e-10 1.98295e-20 -0 -0 -0 0)
(1 1.17387e-10 -0 9.8651e-11 1.15804e-20 -0 -0 -0 0)
(1 8.04112e-11 -0 6.50843e-11 5.23351e-21 -0 -0 -0 0)
(1 5.29033e-11 -0 4.08544e-11 2.16133e-21 -0 -0 -0 0)
(1 3.1697e-11 -0 2.26392e-11 7.17594e-22 -0 -0 -0 0)
(1 1.59074e-11 -0 9.5732e-12 1.52284e-22 -0 -0 -0 0)
(1 4.72709e-12 -0 1.00177e-12 4.73543e-24 -0 -0 -0 0)
(1 -2.53147e-12 -0 -4.09474e-12 1.03657e-23 0 -0 0 0)
(1 -6.47434e-12 -0 -6.58593e-12 4.26395e-23 0 -0 0 0)
(1 -8.30056e-12 -0 -7.33147e-12 6.08553e-23 0 -0 0 0)
(1 -8.47821e-12 -0 -6.3273e-12 5.36442e-23 0 -0 0 0)
(1 -5.66638e-12 -0 -2.5694e-12 1.45592e-23 0 -0 0 0)
(1 3.89477e-12 -0 -7.32126e-13 -2.85146e-24 0 -0 -0 0)
(1 -4.68261e-07 -0 -4.68462e-07 2.19362e-13 0 -0 0 0)
(1 1.07332e-07 -0 1.06658e-07 1.14478e-14 -0 -0 -0 0)
(1 -2.46421e-08 -0 -2.45968e-08 6.06117e-16 0 -0 0 0)
(1 6.75375e-09 -0 6.58832e-09 4.44959e-17 -0 -0 -0 0)
(1 -9.36575e-10 -0 -9.71349e-10 9.09741e-19 0 -0 0 0)
(1 7.33351e-10 -0 6.80711e-10 4.992e-19 -0 -0 -0 0)
(1 1.71527e-10 -0 1.4011e-10 2.40326e-20 -0 -0 -0 0)
(1 2.1476e-10 -0 1.85726e-10 3.98863e-20 -0 -0 -0 0)
(1 1.28344e-10 -0 1.05774e-10 1.35754e-20 -0 -0 -0 0)
(1 9.45201e-11 -0 7.57405e-11 7.159e-21 -0 -0 -0 0)
(1 5.91461e-11 -0 4.4447e-11 2.62887e-21 -0 -0 -0 0)
(1 3.47011e-11 -0 2.36153e-11 8.19477e-22 -0 -0 -0 0)
(1 1.58948e-11 -0 8.16432e-12 1.2977e-22 -0 -0 -0 0)
(1 2.86139e-12 -0 -1.64653e-12 -4.71137e-24 0 -0 -0 0)
(1 -5.49692e-12 -0 -7.33058e-12 4.02956e-23 0 -0 0 0)
(1 -9.83469e-12 -0 -9.87608e-12 9.71282e-23 0 -0 0 0)
(1 -1.16432e-11 -0 -1.03484e-11 1.20489e-22 0 -0 0 0)
(1 -1.14507e-11 -0 -8.67003e-12 9.92781e-23 0 -0 0 0)
(1 -7.57368e-12 -0 -3.63049e-12 2.74962e-23 0 -0 0 0)
(1 4.72219e-12 -0 -9.97985e-13 -4.71268e-24 0 -0 -0 0)
(1 5.24204e-07 -0 5.27677e-07 2.7661e-13 -0 -0 -0 0)
(1 -1.03756e-07 -0 -1.05219e-07 1.0917e-14 0 -0 0 0)
(1 2.51047e-08 -0 2.53856e-08 6.37299e-16 -0 -0 -0 0)
(1 -3.90704e-09 -0 -4.10555e-09 1.60406e-17 0 -0 0 0)
(1 1.43529e-09 -0 1.41588e-09 2.0322e-18 -0 -0 -0 0)
(1 2.13108e-10 -0 1.55796e-10 3.32014e-20 -0 -0 -0 0)
(1 2.98028e-10 -0 2.64026e-10 7.86871e-20 -0 -0 -0 0)
(1 2.00529e-10 -0 1.6819e-10 3.3727e-20 -0 -0 -0 0)
(1 1.40898e-10 -0 1.15368e-10 1.62551e-20 -0 -0 -0 0)
(1 9.70524e-11 -0 7.57103e-11 7.34787e-21 -0 -0 -0 0)
(1 6.02146e-11 -0 4.3409e-11 2.61386e-21 -0 -0 -0 0)
(1 3.32304e-11 -0 2.05473e-11 6.82796e-22 -0 -0 -0 0)
(1 1.29109e-11 -0 4.08078e-12 5.26865e-23 -0 -0 -0 0)
(1 -1.11967e-12 -0 -6.21109e-12 6.95438e-24 0 -0 0 0)
(1 -9.8906e-12 -0 -1.18626e-11 1.17329e-22 0 -0 0 0)
(1 -1.41186e-11 -0 -1.40076e-11 1.97768e-22 0 -0 0 0)
(1 -1.55126e-11 -0 -1.38681e-11 2.15131e-22 0 -0 0 0)
(1 -1.47282e-11 -0 -1.13478e-11 1.67133e-22 0 -0 0 0)
(1 -9.64029e-12 -0 -4.87331e-12 4.69801e-23 0 -0 0 0)
(1 5.36788e-12 -0 -1.29331e-12 -6.94231e-24 0 -0 -0 0)
(0.999999 -6.77582e-07 -0 -6.80839e-07 4.61324e-13 0 -0 0 0)
(1 1.43464e-07 -0 1.44362e-07 2.07107e-14 -0 -0 -0 0)
(1 -3.30407e-08 -0 -3.33154e-08 1.10076e-15 0 -0 0 0)
(1 7.61949e-09 -0 7.62731e-09 5.81162e-17 -0 -0 -0 0)
(1 -1.12995e-09 -0 -1.1918e-09 1.34667e-18 0 -0 0 0)
(1 7.06919e-10 -0 6.64957e-10 4.70071e-19 -0 -0 -0 0)
(1 1.91076e-10 -0 1.52413e-10 2.91226e-20 -0 -0 -0 0)
(1 2.1146e-10 -0 1.78609e-10 3.77687e-20 -0 -0 -0 0)
(1 1.33093e-10 -0 1.05414e-10 1.40298e-20 -0 -0 -0 0)
(1 9.1959e-11 -0 6.89962e-11 6.34482e-21 -0 -0 -0 0)
(1 5.4728e-11 -0 3.64302e-11 1.99375e-21 -0 -0 -0 0)
(1 2.72039e-11 -0 1.34029e-11 3.64611e-22 -0 -0 -0 0)
(1 6.7415e-12 -0 -2.84896e-12 -1.92063e-23 0 -0 -0 0)
(1 -7.29463e-12 -0 -1.27376e-11 9.29161e-23 0 -0 0 0)
(1 -1.57197e-11 -0 -1.76966e-11 2.78187e-22 0 -0 0 0)
(1 -1.93182e-11 -0 -1.89885e-11 3.66824e-22 0 -0 0 0)
(1 -1.99368e-11 -0 -1.79157e-11 3.57181e-22 0 -0 0 0)
(1 -1.82638e-11 -0 -1.42835e-11 2.60871e-22 0 -0 0 0)
(1 -1.18149e-11 -0 -6.29085e-12 7.43259e-23 0 -0 0 0)
(1 5.79927e-12 -0 -1.6182e-12 -9.38438e-24 0 -0 -0 0)
(1 8.46265e-07 -0 8.52781e-07 7.21678e-13 -0 -0 -0 0)
(1 -1.7576e-07 -0 -1.77557e-07 3.12074e-14 0 -0 0 0)
(1 4.20527e-08 -0 4.24146e-08 1.78365e-15 -0 -0 -0 0)
(1 -8.19269e-09 -0 -8.33512e-09 6.8287e-17 0 -0 0 0)
(1 2.29686e-09 -0 2.27051e-09 5.21504e-18 -0 -0 -0 0)
(1 -1.1421e-10 -0 -1.62242e-10 1.85298e-20 0 -0 0 0)
(1 3.23297e-10 -0 2.8497e-10 9.21298e-20 -0 -0 -0 0)
(1 1.53832e-10 -0 1.20133e-10 1.84802e-20 -0 -0 -0 0)
(1 1.24457e-10 -0 9.59124e-11 1.19369e-20 -0 -0 -0 0)
(1 7.66095e-11 -0 5.27855e-11 4.04387e-21 -0 -0 -0 0)
(1 4.33493e-11 -0 2.42458e-11 1.05104e-21 -0 -0 -0 0)
(1 1.67071e-11 -0 2.29584e-12 3.83567e-23 -0 -0 -0 0)
(1 -2.51273e-12 -0 -1.24905e-11 3.13852e-23 0 -0 0 0)
(1 -1.55308e-11 -0 -2.10806e-11 3.27398e-22 0 -0 0 0)
(1 -2.28747e-11 -0 -2.47052e-11 5.65123e-22 0 -0 0 0)
(1 -2.53032e-11 -0 -2.46711e-11 6.24259e-22 0 -0 0 0)
(1 -2.47467e-11 -0 -2.23343e-11 5.52701e-22 0 -0 0 0)
(1 -2.19619e-11 -0 -1.74331e-11 3.82863e-22 0 -0 0 0)
(1 -1.40564e-11 -0 -7.84182e-12 1.10228e-22 0 -0 0 0)
(1 6.01628e-12 -0 -1.96016e-12 -1.17928e-23 0 -0 -0 0)
(0.999999 -1.11273e-06 -0 -1.11801e-06 1.24404e-12 0 -0 0 0)
(1 2.29145e-07 -0 2.31159e-07 5.2969e-14 -0 -0 -0 0)
(1 -5.32027e-08 -0 -5.37644e-08 2.86041e-15 0 -0 0 0)
(1 1.12026e-08 -0 1.13195e-08 1.26808e-16 -0 -0 -0 0)
(1 -1.98654e-09 -0 -2.08188e-09 4.13574e-18 0 -0 0 0)
(1 7.38267e-10 -0 7.07766e-10 5.2252e-19 -0 -0 -0 0)
(1 1.13756e-10 -0 7.23102e-11 8.22572e-21 -0 -0 -0 0)
(1 1.57728e-10 -0 1.25522e-10 1.97983e-20 -0 -0 -0 0)
(1 9.20904e-11 -0 6.34294e-11 5.84124e-21 -0 -0 -0 0)
(1 5.64779e-11 -0 3.26625e-11 1.84471e-21 -0 -0 -0 0)
(1 2.58834e-11 -0 6.64731e-12 1.72055e-22 -0 -0 -0 0)
(1 2.32389e-12 -0 -1.21694e-11 -2.82804e-23 0 -0 -0 0)
(1 -1.44853e-11 -0 -2.44634e-11 3.5436e-22 0 -0 0 0)
(1 -2.55045e-11 -0 -3.09067e-11 7.8826e-22 0 -0 0 0)
(1 -3.10563e-11 -0 -3.26015e-11 1.01248e-21 0 -0 0 0)
(1 -3.18345e-11 -0 -3.08445e-11 9.81919e-22 0 -0 0 0)
(1 -2.97937e-11 -0 -2.69881e-11 8.04075e-22 0 -0 0 0)
(1 -2.56784e-11 -0 -2.06449e-11 5.30128e-22 0 -0 0 0)
(1 -1.626e-11 -0 -9.4619e-12 1.53851e-22 0 -0 0 0)
(1 6.01064e-12 -0 -2.3076e-12 -1.38701e-23 0 -0 -0 0)
(1 1.46475e-06 -0 1.46812e-06 2.15041e-12 -0 -0 -0 0)
(1 -3.05909e-07 -0 -3.07793e-07 9.41569e-14 0 -0 0 0)
(1 7.23349e-08 -0 7.27162e-08 5.25992e-15 -0 -0 -0 0)
(1 -1.45092e-08 -0 -1.47084e-08 2.13406e-16 0 -0 0 0)
(1 3.5231e-09 -0 3.5192e-09 1.23985e-17 -0 -0 -0 0)
(1 -4.96275e-10 -0 -5.49765e-10 2.72835e-19 0 -0 0 0)
(1 2.72564e-10 -0 2.39089e-10 6.51671e-20 -0 -0 -0 0)
(1 6.91477e-11 -0 3.69245e-11 2.55325e-21 -0 -0 -0 0)
(1 6.47286e-11 -0 3.73897e-11 2.42018e-21 -0 -0 -0 0)
(1 2.78675e-11 -0 4.77935e-12 1.33188e-22 -0 -0 -0 0)
(1 3.83768e-12 -0 -1.47455e-11 -5.65884e-23 0 -0 -0 0)
(1 -1.53306e-11 -0 -2.93538e-11 4.5001e-22 0 -0 0 0)
(1 -2.86319e-11 -0 -3.82039e-11 1.09385e-21 0 -0 0 0)
(1 -3.67148e-11 -0 -4.17177e-11 1.53166e-21 0 -0 0 0)
(1 -3.9866e-11 -0 -4.09907e-11 1.63414e-21 0 -0 0 0)
(1 -3.85722e-11 -0 -3.71696e-11 1.43371e-21 0 -0 0 0)
(1 -3.47732e-11 -0 -3.1596e-11 1.09869e-21 0 -0 0 0)
(1 -2.92129e-11 -0 -2.37678e-11 6.94327e-22 0 -0 0 0)
(1 -1.83336e-11 -0 -1.10725e-11 2.03e-22 0 -0 0 0)
(1 5.80267e-12 -0 -2.63628e-12 -1.52974e-23 0 -0 -0 0)
(0.999997 -1.94001e-06 -0 -1.93373e-06 3.75147e-12 0 -0 0 0)
(1 4.16742e-07 -0 4.16387e-07 1.73526e-13 -0 -0 -0 0)
(1 -9.71026e-08 -0 -9.71821e-08 9.43664e-15 0 -0 0 0)
(1 2.11033e-08 -0 2.11206e-08 4.45714e-16 -0 -0 -0 0)
(1 -4.34947e-09 -0 -4.4163e-09 1.92086e-17 0 -0 0 0)
(1 1.14526e-09 -0 1.11925e-09 1.28183e-18 -0 -0 -0 0)
(1 -1.10203e-10 -0 -1.45371e-10 1.60204e-20 0 -0 0 0)
(1 9.08502e-11 -0 6.31203e-11 5.73449e-21 -0 -0 -0 0)
(1 1.10186e-11 -0 -1.40055e-11 -1.54321e-22 0 -0 -0 0)
(1 -2.88321e-12 -0 -2.39546e-11 6.90661e-23 0 -0 0 0)
(1 -2.24459e-11 -0 -3.96478e-11 8.89929e-22 0 -0 0 0)
(1 -3.54514e-11 -0 -4.84271e-11 1.71681e-21 0 -0 0 0)
(1 -4.4132e-11 -0 -5.29087e-11 2.33497e-21 0 -0 0 0)
(1 -4.85393e-11 -0 -5.29039e-11 2.56792e-21 0 -0 0 0)
(1 -4.87444e-11 -0 -4.93393e-11 2.40502e-21 0 -0 0 0)
(1 -4.50815e-11 -0 -4.32506e-11 1.9498e-21 0 -0 0 0)
(1 -3.93839e-11 -0 -3.58828e-11 1.41321e-21 0 -0 0 0)
(1 -3.23481e-11 -0 -2.65968e-11 8.60356e-22 0 -0 0 0)
(1 -2.01322e-11 -0 -1.25577e-11 2.52813e-22 0 -0 0 0)
(1 5.41051e-12 -0 -2.9243e-12 -1.5822e-23 0 -0 -0 0)
(1 2.48422e-06 -0 2.46671e-06 6.12784e-12 -0 -0 -0 0)
(0.999999 -5.38202e-07 -0 -5.36026e-07 2.8849e-13 0 -0 0 0)
(1 1.27181e-07 -0 1.26724e-07 1.61168e-14 -0 -0 -0 0)
(1 -2.69158e-08 -0 -2.69316e-08 7.24888e-16 0 -0 0 0)
(1 6.16659e-09 -0 6.14695e-09 3.79057e-17 -0 -0 -0 0)
(1 -1.28311e-09 -0 -1.31697e-09 1.68982e-18 0 -0 0 0)
(1 2.71333e-10 -0 2.50268e-10 6.79059e-20 -0 -0 -0 0)
(1 -7.08936e-11 -0 -9.54666e-11 6.76797e-21 0 -0 0 0)
(1 -1.98629e-11 -0 -3.99726e-11 7.93973e-22 0 -0 0 0)
(1 -4.35238e-11 -0 -6.18647e-11 2.69259e-21 0 -0 0 0)
(1 -5.06173e-11 -0 -6.56667e-11 3.32387e-21 0 -0 0 0)
(1 -5.704e-11 -0 -6.84577e-11 3.90483e-21 0 -0 0 0)
(1 -6.01178e-11 -0 -6.7736e-11 4.07214e-21 0 -0 0 0)
(1 -6.01574e-11 -0 -6.3683e-11 3.83101e-21 0 -0 0 0)
(1 -5.70523e-11 -0 -5.70447e-11 3.25453e-21 0 -0 0 0)
(1 -5.08498e-11 -0 -4.85997e-11 2.47129e-21 0 -0 0 0)
(1 -4.32203e-11 -0 -3.94766e-11 1.70619e-21 0 -0 0 0)
(1 -3.47958e-11 -0 -2.88875e-11 1.00516e-21 0 -0 0 0)
(1 -2.15231e-11 -0 -1.38152e-11 2.97346e-22 0 -0 0 0)
(1 4.86876e-12 -0 -3.14236e-12 -1.52994e-23 0 -0 -0 0)
(0.999996 -3.10501e-06 -0 -3.06146e-06 9.50592e-12 0 -0 0 0)
(1 6.94714e-07 -0 6.87249e-07 4.77441e-13 -0 -0 -0 0)
(1 -1.64714e-07 -0 -1.62956e-07 2.68411e-14 0 -0 0 0)
(1 3.60835e-08 -0 3.57509e-08 1.29002e-15 -0 -0 -0 0)
(1 -8.39641e-09 -0 -8.3805e-09 7.03661e-17 0 -0 0 0)
(1 1.79386e-09 -0 1.75519e-09 3.14858e-18 -0 -0 -0 0)
(1 -4.68466e-10 -0 -4.90637e-10 2.29847e-19 0 -0 0 0)
(1 1.32395e-11 -0 -5.81459e-12 -7.69824e-23 0 -0 -0 0)
(1 -1.00079e-10 -0 -1.1737e-10 1.17463e-20 0 -0 0 0)
(1 -7.79355e-11 -0 -9.28623e-11 7.23727e-21 0 -0 0 0)
(1 -8.17342e-11 -0 -9.41645e-11 7.69646e-21 0 -0 0 0)
(1 -7.8636e-11 -0 -8.80316e-11 6.92246e-21 0 -0 0 0)
(1 -7.54532e-11 -0 -8.16213e-11 6.15859e-21 0 -0 0 0)
(1 -7.06447e-11 -0 -7.31813e-11 5.16987e-21 0 -0 0 0)
(1 -6.40122e-11 -0 -6.33745e-11 4.05674e-21 0 -0 0 0)
(1 -5.52861e-11 -0 -5.2675e-11 2.9122e-21 0 -0 0 0)
(1 -4.587e-11 -0 -4.19996e-11 1.92652e-21 0 -0 0 0)
(1 -3.63064e-11 -0 -3.04126e-11 1.10417e-21 0 -0 0 0)
(1 -2.23337e-11 -0 -1.46811e-11 3.27883e-22 0 -0 0 0)
(1 4.22273e-12 -0 -3.26747e-12 -1.37976e-23 0 -0 -0 0)
(1 3.53232e-06 -0 3.44783e-06 1.21788e-11 -0 -0 -0 0)
(0.999999 -8.2664e-07 -0 -8.10335e-07 6.69856e-13 0 -0 0 0)
(1 1.93746e-07 -0 1.8993e-07 3.67982e-14 -0 -0 -0 0)
(1 -4.42931e-08 -0 -4.37648e-08 1.93848e-15 0 -0 0 0)
(1 1.00699e-08 -0 9.92353e-09 9.99289e-17 -0 -0 -0 0)
(1 -2.39507e-09 -0 -2.4053e-09 5.76085e-18 0 -0 0 0)
(1 3.46501e-10 -0 3.29976e-10 1.14337e-19 -0 -0 -0 0)
(1 -2.56139e-10 -0 -2.70786e-10 6.93589e-20 0 -0 0 0)
(1 -1.16597e-10 -0 -1.28269e-10 1.49558e-20 0 -0 0 0)
(1 -1.28394e-10 -0 -1.39362e-10 1.78933e-20 0 -0 0 0)
(1 -1.10285e-10 -0 -1.19346e-10 1.3162e-20 0 -0 0 0)
(1 -9.92188e-11 -0 -1.06239e-10 1.05409e-20 0 -0 0 0)
(1 -8.87032e-11 -0 -9.31828e-11 8.26561e-21 0 -0 0 0)
(1 -7.88442e-11 -0 -8.03195e-11 6.33273e-21 0 -0 0 0)
(1 -6.87703e-11 -0 -6.75385e-11 4.64464e-21 0 -0 0 0)
(1 -5.77782e-11 -0 -5.49085e-11 3.17251e-21 0 -0 0 0)
(1 -4.69242e-11 -0 -4.30587e-11 2.0205e-21 0 -0 0 0)
(1 -3.65547e-11 -0 -3.08579e-11 1.128e-21 0 -0 0 0)
(1 -2.23969e-11 -0 -1.50404e-11 3.36858e-22 0 -0 0 0)
(1 3.51273e-12 -0 -3.27586e-12 -1.15072e-23 0 -0 -0 0)
(0.999995 -3.8065e-06 -0 -3.70354e-06 1.40976e-11 0 -0 0 0)
(1 9.24297e-07 -0 9.00467e-07 8.32298e-13 -0 -0 -0 0)
(1 -2.16716e-07 -0 -2.11244e-07 4.57801e-14 0 -0 0 0)
(1 5.27618e-08 -0 5.14197e-08 2.71299e-15 -0 -0 -0 0)
(1 -1.26175e-08 -0 -1.23455e-08 1.55769e-16 0 -0 0 0)
(1 2.71744e-09 -0 2.63966e-09 7.17312e-18 -0 -0 -0 0)
(1 -9.87076e-10 -0 -9.7623e-10 9.63614e-19 0 -0 0 0)
(1 -6.99973e-11 -0 -7.76275e-11 5.43372e-21 0 -0 0 0)
(1 -2.44408e-10 -0 -2.48054e-10 6.06265e-20 0 -0 0 0)
(1 -1.5753e-10 -0 -1.63039e-10 2.56835e-20 0 -0 0 0)
(1 -1.40959e-10 -0 -1.46185e-10 2.06061e-20 0 -0 0 0)
(1 -1.15309e-10 -0 -1.19636e-10 1.3795e-20 0 -0 0 0)
(1 -9.82236e-11 -0 -1.00936e-10 9.91426e-21 0 -0 0 0)
(1 -8.34039e-11 -0 -8.38404e-11 6.99261e-21 0 -0 0 0)
(1 -7.03784e-11 -0 -6.86601e-11 4.83219e-21 0 -0 0 0)
(1 -5.76715e-11 -0 -5.46886e-11 3.15398e-21 0 -0 0 0)
(1 -4.59245e-11 -0 -4.22345e-11 1.9396e-21 0 -0 0 0)
(1 -3.53143e-11 -0 -3.0031e-11 1.06052e-21 0 -0 0 0)
(1 -2.15538e-11 -0 -1.47151e-11 3.17165e-22 0 -0 0 0)
(1 2.80278e-12 -0 -3.14888e-12 -8.82564e-24 0 -0 -0 0)
(1 3.94081e-06 -0 3.83181e-06 1.51004e-11 -0 -0 -0 0)
(0.999999 -9.3506e-07 -0 -9.11375e-07 8.52191e-13 0 -0 0 0)
(1 2.19257e-07 -0 2.13755e-07 4.68672e-14 -0 -0 -0 0)
(1 -5.18487e-08 -0 -5.07189e-08 2.62971e-15 0 -0 0 0)
(1 1.13739e-08 -0 1.11561e-08 1.26888e-16 -0 -0 -0 0)
(1 -3.1967e-09 -0 -3.14006e-09 1.00378e-17 0 -0 0 0)
(1 1.85438e-10 -0 1.94017e-10 3.5978e-20 -0 -0 -0 0)
(1 -4.75955e-10 -0 -4.6696e-10 2.22252e-19 0 -0 0 0)
(1 -2.40561e-10 -0 -2.36133e-10 5.68044e-20 0 -0 0 0)
(1 -2.10895e-10 -0 -2.10535e-10 4.44008e-20 0 -0 0 0)
(1 -1.58282e-10 -0 -1.59528e-10 2.52504e-20 0 -0 0 0)
(1 -1.25754e-10 -0 -1.27452e-10 1.60277e-20 0 -0 0 0)
(1 -1.01317e-10 -0 -1.02364e-10 1.03713e-20 0 -0 0 0)
(1 -8.2897e-11 -0 -8.24399e-11 6.83402e-21 0 -0 0 0)
(1 -6.78532e-11 -0 -6.5844e-11 4.46772e-21 0 -0 0 0)
(1 -5.43951e-11 -0 -5.14909e-11 2.80085e-21 0 -0 0 0)
(1 -4.25814e-11 -0 -3.92273e-11 1.67035e-21 0 -0 0 0)
(1 -3.23493e-11 -0 -2.76489e-11 8.94424e-22 0 -0 0 0)
(1 -1.96841e-11 -0 -1.36283e-11 2.68261e-22 0 -0 0 0)
(1 2.12243e-12 -0 -2.87136e-12 -6.09428e-24 0 -0 -0 0)
(0.999994 -4.08832e-06 -0 -3.9695e-06 1.62287e-11 0 -0 0 0)
(1 1.03375e-06 -0 1.00236e-06 1.0362e-12 -0 -0 -0 0)
(0.999999 -2.46391e-07 -0 -2.38852e-07 5.88511e-14 0 -0 0 0)
(1 6.1066e-08 -0 5.91546e-08 3.61234e-15 -0 -0 -0 0)
(1 -1.62465e-08 -0 -1.56864e-08 2.54849e-16 0 -0 0 0)
(1 2.94869e-09 -0 2.87789e-09 8.48601e-18 -0 -0 -0 0)
(1 -1.6052e-09 -0 -1.53465e-09 2.46342e-18 0 -0 0 0)
(1 -2.20481e-10 -0 -2.05303e-10 4.52655e-20 0 -0 0 0)
(1 -3.82009e-10 -0 -3.67291e-10 1.40308e-19 0 -0 0 0)
(1 -2.12077e-10 -0 -2.06852e-10 4.38686e-20 0 -0 0 0)
(1 -1.689e-10 -0 -1.66716e-10 2.81583e-20 0 -0 0 0)
(1 -1.22739e-10 -0 -1.22291e-10 1.50099e-20 0 -0 0 0)
(1 -9.59102e-11 -0 -9.56303e-11 9.17192e-21 0 -0 0 0)
(1 -7.56574e-11 -0 -7.45997e-11 5.64402e-21 0 -0 0 0)
(1 -6.04419e-11 -0 -5.8369e-11 3.52793e-21 0 -0 0 0)
(1 -4.75421e-11 -0 -4.49213e-11 2.13565e-21 0 -0 0 0)
(1 -3.67147e-11 -0 -3.38693e-11 1.2435e-21 0 -0 0 0)
(1 -2.77158e-11 -0 -2.3789e-11 6.59331e-22 0 -0 0 0)
(1 -1.68386e-11 -0 -1.17467e-11 1.97798e-22 0 -0 0 0)
(1 1.5262e-12 -0 -2.41814e-12 -3.69057e-24 0 -0 -0 0)
(1 4.20201e-06 -0 4.07449e-06 1.7121e-11 -0 -0 -0 0)
(1 -1.07661e-06 -0 -1.0412e-06 1.12097e-12 0 -0 0 0)
(1 2.49987e-07 -0 2.42034e-07 6.05054e-14 -0 -0 -0 0)
(1 -6.96553e-08 -0 -6.69665e-08 4.66458e-15 0 -0 0 0)
(1 1.39996e-08 -0 1.35886e-08 1.90235e-16 -0 -0 -0 0)
(1 -5.63904e-09 -0 -5.35807e-09 3.02144e-17 0 -0 0 0)
(1 2.56494e-10 -0 2.70699e-10 6.94327e-20 -0 -0 -0 0)
(1 -8.05623e-10 -0 -7.58959e-10 6.11435e-19 0 -0 0 0)
(1 -2.49185e-10 -0 -2.35535e-10 5.86916e-20 0 -0 0 0)
(1 -2.37484e-10 -0 -2.27655e-10 5.40644e-20 0 -0 0 0)
(1 -1.42949e-10 -0 -1.39246e-10 1.9905e-20 0 -0 0 0)
(1 -1.08823e-10 -0 -1.06888e-10 1.16319e-20 0 -0 0 0)
(1 -7.9674e-11 -0 -7.85818e-11 6.26093e-21 0 -0 0 0)
(1 -6.19421e-11 -0 -6.0569e-11 3.75177e-21 0 -0 0 0)
(1 -4.83001e-11 -0 -4.63964e-11 2.24095e-21 0 -0 0 0)
(1 -3.75224e-11 -0 -3.53495e-11 1.3264e-21 0 -0 0 0)
(1 -2.86674e-11 -0 -2.64292e-11 7.57658e-22 0 -0 0 0)
(1 -2.14695e-11 -0 -1.84544e-11 3.96207e-22 0 -0 0 0)
(1 -1.30384e-11 -0 -9.15189e-12 1.19326e-22 0 -0 0 0)
(1 9.90406e-13 -0 -1.79876e-12 -1.7815e-24 0 -0 -0 0)
(0.999997 -4.07095e-06 -0 -3.95626e-06 1.61058e-11 0 -0 0 0)
(1 8.99721e-07 -0 8.80071e-07 7.91818e-13 -0 -0 -0 0)
(1 -2.17387e-07 -0 -2.12416e-07 4.61765e-14 0 -0 0 0)
(1 3.93295e-08 -0 3.9354e-08 1.54777e-15 -0 -0 -0 0)
(1 -1.20461e-08 -0 -1.1832e-08 1.42529e-16 0 -0 0 0)
(1 2.83805e-10 -0 4.56086e-10 1.2944e-19 -0 -0 -0 0)
(1 -9.9581e-10 -0 -9.6647e-10 9.62421e-19 0 -0 0 0)
(1 -4.09407e-10 -0 -3.68626e-10 1.50918e-19 0 -0 0 0)
(1 -2.33813e-10 -0 -2.23576e-10 5.22751e-20 0 -0 0 0)
(1 -1.6541e-10 -0 -1.56752e-10 2.59283e-20 0 -0 0 0)
(1 -1.00219e-10 -0 -9.75142e-11 9.7728e-21 0 -0 0 0)
(1 -7.39639e-11 -0 -7.23601e-11 5.35204e-21 0 -0 0 0)
(1 -5.23846e-11 -0 -5.17026e-11 2.70842e-21 0 -0 0 0)
(1 -4.01164e-11 -0 -3.93209e-11 1.57741e-21 0 -0 0 0)
(1 -3.06989e-11 -0 -2.96458e-11 9.10095e-22 0 -0 0 0)
(1 -2.35737e-11 -0 -2.23771e-11 5.2751e-22 0 -0 0 0)
(1 -1.77292e-11 -0 -1.66352e-11 2.94929e-22 0 -0 0 0)
(1 -1.33721e-11 -0 -1.18157e-11 1.58e-22 0 -0 0 0)
(1 -8.43466e-12 -0 -6.03125e-12 5.08716e-23 0 -0 0 0)
(1 4.89815e-13 -0 -1.08019e-12 -5.29093e-25 0 -0 -0 0)
(1.00001 4.22781e-06 -0 4.10122e-06 1.73391e-11 -0 -0 -0 0)
(0.999999 -1.1659e-06 -0 -1.12454e-06 1.3111e-12 0 -0 0 0)
(1 2.77502e-07 -0 2.67533e-07 7.42409e-14 -0 -0 -0 0)
(1 -7.91623e-08 -0 -7.58386e-08 6.00356e-15 0 -0 0 0)
(1 1.92396e-08 -0 1.84243e-08 3.54477e-16 -0 -0 -0 0)
(1 -5.93827e-09 -0 -5.63586e-09 3.34673e-17 0 -0 0 0)
(1 1.24928e-09 -0 1.1921e-09 1.48927e-18 -0 -0 -0 0)
(1 -5.70893e-10 -0 -5.3705e-10 3.06598e-19 0 -0 0 0)
(1 2.60973e-11 -0 2.44954e-11 6.39263e-22 -0 -0 -0 0)
(1 -9.01821e-11 -0 -8.5711e-11 7.72959e-21 0 -0 0 0)
(1 -2.70216e-11 -0 -2.67133e-11 7.21835e-22 0 -0 0 0)
(1 -2.77846e-11 -0 -2.73228e-11 7.59154e-22 0 -0 0 0)
(1 -1.70477e-11 -0 -1.70752e-11 2.91092e-22 0 -0 0 0)
(1 -1.35238e-11 -0 -1.34512e-11 1.81912e-22 0 -0 0 0)
(1 -1.0031e-11 -0 -9.86798e-12 9.89853e-23 0 -0 0 0)
(1 -7.66623e-12 -0 -7.44634e-12 5.70854e-23 0 -0 0 0)
(1 -5.69204e-12 -0 -5.55441e-12 3.16159e-23 0 -0 0 0)
(1 -4.40833e-12 -0 -4.078e-12 1.79772e-23 0 -0 0 0)
(1 -2.96684e-12 -0 -2.18274e-12 6.47583e-24 0 -0 0 0)
(1 1.13234e-13 -0 -3.5775e-13 -4.05095e-26 0 -0 -0 0)
)
;

boundaryField
{
    movingWall
    {
        type            calculated;
        value           uniform (1 0 0 0 0 0 0 0 0);
    }
    fixedWalls
    {
        type            calculated;
        value           uniform (1 0 0 0 0 0 0 0 0);
    }
    frontAndBack
    {
        type            empty;
    }
}


// ************************************************************************* //
