/*--------------------------------*- C++ -*----------------------------------*\
| =========                 |                                                 |
| \\      /  F ield         | OpenFOAM: The Open Source CFD Toolbox           |
|  \\    /   O peration     | Version:  2506                                  |
|   \\  /    A nd           | Website:  www.openfoam.com                      |
|    \\/     M anipulation  |                                                 |
\*---------------------------------------------------------------------------*/
FoamFile
{
    version     2.0;
    format      ascii;
    arch        "LSB;label=32;scalar=64";
    class       volVectorField;
    location    "3";
    object      UzeroGrad;
}
// * * * * * * * * * * * * * * * * * * * * * * * * * * * * * * * * * * * * * //

dimensions      [0 1 -1 0 0 0 0];

internalField   nonuniform List<vector> 
400
(
(-1 3.48535e-07 0)
(-1 -8.33442e-08 0)
(-1 1.98824e-08 0)
(-1 -4.84231e-09 0)
(-1 1.13155e-09 0)
(-1 -3.13927e-10 0)
(-1 4.42758e-11 0)
(-1 -3.71062e-11 0)
(-1 -1.06645e-11 0)
(-1 -1.14892e-11 0)
(-1 -6.59176e-12 0)
(-1 -4.13069e-12 0)
(-1 -2.0117e-12 0)
(-1 -6.5055e-13 0)
(-1 2.10991e-13 0)
(-1 6.855e-13 0)
(-1 8.89506e-13 0)
(-1 7.67989e-13 0)
(-1 3.18718e-13 0)
(-1 9.2845e-14 0)
(-1 -3.57334e-07 0)
(-1 8.58275e-08 0)
(-1 -2.0621e-08 0)
(-1 4.92018e-09 0)
(-1 -1.33585e-09 0)
(-1 2.09047e-10 0)
(-1 -1.56807e-10 0)
(-1 -4.2192e-11 0)
(-1 -5.03168e-11 0)
(-1 -3.01738e-11 0)
(-1 -2.0779e-11 0)
(-1 -1.19135e-11 0)
(-1 -5.87965e-12 0)
(-1 -1.71198e-12 0)
(-1 8.22403e-13 0)
(-1 2.17259e-12 0)
(-1 2.7196e-12 0)
(-1 2.45822e-12 0)
(-1 9.48095e-13 0)
(-1 2.85329e-13 0)
(-1 3.76009e-07 0)
(-1 -8.54283e-08 0)
(-1 2.00807e-08 0)
(-1 -4.8466e-09 0)
(-1 8.79022e-10 0)
(-1 -4.2961e-10 0)
(-1 -7.74843e-11 0)
(-1 -1.16994e-10 0)
(-1 -7.03088e-11 0)
(-1 -5.12588e-11 0)
(-1 -3.20335e-11 0)
(-1 -1.85566e-11 0)
(-1 -8.58052e-12 0)
(-1 -1.99268e-12 0)
(-1 2.01619e-12 0)
(-1 4.08531e-12 0)
(-1 4.84077e-12 0)
(-1 4.25164e-12 0)
(-1 1.69054e-12 0)
(-1 4.97418e-13 0)
(-1 -4.00677e-07 0)
(-1 8.60989e-08 0)
(-1 -2.10631e-08 0)
(-1 3.93818e-09 0)
(-1 -1.33576e-09 0)
(-1 -4.75014e-11 0)
(-1 -2.34929e-10 0)
(-1 -1.2964e-10 0)
(-1 -9.8651e-11 0)
(-1 -6.50843e-11 0)
(-1 -4.08544e-11 0)
(-1 -2.26392e-11 0)
(-1 -9.5732e-12 0)
(-1 -1.00177e-12 0)
(-1 4.09474e-12 0)
(-1 6.58593e-12 0)
(-1 7.33147e-12 0)
(-1 6.3273e-12 0)
(-1 2.5694e-12 0)
(-1 7.32126e-13 0)
(-1 4.68462e-07 0)
(-1 -1.06658e-07 0)
(-1 2.45968e-08 0)
(-1 -6.58832e-09 0)
(-1 9.71349e-10 0)
(-1 -6.80711e-10 0)
(-1 -1.4011e-10 0)
(-1 -1.85726e-10 0)
(-1 -1.05774e-10 0)
(-1 -7.57405e-11 0)
(-1 -4.4447e-11 0)
(-1 -2.36153e-11 0)
(-1 -8.16432e-12 0)
(-1 1.64653e-12 0)
(-1 7.33058e-12 0)
(-1 9.87608e-12 0)
(-1 1.03484e-11 0)
(-1 8.67003e-12 0)
(-1 3.63049e-12 0)
(-1 9.97985e-13 0)
(-1 -5.27677e-07 0)
(-1 1.05219e-07 0)
(-1 -2.53856e-08 0)
(-1 4.10555e-09 0)
(-1 -1.41588e-09 0)
(-1 -1.55796e-10 0)
(-1 -2.64026e-10 0)
(-1 -1.6819e-10 0)
(-1 -1.15368e-10 0)
(-1 -7.57103e-11 0)
(-1 -4.3409e-11 0)
(-1 -2.05473e-11 0)
(-1 -4.08078e-12 0)
(-1 6.21109e-12 0)
(-1 1.18626e-11 0)
(-1 1.40076e-11 0)
(-1 1.38681e-11 0)
(-1 1.13478e-11 0)
(-1 4.87331e-12 0)
(-1 1.29331e-12 0)
(-1 6.80839e-07 0)
(-1 -1.44362e-07 0)
(-1 3.33154e-08 0)
(-1 -7.62731e-09 0)
(-1 1.1918e-09 0)
(-1 -6.64957e-10 0)
(-1 -1.52413e-10 0)
(-1 -1.78609e-10 0)
(-1 -1.05414e-10 0)
(-1 -6.89962e-11 0)
(-1 -3.64302e-11 0)
(-1 -1.34029e-11 0)
(-1 2.84896e-12 0)
(-1 1.27376e-11 0)
(-1 1.76966e-11 0)
(-1 1.89885e-11 0)
(-1 1.79157e-11 0)
(-1 1.42835e-11 0)
(-1 6.29085e-12 0)
(-1 1.6182e-12 0)
(-1 -8.52781e-07 0)
(-1 1.77557e-07 0)
(-1 -4.24146e-08 0)
(-1 8.33512e-09 0)
(-1 -2.27051e-09 0)
(-1 1.62242e-10 0)
(-1 -2.8497e-10 0)
(-1 -1.20133e-10 0)
(-1 -9.59124e-11 0)
(-1 -5.27855e-11 0)
(-1 -2.42458e-11 0)
(-1 -2.29584e-12 0)
(-1 1.24905e-11 0)
(-1 2.10806e-11 0)
(-1 2.47052e-11 0)
(-1 2.46711e-11 0)
(-1 2.23343e-11 0)
(-1 1.74331e-11 0)
(-1 7.84182e-12 0)
(-1 1.96016e-12 0)
(-0.999999 1.11801e-06 0)
(-1 -2.31159e-07 0)
(-1 5.37644e-08 0)
(-1 -1.13195e-08 0)
(-1 2.08188e-09 0)
(-1 -7.07766e-10 0)
(-1 -7.23102e-11 0)
(-1 -1.25522e-10 0)
(-1 -6.34294e-11 0)
(-1 -3.26625e-11 0)
(-1 -6.64731e-12 0)
(-1 1.21694e-11 0)
(-1 2.44634e-11 0)
(-1 3.09067e-11 0)
(-1 3.26015e-11 0)
(-1 3.08445e-11 0)
(-1 2.69881e-11 0)
(-1 2.06449e-11 0)
(-1 9.4619e-12 0)
(-1 2.3076e-12 0)
(-1 -1.46812e-06 0)
(-1 3.07794e-07 0)
(-1 -7.27162e-08 0)
(-1 1.47084e-08 0)
(-1 -3.5192e-09 0)
(-1 5.49765e-10 0)
(-1 -2.39089e-10 0)
(-1 -3.69245e-11 0)
(-1 -3.73897e-11 0)
(-1 -4.77935e-12 0)
(-1 1.47455e-11 0)
(-1 2.93538e-11 0)
(-1 3.82039e-11 0)
(-1 4.17177e-11 0)
(-1 4.09907e-11 0)
(-1 3.71696e-11 0)
(-1 3.1596e-11 0)
(-1 2.37678e-11 0)
(-1 1.10725e-11 0)
(-1 2.63628e-12 0)
(-0.999999 1.93373e-06 0)
(-1 -4.16386e-07 0)
(-1 9.71821e-08 0)
(-1 -2.11206e-08 0)
(-1 4.4163e-09 0)
(-1 -1.11925e-09 0)
(-1 1.45371e-10 0)
(-1 -6.31203e-11 0)
(-1 1.40055e-11 0)
(-1 2.39546e-11 0)
(-1 3.96478e-11 0)
(-1 4.84271e-11 0)
(-1 5.29087e-11 0)
(-1 5.29039e-11 0)
(-1 4.93393e-11 0)
(-1 4.32506e-11 0)
(-1 3.58828e-11 0)
(-1 2.65968e-11 0)
(-1 1.25577e-11 0)
(-1 2.9243e-12 0)
(-1 -2.46671e-06 0)
(-1 5.36026e-07 0)
(-1 -1.26724e-07 0)
(-1 2.69316e-08 0)
(-1 -6.14695e-09 0)
(-1 1.31697e-09 0)
(-1 -2.50268e-10 0)
(-1 9.54666e-11 0)
(-1 3.99726e-11 0)
(-1 6.18647e-11 0)
(-1 6.56667e-11 0)
(-1 6.84577e-11 0)
(-1 6.7736e-11 0)
(-1 6.3683e-11 0)
(-1 5.70447e-11 0)
(-1 4.85997e-11 0)
(-1 3.94766e-11 0)
(-1 2.88875e-11 0)
(-1 1.38152e-11 0)
(-1 3.14236e-12 0)
(-0.999998 3.06147e-06 0)
(-1 -6.87248e-07 0)
(-1 1.62956e-07 0)
(-1 -3.57509e-08 0)
(-1 8.3805e-09 0)
(-1 -1.75519e-09 0)
(-1 4.90637e-10 0)
(-1 5.81459e-12 0)
(-1 1.1737e-10 0)
(-1 9.28623e-11 0)
(-1 9.41645e-11 0)
(-1 8.80316e-11 0)
(-1 8.16213e-11 0)
(-1 7.31813e-11 0)
(-1 6.33745e-11 0)
(-1 5.2675e-11 0)
(-1 4.19996e-11 0)
(-1 3.04126e-11 0)
(-1 1.46811e-11 0)
(-1 3.26747e-12 0)
(-1 -3.44782e-06 0)
(-1 8.10335e-07 0)
(-1 -1.8993e-07 0)
(-1 4.37648e-08 0)
(-1 -9.92353e-09 0)
(-1 2.4053e-09 0)
(-1 -3.29976e-10 0)
(-1 2.70786e-10 0)
(-1 1.28269e-10 0)
(-1 1.39362e-10 0)
(-1 1.19346e-10 0)
(-1 1.06239e-10 0)
(-1 9.31828e-11 0)
(-1 8.03195e-11 0)
(-1 6.75385e-11 0)
(-1 5.49085e-11 0)
(-1 4.30587e-11 0)
(-1 3.08579e-11 0)
(-1 1.50404e-11 0)
(-1 3.27586e-12 0)
(-0.999998 3.70355e-06 0)
(-1 -9.00466e-07 0)
(-1 2.11244e-07 0)
(-1 -5.14197e-08 0)
(-1 1.23455e-08 0)
(-1 -2.63966e-09 0)
(-1 9.7623e-10 0)
(-1 7.76275e-11 0)
(-1 2.48054e-10 0)
(-1 1.63039e-10 0)
(-1 1.46185e-10 0)
(-1 1.19636e-10 0)
(-1 1.00936e-10 0)
(-1 8.38404e-11 0)
(-1 6.86601e-11 0)
(-1 5.46886e-11 0)
(-1 4.22345e-11 0)
(-1 3.0031e-11 0)
(-1 1.47151e-11 0)
(-1 3.14888e-12 0)
(-1 -3.8318e-06 0)
(-1 9.11375e-07 0)
(-1 -2.13755e-07 0)
(-1 5.07189e-08 0)
(-1 -1.11561e-08 0)
(-1 3.14006e-09 0)
(-1 -1.94017e-10 0)
(-1 4.6696e-10 0)
(-1 2.36133e-10 0)
(-1 2.10535e-10 0)
(-1 1.59528e-10 0)
(-1 1.27452e-10 0)
(-1 1.02364e-10 0)
(-1 8.24399e-11 0)
(-1 6.5844e-11 0)
(-1 5.14909e-11 0)
(-1 3.92273e-11 0)
(-1 2.76489e-11 0)
(-1 1.36283e-11 0)
(-1 2.87136e-12 0)
(-0.999997 3.96951e-06 0)
(-1 -1.00236e-06 0)
(-1 2.38853e-07 0)
(-1 -5.91546e-08 0)
(-1 1.56864e-08 0)
(-1 -2.87789e-09 0)
(-1 1.53465e-09 0)
(-1 2.05303e-10 0)
(-1 3.67291e-10 0)
(-1 2.06852e-10 0)
(-1 1.66716e-10 0)
(-1 1.22291e-10 0)
(-1 9.56303e-11 0)
(-1 7.45997e-11 0)
(-1 5.8369e-11 0)
(-1 4.49213e-11 0)
(-1 3.38693e-11 0)
(-1 2.3789e-11 0)
(-1 1.17467e-11 0)
(-1 2.41814e-12 0)
(-1 -4.07448e-06 0)
(-1 1.0412e-06 0)
(-1 -2.42034e-07 0)
(-1 6.69665e-08 0)
(-1 -1.35886e-08 0)
(-1 5.35807e-09 0)
(-1 -2.70699e-10 0)
(-1 7.58959e-10 0)
(-1 2.35535e-10 0)
(-1 2.27655e-10 0)
(-1 1.39246e-10 0)
(-1 1.06888e-10 0)
(-1 7.85818e-11 0)
(-1 6.0569e-11 0)
(-1 4.63964e-11 0)
(-1 3.53495e-11 0)
(-1 2.64292e-11 0)
(-1 1.84544e-11 0)
(-1 9.15189e-12 0)
(-1 1.79876e-12 0)
(-0.999999 3.95627e-06 0)
(-1 -8.80071e-07 0)
(-1 2.12416e-07 0)
(-1 -3.9354e-08 0)
(-1 1.1832e-08 0)
(-1 -4.56086e-10 0)
(-1 9.6647e-10 0)
(-1 3.68626e-10 0)
(-1 2.23576e-10 0)
(-1 1.56752e-10 0)
(-1 9.75142e-11 0)
(-1 7.23601e-11 0)
(-1 5.17026e-11 0)
(-1 3.93209e-11 0)
(-1 2.96458e-11 0)
(-1 2.23771e-11 0)
(-1 1.66352e-11 0)
(-1 1.18157e-11 0)
(-1 6.03125e-12 0)
(-1 1.08019e-12 0)
(-1 -4.10121e-06 0)
(-0.999999 1.12454e-06 0)
(-1 -2.67533e-07 0)
(-1 7.58386e-08 0)
(-1 -1.84243e-08 0)
(-1 5.63586e-09 0)
(-1 -1.1921e-09 0)
(-1 5.3705e-10 0)
(-1 -2.44954e-11 0)
(-1 8.5711e-11 0)
(-1 2.67133e-11 0)
(-1 2.73228e-11 0)
(-1 1.70752e-11 0)
(-1 1.34512e-11 0)
(-1 9.86798e-12 0)
(-1 7.44634e-12 0)
(-1 5.55441e-12 0)
(-1 4.078e-12 0)
(-1 2.18274e-12 0)
(-1 3.5775e-13 0)
)
;

boundaryField
{
    movingWall
    {
        type            zeroGradient;
    }
    fixedWalls
    {
        type            zeroGradient;
    }
    frontAndBack
    {
        type            empty;
    }
}


// ************************************************************************* //
