/*--------------------------------*- C++ -*----------------------------------*\
| =========                 |                                                 |
| \\      /  F ield         | OpenFOAM: The Open Source CFD Toolbox           |
|  \\    /   O peration     | Version:  2506                                  |
|   \\  /    A nd           | Website:  www.openfoam.com                      |
|    \\/     M anipulation  |                                                 |
\*---------------------------------------------------------------------------*/
FoamFile
{
    version     2.0;
    format      ascii;
    arch        "LSB;label=32;scalar=64";
    class       volVectorField;
    location    "3";
    object      vorticityField;
}
// * * * * * * * * * * * * * * * * * * * * * * * * * * * * * * * * * * * * * //

dimensions      [0 0 -1 0 0 0 0];

internalField   nonuniform List<vector> 
400
(
(0 -0 3.38741e-05)
(0 -0 -3.47744e-05)
(0 -0 8.66739e-06)
(0 -0 -2.04048e-06)
(0 -0 5.86514e-07)
(0 -0 -9.70925e-08)
(0 -0 6.34582e-08)
(0 -0 8.75792e-09)
(0 -0 1.39865e-08)
(0 -0 5.54419e-09)
(0 -0 3.05398e-09)
(0 -0 6.13183e-10)
(0 -0 -5.12707e-10)
(0 -0 -1.06438e-09)
(0 -0 -1.13627e-09)
(0 -0 -9.6027e-10)
(0 -0 -6.53846e-10)
(0 -0 -3.28915e-10)
(0 -0 -9.04724e-11)
(0 -0 -7.79107e-11)
(0 -0 -1.91506e-05)
(0 -0 3.13711e-05)
(0 -0 -7.28403e-06)
(0 -0 1.69793e-06)
(0 -0 -3.93378e-07)
(0 -0 9.42687e-08)
(0 -0 -2.01235e-08)
(0 -0 6.55077e-09)
(0 -0 2.60275e-11)
(0 -0 1.35761e-09)
(0 -0 8.10268e-10)
(0 -0 7.0229e-10)
(0 -0 4.84505e-10)
(0 -0 3.0613e-10)
(0 -0 1.56899e-10)
(0 -0 4.93428e-11)
(0 -0 -4.95805e-11)
(0 -0 -2.11737e-10)
(0 -0 -2.26451e-10)
(0 -0 -1.2196e-10)
(0 -0 3.41891e-05)
(0 -0 -3.63931e-05)
(0 -0 8.47147e-06)
(0 -0 -1.97112e-06)
(0 -0 4.62438e-07)
(0 -0 -1.05456e-07)
(0 -0 2.7329e-08)
(0 -0 -3.98235e-09)
(0 -0 3.25952e-09)
(0 -0 1.30364e-09)
(0 -0 1.47814e-09)
(0 -0 1.09058e-09)
(0 -0 8.0565e-10)
(0 -0 5.01388e-10)
(0 -0 2.56354e-10)
(0 -0 7.42369e-11)
(0 -0 -9.24643e-11)
(0 -0 -3.64354e-10)
(0 -0 -3.9258e-10)
(0 -0 -2.16817e-10)
(0 -0 -4.25754e-05)
(0 -0 4.00298e-05)
(0 -0 -9.21804e-06)
(0 -0 2.12987e-06)
(0 -0 -4.88916e-07)
(0 -0 1.16654e-07)
(0 -0 -2.35705e-08)
(0 -0 8.73026e-09)
(0 -0 1.06989e-09)
(0 -0 2.53367e-09)
(0 -0 1.80357e-09)
(0 -0 1.50775e-09)
(0 -0 1.06268e-09)
(0 -0 6.57781e-10)
(0 -0 3.16497e-10)
(0 -0 6.6012e-11)
(0 -0 -1.63692e-10)
(0 -0 -5.38196e-10)
(0 -0 -5.78572e-10)
(0 -0 -3.27578e-10)
(0 -0 3.53527e-05)
(0 -0 -4.28471e-05)
(0 -0 9.64702e-06)
(0 -0 -2.161e-06)
(0 -0 4.87521e-07)
(0 -0 -1.04316e-07)
(0 -0 2.70721e-08)
(0 -0 -1.94839e-09)
(0 -0 4.11472e-09)
(0 -0 2.46362e-09)
(0 -0 2.34023e-09)
(0 -0 1.80179e-09)
(0 -0 1.28528e-09)
(0 -0 7.68512e-10)
(0 -0 3.40728e-10)
(0 -0 2.5261e-11)
(0 -0 -2.62526e-10)
(0 -0 -7.34869e-10)
(0 -0 -7.89675e-10)
(0 -0 -4.59785e-10)
(0 -0 -7.75417e-05)
(0 -0 5.76553e-05)
(0 -0 -1.32139e-05)
(0 -0 3.03383e-06)
(0 -0 -6.91224e-07)
(0 -0 1.63222e-07)
(0 -0 -3.28811e-08)
(0 -0 1.20984e-08)
(0 -0 1.4726e-09)
(0 -0 3.53578e-09)
(0 -0 2.51157e-09)
(0 -0 2.08266e-09)
(0 -0 1.43055e-09)
(0 -0 8.28461e-10)
(0 -0 3.1743e-10)
(0 -0 -5.69219e-11)
(0 -0 -3.97599e-10)
(0 -0 -9.5838e-10)
(0 -0 -1.02619e-09)
(0 -0 -6.13138e-10)
(0 -0 7.92873e-05)
(0 -0 -6.91062e-05)
(0 -0 1.56771e-05)
(0 -0 -3.54151e-06)
(0 -0 8.03515e-07)
(0 -0 -1.75779e-07)
(0 -0 4.43181e-08)
(0 -0 -5.05938e-09)
(0 -0 5.71913e-09)
(0 -0 2.90994e-09)
(0 -0 2.94329e-09)
(0 -0 2.20098e-09)
(0 -0 1.52592e-09)
(0 -0 8.28148e-10)
(0 -0 2.48032e-10)
(0 -0 -1.79055e-10)
(0 -0 -5.65204e-10)
(0 -0 -1.20422e-09)
(0 -0 -1.28502e-09)
(0 -0 -7.87002e-10)
(0 -0 -9.93802e-05)
(0 -0 8.62871e-05)
(0 -0 -1.94438e-05)
(0 -0 4.37183e-06)
(0 -0 -9.74559e-07)
(0 -0 2.22517e-07)
(0 -0 -4.45181e-08)
(0 -0 1.48464e-08)
(0 -0 1.48497e-09)
(0 -0 4.01784e-09)
(0 -0 2.85105e-09)
(0 -0 2.3187e-09)
(0 -0 1.52525e-09)
(0 -0 7.71118e-10)
(0 -0 1.28171e-10)
(0 -0 -3.41821e-10)
(0 -0 -7.64953e-10)
(0 -0 -1.46782e-09)
(0 -0 -1.559e-09)
(0 -0 -9.75563e-10)
(0 -0 0.000146883)
(0 -0 -0.000117793)
(0 -0 2.68686e-05)
(0 -0 -6.10983e-06)
(0 -0 1.3918e-06)
(0 -0 -3.10722e-07)
(0 -0 7.51711e-08)
(0 -0 -1.20272e-08)
(0 -0 7.47257e-09)
(0 -0 2.69923e-09)
(0 -0 3.15274e-09)
(0 -0 2.23325e-09)
(0 -0 1.47499e-09)
(0 -0 6.52614e-10)
(0 -0 -3.30032e-11)
(0 -0 -5.36295e-10)
(0 -0 -9.85562e-10)
(0 -0 -1.73663e-09)
(0 -0 -1.83706e-09)
(0 -0 -1.17172e-09)
(0 -0 -0.000180225)
(0 -0 0.000151899)
(0 -0 -3.47029e-05)
(0 -0 7.91155e-06)
(0 -0 -1.79541e-06)
(0 -0 4.11615e-07)
(0 -0 -8.86131e-08)
(0 -0 2.46715e-08)
(0 -0 -9.83485e-10)
(0 -0 4.44298e-09)
(0 -0 2.62995e-09)
(0 -0 2.21282e-09)
(0 -0 1.3183e-09)
(0 -0 4.90178e-10)
(0 -0 -2.3073e-10)
(0 -0 -7.52423e-10)
(0 -0 -1.21591e-09)
(0 -0 -1.99724e-09)
(0 -0 -2.10567e-09)
(0 -0 -1.36489e-09)
(0 -0 0.000223368)
(0 -0 -0.000197844)
(0 -0 4.56298e-05)
(0 -0 -1.04993e-05)
(0 -0 2.41474e-06)
(0 -0 -5.49833e-07)
(0 -0 1.29758e-07)
(0 -0 -2.53666e-08)
(0 -0 9.98129e-09)
(0 -0 1.66195e-09)
(0 -0 2.99185e-09)
(0 -0 1.88882e-09)
(0 -0 1.15052e-09)
(0 -0 2.78461e-10)
(0 -0 -4.45786e-10)
(0 -0 -9.74176e-10)
(0 -0 -1.43726e-09)
(0 -0 -2.23006e-09)
(0 -0 -2.34667e-09)
(0 -0 -1.54183e-09)
(0 -0 -0.000270865)
(0 -0 0.000250127)
(0 -0 -5.80634e-05)
(0 -0 1.34489e-05)
(0 -0 -3.10773e-06)
(0 -0 7.20286e-07)
(0 -0 -1.62687e-07)
(0 -0 4.10862e-08)
(0 -0 -5.73059e-09)
(0 -0 4.8142e-09)
(0 -0 1.90018e-09)
(0 -0 1.80734e-09)
(0 -0 8.70382e-10)
(0 -0 6.29485e-11)
(0 -0 -6.63304e-10)
(0 -0 -1.17793e-09)
(0 -0 -1.62642e-09)
(0 -0 -2.41224e-09)
(0 -0 -2.54166e-09)
(0 -0 -1.6895e-09)
(0 -0 0.000294823)
(0 -0 -0.000302787)
(0 -0 7.10986e-05)
(0 -0 -1.66568e-05)
(0 -0 3.8976e-06)
(0 -0 -9.0809e-07)
(0 -0 2.14139e-07)
(0 -0 -4.68183e-08)
(0 -0 1.3961e-08)
(0 -0 -2.58017e-10)
(0 -0 2.60819e-09)
(0 -0 1.25187e-09)
(0 -0 6.61925e-10)
(0 -0 -1.76124e-10)
(0 -0 -8.56456e-10)
(0 -0 -1.3474e-09)
(0 -0 -1.766e-09)
(0 -0 -2.52496e-09)
(0 -0 -2.66648e-09)
(0 -0 -1.78938e-09)
(0 -0 -0.000288886)
(0 -0 0.000334216)
(0 -0 -7.99463e-05)
(0 -0 1.90762e-05)
(0 -0 -4.53968e-06)
(0 -0 1.0781e-06)
(0 -0 -2.53157e-07)
(0 -0 6.19107e-08)
(0 -0 -1.2108e-08)
(0 -0 5.24259e-09)
(0 -0 8.27278e-10)
(0 -0 1.24955e-09)
(0 -0 3.27902e-10)
(0 -0 -3.56667e-10)
(0 -0 -1.00788e-09)
(0 -0 -1.45105e-09)
(0 -0 -1.82839e-09)
(0 -0 -2.54208e-09)
(0 -0 -2.69912e-09)
(0 -0 -1.82754e-09)
(0 -0 0.000256798)
(0 -0 -0.00034619)
(0 -0 8.29082e-05)
(0 -0 -1.98326e-05)
(0 -0 4.74083e-06)
(0 -0 -1.13266e-06)
(0 -0 2.71635e-07)
(0 -0 -6.33318e-08)
(0 -0 1.69025e-08)
(0 -0 -2.21005e-09)
(0 -0 2.07834e-09)
(0 -0 5.40252e-10)
(0 -0 1.83601e-10)
(0 -0 -5.32307e-10)
(0 -0 -1.08762e-09)
(0 -0 -1.48247e-09)
(0 -0 -1.80692e-09)
(0 -0 -2.45398e-09)
(0 -0 -2.61495e-09)
(0 -0 -1.78293e-09)
(0 -0 -0.000333546)
(0 -0 0.000375917)
(0 -0 -9.05949e-05)
(0 -0 2.18261e-05)
(0 -0 -5.26436e-06)
(0 -0 1.27055e-06)
(0 -0 -3.06622e-07)
(0 -0 7.50468e-08)
(0 -0 -1.69459e-08)
(0 -0 5.36102e-09)
(0 -0 -2.12833e-10)
(0 -0 7.13274e-10)
(0 -0 -1.14408e-10)
(0 -0 -5.94633e-10)
(0 -0 -1.09701e-09)
(0 -0 -1.4192e-09)
(0 -0 -1.6883e-09)
(0 -0 -2.2499e-09)
(0 -0 -2.40246e-09)
(0 -0 -1.64558e-09)
(0 -0 0.00015329)
(0 -0 -0.000340353)
(0 -0 8.10954e-05)
(0 -0 -1.93081e-05)
(0 -0 4.59446e-06)
(0 -0 -1.09379e-06)
(0 -0 2.59957e-07)
(0 -0 -6.13036e-08)
(0 -0 1.52011e-08)
(0 -0 -2.81492e-09)
(0 -0 1.31261e-09)
(0 -0 2.67361e-11)
(0 -0 -1.45197e-10)
(0 -0 -6.42168e-10)
(0 -0 -1.01574e-09)
(0 -0 -1.27394e-09)
(0 -0 -1.48146e-09)
(0 -0 -1.93988e-09)
(0 -0 -2.06578e-09)
(0 -0 -1.4096e-09)
(0 -0 -0.000171348)
(0 -0 0.000353155)
(0 -0 -8.43233e-05)
(0 -0 2.01223e-05)
(0 -0 -4.80522e-06)
(0 -0 1.14677e-06)
(0 -0 -2.74166e-07)
(0 -0 6.56644e-08)
(0 -0 -1.53505e-08)
(0 -0 4.14113e-09)
(0 -0 -6.09725e-10)
(0 -0 3.1247e-10)
(0 -0 -2.51752e-10)
(0 -0 -5.07956e-10)
(0 -0 -8.04382e-10)
(0 -0 -9.77755e-10)
(0 -0 -1.12006e-09)
(0 -0 -1.47761e-09)
(0 -0 -1.61171e-09)
(0 -0 -1.09374e-09)
(0 -0 0.000527695)
(0 -0 -0.000436619)
(0 -0 0.000106792)
(0 -0 -2.61762e-05)
(0 -0 6.42602e-06)
(0 -0 -1.58501e-06)
(0 -0 3.90324e-07)
(0 -0 -9.71778e-08)
(0 -0 2.40298e-08)
(0 -0 -5.88599e-09)
(0 -0 1.62586e-09)
(0 -0 -3.219e-10)
(0 -0 8.07925e-13)
(0 -0 -2.90434e-10)
(0 -0 -4.15052e-10)
(0 -0 -5.05281e-10)
(0 -0 -5.64236e-10)
(0 -0 -8.31252e-10)
(0 -0 -1.03761e-09)
(0 -0 -7.23314e-10)
(0 -0 -0.000428416)
(0 -0 0.000420485)
(0 -0 -0.000119093)
(0 -0 2.84471e-05)
(0 -0 -8.87247e-06)
(0 -0 1.88864e-06)
(0 -0 -8.31477e-07)
(0 -0 5.1056e-08)
(0 -0 -1.35816e-07)
(0 -0 -4.27053e-08)
(0 -0 -4.49343e-08)
(0 -0 -2.74904e-08)
(0 -0 -2.09118e-08)
(0 -0 -1.42854e-08)
(0 -0 -9.81667e-09)
(0 -0 -6.30009e-09)
(0 -0 -3.75662e-09)
(0 -0 -1.89086e-09)
(0 -0 -7.04659e-10)
(0 -0 -2.75679e-10)
)
;

boundaryField
{
    movingWall
    {
        type            calculated;
        value           nonuniform List<vector> 
20
(
(0 -0 -0.0013858)
(0 -0 0.000659246)
(0 -0 -0.000211674)
(0 -0 5.13755e-05)
(0 -0 -1.77497e-05)
(0 -0 3.89513e-06)
(0 -0 -1.80608e-06)
(0 -0 1.37202e-07)
(0 -0 -2.98155e-07)
(0 -0 -8.42119e-08)
(0 -0 -9.48787e-08)
(0 -0 -5.61478e-08)
(0 -0 -4.31493e-08)
(0 -0 -2.91822e-08)
(0 -0 -2.00372e-08)
(0 -0 -1.28071e-08)
(0 -0 -7.61039e-09)
(0 -0 -3.65771e-09)
(0 -0 -1.06276e-09)
(0 -0 -2.77674e-10)
)
;
    }
    fixedWalls
    {
        type            calculated;
        value           nonuniform List<vector> 
60
(
(0 -0 0.000146769)
(0 -0 -0.000134933)
(0 -0 0.000155535)
(0 -0 -0.000171389)
(0 -0 0.000186557)
(0 -0 -0.000246367)
(0 -0 0.000297975)
(0 -0 -0.00037297)
(0 -0 0.000505401)
(0 -0 -0.000651439)
(0 -0 0.000845126)
(0 -0 -0.00106448)
(0 -0 0.00128199)
(0 -0 -0.00140427)
(0 -0 0.00145791)
(0 -0 -0.00157422)
(0 -0 0.00144438)
(0 -0 -0.00149781)
(0 -0 0.00180258)
(0 -0 -0.00177123)
(0 -0 -7.38925e-11)
(0 -0 -1.12749e-10)
(0 -0 -1.96988e-10)
(0 -0 -2.90276e-10)
(0 -0 -3.96131e-10)
(0 -0 -5.13799e-10)
(0 -0 -6.43377e-10)
(0 -0 -7.79428e-10)
(0 -0 -9.17807e-10)
(0 -0 -1.04852e-09)
(0 -0 -1.16335e-09)
(0 -0 -1.25068e-09)
(0 -0 -1.30151e-09)
(0 -0 -1.30625e-09)
(0 -0 -1.25608e-09)
(0 -0 -1.14415e-09)
(0 -0 -9.6037e-10)
(0 -0 -7.18175e-10)
(0 -0 -4.44246e-10)
(0 -0 -1.6473e-10)
(0 -0 4.90613e-05)
(0 -0 -3.89823e-05)
(0 -0 1.02825e-05)
(0 -0 -2.44868e-06)
(0 -0 7.93582e-07)
(0 -0 -1.07393e-07)
(0 -0 1.05997e-07)
(0 -0 2.21638e-08)
(0 -0 2.68457e-08)
(0 -0 1.13806e-08)
(0 -0 6.07753e-09)
(0 -0 1.2658e-09)
(0 -0 -1.00464e-09)
(0 -0 -2.10081e-09)
(0 -0 -2.24174e-09)
(0 -0 -1.88916e-09)
(0 -0 -1.27539e-09)
(0 -0 -5.81903e-10)
(0 -0 -9.94888e-11)
(0 -0 -1.15097e-10)
)
;
    }
    frontAndBack
    {
        type            empty;
    }
}


// ************************************************************************* //
