/*--------------------------------*- C++ -*----------------------------------*\
| =========                 |                                                 |
| \\      /  F ield         | OpenFOAM: The Open Source CFD Toolbox           |
|  \\    /   O peration     | Version:  2506                                  |
|   \\  /    A nd           | Website:  www.openfoam.com                      |
|    \\/     M anipulation  |                                                 |
\*---------------------------------------------------------------------------*/
FoamFile
{
    version     2.0;
    format      ascii;
    arch        "LSB;label=32;scalar=64";
    class       volVectorField;
    location    "3";
    object      wallShearStress;
}
// * * * * * * * * * * * * * * * * * * * * * * * * * * * * * * * * * * * * * //

dimensions      [0 2 -2 0 0 0 0];

internalField   uniform (0 0 0);

boundaryField
{
    movingWall
    {
        type            calculated;
        value           uniform (0 0 0);
    }
    fixedWalls
    {
        type            calculated;
        value           nonuniform List<vector> 
60
(
(2.94698e-10 -1.32059e-09 0)
(1.10017e-10 1.50933e-09 0)
(6.98333e-10 -1.45272e-09 0)
(4.26995e-10 1.49153e-09 0)
(4.96256e-11 -1.88212e-09 0)
(4.628e-10 1.75775e-09 0)
(-1.96488e-09 -2.46696e-09 0)
(1.9801e-09 3.09254e-09 0)
(-3.85746e-09 -3.89005e-09 0)
(5.33637e-09 5.23054e-09 0)
(-7.53657e-09 -7.0186e-09 0)
(9.36482e-09 9.08887e-09 0)
(-1.16741e-08 -1.16719e-08 0)
(1.21024e-08 1.35399e-08 0)
(-1.26166e-08 -1.50493e-08 0)
(1.05978e-08 1.49122e-08 0)
(-1.47359e-08 -1.73123e-08 0)
(2.76235e-09 1.76177e-08 0)
(-7.55302e-09 -1.36243e-08 0)
(1.46051e-08 1.50973e-08 0)
(-1.23799e-15 -3.83554e-18 0)
(-1.24375e-15 -1.15514e-15 0)
(-1.21032e-15 -2.00946e-15 0)
(-1.20235e-15 -2.95426e-15 0)
(-1.14861e-15 -4.02257e-15 0)
(-1.11987e-15 -5.20846e-15 0)
(-1.03017e-15 -6.51183e-15 0)
(-9.5757e-16 -7.88698e-15 0)
(-7.90031e-16 -9.2827e-15 0)
(-6.29037e-16 -1.0605e-14 0)
(-3.56932e-16 -1.17609e-14 0)
(-1.068e-16 -1.26321e-14 0)
(2.24829e-16 -1.31246e-14 0)
(4.91171e-16 -1.31444e-14 0)
(8.02569e-16 -1.26302e-14 0)
(1.08402e-15 -1.15294e-14 0)
(1.48246e-15 -9.74139e-15 0)
(1.85712e-15 -7.20831e-15 0)
(1.79911e-15 -4.19905e-15 0)
(1.27363e-15 -1.2147e-15 0)
(-3.97686e-11 -1.88623e-09 0)
(2.67483e-10 4.78019e-10 0)
(-5.41792e-11 -1.15279e-10 0)
(1.3015e-11 2.93115e-11 0)
(-1.12094e-12 -6.99315e-12 0)
(1.10062e-12 2.11166e-12 0)
(5.06324e-13 -2.8001e-13 0)
(3.31519e-13 2.8795e-13 0)
(2.17223e-13 8.46846e-14 0)
(1.05661e-13 9.28463e-14 0)
(4.60583e-14 5.20985e-14 0)
(3.49792e-15 3.31877e-14 0)
(-1.70067e-14 1.59473e-14 0)
(-2.54534e-14 5.17415e-15 0)
(-2.50895e-14 -1.73551e-15 0)
(-2.02486e-14 -5.47547e-15 0)
(-1.29189e-14 -7.1309e-15 0)
(-4.67746e-15 -6.18213e-15 0)
(3.554e-16 -2.45136e-15 0)
(-3.27846e-16 -6.71718e-16 0)
)
;
    }
    frontAndBack
    {
        type            empty;
    }
}


// ************************************************************************* //
