/*--------------------------------*- C++ -*----------------------------------*\
| =========                 |                                                 |
| \\      /  F ield         | OpenFOAM: The Open Source CFD Toolbox           |
|  \\    /   O peration     | Version:  2506                                  |
|   \\  /    A nd           | Website:  www.openfoam.com                      |
|    \\/     M anipulation  |                                                 |
\*---------------------------------------------------------------------------*/
FoamFile
{
    version     2.0;
    format      ascii;
    arch        "LSB;label=32;scalar=64";
    class       volScalarField;
    location    "3";
    object      yPlus;
}
// * * * * * * * * * * * * * * * * * * * * * * * * * * * * * * * * * * * * * //

dimensions      [0 0 0 0 0 0 0];

internalField   uniform 0;

boundaryField
{
    movingWall
    {
        type            calculated;
        value           nonuniform List<scalar> 
20
(
0.0350763
0.0181603
0.00972085
0.00501603
0.00285227
0.00139874
0.000929086
0.000367245
0.000397815
0.000244548
0.000236747
0.00018751
0.000162629
0.000134549
0.000111337
8.91946e-05
6.89444e-05
4.80857e-05
2.63781e-05
9.52094e-06
)
;
    }
    fixedWalls
    {
        type            calculated;
        value           nonuniform List<scalar> 
60
(
0.00939497
0.0094571
0.00999961
0.0100808
0.0108298
0.0115228
0.0137444
0.0150803
0.017968
0.0207442
0.0241017
0.0271493
0.0303871
0.031953
0.033049
0.0327917
0.0347101
0.0320448
0.0324075
0.0350763
7.19129e-06
9.2029e-06
1.14675e-05
1.36933e-05
1.58784e-05
1.80283e-05
2.01365e-05
2.21494e-05
2.40233e-05
2.56739e-05
2.70384e-05
2.80288e-05
2.85832e-05
2.86215e-05
2.80645e-05
2.68027e-05
2.4609e-05
2.12593e-05
1.65194e-05
9.52094e-06
0.00939497
0.0046026
0.00227988
0.00112363
0.000595055
0.000280154
0.000224015
0.000140064
0.000124137
8.62295e-05
6.10174e-05
3.3904e-05
3.13638e-05
3.82231e-05
3.85425e-05
3.51437e-05
2.88535e-05
1.94955e-05
9.06351e-06
7.19129e-06
)
;
    }
    frontAndBack
    {
        type            empty;
    }
}


// ************************************************************************* //
