/*--------------------------------*- C++ -*----------------------------------*\
| =========                 |                                                 |
| \\      /  F ield         | OpenFOAM: The Open Source CFD Toolbox           |
|  \\    /   O peration     | Version:  2506                                  |
|   \\  /    A nd           | Website:  www.openfoam.com                      |
|    \\/     M anipulation  |                                                 |
\*---------------------------------------------------------------------------*/
FoamFile
{
    version     2.0;
    format      ascii;
    arch        "LSB;label=32;scalar=64";
    class       volVectorField;
    location    "4.5";
    object      ddtU;
}
// * * * * * * * * * * * * * * * * * * * * * * * * * * * * * * * * * * * * * //

dimensions      [0 1 -2 0 0 0 0];

internalField   nonuniform List<vector> 
400
(
(8.4821e-11 -4.09576e-08 0)
(-4.52305e-11 9.7263e-09 0)
(1.76748e-11 -2.31126e-09 0)
(-8.03801e-12 5.48459e-10 0)
(1.73195e-12 -1.30626e-10 0)
(-1.13243e-12 3.09141e-11 0)
(4.44089e-14 -7.43331e-12 0)
(-1.77636e-13 1.72329e-12 0)
(-4.44089e-14 -4.22961e-13 0)
(-6.66134e-14 8.52659e-14 0)
(-4.44089e-14 -3.38398e-14 0)
(-2.22045e-14 -1.51731e-15 0)
(0 -7.94818e-15 0)
(-2.22045e-14 -6.84563e-15 0)
(4.44089e-14 -1.32491e-15 0)
(-2.22045e-14 5.01729e-15 0)
(0 3.37033e-16 0)
(-2.22045e-14 -8.39348e-15 0)
(6.66134e-14 1.14036e-14 0)
(-2.22045e-14 5.43903e-15 0)
(-1.22058e-10 4.09247e-08 0)
(2.65565e-11 -9.72152e-09 0)
(-9.59233e-12 2.30392e-09 0)
(1.77636e-12 -5.479e-10 0)
(-7.99361e-13 1.29366e-10 0)
(-1.11022e-13 -3.09865e-11 0)
(-1.33227e-13 7.15833e-12 0)
(-1.11022e-13 -1.80292e-12 0)
(-8.88178e-14 3.56828e-13 0)
(-2.22045e-14 -1.34606e-13 0)
(-2.22045e-14 1.16842e-14 0)
(0 -1.11887e-14 0)
(0 5.58854e-16 0)
(-2.22045e-14 -3.90123e-15 0)
(-4.44089e-14 -1.09049e-14 0)
(-2.22045e-14 -9.88216e-15 0)
(0 -1.91066e-14 0)
(0 -5.73014e-15 0)
(0 1.60292e-14 0)
(-4.44089e-14 1.82977e-15 0)
(2.15516e-10 -4.08117e-08 0)
(-4.17222e-11 9.68543e-09 0)
(1.70086e-11 -2.29877e-09 0)
(-3.35287e-12 5.44739e-10 0)
(9.76996e-13 -1.29804e-10 0)
(-3.77476e-13 3.04694e-11 0)
(0 -7.44443e-12 0)
(-1.11022e-13 1.62953e-12 0)
(-4.44089e-14 -4.94186e-13 0)
(-4.44089e-14 5.29264e-14 0)
(-2.22045e-14 -5.26816e-14 0)
(0 -2.10094e-14 0)
(2.22045e-14 -1.89544e-14 0)
(4.44089e-14 -1.5909e-14 0)
(6.66134e-14 -8.80612e-15 0)
(2.22045e-14 -1.38266e-15 0)
(2.22045e-14 -7.75204e-15 0)
(-2.22045e-14 8.68402e-15 0)
(-2.22045e-14 7.77022e-15 0)
(0 -6.83283e-15 0)
(-1.948e-10 4.07007e-08 0)
(3.78364e-11 -9.6527e-09 0)
(-1.47882e-11 2.28916e-09 0)
(3.24185e-12 -5.43278e-10 0)
(-8.21565e-13 1.28481e-10 0)
(2.22045e-13 -3.07362e-11 0)
(-4.44089e-14 7.10019e-12 0)
(-6.66134e-14 -1.81853e-12 0)
(-6.66134e-14 3.25681e-13 0)
(-2.22045e-14 -1.65617e-13 0)
(0 -3.0772e-14 0)
(-2.22045e-14 -5.71403e-14 0)
(0 -3.75114e-14 0)
(0 -1.61735e-14 0)
(-2.22045e-14 -1.35718e-15 0)
(2.22045e-14 2.92629e-15 0)
(-4.44089e-14 1.90772e-15 0)
(0 4.74687e-15 0)
(2.22045e-14 2.15719e-14 0)
(0 -9.9532e-15 0)
(1.47349e-10 -4.05793e-08 0)
(-2.56017e-11 9.62025e-09 0)
(1.07025e-11 -2.28183e-09 0)
(-1.86517e-12 5.40734e-10 0)
(5.77316e-13 -1.28468e-10 0)
(-8.88178e-14 3.02273e-11 0)
(4.44089e-14 -7.32604e-12 0)
(4.44089e-14 1.61365e-12 0)
(0 -4.84026e-13 0)
(2.22045e-14 2.03915e-14 0)
(-2.22045e-14 -8.58261e-14 0)
(2.22045e-14 -4.34003e-14 0)
(2.22045e-14 -2.35242e-14 0)
(-2.22045e-14 4.93197e-15 0)
(0 1.43325e-15 0)
(2.22045e-14 -7.37468e-15 0)
(-2.22045e-14 -5.73708e-15 0)
(2.22045e-14 4.59621e-15 0)
(0 2.5095e-14 0)
(0 -2.03521e-14 0)
(-8.02691e-11 4.0484e-08 0)
(1.27454e-11 -9.59723e-09 0)
(-5.19584e-12 2.27576e-09 0)
(9.76996e-13 -5.3975e-10 0)
(-1.33227e-13 1.27717e-10 0)
(8.88178e-14 -3.05098e-11 0)
(6.66134e-14 7.05638e-12 0)
(4.44089e-14 -1.78987e-12 0)
(4.44089e-14 3.43819e-13 0)
(4.44089e-14 -1.43027e-13 0)
(0 -1.51269e-14 0)
(-4.44089e-14 -3.69183e-14 0)
(-4.44089e-14 1.11349e-15 0)
(4.44089e-14 2.87826e-15 0)
(-6.66134e-14 8.9591e-15 0)
(0 4.98726e-15 0)
(-6.66134e-14 -3.7715e-15 0)
(-4.44089e-14 -9.01042e-15 0)
(0 1.07368e-14 0)
(0 -2.06996e-14 0)
(2.06501e-11 -4.03973e-08 0)
(7.99361e-13 9.57665e-09 0)
(2.66454e-13 -2.27127e-09 0)
(6.43929e-13 5.3832e-10 0)
(0 -1.2781e-10 0)
(1.33227e-13 3.01357e-11 0)
(4.44089e-14 -7.2924e-12 0)
(0 1.62806e-12 0)
(4.44089e-14 -4.61059e-13 0)
(0 6.31073e-14 0)
(4.44089e-14 -3.55493e-14 0)
(4.44089e-14 3.19331e-15 0)
(0 -1.31758e-14 0)
(-4.44089e-14 -2.38206e-14 0)
(0 6.57066e-15 0)
(-4.44089e-14 1.61412e-14 0)
(0 -4.26054e-15 0)
(4.44089e-14 -6.9667e-15 0)
(0 9.64261e-15 0)
(-4.44089e-14 -1.86378e-14 0)
(3.29736e-11 4.03405e-08 0)
(-1.04805e-11 -9.56492e-09 0)
(3.88578e-12 2.26813e-09 0)
(-1.06581e-12 -5.37978e-10 0)
(4.66294e-13 1.27418e-10 0)
(-4.44089e-14 -3.03166e-11 0)
(4.44089e-14 7.10022e-12 0)
(4.44089e-14 -1.77049e-12 0)
(4.44089e-14 3.46291e-13 0)
(4.44089e-14 -1.27657e-13 0)
(0 -1.01284e-14 0)
(8.88178e-14 -1.37851e-14 0)
(4.44089e-14 -1.16697e-14 0)
(4.44089e-14 -1.9595e-14 0)
(-4.44089e-14 -5.4234e-15 0)
(4.44089e-14 7.55647e-15 0)
(4.44089e-14 -5.16308e-15 0)
(0 4.13087e-15 0)
(0 2.48934e-14 0)
(0 -1.99832e-14 0)
(-6.31051e-11 -4.02931e-08 0)
(1.74305e-11 9.55475e-09 0)
(-6.17284e-12 -2.26615e-09 0)
(1.95399e-12 5.37266e-10 0)
(-4.44089e-13 -1.27503e-10 0)
(2.22045e-13 3.01743e-11 0)
(4.44089e-14 -7.21584e-12 0)
(4.44089e-14 1.64437e-12 0)
(0 -4.53382e-13 0)
(4.44089e-14 4.9313e-14 0)
(0 -4.37578e-14 0)
(0 -1.61155e-14 0)
(0 -4.51868e-15 0)
(0 1.63262e-14 0)
(0 -1.32912e-14 0)
(-4.44089e-14 -2.43959e-14 0)
(0 -1.6704e-14 0)
(-4.44089e-14 6.25046e-15 0)
(0 2.66751e-14 0)
(-2.22045e-14 -3.10136e-14 0)
(8.71969e-11 4.02662e-08 0)
(-2.10054e-11 -9.54987e-09 0)
(7.92699e-12 2.26483e-09 0)
(-2.08722e-12 -5.37224e-10 0)
(6.66134e-13 1.27333e-10 0)
(-1.77636e-13 -3.02619e-11 0)
(1.33227e-13 7.11674e-12 0)
(4.44089e-14 -1.73959e-12 0)
(8.88178e-14 3.74841e-13 0)
(4.44089e-14 -1.08425e-13 0)
(4.44089e-14 2.07431e-14 0)
(4.44089e-14 -2.9578e-14 0)
(4.44089e-14 -2.24992e-14 0)
(8.88178e-14 -7.94356e-16 0)
(4.44089e-14 -1.65806e-14 0)
(0 -2.07249e-14 0)
(4.44089e-14 -7.57715e-15 0)
(0 1.76142e-14 0)
(4.44089e-14 2.60903e-14 0)
(2.22045e-14 -2.61409e-14 0)
(-9.0683e-11 -4.02428e-08 0)
(2.23377e-11 9.54509e-09 0)
(-8.03801e-12 -2.2639e-09 0)
(2.39808e-12 5.36893e-10 0)
(-5.77316e-13 -1.27392e-10 0)
(3.55271e-13 3.0165e-11 0)
(4.44089e-14 -7.20466e-12 0)
(8.88178e-14 1.66769e-12 0)
(1.33227e-13 -4.1283e-13 0)
(8.88178e-14 1.0918e-13 0)
(8.88178e-14 -3.27108e-14 0)
(4.44089e-14 -5.89972e-15 0)
(4.44089e-14 -2.4438e-14 0)
(8.88178e-14 -1.35426e-14 0)
(0 -1.25949e-14 0)
(0 -4.80261e-15 0)
(0 -3.82061e-16 0)
(4.44089e-14 1.44665e-14 0)
(2.22045e-14 3.95488e-14 0)
(-2.22045e-14 -1.24865e-14 0)
(9.60121e-11 4.02272e-08 0)
(-2.24709e-11 -9.54196e-09 0)
(8.39329e-12 2.26308e-09 0)
(-2.04281e-12 -5.36793e-10 0)
(7.32747e-13 1.27297e-10 0)
(-8.88178e-14 -3.0222e-11 0)
(1.33227e-13 7.16099e-12 0)
(0 -1.70087e-12 0)
(0 3.95418e-13 0)
(0 -1.04061e-13 0)
(8.88178e-14 8.52709e-15 0)
(4.44089e-14 -1.79944e-14 0)
(4.44089e-14 -2.21107e-15 0)
(0 -4.88973e-15 0)
(4.44089e-14 -2.52683e-15 0)
(0 -5.28932e-15 0)
(0 -1.42862e-14 0)
(4.44089e-14 1.2328e-15 0)
(-4.44089e-14 4.50778e-14 0)
(2.22045e-14 -8.50164e-16 0)
(-8.91731e-11 -4.02097e-08 0)
(2.19602e-11 9.53787e-09 0)
(-7.63833e-12 -2.26215e-09 0)
(2.37588e-12 5.36596e-10 0)
(-5.32907e-13 -1.27265e-10 0)
(3.55271e-13 3.01899e-11 0)
(8.88178e-14 -7.12827e-12 0)
(8.88178e-14 1.72165e-12 0)
(4.44089e-14 -4.02471e-13 0)
(4.44089e-14 6.99011e-14 0)
(0 -2.86382e-14 0)
(0 2.86817e-15 0)
(-4.44089e-14 7.32799e-15 0)
(4.44089e-14 -7.81066e-15 0)
(0 -5.8194e-15 0)
(0 -1.80606e-14 0)
(-4.44089e-14 -2.3704e-14 0)
(0 -8.02507e-15 0)
(-4.44089e-14 3.71396e-14 0)
(0 2.33609e-15 0)
(9.0572e-11 4.01915e-08 0)
(-2.15383e-11 -9.53356e-09 0)
(7.92699e-12 2.26117e-09 0)
(-1.95399e-12 -5.36251e-10 0)
(7.99361e-13 1.27266e-10 0)
(-8.88178e-14 -3.01315e-11 0)
(1.33227e-13 7.1835e-12 0)
(4.44089e-14 -1.67181e-12 0)
(4.44089e-14 4.303e-13 0)
(4.44089e-14 -7.54811e-14 0)
(0 3.96455e-14 0)
(-4.44089e-14 1.04565e-14 0)
(0 4.56943e-16 0)
(4.44089e-14 -1.62915e-14 0)
(4.44089e-14 -1.44315e-14 0)
(0 -1.69364e-14 0)
(0 -2.05823e-14 0)
(4.44089e-14 1.25888e-15 0)
(2.22045e-14 3.77491e-14 0)
(0 -5.57608e-15 0)
(-8.30447e-11 -4.01725e-08 0)
(2.06946e-11 9.52879e-09 0)
(-7.14984e-12 -2.25996e-09 0)
(2.24265e-12 5.36095e-10 0)
(-4.88498e-13 -1.27051e-10 0)
(3.55271e-13 3.0225e-11 0)
(0 -7.09594e-12 0)
(4.44089e-14 1.74466e-12 0)
(0 -3.57574e-13 0)
(4.44089e-14 1.29883e-13 0)
(8.88178e-14 -1.60329e-14 0)
(0 1.55325e-14 0)
(4.44089e-14 -9.28396e-15 0)
(0 3.92748e-15 0)
(0 -3.2705e-15 0)
(-4.44089e-14 1.97119e-15 0)
(0 -7.96893e-15 0)
(0 -1.0105e-15 0)
(-2.22045e-14 3.43834e-14 0)
(-2.22045e-14 -1.94284e-15 0)
(8.67084e-11 4.01502e-08 0)
(-2.05613e-11 -9.52331e-09 0)
(7.61613e-12 2.25882e-09 0)
(-1.90958e-12 -5.35618e-10 0)
(7.10543e-13 1.27179e-10 0)
(-1.33227e-13 -3.00317e-11 0)
(8.88178e-14 7.22181e-12 0)
(-4.44089e-14 -1.64979e-12 0)
(8.88178e-14 4.25048e-13 0)
(8.88178e-14 -8.37501e-14 0)
(4.44089e-14 3.61865e-14 0)
(4.44089e-14 1.94809e-14 0)
(0 1.19987e-14 0)
(0 1.51863e-14 0)
(0 1.23376e-14 0)
(4.44089e-14 8.71231e-15 0)
(-4.44089e-14 7.03861e-16 0)
(0 -1.4464e-15 0)
(0 9.36206e-15 0)
(0 -1.02663e-14 0)
(-7.78044e-11 -4.01338e-08 0)
(1.95177e-11 9.51932e-09 0)
(-6.57252e-12 -2.2574e-09 0)
(2.10942e-12 5.35644e-10 0)
(-4.88498e-13 -1.26826e-10 0)
(2.22045e-13 3.02441e-11 0)
(0 -7.07027e-12 0)
(4.44089e-14 1.74183e-12 0)
(-4.44089e-14 -3.80688e-13 0)
(-4.44089e-14 1.24947e-13 0)
(-4.44089e-14 7.59734e-15 0)
(-4.44089e-14 7.82632e-15 0)
(0 2.08437e-15 0)
(2.22045e-14 -1.30728e-15 0)
(0 2.09604e-14 0)
(-2.22045e-14 3.18666e-14 0)
(0 7.36723e-15 0)
(0 -4.36559e-15 0)
(0 -4.62496e-15 0)
(0 -3.50617e-14 0)
(8.92175e-11 4.01134e-08 0)
(-2.02949e-11 -9.51386e-09 0)
(7.54952e-12 2.2572e-09 0)
(-1.95399e-12 -5.34953e-10 0)
(5.77316e-13 1.27194e-10 0)
(-2.22045e-13 -2.99981e-11 0)
(8.88178e-14 7.22725e-12 0)
(-6.66134e-14 -1.63466e-12 0)
(0 4.46815e-13 0)
(-2.22045e-14 -6.85799e-14 0)
(4.44089e-14 3.22585e-14 0)
(4.44089e-14 -1.81991e-14 0)
(-2.22045e-14 -6.89095e-15 0)
(2.22045e-14 1.43518e-14 0)
(-4.44089e-14 2.66662e-14 0)
(0 2.18453e-14 0)
(0 7.24401e-15 0)
(4.44089e-14 -4.99759e-15 0)
(2.22045e-14 -3.72782e-15 0)
(0 -3.24096e-14 0)
(-7.35856e-11 -4.01116e-08 0)
(1.82965e-11 9.51406e-09 0)
(-6.21725e-12 -2.25457e-09 0)
(1.42109e-12 5.34909e-10 0)
(-5.77316e-13 -1.26492e-10 0)
(6.66134e-14 3.01109e-11 0)
(-1.11022e-13 -7.04735e-12 0)
(-4.44089e-14 1.71508e-12 0)
(0 -3.62168e-13 0)
(-4.44089e-14 1.13224e-13 0)
(2.22045e-14 -1.93104e-14 0)
(-6.66134e-14 1.1082e-14 0)
(-6.66134e-14 6.27785e-15 0)
(0 2.03798e-14 0)
(-2.22045e-14 1.88695e-14 0)
(0 2.2545e-15 0)
(0 -2.40809e-15 0)
(0 2.0944e-15 0)
(0 -1.05393e-15 0)
(0 -1.90405e-14 0)
(1.112e-10 4.01057e-08 0)
(-5.01155e-11 -9.51817e-09 0)
(2.10054e-11 2.2596e-09 0)
(-8.01581e-12 -5.36199e-10 0)
(2.26485e-12 1.27458e-10 0)
(-9.76996e-13 -3.02178e-11 0)
(8.88178e-14 7.22197e-12 0)
(-1.33227e-13 -1.70302e-12 0)
(-2.22045e-14 4.14596e-13 0)
(-4.44089e-14 -8.99019e-14 0)
(4.44089e-14 2.14896e-14 0)
(-6.66134e-14 -8.2598e-16 0)
(0 6.00419e-15 0)
(0 -5.67855e-16 0)
(2.22045e-14 7.25846e-15 0)
(2.22045e-14 7.7857e-15 0)
(4.44089e-14 -3.12872e-16 0)
(4.44089e-14 -4.70491e-16 0)
(4.44089e-14 -1.84124e-15 0)
(2.22045e-14 -1.35682e-14 0)
)
;

boundaryField
{
    movingWall
    {
        type            calculated;
        value           uniform (0 0 0);
    }
    fixedWalls
    {
        type            calculated;
        value           uniform (0 0 0);
    }
    frontAndBack
    {
        type            empty;
    }
}


// ************************************************************************* //
