/*--------------------------------*- C++ -*----------------------------------*\
| =========                 |                                                 |
| \\      /  F ield         | OpenFOAM: The Open Source CFD Toolbox           |
|  \\    /   O peration     | Version:  2506                                  |
|   \\  /    A nd           | Website:  www.openfoam.com                      |
|    \\/     M anipulation  |                                                 |
\*---------------------------------------------------------------------------*/
FoamFile
{
    version     2.0;
    format      ascii;
    arch        "LSB;label=32;scalar=64";
    class       volVectorField;
    location    "4.5";
    object      diffU;
}
// * * * * * * * * * * * * * * * * * * * * * * * * * * * * * * * * * * * * * //

dimensions      [0 1 -1 0 0 0 0];

internalField   nonuniform List<vector> 
400
(
(0 0 0)
(3.29331e-11 -1.64924e-08 0)
(1.44258e-11 -1.25759e-08 0)
(2.2106e-11 -1.35064e-08 0)
(1.89924e-11 -1.32855e-08 0)
(1.98718e-11 -1.33381e-08 0)
(1.94962e-11 -1.33256e-08 0)
(1.95659e-11 -1.33286e-08 0)
(1.95159e-11 -1.33279e-08 0)
(1.95133e-11 -1.3328e-08 0)
(1.95021e-11 -1.3328e-08 0)
(1.94972e-11 -1.3328e-08 0)
(1.94931e-11 -1.3328e-08 0)
(1.94901e-11 -1.3328e-08 0)
(1.94883e-11 -1.3328e-08 0)
(1.94865e-11 -1.3328e-08 0)
(1.94856e-11 -1.3328e-08 0)
(1.94847e-11 -1.3328e-08 0)
(1.94845e-11 -1.3328e-08 0)
(1.94843e-11 -1.3328e-08 0)
(5.26204e-11 -2.6654e-08 0)
(1.227e-11 -1.0161e-08 0)
(2.2004e-11 -1.40785e-08 0)
(1.90459e-11 -1.31494e-08 0)
(1.97354e-11 -1.33701e-08 0)
(1.95369e-11 -1.33179e-08 0)
(1.95562e-11 -1.33303e-08 0)
(1.95283e-11 -1.33274e-08 0)
(1.95166e-11 -1.33281e-08 0)
(1.95068e-11 -1.3328e-08 0)
(1.95003e-11 -1.3328e-08 0)
(1.94956e-11 -1.3328e-08 0)
(1.94922e-11 -1.3328e-08 0)
(1.94895e-11 -1.3328e-08 0)
(1.94875e-11 -1.3328e-08 0)
(1.9486e-11 -1.3328e-08 0)
(1.94853e-11 -1.3328e-08 0)
(1.94847e-11 -1.3328e-08 0)
(1.94842e-11 -1.3328e-08 0)
(1.9484e-11 -1.3328e-08 0)
(-6.04465e-11 -3.02111e-11 0)
(3.5385e-11 -1.64853e-08 0)
(1.30884e-11 -1.25784e-08 0)
(2.08105e-11 -1.35057e-08 0)
(1.9091e-11 -1.32856e-08 0)
(1.96315e-11 -1.33379e-08 0)
(1.94871e-11 -1.33256e-08 0)
(1.95206e-11 -1.33285e-08 0)
(1.95036e-11 -1.33278e-08 0)
(1.95014e-11 -1.3328e-08 0)
(1.94962e-11 -1.3328e-08 0)
(1.9493e-11 -1.3328e-08 0)
(1.94906e-11 -1.3328e-08 0)
(1.94885e-11 -1.3328e-08 0)
(1.94873e-11 -1.3328e-08 0)
(1.94863e-11 -1.3328e-08 0)
(1.94854e-11 -1.3328e-08 0)
(1.94849e-11 -1.3328e-08 0)
(1.94844e-11 -1.3328e-08 0)
(1.94843e-11 -1.3328e-08 0)
(1.05374e-10 -2.65951e-08 0)
(2.38165e-12 -1.01798e-08 0)
(2.5997e-11 -1.40748e-08 0)
(1.79892e-11 -1.31507e-08 0)
(1.98662e-11 -1.33699e-08 0)
(1.9363e-11 -1.33179e-08 0)
(1.95197e-11 -1.33303e-08 0)
(1.9486e-11 -1.33274e-08 0)
(1.94964e-11 -1.33281e-08 0)
(1.94923e-11 -1.3328e-08 0)
(1.94914e-11 -1.3328e-08 0)
(1.94895e-11 -1.3328e-08 0)
(1.94882e-11 -1.3328e-08 0)
(1.94873e-11 -1.3328e-08 0)
(1.94863e-11 -1.3328e-08 0)
(1.94856e-11 -1.3328e-08 0)
(1.94845e-11 -1.3328e-08 0)
(1.94843e-11 -1.3328e-08 0)
(1.94844e-11 -1.3328e-08 0)
(1.94843e-11 -1.3328e-08 0)
(-6.8209e-11 -1.00337e-10 0)
(3.64995e-11 -1.64656e-08 0)
(1.27032e-11 -1.25836e-08 0)
(2.08568e-11 -1.35045e-08 0)
(1.90312e-11 -1.3286e-08 0)
(1.9581e-11 -1.33379e-08 0)
(1.94451e-11 -1.33256e-08 0)
(1.94897e-11 -1.33285e-08 0)
(1.94824e-11 -1.33278e-08 0)
(1.94867e-11 -1.3328e-08 0)
(1.94861e-11 -1.3328e-08 0)
(1.94864e-11 -1.3328e-08 0)
(1.9486e-11 -1.3328e-08 0)
(1.94856e-11 -1.3328e-08 0)
(1.94852e-11 -1.3328e-08 0)
(1.94849e-11 -1.3328e-08 0)
(1.94846e-11 -1.3328e-08 0)
(1.94845e-11 -1.3328e-08 0)
(1.94844e-11 -1.3328e-08 0)
(1.94843e-11 -1.3328e-08 0)
(9.56765e-11 -2.65194e-08 0)
(4.72711e-12 -1.01995e-08 0)
(2.50894e-11 -1.40701e-08 0)
(1.81948e-11 -1.31519e-08 0)
(1.9777e-11 -1.33697e-08 0)
(1.93545e-11 -1.33181e-08 0)
(1.94889e-11 -1.33303e-08 0)
(1.94662e-11 -1.33274e-08 0)
(1.948e-11 -1.33281e-08 0)
(1.94809e-11 -1.3328e-08 0)
(1.94831e-11 -1.3328e-08 0)
(1.94835e-11 -1.3328e-08 0)
(1.9484e-11 -1.3328e-08 0)
(1.94842e-11 -1.3328e-08 0)
(1.9484e-11 -1.3328e-08 0)
(1.94843e-11 -1.3328e-08 0)
(1.94842e-11 -1.3328e-08 0)
(1.9484e-11 -1.3328e-08 0)
(1.9484e-11 -1.3328e-08 0)
(1.94842e-11 -1.3328e-08 0)
(-4.65605e-11 -1.73844e-10 0)
(3.20006e-11 -1.64474e-08 0)
(1.45663e-11 -1.2588e-08 0)
(2.04544e-11 -1.35035e-08 0)
(1.91496e-11 -1.32864e-08 0)
(1.95314e-11 -1.33378e-08 0)
(1.94398e-11 -1.33256e-08 0)
(1.94726e-11 -1.33285e-08 0)
(1.94713e-11 -1.33279e-08 0)
(1.94769e-11 -1.3328e-08 0)
(1.94791e-11 -1.3328e-08 0)
(1.94811e-11 -1.3328e-08 0)
(1.9482e-11 -1.3328e-08 0)
(1.94824e-11 -1.3328e-08 0)
(1.94833e-11 -1.3328e-08 0)
(1.94835e-11 -1.3328e-08 0)
(1.94837e-11 -1.3328e-08 0)
(1.94842e-11 -1.3328e-08 0)
(1.94842e-11 -1.3328e-08 0)
(1.94842e-11 -1.3328e-08 0)
(7.17154e-11 -2.64501e-08 0)
(9.63496e-12 -1.02161e-08 0)
(2.31466e-11 -1.40661e-08 0)
(1.86393e-11 -1.31529e-08 0)
(1.96482e-11 -1.33695e-08 0)
(1.93854e-11 -1.33181e-08 0)
(1.94698e-11 -1.33303e-08 0)
(1.94593e-11 -1.33274e-08 0)
(1.94702e-11 -1.33281e-08 0)
(1.94729e-11 -1.3328e-08 0)
(1.94766e-11 -1.3328e-08 0)
(1.94789e-11 -1.3328e-08 0)
(1.94804e-11 -1.3328e-08 0)
(1.94817e-11 -1.3328e-08 0)
(1.94826e-11 -1.3328e-08 0)
(1.94831e-11 -1.3328e-08 0)
(1.94835e-11 -1.3328e-08 0)
(1.94837e-11 -1.3328e-08 0)
(1.94842e-11 -1.3328e-08 0)
(1.94842e-11 -1.3328e-08 0)
(-2.32494e-11 -2.36193e-10 0)
(2.73599e-11 -1.64328e-08 0)
(1.64408e-11 -1.25915e-08 0)
(2.00514e-11 -1.35027e-08 0)
(1.92706e-11 -1.32866e-08 0)
(1.94936e-11 -1.33378e-08 0)
(1.94436e-11 -1.33257e-08 0)
(1.94644e-11 -1.33285e-08 0)
(1.94662e-11 -1.33279e-08 0)
(1.94718e-11 -1.3328e-08 0)
(1.94751e-11 -1.3328e-08 0)
(1.94778e-11 -1.3328e-08 0)
(1.94798e-11 -1.3328e-08 0)
(1.94815e-11 -1.3328e-08 0)
(1.94822e-11 -1.3328e-08 0)
(1.94829e-11 -1.3328e-08 0)
(1.94837e-11 -1.3328e-08 0)
(1.94837e-11 -1.3328e-08 0)
(1.9484e-11 -1.3328e-08 0)
(1.94843e-11 -1.3328e-08 0)
(5.19944e-11 -2.6394e-08 0)
(1.3525e-11 -1.02291e-08 0)
(2.16196e-11 -1.40631e-08 0)
(1.89839e-11 -1.31537e-08 0)
(1.9554e-11 -1.33694e-08 0)
(1.94134e-11 -1.33182e-08 0)
(1.94611e-11 -1.33303e-08 0)
(1.94584e-11 -1.33274e-08 0)
(1.94667e-11 -1.33281e-08 0)
(1.94706e-11 -1.3328e-08 0)
(1.94742e-11 -1.3328e-08 0)
(1.94769e-11 -1.3328e-08 0)
(1.94789e-11 -1.3328e-08 0)
(1.94806e-11 -1.3328e-08 0)
(1.9482e-11 -1.3328e-08 0)
(1.94826e-11 -1.3328e-08 0)
(1.94835e-11 -1.3328e-08 0)
(1.94837e-11 -1.3328e-08 0)
(1.9484e-11 -1.3328e-08 0)
(1.94843e-11 -1.3328e-08 0)
(-7.47913e-12 -2.85536e-10 0)
(2.43109e-11 -1.64215e-08 0)
(1.76446e-11 -1.25942e-08 0)
(1.97917e-11 -1.35021e-08 0)
(1.93461e-11 -1.32867e-08 0)
(1.94729e-11 -1.33378e-08 0)
(1.94484e-11 -1.33257e-08 0)
(1.9462e-11 -1.33286e-08 0)
(1.94658e-11 -1.33279e-08 0)
(1.94706e-11 -1.3328e-08 0)
(1.94742e-11 -1.3328e-08 0)
(1.94773e-11 -1.3328e-08 0)
(1.94791e-11 -1.3328e-08 0)
(1.94809e-11 -1.3328e-08 0)
(1.94817e-11 -1.3328e-08 0)
(1.94826e-11 -1.3328e-08 0)
(1.94835e-11 -1.3328e-08 0)
(1.9484e-11 -1.3328e-08 0)
(1.94844e-11 -1.3328e-08 0)
(1.94843e-11 -1.3328e-08 0)
(4.03638e-11 -2.63497e-08 0)
(1.57421e-11 -1.02392e-08 0)
(2.07592e-11 -1.40607e-08 0)
(1.91753e-11 -1.31542e-08 0)
(1.9505e-11 -1.33692e-08 0)
(1.94313e-11 -1.33182e-08 0)
(1.94591e-11 -1.33303e-08 0)
(1.94609e-11 -1.33275e-08 0)
(1.94669e-11 -1.33281e-08 0)
(1.94706e-11 -1.3328e-08 0)
(1.94744e-11 -1.3328e-08 0)
(1.94773e-11 -1.3328e-08 0)
(1.94793e-11 -1.3328e-08 0)
(1.94809e-11 -1.3328e-08 0)
(1.94822e-11 -1.3328e-08 0)
(1.94829e-11 -1.3328e-08 0)
(1.94835e-11 -1.3328e-08 0)
(1.9484e-11 -1.3328e-08 0)
(1.9484e-11 -1.3328e-08 0)
(1.94843e-11 -1.3328e-08 0)
(7.31193e-13 -3.25069e-10 0)
(2.27683e-11 -1.64124e-08 0)
(1.82374e-11 -1.25964e-08 0)
(1.96633e-11 -1.35016e-08 0)
(1.93829e-11 -1.32869e-08 0)
(1.94647e-11 -1.33378e-08 0)
(1.94542e-11 -1.33257e-08 0)
(1.94642e-11 -1.33286e-08 0)
(1.94686e-11 -1.33279e-08 0)
(1.94726e-11 -1.3328e-08 0)
(1.94755e-11 -1.3328e-08 0)
(1.9478e-11 -1.3328e-08 0)
(1.94798e-11 -1.3328e-08 0)
(1.94809e-11 -1.3328e-08 0)
(1.9482e-11 -1.3328e-08 0)
(1.94826e-11 -1.3328e-08 0)
(1.94831e-11 -1.3328e-08 0)
(1.94835e-11 -1.3328e-08 0)
(1.94837e-11 -1.3328e-08 0)
(1.94842e-11 -1.3328e-08 0)
(3.45742e-11 -2.63132e-08 0)
(1.6809e-11 -1.02477e-08 0)
(2.03423e-11 -1.40587e-08 0)
(1.92624e-11 -1.31547e-08 0)
(1.94817e-11 -1.33691e-08 0)
(1.9442e-11 -1.33183e-08 0)
(1.94618e-11 -1.33303e-08 0)
(1.9466e-11 -1.33275e-08 0)
(1.94713e-11 -1.33282e-08 0)
(1.94751e-11 -1.3328e-08 0)
(1.94773e-11 -1.3328e-08 0)
(1.94793e-11 -1.3328e-08 0)
(1.94804e-11 -1.3328e-08 0)
(1.94817e-11 -1.3328e-08 0)
(1.94829e-11 -1.3328e-08 0)
(1.94833e-11 -1.3328e-08 0)
(1.94837e-11 -1.3328e-08 0)
(1.9484e-11 -1.3328e-08 0)
(1.94843e-11 -1.3328e-08 0)
(1.94843e-11 -1.3328e-08 0)
(4.57678e-12 -3.58701e-10 0)
(2.20528e-11 -1.64046e-08 0)
(1.84908e-11 -1.25983e-08 0)
(1.96028e-11 -1.35012e-08 0)
(1.94005e-11 -1.3287e-08 0)
(1.94669e-11 -1.33378e-08 0)
(1.94622e-11 -1.33257e-08 0)
(1.94706e-11 -1.33286e-08 0)
(1.94742e-11 -1.33279e-08 0)
(1.94773e-11 -1.33281e-08 0)
(1.94793e-11 -1.3328e-08 0)
(1.94804e-11 -1.3328e-08 0)
(1.94817e-11 -1.3328e-08 0)
(1.94824e-11 -1.3328e-08 0)
(1.94831e-11 -1.3328e-08 0)
(1.94833e-11 -1.3328e-08 0)
(1.94837e-11 -1.3328e-08 0)
(1.9484e-11 -1.3328e-08 0)
(1.94842e-11 -1.3328e-08 0)
(1.94842e-11 -1.3328e-08 0)
(3.09297e-11 -2.6281e-08 0)
(1.74663e-11 -1.02554e-08 0)
(2.00714e-11 -1.4057e-08 0)
(1.93179e-11 -1.31552e-08 0)
(1.94729e-11 -1.33691e-08 0)
(1.94564e-11 -1.33183e-08 0)
(1.94715e-11 -1.33304e-08 0)
(1.94758e-11 -1.33275e-08 0)
(1.94789e-11 -1.33282e-08 0)
(1.94809e-11 -1.3328e-08 0)
(1.9482e-11 -1.3328e-08 0)
(1.94824e-11 -1.3328e-08 0)
(1.94831e-11 -1.3328e-08 0)
(1.94833e-11 -1.3328e-08 0)
(1.94833e-11 -1.3328e-08 0)
(1.9484e-11 -1.3328e-08 0)
(1.94837e-11 -1.3328e-08 0)
(1.94837e-11 -1.3328e-08 0)
(1.9484e-11 -1.3328e-08 0)
(1.94843e-11 -1.3328e-08 0)
(6.83387e-12 -3.88557e-10 0)
(2.16192e-11 -1.63975e-08 0)
(1.86231e-11 -1.26e-08 0)
(1.95786e-11 -1.35008e-08 0)
(1.94231e-11 -1.32871e-08 0)
(1.9484e-11 -1.33378e-08 0)
(1.94795e-11 -1.33257e-08 0)
(1.9485e-11 -1.33286e-08 0)
(1.94853e-11 -1.33279e-08 0)
(1.94853e-11 -1.33281e-08 0)
(1.94847e-11 -1.3328e-08 0)
(1.94844e-11 -1.3328e-08 0)
(1.94845e-11 -1.3328e-08 0)
(1.94844e-11 -1.3328e-08 0)
(1.94843e-11 -1.3328e-08 0)
(1.94844e-11 -1.3328e-08 0)
(1.94843e-11 -1.3328e-08 0)
(1.94843e-11 -1.3328e-08 0)
(1.94843e-11 -1.3328e-08 0)
(1.94842e-11 -1.3328e-08 0)
(2.57532e-11 -2.6252e-08 0)
(1.84237e-11 -1.02623e-08 0)
(1.9681e-11 -1.40555e-08 0)
(1.94298e-11 -1.31556e-08 0)
(1.94824e-11 -1.3369e-08 0)
(1.95001e-11 -1.33184e-08 0)
(1.94957e-11 -1.33304e-08 0)
(1.94962e-11 -1.33275e-08 0)
(1.94923e-11 -1.33282e-08 0)
(1.94902e-11 -1.3328e-08 0)
(1.94883e-11 -1.3328e-08 0)
(1.94872e-11 -1.3328e-08 0)
(1.94862e-11 -1.3328e-08 0)
(1.94857e-11 -1.3328e-08 0)
(1.9485e-11 -1.3328e-08 0)
(1.94845e-11 -1.3328e-08 0)
(1.94843e-11 -1.3328e-08 0)
(1.94845e-11 -1.3328e-08 0)
(1.94843e-11 -1.3328e-08 0)
(1.94842e-11 -1.3328e-08 0)
(7.80709e-12 -4.13528e-10 0)
(2.12397e-11 -1.63918e-08 0)
(1.86773e-11 -1.26021e-08 0)
(1.97288e-11 -1.35004e-08 0)
(1.94831e-11 -1.32873e-08 0)
(1.95532e-11 -1.33377e-08 0)
(1.95104e-11 -1.33258e-08 0)
(1.95087e-11 -1.33286e-08 0)
(1.94981e-11 -1.33279e-08 0)
(1.94939e-11 -1.33281e-08 0)
(1.94906e-11 -1.3328e-08 0)
(1.94882e-11 -1.3328e-08 0)
(1.94866e-11 -1.3328e-08 0)
(1.94859e-11 -1.3328e-08 0)
(1.94851e-11 -1.3328e-08 0)
(1.94847e-11 -1.3328e-08 0)
(1.94847e-11 -1.3328e-08 0)
(1.94844e-11 -1.3328e-08 0)
(1.94842e-11 -1.3328e-08 0)
(1.94842e-11 -1.3328e-08 0)
(4.09606e-12 -2.623e-08 0)
(3.15752e-11 -1.02676e-08 0)
(1.44473e-11 -1.40547e-08 0)
(2.18086e-11 -1.31557e-08 0)
(1.89075e-11 -1.3369e-08 0)
(1.97987e-11 -1.33183e-08 0)
(1.94571e-11 -1.33303e-08 0)
(1.95376e-11 -1.33275e-08 0)
(1.94967e-11 -1.33281e-08 0)
(1.94991e-11 -1.3328e-08 0)
(1.94922e-11 -1.3328e-08 0)
(1.94897e-11 -1.3328e-08 0)
(1.94877e-11 -1.3328e-08 0)
(1.94865e-11 -1.3328e-08 0)
(1.94857e-11 -1.3328e-08 0)
(1.94852e-11 -1.3328e-08 0)
(1.94849e-11 -1.3328e-08 0)
(1.94846e-11 -1.3328e-08 0)
(1.94844e-11 -1.3328e-08 0)
(1.94843e-11 -1.3328e-08 0)
)
;

boundaryField
{
    movingWall
    {
        type            calculated;
        value           uniform (1.94842e-11 -1.3328e-08 0);
    }
    fixedWalls
    {
        type            calculated;
        value           uniform (1.94842e-11 -1.3328e-08 0);
    }
    frontAndBack
    {
        type            empty;
    }
}


// ************************************************************************* //
