/*--------------------------------*- C++ -*----------------------------------*\
| =========                 |                                                 |
| \\      /  F ield         | OpenFOAM: The Open Source CFD Toolbox           |
|  \\    /   O peration     | Version:  2506                                  |
|   \\  /    A nd           | Website:  www.openfoam.com                      |
|    \\/     M anipulation  |                                                 |
\*---------------------------------------------------------------------------*/
FoamFile
{
    version     2.0;
    format      ascii;
    arch        "LSB;label=32;scalar=64";
    class       volScalarField;
    location    "4.5";
    object      divPhi;
}
// * * * * * * * * * * * * * * * * * * * * * * * * * * * * * * * * * * * * * //

dimensions      [0 0 -1 0 0 0 0];

internalField   nonuniform List<scalar> 
400
(
-2.71051e-14
1.56388e-14
-1.20175e-14
-7.26434e-15
2.43496e-14
2.93536e-17
-9.44197e-15
-9.87671e-15
-1.99638e-15
1.77384e-14
-1.28556e-15
-1.82489e-14
1.54161e-14
-1.40989e-14
1.28774e-14
-1.91058e-14
2.29779e-14
-2.04999e-14
4.5718e-15
2.71051e-14
2.71051e-14
-7.54231e-15
-1.60262e-14
-6.52633e-15
-2.48893e-14
-6.88034e-15
2.25178e-14
-3.29162e-15
-1.81708e-14
-1.76766e-15
-5.66433e-16
1.45834e-14
-1.42477e-14
-5.82328e-15
3.53634e-14
-8.46446e-15
2.62858e-15
2.47317e-14
-2.06526e-14
-2.71051e-14
-2.71051e-14
-7.17963e-15
3.02931e-14
-8.39077e-15
7.50181e-15
5.04098e-15
8.86834e-15
-6.16449e-15
1.75027e-14
1.61794e-14
-3.24704e-15
-9.0842e-15
6.956e-16
-7.85139e-15
-5.93484e-15
-2.02347e-14
3.76847e-15
-1.28437e-14
2.68251e-15
2.71051e-14
-2.71051e-14
-5.81851e-15
7.73075e-15
-3.38212e-14
2.01202e-14
-7.81472e-15
1.92379e-14
-3.23864e-14
8.16631e-15
-4.10135e-14
-7.93839e-15
-1.32744e-14
1.22321e-14
3.60111e-15
6.86207e-15
4.78946e-15
-2.63544e-15
-4.10721e-14
3.30835e-14
0
2.71051e-14
-1.82791e-14
3.11356e-14
-9.06033e-15
-3.48124e-15
-3.91445e-14
1.08923e-14
-6.60135e-15
1.27692e-14
4.806e-15
7.62064e-15
-1.46555e-14
1.98506e-14
1.22967e-14
2.02791e-14
1.68023e-15
-5.57767e-15
1.88599e-14
1.26522e-14
-2.71051e-14
0
2.10685e-14
-1.11208e-14
-1.02125e-14
-2.50552e-14
5.8641e-15
-6.72641e-15
-5.93951e-15
3.20077e-14
-1.80531e-14
1.74947e-14
3.45261e-14
-1.87671e-15
2.16399e-14
-1.82025e-14
1.47048e-14
-3.06404e-14
-5.55377e-15
2.28782e-14
2.71051e-14
0
-1.6298e-14
1.93585e-14
-2.44516e-14
-1.74109e-14
2.03548e-15
3.95202e-15
3.6199e-15
-5.29848e-15
1.90251e-14
-5.35475e-15
-6.56061e-15
-9.53474e-15
7.59831e-16
-5.18665e-15
-1.18264e-14
-4.04211e-15
1.23053e-15
-3.29698e-14
2.71051e-14
2.71051e-14
-4.77928e-15
-1.38083e-14
6.75671e-15
1.90186e-14
5.84808e-15
1.75629e-14
8.14095e-15
3.13768e-15
-1.53541e-14
-1.45121e-14
1.14476e-14
-1.75263e-14
9.45616e-15
2.54409e-15
-3.32345e-14
8.40477e-15
-7.4756e-15
-1.3852e-14
0
0
-3.59824e-14
2.77627e-14
-4.828e-15
-3.31891e-14
5.56121e-15
1.27515e-14
3.0497e-16
4.5443e-15
1.18459e-14
4.55327e-14
-2.38857e-14
1.13495e-14
8.07183e-15
-8.49205e-15
-1.83971e-14
8.51883e-15
-8.68546e-15
7.91567e-15
-2.71051e-14
-2.71051e-14
1.61984e-14
-6.36388e-15
-2.32532e-14
-1.87567e-14
2.37191e-14
1.05666e-14
-5.81772e-15
2.01271e-15
3.04021e-14
2.73747e-15
1.66495e-14
6.94608e-15
1.74657e-14
-1.33554e-14
1.34358e-14
1.89302e-14
-2.28148e-14
1.22917e-15
2.71051e-14
2.71051e-14
-2.06288e-14
-1.43075e-14
1.70752e-14
2.1137e-14
-2.32925e-14
2.35726e-14
3.75192e-15
6.23419e-15
4.89535e-15
-1.45922e-14
3.41293e-15
-2.31537e-15
-1.7489e-14
-9.16584e-15
1.77557e-14
1.83895e-14
-2.83304e-14
3.27809e-14
-2.71051e-14
0
1.8887e-14
9.36442e-15
2.19495e-16
-3.18604e-14
1.73405e-14
-1.45946e-14
-4.92726e-15
-8.23899e-15
2.79994e-14
2.20335e-14
-4.7376e-15
-4.93782e-15
-1.6524e-15
-1.29289e-15
-1.11873e-14
1.75231e-15
-2.44815e-14
-8.53716e-15
2.71051e-14
0
-2.8241e-14
9.15524e-15
2.43634e-14
-2.35924e-14
1.73326e-14
1.53832e-14
-3.45925e-14
-5.74277e-15
-2.2839e-15
-1.31611e-14
-2.87894e-15
-2.09964e-14
-9.73943e-15
-1.39885e-14
-4.46957e-16
-2.03115e-15
1.94042e-14
-2.79681e-14
0
-2.71051e-14
1.6882e-15
1.03478e-15
5.05814e-15
9.65414e-15
-2.06747e-14
-1.13455e-14
1.81807e-14
7.01221e-15
-3.79967e-14
-6.2887e-15
2.54873e-14
1.4376e-14
-1.83301e-14
4.23856e-14
1.15942e-14
-1.77347e-14
-4.47161e-15
-4.62521e-15
0
0
-5.21834e-15
2.40255e-14
-9.86748e-15
1.0813e-14
-6.54708e-16
-2.61208e-14
-3.70626e-15
8.5429e-16
-1.23738e-15
-5.33749e-15
-6.00442e-15
-1.52689e-14
8.53919e-16
3.19269e-15
7.79738e-15
2.18569e-16
-2.07124e-14
1.18948e-14
0
2.71051e-14
-2.09394e-14
6.92999e-15
-3.02307e-14
1.80808e-14
2.81753e-15
3.39574e-16
-7.82095e-15
1.67711e-15
-1.80846e-14
-1.85122e-15
7.03098e-15
5.32985e-15
2.38992e-14
-1.27417e-15
3.38371e-15
-1.58613e-14
2.14899e-14
-3.07165e-15
0
0
2.81066e-14
-7.07051e-15
-9.19344e-16
-1.56033e-14
6.66838e-15
-4.17561e-16
-2.00844e-14
2.43452e-15
-1.861e-15
3.47245e-15
7.40178e-15
3.6223e-15
-1.08458e-14
-5.73591e-15
-1.01169e-14
3.24553e-14
-2.44606e-14
1.03766e-14
0
0
-4.22092e-15
9.53924e-16
7.28949e-15
-1.40683e-15
2.77093e-14
-2.71549e-14
1.04436e-14
-9.81416e-15
1.47219e-14
-2.60854e-15
-6.03846e-15
2.20549e-14
-1.45943e-14
-1.44676e-14
1.29139e-14
-2.5927e-15
1.56996e-15
1.93959e-14
2.71051e-14
-2.71051e-14
1.91001e-14
1.4119e-14
-1.00311e-14
8.98202e-15
-1.02093e-14
-4.49689e-15
3.78246e-14
-3.90435e-15
-1.47275e-14
-3.53375e-14
3.73558e-15
-2.44965e-15
6.46014e-15
7.04843e-15
4.28403e-14
-8.15489e-15
1.56267e-14
-1.66471e-14
-2.71051e-14
2.71051e-14
-2.71051e-14
0
0
0
0
0
0
0
0
0
-2.71051e-14
2.71051e-14
0
0
0
-2.71051e-14
0
0
0
)
;

boundaryField
{
    movingWall
    {
        type            extrapolatedCalculated;
        value           nonuniform List<scalar> 
20
(
2.71051e-14
-2.71051e-14
0
0
0
0
0
0
0
0
0
-2.71051e-14
2.71051e-14
0
0
0
-2.71051e-14
0
0
0
)
;
    }
    fixedWalls
    {
        type            extrapolatedCalculated;
        value           nonuniform List<scalar> 
60
(
-2.71051e-14
2.71051e-14
-2.71051e-14
-2.71051e-14
2.71051e-14
0
0
2.71051e-14
0
-2.71051e-14
2.71051e-14
0
0
-2.71051e-14
0
2.71051e-14
0
0
-2.71051e-14
2.71051e-14
2.71051e-14
-2.71051e-14
2.71051e-14
0
-2.71051e-14
2.71051e-14
2.71051e-14
0
-2.71051e-14
2.71051e-14
-2.71051e-14
2.71051e-14
0
0
0
0
0
2.71051e-14
-2.71051e-14
0
-2.71051e-14
1.56388e-14
-1.20175e-14
-7.26434e-15
2.43496e-14
2.93536e-17
-9.44197e-15
-9.87671e-15
-1.99638e-15
1.77384e-14
-1.28556e-15
-1.82489e-14
1.54161e-14
-1.40989e-14
1.28774e-14
-1.91058e-14
2.29779e-14
-2.04999e-14
4.5718e-15
2.71051e-14
)
;
    }
    frontAndBack
    {
        type            empty;
    }
}


// ************************************************************************* //
