/*--------------------------------*- C++ -*----------------------------------*\
| =========                 |                                                 |
| \\      /  F ield         | OpenFOAM: The Open Source CFD Toolbox           |
|  \\    /   O peration     | Version:  2506                                  |
|   \\  /    A nd           | Website:  www.openfoam.com                      |
|    \\/     M anipulation  |                                                 |
\*---------------------------------------------------------------------------*/
FoamFile
{
    version     2.0;
    format      ascii;
    arch        "LSB;label=32;scalar=64";
    class       volScalarField;
    location    "4.5";
    object      divU;
}
// * * * * * * * * * * * * * * * * * * * * * * * * * * * * * * * * * * * * * //

dimensions      [0 0 -1 0 0 0 0];

internalField   nonuniform List<scalar> 
400
(
-4.01046e-10
1.70604e-09
-9.16719e-10
4.77817e-10
-1.85543e-10
5.76356e-11
-2.13977e-11
5.749e-12
-2.19595e-12
5.0764e-13
-2.65396e-13
1.5193e-14
-2.89463e-14
1.75213e-14
-5.17048e-15
-1.73667e-14
-8.12759e-15
3.92957e-15
3.20295e-14
-2.71051e-14
-4.28883e-10
-2.35622e-09
4.29458e-10
-1.51041e-10
3.73435e-11
-5.14765e-12
2.06588e-12
-1.89884e-13
-8.76268e-14
-3.56539e-14
-7.88508e-15
-1.25847e-14
-2.48603e-14
-2.51067e-14
-4.05953e-14
1.01417e-14
4.87982e-15
-2.04823e-15
-5.35266e-14
5.42101e-14
-5.14373e-10
5.47359e-09
-1.08666e-09
4.73568e-10
-9.69195e-11
3.3869e-11
-8.54388e-12
2.82674e-12
-6.48132e-13
2.42302e-13
-7.97185e-14
2.86087e-14
-2.2023e-14
5.53229e-15
1.75502e-14
-1.62284e-14
1.4117e-15
-2.87647e-14
-4.26169e-15
0
-1.33953e-10
-5.96563e-09
1.04015e-09
-4.95452e-10
9.44254e-11
-2.8836e-11
8.80313e-12
-1.7803e-12
7.24934e-13
-7.18086e-14
8.28173e-14
-4.53734e-14
3.15077e-14
5.1972e-14
-1.99208e-14
-1.02997e-14
-4.70869e-14
4.41848e-14
1.18355e-14
0
5.06187e-10
6.11771e-09
-1.0933e-09
5.05272e-10
-1.03068e-10
3.05382e-11
-9.25673e-12
2.3699e-12
-6.11308e-13
2.1182e-13
-1.52266e-14
6.29822e-14
6.80296e-15
9.16091e-15
3.89225e-14
-3.28581e-14
1.83096e-16
2.38215e-14
3.13285e-14
-5.42101e-14
-1.20718e-09
-5.24033e-09
9.01534e-10
-4.29052e-10
8.55011e-11
-2.5355e-11
7.55244e-12
-1.77525e-12
6.12023e-13
-9.57062e-14
1.31302e-14
1.99217e-14
4.77662e-14
-1.62523e-14
-9.69019e-15
1.63254e-14
-1.01342e-14
-3.94829e-14
5.22567e-14
0
1.57301e-09
4.45423e-09
-7.62066e-10
3.6075e-10
-7.29108e-11
2.11566e-11
-6.46512e-12
1.48374e-12
-4.37583e-13
1.21264e-13
5.57265e-14
-2.49057e-14
-4.55459e-14
1.74101e-14
-2.7324e-14
4.42658e-14
-2.795e-14
1.3795e-14
-1.46227e-14
0
-1.99664e-09
-3.39858e-09
5.5174e-10
-2.70993e-10
5.31831e-11
-1.54435e-11
4.70735e-12
-1.08591e-12
3.15369e-13
-7.55658e-14
1.0549e-14
-2.85561e-15
-1.7901e-14
1.291e-14
3.53931e-15
-2.69862e-14
2.25548e-14
-4.57633e-14
4.3798e-14
-2.71051e-14
2.12121e-09
2.67349e-09
-4.26452e-10
2.10077e-10
-4.12272e-11
1.17209e-11
-3.59657e-12
7.87962e-13
-2.38582e-13
3.262e-14
2.67607e-14
1.22513e-14
7.41587e-15
3.43682e-14
-9.18261e-14
2.02195e-14
2.1006e-14
-1.83253e-14
7.13342e-15
0
-2.27926e-09
-1.90683e-09
2.77964e-10
-1.46363e-10
2.70896e-11
-7.60813e-12
2.33696e-12
-5.01243e-13
1.293e-13
-3.39129e-14
-6.74491e-15
1.49037e-14
-9.35551e-15
4.58862e-14
-7.99415e-15
-3.23314e-14
-2.15034e-14
2.56169e-14
2.86597e-14
0
2.21595e-09
1.4965e-09
-2.14096e-10
1.13265e-10
-2.07219e-11
5.74715e-12
-1.80685e-12
3.74058e-13
-7.34361e-14
1.30889e-14
2.48043e-14
-2.38542e-14
-3.0032e-14
-2.11383e-14
-4.8217e-14
3.71657e-14
2.53657e-14
9.01276e-15
3.20766e-14
-5.42101e-14
-2.23945e-09
-1.05129e-09
1.2757e-10
-7.70548e-11
1.2462e-11
-3.40193e-12
9.51005e-13
-2.4526e-13
6.60673e-14
-1.02095e-16
-9.28902e-15
2.9843e-14
2.12033e-14
-1.92096e-14
5.85546e-14
-3.99296e-14
3.25351e-14
-2.47354e-14
2.01261e-14
-2.71051e-14
2.10967e-09
9.01396e-10
-1.11834e-10
6.58384e-11
-1.07859e-11
2.89637e-12
-8.51759e-13
1.61418e-13
-1.73331e-14
-3.44701e-14
1.96754e-14
5.31116e-15
-1.13144e-14
-1.1285e-14
1.48767e-14
-4.78782e-14
6.17302e-15
4.60834e-14
-3.00915e-14
2.71051e-14
-2.12178e-09
-6.36246e-10
5.62255e-11
-4.44348e-11
5.32515e-12
-1.45531e-12
3.61843e-13
-7.73159e-14
8.94139e-14
-3.15558e-14
-3.00801e-15
-3.18894e-14
3.77671e-15
2.01138e-14
3.56905e-14
-1.26243e-14
-7.09439e-15
1.96055e-14
-1.84558e-15
-2.71051e-14
1.98217e-09
6.29592e-10
-6.85797e-11
4.49384e-11
-6.475e-12
1.74843e-12
-5.5978e-13
7.69687e-14
2.35442e-14
-2.40857e-16
-2.80913e-14
3.60946e-14
4.11829e-14
6.43971e-15
-3.16978e-14
-1.50167e-14
-1.27796e-14
4.02771e-14
-2.04631e-14
0
-2.04277e-09
-3.76913e-10
8.14544e-12
-2.41043e-11
1.0829e-13
-3.74331e-14
-4.57566e-14
1.48687e-13
4.65046e-14
1.28945e-14
8.88116e-17
1.2279e-14
-2.85559e-15
-3.32137e-14
5.21226e-14
-2.31287e-14
-3.83258e-14
2.38241e-14
3.75453e-14
-2.71051e-14
1.84756e-09
4.83261e-10
-6.13318e-11
3.49012e-11
-6.11656e-12
1.9147e-12
-3.62225e-13
3.11902e-13
1.81805e-14
6.74183e-14
-3.0209e-14
2.58823e-14
2.16213e-14
4.34398e-15
1.02845e-14
-3.27584e-15
2.7844e-15
4.59915e-15
-1.28015e-14
0
-1.97626e-09
-4.32016e-11
-1.02214e-10
2.1338e-11
-1.11756e-11
6.1625e-12
-1.26816e-12
8.18981e-13
-1.82079e-13
1.28453e-13
-3.40066e-14
-8.7294e-15
2.43199e-15
-1.57484e-14
-1.72457e-14
-1.67354e-14
2.75271e-14
3.15426e-14
-3.99564e-14
0
1.21474e-09
5.54063e-10
-6.8913e-11
7.47662e-11
-1.26127e-11
7.74005e-12
-2.24083e-12
8.04706e-13
-3.49147e-13
7.61738e-14
-5.89705e-14
-4.73271e-14
3.72707e-14
1.7946e-14
-1.87559e-14
4.67627e-14
2.08598e-14
-1.24382e-14
-1.75916e-14
2.71051e-14
-1.58307e-09
1.38065e-09
-9.03926e-10
4.50594e-10
-1.73798e-10
5.68935e-11
-1.9868e-11
5.80048e-12
-1.97867e-12
4.60786e-13
-2.1684e-13
2.71051e-14
-2.71051e-14
2.71051e-14
0
-2.71051e-14
0
-2.71051e-14
0
-2.71051e-14
)
;

boundaryField
{
    movingWall
    {
        type            extrapolatedCalculated;
        value           nonuniform List<scalar> 
20
(
-1.58307e-09
1.38065e-09
-9.03926e-10
4.50594e-10
-1.73798e-10
5.68935e-11
-1.9868e-11
5.80048e-12
-1.97867e-12
4.60786e-13
-2.1684e-13
2.71051e-14
-2.71051e-14
2.71051e-14
0
-2.71051e-14
0
-2.71051e-14
0
-2.71051e-14
)
;
    }
    fixedWalls
    {
        type            extrapolatedCalculated;
        value           nonuniform List<scalar> 
60
(
-4.01046e-10
-4.28883e-10
-5.14373e-10
-1.33953e-10
5.06187e-10
-1.20718e-09
1.57301e-09
-1.99664e-09
2.12121e-09
-2.27926e-09
2.21595e-09
-2.23945e-09
2.10967e-09
-2.12178e-09
1.98217e-09
-2.04277e-09
1.84756e-09
-1.97626e-09
1.21474e-09
-1.58307e-09
-2.71051e-14
5.42101e-14
0
0
-5.42101e-14
0
0
-2.71051e-14
0
0
-5.42101e-14
-2.71051e-14
2.71051e-14
-2.71051e-14
0
-2.71051e-14
0
0
2.71051e-14
-2.71051e-14
-4.01046e-10
1.70604e-09
-9.16719e-10
4.77817e-10
-1.85543e-10
5.76356e-11
-2.13977e-11
5.749e-12
-2.19595e-12
5.0764e-13
-2.65396e-13
1.5193e-14
-2.89463e-14
1.75213e-14
-5.17048e-15
-1.73667e-14
-8.12759e-15
3.92957e-15
3.20295e-14
-2.71051e-14
)
;
    }
    frontAndBack
    {
        type            empty;
    }
}


// ************************************************************************* //
