/*--------------------------------*- C++ -*----------------------------------*\
| =========                 |                                                 |
| \\      /  F ield         | OpenFOAM: The Open Source CFD Toolbox           |
|  \\    /   O peration     | Version:  2506                                  |
|   \\  /    A nd           | Website:  www.openfoam.com                      |
|    \\/     M anipulation  |                                                 |
\*---------------------------------------------------------------------------*/
FoamFile
{
    version     2.0;
    format      ascii;
    arch        "LSB;label=32;scalar=64";
    class       volScalarField;
    location    "4.5";
    object      enstrophyField;
}
// * * * * * * * * * * * * * * * * * * * * * * * * * * * * * * * * * * * * * //

dimensions      [0 0 -2 0 0 0 0];

internalField   nonuniform List<scalar> 
400
(
5.15112e-13
7.9155e-13
4.46558e-14
2.5332e-15
1.4211e-16
8.21534e-18
4.42435e-19
2.88184e-20
1.09116e-21
1.69146e-22
1.84666e-25
5.6097e-24
1.3395e-24
8.00273e-25
3.1768e-25
9.73712e-26
4.6921e-26
1.0326e-26
2.87941e-27
3.50998e-28
5.09903e-13
7.90412e-13
4.46124e-14
2.51778e-15
1.42105e-16
8.01908e-18
4.52803e-19
2.55181e-20
1.44867e-21
8.03868e-23
4.92141e-24
1.99419e-25
3.33498e-26
7.36891e-29
3.04594e-27
8.56309e-27
1.34359e-27
3.80063e-27
8.57896e-28
1.50071e-27
5.08812e-13
7.86042e-13
4.42732e-14
2.49347e-15
1.40426e-16
7.90988e-18
4.453e-19
2.51183e-20
1.40766e-21
8.10956e-23
4.25284e-24
3.07357e-25
1.5683e-27
2.42959e-26
1.24428e-26
1.10884e-26
4.59622e-27
5.69741e-27
1.06576e-26
5.91832e-27
5.11176e-13
7.83657e-13
4.41185e-14
2.48356e-15
1.39808e-16
7.86998e-18
4.43109e-19
2.4914e-20
1.41248e-21
7.73331e-23
4.8989e-24
1.47738e-25
3.61313e-26
4.26491e-27
3.26831e-27
6.17888e-27
8.91106e-27
1.02063e-26
8.8092e-27
7.3868e-27
5.10028e-13
7.7945e-13
4.38682e-14
2.46871e-15
1.38925e-16
7.81898e-18
4.39777e-19
2.48175e-20
1.38101e-21
8.20167e-23
3.70709e-24
4.23335e-25
8.85547e-29
1.10717e-26
6.83836e-27
1.27914e-26
2.38912e-26
7.62191e-27
3.70257e-27
7.47399e-27
5.0849e-13
7.75488e-13
4.36383e-14
2.45533e-15
1.3816e-16
7.77232e-18
4.3765e-19
2.45642e-20
1.39761e-21
7.52178e-23
5.11039e-24
1.43434e-25
5.73482e-26
1.9857e-27
1.92319e-26
1.12266e-26
8.62042e-27
1.03025e-26
1.18099e-26
1.18477e-26
5.0589e-13
7.7117e-13
4.33918e-14
2.44132e-15
1.37349e-16
7.72865e-18
4.34636e-19
2.45045e-20
1.36905e-21
7.82719e-23
4.14416e-24
3.87583e-25
1.714e-27
2.23191e-26
7.64664e-27
7.39946e-27
1.91208e-26
2.01283e-26
1.25301e-26
1.02474e-26
5.03359e-13
7.67391e-13
4.31787e-14
2.42925e-15
1.36676e-16
7.68899e-18
4.32738e-19
2.43092e-20
1.37795e-21
7.49837e-23
4.99482e-24
1.43229e-25
6.79326e-26
2.0845e-26
2.03705e-26
1.12539e-26
1.28283e-26
9.57699e-27
8.89703e-27
8.91379e-27
5.00672e-13
7.63752e-13
4.29742e-14
2.41781e-15
1.36029e-16
7.654e-18
4.30464e-19
2.42676e-20
1.35426e-21
7.91035e-23
3.84355e-24
3.48377e-25
1.19755e-29
2.16443e-26
9.2763e-27
2.21403e-26
2.83389e-26
9.59313e-27
1.46929e-27
9.48033e-27
4.9829e-13
7.60639e-13
4.28005e-14
2.4081e-15
1.35491e-16
7.62279e-18
4.29091e-19
2.41119e-20
1.36538e-21
7.43329e-23
4.69399e-24
1.20105e-25
4.74436e-26
1.44792e-27
7.42814e-27
6.0962e-27
2.55788e-27
7.11667e-27
1.04607e-26
3.69285e-27
4.96067e-13
7.57789e-13
4.26415e-14
2.39926e-15
1.34992e-16
7.5968e-18
4.27265e-19
2.40908e-20
1.35018e-21
7.66708e-23
4.03777e-24
3.34549e-25
9.46629e-29
1.3068e-26
1.06677e-26
7.19166e-27
3.81655e-27
5.15964e-27
1.2432e-27
2.59098e-27
4.94136e-13
7.55293e-13
4.25026e-14
2.39149e-15
1.34567e-16
7.57165e-18
4.26194e-19
2.39598e-20
1.35768e-21
7.48771e-23
4.46142e-24
2.32448e-25
2.01561e-26
6.14631e-28
7.83087e-28
1.27171e-27
1.25231e-29
7.86976e-33
5.19406e-28
1.79344e-27
4.9246e-13
7.53054e-13
4.23775e-14
2.38452e-15
1.34175e-16
7.55033e-18
4.24805e-19
2.3928e-20
1.33944e-21
7.84955e-23
3.9206e-24
2.68392e-25
1.15104e-26
3.12245e-27
6.24995e-28
1.61894e-27
2.52942e-27
7.54427e-29
1.95827e-30
1.99234e-28
4.90916e-13
7.50948e-13
4.22596e-14
2.37793e-15
1.33807e-16
7.52902e-18
4.23704e-19
2.38379e-20
1.33976e-21
7.59241e-23
4.27215e-24
2.85674e-25
9.97118e-27
2.85621e-28
7.66379e-31
2.22473e-28
1.3392e-27
2.87544e-28
4.69547e-28
4.50147e-29
4.89694e-13
7.49113e-13
4.21566e-14
2.37213e-15
1.3348e-16
7.51074e-18
4.22703e-19
2.37495e-20
1.34354e-21
7.40684e-23
4.35077e-24
2.41429e-25
9.66196e-27
1.82252e-28
1.24077e-27
6.76146e-28
4.43212e-28
1.58681e-27
4.9486e-27
7.77639e-28
4.8833e-13
7.47193e-13
4.20483e-14
2.36602e-15
1.33136e-16
7.49186e-18
4.21474e-19
2.3723e-20
1.33491e-21
7.54255e-23
3.93424e-24
2.91966e-25
1.00197e-26
1.4923e-27
5.04368e-29
1.09757e-30
3.25661e-28
1.49589e-28
7.44213e-30
6.07531e-28
4.87595e-13
7.45716e-13
4.19648e-14
2.36129e-15
1.32868e-16
7.47631e-18
4.20724e-19
2.36734e-20
1.33209e-21
7.4335e-23
4.24245e-24
2.73795e-25
1.12917e-26
5.83995e-27
8.56272e-34
9.50275e-28
5.3721e-28
2.96072e-27
1.34606e-28
1.4501e-27
4.86029e-13
7.4382e-13
4.18576e-14
2.35524e-15
1.32522e-16
7.45707e-18
4.19585e-19
2.36265e-20
1.32374e-21
7.60685e-23
4.28459e-24
2.3352e-25
6.9156e-27
7.66841e-27
1.89032e-28
1.64307e-27
9.17779e-29
5.86874e-28
1.93256e-27
7.37328e-28
4.87313e-13
7.44404e-13
4.19536e-14
2.36418e-15
1.33228e-16
7.50797e-18
4.23114e-19
2.38564e-20
1.34408e-21
7.62481e-23
4.20081e-24
2.27185e-25
1.84132e-26
3.1955e-29
5.70517e-28
7.86339e-28
1.0851e-27
5.70604e-28
4.07519e-30
3.19007e-29
4.86951e-13
7.42872e-13
4.18726e-14
2.36862e-15
1.3319e-16
7.62244e-18
4.19578e-19
2.5646e-20
1.18848e-21
1.12866e-22
8.99867e-25
1.52442e-24
1.23399e-25
1.22052e-25
3.54014e-26
1.76143e-26
1.12522e-26
2.00295e-27
5.03761e-28
6.56517e-28
)
;

boundaryField
{
    movingWall
    {
        type            calculated;
        value           nonuniform List<scalar> 
20
(
4.9036e-13
7.47085e-13
4.22875e-14
2.41516e-15
1.36026e-16
7.96763e-18
4.29488e-19
2.88076e-20
1.07486e-21
1.71284e-22
8.792e-26
4.55375e-24
8.73262e-25
5.20282e-25
2.07283e-25
9.02033e-26
3.94645e-26
1.74317e-26
4.36685e-27
1.43325e-27
)
;
    }
    fixedWalls
    {
        type            calculated;
        value           nonuniform List<scalar> 
60
(
1.42036e-11
1.41744e-11
1.41185e-11
1.40772e-11
1.40028e-11
1.39324e-11
1.38552e-11
1.37874e-11
1.3722e-11
1.36659e-11
1.36146e-11
1.35695e-11
1.35291e-11
1.34912e-11
1.34581e-11
1.34236e-11
1.3397e-11
1.33629e-11
1.33539e-11
1.33308e-11
7.25268e-28
1.275e-27
3.70648e-27
7.25817e-27
8.42177e-27
1.4802e-26
1.22881e-26
9.95206e-27
1.05387e-26
4.74541e-27
4.45411e-27
3.86985e-27
9.03516e-28
6.41825e-29
4.91413e-29
1.22889e-28
1.54948e-27
1.02626e-27
2.33357e-30
1.00293e-27
5.2445e-13
7.97546e-13
4.51862e-14
2.59265e-15
1.45036e-16
8.67149e-18
4.45834e-19
3.3848e-20
8.17629e-22
3.08781e-22
9.54597e-24
1.86412e-23
6.15641e-24
3.07616e-24
1.41336e-24
4.67842e-25
1.87641e-25
3.311e-26
1.19976e-26
2.5137e-27
)
;
    }
    frontAndBack
    {
        type            empty;
    }
}


// ************************************************************************* //
