/*--------------------------------*- C++ -*----------------------------------*\
| =========                 |                                                 |
| \\      /  F ield         | OpenFOAM: The Open Source CFD Toolbox           |
|  \\    /   O peration     | Version:  2506                                  |
|   \\  /    A nd           | Website:  www.openfoam.com                      |
|    \\/     M anipulation  |                                                 |
\*---------------------------------------------------------------------------*/
FoamFile
{
    version     2.0;
    format      ascii;
    arch        "LSB;label=32;scalar=64";
    class       volScalarField;
    location    "4.5";
    object      flowTypeField;
}
// * * * * * * * * * * * * * * * * * * * * * * * * * * * * * * * * * * * * * //

dimensions      [0 0 0 0 0 0 0];

internalField   nonuniform List<scalar> 
400
(
0.00134341
-0.000495064
-0.000843548
-0.00305631
-0.00133726
-0.0108962
0.00940967
-0.0550867
0.126034
-0.359062
0.837057
-0.163736
0.148746
0.0435798
0.115016
0.186057
0.178688
0.235338
0.124038
0.526338
0.00595763
0.000198095
0.000450342
-0.00182304
-0.000581088
-0.00601735
0.00094423
-0.020134
0.0235796
-0.0806215
0.210701
0.442637
0.694106
0.974325
0.805947
0.550684
0.723198
0.445218
0.644285
0.263621
0.00523865
0.000806304
0.00135282
0.00153181
0.000806037
0.00439906
-0.00381877
0.018554
-0.0392792
0.106085
-0.202192
0.494961
0.905285
0.601318
0.581278
0.527135
0.554876
0.400865
-0.0265573
-0.207626
0.000814183
0.00011033
0.000145069
0.000104973
0.000395087
-0.00123983
0.0045337
-0.0139761
0.037844
-0.131151
0.241189
0.297401
0.66255
0.787942
0.785479
0.627997
0.472158
0.183649
0.06427
0.04124
-0.000908251
-0.000165642
-0.000291236
-0.000250619
-0.000504833
0.000270921
-0.00322821
0.00896036
-0.0329944
0.081946
-0.44584
0.39332
0.967311
0.6912
0.657699
0.477642
0.141946
0.313307
0.388765
0.224032
-0.00210579
-0.000344224
-0.000619526
-0.000544856
-0.000686992
-0.00123945
0.000686128
-0.00787137
0.0210618
-0.0851304
0.18327
0.0863982
0.530333
0.836364
0.453105
0.47539
0.45424
0.295573
0.055897
1.87764e-08
-0.00234953
-0.000382322
-0.000651366
-0.000614023
-0.000761178
-0.000764176
-0.0019899
0.00305687
-0.0188193
0.0634985
-0.241251
0.34764
0.864828
0.558478
0.623012
0.556146
0.142065
0.042279
0.00316807
0.00145164
-0.00230022
-0.00036634
-0.000632899
-0.000564922
-0.000719014
-0.000951078
-0.000342674
-0.00381317
0.00973921
-0.0400816
0.12051
0.213575
0.454396
0.484203
0.381764
0.411714
0.347884
0.21298
0.0816038
0.00259694
-0.00195274
-0.00030914
-0.000517418
-0.000486812
-0.000564426
-0.00070321
-0.000959688
0.000322106
-0.00652255
0.0229963
-0.0330575
0.311656
0.985285
0.508182
0.496428
0.275773
-0.0118224
0.0798231
0.547541
-0.235677
-0.00156638
-0.000243812
-0.000409339
-0.000369492
-0.000455726
-0.000531859
-0.000570737
-0.00122046
0.00150345
-0.00255656
0.0681206
0.369867
0.459617
0.845427
0.59945
0.508206
0.557594
0.225372
-0.198128
0.00234451
-0.00115657
-0.000177708
-0.000293244
-0.000272969
-0.00029655
-0.000461989
-0.000233616
-0.00118605
0.000319174
0.00445633
0.0490664
0.208154
0.961478
0.554195
0.432312
0.483767
0.504581
0.22117
0.319711
0.186046
-0.000817129
-0.000123976
-0.000202485
-0.000183524
-0.000223209
-0.000215232
-0.000609548
0.000758741
-0.00590269
0.0189206
0.000734712
0.303798
0.572751
0.870254
0.832599
0.62944
0.957225
0.984903
0.575064
0.0221497
-0.000575699
-8.56818e-05
-0.000142412
-0.000124382
-0.000141428
-0.000269843
0.000294379
-0.00244375
0.00857306
-0.0369272
0.128314
0.0821678
0.656898
0.71226
0.831164
0.566175
0.398056
0.865158
0.936136
0.606696
-0.000381676
-5.75122e-05
-8.65198e-05
-8.66944e-05
-0.000106808
5.60253e-05
-0.000848569
0.00311292
-0.0107956
0.0359285
-0.112904
0.272841
0.595113
0.906279
0.989612
0.801812
0.442079
0.703256
0.503228
0.603239
-0.000362339
-5.28628e-05
-9.27221e-05
-7.95815e-05
-5.43036e-05
-0.000368824
0.0010607
-0.0042178
0.014587
-0.0471316
0.141322
-0.160011
0.69931
0.905912
0.677851
0.7346
0.591557
0.373721
-0.556945
-0.373823
-0.000223442
-3.49149e-05
-4.5224e-05
-3.49502e-05
-0.000138834
0.000447947
-0.00188857
0.00668441
-0.0218706
0.0624517
-0.217012
0.320093
0.502274
0.779504
0.927086
0.9749
0.541745
0.6508
0.93434
0.10658
-0.000519612
-7.77693e-05
-0.000134376
-0.000161634
6.00445e-05
-0.00112126
0.00262305
-0.00942576
0.0250857
-0.0817221
0.183005
-0.500715
0.664136
0.5999
0.995425
0.566253
0.595455
0.289814
0.651991
0.00916422
-9.54123e-05
-3.08822e-05
-1.84301e-05
0.000218965
-0.00036736
0.00179438
-0.00338398
0.0107463
-0.0252636
0.0647584
-0.227419
0.374906
0.562346
0.546162
0.875947
0.436146
0.687459
0.195375
0.159594
0.0188997
-0.00219555
-0.0010785
-0.00180989
-0.00347103
-0.0035354
-0.00777411
-0.00418683
-0.0194189
0.00892547
-0.0752965
0.136578
0.0770054
0.568148
0.956662
0.782906
0.592473
0.495508
0.486097
0.905933
0.69301
-0.00274924
-0.00113685
-0.0020177
-0.00372521
-0.00347496
-0.00982433
0.000341102
-0.0354842
0.0542236
-0.191042
0.542457
-0.319278
0.319957
-0.0107352
0.127291
0.124409
0.0528756
0.246111
0.228136
0.105386
)
;

boundaryField
{
    movingWall
    {
        type            calculated;
        value           nonuniform List<scalar> 
20
(
0.762913
0.267181
0.265658
0.261253
0.261723
0.249213
0.265079
0.206179
0.344069
-0.0325219
0.90076
-0.312853
0.140134
-0.0552599
0.0174339
0.00163226
-0.0112386
0.0142246
0.0146765
0.0376637
)
;
    }
    fixedWalls
    {
        type            calculated;
        value           nonuniform List<scalar> 
60
(
0.000257146
0.00113724
0.00101041
0.000168097
-0.000160266
-0.000392609
-0.000441898
-0.00043548
-0.000370687
-0.000298198
-0.000220431
-0.000156049
-0.000110027
-7.31493e-05
-6.94004e-05
-4.30108e-05
-9.93847e-05
-1.85991e-05
-0.000418747
-0.000523704
0.349919
0.453792
-0.0705631
0.0752562
0.200593
1.50361e-08
0.00121167
0.00232793
-0.129987
0.0873828
0.0909816
0.108839
0.0837718
0.688107
0.624981
0.622304
0.00859014
0.013761
0.898555
0.183756
0.762673
0.267317
0.266108
0.260604
0.263927
0.245094
0.277134
0.175859
0.442914
-0.229195
0.46653
-0.152183
0.0556874
-0.0175817
0.0203351
0.0391568
0.047076
0.0750766
-0.00911379
0.146008
)
;
    }
    frontAndBack
    {
        type            empty;
    }
}


// ************************************************************************* //
