/*--------------------------------*- C++ -*----------------------------------*\
| =========                 |                                                 |
| \\      /  F ield         | OpenFOAM: The Open Source CFD Toolbox           |
|  \\    /   O peration     | Version:  2506                                  |
|   \\  /    A nd           | Website:  www.openfoam.com                      |
|    \\/     M anipulation  |                                                 |
\*---------------------------------------------------------------------------*/
FoamFile
{
    version     2.0;
    format      ascii;
    arch        "LSB;label=32;scalar=64";
    class       surfaceScalarField;
    location    "4.5";
    object      fluxField;
}
// * * * * * * * * * * * * * * * * * * * * * * * * * * * * * * * * * * * * * //

dimensions      [0 3 -1 0 0 0 0];

oriented        oriented;

internalField   nonuniform List<scalar> 
760
(
-5e-05
5.06181e-17
-5e-05
6.58626e-17
-5e-05
4.15049e-17
-5e-05
5.28099e-18
-5e-05
9.47767e-18
-5e-05
1.80504e-18
-5e-05
2.30099e-18
-5e-05
9.42583e-19
-5e-05
7.72383e-19
-5e-05
4.65723e-19
-5e-05
3.40227e-19
-5e-05
2.34191e-19
-5e-05
1.68946e-19
-5e-05
1.19577e-19
-5e-05
8.67988e-20
-5e-05
6.3421e-20
-5e-05
4.54019e-20
-5e-05
2.80874e-20
-5e-05
1.47836e-20
5.53646e-21
-5e-05
-7.04659e-16
-5e-05
2.42223e-16
-5e-05
-2.05306e-17
-5e-05
2.4229e-17
-5e-05
6.54406e-18
-5e-05
4.99468e-18
-5e-05
3.03724e-18
-5e-05
1.87699e-18
-5e-05
1.29269e-18
-5e-05
8.65225e-19
-5e-05
6.14669e-19
-5e-05
4.37311e-19
-5e-05
3.19046e-19
-5e-05
2.30893e-19
-5e-05
1.66034e-19
-5e-05
1.17732e-19
-5e-05
8.25351e-20
-5e-05
5.36981e-20
-5e-05
2.72759e-20
6.84319e-21
-5e-05
7.67492e-16
-5e-05
-2.27744e-16
-5e-05
7.21704e-17
-5e-05
-7.44322e-18
-5e-05
1.17927e-17
-5e-05
3.55446e-18
-5e-05
3.67129e-18
-5e-05
2.17036e-18
-5e-05
1.61335e-18
-5e-05
1.1109e-18
-5e-05
8.06775e-19
-5e-05
5.83135e-19
-5e-05
4.28175e-19
-5e-05
3.13091e-19
-5e-05
2.28004e-19
-5e-05
1.65349e-19
-5e-05
1.15549e-19
-5e-05
7.4124e-20
-5e-05
3.95922e-20
1.12173e-20
-5e-05
-9.85661e-16
-5e-05
2.65266e-16
-5e-05
-5.79788e-17
-5e-05
2.19622e-17
-5e-05
1.05494e-18
-5e-05
5.00859e-18
-5e-05
2.79709e-18
-5e-05
2.30609e-18
-5e-05
1.63813e-18
-5e-05
1.21533e-18
-5e-05
8.94842e-19
-5e-05
6.59507e-19
-5e-05
4.88992e-19
-5e-05
3.65359e-19
-5e-05
2.72847e-19
-5e-05
2.00713e-19
-5e-05
1.37306e-19
-5e-05
8.55851e-20
-5e-05
5.03927e-20
1.73357e-20
-5e-05
9.07842e-16
-5e-05
-2.28119e-16
-5e-05
5.97684e-17
-5e-05
-9.92554e-18
-5e-05
7.18589e-18
-5e-05
2.29485e-18
-5e-05
2.77479e-18
-5e-05
1.95451e-18
-5e-05
1.56157e-18
-5e-05
1.17781e-18
-5e-05
8.97436e-19
-5e-05
6.73043e-19
-5e-05
5.09921e-19
-5e-05
3.88537e-19
-5e-05
2.94334e-19
-5e-05
2.15402e-19
-5e-05
1.49124e-19
-5e-05
9.40468e-20
-5e-05
5.5266e-20
2.05591e-20
-5e-05
-9.29834e-16
-5e-05
2.26476e-16
-5e-05
-5.15354e-17
-5e-05
1.56178e-17
-5e-05
-4.30752e-19
-5e-05
3.14802e-18
-5e-05
1.87456e-18
-5e-05
1.73137e-18
-5e-05
1.34563e-18
-5e-05
1.07383e-18
-5e-05
8.36763e-19
-5e-05
6.48725e-19
-5e-05
4.99833e-19
-5e-05
3.82184e-19
-5e-05
2.88957e-19
-5e-05
2.14146e-19
-5e-05
1.53321e-19
-5e-05
9.85495e-20
-5e-05
5.37218e-20
2.05516e-20
-5e-05
8.01634e-16
-5e-05
-1.88143e-16
-5e-05
4.66054e-17
-5e-05
-8.77293e-18
-5e-05
4.41179e-18
-5e-05
1.18951e-18
-5e-05
1.72442e-18
-5e-05
1.31961e-18
-5e-05
1.13066e-18
-5e-05
9.1123e-19
-5e-05
7.32216e-19
-5e-05
5.83309e-19
-5e-05
4.56176e-19
-5e-05
3.49942e-19
-5e-05
2.6422e-19
-5e-05
2.00802e-19
-5e-05
1.4209e-19
-5e-05
9.15402e-20
-5e-05
5.05544e-20
1.86156e-20
-5e-05
-7.57077e-16
-5e-05
1.76437e-16
-5e-05
-4.05721e-17
-5e-05
1.09377e-17
-5e-05
-9.47932e-19
-5e-05
1.7973e-18
-5e-05
1.04131e-18
-5e-05
1.04989e-18
-5e-05
8.64889e-19
-5e-05
7.26498e-19
-5e-05
5.92172e-19
-5e-05
4.80401e-19
-5e-05
3.81772e-19
-5e-05
3.01383e-19
-5e-05
2.31278e-19
-5e-05
1.76213e-19
-5e-05
1.20835e-19
-5e-05
7.66506e-20
-5e-05
4.48308e-20
1.61973e-20
-5e-05
6.44673e-16
-5e-05
-1.4745e-16
-5e-05
3.55327e-17
-5e-05
-7.29478e-18
-5e-05
2.69686e-18
-5e-05
3.95896e-19
-5e-05
8.76239e-19
-5e-05
6.78105e-19
-5e-05
6.17981e-19
-5e-05
5.23151e-19
-5e-05
4.40371e-19
-5e-05
3.62205e-19
-5e-05
2.93233e-19
-5e-05
2.38985e-19
-5e-05
1.87108e-19
-5e-05
1.4058e-19
-5e-05
1.00119e-19
-5e-05
6.31813e-20
-5e-05
3.56647e-20
1.34685e-20
-5e-05
-5.88921e-16
-5e-05
1.35209e-16
-5e-05
-3.14482e-17
-5e-05
7.75302e-18
-5e-05
-1.27104e-18
-5e-05
8.22025e-19
-5e-05
3.26741e-19
-5e-05
4.10014e-19
-5e-05
3.50809e-19
-5e-05
3.23559e-19
-5e-05
2.82917e-19
-5e-05
2.40895e-19
-5e-05
2.00949e-19
-5e-05
1.67326e-19
-5e-05
1.33527e-19
-5e-05
1.00337e-19
-5e-05
7.59393e-20
-5e-05
4.70618e-20
-5e-05
2.74937e-20
1.19878e-20
-5e-05
5.18482e-16
-5e-05
-1.1876e-16
-5e-05
2.8008e-17
-5e-05
-6.46625e-18
-5e-05
1.52124e-18
-5e-05
-3.04712e-19
-5e-05
1.51375e-19
-5e-05
7.31857e-20
-5e-05
1.1039e-19
-5e-05
1.18469e-19
-5e-05
1.21398e-19
-5e-05
1.16009e-19
-5e-05
1.07688e-19
-5e-05
9.63594e-20
-5e-05
8.28134e-20
-5e-05
6.35015e-20
-5e-05
4.6999e-20
-5e-05
2.93582e-20
-5e-05
2.15717e-20
1.13974e-20
-5e-05
-4.69828e-16
-5e-05
1.08544e-16
-5e-05
-2.5936e-17
-5e-05
5.62552e-18
-5e-05
-1.77019e-18
-5e-05
-1.02259e-20
-5e-05
-3.45007e-19
-5e-05
-1.76511e-19
-5e-05
-1.32561e-19
-5e-05
-7.45644e-20
-5e-05
-3.62036e-20
-5e-05
-6.09178e-21
-5e-05
1.88534e-20
-5e-05
2.90789e-20
-5e-05
3.49674e-20
-5e-05
3.06752e-20
-5e-05
2.16863e-20
-5e-05
1.41449e-20
-5e-05
1.18078e-20
8.1553e-21
-5e-05
4.4431e-16
-5e-05
-1.0376e-16
-5e-05
2.37309e-17
-5e-05
-6.55259e-18
-5e-05
5.01913e-19
-5e-05
-1.06484e-18
-5e-05
-5.51753e-19
-5e-05
-5.01747e-19
-5e-05
-3.49923e-19
-5e-05
-2.52563e-19
-5e-05
-1.71264e-19
-5e-05
-1.07092e-19
-5e-05
-5.70387e-20
-5e-05
-2.99263e-20
-5e-05
-9.83336e-21
-5e-05
1.58298e-21
-5e-05
1.54325e-21
-5e-05
-2.03167e-21
-5e-05
-7.46617e-22
3.36494e-21
-5e-05
-3.96505e-16
-5e-05
9.29817e-17
-5e-05
-2.35519e-17
-5e-05
3.8533e-18
-5e-05
-2.65993e-18
-5e-05
-9.19482e-19
-5e-05
-1.06828e-18
-5e-05
-7.51165e-19
-5e-05
-5.67181e-19
-5e-05
-4.00912e-19
-5e-05
-2.78579e-19
-5e-05
-1.84155e-19
-5e-05
-1.21029e-19
-5e-05
-7.62867e-20
-5e-05
-4.52875e-20
-5e-05
-2.34849e-20
-5e-05
-1.53261e-20
-5e-05
-1.54274e-20
-5e-05
-7.23766e-21
1.78257e-21
-5e-05
4.07511e-16
-5e-05
-9.74709e-17
-5e-05
2.05514e-17
-5e-05
-7.65763e-18
-5e-05
-8.7336e-19
-5e-05
-2.043e-18
-5e-05
-1.29869e-18
-5e-05
-1.03108e-18
-5e-05
-7.32727e-19
-5e-05
-5.21833e-19
-5e-05
-3.59389e-19
-5e-05
-2.41698e-19
-5e-05
-1.65887e-19
-5e-05
-1.0681e-19
-5e-05
-6.89108e-20
-5e-05
-4.44118e-20
-5e-05
-3.03e-20
-5e-05
-2.3812e-20
-5e-05
-1.18921e-20
9.46256e-23
-5e-05
-3.38875e-16
-5e-05
7.97658e-17
-5e-05
-2.37067e-17
-5e-05
1.27873e-18
-5e-05
-4.30974e-18
-5e-05
-2.01513e-18
-5e-05
-1.78682e-18
-5e-05
-1.18256e-18
-5e-05
-8.55736e-19
-5e-05
-5.86311e-19
-5e-05
-3.99777e-19
-5e-05
-2.67981e-19
-5e-05
-1.83673e-19
-5e-05
-1.235e-19
-5e-05
-8.1837e-20
-5e-05
-5.3216e-20
-5e-05
-3.66865e-20
-5e-05
-2.79253e-20
-5e-05
-1.77187e-20
-4.4591e-21
-5e-05
3.85898e-16
-5e-05
-9.41481e-17
-5e-05
1.19889e-17
-5e-05
-1.00043e-17
-5e-05
-3.47393e-18
-5e-05
-2.94334e-18
-5e-05
-1.89982e-18
-5e-05
-1.25695e-18
-5e-05
-8.5604e-19
-5e-05
-5.65904e-19
-5e-05
-3.80247e-19
-5e-05
-2.57804e-19
-5e-05
-1.77554e-19
-5e-05
-1.20887e-19
-5e-05
-7.8744e-20
-5e-05
-4.82528e-20
-5e-05
-3.31852e-20
-5e-05
-2.59553e-20
-5e-05
-1.67529e-20
-6.31081e-21
-5e-05
-2.3838e-16
-5e-05
4.68588e-17
-5e-05
-3.87266e-17
-5e-05
3.0651e-19
-5e-05
-8.03195e-18
-5e-05
-1.73909e-18
-5e-05
-2.11275e-18
-5e-05
-9.67548e-19
-5e-05
-7.43475e-19
-5e-05
-4.42225e-19
-5e-05
-3.06657e-19
-5e-05
-2.0547e-19
-5e-05
-1.41694e-19
-5e-05
-9.20285e-20
-5e-05
-5.85215e-20
-5e-05
-3.80652e-20
-5e-05
-2.69995e-20
-5e-05
-1.92194e-20
-5e-05
-9.98909e-21
-4.39059e-21
-5e-05
3.13348e-16
-5e-05
-8.63885e-17
-5e-05
-1.81837e-17
-5e-05
-1.14258e-18
-5e-05
-6.7988e-18
-5e-05
-4.84113e-19
-5e-05
-1.56309e-18
-5e-05
-4.62897e-19
-5e-05
-4.59981e-19
-5e-05
-2.38455e-19
-5e-05
-1.77373e-19
-5e-05
-1.13476e-19
-5e-05
-7.87738e-20
-5e-05
-4.97236e-20
-5e-05
-3.1794e-20
-5e-05
-2.21906e-20
-5e-05
-1.51138e-20
-5e-05
-9.8858e-21
-5e-05
-4.3979e-21
-2.66416e-21
-5e-05
-5e-05
-5e-05
-5e-05
-5e-05
-5e-05
-5e-05
-5e-05
-5e-05
-5e-05
-5e-05
-5e-05
-5e-05
-5e-05
-5e-05
-5e-05
-5e-05
-5e-05
-5e-05
)
;

boundaryField
{
    movingWall
    {
        type            calculated;
        value           uniform -0;
    }
    fixedWalls
    {
        type            calculated;
        value           nonuniform List<scalar> 
60
(
5e-05
5e-05
5e-05
5e-05
5e-05
5e-05
5e-05
5e-05
5e-05
5e-05
5e-05
5e-05
5e-05
5e-05
5e-05
5e-05
5e-05
5e-05
5e-05
5e-05
-5e-05
-5e-05
-5e-05
-5e-05
-5e-05
-5e-05
-5e-05
-5e-05
-5e-05
-5e-05
-5e-05
-5e-05
-5e-05
-5e-05
-5e-05
-5e-05
-5e-05
-5e-05
-5e-05
-5e-05
0
0
0
0
0
0
0
0
0
0
0
0
0
0
0
0
0
0
0
0
)
;
    }
    frontAndBack
    {
        type            empty;
    }
}


// ************************************************************************* //
