/*--------------------------------*- C++ -*----------------------------------*\
| =========                 |                                                 |
| \\      /  F ield         | OpenFOAM: The Open Source CFD Toolbox           |
|  \\    /   O peration     | Version:  2506                                  |
|   \\  /    A nd           | Website:  www.openfoam.com                      |
|    \\/     M anipulation  |                                                 |
\*---------------------------------------------------------------------------*/
FoamFile
{
    version     2.0;
    format      ascii;
    arch        "LSB;label=32;scalar=64";
    class       volVectorField;
    location    "4.5";
    object      gradPhi;
}
// * * * * * * * * * * * * * * * * * * * * * * * * * * * * * * * * * * * * * //

dimensions      [0 2 -1 0 0 0 0];

internalField   nonuniform List<vector> 
400
(
(-0.02 -5.68568e-15 0)
(1.36137e-14 -1.36127e-14 0)
(-1.50613e-14 1.50617e-14 0)
(2.77933e-16 -2.79545e-16 0)
(-3.00763e-15 3.00852e-15 0)
(-2.74624e-16 2.75118e-16 0)
(-5.64137e-16 5.63313e-16 0)
(-1.8198e-16 1.82465e-16 0)
(-1.65436e-16 1.65241e-16 0)
(-9.42986e-17 9.43994e-17 0)
(-6.94832e-17 7.04089e-17 0)
(-4.96308e-17 4.78767e-17 0)
(-3.30872e-17 3.46521e-17 0)
(-2.48154e-17 2.36896e-17 0)
(-1.65436e-17 1.69069e-17 0)
(-1.32349e-17 1.25972e-17 0)
(-8.27181e-18 9.28041e-18 0)
(-6.61744e-18 5.75127e-18 0)
(-3.30872e-18 2.9391e-18 0)
(0 2.04562e-18 0)
(-0.02 -1.03684e-13 0)
(-1.17797e-13 1.17797e-13 0)
(2.14604e-14 -2.14606e-14 0)
(-8.26188e-15 8.26166e-15 0)
(2.465e-15 -2.46631e-15 0)
(-9.46295e-16 9.46976e-16 0)
(-4.96308e-18 5.66375e-18 0)
(-2.26647e-16 2.26656e-16 0)
(-9.76073e-17 9.67695e-17 0)
(-8.27181e-17 8.44056e-17 0)
(-5.45939e-17 5.42461e-17 0)
(-4.1359e-17 4.09439e-17 0)
(-2.97785e-17 2.96876e-17 0)
(-2.31611e-17 2.34531e-17 0)
(-1.65436e-17 1.73873e-17 0)
(-1.32349e-17 1.13741e-17 0)
(-6.61744e-18 7.11405e-18 0)
(-3.30872e-18 4.97209e-18 0)
(-4.96308e-18 2.80454e-18 0)
(1.65436e-18 -1.61258e-18 0)
(-0.02 2.18302e-13 0)
(2.27025e-13 -2.27024e-13 0)
(-1.96935e-14 1.96941e-14 0)
(1.35112e-14 -1.3512e-14 0)
(-2.66352e-15 2.66469e-15 0)
(6.51818e-16 -6.5128e-16 0)
(-2.49809e-16 2.50039e-16 0)
(-1.8198e-17 1.74746e-17 0)
(-6.94832e-17 7.09016e-17 0)
(-4.46678e-17 4.56207e-17 0)
(-3.97047e-17 3.91683e-17 0)
(-2.81241e-17 2.86322e-17 0)
(-2.31611e-17 2.24312e-17 0)
(-1.65436e-17 1.61616e-17 0)
(-1.15805e-17 1.14876e-17 0)
(-9.92617e-18 8.89826e-18 0)
(-6.61744e-18 6.83326e-18 0)
(-4.96308e-18 4.89749e-18 0)
(-3.30872e-18 2.52201e-18 0)
(-1.65436e-18 2.08049e-18 0)
(-0.02 -2.4651e-13 0)
(-2.60514e-13 2.60514e-13 0)
(2.42761e-14 -2.42751e-14 0)
(-1.40108e-14 1.40093e-14 0)
(4.08627e-15 -4.08546e-15 0)
(-5.55865e-16 5.55011e-16 0)
(3.52379e-16 -3.51847e-16 0)
(-5.29396e-17 5.15438e-17 0)
(9.92617e-18 -8.59834e-18 0)
(-2.31611e-17 2.15349e-17 0)
(-1.65436e-17 1.60285e-17 0)
(-1.65436e-17 1.60535e-17 0)
(-9.92617e-18 1.14188e-17 0)
(-9.92617e-18 1.00594e-17 0)
(-8.27181e-18 8.77136e-18 0)
(-8.27181e-18 8.02747e-18 0)
(-4.96308e-18 5.10082e-18 0)
(-3.30872e-18 1.29909e-18 0)
(0 1.52005e-18 0)
(-1.65436e-18 1.05298e-18 0)
(-0.02 2.52763e-13 0)
(2.63465e-13 -2.63466e-13 0)
(-2.23703e-14 2.23723e-14 0)
(1.42275e-14 -1.42276e-14 0)
(-3.30376e-15 3.30293e-15 0)
(8.02365e-16 -8.03876e-16 0)
(-1.60473e-16 1.62213e-16 0)
(1.04225e-16 -1.0442e-16 0)
(8.27181e-18 -7.90137e-18 0)
(9.92617e-18 -1.12616e-17 0)
(0 7.77951e-19 0)
(0 1.2862e-18 0)
(-4.96308e-18 4.44668e-18 0)
(-3.30872e-18 4.50054e-18 0)
(-4.96308e-18 4.73661e-18 0)
(-1.65436e-18 2.55504e-18 0)
(-1.65436e-18 1.20814e-18 0)
(-1.65436e-18 1.64135e-18 0)
(-1.65436e-18 1.68894e-18 0)
(-1.65436e-18 8.93508e-19 0)
(-0.02 -2.29319e-13 0)
(-2.41902e-13 2.41904e-13 0)
(2.12006e-14 -2.1201e-14 0)
(-1.20222e-14 1.2021e-14 0)
(3.37986e-15 -3.38108e-15 0)
(-4.08627e-16 4.10181e-16 0)
(3.24255e-16 -3.24786e-16 0)
(1.65436e-17 -1.62299e-17 0)
(5.29396e-17 -5.18929e-17 0)
(1.65436e-17 -1.87612e-17 0)
(1.32349e-17 -1.30588e-17 0)
(6.61744e-18 -4.31719e-18 0)
(1.65436e-18 -2.44162e-18 0)
(1.65436e-18 -8.88096e-19 0)
(0 -5.68827e-19 0)
(1.65436e-18 -7.04026e-19 0)
(-3.30872e-18 1.45737e-18 0)
(-1.65436e-18 1.48982e-18 0)
(1.65436e-18 -8.43954e-19 0)
(1.65436e-18 -7.78388e-20 0)
(-0.02 2.02946e-13 0)
(2.12842e-13 -2.12842e-13 0)
(-1.86083e-14 1.86091e-14 0)
(1.05151e-14 -1.05161e-14 0)
(-2.53117e-15 2.53064e-15 0)
(5.80681e-16 -5.8024e-16 0)
(-8.93355e-17 8.99806e-17 0)
(1.04225e-16 -1.05232e-16 0)
(3.63959e-17 -3.57466e-17 0)
(3.47416e-17 -3.47379e-17 0)
(2.15067e-17 -2.14713e-17 0)
(1.32349e-17 -1.42516e-17 0)
(8.27181e-18 -8.51442e-18 0)
(6.61744e-18 -6.46501e-18 0)
(6.61744e-18 -6.12547e-18 0)
(1.65436e-18 -2.68181e-18 0)
(3.30872e-18 -2.73584e-18 0)
(1.65436e-18 -1.01604e-18 0)
(-1.65436e-18 -8.18951e-20 0)
(1.65436e-18 -7.93093e-19 0)
(-0.02 -1.69186e-13 0)
(-1.79715e-13 1.79715e-13 0)
(1.63451e-14 -1.6346e-14 0)
(-8.30158e-15 8.30248e-15 0)
(2.29791e-15 -2.29804e-15 0)
(-2.64698e-16 2.64465e-16 0)
(2.28302e-16 -2.27002e-16 0)
(3.63959e-17 -3.63658e-17 0)
(5.9557e-17 -5.92093e-17 0)
(3.47416e-17 -3.56003e-17 0)
(2.81241e-17 -2.75629e-17 0)
(1.98523e-17 -1.94284e-17 0)
(1.48893e-17 -1.53074e-17 0)
(1.15805e-17 -1.04072e-17 0)
(6.61744e-18 -6.38973e-18 0)
(1.65436e-18 -3.78091e-18 0)
(4.96308e-18 -3.44341e-18 0)
(3.30872e-18 -4.50106e-18 0)
(1.65436e-18 -1.75461e-18 0)
(0 -9.11706e-20 0)
(-0.02 1.41804e-13 0)
(1.49974e-13 -1.49977e-13 0)
(-1.4024e-14 1.40249e-14 0)
(6.8838e-15 -6.88526e-15 0)
(-1.65767e-15 1.65622e-15 0)
(3.77194e-16 -3.76775e-16 0)
(-3.30872e-17 3.4996e-17 0)
(8.43724e-17 -8.57727e-17 0)
(4.46678e-17 -4.4653e-17 0)
(4.30134e-17 -4.20081e-17 0)
(3.14329e-17 -3.08791e-17 0)
(2.31611e-17 -2.4806e-17 0)
(1.8198e-17 -1.75297e-17 0)
(1.15805e-17 -1.22665e-17 0)
(8.27181e-18 -8.68332e-18 0)
(8.27181e-18 -8.7449e-18 0)
(4.96308e-18 -5.41531e-18 0)
(1.65436e-18 -1.41575e-18 0)
(1.65436e-18 -1.62212e-18 0)
(0 -1.03729e-18 0)
(-0.02 -1.14809e-13 0)
(-1.2327e-13 1.2327e-13 0)
(1.20851e-14 -1.20851e-14 0)
(-5.36013e-15 5.36046e-15 0)
(1.46907e-15 -1.47108e-15 0)
(-1.47238e-16 1.4863e-16 0)
(1.57164e-16 -1.57319e-16 0)
(4.46678e-17 -4.50295e-17 0)
(5.62483e-17 -5.56919e-17 0)
(3.80503e-17 -3.83745e-17 0)
(3.14329e-17 -3.06001e-17 0)
(2.48154e-17 -2.3723e-17 0)
(1.98523e-17 -1.91937e-17 0)
(1.48893e-17 -1.44381e-17 0)
(9.92617e-18 -1.10852e-17 0)
(8.27181e-18 -7.89512e-18 0)
(3.30872e-18 -3.54519e-18 0)
(3.30872e-18 -3.41697e-18 0)
(1.65436e-18 -1.68958e-18 0)
(1.65436e-18 -4.58245e-20 0)
(-0.02 9.65355e-14 0)
(1.02971e-13 -1.02971e-13 0)
(-1.04721e-14 1.0473e-14 0)
(4.54122e-15 -4.54079e-15 0)
(-1.04721e-15 1.04825e-15 0)
(2.61389e-16 -2.62559e-16 0)
(1.65436e-18 -7.04953e-19 0)
(7.27919e-17 -7.27052e-17 0)
(4.63221e-17 -4.72228e-17 0)
(4.30134e-17 -4.19329e-17 0)
(3.14329e-17 -3.33926e-17 0)
(2.64698e-17 -2.50564e-17 0)
(1.8198e-17 -1.80814e-17 0)
(1.32349e-17 -1.3945e-17 0)
(9.92617e-18 -9.27729e-18 0)
(6.61744e-18 -6.56027e-18 0)
(8.27181e-18 -6.8033e-18 0)
(1.65436e-18 -4.34154e-18 0)
(3.30872e-18 -1.13292e-18 0)
(-1.65436e-18 -2.13996e-19 0)
(-0.02 -7.98976e-14 0)
(-8.6811e-14 8.68113e-14 0)
(9.27766e-15 -9.27688e-15 0)
(-3.66276e-15 3.66241e-15 0)
(1.01081e-15 -1.01096e-15 0)
(-7.94093e-17 7.92811e-17 0)
(1.22423e-16 -1.22526e-16 0)
(4.46678e-17 -4.51573e-17 0)
(4.79765e-17 -4.81575e-17 0)
(3.80503e-17 -3.81471e-17 0)
(3.14329e-17 -3.06948e-17 0)
(2.48154e-17 -2.48021e-17 0)
(1.8198e-17 -1.77494e-17 0)
(1.32349e-17 -1.41159e-17 0)
(9.92617e-18 -1.04484e-17 0)
(6.61744e-18 -6.86816e-18 0)
(6.61744e-18 -4.89762e-18 0)
(0 -2.51806e-18 0)
(1.65436e-18 -2.0659e-18 0)
(1.65436e-18 1.99649e-19 0)
(-0.02 7.09393e-14 0)
(7.61304e-14 -7.61323e-14 0)
(-8.34129e-15 8.34157e-15 0)
(3.37655e-15 -3.37608e-15 0)
(-7.14684e-16 7.14632e-16 0)
(2.18376e-16 -2.16841e-16 0)
(2.31611e-17 -2.42509e-17 0)
(6.78288e-17 -6.78906e-17 0)
(4.30134e-17 -4.32433e-17 0)
(3.47416e-17 -3.53955e-17 0)
(2.64698e-17 -2.75095e-17 0)
(2.15067e-17 -2.02359e-17 0)
(1.48893e-17 -1.57107e-17 0)
(9.92617e-18 -1.12464e-17 0)
(8.27181e-18 -8.7663e-18 0)
(6.61744e-18 -6.23925e-18 0)
(4.96308e-18 -4.25493e-18 0)
(3.30872e-18 -3.22673e-18 0)
(1.65436e-18 -2.3268e-18 0)
(3.30872e-18 -2.75092e-18 0)
(-0.02 -6.14991e-14 0)
(-6.75757e-14 6.75771e-14 0)
(7.79039e-15 -7.79175e-15 0)
(-2.82234e-15 2.82338e-15 0)
(8.22218e-16 -8.22331e-16 0)
(-2.97785e-17 2.92704e-17 0)
(1.14151e-16 -1.13822e-16 0)
(4.96308e-17 -4.88609e-17 0)
(4.46678e-17 -4.40856e-17 0)
(2.81241e-17 -3.02459e-17 0)
(2.15067e-17 -2.13404e-17 0)
(1.65436e-17 -1.48447e-17 0)
(1.32349e-17 -1.17839e-17 0)
(8.27181e-18 -9.9163e-18 0)
(9.92617e-18 -8.02332e-18 0)
(4.96308e-18 -4.81895e-18 0)
(1.65436e-18 -2.14043e-18 0)
(3.30872e-18 -2.54904e-18 0)
(1.65436e-18 -1.54336e-18 0)
(0 9.68597e-19 0)
(-0.02 5.79613e-14 0)
(6.22569e-14 -6.22579e-14 0)
(-7.11044e-15 7.11216e-15 0)
(2.89679e-15 -2.89692e-15 0)
(-5.06235e-16 5.05567e-16 0)
(2.15067e-16 -2.15839e-16 0)
(3.63959e-17 -3.73306e-17 0)
(5.62483e-17 -5.53045e-17 0)
(3.30872e-17 -3.2834e-17 0)
(2.31611e-17 -2.39118e-17 0)
(1.65436e-17 -1.62155e-17 0)
(1.32349e-17 -1.24166e-17 0)
(9.92617e-18 -1.0969e-17 0)
(4.96308e-18 -5.81706e-18 0)
(4.96308e-18 -3.3149e-18 0)
(3.30872e-18 -4.2556e-18 0)
(4.96308e-18 -4.52335e-18 0)
(1.65436e-18 -2.16729e-18 0)
(0 -5.29253e-19 0)
(0 -3.70546e-19 0)
(-0.02 -5.02345e-14 0)
(-5.602e-14 5.60199e-14 0)
(7.0757e-15 -7.07527e-15 0)
(-2.27144e-15 2.27039e-15 0)
(7.72587e-16 -7.72131e-16 0)
(4.96308e-18 -5.2474e-18 0)
(1.0257e-16 -1.03031e-16 0)
(3.30872e-17 -3.27318e-17 0)
(2.48154e-17 -2.57087e-17 0)
(1.48893e-17 -1.43949e-17 0)
(8.27181e-18 -9.31246e-18 0)
(6.61744e-18 -4.76924e-18 0)
(0 -1.68057e-18 0)
(4.96308e-18 -2.9135e-18 0)
(1.65436e-18 -2.93385e-18 0)
(1.65436e-18 -1.57594e-18 0)
(0 -8.03991e-19 0)
(1.65436e-18 -6.00393e-19 0)
(1.65436e-18 -2.10357e-18 0)
(1.65436e-18 -1.33192e-18 0)
(-0.02 4.92043e-14 0)
(5.24548e-14 -5.2454e-14 0)
(-5.76049e-15 5.75912e-15 0)
(2.56261e-15 -2.56132e-15 0)
(-2.63043e-16 2.6259e-16 0)
(1.75362e-16 -1.7599e-16 0)
(2.64698e-17 -2.57877e-17 0)
(1.65436e-17 -1.82315e-17 0)
(3.30872e-18 -2.67264e-18 0)
(-3.30872e-18 3.52169e-18 0)
(-4.96308e-18 4.33194e-18 0)
(-1.65436e-18 1.37379e-18 0)
(0 -8.5377e-20 0)
(0 -3.81997e-19 0)
(0 -2.23087e-19 0)
(0 6.80225e-19 0)
(0 1.06057e-18 0)
(-1.65436e-18 4.1298e-19 0)
(0 6.72413e-19 0)
(0 -7.62575e-19 0)
(-0.02 -3.59144e-14 0)
(-4.17825e-14 4.17835e-14 0)
(6.96982e-15 -6.96966e-15 0)
(-1.76024e-15 1.75953e-15 0)
(8.83429e-16 -8.8427e-16 0)
(-1.24077e-16 1.25735e-16 0)
(4.30134e-17 -4.33497e-17 0)
(-4.63221e-17 4.62497e-17 0)
(-2.31611e-17 2.24269e-17 0)
(-2.31611e-17 2.38684e-17 0)
(-1.48893e-17 1.46037e-17 0)
(-1.15805e-17 1.017e-17 0)
(-6.61744e-18 7.69789e-18 0)
(-6.61744e-18 6.58884e-18 0)
(-4.96308e-18 4.98443e-18 0)
(-1.65436e-18 2.50679e-18 0)
(-1.65436e-18 9.58106e-19 0)
(-1.65436e-18 1.30153e-18 0)
(-1.65436e-18 1.80622e-18 0)
(0 1.40014e-18 0)
(-0.02 3.47709e-14 0)
(3.1509e-14 -3.15085e-14 0)
(4.3063e-15 -4.30498e-15 0)
(-7.32882e-16 7.3097e-16 0)
(4.84728e-16 -4.84661e-16 0)
(-4.49986e-16 4.49403e-16 0)
(-4.96308e-17 4.9922e-17 0)
(-1.22423e-16 1.23342e-16 0)
(-5.29396e-17 5.31503e-17 0)
(-4.30134e-17 4.32509e-17 0)
(-2.64698e-17 2.54686e-17 0)
(-1.98523e-17 1.94622e-17 0)
(-1.15805e-17 1.23273e-17 0)
(-8.27181e-18 7.82899e-18 0)
(-4.96308e-18 5.14156e-18 0)
(-1.65436e-18 2.85157e-18 0)
(-3.30872e-18 2.4324e-18 0)
(0 2.05809e-18 0)
(-1.65436e-18 9.08356e-19 0)
(0 -3.66887e-19 0)
(-0.02 -2.84867e-14 0)
(-1.6853e-14 1.6853e-14 0)
(-9.33887e-15 9.33834e-15 0)
(4.06973e-16 -4.06074e-16 0)
(-1.98192e-15 1.98229e-15 0)
(-4.96308e-18 4.57622e-18 0)
(-3.7554e-16 3.7563e-16 0)
(-8.60268e-17 8.62002e-17 0)
(-9.92617e-17 9.91287e-17 0)
(-4.79765e-17 4.81702e-17 0)
(-3.80503e-17 3.70034e-17 0)
(-2.31611e-17 2.28525e-17 0)
(-1.48893e-17 1.63855e-17 0)
(-1.15805e-17 1.0519e-17 0)
(-6.61744e-18 6.42384e-18 0)
(-3.30872e-18 4.63425e-18 0)
(-4.96308e-18 3.11825e-18 0)
(-1.65436e-18 1.92917e-18 0)
(0 8.32353e-19 0)
(-1.65436e-18 8.13668e-19 0)
)
;

boundaryField
{
    movingWall
    {
        type            extrapolatedCalculated;
        value           nonuniform List<vector> 
20
(
(-0.02 -2.84867e-14 0)
(-1.6853e-14 1.6853e-14 0)
(-9.33887e-15 9.33834e-15 0)
(4.06973e-16 -4.06074e-16 0)
(-1.98192e-15 1.98229e-15 0)
(-4.96308e-18 4.57622e-18 0)
(-3.7554e-16 3.7563e-16 0)
(-8.60268e-17 8.62002e-17 0)
(-9.92617e-17 9.91287e-17 0)
(-4.79765e-17 4.81702e-17 0)
(-3.80503e-17 3.70034e-17 0)
(-2.31611e-17 2.28525e-17 0)
(-1.48893e-17 1.63855e-17 0)
(-1.15805e-17 1.0519e-17 0)
(-6.61744e-18 6.42384e-18 0)
(-3.30872e-18 4.63425e-18 0)
(-4.96308e-18 3.11825e-18 0)
(-1.65436e-18 1.92917e-18 0)
(0 8.32353e-19 0)
(-1.65436e-18 8.13668e-19 0)
)
;
    }
    fixedWalls
    {
        type            extrapolatedCalculated;
        value           nonuniform List<vector> 
60
(
(-0.02 -5.68568e-15 0)
(-0.02 -1.03684e-13 0)
(-0.02 2.18302e-13 0)
(-0.02 -2.4651e-13 0)
(-0.02 2.52763e-13 0)
(-0.02 -2.29319e-13 0)
(-0.02 2.02946e-13 0)
(-0.02 -1.69186e-13 0)
(-0.02 1.41804e-13 0)
(-0.02 -1.14809e-13 0)
(-0.02 9.65355e-14 0)
(-0.02 -7.98976e-14 0)
(-0.02 7.09393e-14 0)
(-0.02 -6.14991e-14 0)
(-0.02 5.79613e-14 0)
(-0.02 -5.02345e-14 0)
(-0.02 4.92043e-14 0)
(-0.02 -3.59144e-14 0)
(-0.02 3.47709e-14 0)
(-0.02 -2.84867e-14 0)
(0 2.04562e-18 0)
(1.65436e-18 -1.61258e-18 0)
(-1.65436e-18 2.08049e-18 0)
(-1.65436e-18 1.05298e-18 0)
(-1.65436e-18 8.93508e-19 0)
(1.65436e-18 -7.78388e-20 0)
(1.65436e-18 -7.93093e-19 0)
(0 -9.11706e-20 0)
(0 -1.03729e-18 0)
(1.65436e-18 -4.58245e-20 0)
(-1.65436e-18 -2.13996e-19 0)
(1.65436e-18 1.99649e-19 0)
(3.30872e-18 -2.75092e-18 0)
(0 9.68597e-19 0)
(0 -3.70546e-19 0)
(1.65436e-18 -1.33192e-18 0)
(0 -7.62575e-19 0)
(0 1.40014e-18 0)
(0 -3.66887e-19 0)
(-1.65436e-18 8.13668e-19 0)
(-0.02 -5.68568e-15 0)
(1.36137e-14 -1.36127e-14 0)
(-1.50613e-14 1.50617e-14 0)
(2.77933e-16 -2.79545e-16 0)
(-3.00763e-15 3.00852e-15 0)
(-2.74624e-16 2.75118e-16 0)
(-5.64137e-16 5.63313e-16 0)
(-1.8198e-16 1.82465e-16 0)
(-1.65436e-16 1.65241e-16 0)
(-9.42986e-17 9.43994e-17 0)
(-6.94832e-17 7.04089e-17 0)
(-4.96308e-17 4.78767e-17 0)
(-3.30872e-17 3.46521e-17 0)
(-2.48154e-17 2.36896e-17 0)
(-1.65436e-17 1.69069e-17 0)
(-1.32349e-17 1.25972e-17 0)
(-8.27181e-18 9.28041e-18 0)
(-6.61744e-18 5.75127e-18 0)
(-3.30872e-18 2.9391e-18 0)
(0 2.04562e-18 0)
)
;
    }
    frontAndBack
    {
        type            empty;
    }
}


// ************************************************************************* //
