/*--------------------------------*- C++ -*----------------------------------*\
| =========                 |                                                 |
| \\      /  F ield         | OpenFOAM: The Open Source CFD Toolbox           |
|  \\    /   O peration     | Version:  2506                                  |
|   \\  /    A nd           | Website:  www.openfoam.com                      |
|    \\/     M anipulation  |                                                 |
\*---------------------------------------------------------------------------*/
FoamFile
{
    version     2.0;
    format      ascii;
    arch        "LSB;label=32;scalar=64";
    class       volTensorField;
    location    "4.5";
    object      gradU;
}
// * * * * * * * * * * * * * * * * * * * * * * * * * * * * * * * * * * * * * //

dimensions      [0 0 -1 0 0 0 0];

internalField   nonuniform List<tensor> 
400
(
(-6.03521e-10 1.01636e-06 0 1.3652e-09 2.02472e-10 0 0 0 0)
(1.44259e-09 -1.25759e-06 0 6.23443e-10 2.6345e-10 0 0 0 0)
(-1.08274e-09 2.98597e-07 0 -2.53893e-10 1.6602e-10 0 0 0 0)
(4.56693e-10 -7.09603e-08 0 2.18358e-10 2.11239e-11 0 0 0 0)
(-2.23454e-10 1.68348e-08 0 -2.40422e-11 3.79107e-11 0 0 0 0)
(5.04154e-11 -4.00946e-09 0 4.40186e-11 7.22016e-12 0 0 0 0)
(-3.06016e-11 9.49077e-10 0 8.40257e-12 9.20394e-12 0 0 0 0)
(1.97867e-12 -2.275e-10 0 1.25767e-11 3.77033e-12 0 0 0 0)
(-5.28549e-12 5.31393e-11 0 6.4239e-12 3.08953e-12 0 0 0 0)
(-1.35525e-12 -1.32157e-11 0 5.17707e-12 1.86289e-12 0 0 0 0)
(-1.6263e-12 2.7804e-12 0 3.38813e-12 1.36091e-12 0 0 0 0)
(-9.21572e-13 -9.10083e-13 0 2.43945e-12 9.36765e-13 0 0 0 0)
(-7.04731e-13 4.37506e-14 0 1.68051e-12 6.75785e-13 0 0 0 0)
(-4.60786e-13 -1.26715e-13 0 1.13841e-12 4.78307e-13 0 0 0 0)
(-3.52366e-13 -3.81527e-14 0 7.58942e-13 3.47195e-13 0 0 0 0)
(-2.71051e-13 -3.47204e-14 0 4.06576e-13 2.53684e-13 0 0 0 0)
(-1.89735e-13 -3.5286e-14 0 2.71051e-13 1.81608e-13 0 0 0 0)
(-1.0842e-13 -3.5288e-14 0 1.0842e-13 1.1235e-13 0 0 0 0)
(-2.71051e-14 -2.16768e-14 0 5.42101e-14 5.91345e-14 0 0 0 0)
(-5.42101e-14 -2.64952e-14 0 0 2.21459e-14 0 0 0 0)
(2.59222e-09 -1.0159e-06 0 -6.04464e-09 -3.02111e-09 0 0 0 0)
(-3.06165e-09 1.25755e-06 0 2.45192e-10 7.05443e-10 0 0 0 0)
(6.77599e-10 -2.98839e-07 0 -1.33709e-10 -2.48142e-10 0 0 0 0)
(-2.26842e-10 7.08322e-08 0 -1.29535e-10 7.57921e-11 0 0 0 0)
(4.90873e-11 -1.68487e-08 0 9.86624e-12 -1.17344e-11 0 0 0 0)
(-1.79164e-11 3.98075e-09 0 -2.40151e-11 1.27586e-11 0 0 0 0)
(-8.67362e-13 -9.52527e-10 0 -8.94467e-13 2.94502e-12 0 0 0 0)
(-3.93023e-12 2.21385e-10 0 -4.52654e-12 3.73762e-12 0 0 0 0)
(-2.1684e-12 -5.50467e-11 0 -1.21973e-12 2.08122e-12 0 0 0 0)
(-1.6263e-12 1.1487e-11 0 -1.19262e-12 1.59801e-12 0 0 0 0)
(-1.11131e-12 -3.70653e-12 0 -5.69206e-13 1.09777e-12 0 0 0 0)
(-8.13152e-13 2.2496e-13 0 -4.06576e-13 8.12479e-13 0 0 0 0)
(-6.23416e-13 -5.02208e-13 0 -2.43945e-13 6.00397e-13 0 0 0 0)
(-4.60786e-13 -2.01875e-13 0 -1.89735e-13 4.45263e-13 0 0 0 0)
(-3.52366e-13 -1.86471e-13 0 -1.0842e-13 3.16941e-13 0 0 0 0)
(-2.1684e-13 -1.30867e-13 0 0 2.17244e-13 0 0 0 0)
(-1.35525e-13 -1.06048e-13 0 -5.42101e-14 1.48533e-13 0 0 0 0)
(-1.0842e-13 -8.71852e-14 0 0 1.02442e-13 0 0 0 0)
(-1.0842e-13 -6.85272e-14 0 -2.71051e-14 4.99691e-14 0 0 0 0)
(5.42101e-14 -5.47852e-14 0 0 5.2269e-15 0 0 0 0)
(-6.40297e-09 1.01405e-06 0 5.27532e-09 5.8886e-09 0 0 0 0)
(7.35347e-09 -1.25482e-06 0 -9.88847e-10 -1.87987e-09 0 0 0 0)
(-1.45747e-09 2.97967e-07 0 3.99312e-10 3.70804e-10 0 0 0 0)
(6.00269e-10 -7.07239e-08 0 -1.05683e-10 -1.26689e-10 0 0 0 0)
(-1.17907e-10 1.67717e-08 0 1.30917e-11 2.09947e-11 0 0 0 0)
(3.96276e-11 -3.99478e-09 0 -1.73743e-11 -5.76088e-12 0 0 0 0)
(-1.1086e-11 9.40057e-10 0 -3.65918e-12 2.53619e-12 0 0 0 0)
(1.65341e-12 -2.28364e-10 0 -4.22839e-12 1.17348e-12 0 0 0 0)
(-1.92446e-12 5.09997e-11 0 -2.05998e-12 1.28264e-12 0 0 0 0)
(-7.31836e-13 -1.41991e-11 0 -1.46367e-12 9.82688e-13 0 0 0 0)
(-8.40257e-13 1.99488e-12 0 -9.21572e-13 7.68423e-13 0 0 0 0)
(-5.42101e-13 -1.40745e-12 0 -6.23416e-13 5.83294e-13 0 0 0 0)
(-4.60786e-13 -3.23465e-13 0 -3.79471e-13 4.36518e-13 0 0 0 0)
(-3.25261e-13 -4.10171e-13 0 -1.89735e-13 3.28795e-13 0 0 0 0)
(-2.1684e-13 -2.66172e-13 0 -1.0842e-13 2.47881e-13 0 0 0 0)
(-2.1684e-13 -2.03129e-13 0 -5.42101e-14 1.9047e-13 0 0 0 0)
(-1.35525e-13 -1.50087e-13 0 -5.42101e-14 1.32057e-13 0 0 0 0)
(-1.0842e-13 -1.33852e-13 0 -2.71051e-14 8.17037e-14 0 0 0 0)
(-5.42101e-14 -1.18892e-13 0 2.71051e-14 4.92649e-14 0 0 0 0)
(-2.71051e-14 -8.16912e-14 0 2.71051e-14 1.74966e-14 0 0 0 0)
(6.87867e-09 -1.01189e-06 0 -7.76262e-10 -7.01261e-09 0 0 0 0)
(-7.93766e-09 1.25204e-06 0 1.11429e-10 1.97204e-09 0 0 0 0)
(1.56074e-09 -2.97086e-07 0 -3.85434e-11 -5.20597e-10 0 0 0 0)
(-6.13062e-10 7.04824e-08 0 4.63496e-12 1.17622e-10 0 0 0 0)
(1.37368e-10 -1.67277e-08 0 -5.99022e-12 -4.29512e-11 0 0 0 0)
(-3.46403e-11 3.96229e-09 0 -5.06865e-12 5.81653e-12 0 0 0 0)
(1.23057e-11 -9.45593e-10 0 -4.20128e-12 -3.49678e-12 0 0 0 0)
(-2.33103e-12 2.20132e-10 0 -3.08998e-12 5.42923e-13 0 0 0 0)
(6.23416e-13 -5.52375e-11 0 -2.08709e-12 9.91287e-14 0 0 0 0)
(-4.87891e-13 1.09728e-11 0 -1.46367e-12 4.17725e-13 0 0 0 0)
(-2.71051e-13 -4.10593e-12 0 -9.75782e-13 3.52271e-13 0 0 0 0)
(-3.52366e-13 -1.06945e-13 0 -6.50521e-13 3.05489e-13 0 0 0 0)
(-2.1684e-13 -7.56708e-13 0 -4.87891e-13 2.43266e-13 0 0 0 0)
(-1.6263e-13 -3.90513e-13 0 -2.98156e-13 2.0907e-13 0 0 0 0)
(-1.89735e-13 -3.24795e-13 0 -2.43945e-13 1.79369e-13 0 0 0 0)
(-1.6263e-13 -2.46691e-13 0 -1.35525e-13 1.41454e-13 0 0 0 0)
(-1.35525e-13 -2.14815e-13 0 -8.13152e-14 8.70266e-14 0 0 0 0)
(0 -1.69977e-13 0 -2.71051e-14 4.58445e-14 0 0 0 0)
(-2.71051e-14 -1.32734e-13 0 0 4.32022e-14 0 0 0 0)
(-2.71051e-14 -1.21547e-13 0 0 2.44736e-14 0 0 0 0)
(-7.06783e-09 1.00901e-06 0 -9.6971e-10 7.57401e-09 0 0 0 0)
(8.09124e-09 -1.24832e-06 0 2.34567e-10 -1.97354e-09 0 0 0 0)
(-1.56429e-09 2.96112e-07 0 -9.07477e-11 4.70989e-10 0 0 0 0)
(6.32822e-10 -7.02462e-08 0 2.05727e-11 -1.27551e-10 0 0 0 0)
(-1.27583e-10 1.66599e-08 0 -8.91756e-12 2.45238e-11 0 0 0 0)
(4.13894e-11 -3.95533e-09 0 -8.40257e-13 -1.0855e-11 0 0 0 0)
(-9.16151e-12 9.34783e-10 0 -3.06287e-12 -8.92116e-14 0 0 0 0)
(3.7676e-12 -2.24768e-10 0 -1.97867e-12 -1.40633e-12 0 0 0 0)
(-2.98156e-13 5.08745e-11 0 -1.68051e-12 -3.0625e-13 0 0 0 0)
(3.52366e-13 -1.3946e-11 0 -1.13841e-12 -1.50053e-13 0 0 0 0)
(-2.71051e-14 1.88264e-12 0 -8.40257e-13 1.03763e-14 0 0 0 0)
(0 -1.51646e-12 0 -5.96311e-13 5.41455e-14 0 0 0 0)
(-8.13152e-14 -4.19884e-13 0 -4.06576e-13 8.37155e-14 0 0 0 0)
(-8.13152e-14 -4.74067e-13 0 -3.25261e-13 9.27142e-14 0 0 0 0)
(-5.42101e-14 -3.33788e-13 0 -2.1684e-13 8.59483e-14 0 0 0 0)
(-8.13152e-14 -2.95471e-13 0 -1.35525e-13 5.87568e-14 0 0 0 0)
(-5.42101e-14 -2.45697e-13 0 -2.71051e-14 4.727e-14 0 0 0 0)
(0 -1.77676e-13 0 -5.42101e-14 3.38468e-14 0 0 0 0)
(0 -1.40263e-13 0 -5.42101e-14 1.9493e-14 0 0 0 0)
(-5.42101e-14 -1.49367e-13 0 -2.71051e-14 1.28936e-14 0 0 0 0)
(6.14352e-09 -1.00629e-06 0 2.16483e-09 -7.35071e-09 0 0 0 0)
(-7.0587e-09 1.24493e-06 0 -4.4989e-10 1.81838e-09 0 0 0 0)
(1.34674e-09 -2.9524e-07 0 1.8632e-10 -4.45215e-10 0 0 0 0)
(-5.31232e-10 7.00359e-08 0 -4.0251e-11 1.02174e-10 0 0 0 0)
(1.15955e-10 -1.6611e-08 0 1.18449e-11 -3.04666e-11 0 0 0 0)
(-2.87585e-11 3.93768e-09 0 -4.98733e-12 3.41267e-12 0 0 0 0)
(1.11402e-11 -9.36144e-10 0 -5.69206e-13 -3.60093e-12 0 0 0 0)
(-8.94467e-13 2.19915e-10 0 -1.73472e-12 -8.92551e-13 0 0 0 0)
(1.46367e-12 -5.39812e-11 0 -1.11131e-12 -8.63758e-13 0 0 0 0)
(3.25261e-13 1.12894e-11 0 -9.75782e-13 -4.15946e-13 0 0 0 0)
(2.43945e-13 -3.90173e-12 0 -7.04731e-13 -2.42694e-13 0 0 0 0)
(1.0842e-13 -3.36058e-14 0 -5.69206e-13 -9.72706e-14 0 0 0 0)
(8.13152e-14 -7.18139e-13 0 -3.79471e-13 -4.03519e-14 0 0 0 0)
(0 -3.8828e-13 0 -3.25261e-13 -2.54132e-14 0 0 0 0)
(0 -3.58752e-13 0 -1.6263e-13 -2.15076e-14 0 0 0 0)
(2.71051e-14 -2.85369e-13 0 -1.35525e-13 -5.0266e-15 0 0 0 0)
(-2.71051e-14 -2.39725e-13 0 -1.0842e-13 1.67877e-14 0 0 0 0)
(-5.42101e-14 -1.97754e-13 0 -5.42101e-14 1.80108e-14 0 0 0 0)
(5.42101e-14 -1.53688e-13 0 0 -6.17677e-15 0 0 0 0)
(0 -1.53933e-13 0 0 -2.98984e-17 0 0 0 0)
(-5.35284e-09 1.00348e-06 0 -2.39606e-09 6.92587e-09 0 0 0 0)
(6.1127e-09 -1.24142e-06 0 4.90791e-10 -1.65848e-09 0 0 0 0)
(-1.15462e-09 2.94396e-07 0 -1.94289e-10 3.92563e-10 0 0 0 0)
(4.58319e-10 -6.98315e-08 0 4.44523e-11 -9.75631e-11 0 0 0 0)
(-9.22927e-11 1.65612e-08 0 -1.28749e-11 1.93702e-11 0 0 0 0)
(2.90024e-11 -3.92846e-09 0 3.11708e-12 -7.83405e-12 0 0 0 0)
(-5.85469e-12 9.30478e-10 0 -1.87025e-12 -6.0055e-13 0 0 0 0)
(3.14419e-12 -2.2203e-10 0 -6.50521e-13 -1.64702e-12 0 0 0 0)
(4.33681e-13 5.13511e-11 0 -9.75782e-13 -8.5987e-13 0 0 0 0)
(7.58942e-13 -1.33249e-11 0 -8.13152e-13 -6.50392e-13 0 0 0 0)
(4.60786e-13 2.20132e-12 0 -6.77626e-13 -4.1819e-13 0 0 0 0)
(2.43945e-13 -1.31412e-12 0 -4.33681e-13 -2.61668e-13 0 0 0 0)
(1.35525e-13 -3.48027e-13 0 -4.06576e-13 -1.74627e-13 0 0 0 0)
(1.35525e-13 -4.55223e-13 0 -2.43945e-13 -1.28968e-13 0 0 0 0)
(8.13152e-14 -3.13401e-13 0 -1.89735e-13 -9.8949e-14 0 0 0 0)
(1.0842e-13 -2.57176e-13 0 -1.35525e-13 -5.33748e-14 0 0 0 0)
(2.71051e-14 -2.2266e-13 0 -2.71051e-14 -4.49208e-14 0 0 0 0)
(5.42101e-14 -2.0064e-13 0 0 -2.80373e-14 0 0 0 0)
(0 -1.58304e-13 0 0 -1.26693e-14 0 0 0 0)
(0 -1.4316e-13 0 0 -7.74408e-15 0 0 0 0)
(4.2382e-09 -1.00102e-06 0 2.33109e-09 -6.23484e-09 0 0 0 0)
(-4.8569e-09 1.2384e-06 0 -4.64066e-10 1.45832e-09 0 0 0 0)
(9.00457e-10 -2.93679e-07 0 1.87459e-10 -3.4871e-10 0 0 0 0)
(-3.49845e-10 6.96627e-08 0 -4.02781e-11 7.88426e-11 0 0 0 0)
(7.46202e-11 -1.65213e-08 0 1.20617e-11 -2.14389e-11 0 0 0 0)
(-1.78622e-11 3.91771e-09 0 -3.7676e-12 2.43117e-12 0 0 0 0)
(7.42678e-12 -9.29957e-10 0 3.52366e-13 -2.73243e-12 0 0 0 0)
(0 2.19655e-10 0 -8.40257e-13 -1.07887e-12 0 0 0 0)
(1.38236e-12 -5.29846e-11 0 -4.87891e-13 -1.06309e-12 0 0 0 0)
(6.50521e-13 1.17311e-11 0 -5.14996e-13 -7.3893e-13 0 0 0 0)
(5.69206e-13 -3.513e-12 0 -3.52366e-13 -5.60174e-13 0 0 0 0)
(4.06576e-13 2.09957e-13 0 -3.25261e-13 -4.11631e-13 0 0 0 0)
(2.71051e-13 -5.8544e-13 0 -2.1684e-13 -2.97616e-13 0 0 0 0)
(2.1684e-13 -3.12602e-13 0 -1.0842e-13 -1.94235e-13 0 0 0 0)
(1.35525e-13 -2.83159e-13 0 -8.13152e-14 -1.31767e-13 0 0 0 0)
(8.13152e-14 -2.31341e-13 0 -8.13152e-14 -9.83571e-14 0 0 0 0)
(1.0842e-13 -2.14387e-13 0 -5.42101e-14 -8.50204e-14 0 0 0 0)
(2.71051e-14 -1.65503e-13 0 -2.71051e-14 -5.95583e-14 0 0 0 0)
(5.42101e-14 -1.33394e-13 0 0 -2.28945e-14 0 0 0 0)
(0 -1.3352e-13 0 0 -9.67323e-15 0 0 0 0)
(-3.48579e-09 9.987e-07 0 -1.97211e-09 5.607e-09 0 0 0 0)
(3.96902e-09 -1.23553e-06 0 3.89012e-10 -1.29555e-09 0 0 0 0)
(-7.30861e-10 2.93017e-07 0 -1.52683e-10 3.04419e-10 0 0 0 0)
(2.83004e-10 -6.95042e-08 0 3.44505e-11 -7.293e-11 0 0 0 0)
(-5.58093e-11 1.64848e-08 0 -9.40545e-12 1.45792e-11 0 0 0 0)
(1.73201e-11 -3.90975e-09 0 2.79182e-12 -5.60562e-12 0 0 0 0)
(-2.92735e-12 9.26968e-10 0 -8.94467e-13 -6.6029e-13 0 0 0 0)
(2.27682e-12 -2.20361e-10 0 -5.42101e-14 -1.48716e-12 0 0 0 0)
(7.58942e-13 5.1691e-11 0 -3.52366e-13 -9.87632e-13 0 0 0 0)
(8.40257e-13 -1.2822e-11 0 -2.43945e-13 -8.13386e-13 0 0 0 0)
(6.23416e-13 2.52862e-12 0 -2.43945e-13 -6.07205e-13 0 0 0 0)
(4.87891e-13 -1.05156e-12 0 -2.1684e-13 -4.72784e-13 0 0 0 0)
(3.52366e-13 -1.30631e-13 0 -1.35525e-13 -3.54154e-13 0 0 0 0)
(2.71051e-13 -2.89374e-13 0 -8.13152e-14 -2.49592e-13 0 0 0 0)
(8.13152e-14 -2.17523e-13 0 -8.13152e-14 -1.76681e-13 0 0 0 0)
(1.6263e-13 -2.1043e-13 0 0 -1.4253e-13 0 0 0 0)
(1.0842e-13 -1.83861e-13 0 5.42101e-14 -8.2864e-14 0 0 0 0)
(2.71051e-14 -1.38515e-13 0 0 -5.38772e-14 0 0 0 0)
(5.42101e-14 -1.08419e-13 0 -5.42101e-14 -3.66646e-14 0 0 0 0)
(0 -1.10593e-13 0 2.71051e-14 -1.09153e-14 0 0 0 0)
(2.6551e-09 -9.96711e-07 0 1.57703e-09 -4.93438e-09 0 0 0 0)
(-3.03747e-09 1.2331e-06 0 -3.04905e-10 1.13064e-09 0 0 0 0)
(5.45896e-10 -2.92456e-07 0 1.20346e-10 -2.67924e-10 0 0 0 0)
(-2.06568e-10 6.93729e-08 0 -2.59666e-11 6.01912e-11 0 0 0 0)
(4.29615e-11 -1.6454e-08 0 7.56231e-12 -1.58716e-11 0 0 0 0)
(-9.32414e-12 3.90247e-09 0 -2.08709e-12 1.70451e-12 0 0 0 0)
(4.52654e-12 -9.25839e-10 0 5.42101e-13 -2.19799e-12 0 0 0 0)
(5.69206e-13 2.19328e-10 0 -2.71051e-13 -1.07236e-12 0 0 0 0)
(1.19262e-12 -5.23108e-11 0 -5.42101e-14 -1.06869e-12 0 0 0 0)
(7.58942e-13 1.21115e-11 0 -8.13152e-14 -7.98369e-13 0 0 0 0)
(6.23416e-13 -3.1724e-12 0 -1.0842e-13 -6.29817e-13 0 0 0 0)
(4.87891e-13 4.63007e-13 0 -2.71051e-14 -4.85239e-13 0 0 0 0)
(3.52366e-13 -3.62248e-13 0 -5.42101e-14 -3.69137e-13 0 0 0 0)
(3.25261e-13 -1.35128e-13 0 -8.13152e-14 -2.86638e-13 0 0 0 0)
(2.1684e-13 -1.76096e-13 0 -5.42101e-14 -2.14324e-13 0 0 0 0)
(1.35525e-13 -1.37524e-13 0 -2.71051e-14 -1.60971e-13 0 0 0 0)
(8.13152e-14 -1.25735e-13 0 -5.42101e-14 -9.67196e-14 0 0 0 0)
(8.13152e-14 -1.19304e-13 0 0 -6.4478e-14 0 0 0 0)
(5.42101e-14 -9.04325e-14 0 5.42101e-14 -3.26839e-14 0 0 0 0)
(0 -8.59401e-14 0 0 -5.92297e-15 0 0 0 0)
(-2.21364e-09 9.94896e-07 0 -1.16302e-09 4.42961e-09 0 0 0 0)
(2.51237e-09 -1.23087e-06 0 2.21719e-10 -1.01588e-09 0 0 0 0)
(-4.51923e-10 2.91946e-07 0 -8.60585e-11 2.37825e-10 0 0 0 0)
(1.70138e-10 -6.92522e-08 0 1.91362e-11 -5.68771e-11 0 0 0 0)
(-3.19026e-11 1.64263e-08 0 -4.90601e-12 1.11691e-11 0 0 0 0)
(1.02457e-11 -3.89608e-09 0 1.81604e-12 -4.50695e-12 0 0 0 0)
(-1.11131e-12 9.24191e-10 0 -2.1684e-13 -7.01466e-13 0 0 0 0)
(1.73472e-12 -2.19232e-10 0 2.71051e-13 -1.34731e-12 0 0 0 0)
(8.94467e-13 5.1965e-11 0 0 -9.61678e-13 0 0 0 0)
(8.40257e-13 -1.23831e-11 0 0 -8.2036e-13 0 0 0 0)
(6.77626e-13 2.84175e-12 0 0 -6.46077e-13 0 0 0 0)
(4.87891e-13 -7.90879e-13 0 2.71051e-14 -4.99544e-13 0 0 0 0)
(3.52366e-13 6.79697e-14 0 5.42101e-14 -3.73042e-13 0 0 0 0)
(2.71051e-13 -1.34561e-13 0 2.71051e-14 -2.83865e-13 0 0 0 0)
(1.6263e-13 -9.18565e-14 0 5.42101e-14 -2.02853e-13 0 0 0 0)
(1.89735e-13 -9.28254e-14 0 2.71051e-14 -1.47343e-13 0 0 0 0)
(1.35525e-13 -8.73677e-14 0 0 -1.15761e-13 0 0 0 0)
(8.13152e-14 -7.44788e-14 0 2.71051e-14 -7.08143e-14 0 0 0 0)
(5.42101e-14 -4.98637e-14 0 0 -2.36881e-14 0 0 0 0)
(-5.42101e-14 -7.19858e-14 0 0 -2.3613e-15 0 0 0 0)
(1.71377e-09 -9.93297e-07 0 8.21012e-10 -3.95324e-09 0 0 0 0)
(-1.96051e-09 1.2289e-06 0 -1.54255e-10 9.09213e-10 0 0 0 0)
(3.4334e-10 -2.91497e-07 0 5.93059e-11 -2.15776e-10 0 0 0 0)
(-1.25415e-10 6.91462e-08 0 -1.28207e-11 4.83671e-11 0 0 0 0)
(2.56143e-11 -1.64016e-08 0 3.68629e-12 -1.31657e-11 0 0 0 0)
(-4.58075e-12 3.8906e-09 0 -8.40257e-13 1.17794e-12 0 0 0 0)
(2.92735e-12 -9.22679e-10 0 5.69206e-13 -1.98553e-12 0 0 0 0)
(7.58942e-13 2.19068e-10 0 1.6263e-13 -9.98789e-13 0 0 0 0)
(1.02999e-12 -5.17839e-11 0 3.25261e-13 -9.71804e-13 0 0 0 0)
(7.58942e-13 1.24271e-11 0 1.89735e-13 -7.72133e-13 0 0 0 0)
(6.23416e-13 -2.85159e-12 0 1.35525e-13 -6.30405e-13 0 0 0 0)
(5.14996e-13 7.36042e-13 0 5.42101e-14 -4.88404e-13 0 0 0 0)
(3.79471e-13 -1.46569e-13 0 5.42101e-14 -3.55341e-13 0 0 0 0)
(2.43945e-13 3.50608e-14 0 0 -2.69122e-13 0 0 0 0)
(2.43945e-13 -3.95749e-14 0 0 -1.91384e-13 0 0 0 0)
(8.13152e-14 -5.04323e-14 0 0 -1.31305e-13 0 0 0 0)
(1.35525e-13 -4.92055e-14 0 -5.42101e-14 -1.01251e-13 0 0 0 0)
(2.71051e-14 -2.72305e-14 0 -2.71051e-14 -6.08532e-14 0 0 0 0)
(5.42101e-14 -2.19795e-14 0 -5.42101e-14 -3.90556e-14 0 0 0 0)
(0 -5.98906e-14 0 0 -1.29685e-14 0 0 0 0)
(-1.54689e-09 9.91852e-07 0 -5.78964e-10 3.65655e-09 0 0 0 0)
(1.75061e-09 -1.22713e-06 0 1.06685e-10 -8.49216e-10 0 0 0 0)
(-3.10488e-10 2.91086e-07 0 -4.16876e-11 1.98668e-10 0 0 0 0)
(1.14546e-10 -6.90496e-08 0 8.70072e-12 -4.87125e-11 0 0 0 0)
(-1.9868e-11 1.63791e-08 0 -2.33103e-12 9.08842e-12 0 0 0 0)
(7.10152e-12 -3.8849e-09 0 1.0571e-12 -4.21846e-12 0 0 0 0)
(-2.71051e-14 9.22014e-10 0 2.71051e-13 -8.26982e-13 0 0 0 0)
(1.46367e-12 -2.18218e-10 0 5.42101e-13 -1.30094e-12 0 0 0 0)
(8.40257e-13 5.21917e-11 0 4.33681e-13 -8.69447e-13 0 0 0 0)
(6.77626e-13 -1.20417e-11 0 4.87891e-13 -7.11994e-13 0 0 0 0)
(5.69206e-13 3.12548e-12 0 3.25261e-13 -5.40242e-13 0 0 0 0)
(4.06576e-13 -5.15814e-13 0 2.1684e-13 -4.04003e-13 0 0 0 0)
(2.98156e-13 2.87252e-13 0 1.35525e-13 -3.03568e-13 0 0 0 0)
(2.1684e-13 2.93955e-14 0 1.0842e-13 -2.36021e-13 0 0 0 0)
(1.89735e-13 4.596e-14 0 8.13152e-14 -1.79203e-13 0 0 0 0)
(8.13152e-14 -2.69232e-15 0 5.42101e-14 -1.16369e-13 0 0 0 0)
(8.13152e-14 -1.69155e-14 0 5.42101e-14 -8.05721e-14 0 0 0 0)
(1.0842e-13 -1.22835e-14 0 0 -6.47064e-14 0 0 0 0)
(2.71051e-14 -1.97903e-15 0 0 -5.02176e-14 0 0 0 0)
(5.42101e-14 -1.99617e-14 0 0 -1.91614e-14 0 0 0 0)
(1.24149e-09 -9.9049e-07 0 3.84539e-10 -3.36326e-09 0 0 0 0)
(-1.42321e-09 1.22545e-06 0 -7.15573e-11 7.86969e-10 0 0 0 0)
(2.45355e-10 -2.90697e-07 0 2.53161e-11 -1.89131e-10 0 0 0 0)
(-8.60585e-11 6.89566e-08 0 -6.04443e-12 4.16236e-11 0 0 0 0)
(1.79707e-11 -1.63571e-08 0 1.76183e-12 -1.26474e-11 0 0 0 0)
(-2.03288e-12 3.88068e-09 0 2.1684e-13 5.81431e-13 0 0 0 0)
(2.43945e-12 -9.19762e-10 0 7.86047e-13 -2.06611e-12 0 0 0 0)
(9.21572e-13 2.19025e-10 0 6.77626e-13 -9.97675e-13 0 0 0 0)
(9.48677e-13 -5.11949e-11 0 5.69206e-13 -8.69035e-13 0 0 0 0)
(5.69206e-13 1.27564e-11 0 4.33681e-13 -5.93397e-13 0 0 0 0)
(4.33681e-13 -2.54359e-12 0 3.79471e-13 -4.29259e-13 0 0 0 0)
(2.71051e-13 9.72716e-13 0 2.1684e-13 -3.08251e-13 0 0 0 0)
(2.71051e-13 2.14129e-14 0 1.6263e-13 -2.55959e-13 0 0 0 0)
(2.1684e-13 1.59426e-13 0 1.35525e-13 -1.85442e-13 0 0 0 0)
(1.89735e-13 8.00771e-14 0 8.13152e-14 -1.41817e-13 0 0 0 0)
(8.13152e-14 4.81988e-14 0 2.71051e-14 -1.00271e-13 0 0 0 0)
(5.42101e-14 2.45688e-15 0 5.42101e-14 -6.74775e-14 0 0 0 0)
(8.13152e-14 3.12406e-15 0 2.71051e-14 -5.3583e-14 0 0 0 0)
(2.71051e-14 2.35655e-14 0 5.42101e-14 -2.59642e-14 0 0 0 0)
(-2.71051e-14 9.48838e-15 0 0 -6.32948e-15 0 0 0 0)
(-1.2339e-09 9.89276e-07 0 -3.64455e-10 3.21606e-09 0 0 0 0)
(1.39141e-09 -1.22396e-06 0 6.57298e-11 -7.61811e-10 0 0 0 0)
(-2.45003e-10 2.9034e-07 0 -2.70779e-11 1.76413e-10 0 0 0 0)
(9.09917e-11 -6.88731e-08 0 5.55654e-12 -4.60437e-11 0 0 0 0)
(-1.36338e-11 1.6338e-08 0 -8.94467e-13 7.14628e-12 0 0 0 0)
(6.23416e-12 -3.87432e-09 0 1.43657e-12 -4.49409e-12 0 0 0 0)
(3.52366e-13 9.20435e-10 0 9.75782e-13 -9.21623e-13 0 0 0 0)
(1.19262e-12 -2.17021e-10 0 9.21572e-13 -1.11965e-12 0 0 0 0)
(6.77626e-13 5.25959e-11 0 7.58942e-13 -6.62181e-13 0 0 0 0)
(4.87891e-13 -1.16019e-11 0 5.69206e-13 -4.83681e-13 0 0 0 0)
(2.98156e-13 3.41062e-12 0 4.60786e-13 -3.23239e-13 0 0 0 0)
(2.71051e-13 -3.42515e-13 0 3.52366e-13 -2.30172e-13 0 0 0 0)
(2.1684e-13 4.10061e-13 0 2.71051e-13 -1.79434e-13 0 0 0 0)
(1.35525e-13 1.43538e-13 0 1.6263e-13 -1.22094e-13 0 0 0 0)
(5.42101e-14 1.3113e-13 0 8.13152e-14 -9.44933e-14 0 0 0 0)
(8.13152e-14 7.16467e-14 0 1.0842e-13 -8.37076e-14 0 0 0 0)
(5.42101e-14 2.97729e-14 0 0 -5.98953e-14 0 0 0 0)
(8.13152e-14 2.92298e-14 0 -2.71051e-14 -3.35384e-14 0 0 0 0)
(0 4.52745e-14 0 -5.42101e-14 -1.86176e-14 0 0 0 0)
(0 1.2332e-14 0 -2.71051e-14 -6.75178e-15 0 0 0 0)
(9.42768e-10 -9.88036e-07 0 2.25731e-10 -2.98554e-09 0 0 0 0)
(-1.08586e-09 1.22241e-06 0 -4.33681e-11 7.08947e-10 0 0 0 0)
(1.85182e-10 -2.89981e-07 0 1.32273e-11 -1.77032e-10 0 0 0 0)
(-5.9848e-11 6.87874e-08 0 -2.43945e-12 3.57454e-11 0 0 0 0)
(1.38507e-11 -1.63156e-08 0 2.27682e-12 -1.37455e-11 0 0 0 0)
(-1.35525e-13 3.87262e-09 0 1.73472e-12 1.11487e-13 0 0 0 0)
(1.89735e-12 -9.16387e-10 0 1.73472e-12 -1.95254e-12 0 0 0 0)
(7.58942e-13 2.19285e-10 0 1.46367e-12 -6.05908e-13 0 0 0 0)
(5.42101e-13 -5.0559e-11 0 1.11131e-12 -4.92036e-13 0 0 0 0)
(2.71051e-13 1.30953e-11 0 8.13152e-13 -2.57915e-13 0 0 0 0)
(1.6263e-13 -2.29008e-12 0 5.14996e-13 -1.61555e-13 0 0 0 0)
(1.0842e-13 1.11652e-12 0 3.52366e-13 -1.05131e-13 0 0 0 0)
(8.13152e-14 1.2949e-13 0 2.71051e-13 -7.11435e-14 0 0 0 0)
(2.71051e-14 2.44367e-13 0 1.89735e-13 -6.67584e-14 0 0 0 0)
(1.0842e-13 1.18464e-13 0 1.0842e-13 -5.17049e-14 0 0 0 0)
(0 8.27968e-14 0 8.13152e-14 -3.5217e-14 0 0 0 0)
(0 5.26261e-14 0 2.71051e-14 -2.55462e-14 0 0 0 0)
(2.71051e-14 4.44018e-14 0 2.71051e-14 -1.64531e-14 0 0 0 0)
(5.42101e-14 5.03521e-14 0 5.42101e-14 -2.33067e-14 0 0 0 0)
(0 3.48577e-14 0 0 -1.82149e-14 0 0 0 0)
(-1.05151e-09 9.86999e-07 0 -5.17679e-10 2.89909e-09 0 0 0 0)
(1.17891e-09 -1.22115e-06 0 9.57351e-11 -6.95655e-10 0 0 0 0)
(-2.04101e-10 2.89667e-07 0 -3.90313e-11 1.42782e-10 0 0 0 0)
(8.00412e-11 -6.87098e-08 0 1.11673e-11 -4.51321e-11 0 0 0 0)
(-9.45966e-12 1.63024e-08 0 9.75782e-13 3.34324e-12 0 0 0 0)
(5.63785e-12 -3.86253e-09 0 4.33681e-12 -3.71282e-12 0 0 0 0)
(8.13152e-14 9.19718e-10 0 2.41235e-12 -4.51994e-13 0 0 0 0)
(5.96311e-13 -2.15561e-10 0 2.03288e-12 -2.9757e-13 0 0 0 0)
(2.71051e-14 5.29439e-11 0 1.32815e-12 -1.21905e-15 0 0 0 0)
(-2.71051e-14 -1.12715e-11 0 9.21572e-13 8.16288e-14 0 0 0 0)
(-1.0842e-13 3.56341e-12 0 6.50521e-13 7.81225e-14 0 0 0 0)
(-2.71051e-14 -2.52103e-13 0 4.87891e-13 4.07084e-14 0 0 0 0)
(0 4.48433e-13 0 2.98156e-13 2.44768e-14 0 0 0 0)
(0 1.62977e-13 0 2.71051e-13 1.04526e-14 0 0 0 0)
(0 1.62672e-13 0 1.6263e-13 1.2372e-14 0 0 0 0)
(-2.71051e-14 9.78054e-14 0 5.42101e-14 1.98529e-14 0 0 0 0)
(0 4.85368e-14 0 8.13152e-14 1.40051e-14 0 0 0 0)
(0 3.14693e-14 0 1.0842e-13 7.88013e-15 0 0 0 0)
(-2.71051e-14 4.35127e-14 0 2.71051e-14 3.86333e-15 0 0 0 0)
(0 5.38535e-14 0 0 -7.40686e-15 0 0 0 0)
(5.20851e-10 -9.85832e-07 0 9.73614e-11 -2.49711e-09 0 0 0 0)
(-6.07235e-10 1.21965e-06 0 -3.79471e-11 5.64028e-10 0 0 0 0)
(1.00641e-10 -2.8933e-07 0 5.42101e-12 -2.02862e-10 0 0 0 0)
(-1.98951e-11 6.86479e-08 0 1.50162e-11 4.12432e-11 0 0 0 0)
(7.04731e-12 -1.62742e-08 0 5.99022e-12 -1.82321e-11 0 0 0 0)
(1.35525e-12 3.86882e-09 0 6.93889e-12 4.817e-12 0 0 0 0)
(-4.06576e-13 -9.12972e-10 0 3.08998e-12 -8.51724e-13 0 0 0 0)
(-3.25261e-13 2.19736e-10 0 2.35814e-12 1.1576e-12 0 0 0 0)
(-6.23416e-13 -5.01798e-11 0 1.27394e-12 4.50261e-13 0 0 0 0)
(-3.79471e-13 1.31746e-11 0 8.40257e-13 4.94715e-13 0 0 0 0)
(-3.25261e-13 -2.331e-12 0 5.96311e-13 2.94358e-13 0 0 0 0)
(-2.1684e-13 1.06287e-12 0 3.79471e-13 2.09334e-13 0 0 0 0)
(-1.35525e-13 9.92343e-14 0 2.1684e-13 1.43441e-13 0 0 0 0)
(-1.35525e-13 2.32262e-13 0 1.0842e-13 1.15433e-13 0 0 0 0)
(-1.0842e-13 1.27864e-13 0 1.0842e-13 8.089e-14 0 0 0 0)
(-5.42101e-14 8.44299e-14 0 2.71051e-14 4.07505e-14 0 0 0 0)
(0 4.06533e-14 0 2.71051e-14 2.47427e-14 0 0 0 0)
(0 3.426e-14 0 0 2.69434e-14 0 0 0 0)
(-5.42101e-14 3.50651e-14 0 -2.71051e-14 2.70552e-14 0 0 0 0)
(0 3.84013e-14 0 0 7.68089e-15 0 0 0 0)
(-9.92181e-10 9.85066e-07 0 -2.16575e-09 2.20691e-09 0 0 0 0)
(1.08705e-09 -1.21885e-06 0 1.31514e-09 -5.32989e-10 0 0 0 0)
(-1.51084e-10 2.89144e-07 0 -5.23371e-10 8.21718e-11 0 0 0 0)
(8.05562e-11 -6.85252e-08 0 2.37901e-10 -5.79637e-12 0 0 0 0)
(-1.7537e-11 1.6266e-08 0 -5.75169e-11 4.93261e-12 0 0 0 0)
(2.71051e-12 -3.84514e-09 0 2.98969e-11 5.0199e-12 0 0 0 0)
(-4.44523e-12 9.16058e-10 0 -3.84892e-12 2.19863e-12 0 0 0 0)
(-1.21973e-12 -2.14259e-10 0 4.17418e-12 2.0186e-12 0 0 0 0)
(-1.49078e-12 5.22811e-11 0 4.33681e-13 1.13397e-12 0 0 0 0)
(-7.31836e-13 -1.14274e-11 0 9.21572e-13 8.15083e-13 0 0 0 0)
(-5.69206e-13 3.27802e-12 0 3.79471e-13 5.17137e-13 0 0 0 0)
(-4.06576e-13 -4.0302e-13 0 2.71051e-13 3.67978e-13 0 0 0 0)
(-2.1684e-13 3.54533e-13 0 1.6263e-13 2.51679e-13 0 0 0 0)
(-1.6263e-13 1.00426e-13 0 1.0842e-13 1.6922e-13 0 0 0 0)
(-1.35525e-13 8.79893e-14 0 5.42101e-14 1.0691e-13 0 0 0 0)
(-2.71051e-14 4.16582e-14 0 8.13152e-14 6.34982e-14 0 0 0 0)
(-2.71051e-14 3.47297e-14 0 8.13152e-14 4.75428e-14 0 0 0 0)
(-5.42101e-14 3.37818e-14 0 0 3.73344e-14 0 0 0 0)
(-2.71051e-14 2.42502e-14 0 2.71051e-14 2.23648e-14 0 0 0 0)
(0 1.91175e-14 0 2.71051e-14 6.90573e-15 0 0 0 0)
(-3.29679e-10 -9.84158e-07 0 2.70655e-09 -1.25339e-09 0 0 0 0)
(1.03509e-09 1.21753e-06 0 -1.38463e-09 3.45554e-10 0 0 0 0)
(-9.76649e-10 -2.88803e-07 0 5.84385e-10 7.27348e-11 0 0 0 0)
(4.46014e-10 6.85707e-08 0 -2.56902e-10 4.57033e-12 0 0 0 0)
(-2.00984e-10 -1.62633e-08 0 5.7788e-11 2.71952e-11 0 0 0 0)
(5.49691e-11 3.86609e-09 0 -3.83808e-11 1.93645e-12 0 0 0 0)
(-2.61293e-11 -9.15973e-10 0 8.13152e-14 6.25237e-12 0 0 0 0)
(3.95734e-12 2.18671e-10 0 -7.80626e-12 1.85159e-12 0 0 0 0)
(-3.82181e-12 -5.13833e-11 0 -2.62919e-12 1.83993e-12 0 0 0 0)
(-4.87891e-13 1.25578e-11 0 -2.46656e-12 9.53818e-13 0 0 0 0)
(-9.21572e-13 -2.77811e-12 0 -1.43657e-12 7.09492e-13 0 0 0 0)
(-4.33681e-13 7.97416e-13 0 -9.48677e-13 4.53903e-13 0 0 0 0)
(-3.52366e-13 -9.95241e-14 0 -5.96311e-13 3.15095e-13 0 0 0 0)
(-1.6263e-13 8.74931e-14 0 -4.06576e-13 1.98894e-13 0 0 0 0)
(-1.35525e-13 2.21426e-14 0 -2.43945e-13 1.27176e-13 0 0 0 0)
(-1.0842e-13 2.50626e-14 0 -1.6263e-13 8.87625e-14 0 0 0 0)
(-5.42101e-14 1.44896e-14 0 -1.35525e-13 6.04554e-14 0 0 0 0)
(-5.42101e-14 9.08201e-15 0 -5.42101e-14 3.95432e-14 0 0 0 0)
(-2.71051e-14 4.63643e-15 0 -2.71051e-14 1.75916e-14 0 0 0 0)
(-2.71051e-14 9.13077e-15 0 -2.71051e-14 1.06566e-14 0 0 0 0)
)
;

boundaryField
{
    movingWall
    {
        type            extrapolatedCalculated;
        value           nonuniform List<tensor> 
20
(
(-3.29679e-10 -9.84158e-07 0 6.15525e-09 5.16078e-06 0 0 0 0)
(1.03509e-09 1.21753e-06 0 -4.8364e-09 -1.22415e-06 0 0 0 0)
(-9.76649e-10 -2.88803e-07 0 2.01474e-09 2.90676e-07 0 0 0 0)
(4.46014e-10 6.85707e-08 0 -9.29745e-10 -6.89341e-08 0 0 0 0)
(-2.00984e-10 -1.62633e-08 0 2.3066e-10 1.6393e-08 0 0 0 0)
(5.49691e-11 3.86609e-09 0 -1.2581e-10 -3.88075e-09 0 0 0 0)
(-2.61293e-11 -9.15973e-10 0 1.08358e-11 9.2861e-10 0 0 0 0)
(3.95734e-12 2.18671e-10 0 -2.13607e-11 -2.16861e-10 0 0 0 0)
(-3.82181e-12 -5.13833e-11 0 -5.01821e-12 5.39263e-11 0 0 0 0)
(-4.87891e-13 1.25578e-11 0 -5.9508e-12 -1.13278e-11 0 0 0 0)
(-9.21572e-13 -2.77811e-12 0 -3.19744e-12 3.69506e-12 0 0 0 0)
(-4.33681e-13 7.97416e-13 0 -2.22045e-12 -2.1534e-13 0 0 0 0)
(-3.52366e-13 -9.95241e-14 0 -1.42109e-12 5.05392e-13 0 0 0 0)
(-1.6263e-13 8.74931e-14 0 -9.32587e-13 1.82756e-13 0 0 0 0)
(-1.35525e-13 2.21426e-14 0 -6.21725e-13 1.5542e-13 0 0 0 0)
(-1.0842e-13 2.50626e-14 0 -3.9968e-13 9.41857e-14 0 0 0 0)
(-5.42101e-14 1.44896e-14 0 -2.66454e-13 5.51693e-14 0 0 0 0)
(-5.42101e-14 9.08201e-15 0 -1.77636e-13 3.62275e-14 0 0 0 0)
(-2.71051e-14 4.63643e-15 0 -8.88178e-14 1.88413e-14 0 0 0 0)
(-2.71051e-14 9.13077e-15 0 -4.44089e-14 1.76818e-14 0 0 0 0)
)
;
    }
    fixedWalls
    {
        type            extrapolatedCalculated;
        value           nonuniform List<tensor> 
60
(
(-7.79368e-09 5.33121e-06 0 1.3652e-09 2.02472e-10 0 0 0 0)
(1.32545e-08 -5.3304e-06 0 -6.04464e-09 -3.02111e-09 0 0 0 0)
(-3.19723e-08 5.31912e-06 0 5.27532e-09 5.8886e-09 0 0 0 0)
(3.43558e-08 -5.30684e-06 0 -7.76262e-10 -7.01261e-09 0 0 0 0)
(-3.50773e-08 5.29107e-06 0 -9.6971e-10 7.57401e-09 0 0 0 0)
(3.04769e-08 -5.27654e-06 0 2.16483e-09 -7.35071e-09 0 0 0 0)
(-2.64179e-08 5.26167e-06 0 -2.39606e-09 6.92587e-09 0 0 0 0)
(2.08925e-08 -5.24884e-06 0 2.33109e-09 -6.23484e-09 0 0 0 0)
(-1.70934e-08 5.23673e-06 0 -1.97211e-09 5.607e-09 0 0 0 0)
(1.30041e-08 -5.22641e-06 0 1.57703e-09 -4.93438e-09 0 0 0 0)
(-1.07853e-08 5.21699e-06 0 -1.16302e-09 4.42961e-09 0 0 0 0)
(8.35185e-09 -5.20869e-06 0 8.21012e-10 -3.95324e-09 0 0 0 0)
(-7.5012e-09 5.20118e-06 0 -5.78964e-10 3.65655e-09 0 0 0 0)
(6.03602e-09 -5.19407e-06 0 3.84539e-10 -3.36326e-09 0 0 0 0)
(-5.96296e-09 5.18772e-06 0 -3.64455e-10 3.21606e-09 0 0 0 0)
(4.5782e-09 -5.1812e-06 0 2.25731e-10 -2.98554e-09 0 0 0 0)
(-5.06013e-09 5.17578e-06 0 -5.17679e-10 2.89909e-09 0 0 0 0)
(2.50759e-09 -5.16961e-06 0 9.73614e-11 -2.49711e-09 0 0 0 0)
(-4.67084e-09 5.16579e-06 0 -2.16575e-09 2.20691e-09 0 0 0 0)
(-6.15525e-09 -5.16078e-06 0 2.70655e-09 -1.25339e-09 0 0 0 0)
(-4.44089e-14 -3.80859e-14 0 0 2.21459e-14 0 0 0 0)
(8.88178e-14 -5.04975e-14 0 0 5.2269e-15 0 0 0 0)
(-4.44089e-14 -5.89935e-14 0 2.71051e-14 1.74966e-14 0 0 0 0)
(-4.44089e-14 -1.20484e-13 0 0 2.44736e-14 0 0 0 0)
(-4.44089e-14 -1.56888e-13 0 -2.71051e-14 1.28936e-14 0 0 0 0)
(0 -1.72058e-13 0 0 -2.98984e-17 0 0 0 0)
(0 -1.56768e-13 0 0 -7.74408e-15 0 0 0 0)
(0 -1.41082e-13 0 0 -9.67323e-15 0 0 0 0)
(-4.44089e-14 -1.18075e-13 0 2.71051e-14 -1.09153e-14 0 0 0 0)
(-4.44089e-14 -9.74208e-14 0 0 -5.92297e-15 0 0 0 0)
(-4.44089e-14 -9.43833e-14 0 0 -2.3613e-15 0 0 0 0)
(-4.44089e-14 -8.79756e-14 0 0 -1.29685e-14 0 0 0 0)
(0 -4.25092e-14 0 0 -1.91614e-14 0 0 0 0)
(-4.44089e-14 -1.13298e-14 0 0 -6.32948e-15 0 0 0 0)
(0 -1.71913e-14 0 -2.71051e-14 -6.75178e-15 0 0 0 0)
(-4.44089e-14 1.56773e-14 0 0 -1.82149e-14 0 0 0 0)
(0 5.56683e-14 0 0 -7.40686e-15 0 0 0 0)
(0 4.53047e-14 0 0 7.68089e-15 0 0 0 0)
(0 2.49447e-14 0 2.71051e-14 6.90573e-15 0 0 0 0)
(-4.44089e-14 1.76818e-14 0 -2.71051e-14 1.06566e-14 0 0 0 0)
(-6.03521e-10 1.01636e-06 0 -7.79368e-09 5.33121e-06 0 0 0 0)
(1.44259e-09 -1.25759e-06 0 5.37956e-09 -1.26575e-06 0 0 0 0)
(-1.08274e-09 2.98597e-07 0 -2.02336e-09 3.00846e-07 0 0 0 0)
(4.56693e-10 -7.09603e-08 0 1.04872e-09 -7.13588e-08 0 0 0 0)
(-2.23454e-10 1.68348e-08 0 -1.96732e-10 1.70052e-08 0 0 0 0)
(5.04154e-11 -4.00946e-09 0 1.55032e-10 -4.01975e-09 0 0 0 0)
(-3.06016e-11 9.49077e-10 0 4.79616e-12 9.67357e-10 0 0 0 0)
(1.97867e-12 -2.275e-10 0 3.2685e-11 -2.23435e-10 0 0 0 0)
(-5.28549e-12 5.31393e-11 0 1.2701e-11 5.73577e-11 0 0 0 0)
(-1.35525e-12 -1.32157e-11 0 1.16351e-11 -1.08781e-11 0 0 0 0)
(-1.6263e-12 2.7804e-12 0 7.14984e-12 4.49512e-12 0 0 0 0)
(-9.21572e-13 -9.10083e-13 0 5.19584e-12 2.43545e-13 0 0 0 0)
(-7.04731e-13 4.37506e-14 0 3.55271e-12 8.54787e-13 0 0 0 0)
(-4.60786e-13 -1.26715e-13 0 2.35367e-12 4.18548e-13 0 0 0 0)
(-3.52366e-13 -3.81527e-14 0 1.64313e-12 3.47929e-13 0 0 0 0)
(-2.71051e-13 -3.47204e-14 0 9.32587e-13 2.65937e-13 0 0 0 0)
(-1.89735e-13 -3.5286e-14 0 5.77316e-13 2.09047e-13 0 0 0 0)
(-1.0842e-13 -3.5288e-14 0 2.22045e-13 1.24793e-13 0 0 0 0)
(-2.71051e-14 -2.16768e-14 0 1.33227e-13 6.78949e-14 0 0 0 0)
(-5.42101e-14 -2.64952e-14 0 4.44089e-14 3.80859e-14 0 0 0 0)
)
;
    }
    frontAndBack
    {
        type            empty;
    }
}


// ************************************************************************* //
