/*--------------------------------*- C++ -*----------------------------------*\
| =========                 |                                                 |
| \\      /  F ield         | OpenFOAM: The Open Source CFD Toolbox           |
|  \\    /   O peration     | Version:  2506                                  |
|   \\  /    A nd           | Website:  www.openfoam.com                      |
|    \\/     M anipulation  |                                                 |
\*---------------------------------------------------------------------------*/
FoamFile
{
    version     2.0;
    format      ascii;
    arch        "LSB;label=32;scalar=64";
    class       volScalarField;
    location    "4.5";
    object      initialResidual:Uy;
}
// * * * * * * * * * * * * * * * * * * * * * * * * * * * * * * * * * * * * * //

dimensions      [0 0 0 0 0 0 0];

internalField   nonuniform List<scalar> 
400
(
-1.28362e-14
5.50067e-15
-1.30674e-15
3.10288e-16
-7.37617e-17
1.75232e-17
-4.16207e-18
9.92804e-19
-2.33393e-19
6.352e-20
-1.15457e-20
3.06333e-21
-2.65598e-21
-1.08825e-21
1.74115e-21
4.67586e-21
5.45693e-21
-2.75497e-21
1.51497e-21
2.97659e-21
1.28383e-14
-5.49996e-15
1.30499e-15
-3.09781e-16
7.3437e-17
-1.74276e-17
4.13697e-18
-9.69948e-19
2.38795e-19
-4.68936e-20
1.79098e-20
1.9748e-21
3.96826e-21
8.12038e-21
6.86937e-21
9.25276e-21
6.22833e-21
1.28715e-21
7.66888e-21
4.31956e-21
-1.28022e-14
5.48201e-15
-1.30085e-15
3.08621e-16
-7.32574e-17
1.73868e-17
-4.11516e-18
9.91328e-19
-2.20497e-19
6.5174e-20
3.64413e-22
1.80869e-20
8.49648e-21
1.02644e-20
4.46908e-21
8.64069e-21
9.70934e-21
9.57817e-21
1.67179e-20
4.56372e-21
1.27679e-14
-5.46464e-15
1.29623e-15
-3.07337e-16
7.29277e-17
-1.72608e-17
4.1227e-18
-9.48074e-19
2.49146e-19
-3.67571e-20
3.36569e-20
1.52118e-20
1.49588e-20
1.16531e-20
1.12327e-20
8.46671e-21
7.55198e-21
6.93331e-21
2.41392e-20
7.7128e-21
-1.27292e-14
5.44775e-15
-1.29157e-15
3.064e-16
-7.25562e-17
1.72646e-17
-4.04757e-18
9.99657e-19
-2.03116e-19
8.06069e-20
6.60825e-21
1.82755e-20
1.94011e-20
2.27554e-20
2.33691e-20
1.1358e-20
4.3722e-21
8.46308e-21
3.21487e-20
1.10637e-20
1.27002e-14
-5.4345e-15
1.28871e-15
-3.05424e-16
7.25052e-17
-1.71171e-17
4.11695e-18
-9.26855e-19
2.64643e-19
-2.00142e-20
3.76068e-20
1.01967e-20
2.24985e-20
2.5733e-20
2.5483e-20
1.89885e-20
1.52128e-20
1.04921e-20
3.64389e-20
1.56067e-20
-1.26728e-14
5.42341e-15
-1.28577e-15
3.05011e-16
-7.22092e-17
1.72027e-17
-4.00343e-18
1.01698e-18
-1.78054e-19
9.13593e-20
1.67812e-20
2.666e-20
2.3822e-20
2.0297e-20
1.9916e-20
2.69467e-20
2.12522e-20
1.02113e-20
3.35879e-20
1.49603e-20
1.26559e-14
-5.41619e-15
1.28442e-15
-3.04464e-16
7.22931e-17
-1.70506e-17
4.13029e-18
-9.03481e-19
2.77134e-19
-1.64408e-20
4.5537e-20
3.07751e-20
3.13666e-20
2.42548e-20
2.02493e-20
2.25058e-20
1.29026e-20
1.70991e-20
3.83006e-20
1.24131e-20
-1.26411e-14
5.41061e-15
-1.28299e-15
3.0437e-16
-7.20794e-17
1.7189e-17
-3.99107e-18
1.02189e-18
-1.82774e-19
8.49123e-20
2.15409e-20
3.56399e-20
3.07518e-20
3.24969e-20
3.07933e-20
1.76479e-20
9.38798e-21
1.57145e-20
4.42433e-20
1.63453e-20
1.26333e-14
-5.40745e-15
1.28254e-15
-3.04074e-16
7.22058e-17
-1.70371e-17
4.12e-18
-9.08712e-19
2.7847e-19
-1.34491e-20
5.0929e-20
3.33334e-20
2.61243e-20
2.54231e-20
2.6707e-20
1.96061e-20
1.17495e-20
7.66813e-21
4.28013e-20
1.85936e-20
-1.26262e-14
5.40482e-15
-1.28183e-15
3.04104e-16
-7.20464e-17
1.71722e-17
-3.99223e-18
1.01122e-18
-1.85478e-19
1.05452e-19
3.2086e-20
4.08394e-20
2.64361e-20
2.53321e-20
2.12371e-20
2.05337e-20
9.71988e-21
7.28599e-21
4.13086e-20
1.60794e-20
1.26217e-14
-5.40288e-15
1.28154e-15
-3.03883e-16
7.21616e-17
-1.70401e-17
4.1072e-18
-9.13005e-19
2.73671e-19
-9.8871e-21
5.37027e-20
2.9684e-20
3.14904e-20
2.86351e-20
2.16606e-20
2.48675e-20
1.73804e-20
1.36588e-20
3.66061e-20
1.31329e-20
-1.26162e-14
5.40071e-15
-1.28091e-15
3.03892e-16
-7.19976e-17
1.71461e-17
-4.00676e-18
1.01399e-18
-1.79025e-19
8.55699e-20
1.89385e-20
4.04267e-20
3.57769e-20
2.91723e-20
2.54422e-20
2.766e-20
2.22911e-20
1.13005e-20
3.24694e-20
1.3312e-20
1.26107e-14
-5.39821e-15
1.28045e-15
-3.03628e-16
7.2087e-17
-1.70273e-17
4.10124e-18
-9.1361e-19
2.69207e-19
-1.68411e-20
5.20722e-20
3.88107e-20
3.78872e-20
2.26011e-20
2.64131e-20
2.42839e-20
1.57951e-20
4.77933e-21
3.25503e-20
1.51838e-20
-1.26047e-14
5.39569e-15
-1.2797e-15
3.03582e-16
-7.19413e-17
1.71322e-17
-3.99643e-18
1.01097e-18
-1.83018e-19
9.87658e-20
2.32872e-20
2.74683e-20
2.4739e-20
2.48894e-20
2.07547e-20
2.02154e-20
1.16872e-20
9.82469e-21
3.14677e-20
1.34455e-20
1.25979e-14
-5.39256e-15
1.2791e-15
-3.03302e-16
7.2002e-17
-1.70118e-17
4.10592e-18
-9.10887e-19
2.68556e-19
-1.7417e-20
4.13634e-20
1.74088e-20
2.15269e-20
2.28321e-20
1.48574e-20
1.48571e-20
9.56226e-21
1.17931e-20
2.74673e-20
1.0015e-20
-1.25927e-14
5.39044e-15
-1.27835e-15
3.03289e-16
-7.18463e-17
1.71064e-17
-3.99896e-18
9.97562e-19
-1.98148e-19
8.06154e-20
1.63535e-20
2.79299e-20
1.43553e-20
1.25448e-20
1.08607e-20
1.13051e-20
8.07224e-21
6.75697e-21
2.35971e-20
9.24788e-21
1.25863e-14
-5.38745e-15
1.27802e-15
-3.02998e-16
7.198e-17
-1.70061e-17
4.07851e-18
-9.31761e-19
2.54283e-19
-3.09538e-20
3.04299e-20
7.77303e-21
6.16673e-21
8.56391e-21
1.17045e-20
6.76722e-21
5.73994e-21
7.30053e-21
2.25724e-20
7.62973e-21
-1.25858e-14
5.38753e-15
-1.27717e-15
3.02889e-16
-7.17062e-17
1.70352e-17
-4.00407e-18
9.67685e-19
-2.12717e-19
6.75709e-20
-5.12072e-21
4.49185e-21
2.46711e-21
2.71411e-21
4.46393e-21
4.67627e-21
3.8901e-21
7.38563e-21
1.57558e-20
4.56141e-21
1.25722e-14
-5.38548e-15
1.27835e-15
-3.03385e-16
7.20685e-17
-1.71048e-17
4.07858e-18
-9.61652e-19
2.30578e-19
-5.43645e-20
1.38818e-20
-3.52501e-21
2.05851e-21
-1.86792e-21
-1.41962e-21
3.8698e-21
3.85152e-21
2.75954e-21
4.24647e-21
1.94662e-21
)
;

boundaryField
{
    movingWall
    {
        type            zeroGradient;
    }
    fixedWalls
    {
        type            zeroGradient;
    }
    frontAndBack
    {
        type            empty;
    }
}


// ************************************************************************* //
