/*--------------------------------*- C++ -*----------------------------------*\
| =========                 |                                                 |
| \\      /  F ield         | OpenFOAM: The Open Source CFD Toolbox           |
|  \\    /   O peration     | Version:  2506                                  |
|   \\  /    A nd           | Website:  www.openfoam.com                      |
|    \\/     M anipulation  |                                                 |
\*---------------------------------------------------------------------------*/
FoamFile
{
    version     2.0;
    format      ascii;
    arch        "LSB;label=32;scalar=64";
    class       volScalarField;
    location    "4.5";
    object      initialResidual:Ux;
}
// * * * * * * * * * * * * * * * * * * * * * * * * * * * * * * * * * * * * * //

dimensions      [0 0 0 0 0 0 0];

internalField   nonuniform List<scalar> 
400
(
3.36419e-17
-2.78098e-17
1.04219e-17
-3.85569e-18
1.30104e-18
-3.59142e-19
1.82959e-19
4.06576e-20
1.01644e-19
5.42101e-20
4.74338e-20
5.42101e-20
3.38813e-20
4.06576e-20
4.06576e-20
4.06576e-20
1.35525e-20
-6.77626e-21
4.74338e-20
-1.35525e-20
-3.83943e-17
1.61072e-17
-4.47233e-18
1.34848e-18
-2.10064e-19
1.21973e-19
6.09864e-20
6.77626e-20
2.71051e-20
6.09864e-20
4.74338e-20
3.38813e-20
4.06576e-20
2.03288e-20
6.77626e-21
2.03288e-20
2.03288e-20
1.35525e-20
2.03288e-20
0
6.69983e-17
-2.55736e-17
7.9079e-18
-1.92446e-18
6.43745e-19
-8.13152e-20
1.21973e-19
6.09864e-20
8.13152e-20
5.42101e-20
2.03288e-20
4.74338e-20
4.06576e-20
4.74338e-20
5.42101e-20
2.03288e-20
2.03288e-20
1.35525e-20
-6.77626e-21
0
-6.02667e-17
2.34052e-17
-6.76949e-18
1.99222e-18
-3.25261e-19
1.82959e-19
4.74338e-20
6.77626e-20
4.06576e-20
4.06576e-20
4.06576e-20
6.77626e-21
2.03288e-20
4.06576e-20
1.35525e-20
1.35525e-20
-6.77626e-21
6.77626e-21
1.35525e-20
-1.35525e-20
4.46913e-17
-1.62495e-17
4.71628e-18
-1.13164e-18
3.45589e-19
6.77626e-21
8.13152e-20
8.13152e-20
4.74338e-20
5.42101e-20
5.42101e-20
2.03288e-20
4.74338e-20
-1.35525e-20
2.71051e-20
4.74338e-20
1.35525e-20
1.35525e-20
-6.77626e-21
-1.35525e-20
-2.36359e-17
8.41612e-18
-2.29715e-18
6.03087e-19
-3.38813e-20
4.74338e-20
4.74338e-20
6.09864e-20
6.77626e-20
4.74338e-20
2.71051e-20
2.03288e-20
-1.35525e-20
2.71051e-20
-6.77626e-21
3.38813e-20
6.77626e-21
-2.03288e-20
1.35525e-20
-1.35525e-20
4.39353e-18
-3.93023e-19
-2.84603e-19
1.96512e-19
-2.03288e-20
6.77626e-20
4.74338e-20
2.71051e-20
3.38813e-20
4.06576e-20
2.71051e-20
2.71051e-20
2.03288e-20
1.35525e-20
4.06576e-20
-6.77626e-21
-6.77626e-21
2.71051e-20
2.03288e-20
-2.71051e-20
1.20667e-17
-5.67173e-18
1.93124e-18
-6.30193e-19
1.96512e-19
-2.71051e-20
4.06576e-20
2.71051e-20
6.77626e-21
6.09864e-20
-2.03288e-20
2.03288e-20
2.71051e-20
4.74338e-20
-2.71051e-20
3.38813e-20
4.06576e-20
2.03288e-20
-6.77626e-21
0
-2.17964e-17
9.73071e-18
-3.27294e-18
9.89334e-19
-2.84603e-19
1.0842e-19
-6.77626e-21
2.03288e-20
6.77626e-21
3.38813e-20
3.38813e-20
2.03288e-20
2.03288e-20
-1.35525e-20
2.03288e-20
0
2.71051e-20
-6.77626e-21
1.35525e-20
0
2.88951e-17
-1.21566e-17
3.82181e-18
-1.21973e-18
3.04932e-19
-1.0842e-19
4.06576e-20
6.77626e-21
3.38813e-20
-6.77626e-21
1.35525e-20
-6.77626e-21
0
3.38813e-20
1.35525e-20
2.03288e-20
4.06576e-20
-6.77626e-21
2.03288e-20
0
-3.01313e-17
1.28342e-17
-4.07931e-18
1.23328e-18
-3.59142e-19
1.15196e-19
-1.35525e-20
1.35525e-20
2.03288e-20
1.35525e-20
2.71051e-20
6.77626e-21
1.35525e-20
2.03288e-20
-2.71051e-20
2.03288e-20
6.77626e-21
1.35525e-20
1.35525e-20
-1.35525e-20
3.14674e-17
-1.30985e-17
4.03865e-18
-1.24006e-18
3.25261e-19
-1.01644e-19
6.09864e-20
-4.74338e-20
-2.03288e-20
-3.38813e-20
2.03288e-20
2.03288e-20
0
1.35525e-20
0
1.35525e-20
0
3.38813e-20
-6.77626e-21
0
-2.95636e-17
1.26242e-17
-3.91668e-18
1.1994e-18
-3.86247e-19
1.0842e-19
-2.71051e-20
4.06576e-20
-1.35525e-20
-2.03288e-20
0
-1.35525e-20
-4.74338e-20
6.77626e-21
-2.03288e-20
1.35525e-20
-2.71051e-20
1.35525e-20
0
-1.35525e-20
2.97706e-17
-1.25496e-17
3.83537e-18
-1.18585e-18
3.86247e-19
-1.15196e-19
3.38813e-20
-6.77626e-21
2.71051e-20
-3.38813e-20
1.35525e-20
-4.06576e-20
-1.35525e-20
-1.35525e-20
4.06576e-20
0
-2.03288e-20
0
-6.77626e-21
0
-2.75923e-17
1.18585e-17
-3.68629e-18
1.13164e-18
-3.45589e-19
1.15196e-19
-4.74338e-20
-1.35525e-20
-1.35525e-20
-1.35525e-20
6.77626e-21
6.77626e-21
-2.03288e-20
-6.77626e-21
-2.71051e-20
0
-2.03288e-20
0
-1.35525e-20
-2.71051e-20
2.84771e-17
-1.20075e-17
3.67273e-18
-1.15196e-18
3.18484e-19
-9.48677e-20
-2.03288e-20
-6.09864e-20
0
6.77626e-21
-1.35525e-20
1.35525e-20
0
-2.71051e-20
0
1.35525e-20
-3.38813e-20
-6.77626e-21
-1.35525e-20
-1.35525e-20
-2.58892e-17
1.11537e-17
-3.44234e-18
1.02999e-18
-3.32037e-19
5.42101e-20
-3.38813e-20
2.03288e-20
-3.38813e-20
-4.06576e-20
-4.06576e-20
-2.03288e-20
-6.77626e-21
-6.77626e-21
-6.77626e-21
-1.35525e-20
0
-6.77626e-21
-2.71051e-20
0
2.89819e-17
-1.19872e-17
3.5982e-18
-1.15196e-18
2.91379e-19
-1.6263e-19
2.71051e-20
-3.38813e-20
-4.06576e-20
-2.03288e-20
0
1.35525e-20
-4.06576e-20
-3.38813e-20
-4.74338e-20
-2.03288e-20
0
-2.03288e-20
-1.35525e-20
0
-2.41298e-17
1.05032e-17
-3.25261e-18
8.06375e-19
-3.25261e-19
2.03288e-20
-6.09864e-20
-2.71051e-20
-2.03288e-20
-6.77626e-21
-1.35525e-20
-2.71051e-20
-3.38813e-20
-6.77626e-21
-2.71051e-20
-6.77626e-21
0
0
-1.35525e-20
0
4.2189e-17
-3.10624e-17
1.14925e-17
-4.30293e-18
1.24006e-18
-5.14996e-19
7.45389e-20
-6.77626e-20
-1.35525e-20
-5.42101e-20
1.35525e-20
-3.38813e-20
-2.03288e-20
-2.71051e-20
-1.35525e-20
-6.77626e-21
2.03288e-20
6.77626e-21
0
1.35525e-20
)
;

boundaryField
{
    movingWall
    {
        type            zeroGradient;
    }
    fixedWalls
    {
        type            zeroGradient;
    }
    frontAndBack
    {
        type            empty;
    }
}


// ************************************************************************* //
