/*--------------------------------*- C++ -*----------------------------------*\
| =========                 |                                                 |
| \\      /  F ield         | OpenFOAM: The Open Source CFD Toolbox           |
|  \\    /   O peration     | Version:  2506                                  |
|   \\  /    A nd           | Website:  www.openfoam.com                      |
|    \\/     M anipulation  |                                                 |
\*---------------------------------------------------------------------------*/
FoamFile
{
    version     2.0;
    format      ascii;
    arch        "LSB;label=32;scalar=64";
    class       volScalarField;
    location    "4.5";
    object      initialResidual:epsilon;
}
// * * * * * * * * * * * * * * * * * * * * * * * * * * * * * * * * * * * * * //

dimensions      [0 0 0 0 0 0 0];

internalField   nonuniform List<scalar> 
400
(
0
0
0
0
0
0
0
0
0
0
0
0
0
0
0
0
0
0
0
0
0
-4.47995e-12
-4.46883e-12
-4.48141e-12
-4.48907e-12
-4.49849e-12
-4.50581e-12
-4.51535e-12
-4.5228e-12
-4.53258e-12
-4.54039e-12
-4.54972e-12
-4.55879e-12
-4.56677e-12
-4.57779e-12
-4.58407e-12
-4.59722e-12
-4.60231e-12
-9.20869e-12
0
0
-6.15952e-12
-6.14482e-12
-6.16371e-12
-6.17522e-12
-6.1896e-12
-6.20055e-12
-6.21513e-12
-6.22619e-12
-6.24115e-12
-6.25274e-12
-6.26693e-12
-6.28048e-12
-6.2925e-12
-6.30903e-12
-6.31839e-12
-6.33819e-12
-6.34561e-12
-1.27062e-11
0
0
-7.56778e-12
-7.54865e-12
-7.57306e-12
-7.58877e-12
-7.60703e-12
-7.62171e-12
-7.64034e-12
-7.65518e-12
-7.67435e-12
-7.68976e-12
-7.70815e-12
-7.72594e-12
-7.7417e-12
-7.76329e-12
-7.77569e-12
-7.80144e-12
-7.81142e-12
-1.56417e-11
0
0
-8.4966e-12
-8.47601e-12
-8.50401e-12
-8.52215e-12
-8.5433e-12
-8.56053e-12
-8.58205e-12
-8.59953e-12
-8.62163e-12
-8.63984e-12
-8.66105e-12
-8.68193e-12
-8.70024e-12
-8.72538e-12
-8.74001e-12
-8.76978e-12
-8.78183e-12
-1.75855e-11
0
0
-9.04151e-12
-9.02337e-12
-9.05221e-12
-9.07197e-12
-9.09467e-12
-9.11346e-12
-9.13673e-12
-9.15579e-12
-9.17971e-12
-9.19953e-12
-9.22253e-12
-9.24523e-12
-9.26513e-12
-9.29242e-12
-9.30836e-12
-9.34068e-12
-9.35379e-12
-1.87316e-11
0
0
-9.35657e-12
-9.33442e-12
-9.36559e-12
-9.38656e-12
-9.41024e-12
-9.42987e-12
-9.45424e-12
-9.47403e-12
-9.49918e-12
-9.51975e-12
-9.54395e-12
-9.56752e-12
-9.58854e-12
-9.6169e-12
-9.63379e-12
-9.66738e-12
-9.68131e-12
-1.93878e-11
0
0
-9.54361e-12
-9.52407e-12
-9.55521e-12
-9.57625e-12
-9.60067e-12
-9.62082e-12
-9.64575e-12
-9.66621e-12
-9.69183e-12
-9.71317e-12
-9.73781e-12
-9.76218e-12
-9.78364e-12
-9.81284e-12
-9.8301e-12
-9.86466e-12
-9.87887e-12
-1.97838e-11
0
0
-9.6753e-12
-9.65181e-12
-9.68451e-12
-9.70652e-12
-9.73111e-12
-9.75171e-12
-9.77701e-12
-9.79784e-12
-9.82392e-12
-9.84563e-12
-9.87071e-12
-9.89547e-12
-9.91733e-12
-9.94701e-12
-9.96461e-12
-9.99976e-12
-1.00143e-11
-2.0055e-11
0
0
-9.77923e-12
-9.75616e-12
-9.78904e-12
-9.81127e-12
-9.83609e-12
-9.85723e-12
-9.88259e-12
-9.90402e-12
-9.93015e-12
-9.95241e-12
-9.9776e-12
-1.00029e-11
-1.00249e-11
-1.00551e-11
-1.00729e-11
-1.01085e-11
-1.01233e-11
-2.02734e-11
0
0
-9.87494e-12
-9.85355e-12
-9.88612e-12
-9.90858e-12
-9.93377e-12
-9.95504e-12
-9.98095e-12
-1.00023e-11
-1.0029e-11
-1.00513e-11
-1.0077e-11
-1.01025e-11
-1.01249e-11
-1.01554e-11
-1.01735e-11
-1.02094e-11
-1.02246e-11
-2.04761e-11
0
0
-9.97261e-12
-9.95352e-12
-9.98551e-12
-1.00081e-11
-1.00336e-11
-1.00553e-11
-1.00813e-11
-1.01032e-11
-1.01301e-11
-1.01527e-11
-1.01787e-11
-1.02046e-11
-1.02272e-11
-1.02581e-11
-1.02764e-11
-1.03129e-11
-1.03282e-11
-2.06836e-11
0
0
-1.00821e-11
-1.00594e-11
-1.00932e-11
-1.01162e-11
-1.01421e-11
-1.01638e-11
-1.01903e-11
-1.02125e-11
-1.02397e-11
-1.02628e-11
-1.0289e-11
-1.03153e-11
-1.03381e-11
-1.03695e-11
-1.03881e-11
-1.0425e-11
-1.04406e-11
-2.09086e-11
0
0
-1.02022e-11
-1.01804e-11
-1.02139e-11
-1.02375e-11
-1.02635e-11
-1.02857e-11
-1.03126e-11
-1.03351e-11
-1.03628e-11
-1.03861e-11
-1.04128e-11
-1.04394e-11
-1.04627e-11
-1.04945e-11
-1.05134e-11
-1.05508e-11
-1.05666e-11
-2.11611e-11
0
0
-1.0341e-11
-1.03179e-11
-1.03526e-11
-1.03764e-11
-1.0403e-11
-1.04256e-11
-1.04528e-11
-1.04757e-11
-1.05037e-11
-1.05277e-11
-1.05546e-11
-1.05819e-11
-1.06054e-11
-1.06378e-11
-1.06571e-11
-1.0695e-11
-1.07112e-11
-2.14506e-11
0
0
-1.05013e-11
-1.04791e-11
-1.05139e-11
-1.05382e-11
-1.05653e-11
-1.05883e-11
-1.06161e-11
-1.06393e-11
-1.0668e-11
-1.06923e-11
-1.07198e-11
-1.07475e-11
-1.07716e-11
-1.08046e-11
-1.08242e-11
-1.0863e-11
-1.08794e-11
-2.17876e-11
0
0
-1.06874e-11
-1.06653e-11
-1.07006e-11
-1.07256e-11
-1.07529e-11
-1.07767e-11
-1.08048e-11
-1.0829e-11
-1.0858e-11
-1.08831e-11
-1.09111e-11
-1.09394e-11
-1.0964e-11
-1.09977e-11
-1.10178e-11
-1.10573e-11
-1.10743e-11
-2.21777e-11
0
0
-1.08938e-11
-1.08666e-11
-1.0904e-11
-1.09301e-11
-1.09579e-11
-1.09824e-11
-1.10109e-11
-1.10359e-11
-1.10652e-11
-1.10912e-11
-1.11196e-11
-1.11488e-11
-1.11738e-11
-1.12083e-11
-1.1229e-11
-1.12693e-11
-1.12868e-11
-2.26031e-11
0
0
-1.1122e-11
-1.10918e-11
-1.11309e-11
-1.11543e-11
-1.1184e-11
-1.12058e-11
-1.12365e-11
-1.12587e-11
-1.12903e-11
-1.13139e-11
-1.13443e-11
-1.13719e-11
-1.13982e-11
-1.14323e-11
-1.14532e-11
-1.14945e-11
-1.15116e-11
-2.30246e-11
0
0
0
0
0
0
0
0
0
0
0
0
0
0
0
0
0
0
0
0
0
)
;

boundaryField
{
    movingWall
    {
        type            zeroGradient;
    }
    fixedWalls
    {
        type            zeroGradient;
    }
    frontAndBack
    {
        type            empty;
    }
}


// ************************************************************************* //
