/*--------------------------------*- C++ -*----------------------------------*\
| =========                 |                                                 |
| \\      /  F ield         | OpenFOAM: The Open Source CFD Toolbox           |
|  \\    /   O peration     | Version:  2506                                  |
|   \\  /    A nd           | Website:  www.openfoam.com                      |
|    \\/     M anipulation  |                                                 |
\*---------------------------------------------------------------------------*/
FoamFile
{
    version     2.0;
    format      ascii;
    arch        "LSB;label=32;scalar=64";
    class       volScalarField;
    location    "4.5";
    object      initialResidual:p;
}
// * * * * * * * * * * * * * * * * * * * * * * * * * * * * * * * * * * * * * //

dimensions      [0 0 0 0 0 0 0];

internalField   nonuniform List<scalar> 
400
(
7.25184e-19
-3.40336e-18
2.56766e-18
-7.89317e-19
2.98299e-19
-9.41612e-20
4.9503e-20
-1.09133e-20
-1.88299e-20
1.34417e-20
-2.62253e-21
-4.10558e-21
-4.17118e-21
2.64339e-21
3.76352e-21
-8.37817e-21
4.63214e-21
1.10891e-21
-1.14659e-20
-1.27254e-23
1.4024e-18
5.24064e-18
-8.86218e-19
1.87548e-19
-7.66303e-20
1.60586e-20
-3.49551e-21
-1.14063e-20
2.46224e-20
-1.25126e-20
-1.39967e-20
3.90803e-22
6.00459e-21
2.46983e-21
8.20749e-21
-4.58192e-21
-7.06569e-23
6.36933e-21
3.75169e-22
-2.39156e-23
-1.12422e-18
-9.49062e-18
1.5814e-18
-3.31133e-19
1.56151e-19
-2.95127e-20
9.10728e-21
-4.09667e-21
-5.38816e-22
-1.15579e-20
1.00712e-20
1.05122e-21
1.02759e-20
-5.24901e-21
-7.00392e-21
-1.99212e-20
-1.12932e-20
-2.77307e-21
6.55331e-21
-6.74669e-24
3.46232e-18
8.80243e-18
-1.31952e-18
3.00806e-19
-1.45156e-19
3.07009e-20
-7.56562e-21
-1.63815e-21
-5.20793e-21
-2.49195e-21
1.0285e-20
-1.02327e-20
1.73383e-20
-5.0073e-21
6.91411e-21
1.04071e-20
-1.78e-20
-2.48345e-21
-5.69049e-21
6.75448e-21
-4.7769e-18
-6.43034e-18
9.52678e-19
-1.47376e-19
1.04925e-19
-7.17748e-21
1.85166e-20
3.07565e-21
-1.39887e-20
-9.01673e-22
-6.50144e-21
-1.05423e-20
-6.58291e-21
7.34205e-21
1.94477e-20
-1.34933e-20
-2.24323e-21
1.66934e-21
1.56013e-21
1.35529e-20
6.24104e-18
2.83564e-18
-2.84031e-19
2.436e-20
-2.32394e-20
1.79333e-21
2.83674e-20
2.19072e-20
2.54661e-21
-1.81406e-20
-1.09945e-20
-9.29118e-22
-1.25926e-20
1.77785e-21
8.83496e-21
-1.55527e-22
-8.42272e-21
2.41271e-21
7.10484e-21
6.7594e-21
-7.23041e-18
2.26663e-19
-2.49856e-19
1.51472e-19
-1.72881e-20
3.20807e-22
-2.10692e-21
4.40993e-22
2.29843e-20
-2.03365e-20
8.37443e-21
1.32515e-20
-2.97477e-21
-7.21756e-22
-8.63474e-21
-5.67364e-21
-9.52336e-21
-3.48091e-21
-6.18238e-21
-6.76885e-21
7.33918e-18
-2.95191e-18
7.71164e-19
-1.88782e-19
7.47563e-20
-1.19454e-20
3.30088e-21
1.0324e-20
-2.35202e-20
-9.16534e-21
5.32595e-21
2.42326e-20
1.52942e-20
-2.76562e-20
1.5695e-21
1.79384e-20
-1.31949e-20
-5.13867e-21
5.00417e-21
-9.9785e-24
-7.373e-18
4.39264e-18
-1.02344e-18
2.92544e-19
-8.91036e-20
2.13062e-20
-1.0944e-20
6.4889e-21
1.7855e-21
6.66504e-21
-1.63917e-20
-1.13891e-20
1.26558e-20
-2.35076e-20
9.90103e-21
-3.36328e-21
9.6953e-21
-1.51069e-20
-1.51537e-21
1.35663e-20
6.81079e-18
-5.41529e-18
1.22405e-18
-3.0864e-19
1.25153e-19
-2.33218e-20
3.41586e-20
-6.3979e-21
1.8541e-21
-1.97771e-20
1.6582e-20
5.24926e-21
3.62313e-21
-1.22422e-20
6.15277e-21
-1.13048e-20
-4.03838e-22
-1.82938e-20
-1.72451e-21
-6.77838e-21
-6.40405e-18
5.48032e-18
-1.25712e-18
3.10928e-19
-1.07014e-19
2.55238e-20
-1.40371e-20
4.47981e-21
1.11863e-21
1.62919e-21
2.44853e-20
-1.78238e-20
-7.84955e-21
3.04998e-21
-7.21791e-23
6.29108e-21
7.78558e-21
9.06289e-21
-1.06738e-20
1.86318e-23
6.0383e-18
-5.59946e-18
1.32394e-18
-3.19829e-19
1.27208e-19
-2.62654e-20
-1.80518e-20
-2.22177e-20
8.53982e-21
1.44837e-21
4.76746e-21
-2.32452e-21
8.37098e-21
-1.6078e-21
1.46399e-21
1.46345e-21
1.20853e-20
1.20191e-20
-6.1868e-21
-1.3547e-20
-5.82124e-18
5.23219e-18
-1.27096e-18
3.07959e-19
-1.02185e-19
1.87362e-20
-6.66025e-21
2.98008e-21
-8.17342e-21
3.86432e-22
1.75308e-21
-1.28511e-20
1.03885e-20
-2.13736e-21
-3.08233e-21
8.43488e-21
3.13283e-21
-6.98202e-21
-1.38654e-20
2.71262e-20
5.774e-18
-5.22683e-18
1.29341e-18
-2.9843e-19
7.42655e-20
-3.25657e-20
1.89171e-20
-3.81369e-21
3.99831e-21
-1.0878e-20
-8.41542e-22
1.1168e-20
-1.29053e-20
5.98952e-21
-5.84169e-21
-2.3202e-20
4.73704e-22
5.73396e-21
-1.78175e-21
1.17717e-23
-5.69923e-18
4.88687e-18
-1.20823e-18
3.00045e-19
-9.64697e-20
1.45014e-20
-3.57683e-21
2.55314e-21
5.89688e-21
6.45844e-21
1.37926e-20
-2.81432e-20
-1.40555e-20
1.63129e-21
-1.15535e-20
2.39469e-21
-8.15403e-21
8.80574e-21
1.20329e-20
2.07412e-23
5.48261e-18
-4.95759e-18
1.25803e-18
-2.82387e-19
1.02564e-19
-5.20734e-20
9.13888e-21
4.62317e-21
-1.01169e-20
8.27195e-21
-3.63635e-21
-2.15979e-22
3.6025e-21
-2.0144e-20
1.28485e-20
-1.57924e-20
-3.42884e-21
-8.80392e-21
1.46757e-21
6.7923e-21
-5.08934e-18
4.54481e-18
-1.1379e-18
2.90075e-19
-7.8538e-20
2.95836e-20
-1.22529e-20
-1.99329e-20
-2.02704e-21
-7.37831e-21
-2.06296e-21
-4.78425e-21
-4.09731e-21
-3.21628e-21
2.62775e-21
-5.00054e-21
2.92933e-21
4.2241e-21
-8.03838e-22
2.03486e-20
4.57459e-18
-4.80372e-18
1.21723e-18
-3.05609e-19
1.13069e-19
-3.12333e-20
-2.01483e-21
-9.08108e-21
-3.84779e-21
8.52e-21
-3.95427e-21
-2.95238e-20
-7.77731e-21
-1.05132e-21
1.14474e-21
6.92923e-21
5.57449e-21
-5.1135e-21
1.93298e-20
-1.35339e-20
-2.81228e-18
3.88992e-18
-8.92103e-19
2.03386e-19
-6.46259e-20
1.75215e-20
-7.79968e-21
-1.53452e-20
2.79353e-22
-1.65266e-20
-1.06201e-20
7.37586e-21
-5.92136e-21
-1.21293e-20
8.74123e-21
3.96062e-21
6.01791e-21
-7.27627e-21
-8.32447e-21
6.79393e-21
1.8706e-18
-4.81832e-18
2.81252e-18
-9.01336e-19
3.38879e-19
-1.01637e-19
2.71302e-20
-1.35342e-20
1.35724e-20
1.8688e-23
1.85133e-23
-6.75821e-21
1.35704e-20
6.79373e-21
6.7927e-21
1.45554e-23
-6.76233e-21
-6.7596e-21
1.76483e-23
-1.35525e-20
)
;

boundaryField
{
    movingWall
    {
        type            zeroGradient;
    }
    fixedWalls
    {
        type            zeroGradient;
    }
    frontAndBack
    {
        type            empty;
    }
}


// ************************************************************************* //
