/*--------------------------------*- C++ -*----------------------------------*\
| =========                 |                                                 |
| \\      /  F ield         | OpenFOAM: The Open Source CFD Toolbox           |
|  \\    /   O peration     | Version:  2506                                  |
|   \\  /    A nd           | Website:  www.openfoam.com                      |
|    \\/     M anipulation  |                                                 |
\*---------------------------------------------------------------------------*/
FoamFile
{
    version     2.0;
    format      ascii;
    arch        "LSB;label=32;scalar=64";
    class       volScalarField;
    location    "4.5";
    object      initialResidual:k;
}
// * * * * * * * * * * * * * * * * * * * * * * * * * * * * * * * * * * * * * //

dimensions      [0 0 0 0 0 0 0];

internalField   nonuniform List<scalar> 
400
(
-3.11579e-12
-3.10935e-12
-3.11516e-12
-3.10889e-12
-3.11723e-12
-3.10454e-12
-3.12293e-12
-3.10022e-12
-3.12467e-12
-3.10086e-12
-3.12159e-12
-3.10345e-12
-3.12183e-12
-3.10347e-12
-3.11949e-12
-3.10728e-12
-3.11492e-12
-3.11125e-12
-3.11253e-12
-3.11231e-12
-4.05828e-12
-4.0649e-12
-4.0566e-12
-4.05296e-12
-4.05676e-12
-4.06636e-12
-4.0466e-12
-4.0679e-12
-4.04259e-12
-4.06382e-12
-4.04422e-12
-4.05834e-12
-4.04786e-12
-4.053e-12
-4.05152e-12
-4.05077e-12
-4.05284e-12
-4.05161e-12
-4.05202e-12
-4.0516e-12
-5.22057e-12
-5.22741e-12
-5.21734e-12
-5.21296e-12
-5.22151e-12
-5.21601e-12
-5.21956e-12
-5.21236e-12
-5.21663e-12
-5.21171e-12
-5.21469e-12
-5.21521e-12
-5.21135e-12
-5.21047e-12
-5.21172e-12
-5.21026e-12
-5.21032e-12
-5.20951e-12
-5.21058e-12
-5.21014e-12
-6.10791e-12
-6.14022e-12
-6.08276e-12
-6.12505e-12
-6.08806e-12
-6.12195e-12
-6.08685e-12
-6.11281e-12
-6.09053e-12
-6.10338e-12
-6.09457e-12
-6.09796e-12
-6.09709e-12
-6.09511e-12
-6.09753e-12
-6.09508e-12
-6.09633e-12
-6.09536e-12
-6.09536e-12
-6.09512e-12
-6.66307e-12
-6.66093e-12
-6.66612e-12
-6.65083e-12
-6.65761e-12
-6.66211e-12
-6.64986e-12
-6.66351e-12
-6.64364e-12
-6.65156e-12
-6.64932e-12
-6.64398e-12
-6.65197e-12
-6.64375e-12
-6.64979e-12
-6.64333e-12
-6.6486e-12
-6.64535e-12
-6.6463e-12
-6.64523e-12
-6.96104e-12
-7.05257e-12
-6.91457e-12
-7.00067e-12
-6.94144e-12
-6.98149e-12
-6.95085e-12
-6.97135e-12
-6.96046e-12
-6.95795e-12
-6.96782e-12
-6.95554e-12
-6.96372e-12
-6.95601e-12
-6.96158e-12
-6.95552e-12
-6.96009e-12
-6.95762e-12
-6.95823e-12
-6.95712e-12
-7.15025e-12
-7.18353e-12
-7.12662e-12
-7.14335e-12
-7.14914e-12
-7.13753e-12
-7.14804e-12
-7.13518e-12
-7.14428e-12
-7.13299e-12
-7.14086e-12
-7.13253e-12
-7.13749e-12
-7.13315e-12
-7.13546e-12
-7.13129e-12
-7.13496e-12
-7.13221e-12
-7.13221e-12
-7.1319e-12
-7.25645e-12
-7.26444e-12
-7.25338e-12
-7.24365e-12
-7.25646e-12
-7.24415e-12
-7.25031e-12
-7.24332e-12
-7.24726e-12
-7.24135e-12
-7.24586e-12
-7.23632e-12
-7.2444e-12
-7.23577e-12
-7.24207e-12
-7.23624e-12
-7.23882e-12
-7.23569e-12
-7.23744e-12
-7.23664e-12
-7.32926e-12
-7.3357e-12
-7.32207e-12
-7.33329e-12
-7.31932e-12
-7.31396e-12
-7.32421e-12
-7.31348e-12
-7.32026e-12
-7.31289e-12
-7.31865e-12
-7.30824e-12
-7.31579e-12
-7.30666e-12
-7.31317e-12
-7.30695e-12
-7.31236e-12
-7.30907e-12
-7.30934e-12
-7.30863e-12
-7.38638e-12
-7.4098e-12
-7.36983e-12
-7.38983e-12
-7.36997e-12
-7.41185e-12
-7.34934e-12
-7.41406e-12
-7.34162e-12
-7.39755e-12
-7.35092e-12
-7.3718e-12
-7.36757e-12
-7.36326e-12
-7.37313e-12
-7.3636e-12
-7.37034e-12
-7.36737e-12
-7.36808e-12
-7.367e-12
-7.43936e-12
-7.48328e-12
-7.40724e-12
-7.45418e-12
-7.42065e-12
-7.4428e-12
-7.43029e-12
-7.41949e-12
-7.4343e-12
-7.42387e-12
-7.42981e-12
-7.42296e-12
-7.42801e-12
-7.42066e-12
-7.42688e-12
-7.41937e-12
-7.42496e-12
-7.42197e-12
-7.42282e-12
-7.42149e-12
-7.48104e-12
-7.60323e-12
-7.41525e-12
-7.51644e-12
-7.46247e-12
-7.51638e-12
-7.46382e-12
-7.50679e-12
-7.47132e-12
-7.4742e-12
-7.48918e-12
-7.47774e-12
-7.48577e-12
-7.47613e-12
-7.48233e-12
-7.47536e-12
-7.48073e-12
-7.47787e-12
-7.47856e-12
-7.47739e-12
-7.55823e-12
-7.57706e-12
-7.54723e-12
-7.54738e-12
-7.5594e-12
-7.54332e-12
-7.54944e-12
-7.56425e-12
-7.53362e-12
-7.56094e-12
-7.531e-12
-7.54205e-12
-7.54189e-12
-7.53476e-12
-7.54416e-12
-7.53533e-12
-7.54209e-12
-7.53807e-12
-7.53934e-12
-7.53798e-12
-7.61553e-12
-7.73154e-12
-7.54602e-12
-7.63443e-12
-7.60273e-12
-7.61575e-12
-7.61732e-12
-7.61464e-12
-7.62038e-12
-7.60522e-12
-7.6143e-12
-7.60852e-12
-7.61411e-12
-7.60478e-12
-7.61146e-12
-7.60311e-12
-7.60984e-12
-7.60606e-12
-7.60686e-12
-7.60581e-12
-7.70628e-12
-7.71119e-12
-7.7041e-12
-7.6932e-12
-7.70374e-12
-7.69402e-12
-7.69871e-12
-7.69743e-12
-7.68737e-12
-7.70646e-12
-7.67488e-12
-7.70483e-12
-7.67257e-12
-7.69302e-12
-7.67977e-12
-7.67899e-12
-7.68678e-12
-7.68337e-12
-7.68437e-12
-7.68343e-12
-7.79612e-12
-7.80521e-12
-7.78907e-12
-7.78995e-12
-7.79522e-12
-7.77959e-12
-7.79241e-12
-7.77698e-12
-7.78487e-12
-7.77802e-12
-7.78245e-12
-7.77517e-12
-7.78104e-12
-7.77248e-12
-7.77957e-12
-7.77147e-12
-7.7776e-12
-7.77411e-12
-7.77511e-12
-7.77367e-12
-7.89761e-12
-7.94999e-12
-7.85897e-12
-7.92738e-12
-7.86501e-12
-7.90843e-12
-7.8703e-12
-7.91361e-12
-7.86527e-12
-7.90514e-12
-7.86953e-12
-7.88251e-12
-7.88084e-12
-7.87744e-12
-7.88165e-12
-7.88125e-12
-7.8778e-12
-7.8789e-12
-7.87809e-12
-7.87829e-12
-8.01734e-12
-8.02511e-12
-8.01088e-12
-8.00458e-12
-8.01205e-12
-8.01492e-12
-7.99872e-12
-8.02183e-12
-7.98786e-12
-8.01213e-12
-7.99126e-12
-7.99014e-12
-8.00192e-12
-7.9897e-12
-7.99897e-12
-7.98954e-12
-7.99626e-12
-7.9934e-12
-7.99408e-12
-7.99281e-12
-8.10643e-12
-8.20078e-12
-8.06388e-12
-8.14522e-12
-8.08674e-12
-8.14854e-12
-8.07617e-12
-8.14227e-12
-8.07794e-12
-8.12723e-12
-8.08664e-12
-8.11403e-12
-8.09172e-12
-8.10564e-12
-8.09621e-12
-8.09871e-12
-8.09965e-12
-8.0992e-12
-8.09921e-12
-8.0989e-12
-8.16629e-12
-8.1659e-12
-8.16301e-12
-8.17099e-12
-8.15936e-12
-8.17198e-12
-8.1577e-12
-8.17271e-12
-8.15764e-12
-8.17207e-12
-8.15898e-12
-8.17021e-12
-8.16117e-12
-8.16776e-12
-8.16379e-12
-8.16558e-12
-8.16491e-12
-8.16516e-12
-8.16513e-12
-8.16514e-12
)
;

boundaryField
{
    movingWall
    {
        type            zeroGradient;
    }
    fixedWalls
    {
        type            zeroGradient;
    }
    frontAndBack
    {
        type            empty;
    }
}


// ************************************************************************* //
