/*--------------------------------*- C++ -*----------------------------------*\
| =========                 |                                                 |
| \\      /  F ield         | OpenFOAM: The Open Source CFD Toolbox           |
|  \\    /   O peration     | Version:  2506                                  |
|   \\  /    A nd           | Website:  www.openfoam.com                      |
|    \\/     M anipulation  |                                                 |
\*---------------------------------------------------------------------------*/
FoamFile
{
    version     2.0;
    format      ascii;
    arch        "LSB;label=32;scalar=64";
    class       volScalarField;
    location    "4.5";
    object      k;
}
// * * * * * * * * * * * * * * * * * * * * * * * * * * * * * * * * * * * * * //

dimensions      [0 2 -2 0 0 0 0];

internalField   nonuniform List<scalar> 
400
(
1.93923e-05
1.93922e-05
1.93921e-05
1.93921e-05
1.93921e-05
1.9392e-05
1.9392e-05
1.93919e-05
1.93919e-05
1.93918e-05
1.93919e-05
1.93918e-05
1.93918e-05
1.93917e-05
1.93918e-05
1.93917e-05
1.93918e-05
1.93917e-05
1.93917e-05
1.93917e-05
2.19971e-05
2.19971e-05
2.19934e-05
2.1992e-05
2.19894e-05
2.19881e-05
2.1986e-05
2.19848e-05
2.19831e-05
2.1982e-05
2.19806e-05
2.19798e-05
2.19787e-05
2.1978e-05
2.19772e-05
2.19768e-05
2.19763e-05
2.19761e-05
2.19759e-05
2.19759e-05
2.5334e-05
2.53339e-05
2.5329e-05
2.5327e-05
2.53237e-05
2.53219e-05
2.5319e-05
2.53174e-05
2.53151e-05
2.53137e-05
2.53118e-05
2.53107e-05
2.53092e-05
2.53084e-05
2.53073e-05
2.53068e-05
2.53062e-05
2.53059e-05
2.53057e-05
2.53056e-05
2.80349e-05
2.80347e-05
2.80289e-05
2.80262e-05
2.80223e-05
2.80199e-05
2.80165e-05
2.80145e-05
2.80116e-05
2.80099e-05
2.80076e-05
2.80063e-05
2.80044e-05
2.80035e-05
2.80021e-05
2.80015e-05
2.80006e-05
2.80003e-05
2.8e-05
2.79999e-05
2.98042e-05
2.9804e-05
2.9797e-05
2.97944e-05
2.97896e-05
2.97872e-05
2.97831e-05
2.9781e-05
2.97776e-05
2.97759e-05
2.97729e-05
2.97718e-05
2.97693e-05
2.97685e-05
2.97667e-05
2.97662e-05
2.97651e-05
2.97649e-05
2.97645e-05
2.97644e-05
3.08486e-05
3.08484e-05
3.08414e-05
3.0838e-05
3.08333e-05
3.08304e-05
3.08262e-05
3.08239e-05
3.082e-05
3.08184e-05
3.08149e-05
3.08139e-05
3.08111e-05
3.08104e-05
3.08084e-05
3.08079e-05
3.08067e-05
3.08064e-05
3.0806e-05
3.08059e-05
3.14464e-05
3.14461e-05
3.14386e-05
3.14355e-05
3.143e-05
3.14275e-05
3.14226e-05
3.14206e-05
3.14165e-05
3.14148e-05
3.14114e-05
3.141e-05
3.14074e-05
3.14064e-05
3.14045e-05
3.14038e-05
3.14026e-05
3.14024e-05
3.14019e-05
3.14018e-05
3.18022e-05
3.1802e-05
3.1794e-05
3.1791e-05
3.17854e-05
3.17828e-05
3.1778e-05
3.17758e-05
3.17715e-05
3.17699e-05
3.17662e-05
3.17651e-05
3.17621e-05
3.17613e-05
3.17592e-05
3.17586e-05
3.17574e-05
3.17571e-05
3.17567e-05
3.17565e-05
3.20388e-05
3.20386e-05
3.20305e-05
3.20274e-05
3.20218e-05
3.20192e-05
3.20141e-05
3.2012e-05
3.20076e-05
3.2006e-05
3.20022e-05
3.20011e-05
3.1998e-05
3.19973e-05
3.19951e-05
3.19946e-05
3.19933e-05
3.1993e-05
3.19925e-05
3.19924e-05
3.22226e-05
3.22224e-05
3.22144e-05
3.2211e-05
3.22055e-05
3.22025e-05
3.2198e-05
3.21951e-05
3.21915e-05
3.2189e-05
3.2186e-05
3.21842e-05
3.21816e-05
3.21805e-05
3.21785e-05
3.21778e-05
3.21766e-05
3.21763e-05
3.21758e-05
3.21757e-05
3.23885e-05
3.23881e-05
3.23803e-05
3.23767e-05
3.23712e-05
3.23682e-05
3.23633e-05
3.2361e-05
3.23566e-05
3.23549e-05
3.23512e-05
3.23499e-05
3.23469e-05
3.2346e-05
3.23438e-05
3.23433e-05
3.2342e-05
3.23417e-05
3.23412e-05
3.23411e-05
3.2555e-05
3.25547e-05
3.2547e-05
3.25432e-05
3.25379e-05
3.25346e-05
3.253e-05
3.25272e-05
3.25232e-05
3.25212e-05
3.25174e-05
3.25162e-05
3.25131e-05
3.25122e-05
3.251e-05
3.25094e-05
3.25081e-05
3.25078e-05
3.25073e-05
3.25072e-05
3.27337e-05
3.27334e-05
3.27252e-05
3.27218e-05
3.27159e-05
3.27131e-05
3.2708e-05
3.27055e-05
3.27014e-05
3.26992e-05
3.26958e-05
3.26941e-05
3.26914e-05
3.26902e-05
3.26881e-05
3.26875e-05
3.26862e-05
3.26858e-05
3.26854e-05
3.26853e-05
3.29322e-05
3.29319e-05
3.2924e-05
3.29202e-05
3.29146e-05
3.29115e-05
3.29063e-05
3.2904e-05
3.28993e-05
3.28977e-05
3.28937e-05
3.28925e-05
3.28892e-05
3.28885e-05
3.28861e-05
3.28856e-05
3.28841e-05
3.28839e-05
3.28834e-05
3.28833e-05
3.31581e-05
3.31578e-05
3.31492e-05
3.31458e-05
3.31399e-05
3.31368e-05
3.31317e-05
3.3129e-05
3.31248e-05
3.31225e-05
3.31192e-05
3.31172e-05
3.31147e-05
3.31132e-05
3.31114e-05
3.31105e-05
3.31093e-05
3.31089e-05
3.31085e-05
3.31083e-05
3.34168e-05
3.34166e-05
3.34078e-05
3.34044e-05
3.33981e-05
3.33954e-05
3.33899e-05
3.33876e-05
3.33829e-05
3.33811e-05
3.33771e-05
3.33758e-05
3.33725e-05
3.33717e-05
3.33692e-05
3.33687e-05
3.33672e-05
3.3367e-05
3.33664e-05
3.33663e-05
3.37087e-05
3.37083e-05
3.36998e-05
3.36958e-05
3.36901e-05
3.36866e-05
3.36817e-05
3.36787e-05
3.36745e-05
3.3672e-05
3.36686e-05
3.36666e-05
3.36638e-05
3.36625e-05
3.36604e-05
3.36595e-05
3.36584e-05
3.36579e-05
3.36575e-05
3.36573e-05
3.40155e-05
3.40152e-05
3.40062e-05
3.40026e-05
3.39963e-05
3.39932e-05
3.39878e-05
3.3985e-05
3.39805e-05
3.39782e-05
3.39745e-05
3.39728e-05
3.39696e-05
3.39686e-05
3.39662e-05
3.39655e-05
3.39642e-05
3.39638e-05
3.39633e-05
3.39632e-05
3.42861e-05
3.4286e-05
3.42776e-05
3.42735e-05
3.42679e-05
3.42643e-05
3.42595e-05
3.42563e-05
3.42523e-05
3.42496e-05
3.42462e-05
3.42442e-05
3.42415e-05
3.424e-05
3.4238e-05
3.4237e-05
3.42359e-05
3.42353e-05
3.42349e-05
3.42348e-05
3.44002e-05
3.43999e-05
3.43999e-05
3.43998e-05
3.43997e-05
3.43996e-05
3.43995e-05
3.43995e-05
3.43994e-05
3.43994e-05
3.43993e-05
3.43993e-05
3.43992e-05
3.43993e-05
3.43992e-05
3.43992e-05
3.43992e-05
3.43992e-05
3.43992e-05
3.43992e-05
)
;

boundaryField
{
    movingWall
    {
        type            kqRWallFunction;
        value           nonuniform List<scalar> 
20
(
3.44002e-05
3.43999e-05
3.43999e-05
3.43998e-05
3.43997e-05
3.43996e-05
3.43995e-05
3.43995e-05
3.43994e-05
3.43994e-05
3.43993e-05
3.43993e-05
3.43992e-05
3.43993e-05
3.43992e-05
3.43992e-05
3.43992e-05
3.43992e-05
3.43992e-05
3.43992e-05
)
;
    }
    fixedWalls
    {
        type            kqRWallFunction;
        value           nonuniform List<scalar> 
60
(
1.93923e-05
2.19971e-05
2.5334e-05
2.80349e-05
2.98042e-05
3.08486e-05
3.14464e-05
3.18022e-05
3.20388e-05
3.22226e-05
3.23885e-05
3.2555e-05
3.27337e-05
3.29322e-05
3.31581e-05
3.34168e-05
3.37087e-05
3.40155e-05
3.42861e-05
3.44002e-05
1.93917e-05
2.19759e-05
2.53056e-05
2.79999e-05
2.97644e-05
3.08059e-05
3.14018e-05
3.17565e-05
3.19924e-05
3.21757e-05
3.23411e-05
3.25072e-05
3.26853e-05
3.28833e-05
3.31083e-05
3.33663e-05
3.36573e-05
3.39632e-05
3.42348e-05
3.43992e-05
1.93923e-05
1.93922e-05
1.93921e-05
1.93921e-05
1.93921e-05
1.9392e-05
1.9392e-05
1.93919e-05
1.93919e-05
1.93918e-05
1.93919e-05
1.93918e-05
1.93918e-05
1.93917e-05
1.93918e-05
1.93917e-05
1.93918e-05
1.93917e-05
1.93917e-05
1.93917e-05
)
;
    }
    frontAndBack
    {
        type            empty;
    }
}


// ************************************************************************* //
