/*--------------------------------*- C++ -*----------------------------------*\
| =========                 |                                                 |
| \\      /  F ield         | OpenFOAM: The Open Source CFD Toolbox           |
|  \\    /   O peration     | Version:  2506                                  |
|   \\  /    A nd           | Website:  www.openfoam.com                      |
|    \\/     M anipulation  |                                                 |
\*---------------------------------------------------------------------------*/
FoamFile
{
    version     2.0;
    format      ascii;
    arch        "LSB;label=32;scalar=64";
    class       volScalarField;
    location    "4.5";
    object      Lambda2Field;
}
// * * * * * * * * * * * * * * * * * * * * * * * * * * * * * * * * * * * * * //

dimensions      [0 0 -2 0 0 0 0];

internalField   nonuniform List<scalar> 
400
(
1.38758e-15
-7.81955e-16
-7.46393e-17
-1.52862e-17
-3.54813e-19
-1.73949e-19
8.0594e-21
-2.84699e-21
3.50907e-22
-6.49479e-23
1.12724e-23
-1.34258e-24
5.30209e-25
6.80702e-26
9.15889e-26
5.0239e-26
2.34171e-26
7.92901e-27
0
4.90439e-28
6.14747e-15
3.0884e-16
4.00191e-17
-9.12379e-18
-1.63823e-19
-9.52771e-20
8.52756e-22
-9.86664e-22
7.14735e-23
-1.10548e-23
3.31487e-24
5.68659e-25
4.82988e-25
2.36562e-25
1.20669e-25
4.70198e-26
2.4116e-26
1.04944e-26
4.35435e-27
2.73205e-29
5.38411e-15
1.24436e-15
1.19119e-16
7.49034e-18
2.20012e-19
6.94398e-20
-3.31694e-21
9.66987e-22
-1.01355e-22
2.13184e-23
-1.13239e-24
1.1713e-24
3.13294e-25
1.83618e-25
7.58782e-26
4.72906e-26
2.55753e-26
1.03036e-26
-2.83846e-28
-1.47956e-27
8.32808e-16
1.43402e-16
1.17217e-17
3.40518e-19
1.02048e-19
-1.88835e-20
3.98493e-21
-6.74768e-22
1.15295e-22
-1.58226e-23
4.07996e-24
1.62893e-25
4.16211e-25
1.42882e-25
1.11406e-25
5.34421e-26
2.50413e-26
4.60725e-27
7.34684e-28
5.98955e-28
-9.21081e-16
-2.27348e-16
-2.44245e-17
-1.04469e-18
-1.32288e-19
3.44132e-21
-2.77919e-21
4.46719e-22
-8.54014e-23
1.58988e-23
-1.58117e-24
9.04281e-25
1.77327e-25
1.60808e-25
7.53175e-26
4.34962e-26
8.89408e-27
9.63183e-27
7.60368e-27
4.21485e-27
-2.12441e-15
-5.10257e-16
-5.31954e-17
-2.53681e-18
-1.83311e-19
-1.88115e-20
5.45826e-22
-3.80691e-22
6.07358e-23
-1.0843e-23
2.80857e-24
2.85902e-26
2.74141e-25
1.26292e-25
5.8344e-26
3.87e-26
2.62728e-26
1.10447e-26
3.81525e-29
0
-2.35642e-15
-5.71912e-16
-5.58648e-17
-2.89411e-18
-2.04705e-19
-1.14042e-20
-1.70595e-21
1.47148e-22
-4.93681e-23
1.12582e-23
-1.27935e-24
6.29416e-25
1.59866e-25
1.27682e-25
6.60755e-26
3.77027e-26
6.76988e-27
7.86091e-28
0
0
-2.2946e-15
-5.51109e-16
-5.42418e-17
-2.68349e-18
-1.93708e-19
-1.44413e-20
-2.72528e-22
-1.83403e-22
2.69809e-23
-5.49546e-24
1.55166e-24
9.70133e-26
2.00415e-25
7.16197e-26
4.03877e-26
2.54237e-26
1.88504e-26
5.22065e-27
5.24157e-28
0
-1.93811e-15
-4.64884e-16
-4.42045e-17
-2.31437e-18
-1.51932e-19
-1.06153e-20
-8.20572e-22
1.41574e-23
-1.72387e-23
3.78946e-24
-2.28197e-25
4.51545e-25
1.41865e-25
8.58269e-26
2.43001e-26
2.03147e-26
0
7.34684e-28
7.22169e-27
-2.87848e-27
-1.54749e-15
-3.66751e-16
-3.48981e-17
-1.75871e-18
-1.22584e-19
-8.05786e-21
-4.81409e-22
-5.8299e-23
3.97787e-24
-3.47459e-25
7.326e-25
2.22907e-25
1.43799e-25
9.31491e-26
5.54808e-26
2.20947e-26
1.34282e-26
4.15741e-27
-1.96362e-27
0
-1.13747e-15
-2.66595e-16
-2.49202e-17
-1.29627e-18
-7.95697e-20
-6.97046e-21
-1.99167e-22
-5.64136e-23
8.00071e-25
6.7299e-25
4.17416e-25
2.16601e-25
1.27846e-25
6.98211e-26
2.14691e-26
1.9194e-26
1.34007e-26
2.99591e-27
5.61127e-28
5.57575e-30
-7.99881e-16
-1.85721e-16
-1.71696e-17
-8.70773e-19
-5.9805e-20
-3.24812e-21
-5.16625e-22
3.62031e-23
-1.57824e-23
2.93386e-24
2.18588e-27
2.78439e-25
1.18321e-25
5.95094e-26
3.66278e-26
6.61216e-27
1.29192e-26
1.47277e-27
2.71685e-27
0
-5.60876e-16
-1.27852e-16
-1.20382e-17
-5.8766e-19
-3.77855e-20
-4.05628e-21
2.49913e-22
-1.16154e-22
2.33406e-23
-5.36811e-24
1.30846e-24
5.13687e-26
1.27827e-25
5.02068e-26
3.5851e-26
6.4662e-27
5.57488e-27
4.18692e-27
7.34684e-28
3.67161e-28
-3.69571e-16
-8.56642e-17
-7.29911e-18
-4.09397e-19
-2.84955e-20
8.41827e-22
-7.17025e-22
1.49267e-22
-2.82405e-23
5.85618e-24
-7.7714e-25
2.84392e-25
6.89976e-26
5.59949e-26
2.66234e-26
7.91859e-27
3.07192e-27
2.95582e-27
1.95162e-27
4.00623e-29
-3.50203e-16
-7.85142e-17
-7.80179e-18
-3.74416e-19
-1.44279e-20
-5.52686e-21
8.98268e-22
-1.98578e-22
4.03557e-23
-6.36586e-24
1.66046e-24
-4.7222e-26
1.43344e-25
3.82507e-26
1.36016e-26
1.43801e-26
2.93874e-27
3.3255e-28
-2.10772e-27
-2.88672e-28
-2.14117e-16
-5.18344e-17
-3.80136e-18
-1.64222e-19
-3.69559e-20
6.71793e-21
-1.58587e-21
3.21328e-22
-5.58927e-23
1.0715e-23
-1.15294e-24
4.04476e-25
4.01598e-26
4.70997e-26
1.55173e-26
6.73263e-27
1.42643e-27
1.47422e-27
3.27279e-27
0
-5.02544e-16
-1.15517e-16
-1.12644e-17
-7.60895e-19
1.59188e-20
-1.67192e-20
2.21869e-21
-4.37853e-22
7.03174e-23
-1.03808e-23
2.32417e-24
-1.21342e-25
1.33703e-25
4.4175e-26
2.64554e-26
5.69618e-27
3.94678e-27
3.41191e-27
1.19434e-27
0
-8.97464e-17
-4.59134e-17
-1.52731e-18
1.03123e-18
-9.71533e-20
2.68472e-20
-2.82034e-21
5.18273e-22
-6.35372e-23
1.12141e-23
-1.28421e-24
4.4715e-25
3.98851e-26
3.85067e-26
2.04062e-26
3.94908e-27
1.10191e-27
0
0
0
-2.12853e-15
-1.60178e-15
-1.51307e-16
-1.62957e-17
-9.35261e-19
-1.14933e-19
-3.50607e-21
-8.90279e-22
2.39592e-23
-9.86678e-24
1.51135e-24
2.61692e-26
1.04678e-25
3.73368e-26
1.61997e-26
4.12212e-27
3.55874e-27
1.39386e-27
1.15748e-27
5.1818e-28
-2.6621e-15
-1.68476e-15
-1.67818e-16
-1.7417e-17
-8.99431e-19
-1.45362e-19
0
-1.69134e-21
1.38482e-22
-3.00648e-23
4.49432e-24
-5.50463e-25
1.58632e-25
0
1.07722e-26
3.80285e-27
9.75034e-28
1.07133e-27
1.83794e-28
0
)
;

boundaryField
{
    movingWall
    {
        type            calculated;
        value           nonuniform List<scalar> 
20
(
0
0
0
0
0
0
0
0
2.72458e-22
0
9.73214e-24
-1.58254e-24
2.65594e-25
-4.81952e-26
4.60051e-27
0
-8.17142e-28
0
0
0
)
;
    }
    fixedWalls
    {
        type            calculated;
        value           nonuniform List<scalar> 
60
(
7.2782e-15
3.22295e-14
2.80947e-14
4.16867e-15
-3.90039e-15
-1.0494e-14
-1.19094e-14
-1.1799e-14
-1.00352e-14
-8.07308e-15
-5.95116e-15
-4.20665e-15
-2.95503e-15
-1.96089e-15
-1.85513e-15
-1.1486e-15
-2.65379e-15
-4.97032e-16
-1.1166e-14
-1.393e-14
4.90439e-28
2.73205e-29
0
5.98955e-28
4.4187e-27
0
0
0
-1.22828e-27
3.50816e-29
5.57575e-30
1.68183e-28
0
4.00623e-29
4.65971e-28
3.31782e-28
0
0
6.76127e-28
0
0
0
0
0
0
0
5.48839e-21
0
7.02856e-22
-3.54334e-23
2.25243e-23
-3.87935e-24
6.5208e-25
-8.5921e-26
5.83645e-26
3.83426e-26
1.56283e-26
3.91943e-27
0
2.73912e-28
)
;
    }
    frontAndBack
    {
        type            empty;
    }
}


// ************************************************************************* //
