/*--------------------------------*- C++ -*----------------------------------*\
| =========                 |                                                 |
| \\      /  F ield         | OpenFOAM: The Open Source CFD Toolbox           |
|  \\    /   O peration     | Version:  2506                                  |
|   \\  /    A nd           | Website:  www.openfoam.com                      |
|    \\/     M anipulation  |                                                 |
\*---------------------------------------------------------------------------*/
FoamFile
{
    version     2.0;
    format      ascii;
    arch        "LSB;label=32;scalar=64";
    class       volVectorField;
    location    "4.5";
    object      LambVectorField;
}
// * * * * * * * * * * * * * * * * * * * * * * * * * * * * * * * * * * * * * //

dimensions      [0 1 -2 0 0 0 0];

internalField   nonuniform List<vector> 
400
(
(-1.35279e-14 -1.015e-06 0)
(-3.98144e-15 1.25821e-06 -0)
(-2.2477e-16 -2.9885e-07 0)
(-1.26981e-17 7.11787e-08 -0)
(-7.16718e-19 -1.68588e-08 0)
(-4.07349e-20 4.05348e-09 -0)
(-2.27492e-21 -9.40675e-10 0)
(-1.34104e-22 2.40076e-10 -0)
(-6.69872e-24 -4.67154e-11 0)
(-5.00193e-25 1.83927e-11 -0)
(6.82951e-27 6.07727e-13 0)
(2.03941e-27 3.34954e-12 0)
(3.49771e-27 1.63676e-12 0)
(1.32379e-27 1.26513e-12 0)
(6.9333e-28 7.97094e-13 0)
(2.93392e-28 4.41296e-13 0)
(1.60097e-28 3.06337e-13 0)
(4.48344e-29 1.43708e-13 0)
(1.28808e-29 7.58869e-14 0)
(2.52273e-30 2.64952e-14 0)
(-1.34573e-14 1.00985e-06 -0)
(-3.98189e-15 -1.25731e-06 0)
(-2.24165e-16 2.98705e-07 -0)
(-1.26743e-17 -7.09617e-08 0)
(-7.10315e-19 1.68585e-08 -0)
(-4.05345e-20 -4.00477e-09 0)
(-2.21383e-21 9.51633e-10 -0)
(-1.34709e-22 -2.25912e-10 0)
(-6.05548e-24 5.3827e-11 -0)
(-5.81034e-25 -1.26796e-11 0)
(7.43949e-27 3.13733e-12 0)
(-5.53149e-27 -6.31536e-13 0)
(1.1934e-27 2.58263e-13 0)
(4.53633e-29 1.21399e-14 0)
(2.03097e-28 7.80505e-14 0)
(2.44983e-28 1.30867e-13 0)
(6.70503e-29 5.18379e-14 0)
(7.07522e-29 8.71852e-14 0)
(1.74639e-29 4.14221e-14 0)
(6.9163e-30 5.47852e-14 0)
(-1.34145e-14 -1.00877e-06 0)
(-3.95872e-15 1.25383e-06 -0)
(-2.23067e-16 -2.97568e-07 0)
(-1.25446e-17 7.06182e-08 -0)
(-7.10493e-19 -1.67586e-08 0)
(-3.94629e-20 3.97741e-09 -0)
(-2.31007e-21 -9.43716e-10 0)
(-1.16822e-22 2.24135e-10 -0)
(-8.71274e-24 -5.30597e-11 0)
(-1.4283e-25 1.27354e-11 -0)
(-6.47903e-26 -2.91645e-12 0)
(6.8475e-27 7.84036e-13 0)
(-4.55936e-28 -5.60054e-14 0)
(1.21217e-27 2.20435e-13 0)
(6.37196e-28 1.57752e-13 0)
(4.22524e-28 1.48919e-13 0)
(1.92516e-28 9.58772e-14 0)
(1.42657e-28 1.06747e-13 0)
(9.77348e-29 1.45997e-13 0)
(1.60457e-29 1.08796e-13 0)
(-1.34146e-14 1.01111e-06 -0)
(-3.94131e-15 -1.25192e-06 0)
(-2.21819e-16 2.97047e-07 -0)
(-1.24986e-17 -7.04777e-08 0)
(-7.01041e-19 1.67218e-08 -0)
(-3.99274e-20 -3.96736e-09 0)
(-2.16613e-21 9.41392e-10 -0)
(-1.35725e-22 -2.23222e-10 0)
(-5.29764e-24 5.31504e-11 -0)
(-6.92103e-25 -1.24365e-11 0)
(3.14752e-26 3.13014e-12 0)
(-7.93172e-27 -5.43576e-13 0)
(2.41561e-27 2.68817e-13 0)
(6.48776e-28 9.2357e-14 0)
(4.10791e-28 8.08494e-14 0)
(4.19838e-28 1.11165e-13 0)
(3.48972e-28 1.335e-13 0)
(2.32675e-28 1.42872e-13 0)
(1.21353e-28 1.32734e-13 0)
(3.6611e-29 1.21547e-13 0)
(-1.33597e-14 -1.00998e-06 0)
(-3.91746e-15 1.24856e-06 -0)
(-2.20502e-16 -2.96203e-07 0)
(-1.23995e-17 7.02668e-08 -0)
(-6.99527e-19 -1.66688e-08 0)
(-3.90055e-20 3.95449e-09 -0)
(-2.2629e-21 -9.37846e-10 0)
(-1.14911e-22 2.22789e-10 -0)
(-8.68197e-24 -5.2555e-11 0)
(-9.0138e-26 1.28076e-11 -0)
(-7.00825e-26 -2.7229e-12 0)
(1.08472e-26 9.20147e-13 0)
(1.40716e-28 1.33082e-14 0)
(1.1294e-27 1.48807e-13 0)
(6.82146e-28 1.16948e-13 0)
(6.80062e-28 1.59946e-13 0)
(6.29153e-28 2.18592e-13 0)
(2.21603e-28 1.23466e-13 0)
(9.47832e-29 8.60531e-14 0)
(4.79535e-29 1.22262e-13 0)
(-1.33029e-14 1.00845e-06 -0)
(-3.89613e-15 -1.24538e-06 0)
(-2.19217e-16 2.95426e-07 -0)
(-1.2338e-17 -7.00762e-08 0)
(-6.9282e-19 1.66229e-08 -0)
(-3.92509e-20 -3.94267e-09 0)
(-2.15358e-21 9.35575e-10 -0)
(-1.31652e-22 -2.21649e-10 0)
(-5.4316e-24 5.28699e-11 -0)
(-6.64167e-25 -1.22652e-11 0)
(3.24792e-26 3.197e-12 0)
(-8.10534e-27 -5.356e-13 0)
(3.32682e-27 3.38669e-13 0)
(5.01115e-28 6.30191e-14 0)
(1.16505e-27 1.96122e-13 0)
(6.53958e-28 1.49844e-13 0)
(4.05301e-28 1.31304e-13 0)
(2.82355e-28 1.43544e-13 0)
(1.70468e-28 1.53688e-13 0)
(6.62137e-29 1.53933e-13 0)
(-1.32314e-14 -1.00587e-06 0)
(-3.87402e-15 1.24191e-06 -0)
(-2.1799e-16 -2.94591e-07 0)
(-1.22591e-17 6.9876e-08 -0)
(-6.90499e-19 -1.6574e-08 0)
(-3.86454e-20 3.93158e-09 -0)
(-2.21607e-21 -9.32348e-10 0)
(-1.1616e-22 2.2138e-10 -0)
(-8.1923e-24 -5.23269e-11 0)
(-1.40098e-25 1.25117e-11 -0)
(-6.71118e-26 -2.87894e-12 0)
(9.52264e-27 8.80435e-13 0)
(-5.9545e-28 -5.85492e-14 0)
(1.54984e-27 2.11278e-13 0)
(6.94737e-28 1.23666e-13 0)
(5.11123e-28 1.21651e-13 0)
(5.95676e-28 1.95554e-13 0)
(3.96257e-28 2.0064e-13 0)
(1.64586e-28 1.58304e-13 0)
(5.61074e-29 1.4316e-13 0)
(-1.31661e-14 1.00335e-06 -0)
(-3.85519e-15 -1.23886e-06 0)
(-2.16906e-16 2.93866e-07 -0)
(-1.22043e-17 -6.9703e-08 0)
(-6.85887e-19 1.65334e-08 -0)
(-3.87327e-20 -3.92148e-09 0)
(-2.14705e-21 9.3031e-10 -0)
(-1.27335e-22 -2.20496e-10 0)
(-5.84466e-24 5.24967e-11 -0)
(-5.83485e-25 -1.22461e-11 0)
(1.88923e-26 3.16064e-12 0)
(-6.69905e-27 -5.35217e-13 0)
(2.97716e-27 3.68599e-13 0)
(1.36028e-27 2.04181e-13 0)
(9.99316e-28 2.01844e-13 0)
(5.74676e-28 1.50026e-13 0)
(4.22471e-28 1.60177e-13 0)
(2.33429e-28 1.38398e-13 0)
(1.31059e-28 1.33394e-13 0)
(4.70931e-29 1.3352e-13 0)
(-1.31006e-14 -1.00067e-06 0)
(-3.83732e-15 1.23592e-06 -0)
(-2.15916e-16 -2.93169e-07 0)
(-1.21451e-17 6.95387e-08 -0)
(-6.83635e-19 -1.64942e-08 0)
(-3.83632e-20 3.91255e-09 -0)
(-2.18005e-21 -9.27862e-10 0)
(-1.17974e-22 2.20307e-10 -0)
(-7.59466e-24 -5.20434e-11 0)
(-2.33784e-25 1.2578e-11 -0)
(-4.91007e-26 -2.77256e-12 0)
(5.59221e-27 8.34718e-13 0)
(-3.52069e-29 -4.89397e-15 0)
(1.12211e-27 2.08059e-13 0)
(5.85718e-28 1.36208e-13 0)
(6.77159e-28 2.1043e-13 0)
(5.22776e-28 2.38071e-13 0)
(1.91064e-28 1.38515e-13 0)
(4.3949e-29 5.42086e-14 0)
(4.06467e-29 1.37698e-13 0)
(-1.30437e-14 9.98288e-07 -0)
(-3.82222e-15 -1.2334e-06 0)
(-2.15064e-16 2.92577e-07 -0)
(-1.21004e-17 -6.93989e-08 0)
(-6.80507e-19 1.64616e-08 -0)
(-3.83467e-20 -3.90456e-09 0)
(-2.1441e-21 9.26381e-10 -0)
(-1.23551e-22 -2.19599e-10 0)
(-6.33403e-24 5.22566e-11 -0)
(-4.81773e-25 -1.21929e-11 0)
(-2.90049e-28 3.06398e-12 -0)
(-3.81732e-27 -4.90112e-13 0)
(1.39708e-27 3.08038e-13 0)
(2.24195e-28 5.3813e-14 0)
(3.88102e-28 1.21886e-13 0)
(2.65583e-28 1.10419e-13 0)
(1.2938e-28 7.15245e-14 0)
(1.36946e-28 1.19304e-13 0)
(8.90779e-29 1.44643e-13 0)
(2.09309e-29 8.59401e-14 0)
(-1.29911e-14 -9.96059e-07 0)
(-3.80839e-15 1.23109e-06 -0)
(-2.14296e-16 -2.92032e-07 0)
(-1.20567e-17 6.92713e-08 -0)
(-6.78416e-19 -1.64312e-08 0)
(-3.81531e-20 3.8979e-09 -0)
(-2.15161e-21 -9.24408e-10 0)
(-1.19897e-22 2.19503e-10 -0)
(-7.02788e-24 -5.1965e-11 0)
(-3.29024e-25 1.23831e-11 -0)
(-3.24281e-26 -2.84175e-12 0)
(1.51093e-27 8.17984e-13 0)
(-4.81936e-29 -1.37596e-14 0)
(4.08504e-28 1.61666e-13 0)
(3.15057e-28 1.46067e-13 0)
(1.92881e-28 1.1993e-13 0)
(1.07348e-28 8.73677e-14 0)
(7.46231e-29 1.01584e-13 0)
(2.4129e-29 4.98637e-14 0)
(1.69856e-29 7.19858e-14 0)
(-1.29451e-14 9.94118e-07 -0)
(-3.79627e-15 -1.22906e-06 0)
(-2.1362e-16 2.91556e-07 -0)
(-1.20193e-17 -6.9159e-08 0)
(-6.7635e-19 1.64053e-08 -0)
(-3.80425e-20 -3.89144e-09 0)
(-2.14333e-21 9.23248e-10 -0)
(-1.20211e-22 -2.18905e-10 0)
(-6.81728e-24 5.21091e-11 -0)
(-3.83142e-25 -1.22374e-11 0)
(-1.95818e-26 2.98711e-12 -0)
(-1.90451e-27 -6.81832e-13 0)
(1.61624e-28 2.00779e-13 0)
(-4.65446e-29 -3.50608e-14 0)
(4.57326e-29 3.95749e-14 0)
(4.69922e-29 5.04323e-14 0)
(-3.25937e-30 -5.00462e-15 0)
(5.51678e-32 1.25457e-16 0)
(-1.22143e-29 -3.22306e-14 0)
(1.31723e-29 5.98906e-14 0)
(-1.29045e-14 -9.92431e-07 0)
(-3.78531e-15 1.22724e-06 -0)
(-2.13004e-16 -2.91127e-07 0)
(-1.19862e-17 6.90583e-08 -0)
(-6.74205e-19 -1.63814e-08 0)
(-3.79905e-20 3.88596e-09 -0)
(-2.12711e-21 -9.21743e-10 0)
(-1.21676e-22 2.1876e-10 -0)
(-6.49689e-24 -5.1758e-11 0)
(-4.29661e-25 1.25296e-11 -0)
(-1.43015e-26 -2.80022e-12 0)
(-2.225e-27 7.32655e-13 -0)
(7.71566e-30 -1.51726e-13 -0)
(-1.29902e-29 7.90247e-14 -0)
(8.59493e-30 3.53552e-14 0)
(1.67986e-29 5.69024e-14 0)
(1.53759e-29 7.11256e-14 0)
(1.5485e-30 1.22835e-14 0)
(1.8473e-31 1.97903e-15 0)
(2.12139e-30 1.99617e-14 0)
(-1.28667e-14 9.90874e-07 -0)
(-3.77493e-15 -1.22552e-06 0)
(-2.12431e-16 2.90722e-07 -0)
(-1.19516e-17 -6.89627e-08 0)
(-6.72949e-19 1.63589e-08 -0)
(-3.77715e-20 -3.88047e-09 0)
(-2.14467e-21 9.20548e-10 -0)
(-1.17065e-22 -2.18348e-10 0)
(-7.2222e-24 5.17641e-11 -0)
(-2.98075e-25 -1.23227e-11 0)
(-3.49536e-26 2.92306e-12 -0)
(9.42424e-28 -7.55875e-13 -0)
(-3.15013e-28 1.41217e-13 -0)
(2.46815e-29 -2.39007e-14 -0)
(-7.87938e-31 1.23805e-15 -0)
(4.89161e-30 -2.10937e-14 -0)
(-7.99323e-30 5.17532e-14 -0)
(-4.97198e-30 2.3981e-14 -0)
(-3.77568e-30 3.06446e-14 -0)
(-2.68754e-31 -9.48838e-15 0)
(-1.2835e-14 -9.8964e-07 0)
(-3.76576e-15 1.22402e-06 -0)
(-2.11899e-16 -2.90367e-07 0)
(-1.19264e-17 6.88786e-08 -0)
(-6.7039e-19 -1.63389e-08 0)
(-3.78682e-20 3.87575e-09 -0)
(-2.10284e-21 -9.19459e-10 0)
(-1.23396e-22 2.17943e-10 -0)
(-6.05633e-24 -5.1837e-11 0)
(-4.89592e-25 1.21711e-11 -0)
(-2.40323e-27 -2.94984e-12 0)
(-4.25226e-27 6.9488e-13 -0)
(3.6288e-28 -1.39011e-13 -0)
(-3.85429e-29 1.9092e-14 -0)
(5.85359e-29 -4.98151e-14 -0)
(-2.60171e-29 3.67735e-14 -0)
(1.36537e-29 -2.97729e-14 -0)
(2.30842e-29 -5.63349e-14 -0)
(1.65441e-29 -9.94846e-14 -0)
(-1.69493e-30 -3.9437e-14 0)
(-1.2801e-14 9.88261e-07 -0)
(-3.75617e-15 -1.22245e-06 0)
(-2.11388e-16 2.89994e-07 -0)
(-1.18899e-17 -6.87898e-08 0)
(-6.70095e-19 1.63179e-08 -0)
(-3.75043e-20 -3.87088e-09 0)
(-2.14748e-21 9.18122e-10 -0)
(-1.14343e-22 -2.17821e-10 0)
(-7.55126e-24 5.16703e-11 -0)
(-2.37688e-25 -1.22821e-11 0)
(-4.26098e-26 2.80508e-12 -0)
(2.71161e-27 -7.64154e-13 -0)
(-5.69786e-28 1.4156e-13 -0)
(1.23118e-28 -5.46316e-14 -0)
(1.58826e-29 -1.00436e-14 -0)
(1.58379e-30 -1.4816e-15 -0)
(1.92276e-29 -2.5521e-14 -0)
(9.38719e-30 -1.72967e-14 -0)
(-1.19361e-30 3.85801e-15 -0)
(1.36619e-30 -3.48577e-14 -0)
(-1.27779e-14 -9.87517e-07 0)
(-3.74856e-15 1.22124e-06 -0)
(-2.10903e-16 -2.89706e-07 0)
(-1.18745e-17 6.8721e-08 -0)
(-6.6661e-19 -1.63014e-08 0)
(-3.7777e-20 3.86686e-09 -0)
(-2.08001e-21 -9.17305e-10 0)
(-1.24517e-22 2.17593e-10 -0)
(-5.77652e-24 -5.16158e-11 0)
(-5.2192e-25 1.2193e-11 -0)
(2.33279e-27 -2.91289e-12 -0)
(-5.30629e-27 7.39994e-13 -0)
(4.99205e-28 -1.50278e-13 -0)
(-2.90327e-28 1.08074e-13 -0)
(7.00245e-32 -4.13829e-17 -0)
(4.61965e-29 -4.35953e-14 -0)
(-2.34056e-29 3.27783e-14 -0)
(-4.41927e-29 7.69509e-14 -0)
(6.55264e-30 -1.64077e-14 -0)
(7.49483e-30 -5.38535e-14 -0)
(-1.27422e-14 9.8593e-07 -0)
(-3.7392e-15 -1.21969e-06 0)
(-2.10495e-16 2.89336e-07 -0)
(-1.18319e-17 -6.86329e-08 0)
(-6.68003e-19 1.62801e-08 -0)
(-3.72737e-20 -3.86188e-09 0)
(-2.1468e-21 9.16062e-10 -0)
(-1.13464e-22 -2.17377e-10 0)
(-7.52023e-24 5.14537e-11 -0)
(-2.48767e-25 -1.23344e-11 0)
(-4.21797e-26 2.92732e-12 -0)
(2.14687e-27 -6.83404e-13 -0)
(-4.44583e-28 1.17606e-13 -0)
(2.66147e-28 -1.23842e-13 -0)
(2.83423e-29 -1.94439e-14 -0)
(4.98982e-29 -5.73248e-14 -0)
(8.30985e-30 -1.35483e-14 -0)
(1.58937e-29 -3.426e-14 -0)
(1.68326e-29 -6.21702e-14 -0)
(4.3494e-30 -3.84013e-14 -0)
(-1.27496e-14 -9.87232e-07 0)
(-3.73838e-15 1.22017e-06 -0)
(-2.10288e-16 -2.89668e-07 0)
(-1.18534e-17 6.87631e-08 -0)
(-6.64537e-19 -1.63235e-08 0)
(-3.76702e-20 3.87504e-09 -0)
(-2.07807e-21 -9.19907e-10 0)
(-1.22468e-22 2.18433e-10 -0)
(-6.03588e-24 -5.18474e-11 0)
(-4.67501e-25 1.23489e-11 -0)
(-6.21081e-27 -2.89855e-12 0)
(-3.42251e-27 6.7407e-13 -0)
(3.6221e-28 -1.91902e-13 -0)
(-1.22478e-29 7.99437e-15 -0)
(2.98342e-29 -3.37792e-14 -0)
(-2.58627e-29 3.9657e-14 -0)
(-2.17382e-29 4.65854e-14 -0)
(1.02988e-29 -3.37818e-14 -0)
(-3.67746e-31 2.85489e-15 -0)
(-4.9812e-31 7.98758e-15 -0)
(-1.27325e-14 9.86865e-07 -0)
(-3.73031e-15 -1.21891e-06 0)
(-2.10295e-16 2.89388e-07 -0)
(-1.18614e-17 -6.88276e-08 0)
(-6.68879e-19 1.63211e-08 -0)
(-3.78807e-20 -3.90447e-09 0)
(-2.12664e-21 9.16055e-10 -0)
(-1.22785e-22 -2.26477e-10 0)
(-6.57281e-24 4.87541e-11 -0)
(-4.25482e-25 -1.50244e-11 0)
(-1.23927e-26 1.34154e-12 -0)
(-9.40011e-28 -1.74609e-12 0)
(6.2768e-28 -4.96787e-13 -0)
(2.25735e-28 -4.94069e-13 -0)
(1.03388e-28 -2.66088e-13 -0)
(4.4195e-29 -1.87693e-13 -0)
(2.06905e-29 -1.50015e-13 -0)
(5.73229e-30 -6.32921e-14 -0)
(1.49512e-30 -3.17415e-14 -0)
(1.60179e-30 -3.62358e-14 -0)
)
;

boundaryField
{
    movingWall
    {
        type            calculated;
        value           nonuniform List<vector> 
20
(
(0 9.90314e-07 -0)
(0 -1.22236e-06 -0)
(0 2.90818e-07 -0)
(0 -6.95004e-08 -0)
(0 1.6494e-08 -0)
(0 -3.9919e-09 -0)
(0 9.26809e-10 -0)
(0 -2.40032e-10 -0)
(0 4.63651e-11 -0)
(0 -1.85086e-11 -0)
(0 -4.19333e-13 -0)
(0 -3.01786e-12 -0)
(0 -1.32156e-12 -0)
(0 -1.02008e-12 -0)
(0 -6.43867e-13 -0)
(0 -4.24743e-13 -0)
(0 -2.80943e-13 -0)
(0 -1.86718e-13 -0)
(0 -9.34543e-14 -0)
(0 -5.35397e-14 -0)
)
;
    }
    fixedWalls
    {
        type            calculated;
        value           nonuniform List<vector> 
60
(
(0 -5.32984e-06 -0)
(0 5.32435e-06 -0)
(0 -5.31385e-06 -0)
(0 5.30606e-06 -0)
(0 -5.29204e-06 -0)
(0 5.27871e-06 -0)
(0 -5.26406e-06 -0)
(0 5.25117e-06 -0)
(0 -5.2387e-06 -0)
(0 5.22799e-06 -0)
(0 -5.21815e-06 -0)
(0 5.20952e-06 -0)
(0 -5.20176e-06 -0)
(0 5.19445e-06 -0)
(0 -5.18809e-06 -0)
(0 5.18143e-06 -0)
(0 -5.1763e-06 -0)
(0 5.16971e-06 -0)
(0 -5.16796e-06 -0)
(0 5.16349e-06 -0)
(0 3.80859e-14 -0)
(0 5.04975e-14 -0)
(0 8.60985e-14 -0)
(0 1.20484e-13 -0)
(0 1.29783e-13 -0)
(0 1.72058e-13 -0)
(0 1.56768e-13 -0)
(0 1.41082e-13 -0)
(0 1.4518e-13 -0)
(0 9.74208e-14 -0)
(0 9.43833e-14 -0)
(0 8.79756e-14 -0)
(0 4.25092e-14 -0)
(0 1.13298e-14 -0)
(0 -9.91376e-15 -0)
(0 -1.56773e-14 -0)
(0 -5.56683e-14 -0)
(0 -4.53047e-14 -0)
(0 2.16036e-15 -0)
(0 -4.47869e-14 -0)
(0 -1.02416e-06 -0)
(0 1.26297e-06 -0)
(0 -3.0062e-07 -0)
(0 7.2009e-08 -0)
(0 -1.70315e-08 -0)
(0 4.16449e-09 -0)
(0 -9.44281e-10 -0)
(0 2.60185e-10 -0)
(0 -4.04383e-11 -0)
(0 2.48508e-11 -0)
(0 4.36943e-12 -0)
(0 6.10593e-12 -0)
(0 3.50896e-12 -0)
(0 2.48039e-12 -0)
(0 1.68128e-12 -0)
(0 9.67308e-13 -0)
(0 6.12602e-13 -0)
(0 2.57333e-13 -0)
(0 1.54904e-13 -0)
(0 7.09041e-14 -0)
)
;
    }
    frontAndBack
    {
        type            empty;
    }
}


// ************************************************************************* //
