/*--------------------------------*- C++ -*----------------------------------*\
| =========                 |                                                 |
| \\      /  F ield         | OpenFOAM: The Open Source CFD Toolbox           |
|  \\    /   O peration     | Version:  2506                                  |
|   \\  /    A nd           | Website:  www.openfoam.com                      |
|    \\/     M anipulation  |                                                 |
\*---------------------------------------------------------------------------*/
FoamFile
{
    version     2.0;
    format      ascii;
    arch        "LSB;label=32;scalar=64";
    class       volScalarField;
    location    "4.5";
    object      magSqrP;
}
// * * * * * * * * * * * * * * * * * * * * * * * * * * * * * * * * * * * * * //

dimensions      [0 4 -4 0 0 0 0];

internalField   nonuniform List<scalar> 
400
(
2.07081e-33
0
2.88609e-24
8.27167e-27
1.44244e-25
1.47597e-26
1.51254e-26
6.13373e-27
4.3193e-27
2.7914e-27
2.10229e-27
1.61757e-27
1.33851e-27
1.15098e-27
1.02038e-27
9.38562e-28
8.81033e-28
8.54545e-28
8.32312e-28
8.13027e-28
6.78186e-27
1.91195e-24
2.90511e-26
2.54532e-26
1.85598e-26
1.17492e-26
8.00338e-27
4.96766e-27
3.40445e-27
2.4291e-27
1.86619e-27
1.48566e-27
1.25027e-27
1.10606e-27
9.93475e-28
9.15576e-28
8.61595e-28
8.38819e-28
8.15146e-28
7.93979e-28
0
0
0
0
9.06577e-27
2.30267e-27
4.0036e-27
2.72398e-27
2.31321e-27
1.81845e-27
1.51204e-27
1.27336e-27
1.11203e-27
1.00678e-27
9.24989e-28
8.74214e-28
8.36138e-28
8.07197e-28
7.86449e-28
7.84792e-28
1.96578e-25
2.7531e-23
0
2.9459e-26
0
8.64919e-28
8.47976e-28
1.37653e-27
1.31096e-27
1.24063e-27
1.13987e-27
1.04173e-27
9.48035e-28
8.92104e-28
8.42635e-28
8.12641e-28
7.87565e-28
7.59499e-28
7.52107e-28
7.5892e-28
0
0
0
0
1.6723e-27
0
4.41084e-28
4.90145e-28
7.1695e-28
7.89849e-28
8.19657e-28
8.09923e-28
7.91833e-28
7.74025e-28
7.55558e-28
7.3871e-28
7.24836e-28
7.19954e-28
7.15488e-28
7.2547e-28
6.53643e-25
2.15877e-23
0
1.6814e-26
0
0
3.75501e-30
2.01665e-28
3.40985e-28
4.88369e-28
5.71464e-28
6.2389e-28
6.43551e-28
6.60159e-28
6.6273e-28
6.64301e-28
6.71309e-28
6.80504e-28
6.76377e-28
6.88218e-28
0
0
0
0
2.21938e-28
0
5.09741e-30
4.02968e-29
1.68363e-28
2.90917e-28
3.9313e-28
4.72482e-28
5.19421e-28
5.58084e-28
5.77415e-28
6.03989e-28
6.19813e-28
6.37639e-28
6.41565e-28
6.49615e-28
9.05385e-25
9.30461e-24
0
4.49315e-27
0
0
0
1.05508e-29
7.54431e-29
1.79744e-28
2.81434e-28
3.65845e-28
4.25111e-28
4.8137e-28
5.1816e-28
5.49204e-28
5.75716e-28
5.89537e-28
6.05672e-28
6.19984e-28
0
0
0
0
0
0
0
1.29077e-32
4.04815e-29
1.18329e-28
2.13673e-28
2.9587e-28
3.6023e-28
4.24203e-28
4.73797e-28
5.01785e-28
5.37169e-28
5.64843e-28
5.77281e-28
5.91853e-28
8.01398e-25
3.11034e-24
0
4.70183e-28
0
0
0
0
2.24838e-29
9.21648e-29
1.74594e-28
2.55814e-28
3.24269e-28
3.86621e-28
4.45399e-28
4.84954e-28
5.15046e-28
5.32466e-28
5.58146e-28
5.78775e-28
0
0
0
0
0
0
0
0
2.02522e-29
7.99437e-29
1.56216e-28
2.39209e-28
3.12136e-28
3.69865e-28
4.29903e-28
4.74078e-28
4.9272e-28
5.09895e-28
5.41705e-28
5.60499e-28
5.75193e-25
1.05727e-24
7.17262e-30
0
0
0
0
0
2.56069e-29
8.65759e-29
1.6462e-28
2.41686e-28
3.15011e-28
3.67268e-28
4.20047e-28
4.65404e-28
4.869e-28
5.03734e-28
5.28263e-28
5.48467e-28
0
0
0
0
0
0
0
8.5353e-31
4.24595e-29
1.10415e-28
1.89655e-28
2.71611e-28
3.30763e-28
3.83169e-28
4.29707e-28
4.71091e-28
4.95564e-28
5.03887e-28
5.21273e-28
5.31486e-28
4.17484e-25
4.44744e-25
1.58212e-30
0
0
0
0
1.53996e-29
7.95494e-29
1.5804e-28
2.38759e-28
3.15722e-28
3.6773e-28
4.14316e-28
4.54151e-28
4.92121e-28
5.09043e-28
5.07017e-28
5.18422e-28
5.37476e-28
0
0
0
0
0
0
5.32106e-30
6.88357e-29
1.59416e-28
2.40018e-28
3.14153e-28
3.78274e-28
4.13769e-28
4.591e-28
4.9414e-28
5.11633e-28
5.15526e-28
5.13633e-28
5.2129e-28
5.37421e-28
3.33355e-25
1.74406e-25
0
0
0
0
8.3182e-29
2.07257e-28
3.0687e-28
3.71689e-28
4.22607e-28
4.57075e-28
4.84935e-28
5.05734e-28
5.24172e-28
5.35261e-28
5.34023e-28
5.3146e-28
5.31695e-28
5.40972e-28
0
0
0
0
1.03735e-29
1.52931e-28
4.22688e-28
5.17392e-28
5.67166e-28
5.6873e-28
5.66332e-28
5.51283e-28
5.48843e-28
5.50126e-28
5.53245e-28
5.57461e-28
5.53549e-28
5.46232e-28
5.5506e-28
5.53913e-28
2.77065e-25
6.80654e-28
2.03021e-28
0
1.00083e-27
9.95648e-28
1.33185e-27
1.07873e-27
9.57788e-28
8.09733e-28
7.23798e-28
6.60747e-28
6.26785e-28
6.03226e-28
5.86929e-28
5.71542e-28
5.63602e-28
5.64523e-28
5.71687e-28
5.78877e-28
0
0
1.95336e-26
1.09286e-28
1.13062e-26
3.60997e-27
3.18444e-27
1.84615e-27
1.4102e-27
1.05206e-27
8.71094e-28
7.55449e-28
6.85593e-28
6.34415e-28
6.05654e-28
5.86297e-28
5.76423e-28
5.75521e-28
5.80113e-28
5.85089e-28
5.93998e-26
0
1.87303e-24
0
7.1435e-26
3.1516e-27
6.21424e-27
2.18665e-27
1.78178e-27
1.18423e-27
9.63824e-28
8.06092e-28
7.24521e-28
6.56884e-28
6.14273e-28
5.94687e-28
5.8372e-28
5.80119e-28
5.81115e-28
5.96348e-28
)
;

boundaryField
{
    movingWall
    {
        type            calculated;
        value           nonuniform List<scalar> 
20
(
5.93998e-26
0
1.87303e-24
0
7.1435e-26
3.1516e-27
6.21424e-27
2.18665e-27
1.78178e-27
1.18423e-27
9.63824e-28
8.06092e-28
7.24521e-28
6.56884e-28
6.14273e-28
5.94687e-28
5.8372e-28
5.80119e-28
5.81115e-28
5.96348e-28
)
;
    }
    fixedWalls
    {
        type            calculated;
        value           nonuniform List<scalar> 
60
(
2.07081e-33
6.78186e-27
0
1.96578e-25
0
6.53643e-25
0
9.05385e-25
0
8.01398e-25
0
5.75193e-25
0
4.17484e-25
0
3.33355e-25
0
2.77065e-25
0
5.93998e-26
8.13027e-28
7.93979e-28
7.84792e-28
7.5892e-28
7.2547e-28
6.88218e-28
6.49615e-28
6.19984e-28
5.91853e-28
5.78775e-28
5.60499e-28
5.48467e-28
5.31486e-28
5.37476e-28
5.37421e-28
5.40972e-28
5.53913e-28
5.78877e-28
5.85089e-28
5.96348e-28
2.07081e-33
0
2.88609e-24
8.27167e-27
1.44244e-25
1.47597e-26
1.51254e-26
6.13373e-27
4.3193e-27
2.7914e-27
2.10229e-27
1.61757e-27
1.33851e-27
1.15098e-27
1.02038e-27
9.38562e-28
8.81033e-28
8.54545e-28
8.32312e-28
8.13027e-28
)
;
    }
    frontAndBack
    {
        type            empty;
    }
}


// ************************************************************************* //
