/*--------------------------------*- C++ -*----------------------------------*\
| =========                 |                                                 |
| \\      /  F ield         | OpenFOAM: The Open Source CFD Toolbox           |
|  \\    /   O peration     | Version:  2506                                  |
|   \\  /    A nd           | Website:  www.openfoam.com                      |
|    \\/     M anipulation  |                                                 |
\*---------------------------------------------------------------------------*/
FoamFile
{
    version     2.0;
    format      ascii;
    arch        "LSB;label=32;scalar=64";
    class       volVectorField;
    location    "4.5";
    object      momentum1:momentum;
}
// * * * * * * * * * * * * * * * * * * * * * * * * * * * * * * * * * * * * * //

dimensions      [1 1 -1 0 0 0 0];

internalField   nonuniform List<vector> 
400
(
(-2.5e-07 3.332e-15 0)
(-2.5e-07 -7.91091e-16 0)
(-2.5e-07 1.88029e-16 0)
(-2.5e-07 -4.45993e-17 0)
(-2.5e-07 1.06282e-17 0)
(-2.5e-07 -2.51234e-18 0)
(-2.5e-07 6.04598e-19 0)
(-2.5e-07 -1.39647e-19 0)
(-2.5e-07 3.58486e-20 0)
(-2.5e-07 -6.7988e-21 0)
(-2.5e-07 2.80945e-21 0)
(-2.5e-07 1.52216e-22 0)
(-2.5e-07 5.34242e-22 0)
(-2.5e-07 2.61592e-22 0)
(-2.5e-07 2.17455e-22 0)
(-2.5e-07 1.66211e-22 0)
(-2.5e-07 1.30654e-22 0)
(-2.5e-07 7.79956e-23 0)
(-2.5e-07 4.24343e-23 0)
(-2.5e-07 2.38037e-23 0)
(-2.5e-07 -3.3315e-15 0)
(-2.5e-07 7.91749e-16 0)
(-2.5e-07 -1.87614e-16 0)
(-2.5e-07 4.46521e-17 0)
(-2.5e-07 -1.05335e-17 0)
(-2.5e-07 2.53039e-18 0)
(-2.5e-07 -5.81588e-19 0)
(-2.5e-07 1.49073e-19 0)
(-2.5e-07 -2.81247e-20 0)
(-2.5e-07 1.1456e-20 0)
(-2.5e-07 5.92821e-22 0)
(-2.5e-07 2.1897e-21 0)
(-2.5e-07 1.15522e-21 0)
(-2.5e-07 9.34176e-22 0)
(-2.5e-07 6.50533e-22 0)
(-2.5e-07 4.67999e-22 0)
(-2.5e-07 3.23365e-22 0)
(-2.5e-07 2.02879e-22 0)
(-2.5e-07 1.05402e-22 0)
(-2.5e-07 3.1561e-23 0)
(-2.5e-07 3.32445e-15 0)
(-2.5e-07 -7.89327e-16 0)
(-2.5e-07 1.87409e-16 0)
(-2.5e-07 -4.44098e-17 0)
(-2.5e-07 1.05989e-17 0)
(-2.5e-07 -2.48044e-18 0)
(-2.5e-07 6.1196e-19 0)
(-2.5e-07 -1.30303e-19 0)
(-2.5e-07 4.10516e-20 0)
(-2.5e-07 -2.80378e-21 0)
(-2.5e-07 5.55387e-21 0)
(-2.5e-07 2.18341e-21 0)
(-2.5e-07 2.03523e-21 0)
(-2.5e-07 1.37475e-21 0)
(-2.5e-07 1.00981e-21 0)
(-2.5e-07 7.0932e-22 0)
(-2.5e-07 5.01986e-22 0)
(-2.5e-07 3.34102e-22 0)
(-2.5e-07 1.67357e-22 0)
(-2.5e-07 3.68709e-23 0)
(-2.5e-07 -3.31678e-15 0)
(-2.5e-07 7.8705e-16 0)
(-2.5e-07 -1.86687e-16 0)
(-2.5e-07 4.43353e-17 0)
(-2.5e-07 -1.0481e-17 0)
(-2.5e-07 2.51599e-18 0)
(-2.5e-07 -5.75248e-19 0)
(-2.5e-07 1.52007e-19 0)
(-2.5e-07 -2.49181e-20 0)
(-2.5e-07 1.39127e-20 0)
(-2.5e-07 2.51388e-21 0)
(-2.5e-07 3.64793e-21 0)
(-2.5e-07 2.24652e-21 0)
(-2.5e-07 1.75616e-21 0)
(-2.5e-07 1.27023e-21 0)
(-2.5e-07 9.44175e-22 0)
(-2.5e-07 6.53508e-22 0)
(-2.5e-07 4.07138e-22 0)
(-2.5e-07 2.28564e-22 0)
(-2.5e-07 7.53024e-23 0)
(-2.5e-07 3.30692e-15 0)
(-2.5e-07 -7.84397e-16 0)
(-2.5e-07 1.86107e-16 0)
(-2.5e-07 -4.41157e-17 0)
(-2.5e-07 1.04915e-17 0)
(-2.5e-07 -2.4659e-18 0)
(-2.5e-07 6.03219e-19 0)
(-2.5e-07 -1.28946e-19 0)
(-2.5e-07 4.12995e-20 0)
(-2.5e-07 -1.75947e-21 0)
(-2.5e-07 6.43454e-21 0)
(-2.5e-07 2.94714e-21 0)
(-2.5e-07 2.6434e-21 0)
(-2.5e-07 1.89742e-21 0)
(-2.5e-07 1.45823e-21 0)
(-2.5e-07 1.06295e-21 0)
(-2.5e-07 7.19553e-22 0)
(-2.5e-07 4.48713e-22 0)
(-2.5e-07 2.75363e-22 0)
(-2.5e-07 9.80548e-23 0)
(-2.5e-07 -3.29784e-15 0)
(-2.5e-07 7.82116e-16 0)
(-2.5e-07 -1.85509e-16 0)
(-2.5e-07 4.40165e-17 0)
(-2.5e-07 -1.04197e-17 0)
(-2.5e-07 2.48885e-18 0)
(-2.5e-07 -5.75471e-19 0)
(-2.5e-07 1.48491e-19 0)
(-2.5e-07 -2.56838e-20 0)
(-2.5e-07 1.35376e-20 0)
(-2.5e-07 2.53982e-21 0)
(-2.5e-07 3.7833e-21 0)
(-2.5e-07 2.45581e-21 0)
(-2.5e-07 1.98795e-21 0)
(-2.5e-07 1.48511e-21 0)
(-2.5e-07 1.09107e-21 0)
(-2.5e-07 7.71683e-22 0)
(-2.5e-07 4.91755e-22 0)
(-2.5e-07 2.77297e-22 0)
(-2.5e-07 1.07536e-22 0)
(-2.5e-07 3.28854e-15 0)
(-2.5e-07 -7.79851e-16 0)
(-2.5e-07 1.84994e-16 0)
(-2.5e-07 -4.38603e-17 0)
(-2.5e-07 1.04154e-17 0)
(-2.5e-07 -2.45737e-18 0)
(-2.5e-07 5.94216e-19 0)
(-2.5e-07 -1.31177e-19 0)
(-2.5e-07 3.91401e-20 0)
(-2.5e-07 -2.79933e-21 0)
(-2.5e-07 5.82781e-21 0)
(-2.5e-07 2.70396e-21 0)
(-2.5e-07 2.54252e-21 0)
(-2.5e-07 1.83389e-21 0)
(-2.5e-07 1.40446e-21 0)
(-2.5e-07 1.05039e-21 0)
(-2.5e-07 7.61522e-22 0)
(-2.5e-07 4.9374e-22 0)
(-2.5e-07 2.59921e-22 0)
(-2.5e-07 9.79801e-23 0)
(-2.5e-07 -3.28053e-15 0)
(-2.5e-07 7.7797e-16 0)
(-2.5e-07 -1.84528e-16 0)
(-2.5e-07 4.37726e-17 0)
(-2.5e-07 -1.03712e-17 0)
(-2.5e-07 2.46927e-18 0)
(-2.5e-07 -5.76972e-19 0)
(-2.5e-07 1.44373e-19 0)
(-2.5e-07 -2.78335e-20 0)
(-2.5e-07 1.19116e-20 0)
(-2.5e-07 1.49435e-21 0)
(-2.5e-07 3.12913e-21 0)
(-2.5e-07 2.01924e-21 0)
(-2.5e-07 1.66553e-21 0)
(-2.5e-07 1.23773e-21 0)
(-2.5e-07 9.5763e-22 0)
(-2.5e-07 6.59381e-22 0)
(-2.5e-07 4.21662e-22 0)
(-2.5e-07 2.45624e-22 0)
(-2.5e-07 8.81762e-23 0)
(-2.5e-07 3.27295e-15 0)
(-2.5e-07 -7.76205e-16 0)
(-2.5e-07 1.84122e-16 0)
(-2.5e-07 -4.36632e-17 0)
(-2.5e-07 1.03618e-17 0)
(-2.5e-07 -2.45129e-18 0)
(-2.5e-07 5.87385e-19 0)
(-2.5e-07 -1.33874e-19 0)
(-2.5e-07 3.64823e-20 0)
(-2.5e-07 -4.64666e-21 0)
(-2.5e-07 4.42738e-21 0)
(-2.5e-07 1.67488e-21 0)
(-2.5e-07 1.79848e-21 0)
(-2.5e-07 1.3483e-21 0)
(-2.5e-07 1.07504e-21 0)
(-2.5e-07 8.04496e-22 0)
(-2.5e-07 5.48971e-22 0)
(-2.5e-07 3.44844e-22 0)
(-2.5e-07 2.02685e-22 0)
(-2.5e-07 7.3797e-23 0)
(-2.5e-07 -3.26651e-15 0)
(-2.5e-07 7.74731e-16 0)
(-2.5e-07 -1.83767e-16 0)
(-2.5e-07 4.35902e-17 0)
(-2.5e-07 -1.03348e-17 0)
(-2.5e-07 2.45525e-18 0)
(-2.5e-07 -5.78623e-19 0)
(-2.5e-07 1.40655e-19 0)
(-2.5e-07 -3.03025e-20 0)
(-2.5e-07 9.87817e-21 0)
(-2.5e-07 -2.3666e-23 0)
(-2.5e-07 1.94717e-21 0)
(-2.5e-07 1.13385e-21 0)
(-2.5e-07 1.04155e-21 0)
(-2.5e-07 7.96032e-22 0)
(-2.5e-07 6.01306e-22 0)
(-2.5e-07 4.52221e-22 0)
(-2.5e-07 2.86969e-22 0)
(-2.5e-07 1.53962e-22 0)
(-2.5e-07 6.0888e-23 0)
(-2.5e-07 3.26062e-15 0)
(-2.5e-07 -7.73379e-16 0)
(-2.5e-07 1.83453e-16 0)
(-2.5e-07 -4.35127e-17 0)
(-2.5e-07 1.03221e-17 0)
(-2.5e-07 -2.44703e-18 0)
(-2.5e-07 5.8189e-19 0)
(-2.5e-07 -1.36555e-19 0)
(-2.5e-07 3.38106e-20 0)
(-2.5e-07 -6.64258e-21 0)
(-2.5e-07 2.85283e-21 0)
(-2.5e-07 4.61785e-22 0)
(-2.5e-07 8.75638e-22 0)
(-2.5e-07 6.31709e-22 0)
(-2.5e-07 5.39236e-22 0)
(-2.5e-07 4.02068e-22 0)
(-2.5e-07 3.07172e-22 0)
(-2.5e-07 1.83649e-22 0)
(-2.5e-07 1.20975e-22 0)
(-2.5e-07 5.89896e-23 0)
(-2.5e-07 -3.25543e-15 0)
(-2.5e-07 7.72191e-16 0)
(-2.5e-07 -1.83172e-16 0)
(-2.5e-07 4.3448e-17 0)
(-2.5e-07 -1.03069e-17 0)
(-2.5e-07 2.44398e-18 0)
(-2.5e-07 -5.80376e-19 0)
(-2.5e-07 1.37287e-19 0)
(-2.5e-07 -3.27067e-20 0)
(-2.5e-07 7.82727e-21 0)
(-2.5e-07 -1.63886e-21 0)
(-2.5e-07 6.98307e-22 0)
(-2.5e-07 2.01247e-22 0)
(-2.5e-07 3.31885e-22 0)
(-2.5e-07 2.88899e-22 0)
(-2.5e-07 2.32947e-22 0)
(-2.5e-07 1.62818e-22 0)
(-2.5e-07 1.09934e-22 0)
(-2.5e-07 9.47419e-23 0)
(-2.5e-07 5.49847e-23 0)
(-2.5e-07 3.25074e-15 0)
(-2.5e-07 -7.71106e-16 0)
(-2.5e-07 1.82913e-16 0)
(-2.5e-07 -4.33918e-17 0)
(-2.5e-07 1.02892e-17 0)
(-2.5e-07 -2.44409e-18 0)
(-2.5e-07 5.76926e-19 0)
(-2.5e-07 -1.39052e-19 0)
(-2.5e-07 3.13811e-20 0)
(-2.5e-07 -8.57292e-21 0)
(-2.5e-07 1.27682e-21 0)
(-2.5e-07 -7.59225e-22 0)
(-2.5e-07 -1.27131e-23 0)
(-2.5e-07 -4.10954e-23 0)
(-2.5e-07 6.07756e-23 0)
(-2.5e-07 7.38045e-23 0)
(-2.5e-07 5.40448e-23 0)
(-2.5e-07 3.15158e-23 0)
(-2.5e-07 2.33359e-23 0)
(-2.5e-07 2.65683e-23 0)
(-2.5e-07 -3.24629e-15 0)
(-2.5e-07 7.70068e-16 0)
(-2.5e-07 -1.82676e-16 0)
(-2.5e-07 4.33263e-17 0)
(-2.5e-07 -1.02842e-17 0)
(-2.5e-07 2.43344e-18 0)
(-2.5e-07 -5.82444e-19 0)
(-2.5e-07 1.34035e-19 0)
(-2.5e-07 -3.48803e-20 0)
(-2.5e-07 6.04729e-21 0)
(-2.5e-07 -2.98946e-21 0)
(-2.5e-07 -3.117e-22 0)
(-2.5e-07 -5.57674e-22 0)
(-2.5e-07 -2.58168e-22 0)
(-2.5e-07 -1.59109e-22 0)
(-2.5e-07 -5.79747e-23 0)
(-2.5e-07 -3.86122e-23 0)
(-2.5e-07 -5.18325e-23 0)
(-2.5e-07 -3.08021e-23 0)
(-2.5e-07 7.08114e-24 0)
(-2.5e-07 3.24233e-15 0)
(-2.5e-07 -7.69138e-16 0)
(-2.5e-07 1.8244e-16 0)
(-2.5e-07 -4.32877e-17 0)
(-2.5e-07 1.02576e-17 0)
(-2.5e-07 -2.44263e-18 0)
(-2.5e-07 5.71761e-19 0)
(-2.5e-07 -1.41546e-19 0)
(-2.5e-07 2.92085e-20 0)
(-2.5e-07 -1.00564e-20 0)
(-2.5e-07 2.03675e-22 0)
(-2.5e-07 -1.52985e-21 0)
(-2.5e-07 -6.52612e-22 0)
(-2.5e-07 -5.047e-22 0)
(-2.5e-07 -2.93766e-22 0)
(-2.5e-07 -1.76874e-22 0)
(-2.5e-07 -1.14649e-22 0)
(-2.5e-07 -1.02442e-22 0)
(-2.5e-07 -4.15745e-23 0)
(-2.5e-07 1.07446e-23 0)
(-2.5e-07 -3.23825e-15 0)
(-2.5e-07 7.68163e-16 0)
(-2.5e-07 -1.82235e-16 0)
(-2.5e-07 4.32111e-17 0)
(-2.5e-07 -1.02663e-17 0)
(-2.5e-07 2.4222e-18 0)
(-2.5e-07 -5.84748e-19 0)
(-2.5e-07 1.31235e-19 0)
(-2.5e-07 -3.65358e-20 0)
(-2.5e-07 4.83808e-21 0)
(-2.5e-07 -3.79756e-21 0)
(-2.5e-07 -8.87129e-22 0)
(-2.5e-07 -1.00626e-21 0)
(-2.5e-07 -5.63403e-22 0)
(-2.5e-07 -3.95342e-22 0)
(-2.5e-07 -2.67244e-22 0)
(-2.5e-07 -1.88351e-22 0)
(-2.5e-07 -1.35679e-22 0)
(-2.5e-07 -7.7346e-23 0)
(-2.5e-07 -9.7983e-24 0)
(-2.5e-07 3.23486e-15 0)
(-2.5e-07 -7.67366e-16 0)
(-2.5e-07 1.81998e-16 0)
(-2.5e-07 -4.31984e-17 0)
(-2.5e-07 1.02232e-17 0)
(-2.5e-07 -2.44235e-18 0)
(-2.5e-07 5.6688e-19 0)
(-2.5e-07 -1.43061e-19 0)
(-2.5e-07 2.79784e-20 0)
(-2.5e-07 -1.07012e-20 0)
(-2.5e-07 -2.00213e-22 0)
(-2.5e-07 -1.79268e-21 0)
(-2.5e-07 -8.3047e-22 0)
(-2.5e-07 -6.71596e-22 0)
(-2.5e-07 -4.23028e-22 0)
(-2.5e-07 -2.64917e-22 0)
(-2.5e-07 -1.78514e-22 0)
(-2.5e-07 -1.43574e-22 0)
(-2.5e-07 -9.98412e-23 0)
(-2.5e-07 -3.47927e-23 0)
(-2.5e-07 -3.231e-15 0)
(-2.5e-07 7.66424e-16 0)
(-2.5e-07 -1.81878e-16 0)
(-2.5e-07 4.30983e-17 0)
(-2.5e-07 -1.02579e-17 0)
(-2.5e-07 2.41292e-18 0)
(-2.5e-07 -5.85878e-19 0)
(-2.5e-07 1.30492e-19 0)
(-2.5e-07 -3.65388e-20 0)
(-2.5e-07 5.04215e-21 0)
(-2.5e-07 -3.60225e-21 0)
(-2.5e-07 -7.85358e-22 0)
(-2.5e-07 -9.45068e-22 0)
(-2.5e-07 -5.37272e-22 0)
(-2.5e-07 -3.64412e-22 0)
(-2.5e-07 -2.17612e-22 0)
(-2.5e-07 -1.53338e-22 0)
(-2.5e-07 -1.15978e-22 0)
(-2.5e-07 -6.76877e-23 0)
(-2.5e-07 -2.83155e-23 0)
(-2.5e-07 3.22862e-15 0)
(-2.5e-07 -7.65956e-16 0)
(-2.5e-07 1.81491e-16 0)
(-2.5e-07 -4.30953e-17 0)
(-2.5e-07 1.01776e-17 0)
(-2.5e-07 -2.43031e-18 0)
(-2.5e-07 5.6475e-19 0)
(-2.5e-07 -1.40167e-19 0)
(-2.5e-07 2.91041e-20 0)
(-2.5e-07 -9.46441e-21 0)
(-2.5e-07 5.35682e-22 0)
(-2.5e-07 -1.26935e-21 0)
(-2.5e-07 -4.71868e-22 0)
(-2.5e-07 -3.83013e-22 0)
(-2.5e-07 -2.20803e-22 0)
(-2.5e-07 -1.6304e-22 0)
(-2.5e-07 -1.16658e-22 0)
(-2.5e-07 -7.62159e-23 0)
(-2.5e-07 -3.22032e-23 0)
(-2.5e-07 -1.55904e-23 0)
(-2.5e-07 -3.22549e-15 0)
(-2.5e-07 7.65092e-16 0)
(-2.5e-07 -1.81672e-16 0)
(-2.5e-07 4.30838e-17 0)
(-2.5e-07 -1.02456e-17 0)
(-2.5e-07 2.42547e-18 0)
(-2.5e-07 -5.80381e-19 0)
(-2.5e-07 1.35538e-19 0)
(-2.5e-07 -3.37039e-20 0)
(-2.5e-07 7.07986e-21 0)
(-2.5e-07 -2.30941e-21 0)
(-2.5e-07 1.34588e-22 0)
(-2.5e-07 -3.1587e-22 0)
(-2.5e-07 -1.14223e-22 0)
(-2.5e-07 -9.71373e-23 0)
(-2.5e-07 -5.88661e-23 0)
(-2.5e-07 -3.44808e-23 0)
(-2.5e-07 -2.26422e-23 0)
(-2.5e-07 -1.17758e-23 0)
(-2.5e-07 -1.10511e-23 0)
)
;

boundaryField
{
    movingWall
    {
        type            calculated;
        value           uniform (0 0 0);
    }
    fixedWalls
    {
        type            calculated;
        value           uniform (0 0 0);
    }
    frontAndBack
    {
        type            empty;
    }
}


// ************************************************************************* //
