/*--------------------------------*- C++ -*----------------------------------*\
| =========                 |                                                 |
| \\      /  F ield         | OpenFOAM: The Open Source CFD Toolbox           |
|  \\    /   O peration     | Version:  2506                                  |
|   \\  /    A nd           | Website:  www.openfoam.com                      |
|    \\/     M anipulation  |                                                 |
\*---------------------------------------------------------------------------*/
FoamFile
{
    version     2.0;
    format      ascii;
    arch        "LSB;label=32;scalar=64";
    class       volVectorField;
    location    "4.5";
    object      norm_U_composite;
}
// * * * * * * * * * * * * * * * * * * * * * * * * * * * * * * * * * * * * * //

dimensions      [0 0 0 0 0 0 0];

internalField   nonuniform List<vector> 
400
(
(-0.5 6.66401e-09 0)
(-0.5 -1.58218e-09 0)
(-0.5 3.76058e-10 0)
(-0.5 -8.91985e-11 0)
(-0.5 2.12565e-11 0)
(-0.5 -5.02468e-12 0)
(-0.5 1.2092e-12 0)
(-0.5 -2.79294e-13 0)
(-0.5 7.16972e-14 0)
(-0.5 -1.35976e-14 0)
(-0.5 5.6189e-15 0)
(-0.5 3.04432e-16 0)
(-0.5 1.06848e-15 0)
(-0.5 5.23185e-16 0)
(-0.5 4.34911e-16 0)
(-0.5 3.32421e-16 0)
(-0.5 2.61309e-16 0)
(-0.5 1.55991e-16 0)
(-0.5 8.48686e-17 0)
(-0.5 4.76074e-17 0)
(-0.5 -6.66299e-09 0)
(-0.5 1.5835e-09 0)
(-0.5 -3.75228e-10 0)
(-0.5 8.93041e-11 0)
(-0.5 -2.10669e-11 0)
(-0.5 5.06078e-12 0)
(-0.5 -1.16318e-12 0)
(-0.5 2.98146e-13 0)
(-0.5 -5.62495e-14 0)
(-0.5 2.29121e-14 0)
(-0.5 1.18564e-15 0)
(-0.5 4.37939e-15 0)
(-0.5 2.31044e-15 0)
(-0.5 1.86835e-15 0)
(-0.5 1.30107e-15 0)
(-0.5 9.35998e-16 0)
(-0.5 6.4673e-16 0)
(-0.5 4.05758e-16 0)
(-0.5 2.10804e-16 0)
(-0.5 6.31219e-17 0)
(-0.5 6.6489e-09 0)
(-0.5 -1.57865e-09 0)
(-0.5 3.74817e-10 0)
(-0.5 -8.88195e-11 0)
(-0.5 2.11978e-11 0)
(-0.5 -4.96089e-12 0)
(-0.5 1.22392e-12 0)
(-0.5 -2.60606e-13 0)
(-0.5 8.21033e-14 0)
(-0.5 -5.60757e-15 0)
(-0.5 1.11077e-14 0)
(-0.5 4.36683e-15 0)
(-0.5 4.07047e-15 0)
(-0.5 2.7495e-15 0)
(-0.5 2.01962e-15 0)
(-0.5 1.41864e-15 0)
(-0.5 1.00397e-15 0)
(-0.5 6.68203e-16 0)
(-0.5 3.34714e-16 0)
(-0.5 7.37419e-17 0)
(-0.5 -6.63355e-09 0)
(-0.5 1.5741e-09 0)
(-0.5 -3.73374e-10 0)
(-0.5 8.86707e-11 0)
(-0.5 -2.0962e-11 0)
(-0.5 5.03198e-12 0)
(-0.5 -1.1505e-12 0)
(-0.5 3.04013e-13 0)
(-0.5 -4.98363e-14 0)
(-0.5 2.78255e-14 0)
(-0.5 5.02776e-15 0)
(-0.5 7.29586e-15 0)
(-0.5 4.49303e-15 0)
(-0.5 3.51232e-15 0)
(-0.5 2.54047e-15 0)
(-0.5 1.88835e-15 0)
(-0.5 1.30702e-15 0)
(-0.5 8.14277e-16 0)
(-0.5 4.57129e-16 0)
(-0.5 1.50605e-16 0)
(-0.5 6.61384e-09 0)
(-0.5 -1.56879e-09 0)
(-0.5 3.72214e-10 0)
(-0.5 -8.82314e-11 0)
(-0.5 2.09831e-11 0)
(-0.5 -4.93181e-12 0)
(-0.5 1.20644e-12 0)
(-0.5 -2.57891e-13 0)
(-0.5 8.25989e-14 0)
(-0.5 -3.51894e-15 0)
(-0.5 1.28691e-14 0)
(-0.5 5.89427e-15 0)
(-0.5 5.2868e-15 0)
(-0.5 3.79485e-15 0)
(-0.5 2.91646e-15 0)
(-0.5 2.12591e-15 0)
(-0.5 1.43911e-15 0)
(-0.5 8.97426e-16 0)
(-0.5 5.50725e-16 0)
(-0.5 1.9611e-16 0)
(-0.5 -6.59568e-09 0)
(-0.5 1.56423e-09 0)
(-0.5 -3.71019e-10 0)
(-0.5 8.80329e-11 0)
(-0.5 -2.08393e-11 0)
(-0.5 4.9777e-12 0)
(-0.5 -1.15094e-12 0)
(-0.5 2.96981e-13 0)
(-0.5 -5.13676e-14 0)
(-0.5 2.70752e-14 0)
(-0.5 5.07964e-15 0)
(-0.5 7.56659e-15 0)
(-0.5 4.91161e-15 0)
(-0.5 3.9759e-15 0)
(-0.5 2.97021e-15 0)
(-0.5 2.18213e-15 0)
(-0.5 1.54337e-15 0)
(-0.5 9.83511e-16 0)
(-0.5 5.54594e-16 0)
(-0.5 2.15073e-16 0)
(-0.5 6.57708e-09 0)
(-0.5 -1.5597e-09 0)
(-0.5 3.69988e-10 0)
(-0.5 -8.77206e-11 0)
(-0.5 2.08307e-11 0)
(-0.5 -4.91474e-12 0)
(-0.5 1.18843e-12 0)
(-0.5 -2.62354e-13 0)
(-0.5 7.82801e-14 0)
(-0.5 -5.59867e-15 0)
(-0.5 1.16556e-14 0)
(-0.5 5.40792e-15 0)
(-0.5 5.08504e-15 0)
(-0.5 3.66778e-15 0)
(-0.5 2.80892e-15 0)
(-0.5 2.10078e-15 0)
(-0.5 1.52304e-15 0)
(-0.5 9.87479e-16 0)
(-0.5 5.19842e-16 0)
(-0.5 1.9596e-16 0)
(-0.5 -6.56105e-09 0)
(-0.5 1.55594e-09 0)
(-0.5 -3.69056e-10 0)
(-0.5 8.75451e-11 0)
(-0.5 -2.07425e-11 0)
(-0.5 4.93853e-12 0)
(-0.5 -1.15394e-12 0)
(-0.5 2.88746e-13 0)
(-0.5 -5.56669e-14 0)
(-0.5 2.38233e-14 0)
(-0.5 2.98869e-15 0)
(-0.5 6.25825e-15 0)
(-0.5 4.03847e-15 0)
(-0.5 3.33106e-15 0)
(-0.5 2.47547e-15 0)
(-0.5 1.91526e-15 0)
(-0.5 1.31876e-15 0)
(-0.5 8.43324e-16 0)
(-0.5 4.91247e-16 0)
(-0.5 1.76352e-16 0)
(-0.5 6.54591e-09 0)
(-0.5 -1.55241e-09 0)
(-0.5 3.68245e-10 0)
(-0.5 -8.73264e-11 0)
(-0.5 2.07235e-11 0)
(-0.5 -4.90259e-12 0)
(-0.5 1.17477e-12 0)
(-0.5 -2.67748e-13 0)
(-0.5 7.29647e-14 0)
(-0.5 -9.29332e-15 0)
(-0.5 8.85475e-15 0)
(-0.5 3.34976e-15 0)
(-0.5 3.59696e-15 0)
(-0.5 2.69661e-15 0)
(-0.5 2.15009e-15 0)
(-0.5 1.60899e-15 0)
(-0.5 1.09794e-15 0)
(-0.5 6.89688e-16 0)
(-0.5 4.05369e-16 0)
(-0.5 1.47594e-16 0)
(-0.5 -6.53302e-09 0)
(-0.5 1.54946e-09 0)
(-0.5 -3.67534e-10 0)
(-0.5 8.71805e-11 0)
(-0.5 -2.06696e-11 0)
(-0.5 4.9105e-12 0)
(-0.5 -1.15725e-12 0)
(-0.5 2.81311e-13 0)
(-0.5 -6.06051e-14 0)
(-0.5 1.97563e-14 0)
(-0.5 -4.73321e-17 0)
(-0.5 3.89433e-15 0)
(-0.5 2.2677e-15 0)
(-0.5 2.08309e-15 0)
(-0.5 1.59206e-15 0)
(-0.5 1.20261e-15 0)
(-0.5 9.04442e-16 0)
(-0.5 5.73938e-16 0)
(-0.5 3.07924e-16 0)
(-0.5 1.21776e-16 0)
(-0.5 6.52124e-09 0)
(-0.5 -1.54676e-09 0)
(-0.5 3.66905e-10 0)
(-0.5 -8.70254e-11 0)
(-0.5 2.06442e-11 0)
(-0.5 -4.89406e-12 0)
(-0.5 1.16378e-12 0)
(-0.5 -2.7311e-13 0)
(-0.5 6.76213e-14 0)
(-0.5 -1.32852e-14 0)
(-0.5 5.70567e-15 0)
(-0.5 9.2357e-16 0)
(-0.5 1.75128e-15 0)
(-0.5 1.26342e-15 0)
(-0.5 1.07847e-15 0)
(-0.5 8.04136e-16 0)
(-0.5 6.14344e-16 0)
(-0.5 3.67298e-16 0)
(-0.5 2.4195e-16 0)
(-0.5 1.17979e-16 0)
(-0.5 -6.51087e-09 0)
(-0.5 1.54438e-09 0)
(-0.5 -3.66345e-10 0)
(-0.5 8.68961e-11 0)
(-0.5 -2.06138e-11 0)
(-0.5 4.88797e-12 0)
(-0.5 -1.16075e-12 0)
(-0.5 2.74574e-13 0)
(-0.5 -6.54135e-14 0)
(-0.5 1.56545e-14 0)
(-0.5 -3.27772e-15 0)
(-0.5 1.39661e-15 0)
(-0.5 4.02493e-16 0)
(-0.5 6.63769e-16 0)
(-0.5 5.77798e-16 0)
(-0.5 4.65895e-16 0)
(-0.5 3.25636e-16 0)
(-0.5 2.19867e-16 0)
(-0.5 1.89484e-16 0)
(-0.5 1.09969e-16 0)
(-0.5 6.50147e-09 0)
(-0.5 -1.54221e-09 0)
(-0.5 3.65826e-10 0)
(-0.5 -8.67836e-11 0)
(-0.5 2.05783e-11 0)
(-0.5 -4.88817e-12 0)
(-0.5 1.15385e-12 0)
(-0.5 -2.78104e-13 0)
(-0.5 6.27622e-14 0)
(-0.5 -1.71458e-14 0)
(-0.5 2.55365e-15 0)
(-0.5 -1.51845e-15 0)
(-0.5 -2.54262e-17 0)
(-0.5 -8.21908e-17 0)
(-0.5 1.21551e-16 0)
(-0.5 1.47609e-16 0)
(-0.5 1.0809e-16 0)
(-0.5 6.30316e-17 0)
(-0.5 4.66718e-17 0)
(-0.5 5.31365e-17 0)
(-0.5 -6.49259e-09 0)
(-0.5 1.54014e-09 0)
(-0.5 -3.65352e-10 0)
(-0.5 8.66525e-11 0)
(-0.5 -2.05683e-11 0)
(-0.5 4.86688e-12 0)
(-0.5 -1.16489e-12 0)
(-0.5 2.68069e-13 0)
(-0.5 -6.97607e-14 0)
(-0.5 1.20946e-14 0)
(-0.5 -5.97893e-15 0)
(-0.5 -6.23399e-16 0)
(-0.5 -1.11535e-15 0)
(-0.5 -5.16335e-16 0)
(-0.5 -3.18218e-16 0)
(-0.5 -1.15949e-16 0)
(-0.5 -7.72245e-17 0)
(-0.5 -1.03665e-16 0)
(-0.5 -6.16042e-17 0)
(-0.5 1.41623e-17 0)
(-0.5 6.48466e-09 0)
(-0.5 -1.53828e-09 0)
(-0.5 3.64881e-10 0)
(-0.5 -8.65754e-11 0)
(-0.5 2.05151e-11 0)
(-0.5 -4.88527e-12 0)
(-0.5 1.14352e-12 0)
(-0.5 -2.83093e-13 0)
(-0.5 5.84171e-14 0)
(-0.5 -2.01128e-14 0)
(-0.5 4.0735e-16 0)
(-0.5 -3.0597e-15 0)
(-0.5 -1.30522e-15 0)
(-0.5 -1.0094e-15 0)
(-0.5 -5.87532e-16 0)
(-0.5 -3.53748e-16 0)
(-0.5 -2.29298e-16 0)
(-0.5 -2.04884e-16 0)
(-0.5 -8.3149e-17 0)
(-0.5 2.14891e-17 0)
(-0.5 -6.47651e-09 0)
(-0.5 1.53633e-09 0)
(-0.5 -3.64469e-10 0)
(-0.5 8.64223e-11 0)
(-0.5 -2.05326e-11 0)
(-0.5 4.84441e-12 0)
(-0.5 -1.1695e-12 0)
(-0.5 2.62471e-13 0)
(-0.5 -7.30716e-14 0)
(-0.5 9.67617e-15 0)
(-0.5 -7.59512e-15 0)
(-0.5 -1.77426e-15 0)
(-0.5 -2.01252e-15 0)
(-0.5 -1.12681e-15 0)
(-0.5 -7.90685e-16 0)
(-0.5 -5.34487e-16 0)
(-0.5 -3.76701e-16 0)
(-0.5 -2.71357e-16 0)
(-0.5 -1.54692e-16 0)
(-0.5 -1.95966e-17 0)
(-0.5 6.46973e-09 0)
(-0.5 -1.53473e-09 0)
(-0.5 3.63995e-10 0)
(-0.5 -8.63967e-11 0)
(-0.5 2.04464e-11 0)
(-0.5 -4.88471e-12 0)
(-0.5 1.13376e-12 0)
(-0.5 -2.86122e-13 0)
(-0.5 5.59569e-14 0)
(-0.5 -2.14024e-14 0)
(-0.5 -4.00426e-16 0)
(-0.5 -3.58536e-15 0)
(-0.5 -1.66094e-15 0)
(-0.5 -1.34319e-15 0)
(-0.5 -8.46056e-16 0)
(-0.5 -5.29833e-16 0)
(-0.5 -3.57029e-16 0)
(-0.5 -2.87149e-16 0)
(-0.5 -1.99682e-16 0)
(-0.5 -6.95853e-17 0)
(-0.5 -6.46201e-09 0)
(-0.5 1.53285e-09 0)
(-0.5 -3.63756e-10 0)
(-0.5 8.61966e-11 0)
(-0.5 -2.05159e-11 0)
(-0.5 4.82584e-12 0)
(-0.5 -1.17176e-12 0)
(-0.5 2.60983e-13 0)
(-0.5 -7.30777e-14 0)
(-0.5 1.00843e-14 0)
(-0.5 -7.20451e-15 0)
(-0.5 -1.57072e-15 0)
(-0.5 -1.89014e-15 0)
(-0.5 -1.07454e-15 0)
(-0.5 -7.28825e-16 0)
(-0.5 -4.35223e-16 0)
(-0.5 -3.06675e-16 0)
(-0.5 -2.31956e-16 0)
(-0.5 -1.35375e-16 0)
(-0.5 -5.66309e-17 0)
(-0.5 6.45724e-09 0)
(-0.5 -1.53191e-09 0)
(-0.5 3.62981e-10 0)
(-0.5 -8.61905e-11 0)
(-0.5 2.03552e-11 0)
(-0.5 -4.86062e-12 0)
(-0.5 1.1295e-12 0)
(-0.5 -2.80334e-13 0)
(-0.5 5.82082e-14 0)
(-0.5 -1.89288e-14 0)
(-0.5 1.07136e-15 0)
(-0.5 -2.53869e-15 0)
(-0.5 -9.43735e-16 0)
(-0.5 -7.66027e-16 0)
(-0.5 -4.41606e-16 0)
(-0.5 -3.2608e-16 0)
(-0.5 -2.33315e-16 0)
(-0.5 -1.52432e-16 0)
(-0.5 -6.44065e-17 0)
(-0.5 -3.11809e-17 0)
(-0.5 -6.45098e-09 0)
(-0.5 1.53018e-09 0)
(-0.5 -3.63345e-10 0)
(-0.5 8.61676e-11 0)
(-0.5 -2.04912e-11 0)
(-0.5 4.85094e-12 0)
(-0.5 -1.16076e-12 0)
(-0.5 2.71076e-13 0)
(-0.5 -6.74078e-14 0)
(-0.5 1.41597e-14 0)
(-0.5 -4.61882e-15 0)
(-0.5 2.69176e-16 0)
(-0.5 -6.3174e-16 0)
(-0.5 -2.28445e-16 0)
(-0.5 -1.94275e-16 0)
(-0.5 -1.17732e-16 0)
(-0.5 -6.89616e-17 0)
(-0.5 -4.52844e-17 0)
(-0.5 -2.35516e-17 0)
(-0.5 -2.21023e-17 0)
)
;

boundaryField
{
    movingWall
    {
        type            calculated;
        value           uniform (-0.5 -0 -0);
    }
    fixedWalls
    {
        type            calculated;
        value           uniform (-0.5 -0 -0);
    }
    frontAndBack
    {
        type            empty;
    }
}


// ************************************************************************* //
