/*--------------------------------*- C++ -*----------------------------------*\
| =========                 |                                                 |
| \\      /  F ield         | OpenFOAM: The Open Source CFD Toolbox           |
|  \\    /   O peration     | Version:  2506                                  |
|   \\  /    A nd           | Website:  www.openfoam.com                      |
|    \\/     M anipulation  |                                                 |
\*---------------------------------------------------------------------------*/
FoamFile
{
    version     2.0;
    format      ascii;
    arch        "LSB;label=32;scalar=64";
    class       volScalarField;
    location    "4.5";
    object      norm_k_field;
}
// * * * * * * * * * * * * * * * * * * * * * * * * * * * * * * * * * * * * * //

dimensions      [0 0 0 0 0 0 0];

internalField   nonuniform List<scalar> 
400
(
1.85482e+10
1.93922e+10
1.14081e+07
2.10901e+08
5.09253e+07
1.58315e+08
1.56405e+08
2.44482e+08
2.9064e+08
3.60217e+08
4.13908e+08
4.70457e+08
5.15936e+08
5.55222e+08
5.88641e+08
6.12965e+08
6.3202e+08
6.41418e+08
6.49644e+08
6.57044e+08
2.63906e+08
1.58969e+07
1.28283e+08
1.36987e+08
1.60232e+08
2.01e+08
2.43043e+08
3.07559e+08
3.70412e+08
4.3714e+08
4.97306e+08
5.55827e+08
6.04487e+08
6.41553e+08
6.75818e+08
7.03068e+08
7.24027e+08
7.33458e+08
7.43668e+08
7.53176e+08
2.5334e+10
2.53339e+10
2.5329e+10
2.5327e+10
2.63201e+08
5.16919e+08
3.93923e+08
4.75966e+08
5.15625e+08
5.80014e+08
6.3462e+08
6.89962e+08
7.36866e+08
7.73253e+08
8.05616e+08
8.2791e+08
8.45907e+08
8.60417e+08
8.71297e+08
8.72182e+08
6.30889e+07
5.34197e+06
2.80289e+10
1.62343e+08
2.80223e+10
9.21418e+08
9.30163e+08
7.35256e+08
7.52854e+08
7.73273e+08
8.05696e+08
8.41642e+08
8.80913e+08
9.07197e+08
9.32527e+08
9.48981e+08
9.63427e+08
9.80437e+08
9.85065e+08
9.80784e+08
2.98042e+10
2.9804e+10
2.9797e+10
2.97944e+10
7.11076e+08
2.97872e+10
1.35365e+09
1.28704e+09
1.07206e+09
1.02308e+09
1.00484e+09
1.01061e+09
1.02161e+09
1.03286e+09
1.04491e+09
1.05632e+09
1.06598e+09
1.06945e+09
1.07265e+09
1.0655e+09
3.8109e+07
6.63798e+06
3.08414e+10
2.36001e+08
3.08333e+10
3.08304e+10
1.0493e+10
2.02777e+09
1.58329e+09
1.33418e+09
1.23728e+09
1.18616e+09
1.16849e+09
1.15422e+09
1.15199e+09
1.15066e+09
1.14482e+09
1.13734e+09
1.14066e+09
1.13116e+09
3.14464e+10
3.14461e+10
3.14386e+10
3.14355e+10
1.97703e+09
3.14275e+10
9.64552e+09
4.27609e+09
2.24797e+09
1.73982e+09
1.50817e+09
1.38147e+09
1.32015e+09
1.27545e+09
1.2547e+09
1.22785e+09
1.21264e+09
1.19621e+09
1.19267e+09
1.18553e+09
3.33876e+07
1.04223e+07
3.1794e+10
4.67303e+08
3.17854e+10
3.17828e+10
3.1778e+10
7.47983e+09
3.28022e+09
2.20519e+09
1.78703e+09
1.57823e+09
1.46923e+09
1.38453e+09
1.33649e+09
1.29971e+09
1.2706e+09
1.2562e+09
1.23999e+09
1.22615e+09
3.20388e+10
3.20386e+10
3.20305e+10
3.20274e+10
3.20218e+10
3.20192e+10
3.20141e+10
2.87461e+10
4.34737e+09
2.69459e+09
2.04911e+09
1.75822e+09
1.60152e+09
1.48162e+09
1.40534e+09
1.36726e+09
1.3233e+09
1.29179e+09
1.27834e+09
1.26312e+09
3.59544e+07
1.82603e+07
3.22144e+10
1.42001e+09
3.22055e+10
3.22025e+10
3.2198e+10
3.21951e+10
5.6066e+09
3.03663e+09
2.26448e+09
1.89384e+09
1.69311e+09
1.55742e+09
1.45575e+09
1.39772e+09
1.35797e+09
1.33649e+09
1.30663e+09
1.28406e+09
3.23885e+10
3.23881e+10
3.23803e+10
3.23767e+10
3.23712e+10
3.23682e+10
3.23633e+10
3.2361e+10
5.88276e+09
3.25465e+09
2.39662e+09
1.9646e+09
1.73281e+09
1.59877e+09
1.48816e+09
1.42023e+09
1.39421e+09
1.37152e+09
1.33231e+09
1.31069e+09
4.28685e+07
3.163e+07
8.84869e+09
3.25432e+10
3.25379e+10
3.25346e+10
3.253e+10
3.25272e+10
5.36657e+09
3.15598e+09
2.35115e+09
1.96517e+09
1.73416e+09
1.61237e+09
1.51244e+09
1.44018e+09
1.40936e+09
1.38661e+09
1.35538e+09
1.33121e+09
3.27337e+10
3.27334e+10
3.27252e+10
3.27218e+10
3.27159e+10
3.27131e+10
3.2708e+10
1.69999e+10
4.35085e+09
2.84146e+09
2.21344e+09
1.87031e+09
1.70384e+09
1.58886e+09
1.50433e+09
1.43968e+09
1.40518e+09
1.394e+09
1.37153e+09
1.35883e+09
5.08896e+07
4.93072e+07
1.45822e+10
3.29202e+10
3.29146e+10
3.29115e+10
3.29063e+10
6.68207e+09
3.31677e+09
2.42405e+09
1.99939e+09
1.75253e+09
1.63009e+09
1.5401e+09
1.474e+09
1.41847e+09
1.39564e+09
1.3983e+09
1.38346e+09
1.35974e+09
3.31581e+10
3.31578e+10
3.31492e+10
3.31458e+10
3.31399e+10
3.31368e+10
1.00194e+10
3.56352e+09
2.431e+09
2.00834e+09
1.76878e+09
1.61948e+09
1.55167e+09
1.47651e+09
1.42542e+09
1.40184e+09
1.39671e+09
1.39915e+09
1.38926e+09
1.36911e+09
5.77777e+07
7.98258e+07
3.34078e+10
3.34044e+10
3.33981e+10
3.33954e+10
3.29926e+09
2.16853e+09
1.80276e+09
1.64607e+09
1.54829e+09
1.49137e+09
1.44964e+09
1.42076e+09
1.39651e+09
1.38254e+09
1.38402e+09
1.3872e+09
1.38689e+09
1.37543e+09
3.37087e+10
3.37083e+10
3.36998e+10
3.36958e+10
7.98194e+09
2.52022e+09
1.56228e+09
1.41827e+09
1.35701e+09
1.35511e+09
1.35773e+09
1.3753e+09
1.37812e+09
1.37652e+09
1.37271e+09
1.36768e+09
1.37226e+09
1.38103e+09
1.37043e+09
1.37179e+09
6.45003e+07
1.25567e+09
2.23012e+09
3.40026e+10
1.04168e+09
1.04421e+09
9.06474e+08
1.00417e+09
1.06361e+09
1.15353e+09
1.21757e+09
1.27215e+09
1.30473e+09
1.32894e+09
1.34644e+09
1.3637e+09
1.37283e+09
1.37174e+09
1.36344e+09
1.35528e+09
3.42861e+10
3.4286e+10
2.43513e+08
2.99228e+09
3.19273e+08
5.60946e+08
5.96535e+08
7.7914e+08
8.88455e+08
1.02435e+09
1.1223e+09
1.20216e+09
1.25963e+09
1.30749e+09
1.3369e+09
1.35788e+09
1.36895e+09
1.36996e+09
1.36473e+09
1.35914e+09
1.40569e+08
3.43999e+10
2.5117e+07
3.43998e+10
1.28226e+08
6.02033e+08
4.30907e+08
7.20232e+08
7.96077e+08
9.71388e+08
1.07345e+09
1.17037e+09
1.2322e+09
1.29176e+09
1.3341e+09
1.35504e+09
1.3672e+09
1.37127e+09
1.37014e+09
1.35322e+09
)
;

boundaryField
{
    movingWall
    {
        type            calculated;
        value           nonuniform List<scalar> 
20
(
1.40569e+08
3.43999e+10
2.5117e+07
3.43998e+10
1.28226e+08
6.02033e+08
4.30907e+08
7.20232e+08
7.96077e+08
9.71388e+08
1.07345e+09
1.17037e+09
1.2322e+09
1.29176e+09
1.3341e+09
1.35504e+09
1.3672e+09
1.37127e+09
1.37014e+09
1.35322e+09
)
;
    }
    fixedWalls
    {
        type            calculated;
        value           nonuniform List<scalar> 
60
(
1.85482e+10
2.63906e+08
2.5334e+10
6.30889e+07
2.98042e+10
3.8109e+07
3.14464e+10
3.33876e+07
3.20388e+10
3.59544e+07
3.23885e+10
4.28685e+07
3.27337e+10
5.08896e+07
3.31581e+10
5.77777e+07
3.37087e+10
6.45003e+07
3.42861e+10
1.40569e+08
6.57044e+08
7.53176e+08
8.72182e+08
9.80784e+08
1.0655e+09
1.13116e+09
1.18553e+09
1.22615e+09
1.26312e+09
1.28406e+09
1.31069e+09
1.33121e+09
1.35883e+09
1.35974e+09
1.36911e+09
1.37543e+09
1.37179e+09
1.35528e+09
1.35914e+09
1.35322e+09
1.85482e+10
1.93922e+10
1.14081e+07
2.10901e+08
5.09253e+07
1.58315e+08
1.56405e+08
2.44482e+08
2.9064e+08
3.60217e+08
4.13908e+08
4.70457e+08
5.15936e+08
5.55222e+08
5.88641e+08
6.12965e+08
6.3202e+08
6.41418e+08
6.49644e+08
6.57044e+08
)
;
    }
    frontAndBack
    {
        type            empty;
    }
}


// ************************************************************************* //
