/*--------------------------------*- C++ -*----------------------------------*\
| =========                 |                                                 |
| \\      /  F ield         | OpenFOAM: The Open Source CFD Toolbox           |
|  \\    /   O peration     | Version:  2506                                  |
|   \\  /    A nd           | Website:  www.openfoam.com                      |
|    \\/     M anipulation  |                                                 |
\*---------------------------------------------------------------------------*/
FoamFile
{
    version     2.0;
    format      ascii;
    arch        "LSB;label=32;scalar=64";
    class       volVectorField;
    location    "4.5";
    object      norm_U_L1;
}
// * * * * * * * * * * * * * * * * * * * * * * * * * * * * * * * * * * * * * //

dimensions      [0 0 0 0 0 0 0];

internalField   nonuniform List<vector> 
400
(
(-0.0025 3.332e-11 0)
(-0.0025 -7.91091e-12 0)
(-0.0025 1.88029e-12 0)
(-0.0025 -4.45993e-13 0)
(-0.0025 1.06282e-13 0)
(-0.0025 -2.51234e-14 0)
(-0.0025 6.04598e-15 0)
(-0.0025 -1.39647e-15 0)
(-0.0025 3.58486e-16 0)
(-0.0025 -6.7988e-17 0)
(-0.0025 2.80945e-17 0)
(-0.0025 1.52216e-18 0)
(-0.0025 5.34242e-18 0)
(-0.0025 2.61592e-18 0)
(-0.0025 2.17455e-18 0)
(-0.0025 1.66211e-18 0)
(-0.0025 1.30654e-18 0)
(-0.0025 7.79956e-19 0)
(-0.0025 4.24343e-19 0)
(-0.0025 2.38037e-19 0)
(-0.0025 -3.3315e-11 0)
(-0.0025 7.91749e-12 0)
(-0.0025 -1.87614e-12 0)
(-0.0025 4.46521e-13 0)
(-0.0025 -1.05335e-13 0)
(-0.0025 2.53039e-14 0)
(-0.0025 -5.81588e-15 0)
(-0.0025 1.49073e-15 0)
(-0.0025 -2.81247e-16 0)
(-0.0025 1.1456e-16 0)
(-0.0025 5.92821e-18 0)
(-0.0025 2.1897e-17 0)
(-0.0025 1.15522e-17 0)
(-0.0025 9.34176e-18 0)
(-0.0025 6.50533e-18 0)
(-0.0025 4.67999e-18 0)
(-0.0025 3.23365e-18 0)
(-0.0025 2.02879e-18 0)
(-0.0025 1.05402e-18 0)
(-0.0025 3.1561e-19 0)
(-0.0025 3.32445e-11 0)
(-0.0025 -7.89327e-12 0)
(-0.0025 1.87409e-12 0)
(-0.0025 -4.44098e-13 0)
(-0.0025 1.05989e-13 0)
(-0.0025 -2.48044e-14 0)
(-0.0025 6.1196e-15 0)
(-0.0025 -1.30303e-15 0)
(-0.0025 4.10516e-16 0)
(-0.0025 -2.80378e-17 0)
(-0.0025 5.55387e-17 0)
(-0.0025 2.18341e-17 0)
(-0.0025 2.03523e-17 0)
(-0.0025 1.37475e-17 0)
(-0.0025 1.00981e-17 0)
(-0.0025 7.0932e-18 0)
(-0.0025 5.01986e-18 0)
(-0.0025 3.34102e-18 0)
(-0.0025 1.67357e-18 0)
(-0.0025 3.68709e-19 0)
(-0.0025 -3.31678e-11 0)
(-0.0025 7.8705e-12 0)
(-0.0025 -1.86687e-12 0)
(-0.0025 4.43353e-13 0)
(-0.0025 -1.0481e-13 0)
(-0.0025 2.51599e-14 0)
(-0.0025 -5.75248e-15 0)
(-0.0025 1.52007e-15 0)
(-0.0025 -2.49181e-16 0)
(-0.0025 1.39127e-16 0)
(-0.0025 2.51388e-17 0)
(-0.0025 3.64793e-17 0)
(-0.0025 2.24652e-17 0)
(-0.0025 1.75616e-17 0)
(-0.0025 1.27023e-17 0)
(-0.0025 9.44175e-18 0)
(-0.0025 6.53508e-18 0)
(-0.0025 4.07138e-18 0)
(-0.0025 2.28564e-18 0)
(-0.0025 7.53024e-19 0)
(-0.0025 3.30692e-11 0)
(-0.0025 -7.84397e-12 0)
(-0.0025 1.86107e-12 0)
(-0.0025 -4.41157e-13 0)
(-0.0025 1.04915e-13 0)
(-0.0025 -2.4659e-14 0)
(-0.0025 6.03219e-15 0)
(-0.0025 -1.28946e-15 0)
(-0.0025 4.12995e-16 0)
(-0.0025 -1.75947e-17 0)
(-0.0025 6.43454e-17 0)
(-0.0025 2.94714e-17 0)
(-0.0025 2.6434e-17 0)
(-0.0025 1.89742e-17 0)
(-0.0025 1.45823e-17 0)
(-0.0025 1.06295e-17 0)
(-0.0025 7.19553e-18 0)
(-0.0025 4.48713e-18 0)
(-0.0025 2.75363e-18 0)
(-0.0025 9.80548e-19 0)
(-0.0025 -3.29784e-11 0)
(-0.0025 7.82116e-12 0)
(-0.0025 -1.85509e-12 0)
(-0.0025 4.40165e-13 0)
(-0.0025 -1.04197e-13 0)
(-0.0025 2.48885e-14 0)
(-0.0025 -5.75471e-15 0)
(-0.0025 1.48491e-15 0)
(-0.0025 -2.56838e-16 0)
(-0.0025 1.35376e-16 0)
(-0.0025 2.53982e-17 0)
(-0.0025 3.7833e-17 0)
(-0.0025 2.45581e-17 0)
(-0.0025 1.98795e-17 0)
(-0.0025 1.48511e-17 0)
(-0.0025 1.09107e-17 0)
(-0.0025 7.71683e-18 0)
(-0.0025 4.91755e-18 0)
(-0.0025 2.77297e-18 0)
(-0.0025 1.07536e-18 0)
(-0.0025 3.28854e-11 0)
(-0.0025 -7.79851e-12 0)
(-0.0025 1.84994e-12 0)
(-0.0025 -4.38603e-13 0)
(-0.0025 1.04154e-13 0)
(-0.0025 -2.45737e-14 0)
(-0.0025 5.94216e-15 0)
(-0.0025 -1.31177e-15 0)
(-0.0025 3.91401e-16 0)
(-0.0025 -2.79933e-17 0)
(-0.0025 5.82781e-17 0)
(-0.0025 2.70396e-17 0)
(-0.0025 2.54252e-17 0)
(-0.0025 1.83389e-17 0)
(-0.0025 1.40446e-17 0)
(-0.0025 1.05039e-17 0)
(-0.0025 7.61522e-18 0)
(-0.0025 4.9374e-18 0)
(-0.0025 2.59921e-18 0)
(-0.0025 9.79801e-19 0)
(-0.0025 -3.28053e-11 0)
(-0.0025 7.7797e-12 0)
(-0.0025 -1.84528e-12 0)
(-0.0025 4.37726e-13 0)
(-0.0025 -1.03712e-13 0)
(-0.0025 2.46927e-14 0)
(-0.0025 -5.76972e-15 0)
(-0.0025 1.44373e-15 0)
(-0.0025 -2.78335e-16 0)
(-0.0025 1.19116e-16 0)
(-0.0025 1.49435e-17 0)
(-0.0025 3.12913e-17 0)
(-0.0025 2.01924e-17 0)
(-0.0025 1.66553e-17 0)
(-0.0025 1.23773e-17 0)
(-0.0025 9.5763e-18 0)
(-0.0025 6.59381e-18 0)
(-0.0025 4.21662e-18 0)
(-0.0025 2.45624e-18 0)
(-0.0025 8.81762e-19 0)
(-0.0025 3.27295e-11 0)
(-0.0025 -7.76205e-12 0)
(-0.0025 1.84122e-12 0)
(-0.0025 -4.36632e-13 0)
(-0.0025 1.03618e-13 0)
(-0.0025 -2.45129e-14 0)
(-0.0025 5.87385e-15 0)
(-0.0025 -1.33874e-15 0)
(-0.0025 3.64823e-16 0)
(-0.0025 -4.64666e-17 0)
(-0.0025 4.42738e-17 0)
(-0.0025 1.67488e-17 0)
(-0.0025 1.79848e-17 0)
(-0.0025 1.3483e-17 0)
(-0.0025 1.07504e-17 0)
(-0.0025 8.04496e-18 0)
(-0.0025 5.48971e-18 0)
(-0.0025 3.44844e-18 0)
(-0.0025 2.02685e-18 0)
(-0.0025 7.3797e-19 0)
(-0.0025 -3.26651e-11 0)
(-0.0025 7.74731e-12 0)
(-0.0025 -1.83767e-12 0)
(-0.0025 4.35902e-13 0)
(-0.0025 -1.03348e-13 0)
(-0.0025 2.45525e-14 0)
(-0.0025 -5.78623e-15 0)
(-0.0025 1.40655e-15 0)
(-0.0025 -3.03025e-16 0)
(-0.0025 9.87817e-17 0)
(-0.0025 -2.3666e-19 0)
(-0.0025 1.94717e-17 0)
(-0.0025 1.13385e-17 0)
(-0.0025 1.04155e-17 0)
(-0.0025 7.96032e-18 0)
(-0.0025 6.01306e-18 0)
(-0.0025 4.52221e-18 0)
(-0.0025 2.86969e-18 0)
(-0.0025 1.53962e-18 0)
(-0.0025 6.0888e-19 0)
(-0.0025 3.26062e-11 0)
(-0.0025 -7.73379e-12 0)
(-0.0025 1.83453e-12 0)
(-0.0025 -4.35127e-13 0)
(-0.0025 1.03221e-13 0)
(-0.0025 -2.44703e-14 0)
(-0.0025 5.8189e-15 0)
(-0.0025 -1.36555e-15 0)
(-0.0025 3.38106e-16 0)
(-0.0025 -6.64258e-17 0)
(-0.0025 2.85283e-17 0)
(-0.0025 4.61785e-18 0)
(-0.0025 8.75638e-18 0)
(-0.0025 6.31709e-18 0)
(-0.0025 5.39236e-18 0)
(-0.0025 4.02068e-18 0)
(-0.0025 3.07172e-18 0)
(-0.0025 1.83649e-18 0)
(-0.0025 1.20975e-18 0)
(-0.0025 5.89896e-19 0)
(-0.0025 -3.25543e-11 0)
(-0.0025 7.72191e-12 0)
(-0.0025 -1.83172e-12 0)
(-0.0025 4.3448e-13 0)
(-0.0025 -1.03069e-13 0)
(-0.0025 2.44398e-14 0)
(-0.0025 -5.80376e-15 0)
(-0.0025 1.37287e-15 0)
(-0.0025 -3.27067e-16 0)
(-0.0025 7.82727e-17 0)
(-0.0025 -1.63886e-17 0)
(-0.0025 6.98307e-18 0)
(-0.0025 2.01247e-18 0)
(-0.0025 3.31885e-18 0)
(-0.0025 2.88899e-18 0)
(-0.0025 2.32947e-18 0)
(-0.0025 1.62818e-18 0)
(-0.0025 1.09934e-18 0)
(-0.0025 9.47419e-19 0)
(-0.0025 5.49847e-19 0)
(-0.0025 3.25074e-11 0)
(-0.0025 -7.71106e-12 0)
(-0.0025 1.82913e-12 0)
(-0.0025 -4.33918e-13 0)
(-0.0025 1.02892e-13 0)
(-0.0025 -2.44409e-14 0)
(-0.0025 5.76926e-15 0)
(-0.0025 -1.39052e-15 0)
(-0.0025 3.13811e-16 0)
(-0.0025 -8.57292e-17 0)
(-0.0025 1.27682e-17 0)
(-0.0025 -7.59225e-18 0)
(-0.0025 -1.27131e-19 0)
(-0.0025 -4.10954e-19 0)
(-0.0025 6.07756e-19 0)
(-0.0025 7.38045e-19 0)
(-0.0025 5.40448e-19 0)
(-0.0025 3.15158e-19 0)
(-0.0025 2.33359e-19 0)
(-0.0025 2.65683e-19 0)
(-0.0025 -3.24629e-11 0)
(-0.0025 7.70068e-12 0)
(-0.0025 -1.82676e-12 0)
(-0.0025 4.33263e-13 0)
(-0.0025 -1.02842e-13 0)
(-0.0025 2.43344e-14 0)
(-0.0025 -5.82444e-15 0)
(-0.0025 1.34035e-15 0)
(-0.0025 -3.48803e-16 0)
(-0.0025 6.04729e-17 0)
(-0.0025 -2.98946e-17 0)
(-0.0025 -3.117e-18 0)
(-0.0025 -5.57674e-18 0)
(-0.0025 -2.58168e-18 0)
(-0.0025 -1.59109e-18 0)
(-0.0025 -5.79747e-19 0)
(-0.0025 -3.86122e-19 0)
(-0.0025 -5.18325e-19 0)
(-0.0025 -3.08021e-19 0)
(-0.0025 7.08114e-20 0)
(-0.0025 3.24233e-11 0)
(-0.0025 -7.69138e-12 0)
(-0.0025 1.8244e-12 0)
(-0.0025 -4.32877e-13 0)
(-0.0025 1.02576e-13 0)
(-0.0025 -2.44263e-14 0)
(-0.0025 5.71761e-15 0)
(-0.0025 -1.41546e-15 0)
(-0.0025 2.92085e-16 0)
(-0.0025 -1.00564e-16 0)
(-0.0025 2.03675e-18 0)
(-0.0025 -1.52985e-17 0)
(-0.0025 -6.52612e-18 0)
(-0.0025 -5.047e-18 0)
(-0.0025 -2.93766e-18 0)
(-0.0025 -1.76874e-18 0)
(-0.0025 -1.14649e-18 0)
(-0.0025 -1.02442e-18 0)
(-0.0025 -4.15745e-19 0)
(-0.0025 1.07446e-19 0)
(-0.0025 -3.23825e-11 0)
(-0.0025 7.68163e-12 0)
(-0.0025 -1.82235e-12 0)
(-0.0025 4.32111e-13 0)
(-0.0025 -1.02663e-13 0)
(-0.0025 2.4222e-14 0)
(-0.0025 -5.84748e-15 0)
(-0.0025 1.31235e-15 0)
(-0.0025 -3.65358e-16 0)
(-0.0025 4.83808e-17 0)
(-0.0025 -3.79756e-17 0)
(-0.0025 -8.87129e-18 0)
(-0.0025 -1.00626e-17 0)
(-0.0025 -5.63403e-18 0)
(-0.0025 -3.95342e-18 0)
(-0.0025 -2.67244e-18 0)
(-0.0025 -1.88351e-18 0)
(-0.0025 -1.35679e-18 0)
(-0.0025 -7.7346e-19 0)
(-0.0025 -9.7983e-20 0)
(-0.0025 3.23486e-11 0)
(-0.0025 -7.67366e-12 0)
(-0.0025 1.81998e-12 0)
(-0.0025 -4.31984e-13 0)
(-0.0025 1.02232e-13 0)
(-0.0025 -2.44235e-14 0)
(-0.0025 5.6688e-15 0)
(-0.0025 -1.43061e-15 0)
(-0.0025 2.79784e-16 0)
(-0.0025 -1.07012e-16 0)
(-0.0025 -2.00213e-18 0)
(-0.0025 -1.79268e-17 0)
(-0.0025 -8.3047e-18 0)
(-0.0025 -6.71596e-18 0)
(-0.0025 -4.23028e-18 0)
(-0.0025 -2.64917e-18 0)
(-0.0025 -1.78514e-18 0)
(-0.0025 -1.43574e-18 0)
(-0.0025 -9.98412e-19 0)
(-0.0025 -3.47927e-19 0)
(-0.0025 -3.231e-11 0)
(-0.0025 7.66424e-12 0)
(-0.0025 -1.81878e-12 0)
(-0.0025 4.30983e-13 0)
(-0.0025 -1.02579e-13 0)
(-0.0025 2.41292e-14 0)
(-0.0025 -5.85878e-15 0)
(-0.0025 1.30492e-15 0)
(-0.0025 -3.65388e-16 0)
(-0.0025 5.04215e-17 0)
(-0.0025 -3.60225e-17 0)
(-0.0025 -7.85358e-18 0)
(-0.0025 -9.45068e-18 0)
(-0.0025 -5.37272e-18 0)
(-0.0025 -3.64412e-18 0)
(-0.0025 -2.17612e-18 0)
(-0.0025 -1.53338e-18 0)
(-0.0025 -1.15978e-18 0)
(-0.0025 -6.76877e-19 0)
(-0.0025 -2.83155e-19 0)
(-0.0025 3.22862e-11 0)
(-0.0025 -7.65956e-12 0)
(-0.0025 1.81491e-12 0)
(-0.0025 -4.30953e-13 0)
(-0.0025 1.01776e-13 0)
(-0.0025 -2.43031e-14 0)
(-0.0025 5.6475e-15 0)
(-0.0025 -1.40167e-15 0)
(-0.0025 2.91041e-16 0)
(-0.0025 -9.46441e-17 0)
(-0.0025 5.35682e-18 0)
(-0.0025 -1.26935e-17 0)
(-0.0025 -4.71868e-18 0)
(-0.0025 -3.83013e-18 0)
(-0.0025 -2.20803e-18 0)
(-0.0025 -1.6304e-18 0)
(-0.0025 -1.16658e-18 0)
(-0.0025 -7.62159e-19 0)
(-0.0025 -3.22032e-19 0)
(-0.0025 -1.55904e-19 0)
(-0.0025 -3.22549e-11 0)
(-0.0025 7.65092e-12 0)
(-0.0025 -1.81672e-12 0)
(-0.0025 4.30838e-13 0)
(-0.0025 -1.02456e-13 0)
(-0.0025 2.42547e-14 0)
(-0.0025 -5.80381e-15 0)
(-0.0025 1.35538e-15 0)
(-0.0025 -3.37039e-16 0)
(-0.0025 7.07986e-17 0)
(-0.0025 -2.30941e-17 0)
(-0.0025 1.34588e-18 0)
(-0.0025 -3.1587e-18 0)
(-0.0025 -1.14223e-18 0)
(-0.0025 -9.71373e-19 0)
(-0.0025 -5.88661e-19 0)
(-0.0025 -3.44808e-19 0)
(-0.0025 -2.26422e-19 0)
(-0.0025 -1.17758e-19 0)
(-0.0025 -1.10511e-19 0)
)
;

boundaryField
{
    movingWall
    {
        type            calculated;
        value           uniform (-0.0025 -0 -0);
    }
    fixedWalls
    {
        type            calculated;
        value           uniform (-0.0025 -0 -0);
    }
    frontAndBack
    {
        type            empty;
    }
}


// ************************************************************************* //
