/*--------------------------------*- C++ -*----------------------------------*\
| =========                 |                                                 |
| \\      /  F ield         | OpenFOAM: The Open Source CFD Toolbox           |
|  \\    /   O peration     | Version:  2506                                  |
|   \\  /    A nd           | Website:  www.openfoam.com                      |
|    \\/     M anipulation  |                                                 |
\*---------------------------------------------------------------------------*/
FoamFile
{
    version     2.0;
    format      ascii;
    arch        "LSB;label=32;scalar=64";
    class       volScalarField;
    location    "4.5";
    object      P_A;
}
// * * * * * * * * * * * * * * * * * * * * * * * * * * * * * * * * * * * * * //

dimensions      [1 -1 -3 0 0 0 0];

internalField   nonuniform List<scalar> 
400
(
2.8362e-30
2.83615e-30
2.83612e-30
2.83608e-30
2.83607e-30
2.83601e-30
2.83603e-30
2.83594e-30
2.836e-30
2.8359e-30
2.83596e-30
2.83589e-30
2.83594e-30
2.83587e-30
2.83592e-30
2.83587e-30
2.8359e-30
2.83588e-30
2.83588e-30
2.83588e-30
4.69885e-30
4.56919e-30
4.57752e-30
4.58105e-30
4.58825e-30
4.59211e-30
4.59954e-30
4.60367e-30
4.6113e-30
4.61574e-30
4.62355e-30
4.62832e-30
4.63631e-30
4.64141e-30
4.6496e-30
4.65501e-30
4.66344e-30
4.66912e-30
4.67343e-30
4.68072e-30
8.27225e-30
8.02325e-30
8.03922e-30
8.0459e-30
8.05969e-30
8.06698e-30
8.08107e-30
8.08901e-30
8.10344e-30
8.11198e-30
8.12673e-30
8.13586e-30
8.15099e-30
8.1607e-30
8.17623e-30
8.18646e-30
8.2025e-30
8.21316e-30
8.22136e-30
8.23514e-30
1.24096e-29
1.20135e-29
1.20387e-29
1.20488e-29
1.20706e-29
1.20818e-29
1.21042e-29
1.21165e-29
1.21392e-29
1.21527e-29
1.21759e-29
1.21904e-29
1.22142e-29
1.22296e-29
1.22541e-29
1.22704e-29
1.22957e-29
1.23128e-29
1.23257e-29
1.23476e-29
1.5854e-29
1.53297e-29
1.5362e-29
1.53759e-29
1.5404e-29
1.54192e-29
1.5448e-29
1.54646e-29
1.54942e-29
1.55122e-29
1.55424e-29
1.55619e-29
1.55928e-29
1.56136e-29
1.56456e-29
1.56674e-29
1.57006e-29
1.57233e-29
1.57404e-29
1.57694e-29
1.81973e-29
1.75835e-29
1.76217e-29
1.76369e-29
1.76703e-29
1.76874e-29
1.77214e-29
1.77405e-29
1.77749e-29
1.77961e-29
1.7831e-29
1.7854e-29
1.789e-29
1.79143e-29
1.79517e-29
1.79772e-29
1.8016e-29
1.80426e-29
1.80626e-29
1.80966e-29
1.96502e-29
1.89799e-29
1.90211e-29
1.90382e-29
1.90737e-29
1.90931e-29
1.91293e-29
1.91507e-29
1.91879e-29
1.9211e-29
1.92493e-29
1.9274e-29
1.93136e-29
1.93399e-29
1.93807e-29
1.94085e-29
1.94509e-29
1.94799e-29
1.95017e-29
1.95388e-29
2.05552e-29
1.98498e-29
1.98926e-29
1.99109e-29
1.99481e-29
1.99685e-29
2.00067e-29
2.0029e-29
2.00681e-29
2.00925e-29
2.01324e-29
2.01589e-29
2.02e-29
2.0228e-29
2.02707e-29
2.03001e-29
2.03446e-29
2.03752e-29
2.03981e-29
2.04371e-29
2.11741e-29
2.04446e-29
2.04888e-29
2.05076e-29
2.05461e-29
2.05672e-29
2.06063e-29
2.06298e-29
2.06698e-29
2.06953e-29
2.07363e-29
2.07638e-29
2.08062e-29
2.08354e-29
2.08794e-29
2.09099e-29
2.09558e-29
2.09875e-29
2.10112e-29
2.10515e-29
2.16646e-29
2.09158e-29
2.09614e-29
2.09804e-29
2.10202e-29
2.10411e-29
2.10824e-29
2.1105e-29
2.11476e-29
2.11723e-29
2.12158e-29
2.12428e-29
2.12872e-29
2.13164e-29
2.1362e-29
2.1393e-29
2.14403e-29
2.14727e-29
2.1497e-29
2.15384e-29
2.21144e-29
2.1348e-29
2.13949e-29
2.1414e-29
2.14549e-29
2.14764e-29
2.15179e-29
2.15422e-29
2.15845e-29
2.16109e-29
2.16544e-29
2.16828e-29
2.17276e-29
2.1758e-29
2.18043e-29
2.18362e-29
2.18845e-29
2.19177e-29
2.19426e-29
2.1985e-29
2.25731e-29
2.17889e-29
2.18373e-29
2.18565e-29
2.18986e-29
2.19202e-29
2.19632e-29
2.19873e-29
2.20311e-29
2.20579e-29
2.21022e-29
2.21315e-29
2.21771e-29
2.22082e-29
2.22557e-29
2.22883e-29
2.23377e-29
2.23717e-29
2.23972e-29
2.24405e-29
2.30732e-29
2.22693e-29
2.23181e-29
2.23385e-29
2.23807e-29
2.24038e-29
2.24472e-29
2.24722e-29
2.25172e-29
2.25441e-29
2.25905e-29
2.26196e-29
2.2667e-29
2.26985e-29
2.27473e-29
2.27806e-29
2.28313e-29
2.28661e-29
2.28922e-29
2.29367e-29
2.36385e-29
2.28124e-29
2.28633e-29
2.28835e-29
2.29275e-29
2.29508e-29
2.29952e-29
2.30214e-29
2.30665e-29
2.30953e-29
2.31418e-29
2.31727e-29
2.32206e-29
2.32535e-29
2.33032e-29
2.33378e-29
2.33897e-29
2.34256e-29
2.34523e-29
2.3498e-29
2.42943e-29
2.34423e-29
2.34936e-29
2.35152e-29
2.35602e-29
2.35841e-29
2.36303e-29
2.36566e-29
2.37041e-29
2.37326e-29
2.37818e-29
2.38123e-29
2.38631e-29
2.38958e-29
2.39481e-29
2.39829e-29
2.4037e-29
2.40737e-29
2.41014e-29
2.41484e-29
2.50622e-29
2.418e-29
2.42329e-29
2.42555e-29
2.43013e-29
2.43269e-29
2.43739e-29
2.4402e-29
2.44504e-29
2.44808e-29
2.45305e-29
2.45634e-29
2.46146e-29
2.46497e-29
2.47028e-29
2.47397e-29
2.47951e-29
2.48334e-29
2.48619e-29
2.49107e-29
2.59501e-29
2.50324e-29
2.50882e-29
2.51106e-29
2.51596e-29
2.51847e-29
2.52348e-29
2.52626e-29
2.53142e-29
2.53444e-29
2.53974e-29
2.54303e-29
2.54846e-29
2.55201e-29
2.55761e-29
2.56137e-29
2.56719e-29
2.57114e-29
2.57413e-29
2.5792e-29
2.69088e-29
2.59536e-29
2.60107e-29
2.60349e-29
2.60847e-29
2.61118e-29
2.61631e-29
2.61926e-29
2.62457e-29
2.62777e-29
2.63322e-29
2.63672e-29
2.64229e-29
2.64606e-29
2.65183e-29
2.6558e-29
2.66182e-29
2.66595e-29
2.66905e-29
2.67433e-29
2.77765e-29
2.68088e-29
2.68662e-29
2.68891e-29
2.69397e-29
2.69659e-29
2.70182e-29
2.70474e-29
2.7101e-29
2.71333e-29
2.71885e-29
2.72239e-29
2.72808e-29
2.73192e-29
2.73782e-29
2.74192e-29
2.74805e-29
2.75239e-29
2.75555e-29
2.76101e-29
2.81483e-29
2.81475e-29
2.81472e-29
2.8147e-29
2.81465e-29
2.81465e-29
2.8146e-29
2.8146e-29
2.81456e-29
2.81457e-29
2.81453e-29
2.81455e-29
2.81452e-29
2.81453e-29
2.81452e-29
2.81452e-29
2.81452e-29
2.81452e-29
2.81451e-29
2.81451e-29
)
;

boundaryField
{
    movingWall
    {
        type            calculated;
        value           nonuniform List<scalar> 
20
(
2.81483e-29
2.81475e-29
2.81472e-29
2.8147e-29
2.81465e-29
2.81465e-29
2.8146e-29
2.8146e-29
2.81456e-29
2.81457e-29
2.81453e-29
2.81455e-29
2.81452e-29
2.81453e-29
2.81452e-29
2.81452e-29
2.81452e-29
2.81452e-29
2.81451e-29
2.81451e-29
)
;
    }
    fixedWalls
    {
        type            calculated;
        value           nonuniform List<scalar> 
60
(
2.8362e-30
4.69885e-30
8.27225e-30
1.24096e-29
1.5854e-29
1.81973e-29
1.96502e-29
2.05552e-29
2.11741e-29
2.16646e-29
2.21144e-29
2.25731e-29
2.30732e-29
2.36385e-29
2.42943e-29
2.50622e-29
2.59501e-29
2.69088e-29
2.77765e-29
2.81483e-29
2.83588e-30
4.68072e-30
8.23514e-30
1.23476e-29
1.57694e-29
1.80966e-29
1.95388e-29
2.04371e-29
2.10515e-29
2.15384e-29
2.1985e-29
2.24405e-29
2.29367e-29
2.3498e-29
2.41484e-29
2.49107e-29
2.5792e-29
2.67433e-29
2.76101e-29
2.81451e-29
2.8362e-30
2.83615e-30
2.83612e-30
2.83608e-30
2.83607e-30
2.83601e-30
2.83603e-30
2.83594e-30
2.836e-30
2.8359e-30
2.83596e-30
2.83589e-30
2.83594e-30
2.83587e-30
2.83592e-30
2.83587e-30
2.8359e-30
2.83588e-30
2.83588e-30
2.83588e-30
)
;
    }
    frontAndBack
    {
        type            empty;
    }
}


// ************************************************************************* //
