/*--------------------------------*- C++ -*----------------------------------*\
| =========                 |                                                 |
| \\      /  F ield         | OpenFOAM: The Open Source CFD Toolbox           |
|  \\    /   O peration     | Version:  2506                                  |
|   \\  /    A nd           | Website:  www.openfoam.com                      |
|    \\/     M anipulation  |                                                 |
\*---------------------------------------------------------------------------*/
FoamFile
{
    version     2.0;
    format      ascii;
    arch        "LSB;label=32;scalar=64";
    class       surfaceScalarField;
    location    "4.5";
    object      PecletNoField;
}
// * * * * * * * * * * * * * * * * * * * * * * * * * * * * * * * * * * * * * //

dimensions      [0 0 0 0 0 0 0];

oriented        oriented;

internalField   nonuniform List<scalar> 
760
(
401.269
2.2671e-10
401.269
5.41188e-10
401.27
5.98958e-10
401.27
1.11179e-11
401.27
1.1968e-10
401.27
1.09456e-11
401.27
2.24164e-11
401.27
7.26186e-12
401.27
6.57776e-12
401.27
3.75823e-12
401.27
2.80371e-12
401.27
1.90671e-12
401.27
1.38032e-12
401.27
9.43765e-13
401.27
6.73687e-13
401.27
5.02026e-13
401.27
3.69918e-13
401.27
2.29276e-13
401.27
1.1718e-13
8.15707e-14
395.076
4.30129e-09
394.027
4.07154e-09
394.179
2.5022e-10
394.311
3.12203e-10
394.444
2.12176e-11
394.575
4.78347e-11
394.708
2.2281e-11
394.839
1.60253e-11
394.971
1.02677e-11
395.102
7.00888e-12
395.234
4.88847e-12
395.365
3.48413e-12
395.496
2.52494e-12
395.626
1.85057e-12
395.757
1.34679e-12
395.888
9.41656e-13
396.018
6.44292e-13
396.11
4.21539e-13
396.214
2.25832e-13
1.70323e-14
389.044
4.22845e-09
387.855
4.73439e-09
388.03
5.1276e-10
388.182
2.13332e-10
388.335
1.23784e-10
388.486
2.20393e-11
388.638
3.16392e-11
388.788
1.64846e-11
388.939
1.28711e-11
389.088
8.67938e-12
389.238
6.33886e-12
389.386
4.54602e-12
389.535
3.36014e-12
389.682
2.45217e-12
389.83
1.77428e-12
389.977
1.27426e-12
390.123
9.00904e-13
390.225
6.06055e-13
390.342
3.20766e-13
9.75807e-14
384.558
5.29188e-09
383.26
5.25491e-09
383.452
4.19398e-10
383.618
3.23989e-10
383.785
3.3588e-11
383.95
4.30549e-11
384.116
1.78762e-11
384.28
1.83018e-11
384.445
1.24207e-11
384.608
9.423e-12
384.771
6.89408e-12
384.933
5.11925e-12
385.096
3.76708e-12
385.256
2.81556e-12
385.418
2.09475e-12
385.577
1.5709e-12
385.737
1.0887e-12
385.849
6.50472e-13
385.976
3.763e-13
1.37204e-13
381.778
4.40616e-09
380.411
4.77316e-09
380.614
4.32618e-10
380.788
2.18348e-10
380.965
9.21494e-11
381.139
1.22411e-11
381.314
2.39448e-11
381.487
1.42229e-11
381.661
1.2049e-11
381.833
8.94037e-12
382.005
6.88469e-12
382.176
5.13937e-12
382.348
3.91554e-12
382.517
2.97152e-12
382.687
2.26392e-12
382.856
1.65976e-12
383.024
1.12884e-12
383.142
7.09628e-13
383.276
4.38813e-13
1.70635e-13
380.192
4.35222e-09
378.783
4.39112e-09
378.992
3.71228e-10
379.173
2.37494e-10
379.355
3.62438e-11
379.534
2.77452e-11
379.715
1.15503e-11
379.893
1.35607e-11
380.072
1.00401e-11
380.249
8.19898e-12
380.427
6.3663e-12
380.603
4.95872e-12
380.779
3.81012e-12
380.954
2.92822e-12
381.129
2.23506e-12
381.302
1.62768e-12
381.476
1.18079e-12
381.598
7.64169e-13
381.736
4.05259e-13
1.67131e-13
379.301
3.38057e-09
377.871
3.65106e-09
378.083
3.32446e-10
378.266
1.60339e-10
378.452
5.95138e-11
378.634
5.74523e-12
378.818
1.49342e-11
378.998
9.55095e-12
379.181
8.66709e-12
379.36
6.86719e-12
379.541
5.54028e-12
379.72
4.40892e-12
379.899
3.47993e-12
380.077
2.67737e-12
380.255
1.99825e-12
380.431
1.52279e-12
380.608
1.07461e-12
380.731
7.24135e-13
380.871
4.01412e-13
1.36638e-13
378.777
3.05595e-09
377.334
3.1286e-09
377.548
2.84694e-10
377.733
1.53212e-10
377.92
2.73482e-11
378.104
1.57302e-11
378.289
6.33513e-12
378.472
8.16462e-12
378.656
6.41655e-12
378.837
5.51166e-12
379.02
4.48994e-12
379.2
3.66772e-12
379.381
2.89562e-12
379.56
2.27962e-12
379.74
1.75351e-12
379.918
1.37754e-12
380.096
9.42607e-13
380.221
5.52289e-13
380.362
3.34272e-13
1.33019e-13
378.431
2.33385e-09
376.979
2.52346e-09
377.195
2.44274e-10
377.381
1.06572e-10
377.569
3.51749e-11
377.754
1.49416e-12
377.941
7.65188e-12
378.125
4.91686e-12
378.31
4.72296e-12
378.492
3.91829e-12
378.676
3.31761e-12
378.857
2.7256e-12
379.04
2.22921e-12
379.219
1.81293e-12
379.4
1.42285e-12
379.579
1.04472e-12
379.759
7.36322e-13
379.884
4.98099e-13
380.026
2.724e-13
9.34998e-14
378.164
2.02666e-09
376.706
2.11851e-09
376.922
2.11185e-10
377.109
9.55167e-11
377.299
2.03253e-11
377.484
7.10012e-12
377.672
1.70818e-12
377.856
3.21315e-12
378.042
2.61545e-12
378.226
2.46514e-12
378.41
2.15804e-12
378.592
1.82621e-12
378.775
1.50108e-12
378.956
1.26492e-12
379.138
1.00184e-12
379.318
7.44736e-13
379.498
6.01368e-13
379.624
3.68117e-13
379.767
2.08093e-13
9.16992e-14
377.925
1.63753e-09
376.46
1.75648e-09
376.677
1.83251e-10
376.865
7.55602e-11
377.055
1.91929e-11
377.242
2.80293e-12
377.43
1.68049e-12
377.615
4.67376e-13
377.802
8.3059e-13
377.986
8.79555e-13
378.172
8.94495e-13
378.354
8.77617e-13
378.538
8.16035e-13
378.72
7.36327e-13
378.902
6.49872e-13
379.083
4.95734e-13
379.264
3.43101e-13
379.39
2.03251e-13
379.534
1.64991e-13
8.35217e-14
377.686
1.39322e-09
376.214
1.50819e-09
376.432
1.65903e-10
376.621
6.23312e-11
376.811
1.88941e-11
376.999
1.85842e-13
377.188
2.93975e-12
377.374
1.23594e-12
377.561
9.87251e-13
377.747
5.61084e-13
377.933
2.65542e-13
378.117
6.01627e-14
378.301
1.44393e-13
378.483
2.01922e-13
378.667
2.54014e-13
378.848
2.35379e-13
379.03
1.57343e-13
379.156
1.07693e-13
379.301
8.657e-14
9.10407e-14
377.429
1.2959e-09
375.952
1.35284e-09
376.172
1.4783e-10
376.361
6.46859e-11
376.553
8.01422e-12
376.741
7.9778e-12
376.931
3.85121e-12
377.117
3.79354e-12
377.306
2.61723e-12
377.491
1.89592e-12
377.678
1.30375e-12
377.863
8.2424e-13
378.048
4.49318e-13
378.231
2.23309e-13
378.415
7.77089e-14
378.597
8.45524e-16
378.78
3.84465e-15
378.907
1.45822e-14
379.052
1.63469e-15
1.32829e-14
377.146
1.03373e-09
375.661
1.18473e-09
375.882
1.44991e-10
376.072
4.1465e-11
376.264
2.29149e-11
376.454
6.87026e-12
376.645
8.13254e-12
376.833
5.63035e-12
377.022
4.27624e-12
377.208
3.03446e-12
377.396
2.1076e-12
377.581
1.38369e-12
377.768
8.93849e-13
377.952
5.97653e-13
378.137
3.80854e-13
378.319
1.83026e-13
378.503
8.48084e-14
378.63
1.11031e-13
378.776
6.00543e-14
2.34092e-14
376.825
1.15991e-09
375.334
1.15099e-09
375.555
1.22066e-10
375.747
6.73338e-11
375.94
3.90016e-12
376.13
1.49756e-11
376.322
9.52897e-12
376.511
7.70578e-12
376.701
5.50836e-12
376.889
3.93219e-12
377.077
2.71672e-12
377.264
1.8505e-12
377.451
1.30679e-12
377.636
8.16619e-13
377.821
5.05674e-13
378.005
3.43603e-13
378.19
2.55688e-13
378.318
1.92875e-13
378.464
8.00174e-14
9.36793e-15
376.459
7.39771e-10
374.96
9.48688e-10
375.182
1.43321e-10
375.375
1.78854e-11
375.57
3.28737e-11
375.761
1.5157e-11
375.954
1.33897e-11
376.144
8.92791e-12
376.335
6.46947e-12
376.524
4.46968e-12
376.714
3.0645e-12
376.901
2.02821e-12
377.089
1.36879e-12
377.275
9.25617e-13
377.462
6.15825e-13
377.647
4.02723e-13
377.833
2.85787e-13
377.962
2.15359e-13
378.109
1.59415e-13
4.09883e-14
376.051
1.11861e-09
374.54
1.01503e-09
374.765
7.25108e-11
374.958
7.80854e-11
375.154
2.29928e-11
375.347
2.17397e-11
375.541
1.43424e-11
375.732
9.60233e-12
375.925
6.56265e-12
376.115
4.33239e-12
376.306
2.89821e-12
376.495
1.9743e-12
376.685
1.3705e-12
376.872
9.38988e-13
377.06
6.23559e-13
377.246
3.76645e-13
377.433
2.45477e-13
377.563
1.99545e-13
377.711
1.33865e-13
6.97388e-14
375.624
2.37001e-10
374.104
5.47808e-10
374.33
1.883e-10
374.525
1.21587e-11
374.722
5.60842e-11
374.916
1.70071e-11
375.112
1.59526e-11
375.304
7.85802e-12
375.498
5.71427e-12
375.689
3.43189e-12
375.881
2.34663e-12
376.072
1.59008e-12
376.263
1.07962e-12
376.451
6.90168e-13
376.64
4.35302e-13
376.828
2.81865e-13
377.016
2.09124e-13
377.147
1.50283e-13
377.296
6.56282e-14
1.68528e-14
375.288
1.0736e-09
373.79
6.32344e-10
374.008
3.5053e-10
374.197
1.52454e-11
374.388
7.44461e-11
374.576
1.71895e-13
374.767
1.41142e-11
374.955
3.23955e-12
375.145
3.7266e-12
375.333
1.81124e-12
375.523
1.39179e-12
375.71
8.59708e-13
375.899
6.16607e-13
376.086
3.95923e-13
376.274
2.41858e-13
376.461
1.74515e-13
376.649
1.17461e-13
376.781
7.26841e-14
376.93
3.13647e-14
3.06682e-14
376.801
376.802
376.802
376.802
376.802
376.802
376.802
376.802
376.802
376.802
376.802
376.802
376.802
376.803
376.802
376.803
376.803
376.803
376.803
)
;

boundaryField
{
    movingWall
    {
        type            calculated;
        value           uniform 0;
    }
    fixedWalls
    {
        type            calculated;
        value           nonuniform List<scalar> 
60
(
250
250
250
250
250
250
250
250
250
250
250
250
250
250
250
250
250
250
250
250
250
250
250
250
250
250
250
250
250
250
250
250
250
250
250
250
250
250
250
250
0
0
0
0
0
0
0
0
0
0
0
0
0
0
0
0
0
0
0
0
)
;
    }
    frontAndBack
    {
        type            empty;
    }
}


// ************************************************************************* //
