/*--------------------------------*- C++ -*----------------------------------*\
| =========                 |                                                 |
| \\      /  F ield         | OpenFOAM: The Open Source CFD Toolbox           |
|  \\    /   O peration     | Version:  2506                                  |
|   \\  /    A nd           | Website:  www.openfoam.com                      |
|    \\/     M anipulation  |                                                 |
\*---------------------------------------------------------------------------*/
FoamFile
{
    version     2.0;
    format      ascii;
    arch        "LSB;label=32;scalar=64";
    class       surfaceScalarField;
    location    "4.5";
    object      phi;
}
// * * * * * * * * * * * * * * * * * * * * * * * * * * * * * * * * * * * * * //

dimensions      [0 3 -1 0 0 0 0];

oriented        oriented;

internalField   nonuniform List<scalar> 
760
(
-5e-05
-2.84284e-17
-5e-05
-6.80637e-17
-5e-05
7.53084e-17
-5e-05
-1.39773e-18
-5e-05
1.50426e-17
-5e-05
1.37559e-18
-5e-05
2.81657e-18
-5e-05
9.12326e-19
-5e-05
8.26205e-19
-5e-05
4.71997e-19
-5e-05
3.52044e-19
-5e-05
2.39383e-19
-5e-05
1.73261e-19
-5e-05
1.18448e-19
-5e-05
8.45345e-20
-5e-05
6.29862e-20
-5e-05
4.6402e-20
-5e-05
2.87563e-20
-5e-05
1.46955e-20
1.02281e-20
-5e-05
-5.46846e-16
-5e-05
5.20923e-16
-5e-05
-3.19947e-17
-5e-05
3.99106e-17
-5e-05
2.71106e-18
-5e-05
6.11047e-18
-5e-05
2.84488e-18
-5e-05
2.04561e-18
-5e-05
1.31005e-18
-5e-05
8.94025e-19
-5e-05
6.23275e-19
-5e-05
4.44103e-19
-5e-05
3.21699e-19
-5e-05
2.35713e-19
-5e-05
1.71471e-19
-5e-05
1.19857e-19
-5e-05
8.19723e-20
-5e-05
5.36168e-20
-5e-05
2.87182e-20
2.16517e-21
-5e-05
5.44663e-16
-5e-05
-6.14196e-16
-5e-05
6.64759e-17
-5e-05
-2.76493e-17
-5e-05
1.60345e-17
-5e-05
2.85407e-18
-5e-05
4.09508e-18
-5e-05
2.13298e-18
-5e-05
1.66456e-18
-5e-05
1.12213e-18
-5e-05
8.19116e-19
-5e-05
5.87264e-19
-5e-05
4.33855e-19
-5e-05
3.16522e-19
-5e-05
2.28909e-19
-5e-05
1.64348e-19
-5e-05
1.16139e-19
-5e-05
7.81042e-20
-5e-05
4.13282e-20
1.25676e-20
-5e-05
-6.87889e-16
-5e-05
6.88372e-16
-5e-05
-5.48994e-17
-5e-05
4.23974e-17
-5e-05
-4.39277e-18
-5e-05
5.62912e-18
-5e-05
2.33584e-18
-5e-05
2.3907e-18
-5e-05
1.62157e-18
-5e-05
1.2298e-18
-5e-05
8.99258e-19
-5e-05
6.67531e-19
-5e-05
4.90949e-19
-5e-05
3.66819e-19
-5e-05
2.72766e-19
-5e-05
2.04485e-19
-5e-05
1.41643e-19
-5e-05
8.45997e-20
-5e-05
4.89285e-20
1.78325e-20
-5e-05
5.75925e-16
-5e-05
-6.28957e-16
-5e-05
5.69623e-17
-5e-05
-2.87404e-17
-5e-05
1.21219e-17
-5e-05
1.60974e-18
-5e-05
3.14691e-18
-5e-05
1.8686e-18
-5e-05
1.58206e-18
-5e-05
1.1735e-18
-5e-05
9.03148e-19
-5e-05
6.73962e-19
-5e-05
5.13182e-19
-5e-05
3.89321e-19
-5e-05
2.96449e-19
-5e-05
2.1726e-19
-5e-05
1.47683e-19
-5e-05
9.28064e-20
-5e-05
5.73732e-20
2.23001e-20
-5e-05
-5.70668e-16
-5e-05
5.80562e-16
-5e-05
-4.90426e-17
-5e-05
3.13648e-17
-5e-05
-4.78353e-18
-5e-05
3.66065e-18
-5e-05
1.52298e-18
-5e-05
1.78745e-18
-5e-05
1.3226e-18
-5e-05
1.07969e-18
-5e-05
8.37854e-19
-5e-05
6.52377e-19
-5e-05
5.00974e-19
-5e-05
3.84881e-19
-5e-05
2.93605e-19
-5e-05
2.1374e-19
-5e-05
1.5497e-19
-5e-05
1.00256e-19
-5e-05
5.31534e-20
2.19109e-20
-5e-05
4.44063e-16
-5e-05
-4.83646e-16
-5e-05
4.40031e-17
-5e-05
-2.12158e-17
-5e-05
7.86967e-18
-5e-05
7.5945e-19
-5e-05
1.97288e-18
-5e-05
1.26129e-18
-5e-05
1.14386e-18
-5e-05
9.05999e-19
-5e-05
7.30498e-19
-5e-05
5.81119e-19
-5e-05
4.58402e-19
-5e-05
3.52556e-19
-5e-05
2.62978e-19
-5e-05
2.00331e-19
-5e-05
1.41291e-19
-5e-05
9.51753e-20
-5e-05
5.27439e-20
1.79454e-20
-5e-05
-4.01868e-16
-5e-05
4.1493e-16
-5e-05
-3.77269e-17
-5e-05
2.02966e-17
-5e-05
-3.62055e-18
-5e-05
2.08177e-18
-5e-05
8.37871e-19
-5e-05
1.07946e-18
-5e-05
8.47817e-19
-5e-05
7.27998e-19
-5e-05
5.92683e-19
-5e-05
4.83977e-19
-5e-05
3.81865e-19
-5e-05
3.0052e-19
-5e-05
2.31029e-19
-5e-05
1.81427e-19
-5e-05
1.24074e-19
-5e-05
7.267e-20
-5e-05
4.39708e-20
1.74895e-20
-5e-05
3.0715e-16
-5e-05
-3.34953e-16
-5e-05
3.23975e-17
-5e-05
-1.41297e-17
-5e-05
4.66055e-18
-5e-05
1.97902e-19
-5e-05
1.01285e-18
-5e-05
6.50598e-19
-5e-05
6.24552e-19
-5e-05
5.17958e-19
-5e-05
4.38288e-19
-5e-05
3.59947e-19
-5e-05
2.94217e-19
-5e-05
2.39187e-19
-5e-05
1.87612e-19
-5e-05
1.37702e-19
-5e-05
9.69974e-20
-5e-05
6.55913e-20
-5e-05
3.58602e-20
1.23031e-20
-5e-05
-2.66895e-16
-5e-05
2.81395e-16
-5e-05
-2.80282e-17
-5e-05
1.26726e-17
-5e-05
-2.69487e-18
-5e-05
9.41054e-19
-5e-05
2.26258e-19
-5e-05
4.2545e-19
-5e-05
3.46093e-19
-5e-05
3.26085e-19
-5e-05
2.85287e-19
-5e-05
2.41332e-19
-5e-05
1.98248e-19
-5e-05
1.66997e-19
-5e-05
1.32186e-19
-5e-05
9.82266e-20
-5e-05
7.92714e-20
-5e-05
4.85064e-20
-5e-05
2.74123e-20
1.2074e-20
-5e-05
2.15782e-16
-5e-05
-2.33461e-16
-5e-05
2.43368e-17
-5e-05
-1.00314e-17
-5e-05
2.54638e-18
-5e-05
-3.71741e-19
-5e-05
2.22734e-19
-5e-05
6.19244e-20
-5e-05
1.09979e-19
-5e-05
1.1642e-19
-5e-05
1.18325e-19
-5e-05
1.1605e-19
-5e-05
1.07841e-19
-5e-05
9.72717e-20
-5e-05
8.58e-20
-5e-05
6.54253e-20
-5e-05
4.52549e-20
-5e-05
2.67987e-20
-5e-05
2.17477e-20
1.1004e-20
-5e-05
-1.83706e-16
-5e-05
2.00596e-16
-5e-05
-2.20476e-17
-5e-05
8.28065e-18
-5e-05
-2.50841e-18
-5e-05
2.46639e-20
-5e-05
-3.89896e-19
-5e-05
-1.63862e-19
-5e-05
-1.30809e-19
-5e-05
-7.43153e-20
-5e-05
-3.51492e-20
-5e-05
-7.96066e-21
-5e-05
1.90943e-20
-5e-05
2.6692e-20
-5e-05
3.35581e-20
-5e-05
3.10845e-20
-5e-05
2.07669e-20
-5e-05
1.42084e-20
-5e-05
1.14182e-20
1.20022e-20
-5e-05
1.70991e-16
-5e-05
-1.80066e-16
-5e-05
1.96602e-17
-5e-05
-8.59976e-18
-5e-05
1.06475e-18
-5e-05
-1.05954e-18
-5e-05
-5.1115e-19
-5e-05
-5.03315e-19
-5e-05
-3.47025e-19
-5e-05
-2.51293e-19
-5e-05
-1.72697e-19
-5e-05
-1.0914e-19
-5e-05
-5.94592e-20
-5e-05
-2.95399e-20
-5e-05
-1.02734e-20
-5e-05
-1.11739e-22
-5e-05
-5.07788e-22
-5e-05
-1.92523e-21
-5e-05
-2.15759e-22
-1.75234e-21
-5e-05
-1.36505e-16
-5e-05
1.5782e-16
-5e-05
-1.92985e-17
-5e-05
5.51714e-18
-5e-05
-3.04691e-18
-5e-05
-9.13188e-19
-5e-05
-1.08026e-18
-5e-05
-7.4762e-19
-5e-05
-5.67453e-19
-5e-05
-4.02522e-19
-5e-05
-2.79399e-19
-5e-05
-1.83364e-19
-5e-05
-1.18379e-19
-5e-05
-7.91214e-20
-5e-05
-5.039e-20
-5e-05
-2.42065e-20
-5e-05
-1.12099e-20
-5e-05
-1.46704e-20
-5e-05
-7.93257e-21
3.09064e-21
-5e-05
1.53302e-16
-5e-05
-1.5347e-16
-5e-05
1.62623e-17
-5e-05
-8.96746e-18
-5e-05
-5.19069e-19
-5e-05
-1.99239e-18
-5e-05
-1.26692e-18
-5e-05
-1.02414e-18
-5e-05
-7.31623e-19
-5e-05
-5.22082e-19
-5e-05
-3.60476e-19
-5e-05
-2.45447e-19
-5e-05
-1.73224e-19
-5e-05
-1.08207e-19
-5e-05
-6.69645e-20
-5e-05
-4.54845e-20
-5e-05
-3.38267e-20
-5e-05
-2.55069e-20
-5e-05
-1.05788e-20
1.23791e-21
-5e-05
-9.78707e-17
-5e-05
1.2663e-16
-5e-05
-1.91141e-17
-5e-05
2.38446e-18
-5e-05
-4.37972e-18
-5e-05
-2.01862e-18
-5e-05
-1.78207e-18
-5e-05
-1.1878e-18
-5e-05
-8.60166e-19
-5e-05
-5.94056e-19
-5e-05
-4.07039e-19
-5e-05
-2.69293e-19
-5e-05
-1.81627e-19
-5e-05
-1.22774e-19
-5e-05
-8.16337e-20
-5e-05
-5.33642e-20
-5e-05
-3.78466e-20
-5e-05
-2.85088e-20
-5e-05
-2.10967e-20
-5.42171e-21
-5e-05
1.48151e-16
-5e-05
-1.3564e-16
-5e-05
9.68151e-18
-5e-05
-1.04221e-17
-5e-05
-3.06677e-18
-5e-05
-2.89857e-18
-5e-05
-1.91101e-18
-5e-05
-1.27896e-18
-5e-05
-8.73529e-19
-5e-05
-5.76448e-19
-5e-05
-3.85379e-19
-5e-05
-2.62424e-19
-5e-05
-1.82054e-19
-5e-05
-1.24684e-19
-5e-05
-8.27491e-20
-5e-05
-4.99631e-20
-5e-05
-3.25438e-20
-5e-05
-2.64439e-20
-5e-05
-1.77346e-20
-9.23459e-21
-5e-05
-3.14211e-17
-5e-05
7.32775e-17
-5e-05
-2.51668e-17
-5e-05
-1.62448e-18
-5e-05
-7.48812e-18
-5e-05
-2.2699e-18
-5e-05
-2.12776e-18
-5e-05
-1.04771e-18
-5e-05
-7.61395e-19
-5e-05
-4.57105e-19
-5e-05
-3.1236e-19
-5e-05
-2.11574e-19
-5e-05
-1.43564e-19
-5e-05
-9.174e-20
-5e-05
-5.7827e-20
-5e-05
-3.74291e-20
-5e-05
-2.77532e-20
-5e-05
-1.99363e-20
-5e-05
-8.70354e-21
-2.23391e-21
-5e-05
1.42434e-16
-5e-05
-8.42648e-17
-5e-05
-4.66917e-17
-5e-05
2.03037e-18
-5e-05
-9.91143e-18
-5e-05
-2.28811e-20
-5e-05
-1.87815e-18
-5e-05
-4.31001e-19
-5e-05
-4.95643e-19
-5e-05
-2.40851e-19
-5e-05
-1.85017e-19
-5e-05
-1.14263e-19
-5e-05
-8.19276e-20
-5e-05
-5.25951e-20
-5e-05
-3.21192e-20
-5e-05
-2.31712e-20
-5e-05
-1.55913e-20
-5e-05
-9.64585e-21
-5e-05
-4.16176e-21
-4.06834e-21
-5e-05
-5e-05
-5e-05
-5e-05
-5e-05
-5e-05
-5e-05
-5e-05
-5e-05
-5e-05
-5e-05
-5e-05
-5e-05
-5e-05
-5e-05
-5e-05
-5e-05
-5e-05
-5e-05
)
;

boundaryField
{
    movingWall
    {
        type            calculated;
        value           uniform 0;
    }
    fixedWalls
    {
        type            calculated;
        value           nonuniform List<scalar> 
60
(
5e-05
5e-05
5e-05
5e-05
5e-05
5e-05
5e-05
5e-05
5e-05
5e-05
5e-05
5e-05
5e-05
5e-05
5e-05
5e-05
5e-05
5e-05
5e-05
5e-05
-5e-05
-5e-05
-5e-05
-5e-05
-5e-05
-5e-05
-5e-05
-5e-05
-5e-05
-5e-05
-5e-05
-5e-05
-5e-05
-5e-05
-5e-05
-5e-05
-5e-05
-5e-05
-5e-05
-5e-05
0
0
0
0
0
0
0
0
0
0
0
0
0
0
0
0
0
0
0
0
)
;
    }
    frontAndBack
    {
        type            empty;
    }
}


// ************************************************************************* //
