/*--------------------------------*- C++ -*----------------------------------*\
| =========                 |                                                 |
| \\      /  F ield         | OpenFOAM: The Open Source CFD Toolbox           |
|  \\    /   O peration     | Version:  2506                                  |
|   \\  /    A nd           | Website:  www.openfoam.com                      |
|    \\/     M anipulation  |                                                 |
\*---------------------------------------------------------------------------*/
FoamFile
{
    version     2.0;
    format      ascii;
    arch        "LSB;label=32;scalar=64";
    class       volScalarField;
    location    "4.5";
    object      pzeroGrad;
}
// * * * * * * * * * * * * * * * * * * * * * * * * * * * * * * * * * * * * * //

dimensions      [0 2 -2 0 0 0 0];

internalField   nonuniform List<scalar> 
400
(
4.55061e-17
0
1.69885e-12
9.09487e-14
3.79794e-13
1.2149e-13
1.22986e-13
7.83181e-14
6.57214e-14
5.28337e-14
4.58507e-14
4.0219e-14
3.65857e-14
3.39261e-14
3.19433e-14
3.0636e-14
2.96822e-14
2.92326e-14
2.88498e-14
2.85136e-14
8.23521e-14
1.38273e-12
1.70444e-13
1.59541e-13
1.36234e-13
1.08394e-13
8.94616e-14
7.04816e-14
5.83476e-14
4.92859e-14
4.31994e-14
3.85443e-14
3.53592e-14
3.32576e-14
3.15194e-14
3.02585e-14
2.93529e-14
2.89624e-14
2.85508e-14
2.81776e-14
0
0
0
0
9.52143e-14
4.79861e-14
6.3274e-14
5.21917e-14
4.80959e-14
4.26433e-14
3.88849e-14
3.56842e-14
3.33471e-14
3.17298e-14
3.04136e-14
2.95671e-14
2.8916e-14
2.84112e-14
2.80437e-14
2.80141e-14
4.43372e-13
5.247e-12
0
1.71636e-13
0
2.94095e-14
2.912e-14
3.71016e-14
3.62072e-14
3.52226e-14
3.37619e-14
3.22758e-14
3.07902e-14
2.98681e-14
2.90282e-14
2.85069e-14
2.80636e-14
2.7559e-14
2.74246e-14
2.75485e-14
0
0
0
0
4.08937e-14
0
2.1002e-14
2.21392e-14
2.67759e-14
2.81043e-14
2.86296e-14
2.84591e-14
2.81395e-14
2.78213e-14
2.74874e-14
2.71792e-14
2.69228e-14
2.6832e-14
2.67486e-14
2.69346e-14
8.08482e-13
4.64625e-12
0
1.29669e-13
0
0
1.93778e-15
1.42009e-14
1.84658e-14
2.20991e-14
2.39053e-14
2.49778e-14
2.53683e-14
2.56936e-14
2.57435e-14
2.5774e-14
2.59096e-14
2.60865e-14
2.60072e-14
2.62339e-14
0
0
0
0
1.48976e-14
0
2.25774e-15
6.34798e-15
1.29755e-14
1.70563e-14
1.98275e-14
2.17366e-14
2.27908e-14
2.36238e-14
2.40295e-14
2.45762e-14
2.4896e-14
2.52515e-14
2.53291e-14
2.54875e-14
9.51517e-13
3.05035e-12
0
6.70309e-14
0
0
0
3.2482e-15
8.6858e-15
1.34069e-14
1.6776e-14
1.91271e-14
2.06182e-14
2.19401e-14
2.27631e-14
2.34351e-14
2.39941e-14
2.42804e-14
2.46104e-14
2.48995e-14
0
0
0
0
0
0
0
1.13612e-16
6.36251e-15
1.08779e-14
1.46176e-14
1.72009e-14
1.89797e-14
2.05962e-14
2.17669e-14
2.24006e-14
2.31769e-14
2.37664e-14
2.40267e-14
2.4328e-14
8.95209e-13
1.76362e-12
0
2.16837e-14
0
0
0
0
4.7417e-15
9.60025e-15
1.32134e-14
1.59942e-14
1.80075e-14
1.96627e-14
2.11045e-14
2.20217e-14
2.26946e-14
2.30752e-14
2.36251e-14
2.40577e-14
0
0
0
0
0
0
0
0
4.50025e-15
8.94113e-15
1.24987e-14
1.54664e-14
1.76674e-14
1.92319e-14
2.07341e-14
2.17733e-14
2.21973e-14
2.25809e-14
2.32746e-14
2.36749e-14
7.58415e-13
1.02824e-12
2.67818e-15
0
0
0
0
0
5.06032e-15
9.30462e-15
1.28304e-14
1.55463e-14
1.77486e-14
1.91642e-14
2.04951e-14
2.15732e-14
2.20658e-14
2.2444e-14
2.2984e-14
2.34194e-14
0
0
0
0
0
0
0
9.23867e-16
6.51609e-15
1.05079e-14
1.37715e-14
1.64806e-14
1.81869e-14
1.95747e-14
2.07294e-14
2.17046e-14
2.22613e-14
2.24474e-14
2.28314e-14
2.3054e-14
6.4613e-13
6.66891e-13
1.25782e-15
0
0
0
0
3.92423e-15
8.91905e-15
1.25714e-14
1.54518e-14
1.77686e-14
1.91763e-14
2.03547e-14
2.13108e-14
2.21838e-14
2.2562e-14
2.2517e-14
2.27689e-14
2.31835e-14
0
0
0
0
0
0
2.30674e-15
8.29673e-15
1.2626e-14
1.54925e-14
1.77243e-14
1.94493e-14
2.03413e-14
2.14266e-14
2.22292e-14
2.26193e-14
2.27052e-14
2.26635e-14
2.28318e-14
2.31823e-14
5.77369e-13
4.17619e-13
0
0
0
0
9.12041e-15
1.43964e-14
1.75177e-14
1.92792e-14
2.05574e-14
2.13793e-14
2.20212e-14
2.24885e-14
2.28948e-14
2.31357e-14
2.31089e-14
2.30534e-14
2.30585e-14
2.32588e-14
0
0
0
0
3.2208e-15
1.23665e-14
2.05594e-14
2.27462e-14
2.38153e-14
2.38481e-14
2.37977e-14
2.34794e-14
2.34274e-14
2.34548e-14
2.35212e-14
2.36106e-14
2.35276e-14
2.33716e-14
2.35597e-14
2.35354e-14
5.2637e-13
2.60893e-14
1.42486e-14
0
3.1636e-14
3.15539e-14
3.64945e-14
3.2844e-14
3.09481e-14
2.84558e-14
2.69035e-14
2.5705e-14
2.50357e-14
2.45607e-14
2.42266e-14
2.39069e-14
2.37403e-14
2.37597e-14
2.391e-14
2.40599e-14
0
0
1.39763e-13
1.0454e-14
1.06331e-13
6.0083e-14
5.64309e-14
4.29669e-14
3.75527e-14
3.24355e-14
2.95143e-14
2.74854e-14
2.61838e-14
2.51876e-14
2.461e-14
2.42136e-14
2.40088e-14
2.399e-14
2.40855e-14
2.41886e-14
2.43721e-13
0
1.36859e-12
0
2.67273e-13
5.61391e-14
7.88304e-14
4.67617e-14
4.22111e-14
3.44126e-14
3.10455e-14
2.83918e-14
2.69169e-14
2.56298e-14
2.47845e-14
2.43862e-14
2.41603e-14
2.40857e-14
2.41063e-14
2.44202e-14
)
;

boundaryField
{
    movingWall
    {
        type            zeroGradient;
    }
    fixedWalls
    {
        type            zeroGradient;
    }
    frontAndBack
    {
        type            empty;
    }
}


// ************************************************************************* //
