/*--------------------------------*- C++ -*----------------------------------*\
| =========                 |                                                 |
| \\      /  F ield         | OpenFOAM: The Open Source CFD Toolbox           |
|  \\    /   O peration     | Version:  2506                                  |
|   \\  /    A nd           | Website:  www.openfoam.com                      |
|    \\/     M anipulation  |                                                 |
\*---------------------------------------------------------------------------*/
FoamFile
{
    version     2.0;
    format      ascii;
    arch        "LSB;label=32;scalar=64";
    class       volScalarField;
    location    "4.5";
    object      QField;
}
// * * * * * * * * * * * * * * * * * * * * * * * * * * * * * * * * * * * * * //

dimensions      [0 0 -2 0 0 0 0];

internalField   nonuniform List<scalar> 
400
(
-1.38766e-15
7.84416e-16
7.56318e-17
1.55044e-17
3.96273e-19
1.76855e-19
-8.25634e-21
2.86867e-21
-3.57691e-22
6.58936e-23
-1.16336e-23
1.35681e-24
-5.4977e-25
-7.61438e-26
-9.3384e-26
-5.46447e-26
-2.48931e-26
-8.35505e-27
-4.27745e-28
-1.20053e-27
-6.14858e-15
-3.10502e-16
-4.01257e-17
9.15806e-18
1.65657e-19
9.53695e-20
-8.54558e-22
9.87421e-22
-7.16549e-23
1.11008e-23
-3.32974e-24
-5.69205e-25
-4.96809e-25
-2.43474e-25
-1.31896e-25
-4.71072e-26
-2.58788e-26
-1.11068e-26
-7.2751e-27
2.83351e-28
-5.38714e-15
-1.25464e-15
-1.19522e-16
-7.55033e-18
-2.22047e-19
-6.9635e-20
3.41172e-21
-9.6367e-22
1.0259e-22
-2.1502e-23
1.19275e-24
-1.19363e-24
-3.23887e-25
-1.84768e-25
-8.2609e-26
-5.23133e-26
-2.60333e-26
-1.24864e-26
5.51924e-28
1.74e-27
-8.33729e-16
-1.55166e-16
-1.22632e-17
-3.98793e-19
-1.06103e-19
1.9882e-20
-4.01573e-21
6.78936e-22
-1.15224e-22
1.58568e-23
-4.10197e-24
-1.77214e-25
-4.21941e-25
-1.50435e-25
-1.13265e-25
-5.64375e-26
-2.9262e-26
-4.60725e-27
-1.171e-27
-6.63357e-28
9.24914e-16
2.76848e-16
2.61348e-17
1.36444e-18
1.45437e-19
-3.77277e-21
2.86394e-21
-4.50039e-22
8.55865e-23
-1.59291e-23
1.58162e-24
-9.04281e-25
-1.77522e-25
-1.61735e-25
-7.7038e-26
-4.48217e-26
-9.22214e-27
-9.63183e-27
-7.60368e-27
-4.74756e-27
2.13328e-15
5.47247e-16
5.44095e-17
2.76474e-18
1.93224e-19
1.95404e-20
-5.72974e-22
3.8229e-22
-6.1254e-23
1.08807e-23
-2.80887e-24
-2.96747e-26
-2.75794e-25
-1.26292e-25
-5.8344e-26
-3.8811e-26
-2.6446e-26
-1.16967e-26
-3.34843e-28
0
2.36732e-15
5.9914e-16
5.67447e-17
3.05945e-18
2.11436e-19
1.20181e-20
1.74374e-21
-1.49614e-22
4.97345e-23
-1.13288e-23
1.29897e-24
-6.3374e-25
-1.65166e-25
-1.28528e-25
-6.75094e-26
-4.06408e-26
-7.25278e-27
-1.51991e-27
0
0
2.30705e-15
5.67616e-16
5.47386e-17
2.7783e-18
1.97676e-19
1.47169e-20
3.07392e-22
1.84567e-22
-2.73203e-23
5.56079e-24
-1.55672e-24
-9.90685e-26
-2.07616e-25
-7.60104e-26
-4.08829e-26
-2.68094e-26
-2.08399e-26
-6.1003e-27
-1.24111e-27
0
1.95e-15
4.75495e-16
4.45161e-17
2.37382e-18
1.54233e-19
1.08182e-20
8.31075e-22
-1.53318e-23
1.74646e-23
-3.81132e-24
2.38304e-25
-4.58687e-25
-1.42496e-25
-9.11827e-26
-3.20547e-26
-2.31796e-26
9.82979e-28
-1.46034e-27
-7.86498e-27
2.99762e-27
1.55874e-15
3.72543e-16
3.50498e-17
1.78895e-18
1.23748e-19
8.12891e-21
4.91949e-22
5.88386e-23
-4.11031e-24
3.78937e-25
-7.36591e-25
-2.24194e-25
-1.49709e-25
-1.0422e-25
-5.60202e-26
-2.55432e-26
-1.46809e-26
-5.24304e-27
3.13056e-27
0
1.14728e-15
2.70355e-16
2.5017e-17
1.31554e-18
8.02312e-20
7.02925e-21
2.01181e-22
5.70857e-23
-8.60189e-25
-6.89313e-25
-4.37799e-25
-2.22286e-25
-1.35132e-25
-7.32945e-26
-2.80105e-26
-2.54402e-26
-1.56886e-26
-3.73952e-27
-1.28414e-27
1.28006e-28
8.08734e-16
1.87782e-16
1.72134e-17
8.80436e-19
6.01239e-20
3.26371e-21
5.19382e-22
-3.63851e-23
1.58423e-23
-2.94387e-24
-6.54249e-27
-2.91427e-25
-1.26896e-25
-6.56511e-26
-4.66873e-26
-1.06771e-26
-1.63895e-26
-2.38751e-27
-3.30872e-27
0
5.6859e-16
1.2943e-16
1.2073e-17
5.95201e-19
3.79996e-20
4.07676e-21
-2.4989e-22
1.16392e-22
-2.33651e-23
5.39258e-24
-1.3241e-24
-5.24083e-26
-1.2944e-25
-5.43659e-26
-3.77384e-26
-9.3166e-27
-5.63475e-27
-7.01548e-27
-1.36115e-27
-1.03874e-27
3.76707e-16
8.65697e-17
7.31291e-18
4.13221e-19
2.85912e-20
-8.42671e-22
7.17935e-22
-1.49337e-22
2.8316e-23
-5.86995e-24
7.79058e-25
-2.94476e-25
-7.28603e-26
-6.18175e-26
-3.34191e-26
-9.46001e-27
-3.79115e-27
-4.44179e-27
-1.98125e-27
1.71561e-28
3.56578e-16
7.93903e-17
7.81859e-18
3.78506e-19
1.45164e-20
5.5377e-21
-8.98469e-22
1.98665e-22
-4.0366e-23
6.36791e-24
-1.66794e-24
5.83023e-26
-1.50056e-25
-3.98905e-26
-1.57854e-26
-1.45746e-26
-3.24693e-27
-1.93491e-27
2.45434e-27
3.34259e-28
2.20216e-16
5.22436e-17
3.80287e-18
1.65664e-19
3.69573e-20
-6.71793e-21
1.58597e-21
-3.21421e-22
5.59198e-23
-1.07184e-23
1.15311e-24
-4.04822e-25
-4.08834e-26
-4.81745e-26
-1.84497e-26
-6.73263e-27
-1.42643e-27
-1.64947e-27
-3.99305e-27
0
5.07901e-16
1.16086e-16
1.12769e-17
7.63689e-19
-1.59392e-20
1.67301e-20
-2.21872e-21
4.38031e-22
-7.03174e-23
1.03852e-23
-2.32654e-24
1.21895e-25
-1.33703e-25
-4.4175e-26
-2.64554e-26
-5.84015e-27
-3.94678e-27
-3.41191e-27
-1.28413e-27
0
9.46813e-17
4.59397e-17
1.54805e-18
-1.03165e-18
9.73572e-20
-2.68388e-20
2.82141e-21
-5.18544e-22
6.36452e-23
-1.12578e-23
1.29426e-24
-4.48722e-25
-4.09579e-26
-4.0826e-26
-2.26332e-26
-4.49757e-27
-1.10191e-27
0
-5.16223e-28
0
2.13122e-15
1.60238e-15
1.51317e-16
1.63017e-17
9.35482e-19
1.14971e-19
3.51606e-21
8.91891e-22
-2.43638e-23
9.93463e-24
-1.53827e-24
-4.03723e-26
-1.12232e-25
-3.84084e-26
-1.92589e-26
-5.10856e-27
-4.1127e-27
-2.0239e-27
-1.2635e-27
-5.1818e-28
2.66409e-15
1.68619e-15
1.68701e-16
1.7618e-17
9.3436e-19
1.4849e-19
-8.88874e-23
1.71433e-21
-1.42128e-22
3.05092e-23
-4.64479e-24
5.59642e-25
-1.70376e-25
3.2263e-27
-1.1834e-26
-5.54772e-27
-1.31359e-27
-1.65131e-27
-3.51151e-28
-4.13585e-29
)
;

boundaryField
{
    movingWall
    {
        type            calculated;
        value           nonuniform List<scalar> 
20
(
4.35634e-15
4.62134e-15
2.97976e-16
3.30077e-17
4.56579e-19
2.73073e-19
-1.43386e-20
3.81277e-21
-4.63948e-22
8.02556e-23
-1.22881e-23
1.86401e-24
-3.19515e-25
5.18733e-26
-7.29671e-27
-1.94617e-28
8.7006e-28
-3.50608e-28
-9.8896e-29
-7.37788e-29
)
;
    }
    fixedWalls
    {
        type            calculated;
        value           nonuniform List<scalar> 
60
(
-7.27974e-15
-3.22604e-14
-2.82483e-14
-4.36042e-15
4.86513e-15
1.11988e-14
1.24243e-14
1.21053e-14
1.02316e-14
8.17802e-15
6.01971e-15
4.24338e-15
2.98387e-15
1.97702e-15
1.87151e-15
1.15589e-15
2.66473e-15
4.97058e-16
1.11775e-14
1.39756e-14
-9.83474e-28
4.64242e-28
8.22018e-28
-1.08684e-27
-4.82504e-27
0
0
0
3.68517e-27
2.63033e-28
1.04863e-28
5.75919e-28
0
2.81085e-28
-4.65971e-28
8.08904e-28
0
0
-6.76127e-28
6.01704e-30
4.70373e-15
4.93934e-15
2.7843e-16
4.18282e-17
-4.87951e-19
4.18936e-19
-3.41546e-20
6.99372e-21
-9.78083e-22
1.68508e-22
-2.71899e-23
4.5042e-24
-7.57829e-25
1.05384e-25
-5.99083e-26
-3.97025e-26
-1.92924e-26
-5.69456e-27
1.04763e-27
-8.88017e-28
)
;
    }
    frontAndBack
    {
        type            empty;
    }
}


// ************************************************************************* //
