/*--------------------------------*- C++ -*----------------------------------*\
| =========                 |                                                 |
| \\      /  F ield         | OpenFOAM: The Open Source CFD Toolbox           |
|  \\    /   O peration     | Version:  2506                                  |
|   \\  /    A nd           | Website:  www.openfoam.com                      |
|    \\/     M anipulation  |                                                 |
\*---------------------------------------------------------------------------*/
FoamFile
{
    version     2.0;
    format      ascii;
    arch        "LSB;label=32;scalar=64";
    class       volScalarField;
    location    "4.5";
    object      staticCoeffP;
}
// * * * * * * * * * * * * * * * * * * * * * * * * * * * * * * * * * * * * * //

dimensions      [0 0 0 0 0 0 0];

internalField   nonuniform List<scalar> 
400
(
0
0
3.39773e-12
1.82077e-13
7.59393e-13
2.42917e-13
2.46025e-13
1.56763e-13
1.3145e-13
1.05693e-13
9.14824e-14
8.03801e-14
7.32747e-14
6.79456e-14
6.39488e-14
6.12843e-14
5.9508e-14
5.86198e-14
5.77316e-14
5.68434e-14
1.64757e-13
2.76534e-12
3.41061e-13
3.193e-13
2.72671e-13
2.16716e-13
1.78968e-13
1.40776e-13
1.16795e-13
9.85878e-14
8.65974e-14
7.72715e-14
7.06102e-14
6.66134e-14
6.30607e-14
6.03961e-14
5.86198e-14
5.77316e-14
5.72875e-14
5.63993e-14
0
0
0
0
1.90514e-13
9.59233e-14
1.26565e-13
1.04361e-13
9.63674e-14
8.52651e-14
7.77156e-14
7.14984e-14
6.66134e-14
6.35048e-14
6.08402e-14
5.90639e-14
5.77316e-14
5.68434e-14
5.59552e-14
5.59552e-14
8.86846e-13
1.04938e-11
0
3.43281e-13
0
5.86198e-14
5.81757e-14
7.41629e-14
7.23865e-14
7.06102e-14
6.75016e-14
6.43929e-14
6.17284e-14
5.9952e-14
5.81757e-14
5.68434e-14
5.59552e-14
5.50671e-14
5.50671e-14
5.50671e-14
0
0
0
0
8.17124e-14
0
4.21885e-14
4.44089e-14
5.37348e-14
5.63993e-14
5.72875e-14
5.68434e-14
5.63993e-14
5.55112e-14
5.50671e-14
5.41789e-14
5.37348e-14
5.37348e-14
5.32907e-14
5.37348e-14
1.61693e-12
9.29257e-12
0
2.59348e-13
0
0
3.9968e-15
2.84217e-14
3.68594e-14
4.44089e-14
4.79616e-14
4.9738e-14
5.06262e-14
5.15143e-14
5.15143e-14
5.15143e-14
5.19584e-14
5.19584e-14
5.19584e-14
5.24025e-14
0
0
0
0
2.9754e-14
0
4.44089e-15
1.28786e-14
2.57572e-14
3.41949e-14
3.95239e-14
4.35207e-14
4.57412e-14
4.70735e-14
4.79616e-14
4.92939e-14
4.9738e-14
5.06262e-14
5.06262e-14
5.10703e-14
1.90292e-12
6.1009e-12
0
1.34115e-13
0
0
0
6.66134e-15
1.73195e-14
2.66454e-14
3.37508e-14
3.81917e-14
4.13003e-14
4.39648e-14
4.57412e-14
4.70735e-14
4.79616e-14
4.84057e-14
4.92939e-14
4.9738e-14
0
0
0
0
0
0
0
4.44089e-16
1.28786e-14
2.17604e-14
2.93099e-14
3.41949e-14
3.77476e-14
4.13003e-14
4.35207e-14
4.4853e-14
4.61853e-14
4.75175e-14
4.79616e-14
4.88498e-14
1.79057e-12
3.5274e-12
0
4.35207e-14
0
0
0
0
9.32587e-15
1.90958e-14
2.66454e-14
3.19744e-14
3.59712e-14
3.95239e-14
4.21885e-14
4.39648e-14
4.52971e-14
4.61853e-14
4.70735e-14
4.79616e-14
0
0
0
0
0
0
0
0
8.88178e-15
1.77636e-14
2.4869e-14
3.10862e-14
3.55271e-14
3.86358e-14
4.13003e-14
4.35207e-14
4.44089e-14
4.52971e-14
4.66294e-14
4.75175e-14
1.51701e-12
2.05658e-12
5.32907e-15
0
0
0
0
0
1.02141e-14
1.86517e-14
2.57572e-14
3.10862e-14
3.55271e-14
3.81917e-14
4.08562e-14
4.30767e-14
4.39648e-14
4.4853e-14
4.61853e-14
4.66294e-14
0
0
0
0
0
0
0
1.77636e-15
1.28786e-14
2.08722e-14
2.75335e-14
3.28626e-14
3.64153e-14
3.90799e-14
4.13003e-14
4.35207e-14
4.44089e-14
4.4853e-14
4.57412e-14
4.61853e-14
1.2923e-12
1.3336e-12
2.66454e-15
0
0
0
0
7.99361e-15
1.77636e-14
2.53131e-14
3.10862e-14
3.55271e-14
3.81917e-14
4.08562e-14
4.26326e-14
4.44089e-14
4.52971e-14
4.4853e-14
4.57412e-14
4.61853e-14
0
0
0
0
0
0
4.44089e-15
1.64313e-14
2.53131e-14
3.10862e-14
3.55271e-14
3.90799e-14
4.08562e-14
4.26326e-14
4.44089e-14
4.52971e-14
4.52971e-14
4.52971e-14
4.57412e-14
4.61853e-14
1.15463e-12
8.35332e-13
0
0
0
0
1.82077e-14
2.88658e-14
3.5083e-14
3.86358e-14
4.13003e-14
4.26326e-14
4.39648e-14
4.4853e-14
4.57412e-14
4.61853e-14
4.61853e-14
4.61853e-14
4.61853e-14
4.66294e-14
0
0
0
0
6.66134e-15
2.4869e-14
4.13003e-14
4.52971e-14
4.75175e-14
4.75175e-14
4.75175e-14
4.70735e-14
4.70735e-14
4.70735e-14
4.70735e-14
4.70735e-14
4.70735e-14
4.66294e-14
4.70735e-14
4.70735e-14
1.05294e-12
5.19584e-14
2.84217e-14
0
6.30607e-14
6.30607e-14
7.28306e-14
6.57252e-14
6.17284e-14
5.68434e-14
5.37348e-14
5.15143e-14
5.01821e-14
4.92939e-14
4.84057e-14
4.79616e-14
4.75175e-14
4.75175e-14
4.79616e-14
4.79616e-14
0
0
2.79332e-13
2.08722e-14
2.12719e-13
1.20348e-13
1.12799e-13
8.61533e-14
7.50511e-14
6.4837e-14
5.90639e-14
5.50671e-14
5.24025e-14
5.01821e-14
4.92939e-14
4.84057e-14
4.79616e-14
4.79616e-14
4.79616e-14
4.84057e-14
4.8761e-13
0
2.73737e-12
0
5.34683e-13
1.12355e-13
1.57652e-13
9.37028e-14
8.43769e-14
6.88338e-14
6.21725e-14
5.68434e-14
5.37348e-14
5.10703e-14
4.9738e-14
4.88498e-14
4.84057e-14
4.79616e-14
4.84057e-14
4.88498e-14
)
;

boundaryField
{
    movingWall
    {
        type            calculated;
        value           nonuniform List<scalar> 
20
(
4.8761e-13
0
2.73737e-12
0
5.34683e-13
1.12355e-13
1.57652e-13
9.37028e-14
8.43769e-14
6.88338e-14
6.21725e-14
5.68434e-14
5.37348e-14
5.10703e-14
4.9738e-14
4.88498e-14
4.84057e-14
4.79616e-14
4.84057e-14
4.88498e-14
)
;
    }
    fixedWalls
    {
        type            calculated;
        value           nonuniform List<scalar> 
60
(
0
1.64757e-13
0
8.86846e-13
0
1.61693e-12
0
1.90292e-12
0
1.79057e-12
0
1.51701e-12
0
1.2923e-12
0
1.15463e-12
0
1.05294e-12
0
4.8761e-13
5.68434e-14
5.63993e-14
5.59552e-14
5.50671e-14
5.37348e-14
5.24025e-14
5.10703e-14
4.9738e-14
4.88498e-14
4.79616e-14
4.75175e-14
4.66294e-14
4.61853e-14
4.61853e-14
4.61853e-14
4.66294e-14
4.70735e-14
4.79616e-14
4.84057e-14
4.88498e-14
0
0
3.39773e-12
1.82077e-13
7.59393e-13
2.42917e-13
2.46025e-13
1.56763e-13
1.3145e-13
1.05693e-13
9.14824e-14
8.03801e-14
7.32747e-14
6.79456e-14
6.39488e-14
6.12843e-14
5.9508e-14
5.86198e-14
5.77316e-14
5.68434e-14
)
;
    }
    frontAndBack
    {
        type            empty;
    }
}


// ************************************************************************* //
