/*--------------------------------*- C++ -*----------------------------------*\
| =========                 |                                                 |
| \\      /  F ield         | OpenFOAM: The Open Source CFD Toolbox           |
|  \\    /   O peration     | Version:  2506                                  |
|   \\  /    A nd           | Website:  www.openfoam.com                      |
|    \\/     M anipulation  |                                                 |
\*---------------------------------------------------------------------------*/
FoamFile
{
    version     2.0;
    format      ascii;
    arch        "LSB;label=32;scalar=64";
    class       surfaceScalarField;
    location    "4.5";
    object      surfaceK;
}
// * * * * * * * * * * * * * * * * * * * * * * * * * * * * * * * * * * * * * //

dimensions      [0 2 -2 0 0 0 0];

internalField   nonuniform List<scalar> 
760
(
1.93923e-05
2.06947e-05
1.93922e-05
2.06947e-05
1.93921e-05
2.06928e-05
1.93921e-05
2.0692e-05
1.9392e-05
2.06907e-05
1.9392e-05
2.069e-05
1.93919e-05
2.0689e-05
1.93919e-05
2.06883e-05
1.93919e-05
2.06875e-05
1.93918e-05
2.06869e-05
1.93918e-05
2.06863e-05
1.93918e-05
2.06858e-05
1.93918e-05
2.06853e-05
1.93918e-05
2.06849e-05
1.93918e-05
2.06845e-05
1.93917e-05
2.06843e-05
1.93918e-05
2.0684e-05
1.93917e-05
2.06839e-05
1.93917e-05
2.06838e-05
2.06838e-05
2.19971e-05
2.36656e-05
2.19952e-05
2.36655e-05
2.19927e-05
2.36612e-05
2.19907e-05
2.36595e-05
2.19888e-05
2.36565e-05
2.19871e-05
2.3655e-05
2.19854e-05
2.36525e-05
2.19839e-05
2.36511e-05
2.19826e-05
2.36491e-05
2.19813e-05
2.36479e-05
2.19802e-05
2.36462e-05
2.19792e-05
2.36452e-05
2.19784e-05
2.36439e-05
2.19776e-05
2.36432e-05
2.1977e-05
2.36423e-05
2.19766e-05
2.36418e-05
2.19762e-05
2.36413e-05
2.1976e-05
2.3641e-05
2.19759e-05
2.36408e-05
2.36407e-05
2.5334e-05
2.66845e-05
2.53314e-05
2.66843e-05
2.5328e-05
2.66789e-05
2.53254e-05
2.66766e-05
2.53228e-05
2.6673e-05
2.53204e-05
2.66709e-05
2.53182e-05
2.66678e-05
2.53163e-05
2.6666e-05
2.53144e-05
2.66633e-05
2.53128e-05
2.66618e-05
2.53112e-05
2.66597e-05
2.531e-05
2.66585e-05
2.53088e-05
2.66568e-05
2.53079e-05
2.66559e-05
2.53071e-05
2.66547e-05
2.53065e-05
2.66541e-05
2.53061e-05
2.66534e-05
2.53058e-05
2.66531e-05
2.53056e-05
2.66529e-05
2.66528e-05
2.80348e-05
2.89195e-05
2.80318e-05
2.89193e-05
2.80275e-05
2.89129e-05
2.80242e-05
2.89103e-05
2.80211e-05
2.89059e-05
2.80182e-05
2.89035e-05
2.80155e-05
2.88998e-05
2.8013e-05
2.88978e-05
2.80108e-05
2.88946e-05
2.80088e-05
2.88929e-05
2.80069e-05
2.88902e-05
2.80053e-05
2.8889e-05
2.80039e-05
2.88868e-05
2.80028e-05
2.8886e-05
2.80018e-05
2.88844e-05
2.80011e-05
2.88838e-05
2.80005e-05
2.88829e-05
2.80002e-05
2.88826e-05
2.8e-05
2.88823e-05
2.88821e-05
2.98041e-05
3.03264e-05
2.98005e-05
3.03262e-05
2.97957e-05
3.03192e-05
2.9792e-05
3.03162e-05
2.97884e-05
3.03114e-05
2.97852e-05
3.03088e-05
2.97821e-05
3.03046e-05
2.97793e-05
3.03025e-05
2.97768e-05
3.02988e-05
2.97744e-05
3.02972e-05
2.97723e-05
3.02939e-05
2.97705e-05
3.02928e-05
2.97689e-05
3.02902e-05
2.97676e-05
3.02894e-05
2.97665e-05
3.02876e-05
2.97657e-05
3.0287e-05
2.9765e-05
3.02859e-05
2.97647e-05
3.02856e-05
2.97644e-05
3.02852e-05
3.02851e-05
3.08485e-05
3.11475e-05
3.08449e-05
3.11472e-05
3.08397e-05
3.114e-05
3.08356e-05
3.11367e-05
3.08318e-05
3.11316e-05
3.08283e-05
3.11289e-05
3.0825e-05
3.11244e-05
3.0822e-05
3.11222e-05
3.08192e-05
3.11183e-05
3.08167e-05
3.11166e-05
3.08144e-05
3.11132e-05
3.08125e-05
3.1112e-05
3.08108e-05
3.11093e-05
3.08094e-05
3.11084e-05
3.08081e-05
3.11064e-05
3.08073e-05
3.11059e-05
3.08065e-05
3.11047e-05
3.08062e-05
3.11044e-05
3.08059e-05
3.1104e-05
3.11039e-05
3.14463e-05
3.16243e-05
3.14424e-05
3.16241e-05
3.1437e-05
3.16163e-05
3.14327e-05
3.16133e-05
3.14288e-05
3.16077e-05
3.14251e-05
3.16052e-05
3.14216e-05
3.16003e-05
3.14185e-05
3.15982e-05
3.14156e-05
3.1594e-05
3.14131e-05
3.15923e-05
3.14107e-05
3.15888e-05
3.14087e-05
3.15876e-05
3.14069e-05
3.15848e-05
3.14054e-05
3.15838e-05
3.14042e-05
3.15818e-05
3.14032e-05
3.15812e-05
3.14025e-05
3.158e-05
3.14022e-05
3.15797e-05
3.14019e-05
3.15793e-05
3.15792e-05
3.18021e-05
3.19205e-05
3.1798e-05
3.19203e-05
3.17925e-05
3.19123e-05
3.17882e-05
3.19092e-05
3.17841e-05
3.19036e-05
3.17804e-05
3.1901e-05
3.17769e-05
3.1896e-05
3.17737e-05
3.18939e-05
3.17707e-05
3.18895e-05
3.17681e-05
3.1888e-05
3.17656e-05
3.18842e-05
3.17636e-05
3.18831e-05
3.17617e-05
3.18801e-05
3.17602e-05
3.18793e-05
3.17589e-05
3.18771e-05
3.1758e-05
3.18766e-05
3.17572e-05
3.18753e-05
3.17569e-05
3.1875e-05
3.17566e-05
3.18746e-05
3.18745e-05
3.20387e-05
3.21307e-05
3.20346e-05
3.21305e-05
3.2029e-05
3.21225e-05
3.20246e-05
3.21192e-05
3.20205e-05
3.21137e-05
3.20166e-05
3.21108e-05
3.20131e-05
3.2106e-05
3.20098e-05
3.21036e-05
3.20068e-05
3.20995e-05
3.20041e-05
3.20975e-05
3.20016e-05
3.20941e-05
3.19996e-05
3.20927e-05
3.19977e-05
3.20898e-05
3.19962e-05
3.20889e-05
3.19948e-05
3.20868e-05
3.19939e-05
3.20862e-05
3.19931e-05
3.20849e-05
3.19928e-05
3.20846e-05
3.19925e-05
3.20842e-05
3.20841e-05
3.22225e-05
3.23056e-05
3.22184e-05
3.23053e-05
3.22127e-05
3.22973e-05
3.22083e-05
3.22939e-05
3.2204e-05
3.22884e-05
3.22002e-05
3.22854e-05
3.21965e-05
3.22806e-05
3.21933e-05
3.22781e-05
3.21903e-05
3.22741e-05
3.21875e-05
3.2272e-05
3.21851e-05
3.22686e-05
3.21829e-05
3.22671e-05
3.21811e-05
3.22643e-05
3.21795e-05
3.22633e-05
3.21782e-05
3.22612e-05
3.21772e-05
3.22606e-05
3.21764e-05
3.22593e-05
3.2176e-05
3.2259e-05
3.21758e-05
3.22585e-05
3.22584e-05
3.23883e-05
3.24717e-05
3.23842e-05
3.24714e-05
3.23785e-05
3.24637e-05
3.2374e-05
3.246e-05
3.23697e-05
3.24546e-05
3.23658e-05
3.24514e-05
3.23622e-05
3.24466e-05
3.23588e-05
3.24441e-05
3.23558e-05
3.24399e-05
3.23531e-05
3.2438e-05
3.23506e-05
3.24343e-05
3.23484e-05
3.2433e-05
3.23465e-05
3.243e-05
3.23449e-05
3.24291e-05
3.23436e-05
3.24269e-05
3.23426e-05
3.24264e-05
3.23418e-05
3.2425e-05
3.23414e-05
3.24247e-05
3.23411e-05
3.24243e-05
3.24241e-05
3.25548e-05
3.26443e-05
3.25509e-05
3.26441e-05
3.25451e-05
3.26361e-05
3.25406e-05
3.26325e-05
3.25362e-05
3.26269e-05
3.25323e-05
3.26238e-05
3.25286e-05
3.2619e-05
3.25252e-05
3.26164e-05
3.25222e-05
3.26123e-05
3.25193e-05
3.26102e-05
3.25168e-05
3.26066e-05
3.25146e-05
3.26051e-05
3.25126e-05
3.26022e-05
3.25111e-05
3.26012e-05
3.25097e-05
3.25991e-05
3.25088e-05
3.25984e-05
3.25079e-05
3.25971e-05
3.25076e-05
3.25968e-05
3.25073e-05
3.25964e-05
3.25962e-05
3.27336e-05
3.28329e-05
3.27293e-05
3.28326e-05
3.27235e-05
3.28246e-05
3.27188e-05
3.2821e-05
3.27145e-05
3.28152e-05
3.27106e-05
3.28123e-05
3.27068e-05
3.28072e-05
3.27035e-05
3.28048e-05
3.27003e-05
3.28003e-05
3.26975e-05
3.27984e-05
3.2695e-05
3.27948e-05
3.26927e-05
3.27933e-05
3.26908e-05
3.27903e-05
3.26892e-05
3.27893e-05
3.26878e-05
3.27871e-05
3.26868e-05
3.27865e-05
3.2686e-05
3.27852e-05
3.26856e-05
3.27849e-05
3.26853e-05
3.27844e-05
3.27843e-05
3.2932e-05
3.30451e-05
3.29279e-05
3.30448e-05
3.29221e-05
3.30366e-05
3.29174e-05
3.3033e-05
3.2913e-05
3.30272e-05
3.29089e-05
3.30241e-05
3.29052e-05
3.3019e-05
3.29016e-05
3.30165e-05
3.28985e-05
3.3012e-05
3.28957e-05
3.30101e-05
3.28931e-05
3.30065e-05
3.28909e-05
3.30049e-05
3.28888e-05
3.3002e-05
3.28873e-05
3.30008e-05
3.28858e-05
3.29987e-05
3.28849e-05
3.2998e-05
3.2884e-05
3.29967e-05
3.28836e-05
3.29964e-05
3.28833e-05
3.29959e-05
3.29958e-05
3.31579e-05
3.32875e-05
3.31535e-05
3.32872e-05
3.31475e-05
3.32785e-05
3.31428e-05
3.32751e-05
3.31383e-05
3.3269e-05
3.31342e-05
3.32661e-05
3.31304e-05
3.32608e-05
3.31269e-05
3.32583e-05
3.31237e-05
3.32539e-05
3.31209e-05
3.32518e-05
3.31182e-05
3.32481e-05
3.3116e-05
3.32465e-05
3.3114e-05
3.32436e-05
3.31123e-05
3.32424e-05
3.31109e-05
3.32403e-05
3.31099e-05
3.32396e-05
3.31091e-05
3.32383e-05
3.31087e-05
3.32379e-05
3.31084e-05
3.32375e-05
3.32373e-05
3.34167e-05
3.35627e-05
3.34122e-05
3.35624e-05
3.34061e-05
3.35538e-05
3.34013e-05
3.35501e-05
3.33968e-05
3.35441e-05
3.33926e-05
3.3541e-05
3.33887e-05
3.35358e-05
3.33853e-05
3.35331e-05
3.3382e-05
3.35287e-05
3.33791e-05
3.35265e-05
3.33764e-05
3.35228e-05
3.33741e-05
3.35212e-05
3.33721e-05
3.35182e-05
3.33704e-05
3.35171e-05
3.3369e-05
3.35148e-05
3.3368e-05
3.35141e-05
3.33671e-05
3.35128e-05
3.33667e-05
3.35124e-05
3.33664e-05
3.3512e-05
3.35118e-05
3.37085e-05
3.38621e-05
3.3704e-05
3.38617e-05
3.36978e-05
3.3853e-05
3.3693e-05
3.38492e-05
3.36884e-05
3.38432e-05
3.36842e-05
3.38399e-05
3.36802e-05
3.38347e-05
3.36766e-05
3.38318e-05
3.36732e-05
3.38275e-05
3.36703e-05
3.38251e-05
3.36676e-05
3.38215e-05
3.36652e-05
3.38197e-05
3.36631e-05
3.38167e-05
3.36614e-05
3.38155e-05
3.366e-05
3.38133e-05
3.3659e-05
3.38125e-05
3.36581e-05
3.38113e-05
3.36577e-05
3.38108e-05
3.36574e-05
3.38104e-05
3.38102e-05
3.40154e-05
3.41508e-05
3.40107e-05
3.41506e-05
3.40044e-05
3.41419e-05
3.39994e-05
3.41381e-05
3.39947e-05
3.41321e-05
3.39905e-05
3.41287e-05
3.39864e-05
3.41236e-05
3.39828e-05
3.41207e-05
3.39794e-05
3.41164e-05
3.39763e-05
3.41139e-05
3.39736e-05
3.41104e-05
3.39712e-05
3.41085e-05
3.39691e-05
3.41055e-05
3.39674e-05
3.41043e-05
3.39659e-05
3.41021e-05
3.39649e-05
3.41013e-05
3.3964e-05
3.41e-05
3.39635e-05
3.40996e-05
3.39632e-05
3.40991e-05
3.4099e-05
3.4286e-05
3.43431e-05
3.42818e-05
3.4343e-05
3.42756e-05
3.43387e-05
3.42707e-05
3.43366e-05
3.42661e-05
3.43338e-05
3.42619e-05
3.43319e-05
3.42579e-05
3.43295e-05
3.42543e-05
3.43279e-05
3.4251e-05
3.43258e-05
3.42479e-05
3.43245e-05
3.42452e-05
3.43228e-05
3.42428e-05
3.43217e-05
3.42407e-05
3.43204e-05
3.4239e-05
3.43196e-05
3.42375e-05
3.43186e-05
3.42365e-05
3.43181e-05
3.42356e-05
3.43175e-05
3.42351e-05
3.43173e-05
3.42348e-05
3.43171e-05
3.4317e-05
3.44001e-05
3.43999e-05
3.43998e-05
3.43997e-05
3.43996e-05
3.43995e-05
3.43995e-05
3.43994e-05
3.43994e-05
3.43993e-05
3.43993e-05
3.43993e-05
3.43993e-05
3.43992e-05
3.43992e-05
3.43992e-05
3.43992e-05
3.43992e-05
3.43992e-05
)
;

boundaryField
{
    movingWall
    {
        type            calculated;
        value           nonuniform List<scalar> 
20
(
3.44002e-05
3.43999e-05
3.43999e-05
3.43998e-05
3.43997e-05
3.43996e-05
3.43995e-05
3.43995e-05
3.43994e-05
3.43994e-05
3.43993e-05
3.43993e-05
3.43992e-05
3.43993e-05
3.43992e-05
3.43992e-05
3.43992e-05
3.43992e-05
3.43992e-05
3.43992e-05
)
;
    }
    fixedWalls
    {
        type            calculated;
        value           nonuniform List<scalar> 
60
(
1.93923e-05
2.19971e-05
2.5334e-05
2.80349e-05
2.98042e-05
3.08486e-05
3.14464e-05
3.18022e-05
3.20388e-05
3.22226e-05
3.23885e-05
3.2555e-05
3.27337e-05
3.29322e-05
3.31581e-05
3.34168e-05
3.37087e-05
3.40155e-05
3.42861e-05
3.44002e-05
1.93917e-05
2.19759e-05
2.53056e-05
2.79999e-05
2.97644e-05
3.08059e-05
3.14018e-05
3.17565e-05
3.19924e-05
3.21757e-05
3.23411e-05
3.25072e-05
3.26853e-05
3.28833e-05
3.31083e-05
3.33663e-05
3.36573e-05
3.39632e-05
3.42348e-05
3.43992e-05
1.93923e-05
1.93922e-05
1.93921e-05
1.93921e-05
1.93921e-05
1.9392e-05
1.9392e-05
1.93919e-05
1.93919e-05
1.93918e-05
1.93919e-05
1.93918e-05
1.93918e-05
1.93917e-05
1.93918e-05
1.93917e-05
1.93918e-05
1.93917e-05
1.93917e-05
1.93917e-05
)
;
    }
    frontAndBack
    {
        type            empty;
    }
}


// ************************************************************************* //
