/*--------------------------------*- C++ -*----------------------------------*\
| =========                 |                                                 |
| \\      /  F ield         | OpenFOAM: The Open Source CFD Toolbox           |
|  \\    /   O peration     | Version:  2506                                  |
|   \\  /    A nd           | Website:  www.openfoam.com                      |
|    \\/     M anipulation  |                                                 |
\*---------------------------------------------------------------------------*/
FoamFile
{
    version     2.0;
    format      ascii;
    arch        "LSB;label=32;scalar=64";
    class       surfaceVectorField;
    location    "4.5";
    object      surfaceU;
}
// * * * * * * * * * * * * * * * * * * * * * * * * * * * * * * * * * * * * * //

dimensions      [0 1 -1 0 0 0 0];

internalField   nonuniform List<vector> 
760
(
(-1 5.08182e-09 0)
(-1 1.01236e-12 0)
(-1 -1.20612e-09 0)
(-1 1.31725e-12 0)
(-1 2.86859e-10 0)
(-1 8.30099e-13 0)
(-1 -6.7942e-11 0)
(-1 1.0562e-13 0)
(-1 1.62318e-11 0)
(-1 1.89553e-13 0)
(-1 -3.81549e-12 0)
(-1 3.61008e-14 0)
(-1 9.29902e-13 0)
(-1 4.60197e-14 0)
(-1 -2.07597e-13 0)
(-1 1.88517e-14 0)
(-1 5.80996e-14 0)
(-1 1.54477e-14 0)
(-1 -7.9787e-15 0)
(-1 9.31447e-15 0)
(-1 5.92333e-15 0)
(-1 6.80454e-15 0)
(-1 1.37292e-15 0)
(-1 4.68382e-15 0)
(-1 1.59167e-15 0)
(-1 3.37893e-15 0)
(-1 9.58095e-16 0)
(-1 2.39154e-15 0)
(-1 7.67332e-16 0)
(-1 1.73598e-15 0)
(-1 5.9373e-16 0)
(-1 1.26842e-15 0)
(-1 4.173e-16 0)
(-1 9.08039e-16 0)
(-1 2.4086e-16 0)
(-1 5.61749e-16 0)
(-1 1.32476e-16 0)
(-1 2.95673e-16 0)
(-1 1.10729e-16 0)
(-1 -5.0795e-09 0)
(-1 -1.40932e-11 0)
(-1 1.20827e-09 0)
(-1 4.84447e-12 0)
(-1 -2.85924e-10 0)
(-1 -4.10612e-13 0)
(-1 6.82372e-11 0)
(-1 4.8458e-13 0)
(-1 -1.60062e-11 0)
(-1 1.30881e-13 0)
(-1 3.89761e-12 0)
(-1 9.98937e-14 0)
(-1 -8.65031e-13 0)
(-1 6.07448e-14 0)
(-1 2.41896e-13 0)
(-1 3.75398e-14 0)
(-1 -3.33374e-14 0)
(-1 2.58538e-14 0)
(-1 2.40977e-14 0)
(-1 1.73045e-14 0)
(-1 5.56503e-15 0)
(-1 1.22934e-14 0)
(-1 6.68983e-15 0)
(-1 8.74622e-15 0)
(-1 4.17879e-15 0)
(-1 6.38091e-15 0)
(-1 3.16942e-15 0)
(-1 4.61785e-15 0)
(-1 2.23706e-15 0)
(-1 3.32068e-15 0)
(-1 1.58273e-15 0)
(-1 2.35464e-15 0)
(-1 1.05249e-15 0)
(-1 1.6507e-15 0)
(-1 6.16562e-16 0)
(-1 1.07396e-15 0)
(-1 2.73926e-16 0)
(-1 5.45518e-16 0)
(-1 1.36864e-16 0)
(-1 5.07025e-09 0)
(-1 1.53498e-11 0)
(-1 -1.20384e-09 0)
(-1 -4.55488e-12 0)
(-1 2.85998e-10 0)
(-1 1.44341e-12 0)
(-1 -6.76217e-11 0)
(-1 -1.48864e-13 0)
(-1 1.62369e-11 0)
(-1 2.35855e-13 0)
(-1 -3.73697e-12 0)
(-1 7.10893e-14 0)
(-1 9.63315e-13 0)
(-1 7.34258e-14 0)
(-1 -1.78503e-13 0)
(-1 4.34072e-14 0)
(-1 7.64957e-14 0)
(-1 3.2267e-14 0)
(-1 5.50017e-15 0)
(-1 2.22179e-14 0)
(-1 1.54746e-14 0)
(-1 1.61355e-14 0)
(-1 8.4373e-15 0)
(-1 1.16627e-14 0)
(-1 6.81997e-15 0)
(-1 8.5635e-15 0)
(-1 4.76912e-15 0)
(-1 6.26182e-15 0)
(-1 3.43826e-15 0)
(-1 4.56008e-15 0)
(-1 2.42261e-15 0)
(-1 3.30699e-15 0)
(-1 1.67218e-15 0)
(-1 2.31099e-15 0)
(-1 1.00292e-15 0)
(-1 1.48248e-15 0)
(-1 4.08456e-16 0)
(-1 7.91843e-16 0)
(-1 2.24347e-16 0)
(-1 -5.05945e-09 0)
(-1 -1.97132e-11 0)
(-1 1.20073e-09 0)
(-1 5.30531e-12 0)
(-1 -2.84703e-10 0)
(-1 -1.15958e-12 0)
(-1 6.77087e-11 0)
(-1 4.39245e-13 0)
(-1 -1.593e-11 0)
(-1 2.10989e-14 0)
(-1 3.88148e-12 0)
(-1 1.00172e-13 0)
(-1 -8.46482e-13 0)
(-1 5.59419e-14 0)
(-1 2.54177e-13 0)
(-1 4.61218e-14 0)
(-1 -2.20108e-14 0)
(-1 3.27626e-14 0)
(-1 3.28533e-14 0)
(-1 2.43066e-14 0)
(-1 1.23236e-14 0)
(-1 1.78968e-14 0)
(-1 1.17889e-14 0)
(-1 1.31901e-14 0)
(-1 8.00536e-15 0)
(-1 9.77983e-15 0)
(-1 6.05279e-15 0)
(-1 7.30717e-15 0)
(-1 4.42882e-15 0)
(-1 5.45693e-15 0)
(-1 3.19537e-15 0)
(-1 4.01426e-15 0)
(-1 2.12129e-15 0)
(-1 2.74612e-15 0)
(-1 1.27141e-15 0)
(-1 1.7117e-15 0)
(-1 6.07734e-16 0)
(-1 1.00785e-15 0)
(-1 3.46714e-16 0)
(-1 5.04504e-09 0)
(-1 1.81568e-11 0)
(-1 -1.19658e-09 0)
(-1 -4.56238e-12 0)
(-1 2.83983e-10 0)
(-1 1.19537e-12 0)
(-1 -6.72484e-11 0)
(-1 -1.98511e-13 0)
(-1 1.60513e-11 0)
(-1 1.43718e-13 0)
(-1 -3.72537e-12 0)
(-1 4.58971e-14 0)
(-1 9.48546e-13 0)
(-1 5.54958e-14 0)
(-1 -1.75292e-13 0)
(-1 3.90901e-14 0)
(-1 7.908e-14 0)
(-1 3.12314e-14 0)
(-1 9.35015e-15 0)
(-1 2.35563e-14 0)
(-1 1.87634e-14 0)
(-1 1.79487e-14 0)
(-1 1.11811e-14 0)
(-1 1.34609e-14 0)
(-1 9.08165e-15 0)
(-1 1.01984e-14 0)
(-1 6.71131e-15 0)
(-1 7.77075e-15 0)
(-1 5.04237e-15 0)
(-1 5.88667e-15 0)
(-1 3.56502e-15 0)
(-1 4.30804e-15 0)
(-1 2.33653e-15 0)
(-1 2.98247e-15 0)
(-1 1.44815e-15 0)
(-1 1.88094e-15 0)
(-1 7.46835e-16 0)
(-1 1.10532e-15 0)
(-1 4.11182e-16 0)
(-1 -5.03145e-09 0)
(-1 -1.85967e-11 0)
(-1 1.19321e-09 0)
(-1 4.52951e-12 0)
(-1 -2.82986e-10 0)
(-1 -1.03071e-12 0)
(-1 6.71936e-11 0)
(-1 3.12357e-13 0)
(-1 -1.58616e-11 0)
(-1 -8.61505e-15 0)
(-1 3.82676e-12 0)
(-1 6.29604e-14 0)
(-1 -8.5396e-13 0)
(-1 3.74911e-14 0)
(-1 2.45614e-13 0)
(-1 3.46273e-14 0)
(-1 -2.42923e-14 0)
(-1 2.69126e-14 0)
(-1 3.21549e-14 0)
(-1 2.14766e-14 0)
(-1 1.26462e-14 0)
(-1 1.67353e-14 0)
(-1 1.24782e-14 0)
(-1 1.29745e-14 0)
(-1 8.88751e-15 0)
(-1 9.99665e-15 0)
(-1 6.94611e-15 0)
(-1 7.64368e-15 0)
(-1 5.15234e-15 0)
(-1 5.77914e-15 0)
(-1 3.7255e-15 0)
(-1 4.28291e-15 0)
(-1 2.52688e-15 0)
(-1 3.06641e-15 0)
(-1 1.5381e-15 0)
(-1 1.97099e-15 0)
(-1 7.69667e-16 0)
(-1 1.07444e-15 0)
(-1 4.11033e-16 0)
(-1 5.01738e-09 0)
(-1 1.60327e-11 0)
(-1 -1.18971e-09 0)
(-1 -3.76287e-12 0)
(-1 2.82268e-10 0)
(-1 9.32108e-13 0)
(-1 -6.68898e-11 0)
(-1 -1.75459e-13 0)
(-1 1.5916e-11 0)
(-1 8.82358e-14 0)
(-1 -3.72631e-12 0)
(-1 2.37902e-14 0)
(-1 9.26078e-13 0)
(-1 3.44884e-14 0)
(-1 -1.84074e-13 0)
(-1 2.63922e-14 0)
(-1 7.26814e-14 0)
(-1 2.26132e-14 0)
(-1 6.05695e-15 0)
(-1 1.82246e-14 0)
(-1 1.70635e-14 0)
(-1 1.46443e-14 0)
(-1 1.0493e-14 0)
(-1 1.16662e-14 0)
(-1 8.75282e-15 0)
(-1 9.12351e-15 0)
(-1 6.47671e-15 0)
(-1 6.99884e-15 0)
(-1 4.9097e-15 0)
(-1 5.28439e-15 0)
(-1 3.62382e-15 0)
(-1 4.01604e-15 0)
(-1 2.51052e-15 0)
(-1 2.84181e-15 0)
(-1 1.50732e-15 0)
(-1 1.8308e-15 0)
(-1 7.15802e-16 0)
(-1 1.01109e-15 0)
(-1 3.72313e-16 0)
(-1 -5.00511e-09 0)
(-1 -1.51415e-11 0)
(-1 1.18688e-09 0)
(-1 3.52874e-12 0)
(-1 -2.81511e-10 0)
(-1 -8.11442e-13 0)
(-1 6.68026e-11 0)
(-1 2.18754e-13 0)
(-1 -1.5804e-11 0)
(-1 -1.89586e-14 0)
(-1 3.78459e-12 0)
(-1 3.5946e-14 0)
(-1 -8.65198e-13 0)
(-1 2.08262e-14 0)
(-1 2.33079e-13 0)
(-1 2.09979e-14 0)
(-1 -3.18436e-14 0)
(-1 1.72978e-14 0)
(-1 2.6812e-14 0)
(-1 1.453e-14 0)
(-1 9.24694e-15 0)
(-1 1.18434e-14 0)
(-1 1.02967e-14 0)
(-1 9.60802e-15 0)
(-1 7.36953e-15 0)
(-1 7.63544e-15 0)
(-1 5.80652e-15 0)
(-1 6.02766e-15 0)
(-1 4.39073e-15 0)
(-1 4.62556e-15 0)
(-1 3.23402e-15 0)
(-1 3.52425e-15 0)
(-1 2.16209e-15 0)
(-1 2.4167e-15 0)
(-1 1.33457e-15 0)
(-1 1.53301e-15 0)
(-1 6.676e-16 0)
(-1 8.96616e-16 0)
(-1 3.23946e-16 0)
(-1 4.9935e-09 0)
(-1 1.28935e-11 0)
(-1 -1.18417e-09 0)
(-1 -2.949e-12 0)
(-1 2.80918e-10 0)
(-1 7.10654e-13 0)
(-1 -6.66028e-11 0)
(-1 -1.45896e-13 0)
(-1 1.58209e-11 0)
(-1 5.39372e-14 0)
(-1 -3.72782e-12 0)
(-1 7.91792e-15 0)
(-1 9.07022e-13 0)
(-1 1.75248e-14 0)
(-1 -1.94784e-13 0)
(-1 1.35621e-14 0)
(-1 6.36714e-14 0)
(-1 1.23596e-14 0)
(-1 -4.38569e-16 0)
(-1 1.0463e-14 0)
(-1 1.22045e-14 0)
(-1 8.80742e-15 0)
(-1 6.94672e-15 0)
(-1 7.2441e-15 0)
(-1 6.29357e-15 0)
(-1 5.86467e-15 0)
(-1 4.8467e-15 0)
(-1 4.7797e-15 0)
(-1 3.75908e-15 0)
(-1 3.74215e-15 0)
(-1 2.70693e-15 0)
(-1 2.8116e-15 0)
(-1 1.78763e-15 0)
(-1 2.00238e-15 0)
(-1 1.09506e-15 0)
(-1 1.26363e-15 0)
(-1 5.52963e-16 0)
(-1 7.13293e-16 0)
(-1 2.6937e-16 0)
(-1 -4.98356e-09 0)
(-1 -1.17784e-11 0)
(-1 1.18193e-09 0)
(-1 2.70419e-12 0)
(-1 -2.80354e-10 0)
(-1 -6.28964e-13 0)
(-1 6.65109e-11 0)
(-1 1.5506e-13 0)
(-1 -1.57591e-11 0)
(-1 -2.54207e-14 0)
(-1 3.75326e-12 0)
(-1 1.64405e-14 0)
(-1 -8.75935e-13 0)
(-1 6.53483e-15 0)
(-1 2.20705e-13 0)
(-1 8.20028e-15 0)
(-1 -4.08487e-14 0)
(-1 7.01619e-15 0)
(-1 1.9709e-14 0)
(-1 6.47117e-15 0)
(-1 3.847e-15 0)
(-1 5.65834e-15 0)
(-1 6.16204e-15 0)
(-1 4.8179e-15 0)
(-1 4.3508e-15 0)
(-1 4.01898e-15 0)
(-1 3.67516e-15 0)
(-1 3.34651e-15 0)
(-1 2.79468e-15 0)
(-1 2.67053e-15 0)
(-1 2.10705e-15 0)
(-1 2.00675e-15 0)
(-1 1.47838e-15 0)
(-1 1.51879e-15 0)
(-1 8.81863e-16 0)
(-1 9.41236e-16 0)
(-1 4.297e-16 0)
(-1 5.49874e-16 0)
(-1 2.39755e-16 0)
(-1 4.97448e-09 0)
(-1 1.03696e-11 0)
(-1 -1.17985e-09 0)
(-1 -2.3752e-12 0)
(-1 2.7988e-10 0)
(-1 5.60159e-13 0)
(-1 -6.63812e-11 0)
(-1 -1.29325e-13 0)
(-1 1.57501e-11 0)
(-1 3.04248e-14 0)
(-1 -3.73028e-12 0)
(-1 -6.09424e-15 0)
(-1 8.9067e-13 0)
(-1 3.0275e-15 0)
(-1 -2.05489e-13 0)
(-1 1.46371e-15 0)
(-1 5.43361e-14 0)
(-1 2.2078e-15 0)
(-1 -7.5795e-15 0)
(-1 2.36937e-15 0)
(-1 6.62924e-15 0)
(-1 2.42795e-15 0)
(-1 2.67485e-15 0)
(-1 2.32018e-15 0)
(-1 3.01469e-15 0)
(-1 2.15377e-15 0)
(-1 2.34189e-15 0)
(-1 1.92719e-15 0)
(-1 1.88261e-15 0)
(-1 1.65627e-15 0)
(-1 1.41848e-15 0)
(-1 1.27003e-15 0)
(-1 9.81642e-16 0)
(-1 9.3998e-16 0)
(-1 6.09248e-16 0)
(-1 5.87165e-16 0)
(-1 3.59929e-16 0)
(-1 4.31433e-16 0)
(-1 2.27949e-16 0)
(-1 -4.96649e-09 0)
(-1 -9.39655e-12 0)
(-1 1.17804e-09 0)
(-1 2.17087e-12 0)
(-1 -2.79449e-10 0)
(-1 -5.18721e-13 0)
(-1 6.62823e-11 0)
(-1 1.1251e-13 0)
(-1 -1.57258e-11 0)
(-1 -3.54038e-14 0)
(-1 3.72722e-12 0)
(-1 -2.04518e-16 0)
(-1 -8.86179e-13 0)
(-1 -6.90015e-15 0)
(-1 2.0916e-13 0)
(-1 -3.53023e-15 0)
(-1 -4.97589e-14 0)
(-1 -2.65122e-15 0)
(-1 1.23768e-14 0)
(-1 -1.49129e-15 0)
(-1 -1.8811e-15 0)
(-1 -7.24071e-16 0)
(-1 1.79911e-15 0)
(-1 -1.21836e-16 0)
(-1 1.06626e-15 0)
(-1 3.77067e-16 0)
(-1 1.24157e-15 0)
(-1 5.81578e-16 0)
(-1 1.04369e-15 0)
(-1 6.99349e-16 0)
(-1 7.91531e-16 0)
(-1 6.13503e-16 0)
(-1 5.45503e-16 0)
(-1 4.33726e-16 0)
(-1 4.09351e-16 0)
(-1 2.82899e-16 0)
(-1 2.99453e-16 0)
(-1 2.36156e-16 0)
(-1 1.63106e-16 0)
(-1 4.95926e-09 0)
(-1 8.88621e-12 0)
(-1 -1.17638e-09 0)
(-1 -2.07521e-12 0)
(-1 2.79043e-10 0)
(-1 4.74619e-13 0)
(-1 -6.62052e-11 0)
(-1 -1.31052e-13 0)
(-1 1.56902e-11 0)
(-1 1.00383e-14 0)
(-1 -3.73432e-12 0)
(-1 -2.12968e-14 0)
(-1 8.75748e-13 0)
(-1 -1.10351e-14 0)
(-1 -2.15342e-13 0)
(-1 -1.00349e-14 0)
(-1 4.56164e-14 0)
(-1 -6.99845e-15 0)
(-1 -1.45922e-14 0)
(-1 -5.05126e-15 0)
(-1 1.0352e-15 0)
(-1 -3.42528e-15 0)
(-1 -1.54388e-15 0)
(-1 -2.14185e-15 0)
(-1 -1.07617e-16 0)
(-1 -1.14077e-15 0)
(-1 3.93603e-17 0)
(-1 -5.98526e-16 0)
(-1 2.6916e-16 0)
(-1 -1.96667e-16 0)
(-1 2.55699e-16 0)
(-1 3.16595e-17 0)
(-1 1.71121e-16 0)
(-1 3.08651e-17 0)
(-1 1.09703e-16 0)
(-1 -4.06334e-17 0)
(-1 9.98083e-17 0)
(-1 -1.49323e-17 0)
(-1 6.72988e-17 0)
(-1 -4.95245e-09 0)
(-1 -7.9301e-12 0)
(-1 1.17478e-09 0)
(-1 1.85963e-12 0)
(-1 -2.78699e-10 0)
(-1 -4.71038e-13 0)
(-1 6.60842e-11 0)
(-1 7.7066e-14 0)
(-1 -1.57014e-11 0)
(-1 -5.31986e-14 0)
(-1 3.70199e-12 0)
(-1 -1.83896e-14 0)
(-1 -8.96818e-13 0)
(-1 -2.13656e-14 0)
(-1 1.98309e-13 0)
(-1 -1.50233e-14 0)
(-1 -5.76661e-14 0)
(-1 -1.13436e-14 0)
(-1 6.11564e-15 0)
(-1 -8.01824e-15 0)
(-1 -6.60233e-15 0)
(-1 -5.57158e-15 0)
(-1 -1.73875e-15 0)
(-1 -3.6831e-15 0)
(-1 -1.63168e-15 0)
(-1 -2.42057e-15 0)
(-1 -8.34553e-16 0)
(-1 -1.52573e-15 0)
(-1 -4.34168e-16 0)
(-1 -9.0575e-16 0)
(-1 -1.93174e-16 0)
(-1 -4.69697e-16 0)
(-1 -1.80889e-16 0)
(-1 -3.06522e-16 0)
(-1 -1.65269e-16 0)
(-1 -3.08549e-16 0)
(-1 -4.74419e-17 0)
(-1 -1.44753e-16 0)
(-1 3.56514e-17 0)
(-1 4.94638e-09 0)
(-1 8.15021e-12 0)
(-1 -1.1734e-09 0)
(-1 -1.94942e-12 0)
(-1 2.78305e-10 0)
(-1 4.11029e-13 0)
(-1 -6.60603e-11 0)
(-1 -1.53153e-13 0)
(-1 1.56298e-11 0)
(-1 -1.74672e-14 0)
(-1 -3.74175e-12 0)
(-1 -4.08601e-14 0)
(-1 8.6043e-13 0)
(-1 -2.59737e-14 0)
(-1 -2.24675e-13 0)
(-1 -2.06216e-14 0)
(-1 3.83042e-14 0)
(-1 -1.46545e-14 0)
(-1 -1.97055e-14 0)
(-1 -1.04367e-14 0)
(-1 -2.65235e-15 0)
(-1 -7.18777e-15 0)
(-1 -4.36493e-15 0)
(-1 -4.83396e-15 0)
(-1 -2.31462e-15 0)
(-1 -3.31774e-15 0)
(-1 -1.59693e-15 0)
(-1 -2.13621e-15 0)
(-1 -9.4128e-16 0)
(-1 -1.37822e-15 0)
(-1 -5.83046e-16 0)
(-1 -8.88235e-16 0)
(-1 -4.34182e-16 0)
(-1 -6.05999e-16 0)
(-1 -2.88033e-16 0)
(-1 -4.76241e-16 0)
(-1 -6.16599e-17 0)
(-1 -2.37841e-16 0)
(-1 1.89251e-18 0)
(-1 -4.94018e-09 0)
(-1 -6.77749e-12 0)
(-1 1.17186e-09 0)
(-1 1.59532e-12 0)
(-1 -2.78047e-10 0)
(-1 -4.74133e-13 0)
(-1 6.58897e-11 0)
(-1 2.55746e-14 0)
(-1 -1.56882e-11 0)
(-1 -8.61947e-14 0)
(-1 3.67491e-12 0)
(-1 -4.03026e-14 0)
(-1 -9.07025e-13 0)
(-1 -3.57364e-14 0)
(-1 1.89399e-13 0)
(-1 -2.36511e-14 0)
(-1 -6.33954e-14 0)
(-1 -1.71147e-14 0)
(-1 2.08104e-15 0)
(-1 -1.17262e-14 0)
(-1 -9.36938e-15 0)
(-1 -7.99555e-15 0)
(-1 -3.78678e-15 0)
(-1 -5.35962e-15 0)
(-1 -3.13933e-15 0)
(-1 -3.67346e-15 0)
(-1 -1.91749e-15 0)
(-1 -2.47e-15 0)
(-1 -1.32517e-15 0)
(-1 -1.63674e-15 0)
(-1 -9.11188e-16 0)
(-1 -1.06432e-15 0)
(-1 -6.48058e-16 0)
(-1 -7.3373e-16 0)
(-1 -4.26049e-16 0)
(-1 -5.58506e-16 0)
(-1 -1.74289e-16 0)
(-1 -3.54374e-16 0)
(-1 -8.91819e-17 0)
(-1 4.935e-09 0)
(-1 7.71796e-12 0)
(-1 -1.17074e-09 0)
(-1 -1.88296e-12 0)
(-1 2.77599e-10 0)
(-1 2.39779e-13 0)
(-1 -6.59503e-11 0)
(-1 -2.00086e-13 0)
(-1 1.55617e-11 0)
(-1 -6.94785e-14 0)
(-1 -3.75095e-12 0)
(-1 -5.88667e-14 0)
(-1 8.47637e-13 0)
(-1 -3.79964e-14 0)
(-1 -2.30165e-13 0)
(-1 -2.5139e-14 0)
(-1 3.45545e-14 0)
(-1 -1.71208e-14 0)
(-1 -2.18028e-14 0)
(-1 -1.13181e-14 0)
(-1 -3.98579e-15 0)
(-1 -7.60493e-15 0)
(-1 -5.2463e-15 0)
(-1 -5.15607e-15 0)
(-1 -3.00413e-15 0)
(-1 -3.55108e-15 0)
(-1 -2.18925e-15 0)
(-1 -2.41774e-15 0)
(-1 -1.37589e-15 0)
(-1 -1.57488e-15 0)
(-1 -8.86862e-16 0)
(-1 -9.65056e-16 0)
(-1 -6.44178e-16 0)
(-1 -6.63704e-16 0)
(-1 -4.86831e-16 0)
(-1 -5.19105e-16 0)
(-1 -2.69268e-16 0)
(-1 -3.35058e-16 0)
(-1 -1.26216e-16 0)
(-1 -4.92916e-09 0)
(-1 -4.7676e-12 0)
(-1 1.16909e-09 0)
(-1 9.37177e-13 0)
(-1 -2.77559e-10 0)
(-1 -7.74533e-13 0)
(-1 6.56808e-11 0)
(-1 6.1302e-15 0)
(-1 -1.569e-11 0)
(-1 -1.60639e-13 0)
(-1 3.65409e-12 0)
(-1 -3.47818e-14 0)
(-1 -9.10773e-13 0)
(-1 -4.2255e-14 0)
(-1 1.87905e-13 0)
(-1 -1.9351e-14 0)
(-1 -6.29934e-14 0)
(-1 -1.48695e-14 0)
(-1 2.8798e-15 0)
(-1 -8.84451e-15 0)
(-1 -8.77522e-15 0)
(-1 -6.13315e-15 0)
(-1 -3.46085e-15 0)
(-1 -4.10941e-15 0)
(-1 -2.96468e-15 0)
(-1 -2.83387e-15 0)
(-1 -1.80337e-15 0)
(-1 -1.84057e-15 0)
(-1 -1.16405e-15 0)
(-1 -1.17043e-15 0)
(-1 -7.41898e-16 0)
(-1 -7.61304e-16 0)
(-1 -5.38632e-16 0)
(-1 -5.39991e-16 0)
(-1 -3.67332e-16 0)
(-1 -3.84388e-16 0)
(-1 -1.92006e-16 0)
(-1 -1.99782e-16 0)
(-1 -8.78118e-17 0)
(-1 4.92533e-09 0)
(-1 6.26696e-12 0)
(-1 -1.16893e-09 0)
(-1 -1.72777e-12 0)
(-1 2.76791e-10 0)
(-1 -3.63674e-13 0)
(-1 -6.58353e-11 0)
(-1 -2.28516e-14 0)
(-1 1.54946e-11 0)
(-1 -1.35976e-13 0)
(-1 -3.73112e-12 0)
(-1 -9.68226e-15 0)
(-1 8.49167e-13 0)
(-1 -3.12619e-14 0)
(-1 -2.22126e-13 0)
(-1 -9.25795e-15 0)
(-1 3.92794e-14 0)
(-1 -9.19963e-15 0)
(-1 -1.78575e-14 0)
(-1 -4.76909e-15 0)
(-1 -1.46733e-15 0)
(-1 -3.54746e-15 0)
(-1 -3.48243e-15 0)
(-1 -2.26951e-15 0)
(-1 -1.70976e-15 0)
(-1 -1.57548e-15 0)
(-1 -1.20763e-15 0)
(-1 -9.94472e-16 0)
(-1 -7.67687e-16 0)
(-1 -6.35881e-16 0)
(-1 -5.59396e-16 0)
(-1 -4.43813e-16 0)
(-1 -3.85747e-16 0)
(-1 -3.02277e-16 0)
(-1 -2.16838e-16 0)
(-1 -1.97716e-16 0)
(-1 -9.55874e-17 0)
(-1 -8.79581e-17 0)
(-1 -5.32831e-17 0)
(-1 -4.92079e-09 0)
(-1 1.16684e-09 0)
(-1 -2.77177e-10 0)
(-1 6.56764e-11 0)
(-1 -1.56403e-11 0)
(-1 3.69018e-12 0)
(-1 -8.89687e-13 0)
(-1 2.03668e-13 0)
(-1 -5.32481e-14 0)
(-1 9.5409e-15 0)
(-1 -4.34965e-15 0)
(-1 -3.62564e-16 0)
(-1 -8.60185e-16 0)
(-1 -4.2272e-16 0)
(-1 -3.12007e-16 0)
(-1 -1.86694e-16 0)
(-1 -1.14246e-16 0)
(-1 -6.8836e-17 0)
(-1 -4.56538e-17 0)
)
;

boundaryField
{
    movingWall
    {
        type            calculated;
        value           uniform (-1 -0 -0);
    }
    fixedWalls
    {
        type            calculated;
        value           uniform (-1 -0 -0);
    }
    frontAndBack
    {
        type            empty;
    }
}


// ************************************************************************* //
