/*--------------------------------*- C++ -*----------------------------------*\
| =========                 |                                                 |
| \\      /  F ield         | OpenFOAM: The Open Source CFD Toolbox           |
|  \\    /   O peration     | Version:  2506                                  |
|   \\  /    A nd           | Website:  www.openfoam.com                      |
|    \\/     M anipulation  |                                                 |
\*---------------------------------------------------------------------------*/
FoamFile
{
    version     2.0;
    format      ascii;
    arch        "LSB;label=32;scalar=64";
    class       surfaceScalarField;
    location    "4.5";
    object      surfaceDivU;
}
// * * * * * * * * * * * * * * * * * * * * * * * * * * * * * * * * * * * * * //

dimensions      [0 0 -1 0 0 0 0];

internalField   nonuniform List<scalar> 
760
(
6.52495e-10
-4.14965e-10
3.94658e-10
-3.25092e-10
-2.19451e-10
-2.4363e-10
1.46137e-10
1.63388e-10
-6.39539e-11
-7.40999e-11
1.81189e-11
2.6244e-11
-7.82433e-12
-9.66589e-12
1.77652e-12
2.77956e-12
-8.44157e-13
-1.14179e-12
1.21122e-13
2.35993e-13
-1.25101e-13
-1.3664e-13
-6.87663e-15
1.30416e-15
-5.7125e-15
-2.69033e-14
6.1754e-15
-3.7927e-15
-1.12686e-14
-2.28829e-14
-1.27472e-14
-3.61253e-15
-2.09901e-15
-1.62389e-15
1.79795e-14
9.40673e-16
2.46222e-15
-1.07486e-14
1.35525e-14
-1.39255e-09
-4.71628e-10
-9.6338e-10
1.55869e-09
1.39209e-10
-3.28599e-10
-5.68487e-11
1.61263e-10
1.60979e-11
-2.9788e-11
-1.54088e-12
1.43607e-11
9.38e-13
-3.239e-12
-1.38755e-13
1.31843e-12
-6.16404e-14
-3.67879e-13
-2.17695e-14
1.03324e-13
-1.02349e-14
-4.38018e-14
-1.87225e-14
8.012e-15
-2.49835e-14
-2.34417e-14
-3.2851e-14
-9.7872e-15
-1.52268e-14
-1.15226e-14
7.51074e-15
-3.04336e-15
1.4158e-15
3.14576e-15
-2.77874e-14
-1.54065e-14
3.41734e-16
-2.88942e-14
2.71051e-14
2.47961e-09
-3.24163e-10
2.19347e-09
-2.46016e-10
-3.06544e-10
-2.3252e-11
1.88324e-10
-1.09419e-11
-3.15252e-11
-1.24704e-12
1.26626e-11
2.51649e-12
-2.85857e-12
1.29626e-13
1.0893e-12
5.23221e-13
-2.02915e-13
3.84013e-14
8.12919e-14
8.52469e-14
-2.55549e-14
1.5494e-15
3.29282e-15
-8.38237e-15
-8.24537e-15
4.74233e-15
1.15412e-14
2.87521e-14
6.60892e-16
-1.18531e-15
-7.40835e-15
-1.3264e-14
-1.36765e-14
-2.28376e-14
-1.65132e-14
7.71006e-15
-2.13085e-15
3.78689e-15
0
-3.04979e-09
1.86117e-10
-2.46274e-09
7.60416e-11
2.7235e-10
-2.65753e-11
-2.00513e-10
4.91011e-12
3.27947e-11
-4.32147e-12
-1.00165e-11
8.51082e-13
3.51141e-12
-2.26804e-13
-5.27682e-13
2.94803e-13
3.26563e-13
5.68133e-14
5.50433e-15
7.00055e-14
1.87219e-14
3.37953e-14
-6.93287e-15
8.80438e-15
4.17398e-14
1.91553e-14
1.60256e-14
3.05664e-14
-1.51102e-14
9.50085e-15
-2.86933e-14
-2.15789e-14
-1.45107e-15
-2.34519e-14
2.80101e-14
3.40032e-14
5.91774e-15
2.1582e-14
-2.71051e-14
3.31195e-09
-3.50495e-10
2.5122e-09
4.38689e-10
-2.94015e-10
-9.58845e-11
2.01102e-10
3.81102e-11
-3.62651e-11
-8.78364e-12
1.06407e-11
2.59161e-12
-3.44342e-12
-8.52149e-13
8.79298e-13
2.97325e-13
-1.99744e-13
3.57686e-16
9.82965e-14
5.80567e-14
2.38778e-14
-1.04822e-15
3.48926e-14
4.14519e-14
7.98193e-15
2.72846e-14
2.40417e-14
-3.5457e-15
3.03221e-15
1.46161e-14
-1.63375e-14
-8.26631e-15
1.20023e-14
-4.97557e-15
2.7575e-14
-7.83067e-15
-1.14408e-14
4.17926e-14
-2.71051e-14
-3.22375e-09
1.82918e-10
-2.1694e-09
-3.93053e-10
2.36241e-10
6.9734e-11
-1.71775e-10
-3.41506e-11
3.0073e-11
6.29512e-12
-8.90128e-12
-2.0992e-12
2.88859e-12
5.43661e-13
-5.81615e-13
-1.45756e-13
2.58159e-13
8.72203e-14
-4.1288e-14
1.27787e-14
1.65259e-14
3.44283e-14
3.38439e-14
-2.49202e-15
1.57569e-14
1.11014e-15
-1.29712e-14
5.78879e-16
3.31763e-15
-1.85071e-14
3.0956e-15
3.02956e-14
-2.48086e-14
-1.90421e-14
6.38694e-15
-1.28439e-14
2.61284e-14
1.8817e-14
0
3.01362e-09
-2.11812e-10
1.84608e-09
5.27822e-10
-2.00658e-10
-1.05163e-10
1.4392e-10
4.48787e-11
-2.58771e-11
-9.86386e-12
7.34574e-12
2.85654e-12
-2.49069e-12
-8.78883e-13
5.2308e-13
1.98918e-13
-1.5816e-13
-6.11066e-14
8.8495e-14
2.28489e-14
1.54104e-14
3.31377e-14
-3.52258e-14
-1.38807e-14
-1.40679e-14
-3.17234e-14
-4.95697e-15
1.516e-14
8.47091e-15
-1.18924e-14
8.15792e-15
8.6398e-15
-7.07751e-15
-2.69758e-15
-4.13841e-16
-1.59842e-14
-7.31133e-15
1.45877e-14
-1.35525e-14
-2.69761e-09
6.22874e-11
-1.42342e-09
-3.62548e-10
1.40374e-10
6.26441e-11
-1.08905e-10
-3.04579e-11
1.88698e-11
5.97797e-12
-5.36809e-12
-1.86132e-12
1.81072e-12
5.55391e-13
-3.85268e-13
-1.48972e-13
1.19902e-13
3.83937e-14
-3.25084e-14
-2.14729e-14
3.84669e-15
1.86548e-14
-1.03783e-14
4.69786e-15
-2.49547e-15
-5.24254e-15
8.22467e-15
2.36391e-14
-1.17235e-14
-4.41434e-14
-2.2157e-15
-3.38339e-15
-1.16042e-14
2.17804e-14
-9.82652e-16
-3.20443e-14
8.34648e-15
2.54657e-14
-1.35525e-14
2.39735e-09
-7.90248e-11
1.12352e-09
3.83328e-10
-1.08187e-10
-7.4244e-11
8.4425e-11
3.18569e-11
-1.47531e-11
-7.06881e-12
4.06215e-12
2.05637e-12
-1.4043e-12
-6.29804e-13
2.7469e-13
1.43359e-13
-1.02981e-13
-5.4641e-14
2.96903e-14
-6.46455e-16
1.9506e-14
1.00079e-14
9.8336e-15
1.35775e-14
2.08921e-14
-9.6982e-16
-2.87289e-14
4.01272e-14
-3.58033e-14
-4.99101e-14
2.06127e-14
-6.05595e-15
1.34036e-15
-2.48695e-16
-5.59595e-15
3.64579e-15
3.56671e-15
1.78965e-14
0
-2.09305e-09
-3.16587e-11
-8.14433e-10
-2.05164e-10
6.58003e-11
3.19339e-11
-5.96369e-11
-1.65491e-11
9.74071e-12
3.18381e-12
-2.63559e-12
-9.30491e-13
9.17857e-13
2.65054e-13
-1.85972e-13
-6.35927e-14
4.76935e-14
2.79319e-14
-2.03289e-14
-1.0412e-14
4.07939e-15
9.02971e-15
2.77409e-15
-4.47528e-15
1.82653e-14
-1.96937e-14
1.8946e-14
1.2374e-14
-2.01628e-14
-2.81056e-14
-2.69174e-14
2.41716e-15
2.05674e-15
1.93114e-15
2.71383e-14
1.73148e-14
1.43298e-14
3.03681e-14
-2.71051e-14
1.85622e-09
-1.175e-11
6.41202e-10
2.22605e-10
-5.04155e-11
-4.32629e-11
4.62717e-11
1.81052e-11
-7.48739e-12
-4.12998e-12
1.97015e-12
1.17261e-12
-7.16396e-13
-4.27922e-13
1.50311e-13
6.43991e-14
-3.01736e-14
-3.6844e-15
1.89466e-14
6.4934e-15
4.75043e-16
7.75766e-15
-2.69431e-14
2.99438e-15
-2.55851e-14
-4.41431e-15
-3.46777e-14
-2.0174e-14
-5.52567e-15
5.16879e-15
3.12657e-14
-1.38197e-15
1.71892e-14
2.89504e-14
2.05447e-14
-7.86133e-15
-1.10668e-14
2.61013e-14
-4.06576e-14
-1.64537e-09
-6.48895e-11
-4.6186e-10
-7.49475e-11
2.52578e-11
7.86841e-12
-3.22964e-11
-5.60819e-12
4.53002e-12
8.38021e-13
-1.22546e-12
-2.52778e-13
3.52873e-13
4.96231e-14
-8.95963e-14
-4.1921e-14
3.29826e-14
2.43671e-14
-4.69556e-15
-1.72861e-14
1.0277e-14
5.19321e-15
2.55232e-14
1.75771e-14
9.96862e-16
4.94445e-15
1.96725e-14
-1.52473e-14
9.31248e-15
3.67156e-14
-3.69729e-15
-4.39039e-14
3.89981e-15
1.9354e-14
-2.30469e-15
1.0674e-14
-3.4895e-15
-4.98273e-15
-6.31089e-29
1.50553e-09
-6.05798e-12
3.94781e-10
1.32575e-10
-2.29976e-11
-2.7804e-11
2.75262e-11
1.07018e-11
-3.94478e-12
-2.73039e-12
1.02231e-12
7.2053e-13
-3.4517e-13
-2.44958e-13
7.20424e-14
4.2051e-14
-2.59016e-14
3.60404e-14
-7.39735e-15
-3.3013e-14
1.24933e-14
8.33371e-15
-3.00164e-15
-1.32891e-14
-1.12997e-14
-3.76887e-15
1.79586e-15
4.41441e-15
-1.65008e-14
2.52836e-14
-2.08526e-14
-3.02513e-14
2.61282e-14
-4.60686e-16
7.99596e-15
3.28444e-14
-1.49323e-15
-1.59685e-14
-1.32529e-28
-1.37901e-09
-6.98091e-11
-2.9001e-10
-3.3269e-12
5.89537e-12
-6.1771e-12
-1.95548e-11
2.51806e-13
1.93492e-12
-5.74921e-13
-5.46736e-13
1.4656e-13
1.42263e-13
-9.89686e-14
6.04899e-15
-1.73611e-16
2.8929e-14
5.6479e-14
-1.72819e-14
-1.58983e-14
-1.74487e-14
-1.55497e-14
-1.40564e-14
2.1026e-15
1.19452e-14
2.24798e-14
2.79021e-14
1.32767e-14
1.15331e-14
1.99633e-15
-9.85935e-15
-1.38205e-14
6.25553e-15
-9.93699e-15
8.87994e-15
2.99413e-14
-1.44753e-14
-1.11544e-14
-1.35525e-14
1.30588e-09
-3.03035e-11
2.80506e-10
1.26339e-10
-1.18207e-11
-3.02171e-11
1.92317e-11
1.0417e-11
-2.36328e-12
-3.18335e-12
5.94327e-13
8.55501e-13
-2.41406e-13
-3.02768e-13
5.02564e-14
1.12828e-13
1.16517e-14
3.50244e-14
-1.41661e-14
6.32681e-15
4.00166e-15
-1.40012e-14
3.86387e-14
2.41868e-14
2.38113e-14
1.91636e-14
-1.2629e-14
-1.3387e-14
-2.33573e-14
1.02124e-14
-1.38982e-14
-1.90727e-14
1.37488e-14
-2.55527e-14
9.907e-15
3.20506e-14
-1.02316e-14
8.54109e-15
-1.35525e-14
-1.20984e-09
-9.76053e-11
-1.84384e-10
5.3174e-11
-7.97944e-12
-2.65932e-11
-1.1998e-11
5.39842e-12
3.54284e-14
-3.00413e-12
-4.15948e-14
9.38636e-13
5.14651e-14
-2.03991e-13
9.75957e-14
2.30295e-13
2.96995e-14
3.23426e-14
6.49165e-15
4.01564e-14
6.18389e-15
-1.50601e-14
4.71169e-15
1.90806e-14
-1.80346e-14
9.38283e-15
9.45446e-15
-1.44348e-14
1.44969e-14
3.12035e-14
-3.07272e-14
-1.32023e-14
-7.25085e-15
-1.77707e-14
3.06847e-14
1.42116e-14
5.22014e-15
1.23719e-14
-1.35525e-14
1.16541e-09
-6.43474e-11
2.10965e-10
2.2003e-10
-1.32153e-11
-8.17731e-11
1.43923e-11
2.81196e-11
-2.10093e-12
-8.64608e-12
7.7624e-13
4.0386e-12
-2.51615e-14
-8.15192e-13
1.65041e-13
5.65442e-13
4.27994e-14
-8.19495e-14
1.86047e-14
9.79355e-14
-2.16331e-15
-3.21078e-14
2.37518e-14
8.57647e-15
1.29826e-14
1.20266e-14
7.31424e-15
-5.7022e-15
3.50433e-15
-3.48062e-15
-2.45721e-16
-1.00056e-14
3.69178e-15
1.51558e-14
-4.10115e-15
1.80709e-14
-6.40073e-15
-2.63789e-14
0
-1.00973e-09
-3.80758e-10
-7.2708e-11
2.55431e-10
-4.04382e-11
-8.55637e-11
5.08119e-12
4.80521e-11
-2.50656e-12
-1.18941e-11
2.44717e-12
6.95127e-12
-2.24589e-13
-1.75449e-12
3.18451e-13
8.11844e-13
-2.68134e-14
-2.65613e-13
4.7223e-14
1.02313e-13
-2.1368e-14
-4.64886e-14
-3.1487e-15
-2.80282e-14
-6.65819e-15
1.98513e-14
-1.64971e-14
1.09883e-15
-1.69906e-14
-1.80008e-14
5.39585e-15
1.50137e-14
2.95349e-14
2.41935e-14
-4.2069e-15
9.55221e-15
-1.99782e-14
-2.8774e-14
1.35525e-14
8.84401e-10
-1.84165e-10
2.42575e-10
9.67356e-10
2.92657e-12
-4.8642e-10
3.10767e-11
2.6268e-10
-2.43632e-12
-9.32051e-11
2.74961e-12
3.23168e-11
-7.1806e-13
-1.10544e-11
2.27779e-13
3.30259e-12
-1.36487e-13
-1.16391e-12
8.60163e-15
2.6848e-13
-5.31488e-14
-1.37905e-13
-5.02821e-15
-1.0111e-14
2.76083e-14
5.0828e-15
-4.04946e-16
2.25255e-14
1.40034e-14
-9.37797e-15
3.38113e-14
9.82885e-15
4.2108e-15
1.04299e-14
-1.50149e-14
-1.97716e-14
4.75672e-15
-8.79581e-15
-1.67239e-28
-1.0121e-10
2.38362e-10
-2.26666e-10
1.38398e-10
-5.8452e-11
1.85128e-11
-7.03376e-12
1.91091e-12
-7.58942e-13
1.21973e-13
-9.48677e-14
6.31089e-29
1.32529e-28
1.35525e-14
-1.35525e-14
-1.35525e-14
-1.35525e-14
-1.35525e-14
-1.35525e-14
)
;

boundaryField
{
    movingWall
    {
        type            calculated;
        value           nonuniform List<scalar> 
20
(
-1.58307e-09
1.38065e-09
-9.03926e-10
4.50594e-10
-1.73798e-10
5.68935e-11
-1.9868e-11
5.80048e-12
-1.97867e-12
4.60786e-13
-2.1684e-13
2.71051e-14
-2.71051e-14
2.71051e-14
0
-2.71051e-14
0
-2.71051e-14
0
-2.71051e-14
)
;
    }
    fixedWalls
    {
        type            calculated;
        value           nonuniform List<scalar> 
60
(
-4.01046e-10
-4.28883e-10
-5.14373e-10
-1.33953e-10
5.06187e-10
-1.20718e-09
1.57301e-09
-1.99664e-09
2.12121e-09
-2.27926e-09
2.21595e-09
-2.23945e-09
2.10967e-09
-2.12178e-09
1.98217e-09
-2.04277e-09
1.84756e-09
-1.97626e-09
1.21474e-09
-1.58307e-09
-2.71051e-14
5.42101e-14
0
0
-5.42101e-14
0
0
-2.71051e-14
0
0
-5.42101e-14
-2.71051e-14
2.71051e-14
-2.71051e-14
0
-2.71051e-14
0
0
2.71051e-14
-2.71051e-14
-4.01046e-10
1.70604e-09
-9.16719e-10
4.77817e-10
-1.85543e-10
5.76356e-11
-2.13977e-11
5.749e-12
-2.19595e-12
5.0764e-13
-2.65396e-13
1.5193e-14
-2.89463e-14
1.75213e-14
-5.17048e-15
-1.73667e-14
-8.12759e-15
3.92957e-15
3.20295e-14
-2.71051e-14
)
;
    }
    frontAndBack
    {
        type            empty;
    }
}


// ************************************************************************* //
