/*--------------------------------*- C++ -*----------------------------------*\
| =========                 |                                                 |
| \\      /  F ield         | OpenFOAM: The Open Source CFD Toolbox           |
|  \\    /   O peration     | Version:  2506                                  |
|   \\  /    A nd           | Website:  www.openfoam.com                      |
|    \\/     M anipulation  |                                                 |
\*---------------------------------------------------------------------------*/
FoamFile
{
    version     2.0;
    format      ascii;
    arch        "LSB;label=32;scalar=64";
    class       surfaceScalarField;
    location    "4.5";
    object      surfaceP;
}
// * * * * * * * * * * * * * * * * * * * * * * * * * * * * * * * * * * * * * //

dimensions      [0 2 -2 0 0 0 0];

internalField   nonuniform List<scalar> 
760
(
2.27531e-17
4.11988e-14
8.49425e-13
6.91367e-13
8.949e-13
9.34647e-13
2.35371e-13
1.25245e-13
2.50642e-13
2.58014e-13
1.22238e-13
1.14942e-13
1.00652e-13
1.06224e-13
7.20197e-14
7.43999e-14
5.92776e-14
6.20345e-14
4.93422e-14
5.10598e-14
4.30349e-14
4.45251e-14
3.84024e-14
3.93817e-14
3.52559e-14
3.59725e-14
3.29347e-14
3.35918e-14
3.12897e-14
3.17314e-14
3.01591e-14
3.04472e-14
2.94574e-14
2.95176e-14
2.90412e-14
2.90975e-14
2.86817e-14
2.87003e-14
2.83456e-14
7.32543e-13
4.1176e-14
7.76589e-13
6.91367e-13
1.64992e-13
8.5222e-14
1.47887e-13
7.97703e-14
1.22314e-13
1.15724e-13
9.89276e-14
7.81899e-14
7.99716e-14
7.63678e-14
6.44146e-14
6.13367e-14
5.38168e-14
5.32218e-14
4.62427e-14
4.59646e-14
4.08718e-14
4.10422e-14
3.69518e-14
3.71143e-14
3.43084e-14
3.43531e-14
3.23885e-14
3.24937e-14
3.0889e-14
3.09665e-14
2.98057e-14
2.99128e-14
2.91577e-14
2.91345e-14
2.87566e-14
2.86868e-14
2.83642e-14
2.82972e-14
2.80959e-14
0
2.21686e-13
0
2.6235e-12
0
0
4.76072e-14
8.58181e-14
7.16002e-14
4.76072e-14
5.563e-14
3.86978e-14
5.77329e-14
4.6197e-14
5.01438e-14
4.46467e-14
4.53696e-14
4.21516e-14
4.07641e-14
3.89329e-14
3.72846e-14
3.63234e-14
3.45157e-14
3.398e-14
3.25385e-14
3.20686e-14
3.10717e-14
3.0799e-14
2.99904e-14
2.97209e-14
2.92416e-14
2.9037e-14
2.86636e-14
2.84898e-14
2.82275e-14
2.79851e-14
2.80289e-14
2.77341e-14
2.77813e-14
2.84519e-12
2.21686e-13
2.6235e-12
2.6235e-12
8.58181e-14
0
8.58181e-14
8.58181e-14
1.47048e-14
2.04469e-14
2.92648e-14
1.47048e-14
3.31108e-14
2.5061e-14
3.66544e-14
2.96204e-14
3.57149e-14
3.14916e-14
3.44923e-14
3.16634e-14
3.30189e-14
3.11958e-14
3.1533e-14
3.03675e-14
3.03291e-14
2.94648e-14
2.94481e-14
2.88447e-14
2.87675e-14
2.82578e-14
2.82852e-14
2.7843e-14
2.78113e-14
2.74932e-14
2.74918e-14
2.71955e-14
2.74865e-14
2.70866e-14
2.72415e-14
0
4.04241e-13
0
2.32313e-12
0
0
2.04469e-14
6.48344e-14
2.04469e-14
2.04469e-14
1.0501e-14
0
2.15706e-14
1.14699e-14
2.44576e-14
1.81701e-14
2.74401e-14
2.26208e-14
2.83669e-14
2.51017e-14
2.85444e-14
2.62675e-14
2.82993e-14
2.67185e-14
2.79804e-14
2.67539e-14
2.76544e-14
2.67574e-14
2.73333e-14
2.66155e-14
2.7051e-14
2.64766e-14
2.68774e-14
2.64162e-14
2.67903e-14
2.64592e-14
2.68416e-14
2.63779e-14
2.65842e-14
2.72737e-12
4.04241e-13
2.32313e-12
2.32313e-12
6.48344e-14
0
6.48344e-14
6.48344e-14
0
7.4488e-15
9.68892e-16
0
8.06934e-15
2.09776e-15
1.63333e-14
1.02744e-14
2.02824e-14
1.57206e-14
2.30022e-14
1.95777e-14
2.44416e-14
2.18664e-14
2.5173e-14
2.33572e-14
2.55309e-14
2.40796e-14
2.57185e-14
2.46587e-14
2.57588e-14
2.48865e-14
2.58418e-14
2.51751e-14
2.59981e-14
2.54028e-14
2.60469e-14
2.5669e-14
2.61206e-14
2.56682e-14
2.58607e-14
0
4.75758e-13
0
1.52517e-12
0
0
7.4488e-15
3.35155e-14
7.4488e-15
7.4488e-15
1.12887e-15
0
4.30286e-15
1.12887e-15
9.66173e-15
4.79809e-15
1.50159e-14
1.08306e-14
1.84419e-14
1.52316e-14
2.07821e-14
1.83018e-14
2.22637e-14
2.04319e-14
2.32073e-14
2.17045e-14
2.38266e-14
2.2782e-14
2.43028e-14
2.33963e-14
2.47361e-14
2.40056e-14
2.50738e-14
2.44451e-14
2.52903e-14
2.47659e-14
2.54083e-14
2.49698e-14
2.51935e-14
2.00093e-12
4.75758e-13
1.52517e-12
1.52517e-12
3.35155e-14
0
3.35155e-14
3.35155e-14
0
0
0
0
1.6241e-15
0
5.967e-15
1.6809e-15
1.10463e-14
7.52415e-15
1.50914e-14
1.21424e-14
1.79515e-14
1.56968e-14
1.98727e-14
1.8164e-14
2.12792e-14
1.9799e-14
2.23516e-14
2.12682e-14
2.30991e-14
2.2265e-14
2.37146e-14
2.29178e-14
2.41372e-14
2.35855e-14
2.44454e-14
2.40234e-14
2.47549e-14
2.43185e-14
2.46138e-14
0
4.47604e-13
0
8.81808e-13
0
0
0
1.08419e-14
0
0
0
0
5.6806e-17
0
3.23806e-15
5.6806e-17
8.6202e-15
5.55211e-15
1.27477e-14
1.02391e-14
1.59092e-14
1.39155e-14
1.80903e-14
1.65975e-14
1.9788e-14
1.84936e-14
2.11815e-14
2.01294e-14
2.20837e-14
2.14357e-14
2.27887e-14
2.22111e-14
2.34717e-14
2.29358e-14
2.38965e-14
2.34208e-14
2.41774e-14
2.38259e-14
2.41929e-14
1.32941e-12
4.47604e-13
8.81808e-13
8.81808e-13
1.08419e-14
0
1.08419e-14
1.08419e-14
0
0
0
0
0
0
2.37085e-15
0
7.17098e-15
4.62098e-15
1.14068e-14
9.27069e-15
1.46038e-14
1.2856e-14
1.70008e-14
1.57303e-14
1.88351e-14
1.78374e-14
2.03836e-14
1.94473e-14
2.15631e-14
2.09193e-14
2.23581e-14
2.18975e-14
2.28849e-14
2.2446e-14
2.33502e-14
2.2828e-14
2.38414e-14
2.34498e-14
2.38663e-14
0
3.79208e-13
0
5.14118e-13
0
1.33909e-15
0
0
0
0
0
0
0
0
2.25012e-15
0
6.72069e-15
4.78029e-15
1.07199e-14
9.12287e-15
1.39825e-14
1.26646e-14
1.65669e-14
1.55063e-14
1.84496e-14
1.7708e-14
1.9983e-14
1.91981e-14
2.12537e-14
2.06146e-14
2.19853e-14
2.16733e-14
2.23891e-14
2.21315e-14
2.29277e-14
2.25124e-14
2.34747e-14
2.31293e-14
2.35471e-14
8.93326e-13
3.79208e-13
5.15458e-13
5.14118e-13
1.33909e-15
1.33909e-15
0
0
0
0
0
0
0
0
2.53016e-15
4.61933e-16
7.18247e-15
5.78821e-15
1.10675e-14
9.90625e-15
1.41884e-14
1.3301e-14
1.66474e-14
1.60134e-14
1.84564e-14
1.79677e-14
1.98297e-14
1.93695e-14
2.10341e-14
2.06122e-14
2.18195e-14
2.16389e-14
2.22549e-14
2.21635e-14
2.2714e-14
2.24457e-14
2.32017e-14
2.29077e-14
2.32367e-14
0
3.23065e-13
0
3.33446e-13
0
6.28912e-16
0
0
0
0
0
0
4.61933e-16
0
3.71998e-15
2.42405e-15
8.51198e-15
7.71757e-15
1.21397e-14
1.15396e-14
1.51261e-14
1.46117e-14
1.73338e-14
1.71246e-14
1.88808e-14
1.86816e-14
2.0152e-14
1.99647e-14
2.1217e-14
2.10201e-14
2.19829e-14
2.19442e-14
2.23543e-14
2.24116e-14
2.26394e-14
2.24822e-14
2.29427e-14
2.28001e-14
2.31188e-14
6.5651e-13
3.23065e-13
3.34074e-13
3.33446e-13
6.28912e-16
6.28912e-16
0
0
0
0
0
0
1.96211e-15
1.15337e-15
6.42164e-15
6.11048e-15
1.07452e-14
1.07725e-14
1.40116e-14
1.40319e-14
1.66102e-14
1.65881e-14
1.84724e-14
1.86089e-14
1.97655e-14
1.97588e-14
2.08328e-14
2.08907e-14
2.17473e-14
2.177e-14
2.23729e-14
2.24016e-14
2.25395e-14
2.26336e-14
2.2643e-14
2.25903e-14
2.29762e-14
2.28003e-14
2.31829e-14
0
2.88684e-13
0
2.0881e-13
0
0
0
0
0
0
1.15337e-15
0
5.30174e-15
5.71358e-15
1.04614e-14
1.13466e-14
1.40593e-14
1.50719e-14
1.66084e-14
1.73859e-14
1.85868e-14
1.91409e-14
1.98953e-14
2.04143e-14
2.0884e-14
2.11813e-14
2.18279e-14
2.19576e-14
2.24243e-14
2.2562e-14
2.26623e-14
2.28775e-14
2.26843e-14
2.29071e-14
2.27476e-14
2.28584e-14
2.30071e-14
2.29451e-14
2.32206e-14
4.97494e-13
2.88684e-13
2.0881e-13
2.0881e-13
0
0
0
0
0
1.6104e-15
4.56021e-15
6.18326e-15
1.17584e-14
1.48399e-14
1.59571e-14
1.85713e-14
1.83985e-14
2.06665e-14
1.99183e-14
2.15636e-14
2.09684e-14
2.21776e-14
2.17003e-14
2.24294e-14
2.22549e-14
2.27243e-14
2.26917e-14
2.29716e-14
2.30153e-14
2.3208e-14
2.31223e-14
2.33732e-14
2.30812e-14
2.33183e-14
2.3056e-14
2.32125e-14
2.31587e-14
2.33091e-14
2.33971e-14
0
2.63185e-13
0
1.30447e-14
0
7.12428e-15
1.6104e-15
0
7.79366e-15
1.74284e-14
1.64629e-14
2.19602e-14
2.16528e-14
2.85269e-14
2.32807e-14
2.77951e-14
2.38317e-14
2.73817e-14
2.38229e-14
2.61519e-14
2.36386e-14
2.53506e-14
2.34534e-14
2.45922e-14
2.34411e-14
2.42315e-14
2.3488e-14
2.40077e-14
2.35659e-14
2.38739e-14
2.35691e-14
2.37588e-14
2.34496e-14
2.3634e-14
2.34657e-14
2.35657e-14
2.35475e-14
2.37348e-14
2.37976e-14
2.7623e-13
2.63185e-13
2.01689e-14
1.30447e-14
7.12428e-15
7.70057e-14
1.5818e-14
5.227e-15
3.15949e-14
6.89834e-14
3.40242e-14
4.58185e-14
3.46692e-14
4.64627e-14
3.18961e-14
3.79054e-14
2.9702e-14
3.42504e-14
2.76796e-14
3.04457e-14
2.63042e-14
2.82089e-14
2.53703e-14
2.65952e-14
2.47982e-14
2.56098e-14
2.43936e-14
2.48741e-14
2.40668e-14
2.44183e-14
2.38236e-14
2.40603e-14
2.375e-14
2.38746e-14
2.38348e-14
2.38749e-14
2.39849e-14
2.39978e-14
2.41242e-14
0
1.2186e-13
6.98814e-14
0
7.51084e-14
7.54175e-13
5.83924e-14
5.227e-15
8.32069e-14
1.86802e-13
5.82569e-14
5.81111e-14
4.96989e-14
6.76306e-14
4.02598e-14
4.48643e-14
3.49941e-14
3.98819e-14
3.09749e-14
3.34241e-14
2.84999e-14
3.02799e-14
2.68346e-14
2.79386e-14
2.56857e-14
2.65504e-14
2.48988e-14
2.54087e-14
2.44118e-14
2.46973e-14
2.41112e-14
2.42999e-14
2.39994e-14
2.40846e-14
2.40378e-14
2.40378e-14
2.41371e-14
2.40959e-14
2.43044e-14
1.2186e-13
6.84294e-13
6.84294e-13
1.33637e-13
1.61706e-13
6.74848e-14
6.2796e-14
4.44864e-14
3.83119e-14
3.27291e-14
2.97186e-14
2.76543e-14
2.62733e-14
2.52071e-14
2.45854e-14
2.42733e-14
2.4123e-14
2.4096e-14
2.42633e-14
)
;

boundaryField
{
    movingWall
    {
        type            calculated;
        value           nonuniform List<scalar> 
20
(
2.43721e-13
0
1.36859e-12
0
2.67273e-13
5.61391e-14
7.88304e-14
4.67617e-14
4.22111e-14
3.44126e-14
3.10455e-14
2.83918e-14
2.69169e-14
2.56298e-14
2.47845e-14
2.43862e-14
2.41603e-14
2.40857e-14
2.41063e-14
2.44202e-14
)
;
    }
    fixedWalls
    {
        type            calculated;
        value           nonuniform List<scalar> 
60
(
4.55061e-17
8.23521e-14
0
4.43372e-13
0
8.08482e-13
0
9.51517e-13
0
8.95209e-13
0
7.58415e-13
0
6.4613e-13
0
5.77369e-13
0
5.2637e-13
0
2.43721e-13
2.85136e-14
2.81776e-14
2.80141e-14
2.75485e-14
2.69346e-14
2.62339e-14
2.54875e-14
2.48995e-14
2.4328e-14
2.40577e-14
2.36749e-14
2.34194e-14
2.3054e-14
2.31835e-14
2.31823e-14
2.32588e-14
2.35354e-14
2.40599e-14
2.41886e-14
2.44202e-14
4.55061e-17
0
1.69885e-12
9.09487e-14
3.79794e-13
1.2149e-13
1.22986e-13
7.83181e-14
6.57214e-14
5.28337e-14
4.58507e-14
4.0219e-14
3.65857e-14
3.39261e-14
3.19433e-14
3.0636e-14
2.96822e-14
2.92326e-14
2.88498e-14
2.85136e-14
)
;
    }
    frontAndBack
    {
        type            empty;
    }
}


// ************************************************************************* //
