/*--------------------------------*- C++ -*----------------------------------*\
| =========                 |                                                 |
| \\      /  F ield         | OpenFOAM: The Open Source CFD Toolbox           |
|  \\    /   O peration     | Version:  2506                                  |
|   \\  /    A nd           | Website:  www.openfoam.com                      |
|    \\/     M anipulation  |                                                 |
\*---------------------------------------------------------------------------*/
FoamFile
{
    version     2.0;
    format      ascii;
    arch        "LSB;label=32;scalar=64";
    class       volScalarField;
    location    "4.5";
    object      turbulenceProperties:nuEff;
}
// * * * * * * * * * * * * * * * * * * * * * * * * * * * * * * * * * * * * * //

dimensions      [0 2 -1 0 0 0 0];

internalField   nonuniform List<scalar> 
400
(
1.24605e-05
1.24605e-05
1.24604e-05
1.24605e-05
1.24604e-05
1.24605e-05
1.24604e-05
1.24605e-05
1.24604e-05
1.24604e-05
1.24604e-05
1.24604e-05
1.24604e-05
1.24604e-05
1.24604e-05
1.24604e-05
1.24604e-05
1.24604e-05
1.24604e-05
1.24604e-05
1.26186e-05
1.26929e-05
1.2686e-05
1.26832e-05
1.26775e-05
1.26746e-05
1.26691e-05
1.26661e-05
1.26607e-05
1.26576e-05
1.26523e-05
1.26491e-05
1.2644e-05
1.26407e-05
1.26356e-05
1.26324e-05
1.26273e-05
1.2624e-05
1.26215e-05
1.26174e-05
1.28085e-05
1.28955e-05
1.28873e-05
1.28839e-05
1.28772e-05
1.28737e-05
1.28672e-05
1.28636e-05
1.28573e-05
1.28536e-05
1.28475e-05
1.28437e-05
1.28377e-05
1.28339e-05
1.2828e-05
1.28242e-05
1.28184e-05
1.28146e-05
1.28116e-05
1.28069e-05
1.29533e-05
1.30506e-05
1.30414e-05
1.30375e-05
1.30301e-05
1.30261e-05
1.30189e-05
1.30149e-05
1.30078e-05
1.30037e-05
1.29968e-05
1.29926e-05
1.29859e-05
1.29817e-05
1.29751e-05
1.29708e-05
1.29643e-05
1.29601e-05
1.29568e-05
1.29515e-05
1.30446e-05
1.31486e-05
1.31387e-05
1.31347e-05
1.31267e-05
1.31225e-05
1.31147e-05
1.31104e-05
1.31028e-05
1.30984e-05
1.3091e-05
1.30866e-05
1.30793e-05
1.30749e-05
1.30678e-05
1.30633e-05
1.30563e-05
1.30517e-05
1.30482e-05
1.30426e-05
1.30972e-05
1.32053e-05
1.31951e-05
1.31907e-05
1.31825e-05
1.31781e-05
1.317e-05
1.31655e-05
1.31577e-05
1.31531e-05
1.31454e-05
1.31408e-05
1.31333e-05
1.31286e-05
1.31213e-05
1.31166e-05
1.31093e-05
1.31046e-05
1.3101e-05
1.30951e-05
1.3127e-05
1.32373e-05
1.32268e-05
1.32224e-05
1.32139e-05
1.32095e-05
1.32012e-05
1.31967e-05
1.31886e-05
1.3184e-05
1.31761e-05
1.31715e-05
1.31638e-05
1.3159e-05
1.31515e-05
1.31467e-05
1.31393e-05
1.31345e-05
1.31308e-05
1.31248e-05
1.31446e-05
1.32562e-05
1.32455e-05
1.32412e-05
1.32326e-05
1.32281e-05
1.32197e-05
1.32151e-05
1.32069e-05
1.32023e-05
1.31943e-05
1.31896e-05
1.31817e-05
1.3177e-05
1.31693e-05
1.31645e-05
1.3157e-05
1.31521e-05
1.31484e-05
1.31423e-05
1.31562e-05
1.32687e-05
1.3258e-05
1.32535e-05
1.32449e-05
1.32404e-05
1.32319e-05
1.32273e-05
1.3219e-05
1.32144e-05
1.32063e-05
1.32015e-05
1.31936e-05
1.31888e-05
1.31811e-05
1.31763e-05
1.31687e-05
1.31638e-05
1.316e-05
1.31539e-05
1.31652e-05
1.32784e-05
1.32676e-05
1.32631e-05
1.32544e-05
1.32498e-05
1.32414e-05
1.32366e-05
1.32285e-05
1.32236e-05
1.32156e-05
1.32107e-05
1.32029e-05
1.3198e-05
1.31903e-05
1.31853e-05
1.31778e-05
1.31728e-05
1.31691e-05
1.31629e-05
1.31733e-05
1.3287e-05
1.32762e-05
1.32717e-05
1.3263e-05
1.32583e-05
1.32498e-05
1.32452e-05
1.32368e-05
1.32321e-05
1.32239e-05
1.32191e-05
1.32111e-05
1.32063e-05
1.31985e-05
1.31935e-05
1.31859e-05
1.3181e-05
1.31771e-05
1.3171e-05
1.31813e-05
1.32957e-05
1.32849e-05
1.32803e-05
1.32716e-05
1.32669e-05
1.32584e-05
1.32536e-05
1.32453e-05
1.32405e-05
1.32323e-05
1.32274e-05
1.32194e-05
1.32145e-05
1.32067e-05
1.32017e-05
1.31941e-05
1.31891e-05
1.31853e-05
1.31791e-05
1.319e-05
1.3305e-05
1.32941e-05
1.32895e-05
1.32807e-05
1.3276e-05
1.32674e-05
1.32627e-05
1.32543e-05
1.32494e-05
1.32413e-05
1.32363e-05
1.32283e-05
1.32234e-05
1.32155e-05
1.32105e-05
1.32028e-05
1.31978e-05
1.31939e-05
1.31877e-05
1.31996e-05
1.33153e-05
1.33044e-05
1.32997e-05
1.32909e-05
1.32862e-05
1.32775e-05
1.32727e-05
1.32642e-05
1.32594e-05
1.32511e-05
1.32462e-05
1.32381e-05
1.32332e-05
1.32252e-05
1.32202e-05
1.32125e-05
1.32074e-05
1.32036e-05
1.31973e-05
1.32105e-05
1.3327e-05
1.33159e-05
1.33113e-05
1.33024e-05
1.32976e-05
1.32889e-05
1.32841e-05
1.32756e-05
1.32706e-05
1.32624e-05
1.32574e-05
1.32493e-05
1.32442e-05
1.32363e-05
1.32312e-05
1.32234e-05
1.32183e-05
1.32144e-05
1.32081e-05
1.32229e-05
1.33404e-05
1.33292e-05
1.33245e-05
1.33155e-05
1.33108e-05
1.33019e-05
1.32971e-05
1.32885e-05
1.32836e-05
1.32752e-05
1.32702e-05
1.3262e-05
1.3257e-05
1.32489e-05
1.32438e-05
1.32359e-05
1.32308e-05
1.32269e-05
1.32205e-05
1.32368e-05
1.33553e-05
1.33441e-05
1.33393e-05
1.33303e-05
1.33254e-05
1.33166e-05
1.33116e-05
1.33031e-05
1.3298e-05
1.32896e-05
1.32845e-05
1.32763e-05
1.32711e-05
1.32631e-05
1.32579e-05
1.325e-05
1.32448e-05
1.32409e-05
1.32344e-05
1.32514e-05
1.3371e-05
1.33595e-05
1.33549e-05
1.33456e-05
1.33408e-05
1.33318e-05
1.33269e-05
1.33182e-05
1.33131e-05
1.33046e-05
1.32995e-05
1.32912e-05
1.3286e-05
1.32779e-05
1.32727e-05
1.32647e-05
1.32594e-05
1.32554e-05
1.3249e-05
1.32642e-05
1.3382e-05
1.3371e-05
1.33664e-05
1.33575e-05
1.33527e-05
1.33441e-05
1.33391e-05
1.33307e-05
1.33256e-05
1.33174e-05
1.33122e-05
1.33041e-05
1.32988e-05
1.32909e-05
1.32855e-05
1.32777e-05
1.32723e-05
1.32683e-05
1.32618e-05
1.32696e-05
1.32696e-05
1.32696e-05
1.32696e-05
1.32696e-05
1.32696e-05
1.32696e-05
1.32696e-05
1.32696e-05
1.32696e-05
1.32696e-05
1.32695e-05
1.32696e-05
1.32695e-05
1.32696e-05
1.32696e-05
1.32696e-05
1.32696e-05
1.32696e-05
1.32696e-05
)
;

boundaryField
{
    movingWall
    {
        type            calculated;
        value           uniform 1e-05;
    }
    fixedWalls
    {
        type            calculated;
        value           uniform 1e-05;
    }
    frontAndBack
    {
        type            empty;
    }
}


// ************************************************************************* //
