/*--------------------------------*- C++ -*----------------------------------*\
| =========                 |                                                 |
| \\      /  F ield         | OpenFOAM: The Open Source CFD Toolbox           |
|  \\    /   O peration     | Version:  2506                                  |
|   \\  /    A nd           | Website:  www.openfoam.com                      |
|    \\/     M anipulation  |                                                 |
\*---------------------------------------------------------------------------*/
FoamFile
{
    version     2.0;
    format      ascii;
    arch        "LSB;label=32;scalar=64";
    class       volScalarField;
    location    "4.5";
    object      turbulenceProperties:L;
}
// * * * * * * * * * * * * * * * * * * * * * * * * * * * * * * * * * * * * * //

dimensions      [0 1 0 0 0 0 0];

internalField   nonuniform List<scalar> 
400
(
0.0010201
0.0010201
0.0010201
0.0010201
0.0010201
0.0010201
0.00102009
0.0010201
0.00102009
0.0010201
0.00102009
0.0010201
0.00102009
0.0010201
0.00102009
0.0010201
0.0010201
0.0010201
0.0010201
0.0010201
0.00101937
0.0010483
0.00104568
0.00104461
0.00104248
0.00104136
0.00103929
0.00103812
0.00103608
0.00103488
0.00103288
0.00103165
0.00102967
0.00102842
0.00102645
0.00102519
0.00102324
0.00102196
0.00102098
0.00101938
0.00101872
0.00105031
0.00104742
0.00104623
0.00104388
0.00104264
0.00104035
0.00103907
0.00103683
0.00103553
0.00103332
0.00103199
0.00102983
0.00102848
0.00102635
0.00102498
0.00102288
0.0010215
0.00102045
0.00101873
0.00101836
0.0010519
0.00104883
0.00104755
0.00104507
0.00104374
0.00104132
0.00103996
0.00103758
0.00103619
0.00103386
0.00103244
0.00103015
0.00102872
0.00102646
0.00102501
0.00102277
0.00102131
0.0010202
0.00101837
0.00101819
0.00105299
0.00104979
0.00104848
0.00104589
0.00104453
0.001042
0.0010406
0.00103813
0.00103669
0.00103426
0.00103281
0.00103041
0.00102894
0.00102658
0.00102509
0.00102277
0.00102125
0.00102009
0.0010182
0.00101811
0.00105363
0.00105039
0.00104902
0.0010464
0.00104499
0.00104242
0.00104098
0.00103846
0.001037
0.00103451
0.00103303
0.00103058
0.00102908
0.00102668
0.00102515
0.00102278
0.00102124
0.00102005
0.00101813
0.00101807
0.00105399
0.0010507
0.00104934
0.00104666
0.00104526
0.00104264
0.0010412
0.00103864
0.00103717
0.00103466
0.00103315
0.00103069
0.00102916
0.00102673
0.00102518
0.00102279
0.00102123
0.00102004
0.00101809
0.00101805
0.0010542
0.00105088
0.00104952
0.00104682
0.00104541
0.00104278
0.00104133
0.00103875
0.00103727
0.00103473
0.00103323
0.00103074
0.00102921
0.00102676
0.0010252
0.0010228
0.00102123
0.00102003
0.00101806
0.00101804
0.00105434
0.001051
0.00104963
0.00104692
0.00104551
0.00104286
0.00104141
0.00103881
0.00103733
0.00103478
0.00103327
0.00103077
0.00102924
0.00102678
0.00102522
0.0010228
0.00102122
0.00102002
0.00101805
0.00101802
0.00105443
0.00105109
0.00104971
0.001047
0.00104556
0.00104293
0.00104144
0.00103888
0.00103735
0.00103484
0.00103329
0.00103081
0.00102925
0.0010268
0.00102522
0.0010228
0.00102122
0.00102001
0.00101803
0.001018
0.00105451
0.00105117
0.00104977
0.00104707
0.00104563
0.00104297
0.00104151
0.0010389
0.00103741
0.00103485
0.00103333
0.00103082
0.00102927
0.0010268
0.00102523
0.0010228
0.00102121
0.00102
0.00101802
0.00101798
0.00105459
0.00105126
0.00104984
0.00104714
0.00104568
0.00104304
0.00104155
0.00103895
0.00103744
0.00103488
0.00103335
0.00103083
0.00102928
0.00102681
0.00102523
0.0010228
0.0010212
0.00101999
0.001018
0.00101797
0.00105468
0.00105131
0.00104992
0.00104718
0.00104575
0.00104308
0.0010416
0.00103899
0.00103747
0.00103492
0.00103337
0.00103086
0.00102929
0.00102682
0.00102523
0.00102279
0.00102119
0.00101997
0.00101798
0.00101794
0.00105477
0.00105141
0.00105
0.00104727
0.00104582
0.00104314
0.00104166
0.00103902
0.00103753
0.00103494
0.00103341
0.00103087
0.00102931
0.00102682
0.00102524
0.00102278
0.00102118
0.00101996
0.00101796
0.00101793
0.00105489
0.00105149
0.00105009
0.00104734
0.00104589
0.00104321
0.00104171
0.00103909
0.00103755
0.00103499
0.00103342
0.00103091
0.00102931
0.00102684
0.00102523
0.00102278
0.00102117
0.00101994
0.00101794
0.0010179
0.00105501
0.0010516
0.00105019
0.00104742
0.00104598
0.00104327
0.00104179
0.00103914
0.00103762
0.00103502
0.00103347
0.00103092
0.00102935
0.00102684
0.00102524
0.00102277
0.00102116
0.00101992
0.00101791
0.00101786
0.00105513
0.00105173
0.00105029
0.00104754
0.00104606
0.00104337
0.00104185
0.00103921
0.00103766
0.00103508
0.00103349
0.00103095
0.00102935
0.00102685
0.00102523
0.00102277
0.00102113
0.0010199
0.00101788
0.00101783
0.00105526
0.00105182
0.0010504
0.00104761
0.00104615
0.00104343
0.00104192
0.00103926
0.00103771
0.00103511
0.00103353
0.00103096
0.00102937
0.00102685
0.00102523
0.00102275
0.00102111
0.00101987
0.00101784
0.00101779
0.00105451
0.00105123
0.00104984
0.00104717
0.00104571
0.00104311
0.0010416
0.00103905
0.00103749
0.00103497
0.00103337
0.0010309
0.00102927
0.00102682
0.00102516
0.00102273
0.00102106
0.00101984
0.0010178
0.00101778
0.00101778
0.00101778
0.00101778
0.00101778
0.00101778
0.00101778
0.00101778
0.00101778
0.00101778
0.00101778
0.00101778
0.00101778
0.00101778
0.00101778
0.00101778
0.00101778
0.00101778
0.00101778
0.00101778
)
;

boundaryField
{
    movingWall
    {
        type            calculated;
        value           nonuniform List<scalar> 
20
(
0.00101778
0.00101778
0.00101778
0.00101778
0.00101778
0.00101778
0.00101778
0.00101778
0.00101778
0.00101778
0.00101778
0.00101778
0.00101778
0.00101778
0.00101778
0.00101778
0.00101778
0.00101778
0.00101778
0.00101778
)
;
    }
    fixedWalls
    {
        type            calculated;
        value           nonuniform List<scalar> 
60
(
0.0010201
0.00101937
0.00101872
0.00101836
0.00101819
0.00101811
0.00101807
0.00101805
0.00101804
0.00101802
0.001018
0.00101798
0.00101797
0.00101794
0.00101793
0.0010179
0.00101786
0.00101783
0.00101779
0.00101778
0.0010201
0.00101938
0.00101873
0.00101837
0.0010182
0.00101813
0.00101809
0.00101806
0.00101805
0.00101803
0.00101802
0.001018
0.00101798
0.00101796
0.00101794
0.00101791
0.00101788
0.00101784
0.0010178
0.00101778
0.0010201
0.0010201
0.0010201
0.0010201
0.0010201
0.0010201
0.00102009
0.0010201
0.00102009
0.0010201
0.00102009
0.0010201
0.00102009
0.0010201
0.00102009
0.0010201
0.0010201
0.0010201
0.0010201
0.0010201
)
;
    }
    frontAndBack
    {
        type            empty;
    }
}


// ************************************************************************* //
