/*--------------------------------*- C++ -*----------------------------------*\
| =========                 |                                                 |
| \\      /  F ield         | OpenFOAM: The Open Source CFD Toolbox           |
|  \\    /   O peration     | Version:  2506                                  |
|   \\  /    A nd           | Website:  www.openfoam.com                      |
|    \\/     M anipulation  |                                                 |
\*---------------------------------------------------------------------------*/
FoamFile
{
    version     2.0;
    format      ascii;
    arch        "LSB;label=32;scalar=64";
    class       volScalarField;
    location    "4.5";
    object      turbulenceProperties:omega;
}
// * * * * * * * * * * * * * * * * * * * * * * * * * * * * * * * * * * * * * //

dimensions      [0 0 -1 0 0 0 0];

internalField   nonuniform List<scalar> 
400
(
7.88157
7.88152
7.88155
7.8815
7.88152
7.88147
7.88153
7.88142
7.88153
7.88141
7.88151
7.88142
7.8815
7.88141
7.88149
7.88142
7.88146
7.88144
7.88145
7.88145
8.4002
8.16842
8.18813
8.1963
8.21253
8.22113
8.23716
8.24618
8.26207
8.27146
8.28726
8.29697
8.31273
8.32272
8.33848
8.34871
8.36451
8.37495
8.38294
8.3961
9.02062
8.74925
8.77258
8.78226
8.8014
8.81157
8.83047
8.84103
8.85973
8.87067
8.88922
8.9005
8.91893
8.93051
8.94887
8.96069
8.97903
8.99105
9.00031
9.0155
9.49265
9.18996
9.21585
9.2267
9.24794
9.25933
9.28029
9.29213
9.31291
9.32514
9.34577
9.35837
9.37888
9.39182
9.41226
9.42549
9.44591
9.45936
9.46967
9.48662
9.7892
9.46566
9.49341
9.50485
9.52761
9.53967
9.56215
9.57471
9.59695
9.60996
9.63206
9.64545
9.66745
9.6812
9.70311
9.7172
9.73906
9.75343
9.76446
9.78258
9.96005
9.62428
9.65286
9.66493
9.6884
9.70101
9.72425
9.73731
9.76041
9.77386
9.79686
9.8107
9.83354
9.84781
9.87053
9.88517
9.90784
9.92278
9.93421
9.95302
10.0565
9.71374
9.74296
9.75515
9.77926
9.79196
9.81582
9.82904
9.85266
9.86638
9.88978
9.90399
9.92722
9.94186
9.965
9.97997
10.0031
10.0183
10.03
10.0492
10.1134
9.76658
9.79623
9.80849
9.83289
9.84575
9.86985
9.88325
9.90715
9.92101
9.94476
9.95905
9.98264
9.99738
10.0208
10.036
10.0594
10.0748
10.0866
10.106
10.1511
9.80161
9.83148
9.84386
9.86842
9.88137
9.90571
9.91915
9.94328
9.95721
9.98117
9.99554
10.0193
10.0342
10.0578
10.073
10.0966
10.1122
10.1241
10.1437
10.1804
9.82881
9.8588
9.8713
9.89594
9.9091
9.93337
9.94714
9.97114
9.98541
10.0092
10.0239
10.0477
10.0627
10.0865
10.1018
10.1255
10.1412
10.1531
10.1728
10.2067
9.85332
9.8834
9.89601
9.92075
9.93395
9.95848
9.97212
9.99646
10.0106
10.0347
10.0493
10.0733
10.0884
10.1123
10.1277
10.1515
10.1673
10.1793
10.1991
10.2331
9.87788
9.90801
9.92078
9.94558
9.95893
9.98346
9.99731
10.0217
10.0359
10.0602
10.0749
10.099
10.1141
10.1382
10.1536
10.1776
10.1934
10.2055
10.2254
10.2613
9.90408
9.93454
9.94722
9.97231
9.98556
10.0103
10.0242
10.0487
10.0631
10.0874
10.1023
10.1264
10.1417
10.1658
10.1814
10.2055
10.2214
10.2336
10.2536
10.2926
9.93323
9.96372
9.97659
10.0017
10.0151
10.0401
10.0539
10.0788
10.0931
10.1177
10.1325
10.1569
10.1722
10.1965
10.2122
10.2364
10.2524
10.2647
10.2848
10.328
9.96614
9.99701
10.0098
10.0352
10.0487
10.0738
10.0878
10.1126
10.1272
10.1518
10.1669
10.1913
10.2069
10.2312
10.2471
10.2714
10.2876
10.2999
10.3202
10.3685
10.0038
10.0349
10.0478
10.0735
10.0869
10.1123
10.1264
10.1515
10.166
10.191
10.206
10.2308
10.2463
10.271
10.2869
10.3115
10.3277
10.3402
10.3606
10.4141
10.0462
10.0775
10.0906
10.1163
10.1301
10.1555
10.1698
10.195
10.2099
10.2348
10.2502
10.275
10.2908
10.3156
10.3317
10.3564
10.3729
10.3854
10.406
10.4617
10.0906
10.1222
10.1354
10.1614
10.1752
10.2009
10.2153
10.2407
10.2557
10.2809
10.2963
10.3215
10.3373
10.3623
10.3786
10.4036
10.4201
10.4328
10.4536
10.5037
10.1379
10.1683
10.1812
10.2062
10.2199
10.2447
10.2591
10.2837
10.2988
10.3233
10.3389
10.3633
10.3795
10.404
10.4207
10.4452
10.4623
10.4747
10.4957
10.5212
10.5212
10.5212
10.5212
10.5211
10.5212
10.5211
10.5211
10.5211
10.5211
10.5211
10.5211
10.5211
10.5211
10.5211
10.5211
10.5211
10.5211
10.5211
10.5211
)
;

boundaryField
{
    movingWall
    {
        type            calculated;
        value           nonuniform List<scalar> 
20
(
10.5212
10.5212
10.5212
10.5212
10.5211
10.5212
10.5211
10.5211
10.5211
10.5211
10.5211
10.5211
10.5211
10.5211
10.5211
10.5211
10.5211
10.5211
10.5211
10.5211
)
;
    }
    fixedWalls
    {
        type            calculated;
        value           nonuniform List<scalar> 
60
(
7.88157
8.4002
9.02062
9.49265
9.7892
9.96005
10.0565
10.1134
10.1511
10.1804
10.2067
10.2331
10.2613
10.2926
10.328
10.3685
10.4141
10.4617
10.5037
10.5212
7.88145
8.3961
9.0155
9.48662
9.78258
9.95302
10.0492
10.106
10.1437
10.1728
10.1991
10.2254
10.2536
10.2848
10.3202
10.3606
10.406
10.4536
10.4957
10.5211
7.88157
7.88152
7.88155
7.8815
7.88152
7.88147
7.88153
7.88142
7.88153
7.88141
7.88151
7.88142
7.8815
7.88141
7.88149
7.88142
7.88146
7.88144
7.88145
7.88145
)
;
    }
    frontAndBack
    {
        type            empty;
    }
}


// ************************************************************************* //
