/*--------------------------------*- C++ -*----------------------------------*\
| =========                 |                                                 |
| \\      /  F ield         | OpenFOAM: The Open Source CFD Toolbox           |
|  \\    /   O peration     | Version:  2506                                  |
|   \\  /    A nd           | Website:  www.openfoam.com                      |
|    \\/     M anipulation  |                                                 |
\*---------------------------------------------------------------------------*/
FoamFile
{
    version     2.0;
    format      ascii;
    arch        "LSB;label=32;scalar=64";
    class       volSymmTensorField;
    location    "4.5";
    object      turbulenceProperties:devReff;
}
// * * * * * * * * * * * * * * * * * * * * * * * * * * * * * * * * * * * * * //

dimensions      [0 2 -2 0 0 0 0];

internalField   nonuniform List<symmTensor> 
400
(
(1.17088e-14 -1.26814e-11 -0 -8.3773e-15 -0 -3.3315e-15)
(-2.17786e-14 1.56624e-11 -0 7.60657e-15 -0 1.4172e-14)
(1.93677e-14 -3.71748e-12 -0 -1.17525e-14 -0 -7.61515e-15)
(-7.412e-15 8.81477e-13 -0 3.44278e-15 -0 3.96921e-15)
(4.02737e-15 -2.09469e-13 -0 -2.48607e-15 -0 -1.5413e-15)
(-7.77621e-16 4.94112e-14 -0 2.98844e-16 -0 4.78777e-16)
(5.84869e-16 -1.19306e-14 -0 -4.0712e-16 -0 -1.77749e-16)
(-1.55345e-18 2.67804e-15 -0 -4.62033e-17 -0 4.77568e-17)
(1.13477e-16 -7.42183e-16 -0 -9.52354e-17 -0 -1.82417e-17)
(3.79911e-17 1.00164e-16 -0 -4.2208e-17 -0 4.21695e-18)
(3.83242e-17 -7.68626e-17 -0 -3.61196e-17 -0 -2.20463e-18)
(2.30926e-17 -1.90567e-17 -0 -2.32188e-17 -0 1.26208e-19)
(1.7322e-17 -2.14851e-17 -0 -1.70816e-17 -0 -2.40455e-19)
(1.16287e-17 -1.26062e-17 -0 -1.17743e-17 -0 1.45549e-19)
(8.7383e-18 -8.98133e-18 -0 -8.69535e-18 -0 -4.2951e-20)
(6.61055e-18 -4.63348e-18 -0 -6.46629e-18 -0 -1.44265e-19)
(4.66085e-18 -2.93773e-18 -0 -4.59334e-18 -0 -6.75155e-20)
(2.73457e-18 -9.11259e-19 -0 -2.76721e-18 -0 3.26428e-20)
(9.41549e-19 -4.05379e-19 -0 -1.20762e-18 -0 2.66067e-19)
(1.08461e-18 3.30142e-19 -0 -8.1825e-19 -0 -2.66356e-19)
(-6.90285e-14 1.28955e-11 -0 7.26365e-14 -0 -3.60798e-15)
(5.77846e-14 -1.59652e-11 -0 -3.78464e-14 -0 -1.99381e-14)
(-1.356e-14 3.79277e-12 -0 9.92793e-15 -0 3.63206e-15)
(4.47696e-15 -8.96733e-13 -0 -3.19976e-15 -0 -1.2772e-15)
(-9.28917e-16 2.13475e-13 -0 6.13222e-16 -0 3.15695e-16)
(4.10584e-16 -5.015e-14 -0 -3.67002e-16 -0 -4.35826e-17)
(3.95255e-17 1.2079e-14 -0 -5.70736e-17 -0 1.75481e-17)
(9.79347e-17 -2.74675e-15 -0 -9.63082e-17 -0 -1.62644e-18)
(5.41713e-17 7.12374e-16 -0 -5.34354e-17 -0 -7.35861e-19)
(4.09313e-17 -1.30302e-16 -0 -4.06925e-17 -0 -2.38791e-19)
(2.80071e-17 5.40981e-17 -0 -2.78929e-17 -0 -1.14208e-19)
(2.05657e-17 2.29728e-18 -0 -2.056e-17 -0 -5.67214e-21)
(1.55709e-17 9.43435e-18 -0 -1.53769e-17 -0 -1.94035e-19)
(1.15185e-17 4.95024e-18 -0 -1.13877e-17 -0 -1.30814e-19)
(8.60632e-18 3.72614e-18 -0 -8.30791e-18 -0 -2.9841e-19)
(5.48181e-18 1.65316e-18 -0 -5.48521e-18 -0 3.39667e-21)
(3.53214e-18 2.02363e-18 -0 -3.64164e-18 -0 1.09499e-19)
(2.68709e-18 1.10063e-18 -0 -2.63678e-18 -0 -5.03093e-20)
(2.24503e-18 1.20702e-18 -0 -1.7532e-18 -0 -4.91827e-19)
(-8.6802e-19 6.91246e-19 -0 3.6806e-19 -0 4.9996e-19)
(1.59632e-13 -1.3056e-11 -0 -1.5524e-13 -0 -4.39219e-15)
(-1.42597e-13 1.61943e-11 -0 9.55406e-14 -0 4.70567e-14)
(2.82295e-14 -3.84513e-12 -0 -1.88934e-14 -0 -9.33609e-15)
(-1.13999e-14 9.1256e-13 -0 7.33219e-15 -0 4.0677e-15)
(2.20466e-15 -2.16142e-13 -0 -1.37268e-15 -0 -8.31974e-16)
(-7.29648e-16 5.16513e-14 -0 4.38988e-16 -0 2.9066e-16)
(2.1195e-16 -1.20488e-14 -0 -1.38609e-16 -0 -7.33413e-17)
(-1.8295e-17 2.99198e-15 -0 -5.94772e-18 -0 2.42427e-17)
(4.39854e-17 -6.29233e-16 -0 -3.8484e-17 -0 -5.50139e-18)
(2.09631e-17 2.01324e-16 -0 -2.31127e-17 -0 2.14957e-18)
(2.09751e-17 -1.37893e-17 -0 -2.03598e-17 -0 -6.15252e-19)
(1.42779e-17 2.6084e-17 -0 -1.46306e-17 -0 3.52718e-19)
(1.16232e-17 9.02408e-18 -0 -1.14155e-17 -0 -2.07695e-19)
(8.37898e-18 7.69916e-18 -0 -8.40922e-18 -0 3.02361e-20)
(5.82871e-18 4.80526e-18 -0 -6.09417e-18 -0 2.65458e-19)
(5.33616e-18 3.30016e-18 -0 -5.11071e-18 -0 -2.2545e-19)
(3.44479e-18 2.61876e-18 -0 -3.41515e-18 -0 -2.9637e-20)
(2.55048e-18 2.06259e-18 -0 -2.32224e-18 -0 -2.2824e-19)
(1.3468e-18 1.17595e-18 -0 -1.30457e-18 -0 -4.22371e-20)
(6.12227e-19 6.9908e-19 -0 -5.3019e-19 -0 -8.20366e-20)
(-1.7936e-13 1.31174e-11 -0 1.80517e-13 -0 -1.15671e-15)
(1.55279e-13 -1.63412e-11 -0 -1.03376e-13 -0 -5.19032e-14)
(-3.16651e-14 3.87491e-12 -0 2.26218e-14 -0 9.04323e-15)
(1.16794e-14 -9.18975e-13 -0 -7.3732e-15 -0 -4.3062e-15)
(-2.75967e-15 2.18042e-13 -0 1.9395e-15 -0 8.20178e-16)
(6.52149e-16 -5.15473e-14 -0 -4.01841e-16 -0 -2.50308e-16)
(-2.43959e-16 1.23653e-14 -0 1.67504e-16 -0 7.64551e-17)
(4.51615e-17 -2.82477e-15 -0 -2.96468e-17 -0 -1.55147e-17)
(-9.95276e-18 7.45669e-16 -0 3.68693e-18 -0 6.26583e-18)
(1.20805e-17 -1.23654e-16 -0 -1.14722e-17 -0 -6.08274e-19)
(7.74933e-18 6.6046e-17 -0 -8.45307e-18 -0 7.0374e-19)
(8.75029e-18 9.84149e-18 -0 -8.34425e-18 -0 -4.06038e-19)
(5.86051e-18 1.61622e-17 -0 -6.08928e-18 -0 2.28774e-19)
(4.62434e-18 8.94007e-18 -0 -5.02625e-18 -0 4.0191e-19)
(4.83399e-18 7.37944e-18 -0 -4.74433e-18 -0 -8.96657e-20)
(4.03578e-18 4.95766e-18 -0 -3.85267e-18 -0 -1.83116e-19)
(3.09482e-18 3.83912e-18 -0 -2.67565e-18 -0 -4.19168e-19)
(3.96098e-19 2.5542e-18 -0 -7.92196e-19 -0 3.96098e-19)
(8.41435e-19 1.71981e-18 -0 -9.80481e-19 -0 1.39045e-19)
(6.79382e-19 1.57421e-18 -0 -6.56661e-19 -0 -2.27212e-20)
(1.88796e-13 -1.31495e-11 -0 -1.93198e-13 -0 4.40195e-15)
(-1.59151e-13 1.64107e-11 -0 1.05525e-13 -0 5.36263e-14)
(3.15291e-14 -3.88934e-12 -0 -2.19527e-14 -0 -9.57635e-15)
(-1.21994e-14 9.2239e-13 -0 7.77505e-15 -0 4.42437e-15)
(2.4476e-15 -2.18572e-13 -0 -1.54572e-15 -0 -9.01887e-16)
(-8.19137e-16 5.19146e-14 -0 5.52012e-16 -0 2.67125e-16)
(1.5942e-16 -1.22192e-14 -0 -7.85402e-17 -0 -8.08802e-17)
(-7.81514e-17 2.97273e-15 -0 5.75133e-17 -0 2.06381e-17)
(2.53374e-18 -6.44579e-16 -0 2.74587e-18 -0 -5.27961e-18)
(-7.46423e-18 1.97582e-16 -0 5.69757e-18 -0 1.76666e-18)
(5.63668e-19 -1.36459e-17 -0 -4.1767e-19 -0 -1.45998e-19)
(4.72387e-19 2.7649e-17 -0 -9.44775e-19 -0 4.72387e-19)
(2.14803e-18 1.08095e-17 -0 -2.16896e-18 -0 2.09297e-20)
(2.22573e-18 1.04511e-17 -0 -2.32509e-18 -0 9.93607e-20)
(1.69331e-18 7.19547e-18 -0 -1.9698e-18 -0 2.76498e-19)
(1.92802e-18 5.63022e-18 -0 -1.73157e-18 -0 -1.96457e-19)
(1.35516e-18 3.56177e-18 -0 -1.29475e-18 -0 -6.04076e-20)
(2.94506e-19 3.02651e-18 -0 -5.89013e-19 -0 2.94506e-19)
(1.69566e-19 2.53754e-18 -0 -3.39132e-19 -0 1.69566e-19)
(1.05483e-18 2.30165e-18 -0 -6.95581e-19 -0 -3.59249e-19)
(-1.71467e-13 1.31513e-11 -0 1.82007e-13 -0 -1.05405e-14)
(1.40291e-13 -1.64337e-11 -0 -9.41575e-14 -0 -4.61332e-14)
(-2.76102e-14 3.89325e-12 -0 1.96797e-14 -0 7.93046e-15)
(1.02416e-14 -9.23292e-13 -0 -6.46854e-15 -0 -3.77306e-15)
(-2.30586e-15 2.18819e-13 -0 1.55455e-15 -0 7.51304e-16)
(5.35289e-16 -5.18253e-14 -0 -3.12617e-16 -0 -2.22672e-16)
(-2.27238e-16 1.23365e-14 -0 1.61044e-16 -0 6.61947e-17)
(7.86757e-18 -2.87246e-15 -0 7.81714e-18 -0 -1.56847e-17)
(-3.32547e-17 7.24889e-16 -0 2.79924e-17 -0 5.26232e-18)
(-9.3516e-18 -1.35657e-16 -0 1.01468e-17 -0 -7.95198e-19)
(-6.40255e-18 6.05537e-17 -0 6.39158e-18 -0 1.09699e-20)
(-2.75179e-18 7.92146e-18 -0 2.65411e-18 -0 9.76768e-20)
(-1.77721e-18 1.44152e-17 -0 1.41856e-18 -0 3.58654e-19)
(-2.22427e-19 9.36782e-18 -0 4.44855e-19 -0 -2.22427e-19)
(-1.88138e-19 6.84119e-18 -0 3.76276e-19 -0 -1.88138e-19)
(-5.17988e-19 5.52069e-18 -0 3.24926e-19 -0 1.93062e-19)
(6.20489e-19 4.56394e-18 -0 -5.3032e-19 -0 -9.01689e-20)
(1.10455e-18 3.3019e-18 -0 -7.883e-19 -0 -3.16252e-19)
(-1.00089e-18 2.01346e-18 -0 5.81367e-19 -0 4.19523e-19)
(-2.61016e-22 2.01578e-18 -0 5.22032e-22 -0 -2.61016e-22)
(1.54299e-13 -1.31412e-11 -0 -1.68066e-13 -0 1.37661e-14)
(-1.22523e-13 1.64265e-11 -0 8.32154e-14 -0 3.93079e-14)
(2.38242e-14 -3.89135e-12 -0 -1.71044e-14 -0 -6.71973e-15)
(-8.94015e-15 9.22756e-13 -0 5.7601e-15 -0 3.18005e-15)
(1.79671e-15 -2.18668e-13 -0 -1.15431e-15 -0 -6.42396e-16)
(-5.798e-16 5.18519e-14 -0 3.93384e-16 -0 1.86416e-16)
(9.77668e-17 -1.22588e-14 -0 -4.09554e-17 -0 -5.68114e-17)
(-6.98141e-17 2.93866e-15 -0 5.66423e-17 -0 1.31718e-17)
(-1.51865e-17 -6.64381e-16 -0 1.89338e-17 -0 -3.74724e-18)
(-1.90577e-17 1.86396e-16 -0 1.81036e-17 -0 9.5408e-19)
(-1.17686e-17 -2.00764e-17 -0 1.13944e-17 -0 3.7417e-19)
(-6.58185e-18 2.3021e-17 -0 6.73747e-18 -0 -1.55619e-19)
(-3.9112e-18 9.93341e-18 -0 4.25435e-18 -0 -3.43153e-19)
(-3.50923e-18 9.20037e-18 -0 3.45171e-18 -0 5.75251e-20)
(-2.29344e-18 6.61699e-18 -0 2.44804e-18 -0 -1.54607e-19)
(-2.36829e-18 5.16272e-18 -0 1.88585e-18 -0 4.82444e-19)
(-8.6834e-19 3.28173e-18 -0 1.0244e-18 -0 -1.56058e-19)
(-1.19487e-18 2.63531e-18 -0 9.65689e-19 -0 2.29177e-19)
(-1.10905e-19 2.07866e-18 -0 2.21811e-19 -0 -1.10905e-19)
(-6.77597e-20 1.87895e-18 -0 1.35519e-19 -0 -6.77597e-20)
(-1.28915e-13 1.31274e-11 -0 1.46412e-13 -0 -1.74967e-14)
(9.87333e-14 -1.64103e-11 -0 -6.86985e-14 -0 -3.00348e-14)
(-1.8982e-14 3.88745e-12 -0 1.41098e-14 -0 4.87212e-15)
(6.87246e-15 -9.21883e-13 -0 -4.4802e-15 -0 -2.39226e-15)
(-1.50568e-15 2.1846e-13 -0 1.03653e-15 -0 4.6915e-16)
(3.36484e-16 -5.17739e-14 -0 -2.00402e-16 -0 -1.36082e-16)
(-1.54988e-16 1.22891e-14 -0 1.13616e-16 -0 4.1372e-17)
(-9.50493e-18 -2.89167e-15 -0 1.90099e-17 -0 -9.50493e-18)
(-3.37023e-17 7.06208e-16 -0 3.08913e-17 -0 2.81106e-18)
(-1.79549e-17 -1.48078e-16 -0 1.8733e-17 -0 -7.78135e-19)
(-1.49411e-17 5.10007e-17 -0 1.48616e-17 -0 7.94526e-20)
(-1.07696e-17 1.52081e-18 -0 1.0814e-17 -0 -4.44485e-20)
(-7.37928e-18 1.05754e-17 -0 7.61273e-18 -0 -2.3345e-19)
(-5.51602e-18 5.54779e-18 -0 5.31744e-18 -0 1.98577e-19)
(-3.53655e-18 4.79988e-18 -0 3.50356e-18 -0 3.29958e-20)
(-2.29051e-18 4.11595e-18 -0 2.44007e-18 -0 -1.49566e-19)
(-2.64772e-18 3.53393e-18 -0 2.44247e-18 -0 2.05247e-19)
(-9.97531e-19 2.53321e-18 -0 1.28208e-18 -0 -2.84553e-19)
(-1.15105e-18 1.75392e-18 -0 8.76552e-19 -0 2.745e-19)
(-8.47525e-20 1.75476e-18 -0 1.69505e-19 -0 -8.47525e-20)
(1.10324e-13 -1.31131e-11 -0 -1.28929e-13 -0 1.86047e-14)
(-8.16785e-14 1.63888e-11 -0 5.80295e-14 -0 2.3649e-14)
(1.56103e-14 -3.88278e-12 -0 -1.18411e-14 -0 -3.76916e-15)
(-5.64546e-15 9.20721e-13 -0 3.78931e-15 -0 1.85615e-15)
(1.11432e-15 -2.18214e-13 -0 -7.50257e-16 -0 -3.64059e-16)
(-3.55246e-16 5.17296e-14 -0 2.51844e-16 -0 1.03403e-16)
(4.58211e-17 -1.22537e-14 -0 -1.41737e-17 -0 -3.16474e-17)
(-5.3269e-17 2.9155e-15 -0 4.63056e-17 -0 6.96343e-18)
(-2.20803e-17 -6.78646e-16 -0 2.40957e-17 -0 -2.01538e-18)
(-2.19702e-17 1.72658e-16 -0 2.17335e-17 -0 2.36718e-19)
(-1.63233e-17 -3.0172e-17 -0 1.61805e-17 -0 1.4273e-19)
(-1.27489e-17 1.67448e-17 -0 1.26159e-17 -0 1.32957e-19)
(-9.31369e-18 3.51157e-18 -0 9.32942e-18 -0 -1.57288e-20)
(-6.96101e-18 4.88897e-18 -0 6.77234e-18 -0 1.88673e-19)
(-2.98166e-18 3.93902e-18 -0 3.81968e-18 -0 -8.38015e-19)
(-4.10915e-18 2.77267e-18 -0 3.93258e-18 -0 1.76568e-19)
(-2.63115e-18 1.70733e-18 -0 2.40678e-18 -0 2.24362e-19)
(-9.4856e-19 1.82338e-18 -0 1.18351e-18 -0 -2.34948e-19)
(-1.27288e-18 2.1402e-18 -0 1.11895e-18 -0 1.53933e-19)
(-9.57192e-20 1.09819e-18 -0 1.91438e-19 -0 -9.57192e-20)
(-8.99145e-14 1.31011e-11 -0 1.09919e-13 -0 -2.00047e-14)
(6.37856e-14 -1.63694e-11 -0 -4.69058e-14 -0 -1.68798e-14)
(-1.20268e-14 3.87859e-12 -0 9.56807e-15 -0 2.45868e-15)
(4.18518e-15 -9.19755e-13 -0 -2.89091e-15 -0 -1.29427e-15)
(-8.99485e-16 2.17988e-13 -0 6.60111e-16 -0 2.39374e-16)
(1.7978e-16 -5.16793e-14 -0 -1.12474e-16 -0 -6.73056e-17)
(-9.932e-17 1.22522e-14 -0 7.87645e-17 -0 2.05555e-17)
(-1.95088e-17 -2.89957e-15 -0 2.39489e-17 -0 -4.44008e-18)
(-3.04601e-17 6.92709e-16 -0 2.93671e-17 -0 1.09299e-18)
(-2.04195e-17 -1.59083e-16 -0 2.07671e-17 -0 -3.47585e-19)
(-1.65341e-17 4.33581e-17 -0 1.65905e-17 -0 -5.63913e-20)
(-1.28674e-17 -5.75859e-18 -0 1.28441e-17 -0 2.33597e-20)
(-9.45211e-18 5.49845e-18 -0 9.59973e-18 -0 -1.4762e-19)
(-8.24574e-18 2.85662e-18 -0 7.90591e-18 -0 3.39831e-19)
(-5.69824e-18 3.03781e-18 -0 5.6761e-18 -0 2.21312e-20)
(-3.79757e-18 2.1707e-18 -0 4.02124e-18 -0 -2.23674e-19)
(-2.27844e-18 2.37127e-18 -0 2.41377e-18 -0 -1.3533e-19)
(-1.99444e-18 1.57157e-18 -0 1.84658e-18 -0 1.47862e-19)
(-1.2388e-18 4.77014e-19 -0 1.04982e-18 -0 1.88987e-19)
(-5.19757e-20 1.13122e-18 -0 1.03951e-19 -0 -5.19757e-20)
(7.77828e-14 -1.30907e-11 -0 -9.72438e-14 -0 1.9461e-14)
(-5.35079e-14 1.63516e-11 -0 4.02519e-14 -0 1.32559e-14)
(1.01047e-14 -3.8748e-12 -0 -8.20977e-15 -0 -1.89494e-15)
(-3.51394e-15 9.1884e-13 -0 2.51182e-15 -0 1.00211e-15)
(6.62923e-16 -2.17796e-13 -0 -4.79597e-16 -0 -1.83326e-16)
(-2.20958e-16 5.16315e-14 -0 1.70234e-16 -0 5.07243e-17)
(1.34366e-17 -1.22425e-14 -0 2.57598e-18 -0 -1.60126e-17)
(-4.25325e-17 2.90017e-15 -0 3.91116e-17 -0 3.42087e-18)
(-2.42729e-17 -6.87851e-16 -0 2.4866e-17 -0 -5.93105e-19)
(-2.20611e-17 1.63854e-16 -0 2.18856e-17 -0 1.75516e-19)
(-1.76436e-17 -3.7579e-17 -0 1.73655e-17 -0 2.78136e-19)
(-1.30017e-17 1.00964e-17 -0 1.31044e-17 -0 -1.02694e-19)
(-9.49241e-18 -1.61413e-18 -0 9.67452e-18 -0 -1.82106e-19)
(-7.27195e-18 1.41909e-18 -0 7.38477e-18 -0 -1.1282e-19)
(-4.64686e-18 4.96875e-19 -0 5.00078e-18 -0 -3.5392e-19)
(-4.6337e-18 8.67085e-19 -0 4.26083e-18 -0 3.72867e-19)
(-3.40031e-18 1.15202e-18 -0 3.22657e-18 -0 1.73738e-19)
(-2.05135e-18 6.24431e-19 -0 1.95907e-18 -0 9.22747e-20)
(-1.16054e-18 6.57062e-19 -0 8.92412e-19 -0 2.68128e-19)
(9.31266e-19 9.48123e-19 -0 -4.34532e-19 -0 -4.96734e-19)
(-6.4859e-14 1.30822e-11 -0 8.45385e-14 -0 -1.96794e-14)
(4.28143e-14 -1.63371e-11 -0 -3.34958e-14 -0 -9.31848e-15)
(-7.9927e-15 3.87173e-12 -0 6.86292e-15 -0 1.12978e-15)
(2.64895e-15 -9.18113e-13 -0 -1.96681e-15 -0 -6.82147e-16)
(-5.69743e-16 2.17627e-13 -0 4.59602e-16 -0 1.10141e-16)
(9.14482e-17 -5.1605e-14 -0 -6.13517e-17 -0 -3.00964e-17)
(-6.92991e-17 1.22257e-14 -0 6.09745e-17 -0 8.32464e-18)
(-2.22366e-17 -2.90559e-15 -0 2.43559e-17 -0 -2.11923e-18)
(-2.67713e-17 6.81584e-16 -0 2.62574e-17 -0 5.13814e-19)
(-2.02139e-17 -1.67054e-16 -0 2.03304e-17 -0 -1.16437e-19)
(-1.65601e-17 3.59397e-17 -0 1.66217e-17 -0 -6.16474e-20)
(-1.33897e-17 -1.0453e-17 -0 1.31552e-17 -0 2.34498e-19)
(-9.82011e-18 1.22093e-18 -0 9.60745e-18 -0 2.12659e-19)
(-6.66905e-18 -4.63313e-19 -0 6.89084e-18 -0 -2.21796e-19)
(-5.98065e-18 5.22654e-19 -0 5.51788e-18 -0 4.62776e-19)
(-2.58698e-18 6.65794e-19 -0 3.02695e-18 -0 -4.39973e-19)
(-3.27478e-18 1.36447e-18 -0 2.9733e-18 -0 3.01479e-19)
(-1.01172e-18 7.16637e-19 -0 1.30846e-18 -0 -2.96739e-19)
(-1.29634e-18 1.00458e-18 -0 1.16313e-18 -0 1.33211e-19)
(-1.13942e-19 7.89302e-19 -0 2.27884e-19 -0 -1.13942e-19)
(5.93579e-14 -1.30749e-11 -0 -7.7909e-14 -0 1.8551e-14)
(-3.85884e-14 1.63256e-11 -0 3.05931e-14 -0 7.99536e-15)
(7.26428e-15 -3.86916e-12 -0 -6.27325e-15 -0 -9.91034e-16)
(-2.46126e-15 9.17521e-13 -0 1.878e-15 -0 5.83265e-16)
(4.32281e-16 -2.17494e-13 -0 -3.36841e-16 -0 -9.54401e-17)
(-1.63043e-16 5.15621e-14 -0 1.37526e-16 -0 2.55172e-17)
(-6.83513e-18 -1.22363e-14 -0 1.43895e-17 -0 -7.55436e-18)
(-3.73855e-17 2.88696e-15 -0 3.59467e-17 -0 1.43884e-18)
(-2.2532e-17 -6.97512e-16 -0 2.27899e-17 -0 -2.57932e-19)
(-1.82599e-17 1.53081e-16 -0 1.85634e-17 -0 -3.03571e-19)
(-1.48183e-17 -4.56921e-17 -0 1.45627e-17 -0 2.55684e-19)
(-1.07404e-17 3.95732e-18 -0 1.07177e-17 -0 2.27065e-20)
(-7.93593e-18 -5.59263e-18 -0 7.98366e-18 -0 -4.77342e-20)
(-5.9038e-18 -1.82239e-18 -0 6.07289e-18 -0 -1.69086e-19)
(-4.9221e-18 -1.682e-18 -0 4.82931e-18 -0 9.2792e-20)
(-2.45715e-18 -6.80576e-19 -0 2.76586e-18 -0 -3.08717e-19)
(-2.14064e-18 -4.92394e-19 -0 2.1341e-18 -0 6.53994e-21)
(-2.4772e-18 1.62115e-19 -0 2.09258e-18 -0 3.84617e-19)
(-9.18542e-19 2.61111e-20 -0 1.12184e-18 -0 -2.03297e-19)
(-1.12167e-18 2.63248e-19 -0 8.13531e-19 -0 3.08141e-19)
(-5.14454e-14 1.3069e-11 -0 7.01163e-14 -0 -1.8671e-14)
(3.22531e-14 -1.63163e-11 -0 -2.66053e-14 -0 -5.64779e-15)
(-6.02991e-15 3.8672e-12 -0 5.53123e-15 -0 4.98681e-16)
(1.89513e-15 -9.17025e-13 -0 -1.50115e-15 -0 -3.93983e-16)
(-4.30524e-16 2.17377e-13 -0 3.83357e-16 -0 4.71674e-17)
(4.11623e-17 -5.15624e-14 -0 -2.83061e-17 -0 -1.28561e-17)
(-6.14749e-17 1.22017e-14 -0 5.81702e-17 -0 3.30472e-18)
(-2.5137e-17 -2.91606e-15 -0 2.58104e-17 -0 -6.73401e-19)
(-2.44627e-17 6.71511e-16 -0 2.37584e-17 -0 7.04259e-19)
(-1.53085e-17 -1.74892e-16 -0 1.55224e-17 -0 -2.13837e-19)
(-1.14544e-17 2.8677e-17 -0 1.14154e-17 -0 3.90608e-20)
(-7.50931e-18 -1.57571e-17 -0 7.83783e-18 -0 -3.28512e-19)
(-7.04321e-18 -2.43638e-18 -0 6.91002e-18 -0 1.33185e-19)
(-5.46197e-18 -3.90314e-18 -0 5.18497e-18 -0 2.77003e-19)
(-4.5961e-18 -2.13445e-18 -0 4.1736e-18 -0 4.22492e-19)
(-2.31708e-18 -9.95535e-19 -0 2.48415e-18 -0 -1.6707e-19)
(-1.54936e-18 -7.4871e-19 -0 1.66622e-18 -0 -1.16863e-19)
(-1.90375e-18 -3.99249e-19 -0 1.65957e-18 -0 2.4418e-19)
(-7.05723e-19 -1.02691e-18 -0 6.95681e-19 -0 1.00425e-20)
(4.21262e-19 -1.25221e-19 -0 -1.27099e-19 -0 -2.94163e-19)
(5.00578e-14 -1.3064e-11 -0 -6.75147e-14 -0 1.74569e-14)
(-3.1493e-14 1.63108e-11 -0 2.58992e-14 -0 5.59381e-15)
(5.91598e-15 -3.86578e-12 -0 -5.30709e-15 -0 -6.08886e-16)
(-2.02356e-15 9.16718e-13 -0 1.62468e-15 -0 3.98878e-16)
(3.05191e-16 -2.17323e-13 -0 -2.47658e-16 -0 -5.75333e-17)
(-1.50373e-16 5.15001e-14 -0 1.34947e-16 -0 1.54259e-17)
(-1.44083e-17 -1.22445e-14 -0 1.94515e-17 -0 -5.04321e-18)
(-3.10395e-17 2.87068e-15 -0 3.03933e-17 -0 6.4622e-19)
(-1.78551e-17 -7.08318e-16 -0 1.77184e-17 -0 1.36699e-19)
(-1.2912e-17 1.46411e-16 -0 1.28748e-17 -0 3.72451e-20)
(-8.1303e-18 -5.13442e-17 -0 8.35207e-18 -0 -2.21777e-19)
(-6.82553e-18 -1.30599e-19 -0 6.46423e-18 -0 3.61298e-19)
(-5.41557e-18 -9.02426e-18 -0 5.08517e-18 -0 3.30404e-19)
(-3.47126e-18 -4.05496e-18 -0 3.35267e-18 -0 1.18589e-19)
(-1.79055e-18 -2.812e-18 -0 2.14602e-18 -0 -3.55468e-19)
(-2.1729e-18 -2.3825e-18 -0 2.194e-18 -0 -2.11031e-20)
(-1.48381e-18 -3.937e-19 -0 1.53393e-18 -0 -5.01186e-20)
(-1.72868e-18 -2.80857e-20 -0 1.30766e-18 -0 4.21019e-19)
(-1.64014e-19 1.18079e-19 -0 3.28028e-19 -0 -1.64014e-19)
(-5.94522e-20 1.95125e-19 -0 1.18904e-19 -0 -5.94522e-20)
(-4.29399e-14 1.30617e-11 -0 6.09475e-14 -0 -1.80076e-14)
(2.56194e-14 -1.63068e-11 -0 -2.22673e-14 -0 -3.35207e-15)
(-4.86422e-15 3.86502e-12 -0 4.7918e-15 -0 7.24161e-17)
(1.38079e-15 -9.16528e-13 -0 -1.16669e-15 -0 -2.14103e-16)
(-3.67923e-16 2.17219e-13 -0 3.66989e-16 -0 9.33669e-19)
(3.39457e-18 -5.15706e-14 -0 -3.18126e-18 -0 -2.13315e-19)
(-5.09662e-17 1.21666e-14 -0 5.14555e-17 -0 -4.89356e-19)
(-1.88268e-17 -2.93532e-15 -0 1.74702e-17 -0 1.3566e-18)
(-1.39639e-17 6.57084e-16 -0 1.35203e-17 -0 4.43529e-19)
(-7.08472e-18 -1.84754e-16 -0 6.9684e-18 -0 1.16323e-19)
(-4.30837e-18 2.35646e-17 -0 4.29886e-18 -0 9.51441e-21)
(-2.84842e-18 -1.94924e-17 -0 2.81932e-18 -0 2.91007e-20)
(-2.06687e-18 -5.31195e-18 -0 1.97694e-18 -0 8.99308e-20)
(-1.06912e-18 -5.75487e-18 -0 1.41957e-18 -0 -3.50455e-19)
(-2.37195e-18 -3.00596e-18 -0 1.87101e-18 -0 5.00943e-19)
(-3.10938e-19 -2.17347e-18 -0 6.21877e-19 -0 -3.10938e-19)
(-2.25418e-19 -1.05532e-18 -0 4.50837e-19 -0 -2.25418e-19)
(-6.23287e-19 -9.46094e-19 -0 5.29331e-19 -0 9.39563e-20)
(-1.16156e-18 -1.38303e-18 -0 8.89054e-19 -0 2.72504e-19)
(-1.6054e-19 -4.60837e-19 -0 3.2108e-19 -0 -1.6054e-19)
(4.41415e-14 -1.30579e-11 -0 -6.04455e-14 -0 1.63041e-14)
(-2.71867e-14 1.63075e-11 -0 2.28841e-14 -0 4.30266e-15)
(4.90159e-15 -3.86482e-12 -0 -4.35609e-15 -0 -5.45494e-16)
(-1.82495e-15 9.16393e-13 -0 1.51451e-15 -0 3.10443e-16)
(1.97844e-16 -2.17329e-13 -0 -1.43489e-16 -0 -5.43558e-17)
(-1.33152e-16 5.14119e-14 -0 1.16051e-16 -0 1.71012e-17)
(-5.45648e-18 -1.22796e-14 -0 8.74727e-18 -0 -3.29079e-18)
(-1.32246e-17 2.8424e-15 -0 1.05734e-17 -0 2.65115e-18)
(-4.91585e-19 -7.21985e-16 -0 2.6201e-19 -0 2.29575e-19)
(1.20426e-18 1.37633e-16 -0 -1.68763e-18 -0 4.83371e-19)
(2.6133e-18 -5.60015e-17 -0 -2.34486e-18 -0 -2.6843e-19)
(8.40629e-19 -3.13232e-18 -0 -9.61105e-19 -0 1.20476e-19)
(2.16641e-19 -9.91193e-18 -0 -4.33282e-19 -0 2.16641e-19)
(9.24784e-20 -5.76003e-18 -0 -1.84957e-19 -0 9.24784e-20)
(1.09394e-19 -4.31451e-18 -0 -2.18788e-19 -0 1.09394e-19)
(6.54612e-19 -2.01541e-18 -0 -5.90513e-19 -0 -6.40993e-20)
(1.23712e-19 -1.72054e-18 -0 -2.47424e-19 -0 1.23712e-19)
(6.95804e-20 -1.85281e-18 -0 -1.39161e-19 -0 6.95804e-20)
(5.12628e-19 -9.35039e-19 -0 -3.07468e-19 -0 -2.0516e-19)
(-6.53503e-20 -7.1272e-19 -0 1.30701e-19 -0 -6.53503e-20)
(-3.12629e-14 1.30624e-11 -0 4.87217e-14 -0 -1.74589e-14)
(1.58535e-14 -1.63074e-11 -0 -1.54683e-14 -0 -3.85145e-16)
(-3.59946e-15 3.86525e-12 -0 4.50988e-15 -0 -9.1042e-16)
(7.2146e-16 -9.16984e-13 -0 -9.11527e-16 -0 1.90067e-16)
(-2.87614e-16 2.17109e-13 -0 3.87126e-16 -0 -9.95121e-17)
(1.87349e-17 -5.17058e-14 -0 -7.363e-17 -0 5.48952e-17)
(-3.42824e-19 1.21304e-14 -0 1.15265e-17 -0 -1.11836e-17)
(1.60644e-17 -2.95982e-15 -0 -2.34594e-17 -0 7.39499e-18)
(1.50681e-17 6.51337e-16 -0 -1.35307e-17 -0 -1.53741e-18)
(1.11267e-17 -1.86582e-16 -0 -1.21496e-17 -0 1.02284e-18)
(8.38084e-18 2.30794e-17 -0 -8.10674e-18 -0 -2.741e-19)
(5.70119e-18 -1.91825e-17 -0 -5.63463e-18 -0 -6.65568e-20)
(3.67272e-18 -4.201e-18 -0 -3.74286e-18 -0 7.01401e-20)
(3.42322e-18 -4.52632e-18 -0 -3.24526e-18 -0 -1.77965e-19)
(2.63548e-18 -3.13735e-18 -0 -2.39179e-18 -0 -2.43695e-19)
(1.31993e-18 -1.48037e-18 -0 -1.20083e-18 -0 -1.19096e-19)
(2.18803e-19 -8.98792e-19 -0 -4.37605e-19 -0 2.18803e-19)
(2.3817e-19 -4.54268e-19 -0 -4.7634e-19 -0 2.3817e-19)
(1.19719e-18 -1.05514e-19 -0 -9.57224e-19 -0 -2.39967e-19)
(6.78425e-20 -5.08777e-19 -0 -1.35685e-19 -0 6.78425e-20)
(3.70626e-14 -1.30374e-11 -0 -4.78042e-14 -0 1.07416e-14)
(-2.41508e-14 1.62931e-11 -0 1.92078e-14 -0 4.94294e-15)
(3.426e-15 -3.85916e-12 -0 -2.81172e-15 -0 -6.14281e-16)
(-1.48731e-15 9.12753e-13 -0 8.21131e-16 -0 6.66179e-16)
(3.56259e-16 -2.16505e-13 -0 -2.44017e-16 -0 -1.12242e-16)
(-3.57062e-18 5.09438e-14 -0 -6.52439e-17 -0 6.88145e-17)
(9.86494e-17 -1.21726e-14 -0 -7.86634e-17 -0 -1.9986e-17)
(3.96444e-17 2.80234e-15 -0 -4.67486e-17 -0 7.1042e-18)
(3.65754e-17 -7.02726e-16 -0 -3.34044e-17 -0 -3.17097e-18)
(2.02439e-17 1.39996e-16 -0 -2.09834e-17 -0 7.39539e-19)
(1.46984e-17 -4.87083e-17 -0 -1.42361e-17 -0 -4.62281e-19)
(1.04823e-17 1.75679e-18 -0 -1.01397e-17 -0 -3.42546e-19)
(6.07873e-18 -6.88039e-18 -0 -6.38773e-18 -0 3.08998e-19)
(4.38399e-18 -2.7774e-18 -0 -4.44242e-18 -0 5.84203e-20)
(3.34895e-18 -1.88995e-18 -0 -3.0954e-18 -0 -2.53547e-19)
(1.04254e-18 -1.63376e-18 -0 -1.36488e-18 -0 3.22334e-19)
(9.00693e-19 -1.5408e-18 -0 -1.0816e-18 -0 1.8091e-19)
(1.28966e-18 -4.48361e-19 -0 -1.14034e-18 -0 -1.49319e-19)
(6.77347e-19 -6.81398e-19 -0 -6.35417e-19 -0 -4.19305e-20)
(6.10549e-20 -6.12994e-19 -0 -1.2211e-19 -0 6.10549e-20)
(-5.25507e-15 1.30235e-11 -0 1.92595e-14 -0 -1.40045e-14)
(-1.52567e-14 -1.61377e-11 -0 3.04298e-15 -0 1.22137e-14)
(1.79231e-14 3.82454e-12 -0 -9.9267e-15 -0 -7.99638e-15)
(-7.85078e-15 -9.06495e-13 -0 3.86474e-15 -0 3.98604e-15)
(3.79654e-15 2.15041e-13 -0 -2.25914e-15 -0 -1.5374e-15)
(-9.55423e-16 -5.0792e-14 -0 4.52016e-16 -0 5.03407e-16)
(5.1761e-16 1.21535e-14 -0 -3.41771e-16 -0 -1.75839e-16)
(-5.36363e-17 -2.79808e-15 -0 2.24839e-18 -0 5.13879e-17)
(8.38951e-17 7.16722e-16 -0 -6.63625e-17 -0 -1.75325e-17)
(1.707e-17 -1.33906e-16 -0 -2.11917e-17 -0 4.12176e-18)
(2.25816e-17 5.59269e-17 -0 -2.07054e-17 -0 -1.87614e-18)
(1.16884e-17 2.00716e-18 -0 -1.18673e-17 -0 1.78891e-19)
(9.02176e-18 9.23343e-18 -0 -8.69205e-18 -0 -3.2971e-19)
(4.63687e-18 4.23408e-18 -0 -4.95767e-18 -0 3.20805e-19)
(3.52286e-18 2.94323e-18 -0 -3.449e-18 -0 -7.38594e-20)
(2.70348e-18 1.82546e-18 -0 -2.52958e-18 -0 -1.73899e-19)
(1.49394e-18 1.60609e-18 -0 -1.54918e-18 -0 5.52481e-20)
(1.30894e-18 5.9883e-19 -0 -1.17919e-18 -0 -1.29749e-19)
(6.35184e-19 2.98149e-19 -0 -5.51025e-19 -0 -8.41594e-20)
(5.73835e-19 2.38511e-19 -0 -4.28326e-19 -0 -1.45509e-19)
)
;

boundaryField
{
    movingWall
    {
        type            calculated;
        value           nonuniform List<symmTensor> 
20
(
(3.44096e-11 9.78003e-12 -0 -6.88126e-11 -0 3.4403e-11)
(-8.17478e-12 -1.21269e-11 -0 1.63289e-11 -0 -8.15408e-12)
(1.95086e-12 2.86788e-12 -0 -3.88219e-12 -0 1.93133e-12)
(-4.65508e-13 -6.7641e-13 -0 9.22095e-13 -0 -4.56587e-13)
(1.11966e-13 1.60327e-13 -0 -2.19913e-13 -0 1.07947e-13)
(-2.66046e-14 -3.74028e-14 -0 5.21098e-14 -0 -2.55052e-14)
(6.53912e-15 9.05137e-15 -0 -1.25557e-14 -0 6.01654e-15)
(-1.4985e-15 -1.9731e-15 -0 2.91786e-15 -0 -1.41936e-15)
(4.10466e-16 5.64015e-16 -0 -7.44495e-16 -0 3.3403e-16)
(-6.90133e-17 -6.607e-17 -0 1.47784e-16 -0 -7.87711e-17)
(3.69213e-17 5.97555e-17 -0 -5.54112e-17 -0 1.84899e-17)
(4.34681e-18 1.42303e-17 -0 -1.99994e-20 -0 -4.32681e-18)
(8.06749e-18 1.52061e-17 -0 -9.08766e-18 -0 1.02017e-18)
(3.38678e-18 8.45094e-18 -0 -3.52095e-18 -0 1.34171e-19)
(2.84313e-18 5.99582e-18 -0 -2.97576e-18 -0 1.32629e-19)
(2.07351e-18 3.74618e-18 -0 -1.97861e-18 -0 -9.48965e-20)
(1.0906e-18 2.51964e-18 -0 -1.09699e-18 -0 6.39467e-21)
(9.64318e-19 1.68554e-18 -0 -8.44434e-19 -0 -1.19884e-19)
(4.87009e-19 8.41814e-19 -0 -4.31917e-19 -0 -5.50919e-20)
(4.79279e-19 3.52782e-19 -0 -4.16458e-19 -0 -6.28217e-20)
)
;
    }
    fixedWalls
    {
        type            calculated;
        value           nonuniform List<symmTensor> 
60
(
(1.05266e-13 -5.33257e-11 -0 -5.46575e-14 -0 -5.0608e-14)
(-1.96867e-13 5.33644e-11 -0 1.28645e-13 -0 6.82224e-14)
(4.65555e-13 -5.3244e-11 -0 -2.91663e-13 -0 -1.73891e-13)
(-5.04828e-13 5.30762e-11 -0 3.2254e-13 -0 1.82288e-13)
(5.1819e-13 -5.2901e-11 -0 -3.34835e-13 -0 -1.83355e-13)
(-4.55364e-13 5.27438e-11 -0 3.01189e-13 -0 1.54175e-13)
(3.98411e-13 -5.25927e-11 -0 -2.68464e-13 -0 -1.29947e-13)
(-3.20132e-13 5.24651e-11 -0 2.22414e-13 -0 9.77176e-14)
(2.65293e-13 -5.23476e-11 -0 -1.88716e-13 -0 -7.65762e-14)
(-2.06284e-13 5.22484e-11 -0 1.52486e-13 -0 5.37981e-14)
(1.73335e-13 -5.21583e-11 -0 -1.30964e-13 -0 -4.23714e-14)
(-1.37713e-13 5.20787e-11 -0 1.08389e-13 -0 2.93241e-14)
(1.24393e-13 -5.2006e-11 -0 -9.8762e-14 -0 -2.5631e-14)
(-1.02902e-13 5.19368e-11 -0 8.50836e-14 -0 1.78184e-14)
(1.00947e-13 -5.18736e-11 -0 -8.26339e-14 -0 -1.83127e-14)
(-8.09463e-14 5.18098e-11 -0 7.03286e-14 -0 1.06178e-14)
(8.67957e-14 -5.17526e-11 -0 -7.23887e-14 -0 -1.44069e-14)
(-5.0082e-14 5.16951e-11 -0 5.00121e-14 -0 6.98786e-17)
(7.69906e-14 -5.16363e-11 -0 -6.05644e-14 -0 -1.64262e-14)
(7.37141e-14 5.15807e-11 -0 -2.43231e-14 -0 -4.9391e-14)
(7.39758e-19 3.80859e-19 -0 -5.91338e-19 -0 -1.4842e-19)
(-1.14939e-18 5.04975e-19 -0 5.22427e-19 -0 6.26965e-19)
(7.08763e-19 3.18884e-19 -0 -5.29347e-19 -0 -1.79416e-19)
(7.55276e-19 1.20484e-18 -0 -6.22374e-19 -0 -1.32902e-19)
(6.78076e-19 1.83993e-18 -0 -4.67974e-19 -0 -2.10102e-19)
(-1.99323e-22 1.72058e-18 -0 3.98646e-22 -0 -1.99323e-22)
(-5.16272e-20 1.56768e-18 -0 1.03254e-19 -0 -5.16272e-20)
(-6.44882e-20 1.41082e-18 -0 1.28976e-19 -0 -6.44882e-20)
(5.1935e-19 9.09702e-19 -0 -1.50522e-19 -0 -3.68828e-19)
(5.52632e-19 9.74208e-19 -0 -2.17087e-19 -0 -3.35546e-19)
(5.76377e-19 9.43833e-19 -0 -2.64575e-19 -0 -3.11801e-19)
(5.05662e-19 8.79756e-19 -0 -1.23146e-19 -0 -3.82516e-19)
(-1.27743e-19 4.25092e-19 -0 2.55486e-19 -0 -1.27743e-19)
(5.49922e-19 1.13298e-19 -0 -2.11666e-19 -0 -3.38256e-19)
(-4.50119e-20 4.42963e-19 -0 9.00237e-20 -0 -4.50119e-20)
(4.70686e-19 -1.56773e-19 -0 -5.31943e-20 -0 -4.17492e-19)
(-4.93791e-20 -5.56683e-19 -0 9.87581e-20 -0 -4.93791e-20)
(5.12059e-20 -4.53047e-19 -0 -1.02412e-19 -0 5.12059e-20)
(4.60382e-20 -5.20498e-19 -0 -9.20764e-20 -0 4.60382e-20)
(6.63163e-19 9.42325e-20 -0 -4.38148e-19 -0 -2.25015e-19)
(3.55494e-11 -1.00857e-11 -0 -7.10868e-11 -0 3.55373e-11)
(-8.45753e-12 1.25221e-11 -0 1.68862e-11 -0 -8.42868e-12)
(2.02008e-12 -2.96573e-12 -0 -4.0185e-12 -0 1.99842e-12)
(-4.81815e-13 6.99116e-13 -0 9.54495e-13 -0 -4.72681e-13)
(1.16347e-13 -1.6638e-13 -0 -2.28226e-13 -0 1.11878e-13)
(-2.74705e-14 3.85443e-14 -0 5.39327e-14 -0 -2.64622e-14)
(6.85707e-15 -9.53874e-15 -0 -1.31021e-14 -0 6.24503e-15)
(-1.51595e-15 1.94815e-15 -0 2.99233e-15 -0 -1.47638e-15)
(4.52858e-16 -6.58402e-16 -0 -8.00006e-16 -0 3.47148e-16)
(-5.44505e-17 1.58051e-17 -0 1.36006e-16 -0 -8.15555e-17)
(5.16515e-17 -9.93024e-17 -0 -7.07769e-17 -0 1.91254e-17)
(1.39113e-17 -4.28576e-17 -0 -9.39108e-18 -0 -4.52018e-18)
(1.5095e-17 -3.59646e-17 -0 -1.60954e-17 -0 1.00037e-18)
(8.93413e-18 -2.22696e-17 -0 -8.65254e-18 -0 -2.81588e-19)
(7.01773e-18 -1.60498e-17 -0 -6.98815e-18 -0 -2.95804e-20)
(5.38692e-18 -8.97867e-18 -0 -5.35283e-18 -0 -3.40908e-20)
(3.92345e-18 -5.4203e-18 -0 -4.0522e-18 -0 1.28744e-19)
(2.27756e-18 -1.86757e-18 -0 -2.38671e-18 -0 1.09152e-19)
(8.14033e-19 -1.1155e-18 -0 -1.08597e-18 -0 2.71932e-19)
(9.76707e-19 -1.79137e-19 -0 -8.69213e-19 -0 -1.07495e-19)
)
;
    }
    frontAndBack
    {
        type            empty;
    }
}


// ************************************************************************* //
