/*--------------------------------*- C++ -*----------------------------------*\
| =========                 |                                                 |
| \\      /  F ield         | OpenFOAM: The Open Source CFD Toolbox           |
|  \\    /   O peration     | Version:  2506                                  |
|   \\  /    A nd           | Website:  www.openfoam.com                      |
|    \\/     M anipulation  |                                                 |
\*---------------------------------------------------------------------------*/
FoamFile
{
    version     2.0;
    format      ascii;
    arch        "LSB;label=32;scalar=64";
    class       volScalarField;
    location    "4.5";
    object      turbulenceProperties:nuTilda;
}
// * * * * * * * * * * * * * * * * * * * * * * * * * * * * * * * * * * * * * //

dimensions      [0 2 -1 0 0 0 0];

internalField   nonuniform List<scalar> 
400
(
2.46046e-06
2.46047e-06
2.46045e-06
2.46046e-06
2.46044e-06
2.46045e-06
2.46043e-06
2.46045e-06
2.46043e-06
2.46045e-06
2.46043e-06
2.46044e-06
2.46042e-06
2.46044e-06
2.46042e-06
2.46044e-06
2.46043e-06
2.46043e-06
2.46043e-06
2.46043e-06
2.61864e-06
2.69294e-06
2.68601e-06
2.68316e-06
2.67754e-06
2.67459e-06
2.66913e-06
2.66606e-06
2.66072e-06
2.65757e-06
2.65234e-06
2.64913e-06
2.64398e-06
2.64073e-06
2.63564e-06
2.63236e-06
2.62733e-06
2.62403e-06
2.62151e-06
2.61739e-06
2.80846e-06
2.89555e-06
2.88729e-06
2.88389e-06
2.87723e-06
2.87371e-06
2.86723e-06
2.86363e-06
2.85732e-06
2.85364e-06
2.84747e-06
2.84374e-06
2.83769e-06
2.83393e-06
2.82799e-06
2.82421e-06
2.81836e-06
2.81457e-06
2.81165e-06
2.8069e-06
2.95333e-06
3.05057e-06
3.04138e-06
3.03751e-06
3.03011e-06
3.02612e-06
3.01893e-06
3.01486e-06
3.00783e-06
3.0037e-06
2.99682e-06
2.99264e-06
2.9859e-06
2.98169e-06
2.97506e-06
2.97082e-06
2.96431e-06
2.96006e-06
2.95681e-06
2.95152e-06
3.0446e-06
3.14864e-06
3.1387e-06
3.13465e-06
3.12666e-06
3.12246e-06
3.11469e-06
3.11039e-06
3.10282e-06
3.09844e-06
3.09102e-06
3.08661e-06
3.07933e-06
3.07488e-06
3.06775e-06
3.06325e-06
3.05626e-06
3.05173e-06
3.04825e-06
3.04259e-06
3.09723e-06
3.20527e-06
3.19505e-06
3.19071e-06
3.18249e-06
3.17806e-06
3.17003e-06
3.16554e-06
3.15766e-06
3.15314e-06
3.14539e-06
3.14084e-06
3.13327e-06
3.12865e-06
3.12125e-06
3.11657e-06
3.10932e-06
3.10462e-06
3.101e-06
3.09513e-06
3.12698e-06
3.23728e-06
3.2268e-06
3.22245e-06
3.21394e-06
3.20952e-06
3.20122e-06
3.19671e-06
3.18863e-06
3.18402e-06
3.17615e-06
3.17145e-06
3.16377e-06
3.15901e-06
3.15148e-06
3.14669e-06
3.13929e-06
3.13448e-06
3.1308e-06
3.1248e-06
3.14456e-06
3.25621e-06
3.24554e-06
3.24118e-06
3.23256e-06
3.22808e-06
3.2197e-06
3.21511e-06
3.20693e-06
3.20228e-06
3.19427e-06
3.18957e-06
3.18174e-06
3.17696e-06
3.16931e-06
3.16448e-06
3.157e-06
3.15213e-06
3.1484e-06
3.14233e-06
3.15618e-06
3.26871e-06
3.25796e-06
3.25354e-06
3.24487e-06
3.24036e-06
3.23188e-06
3.2273e-06
3.21901e-06
3.21436e-06
3.20625e-06
3.20154e-06
3.19363e-06
3.18884e-06
3.18112e-06
3.17626e-06
3.1687e-06
3.1638e-06
3.16004e-06
3.15393e-06
3.16517e-06
3.27836e-06
3.26758e-06
3.2631e-06
3.25442e-06
3.24979e-06
3.2414e-06
3.23662e-06
3.22846e-06
3.22361e-06
3.21563e-06
3.21074e-06
3.20289e-06
3.19799e-06
3.19027e-06
3.18535e-06
3.17778e-06
3.17283e-06
3.16905e-06
3.1629e-06
3.17325e-06
3.28703e-06
3.27623e-06
3.27169e-06
3.26298e-06
3.25835e-06
3.24982e-06
3.24515e-06
3.23681e-06
3.23206e-06
3.22392e-06
3.2191e-06
3.21114e-06
3.20627e-06
3.19847e-06
3.19355e-06
3.18592e-06
3.18095e-06
3.17715e-06
3.17097e-06
3.18134e-06
3.29572e-06
3.28492e-06
3.28031e-06
3.27159e-06
3.26688e-06
3.25839e-06
3.2536e-06
3.24528e-06
3.24047e-06
3.23227e-06
3.22745e-06
3.21943e-06
3.21453e-06
3.2067e-06
3.20175e-06
3.19408e-06
3.18909e-06
3.18526e-06
3.17905e-06
3.19002e-06
3.30504e-06
3.29408e-06
3.28954e-06
3.28067e-06
3.27604e-06
3.26742e-06
3.26266e-06
3.2543e-06
3.24941e-06
3.24127e-06
3.23632e-06
3.22832e-06
3.22335e-06
3.2155e-06
3.2105e-06
3.2028e-06
3.19778e-06
3.19394e-06
3.18769e-06
3.19958e-06
3.31532e-06
3.30439e-06
3.29974e-06
3.29089e-06
3.28618e-06
3.27749e-06
3.27275e-06
3.26422e-06
3.25944e-06
3.25112e-06
3.24624e-06
3.23811e-06
3.23318e-06
3.22523e-06
3.22024e-06
3.21246e-06
3.20742e-06
3.20355e-06
3.19727e-06
3.2105e-06
3.32705e-06
3.31591e-06
3.31132e-06
3.30237e-06
3.29762e-06
3.28891e-06
3.28406e-06
3.2756e-06
3.27064e-06
3.26241e-06
3.25735e-06
3.24932e-06
3.24421e-06
3.23633e-06
3.23121e-06
3.22344e-06
3.21833e-06
3.21445e-06
3.20812e-06
3.22291e-06
3.34039e-06
3.32915e-06
3.32455e-06
3.31545e-06
3.31076e-06
3.3019e-06
3.2971e-06
3.28848e-06
3.28359e-06
3.27516e-06
3.27021e-06
3.26196e-06
3.25695e-06
3.24889e-06
3.24382e-06
3.23593e-06
3.23081e-06
3.22688e-06
3.22051e-06
3.23684e-06
3.35533e-06
3.34408e-06
3.33932e-06
3.33029e-06
3.32541e-06
3.31661e-06
3.31163e-06
3.30306e-06
3.29798e-06
3.28961e-06
3.28449e-06
3.27628e-06
3.27113e-06
3.26308e-06
3.25789e-06
3.25e-06
3.24479e-06
3.24085e-06
3.23441e-06
3.25142e-06
3.37097e-06
3.35955e-06
3.35485e-06
3.34563e-06
3.3408e-06
3.33185e-06
3.32688e-06
3.31818e-06
3.31312e-06
3.30462e-06
3.29951e-06
3.29116e-06
3.28603e-06
3.27785e-06
3.27266e-06
3.26466e-06
3.25943e-06
3.25545e-06
3.24896e-06
3.2642e-06
3.38198e-06
3.37103e-06
3.36637e-06
3.35754e-06
3.3527e-06
3.34412e-06
3.33912e-06
3.33074e-06
3.3256e-06
3.31739e-06
3.31216e-06
3.3041e-06
3.29879e-06
3.29086e-06
3.2855e-06
3.27766e-06
3.27227e-06
3.26833e-06
3.2618e-06
3.26959e-06
3.26958e-06
3.26958e-06
3.26957e-06
3.26958e-06
3.26956e-06
3.26957e-06
3.26956e-06
3.26956e-06
3.26955e-06
3.26956e-06
3.26955e-06
3.26956e-06
3.26955e-06
3.26955e-06
3.26955e-06
3.26955e-06
3.26955e-06
3.26955e-06
3.26955e-06
)
;

boundaryField
{
    movingWall
    {
        type            calculated;
        value           nonuniform List<scalar> 
20
(
3.26959e-06
3.26958e-06
3.26958e-06
3.26957e-06
3.26958e-06
3.26956e-06
3.26957e-06
3.26956e-06
3.26956e-06
3.26955e-06
3.26956e-06
3.26955e-06
3.26956e-06
3.26955e-06
3.26955e-06
3.26955e-06
3.26955e-06
3.26955e-06
3.26955e-06
3.26955e-06
)
;
    }
    fixedWalls
    {
        type            calculated;
        value           nonuniform List<scalar> 
60
(
2.46046e-06
2.61864e-06
2.80846e-06
2.95333e-06
3.0446e-06
3.09723e-06
3.12698e-06
3.14456e-06
3.15618e-06
3.16517e-06
3.17325e-06
3.18134e-06
3.19002e-06
3.19958e-06
3.2105e-06
3.22291e-06
3.23684e-06
3.25142e-06
3.2642e-06
3.26959e-06
2.46043e-06
2.61739e-06
2.8069e-06
2.95152e-06
3.04259e-06
3.09513e-06
3.1248e-06
3.14233e-06
3.15393e-06
3.1629e-06
3.17097e-06
3.17905e-06
3.18769e-06
3.19727e-06
3.20812e-06
3.22051e-06
3.23441e-06
3.24896e-06
3.2618e-06
3.26955e-06
2.46046e-06
2.46047e-06
2.46045e-06
2.46046e-06
2.46044e-06
2.46045e-06
2.46043e-06
2.46045e-06
2.46043e-06
2.46045e-06
2.46043e-06
2.46044e-06
2.46042e-06
2.46044e-06
2.46042e-06
2.46044e-06
2.46043e-06
2.46043e-06
2.46043e-06
2.46043e-06
)
;
    }
    frontAndBack
    {
        type            empty;
    }
}


// ************************************************************************* //
