/*--------------------------------*- C++ -*----------------------------------*\
| =========                 |                                                 |
| \\      /  F ield         | OpenFOAM: The Open Source CFD Toolbox           |
|  \\    /   O peration     | Version:  2506                                  |
|   \\  /    A nd           | Website:  www.openfoam.com                      |
|    \\/     M anipulation  |                                                 |
\*---------------------------------------------------------------------------*/
FoamFile
{
    version     2.0;
    format      ascii;
    arch        "LSB;label=32;scalar=64";
    class       volSymmTensorField;
    location    "4.5";
    object      turbulenceProperties:R;
}
// * * * * * * * * * * * * * * * * * * * * * * * * * * * * * * * * * * * * * //

dimensions      [0 2 -2 0 0 0 0];

internalField   nonuniform List<symmTensor> 
400
(
(1.29282e-05 -2.50409e-12 -0 1.29282e-05 -0 1.29282e-05)
(1.29281e-05 3.09272e-12 -0 1.29281e-05 -0 1.29281e-05)
(1.29281e-05 -7.34057e-13 -0 1.29281e-05 -0 1.29281e-05)
(1.29281e-05 1.74057e-13 -0 1.29281e-05 -0 1.29281e-05)
(1.2928e-05 -4.13618e-14 -0 1.2928e-05 -0 1.2928e-05)
(1.2928e-05 9.75678e-15 -0 1.2928e-05 -0 1.2928e-05)
(1.2928e-05 -2.35581e-15 -0 1.2928e-05 -0 1.2928e-05)
(1.29279e-05 5.28808e-16 -0 1.29279e-05 -0 1.29279e-05)
(1.29279e-05 -1.46551e-16 -0 1.29279e-05 -0 1.29279e-05)
(1.29279e-05 1.97785e-17 -0 1.29279e-05 -0 1.29279e-05)
(1.29279e-05 -1.51772e-17 -0 1.29279e-05 -0 1.29279e-05)
(1.29279e-05 -3.76293e-18 -0 1.29279e-05 -0 1.29279e-05)
(1.29279e-05 -4.24242e-18 -0 1.29279e-05 -0 1.29279e-05)
(1.29278e-05 -2.48922e-18 -0 1.29278e-05 -0 1.29278e-05)
(1.29279e-05 -1.77345e-18 -0 1.29279e-05 -0 1.29279e-05)
(1.29278e-05 -9.14927e-19 -0 1.29278e-05 -0 1.29278e-05)
(1.29278e-05 -5.80081e-19 -0 1.29278e-05 -0 1.29278e-05)
(1.29278e-05 -1.79937e-19 -0 1.29278e-05 -0 1.29278e-05)
(1.29278e-05 -8.0046e-20 -0 1.29278e-05 -0 1.29278e-05)
(1.29278e-05 6.51896e-20 -0 1.29278e-05 -0 1.29278e-05)
(1.46647e-05 2.6761e-12 -0 1.46647e-05 -0 1.46647e-05)
(1.46647e-05 -3.38718e-12 -0 1.46647e-05 -0 1.46647e-05)
(1.46623e-05 8.03043e-13 -0 1.46623e-05 -0 1.46623e-05)
(1.46613e-05 -1.89707e-13 -0 1.46613e-05 -0 1.46613e-05)
(1.46596e-05 4.50866e-14 -0 1.46596e-05 -0 1.46596e-05)
(1.46587e-05 -1.05826e-14 -0 1.46587e-05 -0 1.46587e-05)
(1.46574e-05 2.5448e-15 -0 1.46574e-05 -0 1.46574e-05)
(1.46565e-05 -5.78158e-16 -0 1.46565e-05 -0 1.46565e-05)
(1.46554e-05 1.4971e-16 -0 1.46554e-05 -0 1.46554e-05)
(1.46547e-05 -2.73581e-17 -0 1.46547e-05 -0 1.46547e-05)
(1.46538e-05 1.13407e-17 -0 1.46538e-05 -0 1.46538e-05)
(1.46532e-05 4.81124e-19 -0 1.46532e-05 -0 1.46532e-05)
(1.46525e-05 1.97281e-18 -0 1.46525e-05 -0 1.46525e-05)
(1.4652e-05 1.03414e-18 -0 1.4652e-05 -0 1.4652e-05)
(1.46515e-05 7.77226e-19 -0 1.46515e-05 -0 1.46515e-05)
(1.46512e-05 3.44489e-19 -0 1.46512e-05 -0 1.46512e-05)
(1.46509e-05 4.21051e-19 -0 1.46509e-05 -0 1.46509e-05)
(1.46508e-05 2.28777e-19 -0 1.46508e-05 -0 1.46508e-05)
(1.46506e-05 2.50701e-19 -0 1.46506e-05 -0 1.46506e-05)
(1.46506e-05 1.43394e-19 -0 1.46506e-05 -0 1.46506e-05)
(1.68893e-05 -2.86273e-12 -0 1.68893e-05 -0 1.68893e-05)
(1.68893e-05 3.63625e-12 -0 1.68893e-05 -0 1.68893e-05)
(1.6886e-05 -8.6147e-13 -0 1.6886e-05 -0 1.6886e-05)
(1.68847e-05 2.04264e-13 -0 1.68847e-05 -0 1.68847e-05)
(1.68824e-05 -4.82938e-14 -0 1.68824e-05 -0 1.68824e-05)
(1.68812e-05 1.15298e-14 -0 1.68812e-05 -0 1.68812e-05)
(1.68793e-05 -2.68487e-15 -0 1.68793e-05 -0 1.68793e-05)
(1.68783e-05 6.66058e-16 -0 1.68783e-05 -0 1.68783e-05)
(1.68767e-05 -1.39836e-16 -0 1.68767e-05 -0 1.68767e-05)
(1.68758e-05 4.4696e-17 -0 1.68758e-05 -0 1.68758e-05)
(1.68745e-05 -3.05621e-18 -0 1.68745e-05 -0 1.68745e-05)
(1.68738e-05 5.77526e-18 -0 1.68738e-05 -0 1.68738e-05)
(1.68728e-05 1.99472e-18 -0 1.68728e-05 -0 1.68728e-05)
(1.68723e-05 1.70009e-18 -0 1.68723e-05 -0 1.68723e-05)
(1.68716e-05 1.05934e-18 -0 1.68716e-05 -0 1.68716e-05)
(1.68712e-05 7.26778e-19 -0 1.68712e-05 -0 1.68712e-05)
(1.68708e-05 5.75785e-19 -0 1.68708e-05 -0 1.68708e-05)
(1.68706e-05 4.53023e-19 -0 1.68706e-05 -0 1.68706e-05)
(1.68705e-05 2.58073e-19 -0 1.68705e-05 -0 1.68705e-05)
(1.68704e-05 1.53218e-19 -0 1.68704e-05 -0 1.68704e-05)
(1.86899e-05 2.99074e-12 -0 1.86899e-05 -0 1.86899e-05)
(1.86898e-05 -3.81977e-12 -0 1.86898e-05 -0 1.86898e-05)
(1.86859e-05 9.03667e-13 -0 1.86859e-05 -0 1.86859e-05)
(1.86841e-05 -2.14105e-13 -0 1.86841e-05 -0 1.86841e-05)
(1.86815e-05 5.07051e-14 -0 1.86815e-05 -0 1.86815e-05)
(1.86799e-05 -1.19751e-14 -0 1.86799e-05 -0 1.86799e-05)
(1.86777e-05 2.86736e-15 -0 1.86777e-05 -0 1.86777e-05)
(1.86763e-05 -6.54351e-16 -0 1.86763e-05 -0 1.86763e-05)
(1.86744e-05 1.72422e-16 -0 1.86744e-05 -0 1.86744e-05)
(1.86733e-05 -2.85626e-17 -0 1.86733e-05 -0 1.86733e-05)
(1.86717e-05 1.5229e-17 -0 1.86717e-05 -0 1.86717e-05)
(1.86709e-05 2.26683e-18 -0 1.86709e-05 -0 1.86709e-05)
(1.86696e-05 3.71624e-18 -0 1.86696e-05 -0 1.86696e-05)
(1.8669e-05 2.05339e-18 -0 1.8669e-05 -0 1.8669e-05)
(1.8668e-05 1.69204e-18 -0 1.8668e-05 -0 1.8668e-05)
(1.86676e-05 1.1355e-18 -0 1.86676e-05 -0 1.86676e-05)
(1.86671e-05 8.77822e-19 -0 1.86671e-05 -0 1.86671e-05)
(1.86669e-05 5.83377e-19 -0 1.86669e-05 -0 1.86669e-05)
(1.86667e-05 3.92471e-19 -0 1.86667e-05 -0 1.86667e-05)
(1.86666e-05 3.58747e-19 -0 1.86666e-05 -0 1.86666e-05)
(1.98694e-05 -3.06907e-12 -0 1.98694e-05 -0 1.98694e-05)
(1.98693e-05 3.92979e-12 -0 1.98693e-05 -0 1.98693e-05)
(1.98647e-05 -9.29124e-13 -0 1.98647e-05 -0 1.98647e-05)
(1.98629e-05 2.20133e-13 -0 1.98629e-05 -0 1.98629e-05)
(1.98597e-05 -5.2062e-14 -0 1.98597e-05 -0 1.98597e-05)
(1.98581e-05 1.2353e-14 -0 1.98581e-05 -0 1.98581e-05)
(1.98554e-05 -2.90202e-15 -0 1.98554e-05 -0 1.98554e-05)
(1.9854e-05 7.05269e-16 -0 1.9854e-05 -0 1.9854e-05)
(1.98517e-05 -1.5264e-16 -0 1.98517e-05 -0 1.98517e-05)
(1.98506e-05 4.67381e-17 -0 1.98506e-05 -0 1.98506e-05)
(1.98486e-05 -3.22204e-18 -0 1.98486e-05 -0 1.98486e-05)
(1.98478e-05 6.5213e-18 -0 1.98478e-05 -0 1.98478e-05)
(1.98462e-05 2.54494e-18 -0 1.98462e-05 -0 1.98462e-05)
(1.98457e-05 2.45784e-18 -0 1.98457e-05 -0 1.98457e-05)
(1.98445e-05 1.68919e-18 -0 1.98445e-05 -0 1.98445e-05)
(1.98441e-05 1.32025e-18 -0 1.98441e-05 -0 1.98441e-05)
(1.98434e-05 8.33754e-19 -0 1.98434e-05 -0 1.98434e-05)
(1.98432e-05 7.07654e-19 -0 1.98432e-05 -0 1.98432e-05)
(1.9843e-05 5.92802e-19 -0 1.9843e-05 -0 1.9843e-05)
(1.98429e-05 5.36932e-19 -0 1.98429e-05 -0 1.98429e-05)
(2.05657e-05 3.11001e-12 -0 2.05657e-05 -0 2.05657e-05)
(2.05656e-05 -3.9889e-12 -0 2.05656e-05 -0 2.05656e-05)
(2.05609e-05 9.42711e-13 -0 2.05609e-05 -0 2.05609e-05)
(2.05587e-05 -2.23336e-13 -0 2.05587e-05 -0 2.05587e-05)
(2.05555e-05 5.28268e-14 -0 2.05555e-05 -0 2.05555e-05)
(2.05536e-05 -1.24983e-14 -0 2.05536e-05 -0 2.05536e-05)
(2.05508e-05 2.96941e-15 -0 2.05508e-05 -0 2.05508e-05)
(2.05492e-05 -6.90658e-16 -0 2.05492e-05 -0 2.05492e-05)
(2.05467e-05 1.73963e-16 -0 2.05467e-05 -0 2.05467e-05)
(2.05456e-05 -3.25204e-17 -0 2.05456e-05 -0 2.05456e-05)
(2.05433e-05 1.44891e-17 -0 2.05433e-05 -0 2.05433e-05)
(2.05426e-05 1.89334e-18 -0 2.05426e-05 -0 2.05426e-05)
(2.05408e-05 3.43911e-18 -0 2.05408e-05 -0 2.05408e-05)
(2.05402e-05 2.23242e-18 -0 2.05402e-05 -0 2.05402e-05)
(2.05389e-05 1.62737e-18 -0 2.05389e-05 -0 2.05389e-05)
(2.05386e-05 1.31175e-18 -0 2.05386e-05 -0 2.05386e-05)
(2.05378e-05 1.08249e-18 -0 2.05378e-05 -0 2.05378e-05)
(2.05376e-05 7.82253e-19 -0 2.05376e-05 -0 2.05376e-05)
(2.05373e-05 4.76585e-19 -0 2.05373e-05 -0 2.05373e-05)
(2.05373e-05 4.76443e-19 -0 2.05373e-05 -0 2.05373e-05)
(2.09643e-05 -3.13036e-12 -0 2.09643e-05 -0 2.09643e-05)
(2.09641e-05 4.01723e-12 -0 2.09641e-05 -0 2.09641e-05)
(2.09591e-05 -9.49332e-13 -0 2.09591e-05 -0 2.09591e-05)
(2.0957e-05 2.24885e-13 -0 2.0957e-05 -0 2.0957e-05)
(2.09533e-05 -5.31853e-14 -0 2.09533e-05 -0 2.09533e-05)
(2.09517e-05 1.25985e-14 -0 2.09517e-05 -0 2.09517e-05)
(2.09484e-05 -2.97268e-15 -0 2.09484e-05 -0 2.09484e-05)
(2.09471e-05 7.11847e-16 -0 2.09471e-05 -0 2.09471e-05)
(2.09443e-05 -1.60628e-16 -0 2.09443e-05 -0 2.09443e-05)
(2.09432e-05 4.50159e-17 -0 2.09432e-05 -0 2.09432e-05)
(2.09409e-05 -4.83947e-18 -0 2.09409e-05 -0 2.09409e-05)
(2.094e-05 5.54306e-18 -0 2.094e-05 -0 2.094e-05)
(2.09383e-05 2.38739e-18 -0 2.09383e-05 -0 2.09383e-05)
(2.09376e-05 2.20868e-18 -0 2.09376e-05 -0 2.09376e-05)
(2.09363e-05 1.58562e-18 -0 2.09363e-05 -0 2.09363e-05)
(2.09359e-05 1.23571e-18 -0 2.09359e-05 -0 2.09359e-05)
(2.09351e-05 7.84084e-19 -0 2.09351e-05 -0 2.09351e-05)
(2.09349e-05 6.28904e-19 -0 2.09349e-05 -0 2.09349e-05)
(2.09346e-05 4.95617e-19 -0 2.09346e-05 -0 2.09346e-05)
(2.09345e-05 4.47348e-19 -0 2.09345e-05 -0 2.09345e-05)
(2.12015e-05 3.14045e-12 -0 2.12015e-05 -0 2.12015e-05)
(2.12013e-05 -4.03098e-12 -0 2.12013e-05 -0 2.12013e-05)
(2.1196e-05 9.52538e-13 -0 2.1196e-05 -0 2.1196e-05)
(2.1194e-05 -2.25659e-13 -0 2.1194e-05 -0 2.1194e-05)
(2.11903e-05 5.33672e-14 -0 2.11903e-05 -0 2.11903e-05)
(2.11886e-05 -1.26345e-14 -0 2.11886e-05 -0 2.11886e-05)
(2.11853e-05 2.99305e-15 -0 2.11853e-05 -0 2.11853e-05)
(2.11839e-05 -7.03516e-16 -0 2.11839e-05 -0 2.11839e-05)
(2.1181e-05 1.71483e-16 -0 2.1181e-05 -0 2.1181e-05)
(2.11799e-05 -3.59172e-17 -0 2.11799e-05 -0 2.11799e-05)
(2.11775e-05 1.2347e-17 -0 2.11775e-05 -0 2.11775e-05)
(2.11767e-05 3.6777e-19 -0 2.11767e-05 -0 2.11767e-05)
(2.11748e-05 2.55264e-18 -0 2.11748e-05 -0 2.11748e-05)
(2.11742e-05 1.33757e-18 -0 2.11742e-05 -0 2.11742e-05)
(2.11728e-05 1.15513e-18 -0 2.11728e-05 -0 2.11728e-05)
(2.11724e-05 9.89393e-19 -0 2.11724e-05 -0 2.11724e-05)
(2.11716e-05 8.47961e-19 -0 2.11716e-05 -0 2.11716e-05)
(2.11714e-05 6.07125e-19 -0 2.11714e-05 -0 2.11714e-05)
(2.11711e-05 4.19978e-19 -0 2.11711e-05 -0 2.11711e-05)
(2.1171e-05 4.19564e-19 -0 2.1171e-05 -0 2.1171e-05)
(2.13592e-05 -3.14585e-12 -0 2.13592e-05 -0 2.13592e-05)
(2.13591e-05 4.03733e-12 -0 2.13591e-05 -0 2.13591e-05)
(2.13537e-05 -9.54139e-13 -0 2.13537e-05 -0 2.13537e-05)
(2.13516e-05 2.26023e-13 -0 2.13516e-05 -0 2.13516e-05)
(2.13479e-05 -5.34604e-14 -0 2.13479e-05 -0 2.13479e-05)
(2.13461e-05 1.26599e-14 -0 2.13461e-05 -0 2.13461e-05)
(2.13427e-05 -2.99296e-15 -0 2.13427e-05 -0 2.13427e-05)
(2.13414e-05 7.11346e-16 -0 2.13414e-05 -0 2.13414e-05)
(2.13384e-05 -1.6526e-16 -0 2.13384e-05 -0 2.13384e-05)
(2.13373e-05 4.19986e-17 -0 2.13373e-05 -0 2.13373e-05)
(2.13348e-05 -7.32524e-18 -0 2.13348e-05 -0 2.13348e-05)
(2.13341e-05 4.06083e-18 -0 2.13341e-05 -0 2.13341e-05)
(2.1332e-05 8.50006e-19 -0 2.1332e-05 -0 2.1332e-05)
(2.13315e-05 1.18207e-18 -0 2.13315e-05 -0 2.13315e-05)
(2.13301e-05 9.5064e-19 -0 2.13301e-05 -0 2.13301e-05)
(2.13297e-05 6.68379e-19 -0 2.13297e-05 -0 2.13297e-05)
(2.13288e-05 4.10824e-19 -0 2.13288e-05 -0 2.13288e-05)
(2.13287e-05 4.38233e-19 -0 2.13287e-05 -0 2.13287e-05)
(2.13284e-05 5.13914e-19 -0 2.13284e-05 -0 2.13284e-05)
(2.13283e-05 2.63314e-19 -0 2.13283e-05 -0 2.13283e-05)
(2.14818e-05 3.14977e-12 -0 2.14818e-05 -0 2.14818e-05)
(2.14816e-05 -4.04153e-12 -0 2.14816e-05 -0 2.14816e-05)
(2.14762e-05 9.55229e-13 -0 2.14762e-05 -0 2.14762e-05)
(2.1474e-05 -2.26286e-13 -0 2.1474e-05 -0 2.1474e-05)
(2.14704e-05 5.35236e-14 -0 2.14704e-05 -0 2.14704e-05)
(2.14683e-05 -1.26754e-14 -0 2.14683e-05 -0 2.14683e-05)
(2.14653e-05 2.99925e-15 -0 2.14653e-05 -0 2.14653e-05)
(2.14634e-05 -7.09004e-16 -0 2.14634e-05 -0 2.14634e-05)
(2.1461e-05 1.69059e-16 -0 2.1461e-05 -0 2.1461e-05)
(2.14594e-05 -3.87807e-17 -0 2.14594e-05 -0 2.14594e-05)
(2.14573e-05 1.05499e-17 -0 2.14573e-05 -0 2.14573e-05)
(2.14561e-05 -1.39957e-18 -0 2.14561e-05 -0 2.14561e-05)
(2.14544e-05 1.33387e-18 -0 2.14544e-05 -0 2.14544e-05)
(2.14537e-05 6.92183e-19 -0 2.14537e-05 -0 2.14537e-05)
(2.14523e-05 7.3474e-19 -0 2.14523e-05 -0 2.14523e-05)
(2.14519e-05 5.24402e-19 -0 2.14519e-05 -0 2.14519e-05)
(2.14511e-05 5.71824e-19 -0 2.14511e-05 -0 2.14511e-05)
(2.14508e-05 3.7853e-19 -0 2.14508e-05 -0 2.14508e-05)
(2.14506e-05 1.1479e-19 -0 2.14506e-05 -0 2.14506e-05)
(2.14505e-05 2.7182e-19 -0 2.14505e-05 -0 2.14505e-05)
(2.15923e-05 -3.15337e-12 -0 2.15923e-05 -0 2.15923e-05)
(2.15921e-05 4.04517e-12 -0 2.15921e-05 -0 2.15921e-05)
(2.15868e-05 -9.56201e-13 -0 2.15868e-05 -0 2.15868e-05)
(2.15845e-05 2.26509e-13 -0 2.15845e-05 -0 2.15845e-05)
(2.15808e-05 -5.35826e-14 -0 2.15808e-05 -0 2.15808e-05)
(2.15788e-05 1.26889e-14 -0 2.15788e-05 -0 2.15788e-05)
(2.15755e-05 -3.00275e-15 -0 2.15755e-05 -0 2.15755e-05)
(2.1574e-05 7.10561e-16 -0 2.1574e-05 -0 2.1574e-05)
(2.15711e-05 -1.68201e-16 -0 2.15711e-05 -0 2.15711e-05)
(2.15699e-05 4.0023e-17 -0 2.15699e-05 -0 2.15699e-05)
(2.15675e-05 -9.16157e-18 -0 2.15675e-05 -0 2.15675e-05)
(2.15666e-05 2.45867e-18 -0 2.15666e-05 -0 2.15666e-05)
(2.15646e-05 -3.92336e-19 -0 2.15646e-05 -0 2.15646e-05)
(2.1564e-05 3.44533e-19 -0 2.1564e-05 -0 2.1564e-05)
(2.15626e-05 1.20411e-19 -0 2.15626e-05 -0 2.15626e-05)
(2.15622e-05 2.09881e-19 -0 2.15622e-05 -0 2.15622e-05)
(2.15613e-05 2.78346e-19 -0 2.15613e-05 -0 2.15613e-05)
(2.15611e-05 1.50694e-19 -0 2.15611e-05 -0 2.15611e-05)
(2.15608e-05 1.58425e-19 -0 2.15608e-05 -0 2.15608e-05)
(2.15607e-05 2.28265e-19 -0 2.15607e-05 -0 2.15607e-05)
(2.17033e-05 3.1574e-12 -0 2.17033e-05 -0 2.17033e-05)
(2.17031e-05 -4.04962e-12 -0 2.17031e-05 -0 2.17031e-05)
(2.1698e-05 9.5735e-13 -0 2.1698e-05 -0 2.1698e-05)
(2.16955e-05 -2.26779e-13 -0 2.16955e-05 -0 2.16955e-05)
(2.16919e-05 5.36474e-14 -0 2.16919e-05 -0 2.16919e-05)
(2.16897e-05 -1.27074e-14 -0 2.16897e-05 -0 2.16897e-05)
(2.16866e-05 3.00459e-15 -0 2.16866e-05 -0 2.16866e-05)
(2.16848e-05 -7.13288e-16 -0 2.16848e-05 -0 2.16848e-05)
(2.16821e-05 1.66998e-16 -0 2.16821e-05 -0 2.16821e-05)
(2.16808e-05 -4.08847e-17 -0 2.16808e-05 -0 2.16808e-05)
(2.16783e-05 8.77905e-18 -0 2.16783e-05 -0 2.16783e-05)
(2.16774e-05 -2.5505e-18 -0 2.16774e-05 -0 2.16774e-05)
(2.16754e-05 2.97342e-19 -0 2.16754e-05 -0 2.16754e-05)
(2.16748e-05 -1.12704e-19 -0 2.16748e-05 -0 2.16748e-05)
(2.16733e-05 1.26905e-19 -0 2.16733e-05 -0 2.16733e-05)
(2.16729e-05 1.61471e-19 -0 2.16729e-05 -0 2.16729e-05)
(2.16721e-05 3.30317e-19 -0 2.16721e-05 -0 2.16721e-05)
(2.16719e-05 1.73281e-19 -0 2.16719e-05 -0 2.16719e-05)
(2.16716e-05 2.42684e-19 -0 2.16716e-05 -0 2.16716e-05)
(2.16715e-05 1.90396e-19 -0 2.16715e-05 -0 2.16715e-05)
(2.18225e-05 -3.16218e-12 -0 2.18225e-05 -0 2.18225e-05)
(2.18223e-05 4.05536e-12 -0 2.18223e-05 -0 2.18223e-05)
(2.18168e-05 -9.58721e-13 -0 2.18168e-05 -0 2.18168e-05)
(2.18145e-05 2.27113e-13 -0 2.18145e-05 -0 2.18145e-05)
(2.18106e-05 -5.37268e-14 -0 2.18106e-05 -0 2.18106e-05)
(2.18087e-05 1.27236e-14 -0 2.18087e-05 -0 2.18087e-05)
(2.18054e-05 -3.0135e-15 -0 2.18054e-05 -0 2.18054e-05)
(2.18037e-05 7.10202e-16 -0 2.18037e-05 -0 2.18037e-05)
(2.18009e-05 -1.71258e-16 -0 2.18009e-05 -0 2.18009e-05)
(2.17995e-05 3.75432e-17 -0 2.17995e-05 -0 2.17995e-05)
(2.17972e-05 -1.11848e-17 -0 2.17972e-05 -0 2.17972e-05)
(2.17961e-05 9.67576e-19 -0 2.17961e-05 -0 2.17961e-05)
(2.17942e-05 -1.36486e-18 -0 2.17942e-05 -0 2.17942e-05)
(2.17935e-05 -4.44229e-19 -0 2.17935e-05 -0 2.17935e-05)
(2.17921e-05 -4.09253e-19 -0 2.17921e-05 -0 2.17921e-05)
(2.17916e-05 -1.65398e-19 -0 2.17916e-05 -0 2.17916e-05)
(2.17908e-05 -1.19447e-19 -0 2.17908e-05 -0 2.17908e-05)
(2.17906e-05 3.928e-20 -0 2.17906e-05 -0 2.17906e-05)
(2.17903e-05 6.32088e-21 -0 2.17903e-05 -0 2.17903e-05)
(2.17902e-05 6.36316e-20 -0 2.17902e-05 -0 2.17902e-05)
(2.19548e-05 3.16793e-12 -0 2.19548e-05 -0 2.19548e-05)
(2.19546e-05 -4.06251e-12 -0 2.19546e-05 -0 2.19546e-05)
(2.19493e-05 9.60491e-13 -0 2.19493e-05 -0 2.19493e-05)
(2.19468e-05 -2.27519e-13 -0 2.19468e-05 -0 2.19468e-05)
(2.19431e-05 5.38237e-14 -0 2.19431e-05 -0 2.19431e-05)
(2.1941e-05 -1.27533e-14 -0 2.1941e-05 -0 2.1941e-05)
(2.19375e-05 3.01193e-15 -0 2.19375e-05 -0 2.19375e-05)
(2.1936e-05 -7.19032e-16 -0 2.1936e-05 -0 2.1936e-05)
(2.19328e-05 1.65253e-16 -0 2.19328e-05 -0 2.19328e-05)
(2.19318e-05 -4.29921e-17 -0 2.19318e-05 -0 2.19318e-05)
(2.19291e-05 7.03582e-18 -0 2.19291e-05 -0 2.19291e-05)
(2.19283e-05 -3.86159e-18 -0 2.19283e-05 -0 2.19283e-05)
(2.19261e-05 -5.95951e-19 -0 2.19261e-05 -0 2.19261e-05)
(2.19256e-05 -9.5363e-19 -0 2.19256e-05 -0 2.19256e-05)
(2.1924e-05 -5.20527e-19 -0 2.1924e-05 -0 2.1924e-05)
(2.19237e-05 -2.42496e-19 -0 2.19237e-05 -0 2.19237e-05)
(2.19228e-05 -1.82041e-19 -0 2.19228e-05 -0 2.19228e-05)
(2.19226e-05 -9.69575e-20 -0 2.19226e-05 -0 2.19226e-05)
(2.19223e-05 -2.49158e-19 -0 2.19223e-05 -0 2.19223e-05)
(2.19222e-05 -3.03369e-20 -0 2.19222e-05 -0 2.19222e-05)
(2.21054e-05 -3.1749e-12 -0 2.21054e-05 -0 2.21054e-05)
(2.21052e-05 4.07193e-12 -0 2.21052e-05 -0 2.21052e-05)
(2.20995e-05 -9.62653e-13 -0 2.20995e-05 -0 2.20995e-05)
(2.20972e-05 2.28042e-13 -0 2.20972e-05 -0 2.20972e-05)
(2.20933e-05 -5.39512e-14 -0 2.20933e-05 -0 2.20933e-05)
(2.20912e-05 1.27713e-14 -0 2.20912e-05 -0 2.20912e-05)
(2.20878e-05 -3.03044e-15 -0 2.20878e-05 -0 2.20878e-05)
(2.2086e-05 7.09684e-16 -0 2.2086e-05 -0 2.2086e-05)
(2.20832e-05 -1.74769e-16 -0 2.20832e-05 -0 2.20832e-05)
(2.20817e-05 3.60841e-17 -0 2.20817e-05 -0 2.20817e-05)
(2.20795e-05 -1.26301e-17 -0 2.20795e-05 -0 2.20795e-05)
(2.20782e-05 -3.20884e-20 -0 2.20782e-05 -0 2.20782e-05)
(2.20765e-05 -2.21315e-18 -0 2.20765e-05 -0 2.20765e-05)
(2.20755e-05 -9.93275e-19 -0 2.20755e-05 -0 2.20755e-05)
(2.20743e-05 -6.87543e-19 -0 2.20743e-05 -0 2.20743e-05)
(2.20736e-05 -5.81834e-19 -0 2.20736e-05 -0 2.20736e-05)
(2.20729e-05 -9.59711e-20 -0 2.20729e-05 -0 2.20729e-05)
(2.20726e-05 -6.83816e-21 -0 2.20726e-05 -0 2.20726e-05)
(2.20723e-05 2.87229e-20 -0 2.20723e-05 -0 2.20723e-05)
(2.20722e-05 4.73938e-20 -0 2.20722e-05 -0 2.20722e-05)
(2.22779e-05 3.18362e-12 -0 2.22779e-05 -0 2.22779e-05)
(2.22777e-05 -4.08317e-12 -0 2.22777e-05 -0 2.22777e-05)
(2.22719e-05 9.65347e-13 -0 2.22719e-05 -0 2.22719e-05)
(2.22696e-05 -2.28679e-13 -0 2.22696e-05 -0 2.22696e-05)
(2.22654e-05 5.40859e-14 -0 2.22654e-05 -0 2.22654e-05)
(2.22636e-05 -1.2827e-14 -0 2.22636e-05 -0 2.22636e-05)
(2.22599e-05 3.02009e-15 -0 2.22599e-05 -0 2.22599e-05)
(2.22584e-05 -7.2783e-16 -0 2.22584e-05 -0 2.22584e-05)
(2.22553e-05 1.62608e-16 -0 2.22553e-05 -0 2.22553e-05)
(2.2254e-05 -4.56696e-17 -0 2.2254e-05 -0 2.2254e-05)
(2.22514e-05 5.8137e-18 -0 2.22514e-05 -0 2.22514e-05)
(2.22505e-05 -4.80356e-18 -0 2.22505e-05 -0 2.22505e-05)
(2.22483e-05 -1.30655e-18 -0 2.22483e-05 -0 2.22483e-05)
(2.22478e-05 -1.41385e-18 -0 2.22478e-05 -0 2.22478e-05)
(2.22462e-05 -7.37121e-19 -0 2.22462e-05 -0 2.22462e-05)
(2.22458e-05 -5.32349e-19 -0 2.22458e-05 -0 2.22458e-05)
(2.22448e-05 -2.58004e-19 -0 2.22448e-05 -0 2.22448e-05)
(2.22446e-05 -2.31025e-19 -0 2.22446e-05 -0 2.22446e-05)
(2.22443e-05 -3.3741e-19 -0 2.22443e-05 -0 2.22443e-05)
(2.22442e-05 -1.1226e-19 -0 2.22442e-05 -0 2.22442e-05)
(2.24724e-05 -3.19308e-12 -0 2.24724e-05 -0 2.24724e-05)
(2.24722e-05 4.09702e-12 -0 2.24722e-05 -0 2.24722e-05)
(2.24665e-05 -9.68539e-13 -0 2.24665e-05 -0 2.24665e-05)
(2.24639e-05 2.29407e-13 -0 2.24639e-05 -0 2.24639e-05)
(2.24601e-05 -5.42951e-14 -0 2.24601e-05 -0 2.24601e-05)
(2.24578e-05 1.28301e-14 -0 2.24578e-05 -0 2.24578e-05)
(2.24545e-05 -3.05835e-15 -0 2.24545e-05 -0 2.24545e-05)
(2.24524e-05 7.07124e-16 -0 2.24524e-05 -0 2.24524e-05)
(2.24497e-05 -1.79264e-16 -0 2.24497e-05 -0 2.24497e-05)
(2.2448e-05 3.41337e-17 -0 2.2448e-05 -0 2.2448e-05)
(2.24457e-05 -1.38622e-17 -0 2.24457e-05 -0 2.24457e-05)
(2.24444e-05 -7.74443e-19 -0 2.24444e-05 -0 2.24444e-05)
(2.24426e-05 -2.44604e-18 -0 2.24426e-05 -0 2.24426e-05)
(2.24416e-05 -1.41976e-18 -0 2.24416e-05 -0 2.24416e-05)
(2.24403e-05 -1.06149e-18 -0 2.24403e-05 -0 2.24403e-05)
(2.24397e-05 -4.9525e-19 -0 2.24397e-05 -0 2.24397e-05)
(2.24389e-05 -4.22019e-19 -0 2.24389e-05 -0 2.24389e-05)
(2.24386e-05 -4.53912e-19 -0 2.24386e-05 -0 2.24386e-05)
(2.24383e-05 -2.28862e-19 -0 2.24383e-05 -0 2.24383e-05)
(2.24382e-05 -1.74185e-19 -0 2.24382e-05 -0 2.24382e-05)
(2.2677e-05 3.20504e-12 -0 2.2677e-05 -0 2.2677e-05)
(2.26768e-05 -4.11128e-12 -0 2.26768e-05 -0 2.26768e-05)
(2.26708e-05 9.72001e-13 -0 2.26708e-05 -0 2.26708e-05)
(2.26684e-05 -2.30354e-13 -0 2.26684e-05 -0 2.26684e-05)
(2.26642e-05 5.44272e-14 -0 2.26642e-05 -0 2.26642e-05)
(2.26621e-05 -1.29481e-14 -0 2.26621e-05 -0 2.26621e-05)
(2.26585e-05 3.03159e-15 -0 2.26585e-05 -0 2.26585e-05)
(2.26567e-05 -7.3888e-16 -0 2.26567e-05 -0 2.26567e-05)
(2.26537e-05 1.62279e-16 -0 2.26537e-05 -0 2.26537e-05)
(2.26521e-05 -4.6433e-17 -0 2.26521e-05 -0 2.26521e-05)
(2.26496e-05 5.7325e-18 -0 2.26496e-05 -0 2.26496e-05)
(2.26485e-05 -4.75903e-18 -0 2.26485e-05 -0 2.26485e-05)
(2.26464e-05 -1.04025e-18 -0 2.26464e-05 -0 2.26464e-05)
(2.26457e-05 -1.11949e-18 -0 2.26457e-05 -0 2.26457e-05)
(2.26441e-05 -7.74505e-19 -0 2.26441e-05 -0 2.26441e-05)
(2.26437e-05 -3.65016e-19 -0 2.26437e-05 -0 2.26437e-05)
(2.26428e-05 -2.21208e-19 -0 2.26428e-05 -0 2.26428e-05)
(2.26425e-05 -1.11668e-19 -0 2.26425e-05 -0 2.26425e-05)
(2.26422e-05 -2.59135e-20 -0 2.26422e-05 -0 2.26422e-05)
(2.26421e-05 -1.24764e-19 -0 2.26421e-05 -0 2.26421e-05)
(2.28574e-05 -3.20838e-12 -0 2.28574e-05 -0 2.28574e-05)
(2.28573e-05 4.11768e-12 -0 2.28573e-05 -0 2.28573e-05)
(2.28517e-05 -9.72949e-13 -0 2.28517e-05 -0 2.28517e-05)
(2.2849e-05 2.2988e-13 -0 2.2849e-05 -0 2.2849e-05)
(2.28452e-05 -5.44205e-14 -0 2.28452e-05 -0 2.28452e-05)
(2.28428e-05 1.27914e-14 -0 2.28428e-05 -0 2.28428e-05)
(2.28397e-05 -3.05054e-15 -0 2.28397e-05 -0 2.28397e-05)
(2.28375e-05 7.01496e-16 -0 2.28375e-05 -0 2.28375e-05)
(2.28349e-05 -1.75579e-16 -0 2.28349e-05 -0 2.28349e-05)
(2.28331e-05 3.49381e-17 -0 2.28331e-05 -0 2.28331e-05)
(2.28308e-05 -1.21333e-17 -0 2.28308e-05 -0 2.28308e-05)
(2.28294e-05 4.37103e-19 -0 2.28294e-05 -0 2.28294e-05)
(2.28277e-05 -1.70876e-18 -0 2.28277e-05 -0 2.28277e-05)
(2.28266e-05 -6.8894e-19 -0 2.28266e-05 -0 2.28266e-05)
(2.28254e-05 -4.67958e-19 -0 2.28254e-05 -0 2.28254e-05)
(2.28247e-05 -4.04029e-19 -0 2.28247e-05 -0 2.28247e-05)
(2.28239e-05 -3.80356e-19 -0 2.28239e-05 -0 2.28239e-05)
(2.28236e-05 -1.10543e-19 -0 2.28236e-05 -0 2.28236e-05)
(2.28233e-05 -1.67846e-19 -0 2.28233e-05 -0 2.28233e-05)
(2.28232e-05 -1.50769e-19 -0 2.28232e-05 -0 2.28232e-05)
(2.29335e-05 3.20895e-12 -0 2.29335e-05 -0 2.29335e-05)
(2.29333e-05 -3.97628e-12 -0 2.29333e-05 -0 2.29333e-05)
(2.29332e-05 9.42355e-13 -0 2.29332e-05 -0 2.29332e-05)
(2.29332e-05 -2.23357e-13 -0 2.29332e-05 -0 2.29332e-05)
(2.29331e-05 5.29853e-14 -0 2.29331e-05 -0 2.29331e-05)
(2.29331e-05 -1.25149e-14 -0 2.29331e-05 -0 2.29331e-05)
(2.2933e-05 2.99457e-15 -0 2.2933e-05 -0 2.2933e-05)
(2.2933e-05 -6.89434e-16 -0 2.2933e-05 -0 2.2933e-05)
(2.29329e-05 1.76597e-16 -0 2.29329e-05 -0 2.29329e-05)
(2.29329e-05 -3.29938e-17 -0 2.29329e-05 -0 2.29329e-05)
(2.29329e-05 1.37801e-17 -0 2.29329e-05 -0 2.29329e-05)
(2.29329e-05 4.94553e-19 -0 2.29329e-05 -0 2.29329e-05)
(2.29328e-05 2.27507e-18 -0 2.29328e-05 -0 2.29328e-05)
(2.29328e-05 1.04326e-18 -0 2.29328e-05 -0 2.29328e-05)
(2.29328e-05 7.25196e-19 -0 2.29328e-05 -0 2.29328e-05)
(2.29328e-05 4.49785e-19 -0 2.29328e-05 -0 2.29328e-05)
(2.29328e-05 3.95732e-19 -0 2.29328e-05 -0 2.29328e-05)
(2.29328e-05 1.47549e-19 -0 2.29328e-05 -0 2.29328e-05)
(2.29328e-05 7.34623e-20 -0 2.29328e-05 -0 2.29328e-05)
(2.29328e-05 5.87678e-20 -0 2.29328e-05 -0 2.29328e-05)
)
;

boundaryField
{
    movingWall
    {
        type            kqRWallFunction;
        value           nonuniform List<symmTensor> 
20
(
(2.29335e-05 0 -0 2.29335e-05 -0 2.29335e-05)
(2.29333e-05 -0 -0 2.29333e-05 -0 2.29333e-05)
(2.29332e-05 0 -0 2.29332e-05 -0 2.29332e-05)
(2.29332e-05 -0 -0 2.29332e-05 -0 2.29332e-05)
(2.29331e-05 0 -0 2.29331e-05 -0 2.29331e-05)
(2.29331e-05 -0 -0 2.29331e-05 -0 2.29331e-05)
(2.2933e-05 0 -0 2.2933e-05 -0 2.2933e-05)
(2.2933e-05 -0 -0 2.2933e-05 -0 2.2933e-05)
(2.29329e-05 0 -0 2.29329e-05 -0 2.29329e-05)
(2.29329e-05 -0 -0 2.29329e-05 -0 2.29329e-05)
(2.29329e-05 0 -0 2.29329e-05 -0 2.29329e-05)
(2.29329e-05 0 -0 2.29329e-05 -0 2.29329e-05)
(2.29328e-05 0 -0 2.29328e-05 -0 2.29328e-05)
(2.29328e-05 0 -0 2.29328e-05 -0 2.29328e-05)
(2.29328e-05 0 -0 2.29328e-05 -0 2.29328e-05)
(2.29328e-05 0 -0 2.29328e-05 -0 2.29328e-05)
(2.29328e-05 0 -0 2.29328e-05 -0 2.29328e-05)
(2.29328e-05 0 -0 2.29328e-05 -0 2.29328e-05)
(2.29328e-05 0 -0 2.29328e-05 -0 2.29328e-05)
(2.29328e-05 0 -0 2.29328e-05 -0 2.29328e-05)
)
;
    }
    fixedWalls
    {
        type            kqRWallFunction;
        value           nonuniform List<symmTensor> 
60
(
(1.29282e-05 -0 -0 1.29282e-05 -0 1.29282e-05)
(1.46647e-05 0 -0 1.46647e-05 -0 1.46647e-05)
(1.68893e-05 -0 -0 1.68893e-05 -0 1.68893e-05)
(1.86899e-05 0 -0 1.86899e-05 -0 1.86899e-05)
(1.98694e-05 -0 -0 1.98694e-05 -0 1.98694e-05)
(2.05657e-05 0 -0 2.05657e-05 -0 2.05657e-05)
(2.09643e-05 -0 -0 2.09643e-05 -0 2.09643e-05)
(2.12015e-05 0 -0 2.12015e-05 -0 2.12015e-05)
(2.13592e-05 -0 -0 2.13592e-05 -0 2.13592e-05)
(2.14818e-05 0 -0 2.14818e-05 -0 2.14818e-05)
(2.15923e-05 -0 -0 2.15923e-05 -0 2.15923e-05)
(2.17033e-05 0 -0 2.17033e-05 -0 2.17033e-05)
(2.18225e-05 -0 -0 2.18225e-05 -0 2.18225e-05)
(2.19548e-05 0 -0 2.19548e-05 -0 2.19548e-05)
(2.21054e-05 -0 -0 2.21054e-05 -0 2.21054e-05)
(2.22779e-05 0 -0 2.22779e-05 -0 2.22779e-05)
(2.24724e-05 -0 -0 2.24724e-05 -0 2.24724e-05)
(2.2677e-05 0 -0 2.2677e-05 -0 2.2677e-05)
(2.28574e-05 -0 -0 2.28574e-05 -0 2.28574e-05)
(2.29335e-05 0 -0 2.29335e-05 -0 2.29335e-05)
(1.29278e-05 0 -0 1.29278e-05 -0 1.29278e-05)
(1.46506e-05 0 -0 1.46506e-05 -0 1.46506e-05)
(1.68704e-05 0 -0 1.68704e-05 -0 1.68704e-05)
(1.86666e-05 0 -0 1.86666e-05 -0 1.86666e-05)
(1.98429e-05 0 -0 1.98429e-05 -0 1.98429e-05)
(2.05373e-05 0 -0 2.05373e-05 -0 2.05373e-05)
(2.09345e-05 0 -0 2.09345e-05 -0 2.09345e-05)
(2.1171e-05 0 -0 2.1171e-05 -0 2.1171e-05)
(2.13283e-05 0 -0 2.13283e-05 -0 2.13283e-05)
(2.14505e-05 0 -0 2.14505e-05 -0 2.14505e-05)
(2.15607e-05 0 -0 2.15607e-05 -0 2.15607e-05)
(2.16715e-05 0 -0 2.16715e-05 -0 2.16715e-05)
(2.17902e-05 0 -0 2.17902e-05 -0 2.17902e-05)
(2.19222e-05 0 -0 2.19222e-05 -0 2.19222e-05)
(2.20722e-05 0 -0 2.20722e-05 -0 2.20722e-05)
(2.22442e-05 -0 -0 2.22442e-05 -0 2.22442e-05)
(2.24382e-05 -0 -0 2.24382e-05 -0 2.24382e-05)
(2.26421e-05 -0 -0 2.26421e-05 -0 2.26421e-05)
(2.28232e-05 -0 -0 2.28232e-05 -0 2.28232e-05)
(2.29328e-05 0 -0 2.29328e-05 -0 2.29328e-05)
(1.29282e-05 -0 -0 1.29282e-05 -0 1.29282e-05)
(1.29281e-05 0 -0 1.29281e-05 -0 1.29281e-05)
(1.29281e-05 -0 -0 1.29281e-05 -0 1.29281e-05)
(1.29281e-05 0 -0 1.29281e-05 -0 1.29281e-05)
(1.2928e-05 -0 -0 1.2928e-05 -0 1.2928e-05)
(1.2928e-05 0 -0 1.2928e-05 -0 1.2928e-05)
(1.2928e-05 -0 -0 1.2928e-05 -0 1.2928e-05)
(1.29279e-05 0 -0 1.29279e-05 -0 1.29279e-05)
(1.29279e-05 -0 -0 1.29279e-05 -0 1.29279e-05)
(1.29279e-05 0 -0 1.29279e-05 -0 1.29279e-05)
(1.29279e-05 -0 -0 1.29279e-05 -0 1.29279e-05)
(1.29279e-05 -0 -0 1.29279e-05 -0 1.29279e-05)
(1.29279e-05 -0 -0 1.29279e-05 -0 1.29279e-05)
(1.29278e-05 -0 -0 1.29278e-05 -0 1.29278e-05)
(1.29279e-05 -0 -0 1.29279e-05 -0 1.29279e-05)
(1.29278e-05 -0 -0 1.29278e-05 -0 1.29278e-05)
(1.29278e-05 -0 -0 1.29278e-05 -0 1.29278e-05)
(1.29278e-05 -0 -0 1.29278e-05 -0 1.29278e-05)
(1.29278e-05 -0 -0 1.29278e-05 -0 1.29278e-05)
(1.29278e-05 -0 -0 1.29278e-05 -0 1.29278e-05)
)
;
    }
    frontAndBack
    {
        type            empty;
    }
}


// ************************************************************************* //
