/*--------------------------------*- C++ -*----------------------------------*\
| =========                 |                                                 |
| \\      /  F ield         | OpenFOAM: The Open Source CFD Toolbox           |
|  \\    /   O peration     | Version:  2506                                  |
|   \\  /    A nd           | Website:  www.openfoam.com                      |
|    \\/     M anipulation  |                                                 |
\*---------------------------------------------------------------------------*/
FoamFile
{
    version     2.0;
    format      ascii;
    arch        "LSB;label=32;scalar=64";
    class       volScalarField;
    location    "4.5";
    object      turbulenceProperties:epsilon;
}
// * * * * * * * * * * * * * * * * * * * * * * * * * * * * * * * * * * * * * //

dimensions      [0 2 -3 0 0 0 0];

internalField   nonuniform List<scalar> 
400
(
1.37558e-05
1.37556e-05
1.37556e-05
1.37555e-05
1.37555e-05
1.37553e-05
1.37555e-05
1.37552e-05
1.37554e-05
1.37551e-05
1.37553e-05
1.37551e-05
1.37553e-05
1.37551e-05
1.37553e-05
1.37551e-05
1.37552e-05
1.37551e-05
1.37552e-05
1.37551e-05
1.66302e-05
1.61713e-05
1.62076e-05
1.62227e-05
1.6253e-05
1.6269e-05
1.62992e-05
1.63162e-05
1.63463e-05
1.63641e-05
1.63943e-05
1.64129e-05
1.64433e-05
1.64625e-05
1.64931e-05
1.6513e-05
1.65439e-05
1.65644e-05
1.65801e-05
1.66061e-05
2.05676e-05
1.99487e-05
1.99981e-05
2.00186e-05
2.00595e-05
2.00813e-05
2.01221e-05
2.01449e-05
2.01856e-05
2.02095e-05
2.02502e-05
2.0275e-05
2.03158e-05
2.03415e-05
2.03825e-05
2.0409e-05
2.04503e-05
2.04774e-05
2.04983e-05
2.05328e-05
2.39513e-05
2.31874e-05
2.32479e-05
2.3273e-05
2.33233e-05
2.335e-05
2.34001e-05
2.34283e-05
2.34783e-05
2.35077e-05
2.35577e-05
2.35884e-05
2.36385e-05
2.36703e-05
2.37207e-05
2.37535e-05
2.38042e-05
2.38379e-05
2.38636e-05
2.39062e-05
2.62583e-05
2.53903e-05
2.54587e-05
2.54872e-05
2.55442e-05
2.55744e-05
2.56311e-05
2.5663e-05
2.57197e-05
2.57531e-05
2.58097e-05
2.58446e-05
2.59014e-05
2.59376e-05
2.59947e-05
2.6032e-05
2.60896e-05
2.61279e-05
2.61571e-05
2.62055e-05
2.76528e-05
2.67204e-05
2.67937e-05
2.68242e-05
2.68853e-05
2.69177e-05
2.69785e-05
2.70127e-05
2.70735e-05
2.71093e-05
2.71701e-05
2.72075e-05
2.72684e-05
2.73073e-05
2.73686e-05
2.74087e-05
2.74705e-05
2.75117e-05
2.7543e-05
2.75951e-05
2.84616e-05
2.74913e-05
2.75675e-05
2.75992e-05
2.76626e-05
2.76963e-05
2.77595e-05
2.77951e-05
2.78582e-05
2.78955e-05
2.79587e-05
2.79976e-05
2.8061e-05
2.81014e-05
2.81651e-05
2.82068e-05
2.82711e-05
2.8314e-05
2.83466e-05
2.84007e-05
2.89466e-05
2.79537e-05
2.80316e-05
2.8064e-05
2.81288e-05
2.81633e-05
2.8228e-05
2.82643e-05
2.83289e-05
2.83671e-05
2.84317e-05
2.84715e-05
2.85363e-05
2.85777e-05
2.86428e-05
2.86856e-05
2.87513e-05
2.87952e-05
2.88285e-05
2.8884e-05
2.92707e-05
2.82627e-05
2.83417e-05
2.83746e-05
2.84404e-05
2.84754e-05
2.8541e-05
2.85779e-05
2.86434e-05
2.86822e-05
2.87477e-05
2.87882e-05
2.88539e-05
2.88959e-05
2.89621e-05
2.90055e-05
2.90722e-05
2.91168e-05
2.91506e-05
2.92069e-05
2.95235e-05
2.85037e-05
2.85836e-05
2.86168e-05
2.86834e-05
2.87188e-05
2.87851e-05
2.88224e-05
2.88887e-05
2.89279e-05
2.89942e-05
2.90351e-05
2.91016e-05
2.91441e-05
2.9211e-05
2.92549e-05
2.93224e-05
2.93675e-05
2.94017e-05
2.94587e-05
2.97522e-05
2.87218e-05
2.88024e-05
2.8836e-05
2.89032e-05
2.8939e-05
2.9006e-05
2.90437e-05
2.91107e-05
2.91503e-05
2.92172e-05
2.92586e-05
2.93258e-05
2.93687e-05
2.94363e-05
2.94807e-05
2.95489e-05
2.95944e-05
2.9629e-05
2.96865e-05
2.99825e-05
2.89414e-05
2.90229e-05
2.90569e-05
2.91247e-05
2.91609e-05
2.92285e-05
2.92666e-05
2.93343e-05
2.93742e-05
2.94419e-05
2.94837e-05
2.95515e-05
2.95949e-05
2.96632e-05
2.9708e-05
2.97769e-05
2.9823e-05
2.98579e-05
2.9916e-05
3.02301e-05
2.91775e-05
2.92598e-05
2.92941e-05
2.93628e-05
2.93993e-05
2.94677e-05
2.95062e-05
2.95745e-05
2.9615e-05
2.96834e-05
2.97256e-05
2.97942e-05
2.98381e-05
2.99071e-05
2.99524e-05
3.00221e-05
3.00686e-05
3.01039e-05
3.01627e-05
3.05063e-05
2.94408e-05
2.95241e-05
2.95588e-05
2.96282e-05
2.96652e-05
2.97344e-05
2.97734e-05
2.98425e-05
2.98834e-05
2.99527e-05
2.99954e-05
3.00648e-05
3.01092e-05
3.01791e-05
3.0225e-05
3.02955e-05
3.03426e-05
3.03783e-05
3.04378e-05
3.08212e-05
2.9741e-05
2.98254e-05
2.98605e-05
2.99309e-05
2.99683e-05
3.00385e-05
3.0078e-05
3.01481e-05
3.01896e-05
3.02597e-05
3.0303e-05
3.03734e-05
3.04184e-05
3.04892e-05
3.05357e-05
3.06072e-05
3.0655e-05
3.06912e-05
3.07515e-05
3.11835e-05
3.00864e-05
3.01721e-05
3.02078e-05
3.02792e-05
3.03172e-05
3.03884e-05
3.04285e-05
3.04997e-05
3.05418e-05
3.0613e-05
3.0657e-05
3.07285e-05
3.07742e-05
3.08461e-05
3.08934e-05
3.09659e-05
3.10145e-05
3.10513e-05
3.11125e-05
3.1594e-05
3.04776e-05
3.05647e-05
3.0601e-05
3.06737e-05
3.07123e-05
3.07848e-05
3.08256e-05
3.08979e-05
3.09408e-05
3.10132e-05
3.1058e-05
3.11307e-05
3.11772e-05
3.12503e-05
3.12984e-05
3.13722e-05
3.14216e-05
3.14591e-05
3.15214e-05
3.20275e-05
3.08911e-05
3.09797e-05
3.10166e-05
3.10905e-05
3.11298e-05
3.12034e-05
3.1245e-05
3.13186e-05
3.13622e-05
3.14359e-05
3.14815e-05
3.15554e-05
3.16028e-05
3.16773e-05
3.17262e-05
3.18014e-05
3.18517e-05
3.18898e-05
3.19532e-05
3.24117e-05
3.12828e-05
3.1369e-05
3.1405e-05
3.14771e-05
3.1516e-05
3.1588e-05
3.16295e-05
3.17016e-05
3.17456e-05
3.18179e-05
3.18643e-05
3.19371e-05
3.19856e-05
3.20591e-05
3.21095e-05
3.21841e-05
3.22362e-05
3.22742e-05
3.23385e-05
3.25739e-05
3.25736e-05
3.25734e-05
3.25734e-05
3.25731e-05
3.25732e-05
3.25729e-05
3.2573e-05
3.25727e-05
3.25728e-05
3.25726e-05
3.25727e-05
3.25725e-05
3.25726e-05
3.25725e-05
3.25726e-05
3.25725e-05
3.25725e-05
3.25725e-05
3.25725e-05
)
;

boundaryField
{
    movingWall
    {
        type            epsilonWallFunction;
        blending        stepwise;
        value           nonuniform List<scalar> 
20
(
3.25739e-05
3.25736e-05
3.25734e-05
3.25734e-05
3.25731e-05
3.25732e-05
3.25729e-05
3.2573e-05
3.25727e-05
3.25728e-05
3.25726e-05
3.25727e-05
3.25725e-05
3.25726e-05
3.25725e-05
3.25726e-05
3.25725e-05
3.25725e-05
3.25725e-05
3.25725e-05
)
;
    }
    fixedWalls
    {
        type            epsilonWallFunction;
        blending        stepwise;
        value           nonuniform List<scalar> 
60
(
1.37558e-05
1.66302e-05
2.05676e-05
2.39513e-05
2.62583e-05
2.76528e-05
2.84616e-05
2.89466e-05
2.92707e-05
2.95235e-05
2.97522e-05
2.99825e-05
3.02301e-05
3.05063e-05
3.08212e-05
3.11835e-05
3.1594e-05
3.20275e-05
3.24117e-05
3.25739e-05
1.37551e-05
1.66061e-05
2.05328e-05
2.39062e-05
2.62055e-05
2.75951e-05
2.84007e-05
2.8884e-05
2.92069e-05
2.94587e-05
2.96865e-05
2.9916e-05
3.01627e-05
3.04378e-05
3.07515e-05
3.11125e-05
3.15214e-05
3.19532e-05
3.23385e-05
3.25725e-05
1.37558e-05
1.37556e-05
1.37556e-05
1.37555e-05
1.37555e-05
1.37553e-05
1.37555e-05
1.37552e-05
1.37554e-05
1.37551e-05
1.37553e-05
1.37551e-05
1.37553e-05
1.37551e-05
1.37553e-05
1.37551e-05
1.37552e-05
1.37551e-05
1.37552e-05
1.37551e-05
)
;
    }
    frontAndBack
    {
        type            empty;
    }
}


// ************************************************************************* //
