/*--------------------------------*- C++ -*----------------------------------*\
| =========                 |                                                 |
| \\      /  F ield         | OpenFOAM: The Open Source CFD Toolbox           |
|  \\    /   O peration     | Version:  2506                                  |
|   \\  /    A nd           | Website:  www.openfoam.com                      |
|    \\/     M anipulation  |                                                 |
\*---------------------------------------------------------------------------*/
FoamFile
{
    version     2.0;
    format      ascii;
    arch        "LSB;label=32;scalar=64";
    class       volScalarField;
    location    "4.5";
    object      turbulenceProperties:I;
}
// * * * * * * * * * * * * * * * * * * * * * * * * * * * * * * * * * * * * * //

dimensions      [0 0 0 0 0 0 0];

internalField   nonuniform List<scalar> 
400
(
0.00359558
0.00359557
0.00359557
0.00359556
0.00359556
0.00359555
0.00359555
0.00359554
0.00359555
0.00359554
0.00359554
0.00359553
0.00359554
0.00359553
0.00359553
0.00359553
0.00359553
0.00359553
0.00359553
0.00359553
0.00382946
0.00382946
0.00382913
0.00382901
0.00382879
0.00382867
0.00382849
0.00382838
0.00382824
0.00382814
0.00382802
0.00382795
0.00382785
0.0038278
0.00382773
0.00382769
0.00382765
0.00382763
0.00382761
0.00382761
0.00410967
0.00410965
0.00410926
0.0041091
0.00410883
0.00410868
0.00410845
0.00410832
0.00410813
0.00410802
0.00410786
0.00410778
0.00410765
0.00410759
0.0041075
0.00410746
0.00410741
0.00410739
0.00410737
0.00410736
0.00432319
0.00432317
0.00432272
0.00432251
0.00432221
0.00432203
0.00432177
0.00432161
0.00432139
0.00432126
0.00432108
0.00432098
0.00432083
0.00432076
0.00432065
0.00432061
0.00432054
0.00432052
0.0043205
0.00432049
0.00445752
0.0044575
0.00445698
0.00445678
0.00445643
0.00445625
0.00445594
0.00445579
0.00445553
0.0044554
0.00445518
0.00445509
0.00445491
0.00445485
0.00445471
0.00445468
0.00445459
0.00445457
0.00445455
0.00445454
0.00453494
0.00453493
0.00453442
0.00453417
0.00453382
0.0045336
0.0045333
0.00453313
0.00453285
0.00453272
0.00453247
0.00453239
0.00453219
0.00453213
0.00453199
0.00453195
0.00453186
0.00453184
0.00453181
0.00453181
0.00457868
0.00457865
0.00457811
0.00457788
0.00457748
0.0045773
0.00457695
0.0045768
0.0045765
0.00457637
0.00457613
0.00457603
0.00457584
0.00457576
0.00457562
0.00457558
0.00457549
0.00457547
0.00457544
0.00457543
0.00460451
0.00460449
0.00460391
0.0046037
0.00460329
0.0046031
0.00460275
0.00460259
0.00460229
0.00460217
0.0046019
0.00460182
0.0046016
0.00460154
0.00460139
0.00460135
0.00460126
0.00460124
0.00460121
0.0046012
0.0046216
0.00462159
0.00462101
0.00462078
0.00462037
0.00462019
0.00461982
0.00461967
0.00461935
0.00461924
0.00461896
0.00461888
0.00461866
0.00461861
0.00461845
0.00461841
0.00461832
0.0046183
0.00461826
0.00461826
0.00463484
0.00463482
0.00463425
0.00463401
0.00463361
0.00463339
0.00463307
0.00463286
0.0046326
0.00463243
0.00463221
0.00463208
0.00463189
0.00463181
0.00463167
0.00463162
0.00463153
0.00463151
0.00463147
0.00463147
0.00464675
0.00464673
0.00464616
0.00464591
0.00464552
0.0046453
0.00464494
0.00464479
0.00464447
0.00464434
0.00464408
0.00464399
0.00464377
0.00464371
0.00464355
0.00464351
0.00464342
0.00464339
0.00464336
0.00464335
0.00465868
0.00465866
0.00465811
0.00465784
0.00465746
0.00465722
0.00465689
0.0046567
0.0046564
0.00465626
0.00465599
0.0046559
0.00465568
0.00465562
0.00465546
0.00465542
0.00465533
0.0046553
0.00465527
0.00465526
0.00467145
0.00467143
0.00467084
0.0046706
0.00467018
0.00466998
0.00466962
0.00466944
0.00466915
0.00466899
0.00466875
0.00466863
0.00466843
0.00466835
0.0046682
0.00466815
0.00466806
0.00466803
0.004668
0.00466799
0.00468559
0.00468557
0.00468501
0.00468474
0.00468434
0.00468412
0.00468375
0.00468359
0.00468325
0.00468314
0.00468285
0.00468277
0.00468254
0.00468248
0.00468231
0.00468228
0.00468217
0.00468216
0.00468212
0.00468211
0.00470164
0.00470162
0.00470101
0.00470076
0.00470035
0.00470013
0.00469977
0.00469958
0.00469928
0.00469911
0.00469888
0.00469874
0.00469856
0.00469846
0.00469833
0.00469826
0.00469818
0.00469815
0.00469812
0.00469811
0.00471995
0.00471993
0.00471931
0.00471907
0.00471863
0.00471843
0.00471804
0.00471788
0.00471755
0.00471742
0.00471714
0.00471705
0.00471681
0.00471675
0.00471658
0.00471655
0.00471644
0.00471642
0.00471639
0.00471638
0.00474051
0.00474048
0.00473989
0.00473961
0.00473921
0.00473896
0.00473861
0.0047384
0.00473811
0.00473793
0.00473769
0.00473755
0.00473736
0.00473726
0.00473712
0.00473706
0.00473697
0.00473694
0.00473691
0.0047369
0.00476204
0.00476202
0.00476138
0.00476114
0.00476069
0.00476048
0.00476009
0.0047599
0.00475959
0.00475943
0.00475916
0.00475905
0.00475882
0.00475875
0.00475859
0.00475854
0.00475844
0.00475842
0.00475838
0.00475837
0.00478094
0.00478093
0.00478035
0.00478007
0.00477967
0.00477942
0.00477909
0.00477886
0.00477858
0.0047784
0.00477816
0.00477802
0.00477783
0.00477772
0.00477759
0.00477752
0.00477744
0.0047774
0.00477737
0.00477736
0.00478889
0.00478887
0.00478887
0.00478886
0.00478885
0.00478885
0.00478884
0.00478884
0.00478883
0.00478883
0.00478883
0.00478883
0.00478882
0.00478882
0.00478882
0.00478882
0.00478882
0.00478882
0.00478882
0.00478882
)
;

boundaryField
{
    movingWall
    {
        type            calculated;
        value           nonuniform List<scalar> 
20
(
0.00478889
0.00478887
0.00478887
0.00478886
0.00478885
0.00478885
0.00478884
0.00478884
0.00478883
0.00478883
0.00478883
0.00478883
0.00478882
0.00478882
0.00478882
0.00478882
0.00478882
0.00478882
0.00478882
0.00478882
)
;
    }
    fixedWalls
    {
        type            calculated;
        value           nonuniform List<scalar> 
60
(
0.00359558
0.00382946
0.00410967
0.00432319
0.00445752
0.00453494
0.00457868
0.00460451
0.0046216
0.00463484
0.00464675
0.00465868
0.00467145
0.00468559
0.00470164
0.00471995
0.00474051
0.00476204
0.00478094
0.00478889
0.00359553
0.00382761
0.00410736
0.00432049
0.00445454
0.00453181
0.00457543
0.0046012
0.00461826
0.00463147
0.00464335
0.00465526
0.00466799
0.00468211
0.00469811
0.00471638
0.0047369
0.00475837
0.00477736
0.00478882
0.00359558
0.00359557
0.00359557
0.00359556
0.00359556
0.00359555
0.00359555
0.00359554
0.00359555
0.00359554
0.00359554
0.00359553
0.00359554
0.00359553
0.00359553
0.00359553
0.00359553
0.00359553
0.00359553
0.00359553
)
;
    }
    frontAndBack
    {
        type            empty;
    }
}


// ************************************************************************* //
