/*--------------------------------*- C++ -*----------------------------------*\
| =========                 |                                                 |
| \\      /  F ield         | OpenFOAM: The Open Source CFD Toolbox           |
|  \\    /   O peration     | Version:  2506                                  |
|   \\  /    A nd           | Website:  www.openfoam.com                      |
|    \\/     M anipulation  |                                                 |
\*---------------------------------------------------------------------------*/
FoamFile
{
    version     2.0;
    format      ascii;
    arch        "LSB;label=32;scalar=64";
    class       volScalarField;
    location    "4.5";
    object      Uy;
}
// * * * * * * * * * * * * * * * * * * * * * * * * * * * * * * * * * * * * * //

dimensions      [0 1 -1 0 0 0 0];

internalField   nonuniform List<scalar> 
400
(
1.3328e-08
-3.16436e-09
7.52116e-10
-1.78397e-10
4.2513e-11
-1.00494e-11
2.41839e-12
-5.58588e-13
1.43394e-13
-2.71952e-14
1.12378e-14
6.08864e-16
2.13697e-15
1.04637e-15
8.69822e-16
6.64842e-16
5.22617e-16
3.11982e-16
1.69737e-16
9.52147e-17
-1.3326e-08
3.167e-09
-7.50456e-10
1.78608e-10
-4.21339e-11
1.01216e-11
-2.32635e-12
5.96291e-13
-1.12499e-13
4.58241e-14
2.37128e-15
8.75878e-15
4.62088e-15
3.7367e-15
2.60213e-15
1.872e-15
1.29346e-15
8.11516e-16
4.21608e-16
1.26244e-16
1.32978e-08
-3.15731e-09
7.49635e-10
-1.77639e-10
4.23956e-11
-9.92178e-12
2.44784e-12
-5.21212e-13
1.64207e-13
-1.12151e-14
2.22155e-14
8.73365e-15
8.14094e-15
5.499e-15
4.03923e-15
2.83728e-15
2.00794e-15
1.33641e-15
6.69429e-16
1.47484e-16
-1.32671e-08
3.1482e-09
-7.46748e-10
1.77341e-10
-4.19239e-11
1.0064e-11
-2.30099e-12
6.08026e-13
-9.96726e-14
5.5651e-14
1.00555e-14
1.45917e-14
8.98607e-15
7.02465e-15
5.08094e-15
3.7767e-15
2.61403e-15
1.62855e-15
9.14258e-16
3.0121e-16
1.32277e-08
-3.13759e-09
7.44429e-10
-1.76463e-10
4.19661e-11
-9.86361e-12
2.41287e-12
-5.15783e-13
1.65198e-13
-7.03788e-15
2.57382e-14
1.17885e-14
1.05736e-14
7.5897e-15
5.83293e-15
4.25182e-15
2.87821e-15
1.79485e-15
1.10145e-15
3.92219e-16
-1.31914e-08
3.12846e-09
-7.42038e-10
1.76066e-10
-4.16787e-11
9.95541e-12
-2.30188e-12
5.93963e-13
-1.02735e-13
5.41505e-14
1.01593e-14
1.51332e-14
9.82322e-15
7.95179e-15
5.94042e-15
4.36427e-15
3.08673e-15
1.96702e-15
1.10919e-15
4.30146e-16
1.31542e-08
-3.1194e-09
7.39976e-10
-1.75441e-10
4.16615e-11
-9.82948e-12
2.37686e-12
-5.24708e-13
1.5656e-13
-1.11973e-14
2.33112e-14
1.08158e-14
1.01701e-14
7.33557e-15
5.61785e-15
4.20155e-15
3.04609e-15
1.97496e-15
1.03968e-15
3.9192e-16
-1.31221e-08
3.11188e-09
-7.38112e-10
1.7509e-10
-4.1485e-11
9.87707e-12
-2.30789e-12
5.77493e-13
-1.11334e-13
4.76465e-14
5.97738e-15
1.25165e-14
8.07695e-15
6.66211e-15
4.95093e-15
3.83052e-15
2.63752e-15
1.68665e-15
9.82495e-16
3.52705e-16
1.30918e-08
-3.10482e-09
7.36489e-10
-1.74653e-10
4.14471e-11
-9.80517e-12
2.34954e-12
-5.35497e-13
1.45929e-13
-1.85866e-14
1.77095e-14
6.69953e-15
7.19392e-15
5.39321e-15
4.30018e-15
3.21798e-15
2.19588e-15
1.37938e-15
8.10738e-16
2.95188e-16
-1.3066e-08
3.09892e-09
-7.35068e-10
1.74361e-10
-4.13392e-11
9.82101e-12
-2.31449e-12
5.62621e-13
-1.2121e-13
3.95127e-14
-9.46642e-17
7.78867e-15
4.53541e-15
4.16619e-15
3.18413e-15
2.40522e-15
1.80888e-15
1.14788e-15
6.15849e-16
2.43552e-16
1.30425e-08
-3.09351e-09
7.3381e-10
-1.74051e-10
4.12884e-11
-9.78813e-12
2.32756e-12
-5.4622e-13
1.35243e-13
-2.65703e-14
1.14113e-14
1.84714e-15
3.50255e-15
2.52684e-15
2.15694e-15
1.60827e-15
1.22869e-15
7.34596e-16
4.83899e-16
2.35958e-16
-1.30217e-08
3.08876e-09
-7.3269e-10
1.73792e-10
-4.12275e-11
9.77594e-12
-2.32151e-12
5.49148e-13
-1.30827e-13
3.13091e-14
-6.55544e-15
2.79323e-15
8.04987e-16
1.32754e-15
1.1556e-15
9.31789e-16
6.51273e-16
4.39734e-16
3.78967e-16
2.19939e-16
1.30029e-08
-3.08442e-09
7.31652e-10
-1.73567e-10
4.11567e-11
-9.77635e-12
2.30771e-12
-5.56208e-13
1.25524e-13
-3.42917e-14
5.10729e-15
-3.0369e-15
-5.08525e-17
-1.64382e-16
2.43102e-16
2.95218e-16
2.16179e-16
1.26063e-16
9.33437e-17
1.06273e-16
-1.29852e-08
3.08027e-09
-7.30703e-10
1.73305e-10
-4.11366e-11
9.73376e-12
-2.32978e-12
5.36138e-13
-1.39521e-13
2.41891e-14
-1.19579e-14
-1.2468e-15
-2.2307e-15
-1.03267e-15
-6.36437e-16
-2.31899e-16
-1.54449e-16
-2.0733e-16
-1.23208e-16
2.83246e-17
1.29693e-08
-3.07655e-09
7.29761e-10
-1.73151e-10
4.10302e-11
-9.77053e-12
2.28704e-12
-5.66185e-13
1.16834e-13
-4.02256e-14
8.147e-16
-6.11941e-15
-2.61045e-15
-2.0188e-15
-1.17506e-15
-7.07496e-16
-4.58596e-16
-4.09767e-16
-1.66298e-16
4.29782e-17
-1.2953e-08
3.07265e-09
-7.28939e-10
1.72845e-10
-4.10652e-11
9.68881e-12
-2.33899e-12
5.24942e-13
-1.46143e-13
1.93523e-14
-1.51902e-14
-3.54851e-15
-4.02504e-15
-2.25361e-15
-1.58137e-15
-1.06897e-15
-7.53402e-16
-5.42714e-16
-3.09384e-16
-3.91932e-17
1.29395e-08
-3.06946e-09
7.27991e-10
-1.72793e-10
4.08928e-11
-9.76942e-12
2.26752e-12
-5.72244e-13
1.11914e-13
-4.28048e-14
-8.00853e-16
-7.17072e-15
-3.32188e-15
-2.68638e-15
-1.69211e-15
-1.05967e-15
-7.14058e-16
-5.74298e-16
-3.99365e-16
-1.39171e-16
-1.2924e-08
3.0657e-09
-7.27511e-10
1.72393e-10
-4.10317e-11
9.65169e-12
-2.34351e-12
5.21966e-13
-1.46155e-13
2.01686e-14
-1.4409e-14
-3.14143e-15
-3.78027e-15
-2.14909e-15
-1.45765e-15
-8.70446e-16
-6.13351e-16
-4.63913e-16
-2.70751e-16
-1.13262e-16
1.29145e-08
-3.06382e-09
7.25962e-10
-1.72381e-10
4.07104e-11
-9.72125e-12
2.259e-12
-5.60668e-13
1.16416e-13
-3.78576e-14
2.14273e-15
-5.07738e-15
-1.88747e-15
-1.53205e-15
-8.83212e-16
-6.52161e-16
-4.66631e-16
-3.04863e-16
-1.28813e-16
-6.23617e-17
-1.2902e-08
3.06037e-09
-7.26689e-10
1.72335e-10
-4.09824e-11
9.70189e-12
-2.32153e-12
5.42152e-13
-1.34816e-13
2.83194e-14
-9.23764e-15
5.38351e-16
-1.26348e-15
-4.5689e-16
-3.88549e-16
-2.35464e-16
-1.37923e-16
-9.05688e-17
-4.71032e-17
-4.42045e-17
)
;

boundaryField
{
    movingWall
    {
        type            calculated;
        value           uniform -0;
    }
    fixedWalls
    {
        type            calculated;
        value           uniform -0;
    }
    frontAndBack
    {
        type            empty;
    }
}


// ************************************************************************* //
