/*--------------------------------*- C++ -*----------------------------------*\
| =========                 |                                                 |
| \\      /  F ield         | OpenFOAM: The Open Source CFD Toolbox           |
|  \\    /   O peration     | Version:  2506                                  |
|   \\  /    A nd           | Website:  www.openfoam.com                      |
|    \\/     M anipulation  |                                                 |
\*---------------------------------------------------------------------------*/
FoamFile
{
    version     2.0;
    format      ascii;
    arch        "LSB;label=32;scalar=64";
    class       volVectorField;
    location    "4.5";
    object      vorticityField;
}
// * * * * * * * * * * * * * * * * * * * * * * * * * * * * * * * * * * * * * //

dimensions      [0 0 -1 0 0 0 0];

internalField   nonuniform List<vector> 
400
(
(0 -0 1.015e-06)
(0 -0 -1.25821e-06)
(0 -0 2.9885e-07)
(0 -0 -7.11787e-08)
(0 -0 1.68588e-08)
(0 -0 -4.05348e-09)
(0 -0 9.40675e-10)
(0 -0 -2.40076e-10)
(0 -0 4.67154e-11)
(0 -0 -1.83927e-11)
(0 -0 -6.07727e-13)
(0 -0 -3.34954e-12)
(0 -0 -1.63676e-12)
(0 -0 -1.26513e-12)
(0 -0 -7.97094e-13)
(0 -0 -4.41296e-13)
(0 -0 -3.06337e-13)
(0 -0 -1.43708e-13)
(0 -0 -7.58869e-14)
(0 -0 -2.64952e-14)
(0 -0 -1.00985e-06)
(0 -0 1.25731e-06)
(0 -0 -2.98705e-07)
(0 -0 7.09617e-08)
(0 -0 -1.68585e-08)
(0 -0 4.00477e-09)
(0 -0 -9.51633e-10)
(0 -0 2.25912e-10)
(0 -0 -5.3827e-11)
(0 -0 1.26796e-11)
(0 -0 -3.13733e-12)
(0 -0 6.31536e-13)
(0 -0 -2.58263e-13)
(0 -0 -1.21399e-14)
(0 -0 -7.80505e-14)
(0 -0 -1.30867e-13)
(0 -0 -5.18379e-14)
(0 -0 -8.71852e-14)
(0 -0 -4.14221e-14)
(0 -0 -5.47852e-14)
(0 -0 1.00877e-06)
(0 -0 -1.25383e-06)
(0 -0 2.97568e-07)
(0 -0 -7.06182e-08)
(0 -0 1.67586e-08)
(0 -0 -3.97741e-09)
(0 -0 9.43716e-10)
(0 -0 -2.24135e-10)
(0 -0 5.30597e-11)
(0 -0 -1.27354e-11)
(0 -0 2.91645e-12)
(0 -0 -7.84036e-13)
(0 -0 5.60054e-14)
(0 -0 -2.20435e-13)
(0 -0 -1.57752e-13)
(0 -0 -1.48919e-13)
(0 -0 -9.58772e-14)
(0 -0 -1.06747e-13)
(0 -0 -1.45997e-13)
(0 -0 -1.08796e-13)
(0 -0 -1.01111e-06)
(0 -0 1.25192e-06)
(0 -0 -2.97047e-07)
(0 -0 7.04777e-08)
(0 -0 -1.67218e-08)
(0 -0 3.96736e-09)
(0 -0 -9.41392e-10)
(0 -0 2.23222e-10)
(0 -0 -5.31504e-11)
(0 -0 1.24365e-11)
(0 -0 -3.13014e-12)
(0 -0 5.43576e-13)
(0 -0 -2.68817e-13)
(0 -0 -9.2357e-14)
(0 -0 -8.08494e-14)
(0 -0 -1.11165e-13)
(0 -0 -1.335e-13)
(0 -0 -1.42872e-13)
(0 -0 -1.32734e-13)
(0 -0 -1.21547e-13)
(0 -0 1.00998e-06)
(0 -0 -1.24856e-06)
(0 -0 2.96203e-07)
(0 -0 -7.02668e-08)
(0 -0 1.66688e-08)
(0 -0 -3.95449e-09)
(0 -0 9.37846e-10)
(0 -0 -2.22789e-10)
(0 -0 5.2555e-11)
(0 -0 -1.28076e-11)
(0 -0 2.7229e-12)
(0 -0 -9.20147e-13)
(0 -0 -1.33082e-14)
(0 -0 -1.48807e-13)
(0 -0 -1.16948e-13)
(0 -0 -1.59946e-13)
(0 -0 -2.18592e-13)
(0 -0 -1.23466e-13)
(0 -0 -8.60531e-14)
(0 -0 -1.22262e-13)
(0 -0 -1.00845e-06)
(0 -0 1.24538e-06)
(0 -0 -2.95426e-07)
(0 -0 7.00762e-08)
(0 -0 -1.66229e-08)
(0 -0 3.94267e-09)
(0 -0 -9.35575e-10)
(0 -0 2.21649e-10)
(0 -0 -5.28699e-11)
(0 -0 1.22652e-11)
(0 -0 -3.197e-12)
(0 -0 5.356e-13)
(0 -0 -3.38669e-13)
(0 -0 -6.30191e-14)
(0 -0 -1.96122e-13)
(0 -0 -1.49844e-13)
(0 -0 -1.31304e-13)
(0 -0 -1.43544e-13)
(0 -0 -1.53688e-13)
(0 -0 -1.53933e-13)
(0 -0 1.00587e-06)
(0 -0 -1.24191e-06)
(0 -0 2.94591e-07)
(0 -0 -6.9876e-08)
(0 -0 1.6574e-08)
(0 -0 -3.93158e-09)
(0 -0 9.32348e-10)
(0 -0 -2.2138e-10)
(0 -0 5.23269e-11)
(0 -0 -1.25117e-11)
(0 -0 2.87894e-12)
(0 -0 -8.80435e-13)
(0 -0 5.85492e-14)
(0 -0 -2.11278e-13)
(0 -0 -1.23666e-13)
(0 -0 -1.21651e-13)
(0 -0 -1.95554e-13)
(0 -0 -2.0064e-13)
(0 -0 -1.58304e-13)
(0 -0 -1.4316e-13)
(0 -0 -1.00335e-06)
(0 -0 1.23886e-06)
(0 -0 -2.93866e-07)
(0 -0 6.9703e-08)
(0 -0 -1.65334e-08)
(0 -0 3.92148e-09)
(0 -0 -9.3031e-10)
(0 -0 2.20496e-10)
(0 -0 -5.24967e-11)
(0 -0 1.22461e-11)
(0 -0 -3.16064e-12)
(0 -0 5.35217e-13)
(0 -0 -3.68599e-13)
(0 -0 -2.04181e-13)
(0 -0 -2.01844e-13)
(0 -0 -1.50026e-13)
(0 -0 -1.60177e-13)
(0 -0 -1.38398e-13)
(0 -0 -1.33394e-13)
(0 -0 -1.3352e-13)
(0 -0 1.00067e-06)
(0 -0 -1.23592e-06)
(0 -0 2.93169e-07)
(0 -0 -6.95387e-08)
(0 -0 1.64942e-08)
(0 -0 -3.91255e-09)
(0 -0 9.27862e-10)
(0 -0 -2.20307e-10)
(0 -0 5.20434e-11)
(0 -0 -1.2578e-11)
(0 -0 2.77256e-12)
(0 -0 -8.34718e-13)
(0 -0 4.89397e-15)
(0 -0 -2.08059e-13)
(0 -0 -1.36208e-13)
(0 -0 -2.1043e-13)
(0 -0 -2.38071e-13)
(0 -0 -1.38515e-13)
(0 -0 -5.42086e-14)
(0 -0 -1.37698e-13)
(0 -0 -9.98288e-07)
(0 -0 1.2334e-06)
(0 -0 -2.92577e-07)
(0 -0 6.93989e-08)
(0 -0 -1.64616e-08)
(0 -0 3.90456e-09)
(0 -0 -9.26381e-10)
(0 -0 2.19599e-10)
(0 -0 -5.22566e-11)
(0 -0 1.21929e-11)
(0 -0 -3.06398e-12)
(0 -0 4.90112e-13)
(0 -0 -3.08038e-13)
(0 -0 -5.3813e-14)
(0 -0 -1.21886e-13)
(0 -0 -1.10419e-13)
(0 -0 -7.15245e-14)
(0 -0 -1.19304e-13)
(0 -0 -1.44643e-13)
(0 -0 -8.59401e-14)
(0 -0 9.96059e-07)
(0 -0 -1.23109e-06)
(0 -0 2.92032e-07)
(0 -0 -6.92713e-08)
(0 -0 1.64312e-08)
(0 -0 -3.8979e-09)
(0 -0 9.24408e-10)
(0 -0 -2.19503e-10)
(0 -0 5.1965e-11)
(0 -0 -1.23831e-11)
(0 -0 2.84175e-12)
(0 -0 -8.17984e-13)
(0 -0 1.37596e-14)
(0 -0 -1.61666e-13)
(0 -0 -1.46067e-13)
(0 -0 -1.1993e-13)
(0 -0 -8.73677e-14)
(0 -0 -1.01584e-13)
(0 -0 -4.98637e-14)
(0 -0 -7.19858e-14)
(0 -0 -9.94118e-07)
(0 -0 1.22906e-06)
(0 -0 -2.91556e-07)
(0 -0 6.9159e-08)
(0 -0 -1.64053e-08)
(0 -0 3.89144e-09)
(0 -0 -9.23248e-10)
(0 -0 2.18905e-10)
(0 -0 -5.21091e-11)
(0 -0 1.22374e-11)
(0 -0 -2.98711e-12)
(0 -0 6.81832e-13)
(0 -0 -2.00779e-13)
(0 -0 3.50608e-14)
(0 -0 -3.95749e-14)
(0 -0 -5.04323e-14)
(0 -0 5.00462e-15)
(0 -0 -1.25457e-16)
(0 -0 3.22306e-14)
(0 -0 -5.98906e-14)
(0 -0 9.92431e-07)
(0 -0 -1.22724e-06)
(0 -0 2.91127e-07)
(0 -0 -6.90583e-08)
(0 -0 1.63814e-08)
(0 -0 -3.88596e-09)
(0 -0 9.21743e-10)
(0 -0 -2.1876e-10)
(0 -0 5.1758e-11)
(0 -0 -1.25296e-11)
(0 -0 2.80022e-12)
(0 -0 -7.32655e-13)
(0 -0 1.51726e-13)
(0 -0 -7.90247e-14)
(0 -0 -3.53552e-14)
(0 -0 -5.69024e-14)
(0 -0 -7.11256e-14)
(0 -0 -1.22835e-14)
(0 -0 -1.97903e-15)
(0 -0 -1.99617e-14)
(0 -0 -9.90874e-07)
(0 -0 1.22552e-06)
(0 -0 -2.90722e-07)
(0 -0 6.89627e-08)
(0 -0 -1.63589e-08)
(0 -0 3.88047e-09)
(0 -0 -9.20548e-10)
(0 -0 2.18348e-10)
(0 -0 -5.17641e-11)
(0 -0 1.23227e-11)
(0 -0 -2.92306e-12)
(0 -0 7.55875e-13)
(0 -0 -1.41217e-13)
(0 -0 2.39007e-14)
(0 -0 -1.23805e-15)
(0 -0 2.10937e-14)
(0 -0 -5.17532e-14)
(0 -0 -2.3981e-14)
(0 -0 -3.06446e-14)
(0 -0 9.48838e-15)
(0 -0 9.8964e-07)
(0 -0 -1.22402e-06)
(0 -0 2.90367e-07)
(0 -0 -6.88786e-08)
(0 -0 1.63389e-08)
(0 -0 -3.87575e-09)
(0 -0 9.19459e-10)
(0 -0 -2.17943e-10)
(0 -0 5.1837e-11)
(0 -0 -1.21711e-11)
(0 -0 2.94984e-12)
(0 -0 -6.9488e-13)
(0 -0 1.39011e-13)
(0 -0 -1.9092e-14)
(0 -0 4.98151e-14)
(0 -0 -3.67735e-14)
(0 -0 2.97729e-14)
(0 -0 5.63349e-14)
(0 -0 9.94846e-14)
(0 -0 3.9437e-14)
(0 -0 -9.88261e-07)
(0 -0 1.22245e-06)
(0 -0 -2.89994e-07)
(0 -0 6.87898e-08)
(0 -0 -1.63179e-08)
(0 -0 3.87088e-09)
(0 -0 -9.18122e-10)
(0 -0 2.17821e-10)
(0 -0 -5.16703e-11)
(0 -0 1.22821e-11)
(0 -0 -2.80508e-12)
(0 -0 7.64154e-13)
(0 -0 -1.4156e-13)
(0 -0 5.46316e-14)
(0 -0 1.00436e-14)
(0 -0 1.4816e-15)
(0 -0 2.5521e-14)
(0 -0 1.72967e-14)
(0 -0 -3.85801e-15)
(0 -0 3.48577e-14)
(0 -0 9.87517e-07)
(0 -0 -1.22124e-06)
(0 -0 2.89706e-07)
(0 -0 -6.8721e-08)
(0 -0 1.63014e-08)
(0 -0 -3.86686e-09)
(0 -0 9.17305e-10)
(0 -0 -2.17593e-10)
(0 -0 5.16158e-11)
(0 -0 -1.2193e-11)
(0 -0 2.91289e-12)
(0 -0 -7.39994e-13)
(0 -0 1.50278e-13)
(0 -0 -1.08074e-13)
(0 -0 4.13829e-17)
(0 -0 4.35953e-14)
(0 -0 -3.27783e-14)
(0 -0 -7.69509e-14)
(0 -0 1.64077e-14)
(0 -0 5.38535e-14)
(0 -0 -9.8593e-07)
(0 -0 1.21969e-06)
(0 -0 -2.89336e-07)
(0 -0 6.86329e-08)
(0 -0 -1.62801e-08)
(0 -0 3.86188e-09)
(0 -0 -9.16062e-10)
(0 -0 2.17377e-10)
(0 -0 -5.14537e-11)
(0 -0 1.23344e-11)
(0 -0 -2.92732e-12)
(0 -0 6.83404e-13)
(0 -0 -1.17606e-13)
(0 -0 1.23842e-13)
(0 -0 1.94439e-14)
(0 -0 5.73248e-14)
(0 -0 1.35483e-14)
(0 -0 3.426e-14)
(0 -0 6.21702e-14)
(0 -0 3.84013e-14)
(0 -0 9.87232e-07)
(0 -0 -1.22017e-06)
(0 -0 2.89668e-07)
(0 -0 -6.87631e-08)
(0 -0 1.63235e-08)
(0 -0 -3.87504e-09)
(0 -0 9.19907e-10)
(0 -0 -2.18433e-10)
(0 -0 5.18474e-11)
(0 -0 -1.23489e-11)
(0 -0 2.89855e-12)
(0 -0 -6.7407e-13)
(0 -0 1.91902e-13)
(0 -0 -7.99437e-15)
(0 -0 3.37792e-14)
(0 -0 -3.9657e-14)
(0 -0 -4.65854e-14)
(0 -0 3.37818e-14)
(0 -0 -2.85489e-15)
(0 -0 -7.98758e-15)
(0 -0 -9.86865e-07)
(0 -0 1.21891e-06)
(0 -0 -2.89388e-07)
(0 -0 6.88276e-08)
(0 -0 -1.63211e-08)
(0 -0 3.90447e-09)
(0 -0 -9.16055e-10)
(0 -0 2.26477e-10)
(0 -0 -4.87541e-11)
(0 -0 1.50244e-11)
(0 -0 -1.34154e-12)
(0 -0 1.74609e-12)
(0 -0 4.96787e-13)
(0 -0 4.94069e-13)
(0 -0 2.66088e-13)
(0 -0 1.87693e-13)
(0 -0 1.50015e-13)
(0 -0 6.32921e-14)
(0 -0 3.17415e-14)
(0 -0 3.62358e-14)
)
;

boundaryField
{
    movingWall
    {
        type            calculated;
        value           nonuniform List<vector> 
20
(
(0 -0 -9.90314e-07)
(0 -0 1.22236e-06)
(0 -0 -2.90818e-07)
(0 -0 6.95004e-08)
(0 -0 -1.6494e-08)
(0 -0 3.9919e-09)
(0 -0 -9.26809e-10)
(0 -0 2.40032e-10)
(0 -0 -4.63651e-11)
(0 -0 1.85086e-11)
(0 -0 4.19333e-13)
(0 -0 3.01786e-12)
(0 -0 1.32156e-12)
(0 -0 1.02008e-12)
(0 -0 6.43867e-13)
(0 -0 4.24743e-13)
(0 -0 2.80943e-13)
(0 -0 1.86718e-13)
(0 -0 9.34543e-14)
(0 -0 5.35397e-14)
)
;
    }
    fixedWalls
    {
        type            calculated;
        value           nonuniform List<vector> 
60
(
(0 -0 5.32984e-06)
(0 -0 -5.32435e-06)
(0 -0 5.31385e-06)
(0 -0 -5.30606e-06)
(0 -0 5.29204e-06)
(0 -0 -5.27871e-06)
(0 -0 5.26406e-06)
(0 -0 -5.25117e-06)
(0 -0 5.2387e-06)
(0 -0 -5.22799e-06)
(0 -0 5.21815e-06)
(0 -0 -5.20952e-06)
(0 -0 5.20176e-06)
(0 -0 -5.19445e-06)
(0 -0 5.18809e-06)
(0 -0 -5.18143e-06)
(0 -0 5.1763e-06)
(0 -0 -5.16971e-06)
(0 -0 5.16796e-06)
(0 -0 -5.16349e-06)
(0 -0 -3.80859e-14)
(0 -0 -5.04975e-14)
(0 -0 -8.60985e-14)
(0 -0 -1.20484e-13)
(0 -0 -1.29783e-13)
(0 -0 -1.72058e-13)
(0 -0 -1.56768e-13)
(0 -0 -1.41082e-13)
(0 -0 -1.4518e-13)
(0 -0 -9.74208e-14)
(0 -0 -9.43833e-14)
(0 -0 -8.79756e-14)
(0 -0 -4.25092e-14)
(0 -0 -1.13298e-14)
(0 -0 9.91376e-15)
(0 -0 1.56773e-14)
(0 -0 5.56683e-14)
(0 -0 4.53047e-14)
(0 -0 -2.16036e-15)
(0 -0 4.47869e-14)
(0 -0 1.02416e-06)
(0 -0 -1.26297e-06)
(0 -0 3.0062e-07)
(0 -0 -7.2009e-08)
(0 -0 1.70315e-08)
(0 -0 -4.16449e-09)
(0 -0 9.44281e-10)
(0 -0 -2.60185e-10)
(0 -0 4.04383e-11)
(0 -0 -2.48508e-11)
(0 -0 -4.36943e-12)
(0 -0 -6.10593e-12)
(0 -0 -3.50896e-12)
(0 -0 -2.48039e-12)
(0 -0 -1.68128e-12)
(0 -0 -9.67308e-13)
(0 -0 -6.12602e-13)
(0 -0 -2.57333e-13)
(0 -0 -1.54904e-13)
(0 -0 -7.09041e-14)
)
;
    }
    frontAndBack
    {
        type            empty;
    }
}


// ************************************************************************* //
