/*--------------------------------*- C++ -*----------------------------------*\
| =========                 |                                                 |
| \\      /  F ield         | OpenFOAM: The Open Source CFD Toolbox           |
|  \\    /   O peration     | Version:  2506                                  |
|   \\  /    A nd           | Website:  www.openfoam.com                      |
|    \\/     M anipulation  |                                                 |
\*---------------------------------------------------------------------------*/
FoamFile
{
    version     2.0;
    format      ascii;
    arch        "LSB;label=32;scalar=64";
    class       volVectorField;
    location    "4.5";
    object      wallShearStress;
}
// * * * * * * * * * * * * * * * * * * * * * * * * * * * * * * * * * * * * * //

dimensions      [0 2 -2 0 0 0 0];

internalField   uniform (0 0 0);

boundaryField
{
    movingWall
    {
        type            calculated;
        value           uniform (0 0 0);
    }
    fixedWalls
    {
        type            calculated;
        value           nonuniform List<vector> 
60
(
(1.05266e-13 -5.33257e-11 0)
(-1.96867e-13 5.33644e-11 0)
(4.65555e-13 -5.3244e-11 0)
(-5.04828e-13 5.30762e-11 0)
(5.1819e-13 -5.2901e-11 0)
(-4.55364e-13 5.27438e-11 0)
(3.98411e-13 -5.25927e-11 0)
(-3.20132e-13 5.24651e-11 0)
(2.65293e-13 -5.23476e-11 0)
(-2.06284e-13 5.22484e-11 0)
(1.73335e-13 -5.21583e-11 0)
(-1.37713e-13 5.20787e-11 0)
(1.24393e-13 -5.2006e-11 0)
(-1.02902e-13 5.19368e-11 0)
(1.00947e-13 -5.18736e-11 0)
(-8.09463e-14 5.18098e-11 0)
(8.67957e-14 -5.17526e-11 0)
(-5.0082e-14 5.16951e-11 0)
(7.69906e-14 -5.16363e-11 0)
(7.37141e-14 5.15807e-11 0)
(-7.39758e-19 -3.80859e-19 0)
(1.14939e-18 -5.04975e-19 0)
(-7.08763e-19 -3.18884e-19 0)
(-7.55276e-19 -1.20484e-18 0)
(-6.78076e-19 -1.83993e-18 0)
(1.99323e-22 -1.72058e-18 0)
(5.16272e-20 -1.56768e-18 0)
(6.44882e-20 -1.41082e-18 0)
(-5.1935e-19 -9.09702e-19 0)
(-5.52632e-19 -9.74208e-19 0)
(-5.76377e-19 -9.43833e-19 0)
(-5.05662e-19 -8.79756e-19 0)
(1.27743e-19 -4.25092e-19 0)
(-5.49922e-19 -1.13298e-19 0)
(4.50119e-20 -4.42963e-19 0)
(-4.70686e-19 1.56773e-19 0)
(4.93791e-20 5.56683e-19 0)
(-5.12059e-20 4.53047e-19 0)
(-4.60382e-20 5.20498e-19 0)
(-6.63163e-19 -9.42325e-20 0)
(-1.00857e-11 -7.10868e-11 0)
(1.25221e-11 1.68862e-11 0)
(-2.96573e-12 -4.0185e-12 0)
(6.99116e-13 9.54495e-13 0)
(-1.6638e-13 -2.28226e-13 0)
(3.85443e-14 5.39327e-14 0)
(-9.53874e-15 -1.31021e-14 0)
(1.94815e-15 2.99233e-15 0)
(-6.58402e-16 -8.00006e-16 0)
(1.58051e-17 1.36006e-16 0)
(-9.93024e-17 -7.07769e-17 0)
(-4.28576e-17 -9.39108e-18 0)
(-3.59646e-17 -1.60954e-17 0)
(-2.22696e-17 -8.65254e-18 0)
(-1.60498e-17 -6.98815e-18 0)
(-8.97867e-18 -5.35283e-18 0)
(-5.4203e-18 -4.0522e-18 0)
(-1.86757e-18 -2.38671e-18 0)
(-1.1155e-18 -1.08597e-18 0)
(-1.79137e-19 -8.69213e-19 0)
)
;
    }
    frontAndBack
    {
        type            empty;
    }
}


// ************************************************************************* //
