/*--------------------------------*- C++ -*----------------------------------*\
| =========                 |                                                 |
| \\      /  F ield         | OpenFOAM: The Open Source CFD Toolbox           |
|  \\    /   O peration     | Version:  2506                                  |
|   \\  /    A nd           | Website:  www.openfoam.com                      |
|    \\/     M anipulation  |                                                 |
\*---------------------------------------------------------------------------*/
FoamFile
{
    version     2.0;
    format      ascii;
    arch        "LSB;label=32;scalar=64";
    class       volScalarField;
    location    "4.5";
    object      yPlus;
}
// * * * * * * * * * * * * * * * * * * * * * * * * * * * * * * * * * * * * * //

dimensions      [0 0 0 0 0 0 0];

internalField   uniform 0;

boundaryField
{
    movingWall
    {
        type            calculated;
        value           nonuniform List<scalar> 
20
(
0.00179596
0.000874699
0.000426236
0.000207576
0.000101226
4.9262e-05
2.40919e-05
1.16702e-05
5.81803e-06
2.82795e-06
1.74757e-06
1.1808e-06
9.70914e-07
7.70684e-07
6.32879e-07
5.06599e-07
4.1239e-07
3.36612e-07
2.38215e-07
1.72843e-07
)
;
    }
    fixedWalls
    {
        type            calculated;
        value           nonuniform List<scalar> 
60
(
0.00182538
0.00182524
0.00182332
0.00182122
0.00181851
0.00181601
0.00181345
0.00181123
0.00180914
0.00180735
0.00180572
0.00180428
0.00180298
0.00180175
0.00180065
0.00179951
0.00179857
0.0017975
0.00179684
0.00179596
1.91219e-07
2.52697e-07
2.14826e-07
2.83293e-07
3.19229e-07
3.27927e-07
3.13018e-07
2.96945e-07
2.80792e-07
2.58681e-07
2.55329e-07
2.48179e-07
1.62998e-07
1.69247e-07
1.03656e-07
1.71564e-07
1.86528e-07
1.68272e-07
1.24862e-07
1.72843e-07
0.00182538
0.000889437
0.000433628
0.000211197
0.000103097
5.01419e-05
2.45887e-05
1.188e-05
6.05945e-06
3.15518e-06
2.29748e-06
1.80304e-06
1.51123e-06
1.22234e-06
1.02456e-06
7.78526e-07
6.19475e-07
3.98991e-07
3.05706e-07
1.91219e-07
)
;
    }
    frontAndBack
    {
        type            empty;
    }
}


// ************************************************************************* //
