/*--------------------------------*- C++ -*----------------------------------*\
| =========                 |                                                 |
| \\      /  F ield         | OpenFOAM: The Open Source CFD Toolbox           |
|  \\    /   O peration     | Version:  2506                                  |
|   \\  /    A nd           | Website:  www.openfoam.com                      |
|    \\/     M anipulation  |                                                 |
\*---------------------------------------------------------------------------*/
FoamFile
{
    version     2.0;
    format      ascii;
    arch        "LSB;label=32;scalar=64";
    class       volVectorField;
    location    "4.25";
    object      diffU;
}
// * * * * * * * * * * * * * * * * * * * * * * * * * * * * * * * * * * * * * //

dimensions      [0 1 -1 0 0 0 0];

internalField   nonuniform List<vector> 
400
(
(0 0 0)
(7.68118e-11 -3.54793e-08 0)
(3.57583e-11 -2.70543e-08 0)
(5.28333e-11 -2.90556e-08 0)
(4.61213e-11 -2.85805e-08 0)
(4.8062e-11 -2.86935e-08 0)
(4.72629e-11 -2.86667e-08 0)
(4.74205e-11 -2.86731e-08 0)
(4.73173e-11 -2.86715e-08 0)
(4.73145e-11 -2.86719e-08 0)
(4.72925e-11 -2.86718e-08 0)
(4.72832e-11 -2.86719e-08 0)
(4.72752e-11 -2.86718e-08 0)
(4.72697e-11 -2.86719e-08 0)
(4.72659e-11 -2.86719e-08 0)
(4.72627e-11 -2.86719e-08 0)
(4.72611e-11 -2.86719e-08 0)
(4.72599e-11 -2.86719e-08 0)
(4.7259e-11 -2.86719e-08 0)
(4.72588e-11 -2.86719e-08 0)
(1.05943e-10 -5.73309e-08 0)
(3.5292e-11 -2.18641e-08 0)
(5.16076e-11 -3.02849e-08 0)
(4.67018e-11 -2.82882e-08 0)
(4.76681e-11 -2.87624e-08 0)
(4.73889e-11 -2.86501e-08 0)
(4.73863e-11 -2.86769e-08 0)
(4.73459e-11 -2.86706e-08 0)
(4.73194e-11 -2.86721e-08 0)
(4.73018e-11 -2.86718e-08 0)
(4.72887e-11 -2.86718e-08 0)
(4.72798e-11 -2.86718e-08 0)
(4.7273e-11 -2.86718e-08 0)
(4.72683e-11 -2.86718e-08 0)
(4.72652e-11 -2.86718e-08 0)
(4.72626e-11 -2.86718e-08 0)
(4.72605e-11 -2.86719e-08 0)
(4.72598e-11 -2.86719e-08 0)
(4.72589e-11 -2.86719e-08 0)
(4.72586e-11 -2.86719e-08 0)
(-7.28952e-11 -7.84541e-11 0)
(6.9442e-11 -3.54568e-08 0)
(3.78679e-11 -2.70613e-08 0)
(4.89481e-11 -2.90534e-08 0)
(4.67433e-11 -2.85809e-08 0)
(4.74624e-11 -2.86932e-08 0)
(4.72841e-11 -2.86666e-08 0)
(4.73205e-11 -2.8673e-08 0)
(4.72965e-11 -2.86715e-08 0)
(4.72901e-11 -2.86719e-08 0)
(4.72808e-11 -2.86718e-08 0)
(4.72749e-11 -2.86718e-08 0)
(4.72701e-11 -2.86718e-08 0)
(4.72665e-11 -2.86718e-08 0)
(4.72639e-11 -2.86718e-08 0)
(4.72618e-11 -2.86718e-08 0)
(4.72603e-11 -2.86718e-08 0)
(4.72594e-11 -2.86719e-08 0)
(4.72589e-11 -2.86719e-08 0)
(4.72584e-11 -2.86719e-08 0)
(1.40525e-10 -5.72042e-08 0)
(3.11013e-11 -2.19053e-08 0)
(5.3652e-11 -3.02765e-08 0)
(4.59806e-11 -2.8291e-08 0)
(4.75154e-11 -2.87619e-08 0)
(4.71647e-11 -2.86503e-08 0)
(4.72841e-11 -2.86768e-08 0)
(4.72724e-11 -2.86706e-08 0)
(4.72781e-11 -2.86721e-08 0)
(4.7275e-11 -2.86717e-08 0)
(4.7272e-11 -2.86718e-08 0)
(4.72691e-11 -2.86718e-08 0)
(4.72663e-11 -2.86718e-08 0)
(4.7264e-11 -2.86718e-08 0)
(4.72624e-11 -2.86718e-08 0)
(4.72613e-11 -2.86718e-08 0)
(4.72602e-11 -2.86718e-08 0)
(4.72594e-11 -2.86718e-08 0)
(4.7259e-11 -2.86719e-08 0)
(4.72586e-11 -2.86719e-08 0)
(-1.50069e-11 -2.07512e-10 0)
(5.58865e-11 -3.54203e-08 0)
(4.31042e-11 -2.70711e-08 0)
(4.76525e-11 -2.90512e-08 0)
(4.70375e-11 -2.85817e-08 0)
(4.72442e-11 -2.86931e-08 0)
(4.72355e-11 -2.86667e-08 0)
(4.72524e-11 -2.8673e-08 0)
(4.72593e-11 -2.86715e-08 0)
(4.72618e-11 -2.86719e-08 0)
(4.72629e-11 -2.86718e-08 0)
(4.72625e-11 -2.86718e-08 0)
(4.72621e-11 -2.86718e-08 0)
(4.72612e-11 -2.86718e-08 0)
(4.72605e-11 -2.86718e-08 0)
(4.72599e-11 -2.86718e-08 0)
(4.72593e-11 -2.86718e-08 0)
(4.72589e-11 -2.86718e-08 0)
(4.72588e-11 -2.86719e-08 0)
(4.72586e-11 -2.86719e-08 0)
(5.75602e-11 -5.70872e-08 0)
(4.93008e-11 -2.1935e-08 0)
(4.68416e-11 -3.02694e-08 0)
(4.7544e-11 -2.82929e-08 0)
(4.70013e-11 -2.87615e-08 0)
(4.72458e-11 -2.86505e-08 0)
(4.71987e-11 -2.86768e-08 0)
(4.72413e-11 -2.86706e-08 0)
(4.72433e-11 -2.86721e-08 0)
(4.72524e-11 -2.86717e-08 0)
(4.72551e-11 -2.86718e-08 0)
(4.72575e-11 -2.86718e-08 0)
(4.72584e-11 -2.86718e-08 0)
(4.72588e-11 -2.86718e-08 0)
(4.72588e-11 -2.86718e-08 0)
(4.72589e-11 -2.86718e-08 0)
(4.72589e-11 -2.86718e-08 0)
(4.72589e-11 -2.86718e-08 0)
(4.72586e-11 -2.86719e-08 0)
(4.72588e-11 -2.86719e-08 0)
(7.51127e-11 -2.97626e-10 0)
(3.65632e-11 -3.53995e-08 0)
(5.0317e-11 -2.70764e-08 0)
(4.59168e-11 -2.90501e-08 0)
(4.75253e-11 -2.85821e-08 0)
(4.70686e-11 -2.8693e-08 0)
(4.72469e-11 -2.86667e-08 0)
(4.7214e-11 -2.8673e-08 0)
(4.724e-11 -2.86715e-08 0)
(4.72429e-11 -2.86719e-08 0)
(4.72495e-11 -2.86718e-08 0)
(4.72529e-11 -2.86718e-08 0)
(4.72549e-11 -2.86718e-08 0)
(4.72566e-11 -2.86718e-08 0)
(4.72575e-11 -2.86718e-08 0)
(4.7258e-11 -2.86718e-08 0)
(4.72582e-11 -2.86718e-08 0)
(4.72582e-11 -2.86718e-08 0)
(4.72584e-11 -2.86719e-08 0)
(4.72586e-11 -2.86719e-08 0)
(-1.99831e-11 -5.70168e-08 0)
(6.63932e-11 -2.19513e-08 0)
(4.06795e-11 -3.02656e-08 0)
(4.91946e-11 -2.82939e-08 0)
(4.65632e-11 -2.87614e-08 0)
(4.7383e-11 -2.86506e-08 0)
(4.71487e-11 -2.86768e-08 0)
(4.7238e-11 -2.86706e-08 0)
(4.72262e-11 -2.86721e-08 0)
(4.72411e-11 -2.86718e-08 0)
(4.72451e-11 -2.86718e-08 0)
(4.725e-11 -2.86718e-08 0)
(4.72526e-11 -2.86718e-08 0)
(4.72546e-11 -2.86718e-08 0)
(4.72562e-11 -2.86718e-08 0)
(4.72571e-11 -2.86718e-08 0)
(4.72578e-11 -2.86718e-08 0)
(4.72582e-11 -2.86718e-08 0)
(4.72586e-11 -2.86719e-08 0)
(4.72588e-11 -2.86719e-08 0)
(1.45282e-10 -3.55258e-10 0)
(2.11391e-11 -3.53859e-08 0)
(5.63147e-11 -2.70795e-08 0)
(4.44667e-11 -2.90494e-08 0)
(4.79815e-11 -2.85823e-08 0)
(4.69385e-11 -2.8693e-08 0)
(4.72798e-11 -2.86668e-08 0)
(4.71954e-11 -2.8673e-08 0)
(4.72349e-11 -2.86715e-08 0)
(4.72344e-11 -2.86719e-08 0)
(4.72433e-11 -2.86718e-08 0)
(4.72469e-11 -2.86718e-08 0)
(4.72504e-11 -2.86718e-08 0)
(4.72531e-11 -2.86718e-08 0)
(4.72549e-11 -2.86718e-08 0)
(4.72566e-11 -2.86718e-08 0)
(4.72575e-11 -2.86718e-08 0)
(4.72578e-11 -2.86718e-08 0)
(4.7258e-11 -2.86719e-08 0)
(4.72589e-11 -2.86719e-08 0)
(-7.90881e-11 -5.69626e-08 0)
(7.92988e-11 -2.19636e-08 0)
(3.55564e-11 -3.02628e-08 0)
(5.04473e-11 -2.82946e-08 0)
(4.6203e-11 -2.87613e-08 0)
(4.75013e-11 -2.86506e-08 0)
(4.71194e-11 -2.86769e-08 0)
(4.72453e-11 -2.86706e-08 0)
(4.72198e-11 -2.86721e-08 0)
(4.72378e-11 -2.86718e-08 0)
(4.72409e-11 -2.86719e-08 0)
(4.72462e-11 -2.86718e-08 0)
(4.725e-11 -2.86718e-08 0)
(4.72524e-11 -2.86718e-08 0)
(4.72546e-11 -2.86718e-08 0)
(4.7256e-11 -2.86718e-08 0)
(4.72571e-11 -2.86718e-08 0)
(4.7258e-11 -2.86719e-08 0)
(4.72584e-11 -2.86719e-08 0)
(4.72586e-11 -2.86719e-08 0)
(1.93442e-10 -4.05984e-10 0)
(1.08056e-11 -3.53747e-08 0)
(6.05433e-11 -2.70821e-08 0)
(4.34881e-11 -2.90488e-08 0)
(4.82925e-11 -2.85825e-08 0)
(4.68536e-11 -2.8693e-08 0)
(4.73078e-11 -2.86668e-08 0)
(4.71898e-11 -2.8673e-08 0)
(4.72373e-11 -2.86716e-08 0)
(4.72329e-11 -2.86719e-08 0)
(4.7242e-11 -2.86718e-08 0)
(4.72455e-11 -2.86718e-08 0)
(4.72495e-11 -2.86718e-08 0)
(4.72524e-11 -2.86718e-08 0)
(4.72544e-11 -2.86718e-08 0)
(4.72564e-11 -2.86718e-08 0)
(4.72582e-11 -2.86719e-08 0)
(4.7258e-11 -2.86719e-08 0)
(4.72586e-11 -2.86719e-08 0)
(4.72586e-11 -2.86719e-08 0)
(-1.1371e-10 -5.69144e-08 0)
(8.65189e-11 -2.1974e-08 0)
(3.25451e-11 -3.02604e-08 0)
(5.11384e-11 -2.82951e-08 0)
(4.60003e-11 -2.87612e-08 0)
(4.75696e-11 -2.86507e-08 0)
(4.71074e-11 -2.86769e-08 0)
(4.72531e-11 -2.86707e-08 0)
(4.72202e-11 -2.86721e-08 0)
(4.72395e-11 -2.86718e-08 0)
(4.72415e-11 -2.86719e-08 0)
(4.72469e-11 -2.86718e-08 0)
(4.72502e-11 -2.86719e-08 0)
(4.72531e-11 -2.86718e-08 0)
(4.72549e-11 -2.86719e-08 0)
(4.7256e-11 -2.86719e-08 0)
(4.72571e-11 -2.86719e-08 0)
(4.72575e-11 -2.86719e-08 0)
(4.72584e-11 -2.86719e-08 0)
(4.72586e-11 -2.86719e-08 0)
(2.14346e-10 -4.51287e-10 0)
(6.72506e-12 -3.53651e-08 0)
(6.23361e-11 -2.70844e-08 0)
(4.3112e-11 -2.90484e-08 0)
(4.84138e-11 -2.85826e-08 0)
(4.68243e-11 -2.8693e-08 0)
(4.7322e-11 -2.86668e-08 0)
(4.7192e-11 -2.86731e-08 0)
(4.72422e-11 -2.86716e-08 0)
(4.72362e-11 -2.86719e-08 0)
(4.72449e-11 -2.86718e-08 0)
(4.72475e-11 -2.86719e-08 0)
(4.72513e-11 -2.86719e-08 0)
(4.72531e-11 -2.86719e-08 0)
(4.72549e-11 -2.86719e-08 0)
(4.72562e-11 -2.86719e-08 0)
(4.72573e-11 -2.86719e-08 0)
(4.72584e-11 -2.86719e-08 0)
(4.72584e-11 -2.86719e-08 0)
(4.72586e-11 -2.86719e-08 0)
(-1.20897e-10 -5.68714e-08 0)
(8.74445e-11 -2.19831e-08 0)
(3.19806e-11 -3.02584e-08 0)
(5.12081e-11 -2.82956e-08 0)
(4.59817e-11 -2.87611e-08 0)
(4.75827e-11 -2.86507e-08 0)
(4.71145e-11 -2.86769e-08 0)
(4.72614e-11 -2.86707e-08 0)
(4.72273e-11 -2.86721e-08 0)
(4.72453e-11 -2.86718e-08 0)
(4.72464e-11 -2.86719e-08 0)
(4.72506e-11 -2.86719e-08 0)
(4.72526e-11 -2.86719e-08 0)
(4.72549e-11 -2.86719e-08 0)
(4.7256e-11 -2.86719e-08 0)
(4.72571e-11 -2.86719e-08 0)
(4.72578e-11 -2.86719e-08 0)
(4.72582e-11 -2.86719e-08 0)
(4.72584e-11 -2.86719e-08 0)
(4.72586e-11 -2.86719e-08 0)
(2.07466e-10 -4.91316e-10 0)
(8.97704e-12 -3.53566e-08 0)
(6.16088e-11 -2.70864e-08 0)
(4.33502e-11 -2.9048e-08 0)
(4.83443e-11 -2.85827e-08 0)
(4.68581e-11 -2.86931e-08 0)
(4.73263e-11 -2.86669e-08 0)
(4.72056e-11 -2.86731e-08 0)
(4.72511e-11 -2.86716e-08 0)
(4.72442e-11 -2.86719e-08 0)
(4.72513e-11 -2.86718e-08 0)
(4.72524e-11 -2.86719e-08 0)
(4.72546e-11 -2.86719e-08 0)
(4.7256e-11 -2.86719e-08 0)
(4.72569e-11 -2.86719e-08 0)
(4.72573e-11 -2.86719e-08 0)
(4.72575e-11 -2.86719e-08 0)
(4.7258e-11 -2.86719e-08 0)
(4.72584e-11 -2.86719e-08 0)
(4.72586e-11 -2.86719e-08 0)
(-1.02981e-10 -5.68337e-08 0)
(8.25833e-11 -2.19911e-08 0)
(3.3674e-11 -3.02566e-08 0)
(5.07137e-11 -2.8296e-08 0)
(4.61431e-11 -2.87611e-08 0)
(4.75532e-11 -2.86508e-08 0)
(4.71463e-11 -2.86769e-08 0)
(4.72733e-11 -2.86707e-08 0)
(4.72418e-11 -2.86722e-08 0)
(4.72549e-11 -2.86718e-08 0)
(4.72538e-11 -2.86719e-08 0)
(4.72553e-11 -2.86719e-08 0)
(4.7256e-11 -2.86719e-08 0)
(4.72566e-11 -2.86719e-08 0)
(4.72575e-11 -2.86719e-08 0)
(4.72578e-11 -2.86719e-08 0)
(4.72584e-11 -2.86719e-08 0)
(4.72584e-11 -2.86719e-08 0)
(4.72584e-11 -2.86719e-08 0)
(4.72588e-11 -2.86719e-08 0)
(1.76673e-10 -5.25409e-10 0)
(1.66933e-11 -3.53492e-08 0)
(5.8714e-11 -2.70882e-08 0)
(4.41438e-11 -2.90477e-08 0)
(4.81283e-11 -2.85828e-08 0)
(4.69642e-11 -2.86931e-08 0)
(4.73326e-11 -2.86669e-08 0)
(4.72351e-11 -2.86731e-08 0)
(4.72663e-11 -2.86716e-08 0)
(4.7258e-11 -2.86719e-08 0)
(4.726e-11 -2.86718e-08 0)
(4.72589e-11 -2.86719e-08 0)
(4.72588e-11 -2.86719e-08 0)
(4.72586e-11 -2.86719e-08 0)
(4.72586e-11 -2.86719e-08 0)
(4.72586e-11 -2.86719e-08 0)
(4.72584e-11 -2.86719e-08 0)
(4.72586e-11 -2.86719e-08 0)
(4.72586e-11 -2.86719e-08 0)
(4.72588e-11 -2.86719e-08 0)
(-6.84937e-11 -5.68023e-08 0)
(7.37371e-11 -2.19982e-08 0)
(3.69127e-11 -3.02553e-08 0)
(4.98785e-11 -2.82965e-08 0)
(4.64673e-11 -2.87611e-08 0)
(4.75268e-11 -2.86508e-08 0)
(4.72082e-11 -2.86769e-08 0)
(4.72957e-11 -2.86707e-08 0)
(4.72636e-11 -2.86722e-08 0)
(4.72683e-11 -2.86718e-08 0)
(4.72631e-11 -2.86719e-08 0)
(4.72623e-11 -2.86719e-08 0)
(4.72611e-11 -2.86719e-08 0)
(4.72604e-11 -2.86719e-08 0)
(4.72596e-11 -2.86719e-08 0)
(4.72591e-11 -2.86719e-08 0)
(4.72589e-11 -2.86719e-08 0)
(4.72586e-11 -2.86719e-08 0)
(4.72584e-11 -2.86719e-08 0)
(4.72586e-11 -2.86719e-08 0)
(1.29925e-10 -5.50252e-10 0)
(2.75917e-11 -3.53442e-08 0)
(5.4506e-11 -2.70905e-08 0)
(4.55822e-11 -2.90472e-08 0)
(4.78582e-11 -2.85831e-08 0)
(4.71843e-11 -2.8693e-08 0)
(4.73436e-11 -2.86669e-08 0)
(4.72814e-11 -2.86731e-08 0)
(4.72826e-11 -2.86716e-08 0)
(4.72723e-11 -2.86719e-08 0)
(4.72682e-11 -2.86718e-08 0)
(4.72646e-11 -2.86719e-08 0)
(4.72625e-11 -2.86719e-08 0)
(4.7261e-11 -2.86719e-08 0)
(4.726e-11 -2.86719e-08 0)
(4.72595e-11 -2.86719e-08 0)
(4.72592e-11 -2.86719e-08 0)
(4.72586e-11 -2.86719e-08 0)
(4.72588e-11 -2.86719e-08 0)
(4.72586e-11 -2.86719e-08 0)
(-3.90956e-11 -5.67848e-08 0)
(8.44869e-11 -2.19975e-08 0)
(3.15963e-11 -3.02565e-08 0)
(5.31404e-11 -2.82957e-08 0)
(4.55878e-11 -2.87613e-08 0)
(4.7972e-11 -2.86506e-08 0)
(4.71407e-11 -2.86769e-08 0)
(4.7359e-11 -2.86707e-08 0)
(4.72687e-11 -2.86721e-08 0)
(4.72816e-11 -2.86718e-08 0)
(4.7269e-11 -2.86719e-08 0)
(4.72669e-11 -2.86719e-08 0)
(4.72635e-11 -2.86719e-08 0)
(4.72618e-11 -2.86719e-08 0)
(4.72608e-11 -2.86719e-08 0)
(4.726e-11 -2.86719e-08 0)
(4.72594e-11 -2.86719e-08 0)
(4.7259e-11 -2.86719e-08 0)
(4.72591e-11 -2.86719e-08 0)
(4.7259e-11 -2.86719e-08 0)
)
;

boundaryField
{
    movingWall
    {
        type            calculated;
        value           uniform (4.72586e-11 -2.86719e-08 0);
    }
    fixedWalls
    {
        type            calculated;
        value           uniform (4.72586e-11 -2.86719e-08 0);
    }
    frontAndBack
    {
        type            empty;
    }
}


// ************************************************************************* //
