/*--------------------------------*- C++ -*----------------------------------*\
| =========                 |                                                 |
| \\      /  F ield         | OpenFOAM: The Open Source CFD Toolbox           |
|  \\    /   O peration     | Version:  2506                                  |
|   \\  /    A nd           | Website:  www.openfoam.com                      |
|    \\/     M anipulation  |                                                 |
\*---------------------------------------------------------------------------*/
FoamFile
{
    version     2.0;
    format      ascii;
    arch        "LSB;label=32;scalar=64";
    class       volScalarField;
    location    "4.25";
    object      divPhi;
}
// * * * * * * * * * * * * * * * * * * * * * * * * * * * * * * * * * * * * * //

dimensions      [0 0 -1 0 0 0 0];

internalField   nonuniform List<scalar> 
400
(
2.1684e-13
-9.17337e-15
1.68117e-14
4.0727e-15
8.46775e-15
1.14975e-14
-1.06027e-14
-5.2559e-15
1.62748e-14
-5.10141e-15
8.04467e-15
-3.10789e-15
-1.06798e-14
-2.6831e-15
2.61499e-14
-6.29295e-15
5.88618e-15
-1.58776e-15
-1.20113e-14
2.71051e-14
2.71051e-14
-1.16202e-14
-4.45318e-15
1.39843e-14
1.64252e-14
2.819e-14
-1.89952e-14
-2.45744e-14
-4.33769e-15
1.04936e-14
-1.47422e-14
-7.77374e-15
8.15096e-15
-2.09633e-14
6.21366e-15
-5.4178e-15
7.95789e-15
1.2986e-15
-1.55041e-14
-2.71051e-14
0
-2.1976e-14
1.77649e-14
-3.65241e-14
1.89761e-14
7.88311e-15
5.43982e-15
8.82989e-15
1.81211e-14
-1.39338e-15
-5.39491e-15
-8.29545e-15
2.17258e-14
-8.03279e-15
1.72769e-14
-9.8945e-15
-7.71324e-15
2.1654e-14
6.61132e-15
0
-2.71051e-14
-6.41085e-16
-1.11071e-14
-2.26866e-14
6.22463e-15
3.72838e-15
2.5158e-14
2.13346e-14
-1.38429e-14
9.36709e-16
-2.51199e-14
-5.42809e-15
-1.273e-14
-2.53081e-14
-1.32365e-15
-4.19353e-14
3.92872e-15
2.68622e-14
-9.53373e-15
0
0
-7.97939e-15
-6.05559e-15
-6.56483e-15
-5.49287e-15
8.01127e-15
6.98323e-15
-1.75693e-14
2.19915e-14
1.65673e-14
-5.24674e-15
-3.53931e-15
-1.4792e-14
8.03235e-15
2.10881e-15
2.4758e-14
-3.04017e-14
5.71364e-15
-2.80101e-14
0
2.71051e-14
-5.94668e-16
-8.67453e-15
-1.31834e-14
-1.70318e-14
8.16412e-16
2.50888e-14
1.90819e-14
-2.46152e-14
8.65978e-15
-2.54215e-14
4.70018e-16
2.1531e-14
2.5262e-14
9.01199e-15
-2.23343e-14
-1.24343e-14
1.84304e-15
-5.66847e-15
2.71051e-14
-2.71051e-14
6.11891e-15
-9.31318e-15
-7.61629e-15
1.50967e-14
-1.35111e-14
-2.18775e-14
-5.84394e-15
1.72724e-14
6.39196e-15
5.90469e-15
-9.76061e-15
7.39233e-15
1.65098e-14
-2.09488e-14
1.75867e-14
-2.12677e-14
-2.49456e-14
1.17078e-14
0
-2.71051e-14
1.72944e-14
-3.11291e-14
-8.25277e-15
-1.33932e-14
-3.48027e-15
2.15573e-14
-2.26714e-14
1.70248e-14
2.23528e-14
-8.5483e-15
1.26814e-15
3.31497e-15
-2.45775e-14
4.00467e-14
2.891e-15
-9.18415e-16
-1.65894e-14
2.58532e-14
-2.71051e-14
0
8.18946e-15
-1.75702e-14
1.70802e-14
-2.25229e-14
-2.25109e-14
-9.00635e-15
1.44503e-14
2.11233e-15
-2.68732e-14
-6.22783e-15
1.10242e-14
-1.3572e-15
-2.44575e-14
3.92242e-14
1.31186e-14
-2.58537e-14
3.04331e-14
-2.75293e-14
2.71051e-14
0
6.50613e-15
2.14845e-15
-5.8264e-15
-1.86999e-14
3.05489e-14
-3.29653e-14
6.72777e-16
-3.30075e-14
1.20285e-14
-6.22063e-15
-4.66147e-16
1.58432e-14
-1.07211e-14
2.53071e-15
7.86262e-15
2.05127e-14
6.35089e-15
-1.38053e-14
-2.71051e-14
0
3.66136e-14
-8.38131e-15
-1.01097e-14
8.81831e-15
1.3425e-14
1.59706e-14
-2.37426e-14
2.36408e-15
-2.91439e-16
-2.47925e-14
1.21434e-14
-1.91811e-14
-3.96387e-15
3.88807e-15
2.12381e-14
-1.92943e-14
-7.35801e-15
3.52204e-14
0
-2.71051e-14
1.43854e-14
2.64234e-15
-4.63369e-15
2.60734e-14
-7.8001e-16
6.45552e-15
-1.15463e-14
-1.15946e-14
-1.84694e-14
-7.38977e-15
1.87806e-15
-3.05706e-15
5.01401e-15
3.69406e-14
-1.90302e-14
1.47187e-14
3.33715e-15
-1.99991e-14
0
2.71051e-14
-2.03457e-14
-1.05687e-14
-4.75869e-15
4.31925e-15
-2.78645e-14
-7.6219e-15
-5.30703e-15
4.64626e-15
1.92816e-14
-3.0338e-14
-6.90768e-15
1.59115e-14
-3.49222e-15
-1.17858e-14
2.06631e-14
-2.56866e-14
-1.14915e-15
9.0164e-15
2.71051e-14
0
-7.75143e-15
8.49693e-15
-2.21522e-14
2.37992e-14
-7.52488e-15
1.34557e-15
-4.45176e-16
4.32275e-17
-2.16358e-15
-1.15107e-14
-3.02793e-15
-2.86566e-14
9.78882e-15
-2.81185e-14
-4.77793e-15
-6.04875e-15
-8.76108e-16
1.24607e-14
0
-2.71051e-14
1.83527e-15
-4.60037e-15
1.4716e-14
-3.6107e-14
1.7988e-14
-1.06373e-14
-4.78648e-15
2.14374e-14
1.67234e-15
-2.20812e-14
1.70743e-14
-8.20583e-15
-2.64417e-15
-7.06494e-15
8.83931e-16
-3.67688e-14
6.62904e-15
2.72653e-14
-2.71051e-14
0
2.23135e-14
-1.49691e-14
6.49959e-15
-1.95375e-14
-1.59118e-14
-1.95813e-14
-3.00325e-14
1.45348e-15
-1.11902e-15
7.12225e-16
-1.63849e-14
8.62385e-15
-8.67201e-15
1.4864e-15
-1.93004e-14
5.91197e-15
-1.57071e-15
-5.01955e-15
0
0
-1.89951e-14
2.29578e-15
8.77263e-16
2.14097e-14
-1.11936e-15
2.53717e-14
-9.70188e-15
-1.54893e-15
-1.36306e-14
1.53913e-14
1.25349e-14
-2.31587e-14
-1.66849e-14
3.39619e-14
6.01787e-15
1.03441e-14
-1.87422e-14
-1.71669e-14
2.71051e-14
0
1.59993e-14
-5.68474e-15
4.64146e-17
1.91556e-14
-3.27456e-14
7.6811e-15
-3.32401e-14
3.86296e-15
3.25346e-14
-3.15073e-14
4.27088e-14
-1.25851e-14
-6.07759e-16
8.89411e-15
5.07455e-15
2.94524e-15
1.05068e-14
2.28376e-14
0
-2.71051e-14
-1.18541e-14
-1.54964e-14
5.25039e-15
-1.05716e-14
-1.52109e-14
2.98339e-15
-8.226e-15
1.20007e-14
3.69178e-15
1.48696e-14
-2.82358e-14
-1.62458e-14
3.75837e-15
5.59263e-15
-1.26212e-14
1.24735e-14
3.03359e-14
-1.2374e-16
0
0
-2.71051e-14
2.71051e-14
0
-2.71051e-14
0
0
0
0
0
0
2.71051e-14
0
2.71051e-14
0
0
0
2.71051e-14
-2.71051e-14
0
)
;

boundaryField
{
    movingWall
    {
        type            extrapolatedCalculated;
        value           nonuniform List<scalar> 
20
(
0
-2.71051e-14
2.71051e-14
0
-2.71051e-14
0
0
0
0
0
0
2.71051e-14
0
2.71051e-14
0
0
0
2.71051e-14
-2.71051e-14
0
)
;
    }
    fixedWalls
    {
        type            extrapolatedCalculated;
        value           nonuniform List<scalar> 
60
(
2.1684e-13
2.71051e-14
0
-2.71051e-14
0
2.71051e-14
-2.71051e-14
-2.71051e-14
0
0
0
-2.71051e-14
2.71051e-14
0
-2.71051e-14
0
0
0
-2.71051e-14
0
2.71051e-14
-2.71051e-14
0
0
0
2.71051e-14
0
-2.71051e-14
2.71051e-14
-2.71051e-14
0
0
2.71051e-14
0
-2.71051e-14
0
2.71051e-14
0
0
0
2.1684e-13
-9.17337e-15
1.68117e-14
4.0727e-15
8.46775e-15
1.14975e-14
-1.06027e-14
-5.2559e-15
1.62748e-14
-5.10141e-15
8.04467e-15
-3.10789e-15
-1.06798e-14
-2.6831e-15
2.61499e-14
-6.29295e-15
5.88618e-15
-1.58776e-15
-1.20113e-14
2.71051e-14
)
;
    }
    frontAndBack
    {
        type            empty;
    }
}


// ************************************************************************* //
