/*--------------------------------*- C++ -*----------------------------------*\
| =========                 |                                                 |
| \\      /  F ield         | OpenFOAM: The Open Source CFD Toolbox           |
|  \\    /   O peration     | Version:  2506                                  |
|   \\  /    A nd           | Website:  www.openfoam.com                      |
|    \\/     M anipulation  |                                                 |
\*---------------------------------------------------------------------------*/
FoamFile
{
    version     2.0;
    format      ascii;
    arch        "LSB;label=32;scalar=64";
    class       volScalarField;
    location    "4.25";
    object      divU;
}
// * * * * * * * * * * * * * * * * * * * * * * * * * * * * * * * * * * * * * //

dimensions      [0 0 -1 0 0 0 0];

internalField   nonuniform List<scalar> 
400
(
-4.89843e-10
3.61067e-09
-1.94375e-09
1.02894e-09
-3.89041e-10
1.23641e-10
-4.4989e-11
1.22471e-11
-4.52845e-12
1.02947e-12
-5.30533e-13
7.75696e-14
-5.70605e-14
-2.05714e-14
-1.82811e-14
-8.40426e-15
1.08566e-14
-9.55742e-15
1.39396e-14
-2.71051e-14
-3.17362e-09
-3.18868e-09
4.34921e-10
-1.7263e-10
2.482e-11
2.29257e-12
-3.88687e-13
9.22621e-13
-5.38981e-13
5.87057e-14
-7.13568e-14
-3.40948e-14
-7.4286e-14
4.28925e-14
2.76625e-14
-4.17855e-14
-3.54187e-15
8.85726e-16
-2.21446e-14
0
2.87146e-09
6.9517e-09
-1.2121e-09
6.08682e-10
-9.89903e-11
4.07872e-11
-8.87727e-12
3.30982e-12
-6.2461e-13
2.79205e-13
-6.09566e-14
1.49038e-14
-1.7682e-14
-3.01424e-14
-5.7442e-15
-2.87206e-14
2.08308e-14
-4.87926e-15
2.93696e-15
2.71051e-14
-5.1949e-09
-5.02833e-09
5.10427e-10
-3.94252e-10
3.68652e-11
-1.25695e-11
3.94333e-12
2.51836e-13
3.55963e-13
1.49267e-13
2.77571e-14
1.39857e-14
-7.27429e-15
1.59073e-14
1.99096e-14
9.67316e-15
-1.42909e-14
-1.99885e-14
-1.583e-14
-2.71051e-14
6.34169e-09
2.8439e-09
-1.10362e-10
1.99621e-10
-8.09519e-12
1.81777e-12
-5.17926e-13
-2.61259e-13
2.41108e-13
-3.30382e-15
5.67704e-14
1.10729e-15
2.33744e-14
-6.29644e-15
-1.14888e-14
9.93365e-15
-1.09083e-14
3.7017e-14
2.57653e-14
0
-7.77698e-09
1.00253e-09
-7.03551e-10
1.23046e-10
-6.83788e-11
2.05744e-11
-6.37545e-12
2.29688e-12
-5.74717e-13
2.92355e-13
-4.59535e-14
7.32839e-14
-2.1726e-15
-2.71405e-14
2.97815e-15
6.25844e-15
-5.71833e-15
-8.863e-15
1.65535e-14
-2.71051e-14
8.75466e-09
-4.11246e-09
1.3109e-09
-3.78565e-10
1.30012e-10
-3.8153e-11
1.19473e-11
-3.67039e-12
1.10906e-12
-3.52395e-13
2.04922e-13
-7.51276e-14
4.24768e-14
4.99494e-14
-3.15836e-15
4.63062e-14
-6.15072e-14
-3.1272e-14
2.75128e-14
0
-1.0574e-08
7.43037e-09
-2.03481e-09
6.60488e-10
-2.02557e-10
5.86433e-11
-1.86531e-11
5.4332e-12
-1.64678e-12
4.84079e-13
-1.20735e-13
5.31858e-14
-2.9039e-14
-4.94169e-15
-1.42778e-14
-1.65911e-14
1.85909e-14
2.03444e-15
3.29528e-14
-5.42101e-14
1.26038e-08
-1.01259e-08
2.61532e-09
-9.00457e-10
2.58518e-10
-7.62959e-11
2.36161e-11
-6.88903e-12
2.07706e-12
-6.08578e-13
1.50536e-13
-9.01314e-14
2.87594e-14
1.08573e-14
4.14233e-14
5.09572e-14
-4.8228e-14
-2.70615e-14
2.16398e-14
2.71051e-14
-1.45032e-08
1.25816e-08
-3.14484e-09
1.11982e-09
-3.09244e-10
9.17229e-11
-2.85061e-11
8.09276e-12
-2.47821e-12
6.92428e-13
-2.30656e-13
2.78789e-14
4.1907e-14
-4.25976e-14
-3.40083e-14
-9.87739e-15
1.39695e-14
3.28721e-14
2.05514e-14
-2.71051e-14
1.57963e-08
-1.43298e-08
3.50584e-09
-1.27889e-09
3.44918e-10
-1.03015e-10
3.18448e-11
-9.06893e-12
2.69968e-12
-8.5411e-13
2.41296e-13
-6.91454e-14
1.55006e-14
6.51166e-15
4.64705e-14
7.29194e-14
2.16262e-15
-7.84922e-14
-9.28345e-15
0
-1.67012e-08
1.55886e-08
-3.76126e-09
1.39078e-09
-3.68812e-10
1.10375e-10
-3.4096e-11
9.4834e-12
-2.89017e-12
8.48354e-13
-2.33866e-13
8.6116e-14
-4.62042e-15
3.461e-15
-5.26232e-14
-5.49128e-14
-4.86268e-15
7.94637e-15
5.60011e-14
-2.71051e-14
1.69543e-08
-1.61086e-08
3.84478e-09
-1.43886e-09
3.77348e-10
-1.13392e-10
3.4924e-11
-9.81189e-12
2.954e-12
-8.73601e-13
2.4524e-13
-7.48723e-14
3.38519e-14
-2.26769e-14
-8.13968e-15
5.10748e-14
-5.26573e-15
3.67489e-14
2.78845e-15
0
-1.67998e-08
1.61335e-08
-3.82243e-09
1.43816e-09
-3.74301e-10
1.12245e-10
-3.46105e-11
9.62107e-12
-2.90246e-12
8.54519e-13
-1.99697e-13
3.14026e-14
1.80882e-14
-1.71022e-14
2.53528e-14
1.07016e-14
-4.40842e-14
2.02517e-14
6.84456e-15
-2.71051e-14
1.59606e-08
-1.53922e-08
3.61673e-09
-1.37107e-09
3.54387e-10
-1.06606e-10
3.2775e-11
-9.07582e-12
2.81282e-12
-7.89698e-13
2.60946e-13
-9.68916e-14
4.855e-14
4.00098e-14
-1.85446e-14
-9.41142e-14
-4.05662e-15
3.80528e-14
3.93392e-14
-2.71051e-14
-1.49008e-08
1.44031e-08
-3.37197e-09
1.27756e-09
-3.30421e-10
9.88024e-11
-3.0398e-11
8.49925e-12
-2.51376e-12
8.04146e-13
-2.03044e-13
-7.27918e-15
-1.07119e-14
8.48255e-14
1.47281e-14
4.59479e-15
-4.27423e-14
-2.70184e-14
4.7786e-14
0
1.30268e-08
-1.25016e-08
2.86771e-09
-1.10159e-09
2.80114e-10
-8.28317e-11
2.58803e-11
-6.87311e-12
2.22994e-12
-5.1097e-13
1.90997e-13
-5.7867e-14
-4.09996e-14
1.33759e-14
-1.37034e-14
-4.6588e-14
4.91977e-14
-6.51806e-15
1.98491e-14
0
-1.14117e-08
1.10441e-08
-2.61165e-09
1.00723e-09
-2.59258e-10
8.16797e-11
-2.44981e-11
7.40072e-12
-2.13658e-12
6.69667e-13
-1.77206e-13
7.54253e-14
3.3895e-14
-8.26267e-15
1.72664e-14
-2.28302e-14
6.05183e-16
-1.53683e-14
-2.19239e-15
0
8.05283e-09
-7.47512e-09
1.68473e-09
-5.89813e-10
1.4162e-10
-3.64606e-11
1.06012e-11
-2.44563e-12
5.26984e-13
-1.57687e-13
-1.91375e-14
-1.90067e-14
-2.79564e-14
-2.31904e-14
-2.15493e-14
1.71562e-14
-1.05253e-14
2.41431e-14
-8.40327e-15
0
-5.77926e-09
6.87162e-09
-2.80974e-09
1.31787e-09
-4.48805e-10
1.48698e-10
-4.9277e-11
1.45554e-11
-4.79759e-12
1.30104e-12
-4.33681e-13
8.13152e-14
-5.42101e-14
5.42101e-14
0
-5.42101e-14
0
2.71051e-14
0
-2.71051e-14
)
;

boundaryField
{
    movingWall
    {
        type            extrapolatedCalculated;
        value           nonuniform List<scalar> 
20
(
-5.77926e-09
6.87162e-09
-2.80974e-09
1.31787e-09
-4.48805e-10
1.48698e-10
-4.9277e-11
1.45554e-11
-4.79759e-12
1.30104e-12
-4.33681e-13
8.13152e-14
-5.42101e-14
5.42101e-14
0
-5.42101e-14
0
2.71051e-14
0
-2.71051e-14
)
;
    }
    fixedWalls
    {
        type            extrapolatedCalculated;
        value           nonuniform List<scalar> 
60
(
-4.89843e-10
-3.17362e-09
2.87146e-09
-5.1949e-09
6.34169e-09
-7.77698e-09
8.75466e-09
-1.0574e-08
1.26038e-08
-1.45032e-08
1.57963e-08
-1.67012e-08
1.69543e-08
-1.67998e-08
1.59606e-08
-1.49008e-08
1.30268e-08
-1.14117e-08
8.05283e-09
-5.77926e-09
-2.71051e-14
0
2.71051e-14
-2.71051e-14
0
-2.71051e-14
0
-5.42101e-14
2.71051e-14
-2.71051e-14
0
-2.71051e-14
0
-2.71051e-14
-2.71051e-14
0
0
0
0
-2.71051e-14
-4.89843e-10
3.61067e-09
-1.94375e-09
1.02894e-09
-3.89041e-10
1.23641e-10
-4.4989e-11
1.22471e-11
-4.52845e-12
1.02947e-12
-5.30533e-13
7.75696e-14
-5.70605e-14
-2.05714e-14
-1.82811e-14
-8.40426e-15
1.08566e-14
-9.55742e-15
1.39396e-14
-2.71051e-14
)
;
    }
    frontAndBack
    {
        type            empty;
    }
}


// ************************************************************************* //
