/*--------------------------------*- C++ -*----------------------------------*\
| =========                 |                                                 |
| \\      /  F ield         | OpenFOAM: The Open Source CFD Toolbox           |
|  \\    /   O peration     | Version:  2506                                  |
|   \\  /    A nd           | Website:  www.openfoam.com                      |
|    \\/     M anipulation  |                                                 |
\*---------------------------------------------------------------------------*/
FoamFile
{
    version     2.0;
    format      ascii;
    arch        "LSB;label=32;scalar=64";
    class       volScalarField;
    location    "4.25";
    object      enstrophyField;
}
// * * * * * * * * * * * * * * * * * * * * * * * * * * * * * * * * * * * * * //

dimensions      [0 0 -2 0 0 0 0];

internalField   nonuniform List<scalar> 
400
(
2.38776e-12
3.66443e-12
2.0678e-13
1.17228e-14
6.58279e-16
3.79665e-17
2.05605e-18
1.31947e-19
5.24306e-21
7.29142e-22
6.00749e-26
2.09356e-23
4.34282e-24
2.75004e-24
1.11166e-24
3.89474e-25
1.19263e-25
3.42816e-26
5.026e-27
9.06305e-28
2.37148e-12
3.65943e-12
2.06483e-13
1.16495e-14
6.57286e-16
3.708e-17
2.09269e-18
1.17939e-19
6.67831e-21
3.72774e-22
2.19294e-23
1.00088e-24
1.17574e-25
1.53737e-27
1.12738e-26
1.48753e-26
5.94848e-27
6.55992e-27
7.90404e-27
1.86527e-27
2.3705e-12
3.63925e-12
2.04892e-13
1.15343e-14
6.49301e-16
3.65543e-17
2.05721e-18
1.15901e-19
6.49517e-21
3.7481e-22
1.89132e-23
1.66411e-24
2.73922e-27
5.46125e-26
2.70689e-26
3.51911e-26
3.97441e-26
2.04457e-26
1.85771e-26
1.41767e-26
2.38137e-12
3.62916e-12
2.04219e-13
1.14903e-14
6.46512e-16
3.63732e-17
2.04726e-18
1.15009e-19
6.51622e-21
3.57062e-22
2.2713e-23
6.76148e-25
2.5588e-25
1.99343e-26
3.94521e-26
4.63418e-26
3.46973e-26
2.46982e-26
3.493e-26
3.56646e-26
2.37596e-12
3.61316e-12
2.0326e-13
1.14331e-14
6.43091e-16
3.61778e-17
2.03423e-18
1.14624e-19
6.40596e-21
3.71776e-22
1.8213e-23
1.75883e-24
1.05722e-28
1.01597e-25
3.57611e-26
2.99529e-26
3.9545e-26
5.16448e-26
3.0477e-26
2.95256e-26
2.36935e-12
3.60115e-12
2.02576e-13
1.13941e-14
6.40904e-16
3.60471e-17
2.02825e-18
1.13885e-19
6.45355e-21
3.51512e-22
2.30515e-23
6.16392e-25
2.43319e-25
4.99054e-26
8.86479e-26
5.24456e-26
5.85534e-26
4.27666e-26
4.78819e-26
4.30488e-26
2.35968e-12
3.59009e-12
2.01966e-13
1.13606e-14
6.39015e-16
3.59481e-17
2.02104e-18
1.13911e-19
6.34331e-21
3.71548e-22
1.78476e-23
1.86996e-24
3.68452e-31
8.43608e-26
5.49735e-26
5.62294e-26
3.62408e-26
3.23784e-26
4.58765e-26
2.88754e-26
2.35327e-12
3.58224e-12
2.01524e-13
1.13354e-14
6.37609e-16
3.58611e-17
2.01787e-18
1.13331e-19
6.4186e-21
3.48025e-22
2.29942e-23
7.55642e-25
2.19008e-25
1.56608e-26
3.60117e-26
5.09798e-26
6.14095e-26
3.19584e-26
1.71028e-26
3.67093e-26
2.34614e-12
3.57439e-12
2.0108e-13
1.13104e-14
6.36165e-16
3.57859e-17
2.01204e-18
1.13378e-19
6.3311e-21
3.68115e-22
1.81523e-23
1.50331e-24
1.89724e-27
7.12402e-26
2.67195e-26
4.45038e-26
3.23432e-26
2.43568e-26
3.05183e-26
1.98775e-26
2.33943e-12
3.56716e-12
2.00675e-13
1.12875e-14
6.34912e-16
3.5709e-17
2.00945e-18
1.12802e-19
6.39927e-21
3.50621e-22
2.13653e-23
7.59788e-25
2.03673e-25
1.60342e-26
3.66751e-26
2.53104e-26
5.73519e-26
3.88164e-26
4.27855e-26
7.56109e-27
2.33229e-12
3.56001e-12
2.00274e-13
1.12652e-14
6.33641e-16
3.56441e-17
2.00443e-18
1.1285e-19
6.32277e-21
3.63718e-22
1.85389e-23
1.5723e-24
3.18958e-27
7.40085e-26
2.84527e-26
1.76377e-26
1.29078e-26
4.44267e-27
6.3671e-27
7.36792e-27
2.32538e-12
3.55326e-12
1.99897e-13
1.12441e-14
6.32484e-16
3.55766e-17
2.00156e-18
1.12499e-19
6.34695e-21
3.50895e-22
2.12808e-23
8.49633e-25
1.49229e-25
1.01638e-27
8.28503e-27
1.82801e-28
4.28779e-29
1.29814e-26
6.45993e-27
3.14564e-27
2.31868e-12
3.54685e-12
1.99539e-13
1.12242e-14
6.31366e-16
3.55174e-17
1.99769e-18
1.12431e-19
6.30556e-21
3.58837e-22
1.88569e-23
1.48753e-24
1.85489e-26
2.41466e-26
4.25774e-27
1.12439e-26
9.2666e-27
5.33208e-27
1.18056e-27
7.68848e-28
2.31209e-12
3.54067e-12
1.99193e-13
1.12049e-14
6.303e-16
3.54562e-17
1.99469e-18
1.12168e-19
6.31541e-21
3.53819e-22
2.10007e-23
9.49332e-25
8.4651e-26
7.16403e-29
5.51455e-27
6.80886e-28
9.40438e-29
4.20899e-30
3.76537e-28
1.57112e-29
2.30649e-12
3.53519e-12
1.98886e-13
1.11877e-14
6.2934e-16
3.54034e-17
1.99155e-18
1.12055e-19
6.29888e-21
3.54747e-22
2.02404e-23
9.85721e-25
6.58694e-26
3.97704e-27
2.97755e-28
2.3491e-28
7.37469e-30
2.18871e-28
5.06817e-31
5.80157e-28
2.30059e-12
3.52968e-12
1.98576e-13
1.11703e-14
6.28367e-16
3.53481e-17
1.98872e-18
1.11857e-19
6.29979e-21
3.51758e-22
1.99723e-23
1.0698e-24
5.59375e-26
8.51659e-27
2.64542e-28
2.58291e-29
1.16261e-31
5.03604e-28
3.63199e-28
3.10588e-28
2.2972e-12
3.52556e-12
1.98343e-13
1.11571e-14
6.27623e-16
3.5306e-17
1.98647e-18
1.11732e-19
6.28793e-21
3.53017e-22
2.01549e-23
1.18804e-24
3.48352e-26
1.73699e-26
1.31028e-27
7.71078e-30
1.21129e-27
2.31573e-27
8.13776e-28
1.21712e-27
2.29195e-12
3.52081e-12
1.98076e-13
1.11421e-14
6.26771e-16
3.52587e-17
1.98354e-18
1.11584e-19
6.27055e-21
3.54298e-22
2.00318e-23
1.12379e-24
7.31317e-26
8.76058e-27
3.74006e-30
5.07816e-28
4.18596e-29
2.12728e-27
7.91144e-28
2.74173e-27
2.29405e-12
3.52477e-12
1.98598e-13
1.11882e-14
6.30325e-16
3.55116e-17
2.00083e-18
1.12727e-19
6.35176e-21
3.58431e-22
1.95333e-23
1.21546e-24
7.22271e-26
9.07307e-29
8.97927e-28
2.29519e-28
5.50544e-29
9.54199e-29
4.35665e-28
7.86169e-29
2.29886e-12
3.52341e-12
1.98866e-13
1.12408e-14
6.33662e-16
3.61493e-17
2.01055e-18
1.20027e-19
5.98033e-21
4.80458e-22
8.88016e-24
4.70694e-24
1.91353e-25
2.43256e-25
7.12304e-26
3.10727e-26
1.17053e-26
2.46028e-27
1.94313e-27
2.62074e-27
)
;

boundaryField
{
    movingWall
    {
        type            calculated;
        value           nonuniform List<scalar> 
20
(
2.37272e-12
3.55837e-12
2.02301e-13
1.15324e-14
6.53799e-16
3.80564e-17
2.09951e-18
1.34041e-19
5.90912e-21
6.67298e-22
2.18414e-24
1.22265e-23
1.40811e-24
9.78395e-25
3.77445e-25
1.59814e-25
5.39044e-26
1.11248e-26
1.72544e-26
1.14632e-26
)
;
    }
    fixedWalls
    {
        type            calculated;
        value           nonuniform List<scalar> 
60
(
6.57529e-11
6.56237e-11
6.5367e-11
6.51937e-11
6.4912e-11
6.46968e-11
6.44958e-11
6.43543e-11
6.42133e-11
6.4084e-11
6.39559e-11
6.38349e-11
6.37201e-11
6.36095e-11
6.35112e-11
6.34126e-11
6.3339e-11
6.32532e-11
6.32329e-11
6.32311e-11
8.00227e-28
1.14229e-27
1.05824e-26
2.63027e-26
1.8773e-26
3.11718e-26
1.85757e-26
2.51796e-26
1.01964e-26
1.6351e-27
1.35285e-27
4.20829e-28
9.10893e-30
1.40377e-27
3.89167e-27
1.86877e-27
2.7892e-27
4.20314e-27
5.06395e-29
3.81397e-27
2.43177e-12
3.69172e-12
2.09286e-13
1.19889e-14
6.72219e-16
3.9979e-17
2.07946e-18
1.53206e-19
4.12959e-21
1.28179e-21
2.80842e-23
6.84966e-23
2.0957e-23
1.10404e-23
4.48593e-24
1.51322e-24
5.32209e-25
1.42313e-25
1.607e-26
3.78308e-27
)
;
    }
    frontAndBack
    {
        type            empty;
    }
}


// ************************************************************************* //
