/*--------------------------------*- C++ -*----------------------------------*\
| =========                 |                                                 |
| \\      /  F ield         | OpenFOAM: The Open Source CFD Toolbox           |
|  \\    /   O peration     | Version:  2506                                  |
|   \\  /    A nd           | Website:  www.openfoam.com                      |
|    \\/     M anipulation  |                                                 |
\*---------------------------------------------------------------------------*/
FoamFile
{
    version     2.0;
    format      ascii;
    arch        "LSB;label=32;scalar=64";
    class       volScalarField;
    location    "4.25";
    object      epsilonzeroGrad;
}
// * * * * * * * * * * * * * * * * * * * * * * * * * * * * * * * * * * * * * //

dimensions      [0 2 -3 0 0 0 0];

internalField   nonuniform List<scalar> 
400
(
1.76267e-05
1.76265e-05
1.76264e-05
1.76262e-05
1.76263e-05
1.7626e-05
1.76261e-05
1.76258e-05
1.7626e-05
1.76257e-05
1.76259e-05
1.76256e-05
1.76258e-05
1.76256e-05
1.76257e-05
1.76256e-05
1.76257e-05
1.76256e-05
1.76256e-05
1.76256e-05
2.21991e-05
2.15276e-05
2.15801e-05
2.16018e-05
2.16459e-05
2.16687e-05
2.17131e-05
2.17368e-05
2.17818e-05
2.18064e-05
2.18517e-05
2.18773e-05
2.1923e-05
2.19496e-05
2.19957e-05
2.20233e-05
2.20697e-05
2.20986e-05
2.21219e-05
2.21599e-05
2.84623e-05
2.75107e-05
2.75855e-05
2.76164e-05
2.7679e-05
2.77113e-05
2.77745e-05
2.78078e-05
2.78716e-05
2.79061e-05
2.79703e-05
2.8006e-05
2.80708e-05
2.81077e-05
2.81729e-05
2.82112e-05
2.82767e-05
2.83166e-05
2.83494e-05
2.84025e-05
3.37974e-05
3.25893e-05
3.26834e-05
3.27223e-05
3.28013e-05
3.28421e-05
3.29217e-05
3.29639e-05
3.30444e-05
3.30881e-05
3.31692e-05
3.32145e-05
3.32964e-05
3.33433e-05
3.34257e-05
3.34746e-05
3.35573e-05
3.36082e-05
3.36498e-05
3.37172e-05
3.73956e-05
3.60048e-05
3.61126e-05
3.61571e-05
3.62476e-05
3.62944e-05
3.63857e-05
3.64342e-05
3.65264e-05
3.65767e-05
3.66698e-05
3.6722e-05
3.68158e-05
3.687e-05
3.69646e-05
3.70209e-05
3.7116e-05
3.71747e-05
3.72226e-05
3.73002e-05
3.95506e-05
3.80475e-05
3.81636e-05
3.82116e-05
3.83091e-05
3.83595e-05
3.84579e-05
3.85103e-05
3.86097e-05
3.8664e-05
3.87644e-05
3.88208e-05
3.8922e-05
3.89806e-05
3.90826e-05
3.91436e-05
3.92462e-05
3.93098e-05
3.93614e-05
3.94453e-05
4.07949e-05
3.92261e-05
3.9347e-05
3.9397e-05
3.94986e-05
3.95512e-05
3.96537e-05
3.97083e-05
3.9812e-05
3.98686e-05
3.99732e-05
4.00321e-05
4.01376e-05
4.01988e-05
4.03051e-05
4.03688e-05
4.04758e-05
4.05422e-05
4.0596e-05
4.06836e-05
4.15436e-05
3.99354e-05
4.00592e-05
4.01104e-05
4.02144e-05
4.02683e-05
4.03733e-05
4.04293e-05
4.05354e-05
4.05935e-05
4.07007e-05
4.0761e-05
4.08691e-05
4.09318e-05
4.10408e-05
4.11061e-05
4.12157e-05
4.12838e-05
4.1339e-05
4.14288e-05
4.20494e-05
4.04145e-05
4.05403e-05
4.05923e-05
4.0698e-05
4.07528e-05
4.08595e-05
4.09163e-05
4.10241e-05
4.10832e-05
4.11921e-05
4.12534e-05
4.13633e-05
4.1427e-05
4.15378e-05
4.16042e-05
4.17156e-05
4.17848e-05
4.18409e-05
4.19322e-05
4.24495e-05
4.07934e-05
4.09207e-05
4.09734e-05
4.10804e-05
4.11358e-05
4.12438e-05
4.13014e-05
4.14106e-05
4.14704e-05
4.15806e-05
4.16428e-05
4.1754e-05
4.18186e-05
4.19307e-05
4.1998e-05
4.21107e-05
4.2181e-05
4.22377e-05
4.23302e-05
4.28152e-05
4.11402e-05
4.12689e-05
4.13222e-05
4.14304e-05
4.14864e-05
4.15956e-05
4.16539e-05
4.17642e-05
4.18247e-05
4.19362e-05
4.19991e-05
4.21115e-05
4.21769e-05
4.22903e-05
4.23584e-05
4.24724e-05
4.25435e-05
4.26009e-05
4.26944e-05
4.31867e-05
4.1492e-05
4.16222e-05
4.1676e-05
4.17854e-05
4.18421e-05
4.19525e-05
4.20114e-05
4.21231e-05
4.21842e-05
4.2297e-05
4.23606e-05
4.24743e-05
4.25405e-05
4.26551e-05
4.2724e-05
4.28393e-05
4.29112e-05
4.29693e-05
4.30639e-05
4.35873e-05
4.18717e-05
4.20033e-05
4.20578e-05
4.21685e-05
4.22259e-05
4.23377e-05
4.23973e-05
4.25103e-05
4.25722e-05
4.26863e-05
4.27507e-05
4.28658e-05
4.29328e-05
4.30488e-05
4.31186e-05
4.32353e-05
4.33081e-05
4.33669e-05
4.34626e-05
4.40354e-05
4.22961e-05
4.24295e-05
4.24848e-05
4.2597e-05
4.26551e-05
4.27683e-05
4.28287e-05
4.29432e-05
4.3006e-05
4.31216e-05
4.31869e-05
4.33036e-05
4.33715e-05
4.3489e-05
4.35598e-05
4.36781e-05
4.37519e-05
4.38115e-05
4.39086e-05
4.45476e-05
4.27814e-05
4.29168e-05
4.29728e-05
4.30867e-05
4.31457e-05
4.32606e-05
4.3322e-05
4.34382e-05
4.35019e-05
4.36193e-05
4.36856e-05
4.3804e-05
4.3873e-05
4.39923e-05
4.40642e-05
4.41843e-05
4.42594e-05
4.43198e-05
4.44184e-05
4.51404e-05
4.33426e-05
4.34803e-05
4.35373e-05
4.36531e-05
4.37131e-05
4.38301e-05
4.38925e-05
4.40107e-05
4.40756e-05
4.41949e-05
4.42624e-05
4.43829e-05
4.44531e-05
4.45745e-05
4.46477e-05
4.47699e-05
4.48463e-05
4.49079e-05
4.50082e-05
4.58188e-05
4.3985e-05
4.41253e-05
4.41834e-05
4.43014e-05
4.43626e-05
4.44818e-05
4.45455e-05
4.46659e-05
4.47321e-05
4.48538e-05
4.49226e-05
4.50455e-05
4.51171e-05
4.52409e-05
4.53156e-05
4.54402e-05
4.55181e-05
4.55809e-05
4.56832e-05
4.65468e-05
4.4675e-05
4.4818e-05
4.48772e-05
4.49976e-05
4.506e-05
4.51815e-05
4.52465e-05
4.53693e-05
4.54369e-05
4.5561e-05
4.56313e-05
4.57566e-05
4.58298e-05
4.59561e-05
4.60325e-05
4.61595e-05
4.62392e-05
4.63033e-05
4.64078e-05
4.72031e-05
4.53397e-05
4.54791e-05
4.55368e-05
4.56548e-05
4.57163e-05
4.58358e-05
4.59002e-05
4.60215e-05
4.6089e-05
4.62121e-05
4.62828e-05
4.64075e-05
4.64817e-05
4.66078e-05
4.66857e-05
4.68131e-05
4.68951e-05
4.69595e-05
4.70657e-05
4.74735e-05
4.74729e-05
4.74727e-05
4.74723e-05
4.74721e-05
4.74718e-05
4.74716e-05
4.74715e-05
4.74713e-05
4.74712e-05
4.74711e-05
4.74711e-05
4.7471e-05
4.74709e-05
4.74709e-05
4.74709e-05
4.74709e-05
4.74709e-05
4.74709e-05
4.74709e-05
)
;

boundaryField
{
    movingWall
    {
        type            zeroGradient;
    }
    fixedWalls
    {
        type            zeroGradient;
    }
    frontAndBack
    {
        type            empty;
    }
}


// ************************************************************************* //
