/*--------------------------------*- C++ -*----------------------------------*\
| =========                 |                                                 |
| \\      /  F ield         | OpenFOAM: The Open Source CFD Toolbox           |
|  \\    /   O peration     | Version:  2506                                  |
|   \\  /    A nd           | Website:  www.openfoam.com                      |
|    \\/     M anipulation  |                                                 |
\*---------------------------------------------------------------------------*/
FoamFile
{
    version     2.0;
    format      ascii;
    arch        "LSB;label=32;scalar=64";
    class       volScalarField;
    location    "4.25";
    object      flowTypeField;
}
// * * * * * * * * * * * * * * * * * * * * * * * * * * * * * * * * * * * * * //

dimensions      [0 0 0 0 0 0 0];

internalField   nonuniform List<scalar> 
400
(
0.000523077
-0.000649163
-0.00110609
-0.00326472
-0.00191891
-0.0107417
0.00699753
-0.0507848
0.108871
-0.326537
0.950637
-0.189403
0.173261
0.0554477
0.106474
0.129025
0.188635
0.271668
0.393627
0.403168
0.00334465
-0.00027013
-0.000326244
-0.00254724
-0.0017161
-0.00700234
-0.00103042
-0.0207314
0.0187159
-0.0799214
0.200109
0.376626
0.697212
0.936341
0.791607
0.691774
0.708368
0.531349
0.316997
0.48561
0.00161259
0.0001649
0.000325257
0.000493557
-0.000414936
0.00263576
-0.00503485
0.0150938
-0.0370891
0.0919637
-0.203366
0.427873
0.931105
0.676482
0.666354
0.542832
0.336544
0.338305
0.130653
0.00580339
-0.00263562
-0.000497271
-0.000816091
-0.000845947
-0.000810509
-0.00256032
0.00242498
-0.0143869
0.0312831
-0.116927
0.213091
0.195438
0.555049
0.764586
0.603389
0.433333
0.394219
0.350091
0.0655822
-0.238014
-0.00380273
-0.000674521
-0.00106783
-0.00103075
-0.00143471
-0.000951879
-0.00423711
0.00649459
-0.0318133
0.0763325
-0.394062
0.38355
0.981306
0.541488
0.596575
0.53792
0.350523
0.0912342
0.188852
0.0072825
-0.00414823
-0.000720147
-0.00113405
-0.00115093
-0.00136366
-0.00207337
-0.000547694
-0.00801722
0.0170348
-0.076114
0.163672
-0.0255211
0.514565
0.593351
0.391634
0.368923
0.191727
0.158479
0.0016623
-0.0948908
-0.00357661
-0.000637658
-0.000969189
-0.00109436
-0.0012222
-0.00161717
-0.00245962
0.000758202
-0.0146607
0.0405768
-0.158463
0.288513
0.997724
0.538373
0.461751
0.342222
0.338925
0.250089
0.0168137
0.101318
-0.00323884
-0.000573874
-0.000941788
-0.000956427
-0.00126749
-0.00151779
-0.00160688
-0.00379605
0.00490935
-0.0284982
0.0945271
0.0896936
0.467134
0.728217
0.549417
0.342924
0.195296
0.217436
0.335654
-0.0994961
-0.00272729
-0.000477261
-0.000801582
-0.000818159
-0.000986763
-0.00136403
-0.00137856
-0.00148177
-0.00482141
0.0126787
-0.026699
0.26058
0.909108
0.514976
0.581718
0.391091
0.317091
0.236508
0.0760325
0.0428957
-0.00221908
-0.000377713
-0.000657406
-0.00062625
-0.00083885
-0.000945918
-0.00131129
-0.000909046
-0.00226164
-0.00265918
0.0475888
0.225703
0.421437
0.691125
0.502479
0.480268
0.0964859
0.0278214
-0.211113
0.18753
-0.00159012
-0.00025816
-0.000462568
-0.000427076
-0.000524273
-0.000744525
-0.000454423
-0.00147974
0.00107418
-0.00573825
0.0456851
0.121238
0.886696
0.44616
0.551121
0.553345
0.42408
0.465266
0.372444
0.00636093
-0.000952071
-0.000137953
-0.000267874
-0.000210606
-0.000290315
-0.000260944
-0.000592461
0.000860038
-0.0041821
0.0170978
-0.0225152
0.289346
0.398146
0.9059
0.666931
0.915199
0.950476
0.253681
0.362916
0.0109784
-0.000314577
-1.83982e-05
-7.26921e-05
-3.45153e-06
1.94754e-06
-7.35813e-05
0.000521886
-0.00150997
0.00729901
-0.0206452
0.0934721
-0.0339362
0.74519
0.568883
0.743706
0.542795
0.410525
0.403628
0.412804
0.106862
0.00033927
0.000101163
0.000131769
0.00020287
0.000248305
0.000489326
-8.70102e-05
0.00319604
-0.00760394
0.0315268
-0.100081
0.311869
0.360333
0.968051
0.691461
0.831372
0.871375
0.953954
0.588594
0.685916
0.000851079
0.000197869
0.000283322
0.000369893
0.000503931
0.000427477
0.00173754
-0.00239308
0.0132559
-0.0364384
0.108003
-0.226144
0.54942
0.742607
0.895162
0.844634
0.956929
0.785066
0.974898
0.0307847
0.001449
0.000303594
0.000471987
0.000565435
0.000649493
0.00133291
-0.000227074
0.00635182
-0.0135497
0.0504459
-0.163324
0.319824
0.245514
0.682402
0.891871
0.953537
0.987711
0.628427
0.613984
0.514646
0.00161801
0.000342921
0.000523464
0.000583652
0.000945728
0.000357615
0.00318219
-0.00468117
0.0193927
-0.0522612
0.126895
-0.715834
0.661133
0.507989
0.758084
0.968133
0.561025
0.00461775
0.157253
0.120384
0.002188
0.000418437
0.000675316
0.000982966
0.000784141
0.00265303
-0.000490512
0.00978978
-0.0141481
0.0515008
-0.141339
0.283845
0.181898
0.657238
0.982571
0.785957
0.887599
0.100375
0.00783511
-0.56325
0.00137521
-0.000400989
-0.000840208
-0.00217522
-0.00247297
-0.00529173
-0.00337328
-0.0134217
0.00466678
-0.0491479
0.0974859
-0.111357
0.496467
0.948784
0.808847
0.821851
0.88372
0.779305
0.510504
0.760197
-0.000169327
-0.000658428
-0.00132355
-0.00276843
-0.00291037
-0.00740153
-0.00114959
-0.0254352
0.0325609
-0.132432
0.342446
-0.424489
0.422596
-0.0241226
0.136462
0.152125
0.156003
0.160911
0.111695
0.11522
)
;

boundaryField
{
    movingWall
    {
        type            calculated;
        value           nonuniform List<scalar> 
20
(
0.760888
0.266461
0.263812
0.260227
0.25896
0.248984
0.257597
0.216516
0.3017
0.0537711
0.754676
-0.385795
0.222475
-0.0809757
0.0299262
0.0155097
0.0281049
0.0172348
-0.00856833
-0.0182328
)
;
    }
    fixedWalls
    {
        type            calculated;
        value           nonuniform List<scalar> 
60
(
0.00010099
0.000638211
0.000311796
-0.000501228
-0.000725745
-0.000792497
-0.000682546
-0.000615939
-0.000515711
-0.000415501
-0.000292746
-0.000168714
-4.60677e-05
7.88362e-05
0.000175153
0.000287622
0.000316924
0.000423943
0.000265676
-2.80771e-05
0.379517
0.537653
0.142164
-0.30382
0.00185888
-0.0967135
0.123214
-0.100077
0.152214
0.336578
0.0325743
0.0711688
0.715577
0.0795296
0.00490177
0.362356
0.133606
-0.413209
0.834907
0.374326
0.762468
0.267261
0.265784
0.260743
0.263232
0.246039
0.274131
0.183209
0.418726
-0.189587
0.524146
-0.170435
0.0693809
-0.014492
0.0170403
0.0146513
0.0342735
0.0792848
0.173941
0.0452622
)
;
    }
    frontAndBack
    {
        type            empty;
    }
}


// ************************************************************************* //
