/*--------------------------------*- C++ -*----------------------------------*\
| =========                 |                                                 |
| \\      /  F ield         | OpenFOAM: The Open Source CFD Toolbox           |
|  \\    /   O peration     | Version:  2506                                  |
|   \\  /    A nd           | Website:  www.openfoam.com                      |
|    \\/     M anipulation  |                                                 |
\*---------------------------------------------------------------------------*/
FoamFile
{
    version     2.0;
    format      ascii;
    arch        "LSB;label=32;scalar=64";
    class       surfaceScalarField;
    location    "4.25";
    object      fluxField;
}
// * * * * * * * * * * * * * * * * * * * * * * * * * * * * * * * * * * * * * //

dimensions      [0 3 -1 0 0 0 0];

oriented        oriented;

internalField   nonuniform List<scalar> 
760
(
-5e-05
3.20171e-16
-5e-05
8.71509e-18
-5e-05
1.13518e-16
-5e-05
-1.83396e-18
-5e-05
2.20223e-17
-5e-05
2.37543e-18
-5e-05
4.7854e-18
-5e-05
1.70651e-18
-5e-05
1.51063e-18
-5e-05
8.80783e-19
-5e-05
6.53413e-19
-5e-05
4.46297e-19
-5e-05
3.24548e-19
-5e-05
2.32026e-19
-5e-05
1.64836e-19
-5e-05
1.13095e-19
-5e-05
7.72531e-20
-5e-05
5.18208e-20
-5e-05
3.05899e-20
8.87582e-21
-5e-05
-1.64118e-15
-5e-05
5.69934e-16
-5e-05
-6.30006e-17
-5e-05
5.34923e-17
-5e-05
1.105e-17
-5e-05
9.99215e-18
-5e-05
5.7643e-18
-5e-05
3.61201e-18
-5e-05
2.48089e-18
-5e-05
1.66131e-18
-5e-05
1.18156e-18
-5e-05
8.31733e-19
-5e-05
5.98068e-19
-5e-05
4.30851e-19
-5e-05
3.11847e-19
-5e-05
2.19947e-19
-5e-05
1.48192e-19
-5e-05
9.50891e-20
-5e-05
5.54502e-20
1.5468e-20
-5e-05
1.52594e-15
-5e-05
-4.61222e-16
-5e-05
1.46328e-16
-5e-05
-1.62263e-17
-5e-05
2.3452e-17
-5e-05
6.67314e-18
-5e-05
7.09127e-18
-5e-05
4.12749e-18
-5e-05
3.0829e-18
-5e-05
2.12301e-18
-5e-05
1.5433e-18
-5e-05
1.10826e-18
-5e-05
8.01955e-19
-5e-05
5.81999e-19
-5e-05
4.25469e-19
-5e-05
3.04528e-19
-5e-05
2.08496e-19
-5e-05
1.34305e-19
-5e-05
7.52731e-20
2.00394e-20
-5e-05
-1.70051e-15
-5e-05
4.53537e-16
-5e-05
-9.80564e-17
-5e-05
3.86226e-17
-5e-05
3.07024e-18
-5e-05
9.30562e-18
-5e-05
5.38363e-18
-5e-05
4.34556e-18
-5e-05
3.10443e-18
-5e-05
2.30736e-18
-5e-05
1.70101e-18
-5e-05
1.25711e-18
-5e-05
9.2653e-19
-5e-05
6.81603e-19
-5e-05
4.99645e-19
-5e-05
3.6156e-19
-5e-05
2.53925e-19
-5e-05
1.64409e-19
-5e-05
9.09102e-20
2.30573e-20
-5e-05
1.22586e-15
-5e-05
-2.88266e-16
-5e-05
8.01995e-17
-5e-05
-9.80032e-18
-5e-05
1.12577e-17
-5e-05
4.79803e-18
-5e-05
5.04758e-18
-5e-05
3.68874e-18
-5e-05
2.92664e-18
-5e-05
2.22179e-18
-5e-05
1.69471e-18
-5e-05
1.28099e-18
-5e-05
9.68073e-19
-5e-05
7.23486e-19
-5e-05
5.32453e-19
-5e-05
3.8873e-19
-5e-05
2.751e-19
-5e-05
1.78661e-19
-5e-05
1.01309e-19
2.60218e-20
-5e-05
-1.02698e-15
-5e-05
2.30323e-16
-5e-05
-5.17737e-17
-5e-05
1.69786e-17
-5e-05
1.60778e-18
-5e-05
5.01484e-18
-5e-05
3.56287e-18
-5e-05
3.1492e-18
-5e-05
2.50584e-18
-5e-05
1.99755e-18
-5e-05
1.5606e-18
-5e-05
1.21094e-18
-5e-05
9.34581e-19
-5e-05
7.11499e-19
-5e-05
5.29293e-19
-5e-05
3.87812e-19
-5e-05
2.76397e-19
-5e-05
1.80743e-19
-5e-05
1.05782e-19
2.76521e-20
-5e-05
7.32724e-16
-5e-05
-1.77896e-16
-5e-05
4.21129e-17
-5e-05
-7.86445e-18
-5e-05
5.30979e-18
-5e-05
2.4354e-18
-5e-05
2.91905e-18
-5e-05
2.40277e-18
-5e-05
2.05942e-18
-5e-05
1.68051e-18
-5e-05
1.35227e-18
-5e-05
1.0722e-18
-5e-05
8.441e-19
-5e-05
6.56232e-19
-5e-05
5.00654e-19
-5e-05
3.70719e-19
-5e-05
2.6245e-19
-5e-05
1.68365e-19
-5e-05
1.01746e-19
2.60722e-20
-5e-05
-7.08096e-16
-5e-05
1.63121e-16
-5e-05
-3.6615e-17
-5e-05
1.01556e-17
-5e-05
-3.40697e-20
-5e-05
2.45677e-18
-5e-05
1.8826e-18
-5e-05
1.81909e-18
-5e-05
1.57375e-18
-5e-05
1.33397e-18
-5e-05
1.10145e-18
-5e-05
8.94211e-19
-5e-05
7.178e-19
-5e-05
5.67971e-19
-5e-05
4.43664e-19
-5e-05
3.34665e-19
-5e-05
2.35041e-19
-5e-05
1.49586e-19
-5e-05
8.95534e-20
2.12567e-20
-5e-05
6.45268e-16
-5e-05
-1.44173e-16
-5e-05
3.40256e-17
-5e-05
-6.63389e-18
-5e-05
2.80973e-18
-5e-05
9.22779e-19
-5e-05
1.37071e-18
-5e-05
1.21186e-18
-5e-05
1.11558e-18
-5e-05
9.72715e-19
-5e-05
8.30457e-19
-5e-05
6.95751e-19
-5e-05
5.6962e-19
-5e-05
4.56724e-19
-5e-05
3.62722e-19
-5e-05
2.77014e-19
-5e-05
1.98007e-19
-5e-05
1.2876e-19
-5e-05
7.31726e-20
1.41934e-20
-5e-05
-6.22864e-16
-5e-05
1.35106e-16
-5e-05
-3.08925e-17
-5e-05
7.15504e-18
-5e-05
-8.6124e-19
-5e-05
9.48519e-19
-5e-05
6.52615e-19
-5e-05
7.22148e-19
-5e-05
6.81491e-19
-5e-05
6.27117e-19
-5e-05
5.58976e-19
-5e-05
4.88084e-19
-5e-05
4.10276e-19
-5e-05
3.3494e-19
-5e-05
2.69325e-19
-5e-05
2.07595e-19
-5e-05
1.5257e-19
-5e-05
1.03086e-19
-5e-05
5.9348e-20
8.5192e-21
-5e-05
5.82963e-16
-5e-05
-1.24868e-16
-5e-05
2.84991e-17
-5e-05
-6.29292e-18
-5e-05
1.22802e-18
-5e-05
-1.93658e-19
-5e-05
2.09148e-19
-5e-05
2.26432e-19
-5e-05
2.81896e-19
-5e-05
3.01469e-19
-5e-05
2.97493e-19
-5e-05
2.80869e-19
-5e-05
2.47821e-19
-5e-05
2.11692e-19
-5e-05
1.74248e-19
-5e-05
1.40203e-19
-5e-05
1.08961e-19
-5e-05
7.52446e-20
-5e-05
4.5113e-20
5.06423e-21
-5e-05
-5.49622e-16
-5e-05
1.15892e-16
-5e-05
-2.7296e-17
-5e-05
5.01909e-18
-5e-05
-1.76023e-18
-5e-05
-2.76985e-19
-5e-05
-4.06039e-19
-5e-05
-2.2446e-19
-5e-05
-1.05902e-19
-5e-05
-1.15281e-20
-5e-05
4.99536e-20
-5e-05
8.25154e-20
-5e-05
9.37126e-20
-5e-05
9.57329e-20
-5e-05
8.84882e-20
-5e-05
8.11395e-20
-5e-05
6.6547e-20
-5e-05
4.26442e-20
-5e-05
2.75528e-20
2.07997e-21
-5e-05
5.25098e-16
-5e-05
-1.10997e-16
-5e-05
2.42281e-17
-5e-05
-6.63763e-18
-5e-05
-2.25863e-19
-5e-05
-1.33782e-18
-5e-05
-8.70963e-19
-5e-05
-6.77591e-19
-5e-05
-4.67674e-19
-5e-05
-2.99715e-19
-5e-05
-1.75859e-19
-5e-05
-9.3257e-20
-5e-05
-3.89709e-20
-5e-05
-5.66922e-21
-5e-05
1.15176e-20
-5e-05
2.63212e-20
-5e-05
2.57886e-20
-5e-05
1.59635e-20
-5e-05
1.42496e-20
-3.04488e-21
-5e-05
-4.7561e-16
-5e-05
1.00442e-16
-5e-05
-2.54633e-17
-5e-05
2.86506e-18
-5e-05
-3.1595e-18
-5e-05
-1.59855e-18
-5e-05
-1.49688e-18
-5e-05
-1.09128e-18
-5e-05
-7.93377e-19
-5e-05
-5.52088e-19
-5e-05
-3.68409e-19
-5e-05
-2.36095e-19
-5e-05
-1.44556e-19
-5e-05
-8.55907e-20
-5e-05
-4.78719e-20
-5e-05
-1.76534e-20
-5e-05
-4.24478e-21
-5e-05
-1.71335e-21
-5e-05
1.71114e-21
-8.82559e-21
-5e-05
4.664e-16
-5e-05
-1.01159e-16
-5e-05
1.9378e-17
-5e-05
-8.28484e-18
-5e-05
-2.25947e-18
-5e-05
-2.79224e-18
-5e-05
-1.99096e-18
-5e-05
-1.48291e-18
-5e-05
-1.0654e-18
-5e-05
-7.46302e-19
-5e-05
-5.10746e-19
-5e-05
-3.35931e-19
-5e-05
-2.18255e-19
-5e-05
-1.39075e-19
-5e-05
-8.59513e-20
-5e-05
-5.06336e-20
-5e-05
-2.81192e-20
-5e-05
-1.75919e-20
-5e-05
-1.0494e-20
-1.1029e-20
-5e-05
-3.85933e-16
-5e-05
8.32397e-17
-5e-05
-2.68724e-17
-5e-05
-6.25066e-19
-5e-05
-5.85055e-18
-5e-05
-3.17017e-18
-5e-05
-2.59863e-18
-5e-05
-1.74443e-18
-5e-05
-1.2383e-18
-5e-05
-8.42508e-19
-5e-05
-5.72533e-19
-5e-05
-3.81291e-19
-5e-05
-2.534e-19
-5e-05
-1.68529e-19
-5e-05
-1.11514e-19
-5e-05
-7.33902e-20
-5e-05
-4.45669e-20
-5e-05
-2.70834e-20
-5e-05
-1.51586e-20
-1.01831e-20
-5e-05
3.99528e-16
-5e-05
-9.3163e-17
-5e-05
3.78042e-18
-5e-05
-1.13661e-17
-5e-05
-6.33321e-18
-5e-05
-3.99088e-18
-5e-05
-2.89472e-18
-5e-05
-1.79959e-18
-5e-05
-1.25178e-18
-5e-05
-8.12145e-19
-5e-05
-5.48562e-19
-5e-05
-3.66832e-19
-5e-05
-2.47419e-19
-5e-05
-1.66063e-19
-5e-05
-1.11846e-19
-5e-05
-7.26334e-20
-5e-05
-4.8687e-20
-5e-05
-2.87346e-20
-5e-05
-1.53665e-20
-8.70434e-21
-5e-05
-2.21554e-16
-5e-05
3.26991e-17
-5e-05
-5.2657e-17
-5e-05
1.57485e-18
-5e-05
-1.23594e-17
-5e-05
-2.09761e-18
-5e-05
-3.23783e-18
-5e-05
-1.34144e-18
-5e-05
-1.09657e-18
-5e-05
-6.32182e-19
-5e-05
-4.44101e-19
-5e-05
-2.92852e-19
-5e-05
-2.0159e-19
-5e-05
-1.30815e-19
-5e-05
-8.37748e-20
-5e-05
-5.31414e-20
-5e-05
-4.05063e-20
-5e-05
-2.41709e-20
-5e-05
-1.41006e-20
-8.05341e-21
-5e-05
2.16665e-16
-5e-05
4.93897e-17
-5e-05
-8.1229e-17
-5e-05
2.03136e-17
-5e-05
-1.70026e-17
-5e-05
1.64556e-18
-5e-05
-3.01466e-18
-5e-05
-4.35224e-19
-5e-05
-7.2884e-19
-5e-05
-3.17249e-19
-5e-05
-2.55506e-19
-5e-05
-1.60606e-19
-5e-05
-1.15409e-19
-5e-05
-7.35602e-20
-5e-05
-4.60449e-20
-5e-05
-2.95923e-20
-5e-05
-2.29601e-20
-5e-05
-1.4293e-20
-5e-05
-8.87708e-21
-6.08762e-21
-5e-05
-5e-05
-5e-05
-5e-05
-5e-05
-5e-05
-5e-05
-5e-05
-5e-05
-5e-05
-5e-05
-5e-05
-5e-05
-5e-05
-5e-05
-5e-05
-5e-05
-5e-05
-5e-05
)
;

boundaryField
{
    movingWall
    {
        type            calculated;
        value           uniform -0;
    }
    fixedWalls
    {
        type            calculated;
        value           nonuniform List<scalar> 
60
(
5e-05
5e-05
5e-05
5e-05
5e-05
5e-05
5e-05
5e-05
5e-05
5e-05
5e-05
5e-05
5e-05
5e-05
5e-05
5e-05
5e-05
5e-05
5e-05
5e-05
-5e-05
-5e-05
-5e-05
-5e-05
-5e-05
-5e-05
-5e-05
-5e-05
-5e-05
-5e-05
-5e-05
-5e-05
-5e-05
-5e-05
-5e-05
-5e-05
-5e-05
-5e-05
-5e-05
-5e-05
0
0
0
0
0
0
0
0
0
0
0
0
0
0
0
0
0
0
0
0
)
;
    }
    frontAndBack
    {
        type            empty;
    }
}


// ************************************************************************* //
