/*--------------------------------*- C++ -*----------------------------------*\
| =========                 |                                                 |
| \\      /  F ield         | OpenFOAM: The Open Source CFD Toolbox           |
|  \\    /   O peration     | Version:  2506                                  |
|   \\  /    A nd           | Website:  www.openfoam.com                      |
|    \\/     M anipulation  |                                                 |
\*---------------------------------------------------------------------------*/
FoamFile
{
    version     2.0;
    format      ascii;
    arch        "LSB;label=32;scalar=64";
    class       volVectorField;
    location    "4.25";
    object      gradPhi;
}
// * * * * * * * * * * * * * * * * * * * * * * * * * * * * * * * * * * * * * //

dimensions      [0 2 -1 0 0 0 0];

internalField   nonuniform List<vector> 
400
(
(-0.02 5.77386e-15 0)
(4.49192e-14 -4.4919e-14 0)
(-3.30641e-14 3.30649e-14 0)
(3.00101e-15 -3.00168e-15 0)
(-6.34613e-15 6.34707e-15 0)
(-3.32527e-16 3.33967e-16 0)
(-1.15144e-15 1.15008e-15 0)
(-3.34181e-16 3.34485e-16 0)
(-3.20946e-16 3.22009e-16 0)
(-1.80325e-16 1.78638e-16 0)
(-1.34003e-16 1.34572e-16 0)
(-9.09899e-17 9.06465e-17 0)
(-6.61744e-17 6.58734e-17 0)
(-4.63221e-17 4.72997e-17 0)
(-3.30872e-17 3.38336e-17 0)
(-2.31611e-17 2.27246e-17 0)
(-1.48893e-17 1.52021e-17 0)
(-1.15805e-17 1.07626e-17 0)
(-6.61744e-18 6.1757e-18 0)
(0 2.10633e-18 0)
(-0.02 -2.14569e-13 0)
(-2.4261e-13 2.4261e-13 0)
(4.45883e-14 -4.45875e-14 0)
(-1.84428e-14 1.84428e-14 0)
(4.97963e-15 -4.9788e-15 0)
(-1.96538e-15 1.96595e-15 0)
(2.81241e-17 -2.88799e-17 0)
(-4.36751e-16 4.36781e-16 0)
(-1.85288e-16 1.84639e-16 0)
(-1.62127e-16 1.6341e-16 0)
(-1.07533e-16 1.05926e-16 0)
(-7.7755e-17 7.83714e-17 0)
(-5.45939e-17 5.51516e-17 0)
(-3.97047e-17 3.97436e-17 0)
(-2.97785e-17 2.88187e-17 0)
(-2.15067e-17 2.17278e-17 0)
(-1.48893e-17 1.50114e-17 0)
(-8.27181e-18 8.27583e-18 0)
(-4.96308e-18 5.24637e-18 0)
(-1.65436e-18 1.02328e-18 0)
(-0.02 3.73735e-13 0)
(3.86092e-13 -3.86092e-13 0)
(-3.17637e-14 3.17642e-14 0)
(2.31462e-14 -2.31475e-14 0)
(-3.81661e-15 3.81923e-15 0)
(9.92617e-16 -9.9306e-16 0)
(-3.70577e-16 3.71206e-16 0)
(-6.61744e-17 6.67223e-17 0)
(-1.22423e-16 1.23096e-16 0)
(-8.93355e-17 8.88523e-17 0)
(-7.27919e-17 7.22958e-17 0)
(-5.62483e-17 5.55393e-17 0)
(-4.1359e-17 4.13363e-17 0)
(-2.97785e-17 3.04621e-17 0)
(-2.31611e-17 2.35925e-17 0)
(-1.8198e-17 1.73945e-17 0)
(-1.15805e-17 1.14137e-17 0)
(-8.27181e-18 7.79404e-18 0)
(-3.30872e-18 3.81628e-18 0)
(-1.65436e-18 9.62313e-19 0)
(-0.02 -3.4113e-13 0)
(-3.5901e-13 3.5901e-13 0)
(3.10507e-14 -3.10516e-14 0)
(-1.80292e-14 1.80283e-14 0)
(5.06565e-15 -5.06522e-15 0)
(-4.61567e-16 4.61933e-16 0)
(4.61567e-16 -4.598e-16 0)
(-2.97785e-17 2.90855e-17 0)
(6.61744e-18 -5.66396e-18 0)
(-3.47416e-17 3.39978e-17 0)
(-3.14329e-17 3.01846e-17 0)
(-2.81241e-17 2.86037e-17 0)
(-2.48154e-17 2.4027e-17 0)
(-1.98523e-17 1.9465e-17 0)
(-1.32349e-17 1.39778e-17 0)
(-1.15805e-17 1.05952e-17 0)
(-9.92617e-18 1.00689e-17 0)
(-4.96308e-18 7.03667e-18 0)
(-4.96308e-18 3.25851e-18 0)
(-1.65436e-18 8.27498e-19 0)
(-0.02 2.65577e-13 0)
(2.71069e-13 -2.71069e-13 0)
(-1.69919e-14 1.69911e-14 0)
(1.26377e-14 -1.26369e-14 0)
(-1.98358e-15 1.98215e-15 0)
(6.55127e-16 -6.54373e-16 0)
(4.96308e-17 -4.96978e-17 0)
(1.1746e-16 -1.18497e-16 0)
(4.46678e-17 -4.29316e-17 0)
(1.8198e-17 -1.8192e-17 0)
(3.30872e-18 -3.0721e-18 0)
(-4.96308e-18 4.1602e-18 0)
(-8.27181e-18 8.02842e-18 0)
(-8.27181e-18 8.44328e-18 0)
(-6.61744e-18 6.94789e-18 0)
(-4.96308e-18 6.04517e-18 0)
(-4.96308e-18 3.70449e-18 0)
(-1.65436e-18 1.65308e-18 0)
(-3.30872e-18 1.78669e-18 0)
(0 1.47915e-19 0)
(-0.02 -1.40715e-13 0)
(-1.4341e-13 1.43411e-13 0)
(4.65041e-15 -4.65136e-15 0)
(-3.87121e-15 3.87163e-15 0)
(9.81036e-16 -9.83135e-16 0)
(4.03664e-16 -4.0287e-16 0)
(2.05141e-16 -2.05093e-16 0)
(1.50547e-16 -1.49956e-16 0)
(7.27919e-17 -7.41587e-17 0)
(5.29396e-17 -5.05397e-17 0)
(2.48154e-17 -2.67585e-17 0)
(1.48893e-17 -1.47073e-17 0)
(6.61744e-18 -6.31536e-18 0)
(3.30872e-18 -1.84902e-18 0)
(1.65436e-18 -1.01009e-18 0)
(0 -9.99366e-19 0)
(0 -4.56885e-19 0)
(-1.65436e-18 1.16172e-18 0)
(-1.65436e-18 1.11708e-18 0)
(0 1.22338e-18 0)
(-0.02 4.76426e-14 0)
(3.85797e-14 -3.85796e-14 0)
(7.60841e-15 -7.60842e-15 0)
(-6.79942e-16 6.7926e-16 0)
(1.60142e-15 -1.6003e-15 0)
(-1.62127e-16 1.60559e-16 0)
(3.29218e-16 -3.28964e-16 0)
(8.10637e-17 -8.12062e-17 0)
(1.09188e-16 -1.09036e-16 0)
(5.79026e-17 -5.7034e-17 0)
(4.46678e-17 -4.45123e-17 0)
(2.64698e-17 -2.76166e-17 0)
(1.98523e-17 -1.96805e-17 0)
(1.48893e-17 -1.26349e-17 0)
(3.30872e-18 -5.5638e-18 0)
(3.30872e-18 -3.42496e-18 0)
(1.65436e-18 -1.79692e-18 0)
(1.65436e-18 -2.69469e-18 0)
(1.65436e-18 -4.86438e-19 0)
(1.65436e-18 -1.40613e-18 0)
(-0.02 3.13413e-14 0)
(4.18256e-14 -4.18253e-14 0)
(-1.52383e-14 1.52374e-14 0)
(6.05662e-15 -6.0553e-15 0)
(-2.61224e-15 2.6115e-15 0)
(8.98318e-16 -8.98031e-16 0)
(-1.0257e-16 1.03816e-16 0)
(2.0845e-16 -2.0955e-16 0)
(7.11375e-17 -6.91303e-17 0)
(7.7755e-17 -7.78066e-17 0)
(4.63221e-17 -4.68012e-17 0)
(3.80503e-17 -3.73956e-17 0)
(2.48154e-17 -2.45984e-17 0)
(1.48893e-17 -1.69621e-17 0)
(1.48893e-17 -1.1858e-17 0)
(6.61744e-18 -6.1558e-18 0)
(4.96308e-18 -5.7588e-18 0)
(3.30872e-18 -5.0032e-18 0)
(4.96308e-18 -3.35849e-18 0)
(-1.65436e-18 2.62213e-19 0)
(-0.02 -9.05777e-14 0)
(-1.04618e-13 1.04618e-13 0)
(2.00012e-14 -2.00015e-14 0)
(-1.02488e-14 1.02497e-14 0)
(4.22524e-15 -4.22478e-15 0)
(-8.27181e-16 8.25753e-16 0)
(5.0458e-16 -5.05682e-16 0)
(4.96308e-18 -3.56493e-18 0)
(1.25731e-16 -1.25429e-16 0)
(6.12114e-17 -6.20924e-17 0)
(5.79026e-17 -5.81598e-17 0)
(3.80503e-17 -3.74593e-17 0)
(2.97785e-17 -3.00492e-17 0)
(2.15067e-17 -2.30333e-17 0)
(1.8198e-17 -1.63042e-17 0)
(1.32349e-17 -1.30411e-17 0)
(6.61744e-18 -8.02303e-18 0)
(3.30872e-18 -1.71463e-18 0)
(1.65436e-18 -2.66913e-18 0)
(3.30872e-18 -2.97641e-18 0)
(-0.02 1.44846e-13 0)
(1.57004e-13 -1.57003e-13 0)
(-2.29758e-14 2.29752e-14 0)
(1.4297e-14 -1.42964e-14 0)
(-4.99286e-15 4.99023e-15 0)
(1.30529e-15 -1.30246e-15 0)
(-3.4907e-16 3.47102e-16 0)
(2.31611e-16 -2.31082e-16 0)
(4.46678e-17 -4.64793e-17 0)
(8.10637e-17 -8.07253e-17 0)
(5.12852e-17 -5.0144e-17 0)
(4.30134e-17 -4.39426e-17 0)
(3.14329e-17 -3.1666e-17 0)
(2.31611e-17 -2.37077e-17 0)
(1.8198e-17 -1.80977e-17 0)
(1.15805e-17 -1.24601e-17 0)
(9.92617e-18 -8.5237e-18 0)
(8.27181e-18 -7.98038e-18 0)
(3.30872e-18 -3.37956e-18 0)
(0 -2.84091e-19 0)
(-0.02 -1.83508e-13 0)
(-1.97206e-13 1.97207e-13 0)
(2.49577e-14 -2.49575e-14 0)
(-1.7035e-14 1.7034e-14 0)
(6.01195e-15 -6.01188e-15 0)
(-1.20768e-15 1.20938e-15 0)
(6.43547e-16 -6.42653e-16 0)
(-4.96308e-17 4.89236e-17 0)
(1.22423e-16 -1.22915e-16 0)
(4.96308e-17 -5.07603e-17 0)
(5.62483e-17 -5.6494e-17 0)
(3.97047e-17 -3.86719e-17 0)
(3.14329e-17 -3.2922e-17 0)
(2.64698e-17 -2.54119e-17 0)
(1.98523e-17 -2.02609e-17 0)
(1.65436e-17 -1.55943e-17 0)
(9.92617e-18 -1.01219e-17 0)
(1.65436e-18 -3.39595e-18 0)
(3.30872e-18 -1.61448e-18 0)
(0 -1.01456e-18 0)
(-0.02 2.15335e-13 0)
(2.26454e-13 -2.26453e-13 0)
(-2.56972e-14 2.56975e-14 0)
(1.92683e-14 -1.92674e-14 0)
(-6.28492e-15 6.28517e-15 0)
(1.53028e-15 -1.53079e-15 0)
(-4.74802e-16 4.75218e-16 0)
(2.465e-16 -2.46046e-16 0)
(2.97785e-17 -3.18687e-17 0)
(7.7755e-17 -7.81583e-17 0)
(4.46678e-17 -4.52085e-17 0)
(4.1359e-17 -4.25261e-17 0)
(3.14329e-17 -3.03646e-17 0)
(2.15067e-17 -2.25904e-17 0)
(1.8198e-17 -1.59657e-17 0)
(9.92617e-18 -1.01449e-17 0)
(6.61744e-18 -6.43087e-18 0)
(8.27181e-18 -7.59676e-18 0)
(3.30872e-18 -5.47148e-18 0)
(1.65436e-18 -2.76123e-19 0)
(-0.02 -2.31291e-13 0)
(-2.43396e-13 2.43396e-13 0)
(2.57882e-14 -2.57898e-14 0)
(-2.00939e-14 2.00943e-14 0)
(6.76634e-15 -6.76651e-15 0)
(-1.32845e-15 1.32815e-15 0)
(7.06412e-16 -7.08146e-16 0)
(-6.94832e-17 6.94299e-17 0)
(1.19114e-16 -1.1845e-16 0)
(4.30134e-17 -4.14805e-17 0)
(4.79765e-17 -4.85813e-17 0)
(3.14329e-17 -3.29654e-17 0)
(2.81241e-17 -2.75119e-17 0)
(2.15067e-17 -2.07541e-17 0)
(1.48893e-17 -1.59888e-17 0)
(1.15805e-17 -1.15679e-17 0)
(9.92617e-18 -1.01518e-17 0)
(4.96308e-18 -5.64533e-18 0)
(1.65436e-18 -1.25973e-18 0)
(1.65436e-18 -1.22341e-18 0)
(-0.02 2.40802e-13 0)
(2.49843e-13 -2.49843e-13 0)
(-2.46533e-14 2.46544e-14 0)
(2.05091e-14 -2.05113e-14 0)
(-6.43216e-15 6.433e-15 0)
(1.56006e-15 -1.56023e-15 0)
(-4.84728e-16 4.85629e-16 0)
(2.39882e-16 -2.39637e-16 0)
(1.8198e-17 -1.92037e-17 0)
(6.78288e-17 -6.61244e-17 0)
(3.47416e-17 -3.56505e-17 0)
(3.14329e-17 -3.09768e-17 0)
(1.8198e-17 -1.98467e-17 0)
(1.65436e-17 -1.5599e-17 0)
(1.15805e-17 -1.30139e-17 0)
(9.92617e-18 -9.40357e-18 0)
(4.96308e-18 -4.43912e-18 0)
(1.65436e-18 -2.69685e-18 0)
(3.30872e-18 -2.53829e-18 0)
(1.65436e-18 -1.38124e-18 0)
(-0.02 -2.34562e-13 0)
(-2.44786e-13 2.44785e-13 0)
(2.33695e-14 -2.33693e-14 0)
(-1.9313e-14 1.93128e-14 0)
(6.52811e-15 -6.52854e-15 0)
(-1.19445e-15 1.19525e-15 0)
(6.76634e-16 -6.78225e-16 0)
(-6.94832e-17 7.02561e-17 0)
(9.92617e-17 -9.9219e-17 0)
(2.64698e-17 -2.5558e-17 0)
(3.30872e-17 -3.30546e-17 0)
(1.8198e-17 -1.79684e-17 0)
(1.65436e-17 -1.65957e-17 0)
(1.15805e-17 -1.14637e-17 0)
(4.96308e-18 -5.72358e-18 0)
(4.96308e-18 -5.13792e-18 0)
(4.96308e-18 -5.60176e-18 0)
(3.30872e-18 -3.6905e-18 0)
(3.30872e-18 -3.32553e-18 0)
(0 -5.50319e-19 0)
(-0.02 2.26143e-13 0)
(2.32261e-13 -2.32259e-13 0)
(-2.01882e-14 2.01873e-14 0)
(1.83469e-14 -1.83465e-14 0)
(-5.51233e-15 5.51264e-15 0)
(1.37974e-15 -1.37999e-15 0)
(-4.11936e-16 4.10194e-16 0)
(1.90252e-16 -1.90998e-16 0)
(-3.30872e-18 4.42181e-18 0)
(3.14329e-17 -3.26656e-17 0)
(8.27181e-18 -8.3471e-18 0)
(1.15805e-17 -1.11597e-17 0)
(6.61744e-18 -5.93478e-18 0)
(4.96308e-18 -5.7224e-18 0)
(6.61744e-18 -6.3487e-18 0)
(4.96308e-18 -6.43023e-18 0)
(4.96308e-18 -3.28697e-18 0)
(1.65436e-18 -1.76524e-18 0)
(0 -2.58989e-19 0)
(0 4.65194e-19 0)
(-0.02 -2.00629e-13 0)
(-2.09022e-13 2.09023e-13 0)
(1.87935e-14 -1.87951e-14 0)
(-1.54534e-14 1.54537e-14 0)
(5.54873e-15 -5.54771e-15 0)
(-9.47949e-16 9.46706e-16 0)
(5.37667e-16 -5.35788e-16 0)
(-1.0257e-16 1.01305e-16 0)
(4.1359e-17 -4.08077e-17 0)
(-1.65436e-17 1.56375e-17 0)
(0 7.33955e-19 0)
(-4.96308e-18 4.15649e-18 0)
(-1.65436e-18 1.12138e-18 0)
(-1.65436e-18 9.54609e-19 0)
(1.65436e-18 2.68524e-19 0)
(-1.65436e-18 1.26592e-18 0)
(1.65436e-18 -1.13365e-18 0)
(0 -8.58575e-19 0)
(0 -6.07366e-19 0)
(0 4.5669e-19 0)
(-0.02 1.87545e-13 0)
(1.89254e-13 -1.89254e-13 0)
(-1.16814e-14 1.16819e-14 0)
(1.32465e-14 -1.32463e-14 0)
(-3.51221e-15 3.5127e-15 0)
(6.9814e-16 -6.99536e-16 0)
(-3.29218e-16 3.29797e-16 0)
(1.98523e-17 -2.15057e-17 0)
(-5.9557e-17 5.99017e-17 0)
(-2.31611e-17 2.53476e-17 0)
(-2.48154e-17 2.34049e-17 0)
(-1.15805e-17 1.3706e-17 0)
(-9.92617e-18 8.6602e-18 0)
(-6.61744e-18 6.22487e-18 0)
(-6.61744e-18 5.52287e-18 0)
(-3.30872e-18 4.01859e-18 0)
(-3.30872e-18 2.34056e-18 0)
(-1.65436e-18 1.46245e-18 0)
(0 6.44969e-19 0)
(0 7.68802e-20 0)
(-0.02 -1.58168e-13 0)
(-1.75993e-13 1.75993e-13 0)
(3.1724e-14 -3.17256e-14 0)
(-1.74452e-14 1.74464e-14 0)
(5.4991e-15 -5.49975e-15 0)
(-1.78671e-15 1.78574e-15 0)
(3.54033e-16 -3.53956e-16 0)
(-2.87859e-16 2.88564e-16 0)
(-4.46678e-17 4.51302e-17 0)
(-7.44463e-17 7.4452e-17 0)
(-3.63959e-17 3.62002e-17 0)
(-2.81241e-17 2.76236e-17 0)
(-1.65436e-17 1.74352e-17 0)
(-1.32349e-17 1.24156e-17 0)
(-8.27181e-18 7.96644e-18 0)
(-4.96308e-18 4.53622e-18 0)
(-3.30872e-18 3.18692e-18 0)
(0 2.34671e-18 0)
(-1.65436e-18 1.56244e-18 0)
(0 -2.82413e-19 0)
(-0.02 5.64082e-14 0)
(8.27561e-14 -8.27566e-14 0)
(-3.02831e-14 3.02839e-14 0)
(1.01032e-14 -1.01037e-14 0)
(-5.71416e-15 5.71292e-15 0)
(7.92439e-16 -7.92062e-16 0)
(-8.25526e-16 8.23844e-16 0)
(-4.46678e-17 4.64899e-17 0)
(-1.6709e-16 1.66096e-16 0)
(-6.12114e-17 6.08018e-17 0)
(-5.29396e-17 5.34666e-17 0)
(-3.14329e-17 3.25826e-17 0)
(-2.48154e-17 2.38516e-17 0)
(-1.32349e-17 1.47199e-17 0)
(-8.27181e-18 9.20714e-18 0)
(-6.61744e-18 6.05207e-18 0)
(-4.96308e-18 4.79733e-18 0)
(-1.65436e-18 2.54896e-18 0)
(-1.65436e-18 1.36144e-18 0)
(-1.65436e-18 1.84299e-18 0)
)
;

boundaryField
{
    movingWall
    {
        type            extrapolatedCalculated;
        value           nonuniform List<vector> 
20
(
(-0.02 5.64082e-14 0)
(8.27561e-14 -8.27566e-14 0)
(-3.02831e-14 3.02839e-14 0)
(1.01032e-14 -1.01037e-14 0)
(-5.71416e-15 5.71292e-15 0)
(7.92439e-16 -7.92062e-16 0)
(-8.25526e-16 8.23844e-16 0)
(-4.46678e-17 4.64899e-17 0)
(-1.6709e-16 1.66096e-16 0)
(-6.12114e-17 6.08018e-17 0)
(-5.29396e-17 5.34666e-17 0)
(-3.14329e-17 3.25826e-17 0)
(-2.48154e-17 2.38516e-17 0)
(-1.32349e-17 1.47199e-17 0)
(-8.27181e-18 9.20714e-18 0)
(-6.61744e-18 6.05207e-18 0)
(-4.96308e-18 4.79733e-18 0)
(-1.65436e-18 2.54896e-18 0)
(-1.65436e-18 1.36144e-18 0)
(-1.65436e-18 1.84299e-18 0)
)
;
    }
    fixedWalls
    {
        type            extrapolatedCalculated;
        value           nonuniform List<vector> 
60
(
(-0.02 5.77386e-15 0)
(-0.02 -2.14569e-13 0)
(-0.02 3.73735e-13 0)
(-0.02 -3.4113e-13 0)
(-0.02 2.65577e-13 0)
(-0.02 -1.40715e-13 0)
(-0.02 4.76426e-14 0)
(-0.02 3.13413e-14 0)
(-0.02 -9.05777e-14 0)
(-0.02 1.44846e-13 0)
(-0.02 -1.83508e-13 0)
(-0.02 2.15335e-13 0)
(-0.02 -2.31291e-13 0)
(-0.02 2.40802e-13 0)
(-0.02 -2.34562e-13 0)
(-0.02 2.26143e-13 0)
(-0.02 -2.00629e-13 0)
(-0.02 1.87545e-13 0)
(-0.02 -1.58168e-13 0)
(-0.02 5.64082e-14 0)
(0 2.10633e-18 0)
(-1.65436e-18 1.02328e-18 0)
(-1.65436e-18 9.62313e-19 0)
(-1.65436e-18 8.27498e-19 0)
(0 1.47915e-19 0)
(0 1.22338e-18 0)
(1.65436e-18 -1.40613e-18 0)
(-1.65436e-18 2.62213e-19 0)
(3.30872e-18 -2.97641e-18 0)
(0 -2.84091e-19 0)
(0 -1.01456e-18 0)
(1.65436e-18 -2.76123e-19 0)
(1.65436e-18 -1.22341e-18 0)
(1.65436e-18 -1.38124e-18 0)
(0 -5.50319e-19 0)
(0 4.65194e-19 0)
(0 4.5669e-19 0)
(0 7.68802e-20 0)
(0 -2.82413e-19 0)
(-1.65436e-18 1.84299e-18 0)
(-0.02 5.77386e-15 0)
(4.49192e-14 -4.4919e-14 0)
(-3.30641e-14 3.30649e-14 0)
(3.00101e-15 -3.00168e-15 0)
(-6.34613e-15 6.34707e-15 0)
(-3.32527e-16 3.33967e-16 0)
(-1.15144e-15 1.15008e-15 0)
(-3.34181e-16 3.34485e-16 0)
(-3.20946e-16 3.22009e-16 0)
(-1.80325e-16 1.78638e-16 0)
(-1.34003e-16 1.34572e-16 0)
(-9.09899e-17 9.06465e-17 0)
(-6.61744e-17 6.58734e-17 0)
(-4.63221e-17 4.72997e-17 0)
(-3.30872e-17 3.38336e-17 0)
(-2.31611e-17 2.27246e-17 0)
(-1.48893e-17 1.52021e-17 0)
(-1.15805e-17 1.07626e-17 0)
(-6.61744e-18 6.1757e-18 0)
(0 2.10633e-18 0)
)
;
    }
    frontAndBack
    {
        type            empty;
    }
}


// ************************************************************************* //
