/*--------------------------------*- C++ -*----------------------------------*\
| =========                 |                                                 |
| \\      /  F ield         | OpenFOAM: The Open Source CFD Toolbox           |
|  \\    /   O peration     | Version:  2506                                  |
|   \\  /    A nd           | Website:  www.openfoam.com                      |
|    \\/     M anipulation  |                                                 |
\*---------------------------------------------------------------------------*/
FoamFile
{
    version     2.0;
    format      ascii;
    arch        "LSB;label=32;scalar=64";
    class       volTensorField;
    location    "4.25";
    object      gradU;
}
// * * * * * * * * * * * * * * * * * * * * * * * * * * * * * * * * * * * * * //

dimensions      [0 0 -1 0 0 0 0];

internalField   nonuniform List<tensor> 
400
(
(-1.77053e-09 2.18644e-06 0 1.14259e-09 1.28068e-09 0 0 0 0)
(3.57581e-09 -2.70543e-06 0 1.75863e-09 3.48604e-11 0 0 0 0)
(-2.39782e-09 6.42371e-07 0 -7.15167e-10 4.54073e-10 0 0 0 0)
(1.03628e-09 -1.52618e-07 0 5.01796e-10 -7.33584e-12 0 0 0 0)
(-4.7713e-10 3.62117e-08 0 -7.275e-11 8.80892e-11 0 0 0 0)
(1.14139e-10 -8.62058e-09 0 9.33769e-11 9.5017e-12 0 0 0 0)
(-6.41306e-11 2.04103e-09 0 1.32002e-11 1.91416e-11 0 0 0 0)
(5.42101e-12 -4.88797e-10 0 2.49095e-11 6.82606e-12 0 0 0 0)
(-1.0571e-11 1.14328e-10 0 1.19262e-11 6.04252e-12 0 0 0 0)
(-2.49366e-12 -2.82941e-11 0 9.89334e-12 3.52313e-12 0 0 0 0)
(-3.14419e-12 6.05017e-12 0 6.39679e-12 2.61365e-12 0 0 0 0)
(-1.70762e-12 -1.89004e-12 0 4.58075e-12 1.78519e-12 0 0 0 0)
(-1.35525e-12 1.42834e-13 0 3.08998e-12 1.29819e-12 0 0 0 0)
(-9.48677e-13 -2.58136e-13 0 2.08709e-12 9.28105e-13 0 0 0 0)
(-6.77626e-13 -1.08725e-13 0 1.38236e-12 6.59345e-13 0 0 0 0)
(-4.60786e-13 -9.6534e-14 0 7.86047e-13 4.52382e-13 0 0 0 0)
(-2.98156e-13 -5.47103e-14 0 4.33681e-13 3.09012e-13 0 0 0 0)
(-2.1684e-13 -4.50055e-14 0 2.1684e-13 2.07283e-13 0 0 0 0)
(-1.0842e-13 -4.60495e-14 0 5.42101e-14 1.2236e-13 0 0 0 0)
(-5.42101e-14 -4.25748e-14 0 0 3.55033e-14 0 0 0 0)
(4.6718e-09 -2.18513e-06 0 -7.28952e-09 -7.84541e-09 0 0 0 0)
(-5.43356e-09 2.7046e-06 0 -7.36986e-10 2.24488e-09 0 0 0 0)
(1.14099e-09 -6.42414e-07 0 2.10986e-10 -7.06076e-10 0 0 0 0)
(-3.93945e-10 1.52252e-07 0 -3.88497e-10 2.21305e-10 0 0 0 0)
(6.87113e-11 -3.61948e-08 0 6.22061e-11 -4.38891e-11 0 0 0 0)
(-2.81622e-11 8.55163e-09 0 -5.99835e-11 3.04669e-11 0 0 0 0)
(-4.3097e-12 -2.04371e-09 0 2.11419e-12 3.9156e-12 0 0 0 0)
(-6.69495e-12 4.75698e-10 0 -9.97466e-12 7.62199e-12 0 0 0 0)
(-4.41812e-12 -1.17631e-10 0 -2.05998e-12 3.88105e-12 0 0 0 0)
(-3.06287e-12 2.48653e-11 0 -2.43945e-12 3.1221e-12 0 0 0 0)
(-2.19551e-12 -7.78811e-12 0 -1.16552e-12 2.11258e-12 0 0 0 0)
(-1.57209e-12 5.74578e-13 0 -8.40257e-13 1.54174e-12 0 0 0 0)
(-1.16552e-12 -9.99916e-13 0 -5.14996e-13 1.09408e-12 0 0 0 0)
(-7.58942e-13 -3.80711e-13 0 -3.25261e-13 7.953e-13 0 0 0 0)
(-5.69206e-13 -3.66999e-13 0 -2.1684e-13 5.88045e-13 0 0 0 0)
(-4.60786e-13 -2.53799e-13 0 -8.13152e-14 4.27405e-13 0 0 0 0)
(-2.98156e-13 -1.90388e-13 0 -8.13152e-14 2.83757e-13 0 0 0 0)
(-1.6263e-13 -1.41647e-13 0 -2.71051e-14 1.73073e-13 0 0 0 0)
(-1.0842e-13 -1.2573e-13 0 0 9.94411e-14 0 0 0 0)
(-2.71051e-14 -1.15288e-13 0 -5.42101e-14 2.63689e-14 0 0 0 0)
(-9.79704e-09 2.18084e-06 0 3.4582e-09 1.26685e-08 0 0 0 0)
(1.10763e-08 -2.69829e-06 0 -4.19071e-10 -4.12462e-09 0 0 0 0)
(-2.04941e-09 6.40348e-07 0 2.04453e-10 8.37315e-10 0 0 0 0)
(8.87555e-10 -1.51956e-07 0 -7.21537e-11 -2.78875e-10 0 0 0 0)
(-1.4859e-10 3.60208e-08 0 -1.52873e-11 4.96078e-11 0 0 0 0)
(5.40746e-11 -8.57278e-09 0 -2.24159e-11 -1.3276e-11 0 0 0 0)
(-1.41759e-11 2.01819e-09 0 -1.02186e-11 5.30789e-12 0 0 0 0)
(1.24683e-12 -4.88832e-10 0 -7.37257e-12 2.06193e-12 0 0 0 0)
(-3.03577e-12 1.09828e-10 0 -4.14707e-12 2.40804e-12 0 0 0 0)
(-1.57209e-12 -3.00626e-11 0 -2.6834e-12 1.8468e-12 0 0 0 0)
(-1.51788e-12 4.46981e-12 0 -1.68051e-12 1.44697e-12 0 0 0 0)
(-1.0842e-12 -2.90854e-12 0 -1.0842e-12 1.1061e-12 0 0 0 0)
(-8.40257e-13 -6.0361e-13 0 -6.77626e-13 8.15546e-13 0 0 0 0)
(-6.23416e-13 -7.64173e-13 0 -4.33681e-13 6.04592e-13 0 0 0 0)
(-4.60786e-13 -4.76621e-13 0 -2.43945e-13 4.54484e-13 0 0 0 0)
(-3.79471e-13 -4.00822e-13 0 -1.35525e-13 3.38326e-13 0 0 0 0)
(-2.1684e-13 -3.09042e-13 0 -2.71051e-14 2.41213e-13 0 0 0 0)
(-1.6263e-13 -2.29321e-13 0 -2.71051e-14 1.56865e-13 0 0 0 0)
(-8.13152e-14 -1.92754e-13 0 0 7.92916e-14 0 0 0 0)
(0 -1.68385e-13 0 0 1.82853e-14 0 0 0 0)
(7.7109e-09 -2.17658e-06 0 5.78883e-09 -1.29058e-08 0 0 0 0)
(-8.68736e-09 2.69277e-06 0 -1.35555e-09 3.65904e-09 0 0 0 0)
(1.48796e-09 -6.38568e-07 0 5.23615e-10 -9.77538e-10 0 0 0 0)
(-6.13658e-10 1.51464e-07 0 -1.29535e-10 2.19395e-10 0 0 0 0)
(1.18395e-10 -3.59292e-08 0 2.9409e-11 -8.15269e-11 0 0 0 0)
(-2.30935e-11 8.50733e-09 0 -2.18196e-11 1.05299e-11 0 0 0 0)
(1.07607e-11 -2.02837e-09 0 -4.87891e-12 -6.83057e-12 0 0 0 0)
(-6.23416e-13 4.72798e-10 0 -6.80337e-12 8.72252e-13 0 0 0 0)
(2.71051e-13 -1.17846e-10 0 -3.68629e-12 8.61059e-14 0 0 0 0)
(-5.96311e-13 2.39042e-11 0 -2.81893e-12 7.37423e-13 0 0 0 0)
(-5.96311e-13 -8.52882e-12 0 -1.78893e-12 6.30815e-13 0 0 0 0)
(-5.69206e-13 -5.6845e-14 0 -1.21973e-12 5.95393e-13 0 0 0 0)
(-5.14996e-13 -1.50142e-12 0 -7.86047e-13 4.98299e-13 0 0 0 0)
(-3.79471e-13 -7.41772e-13 0 -5.42101e-13 3.98415e-13 0 0 0 0)
(-2.71051e-13 -6.33265e-13 0 -3.52366e-13 2.96704e-13 0 0 0 0)
(-2.1684e-13 -4.6707e-13 0 -1.6263e-13 2.28129e-13 0 0 0 0)
(-1.89735e-13 -3.71849e-13 0 -1.0842e-13 1.81719e-13 0 0 0 0)
(-1.35525e-13 -3.03568e-13 0 -8.13152e-14 1.20416e-13 0 0 0 0)
(-8.13152e-14 -2.6431e-13 0 0 6.25482e-14 0 0 0 0)
(-2.71051e-14 -2.12865e-13 0 5.42101e-14 1.20716e-14 0 0 0 0)
(-5.36379e-09 2.17159e-06 0 -8.29645e-09 1.17055e-08 0 0 0 0)
(5.81111e-09 -2.68636e-06 0 1.81994e-09 -2.96721e-09 0 0 0 0)
(-8.23397e-10 6.36908e-07 0 -6.81042e-10 7.13024e-10 0 0 0 0)
(3.93321e-10 -1.5106e-07 0 1.56342e-10 -1.93692e-10 0 0 0 0)
(-4.08473e-11 3.5812e-08 0 -5.14183e-11 3.27498e-11 0 0 0 0)
(1.98409e-11 -8.49808e-09 0 8.13152e-12 -1.80304e-11 0 0 0 0)
(8.13152e-13 2.00853e-09 0 -8.51099e-12 -1.34417e-12 0 0 0 0)
(2.35814e-12 -4.81915e-10 0 -3.11708e-12 -2.62729e-12 0 0 0 0)
(9.48677e-13 1.09693e-10 0 -3.49655e-12 -7.11166e-13 0 0 0 0)
(3.52366e-13 -2.95179e-11 0 -2.24972e-12 -3.42306e-13 0 0 0 0)
(8.13152e-14 4.32778e-12 0 -1.70762e-12 -2.51968e-14 0 0 0 0)
(-8.13152e-14 -3.04106e-12 0 -1.16552e-12 9.55418e-14 0 0 0 0)
(-1.35525e-13 -8.00588e-13 0 -7.86047e-13 1.66174e-13 0 0 0 0)
(-1.6263e-13 -9.65767e-13 0 -5.14996e-13 1.67532e-13 0 0 0 0)
(-1.35525e-13 -6.46907e-13 0 -3.79471e-13 1.31232e-13 0 0 0 0)
(-1.0842e-13 -5.15807e-13 0 -2.71051e-13 1.08681e-13 0 0 0 0)
(-1.0842e-13 -4.16755e-13 0 -1.35525e-13 8.46978e-14 0 0 0 0)
(-2.71051e-14 -3.48492e-13 0 -2.71051e-14 5.70054e-14 0 0 0 0)
(-2.71051e-14 -3.01099e-13 0 -5.42101e-14 4.15953e-14 0 0 0 0)
(-2.71051e-14 -2.43005e-13 0 0 1.18583e-14 0 0 0 0)
(1.23436e-09 -2.16784e-06 0 9.01194e-09 -9.01135e-09 0 0 0 0)
(-1.07184e-09 2.68178e-06 0 -1.93229e-09 2.07436e-09 0 0 0 0)
(-1.75668e-10 -6.35794e-07 0 7.21265e-10 -5.27893e-10 0 0 0 0)
(1.59378e-11 1.50784e-07 0 -1.73581e-10 1.07116e-10 0 0 0 0)
(-2.97885e-11 -3.57536e-08 0 4.87891e-11 -3.85996e-11 0 0 0 0)
(1.97054e-11 8.47324e-09 0 -1.75912e-11 8.67249e-13 0 0 0 0)
(-4.33681e-13 -2.01297e-09 0 1.11131e-12 -5.93884e-12 0 0 0 0)
(4.44523e-12 4.73431e-10 0 -3.82181e-12 -2.15814e-12 0 0 0 0)
(1.11131e-12 -1.15561e-10 0 -1.95156e-12 -1.68319e-12 0 0 0 0)
(1.19262e-12 2.45902e-11 0 -1.92446e-12 -8.96964e-13 0 0 0 0)
(4.87891e-13 -8.09097e-12 0 -1.30104e-12 -5.36405e-13 0 0 0 0)
(3.52366e-13 1.34526e-13 0 -9.75782e-13 -2.80189e-13 0 0 0 0)
(1.35525e-13 -1.42943e-12 0 -7.31836e-13 -1.33967e-13 0 0 0 0)
(2.71051e-14 -7.76714e-13 0 -4.60786e-13 -4.79492e-14 0 0 0 0)
(2.71051e-14 -6.92116e-13 0 -2.71051e-13 -1.26381e-14 0 0 0 0)
(0 -5.13604e-13 0 -1.89735e-13 -3.67522e-15 0 0 0 0)
(0 -4.23524e-13 0 -8.13152e-14 5.18998e-15 0 0 0 0)
(-2.71051e-14 -3.46671e-13 0 -5.42101e-14 8.33014e-15 0 0 0 0)
(0 -3.09457e-13 0 0 1.78933e-14 0 0 0 0)
(-2.71051e-14 -2.66319e-13 0 2.71051e-14 6.52115e-15 0 0 0 0)
(1.71586e-09 2.16466e-06 0 -7.75435e-09 7.03881e-09 0 0 0 0)
(-2.47957e-09 -2.67788e-06 0 1.70922e-09 -1.63288e-09 0 0 0 0)
(9.35368e-10 6.34941e-07 0 -6.16179e-10 3.75547e-10 0 0 0 0)
(-2.79182e-10 -1.5057e-07 0 1.6507e-10 -9.93723e-11 0 0 0 0)
(1.15196e-10 3.57057e-08 0 -4.38289e-11 1.4808e-11 0 0 0 0)
(-2.78369e-11 -8.46542e-09 0 1.37423e-11 -1.03177e-11 0 0 0 0)
(1.45283e-11 2.0055e-09 0 -4.98733e-12 -2.57529e-12 0 0 0 0)
(-6.77626e-13 -4.77659e-10 0 -3.52366e-13 -2.98571e-12 0 0 0 0)
(2.90024e-12 1.10954e-10 0 -1.68051e-12 -1.78567e-12 0 0 0 0)
(9.21572e-13 -2.83711e-11 0 -1.11131e-12 -1.26817e-12 0 0 0 0)
(1.02999e-12 4.94455e-12 0 -1.02999e-12 -8.33327e-13 0 0 0 0)
(4.87891e-13 -2.63862e-12 0 -7.04731e-13 -5.54987e-13 0 0 0 0)
(4.06576e-13 -5.68348e-13 0 -5.69206e-13 -3.61926e-13 0 0 0 0)
(2.71051e-13 -8.44438e-13 0 -4.33681e-13 -2.21066e-13 0 0 0 0)
(1.0842e-13 -6.02633e-13 0 -2.71051e-13 -1.14557e-13 0 0 0 0)
(1.0842e-13 -4.97979e-13 0 -1.6263e-13 -6.83724e-14 0 0 0 0)
(0 -4.04749e-13 0 -1.35525e-13 -5.57888e-14 0 0 0 0)
(2.71051e-14 -3.35789e-13 0 -8.13152e-14 -4.95141e-14 0 0 0 0)
(5.42101e-14 -3.02908e-13 0 0 -1.61457e-14 0 0 0 0)
(0 -2.67419e-13 0 -2.71051e-14 -6.31962e-15 0 0 0 0)
(-4.81074e-09 -2.16244e-06 0 7.0169e-09 -5.76328e-09 0 0 0 0)
(6.0663e-09 2.67511e-06 0 -1.54241e-09 1.36407e-09 0 0 0 0)
(-1.7199e-09 -6.34261e-07 0 5.99754e-10 -3.14912e-10 0 0 0 0)
(5.88397e-10 1.50423e-07 0 -1.45039e-10 7.20803e-11 0 0 0 0)
(-1.8117e-10 -3.56645e-08 0 4.5672e-11 -2.13754e-11 0 0 0 0)
(5.85469e-11 8.45586e-09 0 -1.30375e-11 8.54586e-14 0 0 0 0)
(-1.45012e-11 -2.00563e-09 0 3.27971e-12 -4.14579e-12 0 0 0 0)
(7.77915e-12 4.74221e-10 0 -1.87025e-12 -2.33475e-12 0 0 0 0)
(2.98156e-13 -1.13843e-10 0 -5.42101e-13 -1.94268e-12 0 0 0 0)
(1.87025e-12 2.55425e-11 0 -8.40257e-13 -1.38614e-12 0 0 0 0)
(8.94467e-13 -7.37779e-12 0 -5.96311e-13 -1.00328e-12 0 0 0 0)
(7.58942e-13 6.05927e-13 0 -6.23416e-13 -7.11943e-13 0 0 0 0)
(4.87891e-13 -1.09551e-12 0 -4.33681e-13 -5.05197e-13 0 0 0 0)
(3.52366e-13 -5.29345e-13 0 -3.52366e-13 -3.53047e-13 0 0 0 0)
(2.1684e-13 -5.39422e-13 0 -2.71051e-13 -2.2796e-13 0 0 0 0)
(1.35525e-13 -4.54836e-13 0 -1.35525e-13 -1.44213e-13 0 0 0 0)
(1.35525e-13 -4.04666e-13 0 -5.42101e-14 -1.09637e-13 0 0 0 0)
(8.13152e-14 -3.07028e-13 0 -5.42101e-14 -7.51138e-14 0 0 0 0)
(8.13152e-14 -2.66263e-13 0 -8.13152e-14 -4.87702e-14 0 0 0 0)
(-2.71051e-14 -2.43854e-13 0 2.71051e-14 -1.92622e-14 0 0 0 0)
(7.19035e-09 2.16026e-06 0 -5.9105e-09 5.41345e-09 0 0 0 0)
(-8.89672e-09 -2.67243e-06 0 1.29055e-09 -1.22917e-09 0 0 0 0)
(2.33277e-09 6.33649e-07 0 -5.12286e-10 2.82562e-10 0 0 0 0)
(-8.33291e-10 -1.50277e-07 0 1.2528e-10 -6.7158e-11 0 0 0 0)
(2.47144e-10 3.56337e-08 0 -3.60226e-11 1.13752e-11 0 0 0 0)
(-7.01479e-11 -8.44819e-09 0 1.18178e-11 -6.13595e-12 0 0 0 0)
(2.56685e-11 2.00308e-09 0 -2.92735e-12 -2.04756e-12 0 0 0 0)
(-4.47233e-12 -4.75456e-10 0 7.31836e-13 -2.42889e-12 0 0 0 0)
(3.90313e-12 1.11903e-10 0 -6.23416e-13 -1.8327e-12 0 0 0 0)
(8.40257e-13 -2.74317e-11 0 -2.98156e-13 -1.44502e-12 0 0 0 0)
(1.24683e-12 5.61875e-12 0 -4.06576e-13 -1.08398e-12 0 0 0 0)
(7.04731e-13 -2.14053e-12 0 -4.06576e-13 -7.93839e-13 0 0 0 0)
(6.23416e-13 -2.09451e-13 0 -2.71051e-13 -5.92723e-13 0 0 0 0)
(4.60786e-13 -5.67201e-13 0 -1.89735e-13 -4.44987e-13 0 0 0 0)
(3.52366e-13 -3.93799e-13 0 -1.6263e-13 -3.2377e-13 0 0 0 0)
(2.71051e-13 -3.79657e-13 0 -8.13152e-14 -2.30607e-13 0 0 0 0)
(1.0842e-13 -3.3565e-13 0 -8.13152e-14 -1.48134e-13 0 0 0 0)
(5.42101e-14 -2.74922e-13 0 -5.42101e-14 -8.33061e-14 0 0 0 0)
(8.13152e-14 -2.47056e-13 0 0 -6.5523e-14 0 0 0 0)
(5.42101e-14 -1.99387e-13 0 0 -2.82532e-14 0 0 0 0)
(-9.43069e-09 -2.15825e-06 0 4.81603e-09 -5.07253e-09 0 0 0 0)
(1.14645e-08 2.66998e-06 0 -1.03335e-09 1.11712e-09 0 0 0 0)
(-2.88517e-09 -6.33099e-07 0 4.22839e-10 -2.59672e-10 0 0 0 0)
(1.06466e-09 1.50152e-07 0 -9.78221e-11 5.51557e-11 0 0 0 0)
(-2.94551e-10 -3.56035e-08 0 3.10895e-11 -1.46839e-11 0 0 0 0)
(9.16151e-11 8.44243e-09 0 -8.48388e-12 1.02959e-13 0 0 0 0)
(-2.56414e-11 -2.00193e-09 0 2.79182e-12 -2.8724e-12 0 0 0 0)
(1.0056e-11 4.74436e-10 0 -5.42101e-13 -1.95886e-12 0 0 0 0)
(-7.31836e-13 -1.1286e-10 0 2.71051e-13 -1.73634e-12 0 0 0 0)
(2.08709e-12 2.62912e-11 0 -1.89735e-13 -1.38239e-12 0 0 0 0)
(8.67362e-13 -6.72661e-12 0 -1.89735e-13 -1.08592e-12 0 0 0 0)
(8.67362e-13 1.09719e-12 0 -1.35525e-13 -8.30667e-13 0 0 0 0)
(6.77626e-13 -7.46657e-13 0 -1.0842e-13 -6.37374e-13 0 0 0 0)
(4.33681e-13 -2.60392e-13 0 -8.13152e-14 -4.87136e-13 0 0 0 0)
(3.52366e-13 -3.25043e-13 0 -5.42101e-14 -3.73587e-13 0 0 0 0)
(2.71051e-13 -2.79201e-13 0 -5.42101e-14 -2.77675e-13 0 0 0 0)
(1.89735e-13 -2.57364e-13 0 8.13152e-14 -1.81748e-13 0 0 0 0)
(1.35525e-13 -2.24417e-13 0 5.42101e-14 -1.02697e-13 0 0 0 0)
(8.13152e-14 -2.1121e-13 0 8.13152e-14 -5.52986e-14 0 0 0 0)
(0 -1.50077e-13 0 -2.71051e-14 -2.26967e-14 0 0 0 0)
(1.0973e-08 2.1563e-06 0 -3.46221e-09 4.82331e-09 0 0 0 0)
(-1.32899e-08 -2.66762e-06 0 7.21997e-10 -1.0399e-09 0 0 0 0)
(3.26827e-09 6.32587e-07 0 -3.0111e-10 2.37567e-10 0 0 0 0)
(-1.22509e-09 -1.50032e-07 0 6.90908e-11 -5.37918e-11 0 0 0 0)
(3.36563e-10 3.55787e-08 0 -2.02475e-11 8.35704e-12 0 0 0 0)
(-9.84456e-11 -8.43638e-09 0 6.85758e-12 -4.56871e-12 0 0 0 0)
(3.36103e-11 2.00102e-09 0 -1.19262e-12 -1.77387e-12 0 0 0 0)
(-7.07442e-12 -4.7432e-10 0 7.58942e-13 -1.98286e-12 0 0 0 0)
(4.3097e-12 1.12479e-10 0 2.71051e-14 -1.59838e-12 0 0 0 0)
(4.60786e-13 -2.67813e-11 0 1.89735e-13 -1.30259e-12 0 0 0 0)
(1.27394e-12 6.17048e-12 0 8.13152e-14 -1.04593e-12 0 0 0 0)
(7.58942e-13 -1.69198e-12 0 8.13152e-14 -8.28861e-13 0 0 0 0)
(6.77626e-13 1.3408e-13 0 5.42101e-14 -6.49823e-13 0 0 0 0)
(4.87891e-13 -3.03415e-13 0 8.13152e-14 -4.92992e-13 0 0 0 0)
(4.33681e-13 -1.84338e-13 0 5.42101e-14 -3.80307e-13 0 0 0 0)
(3.52366e-13 -1.87817e-13 0 0 -2.69569e-13 0 0 0 0)
(1.89735e-13 -1.60672e-13 0 0 -1.74437e-13 0 0 0 0)
(2.71051e-14 -1.48472e-13 0 -5.42101e-14 -1.11364e-13 0 0 0 0)
(5.42101e-14 -1.67056e-13 0 -5.42101e-14 -5.69399e-14 0 0 0 0)
(0 -1.21391e-13 0 0 -1.38198e-14 0 0 0 0)
(-1.21709e-08 -2.15447e-06 0 2.09042e-09 -4.53034e-09 0 0 0 0)
(1.46256e-08 2.6654e-06 0 -4.08012e-10 9.63041e-10 0 0 0 0)
(-3.53808e-09 -6.32113e-07 0 1.79273e-10 -2.2318e-10 0 0 0 0)
(1.34552e-09 1.49923e-07 0 -3.76218e-11 4.5248e-11 0 0 0 0)
(-3.56865e-10 -3.55543e-08 0 1.2116e-11 -1.1953e-11 0 0 0 0)
(1.10697e-10 8.4323e-09 0 -2.92735e-12 -3.33306e-13 0 0 0 0)
(-3.16316e-11 -1.99934e-09 0 1.43657e-12 -2.46075e-12 0 0 0 0)
(1.12757e-11 4.74611e-10 0 2.71051e-13 -1.80357e-12 0 0 0 0)
(-1.32815e-12 -1.12179e-10 0 4.87891e-13 -1.55119e-12 0 0 0 0)
(2.08709e-12 2.68437e-11 0 3.52366e-13 -1.25199e-12 0 0 0 0)
(7.58942e-13 -6.25287e-12 0 2.71051e-13 -9.90158e-13 0 0 0 0)
(8.67362e-13 1.49329e-12 0 1.89735e-13 -7.93415e-13 0 0 0 0)
(6.23416e-13 -4.10788e-13 0 1.35525e-13 -6.16432e-13 0 0 0 0)
(4.60786e-13 9.12393e-15 0 5.42101e-14 -4.63837e-13 0 0 0 0)
(2.98156e-13 -1.0162e-13 0 2.71051e-14 -3.43039e-13 0 0 0 0)
(1.89735e-13 -7.33308e-14 0 -5.42101e-14 -2.36252e-13 0 0 0 0)
(1.6263e-13 -9.91598e-14 0 -1.0842e-13 -1.69656e-13 0 0 0 0)
(1.35525e-13 -1.06919e-13 0 5.42101e-14 -1.30402e-13 0 0 0 0)
(1.35525e-13 -1.13666e-13 0 0 -7.02407e-14 0 0 0 0)
(0 -7.93176e-14 0 0 -1.1937e-14 0 0 0 0)
(1.26554e-08 2.15273e-06 0 -7.18718e-10 4.29888e-09 0 0 0 0)
(-1.5201e-08 -2.66331e-06 0 9.25367e-11 -9.07559e-10 0 0 0 0)
(3.63869e-09 6.31669e-07 0 -5.64327e-11 2.06096e-10 0 0 0 0)
(-1.39222e-09 -1.49821e-07 0 6.9931e-12 -4.66269e-11 0 0 0 0)
(3.71204e-10 3.55331e-08 0 -1.87025e-12 6.13747e-12 0 0 0 0)
(-1.09152e-10 -8.42689e-09 0 1.32815e-12 -4.24333e-12 0 0 0 0)
(3.67816e-11 1.99955e-09 0 7.04731e-13 -1.8597e-12 0 0 0 0)
(-7.99599e-12 -4.73411e-10 0 7.86047e-13 -1.81252e-12 0 0 0 0)
(4.39102e-12 1.13031e-10 0 7.31836e-13 -1.44709e-12 0 0 0 0)
(2.71051e-13 -2.62202e-11 0 5.69206e-13 -1.15275e-12 0 0 0 0)
(1.13841e-12 6.62905e-12 0 4.87891e-13 -9.03251e-13 0 0 0 0)
(6.23416e-13 -1.31826e-12 0 4.06576e-13 -7.03089e-13 0 0 0 0)
(5.69206e-13 4.63659e-13 0 2.71051e-13 -5.30734e-13 0 0 0 0)
(3.79471e-13 -3.00216e-14 0 1.89735e-13 -4.05609e-13 0 0 0 0)
(2.98156e-13 4.32459e-14 0 1.35525e-13 -3.07882e-13 0 0 0 0)
(2.71051e-13 -1.4434e-14 0 1.35525e-13 -2.19273e-13 0 0 0 0)
(1.6263e-13 -5.48215e-14 0 8.13152e-14 -1.63033e-13 0 0 0 0)
(1.35525e-13 -4.90573e-14 0 5.42101e-14 -1.06723e-13 0 0 0 0)
(5.42101e-14 -4.85913e-14 0 0 -5.32126e-14 0 0 0 0)
(0 -3.92135e-14 0 0 -2.04994e-14 0 0 0 0)
(-1.2797e-08 -2.15108e-06 0 -6.88035e-10 -4.00283e-09 0 0 0 0)
(1.52878e-08 2.6613e-06 0 2.25189e-10 8.45756e-10 0 0 0 0)
(-3.62367e-09 -6.31252e-07 0 -7.275e-11 -1.98765e-10 0 0 0 0)
(1.40014e-09 1.49723e-07 0 2.38253e-11 3.80107e-11 0 0 0 0)
(-3.62557e-10 -3.55119e-08 0 -6.966e-12 -1.17345e-11 0 0 0 0)
(1.13299e-10 8.42431e-09 0 3.36103e-12 -1.04292e-12 0 0 0 0)
(-3.21195e-11 -1.99691e-09 0 4.33681e-13 -2.50367e-12 0 0 0 0)
(1.12757e-11 4.75024e-10 0 1.38236e-12 -1.65478e-12 0 0 0 0)
(-1.5992e-12 -1.1152e-10 0 8.67362e-13 -1.30281e-12 0 0 0 0)
(1.87025e-12 2.73875e-11 0 7.86047e-13 -1.00949e-12 0 0 0 0)
(5.69206e-13 -5.80322e-12 0 6.77626e-13 -7.70198e-13 0 0 0 0)
(5.96311e-13 1.86581e-12 0 4.87891e-13 -5.71351e-13 0 0 0 0)
(4.33681e-13 -1.13308e-13 0 2.98156e-13 -4.2234e-13 0 0 0 0)
(2.98156e-13 2.31975e-13 0 2.43945e-13 -3.19686e-13 0 0 0 0)
(2.71051e-13 8.47159e-14 0 1.89735e-13 -2.37558e-13 0 0 0 0)
(1.89735e-13 7.1518e-14 0 1.0842e-13 -1.75899e-13 0 0 0 0)
(8.13152e-14 1.33905e-14 0 2.71051e-14 -1.20134e-13 0 0 0 0)
(8.13152e-14 2.90137e-15 0 0 -7.07073e-14 0 0 0 0)
(5.42101e-14 -2.74422e-14 0 0 -5.0154e-14 0 0 0 0)
(0 -5.60558e-15 0 0 -2.31229e-14 0 0 0 0)
(1.21926e-08 2.14958e-06 0 1.79164e-09 3.76804e-09 0 0 0 0)
(-1.45857e-08 -2.6595e-06 0 -4.86129e-10 -8.06401e-10 0 0 0 0)
(3.43735e-09 6.30861e-07 0 1.69352e-10 1.79365e-10 0 0 0 0)
(-1.32647e-09 -1.49634e-07 0 -4.94667e-11 -4.45996e-11 0 0 0 0)
(3.50794e-10 3.5494e-08 0 1.61546e-11 3.6001e-12 0 0 0 0)
(-1.01834e-10 -8.41766e-09 0 -2.98156e-12 -4.77476e-12 0 0 0 0)
(3.47487e-11 1.99894e-09 0 3.17129e-12 -1.97633e-12 0 0 0 0)
(-7.5081e-12 -4.7221e-10 0 1.19262e-12 -1.56649e-12 0 0 0 0)
(3.90313e-12 1.13676e-10 0 1.43657e-12 -1.08809e-12 0 0 0 0)
(0 -2.56876e-11 0 9.48677e-13 -7.76855e-13 0 0 0 0)
(8.40257e-13 7.06719e-12 0 7.04731e-13 -5.69349e-13 0 0 0 0)
(2.98156e-13 -9.70399e-13 0 4.33681e-13 -3.99345e-13 0 0 0 0)
(3.52366e-13 7.15324e-13 0 3.52366e-13 -2.94799e-13 0 0 0 0)
(2.43945e-13 1.5476e-13 0 2.43945e-13 -2.13939e-13 0 0 0 0)
(1.35525e-13 1.87033e-13 0 1.6263e-13 -1.52318e-13 0 0 0 0)
(2.71051e-14 1.0299e-13 0 8.13152e-14 -1.31921e-13 0 0 0 0)
(8.13152e-14 5.03696e-14 0 5.42101e-14 -9.54977e-14 0 0 0 0)
(1.0842e-13 2.09223e-14 0 0 -6.35141e-14 0 0 0 0)
(8.13152e-14 -1.00679e-15 0 0 -4.88205e-14 0 0 0 0)
(0 3.40634e-14 0 0 -8.81355e-15 0 0 0 0)
(-1.14915e-08 -2.14812e-06 0 -3.07927e-09 -3.40933e-09 0 0 0 0)
(1.36655e-08 2.65772e-06 0 7.71654e-10 7.37594e-10 0 0 0 0)
(-3.18696e-09 -6.3049e-07 0 -2.89509e-10 -1.85002e-10 0 0 0 0)
(1.24691e-09 1.49547e-07 0 7.93636e-11 3.06391e-11 0 0 0 0)
(-3.16045e-10 -3.54721e-08 0 -2.16298e-11 -1.43643e-11 0 0 0 0)
(1.00316e-10 8.41873e-09 0 1.06252e-11 -1.51171e-12 0 0 0 0)
(-2.79724e-11 -1.9937e-09 0 6.50521e-13 -2.43066e-12 0 0 0 0)
(9.54098e-12 4.75912e-10 0 2.92735e-12 -1.0461e-12 0 0 0 0)
(-1.81604e-12 -1.1073e-10 0 1.51788e-12 -6.91621e-13 0 0 0 0)
(1.19262e-12 2.79062e-11 0 1.38236e-12 -3.84825e-13 0 0 0 0)
(5.42101e-14 -5.4257e-12 0 8.94467e-13 -2.47149e-13 0 0 0 0)
(1.6263e-13 2.14036e-12 0 6.77626e-13 -1.81438e-13 0 0 0 0)
(1.35525e-13 7.20986e-14 0 4.06576e-13 -1.40577e-13 0 0 0 0)
(1.89735e-13 3.74457e-13 0 2.43945e-13 -1.17815e-13 0 0 0 0)
(1.0842e-13 1.66734e-13 0 1.89735e-13 -1.02253e-13 0 0 0 0)
(1.0842e-13 1.28338e-13 0 1.35525e-13 -9.10264e-14 0 0 0 0)
(2.71051e-14 8.17974e-14 0 8.13152e-14 -6.57908e-14 0 0 0 0)
(0 4.95786e-14 0 8.13152e-14 -3.79661e-14 0 0 0 0)
(5.42101e-14 2.72583e-14 0 5.42101e-14 -1.86583e-14 0 0 0 0)
(0 5.20285e-14 0 2.71051e-14 3.38363e-15 0 0 0 0)
(9.88494e-09 2.14691e-06 0 3.44874e-09 3.14184e-09 0 0 0 0)
(-1.1796e-08 -2.65628e-06 0 -8.84628e-10 -7.05611e-10 0 0 0 0)
(2.74509e-09 6.30154e-07 0 3.23878e-10 1.22611e-10 0 0 0 0)
(-1.05862e-09 -1.49463e-07 0 -8.34836e-11 -4.29641e-11 0 0 0 0)
(2.82055e-10 3.54619e-08 0 3.24176e-11 -1.93064e-12 0 0 0 0)
(-7.95533e-11 -8.40572e-09 0 -2.62919e-12 -3.28287e-12 0 0 0 0)
(2.70779e-11 1.99941e-09 0 6.17995e-12 -1.18438e-12 0 0 0 0)
(-6.64074e-12 -4.70471e-10 0 2.24972e-12 -2.20637e-13 0 0 0 0)
(2.27682e-12 1.14338e-10 0 2.19551e-12 -5.38938e-14 0 0 0 0)
(-6.23416e-13 -2.52432e-11 0 1.32815e-12 1.21451e-13 0 0 0 0)
(1.0842e-13 7.27057e-12 0 9.21572e-13 9.58848e-14 0 0 0 0)
(-1.0842e-13 -8.63828e-13 0 6.77626e-13 5.78324e-14 0 0 0 0)
(-5.42101e-14 7.78948e-13 0 5.14996e-13 2.39224e-14 0 0 0 0)
(0 1.93084e-13 0 3.79471e-13 9.86552e-15 0 0 0 0)
(0 2.13822e-13 0 1.6263e-13 -1.32642e-15 0 0 0 0)
(-5.42101e-14 1.39452e-13 0 1.35525e-13 3.02731e-15 0 0 0 0)
(5.42101e-14 1.0343e-13 0 5.42101e-14 -1.64802e-14 0 0 0 0)
(0 6.80548e-14 0 0 -6.60471e-15 0 0 0 0)
(2.71051e-14 4.03429e-14 0 0 -8.31793e-16 0 0 0 0)
(-2.71051e-14 4.93381e-14 0 0 5.91492e-15 0 0 0 0)
(-8.9274e-09 -2.14568e-06 0 -4.67484e-09 -2.48433e-09 0 0 0 0)
(1.05407e-08 2.6547e-06 0 1.08987e-09 5.03449e-10 0 0 0 0)
(-2.3859e-09 -6.29827e-07 0 -4.20779e-10 -2.2575e-10 0 0 0 0)
(9.5548e-10 1.49423e-07 0 1.43819e-10 5.17638e-11 0 0 0 0)
(-2.35163e-10 -3.54324e-08 0 -2.69966e-11 -2.41048e-11 0 0 0 0)
(7.41052e-11 8.41948e-09 0 2.20093e-11 7.5731e-12 0 0 0 0)
(-2.31206e-11 -1.99064e-09 0 1.11131e-12 -1.37244e-12 0 0 0 0)
(5.55654e-12 4.77043e-10 0 4.63496e-12 1.83261e-12 0 0 0 0)
(-2.76472e-12 -1.10388e-10 0 1.5992e-12 6.20812e-13 0 0 0 0)
(-5.42101e-14 2.8056e-11 0 1.43657e-12 7.19852e-13 0 0 0 0)
(-5.96311e-13 -5.48932e-12 0 8.40257e-13 4.17843e-13 0 0 0 0)
(-2.1684e-13 2.0684e-12 0 5.69206e-13 2.95923e-13 0 0 0 0)
(-1.6263e-13 2.41318e-14 0 4.06576e-13 1.83315e-13 0 0 0 0)
(-1.6263e-13 3.49208e-13 0 2.1684e-13 1.40992e-13 0 0 0 0)
(-1.0842e-13 1.59895e-13 0 1.6263e-13 1.12285e-13 0 0 0 0)
(-1.0842e-13 1.13184e-13 0 8.13152e-14 7.79679e-14 0 0 0 0)
(-2.71051e-14 7.21653e-14 0 8.13152e-14 3.27227e-14 0 0 0 0)
(-2.71051e-14 6.5227e-14 0 0 1.82548e-14 0 0 0 0)
(0 3.9778e-14 0 0 5.06352e-15 0 0 0 0)
(0 4.69453e-14 0 -2.71051e-14 2.60372e-15 0 0 0 0)
(6.29995e-09 2.14492e-06 0 2.93979e-09 1.75287e-09 0 0 0 0)
(-7.54187e-09 -2.65402e-06 0 1.07496e-09 6.67622e-11 0 0 0 0)
(1.79902e-09 6.29703e-07 0 -5.31666e-10 -1.14288e-10 0 0 0 0)
(-6.64779e-10 -1.49261e-07 0 3.26182e-10 7.49549e-11 0 0 0 0)
(1.60191e-10 3.54177e-08 0 -8.79559e-11 -1.85727e-11 0 0 0 0)
(-5.14454e-11 -8.38299e-09 0 4.45336e-11 1.49727e-11 0 0 0 0)
(9.70361e-12 1.99366e-09 0 -6.74916e-12 8.92677e-13 0 0 0 0)
(-6.07153e-12 -4.68478e-10 0 6.34258e-12 3.62487e-12 0 0 0 0)
(-9.48677e-13 1.13225e-10 0 5.14996e-13 1.47094e-12 0 0 0 0)
(-1.40946e-12 -2.54461e-11 0 1.32815e-12 1.25973e-12 0 0 0 0)
(-7.86047e-13 6.84665e-12 0 5.96311e-13 7.5438e-13 0 0 0 0)
(-5.42101e-13 -1.09836e-12 0 4.60786e-13 5.28984e-13 0 0 0 0)
(-3.79471e-13 6.24017e-13 0 2.43945e-13 3.44724e-13 0 0 0 0)
(-2.43945e-13 1.22055e-13 0 1.35525e-13 2.29018e-13 0 0 0 0)
(-1.6263e-13 1.50798e-13 0 1.0842e-13 1.5092e-13 0 0 0 0)
(-8.13152e-14 5.989e-14 0 8.13152e-14 9.41965e-14 0 0 0 0)
(-8.13152e-14 4.37168e-14 0 5.42101e-14 7.01847e-14 0 0 0 0)
(-2.71051e-14 4.03956e-14 0 5.42101e-14 3.95113e-14 0 0 0 0)
(-2.71051e-14 2.46918e-14 0 5.42101e-14 2.08942e-14 0 0 0 0)
(0 4.16708e-14 0 5.42101e-14 7.86318e-15 0 0 0 0)
(-4.9126e-09 -2.14386e-06 0 3.68818e-10 -8.66659e-10 0 0 0 0)
(7.06919e-09 2.65283e-06 0 -1.75614e-09 -1.97559e-10 0 0 0 0)
(-3.13465e-09 -6.29819e-07 0 8.41504e-10 3.24916e-10 0 0 0 0)
(1.39914e-09 1.49518e-07 0 -4.20535e-10 -8.12543e-11 0 0 0 0)
(-5.16812e-10 -3.54924e-08 0 1.07146e-10 6.80103e-11 0 0 0 0)
(1.55285e-10 8.43894e-09 0 -6.39137e-11 -6.58223e-12 0 0 0 0)
(-6.13387e-11 -2.00199e-09 0 3.27971e-12 1.20587e-11 0 0 0 0)
(1.28207e-11 4.77621e-10 0 -1.23328e-11 1.7409e-12 0 0 0 0)
(-7.72494e-12 -1.12753e-10 0 -3.38813e-12 2.91536e-12 0 0 0 0)
(2.71051e-14 2.73395e-11 0 -3.65918e-12 1.26899e-12 0 0 0 0)
(-1.46367e-12 -6.22007e-12 0 -2.00577e-12 1.02202e-12 0 0 0 0)
(-5.69206e-13 1.65874e-12 0 -1.40946e-12 6.42423e-13 0 0 0 0)
(-5.14996e-13 -2.75835e-13 0 -8.94467e-13 4.61637e-13 0 0 0 0)
(-2.43945e-13 1.55403e-13 0 -5.42101e-13 2.94241e-13 0 0 0 0)
(-1.89735e-13 2.50741e-14 0 -3.52366e-13 1.8418e-13 0 0 0 0)
(-1.6263e-13 3.24492e-14 0 -2.1684e-13 1.18369e-13 0 0 0 0)
(-8.13152e-14 1.74802e-14 0 -1.35525e-13 9.18405e-14 0 0 0 0)
(-2.71051e-14 1.59365e-14 0 -5.42101e-14 5.71721e-14 0 0 0 0)
(-2.71051e-14 8.12982e-15 0 -5.42101e-14 3.55083e-14 0 0 0 0)
(-5.42101e-14 1.8188e-14 0 -5.42101e-14 2.43505e-14 0 0 0 0)
)
;

boundaryField
{
    movingWall
    {
        type            extrapolatedCalculated;
        value           nonuniform List<tensor> 
20
(
(-4.9126e-09 -2.14386e-06 0 3.45417e-08 1.12452e-05 0 0 0 0)
(7.06919e-09 2.65283e-06 0 -1.48913e-08 -2.66973e-06 0 0 0 0)
(-3.13465e-09 -6.29819e-07 0 6.26494e-09 6.33856e-07 0 0 0 0)
(1.39914e-09 1.49518e-07 0 -2.3527e-09 -1.50454e-07 0 0 0 0)
(-5.16812e-10 -3.54924e-08 0 6.68354e-10 3.57831e-08 0 0 0 0)
(1.55285e-10 8.43894e-09 0 -2.85327e-10 -8.48471e-09 0 0 0 0)
(-6.13387e-11 -2.00199e-09 0 4.71623e-11 2.02733e-09 0 0 0 0)
(1.28207e-11 4.77621e-10 0 -4.01457e-11 -4.7676e-10 0 0 0 0)
(-7.72494e-12 -1.12753e-10 0 -4.04121e-12 1.16848e-10 0 0 0 0)
(2.71051e-14 2.73395e-11 0 -9.19265e-12 -2.57478e-11 0 0 0 0)
(-1.46367e-12 -6.22007e-12 0 -4.13003e-12 7.48975e-12 0 0 0 0)
(-5.69206e-13 1.65874e-12 0 -3.28626e-12 -8.67474e-13 0 0 0 0)
(-5.14996e-13 -2.75835e-13 0 -1.95399e-12 8.54779e-13 0 0 0 0)
(-2.43945e-13 1.55403e-13 0 -1.24345e-12 2.35864e-13 0 0 0 0)
(-1.89735e-13 2.50741e-14 0 -8.43769e-13 2.33167e-13 0 0 0 0)
(-1.6263e-13 3.24492e-14 0 -5.32907e-13 1.35568e-13 0 0 0 0)
(-8.13152e-14 1.74802e-14 0 -3.10862e-13 1.0337e-13 0 0 0 0)
(-2.71051e-14 1.59365e-14 0 -1.33227e-13 6.56473e-14 0 0 0 0)
(-2.71051e-14 8.12982e-15 0 -1.77636e-13 3.96239e-14 0 0 0 0)
(-5.42101e-14 1.8188e-14 0 -1.33227e-13 3.3128e-14 0 0 0 0)
)
;
    }
    fixedWalls
    {
        type            extrapolatedCalculated;
        value           nonuniform List<tensor> 
60
(
(-1.89035e-08 1.14687e-05 0 1.14259e-09 1.28068e-09 0 0 0 0)
(2.34738e-08 -1.14636e-05 0 -7.28952e-09 -7.84541e-09 0 0 0 0)
(-4.80616e-08 1.14374e-05 0 3.4582e-09 1.26685e-08 0 0 0 0)
(3.73066e-08 -1.14129e-05 0 5.78883e-09 -1.29058e-08 0 0 0 0)
(-2.49062e-08 1.13857e-05 0 -8.29645e-09 1.17055e-08 0 0 0 0)
(4.12061e-09 -1.13661e-05 0 9.01194e-09 -9.01135e-09 0 0 0 0)
(1.11416e-08 1.13497e-05 0 -7.75435e-09 7.03881e-09 0 0 0 0)
(-2.68967e-08 -1.1338e-05 0 7.0169e-09 -5.76328e-09 0 0 0 0)
(3.92093e-08 1.13266e-05 0 -5.9105e-09 5.41345e-09 0 0 0 0)
(-5.05387e-08 -1.13163e-05 0 4.81603e-09 -5.07253e-09 0 0 0 0)
(5.84733e-08 1.13063e-05 0 -3.46221e-09 4.82331e-09 0 0 0 0)
(-6.43876e-08 -1.1297e-05 0 2.09042e-09 -4.53034e-09 0 0 0 0)
(6.68351e-08 1.12882e-05 0 -7.18718e-10 4.29888e-09 0 0 0 0)
(-6.72624e-08 -1.12798e-05 0 -6.88035e-10 -4.00283e-09 0 0 0 0)
(6.40829e-08 1.12722e-05 0 1.79164e-09 3.76804e-09 0 0 0 0)
(-6.00959e-08 -1.12648e-05 0 -3.07927e-09 -3.40933e-09 0 0 0 0)
(5.17659e-08 1.12586e-05 0 3.44874e-09 3.14184e-09 0 0 0 0)
(-4.63009e-08 -1.12522e-05 0 -4.67484e-09 -2.48433e-09 0 0 0 0)
(3.30665e-08 1.12486e-05 0 2.93979e-09 1.75287e-09 0 0 0 0)
(-3.45417e-08 -1.12452e-05 0 3.68818e-10 -8.66659e-10 0 0 0 0)
(-4.44089e-14 -4.00057e-14 0 0 3.55033e-14 0 0 0 0)
(0 -1.02007e-13 0 -5.42101e-14 2.63689e-14 0 0 0 0)
(8.88178e-14 -1.45481e-13 0 0 1.82853e-14 0 0 0 0)
(0 -1.75149e-13 0 5.42101e-14 1.20716e-14 0 0 0 0)
(0 -1.93768e-13 0 0 1.18583e-14 0 0 0 0)
(-4.44089e-14 -2.22582e-13 0 2.71051e-14 6.52115e-15 0 0 0 0)
(0 -2.19852e-13 0 -2.71051e-14 -6.31962e-15 0 0 0 0)
(-4.44089e-14 -1.97303e-13 0 2.71051e-14 -1.92622e-14 0 0 0 0)
(-8.88178e-14 -1.42803e-13 0 0 -2.82532e-14 0 0 0 0)
(0 -8.42907e-14 0 -2.71051e-14 -2.26967e-14 0 0 0 0)
(0 -5.20164e-14 0 0 -1.38198e-14 0 0 0 0)
(0 -2.90114e-14 0 0 -1.1937e-14 0 0 0 0)
(0 -4.26824e-15 0 0 -2.04994e-14 0 0 0 0)
(0 5.29862e-14 0 0 -2.31229e-14 0 0 0 0)
(0 8.82233e-14 0 0 -8.81355e-15 0 0 0 0)
(-4.44089e-14 8.82404e-14 0 2.71051e-14 3.38363e-15 0 0 0 0)
(-4.44089e-14 7.46887e-14 0 0 5.91492e-15 0 0 0 0)
(0 6.45807e-14 0 -2.71051e-14 2.60372e-15 0 0 0 0)
(0 6.42739e-14 0 5.42101e-14 7.86318e-15 0 0 0 0)
(-1.33227e-13 3.3128e-14 0 -5.42101e-14 2.43505e-14 0 0 0 0)
(-1.77053e-09 2.18644e-06 0 -1.89035e-08 1.14687e-05 0 0 0 0)
(3.57581e-09 -2.70543e-06 0 1.18213e-08 -2.72298e-06 0 0 0 0)
(-2.39782e-09 6.42371e-07 0 -4.60014e-09 6.47032e-07 0 0 0 0)
(1.03628e-09 -1.52618e-07 0 2.22986e-09 -1.53492e-07 0 0 0 0)
(-4.7713e-10 3.62117e-08 0 -4.54925e-10 3.656e-08 0 0 0 0)
(1.14139e-10 -8.62058e-09 0 3.21343e-10 -8.64533e-09 0 0 0 0)
(-6.41306e-11 2.04103e-09 0 1.68754e-12 2.07765e-09 0 0 0 0)
(5.42101e-12 -4.88797e-10 0 6.47482e-11 -4.81206e-10 0 0 0 0)
(-1.0571e-11 1.14328e-10 0 2.34479e-11 1.22466e-10 0 0 0 0)
(-2.49366e-12 -2.82941e-11 0 2.23377e-11 -2.38941e-11 0 0 0 0)
(-3.14419e-12 6.05017e-12 0 1.35447e-11 9.28915e-12 0 0 0 0)
(-1.70762e-12 -1.89004e-12 0 9.81437e-12 3.06611e-13 0 0 0 0)
(-1.35525e-12 1.42834e-13 0 6.61693e-12 1.729e-12 0 0 0 0)
(-9.48677e-13 -2.58136e-13 0 4.44089e-12 8.77946e-13 0 0 0 0)
(-6.77626e-13 -1.08725e-13 0 2.88658e-12 6.96451e-13 0 0 0 0)
(-4.60786e-13 -9.6534e-14 0 1.64313e-12 4.43045e-13 0 0 0 0)
(-2.98156e-13 -5.47103e-14 0 9.76996e-13 3.10315e-13 0 0 0 0)
(-2.1684e-13 -4.50055e-14 0 4.88498e-13 2.24204e-13 0 0 0 0)
(-1.0842e-13 -4.60495e-14 0 1.33227e-13 1.30293e-13 0 0 0 0)