/*--------------------------------*- C++ -*----------------------------------*\
| =========                 |                                                 |
| \\      /  F ield         | OpenFOAM: The Open Source CFD Toolbox           |
|  \\    /   O peration     | Version:  2506                                  |
|   \\  /    A nd           | Website:  www.openfoam.com                      |
|    \\/     M anipulation  |                                                 |
\*---------------------------------------------------------------------------*/
FoamFile
{
    version     2.0;
    format      ascii;
    arch        "LSB;label=32;scalar=64";
    class       volVectorField;
    location    "4.25";
    object      LambVectorField;
}
// * * * * * * * * * * * * * * * * * * * * * * * * * * * * * * * * * * * * * //

dimensions      [0 1 -2 0 0 0 0];

internalField   nonuniform List<vector> 
400
(
(-6.26566e-14 -2.1853e-06 0)
(-1.8429e-14 2.70719e-06 -0)
(-1.04024e-15 -6.43087e-07 0)
(-5.87566e-17 1.5312e-07 -0)
(-3.31639e-18 -3.62844e-08 0)
(-1.88338e-19 8.71396e-09 -0)
(-1.05328e-20 -2.02783e-09 0)
(-6.17997e-22 5.13707e-10 -0)
(-3.13517e-23 -1.02402e-10 0)
(-2.28113e-24 3.81875e-11 -0)
(8.04966e-27 3.46626e-13 0)
(4.96004e-27 6.47079e-12 0)
(1.2739e-26 2.94714e-12 0)
(5.14745e-27 2.34523e-12 0)
(2.59617e-27 1.49108e-12 0)
(9.77558e-28 8.82581e-13 0)
(3.78888e-28 4.88391e-13 0)
(1.46767e-28 2.61846e-13 0)
(3.26579e-29 1.0026e-13 0)
(4.25808e-30 4.25748e-14 0)
(-6.24147e-14 2.17784e-06 -0)
(-1.84174e-14 -2.70534e-06 0)
(-1.03658e-15 6.42625e-07 -0)
(-5.85615e-17 -1.5264e-07 0)
(-3.28195e-18 3.6257e-08 -0)
(-1.86944e-19 -8.61162e-09 0)
(-1.02347e-20 2.04582e-09 -0)
(-6.17424e-22 -4.85673e-10 0)
(-2.84003e-23 1.15571e-10 -0)
(-2.59303e-24 -2.73047e-11 0)
(1.9296e-26 6.62259e-12 0)
(-2.41729e-26 -1.41483e-12 0)
(4.19913e-27 4.8492e-13 0)
(3.92932e-28 5.54504e-14 0)
(7.28616e-28 1.50158e-13 0)
(5.8924e-28 1.72484e-13 0)
(2.52432e-28 1.09073e-13 0)
(1.73224e-28 1.14542e-13 0)
(1.12889e-28 1.2573e-13 0)
(1.55761e-29 6.10782e-14 0)
(-6.22588e-14 -2.17738e-06 0)
(-1.8305e-14 2.69787e-06 -0)
(-1.03096e-15 -6.40143e-07 0)
(-5.79461e-17 1.51884e-07 -0)
(-3.27788e-18 -3.60361e-08 0)
(-1.82197e-19 8.55036e-09 -0)
(-1.06152e-20 -2.02841e-09 0)
(-5.42506e-22 4.81459e-10 -0)
(-3.93185e-23 -1.13975e-10 0)
(-7.80693e-25 2.73792e-11 -0)
(-2.72759e-25 -6.15032e-12 0)
(2.9525e-26 1.82434e-12 0)
(-1.12974e-27 -7.40164e-14 0)
(3.35379e-27 3.30492e-13 0)
(1.77335e-27 2.32675e-13 0)
(1.42773e-27 2.65296e-13 0)
(1.01874e-27 2.81936e-13 0)
(4.63327e-28 2.02216e-13 0)
(2.54463e-28 1.92754e-13 0)
(6.1242e-29 1.68385e-13 0)
(-6.22682e-14 2.18237e-06 -0)
(-1.82299e-14 -2.69413e-06 0)
(-1.02553e-15 6.39091e-07 -0)
(-5.77372e-17 -1.51594e-07 0)
(-3.2371e-18 3.59586e-08 -0)
(-1.84022e-19 -8.52915e-09 0)
(-1.00156e-20 2.02349e-09 -0)
(-6.19595e-22 -4.79602e-10 0)
(-2.53045e-23 1.1416e-10 -0)
(-3.03132e-24 -2.67231e-11 0)
(1.17162e-25 6.73988e-12 0)
(-3.27308e-26 -1.16288e-12 0)
(1.20289e-26 7.15374e-13 0)
(2.6221e-27 1.99671e-13 0)
(2.63965e-27 2.80899e-13 0)
(2.07003e-27 3.0444e-13 0)
(1.24508e-27 2.63428e-13 0)
(6.84756e-28 2.22253e-13 0)
(4.46891e-28 2.6431e-13 0)
(1.16945e-28 2.67075e-13 0)
(-6.20491e-14 -2.17989e-06 0)
(-1.81409e-14 2.68818e-06 -0)
(-1.02062e-15 -6.37589e-07 0)
(-5.73597e-17 1.51216e-07 -0)
(-3.23293e-18 -3.58634e-08 0)
(-1.8036e-19 8.50621e-09 -0)
(-1.0418e-20 -2.01704e-09 0)
(-5.35331e-22 4.78798e-10 -0)
(-3.91451e-23 -1.1319e-10 0)
(-5.76446e-25 2.72682e-11 -0)
(-3.05734e-25 -6.0354e-12 0)
(4.15205e-26 1.87554e-12 0)
(2.94403e-28 1.45411e-14 0)
(6.37031e-27 4.50771e-13 0)
(2.83178e-27 2.67436e-13 0)
(1.87556e-27 2.44757e-13 0)
(1.52723e-27 2.81229e-13 0)
(1.12338e-27 3.21387e-13 0)
(4.80353e-28 2.46888e-13 0)
(1.17716e-28 2.43005e-13 0)
(-6.1856e-14 2.17686e-06 -0)
(-1.80798e-14 -2.68371e-06 0)
(-1.01686e-15 6.36516e-07 -0)
(-5.72025e-17 -1.50958e-07 0)
(-3.21131e-18 3.58024e-08 -0)
(-1.81664e-19 -8.49083e-09 0)
(-9.99603e-21 2.01408e-09 -0)
(-6.04022e-22 -4.77253e-10 0)
(-2.59905e-23 1.13609e-10 -0)
(-2.91691e-24 -2.65146e-11 0)
(1.16321e-25 6.78993e-12 0)
(-3.23119e-26 -1.11031e-12 0)
(1.28892e-26 6.97594e-13 0)
(4.67809e-27 3.15928e-13 0)
(4.50939e-27 4.21065e-13 0)
(2.55412e-27 3.23869e-13 0)
(1.90728e-27 3.42209e-13 0)
(1.06778e-27 2.92461e-13 0)
(6.51944e-28 3.09457e-13 0)
(1.63277e-28 2.93424e-13 0)
(-6.16405e-14 -2.17241e-06 0)
(-1.80273e-14 2.67959e-06 -0)
(-1.01401e-15 -6.35557e-07 0)
(-5.7016e-17 1.50735e-07 -0)
(-3.20887e-18 -3.57495e-08 0)
(-1.79713e-19 8.47916e-09 -0)
(-1.02648e-20 -2.01049e-09 0)
(-5.43965e-22 4.77307e-10 -0)
(-3.70573e-23 -1.12635e-10 0)
(-8.20779e-25 2.72598e-11 -0)
(-2.70604e-25 -5.97454e-12 0)
(3.73937e-26 1.93389e-12 0)
(-1.623e-29 -8.58431e-16 0)
(5.60788e-27 4.10757e-13 0)
(3.4691e-27 3.31583e-13 0)
(2.55744e-27 3.35349e-13 0)
(1.47601e-27 2.69224e-13 0)
(9.10686e-28 2.54474e-13 0)
(6.43545e-28 3.02908e-13 0)
(1.32084e-28 2.40314e-13 0)
(-6.1493e-14 2.16945e-06 -0)
(-1.79886e-14 -2.67666e-06 0)
(-1.01183e-15 6.34861e-07 -0)
(-5.69053e-17 -1.50568e-07 0)
(-3.19775e-18 3.57102e-08 -0)
(-1.80321e-19 -8.46889e-09 0)
(-1.00221e-20 2.00891e-09 -0)
(-5.88336e-22 -4.76091e-10 0)
(-2.79432e-23 1.13301e-10 -0)
(-2.56783e-24 -2.63828e-11 0)
(5.96641e-26 6.78148e-12 0)
(-2.89533e-26 -1.22934e-12 0)
(9.83302e-27 6.61828e-13 0)
(2.22936e-27 1.76979e-13 0)
(2.56669e-27 2.68372e-13 0)
(2.29985e-27 3.19311e-13 0)
(1.75773e-27 3.50455e-13 0)
(7.97864e-28 2.52818e-13 0)
(3.59775e-28 1.84948e-13 0)
(1.33653e-28 2.70959e-13 0)
(-6.13385e-14 -2.16617e-06 0)
(-1.79514e-14 2.67372e-06 -0)
(-1.00978e-15 -6.34161e-07 0)
(-5.67815e-17 1.50402e-07 -0)
(-3.19408e-18 -3.56697e-08 0)
(-1.793e-19 8.46001e-09 -0)
(-1.01587e-20 -2.00601e-09 0)
(-5.53807e-22 4.76188e-10 -0)
(-3.48356e-23 -1.12526e-10 0)
(-1.19309e-24 2.71335e-11 -0)
(-2.12453e-25 -6.02532e-12 0)
(2.1183e-26 1.73396e-12 0)
(-8.53438e-28 -6.15994e-14 0)
(3.82073e-27 3.77466e-13 0)
(1.89157e-27 2.31169e-13 0)
(1.84497e-27 2.98342e-13 0)
(1.11553e-27 2.54335e-13 0)
(6.24077e-28 2.20712e-13 0)
(4.04395e-28 2.47056e-13 0)
(7.11826e-29 1.99387e-13 0)
(-6.11949e-14 2.16307e-06 -0)
(-1.79179e-14 -2.67102e-06 0)
(-1.0079e-15 6.33522e-07 -0)
(-5.66841e-17 -1.5025e-07 0)
(-3.18693e-18 3.56346e-08 -0)
(-1.79419e-19 -8.45092e-09 0)
(-1.00423e-20 2.00472e-09 -0)
(-5.75424e-22 -4.74978e-10 0)
(-2.99744e-23 1.13131e-10 -0)
(-2.19473e-24 -2.6481e-11 0)
(-1.33465e-26 6.53687e-12 -0)
(-1.92469e-26 -1.23271e-12 0)
(5.69954e-27 6.38237e-13 0)
(1.45892e-27 1.79076e-13 0)
(1.71335e-27 2.70833e-13 0)
(1.10166e-27 2.24991e-13 0)
(1.19697e-27 3.38679e-13 0)
(6.47202e-28 2.78627e-13 0)
(3.77371e-28 2.92525e-13 0)
(2.59136e-29 1.22972e-13 0)
(-6.10476e-14 -2.15976e-06 0)
(-1.78855e-14 2.66834e-06 -0)
(-1.00611e-15 -6.32888e-07 0)
(-5.6585e-17 1.50101e-07 -0)
(-3.18251e-18 -3.55989e-08 0)
(-1.78936e-19 8.44324e-09 -0)
(-1.0082e-20 -2.00221e-09 0)
(-5.61824e-22 4.75079e-10 -0)
(-3.28601e-23 -1.12452e-10 0)
(-1.55879e-24 2.6971e-11 -0)
(-1.4858e-25 -6.08916e-12 0)
(6.93344e-27 1.7733e-12 0)
(-5.97498e-28 -7.98696e-14 0)
(2.0201e-27 3.8473e-13 0)
(1.06077e-27 2.38548e-13 0)
(6.39955e-28 1.87817e-13 0)
(4.12701e-28 1.60672e-13 0)
(1.69728e-28 9.42621e-14 0)
(1.22311e-28 1.12846e-13 0)
(1.57858e-29 1.21391e-13 0)
(-6.09068e-14 2.15656e-06 -0)
(-1.78552e-14 -2.66581e-06 0)
(-1.00445e-15 6.32292e-07 -0)
(-5.64942e-17 -1.4996e-07 0)
(-3.17786e-18 3.55664e-08 -0)
(-1.78701e-19 -8.43523e-09 0)
(-1.0058e-20 2.00078e-09 -0)
(-5.65246e-22 -4.7434e-10 0)
(-3.16525e-23 1.12667e-10 -0)
(-1.85051e-24 -2.64913e-11 0)
(-8.15558e-26 6.52393e-12 -0)
(-9.54839e-27 -1.30356e-12 0)
(1.32859e-27 5.46314e-13 0)
(1.45041e-28 4.50862e-14 0)
(3.24792e-28 1.28725e-13 0)
(4.20805e-29 1.91207e-14 0)
(-1.65747e-29 -9.26045e-15 0)
(1.94835e-28 1.61129e-13 0)
(8.19128e-29 1.13666e-13 0)
(5.75278e-30 7.93176e-14 0)
(-6.07717e-14 -2.15345e-06 0)
(-1.78267e-14 2.6634e-06 -0)
(-1.00286e-15 -6.31726e-07 0)
(-5.64142e-17 1.49828e-07 -0)
(-3.17255e-18 -3.5535e-08 0)
(-1.78646e-19 8.42822e-09 -0)
(-1.00158e-20 -1.99885e-09 0)
(-5.69333e-22 4.74197e-10 -0)
(-3.10734e-23 -1.12299e-10 0)
(-1.88369e-24 2.67895e-11 -0)
(-8.90417e-26 -6.14116e-12 0)
(-6.94116e-27 1.72483e-12 -0)
(-2.53586e-28 -1.92608e-13 0)
(1.34566e-28 2.19757e-13 0)
(9.37906e-29 9.22793e-14 0)
(1.56677e-28 1.49959e-13 0)
(1.18716e-28 1.36137e-13 0)
(5.12809e-29 1.03267e-13 0)
(1.85358e-29 4.85913e-14 0)
(4.18431e-31 3.92135e-14 0)
(-6.06401e-14 2.15039e-06 -0)
(-1.77994e-14 -2.66108e-06 0)
(-1.00138e-15 6.31179e-07 -0)
(-5.6326e-17 -1.49699e-07 0)
(-3.17019e-18 3.55049e-08 -0)
(-1.78041e-19 -8.42095e-09 0)
(-1.00779e-20 1.99734e-09 -0)
(-5.55829e-22 -4.73641e-10 0)
(-3.32001e-23 1.12387e-10 -0)
(-1.55156e-24 -2.66015e-11 0)
(-1.39555e-25 6.48084e-12 -0)
(-4.05064e-28 -1.37792e-12 0)
(-1.18313e-27 4.11463e-13 -0)
(-1.00441e-29 1.197e-14 -0)
(-5.83565e-29 1.0502e-13 -0)
(2.97088e-31 3.69022e-14 0)
(2.18757e-30 1.37145e-14 0)
(-4.11868e-31 -2.90137e-15 0)
(5.17344e-30 2.74422e-14 0)
(-7.42546e-31 5.60558e-15 -0)
(-6.05258e-14 -2.14779e-06 0)
(-1.77749e-14 2.65902e-06 -0)
(-9.99961e-16 -6.30692e-07 0)
(-5.62656e-17 1.49584e-07 -0)
(-3.16329e-18 -3.54779e-08 0)
(-1.78446e-19 8.41467e-09 -0)
(-9.95045e-21 -1.99577e-09 0)
(-5.76213e-22 4.73402e-10 -0)
(-2.95947e-23 -1.1224e-10 0)
(-2.14182e-24 2.66363e-11 -0)
(-4.32468e-26 -6.36246e-12 0)
(-1.36726e-26 1.40408e-12 -0)
(1.05505e-27 -3.62958e-13 -0)
(-2.30502e-28 8.91856e-14 -0)
(3.31688e-29 -2.44031e-14 -0)
(1.54802e-29 -2.16753e-14 -0)
(-1.26467e-30 3.84049e-15 -0)
(4.40394e-30 -2.09223e-14 -0)
(-1.20892e-31 1.00679e-15 -0)
(7.51296e-30 -3.40634e-14 -0)
(-6.04083e-14 2.14504e-06 -0)
(-1.77503e-14 -2.65694e-06 0)
(-9.98693e-16 6.302e-07 -0)
(-5.61723e-17 -1.49468e-07 0)
(-3.16405e-18 3.54504e-08 -0)
(-1.77368e-19 -8.4081e-09 0)
(-1.01022e-20 1.99435e-09 -0)
(-5.47649e-22 -4.72985e-10 0)
(-3.43803e-23 1.12248e-10 -0)
(-1.34098e-24 -2.65239e-11 0)
(-1.7208e-25 6.32017e-12 -0)
(5.41136e-27 -1.46274e-12 -0)
(-1.9478e-27 3.34477e-13 -0)
(3.88727e-28 -1.30511e-13 -0)
(-4.78173e-29 2.30018e-14 -0)
(-9.42378e-30 7.18737e-15 -0)
(3.83579e-31 -4.82205e-16 -0)
(-1.5652e-29 3.17366e-14 -0)
(-8.077e-30 2.69518e-14 -0)
(5.49813e-30 -2.49234e-14 -0)
(-6.03307e-14 -2.14346e-06 0)
(-1.77311e-14 2.65539e-06 -0)
(-9.9743e-16 -6.29831e-07 0)
(-5.61429e-17 1.49379e-07 -0)
(-3.15388e-18 -3.54295e-08 0)
(-1.78328e-19 8.40309e-09 -0)
(-9.88932e-21 -1.99323e-09 0)
(-5.80328e-22 4.7272e-10 -0)
(-2.87933e-23 -1.12142e-10 0)
(-2.23884e-24 2.65713e-11 -0)
(-2.74639e-26 -6.349e-12 0)
(-1.78071e-26 1.54145e-12 -0)
(1.13831e-27 -2.63952e-13 -0)
(-7.0131e-28 1.86386e-13 -0)
(1.21924e-28 -5.11913e-14 -0)
(6.37926e-30 -3.92703e-15 -0)
(4.85901e-29 -4.92198e-14 -0)
(4.01626e-29 -6.80548e-14 -0)
(1.23715e-29 -4.03429e-14 -0)
(9.21249e-30 -4.93381e-14 -0)
(-6.02275e-14 2.14101e-06 -0)
(-1.77093e-14 -2.65361e-06 0)
(-9.96663e-16 6.29407e-07 -0)
(-5.60371e-17 -1.49279e-07 0)
(-3.16071e-18 3.54054e-08 -0)
(-1.76868e-19 -8.39747e-09 0)
(-1.01126e-20 1.99175e-09 -0)
(-5.45938e-22 -4.72408e-10 0)
(-3.43608e-23 1.11987e-10 -0)
(-1.37814e-24 -2.66195e-11 0)
(-1.66267e-25 6.32958e-12 -0)
(4.67922e-27 -1.49919e-12 -0)
(-2.13564e-27 3.82444e-13 -0)
(3.81197e-28 -1.32368e-13 -0)
(-5.72189e-30 2.73498e-15 -0)
(4.08205e-29 -3.1869e-14 -0)
(-8.78631e-30 9.14982e-15 -0)
(3.6477e-29 -6.5227e-14 -0)
(1.22517e-29 -3.9778e-14 -0)
(1.19556e-29 -7.40504e-14 -0)
(-6.02361e-14 -2.14199e-06 0)
(-1.77157e-14 2.6551e-06 -0)
(-9.96647e-16 -6.30234e-07 0)
(-5.61436e-17 1.49588e-07 -0)
(-3.15211e-18 -3.55056e-08 0)
(-1.78208e-19 8.42752e-09 -0)
(-9.89753e-21 -2.00041e-09 0)
(-5.74204e-22 4.7482e-10 -0)
(-2.96388e-23 -1.1271e-10 0)
(-2.06321e-24 2.67743e-11 -0)
(-5.31537e-26 -6.25033e-12 0)
(-1.33976e-26 1.55914e-12 -0)
(9.42358e-28 -3.80071e-13 -0)
(-3.16933e-29 1.34708e-14 -0)
(5.33482e-29 -4.23775e-14 -0)
(-1.80994e-29 2.14252e-14 -0)
(-6.92535e-30 1.04933e-14 -0)
(-5.63082e-30 1.38145e-14 -0)
(-7.55738e-30 2.95183e-14 -0)
(-2.01487e-30 1.25393e-14 -0)
(-6.02806e-14 2.14423e-06 -0)
(-1.77176e-14 -2.65459e-06 0)
(-9.9937e-16 6.30661e-07 -0)
(-5.63973e-17 -1.49939e-07 0)
(-3.18465e-18 3.55995e-08 -0)
(-1.80361e-19 -8.50286e-09 0)
(-1.01634e-20 2.00527e-09 -0)
(-5.83975e-22 -4.89954e-10 0)
(-3.19476e-23 1.09365e-10 -0)
(-1.99537e-24 -3.09986e-11 0)
(-7.89102e-26 4.2143e-12 -0)
(-6.65398e-27 -3.06821e-12 0)
(1.32198e-27 -6.18632e-13 -0)
(4.11291e-28 -6.97504e-13 -0)
(2.20016e-28 -3.7744e-13 -0)
(8.44892e-29 -2.4929e-13 -0)
(3.95404e-29 -1.53005e-13 -0)
(1.15123e-29 -7.01466e-14 -0)
(6.17537e-30 -6.23399e-14 -0)
(5.99601e-30 -7.23981e-14 -0)
)
;

boundaryField
{
    movingWall
    {
        type            calculated;
        value           nonuniform List<vector> 
20
(
(0 2.1784e-06 -0)
(0 -2.66772e-06 -0)
(0 6.36084e-07 -0)
(0 -1.51871e-07 -0)
(0 3.61607e-08 -0)
(0 -8.72427e-09 -0)
(0 2.04915e-09 -0)
(0 -5.17766e-10 -0)
(0 1.08712e-10 -0)
(0 -3.65321e-11 -0)
(0 2.09004e-12 -0)
(0 -4.945e-12 -0)
(0 -1.67816e-12 -0)
(0 -1.39885e-12 -0)
(0 -8.68844e-13 -0)
(0 -5.65356e-13 -0)
(0 -3.28343e-13 -0)
(0 -1.49163e-13 -0)
(0 -1.85765e-13 -0)
(0 -1.51415e-13 -0)
)
;
    }
    fixedWalls
    {
        type            calculated;
        value           nonuniform List<vector> 
60
(
(0 -1.14676e-05 -0)
(0 1.14563e-05 -0)
(0 -1.14339e-05 -0)
(0 1.14187e-05 -0)
(0 -1.1394e-05 -0)
(0 1.13751e-05 -0)
(0 -1.13574e-05 -0)
(0 1.1345e-05 -0)
(0 -1.13325e-05 -0)
(0 1.13211e-05 -0)
(0 -1.13098e-05 -0)
(0 1.12991e-05 -0)
(0 -1.12889e-05 -0)
(0 1.12791e-05 -0)
(0 -1.12704e-05 -0)
(0 1.12617e-05 -0)
(0 -1.12551e-05 -0)
(0 1.12475e-05 -0)
(0 -1.12457e-05 -0)
(0 1.12455e-05 -0)
(0 4.00057e-14 -0)
(0 4.77973e-14 -0)
(0 1.45481e-13 -0)
(0 2.29359e-13 -0)
(0 1.93768e-13 -0)
(0 2.49687e-13 -0)
(0 1.92747e-13 -0)
(0 2.24408e-13 -0)
(0 1.42803e-13 -0)
(0 5.71857e-14 -0)
(0 5.20164e-14 -0)
(0 2.90114e-14 -0)
(0 4.26824e-15 -0)
(0 -5.29862e-14 -0)
(0 -8.82233e-14 -0)
(0 -6.11354e-14 -0)
(0 -7.46887e-14 -0)
(0 -9.16858e-14 -0)
(0 -1.00637e-14 -0)
(0 -8.73381e-14 -0)
(0 -2.20534e-06 -0)
(0 2.71725e-06 -0)
(0 -6.46972e-07 -0)
(0 1.54848e-07 -0)
(0 -3.66666e-08 -0)
(0 8.94193e-09 -0)
(0 -2.03934e-09 -0)
(0 5.53545e-10 -0)
(0 -9.088e-11 -0)
(0 5.06318e-11 -0)
(0 7.49455e-12 -0)
(0 1.17044e-11 -0)
(0 6.4741e-12 -0)
(0 4.69903e-12 -0)
(0 2.9953e-12 -0)
(0 1.73966e-12 -0)
(0 1.03171e-12 -0)
(0 5.33504e-13 -0)
(0 1.79276e-13 -0)
(0 8.69837e-14 -0)
)
;
    }
    frontAndBack
    {
        type            empty;
    }
}


// ************************************************************************* //
