/*--------------------------------*- C++ -*----------------------------------*\
| =========                 |                                                 |
| \\      /  F ield         | OpenFOAM: The Open Source CFD Toolbox           |
|  \\    /   O peration     | Version:  2506                                  |
|   \\  /    A nd           | Website:  www.openfoam.com                      |
|    \\/     M anipulation  |                                                 |
\*---------------------------------------------------------------------------*/
FoamFile
{
    version     2.0;
    format      ascii;
    arch        "LSB;label=32;scalar=64";
    class       volScalarField;
    location    "4.25";
    object      Lambda2Field;
}
// * * * * * * * * * * * * * * * * * * * * * * * * * * * * * * * * * * * * * //

dimensions      [0 0 -2 0 0 0 0];

internalField   nonuniform List<scalar> 
400
(
2.49984e-15
-4.74506e-15
-4.53653e-16
-7.55092e-17
-2.40674e-18
-7.91936e-19
2.73084e-20
-1.21291e-20
1.40001e-21
-2.67511e-22
4.55328e-23
-5.4709e-24
2.12666e-24
3.22627e-25
2.84439e-25
1.28769e-25
6.51699e-26
3.32072e-26
9.25859e-27
1.26048e-27
1.59504e-14
-1.96373e-15
-1.34238e-16
-5.89942e-17
-2.24682e-18
-5.12029e-19
-4.30222e-21
-4.68683e-21
2.5738e-22
-5.09101e-23
1.35402e-23
1.89418e-24
1.71197e-24
6.99823e-25
4.03576e-25
2.03312e-25
9.59996e-26
3.0288e-26
9.88854e-27
6.94511e-27
7.63776e-15
1.14779e-15
1.31622e-16
1.10419e-17
-5.2858e-19
1.92343e-19
-2.04221e-20
3.6055e-21
-4.46249e-22
8.31414e-23
-5.2076e-24
4.32894e-24
1.07414e-24
6.96938e-25
3.22825e-25
1.68786e-25
5.53964e-26
3.08225e-26
6.28717e-27
0
-1.24333e-14
-3.57472e-15
-3.3215e-16
-1.92433e-17
-1.04262e-18
-1.85093e-19
9.94289e-21
-3.21586e-21
4.34422e-22
-6.68403e-23
1.56131e-23
3.93331e-25
1.42849e-24
5.46114e-25
2.96609e-25
1.2298e-25
7.33376e-26
3.91847e-26
3.91227e-27
-1.08048e-26
-1.78795e-14
-4.85525e-15
-4.33083e-16
-2.34623e-17
-1.83972e-18
-6.87086e-20
-1.70928e-20
1.50773e-21
-3.82648e-22
6.65241e-23
-7.38358e-24
3.55102e-24
6.47666e-25
5.23815e-25
2.62704e-25
1.51565e-25
6.36545e-26
1.01806e-26
1.70573e-26
1.4062e-28
-1.94553e-14
-5.17767e-15
-4.58298e-16
-2.61617e-17
-1.74289e-18
-1.48666e-19
-2.20175e-21
-1.78961e-21
2.2676e-22
-4.59004e-23
1.07647e-23
-7.10628e-27
1.06406e-24
3.58634e-25
1.87758e-25
9.74489e-26
3.44389e-26
1.88625e-26
0
-6.4839e-27
-1.6736e-14
-4.57093e-15
-3.90362e-16
-2.47767e-17
-1.55167e-18
-1.15559e-19
-9.79104e-21
1.6877e-22
-1.78049e-22
3.23783e-23
-4.03197e-24
2.09756e-24
4.54498e-25
4.15087e-25
1.75099e-25
8.56613e-26
5.48537e-26
2.80394e-26
2.60683e-28
7.24841e-27
-1.51404e-14
-4.08933e-15
-3.77442e-16
-2.1471e-17
-1.59605e-18
-1.06816e-19
-6.36762e-21
-8.26396e-22
6.18036e-23
-1.79644e-23
5.19953e-24
1.29119e-25
7.13139e-25
3.10685e-25
1.9323e-25
8.00089e-26
3.39573e-26
2.22861e-26
2.40297e-26
-5.87498e-27
-1.27165e-14
-3.36976e-15
-3.19167e-16
-1.81322e-17
-1.22254e-18
-9.49183e-20
-5.20485e-21
-3.27954e-22
-5.45278e-23
8.88495e-24
-7.29856e-25
1.36694e-24
4.08092e-25
3.05632e-25
1.6887e-25
8.40516e-26
3.90484e-26
1.78423e-26
4.29327e-27
7.98241e-28
-1.03053e-14
-2.6276e-15
-2.59375e-16
-1.35547e-17
-1.02013e-18
-6.32313e-20
-4.93154e-21
-1.56069e-22
-2.75758e-23
-6.32434e-25
2.02859e-24
5.41311e-25
4.87198e-25
2.09253e-25
1.41782e-25
8.86039e-26
1.21047e-26
0
-1.05624e-26
4.06785e-27
-7.34516e-15
-1.74939e-15
-1.79797e-16
-8.86496e-18
-6.07103e-19
-4.81616e-20
-1.25681e-21
-3.09934e-22
5.60357e-24
-3.38461e-24
1.59573e-24
4.38408e-25
4.29538e-25
2.13365e-25
1.34641e-25
7.26674e-26
3.04283e-26
8.78338e-27
1.19949e-26
0
-4.35562e-15
-8.73608e-16
-1.00803e-16
-3.82994e-18
-3.03421e-19
-1.24304e-20
-1.87163e-21
1.31896e-22
-5.23251e-23
1.10263e-23
-7.14432e-25
9.12839e-25
3.24316e-25
2.12818e-25
8.61424e-26
3.99748e-26
3.71995e-26
1.12085e-26
4.93376e-27
0
-1.38705e-15
-1.53831e-17
-2.24067e-17
0
0
0
1.41261e-21
-3.08187e-22
8.48143e-23
-1.35959e-23
4.05012e-24
-4.16372e-26
4.07353e-25
1.38302e-25
9.47577e-26
4.61245e-26
2.19908e-26
8.73034e-27
2.83158e-27
0
1.49604e-15
6.00011e-16
4.59631e-17
3.56864e-18
2.47513e-19
2.83154e-20
0
6.59391e-22
-9.41704e-23
2.25469e-23
-3.33921e-24
1.23675e-24
1.44587e-25
1.45486e-25
7.25074e-26
3.86943e-26
6.97511e-27
4.99953e-27
2.51542e-27
0
3.86548e-15
1.29351e-15
1.0687e-16
7.40387e-18
5.73405e-19
2.51205e-20
6.34313e-21
-5.06796e-22
1.64488e-22
-2.37658e-23
5.30463e-24
-2.61367e-25
3.38962e-25
8.35227e-26
4.87844e-26
9.10937e-27
9.3427e-27
4.03404e-27
2.38344e-27
0
6.62625e-15
2.05138e-15
1.82567e-16
1.18695e-17
7.67461e-19
8.94528e-20
-5.1449e-22
1.39425e-21
-1.64777e-22
3.87245e-23
-4.79203e-24
1.47681e-24
4.76807e-26
1.05227e-25
4.20908e-26
2.56788e-26
7.38605e-27
4.03149e-27
1.82581e-27
1.41023e-27
7.41399e-15
2.35032e-15
2.04108e-16
1.24795e-17
1.14959e-18
2.2111e-20
1.23576e-20
-1.01433e-21
2.51032e-22
-3.3138e-23
6.70955e-24
-5.73597e-25
4.01727e-25
7.32699e-26
3.47739e-26
1.89085e-26
5.87854e-27
0
6.9188e-31
3.49863e-29
1.00369e-14
2.89352e-15
2.65069e-16
2.14925e-17
9.57136e-19
1.85364e-19
-1.67765e-21
2.21443e-21
-1.68888e-22
4.03073e-23
-4.25685e-24
1.22437e-24
3.626e-26
9.56011e-26
3.77588e-26
1.52826e-26
6.60282e-27
3.33239e-28
0
-1.26568e-27
6.3087e-15
-2.79608e-15
-3.31555e-16
-4.82445e-17
-3.08953e-18
-3.70678e-19
-1.33614e-20
-2.93449e-21
5.92103e-23
-3.18096e-23
4.65182e-24
-2.12233e-25
2.71061e-25
6.89906e-26
3.91262e-26
1.14821e-26
7.29578e-27
2.92454e-27
1.77511e-27
2.25898e-27
-7.66562e-16
-4.60876e-15
-5.20169e-16
-6.09201e-17
-3.53578e-18
-5.15251e-19
-2.8035e-21
-5.72603e-21
3.90521e-22
-9.84297e-23
1.35206e-23
-1.92523e-24
4.59834e-25
0
2.50869e-26
6.97495e-27
4.24315e-27
0
2.93966e-28
0
)
;

boundaryField
{
    movingWall
    {
        type            calculated;
        value           nonuniform List<scalar> 
20
(
0
0
0
0
0
0
0
0
5.15333e-22
0
2.78314e-23
-4.69855e-24
8.042e-25
-1.33727e-25
1.48428e-26
1.08626e-27
1.17823e-27
0
0
0
)
;
    }
    fixedWalls
    {
        type            calculated;
        value           nonuniform List<scalar> 
60
(
1.31057e-14
8.36259e-14
3.97131e-14
-6.46758e-14
-9.38409e-14
-1.0235e-13
-8.78853e-14
-7.8834e-14
-6.54087e-14
-5.19455e-14
-3.57258e-14
-1.94698e-14
-3.64612e-15
7.77693e-15
2.021e-14
3.46988e-14
3.88378e-14
5.26083e-14
3.30717e-14
-2.9543e-15
1.26048e-27
5.52983e-27
3.34351e-28
-9.3491e-27
0
-4.06094e-27
5.95911e-27
-3.37577e-27
7.98241e-28
2.2847e-27
0
0
0
0
0
2.40321e-27
3.49863e-29
-1.74369e-27
3.48429e-27
0
0
0
0
0
0
0
7.55705e-21
0
2.7925e-21
-6.10995e-23
9.18337e-23
-1.56336e-23
2.78183e-24
-2.46366e-25
1.45334e-25
3.76711e-26
3.5445e-26
2.50347e-26
5.61991e-27
0
)
;
    }
    frontAndBack
    {
        type            empty;
    }
}


// ************************************************************************* //
