/*--------------------------------*- C++ -*----------------------------------*\
| =========                 |                                                 |
| \\      /  F ield         | OpenFOAM: The Open Source CFD Toolbox           |
|  \\    /   O peration     | Version:  2506                                  |
|   \\  /    A nd           | Website:  www.openfoam.com                      |
|    \\/     M anipulation  |                                                 |
\*---------------------------------------------------------------------------*/
FoamFile
{
    version     2.0;
    format      ascii;
    arch        "LSB;label=32;scalar=64";
    class       volScalarField;
    location    "4.25";
    object      magSqrP;
}
// * * * * * * * * * * * * * * * * * * * * * * * * * * * * * * * * * * * * * //

dimensions      [0 4 -4 0 0 0 0];

internalField   nonuniform List<scalar> 
400
(
0
0
1.40075e-23
1.91241e-25
1.28564e-24
3.74658e-25
4.00268e-25
2.99873e-25
2.79836e-25
2.5759e-25
2.46919e-25
2.38933e-25
2.34193e-25
2.30956e-25
2.28748e-25
2.27312e-25
2.2607e-25
2.25398e-25
2.24963e-25
2.24661e-25
2.66516e-24
7.51591e-24
9.84084e-25
4.28965e-25
4.45851e-25
3.48185e-25
3.21438e-25
2.84058e-25
2.6566e-25
2.51137e-25
2.42322e-25
2.36136e-25
2.32425e-25
2.29669e-25
2.27778e-25
2.26792e-25
2.2575e-25
2.24975e-25
2.24558e-25
2.24356e-25
0
0
0
1.65987e-28
2.74502e-25
2.39277e-25
2.6338e-25
2.50976e-25
2.46073e-25
2.39494e-25
2.34787e-25
2.31289e-25
2.29186e-25
2.27453e-25
2.26287e-25
2.25605e-25
2.24931e-25
2.24393e-25
2.2399e-25
2.23843e-25
1.42405e-23
3.77786e-23
4.45428e-25
2.32885e-25
1.24629e-25
1.86807e-25
2.09525e-25
2.21929e-25
2.25818e-25
2.26595e-25
2.26065e-25
2.25457e-25
2.25204e-25
2.24736e-25
2.24152e-25
2.23998e-25
2.23898e-25
2.2357e-25
2.23183e-25
2.23183e-25
0
0
0
3.2455e-26
1.39271e-25
1.63226e-25
1.86432e-25
2.00779e-25
2.09847e-25
2.15046e-25
2.17881e-25
2.19686e-25
2.21089e-25
2.2184e-25
2.22084e-25
2.22335e-25
2.2244e-25
2.22338e-25
2.22344e-25
2.22518e-25
2.56828e-23
1.64482e-24
5.75283e-25
5.91492e-26
1.31096e-25
1.39459e-25
1.72693e-25
1.86306e-25
1.98806e-25
2.06044e-25
2.10977e-25
2.14625e-25
2.17303e-25
2.18961e-25
2.20026e-25
2.20654e-25
2.21181e-25
2.21355e-25
2.21584e-25
2.21771e-25
0
1.68063e-24
0
1.82576e-25
8.71429e-26
1.56304e-25
1.60728e-25
1.8095e-25
1.90972e-25
2.00059e-25
2.05842e-25
2.10598e-25
2.14045e-25
2.16349e-25
2.18238e-25
2.19422e-25
2.20052e-25
2.20376e-25
2.20766e-25
2.20951e-25
4.09134e-23
0
1.35568e-24
1.11861e-26
2.00946e-25
1.30349e-25
1.68601e-25
1.74306e-25
1.87877e-25
1.95777e-25
2.02652e-25
2.07835e-25
2.11816e-25
2.14636e-25
2.16793e-25
2.18397e-25
2.19006e-25
2.19581e-25
2.19969e-25
2.2032e-25
0
3.39422e-23
0
4.62372e-25
6.40096e-26
1.71451e-25
1.55748e-25
1.7774e-25
1.84799e-25
1.94151e-25
2.00609e-25
2.06288e-25
2.10337e-25
2.13428e-25
2.15859e-25
2.1748e-25
2.18312e-25
2.1923e-25
2.19578e-25
2.19781e-25
6.20862e-23
0
1.74436e-24
0
2.6492e-25
1.29244e-25
1.74917e-25
1.7351e-25
1.86302e-25
1.93316e-25
2.00211e-25
2.0553e-25
2.09651e-25
2.13019e-25
2.15398e-25
2.171e-25
2.17994e-25
2.18767e-25
2.1939e-25
2.19705e-25
0
8.62122e-23
0
7.44376e-25
4.98024e-26
1.85565e-25
1.57329e-25
1.81129e-25
1.85928e-25
1.94744e-25
2.00569e-25
2.0588e-25
2.09731e-25
2.13021e-25
2.15293e-25
2.17005e-25
2.18068e-25
2.1903e-25
2.1943e-25
2.19688e-25
7.29266e-23
0
1.85006e-24
0
3.08811e-25
1.32449e-25
1.83661e-25
1.77975e-25
1.90235e-25
1.96045e-25
2.02372e-25
2.06841e-25
2.10603e-25
2.13743e-25
2.15912e-25
2.1754e-25
2.18518e-25
2.19074e-25
2.19453e-25
2.19933e-25
0
1.1991e-22
0
8.9748e-25
4.72009e-26
1.97023e-25
1.63685e-25
1.88752e-25
1.91997e-25
1.99776e-25
2.04774e-25
2.09006e-25
2.12149e-25
2.14757e-25
2.16601e-25
2.18022e-25
2.18859e-25
2.19547e-25
2.19943e-25
2.20149e-25
6.71422e-23
0
1.69155e-24
0
3.25351e-25
1.41698e-25
1.94643e-25
1.87735e-25
1.98938e-25
2.0324e-25
2.08115e-25
2.11569e-25
2.14339e-25
2.16284e-25
2.1784e-25
2.18859e-25
2.19662e-25
2.20201e-25
2.20367e-25
2.20578e-25
0
1.14383e-22
0
8.61251e-25
5.74463e-26
2.089e-25
1.78033e-25
2.01826e-25
2.03462e-25
2.09162e-25
2.12178e-25
2.15087e-25
2.16658e-25
2.17956e-25
2.19393e-25
2.20035e-25
2.20338e-25
2.20724e-25
2.20939e-25
2.2122e-25
4.74694e-23
0
1.33053e-24
0
3.26363e-25
1.6319e-25
2.1341e-25
2.05424e-25
2.13549e-25
2.15114e-25
2.17377e-25
2.18544e-25
2.19476e-25
2.20008e-25
2.20739e-25
2.21051e-25
2.21185e-25
2.21462e-25
2.217e-25
2.21896e-25
0
7.67802e-23
0
6.91356e-25
9.57546e-26
2.35117e-25
2.08846e-25
2.24173e-25
2.21697e-25
2.22833e-25
2.22378e-25
2.2223e-25
2.2206e-25
2.21964e-25
2.2214e-25
2.22255e-25
2.22101e-25
2.22201e-25
2.22361e-25
2.22516e-25
2.30467e-23
0
9.9185e-25
1.42868e-27
3.78829e-25
2.18119e-25
2.54014e-25
2.34733e-25
2.34129e-25
2.29585e-25
2.27499e-25
2.25604e-25
2.24415e-25
2.23674e-25
2.23366e-25
2.23095e-25
2.22951e-25
2.22924e-25
2.22956e-25
2.2304e-25
0
2.48405e-23
2.37109e-25
5.54653e-25
2.8992e-25
2.95825e-25
2.69331e-25
2.539e-25
2.43182e-25
2.35992e-25
2.31406e-25
2.28313e-25
2.26391e-25
2.25015e-25
2.24257e-25
2.23682e-25
2.23584e-25
2.23475e-25
2.23444e-25
2.23397e-25
2.82707e-24
0
1.02575e-23
0
9.1858e-25
2.4158e-25
3.24556e-25
2.55591e-25
2.5174e-25
2.38659e-25
2.3379e-25
2.29778e-25
2.27526e-25
2.25644e-25
2.24663e-25
2.24094e-25
2.23944e-25
2.23642e-25
2.23511e-25
2.23712e-25
)
;

boundaryField
{
    movingWall
    {
        type            calculated;
        value           nonuniform List<scalar> 
20
(
2.82707e-24
0
1.02575e-23
0
9.1858e-25
2.4158e-25
3.24556e-25
2.55591e-25
2.5174e-25
2.38659e-25
2.3379e-25
2.29778e-25
2.27526e-25
2.25644e-25
2.24663e-25
2.24094e-25
2.23944e-25
2.23642e-25
2.23511e-25
2.23712e-25
)
;
    }
    fixedWalls
    {
        type            calculated;
        value           nonuniform List<scalar> 
60
(
0
2.66516e-24
0
1.42405e-23
0
2.56828e-23
0
4.09134e-23
0
6.20862e-23
0
7.29266e-23
0
6.71422e-23
0
4.74694e-23
0
2.30467e-23
0
2.82707e-24
2.24661e-25
2.24356e-25
2.23843e-25
2.23183e-25
2.22518e-25
2.21771e-25
2.20951e-25
2.2032e-25
2.19781e-25
2.19705e-25
2.19688e-25
2.19933e-25
2.20149e-25
2.20578e-25
2.2122e-25
2.21896e-25
2.22516e-25
2.2304e-25
2.23397e-25
2.23712e-25
0
0
1.40075e-23
1.91241e-25
1.28564e-24
3.74658e-25
4.00268e-25
2.99873e-25
2.79836e-25
2.5759e-25
2.46919e-25
2.38933e-25
2.34193e-25
2.30956e-25
2.28748e-25
2.27312e-25
2.2607e-25
2.25398e-25
2.24963e-25
2.24661e-25
)
;
    }
    frontAndBack
    {
        type            empty;
    }
}


// ************************************************************************* //
