/*--------------------------------*- C++ -*----------------------------------*\
| =========                 |                                                 |
| \\      /  F ield         | OpenFOAM: The Open Source CFD Toolbox           |
|  \\    /   O peration     | Version:  2506                                  |
|   \\  /    A nd           | Website:  www.openfoam.com                      |
|    \\/     M anipulation  |                                                 |
\*---------------------------------------------------------------------------*/
FoamFile
{
    version     2.0;
    format      ascii;
    arch        "LSB;label=32;scalar=64";
    class       volScalarField;
    location    "4.25";
    object      p;
}
// * * * * * * * * * * * * * * * * * * * * * * * * * * * * * * * * * * * * * //

dimensions      [0 2 -2 0 0 0 0];

internalField   nonuniform List<scalar> 
400
(
0
0
3.74266e-12
4.37311e-13
1.13386e-12
6.12093e-13
6.32668e-13
5.47607e-13
5.28996e-13
5.07533e-13
4.9691e-13
4.88808e-13
4.83935e-13
4.80579e-13
4.78276e-13
4.76772e-13
4.75468e-13
4.74761e-13
4.74303e-13
4.73985e-13
1.63253e-12
2.74152e-12
9.9201e-13
6.54954e-13
6.67721e-13
5.90072e-13
5.66955e-13
5.32971e-13
5.15422e-13
5.01136e-13
4.92263e-13
4.85939e-13
4.82105e-13
4.79238e-13
4.7726e-13
4.76227e-13
4.75131e-13
4.74315e-13
4.73875e-13
4.73663e-13
0
0
0
1.28836e-14
5.23929e-13
4.89159e-13
5.13205e-13
5.00975e-13
4.96058e-13
4.89382e-13
4.84548e-13
4.80925e-13
4.78733e-13
4.7692e-13
4.75696e-13
4.74979e-13
4.74269e-13
4.73701e-13
4.73275e-13
4.73121e-13
3.77366e-12
6.14643e-12
6.67404e-13
4.82582e-13
3.53028e-13
4.32212e-13
4.57739e-13
4.71093e-13
4.75203e-13
4.7602e-13
4.75463e-13
4.74823e-13
4.74556e-13
4.74063e-13
4.73446e-13
4.73284e-13
4.73178e-13
4.72832e-13
4.72422e-13
4.72423e-13
0
0
0
1.80153e-13
3.7319e-13
4.04013e-13
4.31778e-13
4.48084e-13
4.5809e-13
4.63731e-13
4.66777e-13
4.68707e-13
4.70201e-13
4.70999e-13
4.71258e-13
4.71524e-13
4.71635e-13
4.71528e-13
4.71533e-13
4.71718e-13
5.06782e-12
1.28251e-12
7.58474e-13
2.43206e-13
3.62072e-13
3.73443e-13
4.15563e-13
4.31631e-13
4.45876e-13
4.53921e-13
4.59323e-13
4.63276e-13
4.66158e-13
4.67932e-13
4.69069e-13
4.69738e-13
4.70299e-13
4.70484e-13
4.70727e-13
4.70926e-13
0
1.29639e-12
0
4.27289e-13
2.952e-13
3.95353e-13
4.00909e-13
4.25382e-13
4.37003e-13
4.47279e-13
4.53699e-13
4.5891e-13
4.6265e-13
4.65133e-13
4.6716e-13
4.68425e-13
4.69097e-13
4.69442e-13
4.69857e-13
4.70055e-13
6.39636e-12
0
1.16433e-12
1.05764e-13
4.4827e-13
3.61039e-13
4.1061e-13
4.175e-13
4.33448e-13
4.42467e-13
4.50169e-13
4.55889e-13
4.60235e-13
4.63288e-13
4.6561e-13
4.6733e-13
4.67981e-13
4.68595e-13
4.69008e-13
4.69383e-13
0
5.826e-12
0
6.79979e-13
2.53001e-13
4.14067e-13
3.94649e-13
4.21592e-13
4.29882e-13
4.40625e-13
4.47894e-13
4.5419e-13
4.58625e-13
4.61982e-13
4.64606e-13
4.66347e-13
4.67239e-13
4.6822e-13
4.68592e-13
4.68808e-13
7.87948e-12
0
1.32074e-12
0
5.14704e-13
3.59505e-13
4.18231e-13
4.16545e-13
4.31627e-13
4.39677e-13
4.47449e-13
4.53354e-13
4.57876e-13
4.6154e-13
4.6411e-13
4.6594e-13
4.66898e-13
4.67725e-13
4.68391e-13
4.68727e-13
0
9.28505e-12
0
8.62772e-13
2.23164e-13
4.30772e-13
3.96647e-13
4.25592e-13
4.31194e-13
4.41298e-13
4.4785e-13
4.5374e-13
4.57964e-13
4.61542e-13
4.63997e-13
4.65838e-13
4.66977e-13
4.68006e-13
4.68433e-13
4.68708e-13
8.53971e-12
0
1.36017e-12
0
5.55708e-13
3.63935e-13
4.28556e-13
4.21871e-13
4.3616e-13
4.4277e-13
4.49857e-13
4.54798e-13
4.58915e-13
4.62323e-13
4.64663e-13
4.66412e-13
4.6746e-13
4.68053e-13
4.68458e-13
4.6897e-13
0
1.09503e-11
0
9.47354e-13
2.17258e-13
4.43873e-13
4.04581e-13
4.34456e-13
4.38174e-13
4.46964e-13
4.5252e-13
4.57172e-13
4.60597e-13
4.63419e-13
4.65404e-13
4.66929e-13
4.67823e-13
4.68559e-13
4.6898e-13
4.692e-13
8.19403e-12
0
1.3006e-12
0
5.70395e-13
3.76428e-13
4.41184e-13
4.33284e-13
4.46025e-13
4.50821e-13
4.56196e-13
4.59966e-13
4.62967e-13
4.65064e-13
4.66733e-13
4.67824e-13
4.68682e-13
4.69255e-13
4.69433e-13
4.69657e-13
0
1.0695e-11
0
9.28036e-13
2.3968e-13
4.57056e-13
4.2194e-13
4.4925e-13
4.51068e-13
4.57342e-13
4.60628e-13
4.63775e-13
4.65465e-13
4.66858e-13
4.68394e-13
4.69079e-13
4.69402e-13
4.69812e-13
4.70041e-13
4.70341e-13
6.8898e-12
0
1.15348e-12
0
5.71282e-13
4.03968e-13
4.61963e-13
4.53238e-13
4.62113e-13
4.63804e-13
4.66237e-13
4.67487e-13
4.68482e-13
4.6905e-13
4.69829e-13
4.70161e-13
4.70303e-13
4.70597e-13
4.7085e-13
4.71058e-13
0
8.76243e-12
0
8.31478e-13
3.09442e-13
4.84888e-13
4.56997e-13
4.7347e-13
4.70847e-13
4.72051e-13
4.7157e-13
4.71413e-13
4.71232e-13
4.7113e-13
4.71317e-13
4.71439e-13
4.71276e-13
4.71382e-13
4.71552e-13
4.71716e-13
4.8007e-12
0
9.95917e-13
3.77979e-14
6.15491e-13
4.67032e-13
5.03998e-13
4.84493e-13
4.83869e-13
4.79151e-13
4.76969e-13
4.74978e-13
4.73724e-13
4.72942e-13
4.72616e-13
4.72329e-13
4.72177e-13
4.72148e-13
4.72182e-13
4.72271e-13
0
4.98402e-12
4.86938e-13
7.4475e-13
5.38442e-13
5.43898e-13
5.18971e-13
5.03885e-13
4.93135e-13
4.8579e-13
4.81047e-13
4.77821e-13
4.75805e-13
4.74357e-13
4.73558e-13
4.7295e-13
4.72847e-13
4.72732e-13
4.72699e-13
4.72649e-13
1.68139e-12
0
3.20273e-12
0
9.58426e-13
4.91508e-13
5.69698e-13
5.0556e-13
5.01737e-13
4.88528e-13
4.83519e-13
4.79352e-13
4.76996e-13
4.7502e-13
4.73986e-13
4.73386e-13
4.73227e-13
4.72908e-13
4.7277e-13
4.72982e-13
)
;

boundaryField
{
    movingWall
    {
        type            zeroGradient;
    }
    fixedWalls
    {
        type            zeroGradient;
    }
    frontAndBack
    {
        type            empty;
    }
}


// ************************************************************************* //
