/*--------------------------------*- C++ -*----------------------------------*\
| =========                 |                                                 |
| \\      /  F ield         | OpenFOAM: The Open Source CFD Toolbox           |
|  \\    /   O peration     | Version:  2506                                  |
|   \\  /    A nd           | Website:  www.openfoam.com                      |
|    \\/     M anipulation  |                                                 |
\*---------------------------------------------------------------------------*/
FoamFile
{
    version     2.0;
    format      ascii;
    arch        "LSB;label=32;scalar=64";
    class       volScalarField;
    location    "4.25";
    object      QField;
}
// * * * * * * * * * * * * * * * * * * * * * * * * * * * * * * * * * * * * * //

dimensions      [0 0 -2 0 0 0 0];

internalField   nonuniform List<scalar> 
400
(
-2.50047e-15
4.75797e-15
4.58314e-16
7.65754e-17
2.59237e-18
8.06048e-19
-2.81695e-20
1.22127e-20
-1.42738e-21
2.71138e-22
-4.69195e-23
5.60938e-24
-2.20073e-24
-3.41719e-25
-2.96493e-25
-1.32571e-25
-6.84069e-26
-3.51883e-26
-1.07699e-26
-1.92464e-27
-1.59652e-14
1.98106e-15
1.34734e-16
5.90622e-17
2.24852e-18
5.12099e-19
4.30392e-21
4.6939e-21
-2.59465e-22
5.10951e-23
-1.37154e-23
-1.94097e-24
-1.79012e-24
-7.27417e-25
-4.14299e-25
-2.1758e-25
-1.00085e-25
-3.19863e-26
-1.07814e-26
-6.96452e-27
-7.66589e-15
-1.17646e-15
-1.32637e-16
-1.12117e-17
5.43288e-19
-1.92884e-19
2.05478e-20
-3.60138e-21
4.48155e-22
-8.35733e-23
5.31524e-24
-4.35268e-24
-1.09429e-24
-7.08319e-25
-3.25689e-25
-1.82706e-25
-6.06813e-26
-3.17268e-26
-6.44761e-27
0
1.25003e-14
3.6184e-15
3.32909e-16
1.94853e-17
1.04699e-18
1.85383e-19
-9.96973e-21
3.21608e-21
-4.34391e-22
6.69444e-23
-1.56336e-23
-4.08237e-25
-1.43681e-24
-5.53303e-25
-3.03563e-25
-1.25427e-25
-7.47944e-26
-4.10041e-26
-5.08611e-27
1.12122e-26
1.79537e-14
4.87178e-15
4.33174e-16
2.35408e-17
1.84005e-18
6.87445e-20
1.70935e-20
-1.50836e-21
3.82873e-22
-6.65276e-23
7.38814e-24
-3.55217e-24
-6.5182e-25
-5.24612e-25
-2.63268e-25
-1.51593e-25
-6.56637e-26
-1.0991e-26
-1.745e-26
-3.2142e-28
1.95254e-14
5.17975e-15
4.58669e-16
2.61749e-17
1.74553e-18
1.49071e-19
2.2396e-21
1.79977e-21
-2.27395e-22
4.6253e-23
-1.07884e-23
3.25388e-26
-1.06427e-24
-3.59199e-25
-1.87941e-25
-9.74489e-26
-3.44389e-26
-1.90189e-26
0
7.04183e-27
1.67976e-14
4.58112e-15
3.91589e-16
2.48824e-17
1.56665e-18
1.16621e-19
9.96469e-21
-1.66288e-22
1.81281e-22
-3.26977e-23
4.23453e-24
-2.13029e-24
-4.70658e-25
-4.26137e-25
-1.75764e-25
-8.83995e-26
-5.48537e-26
-2.86468e-26
-8.75259e-28
-7.24841e-27
1.52013e-14
4.13441e-15
3.80942e-16
2.18597e-17
1.63274e-18
1.10249e-19
6.63802e-21
8.68749e-22
-6.22939e-23
1.88698e-23
-5.29686e-24
-1.62579e-25
-7.21582e-25
-3.10924e-25
-1.95642e-25
-8.11863e-26
-3.67956e-26
-2.27519e-26
-2.5617e-26
7.13177e-27
1.28071e-14
3.45985e-15
3.25268e-16
1.88826e-17
1.28643e-18
1.00269e-19
5.81116e-21
3.58819e-22
6.26089e-23
-9.39311e-24
9.32903e-25
-1.42973e-24
-4.26285e-25
-3.12662e-25
-1.78129e-25
-9.33781e-26
-4.33542e-26
-1.94196e-26
-5.32802e-27
-1.53161e-27
1.0442e-14
2.77184e-15
2.68448e-16
1.47469e-17
1.11122e-18
7.16341e-20
5.66267e-21
2.37494e-22
3.18614e-23
2.10319e-24
-2.21816e-24
-5.71792e-25
-5.12854e-25
-2.32435e-25
-1.4926e-25
-9.03995e-26
-1.35564e-26
-1.75235e-27
1.2678e-26
-4.06785e-27
7.5185e-15
1.93983e-15
1.91255e-16
1.04317e-17
7.23191e-19
5.83029e-20
2.32684e-21
3.74009e-22
-9.9373e-24
4.48114e-24
-1.8342e-24
-4.91473e-25
-4.47605e-25
-2.15854e-25
-1.54939e-25
-9.49868e-26
-3.30969e-26
-1.10672e-26
-1.21428e-26
0
4.55889e-15
1.1016e-15
1.1411e-16
5.70125e-18
4.3504e-19
2.46474e-20
2.95003e-21
-1.4898e-22
5.67915e-23
-1.20718e-23
9.43373e-25
-9.71509e-25
-3.28622e-25
-2.14224e-25
-9.95246e-26
-4.88007e-26
-3.83421e-26
-1.18766e-26
-9.51939e-27
0
1.60161e-15
2.60249e-16
3.63967e-17
1.11263e-18
6.8734e-20
1.16553e-20
-1.47755e-21
3.86616e-22
-8.90745e-23
1.46123e-23
-4.26252e-24
9.76546e-26
-4.27772e-25
-1.4822e-25
-9.76577e-26
-5.74779e-26
-2.20563e-26
-1.18042e-26
-2.88466e-27
0
-1.42879e-15
-5.86366e-16
-4.52033e-17
-3.51398e-18
-2.43121e-19
-2.84325e-20
9.46439e-22
-6.75312e-22
9.88113e-23
-2.34159e-23
3.49401e-24
-1.25102e-24
-1.49377e-25
-1.51906e-25
-8.04638e-26
-4.11282e-26
-1.01316e-26
-5.74958e-27
-2.71885e-27
0
-3.80534e-15
-1.2811e-15
-1.06221e-16
-7.34272e-18
-5.72129e-19
-2.46115e-20
-6.4079e-21
5.74929e-22
-1.67551e-22
2.43693e-23
-5.45887e-24
3.01777e-25
-3.55933e-25
-8.99423e-26
-5.10602e-26
-1.19504e-26
-1.0496e-26
-6.88621e-27
-3.96985e-27
0
-6.57545e-15
-2.04076e-15
-1.81943e-16
-1.18304e-17
-7.62715e-19
-8.96022e-20
1.36494e-21
-1.40314e-21
1.69331e-22
-3.90354e-23
4.83971e-24
-1.47987e-24
-4.83653e-26
-1.13701e-25
-4.27215e-26
-2.72621e-26
-8.43463e-27
-4.03149e-27
-2.48915e-27
-1.41023e-27
-7.37306e-15
-2.34149e-15
-2.03757e-16
-1.24322e-17
-1.15014e-18
-2.18391e-20
-1.23883e-20
1.05989e-21
-2.51152e-22
3.34509e-23
-6.68996e-24
5.79082e-25
-4.02452e-25
-7.32699e-26
-3.47739e-26
-1.90634e-26
-6.50034e-27
0
-2.25458e-29
-1.60324e-28
-1.00085e-14
-2.88796e-15
-2.64479e-16
-2.14404e-17
-9.50886e-19
-1.84746e-19
2.24394e-21
-2.20089e-21
1.74816e-22
-4.03434e-23
4.36328e-24
-1.24151e-24
-3.96239e-26
-9.86519e-26
-3.81778e-26
-1.76569e-26
-6.75509e-27
-4.94798e-28
0
1.27246e-27
-6.29458e-15
2.85246e-15
3.34586e-16
4.86366e-17
3.11222e-18
3.72554e-19
1.34642e-20
2.94935e-21
-5.97058e-23
3.20207e-23
-4.67571e-24
2.19344e-25
-2.83039e-25
-7.24093e-26
-4.08936e-26
-1.25296e-26
-8.07697e-27
-3.26081e-27
-1.90488e-27
-2.25898e-27
7.94953e-16
4.65733e-15
5.28976e-16
6.2764e-17
3.76773e-18
5.38342e-19
5.82628e-21
5.91272e-21
-4.04543e-22
1.00074e-22
-1.3972e-23
1.97227e-24
-4.84466e-25
1.24654e-26
-2.61102e-26
-1.22141e-26
-5.09902e-27
-6.85732e-28
-5.21737e-28
-3.34069e-28
)
;

boundaryField
{
    movingWall
    {
        type            calculated;
        value           nonuniform List<scalar> 
20
(
1.88095e-14
2.06312e-14
1.95887e-15
1.41265e-16
5.22833e-18
1.09031e-18
-2.99356e-20
1.3062e-20
-1.3583e-21
2.50624e-22
-3.66516e-23
5.94483e-24
-9.79187e-25
1.35698e-25
-2.30833e-26
-4.75505e-27
-2.97162e-27
3.438e-28
3.70138e-28
6.27252e-28
)
;
    }
    fixedWalls
    {
        type            calculated;
        value           nonuniform List<scalar> 
60
(
-1.31282e-14
-8.37485e-14
-4.01615e-14
6.55861e-14
9.41697e-14
1.02394e-13
8.80879e-14
7.97124e-14
6.71584e-14
5.4756e-14
3.9427e-14
2.39072e-14
8.40036e-15
-7.49167e-15
-1.99543e-14
-3.44823e-14
-3.86653e-14
-5.24871e-14
-3.30106e-14
4.17736e-15
-1.57666e-27
-5.52983e-27
1.62406e-27
9.49482e-27
0
5.74349e-27
-5.95911e-27
6.20333e-27
2.50938e-27
-2.2847e-27
0
0
0
0
0
-2.54202e-27
-2.62675e-28
1.75046e-27
-3.48429e-27
-1.44826e-27
2.10255e-14
2.22447e-14
1.40353e-15
1.81256e-16
-9.70283e-19
1.78339e-18
-1.36685e-19
2.90401e-20
-3.97533e-21
6.91609e-22
-1.11155e-22
1.8026e-23
-3.28835e-24
3.13467e-25
-1.5809e-25
-4.5531e-26
-3.90705e-26
-2.66314e-26
-7.99141e-27
-2.78012e-28
)
;
    }
    frontAndBack
    {
        type            empty;
    }
}


// ************************************************************************* //
