/*--------------------------------*- C++ -*----------------------------------*\
| =========                 |                                                 |
| \\      /  F ield         | OpenFOAM: The Open Source CFD Toolbox           |
|  \\    /   O peration     | Version:  2506                                  |
|   \\  /    A nd           | Website:  www.openfoam.com                      |
|    \\/     M anipulation  |                                                 |
\*---------------------------------------------------------------------------*/
FoamFile
{
    version     2.0;
    format      ascii;
    arch        "LSB;label=32;scalar=64";
    class       volVectorField;
    location    "4.25";
    object      vorticityField;
}
// * * * * * * * * * * * * * * * * * * * * * * * * * * * * * * * * * * * * * //

dimensions      [0 0 -1 0 0 0 0];

internalField   nonuniform List<vector> 
400
(
(0 -0 2.1853e-06)
(0 -0 -2.70719e-06)
(0 -0 6.43087e-07)
(0 -0 -1.5312e-07)
(0 -0 3.62844e-08)
(0 -0 -8.71396e-09)
(0 -0 2.02783e-09)
(0 -0 -5.13707e-10)
(0 -0 1.02402e-10)
(0 -0 -3.81875e-11)
(0 -0 -3.46626e-13)
(0 -0 -6.47079e-12)
(0 -0 -2.94714e-12)
(0 -0 -2.34523e-12)
(0 -0 -1.49108e-12)
(0 -0 -8.82581e-13)
(0 -0 -4.88391e-13)
(0 -0 -2.61846e-13)
(0 -0 -1.0026e-13)
(0 -0 -4.25748e-14)
(0 -0 -2.17784e-06)
(0 -0 2.70534e-06)
(0 -0 -6.42625e-07)
(0 -0 1.5264e-07)
(0 -0 -3.6257e-08)
(0 -0 8.61162e-09)
(0 -0 -2.04582e-09)
(0 -0 4.85673e-10)
(0 -0 -1.15571e-10)
(0 -0 2.73047e-11)
(0 -0 -6.62259e-12)
(0 -0 1.41483e-12)
(0 -0 -4.8492e-13)
(0 -0 -5.54504e-14)
(0 -0 -1.50158e-13)
(0 -0 -1.72484e-13)
(0 -0 -1.09073e-13)
(0 -0 -1.14542e-13)
(0 -0 -1.2573e-13)
(0 -0 -6.10782e-14)
(0 -0 2.17738e-06)
(0 -0 -2.69787e-06)
(0 -0 6.40143e-07)
(0 -0 -1.51884e-07)
(0 -0 3.60361e-08)
(0 -0 -8.55036e-09)
(0 -0 2.02841e-09)
(0 -0 -4.81459e-10)
(0 -0 1.13975e-10)
(0 -0 -2.73792e-11)
(0 -0 6.15032e-12)
(0 -0 -1.82434e-12)
(0 -0 7.40164e-14)
(0 -0 -3.30492e-13)
(0 -0 -2.32675e-13)
(0 -0 -2.65296e-13)
(0 -0 -2.81936e-13)
(0 -0 -2.02216e-13)
(0 -0 -1.92754e-13)
(0 -0 -1.68385e-13)
(0 -0 -2.18237e-06)
(0 -0 2.69413e-06)
(0 -0 -6.39091e-07)
(0 -0 1.51594e-07)
(0 -0 -3.59586e-08)
(0 -0 8.52915e-09)
(0 -0 -2.02349e-09)
(0 -0 4.79602e-10)
(0 -0 -1.1416e-10)
(0 -0 2.67231e-11)
(0 -0 -6.73988e-12)
(0 -0 1.16288e-12)
(0 -0 -7.15374e-13)
(0 -0 -1.99671e-13)
(0 -0 -2.80899e-13)
(0 -0 -3.0444e-13)
(0 -0 -2.63428e-13)
(0 -0 -2.22253e-13)
(0 -0 -2.6431e-13)
(0 -0 -2.67075e-13)
(0 -0 2.17989e-06)
(0 -0 -2.68818e-06)
(0 -0 6.37589e-07)
(0 -0 -1.51216e-07)
(0 -0 3.58634e-08)
(0 -0 -8.50621e-09)
(0 -0 2.01704e-09)
(0 -0 -4.78798e-10)
(0 -0 1.1319e-10)
(0 -0 -2.72682e-11)
(0 -0 6.0354e-12)
(0 -0 -1.87554e-12)
(0 -0 -1.45411e-14)
(0 -0 -4.50771e-13)
(0 -0 -2.67436e-13)
(0 -0 -2.44757e-13)
(0 -0 -2.81229e-13)
(0 -0 -3.21387e-13)
(0 -0 -2.46888e-13)
(0 -0 -2.43005e-13)
(0 -0 -2.17686e-06)
(0 -0 2.68371e-06)
(0 -0 -6.36516e-07)
(0 -0 1.50958e-07)
(0 -0 -3.58024e-08)
(0 -0 8.49083e-09)
(0 -0 -2.01408e-09)
(0 -0 4.77253e-10)
(0 -0 -1.13609e-10)
(0 -0 2.65146e-11)
(0 -0 -6.78993e-12)
(0 -0 1.11031e-12)
(0 -0 -6.97594e-13)
(0 -0 -3.15928e-13)
(0 -0 -4.21065e-13)
(0 -0 -3.23869e-13)
(0 -0 -3.42209e-13)
(0 -0 -2.92461e-13)
(0 -0 -3.09457e-13)
(0 -0 -2.93424e-13)
(0 -0 2.17241e-06)
(0 -0 -2.67959e-06)
(0 -0 6.35557e-07)
(0 -0 -1.50735e-07)
(0 -0 3.57495e-08)
(0 -0 -8.47916e-09)
(0 -0 2.01049e-09)
(0 -0 -4.77307e-10)
(0 -0 1.12635e-10)
(0 -0 -2.72598e-11)
(0 -0 5.97454e-12)
(0 -0 -1.93389e-12)
(0 -0 8.58431e-16)
(0 -0 -4.10757e-13)
(0 -0 -3.31583e-13)
(0 -0 -3.35349e-13)
(0 -0 -2.69224e-13)
(0 -0 -2.54474e-13)
(0 -0 -3.02908e-13)
(0 -0 -2.40314e-13)
(0 -0 -2.16945e-06)
(0 -0 2.67666e-06)
(0 -0 -6.34861e-07)
(0 -0 1.50568e-07)
(0 -0 -3.57102e-08)
(0 -0 8.46889e-09)
(0 -0 -2.00891e-09)
(0 -0 4.76091e-10)
(0 -0 -1.13301e-10)
(0 -0 2.63828e-11)
(0 -0 -6.78148e-12)
(0 -0 1.22934e-12)
(0 -0 -6.61828e-13)
(0 -0 -1.76979e-13)
(0 -0 -2.68372e-13)
(0 -0 -3.19311e-13)
(0 -0 -3.50455e-13)
(0 -0 -2.52818e-13)
(0 -0 -1.84948e-13)
(0 -0 -2.70959e-13)
(0 -0 2.16617e-06)
(0 -0 -2.67372e-06)
(0 -0 6.34161e-07)
(0 -0 -1.50402e-07)
(0 -0 3.56697e-08)
(0 -0 -8.46001e-09)
(0 -0 2.00601e-09)
(0 -0 -4.76188e-10)
(0 -0 1.12526e-10)
(0 -0 -2.71335e-11)
(0 -0 6.02532e-12)
(0 -0 -1.73396e-12)
(0 -0 6.15994e-14)
(0 -0 -3.77466e-13)
(0 -0 -2.31169e-13)
(0 -0 -2.98342e-13)
(0 -0 -2.54335e-13)
(0 -0 -2.20712e-13)
(0 -0 -2.47056e-13)
(0 -0 -1.99387e-13)
(0 -0 -2.16307e-06)
(0 -0 2.67102e-06)
(0 -0 -6.33522e-07)
(0 -0 1.5025e-07)
(0 -0 -3.56346e-08)
(0 -0 8.45092e-09)
(0 -0 -2.00472e-09)
(0 -0 4.74978e-10)
(0 -0 -1.13131e-10)
(0 -0 2.6481e-11)
(0 -0 -6.53687e-12)
(0 -0 1.23271e-12)
(0 -0 -6.38237e-13)
(0 -0 -1.79076e-13)
(0 -0 -2.70833e-13)
(0 -0 -2.24991e-13)
(0 -0 -3.38679e-13)
(0 -0 -2.78627e-13)
(0 -0 -2.92525e-13)
(0 -0 -1.22972e-13)
(0 -0 2.15976e-06)
(0 -0 -2.66834e-06)
(0 -0 6.32888e-07)
(0 -0 -1.50101e-07)
(0 -0 3.55989e-08)
(0 -0 -8.44324e-09)
(0 -0 2.00221e-09)
(0 -0 -4.75079e-10)
(0 -0 1.12452e-10)
(0 -0 -2.6971e-11)
(0 -0 6.08916e-12)
(0 -0 -1.7733e-12)
(0 -0 7.98696e-14)
(0 -0 -3.8473e-13)
(0 -0 -2.38548e-13)
(0 -0 -1.87817e-13)
(0 -0 -1.60672e-13)
(0 -0 -9.42621e-14)
(0 -0 -1.12846e-13)
(0 -0 -1.21391e-13)
(0 -0 -2.15656e-06)
(0 -0 2.66581e-06)
(0 -0 -6.32292e-07)
(0 -0 1.4996e-07)
(0 -0 -3.55664e-08)
(0 -0 8.43523e-09)
(0 -0 -2.00078e-09)
(0 -0 4.7434e-10)
(0 -0 -1.12667e-10)
(0 -0 2.64913e-11)
(0 -0 -6.52393e-12)
(0 -0 1.30356e-12)
(0 -0 -5.46314e-13)
(0 -0 -4.50862e-14)
(0 -0 -1.28725e-13)
(0 -0 -1.91207e-14)
(0 -0 9.26045e-15)
(0 -0 -1.61129e-13)
(0 -0 -1.13666e-13)
(0 -0 -7.93176e-14)
(0 -0 2.15345e-06)
(0 -0 -2.6634e-06)
(0 -0 6.31726e-07)
(0 -0 -1.49828e-07)
(0 -0 3.5535e-08)
(0 -0 -8.42822e-09)
(0 -0 1.99885e-09)
(0 -0 -4.74197e-10)
(0 -0 1.12299e-10)
(0 -0 -2.67895e-11)
(0 -0 6.14116e-12)
(0 -0 -1.72483e-12)
(0 -0 1.92608e-13)
(0 -0 -2.19757e-13)
(0 -0 -9.22793e-14)
(0 -0 -1.49959e-13)
(0 -0 -1.36137e-13)
(0 -0 -1.03267e-13)
(0 -0 -4.85913e-14)
(0 -0 -3.92135e-14)
(0 -0 -2.15039e-06)
(0 -0 2.66108e-06)
(0 -0 -6.31179e-07)
(0 -0 1.49699e-07)
(0 -0 -3.55049e-08)
(0 -0 8.42095e-09)
(0 -0 -1.99734e-09)
(0 -0 4.73641e-10)
(0 -0 -1.12387e-10)
(0 -0 2.66015e-11)
(0 -0 -6.48084e-12)
(0 -0 1.37792e-12)
(0 -0 -4.11463e-13)
(0 -0 -1.197e-14)
(0 -0 -1.0502e-13)
(0 -0 -3.69022e-14)
(0 -0 -1.37145e-14)
(0 -0 2.90137e-15)
(0 -0 -2.74422e-14)
(0 -0 -5.60558e-15)
(0 -0 2.14779e-06)
(0 -0 -2.65902e-06)
(0 -0 6.30692e-07)
(0 -0 -1.49584e-07)
(0 -0 3.54779e-08)
(0 -0 -8.41467e-09)
(0 -0 1.99577e-09)
(0 -0 -4.73402e-10)
(0 -0 1.1224e-10)
(0 -0 -2.66363e-11)
(0 -0 6.36246e-12)
(0 -0 -1.40408e-12)
(0 -0 3.62958e-13)
(0 -0 -8.91856e-14)
(0 -0 2.44031e-14)
(0 -0 2.16753e-14)
(0 -0 -3.84049e-15)
(0 -0 2.09223e-14)
(0 -0 -1.00679e-15)
(0 -0 3.40634e-14)
(0 -0 -2.14504e-06)
(0 -0 2.65694e-06)
(0 -0 -6.302e-07)
(0 -0 1.49468e-07)
(0 -0 -3.54504e-08)
(0 -0 8.4081e-09)
(0 -0 -1.99435e-09)
(0 -0 4.72985e-10)
(0 -0 -1.12248e-10)
(0 -0 2.65239e-11)
(0 -0 -6.32017e-12)
(0 -0 1.46274e-12)
(0 -0 -3.34477e-13)
(0 -0 1.30511e-13)
(0 -0 -2.30018e-14)
(0 -0 -7.18737e-15)
(0 -0 4.82205e-16)
(0 -0 -3.17366e-14)
(0 -0 -2.69518e-14)
(0 -0 2.49234e-14)
(0 -0 2.14346e-06)
(0 -0 -2.65539e-06)
(0 -0 6.29831e-07)
(0 -0 -1.49379e-07)
(0 -0 3.54295e-08)
(0 -0 -8.40309e-09)
(0 -0 1.99323e-09)
(0 -0 -4.7272e-10)
(0 -0 1.12142e-10)
(0 -0 -2.65713e-11)
(0 -0 6.349e-12)
(0 -0 -1.54145e-12)
(0 -0 2.63952e-13)
(0 -0 -1.86386e-13)
(0 -0 5.11913e-14)
(0 -0 3.92703e-15)
(0 -0 4.92198e-14)
(0 -0 6.80548e-14)
(0 -0 4.03429e-14)
(0 -0 4.93381e-14)
(0 -0 -2.14101e-06)
(0 -0 2.65361e-06)
(0 -0 -6.29407e-07)
(0 -0 1.49279e-07)
(0 -0 -3.54054e-08)
(0 -0 8.39747e-09)
(0 -0 -1.99175e-09)
(0 -0 4.72408e-10)
(0 -0 -1.11987e-10)
(0 -0 2.66195e-11)
(0 -0 -6.32958e-12)
(0 -0 1.49919e-12)
(0 -0 -3.82444e-13)
(0 -0 1.32368e-13)
(0 -0 -2.73498e-15)
(0 -0 3.1869e-14)
(0 -0 -9.14982e-15)
(0 -0 6.5227e-14)
(0 -0 3.9778e-14)
(0 -0 7.40504e-14)
(0 -0 2.14199e-06)
(0 -0 -2.6551e-06)
(0 -0 6.30234e-07)
(0 -0 -1.49588e-07)
(0 -0 3.55056e-08)
(0 -0 -8.42752e-09)
(0 -0 2.00041e-09)
(0 -0 -4.7482e-10)
(0 -0 1.1271e-10)
(0 -0 -2.67743e-11)
(0 -0 6.25033e-12)
(0 -0 -1.55914e-12)
(0 -0 3.80071e-13)
(0 -0 -1.34708e-14)
(0 -0 4.23775e-14)
(0 -0 -2.14252e-14)
(0 -0 -1.04933e-14)
(0 -0 -1.38145e-14)
(0 -0 -2.95183e-14)
(0 -0 -1.25393e-14)
(0 -0 -2.14423e-06)
(0 -0 2.65459e-06)
(0 -0 -6.30661e-07)
(0 -0 1.49939e-07)
(0 -0 -3.55995e-08)
(0 -0 8.50286e-09)
(0 -0 -2.00527e-09)
(0 -0 4.89954e-10)
(0 -0 -1.09365e-10)
(0 -0 3.09986e-11)
(0 -0 -4.2143e-12)
(0 -0 3.06821e-12)
(0 -0 6.18632e-13)
(0 -0 6.97504e-13)
(0 -0 3.7744e-13)
(0 -0 2.4929e-13)
(0 -0 1.53005e-13)
(0 -0 7.01466e-14)
(0 -0 6.23399e-14)
(0 -0 7.23981e-14)
)
;

boundaryField
{
    movingWall
    {
        type            calculated;
        value           nonuniform List<vector> 
20
(
(0 -0 -2.1784e-06)
(0 -0 2.66772e-06)
(0 -0 -6.36084e-07)
(0 -0 1.51871e-07)
(0 -0 -3.61607e-08)
(0 -0 8.72427e-09)
(0 -0 -2.04915e-09)
(0 -0 5.17766e-10)
(0 -0 -1.08712e-10)
(0 -0 3.65321e-11)
(0 -0 -2.09004e-12)
(0 -0 4.945e-12)
(0 -0 1.67816e-12)
(0 -0 1.39885e-12)
(0 -0 8.68844e-13)
(0 -0 5.65356e-13)
(0 -0 3.28343e-13)
(0 -0 1.49163e-13)
(0 -0 1.85765e-13)
(0 -0 1.51415e-13)
)
;
    }
    fixedWalls
    {
        type            calculated;
        value           nonuniform List<vector> 
60
(
(0 -0 1.14676e-05)
(0 -0 -1.14563e-05)
(0 -0 1.14339e-05)
(0 -0 -1.14187e-05)
(0 -0 1.1394e-05)
(0 -0 -1.13751e-05)
(0 -0 1.13574e-05)
(0 -0 -1.1345e-05)
(0 -0 1.13325e-05)
(0 -0 -1.13211e-05)
(0 -0 1.13098e-05)
(0 -0 -1.12991e-05)
(0 -0 1.12889e-05)
(0 -0 -1.12791e-05)
(0 -0 1.12704e-05)
(0 -0 -1.12617e-05)
(0 -0 1.12551e-05)
(0 -0 -1.12475e-05)
(0 -0 1.12457e-05)
(0 -0 -1.12455e-05)
(0 -0 -4.00057e-14)
(0 -0 -4.77973e-14)
(0 -0 -1.45481e-13)
(0 -0 -2.29359e-13)
(0 -0 -1.93768e-13)
(0 -0 -2.49687e-13)
(0 -0 -1.92747e-13)
(0 -0 -2.24408e-13)
(0 -0 -1.42803e-13)
(0 -0 -5.71857e-14)
(0 -0 -5.20164e-14)
(0 -0 -2.90114e-14)
(0 -0 -4.26824e-15)
(0 -0 5.29862e-14)
(0 -0 8.82233e-14)
(0 -0 6.11354e-14)
(0 -0 7.46887e-14)
(0 -0 9.16858e-14)
(0 -0 1.00637e-14)
(0 -0 8.73381e-14)
(0 -0 2.20534e-06)
(0 -0 -2.71725e-06)
(0 -0 6.46972e-07)
(0 -0 -1.54848e-07)
(0 -0 3.66666e-08)
(0 -0 -8.94193e-09)
(0 -0 2.03934e-09)
(0 -0 -5.53545e-10)
(0 -0 9.088e-11)
(0 -0 -5.06318e-11)
(0 -0 -7.49455e-12)
(0 -0 -1.17044e-11)
(0 -0 -6.4741e-12)
(0 -0 -4.69903e-12)
(0 -0 -2.9953e-12)
(0 -0 -1.73966e-12)
(0 -0 -1.03171e-12)
(0 -0 -5.33504e-13)
(0 -0 -1.79276e-13)
(0 -0 -8.69837e-14)
)
;
    }
    frontAndBack
    {
        type            empty;
    }
}


// ************************************************************************* //
