/*--------------------------------*- C++ -*----------------------------------*\
| =========                 |                                                 |
| \\      /  F ield         | OpenFOAM: The Open Source CFD Toolbox           |
|  \\    /   O peration     | Version:  2506                                  |
|   \\  /    A nd           | Website:  www.openfoam.com                      |
|    \\/     M anipulation  |                                                 |
\*---------------------------------------------------------------------------*/
FoamFile
{
    version     2.0;
    format      ascii;
    arch        "LSB;label=32;scalar=64";
    class       volVectorField;
    location    "4.25";
    object      zeroGradient(U);
}
// * * * * * * * * * * * * * * * * * * * * * * * * * * * * * * * * * * * * * //

dimensions      [0 1 -1 0 0 0 0];

internalField   nonuniform List<vector> 
400
(
(-1 2.86719e-08 0)
(-1 -6.80744e-09 0)
(-1 1.61758e-09 0)
(-1 -3.8373e-10 0)
(-1 9.14e-11 0)
(-1 -2.16133e-11 0)
(-1 5.19414e-12 0)
(-1 -1.20301e-12 0)
(-1 3.06164e-13 0)
(-1 -5.97351e-14 0)
(-1 2.32229e-14 0)
(-1 7.66528e-16 0)
(-1 4.32249e-15 0)
(-1 2.19486e-15 0)
(-1 1.74113e-15 0)
(-1 1.10761e-15 0)
(-1 7.75788e-16 0)
(-1 5.6051e-16 0)
(-1 3.25733e-16 0)
(-1 1.00014e-16 0)
(-1 -2.8659e-08 0)
(-1 6.80779e-09 0)
(-1 -1.61304e-09 0)
(-1 3.83657e-10 0)
(-1 -9.05191e-11 0)
(-1 2.17083e-11 0)
(-1 -5.00272e-12 0)
(-1 1.27128e-12 0)
(-1 -2.45739e-13 0)
(-1 9.49664e-14 0)
(-1 2.91366e-15 0)
(-1 1.70854e-14 0)
(-1 8.65943e-15 0)
(-1 7.08619e-15 0)
(-1 4.85232e-15 0)
(-1 3.4162e-15 0)
(-1 2.31433e-15 0)
(-1 1.51232e-15 0)
(-1 8.97864e-16 0)
(-1 2.55019e-16 0)
(-1 2.85934e-08 0)
(-1 -6.78499e-09 0)
(-1 1.61052e-09 0)
(-1 -3.81517e-10 0)
(-1 9.09611e-11 0)
(-1 -2.13087e-11 0)
(-1 5.23329e-12 0)
(-1 -1.12679e-12 0)
(-1 3.44975e-13 0)
(-1 -2.85141e-14 0)
(-1 4.43487e-14 0)
(-1 1.6184e-14 0)
(-1 1.52633e-14 0)
(-1 1.01479e-14 0)
(-1 7.62158e-15 0)
(-1 5.38166e-15 0)
(-1 3.61336e-15 0)
(-1 2.29124e-15 0)
(-1 1.32014e-15 0)
(-1 3.63703e-16 0)
(-1 -2.85324e-08 0)
(-1 6.76655e-09 0)
(-1 -1.60466e-09 0)
(-1 3.80868e-10 0)
(-1 -9.0023e-11 0)
(-1 2.15756e-11 0)
(-1 -4.94964e-12 0)
(-1 1.29189e-12 0)
(-1 -2.21659e-13 0)
(-1 1.13434e-13 0)
(-1 1.73833e-14 0)
(-1 2.81463e-14 0)
(-1 1.68149e-14 0)
(-1 1.31321e-14 0)
(-1 9.39717e-15 0)
(-1 6.79946e-15 0)
(-1 4.72646e-15 0)
(-1 3.08097e-15 0)
(-1 1.69078e-15 0)
(-1 4.37871e-16 0)
(-1 2.84643e-08 0)
(-1 -6.7484e-09 0)
(-1 1.60074e-09 0)
(-1 -3.79323e-10 0)
(-1 9.01458e-11 0)
(-1 -2.12034e-11 0)
(-1 5.16499e-12 0)
(-1 -1.11807e-12 0)
(-1 3.45836e-13 0)
(-1 -2.11399e-14 0)
(-1 5.06569e-14 0)
(-1 2.21379e-14 0)
(-1 2.02463e-14 0)
(-1 1.4132e-14 0)
(-1 1.05886e-14 0)
(-1 7.66295e-15 0)
(-1 5.43055e-15 0)
(-1 3.4954e-15 0)
(-1 1.94563e-15 0)
(-1 4.84419e-16 0)
(-1 -2.84153e-08 0)
(-1 6.73687e-09 0)
(-1 -1.59753e-09 0)
(-1 3.78931e-10 0)
(-1 -8.96955e-11 0)
(-1 2.13953e-11 0)
(-1 -4.96308e-12 0)
(-1 1.26562e-12 0)
(-1 -2.2877e-13 0)
(-1 1.10011e-13 0)
(-1 1.71314e-14 0)
(-1 2.91017e-14 0)
(-1 1.84766e-14 0)
(-1 1.48074e-14 0)
(-1 1.07095e-14 0)
(-1 7.88627e-15 0)
(-1 5.57344e-15 0)
(-1 3.65103e-15 0)
(-1 2.10673e-15 0)
(-1 5.56455e-16 0)
(-1 2.83742e-08 0)
(-1 -6.72766e-09 0)
(-1 1.59546e-09 0)
(-1 -3.78252e-10 0)
(-1 8.97598e-11 0)
(-1 -2.11947e-11 0)
(-1 5.1056e-12 0)
(-1 -1.13965e-12 0)
(-1 3.29004e-13 0)
(-1 -3.01095e-14 0)
(-1 4.52928e-14 0)
(-1 1.9336e-14 0)
(-1 1.89066e-14 0)
(-1 1.36525e-14 0)
(-1 1.04622e-14 0)
(-1 7.6262e-15 0)
(-1 5.48245e-15 0)
(-1 3.57871e-15 0)
(-1 2.12456e-15 0)
(-1 5.49631e-16 0)
(-1 -2.83449e-08 0)
(-1 6.72055e-09 0)
(-1 -1.59378e-09 0)
(-1 3.77937e-10 0)
(-1 -8.95474e-11 0)
(-1 2.12921e-11 0)
(-1 -4.98884e-12 0)
(-1 1.23576e-12 0)
(-1 -2.46627e-13 0)
(-1 9.73298e-14 0)
(-1 8.7981e-15 0)
(-1 2.35519e-14 0)
(-1 1.48574e-14 0)
(-1 1.25968e-14 0)
(-1 9.56392e-15 0)
(-1 7.20254e-15 0)
(-1 5.01555e-15 0)
(-1 3.15589e-15 0)
(-1 1.94528e-15 0)
(-1 4.93258e-16 0)
(-1 2.83166e-08 0)
(-1 -6.71402e-09 0)
(-1 1.59231e-09 0)
(-1 -3.77531e-10 0)
(-1 8.9546e-11 0)
(-1 -2.11938e-11 0)
(-1 5.06414e-12 0)
(-1 -1.163e-12 0)
(-1 3.09577e-13 0)
(-1 -4.39709e-14 0)
(-1 3.526e-14 0)
(-1 1.22166e-14 0)
(-1 1.38547e-14 0)
(-1 1.01221e-14 0)
(-1 8.18264e-15 0)
(-1 6.18407e-15 0)
(-1 4.38607e-15 0)
(-1 2.82757e-15 0)
(-1 1.63686e-15 0)
(-1 3.57008e-16 0)
(-1 -2.82908e-08 0)
(-1 6.70825e-09 0)
(-1 -1.59095e-09 0)
(-1 3.77266e-10 0)
(-1 -8.94337e-11 0)
(-1 2.12307e-11 0)
(-1 -5.00931e-12 0)
(-1 1.21148e-12 0)
(-1 -2.64954e-13 0)
(-1 8.28795e-14 0)
(-1 -2.04172e-15 0)
(-1 1.56135e-14 0)
(-1 8.93014e-15 0)
(-1 8.1469e-15 0)
(-1 6.32622e-15 0)
(-1 4.89647e-15 0)
(-1 3.53421e-15 0)
(-1 2.32283e-15 0)
(-1 1.29005e-15 0)
(-1 2.10727e-16 0)
(-1 2.82659e-08 0)
(-1 -6.70285e-09 0)
(-1 1.58972e-09 0)
(-1 -3.76979e-10 0)
(-1 8.93992e-11 0)
(-1 -2.11928e-11 0)
(-1 5.03542e-12 0)
(-1 -1.18259e-12 0)
(-1 2.92214e-13 0)
(-1 -5.77949e-14 0)
(-1 2.44008e-14 0)
(-1 3.90991e-15 0)
(-1 7.48091e-15 0)
(-1 5.25071e-15 0)
(-1 4.44677e-15 0)
(-1 3.40732e-15 0)
(-1 2.56859e-15 0)
(-1 1.8006e-15 0)
(-1 1.08387e-15 0)
(-1 1.30041e-16 0)
(-1 -2.82426e-08 0)
(-1 6.69785e-09 0)
(-1 -1.58858e-09 0)
(-1 3.76728e-10 0)
(-1 -8.93501e-11 0)
(-1 2.11851e-11 0)
(-1 -5.02705e-12 0)
(-1 1.19165e-12 0)
(-1 -2.80938e-13 0)
(-1 6.98536e-14 0)
(-1 -1.2501e-14 0)
(-1 7.32486e-15 0)
(-1 2.43191e-15 0)
(-1 3.21698e-15 0)
(-1 2.52315e-15 0)
(-1 2.20078e-15 0)
(-1 1.78984e-15 0)
(-1 1.20918e-15 0)
(-1 7.20648e-16 0)
(-1 7.25284e-17 0)
(-1 2.82206e-08 0)
(-1 -6.69322e-09 0)
(-1 1.58749e-09 0)
(-1 -3.76527e-10 0)
(-1 8.92797e-11 0)
(-1 -2.11961e-11 0)
(-1 5.01081e-12 0)
(-1 -1.20063e-12 0)
(-1 2.76702e-13 0)
(-1 -7.03147e-14 0)
(-1 1.44992e-14 0)
(-1 -4.02425e-15 0)
(-1 1.31659e-15 0)
(-1 6.12339e-16 0)
(-1 1.01638e-15 0)
(-1 1.0448e-15 0)
(-1 8.72037e-16 0)
(-1 4.96583e-16 0)
(-1 3.81464e-16 0)
(-1 1.06706e-17 0)
(-1 -2.81996e-08 0)
(-1 6.68878e-09 0)
(-1 -1.58652e-09 0)
(-1 3.76261e-10 0)
(-1 -8.92887e-11 0)
(-1 2.11426e-11 0)
(-1 -5.04565e-12 0)
(-1 1.17352e-12 0)
(-1 -2.95409e-13 0)
(-1 5.83261e-14 0)
(-1 -2.15335e-14 0)
(-1 2.93967e-16 0)
(-1 -2.87543e-15 0)
(-1 -8.39108e-16 0)
(-1 -5.55673e-16 0)
(-1 8.0507e-18 0)
(-1 1.59508e-16 0)
(-1 1.41956e-16 0)
(-1 1.88521e-16 0)
(-1 -1.32466e-16 0)
(-1 2.81805e-08 0)
(-1 -6.68476e-09 0)
(-1 1.5855e-09 0)
(-1 -3.76147e-10 0)
(-1 8.91623e-11 0)
(-1 -2.12066e-11 0)
(-1 4.98577e-12 0)
(-1 -1.21717e-12 0)
(-1 2.63674e-13 0)
(-1 -8.04096e-14 0)
(-1 6.79719e-15 0)
(-1 -9.73776e-15 0)
(-1 -2.9068e-15 0)
(-1 -2.58452e-15 0)
(-1 -1.3592e-15 0)
(-1 -7.14186e-16 0)
(-1 -3.29299e-16 0)
(-1 -2.1049e-16 0)
(-1 -1.20076e-16 0)
(-1 -2.20558e-16 0)
(-1 -2.81619e-08 0)
(-1 6.68071e-09 0)
(-1 -1.58472e-09 0)
(-1 3.75815e-10 0)
(-1 -8.92527e-11 0)
(-1 2.10949e-11 0)
(-1 -5.06541e-12 0)
(-1 1.15786e-12 0)
(-1 -3.0629e-13 0)
(-1 5.05576e-14 0)
(-1 -2.7227e-14 0)
(-1 -3.69948e-15 0)
(-1 -5.82342e-15 0)
(-1 -2.97849e-15 0)
(-1 -2.07885e-15 0)
(-1 -1.31116e-15 0)
(-1 -7.9547e-16 0)
(-1 -4.93184e-16 0)
(-1 -2.99683e-16 0)
(-1 -2.20601e-16 0)
(-1 2.81464e-08 0)
(-1 -6.67739e-09 0)
(-1 1.58365e-09 0)
(-1 -3.7584e-10 0)
(-1 8.90187e-11 0)
(-1 -2.12217e-11 0)
(-1 4.96146e-12 0)
(-1 -1.22763e-12 0)
(-1 2.56757e-13 0)
(-1 -8.42579e-14 0)
(-1 4.3257e-15 0)
(-1 -1.15521e-14 0)
(-1 -4.31257e-15 0)
(-1 -3.76267e-15 0)
(-1 -2.38173e-15 0)
(-1 -1.62445e-15 0)
(-1 -9.87207e-16 0)
(-1 -5.90151e-16 0)
(-1 -3.06659e-16 0)
(-1 -1.86722e-16 0)
(-1 -2.81305e-08 0)
(-1 6.67366e-09 0)
(-1 -1.5835e-09 0)
(-1 3.75386e-10 0)
(-1 -8.9272e-11 0)
(-1 2.10621e-11 0)
(-1 -5.07725e-12 0)
(-1 1.15565e-12 0)
(-1 -3.06828e-13 0)
(-1 5.17721e-14 0)
(-1 -2.62682e-14 0)
(-1 -3.12116e-15 0)
(-1 -5.58419e-15 0)
(-1 -2.87984e-15 0)
(-1 -2.09211e-15 0)
(-1 -1.28089e-15 0)
(-1 -9.60272e-16 0)
(-1 -5.59232e-16 0)
(-1 -3.08001e-16 0)
(-1 -1.61452e-16 0)
(-1 2.81216e-08 0)
(-1 -6.67235e-09 0)
(-1 1.58139e-09 0)
(-1 -3.75323e-10 0)
(-1 8.87776e-11 0)
(-1 -2.1146e-11 0)
(-1 4.94774e-12 0)
(-1 -1.20931e-12 0)
(-1 2.62965e-13 0)
(-1 -7.70594e-14 0)
(-1 8.50414e-15 0)
(-1 -8.59292e-15 0)
(-1 -2.47942e-15 0)
(-1 -2.35275e-15 0)
(-1 -1.25888e-15 0)
(-1 -8.44771e-16 0)
(-1 -6.5998e-16 0)
(-1 -4.07603e-16 0)
(-1 -2.56024e-16 0)
(-1 -1.60685e-16 0)
(-1 -2.81129e-08 0)
(-1 6.67433e-09 0)
(-1 -1.58464e-09 0)
(-1 3.76135e-10 0)
(-1 -8.94577e-11 0)
(-1 2.12118e-11 0)
(-1 -5.06833e-12 0)
(-1 1.1919e-12 0)
(-1 -2.92119e-13 0)
(-1 6.43694e-14 0)
(-1 -1.87244e-14 0)
(-1 2.16869e-15 0)
(-1 -2.13695e-15 0)
(-1 -5.8966e-16 0)
(-1 -5.82917e-16 0)
(-1 -3.3892e-16 0)
(-1 -2.58425e-16 0)
(-1 -1.64118e-16 0)
(-1 -9.90597e-17 0)
(-1 -8.282e-17 0)
)
;

boundaryField
{
    movingWall
    {
        type            zeroGradient;
    }
    fixedWalls
    {
        type            zeroGradient;
    }
    frontAndBack
    {
        type            empty;
    }
}


// ************************************************************************* //
