/*--------------------------------*- C++ -*----------------------------------*\
| =========                 |                                                 |
| \\      /  F ield         | OpenFOAM: The Open Source CFD Toolbox           |
|  \\    /   O peration     | Version:  2506                                  |
|   \\  /    A nd           | Website:  www.openfoam.com                      |
|    \\/     M anipulation  |                                                 |
\*---------------------------------------------------------------------------*/
FoamFile
{
    version     2.0;
    format      ascii;
    arch        "LSB;label=32;scalar=64";
    class       volScalarField;
    location    "1.775";
    object      p;
}
// * * * * * * * * * * * * * * * * * * * * * * * * * * * * * * * * * * * * * //

dimensions      [0 2 -2 0 0 0 0];

internalField   nonuniform List<scalar> 
6400
(
1.93794e-06
-2.94743e-07
-6.39704e-05
-0.000185909
-0.000350948
-0.000545734
-0.000758676
-0.000979938
-0.00120148
-0.0014169
-0.00162114
-0.00181028
-0.00198134
-0.00213205
-0.00226073
-0.00236616
-0.00244746
-0.00250402
-0.00253543
-0.0025414
-0.00252177
-0.0024764
-0.00240525
-0.0023083
-0.00218559
-0.00203719
-0.00186325
-0.00166399
-0.00143971
-0.00119087
-0.000918034
-0.00062192
-0.000303441
3.62896e-05
0.000395937
0.000773935
0.00116847
0.00157748
0.00199864
0.0024294
0.00286694
0.00330824
0.00375005
0.00418896
0.00462141
0.00504375
0.00545225
0.0058432
0.00621293
0.00655785
0.00687457
0.00715992
0.00741102
0.00762532
0.00780069
0.00793547
0.00802848
0.0080791
0.00808727
0.00805355
0.00797909
0.00786567
0.00771569
0.00753216
0.00731867
0.00707939
0.00681902
0.00654276
0.0062563
0.00596578
0.00567776
0.00539919
0.00513739
0.00489999
0.00469479
0.0045295
0.00441102
0.00434454
0.00433212
0.00436046
6.65981e-06
3.32617e-06
-5.30804e-05
-0.000156466
-0.000294722
-0.000458307
-0.00063839
-0.000827062
-0.00101751
-0.00120407
-0.00138211
-0.00154792
-0.00169856
-0.00183176
-0.00194573
-0.00203914
-0.00211098
-0.00216052
-0.0021872
-0.00219062
-0.00217051
-0.00212668
-0.00205901
-0.00196744
-0.00185197
-0.00171265
-0.00154962
-0.00136308
-0.00115335
-0.000920862
-0.00066617
-0.000389985
-9.31859e-05
0.000223162
0.000557791
0.000909215
0.00127573
0.00165539
0.00204605
0.0024453
0.00285055
0.00325899
0.00366764
0.00407334
0.00447285
0.0048628
0.00523979
0.00560043
0.00594138
0.0062594
0.0065514
0.00681453
0.00704621
0.00724415
0.00740648
0.00753173
0.0076189
0.00766749
0.00767753
0.00764959
0.00758482
0.00748492
0.00735216
0.00718936
0.00699985
0.0067875
0.00655664
0.00631204
0.00605888
0.00580272
0.00554943
0.00530515
0.00507621
0.00486905
0.00469005
0.0045452
0.00443941
0.00437621
0.00436019
0.00438872
7.09676e-05
5.96181e-05
2.75509e-06
-9.28217e-05
-0.000217128
-0.000362617
-0.000522287
-0.000689615
-0.000858841
-0.00102504
-0.00118407
-0.00133257
-0.00146778
-0.00158751
-0.00169003
-0.00177398
-0.00183834
-0.00188231
-0.00190527
-0.00190679
-0.00188651
-0.00184419
-0.00177967
-0.00169285
-0.00158371
-0.00145227
-0.00129863
-0.001123
-0.000925644
-0.000706984
-0.000467545
-0.000208
7.0817e-05
0.000367894
0.00068203
0.00101183
0.00135567
0.00171175
0.00207802
0.00245225
0.00283199
0.00321461
0.00359732
0.00397719
0.00435117
0.00471614
0.00506892
0.00540636
0.00572535
0.00602288
0.00629611
0.00654238
0.00675932
0.00694484
0.00709723
0.00721514
0.00729771
0.00734451
0.00735561
0.00733162
0.00727363
0.0071833
0.00706278
0.00691474
0.00674233
0.00654917
0.00633929
0.00611713
0.00588745
0.00565535
0.00542615
0.00520534
0.00499855
0.00481136
0.00464924
0.00451726
0.00441949
0.00435923
0.00434377
0.00437681
0.000194137
0.000163396
9.72791e-05
7.31064e-07
-0.000119169
-0.000256171
-0.000404469
-0.000558662
-0.000713905
-0.000865998
-0.00101137
-0.00114702
-0.00127049
-0.00137979
-0.0014733
-0.00154974
-0.00160813
-0.00164768
-0.00166777
-0.00166794
-0.00164783
-0.00160716
-0.00154574
-0.00146343
-0.00136018
-0.00123598
-0.00109091
-0.000925122
-0.000738873
-0.000532528
-0.000306571
-6.16209e-05
0.000201546
0.000481985
0.00077857
0.00108998
0.00141471
0.00175104
0.00209705
0.00245063
0.00280947
0.0031711
0.00353287
0.00389201
0.00424563
0.00459078
0.00492446
0.00524368
0.0055455
0.00582708
0.00608572
0.00631893
0.00652445
0.00670033
0.00684496
0.00695708
0.0070359
0.00708104
0.00709259
0.00707115
0.0070178
0.00693412
0.00682219
0.00668454
0.00652418
0.00634453
0.00614937
0.00594287
0.00572946
0.00551385
0.00530092
0.00509568
0.00490318
0.00472842
0.00457628
0.00445131
0.00435727
0.00429756
0.00428057
0.00431206
0.000362601
0.000303296
0.00022107
0.000117673
-3.61355e-06
-0.000137705
-0.000279782
-0.000425482
-0.000570846
-0.000712387
-0.000847102
-0.00097244
-0.00108627
-0.00118684
-0.00127274
-0.00134281
-0.00139615
-0.00143202
-0.00144984
-0.00144914
-0.00142957
-0.00139084
-0.00133274
-0.00125509
-0.00115782
-0.00104088
-0.000904304
-0.000748208
-0.000572803
-0.0003784
-0.000165427
6.5561e-05
0.000313859
0.000578598
0.000858733
0.00115304
0.0014601
0.00177831
0.00210587
0.00244077
0.00278084
0.00312373
0.00346692
0.00380779
0.00414359
0.00447148
0.00478862
0.00509215
0.00537925
0.00564721
0.00589344
0.00611556
0.00631141
0.00647911
0.00661713
0.00672428
0.00679979
0.00684331
0.00685495
0.00683529
0.00678538
0.00670674
0.00660135
0.00647166
0.00632052
0.00615117
0.0059672
0.00577253
0.00557129
0.00536786
0.00516674
0.0049725
0.00478974
0.00462297
0.00447657
0.00435468
0.0042608
0.00419833
0.00417512
0.00419678
0.000563938
0.000470326
0.000366989
0.000252077
0.000124697
-1.10727e-05
-0.000151264
-0.000292471
-0.000431577
-0.000565785
-0.000692651
-0.000810082
-0.000916322
-0.00100991
-0.00108964
-0.00115455
-0.00120384
-0.00123686
-0.00125309
-0.00125208
-0.00123351
-0.00119707
-0.00114255
-0.00106976
-0.000978564
-0.000868896
-0.000740743
-0.00059417
-0.000429331
-0.000246474
-4.5957e-05
0.000171736
0.000405979
0.000655985
0.000920803
0.0011993
0.00149017
0.00179189
0.00210279
0.00242096
0.00274435
0.00307072
0.00339768
0.0037227
0.00404314
0.00435629
0.0046594
0.00494971
0.00522449
0.00548112
0.00571708
0.00593007
0.00611797
0.00627897
0.00641157
0.00651461
0.00658732
0.00662938
0.00664088
0.00662236
0.00657485
0.0064998
0.00639913
0.00627518
0.00613066
0.00596869
0.00579267
0.00560628
0.00541345
0.00521823
0.00502481
0.0048374
0.00466021
0.00449733
0.00435273
0.00423016
0.00413291
0.0040642
0.00403037
0.00403563
0.000787185
0.000655988
0.000528118
0.000398104
0.000260857
0.000119618
-2.23701e-05
-0.000162575
-0.000298647
-0.000428444
-0.000550073
-0.000661901
-0.000762557
-0.000850898
-0.000925967
-0.000986982
-0.0010333
-0.00106437
-0.00107976
-0.00107908
-0.00106201
-0.00102829
-0.000977661
-0.000909931
-0.000824937
-0.000722566
-0.000602759
-0.000465525
-0.000310951
-0.000139213
4.94069e-05
0.000254506
0.000475545
0.000711829
0.0009625
0.00122653
0.00150269
0.0017896
0.00208565
0.00238907
0.0026979
0.00300999
0.00332305
0.00363463
0.00394221
0.00424313
0.00453472
0.00481428
0.00507915
0.00532676
0.00555462
0.00576046
0.0059422
0.00609804
0.00622647
0.00632634
0.00639689
0.00643775
0.006449
0.00643116
0.00638517
0.00631246
0.00621486
0.00609462
0.00595437
0.00579706
0.00562597
0.00544458
0.00525662
0.00506591
0.00487636
0.00469188
0.00451635
0.00435352
0.00420702
0.00408025
0.00397627
0.00389811
0.00385002
0.00383428
0.00102268
0.000852264
0.00069766
0.000549975
0.000400048
0.00025041
0.000103691
-3.83576e-05
-0.000174093
-0.000301969
-0.000420634
-0.000528916
-0.000625826
-0.000710541
-0.000782367
-0.000840732
-0.00088515
-0.000915211
-0.000930557
-0.000930882
-0.0009159
-0.000885349
-0.000838986
-0.000776595
-0.000697982
-0.000602991
-0.000491511
-0.000363488
-0.000218937
-5.79557e-05
0.000119258
0.00031239
0.000520995
0.000744477
0.000982073
0.00123285
0.00149571
0.00176933
0.00205223
0.00234273
0.00263895
0.00293884
0.00324018
0.00354061
0.00383763
0.00412868
0.00441112
0.00468228
0.00493954
0.00518033
0.00540218
0.00560282
0.00578015
0.00593236
0.00605792
0.00615565
0.00622475
0.00626482
0.00627589
0.00625843
0.00621334
0.00614197
0.0060461
0.00592787
0.00578984
0.00563485
0.00546605
0.00528678
0.00510058
0.00491109
0.00472199
0.00453697
0.00435962
0.00419343
0.00404172
0.00390756
0.00379387
0.00370343
0.00363822
0.00359838
0.00126205
0.00105181
0.000869207
0.000702112
0.000537474
0.000377229
0.000223495
7.73329e-05
-6.02645e-05
-0.000188321
-0.000305984
-0.000412529
-0.000507348
-0.000589935
-0.000659861
-0.000716772
-0.000760359
-0.000790347
-0.000806483
-0.000808529
-0.000796246
-0.000769388
-0.000727716
-0.000670996
-0.000599005
-0.00051154
-0.000408432
-0.000289558
-0.000154857
-4.34141e-06
0.000161883
0.000343596
0.000540451
0.000751953
0.000977446
0.0012161
0.0014669
0.00172866
0.00199997
0.00227924
0.00256468
0.0028543
0.00314597
0.00343735
0.00372602
0.00400943
0.00428496
0.00454997
0.00480181
0.00503792
0.0052558
0.00545315
0.00562783
0.00577798
0.00590202
0.00599872
0.00606722
0.00610706
0.00611821
0.00610106
0.00605647
0.00598572
0.00589051
0.00577292
0.0056354
0.00548073
0.00531194
0.00513226
0.0049451
0.00475393
0.00456228
0.00437363
0.00419137
0.00401877
0.00385888
0.00371455
0.00358854
0.00348346
0.00339893
0.003333
0.00149799
0.00124802
0.00103681
0.000849204
0.000668429
0.000495954
0.000333465
0.000181396
4.01489e-05
-8.98352e-05
-0.000208178
-0.000314575
-0.000408787
-0.000490619
-0.000559906
-0.000616514
-0.000660315
-0.000691174
-0.000708944
-0.000713462
-0.000704534
-0.000681939
-0.000645437
-0.000594779
-0.000529709
-0.000449977
-0.000355349
-0.000245629
-0.000120673
1.95966e-05
0.000175171
0.000345931
0.000531634
0.00073189
0.000946152
0.0011737
0.00141361
0.00166481
0.00192597
0.00219558
0.00247194
0.00275311
0.00303702
0.00332137
0.00360377
0.00388167
0.00415246
0.00441348
0.00466207
0.0048956
0.00511155
0.00530753
0.00548136
0.00563108
0.00575506
0.00585196
0.00592086
0.0059612
0.00597287
0.00595621
0.00591197
0.00584137
0.00574603
0.00562799
0.0054896
0.00533357
0.00516284
0.00498057
0.00479005
0.00459465
0.00439777
0.00420273
0.0040128
0.00383106
0.00366038
0.00350339
0.00336281
0.00324111
0.00313562
0.00304237
0.00172409
0.00143489
0.00119493
0.000986182
0.000788342
0.000602488
0.000429954
0.000270592
0.000124259
-9.09668e-06
-0.000129543
-0.000237174
-0.000332099
-0.000414426
-0.00048425
-0.000541654
-0.000586687
-0.000619355
-0.000639617
-0.000647382
-0.000642503
-0.000624783
-0.000593983
-0.000549835
-0.000492048
-0.000420319
-0.000334347
-0.000233857
-0.000118618
1.15457e-05
0.000156725
0.00031691
0.000491966
0.000681614
0.000885417
0.00110276
0.00133284
0.00157466
0.00182699
0.00208841
0.00235727
0.00263171
0.00290967
0.0031889
0.00346702
0.00374147
0.00400962
0.00426878
0.00451624
0.0047493
0.00496536
0.00516195
0.00533679
0.00548782
0.00561329
0.00571178
0.00578223
0.005824
0.00583687
0.00582107
0.00577729
0.00570665
0.0056107
0.00549139
0.00535105
0.00519228
0.00501798
0.00483125
0.00463529
0.00443341
0.00422892
0.00402506
0.00382498
0.00363166
0.00344784
0.00327602
0.0031189
0.00297893
0.00285122
0.00272989
0.00193462
0.00160694
0.00133839
0.00110823
0.000892792
0.000692803
0.000509293
0.000341588
0.000189037
5.11313e-05
-7.26135e-05
-0.000182668
-0.000279475
-0.000363433
-0.000434887
-0.000494131
-0.000541385
-0.000576789
-0.000600405
-0.000612213
-0.00061211
-0.000599921
-0.000575407
-0.000538278
-0.0004882
-0.000424814
-0.000347748
-0.000256642
-0.000151172
-3.10627e-05
0.000103885
0.000253774
0.000418586
0.000598157
0.000792164
0.00100011
0.00122128
0.0014548
0.00169951
0.00195408
0.00221692
0.00248622
0.00275994
0.00303588
0.00331162
0.00358462
0.00385219
0.00411159
0.00436003
0.00459473
0.004813
0.00501224
0.00519004
0.00534423
0.00547291
0.00557453
0.00564789
0.00569222
0.00570718
0.0056929
0.00564994
0.00557933
0.00548256
0.00536149
0.00521838
0.00505581
0.0048766
0.00468382
0.00448064
0.00427032
0.00405612
0.00384126
0.00362882
0.00342174
0.00322268
0.00303407
0.00285869
0.00269902
0.00254809
0.00239816
0.00212435
0.00175909
0.00146237
0.00121081
0.00097752
0.000762942
0.000567821
0.000391
0.000231355
8.79512e-05
-4.00881e-05
-0.000153589
-0.000253311
-0.00033993
-0.000414031
-0.000476104
-0.000526535
-0.000565591
-0.000593428
-0.000610095
-0.000615529
-0.000609572
-0.000591981
-0.000562437
-0.000520563
-0.000465934
-0.000398103
-0.000316623
-0.000221068
-0.000111057
1.3722e-05
0.000153489
0.000308348
0.000478257
0.000663013
0.000862227
0.00107531
0.00130147
0.00153966
0.0017886
0.00204678
0.00231243
0.00258355
0.00285792
0.00313314
0.00340662
0.00367564
0.00393736
0.00418892
0.00442742
0.00465003
0.00485404
0.00503688
0.00519621
0.00532998
0.00543645
0.00551429
0.00556256
0.00558076
0.00556889
0.0055274
0.0054572
0.00535967
0.00523663
0.00509026
0.00492309
0.00473793
0.0045378
0.00432587
0.00410541
0.00387967
0.00365186
0.00342508
0.00320226
0.00298607
0.00277892
0.00258372
0.00240309
0.00222804
0.0020491
0.00228847
0.00188665
0.00156232
0.00128957
0.00103842
0.000809028
0.000601898
0.000415415
0.000248016
9.83605e-05
-3.47986e-05
-0.000152624
-0.000256176
-0.000346393
-0.000424084
-0.000489929
-0.000544463
-0.000588073
-0.000621004
-0.000643365
-0.00065513
-0.000656152
-0.000646176
-0.00062485
-0.000591744
-0.000546366
-0.000488187
-0.000416666
-0.000331274
-0.000231513
-0.000116953
1.27492e-05
0.000157825
0.000318362
0.00049428
0.000685314
0.000890991
0.00111061
0.00134323
0.00158765
0.00184241
0.00210579
0.00237583
0.0026503
0.00292679
0.00320265
0.0034751
0.00374124
0.00399806
0.00424257
0.00447177
0.00468278
0.00487285
0.00503947
0.00518039
0.00529367
0.00537779
0.00543161
0.00545448
0.00544621
0.00540711
0.00533798
0.00524009
0.00511515
0.00496531
0.00479305
0.00460116
0.00439266
0.00417074
0.00393867
0.00369977
0.00345729
0.00321438
0.00297404
0.00273897
0.00251165
0.0022952
0.00209241
0.00189241
0.00168403
0.00242248
0.0019852
0.00163394
0.00134037
0.00107151
0.000827274
0.000607929
0.000411428
0.000235789
7.92892e-05
-5.96725e-05
-0.000182579
-0.000290773
-0.000385443
-0.000467609
-0.000538122
-0.000597659
-0.000646718
-0.000685623
-0.000714538
-0.000733465
-0.000742259
-0.000740647
-0.000728237
-0.000704543
-0.000668997
-0.000620982
-0.000559857
-0.000484984
-0.000395743
-0.000291576
-0.00017201
-3.66813e-05
0.000114634
0.000281989
0.000465245
0.000664049
0.000877811
0.00110568
0.00134655
0.00159902
0.00186142
0.00213179
0.00240794
0.0026874
0.0029675
0.00324538
0.00351802
0.00378231
0.00403509
0.0042732
0.00449357
0.00469324
0.00486948
0.00501982
0.00514209
0.00523453
0.00529581
0.00532505
0.00532187
0.00528641
0.00521933
0.00512176
0.00499534
0.00484213
0.00466458
0.00446547
0.00424784
0.0040149
0.00377002
0.00351655
0.00325786
0.0029972
0.00273769
0.00248213
0.00223311
0.00199403
0.00176795
0.00154212
0.00130375
0.00252216
0.00205056
0.00167316
0.00135925
0.00107297
0.000814005
0.000582388
0.000375663
0.00019144
2.76328e-05
-0.000117698
-0.000246341
-0.000359908
-0.000459817
-0.000547286
-0.000623329
-0.000688752
-0.000744151
-0.000789924
-0.000826279
-0.000853238
-0.00087065
-0.000878215
-0.000875494
-0.000861939
-0.000836901
-0.000799666
-0.000749488
-0.000685609
-0.000607286
-0.000513825
-0.000404611
-0.00027914
-0.000137047
2.1863e-05
0.000197587
0.000389899
0.000598326
0.000822125
0.00106027
0.00131143
0.001574
0.00184604
0.00212535
0.00240945
0.0026956
0.00298087
0.00326213
0.00353612
0.00379952
0.00404897
0.00428119
0.004493
0.00468139
0.00484365
0.00497735
0.00508046
0.00515139
0.00518902
0.00519275
0.00516251
0.00509879
0.00500258
0.0048754
0.00471923
0.0045365
0.00432996
0.0041027
0.003858
0.00359929
0.00333006
0.0030538
0.00277393
0.0024937
0.00221612
0.00194394
0.00168088
0.00143033
0.00117772
0.000908639
0.00258349
0.00207877
0.00167608
0.00134241
0.00103911
0.000765646
0.000521824
0.000304784
0.000111746
-5.97282e-05
-0.000211903
-0.000346856
-0.000466454
-0.000572334
-0.000665896
-0.000748304
-0.000820483
-0.000883119
-0.000936672
-0.000981384
-0.00101729
-0.00104422
-0.00106184
-0.00106967
-0.00106707
-0.00105332
-0.00102759
-0.000989035
-0.000936762
-0.000869896
-0.0007876
-0.000689112
-0.000573774
-0.000441071
-0.000290659
-0.000122396
6.36322e-05
0.000267078
0.000487312
0.000723402
0.000974108
0.00123786
0.00151277
0.00179664
0.00208696
0.00238094
0.00267555
0.00296754
0.00325352
0.00352996
0.00379331
0.00404003
0.00426668
0.00446999
0.00464692
0.00479476
0.00491118
0.00499429
0.00504268
0.00505549
0.00503242
0.00497373
0.00488026
0.0047534
0.00459503
0.00440753
0.00419368
0.00395658
0.0036996
0.00342628
0.00314028
0.00284525
0.00254481
0.00224246
0.00194139
0.00164459
0.00135618
0.00107994
0.000799464
0.000498726
0.00260263
0.00206605
0.00163898
0.0012862
0.000966378
0.000678735
0.000422867
0.000195513
-6.48364e-06
-0.000185905
-0.000345323
-0.000487096
-0.000613331
-0.000725869
-0.000826282
-0.000915873
-0.000995677
-0.00106646
-0.00112873
-0.00118275
-0.00122856
-0.00126598
-0.00129462
-0.00131393
-0.00132321
-0.00132163
-0.00130827
-0.00128214
-0.00124223
-0.00118751
-0.00111701
-0.00102979
-0.000925041
-0.000802081
-0.000660409
-0.000499724
-0.000319965
-0.000121338
9.56545e-05
0.000330189
0.000581114
0.00084693
0.00112579
0.00141549
0.00171352
0.00201704
0.00232291
0.00262778
0.00292807
0.00322006
0.00349998
0.00376401
0.00400842
0.00422962
0.00442426
0.00458927
0.00472197
0.00482014
0.00488203
0.00490648
0.00489291
0.00484133
0.00475237
0.00462727
0.00446782
0.00427633
0.00405557
0.0038087
0.00353919
0.00325072
0.00294712
0.00263228
0.00231006
0.00198422
0.00165824
0.00133538
0.00102022
0.000716958
0.000407377
7.37786e-05
0.0025759
0.00200877
0.0015583
0.00118714
0.00085135
0.000549926
0.000282241
4.46466e-05
-0.000166386
-0.00035397
-0.000520977
-0.000670029
-0.000803465
-0.000923319
-0.00103132
-0.00112891
-0.00121722
-0.00129707
-0.00136902
-0.00143336
-0.0014901
-0.00153903
-0.00157972
-0.00161155
-0.00163373
-0.00164534
-0.00164533
-0.00163259
-0.00160595
-0.00156425
-0.00150634
-0.00143112
-0.00133761
-0.00122495
-0.00109247
-0.000939696
-0.000766401
-0.000572639
-0.00035877
-0.000125493
0.000126145
0.000394724
0.000678449
0.000975149
0.00128229
0.00159697
0.001916
0.00223586
0.00255283
0.00286296
0.00316223
0.00344654
0.00371184
0.00395418
0.00416984
0.00435536
0.00450768
0.00462416
0.0047027
0.00474177
0.00474045
0.00469848
0.00461624
0.00449478
0.00433576
0.00414141
0.0039145
0.00365824
0.00337621
0.00307226
0.00275045
0.00241491
0.0020698
0.00171919
0.0013669
0.00101651
0.000673125
0.000341422
1.30502e-06
-0.000366633
0.0024998
0.00190349
0.00143066
0.00104188
0.000690749
0.000375998
9.678e-05
-0.000150929
-0.000371023
-0.000566938
-0.000741835
-0.000898592
-0.00103977
-0.00116758
-0.00128391
-0.00139031
-0.00148801
-0.00157788
-0.00166052
-0.00173621
-0.00180496
-0.00186651
-0.00192038
-0.00196588
-0.00200211
-0.00202804
-0.00204251
-0.00204426
-0.00203199
-0.00200435
-0.00196002
-0.00189775
-0.00181634
-0.00171477
-0.00159216
-0.00144785
-0.00128145
-0.00109283
-0.000882201
-0.000650105
-0.000397473
-0.000125624
0.000163714
0.000468409
0.000785923
0.00111333
0.00144733
0.0017843
0.00212032
0.00245125
0.00277278
0.00308051
0.00337002
0.003637
0.00387729
0.00408701
0.00426265
0.00440113
0.0044999
0.00455702
0.00457119
0.0045418
0.00446895
0.00435344
0.00419678
0.00400112
0.00376919
0.00350426
0.00321003
0.00289055
0.0025501
0.00219313
0.00182412
0.00144754
0.00106755
0.000688144
0.000314972
-4.67342e-05
-0.000419019
-0.000823077
0.00237096
0.00174693
0.00125282
0.000847257
0.000481438
0.000153857
-0.000136563
-0.000394221
-0.000623364
-0.000827743
-0.0010108
-0.00117567
-0.0013251
-0.0014615
-0.0015869
-0.00170295
-0.00181094
-0.00191182
-0.00200619
-0.00209434
-0.00217624
-0.00225161
-0.00231989
-0.00238029
-0.00243184
-0.00247338
-0.00250361
-0.00252114
-0.00252449
-0.00251215
-0.00248262
-0.00243444
-0.00236624
-0.00227676
-0.00216495
-0.00202994
-0.00187112
-0.00168819
-0.00148116
-0.00125041
-0.000996743
-0.000721344
-0.000425853
-0.000112347
0.000216656
0.000558202
0.000908922
0.00126506
0.00162253
0.00197697
0.00232377
0.00265819
0.00297546
0.00327083
0.00353968
0.00377766
0.00398073
0.00414532
0.00426838
0.00434748
0.00438087
0.00436754
0.00430725
0.00420052
0.00404865
0.00385365
0.00361825
0.00334574
0.00303995
0.00270514
0.00234586
0.0019669
0.00157312
0.00116941
0.000760351
0.000350385
-5.42162e-05
-0.000447622
-0.000853923
-0.0012962
0.00218619
0.00153594
0.0010217
0.000600224
0.000220427
-0.000119445
-0.000420702
-0.000688108
-0.000926259
-0.00113921
-0.00133069
-0.00150405
-0.00166227
-0.0018079
-0.00194311
-0.00206964
-0.00218887
-0.00230178
-0.00240897
-0.00251074
-0.00260702
-0.00269748
-0.00278148
-0.00285816
-0.00292643
-0.002985
-0.00303244
-0.0030672
-0.00308763
-0.00309204
-0.00307873
-0.00304604
-0.00299238
-0.00291629
-0.00281648
-0.00269186
-0.00254159
-0.00236516
-0.00216239
-0.00193345
-0.00167897
-0.0014
-0.00109805
-0.00077513
-0.000433713
-7.67594e-05
0.000292304
0.00066961
0.0010509
0.00143156
0.00180671
0.00217128
0.00252004
0.00284781
0.00314947
0.00342011
0.00365515
0.00385043
0.00400233
0.00410787
0.00416477
0.00417156
0.00412756
0.00403297
0.00388883
0.003697
0.00346012
0.00318153
0.00286519
0.00251557
0.00213752
0.0017362
0.0013169
0.000884962
0.000445481
3.37034e-06
-0.000434403
-0.000861355
-0.00130375
-0.00178665
0.00194245
0.00126757
0.000734411
0.000297928
-9.5103e-05
-0.000446695
-0.000758394
-0.00103533
-0.00128243
-0.00150406
-0.0017042
-0.00188645
-0.00205396
-0.00220947
-0.00235525
-0.00249314
-0.00262457
-0.00275056
-0.00287173
-0.00298834
-0.0031003
-0.00320722
-0.00330838
-0.00340281
-0.00348933
-0.00356651
-0.00363277
-0.0036864
-0.00372556
-0.00374838
-0.00375296
-0.00373741
-0.00369991
-0.00363876
-0.00355243
-0.00343959
-0.00329916
-0.00313038
-0.00293281
-0.00270645
-0.00245169
-0.00216941
-0.00186099
-0.0015283
-0.00117377
-0.000800338
-0.000411463
-1.11101e-05
0.000396295
0.000805916
0.00121257
0.00161081
0.00199499
0.00235943
0.00269845
0.00300655
0.00327852
0.00350955
0.00369538
0.00383239
0.00391769
0.00394924
0.00392589
0.00384742
0.00371455
0.00352892
0.00329308
0.00301038
0.00268489
0.00232132
0.00192484
0.00150099
0.00105557
0.000594419
0.000123171
-0.000352711
-0.000825501
-0.001288
-0.00176878
-0.00229505
0.00163688
0.000939039
0.000388226
-6.23032e-05
-0.000467791
-0.000830504
-0.00115223
-0.00143845
-0.00169443
-0.00192483
-0.00213388
-0.00232541
-0.00250276
-0.0026688
-0.00282593
-0.00297607
-0.00312071
-0.00326088
-0.00339722
-0.00352997
-0.00365899
-0.00378381
-0.00390366
-0.00401747
-0.0041239
-0.00422142
-0.00430829
-0.00438261
-0.00444238
-0.0044855
-0.00450986
-0.00451335
-0.00449389
-0.00444955
-0.0043785
-0.00427916
-0.00415017
-0.0039905
-0.00379945
-0.00357676
-0.00332259
-0.00303761
-0.002723
-0.0023805
-0.00201243
-0.00162169
-0.00121173
-0.000786606
-0.000350885
9.0375e-05
0.00053169
0.00096723
0.00139091
0.00179649
0.00217773
0.00252845
0.00284276
0.00311512
0.00334053
0.00351463
0.00363385
0.00369548
0.0036978
0.00364009
0.00352266
0.00334691
0.0031152
0.00283087
0.00249811
0.00212184
0.00170758
0.00126131
0.000789325
0.000298064
-0.00020626
-0.000717575
-0.00122732
-0.00172752
-0.00224923
-0.00282194
0.00126683
0.000547778
-1.93751e-05
-0.000482951
-0.000900084
-0.0012733
-0.00160462
-0.00189988
-0.00216467
-0.00240393
-0.00262214
-0.00282334
-0.00301106
-0.00318831
-0.00335759
-0.0035209
-0.00367978
-0.00383529
-0.00398806
-0.0041383
-0.00428582
-0.00443011
-0.00457029
-0.00470518
-0.00483335
-0.00495309
-0.00506251
-0.00515955
-0.00524199
-0.00530754
-0.00535384
-0.00537854
-0.0053793
-0.00535391
-0.00530026
-0.00521647
-0.00510089
-0.00495216
-0.00476931
-0.00455178
-0.00429944
-0.00401272
-0.00369258
-0.00334056
-0.00295885
-0.00255024
-0.00211819
-0.00166678
-0.0012007
-0.00072522
-0.000246116
0.000230396
0.000697756
0.00114917
0.00157775
0.00197663
0.00233911
0.00265888
0.00293009
0.00314755
0.00330689
0.00340464
0.00343837
0.00340678
0.0033097
0.00314816
0.00292431
0.00264144
0.0023038
0.00191653
0.00148551
0.0010172
0.000518437
-3.70981e-06
-0.000542369
-0.0010908
-0.00163954
-0.00217974
-0.00274514
-0.00336768
0.000829853
9.14182e-05
-0.000490698
-0.000966284
-0.00139422
-0.0017773
-0.00211777
-0.00242182
-0.00269534
-0.00294355
-0.00317118
-0.00338246
-0.0035811
-0.00377024
-0.00395249
-0.00412992
-0.00430411
-0.00447615
-0.00464664
-0.00481579
-0.00498336
-0.00514874
-0.00531099
-0.00546881
-0.00562064
-0.00576464
-0.00589874
-0.0060207
-0.0061281
-0.00621842
-0.00628907
-0.00633742
-0.00636087
-0.0063569
-0.00632311
-0.00625728
-0.00615742
-0.00602186
-0.00584928
-0.00563878
-0.00538994
-0.00510286
-0.00477823
-0.00441738
-0.00402228
-0.00359562
-0.00314077
-0.00266182
-0.00216356
-0.00165144
-0.00113151
-0.000610371
-9.50704e-05
0.000407016
0.000888312
0.00134119
0.00175812
0.00213188
0.00245569
0.00272344
0.00292981
0.00307046
0.00314214
0.00314283
0.00307178
0.00292955
0.00271803
0.00244034
0.0021008
0.00170476
0.00125844
0.000768796
0.000243278
-0.000310368
-0.000884552
-0.00147179
-0.00206163
-0.00264428
-0.00325637
-0.00393247
0.000323723
-0.000432174
-0.00102782
-0.00151435
-0.00195224
-0.00234451
-0.00269369
-0.00300626
-0.00328844
-0.00354569
-0.00378299
-0.00400477
-0.00421488
-0.00441661
-0.00461266
-0.00480519
-0.00499579
-0.00518557
-0.00537515
-0.00556468
-0.00575387
-0.00594207
-0.00612821
-0.00631091
-0.00648847
-0.0066589
-0.00681997
-0.00696923
-0.00710408
-0.00722174
-0.00731938
-0.00739411
-0.00744301
-0.00746326
-0.00745211
-0.007407
-0.00732558
-0.00720581
-0.00704599
-0.00684484
-0.00660157
-0.00631595
-0.00598834
-0.00561977
-0.00521199
-0.00476747
-0.00428949
-0.00378209
-0.00325011
-0.00269915
-0.00213552
-0.00156619
-0.000998684
-0.000440997
9.85836e-05
0.000611607
0.00108964
0.00152447
0.00190829
0.00223391
0.00249496
0.00268609
0.00280308
0.00284308
0.00280459
0.00268762
0.00249367
0.00222565
0.00188786
0.00148584
0.00102618
0.000516312
-3.56458e-05
-0.000621208
-0.001232
-0.00185973
-0.00249283
-0.00312052
-0.00378251
-0.00451623
-0.000253522
-0.00102489
-0.0016326
-0.00212896
-0.00257591
-0.00297672
-0.00333414
-0.00365497
-0.00394572
-0.00421211
-0.00445933
-0.00469201
-0.00491417
-0.0051292
-0.0053399
-0.0055485
-0.00575663
-0.00596542
-0.00617546
-0.00638687
-0.00659935
-0.00681213
-0.00702408
-0.0072337
-0.00743916
-0.00763832
-0.00782879
-0.00800792
-0.00817288
-0.00832068
-0.00844821
-0.00855228
-0.00862969
-0.00867725
-0.00869187
-0.00867062
-0.00861074
-0.00850979
-0.00836564
-0.00817661
-0.00794148
-0.00765962
-0.00733101
-0.00695633
-0.00653702
-0.00607532
-0.00557432
-0.00503796
-0.00447108
-0.00387938
-0.00326941
-0.00264847
-0.00202459
-0.00140634
-0.000802784
-0.000223227
0.000322919
0.000826358
0.00127814
0.00166989
0.00199403
0.00224404
0.0024146
0.00250183
0.00250337
0.00241852
0.00224826
0.00199522
0.0016636
0.00125907
0.000788564
0.000260054
-0.000317672
-0.000935323
-0.00158367
-0.00225352
-0.00293211
-0.00360753
-0.00432285
-0.00511858
-0.000903581
-0.00168836
-0.0023066
-0.00281168
-0.00326679
-0.00367544
-0.00404063
-0.00436945
-0.00466868
-0.0049443
-0.0052017
-0.00544569
-0.00568045
-0.00590949
-0.0061357
-0.00636135
-0.00658814
-0.00681719
-0.00704909
-0.00728395
-0.00752138
-0.00776058
-0.00800032
-0.00823897
-0.0084746
-0.00870491
-0.00892733
-0.00913904
-0.00933697
-0.00951789
-0.00967841
-0.00981505
-0.00992428
-0.0100026
-0.0100464
-0.0100525
-0.0100177
-0.00993898
-0.00981388
-0.00964019
-0.00941625
-0.00914096
-0.00881385
-0.00843519
-0.00800605
-0.00752836
-0.00700493
-0.00643958
-0.00583706
-0.00520313
-0.00454451
-0.00386881
-0.00318452
-0.00250083
-0.00182755
-0.00117491
-0.000553363
2.6634e-05
0.000554872
0.00102165
0.00141805
0.0017362
0.00196949
0.00211285
0.00216288
0.00211801
0.00197855
0.0017467
0.0014265
0.00102369
0.000545505
4.56313e-07
-0.000601951
-0.00125157
-0.00193822
-0.00265175
-0.00337807
-0.00410402
-0.00487631
-0.00573874
-0.00162787
-0.00242394
-0.00305115
-0.0035638
-0.00402614
-0.00444194
-0.00481442
-0.00515095
-0.00545857
-0.00574348
-0.00601131
-0.00626702
-0.00651492
-0.00675866
-0.00700121
-0.0072449
-0.00749147
-0.00774204
-0.00799722
-0.00825707
-0.00852116
-0.00878863
-0.00905815
-0.00932802
-0.00959615
-0.00986011
-0.0101172
-0.0103643
-0.0105982
-0.0108154
-0.0110122
-0.0111849
-0.0113295
-0.0114422
-0.0115191
-0.0115563
-0.0115504
-0.0114978
-0.0113956
-0.0112409
-0.0110317
-0.0107663
-0.0104438
-0.0100638
-0.00962711
-0.00913518
-0.00859053
-0.0079967
-0.00735832
-0.00668114
-0.00597197
-0.00523871
-0.00449025
-0.0037364
-0.00298772
-0.00225538
-0.00155094
-0.000886093
-0.000272427
0.000278901
0.000757457
0.00115384
0.00145997
0.00166938
0.00177742
0.00178145
0.00168094
0.00147752
0.00117494
0.000778914
0.000296957
-0.000261903
-0.000887415
-0.00156851
-0.002294
-0.00305265
-0.00382891
-0.00460828
-0.00544138
-0.00637552
-0.0024275
-0.00323269
-0.00386728
-0.00438632
-0.00485497
-0.0052772
-0.00565648
-0.00600042
-0.00631632
-0.00661061
-0.00688908
-0.00715688
-0.00741846
-0.00767757
-0.00793727
-0.00819995
-0.00846738
-0.00874072
-0.00902056
-0.00930693
-0.00959938
-0.00989697
-0.0101983
-0.0105016
-0.0108046
-0.0111048
-0.0113992
-0.0116846
-0.0119576
-0.0122144
-0.012451
-0.0126633
-0.0128472
-0.0129982
-0.0131122
-0.0131848
-0.0132119
-0.0131897
-0.0131145
-0.0129831
-0.0127927
-0.0125411
-0.0122267
-0.0118487
-0.0114074
-0.0109036
-0.0103395
-0.00971833
-0.00904449
-0.0083236
-0.00756252
-0.00676936
-0.00595336
-0.00512491
-0.00429532
-0.00347671
-0.00268178
-0.00192356
-0.0012151
-0.000569161
2.14634e-06
0.000487701
0.000877732
0.00116414
0.00134081
0.00140379
0.00135153
0.00118488
0.000907155
0.000523945
4.29595e-05
-0.000526272
-0.00117274
-0.00188439
-0.00264895
-0.00345399
-0.00428237
-0.00511812
-0.00601602
-0.00702719
-0.00330326
-0.00411538
-0.00475574
-0.00527998
-0.00575398
-0.00618194
-0.0065675
-0.00691856
-0.00724262
-0.00754631
-0.00783562
-0.00811585
-0.00839159
-0.00866669
-0.0089443
-0.00922687
-0.00951621
-0.0098135
-0.0101193
-0.0104337
-0.0107562
-0.0110857
-0.0114209
-0.0117598
-0.0121
-0.012439
-0.0127735
-0.0131003