/*--------------------------------*- C++ -*----------------------------------*\
| =========                 |                                                 |
| \\      /  F ield         | OpenFOAM: The Open Source CFD Toolbox           |
|  \\    /   O peration     | Version:  2506                                  |
|   \\  /    A nd           | Website:  www.openfoam.com                      |
|    \\/     M anipulation  |                                                 |
\*---------------------------------------------------------------------------*/
FoamFile
{
    version     2.0;
    format      ascii;
    arch        "LSB;label=32;scalar=64";
    class       surfaceScalarField;
    location    "1.775";
    object      phi;
}
// * * * * * * * * * * * * * * * * * * * * * * * * * * * * * * * * * * * * * //

dimensions      [0 3 -1 0 0 0 0];

oriented        oriented;

internalField   nonuniform List<scalar> 
12640
(
2.19192e-10
-2.29065e-10
6.1635e-10
-3.97196e-10
9.36586e-10
-3.20168e-10
1.04719e-09
-1.10667e-10
8.89155e-10
1.58008e-10
4.43206e-10
4.45958e-10
-2.87697e-10
7.30907e-10
-1.28847e-09
1.00077e-09
-2.53764e-09
1.24918e-09
-4.01076e-09
1.47314e-09
-5.6824e-09
1.67162e-09
-7.52727e-09
1.84488e-09
-9.52107e-09
1.99381e-09
-1.16408e-08
2.11973e-09
-1.3865e-08
2.22413e-09
-1.61735e-08
2.30852e-09
-1.85479e-08
2.37439e-09
-2.0971e-08
2.42309e-09
-2.34268e-08
2.45583e-09
-2.59004e-08
2.4736e-09
-2.83776e-08
2.47725e-09
-3.08451e-08
2.46744e-09
-3.32897e-08
2.44464e-09
-3.56989e-08
2.40917e-09
-3.80601e-08
2.36121e-09
-4.03609e-08
2.30079e-09
-4.25888e-08
2.22789e-09
-4.47312e-08
2.14243e-09
-4.67755e-08
2.0443e-09
-4.87089e-08
1.93337e-09
-5.05185e-08
1.80957e-09
-5.21914e-08
1.6729e-09
-5.37148e-08
1.5234e-09
-5.5076e-08
1.36125e-09
-5.62628e-08
1.18676e-09
-5.72632e-08
1.0004e-09
-5.80659e-08
8.02797e-10
-5.86607e-08
5.94789e-10
-5.90381e-08
3.77401e-10
-5.919e-08
1.51861e-10
-5.91096e-08
-8.03984e-11
-5.87919e-08
-3.17746e-10
-5.82335e-08
-5.58357e-10
-5.74333e-08
-8.0022e-10
-5.63921e-08
-1.04116e-09
-5.51132e-08
-1.27885e-09
-5.36024e-08
-1.51086e-09
-5.18678e-08
-1.73466e-09
-4.99201e-08
-1.94768e-09
-4.77727e-08
-2.14735e-09
-4.54416e-08
-2.33113e-09
-4.2945e-08
-2.49657e-09
-4.03037e-08
-2.64132e-09
-3.75405e-08
-2.76323e-09
-3.46801e-08
-2.86034e-09
-3.17492e-08
-2.93096e-09
-2.87755e-08
-2.9737e-09
-2.57879e-08
-2.98752e-09
-2.28162e-08
-2.97171e-09
-1.98903e-08
-2.92596e-09
-1.70399e-08
-2.85039e-09
-1.42943e-08
-2.74551e-09
-1.16821e-08
-2.61224e-09
-9.23015e-09
-2.45195e-09
-6.96376e-09
-2.2664e-09
-4.90599e-09
-2.05777e-09
-3.0773e-09
-1.82868e-09
-1.49514e-09
-1.58214e-09
-1.73475e-10
-1.32166e-09
8.77768e-10
-1.05124e-09
1.65328e-09
-7.75509e-10
2.15326e-09
-4.9998e-10
2.38465e-09
-2.31384e-10
2.36293e-09
2.17224e-11
2.11509e-09
2.47841e-10
1.68406e-09
4.31024e-10
1.13553e-09
5.48539e-10
5.68764e-10
5.66773e-10
1.32741e-10
4.36024e-10
1.32741e-10
3.94172e-10
-6.23325e-10
9.04772e-10
-9.07713e-10
1.13991e-09
-5.55411e-10
8.62504e-10
1.66799e-10
-6.09277e-11
1.08147e-09
-1.68902e-09
2.07402e-09
-4.03065e-09
3.07252e-09
-7.06258e-09
4.03275e-09
-1.07421e-08
4.92872e-09
-1.50151e-08
5.74613e-09
-1.98218e-08
6.47822e-09
-2.51e-08
7.12309e-09
-3.0788e-08
7.68187e-09
-3.68258e-08
8.15756e-09
-4.31559e-08
8.55424e-09
-4.97238e-08
8.87646e-09
-5.64783e-08
9.12884e-09
-6.33709e-08
9.31573e-09
-7.03563e-08
9.44112e-09
-7.73912e-08
9.5085e-09
-8.44347e-08
9.52073e-09
-9.14473e-08
9.48014e-09
-9.83911e-08
9.38845e-09
-1.05229e-07
9.24689e-09
-1.11924e-07
9.05621e-09
-1.1844e-07
8.81681e-09
-1.24741e-07
8.52878e-09
-1.3079e-07
8.19204e-09
-1.36553e-07
7.80643e-09
-1.41991e-07
7.37179e-09
-1.47069e-07
6.88812e-09
-1.51752e-07
6.35561e-09
-1.56004e-07
5.77484e-09
-1.59789e-07
5.14675e-09
-1.63075e-07
4.47281e-09
-1.6583e-07
3.75504e-09
-1.68023e-07
2.99607e-09
-1.69627e-07
2.19924e-09
-1.70619e-07
1.36856e-09
-1.70976e-07
5.08799e-10
-1.70681e-07
-3.74558e-10
-1.69724e-07
-1.2753e-09
-1.68096e-07
-2.18651e-09
-1.65795e-07
-3.10068e-09
-1.62827e-07
-4.00969e-09
-1.59201e-07
-4.90495e-09
-1.54934e-07
-5.77746e-09
-1.50051e-07
-6.61797e-09
-1.44581e-07
-7.41706e-09
-1.38563e-07
-8.16534e-09
-1.32041e-07
-8.85354e-09
-1.25065e-07
-9.47273e-09
-1.17692e-07
-1.00144e-08
-1.09984e-07
-1.04708e-08
-1.02009e-07
-1.08349e-08
-9.38397e-08
-1.11006e-08
-8.55505e-08
-1.1263e-08
-7.72199e-08
-1.13182e-08
-6.89277e-08
-1.12638e-08
-6.07548e-08
-1.10989e-08
-5.27813e-08
-1.08239e-08
-4.50859e-08
-1.04409e-08
-3.77448e-08
-9.95334e-09
-3.08302e-08
-9.36647e-09
-2.44096e-08
-8.687e-09
-1.85441e-08
-7.92324e-09
-1.32877e-08
-7.08514e-09
-8.68551e-09
-6.1843e-09
-4.77302e-09
-5.23415e-09
-1.5741e-09
-4.25016e-09
9.00648e-10
-3.25025e-09
2.65617e-09
-2.2555e-09
3.71598e-09
-1.29117e-09
4.12615e-09
-3.88435e-10
3.96077e-09
4.13229e-10
3.32905e-09
1.06273e-09
2.38422e-09
1.49335e-09
1.33228e-09
1.61871e-09
4.34084e-10
1.33424e-09
5.66829e-10
3.24334e-10
-9.47593e-10
5.61574e-10
-1.14509e-09
2.78108e-10
-2.71956e-10
-7.97575e-10
1.24257e-09
-2.82813e-09
3.11197e-09
-5.89192e-09
5.13779e-09
-1.00056e-08
7.18625e-09
-1.51431e-08
9.17029e-09
-2.12496e-08
1.10352e-08
-2.82519e-08
1.27484e-08
-3.60662e-08
1.42926e-08
-4.46036e-08
1.56605e-08
-5.37735e-08
1.68517e-08
-6.34863e-08
1.78703e-08
-7.36548e-08
1.87227e-08
-8.41953e-08
1.9417e-08
-9.5028e-08
1.99616e-08
-1.06077e-07
2.03647e-08
-1.1727e-07
2.0634e-08
-1.28538e-07
2.07763e-08
-1.39814e-07
2.07974e-08
-1.51036e-07
2.0702e-08
-1.62141e-07
2.04937e-08
-1.7307e-07
2.01751e-08
-1.83761e-07
1.9748e-08
-1.94158e-07
1.92133e-08
-2.04201e-07
1.85717e-08
-2.13832e-07
1.78232e-08
-2.22994e-07
1.6968e-08
-2.31628e-07
1.6006e-08
-2.39677e-07
1.49377e-08
-2.47086e-07
1.37641e-08
-2.53798e-07
1.24868e-08
-2.59759e-07
1.11082e-08
-2.64918e-07
9.63198e-09
-2.69226e-07
8.06284e-09
-2.72637e-07
6.40683e-09
-2.75109e-07
4.67144e-09
-2.76606e-07
2.86558e-09
-2.77097e-07
9.99697e-10
-2.76557e-07
-9.14265e-10
-2.7497e-07
-2.86289e-09
-2.72325e-07
-4.83137e-09
-2.68622e-07
-6.80356e-09
-2.6387e-07
-8.76219e-09
-2.58085e-07
-1.0689e-08
-2.51298e-07
-1.25649e-08
-2.43545e-07
-1.43705e-08
-2.34877e-07
-1.60858e-08
-2.25351e-07
-1.76912e-08
-2.15037e-07
-1.91672e-08
-2.04015e-07
-2.04951e-08
-1.92372e-07
-2.16572e-08
-1.80206e-07
-2.26372e-08
-1.6762e-07
-2.34204e-08
-1.54727e-07
-2.39943e-08
-1.41641e-07
-2.43484e-08
-1.28484e-07
-2.44752e-08
-1.15378e-07
-2.43696e-08
-1.02448e-07
-2.40296e-08
-8.98151e-08
-2.34564e-08
-7.76014e-08
-2.26545e-08
-6.59232e-08
-2.16316e-08
-5.48909e-08
-2.03987e-08
-4.46074e-08
-1.89705e-08
-3.51658e-08
-1.73648e-08
-2.66477e-08
-1.56032e-08
-1.91213e-08
-1.37107e-08
-1.26391e-08
-1.17163e-08
-7.23574e-09
-9.65355e-09
-2.92514e-09
-7.56085e-09
3.0244e-10
-5.48307e-09
2.4844e-09
-3.47313e-09
3.69045e-09
-1.59448e-09
4.0284e-09
7.52955e-11
3.65072e-09
1.44042e-09
2.76206e-09
2.38202e-09
1.62537e-09
2.75539e-09
5.65951e-10
2.39367e-09
1.13279e-09
1.17873e-10
-1.0655e-09
-1.62714e-10
-8.64486e-10
-1.25142e-09
8.16736e-10
-3.41259e-09
3.40375e-09
-6.80715e-09
6.50651e-09
-1.15138e-08
9.84443e-09
-1.75477e-08
1.32202e-08
-2.48774e-08
1.64999e-08
-3.34378e-08
1.95956e-08
-4.31416e-08
2.24522e-08
-5.38871e-08
2.50381e-08
-6.55646e-08
2.7338e-08
-7.8061e-08
2.93481e-08
-9.12629e-08
3.10721e-08
-1.05059e-07
3.25185e-08
-1.1934e-07
3.36984e-08
-1.34003e-07
3.46241e-08
-1.48946e-07
3.53081e-08
-1.64074e-07
3.57621e-08
-1.79294e-07
3.59967e-08
-1.94518e-07
3.60211e-08
-2.09659e-07
3.58429e-08
-2.24633e-07
3.54679e-08
-2.39359e-07
3.49006e-08
-2.53755e-07
3.4144e-08
-2.67742e-07
3.32002e-08
-2.8124e-07
3.20704e-08
-2.94172e-07
3.07553e-08
-3.0646e-07
2.92555e-08
-3.18026e-07
2.75718e-08
-3.28794e-07
2.57056e-08
-3.38689e-07
2.3659e-08
-3.47637e-07
2.14354e-08
-3.55569e-07
1.90399e-08
-3.62416e-07
1.6479e-08
-3.68115e-07
1.37615e-08
-3.72606e-07
1.08982e-08
-3.75837e-07
7.90223e-09
-3.7776e-07
4.78931e-09
-3.78338e-07
1.57751e-09
-3.7754e-07
-1.71261e-09
-3.75345e-07
-5.05806e-09
-3.71742e-07
-8.43359e-09
-3.66734e-07
-1.18118e-08
-3.60333e-07
-1.51635e-08
-3.52564e-07
-1.84578e-08
-3.43466e-07
-2.16627e-08
-3.33092e-07
-2.47454e-08
-3.21505e-07
-2.76726e-08
-3.08784e-07
-3.04114e-08
-2.95022e-07
-3.29293e-08
-2.80322e-07
-3.5195e-08
-2.64801e-07
-3.71791e-08
-2.48583e-07
-3.88545e-08
-2.31807e-07
-4.01968e-08
-2.14616e-07
-4.1185e-08
-1.97162e-07
-4.18021e-08
-1.79602e-07
-4.20353e-08
-1.62095e-07
-4.18764e-08
-1.44802e-07
-4.13224e-08
-1.27883e-07
-4.03754e-08
-1.11495e-07
-3.9043e-08
-9.57881e-08
-3.73385e-08
-8.09061e-08
-3.52807e-08
-6.6982e-08
-3.28945e-08
-5.41364e-08
-3.02104e-08
-4.24746e-08
-2.7265e-08
-3.20841e-08
-2.41011e-08
-2.30323e-08
-2.07681e-08
-1.53631e-08
-1.73227e-08
-9.09424e-09
-1.38297e-08
-4.21314e-09
-1.03642e-08
-6.73373e-10
-7.01289e-09
1.6102e-09
-3.87805e-09
2.76643e-09
-1.08094e-09
2.97369e-09
1.23317e-09
2.46576e-09
2.88995e-09
1.53818e-09
3.68298e-09
5.57443e-10
3.37442e-09
1.69025e-09
-1.55021e-10
-9.10466e-10
-1.10582e-09
8.63848e-11
-3.1928e-09
2.90366e-09
-6.64223e-09
6.85317e-09
-1.15912e-08
1.14556e-08
-1.81031e-08
1.63564e-08
-2.61817e-08
2.12988e-08
-3.57848e-08
2.6103e-08
-4.68361e-08
3.06468e-08
-5.92349e-08
3.4851e-08
-7.28646e-08
3.86678e-08
-8.75986e-08
4.2072e-08
-1.03305e-07
4.50549e-08
-1.19852e-07
4.76188e-08
-1.37107e-07
4.97731e-08
-1.5494e-07
5.15317e-08
-1.73226e-07
5.29105e-08
-1.91844e-07
5.39262e-08
-2.10677e-07
5.45946e-08
-2.2961e-07
5.49303e-08
-2.48535e-07
5.4946e-08
-2.67345e-07
5.46525e-08
-2.85935e-07
5.40581e-08
-3.04204e-07
5.31694e-08
-3.22051e-07
5.19912e-08
-3.39378e-07
5.05267e-08
-3.56085e-07
4.87782e-08
-3.72077e-07
4.67473e-08
-3.87257e-07
4.44356e-08
-4.01531e-07
4.1845e-08
-4.14803e-07
3.89784e-08
-4.26984e-07
3.58399e-08
-4.37985e-07
3.24356e-08
-4.47718e-07
2.87735e-08
-4.56104e-07
2.48647e-08
-4.63065e-07
2.07228e-08
-4.68532e-07
1.63649e-08
-4.72441e-07
1.18114e-08
-4.74738e-07
7.08616e-09
-4.75377e-07
2.21682e-09
-4.74324e-07
-2.76548e-09
-4.71556e-07
-7.82612e-09
-4.67063e-07
-1.29272e-08
-4.60847e-07
-1.80277e-08
-4.52926e-07
-2.3084e-08
-4.43334e-07
-2.80504e-08
-4.32117e-07
-3.28792e-08
-4.19341e-07
-3.75219e-08
-4.05084e-07
-4.19292e-08
-3.89443e-07
-4.60525e-08
-3.72529e-07
-4.98438e-08
-3.54467e-07
-5.32571e-08
-3.35397e-07
-5.6249e-08
-3.15472e-07
-5.87796e-08
-2.94855e-07
-6.08131e-08
-2.73722e-07
-6.23188e-08
-2.52252e-07
-6.32714e-08
-2.30635e-07
-6.36524e-08
-2.09062e-07
-6.34498e-08
-1.87725e-07
-6.26592e-08
-1.66816e-07
-6.1284e-08
-1.46524e-07
-5.93356e-08
-1.27028e-07
-5.68339e-08
-1.08502e-07
-5.38072e-08
-9.11038e-08
-5.02925e-08
-7.49787e-08
-4.63355e-08
-6.02528e-08
-4.19909e-08
-4.70313e-08
-3.73227e-08
-3.5395e-08
-3.24044e-08
-2.53973e-08
-2.73203e-08
-1.70609e-08
-2.21662e-08
-1.03735e-08
-1.70515e-08
-5.28472e-09
-1.21017e-08
-1.70138e-09
-7.46138e-09
5.16588e-10
-3.2989e-09
1.56088e-09
1.88885e-10
1.67998e-09
2.77087e-09
1.1853e-09
4.17767e-09
4.61675e-10
4.09803e-09
2.15193e-09
-4.58226e-10
-4.52226e-10
-2.16654e-09
1.79468e-09
-5.37401e-09
6.1111e-09
-1.02485e-08
1.17277e-08
-1.68873e-08
1.80943e-08
-2.53255e-08
2.47946e-08
-3.55463e-08
3.15197e-08
-4.74913e-08
3.8048e-08
-6.10695e-08
4.42251e-08
-7.61663e-08
4.99479e-08
-9.26508e-08
5.51523e-08
-1.10381e-07
5.98025e-08
-1.29211e-07
6.38841e-08
-1.48989e-07
6.7397e-08
-1.69567e-07
7.03511e-08
-1.90797e-07
7.27624e-08
-2.12537e-07
7.46502e-08
-2.34646e-07
7.60349e-08
-2.56988e-07
7.69364e-08
-2.79431e-07
7.73733e-08
-3.01847e-07
7.73619e-08
-3.2411e-07
7.69161e-08
-3.46099e-07
7.60472e-08
-3.67694e-07
7.47638e-08
-3.88775e-07
7.30726e-08
-4.09227e-07
7.09784e-08
-4.28934e-07
6.84849e-08
-4.47781e-07
6.55949e-08
-4.65657e-07
6.23114e-08
-4.8245e-07
5.86381e-08
-4.98051e-07
5.45797e-08
-5.12354e-07
5.01431e-08
-5.25256e-07
4.53376e-08
-5.36658e-07
4.01757e-08
-5.46467e-07
3.46733e-08
-5.54595e-07
2.88504e-08
-5.60961e-07
2.27316e-08
-5.65496e-07
1.63456e-08
-5.68136e-07
9.72644e-09
-5.68832e-07
2.91263e-09
-5.67545e-07
-4.05235e-09
-5.64251e-07
-1.11204e-08
-5.58939e-07
-1.82389e-08
-5.51615e-07
-2.53515e-08
-5.42301e-07
-3.2398e-08
-5.31036e-07
-3.93155e-08
-5.17876e-07
-4.60388e-08
-5.02897e-07
-5.25011e-08
-4.86191e-07
-5.86355e-08
-4.67868e-07
-6.43752e-08
-4.48057e-07
-6.96548e-08
-4.26903e-07
-7.44116e-08
-4.04565e-07
-7.85865e-08
-3.8122e-07
-8.21249e-08
-3.57055e-07
-8.49782e-08
-3.32269e-07
-8.71044e-08
-3.07071e-07
-8.84694e-08
-2.81676e-07
-8.90475e-08
-2.56303e-07
-8.88227e-08
-2.31173e-07
-8.7789e-08
-2.06506e-07
-8.59511e-08
-1.82517e-07
-8.33247e-08
-1.59414e-07
-7.9937e-08
-1.37394e-07
-7.58272e-08
-1.16641e-07
-7.1046e-08
-9.73199e-08
-6.56563e-08
-7.95774e-08
-5.97334e-08
-6.35349e-08
-5.33651e-08
-4.92869e-08
-4.66524e-08
-3.6897e-08
-3.97102e-08
-2.63946e-08
-3.26686e-08
-1.77714e-08
-2.56748e-08
-1.09774e-08
-1.88956e-08
-5.9179e-09
-1.25209e-08
-2.44931e-09
-6.76749e-09
-3.75814e-10
-1.8846e-09
5.54906e-10
1.84016e-09
6.56786e-10
4.07581e-09
3.13605e-10
4.44121e-09
2.46554e-09
-7.72582e-10
3.20348e-10
-3.28313e-09
4.30523e-09
-7.68216e-09
1.05102e-08
-1.40679e-08
1.81135e-08
-2.24865e-08
2.65129e-08
-3.29354e-08
3.52435e-08
-4.53696e-08
4.39539e-08
-5.97085e-08
5.23868e-08
-7.5843e-08
6.03595e-08
-9.36425e-08
6.77474e-08
-1.12961e-07
7.44709e-08
-1.33643e-07
8.04842e-08
-1.55525e-07
8.57668e-08
-1.78445e-07
9.03163e-08
-2.02236e-07
9.41426e-08
-2.26737e-07
9.72635e-08
-2.51788e-07
9.97012e-08
-2.77233e-07
1.0148e-07
-3.0292e-07
1.02623e-07
-3.287e-07
1.03153e-07
-3.54428e-07
1.0309e-07
-3.79963e-07
1.02451e-07
-4.05166e-07
1.0125e-07
-4.299e-07
9.94982e-08
-4.54032e-07
9.7204e-08
-4.77427e-07
9.43741e-08
-4.99956e-07
9.10137e-08
-5.21489e-07
8.71275e-08
-5.41898e-07
8.27201e-08
-5.61057e-07
7.77972e-08
-5.78843e-07
7.23665e-08
-5.95138e-07
6.64378e-08
-6.09825e-07
6.00247e-08
-6.22794e-07
5.31447e-08
-6.33941e-07
4.58197e-08
-6.43168e-07
3.80772e-08
-6.50386e-07
2.995e-08
-6.55517e-07
2.1477e-08
-6.58494e-07
1.2703e-08
-6.59261e-07
3.67934e-09
-6.57776e-07
-5.53679e-09
-6.54014e-07
-1.48822e-08
-6.47965e-07
-2.42881e-08
-6.39636e-07
-3.36806e-08
-6.29053e-07
-4.29815e-08
-6.16259e-07
-5.21089e-08
-6.0132e-07
-6.09779e-08
-5.84319e-07
-6.95022e-08
-5.6536e-07
-7.75947e-08
-5.44566e-07
-8.5169e-08
-5.2208e-07
-9.21404e-08
-4.98064e-07
-9.84279e-08
-4.72696e-07
-1.03955e-07
-4.4617e-07
-1.08651e-07
-4.18696e-07
-1.12452e-07
-3.90495e-07
-1.15305e-07
-3.61799e-07
-1.17165e-07
-3.32847e-07
-1.18e-07
-3.03883e-07
-1.17787e-07
-2.75153e-07
-1.16519e-07
-2.46902e-07
-1.14202e-07
-2.1937e-07
-1.10857e-07
-1.92789e-07
-1.06518e-07
-1.67379e-07
-1.01236e-07
-1.43348e-07
-9.50779e-08
-1.2088e-07
-8.81242e-08
-1.0014e-07
-8.0473e-08
-8.12669e-08
-7.22382e-08
-6.43689e-08
-6.35504e-08
-4.95214e-08
-5.45577e-08
-3.6763e-08
-4.5427e-08
-2.60922e-08
-3.63456e-08
-1.74641e-08
-2.75237e-08
-1.07874e-08
-1.91976e-08
-5.92149e-09
-1.16334e-08
-2.67358e-09
-5.13251e-09
-7.95923e-10
-3.74938e-11
1.74733e-11
3.26243e-09
1.35576e-10
4.32311e-09
2.60111e-09
-1.08794e-09
1.40828e-09
-4.41868e-09
7.63601e-09
-1.00451e-08
1.61366e-08
-1.79905e-08
2.60589e-08
-2.82432e-08
3.67656e-08
-4.07564e-08
4.77566e-08
-5.54506e-08
5.8648e-08
-7.2218e-08
6.91542e-08
-9.09278e-08
7.90693e-08
-1.11431e-07
8.82507e-08
-1.33566e-07
9.66055e-08
-1.57161e-07
1.04079e-07
-1.8204e-07
1.10646e-07
-2.08026e-07
1.16302e-07
-2.3494e-07
1.21056e-07
-2.62605e-07
1.24929e-07
-2.90849e-07
1.27945e-07
-3.195e-07
1.30131e-07
-3.48392e-07
1.31515e-07
-3.77362e-07
1.32123e-07
-4.06251e-07
1.31979e-07
-4.34903e-07
1.31103e-07
-4.63163e-07
1.2951e-07
-4.90881e-07
1.27216e-07
-5.17908e-07
1.24231e-07
-5.44096e-07
1.20562e-07
-5.69301e-07
1.16218e-07
-5.93378e-07
1.11205e-07
-6.16188e-07
1.05529e-07
-6.3759e-07
9.91998e-08
-6.5745e-07
9.22267e-08
-6.75637e-07
8.46242e-08
-6.92022e-07
7.64103e-08
-7.06486e-07
6.76084e-08
-7.18914e-07
5.82475e-08
-7.292e-07
4.83631e-08
-7.37247e-07
3.79976e-08
-7.42971e-07
2.72007e-08
-7.46298e-07
1.60298e-08
-7.47168e-07
4.54975e-09
-7.45538e-07
-7.16708e-09
-7.41379e-07
-1.9041e-08
-7.34682e-07
-3.09856e-08
-7.25454e-07
-4.29082e-08
-7.13725e-07
-5.47108e-08
-6.99543e-07
-6.62909e-08
-6.82978e-07
-7.75427e-08
-6.64122e-07
-8.83582e-08
-6.43088e-07
-9.86289e-08
-6.2001e-07
-1.08247e-07
-5.95043e-07
-1.17107e-07
-5.68363e-07
-1.25108e-07
-5.40164e-07
-1.32154e-07
-5.10657e-07
-1.38157e-07
-4.80071e-07
-1.43039e-07
-4.48646e-07
-1.46731e-07
-4.16634e-07
-1.49177e-07
-3.84296e-07
-1.50337e-07
-3.51899e-07
-1.50184e-07
-3.19712e-07
-1.48706e-07
-2.88002e-07
-1.45912e-07
-2.57033e-07
-1.41826e-07
-2.2706e-07
-1.36491e-07
-1.98326e-07
-1.29971e-07
-1.71056e-07
-1.22347e-07
-1.45459e-07
-1.13721e-07
-1.21718e-07
-1.04215e-07
-9.99868e-08
-9.39692e-08
-8.03903e-08
-8.31469e-08
-6.30172e-08
-7.19308e-08
-4.79179e-08
-6.05263e-08
-3.51008e-08
-4.91626e-08
-2.453e-08
-3.80945e-08
-1.61221e-08
-2.76055e-08
-9.74434e-09
-1.80111e-08
-5.21287e-09
-9.66398e-09
-2.29095e-09
-2.95942e-09
-6.87866e-10
1.65935e-09
-5.81493e-11
3.6934e-09
2.54296e-09
-1.39904e-09
2.80733e-09
-5.55158e-09
1.17885e-08
-1.24172e-08
2.30022e-08
-2.19432e-08
3.55849e-08
-3.40568e-08
4.88792e-08
-4.86622e-08
6.23621e-08
-6.56411e-08
7.5627e-08
-8.48548e-08
8.8368e-08
-1.06147e-07
1.00362e-07
-1.29349e-07
1.11452e-07
-1.5428e-07
1.21537e-07
-1.80754e-07
1.30553e-07
-2.08581e-07
1.38473e-07
-2.37569e-07
1.4529e-07
-2.67527e-07
1.51015e-07
-2.98267e-07
1.55669e-07
-3.29602e-07
1.59279e-07
-3.61349e-07
1.61878e-07
-3.93328e-07
1.63495e-07
-4.25365e-07
1.6416e-07
-4.57287e-07
1.63901e-07
-4.88924e-07
1.6274e-07
-5.2011e-07
1.60696e-07
-5.50681e-07
1.57787e-07
-5.80474e-07
1.54024e-07
-6.0933e-07
1.49418e-07
-6.37091e-07
1.43979e-07
-6.63601e-07
1.37715e-07
-6.88707e-07
1.30635e-07
-7.12258e-07
1.22751e-07
-7.34108e-07
1.14076e-07
-7.54114e-07
1.0463e-07
-7.72138e-07
9.44352e-08
-7.88052e-07
8.35216e-08
-8.0173e-07
7.19261e-08
-8.1306e-07
5.9693e-08
-8.21938e-07
4.68752e-08
-8.28271e-07
3.35342e-08
-8.31982e-07
1.97406e-08
-8.33006e-07
5.57411e-09
-8.31297e-07
-8.87666e-09
-8.26823e-07
-2.35144e-08
-8.19575e-07
-3.82339e-08
-8.09561e-07
-5.29224e-08
-7.96811e-07
-6.74607e-08
-7.81377e-07
-8.17246e-08
-7.63334e-07
-9.55856e-08
-7.4278e-07
-1.08913e-07
-7.19833e-07
-1.21575e-07
-6.94639e-07
-1.33441e-07
-6.67362e-07
-1.44384e-07
-6.3819e-07
-1.5428e-07
-6.0733e-07
-1.63014e-07
-5.75009e-07
-1.70478e-07
-5.4147e-07
-1.76577e-07
-5.06972e-07
-1.81228e-07
-4.71786e-07
-1.84363e-07
-4.36193e-07
-1.85931e-07
-4.00479e-07
-1.85897e-07
-3.64935e-07
-1.8425e-07
-3.29851e-07
-1.80996e-07
-2.95511e-07
-1.76165e-07
-2.62194e-07
-1.69809e-07
-2.30163e-07
-1.62002e-07
-1.99666e-07
-1.52844e-07
-1.70931e-07
-1.42456e-07
-1.44161e-07
-1.30985e-07
-1.19529e-07
-1.18602e-07
-9.71749e-08
-1.05501e-07
-7.72044e-08
-9.19012e-08
-5.96816e-08
-7.80491e-08
-4.46283e-08
-6.4216e-08
-3.20206e-08
-5.07023e-08
-2.1787e-08
-3.78391e-08
-1.38069e-08
-2.59912e-08
-7.90966e-09
-1.55612e-08
-3.87416e-09
-6.99492e-09
-1.42988e-09
-7.8494e-10
-2.58875e-10
2.5224e-09
2.28409e-09
-1.70329e-09
4.51065e-09
-6.66925e-09
1.67545e-08
-1.47697e-08
3.11027e-08
-2.58776e-08
4.66928e-08
-3.98576e-08
6.28592e-08
-5.65627e-08
7.90672e-08
-7.58328e-08
9.4897e-08
-9.7495e-08
1.1003e-07
-1.21366e-07
1.24233e-07
-1.47253e-07
1.37339e-07
-1.74956e-07
1.4924e-07
-2.04274e-07
1.59871e-07
-2.35002e-07
1.69201e-07
-2.66935e-07
1.77223e-07
-2.99869e-07
1.83949e-07
-3.33605e-07
1.89404e-07
-3.67943e-07
1.93618e-07
-4.02691e-07
1.96625e-07
-4.37657e-07
1.98461e-07
-4.72655e-07
1.99158e-07
-5.07501e-07
1.98747e-07
-5.42014e-07
1.97252e-07
-5.76015e-07
1.94698e-07
-6.0933e-07
1.91102e-07
-6.41785e-07
1.86479e-07
-6.73208e-07
1.80842e-07
-7.03431e-07
1.74202e-07
-7.32286e-07
1.6657e-07
-7.59609e-07
1.57958e-07
-7.85239e-07
1.48381e-07
-8.09019e-07
1.37857e-07
-8.30798e-07
1.26408e-07
-8.50428e-07
1.14065e-07
-8.6777e-07
1.00864e-07
-8.82692e-07
8.68488e-08
-8.95074e-07
7.20748e-08
-9.04804e-07
5.66054e-08
-9.11785e-07
4.05148e-08
-9.15932e-07
2.38877e-08
-9.17177e-07
6.81933e-09
-9.15469e-07
-1.05845e-08
-9.10776e-07
-2.82081e-08
-9.03083e-07
-4.59262e-08
-8.92401e-07
-6.36049e-08
-8.78758e-07
-8.11031e-08
-8.6221e-07
-9.82731e-08
-8.42833e-07
-1.14963e-07
-8.20728e-07
-1.31018e-07
-7.96022e-07
-1.46281e-07
-7.68865e-07
-1.60598e-07
-7.39431e-07
-1.73818e-07
-7.07917e-07
-1.85794e-07
-6.74541e-07
-1.96389e-07
-6.39544e-07
-2.05476e-07
-6.03183e-07
-2.12939e-07
-5.65732e-07
-2.18679e-07
-5.2748e-07
-2.22615e-07
-4.88725e-07
-2.24685e-07
-4.49775e-07
-2.24848e-07
-4.10939e-07
-2.23086e-07
-3.72528e-07
-2.19407e-07
-3.3485e-07
-2.13844e-07
-2.98203e-07
-2.06456e-07
-2.62874e-07
-1.97331e-07
-2.29132e-07
-1.86585e-07
-1.97227e-07
-1.74361e-07
-1.67382e-07
-1.60831e-07
-1.39789e-07
-1.46194e-07
-1.14609e-07
-1.3068e-07
-9.19641e-08
-1.14546e-07
-7.19352e-08
-9.8078e-08
-5.45602e-08
-8.15909e-08
-3.98308e-08
-6.54317e-08
-2.76905e-08
-4.99793e-08
-1.80343e-08
-3.56474e-08
-1.07079e-08
-2.28876e-08
-5.5092e-09
-1.21936e-08
-2.1902e-09
-4.10395e-09
-4.61568e-10
7.93761e-10
1.82254e-09
-1.99946e-09
6.51011e-09
-7.76438e-09
2.25194e-08
-1.70849e-08
4.04232e-08
-2.97617e-08
5.93697e-08
-4.55978e-08
7.86953e-08
-6.43936e-08
9.7863e-08
-8.59456e-08
1.16449e-07
-1.10045e-07
1.3413e-07
-1.36478e-07
1.50666e-07
-1.65028e-07
1.65889e-07
-1.95476e-07
1.79688e-07
-2.27601e-07
1.91996e-07
-2.61184e-07
2.02784e-07
-2.96007e-07
2.12046e-07
-3.31854e-07
2.19797e-07
-3.68515e-07
2.26065e-07
-4.0578e-07
2.30883e-07
-4.43446e-07
2.34291e-07
-4.81312e-07
2.36327e-07
-5.1918e-07
2.37027e-07
-5.56858e-07
2.36424e-07
-5.94154e-07
2.34548e-07
-6.30879e-07
2.31424e-07
-6.66849e-07
2.27072e-07
-7.0188e-07
2.2151e-07
-7.35791e-07
2.14752e-07
-7.68401e-07
2.06812e-07
-7.99535e-07
1.97704e-07
-8.29019e-07
1.87442e-07
-8.56682e-07
1.76044e-07
-8.82357e-07
1.63532e-07
-9.05884e-07
1.49935e-07
-9.27108e-07
1.35289e-07
-9.4588e-07
1.19636e-07
-9.62062e-07
1.03031e-07
-9.75524e-07
8.55372e-08
-9.8615e-07
6.7231e-08
-9.93834e-07
4.81991e-08
-9.98487e-07
2.8541e-08
-1.00004e-06
8.36822e-09
-9.98425e-07
-1.21958e-08
-9.93617e-07
-3.30158e-08
-9.85598e-07
-5.39461e-08
-9.74372e-07
-7.48306e-08
-9.5997e-07
-9.55051e-08
-9.42445e-07
-1.15798e-07
-9.21876e-07
-1.35532e-07
-8.98366e-07
-1.54527e-07
-8.72045e-07
-1.72602e-07
-8.43069e-07
-1.89575e-07
-8.11617e-07
-2.0527e-07
-7.77894e-07
-2.19517e-07
-7.42129e-07
-2.32154e-07
-7.04573e-07
-2.43032e-07
-6.65496e-07
-2.52016e-07
-6.25186e-07
-2.58989e-07
-5.83948e-07
-2.63854e-07
-5.42097e-07
-2.66536e-07
-4.9996e-07
-2.66985e-07
-4.57866e-07
-2.6518e-07
-4.16147e-07
-2.61126e-07
-3.75133e-07
-2.54858e-07
-3.35143e-07
-2.46445e-07
-2.96488e-07
-2.35986e-07
-2.5946e-07
-2.23613e-07
-2.24331e-07
-2.0949e-07
-1.91345e-07
-1.93816e-07
-1.60719e-07
-1.76821e-07
-1.32632e-07
-1.58767e-07
-1.07228e-07
-1.3995e-07
-8.46079e-08
-1.20699e-07
-6.48271e-08
-1.01372e-07
-4.78959e-08
-8.23629e-08
-3.37759e-08
-6.40993e-08
-2.23802e-08
-4.70431e-08
-1.35735e-08
-3.16942e-08
-7.17446e-09
-1.85927e-08
-2.95842e-09
-8.31999e-09
-6.63609e-10
-1.50106e-09
1.15893e-09
-2.28698e-09
8.79707e-09
-8.83283e-09
2.90652e-08
-1.93514e-08
5.09417e-08
-3.35744e-08
7.35927e-08
-5.1244e-08
9.63649e-08
-7.21087e-08
1.18728e-07
-9.59205e-08
1.40261e-07
-1.22433e-07
1.60642e-07
-1.51403e-07
1.79635e-07
-1.82586e-07
1.97072e-07
-2.15742e-07
2.12844e-07
-2.50633e-07
2.26887e-07
-2.87024e-07
2.39175e-07
-3.24684e-07
2.49706e-07
-3.63385e-07
2.58499e-07
-4.02906e-07
2.65586e-07
-4.43029e-07
2.71006e-07
-4.83539e-07
2.74802e-07
-5.24228e-07
2.77015e-07
-5.64888e-07
2.77687e-07
-6.05319e-07
2.76854e-07
-6.4532e-07
2.74549e-07
-6.84694e-07
2.70798e-07
-7.23246e-07
2.65625e-07
-7.60786e-07
2.59049e-07
-7.97122e-07
2.51088e-07
-8.32066e-07
2.41756e-07
-8.65432e-07
2.31071e-07
-8.97039e-07
2.19049e-07
-9.26708e-07
2.05712e-07
-9.54263e-07
1.91087e-07
-9.79535e-07
1.75207e-07
-1.00236e-06
1.58114e-07
-1.02258e-06
1.3986e-07
-1.04006e-06
1.20507e-07
-1.05465e-06
1.00129e-07
-1.06623e-06
7.88131e-08
-1.0747e-06
5.66611e-08
-1.07994e-06
3.37869e-08
-1.08189e-06
1.03187e-08
-1.08049e-06
-1.36017e-08
-1.07568e-06
-3.78193e-08
-1.06746e-06
-6.2167e-08
-1.05583e-06
-8.64661e-08
-1.0408e-06
-1.10528e-07
-1.02244e-06
-1.34157e-07
-1.00083e-06
-1.5715e-07
-9.76055e-07
-1.79299e-07
-9.4826e-07
-2.00396e-07
-9.176e-07
-2.20235e-07
-8.8426e-07
-2.3861e-07
-8.48452e-07
-2.55326e-07
-8.1041e-07
-2.70196e-07
-7.70395e-07
-2.83047e-07
-7.28689e-07
-2.93722e-07
-6.85593e-07
-3.02084e-07
-6.41427e-07
-3.0802e-07
-5.96523e-07
-3.1144e-07
-5.51225e-07
-3.12284e-07
-5.05882e-07
-3.10523e-07
-4.60848e-07
-3.06159e-07
-4.16474e-07
-2.99232e-07
-3.73105e-07
-2.89815e-07
-3.31073e-07
-2.78018e-07
-2.90695e-07
-2.63991e-07
-2.52268e-07
-2.47918e-07
-2.1606e-07
-2.30023e-07
-1.82312e-07
-2.10569e-07
-1.51228e-07
-1.89851e-07
-1.22972e-07
-1.68206e-07
-9.76692e-08
-1.46002e-07
-7.53961e-08
-1.23645e-07
-5.61837e-08
-1.01575e-07
-4.00141e-08
-8.02688e-08
-2.68208e-08
-6.02364e-08
-1.64892e-08
-4.20258e-08
-8.8593e-09
-2.62226e-08
-3.72973e-09
-1.34495e-08
-8.63984e-10
-4.36681e-09
2.94948e-10
-2.56564e-09
1.13627e-08
-9.87222e-09
3.63718e-08
-2.1562e-08
6.26315e-08
-3.7301e-08
8.93317e-08
-5.67728e-08
1.15837e-07
-7.96741e-08
1.41629e-07
-1.05713e-07
1.66299e-07
-1.34605e-07
1.89535e-07
-1.66075e-07
2.11105e-07
-1.99853e-07
2.3085e-07
-2.35676e-07
2.48667e-07
-2.73287e-07
2.64499e-07
-3.12436e-07
2.78324e-07
-3.52879e-07
2.90148e-07
-3.94376e-07
2.99996e-07
-4.36696e-07
3.07906e-07
-4.79611e-07
3.13921e-07
-5.22899e-07
3.18089e-07
-5.66342e-07
3.20458e-07
-6.09726e-07
3.21071e-07
-6.52841e-07
3.1997e-07
-6.95481e-07
3.17188e-07
-7.3744e-07
3.12757e-07
-7.78517e-07
3.06702e-07
-8.18511e-07
2.99044e-07
-8.57226e-07
2.89802e-07
-8.94465e-07
2.78995e-07
-9.30035e-07
2.66641e-07
-9.63745e-07
2.5276e-07
-9.9541e-07
2.37377e-07
-1.02485e-06
2.20524e-07
-1.05188e-06
2.02238e-07
-1.07633e-06
1.8257e-07
-1.09805e-06
1.61576e-07
-1.11687e-06
1.39329e-07
-1.13266e-06
1.15914e-07
-1.14527e-06
9.14298e-08
-1.1546e-06
6.59909e-08
-1.16054e-06
3.97269e-08
-1.16301e-06
1.2783e-08
-1.16193e-06
-1.46805e-08
-1.15726e-06
-4.24885e-08
-1.14897e-06
-7.0452e-08
-1.13707e-06
-9.83692e-08
-1.12157e-06
-1.26027e-07
-1.10253e-06
-1.53204e-07
-1.08001e-06
-1.79669e-07
-1.05412e-06
-2.05188e-07
-1.02499e-06
-2.29525e-07
-9.9278e-07
-2.52444e-07
-9.57677e-07
-2.73712e-07
-9.19897e-07
-2.93106e-07
-8.7968e-07
-3.10412e-07
-8.37296e-07
-3.25431e-07
-7.93035e-07
-3.37983e-07
-7.47212e-07
-3.47908e-07
-7.00158e-07
-3.55073e-07
-6.52224e-07
-3.59374e-07
-6.03771e-07
-3.60737e-07
-5.55169e-07
-3.59125e-07
-5.06793e-07
-3.54536e-07
-4.59016e-07
-3.47009e-07
-4.12208e-07
-3.36623e-07
-3.66727e-07
-3.23499e-07
-3.22918e-07
-3.07801e-07
-2.81101e-07
-2.89735e-07
-2.41573e-07
-2.69551e-07
-2.04601e-07
-2.47541e-07
-1.70415e-07
-2.24037e-07
-1.39206e-07
-1.99415e-07
-1.11121e-07
-1.74086e-07
-8.62644e-08
-1.48502e-07
-6.46885e-08
-1.23151e-07
-4.63985e-08
-9.85588e-08
-3.135e-08
-7.52849e-08
-1.94503e-08
-5.39255e-08
-1.05612e-08
-3.51117e-08
-4.50338e-09
-1.95074e-08
-1.06278e-09
-7.80741e-09
-7.67834e-10
-2.83542e-09
1.41982e-08
-1.08811e-08
4.44175e-08
-2.37119e-08
7.54623e-08
-4.09315e-08
1.06551e-07
-6.21667e-08
1.37072e-07
-8.70642e-08
1.66527e-07
-1.15288e-07
1.94523e-07
-1.46517e-07
2.20763e-07
-1.80442e-07
2.45031e-07
-2.16769e-07
2.67176e-07
-2.5521e-07
2.87108e-07
-2.95491e-07
3.0478e-07
-3.37345e-07
3.20178e-07
-3.80514e-07
3.33318e-07
-4.2475e-07
3.44232e-07
-4.69808e-07
3.52964e-07
-5.15453e-07
3.59566e-07
-5.61456e-07
3.64092e-07
-6.0759e-07
3.66592e-07
-6.53636e-07
3.67117e-07
-6.99376e-07
3.6571e-07
-7.44598e-07
3.6241e-07
-7.8909e-07
3.57249e-07
-8.32644e-07
3.50256e-07
-8.75053e-07
3.41453e-07
-9.16112e-07
3.30862e-07
-9.55621e-07
3.18504e-07
-9.93378e-07
3.04398e-07
-1.02919e-06
2.88569e-07
-1.06285e-06
2.71044e-07
-1.09419e-06
2.51859e-07
-1.12301e-06
2.31059e-07
-1.14914e-06
2.08696e-07
-1.1724e-06
1.84839e-07
-1.19264e-06
1.59566e-07
-1.2097e-06
1.32974e-07
-1.22344e-06
1.05174e-07
-1.23374e-06
7.62934e-08
-1.24049e-06
4.64769e-08
-1.2436e-06
1.58869e-08
-1.24298e-06
-1.52978e-08
-1.23859e-06
-4.68816e-08
-1.23039e-06
-7.86535e-08
-1.21837e-06
-1.10388e-07
-1.20255e-06
-1.41848e-07
-1.18297e-06
-1.72783e-07
-1.1597e-06
-2.02937e-07
-1.13284e-06
-2.32047e-07
-1.10252e-06
-2.59846e-07
-1.06889e-06
-2.86069e-07
-1.03215e-06
-3.10454e-07
-9.92512e-07
-3.32747e-07
-9.50218e-07
-3.52706e-07
-9.05546e-07
-3.70103e-07
-8.58796e-07
-3.84733e-07
-8.10292e-07
-3.96412e-07
-7.60381e-07
-4.04984e-07
-7.09427e-07
-4.10327e-07
-6.57811e-07
-4.12353e-07
-6.05922e-07
-4.11013e-07
-5.54158e-07
-4.063e-07
-5.02918e-07
-3.98249e-07
-4.52596e-07
-3.86945e-07
-4.03578e-07
-3.72516e-07
-3.56236e-07
-3.55142e-07
-3.10922e-07
-3.35049e-07
-2.6796e-07
-3.12512e-07
-2.27648e-07
-2.87853e-07
-1.90243e-07
-2.61442e-07
-1.55967e-07
-2.33692e-07
-1.24994e-07
-2.05059e-07
-9.74533e-08
-1.76042e-07
-7.34255e-08
-1.47179e-07
-5.29398e-08
-1.19044e-07
-3.59754e-08
-9.22494e-08
-2.24622e-08
-6.74387e-08
-1.22838e-08
-4.52901e-08
-5.28149e-09
-2.65097e-08
-1.26083e-09
-1.18281e-08
-2.02866e-09
-3.09628e-09
1.72944e-08
-1.18583e-08
5.31795e-08
-2.57975e-08
8.94015e-08
-4.4458e-08
1.25212e-07
-6.74123e-08
1.60026e-07
-9.42586e-08
1.93373e-07
-1.24618e-07
2.24882e-07
-1.58132e-07
2.54278e-07
-1.94462e-07
2.8136e-07
-2.33283e-07
3.05998e-07
-2.74288e-07
3.28113e-07
-3.17182e-07
3.47674e-07
-3.61683e-07
3.64679e-07
-4.07521e-07
3.79155e-07
-4.54434e-07
3.91144e-07
-5.0217e-07
4.007e-07
-5.50485e-07
4.07881e-07
-5.99141e-07
4.12748e-07
-6.47908e-07
4.15359e-07
-6.96559e-07
4.15768e-07
-7.44871e-07
4.14022e-07
-7.92625e-07
4.10164e-07
-8.39605e-07
4.04229e-07
-8.85597e-07
3.96247e-07
-9.30389e-07
3.86245e-07
-9.73771e-07
3.74244e-07
-1.01553e-06
3.60268e-07
-1.05548e-06
3.44339e-07
-1.09339e-06
3.26483e-07
-1.12908e-06
3.06732e-07
-1.16234e-06
2.85125e-07
-1.19299e-06
2.61711e-07
-1.22085e-06
2.3655e-07
-1.24573e-06
2.09717e-07
-1.26746e-06
1.813e-07
-1.28589e-06
1.51404e-07
-1.30087e-06
1.20153e-07
-1.31226e-06
8.76865e-08
-1.31995e-06
5.41656e-08
-1.32383e-06
1.97687e-08
-1.32382e-06