/*--------------------------------*- C++ -*----------------------------------*\
| =========                 |                                                 |
| \\      /  F ield         | OpenFOAM: The Open Source CFD Toolbox           |
|  \\    /   O peration     | Version:  2506                                  |
|   \\  /    A nd           | Website:  www.openfoam.com                      |
|    \\/     M anipulation  |                                                 |
\*---------------------------------------------------------------------------*/
FoamFile
{
    version     2.0;
    format      ascii;
    arch        "LSB;label=32;scalar=64";
    class       volVectorField;
    location    "1.775";
    object      U;
}
// * * * * * * * * * * * * * * * * * * * * * * * * * * * * * * * * * * * * * //

dimensions      [0 1 -1 0 0 0 0];

internalField   nonuniform List<vector> 
6400
(
(8.52269e-06 -8.94039e-06 0)
(3.37527e-05 -1.6185e-05 0)
(6.44653e-05 -1.4779e-05 0)
(8.34963e-05 -8.97423e-06 0)
(8.23871e-05 -1.42839e-06 0)
(5.84304e-05 6.51587e-06 0)
(1.12557e-05 1.41956e-05 0)
(-5.82893e-05 2.13037e-05 0)
(-0.000148666 2.77112e-05 0)
(-0.000257987 3.33799e-05 0)
(-0.000384225 3.83201e-05 0)
(-0.000525332 4.25679e-05 0)
(-0.000679313 4.61707e-05 0)
(-0.000844268 4.91806e-05 0)
(-0.00101841 5.16502e-05 0)
(-0.00120009 5.36294e-05 0)
(-0.00138775 5.51643e-05 0)
(-0.00157997 5.62955e-05 0)
(-0.00177542 5.70574e-05 0)
(-0.00197288 5.74781e-05 0)
(-0.00217119 5.75807e-05 0)
(-0.00236924 5.73831e-05 0)
(-0.00256598 5.68965e-05 0)
(-0.00276038 5.6128e-05 0)
(-0.00295144 5.50809e-05 0)
(-0.00313816 5.37545e-05 0)
(-0.00331956 5.21456e-05 0)
(-0.00349461 5.02498e-05 0)
(-0.00366233 4.80616e-05 0)
(-0.00382168 4.5575e-05 0)
(-0.00397165 4.27849e-05 0)
(-0.00411119 3.9688e-05 0)
(-0.00423929 3.62822e-05 0)
(-0.00435491 3.25686e-05 0)
(-0.00445706 2.85515e-05 0)
(-0.00454476 2.42393e-05 0)
(-0.00461709 1.96448e-05 0)
(-0.00467317 1.47856e-05 0)
(-0.00471222 9.6846e-06 0)
(-0.00473353 4.36969e-06 0)
(-0.00473649 -1.12573e-06 0)
(-0.00472064 -6.763e-06 0)
(-0.00468563 -1.24983e-05 0)
(-0.00463128 -1.82828e-05 0)
(-0.00455758 -2.40632e-05 0)
(-0.00446469 -2.9782e-05 0)
(-0.00435296 -3.53789e-05 0)
(-0.00422296 -4.07904e-05 0)
(-0.00407543 -4.59519e-05 0)
(-0.00391135 -5.07985e-05 0)
(-0.00373189 -5.52657e-05 0)
(-0.00353841 -5.92908e-05 0)
(-0.00333248 -6.2814e-05 0)
(-0.00311585 -6.57796e-05 0)
(-0.00289042 -6.81375e-05 0)
(-0.00265825 -6.98436e-05 0)
(-0.00242153 -7.08619e-05 0)
(-0.00218253 -7.11644e-05 0)
(-0.00194361 -7.07326e-05 0)
(-0.00170714 -6.95572e-05 0)
(-0.00147553 -6.76397e-05 0)
(-0.00125115 -6.49915e-05 0)
(-0.00103632 -6.16345e-05 0)
(-0.000833264 -5.76003e-05 0)
(-0.00064408 -5.29309e-05 0)
(-0.000470709 -4.76777e-05 0)
(-0.0003149 -4.19018e-05 0)
(-0.000178179 -3.56735e-05 0)
(-6.18106e-05 -2.90734e-05 0)
(3.32365e-05 -2.21935e-05 0)
(0.000106338 -1.51398e-05 0)
(0.000157273 -8.04074e-06 0)
(0.000186298 -1.05807e-06 0)
(0.00019427 5.59013e-06 0)
(0.000182836 1.15891e-05 0)
(0.000154716 1.64571e-05 0)
(0.000114087 1.94405e-05 0)
(6.73386e-05 1.93115e-05 0)
(2.53235e-05 1.42281e-05 0)
(3.62081e-06 3.63368e-06 0)
(1.60412e-05 -3.44496e-05 0)
(5.4653e-05 -5.48994e-05 0)
(8.916e-05 -4.19124e-05 0)
(9.13367e-05 -1.02541e-05 0)
(4.51756e-05 3.04623e-05 0)
(-5.62744e-05 7.44598e-05 0)
(-0.000215205 0.000118344 0)
(-0.000430763 0.000160169 0)
(-0.000700136 0.000198866 0)
(-0.00101932 0.000233902 0)
(-0.00138368 0.000265066 0)
(-0.00178826 0.000292351 0)
(-0.00222809 0.000315868 0)
(-0.00269826 0.000335795 0)
(-0.00319407 0.000352348 0)
(-0.00371103 0.000365752 0)
(-0.0042449 0.00037623 0)
(-0.00479171 0.000383986 0)
(-0.0053477 0.000389204 0)
(-0.00590934 0.00039204 0)
(-0.00647328 0.000392623 0)
(-0.00703629 0.000391056 0)
(-0.00759529 0.000387413 0)
(-0.00814728 0.000381743 0)
(-0.00868932 0.000374077 0)
(-0.00921848 0.000364425 0)
(-0.00973187 0.000352786 0)
(-0.0102266 0.000339149 0)
(-0.0106998 0.000323501 0)
(-0.0111485 0.000305825 0)
(-0.0115699 0.000286114 0)
(-0.0119611 0.000264367 0)
(-0.0123191 0.000240598 0)
(-0.0126413 0.000214839 0)
(-0.0129248 0.000187143 0)
(-0.013167 0.000157585 0)
(-0.0133655 0.000126269 0)
(-0.0135179 9.33292e-05 0)
(-0.0136221 5.89276e-05 0)
(-0.0136764 2.32597e-05 0)
(-0.0136792 -1.34475e-05 0)
(-0.0136293 -5.09358e-05 0)
(-0.013526 -8.89163e-05 0)
(-0.0133688 -0.000127073 0)
(-0.0131579 -0.000165062 0)
(-0.0128938 -0.000202522 0)
(-0.0125777 -0.000239068 0)
(-0.0122112 -0.000274308 0)
(-0.0117964 -0.000307838 0)
(-0.0113361 -0.000339257 0)
(-0.0108336 -0.000368167 0)
(-0.0102926 -0.000394186 0)
(-0.00971743 -0.000416947 0)
(-0.00911293 -0.000436115 0)
(-0.00848428 -0.000451386 0)
(-0.00783707 -0.000462497 0)
(-0.00717721 -0.000469232 0)
(-0.00651087 -0.000471428 0)
(-0.00584439 -0.000468978 0)
(-0.00518422 -0.000461835 0)
(-0.00453681 -0.000450015 0)
(-0.00390854 -0.000433602 0)
(-0.00330564 -0.000412744 0)
(-0.00273405 -0.000387654 0)
(-0.00219939 -0.000358612 0)
(-0.00170682 -0.000325966 0)
(-0.00126098 -0.000290128 0)
(-0.000865854 -0.000251579 0)
(-0.000524695 -0.000210874 0)
(-0.000239906 -0.000168655 0)
(-1.29085e-05 -0.000125663 0)
(0.000156023 -8.27802e-05 0)
(0.00026796 -4.10784e-05 0)
(0.000325601 -1.91249e-06 0)
(0.000333647 3.29403e-05 0)
(0.00029931 6.10727e-05 0)
(0.000232786 7.91773e-05 0)
(0.000147971 8.26819e-05 0)
(6.56077e-05 6.5739e-05 0)
(1.4112e-05 2.52374e-05 0)
(1.49872e-05 -6.51927e-05 0)
(4.24011e-05 -8.95244e-05 0)
(4.63901e-05 -4.59774e-05 0)
(-3.44541e-06 3.76098e-05 0)
(-0.000125343 0.000142731 0)
(-0.000328252 0.000256994 0)
(-0.000615474 0.000372337 0)
(-0.000986327 0.000483675 0)
(-0.00143735 0.000587923 0)
(-0.00196324 0.000683326 0)
(-0.0025576 0.000769005 0)
(-0.00321343 0.000844656 0)
(-0.00392349 0.000910344 0)
(-0.00468054 0.000966366 0)
(-0.00547747 0.00101316 0)
(-0.00630745 0.00105121 0)
(-0.00716392 0.00108104 0)
(-0.00804066 0.00110314 0)
(-0.00893173 0.00111796 0)
(-0.00983149 0.00112589 0)
(-0.0107346 0.00112727 0)
(-0.0116358 0.00112237 0)
(-0.0125301 0.00111138 0)
(-0.0134126 0.00109446 0)
(-0.0142786 0.0010717 0)
(-0.0151232 0.00104313 0)
(-0.015942 0.00100879 0)
(-0.0167301 0.000968673 0)
(-0.017483 0.000922762 0)
(-0.0181959 0.000871052 0)
(-0.0188644 0.00081355 0)
(-0.0194838 0.000750291 0)
(-0.0200497 0.000681349 0)
(-0.0205577 0.000606844 0)
(-0.0210035 0.000526959 0)
(-0.0213832 0.000441938 0)
(-0.0216928 0.000352101 0)
(-0.0219288 0.000257847 0)
(-0.0220883 0.000159653 0)
(-0.0221683 5.80859e-05 0)
(-0.0221668 -4.62059e-05 0)
(-0.022082 -0.00015249 0)
(-0.0219127 -0.000259953 0)
(-0.0216588 -0.000367709 0)
(-0.0213203 -0.000474808 0)
(-0.0208984 -0.00058024 0)
(-0.0203948 -0.000682953 0)
(-0.0198124 -0.000781864 0)
(-0.0191544 -0.000875873 0)
(-0.0184254 -0.000963883 0)
(-0.0176303 -0.00104481 0)
(-0.0167752 -0.00111762 0)
(-0.0158668 -0.00118132 0)
(-0.0149125 -0.00123499 0)
(-0.0139203 -0.00127783 0)
(-0.0128988 -0.00130913 0)
(-0.0118573 -0.00132831 0)
(-0.0108052 -0.00133493 0)
(-0.0097523 -0.00132871 0)
(-0.0087084 -0.00130954 0)
(-0.00768347 -0.00127748 0)
(-0.00668728 -0.00123277 0)
(-0.00572937 -0.00117583 0)
(-0.00481884 -0.00110727 0)
(-0.00396428 -0.00102788 0)
(-0.00317354 -0.000938647 0)
(-0.00245368 -0.000840742 0)
(-0.00181071 -0.00073554 0)
(-0.0012495 -0.000624628 0)
(-0.000773593 -0.000509836 0)
(-0.000384985 -0.000393285 0)
(-8.3912e-05 -0.000277458 0)
(0.000131429 -0.000165316 0)
(0.000265221 -6.04735e-05 0)
(0.000324458 3.25648e-05 0)
(0.000319448 0.000108085 0)
(0.000264152 0.000158824 0)
(0.000176638 0.000175694 0)
(8.28451e-05 0.000148097 0)
(1.91627e-05 6.70331e-05 0)
(9.41763e-06 -8.47285e-05 0)
(1.09812e-05 -9.19174e-05 0)
(-3.77843e-05 3.92848e-06 0)
(-0.00016355 0.000162218 0)
(-0.000383439 0.000355618 0)
(-0.000706612 0.000564854 0)
(-0.00113643 0.000776658 0)
(-0.00167196 0.00098221 0)
(-0.00230908 0.00117585 0)
(-0.00304153 0.00135414 0)
(-0.0038616 0.00151517 0)
(-0.00476072 0.00165808 0)
(-0.00572992 0.00178274 0)
(-0.00676008 0.00188948 0)
(-0.00784217 0.00197892 0)
(-0.00896737 0.00205183 0)
(-0.0101272 0.00210903 0)
(-0.0113133 0.00215136 0)
(-0.0125181 0.0021796 0)
(-0.0137338 0.00219442 0)
(-0.0149533 0.00219642 0)
(-0.0161696 0.00218608 0)
(-0.0173759 0.00216378 0)
(-0.0185655 0.00212979 0)
(-0.0197319 0.0020843 0)
(-0.0208688 0.00202742 0)
(-0.0219698 0.00195922 0)
(-0.0230286 0.00187972 0)
(-0.0240389 0.00178895 0)
(-0.0249946 0.00168692 0)
(-0.0258894 0.0015737 0)
(-0.0267174 0.00144941 0)
(-0.0274726 0.00131422 0)
(-0.0281492 0.00116841 0)
(-0.0287416 0.00101239 0)
(-0.0292447 0.000846653 0)
(-0.0296534 0.000671856 0)
(-0.0299633 0.000488793 0)
(-0.0301703 0.000298412 0)
(-0.030271 0.000101816 0)
(-0.0302627 -9.97361e-05 0)
(-0.0301433 -0.000304832 0)
(-0.0299115 -0.000511916 0)
(-0.0295669 -0.000719298 0)
(-0.0291101 -0.000925168 0)
(-0.0285427 -0.00112762 0)
(-0.0278671 -0.00132466 0)
(-0.027087 -0.00151425 0)
(-0.0262072 -0.00169433 0)
(-0.0252332 -0.00186284 0)
(-0.0241719 -0.00201775 0)
(-0.0230313 -0.00215713 0)
(-0.02182 -0.00227912 0)
(-0.0205478 -0.00238203 0)
(-0.0192253 -0.00246435 0)
(-0.0178637 -0.00252475 0)
(-0.0164748 -0.00256218 0)
(-0.0150712 -0.00257583 0)
(-0.0136653 -0.00256519 0)
(-0.0122701 -0.00253005 0)
(-0.0108985 -0.00247056 0)
(-0.00956317 -0.00238716 0)
(-0.00827643 -0.00228068 0)
(-0.00705013 -0.00215229 0)
(-0.00589537 -0.00200351 0)
(-0.00482235 -0.00183623 0)
(-0.00384013 -0.0016527 0)
(-0.00295649 -0.00145556 0)
(-0.00217769 -0.00124786 0)
(-0.00150824 -0.00103311 0)
(-0.00095065 -0.000815354 0)
(-0.000505218 -0.000599263 0)
(-0.000169667 -0.000390327 0)
(6.11674e-05 -0.000195069 0)
(0.000195751 -2.13534e-05 0)
(0.000246292 0.00012124 0)
(0.000228964 0.00022104 0)
(0.000164252 0.000264057 0)
(8.09532e-05 0.00023418 0)
(1.95029e-05 0.000113928 0)
(1.91697e-06 -8.42011e-05 0)
(-3.06169e-05 -4.49981e-05 0)
(-0.000146588 0.000127864 0)
(-0.000364774 0.000383309 0)
(-0.000698778 0.000686179 0)
(-0.00115657 0.00101086 0)
(-0.00174061 0.00133905 0)
(-0.00244908 0.00165815 0)
(-0.00327703 0.00195975 0)
(-0.00421721 0.00223846 0)
(-0.00526077 0.00249114 0)
(-0.00639789 0.0027162 0)
(-0.00761816 0.00291315 0)
(-0.00891093 0.00308226 0)
(-0.0102656 0.00322425 0)
(-0.0116716 0.00334013 0)
(-0.0131189 0.00343105 0)
(-0.0145974 0.00349817 0)
(-0.0160977 0.00354259 0)
(-0.0176106 0.00356532 0)
(-0.0191271 0.00356724 0)
(-0.0206386 0.00354907 0)
(-0.0221366 0.00351138 0)
(-0.023613 0.0034546 0)
(-0.0250596 0.00337904 0)
(-0.0264685 0.00328491 0)
(-0.0278319 0.00317234 0)
(-0.0291418 0.00304143 0)
(-0.0303906 0.00289223 0)
(-0.0315706 0.00272487 0)
(-0.0326742 0.00253948 0)
(-0.0336942 0.00233631 0)
(-0.0346232 0.00211573 0)
(-0.0354542 0.00187824 0)
(-0.0361805 0.00162452 0)
(-0.0367959 0.00135545 0)
(-0.0372943 0.00107211 0)
(-0.0376705 0.000775827 0)
(-0.0379198 0.000468143 0)
(-0.038038 0.000150853 0)
(-0.038022 -0.000174011 0)
(-0.0378695 -0.000504183 0)
(-0.0375791 -0.000837177 0)
(-0.0371505 -0.0011703 0)
(-0.0365846 -0.00150069 0)
(-0.0358832 -0.00182532 0)
(-0.0350497 -0.00214106 0)
(-0.0340886 -0.00244469 0)
(-0.0330055 -0.00273296 0)
(-0.0318075 -0.00300265 0)
(-0.030503 -0.00325059 0)
(-0.0291013 -0.00347373 0)
(-0.0276131 -0.0036692 0)
(-0.0260501 -0.00383435 0)
(-0.0244251 -0.0039668 0)
(-0.0227516 -0.00406452 0)
(-0.0210438 -0.00412584 0)
(-0.0193166 -0.00414951 0)
(-0.0175851 -0.00413476 0)
(-0.0158649 -0.00408127 0)
(-0.0141713 -0.00398927 0)
(-0.0125196 -0.00385951 0)
(-0.0109246 -0.00369329 0)
(-0.0094004 -0.00349248 0)
(-0.00796039 -0.00325951 0)
(-0.00661677 -0.00299738 0)
(-0.00538043 -0.00270969 0)
(-0.00426067 -0.00240066 0)
(-0.00326501 -0.00207512 0)
(-0.00239889 -0.00173865 0)
(-0.0016654 -0.00139759 0)
(-0.00106505 -0.00105925 0)
(-0.000595414 -0.000732043 0)
(-0.000250826 -0.000425782 0)
(-2.20404e-05 -0.000152004 0)
(0.000104146 7.56301e-05 0)
(0.000145066 0.000240912 0)
(0.000122503 0.000324801 0)
(6.62703e-05 0.000305268 0)
(1.70841e-05 0.000155925 0)
(-6.27306e-06 -6.01048e-05 0)
(-7.7208e-05 6.01286e-05 0)
(-0.000269149 0.000337802 0)
(-0.000590552 0.000714111 0)
(-0.00104985 0.00114748 0)
(-0.00165273 0.0016068 0)
(-0.00239987 0.0020693 0)
(-0.00328802 0.00251879 0)
(-0.00431102 0.00294415 0)
(-0.00546048 0.00333806 0)
(-0.00672646 0.00369603 0)
(-0.00809795 0.00401563 0)
(-0.0095633 0.00429594 0)
(-0.0111106 0.00453705 0)
(-0.0127278 0.00473976 0)
(-0.014403 0.00490525 0)
(-0.0161247 0.00503496 0)
(-0.0178814 0.00513036 0)
(-0.019662 0.00519289 0)
(-0.021456 0.00522388 0)
(-0.0232529 0.00522449 0)
(-0.0250426 0.00519571 0)
(-0.0268151 0.00513831 0)
(-0.0285608 0.0050529 0)
(-0.0302702 0.00493995 0)
(-0.0319338 0.00479975 0)
(-0.0335425 0.00463256 0)
(-0.0350869 0.00443853 0)
(-0.0365581 0.00421785 0)
(-0.037947 0.00397073 0)
(-0.0392449 0.00369745 0)
(-0.0404432 0.00339845 0)
(-0.0415334 0.00307433 0)
(-0.0425075 0.00272589 0)
(-0.0433577 0.00235419 0)
(-0.0440768 0.00196055 0)
(-0.0446581 0.00154662 0)
(-0.0450954 0.00111433 0)
(-0.0453835 0.000665978 0)
(-0.0455179 0.000204171 0)
(-0.0454948 -0.000268136 0)
(-0.0453119 -0.000747667 0)
(-0.0449677 -0.00123084 0)
(-0.044462 -0.0017138 0)
(-0.0437959 -0.00219243 0)
(-0.0429718 -0.00266241 0)
(-0.0419935 -0.00311929 0)
(-0.0408663 -0.00355849 0)
(-0.0395968 -0.0039754 0)
(-0.0381933 -0.00436543 0)
(-0.0366652 -0.00472409 0)
(-0.0350236 -0.00504709 0)
(-0.0332806 -0.00533034 0)
(-0.0314496 -0.0055701 0)
(-0.0295454 -0.00576302 0)
(-0.0275833 -0.00590622 0)
(-0.0255797 -0.00599734 0)
(-0.0235517 -0.00603464 0)
(-0.0215166 -0.006017 0)
(-0.0194921 -0.00594402 0)
(-0.0174959 -0.00581601 0)
(-0.0155454 -0.00563406 0)
(-0.0136577 -0.00540003 0)
(-0.011849 -0.0051166 0)
(-0.0101346 -0.00478726 0)
(-0.00852848 -0.0044163 0)
(-0.00704328 -0.00400889 0)
(-0.00568972 -0.00357104 0)
(-0.00447651 -0.00310969 0)
(-0.00341005 -0.00263275 0)
(-0.00249413 -0.00214919 0)
(-0.00172967 -0.00166923 0)
(-0.0011144 -0.0012045 0)
(-0.000642612 -0.000768356 0)
(-0.000304839 -0.000376174 0)
(-8.75638e-05 -4.57962e-05 0)
(2.69308e-05 0.000202009 0)
(6.0865e-05 0.000343169 0)
(4.3565e-05 0.000349841 0)
(1.31807e-05 0.00018768 0)
(-1.45728e-05 -1.10463e-05 0)
(-0.000125856 0.000228272 0)
(-0.000398591 0.000641036 0)
(-0.000829759 0.00116323 0)
(-0.00142161 0.00174837 0)
(-0.00217673 0.00236094 0)
(-0.00309333 0.00297435 0)
(-0.00416618 0.00356929 0)
(-0.00538752 0.00413218 0)
(-0.00674765 0.00465386 0)
(-0.0082354 0.00512853 0)
(-0.00983859 0.00555293 0)
(-0.0115444 0.00592565 0)
(-0.0133398 0.00624658 0)
(-0.0152115 0.00651653 0)
(-0.0171464 0.00673684 0)
(-0.0191316 0.00690917 0)
(-0.0211546 0.00703532 0)
(-0.0232028 0.00711704 0)
(-0.0252644 0.00715596 0)
(-0.0273276 0.00715354 0)
(-0.0293809 0.00711101 0)
(-0.0314132 0.00702939 0)
(-0.0334134 0.00690946 0)
(-0.0353707 0.00675183 0)
(-0.0372744 0.00655696 0)
(-0.039114 0.0063252 0)
(-0.040879 0.00605684 0)
(-0.0425592 0.00575217 0)
(-0.0441444 0.00541157 0)
(-0.0456246 0.00503552 0)
(-0.0469902 0.00462467 0)
(-0.0482318 0.00417993 0)
(-0.0493402 0.00370247 0)
(-0.0503068 0.00319381 0)
(-0.0511236 0.00265581 0)
(-0.051783 0.00209074 0)
(-0.0522785 0.0015013 0)
(-0.052604 0.000890601 0)
(-0.0527547 0.00026222 0)
(-0.0527267 -0.000379846 0)
(-0.0525172 -0.00103117 0)
(-0.0521248 -0.00168695 0)
(-0.0515493 -0.00234198 0)
(-0.0507921 -0.00299077 0)
(-0.0498559 -0.00362755 0)
(-0.0487451 -0.00424637 0)
(-0.0474657 -0.00484113 0)
(-0.046025 -0.00540571 0)
(-0.0444322 -0.00593401 0)
(-0.042698 -0.00642006 0)
(-0.0408345 -0.00685815 0)
(-0.0388554 -0.00724288 0)
(-0.0367757 -0.00756927 0)
(-0.0346114 -0.00783288 0)
(-0.0323799 -0.00802989 0)
(-0.0300993 -0.00815717 0)
(-0.0277886 -0.0082124 0)
(-0.025467 -0.0081941 0)
(-0.0231544 -0.00810172 0)
(-0.0208703 -0.00793569 0)
(-0.0186343 -0.00769746 0)
(-0.0164652 -0.00738951 0)
(-0.0143814 -0.00701541 0)
(-0.0123998 -0.00657982 0)
(-0.0105363 -0.00608848 0)
(-0.00880498 -0.0055483 0)
(-0.007218 -0.00496728 0)
(-0.00578531 -0.00435466 0)
(-0.00451433 -0.00372091 0)
(-0.00340971 -0.00307787 0)
(-0.00247298 -0.0024389 0)
(-0.00170236 -0.00181903 0)
(-0.00109246 -0.00123528 0)
(-0.000634057 -0.000706977 0)
(-0.000313862 -0.00025615 0)
(-0.000114378 9.19523e-05 0)
(-1.36369e-05 0.000308432 0)
(1.60851e-05 0.000360102 0)
(8.54191e-06 0.000206097 0)
(-2.27249e-05 6.33476e-05 0)
(-0.000174928 0.000461711 0)
(-0.000530672 0.00104159 0)
(-0.00107511 0.00173581 0)
(-0.00180377 0.00249444 0)
(-0.00271557 0.00327865 0)
(-0.00380574 0.0040588 0)
(-0.00506661 0.00481305 0)
(-0.00648851 0.00552571 0)
(-0.00806015 0.00618604 0)
(-0.009769 0.00678706 0)
(-0.0116017 0.00732475 0)
(-0.0135442 0.00779723 0)
(-0.0155824 0.0082042 0)
(-0.0177019 0.00854645 0)
(-0.0198886 0.00882548 0)
(-0.0221284 0.00904317 0)
(-0.0244075 0.00920159 0)
(-0.0267125 0.00930278 0)
(-0.0290302 0.0093487 0)
(-0.0313478 0.00934106 0)
(-0.0336525 0.00928135 0)
(-0.035932 0.00917082 0)
(-0.0381741 0.00901045 0)
(-0.0403669 0.00880101 0)
(-0.0424984 0.00854311 0)
(-0.044557 0.00823722 0)
(-0.0465311 0.00788379 0)
(-0.0484094 0.00748328 0)
(-0.0501806 0.00703624 0)
(-0.0518338 0.00654338 0)
(-0.0533582 0.00600566 0)
(-0.0547436 0.00542432 0)
(-0.0559799 0.00480098 0)
(-0.0570577 0.00413768 0)
(-0.0579683 0.00343689 0)
(-0.0587035 0.00270162 0)
(-0.0592559 0.0019354 0)
(-0.0596192 0.00114228 0)
(-0.0597881 0.000326896 0)
(-0.0597585 -0.000505597 0)
(-0.0595273 -0.00134951 0)
(-0.059093 -0.00219866 0)
(-0.0584556 -0.00304641 0)
(-0.0576166 -0.00388575 0)
(-0.0565789 -0.00470932 0)
(-0.0553475 -0.00550953 0)
(-0.0539286 -0.00627863 0)
(-0.0523305 -0.00700884 0)
(-0.0505631 -0.00769241 0)
(-0.048638 -0.00832179 0)
(-0.0465685 -0.00888969 0)
(-0.0443693 -0.00938926 0)
(-0.0420567 -0.0098142 0)
(-0.0396483 -0.0101589 0)
(-0.0371629 -0.0104184 0)
(-0.0346203 -0.0105887 0)
(-0.0320411 -0.010667 0)
(-0.0294464 -0.0106513 0)
(-0.0268577 -0.0105408 0)
(-0.0242965 -0.0103362 0)
(-0.0217842 -0.0100392 0)
(-0.0193415 -0.00965301 0)
(-0.0169885 -0.00918209 0)
(-0.014744 -0.00863238 0)
(-0.0126255 -0.00801118 0)
(-0.0106486 -0.00732724 0)
(-0.00882685 -0.00659074 0)
(-0.00717161 -0.00581337 0)
(-0.00569142 -0.00500835 0)
(-0.00439191 -0.00419053 0)
(-0.00327551 -0.00337654 0)
(-0.00234116 -0.00258498 0)
(-0.00158415 -0.0018366 0)
(-0.000995864 -0.00115469 0)
(-0.000563685 -0.000565434 0)
(-0.000270809 -9.83896e-05 0)
(-9.60512e-05 0.000213045 0)
(-1.40297e-05 0.00033098 0)
(3.60619e-06 0.000209449 0)
(-3.06257e-05 0.000162887 0)
(-0.000223541 0.000761084 0)
(-0.00066282 0.00154119 0)
(-0.00132188 0.00243445 0)
(-0.00218933 0.00338879 0)
(-0.00326009 0.00436306 0)
(-0.00452603 0.00532544 0)
(-0.00597671 0.00625212 0)
(-0.00760022 0.0071258 0)
(-0.00938349 0.00793444 0)
(-0.0113125 0.00867014 0)
(-0.0133724 0.00932822 0)
(-0.0155483 0.00990645 0)
(-0.0178247 0.0104044 0)
(-0.0201864 0.0108228 0)
(-0.0226181 0.0111634 0)
(-0.0251047 0.0114282 0)
(-0.0276316 0.0116196 0)
(-0.0301842 0.0117399 0)
(-0.0327484 0.0117913 0)
(-0.0353101 0.0117759 0)
(-0.0378558 0.0116953 0)
(-0.0403721 0.0115511 0)
(-0.0428456 0.0113444 0)
(-0.0452634 0.0110762 0)
(-0.0476125 0.0107471 0)
(-0.0498803 0.010358 0)
(-0.0520543 0.0099093 0)
(-0.0541219 0.00940173 0)
(-0.0560712 0.00883604 0)
(-0.0578901 0.00821322 0)
(-0.0595671 0.00753455 0)
(-0.061091 0.00680169 0)
(-0.0624511 0.00601674 0)
(-0.0636371 0.00518232 0)
(-0.0646396 0.00430161 0)
(-0.0654498 0.00337841 0)
(-0.06606 0.00241716 0)
(-0.0664632 0.00142294 0)
(-0.0666537 0.000401536 0)
(-0.066627 -0.000640645 0)
(-0.0663801 -0.00169654 0)
(-0.0659112 -0.00275851 0)
(-0.0652204 -0.00381836 0)
(-0.064309 -0.00486742 0)
(-0.0631804 -0.00589666 0)
(-0.0618396 -0.00689672 0)
(-0.0602935 -0.00785809 0)
(-0.0585508 -0.00877118 0)
(-0.0566221 -0.00962649 0)
(-0.0545198 -0.0104147 0)
(-0.0522579 -0.011127 0)
(-0.0498522 -0.0117547 0)
(-0.0473203 -0.0122903 0)
(-0.0446809 -0.0127267 0)
(-0.0419542 -0.013058 0)
(-0.0391613 -0.0132791 0)
(-0.0363245 -0.0133865 0)
(-0.0334664 -0.0133776 0)
(-0.0306103 -0.0132517 0)
(-0.0277795 -0.0130093 0)
(-0.0249969 -0.0126525 0)
(-0.0222852 -0.0121853 0)
(-0.0196661 -0.011613 0)
(-0.0171603 -0.0109429 0)
(-0.0147867 -0.010184 0)
(-0.0125628 -0.00934698 0)
(-0.0105035 -0.00844426 0)
(-0.0086216 -0.0074901 0)
(-0.00692693 -0.00650061 0)
(-0.00542632 -0.00549377 0)
(-0.00412328 -0.00448962 0)
(-0.00301776 -0.00351034 0)
(-0.00210601 -0.00258052 0)
(-0.00138036 -0.00172738 0)
(-0.000829188 -0.000981145 0)
(-0.000436763 -0.000375514 0)
(-0.000183046 5.19921e-05 0)
(-4.54278e-05 0.000259422 0)
(-1.38217e-06 0.000196897 0)
(-3.82444e-05 0.000287089 0)
(-0.000271225 0.00112602 0)
(-0.000793488 0.00214002 0)
(-0.00156705 0.00325993 0)
(-0.0025736 0.0044326 0)
(-0.00380389 0.00561551 0)
(-0.00524621 0.00677544 0)
(-0.00688709 0.00788726 0)
(-0.00871218 0.00893254 0)
(-0.0107064 0.00989833 0)
(-0.012854 0.0107761 0)
(-0.015139 0.0115606 0)
(-0.0175449 0.0122496 0)
(-0.0200554 0.0128423 0)
(-0.0226542 0.0133398 0)
(-0.0253249 0.0137439 0)
(-0.0280518 0.0140568 0)
(-0.0308191 0.0142811 0)
(-0.0336115 0.0144196 0)
(-0.0364137 0.0144746 0)
(-0.0392111 0.0144486 0)
(-0.041989 0.0143433 0)
(-0.0447332 0.0141606 0)
(-0.0474293 0.0139018 0)
(-0.0500635 0.013568 0)
(-0.0526221 0.0131601 0)
(-0.0550913 0.012679 0)
(-0.0574577 0.0121254 0)
(-0.059708 0.0115002 0)
(-0.0618293 0.0108045 0)
(-0.0638089 0.0100394 0)
(-0.0656342 0.00920663 0)
(-0.0672934 0.00830834 0)
(-0.068775 0.00734714 0)
(-0.0700681 0.00632629 0)
(-0.0711626 0.00524972 0)
(-0.0720491 0.00412209 0)
(-0.0727194 0.0029488 0)
(-0.073166 0.00173606 0)
(-0.0733829 0.000490843 0)
(-0.0733652 -0.000779081 0)
(-0.0731096 -0.00206521 0)
(-0.0726142 -0.00335834 0)
(-0.0718788 -0.00464863 0)
(-0.0709049 -0.00592569 0)
(-0.069696 -0.00717866 0)
(-0.0682572 -0.00839636 0)
(-0.0665956 -0.00956736 0)
(-0.0647205 -0.0106802 0)
(-0.0626427 -0.0117235 0)
(-0.0603754 -0.0126861 0)
(-0.0579333 -0.0135572 0)
(-0.0553331 -0.0143268 0)
(-0.0525932 -0.0149856 0)
(-0.0497336 -0.0155251 0)
(-0.0467755 -0.015938 0)
(-0.0437415 -0.0162185 0)
(-0.0406552 -0.0163619 0)
(-0.0375409 -0.0163655 0)
(-0.0344232 -0.0162279 0)
(-0.0313272 -0.0159497 0)
(-0.0282776 -0.0155336 0)
(-0.0252987 -0.0149838 0)
(-0.0224141 -0.0143071 0)
(-0.0196461 -0.0135118 0)
(-0.0170155 -0.0126087 0)
(-0.0145413 -0.0116105 0)
(-0.0122403 -0.0105319 0)
(-0.0101265 -0.00938996 0)
(-0.00821147 -0.00820362 0)
(-0.0065033 -0.00699416 0)
(-0.00500684 -0.00578506 0)
(-0.00372329 -0.00460219 0)
(-0.00265009 -0.00347394 0)
(-0.00178081 -0.00243147 0)
(-0.0011051 -0.00150896 0)
(-0.000608552 -0.000744021 0)
(-0.000272505 -0.000177979 0)
(-7.73048e-05 0.000143706 0)
(-6.29661e-06 0.000168134 0)
(-4.55805e-05 0.000435333 0)
(-0.000317738 0.00155555 0)
(-0.000921749 0.00283721 0)
(-0.00180866 0.00421167 0)
(-0.00295338 0.00562557 0)
(-0.00434247 0.00703587 0)
(-0.00596049 0.00840865 0)
(-0.00779078 0.00971809 0)
(-0.00981639 0.0109451 0)
(-0.0120201 0.0120763 0)
(-0.0143844 0.0131028 0)
(-0.0168917 0.0140192 0)
(-0.0195244 0.0148229 0)
(-0.022265 0.0155136 0)
(-0.0250961 0.0160924 0)
(-0.0280006 0.0165611 0)
(-0.0309618 0.0169224 0)
(-0.0339631 0.0171792 0)
(-0.0369883 0.0173345 0)
(-0.0400216 0.017391 0)
(-0.0430473 0.0173512 0)
(-0.04605 0.0172174 0)
(-0.0490146 0.0169914 0)
(-0.0519261 0.0166748 0)
(-0.0547698 0.016269 0)
(-0.0575311 0.0157749 0)
(-0.0601955 0.0151936 0)
(-0.0627488 0.0145261 0)
(-0.0651769 0.0137735 0)
(-0.0674661 0.0129369 0)
(-0.0696029 0.0120181 0)
(-0.0715742 0.0110191 0)
(-0.0733672 0.00994252 0)
(-0.0749699 0.00879149 0)
(-0.0763708 0.00756999 0)
(-0.077559 0.00628274 0)
(-0.0785247 0.0049353 0)
(-0.0792591 0.00353411 0)
(-0.0797542 0.00208653 0)
(-0.0800036 0.000600821 0)
(-0.080002 -0.000913858 0)
(-0.0797457 -0.00244749 0)
(-0.0792327 -0.00398923 0)
(-0.0784625 -0.00552752 0)
(-0.0774366 -0.00705015 0)
(-0.0761582 -0.00854437 0)
(-0.0746326 -0.00999704 0)
(-0.0728671 -0.0113948 0)
(-0.070871 -0.0127241 0)
(-0.0686558 -0.0139716 0)
(-0.0662348 -0.0151242 0)
(-0.0636235 -0.0161692 0)
(-0.0608392 -0.0170948 0)
(-0.0579012 -0.0178899 0)
(-0.0548303 -0.0185445 0)
(-0.0516489 -0.0190501 0)
(-0.0483808 -0.0193994 0)
(-0.0450508 -0.0195872 0)
(-0.0416848 -0.0196097 0)
(-0.0383089 -0.0194655 0)
(-0.0349498 -0.019155 0)
(-0.031634 -0.0186811 0)
(-0.0283875 -0.0180488 0)
(-0.0252357 -0.0172656 0)
(-0.0222028 -0.0163415 0)
(-0.0193113 -0.0152888 0)
(-0.0165821 -0.0141223 0)
(-0.0140336 -0.0128591 0)
(-0.0116819 -0.0115189 0)
(-0.00953982 -0.0101238 0)
(-0.00761725 -0.00869838 0)
(-0.00592051 -0.00726959 0)
(-0.00445229 -0.00586703 0)
(-0.00321147 -0.00452293 0)
(-0.00219306 -0.00327234 0)
(-0.00138819 -0.00215332 0)
(-0.000783955 -0.00120726 0)
(-0.000363198 -0.000478982 0)
(-0.000109226 -1.70727e-05 0)
(-1.10812e-05 0.000123145 0)
(-5.26437e-05 0.000606937 0)
(-0.00036296 0.00204834 0)
(-0.00104705 0.00363125 0)
(-0.00204547 0.00528819 0)
(-0.00332654 0.00696634 0)
(-0.00487266 0.00862283 0)
(-0.00666463 0.0102238 0)
(-0.00868254 0.0117432 0)
(-0.0109067 0.0131619 0)
(-0.0133176 0.0144664 0)
(-0.015896 0.0156477 0)
(-0.0186226 0.0167007 0)
(-0.0214786 0.0176229 0)
(-0.0244452 0.018414 0)
(-0.0275041 0.0190755 0)
(-0.0306375 0.0196096 0)
(-0.0338275 0.0200193 0)
(-0.0370571 0.0203077 0)
(-0.0403092 0.0204781 0)
(-0.0435673 0.0205336 0)
(-0.0468149 0.020477 0)
(-0.0500361 0.0203107 0)
(-0.053215 0.0200368 0)
(-0.056336 0.0196571 0)
(-0.0593835 0.019173 0)
(-0.0623423 0.0185858 0)
(-0.0651972 0.0178967 0)
(-0.0679333 0.0171069 0)
(-0.0705359 0.0162177 0)
(-0.0729904 0.0152305 0)
(-0.0752828 0.0141475 0)
(-0.0773992 0.012971 0)
(-0.0793263 0.0117041 0)
(-0.0810513 0.0103507 0)
(-0.0825621 0.00891544 0)
(-0.0838474 0.00740377 0)
(-0.0848967 0.00582223 0)
(-0.0857005 0.00417834 0)
(-0.0862506 0.00248064 0)
(-0.0865398 0.000738716 0)
(-0.0865626 -0.00103682 0)
(-0.0863149 -0.00283439 0)
(-0.085794 -0.00464147 0)
(-0.0849995 -0.00644469 0)
(-0.0839323 -0.00822997 0)
(-0.0825957 -0.00998259 0)
(-0.0809948 -0.0116874 0)
(-0.0791369 -0.0133289 0)
(-0.0770314 -0.0148915 0)
(-0.0746898 -0.0163597 0)
(-0.0721258 -0.0177184 0)
(-0.0693554 -0.0189528 0)
(-0.0663965 -0.0200492 0)
(-0.0632688 -0.0209946 0)
(-0.0599941 -0.0217774 0)
(-0.0565959 -0.0223876 0)
(-0.0530989 -0.0228166 0)
(-0.0495294 -0.023058 0)
(-0.0459143 -0.0231074 0)
(-0.0422817 -0.0229629 0)
(-0.0386596 -0.0226247 0)
(-0.0350764 -0.0220959 0)
(-0.0315598 -0.0213822 0)
(-0.0281373 -0.0204919 0)
(-0.0248348 -0.0194363 0)
(-0.0216769 -0.0182294 0)
(-0.0186864 -0.0168882 0)
(-0.0158837 -0.0154321 0)
(-0.0132867 -0.0138838 0)
(-0.0109102 -0.0122682 0)
(-0.00876586 -0.0106134 0)
(-0.0068617 -0.00894997 0)
(-0.00520213 -0.00731116 0)
(-0.00378767 -0.00573311 0)
(-0.00261496 -0.00425475 0)
(-0.0016768 -0.00291797 0)
(-0.000961859 -0.00176782 0)
(-0.000454539 -0.00085248 0)
(-0.00014101 -0.000223381 0)
(-1.5723e-05 6.2045e-05 0)
(-5.94471e-05 0.000801197 0)
(-0.000406836 0.00260283 0)
(-0.00116907 0.00452014 0)
(-0.00227665 0.00648732 0)
(-0.00369158 0.00845269 0)
(-0.00539217 0.0103742 0)
(-0.00735551 0.0122185 0)
(-0.00955836 0.0139601 0)
(-0.0119783 0.0155802 0)
(-0.0145935 0.0170657 0)
(-0.0173828 0.0184078 0)
(-0.0203252 0.0196017 0)
(-0.0234006 0.0206455 0)
(-0.0265891 0.0215392 0)
(-0.0298714 0.0222847 0)
(-0.0332287 0.0228845 0)
(-0.0366426 0.023342 0)
(-0.0400951 0.0236609 0)
(-0.0435687 0.0238447 0)
(-0.047046 0.0238967 0)
(-0.0505101 0.0238201 0)
(-0.0539445 0.0236175 0)
(-0.0573325 0.0232913 0)
(-0.060658 0.0228433 0)
(-0.0639048 0.0222753 0)
(-0.0670571 0.0215886 0)
(-0.0700991 0.0207847 0)
(-0.0730153 0.0198648 0)
(-0.0757903 0.0188306 0)
(-0.078409 0.0176839 0)
(-0.0808567 0.016427 0)
(-0.0831188 0.0150627 0)
(-0.0851816 0.0135947 0)
(-0.0870316 0.0120274 0)
(-0.0886561 0.0103662 0)
(-0.0900432 0.00861739 0)
(-0.0911818 0.00678849 0)
(-0.0920618 0.00488808 0)
(-0.0926745 0.00292592 0)
(-0.0930122 0.00091295 0)
(-0.0930687 -0.00113875 0)
(-0.0928395 -0.00321599 0)
(-0.0923216 -0.00530452 0)
(-0.0915139 -0.00738915 0)
(-0.0904171 -0.00945382 0)
(-0.0890341 -0.0114818 0)
(-0.0873697 -0.0134558 0)
(-0.085431 -0.0153582 0)
(-0.0832274 -0.0171712 0)
(-0.0807704 -0.0188771 0)
(-0.0780739 -0.0204585 0)
(-0.075154 -0.0218986 0)
(-0.0720291 -0.0231815 0)
(-0.0687195 -0.0242922 0)
(-0.0652476 -0.0252175 0)
(-0.0616378 -0.0259453 0)
(-0.0579159 -0.026466 0)
(-0.0541093 -0.0267718 0)
(-0.0502466 -0.0268575 0)
(-0.0463569 -0.0267203 0)
(-0.0424703 -0.0263604 0)
(-0.0386167 -0.0257809 0)
(-0.0348261 -0.0249879 0)
(-0.0311275 -0.0239908 0)
(-0.0275493 -0.022802 0)
(-0.024118 -0.0214372 0)
(-0.0208586 -0.0199154 0)
(-0.0177936 -0.0182588 0)
(-0.0149431 -0.0164924 0)
(-0.0123238 -0.0146447 0)
(-0.00994958 -0.0127469 0)
(-0.00783034 -0.0108333 0)
(-0.00597242 -0.00894099 0)
(-0.00437815 -0.00711003 0)
(-0.00304598 -0.00538324 0)
(-0.00197047 -0.00380634 0)
(-0.00114198 -0.00242798 0)
(-0.000546411 -0.00129965 0)
(-0.00017265 -0.000475517 0)
(-2.02363e-05 -1.50174e-05 0)
(-6.60046e-05 0.0010174 0)
(-0.000449341 0.00321735 0)
(-0.00128759 0.00550157 0)
(-0.00250163 0.0078064 0)
(-0.00404743 0.0100818 0)
(-0.00589931 0.012287 0)
(-0.00803071 0.0143899 0)
(-0.0104151 0.0163659 0)
(-0.0130273 0.018197 0)
(-0.0158432 0.0198708 0)
(-0.0188396 0.0213794 0)
(-0.0219939 0.0227185 0)
(-0.0252845 0.0238867 0)
(-0.0286905 0.0248849 0)
(-0.0321917 0.0257152 0)
(-0.0357682 0.0263808 0)
(-0.039401 0.0268857 0)
(-0.0430715 0.0272338 0)
(-0.0467614 0.027429 0)
(-0.050453 0.0274751 0)
(-0.0541288 0.0273755 0)
(-0.0577715 0.027133 0)
(-0.0613642 0.0267503 0)
(-0.0648902 0.0262294 0)
(-0.0683328 0.0255722 0)
(-0.0716757 0.0247802 0)
(-0.0749024 0.023855 0)
(-0.077997 0.0227981 0)
(-0.0809436 0.0216114 0)
(-0.0837265 0.0202969 0)
(-0.0863303 0.0188574 0)
(-0.0887402 0.017296 0)
(-0.0909415 0.015617 0)
(-0.0929204 0.0138253 0)
(-0.0946635 0.0119271 0)
(-0.0961583 0.00992948 0)
(-0.0973931 0.00784095 0)
(-0.0983573 0.00567116 0)
(-0.0990415 0.0034311 0)
(-0.0994373 0.00113306 0)
(-0.0995381 -0.00120938 0)
(-0.0993385 -0.00358141 0)
(-0.0988351 -0.00596701 0)
(-0.0980262 -0.00834913 0)
(-0.0969121 -0.0107097 0)