/*--------------------------------*- C++ -*----------------------------------*\
| =========                 |                                                 |
| \\      /  F ield         | OpenFOAM: The Open Source CFD Toolbox           |
|  \\    /   O peration     | Version:  2506                                  |
|   \\  /    A nd           | Website:  www.openfoam.com                      |
|    \\/     M anipulation  |                                                 |
\*---------------------------------------------------------------------------*/
FoamFile
{
    version     2.0;
    format      ascii;
    arch        "LSB;label=32;scalar=64";
    class       volScalarField;
    location    "1.25";
    object      Lambda2Field;
}
// * * * * * * * * * * * * * * * * * * * * * * * * * * * * * * * * * * * * * //

dimensions      [0 0 -2 0 0 0 0];

internalField   nonuniform List<scalar> 
400
(
0.0221843
0.0896109
0.198255
0.26632
0.302429
0.311799
0.310089
0.310082
0.339335
0.402946
0.425626
0.58559
0.831569
0.964485
1.02941
0.975846
0.775529
0.502573
0.192222
0.0250312
0.0867242
0.202799
0.299083
0.36646
0.405272
0.42041
0.415921
0.393145
0.354543
0.308178
0.271112
0.286018
0.392971
0.623935
0.910605
1.10395
1.06014
0.790849
0.43956
0.12388
0.188427
0.27949
0.353928
0.400827
0.438356
0.461409
0.466823
0.452432
0.419714
0.379576
0.352846
0.394717
0.56027
0.867989
1.2467
1.52455
1.49218
1.21764
0.784129
0.313362
0.262614
0.335372
0.381493
0.417895
0.455094
0.491265
0.521877
0.544403
0.561057
0.582126
0.638839
0.791854
1.1105
1.6203
2.24052
2.65759
2.48546
1.85678
1.10681
0.459076
0.309382
0.364508
0.397858
0.433174
0.476385
0.533126
0.602026
0.684512
0.787452
0.929253
1.16142
1.58741
2.35086
3.53226
4.88618
5.43991
4.61937
2.8244
1.3708
0.786914
0.326246
0.37009
0.401504
0.439863
0.494959
0.578674
0.696805
0.860417
1.0916
1.44035
2.02925
3.16088
5.29236
8.57158
11.8213
12.9344
10.4412
4.51774
0.149213
0.679565
0.325492
0.356756
0.389597
0.435234
0.505585
0.619967
0.794639
1.05683
1.46251
2.15166
3.47964
6.42209
12.2565
19.6641
25.0767
28.4303
27.1363
18.1311
1.80914
-0.173833
0.316264
0.328105
0.360553
0.41325
0.498363
0.64233
0.873398
1.24141
1.8634
3.07185
5.7943
11.5428
19.6951
24.234
22.7587
24.674
33.6837
38.3253
27.7107
0
0.301927
0.287318
0.31477
0.36996
0.464691
0.630563
0.907368
1.3708
2.21833
3.91663
8.07323
14.417
15.3314
0.379533
-20.595
-26.8479
-7.49716
29.263
50.2266
21.327
0.280834
0.238318
0.255599
0.305294
0.402319
0.576488
0.879219
1.41003
2.38548
4.33165
8.45782
11.3455
0
-36.5397
-74.1359
-86.6252
-73.9178
-31.1252
41.8163
88.1132
0.24991
0.185256
0.189476
0.227336
0.315921
0.485854
0.789903
1.32958
2.32311
4.21067
7.24936
6.49465
-13.0652
-56.7099
-90.4134
-93.3591
-84.3457
-73.447
-6.63092
121.368
0.1903
0.130909
0.123569
0.146864
0.223161
0.384596
0.680702
1.19939
2.1199
3.79799
6.15711
4.69838
-13.5927
-52.6771
-78.1302
-70.8
-52.4075
-56.9901
-39.1498
102.557
0.106059
0.076085
0.0642373
0.0760644
0.143073
0.299517
0.588519
1.07945
1.904
3.28587
5.36381
5.04618
-5.14272
-30.7567
-49.5067
-43.2617
-26.4817
-25.239
-33.3633
64.1227
-0.0230965
0.0173459
0.0177726
0.0285802
0.0963535
0.258885
0.550759
1.01516
1.73329
2.83467
4.36269
4.92946
0.485697
-9.66755
-19.4016
-16.5131
-8.0013
-5.39034
-18.6768
28.2916
-0.195491
-0.028539
-0.004826
0.0198278
0.102587
0.280856
0.582946
1.03065
1.64974
2.45771
3.43511
4.10762
2.83785
-0.365879
-3.89057
-2.23951
1.50756
0.0541756
-9.31159
10.6563
-0.0483314
-0.0776033
0.012636
0.0656409
0.175386
0.376575
0.688941
1.11751
1.67
2.30781
2.9025
3.19305
2.59732
0.845253
-0.324177
0.693586
4.12119
0
-8.25105
2.76143
0
0
0.013428
0
0.0551631
0.271347
0.62015
1.08765
1.63535
2.1716
2.51818
2.40112
1.49499
-0.149228
-1.63791
-1.54242
0
-11.4729
0
25.5181
0
0.00620514
0
0
0
0
0.328881
1.05536
1.78652
2.33632
2.40437
1.62871
0
-2.85938
-6.76324
-9.7317
-15.0735
-33.4358
3.25108
259.067
9.33563
0
0
0
0
0
0
0
0
0.734381
1.00747
0.129647
-0.396446
-4.92905
-10.2154
-17.5513
-28.7944
-17.1267
-131.819
954.496
3233.79
-586.677
-681.411
-365.107
-169.94
-92.5872
-61.1945
-43.7468
-32.0847
-24.2178
-19.6119
-16.8429
-17.3587
-15.9216
-32.1109
0
0
0
-218.218
1601.41
)
;

boundaryField
{
    movingWall
    {
        type            calculated;
        value           nonuniform List<scalar> 
20
(
1594.13
0
0
0
0
0
0
0
0
0
0
0
0
0
0
0
-103.777
0
-1331.41
2868.37
)
;
    }
    fixedWalls
    {
        type            calculated;
        value           nonuniform List<scalar> 
60
(
0
0.047696
0.145143
0.206985
0.261211
0.300044
0.335424
0.376495
0.421408
0.456291
0.420424
0.309636
0.103268
-0.0528909
-0.562124
0
0
0
30.1075
6857.25
0
0.0527006
0.209033
0.401461
0.612108
0
0
0
0
44.7557
79.5893
69.3262
0
0
0
0
38.5012
733.783
3136.82
2152.06
0
0.0508489
0.160117
0.249546
0.307321
0.338155
0.355635
0.374849
0.445857
0.596431
0.681083
0.881476
1.41768
1.55808
1.34757
0.996964
0.630427
0.373882
0.0952478
0
)
;
    }
    frontAndBack
    {
        type            empty;
    }
}


// ************************************************************************* //
