/*--------------------------------*- C++ -*----------------------------------*\
| =========                 |                                                 |
| \\      /  F ield         | OpenFOAM: The Open Source CFD Toolbox           |
|  \\    /   O peration     | Version:  2506                                  |
|   \\  /    A nd           | Website:  www.openfoam.com                      |
|    \\/     M anipulation  |                                                 |
\*---------------------------------------------------------------------------*/
FoamFile
{
    version     2.0;
    format      ascii;
    arch        "LSB;label=32;scalar=64";
    class       volScalarField;
    location    "0.975";
    object      p;
}
// * * * * * * * * * * * * * * * * * * * * * * * * * * * * * * * * * * * * * //

dimensions      [0 2 -2 0 0 0 0];

internalField   nonuniform List<scalar> 
6400
(
3.704e-08
7.49318e-06
-3.31243e-05
-0.00012551
-0.00025914
-0.000421897
-0.000603258
-0.000794352
-0.00098793
-0.00117819
-0.00136034
-0.00153055
-0.00168581
-0.00182377
-0.00194267
-0.00204119
-0.00211836
-0.00217347
-0.00220602
-0.00221564
-0.00220211
-0.00216533
-0.0021053
-0.00202206
-0.00191572
-0.00178645
-0.00163447
-0.00146013
-0.00126383
-0.00104611
-0.000807591
-0.000549034
-0.000271327
2.44962e-05
0.000337241
0.000665536
0.00100782
0.00136234
0.00172715
0.00210013
0.00247899
0.00286129
0.00324444
0.00362573
0.00400233
0.00437134
0.00472983
0.00507482
0.00540338
0.00571262
0.00599979
0.00626227
0.00649766
0.0067038
0.00687881
0.00702113
0.00712958
0.00720334
0.00724205
0.00724577
0.00721501
0.0071508
0.00705462
0.00692848
0.00677486
0.00659674
0.00639757
0.00618128
0.00595229
0.00571546
0.00547616
0.00524021
0.00501392
0.00480407
0.00461788
0.00446284
0.00434621
0.0042744
0.004252
0.00427038
8.29817e-06
1.52785e-05
-2.20845e-05
-0.000101411
-0.000213354
-0.000349864
-0.000503124
-0.00066592
-0.000832086
-0.000996502
-0.0011549
-0.00130374
-0.00144015
-0.0015618
-0.00166687
-0.00175396
-0.00182205
-0.00187034
-0.00189822
-0.00190525
-0.00189109
-0.00185558
-0.00179864
-0.00172027
-0.00162052
-0.00149951
-0.00135741
-0.00119453
-0.00101126
-0.00080811
-0.000585666
-0.000344633
-8.58403e-05
0.000189734
0.000480956
0.000786526
0.00110498
0.00143466
0.00177376
0.00212029
0.00247213
0.00282699
0.00318247
0.00353607
0.00388518
0.00422712
0.00455919
0.00487866
0.00518284
0.00546908
0.00573489
0.00597788
0.00619587
0.00638693
0.00654938
0.00668185
0.0067833
0.00685307
0.00689087
0.00689683
0.00687152
0.00681594
0.00673154
0.00662024
0.0064844
0.0063268
0.00615068
0.0059597
0.0057579
0.00554976
0.0053401
0.00513412
0.00493734
0.00475554
0.00459466
0.00446061
0.00435866
0.00429326
0.00427013
0.00428864
7.17474e-05
7.05455e-05
2.99312e-05
-4.49956e-05
-0.000146291
-0.000267912
-0.000403886
-0.000548326
-0.000695971
-0.00084235
-0.0009837
-0.00111685
-0.00123914
-0.00134839
-0.00144282
-0.00152106
-0.00158207
-0.00162504
-0.00164931
-0.00165438
-0.0016399
-0.00160562
-0.00155144
-0.00147731
-0.00138324
-0.00126928
-0.00113559
-0.000982419
-0.000810143
-0.000619219
-0.000410198
-0.000183729
5.94214e-05
0.000318338
0.000591949
0.000879023
0.00117817
0.00148784
0.00180632
0.00213176
0.00246214
0.00279533
0.00312906
0.00346098
0.00378866
0.00410958
0.00442122
0.004721
0.00500643
0.00527505
0.0055245
0.00575261
0.00595734
0.0061369
0.00628976
0.00641467
0.00651071
0.0065773
0.00661421
0.00662162
0.00660011
0.00655066
0.00647468
0.00637402
0.00625092
0.00610803
0.00594839
0.00577541
0.00559286
0.00540485
0.00521578
0.00503034
0.00485341
0.00469003
0.0045453
0.00442415
0.00433089
0.00426938
0.00424666
0.0042666
0.000185832
0.00016703
0.000116806
3.93111e-05
-5.94687e-05
-0.000174536
-0.000301087
-0.000434366
-0.000569973
-0.000704066
-0.000833355
-0.000955032
-0.00106672
-0.00116645
-0.00125262
-0.00132396
-0.00137943
-0.00141823
-0.00143973
-0.00144342
-0.00142894
-0.00139603
-0.00134453
-0.00127436
-0.00118548
-0.00107791
-0.000951786
-0.000807314
-0.000644813
-0.000464693
-0.00026745
-5.36768e-05
0.000175918
0.000420487
0.000679025
0.000950374
0.00123322
0.0015261
0.00182739
0.00213535
0.00244807
0.00276351
0.00307955
0.00339395
0.00370439
0.00400849
0.00430385
0.00458804
0.00485867
0.00511342
0.00535006
0.00556651
0.00576088
0.00593147
0.00607683
0.00619581
0.00628754
0.00635149
0.00638749
0.00639573
0.00637678
0.0063316
0.00626158
0.00616846
0.00605441
0.00592194
0.00577393
0.00561359
0.00544444
0.00527027
0.00509515
0.00492332
0.00475918
0.00460719
0.00447184
0.00435748
0.00426793
0.00420683
0.00418129
0.00419615
0.000337828
0.00029444
0.000229652
0.000145144
4.40917e-05
-6.92737e-05
-0.00019095
-0.000317168
-0.000444386
-0.00056941
-0.000689431
-0.000802019
-0.000905112
-0.000996998
-0.00107628
-0.00114181
-0.00119264
-0.00122802
-0.00124732
-0.00125007
-0.00123594
-0.00120465
-0.00115602
-0.0010899
-0.00100623
-0.000905002
-0.000786309
-0.000650324
-0.000497309
-0.000327606
-0.000141646
6.00411e-05
0.000276809
0.000507874
0.000752305
0.00100902
0.00127679
0.00155424
0.00183984
0.00213193
0.0024287
0.00272823
0.00302849
0.00332734
0.00362258
0.00391192
0.00419307
0.0044637
0.00472153
0.00496432
0.00518995
0.00539643
0.00558194
0.00574486
0.00588381
0.00599768
0.00608566
0.00614726
0.00618231
0.006191
0.00617391
0.00613196
0.00606648
0.00597917
0.00587209
0.00574762
0.00560851
0.00545776
0.00529867
0.00513478
0.00496982
0.00480764
0.00465221
0.00450753
0.00437755
0.00426609
0.00417662
0.00411249
0.00407963
0.00408205
0.000518515
0.000445582
0.000362204
0.000267109
0.000160029
4.44771e-05
-7.61509e-05
-0.000198899
-0.000320985
-0.000439831
-0.000553125
-0.000658854
-0.000755295
-0.000841008
-0.000914799
-0.000975682
-0.00102283
-0.00105556
-0.00107332
-0.00107568
-0.0010623
-0.00103294
-0.000987368
-0.000925431
-0.000847018
-0.000752096
-0.000640711
-0.000512996
-0.000369152
-0.000209456
-3.42625e-05
0.00015597
0.000360661
0.000579096
0.000810417
0.00105362
0.00130757
0.00157096
0.00184237
0.0021202
0.00240274
0.00268818
0.00297455
0.00325983
0.00354187
0.0038185
0.00408747
0.00434656
0.00459354
0.00482627
0.00504268
0.00524085
0.00541899
0.00557555
0.00570918
0.00581881
0.00590365
0.0059632
0.00599731
0.00600618
0.00599033
0.00595067
0.00588848
0.00580538
0.00570334
0.00558465
0.00545191
0.00530795
0.00515588
0.00499898
0.00484071
0.00468459
0.00453421
0.00439315
0.00426491
0.00415287
0.00406014
0.00398974
0.00394569
0.00393028
0.000719217
0.000613742
0.000508803
0.000400161
0.000283986
0.000163085
4.03017e-05
-8.20948e-05
-0.000201961
-0.000317275
-0.000426218
-0.000527202
-0.000618867
-0.000700049
-0.000769769
-0.000827207
-0.000871677
-0.000902609
-0.000919538
-0.000922088
-0.000909949
-0.000882858
-0.000840596
-0.000782983
-0.000709888
-0.000621242
-0.000517047
-0.000397377
-0.000262372
-0.000112237
5.27425e-05
0.000232185
0.000425584
0.0006323
0.00085155
0.00108241
0.00132383
0.00157458
0.00183332
0.00209854
0.00236862
0.00264181
0.00291622
0.00318991
0.0034608
0.00372676
0.00398562
0.0042352
0.00447333
0.0046979
0.00490691
0.00509844
0.00527075
0.0054223
0.00555176
0.00565806
0.0057404
0.0057983
0.00583158
0.00584041
0.0058253
0.00578711
0.00572705
0.00564671
0.00554795
0.00543297
0.00530424
0.00516447
0.00501657
0.00486363
0.00470884
0.00455546
0.00440676
0.00426596
0.00413619
0.0040204
0.00392143
0.00384195
0.00378376
0.00374709
0.00093196
0.000792396
0.000663947
0.000539514
0.000411818
0.000283057
0.00015557
3.10147e-05
-8.90357e-05
-0.000203079
-0.000309763
-0.000407906
-0.000496494
-0.000574652
-0.000641625
-0.000696779
-0.000739578
-0.00076958
-0.000786418
-0.000789778
-0.000779379
-0.000754965
-0.000716308
-0.00066322
-0.000595552
-0.000513205
-0.000416127
-0.000304331
-0.000177885
-3.69233e-05
0.000118343
0.000287605
0.000470437
0.000666276
0.00087442
0.00109403
0.00132412
0.00156356
0.00181107
0.00206524
0.00232451
0.00258718
0.00285146
0.00311543
0.00337708
0.00363433
0.00388503
0.00412704
0.00435821
0.00457648
0.00477981
0.00496634
0.00513431
0.00528218
0.00540861
0.0055125
0.00559306
0.00564975
0.00568239
0.0056911
0.00567635
0.00563896
0.0055801
0.00550127
0.00540427
0.0052912
0.00516445
0.00502657
0.00488036
0.0047287
0.00457459
0.00442105
0.00427109
0.00412764
0.00399349
0.00387127
0.00376354
0.00367272
0.00359827
0.00353833
0.00114957
0.000975399
0.000822333
0.000680554
0.000539505
0.000400916
0.000266714
0.000137992
1.57877e-05
-9.88861e-05
-0.000205115
-0.000302096
-0.000389139
-0.000465647
-0.000531105
-0.000585081
-0.0006272
-0.000657146
-0.000674648
-0.000679459
-0.000671335
-0.000650033
-0.000615329
-0.000567025
-0.000504951
-0.000428973
-0.00033899
-0.000234944
-0.000116833
1.52865e-05
0.000161279
0.000320912
0.000493837
0.000679575
0.000877507
0.00108687
0.00130677
0.00153614
0.00177379
0.00201835
0.00226836
0.00252217
0.00277803
0.00303407
0.00328831
0.0035387
0.0037831
0.0040194
0.00424545
0.00445917
0.00465854
0.00484166
0.00500676
0.00515228
0.00527683
0.0053793
0.00545882
0.00551485
0.00554713
0.00555576
0.00554115
0.00550408
0.00544566
0.00536731
0.00527078
0.00515811
0.00503155
0.0048936
0.00474689
0.00459419
0.00443831
0.0042821
0.00412835
0.00397973
0.0038388
0.00370786
0.00358934
0.0034854
0.00339325
0.00330904
0.001366
0.0011572
0.000978939
0.000818804
0.000663101
0.00051321
0.000370728
0.000236225
0.000110242
-6.66006e-06
-0.000113974
-0.000211255
-0.000298118
-0.000374236
-0.000439334
-0.000493186
-0.000535585
-0.000566338
-0.000585269
-0.000592192
-0.000586905
-0.000569189
-0.000538826
-0.000495611
-0.000439349
-0.000369863
-0.000286996
-0.000190625
-8.06719e-05
4.28823e-05
0.000179982
0.000330477
0.000494099
0.000670452
0.000859001
0.00105907
0.00126983
0.0014903
0.00171936
0.00195571
0.00219793
0.00244444
0.00269353
0.00294335
0.00319194
0.00343725
0.00367718
0.00390957
0.00413228
0.0043432
0.00454028
0.00472159
0.00488532
0.00502984
0.00515372
0.00525578
0.00533511
0.0053911
0.00542343
0.00543216
0.00541763
0.00538057
0.00532201
0.00524333
0.00514623
0.00503265
0.00490479
0.00476505
0.00461597
0.00446019
0.00430042
0.00413934
0.00397958
0.00382365
0.00367386
0.00353231
0.00340132
0.00328291
0.00317215
0.00306335
0.00157598
0.0013328
0.00112911
0.000949997
0.000778768
0.00061652
0.000464569
0.000323004
0.00019191
7.14447e-05
-3.82599e-05
-0.000137099
-0.00022499
-0.000301865
-0.000367683
-0.000422414
-0.000466016
-0.00049842
-0.000519538
-0.000529249
-0.00052739
-0.000513769
-0.000488175
-0.000450395
-0.000400207
-0.000337384
-0.000261709
-0.000172988
-7.10699e-05
4.4143e-05
0.000172675
0.00031446
0.000469319
0.000636942
0.000816873
0.00100852
0.00121113
0.0014238
0.00164548
0.00187493
0.00211078
0.00235149
0.00259537
0.00284061
0.00308525
0.00332724
0.00356445
0.00379472
0.00401585
0.0042257
0.00442218
0.00460329
0.00476716
0.00491208
0.00503656
0.00513933
0.0052194
0.00527609
0.00530903
0.00531817
0.00530382
0.00526662
0.00520756
0.00512795
0.00502942
0.00491388
0.00478345
0.00464047
0.0044874
0.0043268
0.00416129
0.00399343
0.00382575
0.00366063
0.00350022
0.00334648
0.00320167
0.00306774
0.00293782
0.00280452
0.00177477
0.00149766
0.00126854
0.00107013
0.00088282
0.000707476
0.000545167
0.000395544
0.000258274
0.000133145
1.99468e-05
-8.15378e-05
-0.00017152
-0.00025019
-0.000317728
-0.000374288
-0.000419981
-0.000454854
-0.000478909
-0.000492089
-0.000494274
-0.000485291
-0.000464935
-0.000432978
-0.000389166
-0.000333224
-0.000264866
-0.000183826
-8.98772e-05
1.7156e-05
0.000137384
0.000270828
0.000417398
0.000576871
0.000748879
0.000932909
0.00112829
0.0013342
0.00154963
0.00177342
0.00200424
0.00224058
0.00248078
0.00272303
0.00296538
0.00320575
0.00344198
0.00367187
0.00389318
0.00410371
0.00430129
0.00448385
0.00464942
0.00479622
0.00492264
0.00502732
0.00510919
0.00516747
0.00520169
0.00521173
0.00519782
0.00516053
0.00510078
0.00501983
0.00491927
0.00480093
0.00466689
0.00451945
0.00436101
0.00419409
0.00402123
0.00384495
0.00366769
0.00349176
0.00331922
0.00315192
0.00299218
0.00284195
0.00269255
0.00253504
0.00195805
0.00164759
0.00139323
0.00117541
0.000971716
0.000782771
0.00060945
0.00045101
0.00030673
0.000176048
5.84321e-05
-4.66399e-05
-0.000139658
-0.000221062
-0.000291239
-0.00035052
-0.000399151
-0.000437292
-0.000465028
-0.000482367
-0.000489228
-0.000485454
-0.000470839
-0.000445135
-0.000408049
-0.000359249
-0.000298385
-0.000225116
-0.000139134
-4.01801e-05
7.19418e-05
0.000197344
0.000336029
0.000487864
0.00065257
0.000829716
0.00101871
0.00121881
0.00142906
0.00164837
0.00187543
0.00210878
0.00234677
0.00258757
0.00282924
0.00306966
0.00330664
0.00353791
0.00376117
0.00397414
0.00417456
0.00436025
0.00452917
0.00467939
0.0048092
0.00491712
0.00500196
0.00506284
0.00509919
0.00511078
0.00509776
0.00506061
0.00500019
0.00491771
0.00481469
0.00469292
0.00455447
0.00440156
0.00423661
0.00406208
0.0038805
0.00369436
0.00350608
0.00331792
0.00313194
0.00294994
0.00277432
0.00260714
0.00243806
0.00225668
0.00212183
0.00177871
0.00149944
0.00126226
0.00104202
0.000839161
0.000654371
0.00048655
0.000334617
0.000197671
7.48638e-05
-3.46122e-05
-0.000131509
-0.000216497
-0.000290161
-0.000352995
-0.000405373
-0.00044756
-0.000479718
-0.000501914
-0.000514102
-0.000516136
-0.000507799
-0.000488816
-0.000458849
-0.000417508
-0.000364372
-0.000299023
-0.00022107
-0.000130166
-2.60225e-05
9.15653e-05
0.000222695
0.000367327
0.000525275
0.000696195
0.000879579
0.00107474
0.00128082
0.00149675
0.00172127
0.00195295
0.00219013
0.002431
0.00267358
0.00291571
0.00315515
0.00338955
0.00361655
0.00383375
0.0040388
0.00422941
0.00440338
0.00455867
0.00469343
0.00480605
0.00489519
0.00495984
0.00499931
0.00501328
0.00500177
0.00496519
0.00490433
0.00482032
0.00471463
0.00458904
0.00444556
0.00428641
0.00411399
0.00393078
0.00373929
0.00354205
0.00334147
0.00313985
0.00293926
0.00274152
0.00254921
0.00236453
0.00217558
0.00197066
0.0022624
0.00188734
0.00158357
0.00132718
0.0010904
0.000873471
0.000676925
0.000499323
0.000339244
0.000195459
6.68152e-05
-4.77718e-05
-0.000149297
-0.000238643
-0.000316578
-0.000383748
-0.000440651
-0.000487642
-0.000524963
-0.000552728
-0.000570914
-0.00057938
-0.000577891
-0.000566138
-0.000543734
-0.000510223
-0.00046511
-0.000407895
-0.000338101
-0.000255288
-0.000159073
-4.91524e-05
7.46711e-05
0.000212457
0.000364112
0.000529383
0.000707844
0.000898889
0.00110171
0.0013153
0.00153844
0.00176971
0.00200746
0.00224987
0.00249491
0.0027404
0.00298401
0.00322333
0.00345587
0.00367916
0.0038907
0.00408807
0.00426891
0.00443104
0.00457243
0.00469133
0.00478625
0.00485602
0.00489981
0.00491717
0.00490801
0.00487263
0.00481175
0.00472643
0.00461809
0.00448846
0.00433954
0.00417357
0.00399293
0.00380013
0.00359773
0.00338829
0.00317429
0.0029581
0.00274184
0.00252744
0.00231767
0.00211493
0.00190591
0.00167762
0.00237626
0.00197001
0.00164222
0.00136686
0.00111363
0.000882604
0.000674156
0.000486508
0.000317907
0.000166815
3.17865e-05
-8.85254e-05
-0.000195347
-0.000289757
-0.000372692
-0.000444941
-0.00050712
-0.000559668
-0.000602891
-0.000636945
-0.000661825
-0.000677377
-0.000683344
-0.000679375
-0.000665028
-0.000639778
-0.000603051
-0.000554256
-0.000492825
-0.000418224
-0.000329969
-0.000227652
-0.00011097
2.02379e-05
0.000165979
0.000326093
0.000500242
0.000687894
0.000888311
0.00110053
0.00132338
0.00155544
0.00179508
0.00204046
0.00228951
0.00253999
0.0027895
0.00303552
0.00327548
0.00350676
0.00372672
0.00393278
0.00412243
0.00429328
0.00444315
0.00457009
0.00467244
0.00474886
0.00479836
0.00482034
0.00481457
0.00478125
0.004721
0.0046348
0.00452403
0.00439037
0.00423582
0.00406262
0.00387319
0.00367007
0.0034559
0.00323331
0.00300488
0.00277309
0.0025402
0.00230824
0.00208025
0.00185888
0.00162946
0.00137782
0.00246004
0.00202338
0.00167208
0.00137808
0.00110859
0.000863542
0.000643149
0.000445291
0.000267885
0.000109102
-3.27766e-05
-0.000159352
-0.000272067
-0.000372188
-0.000460808
-0.000538853
-0.000607041
-0.000665893
-0.000715765
-0.000756846
-0.000789135
-0.000812464
-0.000826536
-0.000830956
-0.00082522
-0.000808729
-0.000780819
-0.000740809
-0.00068803
-0.000621849
-0.000541675
-0.000446989
-0.00033738
-0.000212575
-7.24634e-05
8.28938e-05
0.000253248
0.000438149
0.000636924
0.000848669
0.00107224
0.00130625
0.00154906
0.0017988
0.00205338
0.00231048
0.00256761
0.00282217
0.00307145
0.00331269
0.00354309
0.0037599
0.0039604
0.00414202
0.00430236
0.00443928
0.00455092
0.00463573
0.00469256
0.00472061
0.00471952
0.00468935
0.00463061
0.00454421
0.00443144
0.00429398
0.0041338
0.00395317
0.00375453
0.00354052
0.00331385
0.00307727
0.00283349
0.00258516
0.00233469
0.00208429
0.00183728
0.00159664
0.00134638
0.00107118
0.00251054
0.00204425
0.00167
0.00135774
0.00107226
0.000813342
0.000581028
0.000372866
0.000186452
1.96673e-05
-0.000129462
-0.000262775
-0.000381927
-0.000488359
-0.000583318
-0.000667852
-0.000742778
-0.000808681
-0.000865961
-0.000914826
-0.000955273
-0.000987104
-0.00100998
-0.00102345
-0.00102695
-0.00101979
-0.00100121
-0.000970434
-0.000926688
-0.000869231
-0.000797359
-0.000710437
-0.000607935
-0.000489463
-0.000354801
-0.000203905
-3.69284e-05
0.000145764
0.000343572
0.000555648
0.000780889
0.00101793
0.00126513
0.0015206
0.0017822
0.00204754
0.00231405
0.00257901
0.00283957
0.00309281
0.00333577
0.00356549
0.00377904
0.00397363
0.00414663
0.00429568
0.00441867
0.00451386
0.00457986
0.0046157
0.00462083
0.00459517
0.00453908
0.00445339
0.00433932
0.00419849
0.0040329
0.0038448
0.00363673
0.00341139
0.00317162
0.0029203
0.00266034
0.00239456
0.00212558
0.00185582
0.00158893
0.00132827
0.00105655
0.000757334
0.00252467
0.00202954
0.00163295
0.00130287
0.00100173
0.00072913
0.000484965
0.000266458
7.08882e-05
-0.000104144
-0.000260866
-0.000401342
-0.000527429
-0.000640744
-0.000742673
-0.000834382
-0.000916771
-0.000990481
-0.00105594
-0.00111338
-0.00116276
-0.00120387
-0.00123631
-0.00125956
-0.00127298
-0.0012758
-0.00126716
-0.00124616
-0.00121194
-0.00116362
-0.00110038
-0.00102147
-0.000926226
-0.000814138
-0.000684864
-0.000538252
-0.000374351
-0.000193435
3.97414e-06
0.000217093
0.000444863
0.000685941
0.000938696
0.00120121
0.00147129
0.00174649
0.00202414
0.00230139
0.00257525
0.00284263
0.00310038
0.0033453
0.00357426
0.0037842
0.00397226
0.0041358
0.00427248
0.00438028
0.0044576
0.00450321
0.00451639
0.00449686
0.00444486
0.00436106
0.00424662
0.00410312
0.00393252
0.00373714
0.00351956
0.00328261
0.00302925
0.00276255
0.00248561
0.0022015
0.00191305
0.00162295
0.00133525
0.00105368
0.000759687
0.000435678
0.00249947
0.00197633
0.001558
0.00121057
0.000894123
0.000608084
0.000352183
0.000123333
-8.14912e-05
-0.000264969
-0.000429579
-0.000577605
-0.000711103
-0.000831851
-0.000941373
-0.00104094
-0.00113152
-0.00121381
-0.00128825
-0.00135507
-0.00141422
-0.00146543
-0.00150825
-0.00154208
-0.00156621
-0.00157975
-0.00158175
-0.00157119
-0.00154708
-0.00150843
-0.00145429
-0.00138376
-0.00129606
-0.00119054
-0.00106673
-0.000924357
-0.000763362
-0.000583917
-0.000386458
-0.000171696
5.93607e-05
0.000305399
0.000564795
0.000835612
0.00111561
0.00140227
0.00169283
0.0019843
0.00227354
0.00255728
0.00283216
0.00309474
0.00334163
0.00356952
0.00377526
0.00395592
0.00410887
0.00423183
0.00432289
0.00438059
0.00440395
0.00439251
0.00434631
0.00426589
0.0041523
0.00400705
0.00383211
0.00362983
0.00340286
0.00315414
0.00288681
0.00260415
0.00230948
0.00200614
0.00169724
0.00138575
0.00107618
0.000772656
0.000455344
0.00010545
0.00243203
0.00188174
0.00144234
0.00107802
0.000746643
0.000447436
0.000179957
-5.91901e-05
-0.00027333
-0.000465417
-0.000638179
-0.000794123
-0.00093549
-0.00106422
-0.00118195
-0.00129006
-0.00138959
-0.00148124
-0.0015655
-0.00164256
-0.00171235
-0.00177455
-0.00182863
-0.00187393
-0.00190963
-0.00193474
-0.00194819
-0.00194885
-0.00193558
-0.00190727
-0.00186282
-0.0018012
-0.00172148
-0.00162285
-0.00150473
-0.00136671
-0.00120859
-0.00103046
-0.000832635
-0.000615757
-0.000380772
-0.000128953
0.000138088
0.000418402
0.000709706
0.00100941
0.00131465
0.0016223
0.00192907
0.00223149
0.00252596
0.00280881
0.00307637
0.00332502
0.0035513
0.00375198
0.00392412
0.00406508
0.00417266
0.0042451
0.00428114
0.00428008
0.00424175
0.0041665
0.00405526
0.00390949
0.00373113
0.00352253
0.00328645
0.00302597
0.00274441
0.00244527
0.00213215
0.00180868
0.00147828
0.00114427
0.000811607
0.000484916
0.000142984
-0.000234226
0.00231955
0.001743
0.00128318
0.000902475
0.000556568
0.000244493
-3.43705e-05
-0.000283733
-0.000507222
-0.00070806
-0.000889226
-0.00105344
-0.00120314
-0.00134039
-0.00146697
-0.00158432
-0.00169355
-0.00179539
-0.00189032
-0.00197853
-0.0020599
-0.00213405
-0.00220037
-0.00225811
-0.00230635
-0.00234399
-0.00236984
-0.00238261
-0.00238105
-0.00236389
-0.00232989
-0.00227786
-0.00220671
-0.00211549
-0.00200345
-0.00187005
-0.00171496
-0.00153813
-0.00133979
-0.00112047
-0.000881043
-0.000622744
-0.000347155
-5.62317e-05
0.000247708
0.000562006
0.000883693
0.00120953
0.00153603
0.00185953
0.0021762
0.0024821
0.00277325
0.00304571
0.0032957
0.00351962
0.00371416
0.00387634
0.00400358
0.00409379
0.00414538
0.00415737
0.00412932
0.00406141
0.00395439
0.00380961
0.00362899
0.00341492
0.00317022
0.00289814
0.00260219
0.00228614
0.00195387
0.00160935
0.00125634
0.000898544
0.000541436
0.000190159
-0.000177965
-0.000584278
0.00215926
0.00155736
0.00107783
0.000681285
0.000321274
-3.34135e-06
-0.000293368
-0.000552843
-0.000785697
-0.000995422
-0.00118524
-0.00135809
-0.00151657
-0.0016629
-0.00179896
-0.00192629
-0.00204601
-0.0021589
-0.00226541
-0.00236573
-0.00245968
-0.00254681
-0.00262643
-0.00269769
-0.00275956
-0.00281082
-0.00285013
-0.00287607
-0.00288724
-0.0028822
-0.00285957
-0.00281798
-0.00275617
-0.00267304
-0.00256767
-0.00243936
-0.00228763
-0.00211229
-0.00191345
-0.00169152
-0.00144731
-0.00118198
-0.000897062
-0.000594521
-0.000276697
5.36927e-05
0.000393582
0.000739597
0.00108809
0.00143517
0.00177678
0.00210867
0.00242655
0.00272615
0.00300329
0.00325398
0.00347451
0.0036615
0.00381195
0.00392337
0.00399382
0.00402195
0.00400704
0.003949
0.00384842
0.00370651
0.00352513
0.00330668
0.00305409
0.00277074
0.00246039
0.00212706
0.00177497
0.00140845
0.00103166
0.000648702
0.000265621
-0.000111881
-0.000508046
-0.000945634
0.00194852
0.00132222
0.000823716
0.000411895
3.82494e-05
-0.000298556
-0.000599514
-0.000868988
-0.00111122
-0.00132997
-0.00152869
-0.00171054
-0.00187827
-0.00203426
-0.00218046
-0.0023185
-0.00244954
-0.00257437
-0.00269345
-0.0028069
-0.00291451
-0.00301575
-0.00310982
-0.00319579
-0.00327248
-0.00333857
-0.00339256
-0.00343287
-0.00345794
-0.00346617
-0.00345601
-0.00342591
-0.00337443
-0.00330028
-0.00320237
-0.00307982
-0.002932
-0.00275854
-0.00255942
-0.00233494
-0.00208578
-0.00181302
-0.00151816
-0.00120313
-0.000870281
-0.000522384
-0.000162589
0.0002056
0.000578366
0.000951611
0.001321
0.001682
0.00202999
0.00236028
0.00266832
0.00294967
0.00320018
0.00341599
0.00359364
0.00373019
0.00382325
0.00387109
0.00387263
0.00382748
0.00373598
0.0035992
0.0034189
0.0031975
0.00293799
0.00264394
0.00231931
0.00196843
0.0015959
0.00120642
0.000804608
0.000394978
-1.5781e-05
-0.000421371
-0.000847722
-0.00131916
0.00168477
0.00103507
0.000518359
9.18669e-05
-0.000294918
-0.000643545
-0.000955198
-0.00123456
-0.00148619
-0.0017141
-0.00192199
-0.00211321
-0.00229068
-0.0024569
-0.00261394
-0.00276347
-0.00290671
-0.00304444
-0.00317709
-0.00330478
-0.00342721
-0.00354376
-0.00365355
-0.00375552
-0.00384838
-0.00393064
-0.00400066
-0.00405671
-0.00409703
-0.00411987
-0.00412347
-0.00410611
-0.00406615
-0.0040021
-0.00391268
-0.0037968
-0.00365365
-0.00348272
-0.00328378
-0.003057
-0.00280295
-0.0025226
-0.00221737
-0.00188914
-0.00154028
-0.00117357
-0.000792245
-0.000399927
-5.97484e-07
0.000401433
0.000801563
0.00119495
0.0015766
0.00194144
0.00228444
0.00260071
0.00288558
0.00313468
0.003344
0.00351009
0.00363006
0.00370171
0.00372353
0.00369478
0.00361551
0.00348658
0.00330963
0.00308705
0.00282192
0.00251795
0.00217936
0.00181081
0.00141725
0.00100387
0.000575693
0.000137762
-0.000302569
-0.000738335
-0.00119734
-0.0017056
0.00136557
0.000693527
0.000159417
-0.000281127
-0.000680544
-0.00104061
-0.00136273
-0.00165188
-0.00191292
-0.00215014
-0.00236747
-0.00256845
-0.00275616
-0.00293323
-0.00310182
-0.00326366
-0.00342001
-0.00357163
-0.00371896
-0.00386205
-0.00400054
-0.00413371
-0.00426059
-0.00437998
-0.00449046
-0.00459039
-0.00467797
-0.00475128
-0.00480839
-0.00484736
-0.00486624
-0.0048631
-0.00483608
-0.0047835
-0.00470383
-0.00459579
-0.00445837
-0.00429084
-0.00409281
-0.00386428
-0.00360565
-0.00331777
-0.00300196
-0.00266005
-0.00229436
-0.00190769
-0.00150333
-0.001085
-0.000656847
-0.00022338
0.000210528
0.000639713
0.00105879
0.00146226
0.00184462
0.00220044
0.0025245
0.00281183
0.00305783
0.00325843
0.00341018
0.00351033
0.00355687
0.00354861
0.00348525
0.0033674
0.00319654
0.00297498
0.00270588
0.00239309
0.00204109
0.00165486
0.0012398
0.000801535
0.000345621
-0.000122374
-0.000594358
-0.00106263
-0.00155709
-0.0021056
0.000988579
0.000295313
-0.000255346
-0.000709306
-0.00112085
-0.00149198
-0.0018243
-0.00212314
-0.00239362
-0.00264031
-0.00286736
-0.00307849
-0.00327697
-0.00346552
-0.00364641
-0.00382142
-0.00399184
-0.00415843
-0.00432158
-0.00448132
-0.0046372
-0.00478841
-0.00493385
-0.00507219
-0.00520189
-0.00532115
-0.00542796
-0.00552025
-0.00559588
-0.00565272
-0.00568861
-0.0057014
-0.00568901
-0.00564951
-0.00558114
-0.0054824
-0.00535203
-0.0051891
-0.004993
-0.00476354
-0.00450093
-0.00420587
-0.00387957
-0.00352373
-0.00314062
-0.00273305
-0.0023043
-0.0018582
-0.00139902
-0.000931479
-0.00046071
7.79108e-06
0.000468247
0.000914698
0.00134112
0.00174152
0.00211004
0.00244105
0.00272928
0.00296998
0.00315901
0.003293
0.00336933
0.00338631
0.00334319
0.00324025
0.00307875
0.00286092
0.00258992
0.00226975
0.00190514
0.00150144
0.00106448
0.000600402
0.000115314
-0.000384636
-0.000890539
-0.00139391
-0.00192695
-0.0025196
0.000551565
-0.000161736
-0.000728056
-0.00119477
-0.00161792
-0.00199972
-0.00234202
-0.00265042
-0.00293037
-0.00318668
-0.00342373
-0.00364544
-0.00385522
-0.00405593
-0.0042499
-0.00443899
-0.00462448
-0.00480715
-0.00498737
-0.00516507
-0.00533976
-0.0055105
-0.00567609
-0.00583507
-0.00598572
-0.00612608
-0.00625399
-0.00636716
-0.00646326
-0.00653993
-0.0065948
-0.00662549
-0.00662967
-0.00660515
-0.00654993
-0.00646224
-0.00634058
-0.00618376
-0.00599095
-0.00576171
-0.00549606
-0.00519451
-0.00485809
-0.00448838
-0.00408756
-0.00365837
-0.00320411
-0.00272864
-0.00223636
-0.00173216
-0.00122144
-0.000710029
-0.000204101
0.000289902
0.000765398
0.00121577
0.00163448
0.00201517
0.00235178
0.0026388
0.00287132
0.0030452
0.00315715
0.00320483
0.00318699
0.00310347
0.00295525
0.00274441
0.00247407
0.00214839
0.00177232
0.00135158
0.000892467
0.000401691
-0.000114041
-0.000647953
-0.00119023
-0.00173155
-0.00230666
-0.00294779
5.24431e-05
-0.000679656
-0.00126071
-0.0017395
-0.0021737
-0.00256578
-0.00291778
-0.00323564
-0.00352508
-0.00379118
-0.00403853
-0.00427124
-0.00449289
-0.00470645
-0.00491432
-0.00511842
-0.00532006
-0.00551999
-0.00571854
-0.00591561
-0.0061106
-0.00630249
-0.00648992
-0.00667131
-0.00684479
-0.00700822
-0.00715925
-0.00729539
-0.0074141
-0.0075128
-0.00758888
-0.00763971
-0.00766268
-0.00765535
-0.00761544
-0.00754089
-0.00742993
-0.00728111
-0.0070933
-0.00686583
-0.00659845
-0.00629146
-0.00594568
-0.00556252
-0.00514402
-0.00469282
-0.00421217
-0.00370597
-0.00317868
-0.00263537
-0.00208167
-0.00152372
-0.000968112
-0.000421793
0.000108073
0.0006142
0.00108929
0.00152617
0.00191795
0.0022582
0.00254114
0.00276177
0.00291597
0.00300066
0.00301393
0.00295514
0.00282485
0.00262492
0.00235842
0.00202957
0.00164356
0.0012065
0.000725188
0.000206918
-0.000340944
-0.00091092
-0.00149222
-0.00207459
-0.00269561
-0.00339005
-0.000510716
-0.00126032
-0.00185514
-0.00234527
-0.00278997
-0.0031919
-0.00355333
-0.00388052
-0.00417948
-0.00445553
-0.00471349
-0.00495766
-0.00519177
-0.00541888
-0.00564151
-0.0058616
-0.00608048
-0.0062989
-0.00651714
-0.00673504
-0.00695191
-0.00716662
-0.0073777
-0.00758341
-0.00778173
-0.00797034
-0.0081467
-0.0083081
-0.00845179
-0.00857494
-0.0086747
-0.00874817
-0.00879247
-0.00880486
-0.00878275
-0.0087238
-0.00862593
-0.00848736
-0.00830668
-0.00808292
-0.00781556
-0.0075046
-0.00715064
-0.00675487
-0.00631911
-0.00584587
-0.00533832
-0.00480031
-0.00423636
-0.00365166
-0.00305204
-0.00244397
-0.00183444
-0.0012309
-0.000641123
-7.31239e-05
0.000464991
0.000965152
0.00141951
0.00182064
0.00216176
0.00243684
0.00264081
0.00276973
0.00282089
0.002793
0.00268614
0.00250183
0.00224301
0.00191393
0.00152
0.0010677
0.00056436
1.79269e-05
-0.000563533
-0.00117176
-0.00179491
-0.00242167
-0.0030928
-0.00384587
-0.00113966
-0.00190541
-0.00251299
-0.00301372
-0.0034683
-0.00387964
-0.00425023
-0.00458662
-0.00489512
-0.00518129
-0.00545018
-0.00570627
-0.00595343
-0.00619485
-0.0064331
-0.00667018
-0.00690745
-0.00714562
-0.00738494
-0.00762519
-0.0078656
-0.00810491
-0.00834153
-0.00857358
-0.00879888
-0.00901494
-0.00921899
-0.00940814
-0.00957937
-0.00972964
-0.00985582
-0.00995472
-0.0100232
-0.0100582
-0.0100567
-0.0100162
-0.00993418
-0.00980855
-0.00963758
-0.00941994
-0.00915479
-0.00884183
-0.00848135
-0.00807425
-0.00762212
-0.00712726
-0.00659269
-0.00602218
-0.00542023
-0.00479212
-0.00414386
-0.0034822
-0.00281451
-0.00214874
-0.00149333
-0.000857029
-0.000248825
0.000322238
0.00084725
0.00131767
0.00172555
0.00206372
0.002326
0.00250737
0.00260421
0.00261441
0.00253743
0.00237435
0.00212786
0.00180217
0.0014029
0.000936883
0.000412009
-0.00016308
-0.000779543
-0.00142828
-0.00209626
-0.00277101
-0.0034968
-0.00431431
-0.00183596
-0.00261643
-0.00323571
-0.00374625
-0.00421009
-0.00463039
-0.00500984
-0.0053553
-0.00567336
-0.00596983
-0.00624998
-0.00651845
-0.00677926
-0.00703572
-0.00729049
-0.00754559
-0.0078024
-0.00806162
-0.00832346
-0.00858763
-0.00885327
-0.00911903
-0.00938318
-0.0096437
-0.00989824
-0.0101441
-0.0103784