/*--------------------------------*- C++ -*----------------------------------*\
| =========                 |                                                 |
| \\      /  F ield         | OpenFOAM: The Open Source CFD Toolbox           |
|  \\    /   O peration     | Version:  2506                                  |
|   \\  /    A nd           | Website:  www.openfoam.com                      |
|    \\/     M anipulation  |                                                 |
\*---------------------------------------------------------------------------*/
FoamFile
{
    version     2.0;
    format      ascii;
    arch        "LSB;label=32;scalar=64";
    class       surfaceScalarField;
    location    "0.975";
    object      phi;
}
// * * * * * * * * * * * * * * * * * * * * * * * * * * * * * * * * * * * * * //

dimensions      [0 3 -1 0 0 0 0];

oriented        oriented;

internalField   nonuniform List<scalar> 
12640
(
1.89465e-10
-1.89632e-10
5.35258e-10
-3.45796e-10
8.35862e-10
-3.00599e-10
9.67786e-10
-1.31914e-10
8.75328e-10
9.24597e-11
5.36992e-10
3.38336e-10
-4.87354e-11
5.85727e-10
-8.72014e-10
8.23276e-10
-1.91697e-09
1.04496e-09
-3.16433e-09
1.24735e-09
-4.59323e-09
1.4289e-09
-6.18243e-09
1.5892e-09
-7.91098e-09
1.72854e-09
-9.7586e-09
1.84762e-09
-1.1706e-08
1.94735e-09
-1.37347e-08
2.02877e-09
-1.58277e-08
2.09296e-09
-1.79686e-08
2.14094e-09
-2.01423e-08
2.17369e-09
-2.23344e-08
2.19206e-09
-2.45312e-08
2.1968e-09
-2.67197e-08
2.18855e-09
-2.88876e-08
2.16786e-09
-3.10227e-08
2.13517e-09
-3.31135e-08
2.09082e-09
-3.51486e-08
2.03507e-09
-3.71167e-08
1.96811e-09
-3.90068e-08
1.89011e-09
-4.0808e-08
1.80122e-09
-4.25096e-08
1.70156e-09
-4.41009e-08
1.59129e-09
-4.55715e-08
1.47059e-09
-4.69112e-08
1.33969e-09
-4.811e-08
1.19886e-09
-4.91585e-08
1.0485e-09
-5.00476e-08
8.89064e-10
-5.07687e-08
7.21132e-10
-5.13141e-08
5.45406e-10
-5.16768e-08
3.62709e-10
-5.18508e-08
1.73994e-10
-5.18312e-08
-1.96491e-11
-5.16142e-08
-2.17e-10
-5.11975e-08
-4.16707e-10
-5.05802e-08
-6.17289e-10
-4.9763e-08
-8.17161e-10
-4.87484e-08
-1.01463e-09
-4.75405e-08
-1.20793e-09
-4.61452e-08
-1.39523e-09
-4.45706e-08
-1.57463e-09
-4.28264e-08
-1.74423e-09
-4.09243e-08
-1.90212e-09
-3.88778e-08
-2.04643e-09
-3.67025e-08
-2.17536e-09
-3.44153e-08
-2.28719e-09
-3.20349e-08
-2.38034e-09
-2.95816e-08
-2.45337e-09
-2.70765e-08
-2.505e-09
-2.45423e-08
-2.5342e-09
-2.20022e-08
-2.54012e-09
-1.94801e-08
-2.52215e-09
-1.70001e-08
-2.47998e-09
-1.45865e-08
-2.41356e-09
-1.22634e-08
-2.32311e-09
-1.00542e-08
-2.20918e-09
-7.98162e-09
-2.07263e-09
-6.06697e-09
-1.91465e-09
-4.33022e-09
-1.73675e-09
-2.78941e-09
-1.54081e-09
-1.46032e-09
-1.32908e-09
-3.56034e-10
-1.10429e-09
5.13695e-10
-8.69726e-10
1.14315e-09
-6.2945e-10
1.53174e-09
-3.8859e-10
1.68574e-09
-1.54001e-10
1.62084e-09
6.48938e-11
1.36644e-09
2.5439e-10
9.72217e-10
3.94214e-10
5.19298e-10
4.52927e-10
1.38388e-10
3.8091e-10
1.38383e-10
3.58635e-10
-5.48276e-10
8.42004e-10
-8.29132e-10
1.11415e-09
-5.72739e-10
9.67311e-10
1.49444e-11
2.76831e-10
7.82947e-10
-1.01759e-09
1.63276e-09
-2.93224e-09
2.50038e-09
-5.45474e-09
3.34577e-09
-8.55418e-09
4.14439e-09
-1.21884e-08
4.88159e-09
-1.63088e-08
5.54929e-09
-2.08634e-08
6.14379e-09
-2.57992e-08
6.66431e-09
-3.10635e-08
7.1119e-09
-3.66049e-08
7.48879e-09
-4.2374e-08
7.79784e-09
-4.83233e-08
8.04227e-09
-5.44077e-08
8.22531e-09
-6.05841e-08
8.3501e-09
-6.68115e-08
8.41952e-09
-7.30509e-08
8.43619e-09
-7.92647e-08
8.40239e-09
-8.54169e-08
8.32007e-09
-9.14726e-08
8.19087e-09
-9.73979e-08
8.01612e-09
-1.0316e-07
7.79692e-09
-1.08726e-07
7.53418e-09
-1.14064e-07
7.22866e-09
-1.19144e-07
6.88108e-09
-1.23935e-07
6.49215e-09
-1.28406e-07
6.06265e-09
-1.32529e-07
5.59348e-09
-1.36275e-07
5.08572e-09
-1.39617e-07
4.54071e-09
-1.42529e-07
3.96008e-09
-1.44985e-07
3.34581e-09
-1.46964e-07
2.70029e-09
-1.48445e-07
2.02632e-09
-1.4941e-07
1.32715e-09
-1.49842e-07
6.06494e-10
-1.4973e-07
-1.3145e-10
-1.49065e-07
-8.82018e-10
-1.47842e-07
-1.64009e-09
-1.46059e-07
-2.40011e-09
-1.4372e-07
-3.15613e-09
-1.40833e-07
-3.90186e-09
-1.3741e-07
-4.63075e-09
-1.33469e-07
-5.33599e-09
-1.29033e-07
-6.01067e-09
-1.2413e-07
-6.64779e-09
-1.18792e-07
-7.2404e-09
-1.13056e-07
-7.78168e-09
-1.06967e-07
-8.26507e-09
-1.00569e-07
-8.68433e-09
-9.39161e-08
-9.03372e-09
-8.70614e-08
-9.30802e-09
-8.00637e-08
-9.50268e-09
-7.29841e-08
-9.61387e-09
-6.58856e-08
-9.63862e-09
-5.88329e-08
-9.57485e-09
-5.18914e-08
-9.42146e-09
-4.51266e-08
-9.17839e-09
-3.8603e-08
-8.84667e-09
-3.23837e-08
-8.4285e-09
-2.65291e-08
-7.92726e-09
-2.10961e-08
-7.34759e-09
-1.61374e-08
-6.69544e-09
-1.17001e-08
-5.97818e-09
-7.82441e-09
-5.20475e-09
-4.54275e-09
-4.38593e-09
-1.87772e-09
-3.53475e-09
1.59988e-10
-2.66716e-09
1.57446e-09
-1.80307e-09
2.38828e-09
-9.67819e-10
2.64803e-09
-1.9487e-10
2.43158e-09
4.70835e-10
1.85769e-09
9.68119e-10
1.09699e-09
1.21362e-09
3.79356e-10
1.09854e-09
5.17762e-10
3.09355e-10
-8.57628e-10
5.92853e-10
-1.11262e-09
4.62088e-10
-4.41967e-10
-3.26043e-10
8.03079e-10
-1.92361e-09
2.38052e-09
-4.41028e-09
4.11943e-09
-7.81206e-09
5.90216e-09
-1.21165e-08
7.65025e-09
-1.72847e-08
9.31252e-09
-2.32597e-08
1.08566e-08
-2.99735e-08
1.22631e-08
-3.73516e-08
1.35219e-08
-4.53163e-08
1.4629e-08
-5.37891e-08
1.55847e-08
-6.26923e-08
1.63919e-08
-7.19498e-08
1.70554e-08
-8.14883e-08
1.75808e-08
-9.1237e-08
1.7974e-08
-1.01128e-07
1.82411e-08
-1.11096e-07
1.83876e-08
-1.21079e-07
1.84188e-08
-1.31015e-07
1.83392e-08
-1.40848e-07
1.8153e-08
-1.50521e-07
1.78635e-08
-1.59979e-07
1.74738e-08
-1.69168e-07
1.69863e-08
-1.78037e-07
1.64031e-08
-1.86534e-07
1.57262e-08
-1.94611e-07
1.49573e-08
-2.02217e-07
1.40983e-08
-2.09305e-07
1.31512e-08
-2.1583e-07
1.21183e-08
-2.21747e-07
1.10022e-08
-2.27012e-07
9.80626e-09
-2.31586e-07
8.53423e-09
-2.35431e-07
7.19075e-09
-2.38512e-07
5.78122e-09
-2.40798e-07
4.31195e-09
-2.42261e-07
2.79016e-09
-2.42879e-07
1.22405e-09
-2.42633e-07
-3.77229e-10
-2.41511e-07
-2.00355e-09
-2.39507e-07
-3.64385e-09
-2.36621e-07
-5.28624e-09
-2.32859e-07
-6.91798e-09
-2.28236e-07
-8.52569e-09
-2.22771e-07
-1.00954e-08
-2.16494e-07
-1.16128e-08
-2.09442e-07
-1.30632e-08
-2.01657e-07
-1.44319e-08
-1.93194e-07
-1.57043e-08
-1.84109e-07
-1.68661e-08
-1.74471e-07
-1.79034e-08
-1.64352e-07
-1.88034e-08
-1.53831e-07
-1.9554e-08
-1.42995e-07
-2.01442e-08
-1.31933e-07
-2.05647e-08
-1.2074e-07
-2.08074e-08
-1.09512e-07
-2.08663e-08
-9.83497e-08
-2.07371e-08
-8.73534e-08
-2.04178e-08
-7.66235e-08
-1.99083e-08
-6.6259e-08
-1.92111e-08
-5.63563e-08
-1.83312e-08
-4.70075e-08
-1.7276e-08
-3.82993e-08
-1.60558e-08
-3.03112e-08
-1.46836e-08
-2.31137e-08
-1.31756e-08
-1.6767e-08
-1.15515e-08
-1.1318e-08
-9.8349e-09
-6.79846e-09
-8.0543e-09
-3.22154e-09
-6.24408e-09
-5.78198e-10
-4.4464e-09
1.16771e-09
-2.71373e-09
2.08539e-09
-1.11256e-09
2.28446e-09
2.71778e-10
1.92356e-09
1.32904e-09
1.21898e-09
1.91819e-09
4.52305e-10
1.86525e-09
9.70079e-10
1.43325e-10
-1.00094e-09
5.36453e-12
-9.74636e-10
-7.85746e-10
3.49146e-10
-2.47377e-09
2.49111e-09
-5.21258e-09
5.11934e-09
-9.08467e-09
7.99151e-09
-1.41167e-08
1.09342e-08
-2.02933e-08
1.38268e-08
-2.7568e-08
1.65873e-08
-3.58729e-08
1.91615e-08
-4.51252e-08
2.15154e-08
-5.52329e-08
2.36296e-08
-6.60988e-08
2.54949e-08
-7.76235e-08
2.71094e-08
-8.97074e-08
2.84758e-08
-1.02252e-07
2.96002e-08
-1.15162e-07
3.04906e-08
-1.28344e-07
3.11558e-08
-1.41707e-07
3.16046e-08
-1.55166e-07
3.1846e-08
-1.68635e-07
3.1888e-08
-1.82034e-07
3.17383e-08
-1.95284e-07
3.14033e-08
-2.0831e-07
3.08889e-08
-2.21036e-07
3.02001e-08
-2.33391e-07
2.93414e-08
-2.45305e-07
2.83166e-08
-2.56708e-07
2.71293e-08
-2.67533e-07
2.5783e-08
-2.77716e-07
2.42813e-08
-2.87193e-07
2.2628e-08
-2.95902e-07
2.08276e-08
-3.03785e-07
1.88851e-08
-3.10786e-07
1.68065e-08
-3.1685e-07
1.4599e-08
-3.2193e-07
1.22709e-08
-3.25981e-07
9.83173e-09
-3.28962e-07
7.29277e-09
-3.30838e-07
4.66665e-09
-3.31582e-07
1.96761e-09
-3.31171e-07
-7.88501e-10
-3.2959e-07
-3.5843e-09
-3.26833e-07
-6.40087e-09
-3.22901e-07
-9.21792e-09
-3.17805e-07
-1.20139e-08
-3.11565e-07
-1.47661e-08
-3.04209e-07
-1.7451e-08
-2.95778e-07
-2.00444e-08
-2.86319e-07
-2.25217e-08
-2.75893e-07
-2.48582e-08
-2.64568e-07
-2.70296e-08
-2.52422e-07
-2.90118e-08
-2.39543e-07
-3.0782e-08
-2.26028e-07
-3.23184e-08
-2.11981e-07
-3.3601e-08
-1.97514e-07
-3.46117e-08
-1.82744e-07
-3.53349e-08
-1.67794e-07
-3.57573e-08
-1.52791e-07
-3.58691e-08
-1.37865e-07
-3.56632e-08
-1.23146e-07
-3.51364e-08
-1.08766e-07
-3.42891e-08
-9.48509e-08
-3.31258e-08
-8.1527e-08
-3.16551e-08
-6.89129e-08
-2.98901e-08
-5.71202e-08
-2.78485e-08
-4.6251e-08
-2.55528e-08
-3.63954e-08
-2.30312e-08
-2.76295e-08
-2.03173e-08
-2.00126e-08
-1.74518e-08
-1.35837e-08
-1.44832e-08
-8.35857e-09
-1.14692e-08
-4.3251e-09
-8.47986e-09
-1.43875e-09
-5.60009e-09
3.83257e-10
-2.93456e-09
1.26831e-09
-6.13246e-10
1.39562e-09
1.20172e-09
1.00392e-09
2.3099e-09
4.01432e-10
2.46776e-09
1.3715e-09
-8.40493e-11
-9.16893e-10
-7.81104e-10
-2.77569e-10
-2.40874e-09
1.97679e-09
-5.18241e-09
5.26478e-09
-9.23875e-09
9.17569e-09
-1.46492e-08
1.34019e-08
-2.14321e-08
1.77171e-08
-2.95642e-08
2.19589e-08
-3.89903e-08
2.60133e-08
-4.96314e-08
2.98026e-08
-6.13922e-08
3.32763e-08
-7.41662e-08
3.64036e-08
-8.784e-08
3.91687e-08
-1.02297e-07
4.1566e-08
-1.17418e-07
4.35975e-08
-1.33088e-07
4.52697e-08
-1.4919e-07
4.65925e-08
-1.65611e-07
4.75774e-08
-1.82243e-07
4.82363e-08
-1.98978e-07
4.85813e-08
-2.15714e-07
4.86237e-08
-2.3235e-07
4.83743e-08
-2.48789e-07
4.78425e-08
-2.64937e-07
4.70368e-08
-2.80702e-07
4.5965e-08
-2.95994e-07
4.46336e-08
-3.10727e-07
4.3049e-08
-3.24814e-07
4.12169e-08
-3.38174e-07
3.9143e-08
-3.50726e-07
3.68334e-08
-3.62393e-07
3.42944e-08
-3.73099e-07
3.15333e-08
-3.82772e-07
2.85585e-08
-3.91345e-07
2.53797e-08
-3.98754e-07
2.20082e-08
-4.0494e-07
1.8457e-08
-4.0985e-07
1.47414e-08
-4.13436e-07
1.08786e-08
-4.15657e-07
6.88801e-09
-4.16481e-07
2.79146e-09
-4.15883e-07
-1.387e-09
-4.13846e-07
-5.62106e-09
-4.10365e-07
-9.88225e-09
-4.05442e-07
-1.41401e-08
-3.99094e-07
-1.83624e-08
-3.91345e-07
-2.25153e-08
-3.82232e-07
-2.65638e-08
-3.71804e-07
-3.04719e-08
-3.60123e-07
-3.42031e-08
-3.4726e-07
-3.77211e-08
-3.333e-07
-4.09896e-08
-3.18338e-07
-4.39735e-08
-3.02481e-07
-4.66388e-08
-2.85846e-07
-4.89538e-08
-2.68558e-07
-5.08888e-08
-2.50752e-07
-5.24174e-08
-2.32571e-07
-5.35166e-08
-2.14161e-07
-5.41672e-08
-1.95675e-07
-5.43545e-08
-1.7727e-07
-5.40689e-08
-1.59101e-07
-5.33056e-08
-1.41324e-07
-5.20657e-08
-1.24094e-07
-5.03562e-08
-1.07558e-07
-4.81903e-08
-9.18605e-08
-4.55881e-08
-7.71327e-08
-4.25763e-08
-6.34964e-08
-3.91891e-08
-5.10586e-08
-3.54689e-08
-3.99094e-08
-3.14665e-08
-3.01187e-08
-2.72426e-08
-2.17327e-08
-2.28691e-08
-1.47708e-08
-1.84311e-08
-9.2209e-09
-1.40298e-08
-5.03498e-09
-9.786e-09
-2.12444e-09
-5.84508e-09
-3.54594e-10
-2.3831e-09
4.6124e-10
3.85887e-10
5.68139e-10
2.20302e-09
2.7891e-10
2.75698e-09
1.6504e-09
-3.40392e-10
-5.76501e-10
-1.6785e-09
1.06055e-09
-4.25682e-09
4.55511e-09
-8.24425e-09
9.25222e-09
-1.37458e-08
1.46773e-08
-2.08107e-08
2.04668e-08
-2.94409e-08
2.63473e-08
-3.95998e-08
3.21178e-08
-5.12201e-08
3.76337e-08
-6.42113e-08
4.27938e-08
-7.84654e-08
4.75304e-08
-9.38626e-08
5.18008e-08
-1.10275e-07
5.55815e-08
-1.27572e-07
5.88625e-08
-1.45618e-07
6.16438e-08
-1.64281e-07
6.39323e-08
-1.83427e-07
6.57391e-08
-2.02928e-07
6.7078e-08
-2.22656e-07
6.7964e-08
-2.42487e-07
6.84122e-08
-2.623e-07
6.84375e-08
-2.8198e-07
6.80536e-08
-3.01411e-07
6.72733e-08
-3.20482e-07
6.61083e-08
-3.39086e-07
6.45689e-08
-3.57117e-07
6.26648e-08
-3.74473e-07
6.04048e-08
-3.91054e-07
5.77976e-08
-4.06762e-07
5.48516e-08
-4.21505e-07
5.15758e-08
-4.3519e-07
4.79801e-08
-4.47732e-07
4.40751e-08
-4.59047e-07
3.98735e-08
-4.69057e-07
3.53894e-08
-4.77688e-07
3.06394e-08
-4.84873e-07
2.56425e-08
-4.90552e-07
2.04203e-08
-4.94671e-07
1.49974e-08
-4.97184e-07
9.40129e-09
-4.98056e-07
3.66268e-09
-4.97258e-07
-2.18477e-09
-4.94775e-07
-8.10436e-09
-4.906e-07
-1.40566e-08
-4.84741e-07
-1.99992e-08
-4.77216e-07
-2.58877e-08
-4.68056e-07
-3.16756e-08
-4.57305e-07
-3.73146e-08
-4.45021e-07
-4.27554e-08
-4.31276e-07
-4.79482e-08
-4.16154e-07
-5.28429e-08
-3.99754e-07
-5.73903e-08
-3.82185e-07
-6.15423e-08
-3.63571e-07
-6.52528e-08
-3.44046e-07
-6.84783e-08
-3.23756e-07
-7.11786e-08
-3.02856e-07
-7.33179e-08
-2.81508e-07
-7.48648e-08
-2.59881e-07
-7.57935e-08
-2.38152e-07
-7.60842e-08
-2.16497e-07
-7.57237e-08
-1.95096e-07
-7.47063e-08
-1.74128e-07
-7.30337e-08
-1.53768e-07
-7.0716e-08
-1.34187e-07
-6.77717e-08
-1.15546e-07
-6.42288e-08
-9.79978e-08
-6.01247e-08
-8.16801e-08
-5.55068e-08
-6.67152e-08
-5.04338e-08
-5.3206e-08
-4.49758e-08
-4.12326e-08
-3.9216e-08
-3.08492e-08
-3.32525e-08
-2.20802e-08
-2.72001e-08
-1.49167e-08
-2.11933e-08
-9.312e-09
-1.53907e-08
-5.17784e-09
-9.97924e-09
-2.38019e-09
-5.18077e-09
-7.34759e-10
-1.25953e-09
-2.43948e-12
1.47072e-09
1.17127e-10
2.63741e-09
1.76754e-09
-6.08615e-10
3.21142e-11
-2.63187e-09
3.08381e-09
-6.23011e-09
8.15336e-09
-1.15149e-08
1.4537e-08
-1.85497e-08
2.17121e-08
-2.73529e-08
2.927e-08
-3.79031e-08
3.68975e-08
-5.01452e-08
4.43599e-08
-6.39964e-08
5.14849e-08
-7.93523e-08
5.81497e-08
-9.60918e-08
6.42699e-08
-1.14082e-07
6.9791e-08
-1.33182e-07
7.46816e-08
-1.53246e-07
7.89268e-08
-1.74127e-07
8.25244e-08
-1.95676e-07
8.5481e-08
-2.17745e-07
8.78087e-08
-2.40191e-07
8.95234e-08
-2.6287e-07
9.06428e-08
-2.85643e-07
9.11853e-08
-3.08374e-07
9.11687e-08
-3.30931e-07
9.06105e-08
-3.53184e-07
8.95267e-08
-3.75008e-07
8.79321e-08
-3.96279e-07
8.58404e-08
-4.16879e-07
8.32643e-08
-4.3669e-07
8.0216e-08
-4.556e-07
7.67071e-08
-4.73498e-07
7.27497e-08
-4.90278e-07
6.83564e-08
-5.05839e-07
6.35407e-08
-5.20082e-07
5.83179e-08
-5.32914e-07
5.27054e-08
-5.44247e-07
4.67229e-08
-5.54001e-07
4.0393e-08
-5.621e-07
3.37414e-08
-5.68477e-07
2.67976e-08
-5.73074e-07
1.95943e-08
-5.75841e-07
1.21685e-08
-5.76739e-07
4.56081e-09
-5.7574e-07
-3.18419e-09
-5.72826e-07
-1.10181e-08
-5.67994e-07
-1.88891e-08
-5.61251e-07
-2.67418e-08
-5.52621e-07
-3.4518e-08
-5.4214e-07
-4.21569e-08
-5.29858e-07
-4.9596e-08
-5.15843e-07
-5.6771e-08
-5.00174e-07
-6.36172e-08
-4.82947e-07
-7.00698e-08
-4.64272e-07
-7.60651e-08
-4.44273e-07
-8.15408e-08
-4.23089e-07
-8.64372e-08
-4.00869e-07
-9.06983e-08
-3.77775e-07
-9.42722e-08
-3.53981e-07
-9.71126e-08
-3.29666e-07
-9.91792e-08
-3.05021e-07
-1.00439e-07
-2.80239e-07
-1.00866e-07
-2.55519e-07
-1.00444e-07
-2.3106e-07
-9.91653e-08
-2.07061e-07
-9.70332e-08
-1.83716e-07
-9.40607e-08
-1.61215e-07
-9.02727e-08
-1.39738e-07
-8.57056e-08
-1.19454e-07
-8.04086e-08
-1.00517e-07
-7.4444e-08
-8.30631e-08
-6.78879e-08
-6.72073e-08
-6.08316e-08
-5.30405e-08
-5.33828e-08
-4.06258e-08
-4.56672e-08
-2.99948e-08
-3.7831e-08
-2.11447e-08
-3.00435e-08
-1.4034e-08
-2.25014e-08
-8.58014e-09
-1.54331e-08
-4.65584e-09
-9.10506e-09
-2.08661e-09
-3.82873e-09
-6.48197e-10
3.2298e-11
-6.39683e-11
2.05318e-09
1.70358e-09
-8.79255e-10
9.11368e-10
-3.60795e-09
5.81251e-09
-8.264e-09
1.28094e-08
-1.48967e-08
2.11697e-08
-2.35213e-08
3.03367e-08
-3.41194e-08
3.98681e-08
-4.66406e-08
4.94188e-08
-6.10069e-08
5.87262e-08
-7.71166e-08
6.75946e-08
-9.48489e-08
7.5882e-08
-1.14068e-07
8.34892e-08
-1.34628e-07
9.03509e-08
-1.56375e-07
9.6428e-08
-1.79149e-07
1.01701e-07
-2.0279e-07
1.06166e-07
-2.27137e-07
1.09828e-07
-2.52029e-07
1.127e-07
-2.77307e-07
1.14801e-07
-3.02815e-07
1.16151e-07
-3.284e-07
1.1677e-07
-3.53912e-07
1.16681e-07
-3.79206e-07
1.15904e-07
-4.04137e-07
1.14458e-07
-4.28567e-07
1.12362e-07
-4.52359e-07
1.09633e-07
-4.75382e-07
1.06287e-07
-4.97505e-07
1.02339e-07
-5.18604e-07
9.78064e-08
-5.38558e-07
9.27033e-08
-5.57249e-07
8.70471e-08
-5.74564e-07
8.08559e-08
-5.90396e-07
7.41501e-08
-6.04643e-07
6.69525e-08
-6.17209e-07
5.92892e-08
-6.28006e-07
5.11896e-08
-6.36952e-07
4.26874e-08
-6.43975e-07
3.38204e-08
-6.49011e-07
2.46309e-08
-6.52009e-07
1.51659e-08
-6.52925e-07
5.47744e-09
-6.51732e-07
-4.37805e-09
-6.4841e-07
-1.43394e-08
-6.42958e-07
-2.4341e-08
-6.35387e-07
-3.43134e-08
-6.25721e-07
-4.41834e-08
-6.14003e-07
-5.38749e-08
-6.0029e-07
-6.33095e-08
-5.84654e-07
-7.24071e-08
-5.67184e-07
-8.10867e-08
-5.47986e-07
-8.92677e-08
-5.27181e-07
-9.68705e-08
-5.04904e-07
-1.03818e-07
-4.81306e-07
-1.10035e-07
-4.56552e-07
-1.15452e-07
-4.30818e-07
-1.20006e-07
-4.04293e-07
-1.23638e-07
-3.77174e-07
-1.26298e-07
-3.49668e-07
-1.27945e-07
-3.21987e-07
-1.28547e-07
-2.94346e-07
-1.28085e-07
-2.66963e-07
-1.26548e-07
-2.40055e-07
-1.23941e-07
-2.13834e-07
-1.20281e-07
-1.88507e-07
-1.15599e-07
-1.64272e-07
-1.09941e-07
-1.41312e-07
-1.03368e-07
-1.19797e-07
-9.59589e-08
-9.98771e-08
-8.78079e-08
-8.16797e-08
-7.90291e-08
-6.5307e-08
-6.97555e-08
-5.08323e-08
-6.01419e-08
-3.82966e-08
-5.03666e-08
-2.77057e-08
-4.06344e-08
-1.90271e-08
-3.118e-08
-1.21877e-08
-2.22725e-08
-7.07196e-09
-1.42208e-08
-3.5204e-09
-7.38028e-09
-1.32948e-09
-2.15863e-09
-2.52138e-10
9.75853e-10
1.45143e-09
-1.14764e-09
2.05901e-09
-4.5871e-09
9.25197e-09
-1.03175e-08
1.85398e-08
-1.83241e-08
2.91764e-08
-2.8571e-08
4.05836e-08
-4.09983e-08
5.22954e-08
-5.55228e-08
6.39433e-08
-7.20397e-08
7.5243e-08
-9.04252e-08
8.59801e-08
-1.1054e-07
9.59968e-08
-1.32233e-07
1.05182e-07
-1.55342e-07
1.1346e-07
-1.797e-07
1.20787e-07
-2.05137e-07
1.27138e-07
-2.31478e-07
1.32507e-07
-2.58549e-07
1.36899e-07
-2.86178e-07
1.4033e-07
-3.14194e-07
1.42817e-07
-3.42429e-07
1.44385e-07
-3.70716e-07
1.45057e-07
-3.98893e-07
1.44859e-07
-4.26803e-07
1.43813e-07
-4.54289e-07
1.41944e-07
-4.81201e-07
1.39273e-07
-5.0739e-07
1.35822e-07
-5.32712e-07
1.31609e-07
-5.57027e-07
1.26655e-07
-5.80199e-07
1.20978e-07
-6.02096e-07
1.14601e-07
-6.22592e-07
1.07542e-07
-6.41563e-07
9.98274e-08
-6.58895e-07
9.14815e-08
-6.74476e-07
8.25339e-08
-6.88204e-07
7.30175e-08
-6.99984e-07
6.29696e-08
-7.09729e-07
5.24323e-08
-7.17362e-07
4.14529e-08
-7.22815e-07
3.00839e-08
-7.26032e-07
1.83836e-08
-7.26971e-07
6.41599e-09
-7.256e-07
-5.74944e-09
-7.21901e-07
-1.80377e-08
-7.15874e-07
-3.03687e-08
-7.07529e-07
-4.26575e-08
-6.96898e-07
-5.48151e-08
-6.84024e-07
-6.6749e-08
-6.68969e-07
-7.83637e-08
-6.51814e-07
-8.95622e-08
-6.32655e-07
-1.00246e-07
-6.11604e-07
-1.10319e-07
-5.88792e-07
-1.19682e-07
-5.64366e-07
-1.28244e-07
-5.38487e-07
-1.35913e-07
-5.11333e-07
-1.42607e-07
-4.83093e-07
-1.48246e-07
-4.5397e-07
-1.52761e-07
-4.24177e-07
-1.56091e-07
-3.93935e-07
-1.58187e-07
-3.63472e-07
-1.5901e-07
-3.3302e-07
-1.58536e-07
-3.02814e-07
-1.56754e-07
-2.73087e-07
-1.53669e-07
-2.44068e-07
-1.493e-07
-2.15981e-07
-1.43686e-07
-1.89039e-07
-1.36883e-07
-1.63442e-07
-1.28965e-07
-1.39374e-07
-1.20027e-07
-1.16998e-07
-1.10184e-07
-9.64564e-08
-9.95709e-08
-7.7863e-08
-8.83489e-08
-6.1303e-08
-7.67019e-08
-4.68288e-08
-6.48409e-08
-3.44572e-08
-5.3006e-08
-2.41676e-08
-4.14696e-08
-1.58997e-08
-3.05404e-08
-9.55296e-09
-2.05675e-08
-4.98659e-09
-1.19467e-08
-2.02076e-09
-5.12446e-09
-4.40142e-10
-6.04769e-10
1.01128e-09
-1.4113e-09
3.47031e-09
-5.55794e-09
1.33986e-08
-1.23649e-08
2.53467e-08
-2.17543e-08
3.85658e-08
-3.36372e-08
5.24666e-08
-4.79103e-08
6.65685e-08
-6.44543e-08
8.04873e-08
-8.31349e-08
9.39236e-08
-1.03804e-07
1.06649e-07
-1.26301e-07
1.18494e-07
-1.50457e-07
1.29338e-07
-1.76096e-07
1.39099e-07
-2.03035e-07
1.47726e-07
-2.31092e-07
1.55194e-07
-2.6008e-07
1.61494e-07
-2.89813e-07
1.66633e-07
-3.20108e-07
1.70624e-07
-3.50782e-07
1.73491e-07
-3.81654e-07
1.75258e-07
-4.1255e-07
1.75953e-07
-4.43294e-07
1.75603e-07
-4.73718e-07
1.74237e-07
-5.03656e-07
1.71882e-07
-5.32944e-07
1.68562e-07
-5.61425e-07
1.64302e-07
-5.88944e-07
1.59128e-07
-6.1535e-07
1.53061e-07
-6.40499e-07
1.46127e-07
-6.64249e-07
1.3835e-07
-6.86464e-07
1.29757e-07
-7.07013e-07
1.20377e-07
-7.25774e-07
1.10242e-07
-7.42628e-07
9.93881e-08
-7.57467e-07
8.7856e-08
-7.70188e-07
7.56912e-08
-7.80701e-07
6.29452e-08
-7.88923e-07
4.96752e-08
-7.94785e-07
3.5945e-08
-7.98226e-07
2.18249e-08
-7.99201e-07
7.39154e-09
-7.97679e-07
-7.27163e-09
-7.93642e-07
-2.2075e-08
-7.87088e-07
-3.69229e-08
-7.78031e-07
-5.17144e-08
-7.66502e-07
-6.63434e-08
-7.52551e-07
-8.07001e-08
-7.36244e-07
-9.46714e-08
-7.17664e-07
-1.08142e-07
-6.96914e-07
-1.20996e-07
-6.74116e-07
-1.33117e-07
-6.49407e-07
-1.44391e-07
-6.22943e-07
-1.54708e-07
-5.94895e-07
-1.63961e-07
-5.65453e-07
-1.72049e-07
-5.34817e-07
-1.78882e-07
-5.03202e-07
-1.84375e-07
-4.70836e-07
-1.88457e-07
-4.37954e-07
-1.91069e-07
-4.04798e-07
-1.92166e-07
-3.71616e-07
-1.91718e-07
-3.38659e-07
-1.89712e-07
-3.06175e-07
-1.86152e-07
-2.74411e-07
-1.81064e-07
-2.43604e-07
-1.74492e-07
-2.13986e-07
-1.66502e-07
-1.8577e-07
-1.57181e-07
-1.59157e-07
-1.46641e-07
-1.34324e-07
-1.35016e-07
-1.11427e-07
-1.22467e-07
-9.05954e-08
-1.09181e-07
-7.1926e-08
-9.53713e-08
-5.54849e-08
-8.1282e-08
-4.13025e-08
-6.71884e-08
-2.9372e-08
-5.34001e-08
-1.96487e-08
-4.02637e-08
-1.20494e-08
-2.81668e-08
-6.45369e-09
-1.75424e-08
-2.70666e-09
-8.87147e-09
-6.23955e-10
-2.68749e-09
3.87329e-10
-1.66916e-09
5.13947e-09
-6.51405e-09
1.82435e-08
-1.43903e-08
3.3223e-08
-2.51589e-08
4.93344e-08
-3.86781e-08
6.59858e-08
-5.47995e-08
8.26899e-08
-7.33661e-08
9.90539e-08
-9.42119e-08
1.14769e-07
-1.17162e-07
1.29599e-07
-1.42034e-07
1.43366e-07
-1.6864e-07
1.55944e-07
-1.96787e-07
1.67246e-07
-2.26278e-07
1.77218e-07
-2.56917e-07
1.85833e-07
-2.88505e-07
1.93083e-07
-3.20846e-07
1.98973e-07
-3.53743e-07
2.03522e-07
-3.87006e-07
2.06753e-07
-4.20442e-07
2.08694e-07
-4.53866e-07
2.09377e-07
-4.87094e-07
2.08831e-07
-5.19946e-07
2.0709e-07
-5.52247e-07
2.04182e-07
-5.83824e-07
2.00139e-07
-6.1451e-07
1.94988e-07
-6.4414e-07
1.88758e-07
-6.72557e-07
1.81478e-07
-6.99604e-07
1.73175e-07
-7.25134e-07
1.6388e-07
-7.49002e-07
1.53625e-07
-7.7107e-07
1.42445e-07
-7.91208e-07
1.3038e-07
-8.09291e-07
1.17472e-07
-8.25206e-07
1.0377e-07
-8.38844e-07
8.93297e-08
-8.5011e-07
7.42112e-08
-8.58918e-07
5.84829e-08
-8.65193e-07
4.22203e-08
-8.68874e-07
2.55061e-08
-8.69914e-07
8.43072e-09
-8.68277e-07
-8.90791e-09
-8.63947e-07
-2.64048e-08
-8.56922e-07
-4.39481e-08
-8.47217e-07
-6.14199e-08
-8.34864e-07
-7.86964e-08
-8.19914e-07
-9.56496e-08
-8.02438e-07
-1.12148e-07
-7.82523e-07
-1.28057e-07
-7.60277e-07
-1.43242e-07
-7.35827e-07
-1.57567e-07
-7.09317e-07
-1.70901e-07
-6.80912e-07
-1.83113e-07
-6.50792e-07
-1.94081e-07
-6.19154e-07
-2.03687e-07
-5.86211e-07
-2.11825e-07
-5.5219e-07
-2.18396e-07
-5.1733e-07
-2.23318e-07
-4.81879e-07
-2.2652e-07
-4.46094e-07
-2.27951e-07
-4.10239e-07
-2.27574e-07
-3.74577e-07
-2.25373e-07
-3.39374e-07
-2.21355e-07
-3.04892e-07
-2.15546e-07
-2.71386e-07
-2.07999e-07
-2.39101e-07
-1.98787e-07
-2.08269e-07
-1.88013e-07
-1.79104e-07
-1.75805e-07
-1.51801e-07
-1.62319e-07
-1.26532e-07
-1.47737e-07
-1.03438e-07
-1.32275e-07
-8.2634e-08
-1.16175e-07
-6.42002e-08
-9.97158e-08
-4.81822e-08
-8.32064e-08
-3.45894e-08
-6.69929e-08
-2.33941e-08
-5.1459e-08
-1.45319e-08
-3.7029e-08
-7.90354e-09
-2.41707e-08
-3.37874e-09
-1.33963e-08
-8.0159e-10
-5.26465e-09
-4.14249e-10
-1.92075e-09
7.06022e-09
-7.45189e-09
2.37746e-08
-1.63843e-08
4.21554e-08
-2.85201e-08
6.14702e-08
-4.36654e-08
8.11311e-08
-6.16268e-08
1.00651e-07
-8.22084e-08
1.19636e-07
-1.05211e-07
1.37772e-07
-1.30433e-07
1.5482e-07
-1.57666e-07
1.706e-07
-1.86704e-07
1.84981e-07
-2.17334e-07
1.97876e-07
-2.49347e-07
2.09231e-07
-2.82532e-07
2.19017e-07
-3.16677e-07
2.27228e-07
-3.51575e-07
2.33872e-07
-3.87021e-07
2.38968e-07
-4.22812e-07
2.42544e-07
-4.58747e-07
2.4463e-07
-4.94631e-07
2.45261e-07
-5.30271e-07
2.44471e-07
-5.65479e-07
2.42297e-07
-6.00069e-07
2.38773e-07
-6.33862e-07
2.33932e-07
-6.66681e-07
2.27807e-07
-6.98355e-07
2.20432e-07
-7.28715e-07
2.11838e-07
-7.57601e-07
2.0206e-07
-7.84854e-07
1.91133e-07
-8.10325e-07
1.79096e-07
-8.3387e-07
1.6599e-07
-8.5535e-07
1.5186e-07
-8.74636e-07
1.36759e-07
-8.91609e-07
1.20743e-07
-9.06155e-07
1.03876e-07
-9.18175e-07
8.6231e-08
-9.27578e-07
6.78861e-08
-9.34287e-07
4.89292e-08
-9.38237e-07
2.94562e-08
-9.39378e-07
9.57172e-09
-9.37675e-07
-1.06113e-08
-9.33108e-07
-3.0972e-08
-9.25674e-07
-5.13815e-08
-9.1539e-07
-7.17043e-08
-9.02288e-07
-9.17985e-08
-8.86421e-07
-1.11517e-07
-8.6786e-07
-1.30709e-07
-8.46697e-07
-1.4922e-07
-8.23043e-07
-1.66895e-07
-7.9703e-07
-1.8358e-07
-7.68809e-07
-1.99122e-07
-7.38548e-07
-2.13374e-07
-7.06438e-07
-2.26192e-07
-6.72683e-07
-2.37442e-07
-6.37507e-07
-2.47001e-07
-6.01146e-07
-2.54757e-07
-5.63851e-07
-2.60613e-07
-5.25883e-07
-2.64488e-07
-4.87513e-07
-2.6632e-07
-4.49018e-07
-2.66069e-07
-4.10678e-07
-2.63714e-07
-3.72773e-07
-2.5926e-07
-3.35582e-07
-2.52738e-07
-2.99375e-07
-2.44205e-07
-2.64416e-07
-2.33747e-07
-2.30952e-07
-2.21477e-07
-1.99216e-07
-2.07541e-07
-1.69419e-07
-1.92116e-07
-1.41749e-07
-1.75408e-07
-1.16365e-07
-1.57659e-07
-9.33973e-08
-1.39143e-07
-7.29439e-08
-1.20169e-07
-5.50673e-08
-1.01083e-07
-3.97943e-08
-8.22659e-08
-2.71155e-08
-6.41378e-08
-1.69861e-08
-4.71585e-08
-9.32783e-09
-3.18289e-08
-4.0335e-09
-1.86906e-08
-9.72417e-10
-8.32572e-09
-1.38667e-09
-2.16597e-09
9.2262e-09
-8.36962e-09
2.99783e-08
-1.8341e-08
5.21268e-08
-3.1826e-08
7.49552e-08
-4.85801e-08
9.78852e-08
-6.83648e-08
1.20436e-07
-9.09453e-08
1.42216e-07
-1.16089e-07
1.62916e-07
-1.43563e-07
1.82295e-07
-1.73139e-07
2.00175e-07
-2.04584e-07
2.16427e-07
-2.37672e-07
2.30964e-07
-2.72176e-07
2.43734e-07
-3.07869e-07
2.54711e-07
-3.44531e-07
2.6389e-07
-3.81942e-07
2.71283e-07
-4.19887e-07
2.76912e-07
-4.58152e-07
2.80809e-07
-4.96529e-07
2.83007e-07
-5.34814e-07
2.83545e-07
-5.72805e-07
2.82463e-07
-6.10307e-07
2.79799e-07
-6.47126e-07
2.75592e-07
-6.83075e-07
2.69881e-07
-7.1797e-07
2.62702e-07
-7.51631e-07
2.54093e-07
-7.83884e-07
2.44092e-07
-8.14561e-07
2.32737e-07
-8.43498e-07
2.20071e-07
-8.70539e-07
2.06136e-07
-8.95532e-07
1.90983e-07
-9.18335e-07
1.74663e-07
-9.38814e-07
1.57237e-07
-9.56841e-07
1.3877e-07
-9.72302e-07
1.19337e-07
-9.85091e-07
9.90198e-08
-9.95114e-07
7.79089e-08
-1.00229e-06
5.61047e-08
-1.00655e-06
3.37168e-08
-1.00784e-06
1.08643e-08
-1.00613e-06
-1.23244e-08
-1.00139e-06
-3.5712e-08
-9.93619e-07
-5.91523e-08
-9.82831e-07
-8.24916e-08
-9.69061e-07
-1.05569e-07
-9.52359e-07
-1.28218e-07
-9.328e-07
-1.50268e-07
-9.10476e-07
-1.71544e-07
-8.85502e-07
-1.9187e-07
-8.58011e-07
-2.11071e-07
-8.2816e-07
-2.28974e-07
-7.96123e-07
-2.45411e-07
-7.62096e-07
-2.60219e-07
-7.26292e-07
-2.73246e-07
-6.88942e-07
-2.84351e-07
-6.50293e-07
-2.93406e-07
-6.10607e-07
-3.00299e-07
-5.70158e-07
-3.04937e-07
-5.29229e-07
-3.0725e-07
-4.8811e-07
-3.07187e-07
-4.47098e-07
-3.04725e-07
-4.0649e-07
-2.99869e-07
-3.66579e-07
-2.92649e-07
-3.27654e-07
-2.83129e-07
-2.89996e-07
-2.71404e-07
-2.53872e-07
-2.57602e-07
-2.19531e-07
-2.41883e-07
-1.87203e-07
-2.24444e-07
-1.57094e-07
-2.05517e-07
-1.29382e-07
-1.8537e-07
-1.04217e-07
-1.64308e-07
-8.17136e-08
-1.42673e-07
-6.19534e-08
-1.20843e-07
-4.49819e-08
-9.92373e-08
-3.08089e-08
-7.83108e-08
-1.94093e-08
-5.85581e-08
-1.07254e-08
-4.05129e-08
-4.67086e-09
-2.47452e-08
-1.13673e-09
-1.18598e-08
-2.52341e-09
-2.40488e-09
1.16311e-08
-9.26637e-09
3.68398e-08
-2.02572e-08
6.31177e-08
-3.50695e-08
8.97674e-08
-5.34094e-08
1.16225e-07
-7.49944e-08
1.42021e-07
-9.95506e-08
1.66772e-07
-1.26811e-07
1.90176e-07
-1.56515e-07
2.11999e-07
-1.88406e-07
2.32066e-07
-2.22233e-07
2.50254e-07
-2.57748e-07
2.66479e-07
-2.94708e-07
2.80694e-07
-3.32875e-07
2.92877e-07
-3.72014e-07
3.03029e-07
-4.11895e-07
3.11164e-07
-4.52291e-07
3.17309e-07
-4.92983e-07
3.215e-07
-5.33752e-07
3.23776e-07
-5.74386e-07
3.24179e-07
-6.14677e-07
3.22754e-07
-6.5442e-07
3.19543e-07
-6.93417e-07
3.14589e-07
-7.31473e-07
3.07936e-07
-7.68396e-07
2.99625e-07
-8.04002e-07
2.89699e-07
-8.38111e-07
2.782e-07
-8.70546e-07
2.65173e-07
-9.01141e-07
2.50665e-07
-9.2973e-07
2.34726e-07
-9.5616e-07
2.17412e-07
-9.80281e-07
1.98785e-07
-1.00195e-06
1.7891e-07
-1.02105e-06
1.57865e-07
-1.03744e-06
1.35733e-07
-1.05103e-06
1.12606e-07
-1.06171e-06
8.85888e-08
-1.0694e-06
6.37928e-08
-1.07402e-06
3.83419e-08
-1.07553e-06
1.23699e-08
-1.07388e-06
-1.39789e-08
-1.06904e-06
-4.05504e-08
-1.06101e-06
-6.71809e-08
-1.0498e-06
-9.3698e-08
-1.03545e-06
-1.19922e-07
-1.018e-06
-1.45665e-07
-9.97535e-07
-1.70736e-07
-9.7414e-07
-1.94939e-07
-9.47931e-07
-2.18078e-07
-9.19047e-07
-2.39955e-07
-8.87646e-07
-2.60375e-07
-8.53906e-07
-2.7915e-07
-8.18029e-07
-2.96096e-07
-7.80235e-07
-3.11041e-07
-7.40762e-07
-3.23824e-07
-6.99867e-07
-3.34301e-07
-6.57822e-07
-3.42344e-07
-6.14912e-07
-3.47847e-07
-5.71434e-07
-3.50728e-07
-5.27694e-07
-3.50927e-07
-4.84001e-07
-3.48418e-07
-4.4067e-07
-3.43199e-07
-3.98013e-07
-3.35306e-07
-3.56337e-07
-3.24806e-07
-3.1594e-07
-3.11801e-07
-2.7711e-07
-2.96432e-07
-2.40116e-07
-2.78877e-07
-2.05208e-07
-2.59352e-07
-1.72612e-07
-2.38113e-07
-1.42526e-07
-2.15455e-07
-1.1512e-07
-1.91714e-07
-9.05298e-08
-1.67263e-07
-6.88557e-08
-1.42517e-07
-5.01635e-08
-1.1793e-07
-3.44827e-08
-9.39916e-08
-2.18078e-08
-7.1233e-08
-1.21005e-08
-5.02202e-08
-5.29331e-09
-3.15523e-08
-1.29546e-09
-1.58577e-08
-3.81886e-09
-2.63763e-09
1.42687e-08
-1.01418e-08
4.4344e-08
-2.21309e-08
7.51068e-08
-3.82456e-08
1.05882e-07
-5.81444e-08
1.36124e-07
-8.15017e-08
1.65378e-07
-1.08005e-07
1.93276e-07
-1.37354e-07
2.19525e-07
-1.69258e-07
2.43903e-07
-2.03434e-07
2.66243e-07
-2.3961e-07
2.86429e-07
-2.77518e-07
3.04388e-07
-3.169e-07
3.20076e-07
-3.57502e-07
3.3348e-07
-3.99078e-07
3.44605e-07
-4.41387e-07
3.53472e-07
-4.84193e-07
3.60115e-07
-5.27266e-07
3.64573e-07
-5.70381e-07
3.66891e-07
-6.13319e-07
3.67117e-07
-6.55863e-07
3.65298e-07
-6.97804e-07
3.61484e-07
-7.38937e-07
3.55722e-07
-7.79059e-07
3.48059e-07
-8.17976e-07
3.38542e-07
-8.55495e-07
3.27218e-07
-8.91432e-07
3.14137e-07
-9.25605e-07
2.99347e-07
-9.57842e-07
2.82901e-07
-9.87973e-07
2.64858e-07
-1.01584e-06
2.45278e-07
-1.04129e-06
2.24232e-07
-1.06417e-06
2.01795e-07
-1.08436e-06
1.78052e-07
-1.10172e-06
1.53097e-07
-1.11615e-06
1.27033e-07
-1.12754e-06
9.99763e-08
-1.1358e-06
7.2052e-08
-1.14085e-06
4.33975e-08
-1.14264e-06
1.41617e-08