/*--------------------------------*- C++ -*----------------------------------*\
| =========                 |                                                 |
| \\      /  F ield         | OpenFOAM: The Open Source CFD Toolbox           |
|  \\    /   O peration     | Version:  2506                                  |
|   \\  /    A nd           | Website:  www.openfoam.com                      |
|    \\/     M anipulation  |                                                 |
\*---------------------------------------------------------------------------*/
FoamFile
{
    version     2.0;
    format      ascii;
    arch        "LSB;label=32;scalar=64";
    class       volVectorField;
    location    "0.975";
    object      U;
}
// * * * * * * * * * * * * * * * * * * * * * * * * * * * * * * * * * * * * * //

dimensions      [0 1 -1 0 0 0 0];

internalField   nonuniform List<vector> 
6400
(
(7.747e-06 -6.7451e-06 0)
(2.91161e-05 -1.33098e-05 0)
(5.69073e-05 -1.31251e-05 0)
(7.54887e-05 -8.6195e-06 0)
(7.78611e-05 -2.38112e-06 0)
(6.08911e-05 4.36422e-06 0)
(2.39267e-05 1.09986e-05 0)
(-3.26124e-05 1.72371e-05 0)
(-0.000107636 2.29605e-05 0)
(-0.000199675 2.81045e-05 0)
(-0.000307094 3.26477e-05 0)
(-0.000428197 3.65997e-05 0)
(-0.000561283 3.99893e-05 0)
(-0.000704695 4.28546e-05 0)
(-0.000856846 4.52348e-05 0)
(-0.00101623 4.71652e-05 0)
(-0.00118142 4.86781e-05 0)
(-0.00135108 4.98039e-05 0)
(-0.00152395 5.0571e-05 0)
(-0.00169885 5.10054e-05 0)
(-0.00187466 5.11289e-05 0)
(-0.00205033 5.09584e-05 0)
(-0.00222482 5.05063e-05 0)
(-0.00239718 4.97825e-05 0)
(-0.00256644 4.87951e-05 0)
(-0.0027317 4.75502e-05 0)
(-0.00289204 4.60517e-05 0)
(-0.00304658 4.43013e-05 0)
(-0.00319444 4.22998e-05 0)
(-0.00333476 4.00474e-05 0)
(-0.00346668 3.75456e-05 0)
(-0.00358935 3.47974e-05 0)
(-0.00370195 3.18063e-05 0)
(-0.00380368 2.85765e-05 0)
(-0.00389375 2.51137e-05 0)
(-0.00397142 2.14264e-05 0)
(-0.00403598 1.75266e-05 0)
(-0.00408678 1.34299e-05 0)
(-0.00412322 9.15452e-06 0)
(-0.00414479 4.72163e-06 0)
(-0.00415104 1.55915e-07 0)
(-0.00414163 -4.51414e-06 0)
(-0.0041163 -9.25589e-06 0)
(-0.00407494 -1.40332e-05 0)
(-0.00401753 -1.88075e-05 0)
(-0.00394419 -2.35373e-05 0)
(-0.00385519 -2.81792e-05 0)
(-0.00375092 -3.2688e-05 0)
(-0.00363196 -3.70161e-05 0)
(-0.003499 -4.11151e-05 0)
(-0.0033529 -4.49369e-05 0)
(-0.00319468 -4.84339e-05 0)
(-0.0030255 -5.15603e-05 0)
(-0.00284666 -5.42726e-05 0)
(-0.00265959 -5.65303e-05 0)
(-0.00246585 -5.82961e-05 0)
(-0.0022671 -5.95372e-05 0)
(-0.0020651 -6.02264e-05 0)
(-0.00186168 -6.03419e-05 0)
(-0.00165874 -5.98679e-05 0)
(-0.0014582 -5.87948e-05 0)
(-0.001262 -5.71199e-05 0)
(-0.00107209 -5.48474e-05 0)
(-0.000890367 -5.19887e-05 0)
(-0.000718684 -4.85632e-05 0)
(-0.000558807 -4.45975e-05 0)
(-0.000412399 -4.01253e-05 0)
(-0.000280986 -3.51882e-05 0)
(-0.000165929 -2.98357e-05 0)
(-6.83919e-05 -2.41273e-05 0)
(1.06986e-05 -1.81349e-05 0)
(7.07053e-05 -1.19481e-05 0)
(0.000111351 -5.68393e-06 0)
(0.000132826 4.90399e-07 0)
(0.000135957 6.32491e-06 0)
(0.00012247 1.14202e-05 0)
(9.53574e-05 1.51206e-05 0)
(5.96221e-05 1.63018e-05 0)
(2.45433e-05 1.31348e-05 0)
(4.34564e-06 4.35209e-06 0)
(1.47597e-05 -2.94636e-05 0)
(5.01263e-05 -4.83311e-05 0)
(8.41651e-05 -3.98717e-05 0)
(9.26182e-05 -1.44158e-05 0)
(6.08962e-05 1.96196e-05 0)
(-1.78091e-05 5.72057e-05 0)
(-0.00014612 9.52939e-05 0)
(-0.000323998 0.000132094 0)
(-0.000549562 0.000166597 0)
(-0.000819774 0.000198229 0)
(-0.00113092 0.000226701 0)
(-0.00147894 0.000251911 0)
(-0.00185957 0.000273875 0)
(-0.00226858 0.000292683 0)
(-0.00270179 0.000308465 0)
(-0.00315516 0.000321371 0)
(-0.0036248 0.00033156 0)
(-0.00410702 0.000339187 0)
(-0.00459828 0.000344397 0)
(-0.00509522 0.000347322 0)
(-0.00559465 0.000348079 0)
(-0.00609351 0.000346769 0)
(-0.00658885 0.000343476 0)
(-0.00707785 0.000338269 0)
(-0.00755775 0.000331203 0)
(-0.00802588 0.00032232 0)
(-0.00847963 0.000311654 0)
(-0.00891644 0.000299233 0)
(-0.00933378 0.000285083 0)
(-0.0097292 0.000269225 0)
(-0.0101003 0.000251685 0)
(-0.0104446 0.000232496 0)
(-0.0107599 0.000211696 0)
(-0.0110439 0.000189334 0)
(-0.0112946 0.000165471 0)
(-0.0115098 0.000140183 0)
(-0.0116876 0.000113565 0)
(-0.0118264 8.57287e-05 0)
(-0.0119245 5.68055e-05 0)
(-0.0119807 2.69473e-05 0)
(-0.0119937 -3.6733e-06 0)
(-0.0119628 -3.4863e-05 0)
(-0.0118873 -6.64083e-05 0)
(-0.011767 -9.8076e-05 0)
(-0.011602 -0.000129616 0)
(-0.0113928 -0.000160762 0)
(-0.0111401 -0.000191238 0)
(-0.0108451 -0.000220754 0)
(-0.0105096 -0.000249015 0)
(-0.0101354 -0.000275724 0)
(-0.00972502 -0.000300582 0)
(-0.00928129 -0.000323296 0)
(-0.00880742 -0.000343586 0)
(-0.00830698 -0.000361183 0)
(-0.00778392 -0.000375841 0)
(-0.00724249 -0.000387334 0)
(-0.00668723 -0.000395466 0)
(-0.00612292 -0.000400072 0)
(-0.00555455 -0.000401021 0)
(-0.00498723 -0.000398222 0)
(-0.00442619 -0.000391624 0)
(-0.00387667 -0.000381221 0)
(-0.00334389 -0.000367051 0)
(-0.00283297 -0.000349202 0)
(-0.00234886 -0.000327812 0)
(-0.00189629 -0.000303069 0)
(-0.00147966 -0.000275217 0)
(-0.00110297 -0.000244555 0)
(-0.000769742 -0.000211446 0)
(-0.000482919 -0.000176329 0)
(-0.000244734 -0.000139736 0)
(-5.65618e-05 -0.000102322 0)
(8.12632e-05 -6.49171e-05 0)
(0.000169722 -2.86084e-05 0)
(0.000211481 5.12138e-06 0)
(0.000211379 3.41862e-05 0)
(0.000176974 5.55937e-05 0)
(0.000119365 6.49923e-05 0)
(5.62471e-05 5.63495e-05 0)
(1.30454e-05 2.44723e-05 0)
(1.38779e-05 -5.77735e-05 0)
(4.13956e-05 -8.34139e-05 0)
(5.26461e-05 -5.08348e-05 0)
(2.00311e-05 1.7453e-05 0)
(-7.31495e-05 0.000105881 0)
(-0.000235562 0.000203792 0)
(-0.000470995 0.000304063 0)
(-0.000779751 0.000402098 0)
(-0.00115959 0.000495003 0)
(-0.00160654 0.000581005 0)
(-0.0021155 0.000659094 0)
(-0.00268067 0.000728777 0)
(-0.00329593 0.000789904 0)
(-0.00395496 0.000842553 0)
(-0.00465151 0.000886946 0)
(-0.00537941 0.000923389 0)
(-0.00613269 0.000952233 0)
(-0.00690555 0.00097384 0)
(-0.00769245 0.000988565 0)
(-0.00848808 0.000996737 0)
(-0.00928732 0.000998653 0)
(-0.0100853 0.000994577 0)
(-0.0108772 0.000984738 0)
(-0.0116585 0.000969327 0)
(-0.0124248 0.000948503 0)
(-0.0131717 0.000922399 0)
(-0.0138951 0.000891124 0)
(-0.0145908 0.000854776 0)
(-0.0152547 0.000813443 0)
(-0.0158829 0.000767216 0)
(-0.0164717 0.000716192 0)
(-0.0170171 0.000660484 0)
(-0.0175156 0.000600229 0)
(-0.0179637 0.000535589 0)
(-0.0183581 0.000466765 0)
(-0.0186955 0.000393997 0)
(-0.0189732 0.000317571 0)
(-0.0191885 0.000237823 0)
(-0.0193389 0.00015514 0)
(-0.0194225 6.99642e-05 0)
(-0.0194377 -1.72077e-05 0)
(-0.0193832 -0.000105824 0)
(-0.0192582 -0.000195281 0)
(-0.0190626 -0.000284925 0)
(-0.0187964 -0.000374057 0)
(-0.0184607 -0.000461939 0)
(-0.0180566 -0.000547802 0)
(-0.0175863 -0.000630851 0)
(-0.0170524 -0.000710274 0)
(-0.0164579 -0.000785255 0)
(-0.0158069 -0.000854981 0)
(-0.0151037 -0.000918659 0)
(-0.0143534 -0.00097552 0)
(-0.0135616 -0.00102484 0)
(-0.0127344 -0.00106595 0)
(-0.0118784 -0.00109823 0)
(-0.0110007 -0.00112117 0)
(-0.0101086 -0.00113431 0)
(-0.00920979 -0.00113732 0)
(-0.00831222 -0.00112994 0)
(-0.00742389 -0.00111206 0)
(-0.00655287 -0.00108367 0)
(-0.00570717 -0.00104491 0)
(-0.00489462 -0.00099602 0)
(-0.0041228 -0.000937419 0)
(-0.00339888 -0.000869654 0)
(-0.00272954 -0.000793434 0)
(-0.00212083 -0.000709636 0)
(-0.00157801 -0.000619323 0)
(-0.0011054 -0.000523781 0)
(-0.000706213 -0.000424561 0)
(-0.000382305 -0.000323555 0)
(-0.000133928 -0.000223107 0)
(4.06214e-05 -0.000126182 0)
(0.000145439 -3.6621e-05 0)
(0.000187549 4.05195e-05 0)
(0.000177362 9.85235e-05 0)
(0.000129305 0.00012855 0)
(6.51284e-05 0.000119466 0)
(1.61856e-05 5.93797e-05 0)
(9.34915e-06 -7.7885e-05 0)
(1.59823e-05 -9.30238e-05 0)
(-1.57446e-05 -1.8519e-05 0)
(-0.000110918 0.00011202 0)
(-0.000285676 0.000275471 0)
(-0.000549096 0.000455243 0)
(-0.000905193 0.000639688 0)
(-0.00135417 0.000820861 0)
(-0.00189336 0.000993478 0)
(-0.00251804 0.00115413 0)
(-0.00322206 0.00130075 0)
(-0.00399834 0.00143219 0)
(-0.00483923 0.00154796 0)
(-0.00573683 0.00164803 0)
(-0.00668313 0.00173263 0)
(-0.00767021 0.00180222 0)
(-0.00869027 0.00185734 0)
(-0.00973576 0.00189858 0)
(-0.0107993 0.00192654 0)
(-0.0118739 0.0019418 0)
(-0.0129527 0.00194487 0)
(-0.014029 0.00193624 0)
(-0.0150965 0.00191632 0)
(-0.016149 0.00188548 0)
(-0.0171805 0.00184402 0)
(-0.0181852 0.00179222 0)
(-0.0191573 0.00173029 0)
(-0.0200914 0.00165846 0)
(-0.0209818 0.00157692 0)
(-0.0218235 0.00148587 0)
(-0.0226111 0.00138554 0)
(-0.0233397 0.00127617 0)
(-0.0240045 0.00115807 0)
(-0.0246009 0.00103159 0)
(-0.0251246 0.000897131 0)
(-0.0255713 0.000755202 0)
(-0.0259373 0.00060638 0)
(-0.0262193 0.000451335 0)
(-0.0264143 0.000290835 0)
(-0.0265196 0.000125746 0)
(-0.0265332 -4.29635e-05 0)
(-0.0264537 -0.000214227 0)
(-0.0262803 -0.000386884 0)
(-0.0260126 -0.000559683 0)
(-0.0256512 -0.000731292 0)
(-0.0251973 -0.00090031 0)
(-0.0246527 -0.00106528 0)
(-0.0240204 -0.00122469 0)
(-0.0233037 -0.00137703 0)
(-0.022507 -0.00152075 0)
(-0.0216355 -0.00165433 0)
(-0.020695 -0.00177629 0)
(-0.0196922 -0.00188519 0)
(-0.0186345 -0.00197968 0)
(-0.0175299 -0.0020585 0)
(-0.016387 -0.00212053 0)
(-0.0152151 -0.00216478 0)
(-0.0140238 -0.00219044 0)
(-0.0128232 -0.00219685 0)
(-0.0116235 -0.0021836 0)
(-0.0104351 -0.00215047 0)
(-0.00926855 -0.00209746 0)
(-0.00813422 -0.00202485 0)
(-0.00704226 -0.00193316 0)
(-0.00600245 -0.00182319 0)
(-0.00502406 -0.001696 0)
(-0.00411567 -0.001553 0)
(-0.00328503 -0.00139588 0)
(-0.00253883 -0.00122673 0)
(-0.00188253 -0.00104805 0)
(-0.00132015 -0.000862816 0)
(-0.000853935 -0.00067465 0)
(-0.000484134 -0.000487938 0)
(-0.000208583 -0.000308097 0)
(-2.22965e-05 -0.000141896 0)
(8.3019e-05 2.10858e-06 0)
(0.000119342 0.00011305 0)
(0.000102846 0.000177283 0)
(5.70226e-05 0.000178092 0)
(1.51763e-05 9.52382e-05 0)
(3.07622e-06 -8.10945e-05 0)
(-1.8689e-05 -6.17889e-05 0)
(-0.00010656 7.53486e-05 0)
(-0.000279338 0.000287387 0)
(-0.000550511 0.000544298 0)
(-0.000928319 0.000823928 0)
(-0.00141614 0.0011102 0)
(-0.00201355 0.00139177 0)
(-0.00271722 0.00166076 0)
(-0.00352165 0.00191192 0)
(-0.00441975 0.0021419 0)
(-0.00540333 0.00234871 0)
(-0.00646353 0.00253138 0)
(-0.00759108 0.00268962 0)
(-0.00877656 0.00282365 0)
(-0.0100105 0.00293398 0)
(-0.0112836 0.00302134 0)
(-0.0125868 0.00308652 0)
(-0.0139111 0.00313039 0)
(-0.0152479 0.00315377 0)
(-0.0165887 0.00315744 0)
(-0.0179256 0.00314211 0)
(-0.0192505 0.00310844 0)
(-0.0205558 0.00305698 0)
(-0.0218341 0.00298824 0)
(-0.0230782 0.00290265 0)
(-0.0242809 0.0028006 0)
(-0.0254353 0.00268247 0)
(-0.0265349 0.0025486 0)
(-0.0275729 0.00239937 0)
(-0.0285432 0.00223517 0)
(-0.0294395 0.00205646 0)
(-0.0302561 0.00186376 0)
(-0.0309873 0.00165767 0)
(-0.0316278 0.00143892 0)
(-0.0321727 0.00120834 0)
(-0.0326175 0.000966904 0)
(-0.0329582 0.000715713 0)
(-0.0331913 0.000456033 0)
(-0.0333136 0.000189274 0)
(-0.0333231 -8.29946e-05 0)
(-0.0332179 -0.000359057 0)
(-0.0329972 -0.00063705 0)
(-0.0326608 -0.000914976 0)
(-0.0322096 -0.00119072 0)
(-0.0316451 -0.00146205 0)
(-0.0309697 -0.00172666 0)
(-0.030187 -0.00198219 0)
(-0.0293013 -0.00222622 0)
(-0.028318 -0.00245634 0)
(-0.0272433 -0.00267016 0)
(-0.0260844 -0.00286536 0)
(-0.0248495 -0.00303968 0)
(-0.0235473 -0.00319102 0)
(-0.0221878 -0.00331742 0)
(-0.0207813 -0.00341711 0)
(-0.019339 -0.00348857 0)
(-0.0178723 -0.00353052 0)
(-0.0163934 -0.00354199 0)
(-0.0149147 -0.00352231 0)
(-0.0134486 -0.00347117 0)
(-0.0120077 -0.00338863 0)
(-0.0106044 -0.00327513 0)
(-0.00925089 -0.00313154 0)
(-0.00795883 -0.00295914 0)
(-0.00673927 -0.00275969 0)
(-0.00560243 -0.00253542 0)
(-0.0045575 -0.00228911 0)
(-0.00361243 -0.00202408 0)
(-0.00277366 -0.00174434 0)
(-0.00204593 -0.00145464 0)
(-0.00143193 -0.00116063 0)
(-0.000932031 -0.000869103 0)
(-0.000543932 -0.000588246 0)
(-0.000262264 -0.000328026 0)
(-7.81874e-05 -0.000100678 0)
(2.09288e-05 7.87317e-05 0)
(5.19447e-05 0.000191775 0)
(3.83324e-05 0.000216125 0)
(1.19293e-05 0.00012345 0)
(-3.87436e-06 -6.45131e-05 0)
(-5.80839e-05 1.84358e-05 0)
(-0.000210286 0.000241826 0)
(-0.000470767 0.000555762 0)
(-0.000848862 0.000924485 0)
(-0.001351 0.00132094 0)
(-0.00197918 0.00172501 0)
(-0.0027318 0.00212206 0)
(-0.00360457 0.00250171 0)
(-0.00459102 0.0028568 0)
(-0.0056831 0.00318258 0)
(-0.00687163 0.00347612 0)
(-0.00814662 0.00373586 0)
(-0.00949764 0.00396119 0)
(-0.010914 0.00415219 0)
(-0.012385 0.00430942 0)
(-0.0139 0.00443373 0)
(-0.0154485 0.00452613 0)
(-0.0170201 0.0045877 0)
(-0.0186049 0.00461953 0)
(-0.020193 0.00462266 0)
(-0.0217751 0.00459808 0)
(-0.0233417 0.00454667 0)
(-0.024884 0.00446923 0)
(-0.0263931 0.00436648 0)
(-0.0278606 0.00423905 0)
(-0.0292781 0.00408756 0)
(-0.0306375 0.00391256 0)
(-0.031931 0.0037146 0)
(-0.0331509 0.00349429 0)
(-0.0342898 0.00325224 0)
(-0.0353406 0.00298917 0)
(-0.0362964 0.0027059 0)
(-0.0371509 0.00240336 0)
(-0.037898 0.00208266 0)
(-0.0385319 0.00174505 0)
(-0.0390476 0.00139199 0)
(-0.0394405 0.00102512 0)
(-0.0397066 0.000646305 0)
(-0.0398426 0.00025761 0)
(-0.039846 -0.00013868 0)
(-0.039715 -0.000540071 0)
(-0.0394487 -0.000943873 0)
(-0.0390471 -0.00134721 0)
(-0.0385112 -0.00174704 0)
(-0.037843 -0.00214017 0)
(-0.0370455 -0.00252332 0)
(-0.0361229 -0.00289309 0)
(-0.0350802 -0.00324607 0)
(-0.0339237 -0.00357882 0)
(-0.0326607 -0.00388797 0)
(-0.0312996 -0.00417019 0)
(-0.0298497 -0.00442233 0)
(-0.0283214 -0.00464139 0)
(-0.0267258 -0.0048246 0)
(-0.0250751 -0.0049695 0)
(-0.0233818 -0.00507392 0)
(-0.0216594 -0.00513607 0)
(-0.0199217 -0.00515459 0)
(-0.0181827 -0.00512858 0)
(-0.0164569 -0.0050576 0)
(-0.0147587 -0.00494177 0)
(-0.0131021 -0.00478177 0)
(-0.0115011 -0.00457886 0)
(-0.00996912 -0.00433492 0)
(-0.00851866 -0.00405251 0)
(-0.00716142 -0.00373486 0)
(-0.00590787 -0.00338597 0)
(-0.00476708 -0.00301064 0)
(-0.00374642 -0.0026146 0)
(-0.00285135 -0.00220458 0)
(-0.00208508 -0.00178855 0)
(-0.00144832 -0.00137592 0)
(-0.000938907 -0.000977816 0)
(-0.00055154 -0.00060754 0)
(-0.000277402 -0.000281025 0)
(-0.0001039 -1.7453e-05 0)
(-1.42886e-05 0.000160177 0)
(1.35479e-05 0.000224318 0)
(7.60146e-06 0.000139834 0)
(-1.09767e-05 -2.67289e-05 0)
(-9.95982e-05 0.000152278 0)
(-0.000320845 0.00048786 0)
(-0.000675381 0.000925345 0)
(-0.00116745 0.00142452 0)
(-0.00180095 0.00195429 0)
(-0.00257587 0.00249101 0)
(-0.00348896 0.00301714 0)
(-0.00453458 0.00351994 0)
(-0.00570513 0.00399042 0)
(-0.00699149 0.00442245 0)
(-0.00838342 0.00481214 0)
(-0.00986989 0.00515728 0)
(-0.0114394 0.0054569 0)
(-0.0130802 0.00571089 0)
(-0.0147803 0.00591981 0)
(-0.0165279 0.00608458 0)
(-0.0183114 0.00620641 0)
(-0.0201192 0.00628661 0)
(-0.02194 0.0063265 0)
(-0.0237629 0.00632741 0)
(-0.025577 0.00629058 0)
(-0.027372 0.00621716 0)
(-0.0291375 0.0061082 0)
(-0.0308638 0.00596466 0)
(-0.032541 0.00578743 0)
(-0.0341597 0.00557734 0)
(-0.0357107 0.00533519 0)
(-0.0371852 0.00506179 0)
(-0.0385744 0.004758 0)
(-0.0398701 0.00442473 0)
(-0.0410641 0.00406302 0)
(-0.0421489 0.00367404 0)
(-0.0431172 0.00325913 0)
(-0.0439622 0.00281985 0)
(-0.0446777 0.00235796 0)
(-0.045258 0.00187548 0)
(-0.0456981 0.0013747 0)
(-0.0459935 0.000858154 0)
(-0.0461408 0.000328687 0)
(-0.0461372 -0.000210598 0)
(-0.0459809 -0.000756325 0)
(-0.045671 -0.00130486 0)
(-0.0452077 -0.00185233 0)
(-0.0445922 -0.00239465 0)
(-0.0438268 -0.00292755 0)
(-0.0429152 -0.00344663 0)
(-0.0418618 -0.00394737 0)
(-0.0406727 -0.00442522 0)
(-0.0393548 -0.00487561 0)
(-0.0379164 -0.00529405 0)
(-0.0363668 -0.00567613 0)
(-0.0347167 -0.00601766 0)
(-0.0329774 -0.00631467 0)
(-0.0311615 -0.00656352 0)
(-0.0292824 -0.00676091 0)
(-0.0273544 -0.006904 0)
(-0.0253922 -0.00699044 0)
(-0.0234112 -0.00701844 0)
(-0.0214272 -0.00698681 0)
(-0.019456 -0.00689503 0)
(-0.0175138 -0.00674326 0)
(-0.0156162 -0.00653245 0)
(-0.0137787 -0.00626432 0)
(-0.0120161 -0.00594143 0)
(-0.0103424 -0.00556722 0)
(-0.00877069 -0.00514607 0)
(-0.00731252 -0.00468332 0)
(-0.00597806 -0.00418542 0)
(-0.0047756 -0.00365997 0)
(-0.00371138 -0.00311588 0)
(-0.00278925 -0.00256358 0)
(-0.00201043 -0.00201521 0)
(-0.00137321 -0.00148496 0)
(-0.000872697 -0.000989472 0)
(-0.000500566 -0.000548303 0)
(-0.000244788 -0.000184551 0)
(-8.93484e-05 7.45756e-05 0)
(-1.43965e-05 0.000196976 0)
(2.84187e-06 0.000142239 0)
(-1.79713e-05 3.27367e-05 0)
(-0.00014174 0.000342092 0)
(-0.000434427 0.000817509 0)
(-0.000886683 0.00140131 0)
(-0.00149713 0.00205004 0)
(-0.00226665 0.00272945 0)
(-0.00319272 0.00341306 0)
(-0.00427004 0.00408083 0)
(-0.00549131 0.00471796 0)
(-0.00684756 0.00531379 0)
(-0.00832845 0.00586094 0)
(-0.00992262 0.0063546 0)
(-0.011618 0.00679191 0)
(-0.013402 0.00717152 0)
(-0.0152619 0.00749313 0)
(-0.0171846 0.00775726 0)
(-0.0191574 0.00796491 0)
(-0.0211673 0.00811744 0)
(-0.0232018 0.00821635 0)
(-0.0252486 0.00826325 0)
(-0.0272955 0.0082597 0)
(-0.0293306 0.00820722 0)
(-0.0313424 0.00810724 0)
(-0.0333196 0.00796107 0)
(-0.0352511 0.00776995 0)
(-0.0371263 0.00753502 0)
(-0.0389347 0.00725738 0)
(-0.0406661 0.00693812 0)
(-0.0423106 0.00657834 0)
(-0.0438586 0.00617921 0)
(-0.0453011 0.00574197 0)
(-0.0466291 0.00526806 0)
(-0.0478342 0.00475905 0)
(-0.0489086 0.00421676 0)
(-0.0498448 0.00364327 0)
(-0.050636 0.00304092 0)
(-0.0512761 0.00241239 0)
(-0.0517596 0.00176067 0)
(-0.0520819 0.0010891 0)
(-0.0522392 0.000401345 0)
(-0.0522286 -0.000298555 0)
(-0.0520482 -0.00100624 0)
(-0.0516972 -0.00171705 0)
(-0.0511759 -0.00242599 0)
(-0.0504857 -0.00312785 0)
(-0.0496294 -0.00381716 0)
(-0.0486108 -0.00448832 0)
(-0.0474352 -0.00513556 0)
(-0.046109 -0.00575309 0)
(-0.0446401 -0.00633512 0)
(-0.0430374 -0.00687592 0)
(-0.0413112 -0.00736994 0)
(-0.0394731 -0.00781184 0)
(-0.0375356 -0.00819659 0)
(-0.0355125 -0.00851959 0)
(-0.0334183 -0.00877667 0)
(-0.0312685 -0.00896423 0)
(-0.0290794 -0.00907932 0)
(-0.0268676 -0.00911967 0)
(-0.0246504 -0.0090838 0)
(-0.0224451 -0.00897106 0)
(-0.0202692 -0.0087817 0)
(-0.0181398 -0.00851695 0)
(-0.0160739 -0.00817903 0)
(-0.0140876 -0.00777123 0)
(-0.0121963 -0.00729796 0)
(-0.0104141 -0.00676482 0)
(-0.0087539 -0.00617864 0)
(-0.00722689 -0.00554759 0)
(-0.00584232 -0.00488129 0)
(-0.00460727 -0.00419094 0)
(-0.00352637 -0.00348949 0)
(-0.00260155 -0.00279193 0)
(-0.0018318 -0.0021155 0)
(-0.00121294 -0.00148013 0)
(-0.000737495 -0.000908882 0)
(-0.000394393 -0.000428491 0)
(-0.000168788 -6.99254e-05 0)
(-4.36333e-05 0.000130903 0)
(-1.98767e-06 0.000129702 0)
(-2.47668e-05 0.000113839 0)
(-0.000183698 0.000588777 0)
(-0.000548705 0.00123278 0)
(-0.00110045 0.00198655 0)
(-0.00183169 0.00280446 0)
(-0.00273998 0.00364998 0)
(-0.00381993 0.00449442 0)
(-0.00506389 0.00531577 0)
(-0.00646262 0.00609753 0)
(-0.00800555 0.00682763 0)
(-0.00968098 0.00749759 0)
(-0.0114763 0.00810178 0)
(-0.0133785 0.00863678 0)
(-0.0153737 0.00910086 0)
(-0.0174483 0.00949357 0)
(-0.0195882 0.00981536 0)
(-0.0217797 0.0100673 0)
(-0.0240089 0.0102509 0)
(-0.0262623 0.010368 0)
(-0.0285264 0.0104202 0)
(-0.0307882 0.0104095 0)
(-0.0330348 0.0103376 0)
(-0.0352537 0.0102062 0)
(-0.0374326 0.010017 0)
(-0.0395595 0.00977149 0)
(-0.0416228 0.00947106 0)
(-0.0436111 0.00911714 0)
(-0.0455132 0.00871111 0)
(-0.0473186 0.00825442 0)
(-0.0490168 0.00774857 0)
(-0.0505978 0.00719522 0)
(-0.0520522 0.00659621 0)
(-0.0533709 0.00595362 0)
(-0.0545452 0.00526978 0)
(-0.0555674 0.00454736 0)
(-0.05643 0.00378936 0)
(-0.0571265 0.00299917 0)
(-0.0576512 0.00218058 0)
(-0.057999 0.00133778 0)
(-0.058166 0.000475384 0)
(-0.0581491 -0.000401584 0)
(-0.0579465 -0.00128769 0)
(-0.0575574 -0.00217714 0)
(-0.0569821 -0.00306376 0)
(-0.0562223 -0.0039411 0)
(-0.055281 -0.00480242 0)
(-0.0541625 -0.00564079 0)
(-0.0528723 -0.00644915 0)
(-0.0514176 -0.00722035 0)
(-0.0498068 -0.00794728 0)
(-0.0480495 -0.00862292 0)
(-0.0461569 -0.00924044 0)
(-0.0441414 -0.00979331 0)
(-0.0420164 -0.0102754 0)
(-0.0397967 -0.010681 0)
(-0.0374981 -0.011005 0)
(-0.0351371 -0.011243 0)
(-0.0327312 -0.0113914 0)
(-0.0302984 -0.0114475 0)
(-0.0278571 -0.0114094 0)
(-0.0254262 -0.0112763 0)
(-0.0230242 -0.0110486 0)
(-0.0206699 -0.0107278 0)
(-0.0183813 -0.0103166 0)
(-0.016176 -0.00981915 0)
(-0.0140706 -0.00924081 0)
(-0.0120805 -0.00858848 0)
(-0.0102197 -0.00787056 0)
(-0.00850044 -0.00709703 0)
(-0.00693302 -0.00627961 0)
(-0.0055255 -0.00543184 0)
(-0.00428342 -0.00456928 0)
(-0.0032096 -0.00370974 0)
(-0.00230394 -0.00287352 0)
(-0.00156323 -0.00208374 0)
(-0.000981092 -0.00136678 0)
(-0.00054772 -0.000752748 0)
(-0.000249697 -0.000275913 0)
(-7.30207e-05 2.46933e-05 0)
(-6.69449e-06 0.000102011 0)
(-3.1341e-05 0.000216265 0)
(-0.000225045 0.000892321 0)
(-0.000662285 0.00173431 0)
(-0.00131396 0.00268234 0)
(-0.00216694 0.00368952 0)
(-0.00321526 0.00471782 0)
(-0.00445048 0.00573698 0)
(-0.0058623 0.00672354 0)
(-0.00743936 0.00765966 0)
(-0.0091693 0.0085322 0)
(-0.0110389 0.00933178 0)
(-0.0130343 0.0100521 0)
(-0.0151411 0.0106893 0)
(-0.0173446 0.0112414 0)
(-0.0196301 0.0117077 0)
(-0.0219827 0.0120887 0)
(-0.0243875 0.0123856 0)
(-0.0268298 0.0126 0)
(-0.0292953 0.0127339 0)
(-0.0317695 0.0127892 0)
(-0.0342385 0.0127682 0)
(-0.0366886 0.0126728 0)
(-0.0391063 0.0125051 0)
(-0.0414786 0.0122669 0)
(-0.0437925 0.0119602 0)
(-0.0460355 0.0115866 0)
(-0.0481955 0.0111478 0)
(-0.0502606 0.0106457 0)
(-0.0522193 0.0100819 0)
(-0.0540605 0.0094585 0)
(-0.0557736 0.00877745 0)
(-0.0573485 0.00804112 0)
(-0.0587753 0.0072521 0)
(-0.0600451 0.00641332 0)
(-0.0611494 0.0055281 0)
(-0.0620805 0.00460014 0)
(-0.0628315 0.00363362 0)
(-0.0633961 0.00263319 0)
(-0.0637692 0.00160396 0)
(-0.0639467 0.000551547 0)
(-0.0639253 -0.000517944 0)
(-0.0637031 -0.00159795 0)
(-0.0632793 -0.00268145 0)
(-0.0626544 -0.00376102 0)
(-0.0618302 -0.0048289 0)
(-0.0608099 -0.00587698 0)
(-0.059598 -0.00689696 0)
(-0.0582006 -0.00788036 0)
(-0.0566252 -0.00881863 0)
(-0.0548807 -0.00970324 0)
(-0.0529775 -0.0105258 0)
(-0.0509273 -0.0112781 0)
(-0.0487433 -0.0119524 0)
(-0.0464398 -0.0125413 0)
(-0.0440325 -0.013038 0)
(-0.0415381 -0.0134363 0)
(-0.0389742 -0.0137312 0)
(-0.0363595 -0.0139181 0)
(-0.0337131 -0.0139938 0)
(-0.0310546 -0.0139561 0)
(-0.0284041 -0.013804 0)
(-0.0257815 -0.0135381 0)
(-0.0232067 -0.0131599 0)
(-0.0206992 -0.0126729 0)
(-0.0182778 -0.012082 0)
(-0.0159603 -0.0113935 0)
(-0.0137633 -0.0106158 0)
(-0.0117021 -0.00975874 0)
(-0.00979012 -0.00883428 0)
(-0.0080387 -0.00785623 0)
(-0.00645698 -0.00684052 0)
(-0.00505159 -0.00580536 0)
(-0.00382639 -0.00477136 0)
(-0.00278237 -0.00376182 0)
(-0.00191748 -0.00280296 0)
(-0.00122667 -0.00192431 0)
(-0.000701549 -0.00115906 0)
(-0.00033027 -0.00054439 0)
(-0.000101903 -0.000121903 0)
(-1.11856e-05 5.93865e-05 0)
(-3.76996e-05 0.000339579 0)
(-0.000265572 0.00125217 0)
(-0.000774348 0.00232183 0)
(-0.0015255 0.00348881 0)
(-0.00250011 0.00470571 0)
(-0.0036886 0.00593367 0)
(-0.00507934 0.00714147 0)
(-0.00665926 0.00830467 0)
(-0.00841467 0.00940456 0)
(-0.0103313 0.0104272 0)
(-0.0123942 0.0113626 0)
(-0.0145882 0.012204 0)
(-0.0168977 0.0129472 0)
(-0.0193069 0.01359 0)
(-0.0217999 0.0141316 0)
(-0.0243609 0.0145727 0)
(-0.0269744 0.0149145 0)
(-0.0296246 0.0151588 0)
(-0.0322963 0.0153076 0)
(-0.0349744 0.0153635 0)
(-0.0376441 0.0153286 0)
(-0.0402909 0.0152054 0)
(-0.0429005 0.0149962 0)
(-0.045459 0.0147032 0)
(-0.0479528 0.0143285 0)
(-0.0503687 0.0138741 0)
(-0.0526938 0.0133422 0)
(-0.0549153 0.0127349 0)
(-0.0570214 0.0120544 0)
(-0.0590001 0.011303 0)
(-0.0608402 0.0104832 0)
(-0.062531 0.00959793 0)
(-0.0640622 0.00865033 0)
(-0.0654243 0.00764397 0)
(-0.0666085 0.00658285 0)
(-0.0676065 0.00547145 0)
(-0.068411 0.00431478 0)
(-0.0690157 0.0031184 0)
(-0.069415 0.00188842 0)
(-0.0696047 0.000631504 0)
(-0.0695813 -0.000645102 0)
(-0.0693428 -0.00193363 0)
(-0.0688885 -0.00322579 0)
(-0.0682188 -0.00451283 0)
(-0.0673356 -0.0057856 0)
(-0.0662423 -0.00703458 0)
(-0.0649437 -0.00825 0)
(-0.0634461 -0.00942189 0)
(-0.0617573 -0.0105402 0)
(-0.0598867 -0.011595 0)
(-0.0578453 -0.0125764 0)
(-0.0556452 -0.0134747 0)
(-0.0533004 -0.0142809 0)
(-0.050826 -0.0149862 0)
(-0.0482384 -0.0155827 0)
(-0.0455552 -0.0160632 0)
(-0.0427951 -0.0164216 0)
(-0.0399776 -0.0166526 0)
(-0.037123 -0.0167525 0)
(-0.0342521 -0.0167185 0)
(-0.0313862 -0.0165495 0)
(-0.0285463 -0.0162461 0)
(-0.0257538 -0.0158101 0)
(-0.0230293 -0.0152456 0)
(-0.0203928 -0.0145582 0)
(-0.0178637 -0.0137553 0)
(-0.0154597 -0.0128466 0)
(-0.0131973 -0.0118438 0)
(-0.0110913 -0.0107605 0)
(-0.00915418 -0.00961274 0)
(-0.00739632 -0.00841893 0)
(-0.00582552 -0.00719984 0)
(-0.00444688 -0.00597891 0)
(-0.00326261 -0.00478236 0)
(-0.002272 -0.00363943 0)
(-0.00147141 -0.00258263 0)
(-0.000853992 -0.00164801 0)
(-0.000409499 -0.000875365 0)
(-0.000129943 -0.00030845 0)
(-1.54245e-05 2.27659e-06 0)
(-4.38526e-05 0.000483279 0)
(-0.000305179 0.00166745 0)
(-0.000884425 0.00299447 0)
(-0.001734 0.00440528 0)
(-0.00282934 0.00585257 0)
(-0.00415729 0.00729723 0)
(-0.00570294 0.00870764 0)
(-0.00745035 0.0100589 0)
(-0.00938341 0.0113317 0)
(-0.0114858 0.0125118 0)
(-0.0137408 0.0135888 0)
(-0.0161318 0.0145556 0)
(-0.0186417 0.015408 0)
(-0.0212538 0.0161436 0)
(-0.0239512 0.0167618 0)
(-0.0267171 0.0172633 0)
(-0.029535 0.0176493 0)
(-0.0323884 0.017922 0)
(-0.0352614 0.0180837 0)
(-0.0381381 0.0181371 0)
(-0.0410029 0.0180847 0)
(-0.0438405 0.0179292 0)
(-0.0466361 0.0176732 0)
(-0.049375 0.0173193 0)
(-0.052043 0.0168699 0)
(-0.0546261 0.0163275 0)
(-0.0571107 0.0156945 0)
(-0.0594837 0.0149733 0)
(-0.0617324 0.0141667 0)
(-0.0638443 0.0132774 0)
(-0.0658077 0.0123084 0)
(-0.0676114 0.0112632 0)
(-0.0692445 0.0101455 0)
(-0.0706972 0.00895965 0)
(-0.0719601 0.00771029 0)
(-0.0730247 0.00640274 0)
(-0.0738832 0.00504289 0)
(-0.0745291 0.00363726 0)
(-0.0749566 0.00219298 0)
(-0.0751611 0.00071785 0)
(-0.0751392 -0.000779715 0)
(-0.0748886 -0.00229068 0)
(-0.0744084 -0.00380545 0)
(-0.0736992 -0.00531387 0)
(-0.0727629 -0.00680534 0)
(-0.0716029 -0.00826888 0)
(-0.0702241 -0.00969317 0)
(-0.0686331 -0.0110667 0)
(-0.066838 -0.0123779 0)
(-0.0648486 -0.0136153 0)
(-0.062676 -0.0147673 0)
(-0.0603331 -0.015823 0)
(-0.0578343 -0.0167716 0)
(-0.0551955 -0.0176033 0)
(-0.0524336 -0.0183088 0)
(-0.0495673 -0.0188797 0)
(-0.0466159 -0.0193088 0)
(-0.0436001 -0.0195902 0)
(-0.0405412 -0.0197193 0)
(-0.037461 -0.019693 0)
(-0.034382 -0.0195099 0)
(-0.0313266 -0.0191705 0)
(-0.0283173 -0.0186771 0)
(-0.025376 -0.018034 0)
(-0.0225243 -0.0172476 0)
(-0.0197826 -0.0163267 0)
(-0.0171701 -0.0152821 0)
(-0.0147048 -0.0141271 0)
(-0.0124026 -0.0128774 0)
(-0.0102775 -0.0115512 0)
(-0.0083412 -0.0101692 0)
(-0.00660275 -0.00875476 0)
(-0.00506864 -0.00733422 0)
(-0.00374246 -0.00593664 0)
(-0.00262492 -0.00459418 0)
(-0.00171392 -0.00334222 0)
(-0.00100415 -0.00221953 0)
(-0.000486939 -0.00126829 0)
(-0.000157019 -0.000534163 0)
(-1.94097e-05 -6.87795e-05 0)
(-4.98108e-05 0.000646856 0)
(-0.000343827 0.00213711 0)
(-0.000992257 0.00375098 0)
(-0.00193881 0.00543051 0)
(-0.00315346 0.00712895 0)
(-0.0046195 0.00880747 0)
(-0.00631876 0.0104345 0)
(-0.00823237 0.0119851 0)
(-0.0103417 0.01344 0)
(-0.0126283 0.0147846 0)
(-0.0150738 0.0160086 0)
(-0.0176597 0.0171049 0)
(-0.0203678 0.0180693 0)
(-0.0231802 0.0188994 0)
(-0.0260788 0.0195949 0)
(-0.0290461 0.0201565 0)
(-0.0320646 0.0205859 0)
(-0.0351172 0.0208852 0)
(-0.038187 0.0210573 0)
(-0.0412576 0.0211049 0)
(-0.0443126 0.0210311 0)
(-0.0473363 0.0208387 0)
(-0.0503129 0.0205308 0)
(-0.0532274 0.0201101 0)
(-0.0560647 0.0195795 0)
(-0.0588105 0.0189419 0)
(-0.0614505 0.0181999 0)
(-0.063971 0.0173566 0)
(-0.0663588 0.016415 0)
(-0.068601 0.0153784 0)
(-0.0706852 0.0142503 0)
(-0.0725999 0.0130348 0)
(-0.0743337 0.0117362 0)
(-0.0758764 0.0103596 0)
(-0.0772182 0.00891034 0)
(-0.0783501 0.00739465 0)
(-0.0792643 0.00581933 0)
(-0.0799537 0.00419186 0)
(-0.0804124 0.00252047 0)
(-0.0806354 0.0008141 0)
(-0.0806192 -0.000917614 0)
(-0.0803613 -0.00266434 0)
(-0.0798608 -0.0044151 0)
(-0.0791179 -0.00615832 0)
(-0.0781348 -0.00788191 0)
(-0.0769146 -0.00957333 0)
(-0.0754625 -0.0112197 0)
(-0.0737851 -0.0128079 0)
(-0.0718907 -0.0143248 0)
(-0.0697892 -0.0157571 0)
(-0.0674923 -0.0170918 0)
(-0.065013 -0.0183163 0)
(-0.0623664 -0.0194185 0)
(-0.0595687 -0.0203869 0)
(-0.0566378 -0.0212109 0)
(-0.0535927 -0.021881 0)
(-0.050454 -0.0223888 0)
(-0.047243 -0.0227275 0)
(-0.0439822 -0.0228916 0)
(-0.0406944 -0.0228777 0)
(-0.0374033 -0.022684 0)
(-0.0341326 -0.0223108 0)
(-0.030906 -0.0217608 0)
(-0.0277469 -0.0210387 0)
(-0.0246781 -0.0201517 0)
(-0.0217216 -0.0191095 0)
(-0.0188982 -0.0179244 0)
(-0.0162271 -0.0166113 0)
(-0.0137257 -0.0151878 0)
(-0.0114096 -0.0136742 0)
(-0.00929192 -0.0120937 0)
(-0.00738318 -0.0104724 0)
(-0.00569135 -0.00883914 0)
(-0.00422151 -0.00722601 0)
(-0.00297588 -0.00566801 0)
(-0.00195392 -0.0042033 0)
(-0.00115189 -0.00287327 0)
(-0.000562554 -0.0017224 0)
(-0.000183157 -0.000798143 0)
(-2.31611e-05 -0.000153235 0)
(-5.55857e-05 0.0008298 0)
(-0.000381511 0.00265999 0)
(-0.00109771 0.00458987 0)
(-0.00213952 0.00656286 0)
(-0.00347166 0.0085332 0)
(-0.00507395 0.0104628 0)
(-0.00692498 0.0123205 0)
(-0.00900296 0.0140818 0)
(-0.0112867 0.0157277 0)
(-0.0137556 0.0172438 0)
(-0.0163893 0.0186201 0)
(-0.0191679 0.0198497 0)
(-0.0220717 0.0209285 0)
(-0.0250815 0.0218546 0)
(-0.0281784 0.0226278 0)
(-0.0313438 0.023249 0)
(-0.0345593 0.0237204 0)
(-0.0378073 0.0240444 0)
(-0.04107 0.0242241 0)
(-0.0443303 0.0242626 0)
(-0.0475714 0.0241633 0)
(-0.0507768 0.0239295 0)
(-0.0539304 0.0235643 0)
(-0.0570164 0.0230712 0)
(-0.0600193 0.0224531 0)
(-0.0629241 0.0217133 0)
(-0.0657163 0.0208551 0)
(-0.0683815 0.0198817 0)
(-0.070906 0.0187967 0)
(-0.0732765 0.0176039 0)
(-0.0754803 0.0163074 0)
(-0.0775052 0.0149117 0)
(-0.0793397 0.0134221 0)
(-0.080973 0.0118441 0)
(-0.0823949 0.0101841 0)
(-0.0835962 0.00844898 0)
(-0.0845687 0.00664657 0)
(-0.085305 0.00478538 0)
(-0.0857988 0.00287472 0)
(-0.086045 0.000924701 0)
(-0.0860396 -0.00105377 0)
(-0.0857802 -0.00304905 0)