/*--------------------------------*- C++ -*----------------------------------*\
| =========                 |                                                 |
| \\      /  F ield         | OpenFOAM: The Open Source CFD Toolbox           |
|  \\    /   O peration     | Version:  2506                                  |
|   \\  /    A nd           | Website:  www.openfoam.com                      |
|    \\/     M anipulation  |                                                 |
\*---------------------------------------------------------------------------*/
FoamFile
{
    version     2.0;
    format      ascii;
    arch        "LSB;label=32;scalar=64";
    class       volVectorField;
    location    "8.875";
    object      diffU;
}
// * * * * * * * * * * * * * * * * * * * * * * * * * * * * * * * * * * * * * //

dimensions      [0 1 -1 0 0 0 0];

internalField   nonuniform List<vector> 
400
(
(0 0 0)
(1.60982e-14 -1.72317e-13 0)
(1.24345e-14 -1.34941e-13 0)
(1.26565e-14 -1.43621e-13 0)
(1.24345e-14 -1.41675e-13 0)
(1.22125e-14 -1.42078e-13 0)
(1.23235e-14 -1.4199e-13 0)
(1.22125e-14 -1.42025e-13 0)
(1.23235e-14 -1.42045e-13 0)
(1.25455e-14 -1.42107e-13 0)
(1.27676e-14 -1.42038e-13 0)
(1.25455e-14 -1.41934e-13 0)
(1.25455e-14 -1.41967e-13 0)
(1.24345e-14 -1.42044e-13 0)
(1.22125e-14 -1.42057e-13 0)
(1.21014e-14 -1.41992e-13 0)
(1.19904e-14 -1.41937e-13 0)
(1.19904e-14 -1.42012e-13 0)
(1.17684e-14 -1.42085e-13 0)
(1.19904e-14 -1.42061e-13 0)
(3.16414e-14 -1.29398e-13 0)
(5.55112e-15 -1.4412e-13 0)
(1.11022e-14 -1.41451e-13 0)
(1.11022e-14 -1.42067e-13 0)
(1.08802e-14 -1.41966e-13 0)
(1.08802e-14 -1.42044e-13 0)
(1.13243e-14 -1.4209e-13 0)
(1.11022e-14 -1.42192e-13 0)
(1.15463e-14 -1.42336e-13 0)
(1.13243e-14 -1.42446e-13 0)
(1.15463e-14 -1.42315e-13 0)
(1.17684e-14 -1.42067e-13 0)
(1.22125e-14 -1.41902e-13 0)
(1.21014e-14 -1.41892e-13 0)
(1.22125e-14 -1.41871e-13 0)
(1.19904e-14 -1.41978e-13 0)
(1.17684e-14 -1.4198e-13 0)
(1.19904e-14 -1.41966e-13 0)
(1.17684e-14 -1.42092e-13 0)
(1.17684e-14 -1.42108e-13 0)
(6.43929e-15 -2.60193e-13 0)
(1.38778e-14 -1.16731e-13 0)
(1.19904e-14 -1.48024e-13 0)
(1.19904e-14 -1.40745e-13 0)
(1.23235e-14 -1.42319e-13 0)
(1.22125e-14 -1.42098e-13 0)
(1.22125e-14 -1.42279e-13 0)
(1.23235e-14 -1.4227e-13 0)
(1.22125e-14 -1.42338e-13 0)
(1.23235e-14 -1.42321e-13 0)
(1.17684e-14 -1.42228e-13 0)
(1.15463e-14 -1.42213e-13 0)
(1.15463e-14 -1.42131e-13 0)
(1.15463e-14 -1.42038e-13 0)
(1.17684e-14 -1.4193e-13 0)
(1.17684e-14 -1.41962e-13 0)
(1.19904e-14 -1.42047e-13 0)
(1.19904e-14 -1.42083e-13 0)
(1.21014e-14 -1.4211e-13 0)
(1.17684e-14 -1.42163e-13 0)
(-2.88658e-15 -5.66781e-14 0)
(1.64313e-14 -1.60628e-13 0)
(1.22125e-14 -1.37814e-13 0)
(1.24345e-14 -1.43121e-13 0)
(1.23235e-14 -1.41909e-13 0)
(1.27676e-14 -1.42153e-13 0)
(1.24345e-14 -1.42102e-13 0)
(1.22125e-14 -1.42137e-13 0)
(1.22125e-14 -1.42156e-13 0)
(1.19904e-14 -1.42057e-13 0)
(1.21014e-14 -1.42024e-13 0)
(1.21014e-14 -1.4207e-13 0)
(1.21014e-14 -1.42093e-13 0)
(1.19904e-14 -1.42046e-13 0)
(1.19904e-14 -1.42079e-13 0)
(1.19904e-14 -1.41941e-13 0)
(1.21014e-14 -1.4191e-13 0)
(1.17684e-14 -1.42087e-13 0)
(1.21014e-14 -1.42125e-13 0)
(1.19904e-14 -1.42145e-13 0)
(3.38618e-14 -1.42141e-13 0)
(6.66134e-15 -1.41993e-13 0)
(1.32117e-14 -1.42157e-13 0)
(1.19904e-14 -1.42098e-13 0)
(1.21014e-14 -1.42214e-13 0)
(1.19904e-14 -1.42196e-13 0)
(1.21014e-14 -1.42083e-13 0)
(1.24345e-14 -1.42099e-13 0)
(1.19904e-14 -1.42149e-13 0)
(1.19904e-14 -1.42135e-13 0)
(1.21014e-14 -1.42097e-13 0)
(1.17684e-14 -1.42011e-13 0)
(1.17684e-14 -1.42067e-13 0)
(1.19904e-14 -1.4209e-13 0)
(1.22125e-14 -1.42089e-13 0)
(1.19904e-14 -1.41966e-13 0)
(1.21014e-14 -1.41957e-13 0)
(1.21014e-14 -1.42019e-13 0)
(1.21014e-14 -1.42044e-13 0)
(1.21014e-14 -1.42094e-13 0)
(-2.22045e-15 -2.28614e-13 0)
(1.74305e-14 -1.23315e-13 0)
(1.25455e-14 -1.46388e-13 0)
(1.31006e-14 -1.41079e-13 0)
(1.29896e-14 -1.42267e-13 0)
(1.28786e-14 -1.4199e-13 0)
(1.23235e-14 -1.4205e-13 0)
(1.22125e-14 -1.41996e-13 0)
(1.19904e-14 -1.41935e-13 0)
(1.19904e-14 -1.41965e-13 0)
(1.17684e-14 -1.41981e-13 0)
(1.19904e-14 -1.42113e-13 0)
(1.19904e-14 -1.42189e-13 0)
(1.21014e-14 -1.42152e-13 0)
(1.17684e-14 -1.42108e-13 0)
(1.15463e-14 -1.42111e-13 0)
(1.19904e-14 -1.42085e-13 0)
(1.17684e-14 -1.41979e-13 0)
(1.19904e-14 -1.41988e-13 0)
(1.21014e-14 -1.42068e-13 0)
(1.75415e-14 -2.3025e-14 0)
(1.15463e-14 -1.6775e-13 0)
(1.28786e-14 -1.35819e-13 0)
(1.21014e-14 -1.43211e-13 0)
(1.22125e-14 -1.41522e-13 0)
(1.23235e-14 -1.41761e-13 0)
(1.24345e-14 -1.4176e-13 0)
(1.22125e-14 -1.41901e-13 0)
(1.23235e-14 -1.41912e-13 0)
(1.22125e-14 -1.41963e-13 0)
(1.21014e-14 -1.42042e-13 0)
(1.22125e-14 -1.42177e-13 0)
(1.17684e-14 -1.42197e-13 0)
(1.17684e-14 -1.42116e-13 0)
(1.19904e-14 -1.41984e-13 0)
(1.17684e-14 -1.42045e-13 0)
(1.17684e-14 -1.42071e-13 0)
(1.15463e-14 -1.42084e-13 0)
(1.19904e-14 -1.42155e-13 0)
(1.19904e-14 -1.42116e-13 0)
(1.95399e-14 -1.84928e-13 0)
(8.43769e-15 -1.32966e-13 0)
(1.13243e-14 -1.44245e-13 0)
(1.19904e-14 -1.41574e-13 0)
(1.19904e-14 -1.42172e-13 0)
(1.19904e-14 -1.42071e-13 0)
(1.22125e-14 -1.41997e-13 0)
(1.23235e-14 -1.41944e-13 0)
(1.23235e-14 -1.41928e-13 0)
(1.23235e-14 -1.41931e-13 0)
(1.23235e-14 -1.41937e-13 0)
(1.22125e-14 -1.41946e-13 0)
(1.21014e-14 -1.42099e-13 0)
(1.21014e-14 -1.42084e-13 0)
(1.19904e-14 -1.41912e-13 0)
(1.17684e-14 -1.41913e-13 0)
(1.19904e-14 -1.42043e-13 0)
(1.19904e-14 -1.42226e-13 0)
(1.21014e-14 -1.42212e-13 0)
(1.22125e-14 -1.42096e-13 0)
(6.21725e-15 -2.09774e-13 0)
(1.46549e-14 -1.27394e-13 0)
(1.23235e-14 -1.45597e-13 0)
(1.15463e-14 -1.41301e-13 0)
(1.21014e-14 -1.42167e-13 0)
(1.15463e-14 -1.42003e-13 0)
(1.15463e-14 -1.41958e-13 0)
(1.15463e-14 -1.4186e-13 0)
(1.15463e-14 -1.41841e-13 0)
(1.17684e-14 -1.41858e-13 0)
(1.15463e-14 -1.41916e-13 0)
(1.17684e-14 -1.41921e-13 0)
(1.19904e-14 -1.41961e-13 0)
(1.15463e-14 -1.42006e-13 0)
(1.17684e-14 -1.42127e-13 0)
(1.19904e-14 -1.42153e-13 0)
(1.25455e-14 -1.42138e-13 0)
(1.23235e-14 -1.42143e-13 0)
(1.21014e-14 -1.42061e-13 0)
(1.21014e-14 -1.42019e-13 0)
(1.25455e-14 -2.45239e-14 0)
(1.08802e-14 -1.67529e-13 0)
(1.13243e-14 -1.36047e-13 0)
(1.13243e-14 -1.43298e-13 0)
(1.13243e-14 -1.41723e-13 0)
(1.13243e-14 -1.42028e-13 0)
(1.15463e-14 -1.41903e-13 0)
(1.17684e-14 -1.41944e-13 0)
(1.17684e-14 -1.42085e-13 0)
(1.19904e-14 -1.42136e-13 0)
(1.19904e-14 -1.4212e-13 0)
(1.22125e-14 -1.42021e-13 0)
(1.23235e-14 -1.41964e-13 0)
(1.24345e-14 -1.42018e-13 0)
(1.23235e-14 -1.42138e-13 0)
(1.22125e-14 -1.42164e-13 0)
(1.19904e-14 -1.42086e-13 0)
(1.17684e-14 -1.41975e-13 0)
(1.17684e-14 -1.42012e-13 0)
(1.17684e-14 -1.42112e-13 0)
(9.54792e-15 -2.53933e-13 0)
(1.26565e-14 -1.17803e-13 0)
(1.19904e-14 -1.47484e-13 0)
(1.23235e-14 -1.407e-13 0)
(1.25455e-14 -1.4221e-13 0)
(1.22125e-14 -1.41928e-13 0)
(1.19904e-14 -1.42076e-13 0)
(1.23235e-14 -1.42117e-13 0)
(1.24345e-14 -1.42134e-13 0)
(1.22125e-14 -1.42067e-13 0)
(1.19904e-14 -1.42035e-13 0)
(1.19904e-14 -1.41985e-13 0)
(1.19904e-14 -1.42016e-13 0)
(1.17684e-14 -1.42014e-13 0)
(1.19904e-14 -1.42008e-13 0)
(1.19904e-14 -1.42031e-13 0)
(1.15463e-14 -1.42033e-13 0)
(1.17684e-14 -1.42042e-13 0)
(1.19904e-14 -1.42092e-13 0)
(1.22125e-14 -1.42136e-13 0)
(2.16493e-14 -7.08902e-14 0)
(1.06581e-14 -1.56964e-13 0)
(1.33227e-14 -1.3828e-13 0)
(1.08802e-14 -1.42562e-13 0)
(1.15463e-14 -1.41699e-13 0)
(1.15463e-14 -1.41962e-13 0)
(1.15463e-14 -1.42087e-13 0)
(1.19904e-14 -1.42198e-13 0)
(1.15463e-14 -1.42129e-13 0)
(1.19904e-14 -1.42098e-13 0)
(1.19904e-14 -1.42093e-13 0)
(1.21014e-14 -1.41983e-13 0)
(1.21014e-14 -1.41995e-13 0)
(1.21014e-14 -1.41984e-13 0)
(1.23235e-14 -1.41918e-13 0)
(1.23235e-14 -1.41907e-13 0)
(1.24345e-14 -1.41979e-13 0)
(1.19904e-14 -1.42122e-13 0)
(1.19904e-14 -1.42155e-13 0)
(1.19904e-14 -1.42053e-13 0)
(-6.66134e-16 -1.402e-13 0)
(1.15463e-14 -1.42781e-13 0)
(9.10383e-15 -1.41968e-13 0)
(1.17684e-14 -1.4209e-13 0)
(1.15463e-14 -1.42099e-13 0)
(1.15463e-14 -1.42091e-13 0)
(1.13243e-14 -1.42147e-13 0)
(1.17684e-14 -1.42254e-13 0)
(1.13243e-14 -1.42203e-13 0)
(1.15463e-14 -1.42268e-13 0)
(1.13243e-14 -1.4215e-13 0)
(1.11022e-14 -1.42028e-13 0)
(1.15463e-14 -1.41994e-13 0)
(1.13243e-14 -1.42018e-13 0)
(1.13243e-14 -1.42072e-13 0)
(1.15463e-14 -1.42092e-13 0)
(1.19904e-14 -1.42042e-13 0)
(1.21014e-14 -1.42022e-13 0)
(1.19904e-14 -1.42129e-13 0)
(1.15463e-14 -1.42127e-13 0)
(1.9762e-14 -2.33149e-13 0)
(1.19904e-14 -1.22512e-13 0)
(1.35447e-14 -1.46618e-13 0)
(1.13243e-14 -1.40914e-13 0)
(1.15463e-14 -1.42197e-13 0)
(1.15463e-14 -1.4206e-13 0)
(1.21014e-14 -1.42172e-13 0)
(1.19904e-14 -1.42184e-13 0)
(1.17684e-14 -1.42142e-13 0)
(1.22125e-14 -1.4209e-13 0)
(1.21014e-14 -1.41959e-13 0)
(1.21014e-14 -1.42114e-13 0)
(1.22125e-14 -1.42147e-13 0)
(1.21014e-14 -1.42142e-13 0)
(1.23235e-14 -1.42175e-13 0)
(1.23235e-14 -1.42152e-13 0)
(1.17684e-14 -1.42114e-13 0)
(1.19904e-14 -1.42076e-13 0)
(1.21014e-14 -1.42084e-13 0)
(1.21014e-14 -1.4216e-13 0)
(-3.33067e-15 -3.49478e-15 0)
(1.39888e-14 -1.71395e-13 0)
(9.99201e-15 -1.35053e-13 0)
(1.15463e-14 -1.43492e-13 0)
(1.17684e-14 -1.41852e-13 0)
(1.19904e-14 -1.42416e-13 0)
(1.15463e-14 -1.4241e-13 0)
(1.17684e-14 -1.42323e-13 0)
(1.19904e-14 -1.42277e-13 0)
(1.15463e-14 -1.42175e-13 0)
(1.17684e-14 -1.42085e-13 0)
(1.19904e-14 -1.421e-13 0)
(1.19904e-14 -1.41987e-13 0)
(1.17684e-14 -1.41989e-13 0)
(1.17684e-14 -1.42003e-13 0)
(1.17684e-14 -1.42023e-13 0)
(1.19904e-14 -1.42113e-13 0)
(1.17684e-14 -1.42139e-13 0)
(1.21014e-14 -1.42082e-13 0)
(1.22125e-14 -1.42071e-13 0)
(2.90878e-14 -2.19779e-13 0)
(7.10543e-15 -1.254e-13 0)
(1.19904e-14 -1.46177e-13 0)
(1.17684e-14 -1.41606e-13 0)
(1.22125e-14 -1.42572e-13 0)
(1.19904e-14 -1.4216e-13 0)
(1.21014e-14 -1.42182e-13 0)
(1.15463e-14 -1.4215e-13 0)
(1.15463e-14 -1.42169e-13 0)
(1.17684e-14 -1.42219e-13 0)
(1.19904e-14 -1.42285e-13 0)
(1.15463e-14 -1.4218e-13 0)
(1.17684e-14 -1.42033e-13 0)
(1.17684e-14 -1.42108e-13 0)
(1.21014e-14 -1.42181e-13 0)
(1.19904e-14 -1.4216e-13 0)
(1.21014e-14 -1.42225e-13 0)
(1.19904e-14 -1.42205e-13 0)
(1.19904e-14 -1.42127e-13 0)
(1.19904e-14 -1.42056e-13 0)
(-8.43769e-15 -1.80002e-13 0)
(1.86517e-14 -1.34521e-13 0)
(1.24345e-14 -1.44205e-13 0)
(1.32117e-14 -1.4195e-13 0)
(1.25455e-14 -1.42258e-13 0)
(1.22125e-14 -1.41992e-13 0)
(1.23235e-14 -1.41986e-13 0)
(1.22125e-14 -1.42082e-13 0)
(1.21014e-14 -1.42204e-13 0)
(1.23235e-14 -1.42189e-13 0)
(1.24345e-14 -1.42137e-13 0)
(1.21014e-14 -1.42095e-13 0)
(1.21014e-14 -1.42028e-13 0)
(1.23235e-14 -1.42047e-13 0)
(1.21014e-14 -1.42185e-13 0)
(1.19904e-14 -1.42214e-13 0)
(1.21014e-14 -1.42216e-13 0)
(1.19904e-14 -1.42177e-13 0)
(1.21014e-14 -1.42065e-13 0)
(1.22125e-14 -1.42052e-13 0)
(1.38778e-14 -2.32966e-14 0)
(1.17684e-14 -1.67632e-13 0)
(1.19904e-14 -1.36316e-13 0)
(1.15463e-14 -1.43467e-13 0)
(1.15463e-14 -1.41796e-13 0)
(1.17684e-14 -1.42151e-13 0)
(1.17684e-14 -1.41962e-13 0)
(1.17684e-14 -1.42021e-13 0)
(1.15463e-14 -1.42117e-13 0)
(1.13243e-14 -1.4212e-13 0)
(1.15463e-14 -1.42101e-13 0)
(1.15463e-14 -1.42103e-13 0)
(1.17684e-14 -1.42126e-13 0)
(1.21014e-14 -1.42204e-13 0)
(1.24345e-14 -1.42288e-13 0)
(1.24345e-14 -1.4225e-13 0)
(1.23235e-14 -1.42102e-13 0)
(1.19904e-14 -1.42052e-13 0)
(1.21014e-14 -1.42013e-13 0)
(1.19904e-14 -1.42018e-13 0)
(3.64153e-14 -1.87104e-13 0)
(6.21725e-15 -1.32343e-13 0)
(1.27676e-14 -1.44413e-13 0)
(1.17684e-14 -1.41573e-13 0)
(1.21014e-14 -1.42183e-13 0)
(1.17684e-14 -1.42087e-13 0)
(1.17684e-14 -1.42045e-13 0)
(1.22125e-14 -1.42006e-13 0)
(1.21014e-14 -1.42039e-13 0)
(1.22125e-14 -1.42136e-13 0)
(1.23235e-14 -1.42278e-13 0)
(1.23235e-14 -1.42315e-13 0)
(1.25455e-14 -1.42364e-13 0)
(1.26565e-14 -1.42404e-13 0)
(1.23235e-14 -1.42341e-13 0)
(1.21014e-14 -1.4216e-13 0)
(1.19904e-14 -1.42003e-13 0)
(1.19904e-14 -1.42004e-13 0)
(1.19904e-14 -1.41997e-13 0)
(1.21014e-14 -1.42009e-13 0)
(3.10862e-15 -2.25927e-13 0)
(1.53211e-14 -1.24606e-13 0)
(1.28786e-14 -1.46163e-13 0)
(1.28786e-14 -1.41131e-13 0)
(1.29896e-14 -1.42189e-13 0)
(1.28786e-14 -1.42033e-13 0)
(1.28786e-14 -1.42186e-13 0)
(1.27676e-14 -1.42165e-13 0)
(1.27676e-14 -1.42141e-13 0)
(1.26565e-14 -1.42153e-13 0)
(1.25455e-14 -1.42189e-13 0)
(1.25455e-14 -1.42179e-13 0)
(1.22125e-14 -1.42164e-13 0)
(1.19904e-14 -1.42137e-13 0)
(1.17684e-14 -1.42124e-13 0)
(1.15463e-14 -1.42061e-13 0)
(1.17684e-14 -1.4203e-13 0)
(1.17684e-14 -1.42035e-13 0)
(1.17684e-14 -1.4201e-13 0)
(1.21014e-14 -1.42032e-13 0)
)
;

boundaryField
{
    movingWall
    {
        type            calculated;
        value           uniform (1.19904e-14 -1.42071e-13 0);
    }
    fixedWalls
    {
        type            calculated;
        value           uniform (1.19904e-14 -1.42071e-13 0);
    }
    frontAndBack
    {
        type            empty;
    }
}


// ************************************************************************* //
