/*--------------------------------*- C++ -*----------------------------------*\
| =========                 |                                                 |
| \\      /  F ield         | OpenFOAM: The Open Source CFD Toolbox           |
|  \\    /   O peration     | Version:  2506                                  |
|   \\  /    A nd           | Website:  www.openfoam.com                      |
|    \\/     M anipulation  |                                                 |
\*---------------------------------------------------------------------------*/
FoamFile
{
    version     2.0;
    format      ascii;
    arch        "LSB;label=32;scalar=64";
    class       volScalarField;
    location    "8.875";
    object      divU;
}
// * * * * * * * * * * * * * * * * * * * * * * * * * * * * * * * * * * * * * //

dimensions      [0 0 -1 0 0 0 0];

internalField   nonuniform List<scalar> 
400
(
1.46909e-11
-1.98277e-12
4.22571e-13
-1.54588e-13
-4.1436e-15
1.92305e-15
6.10918e-15
-7.54964e-15
3.17935e-15
1.30712e-14
-2.10938e-14
-1.30526e-14
2.26815e-16
-6.57061e-15
2.13405e-14
-9.93145e-15
-4.65519e-15
1.63517e-14
-3.50284e-15
0
-2.46656e-11
3.46749e-12
-7.50201e-13
2.68478e-13
-6.85977e-14
2.70291e-14
3.1473e-14
-3.20383e-14
2.80789e-14
-8.30544e-15
-1.30379e-14
4.03765e-14
3.8041e-14
-5.95938e-15
-2.01377e-14
-3.39792e-14
-1.56366e-14
-7.21046e-14
-6.01631e-15
5.42101e-14
6.91179e-12
-1.1106e-12
1.82747e-13
-8.08406e-14
4.55118e-14
-1.09254e-14
3.20943e-15
5.92433e-16
1.90419e-14
-2.35618e-14
-3.81986e-14
-1.41046e-14
-8.24274e-15
-2.12893e-14
1.33201e-14
5.10338e-14
1.84963e-14
2.41971e-14
-3.63541e-14
-2.71051e-14
1.07336e-11
-1.00767e-12
1.73139e-13
-1.0763e-13
2.89741e-14
6.37007e-15
-5.85621e-14
1.77109e-14
-1.63327e-14
-4.98346e-15
2.91157e-14
3.31338e-14
-1.85509e-15
-2.65391e-14
-2.63992e-15
-3.59322e-15
3.62969e-16
3.57707e-15
-2.69611e-15
2.71051e-14
-1.55854e-11
1.66653e-12
-3.04827e-13
6.94514e-14
-6.83761e-15
-4.42565e-15
5.50832e-14
4.74199e-15
-2.13824e-14
4.21754e-15
6.36783e-15
-5.24902e-14
-1.13811e-14
7.11937e-14
-5.58846e-15
-4.77328e-14
9.98939e-15
1.44245e-14
1.09211e-14
-2.71051e-14
1.10318e-11
-1.0718e-12
2.2049e-13
-9.60954e-14
3.52339e-14
-4.21538e-14
-2.10094e-14
-2.60545e-15
2.33353e-15
2.14034e-14
-4.23007e-14
3.94066e-14
-2.43754e-14
-1.26657e-14
-7.63945e-14
2.56963e-14
5.28312e-14
-1.92403e-14
2.69145e-14
-2.71051e-14
4.87891e-12
-1.41354e-12
2.72185e-13
-1.18476e-13
4.47338e-14
3.10557e-14
-1.5713e-14
2.57939e-15
3.07527e-15
-2.31271e-15
1.63063e-14
-2.52291e-14
-4.24758e-14
4.84383e-14
2.45568e-14
-3.58413e-14
-2.4344e-14
1.02769e-14
3.17032e-14
0
-1.82688e-11
3.19131e-12
-6.24263e-13
2.62234e-13
-7.40202e-14
6.78734e-15
1.86992e-14
6.65017e-15
1.01758e-14
8.16955e-15
1.75698e-15
3.31285e-16
3.53106e-14
-2.19215e-14
-1.68392e-14
-1.95146e-14
-4.00456e-15
3.1546e-14
4.11762e-14
-5.42101e-14
1.5748e-11
-2.86706e-12
5.20796e-13
-2.35451e-13
5.22643e-14
-1.60589e-14
9.78784e-16
6.60268e-15
2.15291e-14
-1.23335e-14
-1.652e-14
4.70687e-14
-3.25689e-14
-1.53926e-14
6.89335e-14
3.67007e-14
1.8874e-14
2.45352e-15
-2.01781e-14
-2.71051e-14
-4.47233e-12
8.29621e-13
-1.28708e-13
6.85905e-14
-6.2167e-15
7.2788e-14
-1.07746e-14
8.06616e-15
1.93971e-14
-3.32424e-14
2.58555e-14
1.35702e-14
1.61023e-14
1.09137e-14
-2.75808e-14
-5.30906e-15
-2.47705e-14
-4.16638e-14
3.76655e-15
5.42101e-14
-4.8247e-12
1.2898e-12
-2.16487e-13
8.79761e-14
-3.8227e-15
-5.61796e-14
-2.92185e-14
9.76716e-15
-1.20424e-14
-2.94552e-14
-2.56741e-14
-9.72357e-15
-1.40502e-14
1.43863e-14
2.15587e-14
-3.37612e-14
-1.41263e-14
7.91209e-14
1.65271e-14
-2.71051e-14
1.22244e-11
-3.34932e-12
5.79058e-13
-3.49193e-13
1.15677e-13
-1.82379e-14
1.79125e-14
-3.97506e-15
-1.89482e-14
3.18167e-14
-1.01105e-14
1.30418e-14
1.52749e-14
1.40058e-14
-1.19195e-14
-1.27563e-14
1.20054e-14
-5.44606e-14
-1.42754e-14
0
-1.75641e-11
4.43271e-12
-7.69754e-13
3.84776e-13
-4.25545e-14
-8.50139e-16
-1.76774e-14
-2.54423e-15
6.86339e-15
5.53439e-15
-1.05132e-13
5.41876e-14
-2.70909e-14
-2.88973e-14
1.65982e-14
-1.02387e-14
5.27503e-14
4.36677e-15
-3.42586e-14
2.71051e-14
1.4447e-11
-3.49728e-12
5.99363e-13
-2.97511e-13
3.64373e-14
-6.30537e-15
3.73184e-14
-6.36153e-14
5.36475e-14
6.89944e-14
-1.72686e-14
1.98867e-14
-2.63617e-14
2.82035e-14
-3.6315e-15
-5.75781e-14
-6.26881e-14
7.40454e-14
-2.44817e-15
0
2.71051e-14
1.03861e-12
-2.23892e-13
1.21205e-13
-1.0473e-15
-1.63337e-14
9.19684e-15
-5.94525e-15
-3.35504e-15
-5.23199e-14
5.85265e-14
-1.38427e-14
-4.20211e-14
4.41155e-15
-4.24527e-15
-4.1109e-15
3.45937e-14
-2.02216e-14
4.74757e-14
-5.42101e-14
-1.64528e-11
1.98831e-12
-4.34362e-13
1.66955e-13
-1.45718e-14
2.60539e-14
-2.60848e-15
-8.99153e-15
3.0993e-14
5.30207e-16
-8.79455e-16
-1.32816e-14
3.52248e-14
5.28138e-14
-2.24737e-14
3.90774e-15
-2.99644e-14
3.05376e-15
-5.02594e-15
0
1.82688e-11
-2.12642e-12
4.43315e-13
-1.54636e-13
-1.83027e-14
-2.72943e-14
1.94119e-14
-2.32195e-14
3.62229e-14
1.03663e-14
1.75328e-14
-3.27127e-14
2.59433e-14
-1.09683e-14
-6.0241e-14
2.20157e-14
-1.76109e-14
4.55154e-14
3.35172e-14
-5.42101e-14
-5.42101e-13
-1.11784e-14
-1.11595e-14
1.86807e-14
1.62436e-14
1.74179e-14
-1.3599e-14
1.14814e-14
-1.42758e-15
-3.86244e-14
3.04642e-14
-5.00502e-16
1.93588e-14
7.57132e-15
5.47497e-15
3.48913e-16
3.69724e-15
-4.56146e-14
1.32564e-14
0
-1.84043e-11
1.93325e-12
-4.53722e-13
1.70876e-13
-5.01549e-14
-5.21136e-14
4.53297e-14
2.41596e-14
2.32826e-14
-1.4785e-14
-5.48798e-15
1.90426e-14
1.55741e-14
1.42986e-14
-3.23292e-14
-3.49741e-14
1.08425e-14
1.02555e-14
4.06171e-14
-2.71051e-14
1.23599e-11
-1.73472e-12
4.06576e-13
-1.35525e-13
2.71051e-14
0
0
-2.71051e-14
-2.71051e-14
2.71051e-14
0
0
-2.71051e-14
0
-5.42101e-14
2.71051e-14
0
0
5.42101e-14
0
)
;

boundaryField
{
    movingWall
    {
        type            extrapolatedCalculated;
        value           nonuniform List<scalar> 
20
(
1.23599e-11
-1.73472e-12
4.06576e-13
-1.35525e-13
2.71051e-14
0
0
-2.71051e-14
-2.71051e-14
2.71051e-14
0
0
-2.71051e-14
0
-5.42101e-14
2.71051e-14
0
0
5.42101e-14
0
)
;
    }
    fixedWalls
    {
        type            extrapolatedCalculated;
        value           nonuniform List<scalar> 
60
(
1.46909e-11
-2.46656e-11
6.91179e-12
1.07336e-11
-1.55854e-11
1.10318e-11
4.87891e-12
-1.82688e-11
1.5748e-11
-4.47233e-12
-4.8247e-12
1.22244e-11
-1.75641e-11
1.4447e-11
2.71051e-14
-1.64528e-11
1.82688e-11
-5.42101e-13
-1.84043e-11
1.23599e-11
0
5.42101e-14
-2.71051e-14
2.71051e-14
-2.71051e-14
-2.71051e-14
0
-5.42101e-14
-2.71051e-14
5.42101e-14
-2.71051e-14
0
2.71051e-14
0
-5.42101e-14
0
-5.42101e-14
0
-2.71051e-14
0
1.46909e-11
-1.98277e-12
4.22571e-13
-1.54588e-13
-4.1436e-15
1.92305e-15
6.10918e-15
-7.54964e-15
3.17935e-15
1.30712e-14
-2.10938e-14
-1.30526e-14
2.26815e-16
-6.57061e-15
2.13405e-14
-9.93145e-15
-4.65519e-15
1.63517e-14
-3.50284e-15
0
)
;
    }
    frontAndBack
    {
        type            empty;
    }
}


// ************************************************************************* //
