/*--------------------------------*- C++ -*----------------------------------*\
| =========                 |                                                 |
| \\      /  F ield         | OpenFOAM: The Open Source CFD Toolbox           |
|  \\    /   O peration     | Version:  2506                                  |
|   \\  /    A nd           | Website:  www.openfoam.com                      |
|    \\/     M anipulation  |                                                 |
\*---------------------------------------------------------------------------*/
FoamFile
{
    version     2.0;
    format      ascii;
    arch        "LSB;label=32;scalar=64";
    class       volScalarField;
    location    "8.875";
    object      enstrophyField;
}
// * * * * * * * * * * * * * * * * * * * * * * * * * * * * * * * * * * * * * //

dimensions      [0 0 -2 0 0 0 0];

internalField   nonuniform List<scalar> 
400
(
5.43245e-23
8.77831e-23
4.27453e-24
2.08849e-25
1.64443e-26
1.23789e-27
1.77388e-27
1.19045e-27
3.35715e-29
2.30572e-31
6.8136e-28
1.10928e-27
4.26353e-27
1.99921e-27
1.20298e-27
7.20808e-29
1.91036e-30
1.08935e-28
1.21424e-27
8.50057e-32
8.48057e-26
4.88585e-25
2.70164e-26
2.96802e-28
4.31266e-28
7.68712e-29
1.09899e-28
3.03052e-28
4.1515e-28
1.58839e-27
1.50375e-26
1.12106e-26
1.17097e-26
6.21075e-27
1.04378e-27
9.37999e-28
6.41584e-31
6.26332e-29
2.34067e-27
1.80538e-27
1.70285e-23
5.13358e-23
3.14978e-24
9.45765e-26
3.66711e-26
1.25739e-26
7.88227e-27
6.53227e-27
6.44139e-27
4.75115e-27
2.48721e-27
4.7646e-29
1.52607e-28
2.02102e-28
1.91059e-27
6.85228e-29
7.38489e-29
1.97979e-29
6.13965e-28
8.54551e-29
7.89271e-24
2.72452e-23
1.34857e-24
8.3854e-26
4.68388e-27
1.85225e-28
1.20045e-30
1.45399e-29
6.17338e-28
2.26763e-27
4.04232e-28
1.8679e-27
1.33956e-27
1.39139e-27
2.50687e-27
6.96662e-28
8.73146e-28
2.3011e-28
1.63763e-29
8.59743e-28
3.24709e-27
6.04814e-27
2.0889e-27
1.79426e-27
2.05454e-27
8.48384e-29
4.79349e-29
2.17012e-29
2.75723e-28
1.3567e-29
7.77982e-28
4.63687e-30
1.07172e-27
2.51508e-30
7.81845e-28
2.27375e-27
2.38797e-28
3.7944e-29
1.90968e-28
3.76602e-28
1.31342e-23
2.99122e-23
1.48294e-24
7.41119e-26
6.98505e-27
5.25541e-28
3.84441e-28
6.54093e-29
1.30624e-27
5.01458e-28
1.10088e-28
1.14717e-27
1.69005e-27
3.22842e-29
1.70355e-27
4.33881e-28
8.70991e-29
2.03862e-27
3.95595e-29
3.65459e-29
2.54979e-23
5.36427e-23
3.28284e-24
9.44949e-26
3.21189e-26
1.65268e-27
8.53725e-29
1.15516e-28
1.91823e-29
8.02819e-28
2.85607e-27
9.07196e-28
1.84e-29
2.26008e-28
1.10983e-27
6.39295e-28
7.7024e-30
3.57413e-29
4.57649e-28
8.34478e-29
2.56276e-24
7.00515e-24
3.03739e-25
3.41881e-26
1.23554e-27
7.93882e-27
7.33104e-27
1.86618e-27
1.54079e-27
1.42052e-27
1.38666e-27
7.22899e-28
9.40379e-29
2.65553e-27
1.45246e-28
2.26825e-27
3.6536e-27
4.81459e-27
8.4043e-29
5.51748e-29
1.0446e-23
1.90576e-23
9.67067e-25
6.84757e-26
6.16487e-29
1.15335e-27
8.57231e-28
4.32579e-27
3.32379e-27
2.82016e-29
1.14814e-27
9.99077e-30
1.96871e-27
2.5075e-27
8.71195e-28
3.98524e-28
5.17654e-31
3.02943e-29
7.76817e-28
1.15353e-27
3.92188e-23
5.97925e-23
3.00186e-24
1.76808e-25
2.64724e-27
1.01716e-27
1.75677e-28
4.95696e-27
8.13755e-27
4.66312e-28
9.12819e-28
6.70341e-29
3.75177e-28
9.91076e-28
1.0636e-28
1.39266e-29
8.111e-27
3.9329e-27
9.47032e-29
1.53283e-30
4.65987e-23
5.66564e-23
3.14139e-24
1.53744e-25
1.12321e-26
8.31079e-28
1.78082e-28
1.7997e-27
5.1377e-28
4.89283e-29
3.38249e-29
4.18493e-28
4.33368e-30
3.90415e-28
4.13077e-28
4.37263e-28
1.52905e-27
1.76546e-29
4.48261e-29
1.69944e-28
2.19891e-23
2.1803e-23
1.46427e-24
4.1369e-26
1.41718e-26
9.02227e-28
6.13879e-30
1.25331e-27
1.05943e-26
3.60368e-27
2.15935e-27
4.15083e-27
3.30192e-27
1.9143e-27
6.742e-27
1.15668e-27
2.87003e-27
2.57939e-27
2.38e-29
3.8709e-27
4.67414e-26
4.87721e-26
2.38727e-27
2.2659e-27
4.80097e-34
1.11295e-29
9.44004e-28
1.18091e-27
1.54351e-27
1.19822e-27
2.8629e-28
1.21479e-28
1.41486e-27
3.00696e-29
2.70657e-29
4.29978e-30
6.65559e-27
3.75524e-29
7.04959e-28
6.49576e-29
2.36733e-23
3.53566e-23
1.84612e-24
9.77494e-26
6.56022e-27
3.02951e-28
7.75384e-29
4.64316e-30
2.58377e-27
1.66947e-28
1.60125e-27
5.01761e-27
4.46701e-28
1.62314e-27
3.39522e-27
2.20301e-28
2.92732e-29
4.41806e-30
3.547e-29
2.52476e-27
4.97658e-23
8.05824e-23
4.35975e-24
2.31076e-25
3.45298e-28
6.05321e-27
4.37404e-29
8.15546e-28
2.37844e-27
5.05481e-27
2.79965e-29
2.04658e-27
4.27043e-27
1.38345e-27
2.81501e-28
1.30314e-28
2.16242e-27
4.67355e-30
5.73962e-28
6.15375e-31
1.57691e-23
2.38009e-23
1.7891e-24
1.95884e-26
9.34526e-27
7.02476e-29
5.76576e-27
3.2035e-27
2.39751e-29
7.19762e-27
1.26609e-27
3.17772e-28
1.1072e-27
2.38295e-27
5.20035e-28
9.72459e-30
5.01252e-28
4.82624e-29
7.41324e-29
8.57799e-30
1.07465e-24
4.8636e-24
2.75949e-25
1.89645e-26
2.97431e-27
1.47535e-27
1.02308e-27
2.3937e-28
5.6804e-29
3.88149e-27
2.02337e-27
5.93425e-29
1.11989e-29
2.44847e-27
9.57512e-28
1.64111e-27
2.73821e-28
1.14213e-28
7.74181e-29
2.96879e-30
1.16253e-23
5.08259e-23
2.85467e-24
7.42362e-26
1.72497e-26
7.07043e-28
2.26199e-27
1.2042e-28
4.96566e-29
1.31609e-30
1.49168e-30
1.6071e-27
2.06747e-27
9.37931e-28
1.04434e-29
1.73086e-28
1.09987e-27
3.96869e-29
4.64308e-28
6.15185e-29
2.99215e-24
7.88408e-24
5.31911e-25
3.82493e-27
2.29211e-26
4.47004e-27
5.03026e-27
5.81418e-27
1.10351e-26
1.27147e-26
4.91324e-27
4.04431e-27
3.99611e-29
4.32985e-28
3.09393e-27
1.01171e-26
4.69194e-27
1.50481e-27
1.44413e-27
9.33012e-29
1.29753e-23
2.96863e-23
1.06988e-24
1.01984e-25
1.66051e-28
1.48574e-27
8.42554e-28
6.3724e-27
3.40401e-27
2.925e-27
3.10047e-27
3.51908e-27
1.70563e-27
1.69331e-27
2.88009e-29
1.00644e-27
1.33339e-27
1.36193e-27
1.44952e-27
1.46169e-28
)
;

boundaryField
{
    movingWall
    {
        type            calculated;
        value           nonuniform List<scalar> 
20
(
5.19371e-23
4.33257e-23
8.41438e-25
2.83271e-25
4.78901e-26
6.32159e-26
5.85201e-26
4.97181e-26
4.86901e-26
3.42235e-26
2.40848e-26
2.52278e-26
4.32578e-27
7.93804e-30
3.29902e-27
1.41609e-26
3.7194e-27
3.76697e-27
3.91174e-27
5.91741e-28
)
;
    }
    fixedWalls
    {
        type            calculated;
        value           nonuniform List<scalar> 
60
(
1.57189e-21
9.76231e-24
9.59503e-22
4.94445e-22
5.98877e-27
5.43303e-22
1.03162e-21
1.28506e-22
3.47146e-22
1.08888e-21
1.04147e-21
4.34392e-22
4.39886e-25
6.5378e-22
1.48413e-21
4.68041e-22
9.24831e-23
9.24942e-22
1.43296e-22
5.1192e-22
7.26006e-30
2.39268e-27
6.7636e-28
3.05507e-28
1.57803e-28
7.33061e-31
1.6068e-28
1.44206e-28
5.65843e-28
1.37133e-28
4.30007e-31
2.75217e-27
2.48733e-28
1.04061e-27
4.26542e-34
1.74233e-29
2.72293e-29
2.22343e-28
3.09921e-28
6.47569e-29
1.27658e-22
1.14568e-22
3.62351e-24
4.41664e-25
2.73511e-28
7.24518e-27
8.17586e-27
4.43998e-27
9.99993e-27
2.45013e-26
4.30909e-26
2.30988e-26
2.71612e-26
1.74207e-26
3.49936e-27
5.24951e-28
1.91036e-30
1.08935e-28
3.51855e-27
8.50057e-32
)
;
    }
    frontAndBack
    {
        type            empty;
    }
}


// ************************************************************************* //
