/*--------------------------------*- C++ -*----------------------------------*\
| =========                 |                                                 |
| \\      /  F ield         | OpenFOAM: The Open Source CFD Toolbox           |
|  \\    /   O peration     | Version:  2506                                  |
|   \\  /    A nd           | Website:  www.openfoam.com                      |
|    \\/     M anipulation  |                                                 |
\*---------------------------------------------------------------------------*/
FoamFile
{
    version     2.0;
    format      ascii;
    arch        "LSB;label=32;scalar=64";
    class       volScalarField;
    location    "8.875";
    object      flowTypeField;
}
// * * * * * * * * * * * * * * * * * * * * * * * * * * * * * * * * * * * * * //

dimensions      [0 0 0 0 0 0 0];

internalField   nonuniform List<scalar> 
400
(
0.410726
0.0479313
0.0230782
0.0633584
-0.0485682
0.384873
-0.0899498
0.106332
0.710014
0.971807
0.350264
0.225838
-0.0188239
0.0210968
0.149912
0.578742
0.899896
0.290621
0.0914922
0.613465
0.977879
0.791885
0.793617
0.886483
0.51978
0.516373
0.702265
0.26081
0.601769
0.0325123
-0.261283
-0.0375029
-0.0350258
-0.0277638
0.244301
0.268798
0.796904
0.737724
-0.256953
0.206623
0.474246
0.106332
-0.0296476
0.248193
-0.743896
0.026893
-0.156956
-0.0524483
-0.0318563
0.21787
0.282697
0.587301
0.289205
0.185223
0.04056
0.726721
0.121179
0.720935
0.1013
0.0340827
0.657318
0.139642
0.125884
0.0509702
0.0412133
0.392956
0.962777
0.614057
0.175758
-0.0406857
0.268004
-0.0502215
0.0507966
0.124782
0.142395
0.307439
-0.394243
0.0406545
0.286698
0.236906
0.993365
0.963944
0.912954
0.705254
0.0933608
0.549989
0.76367
0.497776
0.572553
0.426712
-0.412374
0.907833
0.155193
0.950697
-0.432264
-0.0489971
0.430208
0.321609
0.33183
0.267403
0.572964
0.111389
0.102982
0.097304
0.0198911
0.641538
0.534791
0.605988
0.197826
0.0223388
0.671803
0.250529
-0.0407124
0.0421185
0.365027
0.224997
0.704292
-0.165457
0.63547
0.624901
0.294479
0.0854843
-0.0397756
0.245767
-0.642122
0.320895
0.613146
0.0500509
0.00634956
-0.44564
-0.381766
0.307476
0.841432
0.572728
0.174303
0.396479
0.790947
0.706388
0.475088
0.0217927
0.84414
0.322052
0.382482
0.117123
0.349715
-0.0932323
-0.0619659
-0.12177
-0.0149771
0.0337764
0.0519974
0.391829
0.436457
-0.142487
0.209239
-0.209192
-0.542538
-0.129371
0.520322
0.778444
0.674042
0.147211
0.144045
0.0466199
0.866428
-0.0984527
-0.374862
-0.142629
0.062111
0.577265
0.155233
0.875851
0.183327
-0.128882
0.479725
0.509646
0.916364
0.726252
0.115069
0.194459
0.126431
0.0230435
-0.00784856
-0.0416114
0.424803
0.263807
0.34425
-0.0946604
-0.0112406
0.105089
0.288074
0.654075
0.262862
-0.624296
0.493088
0.756016
-0.127102
0.0950285
0.0238663
0.939763
0.0296233
0.00513428
-0.0889871
-0.0393707
-0.219209
0.42731
0.253854
0.0862185
-0.16062
0.586409
0.635626
-0.0548666
0.237568
-0.0217795
0.16337
0.492674
0.0961345
0.89308
0.63181
0.47515
0.43341
0.0843227
-0.09787
0.302796
-0.0204664
0.480399
0.87841
0.101245
-0.0721866
0.140137
-0.177233
-0.0560064
0.000992112
-0.0127521
-0.0685929
0.116245
-0.392098
0.0832375
0.103571
-0.0812657
0.97373
0.883586
0.888687
0.701681
0.979466
0.474871
-0.448245
0.102463
-0.0243036
0.0958144
0.728802
0.66537
0.0535327
0.484313
0.828285
0.870439
0.0538612
0.10437
0.351929
0.736226
0.501718
0.0770719
0.0239235
0.0961529
0.0222342
0.454583
0.736785
0.908202
0.246014
0.618792
0.0693224
-0.149186
0.202293
0.05958
-0.00966365
0.59261
0.807289
0.938974
0.112368
0.165778
0.0990088
0.0399489
-0.0528861
0.0405729
0.762872
-0.761682
0.00542891
-0.455557
-0.266496
-0.143018
0.876871
-0.16748
0.0642805
0.0310279
0.121631
0.394268
0.149523
0.67325
0.397633
0.954922
0.643304
0.168966
0.0261149
0.481463
-0.297022
0.77238
0.153123
0.0960216
0.68604
-0.105834
0.0747201
0.285148
0.210841
0.111727
0.0239045
0.806582
0.189696
0.0620713
0.537344
0.0715837
0.901235
0.42822
0.40525
0.256482
0.454877
-0.169722
0.215291
0.364108
0.567356
-0.0743844
-0.100907
0.567196
0.768224
-0.260569
0.282797
0.0635116
0.373841
0.498587
0.54087
0.922127
0.483729
0.108212
0.0112494
0.298357
-0.406157
0.364948
-0.228258
0.0936995
0.628077
0.941815
0.940915
0.114264
0.217614
0.358067
0.790778
0.0380275
0.0246082
0.789312
-0.084119
0.0639354
0.845095
0.353118
0.267738
0.697163
-0.264392
0.210313
0.17462
0.0419337
-0.0724499
-0.175323
-0.208187
-0.0405381
0.614715
-0.0502068
0.0409881
-0.126015
-0.184075
-0.011362
0.106898
0.485154
0.593888
0.0886217
0.174963
-0.0618755
0.828613
-0.00473895
0.247585
-0.00899017
0.0374245
0.0730183
0.132914
0.0903966
0.289608
0.183796
0.875227
0.248784
0.0641172
0.0526484
0.278845
0.389259
)
;

boundaryField
{
    movingWall
    {
        type            calculated;
        value           nonuniform List<scalar> 
20
(
0.646925
0.125701
0.407636
-0.170624
0.229625
3.98151e-05
0.0446093
-0.00316566
0.00396561
0.0252989
0.039362
0.0139526
0.148326
0.841064
0.304625
0.0628345
0.0438485
0.0344769
0.160442
0.257745
)
;
    }
    fixedWalls
    {
        type            calculated;
        value           nonuniform List<scalar> 
60
(
0.0500484
0.79579
0.0837903
0.135888
0.991958
0.10613
0.050887
0.33779
0.15531
0.0118119
-0.0142206
0.0456868
0.924858
0.07133
0.0232256
0.149987
0.43377
0.094901
0.373386
0.109385
0.156285
0.311378
0.556834
0.539366
0.601022
0.941449
0.0117304
0.764309
0.482464
0.763034
0.976489
0.0869119
0.83348
0.485444
0.988487
0.0397117
0.879959
0.0200232
0.454636
0.731856
0.669195
0.159626
0.307158
0.0140317
0.88857
-0.351325
0.0653421
-0.0374778
-0.0357232
0.0327899
0.0563146
0.0650246
-0.0233317
-0.036171
0.0593538
0.425019
0.939719
0.411664
0.0567454
0.690388
)
;
    }
    frontAndBack
    {
        type            empty;
    }
}


// ************************************************************************* //
