/*--------------------------------*- C++ -*----------------------------------*\
| =========                 |                                                 |
| \\      /  F ield         | OpenFOAM: The Open Source CFD Toolbox           |
|  \\    /   O peration     | Version:  2506                                  |
|   \\  /    A nd           | Website:  www.openfoam.com                      |
|    \\/     M anipulation  |                                                 |
\*---------------------------------------------------------------------------*/
FoamFile
{
    version     2.0;
    format      ascii;
    arch        "LSB;label=32;scalar=64";
    class       surfaceScalarField;
    location    "8.875";
    object      fluxField;
}
// * * * * * * * * * * * * * * * * * * * * * * * * * * * * * * * * * * * * * //

dimensions      [0 3 -1 0 0 0 0];

oriented        oriented;

internalField   nonuniform List<scalar> 
760
(
-5e-05
3.8686e-18
-5e-05
-8.074e-19
-5e-05
1.93734e-19
-5e-05
-3.8647e-20
-5e-05
1.25166e-20
-5e-05
4.80763e-22
-5e-05
1.52729e-21
-5e-05
-1.88741e-21
-5e-05
-5.98143e-21
-5e-05
-1.02847e-20
-5e-05
-5.27344e-21
-5e-05
3.51311e-21
-5e-05
6.83297e-21
-5e-05
5.13361e-21
-5e-05
5.33511e-21
-5e-05
4.2934e-21
-5e-05
5.61247e-21
-5e-05
4.08793e-21
-5e-05
-8.75711e-22
-6.97226e-22
-5e-05
-2.63623e-18
-5e-05
5.8227e-19
-5e-05
-1.3334e-19
-5e-05
3.32381e-20
-5e-05
-3.59689e-21
-5e-05
-1.8988e-23
-5e-05
-5.68427e-21
-5e-05
-8.00957e-21
-5e-05
-1.33091e-20
-5e-05
-1.56289e-20
-5e-05
-1.00357e-20
-5e-05
-3.45841e-21
-5e-05
2.73399e-21
-5e-05
5.28642e-21
-5e-05
8.5181e-21
-5e-05
5.05773e-21
-5e-05
2.86711e-21
-5e-05
2.30265e-21
-5e-05
-1.50408e-21
-3.23409e-21
-5e-05
-8.1823e-19
-5e-05
1.69583e-19
-5e-05
-4.24048e-20
-5e-05
6.89491e-21
-5e-05
-2.17458e-21
-5e-05
-2.73134e-21
-5e-05
-5.9739e-21
-5e-05
-6.62816e-21
-5e-05
-8.79205e-21
-5e-05
-5.89045e-21
-5e-05
-2.77337e-21
-5e-05
-3.52615e-21
-5e-05
-2.06069e-21
-5e-05
1.45394e-21
-5e-05
3.33002e-21
-5e-05
5.9822e-21
-5e-05
4.62407e-21
-5e-05
-7.26983e-22
-5e-05
-2.31225e-21
-4.14192e-21
-5e-05
2.13306e-18
-5e-05
-4.61981e-19
-5e-05
1.04271e-19
-5e-05
-2.69076e-20
-5e-05
4.67256e-22
-5e-05
-5.18375e-21
-5e-05
-1.08801e-21
-5e-05
-2.34855e-21
-5e-05
-4.08316e-21
-5e-05
-1.24587e-21
-5e-05
5.02657e-22
-5e-05
1.50719e-21
-5e-05
-4.63774e-22
-5e-05
1.41479e-22
-5e-05
-6.5998e-22
-5e-05
5.87796e-21
-5e-05
6.86701e-21
-5e-05
8.94268e-22
-5e-05
-6.74028e-22
-2.42695e-21
-5e-05
-2.16533e-18
-5e-05
4.70842e-19
-5e-05
-1.10088e-19
-5e-05
2.41391e-20
-5e-05
-8.48567e-21
-5e-05
-1.10641e-21
-5e-05
2.18265e-22
-5e-05
1.1855e-21
-5e-05
1.43065e-21
-5e-05
1.05438e-21
-5e-05
1.59196e-21
-5e-05
4.29968e-22
-5e-05
-2.84528e-21
-5e-05
-2.53036e-21
-5e-05
-1.39712e-21
-5e-05
1.61932e-21
-5e-05
2.49735e-21
-5e-05
3.60613e-21
-5e-05
2.73028e-21
-5.08057e-22
-5e-05
8.12577e-19
-5e-05
-1.73083e-19
-5e-05
4.83463e-20
-5e-05
-3.69505e-21
-5e-05
8.80849e-21
-5e-05
9.79035e-21
-5e-05
8.30018e-21
-5e-05
6.1249e-21
-5e-05
7.35965e-21
-5e-05
5.35085e-21
-5e-05
2.97736e-21
-5e-05
-3.70089e-21
-5e-05
-6.09385e-21
-5e-05
-3.16643e-21
-5e-05
1.23017e-21
-5e-05
-3.5218e-22
-5e-05
-3.44725e-22
-5e-05
1.9662e-21
-5e-05
-4.76292e-23
-1.04473e-21
-5e-05
1.90471e-18
-5e-05
-4.1437e-19
-5e-05
1.01928e-19
-5e-05
-1.60665e-20
-5e-05
1.11835e-20
-5e-05
7.76392e-21
-5e-05
9.62428e-21
-5e-05
7.42111e-21
-5e-05
7.54508e-21
-5e-05
6.19809e-21
-5e-05
4.07658e-21
-5e-05
4.68993e-22
-5e-05
-3.84269e-21
-5e-05
-1.44295e-21
-5e-05
6.1392e-21
-5e-05
4.5922e-21
-5e-05
6.90268e-22
-5e-05
-4.20704e-21
-5e-05
-5.62673e-21
-1.75305e-21
-5e-05
-2.76401e-18
-5e-05
5.94541e-19
-5e-05
-1.42513e-19
-5e-05
3.16771e-20
-5e-05
-4.95252e-21
-5e-05
1.69683e-21
-5e-05
4.67481e-21
-5e-05
8.43881e-21
-5e-05
9.32022e-21
-5e-05
8.81865e-21
-5e-05
7.21551e-21
-5e-05
6.85908e-21
-5e-05
2.05138e-21
-5e-05
1.29588e-21
-5e-05
2.56646e-21
-5e-05
1.89761e-21
-5e-05
-1.00114e-21
-5e-05
-5.66603e-21
-5e-05
-3.25848e-21
6.5295e-22
-5e-05
1.2461e-18
-5e-05
-2.69532e-19
-5e-05
6.24364e-20
-5e-05
-1.1429e-20
-5e-05
6.2898e-21
-5e-05
2.76154e-21
-5e-05
7.02096e-21
-5e-05
8.42693e-21
-5e-05
5.38227e-21
-5e-05
3.6929e-21
-5e-05
2.64625e-21
-5e-05
4.99092e-21
-5e-05
5.4103e-21
-5e-05
2.92812e-21
-5e-05
-3.09542e-21
-5e-05
-4.37734e-21
-5e-05
-2.05777e-21
-5e-05
6.13379e-22
-5e-05
1.73174e-21
2.50535e-22
-5e-05
1.42127e-19
-5e-05
-2.97639e-20
-5e-05
1.52568e-20
-5e-05
3.5951e-21
-5e-05
5.22209e-21
-5e-05
4.64447e-21
-5e-05
4.08261e-21
-5e-05
2.01654e-21
-5e-05
-1.927e-21
-5e-05
-1.53433e-21
-5e-05
-3.12398e-22
-5e-05
3.39256e-21
-5e-05
4.02558e-21
-5e-05
2.72843e-21
-5e-05
-1.1893e-22
-5e-05
-1.32727e-21
-5e-05
5.8364e-22
-5e-05
3.13658e-21
-5e-05
9.41638e-22
-2.67117e-21
-5e-05
-1.01703e-18
-5e-05
2.34358e-19
-5e-05
-4.05693e-20
-5e-05
2.1994e-20
-5e-05
5.82059e-21
-5e-05
6.28388e-21
-5e-05
-5.28355e-22
-5e-05
-4.33447e-21
-5e-05
-3.01059e-21
-5e-05
-5.87527e-22
-5e-05
3.57729e-22
-5e-05
4.34537e-21
-5e-05
3.26371e-21
-5e-05
3.59658e-21
-5e-05
5.38967e-21
-5e-05
5.11222e-21
-5e-05
3.24468e-21
-5e-05
-5.48562e-22
-5e-05
-2.64449e-21
-1.19086e-21
-5e-05
1.82628e-18
-5e-05
-3.90096e-19
-5e-05
9.73306e-20
-5e-05
-1.27593e-20
-5e-05
8.59042e-21
-5e-05
2.21679e-21
-5e-05
-2.29815e-21
-5e-05
-7.77003e-21
-5e-05
-4.73705e-21
-5e-05
-5.59836e-21
-5e-05
-2.52762e-21
-5e-05
3.26046e-21
-5e-05
3.81873e-21
-5e-05
3.50145e-21
-5e-05
3.79639e-21
-5e-05
3.5872e-21
-5e-05
3.00136e-21
-5e-05
-6.26155e-23
-5e-05
-3.56885e-21
-9.48754e-22
-5e-05
-2.23019e-18
-5e-05
4.71208e-19
-5e-05
-1.11123e-19
-5e-05
2.84313e-20
-5e-05
-3.86236e-21
-5e-05
-2.12535e-22
-5e-05
-4.41935e-21
-5e-05
-7.41232e-21
-5e-05
-5.06042e-21
-5e-05
-5.39267e-21
-5e-05
8.21952e-22
-5e-05
-5.6366e-24
-5e-05
3.53587e-24
-5e-05
-4.48067e-22
-5e-05
-2.6267e-21
-5e-05
-2.55967e-21
-5e-05
-3.64945e-22
-5e-05
1.09169e-21
-5e-05
-1.78838e-21
-3.62491e-21
-5e-05
1.18745e-18
-5e-05
-2.44127e-19
-5e-05
6.17494e-20
-5e-05
-6.61508e-21
-5e-05
2.33307e-21
-5e-05
-8.35261e-21
-5e-05
-1.09992e-20
-5e-05
-9.12757e-21
-5e-05
-6.91693e-21
-5e-05
-3.08018e-21
-5e-05
2.45912e-21
-5e-05
-1.8046e-21
-5e-05
1.85842e-22
-5e-05
2.74609e-22
-5e-05
-9.07875e-22
-5e-05
-8.41993e-22
-5e-05
-2.11951e-21
-5e-05
-1.81744e-21
-5e-05
-6.12041e-22
-2.22909e-21
-5e-05
1.52169e-18
-5e-05
-3.16331e-19
-5e-05
7.27759e-20
-5e-05
-2.39087e-20
-5e-05
-7.03809e-21
-5e-05
-1.08597e-20
-5e-05
-1.12533e-20
-5e-05
-8.26258e-21
-5e-05
-7.61502e-21
-5e-05
-6.30371e-21
-5e-05
-5.69716e-21
-5e-05
-3.46068e-21
-5e-05
3.04726e-21
-5e-05
1.10289e-21
-5e-05
-1.06132e-21
-5e-05
-1.02772e-21
-5e-05
-4.90411e-21
-5e-05
-5.05539e-21
-5e-05
-1.68361e-21
3.70769e-22
-5e-05
-2.89098e-18
-5e-05
6.05499e-19
-5e-05
-1.56024e-19
-5e-05
1.46337e-20
-5e-05
-1.71955e-20
-5e-05
-2.62782e-22
-5e-05
-6.52121e-22
-5e-05
-2.24788e-21
-5e-05
-5.80429e-21
-5e-05
-6.64371e-21
-5e-05
-6.99613e-21
-5e-05
-3.3204e-21
-5e-05
2.02994e-21
-5e-05
-3.49083e-22
-5e-05
-5.61843e-21
-5e-05
-5.79933e-21
-5e-05
-7.49111e-21
-5e-05
-6.01282e-21
-5e-05
-1.25648e-21
8.30169e-22
-5e-05
2.02109e-18
-5e-05
-4.5029e-19
-5e-05
9.05e-20
-5e-05
-3.18828e-20
-5e-05
2.20059e-21
-5e-05
-4.73082e-23
-5e-05
4.85298e-21
-5e-05
9.71383e-22
-5e-05
-4.49681e-21
-5e-05
-4.18469e-21
-5e-05
-2.39305e-21
-5e-05
-1.4019e-21
-5e-05
-2.90439e-22
-5e-05
-2.74207e-21
-5e-05
-8.28399e-21
-5e-05
-8.0486e-21
-5e-05
-4.40272e-21
-5e-05
-2.17367e-21
-5e-05
1.60303e-21
1.7792e-21
-5e-05
1.84353e-18
-5e-05
-3.95818e-19
-5e-05
8.53016e-20
-5e-05
-2.24349e-20
-5e-05
4.06091e-21
-5e-05
-2.42178e-21
-5e-05
3.37652e-21
-5e-05
2.87034e-21
-5e-05
-3.56895e-22
-5e-05
-2.87983e-21
-5e-05
-5.93648e-21
-5e-05
-6.90139e-21
-5e-05
-8.71282e-21
-5e-05
-1.16597e-20
-5e-05
-1.21838e-20
-5e-05
-6.68904e-21
-5e-05
9.24309e-22
-5e-05
2.14888e-21
-5e-05
3.3141e-21
2.87401e-21
-5e-05
-3.22223e-18
-5e-05
6.79824e-19
-5e-05
-1.60864e-19
-5e-05
3.59426e-20
-5e-05
-5.76246e-21
-5e-05
5.24137e-22
-5e-05
-2.2201e-21
-5e-05
-7.36366e-22
-5e-05
-9.55613e-22
-5e-05
-3.69625e-21
-5e-05
-8.14826e-21
-5e-05
-8.79188e-21
-5e-05
-9.659e-21
-5e-05
-9.97787e-21
-5e-05
-8.08229e-21
-5e-05
-1.96726e-21
-5e-05
2.71063e-21
-5e-05
2.56389e-21
-5e-05
3.37802e-21
2.53883e-21
-5e-05
-5e-05
-5e-05
-5e-05
-5e-05
-5e-05
-5e-05
-5e-05
-5e-05
-5e-05
-5e-05
-5e-05
-5e-05
-5e-05
-5e-05
-5e-05
-5e-05
-5e-05
-5e-05
)
;

boundaryField
{
    movingWall
    {
        type            calculated;
        value           uniform -0;
    }
    fixedWalls
    {
        type            calculated;
        value           nonuniform List<scalar> 
60
(
5e-05
5e-05
5e-05
5e-05
5e-05
5e-05
5e-05
5e-05
5e-05
5e-05
5e-05
5e-05
5e-05
5e-05
5e-05
5e-05
5e-05
5e-05
5e-05
5e-05
-5e-05
-5e-05
-5e-05
-5e-05
-5e-05
-5e-05
-5e-05
-5e-05
-5e-05
-5e-05
-5e-05
-5e-05
-5e-05
-5e-05
-5e-05
-5e-05
-5e-05
-5e-05
-5e-05
-5e-05
0
0
0
0
0
0
0
0
0
0
0
0
0
0
0
0
0
0
0
0
)
;
    }
    frontAndBack
    {
        type            empty;
    }
}


// ************************************************************************* //
