/*--------------------------------*- C++ -*----------------------------------*\
| =========                 |                                                 |
| \\      /  F ield         | OpenFOAM: The Open Source CFD Toolbox           |
|  \\    /   O peration     | Version:  2506                                  |
|   \\  /    A nd           | Website:  www.openfoam.com                      |
|    \\/     M anipulation  |                                                 |
\*---------------------------------------------------------------------------*/
FoamFile
{
    version     2.0;
    format      ascii;
    arch        "LSB;label=32;scalar=64";
    class       volTensorField;
    location    "8.875";
    object      gradU;
}
// * * * * * * * * * * * * * * * * * * * * * * * * * * * * * * * * * * * * * //

dimensions      [0 0 -1 0 0 0 0];

internalField   nonuniform List<tensor> 
400
(
(-7.86047e-13 1.11824e-11 0 7.58942e-13 1.54744e-11 0 0 0 0)
(1.24683e-12 -1.34941e-11 0 -2.43945e-13 -3.2296e-12 0 0 0 0)
(-3.52366e-13 2.86967e-12 0 -5.42101e-14 7.74937e-13 0 0 0 0)
(0 -6.73401e-13 0 -2.71051e-14 -1.54588e-13 0 0 0 0)
(-5.42101e-14 1.54247e-13 0 -2.71051e-14 5.00665e-14 0 0 0 0)
(0 -3.1558e-14 0 -8.13152e-14 1.92305e-15 0 0 0 0)
(0 5.3529e-15 0 -5.42101e-14 6.10918e-15 0 0 0 0)
(0 -5.4157e-15 0 -5.42101e-14 -7.54964e-15 0 0 0 0)
(2.71051e-14 -8.19408e-15 0 0 -2.39257e-14 0 0 0 0)
(5.42101e-14 6.79077e-16 0 0 -4.11389e-14 0 0 0 0)
(0 1.72951e-14 0 5.42101e-14 -2.10938e-14 0 0 0 0)
(-2.71051e-14 7.10845e-15 0 5.42101e-14 1.40524e-14 0 0 0 0)
(-2.71051e-14 -1.10269e-14 0 8.13152e-14 2.73319e-14 0 0 0 0)
(-2.71051e-14 -9.02303e-15 0 5.42101e-14 2.05344e-14 0 0 0 0)
(0 5.15948e-15 0 5.42101e-14 2.13405e-14 0 0 0 0)
(-2.71051e-14 1.20067e-14 0 0 1.71736e-14 0 0 0 0)
(-2.71051e-14 -1.95467e-15 0 0 2.24499e-14 0 0 0 0)
(0 -1.47605e-14 0 0 1.63517e-14 0 0 0 0)
(0 -4.93042e-15 0 -5.42101e-14 -3.50284e-15 0 0 0 0)
(0 4.12324e-16 0 0 -2.7889e-15 0 0 0 0)
(1.35525e-12 1.06236e-12 0 6.50521e-13 -2.60193e-11 0 0 0 0)
(-2.08709e-12 -1.20536e-12 0 -2.1684e-13 5.55868e-12 0 0 0 0)
(5.69206e-13 2.05345e-13 0 -2.71051e-14 -1.3083e-12 0 0 0 0)
(-2.71051e-14 -5.14691e-14 0 -2.71051e-14 2.8754e-13 0 0 0 0)
(0 2.26385e-15 0 -2.71051e-14 -6.44541e-14 0 0 0 0)
(2.71051e-14 -1.23993e-14 0 0 -1.999e-15 0 0 0 0)
(5.42101e-14 -1.48256e-14 0 0 -2.88463e-14 0 0 0 0)
(0 -2.46192e-14 0 0 -2.44886e-14 0 0 0 0)
(5.42101e-14 -2.53952e-14 0 -5.42101e-14 -2.93106e-14 0 0 0 0)
(0 2.15287e-15 0 -5.42101e-14 -2.13766e-14 0 0 0 0)
(0 3.78963e-14 0 -1.35525e-13 -1.90492e-14 0 0 0 0)
(8.13152e-14 4.13172e-14 0 -1.0842e-13 -2.78861e-14 0 0 0 0)
(5.42101e-14 1.75089e-14 0 -1.35525e-13 -1.63959e-14 0 0 0 0)
(0 3.03161e-15 0 -1.0842e-13 6.11232e-16 0 0 0 0)
(-2.71051e-14 -8.52031e-15 0 -5.42101e-14 1.2732e-14 0 0 0 0)
(-2.71051e-14 -1.08973e-14 0 -5.42101e-14 3.05733e-15 0 0 0 0)
(0 1.13277e-15 0 0 -1.09814e-14 0 0 0 0)
(-5.42101e-14 -1.11923e-14 0 0 -7.1411e-15 0 0 0 0)
(0 -1.42102e-14 0 5.42101e-14 -2.51347e-15 0 0 0 0)
(5.42101e-14 5.87942e-15 0 -5.42101e-14 -1.01475e-14 0 0 0 0)
(-3.52366e-13 -9.27818e-12 0 -3.44234e-12 7.27198e-12 0 0 0 0)
(5.42101e-13 1.12169e-11 0 1.0842e-12 -1.65075e-12 0 0 0 0)
(-1.89735e-13 -2.40147e-12 0 1.0842e-13 3.63742e-13 0 0 0 0)
(2.71051e-14 5.70442e-13 0 1.35525e-13 -1.05373e-13 0 0 0 0)
(2.71051e-14 -1.35292e-13 0 1.35525e-13 5.68925e-15 0 0 0 0)
(0 4.04975e-15 0 1.6263e-13 -1.08494e-14 0 0 0 0)
(0 -1.71367e-14 0 1.0842e-13 -1.15852e-15 0 0 0 0)
(0 -5.88001e-15 0 1.0842e-13 5.52566e-15 0 0 0 0)
(0 -5.08208e-15 0 1.0842e-13 1.80681e-14 0 0 0 0)
(-5.42101e-14 1.09404e-14 0 1.0842e-13 3.89537e-14 0 0 0 0)
(-5.42101e-14 1.07856e-14 0 8.13152e-14 2.90495e-14 0 0 0 0)
(-2.71051e-14 9.76176e-15 0 0 -2.70973e-16 0 0 0 0)
(0 1.74704e-14 0 0 -1.91787e-14 0 0 0 0)
(0 2.01048e-14 0 0 -1.53299e-14 0 0 0 0)
(2.71051e-14 7.60557e-15 0 -5.42101e-14 -2.07523e-14 0 0 0 0)
(5.42101e-14 -1.17066e-14 0 0 3.69785e-15 0 0 0 0)
(0 -1.21531e-14 0 0 7.02782e-15 0 0 0 0)
(2.71051e-14 -6.29251e-15 0 0 -1.21185e-14 0 0 0 0)
(-2.71051e-14 -7.93678e-15 0 2.71051e-14 -3.23269e-15 0 0 0 0)
(0 1.30733e-14 0 0 -3.63132e-15 0 0 0 0)
(-1.0842e-12 6.68359e-12 0 2.71051e-12 1.18052e-11 0 0 0 0)
(1.51788e-12 -8.1136e-12 0 -7.31836e-13 -2.52626e-12 0 0 0 0)
(-4.06576e-13 1.75072e-12 0 1.0842e-13 5.86704e-13 0 0 0 0)
(2.71051e-14 -4.09522e-13 0 0 -1.3521e-13 0 0 0 0)
(2.71051e-14 9.67872e-14 0 0 1.05673e-14 0 0 0 0)
(2.71051e-14 -1.92471e-14 0 0 -9.80962e-15 0 0 0 0)
(-8.13152e-14 1.54948e-15 0 0 1.95436e-14 0 0 0 0)
(0 -5.39257e-15 0 0 1.71184e-14 0 0 0 0)
(-2.71051e-14 8.0329e-15 0 -2.71051e-14 1.88355e-14 0 0 0 0)
(-2.71051e-14 1.31343e-14 0 -5.42101e-14 1.85783e-14 0 0 0 0)
(2.71051e-14 -1.32845e-15 0 2.71051e-14 1.31041e-14 0 0 0 0)
(0 -6.91101e-15 0 5.42101e-14 2.01334e-14 0 0 0 0)
(0 2.44998e-15 0 5.42101e-14 6.38765e-15 0 0 0 0)
(-2.71051e-14 1.45797e-15 0 5.42101e-14 -5.24984e-15 0 0 0 0)
(0 1.05075e-14 0 8.13152e-14 -1.596e-14 0 0 0 0)
(0 1.68828e-14 0 5.42101e-14 -4.1695e-16 0 0 0 0)
(0 -1.46836e-14 0 2.71051e-14 8.97176e-15 0 0 0 0)
(0 -2.14528e-14 0 0 6.485e-15 0 0 0 0)
(0 -5.72298e-15 0 0 6.55289e-15 0 0 0 0)
(0 1.27434e-14 0 5.42101e-14 6.8599e-15 0 0 0 0)
(1.6263e-12 7.28717e-16 0 8.13152e-14 -1.71936e-11 0 0 0 0)
(-2.05998e-12 -1.5629e-15 0 1.0842e-13 3.73129e-12 0 0 0 0)
(5.42101e-13 -1.04258e-14 0 5.42101e-14 -8.57437e-13 0 0 0 0)
(-1.35525e-13 -5.69413e-15 0 5.42101e-14 2.04187e-13 0 0 0 0)
(2.71051e-14 -9.89196e-15 0 5.42101e-14 -3.58117e-14 0 0 0 0)
(-2.71051e-14 1.3026e-14 0 0 1.63093e-14 0 0 0 0)
(5.42101e-14 9.79131e-15 0 0 5.22509e-15 0 0 0 0)
(0 -6.58805e-15 0 0 1.41362e-14 0 0 0 0)
(-5.42101e-14 -3.62217e-15 0 -2.71051e-14 2.20553e-14 0 0 0 0)
(0 5.20903e-15 0 0 9.201e-15 0 0 0 0)
(0 1.23407e-14 0 -2.71051e-14 4.3572e-15 0 0 0 0)
(-5.42101e-14 3.04528e-15 0 0 -4.30888e-15 0 0 0 0)
(0 -7.91282e-15 0 -5.42101e-14 -9.52601e-15 0 0 0 0)
(8.13152e-14 -2.2428e-15 0 0 -1.06873e-14 0 0 0 0)
(0 1.24385e-14 0 -2.71051e-14 -2.94854e-15 0 0 0 0)
(-2.71051e-14 1.32251e-14 0 -5.42101e-14 -1.70346e-14 0 0 0 0)
(2.71051e-14 -5.25114e-15 0 -2.71051e-14 -1.74786e-14 0 0 0 0)
(0 -8.71138e-15 0 0 1.08475e-14 0 0 0 0)
(0 -7.56188e-15 0 -2.71051e-14 1.36172e-14 0 0 0 0)
(-2.71051e-14 -3.39526e-16 0 2.71051e-14 7.67556e-15 0 0 0 0)
(-8.94467e-13 -6.77867e-12 0 -1.65341e-12 1.19116e-11 0 0 0 0)
(1.49078e-12 8.22252e-12 0 4.87891e-13 -2.5757e-12 0 0 0 0)
(-4.06576e-13 -1.77638e-12 0 -5.42101e-14 6.33737e-13 0 0 0 0)
(2.71051e-14 4.12103e-13 0 2.71051e-14 -1.11337e-13 0 0 0 0)
(-2.71051e-14 -9.10901e-14 0 2.71051e-14 6.91766e-14 0 0 0 0)
(-8.13152e-14 2.17897e-14 0 5.42101e-14 4.3587e-14 0 0 0 0)
(-5.42101e-14 -6.23666e-16 0 2.71051e-14 3.23277e-14 0 0 0 0)
(-2.71051e-14 1.14376e-14 0 0 1.97576e-14 0 0 0 0)
(-2.71051e-14 3.09771e-15 0 5.42101e-14 2.3716e-14 0 0 0 0)
(0 -4.5638e-15 0 2.71051e-14 1.71859e-14 0 0 0 0)
(-5.42101e-14 -1.48383e-14 0 0 5.54159e-15 0 0 0 0)
(5.42101e-14 -2.07942e-14 0 2.71051e-14 -1.65234e-14 0 0 0 0)
(0 -3.92848e-15 0 5.42101e-14 -1.29943e-14 0 0 0 0)
(0 8.03544e-15 0 0 -2.54429e-15 0 0 0 0)
(-8.13152e-14 4.16024e-15 0 -5.42101e-14 1.05092e-14 0 0 0 0)
(2.71051e-14 2.35275e-15 0 -2.71051e-14 -7.88598e-15 0 0 0 0)
(5.42101e-14 1.31984e-14 0 0 -1.13683e-14 0 0 0 0)
(0 9.64312e-15 0 -5.42101e-14 -6.55974e-15 0 0 0 0)
(2.71051e-14 -8.89488e-15 0 0 -1.11117e-14 0 0 0 0)
(-2.71051e-14 -8.54938e-15 0 0 -2.14669e-15 0 0 0 0)
(5.14996e-13 9.33665e-12 0 2.19551e-12 4.36855e-12 0 0 0 0)
(-4.60786e-13 -1.12794e-11 0 -9.21572e-13 -9.65147e-13 0 0 0 0)
(5.42101e-14 2.45394e-12 0 -1.0842e-13 2.14325e-13 0 0 0 0)
(-8.13152e-14 -5.70255e-13 0 -1.35525e-13 -4.9486e-14 0 0 0 0)
(2.71051e-14 1.45032e-13 0 -1.0842e-13 9.49986e-15 0 0 0 0)
(2.71051e-14 -2.38229e-14 0 -8.13152e-14 -8.10571e-15 0 0 0 0)
(-2.71051e-14 -1.40381e-14 0 -2.71051e-14 5.29641e-15 0 0 0 0)
(0 -1.51997e-14 0 0 5.18484e-15 0 0 0 0)
(0 -6.19392e-15 0 0 7.41737e-16 0 0 0 0)
(0 -1.29654e-14 0 2.71051e-14 3.38895e-15 0 0 0 0)
(0 -2.13686e-14 0 5.42101e-14 4.39689e-15 0 0 0 0)
(-5.42101e-14 -1.54906e-14 0 2.71051e-14 1.66795e-14 0 0 0 0)
(-5.42101e-14 6.06631e-15 0 0 9.00466e-15 0 0 0 0)
(5.42101e-14 2.12607e-14 0 0 6.89393e-15 0 0 0 0)
(0 7.09677e-15 0 5.42101e-14 1.96361e-14 0 0 0 0)
(-5.42101e-14 -8.65233e-15 0 2.71051e-14 1.97775e-14 0 0 0 0)
(-2.71051e-14 -3.9249e-15 0 0 4.13997e-15 0 0 0 0)
(2.71051e-14 -8.45474e-15 0 0 -2.4693e-14 0 0 0 0)
(5.42101e-14 -3.14884e-15 0 2.71051e-14 -2.23164e-14 0 0 0 0)
(0 1.29188e-14 0 0 -2.8333e-15 0 0 0 0)
(4.06576e-13 -3.37527e-12 0 -1.11131e-12 -1.86749e-11 0 0 0 0)
(-8.40257e-13 4.0683e-12 0 3.25261e-13 4.03564e-12 0 0 0 0)
(3.52366e-13 -8.60723e-13 0 -8.13152e-14 -9.77763e-13 0 0 0 0)
(8.13152e-14 2.07278e-13 0 -5.42101e-14 1.90975e-13 0 0 0 0)
(0 -4.97099e-14 0 0 -6.45439e-14 0 0 0 0)
(2.71051e-14 1.75863e-14 0 -1.0842e-13 -2.42683e-14 0 0 0 0)
(2.71051e-14 1.26669e-14 0 -1.0842e-13 -1.97979e-14 0 0 0 0)
(0 6.88292e-15 0 -5.42101e-14 4.07078e-15 0 0 0 0)
(0 1.30182e-15 0 -5.42101e-14 7.10057e-15 0 0 0 0)
(0 -9.08647e-16 0 -5.42101e-14 1.04823e-14 0 0 0 0)
(0 -1.54775e-15 0 -5.42101e-14 1.25557e-14 0 0 0 0)
(-2.71051e-14 -1.61864e-14 0 -5.42101e-14 2.55604e-14 0 0 0 0)
(0 -1.37141e-14 0 0 2.35763e-14 0 0 0 0)
(-2.71051e-14 1.86669e-14 0 -5.42101e-14 1.09553e-14 0 0 0 0)
(0 1.70438e-14 0 0 -1.4291e-14 0 0 0 0)
(0 -1.31434e-14 0 5.42101e-14 -1.07783e-14 0 0 0 0)
(0 -3.12721e-14 0 5.42101e-14 -6.76563e-15 0 0 0 0)
(2.71051e-14 -1.68132e-14 0 8.13152e-14 -5.83594e-15 0 0 0 0)
(2.71051e-14 1.29648e-14 0 0 9.47298e-15 0 0 0 0)
(-5.42101e-14 1.66003e-14 0 2.71051e-14 9.62402e-15 0 0 0 0)
(-2.98156e-13 -5.30261e-12 0 -7.31836e-13 1.60404e-11 0 0 0 0)
(5.96311e-13 6.41769e-12 0 2.43945e-13 -3.45629e-12 0 0 0 0)
(-2.98156e-13 -1.39073e-12 0 0 8.19798e-13 0 0 0 0)
(-5.42101e-14 3.42964e-13 0 -2.71051e-14 -1.72424e-13 0 0 0 0)
(0 -7.02112e-14 0 -8.13152e-14 4.49693e-14 0 0 0 0)
(-2.71051e-14 2.09231e-14 0 -2.71051e-14 4.2588e-15 0 0 0 0)
(0 1.4301e-14 0 -2.71051e-14 9.3846e-15 0 0 0 0)
(0 1.16987e-14 0 -8.13152e-14 -4.74899e-17 0 0 0 0)
(2.71051e-14 2.17562e-16 0 -8.13152e-14 -1.57518e-14 0 0 0 0)
(0 -7.5102e-15 0 0 -2.0503e-14 0 0 0 0)
(0 -6.29051e-15 0 -5.42101e-14 -1.8277e-14 0 0 0 0)
(5.42101e-14 -4.47007e-15 0 0 -7.47266e-15 0 0 0 0)
(-5.42101e-14 -8.53874e-15 0 5.42101e-14 1.34357e-14 0 0 0 0)
(-2.71051e-14 -1.66066e-14 0 5.42101e-14 6.52895e-15 0 0 0 0)
(8.13152e-14 -1.46369e-14 0 2.71051e-14 -2.26475e-14 0 0 0 0)
(5.42101e-14 -1.12699e-15 0 2.71051e-14 -2.50998e-14 0 0 0 0)
(2.71051e-14 1.0175e-15 0 0 -4.22651e-15 0 0 0 0)
(-2.71051e-14 7.78387e-15 0 0 2.51176e-14 0 0 0 0)
(-2.71051e-14 1.23111e-14 0 -2.71051e-14 1.99609e-14 0 0 0 0)
(-2.71051e-14 -6.17819e-15 0 -5.42101e-14 -1.60966e-15 0 0 0 0)
(-5.42101e-14 9.20887e-12 0 3.52366e-13 -4.41588e-12 0 0 0 0)
(-1.35525e-13 -1.11523e-11 0 -2.1684e-13 9.59072e-13 0 0 0 0)
(5.42101e-14 2.42314e-12 0 -2.71051e-14 -1.88718e-13 0 0 0 0)
(0 -5.67551e-13 0 2.71051e-14 6.00963e-14 0 0 0 0)
(0 1.26973e-13 0 5.42101e-14 -4.27086e-15 0 0 0 0)
(5.42101e-14 -1.79984e-14 0 2.71051e-14 7.53174e-15 0 0 0 0)
(0 8.36059e-15 0 2.71051e-14 -1.17534e-14 0 0 0 0)
(2.71051e-14 -1.82535e-14 0 8.13152e-14 -2.56416e-14 0 0 0 0)
(5.42101e-14 -1.91537e-14 0 1.0842e-13 -2.92371e-14 0 0 0 0)
(0 -3.43385e-15 0 2.71051e-14 -2.09089e-14 0 0 0 0)
(2.71051e-14 1.14826e-14 0 5.42101e-14 -1.18346e-14 0 0 0 0)
(2.71051e-14 1.55263e-14 0 2.71051e-14 -6.39346e-15 0 0 0 0)
(2.71051e-14 2.87531e-16 0 -2.71051e-14 -5.53888e-15 0 0 0 0)
(0 -1.74163e-14 0 2.71051e-14 -7.98756e-16 0 0 0 0)
(-2.71051e-14 -1.4585e-14 0 0 1.1906e-14 0 0 0 0)
(-2.71051e-14 5.27762e-15 0 0 1.22003e-14 0 0 0 0)
(-2.71051e-14 1.89454e-14 0 -1.0842e-13 1.05656e-14 0 0 0 0)
(-5.42101e-14 7.37414e-15 0 -8.13152e-14 1.00928e-14 0 0 0 0)
(0 -1.37625e-14 0 0 -3.1604e-15 0 0 0 0)
(5.42101e-14 -1.7509e-15 0 0 -1.16868e-14 0 0 0 0)
(-1.89735e-13 -8.75941e-12 0 8.94467e-13 -4.63663e-12 0 0 0 0)
(2.43945e-13 1.06449e-11 0 0 1.05649e-12 0 0 0 0)
(0 -2.28971e-12 0 2.1684e-13 -2.23304e-13 0 0 0 0)
(2.71051e-14 5.27412e-13 0 -2.71051e-14 7.35957e-14 0 0 0 0)
(0 -1.22776e-13 0 2.71051e-14 2.39399e-15 0 0 0 0)
(-5.42101e-14 1.34405e-14 0 5.42101e-14 6.55765e-15 0 0 0 0)
(0 -1.88723e-14 0 0 -1.84439e-14 0 0 0 0)
(2.71051e-14 -5.78493e-15 0 5.42101e-14 -2.54041e-14 0 0 0 0)
(0 4.95021e-15 0 -2.71051e-14 -4.33437e-15 0 0 0 0)
(-2.71051e-14 9.89225e-15 0 0 3.78722e-15 0 0 0 0)
(-2.71051e-14 8.22495e-15 0 0 2.68051e-15 0 0 0 0)
(0 1.82566e-15 0 -2.71051e-14 3.81126e-15 0 0 0 0)
(0 -2.94404e-15 0 0 -3.0475e-15 0 0 0 0)
(0 8.38268e-16 0 -2.71051e-14 3.4726e-15 0 0 0 0)
(0 -1.63783e-15 0 2.71051e-14 2.20344e-14 0 0 0 0)
(-5.42101e-14 -2.46734e-15 0 2.71051e-14 2.5758e-14 0 0 0 0)
(-2.71051e-14 -1.09001e-15 0 5.42101e-14 1.06442e-14 0 0 0 0)
(8.13152e-14 -5.94215e-15 0 0 -1.47406e-14 0 0 0 0)
(2.71051e-14 -9.46849e-15 0 0 -1.43445e-14 0 0 0 0)
(-2.71051e-14 8.66902e-15 0 2.71051e-14 5.92122e-15 0 0 0 0)
(8.40257e-13 5.62872e-12 0 -1.00289e-12 1.13732e-11 0 0 0 0)
(-8.40257e-13 -6.73901e-12 0 -1.35525e-13 -2.49782e-12 0 0 0 0)
(2.71051e-14 1.44025e-12 0 -2.71051e-13 5.51599e-13 0 0 0 0)
(-2.1684e-13 -3.41852e-13 0 -5.42101e-14 -1.39013e-13 0 0 0 0)
(1.0842e-13 5.99353e-14 0 -1.0842e-13 1.10793e-14 0 0 0 0)
(0 -3.88363e-14 0 -8.13152e-14 -1.62684e-14 0 0 0 0)
(2.71051e-14 -2.36011e-14 0 -2.71051e-14 -7.07916e-15 0 0 0 0)
(0 -4.14402e-15 0 -5.42101e-14 -1.37422e-14 0 0 0 0)
(0 1.00376e-14 0 -1.35525e-13 -6.90584e-15 0 0 0 0)
(5.42101e-14 3.58103e-15 0 -8.13152e-14 -2.00433e-14 0 0 0 0)
(0 1.15066e-14 0 -5.42101e-14 -1.15414e-14 0 0 0 0)
(2.71051e-14 9.79826e-15 0 -8.13152e-14 -4.33964e-15 0 0 0 0)
(0 -5.11291e-17 0 -8.13152e-14 2.22008e-15 0 0 0 0)
(2.71051e-14 7.66558e-15 0 -5.42101e-14 -3.80533e-16 0 0 0 0)
(0 7.7004e-15 0 -1.0842e-13 -6.37314e-15 0 0 0 0)
(0 -6.11262e-15 0 -5.42101e-14 -6.10011e-15 0 0 0 0)
(0 -2.15531e-14 0 5.42101e-14 -9.73296e-16 0 0 0 0)
(-5.42101e-14 -1.76145e-14 0 5.42101e-14 1.94378e-15 0 0 0 0)
(0 6.89928e-15 0 0 -3.69745e-15 0 0 0 0)
(0 6.67239e-15 0 -8.13152e-14 9.68437e-16 0 0 0 0)
(-1.32815e-12 1.16014e-13 0 -1.89735e-13 -1.62259e-11 0 0 0 0)
(9.75782e-13 -1.76796e-13 0 1.35525e-13 3.44522e-12 0 0 0 0)
(5.42101e-14 6.90981e-14 0 0 -8.33816e-13 0 0 0 0)
(2.1684e-13 -1.31086e-14 0 5.42101e-14 1.64762e-13 0 0 0 0)
(0 -3.0987e-17 0 0 -4.98111e-14 0 0 0 0)
(0 -4.71795e-15 0 0 -9.7173e-15 0 0 0 0)
(0 -1.63462e-14 0 2.71051e-14 -8.48482e-15 0 0 0 0)
(0 -5.61161e-15 0 -5.42101e-14 1.43083e-15 0 0 0 0)
(0 -1.35089e-15 0 5.42101e-14 -1.29346e-15 0 0 0 0)
(0 5.25671e-15 0 5.42101e-14 8.22766e-16 0 0 0 0)
(-1.0842e-13 2.39286e-14 0 0 1.33983e-14 0 0 0 0)
(5.42101e-14 1.55871e-14 0 0 -1.30644e-14 0 0 0 0)
(0 1.01507e-15 0 5.42101e-14 -1.52608e-14 0 0 0 0)
(0 -7.75495e-15 0 0 -1.57981e-14 0 0 0 0)
(5.42101e-14 -7.3574e-15 0 0 -2.56924e-14 0 0 0 0)
(2.71051e-14 2.9325e-15 0 0 -2.45875e-14 0 0 0 0)
(5.42101e-14 6.95388e-15 0 -1.0842e-13 -1.34652e-14 0 0 0 0)
(0 -8.66631e-15 0 0 4.61723e-15 0 0 0 0)
(-5.42101e-14 -1.04438e-14 0 2.71051e-14 7.12188e-15 0 0 0 0)
(5.42101e-14 1.1398e-14 0 0 -1.07046e-14 0 0 0 0)
(7.86047e-13 -7.15194e-12 0 -2.71051e-13 1.36706e-11 0 0 0 0)
(-6.23416e-13 8.65306e-12 0 2.43945e-13 -2.86134e-12 0 0 0 0)
(-8.13152e-14 -1.8402e-12 0 8.13152e-14 6.91491e-13 0 0 0 0)
(-1.6263e-13 4.42152e-13 0 0 -1.40186e-13 0 0 0 0)
(0 -1.14544e-13 0 0 2.47817e-14 0 0 0 0)
(2.71051e-14 2.48999e-15 0 2.71051e-14 -3.25603e-14 0 0 0 0)
(5.42101e-14 -1.2453e-14 0 0 -2.63194e-14 0 0 0 0)
(-5.42101e-14 3.04735e-15 0 0 -6.861e-15 0 0 0 0)
(5.42101e-14 9.42951e-15 0 8.13152e-14 -7.42604e-15 0 0 0 0)
(5.42101e-14 1.82728e-14 0 0 9.24994e-15 0 0 0 0)
(-2.71051e-14 -2.38051e-15 0 5.42101e-14 6.54867e-15 0 0 0 0)
(2.71051e-14 -1.88608e-14 0 8.13152e-14 -7.19585e-15 0 0 0 0)
(-2.71051e-14 -2.78479e-15 0 2.71051e-14 7.29226e-16 0 0 0 0)
(2.71051e-14 -2.76601e-15 0 5.42101e-14 2.8907e-15 0 0 0 0)
(0 -1.089e-15 0 8.13152e-14 6.87532e-15 0 0 0 0)
(-5.42101e-14 6.11453e-15 0 2.71051e-14 6.8707e-15 0 0 0 0)
(-5.42101e-14 7.65156e-15 0 0 -7.01825e-15 0 0 0 0)
(8.13152e-14 2.97256e-15 0 0 -1.16365e-14 0 0 0 0)
(0 -8.42258e-15 0 0 4.70536e-15 0 0 0 0)
(-2.71051e-14 1.02551e-14 0 8.13152e-14 5.58329e-15 0 0 0 0)
(-1.32815e-12 1.09252e-11 0 9.48677e-13 1.33697e-12 0 0 0 0)
(1.32815e-12 -1.31559e-11 0 -4.60786e-13 -2.88817e-13 0 0 0 0)
(-2.71051e-13 2.79025e-12 0 -1.6263e-13 4.41062e-14 0 0 0 0)
(1.89735e-13 -6.79818e-13 0 0 -6.91746e-14 0 0 0 0)
(2.71051e-14 1.07594e-13 0 8.13152e-14 -3.74846e-14 0 0 0 0)
(0 -5.5819e-14 0 5.42101e-14 -1.00283e-14 0 0 0 0)
(0 9.35312e-15 0 0 -1.0165e-15 0 0 0 0)
(0 1.32817e-14 0 -2.71051e-14 3.45999e-15 0 0 0 0)
(0 1.476e-14 0 -5.42101e-14 -2.79239e-15 0 0 0 0)
(-2.71051e-14 1.92314e-14 0 -8.13152e-14 -1.28941e-14 0 0 0 0)
(8.13152e-14 7.48285e-15 0 0 -3.26251e-14 0 0 0 0)
(0 9.76767e-15 0 -5.42101e-14 -6.62432e-15 0 0 0 0)
(-5.42101e-14 1.11016e-14 0 -8.13152e-14 1.14457e-14 0 0 0 0)
(0 -1.60886e-15 0 -5.42101e-14 3.31312e-15 0 0 0 0)
(0 -3.3774e-15 0 -2.71051e-14 -6.13771e-16 0 0 0 0)
(0 -1.09611e-14 0 -2.71051e-14 -7.4293e-16 0 0 0 0)
(5.42101e-14 -1.15533e-14 0 5.42101e-14 -1.11384e-14 0 0 0 0)
(0 3.0573e-15 0 0 -1.29518e-14 0 0 0 0)
(5.42101e-14 6.77598e-15 0 -2.71051e-14 -4.28628e-15 0 0 0 0)
(-5.42101e-14 1.10939e-15 0 0 1.03994e-14 0 0 0 0)
(1.21973e-12 -6.10378e-12 0 -4.87891e-13 -1.76507e-11 0 0 0 0)
(-1.70762e-12 7.36019e-12 0 4.60786e-13 3.68732e-12 0 0 0 0)
(4.87891e-13 -1.62056e-12 0 2.71051e-13 -9.15201e-13 0 0 0 0)
(0 3.60562e-13 0 1.6263e-13 1.5417e-13 0 0 0 0)
(2.71051e-14 -5.53981e-14 0 8.13152e-14 -4.06296e-14 0 0 0 0)
(-2.71051e-14 3.89581e-14 0 2.71051e-14 4.23876e-14 0 0 0 0)
(-5.42101e-14 1.0353e-15 0 1.0842e-13 4.24048e-14 0 0 0 0)
(-2.71051e-14 1.27145e-15 0 8.13152e-14 2.40588e-14 0 0 0 0)
(2.71051e-14 -6.9246e-15 0 0 7.24295e-15 0 0 0 0)
(0 -1.156e-14 0 1.0842e-13 -1.35999e-15 0 0 0 0)
(0 3.8893e-15 0 5.42101e-14 -5.19586e-15 0 0 0 0)
(-2.71051e-14 2.521e-14 0 0 5.61093e-16 0 0 0 0)
(2.71051e-14 7.15264e-15 0 5.42101e-14 -4.06927e-15 0 0 0 0)
(5.42101e-14 -1.48254e-14 0 5.42101e-14 -5.80788e-15 0 0 0 0)
(0 -5.14505e-15 0 2.71051e-14 -1.82284e-14 0 0 0 0)
(2.71051e-14 -4.41012e-15 0 0 -1.90864e-14 0 0 0 0)
(-2.71051e-14 -4.5573e-15 0 2.71051e-14 -1.0348e-14 0 0 0 0)
(0 9.82471e-15 0 0 -3.82974e-15 0 0 0 0)
(0 1.49287e-14 0 2.71051e-14 1.70851e-15 0 0 0 0)
(0 4.14198e-15 0 0 1.8376e-15 0 0 0 0)
(-1.38236e-12 -3.03814e-12 0 -1.57209e-12 1.96483e-11 0 0 0 0)
(2.08709e-12 3.57963e-12 0 4.60786e-13 -4.22316e-12 0 0 0 0)
(-5.42101e-13 -7.42899e-13 0 0 9.86097e-13 0 0 0 0)
(2.71051e-14 1.94754e-13 0 0 -1.86066e-13 0 0 0 0)
(-1.0842e-13 -4.18782e-15 0 -8.13152e-14 7.75843e-14 0 0 0 0)
(-2.71051e-14 2.72153e-14 0 -2.71051e-14 8.61893e-16 0 0 0 0)
(0 -8.97571e-15 0 -5.42101e-14 2.20204e-14 0 0 0 0)
(-2.71051e-14 -2.18801e-14 0 0 1.28771e-14 0 0 0 0)
(2.71051e-14 -1.06587e-14 0 0 5.22992e-15 0 0 0 0)
(0 6.79261e-15 0 -8.13152e-14 9.83607e-15 0 0 0 0)
(0 9.40394e-15 0 -5.42101e-14 1.84123e-14 0 0 0 0)
(-2.71051e-14 1.08943e-14 0 0 7.67402e-15 0 0 0 0)
(2.71051e-14 4.73264e-15 0 0 -9.28152e-15 0 0 0 0)
(0 -1.5768e-14 0 5.42101e-14 -9.57194e-15 0 0 0 0)
(-5.42101e-14 -1.66559e-14 0 2.71051e-14 -1.06622e-14 0 0 0 0)
(2.71051e-14 -3.08062e-15 0 5.42101e-14 -8.9971e-15 0 0 0 0)
(-2.71051e-14 3.70332e-15 0 2.71051e-14 1.23536e-14 0 0 0 0)
(2.71051e-14 1.51138e-14 0 0 1.53566e-14 0 0 0 0)
(2.71051e-14 1.24433e-14 0 0 1.14381e-14 0 0 0 0)
(-5.42101e-14 -2.43672e-15 0 0 3.79612e-15 0 0 0 0)
(1.6263e-13 9.32133e-12 0 4.49944e-12 -7.10233e-13 0 0 0 0)
(-2.1684e-13 -1.1302e-11 0 -1.21973e-12 2.1789e-13 0 0 0 0)
(0 2.41653e-12 0 2.71051e-14 -2.0794e-14 0 0 0 0)
(-2.71051e-14 -5.47951e-13 0 -1.6263e-13 3.77917e-14 0 0 0 0)
(0 1.3153e-13 0 -5.42101e-14 7.44129e-15 0 0 0 0)
(2.71051e-14 -1.66058e-14 0 -5.42101e-14 -9.49789e-15 0 0 0 0)
(0 1.30505e-14 0 -5.42101e-14 -5.9058e-15 0 0 0 0)
(0 -1.5519e-14 0 0 7.59584e-15 0 0 0 0)
(-2.71051e-14 -9.9656e-15 0 0 1.65596e-14 0 0 0 0)
(-5.42101e-14 1.6224e-15 0 0 5.21946e-15 0 0 0 0)
(5.42101e-14 1.72724e-15 0 0 -1.41737e-14 0 0 0 0)
(2.71051e-14 -2.4838e-15 0 5.42101e-14 -2.1998e-14 0 0 0 0)
(5.42101e-14 -1.00933e-14 0 5.42101e-14 -3.36895e-14 0 0 0 0)
(5.42101e-14 -1.62062e-14 0 2.71051e-14 -3.56705e-14 0 0 0 0)
(2.71051e-14 -4.57021e-15 0 0 -1.55992e-14 0 0 0 0)
(0 1.86057e-14 0 0 5.43827e-15 0 0 0 0)
(-2.71051e-14 1.97964e-14 0 -2.71051e-14 2.13081e-14 0 0 0 0)
(-5.42101e-14 8.9092e-15 0 0 1.72902e-14 0 0 0 0)
(0 3.36816e-15 0 -2.71051e-14 6.84428e-15 0 0 0 0)
(0 -1.10922e-14 0 0 4.37926e-15 0 0 0 0)
(1.87025e-12 -3.53048e-12 0 -1.0842e-12 -2.02631e-11 0 0 0 0)
(-2.35814e-12 4.26907e-12 0 2.98156e-13 4.30257e-12 0 0 0 0)
(5.42101e-13 -9.22997e-13 0 1.0842e-13 -9.84663e-13 0 0 0 0)
(-5.42101e-14 2.22989e-13 0 1.35525e-13 2.3351e-13 0 0 0 0)
(0 -5.14774e-14 0 1.6263e-13 -3.92935e-14 0 0 0 0)
(-5.42101e-14 1.38682e-14 0 1.0842e-13 1.17837e-14 0 0 0 0)
(5.42101e-14 8.11803e-15 0 1.0842e-13 -2.23865e-14 0 0 0 0)
(2.71051e-14 5.85331e-16 0 1.0842e-13 -1.44268e-14 0 0 0 0)
(2.71051e-14 -1.30351e-14 0 1.35525e-13 -2.39487e-15 0 0 0 0)
(0 -2.39408e-14 0 1.35525e-13 -3.26567e-15 0 0 0 0)
(0 -1.78135e-14 0 8.13152e-14 -8.84711e-15 0 0 0 0)
(2.71051e-14 -8.62156e-15 0 8.13152e-14 -7.56197e-15 0 0 0 0)
(2.71051e-14 -8.93992e-15 0 0 -3.78469e-15 0 0 0 0)
(0 2.32233e-15 0 -2.71051e-14 6.72731e-15 0 0 0 0)
(-5.42101e-14 2.44529e-14 0 -5.42101e-14 1.6406e-14 0 0 0 0)
(-5.42101e-14 3.38267e-14 0 -1.0842e-13 1.88871e-14 0 0 0 0)
(0 1.55553e-14 0 -8.13152e-14 7.1453e-15 0 0 0 0)
(0 6.49975e-16 0 -5.42101e-14 1.66002e-15 0 0 0 0)
(2.71051e-14 -4.67627e-16 0 -5.42101e-14 2.55669e-16 0 0 0 0)
(-2.71051e-14 -1.36602e-14 0 0 -1.34073e-15 0 0 0 0)
(-5.42101e-13 -6.63916e-12 0 -1.54499e-12 1.28889e-11 0 0 0 0)
(9.75782e-13 7.97641e-12 0 2.71051e-13 -2.7193e-12 0 0 0 0)
(-2.43945e-13 -1.65253e-12 0 -1.89735e-13 6.43457e-13 0 0 0 0)
(0 3.97418e-13 0 -5.42101e-14 -1.43771e-13 0 0 0 0)
(0 -9.01966e-14 0 -1.0842e-13 2.30498e-14 0 0 0 0)
(0 3.0118e-16 0 -5.42101e-14 -2.09655e-15 0 0 0 0)
(0 -1.316e-14 0 -5.42101e-14 8.88041e-15 0 0 0 0)
(-2.71051e-14 4.47263e-15 0 -1.0842e-13 2.94546e-15 0 0 0 0)
(-2.71051e-14 1.19557e-15 0 -8.13152e-14 3.82245e-15 0 0 0 0)
(0 -4.82984e-15 0 -8.13152e-14 1.4785e-14 0 0 0 0)
(-2.71051e-14 -2.56906e-15 0 -8.13152e-14 3.2593e-14 0 0 0 0)
(-2.71051e-14 2.57861e-15 0 -8.13152e-14 3.51675e-14 0 0 0 0)
(-5.42101e-14 4.19597e-15 0 -5.42101e-14 3.8636e-14 0 0 0 0)
(-2.71051e-14 3.98448e-15 0 -5.42101e-14 3.99115e-14 0 0 0 0)
(-8.13152e-14 7.58958e-15 0 0 3.23292e-14 0 0 0 0)
(2.71051e-14 9.34504e-15 0 5.42101e-14 7.86904e-15 0 0 0 0)
(0 2.56932e-15 0 5.42101e-14 -1.08425e-14 0 0 0 0)
(0 2.01957e-15 0 5.42101e-14 -1.02555e-14 0 0 0 0)
(5.42101e-14 3.67405e-16 0 5.42101e-14 -1.35121e-14 0 0 0 0)
(0 -1.00071e-14 0 -2.71051e-14 -1.01553e-14 0 0 0 0)
)
;

boundaryField
{
    movingWall
    {
        type            extrapolatedCalculated;
        value           nonuniform List<tensor> 
20
(
(-5.42101e-13 -6.63916e-12 0 3.55271e-12 3.35425e-11 0 0 0 0)
(9.75782e-13 7.97641e-12 0 -1.33227e-12 -6.98587e-12 0 0 0 0)
(-2.43945e-13 -1.65253e-12 0 -3.55271e-13 1.63686e-12 0 0 0 0)
(0 3.97418e-13 0 -3.55271e-13 -3.75756e-13 0 0 0 0)
(0 -9.01966e-14 0 -3.9968e-13 4.71828e-14 0 0 0 0)
(0 3.0118e-16 0 -3.55271e-13 -1.49696e-14 0 0 0 0)
(0 -1.316e-14 0 -3.55271e-13 4.59781e-14 0 0 0 0)
(-2.71051e-14 4.47263e-15 0 -3.10862e-13 3.76705e-14 0 0 0 0)
(-2.71051e-14 1.19557e-15 0 -3.10862e-13 2.80875e-14 0 0 0 0)
(0 -4.82984e-15 0 -2.66454e-13 3.28882e-14 0 0 0 0)
(-2.71051e-14 -2.56906e-15 0 -2.22045e-13 4.74069e-14 0 0 0 0)
(-2.71051e-14 2.57861e-15 0 -2.22045e-13 4.31645e-14 0 0 0 0)
(-5.42101e-14 4.19597e-15 0 -8.88178e-14 3.70924e-14 0 0 0 0)
(-2.71051e-14 3.98448e-15 0 0 2.63806e-14 0 0 0 0)
(-8.13152e-14 7.58958e-15 0 8.88178e-14 2.11545e-14 0 0 0 0)
(2.71051e-14 9.34504e-15 0 1.77636e-13 -3.97772e-15 0 0 0 0)
(0 2.56932e-15 0 8.88178e-14 -1.62257e-14 0 0 0 0)
(0 2.01957e-15 0 8.88178e-14 -1.4255e-14 0 0 0 0)
(5.42101e-14 3.67405e-16 0 8.88178e-14 -2.43039e-14 0 0 0 0)
(0 -1.00071e-14 0 -4.44089e-14 -1.57246e-14 0 0 0 0)
)
;
    }
    fixedWalls
    {
        type            extrapolatedCalculated;
        value           nonuniform List<tensor> 
60
(
(-4.79616e-12 5.68283e-11 0 7.58942e-13 1.54744e-11 0 0 0 0)
(7.86038e-12 5.06919e-12 0 6.50521e-13 -2.60193e-11 0 0 0 0)
(-2.22045e-12 -4.72488e-11 0 -3.44234e-12 7.27198e-12 0 0 0 0)
(-5.9508e-12 3.41571e-11 0 2.71051e-12 1.18052e-11 0 0 0 0)
(8.74856e-12 -2.81268e-14 0 8.13152e-14 -1.71936e-11 0 0 0 0)
(-5.68434e-12 -3.46171e-11 0 -1.65341e-12 1.19116e-11 0 0 0 0)
(2.22045e-12 4.76183e-11 0 2.19551e-12 4.36855e-12 0 0 0 0)
(3.01981e-12 -1.71429e-11 0 -1.11131e-12 -1.86749e-11 0 0 0 0)
(-2.30926e-12 -2.70813e-11 0 -7.31836e-13 1.60404e-11 0 0 0 0)
(2.22045e-13 4.70188e-11 0 3.52366e-13 -4.41588e-12 0 0 0 0)
(-9.76996e-13 -4.47448e-11 0 8.94467e-13 -4.63663e-12 0 0 0 0)
(3.86358e-12 2.84723e-11 0 -1.00289e-12 1.13732e-11 0 0 0 0)
(-5.06262e-12 7.48226e-13 0 -1.89735e-13 -1.62259e-11 0 0 0 0)
(3.10862e-12 -3.64313e-11 0 -2.71051e-13 1.36706e-11 0 0 0 0)
(-6.12843e-12 5.54304e-11 0 9.48677e-13 1.33697e-12 0 0 0 0)
(6.83897e-12 -3.10834e-11 0 -4.87891e-13 -1.76507e-11 0 0 0 0)
(-8.17124e-12 -1.51723e-11 0 -1.57209e-12 1.96483e-11 0 0 0 0)
(7.54952e-13 4.75097e-11 0 4.49944e-12 -7.10233e-13 0 0 0 0)
(9.76996e-12 -1.80133e-11 0 -1.0842e-12 -2.02631e-11 0 0 0 0)
(-3.55271e-12 -3.35425e-11 0 -1.54499e-12 1.28889e-11 0 0 0 0)
(0 -3.81053e-15 0 0 -2.7889e-15 0 0 0 0)
(8.88178e-14 1.49661e-14 0 -5.42101e-14 -1.01475e-14 0 0 0 0)
(8.88178e-14 3.67793e-14 0 0 -3.63132e-15 0 0 0 0)
(0 2.94914e-14 0 5.42101e-14 6.8599e-15 0 0 0 0)
(-4.44089e-14 9.33975e-15 0 2.71051e-14 7.67556e-15 0 0 0 0)
(-4.44089e-14 -1.21084e-15 0 0 -2.14669e-15 0 0 0 0)
(0 1.79265e-14 0 0 -2.8333e-15 0 0 0 0)
(-8.88178e-14 1.01224e-14 0 2.71051e-14 9.62402e-15 0 0 0 0)
(-4.44089e-14 -2.05696e-14 0 -5.42101e-14 -1.60966e-15 0 0 0 0)
(8.88178e-14 1.6561e-14 0 0 -1.16868e-14 0 0 0 0)
(-8.88178e-14 2.61777e-14 0 2.71051e-14 5.92122e-15 0 0 0 0)
(0 -7.12387e-15 0 -8.13152e-14 9.68437e-16 0 0 0 0)
(1.77636e-13 2.23039e-14 0 0 -1.07046e-14 0 0 0 0)
(-4.44089e-14 3.56947e-14 0 8.13152e-14 5.58329e-15 0 0 0 0)
(-8.88178e-14 -2.92076e-17 0 0 1.03994e-14 0 0 0 0)
(0 -5.9031e-15 0 0 1.8376e-15 0 0 0 0)
(-8.88178e-14 -7.3796e-15 0 0 3.79612e-15 0 0 0 0)
(0 -2.10876e-14 0 0 4.37926e-15 0 0 0 0)
(-4.44089e-14 -2.48966e-14 0 0 -1.34073e-15 0 0 0 0)
(-4.44089e-14 -1.57246e-14 0 -2.71051e-14 -1.01553e-14 0 0 0 0)
(-7.86047e-13 1.11824e-11 0 -4.79616e-12 5.68283e-11 0 0 0 0)
(1.24683e-12 -1.34941e-11 0 1.64313e-12 -1.20986e-11 0 0 0 0)
(-3.52366e-13 2.86967e-12 0 1.77636e-13 2.852e-12 0 0 0 0)
(0 -6.73401e-13 0 2.66454e-13 -6.19984e-13 0 0 0 0)
(-5.42101e-14 1.54247e-13 0 1.77636e-13 1.58392e-13 0 0 0 0)
(0 -3.1558e-14 0 8.88178e-14 -2.9949e-15 0 0 0 0)
(0 5.3529e-15 0 1.33227e-13 3.21599e-14 0 0 0 0)
(0 -5.4157e-15 0 8.88178e-14 1.84167e-14 0 0 0 0)
(2.71051e-14 -8.19408e-15 0 1.33227e-13 1.04971e-14 0 0 0 0)
(5.42101e-14 6.79077e-16 0 2.22045e-13 -1.43596e-14 0 0 0 0)
(0 1.72951e-14 0 3.10862e-13 1.32134e-14 0 0 0 0)
(-2.71051e-14 7.10845e-15 0 2.22045e-13 5.48206e-14 0 0 0 0)
(-2.71051e-14 -1.10269e-14 0 2.22045e-13 4.16472e-14 0 0 0 0)
(-2.71051e-14 -9.02303e-15 0 1.77636e-13 1.0713e-14 0 0 0 0)
(0 5.15948e-15 0 8.88178e-14 5.55507e-15 0 0 0 0)
(-2.71051e-14 1.20067e-14 0 4.44089e-14 3.13509e-14 0 0 0 0)
(-2.71051e-14 -1.95467e-15 0 0 5.3582e-14 0 0 0 0)
(0 -1.47605e-14 0 0 2.35322e-14 0 0 0 0)
(0 -4.93042e-15 0 -8.88178e-14 -5.45982e-15 0 0 0 0)
(0 4.12324e-16 0 0 3.81053e-15 0 0 0 0)
)
;
    }
    frontAndBack
    {
        type            empty;
    }
}


// ************************************************************************* //
