/*--------------------------------*- C++ -*----------------------------------*\
| =========                 |                                                 |
| \\      /  F ield         | OpenFOAM: The Open Source CFD Toolbox           |
|  \\    /   O peration     | Version:  2506                                  |
|   \\  /    A nd           | Website:  www.openfoam.com                      |
|    \\/     M anipulation  |                                                 |
\*---------------------------------------------------------------------------*/
FoamFile
{
    version     2.0;
    format      ascii;
    arch        "LSB;label=32;scalar=64";
    class       volVectorField;
    location    "8.875";
    object      LambVectorField;
}
// * * * * * * * * * * * * * * * * * * * * * * * * * * * * * * * * * * * * * //

dimensions      [0 1 -2 0 0 0 0];

internalField   nonuniform List<vector> 
400
(
(-1.48087e-24 -1.04235e-11 0)
(-4.00772e-25 1.32501e-11 -0)
(-2.08472e-26 -2.92388e-12 0)
(-1.00173e-27 6.46296e-13 -0)
(-7.18119e-29 -1.81352e-13 0)
(3.72544e-31 -4.97571e-14 -0)
(-4.78885e-30 -5.9563e-14 0)
(-2.24658e-30 -4.87944e-14 0)
(2.15034e-31 8.19408e-15 0)
(2.43782e-32 -6.79077e-16 -0)
(1.21943e-30 3.6915e-14 0)
(6.45535e-30 4.71017e-14 0)
(9.61447e-30 9.23421e-14 0)
(1.69353e-30 6.32331e-14 0)
(6.81199e-31 4.90506e-14 0)
(-9.41053e-31 -1.20067e-14 0)
(2.61837e-31 1.95467e-15 0)
(8.68364e-31 1.47605e-14 0)
(6.72646e-31 -4.92797e-14 -0)
(-3.92793e-33 -4.12324e-16 0)
(-5.21922e-27 -4.11839e-13 0)
(-2.02584e-27 9.88519e-13 -0)
(-1.43974e-28 -2.3245e-13 0)
(9.93874e-32 2.4364e-14 0)
(-3.07448e-30 -2.93689e-14 0)
(3.31282e-31 1.23993e-14 0)
(-2.86251e-31 1.48256e-14 -0)
(-2.99217e-30 2.46192e-14 -0)
(7.65035e-30 -2.88149e-14 -0)
(2.11637e-29 -5.6363e-14 -0)
(4.23098e-29 -1.73422e-13 -0)
(-5.20002e-31 -1.49737e-13 0)
(-2.58935e-29 -1.53034e-13 0)
(-1.99011e-29 -1.11452e-13 0)
(-9.11588e-30 -4.56898e-14 0)
(-4.04364e-30 -4.33128e-14 0)
(-1.02565e-31 -1.13277e-15 0)
(1.17168e-30 1.11923e-14 0)
(-1.46275e-30 6.84203e-14 -0)
(2.24827e-30 -6.00895e-14 -0)
(-6.89341e-25 5.83584e-12 -0)
(-2.56764e-25 -1.01327e-11 0)
(-1.49414e-26 2.50989e-12 -0)
(-5.76459e-28 -4.34917e-13 0)
(-6.73146e-29 2.70817e-13 -0)
(-4.35737e-30 1.58581e-13 -0)
(-2.61238e-29 1.25557e-13 -0)
(-2.2728e-29 1.143e-13 -0)
(-3.02896e-29 1.13502e-13 -0)
(-2.43373e-29 9.74798e-14 -0)
(-1.11055e-29 7.05295e-14 -0)
(1.38431e-30 -9.76176e-15 -0)
(1.04545e-30 -1.74704e-14 -0)
(-6.61343e-31 -2.01048e-14 0)
(-8.72883e-30 -6.18157e-14 0)
(1.27544e-30 1.17066e-14 0)
(2.93386e-31 1.21531e-14 0)
(-7.91634e-32 6.29251e-15 -0)
(-1.35907e-30 3.50418e-14 -0)
(1.20207e-30 -1.30733e-14 -0)
(-3.39273e-25 -3.97309e-12 0)
(-1.36982e-25 7.38176e-12 -0)
(-6.99093e-27 -1.6423e-12 0)
(-4.29854e-28 4.09522e-13 -0)
(-1.56386e-29 -9.67872e-14 0)
(-1.57395e-30 1.92471e-14 -0)
(4.78684e-32 -1.54948e-15 -0)
(-3.57428e-31 5.39257e-15 -0)
(2.98036e-30 -3.5138e-14 -0)
(-9.4602e-31 -6.73444e-14 0)
(1.32283e-30 2.84335e-14 0)
(4.66375e-32 6.11211e-14 0)
(-1.16907e-30 5.17601e-14 -0)
(1.33267e-30 5.27521e-14 0)
(-5.66928e-31 7.08077e-14 -0)
(4.86514e-30 3.73273e-14 0)
(6.72053e-30 4.17887e-14 0)
(-3.53943e-31 2.14528e-14 -0)
(-3.07357e-31 5.72298e-15 -0)
(-3.05728e-30 4.14667e-14 -0)
(-5.66659e-30 8.05864e-14 -0)
(8.53514e-30 1.09983e-13 0)
(-5.55519e-30 6.46359e-14 -0)
(-1.59668e-30 5.99042e-14 -0)
(-9.15937e-30 6.41021e-14 -0)
(1.63572e-30 -1.3026e-14 -0)
(1.23637e-31 -9.79131e-15 -0)
(-1.82228e-31 6.58805e-15 -0)
(1.84359e-30 -2.34829e-14 -0)
(3.32764e-31 -5.20903e-15 -0)
(1.04206e-30 -3.94457e-14 -0)
(-1.81269e-31 -3.04528e-15 0)
(-1.86827e-31 -4.62973e-14 0)
(-4.39672e-32 2.2428e-15 -0)
(7.27309e-31 -3.95435e-14 -0)
(-7.06592e-30 -6.74352e-14 0)
(-2.48825e-30 -2.18539e-14 0)
(4.55339e-31 8.71138e-15 0)
(-5.22675e-31 -1.95432e-14 0)
(-6.40814e-31 2.74446e-14 -0)
(-4.43554e-25 5.12526e-12 -0)
(-1.45071e-25 -7.73463e-12 0)
(-7.43562e-27 1.72217e-12 -0)
(-3.82002e-28 -3.84998e-13 0)
(-2.323e-29 1.18195e-13 -0)
(2.63633e-30 3.24204e-14 0)
(5.92225e-31 2.77287e-14 0)
(-8.58738e-31 -1.14376e-14 0)
(6.93768e-30 5.11124e-14 0)
(3.35872e-30 3.16689e-14 0)
(1.33687e-30 1.48383e-14 0)
(-2.02737e-30 4.78993e-14 -0)
(-6.85142e-30 5.81386e-14 -0)
(6.55777e-31 -8.03544e-15 -0)
(2.18842e-30 -5.83703e-14 -0)
(1.17856e-30 -2.94578e-14 -0)
(1.8431e-31 -1.31984e-14 -0)
(-5.87296e-30 -6.38532e-14 0)
(7.33532e-31 8.89488e-15 0)
(2.58797e-32 8.54938e-15 0)
(-8.50123e-25 -7.14114e-12 0)
(-2.65984e-25 1.03579e-11 -0)
(-1.60184e-26 -2.56236e-12 0)
(-4.95601e-28 4.34729e-13 -0)
(-1.39114e-28 -2.53452e-13 0)
(-1.78397e-29 -5.74922e-14 0)
(-4.05924e-30 -1.30669e-14 0)
(2.58267e-30 1.51997e-14 0)
(9.82678e-31 6.19392e-15 0)
(4.32666e-30 4.00704e-14 0)
(2.19167e-30 7.55787e-14 0)
(-4.50278e-30 4.25957e-14 -0)
(7.63795e-31 -6.06631e-15 -0)
(9.57721e-31 -2.12607e-14 -0)
(4.08467e-30 4.71133e-14 0)
(9.26869e-31 3.57574e-14 0)
(6.88956e-34 3.9249e-15 0)
(-1.12684e-31 8.45474e-15 -0)
(-2.55258e-30 3.02539e-14 -0)
(5.78973e-31 -1.29188e-14 -0)
(-9.70272e-26 2.26396e-12 -0)
(-3.40788e-26 -3.74303e-12 0)
(-1.69469e-27 7.79408e-13 -0)
(-1.30053e-28 -2.61488e-13 0)
(-5.04758e-30 4.97099e-14 -0)
(-3.27456e-32 -1.26006e-13 0)
(-8.99943e-30 -1.21087e-13 0)
(-7.75446e-30 -6.1093e-14 0)
(-7.9466e-30 -5.55119e-14 0)
(-7.45938e-30 -5.33015e-14 0)
(-7.06016e-30 -5.26624e-14 0)
(-4.73278e-30 -3.80237e-14 0)
(-3.81249e-31 1.37141e-14 -0)
(9.23449e-31 -7.2877e-14 -0)
(-2.70774e-30 -1.70438e-14 0)
(1.06262e-29 6.73535e-14 0)
(2.34522e-30 8.54822e-14 0)
(-1.52054e-29 9.81284e-14 -0)
(1.82411e-30 -1.29648e-14 -0)
(-2.65832e-31 1.05047e-14 -0)
(-3.09456e-25 4.57077e-12 -0)
(-9.06123e-26 -6.17375e-12 0)
(-4.904e-27 1.39073e-12 -0)
(-2.84852e-28 -3.70069e-13 0)
(1.0722e-30 -1.11039e-14 -0)
(-3.24735e-30 -4.80281e-14 0)
(-4.66524e-30 -4.14061e-14 0)
(-1.95909e-29 -9.30139e-14 0)
(-1.87246e-29 -8.15327e-14 0)
(1.59816e-30 7.5102e-15 0)
(-7.40625e-30 -4.79196e-14 0)
(6.70037e-31 4.47007e-15 0)
(6.89327e-30 6.27488e-14 0)
(4.56814e-30 7.08167e-14 0)
(-2.34635e-30 4.17419e-14 -0)
(-2.31114e-30 2.8232e-14 -0)
(6.86617e-32 -1.0175e-15 -0)
(5.58004e-31 -7.78387e-15 -0)
(-4.0827e-31 -3.94162e-14 0)
(-2.46999e-30 -4.80319e-14 0)
(-1.04105e-24 -8.8565e-12 0)
(-2.78399e-25 1.09355e-11 -0)
(-1.47595e-26 -2.45025e-12 0)
(-7.29574e-28 5.94656e-13 -0)
(-2.53327e-29 -7.27632e-14 0)
(1.93259e-30 4.51035e-14 0)
(3.15222e-30 1.87445e-14 0)
(1.25908e-29 9.95687e-14 0)
(-1.83286e-30 1.27574e-13 -0)
(-1.98757e-30 3.05389e-14 -0)
(-2.08107e-30 4.27275e-14 -0)
(5.75962e-31 1.15788e-14 0)
(-2.91888e-30 -2.73926e-14 0)
(2.34263e-30 4.45214e-14 0)
(-9.86032e-31 1.4585e-14 -0)
(4.9204e-31 -5.27762e-15 -0)
(1.88882e-30 -1.27366e-13 -0)
(-8.5339e-30 -8.86893e-14 0)
(8.1077e-31 1.37625e-14 0)
(-7.24917e-32 1.7509e-15 -0)
(-1.0799e-24 9.65388e-12 -0)
(-2.58327e-25 -1.06449e-11 0)
(-1.35689e-26 2.50655e-12 -0)
(-7.6007e-28 -5.54517e-13 0)
(-2.08737e-29 1.49881e-13 -0)
(5.82724e-30 4.07696e-14 0)
(-9.17862e-32 1.88723e-14 -0)
(-2.7473e-30 5.9995e-14 -0)
(2.01028e-30 -3.20553e-14 -0)
(-3.66999e-32 -9.89225e-15 0)
(-2.97822e-31 -8.22495e-15 0)
(-2.48687e-30 -2.89307e-14 0)
(1.60351e-31 2.94404e-15 0)
(-1.57933e-30 -2.79433e-14 0)
(1.80646e-30 2.87429e-14 0)
(1.18706e-30 2.95724e-14 0)
(2.11111e-30 5.53001e-14 0)
(1.73752e-31 5.94215e-15 0)
(-2.01168e-31 9.46849e-15 -0)
(-1.20653e-30 1.8436e-14 -0)
(-4.72043e-25 -6.63161e-12 0)
(-9.83484e-26 6.60348e-12 -0)
(-6.48688e-27 -1.7113e-12 0)
(-1.41212e-28 2.87642e-13 -0)
(-6.26438e-29 -1.68355e-13 0)
(-4.60574e-30 -4.24789e-14 0)
(5.70113e-32 -3.50394e-15 -0)
(6.38777e-30 -5.00661e-14 -0)
(8.40055e-30 -1.45563e-13 -0)
(2.31011e-30 -8.48962e-14 -0)
(1.43923e-30 -6.57168e-14 -0)
(-8.00481e-30 -9.11134e-14 0)
(-6.18274e-30 -8.1264e-14 0)
(-5.40448e-30 -6.18757e-14 0)
(-1.7736e-29 -1.16121e-13 0)
(-7.90473e-30 -4.80975e-14 0)
(6.9408e-30 7.57632e-14 0)
(-3.67621e-30 7.18246e-14 -0)
(5.83221e-31 -6.89928e-15 -0)
(-1.56703e-30 -8.79876e-14 0)
(-5.71924e-28 -3.0575e-13 0)
(-2.2188e-28 3.12321e-13 -0)
(-7.09015e-30 -6.90981e-14 0)
(-1.30887e-30 6.73187e-14 -0)
(-8.82374e-34 3.0987e-17 -0)
(-9.31924e-32 4.71795e-15 -0)
(-3.28731e-30 4.34512e-14 -0)
(8.90394e-30 -4.85985e-14 -0)
(-7.32134e-30 5.5561e-14 -0)
(-9.63027e-30 4.89534e-14 -0)
(1.89525e-30 -2.39286e-14 -0)
(-6.63435e-31 -1.55871e-14 0)
(4.07831e-30 5.3195e-14 0)
(4.08792e-31 7.75495e-15 0)
(-6.49287e-33 7.3574e-15 -0)
(6.11728e-32 -2.9325e-15 -0)
(-3.28153e-30 -1.15374e-13 0)
(4.21863e-31 8.66631e-15 0)
(-2.18612e-30 3.75489e-14 -0)
(6.35553e-31 -1.1398e-14 -0)
(-6.26698e-25 6.88089e-12 -0)
(-1.64472e-25 -8.40911e-12 0)
(-8.73819e-27 1.92152e-12 -0)
(-5.11436e-28 -4.42152e-13 0)
(-1.44348e-29 1.14544e-13 -0)
(2.76952e-31 2.46151e-14 0)
(-1.25923e-30 1.2453e-14 -0)
(3.45199e-31 -3.04735e-15 -0)
(-5.07839e-30 7.18857e-14 -0)
(3.46879e-31 -1.82728e-14 -0)
(6.3428e-30 5.65906e-14 0)
(-4.28638e-30 1.00176e-13 -0)
(-2.28734e-30 2.98898e-14 -0)
(-4.02459e-30 5.69761e-14 -0)
(-8.58533e-30 8.24042e-14 -0)
(-1.71128e-30 2.09905e-14 -0)
(3.29326e-31 -7.65156e-15 -0)
(1.4895e-32 -2.97256e-15 -0)
(-1.12144e-31 8.42258e-15 -0)
(-6.34116e-30 7.106e-14 -0)
(-1.38251e-24 -9.97655e-12 0)
(-3.72268e-25 1.26951e-11 -0)
(-2.07219e-26 -2.95288e-12 0)
(-9.66224e-28 6.79818e-13 -0)
(-5.76412e-30 -2.62792e-14 0)
(-3.79992e-29 1.10029e-13 -0)
(3.16929e-30 -9.35312e-15 -0)
(1.01704e-29 -4.03868e-14 -0)
(1.421e-29 -6.89702e-14 -0)
(1.04794e-29 -1.00547e-13 -0)
(1.02645e-31 -7.48285e-15 -0)
(1.88065e-30 -6.39778e-14 -0)
(-7.75925e-30 -9.24168e-14 0)
(-4.29335e-30 -5.26012e-14 0)
(-1.61041e-30 -2.37276e-14 0)
(-7.72437e-31 -1.6144e-14 0)
(-2.74496e-30 6.57635e-14 -0)
(2.06939e-31 -3.0573e-15 -0)
(3.78347e-31 -3.3881e-14 -0)
(-8.10067e-35 -1.10939e-15 0)
(-4.36402e-25 5.61589e-12 -0)
(-1.15017e-25 -6.89941e-12 0)
(-7.76787e-27 1.89161e-12 -0)
(-9.2028e-29 -1.97931e-13 0)
(-6.84749e-29 1.36713e-13 -0)
(1.0553e-30 -1.18531e-14 -0)
(-1.19502e-29 1.07385e-13 -0)
(-6.29773e-30 8.00437e-14 -0)
(-6.82554e-31 6.9246e-15 -0)
(-1.7748e-29 1.1998e-13 -0)
(-1.07772e-29 5.03208e-14 -0)
(2.74869e-30 -2.521e-14 -0)
(1.78494e-30 4.70575e-14 0)
(-2.58919e-30 6.90355e-14 -0)
(-3.55794e-30 3.22501e-14 -0)
(-3.92306e-31 4.41012e-15 -0)
(-4.88945e-30 3.16624e-14 -0)
(1.32171e-30 -9.82471e-15 -0)
(-6.8404e-31 1.21764e-14 -0)
(-6.11263e-32 -4.14198e-15 0)
(-5.56084e-26 1.46605e-12 -0)
(-2.35454e-26 -3.11885e-12 0)
(-1.58571e-27 7.42899e-13 -0)
(-2.3448e-29 -1.94754e-13 0)
(1.44193e-29 -7.71273e-14 -0)
(-4.26525e-30 -5.43204e-14 0)
(-3.85393e-30 -4.52344e-14 0)
(-2.45861e-31 2.18801e-14 -0)
(-1.42403e-30 1.06587e-14 -0)
(1.03812e-29 -8.81078e-14 -0)
(4.17792e-30 -6.3614e-14 -0)
(2.59114e-31 -1.08943e-14 -0)
(-2.04765e-31 -4.73264e-15 0)
(1.64742e-30 6.99781e-14 0)
(-5.00686e-30 4.3761e-14 -0)
(-8.19357e-30 5.72907e-14 -0)
(-3.3984e-30 2.34017e-14 -0)
(1.60182e-30 -1.51138e-14 -0)
(-7.36415e-32 -1.24433e-14 0)
(4.4955e-32 2.43672e-15 0)
(-5.72716e-25 -4.82189e-12 0)
(-2.57712e-25 1.00823e-11 -0)
(-1.37499e-26 -2.38942e-12 0)
(-5.37797e-28 3.85321e-13 -0)
(-5.10743e-29 -1.8574e-13 0)
(3.02387e-30 -3.76043e-14 -0)
(-7.32602e-30 -6.72606e-14 0)
(7.77379e-31 1.5519e-14 0)
(-4.61109e-31 9.9656e-15 -0)
(8.04123e-32 -1.6224e-15 -0)
(5.18969e-32 -1.72724e-15 -0)
(-1.83073e-30 5.66939e-14 -0)
(-3.52924e-30 6.43034e-14 -0)
(-5.77012e-30 4.33112e-14 -0)
(-9.91488e-31 4.57021e-15 -0)
(3.32906e-30 -1.86057e-14 -0)
(1.44873e-30 -4.69015e-14 -0)
(-1.69608e-31 -8.9092e-15 0)
(-1.77364e-30 -3.04732e-14 0)
(5.84769e-31 1.10922e-14 0)
(-1.10164e-25 2.44628e-12 -0)
(-3.86302e-26 -3.97091e-12 0)
(-2.41602e-27 1.03142e-12 -0)
(-4.35844e-29 -8.74635e-14 0)
(-2.4096e-29 2.14108e-13 -0)
(-1.55619e-30 9.4552e-14 -0)
(2.622e-30 1.00302e-13 0)
(6.97925e-30 1.07835e-13 0)
(4.75309e-30 1.4856e-13 0)
(-1.04656e-29 1.59466e-13 -0)
(-2.05606e-29 9.91286e-14 -0)
(-2.19233e-29 8.99367e-14 -0)
(-2.62502e-30 8.93992e-15 -0)
(9.80412e-30 -2.94274e-14 -0)
(2.12709e-29 -7.8663e-14 -0)
(1.2608e-29 -1.42247e-13 -0)
(-6.57374e-30 -9.68704e-14 0)
(-3.67112e-30 -5.48601e-14 0)
(-3.99634e-30 -5.37425e-14 0)
(8.50235e-31 1.36602e-14 0)
(-4.27178e-25 5.09417e-12 -0)
(-1.34572e-25 -7.70536e-12 0)
(-5.98595e-27 1.46279e-12 -0)
(-4.24255e-28 -4.51628e-13 0)
(2.14961e-30 -1.82237e-14 -0)
(-2.04004e-30 -5.45113e-14 0)
(4.71851e-30 -4.10501e-14 -0)
(1.06318e-29 -1.12893e-13 -0)
(5.79381e-30 -8.25107e-14 -0)
(6.28867e-30 -7.64853e-14 -0)
(9.33277e-30 -7.87461e-14 -0)
(9.05308e-30 -8.38938e-14 -0)
(5.41606e-30 -5.84061e-14 -0)
(3.83802e-30 -5.81946e-14 -0)
(4.01384e-31 -7.58958e-15 -0)
(4.46152e-31 4.48651e-14 0)
(2.09477e-30 5.16408e-14 0)
(1.85994e-30 5.21905e-14 0)
(3.27147e-30 5.38427e-14 0)
(-6.72146e-31 -1.70979e-14 0)
)
;

boundaryField
{
    movingWall
    {
        type            calculated;
        value           nonuniform List<vector> 
20
(
(0 1.01919e-11 -0)
(0 -9.30868e-12 -0)
(0 1.29726e-12 -0)
(0 -7.5269e-13 -0)
(0 -3.09484e-13 -0)
(0 -3.55573e-13 -0)
(0 -3.42111e-13 -0)
(0 -3.15335e-13 -0)
(0 -3.12058e-13 -0)
(0 -2.61624e-13 -0)
(0 -2.19476e-13 -0)
(0 -2.24623e-13 -0)
(0 -9.30138e-14 -0)
(0 -3.98448e-15 -0)
(0 8.12283e-14 -0)
(0 1.68291e-13 -0)
(0 8.62485e-14 -0)
(0 8.67983e-14 -0)
(0 8.84504e-14 -0)
(0 -3.44018e-14 -0)
)
;
    }
    fixedWalls
    {
        type            calculated;
        value           nonuniform List<vector> 
60
(
(0 -5.60694e-11 -0)
(0 -4.41867e-12 -0)
(0 4.38065e-11 -0)
(0 -3.14466e-11 -0)
(0 1.09442e-13 -0)
(0 3.29637e-11 -0)
(0 -4.54228e-11 -0)
(0 1.60316e-11 -0)
(0 2.63494e-11 -0)
(0 -4.66664e-11 -0)
(0 4.56392e-11 -0)
(0 -2.94752e-11 -0)
(0 -9.37961e-13 -0)
(0 3.61602e-11 -0)
(0 -5.44818e-11 -0)
(0 3.05955e-11 -0)
(0 1.36002e-11 -0)
(0 -4.30103e-11 -0)
(0 1.69291e-11 -0)
(0 3.19975e-11 -0)
(0 3.81053e-15 -0)
(0 -6.91762e-14 -0)
(0 -3.67793e-14 -0)
(0 2.47187e-14 -0)
(0 1.77653e-14 -0)
(0 1.21084e-15 -0)
(0 -1.79265e-14 -0)
(0 1.69827e-14 -0)
(0 -3.36405e-14 -0)
(0 -1.6561e-14 -0)
(0 9.27369e-16 -0)
(0 -7.41913e-14 -0)
(0 -2.23039e-14 -0)
(0 4.56205e-14 -0)
(0 2.92076e-17 -0)
(0 5.9031e-15 -0)
(0 7.3796e-15 -0)
(0 2.10876e-14 -0)
(0 2.48966e-14 -0)
(0 -1.13804e-14 -0)
(0 -1.59786e-11 -0)
(0 1.51372e-11 -0)
(0 -2.69203e-12 -0)
(0 9.39855e-13 -0)
(0 2.33885e-14 -0)
(0 1.20376e-13 -0)
(0 1.27874e-13 -0)
(0 9.42335e-14 -0)
(0 1.41421e-13 -0)
(0 2.21366e-13 -0)
(0 2.93567e-13 -0)
(0 2.14936e-13 -0)
(0 2.33072e-13 -0)
(0 1.86659e-13 -0)
(0 8.36584e-14 -0)
(0 3.24022e-14 -0)
(0 1.95467e-15 -0)
(0 1.47605e-14 -0)
(0 -8.38874e-14 -0)
(0 -4.12324e-16 -0)
)
;
    }
    frontAndBack
    {
        type            empty;
    }
}


// ************************************************************************* //
