/*--------------------------------*- C++ -*----------------------------------*\
| =========                 |                                                 |
| \\      /  F ield         | OpenFOAM: The Open Source CFD Toolbox           |
|  \\    /   O peration     | Version:  2506                                  |
|   \\  /    A nd           | Website:  www.openfoam.com                      |
|    \\/     M anipulation  |                                                 |
\*---------------------------------------------------------------------------*/
FoamFile
{
    version     2.0;
    format      ascii;
    arch        "LSB;label=32;scalar=64";
    class       volScalarField;
    location    "8.875";
    object      p;
}
// * * * * * * * * * * * * * * * * * * * * * * * * * * * * * * * * * * * * * //

dimensions      [0 2 -2 0 0 0 0];

internalField   nonuniform List<scalar> 
400
(
0
2.61419e-15
7.43208e-16
9.31875e-16
9.55594e-16
8.39764e-16
8.0429e-16
9.25615e-16
9.13426e-16
9.36821e-16
1.25792e-15
1.34585e-15
1.2025e-15
1.19273e-15
1.20724e-15
1.36438e-15
1.63809e-15
1.86804e-15
1.91669e-15
1.85276e-15
1.63293e-15
0
7.70855e-16
7.52629e-16
9.2189e-16
7.67699e-16
7.53082e-16
9.43061e-16
9.07725e-16
1.20208e-15
1.39998e-15
1.13107e-15
1.06745e-15
1.20656e-15
1.26591e-15
1.37516e-15
1.53155e-15
1.95365e-15
2.08443e-15
1.78883e-15
8.91494e-16
1.49812e-15
7.90766e-16
8.17916e-16
7.65078e-16
8.28213e-16
8.93806e-16
1.00465e-15
1.05922e-15
1.35702e-15
1.61314e-15
1.42898e-15
1.07181e-15
1.13326e-15
1.0793e-15
1.35987e-15
1.59157e-15
1.7793e-15
2.02632e-15
1.97417e-15
2.42001e-16
1.84131e-15
8.93768e-16
1.02828e-15
5.57787e-16
8.17336e-16
1.16785e-15
1.13896e-15
1.24359e-15
1.33266e-15
1.36382e-15
1.37103e-15
1.22005e-15
1.23282e-15
1.32452e-15
1.40845e-15
1.63481e-15
1.71978e-15
1.82057e-15
2.10734e-15
8.55915e-16
0
8.6544e-16
8.84532e-16
7.54787e-16
8.18823e-16
9.85272e-16
1.14176e-15
1.36797e-15
1.35829e-15
1.39801e-15
1.47057e-15
1.28911e-15
1.11004e-15
1.53177e-15
1.69848e-15
1.52664e-15
1.65928e-15
1.85245e-15
2.25493e-15
1.51822e-16
2.1134e-15
1.0021e-15
1.02306e-15
9.52033e-16
1.17466e-15
1.16436e-15
1.13103e-15
1.29731e-15
1.40693e-15
1.53546e-15
1.41017e-15
1.43906e-15
1.51132e-15
1.75681e-15
1.62782e-15
1.59984e-15
1.73524e-15
1.74875e-15
2.26018e-15
7.12837e-16
2.18427e-15
1.10332e-15
1.30143e-15
1.17406e-15
1.25591e-15
1.4045e-15
1.39872e-15
1.39686e-15
1.47781e-15
1.60025e-15
1.70802e-15
1.66988e-15
1.53902e-15
1.78822e-15
1.95322e-15
1.86046e-15
1.84186e-15
1.77472e-15
2.23211e-15
1.67463e-15
0
1.39676e-15
1.33304e-15
1.40818e-15
1.52448e-15
1.66437e-15
1.64431e-15
1.64797e-15
1.68558e-15
1.67227e-15
1.69312e-15
1.74836e-15
1.88689e-15
1.91089e-15
1.99426e-15
2.00073e-15
1.95065e-15
2.00834e-15
2.38915e-15
1.05314e-15
3.71783e-15
1.60129e-15
1.63111e-15
1.37844e-15
1.78656e-15
1.83624e-15
1.81751e-15
1.78012e-15
1.89264e-15
1.88111e-15
1.69863e-15
1.9672e-15
1.9374e-15
1.84602e-15
1.97746e-15
2.04579e-15
2.19225e-15
2.25338e-15
2.38218e-15
1.71621e-15
8.67522e-16
1.76485e-15
1.72948e-15
1.52541e-15
1.83698e-15
2.00063e-15
1.93574e-15
1.86023e-15
2.01331e-15
1.91e-15
1.80322e-15
1.88851e-15
2.02783e-15
2.09806e-15
2.22296e-15
2.29943e-15
2.4233e-15
2.33151e-15
2.23157e-15
1.92138e-15
9.77805e-16
2.06509e-15
1.92653e-15
1.84571e-15
2.02016e-15
1.95171e-15
1.87607e-15
2.06331e-15
2.10667e-15
2.06545e-15
1.97531e-15
2.02148e-15
2.08664e-15
2.11421e-15
2.3394e-15
2.36225e-15
2.26727e-15
2.26969e-15
2.52597e-15
2.01387e-15
4.89772e-15
2.17698e-15
2.32456e-15
1.76131e-15
2.01912e-15
1.99602e-15
2.10014e-15
2.16169e-15
2.12134e-15
2.28112e-15
2.09413e-15
2.13551e-15
2.13835e-15
2.23579e-15
2.34749e-15
2.42428e-15
2.54764e-15
2.51959e-15
2.53177e-15
2.95231e-15
0
2.25058e-15
1.85469e-15
2.12732e-15
2.18113e-15
2.16669e-15
2.2926e-15
2.22305e-15
2.3454e-15
2.6027e-15
2.26619e-15
2.34165e-15
2.32878e-15
2.25448e-15
2.38078e-15
2.31483e-15
2.52341e-15
2.80734e-15
2.54977e-15
2.0595e-15
5.38268e-15
2.29466e-15
2.38015e-15
2.20539e-15
2.23519e-15
2.22908e-15
2.53216e-15
2.25642e-15
2.42395e-15
2.65608e-15
2.52955e-15
2.65433e-15
2.53153e-15
2.354e-15
2.46178e-15
2.38275e-15
2.4096e-15
2.75919e-15
2.85506e-15
2.64124e-15
1.7165e-15
2.59277e-15
2.13185e-15
2.32245e-15
2.35716e-15
2.44945e-15
2.60262e-15
2.60885e-15
2.70724e-15
2.63293e-15
2.75287e-15
2.8693e-15
2.59193e-15
2.43465e-15
2.4323e-15
2.36375e-15
2.53985e-15
2.6347e-15
2.98378e-15
3.09615e-15
6.17407e-16
2.7344e-15
2.33311e-15
2.44353e-15
2.41337e-15
2.55649e-15
2.80901e-15
2.73927e-15
2.82245e-15
2.78316e-15
2.91013e-15
2.80296e-15
2.63277e-15
2.42306e-15
2.38749e-15
2.40914e-15
2.56203e-15
2.81233e-15
2.91676e-15
1.71583e-15
4.61907e-15
2.65974e-15
2.79986e-15
2.76646e-15
2.66024e-15
2.59747e-15
2.73489e-15
2.87236e-15
2.9568e-15
2.91811e-15
2.96448e-15
2.78034e-15
2.61722e-15
2.52612e-15
2.36081e-15
2.38146e-15
2.59436e-15
2.85495e-15
2.95422e-15
2.39959e-15
2.82831e-15
2.77623e-15
2.77125e-15
2.84224e-15
2.81437e-15
2.74528e-15
2.7348e-15
2.87531e-15
3.09851e-15
2.8869e-15
2.92758e-15
2.68957e-15
2.3597e-15
2.50747e-15
2.53957e-15
2.6227e-15
2.75828e-15
2.76225e-15
2.81849e-15
2.89812e-15
7.36191e-16
2.87573e-15
2.73838e-15
2.96844e-15
2.9573e-15
2.69642e-15
2.81282e-15
2.85402e-15
3.0146e-15
2.94993e-15
2.88253e-15
2.61644e-15
2.54404e-15
2.78895e-15
2.73871e-15
2.61998e-15
2.62113e-15
2.55141e-15
2.73902e-15
1.459e-15
4.28842e-15
2.80173e-15
2.87597e-15
2.81535e-15
2.87407e-15
2.84953e-15
2.97817e-15
2.99974e-15
2.89459e-15
2.94187e-15
2.9811e-15
2.84644e-15
2.66939e-15
2.89023e-15
2.66741e-15
2.64576e-15
2.6499e-15
2.41033e-15
2.57467e-15
)
;

boundaryField
{
    movingWall
    {
        type            zeroGradient;
    }
    fixedWalls
    {
        type            zeroGradient;
    }
    frontAndBack
    {
        type            empty;
    }
}


// ************************************************************************* //
