/*--------------------------------*- C++ -*----------------------------------*\
| =========                 |                                                 |
| \\      /  F ield         | OpenFOAM: The Open Source CFD Toolbox           |
|  \\    /   O peration     | Version:  2506                                  |
|   \\  /    A nd           | Website:  www.openfoam.com                      |
|    \\/     M anipulation  |                                                 |
\*---------------------------------------------------------------------------*/
FoamFile
{
    version     2.0;
    format      ascii;
    arch        "LSB;label=32;scalar=64";
    class       volScalarField;
    location    "8.875";
    object      QField;
}
// * * * * * * * * * * * * * * * * * * * * * * * * * * * * * * * * * * * * * //

dimensions      [0 0 -2 0 0 0 0];

internalField   nonuniform List<scalar> 
400
(
-2.06504e-23
-7.31859e-24
-1.17496e-25
-1.82526e-26
1.46677e-27
-2.56615e-27
2.90181e-28
-2.93586e-28
-6.48508e-28
-2.23014e-27
-9.37567e-28
-7.66242e-28
1.55824e-28
-6.74479e-29
-2.79696e-28
-4.65492e-28
-6.08505e-28
0
-2.67278e-28
0
-3.59538e-23
-1.18628e-23
-7.39125e-25
-9.18887e-27
6.13618e-29
-5.41831e-29
-1.56376e-27
0
-2.96561e-27
1.16708e-28
5.1359e-27
2.21206e-27
1.48408e-27
3.28688e-28
-8.06988e-28
-6.73614e-28
0
3.8712e-28
7.70336e-28
-2.31371e-28
-3.45011e-23
-1.30563e-23
1.91354e-25
-8.01655e-26
1.84897e-26
-6.58612e-28
1.85797e-27
6.37512e-28
5.51e-28
-3.29785e-27
-2.45181e-27
7.34473e-30
0
0
-1.50195e-28
2.00461e-28
0
-3.28474e-28
3.02749e-28
0
-3.09151e-23
-9.77239e-24
-4.28353e-25
-3.66487e-27
2.86428e-28
-2.6589e-28
-1.58919e-27
0
-2.92806e-28
2.08443e-28
3.91196e-28
3.74646e-28
-1.32814e-28
6.32603e-29
-8.54415e-28
-9.15221e-28
3.98e-28
0
0
-6.90823e-28
-2.7962e-23
-7.68623e-24
-4.64252e-25
-2.73638e-26
-4.34433e-28
-4.42065e-28
2.83253e-28
0
-1.2938e-27
0
3.34494e-28
2.33585e-28
-4.28955e-28
-8.69043e-28
3.37145e-28
1.17866e-27
-6.16092e-28
0
-2.04965e-28
-1.98844e-28
-2.18625e-23
-7.85149e-24
-3.5396e-25
-1.41879e-26
5.93968e-28
-4.72551e-27
-1.73558e-27
-5.35531e-28
-8.1075e-28
1.23702e-28
-3.0041e-28
-3.32108e-28
2.12964e-28
0
-6.29026e-28
-1.49979e-28
-6.16276e-28
5.22755e-28
-3.01182e-28
5.81861e-29
-1.82489e-23
-9.95009e-24
2.77675e-25
-7.326e-26
1.59819e-26
-2.15687e-27
-5.24063e-28
0
0
3.51427e-28
1.1584e-27
-4.84324e-28
-4.88144e-28
3.73721e-28
-3.84717e-28
-8.37619e-28
-1.12214e-28
-6.69305e-28
-1.12442e-27
0
-1.13437e-23
-4.71423e-24
-4.1452e-25
2.67657e-26
0
1.24891e-27
8.36723e-28
3.73124e-28
7.0572e-29
-4.92579e-29
-8.39038e-29
-1.57028e-27
0
7.14991e-28
0
7.12506e-28
1.69526e-27
1.20899e-27
2.56766e-28
-9.71671e-28
-8.66319e-24
-3.62659e-24
-2.44427e-25
1.86432e-26
-5.70924e-27
4.51686e-28
3.87629e-28
9.51284e-28
-4.09263e-28
0
-3.41009e-28
-4.05093e-28
-2.65464e-28
7.23277e-28
-1.44485e-27
-1.33012e-27
-1.1456e-28
-6.80815e-28
-2.07347e-28
-2.9129e-28
-3.0055e-24
-2.54826e-24
5.5449e-26
1.53835e-26
-6.88324e-27
8.96145e-28
-2.26614e-28
7.8927e-28
4.91705e-28
9.30747e-29
-9.43251e-28
-5.94135e-28
-1.42338e-28
4.7207e-28
-3.22712e-28
-3.3069e-28
1.76768e-27
5.24979e-29
0
-6.33543e-28
8.71474e-24
2.57726e-25
4.96501e-25
1.62903e-26
3.32784e-27
-1.0841e-27
0
-3.74977e-28
1.34176e-28
-1.02653e-28
-7.26553e-29
4.94845e-29
0
2.27213e-29
4.43934e-29
-1.32946e-27
-2.29421e-28
-1.19863e-27
-3.88809e-28
-3.95469e-28
1.52014e-23
1.1855e-24
4.05332e-25
1.16118e-26
7.69942e-27
-3.15798e-27
-8.31591e-28
-2.24648e-28
1.36035e-27
-7.95359e-28
6.23777e-28
6.79121e-28
-4.15757e-30
4.05238e-28
8.34879e-28
-3.31366e-28
1.1684e-27
8.49512e-28
0
5.42566e-28
2.15724e-23
3.38574e-24
-4.52012e-26
3.64378e-26
0
0
4.43064e-28
-3.04206e-28
7.32321e-29
-2.84967e-28
-1.45264e-27
-7.08222e-28
-5.50269e-29
0
-1.39279e-27
-6.66444e-28
2.39908e-29
0
-1.02997e-28
-5.80299e-28
8.80715e-24
-3.2707e-25
9.34078e-26
2.27984e-26
0
-9.5004e-28
-1.42678e-27
3.71936e-28
-1.16933e-27
5.0144e-28
-4.84541e-29
1.33862e-27
5.57161e-29
2.28298e-28
8.85523e-29
-5.38196e-28
3.8046e-28
-9.46226e-28
0
-9.85234e-28
-1.21402e-23
-6.44563e-24
4.41824e-25
-1.31249e-26
-9.76508e-27
3.02596e-27
0
3.60002e-28
8.00144e-28
1.9133e-27
-2.65292e-27
5.29507e-28
2.82259e-28
-8.72166e-29
-9.15447e-29
-2.971e-28
2.24929e-29
0
-4.86965e-29
-5.63755e-28
-2.4507e-23
-9.68801e-24
-7.26408e-27
-5.86382e-26
3.40344e-27
-2.20488e-27
-2.41102e-27
-7.55503e-28
1.96321e-28
1.25333e-27
-2.10839e-28
-1.52085e-29
-4.98043e-28
4.88843e-28
1.39457e-28
-5.17338e-28
4.04009e-28
0
-4.04642e-28
0
-3.19372e-23
-1.04635e-23
-5.34564e-25
-5.04333e-27
-8.75224e-27
7.14311e-28
-4.86574e-28
-3.49034e-28
1.41757e-28
5.52342e-28
5.09788e-28
-2.08005e-28
-2.51576e-28
8.54786e-28
1.02946e-27
-7.68664e-29
-4.35223e-28
4.16242e-28
3.10029e-28
-2.05788e-28
-4.20563e-23
-1.38326e-23
-6.55002e-26
-9.01379e-26
7.13024e-27
-1.15764e-27
7.07468e-28
0
-4.4885e-28
-2.82947e-28
-7.68359e-28
-4.61609e-28
-1.27915e-27
-1.49443e-27
-4.22817e-28
0
-4.09745e-29
-9.37304e-28
9.1294e-29
0
-4.17247e-23
-1.14189e-23
-4.33715e-25
-4.28792e-26
8.37179e-27
-2.14239e-27
-2.09373e-27
-4.54502e-28
1.70167e-27
3.24458e-27
1.44851e-27
4.96096e-28
-1.02584e-28
6.29468e-29
4.36223e-28
2.64362e-27
1.26488e-27
3.52352e-29
-1.84202e-29
3.63406e-29
-1.72445e-23
-4.81545e-24
-4.70512e-25
2.15441e-26
-9.77913e-27
1.6327e-29
-7.13407e-28
4.05087e-28
-6.38977e-30
-3.92739e-28
-1.09234e-27
-7.43537e-28
-1.867e-27
-8.65804e-28
-2.62885e-27
-2.93305e-28
-1.39283e-28
-1.09481e-28
-7.52408e-28
-2.71244e-28
)
;

boundaryField
{
    movingWall
    {
        type            calculated;
        value           nonuniform List<scalar> 
20
(
5.4036e-24
3.81003e-24
-9.864e-25
1.41191e-25
-3.60498e-26
1.07001e-28
-4.67539e-27
3.69311e-28
-3.89656e-28
-1.28693e-27
-1.85541e-27
-5.97408e-28
-1.63811e-27
-7.15048e-28
-2.39427e-27
-1.76783e-27
-2.28202e-28
-1.79374e-28
-1.35015e-27
-4.44407e-28
)
;
    }
    fixedWalls
    {
        type            calculated;
        value           nonuniform List<scalar> 
60
(
-1.17347e-22
-2.07819e-22
-1.78794e-22
-1.62833e-22
-1.50417e-22
-1.24946e-22
-9.48464e-23
-7.54456e-23
-5.68606e-23
-1.75483e-23
4.45527e-23
7.24959e-23
8.22874e-23
3.26219e-23
-6.07791e-23
-1.35878e-22
-1.84403e-22
-2.14303e-22
-2.17499e-22
-9.76135e-23
0
-8.99604e-29
-3.22526e-28
-1.59873e-27
-5.94018e-28
9.53321e-29
0
-1.12915e-27
-1.0436e-27
-1.038e-27
-1.23546e-27
-5.79279e-28
-1.90153e-27
-3.15047e-27
-9.23656e-28
0
-3.37163e-28
0
5.95404e-29
2.47694e-29
8.96301e-24
7.08755e-24
-1.5147e-24
1.7943e-25
-3.59862e-26
2.80292e-27
-7.13149e-28
4.81011e-28
1.37619e-27
-9.29223e-28
-5.37639e-27
-3.06431e-27
1.31962e-27
1.31244e-27
-4.58254e-28
-1.38297e-27
-1.45234e-27
0
-4.37909e-28
0
)
;
    }
    frontAndBack
    {
        type            empty;
    }
}


// ************************************************************************* //
