/*--------------------------------*- C++ -*----------------------------------*\
| =========                 |                                                 |
| \\      /  F ield         | OpenFOAM: The Open Source CFD Toolbox           |
|  \\    /   O peration     | Version:  2506                                  |
|   \\  /    A nd           | Website:  www.openfoam.com                      |
|    \\/     M anipulation  |                                                 |
\*---------------------------------------------------------------------------*/
FoamFile
{
    version     2.0;
    format      ascii;
    arch        "LSB;label=32;scalar=64";
    class       volVectorField;
    location    "8.875";
    object      UNear;
}
// * * * * * * * * * * * * * * * * * * * * * * * * * * * * * * * * * * * * * //

dimensions      [0 1 -1 0 0 0 0];

internalField   nonuniform List<vector> 
400
(
(-1 1.42071e-13 0)
(-1 -3.02466e-14 0)
(-1 7.12999e-15 0)
(-1 -1.54996e-15 0)
(-1 3.9598e-16 0)
(-1 -7.48726e-18 0)
(-1 8.03997e-17 0)
(-1 4.60417e-17 0)
(-1 2.62426e-17 0)
(-1 -3.58991e-17 0)
(-1 3.30334e-17 0)
(-1 1.37052e-16 0)
(-1 1.04118e-16 0)
(-1 2.67824e-17 0)
(-1 1.38877e-17 0)
(-1 7.83772e-17 0)
(-1 1.33955e-16 0)
(-1 5.88305e-17 0)
(-1 -1.36496e-17 0)
(-1 9.52632e-18 0)
(-1 1.2673e-14 0)
(-1 -2.04937e-15 0)
(-1 6.19376e-16 0)
(-1 4.07927e-18 0)
(-1 1.04685e-16 0)
(-1 2.67178e-17 0)
(-1 -1.93079e-17 0)
(-1 -1.21538e-16 0)
(-1 -2.655e-16 0)
(-1 -3.7549e-16 0)
(-1 -2.43971e-16 0)
(-1 3.47276e-18 0)
(-1 1.69201e-16 0)
(-1 1.78562e-16 0)
(-1 1.99517e-16 0)
(-1 9.33589e-17 0)
(-1 9.05437e-17 0)
(-1 1.04687e-16 0)
(-1 -2.13789e-17 0)
(-1 -3.74153e-17 0)
(-1 -1.18122e-13 0)
(-1 2.53402e-14 0)
(-1 -5.95299e-15 0)
(-1 1.32544e-15 0)
(-1 -2.48561e-16 0)
(-1 -2.74773e-17 0)
(-1 -2.08063e-16 0)
(-1 -1.98845e-16 0)
(-1 -2.66863e-16 0)
(-1 -2.49666e-16 0)
(-1 -1.57459e-16 0)
(-1 -1.41809e-16 0)
(-1 -5.98411e-17 0)
(-1 3.28947e-17 0)
(-1 1.41207e-16 0)
(-1 1.0895e-16 0)
(-1 2.41409e-17 0)
(-1 -1.25806e-17 0)
(-1 -3.87843e-17 0)
(-1 -9.19484e-17 0)
(-1 8.53928e-14 0)
(-1 -1.85568e-14 0)
(-1 4.2568e-15 0)
(-1 -1.04965e-15 0)
(-1 1.61578e-16 0)
(-1 -8.17764e-17 0)
(-1 -3.08931e-17 0)
(-1 -6.62815e-17 0)
(-1 -8.48188e-17 0)
(-1 1.40475e-17 0)
(-1 4.65237e-17 0)
(-1 7.63034e-19 0)
(-1 -2.25863e-17 0)
(-1 2.52629e-17 0)
(-1 -8.00658e-18 0)
(-1 1.30337e-16 0)
(-1 1.60822e-16 0)
(-1 -1.64987e-17 0)
(-1 -5.37057e-17 0)
(-1 -7.37286e-17 0)
(-1 -7.03169e-17 0)
(-1 7.76041e-17 0)
(-1 -8.5946e-17 0)
(-1 -2.66539e-17 0)
(-1 -1.42887e-16 0)
(-1 -1.25574e-16 0)
(-1 -1.26272e-17 0)
(-1 -2.76604e-17 0)
(-1 -7.85077e-17 0)
(-1 -6.38821e-17 0)
(-1 -2.64174e-17 0)
(-1 5.95245e-17 0)
(-1 4.03538e-18 0)
(-1 -1.96037e-17 0)
(-1 -1.83926e-17 0)
(-1 1.04781e-16 0)
(-1 1.13858e-16 0)
(-1 5.22695e-17 0)
(-1 2.67446e-17 0)
(-1 -2.33494e-17 0)
(-1 -8.65428e-14 0)
(-1 1.87561e-14 0)
(-1 -4.31757e-15 0)
(-1 9.92218e-16 0)
(-1 -1.96539e-16 0)
(-1 8.1317e-17 0)
(-1 2.13578e-17 0)
(-1 7.50803e-17 0)
(-1 1.35734e-16 0)
(-1 1.06057e-16 0)
(-1 9.00957e-17 0)
(-1 -4.23258e-17 0)
(-1 -1.17846e-16 0)
(-1 -8.16106e-17 0)
(-1 -3.7492e-17 0)
(-1 -4.00083e-17 0)
(-1 -1.39645e-17 0)
(-1 9.19759e-17 0)
(-1 8.24667e-17 0)
(-1 3.02709e-18 0)
(-1 1.19046e-13 0)
(-1 -2.56794e-14 0)
(-1 6.25143e-15 0)
(-1 -1.14002e-15 0)
(-1 5.48879e-16 0)
(-1 3.10297e-16 0)
(-1 3.10649e-16 0)
(-1 1.69916e-16 0)
(-1 1.58652e-16 0)
(-1 1.07977e-16 0)
(-1 2.89985e-17 0)
(-1 -1.0571e-16 0)
(-1 -1.25908e-16 0)
(-1 -4.50466e-17 0)
(-1 8.66989e-17 0)
(-1 2.59211e-17 0)
(-1 1.75535e-19 0)
(-1 -1.33279e-17 0)
(-1 -8.43719e-17 0)
(-1 -4.48163e-17 0)
(-1 -4.28573e-14 0)
(-1 9.10459e-15 0)
(-1 -2.17432e-15 0)
(-1 4.97359e-16 0)
(-1 -1.01541e-16 0)
(-1 2.59872e-19 0)
(-1 7.43219e-17 0)
(-1 1.26929e-16 0)
(-1 1.43151e-16 0)
(-1 1.39947e-16 0)
(-1 1.34065e-16 0)
(-1 1.24469e-16 0)
(-1 -2.77998e-17 0)
(-1 -1.26713e-17 0)
(-1 1.58869e-16 0)
(-1 1.57767e-16 0)
(-1 2.74352e-17 0)
(-1 -1.54954e-16 0)
(-1 -1.40697e-16 0)
(-1 -2.53059e-17 0)
(-1 -6.77031e-14 0)
(-1 1.4677e-14 0)
(-1 -3.5262e-15 0)
(-1 7.69726e-16 0)
(-1 -9.65602e-17 0)
(-1 6.76135e-17 0)
(-1 1.1267e-16 0)
(-1 2.10624e-16 0)
(-1 2.29658e-16 0)
(-1 2.12799e-16 0)
(-1 1.54556e-16 0)
(-1 1.49894e-16 0)
(-1 1.09855e-16 0)
(-1 6.45066e-17 0)
(-1 -5.62108e-17 0)
(-1 -8.18623e-17 0)
(-1 -6.74807e-17 0)
(-1 -7.16873e-17 0)
(-1 1.03579e-17 0)
(-1 5.14239e-17 0)
(-1 1.17547e-13 0)
(-1 -2.54583e-14 0)
(-1 6.02366e-15 0)
(-1 -1.22689e-15 0)
(-1 3.48152e-16 0)
(-1 4.28479e-17 0)
(-1 1.68168e-16 0)
(-1 1.26454e-16 0)
(-1 -1.43671e-17 0)
(-1 -6.50833e-17 0)
(-1 -4.87056e-17 0)
(-1 4.97429e-17 0)
(-1 1.06557e-16 0)
(-1 5.26182e-17 0)
(-1 -6.76061e-17 0)
(-1 -9.32314e-17 0)
(-1 -1.48299e-17 0)
(-1 9.62225e-17 0)
(-1 5.89115e-17 0)
(-1 -4.14025e-17 0)
(-1 -1.11862e-13 0)
(-1 2.42678e-14 0)
(-1 -5.41338e-15 0)
(-1 1.37069e-15 0)
(-1 -1.39269e-16 0)
(-1 1.42931e-16 0)
(-1 -4.86354e-18 0)
(-1 -4.57922e-17 0)
(-1 -6.27129e-17 0)
(-1 3.70996e-18 0)
(-1 3.62096e-17 0)
(-1 8.59594e-17 0)
(-1 5.44662e-17 0)
(-1 5.65191e-17 0)
(-1 6.28489e-17 0)
(-1 4.01408e-17 0)
(-1 3.81755e-17 0)
(-1 2.92406e-17 0)
(-1 -2.1246e-17 0)
(-1 -6.54442e-17 0)
(-1 7.11807e-14 0)
(-1 -1.48934e-14 0)
(-1 3.79061e-15 0)
(-1 -4.90928e-16 0)
(-1 3.72092e-16 0)
(-1 1.08424e-16 0)
(-1 -1.62706e-17 0)
(-1 -1.27587e-16 0)
(-1 -5.77108e-17 0)
(-1 -2.7211e-17 0)
(-1 -2.19005e-17 0)
(-1 8.78554e-17 0)
(-1 7.60821e-17 0)
(-1 8.73441e-17 0)
(-1 1.52738e-16 0)
(-1 1.64348e-16 0)
(-1 9.16117e-17 0)
(-1 -5.11831e-17 0)
(-1 -8.45336e-17 0)
(-1 1.78097e-17 0)
(-1 1.87057e-15 0)
(-1 -7.10424e-16 0)
(-1 1.0261e-16 0)
(-1 -1.94429e-17 0)
(-1 -2.84756e-17 0)
(-1 -1.97527e-17 0)
(-1 -7.56552e-17 0)
(-1 -1.83214e-16 0)
(-1 -1.31771e-16 0)
(-1 -1.96723e-16 0)
(-1 -7.92041e-17 0)
(-1 4.25631e-17 0)
(-1 7.6667e-17 0)
(-1 5.27137e-17 0)
(-1 -8.82496e-19 0)
(-1 -2.08603e-17 0)
(-1 2.84425e-17 0)
(-1 4.86785e-17 0)
(-1 -5.82205e-17 0)
(-1 -5.57598e-17 0)
(-1 -9.10781e-14 0)
(-1 1.95587e-14 0)
(-1 -4.54754e-15 0)
(-1 1.1567e-15 0)
(-1 -1.26019e-16 0)
(-1 1.12513e-17 0)
(-1 -1.01119e-16 0)
(-1 -1.13278e-16 0)
(-1 -7.06454e-17 0)
(-1 -1.89834e-17 0)
(-1 1.12082e-16 0)
(-1 -4.27885e-17 0)
(-1 -7.65256e-17 0)
(-1 -7.06364e-17 0)
(-1 -1.04186e-16 0)
(-1 -8.15264e-17 0)
(-1 -4.30403e-17 0)
(-1 -5.01083e-18 0)
(-1 -1.33147e-17 0)
(-1 -8.92367e-17 0)
(-1 1.38576e-13 0)
(-1 -2.93238e-14 0)
(-1 7.01752e-15 0)
(-1 -1.4213e-15 0)
(-1 2.19342e-16 0)
(-1 -3.45356e-16 0)
(-1 -3.38849e-16 0)
(-1 -2.51824e-16 0)
(-1 -2.06032e-16 0)
(-1 -1.04224e-16 0)
(-1 -1.37174e-17 0)
(-1 -2.93954e-17 0)
(-1 8.39593e-17 0)
(-1 8.16208e-17 0)
(-1 6.78707e-17 0)
(-1 4.78467e-17 0)
(-1 -4.174e-17 0)
(-1 -6.76868e-17 0)
(-1 -1.11669e-17 0)
(-1 7.3019e-20 0)
(-1 -7.77084e-14 0)
(-1 1.66706e-14 0)
(-1 -4.10648e-15 0)
(-1 4.6495e-16 0)
(-1 -5.00865e-16 0)
(-1 -8.90316e-17 0)
(-1 -1.11284e-16 0)
(-1 -7.86786e-17 0)
(-1 -9.85693e-17 0)
(-1 -1.47925e-16 0)
(-1 -2.14169e-16 0)
(-1 -1.09032e-16 0)
(-1 3.7931e-17 0)
(-1 -3.75052e-17 0)
(-1 -1.10323e-16 0)
(-1 -8.89557e-17 0)
(-1 -1.54425e-16 0)
(-1 -1.34529e-16 0)
(-1 -5.61775e-17 0)
(-1 1.47578e-17 0)
(-1 -3.79308e-14 0)
(-1 7.54939e-15 0)
(-1 -2.13449e-15 0)
(-1 1.20399e-16 0)
(-1 -1.86954e-16 0)
(-1 7.85203e-17 0)
(-1 8.5199e-17 0)
(-1 -1.12367e-17 0)
(-1 -1.33602e-16 0)
(-1 -1.17824e-16 0)
(-1 -6.5676e-17 0)
(-1 -2.37845e-17 0)
(-1 4.32666e-17 0)
(-1 2.35419e-17 0)
(-1 -1.14414e-16 0)
(-1 -1.43017e-16 0)
(-1 -1.4522e-16 0)
(-1 -1.05984e-16 0)
(-1 5.91816e-18 0)
(-1 1.8449e-17 0)
(-1 1.18774e-13 0)
(-1 -2.5561e-14 0)
(-1 5.75449e-15 0)
(-1 -1.39571e-15 0)
(-1 2.74978e-16 0)
(-1 -8.04127e-17 0)
(-1 1.0892e-16 0)
(-1 5.00921e-17 0)
(-1 -4.62701e-17 0)
(-1 -4.95639e-17 0)
(-1 -3.00461e-17 0)
(-1 -3.22915e-17 0)
(-1 -5.48841e-17 0)
(-1 -1.33225e-16 0)
(-1 -2.16946e-16 0)
(-1 -1.78927e-16 0)
(-1 -3.08888e-17 0)
(-1 1.90374e-17 0)
(-1 5.82032e-17 0)
(-1 5.27189e-17 0)
(-1 -4.50331e-14 0)
(-1 9.72829e-15 0)
(-1 -2.34243e-15 0)
(-1 4.98315e-16 0)
(-1 -1.12541e-16 0)
(-1 -1.64586e-17 0)
(-1 2.6141e-17 0)
(-1 6.47217e-17 0)
(-1 3.19943e-17 0)
(-1 -6.56293e-17 0)
(-1 -2.07413e-16 0)
(-1 -2.43764e-16 0)
(-1 -2.93629e-16 0)
(-1 -3.33163e-16 0)
(-1 -2.70406e-16 0)
(-1 -8.86347e-17 0)
(-1 6.78612e-17 0)
(-1 6.69178e-17 0)
(-1 7.43609e-17 0)
(-1 6.22416e-17 0)
(-1 -8.38562e-14 0)
(-1 1.74647e-14 0)
(-1 -4.09214e-15 0)
(-1 9.3939e-16 0)
(-1 -1.17957e-16 0)
(-1 3.74241e-17 0)
(-1 -1.14945e-16 0)
(-1 -9.41763e-17 0)
(-1 -7.02188e-17 0)
(-1 -8.22206e-17 0)
(-1 -1.18517e-16 0)
(-1 -1.07911e-16 0)
(-1 -9.27311e-17 0)
(-1 -6.59515e-17 0)
(-1 -5.28862e-17 0)
(-1 9.94431e-18 0)
(-1 4.05642e-17 0)
(-1 3.56376e-17 0)
(-1 6.07598e-17 0)
(-1 3.93116e-17 0)
)
;

boundaryField
{
    movingWall
    {
        type            fixedValue;
        value           uniform (-1 -0 -0);
    }
    fixedWalls
    {
        type            calculated;
        value           nonuniform List<vector> 
60
(
(-1 5.68283e-14 0)
(-1 5.06919e-15 0)
(-1 -4.72488e-14 0)
(-1 3.41571e-14 0)
(-1 -2.81268e-17 0)
(-1 -3.46171e-14 0)
(-1 4.76183e-14 0)
(-1 -1.71429e-14 0)
(-1 -2.70813e-14 0)
(-1 4.70188e-14 0)
(-1 -4.47448e-14 0)
(-1 2.84723e-14 0)
(-1 7.48226e-16 0)
(-1 -3.64313e-14 0)
(-1 5.54304e-14 0)
(-1 -3.10834e-14 0)
(-1 -1.51723e-14 0)
(-1 4.75097e-14 0)
(-1 -1.80133e-14 0)
(-1 -3.35425e-14 0)
(-1 3.81053e-18 0)
(-1 -1.49661e-17 0)
(-1 -3.67793e-17 0)
(-1 -2.94914e-17 0)
(-1 -9.33975e-18 0)
(-1 1.21084e-18 0)
(-1 -1.79265e-17 0)
(-1 -1.01224e-17 0)
(-1 2.05696e-17 0)
(-1 -1.6561e-17 0)
(-1 -2.61777e-17 0)
(-1 7.12387e-18 0)
(-1 -2.23039e-17 0)
(-1 -3.56947e-17 0)
(-1 2.92076e-20 0)
(-1 5.9031e-18 0)
(-1 7.3796e-18 0)
(-1 2.10876e-17 0)
(-1 2.48966e-17 0)
(-1 1.57246e-17 0)
(-1 5.68283e-14 0)
(-1 -1.20986e-14 0)
(-1 2.852e-15 0)
(-1 -6.19984e-16 0)
(-1 1.58392e-16 0)
(-1 -2.9949e-18 0)
(-1 3.21599e-17 0)
(-1 1.84167e-17 0)
(-1 1.04971e-17 0)
(-1 -1.43596e-17 0)
(-1 1.32134e-17 0)
(-1 5.48206e-17 0)
(-1 4.16472e-17 0)
(-1 1.0713e-17 0)
(-1 5.55507e-18 0)
(-1 3.13509e-17 0)
(-1 5.3582e-17 0)
(-1 2.35322e-17 0)
(-1 -5.45982e-18 0)
(-1 3.81053e-18 0)
)
;
    }
    frontAndBack
    {
        type            empty;
    }
}


// ************************************************************************* //
