/*--------------------------------*- C++ -*----------------------------------*\
| =========                 |                                                 |
| \\      /  F ield         | OpenFOAM: The Open Source CFD Toolbox           |
|  \\    /   O peration     | Version:  2506                                  |
|   \\  /    A nd           | Website:  www.openfoam.com                      |
|    \\/     M anipulation  |                                                 |
\*---------------------------------------------------------------------------*/
FoamFile
{
    version     2.0;
    format      ascii;
    arch        "LSB;label=32;scalar=64";
    class       volVectorField;
    location    "8.875";
    object      vorticityField;
}
// * * * * * * * * * * * * * * * * * * * * * * * * * * * * * * * * * * * * * //

dimensions      [0 0 -1 0 0 0 0];

internalField   nonuniform List<vector> 
400
(
(0 -0 1.04235e-11)
(0 -0 -1.32501e-11)
(0 -0 2.92388e-12)
(0 -0 -6.46296e-13)
(0 -0 1.81352e-13)
(0 -0 4.97571e-14)
(0 -0 5.9563e-14)
(0 -0 4.87944e-14)
(0 -0 -8.19408e-15)
(0 -0 6.79077e-16)
(0 -0 -3.6915e-14)
(0 -0 -4.71017e-14)
(0 -0 -9.23421e-14)
(0 -0 -6.32331e-14)
(0 -0 -4.90506e-14)
(0 -0 1.20067e-14)
(0 -0 -1.95467e-15)
(0 -0 -1.47605e-14)
(0 -0 4.92797e-14)
(0 -0 4.12324e-16)
(0 -0 4.11839e-13)
(0 -0 -9.88519e-13)
(0 -0 2.3245e-13)
(0 -0 -2.4364e-14)
(0 -0 2.93689e-14)
(0 -0 -1.23993e-14)
(0 -0 -1.48256e-14)
(0 -0 -2.46192e-14)
(0 -0 2.88149e-14)
(0 -0 5.6363e-14)
(0 -0 1.73422e-13)
(0 -0 1.49737e-13)
(0 -0 1.53034e-13)
(0 -0 1.11452e-13)
(0 -0 4.56898e-14)
(0 -0 4.33128e-14)
(0 -0 1.13277e-15)
(0 -0 -1.11923e-14)
(0 -0 -6.84203e-14)
(0 -0 6.00895e-14)
(0 -0 -5.83584e-12)
(0 -0 1.01327e-11)
(0 -0 -2.50989e-12)
(0 -0 4.34917e-13)
(0 -0 -2.70817e-13)
(0 -0 -1.58581e-13)
(0 -0 -1.25557e-13)
(0 -0 -1.143e-13)
(0 -0 -1.13502e-13)
(0 -0 -9.74798e-14)
(0 -0 -7.05295e-14)
(0 -0 9.76176e-15)
(0 -0 1.74704e-14)
(0 -0 2.01048e-14)
(0 -0 6.18157e-14)
(0 -0 -1.17066e-14)
(0 -0 -1.21531e-14)
(0 -0 -6.29251e-15)
(0 -0 -3.50418e-14)
(0 -0 1.30733e-14)
(0 -0 3.97309e-12)
(0 -0 -7.38176e-12)
(0 -0 1.6423e-12)
(0 -0 -4.09522e-13)
(0 -0 9.67872e-14)
(0 -0 -1.92471e-14)
(0 -0 1.54948e-15)
(0 -0 -5.39257e-15)
(0 -0 3.5138e-14)
(0 -0 6.73444e-14)
(0 -0 -2.84335e-14)
(0 -0 -6.11211e-14)
(0 -0 -5.17601e-14)
(0 -0 -5.27521e-14)
(0 -0 -7.08077e-14)
(0 -0 -3.73273e-14)
(0 -0 -4.17887e-14)
(0 -0 -2.14528e-14)
(0 -0 -5.72298e-15)
(0 -0 -4.14667e-14)
(0 -0 -8.05864e-14)
(0 -0 -1.09983e-13)
(0 -0 -6.46359e-14)
(0 -0 -5.99042e-14)
(0 -0 -6.41021e-14)
(0 -0 1.3026e-14)
(0 -0 9.79131e-15)
(0 -0 -6.58805e-15)
(0 -0 2.34829e-14)
(0 -0 5.20903e-15)
(0 -0 3.94457e-14)
(0 -0 3.04528e-15)
(0 -0 4.62973e-14)
(0 -0 -2.2428e-15)
(0 -0 3.95435e-14)
(0 -0 6.74352e-14)
(0 -0 2.18539e-14)
(0 -0 -8.71138e-15)
(0 -0 1.95432e-14)
(0 -0 -2.74446e-14)
(0 -0 -5.12526e-12)
(0 -0 7.73463e-12)
(0 -0 -1.72217e-12)
(0 -0 3.84998e-13)
(0 -0 -1.18195e-13)
(0 -0 -3.24204e-14)
(0 -0 -2.77287e-14)
(0 -0 1.14376e-14)
(0 -0 -5.11124e-14)
(0 -0 -3.16689e-14)
(0 -0 -1.48383e-14)
(0 -0 -4.78993e-14)
(0 -0 -5.81386e-14)
(0 -0 8.03544e-15)
(0 -0 5.83703e-14)
(0 -0 2.94578e-14)
(0 -0 1.31984e-14)
(0 -0 6.38532e-14)
(0 -0 -8.89488e-15)
(0 -0 -8.54938e-15)
(0 -0 7.14114e-12)
(0 -0 -1.03579e-11)
(0 -0 2.56236e-12)
(0 -0 -4.34729e-13)
(0 -0 2.53452e-13)
(0 -0 5.74922e-14)
(0 -0 1.30669e-14)
(0 -0 -1.51997e-14)
(0 -0 -6.19392e-15)
(0 -0 -4.00704e-14)
(0 -0 -7.55787e-14)
(0 -0 -4.25957e-14)
(0 -0 6.06631e-15)
(0 -0 2.12607e-14)
(0 -0 -4.71133e-14)
(0 -0 -3.57574e-14)
(0 -0 -3.9249e-15)
(0 -0 -8.45474e-15)
(0 -0 -3.02539e-14)
(0 -0 1.29188e-14)
(0 -0 -2.26396e-12)
(0 -0 3.74303e-12)
(0 -0 -7.79408e-13)
(0 -0 2.61488e-13)
(0 -0 -4.97099e-14)
(0 -0 1.26006e-13)
(0 -0 1.21087e-13)
(0 -0 6.1093e-14)
(0 -0 5.55119e-14)
(0 -0 5.33015e-14)
(0 -0 5.26624e-14)
(0 -0 3.80237e-14)
(0 -0 -1.37141e-14)
(0 -0 7.2877e-14)
(0 -0 1.70438e-14)
(0 -0 -6.73535e-14)
(0 -0 -8.54822e-14)
(0 -0 -9.81284e-14)
(0 -0 1.29648e-14)
(0 -0 -1.05047e-14)
(0 -0 -4.57077e-12)
(0 -0 6.17375e-12)
(0 -0 -1.39073e-12)
(0 -0 3.70069e-13)
(0 -0 1.11039e-14)
(0 -0 4.80281e-14)
(0 -0 4.14061e-14)
(0 -0 9.30139e-14)
(0 -0 8.15327e-14)
(0 -0 -7.5102e-15)
(0 -0 4.79196e-14)
(0 -0 -4.47007e-15)
(0 -0 -6.27488e-14)
(0 -0 -7.08167e-14)
(0 -0 -4.17419e-14)
(0 -0 -2.8232e-14)
(0 -0 1.0175e-15)
(0 -0 7.78387e-15)
(0 -0 3.94162e-14)
(0 -0 4.80319e-14)
(0 -0 8.8565e-12)
(0 -0 -1.09355e-11)
(0 -0 2.45025e-12)
(0 -0 -5.94656e-13)
(0 -0 7.27632e-14)
(0 -0 -4.51035e-14)
(0 -0 -1.87445e-14)
(0 -0 -9.95687e-14)
(0 -0 -1.27574e-13)
(0 -0 -3.05389e-14)
(0 -0 -4.27275e-14)
(0 -0 -1.15788e-14)
(0 -0 2.73926e-14)
(0 -0 -4.45214e-14)
(0 -0 -1.4585e-14)
(0 -0 5.27762e-15)
(0 -0 1.27366e-13)
(0 -0 8.86893e-14)
(0 -0 -1.37625e-14)
(0 -0 -1.7509e-15)
(0 -0 -9.65388e-12)
(0 -0 1.06449e-11)
(0 -0 -2.50655e-12)
(0 -0 5.54517e-13)
(0 -0 -1.49881e-13)
(0 -0 -4.07696e-14)
(0 -0 -1.88723e-14)
(0 -0 -5.9995e-14)
(0 -0 3.20553e-14)
(0 -0 9.89225e-15)
(0 -0 8.22495e-15)
(0 -0 2.89307e-14)
(0 -0 -2.94404e-15)
(0 -0 2.79433e-14)
(0 -0 -2.87429e-14)
(0 -0 -2.95724e-14)
(0 -0 -5.53001e-14)
(0 -0 -5.94215e-15)
(0 -0 -9.46849e-15)
(0 -0 -1.8436e-14)
(0 -0 6.63161e-12)
(0 -0 -6.60348e-12)
(0 -0 1.7113e-12)
(0 -0 -2.87642e-13)
(0 -0 1.68355e-13)
(0 -0 4.24789e-14)
(0 -0 3.50394e-15)
(0 -0 5.00661e-14)
(0 -0 1.45563e-13)
(0 -0 8.48962e-14)
(0 -0 6.57168e-14)
(0 -0 9.11134e-14)
(0 -0 8.1264e-14)
(0 -0 6.18757e-14)
(0 -0 1.16121e-13)
(0 -0 4.80975e-14)
(0 -0 -7.57632e-14)
(0 -0 -7.18246e-14)
(0 -0 6.89928e-15)
(0 -0 8.79876e-14)
(0 -0 3.0575e-13)
(0 -0 -3.12321e-13)
(0 -0 6.90981e-14)
(0 -0 -6.73187e-14)
(0 -0 -3.0987e-17)
(0 -0 -4.71795e-15)
(0 -0 -4.34512e-14)
(0 -0 4.85985e-14)
(0 -0 -5.5561e-14)
(0 -0 -4.89534e-14)
(0 -0 2.39286e-14)
(0 -0 1.55871e-14)
(0 -0 -5.3195e-14)
(0 -0 -7.75495e-15)
(0 -0 -7.3574e-15)
(0 -0 2.9325e-15)
(0 -0 1.15374e-13)
(0 -0 -8.66631e-15)
(0 -0 -3.75489e-14)
(0 -0 1.1398e-14)
(0 -0 -6.88089e-12)
(0 -0 8.40911e-12)
(0 -0 -1.92152e-12)
(0 -0 4.42152e-13)
(0 -0 -1.14544e-13)
(0 -0 -2.46151e-14)
(0 -0 -1.2453e-14)
(0 -0 3.04735e-15)
(0 -0 -7.18857e-14)
(0 -0 1.82728e-14)
(0 -0 -5.65906e-14)
(0 -0 -1.00176e-13)
(0 -0 -2.98898e-14)
(0 -0 -5.69761e-14)
(0 -0 -8.24042e-14)
(0 -0 -2.09905e-14)
(0 -0 7.65156e-15)
(0 -0 2.97256e-15)
(0 -0 -8.42258e-15)
(0 -0 -7.106e-14)
(0 -0 9.97655e-12)
(0 -0 -1.26951e-11)
(0 -0 2.95288e-12)
(0 -0 -6.79818e-13)
(0 -0 2.62792e-14)
(0 -0 -1.10029e-13)
(0 -0 9.35312e-15)
(0 -0 4.03868e-14)
(0 -0 6.89702e-14)
(0 -0 1.00547e-13)
(0 -0 7.48285e-15)
(0 -0 6.39778e-14)
(0 -0 9.24168e-14)
(0 -0 5.26012e-14)
(0 -0 2.37276e-14)
(0 -0 1.6144e-14)
(0 -0 -6.57635e-14)
(0 -0 3.0573e-15)
(0 -0 3.3881e-14)
(0 -0 1.10939e-15)
(0 -0 -5.61589e-12)
(0 -0 6.89941e-12)
(0 -0 -1.89161e-12)
(0 -0 1.97931e-13)
(0 -0 -1.36713e-13)
(0 -0 1.18531e-14)
(0 -0 -1.07385e-13)
(0 -0 -8.00437e-14)
(0 -0 -6.9246e-15)
(0 -0 -1.1998e-13)
(0 -0 -5.03208e-14)
(0 -0 2.521e-14)
(0 -0 -4.70575e-14)
(0 -0 -6.90355e-14)
(0 -0 -3.22501e-14)
(0 -0 -4.41012e-15)
(0 -0 -3.16624e-14)
(0 -0 9.82471e-15)
(0 -0 -1.21764e-14)
(0 -0 4.14198e-15)
(0 -0 -1.46605e-12)
(0 -0 3.11885e-12)
(0 -0 -7.42899e-13)
(0 -0 1.94754e-13)
(0 -0 7.71273e-14)
(0 -0 5.43204e-14)
(0 -0 4.52344e-14)
(0 -0 -2.18801e-14)
(0 -0 -1.06587e-14)
(0 -0 8.81078e-14)
(0 -0 6.3614e-14)
(0 -0 1.08943e-14)
(0 -0 4.73264e-15)
(0 -0 -6.99781e-14)
(0 -0 -4.3761e-14)
(0 -0 -5.72907e-14)
(0 -0 -2.34017e-14)
(0 -0 1.51138e-14)
(0 -0 1.24433e-14)
(0 -0 -2.43672e-15)
(0 -0 4.82189e-12)
(0 -0 -1.00823e-11)
(0 -0 2.38942e-12)
(0 -0 -3.85321e-13)
(0 -0 1.8574e-13)
(0 -0 3.76043e-14)
(0 -0 6.72606e-14)
(0 -0 -1.5519e-14)
(0 -0 -9.9656e-15)
(0 -0 1.6224e-15)
(0 -0 1.72724e-15)
(0 -0 -5.66939e-14)
(0 -0 -6.43034e-14)
(0 -0 -4.33112e-14)
(0 -0 -4.57021e-15)
(0 -0 1.86057e-14)
(0 -0 4.69015e-14)
(0 -0 8.9092e-15)
(0 -0 3.04732e-14)
(0 -0 -1.10922e-14)
(0 -0 -2.44628e-12)
(0 -0 3.97091e-12)
(0 -0 -1.03142e-12)
(0 -0 8.74635e-14)
(0 -0 -2.14108e-13)
(0 -0 -9.4552e-14)
(0 -0 -1.00302e-13)
(0 -0 -1.07835e-13)
(0 -0 -1.4856e-13)
(0 -0 -1.59466e-13)
(0 -0 -9.91286e-14)
(0 -0 -8.99367e-14)
(0 -0 -8.93992e-15)
(0 -0 2.94274e-14)
(0 -0 7.8663e-14)
(0 -0 1.42247e-13)
(0 -0 9.68704e-14)
(0 -0 5.48601e-14)
(0 -0 5.37425e-14)
(0 -0 -1.36602e-14)
(0 -0 -5.09417e-12)
(0 -0 7.70536e-12)
(0 -0 -1.46279e-12)
(0 -0 4.51628e-13)
(0 -0 1.82237e-14)
(0 -0 5.45113e-14)
(0 -0 4.10501e-14)
(0 -0 1.12893e-13)
(0 -0 8.25107e-14)
(0 -0 7.64853e-14)
(0 -0 7.87461e-14)
(0 -0 8.38938e-14)
(0 -0 5.84061e-14)
(0 -0 5.81946e-14)
(0 -0 7.58958e-15)
(0 -0 -4.48651e-14)
(0 -0 -5.16408e-14)
(0 -0 -5.21905e-14)
(0 -0 -5.38427e-14)
(0 -0 1.70979e-14)
)
;

boundaryField
{
    movingWall
    {
        type            calculated;
        value           nonuniform List<vector> 
20
(
(0 -0 -1.01919e-11)
(0 -0 9.30868e-12)
(0 -0 -1.29726e-12)
(0 -0 7.5269e-13)
(0 -0 3.09484e-13)
(0 -0 3.55573e-13)
(0 -0 3.42111e-13)
(0 -0 3.15335e-13)
(0 -0 3.12058e-13)
(0 -0 2.61624e-13)
(0 -0 2.19476e-13)
(0 -0 2.24623e-13)
(0 -0 9.30138e-14)
(0 -0 3.98448e-15)
(0 -0 -8.12283e-14)
(0 -0 -1.68291e-13)
(0 -0 -8.62485e-14)
(0 -0 -8.67983e-14)
(0 -0 -8.84504e-14)
(0 -0 3.44018e-14)
)
;
    }
    fixedWalls
    {
        type            calculated;
        value           nonuniform List<vector> 
60
(
(0 -0 5.60694e-11)
(0 -0 4.41867e-12)
(0 -0 -4.38065e-11)
(0 -0 3.14466e-11)
(0 -0 -1.09442e-13)
(0 -0 -3.29637e-11)
(0 -0 4.54228e-11)
(0 -0 -1.60316e-11)
(0 -0 -2.63494e-11)
(0 -0 4.66664e-11)
(0 -0 -4.56392e-11)
(0 -0 2.94752e-11)
(0 -0 9.37961e-13)
(0 -0 -3.61602e-11)
(0 -0 5.44818e-11)
(0 -0 -3.05955e-11)
(0 -0 -1.36002e-11)
(0 -0 4.30103e-11)
(0 -0 -1.69291e-11)
(0 -0 -3.19975e-11)
(0 -0 -3.81053e-15)
(0 -0 6.91762e-14)
(0 -0 3.67793e-14)
(0 -0 -2.47187e-14)
(0 -0 -1.77653e-14)
(0 -0 -1.21084e-15)
(0 -0 1.79265e-14)
(0 -0 -1.69827e-14)
(0 -0 3.36405e-14)
(0 -0 1.6561e-14)
(0 -0 -9.27369e-16)
(0 -0 7.41913e-14)
(0 -0 2.23039e-14)
(0 -0 -4.56205e-14)
(0 -0 -2.92076e-17)
(0 -0 -5.9031e-15)
(0 -0 -7.3796e-15)
(0 -0 -2.10876e-14)
(0 -0 -2.48966e-14)
(0 -0 1.13804e-14)
(0 -0 1.59786e-11)
(0 -0 -1.51372e-11)
(0 -0 2.69203e-12)
(0 -0 -9.39855e-13)
(0 -0 -2.33885e-14)
(0 -0 -1.20376e-13)
(0 -0 -1.27874e-13)
(0 -0 -9.42335e-14)
(0 -0 -1.41421e-13)
(0 -0 -2.21366e-13)
(0 -0 -2.93567e-13)
(0 -0 -2.14936e-13)
(0 -0 -2.33072e-13)
(0 -0 -1.86659e-13)
(0 -0 -8.36584e-14)
(0 -0 -3.24022e-14)
(0 -0 -1.95467e-15)
(0 -0 -1.47605e-14)
(0 -0 8.38874e-14)
(0 -0 4.12324e-16)
)
;
    }
    frontAndBack
    {
        type            empty;
    }
}


// ************************************************************************* //
