/*--------------------------------*- C++ -*----------------------------------*\
| =========                 |                                                 |
| \\      /  F ield         | OpenFOAM: The Open Source CFD Toolbox           |
|  \\    /   O peration     | Version:  2506                                  |
|   \\  /    A nd           | Website:  www.openfoam.com                      |
|    \\/     M anipulation  |                                                 |
\*---------------------------------------------------------------------------*/
FoamFile
{
    version     2.0;
    format      ascii;
    arch        "LSB;label=32;scalar=64";
    class       volVectorField;
    location    "9";
    object      ddtU;
}
// * * * * * * * * * * * * * * * * * * * * * * * * * * * * * * * * * * * * * //

dimensions      [0 1 -2 0 0 0 0];

internalField   nonuniform List<vector> 
400
(
(-2.22045e-13 1.98873e-13 0)
(1.11022e-13 6.98431e-15 0)
(2.22045e-14 -4.22008e-15 0)
(6.66134e-14 9.02882e-16 0)
(6.66134e-14 1.74353e-14 0)
(2.22045e-14 7.3207e-15 0)
(2.22045e-14 2.84816e-15 0)
(-2.22045e-14 2.10864e-15 0)
(0 3.57517e-15 0)
(0 1.41931e-14 0)
(-2.22045e-14 1.55563e-14 0)
(-4.44089e-14 3.05339e-15 0)
(-4.44089e-14 -2.8586e-14 0)
(0 -2.4359e-14 0)
(4.44089e-14 -1.53744e-14 0)
(8.88178e-14 -7.39689e-15 0)
(2.22045e-14 7.89634e-15 0)
(0 2.49902e-15 0)
(0 1.37542e-14 0)
(2.22045e-14 1.02434e-14 0)
(1.33227e-13 2.14324e-13 0)
(4.44089e-14 7.23638e-14 0)
(8.88178e-14 7.5987e-15 0)
(-4.44089e-14 1.22382e-14 0)
(4.44089e-14 2.45992e-14 0)
(4.44089e-14 1.12019e-14 0)
(0 8.12074e-15 0)
(0 3.48899e-15 0)
(0 1.27191e-14 0)
(0 4.78422e-16 0)
(0 -7.40318e-15 0)
(4.44089e-14 -1.01427e-15 0)
(2.22045e-14 -2.21278e-14 0)
(0 -2.1169e-14 0)
(2.22045e-14 -1.12314e-14 0)
(-2.22045e-14 1.18291e-15 0)
(0 9.14379e-15 0)
(-2.22045e-14 -1.14419e-14 0)
(-4.44089e-14 9.13907e-16 0)
(0 1.35046e-14 0)
(0 5.60007e-14 0)
(1.11022e-13 8.36864e-14 0)
(4.44089e-14 3.41286e-14 0)
(0 1.71789e-14 0)
(8.88178e-14 5.5042e-15 0)
(4.44089e-14 9.82974e-15 0)
(4.44089e-14 1.5892e-14 0)
(4.44089e-14 1.1494e-14 0)
(4.44089e-14 1.62803e-14 0)
(4.44089e-14 -4.24568e-15 0)
(0 -2.96857e-14 0)
(0 -2.29455e-14 0)
(-4.44089e-14 -7.99641e-15 0)
(0 -4.09484e-15 0)
(0 -1.12927e-14 0)
(0 -4.30492e-15 0)
(0 1.50627e-14 0)
(4.44089e-14 9.80789e-15 0)
(0 -1.96151e-14 0)
(0 -3.39228e-15 0)
(8.88178e-14 1.24263e-13 0)
(2.22045e-14 4.02588e-14 0)
(2.22045e-14 4.80756e-14 0)
(0 3.73979e-14 0)
(0 1.05144e-14 0)
(0 9.15542e-15 0)
(4.44089e-14 4.95512e-15 0)
(6.66134e-14 2.25936e-15 0)
(2.22045e-14 1.35389e-14 0)
(8.88178e-14 3.14858e-14 0)
(-2.22045e-14 -1.41402e-16 0)
(-2.22045e-14 -1.97184e-14 0)
(-2.22045e-14 -2.02361e-14 0)
(0 -1.45143e-14 0)
(2.22045e-14 -1.62069e-14 0)
(-2.22045e-14 -2.41339e-14 0)
(0 9.7777e-15 0)
(4.44089e-14 2.95712e-14 0)
(4.44089e-14 4.30718e-15 0)
(-2.22045e-14 1.91429e-15 0)
(2.22045e-14 1.03843e-13 0)
(0 5.34335e-14 0)
(0 4.62068e-14 0)
(0 4.21727e-14 0)
(0 1.99046e-14 0)
(-4.44089e-14 1.99308e-14 0)
(-4.44089e-14 3.87454e-15 0)
(-4.44089e-14 -6.61734e-15 0)
(0 2.35235e-16 0)
(0 1.13474e-14 0)
(4.44089e-14 1.27412e-14 0)
(8.88178e-14 -9.94632e-16 0)
(0 -1.99415e-14 0)
(-4.44089e-14 -1.20256e-14 0)
(-4.44089e-14 5.45029e-15 0)
(2.22045e-14 1.37072e-15 0)
(-2.22045e-14 6.61353e-15 0)
(0 1.79668e-14 0)
(0 1.24441e-14 0)
(0 9.1631e-15 0)
(-8.88178e-14 6.39722e-14 0)
(6.66134e-14 5.96686e-14 0)
(0 5.33569e-14 0)
(6.66134e-14 4.07817e-14 0)
(0 2.88337e-14 0)
(-2.22045e-14 1.94648e-14 0)
(4.44089e-14 2.81134e-14 0)
(-4.44089e-14 2.09497e-14 0)
(-2.22045e-14 -8.84688e-15 0)
(2.22045e-14 -3.36072e-14 0)
(0 -2.54309e-14 0)
(0 -1.56741e-14 0)
(0 -6.26596e-15 0)
(4.44089e-14 2.15142e-14 0)
(-2.22045e-14 2.49796e-14 0)
(0 2.48053e-14 0)
(-2.22045e-14 1.34949e-14 0)
(0 5.83512e-15 0)
(-2.22045e-14 -3.57119e-15 0)
(0 5.50118e-15 0)
(-4.44089e-14 -6.75385e-15 0)
(4.44089e-14 3.99626e-14 0)
(4.44089e-14 3.50464e-14 0)
(4.44089e-14 1.79729e-14 0)
(8.88178e-14 1.61927e-14 0)
(4.44089e-14 2.59802e-14 0)
(4.44089e-14 4.19434e-14 0)
(1.11022e-13 4.00258e-14 0)
(6.66134e-14 2.20946e-14 0)
(2.22045e-14 -1.54527e-14 0)
(-4.44089e-14 -3.6823e-14 0)
(-4.44089e-14 -2.16329e-14 0)
(-4.44089e-14 5.44152e-15 0)
(-8.88178e-14 1.87289e-14 0)
(0 1.84672e-14 0)
(4.44089e-14 1.94431e-14 0)
(4.44089e-14 1.21808e-14 0)
(0 -8.84191e-15 0)
(0 -7.46754e-15 0)
(0 2.88189e-15 0)
(8.88178e-14 1.49013e-14 0)
(0 2.94973e-14 0)
(0 1.85672e-14 0)
(2.22045e-14 8.71883e-15 0)
(-6.66134e-14 1.84131e-14 0)
(-4.44089e-14 2.26207e-14 0)
(-4.44089e-14 9.24212e-15 0)
(0 9.18357e-15 0)
(-4.44089e-14 1.64008e-14 0)
(0 1.31809e-14 0)
(4.44089e-14 9.24477e-15 0)
(0 -9.20923e-15 0)
(0 -5.39161e-15 0)
(-4.44089e-14 -9.90527e-15 0)
(0 -1.388e-14 0)
(4.44089e-14 -5.76273e-15 0)
(0 2.93609e-15 0)
(4.44089e-14 4.26943e-15 0)
(0 7.54232e-15 0)
(0 3.79151e-15 0)
(4.44089e-14 8.78866e-14 0)
(0 1.55357e-14 0)
(4.44089e-14 1.53936e-14 0)
(6.66134e-14 3.16368e-14 0)
(0 3.54371e-14 0)
(2.22045e-14 1.17957e-14 0)
(0 2.22823e-15 0)
(0 1.18534e-15 0)
(-2.22045e-14 -7.38793e-15 0)
(2.22045e-14 2.36654e-15 0)
(2.22045e-14 5.70026e-15 0)
(0 -7.33318e-15 0)
(2.22045e-14 -1.27818e-14 0)
(-2.22045e-14 -1.1527e-14 0)
(0 -8.67508e-15 0)
(-2.22045e-14 -1.26975e-14 0)
(-4.44089e-14 -1.30056e-14 0)
(-2.22045e-14 -1.21993e-15 0)
(-4.44089e-14 1.09191e-14 0)
(0 9.35485e-15 0)
(6.66134e-14 -2.90038e-15 0)
(-4.44089e-14 2.64242e-14 0)
(4.44089e-14 1.8288e-14 0)
(-4.44089e-14 2.99116e-14 0)
(4.44089e-14 1.54793e-14 0)
(4.44089e-14 2.18948e-14 0)
(4.44089e-14 2.77595e-14 0)
(4.44089e-14 1.26754e-14 0)
(0 -4.15703e-15 0)
(-2.22045e-14 -1.09587e-15 0)
(0 -1.32692e-14 0)
(-2.22045e-14 -1.0944e-14 0)
(4.44089e-14 -1.21097e-14 0)
(2.22045e-14 -7.70674e-15 0)
(2.22045e-14 -1.12342e-16 0)
(0 -2.61817e-15 0)
(-2.22045e-14 -1.17416e-14 0)
(-4.44089e-14 -5.99058e-15 0)
(0 -5.0906e-16 0)
(2.22045e-14 2.56531e-15 0)
(-1.33227e-13 -1.34784e-13 0)
(4.44089e-14 6.05292e-14 0)
(0 3.48016e-14 0)
(0 3.22166e-14 0)
(0 8.54836e-17 0)
(0 1.61425e-14 0)
(6.66134e-14 2.64297e-14 0)
(4.44089e-14 7.28619e-15 0)
(2.22045e-14 9.67745e-15 0)
(0 1.50932e-14 0)
(2.22045e-14 5.12824e-15 0)
(0 -1.72532e-14 0)
(0 -1.51117e-14 0)
(-4.44089e-14 -6.67938e-15 0)
(4.44089e-14 -4.0855e-15 0)
(0 1.03335e-14 0)
(-2.22045e-14 2.2464e-15 0)
(0 5.75772e-15 0)
(0 -8.3138e-15 0)
(0 -5.61724e-15 0)
(-8.88178e-14 1.25191e-13 0)
(4.44089e-14 -1.13393e-15 0)
(-8.88178e-14 1.69437e-14 0)
(4.44089e-14 -1.61224e-14 0)
(4.44089e-14 -1.92347e-15 0)
(0 2.27491e-14 0)
(4.44089e-14 3.01959e-14 0)
(4.44089e-14 2.12638e-14 0)
(0 2.25517e-14 0)
(0 -1.07354e-14 0)
(8.88178e-14 -1.24496e-14 0)
(6.66134e-14 -1.01273e-14 0)
(2.22045e-14 8.02128e-15 0)
(0 1.08793e-15 0)
(0 6.8534e-15 0)
(0 1.77802e-14 0)
(-4.44089e-14 -1.8692e-15 0)
(0 -5.86879e-15 0)
(0 -4.01153e-15 0)
(2.22045e-14 -1.51042e-15 0)
(0 5.42049e-14 0)
(-2.22045e-14 1.1282e-14 0)
(-4.44089e-14 1.31929e-14 0)
(0 2.41037e-16 0)
(-4.44089e-14 1.33111e-14 0)
(-4.44089e-14 4.86768e-15 0)
(0 -7.94023e-16 0)
(-4.44089e-14 5.59728e-15 0)
(4.44089e-14 -6.50161e-15 0)
(4.44089e-14 -1.82788e-14 0)
(0 -9.92043e-15 0)
(0 4.99786e-15 0)
(-4.44089e-14 1.16782e-14 0)
(0 -6.49953e-15 0)
(0 -3.67559e-15 0)
(0 5.93621e-15 0)
(4.44089e-14 -1.95682e-15 0)
(0 -2.31798e-15 0)
(0 8.3648e-15 0)
(0 4.35569e-16 0)
(6.66134e-14 -4.04559e-14 0)
(2.22045e-14 2.91849e-14 0)
(4.44089e-14 1.54611e-14 0)
(2.22045e-14 2.00356e-14 0)
(2.22045e-14 1.0958e-14 0)
(0 -1.85396e-15 0)
(-2.22045e-14 -4.35392e-15 0)
(-2.22045e-14 4.0117e-15 0)
(-2.22045e-14 8.78963e-16 0)
(-6.66134e-14 7.02875e-15 0)
(-4.44089e-14 2.83531e-15 0)
(-4.44089e-14 2.08615e-15 0)
(-6.66134e-14 -1.64428e-14 0)
(6.66134e-14 -2.47706e-14 0)
(-4.44089e-14 -6.62341e-15 0)
(0 -4.3079e-15 0)
(0 -1.51834e-15 0)
(0 7.34226e-15 0)
(0 7.88961e-15 0)
(2.22045e-14 5.68315e-15 0)
(4.44089e-14 9.97262e-14 0)
(-2.22045e-14 -3.84332e-15 0)
(4.44089e-14 1.26326e-14 0)
(-2.22045e-14 2.29376e-14 0)
(0 3.12402e-14 0)
(0 2.58415e-14 0)
(-4.44089e-14 6.25942e-15 0)
(0 -9.97007e-15 0)
(0 -7.3208e-15 0)
(8.88178e-14 5.37993e-16 0)
(0 -1.0469e-16 0)
(-4.44089e-14 -1.65684e-15 0)
(4.44089e-14 -6.6482e-15 0)
(0 -1.06429e-15 0)
(0 6.38973e-15 0)
(0 -1.72033e-14 0)
(-4.44089e-14 -6.67108e-15 0)
(0 1.1072e-14 0)
(-2.22045e-14 7.0433e-15 0)
(0 4.3788e-15 0)
(2.22045e-14 -8.25038e-14 0)
(0 5.07005e-14 0)
(0 9.99256e-15 0)
(0 2.1639e-14 0)
(0 1.32714e-14 0)
(4.44089e-14 -1.36786e-14 0)
(8.88178e-14 -8.05273e-15 0)
(6.66134e-14 9.67426e-15 0)
(-4.44089e-14 8.36551e-15 0)
(-2.22045e-14 1.60104e-14 0)
(-4.44089e-14 1.25549e-14 0)
(-8.88178e-14 5.13488e-15 0)
(-8.88178e-14 7.60514e-15 0)
(-4.44089e-14 5.35458e-15 0)
(0 -1.47209e-14 0)
(0 -1.64184e-14 0)
(4.44089e-14 6.32942e-15 0)
(0 1.45111e-15 0)
(4.44089e-14 3.10823e-15 0)
(0 -8.59991e-15 0)
(-4.44089e-14 3.12436e-14 0)
(2.22045e-14 1.50955e-14 0)
(0 6.23565e-15 0)
(4.44089e-14 -8.20019e-15 0)
(4.44089e-14 -1.30014e-14 0)
(4.44089e-14 -1.9012e-14 0)
(-4.44089e-14 8.92511e-15 0)
(-4.44089e-14 3.67287e-14 0)
(0 4.35744e-14 0)
(4.44089e-14 3.29187e-14 0)
(-2.22045e-14 1.67046e-14 0)
(4.44089e-14 -1.17689e-14 0)
(2.22045e-14 -1.57024e-14 0)
(4.44089e-14 -1.61514e-14 0)
(2.22045e-14 -2.90826e-14 0)
(2.22045e-14 -9.48922e-15 0)
(6.66134e-14 -2.51037e-15 0)
(6.66134e-14 2.90189e-15 0)
(2.22045e-14 2.2332e-14 0)
(0 -1.36127e-15 0)
(-4.44089e-14 6.54243e-14 0)
(-2.22045e-14 -9.44382e-15 0)
(0 -9.73556e-15 0)
(-4.44089e-14 -1.40613e-14 0)
(0 2.72023e-15 0)
(0 2.02245e-14 0)
(-4.44089e-14 1.19405e-14 0)
(-4.44089e-14 1.58328e-15 0)
(4.44089e-14 9.67402e-15 0)
(0 9.9336e-15 0)
(6.66134e-14 -3.77916e-16 0)
(6.66134e-14 -1.73399e-14 0)
(6.66134e-14 -1.787e-14 0)
(4.44089e-14 -1.44466e-15 0)
(0 5.83122e-15 0)
(-2.22045e-14 -3.81366e-15 0)
(-2.22045e-14 -7.92209e-15 0)
(-4.44089e-14 1.00468e-14 0)
(0 2.04594e-14 0)
(4.44089e-14 1.47624e-15 0)
(0 6.59482e-15 0)
(0 -1.16827e-14 0)
(4.44089e-14 2.05976e-15 0)
(0 1.25126e-15 0)
(-4.44089e-14 -2.70636e-15 0)
(-8.88178e-14 5.01041e-15 0)
(0 -5.92851e-15 0)
(4.44089e-14 -1.5887e-15 0)
(0 -9.68294e-15 0)
(4.44089e-14 -4.3778e-15 0)
(4.44089e-14 2.5981e-15 0)
(-4.44089e-14 8.71234e-15 0)
(-4.44089e-14 1.94108e-15 0)
(-4.44089e-14 2.02511e-15 0)
(0 1.7956e-14 0)
(0 5.55852e-15 0)
(0 1.30984e-14 0)
(0 3.74564e-15 0)
(4.44089e-14 -1.14624e-14 0)
(2.22045e-14 3.15605e-15 0)
(4.44089e-14 1.44798e-14 0)
(-2.22045e-14 -2.62084e-14 0)
(0 1.71356e-14 0)
(-4.44089e-14 1.80046e-14 0)
(2.22045e-14 7.48717e-16 0)
(0 -4.07888e-15 0)
(-4.44089e-14 -6.32867e-15 0)
(-2.22045e-14 1.26362e-15 0)
(0 -6.51067e-15 0)
(-2.22045e-14 1.3624e-15 0)
(-2.22045e-14 1.61087e-14 0)
(2.22045e-14 9.76508e-15 0)
(0 -2.96964e-15 0)
(2.22045e-14 -1.02618e-14 0)
(-2.22045e-14 9.75915e-16 0)
(0 4.87843e-15 0)
(2.22045e-14 1.4451e-14 0)
(2.22045e-14 6.29119e-15 0)
(2.22045e-14 -8.07083e-15 0)
(-2.22045e-14 4.92544e-15 0)
)
;

boundaryField
{
    movingWall
    {
        type            calculated;
        value           uniform (0 0 0);
    }
    fixedWalls
    {
        type            calculated;
        value           uniform (0 0 0);
    }
    frontAndBack
    {
        type            empty;
    }
}


// ************************************************************************* //
