/*--------------------------------*- C++ -*----------------------------------*\
| =========                 |                                                 |
| \\      /  F ield         | OpenFOAM: The Open Source CFD Toolbox           |
|  \\    /   O peration     | Version:  2506                                  |
|   \\  /    A nd           | Website:  www.openfoam.com                      |
|    \\/     M anipulation  |                                                 |
\*---------------------------------------------------------------------------*/
FoamFile
{
    version     2.0;
    format      ascii;
    arch        "LSB;label=32;scalar=64";
    class       volVectorField;
    location    "9";
    object      diffU;
}
// * * * * * * * * * * * * * * * * * * * * * * * * * * * * * * * * * * * * * //

dimensions      [0 1 -1 0 0 0 0];

internalField   nonuniform List<vector> 
400
(
(0 0 0)
(1.9873e-14 -1.8435e-13 0)
(1.53211e-14 -1.44243e-13 0)
(1.55431e-14 -1.53578e-13 0)
(1.56541e-14 -1.51578e-13 0)
(1.54321e-14 -1.51978e-13 0)
(1.53211e-14 -1.5191e-13 0)
(1.52101e-14 -1.51896e-13 0)
(1.4988e-14 -1.5189e-13 0)
(1.4988e-14 -1.51849e-13 0)
(1.4988e-14 -1.51702e-13 0)
(1.46549e-14 -1.51702e-13 0)
(1.44329e-14 -1.51866e-13 0)
(1.44329e-14 -1.52043e-13 0)
(1.46549e-14 -1.52111e-13 0)
(1.4877e-14 -1.5215e-13 0)
(1.4988e-14 -1.52066e-13 0)
(1.4988e-14 -1.51976e-13 0)
(1.4988e-14 -1.5187e-13 0)
(1.4988e-14 -1.51901e-13 0)
(3.9746e-14 -1.40783e-13 0)
(7.54952e-15 -1.53741e-13 0)
(1.46549e-14 -1.51356e-13 0)
(1.39888e-14 -1.51996e-13 0)
(1.44329e-14 -1.51888e-13 0)
(1.46549e-14 -1.51848e-13 0)
(1.44329e-14 -1.51827e-13 0)
(1.42109e-14 -1.51818e-13 0)
(1.46549e-14 -1.5181e-13 0)
(1.44329e-14 -1.51891e-13 0)
(1.42109e-14 -1.51922e-13 0)
(1.46549e-14 -1.51851e-13 0)
(1.4988e-14 -1.51904e-13 0)
(1.52101e-14 -1.52002e-13 0)
(1.52101e-14 -1.52072e-13 0)
(1.5099e-14 -1.52083e-13 0)
(1.4877e-14 -1.51986e-13 0)
(1.4877e-14 -1.51943e-13 0)
(1.44329e-14 -1.51905e-13 0)
(1.46549e-14 -1.51935e-13 0)
(8.21565e-15 -2.83426e-13 0)
(1.66533e-14 -1.23515e-13 0)
(1.46549e-14 -1.58512e-13 0)
(1.42109e-14 -1.50548e-13 0)
(1.46549e-14 -1.52302e-13 0)
(1.44329e-14 -1.51865e-13 0)
(1.44329e-14 -1.51868e-13 0)
(1.46549e-14 -1.51853e-13 0)
(1.46549e-14 -1.51824e-13 0)
(1.4877e-14 -1.51862e-13 0)
(1.46549e-14 -1.52062e-13 0)
(1.44329e-14 -1.5209e-13 0)
(1.42109e-14 -1.52089e-13 0)
(1.46549e-14 -1.52011e-13 0)
(1.46549e-14 -1.52031e-13 0)
(1.44329e-14 -1.52072e-13 0)
(1.44329e-14 -1.5197e-13 0)
(1.4877e-14 -1.51885e-13 0)
(1.4877e-14 -1.52042e-13 0)
(1.46549e-14 -1.52083e-13 0)
(0 -5.9315e-14 0)
(1.95399e-14 -1.71957e-13 0)
(1.4988e-14 -1.47078e-13 0)
(1.55431e-14 -1.5292e-13 0)
(1.4988e-14 -1.51787e-13 0)
(1.5099e-14 -1.52057e-13 0)
(1.53211e-14 -1.5196e-13 0)
(1.53211e-14 -1.51994e-13 0)
(1.53211e-14 -1.51939e-13 0)
(1.54321e-14 -1.51751e-13 0)
(1.52101e-14 -1.51786e-13 0)
(1.53211e-14 -1.51894e-13 0)
(1.5099e-14 -1.52005e-13 0)
(1.52101e-14 -1.51978e-13 0)
(1.5099e-14 -1.51932e-13 0)
(1.4988e-14 -1.52063e-13 0)
(1.4877e-14 -1.52055e-13 0)
(1.4877e-14 -1.51952e-13 0)
(1.5099e-14 -1.52023e-13 0)
(1.4877e-14 -1.52072e-13 0)
(3.88578e-14 -1.53616e-13 0)
(8.65974e-15 -1.50982e-13 0)
(1.55431e-14 -1.51885e-13 0)
(1.46549e-14 -1.51747e-13 0)
(1.4988e-14 -1.51914e-13 0)
(1.46549e-14 -1.51919e-13 0)
(1.46549e-14 -1.51924e-13 0)
(1.44329e-14 -1.5196e-13 0)
(1.44329e-14 -1.51897e-13 0)
(1.42109e-14 -1.51855e-13 0)
(1.44329e-14 -1.51892e-13 0)
(1.46549e-14 -1.51878e-13 0)
(1.46549e-14 -1.5196e-13 0)
(1.44329e-14 -1.52079e-13 0)
(1.46549e-14 -1.51997e-13 0)
(1.5099e-14 -1.5198e-13 0)
(1.4877e-14 -1.51985e-13 0)
(1.4877e-14 -1.51984e-13 0)
(1.4988e-14 -1.51959e-13 0)
(1.4877e-14 -1.51978e-13 0)
(-5.55112e-15 -2.44079e-13 0)
(1.9873e-14 -1.31501e-13 0)
(1.44329e-14 -1.56561e-13 0)
(1.54321e-14 -1.50811e-13 0)
(1.52101e-14 -1.52003e-13 0)
(1.5099e-14 -1.5176e-13 0)
(1.54321e-14 -1.51714e-13 0)
(1.5099e-14 -1.51621e-13 0)
(1.4877e-14 -1.51742e-13 0)
(1.4988e-14 -1.51972e-13 0)
(1.4877e-14 -1.52095e-13 0)
(1.46549e-14 -1.52132e-13 0)
(1.4988e-14 -1.52212e-13 0)
(1.52101e-14 -1.52186e-13 0)
(1.5099e-14 -1.52092e-13 0)
(1.52101e-14 -1.5194e-13 0)
(1.5099e-14 -1.51874e-13 0)
(1.4877e-14 -1.51894e-13 0)
(1.4877e-14 -1.51963e-13 0)
(1.4877e-14 -1.5195e-13 0)
(1.33227e-14 -2.76748e-14 0)
(1.46549e-14 -1.79771e-13 0)
(1.46549e-14 -1.45649e-13 0)
(1.44329e-14 -1.53576e-13 0)
(1.4877e-14 -1.51742e-13 0)
(1.46549e-14 -1.52077e-13 0)
(1.46549e-14 -1.51897e-13 0)
(1.4988e-14 -1.51726e-13 0)
(1.52101e-14 -1.51661e-13 0)
(1.55431e-14 -1.51728e-13 0)
(1.4988e-14 -1.51916e-13 0)
(1.4877e-14 -1.52104e-13 0)
(1.46549e-14 -1.52135e-13 0)
(1.44329e-14 -1.52036e-13 0)
(1.44329e-14 -1.51988e-13 0)
(1.44329e-14 -1.51878e-13 0)
(1.46549e-14 -1.51832e-13 0)
(1.46549e-14 -1.51895e-13 0)
(1.4877e-14 -1.52017e-13 0)
(1.4877e-14 -1.51988e-13 0)
(3.43059e-14 -1.96519e-13 0)
(1.02141e-14 -1.42359e-13 0)
(1.55431e-14 -1.54306e-13 0)
(1.5099e-14 -1.51479e-13 0)
(1.46549e-14 -1.52063e-13 0)
(1.46549e-14 -1.51868e-13 0)
(1.44329e-14 -1.52005e-13 0)
(1.44329e-14 -1.52015e-13 0)
(1.39888e-14 -1.51892e-13 0)
(1.42109e-14 -1.5179e-13 0)
(1.44329e-14 -1.51777e-13 0)
(1.44329e-14 -1.5192e-13 0)
(1.44329e-14 -1.51968e-13 0)
(1.44329e-14 -1.52024e-13 0)
(1.44329e-14 -1.52116e-13 0)
(1.46549e-14 -1.52161e-13 0)
(1.44329e-14 -1.52154e-13 0)
(1.4877e-14 -1.52104e-13 0)
(1.4877e-14 -1.52e-13 0)
(1.4988e-14 -1.51951e-13 0)
(3.77476e-15 -2.15923e-13 0)
(1.89848e-14 -1.37343e-13 0)
(1.53211e-14 -1.55251e-13 0)
(1.52101e-14 -1.50992e-13 0)
(1.52101e-14 -1.51909e-13 0)
(1.52101e-14 -1.51717e-13 0)
(1.5099e-14 -1.51773e-13 0)
(1.52101e-14 -1.51818e-13 0)
(1.5099e-14 -1.51889e-13 0)
(1.53211e-14 -1.51954e-13 0)
(1.52101e-14 -1.51917e-13 0)
(1.53211e-14 -1.51939e-13 0)
(1.52101e-14 -1.52009e-13 0)
(1.5099e-14 -1.52061e-13 0)
(1.4988e-14 -1.52084e-13 0)
(1.53211e-14 -1.52123e-13 0)
(1.4988e-14 -1.52144e-13 0)
(1.4988e-14 -1.52146e-13 0)
(1.46549e-14 -1.51976e-13 0)
(1.4988e-14 -1.51932e-13 0)
(1.58762e-14 -3.16377e-14 0)
(1.44329e-14 -1.78572e-13 0)
(1.46549e-14 -1.45683e-13 0)
(1.4988e-14 -1.53299e-13 0)
(1.4877e-14 -1.51575e-13 0)
(1.5099e-14 -1.51934e-13 0)
(1.53211e-14 -1.51748e-13 0)
(1.5099e-14 -1.51756e-13 0)
(1.5099e-14 -1.5182e-13 0)
(1.5099e-14 -1.51882e-13 0)
(1.53211e-14 -1.5196e-13 0)
(1.4988e-14 -1.51924e-13 0)
(1.52101e-14 -1.51972e-13 0)
(1.52101e-14 -1.52028e-13 0)
(1.53211e-14 -1.52028e-13 0)
(1.4877e-14 -1.52011e-13 0)
(1.4877e-14 -1.52029e-13 0)
(1.4877e-14 -1.52029e-13 0)
(1.4877e-14 -1.51957e-13 0)
(1.5099e-14 -1.51958e-13 0)
(1.26565e-14 -2.771e-13 0)
(1.39888e-14 -1.25301e-13 0)
(1.46549e-14 -1.58136e-13 0)
(1.4877e-14 -1.5047e-13 0)
(1.4877e-14 -1.5216e-13 0)
(1.46549e-14 -1.51871e-13 0)
(1.52101e-14 -1.51932e-13 0)
(1.53211e-14 -1.51942e-13 0)
(1.53211e-14 -1.51986e-13 0)
(1.53211e-14 -1.51916e-13 0)
(1.55431e-14 -1.51818e-13 0)
(1.52101e-14 -1.51815e-13 0)
(1.53211e-14 -1.51902e-13 0)
(1.4988e-14 -1.51941e-13 0)
(1.52101e-14 -1.52013e-13 0)
(1.5099e-14 -1.5202e-13 0)
(1.4988e-14 -1.52012e-13 0)
(1.4988e-14 -1.51891e-13 0)
(1.4877e-14 -1.51932e-13 0)
(1.4988e-14 -1.5196e-13 0)
(2.59792e-14 -6.70196e-14 0)
(1.35447e-14 -1.69809e-13 0)
(1.58762e-14 -1.47685e-13 0)
(1.37668e-14 -1.52891e-13 0)
(1.46549e-14 -1.51953e-13 0)
(1.44329e-14 -1.52119e-13 0)
(1.44329e-14 -1.51993e-13 0)
(1.44329e-14 -1.51952e-13 0)
(1.44329e-14 -1.51856e-13 0)
(1.44329e-14 -1.51912e-13 0)
(1.44329e-14 -1.51937e-13 0)
(1.4988e-14 -1.51978e-13 0)
(1.4988e-14 -1.51948e-13 0)
(1.5099e-14 -1.51918e-13 0)
(1.52101e-14 -1.51895e-13 0)
(1.52101e-14 -1.51853e-13 0)
(1.4877e-14 -1.51816e-13 0)
(1.4877e-14 -1.5185e-13 0)
(1.4988e-14 -1.5194e-13 0)
(1.4988e-14 -1.51958e-13 0)
(2.66454e-15 -1.52049e-13 0)
(1.4877e-14 -1.51643e-13 0)
(1.19904e-14 -1.51987e-13 0)
(1.4877e-14 -1.52002e-13 0)
(1.42109e-14 -1.52019e-13 0)
(1.39888e-14 -1.51953e-13 0)
(1.42109e-14 -1.51982e-13 0)
(1.39888e-14 -1.52056e-13 0)
(1.42109e-14 -1.52104e-13 0)
(1.46549e-14 -1.52142e-13 0)
(1.46549e-14 -1.52175e-13 0)
(1.46549e-14 -1.52159e-13 0)
(1.46549e-14 -1.52066e-13 0)
(1.44329e-14 -1.5204e-13 0)
(1.44329e-14 -1.52e-13 0)
(1.46549e-14 -1.51915e-13 0)
(1.4877e-14 -1.51862e-13 0)
(1.4988e-14 -1.51911e-13 0)
(1.4877e-14 -1.51919e-13 0)
(1.4877e-14 -1.51962e-13 0)
(1.84297e-14 -2.51083e-13 0)
(1.64313e-14 -1.30608e-13 0)
(1.67644e-14 -1.56974e-13 0)
(1.4988e-14 -1.50887e-13 0)
(1.54321e-14 -1.52211e-13 0)
(1.52101e-14 -1.51992e-13 0)
(1.52101e-14 -1.52183e-13 0)
(1.52101e-14 -1.52152e-13 0)
(1.53211e-14 -1.52207e-13 0)
(1.52101e-14 -1.52064e-13 0)
(1.4988e-14 -1.51971e-13 0)
(1.4988e-14 -1.51984e-13 0)
(1.46549e-14 -1.52056e-13 0)
(1.52101e-14 -1.5211e-13 0)
(1.4877e-14 -1.52001e-13 0)
(1.4988e-14 -1.51926e-13 0)
(1.4877e-14 -1.51887e-13 0)
(1.46549e-14 -1.51876e-13 0)
(1.4988e-14 -1.51937e-13 0)
(1.4988e-14 -1.51963e-13 0)
(6.66134e-16 1.31913e-17 0)
(1.76525e-14 -1.85026e-13 0)
(1.39888e-14 -1.44366e-13 0)
(1.53211e-14 -1.53696e-13 0)
(1.4877e-14 -1.51529e-13 0)
(1.4988e-14 -1.51936e-13 0)
(1.46549e-14 -1.51934e-13 0)
(1.46549e-14 -1.52006e-13 0)
(1.44329e-14 -1.52067e-13 0)
(1.44329e-14 -1.52045e-13 0)
(1.44329e-14 -1.51992e-13 0)
(1.44329e-14 -1.51975e-13 0)
(1.4877e-14 -1.52012e-13 0)
(1.44329e-14 -1.5203e-13 0)
(1.44329e-14 -1.51891e-13 0)
(1.44329e-14 -1.5191e-13 0)
(1.44329e-14 -1.51958e-13 0)
(1.46549e-14 -1.5195e-13 0)
(1.4877e-14 -1.5194e-13 0)
(1.4988e-14 -1.51909e-13 0)
(3.93019e-14 -2.4397e-13 0)
(8.43769e-15 -1.3246e-13 0)
(1.54321e-14 -1.56443e-13 0)
(1.46549e-14 -1.50805e-13 0)
(1.46549e-14 -1.51955e-13 0)
(1.46549e-14 -1.51865e-13 0)
(1.4877e-14 -1.52012e-13 0)
(1.52101e-14 -1.52013e-13 0)
(1.4877e-14 -1.51943e-13 0)
(1.4877e-14 -1.51965e-13 0)
(1.44329e-14 -1.51983e-13 0)
(1.42109e-14 -1.51978e-13 0)
(1.44329e-14 -1.51941e-13 0)
(1.42109e-14 -1.51939e-13 0)
(1.44329e-14 -1.5205e-13 0)
(1.46549e-14 -1.52127e-13 0)
(1.4877e-14 -1.5214e-13 0)
(1.46549e-14 -1.52085e-13 0)
(1.4877e-14 -1.51974e-13 0)
(1.4877e-14 -1.5196e-13 0)
(-5.10703e-15 -1.91187e-13 0)
(2.04281e-14 -1.43208e-13 0)
(1.44329e-14 -1.53917e-13 0)
(1.4877e-14 -1.51444e-13 0)
(1.46549e-14 -1.52192e-13 0)
(1.52101e-14 -1.52238e-13 0)
(1.52101e-14 -1.5218e-13 0)
(1.4988e-14 -1.52012e-13 0)
(1.5099e-14 -1.5177e-13 0)
(1.53211e-14 -1.51674e-13 0)
(1.52101e-14 -1.51726e-13 0)
(1.53211e-14 -1.51806e-13 0)
(1.5099e-14 -1.51913e-13 0)
(1.5099e-14 -1.51968e-13 0)
(1.4988e-14 -1.5219e-13 0)
(1.52101e-14 -1.5224e-13 0)
(1.52101e-14 -1.52213e-13 0)
(1.52101e-14 -1.5208e-13 0)
(1.5099e-14 -1.519e-13 0)
(1.4988e-14 -1.51955e-13 0)
(7.10543e-15 -2.60227e-14 0)
(1.59872e-14 -1.79031e-13 0)
(1.42109e-14 -1.45556e-13 0)
(1.4877e-14 -1.5348e-13 0)
(1.4877e-14 -1.5185e-13 0)
(1.4877e-14 -1.52124e-13 0)
(1.44329e-14 -1.51961e-13 0)
(1.44329e-14 -1.52004e-13 0)
(1.44329e-14 -1.51962e-13 0)
(1.46549e-14 -1.51923e-13 0)
(1.4988e-14 -1.51889e-13 0)
(1.52101e-14 -1.5192e-13 0)
(1.53211e-14 -1.51997e-13 0)
(1.54321e-14 -1.51988e-13 0)
(1.55431e-14 -1.51983e-13 0)
(1.5099e-14 -1.52005e-13 0)
(1.4988e-14 -1.51987e-13 0)
(1.46549e-14 -1.51934e-13 0)
(1.46549e-14 -1.5186e-13 0)
(1.5099e-14 -1.51947e-13 0)
(4.68514e-14 -2.00424e-13 0)
(6.66134e-15 -1.41671e-13 0)
(1.57652e-14 -1.54446e-13 0)
(1.44329e-14 -1.51523e-13 0)
(1.46549e-14 -1.52074e-13 0)
(1.42109e-14 -1.51906e-13 0)
(1.44329e-14 -1.51981e-13 0)
(1.46549e-14 -1.52047e-13 0)
(1.44329e-14 -1.52126e-13 0)
(1.46549e-14 -1.52158e-13 0)
(1.46549e-14 -1.52096e-13 0)
(1.46549e-14 -1.52084e-13 0)
(1.44329e-14 -1.52018e-13 0)
(1.44329e-14 -1.51968e-13 0)
(1.44329e-14 -1.51891e-13 0)
(1.4877e-14 -1.51906e-13 0)
(1.46549e-14 -1.51873e-13 0)
(1.46549e-14 -1.5194e-13 0)
(1.4877e-14 -1.52074e-13 0)
(1.4988e-14 -1.52011e-13 0)
(0 -2.38031e-13 0)
(1.9762e-14 -1.33486e-13 0)
(1.55431e-14 -1.56568e-13 0)
(1.54321e-14 -1.51044e-13 0)
(1.56541e-14 -1.52123e-13 0)
(1.55431e-14 -1.51892e-13 0)
(1.54321e-14 -1.51974e-13 0)
(1.54321e-14 -1.51986e-13 0)
(1.55431e-14 -1.5204e-13 0)
(1.52101e-14 -1.5203e-13 0)
(1.52101e-14 -1.51974e-13 0)
(1.52101e-14 -1.5197e-13 0)
(1.4988e-14 -1.51967e-13 0)
(1.5099e-14 -1.52006e-13 0)
(1.4988e-14 -1.52026e-13 0)
(1.5099e-14 -1.52026e-13 0)
(1.5099e-14 -1.51989e-13 0)
(1.5099e-14 -1.51993e-13 0)
(1.5099e-14 -1.52069e-13 0)
(1.4877e-14 -1.51985e-13 0)
)
;

boundaryField
{
    movingWall
    {
        type            calculated;
        value           uniform (1.4877e-14 -1.51956e-13 0);
    }
    fixedWalls
    {
        type            calculated;
        value           uniform (1.4877e-14 -1.51956e-13 0);
    }
    frontAndBack
    {
        type            empty;
    }
}


// ************************************************************************* //
