/*--------------------------------*- C++ -*----------------------------------*\
| =========                 |                                                 |
| \\      /  F ield         | OpenFOAM: The Open Source CFD Toolbox           |
|  \\    /   O peration     | Version:  2506                                  |
|   \\  /    A nd           | Website:  www.openfoam.com                      |
|    \\/     M anipulation  |                                                 |
\*---------------------------------------------------------------------------*/
FoamFile
{
    version     2.0;
    format      ascii;
    arch        "LSB;label=32;scalar=64";
    class       volScalarField;
    location    "9";
    object      divPhi;
}
// * * * * * * * * * * * * * * * * * * * * * * * * * * * * * * * * * * * * * //

dimensions      [0 0 -1 0 0 0 0];

internalField   nonuniform List<scalar> 
400
(
2.71051e-14
-1.77509e-14
9.57991e-15
-4.28696e-15
1.40466e-14
-1.60335e-14
1.59203e-14
-1.17143e-14
1.58332e-14
-2.15832e-15
-1.41868e-14
1.08999e-15
6.011e-16
1.30645e-14
2.08559e-15
-1.69746e-14
-1.55302e-16
1.38156e-14
-3.8187e-15
0
0
7.51689e-15
4.23959e-15
-1.06151e-14
-2.05905e-14
1.50269e-14
-3.28017e-14
3.73669e-16
9.51215e-15
-2.17972e-14
2.71274e-14
-2.43902e-14
4.854e-15
2.05583e-14
6.84162e-15
1.48495e-14
-1.63765e-14
-1.68737e-14
-1.21996e-14
0
0
-1.09954e-14
2.52104e-15
1.79274e-15
-2.06817e-15
-2.43054e-14
9.76554e-15
1.01238e-14
1.39187e-14
2.49634e-14
-4.65986e-15
5.36599e-15
1.02901e-14
-1.02863e-14
-6.80406e-15
-3.27532e-14
2.74514e-14
1.45844e-14
-1.28009e-14
-2.71051e-14
0
-3.29468e-14
1.80366e-15
7.22904e-16
2.47798e-14
-9.36591e-15
3.44457e-14
-6.84685e-15
-2.71953e-14
5.85759e-15
-3.78531e-14
8.57325e-15
2.18976e-14
-1.76604e-14
3.73735e-15
-2.98219e-14
2.10856e-14
-1.40826e-15
1.05734e-15
2.71051e-14
0
-1.35269e-14
1.06727e-14
-5.91747e-15
4.47909e-15
-2.55047e-14
1.98357e-14
-5.99332e-15
2.2557e-15
1.54684e-14
-3.01521e-14
1.71882e-14
-1.40974e-14
2.12023e-14
5.94109e-15
-6.9705e-15
6.73969e-15
-5.21221e-15
-7.27543e-15
0
0
-1.87332e-14
1.83481e-14
-1.29944e-14
-2.56073e-15
-7.97009e-15
6.50875e-15
3.95485e-15
-1.23247e-14
9.08405e-15
-2.12947e-14
-3.33397e-14
1.84864e-14
2.34556e-14
-1.96097e-14
1.05257e-14
-5.24442e-15
-3.09665e-15
-7.03562e-15
0
0
-4.54846e-15
-6.7316e-15
-2.45302e-14
-1.10787e-14
-7.76141e-15
7.55811e-16
-7.89335e-15
-1.64407e-14
1.75989e-14
7.23379e-15
-3.81252e-15
-3.52743e-15
-1.39725e-14
8.89504e-15
1.21868e-14
-3.22946e-14
-4.77571e-15
-6.12923e-15
0
0
4.45708e-15
-7.57832e-15
-1.6367e-14
1.46419e-14
-3.11068e-14
-9.36246e-15
-8.31992e-15
2.20819e-14
-1.53411e-14
2.09754e-14
-2.97252e-14
-1.31747e-14
1.11811e-14
2.45983e-15
-2.96291e-15
-1.97795e-14
1.68038e-15
1.06301e-14
2.71051e-14
0
-9.88767e-15
-8.24489e-15
1.5636e-14
-2.37666e-14
-5.6959e-15
1.44421e-16
-3.97162e-15
-4.3562e-15
1.42716e-14
3.68751e-15
-1.57224e-14
-1.79793e-15
8.09459e-15
5.88689e-15
-5.50206e-15
8.67942e-15
1.1202e-14
6.53309e-15
0
0
-6.85557e-15
-1.1599e-14
1.19761e-14
-1.07104e-14
1.16315e-14
7.26255e-15
3.1321e-15
-1.72689e-14
-1.46661e-14
7.57912e-15
9.25045e-15
-2.79213e-15
1.98647e-14
1.11885e-14
-3.28072e-14
8.85228e-15
1.91714e-14
-1.75572e-15
0
2.71051e-14
-3.02268e-14
-6.8312e-16
1.84436e-14
-2.39395e-14
-2.22104e-15
-7.93041e-15
3.04412e-14
3.06054e-14
-3.9441e-16
-9.94271e-15
2.27122e-14
-1.53728e-14
1.08727e-14
3.12551e-14
4.22652e-15
8.13895e-15
-2.17013e-15
4.24124e-15
0
0
-7.82028e-15
-2.44024e-14
-1.90816e-15
1.07538e-14
-1.78058e-14
-2.98912e-14
7.90262e-15
6.86935e-15
-1.94396e-15
-1.69109e-14
-4.13482e-15
3.8416e-14
-1.32359e-14
4.19608e-15
1.82284e-14
1.52322e-15
-1.60162e-14
-2.49923e-14
0
-2.71051e-14
2.80858e-15
4.99685e-15
-2.53231e-14
2.19709e-14
-9.10055e-15
9.2989e-15
1.02176e-14
1.43146e-15
1.49978e-14
1.7325e-15
4.30095e-15
-1.72672e-14
-1.25992e-14
1.01699e-14
2.7407e-14
-1.4715e-14
1.1264e-14
-1.40987e-14
2.71051e-14
0
1.01112e-14
-2.35425e-14
8.67603e-15
8.09938e-15
-2.43573e-14
1.6572e-14
-4.66097e-15
2.00287e-14
-1.72624e-14
-5.44704e-16
-7.20049e-16
3.14134e-14
-1.15192e-14
3.2944e-15
-1.71884e-14
3.58013e-14
-8.02473e-15
3.12712e-14
-2.71051e-14
2.71051e-14
-6.33892e-16
8.15289e-15
-1.10031e-14
1.06476e-14
1.6016e-14
-1.56777e-14
-7.46698e-15
1.54678e-14
7.38476e-15
2.40567e-15
-7.19195e-15
9.19143e-15
-1.75267e-15
-9.74131e-16
1.377e-14
1.06582e-14
1.15668e-14
-3.95162e-15
2.71051e-14
0
2.66703e-15
1.24961e-14
-3.07565e-14
1.99566e-14
-2.18809e-14
1.86169e-14
-1.25582e-14
2.5122e-15
1.64532e-14
1.28407e-14
-1.5497e-14
2.22333e-14
7.02771e-15
-3.28471e-15
1.23429e-14
-1.53598e-14
-3.77457e-15
-4.01765e-15
-2.71051e-14
2.71051e-14
2.07338e-14
-7.27296e-16
-8.56594e-15
-1.90706e-14
4.27207e-15
3.11831e-15
-1.50925e-14
-1.8969e-14
6.79371e-15
7.59523e-16
-1.90225e-15
9.73874e-15
-1.78517e-15
-5.36576e-15
3.84203e-14
-1.53951e-14
1.00914e-14
1.25248e-15
0
0
-7.00405e-16
2.46592e-14
-2.3076e-14
-1.28908e-14
2.24545e-14
1.37835e-15
1.17211e-14
-1.00262e-14
2.52578e-14
1.23876e-14
-1.64794e-14
4.94907e-15
1.48521e-14
-1.72121e-14
7.48218e-15
1.48396e-14
1.29481e-14
-3.0459e-15
2.71051e-14
0
-1.54733e-14
-1.24016e-14
2.01214e-14
-1.68426e-14
4.37234e-15
-5.25425e-15
2.43871e-14
-3.08535e-14
2.94984e-14
1.67795e-14
1.75541e-14
-1.07865e-16
-1.20472e-15
2.72028e-14
-2.03016e-15
-2.11559e-14
2.69941e-14
-4.21099e-15
-2.71051e-14
0
0
0
0
0
0
0
-2.71051e-14
0
0
0
0
0
0
0
0
0
0
-2.71051e-14
2.71051e-14
)
;

boundaryField
{
    movingWall
    {
        type            extrapolatedCalculated;
        value           nonuniform List<scalar> 
20
(
0
0
0
0
0
0
0
-2.71051e-14
0
0
0
0
0
0
0
0
0
0
-2.71051e-14
2.71051e-14
)
;
    }
    fixedWalls
    {
        type            extrapolatedCalculated;
        value           nonuniform List<scalar> 
60
(
2.71051e-14
0
0
0
0
0
0
0
0
0
2.71051e-14
0
-2.71051e-14
0
2.71051e-14
0
2.71051e-14
0
0
0
0
0
-2.71051e-14
2.71051e-14
0
0
0
2.71051e-14
0
0
0
0
2.71051e-14
-2.71051e-14
2.71051e-14
-2.71051e-14
0
2.71051e-14
-2.71051e-14
2.71051e-14
2.71051e-14
-1.77509e-14
9.57991e-15
-4.28696e-15
1.40466e-14
-1.60335e-14
1.59203e-14
-1.17143e-14
1.58332e-14
-2.15832e-15
-1.41868e-14
1.08999e-15
6.011e-16
1.30645e-14
2.08559e-15
-1.69746e-14
-1.55302e-16
1.38156e-14
-3.8187e-15
0
)
;
    }
    frontAndBack
    {
        type            empty;
    }
}


// ************************************************************************* //
