/*--------------------------------*- C++ -*----------------------------------*\
| =========                 |                                                 |
| \\      /  F ield         | OpenFOAM: The Open Source CFD Toolbox           |
|  \\    /   O peration     | Version:  2506                                  |
|   \\  /    A nd           | Website:  www.openfoam.com                      |
|    \\/     M anipulation  |                                                 |
\*---------------------------------------------------------------------------*/
FoamFile
{
    version     2.0;
    format      ascii;
    arch        "LSB;label=32;scalar=64";
    class       volScalarField;
    location    "9";
    object      divU;
}
// * * * * * * * * * * * * * * * * * * * * * * * * * * * * * * * * * * * * * //

dimensions      [0 0 -1 0 0 0 0];

internalField   nonuniform List<scalar> 
400
(
1.53415e-11
-1.90002e-12
3.97595e-13
-1.39116e-13
4.45316e-14
-4.55737e-14
-9.54887e-15
1.98365e-14
-5.92478e-15
1.71662e-14
1.73673e-15
-4.53791e-14
1.41664e-14
1.3819e-14
-2.71349e-14
2.21485e-14
1.30738e-14
-6.41165e-16
1.36477e-14
-2.71051e-14
-2.6563e-11
3.56008e-12
-8.12503e-13
2.99411e-13
-7.3263e-16
1.98876e-14
-3.24128e-14
-2.93091e-15
6.91599e-16
-6.54593e-14
1.99027e-14
5.1347e-14
1.89544e-14
-1.00065e-14
8.00459e-15
-2.42795e-14
-4.40636e-15
-4.57978e-14
-3.05692e-14
5.42101e-14
7.67073e-12
-1.16175e-12
1.84557e-13
-9.10647e-14
9.41467e-15
-2.80679e-14
-1.86781e-14
6.54633e-15
4.19476e-14
2.77701e-15
-4.77998e-14
-3.43066e-14
-1.81723e-14
1.94903e-14
-5.1145e-15
4.80026e-15
1.58305e-14
6.17308e-14
-6.94186e-14
2.71051e-14
1.19262e-11
-1.22503e-12
2.50995e-13
-1.29626e-13
2.10942e-14
-6.40419e-15
2.99326e-14
-4.24774e-15
-1.95809e-14
3.49681e-15
-3.6677e-15
1.39787e-14
2.18324e-14
-1.44049e-14
-1.70223e-15
-1.31537e-14
-3.98554e-14
2.47257e-14
2.01986e-14
-2.71051e-14
-1.67238e-11
1.68215e-12
-3.17863e-13
1.62557e-13
-2.76575e-14
-3.09741e-14
2.74994e-14
5.93348e-15
-2.69091e-14
3.5573e-14
-3.46176e-14
-9.85614e-15
-2.60483e-14
-8.16764e-15
3.65898e-14
2.62715e-14
-2.18052e-14
3.37228e-15
2.61229e-14
0
1.10589e-11
-8.7157e-13
1.70173e-13
-1.01693e-13
-1.03848e-14
7.43302e-15
3.01415e-15
-2.48623e-14
-3.22652e-15
4.82866e-14
-3.70034e-14
-3.24463e-14
3.77678e-14
-3.94898e-15
1.03719e-14
9.42401e-15
-6.51438e-15
-1.48209e-14
-6.818e-15
0
4.55365e-12
-9.54501e-13
2.33058e-13
-6.00326e-14
3.78507e-14
-5.75209e-14
2.80455e-14
1.70991e-14
3.59235e-14
-1.47928e-14
-5.93481e-14
1.58804e-14
-4.61979e-14
1.23221e-14
7.95967e-15
1.44364e-14
-3.44444e-14
4.55196e-14
-1.05018e-14
0
-1.73201e-11
2.33964e-12
-4.83209e-13
1.71285e-13
-6.01852e-14
3.27594e-14
-1.37506e-14
-7.33591e-14
-1.40675e-14
4.39685e-14
-5.23027e-15
5.33778e-15
2.0624e-14
9.83873e-15
-1.63341e-15
-3.71879e-14
-1.14638e-14
2.04652e-14
2.06997e-14
-2.71051e-14
1.57751e-11
-2.44713e-12
4.87521e-13
-2.00508e-13
4.28667e-14
-9.64466e-16
3.90963e-14
3.38023e-14
2.02846e-14
7.64448e-15
-2.35698e-14
-2.21872e-14
-6.9248e-15
9.3673e-15
7.10474e-15
4.97024e-15
-2.6137e-14
-2.62913e-14
-2.05903e-15
0
-6.07153e-12
1.08811e-12
-2.34661e-13
4.1441e-14
-9.38555e-15
1.07503e-14
-3.92383e-15
-5.77317e-15
-1.64877e-14
1.14483e-14
1.33996e-14
1.72643e-14
3.78007e-15
2.13577e-14
1.4171e-14
-3.89744e-14
1.42234e-14
2.63281e-14
2.94305e-14
-2.71051e-14
-3.82181e-12
1.04284e-12
-5.54095e-14
2.80742e-14
-4.72292e-14
-7.7691e-15
2.57439e-14
1.79163e-15
6.95728e-15
3.56067e-14
-1.14315e-14
-1.51805e-14
-2.09396e-14
5.30379e-15
3.58104e-16
3.8713e-15
-1.86563e-14
-9.94847e-15
4.04125e-15
0
1.34712e-11
-3.65133e-12
6.67992e-13
-2.87814e-13
7.53125e-14
-1.59648e-14
-6.33347e-15
-9.56029e-15
-4.79525e-15
-1.41315e-14
-2.00491e-14
5.8832e-14
1.68637e-14
-4.62108e-15
1.71448e-15
1.43499e-14
-3.07588e-14
-1.19981e-14
3.24364e-14
-2.71051e-14
-1.96512e-11
4.87664e-12
-9.11407e-13
4.0041e-13
-1.40187e-13
2.3839e-14
2.89071e-14
-8.38277e-14
6.86058e-14
2.48747e-14
3.68863e-15
4.00003e-15
-4.8078e-14
-2.38744e-14
1.82795e-14
3.41522e-14
-1.08045e-14
-1.455e-14
5.60634e-15
0
1.57209e-11
-3.50321e-12
6.09611e-13
-3.1103e-13
7.14127e-14
-2.87212e-14
6.61003e-15
2.96226e-14
-3.61494e-14
7.47852e-15
-5.12844e-15
-4.70769e-15
3.86588e-14
3.14101e-14
-2.50277e-14
-1.95231e-14
-2.04652e-14
8.63596e-15
3.06065e-14
-2.71051e-14
-4.60786e-13
1.16341e-12
-1.77545e-13
1.03821e-13
-3.85194e-14
1.11058e-14
-3.05075e-14
1.64329e-14
-9.84322e-15
1.73825e-14
-6.29457e-15
2.30255e-14
2.30484e-14
-5.70153e-15
-2.86375e-15
-1.24869e-14
-1.85657e-14
6.90311e-14
2.68968e-14
-2.71051e-14
-1.73201e-11
1.82151e-12
-3.19508e-13
1.1217e-13
-7.7707e-14
3.509e-14
2.62345e-14
-3.84469e-14
-7.28764e-15
-2.68147e-14
-6.09961e-14
1.28862e-14
6.00864e-14
-5.3774e-14
2.14341e-14
3.57881e-14
-7.11007e-14
2.89318e-14
3.82062e-15
0
2.0383e-11
-2.72725e-12
5.25268e-13
-2.09581e-13
1.41305e-14
3.63054e-14
4.26568e-15
-1.04641e-14
-9.10077e-15
3.15729e-14
2.5994e-15
-8.44037e-15
2.08103e-16
-4.42881e-15
1.06957e-15
2.08963e-14
2.54361e-14
1.68514e-14
-1.18931e-14
-2.71051e-14
-1.5992e-12
8.95968e-13
-1.7812e-13
8.06589e-14
-1.12815e-15
-1.17683e-14
-2.92664e-15
-1.39464e-14
-4.46787e-14
3.734e-14
1.98262e-14
-9.14831e-15
1.68233e-14
2.26777e-14
-2.32798e-14
9.73749e-17
-2.19724e-14
-5.04881e-14
2.4942e-14
0
-1.88109e-11
1.46612e-12
-3.30681e-13
1.34485e-13
-5.55291e-14
1.13797e-14
2.28097e-14
-1.21069e-14
2.87743e-14
-5.28419e-16
-1.57705e-14
-1.41245e-14
-3.43809e-14
-6.23494e-15
2.65766e-14
-1.97838e-15
4.99642e-15
5.20716e-14
4.02337e-15
-2.71051e-14
1.24683e-11
-1.35525e-12
2.98156e-13
-1.35525e-13
2.71051e-14
0
-2.71051e-14
2.71051e-14
-2.71051e-14
0
2.71051e-14
2.71051e-14
0
0
0
0
0
0
0
-2.71051e-14
)
;

boundaryField
{
    movingWall
    {
        type            extrapolatedCalculated;
        value           nonuniform List<scalar> 
20
(
1.24683e-11
-1.35525e-12
2.98156e-13
-1.35525e-13
2.71051e-14
0
-2.71051e-14
2.71051e-14
-2.71051e-14
0
2.71051e-14
2.71051e-14
0
0
0
0
0
0
0
-2.71051e-14
)
;
    }
    fixedWalls
    {
        type            extrapolatedCalculated;
        value           nonuniform List<scalar> 
60
(
1.53415e-11
-2.6563e-11
7.67073e-12
1.19262e-11
-1.67238e-11
1.10589e-11
4.55365e-12
-1.73201e-11
1.57751e-11
-6.07153e-12
-3.82181e-12
1.34712e-11
-1.96512e-11
1.57209e-11
-4.60786e-13
-1.73201e-11
2.0383e-11
-1.5992e-12
-1.88109e-11
1.24683e-11
-2.71051e-14
5.42101e-14
2.71051e-14
-2.71051e-14
0
0
0
-2.71051e-14
0
-2.71051e-14
0
-2.71051e-14
0
-2.71051e-14
-2.71051e-14
0
-2.71051e-14
0
-2.71051e-14
-2.71051e-14
1.53415e-11
-1.90002e-12
3.97595e-13
-1.39116e-13
4.45316e-14
-4.55737e-14
-9.54887e-15
1.98365e-14
-5.92478e-15
1.71662e-14
1.73673e-15
-4.53791e-14
1.41664e-14
1.3819e-14
-2.71349e-14
2.21485e-14
1.30738e-14
-6.41165e-16
1.36477e-14
-2.71051e-14
)
;
    }
    frontAndBack
    {
        type            empty;
    }
}


// ************************************************************************* //
