/*--------------------------------*- C++ -*----------------------------------*\
| =========                 |                                                 |
| \\      /  F ield         | OpenFOAM: The Open Source CFD Toolbox           |
|  \\    /   O peration     | Version:  2506                                  |
|   \\  /    A nd           | Website:  www.openfoam.com                      |
|    \\/     M anipulation  |                                                 |
\*---------------------------------------------------------------------------*/
FoamFile
{
    version     2.0;
    format      ascii;
    arch        "LSB;label=32;scalar=64";
    class       volScalarField;
    location    "9";
    object      dpdt2;
}
// * * * * * * * * * * * * * * * * * * * * * * * * * * * * * * * * * * * * * //

dimensions      [0 4 -6 0 0 0 0];

internalField   nonuniform List<scalar> 
400
(
4.95842e-26
5.67272e-25
1.15408e-24
1.55141e-24
1.82039e-24
2.06076e-24
2.24548e-24
2.76328e-24
2.96872e-24
3.15056e-24
3.50124e-24
3.75642e-24
4.12266e-24
4.10799e-24
4.10379e-24
4.19805e-24
3.94987e-24
4.03963e-24
4.17372e-24
3.93831e-24
5.40312e-25
8.43659e-25
1.20988e-24
1.59495e-24
2.01972e-24
2.1669e-24
2.35935e-24
2.7429e-24
3.03987e-24
3.24071e-24
3.54744e-24
3.77792e-24
3.81805e-24
4.06515e-24
4.12915e-24
4.08991e-24
4.10353e-24
3.95875e-24
4.26884e-24
4.14168e-24
1.11162e-24
1.32688e-24
1.37973e-24
1.62927e-24
2.10708e-24
2.3607e-24
2.59959e-24
2.86561e-24
3.21002e-24
3.30206e-24
3.39276e-24
3.591e-24
3.73839e-24
3.94441e-24
4.08308e-24
4.10132e-24
4.09696e-24
3.80855e-24
4.20126e-24
4.22163e-24
1.62026e-24
1.6496e-24
1.74985e-24
1.89048e-24
2.32345e-24
2.54465e-24
2.70989e-24
2.97783e-24
3.22124e-24
3.40712e-24
3.45566e-24
3.5204e-24
3.63414e-24
3.85293e-24
3.98309e-24
4.0294e-24
4.07722e-24
4.02226e-24
4.01276e-24
4.09933e-24
2.03932e-24
2.13757e-24
2.1331e-24
2.36411e-24
2.56597e-24
2.70644e-24
2.79346e-24
3.03487e-24
3.3805e-24
3.80583e-24
3.67361e-24
3.50213e-24
3.51965e-24
3.67703e-24
4.01589e-24
4.10903e-24
4.17257e-24
4.24378e-24
4.18894e-24
4.28779e-24
2.42627e-24
2.5688e-24
2.56836e-24
2.71713e-24
2.75699e-24
2.9956e-24
2.96779e-24
3.07969e-24
3.42093e-24
3.90738e-24
3.98877e-24
3.72337e-24
3.65976e-24
3.96499e-24
4.09182e-24
4.24646e-24
4.3167e-24
4.42636e-24
4.29853e-24
4.35238e-24
2.82494e-24
2.8354e-24
2.93739e-24
3.09125e-24
2.93489e-24
2.92781e-24
3.13572e-24
3.47271e-24
3.77063e-24
3.80693e-24
3.79326e-24
3.85266e-24
3.89979e-24
4.37227e-24
4.38236e-24
4.46577e-24
4.4652e-24
4.48141e-24
4.34054e-24
4.47208e-24
3.05111e-24
3.05852e-24
3.11094e-24
3.0165e-24
3.01341e-24
3.20431e-24
3.39822e-24
3.50299e-24
3.99443e-24
4.13246e-24
3.98201e-24
4.09329e-24
4.11483e-24
4.45278e-24
4.50372e-24
4.56385e-24
4.62508e-24
4.50757e-24
4.40878e-24
4.49469e-24
3.28021e-24
3.22742e-24
3.19905e-24
3.17637e-24
3.30653e-24
3.34847e-24
3.439e-24
3.65279e-24
3.98786e-24
4.10939e-24
4.19436e-24
4.16859e-24
4.26223e-24
4.40734e-24
4.41203e-24
4.38273e-24
4.48098e-24
4.5147e-24
4.59923e-24
4.60434e-24
3.35527e-24
3.39005e-24
3.23144e-24
3.31049e-24
3.51253e-24
3.50149e-24
3.67424e-24
3.82242e-24
4.02031e-24
4.08893e-24
4.06958e-24
4.18609e-24
4.22328e-24
4.32104e-24
4.34989e-24
4.3166e-24
4.40527e-24
4.49568e-24
4.58273e-24
4.72051e-24
3.40485e-24
3.59485e-24
3.35648e-24
3.43748e-24
3.51627e-24
3.79928e-24
4.01512e-24
3.93836e-24
3.92525e-24
4.09502e-24
4.01664e-24
4.07872e-24
4.19299e-24
4.35699e-24
4.3513e-24
4.30541e-24
4.33596e-24
4.49272e-24
4.58594e-24
4.73946e-24
3.51686e-24
3.55893e-24
3.63531e-24
3.663e-24
3.65323e-24
3.9716e-24
4.13897e-24
3.86132e-24
4.03094e-24
4.1326e-24
4.00422e-24
3.83605e-24
4.10316e-24
4.34846e-24
4.35844e-24
4.37088e-24
4.32548e-24
4.51631e-24
4.59925e-24
4.6762e-24
3.49555e-24
3.80743e-24
3.81558e-24
3.67911e-24
3.84766e-24
4.09837e-24
4.08693e-24
3.89837e-24
4.13564e-24
3.98041e-24
3.88862e-24
3.81357e-24
4.28004e-24
4.31112e-24
4.22508e-24
4.34237e-24
4.23965e-24
4.49666e-24
4.71283e-24
4.69047e-24
3.76192e-24
3.90621e-24
4.08196e-24
3.93395e-24
3.91029e-24
4.02513e-24
3.96523e-24
3.95451e-24
3.97658e-24
3.98416e-24
3.98044e-24
3.91733e-24
4.20149e-24
4.11477e-24
4.05587e-24
4.24836e-24
4.19986e-24
4.44767e-24
4.78307e-24
4.6824e-24
4.03687e-24
4.07427e-24
4.13897e-24
4.04574e-24
4.02394e-24
4.09057e-24
4.0701e-24
3.89474e-24
4.01556e-24
3.87217e-24
3.81057e-24
3.94048e-24
4.07801e-24
3.8269e-24
4.03848e-24
4.19988e-24
4.02449e-24
4.52944e-24
4.7948e-24
4.81089e-24
4.17978e-24
4.19882e-24
4.06369e-24
4.14168e-24
4.16062e-24
4.15901e-24
4.0322e-24
3.73347e-24
3.81551e-24
3.8213e-24
3.74405e-24
3.92845e-24
4.11404e-24
3.92502e-24
4.09311e-24
4.10618e-24
4.11e-24
4.56504e-24
4.71229e-24
4.71774e-24
4.31066e-24
4.28953e-24
4.13113e-24
3.93001e-24
3.98627e-24
3.87606e-24
3.91679e-24
3.9548e-24
3.88223e-24
3.8879e-24
3.76991e-24
3.95578e-24
4.1065e-24
3.95738e-24
3.91926e-24
4.0636e-24
4.26503e-24
4.32447e-24
4.73475e-24
4.63091e-24
4.34478e-24
4.37527e-24
4.05734e-24
3.87825e-24
3.91929e-24
3.72727e-24
3.86979e-24
3.90359e-24
3.92634e-24
3.97843e-24
3.96199e-24
3.82083e-24
4.0108e-24
3.95347e-24
3.87994e-24
4.03012e-24
4.08512e-24
4.38085e-24
4.91504e-24
4.67583e-24
4.47118e-24
4.51834e-24
4.09949e-24
3.86642e-24
3.76084e-24
3.70092e-24
3.85056e-24
3.86114e-24
3.99846e-24
3.89121e-24
3.85685e-24
3.76964e-24
3.96758e-24
3.94139e-24
3.96576e-24
4.02342e-24
4.06001e-24
4.55113e-24
4.91938e-24
4.72033e-24
4.5637e-24
4.37752e-24
4.19273e-24
3.88636e-24
3.61085e-24
3.60611e-24
3.71492e-24
3.90245e-24
3.91843e-24
4.07201e-24
3.97073e-24
3.77027e-24
3.78468e-24
3.83046e-24
3.98097e-24
3.93084e-24
4.22635e-24
4.70831e-24
4.89057e-24
4.80507e-24
)
;

boundaryField
{
    movingWall
    {
        type            calculated;
        value           nonuniform List<scalar> 
20
(
4.5637e-24
4.37752e-24
4.19273e-24
3.88636e-24
3.61085e-24
3.60611e-24
3.71492e-24
3.90245e-24
3.91843e-24
4.07201e-24
3.97073e-24
3.77027e-24
3.78468e-24
3.83046e-24
3.98097e-24
3.93084e-24
4.22635e-24
4.70831e-24
4.89057e-24
4.80507e-24
)
;
    }
    fixedWalls
    {
        type            calculated;
        value           nonuniform List<scalar> 
60
(
4.95842e-26
5.40312e-25
1.11162e-24
1.62026e-24
2.03932e-24
2.42627e-24
2.82494e-24
3.05111e-24
3.28021e-24
3.35527e-24
3.40485e-24
3.51686e-24
3.49555e-24
3.76192e-24
4.03687e-24
4.17978e-24
4.31066e-24
4.34478e-24
4.47118e-24
4.5637e-24
3.93831e-24
4.14168e-24
4.22163e-24
4.09933e-24
4.28779e-24
4.35238e-24
4.47208e-24
4.49469e-24
4.60434e-24
4.72051e-24
4.73946e-24
4.6762e-24
4.69047e-24
4.6824e-24
4.81089e-24
4.71774e-24
4.63091e-24
4.67583e-24
4.72033e-24
4.80507e-24
4.95842e-26
5.67272e-25
1.15408e-24
1.55141e-24
1.82039e-24
2.06076e-24
2.24548e-24
2.76328e-24
2.96872e-24
3.15056e-24
3.50124e-24
3.75642e-24
4.12266e-24
4.10799e-24
4.10379e-24
4.19805e-24
3.94987e-24
4.03963e-24
4.17372e-24
3.93831e-24
)
;
    }
    frontAndBack
    {
        type            empty;
    }
}


// ************************************************************************* //
