/*--------------------------------*- C++ -*----------------------------------*\
| =========                 |                                                 |
| \\      /  F ield         | OpenFOAM: The Open Source CFD Toolbox           |
|  \\    /   O peration     | Version:  2506                                  |
|   \\  /    A nd           | Website:  www.openfoam.com                      |
|    \\/     M anipulation  |                                                 |
\*---------------------------------------------------------------------------*/
FoamFile
{
    version     2.0;
    format      ascii;
    arch        "LSB;label=32;scalar=64";
    class       volScalarField;
    location    "9";
    object      dUdt2;
}
// * * * * * * * * * * * * * * * * * * * * * * * * * * * * * * * * * * * * * //

dimensions      [0 2 -4 0 0 0 0];

internalField   nonuniform List<scalar> 
400
(
8.88542e-26
1.23747e-26
5.10847e-28
4.43816e-27
4.74133e-27
5.46631e-28
5.0115e-28
4.97484e-28
1.27819e-29
2.01445e-28
7.35037e-28
1.98148e-27
2.78931e-27
5.93362e-28
2.20852e-27
7.94332e-27
5.5539e-28
6.24508e-30
1.89179e-28
5.97964e-28
6.36842e-26
7.20867e-27
7.94635e-27
2.12193e-27
2.57727e-27
2.09763e-27
6.59465e-29
1.2173e-29
1.61776e-28
2.28887e-31
5.48071e-29
1.97318e-27
9.82678e-28
4.48127e-28
6.19183e-28
4.94437e-28
8.36088e-29
6.23955e-28
1.97299e-27
1.82373e-28
3.13608e-27
1.93294e-26
3.13692e-27
2.95115e-28
7.91891e-27
2.06878e-27
2.22471e-27
2.10427e-27
2.2372e-27
1.99018e-27
8.81241e-28
5.26494e-28
2.03609e-27
1.67677e-29
1.27526e-28
1.85324e-29
2.26885e-28
2.06835e-27
3.84752e-28
1.15075e-29
2.33299e-26
2.11381e-27
2.8043e-27
1.3986e-27
1.10553e-28
8.38217e-29
1.99671e-27
4.44245e-27
6.76341e-28
8.87996e-27
4.93058e-28
8.81852e-28
9.02538e-28
2.10664e-28
7.557e-28
1.07548e-27
9.56034e-29
2.84661e-27
1.9907e-27
4.96703e-28
1.12764e-26
2.85514e-27
2.13507e-27
1.77854e-27
3.96194e-28
2.36939e-27
1.98716e-27
2.01594e-27
5.53355e-32
1.28764e-28
2.13449e-27
7.8896e-27
3.97665e-28
2.11677e-27
2.00186e-27
4.94917e-28
5.36777e-28
3.22806e-28
1.54856e-28
8.39625e-29
1.1981e-26
7.99768e-27
2.84696e-27
6.10049e-27
8.31385e-28
8.71918e-28
2.76251e-27
2.41104e-27
5.71305e-28
1.62248e-27
6.46733e-28
2.45676e-28
3.92623e-29
2.43501e-27
1.11702e-27
6.15303e-28
6.75149e-28
3.40486e-29
5.05791e-28
3.02629e-29
2.01777e-27
3.56916e-27
3.2004e-27
2.29518e-27
8.15081e-27
2.64712e-27
3.7314e-27
1.3928e-26
4.92551e-27
7.31824e-28
3.32809e-27
2.44013e-27
2.00176e-27
8.23938e-27
3.41038e-28
2.35019e-27
2.12052e-27
7.81793e-29
5.57641e-29
8.3053e-30
8.11066e-27
8.70091e-28
3.44741e-28
5.69056e-28
4.77638e-27
2.48385e-27
2.05757e-27
8.43379e-29
2.24114e-27
1.73736e-28
2.05762e-27
8.48099e-29
2.90695e-29
2.07027e-27
1.92655e-28
2.00536e-27
8.62061e-30
1.99038e-27
5.68866e-29
1.43755e-29
9.69621e-27
2.41357e-28
2.20912e-27
5.43823e-27
1.25579e-27
6.32177e-28
4.96501e-30
1.40502e-30
5.4762e-28
4.98639e-28
5.25531e-28
5.37755e-29
6.56413e-28
6.25909e-28
7.52569e-29
6.54265e-28
2.1413e-27
4.94526e-28
2.09138e-27
8.75132e-29
4.44575e-27
2.67039e-27
2.3066e-27
2.86686e-27
2.21176e-27
2.45154e-27
2.74274e-27
2.13282e-27
1.72809e-29
4.94239e-28
1.76072e-28
6.12809e-28
2.1188e-27
5.52432e-28
4.93051e-28
6.85479e-30
6.30903e-28
2.00804e-27
2.59142e-31
4.99619e-28
3.59162e-26
5.63594e-27
1.21115e-27
1.03791e-27
7.30744e-33
2.60582e-28
5.13587e-27
2.02524e-27
5.86691e-28
2.27806e-28
5.19337e-28
2.97672e-28
2.28363e-28
2.01677e-27
1.98884e-27
1.06781e-28
4.98084e-28
3.31513e-29
6.91193e-29
3.15534e-29
2.35613e-26
1.97344e-27
8.1757e-27
2.23209e-27
1.97585e-27
5.17523e-28
2.88394e-27
2.4243e-27
5.0858e-28
1.15249e-28
8.0436e-27
4.5399e-27
5.57379e-28
1.1836e-30
4.69691e-29
3.16137e-28
1.97565e-27
3.44427e-29
1.60924e-29
4.95319e-28
2.93817e-27
6.20322e-28
2.14621e-27
5.8099e-32
2.14934e-27
1.99585e-27
6.30472e-31
2.00348e-27
2.01442e-27
2.30627e-27
9.84148e-29
2.49786e-29
2.10853e-27
4.22438e-29
1.351e-29
3.52385e-29
1.97598e-27
5.37301e-30
6.99698e-29
1.8972e-31
6.07402e-27
1.3448e-27
2.2112e-27
8.94462e-28
6.13115e-28
3.43717e-30
5.11995e-28
5.09132e-28
4.93811e-28
4.48675e-27
1.98019e-27
1.9765e-27
4.70771e-27
5.05093e-27
2.01602e-27
1.8558e-29
2.30536e-30
5.39088e-29
6.2246e-29
5.25336e-28
1.19175e-26
5.07809e-28
2.13174e-27
1.01917e-27
9.75953e-28
6.67782e-28
2.01133e-27
9.94022e-29
5.35942e-29
7.8889e-27
1.096e-32
1.9749e-27
2.01635e-27
1.13272e-30
4.08287e-29
2.95955e-28
2.01666e-27
1.22589e-28
5.42646e-28
1.91739e-29
7.29991e-27
2.57054e-27
9.98512e-29
4.68248e-28
1.76131e-28
2.15926e-27
7.95346e-27
4.53093e-27
2.04213e-27
7.49371e-28
2.12978e-27
7.91498e-27
7.94645e-27
2.00082e-27
2.16705e-28
2.69564e-28
2.01221e-27
2.10573e-30
1.98181e-27
7.39585e-29
2.94832e-27
7.20911e-28
3.88833e-29
2.0394e-27
2.14119e-27
2.33361e-27
2.05181e-27
3.32115e-27
1.89873e-27
3.05579e-27
7.72082e-28
2.11066e-27
7.39603e-28
2.23302e-27
1.33884e-27
5.83083e-28
4.44364e-27
4.44576e-27
9.91754e-28
1.85306e-30
6.2525e-27
5.82224e-28
9.47812e-29
2.16987e-27
7.39964e-30
4.09032e-28
2.11473e-27
1.97466e-27
2.06574e-27
9.86765e-29
4.43749e-27
4.73802e-27
4.75668e-27
1.97424e-27
3.40031e-29
5.07582e-28
5.55798e-28
2.07309e-27
4.18586e-28
1.97433e-27
4.34917e-29
1.36486e-28
1.97639e-27
1.56565e-30
1.97948e-27
7.91371e-27
3.51473e-29
1.97468e-27
9.37594e-29
1.99132e-27
1.9789e-27
2.04806e-27
1.97592e-27
1.97625e-27
3.22418e-28
3.08972e-29
1.71569e-28
1.40298e-29
2.10354e-27
5.02999e-28
2.18182e-27
1.17992e-27
2.93629e-28
2.29632e-27
4.93599e-28
1.66372e-29
2.0122e-27
4.94635e-28
4.23888e-29
4.94894e-28
7.52528e-28
5.88395e-28
8.81879e-30
5.98343e-28
4.9399e-28
2.37991e-29
7.01869e-28
5.32617e-28
5.58176e-28
5.17298e-28
)
;

boundaryField
{
    movingWall
    {
        type            calculated;
        value           uniform 0;
    }
    fixedWalls
    {
        type            calculated;
        value           uniform 0;
    }
    frontAndBack
    {
        type            empty;
    }
}


// ************************************************************************* //
