/*--------------------------------*- C++ -*----------------------------------*\
| =========                 |                                                 |
| \\      /  F ield         | OpenFOAM: The Open Source CFD Toolbox           |
|  \\    /   O peration     | Version:  2506                                  |
|   \\  /    A nd           | Website:  www.openfoam.com                      |
|    \\/     M anipulation  |                                                 |
\*---------------------------------------------------------------------------*/
FoamFile
{
    version     2.0;
    format      ascii;
    arch        "LSB;label=32;scalar=64";
    class       volScalarField;
    location    "9";
    object      enstrophyField;
}
// * * * * * * * * * * * * * * * * * * * * * * * * * * * * * * * * * * * * * //

dimensions      [0 0 -2 0 0 0 0];

internalField   nonuniform List<scalar> 
400
(
5.99877e-23
1.00541e-22
4.65156e-24
2.49536e-25
3.09809e-27
3.81629e-27
3.33284e-29
1.57745e-27
1.08531e-29
2.67085e-27
2.3759e-27
7.13092e-28
2.01543e-28
3.00295e-28
5.62989e-29
2.55754e-28
4.73644e-29
1.9183e-28
1.90313e-27
9.90121e-29
7.89205e-27
2.48494e-25
3.27142e-26
3.95532e-28
1.13029e-26
6.56651e-27
3.55753e-27
4.13881e-28
1.09891e-27
6.28918e-29
4.85217e-28
1.56622e-30
1.13839e-28
1.41025e-28
6.21964e-28
4.04373e-27
4.54709e-27
3.27382e-29
3.01308e-31
1.10519e-27
1.99611e-23
6.35246e-23
3.80195e-24
1.1785e-25
2.26919e-26
5.78268e-29
3.20514e-27
5.41702e-27
3.38699e-27
8.73894e-27
5.41641e-27
1.62041e-27
3.15668e-29
1.70793e-29
2.20422e-28
1.84771e-29
1.73791e-28
2.55583e-29
5.11279e-27
2.26366e-28
8.71125e-24
3.1922e-23
1.66062e-24
1.37868e-25
1.75179e-27
1.50313e-28
2.17293e-28
4.25946e-28
1.32251e-27
2.4194e-27
1.02501e-28
1.19901e-27
1.95744e-27
2.60156e-29
3.68191e-29
4.37619e-27
9.25715e-28
5.16999e-30
7.6733e-28
6.45252e-28
1.25317e-25
1.49894e-26
2.48448e-28
2.91716e-28
9.85225e-28
4.30718e-31
4.86936e-28
3.41797e-30
2.09531e-27
1.49998e-27
1.34706e-27
2.77286e-27
2.00493e-28
6.63507e-30
4.83385e-29
3.35771e-28
3.7847e-28
3.45392e-30
1.50583e-27
2.88092e-30
1.05426e-23
3.30355e-23
1.66087e-24
1.03871e-25
4.50597e-27
4.19921e-28
9.6666e-29
1.62582e-27
1.02984e-26
1.46035e-26
2.46605e-27
2.17142e-27
1.45364e-29
7.28526e-29
3.02746e-28
2.88339e-27
5.03026e-28
3.96967e-29
1.58733e-29
1.53798e-32
1.58768e-23
5.85541e-23
3.08519e-24
1.6944e-25
3.3351e-26
7.461e-28
1.45591e-26
8.72488e-27
5.85841e-27
1.5573e-27
1.37798e-28
5.20074e-28
3.88075e-27
4.61362e-27
4.7226e-27
4.69576e-27
3.16506e-27
1.71095e-28
4.30688e-29
4.30028e-29
3.24609e-24
7.17314e-24
4.66712e-25
1.44647e-26
7.22767e-27
1.17294e-27
4.61e-27
9.20394e-28
1.23004e-27
6.67031e-29
2.26081e-27
2.68727e-27
4.20056e-27
4.61866e-27
8.34856e-28
6.29541e-27
2.28418e-28
1.17595e-28
1.17393e-28
2.69779e-28
4.69776e-24
1.58683e-23
8.23725e-25
5.58623e-26
4.96114e-27
8.2647e-28
2.06775e-27
2.16697e-27
1.11172e-26
1.62012e-27
1.3888e-27
2.01389e-27
2.20924e-27
1.9017e-27
6.56483e-27
5.49359e-28
3.49477e-27
5.2813e-29
2.85698e-27
9.23675e-32
3.59195e-23
5.92908e-23
3.40235e-24
1.43092e-25
1.81897e-26
6.80285e-28
4.36704e-29
2.58409e-29
7.90164e-29
9.851e-29
1.70785e-27
7.26492e-31
7.03089e-28
1.5758e-29
1.56199e-30
3.64776e-28
3.1845e-28
5.90148e-28
1.10917e-27
3.59558e-28
5.91757e-23
7.17329e-23
3.44599e-24
2.30467e-25
9.81534e-27
2.96419e-27
2.74817e-27
1.19244e-27
1.61867e-27
2.52254e-27
4.17378e-27
3.53987e-29
1.04942e-28
6.16072e-29
3.11219e-29
3.63363e-28
8.39881e-29
1.8333e-28
5.78237e-28
3.13979e-28
2.9523e-23
3.31938e-23
1.87358e-24
6.94099e-26
1.25574e-26
2.98705e-27
4.80727e-27
1.11331e-26
9.73679e-27
2.68006e-27
5.18094e-27
1.41066e-27
1.81244e-27
1.7703e-27
1.84025e-27
1.93153e-27
5.27228e-32
1.08647e-28
5.80131e-29
1.09285e-30
3.04934e-25
4.2601e-26
1.04167e-26
9.62983e-27
2.91561e-27
3.01267e-27
7.00844e-28
4.36834e-27
4.0418e-27
6.67842e-27
3.44782e-27
5.94249e-29
2.18297e-27
2.21971e-29
2.22605e-27
9.51297e-29
9.34723e-32
1.65648e-29
1.29523e-29
4.80103e-30
2.85843e-23
4.17682e-23
2.45909e-24
8.90876e-26
1.35603e-26
5.58082e-27
2.46595e-27
1.59989e-27
1.0276e-27
1.28295e-27
1.93226e-27
1.04661e-27
7.98163e-29
1.50396e-29
1.6942e-28
2.14793e-27
1.75739e-27
1.21385e-27
1.68448e-28
7.47415e-31
4.80478e-23
9.31865e-23
5.43074e-24
2.37537e-25
4.04309e-26
9.4406e-29
2.41788e-29
8.84172e-29
1.26481e-27
1.9023e-27
5.80337e-28
3.16024e-28
1.48935e-29
4.36732e-27
7.63603e-28
2.06754e-28
8.08629e-30
1.61992e-30
8.51334e-30
2.16618e-28
2.21474e-23
3.59691e-23
1.78361e-24
1.13248e-25
5.62086e-27
1.64106e-29
2.38285e-27
1.12115e-27
2.92236e-27
6.31047e-27
3.41434e-27
2.97319e-27
1.26879e-27
7.2414e-28
1.05179e-27
6.88575e-27
5.42838e-27
7.08859e-28
1.06804e-28
3.10953e-28
1.56954e-26
4.4047e-24
2.36671e-25
1.48713e-26
8.93557e-27
1.40237e-27
2.95006e-27
1.11536e-26
1.85916e-27
4.97052e-28
2.27129e-27
4.99603e-27
2.48484e-27
9.26451e-27
1.32403e-26
4.3197e-28
1.28389e-28
8.62656e-30
7.83222e-28
1.60871e-29
1.09588e-23
5.58723e-23
2.86206e-24
1.65415e-25
1.80185e-26
4.73415e-27
4.34859e-27
3.64846e-28
4.00327e-27
3.92418e-27
1.48461e-27
9.39997e-28
1.1235e-27
1.54944e-27
1.37962e-27
3.55227e-28
1.87553e-27
4.42199e-27
7.26413e-31
5.56933e-29
4.847e-24
9.01198e-24
6.28022e-25
1.2146e-26
1.07658e-26
1.00771e-27
7.50825e-27
1.1262e-26
7.14107e-27
3.06514e-27
1.93331e-28
6.10869e-28
2.16079e-27
8.00041e-29
3.83001e-27
1.54546e-30
5.81794e-30
2.75527e-27
5.84379e-28
9.85124e-28
1.27656e-23
3.03728e-23
1.26924e-24
1.11231e-25
4.67535e-28
1.09699e-28
1.57356e-28
1.13404e-27
2.56877e-28
5.69577e-28
5.50215e-28
2.08901e-31
1.67327e-27
1.74171e-29
1.57697e-27
4.76534e-28
5.28458e-30
3.24428e-29
3.90494e-28
1.00518e-28
)
;

boundaryField
{
    movingWall
    {
        type            calculated;
        value           nonuniform List<scalar> 
20
(
8.0788e-23
5.10081e-23
1.10921e-24
2.22176e-25
2.55546e-26
3.95552e-26
2.26163e-26
2.32113e-26
3.43258e-26
9.78224e-27
9.70147e-27
8.96101e-27
8.31088e-28
3.43751e-27
9.0139e-28
4.28595e-27
4.23834e-27
3.26131e-27
4.01936e-27
1.00518e-28
)
;
    }
    fixedWalls
    {
        type            calculated;
        value           nonuniform List<scalar> 
60
(
1.7868e-21
6.68339e-24
1.18115e-21
5.7686e-22
4.50074e-27
5.87367e-22
1.04429e-21
1.4241e-22
2.81241e-22
1.11547e-21
1.30498e-21
6.10764e-22
2.60429e-25
7.77513e-22
1.72288e-21
6.55553e-22
7.77113e-23
1.02013e-21
1.74516e-22
5.35379e-22
2.42958e-28
1.04764e-27
1.29579e-27
2.96105e-29
3.70423e-29
2.49299e-30
8.13853e-29
4.28306e-28
4.67659e-29
3.44122e-28
4.06325e-28
2.21471e-31
2.76446e-30
3.88809e-30
3.41852e-29
3.27596e-28
3.04598e-32
7.25858e-30
1.20917e-27
6.55079e-29
1.60331e-22
1.34852e-22
4.20376e-24
5.00008e-25
1.13751e-26
3.25633e-26
1.43603e-26
8.6157e-27
7.90029e-28
3.25943e-28
4.40622e-28
2.6189e-27
1.02965e-26
1.17242e-26
3.05814e-27
1.00733e-29
3.65493e-28
3.08058e-28
6.81699e-28
1.71002e-27
)
;
    }
    frontAndBack
    {
        type            empty;
    }
}


// ************************************************************************* //
