/*--------------------------------*- C++ -*----------------------------------*\
| =========                 |                                                 |
| \\      /  F ield         | OpenFOAM: The Open Source CFD Toolbox           |
|  \\    /   O peration     | Version:  2506                                  |
|   \\  /    A nd           | Website:  www.openfoam.com                      |
|    \\/     M anipulation  |                                                 |
\*---------------------------------------------------------------------------*/
FoamFile
{
    version     2.0;
    format      ascii;
    arch        "LSB;label=32;scalar=64";
    class       volScalarField;
    location    "9";
    object      epsilonzeroGrad;
}
// * * * * * * * * * * * * * * * * * * * * * * * * * * * * * * * * * * * * * //

dimensions      [0 2 -3 0 0 0 0];

internalField   nonuniform List<scalar> 
400
(
8.61278e-07
8.61277e-07
8.61277e-07
8.61277e-07
8.61276e-07
8.61276e-07
8.61276e-07
8.61276e-07
8.61275e-07
8.61275e-07
8.61275e-07
8.61275e-07
8.61275e-07
8.61275e-07
8.61275e-07
8.61275e-07
8.61275e-07
8.61275e-07
8.61275e-07
8.61275e-07
8.80889e-07
8.71651e-07
8.72438e-07
8.72765e-07
8.73415e-07
8.73749e-07
8.74402e-07
8.74744e-07
8.75396e-07
8.75748e-07
8.764e-07
8.76762e-07
8.77414e-07
8.77785e-07
8.78437e-07
8.78817e-07
8.79471e-07
8.7986e-07
8.80188e-07
8.80711e-07
9.12694e-07
9.02841e-07
9.03694e-07
9.04048e-07
9.0475e-07
9.05108e-07
9.05811e-07
9.06176e-07
9.06878e-07
9.0725e-07
9.07949e-07
9.0833e-07
9.09027e-07
9.09415e-07
9.10111e-07
9.10506e-07
9.11201e-07
9.11603e-07
9.11951e-07
9.125e-07
9.47305e-07
9.36953e-07
9.37849e-07
9.38221e-07
9.38958e-07
9.39335e-07
9.40073e-07
9.40456e-07
9.41194e-07
9.41584e-07
9.42319e-07
9.42719e-07
9.43451e-07
9.43859e-07
9.4459e-07
9.45005e-07
9.45735e-07
9.46157e-07
9.46523e-07
9.471e-07
9.7756e-07
9.6676e-07
9.67695e-07
9.68083e-07
9.68851e-07
9.69244e-07
9.70015e-07
9.70414e-07
9.71183e-07
9.7159e-07
9.72357e-07
9.72774e-07
9.73537e-07
9.73963e-07
9.74725e-07
9.75158e-07
9.7592e-07
9.7636e-07
9.76741e-07
9.77343e-07
1.00044e-06
9.89302e-07
9.90265e-07
9.90666e-07
9.91459e-07
9.91864e-07
9.92658e-07
9.9307e-07
9.93863e-07
9.94284e-07
9.95075e-07
9.95505e-07
9.96293e-07
9.96732e-07
9.97518e-07
9.97965e-07
9.9875e-07
9.99205e-07
9.99598e-07
1.00022e-06
1.01617e-06
1.00479e-06
1.00578e-06
1.00619e-06
1.007e-06
1.00741e-06
1.00822e-06
1.00864e-06
1.00945e-06
1.00988e-06
1.01069e-06
1.01113e-06
1.01193e-06
1.01238e-06
1.01318e-06
1.01364e-06
1.01444e-06
1.01491e-06
1.01531e-06
1.01594e-06
1.02645e-06
1.01491e-06
1.01591e-06
1.01632e-06
1.01714e-06
1.01756e-06
1.01838e-06
1.01881e-06
1.01963e-06
1.02007e-06
1.02089e-06
1.02133e-06
1.02215e-06
1.0226e-06
1.02342e-06
1.02388e-06
1.02469e-06
1.02516e-06
1.02557e-06
1.02621e-06
1.03315e-06
1.02151e-06
1.02252e-06
1.02294e-06
1.02377e-06
1.02419e-06
1.02502e-06
1.02545e-06
1.02628e-06
1.02672e-06
1.02754e-06
1.02799e-06
1.02881e-06
1.02927e-06
1.03009e-06
1.03056e-06
1.03138e-06
1.03186e-06
1.03227e-06
1.03292e-06
1.0378e-06
1.02609e-06
1.0271e-06
1.02752e-06
1.02836e-06
1.02878e-06
1.02962e-06
1.03005e-06
1.03088e-06
1.03132e-06
1.03215e-06
1.03261e-06
1.03343e-06
1.0339e-06
1.03472e-06
1.03519e-06
1.03602e-06
1.03649e-06
1.03691e-06
1.03756e-06
1.04141e-06
1.02964e-06
1.03066e-06
1.03108e-06
1.03192e-06
1.03234e-06
1.03318e-06
1.03362e-06
1.03445e-06
1.0349e-06
1.03573e-06
1.03619e-06
1.03702e-06
1.03748e-06
1.03831e-06
1.03878e-06
1.03961e-06
1.04009e-06
1.04051e-06
1.04116e-06
1.0446e-06
1.03278e-06
1.0338e-06
1.03423e-06
1.03507e-06
1.0355e-06
1.03634e-06
1.03678e-06
1.03762e-06
1.03806e-06
1.0389e-06
1.03936e-06
1.04019e-06
1.04066e-06
1.04149e-06
1.04197e-06
1.0428e-06
1.04328e-06
1.0437e-06
1.04436e-06
1.04775e-06
1.03588e-06
1.03691e-06
1.03733e-06
1.03818e-06
1.03861e-06
1.03945e-06
1.03989e-06
1.04074e-06
1.04118e-06
1.04202e-06
1.04248e-06
1.04332e-06
1.04379e-06
1.04463e-06
1.0451e-06
1.04594e-06
1.04642e-06
1.04684e-06
1.0475e-06
1.05105e-06
1.03913e-06
1.04016e-06
1.04059e-06
1.04144e-06
1.04187e-06
1.04272e-06
1.04316e-06
1.04401e-06
1.04446e-06
1.0453e-06
1.04576e-06
1.0466e-06
1.04707e-06
1.04791e-06
1.04839e-06
1.04923e-06
1.04972e-06
1.05014e-06
1.0508e-06
1.05459e-06
1.04262e-06
1.04365e-06
1.04408e-06
1.04493e-06
1.04537e-06
1.04622e-06
1.04666e-06
1.04751e-06
1.04797e-06
1.04881e-06
1.04928e-06
1.05012e-06
1.05059e-06
1.05144e-06
1.05192e-06
1.05276e-06
1.05325e-06
1.05367e-06
1.05434e-06
1.05832e-06
1.0463e-06
1.04734e-06
1.04777e-06
1.04862e-06
1.04906e-06
1.04992e-06
1.05036e-06
1.05122e-06
1.05167e-06
1.05252e-06
1.05299e-06
1.05384e-06
1.05431e-06
1.05516e-06
1.05564e-06
1.05649e-06
1.05698e-06
1.0574e-06
1.05807e-06
1.06207e-06
1.04999e-06
1.05103e-06
1.05147e-06
1.05233e-06
1.05277e-06
1.05363e-06
1.05407e-06
1.05493e-06
1.05539e-06
1.05624e-06
1.05671e-06
1.05756e-06
1.05804e-06
1.05889e-06
1.05938e-06
1.06023e-06
1.06072e-06
1.06115e-06
1.06182e-06
1.0655e-06
1.05337e-06
1.05442e-06
1.05485e-06
1.05572e-06
1.05616e-06
1.05702e-06
1.05747e-06
1.05833e-06
1.05879e-06
1.05965e-06
1.06012e-06
1.06097e-06
1.06145e-06
1.06231e-06
1.06279e-06
1.06365e-06
1.06414e-06
1.06457e-06
1.06525e-06
1.06816e-06
1.05622e-06
1.05723e-06
1.05765e-06
1.05849e-06
1.05892e-06
1.05976e-06
1.0602e-06
1.06105e-06
1.0615e-06
1.06234e-06
1.06281e-06
1.06365e-06
1.06413e-06
1.06497e-06
1.06546e-06
1.06631e-06
1.06681e-06
1.06723e-06
1.06791e-06
1.06938e-06
1.06938e-06
1.06938e-06
1.06938e-06
1.06938e-06
1.06938e-06
1.06938e-06
1.06938e-06
1.06938e-06
1.06938e-06
1.06938e-06
1.06938e-06
1.06938e-06
1.06938e-06
1.06938e-06
1.06938e-06
1.06938e-06
1.06938e-06
1.06938e-06
1.06938e-06
)
;

boundaryField
{
    movingWall
    {
        type            zeroGradient;
    }
    fixedWalls
    {
        type            zeroGradient;
    }
    frontAndBack
    {
        type            empty;
    }
}


// ************************************************************************* //
