/*--------------------------------*- C++ -*----------------------------------*\
| =========                 |                                                 |
| \\      /  F ield         | OpenFOAM: The Open Source CFD Toolbox           |
|  \\    /   O peration     | Version:  2506                                  |
|   \\  /    A nd           | Website:  www.openfoam.com                      |
|    \\/     M anipulation  |                                                 |
\*---------------------------------------------------------------------------*/
FoamFile
{
    version     2.0;
    format      ascii;
    arch        "LSB;label=32;scalar=64";
    class       volScalarField;
    location    "9";
    object      flowTypeField;
}
// * * * * * * * * * * * * * * * * * * * * * * * * * * * * * * * * * * * * * //

dimensions      [0 0 0 0 0 0 0];

internalField   nonuniform List<scalar> 
400
(
0.415024
0.0474319
0.0506505
0.0602199
0.518003
-0.0409445
0.68301
0.0268439
0.804668
-0.257453
-0.00311867
0.580455
0.629112
0.328924
0.563337
0.606476
0.714465
0.000516542
-0.0980091
0.487882
0.993734
0.860609
0.791581
0.879527
0.130309
-0.0506986
0.0174223
-0.04618
0.139005
0.735446
0.50015
0.962072
0.686498
0.0176435
-0.224292
-0.0402256
-0.0955239
0.799233
0.887634
0.363639
0.488057
0.107295
-0.00334372
0.224955
-0.601924
0.799256
0.027917
0.0774123
0.154064
-0.20528
-0.0280266
0.0615309
0.324213
0.716265
0.43518
0.043066
0.393169
0.816371
-0.00711558
0.579612
0.670044
0.137684
0.109167
-0.0770742
0.376963
0.043235
0.415032
0.00207709
-0.640539
-0.279382
0.524606
-0.229741
-0.116668
0.232431
0.0636977
-0.0771446
0.272715
0.827822
-0.33685
0.393015
0.962528
0.948861
0.97185
0.851547
-0.157018
0.963549
0.142245
0.904098
0.175343
0.283469
0.156872
0.154157
0.272507
0.749951
0.770257
0.31792
0.313053
0.470178
0.0937536
0.864632
0.632762
0.132306
0.119078
0.08128
0.0511954
0.288003
0.0163304
0.262217
-0.231666
-0.221204
-0.127232
-0.105528
0.860667
0.0517223
0.000630911
-0.357456
0.21448
0.627576
0.255761
0.42464
0.459745
0.0863229
0.0550396
0.0498638
-0.491652
0.456776
-0.123759
-0.0191478
0.107997
0.348926
0.798645
0.429459
0.230604
-0.152594
-0.192854
-0.0811966
0.0718041
0.631271
0.0638365
1.65687e-06
0.827923
0.360258
0.28794
0.47054
-0.138834
0.235697
-0.0975184
0.40254
-0.201979
0.746748
-0.237316
-0.266023
-0.111146
-0.179722
-0.356067
-0.0088496
0.508531
0.687233
0.451248
0.357986
0.776028
0.1993
0.210015
0.117741
-0.0922961
0.25119
-0.057874
-0.0787074
-0.097999
0.06932
0.0757524
-0.0353542
-0.223222
-0.135821
-0.0529001
-0.0495975
0.0342039
0.690321
-0.382147
0.241919
0.225958
0.050235
-0.0250741
0.0951399
-0.321807
0.38536
0.67015
0.428811
0.184335
0.0326582
-0.0586796
0.809906
-0.243243
0.492088
0.628721
0.500843
0.151602
0.0887425
0.21043
0.270975
-0.0347417
-0.00400603
-0.0380868
-0.132858
0.0338712
-0.302458
0.242737
0.215469
-0.0464659
-0.137275
-0.0597405
0.136827
0.573229
0.254682
0.420912
0.129492
0.578456
0.493302
-0.244912
0.073565
0.416212
0.0458527
-0.067537
0.201784
-0.33084
0.0535669
-0.201278
-0.0962766
-0.0255888
0.128306
0.126075
0.436695
0.044042
-0.0770242
-0.117185
-0.121013
0.974612
0.445619
0.558891
0.894048
0.941848
0.902553
0.801572
0.494811
0.401267
0.0558123
0.373572
0.0673666
0.32402
-0.0227674
-0.0201431
0.00152288
-0.0551028
0.591789
-0.0643765
0.69077
0.809589
0.0743275
0.00127793
0.0116364
0.504424
0.0820609
-0.0170672
0.184023
-0.256717
0.0533522
-0.284641
0.0676282
0.237403
-0.550491
0.025115
0.257249
0.516005
0.728745
0.412344
-0.0644622
-0.0741894
0.0920659
0.473002
0.907476
0.180101
0.0584318
-0.0483987
0.0482433
-0.44647
0.74091
0.827945
0.27177
0.219263
-0.115197
-0.248867
0.307694
0.48668
-0.0606117
-0.392114
0.361808
0.771055
0.95889
0.78252
0.410936
0.618843
0.142144
0.119658
0.0723312
0.142604
0.864655
0.146274
0.204794
0.147859
0.108396
0.272438
0.0699554
0.314202
0.344648
0.311254
0.150175
0.148979
0.470925
0.453083
0.08984
0.988776
0.478717
0.484878
0.419577
-0.634748
0.311224
-0.401059
-0.375049
-0.771809
0.172079
-0.216955
-0.148573
-0.286736
-0.252163
-0.197843
0.0138147
0.244198
0.856358
0.0529079
0.721923
0.52846
0.117186
0.0650528
0.0930128
-0.388945
0.210552
-0.05116
0.0111789
-0.00386738
0.264959
0.323735
0.321628
0.213813
0.0780213
0.325244
0.423129
0.247464
0.0534795
0.953992
0.104338
0.81476
0.369595
0.298145
0.518866
-0.244844
0.225619
-0.091827
-0.0831652
-0.0632845
0.0447423
0.293319
-0.254106
-0.0658783
0.0094824
-0.0171313
0.252296
0.000659477
0.0632322
0.206936
-0.0519101
0.610163
0.107057
0.16877
-0.0138721
0.645861
0.185311
0.490489
0.213619
0.591551
0.263746
-0.038523
0.877213
-0.0563004
0.26265
-0.0354535
-0.132035
0.363811
0.030377
0.33478
0.487992
)
;

boundaryField
{
    movingWall
    {
        type            calculated;
        value           nonuniform List<scalar> 
20
(
0.586134
0.099554
0.384432
-0.0853576
0.284818
-0.0503943
0.0492607
0.0377916
0.0428399
-0.00390531
-0.0437645
-0.00398428
0.0849297
0.0870317
0.177373
0.00597973
-0.0250528
0.101213
0.124498
0.500077
)
;
    }
    fixedWalls
    {
        type            calculated;
        value           nonuniform List<scalar> 
60
(
0.053118
0.842598
0.0869143
0.139063
0.993534
0.132863
0.0846208
0.34148
0.213143
0.0262815
-0.0178239
0.0413053
0.947777
0.0696929
0.0384448
0.141812
0.504851
0.104989
0.367259
0.120614
0.49935
0.510468
0.454502
0.848518
0.363906
0.069487
8.92738e-07
0.392733
0.721905
0.655465
0.402458
0.957692
0.0187524
0.896444
0.794834
0.0667349
0.970418
0.931106
0.123512
0.171441
0.655913
0.150551
0.307719
0.0148628
0.547183
-0.110631
0.0607653
0.0298972
0.288053
0.541356
0.682293
0.488585
0.20482
0.159684
0.256382
0.925563
0.553403
0.44015
0.311538
-0.00426203
)
;
    }
    frontAndBack
    {
        type            empty;
    }
}


// ************************************************************************* //
