/*--------------------------------*- C++ -*----------------------------------*\
| =========                 |                                                 |
| \\      /  F ield         | OpenFOAM: The Open Source CFD Toolbox           |
|  \\    /   O peration     | Version:  2506                                  |
|   \\  /    A nd           | Website:  www.openfoam.com                      |
|    \\/     M anipulation  |                                                 |
\*---------------------------------------------------------------------------*/
FoamFile
{
    version     2.0;
    format      ascii;
    arch        "LSB;label=32;scalar=64";
    class       surfaceScalarField;
    location    "9";
    object      fluxField;
}
// * * * * * * * * * * * * * * * * * * * * * * * * * * * * * * * * * * * * * //

dimensions      [0 3 -1 0 0 0 0];

oriented        oriented;

internalField   nonuniform List<scalar> 
760
(
-5e-05
4.07823e-18
-5e-05
-8.54476e-19
-5e-05
2.07819e-19
-5e-05
-4.15554e-20
-5e-05
1.11329e-20
-5e-05
2.15911e-21
-5e-05
4.38905e-21
-5e-05
4.95911e-21
-5e-05
5.29507e-21
-5e-05
4.29154e-21
-5e-05
7.21045e-21
-5e-05
8.98402e-21
-5e-05
3.5416e-21
-5e-05
-3.32151e-21
-5e-05
-6.78373e-21
-5e-05
-8.0154e-21
-5e-05
-3.50782e-21
-5e-05
-1.60291e-22
-5e-05
3.41192e-21
1.90496e-21
-5e-05
-3.00742e-18
-5e-05
6.66403e-19
-5e-05
-1.48916e-19
-5e-05
3.41951e-20
-5e-05
-6.95942e-21
-5e-05
4.97189e-21
-5e-05
5.44934e-21
-5e-05
6.04354e-21
-5e-05
6.94916e-21
-5e-05
3.96396e-21
-5e-05
-1.8006e-21
-5e-05
-7.15776e-22
-5e-05
-2.03766e-21
-5e-05
-2.50162e-21
-5e-05
-4.77511e-21
-5e-05
-6.06988e-21
-5e-05
-1.10159e-21
-5e-05
2.10307e-21
-5e-05
-8.66048e-22
-2.65448e-21
-5e-05
-9.70715e-19
-5e-05
2.11006e-19
-5e-05
-4.19523e-20
-5e-05
1.11151e-20
-5e-05
-4.4226e-21
-5e-05
-2.40722e-22
-5e-05
2.10673e-21
-5e-05
1.63658e-21
-5e-05
3.71064e-21
-5e-05
7.47052e-21
-5e-05
1.60257e-21
-5e-05
-1.80038e-21
-5e-05
-4.54307e-21
-5e-05
-1.90369e-21
-5e-05
-1.27862e-21
-5e-05
-5.5762e-21
-5e-05
-2.81863e-21
-5e-05
1.88016e-21
-5e-05
-3.80213e-21
-6.08888e-21
-5e-05
2.27452e-18
-5e-05
-4.75664e-19
-5e-05
1.23735e-19
-5e-05
-1.88539e-20
-5e-05
5.27355e-21
-5e-05
-1.60105e-21
-5e-05
7.06877e-22
-5e-05
-1.06193e-21
-5e-05
1.88105e-21
-5e-05
7.65047e-21
-5e-05
5.85934e-21
-5e-05
3.49468e-21
-5e-05
-1.31817e-21
-5e-05
-3.60122e-21
-5e-05
-4.25556e-22
-5e-05
-3.28842e-21
-5e-05
-3.18758e-21
-5e-05
-5.94832e-22
-5e-05
-1.72662e-21
-3.44511e-21
-5e-05
-2.34459e-18
-5e-05
5.35735e-19
-5e-05
-1.13347e-19
-5e-05
3.3863e-20
-5e-05
-1.38123e-22
-5e-05
5.809e-21
-5e-05
6.87485e-21
-5e-05
8.25963e-21
-5e-05
6.82525e-21
-5e-05
2.11698e-21
-5e-05
-1.87815e-21
-5e-05
-2.46403e-21
-5e-05
-6.51209e-21
-5e-05
-8.81817e-21
-5e-05
-4.40508e-21
-5e-05
-2.08377e-22
-5e-05
1.32496e-21
-5e-05
8.4307e-22
-5e-05
-2.45548e-22
-3.98394e-22
-5e-05
8.03945e-19
-5e-05
-1.84011e-19
-5e-05
4.25431e-20
-5e-05
-1.18707e-20
-5e-05
4.18007e-21
-5e-05
1.85825e-21
-5e-05
7.5298e-21
-5e-05
1.41132e-20
-5e-05
1.27459e-20
-5e-05
5.29538e-21
-5e-05
-2.4746e-21
-5e-05
-8.11157e-21
-5e-05
-1.08868e-20
-5e-05
-7.76351e-21
-5e-05
-4.1833e-21
-5e-05
2.356e-21
-5e-05
5.14767e-21
-5e-05
3.07103e-21
-5e-05
-1.7045e-21
-6.57827e-22
-5e-05
1.99295e-18
-5e-05
-4.55466e-19
-5e-05
9.8922e-20
-5e-05
-2.85607e-20
-5e-05
2.68642e-21
-5e-05
-8.27691e-22
-5e-05
2.35113e-22
-5e-05
4.27478e-21
-5e-05
8.98088e-21
-5e-05
9.85432e-21
-5e-05
5.49176e-21
-5e-05
-2.80615e-21
-5e-05
-4.77322e-21
-5e-05
-3.69573e-21
-5e-05
-4.78635e-21
-5e-05
-3.16717e-21
-5e-05
-1.83483e-21
-5e-05
-2.17262e-21
-5e-05
-2.62544e-21
-6.62205e-22
-5e-05
-2.71327e-18
-5e-05
6.05239e-19
-5e-05
-1.41131e-19
-5e-05
3.60451e-20
-5e-05
-1.49378e-21
-5e-05
8.18985e-21
-5e-05
3.33863e-21
-5e-05
1.98901e-21
-5e-05
3.2594e-21
-5e-05
4.21587e-21
-5e-05
5.4687e-21
-5e-05
1.33444e-21
-5e-05
-1.62025e-21
-5e-05
-4.31658e-21
-5e-05
-7.18462e-21
-5e-05
-9.29698e-21
-5e-05
-9.64222e-21
-5e-05
-8.43621e-21
-5e-05
-1.60134e-21
7.39629e-22
-5e-05
1.40877e-18
-5e-05
-3.00074e-19
-5e-05
7.44464e-20
-5e-05
-9.46941e-21
-5e-05
1.07167e-20
-5e-05
6.53515e-21
-5e-05
9.77406e-21
-5e-05
8.45057e-21
-5e-05
5.07116e-21
-5e-05
1.91112e-21
-5e-05
8.83819e-22
-5e-05
1.22946e-21
-5e-05
-1.7312e-21
-5e-05
-4.43444e-21
-5e-05
-5.00008e-21
-5e-05
-5.5337e-21
-5e-05
-6.53425e-21
-5e-05
-6.57282e-21
-5e-05
-5.14757e-22
5.50033e-22
-5e-05
-1.20651e-19
-5e-05
9.77356e-22
-5e-05
2.3212e-21
-5e-05
3.58399e-21
-5e-05
4.42988e-21
-5e-05
2.68757e-21
-5e-05
5.79531e-21
-5e-05
5.33297e-21
-5e-05
2.65434e-21
-5e-05
2.86207e-21
-5e-05
3.3499e-21
-5e-05
4.31607e-21
-5e-05
9.45019e-22
-5e-05
-1.43685e-21
-5e-05
-3.23351e-21
-5e-05
-2.96734e-21
-5e-05
-3.22041e-21
-5e-05
-1.94251e-22
-5e-05
5.81354e-22
-1.42039e-22
-5e-05
-1.0052e-18
-5e-05
2.20052e-19
-5e-05
-4.77337e-20
-5e-05
1.37948e-20
-5e-05
-5.03104e-21
-5e-05
-1.94227e-21
-5e-05
-3.4029e-22
-5e-05
4.47907e-22
-5e-05
1.73932e-21
-5e-05
2.1254e-21
-5e-05
3.91839e-21
-5e-05
2.98114e-21
-5e-05
1.54135e-21
-5e-05
1.32595e-21
-5e-05
8.95259e-23
-5e-05
9.67824e-22
-5e-05
2.11218e-21
-5e-05
4.28915e-21
-5e-05
1.01031e-21
-1.29219e-22
-5e-05
2.12108e-18
-5e-05
-4.38493e-19
-5e-05
1.06012e-19
-5e-05
-2.45197e-20
-5e-05
-1.50065e-21
-5e-05
-3.99119e-21
-5e-05
-1.58337e-21
-5e-05
-2.39007e-21
-5e-05
-1.19881e-21
-5e-05
-3.53288e-21
-5e-05
-5.01227e-21
-5e-05
-5.6208e-21
-5e-05
-2.56033e-21
-5e-05
-1.15527e-21
-5e-05
4.2862e-22
-5e-05
3.58747e-21
-5e-05
5.86284e-21
-5e-05
3.77674e-21
-5e-05
1.33284e-21
-1.88556e-22
-5e-05
-2.48049e-18
-5e-05
5.41533e-19
-5e-05
-1.26208e-19
-5e-05
2.55635e-20
-5e-05
-7.94165e-21
-5e-05
-8.16511e-22
-5e-05
-6.32574e-21
-5e-05
-7.40439e-21
-5e-05
-9.95361e-21
-5e-05
-7.33386e-21
-5e-05
-5.85411e-21
-5e-05
-5.77626e-21
-5e-05
-5.24324e-21
-5e-05
-5.9686e-21
-5e-05
-2.2064e-21
-5e-05
1.76179e-21
-5e-05
4.07514e-21
-5e-05
3.13875e-21
-5e-05
1.40158e-21
-3.21246e-22
-5e-05
1.32107e-18
-5e-05
-2.93043e-19
-5e-05
6.43114e-20
-5e-05
-1.67713e-20
-5e-05
4.30065e-21
-5e-05
-4.0403e-22
-5e-05
-5.12376e-21
-5e-05
-6.14688e-21
-5e-05
-9.03734e-21
-5e-05
-4.90663e-21
-5e-05
-1.28211e-21
-5e-05
-1.17692e-21
-5e-05
-3.88782e-21
-5e-05
-5.7e-21
-5e-05
5.19332e-22
-5e-05
1.8955e-21
-5e-05
1.65996e-21
-5e-05
2.15899e-21
-5e-05
8.75352e-22
1.00299e-21
-5e-05
1.49889e-18
-5e-05
-3.3934e-19
-5e-05
7.75865e-20
-5e-05
-1.47023e-20
-5e-05
1.06989e-20
-5e-05
2.77646e-21
-5e-05
-8.50606e-22
-5e-05
-2.66803e-21
-5e-05
-2.46081e-21
-5e-05
-2.43065e-21
-5e-05
-1.57364e-21
-5e-05
-1.01989e-21
-5e-05
-1.01418e-21
-5e-05
-1.42538e-21
-5e-05
-7.15937e-22
-5e-05
-3.12173e-21
-5e-05
-4.64143e-21
-5e-05
-3.071e-21
-5e-05
-5.20691e-23
1.083e-21
-5e-05
-3.28112e-18
-5e-05
7.061e-19
-5e-05
-1.61192e-19
-5e-05
4.15949e-20
-5e-05
-5.87422e-21
-5e-05
-4.78002e-21
-5e-05
-6.9939e-21
-5e-05
-2.83547e-21
-5e-05
4.95435e-21
-5e-05
6.84884e-21
-5e-05
5.07977e-21
-5e-05
3.22154e-21
-5e-05
1.46907e-21
-5e-05
1.09022e-22
-5e-05
-8.19401e-21
-5e-05
-1.13818e-20
-5e-05
-1.09989e-20
-5e-05
-6.31958e-21
-5e-05
9.55155e-22
-7.8845e-23
-5e-05
2.16756e-18
-5e-05
-4.58195e-19
-5e-05
1.10988e-19
-5e-05
-2.52903e-20
-5e-05
-3.24364e-21
-5e-05
-1.12524e-20
-5e-05
-5.70984e-21
-5e-05
-2.61602e-21
-5e-05
4.50107e-21
-5e-05
7.89322e-21
-5e-05
7.42611e-21
-5e-05
4.66617e-21
-5e-05
5.20257e-23
-5e-05
-1.1072e-21
-5e-05
-6.50887e-21
-5e-05
-8.32844e-21
-5e-05
-7.1935e-21
-5e-05
-2.56342e-21
-5e-05
3.80299e-21
2.5356e-22
-5e-05
1.93664e-18
-5e-05
-4.19753e-19
-5e-05
9.77715e-20
-5e-05
-2.72691e-20
-5e-05
-2.82038e-22
-5e-05
-2.94209e-21
-5e-05
-7.3166e-22
-5e-05
-3.48661e-21
-5e-05
-4.39341e-21
-5e-05
-4.21752e-21
-5e-05
-1.8197e-21
-5e-05
-2.28708e-21
-5e-05
-2.57043e-21
-5e-05
-1.10683e-21
-5e-05
9.56313e-22
-5e-05
2.43437e-23
-5e-05
1.28316e-21
-5e-05
9.30507e-22
-5e-05
-5.40768e-22
-1.14134e-21
-5e-05
-3.36357e-18
-5e-05
7.18896e-19
-5e-05
-1.77538e-19
-5e-05
3.36212e-20
-5e-05
-7.106e-21
-5e-05
2.84491e-21
-5e-05
-1.07384e-21
-5e-05
-3.02671e-21
-5e-05
-6.35895e-21
-5e-05
-6.90837e-21
-5e-05
-3.94263e-21
-5e-05
-3.53112e-21
-5e-05
-1.81895e-21
-5e-05
-1.55874e-21
-5e-05
-1.32109e-22
-5e-05
-4.94595e-22
-5e-05
1.2491e-21
-5e-05
-5.34624e-22
-5e-05
-5.77042e-21
-2.09486e-21
-5e-05
-5e-05
-5e-05
-5e-05
-5e-05
-5e-05
-5e-05
-5e-05
-5e-05
-5e-05
-5e-05
-5e-05
-5e-05
-5e-05
-5e-05
-5e-05
-5e-05
-5e-05
-5e-05
)
;

boundaryField
{
    movingWall
    {
        type            calculated;
        value           uniform -0;
    }
    fixedWalls
    {
        type            calculated;
        value           nonuniform List<scalar> 
60
(
5e-05
5e-05
5e-05
5e-05
5e-05
5e-05
5e-05
5e-05
5e-05
5e-05
5e-05
5e-05
5e-05
5e-05
5e-05
5e-05
5e-05
5e-05
5e-05
5e-05
-5e-05
-5e-05
-5e-05
-5e-05
-5e-05
-5e-05
-5e-05
-5e-05
-5e-05
-5e-05
-5e-05
-5e-05
-5e-05
-5e-05
-5e-05
-5e-05
-5e-05
-5e-05
-5e-05
-5e-05
0
0
0
0
0
0
0
0
0
0
0
0
0
0
0
0
0
0
0
0
)
;
    }
    frontAndBack
    {
        type            empty;
    }
}


// ************************************************************************* //
