/*--------------------------------*- C++ -*----------------------------------*\
| =========                 |                                                 |
| \\      /  F ield         | OpenFOAM: The Open Source CFD Toolbox           |
|  \\    /   O peration     | Version:  2506                                  |
|   \\  /    A nd           | Website:  www.openfoam.com                      |
|    \\/     M anipulation  |                                                 |
\*---------------------------------------------------------------------------*/
FoamFile
{
    version     2.0;
    format      ascii;
    arch        "LSB;label=32;scalar=64";
    class       volVectorField;
    location    "9";
    object      gradPhi;
}
// * * * * * * * * * * * * * * * * * * * * * * * * * * * * * * * * * * * * * //

dimensions      [0 2 -1 0 0 0 0];

internalField   nonuniform List<vector> 
400
(
(-0.02 9.41781e-17 0)
(1.34003e-16 -1.35058e-16 0)
(-4.1359e-17 4.11366e-17 0)
(6.61744e-18 -5.63536e-18 0)
(-1.65436e-18 2.05758e-18 0)
(-1.65436e-18 5.5358e-19 0)
(0 7.96016e-19 0)
(-1.65436e-18 7.69535e-19 0)
(0 7.91658e-19 0)
(0 -1.07916e-19 0)
(-1.65436e-18 2.00117e-18 0)
(-3.30872e-18 2.76501e-18 0)
(-1.65436e-18 1.38531e-18 0)
(1.65436e-18 -7.0203e-19 0)
(1.65436e-18 -1.25097e-18 0)
(1.65436e-18 -2.20398e-18 0)
(0 -1.36302e-18 0)
(1.65436e-18 -6.64475e-19 0)
(-1.65436e-18 1.16432e-18 0)
(0 1.0891e-18 0)
(-0.02 -1.73049e-16 0)
(-2.34919e-16 2.35722e-16 0)
(6.94832e-17 -7.07402e-17 0)
(-9.92617e-18 1.05256e-17 0)
(3.30872e-18 -3.0871e-18 0)
(0 1.97767e-19 0)
(-1.65436e-18 2.74404e-19 0)
(0 6.04401e-19 0)
(0 1.0392e-18 0)
(-3.30872e-18 1.72856e-18 0)
(4.96308e-18 -3.3553e-18 0)
(1.65436e-18 -3.98451e-18 0)
(3.30872e-18 -2.49786e-18 0)
(0 3.74693e-19 0)
(0 2.37802e-19 0)
(-1.65436e-18 1.5912e-18 0)
(-3.30872e-18 1.89945e-18 0)
(0 1.17604e-18 0)
(0 -1.7743e-18 0)
(1.65436e-18 -1.59666e-18 0)
(-0.02 4.2075e-17 0)
(5.45939e-17 -5.6491e-17 0)
(-2.15067e-17 2.15981e-17 0)
(4.96308e-18 -3.44537e-18 0)
(0 -4.29138e-19 0)
(0 -6.11364e-19 0)
(1.65436e-18 -5.82142e-19 0)
(0 -8.67744e-19 0)
(1.65436e-18 -1.13493e-18 0)
(1.65436e-18 -3.72475e-19 0)
(-3.30872e-18 2.47639e-18 0)
(0 1.48781e-18 0)
(0 2.71805e-19 0)
(0 -1.86977e-19 0)
(-1.65436e-18 6.72969e-19 0)
(0 -1.02488e-18 0)
(1.65436e-18 -1.87437e-18 0)
(0 2.17654e-19 0)
(0 -3.00656e-20 0)
(1.65436e-18 -1.54976e-18 0)
(-0.02 8.54646e-17 0)
(1.19114e-16 -1.19005e-16 0)
(-3.30872e-17 3.24902e-17 0)
(3.30872e-18 -2.764e-18 0)
(-1.65436e-18 2.69765e-18 0)
(0 -6.08279e-19 0)
(1.65436e-18 -1.21245e-19 0)
(0 -8.48534e-19 0)
(0 -7.00448e-19 0)
(0 3.99963e-19 0)
(-1.65436e-18 -3.04409e-19 0)
(0 1.60363e-19 0)
(0 5.80377e-19 0)
(0 -3.68706e-19 0)
(0 5.2707e-19 0)
(-3.30872e-18 1.50182e-18 0)
(0 1.03696e-18 0)
(1.65436e-18 -7.99633e-19 0)
(0 6.92914e-19 0)
(-1.65436e-18 1.5072e-18 0)
(-0.02 -1.207e-16 0)
(-1.63782e-16 1.63601e-16 0)
(4.79765e-17 -4.69904e-17 0)
(-8.27181e-18 6.44424e-18 0)
(1.65436e-18 -1.01504e-18 0)
(-1.65436e-18 1.90356e-18 0)
(0 6.24754e-19 0)
(-1.65436e-18 1.39793e-18 0)
(-1.65436e-18 1.47255e-18 0)
(1.65436e-18 -8.74715e-19 0)
(0 -9.70203e-19 0)
(1.65436e-18 -9.24505e-19 0)
(0 -4.44501e-19 0)
(0 -7.6737e-19 0)
(1.65436e-18 -1.24507e-18 0)
(0 -2.12682e-19 0)
(0 6.37959e-19 0)
(0 -1.90198e-19 0)
(0 -4.16638e-19 0)
(0 6.47631e-19 0)
(-0.02 9.76162e-17 0)
(1.25731e-16 -1.26299e-16 0)
(-3.14329e-17 3.15546e-17 0)
(8.27181e-18 -7.13011e-18 0)
(-1.65436e-18 1.00326e-18 0)
(1.65436e-18 -1.83377e-18 0)
(0 6.88904e-19 0)
(-3.30872e-18 3.20791e-18 0)
(-3.30872e-18 1.98149e-18 0)
(1.65436e-18 -3.19215e-19 0)
(0 -9.12384e-19 0)
(0 -1.17114e-18 0)
(3.30872e-18 -2.43657e-18 0)
(1.65436e-18 1.12663e-19 0)
(-1.65436e-18 7.77136e-20 0)
(0 8.74809e-19 0)
(-1.65436e-18 7.56047e-19 0)
(-1.65436e-18 1.46103e-18 0)
(0 1.19905e-20 0)
(0 8.48258e-20 0)
(-0.02 2.56081e-17 0)
(2.97785e-17 -3.04616e-17 0)
(-9.92617e-18 9.58803e-18 0)
(3.30872e-18 -3.2873e-18 0)
(1.65436e-18 -1.78115e-18 0)
(-1.65436e-18 1.36569e-18 0)
(1.65436e-18 -1.6429e-18 0)
(3.30872e-18 -4.65817e-18 0)
(3.30872e-18 -2.91631e-18 0)
(-1.65436e-18 1.781e-18 0)
(-1.65436e-18 2.78168e-18 0)
(-1.65436e-18 1.47636e-18 0)
(-3.30872e-18 2.96507e-18 0)
(-1.65436e-18 8.39102e-19 0)
(0 6.99838e-20 0)
(1.65436e-18 -1.2722e-18 0)
(0 -1.35251e-18 0)
(1.65436e-18 -1.43921e-18 0)
(0 4.53193e-20 0)
(1.65436e-18 -9.21199e-19 0)
(-0.02 -1.18841e-16 0)
(-1.53856e-16 1.54949e-16 0)
(4.63221e-17 -4.61209e-17 0)
(-1.32349e-17 1.12502e-17 0)
(0 1.28603e-18 0)
(-1.65436e-18 1.87985e-19 0)
(0 8.49339e-19 0)
(-1.65436e-18 1.33392e-18 0)
(0 5.70876e-19 0)
(1.65436e-18 -1.647e-18 0)
(0 -6.68174e-19 0)
(0 5.96211e-20 0)
(0 -4.82363e-19 0)
(0 -9.75735e-20 0)
(0 -3.21761e-19 0)
(0 -7.57483e-19 0)
(0 -2.08475e-18 0)
(3.30872e-18 -2.3877e-18 0)
(1.65436e-18 -5.17288e-19 0)
(-1.65436e-18 1.50083e-18 0)
(-0.02 8.15265e-17 0)
(1.20768e-16 -1.21335e-16 0)
(-4.30134e-17 4.19795e-17 0)
(8.27181e-18 -6.53137e-18 0)
(-1.65436e-18 7.90081e-19 0)
(0 -8.4709e-20 0)
(0 4.75344e-19 0)
(0 2.17415e-19 0)
(0 3.33491e-20 0)
(0 1.25382e-19 0)
(1.65436e-18 -8.64393e-19 0)
(-1.65436e-18 7.00136e-19 0)
(0 5.68838e-19 0)
(0 -1.54325e-19 0)
(0 1.71353e-19 0)
(0 -1.26958e-19 0)
(-1.65436e-18 1.42294e-18 0)
(-1.65436e-18 1.83133e-18 0)
(-1.65436e-18 1.1504e-18 0)
(1.65436e-18 -1.14262e-18 0)
(-0.02 -2.37072e-17 0)
(-3.63959e-17 3.53882e-17 0)
(1.48893e-17 -1.37202e-17 0)
(0 1.17226e-18 0)
(0 -7.02444e-19 0)
(0 -4.88882e-19 0)
(0 3.55907e-19 0)
(0 3.55186e-19 0)
(0 -6.45635e-19 0)
(0 -9.16355e-20 0)
(0 1.94581e-19 0)
(0 -1.06609e-19 0)
(0 -4.97098e-20 0)
(0 5.88506e-19 0)
(0 2.65082e-19 0)
(-1.65436e-18 1.34525e-18 0)
(0 8.64283e-21 0)
(0 3.98469e-19 0)
(0 -4.1444e-19 0)
(0 6.9502e-19 0)
(-0.02 4.20389e-18 0)
(-6.61744e-18 6.96296e-18 0)
(9.92617e-18 -1.02962e-17 0)
(0 3.23373e-19 0)
(0 -6.61451e-19 0)
(0 -6.92628e-19 0)
(1.65436e-18 -2.1149e-18 0)
(3.30872e-18 -1.34505e-18 0)
(0 -3.16793e-19 0)
(0 -6.41666e-19 0)
(0 4.79161e-19 0)
(0 6.73087e-19 0)
(-1.65436e-18 7.26217e-19 0)
(0 9.05653e-19 0)
(0 1.00333e-18 0)
(0 4.96434e-19 0)
(-1.65436e-18 1.31959e-18 0)
(-1.65436e-18 1.64343e-18 0)
(0 2.99848e-19 0)
(0 -5.86125e-19 0)
(-0.02 1.2515e-17 0)
(3.30872e-17 -3.41162e-17 0)
(-3.14329e-17 2.99848e-17 0)
(3.30872e-18 -2.37284e-18 0)
(3.30872e-18 -2.3311e-18 0)
(0 -7.79238e-19 0)
(-1.65436e-18 2.57213e-19 0)
(1.65436e-18 -1.12693e-18 0)
(0 1.68452e-19 0)
(0 -7.74773e-20 0)
(0 -1.70366e-18 0)
(3.30872e-18 -2.6976e-18 0)
(3.30872e-18 -1.37632e-18 0)
(0 -1.20543e-18 0)
(0 2.29943e-21 0)
(0 7.00096e-19 0)
(-1.65436e-18 1.02447e-18 0)
(0 -6.92305e-19 0)
(-1.65436e-18 -1.06423e-19 0)
(0 6.23883e-19 0)
(-0.02 -2.65984e-17 0)
(-7.27919e-17 7.37151e-17 0)
(4.46678e-17 -4.46086e-17 0)
(-3.30872e-18 2.89501e-18 0)
(-1.65436e-18 1.91611e-18 0)
(-1.65436e-18 4.35263e-19 0)
(1.65436e-18 -7.51e-19 0)
(0 1.15747e-19 0)
(1.65436e-18 -2.9824e-18 0)
(3.30872e-18 -1.86342e-18 0)
(0 -4.23083e-19 0)
(0 4.21789e-19 0)
(-1.65436e-18 -7.36531e-20 0)
(0 3.18346e-20 0)
(1.65436e-18 -1.05656e-18 0)
(3.30872e-18 -8.96327e-19 0)
(0 -8.11908e-19 0)
(0 8.76037e-21 0)
(-1.65436e-18 5.44678e-19 0)
(1.65436e-18 -8.62809e-19 0)
(-0.02 3.37957e-17 0)
(7.27919e-17 -7.28185e-17 0)
(-3.63959e-17 3.65201e-17 0)
(1.65436e-18 -2.3658e-18 0)
(0 6.61676e-19 0)
(-1.65436e-18 5.92413e-19 0)
(1.65436e-18 -9.91598e-19 0)
(0 -7.43926e-19 0)
(0 9.29861e-19 0)
(-1.65436e-18 1.0975e-18 0)
(0 1.24139e-18 0)
(-1.65436e-18 1.1042e-18 0)
(1.65436e-18 -2.76476e-19 0)
(0 -1.30125e-18 0)
(0 1.01148e-18 0)
(-1.65436e-18 4.80739e-19 0)
(1.65436e-18 -1.84692e-19 0)
(-1.65436e-18 3.90815e-19 0)
(1.65436e-18 -4.4201e-19 0)
(-1.65436e-18 7.89826e-19 0)
(-0.02 3.44253e-17 0)
(3.63959e-17 -3.71291e-17 0)
(-3.30872e-18 2.94002e-18 0)
(1.65436e-18 -2.33921e-18 0)
(-1.65436e-18 1.48267e-18 0)
(0 6.63413e-19 0)
(-1.65436e-18 2.45327e-18 0)
(-1.65436e-18 1.21495e-18 0)
(0 1.12721e-18 0)
(0 -1.22893e-19 0)
(1.65436e-18 -1.20773e-18 0)
(0 -3.23595e-19 0)
(-1.65436e-18 1.59941e-18 0)
(-1.65436e-18 1.84358e-18 0)
(0 -2.13427e-19 0)
(1.65436e-18 -1.16259e-18 0)
(1.65436e-18 -1.25716e-18 0)
(1.65436e-18 -1.73093e-18 0)
(0 -4.05888e-19 0)
(0 4.37676e-19 0)
(-0.02 -1.29991e-16 0)
(-1.72054e-16 1.72282e-16 0)
(4.79765e-17 -4.72167e-17 0)
(-1.15805e-17 9.85435e-18 0)
(3.30872e-18 -2.24506e-18 0)
(1.65436e-18 -1.89485e-18 0)
(3.30872e-18 -2.35103e-18 0)
(0 -2.54561e-19 0)
(-1.65436e-18 2.06272e-18 0)
(-3.30872e-18 3.16393e-18 0)
(-3.30872e-18 3.23226e-18 0)
(0 9.40002e-19 0)
(0 -7.03157e-19 0)
(0 4.39019e-19 0)
(1.65436e-18 -1.47078e-18 0)
(3.30872e-18 -1.42661e-18 0)
(0 -1.3009e-18 0)
(0 -7.67066e-19 0)
(0 -3.30153e-21 0)
(1.65436e-18 -1.50215e-18 0)
(-0.02 1.32819e-16 0)
(1.78671e-16 -1.76635e-16 0)
(-5.45939e-17 5.35489e-17 0)
(9.92617e-18 -9.73249e-18 0)
(0 -5.96108e-19 0)
(0 -1.40285e-18 0)
(0 5.80326e-19 0)
(0 -1.26715e-19 0)
(0 -1.07406e-18 0)
(1.65436e-18 -4.82974e-19 0)
(0 -6.04058e-19 0)
(-1.65436e-18 6.79736e-19 0)
(0 7.30523e-19 0)
(0 -4.40644e-19 0)
(0 -1.04053e-19 0)
(1.65436e-18 -5.13808e-20 0)
(-1.65436e-18 -1.76419e-21 0)
(0 6.93298e-19 0)
(0 1.61876e-18 0)
(-1.65436e-18 1.44779e-18 0)
(-0.02 1.88274e-17 0)
(1.48893e-17 -1.46242e-17 0)
(3.30872e-18 -1.44118e-18 0)
(0 -2.08076e-18 0)
(0 3.08989e-19 0)
(-1.65436e-18 2.26437e-18 0)
(-1.65436e-18 1.26825e-18 0)
(0 -1.45714e-20 0)
(0 -9.08111e-19 0)
(3.30872e-18 -3.14255e-18 0)
(3.30872e-18 -2.1291e-18 0)
(1.65436e-18 -2.08411e-18 0)
(1.65436e-18 -1.59474e-18 0)
(1.65436e-18 -5.2339e-19 0)
(-3.30872e-18 2.11819e-18 0)
(-3.30872e-18 2.51885e-18 0)
(-1.65436e-18 2.86699e-18 0)
(-1.65436e-18 1.49809e-18 0)
(1.65436e-18 -1.57017e-18 0)
(0 -9.34251e-19 0)
(-0.02 -1.59213e-16 0)
(-2.10104e-16 2.09326e-16 0)
(5.62483e-17 -5.60631e-17 0)
(-9.92617e-18 1.02914e-17 0)
(0 -1.97587e-19 0)
(0 4.51146e-19 0)
(0 -3.3163e-19 0)
(0 6.33299e-19 0)
(0 -1.04137e-18 0)
(1.65436e-18 2.12032e-19 0)
(0 2.19595e-19 0)
(0 3.46424e-19 0)
(-1.65436e-18 1.10241e-18 0)
(0 5.52413e-19 0)
(1.65436e-18 -4.89761e-19 0)
(0 -4.75617e-19 0)
(0 -4.44519e-19 0)
(1.65436e-18 -6.52953e-19 0)
(1.65436e-18 -1.41351e-18 0)
(0 -6.10339e-19 0)
(-0.02 8.90444e-17 0)
(1.27386e-16 -1.27975e-16 0)
(-3.63959e-17 3.58566e-17 0)
(6.61744e-18 -5.07183e-18 0)
(-1.65436e-18 8.42129e-19 0)
(0 -2.18617e-19 0)
(0 2.62712e-19 0)
(-1.65436e-18 1.35898e-19 0)
(-1.65436e-18 1.54268e-18 0)
(-1.65436e-18 1.23558e-18 0)
(0 5.16279e-19 0)
(0 4.77548e-19 0)
(0 5.39324e-21 0)
(0 6.0236e-20 0)
(0 -4.88703e-21 0)
(0 1.01508e-19 0)
(0 -2.97459e-19 0)
(0 5.54872e-21 0)
(-1.65436e-18 1.5658e-18 0)
(0 8.82121e-19 0)
)
;

boundaryField
{
    movingWall
    {
        type            extrapolatedCalculated;
        value           nonuniform List<vector> 
20
(
(-0.02 8.90444e-17 0)
(1.27386e-16 -1.27975e-16 0)
(-3.63959e-17 3.58566e-17 0)
(6.61744e-18 -5.07183e-18 0)
(-1.65436e-18 8.42129e-19 0)
(0 -2.18617e-19 0)
(0 2.62712e-19 0)
(-1.65436e-18 1.35898e-19 0)
(-1.65436e-18 1.54268e-18 0)
(-1.65436e-18 1.23558e-18 0)
(0 5.16279e-19 0)
(0 4.77548e-19 0)
(0 5.39324e-21 0)
(0 6.0236e-20 0)
(0 -4.88703e-21 0)
(0 1.01508e-19 0)
(0 -2.97459e-19 0)
(0 5.54872e-21 0)
(-1.65436e-18 1.5658e-18 0)
(0 8.82121e-19 0)
)
;
    }
    fixedWalls
    {
        type            extrapolatedCalculated;
        value           nonuniform List<vector> 
60
(
(-0.02 9.41781e-17 0)
(-0.02 -1.73049e-16 0)
(-0.02 4.2075e-17 0)
(-0.02 8.54646e-17 0)
(-0.02 -1.207e-16 0)
(-0.02 9.76162e-17 0)
(-0.02 2.56081e-17 0)
(-0.02 -1.18841e-16 0)
(-0.02 8.15265e-17 0)
(-0.02 -2.37072e-17 0)
(-0.02 4.20389e-18 0)
(-0.02 1.2515e-17 0)
(-0.02 -2.65984e-17 0)
(-0.02 3.37957e-17 0)
(-0.02 3.44253e-17 0)
(-0.02 -1.29991e-16 0)
(-0.02 1.32819e-16 0)
(-0.02 1.88274e-17 0)
(-0.02 -1.59213e-16 0)
(-0.02 8.90444e-17 0)
(0 1.0891e-18 0)
(1.65436e-18 -1.59666e-18 0)
(1.65436e-18 -1.54976e-18 0)
(-1.65436e-18 1.5072e-18 0)
(0 6.47631e-19 0)
(0 8.48258e-20 0)
(1.65436e-18 -9.21199e-19 0)
(-1.65436e-18 1.50083e-18 0)
(1.65436e-18 -1.14262e-18 0)
(0 6.9502e-19 0)
(0 -5.86125e-19 0)
(0 6.23883e-19 0)
(1.65436e-18 -8.62809e-19 0)
(-1.65436e-18 7.89826e-19 0)
(0 4.37676e-19 0)
(1.65436e-18 -1.50215e-18 0)
(-1.65436e-18 1.44779e-18 0)
(0 -9.34251e-19 0)
(0 -6.10339e-19 0)
(0 8.82121e-19 0)
(-0.02 9.41781e-17 0)
(1.34003e-16 -1.35058e-16 0)
(-4.1359e-17 4.11366e-17 0)
(6.61744e-18 -5.63536e-18 0)
(-1.65436e-18 2.05758e-18 0)
(-1.65436e-18 5.5358e-19 0)
(0 7.96016e-19 0)
(-1.65436e-18 7.69535e-19 0)
(0 7.91658e-19 0)
(0 -1.07916e-19 0)
(-1.65436e-18 2.00117e-18 0)
(-3.30872e-18 2.76501e-18 0)
(-1.65436e-18 1.38531e-18 0)
(1.65436e-18 -7.0203e-19 0)
(1.65436e-18 -1.25097e-18 0)
(1.65436e-18 -2.20398e-18 0)
(0 -1.36302e-18 0)
(1.65436e-18 -6.64475e-19 0)
(-1.65436e-18 1.16432e-18 0)
(0 1.0891e-18 0)
)
;
    }
    frontAndBack
    {
        type            empty;
    }
}


// ************************************************************************* //
