/*--------------------------------*- C++ -*----------------------------------*\
| =========                 |                                                 |
| \\      /  F ield         | OpenFOAM: The Open Source CFD Toolbox           |
|  \\    /   O peration     | Version:  2506                                  |
|   \\  /    A nd           | Website:  www.openfoam.com                      |
|    \\/     M anipulation  |                                                 |
\*---------------------------------------------------------------------------*/
FoamFile
{
    version     2.0;
    format      ascii;
    arch        "LSB;label=32;scalar=64";
    class       volTensorField;
    location    "9";
    object      gradU;
}
// * * * * * * * * * * * * * * * * * * * * * * * * * * * * * * * * * * * * * //

dimensions      [0 0 -1 0 0 0 0];

internalField   nonuniform List<tensor> 
400
(
(-9.75782e-13 1.19562e-11 0 1.00289e-12 1.63129e-11 0 0 0 0)
(1.51788e-12 -1.44243e-11 0 -2.43945e-13 -3.4179e-12 0 0 0 0)
(-4.33681e-13 3.07721e-12 0 2.71051e-14 8.31276e-13 0 0 0 0)
(2.71051e-14 -7.33555e-13 0 -2.71051e-14 -1.66221e-13 0 0 0 0)
(0 1.60031e-13 0 8.13152e-14 4.45316e-14 0 0 0 0)
(-5.42101e-14 -3.31545e-14 0 5.42101e-14 8.63643e-15 0 0 0 0)
(-2.71051e-14 8.16437e-15 0 0 1.75562e-14 0 0 0 0)
(0 1.9583e-15 0 -5.42101e-14 1.98365e-14 0 0 0 0)
(-2.71051e-14 4.65898e-15 0 0 2.11803e-14 0 0 0 0)
(0 1.88768e-14 0 -5.42101e-14 1.71662e-14 0 0 0 0)
(-2.71051e-14 1.47232e-14 0 -5.42101e-14 2.88418e-14 0 0 0 0)
(-8.13152e-14 -1.64453e-14 0 -5.42101e-14 3.59361e-14 0 0 0 0)
(0 -3.41331e-14 0 -5.42101e-14 1.41664e-14 0 0 0 0)
(2.71051e-14 -2.45069e-14 0 0 -1.32861e-14 0 0 0 0)
(0 -1.06112e-14 0 0 -2.71349e-14 0 0 0 0)
(5.42101e-14 4.4885e-15 0 2.71051e-14 -3.20616e-14 0 0 0 0)
(2.71051e-14 1.73722e-14 0 2.71051e-14 -1.40313e-14 0 0 0 0)
(0 1.95872e-14 0 0 -6.41165e-16 0 0 0 0)
(0 7.48471e-15 0 -5.42101e-14 1.36477e-14 0 0 0 0)
(-2.71051e-14 -1.40721e-14 0 0 7.61983e-15 0 0 0 0)
(1.78893e-12 9.38786e-13 0 8.13152e-13 -2.83426e-11 0 0 0 0)
(-2.52077e-12 -1.05734e-12 0 -3.52366e-13 6.08351e-12 0 0 0 0)
(6.23416e-13 1.74474e-13 0 -8.13152e-14 -1.42694e-12 0 0 0 0)
(0 -5.31893e-14 0 -8.13152e-14 3.03002e-13 0 0 0 0)
(8.13152e-14 1.48269e-14 0 -1.35525e-13 -7.23692e-14 0 0 0 0)
(0 6.17916e-15 0 -1.0842e-13 1.12511e-14 0 0 0 0)
(-2.71051e-14 3.03566e-15 0 -8.13152e-14 4.24116e-15 0 0 0 0)
(0 1.66579e-15 0 -2.71051e-14 4.33769e-15 0 0 0 0)
(0 -7.32927e-15 0 -5.42101e-14 6.61638e-15 0 0 0 0)
(-5.42101e-14 -1.12153e-14 0 0 -1.31033e-15 0 0 0 0)
(5.42101e-14 4.04675e-15 0 -2.71051e-14 -3.60442e-14 0 0 0 0)
(8.13152e-14 1.76987e-15 0 0 -3.87992e-14 0 0 0 0)
(5.42101e-14 -1.5089e-14 0 0 -2.2317e-14 0 0 0 0)
(0 -1.67944e-14 0 0 3.27959e-15 0 0 0 0)
(0 -8.16431e-15 0 2.71051e-14 8.03445e-15 0 0 0 0)
(-2.71051e-14 8.61511e-15 0 -8.13152e-14 7.78204e-15 0 0 0 0)
(-2.71051e-14 1.40482e-14 0 -8.13152e-14 9.62494e-15 0 0 0 0)
(-5.42101e-14 8.09175e-15 0 0 9.05343e-15 0 0 0 0)
(0 7.76284e-16 0 0 -1.71119e-14 0 0 0 0)
(5.42101e-14 -7.19539e-15 0 -5.42101e-14 -1.82378e-14 0 0 0 0)
(-4.87891e-13 -1.03028e-11 0 -3.98444e-12 8.1468e-12 0 0 0 0)
(6.50521e-13 1.24913e-11 0 1.21973e-12 -1.82159e-12 0 0 0 0)
(-2.43945e-13 -2.70331e-12 0 5.42101e-14 4.27853e-13 0 0 0 0)
(0 6.21014e-13 0 1.35525e-13 -9.23197e-14 0 0 0 0)
(0 -1.3172e-13 0 8.13152e-14 1.01473e-14 0 0 0 0)
(0 4.34559e-14 0 5.42101e-14 -2.08505e-14 0 0 0 0)
(0 1.25091e-15 0 8.13152e-14 -1.33704e-14 0 0 0 0)
(2.71051e-14 4.33352e-15 0 1.0842e-13 -1.76278e-14 0 0 0 0)
(5.42101e-14 -9.89034e-16 0 8.13152e-14 -1.29541e-14 0 0 0 0)
(0 -2.37837e-14 0 1.0842e-13 1.40262e-14 0 0 0 0)
(-5.42101e-14 -2.27657e-14 0 8.13152e-14 1.36127e-14 0 0 0 0)
(-2.71051e-14 -2.71811e-15 0 5.42101e-14 -4.3384e-15 0 0 0 0)
(0 7.94567e-15 0 0 -1.00217e-14 0 0 0 0)
(2.71051e-14 5.84453e-15 0 0 2.39171e-15 0 0 0 0)
(-2.71051e-14 -6.10875e-15 0 -2.71051e-14 1.3986e-14 0 0 0 0)
(0 6.07899e-15 0 0 1.97475e-15 0 0 0 0)
(2.71051e-14 1.86436e-14 0 0 -6.86817e-15 0 0 0 0)
(5.42101e-14 -7.14958e-15 0 0 -8.91624e-16 0 0 0 0)
(-5.42101e-14 -1.98065e-14 0 8.13152e-14 -1.17443e-14 0 0 0 0)
(5.42101e-14 2.12775e-14 0 0 -1.37376e-14 0 0 0 0)
(-1.0571e-12 7.264e-12 0 3.08998e-12 1.29809e-11 0 0 0 0)
(1.51788e-12 -8.77629e-12 0 -7.86047e-13 -2.74668e-12 0 0 0 0)
(-4.06576e-13 1.90374e-12 0 8.13152e-14 6.62749e-13 0 0 0 0)
(0 -4.70895e-13 0 5.42101e-14 -1.19876e-13 0 0 0 0)
(-2.71051e-14 8.62961e-14 0 2.71051e-14 3.87846e-14 0 0 0 0)
(0 -1.73385e-14 0 0 -5.4413e-15 0 0 0 0)
(2.71051e-14 6.25831e-15 0 2.71051e-14 -5.59943e-15 0 0 0 0)
(0 2.08212e-15 0 -2.71051e-14 -1.07941e-14 0 0 0 0)
(0 2.43248e-14 0 -2.71051e-14 -7.31838e-15 0 0 0 0)
(0 1.53514e-14 0 -5.42101e-14 7.19793e-16 0 0 0 0)
(-2.71051e-14 -1.43179e-14 0 0 1.70271e-14 0 0 0 0)
(0 -2.18645e-14 0 2.71051e-14 2.11802e-14 0 0 0 0)
(0 -8.35893e-15 0 5.42101e-14 1.28996e-14 0 0 0 0)
(0 7.21327e-15 0 0 -6.7901e-15 0 0 0 0)
(0 -8.58127e-15 0 0 3.41227e-15 0 0 0 0)
(-2.71051e-14 -1.2239e-14 0 8.13152e-14 9.1511e-15 0 0 0 0)
(-2.71051e-14 1.11819e-14 0 5.42101e-14 -1.4758e-15 0 0 0 0)
(2.71051e-14 3.21558e-15 0 0 -9.89997e-15 0 0 0 0)
(0 -1.20697e-14 0 2.71051e-14 8.30206e-15 0 0 0 0)
(-2.71051e-14 1.82865e-14 0 5.42101e-14 1.05751e-14 0 0 0 0)
(1.76183e-12 -6.8573e-14 0 -5.69206e-13 -1.84764e-11 0 0 0 0)
(-2.35814e-12 1.73144e-13 0 0 4.0456e-12 0 0 0 0)
(6.23416e-13 -7.65013e-14 0 -5.42101e-14 -9.48329e-13 0 0 0 0)
(-5.42101e-14 -2.95073e-15 0 -2.71051e-14 2.10867e-13 0 0 0 0)
(0 -1.72847e-14 0 2.71051e-14 -2.16467e-14 0 0 0 0)
(-5.42101e-14 -9.28136e-16 0 0 2.96402e-14 0 0 0 0)
(0 -4.10186e-15 0 2.71051e-14 2.46719e-14 0 0 0 0)
(-2.71051e-14 2.61456e-15 0 0 3.72863e-14 0 0 0 0)
(-5.42101e-14 1.05248e-14 0 -5.42101e-14 1.97768e-14 0 0 0 0)
(5.42101e-14 5.61736e-16 0 -5.42101e-14 -2.21339e-14 0 0 0 0)
(0 -2.30528e-15 0 -5.42101e-14 -3.09499e-14 0 0 0 0)
(2.71051e-14 -6.84556e-15 0 -8.13152e-14 -2.38348e-14 0 0 0 0)
(0 -2.00246e-14 0 0 -2.07757e-14 0 0 0 0)
(0 -3.64282e-15 0 0 -2.08678e-14 0 0 0 0)
(5.42101e-14 9.83244e-15 0 0 -1.59181e-14 0 0 0 0)
(2.71051e-14 1.19092e-15 0 2.71051e-14 1.23202e-14 0 0 0 0)
(-2.71051e-14 -4.07496e-16 0 2.71051e-14 1.80502e-14 0 0 0 0)
(0 2.62828e-15 0 0 5.75161e-15 0 0 0 0)
(2.71051e-14 6.68558e-16 0 -5.42101e-14 5.92427e-15 0 0 0 0)
(-2.71051e-14 2.40038e-15 0 0 1.21869e-14 0 0 0 0)
(-1.54499e-12 -7.16685e-12 0 -2.57498e-12 1.25941e-11 0 0 0 0)
(2.00577e-12 8.75183e-12 0 6.23416e-13 -2.87899e-12 0 0 0 0)
(-4.60786e-13 -1.93099e-12 0 -1.0842e-13 6.23561e-13 0 0 0 0)
(8.13152e-14 4.55787e-13 0 0 -1.82935e-13 0 0 0 0)
(-2.71051e-14 -9.49312e-14 0 0 1.72728e-14 0 0 0 0)
(2.71051e-14 2.898e-14 0 0 -1.5803e-14 0 0 0 0)
(0 1.39044e-14 0 0 2.61979e-15 0 0 0 0)
(-5.42101e-14 -2.81297e-15 0 5.42101e-14 2.34144e-14 0 0 0 0)
(-2.71051e-14 -3.50954e-14 0 1.0842e-13 2.36826e-14 0 0 0 0)
(2.71051e-14 -3.53753e-14 0 1.35525e-13 1.27136e-14 0 0 0 0)
(-2.71051e-14 -1.60188e-14 0 5.42101e-14 -2.38579e-15 0 0 0 0)
(0 -1.16902e-14 0 5.42101e-14 -2.25902e-14 0 0 0 0)
(5.42101e-14 -5.39192e-15 0 0 -1.7499e-14 0 0 0 0)
(0 1.20708e-14 0 0 4.21866e-15 0 0 0 0)
(0 2.46067e-14 0 0 8.87121e-16 0 0 0 0)
(0 2.17292e-14 0 -5.42101e-14 1.02575e-14 0 0 0 0)
(-2.71051e-14 4.61328e-15 0 -2.71051e-14 1.52908e-14 0 0 0 0)
(-2.71051e-14 -8.9103e-15 0 0 8.91186e-15 0 0 0 0)
(0 -5.63441e-15 0 0 -5.8358e-15 0 0 0 0)
(0 1.75384e-16 0 0 -1.03773e-15 0 0 0 0)
(-1.89735e-13 9.64658e-12 0 4.01155e-12 4.75602e-12 0 0 0 0)
(1.35525e-13 -1.17974e-11 0 -9.75782e-13 -1.08582e-12 0 0 0 0)
(0 2.61955e-12 0 1.35525e-13 2.25515e-13 0 0 0 0)
(0 -6.09239e-13 0 -2.71051e-14 -6.67598e-14 0 0 0 0)
(5.42101e-14 1.49847e-13 0 -1.0842e-13 -5.97461e-15 0 0 0 0)
(-5.42101e-14 -1.55811e-14 0 -5.42101e-14 -1.07438e-14 0 0 0 0)
(5.42101e-14 3.51155e-14 0 -1.35525e-13 -2.91788e-14 0 0 0 0)
(5.42101e-14 2.36774e-14 0 -1.0842e-13 -3.93538e-14 0 0 0 0)
(5.42101e-14 -1.75963e-16 0 -1.0842e-13 -1.50601e-14 0 0 0 0)
(-2.71051e-14 -2.55066e-14 0 -8.13152e-14 1.82358e-14 0 0 0 0)
(-8.13152e-14 -3.7609e-14 0 -5.42101e-14 3.18654e-14 0 0 0 0)
(0 -2.19588e-14 0 -5.42101e-14 2.12217e-14 0 0 0 0)
(-8.13152e-14 6.78418e-15 0 -8.13152e-14 2.44545e-14 0 0 0 0)
(0 1.47433e-14 0 -8.13152e-14 1.62711e-14 0 0 0 0)
(0 1.58713e-14 0 -8.13152e-14 -2.41218e-15 0 0 0 0)
(2.71051e-14 1.55946e-14 0 -8.13152e-14 -2.20927e-14 0 0 0 0)
(0 -1.75316e-15 0 -8.13152e-14 -2.793e-14 0 0 0 0)
(5.42101e-14 -1.84984e-14 0 0 -2.09746e-14 0 0 0 0)
(0 -9.28103e-15 0 0 -3.68377e-15 0 0 0 0)
(0 9.27392e-15 0 0 -1.75137e-17 0 0 0 0)
(1.49078e-12 -3.49665e-12 0 -9.48677e-13 -1.88249e-11 0 0 0 0)
(-1.89735e-12 4.22133e-12 0 4.33681e-13 4.24282e-12 0 0 0 0)
(4.87891e-13 -9.11929e-13 0 5.42101e-14 -9.60212e-13 0 0 0 0)
(-8.13152e-14 2.24297e-13 0 5.42101e-14 2.58423e-13 0 0 0 0)
(-5.42101e-14 -3.89152e-14 0 8.13152e-14 -1.67208e-14 0 0 0 0)
(0 5.77589e-15 0 5.42101e-14 3.60702e-14 0 0 0 0)
(-2.71051e-14 -1.47056e-14 0 8.13152e-14 1.24141e-14 0 0 0 0)
(-5.42101e-14 1.13057e-14 0 5.42101e-14 -9.14308e-15 0 0 0 0)
(0 2.24941e-14 0 -2.71051e-14 -2.28859e-14 0 0 0 0)
(5.42101e-14 1.15502e-14 0 0 -2.25538e-14 0 0 0 0)
(0 -1.30329e-14 0 5.42101e-14 -9.22558e-17 0 0 0 0)
(0 -1.91011e-14 0 5.42101e-14 1.65624e-14 0 0 0 0)
(0 -1.03425e-14 0 8.13152e-14 1.26119e-14 0 0 0 0)
(0 -1.47958e-14 0 8.13152e-14 -2.48339e-15 0 0 0 0)
(0 -1.37571e-14 0 2.71051e-14 -9.59308e-15 0 0 0 0)
(0 -3.78857e-15 0 1.0842e-13 -2.45192e-14 0 0 0 0)
(2.71051e-14 5.73134e-15 0 2.71051e-14 -3.12296e-14 0 0 0 0)
(5.42101e-14 1.53359e-14 0 0 -2.50544e-14 0 0 0 0)
(2.71051e-14 1.53227e-14 0 0 4.09639e-15 0 0 0 0)
(-2.71051e-14 3.87666e-15 0 2.71051e-14 5.60734e-15 0 0 0 0)
(-7.04731e-13 -4.93546e-12 0 -1.87025e-12 1.64882e-11 0 0 0 0)
(1.16552e-12 6.06721e-12 0 4.33681e-13 -3.62125e-12 0 0 0 0)
(-3.79471e-13 -1.36485e-12 0 -8.13152e-14 8.6231e-13 0 0 0 0)
(-2.71051e-14 3.34252e-13 0 0 -1.82058e-13 0 0 0 0)
(0 -7.25056e-14 0 2.71051e-14 4.88418e-14 0 0 0 0)
(0 1.35537e-14 0 5.42101e-14 -6.61882e-15 0 0 0 0)
(0 -1.00977e-14 0 5.42101e-14 2.57418e-14 0 0 0 0)
(0 -1.16226e-14 0 5.42101e-14 2.58462e-14 0 0 0 0)
(0 -1.35867e-14 0 1.35525e-13 7.24704e-15 0 0 0 0)
(2.71051e-14 -2.71297e-15 0 5.42101e-14 -9.21901e-15 0 0 0 0)
(0 1.50717e-15 0 5.42101e-14 -1.83395e-14 0 0 0 0)
(-2.71051e-14 -9.25468e-15 0 5.42101e-14 -4.19949e-16 0 0 0 0)
(0 -1.22616e-14 0 5.42101e-14 -4.43788e-16 0 0 0 0)
(0 -7.46161e-15 0 5.42101e-14 -4.71427e-16 0 0 0 0)
(0 -6.16453e-15 0 1.0842e-13 8.73815e-15 0 0 0 0)
(0 -6.04186e-15 0 2.71051e-14 1.50531e-14 0 0 0 0)
(-2.71051e-14 -2.28829e-15 0 8.13152e-14 1.24319e-14 0 0 0 0)
(-2.71051e-14 1.68276e-14 0 2.71051e-14 7.45357e-15 0 0 0 0)
(0 2.13807e-14 0 -5.42101e-14 4.34634e-15 0 0 0 0)
(0 -4.29808e-16 0 0 -7.58384e-16 0 0 0 0)
(5.42101e-14 9.37025e-12 0 8.94467e-13 -6.1177e-12 0 0 0 0)
(-1.0842e-13 -1.14045e-11 0 -5.14996e-13 1.20421e-12 0 0 0 0)
(5.42101e-14 2.52727e-12 0 -8.13152e-14 -2.88501e-13 0 0 0 0)
(0 -5.89171e-13 0 -5.42101e-14 5.22136e-14 0 0 0 0)
(2.71051e-14 1.36524e-13 0 -5.42101e-14 -2.51472e-14 0 0 0 0)
(2.71051e-14 -1.73242e-14 0 -5.42101e-14 -1.53903e-14 0 0 0 0)
(0 1.77594e-14 0 2.71051e-14 -1.5915e-14 0 0 0 0)
(0 -7.189e-15 0 0 -1.24704e-14 0 0 0 0)
(0 -1.25711e-14 0 0 -9.66725e-15 0 0 0 0)
(0 -1.40364e-14 0 0 3.80379e-15 0 0 0 0)
(0 -4.23382e-15 0 5.42101e-14 9.86431e-15 0 0 0 0)
(0 -1.2054e-15 0 0 1.23465e-14 0 0 0 0)
(0 -1.0394e-14 0 2.71051e-14 1.07049e-14 0 0 0 0)
(0 -5.61391e-15 0 0 1.19904e-14 0 0 0 0)
(0 1.76748e-15 0 0 7.06629e-15 0 0 0 0)
(-5.42101e-14 -9.48337e-17 0 -2.71051e-14 1.02654e-14 0 0 0 0)
(0 -1.86819e-15 0 -2.71051e-14 1.32554e-14 0 0 0 0)
(0 7.25038e-15 0 -2.71051e-14 2.55143e-14 0 0 0 0)
(2.71051e-14 7.11076e-15 0 5.42101e-14 4.38444e-15 0 0 0 0)
(-2.71051e-14 2.88703e-16 0 2.71051e-14 -2.76829e-15 0 0 0 0)
(-2.98156e-13 -9.84895e-12 0 1.02999e-12 -3.53819e-12 0 0 0 0)
(1.6263e-13 1.18964e-11 0 -8.13152e-14 8.76298e-13 0 0 0 0)
(1.35525e-13 -2.51684e-12 0 1.0842e-13 -2.0022e-13 0 0 0 0)
(0 5.97606e-13 0 -8.13152e-14 4.08433e-14 0 0 0 0)
(0 -1.4011e-13 0 0 -3.78437e-14 0 0 0 0)
(0 2.27859e-14 0 -5.42101e-14 -1.85194e-14 0 0 0 0)
(5.42101e-14 -7.17783e-15 0 -8.13152e-14 -2.45424e-14 0 0 0 0)
(2.71051e-14 -5.37484e-15 0 -5.42101e-14 -1.95403e-14 0 0 0 0)
(0 2.68748e-15 0 -5.42101e-14 -3.6601e-15 0 0 0 0)
(2.71051e-14 1.68186e-14 0 -5.42101e-14 -2.94665e-15 0 0 0 0)
(-2.71051e-14 1.00498e-14 0 -8.13152e-14 2.27398e-15 0 0 0 0)
(0 -8.41412e-15 0 0 -5.33971e-15 0 0 0 0)
(-2.71051e-14 -1.26177e-14 0 -2.71051e-14 2.38533e-15 0 0 0 0)
(0 -1.11002e-14 0 0 1.10512e-14 0 0 0 0)
(0 -7.88947e-15 0 0 1.32921e-14 0 0 0 0)
(0 1.47206e-16 0 2.71051e-14 1.57407e-14 0 0 0 0)
(-2.71051e-14 1.29606e-14 0 0 2.13304e-14 0 0 0 0)
(-2.71051e-14 7.95669e-15 0 2.71051e-14 1.79336e-14 0 0 0 0)
(0 -6.90191e-15 0 2.71051e-14 1.71584e-15 0 0 0 0)
(0 -2.04596e-15 0 -2.71051e-14 5.12804e-17 0 0 0 0)
(9.75782e-13 6.70836e-12 0 -9.75782e-13 1.25051e-11 0 0 0 0)
(-1.02999e-12 -8.06655e-12 0 8.13152e-14 -2.63418e-12 0 0 0 0)
(5.42101e-14 1.69181e-12 0 -2.43945e-13 6.14982e-13 0 0 0 0)
(-1.35525e-13 -4.26795e-13 0 -5.42101e-14 -1.53258e-13 0 0 0 0)
(5.42101e-14 7.71612e-14 0 -8.13152e-14 1.41215e-14 0 0 0 0)
(0 -4.02292e-15 0 -8.13152e-14 -8.19568e-15 0 0 0 0)
(0 1.67386e-14 0 -8.13152e-14 -4.97231e-15 0 0 0 0)
(0 1.36933e-14 0 -1.35525e-13 -1.13519e-14 0 0 0 0)
(0 4.0225e-15 0 -1.35525e-13 -1.17525e-14 0 0 0 0)
(0 -8.10231e-15 0 -8.13152e-14 -2.26331e-14 0 0 0 0)
(2.71051e-14 -6.62688e-15 0 -1.0842e-13 -3.57227e-14 0 0 0 0)
(8.13152e-14 -1.09404e-15 0 -5.42101e-14 -3.44078e-14 0 0 0 0)
(2.71051e-14 5.99691e-15 0 -5.42101e-14 -1.64067e-14 0 0 0 0)
(0 5.29289e-15 0 -5.42101e-14 -9.92487e-15 0 0 0 0)
(0 6.45698e-15 0 -5.42101e-14 1.35638e-15 0 0 0 0)
(0 7.94341e-15 0 -5.42101e-14 1.04786e-14 0 0 0 0)
(-5.42101e-14 3.24724e-16 0 0 1.50026e-14 0 0 0 0)
(0 -1.23642e-14 0 -2.71051e-14 -2.04961e-15 0 0 0 0)
(2.71051e-14 -1.07715e-14 0 0 1.29011e-15 0 0 0 0)
(-2.71051e-14 -1.47841e-15 0 0 -2.37349e-16 0 0 0 0)
(-1.24683e-12 2.19987e-14 0 -7.58942e-13 -1.84063e-11 0 0 0 0)
(9.48677e-13 6.26165e-15 0 2.98156e-13 3.9201e-12 0 0 0 0)
(2.71051e-14 -3.59176e-14 0 1.0842e-13 -9.28878e-13 0 0 0 0)
(1.89735e-13 -3.25391e-15 0 1.35525e-13 2.00333e-13 0 0 0 0)
(-1.0842e-13 4.95276e-15 0 8.13152e-14 -2.5764e-14 0 0 0 0)
(0 3.69207e-15 0 8.13152e-14 1.26987e-14 0 0 0 0)
(5.42101e-14 -1.03341e-14 0 2.71051e-14 -1.89695e-14 0 0 0 0)
(-5.42101e-14 -1.21551e-14 0 8.13152e-14 -2.00573e-14 0 0 0 0)
(1.0842e-13 -8.59373e-15 0 8.13152e-14 -3.50192e-14 0 0 0 0)
(2.71051e-14 -7.15154e-15 0 1.0842e-13 -1.52039e-14 0 0 0 0)
(0 -1.72478e-15 0 8.13152e-14 -3.36733e-15 0 0 0 0)
(0 1.09018e-14 0 0 -6.21837e-16 0 0 0 0)
(-2.71051e-14 1.18652e-14 0 -5.42101e-14 -1.07316e-14 0 0 0 0)
(0 6.6629e-15 0 0 -1.92533e-14 0 0 0 0)
(2.71051e-14 1.2514e-14 0 -5.42101e-14 -1.05401e-14 0 0 0 0)
(5.42101e-14 1.37935e-14 0 0 -7.30271e-15 0 0 0 0)
(0 4.32371e-16 0 0 -7.15081e-15 0 0 0 0)
(0 -5.75582e-15 0 0 -2.55196e-15 0 0 0 0)
(0 -5.08965e-15 0 0 2.74979e-16 0 0 0 0)
(0 -3.09872e-15 0 0 -5.3076e-16 0 0 0 0)
(5.14996e-13 -7.77784e-12 0 -2.1684e-13 1.52062e-11 0 0 0 0)
(-1.6263e-13 9.41088e-12 0 2.71051e-13 -3.3383e-12 0 0 0 0)
(-1.6263e-13 -2.02796e-12 0 1.89735e-13 7.62077e-13 0 0 0 0)
(-1.35525e-13 4.76318e-13 0 5.42101e-14 -1.69339e-13 0 0 0 0)
(2.71051e-14 -1.10473e-13 0 5.42101e-14 4.89692e-14 0 0 0 0)
(-2.71051e-14 2.77159e-15 0 1.0842e-13 1.64992e-15 0 0 0 0)
(0 -1.60174e-14 0 5.42101e-14 4.80793e-15 0 0 0 0)
(2.71051e-14 -2.35643e-15 0 5.42101e-14 5.03002e-15 0 0 0 0)
(-2.71051e-14 8.87582e-15 0 5.42101e-14 3.66508e-15 0 0 0 0)
(0 2.35496e-14 0 -2.71051e-14 9.70893e-15 0 0 0 0)
(-2.71051e-14 7.95522e-15 0 -5.42101e-14 1.8288e-14 0 0 0 0)
(-2.71051e-14 -8.45836e-15 0 -5.42101e-14 1.83973e-14 0 0 0 0)
(2.71051e-14 -1.26346e-14 0 0 5.42166e-15 0 0 0 0)
(2.71051e-14 5.48445e-15 0 0 1.07439e-15 0 0 0 0)
(-2.71051e-14 1.84076e-14 0 0 1.09029e-14 0 0 0 0)
(-2.71051e-14 1.13327e-14 0 -5.42101e-14 5.34837e-16 0 0 0 0)
(0 5.07547e-15 0 -5.42101e-14 -9.66071e-15 0 0 0 0)
(0 -4.93838e-15 0 -5.42101e-14 -3.91905e-15 0 0 0 0)
(2.71051e-14 -8.75034e-15 0 -2.71051e-14 -2.10493e-15 0 0 0 0)
(-2.71051e-14 -1.22263e-15 0 0 5.29694e-15 0 0 0 0)
(-1.16552e-12 1.18899e-11 0 2.08709e-12 7.11285e-13 0 0 0 0)
(1.35525e-12 -1.44379e-11 0 -7.86047e-13 -1.85188e-13 0 0 0 0)
(-2.43945e-13 3.13305e-12 0 -1.6263e-13 5.31002e-14 0 0 0 0)
(1.0842e-13 -7.16361e-13 0 -2.71051e-14 8.27593e-15 0 0 0 0)
(-5.42101e-14 1.75942e-13 0 -1.0842e-13 2.55932e-14 0 0 0 0)
(0 -4.04692e-14 0 -5.42101e-14 1.2722e-14 0 0 0 0)
(-5.42101e-14 -6.95397e-15 0 0 1.70926e-14 0 0 0 0)
(0 -1.32979e-14 0 0 1.39154e-14 0 0 0 0)
(-2.71051e-14 -3.91483e-15 0 -5.42101e-14 2.63061e-14 0 0 0 0)
(0 7.47135e-15 0 -5.42101e-14 9.90395e-15 0 0 0 0)
(0 6.96363e-15 0 -2.71051e-14 -1.16613e-15 0 0 0 0)
(2.71051e-14 -1.9645e-15 0 -2.71051e-14 6.28125e-16 0 0 0 0)
(0 -5.45774e-15 0 0 1.14946e-14 0 0 0 0)
(-2.71051e-14 1.21442e-14 0 -8.13152e-14 1.70985e-14 0 0 0 0)
(0 1.19744e-14 0 -2.71051e-14 -4.94107e-15 0 0 0 0)
(0 -6.77018e-15 0 -2.71051e-14 -2.00689e-14 0 0 0 0)
(0 -4.02151e-15 0 0 -2.52056e-14 0 0 0 0)
(8.13152e-14 1.79996e-15 0 0 -2.092e-14 0 0 0 0)
(2.71051e-14 4.12634e-15 0 0 -3.70969e-15 0 0 0 0)
(-2.71051e-14 -6.29073e-15 0 -2.71051e-14 3.2006e-16 0 0 0 0)
(1.78893e-12 -7.25174e-12 0 -5.96311e-13 -1.912e-11 0 0 0 0)
(-2.35814e-12 8.75269e-12 0 2.71051e-13 4.18176e-12 0 0 0 0)
(6.23416e-13 -1.8345e-12 0 5.42101e-14 -9.55114e-13 0 0 0 0)
(-1.0842e-13 4.48811e-13 0 -2.71051e-14 2.25189e-13 0 0 0 0)
(0 -1.06027e-13 0 0 -6.62926e-14 0 0 0 0)
(5.42101e-14 -5.72897e-15 0 0 -3.02259e-14 0 0 0 0)
(5.42101e-14 -1.4824e-14 0 5.42101e-14 -2.45732e-14 0 0 0 0)
(-2.71051e-14 6.85711e-15 0 5.42101e-14 -6.69775e-16 0 0 0 0)
(-2.71051e-14 4.86435e-15 0 8.13152e-14 2.96606e-14 0 0 0 0)
(-5.42101e-14 -3.9227e-15 0 1.0842e-13 3.7118e-14 0 0 0 0)
(-8.13152e-14 -1.32061e-15 0 8.13152e-14 2.66136e-14 0 0 0 0)
(0 4.20237e-15 0 8.13152e-14 1.69657e-14 0 0 0 0)
(5.42101e-14 3.83578e-15 0 5.42101e-14 9.933e-15 0 0 0 0)
(-5.42101e-14 -1.09512e-14 0 2.71051e-14 6.13762e-15 0 0 0 0)
(5.42101e-14 -1.87598e-14 0 2.71051e-14 -2.99123e-14 0 0 0 0)
(8.13152e-14 -8.93181e-15 0 1.0842e-13 -3.30401e-14 0 0 0 0)
(-5.42101e-14 4.22442e-15 0 1.0842e-13 -2.54299e-14 0 0 0 0)
(5.42101e-14 1.65575e-14 0 5.42101e-14 -1.29943e-14 0 0 0 0)
(0 1.24897e-14 0 2.71051e-14 4.0289e-15 0 0 0 0)
(0 2.16699e-15 0 2.71051e-14 -4.6474e-15 0 0 0 0)
(-1.40946e-12 -3.04833e-12 0 -3.2255e-12 2.17947e-11 0 0 0 0)
(1.92446e-12 3.72701e-12 0 7.58942e-13 -4.65718e-12 0 0 0 0)
(-5.69206e-13 -8.23524e-13 0 -1.35525e-13 1.08872e-12 0 0 0 0)
(5.42101e-14 1.7246e-13 0 0 -2.67541e-13 0 0 0 0)
(0 -7.94729e-14 0 5.42101e-14 1.05223e-14 0 0 0 0)
(5.42101e-14 1.25025e-15 0 5.42101e-14 -2.58897e-14 0 0 0 0)
(0 2.26022e-14 0 -5.42101e-14 5.13622e-15 0 0 0 0)
(0 4.09359e-14 0 -1.0842e-13 8.77796e-16 0 0 0 0)
(0 3.38729e-14 0 -2.71051e-14 -1.81313e-15 0 0 0 0)
(2.71051e-14 4.42435e-15 0 -2.71051e-14 4.1775e-15 0 0 0 0)
(0 -1.31886e-14 0 5.42101e-14 9.38538e-15 0 0 0 0)
(-2.71051e-14 -1.86451e-14 0 8.13152e-14 5.77852e-15 0 0 0 0)
(0 -1.62858e-14 0 5.42101e-14 -5.66819e-15 0 0 0 0)
(0 -2.77011e-14 0 1.0842e-13 -4.8649e-15 0 0 0 0)
(0 -2.72033e-14 0 1.35525e-13 6.74054e-15 0 0 0 0)
(0 -2.28779e-15 0 2.71051e-14 1.22133e-14 0 0 0 0)
(0 1.60243e-14 0 0 1.52216e-14 0 0 0 0)
(0 3.12587e-14 0 2.71051e-14 1.50246e-14 0 0 0 0)
(-2.71051e-14 1.24733e-14 0 -2.71051e-14 1.13914e-14 0 0 0 0)
(-2.71051e-14 -5.67223e-15 0 0 1.32962e-15 0 0 0 0)
(-6.77626e-13 9.88579e-12 0 5.20417e-12 -9.23691e-13 0 0 0 0)
(7.31836e-13 -1.19533e-11 0 -1.38236e-12 1.53769e-13 0 0 0 0)
(-1.35525e-13 2.55514e-12 0 1.6263e-13 -5.28672e-14 0 0 0 0)
(8.13152e-14 -6.29388e-13 0 -5.42101e-14 -7.9154e-15 0 0 0 0)
(0 1.35624e-13 0 -5.42101e-14 1.18464e-14 0 0 0 0)
(-5.42101e-14 -1.11151e-14 0 -1.0842e-13 3.32414e-14 0 0 0 0)
(-2.71051e-14 1.19435e-14 0 -8.13152e-14 1.99127e-14 0 0 0 0)
(0 -9.22389e-17 0 -2.71051e-14 -3.48235e-15 0 0 0 0)
(0 8.16406e-15 0 -8.13152e-14 -3.55779e-14 0 0 0 0)
(8.13152e-14 7.27581e-15 0 -8.13152e-14 -4.84429e-14 0 0 0 0)
(5.42101e-14 2.80411e-16 0 -5.42101e-14 -3.69833e-14 0 0 0 0)
(2.71051e-14 -1.08512e-14 0 -5.42101e-14 -2.7813e-14 0 0 0 0)
(2.71051e-14 -6.80765e-15 0 -5.42101e-14 -1.04898e-14 0 0 0 0)
(2.71051e-14 1.45752e-15 0 -5.42101e-14 1.50154e-18 0 0 0 0)
(-5.42101e-14 -1.68165e-15 0 -5.42101e-14 2.98607e-14 0 0 0 0)
(-2.71051e-14 -4.50718e-16 0 -2.71051e-14 3.34111e-14 0 0 0 0)
(-5.42101e-14 7.0358e-15 0 -5.42101e-14 3.39066e-14 0 0 0 0)
(-5.42101e-14 1.27272e-14 0 -8.13152e-14 1.39757e-14 0 0 0 0)
(5.42101e-14 -1.20533e-15 0 0 -1.7375e-14 0 0 0 0)
(0 -1.0554e-14 0 0 -5.5796e-15 0 0 0 0)
(2.38524e-12 -3.81825e-12 0 -7.04731e-13 -2.12008e-11 0 0 0 0)
(-3.08998e-12 4.59783e-12 0 3.52366e-13 4.5546e-12 0 0 0 0)
(7.58942e-13 -9.85208e-13 0 1.35525e-13 -1.10124e-12 0 0 0 0)
(-1.0842e-13 2.37174e-13 0 8.13152e-14 2.43561e-13 0 0 0 0)
(-2.71051e-14 -3.8316e-14 0 1.0842e-13 -2.72959e-14 0 0 0 0)
(0 9.31657e-15 0 5.42101e-14 2.3148e-14 0 0 0 0)
(2.71051e-14 -1.41216e-14 0 1.0842e-13 -1.36872e-15 0 0 0 0)
(-2.71051e-14 -1.45547e-14 0 1.35525e-13 1.83958e-15 0 0 0 0)
(2.71051e-14 -1.10877e-14 0 1.0842e-13 -7.86219e-15 0 0 0 0)
(0 3.019e-15 0 8.13152e-14 -1.07634e-14 0 0 0 0)
(0 7.44134e-15 0 2.71051e-14 -8.4917e-15 0 0 0 0)
(0 7.84831e-15 0 -2.71051e-14 -4.97616e-15 0 0 0 0)
(-2.71051e-14 1.15286e-14 0 -5.42101e-14 3.00589e-15 0 0 0 0)
(0 1.26494e-14 0 0 -1.80763e-15 0 0 0 0)
(2.71051e-14 6.20634e-15 0 -8.13152e-14 -4.35369e-15 0 0 0 0)
(0 1.7581e-15 0 0 -2.07575e-15 0 0 0 0)
(0 -3.41114e-15 0 0 -1.36219e-16 0 0 0 0)
(5.42101e-14 -2.00229e-14 0 5.42101e-14 -5.86053e-15 0 0 0 0)
(2.71051e-14 -7.08206e-15 0 2.71051e-14 -2.09186e-14 0 0 0 0)
(-2.71051e-14 1.72824e-14 0 -2.71051e-14 -3.81409e-15 0 0 0 0)
(-9.75782e-13 -6.76046e-12 0 -1.70762e-12 1.34543e-11 0 0 0 0)
(1.51788e-12 8.14632e-12 0 3.52366e-13 -2.87559e-12 0 0 0 0)
(-4.06576e-13 -1.75589e-12 0 -1.6263e-13 7.10152e-13 0 0 0 0)
(0 4.44553e-13 0 -2.71051e-14 -1.34485e-13 0 0 0 0)
(0 -8.4789e-14 0 -5.42101e-14 2.8424e-14 0 0 0 0)
(0 1.48121e-14 0 0 -1.13797e-14 0 0 0 0)
(-2.71051e-14 -9.36493e-15 0 -2.71051e-14 4.29536e-15 0 0 0 0)
(2.71051e-14 -6.58571e-15 0 -5.42101e-14 1.21069e-14 0 0 0 0)
(-5.42101e-14 -4.43893e-15 0 -2.71051e-14 2.54358e-14 0 0 0 0)
(-2.71051e-14 6.64631e-15 0 -2.71051e-14 2.76335e-14 0 0 0 0)
(0 6.06767e-15 0 -2.71051e-14 1.57705e-14 0 0 0 0)
(0 6.46376e-16 0 0 1.41245e-14 0 0 0 0)
(0 -3.63912e-15 0 5.42101e-14 7.27582e-15 0 0 0 0)
(0 -5.90205e-15 0 0 6.23494e-15 0 0 0 0)
(0 -1.94977e-15 0 5.42101e-14 5.28437e-16 0 0 0 0)
(0 3.76675e-15 0 -2.71051e-14 1.97838e-15 0 0 0 0)
(0 3.25102e-15 0 0 -4.99642e-15 0 0 0 0)
(0 -8.05516e-15 0 0 2.1385e-15 0 0 0 0)
(-2.71051e-14 8.41105e-16 0 -2.71051e-14 2.30817e-14 0 0 0 0)
(-2.71051e-14 1.41787e-14 0 0 8.37945e-15 0 0 0 0)
)
;

boundaryField
{
    movingWall
    {
        type            extrapolatedCalculated;
        value           nonuniform List<tensor> 
20
(
(-9.75782e-13 -6.76046e-12 0 5.9508e-12 3.44301e-11 0 0 0 0)
(1.51788e-12 8.14632e-12 0 -1.95399e-12 -7.38821e-12 0 0 0 0)
(-4.06576e-13 -1.75589e-12 0 -2.66454e-13 1.8448e-12 0 0 0 0)
(0 4.44553e-13 0 -2.22045e-13 -3.64642e-13 0 0 0 0)
(0 -8.4789e-14 0 -3.10862e-13 6.6583e-14 0 0 0 0)
(0 1.48121e-14 0 -2.66454e-13 -2.54856e-14 0 0 0 0)
(-2.71051e-14 -9.36493e-15 0 -2.22045e-13 7.33467e-15 0 0 0 0)
(2.71051e-14 -6.58571e-15 0 -2.22045e-13 1.19741e-14 0 0 0 0)
(-5.42101e-14 -4.43893e-15 0 -2.66454e-13 3.36775e-14 0 0 0 0)
(-2.71051e-14 6.64631e-15 0 -1.33227e-13 2.97298e-14 0 0 0 0)
(0 6.06767e-15 0 -1.33227e-13 7.09228e-15 0 0 0 0)
(0 6.46376e-16 0 -1.33227e-13 5.45915e-15 0 0 0 0)
(0 -3.63912e-15 0 -4.44089e-14 4.50678e-15 0 0 0 0)
(0 -5.90205e-15 0 -8.88178e-14 2.00156e-14 0 0 0 0)
(0 -1.94977e-15 0 -4.44089e-14 2.8115e-14 0 0 0 0)
(0 3.76675e-15 0 -8.88178e-14 2.78147e-14 0 0 0 0)
(0 3.25102e-15 0 -8.88178e-14 1.3048e-14 0 0 0 0)
(0 -8.05516e-15 0 -8.88178e-14 1.48106e-14 0 0 0 0)
(-2.71051e-14 8.41105e-16 0 -8.88178e-14 4.52686e-14 0 0 0 0)
(-2.71051e-14 1.41787e-14 0 0 1.14462e-14 0 0 0 0)
)
;
    }
    fixedWalls
    {
        type            extrapolatedCalculated;
        value           nonuniform List<tensor> 
60
(
(-5.9508e-12 6.07824e-11 0 1.00289e-12 1.63129e-11 0 0 0 0)
(9.9476e-12 4.46921e-12 0 8.13152e-13 -2.83426e-11 0 0 0 0)
(-2.66454e-12 -5.25879e-11 0 -3.98444e-12 8.1468e-12 0 0 0 0)
(-5.9508e-12 3.70564e-11 0 3.08998e-12 1.29809e-11 0 0 0 0)
(9.59233e-12 -6.64082e-13 0 -5.69206e-13 -1.84764e-11 0 0 0 0)
(-8.17124e-12 -3.68494e-11 0 -2.57498e-12 1.25941e-11 0 0 0 0)
(-6.21725e-13 4.97125e-11 0 4.01155e-12 4.75602e-12 0 0 0 0)
(7.77156e-12 -1.78253e-11 0 -9.48677e-13 -1.88249e-11 0 0 0 0)
(-4.44089e-12 -2.5587e-11 0 -1.87025e-12 1.64882e-11 0 0 0 0)
(3.9968e-13 4.81273e-11 0 8.94467e-13 -6.1177e-12 0 0 0 0)
(-8.88178e-13 -5.00578e-11 0 1.02999e-12 -3.53819e-12 0 0 0 0)
(4.44089e-12 3.39746e-11 0 -9.75782e-13 1.25051e-11 0 0 0 0)
(-4.88498e-12 -3.7236e-14 0 -7.58942e-13 -1.84063e-11 0 0 0 0)
(1.42109e-12 -3.96507e-11 0 -2.1684e-13 1.52062e-11 0 0 0 0)
(-5.68434e-12 6.07877e-11 0 2.08709e-12 7.11285e-13 0 0 0 0)
(9.76996e-12 -3.68055e-11 0 -5.96311e-13 -1.912e-11 0 0 0 0)
(-7.99361e-12 -1.56924e-11 0 -3.2255e-12 2.17947e-11 0 0 0 0)
(-3.10862e-12 5.03733e-11 0 5.20417e-12 -9.23691e-13 0 0 0 0)
(1.27898e-11 -1.93871e-11 0 -7.04731e-13 -2.12008e-11 0 0 0 0)
(-5.9508e-12 -3.44301e-11 0 -1.70762e-12 1.34543e-11 0 0 0 0)
(-4.44089e-14 -2.20435e-14 0 0 7.61983e-15 0 0 0 0)
(8.88178e-14 -8.43579e-15 0 -5.42101e-14 -1.82378e-14 0 0 0 0)
(8.88178e-14 5.09075e-14 0 0 -1.37376e-14 0 0 0 0)
(0 4.65146e-14 0 5.42101e-14 1.05751e-14 0 0 0 0)
(0 8.60724e-15 0 0 1.21869e-14 0 0 0 0)
(0 -2.23293e-15 0 0 -1.03773e-15 0 0 0 0)
(0 1.27582e-14 0 0 -1.75137e-17 0 0 0 0)
(-4.44089e-14 -2.16288e-15 0 2.71051e-14 5.60734e-15 0 0 0 0)
(-4.44089e-14 -9.67119e-15 0 0 -7.58384e-16 0 0 0 0)
(-8.88178e-14 8.7066e-16 0 2.71051e-14 -2.76829e-15 0 0 0 0)
(-4.44089e-14 1.40197e-15 0 -2.71051e-14 5.12804e-17 0 0 0 0)
(-4.44089e-14 6.65539e-16 0 0 -2.37349e-16 0 0 0 0)
(0 2.35136e-15 0 0 -5.3076e-16 0 0 0 0)
(-4.44089e-14 2.78858e-15 0 0 5.29694e-15 0 0 0 0)
(-4.44089e-14 -1.88364e-14 0 -2.71051e-14 3.2006e-16 0 0 0 0)
(0 1.50834e-15 0 2.71051e-14 -4.6474e-15 0 0 0 0)
(-4.44089e-14 -2.46819e-16 0 0 1.32962e-15 0 0 0 0)
(-8.88178e-14 -3.81014e-15 0 0 -5.5796e-15 0 0 0 0)
(-4.44089e-14 2.20716e-14 0 -2.71051e-14 -3.81409e-15 0 0 0 0)
(0 1.14462e-14 0 0 8.37945e-15 0 0 0 0)
(-9.75782e-13 1.19562e-11 0 -5.9508e-12 6.07824e-11 0 0 0 0)
(1.51788e-12 -1.44243e-11 0 1.9984e-12 -1.29575e-11 0 0 0 0)
(-4.33681e-13 3.07721e-12 0 1.77636e-13 3.08525e-12 0 0 0 0)
(2.71051e-14 -7.33555e-13 0 2.66454e-13 -6.48717e-13 0 0 0 0)
(0 1.60031e-13 0 3.10862e-13 1.51028e-13 0 0 0 0)
(-5.42101e-14 -3.31545e-14 0 2.22045e-13 -8.59284e-15 0 0 0 0)
(-2.71051e-14 8.16437e-15 0 1.77636e-13 1.84103e-14 0 0 0 0)
(0 1.9583e-15 0 1.33227e-13 2.40646e-14 0 0 0 0)
(-2.71051e-14 4.65898e-15 0 4.44089e-14 2.62435e-14 0 0 0 0)
(0 1.88768e-14 0 4.44089e-14 4.27006e-14 0 0 0 0)
(-2.71051e-14 1.47232e-14 0 4.44089e-14 1.01751e-13 0 0 0 0)
(-8.13152e-14 -1.64453e-14 0 -8.88178e-14 1.01593e-13 0 0 0 0)
(0 -3.41331e-14 0 -1.77636e-13 3.59698e-14 0 0 0 0)
(2.71051e-14 -2.45069e-14 0 -1.77636e-13 -3.49392e-14 0 0 0 0)
(0 -1.06112e-14 0 -8.88178e-14 -6.2058e-14 0 0 0 0)
(5.42101e-14 4.4885e-15 0 0 -7.73841e-14 0 0 0 0)
(2.71051e-14 1.73722e-14 0 4.44089e-14 -4.4104e-14 0 0 0 0)
(0 1.95872e-14 0 4.44089e-14 -7.89532e-15 0 0 0 0)
(0 7.48471e-15 0 4.44089e-14 3.42449e-14 0 0 0 0)
(-2.71051e-14 -1.40721e-14 0 4.44089e-14 2.20435e-14 0 0 0 0)
)
;
    }
    frontAndBack
    {
        type            empty;
    }
}


// ************************************************************************* //
