/*--------------------------------*- C++ -*----------------------------------*\
| =========                 |                                                 |
| \\      /  F ield         | OpenFOAM: The Open Source CFD Toolbox           |
|  \\    /   O peration     | Version:  2506                                  |
|   \\  /    A nd           | Website:  www.openfoam.com                      |
|    \\/     M anipulation  |                                                 |
\*---------------------------------------------------------------------------*/
FoamFile
{
    version     2.0;
    format      ascii;
    arch        "LSB;label=32;scalar=64";
    class       volScalarField;
    location    "9";
    object      initialResidual:epsilon;
}
// * * * * * * * * * * * * * * * * * * * * * * * * * * * * * * * * * * * * * //

dimensions      [0 0 0 0 0 0 0];

internalField   nonuniform List<scalar> 
400
(
0
0
0
0
0
0
0
0
0
0
0
0
0
0
0
0
0
0
0
0
0
-9.15127e-14
-9.14224e-14
-9.13857e-14
-9.1576e-14
-9.15685e-14
-9.1668e-14
-9.17359e-14
-9.17882e-14
-9.18799e-14
-9.19288e-14
-9.20168e-14
-9.20753e-14
-9.21578e-14
-9.22208e-14
-9.23011e-14
-9.23634e-14
-9.24324e-14
-1.84864e-13
0
0
-9.68359e-14
-9.67439e-14
-9.66935e-14
-9.69169e-14
-9.69015e-14
-9.70115e-14
-9.70898e-14
-9.71406e-14
-9.72479e-14
-9.72942e-14
-9.73965e-14
-9.74544e-14
-9.75493e-14
-9.76124e-14
-9.77044e-14
-9.77656e-14
-9.78433e-14
-1.95883e-13
0
0
-1.02542e-13
-1.0245e-13
-1.02395e-13
-1.02634e-13
-1.02618e-13
-1.02736e-13
-1.02819e-13
-1.02874e-13
-1.02989e-13
-1.03038e-13
-1.03148e-13
-1.0321e-13
-1.03312e-13
-1.03379e-13
-1.03478e-13
-1.03543e-13
-1.03628e-13
-2.0746e-13
0
0
-1.07212e-13
-1.0712e-13
-1.07061e-13
-1.07312e-13
-1.07296e-13
-1.0742e-13
-1.07509e-13
-1.07567e-13
-1.07688e-13
-1.07741e-13
-1.07857e-13
-1.07922e-13
-1.0803e-13
-1.08102e-13
-1.08206e-13
-1.08275e-13
-1.08364e-13
-2.16941e-13
0
0
-1.10505e-13
-1.10401e-13
-1.10344e-13
-1.10606e-13
-1.10589e-13
-1.10718e-13
-1.1081e-13
-1.10871e-13
-1.10996e-13
-1.11052e-13
-1.11171e-13
-1.1124e-13
-1.11351e-13
-1.11426e-13
-1.11534e-13
-1.11606e-13
-1.11699e-13
-2.23617e-13
0
0
-1.12611e-13
-1.12504e-13
-1.12447e-13
-1.12714e-13
-1.12697e-13
-1.1283e-13
-1.12924e-13
-1.12986e-13
-1.13115e-13
-1.13171e-13
-1.13294e-13
-1.13365e-13
-1.13478e-13
-1.13555e-13
-1.13666e-13
-1.1374e-13
-1.13835e-13
-2.27895e-13
0
0
-1.13905e-13
-1.13801e-13
-1.13742e-13
-1.14013e-13
-1.13996e-13
-1.14131e-13
-1.14225e-13
-1.14289e-13
-1.14419e-13
-1.14478e-13
-1.14601e-13
-1.14674e-13
-1.14789e-13
-1.14867e-13
-1.14979e-13
-1.15055e-13
-1.15151e-13
-2.3053e-13
0
0
-1.14726e-13
-1.1462e-13
-1.14562e-13
-1.14835e-13
-1.14817e-13
-1.14954e-13
-1.15049e-13
-1.15114e-13
-1.15245e-13
-1.15304e-13
-1.15429e-13
-1.15502e-13
-1.15618e-13
-1.15697e-13
-1.1581e-13
-1.15887e-13
-1.15983e-13
-2.32198e-13
0
0
-1.15298e-13
-1.15193e-13
-1.15134e-13
-1.15408e-13
-1.15391e-13
-1.15528e-13
-1.15625e-13
-1.15689e-13
-1.15821e-13
-1.1588e-13
-1.16007e-13
-1.1608e-13
-1.16197e-13
-1.16276e-13
-1.16391e-13
-1.16467e-13
-1.16565e-13
-2.33362e-13
0
0
-1.15758e-13
-1.15659e-13
-1.15597e-13
-1.15872e-13
-1.15855e-13
-1.15993e-13
-1.16089e-13
-1.16155e-13
-1.16287e-13
-1.16347e-13
-1.16474e-13
-1.16547e-13
-1.16665e-13
-1.16745e-13
-1.1686e-13
-1.16937e-13
-1.17034e-13
-2.34303e-13
0
0
-1.16193e-13
-1.16087e-13
-1.16028e-13
-1.16304e-13
-1.16287e-13
-1.16426e-13
-1.16523e-13
-1.16589e-13
-1.16721e-13
-1.16782e-13
-1.16908e-13
-1.16983e-13
-1.17101e-13
-1.17182e-13
-1.17296e-13
-1.17374e-13
-1.17472e-13
-2.3518e-13
0
0
-1.16634e-13
-1.16532e-13
-1.16471e-13
-1.16748e-13
-1.16731e-13
-1.1687e-13
-1.16968e-13
-1.17034e-13
-1.17167e-13
-1.17228e-13
-1.17356e-13
-1.1743e-13
-1.17549e-13
-1.1763e-13
-1.17745e-13
-1.17823e-13
-1.17922e-13
-2.3608e-13
0
0
-1.17112e-13
-1.17013e-13
-1.1695e-13
-1.17229e-13
-1.17212e-13
-1.17352e-13
-1.1745e-13
-1.17516e-13
-1.17651e-13
-1.17711e-13
-1.1784e-13
-1.17915e-13
-1.18034e-13
-1.18115e-13
-1.18231e-13
-1.1831e-13
-1.18409e-13
-2.37055e-13
0
0
-1.17644e-13
-1.1754e-13
-1.17479e-13
-1.17759e-13
-1.17742e-13
-1.17882e-13
-1.17981e-13
-1.18048e-13
-1.18183e-13
-1.18244e-13
-1.18373e-13
-1.18448e-13
-1.18569e-13
-1.1865e-13
-1.18767e-13
-1.18846e-13
-1.18945e-13
-2.38129e-13
0
0
-1.18219e-13
-1.18113e-13
-1.18053e-13
-1.18334e-13
-1.18317e-13
-1.18459e-13
-1.18558e-13
-1.18625e-13
-1.18761e-13
-1.18822e-13
-1.18952e-13
-1.19028e-13
-1.19149e-13
-1.19231e-13
-1.19348e-13
-1.19428e-13
-1.19528e-13
-2.39295e-13
0
0
-1.18811e-13
-1.18708e-13
-1.18646e-13
-1.18929e-13
-1.18912e-13
-1.19054e-13
-1.19154e-13
-1.19222e-13
-1.19358e-13
-1.19421e-13
-1.19551e-13
-1.19628e-13
-1.19748e-13
-1.19832e-13
-1.19949e-13
-1.2003e-13
-1.2013e-13
-2.40501e-13
0
0
-1.19371e-13
-1.19265e-13
-1.19205e-13
-1.19488e-13
-1.19472e-13
-1.19615e-13
-1.19714e-13
-1.19784e-13
-1.1992e-13
-1.19984e-13
-1.20113e-13
-1.20192e-13
-1.20312e-13
-1.20397e-13
-1.20514e-13
-1.20597e-13
-1.20696e-13
-2.41635e-13
0
0
-1.20123e-13
-1.20003e-13
-1.1992e-13
-1.2023e-13
-1.20195e-13
-1.2034e-13
-1.20442e-13
-1.20499e-13
-1.20646e-13
-1.20694e-13
-1.20837e-13
-1.20901e-13
-1.21034e-13
-1.21105e-13
-1.21234e-13
-1.21304e-13
-1.2141e-13
-2.428e-13
0
0
0
0
0
0
0
0
0
0
0
0
0
0
0
0
0
0
0
0
0
)
;

boundaryField
{
    movingWall
    {
        type            zeroGradient;
    }
    fixedWalls
    {
        type            zeroGradient;
    }
    frontAndBack
    {
        type            empty;
    }
}


// ************************************************************************* //
