/*--------------------------------*- C++ -*----------------------------------*\
| =========                 |                                                 |
| \\      /  F ield         | OpenFOAM: The Open Source CFD Toolbox           |
|  \\    /   O peration     | Version:  2506                                  |
|   \\  /    A nd           | Website:  www.openfoam.com                      |
|    \\/     M anipulation  |                                                 |
\*---------------------------------------------------------------------------*/
FoamFile
{
    version     2.0;
    format      ascii;
    arch        "LSB;label=32;scalar=64";
    class       volScalarField;
    location    "9";
    object      initialResidual:Uy;
}
// * * * * * * * * * * * * * * * * * * * * * * * * * * * * * * * * * * * * * //

dimensions      [0 0 0 0 0 0 0];

internalField   nonuniform List<scalar> 
400
(
-9.19647e-21
-1.33738e-20
-2.20786e-21
-5.15975e-21
4.76917e-23
-2.64266e-21
-1.83924e-21
1.83209e-22
-4.57858e-21
-2.11645e-22
5.11722e-21
7.19015e-21
4.18478e-23
-7.55091e-21
-5.60894e-21
-3.35538e-21
-1.33798e-21
2.59281e-21
1.52324e-21
-1.18181e-21
-5.49443e-20
-9.61533e-21
-6.06263e-21
-2.23753e-21
-9.72796e-22
-6.42568e-21
-7.72985e-21
-2.55348e-21
-4.35711e-21
-4.26603e-21
-3.96832e-22
8.21816e-21
3.93405e-21
-3.30563e-21
-5.27519e-21
-1.89811e-22
2.52776e-21
3.70789e-21
-4.27534e-21
-1.98199e-21
-6.13411e-20
-5.56365e-21
-1.13719e-20
-4.61949e-21
-9.66232e-21
-8.04769e-21
-6.31666e-21
-2.33159e-21
3.63896e-21
-5.53236e-23
-4.53842e-21
-3.17496e-21
3.24175e-23
6.61847e-21
-8.96178e-22
-2.13171e-21
3.42017e-21
5.22261e-21
-2.66664e-21
-4.07781e-22
-1.41999e-20
-2.13146e-20
-1.35167e-20
-1.4593e-20
-1.15391e-20
-5.35399e-21
-1.3107e-21
-4.78296e-21
-1.68924e-21
8.92515e-22
-3.30898e-21
-4.23692e-21
-1.00338e-22
5.60154e-21
1.67281e-22
-1.09761e-20
-7.00033e-21
-2.69429e-22
1.15195e-21
-1.05175e-21
-1.36349e-20
-1.43718e-20
-1.61073e-20
-1.3184e-20
-7.19134e-21
-6.25736e-21
-4.18684e-21
-2.35409e-21
-4.12282e-21
-9.47219e-21
-1.00812e-20
-3.03364e-21
-6.9526e-21
-9.01341e-21
-1.11162e-21
-4.93656e-21
-6.72372e-21
-3.81294e-21
-4.59817e-21
-3.0945e-21
-2.34183e-20
-5.17862e-21
-1.34767e-20
-6.73579e-21
-2.36849e-21
-4.02718e-21
-2.23038e-21
1.92025e-22
-6.30264e-21
-9.04362e-21
-1.02092e-20
-1.44417e-20
-1.82927e-20
-1.48341e-20
-3.30097e-21
-7.7868e-22
-4.92025e-22
-1.3159e-21
-7.11164e-21
-2.73726e-21
-2.92666e-20
-6.73456e-21
-6.49376e-21
-3.7286e-21
-4.49573e-21
-2.86726e-21
9.86071e-23
8.59332e-22
-3.63298e-21
-6.54798e-21
-1.20012e-20
-1.89005e-20
-1.17401e-20
-7.9529e-21
-5.25901e-21
-2.57517e-21
5.24362e-22
-3.94289e-21
-7.20519e-21
-2.77571e-21
-1.80618e-20
-3.82073e-21
-1.09001e-22
-1.93413e-21
-5.98199e-21
-5.99768e-21
-8.38924e-21
-6.56879e-21
-2.39337e-21
-4.17499e-21
-5.98733e-21
-1.08692e-20
-8.03636e-21
-3.23115e-21
-5.25159e-21
-2.04377e-21
-1.20925e-21
-1.63197e-21
-3.98681e-21
-1.98624e-21
8.64131e-21
-4.42642e-21
7.44705e-22
-2.87312e-21
-4.03576e-21
-4.96284e-21
-9.79571e-21
-1.06959e-20
-6.8881e-21
-8.50245e-22
1.236e-21
-4.04417e-21
-6.8352e-21
-2.58231e-22
2.12688e-21
2.2457e-21
-2.04005e-21
-1.55139e-21
-1.89453e-21
-1.87919e-21
-8.04915e-21
-4.96732e-22
-3.14848e-21
7.34042e-22
-3.65436e-21
-8.85858e-21
-7.22726e-21
-3.61427e-21
-1.82195e-21
-8.32504e-22
1.29951e-21
5.04715e-23
-4.43472e-21
-3.65505e-21
5.27591e-22
2.08381e-21
-1.61405e-22
7.18795e-22
-1.07913e-21
-2.61282e-21
-5.52663e-20
1.91593e-20
-5.50086e-21
5.07644e-21
-5.71182e-21
-1.16133e-20
-3.6468e-21
3.74538e-22
-4.13171e-22
3.0689e-21
7.085e-21
4.30656e-21
-3.9453e-21
-5.25227e-21
-6.31019e-21
1.14013e-21
5.49257e-21
4.4549e-21
-3.32919e-21
-1.543e-21
2.86907e-20
-1.22829e-20
-2.17324e-21
-1.32909e-20
-1.62155e-20
-4.26386e-21
5.70831e-21
5.89179e-21
6.25483e-21
1.834e-21
-7.26328e-22
-5.13084e-22
-1.57027e-21
-1.23411e-21
-7.72766e-22
8.1702e-21
6.3076e-21
-2.41281e-21
-5.29114e-21
6.55263e-22
6.11807e-21
-1.03158e-20
-6.53363e-21
-1.09474e-20
-3.48212e-21
5.60297e-22
1.59848e-21
-6.85719e-23
2.62481e-21
-1.19858e-21
-5.07552e-21
-3.87662e-21
1.51595e-21
2.87769e-21
1.88247e-21
6.95953e-21
3.92461e-21
-4.16284e-22
-1.0997e-21
3.40475e-23
-3.41907e-20
2.81749e-21
-6.4228e-21
-4.62501e-21
1.42688e-21
-3.96041e-21
-3.85564e-21
5.12988e-22
1.32223e-21
6.43038e-21
1.71861e-21
-1.98735e-21
1.26111e-21
3.14561e-21
1.7662e-21
1.80331e-21
4.20661e-21
1.49096e-21
-6.45053e-23
-6.02238e-22
1.03903e-20
-1.47675e-20
1.47223e-21
-2.39091e-21
1.6855e-21
2.65805e-21
1.37723e-21
1.14102e-21
-7.07402e-22
3.69378e-21
4.33524e-21
-4.77817e-22
-1.10032e-21
2.40776e-21
6.71594e-21
-2.15798e-21
-3.13585e-21
6.65385e-22
4.1696e-21
1.17916e-21
-4.37449e-20
1.48977e-20
-1.3865e-21
6.81329e-21
6.51283e-21
2.38017e-21
-3.45797e-21
4.16359e-22
3.781e-21
2.50691e-21
4.57728e-21
1.16022e-22
1.60864e-21
1.52639e-21
2.27093e-21
-6.94611e-21
-4.63482e-21
5.40432e-21
4.95567e-21
8.45612e-22
-6.99662e-22
-1.6863e-21
2.69994e-21
3.69008e-21
5.78733e-22
3.20738e-21
-7.2742e-22
3.0978e-21
1.06462e-20
5.93222e-21
5.1899e-21
-3.0128e-22
-3.10742e-22
-2.15019e-21
-5.46613e-21
-5.22217e-21
-3.2835e-22
2.85223e-21
4.15146e-21
5.13406e-22
1.37979e-20
-1.01823e-20
-2.31556e-21
-3.9132e-21
9.93628e-23
1.02812e-20
6.33202e-21
-3.31773e-23
-1.47503e-21
2.43755e-21
2.28401e-21
1.65558e-21
-3.83627e-21
-1.13628e-21
8.29744e-22
2.95407e-21
4.75365e-22
-3.98422e-21
2.41013e-21
-1.85128e-21
-2.12359e-21
-7.28525e-21
-6.18392e-21
1.32712e-21
7.05297e-21
5.01163e-21
1.77386e-21
3.65824e-22
-4.57298e-21
-4.97405e-21
-1.95141e-21
5.06101e-21
6.3805e-21
3.04871e-21
4.04914e-21
6.04714e-21
4.02526e-22
-5.45586e-21
-5.39834e-21
-2.12392e-21
7.58168e-21
-1.40792e-20
-8.26747e-22
7.01929e-21
7.58121e-21
1.28544e-21
4.32848e-22
1.13595e-21
-1.26996e-21
-6.37682e-21
1.67768e-23
4.66398e-21
6.5492e-21
-1.38046e-22
-9.50908e-22
1.92129e-21
2.15887e-22
-1.0421e-21
-3.04021e-21
5.11759e-23
)
;

boundaryField
{
    movingWall
    {
        type            zeroGradient;
    }
    fixedWalls
    {
        type            zeroGradient;
    }
    frontAndBack
    {
        type            empty;
    }
}


// ************************************************************************* //
