/*--------------------------------*- C++ -*----------------------------------*\
| =========                 |                                                 |
| \\      /  F ield         | OpenFOAM: The Open Source CFD Toolbox           |
|  \\    /   O peration     | Version:  2506                                  |
|   \\  /    A nd           | Website:  www.openfoam.com                      |
|    \\/     M anipulation  |                                                 |
\*---------------------------------------------------------------------------*/
FoamFile
{
    version     2.0;
    format      ascii;
    arch        "LSB;label=32;scalar=64";
    class       volScalarField;
    location    "9";
    object      initialResidual:p;
}
// * * * * * * * * * * * * * * * * * * * * * * * * * * * * * * * * * * * * * //

dimensions      [0 0 0 0 0 0 0];

internalField   nonuniform List<scalar> 
400
(
-1.55854e-19
5.84022e-20
8.62238e-21
3.17749e-21
-1.55681e-20
3.23406e-21
-1.0303e-20
1.20109e-20
-2.81636e-21
-8.0797e-21
3.3733e-21
4.81278e-21
1.4515e-20
-5.86326e-21
3.39888e-21
5.78276e-21
-1.4187e-20
9.00475e-22
1.32912e-20
-1.35525e-20
-1.35523e-20
1.3715e-20
-1.23435e-20
-2.66027e-21
8.8428e-21
-6.53754e-21
8.15387e-21
-8.40679e-21
2.0014e-20
-3.24812e-22
1.21946e-20
7.53424e-21
-1.30848e-20
8.61368e-21
5.57978e-21
-1.24123e-20
1.66486e-20
-1.16754e-20
1.68576e-20
2.09643e-26
-6.77642e-21
2.81621e-20
-3.07559e-20
-2.35585e-20
1.09538e-20
1.54618e-20
4.54893e-21
-1.65256e-21
1.39813e-20
1.32479e-20
-8.13916e-21
-7.60077e-22
3.57122e-22
1.98004e-21
5.29768e-21
2.93145e-21
6.14789e-21
-3.2808e-20
1.46422e-20
6.77627e-21
-2.03288e-20
4.66896e-21
-4.06159e-22
-1.02409e-20
7.33033e-21
3.03576e-21
-2.56086e-21
2.64054e-21
-5.14941e-21
-6.55038e-21
-1.2334e-20
-1.66774e-20
4.29762e-21
1.20484e-20
-3.08911e-21
-1.30335e-20
-4.28433e-21
4.09308e-21
-2.00458e-21
-6.77624e-21
-9.11895e-26
1.01417e-20
-1.72052e-20
-7.79152e-21
2.23164e-20
-5.40304e-21
-1.78001e-20
-1.08509e-20
1.43359e-20
2.54468e-20
-4.34756e-21
-2.35952e-20
-9.56216e-21
-2.25947e-20
3.70858e-21
-2.83445e-21
-3.50915e-21
1.74453e-20
-3.98223e-21
6.77627e-21
1.14355e-26
1.50458e-20
-1.38833e-20
9.17276e-21
-2.72715e-21
1.14359e-20
-2.02387e-21
-1.66476e-20
-1.55062e-20
1.74275e-20
9.8086e-21
-6.69339e-21
1.12776e-21
6.20083e-21
-9.76849e-21
4.82344e-21
-8.45159e-21
1.69812e-20
2.49111e-21
1.91422e-26
6.77613e-21
7.33868e-21
2.95023e-21
1.70449e-20
-1.86293e-20
2.32323e-21
-4.55489e-21
9.16514e-21
2.40805e-21
-1.5048e-20
-4.40401e-21
-1.15936e-20
7.47904e-21
2.24392e-20
2.14235e-21
4.16709e-21
-1.97068e-21
3.83256e-21
-9.51673e-21
6.77626e-21
8.03534e-26
-8.33897e-21
1.23565e-20
-3.82986e-21
-1.245e-20
-6.47262e-21
1.33366e-20
-1.9734e-20
2.23896e-20
1.65303e-20
-4.12967e-21
7.27065e-21
-5.85907e-21
1.28846e-20
6.74741e-21
7.2496e-21
5.36038e-21
-1.94819e-21
-3.30271e-21
1.40457e-26
6.77609e-21
1.05834e-20
-2.23314e-21
-1.03505e-20
-6.00287e-21
1.93979e-22
-3.3819e-22
9.38527e-22
1.10821e-20
6.51838e-21
1.33594e-20
-2.07689e-21
4.5044e-21
-7.58166e-21
7.39308e-21
-1.38022e-20
6.15663e-21
1.26373e-20
1.37297e-20
-6.77628e-21
-6.77622e-21
-4.02184e-21
-1.60469e-20
-7.73986e-21
2.28597e-20
-9.54881e-22
9.85445e-21
-2.92748e-22
1.39233e-20
1.82881e-21
1.37004e-21
5.7819e-21
-3.4722e-21
-9.25757e-21
-7.31899e-21
-4.82101e-21
8.92528e-22
1.37054e-20
-2.49489e-21
6.77627e-21
-1.35526e-20
6.90337e-21
-1.96731e-20
1.11198e-21
-3.12762e-22
1.16942e-20
1.52258e-20
-3.45885e-21
1.73386e-21
7.61541e-21
8.88183e-21
-1.23358e-20
-1.15463e-21
5.40423e-21
6.63135e-21
-1.05482e-20
2.56946e-21
7.49411e-21
-8.45396e-21
6.77625e-21
-6.77636e-21
5.11593e-21
-1.12954e-20
1.26972e-20
2.12086e-23
6.36126e-21
1.77702e-20
-1.81068e-20
3.31371e-21
1.38147e-20
4.38816e-21
-1.51967e-20
-6.3831e-22
1.49886e-21
3.12562e-21
-1.16188e-21
2.68005e-21
-3.18654e-21
4.26285e-21
-3.25273e-27
-3.38813e-20
2.18421e-20
-8.31207e-22
-1.2478e-20
1.268e-21
1.34177e-20
-6.84137e-23
2.60164e-23
2.10349e-20
-6.54057e-21
-7.9678e-21
-2.04818e-20
2.31339e-20
9.53272e-21
1.91682e-21
9.61483e-21
-1.21979e-20
1.44626e-21
7.69246e-21
-2.02861e-26
-1.35527e-20
-3.51611e-21
1.35747e-20
-1.51285e-21
-4.59175e-22
-1.16432e-21
-8.36916e-21
2.88833e-21
-5.26619e-21
4.19698e-21
8.7955e-21
-7.12214e-21
8.03505e-21
-4.02632e-21
-1.11634e-20
1.36223e-20
-5.20602e-21
-6.25636e-21
1.35777e-20
-6.77627e-21
1.35524e-20
-1.53191e-22
7.14053e-21
-4.062e-21
-4.57852e-21
-4.95772e-21
2.25844e-20
-5.77184e-21
1.54766e-20
-4.91829e-21
-1.06452e-20
-5.72627e-21
7.54155e-21
-1.933e-20
8.36746e-22
1.12592e-20
-2.11803e-20
9.47213e-21
1.02082e-20
6.77625e-21
-6.77626e-21
1.20018e-20
-1.07552e-20
1.06408e-20
1.06653e-20
8.74167e-21
1.96514e-20
-2.47112e-20
-6.12561e-22
-2.54316e-21
-4.42772e-21
1.23204e-20
-4.59323e-22
-7.6622e-21
1.25862e-20
-2.49341e-21
-1.39925e-20
1.05732e-20
1.37468e-21
-1.53646e-26
1.35523e-20
3.74718e-21
-1.55666e-22
-1.14696e-20
1.56609e-20
-8.99185e-21
-3.71671e-21
1.05642e-20
-2.87397e-21
1.99543e-21
-6.13733e-21
7.09516e-21
1.25585e-20
-1.49694e-21
-9.62133e-21
-1.59351e-21
1.43611e-20
-1.98437e-20
9.38416e-21
-6.77628e-21
-6.77632e-21
1.84984e-21
-7.27138e-21
-5.56754e-21
1.01973e-20
-8.66047e-21
1.79477e-21
5.45391e-21
-2.4341e-21
7.77834e-21
1.50778e-20
-1.14832e-20
6.66476e-21
-1.24542e-20
-3.96577e-21
2.48206e-21
5.98023e-21
-1.72215e-20
1.91971e-20
-1.78175e-26
6.77626e-21
1.48092e-20
-1.38735e-20
-9.55919e-21
-7.35504e-21
1.56105e-20
7.52958e-21
-3.28833e-22
1.13243e-20
-1.0109e-20
8.69212e-21
-2.25607e-20
1.23687e-20
2.18143e-21
1.19089e-21
1.9078e-21
-2.17974e-20
4.14163e-21
3.25357e-21
6.77625e-21
1.35524e-20
-6.77623e-21
6.77624e-21
-1.63834e-26
-2.03288e-20
-6.77628e-21
6.77624e-21
6.77625e-21
-1.81357e-26
1.35525e-20
-1.74166e-26
-6.77628e-21
-6.77628e-21
-6.77628e-21
-6.77628e-21
-1.56008e-26
6.77625e-21
1.35525e-20
6.77625e-21
2.67794e-27
)
;

boundaryField
{
    movingWall
    {
        type            zeroGradient;
    }
    fixedWalls
    {
        type            zeroGradient;
    }
    frontAndBack
    {
        type            empty;
    }
}


// ************************************************************************* //
