/*--------------------------------*- C++ -*----------------------------------*\
| =========                 |                                                 |
| \\      /  F ield         | OpenFOAM: The Open Source CFD Toolbox           |
|  \\    /   O peration     | Version:  2506                                  |
|   \\  /    A nd           | Website:  www.openfoam.com                      |
|    \\/     M anipulation  |                                                 |
\*---------------------------------------------------------------------------*/
FoamFile
{
    version     2.0;
    format      ascii;
    arch        "LSB;label=32;scalar=64";
    class       volScalarField;
    location    "9";
    object      initialResidual:k;
}
// * * * * * * * * * * * * * * * * * * * * * * * * * * * * * * * * * * * * * //

dimensions      [0 0 0 0 0 0 0];

internalField   nonuniform List<scalar> 
400
(
-2.10259e-13
-2.10288e-13
-2.10247e-13
-2.10306e-13
-2.10229e-13
-2.10306e-13
-2.10228e-13
-2.103e-13
-2.10243e-13
-2.10299e-13
-2.10235e-13
-2.103e-13
-2.10239e-13
-2.10291e-13
-2.1025e-13
-2.10277e-13
-2.10265e-13
-2.10269e-13
-2.10268e-13
-2.10268e-13
-2.17068e-13
-2.17481e-13
-2.16813e-13
-2.17568e-13
-2.16643e-13
-2.17377e-13
-2.16684e-13
-2.17461e-13
-2.16548e-13
-2.17756e-13
-2.16378e-13
-2.17741e-13
-2.16397e-13
-2.17572e-13
-2.16567e-13
-2.17322e-13
-2.1681e-13
-2.17031e-13
-2.17023e-13
-2.1704e-13
-2.27677e-13
-2.2698e-13
-2.28046e-13
-2.27536e-13
-2.27703e-13
-2.27434e-13
-2.27579e-13
-2.27513e-13
-2.27495e-13
-2.27535e-13
-2.27494e-13
-2.27485e-13
-2.2752e-13
-2.27486e-13
-2.27536e-13
-2.27485e-13
-2.27528e-13
-2.27507e-13
-2.27511e-13
-2.27499e-13
-2.38098e-13
-2.37339e-13
-2.38474e-13
-2.38046e-13
-2.38171e-13
-2.37923e-13
-2.38076e-13
-2.38045e-13
-2.37959e-13
-2.37913e-13
-2.37993e-13
-2.37931e-13
-2.37995e-13
-2.37957e-13
-2.37996e-13
-2.37959e-13
-2.37996e-13
-2.37977e-13
-2.3798e-13
-2.37964e-13
-2.46319e-13
-2.46466e-13
-2.46383e-13
-2.45952e-13
-2.46492e-13
-2.46119e-13
-2.46462e-13
-2.46135e-13
-2.46295e-13
-2.46279e-13
-2.46206e-13
-2.46259e-13
-2.46232e-13
-2.46267e-13
-2.46262e-13
-2.46247e-13
-2.46288e-13
-2.46251e-13
-2.46253e-13
-2.4624e-13
-2.51949e-13
-2.51167e-13
-2.52437e-13
-2.5192e-13
-2.51979e-13
-2.51905e-13
-2.51928e-13
-2.5188e-13
-2.51856e-13
-2.52557e-13
-2.51345e-13
-2.52248e-13
-2.51507e-13
-2.5213e-13
-2.51634e-13
-2.52042e-13
-2.51729e-13
-2.51855e-13
-2.51857e-13
-2.51866e-13
-2.55438e-13
-2.54653e-13
-2.55944e-13
-2.55383e-13
-2.55494e-13
-2.55323e-13
-2.55452e-13
-2.55331e-13
-2.55425e-13
-2.55363e-13
-2.55428e-13
-2.55434e-13
-2.55193e-13
-2.55299e-13
-2.55515e-13
-2.55335e-13
-2.55396e-13
-2.55359e-13
-2.55369e-13
-2.55352e-13
-2.57553e-13
-2.56711e-13
-2.58001e-13
-2.57491e-13
-2.5754e-13
-2.57495e-13
-2.57488e-13
-2.57655e-13
-2.57284e-13
-2.58133e-13
-2.56899e-13
-2.57773e-13
-2.571e-13
-2.57728e-13
-2.57187e-13
-2.57635e-13
-2.5729e-13
-2.57429e-13
-2.57431e-13
-2.5744e-13
-2.58818e-13
-2.57986e-13
-2.59323e-13
-2.58787e-13
-2.58845e-13
-2.58781e-13
-2.58795e-13
-2.5881e-13
-2.58748e-13
-2.59397e-13
-2.58218e-13
-2.59272e-13
-2.58249e-13
-2.59109e-13
-2.58403e-13
-2.58968e-13
-2.58556e-13
-2.58729e-13
-2.58727e-13
-2.58739e-13
-2.59787e-13
-2.58975e-13
-2.60274e-13
-2.59682e-13
-2.59899e-13
-2.59562e-13
-2.59755e-13
-2.59693e-13
-2.59682e-13
-2.59692e-13
-2.59671e-13
-2.59676e-13
-2.59669e-13
-2.59626e-13
-2.59685e-13
-2.59625e-13
-2.59677e-13
-2.59657e-13
-2.59662e-13
-2.59648e-13
-2.60607e-13
-2.59815e-13
-2.61077e-13
-2.60361e-13
-2.60584e-13
-2.60334e-13
-2.60471e-13
-2.60376e-13
-2.60403e-13
-2.60463e-13
-2.60384e-13
-2.60391e-13
-2.60434e-13
-2.60385e-13
-2.60441e-13
-2.60379e-13
-2.60429e-13
-2.60403e-13
-2.60408e-13
-2.60394e-13
-2.61211e-13
-2.60359e-13
-2.61693e-13
-2.61156e-13
-2.61203e-13
-2.61162e-13
-2.61144e-13
-2.61377e-13
-2.60887e-13
-2.61901e-13
-2.6046e-13
-2.61524e-13
-2.60671e-13
-2.61461e-13
-2.60779e-13
-2.61331e-13
-2.60918e-13
-2.6109e-13
-2.61089e-13
-2.61101e-13
-2.62051e-13
-2.61175e-13
-2.6246e-13
-2.61893e-13
-2.62084e-13
-2.61779e-13
-2.61906e-13
-2.61876e-13
-2.61858e-13
-2.6187e-13
-2.61847e-13
-2.61812e-13
-2.61878e-13
-2.61825e-13
-2.61883e-13
-2.61821e-13
-2.6187e-13
-2.61848e-13
-2.61853e-13
-2.61837e-13
-2.62727e-13
-2.62914e-13
-2.62689e-13
-2.62458e-13
-2.62803e-13
-2.62652e-13
-2.6272e-13
-2.62634e-13
-2.62713e-13
-2.62615e-13
-2.62705e-13
-2.62626e-13
-2.62668e-13
-2.62609e-13
-2.62668e-13
-2.62654e-13
-2.62698e-13
-2.62667e-13
-2.62663e-13
-2.62643e-13
-2.63595e-13
-2.64037e-13
-2.63467e-13
-2.63184e-13
-2.63793e-13
-2.63479e-13
-2.63647e-13
-2.63552e-13
-2.63589e-13
-2.6359e-13
-2.63524e-13
-2.63546e-13
-2.63538e-13
-2.63568e-13
-2.63569e-13
-2.63545e-13
-2.63594e-13
-2.63547e-13
-2.6355e-13
-2.63537e-13
-2.64587e-13
-2.64081e-13
-2.65103e-13
-2.64465e-13
-2.6464e-13
-2.64561e-13
-2.64608e-13
-2.64514e-13
-2.64597e-13
-2.64503e-13
-2.6456e-13
-2.64507e-13
-2.64499e-13
-2.64645e-13
-2.64459e-13
-2.64612e-13
-2.64512e-13
-2.64518e-13
-2.6451e-13
-2.64515e-13
-2.65635e-13
-2.65603e-13
-2.65491e-13
-2.65611e-13
-2.65618e-13
-2.6561e-13
-2.65524e-13
-2.65984e-13
-2.65161e-13
-2.66412e-13
-2.64747e-13
-2.66676e-13
-2.64467e-13
-2.66388e-13
-2.64654e-13
-2.66073e-13
-2.65063e-13
-2.65586e-13
-2.65467e-13
-2.65534e-13
-2.66584e-13
-2.66336e-13
-2.66631e-13
-2.6734e-13
-2.6592e-13
-2.67515e-13
-2.65587e-13
-2.67472e-13
-2.65548e-13
-2.6751e-13
-2.65497e-13
-2.6758e-13
-2.65482e-13
-2.67312e-13
-2.65744e-13
-2.66936e-13
-2.66129e-13
-2.66489e-13
-2.66468e-13
-2.66499e-13
-2.67303e-13
-2.67651e-13
-2.67139e-13
-2.67095e-13
-2.67451e-13
-2.67358e-13
-2.67406e-13
-2.67204e-13
-2.67328e-13
-2.67195e-13
-2.67306e-13
-2.67271e-13
-2.67317e-13
-2.67273e-13
-2.67324e-13
-2.67278e-13
-2.67327e-13
-2.67291e-13
-2.67291e-13
-2.6727e-13
-2.67729e-13
-2.67682e-13
-2.67695e-13
-2.67707e-13
-2.67697e-13
-2.6771e-13
-2.67696e-13
-2.67706e-13
-2.67711e-13
-2.67703e-13
-2.67705e-13
-2.67708e-13
-2.677e-13
-2.67704e-13
-2.67702e-13
-2.67705e-13
-2.67703e-13
-2.67704e-13
-2.67703e-13
-2.67703e-13
)
;

boundaryField
{
    movingWall
    {
        type            zeroGradient;
    }
    fixedWalls
    {
        type            zeroGradient;
    }
    frontAndBack
    {
        type            empty;
    }
}


// ************************************************************************* //
