/*--------------------------------*- C++ -*----------------------------------*\
| =========                 |                                                 |
| \\      /  F ield         | OpenFOAM: The Open Source CFD Toolbox           |
|  \\    /   O peration     | Version:  2506                                  |
|   \\  /    A nd           | Website:  www.openfoam.com                      |
|    \\/     M anipulation  |                                                 |
\*---------------------------------------------------------------------------*/
FoamFile
{
    version     2.0;
    format      ascii;
    arch        "LSB;label=32;scalar=64";
    class       volScalarField;
    location    "9";
    object      kDiff;
}
// * * * * * * * * * * * * * * * * * * * * * * * * * * * * * * * * * * * * * //

dimensions      [0 2 -2 0 0 0 0];

internalField   nonuniform List<scalar> 
400
(
-4.19972e-09
-4.19997e-09
-4.19953e-09
-4.20017e-09
-4.19948e-09
-4.20001e-09
-4.19948e-09
-4.2e-09
-4.19961e-09
-4.19996e-09
-4.19954e-09
-4.19998e-09
-4.19954e-09
-4.19993e-09
-4.19962e-09
-4.19984e-09
-4.19973e-09
-4.19977e-09
-4.19976e-09
-4.19976e-09
-4.33728e-09
-4.33919e-09
-4.33265e-09
-4.34128e-09
-4.32861e-09
-4.34031e-09
-4.32955e-09
-4.34033e-09
-4.32889e-09
-4.34273e-09
-4.32721e-09
-4.34265e-09
-4.32768e-09
-4.34109e-09
-4.32945e-09
-4.33865e-09
-4.33176e-09
-4.33572e-09
-4.33452e-09
-4.33483e-09
-4.54454e-09
-4.5379e-09
-4.55676e-09
-4.53854e-09
-4.55064e-09
-4.53787e-09
-4.54989e-09
-4.53834e-09
-4.54884e-09
-4.53877e-09
-4.54839e-09
-4.53854e-09
-4.5485e-09
-4.53927e-09
-4.54761e-09
-4.54054e-09
-4.54601e-09
-4.54241e-09
-4.54391e-09
-4.54347e-09
-4.75241e-09
-4.74505e-09
-4.76637e-09
-4.74748e-09
-4.76033e-09
-4.74646e-09
-4.76041e-09
-4.74658e-09
-4.75816e-09
-4.74535e-09
-4.75935e-09
-4.74554e-09
-4.7589e-09
-4.74698e-09
-4.7573e-09
-4.74886e-09
-4.75532e-09
-4.75106e-09
-4.75284e-09
-4.7523e-09
-4.92003e-09
-4.91942e-09
-4.91952e-09
-4.91125e-09
-4.92684e-09
-4.90969e-09
-4.92721e-09
-4.90909e-09
-4.92651e-09
-4.90972e-09
-4.92524e-09
-4.9099e-09
-4.92523e-09
-4.91113e-09
-4.92382e-09
-4.91312e-09
-4.92155e-09
-4.91564e-09
-4.91816e-09
-4.91749e-09
-5.02815e-09
-5.02449e-09
-5.04079e-09
-5.02887e-09
-5.03111e-09
-5.03204e-09
-5.0294e-09
-5.03211e-09
-5.03112e-09
-5.03608e-09
-5.02272e-09
-5.03558e-09
-5.02471e-09
-5.03394e-09
-5.02642e-09
-5.03242e-09
-5.02755e-09
-5.03044e-09
-5.02959e-09
-5.0298e-09
-5.09862e-09
-5.09187e-09
-5.11418e-09
-5.09339e-09
-5.10643e-09
-5.09449e-09
-5.10602e-09
-5.09408e-09
-5.10631e-09
-5.09427e-09
-5.10592e-09
-5.09438e-09
-5.10134e-09
-5.09673e-09
-5.10502e-09
-5.0959e-09
-5.10247e-09
-5.0981e-09
-5.10001e-09
-5.09941e-09
-5.13981e-09
-5.13463e-09
-5.15301e-09
-5.13907e-09
-5.14364e-09
-5.14264e-09
-5.14234e-09
-5.14434e-09
-5.14006e-09
-5.14791e-09
-5.13359e-09
-5.14657e-09
-5.13629e-09
-5.14536e-09
-5.13751e-09
-5.14396e-09
-5.13868e-09
-5.14181e-09
-5.14089e-09
-5.14111e-09
-5.16498e-09
-5.16137e-09
-5.17804e-09
-5.16641e-09
-5.1678e-09
-5.17009e-09
-5.16635e-09
-5.17078e-09
-5.16787e-09
-5.17339e-09
-5.16018e-09
-5.17389e-09
-5.16059e-09
-5.17232e-09
-5.16252e-09
-5.17041e-09
-5.16424e-09
-5.16789e-09
-5.16679e-09
-5.16706e-09
-5.18521e-09
-5.1782e-09
-5.20044e-09
-5.1798e-09
-5.1933e-09
-5.17921e-09
-5.19264e-09
-5.18041e-09
-5.19141e-09
-5.18042e-09
-5.19109e-09
-5.18035e-09
-5.19033e-09
-5.18062e-09
-5.18958e-09
-5.18192e-09
-5.18795e-09
-5.18405e-09
-5.1857e-09
-5.1852e-09
-5.20187e-09
-5.19305e-09
-5.2171e-09
-5.19071e-09
-5.2109e-09
-5.19072e-09
-5.21042e-09
-5.19036e-09
-5.21058e-09
-5.19113e-09
-5.20949e-09
-5.19119e-09
-5.20934e-09
-5.1924e-09
-5.20737e-09
-5.19479e-09
-5.20439e-09
-5.19812e-09
-5.20082e-09
-5.20009e-09
-5.21286e-09
-5.20786e-09
-5.22652e-09
-5.21221e-09
-5.21674e-09
-5.21599e-09
-5.21549e-09
-5.21808e-09
-5.21239e-09
-5.22201e-09
-5.20567e-09
-5.22061e-09
-5.20844e-09
-5.21923e-09
-5.20986e-09
-5.21751e-09
-5.21141e-09
-5.21502e-09
-5.21395e-09
-5.21421e-09
-5.22991e-09
-5.2216e-09
-5.24453e-09
-5.22351e-09
-5.23726e-09
-5.2227e-09
-5.23597e-09
-5.22371e-09
-5.23516e-09
-5.22344e-09
-5.23482e-09
-5.22311e-09
-5.23504e-09
-5.22398e-09
-5.23375e-09
-5.22548e-09
-5.23186e-09
-5.2277e-09
-5.22944e-09
-5.22892e-09
-5.2475e-09
-5.24759e-09
-5.24542e-09
-5.24139e-09
-5.25179e-09
-5.24024e-09
-5.2517e-09
-5.23902e-09
-5.25251e-09
-5.23794e-09
-5.25282e-09
-5.23797e-09
-5.25157e-09
-5.23918e-09
-5.25038e-09
-5.2418e-09
-5.24841e-09
-5.2438e-09
-5.24557e-09
-5.24499e-09
-5.26601e-09
-5.26692e-09
-5.26069e-09
-5.25752e-09
-5.27229e-09
-5.25528e-09
-5.27245e-09
-5.25496e-09
-5.27242e-09
-5.25463e-09
-5.27127e-09
-5.25491e-09
-5.27083e-09
-5.25671e-09
-5.26911e-09
-5.25872e-09
-5.26684e-09
-5.26106e-09
-5.26347e-09
-5.26284e-09
-5.28205e-09
-5.28054e-09
-5.2916e-09
-5.28033e-09
-5.28444e-09
-5.28469e-09
-5.28166e-09
-5.2848e-09
-5.28147e-09
-5.28409e-09
-5.28155e-09
-5.2835e-09
-5.28201e-09
-5.28461e-09
-5.28131e-09
-5.28425e-09
-5.28183e-09
-5.28259e-09
-5.28225e-09
-5.28236e-09
-5.3042e-09
-5.30352e-09
-5.30265e-09
-5.30518e-09
-5.3039e-09
-5.30454e-09
-5.30404e-09
-5.30777e-09
-5.29875e-09
-5.31187e-09
-5.29395e-09
-5.31363e-09
-5.29194e-09
-5.31281e-09
-5.29549e-09
-5.30579e-09
-5.29812e-09
-5.30291e-09
-5.30197e-09
-5.3027e-09
-5.32304e-09
-5.32187e-09
-5.32796e-09
-5.32978e-09
-5.31497e-09
-5.33357e-09
-5.31041e-09
-5.3338e-09
-5.31053e-09
-5.3334e-09
-5.31093e-09
-5.33332e-09
-5.31155e-09
-5.33193e-09
-5.31551e-09
-5.32411e-09
-5.31739e-09
-5.32326e-09
-5.32146e-09
-5.32195e-09
-5.33963e-09
-5.3402e-09
-5.33556e-09
-5.33479e-09
-5.34521e-09
-5.33291e-09
-5.34519e-09
-5.32882e-09
-5.34627e-09
-5.3279e-09
-5.34686e-09
-5.32933e-09
-5.34576e-09
-5.33089e-09
-5.34396e-09
-5.33319e-09
-5.3414e-09
-5.33573e-09
-5.33804e-09
-5.33734e-09
-5.34604e-09
-5.34577e-09
-5.34573e-09
-5.3463e-09
-5.34565e-09
-5.34625e-09
-5.34581e-09
-5.34618e-09
-5.34603e-09
-5.34594e-09
-5.34608e-09
-5.34594e-09
-5.34599e-09
-5.34596e-09
-5.34601e-09
-5.34598e-09
-5.34598e-09
-5.34598e-09
-5.34598e-09
-5.34598e-09
)
;

boundaryField
{
    movingWall
    {
        type            calculated;
        value           nonuniform List<scalar> 
20
(
-5.34604e-09
-5.34577e-09
-5.34573e-09
-5.3463e-09
-5.34565e-09
-5.34625e-09
-5.34581e-09
-5.34618e-09
-5.34603e-09
-5.34594e-09
-5.34608e-09
-5.34594e-09
-5.34599e-09
-5.34596e-09
-5.34601e-09
-5.34598e-09
-5.34598e-09
-5.34598e-09
-5.34598e-09
-5.34598e-09
)
;
    }
    fixedWalls
    {
        type            calculated;
        value           nonuniform List<scalar> 
60
(
-4.19972e-09
-4.33728e-09
-4.54454e-09
-4.75241e-09
-4.92003e-09
-5.02815e-09
-5.09862e-09
-5.13981e-09
-5.16498e-09
-5.18521e-09
-5.20187e-09
-5.21286e-09
-5.22991e-09
-5.2475e-09
-5.26601e-09
-5.28205e-09
-5.3042e-09
-5.32304e-09
-5.33963e-09
-5.34604e-09
-4.19976e-09
-4.33483e-09
-4.54347e-09
-4.7523e-09
-4.91749e-09
-5.0298e-09
-5.09941e-09
-5.14111e-09
-5.16706e-09
-5.1852e-09
-5.20009e-09
-5.21421e-09
-5.22892e-09
-5.24499e-09
-5.26284e-09
-5.28236e-09
-5.3027e-09
-5.32195e-09
-5.33734e-09
-5.34598e-09
-4.19972e-09
-4.19997e-09
-4.19953e-09
-4.20017e-09
-4.19948e-09
-4.20001e-09
-4.19948e-09
-4.2e-09
-4.19961e-09
-4.19996e-09
-4.19954e-09
-4.19998e-09
-4.19954e-09
-4.19993e-09
-4.19962e-09
-4.19984e-09
-4.19973e-09
-4.19977e-09
-4.19976e-09
-4.19976e-09
)
;
    }
    frontAndBack
    {
        type            empty;
    }
}


// ************************************************************************* //
