/*--------------------------------*- C++ -*----------------------------------*\
| =========                 |                                                 |
| \\      /  F ield         | OpenFOAM: The Open Source CFD Toolbox           |
|  \\    /   O peration     | Version:  2506                                  |
|   \\  /    A nd           | Website:  www.openfoam.com                      |
|    \\/     M anipulation  |                                                 |
\*---------------------------------------------------------------------------*/
FoamFile
{
    version     2.0;
    format      ascii;
    arch        "LSB;label=32;scalar=64";
    class       volVectorField;
    location    "9";
    object      kU;
}
// * * * * * * * * * * * * * * * * * * * * * * * * * * * * * * * * * * * * * //

dimensions      [0 3 -3 0 0 0 0];

internalField   nonuniform List<vector> 
400
(
(-3.06334e-06 4.65493e-19 0)
(-3.06334e-06 -9.92333e-20 0)
(-3.06334e-06 2.36279e-20 0)
(-3.06334e-06 -4.9681e-21 0)
(-3.06334e-06 1.15663e-21 0)
(-3.06334e-06 -6.58069e-23 0)
(-3.06333e-06 1.40992e-22 0)
(-3.06333e-06 1.84295e-22 0)
(-3.06333e-06 2.00981e-22 0)
(-3.06333e-06 3.27015e-22 0)
(-3.06333e-06 7.79242e-22 0)
(-3.06333e-06 7.78035e-22 0)
(-3.06333e-06 2.75469e-22 0)
(-3.06333e-06 -2.67576e-22 0)
(-3.06333e-06 -4.75261e-22 0)
(-3.06333e-06 -5.92633e-22 0)
(-3.06333e-06 -3.37763e-22 0)
(-3.06333e-06 -6.04649e-23 0)
(-3.06333e-06 2.62259e-22 0)
(-3.06333e-06 1.68817e-22 0)
(-3.10959e-06 3.47436e-20 0)
(-3.10959e-06 -5.55114e-21 0)
(-3.10952e-06 1.86459e-21 0)
(-3.10949e-06 -1.25693e-22 0)
(-3.10944e-06 2.10648e-22 0)
(-3.10941e-06 3.35339e-22 0)
(-3.10938e-06 4.02777e-22 0)
(-3.10935e-06 4.29721e-22 0)
(-3.10932e-06 4.54564e-22 0)
(-3.1093e-06 2.01825e-22 0)
(-3.10927e-06 1.05842e-22 0)
(-3.10925e-06 3.27646e-22 0)
(-3.10923e-06 1.6087e-22 0)
(-3.10922e-06 -1.41508e-22 0)
(-3.1092e-06 -3.61302e-22 0)
(-3.10919e-06 -3.95352e-22 0)
(-3.10918e-06 -9.34405e-23 0)
(-3.10918e-06 4.14349e-23 0)
(-3.10918e-06 1.58146e-22 0)
(-3.10918e-06 6.55709e-23 0)
(-3.1839e-06 -4.18586e-19 0)
(-3.1839e-06 9.05541e-20 0)
(-3.18381e-06 -2.08739e-20 0)
(-3.18379e-06 4.48349e-21 0)
(-3.18373e-06 -1.10196e-21 0)
(-3.1837e-06 2.8981e-22 0)
(-3.18366e-06 2.81554e-22 0)
(-3.18363e-06 3.29628e-22 0)
(-3.18359e-06 4.1951e-22 0)
(-3.18357e-06 2.98136e-22 0)
(-3.18354e-06 -3.37661e-22 0)
(-3.18353e-06 -4.26621e-22 0)
(-3.1835e-06 -4.24188e-22 0)
(-3.18349e-06 -1.73666e-22 0)
(-3.18347e-06 -2.38125e-22 0)
(-3.18347e-06 -3.68135e-22 0)
(-3.18345e-06 -4.46018e-23 0)
(-3.18345e-06 2.25376e-22 0)
(-3.18344e-06 -2.72205e-22 0)
(-3.18344e-06 -4.05153e-22 0)
(-3.26379e-06 3.02361e-19 0)
(-3.2638e-06 -6.52793e-20 0)
(-3.2637e-06 1.59209e-20 0)
(-3.26368e-06 -3.14495e-21 0)
(-3.26362e-06 5.52261e-22 0)
(-3.26359e-06 -3.28508e-22 0)
(-3.26354e-06 -1.36023e-23 0)
(-3.26352e-06 -1.24259e-22 0)
(-3.26347e-06 5.43474e-23 0)
(-3.26346e-06 6.69573e-22 0)
(-3.26342e-06 5.55328e-22 0)
(-3.26341e-06 2.02311e-22 0)
(-3.26338e-06 -1.582e-22 0)
(-3.26337e-06 -7.0474e-23 0)
(-3.26335e-06 7.7196e-23 0)
(-3.26334e-06 -3.5051e-22 0)
(-3.26333e-06 -3.22204e-22 0)
(-3.26333e-06 1.43926e-23 0)
(-3.26332e-06 -2.17268e-22 0)
(-3.26332e-06 -3.7948e-22 0)
(-3.33285e-06 -5.53322e-21 0)
(-3.33285e-06 3.24779e-21 0)
(-3.33276e-06 2.37398e-22 0)
(-3.33274e-06 6.98086e-22 0)
(-3.33267e-06 1.39054e-22 0)
(-3.33264e-06 1.22029e-22 0)
(-3.3326e-06 1.0812e-22 0)
(-3.33257e-06 -1.46708e-23 0)
(-3.33253e-06 1.95248e-22 0)
(-3.3325e-06 3.3607e-22 0)
(-3.33247e-06 2.13965e-22 0)
(-3.33246e-06 2.59242e-22 0)
(-3.33242e-06 -1.41612e-23 0)
(-3.33242e-06 -4.08065e-22 0)
(-3.33239e-06 -1.35554e-22 0)
(-3.33239e-06 -8.04063e-23 0)
(-3.33237e-06 -9.58673e-23 0)
(-3.33237e-06 -9.39851e-23 0)
(-3.33236e-06 -8.28344e-24 0)
(-3.33236e-06 -7.17061e-23 0)
(-3.38463e-06 -3.11804e-19 0)
(-3.38464e-06 6.92325e-20 0)
(-3.38454e-06 -1.55862e-20 0)
(-3.38451e-06 3.87545e-21 0)
(-3.38445e-06 -1.59913e-22 0)
(-3.38441e-06 6.62478e-22 0)
(-3.38437e-06 8.20882e-22 0)
(-3.38434e-06 1.13303e-21 0)
(-3.3843e-06 7.25665e-22 0)
(-3.38427e-06 -5.47127e-23 0)
(-3.38424e-06 -4.71533e-22 0)
(-3.38422e-06 -5.96822e-22 0)
(-3.38419e-06 -8.67145e-22 0)
(-3.38418e-06 -7.79287e-22 0)
(-3.38416e-06 -4.5864e-22 0)
(-3.38415e-06 5.3448e-23 0)
(-3.38414e-06 2.7671e-22 0)
(-3.38413e-06 2.09567e-22 0)
(-3.38413e-06 -2.48265e-23 0)
(-3.38413e-06 1.88913e-23 0)
(-3.42e-06 4.25042e-19 0)
(-3.42001e-06 -9.51288e-20 0)
(-3.4199e-06 2.15688e-20 0)
(-3.41988e-06 -5.53981e-21 0)
(-3.41981e-06 7.33386e-22 0)
(-3.41978e-06 -4.15208e-22 0)
(-3.41973e-06 2.00536e-22 0)
(-3.4197e-06 7.85648e-22 0)
(-3.41966e-06 1.01022e-21 0)
(-3.41963e-06 7.79615e-22 0)
(-3.41959e-06 1.37974e-22 0)
(-3.41958e-06 -5.06468e-22 0)
(-3.41955e-06 -6.12919e-22 0)
(-3.41954e-06 -2.74475e-22 0)
(-3.41951e-06 -1.08763e-22 0)
(-3.41951e-06 2.68249e-22 0)
(-3.41949e-06 4.24495e-22 0)
(-3.41949e-06 2.08298e-22 0)
(-3.41948e-06 -2.08054e-22 0)
(-3.41948e-06 -1.09066e-22 0)
(-3.443e-06 -1.53431e-19 0)
(-3.44301e-06 3.30417e-20 0)
(-3.44291e-06 -8.09071e-21 0)
(-3.44288e-06 1.64383e-21 0)
(-3.44282e-06 -3.68365e-22 0)
(-3.44278e-06 3.04018e-22 0)
(-3.44273e-06 -1.69508e-22 0)
(-3.4427e-06 -2.0226e-22 0)
(-3.44266e-06 2.19713e-22 0)
(-3.44263e-06 5.72134e-22 0)
(-3.4426e-06 6.17334e-22 0)
(-3.44257e-06 1.23458e-22 0)
(-3.44255e-06 -4.02395e-23 0)
(-3.44253e-06 -2.32587e-22 0)
(-3.44251e-06 -5.49588e-22 0)
(-3.4425e-06 -7.06172e-22 0)
(-3.44249e-06 -6.80006e-22 0)
(-3.44248e-06 -5.08868e-22 0)
(-3.44248e-06 -1.52068e-22 0)
(-3.44248e-06 1.86141e-23 0)
(-3.45798e-06 -2.21198e-19 0)
(-3.45799e-06 5.05309e-20 0)
(-3.45789e-06 -1.13947e-20 0)
(-3.45785e-06 3.33456e-21 0)
(-3.4578e-06 1.6336e-22 0)
(-3.45775e-06 8.27399e-22 0)
(-3.45771e-06 6.32005e-22 0)
(-3.45767e-06 4.78233e-22 0)
(-3.45763e-06 2.30123e-22 0)
(-3.4576e-06 8.44999e-24 0)
(-3.45757e-06 1.36317e-22 0)
(-3.45755e-06 6.0561e-23 0)
(-3.45752e-06 -1.83668e-22 0)
(-3.4575e-06 -3.63385e-22 0)
(-3.45749e-06 -4.4165e-22 0)
(-3.45747e-06 -5.76519e-22 0)
(-3.45746e-06 -6.50542e-22 0)
(-3.45746e-06 -6.55633e-22 0)
(-3.45745e-06 -6.87338e-23 0)
(-3.45745e-06 8.35942e-23 0)
(-3.46834e-06 4.17305e-19 0)
(-3.46835e-06 -9.23127e-20 0)
(-3.46824e-06 2.17567e-20 0)
(-3.46821e-06 -4.65823e-21 0)
(-3.46815e-06 1.32283e-21 0)
(-3.46811e-06 7.67069e-23 0)
(-3.46806e-06 7.21985e-22 0)
(-3.46803e-06 6.92607e-22 0)
(-3.46799e-06 4.72655e-22 0)
(-3.46796e-06 2.56632e-22 0)
(-3.46792e-06 -1.41241e-23 0)
(-3.46791e-06 1.09803e-22 0)
(-3.46787e-06 -5.59255e-23 0)
(-3.46786e-06 -2.50647e-22 0)
(-3.46784e-06 -2.50606e-22 0)
(-3.46783e-06 -1.89352e-22 0)
(-3.46782e-06 -2.53893e-22 0)
(-3.46781e-06 -2.54136e-22 0)
(-3.46781e-06 -2.46347e-24 0)
(-3.46781e-06 -7.5482e-24 0)
(-3.47637e-06 -4.35048e-19 0)
(-3.47637e-06 9.26622e-20 0)
(-3.47626e-06 -2.14843e-20 0)
(-3.47624e-06 5.16736e-21 0)
(-3.47617e-06 -7.09931e-22 0)
(-3.47614e-06 2.96811e-22 0)
(-3.47608e-06 8.21438e-23 0)
(-3.47606e-06 4.72984e-23 0)
(-3.47601e-06 -1.04688e-22 0)
(-3.47599e-06 1.40714e-22 0)
(-3.47594e-06 4.79919e-22 0)
(-3.47593e-06 4.90038e-22 0)
(-3.47589e-06 1.87446e-22 0)
(-3.47589e-06 5.14546e-23 0)
(-3.47586e-06 -1.98383e-22 0)
(-3.47586e-06 -2.22773e-22 0)
(-3.47584e-06 -1.93265e-22 0)
(-3.47584e-06 2.27717e-22 0)
(-3.47583e-06 8.32966e-23 0)
(-3.47583e-06 -1.21825e-23 0)
(-3.48346e-06 2.95873e-19 0)
(-3.48347e-06 -6.21896e-20 0)
(-3.48336e-06 1.48772e-20 0)
(-3.48333e-06 -3.25583e-21 0)
(-3.48327e-06 1.04025e-23 0)
(-3.48323e-06 -5.68032e-22 0)
(-3.48318e-06 -1.29723e-22 0)
(-3.48315e-06 1.50103e-23 0)
(-3.48311e-06 3.47231e-22 0)
(-3.48308e-06 1.55117e-22 0)
(-3.48305e-06 6.5018e-23 0)
(-3.48302e-06 -7.57015e-23 0)
(-3.483e-06 2.69117e-23 0)
(-3.48298e-06 1.3317e-22 0)
(-3.48296e-06 2.11261e-22 0)
(-3.48295e-06 3.58062e-22 0)
(-3.48294e-06 4.87923e-22 0)
(-3.48293e-06 3.6937e-22 0)
(-3.48293e-06 5.72871e-23 0)
(-3.48292e-06 -5.79505e-24 0)
(-3.49045e-06 -3.24926e-22 0)
(-3.49045e-06 1.09278e-21 0)
(-3.49035e-06 -1.06363e-22 0)
(-3.49032e-06 -1.60901e-22 0)
(-3.49025e-06 -2.1993e-22 0)
(-3.49022e-06 1.19657e-23 0)
(-3.49016e-06 -9.10651e-23 0)
(-3.49013e-06 -3.48707e-22 0)
(-3.49009e-06 -5.15285e-22 0)
(-3.49007e-06 -6.48627e-22 0)
(-3.49002e-06 -7.64866e-22 0)
(-3.49001e-06 -7.08812e-22 0)
(-3.48997e-06 -3.84385e-22 0)
(-3.48997e-06 -2.94712e-22 0)
(-3.48994e-06 -1.5185e-22 0)
(-3.48993e-06 1.42021e-22 0)
(-3.48992e-06 3.29531e-22 0)
(-3.48992e-06 1.57109e-22 0)
(-3.48991e-06 1.28658e-22 0)
(-3.48991e-06 -2.05151e-23 0)
(-3.49777e-06 -3.46722e-19 0)
(-3.49777e-06 7.46713e-20 0)
(-3.49768e-06 -1.75508e-20 0)
(-3.49764e-06 3.73773e-21 0)
(-3.49757e-06 -8.9067e-22 0)
(-3.49754e-06 -1.26222e-22 0)
(-3.49748e-06 -7.93711e-22 0)
(-3.49746e-06 -6.86423e-22 0)
(-3.49741e-06 -8.76108e-22 0)
(-3.49739e-06 -3.75987e-22 0)
(-3.49735e-06 -5.24821e-23 0)
(-3.49733e-06 -9.77603e-23 0)
(-3.4973e-06 -3.48295e-22 0)
(-3.49729e-06 -5.39627e-22 0)
(-3.49726e-06 -1.56486e-22 0)
(-3.49726e-06 1.04139e-22 0)
(-3.49724e-06 2.39846e-22 0)
(-3.49724e-06 2.8164e-22 0)
(-3.49723e-06 6.7139e-23 0)
(-3.49723e-06 -2.43808e-23 0)
(-3.50561e-06 5.32745e-19 0)
(-3.50561e-06 -1.1593e-19 0)
(-3.50552e-06 2.66079e-20 0)
(-3.50548e-06 -6.09776e-21 0)
(-3.50542e-06 1.49569e-21 0)
(-3.50538e-06 6.98538e-23 0)
(-3.50533e-06 7.70731e-23 0)
(-3.5053e-06 -1.73905e-22 0)
(-3.50525e-06 -3.89054e-22 0)
(-3.50523e-06 -3.11125e-22 0)
(-3.50519e-06 -1.27162e-22 0)
(-3.50517e-06 -6.70333e-23 0)
(-3.50513e-06 -1.96018e-22 0)
(-3.50513e-06 -2.58333e-22 0)
(-3.5051e-06 2.29649e-22 0)
(-3.5051e-06 1.61384e-22 0)
(-3.50508e-06 -7.65242e-24 0)
(-3.50507e-06 2.04263e-23 0)
(-3.50507e-06 5.54373e-23 0)
(-3.50507e-06 1.65057e-22 0)
(-3.51388e-06 -3.23326e-19 0)
(-3.51388e-06 6.8508e-20 0)
(-3.51378e-06 -1.57657e-20 0)
(-3.51375e-06 4.04573e-21 0)
(-3.51368e-06 4.49066e-24 0)
(-3.51364e-06 3.20201e-22 0)
(-3.5136e-06 -1.96802e-22 0)
(-3.51356e-06 -2.00656e-22 0)
(-3.51352e-06 4.41277e-23 0)
(-3.51349e-06 -2.97432e-23 0)
(-3.51345e-06 -9.36954e-23 0)
(-3.51343e-06 -7.61414e-23 0)
(-3.5134e-06 5.3952e-23 0)
(-3.51339e-06 5.86252e-23 0)
(-3.51337e-06 -3.30805e-22 0)
(-3.51335e-06 -6.00474e-22 0)
(-3.51334e-06 -6.44607e-22 0)
(-3.51334e-06 -4.52053e-22 0)
(-3.51333e-06 -6.28854e-23 0)
(-3.51333e-06 -1.32482e-23 0)
(-3.52217e-06 -1.38178e-19 0)
(-3.52216e-06 3.08106e-20 0)
(-3.52207e-06 -6.90626e-21 0)
(-3.52203e-06 1.80468e-21 0)
(-3.52197e-06 -8.32053e-22 0)
(-3.52193e-06 -9.94353e-22 0)
(-3.52187e-06 -7.87999e-22 0)
(-3.52184e-06 -1.98314e-22 0)
(-3.5218e-06 6.53698e-22 0)
(-3.52177e-06 9.94615e-22 0)
(-3.52174e-06 8.09501e-22 0)
(-3.52171e-06 5.30134e-22 0)
(-3.52169e-06 1.52866e-22 0)
(-3.52167e-06 -4.34058e-23 0)
(-3.52165e-06 -8.22672e-22 0)
(-3.52164e-06 -1.00141e-21 0)
(-3.52163e-06 -9.03234e-22 0)
(-3.52162e-06 -4.37088e-22 0)
(-3.52162e-06 1.97581e-22 0)
(-3.52161e-06 2.173e-24 0)
(-3.52973e-06 4.44511e-19 0)
(-3.52973e-06 -9.55691e-20 0)
(-3.52963e-06 2.2591e-20 0)
(-3.52959e-06 -5.37913e-21 0)
(-3.52954e-06 3.75899e-22 0)
(-3.52949e-06 -5.92128e-22 0)
(-3.52945e-06 -1.64102e-23 0)
(-3.52941e-06 -1.7058e-22 0)
(-3.52937e-06 -1.96653e-23 0)
(-3.52934e-06 1.17561e-22 0)
(-3.52931e-06 2.37121e-22 0)
(-3.52928e-06 1.27455e-22 0)
(-3.52926e-06 -1.4585e-22 0)
(-3.52923e-06 -1.12804e-22 0)
(-3.52922e-06 -9.44087e-23 0)
(-3.52921e-06 -1.72152e-22 0)
(-3.52919e-06 -1.10315e-22 0)
(-3.52919e-06 7.61552e-23 0)
(-3.52918e-06 3.38853e-22 0)
(-3.52918e-06 3.36167e-23 0)
(-3.5356e-06 -1.71363e-19 0)
(-3.5356e-06 3.63648e-20 0)
(-3.5355e-06 -8.80172e-21 0)
(-3.53547e-06 1.53172e-21 0)
(-3.5354e-06 -4.16409e-22 0)
(-3.53537e-06 1.7706e-22 0)
(-3.53531e-06 -8.70283e-23 0)
(-3.53529e-06 -3.22183e-22 0)
(-3.53523e-06 -6.01571e-22 0)
(-3.53522e-06 -7.14151e-22 0)
(-3.53517e-06 -4.94833e-22 0)
(-3.53516e-06 -4.51076e-22 0)
(-3.53512e-06 -2.17379e-22 0)
(-3.53512e-06 -4.35185e-23 0)
(-3.53509e-06 2.29792e-22 0)
(-3.53508e-06 1.75881e-22 0)
(-3.53507e-06 2.9194e-22 0)
(-3.53506e-06 5.52941e-23 0)
(-3.53506e-06 -4.15883e-22 0)
(-3.53506e-06 -1.95061e-22 0)
(-3.5383e-06 -3.0456e-19 0)
(-3.5383e-06 6.53542e-20 0)
(-3.5383e-06 -1.63186e-20 0)
(-3.53829e-06 3.22552e-21 0)
(-3.53829e-06 -5.88976e-22 0)
(-3.53829e-06 2.25439e-22 0)
(-3.53829e-06 -6.48806e-23 0)
(-3.53829e-06 -1.0592e-22 0)
(-3.53829e-06 -2.97902e-22 0)
(-3.53829e-06 -2.62982e-22 0)
(-3.53829e-06 -6.27364e-23 0)
(-3.53829e-06 -4.82901e-23 0)
(-3.53829e-06 -3.98657e-23 0)
(-3.53829e-06 -1.77053e-22 0)
(-3.53829e-06 -2.48698e-22 0)
(-3.53829e-06 -2.46041e-22 0)
(-3.53829e-06 -1.15419e-22 0)
(-3.53829e-06 -1.31011e-22 0)
(-3.53829e-06 -4.00434e-22 0)
(-3.53829e-06 -1.0125e-22 0)
)
;

boundaryField
{
    movingWall
    {
        type            calculated;
        value           nonuniform List<vector> 
20
(
(-3.5383e-06 -0 -0)
(-3.5383e-06 -0 -0)
(-3.5383e-06 -0 -0)
(-3.53829e-06 -0 -0)
(-3.53829e-06 -0 -0)
(-3.53829e-06 -0 -0)
(-3.53829e-06 -0 -0)
(-3.53829e-06 -0 -0)
(-3.53829e-06 -0 -0)
(-3.53829e-06 -0 -0)
(-3.53829e-06 -0 -0)
(-3.53829e-06 -0 -0)
(-3.53829e-06 -0 -0)
(-3.53829e-06 -0 -0)
(-3.53829e-06 -0 -0)
(-3.53829e-06 -0 -0)
(-3.53829e-06 -0 -0)
(-3.53829e-06 -0 -0)
(-3.53829e-06 -0 -0)
(-3.53829e-06 -0 -0)
)
;
    }
    fixedWalls
    {
        type            calculated;
        value           nonuniform List<vector> 
60
(
(-3.06334e-06 -0 -0)
(-3.10959e-06 -0 -0)
(-3.1839e-06 -0 -0)
(-3.26379e-06 -0 -0)
(-3.33285e-06 -0 -0)
(-3.38463e-06 -0 -0)
(-3.42e-06 -0 -0)
(-3.443e-06 -0 -0)
(-3.45798e-06 -0 -0)
(-3.46834e-06 -0 -0)
(-3.47637e-06 -0 -0)
(-3.48346e-06 -0 -0)
(-3.49045e-06 -0 -0)
(-3.49777e-06 -0 -0)
(-3.50561e-06 -0 -0)
(-3.51388e-06 -0 -0)
(-3.52217e-06 -0 -0)
(-3.52973e-06 -0 -0)
(-3.5356e-06 -0 -0)
(-3.5383e-06 -0 -0)
(-3.06333e-06 -0 -0)
(-3.10918e-06 -0 -0)
(-3.18344e-06 -0 -0)
(-3.26332e-06 -0 -0)
(-3.33236e-06 -0 -0)
(-3.38413e-06 -0 -0)
(-3.41948e-06 -0 -0)
(-3.44248e-06 -0 -0)
(-3.45745e-06 -0 -0)
(-3.46781e-06 -0 -0)
(-3.47583e-06 -0 -0)
(-3.48292e-06 -0 -0)
(-3.48991e-06 -0 -0)
(-3.49723e-06 -0 -0)
(-3.50507e-06 -0 -0)
(-3.51333e-06 -0 -0)
(-3.52161e-06 -0 -0)
(-3.52918e-06 -0 -0)
(-3.53506e-06 -0 -0)
(-3.53829e-06 -0 -0)
(-3.06334e-06 -0 -0)
(-3.06334e-06 -0 -0)
(-3.06334e-06 -0 -0)
(-3.06334e-06 -0 -0)
(-3.06334e-06 -0 -0)
(-3.06334e-06 -0 -0)
(-3.06333e-06 -0 -0)
(-3.06333e-06 -0 -0)
(-3.06333e-06 -0 -0)
(-3.06333e-06 -0 -0)
(-3.06333e-06 -0 -0)
(-3.06333e-06 -0 -0)
(-3.06333e-06 -0 -0)
(-3.06333e-06 -0 -0)
(-3.06333e-06 -0 -0)
(-3.06333e-06 -0 -0)
(-3.06333e-06 -0 -0)
(-3.06333e-06 -0 -0)
(-3.06333e-06 -0 -0)
(-3.06333e-06 -0 -0)
)
;
    }
    frontAndBack
    {
        type            empty;
    }
}


// ************************************************************************* //
