/*--------------------------------*- C++ -*----------------------------------*\
| =========                 |                                                 |
| \\      /  F ield         | OpenFOAM: The Open Source CFD Toolbox           |
|  \\    /   O peration     | Version:  2506                                  |
|   \\  /    A nd           | Website:  www.openfoam.com                      |
|    \\/     M anipulation  |                                                 |
\*---------------------------------------------------------------------------*/
FoamFile
{
    version     2.0;
    format      ascii;
    arch        "LSB;label=32;scalar=64";
    class       volTensorField;
    location    "9";
    object      kU2;
}
// * * * * * * * * * * * * * * * * * * * * * * * * * * * * * * * * * * * * * //

dimensions      [0 4 -4 0 0 0 0];

internalField   nonuniform List<tensor> 
400
(
(3.06334e-06 -4.62447e-19 -0 -4.65493e-19 7.02716e-32 0 -0 0 0)
(3.06334e-06 9.93403e-20 -0 9.92333e-20 3.21802e-33 -0 -0 -0 0)
(3.06334e-06 -2.36925e-20 -0 -2.36279e-20 1.82743e-34 0 -0 0 0)
(3.06334e-06 4.98192e-21 -0 4.9681e-21 8.07965e-36 -0 -0 -0 0)
(3.06334e-06 -8.89576e-22 -0 -1.15663e-21 3.35878e-37 0 -0 0 0)
(3.06334e-06 1.77936e-22 -0 6.58069e-23 3.82243e-39 -0 -0 -0 0)
(3.06333e-06 -9.73677e-23 -0 -1.40992e-22 4.48141e-39 0 -0 0 0)
(3.06333e-06 -1.51998e-22 -0 -1.84295e-22 9.14441e-39 0 -0 0 0)
(3.06333e-06 -1.46222e-22 -0 -2.00981e-22 9.59341e-39 0 -0 0 0)
(3.06333e-06 -1.09623e-22 -0 -3.27015e-22 1.17024e-38 0 -0 0 0)
(3.06333e-06 -5.40971e-22 -0 -7.79242e-22 1.37611e-37 0 -0 0 0)
(3.06333e-06 -7.31267e-22 -0 -7.78035e-22 1.85729e-37 0 -0 0 0)
(3.06333e-06 -7.13311e-22 -0 -2.75469e-22 6.41442e-38 0 -0 0 0)
(3.06333e-06 -1.05523e-22 -0 2.67576e-22 -9.21722e-39 -0 -0 0 0)
(3.06333e-06 2.39777e-22 -0 4.75261e-22 3.72001e-38 -0 -0 -0 0)
(3.06333e-06 4.79337e-22 -0 5.92633e-22 9.27326e-38 -0 -0 -0 0)
(3.06333e-06 4.58708e-22 -0 3.37763e-22 5.05772e-38 -0 -0 -0 0)
(3.06333e-06 9.87415e-23 -0 6.04649e-23 1.94899e-39 -0 -0 -0 0)
(3.06333e-06 -5.15899e-23 -0 -2.62259e-22 4.41673e-39 0 -0 0 0)
(3.06333e-06 -1.19226e-23 -0 -1.68817e-22 6.5704e-40 0 -0 0 0)
(3.10959e-06 -3.14113e-20 -0 -3.47436e-20 3.50959e-34 0 -0 0 0)
(3.10959e-06 6.67625e-21 -0 5.55114e-21 1.19182e-35 -0 -0 -0 0)
(3.10952e-06 -1.74644e-21 -0 -1.86459e-21 1.04723e-36 0 -0 0 0)
(3.10949e-06 3.15967e-22 -0 1.25693e-22 1.27722e-38 -0 -0 -0 0)
(3.10944e-06 1.71801e-22 -0 -2.10648e-22 -1.16386e-38 0 -0 -0 0)
(3.10941e-06 -1.61183e-22 -0 -3.35339e-22 1.7383e-38 0 -0 0 0)
(3.10938e-06 -2.76524e-22 -0 -4.02777e-22 3.58199e-38 0 -0 0 0)
(3.10935e-06 -3.75479e-22 -0 -4.29721e-22 5.18923e-38 0 -0 0 0)
(3.10932e-06 -2.56825e-22 -0 -4.54564e-22 3.75463e-38 0 -0 0 0)
(3.1093e-06 -1.94388e-22 -0 -2.01825e-22 1.26178e-38 0 -0 0 0)
(3.10927e-06 -2.20934e-22 -0 -1.05842e-22 7.52077e-39 0 -0 0 0)
(3.10925e-06 -3.43414e-22 -0 -3.27646e-22 3.61882e-38 0 -0 0 0)
(3.10923e-06 -5.04873e-22 -0 -1.6087e-22 2.61218e-38 0 -0 0 0)
(3.10922e-06 -1.87587e-22 -0 1.41508e-22 -8.53755e-39 -0 -0 0 0)
(3.1092e-06 1.86698e-22 -0 3.61302e-22 2.16951e-38 -0 -0 -0 0)
(3.10919e-06 4.13741e-22 -0 3.95352e-22 5.26095e-38 -0 -0 -0 0)
(3.10918e-06 2.35589e-22 -0 9.34405e-23 7.08017e-39 -0 -0 -0 0)
(3.10918e-06 -2.19309e-22 -0 -4.14349e-23 2.92266e-39 0 -0 0 0)
(3.10918e-06 -1.43939e-22 -0 -1.58146e-22 7.32138e-39 0 -0 0 0)
(3.10918e-06 1.44369e-22 -0 -6.55709e-23 -3.04467e-39 0 -0 -0 0)
(3.1839e-06 4.19477e-19 -0 4.18586e-19 5.51485e-32 -0 -0 -0 0)
(3.1839e-06 -8.92219e-20 -0 -9.05541e-20 2.53758e-33 0 -0 0 0)
(3.18381e-06 2.14172e-20 -0 2.08739e-20 1.40417e-34 -0 -0 -0 0)
(3.18379e-06 -4.21002e-21 -0 -4.48349e-21 5.92865e-36 0 -0 0 0)
(3.18373e-06 1.18958e-21 -0 1.10196e-21 4.11737e-37 -0 -0 -0 0)
(3.1837e-06 -1.33335e-22 -0 -2.8981e-22 1.21374e-38 0 -0 0 0)
(3.18366e-06 -2.8581e-23 -0 -2.81554e-22 2.52763e-39 0 -0 0 0)
(3.18363e-06 -1.46664e-22 -0 -3.29628e-22 1.51854e-38 0 -0 0 0)
(3.18359e-06 -1.60361e-22 -0 -4.1951e-22 2.11312e-38 0 -0 0 0)
(3.18357e-06 -3.65718e-22 -0 -2.98136e-22 3.42488e-38 0 -0 0 0)
(3.18354e-06 -1.34867e-22 -0 3.37661e-22 -1.43046e-38 -0 -0 0 0)
(3.18353e-06 6.13835e-23 -0 4.26621e-22 8.22593e-39 -0 -0 -0 0)
(3.1835e-06 2.96905e-22 -0 4.24188e-22 3.95613e-38 -0 -0 -0 0)
(3.18349e-06 1.08487e-22 -0 1.73666e-22 5.9182e-39 -0 -0 -0 0)
(3.18347e-06 5.83747e-23 -0 2.38125e-22 4.36645e-39 -0 -0 -0 0)
(3.18347e-06 2.99612e-22 -0 3.68135e-22 3.46471e-38 -0 -0 -0 0)
(3.18345e-06 2.84359e-22 -0 4.46018e-23 3.98401e-39 -0 -0 -0 0)
(3.18345e-06 -6.9261e-23 -0 -2.25376e-22 4.90341e-39 0 -0 0 0)
(3.18344e-06 -4.0013e-23 -0 2.72205e-22 -3.42137e-39 -0 -0 0 0)
(3.18344e-06 3.51157e-22 -0 4.05153e-22 4.46914e-38 -0 -0 -0 0)
(3.26379e-06 -3.00333e-19 -0 -3.02361e-19 2.78232e-32 0 -0 0 0)
(3.2638e-06 6.59363e-20 -0 6.52793e-20 1.31879e-33 -0 -0 -0 0)
(3.2637e-06 -1.51364e-20 -0 -1.59209e-20 7.38378e-35 0 -0 0 0)
(3.26368e-06 3.75522e-21 -0 3.14495e-21 3.6186e-36 -0 -0 -0 0)
(3.26362e-06 -3.80686e-22 -0 -5.52261e-22 6.44188e-38 0 -0 0 0)
(3.26359e-06 4.77905e-22 -0 3.28508e-22 4.81051e-38 -0 -0 -0 0)
(3.26354e-06 9.44585e-23 -0 1.36023e-23 3.937e-40 -0 -0 -0 0)
(3.26352e-06 1.61126e-22 -0 1.24259e-22 6.1349e-39 -0 -0 -0 0)
(3.26347e-06 1.66573e-22 -0 -5.43474e-23 -2.77397e-39 0 -0 -0 0)
(3.26346e-06 -1.5581e-22 -0 -6.69573e-22 3.19679e-38 0 -0 0 0)
(3.26342e-06 -5.57635e-22 -0 -5.55328e-22 9.48914e-38 0 -0 0 0)
(3.26341e-06 -5.24057e-22 -0 -2.02311e-22 3.24883e-38 0 -0 0 0)
(3.26338e-06 -1.71991e-22 -0 1.582e-22 -8.33763e-39 -0 -0 0 0)
(3.26337e-06 -1.66353e-22 -0 7.0474e-23 -3.59247e-39 -0 -0 0 0)
(3.26335e-06 -3.41639e-22 -0 -7.7196e-23 8.08163e-39 0 -0 0 0)
(3.26334e-06 -4.32759e-23 -0 3.5051e-22 -4.64819e-39 -0 -0 0 0)
(3.26333e-06 4.81743e-22 -0 3.22204e-22 4.75648e-38 -0 -0 -0 0)
(3.26333e-06 4.68109e-22 -0 -1.43926e-23 -2.06455e-39 0 -0 -0 0)
(3.26332e-06 2.87547e-22 -0 2.17268e-22 1.91446e-38 -0 -0 -0 0)
(3.26332e-06 4.10715e-22 -0 3.7948e-22 4.77606e-38 -0 -0 -0 0)
(3.33285e-06 7.26369e-21 -0 5.53322e-21 1.20592e-35 -0 -0 -0 0)
(3.33285e-06 -2.35736e-21 -0 -3.24779e-21 2.29719e-36 0 -0 0 0)
(3.33276e-06 5.32583e-22 -0 -2.37398e-22 -3.79368e-38 0 -0 -0 0)
(3.33274e-06 4.66654e-24 -0 -6.98086e-22 -9.77468e-40 0 -0 -0 0)
(3.33267e-06 1.92624e-22 -0 -1.39054e-22 -8.03714e-39 0 -0 -0 0)
(3.33264e-06 2.10082e-22 -0 -1.22029e-22 -7.69243e-39 0 -0 -0 0)
(3.3326e-06 -4.35582e-23 -0 -1.0812e-22 1.41316e-39 0 -0 0 0)
(3.33257e-06 -9.55928e-23 -0 1.46708e-23 -4.20824e-40 -0 -0 0 0)
(3.33253e-06 -1.91329e-22 -0 -1.95248e-22 1.12097e-38 0 -0 0 0)
(3.3325e-06 -1.46993e-22 -0 -3.3607e-22 1.48237e-38 0 -0 0 0)
(3.33247e-06 -1.66617e-24 -0 -2.13965e-22 1.06978e-40 0 -0 0 0)
(3.33246e-06 -2.75815e-22 -0 -2.59242e-22 2.14566e-38 0 -0 0 0)
(3.33242e-06 -3.18107e-22 -0 1.41612e-23 -1.3518e-39 -0 -0 0 0)
(3.33242e-06 2.07694e-22 -0 4.08065e-22 2.54328e-38 -0 -0 -0 0)
(3.33239e-06 2.26367e-22 -0 1.35554e-22 9.20808e-39 -0 -0 -0 0)
(3.33239e-06 1.03245e-22 -0 8.04063e-23 2.49117e-39 -0 -0 -0 0)
(3.33237e-06 2.06061e-22 -0 9.58673e-23 5.92807e-39 -0 -0 -0 0)
(3.33237e-06 3.93345e-22 -0 9.39851e-23 1.10938e-38 -0 -0 -0 0)
(3.33236e-06 2.15625e-22 -0 8.28344e-24 5.35992e-40 -0 -0 -0 0)
(3.33236e-06 2.2438e-22 -0 7.17061e-23 4.82823e-39 -0 -0 -0 0)
(3.38463e-06 3.12887e-19 -0 3.11804e-19 2.88242e-32 -0 -0 -0 0)
(3.38464e-06 -6.82227e-20 -0 -6.92325e-20 1.39549e-33 0 -0 0 0)
(3.38454e-06 1.64891e-20 -0 1.55862e-20 7.59344e-35 -0 -0 -0 0)
(3.38451e-06 -3.18532e-21 -0 -3.87545e-21 3.64737e-36 0 -0 0 0)
(3.38445e-06 6.47845e-22 -0 1.59913e-22 3.06102e-38 -0 -0 -0 0)
(3.38441e-06 -3.33092e-22 -0 -6.62478e-22 6.52007e-38 0 -0 0 0)
(3.38437e-06 -3.45152e-22 -0 -8.20882e-22 8.37171e-38 0 -0 0 0)
(3.38434e-06 -7.78529e-22 -0 -1.13303e-21 2.60642e-37 0 -0 0 0)
(3.3843e-06 -8.75367e-22 -0 -7.25665e-22 1.87697e-37 0 -0 0 0)
(3.38427e-06 -5.13967e-22 -0 5.47127e-23 -8.30919e-39 -0 -0 0 0)
(3.38424e-06 4.12108e-23 -0 4.71533e-22 5.74198e-39 -0 -0 -0 0)
(3.38422e-06 3.316e-22 -0 5.96822e-22 5.84792e-38 -0 -0 -0 0)
(3.38419e-06 7.61119e-22 -0 8.67145e-22 1.95024e-37 -0 -0 -0 0)
(3.38418e-06 1.14333e-21 -0 7.79287e-22 2.63278e-37 -0 -0 -0 0)
(3.38416e-06 8.81314e-22 -0 4.5864e-22 1.19441e-37 -0 -0 -0 0)
(3.38415e-06 3.66276e-22 -0 -5.3448e-23 -5.78483e-39 0 -0 -0 0)
(3.38414e-06 -4.83678e-23 -0 -2.7671e-22 3.95488e-39 0 -0 0 0)
(3.38413e-06 -1.10833e-22 -0 -2.09567e-22 6.86351e-39 0 -0 0 0)
(3.38413e-06 -3.56002e-23 -0 2.48265e-23 -2.61169e-40 -0 -0 0 0)
(3.38413e-06 7.4192e-23 -0 -1.88913e-23 -4.14164e-40 0 -0 -0 0)
(3.42e-06 -4.25157e-19 -0 -4.25042e-19 5.28391e-32 0 -0 0 0)
(3.42001e-06 9.58121e-20 -0 9.51288e-20 2.66505e-33 -0 -0 -0 0)
(3.4199e-06 -2.09695e-20 -0 -2.15688e-20 1.32251e-34 0 -0 0 0)
(3.41988e-06 5.84714e-21 -0 5.53981e-21 9.47169e-36 -0 -0 -0 0)
(3.41981e-06 -4.56505e-22 -0 -7.33386e-22 9.78986e-38 0 -0 0 0)
(3.41978e-06 8.59441e-22 -0 4.15208e-22 1.04348e-37 -0 -0 -0 0)
(3.41973e-06 5.1664e-22 -0 -2.00536e-22 -3.02962e-38 0 -0 -0 0)
(3.4197e-06 -1.01265e-22 -0 -7.85648e-22 2.32648e-38 0 -0 0 0)
(3.41966e-06 -6.32437e-22 -0 -1.01022e-21 1.86831e-37 0 -0 0 0)
(3.41963e-06 -1.04383e-21 -0 -7.79615e-22 2.37974e-37 0 -0 0 0)
(3.41959e-06 -7.67573e-22 -0 -1.37974e-22 3.09701e-38 0 -0 0 0)
(3.41958e-06 1.36592e-22 -0 5.06468e-22 2.02304e-38 -0 -0 -0 0)
(3.41955e-06 7.05957e-22 -0 6.12919e-22 1.26536e-37 -0 -0 -0 0)
(3.41954e-06 5.94697e-22 -0 2.74475e-22 4.77342e-38 -0 -0 -0 0)
(3.41951e-06 4.24507e-22 -0 1.08763e-22 1.35021e-38 -0 -0 -0 0)
(3.41951e-06 6.41815e-23 -0 -2.68249e-22 -5.03482e-39 0 -0 -0 0)
(3.41949e-06 -2.16235e-22 -0 -4.24495e-22 2.68434e-38 0 -0 0 0)
(3.41949e-06 -3.59472e-22 -0 -2.08298e-22 2.18972e-38 0 -0 0 0)
(3.41948e-06 8.03787e-23 -0 2.08054e-22 4.89055e-39 -0 -0 -0 0)
(3.41948e-06 1.58339e-22 -0 1.09066e-22 5.05028e-39 -0 -0 -0 0)
(3.443e-06 1.53688e-19 -0 1.53431e-19 6.84884e-33 -0 -0 -0 0)
(3.44301e-06 -3.25339e-20 -0 -3.30417e-20 3.12219e-34 0 -0 0 0)
(3.44291e-06 8.41033e-21 -0 8.09071e-21 1.9764e-35 -0 -0 -0 0)
(3.44288e-06 -1.49374e-21 -0 -1.64383e-21 7.13197e-37 0 -0 0 0)
(3.44282e-06 6.8533e-22 -0 3.68365e-22 7.33271e-38 -0 -0 -0 0)
(3.44278e-06 8.53725e-23 -0 -3.04018e-22 -7.5389e-39 0 -0 -0 0)
(3.44273e-06 3.28598e-22 -0 1.69508e-22 1.6179e-38 -0 -0 -0 0)
(3.4427e-06 3.60341e-22 -0 2.0226e-22 2.11702e-38 -0 -0 -0 0)
(3.44266e-06 6.25993e-23 -0 -2.19713e-22 -3.99513e-39 0 -0 -0 0)
(3.44263e-06 -3.45249e-22 -0 -5.72134e-22 5.73773e-38 0 -0 0 0)
(3.4426e-06 -4.58204e-22 -0 -6.17334e-22 8.21663e-38 0 -0 0 0)
(3.44257e-06 -2.81975e-22 -0 -1.23458e-22 1.01122e-38 0 -0 0 0)
(3.44255e-06 -5.25649e-23 -0 4.02395e-23 -6.14424e-40 -0 -0 0 0)
(3.44253e-06 6.20911e-23 -0 2.32587e-22 4.19505e-39 -0 -0 -0 0)
(3.44251e-06 3.10677e-22 -0 5.49588e-22 4.95988e-38 -0 -0 -0 0)
(3.4425e-06 6.06981e-22 -0 7.06172e-22 1.24512e-37 -0 -0 -0 0)
(3.44249e-06 7.30543e-22 -0 6.80006e-22 1.44306e-37 -0 -0 -0 0)
(3.44248e-06 5.82355e-22 -0 5.08868e-22 8.60837e-38 -0 -0 -0 0)
(3.44248e-06 2.81889e-22 -0 1.52068e-22 1.24521e-38 -0 -0 -0 0)
(3.44248e-06 4.66468e-23 -0 -1.86141e-23 -2.52228e-40 0 -0 -0 0)
(3.45798e-06 2.22718e-19 -0 2.21198e-19 1.42467e-32 -0 -0 -0 0)
(3.45799e-06 -5.02622e-20 -0 -5.05309e-20 7.34472e-34 0 -0 0 0)
(3.45789e-06 1.16608e-20 -0 1.13947e-20 3.84258e-35 -0 -0 -0 0)
(3.45785e-06 -2.78759e-21 -0 -3.33456e-21 2.68819e-36 0 -0 0 0)
(3.4578e-06 4.49311e-22 -0 -1.6336e-22 -2.12273e-38 0 -0 -0 0)
(3.45775e-06 -6.23466e-22 -0 -8.27399e-22 1.49188e-37 0 -0 0 0)
(3.45771e-06 -5.93482e-22 -0 -6.32005e-22 1.08478e-37 0 -0 0 0)
(3.45767e-06 -4.5774e-22 -0 -4.78233e-22 6.33104e-38 0 -0 0 0)
(3.45763e-06 -3.57847e-22 -0 -2.30123e-22 2.38166e-38 0 -0 0 0)
(3.4576e-06 3.24628e-23 -0 -8.44999e-24 -7.93354e-41 0 -0 -0 0)
(3.45757e-06 -3.77714e-23 -0 -1.36317e-22 1.48916e-39 0 -0 0 0)
(3.45755e-06 -1.87335e-22 -0 -6.0561e-23 3.28129e-39 0 -0 0 0)
(3.45752e-06 -3.72994e-23 -0 1.83668e-22 -1.98139e-39 -0 -0 0 0)
(3.4575e-06 1.64113e-22 -0 3.63385e-22 1.72483e-38 -0 -0 -0 0)
(3.45749e-06 2.9168e-22 -0 4.4165e-22 3.72585e-38 -0 -0 -0 0)
(3.45747e-06 3.57012e-22 -0 5.76519e-22 5.95303e-38 -0 -0 -0 0)
(3.45746e-06 4.25711e-22 -0 6.50542e-22 8.01e-38 -0 -0 -0 0)
(3.45746e-06 6.34544e-22 -0 6.55633e-22 1.20328e-37 -0 -0 -0 0)
(3.45745e-06 2.57495e-22 -0 6.87338e-23 5.11897e-39 -0 -0 -0 0)
(3.45745e-06 7.81255e-23 -0 -8.35942e-23 -1.88892e-39 0 -0 -0 0)
(3.46834e-06 -4.17355e-19 -0 -4.17305e-19 5.02155e-32 0 -0 0 0)
(3.46835e-06 9.2771e-20 -0 9.23127e-20 2.46917e-33 -0 -0 -0 0)
(3.46824e-06 -2.14396e-20 -0 -2.17567e-20 1.34494e-34 0 -0 0 0)
(3.46821e-06 5.17693e-21 -0 4.65823e-21 6.95324e-36 -0 -0 -0 0)
(3.46815e-06 -1.05441e-21 -0 -1.32283e-21 4.02176e-37 0 -0 0 0)
(3.46811e-06 3.02962e-22 -0 -7.67069e-23 -6.70084e-39 0 -0 -0 0)
(3.46806e-06 -2.40627e-22 -0 -7.21985e-22 5.0094e-38 0 -0 0 0)
(3.46803e-06 -4.72813e-22 -0 -6.92607e-22 9.44264e-38 0 -0 0 0)
(3.46799e-06 -5.44738e-22 -0 -4.72655e-22 7.42429e-38 0 -0 0 0)
(3.46796e-06 -2.75634e-22 -0 -2.56632e-22 2.03972e-38 0 -0 0 0)
(3.46792e-06 -2.15959e-22 -0 1.41241e-23 -8.79552e-40 -0 -0 0 0)
(3.46791e-06 -2.99566e-22 -0 -1.09803e-22 9.48507e-39 0 -0 0 0)
(3.46787e-06 -1.54049e-22 -0 5.59255e-23 -2.4843e-39 -0 -0 0 0)
(3.46786e-06 1.17017e-22 -0 2.50647e-22 8.45768e-39 -0 -0 -0 0)
(3.46784e-06 2.48658e-22 -0 2.50606e-22 1.79695e-38 -0 -0 -0 0)
(3.46783e-06 1.43955e-22 -0 1.89352e-22 7.86028e-39 -0 -0 -0 0)
(3.46782e-06 5.0305e-23 -0 2.53893e-22 3.68304e-39 -0 -0 -0 0)
(3.46781e-06 1.50265e-22 -0 2.54136e-22 1.1012e-38 -0 -0 -0 0)
(3.46781e-06 -6.36314e-24 -0 2.46347e-24 -4.52025e-42 -0 -0 0 0)
(3.46781e-06 5.20282e-23 -0 7.5482e-24 1.13247e-40 -0 -0 -0 0)
(3.47637e-06 4.32705e-19 -0 4.35048e-19 5.41506e-32 -0 -0 -0 0)
(3.47637e-06 -9.16101e-20 -0 -9.26622e-20 2.44185e-33 0 -0 0 0)
(3.47626e-06 2.20892e-20 -0 2.14843e-20 1.36518e-34 -0 -0 -0 0)
(3.47624e-06 -4.6074e-21 -0 -5.16736e-21 6.84881e-36 0 -0 0 0)
(3.47617e-06 7.11416e-22 -0 7.09931e-22 1.45291e-37 -0 -0 -0 0)
(3.47614e-06 -1.6242e-23 -0 -2.96811e-22 1.38683e-39 0 -0 0 0)
(3.47608e-06 3.77215e-22 -0 -8.21438e-23 -8.91402e-39 0 -0 -0 0)
(3.47606e-06 7.93377e-23 -0 -4.72984e-23 -1.07954e-39 0 -0 -0 0)
(3.47601e-06 2.72882e-22 -0 1.04688e-22 8.21847e-39 -0 -0 -0 0)
(3.47599e-06 1.21606e-22 -0 -1.40714e-22 -4.9228e-39 0 -0 -0 0)
(3.47594e-06 -3.90791e-22 -0 -4.79919e-22 5.3956e-38 0 -0 0 0)
(3.47593e-06 -7.89892e-22 -0 -4.90038e-22 1.11359e-37 0 -0 0 0)
(3.47589e-06 -4.50079e-22 -0 -1.87446e-22 2.42716e-38 0 -0 0 0)
(3.47589e-06 -1.67539e-22 -0 -5.14546e-23 2.48012e-39 0 -0 0 0)
(3.47586e-06 1.2738e-22 -0 1.98383e-22 7.27012e-39 -0 -0 -0 0)
(3.47586e-06 4.02361e-22 -0 2.22773e-22 2.57879e-38 -0 -0 -0 0)
(3.47584e-06 2.32306e-22 -0 1.93265e-22 1.29167e-38 -0 -0 -0 0)
(3.47584e-06 -1.27652e-22 -0 -2.27717e-22 8.36303e-39 0 -0 0 0)
(3.47583e-06 -2.27783e-22 -0 -8.32966e-23 5.45872e-39 0 -0 0 0)
(3.47583e-06 -8.54403e-23 -0 1.21825e-23 -2.99461e-40 -0 -0 0 0)
(3.48346e-06 -2.93692e-19 -0 -2.95873e-19 2.49452e-32 0 -0 0 0)
(3.48347e-06 6.21699e-20 -0 6.21896e-20 1.10991e-33 -0 -0 -0 0)
(3.48336e-06 -1.45821e-20 -0 -1.48772e-20 6.22794e-35 0 -0 0 0)
(3.48333e-06 2.97503e-21 -0 3.25583e-21 2.78072e-36 -0 -0 -0 0)
(3.48327e-06 -4.39024e-23 -0 -1.04025e-23 1.31111e-40 0 -0 0 0)
(3.48323e-06 9.64235e-22 -0 5.68032e-22 1.57244e-37 -0 -0 -0 0)
(3.48318e-06 6.55612e-22 -0 1.29723e-22 2.44168e-38 -0 -0 -0 0)
(3.48315e-06 3.55315e-22 -0 -1.50103e-23 -1.53119e-39 0 -0 -0 0)
(3.48311e-06 4.55193e-23 -0 -3.47231e-22 -4.53782e-39 0 -0 -0 0)
(3.48308e-06 -3.42078e-22 -0 -1.55117e-22 1.52342e-38 0 -0 0 0)
(3.48305e-06 -2.81831e-22 -0 -6.5018e-23 5.26093e-39 0 -0 0 0)
(3.48302e-06 -1.00666e-22 -0 7.57015e-23 -2.18792e-39 -0 -0 0 0)
(3.483e-06 1.12779e-22 -0 -2.69117e-23 -8.71395e-40 0 -0 -0 0)
(3.48298e-06 -1.14224e-22 -0 -1.3317e-22 4.36731e-39 0 -0 0 0)
(3.48296e-06 -9.19101e-23 -0 -2.11261e-22 5.57486e-39 0 -0 0 0)
(3.48295e-06 -4.84242e-23 -0 -3.58062e-22 4.97822e-39 0 -0 0 0)
(3.48294e-06 -5.20475e-22 -0 -4.87923e-22 7.29131e-38 0 -0 0 0)
(3.48293e-06 -4.71573e-22 -0 -3.6937e-22 5.00111e-38 0 -0 0 0)
(3.48293e-06 -1.27146e-22 -0 -5.72871e-23 2.0913e-39 0 -0 0 0)
(3.48292e-06 -2.05084e-23 -0 5.79505e-24 -3.41229e-41 -0 -0 0 0)
(3.49045e-06 1.27092e-21 -0 3.24926e-22 1.1831e-37 -0 -0 -0 0)
(3.49045e-06 -8.95883e-22 -0 -1.09278e-21 2.8048e-37 0 -0 0 0)
(3.49035e-06 3.36602e-22 -0 1.06363e-22 1.02574e-38 -0 -0 -0 0)
(3.49032e-06 1.65108e-22 -0 1.60901e-22 7.61133e-39 -0 -0 -0 0)
(3.49025e-06 4.52225e-22 -0 2.1993e-22 2.84959e-38 -0 -0 -0 0)
(3.49022e-06 7.29807e-23 -0 -1.19657e-23 -2.50204e-40 0 -0 -0 0)
(3.49016e-06 7.72087e-23 -0 9.10651e-23 2.01452e-39 -0 -0 -0 0)
(3.49013e-06 4.46384e-22 -0 3.48707e-22 4.45992e-38 -0 -0 -0 0)
(3.49009e-06 4.01829e-22 -0 5.15285e-22 5.93271e-38 -0 -0 -0 0)
(3.49007e-06 3.29656e-22 -0 6.48627e-22 6.12664e-38 -0 -0 -0 0)
(3.49002e-06 5.91754e-22 -0 7.64866e-22 1.29688e-37 -0 -0 -0 0)
(3.49001e-06 7.96025e-22 -0 7.08812e-22 1.61671e-37 -0 -0 -0 0)
(3.48997e-06 5.88169e-22 -0 3.84385e-22 6.47807e-38 -0 -0 -0 0)
(3.48997e-06 1.81296e-22 -0 2.94712e-22 1.53096e-38 -0 -0 -0 0)
(3.48994e-06 8.77117e-23 -0 1.5185e-22 3.8164e-39 -0 -0 -0 0)
(3.48993e-06 -3.8436e-23 -0 -1.42021e-22 1.56413e-39 0 -0 0 0)
(3.48992e-06 -3.63677e-22 -0 -3.29531e-22 3.43398e-38 0 -0 0 0)
(3.48992e-06 -1.97557e-22 -0 -1.57109e-22 8.89365e-39 0 -0 0 0)
(3.48991e-06 1.73043e-23 -0 -1.28658e-22 -6.37932e-40 0 -0 -0 0)
(3.48991e-06 2.81156e-23 -0 2.05151e-23 1.65275e-40 -0 -0 -0 0)
(3.49777e-06 3.46015e-19 -0 3.46722e-19 3.42993e-32 -0 -0 -0 0)
(3.49777e-06 -7.41609e-20 -0 -7.46713e-20 1.58321e-33 0 -0 0 0)
(3.49768e-06 1.78211e-20 -0 1.75508e-20 8.94236e-35 -0 -0 -0 0)
(3.49764e-06 -3.38734e-21 -0 -3.73773e-21 3.61985e-36 0 -0 0 0)
(3.49757e-06 1.0823e-21 -0 8.9067e-22 2.75612e-37 -0 -0 -0 0)
(3.49754e-06 9.38006e-23 -0 1.26222e-22 3.38515e-39 -0 -0 -0 0)
(3.49748e-06 7.17572e-22 -0 7.93711e-22 1.62844e-37 -0 -0 -0 0)
(3.49746e-06 7.56577e-22 -0 6.86423e-22 1.48488e-37 -0 -0 -0 0)
(3.49741e-06 8.91478e-22 -0 8.76108e-22 2.23317e-37 -0 -0 -0 0)
(3.49739e-06 4.98898e-22 -0 3.75987e-22 5.3634e-38 -0 -0 -0 0)
(3.49735e-06 1.02062e-22 -0 5.24821e-23 1.53158e-39 -0 -0 -0 0)
(3.49733e-06 1.3424e-22 -0 9.77603e-23 3.75239e-39 -0 -0 -0 0)
(3.4973e-06 6.07684e-23 -0 3.48295e-22 6.05191e-39 -0 -0 -0 0)
(3.49729e-06 1.06476e-22 -0 5.39627e-22 1.64292e-38 -0 -0 -0 0)
(3.49726e-06 4.0667e-23 -0 1.56486e-22 1.81966e-39 -0 -0 -0 0)
(3.49726e-06 -1.79468e-22 -0 -1.04139e-22 5.34406e-39 0 -0 0 0)
(3.49724e-06 -2.66396e-22 -0 -2.39846e-22 1.82699e-38 0 -0 0 0)
(3.49724e-06 -1.53251e-22 -0 -2.8164e-22 1.23416e-38 0 -0 0 0)
(3.49723e-06 7.08199e-23 -0 -6.7139e-23 -1.35958e-39 0 -0 -0 0)
(3.49723e-06 1.23757e-22 -0 2.43808e-23 8.62767e-40 -0 -0 -0 0)
(3.50561e-06 -5.30997e-19 -0 -5.32745e-19 8.06953e-32 0 -0 0 0)
(3.50561e-06 1.15863e-19 -0 1.1593e-19 3.83159e-33 -0 -0 -0 0)
(3.50552e-06 -2.63865e-20 -0 -2.66079e-20 2.00281e-34 0 -0 0 0)
(3.50548e-06 6.49979e-21 -0 6.09776e-21 1.13063e-35 -0 -0 -0 0)
(3.50542e-06 -9.48139e-22 -0 -1.49569e-21 4.04552e-37 0 -0 0 0)
(3.50538e-06 3.83068e-22 -0 -6.98538e-23 -7.63361e-39 0 -0 -0 0)
(3.50533e-06 3.26335e-23 -0 -7.70731e-23 -7.17526e-40 0 -0 -0 0)
(3.5053e-06 -8.35117e-25 -0 1.73905e-22 -4.14319e-41 -0 -0 0 0)
(3.50525e-06 2.60747e-22 -0 3.89054e-22 2.89408e-38 -0 -0 -0 0)
(3.50523e-06 3.20554e-22 -0 3.11125e-22 2.84525e-38 -0 -0 -0 0)
(3.50519e-06 1.25327e-22 -0 1.27162e-22 4.54662e-39 -0 -0 -0 0)
(3.50517e-06 3.79957e-23 -0 6.70333e-23 7.26633e-40 -0 -0 -0 0)
(3.50513e-06 7.95038e-23 -0 1.96018e-22 4.4461e-39 -0 -0 -0 0)
(3.50513e-06 2.39681e-22 -0 2.58333e-22 1.76648e-38 -0 -0 -0 0)
(3.5051e-06 -1.17666e-22 -0 -2.29649e-22 7.70929e-39 0 -0 0 0)
(3.5051e-06 -4.62881e-22 -0 -1.61384e-22 2.13123e-38 0 -0 0 0)
(3.50508e-06 -1.09261e-22 -0 7.65242e-24 -2.38542e-40 -0 -0 0 0)
(3.50507e-06 1.73615e-22 -0 -2.04263e-23 -1.01176e-39 0 -0 -0 0)
(3.50507e-06 6.79989e-23 -0 -5.54373e-23 -1.07549e-39 0 -0 -0 0)
(3.50507e-06 -8.83173e-23 -0 -1.65057e-22 4.15895e-39 0 -0 0 0)
(3.51388e-06 3.21876e-19 -0 3.23326e-19 2.9617e-32 -0 -0 -0 0)
(3.51388e-06 -6.76172e-20 -0 -6.8508e-20 1.31829e-33 0 -0 0 0)
(3.51378e-06 1.59413e-20 -0 1.57657e-20 7.15259e-35 -0 -0 -0 0)
(3.51375e-06 -3.66556e-21 -0 -4.04573e-21 4.22052e-36 0 -0 0 0)
(3.51368e-06 2.28667e-22 -0 -4.49066e-24 -2.92248e-40 0 -0 -0 0)
(3.51364e-06 -5.60509e-22 -0 -3.20201e-22 5.10796e-38 0 -0 0 0)
(3.5136e-06 5.53322e-23 -0 1.96802e-22 3.09925e-39 -0 -0 -0 0)
(3.51356e-06 3.70611e-22 -0 2.00656e-22 2.11652e-38 -0 -0 -0 0)
(3.51352e-06 1.02834e-22 -0 -4.41277e-23 -1.29154e-39 0 -0 -0 0)
(3.51349e-06 3.11005e-22 -0 2.97432e-23 2.6328e-39 -0 -0 -0 0)
(3.51345e-06 3.14251e-22 -0 9.36954e-23 8.38033e-39 -0 -0 -0 0)
(3.51343e-06 1.66347e-22 -0 7.61414e-23 3.60499e-39 -0 -0 -0 0)
(3.5134e-06 7.96475e-23 -0 -5.3952e-23 -1.22307e-39 0 -0 -0 0)
(3.51339e-06 3.54384e-23 -0 -5.86252e-23 -5.91333e-40 0 -0 -0 0)
(3.51337e-06 7.22052e-23 -0 3.30805e-22 6.79856e-39 -0 -0 -0 0)
(3.51335e-06 3.12056e-22 -0 6.00474e-22 5.33341e-38 -0 -0 -0 0)
(3.51334e-06 7.55795e-22 -0 6.44607e-22 1.38669e-37 -0 -0 -0 0)
(3.51334e-06 4.77544e-22 -0 4.52053e-22 6.14446e-38 -0 -0 -0 0)
(3.51333e-06 1.17487e-22 -0 6.28854e-23 2.1029e-39 -0 -0 -0 0)
(3.51333e-06 -1.37823e-22 -0 1.32482e-23 -5.19711e-40 -0 -0 0 0)
(3.52217e-06 1.38728e-19 -0 1.38178e-19 5.44242e-33 -0 -0 -0 0)
(3.52216e-06 -3.05448e-20 -0 -3.08106e-20 2.67195e-34 0 -0 0 0)
(3.52207e-06 7.01607e-21 -0 6.90626e-21 1.37575e-35 -0 -0 -0 0)
(3.52203e-06 -1.94909e-21 -0 -1.80468e-21 9.98705e-37 0 -0 0 0)
(3.52197e-06 6.031e-22 -0 8.32053e-22 1.42481e-37 -0 -0 -0 0)
(3.52193e-06 6.59557e-22 -0 9.94353e-22 1.86214e-37 -0 -0 -0 0)
(3.52187e-06 9.45165e-22 -0 7.87999e-22 2.11475e-37 -0 -0 -0 0)
(3.52184e-06 8.45077e-22 -0 1.98314e-22 4.75862e-38 -0 -0 -0 0)
(3.5218e-06 1.13603e-22 -0 -6.53698e-22 -2.10864e-38 0 -0 -0 0)
(3.52177e-06 -4.14955e-22 -0 -9.94615e-22 1.17191e-37 0 -0 0 0)
(3.52174e-06 -5.15354e-22 -0 -8.09501e-22 1.18458e-37 0 -0 0 0)
(3.52171e-06 -7.37367e-22 -0 -5.30134e-22 1.10998e-37 0 -0 0 0)
(3.52169e-06 -4.2936e-22 -0 -1.52866e-22 1.86372e-38 0 -0 0 0)
(3.52167e-06 -2.40993e-22 -0 4.34058e-23 -2.97033e-39 -0 -0 0 0)
(3.52165e-06 3.10579e-22 -0 8.22672e-22 7.25525e-38 -0 -0 -0 0)
(3.52164e-06 8.3432e-22 -0 1.00141e-21 2.37246e-37 -0 -0 -0 0)
(3.52163e-06 8.59031e-22 -0 9.03234e-22 2.20326e-37 -0 -0 -0 0)
(3.52162e-06 4.88185e-22 -0 4.37088e-22 6.05914e-38 -0 -0 -0 0)
(3.52162e-06 1.95642e-22 -0 -1.97581e-22 -1.09765e-38 0 -0 -0 0)
(3.52161e-06 -2.61424e-23 -0 -2.173e-24 1.61311e-41 0 -0 0 0)
(3.52973e-06 -4.43356e-19 -0 -4.44511e-19 5.58333e-32 0 -0 0 0)
(3.52973e-06 9.54024e-20 -0 9.55691e-20 2.58306e-33 -0 -0 -0 0)
(3.52963e-06 -2.27628e-20 -0 -2.2591e-20 1.45691e-34 0 -0 0 0)
(3.52959e-06 5.13098e-21 -0 5.37913e-21 7.81965e-36 -0 -0 -0 0)
(3.52954e-06 -3.27894e-22 -0 -3.75899e-22 3.4921e-38 0 -0 0 0)
(3.52949e-06 9.4904e-22 -0 5.92128e-22 1.59217e-37 -0 -0 -0 0)
(3.52945e-06 2.27127e-22 -0 1.64102e-23 1.05603e-39 -0 -0 -0 0)
(3.52941e-06 1.9852e-22 -0 1.7058e-22 9.59468e-39 -0 -0 -0 0)
(3.52937e-06 1.90381e-22 -0 1.96653e-23 1.06078e-39 -0 -0 -0 0)
(3.52934e-06 5.77345e-23 -0 -1.17561e-22 -1.92311e-39 0 -0 -0 0)
(3.52931e-06 -2.4379e-22 -0 -2.37121e-22 1.63793e-38 0 -0 0 0)
(3.52928e-06 -4.33443e-22 -0 -1.27455e-22 1.56532e-38 0 -0 0 0)
(3.52926e-06 -1.69489e-22 -0 1.4585e-22 -7.0043e-39 -0 -0 0 0)
(3.52923e-06 8.73115e-23 -0 1.12804e-22 2.79072e-39 -0 -0 -0 0)
(3.52922e-06 1.97307e-22 -0 9.44087e-23 5.27808e-39 -0 -0 -0 0)
(3.52921e-06 1.04856e-22 -0 1.72152e-22 5.11481e-39 -0 -0 -0 0)
(3.52919e-06 -2.94782e-23 -0 1.10315e-22 -9.21424e-40 -0 -0 0 0)
(3.52919e-06 1.01129e-22 -0 -7.61552e-23 -2.18223e-39 0 -0 -0 0)
(3.52918e-06 2.21715e-23 -0 -3.38853e-22 -2.12878e-39 0 -0 -0 0)
(3.52918e-06 -7.56704e-24 -0 -3.36167e-23 7.20787e-41 0 -0 0 0)
(3.5356e-06 1.71479e-19 -0 1.71363e-19 8.31122e-33 -0 -0 -0 0)
(3.5356e-06 -3.65713e-20 -0 -3.63648e-20 3.76148e-34 0 -0 0 0)
(3.5355e-06 8.83813e-21 -0 8.80172e-21 2.20027e-35 -0 -0 -0 0)
(3.53547e-06 -1.5096e-21 -0 -1.53172e-21 6.54023e-37 0 -0 0 0)
(3.5354e-06 3.68568e-22 -0 4.16409e-22 4.34109e-38 -0 -0 -0 0)
(3.53537e-06 -8.84918e-23 -0 -1.7706e-22 4.43189e-39 0 -0 0 0)
(3.53531e-06 -1.77673e-23 -0 8.70283e-23 -4.37376e-40 -0 -0 0 0)
(3.53529e-06 2.941e-22 -0 3.22183e-22 2.68024e-38 -0 -0 -0 0)
(3.53523e-06 4.30413e-22 -0 6.01571e-22 7.3241e-38 -0 -0 -0 0)
(3.53522e-06 6.36768e-22 -0 7.14151e-22 1.28634e-37 -0 -0 -0 0)
(3.53517e-06 5.40757e-22 -0 4.94833e-22 7.56921e-38 -0 -0 -0 0)
(3.53516e-06 6.05073e-22 -0 4.51076e-22 7.72054e-38 -0 -0 -0 0)
(3.53512e-06 2.51689e-22 -0 2.17379e-22 1.54766e-38 -0 -0 -0 0)
(3.53512e-06 7.93135e-23 -0 4.35185e-23 9.76376e-40 -0 -0 -0 0)
(3.53509e-06 8.75884e-23 -0 -2.29792e-22 -5.69352e-39 0 -0 -0 0)
(3.53508e-06 -7.76319e-23 -0 -1.75881e-22 3.86242e-39 0 -0 0 0)
(3.53507e-06 -6.04214e-23 -0 -2.9194e-22 4.98985e-39 0 -0 0 0)
(3.53506e-06 1.09112e-23 -0 -5.52941e-23 -1.70669e-40 0 -0 -0 0)
(3.53506e-06 2.13281e-22 -0 4.15883e-22 2.50915e-38 -0 -0 -0 0)
(3.53506e-06 2.50845e-22 -0 1.95061e-22 1.38414e-38 -0 -0 -0 0)
(3.5383e-06 3.04816e-19 -0 3.0456e-19 2.62371e-32 -0 -0 -0 0)
(3.5383e-06 -6.58179e-20 -0 -6.53542e-20 1.21569e-33 0 -0 0 0)
(3.5383e-06 1.66217e-20 -0 1.63186e-20 7.66594e-35 -0 -0 -0 0)
(3.53829e-06 -2.907e-21 -0 -3.22552e-21 2.65003e-36 0 -0 0 0)
(3.53829e-06 6.02221e-22 -0 5.88976e-22 1.00244e-37 -0 -0 -0 0)
(3.53829e-06 -2.976e-22 -0 -2.25439e-22 1.89613e-38 0 -0 0 0)
(3.53829e-06 -4.70828e-23 -0 6.48806e-23 -8.63343e-40 -0 -0 0 0)
(3.53829e-06 1.28275e-22 -0 1.0592e-22 3.83994e-39 -0 -0 -0 0)
(3.53829e-06 1.82719e-22 -0 2.97902e-22 1.53838e-38 -0 -0 -0 0)
(3.53829e-06 2.87085e-22 -0 2.62982e-22 2.13374e-38 -0 -0 -0 0)
(3.53829e-06 3.47723e-22 -0 6.27364e-23 6.16537e-39 -0 -0 -0 0)
(3.53829e-06 2.21049e-22 -0 4.82901e-23 3.01684e-39 -0 -0 -0 0)
(3.53829e-06 -1.26716e-23 -0 3.98657e-23 -1.4277e-40 -0 -0 0 0)
(3.53829e-06 -4.49365e-24 -0 1.77053e-22 -2.24858e-40 -0 -0 0 0)
(3.53829e-06 2.65963e-22 -0 2.48698e-22 1.86939e-38 -0 -0 -0 0)
(3.53829e-06 3.32348e-22 -0 2.46041e-22 2.31104e-38 -0 -0 -0 0)
(3.53829e-06 3.71078e-22 -0 1.15419e-22 1.21046e-38 -0 -0 -0 0)
(3.53829e-06 2.42311e-22 -0 1.31011e-22 8.97195e-39 -0 -0 -0 0)
(3.53829e-06 2.57649e-22 -0 4.00434e-22 2.91586e-38 -0 -0 -0 0)
(3.53829e-06 1.88388e-22 -0 1.0125e-22 5.39083e-39 -0 -0 -0 0)
)
;

boundaryField
{
    movingWall
    {
        type            calculated;
        value           nonuniform List<tensor> 
20
(
(3.5383e-06 0 0 0 0 0 0 0 0)
(3.5383e-06 0 0 0 0 0 0 0 0)
(3.5383e-06 0 0 0 0 0 0 0 0)
(3.53829e-06 0 0 0 0 0 0 0 0)
(3.53829e-06 0 0 0 0 0 0 0 0)
(3.53829e-06 0 0 0 0 0 0 0 0)
(3.53829e-06 0 0 0 0 0 0 0 0)
(3.53829e-06 0 0 0 0 0 0 0 0)
(3.53829e-06 0 0 0 0 0 0 0 0)
(3.53829e-06 0 0 0 0 0 0 0 0)
(3.53829e-06 0 0 0 0 0 0 0 0)
(3.53829e-06 0 0 0 0 0 0 0 0)
(3.53829e-06 0 0 0 0 0 0 0 0)
(3.53829e-06 0 0 0 0 0 0 0 0)
(3.53829e-06 0 0 0 0 0 0 0 0)
(3.53829e-06 0 0 0 0 0 0 0 0)
(3.53829e-06 0 0 0 0 0 0 0 0)
(3.53829e-06 0 0 0 0 0 0 0 0)
(3.53829e-06 0 0 0 0 0 0 0 0)
(3.53829e-06 0 0 0 0 0 0 0 0)
)
;
    }
    fixedWalls
    {
        type            calculated;
        value           nonuniform List<tensor> 
60
(
(3.06334e-06 0 0 0 0 0 0 0 0)
(3.10959e-06 0 0 0 0 0 0 0 0)
(3.1839e-06 0 0 0 0 0 0 0 0)
(3.26379e-06 0 0 0 0 0 0 0 0)
(3.33285e-06 0 0 0 0 0 0 0 0)
(3.38463e-06 0 0 0 0 0 0 0 0)
(3.42e-06 0 0 0 0 0 0 0 0)
(3.443e-06 0 0 0 0 0 0 0 0)
(3.45798e-06 0 0 0 0 0 0 0 0)
(3.46834e-06 0 0 0 0 0 0 0 0)
(3.47637e-06 0 0 0 0 0 0 0 0)
(3.48346e-06 0 0 0 0 0 0 0 0)
(3.49045e-06 0 0 0 0 0 0 0 0)
(3.49777e-06 0 0 0 0 0 0 0 0)
(3.50561e-06 0 0 0 0 0 0 0 0)
(3.51388e-06 0 0 0 0 0 0 0 0)
(3.52217e-06 0 0 0 0 0 0 0 0)
(3.52973e-06 0 0 0 0 0 0 0 0)
(3.5356e-06 0 0 0 0 0 0 0 0)
(3.5383e-06 0 0 0 0 0 0 0 0)
(3.06333e-06 0 0 0 0 0 0 0 0)
(3.10918e-06 0 0 0 0 0 0 0 0)
(3.18344e-06 0 0 0 0 0 0 0 0)
(3.26332e-06 0 0 0 0 0 0 0 0)
(3.33236e-06 0 0 0 0 0 0 0 0)
(3.38413e-06 0 0 0 0 0 0 0 0)
(3.41948e-06 0 0 0 0 0 0 0 0)
(3.44248e-06 0 0 0 0 0 0 0 0)
(3.45745e-06 0 0 0 0 0 0 0 0)
(3.46781e-06 0 0 0 0 0 0 0 0)
(3.47583e-06 0 0 0 0 0 0 0 0)
(3.48292e-06 0 0 0 0 0 0 0 0)
(3.48991e-06 0 0 0 0 0 0 0 0)
(3.49723e-06 0 0 0 0 0 0 0 0)
(3.50507e-06 0 0 0 0 0 0 0 0)
(3.51333e-06 0 0 0 0 0 0 0 0)
(3.52161e-06 0 0 0 0 0 0 0 0)
(3.52918e-06 0 0 0 0 0 0 0 0)
(3.53506e-06 0 0 0 0 0 0 0 0)
(3.53829e-06 0 0 0 0 0 0 0 0)
(3.06334e-06 0 0 0 0 0 0 0 0)
(3.06334e-06 0 0 0 0 0 0 0 0)
(3.06334e-06 0 0 0 0 0 0 0 0)
(3.06334e-06 0 0 0 0 0 0 0 0)
(3.06334e-06 0 0 0 0 0 0 0 0)
(3.06334e-06 0 0 0 0 0 0 0 0)
(3.06333e-06 0 0 0 0 0 0 0 0)
(3.06333e-06 0 0 0 0 0 0 0 0)
(3.06333e-06 0 0 0 0 0 0 0 0)
(3.06333e-06 0 0 0 0 0 0 0 0)
(3.06333e-06 0 0 0 0 0 0 0 0)
(3.06333e-06 0 0 0 0 0 0 0 0)
(3.06333e-06 0 0 0 0 0 0 0 0)
(3.06333e-06 0 0 0 0 0 0 0 0)
(3.06333e-06 0 0 0 0 0 0 0 0)
(3.06333e-06 0 0 0 0 0 0 0 0)
(3.06333e-06 0 0 0 0 0 0 0 0)
(3.06333e-06 0 0 0 0 0 0 0 0)
(3.06333e-06 0 0 0 0 0 0 0 0)
(3.06333e-06 0 0 0 0 0 0 0 0)
)
;
    }
    frontAndBack
    {
        type            empty;
    }
}


// ************************************************************************* //
