/*--------------------------------*- C++ -*----------------------------------*\
| =========                 |                                                 |
| \\      /  F ield         | OpenFOAM: The Open Source CFD Toolbox           |
|  \\    /   O peration     | Version:  2506                                  |
|   \\  /    A nd           | Website:  www.openfoam.com                      |
|    \\/     M anipulation  |                                                 |
\*---------------------------------------------------------------------------*/
FoamFile
{
    version     2.0;
    format      ascii;
    arch        "LSB;label=32;scalar=64";
    class       volScalarField;
    location    "9";
    object      Lambda2Field;
}
// * * * * * * * * * * * * * * * * * * * * * * * * * * * * * * * * * * * * * //

dimensions      [0 0 -2 0 0 0 0];

internalField   nonuniform List<scalar> 
400
(
1.29429e-23
5.82271e-24
2.71487e-25
2.06177e-26
1.30129e-26
0
3.08219e-28
0
4.48604e-28
-7.28638e-28
0
2.1829e-27
1.85036e-27
1.76519e-28
0
1.14961e-27
6.67751e-28
0
-2.19488e-28
5.80618e-29
3.96366e-24
6.72685e-24
3.7446e-25
4.3251e-27
3.22789e-27
-5.43358e-28
0
-2.63358e-29
3.9732e-28
1.71696e-30
1.1895e-27
1.50538e-27
4.9805e-28
0
-1.56742e-28
0
-4.0765e-28
8.19646e-29
0
7.22679e-28
4.12891e-23
1.56592e-23
0
8.41631e-26
-1.06078e-26
2.35575e-27
1.01718e-28
7.80581e-28
8.73847e-29
-2.3819e-27
0
0
0
5.72025e-30
3.61185e-28
0
4.71717e-29
7.94993e-31
0
1.88722e-28
2.35631e-23
9.20254e-24
3.20107e-25
-1.1157e-26
3.07374e-27
0
2.00985e-28
0
-6.05766e-28
-8.31685e-28
2.89921e-28
-1.44037e-28
-2.86738e-28
0
0
-2.60534e-28
6.08348e-28
9.80094e-29
-2.58225e-28
1.10315e-27
3.14307e-24
5.56082e-24
3.92795e-25
3.01872e-27
0
8.78541e-28
0
7.34684e-28
0
4.59459e-28
1.2497e-28
1.12475e-27
0
0
2.53386e-28
1.84067e-28
3.14763e-28
0
0
1.4852e-28
2.08415e-23
9.47916e-24
4.21682e-25
6.61216e-27
2.98349e-28
2.49735e-28
0
3.95741e-28
-3.07037e-27
-4.05957e-27
-1.33696e-28
-1.23411e-28
3.06216e-28
0
0
-1.07273e-27
1.08767e-28
7.94212e-29
0
0
3.87337e-23
1.15301e-23
3.55015e-25
1.65135e-26
-1.33077e-26
9.60083e-28
-1.8203e-27
0
2.45883e-28
2.40662e-27
3.05419e-27
1.19039e-27
4.63659e-29
-9.34108e-28
-1.28476e-27
-5.33397e-28
1.42558e-28
4.39935e-28
0
0
5.53961e-24
5.43066e-24
1.88602e-25
1.87713e-26
-2.25659e-28
3.13112e-28
-4.61107e-28
6.9648e-28
-8.5939e-29
5.08674e-28
-7.06506e-28
-7.61161e-28
-6.81943e-28
-1.19696e-27
-2.80858e-28
0
8.90032e-28
6.27721e-28
1.67804e-29
1.36519e-28
9.72718e-24
3.98966e-24
2.54981e-25
7.34684e-28
0
7.3475e-28
0
0
-1.78882e-27
0
8.17039e-29
0
-6.64506e-28
-4.04272e-28
-5.92005e-28
0
0
5.11669e-28
-1.14016e-27
0
8.38432e-24
5.88504e-24
-1.22272e-25
3.1939e-26
-6.66629e-27
1.17601e-27
4.8137e-28
0
0
0
-1.32211e-28
0
-1.67135e-28
0
0
1.0795e-28
5.06373e-29
0
4.04698e-28
1.54887e-29
0
-1.9946e-25
-2.32788e-25
-4.69263e-26
0
-8.9226e-28
1.18599e-27
6.73193e-28
-1.32292e-28
-1.77054e-28
-8.25211e-29
0
3.47693e-28
0
0
3.99003e-30
4.54985e-28
5.3728e-28
-1.84133e-28
5.54559e-29
0
4.04951e-25
-3.45073e-26
4.15037e-26
-3.33564e-27
3.27124e-28
-1.33637e-27
-1.72692e-27
-4.07028e-28
6.5884e-28
1.45317e-27
1.2432e-27
0
-1.88425e-28
-3.48194e-28
-3.20813e-28
2.25079e-28
3.35131e-28
1.66438e-30
5.63346e-32
1.5379e-24
9.01855e-25
0
3.55585e-26
1.06652e-27
3.00221e-28
7.97362e-29
0
5.27544e-28
-4.0688e-29
-1.28912e-28
0
0
0
0
5.33296e-29
0
0
0
0
1.95177e-24
2.57727e-24
0
4.41884e-26
-3.59077e-27
3.03218e-28
-8.45191e-28
0
4.94592e-28
-5.44049e-28
0
7.9699e-28
2.93944e-29
1.15432e-30
1.18874e-28
0
-1.81813e-28
2.6771e-28
2.41609e-28
2.80576e-29
2.53213e-23
1.13832e-23
-4.50019e-25
1.94855e-26
-1.61369e-26
2.19384e-27
2.92157e-28
0
9.04236e-28
-3.06935e-28
-1.8739e-28
5.36423e-29
0
-2.52821e-28
-3.00153e-28
1.83506e-28
0
4.37646e-28
1.37618e-29
1.70613e-28
7.52458e-24
7.93325e-24
2.892e-25
0
0
9.13606e-28
0
3.72173e-28
1.13023e-27
9.52443e-28
6.009e-28
3.41716e-28
3.06602e-28
0
3.86258e-28
1.2326e-28
1.10469e-27
1.06644e-27
3.38534e-28
5.87365e-29
1.1819e-23
6.53212e-24
4.35604e-25
2.93874e-27
-4.19751e-27
7.38051e-28
-1.19889e-27
-4.43751e-27
-9.14839e-28
0
-6.26871e-28
-7.81448e-28
-8.50729e-28
-2.97969e-27
-3.6413e-27
0
0
8.4727e-28
0
1.76789e-30
5.19065e-23
1.65474e-23
4.18339e-25
3.41819e-26
-7.21186e-27
2.31009e-27
-2.36503e-28
2.50014e-30
0
1.75508e-27
1.35256e-27
1.32293e-27
4.79079e-28
0
9.82826e-28
7.46901e-28
7.68248e-28
0
3.01892e-28
0
8.38023e-24
1.11681e-23
4.42472e-25
3.10408e-26
-3.40917e-27
5.05052e-28
-7.96381e-28
-1.23785e-27
-4.67445e-28
2.45491e-28
2.01698e-28
-1.87967e-28
0
0
0
0
0
0
2.45629e-28
0
1.24964e-23
5.17445e-24
4.50865e-25
0
4.59642e-27
0
2.72287e-28
5.03588e-28
7.67298e-28
5.54535e-28
0
0
-1.4434e-28
0
-1.05418e-28
-9.8184e-29
0
0
5.09966e-28
7.02152e-29
)
;

boundaryField
{
    movingWall
    {
        type            calculated;
        value           nonuniform List<scalar> 
20
(
0
0
6.33168e-25
0
2.63577e-26
-3.29721e-27
2.13323e-27
1.6057e-27
2.31694e-27
-1.60506e-30
-7.58075e-28
-5.63123e-29
1.61609e-28
5.24208e-28
8.65873e-29
0
-1.18499e-28
7.15442e-28
6.59979e-28
1.31016e-28
)
;
    }
    fixedWalls
    {
        type            calculated;
        value           nonuniform List<scalar> 
60
(
9.63699e-23
1.02589e-22
2.16633e-22
1.49915e-22
9.23907e-23
1.61656e-22
1.99811e-22
7.73076e-23
6.75755e-23
4.3208e-23
-3.90403e-23
0
2.38913e-23
1.06173e-23
1.27375e-22
1.174e-22
1.14513e-22
2.63005e-22
1.77241e-22
9.42054e-23
5.80618e-29
7.89921e-28
1.88722e-28
2.52156e-27
0
0
0
0
5.75147e-31
3.12627e-29
0
5.63346e-32
0
2.80576e-29
5.10664e-28
4.08836e-29
1.76789e-30
3.1132e-29
0
0
0
0
7.34701e-25
0
4.97476e-26
-4.42305e-27
1.78922e-27
2.60898e-28
8.95621e-28
8.383e-28
1.38852e-27
8.07279e-27
6.06326e-27
5.08799e-27
9.42465e-28
2.93874e-27
1.50616e-27
8.69847e-28
3.32388e-28
0
)
;
    }
    frontAndBack
    {
        type            empty;
    }
}


// ************************************************************************* //
