/*--------------------------------*- C++ -*----------------------------------*\
| =========                 |                                                 |
| \\      /  F ield         | OpenFOAM: The Open Source CFD Toolbox           |
|  \\    /   O peration     | Version:  2506                                  |
|   \\  /    A nd           | Website:  www.openfoam.com                      |
|    \\/     M anipulation  |                                                 |
\*---------------------------------------------------------------------------*/
FoamFile
{
    version     2.0;
    format      ascii;
    arch        "LSB;label=32;scalar=64";
    class       volVectorField;
    location    "9";
    object      LambVectorField;
}
// * * * * * * * * * * * * * * * * * * * * * * * * * * * * * * * * * * * * * //

dimensions      [0 1 -2 0 0 0 0];

internalField   nonuniform List<vector> 
400
(
(-1.66443e-24 -1.09533e-11 0)
(-4.59356e-25 1.41803e-11 -0)
(-2.35258e-26 -3.0501e-12 0)
(-1.14571e-27 7.0645e-13 -0)
(-2.97208e-29 -7.87159e-14 0)
(-1.87678e-30 8.73646e-14 -0)
(-3.7577e-31 -8.16437e-15 0)
(-3.37918e-30 -5.61684e-14 0)
(-3.0567e-31 -4.65898e-15 0)
(-7.80213e-30 -7.3087e-14 0)
(-1.7535e-29 -6.89333e-14 0)
(-9.59163e-30 -3.77648e-14 0)
(-1.80542e-30 -2.0077e-14 0)
(-2.14063e-30 2.45069e-14 -0)
(-1.64628e-30 1.06112e-14 -0)
(-4.3754e-30 2.26166e-14 -0)
(-1.07315e-30 9.73287e-15 -0)
(3.86618e-31 -1.95872e-14 -0)
(-5.28183e-30 -6.16948e-14 0)
(7.75497e-31 1.40721e-14 0)
(-1.40372e-27 -1.25635e-13 0)
(-1.2585e-27 7.04974e-13 -0)
(-1.53381e-28 -2.5579e-13 0)
(1.13692e-30 -2.81259e-14 -0)
(-1.01855e-29 -1.50352e-13 0)
(-1.23591e-29 -1.14599e-13 0)
(-1.09265e-29 -8.43508e-14 0)
(-3.97622e-30 -2.87708e-14 0)
(-6.8537e-30 -4.68808e-14 0)
(7.27991e-31 1.12153e-14 0)
(-1.06043e-30 -3.11518e-14 0)
(-1.86505e-31 -1.76987e-15 0)
(7.80698e-31 1.5089e-14 0)
(-7.64353e-31 1.67944e-14 -0)
(-4.09845e-30 3.52694e-14 -0)
(1.14351e-29 -8.99303e-14 -0)
(2.86596e-30 -9.53634e-14 -0)
(-1.07836e-31 -8.09175e-15 0)
(-3.94852e-32 -7.76284e-16 0)
(-9.91516e-31 -4.70147e-14 0)
(-8.30677e-25 6.31839e-12 -0)
(-3.20579e-25 -1.12716e-11 0)
(-1.8079e-26 2.75752e-12 -0)
(-6.83677e-28 -4.85489e-13 0)
(-7.37359e-29 2.13035e-13 -0)
(9.78952e-31 1.07542e-14 0)
(7.08067e-30 8.00643e-14 0)
(1.0777e-29 1.04087e-13 0)
(1.08454e-29 8.23042e-14 0)
(1.23806e-29 1.32204e-13 0)
(-1.10393e-29 1.04081e-13 -0)
(-7.62888e-30 5.69282e-14 -0)
(1.05873e-30 -7.94567e-15 -0)
(3.18832e-31 -5.84453e-15 -0)
(1.57053e-30 -2.09963e-14 -0)
(7.02973e-31 -6.07899e-15 -0)
(2.61206e-31 -1.86436e-14 -0)
(5.06162e-31 7.14958e-15 0)
(-8.64654e-30 1.01122e-13 -0)
(2.70796e-30 -2.12775e-14 -0)
(-3.86686e-25 -4.17403e-12 0)
(-1.59813e-25 7.99024e-12 -0)
(-8.89011e-27 -1.82243e-12 0)
(-5.06002e-28 5.25105e-13 -0)
(-1.00162e-29 -5.9191e-14 0)
(-1.74527e-30 1.73385e-14 -0)
(-8.68886e-32 2.08467e-14 -0)
(1.11131e-30 -2.91872e-14 -0)
(-8.56474e-31 -5.14298e-14 0)
(-1.42721e-29 -6.95615e-14 0)
(2.43644e-30 1.43179e-14 0)
(3.03581e-30 4.89695e-14 0)
(-3.03317e-30 6.2569e-14 -0)
(1.55774e-31 -7.21327e-15 -0)
(2.02994e-31 8.58127e-15 0)
(-1.00485e-29 9.35542e-14 -0)
(-4.24838e-30 4.30282e-14 -0)
(-1.4182e-32 -3.21558e-15 0)
(-2.60821e-30 3.91747e-14 -0)
(-4.17743e-30 3.59236e-14 -0)
(8.31154e-28 -5.00633e-13 -0)
(-1.68724e-28 -1.73144e-13 0)
(1.58784e-30 2.22912e-14 0)
(-5.05944e-30 -2.41543e-14 0)
(1.85214e-30 4.43897e-14 0)
(3.3985e-32 9.28136e-16 0)
(1.01245e-30 3.12069e-14 0)
(1.151e-32 -2.61456e-15 -0)
(-3.79273e-30 -6.47349e-14 0)
(-5.52352e-30 -5.47718e-14 0)
(-3.3326e-30 -5.19048e-14 0)
(-5.79323e-30 -7.44696e-14 0)
(-8.50953e-32 2.00246e-14 -0)
(-4.46075e-31 3.64282e-15 -0)
(3.99961e-31 -9.83244e-15 -0)
(-6.25275e-31 2.59141e-14 -0)
(-7.91495e-31 2.75126e-14 -0)
(7.41271e-32 -2.62828e-15 -0)
(1.36415e-31 -5.48787e-14 -0)
(5.16517e-32 -2.40038e-15 -0)
(-4.23018e-25 4.59187e-12 -0)
(-1.66266e-25 -8.12841e-12 0)
(-8.39313e-27 1.82257e-12 -0)
(-5.21901e-28 -4.55787e-13 0)
(-4.48543e-30 9.49312e-14 -0)
(-5.67266e-30 -2.898e-14 0)
(-3.37252e-30 -1.39044e-14 0)
(1.90906e-29 5.70231e-14 0)
(3.07728e-29 1.43516e-13 0)
(-2.76291e-30 1.70901e-13 -0)
(-9.78513e-30 7.02289e-14 -0)
(-1.16218e-29 6.59003e-14 -0)
(-1.38159e-30 5.39192e-15 -0)
(2.7796e-30 -1.20708e-14 -0)
(3.33484e-30 -2.46067e-14 -0)
(-1.19936e-30 -7.59393e-14 0)
(-2.59351e-30 -3.17183e-14 0)
(5.51783e-31 8.9103e-15 0)
(-4.1335e-32 5.63441e-15 -0)
(-9.79053e-34 -1.75384e-16 0)
(-7.00329e-25 -5.63503e-12 0)
(-3.01008e-25 1.08217e-11 -0)
(-1.56663e-26 -2.48402e-12 0)
(-9.4299e-28 5.82134e-13 -0)
(-5.5386e-29 -2.58267e-13 0)
(4.69008e-30 -3.8629e-14 -0)
(-1.00065e-29 -1.70641e-13 0)
(-3.03483e-29 -1.32098e-13 0)
(-3.19769e-29 -1.08244e-13 0)
(-1.27233e-29 -5.58085e-14 0)
(-6.69822e-31 -1.66011e-14 0)
(4.77669e-30 -3.22513e-14 -0)
(1.57909e-29 -8.80993e-14 -0)
(7.71028e-30 -9.60585e-14 -0)
(3.09116e-30 -9.71865e-14 -0)
(-7.60224e-30 -9.69098e-14 0)
(-9.87682e-30 -7.9562e-14 0)
(1.12683e-30 1.84984e-14 0)
(-5.64693e-31 9.28103e-15 -0)
(2.95795e-31 -9.27392e-15 -0)
(-1.13546e-25 2.54797e-12 -0)
(-3.63491e-26 -3.78765e-12 0)
(-2.27039e-27 9.66139e-13 -0)
(-8.12092e-29 -1.70087e-13 0)
(-1.28641e-29 1.2023e-13 -0)
(4.27703e-30 4.84342e-14 0)
(-4.72772e-30 9.60208e-14 -0)
(-2.52065e-30 4.29044e-14 -0)
(-3.16546e-30 -4.95992e-14 0)
(-1.91953e-30 -1.15502e-14 0)
(1.20582e-29 6.7243e-14 0)
(2.6291e-30 7.33112e-14 0)
(-1.07137e-30 9.16577e-14 -0)
(-6.49353e-30 9.6111e-14 -0)
(-6.52353e-30 4.08621e-14 -0)
(-2.30178e-29 1.12209e-13 -0)
(-4.22201e-30 2.13737e-14 -0)
(2.26695e-30 -1.53359e-14 -0)
(6.76863e-31 -1.53227e-14 -0)
(1.256e-31 2.32284e-14 0)
(-1.96073e-25 3.06521e-12 -0)
(-8.23217e-26 -5.63353e-12 0)
(-4.22959e-27 1.28353e-12 -0)
(-3.22334e-28 -3.34252e-13 0)
(4.70602e-30 9.96107e-14 0)
(9.72859e-30 4.06564e-14 0)
(1.17543e-29 6.43079e-14 0)
(9.10537e-30 6.58327e-14 0)
(9.92418e-30 1.49112e-13 0)
(1.39114e-31 5.69231e-14 0)
(2.07784e-30 5.27029e-14 0)
(1.11162e-30 6.34648e-14 0)
(-3.53106e-30 6.64717e-14 -0)
(-6.48173e-30 6.16717e-14 -0)
(-1.46368e-29 1.14585e-13 -0)
(-5.52711e-30 3.31469e-14 -0)
(-1.57305e-29 8.36035e-14 -0)
(-1.9489e-30 1.02775e-14 -0)
(1.50274e-30 -7.55908e-14 -0)
(1.03919e-32 4.29808e-16 0)
(-1.01979e-24 -8.47579e-12 0)
(-2.89833e-25 1.08895e-11 -0)
(-1.6364e-26 -2.60858e-12 0)
(-7.18518e-28 5.34961e-13 -0)
(-7.27503e-29 -1.90734e-13 0)
(-8.15834e-31 -3.68859e-14 0)
(1.94558e-30 9.34563e-15 0)
(1.43573e-30 7.189e-15 0)
(1.71333e-30 1.25711e-14 0)
(1.0387e-30 1.40364e-14 0)
(-2.38029e-31 5.84439e-14 -0)
(3.81661e-32 1.2054e-15 0)
(-6.04738e-31 3.7499e-14 -0)
(-4.05757e-31 5.61391e-15 -0)
(1.27728e-31 -1.76748e-15 -0)
(1.47482e-30 -2.70102e-14 -0)
(1.8477e-30 -2.52369e-14 -0)
(2.51771e-30 -3.43554e-14 -0)
(-3.34585e-32 4.70994e-14 -0)
(-5.83698e-32 2.68164e-14 -0)
(-1.36144e-24 1.08789e-11 -0)
(-3.19265e-25 -1.19777e-11 0)
(-1.62249e-26 2.62526e-12 -0)
(-1.0092e-27 -6.78921e-13 0)
(-2.86143e-29 1.4011e-13 -0)
(-6.57432e-30 -7.6996e-14 0)
(-1.75195e-30 -7.41373e-14 0)
(-6.64497e-31 -4.88353e-14 0)
(1.7136e-30 -5.68976e-14 -0)
(-2.87537e-30 -7.10287e-14 0)
(-1.26146e-29 -9.1365e-14 0)
(1.18622e-30 8.41412e-15 0)
(-7.81267e-31 -1.44874e-14 0)
(1.64319e-31 1.11002e-14 0)
(-4.50288e-31 7.88947e-15 -0)
(-1.72777e-30 2.69578e-14 -0)
(7.20639e-31 -1.29606e-14 -0)
(1.25449e-30 1.91484e-14 0)
(8.14961e-31 3.4007e-14 0)
(8.78301e-32 -2.50591e-14 -0)
(-6.52664e-25 -7.68414e-12 0)
(-1.45462e-25 8.14786e-12 -0)
(-8.2675e-27 -1.93576e-12 0)
(-3.48251e-28 3.72585e-13 -0)
(-4.73278e-31 -1.58476e-13 0)
(1.26045e-29 -7.72922e-14 -0)
(3.65179e-30 -9.80537e-14 -0)
(-6.43041e-31 -1.49219e-13 0)
(-1.39115e-29 -1.39548e-13 0)
(-3.26049e-30 -7.32129e-14 0)
(-1.90018e-30 -1.01793e-13 0)
(1.15445e-30 -5.31161e-14 -0)
(-4.65195e-31 -6.0207e-14 0)
(-2.27507e-30 -5.9503e-14 0)
(-3.67979e-30 -6.06671e-14 0)
(-6.38966e-30 -6.21535e-14 0)
(-4.54905e-32 -3.24724e-16 0)
(-1.5633e-30 -1.47409e-14 0)
(1.7717e-31 1.07715e-14 0)
(-2.45985e-33 1.47841e-15 -0)
(7.26977e-29 -7.8094e-13 -0)
(9.13852e-29 2.91894e-13 0)
(-4.39847e-30 1.44338e-13 -0)
(-6.39761e-30 1.38779e-13 -0)
(-4.81179e-30 7.63624e-14 -0)
(2.66119e-31 7.76231e-14 0)
(-9.76859e-31 3.74391e-14 -0)
(-9.33883e-30 9.34702e-14 -0)
(-1.32744e-29 8.99089e-14 -0)
(-2.1479e-29 1.15572e-13 -0)
(-1.81989e-29 8.30399e-14 -0)
(2.21413e-30 -1.09018e-14 -0)
(7.27751e-30 -6.60753e-14 -0)
(5.62652e-31 -6.6629e-15 -0)
(2.90321e-30 -6.67241e-14 -0)
(-5.61316e-31 -1.37935e-14 0)
(-4.08261e-32 -4.32371e-16 0)
(2.59116e-31 5.75582e-15 0)
(1.87633e-31 5.08965e-15 0)
(-1.82155e-32 3.09872e-15 -0)
(-7.49496e-25 7.561e-12 -0)
(-1.95119e-25 -9.13983e-12 0)
(-1.1128e-26 2.2177e-12 -0)
(-4.51082e-28 -4.22108e-13 0)
(-4.19371e-29 1.64683e-13 -0)
(-3.81273e-30 1.05649e-13 -0)
(-1.59373e-29 7.02275e-14 -0)
(-1.11019e-29 5.65665e-14 -0)
(-1.13563e-29 4.53343e-14 -0)
(5.44562e-30 -5.06546e-14 -0)
(9.3287e-31 -6.21653e-14 -0)
(1.27889e-30 -4.57518e-14 -0)
(-1.25828e-30 1.26346e-14 -0)
(8.46243e-31 -5.48445e-15 -0)
(8.23653e-31 -1.84076e-14 -0)
(-1.95168e-30 -6.55428e-14 0)
(-4.0659e-30 -5.92856e-14 0)
(-3.96795e-30 -4.92717e-14 0)
(-3.52369e-31 -1.83547e-14 0)
(-8.52352e-33 1.22263e-15 -0)
(-1.48973e-24 -9.80284e-12 0)
(-4.51466e-25 1.36518e-11 -0)
(-2.50152e-26 -3.29568e-12 0)
(-1.19896e-27 6.89256e-13 -0)
(-1.21332e-28 -2.84362e-13 0)
(-2.73823e-31 -1.37409e-14 0)
(1.529e-31 6.95397e-15 0)
(-6.59737e-31 1.32979e-14 -0)
(5.58236e-30 -5.02953e-14 -0)
(5.47487e-30 -6.16815e-14 -0)
(1.23595e-30 -3.40687e-14 -0)
(4.80791e-31 -2.51406e-14 -0)
(-3.05214e-31 5.45774e-15 -0)
(6.8881e-30 -9.34593e-14 -0)
(-2.56043e-30 -3.90795e-14 0)
(-9.36274e-31 -2.03349e-14 0)
(-8.77993e-33 4.02151e-15 -0)
(-1.04895e-32 -1.79996e-15 0)
(-6.52635e-32 -4.12634e-15 0)
(-9.80168e-31 -2.08143e-14 0)
(-6.12391e-25 6.65543e-12 -0)
(-1.65361e-25 -8.48164e-12 0)
(-8.47431e-27 1.88871e-12 -0)
(-5.4797e-28 -4.75916e-13 0)
(1.35508e-31 1.06027e-13 0)
(5.22085e-31 5.72897e-15 0)
(-3.86671e-30 6.90341e-14 -0)
(-2.70428e-30 4.7353e-14 -0)
(9.60177e-31 7.64508e-14 0)
(-9.51033e-31 1.12343e-13 -0)
(-2.2037e-30 8.26358e-14 -0)
(-1.67115e-30 7.71128e-14 -0)
(7.73551e-31 5.03743e-14 0)
(6.35016e-31 3.80563e-14 0)
(-4.31846e-30 4.58649e-14 -0)
(-2.00569e-29 1.17352e-13 -0)
(-1.91172e-29 1.04196e-13 -0)
(-4.84468e-30 3.76526e-14 -0)
(-2.61602e-31 1.46154e-14 -0)
(-9.40376e-32 2.49381e-14 -0)
(6.95072e-27 -1.77175e-13 -0)
(-2.59636e-26 -2.96806e-12 0)
(-1.34906e-27 6.87999e-13 -0)
(-8.83682e-29 -1.7246e-13 0)
(-3.15822e-29 1.33683e-13 -0)
(-1.49522e-29 5.29599e-14 -0)
(1.71863e-29 -7.68123e-14 -0)
(8.41022e-30 -1.49356e-13 -0)
(-1.13184e-29 -6.0978e-14 0)
(-8.90451e-30 -3.15294e-14 0)
(1.54922e-29 6.73987e-14 0)
(1.50473e-29 9.99603e-14 0)
(3.06001e-30 7.0496e-14 0)
(-1.67774e-30 1.36121e-13 -0)
(-3.80141e-29 1.62729e-13 -0)
(-8.3581e-30 2.93928e-14 -0)
(4.10994e-30 -1.60243e-14 -0)
(5.15537e-31 -4.15369e-15 -0)
(-2.22055e-30 -3.95783e-14 0)
(3.50004e-33 5.67223e-15 0)
(-5.89571e-25 -4.68162e-12 0)
(-2.86213e-25 1.05709e-11 -0)
(-1.5313e-26 -2.39251e-12 0)
(-8.76576e-28 5.75178e-13 -0)
(-2.02176e-29 -1.89834e-13 0)
(1.63245e-29 -9.73052e-14 -0)
(4.33606e-31 -9.32586e-14 -0)
(1.30556e-30 -2.70128e-14 -0)
(4.98569e-31 -8.94792e-14 -0)
(-2.95093e-30 -8.8591e-14 0)
(-3.66101e-30 -5.44905e-14 0)
(-1.56585e-30 -4.33589e-14 0)
(1.95895e-30 -4.74025e-14 -0)
(1.77929e-30 -5.56676e-14 -0)
(1.40517e-30 -5.25285e-14 -0)
(1.30018e-30 -2.66543e-14 -0)
(1.91441e-30 -6.12459e-14 -0)
(-2.02931e-30 -9.40424e-14 0)
(1.15729e-31 1.20533e-15 0)
(1.0053e-31 1.0554e-14 0)
(-1.50905e-25 3.11352e-12 -0)
(-4.3666e-26 -4.24546e-12 0)
(-2.79009e-27 1.12073e-12 -0)
(-6.75248e-29 -1.55859e-13 0)
(-1.7283e-29 1.46736e-13 -0)
(2.24838e-30 4.48935e-14 0)
(-3.0166e-30 1.22542e-13 -0)
(-1.36773e-29 1.5008e-13 -0)
(-2.0336e-29 1.19508e-13 -0)
(-1.58166e-29 7.82962e-14 -0)
(-2.75242e-30 1.96637e-14 -0)
(4.45994e-30 -3.49534e-14 -0)
(4.04236e-30 -6.57388e-14 -0)
(1.55719e-31 -1.26494e-14 -0)
(-5.68917e-30 -8.75215e-14 0)
(-8.74709e-32 -1.7581e-15 0)
(2.81706e-31 3.41114e-15 0)
(1.16112e-30 7.4233e-14 0)
(-4.02195e-30 3.41871e-14 -0)
(2.44926e-30 -4.43875e-14 -0)
(-4.34924e-25 5.05284e-12 -0)
(-1.43958e-25 -7.79395e-12 0)
(-7.34811e-27 1.59326e-12 -0)
(-4.29966e-28 -4.71659e-13 0)
(-5.09009e-30 3.05789e-14 -0)
(-9.43738e-31 -1.48121e-14 0)
(3.25295e-31 -1.77401e-14 -0)
(1.42565e-30 -4.76244e-14 -0)
(1.90835e-30 -2.26661e-14 -0)
(2.50855e-30 -3.37514e-14 -0)
(5.88176e-31 -3.31727e-14 -0)
(8.82166e-33 -6.46376e-16 -0)
(-6.51784e-31 5.78492e-14 -0)
(-2.95333e-31 5.90205e-15 -0)
(-3.94734e-30 5.61599e-14 -0)
(2.14673e-30 -3.08718e-14 -0)
(1.06048e-31 -3.25102e-15 -0)
(-2.98255e-31 8.05516e-15 -0)
(3.16271e-30 -2.79462e-14 -0)
(4.05731e-31 -1.41787e-14 -0)
)
;

boundaryField
{
    movingWall
    {
        type            calculated;
        value           nonuniform List<vector> 
20
(
(0 1.27113e-11 -0)
(0 -1.01003e-11 -0)
(0 1.48944e-12 -0)
(0 -6.66598e-13 -0)
(0 -2.26073e-13 -0)
(0 -2.81266e-13 -0)
(0 -2.1268e-13 -0)
(0 -2.15459e-13 -0)
(0 -2.62015e-13 -0)
(0 -1.39873e-13 -0)
(0 -1.39294e-13 -0)
(0 -1.33873e-13 -0)
(0 -4.07698e-14 -0)
(0 -8.29158e-14 -0)
(0 -4.24591e-14 -0)
(0 -9.25846e-14 -0)
(0 -9.20689e-14 -0)
(0 -8.07627e-14 -0)
(0 -8.96589e-14 -0)
(0 -1.41787e-14 -0)
)
;
    }
    fixedWalls
    {
        type            calculated;
        value           nonuniform List<vector> 
60
(
(0 -5.97795e-11 -0)
(0 -3.65606e-12 -0)
(0 4.86034e-11 -0)
(0 -3.39665e-11 -0)
(0 9.48761e-14 -0)
(0 3.42744e-11 -0)
(0 -4.57009e-11 -0)
(0 1.68766e-11 -0)
(0 2.37167e-11 -0)
(0 -4.72329e-11 -0)
(0 5.10877e-11 -0)
(0 -3.49504e-11 -0)
(0 -7.21706e-13 -0)
(0 3.94338e-11 -0)
(0 -5.87006e-11 -0)
(0 3.62092e-11 -0)
(0 1.24669e-11 -0)
(0 -4.51692e-11 -0)
(0 1.86824e-11 -0)
(0 3.27224e-11 -0)
(0 2.20435e-14 -0)
(0 -4.57743e-14 -0)
(0 -5.09075e-14 -0)
(0 7.69552e-15 -0)
(0 -8.60724e-15 -0)
(0 2.23293e-15 -0)
(0 -1.27582e-14 -0)
(0 2.92679e-14 -0)
(0 9.67119e-15 -0)
(0 2.62344e-14 -0)
(0 -2.8507e-14 -0)
(0 -6.65539e-16 -0)
(0 -2.35136e-15 -0)
(0 -2.78858e-15 -0)
(0 -8.26864e-15 -0)
(0 2.55967e-14 -0)
(0 2.46819e-16 -0)
(0 3.81014e-15 -0)
(0 -4.91766e-14 -0)
(0 -1.14462e-14 -0)
(0 -1.7907e-11 -0)
(0 1.64227e-11 -0)
(0 -2.89957e-12 -0)
(0 1.00001e-12 -0)
(0 1.50831e-13 -0)
(0 2.55199e-13 -0)
(0 1.69471e-13 -0)
(0 1.31268e-13 -0)
(0 3.97499e-14 -0)
(0 2.55321e-14 -0)
(0 2.96858e-14 -0)
(0 -7.23726e-14 -0)
(0 -1.43503e-13 -0)
(0 -1.53129e-13 -0)
(0 -7.82066e-14 -0)
(0 -4.4885e-15 -0)
(0 2.70367e-14 -0)
(0 2.48217e-14 -0)
(0 3.69242e-14 -0)
(0 5.8481e-14 -0)
)
;
    }
    frontAndBack
    {
        type            empty;
    }
}


// ************************************************************************* //
