/*--------------------------------*- C++ -*----------------------------------*\
| =========                 |                                                 |
| \\      /  F ield         | OpenFOAM: The Open Source CFD Toolbox           |
|  \\    /   O peration     | Version:  2506                                  |
|   \\  /    A nd           | Website:  www.openfoam.com                      |
|    \\/     M anipulation  |                                                 |
\*---------------------------------------------------------------------------*/
FoamFile
{
    version     2.0;
    format      ascii;
    arch        "LSB;label=32;scalar=64";
    class       volVectorField;
    location    "9";
    object      momentum1:momentum;
}
// * * * * * * * * * * * * * * * * * * * * * * * * * * * * * * * * * * * * * //

dimensions      [1 1 -1 0 0 0 0];

internalField   nonuniform List<vector> 
400
(
(-2.5e-07 3.7989e-20 0)
(-2.5e-07 -8.09847e-21 0)
(-2.5e-07 1.92828e-21 0)
(-2.5e-07 -4.05448e-22 0)
(-2.5e-07 9.43927e-23 0)
(-2.5e-07 -5.37053e-24 0)
(-2.5e-07 1.15064e-23 0)
(-2.5e-07 1.50404e-23 0)
(-2.5e-07 1.64022e-23 0)
(-2.5e-07 2.66878e-23 0)
(-2.5e-07 6.35943e-23 0)
(-2.5e-07 6.34957e-23 0)
(-2.5e-07 2.24811e-23 0)
(-2.5e-07 -2.1837e-23 0)
(-2.5e-07 -3.87862e-23 0)
(-2.5e-07 -4.8365e-23 0)
(-2.5e-07 -2.7565e-23 0)
(-2.5e-07 -4.93457e-24 0)
(-2.5e-07 2.14031e-23 0)
(-2.5e-07 1.37772e-23 0)
(-2.5e-07 2.79326e-21 0)
(-2.5e-07 -4.46292e-22 0)
(-2.5e-07 1.49909e-22 0)
(-2.5e-07 -1.01056e-23 0)
(-2.5e-07 1.69361e-23 0)
(-2.5e-07 2.69616e-23 0)
(-2.5e-07 3.2384e-23 0)
(-2.5e-07 3.45507e-23 0)
(-2.5e-07 3.65485e-23 0)
(-2.5e-07 1.62276e-23 0)
(-2.5e-07 8.51018e-24 0)
(-2.5e-07 2.63445e-23 0)
(-2.5e-07 1.29349e-23 0)
(-2.5e-07 -1.13781e-23 0)
(-2.5e-07 -2.9051e-23 0)
(-2.5e-07 -3.17889e-23 0)
(-2.5e-07 -7.51326e-24 0)
(-2.5e-07 3.33166e-24 0)
(-2.5e-07 1.27161e-23 0)
(-2.5e-07 5.27237e-24 0)
(-2.5e-07 -3.28674e-20 0)
(-2.5e-07 7.11032e-21 0)
(-2.5e-07 -1.63907e-21 0)
(-2.5e-07 3.52056e-22 0)
(-2.5e-07 -8.65303e-23 0)
(-2.5e-07 2.27573e-23 0)
(-2.5e-07 2.21093e-23 0)
(-2.5e-07 2.58846e-23 0)
(-2.5e-07 3.29431e-23 0)
(-2.5e-07 2.3412e-23 0)
(-2.5e-07 -2.65162e-23 0)
(-2.5e-07 -3.35022e-23 0)
(-2.5e-07 -3.33114e-23 0)
(-2.5e-07 -1.3638e-23 0)
(-2.5e-07 -1.87001e-23 0)
(-2.5e-07 -2.89099e-23 0)
(-2.5e-07 -3.50263e-24 0)
(-2.5e-07 1.7699e-23 0)
(-2.5e-07 -2.13766e-23 0)
(-2.5e-07 -3.18172e-23 0)
(-2.5e-07 2.31603e-20 0)
(-2.5e-07 -5.00026e-21 0)
(-2.5e-07 1.21954e-21 0)
(-2.5e-07 -2.40905e-22 0)
(-2.5e-07 4.23044e-23 0)
(-2.5e-07 -2.51646e-23 0)
(-2.5e-07 -1.04199e-24 0)
(-2.5e-07 -9.51879e-24 0)
(-2.5e-07 4.16331e-24 0)
(-2.5e-07 5.12931e-23 0)
(-2.5e-07 4.25419e-23 0)
(-2.5e-07 1.54985e-23 0)
(-2.5e-07 -1.21193e-23 0)
(-2.5e-07 -5.39886e-24 0)
(-2.5e-07 5.91387e-24 0)
(-2.5e-07 -2.6852e-23 0)
(-2.5e-07 -2.46837e-23 0)
(-2.5e-07 1.1026e-24 0)
(-2.5e-07 -1.66447e-23 0)
(-2.5e-07 -2.90716e-23 0)
(-2.5e-07 -4.15051e-22 0)
(-2.5e-07 2.43619e-22 0)
(-2.5e-07 1.78079e-23 0)
(-2.5e-07 5.23658e-23 0)
(-2.5e-07 1.04311e-23 0)
(-2.5e-07 9.15409e-24 0)
(-2.5e-07 8.11076e-24 0)
(-2.5e-07 -1.10056e-24 0)
(-2.5e-07 1.46472e-23 0)
(-2.5e-07 2.52115e-23 0)
(-2.5e-07 1.60515e-23 0)
(-2.5e-07 1.94483e-23 0)
(-2.5e-07 -1.06238e-24 0)
(-2.5e-07 -3.06133e-23 0)
(-2.5e-07 -1.01694e-23 0)
(-2.5e-07 -6.03218e-24 0)
(-2.5e-07 -7.19213e-24 0)
(-2.5e-07 -7.05092e-24 0)
(-2.5e-07 -6.21439e-25 0)
(-2.5e-07 -5.37952e-24 0)
(-2.5e-07 -2.30309e-20 0)
(-2.5e-07 5.11373e-21 0)
(-2.5e-07 -1.15128e-21 0)
(-2.5e-07 2.86264e-22 0)
(-2.5e-07 -1.18123e-23 0)
(-2.5e-07 4.89359e-23 0)
(-2.5e-07 6.06378e-23 0)
(-2.5e-07 8.36969e-23 0)
(-2.5e-07 5.36053e-23 0)
(-2.5e-07 -4.04169e-24 0)
(-2.5e-07 -3.4833e-23 0)
(-2.5e-07 -4.40886e-23 0)
(-2.5e-07 -6.40585e-23 0)
(-2.5e-07 -5.75684e-23 0)
(-2.5e-07 -3.38814e-23 0)
(-2.5e-07 3.94841e-24 0)
(-2.5e-07 2.04417e-23 0)
(-2.5e-07 1.54816e-23 0)
(-2.5e-07 -1.83404e-24 0)
(-2.5e-07 1.39558e-24 0)
(-2.5e-07 3.10703e-20 0)
(-2.5e-07 -6.95384e-21 0)
(-2.5e-07 1.57671e-21 0)
(-2.5e-07 -4.04971e-22 0)
(-2.5e-07 5.3613e-23 0)
(-2.5e-07 -3.03534e-23 0)
(-2.5e-07 1.46602e-23 0)
(-2.5e-07 5.74354e-23 0)
(-2.5e-07 7.38536e-23 0)
(-2.5e-07 5.69955e-23 0)
(-2.5e-07 1.0087e-23 0)
(-2.5e-07 -3.70271e-23 0)
(-2.5e-07 -4.481e-23 0)
(-2.5e-07 -2.00666e-23 0)
(-2.5e-07 -7.95163e-24 0)
(-2.5e-07 1.96116e-23 0)
(-2.5e-07 3.1035e-23 0)
(-2.5e-07 1.52287e-23 0)
(-2.5e-07 -1.52109e-23 0)
(-2.5e-07 -7.97385e-24 0)
(-2.5e-07 -1.11408e-20 0)
(-2.5e-07 2.39919e-21 0)
(-2.5e-07 -5.87491e-22 0)
(-2.5e-07 1.19364e-22 0)
(-2.5e-07 -2.67488e-23 0)
(-2.5e-07 2.20765e-23 0)
(-2.5e-07 -1.23091e-23 0)
(-2.5e-07 -1.46876e-23 0)
(-2.5e-07 1.59552e-23 0)
(-2.5e-07 4.15477e-23 0)
(-2.5e-07 4.48306e-23 0)
(-2.5e-07 8.96554e-24 0)
(-2.5e-07 -2.92222e-24 0)
(-2.5e-07 -1.68907e-23 0)
(-2.5e-07 -3.99118e-23 0)
(-2.5e-07 -5.12833e-23 0)
(-2.5e-07 -4.93833e-23 0)
(-2.5e-07 -3.6955e-23 0)
(-2.5e-07 -1.10435e-23 0)
(-2.5e-07 1.3518e-24 0)
(-2.5e-07 -1.59918e-20 0)
(-2.5e-07 3.6532e-21 0)
(-2.5e-07 -8.2382e-22 0)
(-2.5e-07 2.41086e-22 0)
(-2.5e-07 1.1811e-23 0)
(-2.5e-07 5.9822e-23 0)
(-2.5e-07 4.56954e-23 0)
(-2.5e-07 3.45777e-23 0)
(-2.5e-07 1.66388e-23 0)
(-2.5e-07 6.10972e-25 0)
(-2.5e-07 9.85639e-24 0)
(-2.5e-07 4.3789e-24 0)
(-2.5e-07 -1.32803e-23 0)
(-2.5e-07 -2.62751e-23 0)
(-2.5e-07 -3.19343e-23 0)
(-2.5e-07 -4.16864e-23 0)
(-2.5e-07 -4.7039e-23 0)
(-2.5e-07 -4.74072e-23 0)
(-2.5e-07 -4.96997e-24 0)
(-2.5e-07 6.04449e-24 0)
(-2.5e-07 3.00796e-20 0)
(-2.5e-07 -6.65394e-21 0)
(-2.5e-07 1.56828e-21 0)
(-2.5e-07 -3.3578e-22 0)
(-2.5e-07 9.53558e-23 0)
(-2.5e-07 5.52944e-24 0)
(-2.5e-07 5.20453e-23 0)
(-2.5e-07 4.9928e-23 0)
(-2.5e-07 3.40728e-23 0)
(-2.5e-07 1.85002e-23 0)
(-2.5e-07 -1.01819e-24 0)
(-2.5e-07 7.91567e-24 0)
(-2.5e-07 -4.03169e-24 0)
(-2.5e-07 -1.80693e-23 0)
(-2.5e-07 -1.80665e-23 0)
(-2.5e-07 -1.36506e-23 0)
(-2.5e-07 -1.83035e-23 0)
(-2.5e-07 -1.83211e-23 0)
(-2.5e-07 -1.77595e-25 0)
(-2.5e-07 -5.44163e-25 0)
(-2.5e-07 -3.12861e-20 0)
(-2.5e-07 6.66372e-21 0)
(-2.5e-07 -1.54507e-21 0)
(-2.5e-07 3.7162e-22 0)
(-2.5e-07 -5.1057e-23 0)
(-2.5e-07 2.13463e-23 0)
(-2.5e-07 5.90779e-24 0)
(-2.5e-07 3.40172e-24 0)
(-2.5e-07 -7.52932e-24 0)
(-2.5e-07 1.01204e-23 0)
(-2.5e-07 3.45172e-23 0)
(-2.5e-07 3.52451e-23 0)
(-2.5e-07 1.34819e-23 0)
(-2.5e-07 3.70082e-24 0)
(-2.5e-07 -1.42686e-23 0)
(-2.5e-07 -1.60229e-23 0)
(-2.5e-07 -1.39006e-23 0)
(-2.5e-07 1.63786e-23 0)
(-2.5e-07 5.99113e-24 0)
(-2.5e-07 -8.7623e-25 0)
(-2.5e-07 2.12341e-20 0)
(-2.5e-07 -4.4632e-21 0)
(-2.5e-07 1.06774e-21 0)
(-2.5e-07 -2.33672e-22 0)
(-2.5e-07 7.46607e-25 0)
(-2.5e-07 -4.0769e-23 0)
(-2.5e-07 -9.31069e-24 0)
(-2.5e-07 1.07735e-24 0)
(-2.5e-07 2.49225e-23 0)
(-2.5e-07 1.11336e-23 0)
(-2.5e-07 4.66675e-24 0)
(-2.5e-07 -5.43361e-24 0)
(-2.5e-07 1.93165e-24 0)
(-2.5e-07 9.55866e-24 0)
(-2.5e-07 1.51639e-23 0)
(-2.5e-07 2.57011e-23 0)
(-2.5e-07 3.50224e-23 0)
(-2.5e-07 2.65129e-23 0)
(-2.5e-07 4.112e-24 0)
(-2.5e-07 -4.15962e-25 0)
(-2.5e-07 -2.32725e-23 0)
(-2.5e-07 7.82692e-23 0)
(-2.5e-07 -7.61837e-24 0)
(-2.5e-07 -1.15248e-23 0)
(-2.5e-07 -1.57531e-23 0)
(-2.5e-07 8.57088e-25 0)
(-2.5e-07 -6.52298e-24 0)
(-2.5e-07 -2.49781e-23 0)
(-2.5e-07 -3.69106e-23 0)
(-2.5e-07 -4.64624e-23 0)
(-2.5e-07 -5.47895e-23 0)
(-2.5e-07 -5.07744e-23 0)
(-2.5e-07 -2.75349e-23 0)
(-2.5e-07 -2.11114e-23 0)
(-2.5e-07 -1.08777e-23 0)
(-2.5e-07 1.01736e-23 0)
(-2.5e-07 2.3606e-23 0)
(-2.5e-07 1.12545e-23 0)
(-2.5e-07 9.2164e-24 0)
(-2.5e-07 -1.4696e-24 0)
(-2.5e-07 -2.47817e-20 0)
(-2.5e-07 5.33706e-21 0)
(-2.5e-07 -1.25446e-21 0)
(-2.5e-07 2.6716e-22 0)
(-2.5e-07 -6.36634e-23 0)
(-2.5e-07 -9.0222e-24 0)
(-2.5e-07 -5.67344e-23 0)
(-2.5e-07 -4.90658e-23 0)
(-2.5e-07 -6.26255e-23 0)
(-2.5e-07 -2.68762e-23 0)
(-2.5e-07 -3.75157e-24 0)
(-2.5e-07 -6.9882e-24 0)
(-2.5e-07 -2.48975e-23 0)
(-2.5e-07 -3.85746e-23 0)
(-2.5e-07 -1.11863e-23 0)
(-2.5e-07 7.44431e-24 0)
(-2.5e-07 1.71454e-23 0)
(-2.5e-07 2.0133e-23 0)
(-2.5e-07 4.79944e-24 0)
(-2.5e-07 -1.74286e-24 0)
(-2.5e-07 3.79923e-20 0)
(-2.5e-07 -8.26749e-21 0)
(-2.5e-07 1.89757e-21 0)
(-2.5e-07 -4.34873e-22 0)
(-2.5e-07 1.0667e-22 0)
(-2.5e-07 4.9819e-24 0)
(-2.5e-07 5.49685e-24 0)
(-2.5e-07 -1.2403e-23 0)
(-2.5e-07 -2.77479e-23 0)
(-2.5e-07 -2.21901e-23 0)
(-2.5e-07 -9.06953e-24 0)
(-2.5e-07 -4.78103e-24 0)
(-2.5e-07 -1.39808e-23 0)
(-2.5e-07 -1.84254e-23 0)
(-2.5e-07 1.63796e-23 0)
(-2.5e-07 1.15107e-23 0)
(-2.5e-07 -5.4581e-25 0)
(-2.5e-07 1.45691e-24 0)
(-2.5e-07 3.95408e-24 0)
(-2.5e-07 1.17728e-23 0)
(-2.5e-07 -2.30034e-20 0)
(-2.5e-07 4.87409e-21 0)
(-2.5e-07 -1.12171e-21 0)
(-2.5e-07 2.8785e-22 0)
(-2.5e-07 3.19512e-25 0)
(-2.5e-07 2.27827e-23 0)
(-2.5e-07 -1.40029e-23 0)
(-2.5e-07 -1.42772e-23 0)
(-2.5e-07 3.13985e-24 0)
(-2.5e-07 -2.11636e-24 0)
(-2.5e-07 -6.6669e-24 0)
(-2.5e-07 -5.41789e-24 0)
(-2.5e-07 3.83902e-24 0)
(-2.5e-07 4.17156e-24 0)
(-2.5e-07 -2.3539e-23 0)
(-2.5e-07 -4.2728e-23 0)
(-2.5e-07 -4.58685e-23 0)
(-2.5e-07 -3.21669e-23 0)
(-2.5e-07 -4.47477e-24 0)
(-2.5e-07 -9.42712e-25 0)
(-2.5e-07 -9.80773e-21 0)
(-2.5e-07 2.18691e-21 0)
(-2.5e-07 -4.90213e-22 0)
(-2.5e-07 1.28099e-22 0)
(-2.5e-07 -5.90617e-23 0)
(-2.5e-07 -7.05829e-23 0)
(-2.5e-07 -5.59361e-23 0)
(-2.5e-07 -1.40775e-23 0)
(-2.5e-07 4.64037e-23 0)
(-2.5e-07 7.06048e-23 0)
(-2.5e-07 5.74646e-23 0)
(-2.5e-07 3.76333e-23 0)
(-2.5e-07 1.08517e-23 0)
(-2.5e-07 -3.08134e-24 0)
(-2.5e-07 -5.8401e-23 0)
(-2.5e-07 -7.10896e-23 0)
(-2.5e-07 -6.41205e-23 0)
(-2.5e-07 -3.10289e-23 0)
(-2.5e-07 1.40263e-23 0)
(-2.5e-07 1.54262e-25 0)
(-2.5e-07 3.14833e-20 0)
(-2.5e-07 -6.76886e-21 0)
(-2.5e-07 1.6001e-21 0)
(-2.5e-07 -3.81002e-22 0)
(-2.5e-07 2.66253e-23 0)
(-2.5e-07 -4.19415e-23 0)
(-2.5e-07 -1.16238e-24 0)
(-2.5e-07 -1.20828e-23 0)
(-2.5e-07 -1.39297e-24 0)
(-2.5e-07 8.32739e-24 0)
(-2.5e-07 1.67966e-23 0)
(-2.5e-07 9.02842e-24 0)
(-2.5e-07 -1.03315e-23 0)
(-2.5e-07 -7.9907e-24 0)
(-2.5e-07 -6.68765e-24 0)
(-2.5e-07 -1.21948e-23 0)
(-2.5e-07 -7.81445e-24 0)
(-2.5e-07 5.39467e-24 0)
(-2.5e-07 2.40036e-23 0)
(-2.5e-07 2.38134e-24 0)
(-2.5e-07 -1.2117e-20 0)
(-2.5e-07 2.57133e-21 0)
(-2.5e-07 -6.22381e-22 0)
(-2.5e-07 1.08311e-22 0)
(-2.5e-07 -2.94456e-23 0)
(-2.5e-07 1.25206e-23 0)
(-2.5e-07 -6.15422e-24 0)
(-2.5e-07 -2.27833e-23 0)
(-2.5e-07 -4.25411e-23 0)
(-2.5e-07 -5.05026e-23 0)
(-2.5e-07 -3.49936e-23 0)
(-2.5e-07 -3.18992e-23 0)
(-2.5e-07 -1.53728e-23 0)
(-2.5e-07 -3.07759e-24 0)
(-2.5e-07 1.62508e-23 0)
(-2.5e-07 1.24383e-23 0)
(-2.5e-07 2.0646e-23 0)
(-2.5e-07 3.9104e-24 0)
(-2.5e-07 -2.94113e-23 0)
(-2.5e-07 -1.37947e-23 0)
(-2.5e-07 -2.15188e-20 0)
(-2.5e-07 4.61763e-21 0)
(-2.5e-07 -1.153e-21 0)
(-2.5e-07 2.27901e-22 0)
(-2.5e-07 -4.16144e-23 0)
(-2.5e-07 1.59285e-23 0)
(-2.5e-07 -4.58417e-24 0)
(-2.5e-07 -7.48381e-24 0)
(-2.5e-07 -2.10485e-23 0)
(-2.5e-07 -1.85811e-23 0)
(-2.5e-07 -4.43268e-24 0)
(-2.5e-07 -3.41197e-24 0)
(-2.5e-07 -2.81674e-24 0)
(-2.5e-07 -1.25098e-23 0)
(-2.5e-07 -1.75719e-23 0)
(-2.5e-07 -1.73842e-23 0)
(-2.5e-07 -8.15499e-24 0)
(-2.5e-07 -9.25665e-24 0)
(-2.5e-07 -2.82929e-23 0)
(-2.5e-07 -7.15388e-24 0)
)
;

boundaryField
{
    movingWall
    {
        type            calculated;
        value           uniform (0 0 0);
    }
    fixedWalls
    {
        type            calculated;
        value           uniform (0 0 0);
    }
    frontAndBack
    {
        type            empty;
    }
}


// ************************************************************************* //
