/*--------------------------------*- C++ -*----------------------------------*\
| =========                 |                                                 |
| \\      /  F ield         | OpenFOAM: The Open Source CFD Toolbox           |
|  \\    /   O peration     | Version:  2506                                  |
|   \\  /    A nd           | Website:  www.openfoam.com                      |
|    \\/     M anipulation  |                                                 |
\*---------------------------------------------------------------------------*/
FoamFile
{
    version     2.0;
    format      ascii;
    arch        "LSB;label=32;scalar=64";
    class       volScalarField;
    location    "9";
    object      norm_k_field;
}
// * * * * * * * * * * * * * * * * * * * * * * * * * * * * * * * * * * * * * //

dimensions      [0 0 0 0 0 0 0];

internalField   nonuniform List<scalar> 
400
(
3.06334e+09
1.81192e+09
3.06334e+09
3.06334e+09
3.06334e+09
3.06334e+09
3.06333e+09
3.06333e+09
3.06333e+09
3.06333e+09
3.06333e+09
3.06333e+09
3.06333e+09
3.06333e+09
3.06333e+09
3.06333e+09
3.06333e+09
3.06333e+09
3.06333e+09
3.06333e+09
2.66804e+09
3.10959e+09
3.10952e+09
3.10949e+09
3.10944e+09
3.10941e+09
3.10938e+09
3.10935e+09
3.10932e+09
3.1093e+09
3.10927e+09
3.10925e+09
3.10923e+09
3.10922e+09
3.1092e+09
3.10919e+09
3.10918e+09
3.10918e+09
3.10918e+09
3.10918e+09
3.1839e+09
3.1839e+09
3.18381e+09
3.18379e+09
3.18373e+09
3.1837e+09
3.18366e+09
3.18363e+09
3.18359e+09
3.18357e+09
3.18354e+09
3.18353e+09
3.1835e+09
3.18349e+09
3.18347e+09
3.18347e+09
3.18345e+09
3.18345e+09
3.18344e+09
3.18344e+09
3.26379e+09
3.2638e+09
3.2637e+09
3.26368e+09
3.26362e+09
3.26359e+09
3.26354e+09
3.26352e+09
3.26347e+09
3.26346e+09
3.26342e+09
3.26341e+09
3.26338e+09
3.26337e+09
3.26335e+09
3.26334e+09
3.26333e+09
3.26333e+09
3.26332e+09
3.26332e+09
3.33285e+09
3.33285e+09
3.33276e+09
3.33274e+09
3.33267e+09
3.33264e+09
3.3326e+09
3.33257e+09
3.33253e+09
3.3325e+09
3.33247e+09
3.33246e+09
3.33242e+09
3.33242e+09
3.33239e+09
3.33239e+09
3.33237e+09
3.33237e+09
3.33236e+09
3.33236e+09
3.38463e+09
3.38464e+09
3.38454e+09
3.38451e+09
3.38445e+09
3.38441e+09
3.38437e+09
3.38434e+09
3.3843e+09
3.38427e+09
3.38424e+09
3.38422e+09
3.38419e+09
3.38418e+09
3.38416e+09
3.38415e+09
3.38414e+09
3.38413e+09
3.38413e+09
3.38413e+09
3.42e+09
3.42001e+09
3.4199e+09
3.41988e+09
3.41981e+09
3.41978e+09
3.41973e+09
3.4197e+09
3.41966e+09
3.41963e+09
3.41959e+09
3.41958e+09
3.41955e+09
3.41954e+09
3.41951e+09
3.41951e+09
3.41949e+09
3.41949e+09
3.41948e+09
3.41948e+09
3.443e+09
3.44301e+09
3.44291e+09
3.44288e+09
3.44282e+09
3.44278e+09
3.44273e+09
3.4427e+09
3.44266e+09
3.44263e+09
3.4426e+09
3.44257e+09
3.44255e+09
3.44253e+09
3.44251e+09
3.4425e+09
3.44249e+09
3.44248e+09
3.44248e+09
3.44248e+09
3.45798e+09
3.45799e+09
3.45789e+09
3.45785e+09
3.4578e+09
3.45775e+09
3.45771e+09
3.45767e+09
3.45763e+09
3.4576e+09
3.45757e+09
3.45755e+09
3.45752e+09
3.4575e+09
3.45749e+09
3.45747e+09
3.45746e+09
3.45746e+09
3.45745e+09
3.45745e+09
3.46834e+09
3.46835e+09
3.46824e+09
3.46821e+09
3.46815e+09
3.46811e+09
3.46806e+09
3.46803e+09
3.46799e+09
3.46796e+09
3.46792e+09
3.46791e+09
3.46787e+09
3.46786e+09
3.46784e+09
3.46783e+09
3.46782e+09
3.46781e+09
3.46781e+09
3.46781e+09
3.47637e+09
3.47637e+09
3.47626e+09
3.47624e+09
3.47617e+09
3.47614e+09
3.47608e+09
3.47606e+09
3.47601e+09
3.47599e+09
3.47594e+09
3.47593e+09
3.47589e+09
3.47589e+09
3.47586e+09
3.47586e+09
3.47584e+09
3.47584e+09
3.47583e+09
3.47583e+09
3.48346e+09
3.48347e+09
3.48336e+09
3.48333e+09
3.48327e+09
3.48323e+09
3.48318e+09
3.48315e+09
3.48311e+09
3.48308e+09
3.48305e+09
3.48302e+09
3.483e+09
3.48298e+09
3.48296e+09
3.48295e+09
3.48294e+09
3.48293e+09
3.48293e+09
3.48292e+09
3.49045e+09
3.49045e+09
3.49035e+09
3.49032e+09
3.49025e+09
3.49022e+09
3.49016e+09
3.49013e+09
3.49009e+09
3.49007e+09
3.49002e+09
3.49001e+09
3.48997e+09
3.48997e+09
3.48994e+09
3.48993e+09
3.48992e+09
3.48992e+09
3.48991e+09
3.48991e+09
3.49777e+09
3.49777e+09
3.49768e+09
3.49764e+09
3.49757e+09
3.49754e+09
3.49748e+09
3.49746e+09
3.49741e+09
3.49739e+09
3.49735e+09
3.49733e+09
3.4973e+09
3.49729e+09
3.49726e+09
3.49726e+09
3.49724e+09
3.49724e+09
3.49723e+09
3.49723e+09
3.50561e+09
3.50561e+09
3.50552e+09
3.50548e+09
3.50542e+09
3.50538e+09
3.50533e+09
3.5053e+09
3.50525e+09
3.50523e+09
3.50519e+09
3.50517e+09
3.50513e+09
3.50513e+09
3.5051e+09
3.5051e+09
3.50508e+09
3.50507e+09
3.50507e+09
3.50507e+09
3.51388e+09
3.51388e+09
3.51378e+09
3.51375e+09
3.51368e+09
3.51364e+09
3.5136e+09
3.51356e+09
3.51352e+09
3.51349e+09
3.51345e+09
3.51343e+09
3.5134e+09
3.51339e+09
3.51337e+09
3.51335e+09
3.51334e+09
3.51334e+09
3.51333e+09
3.51333e+09
3.52217e+09
3.52216e+09
3.52207e+09
3.52203e+09
3.52197e+09
3.52193e+09
3.52187e+09
3.52184e+09
3.5218e+09
3.52177e+09
3.52174e+09
3.52171e+09
3.52169e+09
3.52167e+09
3.52165e+09
3.52164e+09
3.52163e+09
3.52162e+09
3.52162e+09
3.52161e+09
3.52973e+09
3.52973e+09
3.52963e+09
3.52959e+09
3.52954e+09
3.52949e+09
3.52945e+09
3.52941e+09
3.52937e+09
3.52934e+09
3.52931e+09
3.52928e+09
3.52926e+09
3.52923e+09
3.52922e+09
3.52921e+09
3.52919e+09
3.52919e+09
3.52918e+09
3.52918e+09
3.5356e+09
3.5356e+09
3.5355e+09
3.53547e+09
3.5354e+09
3.53537e+09
3.53531e+09
3.53529e+09
3.53523e+09
3.53522e+09
3.53517e+09
3.53516e+09
3.53512e+09
3.53512e+09
3.53509e+09
3.53508e+09
3.53507e+09
3.53506e+09
3.53506e+09
3.53506e+09
3.5383e+09
3.5383e+09
3.5383e+09
3.53829e+09
3.53829e+09
3.53829e+09
3.53829e+09
3.53829e+09
3.53829e+09
3.53829e+09
3.53829e+09
3.53829e+09
3.53829e+09
3.53829e+09
3.53829e+09
3.53829e+09
3.53829e+09
3.53829e+09
3.53829e+09
3.53829e+09
)
;

boundaryField
{
    movingWall
    {
        type            calculated;
        value           nonuniform List<scalar> 
20
(
3.5383e+09
3.5383e+09
3.5383e+09
3.53829e+09
3.53829e+09
3.53829e+09
3.53829e+09
3.53829e+09
3.53829e+09
3.53829e+09
3.53829e+09
3.53829e+09
3.53829e+09
3.53829e+09
3.53829e+09
3.53829e+09
3.53829e+09
3.53829e+09
3.53829e+09
3.53829e+09
)
;
    }
    fixedWalls
    {
        type            calculated;
        value           nonuniform List<scalar> 
60
(
3.06334e+09
2.66804e+09
3.1839e+09
3.26379e+09
3.33285e+09
3.38463e+09
3.42e+09
3.443e+09
3.45798e+09
3.46834e+09
3.47637e+09
3.48346e+09
3.49045e+09
3.49777e+09
3.50561e+09
3.51388e+09
3.52217e+09
3.52973e+09
3.5356e+09
3.5383e+09
3.06333e+09
3.10918e+09
3.18344e+09
3.26332e+09
3.33236e+09
3.38413e+09
3.41948e+09
3.44248e+09
3.45745e+09
3.46781e+09
3.47583e+09
3.48292e+09
3.48991e+09
3.49723e+09
3.50507e+09
3.51333e+09
3.52161e+09
3.52918e+09
3.53506e+09
3.53829e+09
3.06334e+09
1.81192e+09
3.06334e+09
3.06334e+09
3.06334e+09
3.06334e+09
3.06333e+09
3.06333e+09
3.06333e+09
3.06333e+09
3.06333e+09
3.06333e+09
3.06333e+09
3.06333e+09
3.06333e+09
3.06333e+09
3.06333e+09
3.06333e+09
3.06333e+09
3.06333e+09
)
;
    }
    frontAndBack
    {
        type            empty;
    }
}


// ************************************************************************* //
