/*--------------------------------*- C++ -*----------------------------------*\
| =========                 |                                                 |
| \\      /  F ield         | OpenFOAM: The Open Source CFD Toolbox           |
|  \\    /   O peration     | Version:  2506                                  |
|   \\  /    A nd           | Website:  www.openfoam.com                      |
|    \\/     M anipulation  |                                                 |
\*---------------------------------------------------------------------------*/
FoamFile
{
    version     2.0;
    format      ascii;
    arch        "LSB;label=32;scalar=64";
    class       volVectorField;
    location    "9";
    object      norm_U_L1;
}
// * * * * * * * * * * * * * * * * * * * * * * * * * * * * * * * * * * * * * //

dimensions      [0 0 0 0 0 0 0];

internalField   nonuniform List<vector> 
400
(
(-0.0025 3.7989e-16 0)
(-0.0025 -8.09847e-17 0)
(-0.0025 1.92828e-17 0)
(-0.0025 -4.05448e-18 0)
(-0.0025 9.43927e-19 0)
(-0.0025 -5.37053e-20 0)
(-0.0025 1.15064e-19 0)
(-0.0025 1.50404e-19 0)
(-0.0025 1.64022e-19 0)
(-0.0025 2.66878e-19 0)
(-0.0025 6.35943e-19 0)
(-0.0025 6.34957e-19 0)
(-0.0025 2.24811e-19 0)
(-0.0025 -2.1837e-19 0)
(-0.0025 -3.87862e-19 0)
(-0.0025 -4.8365e-19 0)
(-0.0025 -2.7565e-19 0)
(-0.0025 -4.93457e-20 0)
(-0.0025 2.14031e-19 0)
(-0.0025 1.37772e-19 0)
(-0.0025 2.79326e-17 0)
(-0.0025 -4.46292e-18 0)
(-0.0025 1.49909e-18 0)
(-0.0025 -1.01056e-19 0)
(-0.0025 1.69361e-19 0)
(-0.0025 2.69616e-19 0)
(-0.0025 3.2384e-19 0)
(-0.0025 3.45507e-19 0)
(-0.0025 3.65485e-19 0)
(-0.0025 1.62276e-19 0)
(-0.0025 8.51018e-20 0)
(-0.0025 2.63445e-19 0)
(-0.0025 1.29349e-19 0)
(-0.0025 -1.13781e-19 0)
(-0.0025 -2.9051e-19 0)
(-0.0025 -3.17889e-19 0)
(-0.0025 -7.51326e-20 0)
(-0.0025 3.33166e-20 0)
(-0.0025 1.27161e-19 0)
(-0.0025 5.27237e-20 0)
(-0.0025 -3.28674e-16 0)
(-0.0025 7.11032e-17 0)
(-0.0025 -1.63907e-17 0)
(-0.0025 3.52056e-18 0)
(-0.0025 -8.65303e-19 0)
(-0.0025 2.27573e-19 0)
(-0.0025 2.21093e-19 0)
(-0.0025 2.58846e-19 0)
(-0.0025 3.29431e-19 0)
(-0.0025 2.3412e-19 0)
(-0.0025 -2.65162e-19 0)
(-0.0025 -3.35022e-19 0)
(-0.0025 -3.33114e-19 0)
(-0.0025 -1.3638e-19 0)
(-0.0025 -1.87001e-19 0)
(-0.0025 -2.89099e-19 0)
(-0.0025 -3.50263e-20 0)
(-0.0025 1.7699e-19 0)
(-0.0025 -2.13766e-19 0)
(-0.0025 -3.18172e-19 0)
(-0.0025 2.31603e-16 0)
(-0.0025 -5.00026e-17 0)
(-0.0025 1.21954e-17 0)
(-0.0025 -2.40905e-18 0)
(-0.0025 4.23044e-19 0)
(-0.0025 -2.51646e-19 0)
(-0.0025 -1.04199e-20 0)
(-0.0025 -9.51879e-20 0)
(-0.0025 4.16331e-20 0)
(-0.0025 5.12931e-19 0)
(-0.0025 4.25419e-19 0)
(-0.0025 1.54985e-19 0)
(-0.0025 -1.21193e-19 0)
(-0.0025 -5.39886e-20 0)
(-0.0025 5.91387e-20 0)
(-0.0025 -2.6852e-19 0)
(-0.0025 -2.46837e-19 0)
(-0.0025 1.1026e-20 0)
(-0.0025 -1.66447e-19 0)
(-0.0025 -2.90716e-19 0)
(-0.0025 -4.15051e-18 0)
(-0.0025 2.43619e-18 0)
(-0.0025 1.78079e-19 0)
(-0.0025 5.23658e-19 0)
(-0.0025 1.04311e-19 0)
(-0.0025 9.15409e-20 0)
(-0.0025 8.11076e-20 0)
(-0.0025 -1.10056e-20 0)
(-0.0025 1.46472e-19 0)
(-0.0025 2.52115e-19 0)
(-0.0025 1.60515e-19 0)
(-0.0025 1.94483e-19 0)
(-0.0025 -1.06238e-20 0)
(-0.0025 -3.06133e-19 0)
(-0.0025 -1.01694e-19 0)
(-0.0025 -6.03218e-20 0)
(-0.0025 -7.19213e-20 0)
(-0.0025 -7.05092e-20 0)
(-0.0025 -6.21439e-21 0)
(-0.0025 -5.37952e-20 0)
(-0.0025 -2.30309e-16 0)
(-0.0025 5.11373e-17 0)
(-0.0025 -1.15128e-17 0)
(-0.0025 2.86264e-18 0)
(-0.0025 -1.18123e-19 0)
(-0.0025 4.89359e-19 0)
(-0.0025 6.06378e-19 0)
(-0.0025 8.36969e-19 0)
(-0.0025 5.36053e-19 0)
(-0.0025 -4.04169e-20 0)
(-0.0025 -3.4833e-19 0)
(-0.0025 -4.40886e-19 0)
(-0.0025 -6.40585e-19 0)
(-0.0025 -5.75684e-19 0)
(-0.0025 -3.38814e-19 0)
(-0.0025 3.94841e-20 0)
(-0.0025 2.04417e-19 0)
(-0.0025 1.54816e-19 0)
(-0.0025 -1.83404e-20 0)
(-0.0025 1.39558e-20 0)
(-0.0025 3.10703e-16 0)
(-0.0025 -6.95384e-17 0)
(-0.0025 1.57671e-17 0)
(-0.0025 -4.04971e-18 0)
(-0.0025 5.3613e-19 0)
(-0.0025 -3.03534e-19 0)
(-0.0025 1.46602e-19 0)
(-0.0025 5.74354e-19 0)
(-0.0025 7.38536e-19 0)
(-0.0025 5.69955e-19 0)
(-0.0025 1.0087e-19 0)
(-0.0025 -3.70271e-19 0)
(-0.0025 -4.481e-19 0)
(-0.0025 -2.00666e-19 0)
(-0.0025 -7.95163e-20 0)
(-0.0025 1.96116e-19 0)
(-0.0025 3.1035e-19 0)
(-0.0025 1.52287e-19 0)
(-0.0025 -1.52109e-19 0)
(-0.0025 -7.97385e-20 0)
(-0.0025 -1.11408e-16 0)
(-0.0025 2.39919e-17 0)
(-0.0025 -5.87491e-18 0)
(-0.0025 1.19364e-18 0)
(-0.0025 -2.67488e-19 0)
(-0.0025 2.20765e-19 0)
(-0.0025 -1.23091e-19 0)
(-0.0025 -1.46876e-19 0)
(-0.0025 1.59552e-19 0)
(-0.0025 4.15477e-19 0)
(-0.0025 4.48306e-19 0)
(-0.0025 8.96554e-20 0)
(-0.0025 -2.92222e-20 0)
(-0.0025 -1.68907e-19 0)
(-0.0025 -3.99118e-19 0)
(-0.0025 -5.12833e-19 0)
(-0.0025 -4.93833e-19 0)
(-0.0025 -3.6955e-19 0)
(-0.0025 -1.10435e-19 0)
(-0.0025 1.3518e-20 0)
(-0.0025 -1.59918e-16 0)
(-0.0025 3.6532e-17 0)
(-0.0025 -8.2382e-18 0)
(-0.0025 2.41086e-18 0)
(-0.0025 1.1811e-19 0)
(-0.0025 5.9822e-19 0)
(-0.0025 4.56954e-19 0)
(-0.0025 3.45777e-19 0)
(-0.0025 1.66388e-19 0)
(-0.0025 6.10972e-21 0)
(-0.0025 9.85639e-20 0)
(-0.0025 4.3789e-20 0)
(-0.0025 -1.32803e-19 0)
(-0.0025 -2.62751e-19 0)
(-0.0025 -3.19343e-19 0)
(-0.0025 -4.16864e-19 0)
(-0.0025 -4.7039e-19 0)
(-0.0025 -4.74072e-19 0)
(-0.0025 -4.96997e-20 0)
(-0.0025 6.04449e-20 0)
(-0.0025 3.00796e-16 0)
(-0.0025 -6.65394e-17 0)
(-0.0025 1.56828e-17 0)
(-0.0025 -3.3578e-18 0)
(-0.0025 9.53558e-19 0)
(-0.0025 5.52944e-20 0)
(-0.0025 5.20453e-19 0)
(-0.0025 4.9928e-19 0)
(-0.0025 3.40728e-19 0)
(-0.0025 1.85002e-19 0)
(-0.0025 -1.01819e-20 0)
(-0.0025 7.91567e-20 0)
(-0.0025 -4.03169e-20 0)
(-0.0025 -1.80693e-19 0)
(-0.0025 -1.80665e-19 0)
(-0.0025 -1.36506e-19 0)
(-0.0025 -1.83035e-19 0)
(-0.0025 -1.83211e-19 0)
(-0.0025 -1.77595e-21 0)
(-0.0025 -5.44163e-21 0)
(-0.0025 -3.12861e-16 0)
(-0.0025 6.66372e-17 0)
(-0.0025 -1.54507e-17 0)
(-0.0025 3.7162e-18 0)
(-0.0025 -5.1057e-19 0)
(-0.0025 2.13463e-19 0)
(-0.0025 5.90779e-20 0)
(-0.0025 3.40172e-20 0)
(-0.0025 -7.52932e-20 0)
(-0.0025 1.01204e-19 0)
(-0.0025 3.45172e-19 0)
(-0.0025 3.52451e-19 0)
(-0.0025 1.34819e-19 0)
(-0.0025 3.70082e-20 0)
(-0.0025 -1.42686e-19 0)
(-0.0025 -1.60229e-19 0)
(-0.0025 -1.39006e-19 0)
(-0.0025 1.63786e-19 0)
(-0.0025 5.99113e-20 0)
(-0.0025 -8.7623e-21 0)
(-0.0025 2.12341e-16 0)
(-0.0025 -4.4632e-17 0)
(-0.0025 1.06774e-17 0)
(-0.0025 -2.33672e-18 0)
(-0.0025 7.46607e-21 0)
(-0.0025 -4.0769e-19 0)
(-0.0025 -9.31069e-20 0)
(-0.0025 1.07735e-20 0)
(-0.0025 2.49225e-19 0)
(-0.0025 1.11336e-19 0)
(-0.0025 4.66675e-20 0)
(-0.0025 -5.43361e-20 0)
(-0.0025 1.93165e-20 0)
(-0.0025 9.55866e-20 0)
(-0.0025 1.51639e-19 0)
(-0.0025 2.57011e-19 0)
(-0.0025 3.50224e-19 0)
(-0.0025 2.65129e-19 0)
(-0.0025 4.112e-20 0)
(-0.0025 -4.15962e-21 0)
(-0.0025 -2.32725e-19 0)
(-0.0025 7.82692e-19 0)
(-0.0025 -7.61837e-20 0)
(-0.0025 -1.15248e-19 0)
(-0.0025 -1.57531e-19 0)
(-0.0025 8.57088e-21 0)
(-0.0025 -6.52298e-20 0)
(-0.0025 -2.49781e-19 0)
(-0.0025 -3.69106e-19 0)
(-0.0025 -4.64624e-19 0)
(-0.0025 -5.47895e-19 0)
(-0.0025 -5.07744e-19 0)
(-0.0025 -2.75349e-19 0)
(-0.0025 -2.11114e-19 0)
(-0.0025 -1.08777e-19 0)
(-0.0025 1.01736e-19 0)
(-0.0025 2.3606e-19 0)
(-0.0025 1.12545e-19 0)
(-0.0025 9.2164e-20 0)
(-0.0025 -1.4696e-20 0)
(-0.0025 -2.47817e-16 0)
(-0.0025 5.33706e-17 0)
(-0.0025 -1.25446e-17 0)
(-0.0025 2.6716e-18 0)
(-0.0025 -6.36634e-19 0)
(-0.0025 -9.0222e-20 0)
(-0.0025 -5.67344e-19 0)
(-0.0025 -4.90658e-19 0)
(-0.0025 -6.26255e-19 0)
(-0.0025 -2.68762e-19 0)
(-0.0025 -3.75157e-20 0)
(-0.0025 -6.9882e-20 0)
(-0.0025 -2.48975e-19 0)
(-0.0025 -3.85746e-19 0)
(-0.0025 -1.11863e-19 0)
(-0.0025 7.44431e-20 0)
(-0.0025 1.71454e-19 0)
(-0.0025 2.0133e-19 0)
(-0.0025 4.79944e-20 0)
(-0.0025 -1.74286e-20 0)
(-0.0025 3.79923e-16 0)
(-0.0025 -8.26749e-17 0)
(-0.0025 1.89757e-17 0)
(-0.0025 -4.34873e-18 0)
(-0.0025 1.0667e-18 0)
(-0.0025 4.9819e-20 0)
(-0.0025 5.49685e-20 0)
(-0.0025 -1.2403e-19 0)
(-0.0025 -2.77479e-19 0)
(-0.0025 -2.21901e-19 0)
(-0.0025 -9.06953e-20 0)
(-0.0025 -4.78103e-20 0)
(-0.0025 -1.39808e-19 0)
(-0.0025 -1.84254e-19 0)
(-0.0025 1.63796e-19 0)
(-0.0025 1.15107e-19 0)
(-0.0025 -5.4581e-21 0)
(-0.0025 1.45691e-20 0)
(-0.0025 3.95408e-20 0)
(-0.0025 1.17728e-19 0)
(-0.0025 -2.30034e-16 0)
(-0.0025 4.87409e-17 0)
(-0.0025 -1.12171e-17 0)
(-0.0025 2.8785e-18 0)
(-0.0025 3.19512e-21 0)
(-0.0025 2.27827e-19 0)
(-0.0025 -1.40029e-19 0)
(-0.0025 -1.42772e-19 0)
(-0.0025 3.13985e-20 0)
(-0.0025 -2.11636e-20 0)
(-0.0025 -6.6669e-20 0)
(-0.0025 -5.41789e-20 0)
(-0.0025 3.83902e-20 0)
(-0.0025 4.17156e-20 0)
(-0.0025 -2.3539e-19 0)
(-0.0025 -4.2728e-19 0)
(-0.0025 -4.58685e-19 0)
(-0.0025 -3.21669e-19 0)
(-0.0025 -4.47477e-20 0)
(-0.0025 -9.42712e-21 0)
(-0.0025 -9.80773e-17 0)
(-0.0025 2.18691e-17 0)
(-0.0025 -4.90213e-18 0)
(-0.0025 1.28099e-18 0)
(-0.0025 -5.90617e-19 0)
(-0.0025 -7.05829e-19 0)
(-0.0025 -5.59361e-19 0)
(-0.0025 -1.40775e-19 0)
(-0.0025 4.64037e-19 0)
(-0.0025 7.06048e-19 0)
(-0.0025 5.74646e-19 0)
(-0.0025 3.76333e-19 0)
(-0.0025 1.08517e-19 0)
(-0.0025 -3.08134e-20 0)
(-0.0025 -5.8401e-19 0)
(-0.0025 -7.10896e-19 0)
(-0.0025 -6.41205e-19 0)
(-0.0025 -3.10289e-19 0)
(-0.0025 1.40263e-19 0)
(-0.0025 1.54262e-21 0)
(-0.0025 3.14833e-16 0)
(-0.0025 -6.76886e-17 0)
(-0.0025 1.6001e-17 0)
(-0.0025 -3.81002e-18 0)
(-0.0025 2.66253e-19 0)
(-0.0025 -4.19415e-19 0)
(-0.0025 -1.16238e-20 0)
(-0.0025 -1.20828e-19 0)
(-0.0025 -1.39297e-20 0)
(-0.0025 8.32739e-20 0)
(-0.0025 1.67966e-19 0)
(-0.0025 9.02842e-20 0)
(-0.0025 -1.03315e-19 0)
(-0.0025 -7.9907e-20 0)
(-0.0025 -6.68765e-20 0)
(-0.0025 -1.21948e-19 0)
(-0.0025 -7.81445e-20 0)
(-0.0025 5.39467e-20 0)
(-0.0025 2.40036e-19 0)
(-0.0025 2.38134e-20 0)
(-0.0025 -1.2117e-16 0)
(-0.0025 2.57133e-17 0)
(-0.0025 -6.22381e-18 0)
(-0.0025 1.08311e-18 0)
(-0.0025 -2.94456e-19 0)
(-0.0025 1.25206e-19 0)
(-0.0025 -6.15422e-20 0)
(-0.0025 -2.27833e-19 0)
(-0.0025 -4.25411e-19 0)
(-0.0025 -5.05026e-19 0)
(-0.0025 -3.49936e-19 0)
(-0.0025 -3.18992e-19 0)
(-0.0025 -1.53728e-19 0)
(-0.0025 -3.07759e-20 0)
(-0.0025 1.62508e-19 0)
(-0.0025 1.24383e-19 0)
(-0.0025 2.0646e-19 0)
(-0.0025 3.9104e-20 0)
(-0.0025 -2.94113e-19 0)
(-0.0025 -1.37947e-19 0)
(-0.0025 -2.15188e-16 0)
(-0.0025 4.61763e-17 0)
(-0.0025 -1.153e-17 0)
(-0.0025 2.27901e-18 0)
(-0.0025 -4.16144e-19 0)
(-0.0025 1.59285e-19 0)
(-0.0025 -4.58417e-20 0)
(-0.0025 -7.48381e-20 0)
(-0.0025 -2.10485e-19 0)
(-0.0025 -1.85811e-19 0)
(-0.0025 -4.43268e-20 0)
(-0.0025 -3.41197e-20 0)
(-0.0025 -2.81674e-20 0)
(-0.0025 -1.25098e-19 0)
(-0.0025 -1.75719e-19 0)
(-0.0025 -1.73842e-19 0)
(-0.0025 -8.15499e-20 0)
(-0.0025 -9.25665e-20 0)
(-0.0025 -2.82929e-19 0)
(-0.0025 -7.15388e-20 0)
)
;

boundaryField
{
    movingWall
    {
        type            calculated;
        value           uniform (-0.0025 -0 -0);
    }
    fixedWalls
    {
        type            calculated;
        value           uniform (-0.0025 -0 -0);
    }
    frontAndBack
    {
        type            empty;
    }
}


// ************************************************************************* //
