/*--------------------------------*- C++ -*----------------------------------*\
| =========                 |                                                 |
| \\      /  F ield         | OpenFOAM: The Open Source CFD Toolbox           |
|  \\    /   O peration     | Version:  2506                                  |
|   \\  /    A nd           | Website:  www.openfoam.com                      |
|    \\/     M anipulation  |                                                 |
\*---------------------------------------------------------------------------*/
FoamFile
{
    version     2.0;
    format      ascii;
    arch        "LSB;label=32;scalar=64";
    class       volVectorField;
    location    "9";
    object      norm_U_composite;
}
// * * * * * * * * * * * * * * * * * * * * * * * * * * * * * * * * * * * * * //

dimensions      [0 0 0 0 0 0 0];

internalField   nonuniform List<vector> 
400
(
(-0.5 7.5978e-14 0)
(-0.5 -1.61969e-14 0)
(-0.5 3.85656e-15 0)
(-0.5 -8.10896e-16 0)
(-0.5 1.88785e-16 0)
(-0.5 -1.07411e-17 0)
(-0.5 2.30128e-17 0)
(-0.5 3.00808e-17 0)
(-0.5 3.28043e-17 0)
(-0.5 5.33757e-17 0)
(-0.5 1.27189e-16 0)
(-0.5 1.26991e-16 0)
(-0.5 4.49623e-17 0)
(-0.5 -4.3674e-17 0)
(-0.5 -7.75725e-17 0)
(-0.5 -9.67301e-17 0)
(-0.5 -5.513e-17 0)
(-0.5 -9.86914e-18 0)
(-0.5 4.28061e-17 0)
(-0.5 2.75544e-17 0)
(-0.5 5.58652e-15 0)
(-0.5 -8.92584e-16 0)
(-0.5 2.99819e-16 0)
(-0.5 -2.02113e-17 0)
(-0.5 3.38723e-17 0)
(-0.5 5.39232e-17 0)
(-0.5 6.47681e-17 0)
(-0.5 6.91015e-17 0)
(-0.5 7.3097e-17 0)
(-0.5 3.24552e-17 0)
(-0.5 1.70204e-17 0)
(-0.5 5.26889e-17 0)
(-0.5 2.58697e-17 0)
(-0.5 -2.27563e-17 0)
(-0.5 -5.81021e-17 0)
(-0.5 -6.35778e-17 0)
(-0.5 -1.50265e-17 0)
(-0.5 6.66332e-18 0)
(-0.5 2.54322e-17 0)
(-0.5 1.05447e-17 0)
(-0.5 -6.57348e-14 0)
(-0.5 1.42206e-14 0)
(-0.5 -3.27813e-15 0)
(-0.5 7.04113e-16 0)
(-0.5 -1.73061e-16 0)
(-0.5 4.55147e-17 0)
(-0.5 4.42187e-17 0)
(-0.5 5.17692e-17 0)
(-0.5 6.58862e-17 0)
(-0.5 4.68241e-17 0)
(-0.5 -5.30323e-17 0)
(-0.5 -6.70044e-17 0)
(-0.5 -6.66229e-17 0)
(-0.5 -2.72761e-17 0)
(-0.5 -3.74002e-17 0)
(-0.5 -5.78199e-17 0)
(-0.5 -7.00525e-18 0)
(-0.5 3.5398e-17 0)
(-0.5 -4.27532e-17 0)
(-0.5 -6.36344e-17 0)
(-0.5 4.63205e-14 0)
(-0.5 -1.00005e-14 0)
(-0.5 2.43909e-15 0)
(-0.5 -4.8181e-16 0)
(-0.5 8.46088e-17 0)
(-0.5 -5.03291e-17 0)
(-0.5 -2.08398e-18 0)
(-0.5 -1.90376e-17 0)
(-0.5 8.32662e-18 0)
(-0.5 1.02586e-16 0)
(-0.5 8.50838e-17 0)
(-0.5 3.09969e-17 0)
(-0.5 -2.42386e-17 0)
(-0.5 -1.07977e-17 0)
(-0.5 1.18277e-17 0)
(-0.5 -5.37041e-17 0)
(-0.5 -4.93674e-17 0)
(-0.5 2.2052e-18 0)
(-0.5 -3.32894e-17 0)
(-0.5 -5.81432e-17 0)
(-0.5 -8.30103e-16 0)
(-0.5 4.87238e-16 0)
(-0.5 3.56159e-17 0)
(-0.5 1.04732e-16 0)
(-0.5 2.08622e-17 0)
(-0.5 1.83082e-17 0)
(-0.5 1.62215e-17 0)
(-0.5 -2.20113e-18 0)
(-0.5 2.92943e-17 0)
(-0.5 5.0423e-17 0)
(-0.5 3.2103e-17 0)
(-0.5 3.88966e-17 0)
(-0.5 -2.12477e-18 0)
(-0.5 -6.12266e-17 0)
(-0.5 -2.03389e-17 0)
(-0.5 -1.20644e-17 0)
(-0.5 -1.43843e-17 0)
(-0.5 -1.41018e-17 0)
(-0.5 -1.24288e-18 0)
(-0.5 -1.0759e-17 0)
(-0.5 -4.60617e-14 0)
(-0.5 1.02275e-14 0)
(-0.5 -2.30256e-15 0)
(-0.5 5.72528e-16 0)
(-0.5 -2.36247e-17 0)
(-0.5 9.78719e-17 0)
(-0.5 1.21276e-16 0)
(-0.5 1.67394e-16 0)
(-0.5 1.07211e-16 0)
(-0.5 -8.08339e-18 0)
(-0.5 -6.9666e-17 0)
(-0.5 -8.81773e-17 0)
(-0.5 -1.28117e-16 0)
(-0.5 -1.15137e-16 0)
(-0.5 -6.77627e-17 0)
(-0.5 7.89681e-18 0)
(-0.5 4.08834e-17 0)
(-0.5 3.09632e-17 0)
(-0.5 -3.66809e-18 0)
(-0.5 2.79116e-18 0)
(-0.5 6.21406e-14 0)
(-0.5 -1.39077e-14 0)
(-0.5 3.15342e-15 0)
(-0.5 -8.09942e-16 0)
(-0.5 1.07226e-16 0)
(-0.5 -6.07068e-17 0)
(-0.5 2.93205e-17 0)
(-0.5 1.14871e-16 0)
(-0.5 1.47707e-16 0)
(-0.5 1.13991e-16 0)
(-0.5 2.0174e-17 0)
(-0.5 -7.40542e-17 0)
(-0.5 -8.96199e-17 0)
(-0.5 -4.01333e-17 0)
(-0.5 -1.59033e-17 0)
(-0.5 3.92233e-17 0)
(-0.5 6.207e-17 0)
(-0.5 3.04575e-17 0)
(-0.5 -3.04219e-17 0)
(-0.5 -1.59477e-17 0)
(-0.5 -2.22816e-14 0)
(-0.5 4.79837e-15 0)
(-0.5 -1.17498e-15 0)
(-0.5 2.38729e-16 0)
(-0.5 -5.34977e-17 0)
(-0.5 4.4153e-17 0)
(-0.5 -2.46182e-17 0)
(-0.5 -2.93752e-17 0)
(-0.5 3.19103e-17 0)
(-0.5 8.30955e-17 0)
(-0.5 8.96612e-17 0)
(-0.5 1.79311e-17 0)
(-0.5 -5.84443e-18 0)
(-0.5 -3.37814e-17 0)
(-0.5 -7.98237e-17 0)
(-0.5 -1.02567e-16 0)
(-0.5 -9.87665e-17 0)
(-0.5 -7.39099e-17 0)
(-0.5 -2.20869e-17 0)
(-0.5 2.7036e-18 0)
(-0.5 -3.19837e-14 0)
(-0.5 7.3064e-15 0)
(-0.5 -1.64764e-15 0)
(-0.5 4.82172e-16 0)
(-0.5 2.3622e-17 0)
(-0.5 1.19644e-16 0)
(-0.5 9.13907e-17 0)
(-0.5 6.91553e-17 0)
(-0.5 3.32776e-17 0)
(-0.5 1.22194e-18 0)
(-0.5 1.97128e-17 0)
(-0.5 8.7578e-18 0)
(-0.5 -2.65606e-17 0)
(-0.5 -5.25502e-17 0)
(-0.5 -6.38687e-17 0)
(-0.5 -8.33729e-17 0)
(-0.5 -9.4078e-17 0)
(-0.5 -9.48143e-17 0)
(-0.5 -9.93994e-18 0)
(-0.5 1.2089e-17 0)
(-0.5 6.01592e-14 0)
(-0.5 -1.33079e-14 0)
(-0.5 3.13657e-15 0)
(-0.5 -6.7156e-16 0)
(-0.5 1.90712e-16 0)
(-0.5 1.10589e-17 0)
(-0.5 1.04091e-16 0)
(-0.5 9.9856e-17 0)
(-0.5 6.81455e-17 0)
(-0.5 3.70004e-17 0)
(-0.5 -2.03639e-18 0)
(-0.5 1.58313e-17 0)
(-0.5 -8.06338e-18 0)
(-0.5 -3.61385e-17 0)
(-0.5 -3.61329e-17 0)
(-0.5 -2.73012e-17 0)
(-0.5 -3.66071e-17 0)
(-0.5 -3.66421e-17 0)
(-0.5 -3.55191e-19 0)
(-0.5 -1.08833e-18 0)
(-0.5 -6.25722e-14 0)
(-0.5 1.33274e-14 0)
(-0.5 -3.09014e-15 0)
(-0.5 7.4324e-16 0)
(-0.5 -1.02114e-16 0)
(-0.5 4.26926e-17 0)
(-0.5 1.18156e-17 0)
(-0.5 6.80345e-18 0)
(-0.5 -1.50586e-17 0)
(-0.5 2.02409e-17 0)
(-0.5 6.90343e-17 0)
(-0.5 7.04901e-17 0)
(-0.5 2.69637e-17 0)
(-0.5 7.40165e-18 0)
(-0.5 -2.85372e-17 0)
(-0.5 -3.20457e-17 0)
(-0.5 -2.78012e-17 0)
(-0.5 3.27571e-17 0)
(-0.5 1.19823e-17 0)
(-0.5 -1.75246e-18 0)
(-0.5 4.24682e-14 0)
(-0.5 -8.9264e-15 0)
(-0.5 2.13547e-15 0)
(-0.5 -4.67344e-16 0)
(-0.5 1.49321e-18 0)
(-0.5 -8.15381e-17 0)
(-0.5 -1.86214e-17 0)
(-0.5 2.1547e-18 0)
(-0.5 4.9845e-17 0)
(-0.5 2.22672e-17 0)
(-0.5 9.33349e-18 0)
(-0.5 -1.08672e-17 0)
(-0.5 3.86329e-18 0)
(-0.5 1.91173e-17 0)
(-0.5 3.03278e-17 0)
(-0.5 5.14022e-17 0)
(-0.5 7.00448e-17 0)
(-0.5 5.30258e-17 0)
(-0.5 8.22399e-18 0)
(-0.5 -8.31923e-19 0)
(-0.5 -4.6545e-17 0)
(-0.5 1.56538e-16 0)
(-0.5 -1.52367e-17 0)
(-0.5 -2.30496e-17 0)
(-0.5 -3.15063e-17 0)
(-0.5 1.71418e-18 0)
(-0.5 -1.3046e-17 0)
(-0.5 -4.99562e-17 0)
(-0.5 -7.38213e-17 0)
(-0.5 -9.29248e-17 0)
(-0.5 -1.09579e-16 0)
(-0.5 -1.01549e-16 0)
(-0.5 -5.50698e-17 0)
(-0.5 -4.22227e-17 0)
(-0.5 -2.17553e-17 0)
(-0.5 2.03472e-17 0)
(-0.5 4.72119e-17 0)
(-0.5 2.25091e-17 0)
(-0.5 1.84328e-17 0)
(-0.5 -2.9392e-18 0)
(-0.5 -4.95633e-14 0)
(-0.5 1.06741e-14 0)
(-0.5 -2.50892e-15 0)
(-0.5 5.34321e-16 0)
(-0.5 -1.27327e-16 0)
(-0.5 -1.80444e-17 0)
(-0.5 -1.13469e-16 0)
(-0.5 -9.81316e-17 0)
(-0.5 -1.25251e-16 0)
(-0.5 -5.37525e-17 0)
(-0.5 -7.50314e-18 0)
(-0.5 -1.39764e-17 0)
(-0.5 -4.97949e-17 0)
(-0.5 -7.71493e-17 0)
(-0.5 -2.23726e-17 0)
(-0.5 1.48886e-17 0)
(-0.5 3.42908e-17 0)
(-0.5 4.0266e-17 0)
(-0.5 9.59888e-18 0)
(-0.5 -3.48572e-18 0)
(-0.5 7.59846e-14 0)
(-0.5 -1.6535e-14 0)
(-0.5 3.79515e-15 0)
(-0.5 -8.69746e-16 0)
(-0.5 2.1334e-16 0)
(-0.5 9.9638e-18 0)
(-0.5 1.09937e-17 0)
(-0.5 -2.4806e-17 0)
(-0.5 -5.54958e-17 0)
(-0.5 -4.43802e-17 0)
(-0.5 -1.81391e-17 0)
(-0.5 -9.56205e-18 0)
(-0.5 -2.79615e-17 0)
(-0.5 -3.68508e-17 0)
(-0.5 3.27593e-17 0)
(-0.5 2.30214e-17 0)
(-0.5 -1.09162e-18 0)
(-0.5 2.91381e-18 0)
(-0.5 7.90816e-18 0)
(-0.5 2.35455e-17 0)
(-0.5 -4.60069e-14 0)
(-0.5 9.74819e-15 0)
(-0.5 -2.24342e-15 0)
(-0.5 5.757e-16 0)
(-0.5 6.39024e-19 0)
(-0.5 4.55654e-17 0)
(-0.5 -2.80058e-17 0)
(-0.5 -2.85545e-17 0)
(-0.5 6.27971e-18 0)
(-0.5 -4.23272e-18 0)
(-0.5 -1.33338e-17 0)
(-0.5 -1.08358e-17 0)
(-0.5 7.67803e-18 0)
(-0.5 8.34312e-18 0)
(-0.5 -4.7078e-17 0)
(-0.5 -8.5456e-17 0)
(-0.5 -9.17371e-17 0)
(-0.5 -6.43339e-17 0)
(-0.5 -8.94954e-18 0)
(-0.5 -1.88542e-18 0)
(-0.5 -1.96155e-14 0)
(-0.5 4.37382e-15 0)
(-0.5 -9.80426e-16 0)
(-0.5 2.56198e-16 0)
(-0.5 -1.18123e-16 0)
(-0.5 -1.41166e-16 0)
(-0.5 -1.11872e-16 0)
(-0.5 -2.81549e-17 0)
(-0.5 9.28074e-17 0)
(-0.5 1.4121e-16 0)
(-0.5 1.14929e-16 0)
(-0.5 7.52666e-17 0)
(-0.5 2.17034e-17 0)
(-0.5 -6.16268e-18 0)
(-0.5 -1.16802e-16 0)
(-0.5 -1.42179e-16 0)
(-0.5 -1.28241e-16 0)
(-0.5 -6.20578e-17 0)
(-0.5 2.80526e-17 0)
(-0.5 3.08524e-19 0)
(-0.5 6.29667e-14 0)
(-0.5 -1.35377e-14 0)
(-0.5 3.20019e-15 0)
(-0.5 -7.62004e-16 0)
(-0.5 5.32505e-17 0)
(-0.5 -8.38829e-17 0)
(-0.5 -2.32475e-18 0)
(-0.5 -2.41655e-17 0)
(-0.5 -2.78595e-18 0)
(-0.5 1.66548e-17 0)
(-0.5 3.35931e-17 0)
(-0.5 1.80568e-17 0)
(-0.5 -2.06629e-17 0)
(-0.5 -1.59814e-17 0)
(-0.5 -1.33753e-17 0)
(-0.5 -2.43896e-17 0)
(-0.5 -1.56289e-17 0)
(-0.5 1.07893e-17 0)
(-0.5 4.80072e-17 0)
(-0.5 4.76267e-18 0)
(-0.5 -2.42339e-14 0)
(-0.5 5.14266e-15 0)
(-0.5 -1.24476e-15 0)
(-0.5 2.16621e-16 0)
(-0.5 -5.88913e-17 0)
(-0.5 2.50412e-17 0)
(-0.5 -1.23084e-17 0)
(-0.5 -4.55667e-17 0)
(-0.5 -8.50822e-17 0)
(-0.5 -1.01005e-16 0)
(-0.5 -6.99872e-17 0)
(-0.5 -6.37984e-17 0)
(-0.5 -3.07456e-17 0)
(-0.5 -6.15517e-18 0)
(-0.5 3.25016e-17 0)
(-0.5 2.48765e-17 0)
(-0.5 4.12921e-17 0)
(-0.5 7.82081e-18 0)
(-0.5 -5.88226e-17 0)
(-0.5 -2.75895e-17 0)
(-0.5 -4.30376e-14 0)
(-0.5 9.23526e-15 0)
(-0.5 -2.306e-15 0)
(-0.5 4.55802e-16 0)
(-0.5 -8.32287e-17 0)
(-0.5 3.1857e-17 0)
(-0.5 -9.16834e-18 0)
(-0.5 -1.49676e-17 0)
(-0.5 -4.20969e-17 0)
(-0.5 -3.71623e-17 0)
(-0.5 -8.86535e-18 0)
(-0.5 -6.82393e-18 0)
(-0.5 -5.63347e-18 0)
(-0.5 -2.50195e-17 0)
(-0.5 -3.51437e-17 0)
(-0.5 -3.47684e-17 0)
(-0.5 -1.631e-17 0)
(-0.5 -1.85133e-17 0)
(-0.5 -5.65858e-17 0)
(-0.5 -1.43078e-17 0)
)
;

boundaryField
{
    movingWall
    {
        type            calculated;
        value           uniform (-0.5 -0 -0);
    }
    fixedWalls
    {
        type            calculated;
        value           uniform (-0.5 -0 -0);
    }
    frontAndBack
    {
        type            empty;
    }
}


// ************************************************************************* //
