/*--------------------------------*- C++ -*----------------------------------*\
| =========                 |                                                 |
| \\      /  F ield         | OpenFOAM: The Open Source CFD Toolbox           |
|  \\    /   O peration     | Version:  2506                                  |
|   \\  /    A nd           | Website:  www.openfoam.com                      |
|    \\/     M anipulation  |                                                 |
\*---------------------------------------------------------------------------*/
FoamFile
{
    version     2.0;
    format      ascii;
    arch        "LSB;label=32;scalar=64";
    class       volScalarField;
    location    "9";
    object      P_A;
}
// * * * * * * * * * * * * * * * * * * * * * * * * * * * * * * * * * * * * * //

dimensions      [1 -1 -3 0 0 0 0];

internalField   nonuniform List<scalar> 
400
(
1.76121e-33
1.76121e-33
1.76121e-33
1.7612e-33
1.7612e-33
1.7612e-33
1.7612e-33
1.7612e-33
1.7612e-33
1.7612e-33
1.7612e-33
1.7612e-33
1.7612e-33
1.7612e-33
1.76119e-33
1.7612e-33
1.76119e-33
1.76119e-33
1.76119e-33
1.76119e-33
1.87008e-33
1.85047e-33
1.85203e-33
1.85268e-33
1.85399e-33
1.85466e-33
1.85599e-33
1.85667e-33
1.85801e-33
1.85872e-33
1.86007e-33
1.86081e-33
1.86217e-33
1.86293e-33
1.86429e-33
1.86508e-33
1.86646e-33
1.86728e-33
1.86797e-33
1.86907e-33
2.05543e-33
2.03324e-33
2.03502e-33
2.03578e-33
2.03727e-33
2.03803e-33
2.03955e-33
2.04032e-33
2.04185e-33
2.04265e-33
2.04417e-33
2.04501e-33
2.04653e-33
2.0474e-33
2.04893e-33
2.04981e-33
2.05135e-33
2.05225e-33
2.05303e-33
2.05426e-33
2.26974e-33
2.24495e-33
2.24693e-33
2.24779e-33
2.24944e-33
2.2503e-33
2.25198e-33
2.25286e-33
2.25455e-33
2.25546e-33
2.25715e-33
2.2581e-33
2.25979e-33
2.26076e-33
2.26247e-33
2.26345e-33
2.26518e-33
2.26618e-33
2.26705e-33
2.26843e-33
2.46811e-33
2.44084e-33
2.44304e-33
2.44397e-33
2.44579e-33
2.44673e-33
2.44859e-33
2.44954e-33
2.45141e-33
2.4524e-33
2.45426e-33
2.45529e-33
2.45716e-33
2.45822e-33
2.4601e-33
2.46119e-33
2.46307e-33
2.46418e-33
2.46513e-33
2.46665e-33
2.62514e-33
2.59591e-33
2.59825e-33
2.59924e-33
2.60121e-33
2.6022e-33
2.6042e-33
2.60522e-33
2.60722e-33
2.60827e-33
2.61029e-33
2.61137e-33
2.6134e-33
2.61451e-33
2.61654e-33
2.61769e-33
2.61973e-33
2.62091e-33
2.62194e-33
2.62356e-33
2.73662e-33
2.70598e-33
2.70842e-33
2.70948e-33
2.71152e-33
2.71258e-33
2.71466e-33
2.71574e-33
2.71783e-33
2.71894e-33
2.72104e-33
2.72219e-33
2.72429e-33
2.72549e-33
2.72759e-33
2.72881e-33
2.73094e-33
2.73219e-33
2.73325e-33
2.73496e-33
2.811e-33
2.77941e-33
2.78194e-33
2.78301e-33
2.78514e-33
2.78621e-33
2.78836e-33
2.78946e-33
2.79163e-33
2.79276e-33
2.79494e-33
2.79611e-33
2.7983e-33
2.7995e-33
2.8017e-33
2.80294e-33
2.80515e-33
2.80642e-33
2.80753e-33
2.80928e-33
2.86024e-33
2.82802e-33
2.8306e-33
2.83169e-33
2.83386e-33
2.83495e-33
2.83715e-33
2.83827e-33
2.84048e-33
2.84164e-33
2.84386e-33
2.84505e-33
2.84728e-33
2.84851e-33
2.85075e-33
2.85201e-33
2.85426e-33
2.85556e-33
2.85669e-33
2.85848e-33
2.89467e-33
2.86201e-33
2.86462e-33
2.86574e-33
2.86792e-33
2.86904e-33
2.87126e-33
2.8724e-33
2.87463e-33
2.87581e-33
2.87805e-33
2.87928e-33
2.88151e-33
2.88278e-33
2.88503e-33
2.88633e-33
2.8886e-33
2.88993e-33
2.89107e-33
2.89288e-33
2.92156e-33
2.88855e-33
2.89118e-33
2.89232e-33
2.89452e-33
2.89566e-33
2.89789e-33
2.89906e-33
2.9013e-33
2.90251e-33
2.90475e-33
2.90601e-33
2.90826e-33
2.90955e-33
2.91181e-33
2.91314e-33
2.91542e-33
2.91677e-33
2.91792e-33
2.91975e-33
2.94549e-33
2.91218e-33
2.91485e-33
2.91598e-33
2.91822e-33
2.91935e-33
2.92162e-33
2.92278e-33
2.92506e-33
2.92625e-33
2.92855e-33
2.92978e-33
2.93209e-33
2.93336e-33
2.93567e-33
2.93698e-33
2.9393e-33
2.94065e-33
2.94182e-33
2.94367e-33
2.9692e-33
2.93559e-33
2.93827e-33
2.93942e-33
2.94166e-33
2.94282e-33
2.9451e-33
2.94628e-33
2.94857e-33
2.94979e-33
2.95209e-33
2.95336e-33
2.95566e-33
2.95696e-33
2.95928e-33
2.96061e-33
2.96295e-33
2.96431e-33
2.96549e-33
2.96736e-33
2.99421e-33
2.96027e-33
2.96299e-33
2.96414e-33
2.96641e-33
2.96758e-33
2.96987e-33
2.97107e-33
2.97338e-33
2.97462e-33
2.97693e-33
2.97821e-33
2.98053e-33
2.98185e-33
2.98419e-33
2.98554e-33
2.98789e-33
2.98927e-33
2.99046e-33
2.99234e-33
3.02115e-33
2.98687e-33
2.98962e-33
2.99078e-33
2.99308e-33
2.99425e-33
2.99658e-33
2.99777e-33
3.00011e-33
3.00136e-33
3.0037e-33
3.00499e-33
3.00734e-33
3.00867e-33
3.01102e-33
3.01239e-33
3.01477e-33
3.01616e-33
3.01736e-33
3.01926e-33
3.04976e-33
3.01511e-33
3.01788e-33
3.01906e-33
3.02139e-33
3.02256e-33
3.02492e-33
3.02612e-33
3.0285e-33
3.02974e-33
3.03213e-33
3.03341e-33
3.0358e-33
3.03713e-33
3.03953e-33
3.04089e-33
3.04331e-33
3.04471e-33
3.04592e-33
3.04785e-33
3.07863e-33
3.04362e-33
3.04644e-33
3.04761e-33
3.04996e-33
3.05116e-33
3.05353e-33
3.05475e-33
3.05715e-33
3.0584e-33
3.06082e-33
3.06211e-33
3.06453e-33
3.06587e-33
3.0683e-33
3.06968e-33
3.07212e-33
3.07354e-33
3.07476e-33
3.0767e-33
3.10519e-33
3.06985e-33
3.07268e-33
3.07386e-33
3.07625e-33
3.07744e-33
3.07985e-33
3.08107e-33
3.08351e-33
3.08477e-33
3.08721e-33
3.08851e-33
3.09096e-33
3.0923e-33
3.09475e-33
3.09615e-33
3.09861e-33
3.10004e-33
3.10128e-33
3.10324e-33
3.12588e-33
3.09094e-33
3.0937e-33
3.09487e-33
3.09716e-33
3.09836e-33
3.10068e-33
3.10194e-33
3.10427e-33
3.10558e-33
3.10793e-33
3.10928e-33
3.11165e-33
3.11304e-33
3.11543e-33
3.11687e-33
3.11929e-33
3.12077e-33
3.12199e-33
3.12397e-33
3.13545e-33
3.13544e-33
3.13544e-33
3.13544e-33
3.13544e-33
3.13543e-33
3.13543e-33
3.13543e-33
3.13543e-33
3.13543e-33
3.13542e-33
3.13542e-33
3.13542e-33
3.13542e-33
3.13542e-33
3.13542e-33
3.13542e-33
3.13542e-33
3.13542e-33
3.13542e-33
)
;

boundaryField
{
    movingWall
    {
        type            calculated;
        value           nonuniform List<scalar> 
20
(
3.13545e-33
3.13544e-33
3.13544e-33
3.13544e-33
3.13544e-33
3.13543e-33
3.13543e-33
3.13543e-33
3.13543e-33
3.13543e-33
3.13542e-33
3.13542e-33
3.13542e-33
3.13542e-33
3.13542e-33
3.13542e-33
3.13542e-33
3.13542e-33
3.13542e-33
3.13542e-33
)
;
    }
    fixedWalls
    {
        type            calculated;
        value           nonuniform List<scalar> 
60
(
1.76121e-33
1.87008e-33
2.05543e-33
2.26974e-33
2.46811e-33
2.62514e-33
2.73662e-33
2.811e-33
2.86024e-33
2.89467e-33
2.92156e-33
2.94549e-33
2.9692e-33
2.99421e-33
3.02115e-33
3.04976e-33
3.07863e-33
3.10519e-33
3.12588e-33
3.13545e-33
1.76119e-33
1.86907e-33
2.05426e-33
2.26843e-33
2.46665e-33
2.62356e-33
2.73496e-33
2.80928e-33
2.85848e-33
2.89288e-33
2.91975e-33
2.94367e-33
2.96736e-33
2.99234e-33
3.01926e-33
3.04785e-33
3.0767e-33
3.10324e-33
3.12397e-33
3.13542e-33
1.76121e-33
1.76121e-33
1.76121e-33
1.7612e-33
1.7612e-33
1.7612e-33
1.7612e-33
1.7612e-33
1.7612e-33
1.7612e-33
1.7612e-33
1.7612e-33
1.7612e-33
1.7612e-33
1.76119e-33
1.7612e-33
1.76119e-33
1.76119e-33
1.76119e-33
1.76119e-33
)
;
    }
    frontAndBack
    {
        type            empty;
    }
}


// ************************************************************************* //
