/*--------------------------------*- C++ -*----------------------------------*\
| =========                 |                                                 |
| \\      /  F ield         | OpenFOAM: The Open Source CFD Toolbox           |
|  \\    /   O peration     | Version:  2506                                  |
|   \\  /    A nd           | Website:  www.openfoam.com                      |
|    \\/     M anipulation  |                                                 |
\*---------------------------------------------------------------------------*/
FoamFile
{
    version     2.0;
    format      ascii;
    arch        "LSB;label=32;scalar=64";
    class       surfaceScalarField;
    location    "9";
    object      PecletNoField;
}
// * * * * * * * * * * * * * * * * * * * * * * * * * * * * * * * * * * * * * //

dimensions      [0 0 0 0 0 0 0];

oriented        oriented;

internalField   nonuniform List<scalar> 
760
(
455.349
4.28696e-12
455.349
6.14485e-12
455.349
1.87171e-12
455.349
2.56413e-13
455.349
9.36248e-14
455.349
2.51897e-14
455.349
3.62225e-14
455.349
3.50182e-14
455.349
3.60261e-14
455.349
4.91104e-15
455.349
9.10723e-14
455.349
1.25837e-13
455.349
6.30482e-14
455.349
3.19514e-14
455.349
5.69374e-14
455.349
1.00315e-13
455.349
6.20403e-14
455.349
3.02454e-14
455.349
5.29981e-14
4.95757e-14
454.828
3.58708e-12
454.631
4.5738e-12
454.659
1.34519e-12
454.683
2.22222e-13
454.707
4.67867e-14
454.731
3.41463e-14
454.755
4.86506e-14
454.779
6.24478e-14
454.804
8.32217e-14
454.828
7.36692e-14
454.852
6.15588e-14
454.877
5.54409e-14
454.901
5.0582e-14
454.925
1.48829e-14
454.95
4.60687e-14
454.974
2.7864e-14
454.998
2.43939e-14
455.015
2.32642e-14
455.035
2.77408e-14
2.30838e-14
454.336
1.67166e-12
454.132
2.00481e-12
454.161
3.63361e-13
454.186
6.55847e-14
454.212
6.62148e-14
454.237
6.35467e-15
454.262
2.21675e-14
454.288
2.29817e-14
454.313
3.15986e-14
454.338
5.66747e-14
454.363
5.09614e-14
454.389
1.21839e-14
454.414
3.81823e-14
454.439
2.33583e-14
454.464
1.54519e-14
454.489
7.43851e-14
454.514
6.07755e-14
454.531
3.3126e-14
454.552
2.90762e-14
9.34654e-14
453.818
2.20872e-12
453.609
3.39257e-12
453.639
1.11016e-12
453.665
5.98116e-14
453.691
5.61833e-14
453.717
2.12362e-14
453.743
1.66454e-14
453.769
1.55263e-14
453.795
2.04686e-16
453.82
7.47564e-14
453.846
3.70991e-14
453.872
1.94456e-14
453.898
1.18122e-14
453.923
4.00615e-14
453.949
8.47854e-15
453.975
6.1637e-15
454
1.36574e-14
454.018
3.19527e-15
454.039
2.39914e-15
2.49661e-14
453.376
3.26625e-12
453.163
4.02108e-12
453.193
1.01955e-12
453.22
2.32188e-13
453.247
1.01468e-14
453.273
6.50306e-14
453.299
4.49403e-14
453.326
4.78333e-14
453.352
6.65283e-14
453.379
3.50511e-14
453.405
6.90506e-15
453.431
2.24741e-14
453.457
3.19508e-14
453.484
7.48127e-14
453.51
4.7972e-14
453.536
1.58006e-14
453.562
1.52785e-14
453.58
1.18163e-14
453.601
1.64943e-14
4.4218e-15
453.048
1.15944e-12
452.832
1.6989e-12
452.863
4.09682e-13
452.889
9.0777e-14
452.916
5.55678e-14
452.943
1.80448e-14
452.97
7.61099e-14
452.997
1.9308e-13
453.024
1.5623e-13
453.05
2.05718e-14
453.077
4.82279e-14
453.104
7.55104e-14
453.13
1.4231e-13
453.157
6.96635e-14
453.184
4.44222e-14
453.21
2.3845e-14
453.237
4.95271e-14
453.255
5.43953e-14
453.276
1.5941e-14
8.26327e-15
452.825
2.31901e-12
452.607
3.07663e-12
452.638
8.43428e-13
452.665
2.39515e-13
452.693
2.50718e-14
452.72
4.37775e-14
452.747
1.71065e-15
452.774
1.7866e-14
452.801
2.41398e-14
452.828
1.01196e-13
452.855
7.77385e-14
452.882
8.6314e-15
452.909
7.98657e-15
452.935
3.1637e-14
452.962
4.12348e-14
452.989
3.37825e-14
453.016
1.17525e-14
453.034
1.08159e-14
453.056
1.38818e-14
3.34701e-14
452.681
3.06361e-12
452.461
3.93395e-12
452.493
1.24348e-12
452.52
2.69569e-13
452.548
3.31266e-14
452.575
5.22724e-14
452.602
4.01467e-14
452.629
4.25074e-14
452.657
4.99713e-14
452.684
2.6623e-14
452.711
4.7473e-14
452.738
5.93025e-15
452.765
2.98215e-14
452.792
3.60461e-14
452.819
5.57922e-14
452.846
6.80712e-14
452.873
1.0615e-13
452.891
1.18937e-13
452.913
3.73038e-14
3.45084e-14
452.587
6.28431e-13
452.367
1.55485e-12
452.399
6.55715e-13
452.426
2.59416e-14
452.453
6.88649e-14
452.481
4.84308e-14
452.508
6.16474e-14
452.536
5.23377e-14
452.563
5.14717e-14
452.59
3.22924e-14
452.617
8.34438e-15
452.645
2.57586e-14
452.672
4.069e-15
452.699
4.30254e-14
452.726
4.80256e-14
452.753
7.38068e-14
452.78
4.17099e-14
452.799
3.60012e-14
452.821
1.47901e-14
1.72354e-14
452.523
4.44972e-13
452.302
4.57895e-14
452.333
3.50668e-14
452.361
2.7085e-14
452.389
3.70808e-14
452.416
2.63089e-14
452.443
7.77411e-14
452.471
6.84007e-14
452.498
2.22525e-14
452.526
2.8142e-14
452.553
1.71485e-14
452.58
2.09309e-14
452.608
6.31821e-15
452.635
1.63846e-14
452.662
3.60213e-14
452.689
1.29053e-14
452.716
4.13135e-14
452.735
1.79579e-14
452.757
3.97423e-15
1.42334e-14
452.473
2.54617e-13
452.251
3.60654e-13
452.283
4.30585e-13
452.311
4.17073e-14
452.338
7.15909e-15
452.366
5.02317e-15
452.393
1.79371e-14
452.421
7.54611e-15
452.448
7.91798e-15
452.476
8.92227e-16
452.503
3.88274e-14
452.53
5.13853e-14
452.558
2.65457e-14
452.585
2.4602e-14
452.612
9.39125e-15
452.639
9.56463e-15
452.667
1.84199e-14
452.685
5.64346e-14
452.707
9.59945e-15
1.23019e-14
452.429
3.11902e-13
452.207
1.18199e-12
452.239
9.25394e-13
452.266
6.56027e-14
452.294
9.82685e-14
452.322
4.02662e-14
452.349
6.30115e-15
452.377
4.34299e-14
452.404
1.55375e-14
452.432
4.39715e-15
452.459
3.82548e-14
452.486
7.0672e-14
452.514
3.57328e-14
452.541
2.99464e-14
452.568
9.49441e-15
452.596
4.1247e-14
452.623
6.47846e-14
452.642
2.50946e-14
452.664
4.78154e-15
1.59397e-14
452.386
8.91996e-13
452.163
2.15092e-12
452.195
1.09173e-12
452.223
6.53107e-14
452.25
1.16088e-14
452.278
2.0578e-14
452.306
4.02663e-14
452.333
3.81904e-14
452.361
1.19366e-13
452.388
8.86881e-14
452.416
5.73906e-14
452.443
5.15832e-14
452.471
3.90616e-14
452.498
2.85031e-14
452.525
3.83151e-14
452.553
6.83072e-16
452.58
2.80355e-14
452.599
2.54887e-14
452.621
2.94324e-14
2.31136e-14
452.34
6.37559e-13
452.117
1.14122e-12
452.149
5.59511e-13
452.177
4.1662e-14
452.205
1.83115e-14
452.233
6.21243e-15
452.26
8.51048e-14
452.288
7.18302e-14
452.315
7.72982e-14
452.343
3.90391e-14
452.371
1.23195e-15
452.398
1.62859e-15
452.426
5.15652e-14
452.453
8.73703e-14
452.48
7.4527e-15
452.508
2.24348e-14
452.535
1.96753e-14
452.554
4.31712e-14
452.576
9.42671e-15
1.26336e-14
452.292
2.19528e-12
452.068
2.8194e-12
452.1
6.92357e-13
452.128
1.47409e-13
452.156
8.53439e-14
452.184
3.62073e-14
452.212
2.58358e-14
452.239
1.68827e-14
452.267
2.63136e-14
452.295
4.45926e-14
452.322
5.5856e-14
452.35
1.62648e-14
452.377
2.07884e-14
452.405
3.9642e-15
452.432
2.20347e-15
452.46
3.01651e-14
452.487
3.7207e-14
452.506
3.51532e-14
452.528
8.94032e-15
3.24378e-14
452.241
3.68659e-12
452.017
4.96753e-12
452.049
1.44198e-12
452.077
2.98056e-13
452.105
1.6158e-14
452.133
4.94606e-14
452.16
8.04631e-14
452.188
2.83906e-14
452.216
6.69618e-14
452.244
9.84852e-14
452.271
9.03245e-14
452.299
2.62491e-14
452.326
1.10172e-14
452.354
1.58936e-14
452.381
6.87335e-14
452.409
9.46966e-14
452.436
9.60558e-14
452.455
6.9853e-14
452.477
9.08869e-15
3.5533e-14
452.19
2.32274e-12
451.965
3.01547e-12
451.998
9.78399e-13
452.025
1.41869e-13
452.053
4.31016e-14
452.081
1.1287e-13
452.109
5.42192e-14
452.137
3.41163e-14
452.165
1.83928e-14
452.193
7.66369e-14
452.22
6.3e-14
452.248
5.69844e-14
452.276
2.20214e-14
452.303
4.03684e-15
452.331
7.34324e-14
452.358
9.70105e-14
452.386
9.61253e-14
452.404
3.84826e-14
452.427
6.41433e-14
2.99712e-14
452.143
3.17423e-12
451.919
3.67607e-12
451.951
9.13186e-13
451.979
2.35896e-13
452.007
2.91322e-14
452.035
1.05104e-14
452.063
3.11533e-15
452.09
3.4772e-14
452.118
2.26638e-14
452.146
6.54483e-14
452.174
3.32723e-14
452.201
3.72572e-14
452.229
5.00949e-14
452.257
2.77053e-14
452.284
2.23708e-14
452.312
1.69201e-14
452.34
3.35605e-14
452.358
2.92842e-14
452.381
6.88905e-15
1.22948e-14
452.112
4.0279e-12
451.891
5.78581e-12
451.922
1.62117e-12
451.949
2.29315e-13
451.976
3.80771e-14
452.003
9.88503e-15
452.031
1.18793e-14
452.058
6.14517e-15
452.085
6.97609e-14
452.112
5.58752e-14
452.14
2.33479e-14
452.167
2.15968e-14
452.194
2.43916e-16
452.222
2.7243e-15
452.249
2.21035e-16
452.276
4.5912e-15
452.304
1.34545e-14
452.323
2.50984e-16
452.345
7.08268e-14
3.99027e-14
452.339
452.339
452.339
452.339
452.339
452.339
452.339
452.339
452.339
452.339
452.339
452.339
452.339
452.339
452.339
452.339
452.339
452.339
452.339
)
;

boundaryField
{
    movingWall
    {
        type            calculated;
        value           uniform 0;
    }
    fixedWalls
    {
        type            calculated;
        value           nonuniform List<scalar> 
60
(
250
250
250
250
250
250
250
250
250
250
250
250
250
250
250
250
250
250
250
250
250
250
250
250
250
250
250
250
250
250
250
250
250
250
250
250
250
250
250
250
0
0
0
0
0
0
0
0
0
0
0
0
0
0
0
0
0
0
0
0
)
;
    }
    frontAndBack
    {
        type            empty;
    }
}


// ************************************************************************* //
