/*--------------------------------*- C++ -*----------------------------------*\
| =========                 |                                                 |
| \\      /  F ield         | OpenFOAM: The Open Source CFD Toolbox           |
|  \\    /   O peration     | Version:  2506                                  |
|   \\  /    A nd           | Website:  www.openfoam.com                      |
|    \\/     M anipulation  |                                                 |
\*---------------------------------------------------------------------------*/
FoamFile
{
    version     2.0;
    format      ascii;
    arch        "LSB;label=32;scalar=64";
    class       surfaceScalarField;
    location    "9";
    object      phi;
}
// * * * * * * * * * * * * * * * * * * * * * * * * * * * * * * * * * * * * * //

dimensions      [0 3 -1 0 0 0 0];

oriented        oriented;

internalField   nonuniform List<scalar> 
760
(
-5e-05
4.70891e-19
-5e-05
-6.75288e-19
-5e-05
2.05683e-19
-5e-05
-2.81768e-20
-5e-05
1.02879e-20
-5e-05
2.7679e-21
-5e-05
3.98008e-21
-5e-05
3.84768e-21
-5e-05
3.95829e-21
-5e-05
-5.39579e-22
-5e-05
1.00058e-20
-5e-05
1.3825e-20
-5e-05
6.92654e-21
-5e-05
-3.51015e-21
-5e-05
-6.25487e-21
-5e-05
-1.10199e-20
-5e-05
-6.81509e-21
-5e-05
-3.32237e-21
-5e-05
5.82159e-21
5.44551e-21
-5e-05
-3.94356e-19
-5e-05
5.03323e-19
-5e-05
-1.48018e-19
-5e-05
2.44513e-20
-5e-05
-5.14761e-21
-5e-05
3.75674e-21
-5e-05
5.3521e-21
-5e-05
6.86968e-21
-5e-05
9.1543e-21
-5e-05
8.10322e-21
-5e-05
-6.77067e-21
-5e-05
-6.09755e-21
-5e-05
-5.56276e-21
-5e-05
-1.63668e-21
-5e-05
-5.06586e-21
-5e-05
-3.0639e-21
-5e-05
2.68214e-21
-5e-05
2.55783e-21
-5e-05
-3.04991e-21
-2.53777e-21
-5e-05
-1.83981e-19
-5e-05
2.20868e-19
-5e-05
-4.00273e-20
-5e-05
7.22445e-21
-5e-05
-7.29331e-21
-5e-05
6.99916e-22
-5e-05
2.44138e-21
-5e-05
2.53096e-21
-5e-05
3.47968e-21
-5e-05
6.24085e-21
-5e-05
5.6113e-21
-5e-05
1.3415e-21
-5e-05
-4.20374e-21
-5e-05
-2.57157e-21
-5e-05
-1.70102e-21
-5e-05
-8.1883e-21
-5e-05
-6.68969e-21
-5e-05
3.6461e-21
-5e-05
-3.20024e-21
-1.02866e-20
-5e-05
2.43342e-19
-5e-05
-3.74155e-19
-5e-05
1.22424e-19
-5e-05
-6.59554e-21
-5e-05
6.19496e-21
-5e-05
-2.34148e-21
-5e-05
1.83516e-21
-5e-05
-1.71171e-21
-5e-05
-2.25642e-23
-5e-05
8.24066e-21
-5e-05
4.08926e-21
-5e-05
2.14331e-21
-5e-05
-1.30185e-21
-5e-05
-4.4151e-21
-5e-05
9.34336e-22
-5e-05
-6.79213e-22
-5e-05
-1.50488e-21
-5e-05
-3.52064e-22
-5e-05
2.64335e-22
-2.75058e-21
-5e-05
-3.60157e-19
-5e-05
4.43852e-19
-5e-05
-1.12528e-19
-5e-05
2.56257e-20
-5e-05
1.11977e-21
-5e-05
7.17634e-21
-5e-05
4.95893e-21
-5e-05
5.27793e-21
-5e-05
7.34019e-21
-5e-05
3.86709e-21
-5e-05
-7.61759e-22
-5e-05
-2.47922e-21
-5e-05
-3.52436e-21
-5e-05
-8.25195e-21
-5e-05
-5.29099e-21
-5e-05
-1.74262e-21
-5e-05
1.68492e-21
-5e-05
-1.30305e-21
-5e-05
-1.81886e-21
4.87571e-22
-5e-05
1.27924e-19
-5e-05
-1.87642e-19
-5e-05
4.52446e-20
-5e-05
-1.00249e-20
-5e-05
6.13608e-21
-5e-05
-1.99252e-21
-5e-05
8.40345e-21
-5e-05
2.13175e-20
-5e-05
1.72476e-20
-5e-05
2.27101e-21
-5e-05
-5.32368e-21
-5e-05
-8.33493e-21
-5e-05
-1.57072e-20
-5e-05
-7.68863e-21
-5e-05
-4.90242e-21
-5e-05
2.63142e-21
-5e-05
5.46516e-21
-5e-05
6.0021e-21
-5e-05
-1.7589e-21
9.117e-22
-5e-05
2.55965e-19
-5e-05
-3.3995e-19
-5e-05
9.31848e-20
-5e-05
-2.64613e-20
-5e-05
-2.76969e-21
-5e-05
4.83591e-21
-5e-05
1.88953e-22
-5e-05
-1.97334e-21
-5e-05
2.66609e-21
-5e-05
1.1176e-20
-5e-05
8.58471e-21
-5e-05
-9.5313e-22
-5e-05
-8.81857e-22
-5e-05
-3.49312e-21
-5e-05
-4.5525e-21
-5e-05
-3.72957e-21
-5e-05
-1.29738e-21
-5e-05
-1.19393e-21
-5e-05
-1.53231e-21
-3.69429e-21
-5e-05
-3.38239e-19
-5e-05
4.34795e-19
-5e-05
-1.3742e-19
-5e-05
2.97896e-20
-5e-05
3.66047e-21
-5e-05
5.77583e-21
-5e-05
4.43565e-21
-5e-05
4.69628e-21
-5e-05
5.52047e-21
-5e-05
2.941e-21
-5e-05
5.24384e-21
-5e-05
-6.55025e-22
-5e-05
-3.29367e-21
-5e-05
-3.98099e-21
-5e-05
-6.16131e-21
-5e-05
-7.51699e-21
-5e-05
-1.17211e-20
-5e-05
-1.31324e-20
-5e-05
-4.11875e-21
3.80988e-21
-5e-05
6.93941e-20
-5e-05
-1.71879e-19
-5e-05
7.24777e-20
-5e-05
-2.86726e-21
-5e-05
7.61087e-21
-5e-05
5.35229e-21
-5e-05
6.81237e-21
-5e-05
5.78336e-21
-5e-05
5.68721e-21
-5e-05
3.56791e-21
-5e-05
9.21877e-22
-5e-05
2.84566e-21
-5e-05
-4.49484e-22
-5e-05
-4.75262e-21
-5e-05
-5.30454e-21
-5e-05
-8.15178e-21
-5e-05
-4.60641e-21
-5e-05
-3.97576e-21
-5e-05
1.63327e-21
-1.9032e-21
-5e-05
-4.91418e-20
-5e-05
5.06237e-21
-5e-05
3.8765e-21
-5e-05
2.99402e-21
-5e-05
4.09865e-21
-5e-05
2.90788e-21
-5e-05
8.5919e-21
-5e-05
7.55929e-21
-5e-05
2.45904e-21
-5e-05
3.10973e-21
-5e-05
1.89478e-21
-5e-05
2.31261e-21
-5e-05
-6.98033e-22
-5e-05
-1.81009e-21
-5e-05
-3.97913e-21
-5e-05
-1.42554e-21
-5e-05
-4.56319e-21
-5e-05
-1.98342e-21
-5e-05
-4.3893e-22
1.5719e-21
-5e-05
-2.81224e-20
-5e-05
3.98772e-20
-5e-05
-4.76046e-20
-5e-05
4.61089e-21
-5e-05
7.91398e-22
-5e-05
-5.5526e-22
-5e-05
-1.9826e-21
-5e-05
8.34045e-22
-5e-05
8.75076e-22
-5e-05
-9.86026e-23
-5e-05
4.29059e-21
-5e-05
5.67805e-21
-5e-05
2.93305e-21
-5e-05
2.71818e-21
-5e-05
1.03752e-21
-5e-05
1.05663e-21
-5e-05
2.03474e-21
-5e-05
6.23373e-21
-5e-05
1.06031e-21
-1.35873e-21
-5e-05
3.44527e-20
-5e-05
-1.30704e-19
-5e-05
1.0232e-19
-5e-05
-7.2533e-21
-5e-05
-1.08641e-20
-5e-05
-4.45145e-21
-5e-05
-6.9654e-22
-5e-05
-4.80061e-21
-5e-05
1.71734e-21
-5e-05
-4.85989e-22
-5e-05
-4.22772e-21
-5e-05
-7.80997e-21
-5e-05
-3.94853e-21
-5e-05
-3.30898e-21
-5e-05
1.04902e-21
-5e-05
4.55711e-21
-5e-05
7.15707e-21
-5e-05
2.77221e-21
-5e-05
5.28197e-22
1.76069e-21
-5e-05
-9.85394e-20
-5e-05
2.37871e-19
-5e-05
-1.20724e-19
-5e-05
7.22174e-21
-5e-05
-1.28354e-21
-5e-05
-2.27514e-21
-5e-05
-4.45154e-21
-5e-05
-4.22187e-21
-5e-05
-1.31947e-20
-5e-05
-9.80309e-21
-5e-05
-6.34314e-21
-5e-05
-5.70103e-21
-5e-05
-4.31679e-21
-5e-05
-3.1498e-21
-5e-05
-4.23378e-21
-5e-05
7.54754e-23
-5e-05
3.09753e-21
-5e-05
2.81601e-21
-5e-05
3.25159e-21
-2.55336e-21
-5e-05
7.04389e-20
-5e-05
-1.26221e-19
-5e-05
6.1877e-20
-5e-05
-4.60726e-21
-5e-05
2.02484e-21
-5e-05
6.86927e-22
-5e-05
-9.40953e-21
-5e-05
-7.94151e-21
-5e-05
-8.54536e-21
-5e-05
-4.31561e-21
-5e-05
-1.36176e-22
-5e-05
-1.80012e-22
-5e-05
-5.69917e-21
-5e-05
-9.65608e-21
-5e-05
8.236e-22
-5e-05
2.47917e-21
-5e-05
2.17406e-21
-5e-05
4.77008e-21
-5e-05
1.04154e-21
1.39577e-21
-5e-05
2.42565e-19
-5e-05
-3.11867e-19
-5e-05
7.65771e-20
-5e-05
-1.63033e-20
-5e-05
9.43817e-21
-5e-05
4.00399e-21
-5e-05
2.85683e-21
-5e-05
-1.86675e-21
-5e-05
-2.9093e-21
-5e-05
-4.93007e-21
-5e-05
-6.17485e-21
-5e-05
-1.79799e-21
-5e-05
2.29786e-21
-5e-05
-4.38167e-22
-5e-05
-2.43533e-22
-5e-05
-3.33377e-21
-5e-05
-4.11171e-21
-5e-05
-3.88457e-21
-5e-05
-9.87904e-22
3.58415e-21
-5e-05
-4.07392e-19
-5e-05
5.49544e-19
-5e-05
-1.59506e-19
-5e-05
3.29685e-20
-5e-05
-1.78712e-21
-5e-05
-5.47023e-21
-5e-05
-8.89831e-21
-5e-05
-3.13955e-21
-5e-05
7.40431e-21
-5e-05
1.08896e-20
-5e-05
9.98643e-21
-5e-05
2.90202e-21
-5e-05
-1.21793e-21
-5e-05
1.75693e-21
-5e-05
-7.59744e-21
-5e-05
-1.04668e-20
-5e-05
-1.06162e-20
-5e-05
-7.7199e-21
-5e-05
-1.00441e-21
-3.9266e-21
-5e-05
2.56705e-19
-5e-05
-3.3363e-19
-5e-05
1.08238e-19
-5e-05
-1.5694e-20
-5e-05
-4.76766e-21
-5e-05
-1.24845e-20
-5e-05
-5.99668e-21
-5e-05
-3.77313e-21
-5e-05
2.03401e-21
-5e-05
8.47469e-21
-5e-05
6.96614e-21
-5e-05
6.3007e-21
-5e-05
2.43469e-21
-5e-05
-4.46294e-22
-5e-05
-8.1177e-21
-5e-05
-1.07237e-20
-5e-05
-1.0625e-20
-5e-05
-4.25342e-21
-5e-05
7.08938e-21
3.31234e-21
-5e-05
3.50842e-19
-5e-05
-4.06751e-19
-5e-05
1.01032e-19
-5e-05
-2.60978e-20
-5e-05
-3.22271e-21
-5e-05
-1.16265e-21
-5e-05
3.44588e-22
-5e-05
-3.84599e-21
-5e-05
-2.50655e-21
-5e-05
-7.23808e-21
-5e-05
-3.67937e-21
-5e-05
-4.11986e-21
-5e-05
-5.539e-21
-5e-05
-3.06324e-21
-5e-05
2.47324e-21
-5e-05
1.87055e-21
-5e-05
3.70989e-21
-5e-05
3.23702e-21
-5e-05
-7.61474e-22
-1.35891e-21
-5e-05
-4.45222e-19
-5e-05
6.39877e-19
-5e-05
-1.79283e-19
-5e-05
2.53592e-20
-5e-05
-4.21065e-21
-5e-05
1.09308e-21
-5e-05
-1.31356e-21
-5e-05
-6.79491e-22
-5e-05
-7.71338e-21
-5e-05
-6.17792e-21
-5e-05
-2.58139e-21
-5e-05
-2.38774e-21
-5e-05
-2.69662e-23
-5e-05
-3.0118e-22
-5e-05
2.44352e-23
-5e-05
-5.0754e-22
-5e-05
1.48729e-21
-5e-05
-2.77436e-23
-5e-05
-7.82901e-21
-4.41061e-21
-5e-05
-5e-05
-5e-05
-5e-05
-5e-05
-5e-05
-5e-05
-5e-05
-5e-05
-5e-05
-5e-05
-5e-05
-5e-05
-5e-05
-5e-05
-5e-05
-5e-05
-5e-05
-5e-05
)
;

boundaryField
{
    movingWall
    {
        type            calculated;
        value           uniform 0;
    }
    fixedWalls
    {
        type            calculated;
        value           nonuniform List<scalar> 
60
(
5e-05
5e-05
5e-05
5e-05
5e-05
5e-05
5e-05
5e-05
5e-05
5e-05
5e-05
5e-05
5e-05
5e-05
5e-05
5e-05
5e-05
5e-05
5e-05
5e-05
-5e-05
-5e-05
-5e-05
-5e-05
-5e-05
-5e-05
-5e-05
-5e-05
-5e-05
-5e-05
-5e-05
-5e-05
-5e-05
-5e-05
-5e-05
-5e-05
-5e-05
-5e-05
-5e-05
-5e-05
0
0
0
0
0
0
0
0
0
0
0
0
0
0
0
0
0
0
0
0
)
;
    }
    frontAndBack
    {
        type            empty;
    }
}


// ************************************************************************* //
