/*--------------------------------*- C++ -*----------------------------------*\
| =========                 |                                                 |
| \\      /  F ield         | OpenFOAM: The Open Source CFD Toolbox           |
|  \\    /   O peration     | Version:  2506                                  |
|   \\  /    A nd           | Website:  www.openfoam.com                      |
|    \\/     M anipulation  |                                                 |
\*---------------------------------------------------------------------------*/
FoamFile
{
    version     2.0;
    format      ascii;
    arch        "LSB;label=32;scalar=64";
    class       volScalarField;
    location    "9";
    object      QField;
}
// * * * * * * * * * * * * * * * * * * * * * * * * * * * * * * * * * * * * * //

dimensions      [0 0 -2 0 0 0 0];

internalField   nonuniform List<scalar> 
400
(
-2.79086e-23
-8.70672e-24
-4.43916e-25
-2.43885e-26
-1.30129e-26
1.32913e-27
-4.75861e-28
1.0616e-28
-5.74092e-28
1.02332e-27
1.6386e-29
-3.81365e-27
-1.85036e-27
-3.60119e-28
0
-1.85972e-27
-8.51193e-28
0
4.05747e-28
-2.06536e-28
-5.14664e-23
-1.57077e-23
-8.75389e-25
-4.3251e-27
-3.8753e-27
6.69946e-28
1.31888e-28
4.51514e-29
-3.9732e-28
7.1033e-29
-1.84427e-27
-3.15496e-27
-1.20981e-27
0
2.21294e-28
4.89606e-28
8.81449e-28
-4.90788e-28
0
-1.37873e-27
-4.50258e-23
-1.6421e-23
4.21736e-26
-8.41631e-26
1.07108e-26
-2.35575e-27
-1.01718e-28
-9.47644e-28
-6.21819e-28
2.57864e-27
1.11325e-27
2.64941e-28
0
6.48273e-29
-5.44668e-28
0
-1.86162e-28
-4.8335e-29
2.24723e-27
-7.44716e-28
-3.61677e-23
-1.10677e-23
-4.24261e-25
2.55273e-26
-3.39032e-27
0
-3.21405e-28
5.6436e-29
6.59324e-28
8.32203e-28
-4.6152e-28
5.92638e-28
4.53138e-28
0
0
7.47177e-28
-5.66168e-28
-2.68339e-28
3.2715e-28
-1.27795e-27
-3.25914e-23
-9.54008e-24
-5.95351e-25
-1.15111e-26
4.68503e-28
-1.6068e-27
1.11181e-28
-1.01065e-27
-5.01551e-28
-1.16943e-27
-1.2497e-28
-1.20269e-27
0
0
-8.62922e-28
3.01659e-28
-4.78205e-28
0
1.9682e-28
-3.30326e-28
-3.79123e-23
-1.12306e-23
-4.96686e-25
-1.48754e-26
-4.68179e-28
-4.28341e-28
0
-1.1168e-27
3.16314e-27
5.13885e-27
9.33047e-28
6.33727e-28
-9.48624e-28
0
0
1.17794e-27
-2.89416e-28
-2.41556e-28
0
0
-3.96001e-23
-1.16589e-23
-3.55015e-25
-1.65135e-26
1.59226e-26
-2.62232e-28
3.17725e-27
4.33731e-28
-8.35486e-28
-2.56836e-27
-4.62993e-27
-1.19039e-27
-1.43687e-27
1.19886e-27
1.29058e-27
6.69257e-28
-1.42558e-28
-1.13704e-27
0
0
-3.13809e-23
-9.88084e-24
-4.19043e-25
-3.31729e-26
4.07083e-27
-3.13112e-28
8.59307e-28
-1.17236e-28
6.09705e-28
-1.22264e-27
7.06514e-28
1.03547e-27
8.41002e-28
1.20313e-27
3.72886e-28
4.10757e-28
-1.00183e-27
-1.3582e-27
1.11033e-28
-2.57064e-28
-2.08503e-23
-6.85187e-24
-4.38204e-25
4.93469e-27
1.96527e-27
-7.3475e-28
5.474e-28
6.30064e-28
1.84134e-27
-1.02811e-28
-8.17039e-29
5.1308e-28
6.64703e-28
4.04495e-28
6.6836e-28
1.63765e-28
-1.50894e-28
-6.58142e-28
1.15905e-27
0
-8.71302e-24
-6.00384e-24
1.89865e-25
-3.1939e-26
6.71936e-27
-1.3563e-27
-4.8137e-28
0
0
0
2.29516e-28
0
2.81729e-28
0
0
-5.59061e-28
-5.06373e-29
1.96522e-28
-2.66634e-28
6.72093e-29
1.11993e-23
1.10987e-24
2.45741e-25
4.85944e-26
0
1.23523e-27
-1.91411e-27
-8.21011e-28
1.45689e-28
8.31869e-28
7.55569e-28
0
-4.06658e-28
0
0
-3.99003e-30
-5.78161e-28
-7.01757e-28
1.87077e-28
-5.54559e-29
1.87482e-23
3.36912e-24
4.46048e-25
-2.3663e-27
7.0399e-27
-3.27124e-28
1.3611e-27
1.85579e-27
5.4515e-28
-6.5884e-28
-1.68675e-27
-2.85718e-27
-1.19612e-28
2.86928e-28
3.50033e-28
4.30613e-28
-8.13294e-28
-3.35131e-28
3.49685e-29
6.43336e-30
2.29663e-23
3.71705e-24
-2.12831e-26
3.84512e-26
2.3906e-27
-3.00221e-28
-7.48233e-28
2.0757e-27
-3.09799e-27
3.63269e-28
1.40251e-28
0
9.34096e-28
0
3.92695e-28
-3.95881e-28
0
0
0
0
6.1446e-24
-2.00791e-24
2.60839e-25
-2.87152e-27
7.31607e-27
-3.45218e-28
8.68307e-28
2.64082e-28
-5.80502e-28
6.38313e-28
-6.44437e-29
-9.57189e-28
1.46954e-28
2.91215e-29
-2.95524e-28
5.9985e-28
2.75142e-28
-2.6771e-28
-2.94233e-28
-1.43574e-28
-2.56444e-23
-1.15998e-23
4.96575e-25
-1.85197e-26
1.76882e-26
-2.19384e-27
-9.26592e-28
0
-9.25253e-28
4.05023e-28
1.88749e-28
-3.62224e-29
0
5.2405e-28
3.24568e-28
-1.83506e-28
0
-1.70111e-27
-1.00551e-28
-1.79186e-28
-3.85287e-23
-1.22336e-23
-4.95986e-25
-1.225e-26
0
-1.63855e-27
-5.28505e-28
-3.5357e-28
-1.1995e-27
-1.58687e-27
-2.05671e-27
-3.41716e-28
3.30531e-28
-3.58878e-29
-1.11306e-27
-1.71827e-27
9.20545e-28
-1.60201e-27
-3.38534e-28
-5.87365e-29
-4.05512e-23
-1.17911e-23
-7.31315e-25
-1.45034e-26
4.30823e-27
-1.47126e-27
1.22527e-27
4.43828e-27
9.18127e-28
2.33154e-28
7.14956e-28
1.35951e-27
8.82858e-28
3.00336e-27
3.68674e-27
6.20108e-29
0
-8.4727e-28
2.93251e-29
-3.60394e-29
-5.08214e-23
-1.64112e-23
-4.08379e-25
-3.47628e-26
7.3522e-27
-3.00712e-27
4.31451e-28
-2.50014e-30
6.63862e-28
-3.34751e-27
-1.98967e-27
-1.34212e-27
-6.5337e-28
7.90533e-29
-1.70992e-27
-9.17828e-28
-1.45667e-27
2.77291e-28
-9.41903e-28
0
-5.326e-23
-1.56937e-23
-7.02254e-25
-4.56928e-26
4.89409e-27
-5.05052e-28
1.49397e-27
1.92267e-27
9.89024e-28
-2.45491e-28
-2.01698e-28
2.12729e-28
5.43494e-28
0
3.86662e-28
0
0
7.67746e-28
-3.75041e-28
5.71822e-28
-2.46728e-23
-7.23528e-24
-5.74292e-25
1.20496e-26
-4.59642e-27
0
-3.70263e-28
-2.88552e-29
-1.4992e-27
-5.68858e-28
1.64464e-28
0
1.97277e-28
0
1.05697e-28
1.02098e-28
0
0
-6.02832e-28
-2.27125e-28
)
;

boundaryField
{
    movingWall
    {
        type            calculated;
        value           nonuniform List<scalar> 
20
(
6.6339e-24
4.7034e-24
-1.21791e-24
9.87107e-26
-2.63577e-26
3.94673e-27
-2.27824e-27
-1.13776e-27
-3.00843e-27
7.96386e-29
8.08375e-28
8.61146e-29
-1.61609e-28
-5.24208e-28
-8.65873e-29
3.34555e-28
2.88749e-28
-7.15442e-28
-1.1523e-27
-3.1025e-28
)
;
    }
    fixedWalls
    {
        type            calculated;
        value           nonuniform List<scalar> 
60
(
-1.58033e-22
-2.85575e-22
-2.31241e-22
-1.9175e-22
-1.7761e-22
-1.97796e-22
-2.02381e-22
-1.63209e-22
-1.21076e-22
-4.54934e-23
5.47016e-23
8.86857e-23
8.98862e-23
1.30115e-23
-1.30913e-22
-2.08749e-22
-2.24834e-22
-2.5928e-22
-2.84817e-22
-1.38857e-22
-3.38388e-28
-2.07714e-27
-1.22014e-27
-2.52156e-27
0
0
0
-1.90391e-28
3.3679e-29
2.22274e-28
3.57231e-29
1.05404e-29
0
-2.35232e-28
-5.24775e-28
-4.08836e-29
-5.9047e-29
4.95568e-28
7.67631e-28
0
1.18386e-23
9.15749e-24
-1.88463e-24
1.77875e-25
-4.97476e-26
7.8276e-27
-1.94929e-27
-2.60898e-28
-9.18231e-28
-8.383e-28
-3.4118e-27
-9.7217e-27
-6.06326e-27
-5.30034e-27
-9.42465e-28
-4.195e-27
-1.96692e-27
-8.69847e-28
-3.32388e-28
2.74364e-29
)
;
    }
    frontAndBack
    {
        type            empty;
    }
}


// ************************************************************************* //
