/*--------------------------------*- C++ -*----------------------------------*\
| =========                 |                                                 |
| \\      /  F ield         | OpenFOAM: The Open Source CFD Toolbox           |
|  \\    /   O peration     | Version:  2506                                  |
|   \\  /    A nd           | Website:  www.openfoam.com                      |
|    \\/     M anipulation  |                                                 |
\*---------------------------------------------------------------------------*/
FoamFile
{
    version     2.0;
    format      ascii;
    arch        "LSB;label=32;scalar=64";
    class       surfaceVectorField;
    location    "9";
    object      surfaceU;
}
// * * * * * * * * * * * * * * * * * * * * * * * * * * * * * * * * * * * * * //

dimensions      [0 1 -1 0 0 0 0];

internalField   nonuniform List<vector> 
760
(
(-1 5.97811e-14 0)
(-1 8.15645e-14 0)
(-1 -1.23404e-14 0)
(-1 -1.70895e-14 0)
(-1 3.04566e-15 0)
(-1 4.15638e-15 0)
(-1 -6.22111e-16 0)
(-1 -8.31107e-16 0)
(-1 1.78044e-16 0)
(-1 2.22658e-16 0)
(-1 1.22718e-17 0)
(-1 4.31821e-17 0)
(-1 5.30936e-17 0)
(-1 8.77809e-17 0)
(-1 6.28851e-17 0)
(-1 9.91823e-17 0)
(-1 8.618e-17 0)
(-1 1.05901e-16 0)
(-1 1.80564e-16 0)
(-1 8.58308e-17 0)
(-1 2.5418e-16 0)
(-1 1.44209e-16 0)
(-1 1.71954e-16 0)
(-1 1.7968e-16 0)
(-1 1.28825e-18 0)
(-1 7.0832e-17 0)
(-1 -1.21246e-16 0)
(-1 -6.64303e-17 0)
(-1 -1.74303e-16 0)
(-1 -1.35675e-16 0)
(-1 -1.5186e-16 0)
(-1 -1.60308e-16 0)
(-1 -6.49991e-17 0)
(-1 -7.01565e-17 0)
(-1 3.2937e-17 0)
(-1 -3.20583e-18 0)
(-1 7.03605e-17 0)
(-1 6.82384e-17 0)
(-1 3.80991e-17 0)
(-1 4.69393e-15 0)
(-1 -6.01483e-14 0)
(-1 -5.92765e-16 0)
(-1 1.33281e-14 0)
(-1 2.79607e-16 0)
(-1 -2.97831e-15 0)
(-1 1.3661e-17 0)
(-1 6.83901e-16 0)
(-1 8.77955e-17 0)
(-1 -1.39188e-16 0)
(-1 1.18691e-16 0)
(-1 9.94379e-17 0)
(-1 1.3387e-16 0)
(-1 1.08987e-16 0)
(-1 1.42199e-16 0)
(-1 1.20871e-16 0)
(-1 1.05552e-16 0)
(-1 1.38983e-16 0)
(-1 4.94755e-17 0)
(-1 7.92792e-17 0)
(-1 6.97093e-17 0)
(-1 -3.6012e-17 0)
(-1 7.85586e-17 0)
(-1 -1.43155e-17 0)
(-1 3.11347e-18 0)
(-1 -4.07532e-17 0)
(-1 -8.08583e-17 0)
(-1 -5.00324e-17 0)
(-1 -1.2168e-16 0)
(-1 -9.55023e-17 0)
(-1 -7.86044e-17 0)
(-1 -1.21398e-16 0)
(-1 -8.36321e-18 0)
(-1 -2.20318e-17 0)
(-1 3.20955e-17 0)
(-1 4.20613e-17 0)
(-1 3.5977e-17 0)
(-1 -1.7321e-17 0)
(-1 -5.30896e-17 0)
(-1 -5.15142e-14 0)
(-1 -1.94143e-14 0)
(-1 1.09425e-14 0)
(-1 4.22012e-15 0)
(-1 -2.57402e-15 0)
(-1 -8.39045e-16 0)
(-1 5.31052e-16 0)
(-1 2.22303e-16 0)
(-1 -1.27546e-16 0)
(-1 -8.84519e-17 0)
(-1 8.97333e-17 0)
(-1 -4.81445e-18 0)
(-1 9.59879e-17 0)
(-1 4.21347e-17 0)
(-1 1.17655e-16 0)
(-1 3.27317e-17 0)
(-1 1.1271e-16 0)
(-1 7.42129e-17 0)
(-1 -6.20829e-18 0)
(-1 1.4941e-16 0)
(-1 -1.20037e-16 0)
(-1 3.20514e-17 0)
(-1 -1.33627e-16 0)
(-1 -3.60075e-17 0)
(-1 -9.3899e-17 0)
(-1 -9.08615e-17 0)
(-1 -6.46763e-17 0)
(-1 -3.80738e-17 0)
(-1 -9.52201e-17 0)
(-1 -2.55725e-17 0)
(-1 -6.48251e-17 0)
(-1 -1.11524e-16 0)
(-1 2.83928e-17 0)
(-1 -5.63726e-17 0)
(-1 -7.35516e-18 0)
(-1 3.76032e-17 0)
(-1 -1.06388e-16 0)
(-1 -7.60426e-17 0)
(-1 -1.21778e-16 0)
(-1 3.632e-14 0)
(-1 4.54904e-14 0)
(-1 -7.56143e-15 0)
(-1 -9.51328e-15 0)
(-1 1.95728e-15 0)
(-1 2.4747e-15 0)
(-1 -3.97201e-16 0)
(-1 -3.77078e-16 0)
(-1 3.42796e-17 0)
(-1 1.05471e-16 0)
(-1 -5.24131e-17 0)
(-1 -3.20209e-17 0)
(-1 -2.11216e-17 0)
(-1 1.41375e-17 0)
(-1 -1.07109e-17 0)
(-1 -2.12387e-17 0)
(-1 1.10913e-16 0)
(-1 3.7621e-17 0)
(-1 1.8767e-16 0)
(-1 1.53009e-16 0)
(-1 1.16081e-16 0)
(-1 1.17187e-16 0)
(-1 6.75828e-18 0)
(-1 6.98935e-17 0)
(-1 -3.50364e-17 0)
(-1 -2.63634e-17 0)
(-1 1.03001e-18 0)
(-1 -7.20243e-17 0)
(-1 -4.18764e-17 0)
(-1 -8.51113e-18 0)
(-1 -1.03071e-16 0)
(-1 -6.57685e-17 0)
(-1 -4.71622e-17 0)
(-1 -6.37516e-17 0)
(-1 -3.10842e-17 0)
(-1 -1.18966e-17 0)
(-1 -9.14327e-17 0)
(-1 -3.45323e-17 0)
(-1 -6.89023e-17 0)
(-1 -3.42865e-16 0)
(-1 -4.68918e-14 0)
(-1 5.22854e-16 0)
(-1 1.07147e-14 0)
(-1 1.40348e-16 0)
(-1 -2.26694e-15 0)
(-1 1.25594e-16 0)
(-1 6.77259e-16 0)
(-1 3.91704e-17 0)
(-1 -2.76246e-18 0)
(-1 3.45297e-17 0)
(-1 1.1618e-16 0)
(-1 1.40204e-17 0)
(-1 1.37497e-16 0)
(-1 2.70932e-17 0)
(-1 1.65193e-16 0)
(-1 7.97174e-17 0)
(-1 1.36505e-16 0)
(-1 8.2526e-17 0)
(-1 4.23396e-17 0)
(-1 7.09996e-17 0)
(-1 -3.7563e-17 0)
(-1 3.67718e-17 0)
(-1 -4.92807e-17 0)
(-1 -6.33513e-17 0)
(-1 -1.30242e-16 0)
(-1 -8.15654e-17 0)
(-1 -1.76363e-16 0)
(-1 -3.24032e-17 0)
(-1 -8.81016e-17 0)
(-1 -2.64486e-17 0)
(-1 -4.16754e-18 0)
(-1 -2.84861e-17 0)
(-1 2.64991e-17 0)
(-1 -1.53447e-17 0)
(-1 1.68614e-17 0)
(-1 -1.20019e-17 0)
(-1 -4.91096e-18 0)
(-1 -7.96788e-18 0)
(-1 -3.58342e-14 0)
(-1 1.60789e-14 0)
(-1 7.9249e-15 0)
(-1 -3.68022e-15 0)
(-1 -1.73003e-15 0)
(-1 8.50863e-16 0)
(-1 5.48903e-16 0)
(-1 -2.37415e-16 0)
(-1 7.42472e-17 0)
(-1 8.36014e-17 0)
(-1 2.19147e-16 0)
(-1 3.71651e-17 0)
(-1 2.88669e-16 0)
(-1 1.50596e-16 0)
(-1 2.74604e-16 0)
(-1 2.82265e-16 0)
(-1 9.91273e-17 0)
(-1 2.54918e-16 0)
(-1 -7.77494e-17 0)
(-1 1.05908e-16 0)
(-1 -1.57843e-16 0)
(-1 -4.94919e-17 0)
(-1 -2.16294e-16 0)
(-1 -1.62231e-16 0)
(-1 -2.43254e-16 0)
(-1 -2.17737e-16 0)
(-1 -1.829e-16 0)
(-1 -1.5527e-16 0)
(-1 -5.98659e-17 0)
(-1 -8.3666e-17 0)
(-1 4.87802e-17 0)
(-1 4.71201e-17 0)
(-1 7.18466e-17 0)
(-1 1.02953e-16 0)
(-1 2.72951e-17 0)
(-1 6.14207e-17 0)
(-1 -8.76921e-19 0)
(-1 -3.409e-17 0)
(-1 -1.31565e-17 0)
(-1 4.82329e-14 0)
(-1 3.9859e-14 0)
(-1 -1.07543e-14 0)
(-1 -9.10932e-15 0)
(-1 2.34348e-15 0)
(-1 1.97844e-15 0)
(-1 -7.02716e-16 0)
(-1 -5.71214e-16 0)
(-1 4.65193e-17 0)
(-1 5.37284e-17 0)
(-1 -3.13863e-17 0)
(-1 -1.65538e-17 0)
(-1 1.44191e-16 0)
(-1 4.70226e-18 0)
(-1 2.62578e-16 0)
(-1 8.54955e-17 0)
(-1 2.61698e-16 0)
(-1 1.79618e-16 0)
(-1 1.34165e-16 0)
(-1 1.97086e-16 0)
(-1 -5.38801e-17 0)
(-1 1.09835e-16 0)
(-1 -1.63674e-16 0)
(-1 -5.61231e-17 0)
(-1 -1.29753e-16 0)
(-1 -9.54643e-17 0)
(-1 -5.60365e-17 0)
(-1 -7.39147e-17 0)
(-1 2.332e-17 0)
(-1 -9.57269e-17 0)
(-1 1.01293e-16 0)
(-1 -6.33434e-17 0)
(-1 9.25274e-17 0)
(-1 -3.66966e-17 0)
(-1 3.55604e-20 0)
(-1 -4.34525e-17 0)
(-1 -4.63696e-17 0)
(-1 -5.25088e-17 0)
(-1 -1.32441e-17 0)
(-1 -1.74833e-14 0)
(-1 -5.42653e-14 0)
(-1 3.62339e-15 0)
(-1 1.21048e-14 0)
(-1 -9.36252e-16 0)
(-1 -2.82262e-15 0)
(-1 1.85231e-16 0)
(-1 7.20901e-16 0)
(-1 -9.34473e-18 0)
(-1 -2.98756e-17 0)
(-1 1.95347e-17 0)
(-1 1.63797e-16 0)
(-1 -5.39934e-17 0)
(-1 6.67725e-17 0)
(-1 2.53514e-18 0)
(-1 3.97801e-17 0)
(-1 1.15006e-16 0)
(-1 6.5188e-17 0)
(-1 1.72757e-16 0)
(-1 8.43174e-17 0)
(-1 1.07592e-16 0)
(-1 1.09374e-16 0)
(-1 1.20866e-17 0)
(-1 2.66889e-17 0)
(-1 -3.96258e-17 0)
(-1 -3.24051e-17 0)
(-1 -1.13605e-16 0)
(-1 -8.63316e-17 0)
(-1 -1.8239e-16 0)
(-1 -1.43692e-16 0)
(-1 -2.01333e-16 0)
(-1 -1.8594e-16 0)
(-1 -1.72676e-16 0)
(-1 -1.92844e-16 0)
(-1 -9.59969e-17 0)
(-1 -1.68724e-16 0)
(-1 -1.93833e-17 0)
(-1 -3.20269e-17 0)
(-1 1.47926e-17 0)
(-1 -2.46773e-14 0)
(-1 2.81755e-14 0)
(-1 5.65876e-15 0)
(-1 -6.00149e-15 0)
(-1 -1.16547e-15 0)
(-1 1.48893e-15 0)
(-1 5.05794e-16 0)
(-1 -1.89388e-16 0)
(-1 1.43266e-16 0)
(-1 2.14334e-16 0)
(-1 2.11035e-16 0)
(-1 1.30703e-16 0)
(-1 1.60546e-16 0)
(-1 1.95481e-16 0)
(-1 1.02433e-16 0)
(-1 1.69011e-16 0)
(-1 3.44996e-17 0)
(-1 1.01423e-16 0)
(-1 2.09347e-17 0)
(-1 3.82224e-17 0)
(-1 2.84706e-17 0)
(-1 1.76764e-17 0)
(-1 -1.78028e-17 0)
(-1 2.45891e-17 0)
(-1 -7.91109e-17 0)
(-1 -3.4624e-17 0)
(-1 -1.16419e-16 0)
(-1 -8.86888e-17 0)
(-1 -1.47242e-16 0)
(-1 -1.00002e-16 0)
(-1 -1.77451e-16 0)
(-1 -1.10674e-16 0)
(-1 -1.88892e-16 0)
(-1 -1.30685e-16 0)
(-1 -1.04754e-16 0)
(-1 -1.31456e-16 0)
(-1 2.14904e-18 0)
(-1 -1.02951e-17 0)
(-1 1.10007e-17 0)
(-1 4.68513e-14 0)
(-1 -2.41303e-15 0)
(-1 -1.01713e-14 0)
(-1 1.95471e-17 0)
(-1 2.46501e-15 0)
(-1 4.6424e-17 0)
(-1 -4.80849e-16 0)
(-1 7.16798e-17 0)
(-1 2.0177e-16 0)
(-1 8.85975e-17 0)
(-1 1.15149e-16 0)
(-1 5.37515e-17 0)
(-1 2.03947e-16 0)
(-1 1.15906e-16 0)
(-1 1.68002e-16 0)
(-1 1.06659e-16 0)
(-1 1.05146e-16 0)
(-1 5.30869e-17 0)
(-1 3.49641e-17 0)
(-1 5.72413e-17 0)
(-1 1.37949e-17 0)
(-1 6.6998e-17 0)
(-1 7.76796e-18 0)
(-1 8.63214e-17 0)
(-1 -4.42019e-17 0)
(-1 1.89004e-17 0)
(-1 -7.22715e-17 0)
(-1 -2.87369e-17 0)
(-1 -6.34341e-17 0)
(-1 -6.46701e-17 0)
(-1 -6.39082e-17 0)
(-1 -5.93469e-17 0)
(-1 -7.32492e-17 0)
(-1 -6.44083e-17 0)
(-1 -3.69973e-17 0)
(-1 -3.88501e-18 0)
(-1 -1.44352e-18 0)
(-1 1.16271e-17 0)
(-1 -2.84078e-18 0)
(-1 -4.92448e-14 0)
(-1 -2.0104e-14 0)
(-1 1.02373e-14 0)
(-1 4.40104e-15 0)
(-1 -2.3469e-15 0)
(-1 -9.54674e-16 0)
(-1 6.41126e-16 0)
(-1 2.75896e-16 0)
(-1 -5.94214e-17 0)
(-1 -1.00621e-16 0)
(-1 5.45082e-17 0)
(-1 -3.88455e-17 0)
(-1 1.8619e-17 0)
(-1 -6.8058e-18 0)
(-1 -8.25519e-18 0)
(-1 8.95815e-18 0)
(-1 5.18223e-18 0)
(-1 3.47864e-17 0)
(-1 8.92752e-17 0)
(-1 4.25081e-17 0)
(-1 1.39524e-16 0)
(-1 7.83678e-17 0)
(-1 9.74539e-17 0)
(-1 5.96229e-17 0)
(-1 3.43654e-17 0)
(-1 3.0827e-17 0)
(-1 -2.11356e-17 0)
(-1 2.6519e-17 0)
(-1 -6.0583e-17 0)
(-1 1.79052e-18 0)
(-1 -5.98469e-17 0)
(-1 1.93565e-17 0)
(-1 4.95589e-18 0)
(-1 4.22436e-17 0)
(-1 4.47394e-17 0)
(-1 8.57829e-17 0)
(-1 1.02298e-17 0)
(-1 2.02063e-17 0)
(-1 -2.58438e-18 0)
(-1 3.35418e-14 0)
(-1 4.24217e-14 0)
(-1 -6.79093e-15 0)
(-1 -8.76986e-15 0)
(-1 1.66813e-15 0)
(-1 2.12023e-15 0)
(-1 -4.65851e-16 0)
(-1 -4.90394e-16 0)
(-1 -8.00449e-17 0)
(-1 -3.00131e-17 0)
(-1 -1.00159e-16 0)
(-1 -7.98239e-17 0)
(-1 -1.64667e-17 0)
(-1 -3.16673e-17 0)
(-1 5.19997e-17 0)
(-1 -4.78015e-17 0)
(-1 7.21122e-17 0)
(-1 -2.39762e-17 0)
(-1 3.16007e-17 0)
(-1 -7.06576e-17 0)
(-1 -1.53372e-18 0)
(-1 -1.00245e-16 0)
(-1 -7.00392e-18 0)
(-1 -1.12416e-16 0)
(-1 2.29806e-17 0)
(-1 -5.12065e-17 0)
(-1 4.94451e-17 0)
(-1 -2.31054e-17 0)
(-1 8.173e-17 0)
(-1 8.57241e-18 0)
(-1 1.21447e-16 0)
(-1 7.17494e-17 0)
(-1 1.23071e-16 0)
(-1 1.17257e-16 0)
(-1 6.12498e-17 0)
(-1 7.55349e-17 0)
(-1 7.39207e-18 0)
(-1 2.66568e-17 0)
(-1 -3.77113e-18 0)
(-1 1.09993e-16 0)
(-1 -4.96099e-14 0)
(-1 1.41302e-16 0)
(-1 1.08307e-14 0)
(-1 -3.82864e-17 0)
(-1 -2.52415e-15 0)
(-1 -5.45559e-17 0)
(-1 5.11271e-16 0)
(-1 -2.97921e-17 0)
(-1 -1.58833e-16 0)
(-1 -1.13318e-17 0)
(-1 -1.63302e-17 0)
(-1 -6.30021e-17 0)
(-1 -1.26515e-16 0)
(-1 -1.23777e-16 0)
(-1 -1.48088e-16 0)
(-1 -1.66746e-16 0)
(-1 -1.99072e-16 0)
(-1 -2.02504e-16 0)
(-1 -1.46677e-16 0)
(-1 -2.11128e-16 0)
(-1 -1.17082e-16 0)
(-1 -1.56619e-16 0)
(-1 -1.15525e-16 0)
(-1 -9.72926e-17 0)
(-1 -1.04865e-16 0)
(-1 -6.39781e-17 0)
(-1 -1.19372e-16 0)
(-1 -1.40814e-18 0)
(-1 -4.4128e-17 0)
(-1 6.75591e-17 0)
(-1 3.52358e-17 0)
(-1 6.9721e-17 0)
(-1 8.15027e-17 0)
(-1 4.09419e-17 0)
(-1 6.27751e-17 0)
(-1 1.54936e-17 0)
(-1 2.80317e-17 0)
(-1 -6.42493e-18 0)
(-1 -3.88892e-14 0)
(-1 2.64213e-14 0)
(-1 8.16521e-15 0)
(-1 -5.86085e-15 0)
(-1 -1.9746e-15 0)
(-1 1.28623e-15 0)
(-1 4.06994e-16 0)
(-1 -3.35425e-16 0)
(-1 -1.45371e-16 0)
(-1 8.6013e-17 0)
(-1 -1.31513e-16 0)
(-1 -8.08061e-18 0)
(-1 -2.116e-16 0)
(-1 -1.02475e-16 0)
(-1 -2.23383e-16 0)
(-1 -1.22938e-16 0)
(-1 -1.79003e-16 0)
(-1 -1.80747e-16 0)
(-1 -6.12556e-17 0)
(-1 -9.81327e-17 0)
(-1 -2.14795e-17 0)
(-1 -2.56422e-17 0)
(-1 -6.37713e-17 0)
(-1 -2.35385e-17 0)
(-1 -1.26944e-16 0)
(-1 -7.77565e-17 0)
(-1 -9.95219e-17 0)
(-1 -1.14e-16 0)
(-1 -7.48402e-18 0)
(-1 1.03866e-17 0)
(-1 4.91794e-17 0)
(-1 3.791e-17 0)
(-1 7.45568e-17 0)
(-1 3.31992e-17 0)
(-1 4.98649e-17 0)
(-1 4.31798e-17 0)
(-1 6.11316e-18 0)
(-1 1.7507e-17 0)
(-1 2.00598e-17 0)
(-1 5.94496e-14 0)
(-1 2.99777e-14 0)
(-1 -1.27398e-14 0)
(-1 -6.7868e-15 0)
(-1 2.9254e-15 0)
(-1 1.55173e-15 0)
(-1 -6.56406e-16 0)
(-1 -2.94045e-16 0)
(-1 2.23304e-16 0)
(-1 2.13979e-16 0)
(-1 2.09575e-17 0)
(-1 5.55292e-17 0)
(-1 -1.38123e-17 0)
(-1 -1.70121e-17 0)
(-1 -8.03019e-17 0)
(-1 -5.33605e-17 0)
(-1 -9.9876e-17 0)
(-1 -4.92161e-17 0)
(-1 -6.25192e-17 0)
(-1 -4.86129e-17 0)
(-1 -2.77011e-17 0)
(-1 -3.14729e-17 0)
(-1 -3.75236e-17 0)
(-1 -2.03978e-17 0)
(-1 -6.48123e-17 0)
(-1 -2.02835e-17 0)
(-1 -4.09149e-18 0)
(-1 -2.85077e-17 0)
(-1 5.57807e-17 0)
(-1 -1.43187e-17 0)
(-1 2.19298e-17 0)
(-1 -6.24346e-17 0)
(-1 1.82219e-18 0)
(-1 -9.28287e-17 0)
(-1 1.0822e-17 0)
(-1 -6.14201e-17 0)
(-1 3.14537e-17 0)
(-1 -1.04138e-18 0)
(-1 2.16601e-17 0)
(-1 -3.62587e-14 0)
(-1 -6.56223e-14 0)
(-1 7.50477e-15 0)
(-1 1.4122e-14 0)
(-1 -1.66772e-15 0)
(-1 -3.22384e-15 0)
(-1 5.76339e-16 0)
(-1 8.31899e-16 0)
(-1 4.62044e-17 0)
(-1 -1.17484e-16 0)
(-1 1.75595e-17 0)
(-1 -9.56005e-17 0)
(-1 -5.65603e-17 0)
(-1 -1.39878e-16 0)
(-1 -2.22748e-17 0)
(-1 -5.67094e-17 0)
(-1 2.04698e-18 0)
(-1 9.90871e-17 0)
(-1 -1.75665e-17 0)
(-1 1.36977e-16 0)
(-1 -2.41696e-17 0)
(-1 1.01595e-16 0)
(-1 -3.15774e-18 0)
(-1 6.44308e-17 0)
(-1 1.60211e-17 0)
(-1 2.93815e-17 0)
(-1 -3.87349e-17 0)
(-1 2.18044e-18 0)
(-1 -1.32534e-16 0)
(-1 -1.6388e-16 0)
(-1 -1.77193e-16 0)
(-1 -2.27635e-16 0)
(-1 -1.56071e-16 0)
(-1 -2.19978e-16 0)
(-1 -7.32834e-17 0)
(-1 -1.26392e-16 0)
(-1 -1.0835e-17 0)
(-1 1.91031e-17 0)
(-1 -1.5769e-18 0)
(-1 -1.52416e-14 0)
(-1 4.33512e-14 0)
(-1 3.39339e-15 0)
(-1 -9.1639e-15 0)
(-1 -7.24227e-16 0)
(-1 2.21977e-15 0)
(-1 1.38075e-16 0)
(-1 -5.05805e-16 0)
(-1 -2.59289e-16 0)
(-1 -6.48729e-17 0)
(-1 -2.53038e-16 0)
(-1 -2.25049e-16 0)
(-1 -1.40027e-16 0)
(-1 -1.14197e-16 0)
(-1 6.46525e-17 0)
(-1 -5.23204e-17 0)
(-1 2.34017e-16 0)
(-1 9.00214e-17 0)
(-1 2.56139e-16 0)
(-1 1.57864e-16 0)
(-1 1.90196e-16 0)
(-1 1.48522e-16 0)
(-1 9.697e-17 0)
(-1 9.33234e-17 0)
(-1 1.55408e-17 0)
(-1 1.04051e-18 0)
(-1 -1.22965e-16 0)
(-1 -2.21441e-17 0)
(-1 -2.58981e-16 0)
(-1 -1.30177e-16 0)
(-1 -2.7042e-16 0)
(-1 -1.66569e-16 0)
(-1 -1.90299e-16 0)
(-1 -1.4387e-16 0)
(-1 -3.40052e-17 0)
(-1 -5.12685e-17 0)
(-1 2.83612e-17 0)
(-1 7.60599e-17 0)
(-1 5.0712e-18 0)
(-1 4.94289e-14 0)
(-1 3.87327e-14 0)
(-1 -1.03375e-14 0)
(-1 -8.39506e-15 0)
(-1 2.43819e-15 0)
(-1 1.95543e-15 0)
(-1 -7.08753e-16 0)
(-1 -5.45382e-16 0)
(-1 -3.06324e-17 0)
(-1 -5.64075e-18 0)
(-1 -8.62077e-17 0)
(-1 -5.88417e-17 0)
(-1 -2.64903e-17 0)
(-1 -1.46332e-17 0)
(-1 -2.69515e-17 0)
(-1 -6.97322e-17 0)
(-1 1.38688e-17 0)
(-1 -8.78681e-17 0)
(-1 5.02479e-17 0)
(-1 -8.43503e-17 0)
(-1 5.165e-17 0)
(-1 -3.6394e-17 0)
(-1 -2.60608e-18 0)
(-1 -4.57416e-17 0)
(-1 -3.66443e-17 0)
(-1 -5.14085e-17 0)
(-1 -2.93567e-17 0)
(-1 -2.21366e-17 0)
(-1 -3.77649e-17 0)
(-1 1.91263e-17 0)
(-1 -4.00185e-17 0)
(-1 4.86874e-19 0)
(-1 -4.83955e-18 0)
(-1 2.56632e-17 0)
(-1 5.87966e-17 0)
(-1 1.86101e-17 0)
(-1 5.27699e-17 0)
(-1 -1.08154e-17 0)
(-1 -2.28268e-17 0)
(-1 -1.90912e-14 0)
(-1 -6.72715e-14 0)
(-1 3.8979e-15 0)
(-1 1.43779e-14 0)
(-1 -1.02814e-15 0)
(-1 -3.55076e-15 0)
(-1 1.5773e-16 0)
(-1 6.72424e-16 0)
(-1 -3.38501e-17 0)
(-1 -1.4212e-16 0)
(-1 1.27328e-17 0)
(-1 5.68983e-17 0)
(-1 -5.78751e-17 0)
(-1 -2.14768e-17 0)
(-1 -1.30649e-16 0)
(-1 -6.05343e-17 0)
(-1 -1.86087e-16 0)
(-1 -1.27179e-16 0)
(-1 -1.70992e-16 0)
(-1 -1.38167e-16 0)
(-1 -1.33786e-16 0)
(-1 -7.88525e-17 0)
(-1 -9.4544e-17 0)
(-1 -7.06223e-17 0)
(-1 -3.69008e-17 0)
(-1 -3.63791e-17 0)
(-1 2.63464e-17 0)
(-1 -3.11747e-17 0)
(-1 5.73781e-17 0)
(-1 -2.64219e-18 0)
(-1 6.61686e-17 0)
(-1 -9.8919e-18 0)
(-1 4.91129e-17 0)
(-1 2.49821e-17 0)
(-1 -5.10018e-17 0)
(-1 -1.06925e-17 0)
(-1 -8.64121e-17 0)
(-1 -1.15408e-16 0)
(-1 -4.18973e-17 0)
(-1 -3.38023e-14 0)
(-1 6.92927e-15 0)
(-1 -1.85019e-15 0)
(-1 3.72573e-16 0)
(-1 -5.13717e-17 0)
(-1 2.26887e-17 0)
(-1 -2.4136e-17 0)
(-1 -5.70645e-17 0)
(-1 -7.92592e-17 0)
(-1 -4.60276e-17 0)
(-1 -1.56893e-17 0)
(-1 -1.24574e-17 0)
(-1 -3.0653e-17 0)
(-1 -6.01633e-17 0)
(-1 -6.99122e-17 0)
(-1 -5.10784e-17 0)
(-1 -3.48233e-17 0)
(-1 -7.50991e-17 0)
(-1 -7.08936e-17 0)
)
;

boundaryField
{
    movingWall
    {
        type            calculated;
        value           uniform (-1 -0 -0);
    }
    fixedWalls
    {
        type            calculated;
        value           uniform (-1 -0 -0);
    }
    frontAndBack
    {
        type            empty;
    }
}


// ************************************************************************* //
