/*--------------------------------*- C++ -*----------------------------------*\
| =========                 |                                                 |
| \\      /  F ield         | OpenFOAM: The Open Source CFD Toolbox           |
|  \\    /   O peration     | Version:  2506                                  |
|   \\  /    A nd           | Website:  www.openfoam.com                      |
|    \\/     M anipulation  |                                                 |
\*---------------------------------------------------------------------------*/
FoamFile
{
    version     2.0;
    format      ascii;
    arch        "LSB;label=32;scalar=64";
    class       surfaceScalarField;
    location    "9";
    object      surfaceDivU;
}
// * * * * * * * * * * * * * * * * * * * * * * * * * * * * * * * * * * * * * //

dimensions      [0 0 -1 0 0 0 0];

internalField   nonuniform List<scalar> 
760
(
6.72072e-12
-5.61075e-12
-7.51213e-13
8.30029e-13
1.29239e-13
-2.07454e-13
-4.72924e-14
8.01471e-14
-5.21063e-16
2.18995e-14
-2.75613e-14
-1.28431e-14
5.14379e-15
-2.09808e-14
6.95584e-15
8.45277e-15
5.62069e-15
-2.61659e-15
9.45145e-15
-2.41466e-14
-2.18212e-14
1.08197e-14
-1.56063e-14
2.98396e-15
1.39927e-14
1.65604e-14
-6.65795e-15
1.90626e-15
-2.49319e-15
-9.56516e-15
1.76111e-14
-1.0655e-15
6.2163e-15
4.3337e-15
6.50325e-15
-2.32195e-14
-6.72869e-15
-8.46079e-15
1.35525e-14
-1.15014e-11
-9.44611e-12
1.37379e-12
1.19916e-12
-2.56546e-13
-3.13973e-13
1.49339e-13
1.04173e-13
9.57747e-15
4.34102e-15
-6.26259e-15
-4.09018e-15
-1.76718e-14
-2.55454e-14
-1.11966e-15
1.80771e-15
-3.23839e-14
2.13196e-14
-2.27783e-14
-3.13412e-14
3.56248e-14
-1.39486e-14
3.51507e-14
8.52022e-15
4.47398e-15
3.91063e-16
-1.00094e-15
4.74191e-15
-8.13747e-15
1.44505e-15
-1.43429e-14
-9.73964e-15
-2.51021e-14
5.71209e-15
-3.81835e-14
7.96645e-15
1.18204e-14
-4.99939e-14
4.06576e-14
3.25449e-12
9.79848e-12
-4.88596e-13
-1.19339e-12
4.6746e-14
2.17776e-13
-4.0825e-14
-1.10345e-13
-9.32664e-15
1.52544e-14
-2.3373e-14
-1.72361e-14
-6.06589e-15
5.62722e-15
2.4247e-14
1.1493e-15
2.23623e-14
1.11834e-14
-2.25114e-14
3.13691e-15
-4.10532e-14
-2.57338e-14
-2.62394e-14
-1.01639e-14
6.58995e-16
1.83004e-15
7.1879e-15
2.54271e-15
-1.57117e-16
-3.40836e-15
1.03154e-14
-4.17671e-15
3.87806e-14
-1.20124e-14
-3.84394e-15
4.32282e-14
-2.11568e-14
-2.461e-14
2.8399e-29
5.3506e-12
-2.3988e-12
-4.87017e-13
2.28562e-13
6.06845e-14
-3.34342e-14
-5.42658e-14
1.64656e-14
7.345e-15
-3.28168e-15
1.17642e-14
-1.86891e-14
1.28424e-14
2.8716e-14
-1.19143e-14
8.4287e-16
-8.04203e-15
-2.3245e-14
-8.54453e-17
1.95349e-14
5.1555e-15
-1.91427e-14
1.79055e-14
2.06128e-15
3.71376e-15
-2.10798e-15
-8.05354e-15
-1.12862e-14
-7.42796e-15
1.74438e-14
-2.65045e-14
6.55893e-15
-7.56483e-15
-3.08303e-14
2.24622e-14
1.4049e-14
-3.45323e-15
2.31607e-14
-1.35525e-14
-7.52083e-12
-2.83248e-12
6.82146e-13
4.05292e-13
-7.76531e-14
-7.38453e-14
6.74497e-14
3.0432e-14
-2.93158e-14
-1.90212e-14
-1.73735e-15
-1.17705e-14
1.67164e-14
1.52568e-14
-1.04878e-14
-9.46439e-15
4.33194e-15
-1.50678e-14
4.77667e-16
4.19298e-14
-2.22369e-14
-3.58105e-14
-1.79522e-14
-2.11512e-14
-1.7108e-14
5.85973e-15
1.42111e-14
-6.05831e-15
3.14307e-14
2.34808e-14
2.23316e-15
1.78478e-14
-9.21647e-15
-1.41598e-14
1.47476e-14
-5.72432e-15
1.30614e-14
9.65243e-15
0
5.09365e-12
7.80626e-12
-3.50699e-13
-9.13036e-13
3.42398e-14
2.01615e-13
-5.60389e-14
-8.08628e-14
-1.47588e-15
1.3733e-14
5.22358e-15
-2.50439e-14
-1.09241e-14
1.55298e-14
-1.40444e-14
-3.88157e-15
2.253e-14
1.63485e-14
5.64156e-15
1.67469e-14
-3.47249e-14
-4.81758e-14
2.66075e-15
-8.28293e-15
1.69094e-14
-4.21507e-15
3.21144e-15
4.18657e-15
9.89793e-15
9.16576e-15
1.45481e-15
1.19302e-14
-1.06677e-14
-2.04794e-14
-1.08195e-14
1.53493e-14
-3.409e-15
-8.65988e-15
0
1.79957e-12
-6.38324e-12
-3.60722e-13
6.92569e-13
8.65125e-14
-1.25076e-13
-1.10909e-14
5.56263e-14
-9.83507e-15
-1.11673e-14
-1.47377e-14
-1.23807e-14
2.25723e-14
7.14748e-15
2.65113e-14
-2.813e-14
1.05654e-14
1.0928e-14
-3.70705e-14
1.45879e-14
-2.17338e-14
-3.22892e-14
-1.51587e-14
1.06091e-14
-1.69379e-14
-1.27869e-14
1.01409e-14
1.10804e-14
1.1198e-14
3.16313e-15
-1.0004e-14
-1.13758e-14
5.53762e-15
-2.29541e-14
1.75089e-14
3.29924e-14
-5.25088e-15
5.09896e-15
-1.35525e-14
-7.49025e-12
-7.72494e-13
9.28215e-13
-5.37453e-14
-1.55962e-13
2.15602e-15
5.555e-14
-1.46113e-14
-1.37129e-14
-8.65926e-15
9.50443e-15
1.58975e-14
-4.35548e-14
1.26729e-14
-4.37133e-14
-1.97784e-14
1.49505e-14
3.10859e-15
1.93691e-14
2.58065e-14
5.37534e-17
-1.44e-14
1.29809e-14
-8.42473e-15
1.52314e-14
6.84962e-15
4.10266e-15
9.60301e-15
-1.94107e-14
2.73566e-15
-2.43259e-14
-1.61088e-14
4.5007e-15
-1.88004e-14
2.05825e-14
-2.91302e-15
-3.20269e-15
9.32033e-15
-1.35525e-14
6.66401e-12
4.8518e-12
-9.79804e-13
-6.79509e-13
1.43507e-13
1.2643e-13
-7.88206e-14
-7.95335e-14
2.09511e-14
1.67406e-14
1.90659e-14
4.89291e-15
3.64493e-14
1.75862e-14
2.70434e-14
1.40145e-14
1.39646e-14
1.89848e-15
-7.96265e-15
9.54637e-15
-2.28785e-14
-5.08509e-15
-1.4556e-14
-2.46147e-15
1.22125e-15
-1.57236e-15
8.23602e-15
1.53625e-14
6.03749e-15
1.06379e-14
-1.05834e-14
-1.70021e-14
-2.62142e-14
-5.95681e-15
-1.41752e-14
1.83801e-17
-1.02951e-15
1.36857e-14
-1.35525e-14
-2.49171e-12
-4.94667e-12
4.26725e-13
1.06547e-12
-9.66098e-14
-1.45035e-13
1.60277e-14
3.47576e-14
6.82371e-16
-2.83074e-14
3.41323e-15
1.4906e-15
-4.8485e-15
1.091e-14
-1.11304e-14
-1.99077e-15
-2.51971e-15
-4.7652e-15
1.24239e-14
2.35275e-14
1.53319e-14
9.84051e-16
1.05222e-14
1.04191e-15
1.25689e-14
-8.57979e-15
1.77643e-14
1.33307e-14
-1.24017e-14
7.26456e-15
-1.23755e-14
-1.75516e-14
2.02757e-14
-2.21647e-15
2.78793e-14
8.18979e-15
1.16271e-15
1.67359e-14
-1.35525e-14
-1.38949e-12
4.8247e-12
4.93714e-13
-1.30424e-12
-1.36677e-14
3.06291e-13
-9.57752e-15
-1.2987e-13
-2.74992e-14
1.40417e-14
8.9874e-15
-1.18669e-14
1.37678e-14
9.70521e-15
4.37445e-15
-3.88433e-15
2.1282e-14
1.08101e-15
1.20876e-14
1.07376e-14
-1.3306e-14
-1.57403e-14
-1.80601e-14
2.18257e-14
-7.81793e-15
-2.03795e-15
2.83095e-15
3.41354e-16
2.1147e-15
1.03629e-15
-7.39252e-15
9.11059e-15
-1.43024e-14
-2.47075e-14
-2.95361e-15
-1.09733e-14
2.02063e-15
1.82388e-14
-1.35525e-14
4.90994e-12
-3.08998e-12
-1.49167e-12
6.12656e-13
1.90089e-13
-1.21707e-13
-1.06251e-13
5.62978e-14
2.96739e-14
-3.24371e-14
-1.11491e-14
3.93712e-15
-7.94688e-15
1.12868e-14
-7.17777e-15
-4.6694e-14
-9.46339e-15
3.19053e-14
-1.70903e-14
5.37156e-15
1.93914e-14
-8.18023e-15
3.78479e-14
3.1416e-14
6.12133e-15
-1.56071e-14
-1.4533e-15
-1.42477e-14
8.03218e-15
9.99697e-15
-8.20444e-15
2.4251e-14
-2.13784e-14
-2.07816e-14
1.02192e-14
-1.32741e-14
2.66568e-15
1.90214e-14
-1.35525e-14
-7.38726e-12
-1.96512e-12
1.98262e-12
6.86716e-13
-2.55498e-13
-1.50898e-13
1.30111e-13
4.46896e-14
-5.81739e-14
-3.43871e-14
2.63731e-14
-2.44108e-15
-2.74603e-14
1.77586e-14
-7.61095e-15
-2.71025e-14
4.67402e-14
1.62282e-14
1.42816e-14
1.61766e-14
3.84433e-15
-7.19904e-16
-2.2039e-14
-3.53832e-16
-3.59762e-14
-4.7096e-15
-2.79747e-15
3.76785e-15
2.62158e-14
-3.37414e-15
1.16739e-14
7.31458e-15
-1.26773e-14
-1.56349e-14
-4.47185e-15
-2.95704e-15
2.80317e-15
1.81064e-14
-1.35525e-14
6.10886e-12
7.63007e-12
-1.4468e-12
-1.1699e-12
1.4929e-13
2.16033e-13
-1.19809e-13
-1.03605e-13
2.13458e-14
1.64467e-14
-1.10556e-14
-8.80767e-15
1.81163e-14
-1.19487e-14
-3.26339e-15
2.30278e-14
-1.43354e-14
-2.29963e-14
1.17504e-15
1.24305e-14
-4.91807e-15
-5.71151e-15
1.69756e-14
9.1589e-15
3.50345e-14
3.08536e-14
3.19119e-15
1.28543e-14
-2.22754e-14
-1.39457e-14
-1.99941e-14
-1.6005e-14
-5.91463e-15
-1.95155e-14
1.96212e-14
3.88336e-14
1.7507e-15
2.87516e-14
-2.71051e-14
3.51313e-13
-8.89046e-12
4.92933e-13
1.49246e-12
-3.68619e-14
-2.48526e-13
3.26509e-14
1.07995e-13
-1.37068e-14
-5.81132e-14
-9.70082e-15
2.30979e-14
-7.03727e-15
-2.13648e-15
3.29486e-15
-1.1007e-14
3.76962e-15
-8.56543e-15
5.54395e-15
-4.71613e-15
8.36546e-15
-3.36453e-14
2.30369e-14
1.79558e-14
8.67341e-15
4.15674e-14
-4.28264e-15
-2.97378e-14
-7.67534e-15
9.28517e-15
-1.55263e-14
1.16506e-14
2.52327e-14
-4.48332e-14
4.7964e-14
4.89815e-14
-1.04138e-16
1.53587e-14
-1.35525e-14
-7.74931e-12
1.53144e-12
7.51003e-13
-4.52867e-13
-1.03669e-13
1.0288e-13
1.72313e-14
-4.87058e-14
-2.13085e-14
-3.17882e-14
3.06623e-14
3.56977e-14
-6.10621e-15
1.52501e-14
-2.28673e-14
-2.44555e-14
-1.70512e-14
-8.1942e-15
-4.39054e-14
2.37907e-15
-2.4055e-14
-2.91983e-14
3.64863e-14
2.22289e-15
3.15619e-15
3.01473e-14
-1.617e-14
-2.91014e-14
2.86111e-14
1.12518e-14
-1.76563e-14
2.83422e-14
-2.10845e-14
-2.28323e-14
1.63762e-14
2.28916e-14
1.91031e-15
-4.03623e-15
-1.35525e-14
8.82788e-12
9.3919e-12
-1.10099e-12
-9.15639e-13
1.57843e-13
1.73574e-13
-9.77254e-14
-6.44612e-14
2.52179e-14
6.50117e-15
2.02855e-14
1.22685e-14
-3.0992e-15
6.69519e-16
-9.78243e-15
-1.22053e-14
1.12361e-14
-2.68897e-14
1.70861e-14
3.44565e-14
-2.92049e-15
1.12128e-14
-4.11614e-15
-8.79434e-15
-2.11036e-15
8.51573e-15
-1.67962e-15
9.12446e-15
1.0983e-14
-1.11051e-14
2.31662e-14
1.04969e-14
2.11437e-14
1.73185e-15
2.47914e-15
-1.68184e-14
-1.94991e-14
6.52445e-15
-1.35525e-14
-3.51615e-13
-1.02051e-11
3.58924e-13
1.18105e-12
-4.87307e-14
-2.54401e-13
3.97654e-14
1.07572e-13
-6.44825e-15
-2.83286e-14
-7.34749e-15
-1.94346e-16
-8.43654e-15
9.94153e-15
-2.93126e-14
-1.30266e-14
-3.66932e-15
-7.95219e-15
2.85831e-14
1.84058e-14
5.33897e-15
2.02787e-15
3.83752e-15
-1.16364e-14
1.97505e-14
-8.77876e-15
-3.01031e-16
8.2214e-15
-1.15912e-14
1.64841e-15
-1.09375e-14
-9.40502e-16
-3.62302e-14
-8.488e-15
-1.2773e-14
7.91766e-16
1.2471e-14
1.44827e-14
-1.35525e-14
-8.67239e-12
-3.17129e-12
5.67721e-13
5.54348e-14
-9.80981e-14
-1.62626e-14
3.94778e-14
-5.20277e-16
-2.20747e-14
-1.4212e-14
1.70947e-14
5.68983e-15
5.35142e-15
-2.14768e-15
8.33372e-15
7.4991e-15
1.41229e-14
8.3462e-16
-8.14946e-15
-2.6421e-16
-1.49475e-14
5.66728e-15
-2.42527e-14
6.49029e-15
-2.03079e-14
-1.71904e-14
1.01708e-14
-3.11747e-15
1.22991e-14
1.32883e-14
1.50902e-15
-9.8919e-16
2.8534e-14
2.49821e-15
2.80475e-14
2.60358e-14
-1.15408e-14
2.01169e-15
-2.71051e-14
5.55654e-12
-5.28549e-13
8.13152e-14
-5.42101e-14
1.35525e-14
-1.35525e-14
-6.31089e-30
-8.20415e-29
-1.35525e-14
1.35525e-14
2.71051e-14
1.35525e-14
0
0
0
0
0
0
-1.35525e-14
)
;

boundaryField
{
    movingWall
    {
        type            calculated;
        value           nonuniform List<scalar> 
20
(
1.24683e-11
-1.35525e-12
2.98156e-13
-1.35525e-13
2.71051e-14
0
-2.71051e-14
2.71051e-14
-2.71051e-14
0
2.71051e-14
2.71051e-14
0
0
0
0
0
0
0
-2.71051e-14
)
;
    }
    fixedWalls
    {
        type            calculated;
        value           nonuniform List<scalar> 
60
(
1.53415e-11
-2.6563e-11
7.67073e-12
1.19262e-11
-1.67238e-11
1.10589e-11
4.55365e-12
-1.73201e-11
1.57751e-11
-6.07153e-12
-3.82181e-12
1.34712e-11
-1.96512e-11
1.57209e-11
-4.60786e-13
-1.73201e-11
2.0383e-11
-1.5992e-12
-1.88109e-11
1.24683e-11
-2.71051e-14
5.42101e-14
2.71051e-14
-2.71051e-14
0
0
0
-2.71051e-14
0
-2.71051e-14
0
-2.71051e-14
0
-2.71051e-14
-2.71051e-14
0
-2.71051e-14
0
-2.71051e-14
-2.71051e-14
1.53415e-11
-1.90002e-12
3.97595e-13
-1.39116e-13
4.45316e-14
-4.55737e-14
-9.54887e-15
1.98365e-14
-5.92478e-15
1.71662e-14
1.73673e-15
-4.53791e-14
1.41664e-14
1.3819e-14
-2.71349e-14
2.21485e-14
1.30738e-14
-6.41165e-16
1.36477e-14
-2.71051e-14
)
;
    }
    frontAndBack
    {
        type            empty;
    }
}


// ************************************************************************* //
