/*--------------------------------*- C++ -*----------------------------------*\
| =========                 |                                                 |
| \\      /  F ield         | OpenFOAM: The Open Source CFD Toolbox           |
|  \\    /   O peration     | Version:  2506                                  |
|   \\  /    A nd           | Website:  www.openfoam.com                      |
|    \\/     M anipulation  |                                                 |
\*---------------------------------------------------------------------------*/
FoamFile
{
    version     2.0;
    format      ascii;
    arch        "LSB;label=32;scalar=64";
    class       volSymmTensorField;
    location    "9";
    object      turbulenceProperties:R;
}
// * * * * * * * * * * * * * * * * * * * * * * * * * * * * * * * * * * * * * //

dimensions      [0 2 -2 0 0 0 0];

internalField   nonuniform List<symmTensor> 
400
(
(2.04223e-06 -1.27076e-17 -0 2.04223e-06 -0 2.04223e-06)
(2.04223e-06 1.43836e-17 -0 2.04223e-06 -0 2.04223e-06)
(2.04222e-06 -3.04407e-18 -0 2.04222e-06 -0 2.04222e-06)
(2.04222e-06 7.45898e-19 -0 2.04222e-06 -0 2.04222e-06)
(2.04222e-06 -2.36663e-19 -0 2.04222e-06 -0 2.04222e-06)
(2.04222e-06 -2.0647e-20 -0 2.04222e-06 -0 2.04222e-06)
(2.04222e-06 -8.00593e-21 -0 2.04222e-06 -0 2.04222e-06)
(2.04222e-06 5.12378e-20 -0 2.04222e-06 -0 2.04222e-06)
(2.04222e-06 -4.56857e-21 -0 2.04222e-06 -0 2.04222e-06)
(2.04222e-06 3.46476e-20 -0 2.04222e-06 -0 2.04222e-06)
(2.04222e-06 3.87207e-20 -0 2.04222e-06 -0 2.04222e-06)
(2.04222e-06 6.92842e-20 -0 2.04222e-06 -0 2.04222e-06)
(2.04222e-06 8.66288e-20 -0 2.04222e-06 -0 2.04222e-06)
(2.04222e-06 2.40314e-20 -0 2.04222e-06 -0 2.04222e-06)
(2.04222e-06 1.04053e-20 -0 2.04222e-06 -0 2.04222e-06)
(2.04222e-06 -3.09804e-20 -0 2.04222e-06 -0 2.04222e-06)
(2.04222e-06 -4.36141e-20 -0 2.04222e-06 -0 2.04222e-06)
(2.04222e-06 -1.92071e-20 -0 2.04222e-06 -0 2.04222e-06)
(2.04222e-06 4.58186e-20 -0 2.04222e-06 -0 2.04222e-06)
(2.04222e-06 1.3799e-20 -0 2.04222e-06 -0 2.04222e-06)
(2.07306e-06 -1.7308e-18 -0 2.07306e-06 -0 2.07306e-06)
(2.07306e-06 1.40746e-18 -0 2.07306e-06 -0 2.07306e-06)
(2.07301e-06 -9.29226e-20 -0 2.07301e-06 -0 2.07301e-06)
(2.07299e-06 1.3411e-19 -0 2.07299e-06 -0 2.07299e-06)
(2.07296e-06 1.20251e-19 -0 2.07296e-06 -0 2.07296e-06)
(2.07294e-06 1.01821e-19 -0 2.07294e-06 -0 2.07294e-06)
(2.07292e-06 7.7898e-20 -0 2.07292e-06 -0 2.07292e-06)
(2.0729e-06 2.5305e-20 -0 2.0729e-06 -0 2.0729e-06)
(2.07288e-06 6.11677e-20 -0 2.07288e-06 -0 2.07288e-06)
(2.07286e-06 1.11429e-20 -0 2.07286e-06 -0 2.07286e-06)
(2.07285e-06 2.28921e-20 -0 2.07285e-06 -0 2.07285e-06)
(2.07283e-06 -1.75636e-21 -0 2.07283e-06 -0 2.07283e-06)
(2.07282e-06 1.49626e-20 -0 2.07282e-06 -0 2.07282e-06)
(2.07281e-06 1.66464e-20 -0 2.07281e-06 -0 2.07281e-06)
(2.0728e-06 -1.87598e-20 -0 2.0728e-06 -0 2.0728e-06)
(2.0728e-06 7.19737e-20 -0 2.0728e-06 -0 2.0728e-06)
(2.07279e-06 6.65451e-20 -0 2.07279e-06 -0 2.07279e-06)
(2.07279e-06 -8.00135e-21 -0 2.07279e-06 -0 2.07279e-06)
(2.07278e-06 -7.67324e-22 -0 2.07278e-06 -0 2.07278e-06)
(2.07278e-06 6.06606e-20 -0 2.07278e-06 -0 2.07278e-06)
(2.1226e-06 1.42818e-17 -0 2.1226e-06 -0 2.1226e-06)
(2.1226e-06 -1.38554e-17 -0 2.1226e-06 -0 2.1226e-06)
(2.12254e-06 2.67431e-18 -0 2.12254e-06 -0 2.12254e-06)
(2.12252e-06 -7.63432e-19 -0 2.12252e-06 -0 2.12252e-06)
(2.12248e-06 5.08223e-20 -0 2.12248e-06 -0 2.12248e-06)
(2.12247e-06 -9.84351e-20 -0 2.12247e-06 -0 2.12247e-06)
(2.12244e-06 -8.31493e-20 -0 2.12244e-06 -0 2.12244e-06)
(2.12242e-06 -1.13503e-19 -0 2.12242e-06 -0 2.12242e-06)
(2.1224e-06 -8.07953e-20 -0 2.1224e-06 -0 2.1224e-06)
(2.12238e-06 -8.50948e-20 -0 2.12238e-06 -0 2.12238e-06)
(2.12236e-06 -5.88199e-20 -0 2.12236e-06 -0 2.12236e-06)
(2.12235e-06 -5.17078e-20 -0 2.12235e-06 -0 2.12235e-06)
(2.12233e-06 -7.9727e-21 -0 2.12233e-06 -0 2.12233e-06)
(2.12233e-06 -5.86189e-21 -0 2.12233e-06 -0 2.12233e-06)
(2.12231e-06 3.32865e-20 -0 2.12231e-06 -0 2.12231e-06)
(2.12231e-06 -6.08964e-21 -0 2.12231e-06 -0 2.12231e-06)
(2.1223e-06 -1.86618e-20 -0 2.1223e-06 -0 2.1223e-06)
(2.1223e-06 7.15342e-21 -0 2.1223e-06 -0 2.1223e-06)
(2.1223e-06 -6.1518e-20 -0 2.1223e-06 -0 2.1223e-06)
(2.1223e-06 -2.12679e-20 -0 2.1223e-06 -0 2.1223e-06)
(2.17586e-06 -1.04786e-17 -0 2.17586e-06 -0 2.17586e-06)
(2.17587e-06 9.78443e-18 -0 2.17587e-06 -0 2.17587e-06)
(2.1758e-06 -2.0291e-18 -0 2.1758e-06 -0 2.1758e-06)
(2.17579e-06 4.25756e-19 -0 2.17579e-06 -0 2.17579e-06)
(2.17575e-06 -1.15774e-19 -0 2.17575e-06 -0 2.17575e-06)
(2.17573e-06 1.7694e-20 -0 2.17573e-06 -0 2.17573e-06)
(2.17569e-06 -3.40196e-20 -0 2.17569e-06 -0 2.17569e-06)
(2.17568e-06 2.55044e-20 -0 2.17568e-06 -0 2.17568e-06)
(2.17565e-06 2.83148e-21 -0 2.17565e-06 -0 2.17565e-06)
(2.17564e-06 3.95574e-20 -0 2.17564e-06 -0 2.17564e-06)
(2.17561e-06 1.45636e-20 -0 2.17561e-06 -0 2.17561e-06)
(2.17561e-06 -5.32823e-21 -0 2.17561e-06 -0 2.17561e-06)
(2.17559e-06 -4.65809e-20 -0 2.17559e-06 -0 2.17559e-06)
(2.17558e-06 -7.32489e-21 -0 2.17558e-06 -0 2.17558e-06)
(2.17556e-06 8.70718e-21 -0 2.17556e-06 -0 2.17556e-06)
(2.17556e-06 -7.00587e-20 -0 2.17556e-06 -0 2.17556e-06)
(2.17555e-06 -6.62703e-20 -0 2.17555e-06 -0 2.17555e-06)
(2.17555e-06 -3.25732e-21 -0 2.17555e-06 -0 2.17555e-06)
(2.17555e-06 -1.52246e-20 -0 2.17555e-06 -0 2.17555e-06)
(2.17555e-06 -7.33642e-20 -0 2.17555e-06 -0 2.17555e-06)
(2.2219e-06 6.52232e-19 -0 2.2219e-06 -0 2.2219e-06)
(2.2219e-06 -1.79045e-19 -0 2.2219e-06 -0 2.2219e-06)
(2.22184e-06 1.35029e-19 -0 2.22184e-06 -0 2.22184e-06)
(2.22182e-06 3.10356e-20 -0 2.22182e-06 -0 2.22182e-06)
(2.22178e-06 -1.01321e-20 -0 2.22178e-06 -0 2.22178e-06)
(2.22176e-06 9.57191e-22 -0 2.22176e-06 -0 2.22176e-06)
(2.22173e-06 -2.37038e-20 -0 2.22173e-06 -0 2.22173e-06)
(2.22171e-06 -2.69304e-21 -0 2.22171e-06 -0 2.22171e-06)
(2.22169e-06 4.49598e-20 -0 2.22169e-06 -0 2.22169e-06)
(2.22167e-06 5.51896e-20 -0 2.22167e-06 -0 2.22167e-06)
(2.22165e-06 5.8092e-20 -0 2.22165e-06 -0 2.22165e-06)
(2.22164e-06 9.05805e-20 -0 2.22164e-06 -0 2.22164e-06)
(2.22162e-06 2.05577e-20 -0 2.22162e-06 -0 2.22162e-06)
(2.22161e-06 3.73815e-21 -0 2.22161e-06 -0 2.22161e-06)
(2.22159e-06 -1.00817e-20 -0 2.22159e-06 -0 2.22159e-06)
(2.22159e-06 -2.90004e-20 -0 2.22159e-06 -0 2.22159e-06)
(2.22158e-06 -2.73405e-20 -0 2.22158e-06 -0 2.22158e-06)
(2.22158e-06 -2.69036e-21 -0 2.22158e-06 -0 2.22158e-06)
(2.22158e-06 5.47846e-20 -0 2.22158e-06 -0 2.22158e-06)
(2.22157e-06 -2.4546e-21 -0 2.22157e-06 -0 2.22157e-06)
(2.25642e-06 1.00395e-17 -0 2.25642e-06 -0 2.25642e-06)
(2.25642e-06 -9.77058e-18 -0 2.25642e-06 -0 2.25642e-06)
(2.25636e-06 2.12322e-18 -0 2.25636e-06 -0 2.25636e-06)
(2.25634e-06 -4.74317e-19 -0 2.25634e-06 -0 2.25634e-06)
(2.2563e-06 9.87083e-20 -0 2.2563e-06 -0 2.2563e-06)
(2.25628e-06 -3.01201e-20 -0 2.25628e-06 -0 2.25628e-06)
(2.25625e-06 -1.44394e-20 -0 2.25625e-06 -0 2.25625e-06)
(2.25622e-06 -5.33517e-20 -0 2.25622e-06 -0 2.25622e-06)
(2.2562e-06 -7.60507e-20 -0 2.2562e-06 -0 2.2562e-06)
(2.25618e-06 -1.03828e-19 -0 2.25618e-06 -0 2.25618e-06)
(2.25616e-06 -3.95616e-20 -0 2.25616e-06 -0 2.25616e-06)
(2.25614e-06 -4.40259e-20 -0 2.25614e-06 -0 2.25614e-06)
(2.25613e-06 5.57839e-21 -0 2.25613e-06 -0 2.25613e-06)
(2.25612e-06 -1.24827e-20 -0 2.25612e-06 -0 2.25612e-06)
(2.25611e-06 -2.5426e-20 -0 2.25611e-06 -0 2.25611e-06)
(2.2561e-06 3.3547e-20 -0 2.2561e-06 -0 2.2561e-06)
(2.25609e-06 2.32116e-20 -0 2.25609e-06 -0 2.25609e-06)
(2.25609e-06 9.19125e-21 -0 2.25609e-06 -0 2.25609e-06)
(2.25608e-06 5.80977e-21 -0 2.25608e-06 -0 2.25608e-06)
(2.25608e-06 -1.8073e-22 -0 2.25608e-06 -0 2.25608e-06)
(2.28e-06 -1.41488e-17 -0 2.28e-06 -0 2.28e-06)
(2.28e-06 1.3382e-17 -0 2.28e-06 -0 2.28e-06)
(2.27994e-06 -2.88338e-18 -0 2.27994e-06 -0 2.27994e-06)
(2.27992e-06 6.65699e-19 -0 2.27992e-06 -0 2.27992e-06)
(2.27987e-06 -4.33014e-20 -0 2.27987e-06 -0 2.27987e-06)
(2.27986e-06 7.2918e-20 -0 2.27986e-06 -0 2.27986e-06)
(2.27982e-06 1.0482e-19 -0 2.27982e-06 -0 2.27982e-06)
(2.2798e-06 8.84271e-20 -0 2.2798e-06 -0 2.2798e-06)
(2.27977e-06 1.13223e-19 -0 2.27977e-06 -0 2.27977e-06)
(2.27976e-06 1.11325e-19 -0 2.27976e-06 -0 2.27976e-06)
(2.27973e-06 9.56109e-20 -0 2.27973e-06 -0 2.27973e-06)
(2.27972e-06 7.92792e-20 -0 2.27972e-06 -0 2.27972e-06)
(2.2797e-06 7.75113e-20 -0 2.2797e-06 -0 2.2797e-06)
(2.27969e-06 6.9203e-20 -0 2.27969e-06 -0 2.27969e-06)
(2.27967e-06 6.79753e-20 -0 2.27967e-06 -0 2.27967e-06)
(2.27967e-06 6.82318e-20 -0 2.27967e-06 -0 2.27967e-06)
(2.27966e-06 8.61734e-20 -0 2.27966e-06 -0 2.27966e-06)
(2.27966e-06 1.9181e-20 -0 2.27966e-06 -0 2.27966e-06)
(2.27966e-06 9.6197e-21 -0 2.27966e-06 -0 2.27966e-06)
(2.27966e-06 -9.60632e-21 -0 2.27966e-06 -0 2.27966e-06)
(2.29534e-06 4.62046e-18 -0 2.29534e-06 -0 2.29534e-06)
(2.29534e-06 -4.89341e-18 -0 2.29534e-06 -0 2.29534e-06)
(2.29527e-06 9.00709e-19 -0 2.29527e-06 -0 2.29527e-06)
(2.29525e-06 -2.92342e-19 -0 2.29525e-06 -0 2.29525e-06)
(2.29521e-06 -4.44687e-20 -0 2.29521e-06 -0 2.29521e-06)
(2.29519e-06 -6.28855e-20 -0 2.29519e-06 -0 2.29519e-06)
(2.29515e-06 -6.97707e-20 -0 2.29515e-06 -0 2.29515e-06)
(2.29513e-06 -6.85951e-20 -0 2.29513e-06 -0 2.29513e-06)
(2.2951e-06 4.82362e-21 -0 2.2951e-06 -0 2.2951e-06)
(2.29509e-06 -1.20776e-20 -0 2.29509e-06 -0 2.29509e-06)
(2.29506e-06 -4.30224e-20 -0 2.29506e-06 -0 2.29506e-06)
(2.29505e-06 -3.66658e-20 -0 2.29505e-06 -0 2.29505e-06)
(2.29503e-06 -7.40595e-20 -0 2.29503e-06 -0 2.29503e-06)
(2.29502e-06 -6.93809e-20 -0 2.29502e-06 -0 2.29502e-06)
(2.29501e-06 -1.3911e-20 -0 2.29501e-06 -0 2.29501e-06)
(2.295e-06 -1.08995e-19 -0 2.295e-06 -0 2.295e-06)
(2.29499e-06 -3.41783e-20 -0 2.29499e-06 -0 2.29499e-06)
(2.29499e-06 -1.59553e-20 -0 2.29499e-06 -0 2.29499e-06)
(2.29499e-06 -1.59351e-20 -0 2.29499e-06 -0 2.29499e-06)
(2.29499e-06 -3.21998e-20 -0 2.29499e-06 -0 2.29499e-06)
(2.30532e-06 7.08919e-18 -0 2.30532e-06 -0 2.30532e-06)
(2.30532e-06 -6.84885e-18 -0 2.30532e-06 -0 2.30532e-06)
(2.30526e-06 1.52198e-18 -0 2.30526e-06 -0 2.30526e-06)
(2.30524e-06 -3.51626e-19 -0 2.30524e-06 -0 2.30524e-06)
(2.3052e-06 4.77201e-20 -0 2.3052e-06 -0 2.3052e-06)
(2.30517e-06 -7.11949e-20 -0 2.30517e-06 -0 2.30517e-06)
(2.30514e-06 -4.63071e-20 -0 2.30514e-06 -0 2.30514e-06)
(2.30511e-06 -4.46867e-20 -0 2.30511e-06 -0 2.30511e-06)
(2.30509e-06 -1.27843e-19 -0 2.30509e-06 -0 2.30509e-06)
(2.30507e-06 -5.39666e-20 -0 2.30507e-06 -0 2.30507e-06)
(2.30505e-06 -5.83412e-20 -0 2.30505e-06 -0 2.30505e-06)
(2.30503e-06 -4.70512e-20 -0 2.30503e-06 -0 2.30503e-06)
(2.30502e-06 -4.38684e-20 -0 2.30502e-06 -0 2.30502e-06)
(2.305e-06 -4.88658e-20 -0 2.305e-06 -0 2.305e-06)
(2.30499e-06 -1.06801e-19 -0 2.30499e-06 -0 2.30499e-06)
(2.30498e-06 -2.19893e-20 -0 2.30498e-06 -0 2.30498e-06)
(2.30498e-06 -8.24353e-20 -0 2.30498e-06 -0 2.30498e-06)
(2.30497e-06 -4.58062e-20 -0 2.30497e-06 -0 2.30497e-06)
(2.30497e-06 3.42158e-20 -0 2.30497e-06 -0 2.30497e-06)
(2.30497e-06 4.47677e-22 -0 2.30497e-06 -0 2.30497e-06)
(2.31223e-06 -1.07083e-17 -0 2.31223e-06 -0 2.31223e-06)
(2.31223e-06 1.25765e-17 -0 2.31223e-06 -0 2.31223e-06)
(2.31216e-06 -2.57807e-18 -0 2.31216e-06 -0 2.31216e-06)
(2.31214e-06 6.77847e-19 -0 2.31214e-06 -0 2.31214e-06)
(2.3121e-06 -8.66495e-20 -0 2.3121e-06 -0 2.3121e-06)
(2.31208e-06 7.52698e-20 -0 2.31208e-06 -0 2.31208e-06)
(2.31204e-06 -4.71676e-20 -0 2.31204e-06 -0 2.31204e-06)
(2.31202e-06 7.55473e-21 -0 2.31202e-06 -0 2.31202e-06)
(2.31199e-06 1.31996e-20 -0 2.31199e-06 -0 2.31199e-06)
(2.31197e-06 1.47316e-20 -0 2.31197e-06 -0 2.31197e-06)
(2.31195e-06 -5.24083e-20 -0 2.31195e-06 -0 2.31195e-06)
(2.31194e-06 1.26349e-21 -0 2.31194e-06 -0 2.31194e-06)
(2.31191e-06 -1.75021e-20 -0 2.31191e-06 -0 2.31191e-06)
(2.31191e-06 5.87699e-21 -0 2.31191e-06 -0 2.31191e-06)
(2.31189e-06 -1.8488e-21 -0 2.31189e-06 -0 2.31189e-06)
(2.31189e-06 2.84384e-20 -0 2.31189e-06 -0 2.31189e-06)
(2.31188e-06 3.02681e-20 -0 2.31188e-06 -0 2.31188e-06)
(2.31188e-06 2.07324e-20 -0 2.31188e-06 -0 2.31188e-06)
(2.31187e-06 -6.4006e-20 -0 2.31187e-06 -0 2.31187e-06)
(2.31187e-06 -2.85753e-20 -0 2.31187e-06 -0 2.31187e-06)
(2.31758e-06 9.21066e-18 -0 2.31758e-06 -0 2.31758e-06)
(2.31758e-06 -1.24809e-17 -0 2.31758e-06 -0 2.31758e-06)
(2.31751e-06 2.54147e-18 -0 2.31751e-06 -0 2.31751e-06)
(2.31749e-06 -5.44583e-19 -0 2.31749e-06 -0 2.31749e-06)
(2.31744e-06 1.47661e-19 -0 2.31744e-06 -0 2.31744e-06)
(2.31743e-06 3.31037e-20 -0 2.31743e-06 -0 2.31743e-06)
(2.31739e-06 9.31438e-20 -0 2.31739e-06 -0 2.31739e-06)
(2.31737e-06 6.26893e-20 -0 2.31737e-06 -0 2.31737e-06)
(2.31734e-06 5.41614e-20 -0 2.31734e-06 -0 2.31734e-06)
(2.31733e-06 3.92893e-20 -0 2.31733e-06 -0 2.31733e-06)
(2.31729e-06 7.482e-20 -0 2.31729e-06 -0 2.31729e-06)
(2.31729e-06 8.8299e-21 -0 2.31729e-06 -0 2.31729e-06)
(2.31726e-06 4.16512e-20 -0 2.31726e-06 -0 2.31726e-06)
(2.31726e-06 1.16339e-20 -0 2.31726e-06 -0 2.31726e-06)
(2.31724e-06 8.26202e-21 -0 2.31724e-06 -0 2.31724e-06)
(2.31724e-06 -2.85262e-20 -0 2.31724e-06 -0 2.31724e-06)
(2.31722e-06 -1.35554e-20 -0 2.31722e-06 -0 2.31722e-06)
(2.31722e-06 -3.66541e-20 -0 2.31722e-06 -0 2.31722e-06)
(2.31722e-06 -2.11122e-20 -0 2.31722e-06 -0 2.31722e-06)
(2.31722e-06 3.04434e-20 -0 2.31722e-06 -0 2.31722e-06)
(2.32231e-06 -5.9933e-18 -0 2.32231e-06 -0 2.32231e-06)
(2.32231e-06 8.44392e-18 -0 2.32231e-06 -0 2.32231e-06)
(2.32224e-06 -1.52943e-18 -0 2.32224e-06 -0 2.32224e-06)
(2.32222e-06 5.07885e-19 -0 2.32222e-06 -0 2.32222e-06)
(2.32218e-06 4.38241e-21 -0 2.32218e-06 -0 2.32218e-06)
(2.32215e-06 8.99913e-20 -0 2.32215e-06 -0 2.32215e-06)
(2.32212e-06 6.80404e-20 -0 2.32212e-06 -0 2.32212e-06)
(2.3221e-06 1.28311e-19 -0 2.3221e-06 -0 2.3221e-06)
(2.32207e-06 1.3838e-19 -0 2.32207e-06 -0 2.32207e-06)
(2.32205e-06 9.40517e-20 -0 2.32205e-06 -0 2.32205e-06)
(2.32203e-06 1.2091e-19 -0 2.32203e-06 -0 2.32203e-06)
(2.32201e-06 5.80961e-20 -0 2.32201e-06 -0 2.32201e-06)
(2.322e-06 5.06058e-20 -0 2.322e-06 -0 2.322e-06)
(2.32198e-06 5.13213e-20 -0 2.32198e-06 -0 2.32198e-06)
(2.32197e-06 5.00594e-20 -0 2.32197e-06 -0 2.32197e-06)
(2.32196e-06 4.84787e-20 -0 2.32196e-06 -0 2.32196e-06)
(2.32196e-06 -3.39975e-22 -0 2.32196e-06 -0 2.32196e-06)
(2.32195e-06 4.13037e-20 -0 2.32195e-06 -0 2.32195e-06)
(2.32195e-06 1.12677e-20 -0 2.32195e-06 -0 2.32195e-06)
(2.32195e-06 1.54553e-21 -0 2.32195e-06 -0 2.32195e-06)
(2.32697e-06 7.7123e-19 -0 2.32697e-06 -0 2.32697e-06)
(2.32697e-06 -3.22229e-19 -0 2.32697e-06 -0 2.32697e-06)
(2.3269e-06 -7.66644e-20 -0 2.3269e-06 -0 2.3269e-06)
(2.32688e-06 -1.39804e-19 -0 2.32688e-06 -0 2.32688e-06)
(2.32683e-06 -9.11032e-20 -0 2.32683e-06 -0 2.32683e-06)
(2.32681e-06 -8.97329e-20 -0 2.32681e-06 -0 2.32681e-06)
(2.32678e-06 -1.76884e-20 -0 2.32678e-06 -0 2.32678e-06)
(2.32676e-06 -7.29112e-20 -0 2.32676e-06 -0 2.32676e-06)
(2.32673e-06 -7.66015e-20 -0 2.32673e-06 -0 2.32673e-06)
(2.32671e-06 -1.06625e-19 -0 2.32671e-06 -0 2.32671e-06)
(2.32668e-06 -8.37302e-20 -0 2.32668e-06 -0 2.32668e-06)
(2.32667e-06 -1.14637e-20 -0 2.32667e-06 -0 2.32667e-06)
(2.32665e-06 4.44908e-20 -0 2.32665e-06 -0 2.32665e-06)
(2.32664e-06 -6.99739e-21 -0 2.32664e-06 -0 2.32664e-06)
(2.32663e-06 4.37536e-20 -0 2.32663e-06 -0 2.32663e-06)
(2.32662e-06 -1.44674e-20 -0 2.32662e-06 -0 2.32662e-06)
(2.32661e-06 -4.53131e-22 -0 2.32661e-06 -0 2.32661e-06)
(2.32661e-06 6.02939e-21 -0 2.32661e-06 -0 2.32661e-06)
(2.32661e-06 5.32941e-21 -0 2.32661e-06 -0 2.32661e-06)
(2.32661e-06 3.24264e-21 -0 2.32661e-06 -0 2.32661e-06)
(2.33185e-06 8.37538e-18 -0 2.33185e-06 -0 2.33185e-06)
(2.33185e-06 -1.02593e-17 -0 2.33185e-06 -0 2.33185e-06)
(2.33178e-06 1.9458e-18 -0 2.33178e-06 -0 2.33178e-06)
(2.33176e-06 -5.61335e-19 -0 2.33176e-06 -0 2.33176e-06)
(2.33172e-06 5.94792e-20 -0 2.33172e-06 -0 2.33172e-06)
(2.3317e-06 -1.17497e-19 -0 2.3317e-06 -0 2.3317e-06)
(2.33166e-06 -4.03243e-20 -0 2.33166e-06 -0 2.33166e-06)
(2.33164e-06 -5.47239e-20 -0 2.33164e-06 -0 2.33164e-06)
(2.33161e-06 -6.65218e-20 -0 2.33161e-06 -0 2.33161e-06)
(2.33159e-06 3.74747e-21 -0 2.33159e-06 -0 2.33159e-06)
(2.33156e-06 4.87119e-20 -0 2.33156e-06 -0 2.33156e-06)
(2.33156e-06 6.59679e-20 -0 2.33156e-06 -0 2.33156e-06)
(2.33153e-06 1.32888e-20 -0 2.33153e-06 -0 2.33153e-06)
(2.33153e-06 -5.76583e-21 -0 2.33153e-06 -0 2.33153e-06)
(2.33151e-06 -1.93362e-20 -0 2.33151e-06 -0 2.33151e-06)
(2.3315e-06 4.50197e-20 -0 2.3315e-06 -0 2.3315e-06)
(2.33149e-06 5.15478e-20 -0 2.33149e-06 -0 2.33149e-06)
(2.33149e-06 6.20246e-20 -0 2.33149e-06 -0 2.33149e-06)
(2.33149e-06 3.75837e-20 -0 2.33149e-06 -0 2.33149e-06)
(2.33149e-06 1.28076e-21 -0 2.33149e-06 -0 2.33149e-06)
(2.33708e-06 -1.4659e-17 -0 2.33708e-06 -0 2.33708e-06)
(2.33707e-06 1.615e-17 -0 2.33707e-06 -0 2.33707e-06)
(2.33701e-06 -3.1478e-18 -0 2.33701e-06 -0 2.33701e-06)
(2.33699e-06 7.87526e-19 -0 2.33699e-06 -0 2.33699e-06)
(2.33694e-06 -7.14621e-20 -0 2.33694e-06 -0 2.33694e-06)
(2.33692e-06 1.00161e-19 -0 2.33692e-06 -0 2.33692e-06)
(2.33689e-06 7.35037e-21 -0 2.33689e-06 -0 2.33689e-06)
(2.33686e-06 1.40497e-20 -0 2.33686e-06 -0 2.33686e-06)
(2.33683e-06 6.13597e-20 -0 2.33683e-06 -0 2.33683e-06)
(2.33682e-06 4.93179e-20 -0 2.33682e-06 -0 2.33682e-06)
(2.33679e-06 2.12352e-20 -0 2.33679e-06 -0 2.33679e-06)
(2.33678e-06 3.06344e-20 -0 2.33678e-06 -0 2.33678e-06)
(2.33676e-06 5.74679e-21 -0 2.33676e-06 -0 2.33676e-06)
(2.33675e-06 7.28014e-20 -0 2.33675e-06 -0 2.33675e-06)
(2.33673e-06 1.59117e-20 -0 2.33673e-06 -0 2.33673e-06)
(2.33673e-06 3.56076e-20 -0 2.33673e-06 -0 2.33673e-06)
(2.33672e-06 4.22374e-21 -0 2.33672e-06 -0 2.33672e-06)
(2.33672e-06 -1.88959e-21 -0 2.33672e-06 -0 2.33672e-06)
(2.33671e-06 -4.33007e-21 -0 2.33671e-06 -0 2.33671e-06)
(2.33671e-06 3.50225e-20 -0 2.33671e-06 -0 2.33671e-06)
(2.34259e-06 8.24065e-18 -0 2.34259e-06 -0 2.34259e-06)
(2.34259e-06 -9.58404e-18 -0 2.34259e-06 -0 2.34259e-06)
(2.34252e-06 1.88884e-18 -0 2.34252e-06 -0 2.34252e-06)
(2.3425e-06 -4.47227e-19 -0 2.3425e-06 -0 2.3425e-06)
(2.34246e-06 1.12348e-19 -0 2.34246e-06 -0 2.34246e-06)
(2.34243e-06 6.06784e-21 -0 2.34243e-06 -0 2.34243e-06)
(2.3424e-06 -4.16807e-20 -0 2.3424e-06 -0 2.3424e-06)
(2.34237e-06 -6.45961e-20 -0 2.34237e-06 -0 2.34237e-06)
(2.34235e-06 -9.10834e-20 -0 2.34235e-06 -0 2.34235e-06)
(2.34232e-06 -1.10394e-19 -0 2.34232e-06 -0 2.34232e-06)
(2.3423e-06 -8.44385e-20 -0 2.3423e-06 -0 2.3423e-06)
(2.34229e-06 -9.02271e-20 -0 2.34229e-06 -0 2.34229e-06)
(2.34227e-06 -6.11923e-20 -0 2.34227e-06 -0 2.34227e-06)
(2.34226e-06 -1.70217e-20 -0 2.34226e-06 -0 2.34226e-06)
(2.34224e-06 -8.78639e-21 -0 2.34224e-06 -0 2.34224e-06)
(2.34224e-06 -1.04699e-19 -0 2.34224e-06 -0 2.34224e-06)
(2.34223e-06 -1.18449e-19 -0 2.34223e-06 -0 2.34223e-06)
(2.34222e-06 -7.4379e-20 -0 2.34222e-06 -0 2.34222e-06)
(2.34222e-06 -4.15986e-20 -0 2.34222e-06 -0 2.34222e-06)
(2.34222e-06 -3.07339e-20 -0 2.34222e-06 -0 2.34222e-06)
(2.34811e-06 6.59541e-18 -0 2.34811e-06 -0 2.34811e-06)
(2.34811e-06 -4.77013e-18 -0 2.34811e-06 -0 2.34811e-06)
(2.34805e-06 1.01874e-18 -0 2.34805e-06 -0 2.34805e-06)
(2.34802e-06 -1.83115e-19 -0 2.34802e-06 -0 2.34802e-06)
(2.34798e-06 2.68005e-20 -0 2.34798e-06 -0 2.34798e-06)
(2.34795e-06 -5.88106e-20 -0 2.34795e-06 -0 2.34795e-06)
(2.34792e-06 3.34888e-20 -0 2.34792e-06 -0 2.34792e-06)
(2.3479e-06 7.14686e-20 -0 2.3479e-06 -0 2.3479e-06)
(2.34787e-06 -7.16141e-21 -0 2.34787e-06 -0 2.34787e-06)
(2.34785e-06 2.39888e-20 -0 2.34785e-06 -0 2.34785e-06)
(2.34783e-06 -4.33515e-20 -0 2.34783e-06 -0 2.34783e-06)
(2.34781e-06 -6.61994e-20 -0 2.34781e-06 -0 2.34781e-06)
(2.34779e-06 -4.00272e-20 -0 2.34779e-06 -0 2.34779e-06)
(2.34778e-06 -8.51556e-20 -0 2.34778e-06 -0 2.34778e-06)
(2.34777e-06 -1.14182e-19 -0 2.34777e-06 -0 2.34777e-06)
(2.34776e-06 -2.61479e-20 -0 2.34776e-06 -0 2.34776e-06)
(2.34775e-06 -1.68697e-20 -0 2.34775e-06 -0 2.34775e-06)
(2.34775e-06 -6.14145e-20 -0 2.34775e-06 -0 2.34775e-06)
(2.34774e-06 1.53904e-20 -0 2.34774e-06 -0 2.34774e-06)
(2.34774e-06 5.96251e-21 -0 2.34774e-06 -0 2.34774e-06)
(2.35316e-06 -1.58804e-17 -0 2.35316e-06 -0 2.35316e-06)
(2.35316e-06 1.41958e-17 -0 2.35316e-06 -0 2.35316e-06)
(2.35309e-06 -2.89003e-18 -0 2.35309e-06 -0 2.35309e-06)
(2.35306e-06 7.2661e-19 -0 2.35306e-06 -0 2.35306e-06)
(2.35302e-06 -8.6463e-20 -0 2.35302e-06 -0 2.35302e-06)
(2.353e-06 1.26892e-19 -0 2.353e-06 -0 2.353e-06)
(2.35296e-06 7.35792e-20 -0 2.35296e-06 -0 2.35296e-06)
(2.35294e-06 2.8834e-20 -0 2.35294e-06 -0 2.35294e-06)
(2.35291e-06 7.74884e-20 -0 2.35291e-06 -0 2.35291e-06)
(2.35289e-06 7.83939e-20 -0 2.35289e-06 -0 2.35289e-06)
(2.35287e-06 5.70542e-20 -0 2.35287e-06 -0 2.35287e-06)
(2.35285e-06 6.87993e-20 -0 2.35285e-06 -0 2.35285e-06)
(2.35284e-06 6.44704e-20 -0 2.35284e-06 -0 2.35284e-06)
(2.35282e-06 5.57118e-20 -0 2.35282e-06 -0 2.35282e-06)
(2.35281e-06 5.89789e-20 -0 2.35281e-06 -0 2.35281e-06)
(2.35281e-06 2.90644e-20 -0 2.35281e-06 -0 2.35281e-06)
(2.3528e-06 4.97166e-20 -0 2.3528e-06 -0 2.3528e-06)
(2.35279e-06 7.22503e-20 -0 2.35279e-06 -0 2.35279e-06)
(2.35279e-06 1.26918e-21 -0 2.35279e-06 -0 2.35279e-06)
(2.35279e-06 1.1106e-20 -0 2.35279e-06 -0 2.35279e-06)
(2.35706e-06 4.76384e-18 -0 2.35706e-06 -0 2.35706e-06)
(2.35706e-06 -5.27274e-18 -0 2.35706e-06 -0 2.35706e-06)
(2.357e-06 9.04132e-19 -0 2.357e-06 -0 2.357e-06)
(2.35698e-06 -3.38757e-19 -0 2.35698e-06 -0 2.35698e-06)
(2.35693e-06 -7.45034e-20 -0 2.35693e-06 -0 2.35693e-06)
(2.35692e-06 -6.74847e-20 -0 2.35692e-06 -0 2.35692e-06)
(2.35687e-06 -1.00091e-19 -0 2.35687e-06 -0 2.35687e-06)
(2.35686e-06 -1.28346e-19 -0 2.35686e-06 -0 2.35686e-06)
(2.35682e-06 -1.03182e-19 -0 2.35682e-06 -0 2.35682e-06)
(2.35681e-06 -8.93633e-20 -0 2.35681e-06 -0 2.35681e-06)
(2.35678e-06 -3.65765e-20 -0 2.35678e-06 -0 2.35678e-06)
(2.35678e-06 2.03793e-20 -0 2.35678e-06 -0 2.35678e-06)
(2.35675e-06 4.51328e-20 -0 2.35675e-06 -0 2.35675e-06)
(2.35675e-06 -1.33698e-20 -0 2.35675e-06 -0 2.35675e-06)
(2.35672e-06 7.93224e-20 -0 2.35672e-06 -0 2.35672e-06)
(2.35672e-06 -1.85587e-21 -0 2.35672e-06 -0 2.35672e-06)
(2.35671e-06 3.59795e-21 -0 2.35671e-06 -0 2.35671e-06)
(2.35671e-06 -3.60423e-20 -0 2.35671e-06 -0 2.35671e-06)
(2.3567e-06 -2.11011e-20 -0 2.3567e-06 -0 2.3567e-06)
(2.3567e-06 1.03449e-20 -0 2.3567e-06 -0 2.3567e-06)
(2.35887e-06 8.92243e-18 -0 2.35887e-06 -0 2.35887e-06)
(2.35886e-06 -8.95467e-18 -0 2.35886e-06 -0 2.35886e-06)
(2.35886e-06 2.02146e-18 -0 2.35886e-06 -0 2.35886e-06)
(2.35886e-06 -4.39846e-19 -0 2.35886e-06 -0 2.35886e-06)
(2.35886e-06 1.46457e-19 -0 2.35886e-06 -0 2.35886e-06)
(2.35886e-06 -1.56068e-20 -0 2.35886e-06 -0 2.35886e-06)
(2.35886e-06 3.84267e-20 -0 2.35886e-06 -0 2.35886e-06)
(2.35886e-06 6.40577e-20 -0 2.35886e-06 -0 2.35886e-06)
(2.35886e-06 3.32364e-20 -0 2.35886e-06 -0 2.35886e-06)
(2.35886e-06 2.15564e-20 -0 2.35886e-06 -0 2.35886e-06)
(2.35886e-06 2.21661e-20 -0 2.35886e-06 -0 2.35886e-06)
(2.35886e-06 -6.81056e-22 -0 2.35886e-06 -0 2.35886e-06)
(2.35886e-06 -5.32843e-20 -0 2.35886e-06 -0 2.35886e-06)
(2.35886e-06 6.21872e-21 -0 2.35886e-06 -0 2.35886e-06)
(2.35886e-06 -5.50643e-20 -0 2.35886e-06 -0 2.35886e-06)
(2.35886e-06 2.45905e-20 -0 2.35886e-06 -0 2.35886e-06)
(2.35886e-06 -3.42545e-21 -0 2.35886e-06 -0 2.35886e-06)
(2.35886e-06 8.48735e-21 -0 2.35886e-06 -0 2.35886e-06)
(2.35886e-06 2.76731e-20 -0 2.35886e-06 -0 2.35886e-06)
(2.35886e-06 -1.49394e-20 -0 2.35886e-06 -0 2.35886e-06)
)
;

boundaryField
{
    movingWall
    {
        type            kqRWallFunction;
        value           nonuniform List<symmTensor> 
20
(
(2.35887e-06 0 -0 2.35887e-06 -0 2.35887e-06)
(2.35886e-06 -0 -0 2.35886e-06 -0 2.35886e-06)
(2.35886e-06 0 -0 2.35886e-06 -0 2.35886e-06)
(2.35886e-06 -0 -0 2.35886e-06 -0 2.35886e-06)
(2.35886e-06 0 -0 2.35886e-06 -0 2.35886e-06)
(2.35886e-06 0 -0 2.35886e-06 -0 2.35886e-06)
(2.35886e-06 0 -0 2.35886e-06 -0 2.35886e-06)
(2.35886e-06 0 -0 2.35886e-06 -0 2.35886e-06)
(2.35886e-06 0 -0 2.35886e-06 -0 2.35886e-06)
(2.35886e-06 0 -0 2.35886e-06 -0 2.35886e-06)
(2.35886e-06 0 -0 2.35886e-06 -0 2.35886e-06)
(2.35886e-06 0 -0 2.35886e-06 -0 2.35886e-06)
(2.35886e-06 0 -0 2.35886e-06 -0 2.35886e-06)
(2.35886e-06 0 -0 2.35886e-06 -0 2.35886e-06)
(2.35886e-06 0 -0 2.35886e-06 -0 2.35886e-06)
(2.35886e-06 0 -0 2.35886e-06 -0 2.35886e-06)
(2.35886e-06 0 -0 2.35886e-06 -0 2.35886e-06)
(2.35886e-06 0 -0 2.35886e-06 -0 2.35886e-06)
(2.35886e-06 0 -0 2.35886e-06 -0 2.35886e-06)
(2.35886e-06 -0 -0 2.35886e-06 -0 2.35886e-06)
)
;
    }
    fixedWalls
    {
        type            kqRWallFunction;
        value           nonuniform List<symmTensor> 
60
(
(2.04223e-06 -0 -0 2.04223e-06 -0 2.04223e-06)
(2.07306e-06 -0 -0 2.07306e-06 -0 2.07306e-06)
(2.1226e-06 0 -0 2.1226e-06 -0 2.1226e-06)
(2.17586e-06 -0 -0 2.17586e-06 -0 2.17586e-06)
(2.2219e-06 0 -0 2.2219e-06 -0 2.2219e-06)
(2.25642e-06 0 -0 2.25642e-06 -0 2.25642e-06)
(2.28e-06 -0 -0 2.28e-06 -0 2.28e-06)
(2.29534e-06 0 -0 2.29534e-06 -0 2.29534e-06)
(2.30532e-06 0 -0 2.30532e-06 -0 2.30532e-06)
(2.31223e-06 -0 -0 2.31223e-06 -0 2.31223e-06)
(2.31758e-06 0 -0 2.31758e-06 -0 2.31758e-06)
(2.32231e-06 -0 -0 2.32231e-06 -0 2.32231e-06)
(2.32697e-06 0 -0 2.32697e-06 -0 2.32697e-06)
(2.33185e-06 0 -0 2.33185e-06 -0 2.33185e-06)
(2.33708e-06 -0 -0 2.33708e-06 -0 2.33708e-06)
(2.34259e-06 0 -0 2.34259e-06 -0 2.34259e-06)
(2.34811e-06 0 -0 2.34811e-06 -0 2.34811e-06)
(2.35316e-06 -0 -0 2.35316e-06 -0 2.35316e-06)
(2.35706e-06 0 -0 2.35706e-06 -0 2.35706e-06)
(2.35887e-06 0 -0 2.35887e-06 -0 2.35887e-06)
(2.04222e-06 0 -0 2.04222e-06 -0 2.04222e-06)
(2.07278e-06 0 -0 2.07278e-06 -0 2.07278e-06)
(2.1223e-06 -0 -0 2.1223e-06 -0 2.1223e-06)
(2.17555e-06 -0 -0 2.17555e-06 -0 2.17555e-06)
(2.22157e-06 -0 -0 2.22157e-06 -0 2.22157e-06)
(2.25608e-06 0 -0 2.25608e-06 -0 2.25608e-06)
(2.27966e-06 -0 -0 2.27966e-06 -0 2.27966e-06)
(2.29499e-06 -0 -0 2.29499e-06 -0 2.29499e-06)
(2.30497e-06 0 -0 2.30497e-06 -0 2.30497e-06)
(2.31187e-06 -0 -0 2.31187e-06 -0 2.31187e-06)
(2.31722e-06 0 -0 2.31722e-06 -0 2.31722e-06)
(2.32195e-06 -0 -0 2.32195e-06 -0 2.32195e-06)
(2.32661e-06 -0 -0 2.32661e-06 -0 2.32661e-06)
(2.33149e-06 -0 -0 2.33149e-06 -0 2.33149e-06)
(2.33671e-06 0 -0 2.33671e-06 -0 2.33671e-06)
(2.34222e-06 -0 -0 2.34222e-06 -0 2.34222e-06)
(2.34774e-06 0 -0 2.34774e-06 -0 2.34774e-06)
(2.35279e-06 0 -0 2.35279e-06 -0 2.35279e-06)
(2.3567e-06 0 -0 2.3567e-06 -0 2.3567e-06)
(2.35886e-06 -0 -0 2.35886e-06 -0 2.35886e-06)
(2.04223e-06 -0 -0 2.04223e-06 -0 2.04223e-06)
(2.04223e-06 0 -0 2.04223e-06 -0 2.04223e-06)
(2.04222e-06 -0 -0 2.04222e-06 -0 2.04222e-06)
(2.04222e-06 0 -0 2.04222e-06 -0 2.04222e-06)
(2.04222e-06 -0 -0 2.04222e-06 -0 2.04222e-06)
(2.04222e-06 -0 -0 2.04222e-06 -0 2.04222e-06)
(2.04222e-06 -0 -0 2.04222e-06 -0 2.04222e-06)
(2.04222e-06 -0 -0 2.04222e-06 -0 2.04222e-06)
(2.04222e-06 -0 -0 2.04222e-06 -0 2.04222e-06)
(2.04222e-06 -0 -0 2.04222e-06 -0 2.04222e-06)
(2.04222e-06 -0 -0 2.04222e-06 -0 2.04222e-06)
(2.04222e-06 0 -0 2.04222e-06 -0 2.04222e-06)
(2.04222e-06 0 -0 2.04222e-06 -0 2.04222e-06)
(2.04222e-06 0 -0 2.04222e-06 -0 2.04222e-06)
(2.04222e-06 0 -0 2.04222e-06 -0 2.04222e-06)
(2.04222e-06 -0 -0 2.04222e-06 -0 2.04222e-06)
(2.04222e-06 -0 -0 2.04222e-06 -0 2.04222e-06)
(2.04222e-06 -0 -0 2.04222e-06 -0 2.04222e-06)
(2.04222e-06 -0 -0 2.04222e-06 -0 2.04222e-06)
(2.04222e-06 -0 -0 2.04222e-06 -0 2.04222e-06)
)
;
    }
    frontAndBack
    {
        type            empty;
    }
}


// ************************************************************************* //
