/*--------------------------------*- C++ -*----------------------------------*\
| =========                 |                                                 |
| \\      /  F ield         | OpenFOAM: The Open Source CFD Toolbox           |
|  \\    /   O peration     | Version:  2506                                  |
|   \\  /    A nd           | Website:  www.openfoam.com                      |
|    \\/     M anipulation  |                                                 |
\*---------------------------------------------------------------------------*/
FoamFile
{
    version     2.0;
    format      ascii;
    arch        "LSB;label=32;scalar=64";
    class       volSymmTensorField;
    location    "9";
    object      turbulenceProperties:devReff;
}
// * * * * * * * * * * * * * * * * * * * * * * * * * * * * * * * * * * * * * //

dimensions      [0 2 -2 0 0 0 0];

internalField   nonuniform List<symmTensor> 
400
(
(1.33703e-16 -1.42299e-16 -0 -2.45977e-16 -0 1.12274e-16)
(-4.72434e-17 1.61066e-16 -0 6.11523e-17 -0 -1.39089e-17)
(1.24347e-17 -3.40872e-17 -0 -1.53452e-17 -0 2.91055e-18)
(-1.61365e-18 8.3525e-18 -0 2.63203e-18 -0 -1.01839e-18)
(3.25989e-19 -2.65012e-18 -0 -6.51977e-19 -0 3.25989e-19)
(8.56901e-19 -2.31203e-19 -0 -5.23284e-19 -0 -3.33617e-19)
(5.25358e-19 -8.96496e-20 -0 -4.55456e-19 -0 -6.99015e-20)
(1.45211e-19 5.73756e-19 -0 -2.90421e-19 -0 1.45211e-19)
(5.51887e-19 -5.11584e-20 -0 -5.08516e-19 -0 -4.33717e-20)
(1.25663e-19 3.8798e-19 -0 -2.51326e-19 -0 1.25663e-19)
(6.07973e-19 4.3359e-19 -0 -6.20686e-19 -0 1.27136e-20)
(1.45358e-18 7.75838e-19 -0 -1.12139e-18 -0 -3.32193e-19)
(1.03704e-19 9.70061e-19 -0 -2.07407e-19 -0 1.03704e-19)
(-4.94099e-19 2.69101e-19 -0 3.92938e-19 -0 1.01161e-19)
(-1.98638e-19 1.16517e-19 -0 3.97277e-19 -0 -1.98638e-19)
(-1.02838e-18 -3.46916e-19 -0 8.66246e-19 -0 1.62136e-19)
(-4.99554e-19 -4.88386e-19 -0 4.03849e-19 -0 9.57051e-20)
(-4.69358e-21 -2.15079e-19 -0 9.38716e-21 -0 -4.69358e-21)
(9.99064e-20 5.13073e-19 -0 -1.99813e-19 -0 9.99064e-20)
(4.5262e-19 1.5452e-19 -0 -3.0998e-19 -0 -1.4264e-19)
(-2.33826e-16 -1.92502e-17 -0 4.2834e-16 -0 -1.94513e-16)
(8.15719e-17 1.55045e-17 -0 -1.07695e-16 -0 2.6123e-17)
(-1.96031e-17 -1.02452e-18 -0 2.54943e-17 -0 -5.89113e-18)
(2.22142e-18 1.47915e-18 -0 -4.44284e-18 -0 2.22142e-18)
(-1.72275e-18 1.32723e-18 -0 1.65717e-18 -0 6.55814e-20)
(8.24776e-20 1.12423e-18 -0 -1.64955e-19 -0 8.24776e-20)
(4.28453e-19 8.60693e-19 -0 -2.60859e-19 -0 -1.67594e-19)
(3.17945e-20 2.79698e-19 -0 -6.35889e-20 -0 3.17945e-20)
(4.84935e-20 6.76561e-19 -0 -9.69869e-20 -0 4.84935e-20)
(7.85012e-19 1.23296e-19 -0 -3.78101e-19 -0 -4.06911e-19)
(-1.05871e-18 2.53475e-19 -0 9.25582e-19 -0 1.33129e-19)
(-1.47612e-18 -1.94551e-20 -0 1.16456e-18 -0 3.11568e-19)
(-9.58009e-19 1.65853e-19 -0 7.24305e-19 -0 2.33704e-19)
(2.4031e-20 1.8459e-19 -0 -4.80621e-20 -0 2.4031e-20)
(5.88681e-20 -2.08167e-19 -0 -1.17736e-19 -0 5.88681e-20)
(4.54196e-19 7.98974e-19 -0 -3.12623e-19 -0 -1.41573e-19)
(4.67667e-19 7.39214e-19 -0 -3.39605e-19 -0 -1.28062e-19)
(8.60598e-19 -8.89188e-20 -0 -5.29786e-19 -0 -3.30813e-19)
(-1.25355e-19 -8.53016e-21 -0 2.50711e-19 -0 -1.25355e-19)
(-9.27801e-19 6.74716e-19 -0 6.64294e-19 -0 2.63506e-19)
(6.68966e-17 1.57155e-16 -0 -1.2306e-16 -0 5.61634e-17)
(-2.29212e-17 -1.50966e-16 -0 3.15172e-17 -0 -8.59603e-18)
(6.72127e-18 2.91653e-17 -0 -8.07109e-18 -0 1.34982e-18)
(-6.77572e-19 -8.32882e-18 -0 1.35514e-18 -0 -6.77572e-19)
(7.44696e-20 5.54866e-19 -0 -1.48939e-19 -0 7.44696e-20)
(-1.53013e-19 -1.07509e-18 -0 3.06026e-19 -0 -1.53013e-19)
(-9.81126e-20 -9.0881e-19 -0 1.96225e-19 -0 -9.81126e-20)
(-5.2713e-19 -1.24104e-18 -0 4.57588e-19 -0 6.95418e-20)
(-8.90551e-19 -8.84057e-19 -0 5.87846e-19 -0 3.02705e-19)
(1.0291e-19 -9.3146e-19 -0 -2.05819e-19 -0 1.0291e-19)
(8.95284e-19 -6.44315e-19 -0 -5.97444e-19 -0 -2.97839e-19)
(3.65865e-19 -5.66628e-19 -0 -1.35192e-19 -0 -2.30673e-19)
(-7.3515e-20 -8.74294e-20 -0 1.4703e-19 -0 -7.3515e-20)
(-3.80104e-19 -6.43072e-20 -0 1.63736e-19 -0 2.16368e-19)
(5.00204e-19 3.65425e-19 -0 -4.03978e-19 -0 -9.62258e-20)
(1.44838e-20 -6.68796e-20 -0 -2.89675e-20 -0 1.44838e-20)
(-4.47947e-19 -2.05098e-19 -0 2.9953e-19 -0 1.48417e-19)
(-8.01659e-19 7.86493e-20 -0 4.10638e-19 -0 3.91021e-19)
(7.08966e-19 -6.76605e-19 -0 -2.25294e-19 -0 -4.83673e-19)
(-8.95787e-19 -2.34043e-19 -0 5.99001e-19 -0 2.96786e-19)
(1.10819e-16 -1.14018e-16 -0 -1.98356e-16 -0 8.75373e-17)
(-4.24941e-17 1.05408e-16 -0 5.15244e-17 -0 -9.03021e-18)
(1.08451e-17 -2.18797e-17 -0 -1.27275e-17 -0 1.88239e-18)
(-8.80832e-19 4.59261e-18 -0 1.76166e-18 -0 -8.80832e-19)
(6.83258e-19 -1.24979e-18 -0 -7.69071e-19 -0 8.58128e-20)
(-3.99772e-20 1.9108e-19 -0 7.99545e-20 -0 -3.99772e-20)
(-4.39388e-19 -3.67653e-19 -0 2.81398e-19 -0 1.5799e-19)
(-7.9295e-20 2.75734e-19 -0 1.5859e-19 -0 -7.9295e-20)
(-5.3758e-20 3.06343e-20 -0 1.07516e-19 -0 -5.3758e-20)
(5.28711e-21 4.28144e-19 -0 -1.05742e-20 -0 5.28711e-21)
(5.23221e-19 1.57742e-19 -0 -4.49201e-19 -0 -7.40205e-20)
(1.55558e-19 -5.7734e-20 -0 -3.11115e-19 -0 1.55558e-19)
(9.47341e-20 -5.05093e-19 -0 -1.89468e-19 -0 9.47341e-20)
(-4.98641e-20 -7.94576e-20 -0 9.97282e-20 -0 -4.98641e-20)
(2.50567e-20 9.45199e-20 -0 -5.01134e-20 -0 2.50567e-20)
(4.6525e-19 -7.6082e-19 -0 -3.33417e-19 -0 -1.31833e-19)
(3.8719e-19 -7.2019e-19 -0 -1.77342e-19 -0 -2.09849e-19)
(-4.70695e-19 -3.54131e-20 -0 3.44376e-19 -0 1.26319e-19)
(6.09514e-20 -1.65578e-19 -0 -1.21903e-19 -0 6.09514e-20)
(4.75608e-19 -7.98331e-19 -0 -3.54256e-19 -0 -1.21352e-19)
(-1.61666e-16 7.03002e-18 -0 2.84493e-16 -0 -1.22826e-16)
(6.44529e-17 -1.91048e-18 -0 -7.68659e-17 -0 1.2413e-17)
(-1.61462e-17 1.44214e-18 -0 1.8536e-17 -0 -2.38984e-18)
(2.34838e-18 3.31594e-19 -0 -3.50061e-18 -0 1.15223e-18)
(-1.592e-19 -1.08336e-19 -0 3.18401e-19 -0 -1.592e-19)
(1.01532e-18 1.02385e-20 -0 -8.34632e-19 -0 -1.80692e-19)
(1.81428e-19 -2.53736e-19 -0 -3.62857e-19 -0 1.81428e-19)
(6.72804e-19 -2.88387e-20 -0 -7.4767e-19 -0 7.4866e-20)
(9.42605e-19 4.81813e-19 -0 -6.89424e-19 -0 -2.53181e-19)
(-9.59898e-19 5.91673e-19 -0 7.24058e-19 -0 2.3584e-19)
(-2.27542e-19 6.23246e-19 -0 4.55084e-19 -0 -2.27542e-19)
(-5.73758e-19 9.72188e-19 -0 5.49716e-19 -0 2.40414e-20)
(-1.52724e-19 2.20804e-19 -0 3.05447e-19 -0 -1.52724e-19)
(-1.53395e-19 4.01664e-20 -0 3.0679e-19 -0 -1.53395e-19)
(-9.13916e-19 -1.08406e-19 -0 6.3246e-19 -0 2.81455e-19)
(-3.07888e-19 -3.1196e-19 -0 1.81153e-20 -0 2.89773e-19)
(5.31069e-19 -2.94316e-19 -0 -4.64521e-19 -0 -6.6548e-20)
(4.2269e-20 -2.89731e-20 -0 -8.4538e-20 -0 4.2269e-20)
(-3.54843e-19 5.902e-19 -0 1.12117e-19 -0 2.42726e-19)
(4.87911e-19 -2.64584e-20 -0 -3.78286e-19 -0 -1.09625e-19)
(1.15336e-16 1.07458e-16 -0 -1.96589e-16 -0 8.12522e-17)
(-5.07243e-17 -1.03523e-16 -0 5.71524e-17 -0 -6.4281e-18)
(1.13733e-17 2.25173e-17 -0 -1.25714e-17 -0 1.19814e-18)
(-2.54351e-18 -5.03218e-18 -0 3.29148e-18 -0 -7.47965e-19)
(5.26104e-19 1.04802e-18 -0 -4.5374e-19 -0 -7.23642e-20)
(-5.15266e-19 -3.1992e-19 -0 4.32087e-19 -0 8.31782e-20)
(1.9279e-20 -1.53483e-19 -0 -3.85581e-20 -0 1.9279e-20)
(9.70129e-19 -5.67323e-19 -0 -7.43513e-19 -0 -2.26616e-19)
(5.73144e-19 -8.09298e-19 -0 -5.47961e-19 -0 -2.51829e-20)
(-3.05324e-19 -1.10533e-18 -0 1.23456e-20 -0 2.92978e-19)
(3.81285e-19 -4.21475e-19 -0 -1.64313e-19 -0 -2.16972e-19)
(-1.66195e-19 -4.69225e-19 -0 3.32389e-19 -0 -1.66195e-19)
(-9.26311e-19 5.94976e-20 -0 6.5625e-19 -0 2.70061e-19)
(3.10328e-20 -1.33191e-19 -0 -6.20656e-20 -0 3.10328e-20)
(6.52525e-21 -2.71493e-19 -0 -1.30505e-20 -0 6.52525e-21)
(7.54463e-20 3.58356e-19 -0 -1.50893e-19 -0 7.54463e-20)
(5.11157e-19 2.48129e-19 -0 -4.24267e-19 -0 -8.68896e-20)
(4.64221e-19 9.82942e-20 -0 -3.30422e-19 -0 -1.33799e-19)
(-4.2917e-20 6.21539e-20 -0 8.58339e-20 -0 -4.2917e-20)
(-7.63111e-21 -1.93457e-21 -0 1.52622e-20 -0 -7.63111e-21)
(3.77832e-17 -1.5073e-16 -0 -7.13786e-17 -0 3.35954e-17)
(-9.99348e-18 1.41114e-16 -0 1.69925e-17 -0 -6.99901e-18)
(1.66078e-18 -3.04341e-17 -0 -3.32156e-18 -0 1.66078e-18)
(-4.91625e-19 7.02914e-18 -0 9.8325e-19 -0 -4.91625e-19)
(-8.42346e-19 -4.57571e-19 -0 4.87164e-19 -0 3.55182e-19)
(7.19211e-19 7.7083e-19 -0 -2.40943e-19 -0 -4.78269e-19)
(-1.01309e-18 1.10892e-18 -0 8.28792e-19 -0 1.84296e-19)
(-1.08796e-18 9.35856e-19 -0 9.78582e-19 -0 1.09377e-19)
(-9.0903e-19 1.19919e-18 -0 6.20817e-19 -0 2.88212e-19)
(5.33306e-19 1.17954e-18 -0 -4.68015e-19 -0 -6.52906e-20)
(1.43166e-18 1.0138e-18 -0 -1.06766e-18 -0 -3.63993e-19)
(1.56203e-19 8.40968e-19 -0 -3.12407e-19 -0 1.56203e-19)
(1.37694e-18 8.22821e-19 -0 -9.58449e-19 -0 -4.18494e-19)
(1.1975e-19 7.34921e-19 -0 -2.395e-19 -0 1.1975e-19)
(-1.77516e-20 7.22414e-19 -0 3.55031e-20 -0 -1.77516e-20)
(-5.61498e-19 7.25437e-19 -0 5.24613e-19 -0 3.6885e-20)
(-2.05516e-19 9.16857e-19 -0 4.11032e-19 -0 -2.05516e-19)
(-9.52079e-19 2.04165e-19 -0 7.07535e-19 -0 2.44544e-19)
(-2.71039e-20 1.0243e-19 -0 5.42078e-20 -0 -2.71039e-20)
(-1.28853e-22 -1.02346e-19 -0 2.57705e-22 -0 -1.28853e-22)
(-1.60486e-16 4.90737e-17 -0 2.88058e-16 -0 -1.27572e-16)
(5.92163e-17 -5.14435e-17 -0 -7.64964e-17 -0 1.72801e-17)
(-1.4262e-17 9.47789e-18 -0 1.77414e-17 -0 -3.47947e-18)
(3.10167e-18 -3.07741e-18 -0 -4.40632e-18 -0 1.30466e-18)
(6.75445e-19 -4.68468e-19 -0 -1.52978e-19 -0 -5.22467e-19)
(2.65677e-19 -6.62745e-19 -0 -5.31354e-19 -0 2.65677e-19)
(4.90685e-19 -7.35866e-19 -0 -3.82486e-19 -0 -1.08199e-19)
(7.31143e-19 -7.23753e-19 -0 -2.64568e-19 -0 -4.66575e-19)
(-1.68534e-19 5.09328e-20 -0 3.37068e-19 -0 -1.68534e-19)
(-9.64464e-19 -1.27579e-19 -0 7.31354e-19 -0 2.3311e-19)
(-6.79298e-22 -4.54795e-19 -0 1.3586e-21 -0 -6.79298e-22)
(1.21947e-19 -3.87756e-19 -0 -2.43894e-19 -0 1.21947e-19)
(9.28526e-20 -7.83786e-19 -0 -1.85705e-19 -0 9.28526e-20)
(-1.82828e-20 -7.34574e-19 -0 3.65655e-20 -0 -1.82828e-20)
(-7.0619e-20 -1.47391e-19 -0 1.41238e-19 -0 -7.0619e-20)
(-1.80489e-19 -1.15531e-18 -0 3.60979e-19 -0 -1.80489e-19)
(-6.28885e-19 -3.62542e-19 -0 6.59244e-19 -0 -3.03589e-20)
(-9.82407e-19 -1.69314e-19 -0 7.67813e-19 -0 2.14594e-19)
(-3.68836e-19 -1.69162e-19 -0 1.39194e-19 -0 2.29642e-19)
(4.40229e-19 -3.42017e-19 -0 -2.82016e-19 -0 -1.58213e-19)
(1.31746e-16 7.51463e-17 -0 -2.4793e-16 -0 1.16183e-16)
(-4.38625e-17 -7.18578e-17 -0 6.19588e-17 -0 -1.80963e-17)
(1.19458e-17 1.59836e-17 -0 -1.55035e-17 -0 3.5577e-18)
(-9.4198e-19 -3.69415e-18 -0 2.48309e-18 -0 -1.54111e-18)
(3.59837e-19 5.01726e-19 -0 -7.19674e-19 -0 3.59837e-19)
(-4.87614e-20 -7.48833e-19 -0 9.75228e-20 -0 -4.87614e-20)
(1.89627e-19 -4.87431e-19 -0 -3.79253e-19 -0 1.89627e-19)
(1.90388e-19 -4.70562e-19 -0 -3.80777e-19 -0 1.90388e-19)
(5.33789e-20 -1.34723e-18 -0 -1.06758e-19 -0 5.33789e-20)
(-4.67175e-19 -5.68938e-19 -0 3.35439e-19 -0 1.31736e-19)
(-1.35066e-19 -6.15514e-19 -0 2.70131e-19 -0 -1.35066e-19)
(3.96133e-19 -4.96606e-19 -0 -1.93427e-19 -0 -2.02706e-19)
(-3.26799e-21 -4.63353e-19 -0 6.53598e-21 -0 -3.26799e-21)
(-3.47137e-21 -5.16351e-19 -0 6.94273e-21 -0 -3.47137e-21)
(6.43387e-20 -1.12936e-18 -0 -1.28677e-19 -0 6.43387e-20)
(1.10831e-19 -2.32621e-19 -0 -2.21661e-19 -0 1.10831e-19)
(4.90624e-19 -8.72704e-19 -0 -3.82599e-19 -0 -1.08025e-19)
(4.53953e-19 -4.85133e-19 -0 -3.09284e-19 -0 -1.4467e-19)
(3.19955e-20 3.6251e-19 -0 -6.39911e-20 -0 3.19955e-20)
(-5.5825e-21 4.74576e-21 -0 1.1165e-20 -0 -5.5825e-21)
(-4.58376e-17 -1.13355e-16 -0 9.04778e-17 -0 -4.46403e-17)
(1.04732e-17 1.31772e-16 -0 -1.85493e-17 -0 8.07604e-18)
(-2.92505e-18 -2.70376e-17 -0 4.65162e-18 -0 -1.72657e-18)
(3.84764e-19 7.11166e-18 -0 -7.69529e-19 -0 3.84764e-19)
(-5.8474e-19 -9.09787e-19 -0 5.70314e-19 -0 1.44262e-20)
(-5.12826e-19 7.90613e-19 -0 4.2651e-19 -0 8.63161e-20)
(-1.17255e-19 -4.95812e-19 -0 2.3451e-19 -0 -1.17255e-19)
(-9.18724e-20 7.94447e-20 -0 1.83745e-19 -0 -9.18724e-20)
(-7.12154e-20 1.38911e-19 -0 1.42431e-19 -0 -7.12154e-20)
(2.802e-20 1.55095e-19 -0 -5.60401e-20 -0 2.802e-20)
(7.26583e-20 -5.52171e-19 -0 -1.45317e-19 -0 7.26583e-20)
(9.09374e-20 1.33175e-20 -0 -1.81875e-19 -0 9.09374e-20)
(7.88402e-20 -1.84613e-19 -0 -1.5768e-19 -0 7.88402e-20)
(8.8304e-20 6.20161e-20 -0 -1.76608e-19 -0 8.8304e-20)
(5.20362e-20 -1.95236e-20 -0 -1.04072e-19 -0 5.20362e-20)
(8.73964e-19 3.00437e-19 -0 -5.50369e-19 -0 -3.23595e-19)
(9.76008e-20 3.2e-19 -0 -1.95202e-19 -0 9.76008e-20)
(1.87857e-19 2.19279e-19 -0 -3.75713e-19 -0 1.87857e-19)
(-3.66843e-19 -6.77215e-19 -0 1.35001e-19 -0 2.31842e-19)
(3.78719e-19 -3.02513e-19 -0 -1.58789e-19 -0 -2.1993e-19)
(-2.16609e-17 9.74002e-17 -0 4.99077e-17 -0 -2.82468e-17)
(4.06164e-18 -1.30632e-16 -0 -1.17195e-17 -0 7.65784e-18)
(-3.47334e-18 2.66257e-17 -0 3.95015e-18 -0 -4.76808e-19)
(3.0101e-19 -5.70749e-18 -0 -6.02019e-19 -0 3.0101e-19)
(-2.7888e-19 1.54876e-18 -0 5.5776e-19 -0 -2.7888e-19)
(-1.36469e-19 3.47346e-19 -0 2.72937e-19 -0 -1.36469e-19)
(-9.79718e-19 9.78074e-19 -0 7.61115e-19 -0 2.18603e-19)
(-5.43398e-19 6.58539e-19 -0 4.8766e-19 -0 5.57379e-20)
(-2.69657e-20 5.69388e-19 -0 5.39314e-20 -0 -2.69657e-20)
(-4.21084e-19 4.13204e-19 -0 2.43104e-19 -0 1.77979e-19)
(4.16095e-19 7.87473e-19 -0 -2.33175e-19 -0 -1.8292e-19)
(-3.93338e-20 9.29711e-20 -0 7.86676e-20 -0 -3.93338e-20)
(4.16865e-19 4.38879e-19 -0 -2.34787e-19 -0 -1.82078e-19)
(8.13961e-20 1.22636e-19 -0 -1.62792e-19 -0 8.13961e-20)
(9.78941e-20 8.71568e-20 -0 -1.95788e-19 -0 9.78941e-20)
(1.15922e-19 -3.01049e-19 -0 -2.31844e-19 -0 1.15922e-19)
(5.56275e-19 -1.43161e-19 -0 -5.13751e-19 -0 -4.25243e-20)
(5.31238e-19 -3.87272e-19 -0 -4.63703e-19 -0 -6.75351e-20)
(1.26343e-20 -2.23144e-19 -0 -2.52685e-20 -0 1.26343e-20)
(3.77572e-22 3.21954e-19 -0 -7.55144e-22 -0 3.77572e-22)
(7.77128e-17 -6.33191e-17 -0 -1.76982e-16 -0 9.92688e-17)
(-4.23275e-18 8.82962e-17 -0 3.12437e-17 -0 -2.70109e-17)
(3.73381e-18 -1.60081e-17 -0 -8.66635e-18 -0 4.93254e-18)
(8.68201e-19 5.31794e-18 -0 1.2603e-18 -0 -2.1285e-18)
(-6.9498e-19 4.59223e-20 -0 1.91377e-19 -0 5.03604e-19)
(-6.03996e-20 9.43372e-19 -0 1.20799e-19 -0 -6.03996e-20)
(-3.66414e-20 7.13807e-19 -0 7.32828e-20 -0 -3.66414e-20)
(-8.36499e-20 1.34663e-18 -0 1.673e-19 -0 -8.36499e-20)
(-8.65949e-20 1.45341e-18 -0 1.7319e-19 -0 -8.65949e-20)
(-1.66758e-19 9.88226e-19 -0 3.33517e-19 -0 -1.66758e-19)
(-6.62562e-19 1.27138e-18 -0 7.26051e-19 -0 -6.34886e-20)
(-1.45158e-18 6.11138e-19 -0 1.10601e-18 -0 3.45566e-19)
(-5.20193e-19 5.32738e-19 -0 4.41385e-19 -0 7.88084e-20)
(-7.31076e-20 5.40493e-19 -0 1.46215e-19 -0 -7.31076e-20)
(9.99044e-21 5.27591e-19 -0 -1.99809e-20 -0 9.99044e-21)
(7.71769e-20 5.11146e-19 -0 -1.54354e-19 -0 7.71769e-20)
(9.08965e-19 -3.58721e-21 -0 -6.20216e-19 -0 -2.88749e-19)
(-1.5094e-20 4.35996e-19 -0 3.0188e-20 -0 -1.5094e-20)
(-3.89705e-19 1.18983e-19 -0 1.80602e-19 -0 2.09103e-19)
(3.97434e-19 1.63297e-20 -0 -1.96095e-19 -0 -2.01338e-19)
(-1.17186e-16 8.14066e-18 -0 2.61919e-16 -0 -1.44733e-16)
(1.49124e-17 -3.3664e-18 -0 -5.08067e-17 -0 3.58943e-17)
(-7.24693e-18 -8.01691e-19 -0 1.38944e-17 -0 -6.64751e-18)
(-1.32048e-18 -1.46252e-18 -0 -1.55483e-18 -0 2.87531e-18)
(1.40837e-18 -9.53782e-19 -0 -4.19335e-19 -0 -9.89032e-19)
(9.35947e-20 -9.39805e-19 -0 -1.87189e-19 -0 9.35947e-20)
(-9.38837e-19 -1.85398e-19 -0 6.7912e-19 -0 2.59716e-19)
(6.5119e-19 -7.64512e-19 -0 -1.03877e-19 -0 -5.47313e-19)
(-1.85593e-18 -8.03816e-19 -0 1.31504e-18 -0 5.40885e-19)
(-5.11484e-19 -1.11931e-18 -0 4.23789e-19 -0 8.76945e-20)
(-2.48105e-20 -8.79634e-19 -0 4.9621e-20 -0 -2.48105e-20)
(-4.58151e-21 -1.20482e-19 -0 9.16301e-21 -0 -4.58151e-21)
(3.20311e-19 4.6794e-19 -0 -4.15636e-20 -0 -2.78747e-19)
(-1.41835e-19 -7.36264e-20 -0 2.83671e-19 -0 -1.41835e-19)
(-4.76965e-19 4.60715e-19 -0 3.54943e-19 -0 1.22021e-19)
(-8.52405e-19 -1.52402e-19 -0 5.06889e-19 -0 3.45516e-19)
(-5.26681e-20 -4.77684e-21 -0 1.05336e-19 -0 -5.26681e-20)
(-1.87953e-20 6.35876e-20 -0 3.75905e-20 -0 -1.87953e-20)
(2.02515e-21 5.62259e-20 -0 -4.05029e-21 -0 2.02515e-21)
(-3.90868e-21 3.42298e-20 -0 7.81735e-21 -0 -3.90868e-21)
(1.04409e-16 8.83222e-17 -0 -2.20197e-16 -0 1.15788e-16)
(-2.22154e-17 -1.07079e-16 -0 4.80281e-17 -0 -2.58127e-17)
(8.01623e-18 2.03281e-17 -0 -1.24356e-17 -0 4.41933e-18)
(7.49821e-19 -5.86662e-18 -0 1.49765e-18 -0 -2.24747e-18)
(-3.86329e-20 6.22108e-19 -0 -5.22144e-19 -0 5.60777e-19)
(4.11752e-19 -1.22942e-18 -0 -2.24119e-19 -0 -1.87633e-19)
(3.54371e-20 -4.22251e-19 -0 -7.08741e-20 -0 3.54371e-20)
(-3.62469e-19 -5.73261e-19 -0 1.25626e-19 -0 2.36843e-19)
(4.26519e-19 -6.97381e-19 -0 -2.53775e-19 -0 -1.72744e-19)
(7.15483e-20 3.93023e-20 -0 -1.43097e-19 -0 7.15483e-20)
(5.3422e-19 5.11261e-19 -0 -4.69249e-19 -0 -6.49708e-20)
(5.35003e-19 6.92653e-19 -0 -4.70841e-19 -0 -6.41622e-20)
(-3.59466e-19 1.39635e-19 -0 1.19814e-19 -0 2.39652e-19)
(-3.91479e-19 -6.06104e-20 -0 1.83866e-19 -0 2.07613e-19)
(4.79685e-19 -2.03412e-19 -0 -3.60325e-19 -0 -1.1936e-19)
(4.03286e-19 4.73794e-19 -0 -2.07553e-19 -0 -1.95733e-19)
(-7.11615e-20 5.42894e-19 -0 1.42323e-19 -0 -7.11615e-20)
(-2.88667e-20 6.5351e-19 -0 5.77335e-20 -0 -2.88667e-20)
(-4.14787e-19 3.96138e-19 -0 2.30649e-19 -0 1.84138e-19)
(4.38271e-19 1.35071e-20 -0 -2.77654e-19 -0 -1.60617e-19)
(2.24093e-17 -1.54429e-16 -0 -1.90635e-17 -0 -3.34581e-18)
(-2.13525e-17 1.68389e-16 -0 1.27246e-17 -0 8.62792e-18)
(3.98881e-18 -3.2852e-17 -0 -2.58168e-18 -0 -1.40713e-18)
(-1.53771e-18 8.22219e-18 -0 6.77331e-19 -0 8.60382e-19)
(9.87979e-19 -7.46679e-19 -0 -7.77008e-19 -0 -2.10971e-19)
(9.37854e-20 1.04695e-18 -0 -1.87571e-19 -0 9.37854e-20)
(9.25197e-19 7.689e-20 -0 -6.51592e-19 -0 -2.73606e-19)
(1.02571e-19 1.47029e-19 -0 -2.05142e-19 -0 1.02571e-19)
(5.9344e-19 6.42609e-19 -0 -5.87551e-19 -0 -5.88831e-21)
(7.29933e-20 5.16705e-19 -0 -1.45987e-19 -0 7.29933e-20)
(-8.59385e-21 2.22649e-19 -0 1.71877e-20 -0 -8.59385e-21)
(-3.94857e-19 3.2133e-19 -0 1.90486e-19 -0 2.04372e-19)
(8.46995e-20 6.03242e-20 -0 -1.69399e-19 -0 8.46995e-20)
(5.25425e-19 7.64511e-19 -0 -4.51693e-19 -0 -7.37317e-20)
(-3.64046e-20 1.67218e-19 -0 7.28092e-20 -0 -3.64046e-20)
(-1.47856e-19 3.7436e-19 -0 2.95713e-19 -0 -1.47856e-19)
(-1.85686e-19 4.44389e-20 -0 3.71372e-19 -0 -1.85686e-19)
(-1.35213e-18 -1.98891e-20 -0 9.07226e-19 -0 4.44903e-19)
(-4.26652e-19 -4.55935e-20 -0 2.54316e-19 -0 1.72336e-19)
(4.01659e-19 3.6898e-19 -0 -2.04366e-19 -0 -1.97293e-19)
(-1.67208e-16 8.67212e-17 -0 2.94881e-16 -0 -1.27673e-16)
(6.56206e-17 -9.98215e-17 -0 -7.90693e-17 -0 1.34487e-17)
(-1.62371e-17 1.96917e-17 -0 1.86831e-17 -0 -2.44594e-18)
(3.25938e-18 -4.66429e-18 -0 -4.1204e-18 -0 8.61014e-19)
(-4.88781e-19 1.17262e-18 -0 9.77562e-19 -0 -4.88781e-19)
(-1.02221e-18 6.33576e-20 -0 8.45376e-19 -0 1.7683e-19)
(-9.8045e-19 -4.35542e-19 -0 7.61961e-19 -0 2.18489e-19)
(3.94692e-19 -6.75268e-19 -0 -1.8994e-19 -0 -2.04752e-19)
(6.18234e-19 -9.52879e-19 -0 -6.37072e-19 -0 1.88379e-20)
(1.07275e-18 -1.15537e-18 -0 -9.46769e-19 -0 -1.25985e-19)
(1.3948e-18 -8.84384e-19 -0 -9.91627e-19 -0 -4.0317e-19)
(1.25038e-19 -9.45402e-19 -0 -2.50076e-19 -0 1.25038e-19)
(-7.25799e-19 -6.41651e-19 -0 2.53098e-19 -0 4.72701e-19)
(8.44194e-19 -1.7856e-19 -0 -4.8994e-19 -0 -3.54253e-19)
(-1.01931e-18 -9.22387e-20 -0 8.40273e-19 -0 1.7904e-19)
(-1.44175e-18 -1.09958e-18 -0 1.08605e-18 -0 3.55703e-19)
(6.11446e-19 -1.24489e-18 -0 -2.46842e-20 -0 -5.86762e-19)
(-8.94504e-19 -7.82055e-19 -0 5.90853e-19 -0 3.03651e-19)
(2.96812e-20 -4.37546e-19 -0 -5.93623e-20 -0 2.96812e-20)
(-3.42357e-20 -3.23454e-19 -0 6.84713e-20 -0 -3.42357e-20)
(1.81341e-16 6.93337e-17 -0 -3.31529e-16 -0 1.50188e-16)
(-6.27373e-17 -4.96296e-17 -0 8.28927e-17 -0 -2.01554e-17)
(1.64247e-17 1.06092e-17 -0 -2.02561e-17 -0 3.83134e-18)
(-2.77253e-18 -1.90772e-18 -0 4.34574e-18 -0 -1.57321e-18)
(7.75905e-20 2.79428e-19 -0 -1.55181e-19 -0 7.75905e-20)
(-9.90348e-19 -6.13414e-19 -0 7.81524e-19 -0 2.08824e-19)
(3.78693e-20 3.49568e-19 -0 -7.57387e-20 -0 3.78693e-20)
(6.47172e-21 7.46312e-19 -0 -1.29434e-20 -0 6.47172e-21)
(-1.33666e-20 -7.48399e-20 -0 2.67332e-20 -0 -1.33666e-20)
(-3.6883e-19 2.50796e-19 -0 1.38221e-19 -0 2.30608e-19)
(6.91815e-20 -4.53566e-19 -0 -1.38363e-19 -0 6.91815e-20)
(4.42169e-19 -6.929e-19 -0 -2.84974e-19 -0 -1.57195e-19)
(-4.17763e-20 -4.1927e-19 -0 8.35525e-20 -0 -4.17763e-20)
(-3.58542e-20 -8.92347e-19 -0 7.17084e-20 -0 -3.58542e-20)
(4.96738e-20 -1.1974e-18 -0 -9.93475e-20 -0 4.96738e-20)
(9.00005e-20 -2.7432e-19 -0 -1.80001e-19 -0 9.00005e-20)
(1.12161e-19 -1.77113e-19 -0 -2.24321e-19 -0 1.12161e-19)
(1.10704e-19 -6.45052e-19 -0 -2.21409e-19 -0 1.10704e-19)
(4.83345e-19 1.61708e-19 -0 -3.67568e-19 -0 -1.15777e-19)
(4.09186e-19 6.26848e-20 -0 -2.19287e-19 -0 -1.89899e-19)
(3.17986e-18 -1.6678e-16 -0 8.61905e-18 -0 -1.17989e-17)
(-9.66229e-18 1.47552e-16 -0 3.12977e-18 -0 6.53252e-18)
(1.60923e-18 -3.00678e-17 -0 -2.19724e-19 -0 -1.38951e-18)
(-1.25782e-18 7.56259e-18 -0 7.16479e-19 -0 5.41344e-19)
(8.73635e-20 -9.00604e-19 -0 -1.74727e-19 -0 8.73635e-20)
(1.04466e-18 1.32225e-18 -0 -8.90034e-19 -0 -1.54631e-19)
(5.46565e-19 7.67296e-19 -0 -4.9353e-19 -0 -5.30345e-20)
(-2.5677e-20 3.00807e-19 -0 5.1354e-20 -0 -2.5677e-20)
(-2.62311e-19 8.08999e-19 -0 5.24622e-19 -0 -2.62311e-19)
(-1.55615e-18 8.18787e-19 -0 1.31379e-18 -0 2.42352e-19)
(-1.07191e-18 5.96351e-19 -0 9.44913e-19 -0 1.26996e-19)
(-6.04644e-19 7.19412e-19 -0 6.09863e-19 -0 -5.21867e-21)
(-4.76907e-19 6.74648e-19 -0 3.54435e-19 -0 1.22472e-19)
(-3.99557e-19 5.83238e-19 -0 1.99762e-19 -0 1.99795e-19)
(1.01915e-18 6.17897e-19 -0 -8.39694e-19 -0 -1.79459e-19)
(6.45754e-19 3.04622e-19 -0 -6.92229e-19 -0 4.64748e-20)
(1.04884e-18 5.2146e-19 -0 -8.99222e-19 -0 -1.49622e-19)
(9.01927e-19 7.5813e-19 -0 -6.05443e-19 -0 -2.96484e-19)
(-9.26941e-19 1.33225e-20 -0 6.55516e-19 -0 2.71425e-19)
(-4.11116e-20 1.16646e-19 -0 8.22232e-20 -0 -4.11116e-20)
(-1.91378e-16 4.99936e-17 -0 3.30028e-16 -0 -1.38649e-16)
(7.91863e-17 -5.47747e-17 -0 -8.99905e-17 -0 1.08042e-17)
(-1.93188e-17 9.40096e-18 -0 2.18436e-17 -0 -2.52479e-18)
(3.39581e-18 -3.52365e-18 -0 -4.39258e-18 -0 9.96767e-19)
(1.98497e-19 -7.75545e-19 -0 2.02719e-19 -0 -4.01216e-19)
(1.70713e-19 -7.02751e-19 -0 -3.41427e-19 -0 1.70713e-19)
(-4.09854e-19 -1.04308e-18 -0 2.20067e-19 -0 1.89787e-19)
(4.13309e-19 -1.33805e-18 -0 -2.27002e-19 -0 -1.86307e-19)
(-4.57684e-19 -1.07651e-18 -0 3.15798e-19 -0 1.41885e-19)
(-7.93596e-20 -9.32705e-19 -0 1.58719e-19 -0 -7.93596e-20)
(-6.26051e-20 -3.8204e-19 -0 1.2521e-19 -0 -6.26051e-20)
(-3.66852e-20 2.12947e-19 -0 7.33704e-20 -0 -3.66852e-20)
(4.21775e-19 4.71947e-19 -0 -2.44125e-19 -0 -1.7765e-19)
(-1.33246e-20 -1.39864e-19 -0 2.66492e-20 -0 -1.33246e-20)
(-4.31658e-19 8.30411e-19 -0 2.63964e-19 -0 1.67694e-19)
(-1.52991e-20 -1.94369e-20 -0 3.05983e-20 -0 -1.52991e-20)
(-1.00391e-21 3.77094e-20 -0 2.00782e-21 -0 -1.00391e-21)
(-8.42193e-19 -3.77914e-19 -0 4.8588e-19 -0 3.56313e-19)
(-5.53641e-19 -2.21331e-19 -0 5.08051e-19 -0 4.55893e-20)
(3.71357e-19 1.08571e-19 -0 -1.43521e-19 -0 -2.27836e-19)
(1.13527e-16 9.36032e-17 -0 -2.05483e-16 -0 9.19555e-17)
(-4.35614e-17 -9.39415e-17 -0 5.35664e-17 -0 -1.0005e-17)
(1.12254e-17 2.12067e-17 -0 -1.34625e-17 -0 2.23708e-18)
(-9.91032e-19 -4.61433e-18 -0 1.98206e-18 -0 -9.91032e-19)
(2.09459e-19 1.53645e-18 -0 -4.18919e-19 -0 2.09459e-19)
(-8.38578e-20 -1.63728e-19 -0 1.67716e-19 -0 -8.38578e-20)
(4.31133e-19 4.03127e-19 -0 -2.63046e-19 -0 -1.68087e-19)
(-3.10263e-19 6.72016e-19 -0 2.13065e-20 -0 2.88957e-19)
(9.86399e-19 3.48676e-19 -0 -7.74358e-19 -0 -2.12041e-19)
(6.03114e-19 2.26144e-19 -0 -6.07008e-19 -0 3.89398e-21)
(1.16214e-19 2.3254e-19 -0 -2.32429e-19 -0 1.16214e-19)
(1.04085e-19 -7.14482e-21 -0 -2.08169e-19 -0 1.04085e-19)
(5.36162e-20 -5.58994e-19 -0 -1.07232e-19 -0 5.36162e-20)
(4.59459e-20 6.52393e-20 -0 -9.18919e-20 -0 4.59459e-20)
(3.89411e-21 -5.77668e-19 -0 -7.78822e-21 -0 3.89411e-21)
(1.45789e-20 2.57974e-19 -0 -2.91578e-20 -0 1.45789e-20)
(-3.68191e-20 -3.59357e-20 -0 7.36382e-20 -0 -3.68191e-20)
(1.57588e-20 8.9039e-20 -0 -3.15176e-20 -0 1.57588e-20)
(5.69571e-19 2.90313e-19 -0 -5.39922e-19 -0 -2.96486e-20)
(4.61229e-19 -1.56727e-19 -0 -3.23238e-19 -0 -1.37991e-19)
)
;

boundaryField
{
    movingWall
    {
        type            calculated;
        value           nonuniform List<symmTensor> 
20
(
(2.42544e-16 8.09667e-18 -0 -4.65573e-16 -0 2.23029e-16)
(-6.94932e-17 -6.19232e-17 -0 1.08629e-16 -0 -3.91355e-17)
(1.77197e-17 2.02235e-17 -0 -2.73078e-17 -0 9.58814e-18)
(-2.43094e-18 -2.22509e-18 -0 4.86189e-18 -0 -2.43094e-18)
(4.43887e-19 3.95651e-18 -0 -8.87773e-19 -0 4.43887e-19)
(-1.69904e-19 2.51641e-18 -0 3.39808e-19 -0 -1.69904e-19)
(4.10299e-19 2.3141e-18 -0 -2.78496e-19 -0 -1.31803e-19)
(-2.81573e-19 2.2863e-18 -0 2.10458e-20 -0 2.60528e-19)
(9.47318e-19 2.70892e-18 -0 -8.10434e-19 -0 -1.36884e-19)
(5.59599e-19 1.2658e-18 -0 -5.77098e-19 -0 1.74984e-20)
(4.72819e-20 1.27159e-18 -0 -9.45638e-20 -0 4.72819e-20)
(3.63943e-20 1.3258e-18 -0 -7.27886e-20 -0 3.63943e-20)
(3.00452e-20 4.8048e-19 -0 -6.00904e-20 -0 3.00452e-20)
(1.33438e-19 9.47199e-19 -0 -2.66875e-19 -0 1.33438e-19)
(1.87433e-19 4.63587e-19 -0 -3.74867e-19 -0 1.87433e-19)
(1.85432e-19 8.50511e-19 -0 -3.70863e-19 -0 1.85432e-19)
(8.69866e-20 8.55668e-19 -0 -1.73973e-19 -0 8.69866e-20)
(9.87376e-20 9.6873e-19 -0 -1.97475e-19 -0 9.87376e-20)
(6.63192e-19 8.79767e-19 -0 -7.84282e-19 -0 1.21091e-19)
(4.37709e-19 -1.41787e-19 -0 -3.33317e-19 -0 -1.04392e-19)
)
;
    }
    fixedWalls
    {
        type            calculated;
        value           nonuniform List<symmTensor> 
60
(
(1.88097e-16 -6.17853e-16 -0 -2.57177e-16 -0 6.90808e-17)
(-3.21585e-16 -5.28236e-17 -0 4.44218e-16 -0 -1.22633e-16)
(8.98392e-17 5.65723e-16 -0 -1.26388e-16 -0 3.65485e-17)
(1.65884e-16 -4.01464e-16 -0 -2.12751e-16 -0 4.68677e-17)
(-2.51074e-16 1.23329e-17 -0 3.10301e-16 -0 -5.92275e-17)
(1.92911e-16 3.94243e-16 -0 -2.22397e-16 -0 2.9486e-17)
(3.99964e-17 -5.3724e-16 -0 -6.75584e-17 -0 2.75619e-17)
(-2.2912e-16 1.8774e-16 -0 3.02809e-16 -0 -7.36887e-17)
(1.69133e-16 2.74572e-16 -0 -2.49448e-16 -0 8.03151e-17)
(-4.61137e-17 -4.90218e-16 -0 8.42339e-17 -0 -3.81201e-17)
(-1.17456e-17 4.90278e-16 -0 4.12547e-17 -0 -2.95091e-17)
(2.41556e-17 -3.29988e-16 -0 -1.37129e-16 -0 1.12973e-16)
(-5.75756e-17 7.96178e-18 -0 2.12851e-16 -0 -1.55275e-16)
(8.24271e-17 3.98675e-16 -0 -1.93276e-16 -0 1.10849e-16)
(8.05331e-17 -6.28748e-16 -0 -4.73794e-17 -0 -3.31537e-17)
(-2.57733e-16 3.74018e-16 -0 3.20067e-16 -0 -6.23337e-17)
(2.51879e-16 1.89179e-16 -0 -3.43887e-16 -0 9.20074e-17)
(3.52904e-17 -5.55775e-16 -0 -8.40829e-18 -0 -2.68821e-17)
(-3.11869e-16 2.00919e-16 -0 3.67943e-16 -0 -5.60738e-17)
(1.69039e-16 3.61377e-16 -0 -2.19063e-16 -0 5.00233e-17)
(6.42918e-19 2.20435e-19 -0 -3.97657e-19 -0 -2.45261e-19)
(-1.30582e-18 6.26459e-19 -0 8.35289e-19 -0 4.70534e-19)
(-1.27582e-18 -5.09075e-19 -0 7.75287e-19 -0 5.00535e-19)
(7.05004e-20 -1.00725e-18 -0 -1.41001e-19 -0 7.05004e-20)
(8.12459e-20 -8.60724e-20 -0 -1.62492e-19 -0 8.12459e-20)
(-6.91821e-21 2.23293e-20 -0 1.38364e-20 -0 -6.91821e-21)
(-1.16758e-22 -1.27582e-19 -0 2.33517e-22 -0 -1.16758e-22)
(6.29501e-19 -2.49422e-19 -0 -3.70824e-19 -0 -2.58677e-19)
(5.87063e-19 9.67119e-20 -0 -2.85948e-19 -0 -3.01115e-19)
(1.16578e-18 -2.79757e-19 -0 -5.55208e-19 -0 -6.10574e-19)
(5.92461e-19 2.57031e-19 -0 -2.96743e-19 -0 -2.95718e-19)
(5.90537e-19 -6.65539e-21 -0 -2.92895e-19 -0 -2.97642e-19)
(-3.5384e-21 -2.35136e-20 -0 7.0768e-21 -0 -3.5384e-21)
(6.27432e-19 -2.78858e-20 -0 -3.66685e-19 -0 -2.60747e-19)
(5.94253e-19 4.59415e-19 -0 -3.00327e-19 -0 -2.93926e-19)
(-3.09827e-20 -2.86134e-19 -0 6.19653e-20 -0 -3.09827e-20)
(6.00983e-19 2.46819e-21 -0 -3.13788e-19 -0 -2.87195e-19)
(1.14704e-18 3.81014e-20 -0 -5.17724e-19 -0 -6.29316e-19)
(5.66692e-19 5.03347e-20 -0 -2.45205e-19 -0 -3.21487e-19)
(5.5863e-20 -1.14462e-19 -0 -1.11726e-19 -0 5.5863e-20)
(4.18227e-16 -6.00542e-17 -0 -8.16937e-16 -0 3.98711e-16)
(-1.06622e-16 1.24259e-16 -0 1.82886e-16 -0 -7.62644e-17)
(2.63507e-17 -3.25484e-17 -0 -4.40278e-17 -0 1.76771e-17)
(-4.68618e-18 4.67101e-18 -0 8.83026e-18 -0 -4.14408e-18)
(1.00686e-18 -4.70893e-18 -0 -2.01371e-18 -0 1.00686e-18)
(6.65516e-19 -1.8889e-18 -0 -2.46829e-19 -0 -4.18686e-19)
(4.84136e-19 -1.858e-18 -0 -4.26171e-19 -0 -5.79652e-20)
(1.60431e-19 -1.35185e-18 -0 -3.20862e-19 -0 1.60431e-19)
(5.36357e-19 -4.90679e-19 -0 -5.30613e-19 -0 -5.74383e-21)
(2.8467e-19 -6.32858e-19 -0 -5.69341e-19 -0 2.8467e-19)
(1.03974e-18 -5.91321e-19 -0 -1.53738e-18 -0 4.97639e-19)
(1.76149e-18 1.05263e-18 -0 -1.89668e-18 -0 1.35187e-19)
(2.39799e-19 2.11769e-18 -0 -4.79598e-19 -0 2.39799e-19)
(-5.94329e-19 2.02143e-18 -0 6.46557e-19 -0 -5.22278e-20)
(-4.1372e-19 9.94291e-19 -0 8.2744e-19 -0 -4.1372e-19)
(-1.2387e-18 -4.4885e-20 -0 1.39319e-18 -0 -1.54493e-19)
(-6.55427e-19 -6.17811e-19 -0 7.68753e-19 -0 -1.13326e-19)
(-5.26354e-20 -6.39961e-19 -0 1.05271e-19 -0 -5.26354e-20)
(2.28299e-19 -5.18936e-19 -0 -4.56599e-19 -0 2.28299e-19)
(5.08357e-19 -3.03368e-19 -0 -4.74614e-19 -0 -3.37436e-20)
)
;
    }
    frontAndBack
    {
        type            empty;
    }
}


// ************************************************************************* //
