/*--------------------------------*- C++ -*----------------------------------*\
| =========                 |                                                 |
| \\      /  F ield         | OpenFOAM: The Open Source CFD Toolbox           |
|  \\    /   O peration     | Version:  2506                                  |
|   \\  /    A nd           | Website:  www.openfoam.com                      |
|    \\/     M anipulation  |                                                 |
\*---------------------------------------------------------------------------*/
FoamFile
{
    version     2.0;
    format      ascii;
    arch        "LSB;label=32;scalar=64";
    class       volScalarField;
    location    "9";
    object      turbulenceProperties:omega;
}
// * * * * * * * * * * * * * * * * * * * * * * * * * * * * * * * * * * * * * //

dimensions      [0 0 -1 0 0 0 0];

internalField   nonuniform List<scalar> 
400
(
3.12396
3.12396
3.12396
3.12396
3.12396
3.12396
3.12396
3.12396
3.12396
3.12396
3.12396
3.12396
3.12396
3.12396
3.12396
3.12396
3.12396
3.12396
3.12396
3.12396
3.14757
3.11456
3.11744
3.11864
3.12101
3.12224
3.1246
3.12585
3.12822
3.1295
3.13185
3.13317
3.13551
3.13686
3.1392
3.14057
3.14291
3.14431
3.14548
3.14735
3.18511
3.15072
3.15378
3.15504
3.15755
3.15883
3.16132
3.16262
3.16511
3.16643
3.1689
3.17024
3.1727
3.17407
3.17652
3.1779
3.18034
3.18174
3.18296
3.18488
3.22496
3.18971
3.19286
3.19414
3.19672
3.19802
3.20059
3.20192
3.20447
3.20581
3.20836
3.20973
3.21225
3.21365
3.21616
3.21758
3.22008
3.22151
3.22276
3.22473
3.259
3.223
3.2262
3.22752
3.23014
3.23148
3.2341
3.23546
3.23806
3.23944
3.24203
3.24343
3.24601
3.24744
3.25
3.25145
3.25401
3.25547
3.25675
3.25876
3.28427
3.24769
3.25094
3.25229
3.25494
3.25631
3.25896
3.26035
3.26299
3.2644
3.26702
3.26846
3.27107
3.27252
3.27512
3.2766
3.27919
3.28069
3.28198
3.28402
3.30141
3.26443
3.26773
3.26908
3.27177
3.27314
3.27583
3.27722
3.2799
3.28132
3.28398
3.28542
3.28806
3.28953
3.29217
3.29365
3.29628
3.29779
3.2991
3.30116
3.3125
3.27527
3.27858
3.27995
3.28265
3.28404
3.28675
3.28815
3.29084
3.29227
3.29495
3.29641
3.29906
3.30055
3.30319
3.3047
3.30733
3.30886
3.31017
3.31225
3.3197
3.2823
3.28563
3.287
3.28972
3.29112
3.29383
3.29524
3.29795
3.29939
3.30207
3.30354
3.3062
3.30769
3.31035
3.31186
3.31451
3.31604
3.31737
3.31945
3.32468
3.28716
3.2905
3.29187
3.2946
3.296
3.29872
3.30014
3.30285
3.30429
3.30699
3.30845
3.31114
3.31262
3.3153
3.31681
3.31947
3.321
3.32233
3.32442
3.32853
3.29092
3.29427
3.29564
3.29839
3.29978
3.30251
3.30393
3.30665
3.30809
3.3108
3.31226
3.31496
3.31644
3.31913
3.32063
3.3233
3.32484
3.32617
3.32827
3.33193
3.29424
3.29759
3.29898
3.30172
3.30312
3.30586
3.30728
3.31
3.31145
3.31415
3.31563
3.31832
3.31982
3.3225
3.32402
3.32669
3.32823
3.32957
3.33167
3.33527
3.29751
3.30087
3.30225
3.30501
3.30641
3.30915
3.31057
3.31331
3.31475
3.31747
3.31894
3.32165
3.32314
3.32583
3.32735
3.33003
3.33157
3.33291
3.33502
3.33878
3.30094
3.3043
3.30569
3.30845
3.30985
3.3126
3.31402
3.31677
3.31821
3.32094
3.32241
3.32512
3.32662
3.32931
3.33084
3.33352
3.33507
3.33641
3.33852
3.34253
3.3046
3.30797
3.30936
3.31212
3.31353
3.31629
3.31772
3.32046
3.32192
3.32464
3.32612
3.32884
3.33034
3.33304
3.33457
3.33726
3.33881
3.34015
3.34227
3.34647
3.30846
3.31184
3.31323
3.316
3.31742
3.32017
3.32161
3.32435
3.32582
3.32854
3.33004
3.33275
3.33426
3.33696
3.3385
3.34119
3.34275
3.34409
3.34621
3.35043
3.31233
3.31571
3.31711
3.31988
3.3213
3.32407
3.32551
3.32826
3.32973
3.33246
3.33396
3.33667
3.33819
3.3409
3.34243
3.34513
3.34669
3.34804
3.35017
3.35404
3.31586
3.31925
3.32066
3.32343
3.32486
3.32762
3.32907
3.33182
3.33329
3.33603
3.33753
3.34025
3.34177
3.34448
3.34603
3.34873
3.35029
3.35165
3.35378
3.35683
3.31932
3.32259
3.32394
3.32664
3.32802
3.33073
3.33213
3.33483
3.33627
3.33896
3.34044
3.34312
3.34463
3.3473
3.34886
3.35152
3.35311
3.35445
3.35658
3.35812
3.35812
3.35812
3.35812
3.35812
3.35812
3.35812
3.35812
3.35812
3.35812
3.35812
3.35812
3.35812
3.35812
3.35812
3.35812
3.35812
3.35812
3.35812
3.35812
)
;

boundaryField
{
    movingWall
    {
        type            calculated;
        value           nonuniform List<scalar> 
20
(
3.35812
3.35812
3.35812
3.35812
3.35812
3.35812
3.35812
3.35812
3.35812
3.35812
3.35812
3.35812
3.35812
3.35812
3.35812
3.35812
3.35812
3.35812
3.35812
3.35812
)
;
    }
    fixedWalls
    {
        type            calculated;
        value           nonuniform List<scalar> 
60
(
3.12396
3.14757
3.18511
3.22496
3.259
3.28427
3.30141
3.3125
3.3197
3.32468
3.32853
3.33193
3.33527
3.33878
3.34253
3.34647
3.35043
3.35404
3.35683
3.35812
3.12396
3.14735
3.18488
3.22473
3.25876
3.28402
3.30116
3.31225
3.31945
3.32442
3.32827
3.33167
3.33502
3.33852
3.34227
3.34621
3.35017
3.35378
3.35658
3.35812
3.12396
3.12396
3.12396
3.12396
3.12396
3.12396
3.12396
3.12396
3.12396
3.12396
3.12396
3.12396
3.12396
3.12396
3.12396
3.12396
3.12396
3.12396
3.12396
3.12396
)
;
    }
    frontAndBack
    {
        type            empty;
    }
}


// ************************************************************************* //
