/*--------------------------------*- C++ -*----------------------------------*\
| =========                 |                                                 |
| \\      /  F ield         | OpenFOAM: The Open Source CFD Toolbox           |
|  \\    /   O peration     | Version:  2506                                  |
|   \\  /    A nd           | Website:  www.openfoam.com                      |
|    \\/     M anipulation  |                                                 |
\*---------------------------------------------------------------------------*/
FoamFile
{
    version     2.0;
    format      ascii;
    arch        "LSB;label=32;scalar=64";
    class       volTensorField;
    location    "9";
    object      U2;
}
// * * * * * * * * * * * * * * * * * * * * * * * * * * * * * * * * * * * * * //

dimensions      [0 2 -2 0 0 0 0];

internalField   nonuniform List<tensor> 
400
(
(1 -1.50962e-13 -0 -1.51956e-13 2.29395e-26 0 -0 0 0)
(1 3.24288e-14 -0 3.23939e-14 1.05049e-27 -0 -0 -0 0)
(1 -7.73422e-15 -0 -7.71312e-15 5.96549e-29 0 -0 0 0)
(1 1.62631e-15 -0 1.62179e-15 2.63753e-30 -0 -0 -0 0)
(1 -2.90394e-16 -0 -3.77571e-16 1.09645e-31 0 -0 0 0)
(1 5.80856e-17 -0 2.14821e-17 1.2478e-33 -0 -0 -0 0)
(1 -3.17849e-17 -0 -4.60257e-17 1.46292e-33 0 -0 0 0)
(1 -4.96183e-17 -0 -6.01615e-17 2.98512e-33 0 -0 0 0)
(1 -4.77328e-17 -0 -6.56087e-17 3.13169e-33 0 -0 0 0)
(1 -3.57856e-17 -0 -1.06751e-16 3.82017e-33 0 -0 0 0)
(1 -1.76596e-16 -0 -2.54377e-16 4.49219e-32 0 -0 0 0)
(1 -2.38716e-16 -0 -2.53983e-16 6.06298e-32 0 -0 0 0)
(1 -2.32855e-16 -0 -8.99245e-17 2.09393e-32 0 -0 0 0)
(1 -3.44471e-17 -0 8.7348e-17 -3.00889e-33 -0 -0 0 0)
(1 7.82732e-17 -0 1.55145e-16 1.21437e-32 -0 -0 -0 0)
(1 1.56476e-16 -0 1.9346e-16 3.02718e-32 -0 -0 -0 0)
(1 1.49742e-16 -0 1.1026e-16 1.65105e-32 -0 -0 -0 0)
(1 3.22334e-17 -0 1.97383e-17 6.36232e-34 -0 -0 -0 0)
(1 -1.68411e-17 -0 -8.56123e-17 1.4418e-33 0 -0 0 0)
(1 -3.89204e-18 -0 -5.51088e-17 2.14486e-34 0 -0 0 0)
(1 -1.01014e-14 -0 -1.1173e-14 1.12863e-28 0 -0 0 0)
(1 2.14699e-15 -0 1.78517e-15 3.83273e-30 -0 -0 -0 0)
(1 -5.61644e-16 -0 -5.99637e-16 3.36783e-31 0 -0 0 0)
(1 1.01614e-16 -0 4.04225e-17 4.10748e-33 -0 -0 -0 0)
(1 5.52514e-17 -0 -6.77445e-17 -3.74298e-33 0 -0 -0 0)
(1 -5.18371e-17 -0 -1.07846e-16 5.59045e-33 0 -0 0 0)
(1 -8.89324e-17 -0 -1.29536e-16 1.152e-32 0 -0 0 0)
(1 -1.20758e-16 -0 -1.38203e-16 1.66891e-32 0 -0 0 0)
(1 -8.25985e-17 -0 -1.46194e-16 1.20754e-32 0 -0 0 0)
(1 -6.25182e-17 -0 -6.49103e-17 4.05808e-33 0 -0 0 0)
(1 -7.10566e-17 -0 -3.40407e-17 2.41882e-33 0 -0 0 0)
(1 -1.10449e-16 -0 -1.05378e-16 1.16389e-32 0 -0 0 0)
(1 -1.62378e-16 -0 -5.17394e-17 8.40137e-33 0 -0 0 0)
(1 -6.03325e-17 -0 4.55125e-17 -2.74588e-33 -0 -0 0 0)
(1 6.0047e-17 -0 1.16204e-16 6.97771e-33 -0 -0 -0 0)
(1 1.3307e-16 -0 1.27156e-16 1.69206e-32 -0 -0 -0 0)
(1 7.5772e-17 -0 3.00531e-17 2.27718e-33 -0 -0 -0 0)
(1 -7.05361e-17 -0 -1.33266e-17 9.40009e-34 0 -0 0 0)
(1 -4.62949e-17 -0 -5.08644e-17 2.35476e-33 0 -0 0 0)
(1 4.64333e-17 -0 -2.10895e-17 -9.79254e-34 0 -0 -0 0)
(1 1.3175e-13 -0 1.3147e-13 1.73211e-26 -0 -0 -0 0)
(1 -2.80229e-14 -0 -2.84413e-14 7.97006e-28 0 -0 0 0)
(1 6.7269e-15 -0 6.55626e-15 4.41033e-29 -0 -0 -0 0)
(1 -1.32233e-15 -0 -1.40823e-15 1.86214e-30 0 -0 0 0)
(1 3.73642e-16 -0 3.46121e-16 1.29326e-31 -0 -0 -0 0)
(1 -4.18807e-17 -0 -9.10294e-17 3.81237e-33 0 -0 0 0)
(1 -8.97743e-18 -0 -8.84373e-17 7.93939e-34 0 -0 0 0)
(1 -4.60683e-17 -0 -1.03538e-16 4.76984e-33 0 -0 0 0)
(1 -5.03711e-17 -0 -1.31772e-16 6.63753e-33 0 -0 0 0)
(1 -1.14877e-16 -0 -9.36481e-17 1.0758e-32 0 -0 0 0)
(1 -4.23638e-17 -0 1.06065e-16 -4.49331e-33 -0 -0 0 0)
(1 1.92816e-17 -0 1.34009e-16 2.5839e-33 -0 -0 -0 0)
(1 9.32637e-17 -0 1.33246e-16 1.2427e-32 -0 -0 -0 0)
(1 3.4078e-17 -0 5.45522e-17 1.85903e-33 -0 -0 -0 0)
(1 1.83368e-17 -0 7.48004e-17 1.3716e-33 -0 -0 -0 0)
(1 9.41151e-17 -0 1.1564e-16 1.08834e-32 -0 -0 -0 0)
(1 8.9324e-17 -0 1.40105e-17 1.25147e-33 -0 -0 -0 0)
(1 -2.17566e-17 -0 -7.0796e-17 1.54028e-33 0 -0 0 0)
(1 -1.25691e-17 -0 8.55064e-17 -1.07474e-33 -0 -0 0 0)
(1 1.10307e-16 -0 1.27269e-16 1.40387e-32 -0 -0 -0 0)
(1 -9.20198e-14 -0 -9.26411e-14 8.52481e-27 0 -0 0 0)
(1 2.02023e-14 -0 2.0001e-14 4.04067e-28 -0 -0 -0 0)
(1 -4.63779e-15 -0 -4.87817e-15 2.26239e-29 0 -0 0 0)
(1 1.15061e-15 -0 9.63619e-16 1.10875e-30 -0 -0 -0 0)
(1 -1.16645e-16 -0 -1.69218e-16 1.97385e-32 0 -0 0 0)
(1 1.46435e-16 -0 1.00658e-16 1.47399e-32 -0 -0 -0 0)
(1 2.89436e-17 -0 4.16797e-18 1.20636e-34 -0 -0 -0 0)
(1 4.93719e-17 -0 3.80751e-17 1.87984e-33 -0 -0 -0 0)
(1 5.10415e-17 -0 -1.66532e-17 -8.50006e-34 0 -0 -0 0)
(1 -4.77437e-17 -0 -2.05173e-16 9.7957e-33 0 -0 0 0)
(1 -1.70875e-16 -0 -1.70168e-16 2.90773e-32 0 -0 0 0)
(1 -1.60586e-16 -0 -6.19938e-17 9.95531e-33 0 -0 0 0)
(1 -5.27032e-17 -0 4.84773e-17 -2.55491e-33 -0 -0 0 0)
(1 -5.09758e-17 -0 2.15955e-17 -1.10085e-33 -0 -0 0 0)
(1 -1.0469e-16 -0 -2.36555e-17 2.47649e-33 0 -0 0 0)
(1 -1.32612e-17 -0 1.07408e-16 -1.42436e-33 -0 -0 0 0)
(1 1.47623e-16 -0 9.87347e-17 1.45755e-32 -0 -0 -0 0)
(1 1.43445e-16 -0 -4.4104e-18 -6.32652e-34 0 -0 -0 0)
(1 8.81148e-17 -0 6.65789e-17 5.86659e-33 -0 -0 -0 0)
(1 1.25858e-16 -0 1.16286e-16 1.46356e-32 -0 -0 -0 0)
(1 2.17942e-15 -0 1.66021e-15 3.61829e-30 -0 -0 -0 0)
(1 -7.07309e-16 -0 -9.74476e-16 6.89255e-31 0 -0 0 0)
(1 1.59802e-16 -0 -7.12317e-17 -1.1383e-32 0 -0 -0 0)
(1 1.40021e-18 -0 -2.09463e-16 -2.93293e-34 0 -0 -0 0)
(1 5.77987e-17 -0 -4.17244e-17 -2.41162e-33 0 -0 -0 0)
(1 6.30375e-17 -0 -3.66164e-17 -2.30821e-33 0 -0 -0 0)
(1 -1.30703e-17 -0 -3.2443e-17 4.24042e-34 0 -0 0 0)
(1 -2.86844e-17 -0 4.40226e-18 -1.26276e-34 -0 -0 0 0)
(1 -5.74125e-17 -0 -5.85887e-17 3.36372e-33 0 -0 0 0)
(1 -4.41088e-17 -0 -1.00846e-16 4.4482e-33 0 -0 0 0)
(1 -4.99982e-19 -0 -6.4206e-17 3.21018e-35 0 -0 0 0)
(1 -8.27664e-17 -0 -7.77932e-17 6.43866e-33 0 -0 0 0)
(1 -9.54581e-17 -0 4.24953e-18 -4.05652e-34 -0 -0 0 0)
(1 6.23254e-17 -0 1.22453e-16 7.63194e-33 -0 -0 -0 0)
(1 6.79292e-17 -0 4.06777e-17 2.76321e-33 -0 -0 -0 0)
(1 3.09823e-17 -0 2.41287e-17 7.47564e-34 -0 -0 -0 0)
(1 6.18362e-17 -0 2.87685e-17 1.77894e-33 -0 -0 -0 0)
(1 1.18038e-16 -0 2.82037e-17 3.3291e-33 -0 -0 -0 0)
(1 6.47064e-17 -0 2.48576e-18 1.60844e-34 -0 -0 -0 0)
(1 6.73336e-17 -0 2.15181e-17 1.44889e-33 -0 -0 -0 0)
(1 9.24433e-14 -0 9.21234e-14 8.51619e-27 -0 -0 -0 0)
(1 -2.01566e-14 -0 -2.04549e-14 4.12301e-28 0 -0 0 0)
(1 4.8719e-15 -0 4.60512e-15 2.24357e-29 -0 -0 -0 0)
(1 -9.41147e-16 -0 -1.14506e-15 1.07767e-30 0 -0 0 0)
(1 1.91418e-16 -0 4.72493e-17 9.04437e-33 -0 -0 -0 0)
(1 -9.84195e-17 -0 -1.95744e-16 1.9265e-32 0 -0 0 0)
(1 -1.01984e-16 -0 -2.42551e-16 2.47364e-32 0 -0 0 0)
(1 -2.30039e-16 -0 -3.34788e-16 7.70142e-32 0 -0 0 0)
(1 -2.58656e-16 -0 -2.14421e-16 5.54613e-32 0 -0 0 0)
(1 -1.51869e-16 -0 1.61668e-17 -2.45524e-33 -0 -0 0 0)
(1 1.21773e-17 -0 1.39332e-16 1.69668e-33 -0 -0 -0 0)
(1 9.79842e-17 -0 1.76355e-16 1.728e-32 -0 -0 -0 0)
(1 2.24904e-16 -0 2.56234e-16 5.7628e-32 -0 -0 -0 0)
(1 3.37845e-16 -0 2.30274e-16 7.77968e-32 -0 -0 -0 0)
(1 2.60423e-16 -0 1.35525e-16 3.5294e-32 -0 -0 -0 0)
(1 1.08233e-16 -0 -1.57936e-17 -1.70939e-33 0 -0 -0 0)
(1 -1.42925e-17 -0 -8.17668e-17 1.16865e-33 0 -0 0 0)
(1 -3.27509e-17 -0 -6.19265e-17 2.02814e-33 0 -0 0 0)
(1 -1.05198e-17 -0 7.33617e-18 -7.71748e-35 -0 -0 0 0)
(1 2.19236e-17 -0 -5.58233e-18 -1.22384e-34 0 -0 -0 0)
(1 -1.24315e-13 -0 -1.24281e-13 1.545e-26 0 -0 0 0)
(1 2.80152e-14 -0 2.78154e-14 7.79253e-28 -0 -0 -0 0)
(1 -6.13161e-15 -0 -6.30684e-15 3.86711e-29 0 -0 0 0)
(1 1.70975e-15 -0 1.61988e-15 2.7696e-30 -0 -0 -0 0)
(1 -1.33488e-16 -0 -2.14452e-16 2.86269e-32 0 -0 0 0)
(1 2.51314e-16 -0 1.21414e-16 3.0513e-32 -0 -0 -0 0)
(1 1.51076e-16 -0 -5.8641e-17 -8.85926e-33 0 -0 -0 0)
(1 -2.96123e-17 -0 -2.29741e-16 6.80318e-33 0 -0 0 0)
(1 -1.84942e-16 -0 -2.95415e-16 5.46345e-32 0 -0 0 0)
(1 -3.05245e-16 -0 -2.27982e-16 6.95904e-32 0 -0 0 0)
(1 -2.24463e-16 -0 -4.03481e-17 9.05666e-33 0 -0 0 0)
(1 3.9944e-17 -0 1.48108e-16 5.91604e-33 -0 -0 -0 0)
(1 2.06447e-16 -0 1.7924e-16 3.70036e-32 -0 -0 -0 0)
(1 1.73911e-16 -0 8.02665e-17 1.39592e-32 -0 -0 -0 0)
(1 1.24143e-16 -0 3.18065e-17 3.94854e-33 -0 -0 -0 0)
(1 1.87692e-17 -0 -7.84465e-17 -1.47238e-33 0 -0 -0 0)
(1 -6.32359e-17 -0 -1.2414e-16 7.8501e-33 0 -0 0 0)
(1 -1.05124e-16 -0 -6.09149e-17 6.40364e-33 0 -0 0 0)
(1 2.35061e-17 -0 6.08438e-17 1.4302e-33 -0 -0 -0 0)
(1 4.63049e-17 -0 3.18954e-17 1.47691e-33 -0 -0 -0 0)
(1 4.46378e-14 -0 4.45633e-14 1.9892e-27 -0 -0 -0 0)
(1 -9.44926e-15 -0 -9.59674e-15 9.06821e-29 0 -0 0 0)
(1 2.4428e-15 -0 2.34996e-15 5.74049e-30 -0 -0 -0 0)
(1 -4.33864e-16 -0 -4.77458e-16 2.07152e-31 0 -0 0 0)
(1 1.99061e-16 -0 1.06995e-16 2.12986e-32 -0 -0 -0 0)
(1 2.47976e-17 -0 -8.83059e-17 -2.18977e-33 0 -0 -0 0)
(1 9.54471e-17 -0 4.92365e-17 4.69948e-33 -0 -0 -0 0)
(1 1.04668e-16 -0 5.87504e-17 6.1493e-33 -0 -0 -0 0)
(1 1.81834e-17 -0 -6.38207e-17 -1.16048e-33 0 -0 -0 0)
(1 -1.00286e-16 -0 -1.66191e-16 1.66667e-32 0 -0 0 0)
(1 -1.33098e-16 -0 -1.79322e-16 2.38675e-32 0 -0 0 0)
(1 -8.19083e-17 -0 -3.58622e-17 2.93741e-33 0 -0 0 0)
(1 -1.52692e-17 -0 1.16889e-17 -1.78479e-34 -0 -0 0 0)
(1 1.80365e-17 -0 6.75628e-17 1.21859e-33 -0 -0 -0 0)
(1 9.02472e-17 -0 1.59647e-16 1.44077e-32 -0 -0 -0 0)
(1 1.7632e-16 -0 2.05133e-16 3.6169e-32 -0 -0 -0 0)
(1 2.12213e-16 -0 1.97533e-16 4.19192e-32 -0 -0 -0 0)
(1 1.69167e-16 -0 1.4782e-16 2.50063e-32 -0 -0 -0 0)
(1 8.18854e-17 -0 4.41738e-17 3.61719e-33 -0 -0 -0 0)
(1 1.35503e-17 -0 -5.40719e-18 -7.32693e-35 0 -0 -0 0)
(1 6.44068e-14 -0 6.39674e-14 4.11994e-27 -0 -0 -0 0)
(1 -1.45351e-14 -0 -1.46128e-14 2.12399e-28 0 -0 0 0)
(1 3.37225e-15 -0 3.29528e-15 1.11125e-29 -0 -0 -0 0)
(1 -8.06161e-16 -0 -9.64344e-16 7.77417e-31 0 -0 0 0)
(1 1.29941e-16 -0 -4.72441e-17 -6.13896e-33 0 -0 -0 0)
(1 -1.80309e-16 -0 -2.39288e-16 4.31459e-32 0 -0 0 0)
(1 -1.7164e-16 -0 -1.82781e-16 3.13727e-32 0 -0 0 0)
(1 -1.32384e-16 -0 -1.38311e-16 1.83101e-32 0 -0 0 0)
(1 -1.03495e-16 -0 -6.65552e-17 6.88813e-33 0 -0 0 0)
(1 9.38881e-18 -0 -2.44389e-18 -2.29452e-35 0 -0 -0 0)
(1 -1.09243e-17 -0 -3.94255e-17 4.30695e-34 0 -0 0 0)
(1 -5.41815e-17 -0 -1.75156e-17 9.49022e-34 0 -0 0 0)
(1 -1.07879e-17 -0 5.31213e-17 -5.73066e-34 -0 -0 0 0)
(1 4.74657e-17 -0 1.051e-16 4.98866e-33 -0 -0 -0 0)
(1 8.4362e-17 -0 1.27737e-16 1.07762e-32 -0 -0 -0 0)
(1 1.03258e-16 -0 1.66746e-16 1.72179e-32 -0 -0 -0 0)
(1 1.23128e-16 -0 1.88156e-16 2.31673e-32 -0 -0 -0 0)
(1 1.83529e-16 -0 1.89629e-16 3.48024e-32 -0 -0 -0 0)
(1 7.44753e-17 -0 1.98799e-17 1.48056e-33 -0 -0 -0 0)
(1 2.25963e-17 -0 -2.4178e-17 -5.46332e-34 0 -0 -0 0)
(1 -1.20333e-13 -0 -1.20318e-13 1.44782e-26 0 -0 0 0)
(1 2.67479e-14 -0 2.66158e-14 7.11916e-28 -0 -0 -0 0)
(1 -6.1817e-15 -0 -6.27314e-15 3.87786e-29 0 -0 0 0)
(1 1.49268e-15 -0 1.34312e-15 2.00485e-30 -0 -0 -0 0)
(1 -3.04027e-16 -0 -3.81423e-16 1.15963e-31 0 -0 0 0)
(1 8.73564e-17 -0 -2.21178e-17 -1.93213e-33 0 -0 -0 0)
(1 -6.93837e-17 -0 -2.08181e-16 1.44444e-32 0 -0 0 0)
(1 -1.36335e-16 -0 -1.99712e-16 2.72277e-32 0 -0 0 0)
(1 -1.57076e-16 -0 -1.36291e-16 2.14081e-32 0 -0 0 0)
(1 -7.94802e-17 -0 -7.40009e-17 5.88161e-33 0 -0 0 0)
(1 -6.22732e-17 -0 4.07278e-18 -2.53625e-34 -0 -0 0 0)
(1 -8.63825e-17 -0 -3.16627e-17 2.7351e-33 0 -0 0 0)
(1 -4.44217e-17 -0 1.61268e-17 -7.16377e-34 -0 -0 0 0)
(1 3.37434e-17 -0 7.22771e-17 2.43887e-33 -0 -0 -0 0)
(1 7.17041e-17 -0 7.22658e-17 5.18176e-33 -0 -0 -0 0)
(1 4.15115e-17 -0 5.46023e-17 2.26663e-33 -0 -0 -0 0)
(1 1.45063e-17 -0 7.32142e-17 1.06206e-33 -0 -0 -0 0)
(1 4.33313e-17 -0 7.32842e-17 3.1755e-33 -0 -0 -0 0)
(1 -1.83492e-18 -0 7.10381e-19 -1.30349e-36 -0 -0 0 0)
(1 1.50032e-17 -0 2.17665e-18 3.26568e-35 -0 -0 -0 0)
(1 1.2447e-13 -0 1.25144e-13 1.55768e-26 -0 -0 -0 0)
(1 -2.63522e-14 -0 -2.66549e-14 7.02415e-28 0 -0 0 0)
(1 6.3543e-15 -0 6.18029e-15 3.92714e-29 -0 -0 -0 0)
(1 -1.3254e-15 -0 -1.48648e-15 1.97018e-30 0 -0 0 0)
(1 2.04655e-16 -0 2.04228e-16 4.17964e-32 -0 -0 -0 0)
(1 -4.67243e-18 -0 -8.53852e-17 3.98956e-34 0 -0 0 0)
(1 1.08517e-16 -0 -2.36312e-17 -2.56439e-33 0 -0 -0 0)
(1 2.2824e-17 -0 -1.36069e-17 -3.10564e-34 0 -0 -0 0)
(1 7.85045e-17 -0 3.01173e-17 2.36434e-33 -0 -0 -0 0)
(1 3.49844e-17 -0 -4.04817e-17 -1.41623e-33 0 -0 -0 0)
(1 -1.12427e-16 -0 -1.38069e-16 1.55227e-32 0 -0 0 0)
(1 -2.27246e-16 -0 -1.4098e-16 3.20372e-32 0 -0 0 0)
(1 -1.29486e-16 -0 -5.39275e-17 6.98285e-33 0 -0 0 0)
(1 -4.82002e-17 -0 -1.48033e-17 7.13521e-34 0 -0 0 0)
(1 3.6647e-17 -0 5.70745e-17 2.09161e-33 -0 -0 -0 0)
(1 1.15759e-16 -0 6.40914e-17 7.41915e-33 -0 -0 -0 0)
(1 6.68344e-17 -0 5.56024e-17 3.71615e-33 -0 -0 -0 0)
(1 -3.67256e-17 -0 -6.55142e-17 2.40605e-33 0 -0 0 0)
(1 -6.55335e-17 -0 -2.39645e-17 1.57048e-33 0 -0 0 0)
(1 -2.45813e-17 -0 3.50492e-18 -8.61554e-35 -0 -0 0 0)
(1 -8.43105e-14 -0 -8.49364e-14 7.16103e-27 0 -0 0 0)
(1 1.78471e-14 -0 1.78528e-14 3.18621e-28 -0 -0 -0 0)
(1 -4.18622e-15 -0 -4.27094e-15 1.78791e-29 0 -0 0 0)
(1 8.54076e-16 -0 9.34688e-16 7.98294e-31 -0 -0 -0 0)
(1 -1.26038e-17 -0 -2.98643e-18 3.76403e-35 0 -0 0 0)
(1 2.76822e-16 -0 1.63076e-16 4.5143e-32 -0 -0 -0 0)
(1 1.88222e-16 -0 3.72428e-17 7.00991e-33 -0 -0 -0 0)
(1 1.0201e-16 -0 -4.30939e-18 -4.396e-34 0 -0 -0 0)
(1 1.30686e-17 -0 -9.969e-17 -1.30281e-33 0 -0 -0 0)
(1 -9.82114e-17 -0 -4.45344e-17 4.37379e-33 0 -0 0 0)
(1 -8.0915e-17 -0 -1.8667e-17 1.51044e-33 0 -0 0 0)
(1 -2.89019e-17 -0 2.17344e-17 -6.28167e-34 -0 -0 0 0)
(1 3.23798e-17 -0 -7.72659e-18 -2.50186e-34 0 -0 -0 0)
(1 -3.27949e-17 -0 -3.82346e-17 1.2539e-33 0 -0 0 0)
(1 -2.63885e-17 -0 -6.06555e-17 1.60061e-33 0 -0 0 0)
(1 -1.39032e-17 -0 -1.02804e-16 1.42931e-33 0 -0 0 0)
(1 -1.49436e-16 -0 -1.4009e-16 2.09344e-32 0 -0 0 0)
(1 -1.35396e-16 -0 -1.06052e-16 1.43589e-32 0 -0 0 0)
(1 -3.65056e-17 -0 -1.6448e-17 6.00444e-34 0 -0 0 0)
(1 -5.88828e-18 -0 1.66385e-18 -9.79719e-36 -0 -0 0 0)
(1 3.64114e-16 -0 9.309e-17 3.38954e-32 -0 -0 -0 0)
(1 -2.56667e-16 -0 -3.13077e-16 8.03563e-32 0 -0 0 0)
(1 9.64381e-17 -0 3.04735e-17 2.9388e-33 -0 -0 -0 0)
(1 4.73044e-17 -0 4.60992e-17 2.1807e-33 -0 -0 -0 0)
(1 1.29568e-16 -0 6.30126e-17 8.16442e-33 -0 -0 -0 0)
(1 2.09101e-17 -0 -3.42835e-18 -7.16871e-35 0 -0 -0 0)
(1 2.21218e-17 -0 2.60919e-17 5.772e-34 -0 -0 -0 0)
(1 1.27899e-16 -0 9.99123e-17 1.27787e-32 -0 -0 -0 0)
(1 1.15134e-16 -0 1.47643e-16 1.69987e-32 -0 -0 -0 0)
(1 9.44554e-17 -0 1.8585e-16 1.75545e-32 -0 -0 -0 0)
(1 1.69556e-16 -0 2.19158e-16 3.71595e-32 -0 -0 -0 0)
(1 2.28087e-16 -0 2.03097e-16 4.63238e-32 -0 -0 -0 0)
(1 1.68531e-16 -0 1.1014e-16 1.85619e-32 -0 -0 -0 0)
(1 5.19478e-17 -0 8.44455e-17 4.38676e-33 -0 -0 -0 0)
(1 2.51327e-17 -0 4.35107e-17 1.09354e-33 -0 -0 -0 0)
(1 -1.10134e-17 -0 -4.06944e-17 4.48183e-34 0 -0 0 0)
(1 -1.04208e-16 -0 -9.44238e-17 9.83972e-33 0 -0 0 0)
(1 -5.6608e-17 -0 -4.50181e-17 2.54838e-33 0 -0 0 0)
(1 4.95837e-18 -0 -3.68656e-17 -1.82793e-34 0 -0 -0 0)
(1 8.05625e-18 -0 5.87841e-18 4.7358e-35 -0 -0 -0 0)
(1 9.89243e-14 -0 9.91266e-14 9.80604e-27 -0 -0 -0 0)
(1 -2.12023e-14 -0 -2.13483e-14 4.52633e-28 0 -0 0 0)
(1 5.09514e-15 -0 5.01784e-15 2.55666e-29 -0 -0 -0 0)
(1 -9.68463e-16 -0 -1.06864e-15 1.03494e-30 0 -0 0 0)
(1 3.09443e-16 -0 2.54654e-16 7.88009e-32 -0 -0 -0 0)
(1 2.6819e-17 -0 3.60888e-17 9.67866e-34 -0 -0 -0 0)
(1 2.05168e-16 -0 2.26938e-16 4.65604e-32 -0 -0 -0 0)
(1 2.16322e-16 -0 1.96263e-16 4.2456e-32 -0 -0 -0 0)
(1 2.54897e-16 -0 2.50502e-16 6.38522e-32 -0 -0 -0 0)
(1 1.42649e-16 -0 1.07505e-16 1.53354e-32 -0 -0 -0 0)
(1 2.91828e-17 -0 1.50063e-17 4.37926e-34 -0 -0 -0 0)
(1 3.83836e-17 -0 2.79528e-17 1.07293e-33 -0 -0 -0 0)
(1 1.73758e-17 -0 9.95898e-17 1.73046e-33 -0 -0 -0 0)
(1 3.04454e-17 -0 1.54299e-16 4.69768e-33 -0 -0 -0 0)
(1 1.16282e-17 -0 4.47453e-17 5.20309e-34 -0 -0 -0 0)
(1 -5.13167e-17 -0 -2.97773e-17 1.52807e-33 0 -0 0 0)
(1 -7.61733e-17 -0 -6.85816e-17 5.22409e-33 0 -0 0 0)
(1 -4.38207e-17 -0 -8.0532e-17 3.52897e-33 0 -0 0 0)
(1 2.02503e-17 -0 -1.91978e-17 -3.8876e-34 0 -0 -0 0)
(1 3.53872e-17 -0 6.97145e-18 2.467e-34 -0 -0 -0 0)
(1 -1.51471e-13 -0 -1.51969e-13 2.30189e-26 0 -0 0 0)
(1 3.30507e-14 -0 3.307e-14 1.09299e-27 -0 -0 -0 0)
(1 -7.52713e-15 -0 -7.59029e-15 5.71331e-29 0 -0 0 0)
(1 1.85418e-15 -0 1.73949e-15 3.22533e-30 -0 -0 -0 0)
(1 -2.70478e-16 -0 -4.2668e-16 1.15408e-31 0 -0 0 0)
(1 1.0928e-16 -0 -1.99276e-17 -2.17768e-33 0 -0 -0 0)
(1 9.30968e-18 -0 -2.19874e-17 -2.04696e-34 0 -0 -0 0)
(1 -2.38244e-19 -0 4.96121e-17 -1.18198e-35 -0 -0 0 0)
(1 7.43876e-17 -0 1.10992e-16 8.25641e-33 -0 -0 -0 0)
(1 9.14503e-17 -0 8.87604e-17 8.11717e-33 -0 -0 -0 0)
(1 3.57547e-17 -0 3.62781e-17 1.29711e-33 -0 -0 -0 0)
(1 1.08399e-17 -0 1.91241e-17 2.07303e-34 -0 -0 -0 0)
(1 2.26821e-17 -0 5.59231e-17 1.26845e-33 -0 -0 -0 0)
(1 6.83801e-17 -0 7.37015e-17 5.03972e-33 -0 -0 -0 0)
(1 -3.35699e-17 -0 -6.55186e-17 2.19945e-33 0 -0 0 0)
(1 -1.32059e-16 -0 -4.60428e-17 6.08038e-33 0 -0 0 0)
(1 -3.11721e-17 -0 2.18324e-18 -6.80563e-35 -0 -0 0 0)
(1 4.95324e-17 -0 -5.82763e-18 -2.88656e-34 0 -0 -0 0)
(1 1.94002e-17 -0 -1.58163e-17 -3.06839e-34 0 -0 -0 0)
(1 -2.5197e-17 -0 -4.7091e-17 1.18655e-33 0 -0 0 0)
(1 9.16013e-14 -0 9.20138e-14 8.42858e-27 -0 -0 -0 0)
(1 -1.92429e-14 -0 -1.94964e-14 3.75166e-28 0 -0 0 0)
(1 4.5368e-15 -0 4.48683e-15 2.03558e-29 -0 -0 -0 0)
(1 -1.04321e-15 -0 -1.1514e-15 1.20115e-30 0 -0 0 0)
(1 6.5079e-17 -0 -1.27805e-18 -8.31741e-35 0 -0 -0 0)
(1 -1.59524e-16 -0 -9.11307e-17 1.45375e-32 0 -0 0 0)
(1 1.5748e-17 -0 5.60117e-17 8.82073e-34 -0 -0 -0 0)
(1 1.0548e-16 -0 5.7109e-17 6.02387e-33 -0 -0 -0 0)
(1 2.92681e-17 -0 -1.25594e-17 -3.6759e-34 0 -0 -0 0)
(1 8.85175e-17 -0 8.46545e-18 7.4934e-34 -0 -0 -0 0)
(1 8.94423e-17 -0 2.66676e-17 2.38521e-33 -0 -0 -0 0)
(1 4.7346e-17 -0 2.16715e-17 1.02606e-33 -0 -0 -0 0)
(1 2.26696e-17 -0 -1.53561e-17 -3.48116e-34 0 -0 -0 0)
(1 1.00867e-17 -0 -1.66862e-17 -1.68309e-34 0 -0 -0 0)
(1 2.05516e-17 -0 9.4156e-17 1.93506e-33 -0 -0 -0 0)
(1 8.88199e-17 -0 1.70912e-16 1.51804e-32 -0 -0 -0 0)
(1 2.15121e-16 -0 1.83474e-16 3.94692e-32 -0 -0 -0 0)
(1 1.35923e-16 -0 1.28668e-16 1.7489e-32 -0 -0 -0 0)
(1 3.34402e-17 -0 1.78991e-17 5.9855e-34 -0 -0 -0 0)
(1 -3.92287e-17 -0 3.77085e-18 -1.47925e-34 -0 -0 0 0)
(1 3.93871e-14 -0 3.92309e-14 1.54519e-27 -0 -0 -0 0)
(1 -8.67216e-15 -0 -8.74764e-15 7.58609e-29 0 -0 0 0)
(1 1.99203e-15 -0 1.96085e-15 3.90608e-30 -0 -0 -0 0)
(1 -5.53398e-16 -0 -5.12397e-16 2.83559e-31 0 -0 0 0)
(1 1.7124e-16 -0 2.36247e-16 4.04548e-32 -0 -0 -0 0)
(1 1.87271e-16 -0 2.82332e-16 5.28726e-32 -0 -0 -0 0)
(1 2.6837e-16 -0 2.23744e-16 6.00462e-32 -0 -0 -0 0)
(1 2.39953e-16 -0 5.63098e-17 1.35117e-32 -0 -0 -0 0)
(1 3.22572e-17 -0 -1.85615e-16 -5.9874e-33 0 -0 -0 0)
(1 -1.17826e-16 -0 -2.82419e-16 3.32763e-32 0 -0 0 0)
(1 -1.46335e-16 -0 -2.29858e-16 3.36363e-32 0 -0 0 0)
(1 -2.09377e-16 -0 -1.50533e-16 3.15182e-32 0 -0 0 0)
(1 -1.21919e-16 -0 -4.34069e-17 5.29211e-33 0 -0 0 0)
(1 -6.84316e-17 -0 1.23254e-17 -8.43444e-34 -0 -0 0 0)
(1 8.81912e-17 -0 2.33604e-16 2.06018e-32 -0 -0 -0 0)
(1 2.36912e-16 -0 2.84358e-16 6.7368e-32 -0 -0 -0 0)
(1 2.4393e-16 -0 2.56482e-16 6.25638e-32 -0 -0 -0 0)
(1 1.38625e-16 -0 1.24116e-16 1.72055e-32 -0 -0 -0 0)
(1 5.55545e-17 -0 -5.61053e-17 -3.1169e-33 0 -0 -0 0)
(1 -7.42341e-18 -0 -6.17047e-19 4.5806e-36 0 -0 0 0)
(1 -1.25606e-13 -0 -1.25933e-13 1.5818e-26 0 -0 0 0)
(1 2.70282e-14 -0 2.70754e-14 7.31801e-28 -0 -0 -0 0)
(1 -6.44906e-15 -0 -6.40038e-15 4.12765e-29 0 -0 0 0)
(1 1.4537e-15 -0 1.52401e-15 2.21545e-30 -0 -0 -0 0)
(1 -9.28999e-17 -0 -1.06501e-16 9.89394e-33 0 -0 0 0)
(1 2.68889e-16 -0 1.67766e-16 4.51103e-32 -0 -0 -0 0)
(1 6.43519e-17 -0 4.6495e-18 2.99204e-34 -0 -0 -0 0)
(1 5.62474e-17 -0 4.8331e-17 2.7185e-33 -0 -0 -0 0)
(1 5.3942e-17 -0 5.57189e-18 3.00559e-34 -0 -0 -0 0)
(1 1.63584e-17 -0 -3.33096e-17 -5.44893e-34 0 -0 -0 0)
(1 -6.90758e-17 -0 -6.71862e-17 4.64095e-33 0 -0 0 0)
(1 -1.22813e-16 -0 -3.61137e-17 4.43524e-33 0 -0 0 0)
(1 -4.80241e-17 -0 4.13259e-17 -1.98464e-33 -0 -0 0 0)
(1 2.47395e-17 -0 3.19628e-17 7.90744e-34 -0 -0 -0 0)
(1 5.59067e-17 -0 2.67506e-17 1.49554e-33 -0 -0 -0 0)
(1 2.9711e-17 -0 4.87793e-17 1.44928e-33 -0 -0 -0 0)
(1 -8.35268e-18 -0 3.12578e-17 -2.61086e-34 -0 -0 0 0)
(1 2.86551e-17 -0 -2.15787e-17 -6.18339e-34 0 -0 -0 0)
(1 6.28233e-18 -0 -9.60145e-17 -6.03195e-34 0 -0 -0 0)
(1 -2.14413e-18 -0 -9.52535e-18 2.04236e-35 0 -0 0 0)
(1 4.85008e-14 -0 4.84678e-14 2.35073e-27 -0 -0 -0 0)
(1 -1.03437e-14 -0 -1.02853e-14 1.06389e-28 0 -0 0 0)
(1 2.49982e-15 -0 2.48952e-15 6.22337e-30 -0 -0 -0 0)
(1 -4.26987e-16 -0 -4.33243e-16 1.84989e-31 0 -0 0 0)
(1 1.04251e-16 -0 1.17783e-16 1.22789e-32 -0 -0 -0 0)
(1 -2.50304e-17 -0 -5.00824e-17 1.25358e-33 0 -0 0 0)
(1 -5.02568e-18 -0 2.46169e-17 -1.23717e-34 -0 -0 0 0)
(1 8.31899e-17 -0 9.11334e-17 7.58137e-33 -0 -0 -0 0)
(1 1.2175e-16 -0 1.70164e-16 2.07174e-32 -0 -0 -0 0)
(1 1.80121e-16 -0 2.0201e-16 3.63863e-32 -0 -0 -0 0)
(1 1.52965e-16 -0 1.39974e-16 2.14111e-32 -0 -0 -0 0)
(1 1.71159e-16 -0 1.27597e-16 2.18393e-32 -0 -0 -0 0)
(1 7.11966e-17 -0 6.14912e-17 4.37796e-33 -0 -0 -0 0)
(1 2.24359e-17 -0 1.23103e-17 2.76193e-34 -0 -0 -0 0)
(1 2.47769e-17 -0 -6.50031e-17 -1.61057e-33 0 -0 -0 0)
(1 -2.19604e-17 -0 -4.9753e-17 1.0926e-33 0 -0 0 0)
(1 -1.7092e-17 -0 -8.25841e-17 1.41153e-33 0 -0 0 0)
(1 3.08657e-18 -0 -1.56416e-17 -4.82789e-35 0 -0 -0 0)
(1 6.03332e-17 -0 1.17645e-16 7.09792e-33 -0 -0 -0 0)
(1 7.09592e-17 -0 5.5179e-17 3.91546e-33 -0 -0 -0 0)
(1 8.61476e-14 -0 8.60752e-14 7.41516e-27 -0 -0 -0 0)
(1 -1.86016e-14 -0 -1.84705e-14 3.43581e-28 0 -0 0 0)
(1 4.69767e-15 -0 4.61199e-15 2.16656e-29 -0 -0 -0 0)
(1 -8.21581e-16 -0 -9.11604e-16 7.48957e-31 0 -0 0 0)
(1 1.70201e-16 -0 1.66457e-16 2.83312e-32 -0 -0 -0 0)
(1 -8.41085e-17 -0 -6.37141e-17 5.35889e-33 0 -0 0 0)
(1 -1.33067e-17 -0 1.83367e-17 -2.44e-34 -0 -0 0 0)
(1 3.62533e-17 -0 2.99352e-17 1.08525e-33 -0 -0 -0 0)
(1 5.16405e-17 -0 8.41938e-17 4.34781e-33 -0 -0 -0 0)
(1 8.11366e-17 -0 7.43245e-17 6.03044e-33 -0 -0 -0 0)
(1 9.82742e-17 -0 1.77307e-17 1.74247e-33 -0 -0 -0 0)
(1 6.24733e-17 -0 1.36479e-17 8.52627e-34 -0 -0 -0 0)
(1 -3.58128e-18 -0 1.12669e-17 -4.035e-35 -0 -0 0 0)
(1 -1.27001e-18 -0 5.00391e-17 -6.355e-35 -0 -0 0 0)
(1 7.51671e-17 -0 7.02875e-17 5.2833e-33 -0 -0 -0 0)
(1 9.3929e-17 -0 6.95368e-17 6.53152e-33 -0 -0 -0 0)
(1 1.04875e-16 -0 3.262e-17 3.42102e-33 -0 -0 -0 0)
(1 6.84826e-17 -0 3.70266e-17 2.53567e-33 -0 -0 -0 0)
(1 7.28175e-17 -0 1.13172e-16 8.24087e-33 -0 -0 -0 0)
(1 5.32427e-17 -0 2.86155e-17 1.52357e-33 -0 -0 -0 0)
)
;

boundaryField
{
    movingWall
    {
        type            calculated;
        value           uniform (1 0 0 0 0 0 0 0 0);
    }
    fixedWalls
    {
        type            calculated;
        value           uniform (1 0 0 0 0 0 0 0 0);
    }
    frontAndBack
    {
        type            empty;
    }
}


// ************************************************************************* //
