/*--------------------------------*- C++ -*----------------------------------*\
| =========                 |                                                 |
| \\      /  F ield         | OpenFOAM: The Open Source CFD Toolbox           |
|  \\    /   O peration     | Version:  2506                                  |
|   \\  /    A nd           | Website:  www.openfoam.com                      |
|    \\/     M anipulation  |                                                 |
\*---------------------------------------------------------------------------*/
FoamFile
{
    version     2.0;
    format      ascii;
    arch        "LSB;label=32;scalar=64";
    class       volScalarField;
    location    "9";
    object      Uy;
}
// * * * * * * * * * * * * * * * * * * * * * * * * * * * * * * * * * * * * * //

dimensions      [0 1 -1 0 0 0 0];

internalField   nonuniform List<scalar> 
400
(
1.51956e-13
-3.23939e-14
7.71312e-15
-1.62179e-15
3.77571e-16
-2.14821e-17
4.60257e-17
6.01615e-17
6.56087e-17
1.06751e-16
2.54377e-16
2.53983e-16
8.99245e-17
-8.7348e-17
-1.55145e-16
-1.9346e-16
-1.1026e-16
-1.97383e-17
8.56123e-17
5.51088e-17
1.1173e-14
-1.78517e-15
5.99637e-16
-4.04225e-17
6.77445e-17
1.07846e-16
1.29536e-16
1.38203e-16
1.46194e-16
6.49103e-17
3.40407e-17
1.05378e-16
5.17394e-17
-4.55125e-17
-1.16204e-16
-1.27156e-16
-3.00531e-17
1.33266e-17
5.08644e-17
2.10895e-17
-1.3147e-13
2.84413e-14
-6.55626e-15
1.40823e-15
-3.46121e-16
9.10294e-17
8.84373e-17
1.03538e-16
1.31772e-16
9.36481e-17
-1.06065e-16
-1.34009e-16
-1.33246e-16
-5.45522e-17
-7.48004e-17
-1.1564e-16
-1.40105e-17
7.0796e-17
-8.55064e-17
-1.27269e-16
9.26411e-14
-2.0001e-14
4.87817e-15
-9.63619e-16
1.69218e-16
-1.00658e-16
-4.16797e-18
-3.80751e-17
1.66532e-17
2.05173e-16
1.70168e-16
6.19938e-17
-4.84773e-17
-2.15955e-17
2.36555e-17
-1.07408e-16
-9.87347e-17
4.4104e-18
-6.65789e-17
-1.16286e-16
-1.66021e-15
9.74476e-16
7.12317e-17
2.09463e-16
4.17244e-17
3.66164e-17
3.2443e-17
-4.40226e-18
5.85887e-17
1.00846e-16
6.4206e-17
7.77932e-17
-4.24953e-18
-1.22453e-16
-4.06777e-17
-2.41287e-17
-2.87685e-17
-2.82037e-17
-2.48576e-18
-2.15181e-17
-9.21234e-14
2.04549e-14
-4.60512e-15
1.14506e-15
-4.72493e-17
1.95744e-16
2.42551e-16
3.34788e-16
2.14421e-16
-1.61668e-17
-1.39332e-16
-1.76355e-16
-2.56234e-16
-2.30274e-16
-1.35525e-16
1.57936e-17
8.17668e-17
6.19265e-17
-7.33617e-18
5.58233e-18
1.24281e-13
-2.78154e-14
6.30684e-15
-1.61988e-15
2.14452e-16
-1.21414e-16
5.8641e-17
2.29741e-16
2.95415e-16
2.27982e-16
4.03481e-17
-1.48108e-16
-1.7924e-16
-8.02665e-17
-3.18065e-17
7.84465e-17
1.2414e-16
6.09149e-17
-6.08438e-17
-3.18954e-17
-4.45633e-14
9.59674e-15
-2.34996e-15
4.77458e-16
-1.06995e-16
8.83059e-17
-4.92365e-17
-5.87504e-17
6.38207e-17
1.66191e-16
1.79322e-16
3.58622e-17
-1.16889e-17
-6.75628e-17
-1.59647e-16
-2.05133e-16
-1.97533e-16
-1.4782e-16
-4.41738e-17
5.40719e-18
-6.39674e-14
1.46128e-14
-3.29528e-15
9.64344e-16
4.72441e-17
2.39288e-16
1.82781e-16
1.38311e-16
6.65552e-17
2.44389e-18
3.94255e-17
1.75156e-17
-5.31213e-17
-1.051e-16
-1.27737e-16
-1.66746e-16
-1.88156e-16
-1.89629e-16
-1.98799e-17
2.4178e-17
1.20318e-13
-2.66158e-14
6.27314e-15
-1.34312e-15
3.81423e-16
2.21178e-17
2.08181e-16
1.99712e-16
1.36291e-16
7.40009e-17
-4.07278e-18
3.16627e-17
-1.61268e-17
-7.22771e-17
-7.22658e-17
-5.46023e-17
-7.32142e-17
-7.32842e-17
-7.10381e-19
-2.17665e-18
-1.25144e-13
2.66549e-14
-6.18029e-15
1.48648e-15
-2.04228e-16
8.53852e-17
2.36312e-17
1.36069e-17
-3.01173e-17
4.04817e-17
1.38069e-16
1.4098e-16
5.39275e-17
1.48033e-17
-5.70745e-17
-6.40914e-17
-5.56024e-17
6.55142e-17
2.39645e-17
-3.50492e-18
8.49364e-14
-1.78528e-14
4.27094e-15
-9.34688e-16
2.98643e-18
-1.63076e-16
-3.72428e-17
4.30939e-18
9.969e-17
4.45344e-17
1.8667e-17
-2.17344e-17
7.72659e-18
3.82346e-17
6.06555e-17
1.02804e-16
1.4009e-16
1.06052e-16
1.6448e-17
-1.66385e-18
-9.309e-17
3.13077e-16
-3.04735e-17
-4.60992e-17
-6.30126e-17
3.42835e-18
-2.60919e-17
-9.99123e-17
-1.47643e-16
-1.8585e-16
-2.19158e-16
-2.03097e-16
-1.1014e-16
-8.44455e-17
-4.35107e-17
4.06944e-17
9.44238e-17
4.50181e-17
3.68656e-17
-5.87841e-18
-9.91266e-14
2.13483e-14
-5.01784e-15
1.06864e-15
-2.54654e-16
-3.60888e-17
-2.26938e-16
-1.96263e-16
-2.50502e-16
-1.07505e-16
-1.50063e-17
-2.79528e-17
-9.95898e-17
-1.54299e-16
-4.47453e-17
2.97773e-17
6.85816e-17
8.0532e-17
1.91978e-17
-6.97145e-18
1.51969e-13
-3.307e-14
7.59029e-15
-1.73949e-15
4.2668e-16
1.99276e-17
2.19874e-17
-4.96121e-17
-1.10992e-16
-8.87604e-17
-3.62781e-17
-1.91241e-17
-5.59231e-17
-7.37015e-17
6.55186e-17
4.60428e-17
-2.18324e-18
5.82763e-18
1.58163e-17
4.7091e-17
-9.20138e-14
1.94964e-14
-4.48683e-15
1.1514e-15
1.27805e-18
9.11307e-17
-5.60117e-17
-5.7109e-17
1.25594e-17
-8.46545e-18
-2.66676e-17
-2.16715e-17
1.53561e-17
1.66862e-17
-9.4156e-17
-1.70912e-16
-1.83474e-16
-1.28668e-16
-1.78991e-17
-3.77085e-18
-3.92309e-14
8.74764e-15
-1.96085e-15
5.12397e-16
-2.36247e-16
-2.82332e-16
-2.23744e-16
-5.63098e-17
1.85615e-16
2.82419e-16
2.29858e-16
1.50533e-16
4.34069e-17
-1.23254e-17
-2.33604e-16
-2.84358e-16
-2.56482e-16
-1.24116e-16
5.61053e-17
6.17047e-19
1.25933e-13
-2.70754e-14
6.40038e-15
-1.52401e-15
1.06501e-16
-1.67766e-16
-4.6495e-18
-4.8331e-17
-5.57189e-18
3.33096e-17
6.71862e-17
3.61137e-17
-4.13259e-17
-3.19628e-17
-2.67506e-17
-4.87793e-17
-3.12578e-17
2.15787e-17
9.60145e-17
9.52535e-18
-4.84678e-14
1.02853e-14
-2.48952e-15
4.33243e-16
-1.17783e-16
5.00824e-17
-2.46169e-17
-9.11334e-17
-1.70164e-16
-2.0201e-16
-1.39974e-16
-1.27597e-16
-6.14912e-17
-1.23103e-17
6.50031e-17
4.9753e-17
8.25841e-17
1.56416e-17
-1.17645e-16
-5.5179e-17
-8.60752e-14
1.84705e-14
-4.61199e-15
9.11604e-16
-1.66457e-16
6.37141e-17
-1.83367e-17
-2.99352e-17
-8.41938e-17
-7.43245e-17
-1.77307e-17
-1.36479e-17
-1.12669e-17
-5.00391e-17
-7.02875e-17
-6.95368e-17
-3.262e-17
-3.70266e-17
-1.13172e-16
-2.86155e-17
)
;

boundaryField
{
    movingWall
    {
        type            calculated;
        value           uniform -0;
    }
    fixedWalls
    {
        type            calculated;
        value           uniform -0;
    }
    frontAndBack
    {
        type            empty;
    }
}


// ************************************************************************* //
