/*--------------------------------*- C++ -*----------------------------------*\
| =========                 |                                                 |
| \\      /  F ield         | OpenFOAM: The Open Source CFD Toolbox           |
|  \\    /   O peration     | Version:  2506                                  |
|   \\  /    A nd           | Website:  www.openfoam.com                      |
|    \\/     M anipulation  |                                                 |
\*---------------------------------------------------------------------------*/
FoamFile
{
    version     2.0;
    format      ascii;
    arch        "LSB;label=32;scalar=64";
    class       volVectorField;
    location    "9";
    object      vorticityField;
}
// * * * * * * * * * * * * * * * * * * * * * * * * * * * * * * * * * * * * * //

dimensions      [0 0 -1 0 0 0 0];

internalField   nonuniform List<vector> 
400
(
(0 -0 1.09533e-11)
(0 -0 -1.41803e-11)
(0 -0 3.0501e-12)
(0 -0 -7.0645e-13)
(0 -0 7.87159e-14)
(0 -0 -8.73646e-14)
(0 -0 8.16437e-15)
(0 -0 5.61684e-14)
(0 -0 4.65898e-15)
(0 -0 7.3087e-14)
(0 -0 6.89333e-14)
(0 -0 3.77648e-14)
(0 -0 2.0077e-14)
(0 -0 -2.45069e-14)
(0 -0 -1.06112e-14)
(0 -0 -2.26166e-14)
(0 -0 -9.73287e-15)
(0 -0 1.95872e-14)
(0 -0 6.16948e-14)
(0 -0 -1.40721e-14)
(0 -0 1.25635e-13)
(0 -0 -7.04974e-13)
(0 -0 2.5579e-13)
(0 -0 2.81259e-14)
(0 -0 1.50352e-13)
(0 -0 1.14599e-13)
(0 -0 8.43508e-14)
(0 -0 2.87708e-14)
(0 -0 4.68808e-14)
(0 -0 -1.12153e-14)
(0 -0 3.11518e-14)
(0 -0 1.76987e-15)
(0 -0 -1.5089e-14)
(0 -0 -1.67944e-14)
(0 -0 -3.52694e-14)
(0 -0 8.99303e-14)
(0 -0 9.53634e-14)
(0 -0 8.09175e-15)
(0 -0 7.76284e-16)
(0 -0 4.70147e-14)
(0 -0 -6.31839e-12)
(0 -0 1.12716e-11)
(0 -0 -2.75752e-12)
(0 -0 4.85489e-13)
(0 -0 -2.13035e-13)
(0 -0 -1.07542e-14)
(0 -0 -8.00643e-14)
(0 -0 -1.04087e-13)
(0 -0 -8.23042e-14)
(0 -0 -1.32204e-13)
(0 -0 -1.04081e-13)
(0 -0 -5.69282e-14)
(0 -0 7.94567e-15)
(0 -0 5.84453e-15)
(0 -0 2.09963e-14)
(0 -0 6.07899e-15)
(0 -0 1.86436e-14)
(0 -0 -7.14958e-15)
(0 -0 -1.01122e-13)
(0 -0 2.12775e-14)
(0 -0 4.17403e-12)
(0 -0 -7.99024e-12)
(0 -0 1.82243e-12)
(0 -0 -5.25105e-13)
(0 -0 5.9191e-14)
(0 -0 -1.73385e-14)
(0 -0 -2.08467e-14)
(0 -0 2.91872e-14)
(0 -0 5.14298e-14)
(0 -0 6.95615e-14)
(0 -0 -1.43179e-14)
(0 -0 -4.89695e-14)
(0 -0 -6.2569e-14)
(0 -0 7.21327e-15)
(0 -0 -8.58127e-15)
(0 -0 -9.35542e-14)
(0 -0 -4.30282e-14)
(0 -0 3.21558e-15)
(0 -0 -3.91747e-14)
(0 -0 -3.59236e-14)
(0 -0 5.00633e-13)
(0 -0 1.73144e-13)
(0 -0 -2.22912e-14)
(0 -0 2.41543e-14)
(0 -0 -4.43897e-14)
(0 -0 -9.28136e-16)
(0 -0 -3.12069e-14)
(0 -0 2.61456e-15)
(0 -0 6.47349e-14)
(0 -0 5.47718e-14)
(0 -0 5.19048e-14)
(0 -0 7.44696e-14)
(0 -0 -2.00246e-14)
(0 -0 -3.64282e-15)
(0 -0 9.83244e-15)
(0 -0 -2.59141e-14)
(0 -0 -2.75126e-14)
(0 -0 2.62828e-15)
(0 -0 5.48787e-14)
(0 -0 2.40038e-15)
(0 -0 -4.59187e-12)
(0 -0 8.12841e-12)
(0 -0 -1.82257e-12)
(0 -0 4.55787e-13)
(0 -0 -9.49312e-14)
(0 -0 2.898e-14)
(0 -0 1.39044e-14)
(0 -0 -5.70231e-14)
(0 -0 -1.43516e-13)
(0 -0 -1.70901e-13)
(0 -0 -7.02289e-14)
(0 -0 -6.59003e-14)
(0 -0 -5.39192e-15)
(0 -0 1.20708e-14)
(0 -0 2.46067e-14)
(0 -0 7.59393e-14)
(0 -0 3.17183e-14)
(0 -0 -8.9103e-15)
(0 -0 -5.63441e-15)
(0 -0 1.75384e-16)
(0 -0 5.63503e-12)
(0 -0 -1.08217e-11)
(0 -0 2.48402e-12)
(0 -0 -5.82134e-13)
(0 -0 2.58267e-13)
(0 -0 3.8629e-14)
(0 -0 1.70641e-13)
(0 -0 1.32098e-13)
(0 -0 1.08244e-13)
(0 -0 5.58085e-14)
(0 -0 1.66011e-14)
(0 -0 3.22513e-14)
(0 -0 8.80993e-14)
(0 -0 9.60585e-14)
(0 -0 9.71865e-14)
(0 -0 9.69098e-14)
(0 -0 7.9562e-14)
(0 -0 -1.84984e-14)
(0 -0 -9.28103e-15)
(0 -0 9.27392e-15)
(0 -0 -2.54797e-12)
(0 -0 3.78765e-12)
(0 -0 -9.66139e-13)
(0 -0 1.70087e-13)
(0 -0 -1.2023e-13)
(0 -0 -4.84342e-14)
(0 -0 -9.60208e-14)
(0 -0 -4.29044e-14)
(0 -0 4.95992e-14)
(0 -0 1.15502e-14)
(0 -0 -6.7243e-14)
(0 -0 -7.33112e-14)
(0 -0 -9.16577e-14)
(0 -0 -9.6111e-14)
(0 -0 -4.08621e-14)
(0 -0 -1.12209e-13)
(0 -0 -2.13737e-14)
(0 -0 1.53359e-14)
(0 -0 1.53227e-14)
(0 -0 -2.32284e-14)
(0 -0 -3.06521e-12)
(0 -0 5.63353e-12)
(0 -0 -1.28353e-12)
(0 -0 3.34252e-13)
(0 -0 -9.96107e-14)
(0 -0 -4.06564e-14)
(0 -0 -6.43079e-14)
(0 -0 -6.58327e-14)
(0 -0 -1.49112e-13)
(0 -0 -5.69231e-14)
(0 -0 -5.27029e-14)
(0 -0 -6.34648e-14)
(0 -0 -6.64717e-14)
(0 -0 -6.16717e-14)
(0 -0 -1.14585e-13)
(0 -0 -3.31469e-14)
(0 -0 -8.36035e-14)
(0 -0 -1.02775e-14)
(0 -0 7.55908e-14)
(0 -0 -4.29808e-16)
(0 -0 8.47579e-12)
(0 -0 -1.08895e-11)
(0 -0 2.60858e-12)
(0 -0 -5.34961e-13)
(0 -0 1.90734e-13)
(0 -0 3.68859e-14)
(0 -0 -9.34563e-15)
(0 -0 -7.189e-15)
(0 -0 -1.25711e-14)
(0 -0 -1.40364e-14)
(0 -0 -5.84439e-14)
(0 -0 -1.2054e-15)
(0 -0 -3.7499e-14)
(0 -0 -5.61391e-15)
(0 -0 1.76748e-15)
(0 -0 2.70102e-14)
(0 -0 2.52369e-14)
(0 -0 3.43554e-14)
(0 -0 -4.70994e-14)
(0 -0 -2.68164e-14)
(0 -0 -1.08789e-11)
(0 -0 1.19777e-11)
(0 -0 -2.62526e-12)
(0 -0 6.78921e-13)
(0 -0 -1.4011e-13)
(0 -0 7.6996e-14)
(0 -0 7.41373e-14)
(0 -0 4.88353e-14)
(0 -0 5.68976e-14)
(0 -0 7.10287e-14)
(0 -0 9.1365e-14)
(0 -0 -8.41412e-15)
(0 -0 1.44874e-14)
(0 -0 -1.11002e-14)
(0 -0 -7.88947e-15)
(0 -0 -2.69578e-14)
(0 -0 1.29606e-14)
(0 -0 -1.91484e-14)
(0 -0 -3.4007e-14)
(0 -0 2.50591e-14)
(0 -0 7.68414e-12)
(0 -0 -8.14786e-12)
(0 -0 1.93576e-12)
(0 -0 -3.72585e-13)
(0 -0 1.58476e-13)
(0 -0 7.72922e-14)
(0 -0 9.80537e-14)
(0 -0 1.49219e-13)
(0 -0 1.39548e-13)
(0 -0 7.32129e-14)
(0 -0 1.01793e-13)
(0 -0 5.31161e-14)
(0 -0 6.0207e-14)
(0 -0 5.9503e-14)
(0 -0 6.06671e-14)
(0 -0 6.21535e-14)
(0 -0 3.24724e-16)
(0 -0 1.47409e-14)
(0 -0 -1.07715e-14)
(0 -0 -1.47841e-15)
(0 -0 7.8094e-13)
(0 -0 -2.91894e-13)
(0 -0 -1.44338e-13)
(0 -0 -1.38779e-13)
(0 -0 -7.63624e-14)
(0 -0 -7.76231e-14)
(0 -0 -3.74391e-14)
(0 -0 -9.34702e-14)
(0 -0 -8.99089e-14)
(0 -0 -1.15572e-13)
(0 -0 -8.30399e-14)
(0 -0 1.09018e-14)
(0 -0 6.60753e-14)
(0 -0 6.6629e-15)
(0 -0 6.67241e-14)
(0 -0 1.37935e-14)
(0 -0 4.32371e-16)
(0 -0 -5.75582e-15)
(0 -0 -5.08965e-15)
(0 -0 -3.09872e-15)
(0 -0 -7.561e-12)
(0 -0 9.13983e-12)
(0 -0 -2.2177e-12)
(0 -0 4.22108e-13)
(0 -0 -1.64683e-13)
(0 -0 -1.05649e-13)
(0 -0 -7.02275e-14)
(0 -0 -5.65665e-14)
(0 -0 -4.53343e-14)
(0 -0 5.06546e-14)
(0 -0 6.21653e-14)
(0 -0 4.57518e-14)
(0 -0 -1.26346e-14)
(0 -0 5.48445e-15)
(0 -0 1.84076e-14)
(0 -0 6.55428e-14)
(0 -0 5.92856e-14)
(0 -0 4.92717e-14)
(0 -0 1.83547e-14)
(0 -0 -1.22263e-15)
(0 -0 9.80284e-12)
(0 -0 -1.36518e-11)
(0 -0 3.29568e-12)
(0 -0 -6.89256e-13)
(0 -0 2.84362e-13)
(0 -0 1.37409e-14)
(0 -0 -6.95397e-15)
(0 -0 -1.32979e-14)
(0 -0 5.02953e-14)
(0 -0 6.16815e-14)
(0 -0 3.40687e-14)
(0 -0 2.51406e-14)
(0 -0 -5.45774e-15)
(0 -0 9.34593e-14)
(0 -0 3.90795e-14)
(0 -0 2.03349e-14)
(0 -0 -4.02151e-15)
(0 -0 1.79996e-15)
(0 -0 4.12634e-15)
(0 -0 2.08143e-14)
(0 -0 -6.65543e-12)
(0 -0 8.48164e-12)
(0 -0 -1.88871e-12)
(0 -0 4.75916e-13)
(0 -0 -1.06027e-13)
(0 -0 -5.72897e-15)
(0 -0 -6.90341e-14)
(0 -0 -4.7353e-14)
(0 -0 -7.64508e-14)
(0 -0 -1.12343e-13)
(0 -0 -8.26358e-14)
(0 -0 -7.71128e-14)
(0 -0 -5.03743e-14)
(0 -0 -3.80563e-14)
(0 -0 -4.58649e-14)
(0 -0 -1.17352e-13)
(0 -0 -1.04196e-13)
(0 -0 -3.76526e-14)
(0 -0 -1.46154e-14)
(0 -0 -2.49381e-14)
(0 -0 1.77175e-13)
(0 -0 2.96806e-12)
(0 -0 -6.87999e-13)
(0 -0 1.7246e-13)
(0 -0 -1.33683e-13)
(0 -0 -5.29599e-14)
(0 -0 7.68123e-14)
(0 -0 1.49356e-13)
(0 -0 6.0978e-14)
(0 -0 3.15294e-14)
(0 -0 -6.73987e-14)
(0 -0 -9.99603e-14)
(0 -0 -7.0496e-14)
(0 -0 -1.36121e-13)
(0 -0 -1.62729e-13)
(0 -0 -2.93928e-14)
(0 -0 1.60243e-14)
(0 -0 4.15369e-15)
(0 -0 3.95783e-14)
(0 -0 -5.67223e-15)
(0 -0 4.68162e-12)
(0 -0 -1.05709e-11)
(0 -0 2.39251e-12)
(0 -0 -5.75178e-13)
(0 -0 1.89834e-13)
(0 -0 9.73052e-14)
(0 -0 9.32586e-14)
(0 -0 2.70128e-14)
(0 -0 8.94792e-14)
(0 -0 8.8591e-14)
(0 -0 5.44905e-14)
(0 -0 4.33589e-14)
(0 -0 4.74025e-14)
(0 -0 5.56676e-14)
(0 -0 5.25285e-14)
(0 -0 2.66543e-14)
(0 -0 6.12459e-14)
(0 -0 9.40424e-14)
(0 -0 -1.20533e-15)
(0 -0 -1.0554e-14)
(0 -0 -3.11352e-12)
(0 -0 4.24546e-12)
(0 -0 -1.12073e-12)
(0 -0 1.55859e-13)
(0 -0 -1.46736e-13)
(0 -0 -4.48935e-14)
(0 -0 -1.22542e-13)
(0 -0 -1.5008e-13)
(0 -0 -1.19508e-13)
(0 -0 -7.82962e-14)
(0 -0 -1.96637e-14)
(0 -0 3.49534e-14)
(0 -0 6.57388e-14)
(0 -0 1.26494e-14)
(0 -0 8.75215e-14)
(0 -0 1.7581e-15)
(0 -0 -3.41114e-15)
(0 -0 -7.4233e-14)
(0 -0 -3.41871e-14)
(0 -0 4.43875e-14)
(0 -0 -5.05284e-12)
(0 -0 7.79395e-12)
(0 -0 -1.59326e-12)
(0 -0 4.71659e-13)
(0 -0 -3.05789e-14)
(0 -0 1.48121e-14)
(0 -0 1.77401e-14)
(0 -0 4.76244e-14)
(0 -0 2.26661e-14)
(0 -0 3.37514e-14)
(0 -0 3.31727e-14)
(0 -0 6.46376e-16)
(0 -0 -5.78492e-14)
(0 -0 -5.90205e-15)
(0 -0 -5.61599e-14)
(0 -0 3.08718e-14)
(0 -0 3.25102e-15)
(0 -0 -8.05516e-15)
(0 -0 2.79462e-14)
(0 -0 1.41787e-14)
)
;

boundaryField
{
    movingWall
    {
        type            calculated;
        value           nonuniform List<vector> 
20
(
(0 -0 -1.27113e-11)
(0 -0 1.01003e-11)
(0 -0 -1.48944e-12)
(0 -0 6.66598e-13)
(0 -0 2.26073e-13)
(0 -0 2.81266e-13)
(0 -0 2.1268e-13)
(0 -0 2.15459e-13)
(0 -0 2.62015e-13)
(0 -0 1.39873e-13)
(0 -0 1.39294e-13)
(0 -0 1.33873e-13)
(0 -0 4.07698e-14)
(0 -0 8.29158e-14)
(0 -0 4.24591e-14)
(0 -0 9.25846e-14)
(0 -0 9.20689e-14)
(0 -0 8.07627e-14)
(0 -0 8.96589e-14)
(0 -0 1.41787e-14)
)
;
    }
    fixedWalls
    {
        type            calculated;
        value           nonuniform List<vector> 
60
(
(0 -0 5.97795e-11)
(0 -0 3.65606e-12)
(0 -0 -4.86034e-11)
(0 -0 3.39665e-11)
(0 -0 -9.48761e-14)
(0 -0 -3.42744e-11)
(0 -0 4.57009e-11)
(0 -0 -1.68766e-11)
(0 -0 -2.37167e-11)
(0 -0 4.72329e-11)
(0 -0 -5.10877e-11)
(0 -0 3.49504e-11)
(0 -0 7.21706e-13)
(0 -0 -3.94338e-11)
(0 -0 5.87006e-11)
(0 -0 -3.62092e-11)
(0 -0 -1.24669e-11)
(0 -0 4.51692e-11)
(0 -0 -1.86824e-11)
(0 -0 -3.27224e-11)
(0 -0 -2.20435e-14)
(0 -0 4.57743e-14)
(0 -0 5.09075e-14)
(0 -0 -7.69552e-15)
(0 -0 8.60724e-15)
(0 -0 -2.23293e-15)
(0 -0 1.27582e-14)
(0 -0 -2.92679e-14)
(0 -0 -9.67119e-15)
(0 -0 -2.62344e-14)
(0 -0 2.8507e-14)
(0 -0 6.65539e-16)
(0 -0 2.35136e-15)
(0 -0 2.78858e-15)
(0 -0 8.26864e-15)
(0 -0 -2.55967e-14)
(0 -0 -2.46819e-16)
(0 -0 -3.81014e-15)
(0 -0 4.91766e-14)
(0 -0 1.14462e-14)
(0 -0 1.7907e-11)
(0 -0 -1.64227e-11)
(0 -0 2.89957e-12)
(0 -0 -1.00001e-12)
(0 -0 -1.50831e-13)
(0 -0 -2.55199e-13)
(0 -0 -1.69471e-13)
(0 -0 -1.31268e-13)
(0 -0 -3.97499e-14)
(0 -0 -2.55321e-14)
(0 -0 -2.96858e-14)
(0 -0 7.23726e-14)
(0 -0 1.43503e-13)
(0 -0 1.53129e-13)
(0 -0 7.82066e-14)
(0 -0 4.4885e-15)
(0 -0 -2.70367e-14)
(0 -0 -2.48217e-14)
(0 -0 -3.69242e-14)
(0 -0 -5.8481e-14)
)
;
    }
    frontAndBack
    {
        type            empty;
    }
}


// ************************************************************************* //
