/*--------------------------------*- C++ -*----------------------------------*\
| =========                 |                                                 |
| \\      /  F ield         | OpenFOAM: The Open Source CFD Toolbox           |
|  \\    /   O peration     | Version:  2506                                  |
|   \\  /    A nd           | Website:  www.openfoam.com                      |
|    \\/     M anipulation  |                                                 |
\*---------------------------------------------------------------------------*/
FoamFile
{
    version     2.0;
    format      ascii;
    arch        "LSB;label=32;scalar=64";
    class       volVectorField;
    location    "9";
    object      wallShearStress;
}
// * * * * * * * * * * * * * * * * * * * * * * * * * * * * * * * * * * * * * //

dimensions      [0 2 -2 0 0 0 0];

internalField   uniform (0 0 0);

boundaryField
{
    movingWall
    {
        type            calculated;
        value           uniform (0 0 0);
    }
    fixedWalls
    {
        type            calculated;
        value           nonuniform List<vector> 
60
(
(1.88097e-16 -6.17853e-16 0)
(-3.21585e-16 -5.28236e-17 0)
(8.98392e-17 5.65723e-16 0)
(1.65884e-16 -4.01464e-16 0)
(-2.51074e-16 1.23329e-17 0)
(1.92911e-16 3.94243e-16 0)
(3.99964e-17 -5.3724e-16 0)
(-2.2912e-16 1.8774e-16 0)
(1.69133e-16 2.74572e-16 0)
(-4.61137e-17 -4.90218e-16 0)
(-1.17456e-17 4.90278e-16 0)
(2.41556e-17 -3.29988e-16 0)
(-5.75756e-17 7.96178e-18 0)
(8.24271e-17 3.98675e-16 0)
(8.05331e-17 -6.28748e-16 0)
(-2.57733e-16 3.74018e-16 0)
(2.51879e-16 1.89179e-16 0)
(3.52904e-17 -5.55775e-16 0)
(-3.11869e-16 2.00919e-16 0)
(1.69039e-16 3.61377e-16 0)
(-6.42918e-19 -2.20435e-19 0)
(1.30582e-18 -6.26459e-19 0)
(1.27582e-18 5.09075e-19 0)
(-7.05004e-20 1.00725e-18 0)
(-8.12459e-20 8.60724e-20 0)
(6.91821e-21 -2.23293e-20 0)
(1.16758e-22 1.27582e-19 0)
(-6.29501e-19 2.49422e-19 0)
(-5.87063e-19 -9.67119e-20 0)
(-1.16578e-18 2.79757e-19 0)
(-5.92461e-19 -2.57031e-19 0)
(-5.90537e-19 6.65539e-21 0)
(3.5384e-21 2.35136e-20 0)
(-6.27432e-19 2.78858e-20 0)
(-5.94253e-19 -4.59415e-19 0)
(3.09827e-20 2.86134e-19 0)
(-6.00983e-19 -2.46819e-21 0)
(-1.14704e-18 -3.81014e-20 0)
(-5.66692e-19 -5.03347e-20 0)
(-5.5863e-20 1.14462e-19 0)
(-6.00542e-17 -8.16937e-16 0)
(1.24259e-16 1.82886e-16 0)
(-3.25484e-17 -4.40278e-17 0)
(4.67101e-18 8.83026e-18 0)
(-4.70893e-18 -2.01371e-18 0)
(-1.8889e-18 -2.46829e-19 0)
(-1.858e-18 -4.26171e-19 0)
(-1.35185e-18 -3.20862e-19 0)
(-4.90679e-19 -5.30613e-19 0)
(-6.32858e-19 -5.69341e-19 0)
(-5.91321e-19 -1.53738e-18 0)
(1.05263e-18 -1.89668e-18 0)
(2.11769e-18 -4.79598e-19 0)
(2.02143e-18 6.46557e-19 0)
(9.94291e-19 8.2744e-19 0)
(-4.4885e-20 1.39319e-18 0)
(-6.17811e-19 7.68753e-19 0)
(-6.39961e-19 1.05271e-19 0)
(-5.18936e-19 -4.56599e-19 0)
(-3.03368e-19 -4.74614e-19 0)
)
;
    }
    frontAndBack
    {
        type            empty;
    }
}


// ************************************************************************* //
