/*--------------------------------*- C++ -*----------------------------------*\
| =========                 |                                                 |
| \\      /  F ield         | OpenFOAM: The Open Source CFD Toolbox           |
|  \\    /   O peration     | Version:  2506                                  |
|   \\  /    A nd           | Website:  www.openfoam.com                      |
|    \\/     M anipulation  |                                                 |
\*---------------------------------------------------------------------------*/
FoamFile
{
    version     2.0;
    format      ascii;
    arch        "LSB;label=32;scalar=64";
    class       volScalarField;
    location    "9";
    object      yPlus;
}
// * * * * * * * * * * * * * * * * * * * * * * * * * * * * * * * * * * * * * //

dimensions      [0 0 0 0 0 0 0];

internalField   uniform 0;

boundaryField
{
    movingWall
    {
        type            calculated;
        value           nonuniform List<scalar> 
20
(
4.6731e-06
2.1855e-06
1.07933e-06
5.16556e-07
4.45753e-07
4.09015e-07
3.72631e-07
3.728e-07
4.09705e-07
2.92087e-07
2.88764e-07
2.88681e-07
1.67027e-07
2.38544e-07
1.81247e-07
2.41184e-07
2.36869e-07
2.37229e-07
2.49611e-07
8.45806e-08
)
;
    }
    fixedWalls
    {
        type            calculated;
        value           nonuniform List<scalar> 
60
(
6.17824e-06
2.61073e-06
5.73669e-06
4.84324e-06
2.45144e-06
4.85698e-06
5.57429e-06
3.4862e-06
4.02876e-06
5.48458e-06
5.59384e-06
4.62761e-06
1.74734e-06
4.97972e-06
6.17722e-06
4.87853e-06
3.31766e-06
5.61634e-06
3.81001e-06
4.6731e-06
1.76031e-07
2.36138e-07
2.52949e-07
1.70504e-07
7.33452e-08
3.73575e-08
8.92964e-08
1.66699e-07
1.68541e-07
2.35614e-07
1.66642e-07
1.66609e-07
3.83354e-08
1.66764e-07
1.73635e-07
3.07036e-08
1.66601e-07
2.35716e-07
1.76053e-07
8.45806e-08
6.17824e-06
2.86255e-06
1.38977e-06
6.62055e-07
4.64764e-07
3.72668e-07
3.34091e-07
2.90885e-07
1.79554e-07
1.96226e-07
2.63415e-07
2.90413e-07
3.36564e-07
3.36377e-07
2.60229e-07
2.19921e-07
1.97782e-07
1.67901e-07
1.87215e-07
1.76031e-07
)
;
    }
    frontAndBack
    {
        type            empty;
    }
}


// ************************************************************************* //
