/*--------------------------------*- C++ -*----------------------------------*\
| =========                 |                                                 |
| \\      /  F ield         | OpenFOAM: The Open Source CFD Toolbox           |
|  \\    /   O peration     | Version:  2506                                  |
|   \\  /    A nd           | Website:  www.openfoam.com                      |
|    \\/     M anipulation  |                                                 |
\*---------------------------------------------------------------------------*/
FoamFile
{
    version     2.0;
    format      ascii;
    arch        "LSB;label=32;scalar=64";
    class       volScalarField;
    location    "1.575";
    object      p;
}
// * * * * * * * * * * * * * * * * * * * * * * * * * * * * * * * * * * * * * //

dimensions      [0 2 -2 0 0 0 0];

internalField   nonuniform List<scalar> 
6400
(
-2.09952e-08
-3.48879e-06
-6.69547e-05
-0.00018801
-0.000351832
-0.00054514
-0.000756396
-0.000975837
-0.00119547
-0.00140894
-0.00161122
-0.00179843
-0.00196759
-0.00211644
-0.00224332
-0.00234701
-0.00242665
-0.00248164
-0.00251154
-0.0025161
-0.00249512
-0.00244851
-0.00237621
-0.00227821
-0.00215454
-0.0020053
-0.00183062
-0.00163075
-0.00140598
-0.00115676
-0.000883669
-0.000587426
-0.00026894
7.06738e-05
0.000430089
0.000807746
0.00120184
0.00161032
0.00203089
0.00246098
0.00289781
0.00333836
0.00377941
0.00421757
0.0046493
0.00507096
0.00547885
0.00586928
0.00623859
0.00658323
0.00689981
0.00718519
0.00743649
0.00765118
0.00782713
0.00796268
0.00805666
0.00810843
0.00811794
0.00808572
0.00801292
0.0079013
0.00775323
0.00757171
0.0073603
0.00712313
0.00686487
0.00659069
0.00630626
0.00601766
0.00573144
0.0054545
0.00519413
0.00495792
0.00475365
0.00458901
0.00447089
0.00440447
0.00439189
0.00441995
3.68016e-06
1.9701e-07
-5.58264e-05
-0.000158454
-0.000295666
-0.000457959
-0.000636578
-0.000823646
-0.00101239
-0.00119719
-0.00137345
-0.00153747
-0.00168635
-0.0018178
-0.00193006
-0.00202181
-0.00209205
-0.00214004
-0.00216523
-0.00216725
-0.0021458
-0.00210071
-0.00203186
-0.0019392
-0.00182272
-0.00168249
-0.00151865
-0.00133141
-0.00112109
-0.000888113
-0.000633047
-0.000356601
-5.96494e-05
0.000256739
0.000591297
0.00094255
0.0013088
0.00168812
0.00207836
0.00247714
0.00288187
0.00328976
0.00369784
0.00410298
0.00450194
0.00489137
0.00526791
0.00562818
0.00596885
0.00628671
0.00657868
0.00684192
0.00707385
0.00727223
0.00743515
0.00756116
0.00764927
0.00769896
0.00771026
0.00768374
0.00762052
0.00752229
0.00739129
0.00723033
0.00704273
0.0068323
0.00660336
0.00636065
0.00610933
0.00585492
0.00560324
0.00536043
0.00513277
0.0049267
0.00474855
0.0046043
0.00449887
0.00443579
0.00441968
0.00444794
6.76116e-05
5.63203e-05
-1.53445e-07
-9.50403e-05
-0.000218382
-0.000362709
-0.000521048
-0.00068691
-0.000854575
-0.00101914
-0.00117652
-0.00132335
-0.00145688
-0.00157495
-0.00167584
-0.0017582
-0.001821
-0.00186344
-0.00188494
-0.00188504
-0.00186341
-0.00181982
-0.00175409
-0.00166614
-0.00155593
-0.00142352
-0.001269
-0.00109258
-0.000894544
-0.000675301
-0.000435383
-0.000175462
0.000103628
0.000400874
0.000715079
0.00104485
0.00138858
0.00174446
0.00211047
0.00248437
0.00286374
0.00324597
0.00362827
0.00400772
0.00438129
0.00474587
0.00509832
0.0054355
0.00575431
0.00605177
0.00632503
0.00657148
0.00678873
0.00697471
0.00712769
0.00724637
0.00732986
0.00737772
0.00739003
0.00736738
0.00731086
0.0072221
0.00710324
0.00695693
0.00678629
0.00659492
0.00638683
0.00616642
0.00593844
0.00570795
0.00548024
0.00526079
0.00505518
0.00486899
0.00470767
0.00457626
0.00447885
0.00441872
0.00440316
0.00443585
0.000190197
0.00015956
9.38552e-05
-1.99646e-06
-0.000120976
-0.000256878
-0.000403915
-0.000556728
-0.000710506
-0.000861076
-0.00100488
-0.00113895
-0.00126082
-0.00136852
-0.00146045
-0.00153534
-0.0015922
-0.00163025
-0.00164889
-0.00164765
-0.00162617
-0.00158419
-0.00152152
-0.00143803
-0.00133367
-0.00120843
-0.00106241
-0.000895758
-0.000708736
-0.000501712
-0.000275171
-2.97332e-05
0.000233822
0.000514545
0.000811316
0.00112283
0.00144757
0.00178383
0.00212971
0.0024831
0.0028417
0.00320306
0.00356454
0.00392336
0.00427669
0.00462156
0.004955
0.00527405
0.00557577
0.00585733
0.00611607
0.00634949
0.00655536
0.00673172
0.00687695
0.00698984
0.00706956
0.00711573
0.00712845
0.0071083
0.00705635
0.00697418
0.00686382
0.00672782
0.00656915
0.00639118
0.00619771
0.00599286
0.00578106
0.00556696
0.00535544
0.00515147
0.00496009
0.00478628
0.00463489
0.00451047
0.00441677
0.0043572
0.00434008
0.00437117
0.000357662
0.00029859
0.000216867
0.000114197
-6.17073e-06
-0.000139178
-0.000280038
-0.000424414
-0.000568382
-0.000708475
-0.000841697
-0.000965513
-0.00107781
-0.00117684
-0.00126121
-0.00132976
-0.00138159
-0.00141598
-0.00143234
-0.00143022
-0.00140927
-0.0013692
-0.0013098
-0.00123092
-0.00113248
-0.00101443
-0.000876823
-0.00071978
-0.000543513
-0.000348332
-0.000134667
9.69202e-05
0.00034572
0.000610859
0.000891301
0.00118583
0.00149303
0.0018113
0.00213884
0.00247367
0.00281362
0.00315635
0.00349935
0.00384002
0.0041756
0.00450332
0.0048203
0.00512372
0.00541079
0.00567879
0.00592517
0.00614754
0.00634375
0.00651195
0.00665058
0.00675848
0.00683488
0.00687942
0.00689219
0.00687378
0.00682522
0.00674802
0.00664415
0.00651603
0.00636649
0.00619876
0.0060164
0.0058233
0.00562358
0.00542159
0.00522181
0.00502878
0.00484709
0.00468123
0.00453556
0.0044142
0.00432066
0.00425833
0.004235
0.00425622
0.000557657
0.000464484
0.000361767
0.000247652
0.000121233
-1.34407e-05
-0.00015243
-0.000292352
-0.000430111
-0.000562914
-0.000688333
-0.000804297
-0.000909053
-0.00100115
-0.00107939
-0.0011428
-0.0011906
-0.00122213
-0.00123689
-0.00123446
-0.00121447
-0.00117666
-0.0011208
-0.00104671
-0.000954272
-0.000843422
-0.000714157
-0.000566548
-0.000400749
-0.000217008
-1.56916e-05
0.00020271
0.000437567
0.00068809
0.000953333
0.00123217
0.00152329
0.00182519
0.00213619
0.0024544
0.00277778
0.00310409
0.00343095
0.00375585
0.00407617
0.00438922
0.00469224
0.0049825
0.0052573
0.00551402
0.00575016
0.00596342
0.00615171
0.00631321
0.00644642
0.0065502
0.00662379
0.00666684
0.00667944
0.00666214
0.00661593
0.00654228
0.00644307
0.00632063
0.00617766
0.00601725
0.00584277
0.0056579
0.00546652
0.00527269
0.00508055
0.00489432
0.00471815
0.00455615
0.00441227
0.00429024
0.00419334
0.00412478
0.00409085
0.00409571
0.000779304
0.000648783
0.000521689
0.000392574
0.000256357
0.000116248
-2.4531e-05
-0.000163464
-0.000298213
-0.000426632
-0.000546848
-0.000657247
-0.000756455
-0.000843329
-0.000916924
-0.000976457
-0.00102128
-0.00105087
-0.00106478
-0.00106264
-0.00104413
-0.00100898
-0.000956957
-0.000887867
-0.000801558
-0.000697925
-0.000576918
-0.00043855
-0.000282913
-0.000110184
7.93462e-05
0.000285266
0.000507031
0.000743946
0.000995158
0.00125964
0.00153617
0.00182336
0.00211963
0.00242319
0.00273209
0.00304421
0.00335726
0.0036688
0.00397633
0.0042772
0.00456876
0.00484833
0.00511326
0.00536098
0.00558905
0.00579518
0.00597731
0.00613365
0.00626269
0.0063633
0.0064347
0.00647653
0.00648886
0.00647219
0.00642748
0.00635612
0.00625995
0.00614118
0.00600242
0.00584662
0.00567703
0.00549711
0.00531057
0.0051212
0.00493289
0.00474956
0.00457504
0.00441309
0.00426731
0.00414107
0.00403747
0.00395949
0.00391133
0.00389525
0.001013
0.000843529
0.00068989
0.000543224
0.00039441
0.000245953
0.00010047
-4.02924e-05
-0.000174699
-0.000301216
-0.000418494
-0.000525367
-0.000620848
-0.000704112
-0.000774474
-0.000831356
-0.00087428
-0.000902844
-0.000916696
-0.000915523
-0.000899045
-0.000867011
-0.00081919
-0.000755366
-0.000675355
-0.000579015
-0.000466242
-0.000336983
-0.000191259
-2.91742e-05
0.000149061
0.000343127
0.000552574
0.000776801
0.00101505
0.0012664
0.00152972
0.00180374
0.00208696
0.00237769
0.00267407
0.00297407
0.00327547
0.00357592
0.00387295
0.00416401
0.00444645
0.00471766
0.004975
0.00521593
0.005438
0.00563893
0.00581666
0.00596936
0.00609552
0.00619397
0.0062639
0.00630492
0.00631703
0.00630072
0.00625687
0.00618683
0.00609233
0.00597555
0.00583898
0.00568546
0.00551812
0.00534028
0.00515547
0.0049673
0.00477943
0.00459554
0.0044192
0.00425389
0.0041029
0.00396932
0.00385603
0.00376581
0.0037006
0.0036605
0.00125043
0.00104144
0.000860003
0.000694067
0.000530635
0.000371635
0.000219186
7.43405e-05
-6.19152e-05
-0.000188614
-0.000304898
-0.000410042
-0.000503438
-0.000584578
-0.000653036
-0.000708454
-0.000750534
-0.000779003
-0.000793606
-0.000794106
-0.000780272
-0.00075187
-0.000708665
-0.00065043
-0.000576953
-0.000488044
-0.000383539
-0.000263318
-0.000127331
2.44038e-05
0.000191765
0.000374528
0.000572341
0.000784705
0.00101096
0.00125029
0.00150168
0.00176393
0.00203564
0.00231523
0.00260091
0.00289071
0.00318249
0.00347396
0.00376268
0.00404613
0.00432171
0.00458678
0.00483873
0.00507499
0.00529309
0.00549072
0.00566578
0.00581641
0.00594104
0.00603844
0.00610774
0.0061485
0.00616066
0.00614463
0.00610126
0.00603179
0.00593793
0.00582174
0.00568566
0.00553244
0.00536508
0.00518682
0.00500103
0.00481116
0.00462073
0.0044332
0.00425196
0.00408025
0.00392112
0.00377739
0.00365183
0.00354703
0.00346258
0.0033965
0.00148436
0.00123595
0.00102612
0.000839813
0.000660357
0.000489212
0.000328069
0.000177353
3.74664e-05
-9.1146e-05
-0.0002081
-0.000313093
-0.000405875
-0.000486248
-0.000554052
-0.000609152
-0.000651419
-0.00068072
-0.00069691
-0.000699826
-0.00068928
-0.000665065
-0.000626947
-0.000574686
-0.000508033
-0.000426749
-0.000330611
-0.000219427
-9.30643e-05
4.85443e-05
0.000205375
0.000377305
0.000564086
0.000765322
0.000980463
0.00120879
0.0014494
0.00170118
0.00196283
0.00223284
0.0025095
0.00279092
0.003075
0.00335948
0.00364196
0.00391993
0.00419079
0.00445188
0.00470058
0.00493426
0.00515042
0.00534667
0.00552086
0.00567104
0.00579557
0.00589314
0.00596281
0.00600403
0.00601668
0.0060011
0.00595804
0.0058887
0.00579469
0.00567801
0.00554103
0.00538643
0.00521712
0.00503625
0.00484709
0.00465299
0.00445733
0.00426343
0.00407453
0.00389371
0.00372382
0.00356749
0.00342741
0.00330605
0.00320074
0.00310746
0.00170846
0.00142112
0.00118274
0.000975441
0.000779047
0.000594622
0.000423497
0.000265532
0.00012059
-1.1369e-05
-0.000130408
-0.000236614
-0.000330091
-0.000410939
-0.000479256
-0.000535122
-0.000578583
-0.000609642
-0.000628262
-0.000634356
-0.000627785
-0.000608358
-0.000575849
-0.000529998
-0.000470521
-0.000397125
-0.000309518
-0.000207438
-9.06666e-05
4.09612e-05
0.000187524
0.000349003
0.00052526
0.000716006
0.000920804
0.00113904
0.00136991
0.00161241
0.00186532
0.00212721
0.00239644
0.00267117
0.00294935
0.00322875
0.00350697
0.00378151
0.00404974
0.00430898
0.00455653
0.00478972
0.00500596
0.0052028
0.00537797
0.00552942
0.00565541
0.00575452
0.0058257
0.00586831
0.00588212
0.00586737
0.00582472
0.0057553
0.00566064
0.00554268
0.00540371
0.00524636
0.00507347
0.00488812
0.00469352
0.00449294
0.00428968
0.00408698
0.00388797
0.0036956
0.00351262
0.00334151
0.00318496
0.00304541
0.00291798
0.00279675
0.00191701
0.00159149
0.00132475
0.0010962
0.000882329
0.000683865
0.000501832
0.000335576
0.000184457
4.79833e-05
-7.43273e-05
-0.000182929
-0.000278257
-0.000360706
-0.000430622
-0.000488284
-0.000533909
-0.000567642
-0.000589546
-0.000599604
-0.000597719
-0.000583727
-0.000557401
-0.000518457
-0.000466569
-0.000401388
-0.000322555
-0.000229727
-0.000122593
-8.85831e-07
0.00013558
0.000286895
0.000453033
0.000633824
0.000828944
0.00103789
0.00125996
0.00149424
0.00173961
0.00199472
0.00225799
0.00252763
0.00280162
0.00307774
0.00335362
0.0036267
0.00389435
0.00415381
0.00440233
0.00463714
0.00485555
0.00505499
0.00523308
0.00538764
0.00551678
0.00561897
0.005693
0.00573812
0.00575397
0.00574068
0.00569881
0.00562939
0.00553386
0.00541411
0.00527236
0.00511117
0.00493336
0.00474196
0.00454014
0.00433113
0.00411819
0.00390451
0.00369317
0.00348709
0.00328893
0.00310109
0.00292636
0.0027672
0.00261664
0.00246696
0.00210486
0.00174206
0.00144737
0.00119757
0.00096597
0.000753009
0.000559443
0.000384133
0.000225967
8.40331e-05
-4.25309e-05
-0.000154542
-0.00025275
-0.000337822
-0.000410335
-0.00047077
-0.000519506
-0.000556816
-0.000582859
-0.000597682
-0.000601233
-0.000593368
-0.000573849
-0.000542366
-0.000498547
-0.000441984
-0.000372248
-0.000288904
-0.000191543
-7.97931e-05
4.66431e-05
0.000187972
0.00034429
0.000515546
0.000701535
0.000901867
0.00111594
0.00134296
0.00158188
0.00183143
0.0020901
0.00235613
0.00262754
0.00290212
0.00317748
0.00345105
0.00372012
0.00398189
0.00423349
0.00447205
0.00469477
0.00489893
0.00508199
0.00524163
0.00537579
0.00548276
0.00556121
0.00561019
0.00562923
0.00561829
0.00557783
0.00550876
0.00541244
0.00529068
0.00514563
0.00497983
0.00479605
0.0045973
0.00438674
0.0041676
0.00394313
0.00371654
0.0034909
0.00326914
0.0030539
0.00284759
0.00265312
0.00247309
0.00229854
0.00211999
0.00226725
0.00186818
0.00154608
0.00127525
0.0010259
0.000798224
0.000592726
0.000407818
0.000241953
9.38148e-05
-3.78249e-05
-0.00015412
-0.000256113
-0.000344732
-0.000420774
-0.00048491
-0.000537673
-0.000579451
-0.000610491
-0.000630904
-0.000640677
-0.000639671
-0.000627636
-0.000604231
-0.000569035
-0.000521576
-0.000461343
-0.000387808
-0.000300457
-0.000198807
-8.24448e-05
4.89627e-05
0.000195637
0.000357653
0.00053493
0.000727195
0.000933963
0.00115453
0.00138796
0.00163305
0.00188836
0.00215217
0.00242251
0.00269721
0.00297383
0.00324977
0.00352226
0.0037884
0.00404522
0.00428974
0.00451898
0.00473007
0.00492029
0.00508714
0.00522836
0.00534206
0.0054267
0.00548115
0.00550477
0.00549736
0.00545923
0.00539116
0.00529443
0.00517073
0.00502218
0.00485126
0.00466074
0.00445361
0.00423305
0.00400233
0.00376473
0.0035235
0.00328177
0.00304254
0.00280849
0.00258209
0.00236646
0.00216438
0.00196498
0.00175714
0.00239974
0.00196546
0.00161664
0.00132513
0.00105819
0.000815763
0.000598127
0.000403264
0.000229215
7.4285e-05
-6.31116e-05
-0.000184439
-0.000291021
-0.000384029
-0.000464473
-0.000533197
-0.000590875
-0.000638002
-0.000674909
-0.000701761
-0.000718572
-0.000725204
-0.00072139
-0.00070675
-0.000680809
-0.000643024
-0.000592794
-0.000529494
-0.000452501
-0.000361213
-0.00025509
-0.000133668
3.40507e-06
0.00015634
0.000325181
0.000509783
0.000709782
0.000924585
0.00115335
0.00139495
0.00164801
0.00191087
0.00218158
0.00245795
0.00273755
0.00301772
0.00329559
0.00356819
0.00383242
0.00408514
0.00432321
0.00454357
0.0047433
0.00491967
0.00507021
0.0051928
0.00528566
0.00534748
0.00537737
0.00537496
0.00534038
0.00527429
0.00517781
0.00505257
0.00490061
0.00472437
0.0045266
0.00431033
0.00407876
0.00383523
0.0035831
0.0033257
0.00306627
0.00280792
0.00255346
0.00230544
0.00206727
0.00184199
0.00161689
0.00137921
0.00249812
0.00202979
0.001655
0.00134329
0.00105904
0.000801979
0.000572147
0.000367124
0.000184548
2.23611e-05
-0.000121354
-0.00024836
-0.000360249
-0.000458422
-0.000544088
-0.000618253
-0.000681714
-0.000735072
-0.000778728
-0.000812893
-0.000837598
-0.000852698
-0.000857902
-0.000852789
-0.00083682
-0.000809373
-0.000769752
-0.000717226
-0.000651058
-0.00057052
-0.000474937
-0.000363709
-0.00023634
-9.24831e-05
6.80459e-05
0.000245235
0.000438849
0.000648411
0.000873179
0.00111212
0.00136393
0.00162699
0.00189938
0.00217892
0.00246315
0.00274933
0.00303455
0.00331571
0.00358957
0.00385282
0.00410215
0.00433426
0.00454601
0.00473441
0.00489676
0.00503065
0.00513406
0.00520541
0.00524358
0.00524797
0.00521852
0.00515569
0.00506049
0.00493441
0.00477944
0.00459797
0.00439275
0.00416684
0.00392351
0.00366617
0.00339829
0.00312336
0.00284477
0.00256578
0.00228936
0.00201826
0.0017562
0.00150656
0.0012548
0.000986554
0.00255843
0.00205722
0.00165731
0.00132596
0.00102481
0.000753332
0.000511367
0.00029609
0.000104754
-6.50476e-05
-0.000215547
-0.000348798
-0.000466643
-0.000570706
-0.000662374
-0.000742801
-0.000812907
-0.000873381
-0.000924689
-0.000967071
-0.00100057
-0.00102502
-0.00104011
-0.00104537
-0.00104018
-0.00102384
-0.000995541
-0.000954454
-0.000899712
-0.000830453
-0.00074586
-0.000645187
-0.000527791
-0.000393175
-0.000241006
-7.11519e-05
0.000116289
0.000320968
0.000542251
0.00077921
0.00103061
0.00129488
0.00157017
0.00185426
0.00214468
0.00243865
0.00273316
0.00302499
0.00331075
0.00358695
0.00385005
0.00409655
0.00432301
0.00452619
0.00470308
0.00485097
0.00496755
0.00505093
0.00509973
0.00511307
0.00509066
0.00503276
0.00494021
0.00481436
0.00465712
0.00447083
0.00425825
0.00402247
0.00376685
0.00349492
0.00321029
0.00291663
0.00261753
0.00231646
0.00201663
0.001721
0.00143369
0.00115846
0.000878953
0.0005792
0.00257687
0.00204402
0.0016199
0.00126955
0.000951968
0.000666393
0.000412447
0.000186912
-1.33275e-05
-0.000191017
-0.000348695
-0.000488694
-0.000613096
-0.000723728
-0.000822147
-0.000909646
-0.000987256
-0.00105575
-0.00111563
-0.00116716
-0.0012104
-0.00124516
-0.00127109
-0.00128764
-0.00129414
-0.00128977
-0.00127365
-0.0012448
-0.00120222
-0.00114493
-0.00107194
-0.000982355
-0.000875379
-0.000750352
-0.000606779
-0.000444372
-0.000263082
-6.31201e-05
0.000155006
0.000390475
0.000642141
0.000908513
0.00118775
0.00147768
0.00177579
0.00207925
0.00238496
0.00268958
0.00298955
0.0032812
0.00356074
0.00382441
0.00406848
0.00428941
0.00448384
0.00464873
0.00478143
0.0048797
0.00494184
0.00496667
0.00495362
0.0049027
0.00481454
0.00469036
0.00453195
0.00434159
0.00412205
0.00387647
0.0036083
0.00332121
0.00301901
0.00270557
0.00238474
0.00206025
0.00173558
0.00141398
0.00110001
0.000797859
0.000489369
0.000156902
0.00254981
0.00198661
0.00153922
0.00117059
0.000837128
0.000537842
0.000272136
3.64166e-05
-0.000172802
-0.00035859
-0.000523789
-0.000670991
-0.000802509
-0.00092036
-0.00102626
-0.00112164
-0.00120762
-0.00128504
-0.00135444
-0.00141612
-0.0014701
-0.00151619
-0.00155398
-0.00158286
-0.00160205
-0.00161067
-0.00160768
-0.00159201
-0.00156251
-0.00151803
-0.00145743
-0.00137967
-0.00128375
-0.00116886
-0.00103433
-0.000879695
-0.000704745
-0.000509542
-0.000294452
-6.01702e-05
0.00019226
0.000461429
0.00074555
0.00104246
0.00134965
0.00166423
0.00198302
0.00230255
0.00261909
0.00292875
0.0032275
0.00351129
0.00377608
0.00401797
0.00423323
0.00441845
0.00457057
0.00468698
0.00476558
0.00480485
0.00480389
0.00476243
0.00468085
0.00456018
0.00440209
0.00420879
0.00398303
0.00372801
0.0034473
0.00314473
0.00282433
0.00249021
0.00214653
0.00179734
0.00144643
0.00109739
0.000755284
0.000424794
8.58869e-05
-0.000280777
0.00247377
0.00188156
0.00141193
0.00102578
0.000677035
0.00036448
8.72978e-05
-0.000158481
-0.000376702
-0.000570759
-0.000743779
-0.000898605
-0.00103777
-0.00116347
-0.00127759
-0.00138165
-0.00147688
-0.00156416
-0.00164408
-0.00171693
-0.00178274
-0.00184125
-0.00189201
-0.00193433
-0.00196736
-0.00199009
-0.00200137
-0.00199997
-0.00198461
-0.00195398
-0.00190677
-0.00184175
-0.00175775
-0.00165377
-0.00152895
-0.00138264
-0.00121445
-0.00102428
-0.000812332
-0.000579158
-0.000325677
-5.32047e-05
0.000236541
0.000541439
0.000858967
0.00118621
0.0015199
0.00185643
0.00219191
0.00252222
0.00284308
0.00315011
0.00343893
0.00370525
0.00394494
0.00415415
0.00432938
0.00446756
0.00456618
0.00462331
0.00463764
0.00460858
0.00453622
0.00442137
0.00426551
0.00407079
0.00383993
0.00357618
0.00328322
0.0029651
0.00262606
0.00227054
0.001903
0.00152788
0.00114935
0.00077137
0.000399578
3.91887e-05
-0.000331769
-0.000734409
0.00234542
0.00172561
0.00123481
0.000831943
0.000468575
0.000143245
-0.000145086
-0.000400761
-0.000627975
-0.000830436
-0.00101154
-0.00117439
-0.00132172
-0.00145591
-0.00157897
-0.00169254
-0.00179791
-0.00189603
-0.0019875
-0.00207261
-0.00215137
-0.00222349
-0.00228843
-0.00234544
-0.00239356
-0.00243167
-0.00245848
-0.00247263
-0.00247266
-0.0024571
-0.00242447
-0.00237334
-0.00230236
-0.00221029
-0.0020961
-0.00195892
-0.00179819
-0.00161358
-0.00140513
-0.00117323
-0.000918654
-0.000642596
-0.000346685
-3.2987e-05
0.000295994
0.00063732
0.000987642
0.00134324
0.00170004
0.00205369
0.00239964
0.00273318
0.00304955
0.00334404
0.00361207
0.00384929
0.0040517
0.00421576
0.00433843
0.0044173
0.00445064
0.00443743
0.00437744
0.00427119
0.00411997
0.0039258
0.00369135
0.00341995
0.00311538
0.00278189
0.00242401
0.00204651
0.00165424
0.00125204
0.000844503
0.000436043
3.29129e-05
-0.000359077
-0.000763934
-0.00120465
0.00216158
0.00151567
0.00100481
0.000586086
0.00020879
-0.000128785
-0.000427907
-0.000693284
-0.000929455
-0.00114043
-0.00132988
-0.00150114
-0.00165715
-0.00180045
-0.00193319
-0.0020571
-0.00217355
-0.00228351
-0.00238761
-0.00248614
-0.00257907
-0.00266605
-0.00274649
-0.00281955
-0.00288414
-0.00293904
-0.00298281
-0.00301395
-0.00303082
-0.00303178
-0.00301515
-0.00297929
-0.00292264
-0.00284377
-0.00274139
-0.00261444
-0.00246212
-0.00228389
-0.00207959
-0.00184941
-0.00159396
-0.00131429
-0.00101191
-0.000688808
-0.000347449
9.22135e-06
0.000377797
0.000754439
0.00113491
0.00151463
0.00188875
0.00225221
0.00259986
0.00292651
0.00322708
0.00349671
0.00373082
0.0039253
0.00407654
0.00418159
0.00423819
0.00424487
0.00420095
0.00410665
0.00396298
0.00377182
0.00353578
0.00325819
0.00294299
0.00259464
0.00221797
0.00181811
0.00140033
0.000969959
0.000532061
9.15313e-05
-0.000344685
-0.000770125
-0.00121095
-0.00169215
0.00191924
0.00124878
0.000719059
0.000285372
-0.000105121
-0.00045438
-0.00076391
-0.00103877
-0.00128384
-0.00150343
-0.00170147
-0.00188153
-0.00204674
-0.0021998
-0.00234296
-0.00247807
-0.00260655
-0.00272941
-0.00284728
-0.00296045
-0.00306883
-0.00317203
-0.00326939
-0.00335996
-0.00344255
-0.0035158
-0.00357814
-0.00362789
-0.00366325
-0.00368238
-0.00368339
-0.00366444
-0.00362374
-0.0035596
-0.00347052
-0.00335519
-0.00321254
-0.00304182
-0.00284262
-0.00261491
-0.00235912
-0.0020761
-0.00176722
-0.00143437
-0.00107994
-0.00070685
-0.000318555
8.10087e-05
0.000487445
0.000895948
0.00130137
0.00169828
0.0020811
0.00244415
0.00278181
0.00308861
0.00335936
0.00358929
0.00377417
0.0039104
0.00399512
0.00402629
0.00400278
0.00392436
0.00379176
0.00360662
0.00337147
0.00308965
0.00276521
0.00240284
0.0020077
0.0015853
0.00114142
0.000681864
0.000212251
-0.00026198
-0.000733131
-0.00119402
-0.00167313
-0.00219756
0.00161556
0.000922187
0.000374848
-7.28596e-05
-0.000475786
-0.000836145
-0.00115567
-0.00143979
-0.00169369
-0.00192199
-0.00212887
-0.00231812
-0.00249305
-0.00265651
-0.00281087
-0.00295807
-0.00309957
-0.00323642
-0.00336926
-0.00349834
-0.00362354
-0.00374442
-0.00386022
-0.00396989
-0.00407215
-0.00416546
-0.00424814
-0.00431832
-0.00437403
-0.0044132
-0.00443376
-0.00443361
-0.00441072
-0.00436317
-0.00428917
-0.00418715
-0.00405578
-0.00389403
-0.00370123
-0.0034771
-0.00322182
-0.00293605
-0.00262097
-0.00227831
-0.00191037
-0.00152004
-0.00111076
-0.000686552
-0.000251957
0.000187998
0.000627865
0.00106185
0.0014839
0.00188782
0.00226739
0.0026165
0.00292927
0.00320021
0.00342434
0.00359734
0.00371567
0.00377663
0.0037785
0.00372058
0.00360319
0.00342772
0.00319652
0.00291293
0.0025811
0.00220595
0.00179297
0.00134812
0.000877675
0.000388034
-0.00011461
-0.000624211
-0.00113224
-0.00163075
-0.00215067
-0.00272139
0.0012479
0.000533336
-3.03326e-05
-0.000491082
-0.000905646
-0.00127649
-0.0016056
-0.00189873
-0.0021614
-0.00239849
-0.00261446
-0.00281329
-0.00299847
-0.003173
-0.00333936
-0.00349956
-0.00365512
-0.00380711
-0.00395615
-0.00410249
-0.00424596
-0.00438605
-0.00452192
-0.00465242
-0.00477612
-0.00489139
-0.00499635
-0.00508897
-0.00516708
-0.00522842
-0.00527065
-0.00529147
-0.00528856
-0.00525974
-0.00520294
-0.00511628
-0.00499813
-0.00484718
-0.00466244
-0.00444336
-0.00418983
-0.00390227
-0.00358163
-0.00322945
-0.00284791
-0.00243978
-0.0020085
-0.00155814
-0.00109335
-0.000619366
-0.000141932
0.000332773
0.00079823
0.00124769
0.00167429
0.00207121
0.00243181
0.0027498
0.00301938
0.0032354
0.0033935
0.00349024
0.00352321
0.00349112
0.00339382
0.00323232
0.00300878
0.00272647
0.00238962
0.00200336
0.00157355
0.00110662
0.000609374
8.88591e-05
-0.000448088
-0.000994751
-0.0015417
-0.00208012
-0.00264362
-0.00326404
0.000813816
7.98613e-05
-0.000498787
-0.00097156
-0.00139694
-0.00177765
-0.0021159
-0.00241778
-0.00268914
-0.00293513
-0.00316044
-0.00336925
-0.00356523
-0.00375152
-0.00393069
-0.00410484
-0.00427552
-0.00444382
-0.00461037
-0.00477538
-0.00493864
-0.00509957
-0.00525723
-0.00541038
-0.00555747
-0.00569671
-0.00582607
-0.00594333
-0.00604612
-0.00613196
-0.00619827
-0.00624248
-0.00626202
-0.00625439
-0.00621722
-0.00614832
-0.00604572
-0.00590777
-0.00573316
-0.005521
-0.00527087
-0.00498289
-0.00465773
-0.00429672
-0.00390182
-0.0034757
-0.00302173
-0.00254395
-0.00204714
-0.00153671
-0.00101868
-0.000499613
1.34951e-05
0.000513308
0.000992292
0.00144286
0.00185754
0.00222915
0.00255096
0.00281688
0.00302163
0.0031609
0.00323148
0.00323134
0.00315977
0.00301732
0.00280586
0.00252853
0.00218961
0.00179445
0.00134924
0.000860914
0.000336883
-0.000215136
-0.000787585
-0.00137301
-0.00196099
-0.00254178
-0.00315187
-0.00382572
0.000311093
-0.000440373
-0.00103259
-0.00151634
-0.00195169
-0.00234161
-0.00268856
-0.00299895
-0.00327893
-0.00353391
-0.0037688
-0.003988
-0.00419534
-0.00439408
-0.00458691
-0.00477596
-0.00496285
-0.00514869
-0.0053341
-0.00551924
-0.00570388
-0.00588735
-0.00606863
-0.00624637
-0.00641891
-0.00658429
-0.00674032
-0.0068846
-0.00701455
-0.00712745
-0.00722048
-0.0072908
-0.00733554
-0.00735188
-0.00733713
-0.00728874
-0.00720439
-0.00708205
-0.00692005
-0.00671712
-0.00647247
-0.00618588
-0.0058577
-0.00548896
-0.0050814
-0.00463749
-0.00416047
-0.00365437
-0.00312401
-0.00257493
-0.00201343
-0.00144643
-0.000881421
-0.000326332
0.000210588
0.000720937
0.00119633
0.00162861
0.00201001
0.00233339
0.00259242
0.00278177
0.00289728
0.00293609
0.00289675
0.00277925
0.00258509
0.00231719
0.00197983
0.00157853
0.00111986
0.000611223
6.07014e-05
-0.000523252
-0.0011323
-0.00175818
-0.00238937
-0.00301512
-0.003675
-0.00440635
-0.000262244
-0.00102926
-0.0016336
-0.00212724
-0.00257168
-0.00297016
-0.00332535
-0.00364399
-0.00393251
-0.00419656
-0.0044413
-0.00467131
-0.00489058
-0.00510247
-0.00530979
-0.00551473
-0.00571896
-0.00592358
-0.00612921
-0.00633601
-0.00654366
-0.00675144
-0.00695825
-0.00716262
-0.00736277
-0.00755659
-0.00774172
-0.00791557
-0.00807535
-0.00821809
-0.00834074
-0.00844013
-0.00851311
-0.00855652
-0.0085673
-0.00854255
-0.00847954
-0.00837584
-0.00822936
-0.00803841
-0.0078018
-0.00751889
-0.00718966
-0.0068148
-0.00639573
-0.00593468
-0.00543473
-0.00489979
-0.00433468
-0.00374508
-0.00313747
-0.00251913
-0.00189804
-0.00128273
-0.000682186
-0.000105687
0.000437415
0.000937878
0.00138681
0.00177587
0.00209756
0.00234537
0.00251403
0.00259968
0.00259999
0.00251428
0.00234351
0.00209032
0.0017589
0.0013549
0.000885239
0.000357851
-0.000218511
-0.00083459
-0.0014812
-0.00214918
-0.0028258
-0.00349921
-0.00421234
-0.00500555
-0.0009079
-0.00168845
-0.00230341
-0.00280582
-0.00325847
-0.00366483
-0.0040278
-0.00435442
-0.00465139
-0.00492461
-0.00517946
-0.00542069
-0.00565243
-0.00587819
-0.00610085
-0.00632267
-0.00654535
-0.00677001
-0.00699728
-0.00722726
-0.0074596
-0.00769352
-0.00792783
-0.00816096
-0.00839097
-0.00861565
-0.00883244
-0.00903856
-0.00923101
-0.00940659
-0.00956194
-0.00969364
-0.00979817
-0.00987205
-0.00991183
-0.0099142
-0.00987601
-0.00979439
-0.00966679
-0.00949104
-0.0092655
-0.00898907
-0.00866129
-0.00828242
-0.00785353
-0.00737653
-0.00685424
-0.00629043
-0.00568983
-0.00505818
-0.00440215
-0.00372932
-0.00304812
-0.0023677
-0.00169781
-0.00104862
-0.00043054
0.000146043
0.000670975
0.00113461
0.00152809
0.00184358
0.00207452
0.00221588
0.00226428
0.00221817
0.00207786
0.00184556
0.0015253
0.00112281
0.000645287
0.000101228
-0.00049991
-0.00114801
-0.00183295
-0.00254459
-0.00326891
-0.00399279
-0.0047628
-0.00562259
-0.0016273
-0.00241929
-0.00304333
-0.00355339
-0.00401335
-0.00442689
-0.00479717
-0.00513149
-0.00543682
-0.0057193
-0.0059845
-0.00623735
-0.00648212
-0.00672244
-0.00696128
-0.00720095
-0.0074432
-0.00768917
-0.00793947
-0.00819419
-0.00845293
-0.00871484
-0.00897866
-0.0092427
-0.00950493
-0.00976295
-0.0100141
-0.0102553
-0.0104834
-0.010695
-0.0108864
-0.0110538
-0.0111935
-0.0113015
-0.011374
-0.0114074
-0.0113979
-0.0113422
-0.0112372
-0.0110804
-0.0108695
-0.0106028
-0.0102796
-0.00989937
-0.00946292
-0.00897172
-0.00842826
-0.00783608
-0.00719978
-0.00652505
-0.0058187
-0.00508857
-0.0043435
-0.00359325
-0.00284832
-0.00211984
-0.00141929
-0.000758308
-0.000148417
0.00039929
0.000874439
0.00126768
0.00157099
0.00177793
0.0018839
0.00188627
0.00178454
0.00158034
0.00127741
0.000881448
0.000399953
-0.000158079
-0.000782439
-0.00146209
-0.00218591
-0.00294267
-0.00371691
-0.00449417
-0.0053249
-0.00625628
-0.00242158
-0.00322287
-0.00385443
-0.00437098
-0.00483731
-0.00525734
-0.00563445
-0.00597619
-0.00628978
-0.00658159
-0.00685736
-0.00712221
-0.00738054
-0.00763609
-0.00789191
-0.00815039
-0.00841331
-0.00868182
-0.00895653
-0.00923752
-0.00952436
-0.00981612
-0.0101115
-0.0104086
-0.0107054
-0.0109994
-0.0112876
-0.0115668
-0.0118338
-0.0120846
-0.0123155
-0.0125223
-0.0127009
-0.012847
-0.0129564
-0.0130248
-0.0130482
-0.0130227
-0.0129447
-0.0128109
-0.0126187
-0.0123657
-0.0120505
-0.0116723
-0.0112311
-0.0107281
-0.0101653
-0.00954586
-0.00887422
-0.00815597
-0.00739792
-0.00660813
-0.00579581
-0.00497128
-0.00414581
-0.00333145
-0.00254085
-0.00178695
-0.00108274
-0.000440912
0.000126484
0.000608391
0.000995093
0.00127855
0.00145266
0.00151355
0.00145966
0.00129186
0.00101345
0.000630027
0.000149268
-0.000419326
-0.00106478
-0.00177509
-0.00253803
-0.00334121
-0.00416756
-0.00500115
-0.00589662
-0.00690493
-0.00329154
-0.00409997
-0.00473745
-0.00525932
-0.0057311
-0.00615692
-0.00654035
-0.00688922
-0.00721095
-0.00751213
-0.00779867
-0.00807586
-0.00834823
-0.00861964
-0.00889321
-0.0091714
-0.00945602
-0.00974826
-0.0100487
-0.0103575
-0.0106741
-0.0109975
-0.0113264
-0.0116589
-0.0119927
-0.0123251
-0.0126532
-0.0129735