/*--------------------------------*- C++ -*----------------------------------*\
| =========                 |                                                 |
| \\      /  F ield         | OpenFOAM: The Open Source CFD Toolbox           |
|  \\    /   O peration     | Version:  2506                                  |
|   \\  /    A nd           | Website:  www.openfoam.com                      |
|    \\/     M anipulation  |                                                 |
\*---------------------------------------------------------------------------*/
FoamFile
{
    version     2.0;
    format      ascii;
    arch        "LSB;label=32;scalar=64";
    class       surfaceScalarField;
    location    "1.575";
    object      phi;
}
// * * * * * * * * * * * * * * * * * * * * * * * * * * * * * * * * * * * * * //

dimensions      [0 3 -1 0 0 0 0];

oriented        oriented;

internalField   nonuniform List<scalar> 
12640
(
2.22803e-10
-2.22692e-10
6.13919e-10
-3.91134e-10
9.29244e-10
-3.15315e-10
1.03654e-09
-1.07294e-10
8.7698e-10
1.59575e-10
4.3136e-10
4.45586e-10
-2.97335e-10
7.28694e-10
-1.29414e-09
9.96793e-10
-2.53773e-09
1.24358e-09
-4.00376e-09
1.46605e-09
-5.66701e-09
1.66324e-09
-7.50239e-09
1.83537e-09
-9.48576e-09
1.98337e-09
-1.15943e-08
2.1085e-09
-1.38065e-08
2.21225e-09
-1.61026e-08
2.29614e-09
-1.84643e-08
2.36161e-09
-2.08743e-08
2.41002e-09
-2.33169e-08
2.44259e-09
-2.57772e-08
2.46029e-09
-2.82411e-08
2.46396e-09
-3.06953e-08
2.45423e-09
-3.31269e-08
2.4316e-09
-3.55233e-08
2.39636e-09
-3.7872e-08
2.3487e-09
-4.01607e-08
2.28867e-09
-4.23769e-08
2.21624e-09
-4.45082e-08
2.13133e-09
-4.65421e-08
2.03382e-09
-4.84657e-08
1.92362e-09
-5.02663e-08
1.80062e-09
-5.19311e-08
1.66482e-09
-5.34474e-08
1.51626e-09
-5.48025e-08
1.35513e-09
-5.59842e-08
1.18174e-09
-5.69808e-08
9.96553e-10
-5.7781e-08
8.00187e-10
-5.83745e-08
5.93472e-10
-5.87519e-08
3.7742e-10
-5.89051e-08
1.53239e-10
-5.88275e-08
-7.76415e-11
-5.85139e-08
-3.13603e-10
-5.7961e-08
-5.52841e-10
-5.71677e-08
-7.93351e-10
-5.61347e-08
-1.03296e-09
-5.48653e-08
-1.26938e-09
-5.33651e-08
-1.50019e-09
-5.16423e-08
-1.72288e-09
-4.97074e-08
-1.93489e-09
-4.75737e-08
-2.13367e-09
-4.5257e-08
-2.3167e-09
-4.27755e-08
-2.48152e-09
-4.01497e-08
-2.62581e-09
-3.74023e-08
-2.74741e-09
-3.45579e-08
-2.84438e-09
-3.16429e-08
-2.91504e-09
-2.86849e-08
-2.958e-09
-2.57127e-08
-2.9722e-09
-2.27557e-08
-2.95695e-09
-1.98438e-08
-2.91193e-09
-1.70066e-08
-2.83722e-09
-1.42732e-08
-2.73335e-09
-1.1672e-08
-2.60122e-09
-9.22982e-09
-2.44218e-09
-6.97185e-09
-2.25797e-09
-4.92108e-09
-2.05076e-09
-3.09793e-09
-1.82314e-09
-1.51983e-09
-1.5781e-09
-2.00732e-10
-1.31911e-09
8.49411e-10
-1.05015e-09
1.62523e-09
-7.75811e-10
2.12681e-09
-5.0158e-10
2.36095e-09
-2.34136e-10
2.34293e-09
1.80239e-11
2.09948e-09
2.43456e-10
1.67318e-09
4.26306e-10
1.12922e-09
5.43963e-10
5.6625e-10
5.62962e-10
1.32497e-10
4.3375e-10
1.32502e-10
3.93688e-10
-6.16396e-10
8.98615e-10
-8.96073e-10
1.12779e-09
-5.44532e-10
8.46724e-10
1.7379e-10
-7.66157e-11
1.08292e-09
-1.70027e-09
2.06929e-09
-4.03296e-09
3.06138e-09
-7.0515e-09
4.01535e-09
-1.07134e-08
4.90547e-09
-1.49649e-08
5.71754e-09
-1.97465e-08
6.44486e-09
-2.49966e-08
7.08554e-09
-3.0654e-08
7.64071e-09
-3.66589e-08
8.11341e-09
-4.29543e-08
8.50768e-09
-4.94862e-08
8.82798e-09
-5.62034e-08
9.07889e-09
-6.30581e-08
9.26475e-09
-7.0005e-08
9.3895e-09
-7.70014e-08
9.4566e-09
-8.40063e-08
9.46891e-09
-9.09808e-08
9.42873e-09
-9.7887e-08
9.33777e-09
-1.04688e-07
9.19723e-09
-1.11347e-07
9.00789e-09
-1.17828e-07
8.77013e-09
-1.24096e-07
8.48404e-09
-1.30114e-07
8.14954e-09
-1.35847e-07
7.76646e-09
-1.41258e-07
7.33468e-09
-1.46312e-07
6.85417e-09
-1.50972e-07
6.32515e-09
-1.55204e-07
5.74814e-09
-1.58973e-07
5.12411e-09
-1.62246e-07
4.45447e-09
-1.6499e-07
3.74125e-09
-1.67177e-07
2.98704e-09
-1.68779e-07
2.19515e-09
-1.69771e-07
1.36956e-09
-1.70133e-07
5.15009e-10
-1.69847e-07
-3.63087e-10
-1.68902e-07
-1.25856e-09
-1.67291e-07
-2.16455e-09
-1.6501e-07
-3.0736e-09
-1.62066e-07
-3.97766e-09
-1.58467e-07
-4.86818e-09
-1.54231e-07
-5.73622e-09
-1.49381e-07
-6.57259e-09
-1.43948e-07
-7.36794e-09
-1.37969e-07
-8.11291e-09
-1.31487e-07
-8.79828e-09
-1.24554e-07
-9.41519e-09
-1.17224e-07
-9.95519e-09
-1.09561e-07
-1.04105e-08
-1.01632e-07
-1.07741e-08
-9.35067e-08
-1.10399e-08
-8.52616e-08
-1.1203e-08
-7.69742e-08
-1.12597e-08
-6.87238e-08
-1.12074e-08
-6.05906e-08
-1.10451e-08
-5.26545e-08
-1.07733e-08
-4.49939e-08
-1.0394e-08
-3.76845e-08
-9.91064e-09
-3.07983e-08
-9.32837e-09
-2.44024e-08
-8.65383e-09
-1.85579e-08
-7.89526e-09
-1.33185e-08
-7.06253e-09
-8.72948e-09
-6.16715e-09
-4.82614e-09
-5.22244e-09
-1.6325e-09
-4.24378e-09
8.40653e-10
-3.24896e-09
2.59799e-09
-2.25891e-09
3.66261e-09
-1.29875e-09
4.08008e-09
-3.99445e-10
3.92381e-09
3.99734e-10
3.30216e-09
1.04797e-09
2.3673e-09
1.47882e-09
1.32401e-09
1.60625e-09
4.31821e-10
1.32594e-09
5.64329e-10
3.22098e-10
-9.38484e-10
5.54942e-10
-1.12895e-09
2.67918e-10
-2.57486e-10
-8.07863e-10
1.24951e-09
-2.83312e-09
3.10817e-09
-5.88542e-09
5.12157e-09
-9.98109e-09
7.15704e-09
-1.5094e-08
9.12827e-09
-2.11696e-08
1.0981e-08
-2.81351e-08
1.26831e-08
-3.59074e-08
1.42172e-08
-4.43982e-08
1.55763e-08
-5.35174e-08
1.67599e-08
-6.31761e-08
1.77721e-08
-7.32877e-08
1.86193e-08
-8.37692e-08
1.93095e-08
-9.45413e-08
1.98509e-08
-1.05528e-07
2.02519e-08
-1.16659e-07
2.05199e-08
-1.27864e-07
2.06617e-08
-1.39078e-07
2.06832e-08
-1.50238e-07
2.05888e-08
-1.61283e-07
2.03822e-08
-1.72152e-07
2.00661e-08
-1.82786e-07
1.96421e-08
-1.93127e-07
1.91112e-08
-2.03117e-07
1.84741e-08
-2.12698e-07
1.77307e-08
-2.21813e-07
1.68812e-08
-2.30404e-07
1.59257e-08
-2.38414e-07
1.48646e-08
-2.45788e-07
1.36987e-08
-2.52469e-07
1.24298e-08
-2.58405e-07
1.10602e-08
-2.63544e-07
9.59346e-09
-2.67837e-07
8.03432e-09
-2.71239e-07
6.38876e-09
-2.73708e-07
4.66417e-09
-2.75208e-07
2.86941e-09
-2.75708e-07
1.01481e-09
-2.75183e-07
-8.87775e-10
-2.73617e-07
-2.82504e-09
-2.70999e-07
-4.78226e-09
-2.67329e-07
-6.74344e-09
-2.62615e-07
-8.69142e-09
-2.56875e-07
-1.06081e-08
-2.50137e-07
-1.24745e-08
-2.42439e-07
-1.42712e-08
-2.33828e-07
-1.59786e-08
-2.24364e-07
-1.75769e-08
-2.14115e-07
-1.90469e-08
-2.0316e-07
-2.037e-08
-1.91587e-07
-2.15284e-08
-1.79492e-07
-2.25061e-08
-1.66977e-07
-2.32882e-08
-1.54155e-07
-2.38624e-08
-1.4114e-07
-2.42183e-08
-1.28051e-07
-2.4348e-08
-1.15012e-07
-2.42467e-08
-1.02145e-07
-2.39122e-08
-8.95724e-08
-2.33458e-08
-7.74147e-08
-2.25517e-08
-6.57877e-08
-2.15376e-08
-5.48016e-08
-2.03145e-08
-4.45588e-08
-1.88966e-08
-3.51522e-08
-1.73019e-08
-2.66631e-08
-1.55516e-08
-1.91598e-08
-1.36705e-08
-1.26946e-08
-1.16876e-08
-7.30235e-09
-9.63603e-09
-2.9973e-09
-7.55399e-09
2.29884e-10
-5.48608e-09
2.41604e-09
-3.48489e-09
3.63009e-09
-1.6135e-09
3.97891e-09
5.09058e-11
3.6138e-09
1.41308e-09
2.73802e-09
2.35461e-09
1.61295e-09
2.73132e-09
5.62176e-10
2.37672e-09
1.12651e-09
1.15846e-10
-1.05433e-09
-1.66842e-10
-8.46243e-10
-1.25476e-09
8.30373e-10
-3.40981e-09
3.40463e-09
-6.79131e-09
6.48966e-09
-1.1477e-08
9.80724e-09
-1.74817e-08
1.31618e-08
-2.47738e-08
1.64204e-08
-3.32888e-08
1.9496e-08
-4.29397e-08
2.2334e-08
-5.36256e-08
2.49031e-08
-6.52376e-08
2.71883e-08
-7.76633e-08
2.91857e-08
-9.07902e-08
3.0899e-08
-1.04507e-07
3.23366e-08
-1.18708e-07
3.35095e-08
-1.33287e-07
3.44301e-08
-1.48145e-07
3.51105e-08
-1.63188e-07
3.55625e-08
-1.78323e-07
3.57965e-08
-1.93461e-07
3.58217e-08
-2.08518e-07
3.56455e-08
-2.2341e-07
3.52738e-08
-2.38054e-07
3.4711e-08
-2.52373e-07
3.39602e-08
-2.66285e-07
3.30233e-08
-2.79712e-07
3.19016e-08
-2.92577e-07
3.05957e-08
-3.04802e-07
2.91063e-08
-3.16311e-07
2.74342e-08
-3.27027e-07
2.55805e-08
-3.36876e-07
2.35476e-08
-3.45785e-07
2.13388e-08
-3.53684e-07
1.8959e-08
-3.60505e-07
1.64147e-08
-3.66185e-07
1.37146e-08
-3.70666e-07
1.08694e-08
-3.73894e-07
7.89219e-09
-3.75823e-07
4.79842e-09
-3.76414e-07
1.60604e-09
-3.75637e-07
-1.66455e-09
-3.73472e-07
-4.99053e-09
-3.69907e-07
-8.34684e-09
-3.64944e-07
-1.17063e-08
-3.58596e-07
-1.50398e-08
-3.50887e-07
-1.83169e-08
-3.41856e-07
-2.15056e-08
-3.31554e-07
-2.45734e-08
-3.20045e-07
-2.74871e-08
-3.07408e-07
-3.0214e-08
-2.93733e-07
-3.27218e-08
-2.79124e-07
-3.49793e-08
-2.63695e-07
-3.69573e-08
-2.47573e-07
-3.86287e-08
-2.30892e-07
-3.99692e-08
-2.13796e-07
-4.09579e-08
-1.96437e-07
-4.15777e-08
-1.78969e-07
-4.18159e-08
-1.61551e-07
-4.16642e-08
-1.44344e-07
-4.11195e-08
-1.27506e-07
-4.01837e-08
-1.11193e-07
-3.88644e-08
-9.55564e-08
-3.71746e-08
-8.07378e-08
-3.51331e-08
-6.68702e-08
-3.27642e-08
-5.40736e-08
-3.00985e-08
-4.24532e-08
-2.7172e-08
-3.20964e-08
-2.40273e-08
-2.30706e-08
-2.07135e-08
-1.54199e-08
-1.72867e-08
-9.1622e-09
-1.38117e-08
-4.28566e-09
-1.03626e-08
-7.44479e-10
-7.02606e-09
1.54555e-09
-3.90352e-09
2.71214e-09
-1.11567e-09
2.9323e-09
1.19292e-09
2.43822e-09
2.84869e-09
1.52361e-09
3.64593e-09
5.52899e-10
3.34745e-09
1.6794e-09
-1.55881e-10
-8.98438e-10
-1.10515e-09
1.03024e-10
-3.18529e-09
2.91052e-09
-6.62062e-09
6.83995e-09
-1.15468e-08
1.14159e-08
-1.80264e-08
1.62868e-08
-2.60628e-08
2.11981e-08
-3.56139e-08
2.59715e-08
-4.66039e-08
3.0486e-08
-5.89329e-08
3.4663e-08
-7.24849e-08
3.84551e-08
-8.71342e-08
4.18376e-08
-1.0275e-07
4.48018e-08
-1.19201e-07
4.73498e-08
-1.36356e-07
4.94912e-08
-1.54086e-07
5.12397e-08
-1.72267e-07
5.2611e-08
-1.90778e-07
5.36216e-08
-2.09503e-07
5.42873e-08
-2.28329e-07
5.46225e-08
-2.47147e-07
5.46398e-08
-2.65851e-07
5.43498e-08
-2.84338e-07
5.3761e-08
-3.02507e-07
5.28797e-08
-3.20257e-07
5.17107e-08
-3.37491e-07
5.02572e-08
-3.54111e-07
4.85214e-08
-3.70021e-07
4.65051e-08
-3.85124e-07
4.42097e-08
-3.99327e-07
4.16371e-08
-4.12537e-07
3.87902e-08
-4.24662e-07
3.5673e-08
-4.35615e-07
3.22914e-08
-4.45309e-07
2.86535e-08
-4.53665e-07
2.47702e-08
-4.60605e-07
2.0655e-08
-4.6606e-07
1.63247e-08
-4.69968e-07
1.17997e-08
-4.72273e-07
7.10349e-09
-4.7293e-07
2.26357e-09
-4.71906e-07
-2.68921e-09
-4.69176e-07
-7.72049e-09
-4.6473e-07
-1.27926e-08
-4.58571e-07
-1.78649e-08
-4.50717e-07
-2.28941e-08
-4.41199e-07
-2.78347e-08
-4.30066e-07
-3.26393e-08
-4.17379e-07
-3.72596e-08
-4.0322e-07
-4.16468e-08
-3.87681e-07
-4.57523e-08
-3.70875e-07
-4.95285e-08
-3.52924e-07
-5.29297e-08
-3.33969e-07
-5.59124e-08
-3.14161e-07
-5.8437e-08
-2.93662e-07
-6.04679e-08
-2.72646e-07
-6.19741e-08
-2.51293e-07
-6.29308e-08
-2.2979e-07
-6.3319e-08
-2.08327e-07
-6.3127e-08
-1.87096e-07
-6.235e-08
-1.66289e-07
-6.09914e-08
-1.46091e-07
-5.90623e-08
-1.26683e-07
-5.65823e-08
-1.08237e-07
-5.35795e-08
-9.09104e-08
-5.00904e-08
-7.48485e-08
-4.61604e-08
-6.01768e-08
-4.18437e-08
-4.70003e-08
-3.72038e-08
-3.53999e-08
-3.23139e-08
-2.54292e-08
-2.72574e-08
-1.7111e-08
-2.21298e-08
-1.0434e-08
-1.70396e-08
-5.34835e-09
-1.21117e-08
-1.76194e-09
-7.48992e-09
4.64032e-10
-3.34164e-09
1.5198e-09
1.37166e-10
1.65207e-09
2.71641e-09
1.17029e-09
4.12772e-09
4.56936e-10
4.06079e-09
2.13634e-09
-4.57354e-10
-4.41111e-10
-2.15938e-09
1.80507e-09
-5.35277e-09
6.10387e-09
-1.02038e-08
1.16909e-08
-1.68084e-08
1.80205e-08
-2.52013e-08
2.46797e-08
-3.53656e-08
3.13625e-08
-4.7243e-08
3.7849e-08
-6.07433e-08
4.39863e-08
-7.57525e-08
4.96722e-08
-9.21406e-08
5.48432e-08
-1.09767e-07
5.9464e-08
-1.28485e-07
6.35201e-08
-1.48147e-07
6.70116e-08
-1.68604e-07
6.99483e-08
-1.8971e-07
7.2346e-08
-2.11323e-07
7.42238e-08
-2.33304e-07
7.5602e-08
-2.55517e-07
7.65002e-08
-2.77831e-07
7.6937e-08
-3.0012e-07
7.69285e-08
-3.22258e-07
7.64883e-08
-3.44125e-07
7.56277e-08
-3.65601e-07
7.43553e-08
-3.86568e-07
7.26778e-08
-4.0691e-07
7.05997e-08
-4.26514e-07
6.81248e-08
-4.45265e-07
6.5256e-08
-4.63051e-07
6.1996e-08
-4.79762e-07
5.83485e-08
-4.9529e-07
5.43183e-08
-5.09529e-07
4.99121e-08
-5.22377e-07
4.5139e-08
-5.33735e-07
4.00114e-08
-5.4351e-07
3.45451e-08
-5.51615e-07
2.87598e-08
-5.5797e-07
2.26799e-08
-5.62504e-07
1.63339e-08
-5.65156e-07
9.75534e-09
-5.65875e-07
2.9826e-09
-5.64623e-07
-3.94124e-09
-5.61375e-07
-1.09684e-08
-5.56121e-07
-1.80468e-08
-5.48865e-07
-2.51203e-08
-5.3963e-07
-3.21292e-08
-5.28454e-07
-3.9011e-08
-5.15392e-07
-4.57008e-08
-5.00519e-07
-5.21324e-08
-4.83927e-07
-5.8239e-08
-4.65725e-07
-6.39542e-08
-4.46041e-07
-6.92131e-08
-4.25017e-07
-7.39531e-08
-4.02815e-07
-7.81153e-08
-3.79606e-07
-8.16454e-08
-3.55579e-07
-8.44949e-08
-3.30932e-07
-8.66218e-08
-3.0587e-07
-8.79921e-08
-2.80609e-07
-8.858e-08
-2.55367e-07
-8.83695e-08
-2.30363e-07
-8.73543e-08
-2.05815e-07
-8.55388e-08
-1.81939e-07
-8.29386e-08
-1.58941e-07
-7.95805e-08
-1.37017e-07
-7.55031e-08
-1.16351e-07
-7.07567e-08
-9.71074e-08
-6.54038e-08
-7.94321e-08
-5.9519e-08
-6.34466e-08
-5.31894e-08
-4.92451e-08
-4.65153e-08
-3.68916e-08
-3.96109e-08
-2.64159e-08
-3.26055e-08
-1.78101e-08
-2.56454e-08
-1.10252e-08
-1.88966e-08
-5.96751e-09
-1.25476e-08
-2.49476e-09
-6.81439e-09
-4.12698e-10
-1.94489e-09
5.29177e-10
1.77454e-09
6.4269e-10
4.01422e-09
3.09089e-10
4.39438e-09
2.44543e-09
-7.69601e-10
3.28497e-10
-3.26844e-09
4.3039e-09
-7.64518e-09
1.04806e-08
-1.39969e-08
1.80426e-08
-2.23688e-08
2.63925e-08
-3.27584e-08
3.50693e-08
-4.51207e-08
4.37247e-08
-5.93755e-08
5.21037e-08
-7.54144e-08
6.00252e-08
-9.31079e-08
6.73657e-08
-1.12311e-07
7.40463e-08
-1.32869e-07
8.00218e-08
-1.54621e-07
8.52718e-08
-1.77403e-07
8.9794e-08
-2.01053e-07
9.35982e-08
-2.25409e-07
9.67019e-08
-2.50312e-07
9.91272e-08
-2.75608e-07
1.00898e-07
-3.01145e-07
1.02038e-07
-3.26777e-07
1.02568e-07
-3.52358e-07
1.0251e-07
-3.77749e-07
1.01879e-07
-4.02812e-07
1.0069e-07
-4.27411e-07
9.89539e-08
-4.51411e-07
9.66786e-08
-4.74683e-07
9.3871e-08
-4.97094e-07
9.05363e-08
-5.18517e-07
8.6679e-08
-5.38825e-07
8.23036e-08
-5.57892e-07
7.74159e-08
-5.75597e-07
7.20232e-08
-5.9182e-07
6.61355e-08
-6.06447e-07
5.97659e-08
-6.19368e-07
5.29319e-08
-6.30478e-07
4.56551e-08
-6.39681e-07
3.79627e-08
-6.46888e-07
2.98872e-08
-6.52021e-07
2.14671e-08
-6.55013e-07
1.2747e-08
-6.55808e-07
3.77757e-09
-6.54365e-07
-5.38434e-09
-6.50657e-07
-1.4676e-08
-6.44675e-07
-2.40292e-08
-6.36425e-07
-3.33704e-08
-6.25932e-07
-4.26221e-08
-6.1324e-07
-5.17027e-08
-5.98413e-07
-6.0528e-08
-5.81533e-07
-6.90121e-08
-5.62704e-07
-7.70683e-08
-5.42048e-07
-8.46107e-08
-5.19706e-07
-9.1555e-08
-4.95838e-07
-9.78205e-08
-4.70623e-07
-1.03331e-07
-4.44253e-07
-1.08016e-07
-4.16936e-07
-1.11812e-07
-3.88892e-07
-1.14666e-07
-3.60351e-07
-1.16533e-07
-3.31552e-07
-1.17379e-07
-3.02737e-07
-1.17185e-07
-2.74151e-07
-1.1594e-07
-2.46037e-07
-1.13653e-07
-2.18635e-07
-1.10341e-07
-1.92175e-07
-1.0604e-07
-1.66879e-07
-1.008e-07
-1.42949e-07
-9.46864e-08
-1.20573e-07
-8.77801e-08
-9.99135e-08
-8.0178e-08
-8.11097e-08
-7.19932e-08
-6.42696e-08
-6.33554e-08
-4.94688e-08
-5.44117e-08
-3.67463e-08
-4.53281e-08
-2.61011e-08
-3.62906e-08
-1.74893e-08
-2.75084e-08
-1.08205e-08
-1.92164e-08
-5.95554e-09
-1.16794e-08
-2.70316e-09
-5.19727e-09
-8.17512e-10
-1.11109e-10
5.23336e-12
3.19148e-09
1.31576e-10
4.26804e-09
2.577e-09
-1.08269e-09
1.41117e-09
-4.39581e-09
7.61703e-09
-9.99103e-09
1.60759e-08
-1.78911e-08
2.59426e-08
-2.80839e-08
3.65853e-08
-4.05229e-08
4.75082e-08
-5.51288e-08
5.83307e-08
-7.17949e-08
6.87698e-08
-9.0391e-08
7.86213e-08
-1.10769e-07
8.77441e-08
-1.32769e-07
9.6046e-08
-1.56221e-07
1.03473e-07
-1.80949e-07
1.1e-07
-2.06778e-07
1.15623e-07
-2.3353e-07
1.2035e-07
-2.6103e-07
1.24202e-07
-2.89105e-07
1.27203e-07
-3.17588e-07
1.2938e-07
-3.46311e-07
1.30761e-07
-3.75114e-07
1.31371e-07
-4.03838e-07
1.31234e-07
-4.32328e-07
1.30369e-07
-4.60431e-07
1.28793e-07
-4.87997e-07
1.2652e-07
-5.14878e-07
1.2356e-07
-5.40928e-07
1.19921e-07
-5.66003e-07
1.15611e-07
-5.89959e-07
1.10635e-07
-6.12657e-07
1.05001e-07
-6.33958e-07
9.87175e-08
-6.53729e-07
9.17938e-08
-6.71838e-07
8.42441e-08
-6.88158e-07
7.60864e-08
-7.0257e-07
6.73436e-08
-7.14959e-07
5.80445e-08
-7.25221e-07
4.82241e-08
-7.33258e-07
3.79245e-08
-7.38986e-07
2.71951e-08
-7.42331e-07
1.60925e-08
-7.43235e-07
4.68116e-09
-7.41652e-07
-6.96706e-09
-7.37555e-07
-1.87731e-08
-7.30933e-07
-3.06512e-08
-7.21794e-07
-4.25093e-08
-7.10167e-07
-5.42499e-08
-6.96098e-07
-6.57712e-08
-6.79658e-07
-7.69681e-08
-6.60937e-07
-8.77331e-08
-6.40047e-07
-9.79582e-08
-6.17122e-07
-1.07536e-07
-5.92314e-07
-1.16362e-07
-5.658e-07
-1.24335e-07
-5.3777e-07
-1.3136e-07
-5.08436e-07
-1.37349e-07
-4.78024e-07
-1.42224e-07
-4.46773e-07
-1.45917e-07
-4.14934e-07
-1.48371e-07
-3.82767e-07
-1.49546e-07
-3.50537e-07
-1.49415e-07
-3.18511e-07
-1.47967e-07
-2.86955e-07
-1.45208e-07
-2.56133e-07
-1.41163e-07
-2.26298e-07
-1.35875e-07
-1.97691e-07
-1.29407e-07
-1.70539e-07
-1.21838e-07
-1.45048e-07
-1.13271e-07
-1.214e-07
-1.03826e-07
-9.97515e-08
-9.36422e-08
-8.02248e-08
-8.28821e-08
-6.29094e-08
-7.17271e-08
-4.7856e-08
-6.03815e-08
-3.50737e-08
-4.90729e-08
-2.45272e-08
-3.80549e-08
-1.61343e-08
-2.76092e-08
-9.76366e-09
-1.805e-08
-5.23279e-09
-9.72813e-09
-2.30688e-09
-3.03702e-09
-6.97398e-10
1.582e-09
-6.14021e-11
3.63205e-09
2.5156e-09
-1.39144e-09
2.8026e-09
-5.52014e-09
1.17458e-08
-1.23453e-08
2.29009e-08
-2.18141e-08
3.54114e-08
-3.38539e-08
4.86252e-08
-4.83697e-08
6.2024e-08
-6.52437e-08
7.52048e-08
-8.43383e-08
8.78644e-08
-1.05499e-07
9.97817e-08
-1.28556e-07
1.10802e-07
-1.53333e-07
1.20823e-07
-1.79644e-07
1.29784e-07
-2.073e-07
1.37656e-07
-2.36111e-07
1.44434e-07
-2.65887e-07
1.50127e-07
-2.96442e-07
1.54756e-07
-3.2759e-07
1.58351e-07
-3.59149e-07
1.60939e-07
-3.90941e-07
1.62554e-07
-4.22793e-07
1.63223e-07
-4.54532e-07
1.62973e-07
-4.85991e-07
1.61828e-07
-5.17004e-07
1.59806e-07
-5.47408e-07
1.56924e-07
-5.77042e-07
1.53194e-07
-6.05747e-07
1.48626e-07
-6.33366e-07
1.4323e-07
-6.59745e-07
1.37014e-07
-6.8473e-07
1.29986e-07
-7.08172e-07
1.2216e-07
-7.29925e-07
1.13547e-07
-7.49848e-07
1.04167e-07
-7.67803e-07
9.4042e-08
-7.83662e-07
8.32019e-08
-7.973e-07
7.1683e-08
-8.08605e-07
5.95293e-08
-8.17474e-07
4.67929e-08
-8.23814e-07
3.3535e-08
-8.27547e-07
1.98255e-08
-8.28609e-07
5.74341e-09
-8.26953e-07
-8.62321e-09
-8.22548e-07
-2.31779e-08
-8.15383e-07
-3.7816e-08
-8.05467e-07
-5.24256e-08
-7.92828e-07
-6.68883e-08
-7.77519e-07
-8.10805e-08
-7.59613e-07
-9.48745e-08
-7.39205e-07
-1.0814e-07
-7.16417e-07
-1.20747e-07
-6.91389e-07
-1.32564e-07
-6.64286e-07
-1.43465e-07
-6.35293e-07
-1.53327e-07
-6.04618e-07
-1.62035e-07
-5.72485e-07
-1.69482e-07
-5.39137e-07
-1.75573e-07
-5.04829e-07
-1.80224e-07
-4.69833e-07
-1.83368e-07
-4.34426e-07
-1.84953e-07
-3.98895e-07
-1.84946e-07
-3.63529e-07
-1.83333e-07
-3.28615e-07
-1.80121e-07
-2.94439e-07
-1.7534e-07
-2.61274e-07
-1.69039e-07
-2.29387e-07
-1.61295e-07
-1.99022e-07
-1.52203e-07
-1.70408e-07
-1.41886e-07
-1.43745e-07
-1.30488e-07
-1.19208e-07
-1.1818e-07
-9.69363e-08
-1.05154e-07
-7.7035e-08
-9.16283e-08
-5.95689e-08
-7.78476e-08
-4.45602e-08
-6.40817e-08
-3.19857e-08
-5.06293e-08
-2.17751e-08
-3.78198e-08
-1.3809e-08
-2.60162e-08
-7.91811e-09
-1.5619e-08
-3.88336e-09
-7.07177e-09
-1.43625e-09
-8.65115e-10
-2.61252e-10
2.45706e-09
2.25434e-09
-1.69329e-09
4.49588e-09
-6.62907e-09
1.66815e-08
-1.46796e-08
3.09514e-08
-2.57181e-08
4.645e-08
-3.96103e-08
6.25174e-08
-5.62099e-08
7.86236e-08
-7.53581e-08
9.43529e-08
-9.68834e-08
1.0939e-07
-1.20603e-07
1.23502e-07
-1.46327e-07
1.36526e-07
-1.73857e-07
1.48353e-07
-2.02993e-07
1.58919e-07
-2.3353e-07
1.68194e-07
-2.65266e-07
1.7617e-07
-2.98e-07
1.8286e-07
-3.31531e-07
1.88288e-07
-3.65664e-07
1.92484e-07
-4.00206e-07
1.95481e-07
-4.34968e-07
1.97315e-07
-4.69763e-07
1.98019e-07
-5.0441e-07
1.97621e-07
-5.38729e-07
1.96147e-07
-5.72544e-07
1.9362e-07
-6.05678e-07
1.90059e-07
-6.37961e-07
1.85476e-07
-6.69221e-07
1.79886e-07
-6.99291e-07
1.733e-07
-7.28005e-07
1.65727e-07
-7.55199e-07
1.5718e-07
-7.80713e-07
1.47674e-07
-8.04391e-07
1.37225e-07
-8.26082e-07
1.25857e-07
-8.45639e-07
1.13599e-07
-8.62924e-07
1.00487e-07
-8.77805e-07
8.65646e-08
-8.90162e-07
7.18863e-08
-8.99885e-07
5.6515e-08
-9.06874e-07
4.05243e-08
-9.11047e-07
2.39981e-08
-9.12334e-07
7.03091e-09
-9.10685e-07
-1.02723e-08
-9.06066e-07
-2.77966e-08
-8.98465e-07
-4.54176e-08
-8.87888e-07
-6.30022e-08
-8.74366e-07
-8.04102e-08
-8.57952e-07
-9.74949e-08
-8.38721e-07
-1.14105e-07
-8.16775e-07
-1.30086e-07
-7.92239e-07
-1.45284e-07
-7.6526e-07
-1.59543e-07
-7.36013e-07
-1.72713e-07
-7.04692e-07
-1.84648e-07
-6.71515e-07
-1.95212e-07
-6.36721e-07
-2.04277e-07
-6.00564e-07
-2.11729e-07
-5.63319e-07
-2.17469e-07
-5.25272e-07
-2.21415e-07
-4.86719e-07
-2.23505e-07
-4.47967e-07
-2.23698e-07
-4.09324e-07
-2.21976e-07
-3.711e-07
-2.18346e-07
-3.33599e-07
-2.1284e-07
-2.97121e-07
-2.05518e-07
-2.6195e-07
-1.96465e-07
-2.28356e-07
-1.85797e-07
-1.96585e-07
-1.73656e-07
-1.66862e-07
-1.60212e-07
-1.39377e-07
-1.45664e-07
-1.14292e-07
-1.30239e-07
-9.17283e-08
-1.14192e-07
-7.17673e-08
-9.78086e-08
-5.44473e-08
-8.14016e-08
-3.97607e-08
-6.5316e-08
-2.76519e-08
-4.99286e-08
-1.80172e-08
-3.56509e-08
-1.07036e-08
-2.29325e-08
-5.51092e-09
-1.22645e-08
-2.19306e-09
-4.18298e-09
-4.6299e-10
7.26984e-10
1.79134e-09
-1.98705e-09
6.48292e-09
-7.71545e-09
2.241e-08
-1.69764e-08
4.02124e-08
-2.95718e-08
5.90454e-08
-4.53058e-08
7.82513e-08
-6.39804e-08
9.72982e-08
-8.53935e-08
1.15766e-07
-1.09338e-07
1.33334e-07
-1.35602e-07
1.49766e-07
-1.6397e-07
1.64894e-07
-1.94225e-07
1.78608e-07
-2.26148e-07
1.90842e-07
-2.59522e-07
2.01567e-07
-2.94129e-07
2.10778e-07
-3.29757e-07
2.18488e-07
-3.66196e-07
2.24726e-07
-4.03238e-07
2.29526e-07
-4.40681e-07
2.32924e-07
-4.78326e-07
2.3496e-07
-5.15976e-07
2.35669e-07
-5.5344e-07
2.35084e-07
-5.90528e-07
2.33235e-07
-6.27053e-07
2.30145e-07
-6.6283e-07
2.25836e-07
-6.97677e-07
2.20324e-07
-7.31414e-07
2.13624e-07
-7.63863e-07
2.05748e-07
-7.94847e-07
1.96712e-07
-8.24194e-07
1.86528e-07
-8.51735e-07
1.75214e-07
-8.77303e-07
1.62793e-07
-9.00738e-07
1.49292e-07
-9.21885e-07
1.34747e-07
-9.40599e-07
1.192e-07
-9.56738e-07
1.02704e-07
-9.70176e-07
8.53242e-08
-9.80795e-07
6.71337e-08
-9.8849e-07
4.82194e-08
-9.93172e-07
2.868e-08
-9.94767e-07
8.62599e-09
-9.93219e-07
-1.182e-08
-9.88492e-07
-3.25237e-08
-9.8057e-07
-5.33403e-08
-9.69457e-07
-7.41149e-08
-9.55183e-07
-9.4684e-08
-9.37801e-07
-1.14877e-07
-9.17388e-07
-1.34518e-07
-8.94047e-07
-1.53428e-07
-8.67905e-07
-1.71425e-07
-8.39118e-07
-1.8833e-07
-8.07865e-07
-2.03966e-07
-7.74348e-07
-2.18165e-07
-7.38794e-07
-2.30766e-07
-7.01453e-07
-2.41618e-07
-6.62594e-07
-2.50588e-07
-6.22504e-07
-2.5756e-07
-5.81484e-07
-2.62435e-07
-5.39851e-07
-2.65139e-07
-4.97926e-07
-2.65622e-07
-4.5604e-07
-2.63862e-07
-4.14523e-07
-2.59863e-07
-3.73701e-07
-2.53662e-07
-3.33895e-07
-2.45324e-07
-2.95413e-07
-2.34947e-07
-2.58546e-07
-2.22664e-07
-2.23566e-07
-2.08637e-07
-1.90716e-07
-1.93062e-07
-1.60212e-07
-1.76168e-07
-1.32233e-07
-1.58217e-07
-1.06923e-07
-1.39503e-07
-8.43815e-08
-1.2035e-07
-6.46666e-08
-1.01117e-07
-4.77882e-08
-8.21944e-08
-3.37088e-08
-6.4008e-08
-2.23425e-08
-4.70172e-08
-1.35556e-08
-3.17193e-08
-7.16817e-09
-1.86519e-08
-2.95753e-09
-8.39362e-09
-6.64027e-10
-1.56652e-09
1.12732e-09
-2.2722e-09
8.75511e-09
-8.77528e-09
2.89131e-08
-1.92248e-08
5.06619e-08
-3.33543e-08
7.31749e-08
-5.09078e-08
9.58049e-08
-7.16357e-08
1.18026e-07
-9.52918e-08
1.39422e-07
-1.21632e-07
1.59674e-07
-1.50414e-07
1.78548e-07
-1.81397e-07
1.95877e-07
-2.14342e-07
2.11553e-07
-2.49012e-07
2.25513e-07
-2.85175e-07
2.3773e-07
-3.22602e-07
2.48204e-07
-3.61066e-07
2.56953e-07
-4.00348e-07
2.64008e-07
-4.40231e-07
2.69408e-07
-4.80502e-07
2.73196e-07
-5.20954e-07
2.75412e-07
-5.61382e-07
2.76097e-07
-6.01585e-07
2.75287e-07
-6.41364e-07
2.73015e-07
-6.80525e-07
2.69306e-07
-7.18874e-07
2.64185e-07
-7.56219e-07
2.57669e-07
-7.92372e-07
2.49776e-07
-8.27146e-07
2.40522e-07
-8.60355e-07
2.29921e-07
-8.9182e-07
2.17992e-07
-9.2136e-07
2.04755e-07
-9.48803e-07
1.90236e-07
-9.73979e-07
1.74469e-07
-9.96727e-07
1.57494e-07
-1.01689e-06
1.39363e-07
-1.03432e-06
1.20138e-07
-1.04889e-06
9.9891e-08
-1.06047e-06
7.87099e-08
-1.06894e-06
5.66941e-08
-1.07422e-06
3.39571e-08
-1.07622e-06
1.0626e-08
-1.07488e-06
-1.31582e-08
-1.07016e-06
-3.72418e-08
-1.06204e-06
-6.14586e-08
-1.05053e-06
-8.56312e-08
-1.03564e-06
-1.09572e-07
-1.01743e-06
-1.33086e-07
-9.95976e-07
-1.55972e-07
-9.71381e-07
-1.78022e-07
-9.43775e-07
-1.99031e-07
-9.13315e-07
-2.1879e-07
-8.80184e-07
-2.37098e-07
-8.44591e-07
-2.53758e-07
-8.06772e-07
-2.68585e-07
-7.66984e-07
-2.81406e-07
-7.25508e-07
-2.92064e-07
-6.82645e-07
-3.00423e-07
-6.3871e-07
-3.06369e-07
-5.94036e-07
-3.09813e-07
-5.48965e-07
-3.10694e-07
-5.03844e-07
-3.08983e-07
-4.59026e-07
-3.04682e-07
-4.14859e-07
-2.97828e-07
-3.71688e-07
-2.88495e-07
-3.29843e-07
-2.76792e-07
-2.89641e-07
-2.62866e-07
-2.51377e-07
-2.46901e-07
-2.15319e-07
-2.2912e-07
-1.81706e-07
-2.09781e-07
-1.50743e-07
-1.89181e-07
-1.22594e-07
-1.67652e-07
-9.73821e-08
-1.45561e-07
-7.5186e-08
-1.23313e-07
-5.60367e-08
-1.01344e-07
-3.99172e-08
-8.01275e-08
-2.67617e-08
-6.01727e-08
-1.6457e-08
-4.2024e-08
-8.84465e-09
-2.62643e-08
-3.72495e-09
-1.35133e-08
-8.6337e-10
-4.42811e-09
2.63967e-10
-2.54856e-09
1.13037e-08
-9.80628e-09
3.61708e-08
-2.14178e-08
6.22734e-08
-3.70515e-08
8.88087e-08
-5.63934e-08
1.15147e-07
-7.91427e-08
1.40775e-07
-1.05009e-07
1.65289e-07
-1.33712e-07
1.88377e-07
-1.64977e-07
2.09813e-07
-1.98537e-07
2.29436e-07
-2.3413e-07
2.47146e-07
-2.71503e-07
2.62886e-07
-3.10407e-07
2.76634e-07
-3.50599e-07
2.88396e-07
-3.91843e-07
2.98197e-07
-4.33907e-07
3.06073e-07
-4.76567e-07
3.12068e-07
-5.196e-07
3.16229e-07
-5.62792e-07
3.18604e-07
-6.0593e-07
3.19235e-07
-6.48805e-07
3.18162e-07
-6.91212e-07
3.15421e-07
-7.32947e-07
3.11041e-07
-7.73809e-07
3.05047e-07
-8.13601e-07
2.9746e-07
-8.52124e-07
2.883e-07
-8.89185e-07
2.77583e-07
-9.24591e-07
2.65327e-07
-9.58153e-07
2.51554e-07
-9.89685e-07
2.36287e-07
-1.01901e-06
2.19557e-07
-1.04594e-06
2.01401e-07
-1.07031e-06
1.81869e-07
-1.09197e-06
1.61017e-07
-1.11075e-06
1.38917e-07
-1.12651e-06
1.15652e-07
-1.13912e-06
9.13214e-08
-1.14846e-06
6.6038e-08
-1.15444e-06
3.99304e-08
-1.15695e-06
1.31427e-08
-1.15594e-06
-1.4166e-08
-1.15136e-06
-4.18217e-08
-1.14319e-06
-6.96366e-08
-1.13141e-06
-9.74101e-08
-1.11605e-06
-1.24931e-07
-1.09716e-06
-1.51977e-07
-1.07481e-06
-1.7832e-07
-1.04911e-06
-2.03728e-07
-1.02017e-06
-2.27963e-07
-9.88171e-07
-2.50792e-07
-9.53286e-07
-2.71983e-07
-9.15731e-07
-2.91313e-07
-8.75747e-07
-3.08569e-07
-8.336e-07
-3.23553e-07
-7.89581e-07
-3.36083e-07
-7.44001e-07
-3.46003e-07
-6.97191e-07
-3.53178e-07
-6.495e-07
-3.57504e-07
-6.01286e-07
-3.58907e-07
-5.52919e-07
-3.5735e-07
-5.04772e-07
-3.52829e-07
-4.57216e-07
-3.45384e-07
-4.1062e-07
-3.35091e-07
-3.65341e-07
-3.22071e-07
-3.21721e-07
-3.06486e-07
-2.80081e-07
-2.88541e-07
-2.40718e-07
-2.68483e-07
-2.03895e-07
-2.46604e-07
-1.69843e-07
-2.23233e-07
-1.38752e-07
-1.98742e-07
-1.10772e-07
-1.73542e-07
-8.60033e-08
-1.48081e-07
-6.45012e-08
-1.22846e-07
-4.62709e-08
-9.83578e-08
-3.12689e-08
-7.51747e-08
-1.94035e-08
-5.38894e-08
-1.0538e-08
-3.51298e-08
-4.49464e-09
-1.95567e-08
-1.06111e-09
-7.86163e-09
-7.97144e-10
-2.81612e-09
1.41198e-08
-1.0807e-08
4.41616e-08
-2.35507e-08
7.5017e-08
-4.06536e-08
1.05912e-07
-6.17457e-08
1.36239e-07
-8.64765e-08
1.65506e-07
-1.14513e-07
1.93325e-07
-1.45535e-07
2.194e-07
-1.79239e-07
2.43516e-07
-2.1533e-07
2.65527e-07
-2.53526e-07
2.85341e-07
-2.93551e-07
3.02912e-07
-3.35143e-07
3.18226e-07
-3.78046e-07
3.31299e-07
-4.22012e-07
3.42162e-07
-4.66799e-07
3.5086e-07
-5.12175e-07
3.57443e-07
-5.57909e-07
3.61964e-07
-6.0378e-07
3.64474e-07
-6.49567e-07
3.65022e-07
-6.95055e-07
3.63651e-07
-7.40033e-07
3.60399e-07
-7.84291e-07
3.55299e-07
-8.27621e-07
3.48377e-07
-8.69819e-07
3.39658e-07
-9.1068e-07
3.29161e-07
-9.50004e-07
3.16907e-07
-9.87592e-07
3.02915e-07
-1.02325e-06
2.87209e-07
-1.05678e-06
2.69817e-07
-1.08799e-06
2.50773e-07
-1.11671e-06
2.3012e-07
-1.14276e-06
2.07913e-07
-1.16596e-06
1.84216e-07
-1.18615e-06
1.5911e-07
-1.20319e-06
1.32688e-07
-1.21692e-06
1.05061e-07
-1.22724e-06
7.63557e-08
-1.23403e-06
4.67153e-08
-1.23719e-06
1.6301e-08
-1.23664e-06
-1.47097e-08
-1.23234e-06
-4.61224e-08
-1.22425e-06
-7.77275e-08
-1.21236e-06
-1.09301e-07
-1.19668e-06
-1.40606e-07
-1.17727e-06
-1.71395e-07
-1.15417e-06
-2.01413e-07
-1.1275e-06
-2.30396e-07
-1.09739e-06
-2.58081e-07
-1.06398e-06
-2.84203e-07
-1.02746e-06
-3.085e-07
-9.88051e-07
-3.3072e-07
-9.45998e-07
-3.50622e-07
-9.01573e-07
-3.67978e-07
-8.55073e-07
-3.82583e-07
-8.06823e-07
-3.94253e-07
-7.57167e-07
-4.02835e-07
-7.06467e-07
-4.08204e-07
-6.55102e-07
-4.10272e-07
-6.03461e-07
-4.08991e-07
-5.51939e-07
-4.04352e-07
-5.00933e-07
-3.9639e-07
-4.50836e-07
-3.85187e-07
-4.02034e-07
-3.70873e-07
-3.54896e-07
-3.53624e-07
-3.09773e-07
-3.33664e-07
-2.66989e-07
-3.11267e-07
-2.26839e-07
-2.86754e-07
-1.89582e-07
-2.6049e-07
-1.55437e-07
-2.32887e-07
-1.2458e-07
-2.04399e-07
-9.71403e-08
-1.75521e-07
-7.31972e-08
-1.46789e-07
-5.2781e-08
-1.18774e-07
-3.58718e-08
-9.20839e-08
-2.24006e-08
-6.73606e-08
-1.2252e-08
-4.52784e-08
-5.26876e-09
-2.65399e-08
-1.25811e-09
-1.18723e-08
-2.05526e-09
-3.07486e-09
1.71947e-08
-1.17765e-08
5.28633e-08
-2.56201e-08
8.88606e-08
-4.41532e-08
1.24445e-07
-6.69518e-08
1.59037e-07
-9.36174e-08
1.92172e-07
-1.23774e-07
2.23482e-07
-1.57067e-07
2.52693e-07
-1.93159e-07
2.79608e-07
-2.31729e-07
3.04097e-07
-2.72471e-07
3.26084e-07
-3.15095e-07
3.45535e-07
-3.59319e-07
3.6245e-07
-4.04874e-07
3.76855e-07
-4.51503e-07
3.88791e-07
-4.98955e-07
3.98311e-07
-5.46986e-07
4.05475e-07
-5.95363e-07
4.1034e-07
-6.43854e-07
4.12965e-07
-6.92235e-07
4.13403e-07
-7.40285e-07
4.11701e-07
-7.87785e-07
4.079e-07
-8.34522e-07
4.02036e-07
-8.80283e-07
3.94138e-07
-9.24856e-07
3.84231e-07
-9.68033e-07
3.72338e-07
-1.00961e-06
3.58481e-07
-1.04937e-06
3.42681e-07
-1.08713e-06
3.24966e-07
-1.12268e-06
3.05364e-07
-1.15582e-06
2.83916e-07
-1.18637e-06
2.60669e-07
-1.21414e-06
2.35682e-07
-1.23895e-06
2.0903e-07
-1.26064e-06
1.80798e-07
-1.27904e-06
1.51093e-07
-1.29402e-06
1.20035e-07
-1.30543e-06
8.77646e-08
-1.31315e-06
5.44399e-08
-1.31709e-06
2.02384e-08
-1.31716e-06
-1.46435e-08