/*--------------------------------*- C++ -*----------------------------------*\
| =========                 |                                                 |
| \\      /  F ield         | OpenFOAM: The Open Source CFD Toolbox           |
|  \\    /   O peration     | Version:  2506                                  |
|   \\  /    A nd           | Website:  www.openfoam.com                      |
|    \\/     M anipulation  |                                                 |
\*---------------------------------------------------------------------------*/
FoamFile
{
    version     2.0;
    format      ascii;
    arch        "LSB;label=32;scalar=64";
    class       volVectorField;
    location    "1.575";
    object      U;
}
// * * * * * * * * * * * * * * * * * * * * * * * * * * * * * * * * * * * * * //

dimensions      [0 1 -1 0 0 0 0];

internalField   nonuniform List<vector> 
6400
(
(8.69892e-06 -8.66925e-06 0)
(3.38489e-05 -1.59153e-05 0)
(6.4081e-05 -1.45711e-05 0)
(8.27491e-05 -8.82691e-06 0)
(8.14406e-05 -1.34109e-06 0)
(5.74363e-05 6.54475e-06 0)
(1.03637e-05 1.41732e-05 0)
(-5.8933e-05 2.12343e-05 0)
(-0.000148926 2.75993e-05 0)
(-0.000257736 3.32307e-05 0)
(-0.000383352 3.81382e-05 0)
(-0.000523741 4.23583e-05 0)
(-0.000676922 4.59386e-05 0)
(-0.000841008 4.89297e-05 0)
(-0.00101423 5.13841e-05 0)
(-0.00119492 5.33517e-05 0)
(-0.00138157 5.4877e-05 0)
(-0.00157276 5.60009e-05 0)
(-0.00176716 5.67585e-05 0)
(-0.00196356 5.71775e-05 0)
(-0.0021608 5.72801e-05 0)
(-0.00235778 5.70835e-05 0)
(-0.00255347 5.65995e-05 0)
(-0.00274683 5.58352e-05 0)
(-0.00293688 5.47936e-05 0)
(-0.00312262 5.34747e-05 0)
(-0.00330306 5.18754e-05 0)
(-0.00347721 4.99908e-05 0)
(-0.00364406 4.78157e-05 0)
(-0.0038026 4.53444e-05 0)
(-0.00395182 4.25716e-05 0)
(-0.00409068 3.94935e-05 0)
(-0.00421816 3.61083e-05 0)
(-0.00433325 3.24172e-05 0)
(-0.00443495 2.8425e-05 0)
(-0.0045223 2.41396e-05 0)
(-0.00459437 1.95734e-05 0)
(-0.0046503 1.47442e-05 0)
(-0.00468929 9.67423e-06 0)
(-0.00471066 4.39112e-06 0)
(-0.00471379 -1.07171e-06 0)
(-0.00469821 -6.67603e-06 0)
(-0.00466359 -1.23786e-05 0)
(-0.00460974 -1.81307e-05 0)
(-0.00453664 -2.3879e-05 0)
(-0.00444445 -2.9567e-05 0)
(-0.00433354 -3.51347e-05 0)
(-0.00420443 -4.0519e-05 0)
(-0.00405789 -4.56558e-05 0)
(-0.00389487 -5.04806e-05 0)
(-0.00371653 -5.49292e-05 0)
(-0.00352423 -5.8939e-05 0)
(-0.00331953 -6.24504e-05 0)
(-0.00310415 -6.54085e-05 0)
(-0.00288 -6.7763e-05 0)
(-0.00264912 -6.94701e-05 0)
(-0.00241366 -7.04935e-05 0)
(-0.00217591 -7.08057e-05 0)
(-0.00193818 -7.03878e-05 0)
(-0.00170287 -6.92305e-05 0)
(-0.00147235 -6.73346e-05 0)
(-0.00124899 -6.47116e-05 0)
(-0.00103509 -6.1383e-05 0)
(-0.000832871 -5.73802e-05 0)
(-0.000644416 -5.27444e-05 0)
(-0.000471663 -4.75267e-05 0)
(-0.000316357 -4.17877e-05 0)
(-0.00018002 -3.55971e-05 0)
(-6.3916e-05 -2.90345e-05 0)
(3.09853e-05 -2.21914e-05 0)
(0.000104057 -1.51732e-05 0)
(0.00015507 -8.10731e-06 0)
(0.000184272 -1.15436e-06 0)
(0.000192507 5.46927e-06 0)
(0.000181402 1.14507e-05 0)
(0.000153654 1.63112e-05 0)
(0.000113406 1.93013e-05 0)
(6.70038e-05 1.9199e-05 0)
(2.52402e-05 1.4168e-05 0)
(3.62591e-06 3.63867e-06 0)
(1.60734e-05 -3.38886e-05 0)
(5.4438e-05 -5.41619e-05 0)
(8.84127e-05 -4.12566e-05 0)
(9.01586e-05 -9.79715e-06 0)
(4.3836e-05 3.06565e-05 0)
(-5.74393e-05 7.437e-05 0)
(-0.000215834 0.00011797 0)
(-0.000430496 0.00015952 0)
(-0.000698623 0.000197965 0)
(-0.00101624 0.00023277 0)
(-0.00137872 0.00026373 0)
(-0.00178117 0.000290838 0)
(-0.00221864 0.000314204 0)
(-0.00268627 0.000334006 0)
(-0.00317936 0.000350458 0)
(-0.00369348 0.000363782 0)
(-0.00422442 0.000374197 0)
(-0.00476821 0.000381909 0)
(-0.00532115 0.000387099 0)
(-0.0058797 0.000389923 0)
(-0.00644055 0.000390508 0)
(-0.00700049 0.000388955 0)
(-0.00755645 0.000385338 0)
(-0.00810546 0.000379707 0)
(-0.00864458 0.000372091 0)
(-0.00917092 0.000362503 0)
(-0.0096816 0.00035094 0)
(-0.0101738 0.000337391 0)
(-0.0106445 0.000321843 0)
(-0.011091 0.000304282 0)
(-0.0115102 0.000284698 0)
(-0.0118995 0.00026309 0)
(-0.0122559 0.000239474 0)
(-0.0125766 0.000213879 0)
(-0.0128589 0.000186357 0)
(-0.0131002 0.000156986 0)
(-0.013298 0.000125866 0)
(-0.01345 9.31294e-05 0)
(-0.0135542 5.89386e-05 0)
(-0.0136087 2.34863e-05 0)
(-0.0136121 -1.30026e-05 0)
(-0.013563 -5.02715e-05 0)
(-0.0134609 -8.80342e-05 0)
(-0.0133051 -0.000125977 0)
(-0.013096 -0.000163758 0)
(-0.012834 -0.000201018 0)
(-0.0125202 -0.000237377 0)
(-0.0121562 -0.000272442 0)
(-0.0117443 -0.000305814 0)
(-0.011287 -0.000337092 0)
(-0.0107876 -0.000365884 0)
(-0.01025 -0.000391805 0)
(-0.00967828 -0.000414494 0)
(-0.00907732 -0.000433614 0)
(-0.00845225 -0.000448864 0)
(-0.00780864 -0.000459981 0)
(-0.00715235 -0.00046675 0)
(-0.00648951 -0.000469007 0)
(-0.00582644 -0.000466644 0)
(-0.00516954 -0.000459613 0)
(-0.00452522 -0.00044793 0)
(-0.00389985 -0.000431675 0)
(-0.00329961 -0.000410995 0)
(-0.00273043 -0.000386102 0)
(-0.0021979 -0.000357271 0)
(-0.00170716 -0.000324846 0)
(-0.00126284 -0.000289238 0)
(-0.000868924 -0.000250922 0)
(-0.000528654 -0.00021045 0)
(-0.00024444 -0.000168459 0)
(-1.77133e-05 -0.000125685 0)
(0.000151233 -8.30036e-05 0)
(0.000263445 -4.14807e-05 0)
(0.000321581 -2.46215e-06 0)
(0.000330298 3.22852e-05 0)
(0.000296746 6.03668e-05 0)
(0.000231045 7.84912e-05 0)
(0.000147002 8.21047e-05 0)
(6.52445e-05 6.53741e-05 0)
(1.40528e-05 2.51546e-05 0)
(1.49242e-05 -6.4534e-05 0)
(4.20594e-05 -8.838e-05 0)
(4.56738e-05 -4.49019e-05 0)
(-4.35412e-06 3.82613e-05 0)
(-0.000126069 0.000142765 0)
(-0.000328318 0.000256323 0)
(-0.000614362 0.00037093 0)
(-0.000983506 0.000481546 0)
(-0.0014323 0.000585113 0)
(-0.00195547 0.000679894 0)
(-0.00254667 0.000765015 0)
(-0.00319895 0.000840175 0)
(-0.0039051 0.000905441 0)
(-0.00465795 0.000961112 0)
(-0.00545043 0.00100762 0)
(-0.00627576 0.00104544 0)
(-0.00712744 0.0010751 0)
(-0.00799926 0.00109708 0)
(-0.00888535 0.00111182 0)
(-0.0097801 0.00111972 0)
(-0.0106782 0.00112112 0)
(-0.0115744 0.00111626 0)
(-0.0124638 0.00110537 0)
(-0.0133415 0.00108857 0)
(-0.0142028 0.00106596 0)
(-0.0150429 0.0010376 0)
(-0.0158573 0.00100349 0)
(-0.0166413 0.000963644 0)
(-0.0173903 0.000918039 0)
(-0.0180997 0.000866671 0)
(-0.0187648 0.000809548 0)
(-0.0193813 0.000746703 0)
(-0.0199446 0.00067821 0)
(-0.0204503 0.000604188 0)
(-0.0208943 0.000524815 0)
(-0.0212725 0.000440334 0)
(-0.0215812 0.000351062 0)
(-0.0218168 0.000257393 0)
(-0.0219762 0.000159802 0)
(-0.0220567 5.8849e-05 0)
(-0.0220561 -4.48221e-05 0)
(-0.0219727 -0.000150485 0)
(-0.0218055 -0.000257333 0)
(-0.0215539 -0.000364486 0)
(-0.0212183 -0.000471001 0)
(-0.0207997 -0.000575876 0)
(-0.0202999 -0.000678065 0)
(-0.0197216 -0.00077649 0)
(-0.0190681 -0.00087006 0)
(-0.0183439 -0.000957681 0)
(-0.0175539 -0.00103828 0)
(-0.0167041 -0.00111082 0)
(-0.0158012 -0.00117432 0)
(-0.0148525 -0.00122786 0)
(-0.013866 -0.00127065 0)
(-0.0128503 -0.00130196 0)
(-0.0118144 -0.00132123 0)
(-0.0107679 -0.00132801 0)
(-0.00972039 -0.00132204 0)
(-0.00868171 -0.00130318 0)
(-0.00766173 -0.00127149 0)
(-0.00667019 -0.00122722 0)
(-0.00571657 -0.00117077 0)
(-0.00480995 -0.00110274 0)
(-0.00395887 -0.00102393 0)
(-0.00317117 -0.000935302 0)
(-0.00245387 -0.000838025 0)
(-0.00181298 -0.00073346 0)
(-0.00125337 -0.000623184 0)
(-0.000778589 -0.000509014 0)
(-0.000390643 -0.000393056 0)
(-8.97972e-05 -0.000277776 0)
(0.000125709 -0.000166121 0)
(0.000260006 -6.16786e-05 0)
(0.000320019 3.10685e-05 0)
(0.000315971 0.000106435 0)
(0.000261722 0.00015719 0)
(0.000175226 0.00017428 0)
(8.22712e-05 0.000147127 0)
(1.90521e-05 6.67001e-05 0)
(9.33508e-06 -8.39032e-05 0)
(1.07032e-05 -9.04849e-05 0)
(-3.81632e-05 5.15471e-06 0)
(-0.000163695 0.000162672 0)
(-0.000382844 0.000354967 0)
(-0.00070467 0.000562927 0)
(-0.00113249 0.000773392 0)
(-0.00166533 0.00097762 0)
(-0.00229913 0.00117 0)
(-0.00302763 0.00134713 0)
(-0.00384319 0.00150711 0)
(-0.0047373 0.0016491 0)
(-0.00570103 0.00177297 0)
(-0.00672535 0.00187904 0)
(-0.00780128 0.00196794 0)
(-0.00892007 0.00204041 0)
(-0.0100733 0.00209729 0)
(-0.0112527 0.0021394 0)
(-0.0124506 0.0021675 0)
(-0.0136595 0.00218228 0)
(-0.0148722 0.00218431 0)
(-0.0160817 0.00217409 0)
(-0.0172812 0.00215198 0)
(-0.0184643 0.00211826 0)
(-0.0196244 0.0020731 0)
(-0.0207552 0.00201663 0)
(-0.0218503 0.00194891 0)
(-0.0229036 0.00186996 0)
(-0.0239087 0.00177981 0)
(-0.0248596 0.00167847 0)
(-0.0257501 0.00156601 0)
(-0.0265741 0.00144254 0)
(-0.0273259 0.00130824 0)
(-0.0279995 0.00116339 0)
(-0.0285896 0.00100838 0)
(-0.0290909 0.000843698 0)
(-0.0294984 0.000670005 0)
(-0.0298078 0.000488084 0)
(-0.0300149 0.000298873 0)
(-0.0301164 0.000103466 0)
(-0.0301095 -9.68883e-05 0)
(-0.0299921 -0.000300788 0)
(-0.029763 -0.00050669 0)
(-0.0294217 -0.000712916 0)
(-0.0289689 -0.00091767 0)
(-0.028406 -0.00111906 0)
(-0.0277355 -0.0013151 0)
(-0.026961 -0.00150377 0)
(-0.0260872 -0.00168301 0)
(-0.0251197 -0.00185078 0)
(-0.0240653 -0.00200507 0)
(-0.0229317 -0.00214394 0)
(-0.0217278 -0.00226555 0)
(-0.0204632 -0.00236821 0)
(-0.0191483 -0.00245042 0)
(-0.0177943 -0.00251086 0)
(-0.016413 -0.00254846 0)
(-0.0150168 -0.00256242 0)
(-0.0136183 -0.00255223 0)
(-0.0122301 -0.00251767 0)
(-0.0108652 -0.00245887 0)
(-0.00953612 -0.0023763 0)
(-0.00825522 -0.00227074 0)
(-0.00703427 -0.00214336 0)
(-0.00588431 -0.00199566 0)
(-0.00481551 -0.00182951 0)
(-0.00383691 -0.00164716 0)
(-0.00295628 -0.00145122 0)
(-0.00217987 -0.00124471 0)
(-0.00151218 -0.00103113 0)
(-0.000955775 -0.000814485 0)
(-0.000510962 -0.000599422 0)
(-0.000175521 -0.000391398 0)
(5.56479e-05 -0.000196899 0)
(0.000190929 -2.37467e-05 0)
(0.000242429 0.000118524 0)
(0.000226206 0.000218295 0)
(0.000162611 0.000261623 0)
(8.02682e-05 0.000232437 0)
(1.93658e-05 0.000113251 0)
(1.85571e-06 -8.32473e-05 0)
(-3.07055e-05 -4.35202e-05 0)
(-0.000146386 0.000128815 0)
(-0.000363769 0.000382989 0)
(-0.00069632 0.000684128 0)
(-0.00115192 0.00100683 0)
(-0.00173298 0.00133296 0)
(-0.00243768 0.00165001 0)
(-0.00326109 0.00194965 0)
(-0.00419601 0.00222656 0)
(-0.00523365 0.0024776 0)
(-0.00636426 0.00270122 0)
(-0.00757749 0.00289693 0)
(-0.00886278 0.00306498 0)
(-0.0102096 0.00320612 0)
(-0.0116075 0.00332133 0)
(-0.0130464 0.00341174 0)
(-0.0145164 0.00347852 0)
(-0.0160081 0.00352275 0)
(-0.0175124 0.00354543 0)
(-0.0190203 0.00354744 0)
(-0.0205233 0.00352948 0)
(-0.022013 0.00349212 0)
(-0.0234812 0.00343581 0)
(-0.0249199 0.00336083 0)
(-0.0263213 0.0032674 0)
(-0.0276773 0.00315564 0)
(-0.0289804 0.00302565 0)
(-0.0302228 0.0028775 0)
(-0.0313969 0.00271128 0)
(-0.0324953 0.00252715 0)
(-0.0335105 0.00232536 0)
(-0.0344353 0.00210624 0)
(-0.0352629 0.00187031 0)
(-0.0359864 0.00161825 0)
(-0.0365997 0.0013509 0)
(-0.0370968 0.00106936 0)
(-0.0374725 0.000774927 0)
(-0.037722 0.000469136 0)
(-0.0378413 0.000153764 0)
(-0.0378272 -0.000169173 0)
(-0.0376773 -0.000497425 0)
(-0.0373904 -0.000828526 0)
(-0.036966 -0.00115981 0)
(-0.036405 -0.00148841 0)
(-0.0357093 -0.00181135 0)
(-0.0348821 -0.00212549 0)
(-0.0339279 -0.00242765 0)
(-0.0328524 -0.0027146 0)
(-0.0316624 -0.00298313 0)
(-0.0303662 -0.00323007 0)
(-0.0289733 -0.00345241 0)
(-0.0274942 -0.00364728 0)
(-0.0259406 -0.00381203 0)
(-0.024325 -0.00394431 0)
(-0.0226608 -0.00404207 0)
(-0.0209624 -0.00410366 0)
(-0.0192444 -0.00412782 0)
(-0.017522 -0.00411376 0)
(-0.0158105 -0.00406118 0)
(-0.0141252 -0.00397028 0)
(-0.0124813 -0.0038418 0)
(-0.0108936 -0.00367703 0)
(-0.00937614 -0.00347779 0)
(-0.00794222 -0.00324652 0)
(-0.00660401 -0.00298618 0)
(-0.00537236 -0.00270034 0)
(-0.00425658 -0.00239318 0)
(-0.00326415 -0.00206952 0)
(-0.00240053 -0.00173488 0)
(-0.00166885 -0.00139557 0)
(-0.00106963 -0.00105884 0)
(-0.000600513 -0.000733078 0)
(-0.000255905 -0.000428026 0)
(-2.66497e-05 -0.000155167 0)
(0.000100348 7.19069e-05 0)
(0.000142292 0.000237055 0)
(0.000120822 0.000321306 0)
(6.55573e-05 0.000302694 0)
(1.69392e-05 0.000154866 0)
(-6.29244e-06 -5.91438e-05 0)
(-7.70226e-05 6.13096e-05 0)
(-0.000268189 0.00033794 0)
(-0.000588113 0.000712309 0)
(-0.00104512 0.00114317 0)
(-0.00164483 0.0015997 0)
(-0.0023879 0.00205928 0)
(-0.00327108 0.00250589 0)
(-0.00428824 0.00292851 0)
(-0.00543106 0.00331987 0)
(-0.00668966 0.00367553 0)
(-0.0080531 0.0039931 0)
(-0.00950984 0.00427165 0)
(-0.011048 0.00451129 0)
(-0.0126557 0.00471278 0)
(-0.0143211 0.00487734 0)
(-0.0160327 0.00500634 0)
(-0.0177791 0.00510128 0)
(-0.0195495 0.00516357 0)
(-0.0213332 0.00519453 0)
(-0.0231198 0.0051953 0)
(-0.0248994 0.00516687 0)
(-0.026662 0.00511001 0)
(-0.028398 0.00502533 0)
(-0.0300981 0.00491327 0)
(-0.0317528 0.00477414 0)
(-0.0333529 0.00460818 0)
(-0.0348893 0.00441556 0)
(-0.036353 0.00419644 0)
(-0.0377351 0.00395104 0)
(-0.0390268 0.00367965 0)
(-0.0402196 0.00338269 0)
(-0.041305 0.00306074 0)
(-0.0422752 0.00271461 0)
(-0.0431223 0.00234534 0)
(-0.0438391 0.00195424 0)
(-0.044419 0.00154294 0)
(-0.0448559 0.00111335 0)
(-0.0451445 0.000667756 0)
(-0.0452802 0.000208737 0)
(-0.0452595 -0.000260775 0)
(-0.0450798 -0.000737528 0)
(-0.0447398 -0.00121797 0)
(-0.0442391 -0.00169826 0)
(-0.0435789 -0.00217433 0)
(-0.0427615 -0.00264188 0)
(-0.0417907 -0.00309647 0)
(-0.0406717 -0.00353356 0)
(-0.039411 -0.00394857 0)
(-0.0380169 -0.00433693 0)
(-0.0364988 -0.00469418 0)
(-0.0348674 -0.00501602 0)
(-0.0331351 -0.00529841 0)
(-0.031315 -0.0055376 0)
(-0.0294218 -0.00573027 0)
(-0.0274708 -0.00587352 0)
(-0.0254782 -0.00596502 0)
(-0.023461 -0.006003 0)
(-0.0214365 -0.00598635 0)
(-0.0194223 -0.00591464 0)
(-0.0174359 -0.00578818 0)
(-0.0154948 -0.00560804 0)
(-0.0136158 -0.00537605 0)
(-0.0118151 -0.00509485 0)
(-0.0101081 -0.0047679 0)
(-0.00850859 -0.00439948 0)
(-0.00702917 -0.00399468 0)
(-0.00568058 -0.0035595 0)
(-0.00447151 -0.00310081 0)
(-0.00340836 -0.00262646 0)
(-0.00249495 -0.00214539 0)
(-0.00173224 -0.00166773 0)
(-0.00111801 -0.00120507 0)
(-0.00064664 -0.000770677 0)
(-0.000308745 -0.00037985 0)
(-9.09284e-05 -5.0347e-05 0)
(2.4395e-05 0.000197153 0)
(5.92937e-05 0.000338672 0)
(4.28874e-05 0.000346457 0)
(1.30408e-05 0.000186244 0)
(-1.45378e-05 -1.02358e-05 0)
(-0.000125345 0.000228745 0)
(-0.000396754 0.000639733 0)
(-0.000825682 0.00115914 0)
(-0.00141432 0.00174086 0)
(-0.0021652 0.00234967 0)
(-0.00307654 0.00295921 0)
(-0.00414313 0.00355034 0)
(-0.00535728 0.00410961 0)
(-0.00670932 0.00462793 0)
(-0.00818819 0.00509957 0)
(-0.00978178 0.00552129 0)
(-0.0114774 0.0058917 0)
(-0.013262 0.00621068 0)
(-0.0151226 0.00647905 0)
(-0.017046 0.00669812 0)
(-0.0190195 0.00686957 0)
(-0.0210305 0.00699514 0)
(-0.0230668 0.00707658 0)
(-0.0251165 0.00711551 0)
(-0.0271678 0.00711337 0)
(-0.0292095 0.00707139 0)
(-0.0312304 0.00699056 0)
(-0.0332195 0.00687168 0)
(-0.0351662 0.00671533 0)
(-0.0370597 0.00652198 0)
(-0.0388896 0.00629197 0)
(-0.0406455 0.00602558 0)
(-0.0423172 0.00572312 0)
(-0.0438947 0.00538493 0)
(-0.045368 0.0050115 0)
(-0.0467274 0.00460347 0)
(-0.0479637 0.00416174 0)
(-0.0490677 0.00368747 0)
(-0.050031 0.00318214 0)
(-0.0508453 0.00264762 0)
(-0.0515034 0.00208615 0)
(-0.0519985 0.00150039 0)
(-0.0523247 0.000893442 0)
(-0.0524771 0.000268845 0)
(-0.0524519 -0.000369434 0)
(-0.0522462 -0.00101701 0)
(-0.0518586 -0.00166909 0)
(-0.051289 -0.00232053 0)
(-0.0505386 -0.00296587 0)
(-0.0496101 -0.00359938 0)
(-0.0485079 -0.00421513 0)
(-0.0472378 -0.00480707 0)
(-0.0458072 -0.0053691 0)
(-0.0442251 -0.00589516 0)
(-0.0425022 -0.00637931 0)
(-0.0406504 -0.00681586 0)
(-0.0386834 -0.00719942 0)
(-0.036616 -0.00752505 0)
(-0.0344642 -0.00778831 0)
(-0.0322453 -0.00798537 0)
(-0.0299773 -0.00811313 0)
(-0.0276789 -0.00816925 0)
(-0.0253695 -0.00815224 0)
(-0.0230686 -0.00806154 0)
(-0.0207958 -0.00789756 0)
(-0.0185704 -0.00766171 0)
(-0.0164115 -0.00735645 0)
(-0.014337 -0.00698531 0)
(-0.012364 -0.00655289 0)
(-0.0105083 -0.00606491 0)
(-0.00878386 -0.00552819 0)
(-0.00720288 -0.0049507 0)
(-0.00577527 -0.00434161 0)
(-0.00450848 -0.00371131 0)
(-0.00340714 -0.00307159 0)
(-0.00247286 -0.0024357 0)
(-0.0017039 -0.00181861 0)
(-0.00109494 -0.00123723 0)
(-0.000636868 -0.000710803 0)
(-0.000316499 -0.000261244 0)
(-0.000116475 8.631e-05 0)
(-1.49831e-05 0.000303078 0)
(1.54893e-05 0.000355993 0)
(8.41534e-06 0.000204317 0)
(-2.26318e-05 6.38321e-05 0)
(-0.000174065 0.000461016 0)
(-0.000527882 0.00103816 0)
(-0.00106926 0.00172855 0)
(-0.0017937 0.00248268 0)
(-0.00270013 0.00326205 0)
(-0.0037838 0.00403728 0)
(-0.00503707 0.00478669 0)
(-0.00645035 0.00549479 0)
(-0.00801242 0.00615088 0)
(-0.00971086 0.00674809 0)
(-0.0115324 0.00728241 0)
(-0.0134631 0.00775199 0)
(-0.0154889 0.00815653 0)
(-0.0175956 0.00849682 0)
(-0.0197692 0.00877433 0)
(-0.0219956 0.00899094 0)
(-0.0242613 0.00914868 0)
(-0.0265528 0.00924959 0)
(-0.0288571 0.00929559 0)
(-0.0311613 0.0092884 0)
(-0.0334529 0.00922948 0)
(-0.0357196 0.00912007 0)
(-0.0379494 0.00896113 0)
(-0.0401302 0.00875344 0)
(-0.0422504 0.00849759 0)
(-0.0442982 0.00819406 0)
(-0.0462622 0.00784328 0)
(-0.0481312 0.0074457 0)
(-0.0498939 0.00700187 0)
(-0.0515394 0.00651248 0)
(-0.0530572 0.00597848 0)
(-0.0544368 0.0054011 0)
(-0.0556684 0.00478194 0)
(-0.0567426 0.004123 0)
(-0.0576507 0.00342675 0)
(-0.0583844 0.00269617 0)
(-0.0589366 0.00193473 0)
(-0.0593009 0.00114647 0)
(-0.0594719 0.000335982 0)
(-0.0594454 -0.000491623 0)
(-0.0592186 -0.00133069 0)
(-0.0587899 -0.0021751 0)
(-0.0581591 -0.00301824 0)
(-0.0573276 -0.00385314 0)
(-0.0562986 -0.00467251 0)
(-0.0550767 -0.00546879 0)
(-0.0536682 -0.00623429 0)
(-0.0520813 -0.00696124 0)
(-0.0503258 -0.00764194 0)
(-0.0484133 -0.00826888 0)
(-0.0463567 -0.0088348 0)
(-0.0441709 -0.00933288 0)
(-0.041872 -0.00975683 0)
(-0.0394776 -0.010101 0)
(-0.0370061 -0.0103606 0)
(-0.0344775 -0.0105315 0)
(-0.031912 -0.0106109 0)
(-0.0293308 -0.0105968 0)
(-0.0267552 -0.0104884 0)
(-0.0242067 -0.0102864 0)
(-0.0217064 -0.0099924 0)
(-0.0192752 -0.00960957 0)
(-0.0169328 -0.00914238 0)
(-0.0146982 -0.00859667 0)
(-0.0125886 -0.0079797 0)
(-0.0106196 -0.00730015 0)
(-0.00880498 -0.00656812 0)
(-0.00715582 -0.00579522 0)
(-0.00568072 -0.00499459 0)
(-0.00438535 -0.00418099 0)
(-0.00327216 -0.00337095 0)
(-0.00234016 -0.00258295 0)
(-0.0015847 -0.00183765 0)
(-0.000997272 -0.00115822 0)
(-0.000565365 -0.000570699 0)
(-0.000272314 -0.000104526 0)
(-9.70885e-05 0.000207048 0)
(-1.45129e-05 0.000326282 0)
(3.49897e-06 0.000207375 0)
(-3.04731e-05 0.000162857 0)
(-0.000222309 0.000758735 0)
(-0.000659034 0.0015349 0)
(-0.00131418 0.0024231 0)
(-0.00217637 0.0033717 0)
(-0.00324058 0.00433991 0)
(-0.00449873 0.0052962 0)
(-0.00594042 0.00621695 0)
(-0.00755386 0.00708504 0)
(-0.00932606 0.00788853 0)
(-0.0112431 0.00861959 0)
(-0.0132903 0.0092736 0)
(-0.0154528 0.00984833 0)
(-0.0177152 0.0103433 0)
(-0.0200625 0.0107594 0)
(-0.0224795 0.0110982 0)
(-0.0249513 0.0113617 0)
(-0.0274631 0.0115524 0)
(-0.0300007 0.0116724 0)
(-0.0325499 0.0117241 0)
(-0.035097 0.0117093 0)
(-0.0376282 0.0116298 0)
(-0.0401304 0.0114871 0)
(-0.0425903 0.0112823 0)
(-0.044995 0.0110164 0)
(-0.0473318 0.01069 0)
(-0.0495878 0.0103039 0)
(-0.0517508 0.00985865 0)
(-0.0538084 0.00935484 0)
(-0.0557484 0.00879325 0)
(-0.0575591 0.00817486 0)
(-0.0592289 0.00750092 0)
(-0.0607467 0.00677307 0)
(-0.0621018 0.0059934 0)
(-0.063284 0.0051645 0)
(-0.0642839 0.0042895 0)
(-0.0650928 0.00337217 0)
(-0.0657028 0.00241691 0)
(-0.0661071 0.00142877 0)
(-0.0663001 0.00041347 0)
(-0.0662771 -0.000622622 0)
(-0.066035 -0.0016725 0)
(-0.0655723 -0.00272857 0)
(-0.0648887 -0.0037827 0)
(-0.0639857 -0.00482628 0)
(-0.0628665 -0.00585031 0)
(-0.0615362 -0.00684551 0)
(-0.0600015 -0.00780241 0)
(-0.058271 -0.00871148 0)
(-0.0563553 -0.00956325 0)
(-0.0542665 -0.0103485 0)
(-0.0520188 -0.0110582 0)
(-0.0496278 -0.0116842 0)
(-0.0471108 -0.0122185 0)
(-0.0444866 -0.0126543 0)
(-0.0417751 -0.0129856 0)
(-0.0389975 -0.0132074 0)
(-0.0361757 -0.013316 0)
(-0.0333325 -0.0133091 0)
(-0.0304909 -0.0131858 0)
(-0.027674 -0.0129464 0)
(-0.0249048 -0.0125933 0)
(-0.0222057 -0.0121302 0)
(-0.0195986 -0.0115624 0)
(-0.0171037 -0.0108972 0)
(-0.0147403 -0.0101435 0)
(-0.0125254 -0.00931182 0)
(-0.0104743 -0.00841456 0)
(-0.00859948 -0.00746588 0)
(-0.00691086 -0.00648178 0)
(-0.00541528 -0.00548014 0)
(-0.00411628 -0.00448086 0)
(-0.00301386 -0.00350602 0)
(-0.00210433 -0.00258006 0)
(-0.00138013 -0.00173008 0)
(-0.00082974 -0.000986142 0)
(-0.000437562 -0.000381791 0)
(-0.000183714 4.56165e-05 0)
(-4.57761e-05 0.000254306 0)
(-1.46701e-06 0.000194595 0)
(-3.80306e-05 0.000286353 0)
(-0.000269618 0.00112152 0)
(-0.000788683 0.00213011 0)
(-0.00155744 0.00324351 0)
(-0.00255768 0.00440904 0)
(-0.00378022 0.00558456 0)
(-0.00521343 0.00673713 0)
(-0.00684393 0.00784186 0)
(-0.00865748 0.00888047 0)
(-0.0106391 0.00984015 0)
(-0.0127733 0.0107124 0)
(-0.0150439 0.0114922 0)
(-0.0174349 0.012177 0)
(-0.0199299 0.0127663 0)
(-0.0225127 0.0132611 0)
(-0.0251673 0.0136631 0)
(-0.0278777 0.0139746 0)
(-0.0306285 0.0141982 0)
(-0.0334044 0.0143364 0)
(-0.0361904 0.0143919 0)
(-0.0389717 0.0143667 0)
(-0.041734 0.0142629 0)
(-0.0444628 0.0140822 0)
(-0.0471442 0.0138258 0)
(-0.0497643 0.0134949 0)
(-0.0523094 0.0130904 0)
(-0.054766 0.0126132 0)
(-0.0571206 0.0120638 0)
(-0.0593602 0.0114433 0)
(-0.0614717 0.0107527 0)
(-0.0634424 0.00999305 0)
(-0.0652602 0.00916615 0)
(-0.0669129 0.00827404 0)
(-0.0683893 0.00731932 0)
(-0.0696784 0.00630522 0)
(-0.0707703 0.00523563 0)
(-0.0716555 0.00411515 0)
(-0.0723258 0.00294916 0)
(-0.0727738 0.0017438 0)
(-0.0729934 0.000505992 0)
(-0.0729798 -0.000756559 0)
(-0.0727295 -0.00203541 0)
(-0.0722407 -0.00332142 0)
(-0.0715132 -0.00460481 0)
(-0.0705485 -0.00587525 0)
(-0.0693497 -0.00712196 0)
(-0.0679221 -0.0083338 0)
(-0.0662728 -0.00949942 0)
(-0.0644108 -0.0106074 0)
(-0.062347 -0.0116464 0)
(-0.0600943 -0.0126053 0)
(-0.0576674 -0.0134735 0)
(-0.055083 -0.0142409 0)
(-0.0523592 -0.0148981 0)
(-0.0495159 -0.0154368 0)
(-0.0465742 -0.0158497 0)
(-0.0435567 -0.0161309 0)
(-0.0404867 -0.0162759 0)
(-0.0373884 -0.0162817 0)
(-0.0342864 -0.0161471 0)
(-0.0312056 -0.0158726 0)
(-0.0281706 -0.0154607 0)
(-0.0252056 -0.0149158 0)
(-0.0223341 -0.0142444 0)
(-0.0195784 -0.013455 0)
(-0.016959 -0.012558 0)
(-0.0144951 -0.0115662 0)
(-0.0122033 -0.0104941 0)
(-0.0100976 -0.00935867 0)
(-0.00818963 -0.00817878 0)
(-0.00648742 -0.00697555 0)
(-0.00499585 -0.00577233 0)
(-0.0037162 -0.00459484 0)
(-0.00264595 -0.00347132 0)
(-0.00177877 -0.00243276 0)
(-0.0011044 -0.00151319 0)
(-0.000608567 -0.000750037 0)
(-0.000272761 -0.000184429 0)
(-7.75039e-05 0.000138369 0)
(-6.35753e-06 0.000165678 0)
(-4.53057e-05 0.000433699 0)
(-0.000315755 0.00154838 0)
(-0.000915923 0.00282292 0)
(-0.00179715 0.00418923 0)
(-0.00293451 0.00559442 0)
(-0.00431463 0.00699585 0)
(-0.00592222 0.00835991 0)
(-0.00774073 0.00966101 0)
(-0.00975334 0.0108803 0)
(-0.011943 0.0120044 0)
(-0.0142923 0.0130244 0)
(-0.0167837 0.0139353 0)
(-0.0193999 0.0147343 0)
(-0.0221235 0.0154212 0)
(-0.0249372 0.0159968 0)
(-0.027824 0.0164632 0)
(-0.0307673 0.0168231 0)
(-0.0337508 0.0170791 0)
(-0.0367582 0.0172343 0)
(-0.0397739 0.0172914 0)
(-0.0427823 0.0172529 0)
(-0.0457681 0.0171209 0)
(-0.0487163 0.0168974 0)
(-0.0516121 0.0165839 0)
(-0.0544407 0.0161816 0)
(-0.0571877 0.0156917 0)
(-0.0598386 0.0151152 0)
(-0.0623795 0.0144529 0)
(-0.0647961 0.0137059 0)
(-0.067075 0.0128756 0)
(-0.0692026 0.0119634 0)
(-0.0711658 0.0109714 0)
(-0.0729522 0.00990226 0)
(-0.0745494 0.00875901 0)
(-0.0759462 0.00754559 0)
(-0.0771318 0.00626667 0)
(-0.0780963 0.00492776 0)
(-0.0788307 0.00353526 0)
(-0.0793274 0.00209644 0)
(-0.0795798 0.000619519 0)
(-0.0795826 -0.000886428 0)
(-0.0793322 -0.00241145 0)
(-0.0788263 -0.00394477 0)
(-0.0780645 -0.00547492 0)
(-0.0770482 -0.00698974 0)
(-0.0757807 -0.00847657 0)
(-0.0742671 -0.00992234 0)
(-0.0725146 -0.0113137 0)
(-0.0705325 -0.0126373 0)
(-0.068332 -0.0138798 0)
(-0.0659266 -0.015028 0)
(-0.0633314 -0.0160695 0)
(-0.0605639 -0.0169924 0)
(-0.0576429 -0.0177856 0)
(-0.0545894 -0.0184393 0)
(-0.0514255 -0.0189448 0)
(-0.048175 -0.0192949 0)
(-0.0448625 -0.0194844 0)
(-0.0415137 -0.0195095 0)
(-0.0381547 -0.0193686 0)
(-0.034812 -0.0190624 0)
(-0.0315119 -0.0185934 0)
(-0.0282805 -0.0179667 0)
(-0.025143 -0.0171898 0)
(-0.0221235 -0.0162724 0)
(-0.0192444 -0.0152268 0)
(-0.0165266 -0.0140676 0)
(-0.0139885 -0.012812 0)
(-0.0116459 -0.0114795 0)
(-0.00951189 -0.010092 0)
(-0.00759623 -0.00867388 0)
(-0.0059053 -0.00725203 0)
(-0.00444182 -0.00585586 0)
(-0.00320471 -0.00451743 0)
(-0.00218907 -0.0032716 0)
(-0.00138615 -0.00215626 0)
(-0.00078313 -0.00121257 0)
(-0.000363014 -0.000485176 0)
(-0.000109267 -2.24174e-05 0)
(-1.11175e-05 0.000120613 0)
(-5.23092e-05 0.000604214 0)
(-0.000360608 0.002038 0)
(-0.00104022 0.00361181 0)
(-0.00203208 0.00525874 0)
(-0.00330473 0.00692646 0)
(-0.00484069 0.00857249 0)
(-0.00662093 0.0101632 0)
(-0.00862567 0.011673 0)
(-0.0108354 0.0130827 0)
(-0.0132308 0.0143791 0)
(-0.0157927 0.0155532 0)
(-0.018502 0.0165999 0)
(-0.0213399 0.0175168 0)
(-0.0242881 0.0183036 0)
(-0.0273282 0.0189617 0)
(-0.0304424 0.0194933 0)
(-0.0336133 0.0199014 0)
(-0.0368236 0.0201891 0)
(-0.0400567 0.0203596 0)
(-0.043296 0.020416 0)
(-0.0465252 0.020361 0)
(-0.0497284 0.020197 0)
(-0.0528899 0.0199262 0)
(-0.0559942 0.0195502 0)
(-0.0590257 0.0190705 0)
(-0.0619694 0.0184884 0)
(-0.0648102 0.017805 0)
(-0.0675332 0.0170214 0)
(-0.0701237 0.0161389 0)
(-0.0725674 0.0151591 0)
(-0.0748502 0.014084 0)
(-0.0769583 0.0129158 0)
(-0.0788784 0.0116577 0)
(-0.0805979 0.0103135 0)
(-0.0821045 0.00888765 0)
(-0.0833871 0.00738574 0)
(-0.0844352 0.00581419 0)
(-0.0852393 0.00418043 0)
(-0.0857911 0.00249295 0)
(-0.0860836 0.000761257 0)
(-0.0861111 -0.00100413 0)
(-0.0858694 -0.00279169 0)
(-0.0853561 -0.004589 0)
(-0.0845705 -0.00638278 0)
(-0.0835135 -0.00815901 0)
(-0.0821883 -0.00990307 0)
(-0.0806 -0.0115999 0)
(-0.0787557 -0.013234 0)
(-0.0766649 -0.0147899 0)
(-0.0743388 -0.0162523 0)
(-0.0717912 -0.0176059 0)
(-0.0690378 -0.0188362 0)
(-0.0660964 -0.0199294 0)
(-0.0629868 -0.0208726 0)
(-0.0597304 -0.0216542 0)
(-0.0563507 -0.0222642 0)
(-0.0528723 -0.022694 0)
(-0.0493213 -0.0229373 0)
(-0.0457246 -0.0229896 0)
(-0.0421099 -0.0228489 0)
(-0.0385053 -0.0225154 0)
(-0.034939 -0.0219922 0)
(-0.0314388 -0.0212848 0)
(-0.0280316 -0.0204016 0)
(-0.0247437 -0.0193536 0)
(-0.0215994 -0.0181549 0)
(-0.0186214 -0.0168221 0)
(-0.0158301 -0.0153748 0)
(-0.0132434 -0.0138352 0)
(-0.010876 -0.0122284 0)
(-0.00873952 -0.0105821 0)
(-0.00684209 -0.0089267 0)
(-0.00518812 -0.00729536 0)
(-0.00377817 -0.00572399 0)
(-0.00260895 -0.00425133 0)
(-0.00167335 -0.00291905 0)
(-0.000960157 -0.00177197 0)
(-0.000453897 -0.000858065 0)
(-0.000140888 -0.000228509 0)
(-1.57344e-05 5.95214e-05 0)
(-5.9055e-05 0.000797199 0)
(-0.000404125 0.00258882 0)
(-0.00116125 0.0044948 0)
(-0.00226142 0.00644991 0)
(-0.0036669 0.00840296 0)
(-0.00535617 0.0103123 0)
(-0.00730649 0.0121449 0)
(-0.00949484 0.0138755 0)
(-0.011899 0.0154854 0)
(-0.0144972 0.0169616 0)
(-0.0172685 0.0182956 0)
(-0.0201922 0.0194826 0)
(-0.0232482 0.0205205 0)
(-0.0264169 0.0214094 0)
(-0.029679 0.0221512 0)
(-0.0330159 0.0227484 0)
(-0.0364093 0.0232043 0)
(-0.0398414 0.0235226 0)
(-0.0432947 0.0237066 0)
(-0.0467521 0.0237599 0)
(-0.0501967 0.0236854 0)
(-0.0536121 0.0234857 0)
(-0.0569818 0.0231632 0)
(-0.0602897 0.0227197 0)
(-0.0635198 0.0221569 0)
(-0.0666563 0.0214762 0)
(-0.0696836 0.020679 0)
(-0.0725861 0.0197665 0)
(-0.0753485 0.0187402 0)
(-0.077956 0.0176021 0)
(-0.0803937 0.0163543 0)
(-0.0826473 0.0149997 0)
(-0.0847029 0.0135419 0)
(-0.0865471 0.0119852 0)
(-0.0881674 0.0103349 0)
(-0.0895518 0.00859741 0)
(-0.0906892 0.00678001 0)
(-0.0915696 0.00489125 0)
(-0.0921842 0.00294083 0)
(-0.0925253 0.00093958 0)
(-0.0925868 -0.00110049 0)
(-0.092364 -0.00316629 0)
(-0.091854 -0.00524365 0)
(-0.0910555 -0.00731748 0)
(-0.0899693 -0.00937181 0)
(-0.0885981 -0.01139 0)
(-0.0869468 -0.0133549 0)
(-0.0850224 -0.0152488 0)
(-0.082834 -0.0170542 0)
(-0.0803932 -0.0187534 0)
(-0.0777137 -0.020329 0)
(-0.0748116 -0.0217643 0)
(-0.071705 -0.0230435 0)
(-0.0684142 -0.0241516 0)
(-0.0649615 -0.0250754 0)
(-0.0613711 -0.0258029 0)
(-0.0576688 -0.0263244 0)
(-0.0538817 -0.0266322 0)
(-0.0500382 -0.0267209 0)
(-0.0461676 -0.0265879 0)
(-0.0422996 -0.0262333 0)
(-0.0384641 -0.02566 0)
(-0.0346908 -0.0248741 0)
(-0.0310088 -0.0238849 0)
(-0.0274462 -0.0227047 0)
(-0.0240296 -0.0213491 0)
(-0.0207839 -0.0198369 0)
(-0.0177314 -0.01819 0)
(-0.0148922 -0.0164337 0)
(-0.0122831 -0.0145958 0)
(-0.00991776 -0.0127077 0)
(-0.00780622 -0.0108034 0)
(-0.00595477 -0.00891972 0)
(-0.00436583 -0.00709653 0)
(-0.00303789 -0.00537645 0)
(-0.00196559 -0.00380497 0)
(-0.00113938 -0.0024305 0)
(-0.000545302 -0.00130427 0)
(-0.000172363 -0.000480196 0)
(-2.02226e-05 -1.74492e-05 0)
(-6.55571e-05 0.00101194 0)
(-0.000446283 0.00319918 0)
(-0.00127882 0.00546961 0)
(-0.00248463 0.00776011 0)
(-0.00401998 0.0100211 0)
(-0.00585941 0.0122124 0)
(-0.00797658 0.0143019 0)
(-0.0103452 0.0162654 0)
(-0.0129403 0.0180851 0)
(-0.0157378 0.0197487 0)
(-0.0187149 0.0212482 0)
(-0.0218491 0.0225796 0)
(-0.025119 0.0237414 0)
(-0.0285038 0.0247344 0)
(-0.0319835 0.0255607 0)
(-0.0355383 0.0262236 0)
(-0.0391495 0.0267269 0)
(-0.0427984 0.0270745 0)
(-0.046467 0.0272703 0)
(-0.0501377 0.0273181 0)
(-0.053793 0.027221 0)
(-0.0574159 0.0269821 0)
(-0.0609895 0.0266038 0)
(-0.0644971 0.0260883 0)
(-0.0679223 0.0254372 0)
(-0.0712487 0.0246522 0)
(-0.0744601 0.0237347 0)
(-0.0775406 0.0226864 0)
(-0.0804742 0.0215089 0)
(-0.0832454 0.0202043 0)
(-0.085839 0.0187753 0)
(-0.08824 0.0172251 0)
(-0.090434 0.0155577 0)
(-0.0924071 0.0137781 0)
(-0.0941459 0.0118923 0)
(-0.0956379 0.00990756 0)
(-0.0968716 0.00783209 0)
(-0.0978362 0.00567552 0)
(-0.0985224 0.00344875 0)
(-0.0989218 0.00116397 0)
(-0.0990277 -0.00116532 0)
(-0.0988348 -0.00352442 0)
(-0.0983395 -0.00589742 0)
(-0.0975402 -0.00826735 0)
(-0.0964369 -0.0106163 0)
(-0.095032 -0.0129255 0)
(-0.0933299 -0.0151756 0)