/*--------------------------------*- C++ -*----------------------------------*\
| =========                 |                                                 |
| \\      /  F ield         | OpenFOAM: The Open Source CFD Toolbox           |
|  \\    /   O peration     | Version:  2506                                  |
|   \\  /    A nd           | Website:  www.openfoam.com                      |
|    \\/     M anipulation  |                                                 |
\*---------------------------------------------------------------------------*/
FoamFile
{
    version     2.0;
    format      ascii;
    arch        "LSB;label=32;scalar=64";
    class       volVectorField;
    location    "7";
    object      ddtU;
}
// * * * * * * * * * * * * * * * * * * * * * * * * * * * * * * * * * * * * * //

dimensions      [0 1 -2 0 0 0 0];

internalField   nonuniform List<vector> 
400
(
(-8.88178e-14 1.32719e-13 0)
(4.44089e-14 -5.5318e-15 0)
(4.44089e-14 3.13685e-14 0)
(0 2.2753e-14 0)
(-6.66134e-14 1.06151e-14 0)
(-4.44089e-14 -9.78014e-15 0)
(-2.22045e-14 -1.90672e-14 0)
(0 -2.23411e-14 0)
(4.44089e-14 -9.4963e-15 0)
(2.22045e-14 1.16011e-14 0)
(0 1.09205e-14 0)
(-2.22045e-14 -3.48234e-15 0)
(0 -3.20648e-15 0)
(-2.22045e-14 1.28553e-14 0)
(-2.22045e-14 1.42174e-14 0)
(-4.44089e-14 -2.01782e-15 0)
(-4.44089e-14 -9.50589e-15 0)
(-2.22045e-14 -1.55152e-14 0)
(4.44089e-14 2.95361e-15 0)
(2.22045e-14 5.48403e-15 0)
(8.88178e-14 4.45258e-14 0)
(4.44089e-14 4.99498e-14 0)
(-4.44089e-14 4.14374e-14 0)
(4.44089e-14 3.90286e-14 0)
(0 1.8771e-14 0)
(4.44089e-14 -1.85538e-14 0)
(-4.44089e-14 -2.92795e-14 0)
(0 -1.20035e-14 0)
(0 3.79939e-15 0)
(-8.88178e-14 2.94432e-15 0)
(0 1.41909e-14 0)
(0 1.49945e-14 0)
(-4.44089e-14 1.47236e-14 0)
(-4.44089e-14 -9.18882e-15 0)
(4.44089e-14 -5.92082e-15 0)
(4.44089e-14 5.90799e-15 0)
(8.88178e-14 1.45747e-14 0)
(-4.44089e-14 -1.43964e-14 0)
(-8.88178e-14 -1.32379e-14 0)
(0 -1.85575e-15 0)
(4.44089e-14 5.54443e-14 0)
(0 5.77132e-14 0)
(0 3.58199e-14 0)
(0 2.78848e-14 0)
(2.22045e-14 2.43859e-14 0)
(-4.44089e-14 1.09449e-14 0)
(-2.22045e-14 7.60121e-15 0)
(-8.88178e-14 2.55897e-14 0)
(0 -2.06735e-15 0)
(-4.44089e-14 -3.34774e-14 0)
(0 -8.41141e-15 0)
(4.44089e-14 -3.00533e-16 0)
(4.44089e-14 1.97852e-15 0)
(8.88178e-14 -1.80627e-14 0)
(0 -1.93357e-14 0)
(4.44089e-14 -4.86032e-17 0)
(6.66134e-14 2.37743e-14 0)
(8.88178e-14 1.10786e-14 0)
(2.22045e-14 -9.00824e-15 0)
(2.22045e-14 -8.54506e-16 0)
(-8.88178e-14 1.21524e-13 0)
(4.44089e-14 2.73374e-15 0)
(0 2.6332e-14 0)
(0 2.63425e-14 0)
(0 3.43055e-14 0)
(4.44089e-14 3.1752e-14 0)
(0 2.6103e-14 0)
(4.44089e-14 1.8264e-14 0)
(6.66134e-14 -3.81938e-15 0)
(-4.44089e-14 -2.27453e-14 0)
(6.66134e-14 -3.25366e-14 0)
(0 -1.51316e-14 0)
(2.22045e-14 -1.16167e-14 0)
(0 -2.68925e-15 0)
(4.44089e-14 1.74812e-15 0)
(0 6.31477e-15 0)
(2.22045e-14 -7.04108e-15 0)
(0 8.95966e-15 0)
(0 1.26699e-14 0)
(2.22045e-14 1.40569e-14 0)
(1.11022e-13 -2.5475e-14 0)
(4.44089e-14 3.92472e-14 0)
(-2.22045e-14 1.55301e-14 0)
(4.44089e-14 3.26585e-14 0)
(-4.44089e-14 2.51947e-14 0)
(4.44089e-14 1.15299e-14 0)
(6.66134e-14 7.48603e-15 0)
(4.44089e-14 -4.06684e-15 0)
(-2.22045e-14 1.14286e-14 0)
(2.22045e-14 -2.9272e-15 0)
(4.44089e-14 -2.57029e-14 0)
(-4.44089e-14 5.93509e-15 0)
(0 3.03468e-16 0)
(0 -1.50392e-14 0)
(0 -1.59218e-14 0)
(2.22045e-14 -4.06766e-15 0)
(8.88178e-14 2.33246e-15 0)
(-2.22045e-14 2.74412e-14 0)
(0 1.82769e-14 0)
(0 1.59843e-14 0)
(-1.33227e-13 3.3545e-14 0)
(-2.22045e-14 2.0265e-14 0)
(0 7.88418e-15 0)
(4.44089e-14 4.81858e-15 0)
(0 -2.03141e-15 0)
(4.44089e-14 7.78021e-15 0)
(4.44089e-14 1.69216e-14 0)
(-2.22045e-14 4.38839e-15 0)
(-2.22045e-14 -4.02575e-15 0)
(2.22045e-14 -8.85265e-15 0)
(2.22045e-14 -1.06092e-14 0)
(-2.22045e-14 -6.74664e-15 0)
(2.22045e-14 -6.29443e-15 0)
(2.22045e-14 -6.05415e-15 0)
(-2.22045e-14 -2.0204e-14 0)
(0 -9.5885e-15 0)
(-6.66134e-14 1.0854e-14 0)
(0 2.57799e-14 0)
(0 2.71288e-14 0)
(-2.22045e-14 1.98101e-14 0)
(1.11022e-13 1.31017e-13 0)
(2.22045e-14 -1.58882e-14 0)
(4.44089e-14 7.28958e-16 0)
(2.22045e-14 -1.03939e-14 0)
(2.22045e-14 -6.65582e-15 0)
(-2.22045e-14 1.44366e-14 0)
(-2.22045e-14 1.77917e-14 0)
(4.44089e-14 1.73982e-14 0)
(-2.22045e-14 1.65016e-15 0)
(-2.22045e-14 -5.33918e-15 0)
(-4.44089e-14 -2.34873e-14 0)
(-2.22045e-14 -2.18078e-14 0)
(0 -1.15999e-14 0)
(4.44089e-14 -9.62149e-16 0)
(-2.22045e-14 6.84963e-15 0)
(-6.66134e-14 8.77818e-15 0)
(4.44089e-14 1.0709e-14 0)
(-4.44089e-14 5.21444e-15 0)
(-6.66134e-14 1.6941e-14 0)
(2.22045e-14 1.5079e-14 0)
(4.44089e-14 -4.61942e-14 0)
(0 2.9871e-14 0)
(0 9.61929e-15 0)
(4.44089e-14 1.74938e-14 0)
(0 1.86948e-14 0)
(0 1.72504e-14 0)
(0 -3.0748e-15 0)
(0 -1.86476e-16 0)
(0 4.13598e-16 0)
(6.66134e-14 -4.66329e-15 0)
(2.22045e-14 -7.7738e-15 0)
(2.22045e-14 -6.86791e-15 0)
(0 -1.34049e-14 0)
(0 -3.78674e-15 0)
(0 8.57804e-15 0)
(-2.22045e-14 1.11117e-14 0)
(0 2.95808e-14 0)
(-6.66134e-14 2.1097e-14 0)
(0 -1.40832e-15 0)
(-2.22045e-14 5.91278e-15 0)
(0 -4.3468e-14 0)
(-2.22045e-14 2.91946e-14 0)
(-6.66134e-14 3.47026e-15 0)
(0 8.3352e-16 0)
(0 6.48914e-15 0)
(2.22045e-14 9.65417e-15 0)
(6.66134e-14 9.30368e-15 0)
(-2.22045e-14 1.3975e-15 0)
(-4.44089e-14 -4.26e-16 0)
(2.22045e-14 2.84355e-15 0)
(-2.22045e-14 2.81173e-14 0)
(0 8.32871e-15 0)
(-2.22045e-14 -1.76536e-14 0)
(-4.44089e-14 -5.45182e-15 0)
(0 1.71315e-14 0)
(-8.88178e-14 9.72507e-15 0)
(-8.88178e-14 4.41729e-15 0)
(4.44089e-14 1.18696e-14 0)
(-2.22045e-14 1.43197e-14 0)
(-2.22045e-14 -9.07065e-16 0)
(-4.44089e-14 1.22943e-13 0)
(8.88178e-14 -8.05028e-15 0)
(0 2.15954e-14 0)
(0 6.37905e-16 0)
(-4.44089e-14 -6.81861e-15 0)
(0 -5.88304e-15 0)
(4.44089e-14 1.32149e-14 0)
(0 1.02482e-15 0)
(0 1.73587e-15 0)
(4.44089e-14 1.61394e-14 0)
(0 1.55329e-14 0)
(8.88178e-14 8.27681e-15 0)
(2.22045e-14 7.35162e-15 0)
(-4.44089e-14 1.35823e-14 0)
(2.22045e-14 1.47897e-14 0)
(4.44089e-14 5.55464e-15 0)
(2.22045e-14 -1.18978e-14 0)
(-4.44089e-14 -1.48272e-14 0)
(4.44089e-14 5.97296e-15 0)
(2.22045e-14 2.31641e-14 0)
(-8.88178e-14 -1.28528e-13 0)
(0 1.78379e-14 0)
(0 1.37417e-14 0)
(4.44089e-14 1.62451e-14 0)
(4.44089e-14 4.24315e-15 0)
(-4.44089e-14 -3.60499e-16 0)
(0 9.94671e-15 0)
(-4.44089e-14 1.36955e-14 0)
(2.22045e-14 6.35856e-15 0)
(-4.44089e-14 8.28156e-15 0)
(0 3.2992e-15 0)
(-2.22045e-14 9.9748e-15 0)
(-2.22045e-14 2.34941e-14 0)
(0 1.89869e-14 0)
(0 -9.49972e-15 0)
(-4.44089e-14 2.44279e-15 0)
(4.44089e-14 -1.97381e-15 0)
(4.44089e-14 -1.58475e-15 0)
(-2.22045e-14 1.82142e-15 0)
(2.22045e-14 3.14476e-14 0)
(4.44089e-14 -2.2252e-14 0)
(-4.44089e-14 5.91046e-15 0)
(2.22045e-14 -7.13312e-15 0)
(-2.22045e-14 8.78231e-15 0)
(0 8.01124e-15 0)
(0 6.35663e-15 0)
(-2.22045e-14 1.04773e-14 0)
(2.22045e-14 2.41787e-14 0)
(-2.22045e-14 1.16463e-14 0)
(0 4.35202e-15 0)
(-6.66134e-14 1.28764e-14 0)
(-2.22045e-14 6.94429e-15 0)
(-4.44089e-14 6.75997e-15 0)
(2.22045e-14 7.83062e-17 0)
(0 -1.21981e-14 0)
(0 8.42376e-15 0)
(-6.66134e-14 3.13063e-15 0)
(-1.11022e-13 5.00327e-15 0)
(-2.22045e-14 6.80561e-16 0)
(-2.22045e-14 5.23343e-15 0)
(-4.44089e-14 6.28391e-14 0)
(4.44089e-14 1.09339e-14 0)
(-4.44089e-14 9.13596e-15 0)
(-4.44089e-14 1.12967e-14 0)
(0 3.777e-15 0)
(-4.44089e-14 -4.02195e-15 0)
(0 -4.08541e-15 0)
(0 4.89243e-15 0)
(0 6.78934e-15 0)
(0 1.61782e-14 0)
(0 1.27069e-14 0)
(0 1.08251e-14 0)
(4.44089e-14 1.27775e-14 0)
(0 1.23267e-14 0)
(0 -5.81862e-16 0)
(-4.44089e-14 -2.78539e-15 0)
(4.44089e-14 2.34343e-15 0)
(4.44089e-14 -1.22803e-14 0)
(2.22045e-14 -1.71404e-14 0)
(0 8.74303e-15 0)
(0 1.57541e-14 0)
(0 1.84373e-14 0)
(-2.22045e-14 7.03475e-15 0)
(0 -2.19757e-14 0)
(6.66134e-14 7.37241e-15 0)
(4.44089e-14 1.67728e-14 0)
(0 5.31883e-16 0)
(0 2.1181e-16 0)
(0 1.42639e-14 0)
(-2.22045e-14 1.47908e-14 0)
(0 8.57688e-15 0)
(-2.22045e-14 2.76643e-15 0)
(-4.44089e-14 3.19067e-15 0)
(4.44089e-14 2.4325e-14 0)
(8.88178e-14 2.16235e-14 0)
(4.44089e-14 -2.46519e-14 0)
(4.44089e-14 -1.96215e-14 0)
(0 -3.61581e-15 0)
(0 4.72634e-15 0)
(0 1.30124e-14 0)
(0 2.97716e-14 0)
(4.44089e-14 -3.97412e-15 0)
(0 -1.29574e-14 0)
(2.22045e-14 -8.22958e-15 0)
(-4.44089e-14 1.29967e-14 0)
(-4.44089e-14 1.84866e-14 0)
(0 2.15434e-14 0)
(0 9.8126e-15 0)
(0 7.64125e-15 0)
(0 3.67001e-15 0)
(4.44089e-14 1.62859e-14 0)
(0 7.06285e-16 0)
(-4.44089e-14 -1.39784e-14 0)
(-4.44089e-14 -8.21737e-15 0)
(4.44089e-14 1.15045e-14 0)
(0 3.86218e-15 0)
(-2.22045e-14 1.49959e-15 0)
(0 1.05507e-14 0)
(-2.22045e-14 5.31307e-15 0)
(2.22045e-14 9.62352e-15 0)
(0 -4.7923e-14 0)
(-4.44089e-14 -9.32804e-15 0)
(-4.44089e-14 -7.97043e-15 0)
(-4.44089e-14 1.32857e-14 0)
(0 7.45356e-15 0)
(0 2.31246e-15 0)
(0 1.6527e-14 0)
(0 9.08647e-15 0)
(4.44089e-14 1.26889e-14 0)
(-4.44089e-14 1.51988e-14 0)
(0 1.30777e-14 0)
(4.44089e-14 4.11019e-15 0)
(0 -9.73191e-15 0)
(0 -3.90371e-14 0)
(0 -1.19625e-14 0)
(0 1.7861e-14 0)
(4.44089e-14 1.35229e-14 0)
(4.44089e-14 6.67449e-15 0)
(0 9.38903e-15 0)
(0 9.24154e-15 0)
(4.44089e-14 8.17946e-14 0)
(6.66134e-14 -1.35138e-14 0)
(2.22045e-14 7.72404e-15 0)
(-2.22045e-14 2.08888e-15 0)
(2.22045e-14 1.52671e-14 0)
(2.22045e-14 1.79023e-14 0)
(0 1.0722e-15 0)
(2.22045e-14 -4.2953e-15 0)
(2.22045e-14 1.62719e-14 0)
(-2.22045e-14 1.05271e-14 0)
(0 -1.10601e-14 0)
(0 -3.16629e-15 0)
(4.44089e-14 3.32767e-15 0)
(2.22045e-14 -5.40192e-15 0)
(-2.22045e-14 -7.1189e-15 0)
(0 -2.47515e-15 0)
(0 1.32638e-14 0)
(-4.44089e-14 -1.73374e-15 0)
(-2.22045e-14 6.37123e-15 0)
(0 1.17146e-14 0)
(-4.44089e-14 -5.21911e-15 0)
(2.22045e-14 -2.61258e-15 0)
(4.44089e-14 -3.58244e-15 0)
(4.44089e-14 2.00653e-14 0)
(-4.44089e-14 1.75083e-14 0)
(0 1.67219e-14 0)
(4.44089e-14 8.21545e-15 0)
(0 -3.15006e-16 0)
(0 1.03342e-14 0)
(8.88178e-14 1.62702e-14 0)
(-2.22045e-14 -6.01629e-15 0)
(-2.22045e-14 -1.29291e-14 0)
(0 -2.33177e-15 0)
(2.22045e-14 9.56125e-15 0)
(0 -4.11543e-16 0)
(0 -3.94684e-15 0)
(0 5.99871e-15 0)
(4.44089e-14 -4.34384e-15 0)
(0 1.74341e-15 0)
(0 1.00196e-14 0)
(-4.44089e-14 -2.76366e-14 0)
(0 -2.48976e-14 0)
(-2.22045e-14 1.14061e-15 0)
(-8.88178e-14 2.17097e-14 0)
(-4.44089e-14 2.03487e-14 0)
(-6.66134e-14 1.1363e-14 0)
(-6.66134e-14 -3.58845e-16 0)
(0 -1.60291e-15 0)
(-4.44089e-14 -1.43984e-14 0)
(0 5.85011e-15 0)
(4.44089e-14 9.71785e-15 0)
(-4.44089e-14 -7.28225e-15 0)
(0 -1.34369e-14 0)
(4.44089e-14 -6.93503e-15 0)
(4.44089e-14 -9.94904e-16 0)
(0 8.19413e-15 0)
(0 -2.93735e-15 0)
(-2.22045e-14 2.23531e-15 0)
(-2.22045e-14 9.63959e-15 0)
(0 3.52728e-15 0)
(8.88178e-14 5.39935e-14 0)
(-2.22045e-14 -1.64896e-14 0)
(6.66134e-14 1.07922e-14 0)
(-2.22045e-14 8.31838e-15 0)
(4.44089e-14 1.3397e-14 0)
(4.44089e-14 5.72523e-15 0)
(0 -8.15194e-15 0)
(4.44089e-14 -4.01504e-15 0)
(0 -2.33202e-14 0)
(-2.22045e-14 -1.65431e-14 0)
(0 4.77511e-15 0)
(0 4.09643e-15 0)
(0 -6.46471e-15 0)
(0 -2.30898e-15 0)
(-2.22045e-14 2.65964e-16 0)
(0 4.62536e-15 0)
(0 4.89339e-15 0)
(-4.44089e-14 6.96137e-15 0)
(0 1.76912e-15 0)
(0 1.2502e-15 0)
)
;

boundaryField
{
    movingWall
    {
        type            calculated;
        value           uniform (0 0 0);
    }
    fixedWalls
    {
        type            calculated;
        value           uniform (0 0 0);
    }
    frontAndBack
    {
        type            empty;
    }
}


// ************************************************************************* //
