/*--------------------------------*- C++ -*----------------------------------*\
| =========                 |                                                 |
| \\      /  F ield         | OpenFOAM: The Open Source CFD Toolbox           |
|  \\    /   O peration     | Version:  2506                                  |
|   \\  /    A nd           | Website:  www.openfoam.com                      |
|    \\/     M anipulation  |                                                 |
\*---------------------------------------------------------------------------*/
FoamFile
{
    version     2.0;
    format      ascii;
    arch        "LSB;label=32;scalar=64";
    class       volVectorField;
    location    "7";
    object      diffU;
}
// * * * * * * * * * * * * * * * * * * * * * * * * * * * * * * * * * * * * * //

dimensions      [0 1 -1 0 0 0 0];

internalField   nonuniform List<vector> 
400
(
(0 0 0)
(1.67644e-14 -1.84863e-13 0)
(1.32117e-14 -1.44524e-13 0)
(1.31006e-14 -1.53765e-13 0)
(1.27676e-14 -1.51755e-13 0)
(1.25455e-14 -1.52239e-13 0)
(1.26565e-14 -1.52206e-13 0)
(1.25455e-14 -1.52311e-13 0)
(1.26565e-14 -1.52337e-13 0)
(1.26565e-14 -1.52331e-13 0)
(1.28786e-14 -1.52317e-13 0)
(1.25455e-14 -1.52256e-13 0)
(1.26565e-14 -1.52306e-13 0)
(1.25455e-14 -1.52265e-13 0)
(1.25455e-14 -1.52207e-13 0)
(1.25455e-14 -1.52188e-13 0)
(1.22125e-14 -1.52218e-13 0)
(1.22125e-14 -1.52287e-13 0)
(1.22125e-14 -1.52301e-13 0)
(1.23235e-14 -1.52253e-13 0)
(3.70814e-14 -1.48086e-13 0)
(4.88498e-15 -1.53066e-13 0)
(1.17684e-14 -1.51942e-13 0)
(1.15463e-14 -1.52163e-13 0)
(1.15463e-14 -1.52144e-13 0)
(1.17684e-14 -1.52184e-13 0)
(1.15463e-14 -1.52306e-13 0)
(1.13243e-14 -1.52417e-13 0)
(1.17684e-14 -1.52414e-13 0)
(1.13243e-14 -1.52391e-13 0)
(1.15463e-14 -1.52327e-13 0)
(1.15463e-14 -1.5219e-13 0)
(1.15463e-14 -1.52206e-13 0)
(1.15463e-14 -1.52269e-13 0)
(1.15463e-14 -1.52318e-13 0)
(1.19904e-14 -1.52214e-13 0)
(1.22125e-14 -1.5215e-13 0)
(1.17684e-14 -1.52276e-13 0)
(1.17684e-14 -1.52385e-13 0)
(1.19904e-14 -1.52335e-13 0)
(6.88338e-15 -2.87666e-13 0)
(1.44329e-14 -1.22568e-13 0)
(1.25455e-14 -1.59047e-13 0)
(1.22125e-14 -1.50624e-13 0)
(1.24345e-14 -1.52446e-13 0)
(1.19904e-14 -1.52018e-13 0)
(1.22125e-14 -1.5206e-13 0)
(1.17684e-14 -1.52029e-13 0)
(1.15463e-14 -1.52176e-13 0)
(1.13243e-14 -1.52332e-13 0)
(1.13243e-14 -1.52262e-13 0)
(1.15463e-14 -1.52349e-13 0)
(1.13243e-14 -1.52412e-13 0)
(1.22125e-14 -1.52437e-13 0)
(1.17684e-14 -1.52502e-13 0)
(1.17684e-14 -1.52502e-13 0)
(1.23235e-14 -1.52403e-13 0)
(1.24345e-14 -1.52359e-13 0)
(1.23235e-14 -1.52441e-13 0)
(1.23235e-14 -1.52434e-13 0)
(-9.76996e-15 -3.81147e-14 0)
(1.72085e-14 -1.76932e-13 0)
(1.08802e-14 -1.46543e-13 0)
(1.19904e-14 -1.53538e-13 0)
(1.17684e-14 -1.51864e-13 0)
(1.19904e-14 -1.52085e-13 0)
(1.17684e-14 -1.51936e-13 0)
(1.17684e-14 -1.52002e-13 0)
(1.25455e-14 -1.52105e-13 0)
(1.19904e-14 -1.52273e-13 0)
(1.23235e-14 -1.52414e-13 0)
(1.25455e-14 -1.52533e-13 0)
(1.25455e-14 -1.52536e-13 0)
(1.23235e-14 -1.52451e-13 0)
(1.24345e-14 -1.52424e-13 0)
(1.23235e-14 -1.52479e-13 0)
(1.24345e-14 -1.52491e-13 0)
(1.22125e-14 -1.52417e-13 0)
(1.23235e-14 -1.52376e-13 0)
(1.24345e-14 -1.52322e-13 0)
(4.17444e-14 -1.65721e-13 0)
(5.55112e-15 -1.49758e-13 0)
(1.35447e-14 -1.52875e-13 0)
(1.26565e-14 -1.51999e-13 0)
(1.25455e-14 -1.52058e-13 0)
(1.25455e-14 -1.51987e-13 0)
(1.27676e-14 -1.52049e-13 0)
(1.25455e-14 -1.52215e-13 0)
(1.23235e-14 -1.52199e-13 0)
(1.24345e-14 -1.52266e-13 0)
(1.24345e-14 -1.52508e-13 0)
(1.22125e-14 -1.52515e-13 0)
(1.19904e-14 -1.52368e-13 0)
(1.23235e-14 -1.52407e-13 0)
(1.22125e-14 -1.52505e-13 0)
(1.24345e-14 -1.52539e-13 0)
(1.24345e-14 -1.52473e-13 0)
(1.24345e-14 -1.52294e-13 0)
(1.24345e-14 -1.52223e-13 0)
(1.24345e-14 -1.52242e-13 0)
(-9.54792e-15 -2.59583e-13 0)
(1.74305e-14 -1.28567e-13 0)
(1.13243e-14 -1.57666e-13 0)
(1.22125e-14 -1.50947e-13 0)
(1.19904e-14 -1.52435e-13 0)
(1.22125e-14 -1.52094e-13 0)
(1.25455e-14 -1.52142e-13 0)
(1.25455e-14 -1.52176e-13 0)
(1.26565e-14 -1.5224e-13 0)
(1.25455e-14 -1.5227e-13 0)
(1.28786e-14 -1.52345e-13 0)
(1.25455e-14 -1.52389e-13 0)
(1.24345e-14 -1.524e-13 0)
(1.25455e-14 -1.52479e-13 0)
(1.25455e-14 -1.52558e-13 0)
(1.24345e-14 -1.5255e-13 0)
(1.19904e-14 -1.52468e-13 0)
(1.19904e-14 -1.52273e-13 0)
(1.22125e-14 -1.52159e-13 0)
(1.22125e-14 -1.52215e-13 0)
(1.58762e-14 3.76222e-15 0)
(1.25455e-14 -1.85657e-13 0)
(1.33227e-14 -1.44367e-13 0)
(1.28786e-14 -1.54081e-13 0)
(1.29896e-14 -1.52004e-13 0)
(1.26565e-14 -1.52403e-13 0)
(1.27676e-14 -1.52236e-13 0)
(1.28786e-14 -1.52161e-13 0)
(1.28786e-14 -1.52091e-13 0)
(1.26565e-14 -1.5206e-13 0)
(1.23235e-14 -1.52236e-13 0)
(1.24345e-14 -1.523e-13 0)
(1.23235e-14 -1.52391e-13 0)
(1.26565e-14 -1.52451e-13 0)
(1.22125e-14 -1.5241e-13 0)
(1.19904e-14 -1.52329e-13 0)
(1.22125e-14 -1.52309e-13 0)
(1.19904e-14 -1.52337e-13 0)
(1.19904e-14 -1.52282e-13 0)
(1.23235e-14 -1.52253e-13 0)
(1.93179e-14 -2.15358e-13 0)
(8.43769e-15 -1.38798e-13 0)
(1.08802e-14 -1.55471e-13 0)
(1.19904e-14 -1.51604e-13 0)
(1.19904e-14 -1.52362e-13 0)
(1.17684e-14 -1.52142e-13 0)
(1.17684e-14 -1.52203e-13 0)
(1.17684e-14 -1.52194e-13 0)
(1.15463e-14 -1.52186e-13 0)
(1.23235e-14 -1.52235e-13 0)
(1.25455e-14 -1.52326e-13 0)
(1.24345e-14 -1.5235e-13 0)
(1.24345e-14 -1.524e-13 0)
(1.24345e-14 -1.5239e-13 0)
(1.25455e-14 -1.52323e-13 0)
(1.22125e-14 -1.523e-13 0)
(1.24345e-14 -1.52244e-13 0)
(1.19904e-14 -1.52244e-13 0)
(1.22125e-14 -1.52324e-13 0)
(1.22125e-14 -1.52301e-13 0)
(5.77316e-15 -2.20018e-13 0)
(1.57652e-14 -1.37811e-13 0)
(1.32117e-14 -1.55701e-13 0)
(1.23235e-14 -1.51647e-13 0)
(1.23235e-14 -1.5251e-13 0)
(1.23235e-14 -1.52305e-13 0)
(1.26565e-14 -1.52287e-13 0)
(1.24345e-14 -1.52279e-13 0)
(1.23235e-14 -1.52333e-13 0)
(1.26565e-14 -1.52413e-13 0)
(1.25455e-14 -1.52217e-13 0)
(1.25455e-14 -1.52179e-13 0)
(1.22125e-14 -1.52313e-13 0)
(1.19904e-14 -1.52345e-13 0)
(1.19904e-14 -1.52226e-13 0)
(1.17684e-14 -1.52271e-13 0)
(1.15463e-14 -1.5234e-13 0)
(1.22125e-14 -1.52335e-13 0)
(1.22125e-14 -1.52242e-13 0)
(1.22125e-14 -1.52258e-13 0)
(1.11022e-14 -1.63313e-14 0)
(1.13243e-14 -1.81461e-13 0)
(1.15463e-14 -1.45358e-13 0)
(1.17684e-14 -1.5364e-13 0)
(1.17684e-14 -1.51942e-13 0)
(1.17684e-14 -1.52407e-13 0)
(1.19904e-14 -1.52221e-13 0)
(1.19904e-14 -1.52187e-13 0)
(1.19904e-14 -1.52219e-13 0)
(1.22125e-14 -1.52245e-13 0)
(1.17684e-14 -1.52197e-13 0)
(1.22125e-14 -1.5223e-13 0)
(1.23235e-14 -1.52252e-13 0)
(1.19904e-14 -1.52259e-13 0)
(1.23235e-14 -1.52227e-13 0)
(1.24345e-14 -1.52215e-13 0)
(1.24345e-14 -1.52247e-13 0)
(1.22125e-14 -1.52379e-13 0)
(1.19904e-14 -1.52343e-13 0)
(1.24345e-14 -1.52264e-13 0)
(5.77316e-15 -2.86091e-13 0)
(1.22125e-14 -1.23749e-13 0)
(1.08802e-14 -1.59002e-13 0)
(1.19904e-14 -1.50817e-13 0)
(1.19904e-14 -1.52719e-13 0)
(1.17684e-14 -1.5238e-13 0)
(1.19904e-14 -1.52443e-13 0)
(1.17684e-14 -1.52338e-13 0)
(1.23235e-14 -1.52406e-13 0)
(1.19904e-14 -1.52403e-13 0)
(1.23235e-14 -1.52406e-13 0)
(1.23235e-14 -1.52376e-13 0)
(1.22125e-14 -1.52324e-13 0)
(1.22125e-14 -1.52243e-13 0)
(1.23235e-14 -1.52342e-13 0)
(1.19904e-14 -1.52293e-13 0)
(1.19904e-14 -1.52265e-13 0)
(1.24345e-14 -1.52288e-13 0)
(1.22125e-14 -1.52391e-13 0)
(1.23235e-14 -1.523e-13 0)
(2.39808e-14 -6.97928e-14 0)
(1.17684e-14 -1.70791e-13 0)
(1.45439e-14 -1.48071e-13 0)
(1.25455e-14 -1.5339e-13 0)
(1.32117e-14 -1.52188e-13 0)
(1.28786e-14 -1.5243e-13 0)
(1.27676e-14 -1.52351e-13 0)
(1.27676e-14 -1.52312e-13 0)
(1.28786e-14 -1.52331e-13 0)
(1.28786e-14 -1.52343e-13 0)
(1.23235e-14 -1.52339e-13 0)
(1.24345e-14 -1.52276e-13 0)
(1.25455e-14 -1.52262e-13 0)
(1.25455e-14 -1.52224e-13 0)
(1.24345e-14 -1.52268e-13 0)
(1.25455e-14 -1.52162e-13 0)
(1.23235e-14 -1.52217e-13 0)
(1.19904e-14 -1.52251e-13 0)
(1.22125e-14 -1.52339e-13 0)
(1.22125e-14 -1.52307e-13 0)
(1.02141e-14 -1.53997e-13 0)
(1.06581e-14 -1.51426e-13 0)
(1.08802e-14 -1.52462e-13 0)
(1.19904e-14 -1.52186e-13 0)
(1.17684e-14 -1.52261e-13 0)
(1.15463e-14 -1.523e-13 0)
(1.17684e-14 -1.52404e-13 0)
(1.17684e-14 -1.52438e-13 0)
(1.17684e-14 -1.52352e-13 0)
(1.19904e-14 -1.52235e-13 0)
(1.19904e-14 -1.52252e-13 0)
(1.17684e-14 -1.52297e-13 0)
(1.19904e-14 -1.52295e-13 0)
(1.17684e-14 -1.5224e-13 0)
(1.15463e-14 -1.5221e-13 0)
(1.15463e-14 -1.52209e-13 0)
(1.17684e-14 -1.52269e-13 0)
(1.22125e-14 -1.52371e-13 0)
(1.23235e-14 -1.52361e-13 0)
(1.22125e-14 -1.52308e-13 0)
(1.13243e-14 -2.36475e-13 0)
(1.35447e-14 -1.33472e-13 0)
(1.26565e-14 -1.56612e-13 0)
(1.17684e-14 -1.51387e-13 0)
(1.25455e-14 -1.52618e-13 0)
(1.25455e-14 -1.52361e-13 0)
(1.26565e-14 -1.525e-13 0)
(1.26565e-14 -1.52408e-13 0)
(1.24345e-14 -1.52284e-13 0)
(1.23235e-14 -1.52181e-13 0)
(1.22125e-14 -1.52138e-13 0)
(1.22125e-14 -1.52287e-13 0)
(1.19904e-14 -1.5236e-13 0)
(1.22125e-14 -1.52259e-13 0)
(1.24345e-14 -1.52145e-13 0)
(1.24345e-14 -1.52371e-13 0)
(1.25455e-14 -1.52496e-13 0)
(1.22125e-14 -1.52438e-13 0)
(1.22125e-14 -1.52343e-13 0)
(1.22125e-14 -1.52319e-13 0)
(-1.77636e-15 -1.11531e-14 0)
(1.44329e-14 -1.83378e-13 0)
(1.06581e-14 -1.45278e-13 0)
(1.23235e-14 -1.54132e-13 0)
(1.17684e-14 -1.52036e-13 0)
(1.19904e-14 -1.52493e-13 0)
(1.17684e-14 -1.52354e-13 0)
(1.17684e-14 -1.52312e-13 0)
(1.17684e-14 -1.52282e-13 0)
(1.19904e-14 -1.52251e-13 0)
(1.22125e-14 -1.52128e-13 0)
(1.22125e-14 -1.52147e-13 0)
(1.19904e-14 -1.52217e-13 0)
(1.15463e-14 -1.52285e-13 0)
(1.19904e-14 -1.52288e-13 0)
(1.23235e-14 -1.5233e-13 0)
(1.22125e-14 -1.52325e-13 0)
(1.23235e-14 -1.52264e-13 0)
(1.22125e-14 -1.52318e-13 0)
(1.24345e-14 -1.52295e-13 0)
(3.70814e-14 -2.49813e-13 0)
(5.55112e-15 -1.31655e-13 0)
(1.27676e-14 -1.57501e-13 0)
(1.13243e-14 -1.51444e-13 0)
(1.19904e-14 -1.52633e-13 0)
(1.19904e-14 -1.52385e-13 0)
(1.19904e-14 -1.52406e-13 0)
(1.17684e-14 -1.52451e-13 0)
(1.19904e-14 -1.52411e-13 0)
(1.15463e-14 -1.52265e-13 0)
(1.15463e-14 -1.52158e-13 0)
(1.19904e-14 -1.5205e-13 0)
(1.17684e-14 -1.52085e-13 0)
(1.17684e-14 -1.52383e-13 0)
(1.15463e-14 -1.52614e-13 0)
(1.17684e-14 -1.52566e-13 0)
(1.19904e-14 -1.52464e-13 0)
(1.19904e-14 -1.52415e-13 0)
(1.22125e-14 -1.52346e-13 0)
(1.22125e-14 -1.52293e-13 0)
(-1.06581e-14 -1.7506e-13 0)
(1.93179e-14 -1.46943e-13 0)
(1.24345e-14 -1.5362e-13 0)
(1.24345e-14 -1.52196e-13 0)
(1.25455e-14 -1.52511e-13 0)
(1.25455e-14 -1.52228e-13 0)
(1.25455e-14 -1.52204e-13 0)
(1.24345e-14 -1.52319e-13 0)
(1.26565e-14 -1.52267e-13 0)
(1.25455e-14 -1.52191e-13 0)
(1.23235e-14 -1.52325e-13 0)
(1.24345e-14 -1.52318e-13 0)
(1.28786e-14 -1.52189e-13 0)
(1.28786e-14 -1.5222e-13 0)
(1.26565e-14 -1.5239e-13 0)
(1.27676e-14 -1.52526e-13 0)
(1.25455e-14 -1.52483e-13 0)
(1.23235e-14 -1.5246e-13 0)
(1.22125e-14 -1.52377e-13 0)
(1.23235e-14 -1.52305e-13 0)
(4.44089e-15 -3.41452e-14 0)
(1.28786e-14 -1.78047e-13 0)
(1.11022e-14 -1.46201e-13 0)
(1.22125e-14 -1.53749e-13 0)
(1.17684e-14 -1.52098e-13 0)
(1.17684e-14 -1.52349e-13 0)
(1.17684e-14 -1.52317e-13 0)
(1.17684e-14 -1.52458e-13 0)
(1.17684e-14 -1.52424e-13 0)
(1.22125e-14 -1.52327e-13 0)
(1.24345e-14 -1.52282e-13 0)
(1.22125e-14 -1.52303e-13 0)
(1.22125e-14 -1.52257e-13 0)
(1.23235e-14 -1.52175e-13 0)
(1.23235e-14 -1.52211e-13 0)
(1.22125e-14 -1.52378e-13 0)
(1.19904e-14 -1.52385e-13 0)
(1.22125e-14 -1.52317e-13 0)
(1.22125e-14 -1.52296e-13 0)
(1.22125e-14 -1.52301e-13 0)
(4.67404e-14 -2.01474e-13 0)
(3.77476e-15 -1.42094e-13 0)
(1.34337e-14 -1.54948e-13 0)
(1.15463e-14 -1.51891e-13 0)
(1.17684e-14 -1.52445e-13 0)
(1.19904e-14 -1.52247e-13 0)
(1.19904e-14 -1.52359e-13 0)
(1.22125e-14 -1.52449e-13 0)
(1.19904e-14 -1.5253e-13 0)
(1.17684e-14 -1.52471e-13 0)
(1.17684e-14 -1.52291e-13 0)
(1.17684e-14 -1.5224e-13 0)
(1.17684e-14 -1.52328e-13 0)
(1.22125e-14 -1.52379e-13 0)
(1.22125e-14 -1.52399e-13 0)
(1.23235e-14 -1.52398e-13 0)
(1.22125e-14 -1.52461e-13 0)
(1.22125e-14 -1.52364e-13 0)
(1.22125e-14 -1.52309e-13 0)
(1.22125e-14 -1.52313e-13 0)
(-3.10862e-15 -2.30662e-13 0)
(1.69864e-14 -1.35261e-13 0)
(1.27676e-14 -1.56495e-13 0)
(1.31006e-14 -1.51467e-13 0)
(1.28786e-14 -1.52462e-13 0)
(1.28786e-14 -1.52159e-13 0)
(1.26565e-14 -1.52219e-13 0)
(1.29896e-14 -1.52243e-13 0)
(1.27676e-14 -1.52356e-13 0)
(1.26565e-14 -1.52421e-13 0)
(1.26565e-14 -1.52413e-13 0)
(1.26565e-14 -1.5237e-13 0)
(1.26565e-14 -1.52385e-13 0)
(1.25455e-14 -1.5238e-13 0)
(1.24345e-14 -1.52388e-13 0)
(1.23235e-14 -1.52349e-13 0)
(1.23235e-14 -1.52383e-13 0)
(1.19904e-14 -1.52348e-13 0)
(1.22125e-14 -1.52337e-13 0)
(1.22125e-14 -1.52304e-13 0)
)
;

boundaryField
{
    movingWall
    {
        type            calculated;
        value           uniform (1.22125e-14 -1.52311e-13 0);
    }
    fixedWalls
    {
        type            calculated;
        value           uniform (1.22125e-14 -1.52311e-13 0);
    }
    frontAndBack
    {
        type            empty;
    }
}


// ************************************************************************* //
