/*--------------------------------*- C++ -*----------------------------------*\
| =========                 |                                                 |
| \\      /  F ield         | OpenFOAM: The Open Source CFD Toolbox           |
|  \\    /   O peration     | Version:  2506                                  |
|   \\  /    A nd           | Website:  www.openfoam.com                      |
|    \\/     M anipulation  |                                                 |
\*---------------------------------------------------------------------------*/
FoamFile
{
    version     2.0;
    format      ascii;
    arch        "LSB;label=32;scalar=64";
    class       volScalarField;
    location    "7";
    object      divPhi;
}
// * * * * * * * * * * * * * * * * * * * * * * * * * * * * * * * * * * * * * //

dimensions      [0 0 -1 0 0 0 0];

internalField   nonuniform List<scalar> 
400
(
8.13152e-14
-2.46854e-14
2.21224e-14
3.67476e-15
-1.37499e-14
-1.05381e-14
4.27204e-15
8.45322e-15
-9.12798e-15
-2.29669e-15
1.90773e-14
-2.54233e-15
-1.82976e-14
2.37774e-17
1.14365e-14
-7.11173e-15
2.00751e-14
-2.31102e-14
1.95447e-14
0
0
-1.92619e-14
-1.7185e-15
7.77243e-15
6.47067e-15
1.76299e-14
-2.41206e-14
1.09513e-14
1.86087e-14
-1.82268e-14
-3.21137e-16
4.44907e-15
-1.10599e-14
8.15087e-15
2.50996e-14
-1.05153e-14
-7.00201e-15
-2.28745e-14
3.22629e-15
0
2.71051e-14
-1.74021e-14
-9.09417e-15
-4.76341e-15
1.26391e-14
-3.9237e-15
1.02677e-14
1.9484e-15
-6.09608e-15
-5.17218e-15
5.74883e-15
8.90133e-15
-1.76223e-14
1.34281e-14
-2.34012e-14
1.53785e-14
-1.30132e-14
1.16434e-14
-8.67718e-15
-2.71051e-14
-2.71051e-14
3.809e-14
-3.41723e-14
-1.58248e-14
2.27958e-14
4.51383e-15
8.74151e-15
-4.09407e-15
-3.21578e-15
-8.74467e-15
-1.47868e-14
2.44977e-15
2.34576e-14
1.01455e-14
2.46191e-14
-4.86881e-15
-2.41326e-14
1.54189e-14
-1.2934e-14
0
0
-3.1631e-15
-2.25179e-15
9.24774e-15
8.93233e-15
-2.92632e-14
2.06335e-14
4.68933e-15
-2.40323e-14
-1.12827e-14
2.15426e-14
-5.71989e-15
9.21208e-15
-3.95769e-15
8.5615e-15
-1.11713e-15
-1.50976e-14
9.10523e-15
-1.87247e-14
2.71051e-14
0
-1.30848e-14
3.65286e-14
-1.88468e-14
5.1031e-15
1.25006e-14
-3.05103e-14
2.95601e-14
-1.23438e-14
-1.82027e-14
1.22034e-14
-2.40983e-14
1.89474e-14
6.29245e-16
1.46209e-14
-1.90878e-14
1.20513e-14
2.02475e-14
-1.08203e-14
0
2.71051e-14
-1.58794e-14
-5.58305e-15
2.09153e-14
-4.9357e-15
6.03845e-15
-1.79707e-14
1.71276e-14
-1.57001e-14
8.3743e-16
1.75734e-14
2.064e-14
-1.58088e-14
-1.86522e-14
-2.10829e-15
1.81488e-14
1.09763e-14
4.5563e-15
-2.68502e-14
0
-2.71051e-14
4.07109e-14
-3.57652e-14
-9.66836e-15
9.25156e-15
-3.73406e-15
2.0834e-14
1.94512e-14
8.52213e-15
-1.34083e-14
2.28435e-15
4.16999e-15
8.46472e-15
5.40154e-15
-4.71249e-15
-1.45046e-14
-1.90405e-14
2.36201e-14
3.75978e-15
0
0
-2.56581e-14
-3.40276e-15
-1.04926e-15
1.11434e-14
-1.68622e-14
-1.78339e-14
-1.09235e-14
1.2706e-14
1.54672e-14
-6.33988e-15
6.46952e-15
1.33567e-14
-2.27805e-14
4.93436e-15
4.61663e-14
-7.02321e-15
-1.35335e-14
1.10965e-14
2.71051e-14
0
2.51939e-14
-2.11426e-14
-1.42536e-15
-2.10724e-15
4.10461e-14
-2.4224e-15
7.04297e-15
2.20226e-14
-4.05795e-14
-1.67673e-14
1.89826e-14
6.41623e-15
-8.42073e-15
2.4814e-14
-3.87474e-15
-4.00662e-15
-8.79018e-15
-2.00327e-14
0
0
-7.58227e-15
5.46942e-15
8.14688e-15
-1.12606e-14
-2.09408e-14
-2.3516e-14
2.86317e-14
-3.45158e-14
-2.34987e-15
2.93056e-15
-2.17092e-14
9.9332e-16
-1.19118e-14
7.34287e-15
-3.33444e-16
-8.21928e-16
-9.84685e-16
-3.08475e-15
0
0
7.62065e-15
1.95979e-14
-3.4292e-15
-1.68203e-14
-8.14883e-15
-5.23123e-15
-8.12754e-15
2.36846e-14
-7.03815e-15
5.33573e-15
-7.40392e-15
1.72298e-15
-1.91797e-14
-5.85447e-15
-2.38632e-15
9.54124e-15
-8.72206e-15
-1.62132e-14
0
0
1.3919e-14
-3.17881e-14
1.29947e-14
3.20926e-14
-4.31402e-15
-2.62985e-14
-3.93775e-15
-1.13934e-14
-1.41936e-14
2.45111e-14
1.04201e-14
1.90112e-15
-6.10525e-15
1.57816e-14
2.38212e-15
-3.82204e-15
-2.03745e-14
2.01009e-14
0
0
-2.35887e-15
-1.22926e-14
1.89106e-14
2.82661e-15
-2.33891e-14
1.47012e-14
-1.16311e-14
1.73934e-14
-1.72002e-15
-5.38958e-15
-5.03689e-15
2.29748e-14
-3.28963e-15
-5.24807e-15
-4.00342e-15
9.40859e-15
-2.05572e-14
2.90757e-14
0
2.71051e-14
-1.41101e-14
-1.31894e-14
-1.18379e-14
-1.56017e-14
5.87355e-15
-3.88724e-15
-1.00833e-14
-1.93914e-14
2.45093e-14
-6.09827e-15
-1.34869e-14
-1.71729e-14
2.9253e-14
-8.62569e-15
-4.18194e-15
-1.62752e-14
2.57547e-14
-6.62812e-15
0
0
-3.66487e-15
7.30527e-16
-1.98953e-14
1.17692e-15
2.18924e-14
1.68556e-15
-1.53994e-14
1.08909e-15
-3.51872e-15
1.13539e-14
-2.80592e-14
2.0558e-14
3.14868e-15
-1.2235e-14
6.30651e-15
-8.39349e-15
-8.30392e-15
-8.31484e-15
-2.71051e-14
2.71051e-14
-5.54305e-15
-1.7927e-14
1.08846e-14
1.47748e-14
1.59936e-16
5.63678e-15
1.2058e-14
2.30471e-14
-3.17387e-14
9.83138e-15
-3.8847e-15
5.27618e-15
2.03788e-14
-2.28981e-14
-2.44969e-15
1.0326e-14
-8.15569e-15
-1.24466e-14
0
-2.71051e-14
-1.75935e-14
1.26651e-14
1.34216e-14
-7.13008e-15
1.60777e-14
5.71936e-15
-4.36638e-15
1.47843e-14
-7.2981e-15
-2.17147e-15
-1.87013e-14
3.08984e-14
-1.74388e-14
-1.59977e-14
1.68664e-14
-1.79187e-15
-1.29577e-14
5.79574e-15
0
2.71051e-14
1.55917e-17
-5.20496e-15
1.67417e-14
-9.50006e-15
-1.4253e-14
-5.54877e-16
-1.14484e-15
8.8404e-16
-2.40846e-14
-5.55593e-15
3.34154e-15
2.07466e-14
1.69864e-14
1.44555e-15
-1.57085e-14
3.54876e-15
-3.49727e-15
3.4363e-18
0
-2.71051e-14
2.71051e-14
-2.71051e-14
0
0
0
-2.71051e-14
0
0
2.71051e-14
0
0
0
-2.71051e-14
0
2.71051e-14
0
0
0
0
)
;

boundaryField
{
    movingWall
    {
        type            extrapolatedCalculated;
        value           nonuniform List<scalar> 
20
(
-2.71051e-14
2.71051e-14
-2.71051e-14
0
0
0
-2.71051e-14
0
0
2.71051e-14
0
0
0
-2.71051e-14
0
2.71051e-14
0
0
0
0
)
;
    }
    fixedWalls
    {
        type            extrapolatedCalculated;
        value           nonuniform List<scalar> 
60
(
8.13152e-14
0
2.71051e-14
-2.71051e-14
0
0
2.71051e-14
-2.71051e-14
0
0
0
0
0
0
2.71051e-14
0
2.71051e-14
-2.71051e-14
2.71051e-14
-2.71051e-14
0
0
-2.71051e-14
0
2.71051e-14
0
0
0
2.71051e-14
0
0
0
0
0
0
-2.71051e-14
0
0
0
0
8.13152e-14
-2.46854e-14
2.21224e-14
3.67476e-15
-1.37499e-14
-1.05381e-14
4.27204e-15
8.45322e-15
-9.12798e-15
-2.29669e-15
1.90773e-14
-2.54233e-15
-1.82976e-14
2.37774e-17
1.14365e-14
-7.11173e-15
2.00751e-14
-2.31102e-14
1.95447e-14
0
)
;
    }
    frontAndBack
    {
        type            empty;
    }
}


// ************************************************************************* //
