/*--------------------------------*- C++ -*----------------------------------*\
| =========                 |                                                 |
| \\      /  F ield         | OpenFOAM: The Open Source CFD Toolbox           |
|  \\    /   O peration     | Version:  2506                                  |
|   \\  /    A nd           | Website:  www.openfoam.com                      |
|    \\/     M anipulation  |                                                 |
\*---------------------------------------------------------------------------*/
FoamFile
{
    version     2.0;
    format      ascii;
    arch        "LSB;label=32;scalar=64";
    class       volScalarField;
    location    "7";
    object      divU;
}
// * * * * * * * * * * * * * * * * * * * * * * * * * * * * * * * * * * * * * //

dimensions      [0 0 -1 0 0 0 0];

internalField   nonuniform List<scalar> 
400
(
1.49078e-11
-2.02966e-12
4.63222e-13
-1.57711e-13
-9.03193e-15
1.99048e-14
-1.6078e-14
-1.05733e-14
1.42082e-14
1.70693e-14
-2.25697e-15
-9.57612e-15
-1.61991e-14
8.845e-15
9.62962e-15
2.20134e-14
-2.88417e-14
5.94378e-15
2.06521e-14
-2.71051e-14
-2.69966e-11
3.68484e-12
-7.99355e-13
3.19008e-13
-2.39218e-14
1.4857e-14
-2.86372e-14
1.76085e-14
3.15435e-15
-1.0122e-14
3.22381e-15
-1.88821e-14
3.59502e-16
-8.4065e-15
3.438e-14
-9.46253e-15
-2.02241e-14
-2.83913e-14
6.6511e-15
2.71051e-14
1.07065e-11
-1.81888e-12
3.09795e-13
-1.70813e-13
4.06066e-15
-2.33772e-15
-1.87366e-14
4.88805e-15
-7.43861e-14
1.72208e-15
-5.42763e-15
2.81925e-14
2.15803e-14
5.15282e-16
-3.03897e-14
-8.86162e-15
8.12193e-14
-4.25407e-14
7.57019e-15
0
1.04897e-11
-6.61824e-13
5.96613e-14
-1.01803e-14
4.28162e-14
7.95278e-16
-1.76372e-14
6.76497e-14
3.17156e-14
-1.88477e-14
2.42234e-14
-1.55392e-14
-1.20239e-15
-2.35503e-14
2.35244e-14
-3.96265e-14
-7.04136e-15
1.81501e-14
5.65066e-14
-5.42101e-14
-1.98951e-11
2.00627e-12
-3.75073e-13
1.40496e-13
-9.56447e-14
2.69581e-14
-1.12158e-14
-3.10715e-14
-8.90157e-15
8.52143e-15
-2.31161e-14
-1.15081e-15
1.24261e-14
6.61455e-16
1.01376e-14
7.52175e-15
-4.77886e-15
5.42665e-15
2.40435e-14
-2.71051e-14
1.52873e-11
-1.50231e-12
3.40138e-13
-1.21955e-13
1.81824e-14
1.24099e-14
-2.98565e-14
1.3913e-15
2.90777e-14
2.9137e-14
5.82383e-14
-3.38638e-14
1.02107e-14
-3.72584e-15
1.96287e-14
-2.57278e-14
-4.26522e-14
5.53758e-14
-8.96306e-15
0
4.8247e-12
-1.3057e-12
2.61527e-13
-1.33429e-13
-1.5874e-15
-4.65864e-14
4.54164e-14
-4.54999e-16
-1.9716e-14
-4.86866e-14
6.00266e-15
-2.84308e-15
1.02177e-14
5.19902e-15
-3.81642e-14
2.6377e-14
-2.02539e-14
4.12248e-15
2.87344e-14
-2.71051e-14
-2.20364e-11
3.91258e-12
-7.90545e-13
3.8103e-13
-7.92601e-14
1.749e-14
-1.39355e-14
-1.22275e-14
1.02245e-14
7.86855e-14
7.90331e-15
9.27006e-15
1.79404e-14
1.57813e-14
7.28891e-15
-2.20188e-14
-2.33569e-14
4.30524e-15
5.56427e-15
0
1.9597e-11
-3.49783e-12
6.54389e-13
-2.83441e-13
4.4035e-14
-8.99861e-15
1.13571e-14
-1.15547e-14
6.98087e-15
2.34903e-14
-6.37497e-15
-5.89399e-15
-2.14964e-14
-5.23754e-14
-1.0292e-14
1.35446e-14
3.41614e-15
7.20562e-14
3.66706e-15
0
-6.80337e-12
1.45907e-12
-3.26247e-13
1.24839e-13
-3.1091e-14
-1.65701e-14
2.28384e-14
-1.74616e-14
5.39068e-14
-5.69004e-14
-2.52134e-14
2.86749e-14
4.58462e-15
1.20415e-14
3.23836e-14
1.13723e-14
-1.61705e-14
-8.59151e-14
4.29968e-14
0
-5.96311e-12
1.55027e-12
-3.2652e-13
1.49829e-13
-2.85724e-14
-1.88163e-14
9.8137e-15
-2.7735e-15
4.26505e-14
-1.24846e-14
1.48506e-14
-3.01182e-14
3.61202e-15
1.55028e-14
1.17306e-15
-3.75786e-14
6.82193e-14
3.5306e-14
-3.79431e-14
0
1.43386e-11
-3.71109e-12
7.3405e-13
-2.85253e-13
7.14566e-14
-3.79182e-14
1.37388e-14
1.42745e-14
-6.16751e-15
-4.98625e-14
-5.11032e-14
3.19316e-14
6.45094e-15
-1.1344e-14
1.42903e-14
-2.0489e-15
-6.76852e-14
-4.01183e-17
-7.81434e-15
0
-1.7022e-11
3.81546e-12
-7.70499e-13
3.21661e-13
-1.07032e-13
5.0219e-14
-2.82813e-14
-2.25042e-14
-1.44143e-15
4.76851e-14
-3.92726e-15
3.73525e-15
-3.31125e-15
-1.4854e-14
-5.47133e-14
3.12872e-14
-1.43523e-14
6.26259e-14
-3.53775e-14
0
1.43386e-11
-3.06602e-12
5.17147e-13
-1.98136e-13
7.80846e-14
-2.32947e-14
3.09255e-14
-9.90175e-15
-2.14966e-14
-8.11847e-15
-1.8605e-14
1.87164e-14
4.53145e-15
3.48875e-14
1.88558e-14
-7.94126e-15
7.14697e-15
-3.5065e-14
-4.01916e-15
0
-2.52077e-12
1.42545e-12
-2.76559e-13
6.72445e-14
-3.18591e-14
2.85256e-14
-1.3884e-14
-1.42079e-14
-7.05642e-15
1.05848e-14
6.06727e-14
1.53733e-14
-4.93117e-14
-4.57342e-15
2.62159e-14
-3.25784e-16
-1.67238e-14
-5.71188e-15
2.28704e-14
-2.71051e-14
-1.45825e-11
1.19294e-12
-2.70532e-13
1.25287e-13
2.90573e-14
2.79838e-14
1.17724e-15
3.93836e-14
-3.26834e-14
-3.76363e-14
4.09351e-14
-1.68478e-15
-1.94538e-14
1.95196e-15
-1.1119e-14
7.12718e-15
-5.46434e-15
2.88591e-14
-1.01356e-14
0
1.99764e-11
-2.30788e-12
4.52924e-13
-2.40773e-13
5.5427e-14
4.52486e-15
1.00961e-14
1.16112e-14
-6.95017e-15
-1.67661e-14
-2.5648e-14
6.80324e-17
4.46652e-14
-4.35737e-15
2.01329e-15
2.59152e-14
-2.46439e-14
-4.26595e-14
2.19635e-14
-2.71051e-14
-3.33392e-12
1.1315e-12
-2.21909e-13
1.15041e-13
-1.92505e-14
2.57689e-15
-5.48595e-15
-1.39301e-15
-6.1963e-15
6.36326e-14
4.88243e-15
-1.92783e-14
3.72863e-15
-2.02874e-14
1.13906e-15
-1.54391e-14
-4.95559e-14
7.53801e-14
1.70603e-15
0
-1.7022e-11
9.37748e-13
-2.75518e-13
9.93384e-14
-1.41993e-15
2.16004e-14
5.85185e-14
-3.40687e-14
-2.64728e-14
8.76021e-17
-8.22358e-15
1.12575e-15
1.80147e-14
4.05084e-14
1.06096e-14
-1.24881e-14
4.80424e-15
-8.97716e-15
-2.4105e-15
0
1.16823e-11
-1.13841e-12
2.71051e-13
-1.0842e-13
0
-5.42101e-14
2.71051e-14
0
-2.71051e-14
2.71051e-14
0
0
-2.71051e-14
2.71051e-14
2.71051e-14
-2.71051e-14
0
0
0
0
)
;

boundaryField
{
    movingWall
    {
        type            extrapolatedCalculated;
        value           nonuniform List<scalar> 
20
(
1.16823e-11
-1.13841e-12
2.71051e-13
-1.0842e-13
0
-5.42101e-14
2.71051e-14
0
-2.71051e-14
2.71051e-14
0
0
-2.71051e-14
2.71051e-14
2.71051e-14
-2.71051e-14
0
0
0
0
)
;
    }
    fixedWalls
    {
        type            extrapolatedCalculated;
        value           nonuniform List<scalar> 
60
(
1.49078e-11
-2.69966e-11
1.07065e-11
1.04897e-11
-1.98951e-11
1.52873e-11
4.8247e-12
-2.20364e-11
1.9597e-11
-6.80337e-12
-5.96311e-12
1.43386e-11
-1.7022e-11
1.43386e-11
-2.52077e-12
-1.45825e-11
1.99764e-11
-3.33392e-12
-1.7022e-11
1.16823e-11
-2.71051e-14
2.71051e-14
0
-5.42101e-14
-2.71051e-14
0
-2.71051e-14
0
0
0
0
0
0
0
-2.71051e-14
0
-2.71051e-14
0
0
0
1.49078e-11
-2.02966e-12
4.63222e-13
-1.57711e-13
-9.03193e-15
1.99048e-14
-1.6078e-14
-1.05733e-14
1.42082e-14
1.70693e-14
-2.25697e-15
-9.57612e-15
-1.61991e-14
8.845e-15
9.62962e-15
2.20134e-14
-2.88417e-14
5.94378e-15
2.06521e-14
-2.71051e-14
)
;
    }
    frontAndBack
    {
        type            empty;
    }
}


// ************************************************************************* //
