/*--------------------------------*- C++ -*----------------------------------*\
| =========                 |                                                 |
| \\      /  F ield         | OpenFOAM: The Open Source CFD Toolbox           |
|  \\    /   O peration     | Version:  2506                                  |
|   \\  /    A nd           | Website:  www.openfoam.com                      |
|    \\/     M anipulation  |                                                 |
\*---------------------------------------------------------------------------*/
FoamFile
{
    version     2.0;
    format      ascii;
    arch        "LSB;label=32;scalar=64";
    class       volScalarField;
    location    "7";
    object      dpdt2;
}
// * * * * * * * * * * * * * * * * * * * * * * * * * * * * * * * * * * * * * //

dimensions      [0 4 -6 0 0 0 0];

internalField   nonuniform List<scalar> 
400
(
1.29531e-26
1.46445e-25
2.28107e-25
3.47848e-25
5.24888e-25
7.6631e-25
8.25916e-25
7.92641e-25
8.6291e-25
9.8097e-25
9.18435e-25
8.96847e-25
9.96624e-25
1.10778e-24
1.14366e-24
1.09987e-24
9.67377e-25
9.88204e-25
9.94582e-25
1.00285e-24
1.09249e-25
1.61949e-25
3.18884e-25
4.63988e-25
5.84539e-25
7.09402e-25
7.82727e-25
7.64765e-25
8.57079e-25
1.10296e-24
1.01124e-24
8.16056e-25
9.9305e-25
1.17402e-24
1.22882e-24
1.06131e-24
9.3628e-25
9.33599e-25
1.06065e-24
1.01114e-24
1.9204e-25
2.53962e-25
3.94275e-25
5.52827e-25
6.831e-25
7.38753e-25
7.63233e-25
9.07996e-25
9.96502e-25
1.08166e-24
1.08184e-24
9.59369e-25
1.14002e-24
1.01469e-24
1.07302e-24
1.06656e-24
1.10191e-24
9.81475e-25
9.81066e-25
9.70922e-25
3.03963e-25
4.00638e-25
5.02879e-25
6.0476e-25
7.43496e-25
7.59911e-25
7.93045e-25
9.63951e-25
9.80428e-25
1.04614e-24
1.20111e-24
1.09391e-24
1.14649e-24
1.07955e-24
1.12785e-24
1.04234e-24
1.0738e-24
9.95008e-25
1.01416e-24
1.02925e-24
3.97506e-25
4.58869e-25
5.73309e-25
7.49082e-25
8.32149e-25
8.39631e-25
9.17755e-25
1.01885e-24
1.08519e-24
1.11356e-24
1.12028e-24
1.20161e-24
1.26925e-24
1.11326e-24
1.16089e-24
1.19073e-24
1.00915e-24
9.67389e-25
1.06333e-24
1.10493e-24
4.54781e-25
6.14115e-25
6.40147e-25
8.19479e-25
9.35626e-25
8.93527e-25
9.48873e-25
1.02323e-24
1.15039e-24
1.16838e-24
1.17401e-24
1.30512e-24
1.36751e-24
1.1846e-24
1.17862e-24
1.14871e-24
1.06038e-24
1.09916e-24
1.13145e-24
1.22717e-24
5.97741e-25
7.05979e-25
7.31345e-25
8.3762e-25
9.27821e-25
9.90187e-25
1.11363e-24
1.09078e-24
1.1263e-24
1.21401e-24
1.22511e-24
1.28906e-24
1.43879e-24
1.34205e-24
1.19124e-24
1.21667e-24
1.14743e-24
1.15953e-24
1.28874e-24
1.33169e-24
8.16641e-25
8.44137e-25
8.55483e-25
9.6359e-25
9.57546e-25
1.03222e-24
1.06098e-24
1.12715e-24
1.20849e-24
1.27892e-24
1.20144e-24
1.27134e-24
1.43055e-24
1.40646e-24
1.35536e-24
1.33442e-24
1.38261e-24
1.32738e-24
1.32397e-24
1.35598e-24
9.37188e-25
9.801e-25
1.00257e-24
1.02798e-24
1.03256e-24
1.12657e-24
1.114e-24
1.21632e-24
1.28831e-24
1.29585e-24
1.29638e-24
1.39676e-24
1.44178e-24
1.43361e-24
1.44923e-24
1.51578e-24
1.56981e-24
1.48927e-24
1.36831e-24
1.41317e-24
1.08873e-24
1.15271e-24
1.17518e-24
1.06414e-24
1.16258e-24
1.16718e-24
1.24406e-24
1.2836e-24
1.39783e-24
1.37976e-24
1.45159e-24
1.52253e-24
1.43913e-24
1.48873e-24
1.74312e-24
1.66947e-24
1.62503e-24
1.59685e-24
1.59874e-24
1.38674e-24
1.26212e-24
1.25919e-24
1.37019e-24
1.25804e-24
1.28437e-24
1.25218e-24
1.38096e-24
1.35262e-24
1.52198e-24
1.60404e-24
1.53192e-24
1.64103e-24
1.65123e-24
1.67105e-24
1.70771e-24
1.71943e-24
1.76944e-24
1.63367e-24
1.62936e-24
1.68377e-24
1.38544e-24
1.37514e-24
1.5148e-24
1.47734e-24
1.49398e-24
1.4729e-24
1.54187e-24
1.60861e-24
1.71401e-24
1.69608e-24
1.69979e-24
1.81519e-24
1.82224e-24
1.81546e-24
1.7899e-24
1.8209e-24
1.72903e-24
1.77594e-24
1.8292e-24
1.7682e-24
1.52263e-24
1.54019e-24
1.55348e-24
1.64434e-24
1.60936e-24
1.64073e-24
1.71689e-24
1.86558e-24
1.86552e-24
1.85261e-24
1.90338e-24
1.93192e-24
1.97292e-24
1.93082e-24
1.74837e-24
2.02885e-24
1.90441e-24
1.90227e-24
1.82719e-24
1.79325e-24
1.72377e-24
1.70252e-24
1.76174e-24
1.75191e-24
1.76439e-24
1.74748e-24
1.83187e-24
2.00024e-24
1.96814e-24
2.05289e-24
2.12758e-24
2.2237e-24
2.16493e-24
2.06814e-24
1.88173e-24
1.98465e-24
1.9591e-24
1.92543e-24
1.87867e-24
1.93321e-24
1.87855e-24
1.93277e-24
1.85441e-24
1.69289e-24
1.93544e-24
1.98483e-24
1.94358e-24
2.14413e-24
2.24787e-24
2.17849e-24
2.23432e-24
2.27487e-24
2.17364e-24
2.29945e-24
2.18239e-24
2.10035e-24
2.02155e-24
2.04903e-24
2.10825e-24
1.97944e-24
1.99804e-24
2.07329e-24
1.95995e-24
1.927e-24
2.00649e-24
2.1044e-24
2.27988e-24
2.32587e-24
2.24218e-24
2.1934e-24
2.36743e-24
2.34416e-24
2.22557e-24
2.30861e-24
2.3778e-24
2.36691e-24
2.25715e-24
2.21532e-24
2.06597e-24
2.05317e-24
2.06387e-24
2.15687e-24
2.20048e-24
1.95297e-24
2.12833e-24
2.18776e-24
2.36066e-24
2.40552e-24
2.36421e-24
2.34734e-24
2.39237e-24
2.38081e-24
2.29935e-24
2.35624e-24
2.5989e-24
2.52733e-24
2.31753e-24
2.19774e-24
2.21131e-24
2.11526e-24
2.14055e-24
2.25434e-24
2.32885e-24
2.12449e-24
2.23233e-24
2.31963e-24
2.47709e-24
2.4993e-24
2.48259e-24
2.41303e-24
2.32128e-24
2.33101e-24
2.22338e-24
2.35825e-24
2.67204e-24
2.60144e-24
2.60206e-24
2.26023e-24
2.16246e-24
2.24321e-24
2.05423e-24
2.18724e-24
2.29161e-24
2.43496e-24
2.33503e-24
2.38807e-24
2.62778e-24
2.43856e-24
2.50846e-24
2.44437e-24
2.19615e-24
2.23461e-24
2.30114e-24
2.3759e-24
2.51508e-24
2.65964e-24
2.60266e-24
2.34148e-24
2.32406e-24
2.29155e-24
2.10641e-24
2.1769e-24
2.44108e-24
2.52479e-24
2.52667e-24
2.37969e-24
2.39473e-24
2.52108e-24
2.38792e-24
2.30663e-24
2.25608e-24
2.26618e-24
2.30819e-24
2.35772e-24
2.56094e-24
2.82073e-24
2.70232e-24
2.34044e-24
2.32408e-24
2.30779e-24
)
;

boundaryField
{
    movingWall
    {
        type            calculated;
        value           nonuniform List<scalar> 
20
(
2.10641e-24
2.1769e-24
2.44108e-24
2.52479e-24
2.52667e-24
2.37969e-24
2.39473e-24
2.52108e-24
2.38792e-24
2.30663e-24
2.25608e-24
2.26618e-24
2.30819e-24
2.35772e-24
2.56094e-24
2.82073e-24
2.70232e-24
2.34044e-24
2.32408e-24
2.30779e-24
)
;
    }
    fixedWalls
    {
        type            calculated;
        value           nonuniform List<scalar> 
60
(
1.29531e-26
1.09249e-25
1.9204e-25
3.03963e-25
3.97506e-25
4.54781e-25
5.97741e-25
8.16641e-25
9.37188e-25
1.08873e-24
1.26212e-24
1.38544e-24
1.52263e-24
1.72377e-24
1.87855e-24
1.99804e-24
2.06387e-24
2.14055e-24
2.05423e-24
2.10641e-24
1.00285e-24
1.01114e-24
9.70922e-25
1.02925e-24
1.10493e-24
1.22717e-24
1.33169e-24
1.35598e-24
1.41317e-24
1.38674e-24
1.68377e-24
1.7682e-24
1.79325e-24
1.93321e-24
1.97944e-24
2.05317e-24
2.11526e-24
2.24321e-24
2.29155e-24
2.30779e-24
1.29531e-26
1.46445e-25
2.28107e-25
3.47848e-25
5.24888e-25
7.6631e-25
8.25916e-25
7.92641e-25
8.6291e-25
9.8097e-25
9.18435e-25
8.96847e-25
9.96624e-25
1.10778e-24
1.14366e-24
1.09987e-24
9.67377e-25
9.88204e-25
9.94582e-25
1.00285e-24
)
;
    }
    frontAndBack
    {
        type            empty;
    }
}


// ************************************************************************* //
