/*--------------------------------*- C++ -*----------------------------------*\
| =========                 |                                                 |
| \\      /  F ield         | OpenFOAM: The Open Source CFD Toolbox           |
|  \\    /   O peration     | Version:  2506                                  |
|   \\  /    A nd           | Website:  www.openfoam.com                      |
|    \\/     M anipulation  |                                                 |
\*---------------------------------------------------------------------------*/
FoamFile
{
    version     2.0;
    format      ascii;
    arch        "LSB;label=32;scalar=64";
    class       volScalarField;
    location    "7";
    object      dUdt2;
}
// * * * * * * * * * * * * * * * * * * * * * * * * * * * * * * * * * * * * * //

dimensions      [0 2 -4 0 0 0 0];

internalField   nonuniform List<scalar> 
400
(
2.5503e-26
2.00275e-27
2.95614e-27
5.177e-28
4.55002e-27
2.0678e-27
8.56596e-28
4.99126e-28
2.06233e-27
6.27623e-28
1.19258e-28
5.05165e-28
1.02815e-29
6.58296e-28
6.95173e-28
1.97622e-27
2.06251e-27
7.33761e-28
1.98088e-27
5.23113e-28
9.87115e-27
4.46713e-27
3.68921e-27
3.49538e-27
3.52349e-28
2.3164e-27
2.82944e-27
1.44084e-28
1.44354e-29
7.89728e-27
2.01381e-28
2.24836e-28
2.18894e-27
2.05659e-27
2.00721e-27
2.00706e-27
8.10103e-27
2.17941e-27
8.06385e-27
3.4438e-30
5.04622e-27
3.33081e-27
1.28306e-27
7.77559e-28
1.08771e-27
2.09194e-27
5.50816e-28
8.54344e-27
4.27392e-30
3.09289e-27
7.07519e-29
1.97224e-27
1.97607e-27
8.21487e-27
3.73868e-28
1.97215e-27
5.00256e-27
8.01134e-27
5.74186e-28
4.93768e-28
2.26566e-26
1.97963e-27
6.93375e-28
6.93927e-28
1.17686e-27
2.98034e-27
6.81367e-28
2.30573e-27
4.45193e-27
2.4895e-27
5.49598e-27
2.28964e-28
6.27985e-28
7.23205e-30
1.97521e-27
3.98764e-29
5.42615e-28
8.02755e-29
1.60527e-28
6.90635e-28
1.29749e-26
3.51249e-27
7.34222e-28
3.03873e-27
2.60693e-27
2.10509e-27
4.49338e-27
1.98869e-27
6.2365e-28
5.01607e-28
2.63279e-27
2.00738e-27
9.20929e-32
2.26179e-28
2.53505e-28
5.09584e-28
7.89405e-27
1.24606e-27
3.34044e-28
2.55497e-28
1.88746e-26
9.0371e-28
6.21603e-29
1.99537e-27
4.12664e-30
2.03268e-27
2.25849e-27
5.12296e-28
5.09245e-28
5.71408e-28
6.05593e-28
5.38555e-28
5.32658e-28
5.29691e-28
9.0124e-28
9.19393e-29
4.55515e-27
6.64603e-28
7.35973e-28
8.85479e-28
2.94914e-26
7.45472e-28
1.97268e-27
6.01072e-28
5.37338e-28
7.01452e-28
8.09581e-28
2.27485e-27
4.95761e-28
5.21545e-28
2.52381e-27
9.68617e-28
1.34557e-28
1.97308e-27
5.39955e-28
4.5144e-27
2.08683e-27
1.99934e-27
4.72434e-27
7.20415e-28
4.10605e-27
8.92279e-28
9.25307e-29
2.27819e-27
3.49496e-28
2.97577e-28
9.45437e-30
3.47734e-32
1.71063e-31
4.45909e-27
5.5347e-28
5.40206e-28
1.79691e-28
1.43394e-29
7.35828e-29
6.16507e-28
8.75023e-28
4.88243e-27
1.98338e-30
5.27999e-28
1.88947e-27
1.34536e-27
4.44939e-27
6.94756e-31
4.2109e-29
5.86241e-28
4.5239e-27
4.94991e-28
1.97233e-27
5.01124e-28
1.28362e-27
6.93674e-29
8.04689e-28
2.00187e-27
2.93489e-28
7.98319e-27
7.90812e-27
2.11304e-27
6.98092e-28
4.93861e-28
1.70871e-26
7.95342e-27
4.6636e-28
4.06923e-31
2.01865e-27
3.46102e-29
2.14678e-27
1.05026e-30
3.01323e-30
2.23263e-27
2.4127e-28
7.95711e-27
5.47084e-28
2.15663e-27
7.11774e-28
2.00301e-27
6.34595e-28
2.192e-27
2.00783e-27
1.02961e-27
2.44081e-26
3.18192e-28
1.88835e-28
2.23606e-27
1.99016e-27
1.97228e-27
9.89371e-29
2.15972e-27
5.33469e-28
2.04074e-27
1.08847e-29
5.92535e-28
1.04501e-27
3.60501e-28
9.02446e-29
1.97812e-27
1.97605e-27
1.97466e-27
4.96356e-28
1.48199e-27
2.4673e-27
2.00709e-27
5.4392e-28
5.70167e-28
6.418e-29
4.04067e-29
6.02812e-28
1.07765e-27
6.28676e-28
1.894e-29
4.60314e-27
5.41261e-28
2.01785e-27
4.93044e-28
1.48793e-28
7.09598e-29
4.44714e-27
1.2351e-26
4.93501e-28
5.20427e-28
5.9209e-27
2.0917e-27
2.05562e-27
2.09977e-27
1.42658e-29
1.98833e-27
1.66905e-29
2.39359e-29
4.60951e-29
2.61735e-28
1.61466e-28
1.17182e-28
2.13542e-27
1.51949e-28
3.38563e-31
1.97991e-27
1.97764e-27
2.12296e-27
7.86832e-28
7.64406e-29
2.48191e-28
3.39935e-28
5.42526e-28
4.82931e-28
4.4917e-27
2.25348e-27
2.82899e-31
4.48633e-32
2.03457e-28
7.11805e-28
7.35629e-29
5.00691e-28
1.98233e-27
2.56386e-27
8.35619e-27
2.57987e-27
2.35715e-27
1.30741e-29
2.23383e-29
1.69322e-28
8.86349e-28
1.98795e-27
1.67895e-28
5.60764e-28
2.14107e-27
2.31391e-27
4.6412e-28
9.6287e-29
5.83887e-29
1.3469e-29
2.23738e-27
4.98839e-31
2.16755e-27
2.03968e-27
2.1045e-27
1.49165e-29
4.95287e-28
1.11318e-28
5.21267e-28
5.8565e-28
2.29661e-27
2.05916e-27
2.03568e-27
2.14866e-27
5.55555e-29
5.34746e-30
2.73141e-28
8.25639e-29
2.13316e-27
2.20316e-27
1.71025e-28
1.98905e-27
9.471e-29
1.5239e-27
1.43103e-28
3.19016e-28
2.15502e-27
2.0167e-27
8.81539e-29
8.54061e-29
8.66251e-27
4.61996e-27
5.52699e-28
4.97402e-28
7.26123e-28
8.13531e-28
1.14961e-30
5.11488e-28
7.57813e-28
6.03858e-28
1.22327e-28
1.00254e-29
1.98323e-27
5.22219e-28
5.43717e-28
6.12639e-30
1.75928e-28
1.97516e-27
5.33631e-28
1.37232e-28
1.99939e-27
4.99864e-28
1.98499e-27
2.37477e-27
2.27869e-27
2.79623e-28
2.03965e-27
9.92289e-32
1.06796e-28
8.15333e-27
5.29234e-28
6.60201e-28
5.43716e-30
5.84456e-28
1.69368e-31
1.55776e-29
3.59845e-29
1.99102e-27
3.03947e-30
1.00393e-28
2.73594e-27
6.1989e-28
4.94339e-28
8.35992e-27
2.38622e-27
4.56646e-27
4.43747e-27
2.56933e-30
2.17947e-27
3.42238e-29
2.06659e-27
2.02518e-27
1.8055e-28
2.02025e-27
1.97314e-27
6.71438e-29
8.628e-30
4.98035e-28
5.8596e-28
1.24417e-29
1.08039e-26
7.64944e-28
4.55381e-27
5.62234e-28
2.15163e-27
2.00493e-27
6.64541e-29
1.98827e-27
5.43833e-28
7.66711e-28
2.28017e-29
1.67807e-29
4.17924e-29
5.33138e-30
4.93109e-28
2.13939e-29
2.39453e-29
2.02061e-27
3.12978e-30
1.56299e-30
)
;

boundaryField
{
    movingWall
    {
        type            calculated;
        value           uniform 0;
    }
    fixedWalls
    {
        type            calculated;
        value           uniform 0;
    }
    frontAndBack
    {
        type            empty;
    }
}


// ************************************************************************* //
