/*--------------------------------*- C++ -*----------------------------------*\
| =========                 |                                                 |
| \\      /  F ield         | OpenFOAM: The Open Source CFD Toolbox           |
|  \\    /   O peration     | Version:  2506                                  |
|   \\  /    A nd           | Website:  www.openfoam.com                      |
|    \\/     M anipulation  |                                                 |
\*---------------------------------------------------------------------------*/
FoamFile
{
    version     2.0;
    format      ascii;
    arch        "LSB;label=32;scalar=64";
    class       volScalarField;
    location    "7";
    object      enstrophyField;
}
// * * * * * * * * * * * * * * * * * * * * * * * * * * * * * * * * * * * * * //

dimensions      [0 0 -2 0 0 0 0];

internalField   nonuniform List<scalar> 
400
(
5.72656e-23
1.00171e-22
4.66842e-24
3.02118e-25
7.87637e-27
1.01619e-27
2.61967e-29
8.45798e-28
1.95458e-30
1.57885e-27
2.79344e-29
1.52776e-27
3.67401e-31
2.05553e-27
1.91593e-27
6.16108e-31
4.91528e-29
1.05454e-27
1.65845e-27
2.29272e-29
5.46416e-26
6.5654e-27
1.04363e-26
1.86821e-27
1.35754e-27
2.12167e-27
1.68637e-27
2.48318e-27
3.51372e-27
1.03942e-26
1.21081e-26
4.36284e-27
1.65454e-26
6.25389e-29
3.7664e-27
4.81809e-27
1.89404e-29
2.76973e-28
1.77188e-29
4.85227e-29
1.7082e-23
6.71409e-23
3.71078e-24
2.17864e-25
9.71858e-27
6.56529e-29
3.9815e-28
2.16389e-27
1.64453e-27
1.97175e-27
1.5655e-27
4.63451e-27
1.04153e-26
1.99812e-27
3.85862e-27
1.48658e-28
8.15876e-29
3.6222e-27
3.94346e-27
1.56634e-30
1.47634e-23
4.92153e-23
2.54956e-24
1.8817e-25
4.14526e-27
1.88259e-27
1.05206e-27
4.82986e-27
9.18705e-27
1.38445e-26
9.03365e-27
7.27965e-27
2.67068e-27
1.25757e-28
3.54141e-27
3.87099e-27
2.1851e-28
6.5722e-29
4.48855e-29
1.89176e-28
6.19224e-25
7.57013e-25
3.87346e-26
1.48618e-27
7.66932e-31
3.43149e-28
5.42001e-27
2.39458e-27
1.32941e-29
3.61571e-27
3.12977e-27
9.68959e-29
7.20803e-28
8.29436e-28
8.13537e-28
2.85423e-28
3.0954e-27
1.35632e-27
1.34913e-29
6.54432e-29
1.65357e-23
4.5259e-23
2.44394e-24
1.36798e-25
1.42783e-26
2.43295e-30
3.30011e-29
6.80884e-28
2.02699e-27
7.06768e-28
7.04501e-29
1.5036e-29
2.00099e-27
9.19105e-28
2.45897e-29
1.99624e-27
3.35e-27
3.62607e-27
5.43374e-28
2.51799e-30
4.39217e-23
9.68622e-23
5.07094e-24
2.91623e-25
1.40828e-26
4.82685e-28
5.56784e-27
2.36199e-27
7.02369e-27
7.87206e-29
4.74155e-30
1.19177e-28
1.12815e-28
3.172e-28
7.33971e-29
5.05849e-29
3.36734e-27
3.75307e-30
3.50076e-29
6.40109e-28
7.69674e-24
1.61913e-23
7.51923e-25
6.66365e-26
5.50121e-32
2.46006e-27
1.34384e-29
3.44257e-27
1.25436e-27
9.70777e-29
6.55062e-29
2.7761e-29
2.65953e-28
1.91928e-27
6.54033e-28
1.92585e-27
3.77716e-27
3.16932e-29
1.66887e-29
3.76426e-28
1.01589e-23
1.8644e-23
1.11316e-24
6.96853e-26
6.61887e-29
2.48335e-28
3.00941e-28
1.72971e-27
2.2845e-27
6.7428e-29
3.00746e-27
1.52923e-28
1.36982e-28
1.97931e-27
5.93502e-28
6.48966e-29
2.03613e-29
9.87122e-28
2.95703e-29
7.69128e-28
5.70632e-23
7.87553e-23
4.57822e-24
1.99277e-25
1.13135e-26
2.8419e-31
5.33465e-27
3.32485e-27
1.67088e-29
1.58747e-27
1.5507e-27
1.51515e-29
2.94772e-28
1.33713e-27
2.58622e-28
1.58003e-27
2.49446e-27
6.70943e-28
6.60829e-29
4.0853e-28
6.98909e-23
8.04139e-23
4.43376e-24
1.49603e-25
4.25829e-26
3.26771e-27
5.42713e-27
3.0095e-27
1.84608e-27
1.4662e-27
3.08388e-27
3.36016e-29
8.36977e-28
1.56874e-27
5.1637e-28
2.93402e-29
1.01189e-31
1.04892e-28
6.38726e-31
1.86883e-27
1.78212e-23
2.9586e-23
1.46706e-24
9.62664e-26
4.61581e-27
5.84049e-29
7.57048e-28
1.99765e-30
2.86727e-28
2.838e-31
5.711e-28
6.04608e-28
1.76595e-27
1.4351e-27
6.56432e-27
1.76334e-27
1.02739e-27
8.81329e-28
1.5461e-29
2.88412e-30
6.80534e-25
1.61326e-28
6.46559e-27
5.14631e-27
9.17348e-28
7.95789e-28
8.81976e-29
1.35194e-29
5.16651e-27
2.06326e-27
1.15189e-27
1.24428e-27
1.79549e-27
1.96473e-27
4.91445e-30
1.70303e-29
2.47991e-27
2.01157e-27
1.98218e-29
1.11259e-29
1.39695e-23
2.87264e-23
1.60469e-24
7.97541e-26
4.74674e-27
9.01395e-28
1.09954e-29
2.34144e-28
2.58734e-28
1.06455e-28
2.10227e-27
2.91653e-27
3.92285e-30
2.29791e-28
2.1395e-27
1.03016e-26
1.85232e-27
1.17014e-28
7.02819e-29
2.64793e-28
3.53385e-23
7.97136e-23
4.27673e-24
2.10414e-25
2.37762e-26
2.50997e-28
2.6131e-27
3.92217e-27
1.88523e-29
4.67742e-27
4.20236e-27
3.96885e-29
8.93785e-29
1.9983e-28
2.94877e-27
5.4836e-27
1.85118e-27
2.0539e-31
4.93302e-30
3.42954e-31
2.30533e-23
3.82228e-23
2.29309e-24
1.18505e-25
1.53947e-26
4.97233e-28
3.86504e-27
3.34077e-27
1.96332e-27
1.7791e-30
1.55331e-29
2.69763e-29
1.00447e-26
1.30095e-26
4.96535e-27
2.20109e-27
7.22765e-29
7.0191e-29
7.4366e-29
1.47947e-30
1.14676e-24
9.97121e-25
6.57703e-26
3.09533e-30
2.86933e-28
4.73094e-28
1.62101e-28
2.00352e-29
7.94134e-28
6.5243e-27
4.41801e-27
9.14501e-29
1.48897e-28
2.76072e-27
3.60462e-27
6.63083e-28
2.21105e-29
1.36447e-28
1.19952e-28
1.84954e-29
6.20853e-24
4.66636e-23
2.69438e-24
1.29238e-25
2.44962e-26
1.76622e-27
9.37048e-28
9.45861e-28
4.45568e-27
7.52e-27
4.35686e-28
3.51435e-27
7.35096e-27
3.68636e-27
5.73406e-28
4.76229e-29
5.50978e-28
6.48785e-28
1.28947e-30
3.03178e-28
4.91626e-24
9.01462e-24
6.52445e-25
1.42742e-26
1.03782e-26
8.06258e-27
5.14816e-27
1.16471e-26
9.49367e-27
4.57344e-28
2.66696e-28
1.6754e-27
2.31543e-27
1.88185e-27
4.20974e-28
1.94951e-29
2.80647e-28
2.41167e-27
1.28176e-29
8.30678e-34
8.95846e-24
2.49527e-23
1.02362e-24
9.26205e-26
8.85686e-28
3.08136e-27
1.74783e-28
2.28713e-27
6.63412e-28
1.63427e-29
1.27407e-29
3.94575e-30
4.87238e-31
1.45498e-27
4.56925e-28
3.79332e-28
3.69991e-28
1.22809e-27
9.68262e-30
1.7732e-30
)
;

boundaryField
{
    movingWall
    {
        type            calculated;
        value           nonuniform List<scalar> 
20
(
7.51369e-23
4.34902e-23
9.7791e-25
2.87709e-25
1.94559e-26
4.22667e-26
1.43189e-26
4.41581e-26
2.08611e-26
1.4778e-26
1.66866e-26
1.62802e-26
1.56024e-26
8.83927e-27
4.22673e-27
1.00566e-27
9.90414e-28
3.54209e-27
9.68262e-30
1.7732e-30
)
;
    }
    fixedWalls
    {
        type            calculated;
        value           nonuniform List<scalar> 
60
(
1.77909e-21
5.12576e-25
1.22146e-21
8.88515e-22
1.45332e-23
8.12323e-22
1.77185e-21
2.92549e-22
3.45046e-22
1.47924e-21
1.50225e-21
5.30518e-22
1.63734e-25
5.2549e-22
1.4505e-21
7.26056e-22
1.70951e-23
8.63081e-22
1.78726e-22
4.33454e-22
2.68308e-28
4.677e-29
2.4537e-28
2.54176e-28
4.81557e-32
6.50637e-29
1.25846e-27
2.71869e-28
1.16119e-27
1.04561e-27
1.23855e-27
1.28042e-30
6.9796e-31
2.82636e-28
2.01595e-29
2.46469e-29
2.67438e-30
2.70428e-28
4.16589e-31
4.08692e-30
1.42144e-22
1.32408e-22
3.67247e-24
5.8146e-25
2.41024e-27
1.5897e-26
1.70892e-26
1.0703e-26
1.61304e-26
1.54269e-26
3.35351e-26
8.73314e-27
1.59299e-26
7.60382e-27
7.87951e-27
9.02319e-27
4.91528e-29
3.43232e-29
5.72066e-30
1.30972e-27
)
;
    }
    frontAndBack
    {
        type            empty;
    }
}


// ************************************************************************* //
