/*--------------------------------*- C++ -*----------------------------------*\
| =========                 |                                                 |
| \\      /  F ield         | OpenFOAM: The Open Source CFD Toolbox           |
|  \\    /   O peration     | Version:  2506                                  |
|   \\  /    A nd           | Website:  www.openfoam.com                      |
|    \\/     M anipulation  |                                                 |
\*---------------------------------------------------------------------------*/
FoamFile
{
    version     2.0;
    format      ascii;
    arch        "LSB;label=32;scalar=64";
    class       volScalarField;
    location    "7";
    object      flowTypeField;
}
// * * * * * * * * * * * * * * * * * * * * * * * * * * * * * * * * * * * * * //

dimensions      [0 0 0 0 0 0 0];

internalField   nonuniform List<scalar> 
400
(
0.413963
0.0483739
0.0539765
-0.0558643
0.305567
0.0809554
0.686347
0.249413
0.883007
0.0817197
0.0383737
0.116618
0.928241
-0.162082
-0.120151
0.892079
0.779972
0.155198
0.0544915
0.684463
0.983881
0.976121
0.878849
0.761344
0.443765
0.220334
0.383708
0.173741
-0.0109121
-0.0635426
-0.146376
-0.138866
0.0425109
0.396959
0.141376
-0.0586066
0.60139
0.317853
0.738412
0.772184
0.577184
0.113502
0.0484703
0.0215406
0.0360848
0.69593
0.540958
0.108886
0.467907
-0.125843
-0.018722
0.0765828
0.0363907
0.0107639
-0.0142985
0.571494
0.850351
0.0208064
-0.0912792
0.927323
0.595343
0.123416
0.0884144
-0.0756483
0.386905
-0.128077
0.227965
0.154142
-0.201047
-0.195129
-0.0654911
-0.0979285
0.101487
0.537686
0.0183596
-0.0225958
0.242245
0.116595
0.666236
0.631133
0.931712
0.734122
0.742873
0.763864
0.957754
0.283576
-0.226364
-0.0695615
0.555173
-0.561305
-0.230436
0.519697
-0.197627
-0.473775
0.0531737
0.345664
-0.443352
-0.427786
0.687741
0.761702
0.642867
0.12987
0.0933322
0.0775951
-0.466365
0.949584
0.524224
-0.314775
-0.0220239
-0.0556891
0.634474
0.861737
-0.163665
-0.523527
0.344966
0.193375
0.0149671
-0.0288619
-0.177276
0.893931
0.273268
0.0626325
-0.00598736
0.00613616
0.000949359
0.551167
-0.047062
-0.263432
-0.0563345
0.738451
0.864038
0.0289608
1.02554e-07
0.110922
0.738239
0.553585
0.168599
0.246843
0.799145
-0.229784
0.782812
0.241639
0.272283
0.125665
0.984824
-0.261829
0.241237
-0.00966357
0.214221
0.834735
0.0126484
0.407662
0.172976
-0.11714
-0.0659475
-0.0108637
-0.0111771
0.000241848
0.147518
-0.0118101
0.729392
0.198002
0.140432
0.044165
0.833543
0.43745
0.094268
-0.0837938
-0.240816
0.53601
-0.191034
0.512233
0.466119
0.181173
0.132344
0.174809
0.00121559
0.495191
0.0263549
-0.412975
0.141179
0.0328753
-0.0794062
0.0513373
-0.197097
0.949763
-0.1638
-0.00019325
0.846919
0.241548
0.0291614
0.859849
0.102122
0.0609283
0.568212
-0.0356449
-0.124223
0.516853
0.73823
-0.0407033
0.0056273
0.0063397
-0.0938029
0.147087
-0.753025
0.270546
0.0718223
0.0558362
0.200856
0.0166422
0.0918292
0.639065
0.242209
-0.030691
-0.165173
0.806487
0.97058
0.589405
0.910148
-0.122225
0.539456
0.0769044
0.0767539
0.0356787
0.118342
0.77208
-0.39994
0.877968
0.128376
0.964571
0.412541
0.11929
-0.0934126
0.0115908
-0.0484308
-0.0802161
0.369498
0.229742
0.103936
0.0404294
0.905794
0.992963
0.831377
0.525692
0.462536
0.438376
0.539397
0.444039
-0.245164
-0.0109072
0.229307
0.0789203
-0.085026
-0.151512
0.907671
0.85396
-0.0252301
0.328821
0.699178
0.0279302
0.607462
0.114179
0.0737678
0.0966229
0.134713
0.250977
0.762073
0.366438
0.328297
0.00562173
-0.0331123
-0.326649
0.551812
0.341161
-0.0539728
-0.309934
-0.114533
0.667762
0.0541545
0.14796
0.244347
0.0624949
0.00255344
0.0466809
-0.303567
0.608431
-0.140327
-0.0867723
0.482988
-0.111545
0.0648918
0.573444
0.802915
0.308059
0.343938
0.0743097
0.00338993
0.491145
0.821089
0.924662
0.570758
0.137395
0.0379548
0.0787928
-0.134121
0.455924
-0.00734317
0.0450345
0.259533
0.946253
0.876814
0.705273
-0.251918
-0.479448
-0.211456
0.233893
0.584028
0.737498
0.0909535
0.0959179
0.906773
0.696128
0.690788
0.983897
0.538248
0.0067736
0.352036
0.00494738
-0.454949
-0.0514212
-0.139402
0.650115
0.664802
-0.112424
-0.0779302
-0.0635832
0.69694
0.670236
0.449541
0.706888
0.628585
0.139845
0.0464773
0.14579
-0.513116
0.266932
0.224443
0.213426
-0.0422994
0.112304
-0.0776759
0.0257525
-0.0721859
-0.0350386
0.370535
0.71175
0.406063
0.374265
0.639615
0.0895571
0.801243
0.367874
0.269256
0.494469
-0.194048
0.07118
-0.0120157
-0.0278172
0.00431724
0.442031
0.120425
-0.0584472
-0.0742394
0.210932
0.28067
0.702424
0.122742
-0.274762
0.186874
0.172376
0.647647
0.118476
0.196349
-0.0142485
0.446818
-0.153476
0.46634
0.169385
0.503157
0.719253
0.398649
0.0563269
0.92091
0.0342457
0.0495426
0.283712
0.344282
0.0958201
0.102443
0.0229655
)
;

boundaryField
{
    movingWall
    {
        type            calculated;
        value           nonuniform List<scalar> 
20
(
0.566866
0.0971789
0.37172
-0.223203
0.276391
-0.0559503
0.0753066
0.0474014
0.10641
0.0590057
-0.00178117
-0.00677645
0.0295529
0.0224332
0.0219147
0.159483
0.229968
0.0639536
0.517132
0.332198
)
;
    }
    fixedWalls
    {
        type            calculated;
        value           nonuniform List<scalar> 
60
(
0.0534027
0.954076
0.104431
0.119518
0.738814
0.135008
0.0489803
0.261417
0.204732
0.0073037
-0.0179385
0.088247
0.952748
0.108853
0.0507709
0.117332
0.716168
0.123899
0.354089
0.137047
0.47928
0.851351
0.626642
0.702454
0.985413
0.691183
0.120577
0.136282
-0.698158
0.463699
0.264851
0.0745032
0.196577
0.120584
0.894347
0.00920581
0.909291
0.138708
0.0196014
0.0113168
0.673606
0.158552
0.351908
-0.0891399
0.755318
-0.293027
-0.00106757
-0.0976683
0.00213518
0.0231375
0.0280157
0.039427
0.00668823
0.0821228
0.096989
0.0527628
0.797147
0.298745
0.812728
0.101643
)
;
    }
    frontAndBack
    {
        type            empty;
    }
}


// ************************************************************************* //
