/*--------------------------------*- C++ -*----------------------------------*\
| =========                 |                                                 |
| \\      /  F ield         | OpenFOAM: The Open Source CFD Toolbox           |
|  \\    /   O peration     | Version:  2506                                  |
|   \\  /    A nd           | Website:  www.openfoam.com                      |
|    \\/     M anipulation  |                                                 |
\*---------------------------------------------------------------------------*/
FoamFile
{
    version     2.0;
    format      ascii;
    arch        "LSB;label=32;scalar=64";
    class       surfaceScalarField;
    location    "7";
    object      fluxField;
}
// * * * * * * * * * * * * * * * * * * * * * * * * * * * * * * * * * * * * * //

dimensions      [0 3 -1 0 0 0 0];

oriented        oriented;

internalField   nonuniform List<scalar> 
760
(
-5e-05
3.9134e-18
-5e-05
-8.32676e-19
-5e-05
2.03897e-19
-5e-05
-3.26516e-20
-5e-05
1.80708e-20
-5e-05
4.97621e-21
-5e-05
2.75677e-21
-5e-05
-2.64333e-21
-5e-05
-3.22421e-21
-5e-05
-2.50895e-21
-5e-05
-5.64241e-22
-5e-05
4.38223e-21
-5e-05
2.72649e-21
-5e-05
2.21125e-21
-5e-05
2.4074e-21
-5e-05
5.50336e-21
-5e-05
6.34211e-21
-5e-05
1.48595e-21
-5e-05
-1.61323e-21
8.43334e-22
-5e-05
-3.27826e-18
-5e-05
7.24697e-19
-5e-05
-1.59181e-19
-5e-05
4.58707e-20
-5e-05
7.95822e-22
-5e-05
1.04905e-20
-5e-05
6.39324e-21
-5e-05
4.40213e-21
-5e-05
7.88587e-22
-5e-05
-2.5305e-21
-5e-05
8.05953e-22
-5e-05
2.05574e-21
-5e-05
8.98754e-23
-5e-05
-2.10162e-21
-5e-05
-4.95752e-21
-5e-05
-2.36563e-21
-5e-05
1.72025e-21
-5e-05
-3.21554e-22
-5e-05
-5.11349e-21
-3.68308e-21
-5e-05
-5.28983e-19
-5e-05
1.28039e-19
-5e-05
-2.41953e-20
-5e-05
1.15068e-20
-5e-05
7.79143e-21
-5e-05
1.29681e-20
-5e-05
1.56447e-20
-5e-05
1.47745e-20
-5e-05
8.50853e-21
-5e-05
4.3052e-22
-5e-05
-1.35691e-21
-5e-05
-6.50439e-21
-5e-05
-8.15746e-21
-5e-05
-6.64744e-21
-5e-05
-7.59744e-21
-5e-05
-8.99167e-21
-5e-05
-6.80022e-21
-5e-05
-3.8589e-21
-5e-05
-4.88372e-21
-3.36351e-21
-5e-05
2.51964e-18
-5e-05
-5.51703e-19
-5e-05
1.30112e-19
-5e-05
-2.28739e-20
-5e-05
1.74803e-20
-5e-05
1.37513e-20
-5e-05
1.59195e-20
-5e-05
1.01361e-20
-5e-05
7.92889e-21
-5e-05
2.06433e-21
-5e-05
-7.49667e-21
-5e-05
-1.06611e-20
-5e-05
-7.07686e-21
-5e-05
-5.88758e-21
-5e-05
-7.67144e-21
-5e-05
-9.90664e-21
-5e-05
-8.5366e-21
-5e-05
-2.23874e-21
-5e-05
5.74117e-22
1.42856e-21
-5e-05
-3.01708e-18
-5e-05
6.57421e-19
-5e-05
-1.47978e-19
-5e-05
4.19004e-20
-5e-05
3.19389e-21
-5e-05
1.35158e-20
-5e-05
1.07486e-20
-5e-05
5.78466e-21
-5e-05
4.55087e-21
-5e-05
2.13036e-21
-5e-05
-5.77903e-21
-5e-05
-7.06397e-21
-5e-05
-3.66975e-21
-5e-05
-6.6109e-21
-5e-05
-1.10181e-20
-5e-05
-1.16721e-20
-5e-05
-7.97098e-21
-5e-05
1.35666e-21
-5e-05
6.01087e-21
4.12049e-21
-5e-05
1.22002e-18
-5e-05
-2.40051e-19
-5e-05
6.47058e-20
-5e-05
-1.01598e-20
-5e-05
4.5456e-21
-5e-05
3.10248e-21
-5e-05
6.0884e-21
-5e-05
7.12409e-21
-5e-05
7.26941e-21
-5e-05
7.28424e-21
-5e-05
1.00705e-21
-5e-05
-1.68969e-21
-5e-05
-4.22359e-21
-5e-05
-7.70772e-21
-5e-05
-8.64535e-21
-5e-05
-6.43196e-21
-5e-05
-3.88679e-21
-5e-05
2.91431e-22
-5e-05
4.5355e-21
3.84851e-21
-5e-05
2.32565e-18
-5e-05
-4.95832e-19
-5e-05
1.19592e-19
-5e-05
-2.6581e-20
-5e-05
6.37941e-21
-5e-05
1.90593e-21
-5e-05
4.57784e-21
-5e-05
6.66251e-21
-5e-05
8.62353e-21
-5e-05
8.15714e-21
-5e-05
1.50066e-21
-5e-05
-7.10769e-22
-5e-05
-4.22185e-21
-5e-05
-5.47651e-21
-5e-05
-2.76478e-21
-5e-05
-1.82007e-22
-5e-05
1.71279e-21
-5e-05
1.03062e-21
-5e-05
4.07333e-22
1.67817e-21
-5e-05
-3.26885e-18
-5e-05
7.00319e-19
-5e-05
-1.63755e-19
-5e-05
3.4271e-20
-5e-05
-6.26249e-21
-5e-05
4.37251e-21
-5e-05
3.29239e-21
-5e-05
3.71938e-21
-5e-05
2.55613e-21
-5e-05
-6.57427e-22
-5e-05
1.97583e-21
-5e-05
2.31752e-21
-5e-05
-2.29115e-21
-5e-05
-2.83094e-21
-5e-05
1.82223e-21
-5e-05
1.27156e-21
-5e-05
9.37046e-22
-5e-05
1.07631e-21
-5e-05
1.39107e-21
1.55455e-21
-5e-05
1.70682e-18
-5e-05
-3.66237e-19
-5e-05
8.90583e-20
-5e-05
-1.66501e-20
-5e-05
4.23248e-21
-5e-05
-2.24965e-21
-5e-05
2.83927e-21
-5e-05
3.88758e-21
-5e-05
1.74522e-21
-5e-05
-9.037e-22
-5e-05
5.18252e-21
-5e-05
5.30277e-21
-5e-05
1.40216e-21
-5e-05
4.58674e-22
-5e-05
4.20328e-21
-5e-05
3.38615e-21
-5e-05
8.54034e-22
-5e-05
-2.31473e-21
-5e-05
9.16766e-22
2.48192e-21
-5e-05
5.49782e-20
-5e-05
-1.47021e-20
-5e-05
6.52957e-21
-5e-05
4.10471e-21
-5e-05
-9.96494e-22
-5e-05
-4.14253e-21
-5e-05
-1.06667e-21
-5e-05
2.41087e-21
-5e-05
-7.58251e-23
-5e-05
-6.72573e-22
-5e-05
4.72921e-22
-5e-05
3.92464e-22
-5e-05
1.14616e-21
-5e-05
3.01037e-21
-5e-05
1.31964e-21
-5e-05
2.84307e-21
-5e-05
2.73365e-21
-5e-05
-1.14999e-21
-5e-05
-2.80331e-21
1.44153e-21
-5e-05
-1.28156e-18
-5e-05
2.52041e-19
-5e-05
-6.13012e-20
-5e-05
1.03522e-20
-5e-05
-7.1431e-21
-5e-05
-4.70407e-21
-5e-05
-4.32284e-21
-5e-05
-6.93376e-22
-5e-05
-2.8899e-21
-5e-05
-3.12116e-21
-5e-05
-3.06362e-21
-5e-05
-7.53281e-22
-5e-05
9.03004e-22
-5e-05
3.87569e-21
-5e-05
2.93266e-22
-5e-05
4.15789e-21
-5e-05
3.5023e-21
-5e-05
2.05025e-21
-5e-05
-2.70951e-21
3.77496e-22
-5e-05
2.02079e-18
-5e-05
-4.39883e-19
-5e-05
1.02197e-19
-5e-05
-2.38794e-20
-5e-05
4.31163e-21
-5e-05
-2.70329e-21
-5e-05
-3.34155e-21
-5e-05
-3.20763e-21
-5e-05
-1.54188e-21
-5e-05
1.08691e-21
-5e-05
7.76729e-22
-5e-05
1.20664e-21
-5e-05
1.61273e-21
-5e-05
3.94026e-21
-5e-05
3.57257e-21
-5e-05
6.26404e-21
-5e-05
3.40748e-21
-5e-05
-1.00296e-23
-5e-05
-1.95359e-21
1.7386e-22
-5e-05
-2.14627e-18
-5e-05
4.93079e-19
-5e-05
-1.1131e-19
-5e-05
2.6205e-20
-5e-05
-6.42914e-21
-5e-05
-9.97779e-22
-5e-05
-7.07032e-21
-5e-05
-5.62605e-21
-5e-05
-3.60358e-22
-5e-05
5.145e-21
-5e-05
5.79445e-21
-5e-05
9.33812e-22
-5e-05
-8.27812e-22
-5e-05
3.06275e-21
-5e-05
6.65047e-21
-5e-05
1.04553e-21
-5e-05
-3.58807e-21
-5e-05
-4.67233e-21
-5e-05
-2.06812e-21
-1.34257e-22
-5e-05
1.42484e-18
-5e-05
-3.05718e-19
-5e-05
6.83005e-20
-5e-05
-2.24288e-20
-5e-05
-8.0763e-22
-5e-05
-5.82368e-21
-5e-05
-5.82114e-21
-5e-05
-2.47544e-21
-5e-05
1.40211e-21
-5e-05
4.74665e-21
-5e-05
8.90129e-21
-5e-05
4.67911e-21
-5e-05
1.13286e-21
-5e-05
1.9456e-21
-5e-05
4.71395e-21
-5e-05
-1.98531e-21
-5e-05
-4.98952e-21
-5e-05
-1.98998e-21
-5e-05
-1.00479e-21
1.88758e-22
-5e-05
1.09138e-18
-5e-05
-2.60278e-19
-5e-05
4.60567e-20
-5e-05
-2.38464e-20
-5e-05
-1.18851e-21
-5e-05
-6.42113e-21
-5e-05
-3.47099e-21
-5e-05
-3.55196e-21
-5e-05
-1.7641e-21
-5e-05
2.64621e-21
-5e-05
8.3919e-21
-5e-05
1.06196e-20
-5e-05
8.00087e-21
-5e-05
-1.14336e-21
-5e-05
-6.99856e-21
-5e-05
-6.85771e-21
-5e-05
-4.18096e-21
-5e-05
-1.42797e-21
-5e-05
-1.05866e-21
8.35668e-22
-5e-05
-3.00631e-18
-5e-05
6.50601e-19
-5e-05
-1.62501e-19
-5e-05
2.45455e-20
-5e-05
-1.30645e-20
-5e-05
2.19679e-22
-5e-05
2.9431e-22
-5e-05
-3.70662e-21
-5e-05
-1.3946e-21
-5e-05
4.14346e-21
-5e-05
3.45752e-21
-5e-05
6.35507e-21
-5e-05
8.68908e-21
-5e-05
4.87989e-22
-5e-05
-9.55602e-21
-5e-05
-1.17707e-20
-5e-05
-8.14235e-21
-5e-05
-6.33775e-21
-5e-05
-2.5339e-21
5.83356e-22
-5e-05
2.3854e-18
-5e-05
-5.09207e-19
-5e-05
1.20007e-19
-5e-05
-3.30882e-20
-5e-05
3.04216e-22
-5e-05
1.13122e-21
-5e-05
2.52403e-21
-5e-05
-3.87347e-21
-5e-05
-1.73754e-21
-5e-05
2.58474e-21
-5e-05
3.64262e-22
-5e-05
1.70081e-23
-5e-05
4.39005e-21
-5e-05
5.68692e-21
-5e-05
5.03322e-22
-5e-05
-7.07374e-21
-5e-05
-6.16097e-21
-5e-05
-3.8886e-21
-5e-05
-1.2854e-21
3.85091e-22
-5e-05
1.72506e-18
-5e-05
-3.87976e-19
-5e-05
8.68242e-20
-5e-05
-2.545e-20
-5e-05
1.96363e-21
-5e-05
6.44221e-22
-5e-05
-1.37149e-21
-5e-05
-7.12452e-21
-5e-05
-8.32534e-21
-5e-05
-4.42064e-21
-5e-05
1.22061e-21
-5e-05
1.95668e-21
-5e-05
9.32156e-22
-5e-05
1.70443e-21
-5e-05
2.84764e-22
-5e-05
-3.85978e-21
-5e-05
-5.6127e-21
-5e-05
-1.48376e-21
-5e-05
4.26508e-22
1.83496e-22
-5e-05
-3.18788e-18
-5e-05
6.8167e-19
-5e-05
-1.70524e-19
-5e-05
3.16109e-20
-5e-05
-7.13125e-21
-5e-05
5.40009e-21
-5e-05
1.07709e-21
-5e-05
-1.74091e-21
-5e-05
-6.6182e-21
-5e-05
-6.75436e-21
-5e-05
-2.0559e-21
-5e-05
2.81437e-22
-5e-05
-2.27259e-21
-5e-05
-3.42543e-21
-5e-05
-4.12386e-21
-5e-05
-3.12203e-21
-5e-05
-5.5752e-21
-5e-05
-2.24429e-21
-5e-05
-6.02625e-22
1.21638e-22
-5e-05
-5e-05
-5e-05
-5e-05
-5e-05
-5e-05
-5e-05
-5e-05
-5e-05
-5e-05
-5e-05
-5e-05
-5e-05
-5e-05
-5e-05
-5e-05
-5e-05
-5e-05
-5e-05
)
;

boundaryField
{
    movingWall
    {
        type            calculated;
        value           uniform -0;
    }
    fixedWalls
    {
        type            calculated;
        value           nonuniform List<scalar> 
60
(
5e-05
5e-05
5e-05
5e-05
5e-05
5e-05
5e-05
5e-05
5e-05
5e-05
5e-05
5e-05
5e-05
5e-05
5e-05
5e-05
5e-05
5e-05
5e-05
5e-05
-5e-05
-5e-05
-5e-05
-5e-05
-5e-05
-5e-05
-5e-05
-5e-05
-5e-05
-5e-05
-5e-05
-5e-05
-5e-05
-5e-05
-5e-05
-5e-05
-5e-05
-5e-05
-5e-05
-5e-05
0
0
0
0
0
0
0
0
0
0
0
0
0
0
0
0
0
0
0
0
)
;
    }
    frontAndBack
    {
        type            empty;
    }
}


// ************************************************************************* //
