/*--------------------------------*- C++ -*----------------------------------*\
| =========                 |                                                 |
| \\      /  F ield         | OpenFOAM: The Open Source CFD Toolbox           |
|  \\    /   O peration     | Version:  2506                                  |
|   \\  /    A nd           | Website:  www.openfoam.com                      |
|    \\/     M anipulation  |                                                 |
\*---------------------------------------------------------------------------*/
FoamFile
{
    version     2.0;
    format      ascii;
    arch        "LSB;label=32;scalar=64";
    class       volTensorField;
    location    "7";
    object      gradU;
}
// * * * * * * * * * * * * * * * * * * * * * * * * * * * * * * * * * * * * * //

dimensions      [0 0 -1 0 0 0 0];

internalField   nonuniform List<tensor> 
400
(
(-7.58942e-13 1.19759e-11 0 1.27394e-12 1.56536e-11 0 0 0 0)
(1.30104e-12 -1.44524e-11 0 -2.98156e-13 -3.3307e-12 0 0 0 0)
(-3.52366e-13 3.10983e-12 0 5.42101e-14 8.15588e-13 0 0 0 0)
(-2.71051e-14 -7.23116e-13 0 5.42101e-14 -1.30606e-13 0 0 0 0)
(-8.13152e-14 1.52615e-13 0 2.71051e-14 7.22832e-14 0 0 0 0)
(0 -4.50819e-14 0 0 1.99048e-14 0 0 0 0)
(-2.71051e-14 -7.23833e-15 0 0 1.10271e-14 0 0 0 0)
(0 -1.30811e-14 0 -5.42101e-14 -1.05733e-14 0 0 0 0)
(2.71051e-14 -1.97716e-15 0 0 -1.28968e-14 0 0 0 0)
(2.71051e-14 1.98327e-15 0 -5.42101e-14 -1.00358e-14 0 0 0 0)
(0 7.47454e-15 0 0 -2.25697e-15 0 0 0 0)
(-2.71051e-14 1.06668e-15 0 -5.42101e-14 1.75289e-14 0 0 0 0)
(-2.71051e-14 -8.57206e-16 0 0 1.0906e-14 0 0 0 0)
(0 9.90749e-15 0 -5.42101e-14 8.845e-15 0 0 0 0)
(0 7.69184e-15 0 -5.42101e-14 9.62962e-15 0 0 0 0)
(0 -1.11005e-15 0 0 2.20134e-14 0 0 0 0)
(-5.42101e-14 -9.91492e-15 0 0 2.53685e-14 0 0 0 0)
(0 -8.28531e-15 0 -5.42101e-14 5.94378e-15 0 0 0 0)
(2.71051e-14 3.3825e-15 0 -5.42101e-14 -6.45291e-15 0 0 0 0)
(-2.71051e-14 -6.77159e-15 0 0 3.37334e-15 0 0 0 0)
(1.78893e-12 3.47046e-13 0 6.77626e-13 -2.87666e-11 0 0 0 0)
(-2.54788e-12 -3.8564e-13 0 -2.71051e-13 6.22949e-12 0 0 0 0)
(6.50521e-13 9.02633e-14 0 -5.42101e-14 -1.45231e-12 0 0 0 0)
(0 -2.01889e-14 0 -8.13152e-14 3.14089e-13 0 0 0 0)
(5.42101e-14 -2.1037e-15 0 -5.42101e-14 -6.90999e-14 0 0 0 0)
(0 -1.61743e-14 0 -8.13152e-14 2.20572e-14 0 0 0 0)
(-5.42101e-14 -2.32398e-14 0 -8.13152e-14 1.45459e-14 0 0 0 0)
(0 -1.08428e-14 0 -8.13152e-14 2.81818e-14 0 0 0 0)
(0 2.5147e-15 0 -8.13152e-14 1.60512e-14 0 0 0 0)
(0 8.65659e-15 0 -1.35525e-13 -8.62147e-17 0 0 0 0)
(0 2.00902e-14 0 -1.35525e-13 5.48078e-15 0 0 0 0)
(0 1.20962e-14 0 -8.13152e-14 -9.30596e-15 0 0 0 0)
(0 -7.82673e-15 0 -1.89735e-13 -1.05465e-14 0 0 0 0)
(0 -1.11838e-14 0 0 -1.72515e-14 0 0 0 0)
(5.42101e-14 5.47659e-15 0 -8.13152e-14 -2.94597e-14 0 0 0 0)
(2.71051e-14 1.68489e-14 0 -8.13152e-14 -3.1476e-14 0 0 0 0)
(0 -6.15474e-15 0 0 -1.84875e-14 0 0 0 0)
(-2.71051e-14 -2.35361e-14 0 0 -7.23e-15 0 0 0 0)
(2.71051e-14 -5.95295e-15 0 0 -1.4001e-14 0 0 0 0)
(5.42101e-14 9.85116e-15 0 0 -1.81057e-14 0 0 0 0)
(-2.98156e-13 -1.05613e-11 0 -4.71628e-12 1.09971e-11 0 0 0 0)
(5.69206e-13 1.28619e-11 0 1.27394e-12 -2.38663e-12 0 0 0 0)
(-2.1684e-13 -2.80557e-12 0 -8.13152e-14 5.39944e-13 0 0 0 0)
(-2.71051e-14 6.60097e-13 0 0 -1.37456e-13 0 0 0 0)
(-2.71051e-14 -1.39417e-13 0 0 2.79824e-14 0 0 0 0)
(0 3.85639e-14 0 2.71051e-14 9.91033e-15 0 0 0 0)
(-5.42101e-14 -1.11374e-15 0 2.71051e-14 3.70057e-14 0 0 0 0)
(-2.71051e-14 -1.15758e-14 0 5.42101e-14 4.14897e-14 0 0 0 0)
(-1.0842e-13 -3.02452e-14 0 2.71051e-14 3.08798e-14 0 0 0 0)
(0 -8.58713e-15 0 5.42101e-14 1.18441e-14 0 0 0 0)
(0 -1.7452e-15 0 5.42101e-14 -8.65145e-15 0 0 0 0)
(5.42101e-14 -1.49606e-14 0 8.13152e-14 -3.42405e-14 0 0 0 0)
(5.42101e-14 -8.80275e-15 0 1.35525e-13 -3.29894e-14 0 0 0 0)
(2.71051e-14 -9.00578e-15 0 5.42101e-14 -1.81833e-14 0 0 0 0)
(-2.71051e-14 -6.53262e-15 0 8.13152e-14 -1.05596e-14 0 0 0 0)
(2.71051e-14 9.86221e-15 0 2.71051e-14 -2.65042e-14 0 0 0 0)
(1.0842e-13 1.4331e-14 0 2.71051e-14 -3.40819e-14 0 0 0 0)
(-2.71051e-14 -3.79889e-15 0 8.13152e-14 -1.41494e-14 0 0 0 0)
(0 -7.49317e-15 0 8.13152e-14 9.19089e-16 0 0 0 0)
(-2.71051e-14 2.53351e-14 0 2.71051e-14 1.27831e-15 0 0 0 0)
(-1.70762e-12 8.9575e-12 0 3.52366e-12 1.21945e-11 0 0 0 0)
(2.05998e-12 -1.08428e-11 0 -9.21572e-13 -2.71897e-12 0 0 0 0)
(-5.69206e-13 2.33944e-12 0 8.13152e-14 6.17228e-13 0 0 0 0)
(1.35525e-13 -5.3215e-13 0 8.13152e-14 -1.37523e-13 0 0 0 0)
(0 1.45262e-13 0 5.42101e-14 3.87555e-14 0 0 0 0)
(0 -7.15103e-15 0 5.42101e-14 3.133e-15 0 0 0 0)
(-2.71051e-14 8.33951e-15 0 5.42101e-14 1.09936e-15 0 0 0 0)
(8.13152e-14 -1.69687e-14 0 8.13152e-14 -1.85536e-14 0 0 0 0)
(2.71051e-14 -2.71309e-14 0 1.0842e-13 -2.31855e-15 0 0 0 0)
(-2.71051e-14 -3.08746e-14 0 1.35525e-13 6.53526e-15 0 0 0 0)
(5.42101e-14 -2.59944e-14 0 1.0842e-13 -2.4559e-14 0 0 0 0)
(0 -1.22417e-14 0 1.0842e-13 -1.66267e-14 0 0 0 0)
(0 8.23054e-15 0 8.13152e-14 4.32242e-15 0 0 0 0)
(-2.71051e-14 1.12459e-14 0 2.71051e-14 3.03947e-15 0 0 0 0)
(2.71051e-14 -2.84428e-15 0 8.13152e-14 -2.96012e-16 0 0 0 0)
(-2.71051e-14 -6.67334e-15 0 8.13152e-14 -3.65986e-15 0 0 0 0)
(0 6.20002e-15 0 2.71051e-14 -6.94554e-15 0 0 0 0)
(0 1.14649e-14 0 0 6.48064e-15 0 0 0 0)
(2.71051e-14 9.47475e-15 0 0 2.18313e-14 0 0 0 0)
(-5.42101e-14 7.65377e-15 0 2.71051e-14 1.91683e-14 0 0 0 0)
(2.24972e-12 -1.08575e-12 0 2.71051e-14 -2.21469e-11 0 0 0 0)
(-2.81893e-12 1.28467e-12 0 5.42101e-14 4.8365e-12 0 0 0 0)
(7.31836e-13 -2.24123e-13 0 5.42101e-14 -1.11236e-12 0 0 0 0)
(-1.0842e-13 8.16244e-14 0 2.71051e-14 2.59097e-13 0 0 0 0)
(-2.71051e-14 1.23849e-15 0 0 -5.71457e-14 0 0 0 0)
(2.71051e-14 9.07771e-16 0 2.71051e-14 -9.42273e-16 0 0 0 0)
(0 -2.28003e-14 0 8.13152e-14 -2.06837e-14 0 0 0 0)
(-2.71051e-14 -1.49937e-14 0 5.42101e-14 -1.7406e-14 0 0 0 0)
(0 -5.15638e-15 0 0 -1.35121e-14 0 0 0 0)
(0 -3.08276e-14 0 5.42101e-14 2.64096e-16 0 0 0 0)
(-2.71051e-14 -2.49072e-14 0 5.42101e-14 6.87057e-15 0 0 0 0)
(-2.71051e-14 1.39209e-14 0 0 1.43884e-14 0 0 0 0)
(0 1.08634e-14 0 -2.71051e-14 1.36284e-14 0 0 0 0)
(0 -1.36242e-14 0 2.71051e-14 -2.8933e-15 0 0 0 0)
(2.71051e-14 -1.3232e-14 0 2.71051e-14 -1.33867e-14 0 0 0 0)
(2.71051e-14 3.21268e-15 0 2.71051e-14 -7.06182e-15 0 0 0 0)
(0 2.44715e-14 0 -5.42101e-14 2.2625e-15 0 0 0 0)
(0 2.4978e-14 0 -2.71051e-14 1.43816e-14 0 0 0 0)
(0 5.19448e-15 0 0 2.1747e-14 0 0 0 0)
(-5.42101e-14 -1.56645e-14 0 -2.71051e-14 1.07677e-14 0 0 0 0)
(-1.65341e-12 -8.35286e-12 0 -2.60209e-12 1.69484e-11 0 0 0 0)
(2.08709e-12 1.01917e-11 0 6.77626e-13 -3.58989e-12 0 0 0 0)
(-5.14996e-13 -2.23796e-12 0 -2.71051e-14 8.50737e-13 0 0 0 0)
(8.13152e-14 5.23065e-13 0 0 -2.08241e-13 0 0 0 0)
(0 -1.14777e-13 0 5.42101e-14 5.40683e-15 0 0 0 0)
(5.42101e-14 2.93109e-14 0 2.71051e-14 -4.16532e-14 0 0 0 0)
(0 -8.12418e-15 0 0 -1.86407e-14 0 0 0 0)
(0 -9.79708e-15 0 2.71051e-14 5.35772e-15 0 0 0 0)
(2.71051e-14 -9.46082e-15 0 5.42101e-14 1.08742e-14 0 0 0 0)
(0 -1.0492e-14 0 2.71051e-14 2.06155e-14 0 0 0 0)
(2.71051e-14 -1.18701e-14 0 0 2.71443e-14 0 0 0 0)
(-5.42101e-14 -5.48379e-15 0 0 2.14971e-14 0 0 0 0)
(0 -9.05116e-15 0 5.42101e-14 -2.21536e-15 0 0 0 0)
(0 -1.57693e-14 0 2.71051e-14 -4.3873e-15 0 0 0 0)
(0 -7.0128e-15 0 0 9.4911e-15 0 0 0 0)
(-5.42101e-14 8.97589e-15 0 -5.42101e-14 2.09605e-14 0 0 0 0)
(-5.42101e-14 2.76435e-14 0 -5.42101e-14 1.63367e-14 0 0 0 0)
(5.42101e-14 3.09494e-14 0 -5.42101e-14 -4.26093e-15 0 0 0 0)
(0 5.86082e-15 0 -2.71051e-14 -5.90151e-15 0 0 0 0)
(0 -2.4861e-14 0 -2.71051e-14 -1.0879e-15 0 0 0 0)
(4.06576e-13 1.22727e-11 0 2.90024e-12 4.42254e-12 0 0 0 0)
(-2.71051e-13 -1.4813e-11 0 -8.94467e-13 -1.02312e-12 0 0 0 0)
(5.42101e-14 3.15753e-12 0 -2.71051e-14 2.19544e-13 0 0 0 0)
(-5.42101e-14 -7.63706e-13 0 0 -6.56846e-14 0 0 0 0)
(0 1.67826e-13 0 0 7.33527e-15 0 0 0 0)
(-5.42101e-14 -2.31397e-14 0 -5.42101e-14 -4.78619e-15 0 0 0 0)
(5.42101e-14 2.42106e-14 0 -8.13152e-14 -6.04224e-15 0 0 0 0)
(0 1.45211e-14 0 -5.42101e-14 -1.8463e-15 0 0 0 0)
(-2.71051e-14 1.01014e-14 0 -1.0842e-13 5.41646e-15 0 0 0 0)
(-5.42101e-14 -1.45575e-14 0 -2.71051e-14 3.49162e-15 0 0 0 0)
(0 -2.40256e-14 0 -2.71051e-14 1.97447e-15 0 0 0 0)
(0 -1.54387e-14 0 0 3.91569e-15 0 0 0 0)
(0 -1.5021e-14 0 0 6.9611e-18 0 0 0 0)
(0 -1.91775e-15 0 -2.71051e-14 8.92486e-15 0 0 0 0)
(-5.42101e-14 1.21159e-14 0 0 2.35223e-14 0 0 0 0)
(0 1.00583e-14 0 0 2.49998e-14 0 0 0 0)
(-5.42101e-14 -7.49914e-16 0 8.13152e-14 2.23983e-14 0 0 0 0)
(0 2.73973e-15 0 0 2.95676e-15 0 0 0 0)
(5.42101e-14 8.36751e-15 0 0 -1.65127e-14 0 0 0 0)
(0 -8.67508e-15 0 2.71051e-14 -8.68138e-15 0 0 0 0)
(3.25261e-13 -4.95344e-12 0 -1.02999e-12 -2.2378e-11 0 0 0 0)
(-8.67362e-13 5.98872e-12 0 2.98156e-13 4.7846e-12 0 0 0 0)
(3.52366e-13 -1.28052e-12 0 -5.42101e-14 -1.13339e-12 0 0 0 0)
(1.35525e-13 3.10856e-13 0 -5.42101e-14 2.43408e-13 0 0 0 0)
(-2.71051e-14 -5.38784e-14 0 -5.42101e-14 -5.05676e-14 0 0 0 0)
(0 1.59334e-14 0 -5.42101e-14 9.86632e-15 0 0 0 0)
(0 -5.18429e-15 0 0 -5.14179e-15 0 0 0 0)
(0 1.66162e-15 0 -8.13152e-14 -1.17725e-14 0 0 0 0)
(2.71051e-14 -4.1229e-15 0 -5.42101e-14 -2.42696e-14 0 0 0 0)
(1.0842e-13 -1.3934e-14 0 0 -3.52583e-14 0 0 0 0)
(0 -1.14461e-14 0 0 1.90066e-15 0 0 0 0)
(0 -7.45131e-15 0 0 1.21131e-14 0 0 0 0)
(0 -4.04198e-15 0 -2.71051e-14 7.72278e-15 0 0 0 0)
(0 7.74602e-15 0 -5.42101e-14 1.05823e-14 0 0 0 0)
(0 9.06214e-15 0 -2.71051e-14 1.8348e-14 0 0 0 0)
(-2.71051e-14 7.85195e-15 0 -5.42101e-14 5.81427e-15 0 0 0 0)
(-2.71051e-14 5.60043e-15 0 -8.13152e-14 -3.10296e-15 0 0 0 0)
(0 -7.96155e-15 0 0 1.82756e-16 0 0 0 0)
(0 -5.77733e-15 0 0 3.93494e-15 0 0 0 0)
(0 3.33083e-16 0 -2.71051e-14 -4.94463e-16 0 0 0 0)
(-2.98156e-13 -5.32067e-12 0 -8.13152e-13 1.99027e-11 0 0 0 0)
(7.58942e-13 6.43165e-12 0 3.25261e-13 -4.26622e-12 0 0 0 0)
(-3.52366e-13 -1.38367e-12 0 1.0842e-13 1.01125e-12 0 0 0 0)
(-8.13152e-14 3.19114e-13 0 -5.42101e-14 -2.03685e-13 0 0 0 0)
(0 -6.57156e-14 0 -5.42101e-14 4.19799e-14 0 0 0 0)
(2.71051e-14 2.22861e-14 0 0 -2.64887e-14 0 0 0 0)
(0 2.57176e-15 0 2.71051e-14 -1.81251e-15 0 0 0 0)
(0 -4.60667e-15 0 5.42101e-14 6.72801e-16 0 0 0 0)
(0 -1.33843e-14 0 5.42101e-14 -3.24366e-15 0 0 0 0)
(2.71051e-14 1.16128e-14 0 0 -9.85092e-16 0 0 0 0)
(-2.71051e-14 2.33458e-14 0 -5.42101e-14 1.28268e-14 0 0 0 0)
(-2.71051e-14 -9.61662e-15 0 -2.71051e-14 1.1941e-14 0 0 0 0)
(-2.71051e-14 -1.65519e-14 0 0 1.47733e-14 0 0 0 0)
(-5.42101e-14 8.70751e-15 0 -5.42101e-14 1.31585e-14 0 0 0 0)
(-2.71051e-14 7.34787e-15 0 -2.71051e-14 9.52419e-15 0 0 0 0)
(0 -1.13927e-14 0 0 8.45838e-15 0 0 0 0)
(0 -6.38142e-15 0 0 -3.3205e-16 0 0 0 0)
(8.13152e-14 9.77764e-15 0 5.42101e-14 -1.35642e-14 0 0 0 0)
(0 7.69029e-15 0 0 -1.89721e-15 0 0 0 0)
(0 -1.21156e-14 0 2.71051e-14 3.70948e-15 0 0 0 0)
(-1.89735e-13 1.0683e-11 0 0 -6.60736e-12 0 0 0 0)
(5.42101e-14 -1.29027e-11 0 -3.52366e-13 1.40614e-12 0 0 0 0)
(0 2.78202e-12 0 -2.43945e-13 -3.30115e-13 0 0 0 0)
(5.42101e-14 -6.58417e-13 0 -2.71051e-14 8.30193e-14 0 0 0 0)
(0 1.23318e-13 0 -2.71051e-14 -2.09159e-14 0 0 0 0)
(0 -2.7859e-14 0 -2.71051e-14 -7.57151e-15 0 0 0 0)
(2.71051e-14 2.19772e-14 0 -8.13152e-14 -1.56238e-14 0 0 0 0)
(0 2.30473e-16 0 -8.13152e-14 -5.90682e-15 0 0 0 0)
(5.42101e-14 -5.78079e-15 0 0 -7.28417e-15 0 0 0 0)
(-5.42101e-14 2.13646e-15 0 -5.42101e-14 9.24509e-16 0 0 0 0)
(0 1.48003e-15 0 -5.42101e-14 -1.88384e-14 0 0 0 0)
(5.42101e-14 -5.50482e-15 0 0 -1.96412e-14 0 0 0 0)
(0 -2.82452e-15 0 -2.71051e-14 -1.02402e-15 0 0 0 0)
(0 2.49695e-15 0 5.42101e-14 1.02068e-14 0 0 0 0)
(5.42101e-14 4.36205e-15 0 2.71051e-14 -1.15345e-14 0 0 0 0)
(0 -2.00428e-15 0 5.42101e-14 -2.17232e-15 0 0 0 0)
(-2.71051e-14 -1.64221e-14 0 5.42101e-14 7.51845e-15 0 0 0 0)
(-8.13152e-14 -9.52671e-15 0 2.71051e-14 4.65897e-15 0 0 0 0)
(5.42101e-14 1.14963e-14 0 0 -1.48803e-14 0 0 0 0)
(0 -1.4792e-15 0 2.71051e-14 -4.16157e-15 0 0 0 0)
(-6.23416e-13 -1.05219e-11 0 1.30104e-12 -5.34615e-12 0 0 0 0)
(4.87891e-13 1.27089e-11 0 2.71051e-14 1.06697e-12 0 0 0 0)
(-5.42101e-14 -2.70679e-12 0 2.71051e-13 -2.71323e-13 0 0 0 0)
(1.35525e-13 6.28313e-13 0 8.13152e-14 2.499e-14 0 0 0 0)
(0 -1.56306e-13 0 1.35525e-13 -2.45864e-14 0 0 0 0)
(-2.71051e-14 2.75783e-14 0 1.0842e-13 -2.24616e-15 0 0 0 0)
(2.71051e-14 4.23644e-15 0 1.0842e-13 -1.30247e-14 0 0 0 0)
(0 3.73292e-15 0 8.13152e-14 -1.2417e-14 0 0 0 0)
(5.42101e-14 -6.55299e-15 0 5.42101e-14 -1.12563e-14 0 0 0 0)
(0 5.85259e-17 0 5.42101e-14 -9.79435e-15 0 0 0 0)
(2.71051e-14 2.78012e-15 0 8.13152e-14 -1.41462e-14 0 0 0 0)
(-2.71051e-14 8.19776e-15 0 0 -4.58298e-15 0 0 0 0)
(0 1.32961e-14 0 5.42101e-14 -9.72607e-16 0 0 0 0)
(0 -1.80302e-15 0 5.42101e-14 3.46128e-15 0 0 0 0)
(0 -5.03122e-15 0 2.71051e-14 -4.10549e-15 0 0 0 0)
(-5.42101e-14 7.66031e-15 0 0 5.25926e-15 0 0 0 0)
(5.42101e-14 4.49865e-16 0 0 3.0746e-15 0 0 0 0)
(2.71051e-14 -1.26211e-14 0 -2.71051e-14 1.2801e-14 0 0 0 0)
(-2.71051e-14 -1.13024e-15 0 0 3.75222e-16 0 0 0 0)
(0 6.92634e-15 0 -5.42101e-14 -4.25614e-15 0 0 0 0)
(1.13841e-12 6.40381e-12 0 4.33681e-13 1.32094e-11 0 0 0 0)
(-9.48677e-13 -7.82786e-12 0 -1.35525e-13 -2.76769e-12 0 0 0 0)
(8.13152e-14 1.74003e-12 0 2.71051e-14 6.53994e-13 0 0 0 0)
(-1.35525e-13 -4.11681e-13 0 2.71051e-14 -1.36927e-13 0 0 0 0)
(2.71051e-14 9.60813e-14 0 0 4.58189e-14 0 0 0 0)
(-5.42101e-14 -1.62972e-14 0 -2.71051e-14 8.00311e-15 0 0 0 0)
(0 1.18063e-14 0 -2.71051e-14 3.92514e-15 0 0 0 0)
(2.71051e-14 1.99882e-15 0 0 -1.0057e-14 0 0 0 0)
(0 -3.15815e-15 0 -2.71051e-14 5.3921e-15 0 0 0 0)
(-5.42101e-14 -7.53392e-16 0 0 1.68323e-14 0 0 0 0)
(-5.42101e-14 6.6914e-15 0 -2.71051e-14 1.53614e-14 0 0 0 0)
(2.71051e-14 7.66874e-15 0 -2.71051e-14 7.83967e-15 0 0 0 0)
(0 5.21975e-15 0 -5.42101e-14 2.83892e-15 0 0 0 0)
(0 -6.35933e-16 0 -5.42101e-14 2.58275e-16 0 0 0 0)
(0 6.16002e-15 0 -1.0842e-13 1.31172e-14 0 0 0 0)
(0 5.17581e-15 0 -5.42101e-14 8.42461e-15 0 0 0 0)
(-5.42101e-14 -8.88043e-15 0 -5.42101e-14 -3.79247e-16 0 0 0 0)
(0 -1.22261e-14 0 -5.42101e-14 -8.2411e-15 0 0 0 0)
(0 -5.56076e-15 0 0 3.02369e-15 0 0 0 0)
(0 2.40172e-15 0 0 -8.14545e-16 0 0 0 0)
(-3.52366e-13 -8.01844e-14 0 -1.24683e-12 -1.66682e-11 0 0 0 0)
(8.13152e-14 1.53488e-13 0 1.35525e-13 3.73184e-12 0 0 0 0)
(8.13152e-14 -7.602e-14 0 -1.89735e-13 -8.54028e-13 0 0 0 0)
(1.0842e-13 2.01374e-14 0 -8.13152e-14 2.00338e-13 0 0 0 0)
(-5.42101e-14 -1.13768e-14 0 -5.42101e-14 -4.29631e-14 0 0 0 0)
(5.42101e-14 -1.43155e-14 0 -5.42101e-14 6.82205e-15 0 0 0 0)
(0 -1.38237e-14 0 -2.71051e-14 -1.49151e-14 0 0 0 0)
(0 5.19988e-15 0 0 -9.6737e-15 0 0 0 0)
(0 2.03363e-14 0 -8.13152e-14 4.72608e-15 0 0 0 0)
(2.71051e-14 1.00278e-14 0 -5.42101e-14 1.62324e-14 0 0 0 0)
(-2.71051e-14 -6.21249e-15 0 -5.42101e-14 2.00709e-14 0 0 0 0)
(0 -4.32472e-15 0 -5.42101e-14 -1.09129e-15 0 0 0 0)
(0 5.71474e-15 0 -5.42101e-14 -9.76219e-15 0 0 0 0)
(0 8.47526e-15 0 -5.42101e-14 -3.51002e-15 0 0 0 0)
(-5.42101e-14 3.13511e-15 0 0 1.23116e-14 0 0 0 0)
(5.42101e-14 -5.83614e-15 0 0 -2.0874e-14 0 0 0 0)
(2.71051e-14 -1.62158e-14 0 5.42101e-14 -2.79822e-14 0 0 0 0)
(8.13152e-14 -9.21819e-15 0 5.42101e-14 -1.86492e-14 0 0 0 0)
(-2.71051e-14 6.29632e-15 0 0 -4.58138e-16 0 0 0 0)
(0 4.71719e-15 0 0 -1.23247e-15 0 0 0 0)
(5.42101e-14 -6.53256e-12 0 -1.24683e-12 1.42844e-11 0 0 0 0)
(1.35525e-13 7.98633e-12 0 4.06576e-13 -3.19519e-12 0 0 0 0)
(-1.89735e-13 -1.79147e-12 0 0 7.18441e-13 0 0 0 0)
(0 3.99385e-13 0 0 -1.94535e-13 0 0 0 0)
(5.42101e-14 -9.74345e-14 0 0 2.2486e-14 0 0 0 0)
(0 1.17508e-14 0 5.42101e-14 -1.93036e-14 0 0 0 0)
(2.71051e-14 -4.68943e-15 0 0 4.9967e-15 0 0 0 0)
(-2.71051e-14 2.164e-14 0 0 1.26025e-14 0 0 0 0)
(-2.71051e-14 2.27479e-14 0 0 7.04989e-15 0 0 0 0)
(0 1.45914e-14 0 0 -1.59342e-15 0 0 0 0)
(-2.71051e-14 -1.06323e-14 0 5.42101e-14 1.24274e-14 0 0 0 0)
(0 -2.21643e-14 0 5.42101e-14 1.49812e-14 0 0 0 0)
(0 2.80102e-15 0 0 7.84269e-15 0 0 0 0)
(2.71051e-14 2.14379e-14 0 0 -4.4686e-15 0 0 0 0)
(2.71051e-14 -1.1204e-14 0 5.42101e-14 -7.74611e-15 0 0 0 0)
(0 -3.5118e-14 0 1.0842e-13 -1.21234e-14 0 0 0 0)
(0 -6.65557e-15 0 5.42101e-14 -5.60579e-15 0 0 0 0)
(-5.42101e-14 1.5298e-14 0 0 1.07294e-14 0 0 0 0)
(0 1.1856e-14 0 0 4.25332e-15 0 0 0 0)
(0 4.09232e-15 0 2.71051e-14 1.29206e-15 0 0 0 0)
(-1.19262e-12 1.10091e-11 0 2.60209e-12 -1.33385e-12 0 0 0 0)
(1.24683e-12 -1.34125e-11 0 -7.86047e-13 1.8176e-13 0 0 0 0)
(-1.89735e-13 2.92463e-12 0 0 -8.89753e-14 0 0 0 0)
(8.13152e-14 -6.75817e-13 0 -2.71051e-14 -5.67047e-15 0 0 0 0)
(-2.71051e-14 1.63855e-13 0 -5.42101e-14 -1.52353e-15 0 0 0 0)
(2.71051e-14 -3.18049e-14 0 -5.42101e-14 -2.38978e-15 0 0 0 0)
(-2.71051e-14 1.80824e-14 0 -5.42101e-14 9.40059e-15 0 0 0 0)
(0 7.25307e-15 0 -8.13152e-14 -4.3061e-15 0 0 0 0)
(0 6.1404e-15 0 0 -1.26649e-14 0 0 0 0)
(2.71051e-14 1.54053e-14 0 -8.13152e-14 -8.40176e-15 0 0 0 0)
(5.42101e-14 1.03621e-14 0 -8.13152e-14 -2.03755e-15 0 0 0 0)
(0 -8.90938e-15 0 0 2.37619e-14 0 0 0 0)
(-8.13152e-14 -1.37351e-14 0 -2.71051e-14 2.7472e-14 0 0 0 0)
(0 -7.11354e-15 0 -2.71051e-14 -1.23558e-14 0 0 0 0)
(8.13152e-14 -4.51967e-15 0 -8.13152e-14 -4.685e-14 0 0 0 0)
(2.71051e-14 -3.69582e-15 0 -1.0842e-13 -1.94896e-14 0 0 0 0)
(-2.71051e-14 6.63693e-15 0 -5.42101e-14 3.23424e-15 0 0 0 0)
(0 6.40921e-16 0 0 2.24802e-15 0 0 0 0)
(2.71051e-14 -3.14103e-15 0 0 -2.15477e-16 0 0 0 0)
(-2.71051e-14 -8.28196e-16 0 0 2.58764e-15 0 0 0 0)
(1.81604e-12 -7.68465e-12 0 -8.94467e-13 -1.63907e-11 0 0 0 0)
(-2.43945e-12 9.23121e-12 0 4.87891e-13 3.64351e-12 0 0 0 0)
(5.69206e-13 -1.97891e-12 0 1.6263e-13 -8.34229e-13 0 0 0 0)
(-8.13152e-14 4.86837e-13 0 0 1.93568e-13 0 0 0 0)
(8.13152e-14 -9.41538e-14 0 8.13152e-14 -4.75038e-14 0 0 0 0)
(0 2.26749e-14 0 5.42101e-14 2.65632e-14 0 0 0 0)
(-2.71051e-14 -6.60575e-15 0 8.13152e-14 1.50612e-14 0 0 0 0)
(2.71051e-14 -4.25512e-16 0 8.13152e-14 -6.18619e-16 0 0 0 0)
(-2.71051e-14 1.86523e-14 0 8.13152e-14 1.47803e-15 0 0 0 0)
(-5.42101e-14 2.52187e-14 0 2.71051e-14 5.989e-15 0 0 0 0)
(5.42101e-14 2.15314e-14 0 2.71051e-14 -1.97375e-14 0 0 0 0)
(2.71051e-14 7.34524e-15 0 0 -1.7058e-14 0 0 0 0)
(-2.71051e-14 -3.33167e-14 0 1.0842e-13 2.75286e-15 0 0 0 0)
(0 -5.28842e-14 0 1.0842e-13 6.52538e-15 0 0 0 0)
(0 -1.83377e-14 0 8.13152e-14 -1.02299e-14 0 0 0 0)
(2.71051e-14 1.49662e-14 0 8.13152e-14 -1.96521e-14 0 0 0 0)
(0 1.5082e-14 0 2.71051e-14 -1.58456e-14 0 0 0 0)
(5.42101e-14 1.18483e-14 0 0 -1.96391e-14 0 0 0 0)
(0 1.21956e-14 0 0 -5.90095e-15 0 0 0 0)
(0 1.72016e-15 0 0 -1.00925e-15 0 0 0 0)
(-1.5992e-12 -1.73817e-12 0 -3.25261e-12 2.15668e-11 0 0 0 0)
(2.33103e-12 2.14401e-12 0 7.31836e-13 -4.63923e-12 0 0 0 0)
(-6.77626e-13 -5.25316e-13 0 -1.6263e-13 1.13003e-12 0 0 0 0)
(0 1.10908e-13 0 1.0842e-13 -2.30535e-13 0 0 0 0)
(0 -3.14956e-15 0 -2.71051e-14 5.34747e-14 0 0 0 0)
(0 3.07602e-14 0 0 3.64615e-15 0 0 0 0)
(0 -9.09944e-15 0 -2.71051e-14 8.91889e-15 0 0 0 0)
(0 -6.33012e-15 0 0 -6.67395e-16 0 0 0 0)
(0 1.2748e-14 0 -2.71051e-14 -1.37178e-15 0 0 0 0)
(0 -5.81026e-15 0 1.0842e-13 -6.23486e-15 0 0 0 0)
(0 -1.26849e-14 0 8.13152e-14 -1.2373e-14 0 0 0 0)
(2.71051e-14 1.3581e-14 0 2.71051e-14 -2.53522e-14 0 0 0 0)
(5.42101e-14 9.84836e-15 0 2.71051e-14 -1.71961e-14 0 0 0 0)
(-2.71051e-14 -2.00963e-14 0 5.42101e-14 2.07957e-14 0 0 0 0)
(-2.71051e-14 -3.06971e-14 0 5.42101e-14 4.02374e-14 0 0 0 0)
(0 -9.3115e-15 0 2.71051e-14 1.8788e-14 0 0 0 0)
(-2.71051e-14 6.64988e-15 0 0 7.92553e-15 0 0 0 0)
(-5.42101e-14 1.05855e-14 0 2.71051e-14 9.79661e-15 0 0 0 0)
(2.71051e-14 1.54889e-14 0 0 4.99399e-15 0 0 0 0)
(-2.71051e-14 6.082e-15 0 0 -7.93059e-16 0 0 0 0)
(-7.04731e-13 9.24295e-12 0 5.71917e-12 -2.64138e-12 0 0 0 0)
(6.50521e-13 -1.12056e-11 0 -1.54499e-12 4.84924e-13 0 0 0 0)
(-8.13152e-14 2.42979e-12 0 1.0842e-13 -1.32732e-13 0 0 0 0)
(8.13152e-14 -5.8972e-13 0 -8.13152e-14 3.05528e-14 0 0 0 0)
(-2.71051e-14 1.40027e-13 0 -8.13152e-14 6.63766e-15 0 0 0 0)
(0 -2.18809e-14 0 -8.13152e-14 -1.94798e-15 0 0 0 0)
(0 -1.09193e-14 0 -5.42101e-14 -1.55821e-14 0 0 0 0)
(0 -1.07162e-14 0 -5.42101e-14 -1.30042e-14 0 0 0 0)
(2.71051e-14 1.30848e-14 0 -8.13152e-14 -2.63512e-14 0 0 0 0)
(8.13152e-14 1.42175e-14 0 -1.0842e-13 -2.80215e-14 0 0 0 0)
(0 2.41397e-15 0 -2.71051e-14 3.42538e-15 0 0 0 0)
(-2.71051e-14 2.52214e-15 0 -8.13152e-14 7.75868e-15 0 0 0 0)
(2.71051e-14 1.28313e-14 0 -1.0842e-13 -1.38316e-14 0 0 0 0)
(0 4.54938e-15 0 -8.13152e-14 -1.593e-14 0 0 0 0)
(0 -2.03455e-14 0 -5.42101e-14 -8.74232e-16 0 0 0 0)
(-2.71051e-14 -1.73457e-14 0 -2.71051e-14 1.28559e-14 0 0 0 0)
(-5.42101e-14 6.09067e-15 0 -2.71051e-14 2.19305e-15 0 0 0 0)
(5.42101e-14 8.91675e-15 0 -2.71051e-14 9.61936e-15 0 0 0 0)
(0 1.60591e-15 0 0 6.84762e-15 0 0 0 0)
(0 -2.48077e-15 0 -2.71051e-14 -8.06381e-16 0 0 0 0)
(2.62919e-12 -3.89463e-12 0 -7.58942e-13 -1.96517e-11 0 0 0 0)
(-3.33392e-12 4.65266e-12 0 4.06576e-13 4.27858e-12 0 0 0 0)
(7.58942e-13 -9.79687e-13 0 1.6263e-13 -1.02939e-12 0 0 0 0)
(-1.35525e-13 2.50278e-13 0 8.13152e-14 2.28243e-13 0 0 0 0)
(2.71051e-14 -3.56504e-14 0 1.0842e-13 -3.63795e-14 0 0 0 0)
(0 8.54042e-15 0 1.35525e-13 1.90235e-14 0 0 0 0)
(5.42101e-14 -2.01557e-14 0 8.13152e-14 9.79431e-15 0 0 0 0)
(-5.42101e-14 -1.70992e-14 0 1.35525e-13 2.15344e-14 0 0 0 0)
(-2.71051e-14 -2.26928e-15 0 1.35525e-13 6.82857e-15 0 0 0 0)
(0 2.39663e-14 0 5.42101e-14 -9.33491e-15 0 0 0 0)
(0 2.30953e-14 0 0 -1.3106e-14 0 0 0 0)
(0 -3.67594e-15 0 5.42101e-14 -6.70096e-15 0 0 0 0)
(2.71051e-14 -1.38403e-14 0 5.42101e-14 -1.2819e-14 0 0 0 0)
(5.42101e-14 -7.13895e-15 0 5.42101e-14 -2.05194e-14 0 0 0 0)
(2.71051e-14 -1.9113e-15 0 2.71051e-14 -1.76345e-14 0 0 0 0)
(-2.71051e-14 -6.24422e-15 0 0 2.95098e-15 0 0 0 0)
(0 3.41339e-15 0 2.71051e-14 1.49996e-16 0 0 0 0)
(0 1.52401e-14 0 -5.42101e-14 -3.04212e-15 0 0 0 0)
(0 5.06311e-15 0 0 -4.11653e-15 0 0 0 0)
(0 4.07597e-17 0 0 -2.47432e-16 0 0 0 0)
(-1.0571e-12 -6.13019e-12 0 -1.89735e-12 1.27515e-11 0 0 0 0)
(1.5992e-12 7.41675e-12 0 3.52366e-13 -2.72668e-12 0 0 0 0)
(-4.06576e-13 -1.62055e-12 0 -1.89735e-13 6.82094e-13 0 0 0 0)
(2.71051e-14 4.03291e-13 0 -2.71051e-14 -1.26443e-13 0 0 0 0)
(-2.71051e-14 -6.91927e-14 0 -2.71051e-14 2.8525e-14 0 0 0 0)
(-2.71051e-14 2.42929e-14 0 -5.42101e-14 -2.16004e-14 0 0 0 0)
(2.71051e-14 -8.40835e-15 0 -2.71051e-14 -4.30836e-15 0 0 0 0)
(0 -1.36819e-14 0 -8.13152e-14 6.96365e-15 0 0 0 0)
(-5.42101e-14 -1.77845e-14 0 -5.42101e-14 2.64728e-14 0 0 0 0)
(0 -5.71711e-15 0 0 2.70175e-14 0 0 0 0)
(0 5.04792e-15 0 0 8.22358e-15 0 0 0 0)
(0 2.80918e-15 0 0 -1.12575e-15 0 0 0 0)
(-2.71051e-14 -9.87156e-16 0 0 9.09035e-15 0 0 0 0)
(0 -2.66129e-16 0 -5.42101e-14 1.37017e-14 0 0 0 0)
(0 3.12489e-15 0 -2.71051e-14 1.64954e-14 0 0 0 0)
(-2.71051e-14 4.38819e-16 0 -2.71051e-14 1.24881e-14 0 0 0 0)
(-2.71051e-14 9.75666e-17 0 -2.71051e-14 2.23008e-14 0 0 0 0)
(0 4.65023e-15 0 5.42101e-14 8.97716e-15 0 0 0 0)
(0 4.4006e-15 0 0 2.4105e-15 0 0 0 0)
(0 1.88319e-15 0 0 -4.86552e-16 0 0 0 0)
)
;

boundaryField
{
    movingWall
    {
        type            extrapolatedCalculated;
        value           nonuniform List<tensor> 
20
(
(-1.0571e-12 -6.13019e-12 0 6.12843e-12 3.13406e-11 0 0 0 0)
(1.5992e-12 7.41675e-12 0 -1.90958e-12 -6.81987e-12 0 0 0 0)
(-4.06576e-13 -1.62055e-12 0 -2.22045e-13 1.67366e-12 0 0 0 0)
(2.71051e-14 4.03291e-13 0 -3.55271e-13 -3.37666e-13 0 0 0 0)
(-2.71051e-14 -6.91927e-14 0 -2.66454e-13 6.04957e-14 0 0 0 0)
(-2.71051e-14 2.42929e-14 0 -2.66454e-13 -6.08952e-14 0 0 0 0)
(2.71051e-14 -8.40835e-15 0 -1.77636e-13 -3.6676e-14 0 0 0 0)
(0 -1.36819e-14 0 -3.10862e-13 -2.72618e-14 0 0 0 0)
(-5.42101e-14 -1.77845e-14 0 -2.22045e-13 1.80517e-14 0 0 0 0)
(0 -5.71711e-15 0 -1.77636e-13 4.38763e-14 0 0 0 0)
(0 5.04792e-15 0 -1.77636e-13 4.09201e-14 0 0 0 0)
(0 2.80918e-15 0 -1.77636e-13 2.36846e-14 0 0 0 0)
(-2.71051e-14 -9.87156e-16 0 -1.77636e-13 2.96834e-14 0 0 0 0)
(0 -2.66129e-16 0 -1.33227e-13 2.76332e-14 0 0 0 0)
(0 3.12489e-15 0 -8.88178e-14 3.07479e-14 0 0 0 0)
(-2.71051e-14 4.38819e-16 0 -4.44089e-14 1.51337e-14 0 0 0 0)
(-2.71051e-14 9.75666e-17 0 -4.44089e-14 2.89927e-14 0 0 0 0)
(0 4.65023e-15 0 8.88178e-14 1.47434e-14 0 0 0 0)
(0 4.4006e-15 0 0 1.03918e-14 0 0 0 0)
(0 1.88319e-15 0 0 -2.85899e-15 0 0 0 0)
)
;
    }
    fixedWalls
    {
        type            extrapolatedCalculated;
        value           nonuniform List<tensor> 
60
(
(-4.88498e-12 6.09243e-11 0 1.27394e-12 1.56536e-11 0 0 0 0)
(9.9476e-12 1.69012e-12 0 6.77626e-13 -2.87666e-11 0 0 0 0)
(-2.13163e-12 -5.41422e-11 0 -4.71628e-12 1.09971e-11 0 0 0 0)
(-8.79297e-12 4.56785e-11 0 3.52366e-12 1.21945e-11 0 0 0 0)
(1.18128e-11 -5.36422e-12 0 2.71051e-14 -2.21469e-11 0 0 0 0)
(-8.70415e-12 -4.2909e-11 0 -2.60209e-12 1.69484e-11 0 0 0 0)
(1.46549e-12 6.24292e-11 0 2.90024e-12 4.42254e-12 0 0 0 0)
(2.84217e-12 -2.52188e-11 0 -1.02999e-12 -2.2378e-11 0 0 0 0)
(-2.57572e-12 -2.70828e-11 0 -8.13152e-13 1.99027e-11 0 0 0 0)
(-4.44089e-13 5.43918e-11 0 0 -6.60736e-12 0 0 0 0)
(-2.57572e-12 -5.35122e-11 0 1.30104e-12 -5.34615e-12 0 0 0 0)
(4.70735e-12 3.30072e-11 0 4.33681e-13 1.32094e-11 0 0 0 0)
(-7.99361e-13 -6.74584e-13 0 -1.24683e-12 -1.66682e-11 0 0 0 0)
(-3.55271e-13 -3.36657e-11 0 -1.24683e-12 1.42844e-11 0 0 0 0)
(-5.59552e-12 5.64631e-11 0 2.60209e-12 -1.33385e-12 0 0 0 0)
(9.9476e-12 -3.9001e-11 0 -8.94467e-13 -1.63907e-11 0 0 0 0)
(-9.14824e-12 -9.09984e-12 0 -3.25261e-12 2.15668e-11 0 0 0 0)
(-3.10862e-12 4.72663e-11 0 5.71917e-12 -2.64138e-12 0 0 0 0)
(1.38112e-11 -1.96654e-11 0 -7.58942e-13 -1.96517e-11 0 0 0 0)
(-6.12843e-12 -3.13406e-11 0 -1.89735e-12 1.27515e-11 0 0 0 0)
(-4.44089e-14 -2.3165e-14 0 0 3.37334e-15 0 0 0 0)
(8.88178e-14 9.67161e-15 0 0 -1.81057e-14 0 0 0 0)
(-4.44089e-14 4.92577e-14 0 2.71051e-14 1.27831e-15 0 0 0 0)
(-8.88178e-14 4.55838e-15 0 2.71051e-14 1.91683e-14 0 0 0 0)
(-8.88178e-14 -2.74154e-14 0 -2.71051e-14 1.07677e-14 0 0 0 0)
(0 -3.85124e-14 0 -2.71051e-14 -1.0879e-15 0 0 0 0)
(-4.44089e-14 -2.30638e-14 0 2.71051e-14 -8.68138e-15 0 0 0 0)
(0 -3.78687e-15 0 -2.71051e-14 -4.94463e-16 0 0 0 0)
(0 -2.10859e-14 0 2.71051e-14 3.70948e-15 0 0 0 0)
(-8.88178e-14 -1.86248e-14 0 2.71051e-14 -4.16157e-15 0 0 0 0)
(-4.44089e-14 -4.43967e-15 0 -5.42101e-14 -4.25614e-15 0 0 0 0)
(0 -1.60026e-15 0 0 -8.14545e-16 0 0 0 0)
(0 -1.18149e-15 0 0 -1.23247e-15 0 0 0 0)
(0 3.3296e-15 0 2.71051e-14 1.29206e-15 0 0 0 0)
(-8.88178e-14 -6.34972e-15 0 0 2.58764e-15 0 0 0 0)
(0 -7.02096e-15 0 0 -1.00925e-15 0 0 0 0)
(-4.44089e-14 -2.31274e-15 0 0 -7.93059e-16 0 0 0 0)
(0 -3.84872e-15 0 -2.71051e-14 -8.06381e-16 0 0 0 0)
(0 9.12785e-16 0 0 -2.47432e-16 0 0 0 0)
(0 -2.85899e-15 0 0 -4.86552e-16 0 0 0 0)
(-7.58942e-13 1.19759e-11 0 -4.88498e-12 6.09243e-11 0 0 0 0)
(1.30104e-12 -1.44524e-11 0 1.82077e-12 -1.30209e-11 0 0 0 0)
(-3.52366e-13 3.10983e-12 0 3.9968e-13 3.11479e-12 0 0 0 0)
(-2.71051e-14 -7.23116e-13 0 3.55271e-13 -5.8154e-13 0 0 0 0)
(-8.13152e-14 1.52615e-13 0 2.22045e-13 2.22325e-13 0 0 0 0)
(0 -4.50819e-14 0 1.33227e-13 2.89199e-14 0 0 0 0)
(-2.71051e-14 -7.23833e-15 0 1.77636e-13 4.19975e-14 0 0 0 0)
(0 -1.30811e-14 0 1.33227e-13 -3.3439e-17 0 0 0 0)
(2.71051e-14 -1.97716e-15 0 1.77636e-13 -1.03269e-14 0 0 0 0)
(2.71051e-14 1.98327e-15 0 1.77636e-13 -7.94207e-15 0 0 0 0)
(0 7.47454e-15 0 2.66454e-13 -2.39383e-15 0 0 0 0)
(-2.71051e-14 1.06668e-15 0 1.33227e-13 2.19561e-14 0 0 0 0)
(-2.71051e-14 -8.57206e-16 0 1.77636e-13 1.87289e-15 0 0 0 0)
(0 9.90749e-15 0 1.33227e-13 1.85273e-14 0 0 0 0)
(0 7.69184e-15 0 1.33227e-13 4.15028e-14 0 0 0 0)
(0 -1.11005e-15 0 1.33227e-13 4.92946e-14 0 0 0 0)
(-5.42101e-14 -9.91492e-15 0 0 3.70626e-14 0 0 0 0)
(0 -8.28531e-15 0 0 9.63494e-15 0 0 0 0)
(2.71051e-14 3.3825e-15 0 0 3.9214e-15 0 0 0 0)
(-2.71051e-14 -6.77159e-15 0 4.44089e-14 2.3165e-14 0 0 0 0)
)
;
    }
    frontAndBack
    {
        type            empty;
    }
}


// ************************************************************************* //
