/*--------------------------------*- C++ -*----------------------------------*\
| =========                 |                                                 |
| \\      /  F ield         | OpenFOAM: The Open Source CFD Toolbox           |
|  \\    /   O peration     | Version:  2506                                  |
|   \\  /    A nd           | Website:  www.openfoam.com                      |
|    \\/     M anipulation  |                                                 |
\*---------------------------------------------------------------------------*/
FoamFile
{
    version     2.0;
    format      ascii;
    arch        "LSB;label=32;scalar=64";
    class       volVectorField;
    location    "7";
    object      gradPhi;
}
// * * * * * * * * * * * * * * * * * * * * * * * * * * * * * * * * * * * * * //

dimensions      [0 2 -1 0 0 0 0];

internalField   nonuniform List<vector> 
400
(
(-0.02 8.76882e-17 0)
(1.27386e-16 -1.28628e-16 0)
(-3.97047e-17 4.04084e-17 0)
(3.30872e-18 -3.88202e-18 0)
(-3.30872e-18 3.37826e-18 0)
(-1.65436e-18 8.28348e-19 0)
(0 2.13602e-19 0)
(1.65436e-18 -9.32592e-19 0)
(0 -4.56399e-19 0)
(0 -1.14834e-19 0)
(1.65436e-18 -4.01385e-19 0)
(-1.65436e-18 1.22814e-18 0)
(-1.65436e-18 4.40374e-19 0)
(0 1.18887e-21 0)
(0 5.71823e-19 0)
(-1.65436e-18 9.99666e-19 0)
(0 1.00375e-18 0)
(0 1.99743e-19 0)
(0 -3.78018e-19 0)
(0 1.33997e-18 0)
(-0.02 -1.68407e-16 0)
(-2.36574e-16 2.3473e-16 0)
(7.27919e-17 -7.16652e-17 0)
(-1.15805e-17 1.10469e-17 0)
(3.30872e-18 -3.05473e-18 0)
(0 1.4084e-18 0)
(-3.30872e-18 1.29087e-18 0)
(-1.65436e-18 1.48016e-18 0)
(1.65436e-18 3.15788e-20 0)
(0 -7.96503e-19 0)
(0 3.85329e-19 0)
(1.65436e-18 -1.00568e-18 0)
(-1.65436e-18 3.61883e-19 0)
(0 4.06355e-19 0)
(3.30872e-18 -2.02735e-18 0)
(1.65436e-18 -1.52543e-18 0)
(0 1.39871e-21 0)
(-1.65436e-18 1.17862e-20 0)
(1.65436e-18 -8.1592e-19 0)
(1.65436e-18 -2.95158e-18 0)
(-0.02 4.50427e-17 0)
(6.94832e-17 -7.03802e-17 0)
(-2.64698e-17 2.67363e-17 0)
(3.30872e-18 -4.69255e-18 0)
(-1.65436e-18 1.66367e-18 0)
(0 2.77574e-19 0)
(-1.65436e-18 1.71941e-18 0)
(-3.30872e-18 3.61561e-18 0)
(-3.30872e-18 2.83052e-18 0)
(-1.65436e-18 6.52728e-19 0)
(0 3.03498e-19 0)
(1.65436e-18 -1.13264e-18 0)
(3.30872e-18 -3.03863e-18 0)
(3.30872e-18 -2.44665e-18 0)
(-1.65436e-18 2.85467e-19 0)
(1.65436e-18 -1.41582e-18 0)
(3.30872e-18 -3.01106e-18 0)
(1.65436e-18 -9.84613e-19 0)
(-1.65436e-18 7.60079e-19 0)
(-1.65436e-18 4.98431e-19 0)
(-0.02 1.05687e-16 0)
(1.2904e-16 -1.2733e-16 0)
(-3.14329e-17 2.99169e-17 0)
(6.61744e-18 -5.97408e-18 0)
(0 5.07834e-19 0)
(0 4.21877e-19 0)
(0 -7.6308e-20 0)
(1.65436e-18 -3.01263e-18 0)
(1.65436e-18 -1.21124e-18 0)
(-1.65436e-18 1.17663e-18 0)
(1.65436e-18 -2.38203e-18 0)
(1.65436e-18 -1.67783e-18 0)
(0 6.98743e-19 0)
(-1.65436e-18 1.19113e-18 0)
(1.65436e-18 -3.09491e-19 0)
(0 3.42889e-19 0)
(-1.65436e-18 7.99279e-19 0)
(0 1.88777e-19 0)
(0 -2.12841e-19 0)
(-1.65436e-18 1.77821e-18 0)
(-0.02 -1.54763e-16 0)
(-1.98523e-16 1.98515e-16 0)
(5.45939e-17 -5.53246e-17 0)
(-9.92617e-18 1.07404e-17 0)
(1.65436e-18 -6.93172e-19 0)
(-1.65436e-18 -3.33598e-19 0)
(1.65436e-18 -7.60653e-19 0)
(0 4.3917e-19 0)
(-1.65436e-18 3.14428e-19 0)
(0 -1.26903e-19 0)
(-1.65436e-18 1.81647e-18 0)
(-1.65436e-18 9.4677e-19 0)
(0 6.42977e-19 0)
(0 -7.05162e-19 0)
(1.65436e-18 -8.02881e-19 0)
(1.65436e-18 -1.16767e-18 0)
(0 -9.03502e-19 0)
(0 1.03957e-18 0)
(-3.30872e-18 2.42097e-18 0)
(0 1.86005e-19 0)
(-0.02 1.2176e-16 0)
(1.5551e-16 -1.54995e-16 0)
(-4.30134e-17 4.39519e-17 0)
(8.27181e-18 -9.53624e-18 0)
(1.65436e-18 -1.54671e-18 0)
(3.30872e-18 -1.97757e-18 0)
(0 -1.20194e-18 0)
(1.65436e-18 -1.11714e-19 0)
(0 -7.70831e-19 0)
(0 -3.45998e-19 0)
(0 -4.66959e-19 0)
(-1.65436e-18 1.79158e-18 0)
(0 4.86768e-19 0)
(0 2.29347e-19 0)
(0 3.0297e-19 0)
(-3.30872e-18 1.81197e-18 0)
(-1.65436e-18 1.35744e-18 0)
(1.65436e-18 -7.98141e-19 0)
(0 -9.60035e-19 0)
(0 3.295e-19 0)
(-0.02 -8.94022e-19 0)
(1.32349e-17 -1.36923e-17 0)
(-9.92617e-18 8.73644e-18 0)
(1.65436e-18 -7.22399e-19 0)
(-1.65436e-18 8.53313e-19 0)
(0 -3.23105e-19 0)
(0 -7.28275e-19 0)
(1.65436e-18 -6.21624e-19 0)
(-1.65436e-18 1.18744e-18 0)
(-3.30872e-18 2.30726e-18 0)
(0 1.62375e-18 0)
(0 -4.73587e-19 0)
(0 -3.82557e-19 0)
(0 3.9118e-19 0)
(-1.65436e-18 1.87405e-18 0)
(0 5.0658e-19 0)
(-1.65436e-18 1.30151e-18 0)
(0 5.70694e-19 0)
(0 -8.01495e-19 0)
(1.65436e-18 -1.26787e-18 0)
(-0.02 -9.59236e-17 0)
(-1.45584e-16 1.47842e-16 0)
(5.29396e-17 -5.4364e-17 0)
(-6.61744e-18 6.60233e-18 0)
(1.65436e-18 -2.00114e-18 0)
(0 8.66627e-19 0)
(0 5.8498e-19 0)
(0 1.16181e-19 0)
(1.65436e-18 -1.49939e-18 0)
(3.30872e-18 -3.42279e-18 0)
(1.65436e-18 -7.64454e-19 0)
(0 5.31751e-19 0)
(0 -1.41579e-19 0)
(0 -1.52565e-19 0)
(0 -1.3021e-19 0)
(-1.65436e-18 1.07784e-18 0)
(-1.65436e-18 -1.45587e-19 0)
(0 9.53189e-19 0)
(0 1.75246e-19 0)
(0 3.08823e-19 0)
(-0.02 7.61299e-17 0)
(1.22423e-16 -1.22581e-16 0)
(-4.96308e-17 4.9052e-17 0)
(6.61744e-18 -4.99006e-18 0)
(-1.65436e-18 1.44985e-18 0)
(1.65436e-18 -2.01166e-18 0)
(0 -5.78142e-19 0)
(0 -1.63483e-19 0)
(0 2.09195e-19 0)
(1.65436e-18 8.85241e-20 0)
(-1.65436e-18 9.24041e-19 0)
(-1.65436e-18 1.47023e-18 0)
(-1.65436e-18 1.59985e-18 0)
(-3.30872e-18 1.3014e-18 0)
(0 1.8376e-18 0)
(0 3.23039e-19 0)
(0 -7.54389e-19 0)
(3.30872e-18 -3.21293e-18 0)
(0 3.66837e-19 0)
(0 7.96006e-19 0)
(-0.02 -1.62568e-17 0)
(-3.47416e-17 3.50687e-17 0)
(1.65436e-17 -1.715e-17 0)
(-3.30872e-18 2.6917e-18 0)
(0 -6.62533e-19 0)
(1.65436e-18 1.84912e-19 0)
(0 -5.84676e-19 0)
(1.65436e-18 -4.56929e-19 0)
(1.65436e-18 -8.89427e-19 0)
(-3.30872e-18 1.26342e-18 0)
(0 -5.21371e-19 0)
(3.30872e-18 -2.08485e-18 0)
(0 -3.47026e-19 0)
(-1.65436e-18 7.17988e-19 0)
(3.30872e-18 -1.71652e-18 0)
(0 -1.1468e-18 0)
(0 1.50608e-18 0)
(-3.30872e-18 2.94767e-18 0)
(0 -1.55646e-18 0)
(1.65436e-18 -1.11475e-18 0)
(-0.02 8.22367e-19 0)
(-1.32349e-17 1.3269e-17 0)
(1.15805e-17 -1.08667e-17 0)
(0 -8.76641e-19 0)
(0 -4.57666e-19 0)
(0 -3.8884e-19 0)
(0 -1.05468e-18 0)
(1.65436e-18 -2.75816e-19 0)
(-1.65436e-18 -1.1641e-19 0)
(3.30872e-18 -2.15428e-18 0)
(1.65436e-18 -1.72561e-18 0)
(-1.65436e-18 6.75916e-19 0)
(0 -2.71145e-19 0)
(0 -1.74555e-19 0)
(0 4.81697e-19 0)
(-1.65436e-18 1.53232e-18 0)
(1.65436e-18 -1.19602e-18 0)
(1.65436e-18 -9.64978e-19 0)
(-1.65436e-18 8.47397e-19 0)
(0 1.55462e-19 0)
(-0.02 1.14217e-17 0)
(4.46678e-17 -4.39632e-17 0)
(-2.97785e-17 2.91667e-17 0)
(3.30872e-18 -3.28931e-18 0)
(0 -2.77986e-19 0)
(-1.65436e-18 6.39599e-19 0)
(-1.65436e-18 9.14237e-19 0)
(0 -4.82709e-19 0)
(1.65436e-18 1.99512e-19 0)
(-1.65436e-18 2.47609e-18 0)
(-1.65436e-18 1.47551e-18 0)
(0 -6.39987e-19 0)
(0 3.64829e-20 0)
(0 -3.63391e-19 0)
(0 -6.59867e-19 0)
(0 -1.02644e-19 0)
(-1.65436e-18 1.87341e-18 0)
(-1.65436e-18 9.68384e-19 0)
(0 -6.56421e-19 0)
(0 8.46591e-20 0)
(-0.02 -4.02898e-17 0)
(-7.7755e-17 7.89196e-17 0)
(3.80503e-17 -3.91611e-17 0)
(-6.61744e-18 6.24221e-18 0)
(0 1.09039e-18 0)
(0 1.9174e-19 0)
(0 -1.05336e-18 0)
(1.65436e-18 -1.14576e-18 0)
(0 -3.98647e-19 0)
(0 -3.57773e-19 0)
(0 9.58767e-19 0)
(0 8.91202e-19 0)
(0 8.90706e-21 0)
(-1.65436e-18 6.5372e-19 0)
(0 2.43706e-18 0)
(0 -1.11683e-18 0)
(3.30872e-18 -3.37867e-18 0)
(3.30872e-18 -3.29313e-18 0)
(0 4.60452e-19 0)
(0 -5.14551e-20 0)
(-0.02 4.70642e-17 0)
(7.61006e-17 -7.53528e-17 0)
(-3.47416e-17 3.35008e-17 0)
(8.27181e-18 -6.48047e-18 0)
(0 -1.4633e-18 0)
(0 -9.53753e-19 0)
(1.65436e-18 -6.60517e-19 0)
(-1.65436e-18 9.70585e-19 0)
(0 1.43934e-18 0)
(0 6.23679e-19 0)
(-1.65436e-18 1.21547e-18 0)
(-1.65436e-18 5.82402e-19 0)
(1.65436e-18 -3.01568e-19 0)
(1.65436e-18 -1.21447e-18 0)
(0 -1.05148e-18 0)
(0 -3.19277e-19 0)
(0 6.61532e-19 0)
(-3.30872e-18 2.70137e-18 0)
(1.65436e-18 4.4874e-19 0)
(0 -5.59756e-19 0)
(-0.02 3.19129e-17 0)
(2.31611e-17 -2.49821e-17 0)
(4.96308e-18 -4.1106e-18 0)
(1.65436e-18 -1.53742e-18 0)
(-3.30872e-18 1.78909e-18 0)
(0 1.07879e-19 0)
(-1.65436e-18 1.78108e-18 0)
(0 7.73878e-20 0)
(1.65436e-18 -1.83924e-18 0)
(3.30872e-18 -1.39904e-18 0)
(0 -1.39069e-18 0)
(0 9.32751e-19 0)
(-3.30872e-18 2.05837e-18 0)
(1.65436e-18 2.71879e-19 0)
(1.65436e-18 -2.87939e-18 0)
(1.65436e-18 -1.36418e-18 0)
(-1.65436e-18 7.10647e-20 0)
(1.65436e-18 -3.94906e-19 0)
(0 -4.2994e-19 0)
(-1.65436e-18 1.44674e-18 0)
(-0.02 -1.20332e-16 0)
(-1.60473e-16 1.59087e-16 0)
(4.1359e-17 -4.13168e-17 0)
(-8.27181e-18 7.72864e-18 0)
(3.30872e-18 -3.22683e-18 0)
(0 8.0094e-19 0)
(0 2.7864e-19 0)
(0 -2.65801e-19 0)
(-1.65436e-18 1.02402e-18 0)
(-1.65436e-18 1.3091e-18 0)
(1.65436e-18 -4.82642e-19 0)
(0 -7.28614e-19 0)
(0 5.31293e-19 0)
(0 5.0037e-20 0)
(0 -1.80465e-19 0)
(1.65436e-18 -8.3083e-19 0)
(0 -9.61169e-19 0)
(1.65436e-18 -1.70293e-18 0)
(0 -8.4336e-20 0)
(1.65436e-18 -1.68458e-18 0)
(-0.02 1.29812e-16 0)
(1.8198e-16 -1.83053e-16 0)
(-5.79026e-17 5.7343e-17 0)
(8.27181e-18 -7.94777e-18 0)
(-1.65436e-18 2.03515e-18 0)
(0 2.68632e-19 0)
(0 1.97561e-19 0)
(0 1.76168e-20 0)
(1.65436e-18 -2.57353e-19 0)
(-1.65436e-18 -5.57445e-20 0)
(0 -7.61278e-20 0)
(1.65436e-18 -1.50178e-18 0)
(3.30872e-18 -2.11935e-18 0)
(0 8.61506e-19 0)
(-3.30872e-18 2.17735e-18 0)
(-1.65436e-18 9.17443e-19 0)
(0 9.35976e-19 0)
(0 1.36266e-18 0)
(0 -2.06588e-19 0)
(-1.65436e-18 1.31099e-18 0)
(-0.02 1.13113e-17 0)
(1.65436e-18 -1.95777e-18 0)
(8.27181e-18 -7.95716e-18 0)
(0 1.26853e-19 0)
(-1.65436e-18 1.61526e-18 0)
(0 7.95887e-19 0)
(0 4.12893e-21 0)
(0 -8.21221e-19 0)
(3.30872e-18 -1.76839e-18 0)
(1.65436e-18 -2.84373e-18 0)
(0 -6.00143e-19 0)
(-1.65436e-18 6.14422e-19 0)
(1.65436e-18 -7.41402e-20 0)
(0 -5.35629e-19 0)
(-1.65436e-18 3.45023e-19 0)
(0 9.65807e-19 0)
(0 -6.05895e-19 0)
(0 -2.40102e-19 0)
(0 9.12117e-19 0)
(0 -7.26811e-19 0)
(-0.02 -1.58762e-16 0)
(-2.03486e-16 2.04168e-16 0)
(4.96308e-17 -5.10379e-17 0)
(-9.92617e-18 9.65277e-18 0)
(3.30872e-18 -2.829e-18 0)
(0 -1.6128e-19 0)
(0 -3.13712e-19 0)
(-1.65436e-18 1.51633e-18 0)
(0 6.60238e-19 0)
(-1.65436e-18 5.1593e-19 0)
(0 -1.69223e-19 0)
(0 -2.5311e-19 0)
(1.65436e-18 -5.0759e-19 0)
(1.65436e-18 -9.89242e-19 0)
(1.65436e-18 -1.83834e-18 0)
(0 -2.73496e-19 0)
(0 2.67031e-19 0)
(0 4.73023e-19 0)
(0 -2.89615e-19 0)
(0 9.12993e-20 0)
(-0.02 8.69763e-17 0)
(1.27386e-16 -1.24684e-16 0)
(-3.63959e-17 3.41416e-17 0)
(6.61744e-18 -4.90284e-18 0)
(-1.65436e-18 1.83026e-18 0)
(0 -6.42605e-19 0)
(-1.65436e-18 2.77438e-20 0)
(0 5.72421e-20 0)
(-1.65436e-18 1.31105e-18 0)
(0 1.20423e-18 0)
(0 2.77797e-19 0)
(0 -1.67077e-19 0)
(0 3.17922e-19 0)
(-1.65436e-18 5.05931e-19 0)
(0 1.28297e-18 0)
(0 7.85426e-19 0)
(-1.65436e-18 1.17781e-18 0)
(0 1.74863e-19 0)
(0 -1.71815e-22 0)
(0 3.07073e-20 0)
)
;

boundaryField
{
    movingWall
    {
        type            extrapolatedCalculated;
        value           nonuniform List<vector> 
20
(
(-0.02 8.69763e-17 0)
(1.27386e-16 -1.24684e-16 0)
(-3.63959e-17 3.41416e-17 0)
(6.61744e-18 -4.90284e-18 0)
(-1.65436e-18 1.83026e-18 0)
(0 -6.42605e-19 0)
(-1.65436e-18 2.77438e-20 0)
(0 5.72421e-20 0)
(-1.65436e-18 1.31105e-18 0)
(0 1.20423e-18 0)
(0 2.77797e-19 0)
(0 -1.67077e-19 0)
(0 3.17922e-19 0)
(-1.65436e-18 5.05931e-19 0)
(0 1.28297e-18 0)
(0 7.85426e-19 0)
(-1.65436e-18 1.17781e-18 0)
(0 1.74863e-19 0)
(0 -1.71815e-22 0)
(0 3.07073e-20 0)
)
;
    }
    fixedWalls
    {
        type            extrapolatedCalculated;
        value           nonuniform List<vector> 
60
(
(-0.02 8.76882e-17 0)
(-0.02 -1.68407e-16 0)
(-0.02 4.50427e-17 0)
(-0.02 1.05687e-16 0)
(-0.02 -1.54763e-16 0)
(-0.02 1.2176e-16 0)
(-0.02 -8.94022e-19 0)
(-0.02 -9.59236e-17 0)
(-0.02 7.61299e-17 0)
(-0.02 -1.62568e-17 0)
(-0.02 8.22367e-19 0)
(-0.02 1.14217e-17 0)
(-0.02 -4.02898e-17 0)
(-0.02 4.70642e-17 0)
(-0.02 3.19129e-17 0)
(-0.02 -1.20332e-16 0)
(-0.02 1.29812e-16 0)
(-0.02 1.13113e-17 0)
(-0.02 -1.58762e-16 0)
(-0.02 8.69763e-17 0)
(0 1.33997e-18 0)
(1.65436e-18 -2.95158e-18 0)
(-1.65436e-18 4.98431e-19 0)
(-1.65436e-18 1.77821e-18 0)
(0 1.86005e-19 0)
(0 3.295e-19 0)
(1.65436e-18 -1.26787e-18 0)
(0 3.08823e-19 0)
(0 7.96006e-19 0)
(1.65436e-18 -1.11475e-18 0)
(0 1.55462e-19 0)
(0 8.46591e-20 0)
(0 -5.14551e-20 0)
(0 -5.59756e-19 0)
(-1.65436e-18 1.44674e-18 0)
(1.65436e-18 -1.68458e-18 0)
(-1.65436e-18 1.31099e-18 0)
(0 -7.26811e-19 0)
(0 9.12993e-20 0)
(0 3.07073e-20 0)
(-0.02 8.76882e-17 0)
(1.27386e-16 -1.28628e-16 0)
(-3.97047e-17 4.04084e-17 0)
(3.30872e-18 -3.88202e-18 0)
(-3.30872e-18 3.37826e-18 0)
(-1.65436e-18 8.28348e-19 0)
(0 2.13602e-19 0)
(1.65436e-18 -9.32592e-19 0)
(0 -4.56399e-19 0)
(0 -1.14834e-19 0)
(1.65436e-18 -4.01385e-19 0)
(-1.65436e-18 1.22814e-18 0)
(-1.65436e-18 4.40374e-19 0)
(0 1.18887e-21 0)
(0 5.71823e-19 0)
(-1.65436e-18 9.99666e-19 0)
(0 1.00375e-18 0)
(0 1.99743e-19 0)
(0 -3.78018e-19 0)
(0 1.33997e-18 0)
)
;
    }
    frontAndBack
    {
        type            empty;
    }
}


// ************************************************************************* //
