/*--------------------------------*- C++ -*----------------------------------*\
| =========                 |                                                 |
| \\      /  F ield         | OpenFOAM: The Open Source CFD Toolbox           |
|  \\    /   O peration     | Version:  2506                                  |
|   \\  /    A nd           | Website:  www.openfoam.com                      |
|    \\/     M anipulation  |                                                 |
\*---------------------------------------------------------------------------*/
FoamFile
{
    version     2.0;
    format      ascii;
    arch        "LSB;label=32;scalar=64";
    class       volScalarField;
    location    "7";
    object      initialResidual:epsilon;
}
// * * * * * * * * * * * * * * * * * * * * * * * * * * * * * * * * * * * * * //

dimensions      [0 0 0 0 0 0 0];

internalField   nonuniform List<scalar> 
400
(
0
0
0
0
0
0
0
0
0
0
0
0
0
0
0
0
0
0
0
0
0
-3.33949e-13
-3.34768e-13
-3.34605e-13
-3.34934e-13
-3.3522e-13
-3.35667e-13
-3.35908e-13
-3.3634e-13
-3.36652e-13
-3.37008e-13
-3.37388e-13
-3.37712e-13
-3.38092e-13
-3.38455e-13
-3.38784e-13
-3.39226e-13
-3.39482e-13
-6.79034e-13
0
0
-3.71179e-13
-3.72321e-13
-3.72075e-13
-3.72445e-13
-3.72784e-13
-3.73306e-13
-3.73586e-13
-3.74087e-13
-3.74454e-13
-3.74857e-13
-3.75309e-13
-3.75668e-13
-3.76119e-13
-3.76524e-13
-3.76906e-13
-3.77412e-13
-3.77697e-13
-7.56217e-13
0
0
-4.06973e-13
-4.08241e-13
-4.07975e-13
-4.08395e-13
-4.08773e-13
-4.09359e-13
-4.09671e-13
-4.10233e-13
-4.10644e-13
-4.11096e-13
-4.11602e-13
-4.12004e-13
-4.1251e-13
-4.12962e-13
-4.13393e-13
-4.13958e-13
-4.1428e-13
-8.29448e-13
0
0
-4.33478e-13
-4.3486e-13
-4.34575e-13
-4.35029e-13
-4.35439e-13
-4.36074e-13
-4.36412e-13
-4.37022e-13
-4.37466e-13
-4.37958e-13
-4.38503e-13
-4.38944e-13
-4.39487e-13
-4.39983e-13
-4.40446e-13
-4.41061e-13
-4.41409e-13
-8.83771e-13
0
0
-4.50533e-13
-4.5199e-13
-4.51694e-13
-4.52174e-13
-4.52602e-13
-4.53271e-13
-4.53625e-13
-4.54267e-13
-4.54733e-13
-4.55251e-13
-4.55824e-13
-4.56287e-13
-4.5686e-13
-4.57379e-13
-4.57869e-13
-4.58514e-13
-4.58882e-13
-9.18762e-13
0
0
-4.60778e-13
-4.62231e-13
-4.61944e-13
-4.62443e-13
-4.62884e-13
-4.6357e-13
-4.63938e-13
-4.64597e-13
-4.65078e-13
-4.65612e-13
-4.66202e-13
-4.66678e-13
-4.67269e-13
-4.67802e-13
-4.68309e-13
-4.68971e-13
-4.69352e-13
-9.39732e-13
0
0
-4.66837e-13
-4.68374e-13
-4.68064e-13
-4.68565e-13
-4.69015e-13
-4.69714e-13
-4.70087e-13
-4.70759e-13
-4.71247e-13
-4.71792e-13
-4.7239e-13
-4.72879e-13
-4.73475e-13
-4.74023e-13
-4.74534e-13
-4.75211e-13
-4.75597e-13
-9.52243e-13
0
0
-4.70756e-13
-4.72273e-13
-4.71972e-13
-4.72485e-13
-4.72938e-13
-4.73645e-13
-4.74022e-13
-4.747e-13
-4.75195e-13
-4.75744e-13
-4.76351e-13
-4.76842e-13
-4.77448e-13
-4.78e-13
-4.78518e-13
-4.79202e-13
-4.79592e-13
-9.60245e-13
0
0
-4.73592e-13
-4.75155e-13
-4.74842e-13
-4.75354e-13
-4.75812e-13
-4.76525e-13
-4.76905e-13
-4.77589e-13
-4.78087e-13
-4.78642e-13
-4.79251e-13
-4.79749e-13
-4.80357e-13
-4.80915e-13
-4.81436e-13
-4.82125e-13
-4.8252e-13
-9.66108e-13
0
0
-4.76064e-13
-4.77599e-13
-4.77296e-13
-4.77816e-13
-4.78275e-13
-4.78992e-13
-4.79375e-13
-4.80064e-13
-4.80565e-13
-4.81124e-13
-4.81737e-13
-4.82239e-13
-4.8285e-13
-4.83413e-13
-4.83936e-13
-4.84632e-13
-4.85028e-13
-9.71131e-13
0
0
-4.78439e-13
-4.79996e-13
-4.79688e-13
-4.8021e-13
-4.80673e-13
-4.81395e-13
-4.81779e-13
-4.82473e-13
-4.82976e-13
-4.8354e-13
-4.84156e-13
-4.84661e-13
-4.85277e-13
-4.85843e-13
-4.8637e-13
-4.8707e-13
-4.87468e-13
-9.76017e-13
0
0
-4.80955e-13
-4.82516e-13
-4.82209e-13
-4.82736e-13
-4.83202e-13
-4.83927e-13
-4.84315e-13
-4.85013e-13
-4.85521e-13
-4.86085e-13
-4.8671e-13
-4.87214e-13
-4.87837e-13
-4.88404e-13
-4.88936e-13
-4.89641e-13
-4.90041e-13
-9.8117e-13
0
0
-4.83742e-13
-4.85287e-13
-4.84987e-13
-4.8552e-13
-4.8599e-13
-4.8672e-13
-4.87112e-13
-4.87813e-13
-4.88325e-13
-4.88894e-13
-4.89521e-13
-4.90031e-13
-4.90657e-13
-4.91228e-13
-4.91766e-13
-4.92473e-13
-4.92878e-13
-9.8685e-13
0
0
-4.8684e-13
-4.88424e-13
-4.88116e-13
-4.8865e-13
-4.89123e-13
-4.89861e-13
-4.90253e-13
-4.90963e-13
-4.91476e-13
-4.92053e-13
-4.92681e-13
-4.93197e-13
-4.93827e-13
-4.94406e-13
-4.94945e-13
-4.95661e-13
-4.96067e-13
-9.93236e-13
0
0
-4.90311e-13
-4.91938e-13
-4.91616e-13
-4.92153e-13
-4.9263e-13
-4.93374e-13
-4.93772e-13
-4.94486e-13
-4.95006e-13
-4.95586e-13
-4.96222e-13
-4.96743e-13
-4.97377e-13
-4.97961e-13
-4.98505e-13
-4.99226e-13
-4.99637e-13
-1.00038e-12
0
0
-4.94099e-13
-4.95687e-13
-4.9538e-13
-4.95929e-13
-4.96408e-13
-4.9716e-13
-4.97561e-13
-4.98283e-13
-4.98806e-13
-4.99394e-13
-5.00033e-13
-5.00561e-13
-5.01199e-13
-5.01789e-13
-5.02339e-13
-5.03066e-13
-5.03483e-13
-1.00808e-12
0
0
-4.97774e-13
-4.99422e-13
-4.991e-13
-4.99648e-13
-5.00133e-13
-5.0089e-13
-5.01294e-13
-5.02023e-13
-5.02548e-13
-5.03143e-13
-5.03786e-13
-5.04321e-13
-5.04964e-13
-5.05561e-13
-5.06114e-13
-5.06849e-13
-5.07269e-13
-1.01566e-12
0
0
-5.02026e-13
-5.03969e-13
-5.03506e-13
-5.03998e-13
-5.04491e-13
-5.05229e-13
-5.05628e-13
-5.06334e-13
-5.06878e-13
-5.07427e-13
-5.0811e-13
-5.08589e-13
-5.09276e-13
-5.09827e-13
-5.10412e-13
-5.11126e-13
-5.11556e-13
-1.02309e-12
0
0
0
0
0
0
0
0
0
0
0
0
0
0
0
0
0
0
0
0
0
)
;

boundaryField
{
    movingWall
    {
        type            zeroGradient;
    }
    fixedWalls
    {
        type            zeroGradient;
    }
    frontAndBack
    {
        type            empty;
    }
}


// ************************************************************************* //
