/*--------------------------------*- C++ -*----------------------------------*\
| =========                 |                                                 |
| \\      /  F ield         | OpenFOAM: The Open Source CFD Toolbox           |
|  \\    /   O peration     | Version:  2506                                  |
|   \\  /    A nd           | Website:  www.openfoam.com                      |
|    \\/     M anipulation  |                                                 |
\*---------------------------------------------------------------------------*/
FoamFile
{
    version     2.0;
    format      ascii;
    arch        "LSB;label=32;scalar=64";
    class       volScalarField;
    location    "7";
    object      initialResidual:k;
}
// * * * * * * * * * * * * * * * * * * * * * * * * * * * * * * * * * * * * * //

dimensions      [0 0 0 0 0 0 0];

internalField   nonuniform List<scalar> 
400
(
-5.38514e-13
-5.38559e-13
-5.38539e-13
-5.38556e-13
-5.3856e-13
-5.38557e-13
-5.38561e-13
-5.38574e-13
-5.38538e-13
-5.38577e-13
-5.38534e-13
-5.38567e-13
-5.3855e-13
-5.38564e-13
-5.38544e-13
-5.38558e-13
-5.38548e-13
-5.38553e-13
-5.38551e-13
-5.38552e-13
-5.75517e-13
-5.73134e-13
-5.76823e-13
-5.7535e-13
-5.75429e-13
-5.75204e-13
-5.75485e-13
-5.74922e-13
-5.75455e-13
-5.74842e-13
-5.75038e-13
-5.7505e-13
-5.75231e-13
-5.74988e-13
-5.75173e-13
-5.75088e-13
-5.75183e-13
-5.75124e-13
-5.75113e-13
-5.75057e-13
-6.27379e-13
-6.26494e-13
-6.27843e-13
-6.2677e-13
-6.2743e-13
-6.26543e-13
-6.27344e-13
-6.26638e-13
-6.27187e-13
-6.26816e-13
-6.2711e-13
-6.26898e-13
-6.26805e-13
-6.26943e-13
-6.26833e-13
-6.26869e-13
-6.26896e-13
-6.26962e-13
-6.26782e-13
-6.26838e-13
-6.73841e-13
-6.7277e-13
-6.74483e-13
-6.73341e-13
-6.73966e-13
-6.72975e-13
-6.74025e-13
-6.73021e-13
-6.7418e-13
-6.72895e-13
-6.74201e-13
-6.72598e-13
-6.74204e-13
-6.72557e-13
-6.73791e-13
-6.72919e-13
-6.73485e-13
-6.73132e-13
-6.73305e-13
-6.73294e-13
-7.06896e-13
-7.05767e-13
-7.07472e-13
-7.06178e-13
-7.06914e-13
-7.05933e-13
-7.06915e-13
-7.06e-13
-7.06676e-13
-7.06246e-13
-7.0637e-13
-7.06375e-13
-7.06167e-13
-7.06287e-13
-7.0632e-13
-7.06255e-13
-7.06321e-13
-7.06284e-13
-7.06229e-13
-7.06227e-13
-7.27143e-13
-7.25936e-13
-7.27998e-13
-7.26873e-13
-7.27306e-13
-7.26328e-13
-7.27522e-13
-7.26295e-13
-7.27499e-13
-7.26207e-13
-7.27416e-13
-7.26112e-13
-7.26896e-13
-7.26505e-13
-7.26621e-13
-7.26747e-13
-7.2671e-13
-7.26585e-13
-7.26673e-13
-7.26625e-13
-7.39069e-13
-7.37115e-13
-7.40369e-13
-7.3873e-13
-7.3938e-13
-7.38068e-13
-7.39281e-13
-7.38238e-13
-7.39533e-13
-7.37815e-13
-7.40449e-13
-7.36765e-13
-7.40549e-13
-7.36549e-13
-7.39932e-13
-7.37217e-13
-7.39009e-13
-7.38037e-13
-7.3844e-13
-7.38477e-13
-7.46066e-13
-7.45413e-13
-7.46412e-13
-7.45292e-13
-7.46172e-13
-7.45123e-13
-7.46105e-13
-7.45193e-13
-7.45892e-13
-7.45382e-13
-7.45739e-13
-7.45543e-13
-7.45318e-13
-7.45544e-13
-7.45425e-13
-7.4544e-13
-7.45493e-13
-7.45559e-13
-7.45347e-13
-7.4541e-13
-7.50487e-13
-7.49517e-13
-7.50941e-13
-7.49821e-13
-7.50864e-13
-7.49422e-13
-7.5068e-13
-7.49604e-13
-7.50351e-13
-7.49866e-13
-7.49867e-13
-7.50017e-13
-7.49787e-13
-7.49908e-13
-7.49881e-13
-7.49849e-13
-7.49877e-13
-7.49961e-13
-7.49763e-13
-7.49826e-13
-7.53791e-13
-7.52589e-13
-7.54385e-13
-7.53167e-13
-7.5389e-13
-7.5278e-13
-7.5392e-13
-7.52866e-13
-7.53679e-13
-7.53154e-13
-7.5308e-13
-7.53274e-13
-7.53098e-13
-7.53137e-13
-7.53184e-13
-7.5306e-13
-7.5321e-13
-7.53262e-13
-7.53011e-13
-7.53093e-13
-7.56657e-13
-7.5542e-13
-7.57228e-13
-7.56032e-13
-7.56792e-13
-7.55598e-13
-7.56619e-13
-7.55715e-13
-7.56559e-13
-7.55982e-13
-7.55866e-13
-7.56107e-13
-7.55981e-13
-7.55962e-13
-7.56041e-13
-7.559e-13
-7.56054e-13
-7.56107e-13
-7.55852e-13
-7.55935e-13
-7.59455e-13
-7.58044e-13
-7.6015e-13
-7.58926e-13
-7.59382e-13
-7.58426e-13
-7.59571e-13
-7.58358e-13
-7.59349e-13
-7.5856e-13
-7.59804e-13
-7.57987e-13
-7.59216e-13
-7.58443e-13
-7.58816e-13
-7.58794e-13
-7.58853e-13
-7.58662e-13
-7.58777e-13
-7.58732e-13
-7.6224e-13
-7.60773e-13
-7.63306e-13
-7.61913e-13
-7.62485e-13
-7.6142e-13
-7.62441e-13
-7.61346e-13
-7.62352e-13
-7.61431e-13
-7.63753e-13
-7.60038e-13
-7.63784e-13
-7.59875e-13
-7.63017e-13
-7.60577e-13
-7.62203e-13
-7.61295e-13
-7.61672e-13
-7.61702e-13
-7.65609e-13
-7.63712e-13
-7.67012e-13
-7.65072e-13
-7.6599e-13
-7.64606e-13
-7.65833e-13
-7.64757e-13
-7.66267e-13
-7.64173e-13
-7.66606e-13
-7.63721e-13
-7.6568e-13
-7.64336e-13
-7.65351e-13
-7.64767e-13
-7.65063e-13
-7.65026e-13
-7.64998e-13
-7.64988e-13
-7.69316e-13
-7.66166e-13
-7.71349e-13
-7.69068e-13
-7.69269e-13
-7.68833e-13
-7.69292e-13
-7.68471e-13
-7.69291e-13
-7.6861e-13
-7.69064e-13
-7.68542e-13
-7.68604e-13
-7.68715e-13
-7.68882e-13
-7.68733e-13
-7.68893e-13
-7.68784e-13
-7.68778e-13
-7.68697e-13
-7.73532e-13
-7.72887e-13
-7.73837e-13
-7.72751e-13
-7.73765e-13
-7.72461e-13
-7.73735e-13
-7.72542e-13
-7.73995e-13
-7.72223e-13
-7.74407e-13
-7.71677e-13
-7.7418e-13
-7.71848e-13
-7.73101e-13
-7.72686e-13
-7.72796e-13
-7.73014e-13
-7.7284e-13
-7.72868e-13
-7.7808e-13
-7.7678e-13
-7.78848e-13
-7.77509e-13
-7.78298e-13
-7.7701e-13
-7.78169e-13
-7.77177e-13
-7.78006e-13
-7.77447e-13
-7.77471e-13
-7.77567e-13
-7.77373e-13
-7.77435e-13
-7.77471e-13
-7.7739e-13
-7.77498e-13
-7.7749e-13
-7.77362e-13
-7.77388e-13
-7.82466e-13
-7.83463e-13
-7.81798e-13
-7.81635e-13
-7.82907e-13
-7.81619e-13
-7.82774e-13
-7.81695e-13
-7.82366e-13
-7.81878e-13
-7.81816e-13
-7.81984e-13
-7.81904e-13
-7.81891e-13
-7.81987e-13
-7.8187e-13
-7.81961e-13
-7.82017e-13
-7.81801e-13
-7.81869e-13
-7.86293e-13
-7.86e-13
-7.86212e-13
-7.85458e-13
-7.86591e-13
-7.85115e-13
-7.86517e-13
-7.85274e-13
-7.87134e-13
-7.84612e-13
-7.87318e-13
-7.84165e-13
-7.87241e-13
-7.84233e-13
-7.86299e-13
-7.85049e-13
-7.85852e-13
-7.85394e-13
-7.85619e-13
-7.85607e-13
-7.88116e-13
-7.87295e-13
-7.88338e-13
-7.87111e-13
-7.88423e-13
-7.87196e-13
-7.88233e-13
-7.87397e-13
-7.88032e-13
-7.87566e-13
-7.87919e-13
-7.87676e-13
-7.87781e-13
-7.87761e-13
-7.87769e-13
-7.87768e-13
-7.8777e-13
-7.87767e-13
-7.87768e-13
-7.87768e-13
)
;

boundaryField
{
    movingWall
    {
        type            zeroGradient;
    }
    fixedWalls
    {
        type            zeroGradient;
    }
    frontAndBack
    {
        type            empty;
    }
}


// ************************************************************************* //
