/*--------------------------------*- C++ -*----------------------------------*\
| =========                 |                                                 |
| \\      /  F ield         | OpenFOAM: The Open Source CFD Toolbox           |
|  \\    /   O peration     | Version:  2506                                  |
|   \\  /    A nd           | Website:  www.openfoam.com                      |
|    \\/     M anipulation  |                                                 |
\*---------------------------------------------------------------------------*/
FoamFile
{
    version     2.0;
    format      ascii;
    arch        "LSB;label=32;scalar=64";
    class       volScalarField;
    location    "7";
    object      initialResidual:p;
}
// * * * * * * * * * * * * * * * * * * * * * * * * * * * * * * * * * * * * * //

dimensions      [0 0 0 0 0 0 0];

internalField   nonuniform List<scalar> 
400
(
-4.06577e-20
2.8028e-20
-1.43543e-20
-7.36523e-21
1.27276e-21
6.12286e-21
9.00906e-21
-5.7924e-21
2.84276e-21
2.63255e-21
-1.38379e-20
4.56647e-21
1.24806e-21
7.06247e-21
-7.54528e-21
-3.01011e-22
-1.36976e-20
-1.04654e-21
1.0502e-20
2.7969e-26
1.3553e-20
-1.76928e-20
7.5304e-21
6.89551e-21
-1.404e-20
1.36991e-22
1.74014e-20
-2.08053e-20
-1.21544e-20
2.83859e-20
7.54595e-21
-3.97649e-20
-5.54007e-21
2.22213e-20
2.5995e-20
-7.01684e-21
-1.96457e-20
-1.2434e-20
2.10967e-20
4.06769e-26
-2.03291e-20
-7.44491e-21
-2.33719e-21
6.69429e-21
9.43208e-21
-1.64396e-20
-5.03267e-21
1.65796e-20
1.09077e-20
5.65498e-21
2.32865e-21
-1.81324e-20
2.1032e-20
-3.05604e-20
-9.17041e-21
5.41482e-21
1.45869e-20
-5.13358e-21
-1.37314e-20
-6.77625e-21
-1.35525e-20
1.60236e-20
3.68007e-21
-3.08783e-21
-9.13296e-23
-5.96001e-21
-1.53152e-20
-9.69945e-21
3.4979e-21
9.31805e-21
4.70019e-21
-1.87461e-21
-6.33881e-23
-4.6246e-21
8.92936e-21
-9.19965e-21
8.4663e-21
-1.24685e-20
-2.9876e-21
4.91628e-26
6.77615e-21
-7.7549e-21
4.03585e-21
1.94746e-20
-2.5248e-21
-3.70314e-21
5.13633e-21
5.85091e-21
5.0249e-21
2.22323e-21
-6.47027e-21
-6.75687e-21
1.36858e-20
-1.26409e-20
-3.86434e-21
2.39985e-20
-9.62566e-21
-1.38408e-20
6.615e-21
5.77546e-27
-3.38814e-20
2.57751e-20
-1.11666e-20
9.76701e-21
1.7432e-20
-9.52022e-21
-9.05182e-21
-6.09119e-21
5.55553e-21
8.2198e-21
-6.38888e-21
1.02455e-20
1.38075e-20
-1.37121e-20
1.88509e-21
-4.60211e-21
-1.72855e-20
-2.91564e-21
1.04369e-20
6.7763e-21
-1.35528e-20
8.48608e-21
-1.29111e-20
1.85995e-21
5.24599e-21
-1.3142e-20
1.54184e-20
-9.51087e-22
-1.09278e-21
1.06321e-20
-4.69159e-21
-3.90312e-21
1.61399e-20
-7.12421e-23
-2.66632e-20
3.28378e-23
-1.4946e-22
-1.20185e-20
1.21265e-20
6.77626e-21
1.35528e-20
2.08305e-21
-1.25644e-20
1.10933e-20
-8.84497e-21
6.93746e-23
-8.04016e-21
-3.45805e-21
1.40408e-21
-2.80154e-21
-1.89463e-21
-1.14496e-20
7.99067e-21
3.82835e-22
-6.64745e-21
-1.78612e-21
7.24692e-21
-1.49835e-20
6.21219e-21
6.77629e-21
-1.35529e-20
-1.66231e-21
-1.45755e-20
-1.08216e-20
1.22991e-20
8.99294e-21
-1.011e-20
3.01026e-21
9.88198e-22
-4.07629e-21
-9.62856e-21
-3.07312e-21
9.32157e-21
-4.46381e-21
2.72706e-23
1.8465e-21
1.27451e-20
-2.12257e-21
-1.06948e-20
6.77625e-21
8.52123e-26
1.20672e-20
4.6912e-21
-2.24365e-20
6.67938e-21
-7.47225e-22
1.74534e-21
-1.22163e-20
-1.60892e-21
1.04645e-21
2.83858e-21
7.00218e-21
-1.89461e-20
-2.83388e-21
1.21619e-20
1.10311e-20
-4.77174e-21
4.98802e-22
1.16498e-20
-2.71051e-20
-1.03882e-25
-8.60754e-21
1.1373e-20
-1.11346e-20
-2.82837e-21
-1.69968e-20
4.61714e-21
-2.1934e-20
5.71015e-22
1.2631e-20
-1.50004e-20
1.49903e-22
5.41285e-22
1.42047e-21
-4.27292e-21
-3.21978e-21
1.74499e-20
-1.27734e-20
-6.30611e-21
1.35525e-20
6.77605e-21
-4.29392e-21
1.85147e-20
-2.76482e-21
1.12109e-20
-9.93452e-21
2.85113e-21
-9.21019e-21
1.34782e-20
-7.17151e-21
-9.09065e-21
5.59866e-21
5.21851e-22
2.59111e-21
2.59938e-21
-5.97248e-21
-1.75846e-20
-1.27605e-20
2.15139e-20
6.77626e-21
-6.77631e-21
7.3626e-21
-1.21786e-20
1.41077e-20
1.25945e-20
-2.02061e-21
-1.64426e-20
1.17352e-20
1.41405e-21
-4.82392e-24
5.07098e-21
-3.01104e-21
2.90762e-22
4.94275e-21
-8.91791e-21
1.51838e-20
-1.09474e-21
-5.57508e-21
2.71272e-21
-3.83237e-26
-1.35527e-20
6.17373e-21
1.00762e-20
8.19257e-23
1.83508e-20
-1.40116e-20
1.35319e-21
7.45667e-21
-6.7105e-21
-2.99677e-21
1.08119e-20
1.66899e-20
1.43855e-20
-2.40771e-21
-2.1112e-20
-8.79199e-21
-1.20265e-21
1.61226e-21
-1.22016e-20
6.77625e-21
1.35524e-20
-9.62131e-21
-2.59358e-21
-1.75918e-20
1.91961e-20
7.04081e-21
-1.29122e-21
2.49411e-21
5.53453e-21
9.52644e-23
4.83211e-22
5.41275e-21
-5.48945e-21
2.28074e-20
1.16482e-21
-7.60718e-21
-1.27072e-20
-3.55884e-21
1.98915e-20
-6.7763e-21
-2.13766e-26
1.11421e-20
-2.01909e-21
-1.55014e-21
-9.05799e-21
1.15906e-20
1.59915e-20
9.46401e-21
-6.42687e-21
-2.09635e-22
3.18613e-22
6.52413e-21
-2.43062e-21
-3.92944e-21
4.07446e-22
6.83947e-21
-2.07598e-21
5.83655e-21
-1.29557e-21
-2.93345e-26
-3.59914e-25
3.30049e-21
1.59043e-20
-2.49382e-20
6.38958e-21
-6.46572e-21
1.14866e-20
9.25597e-21
-6.86088e-21
3.53827e-21
1.56647e-21
2.0514e-21
9.02438e-21
1.47312e-20
1.63877e-20
-6.8013e-21
-1.21105e-20
-8.88138e-21
1.05998e-20
-6.7763e-21
1.35525e-20
1.66503e-20
1.20239e-21
-1.93309e-20
1.52865e-21
2.32532e-22
-1.3872e-21
7.92919e-21
-1.36287e-22
-2.79071e-21
-6.29117e-21
8.35857e-21
-2.71894e-20
-4.71035e-21
3.57013e-20
2.52544e-21
1.15977e-20
-3.95328e-21
-1.10482e-20
6.77623e-21
-2.03288e-20
-6.42884e-22
-1.13916e-20
1.78222e-20
-8.66266e-21
-2.42135e-21
3.22374e-20
-1.4649e-20
1.20677e-20
7.2093e-21
-2.49739e-20
-5.48481e-21
4.61299e-21
3.55336e-22
-1.61308e-20
9.01086e-21
4.41787e-21
-2.00918e-20
1.04625e-21
2.03288e-20
-1.65337e-25
5.53159e-26
2.03287e-20
6.77624e-21
6.77623e-21
-1.35526e-20
-6.77631e-21
6.77623e-21
-6.77629e-21
-6.7763e-21
6.77623e-21
-6.7763e-21
-6.77629e-21
-1.35526e-20
-3.28072e-26
2.03288e-20
2.03288e-20
-2.03288e-20
-3.52457e-26
2.74466e-27
)
;

boundaryField
{
    movingWall
    {
        type            zeroGradient;
    }
    fixedWalls
    {
        type            zeroGradient;
    }
    frontAndBack
    {
        type            empty;
    }
}


// ************************************************************************* //
