/*--------------------------------*- C++ -*----------------------------------*\
| =========                 |                                                 |
| \\      /  F ield         | OpenFOAM: The Open Source CFD Toolbox           |
|  \\    /   O peration     | Version:  2506                                  |
|   \\  /    A nd           | Website:  www.openfoam.com                      |
|    \\/     M anipulation  |                                                 |
\*---------------------------------------------------------------------------*/
FoamFile
{
    version     2.0;
    format      ascii;
    arch        "LSB;label=32;scalar=64";
    class       volScalarField;
    location    "7";
    object      initialResidual:Uy;
}
// * * * * * * * * * * * * * * * * * * * * * * * * * * * * * * * * * * * * * //

dimensions      [0 0 0 0 0 0 0];

internalField   nonuniform List<scalar> 
400
(
1.52298e-20
-8.4547e-21
2.06479e-21
1.7992e-22
2.25143e-21
2.37316e-21
-1.04382e-21
-4.95391e-21
-5.64828e-21
-6.24097e-21
1.40462e-21
5.94293e-21
-1.59731e-21
-1.67668e-21
1.41427e-21
1.71582e-21
4.60242e-22
-3.09676e-21
-2.75404e-21
2.25202e-21
-2.76812e-20
9.09041e-21
-9.39158e-22
-1.17575e-21
2.89538e-21
2.6202e-21
-4.74194e-21
-1.22169e-20
-5.06691e-21
-7.42081e-21
-3.13353e-21
3.84714e-22
3.67505e-21
2.73358e-21
-6.45227e-22
-9.35915e-23
6.88098e-22
-6.43657e-22
-2.79241e-21
1.09374e-21
-1.50861e-20
-3.67793e-22
-1.16639e-21
-1.23976e-21
-1.33261e-21
5.73358e-21
3.22938e-21
8.2456e-22
-6.5806e-22
-4.35271e-21
-1.1929e-20
-1.78055e-20
-3.15403e-21
2.35873e-21
-3.26444e-21
-5.12049e-21
6.25381e-22
5.52495e-21
3.57585e-22
-1.54164e-21
1.62676e-20
-1.92642e-20
-4.56908e-21
-5.52354e-21
5.47249e-22
6.20309e-21
1.90274e-21
5.79449e-21
1.56992e-22
-1.73362e-21
-1.08064e-20
-1.64464e-20
-1.09388e-20
-4.55957e-21
-5.40831e-21
-3.20874e-21
1.40841e-21
2.86932e-21
-1.8257e-21
-1.16814e-21
-2.40651e-20
5.15754e-21
-4.39169e-21
-1.99168e-21
7.18264e-22
-1.80318e-21
-4.50594e-21
-3.68521e-21
1.10196e-22
-6.33328e-22
-8.48288e-21
-6.38786e-21
-6.44124e-21
-7.08974e-21
-7.53528e-21
-5.27726e-21
-1.25758e-21
3.77554e-21
-1.6555e-21
-3.64414e-21
-6.99154e-21
-4.17737e-21
-3.16958e-21
-3.68398e-22
-3.65947e-21
-6.17238e-21
-2.69741e-21
1.34225e-21
6.04814e-22
-4.28438e-21
-7.35591e-21
-3.0308e-21
-7.97846e-21
-8.29105e-21
-4.82082e-21
-5.19887e-21
-4.04624e-21
-4.18645e-22
-2.60484e-21
-2.91091e-21
1.73307e-20
-1.65425e-20
-6.85213e-21
-8.55937e-21
-5.02875e-21
-3.1124e-21
-1.24098e-23
4.0225e-21
3.88453e-21
-2.78298e-21
-6.33135e-21
-2.59634e-21
-5.16876e-21
-9.11835e-21
-2.81227e-21
-4.54081e-21
-8.70926e-21
-9.1911e-21
-3.75106e-21
4.95993e-22
-3.41751e-20
2.23084e-21
-8.63247e-21
-3.99078e-21
-1.54903e-21
2.87864e-21
2.1342e-21
-3.37524e-21
-3.51181e-21
-2.14231e-21
-3.47382e-21
-3.72839e-21
-1.92243e-21
-6.00242e-21
-6.5782e-21
-1.02744e-20
-8.59628e-21
-3.63921e-21
-2.31877e-21
-1.35552e-21
-2.71796e-20
-8.06421e-22
-1.16834e-20
-2.44274e-21
-7.9847e-21
-1.98135e-21
-6.25176e-22
-2.09393e-21
-8.73101e-21
-4.7105e-21
1.19961e-21
-1.33473e-21
-4.35118e-21
-4.88322e-21
-8.56e-21
-7.51521e-21
-9.45707e-21
-7.36446e-21
-7.40185e-22
-2.09462e-21
2.25837e-20
-2.12251e-20
-6.71533e-21
-5.07228e-21
-9.75631e-21
-8.50148e-21
-2.23872e-21
-8.24029e-22
-1.02278e-20
-6.01784e-21
-2.63306e-21
-4.42706e-21
-5.88635e-21
-3.5167e-21
-2.09964e-21
-1.3933e-22
-7.11587e-21
-1.0518e-20
-1.21401e-20
-1.95018e-21
-4.64111e-20
-7.30675e-23
-9.50704e-21
-1.08037e-20
-7.57721e-21
-1.19202e-20
-7.07578e-21
-7.28351e-21
-7.92011e-21
-6.61513e-21
-6.7292e-21
-9.26889e-21
-7.07912e-21
-3.56388e-21
-3.08512e-21
-8.57566e-22
1.50493e-21
-4.2752e-21
-1.66469e-20
-3.19957e-21
-1.64573e-20
-3.14655e-21
-9.53506e-21
-1.40916e-20
-9.01986e-21
-9.68557e-21
-1.12475e-20
-1.10872e-20
-5.17911e-21
-8.03889e-21
-8.43031e-21
-7.08142e-21
-8.36351e-21
-7.47458e-21
-5.57557e-21
-5.4892e-21
-2.38642e-23
-7.19584e-21
-8.71227e-21
-2.56285e-21
2.01484e-21
-6.74889e-21
-4.28995e-21
-5.13728e-21
-6.10125e-21
-9.25829e-21
-1.4097e-20
-1.16502e-20
-4.61956e-21
-5.53141e-21
-1.0094e-20
-1.23419e-20
-9.15676e-21
-1.58013e-21
6.89753e-22
-5.33143e-21
-6.95404e-21
-5.429e-21
-8.72136e-21
-3.16597e-21
-8.83885e-21
-6.49616e-21
-3.46022e-22
-7.01189e-21
-1.02839e-20
-7.77172e-21
-6.71437e-21
-9.31257e-21
-7.48483e-21
-2.47019e-21
-5.43072e-21
-9.60401e-21
-8.39515e-21
-3.52099e-21
-2.87403e-22
-7.09816e-21
-1.1886e-20
-6.25255e-21
-8.75479e-21
-1.92332e-21
1.31061e-21
-1.2031e-20
-9.06563e-21
-4.66551e-21
-3.30487e-21
-7.26461e-21
-7.33993e-21
-6.43531e-21
-7.75197e-21
-2.83575e-21
1.36317e-21
2.72554e-21
-1.65571e-21
-1.11142e-20
-1.2366e-20
-9.59442e-21
-9.75253e-21
-7.13416e-21
-5.28436e-21
-4.70693e-22
-1.55536e-20
-8.87976e-21
-1.67595e-20
-7.23315e-22
1.40211e-21
-5.04137e-21
-9.02753e-21
-6.85541e-21
3.93871e-22
9.52528e-22
3.06507e-21
3.12478e-21
2.92295e-21
-1.4584e-20
-2.16905e-20
-8.49534e-21
-5.0338e-21
-2.35257e-21
3.46937e-23
-1.28987e-21
2.05374e-20
-1.04704e-20
-7.53102e-21
-7.77102e-21
-1.05261e-21
5.04643e-21
-2.2141e-21
-9.77096e-21
-2.96288e-22
-1.96964e-22
-2.25585e-21
2.71481e-21
7.92773e-21
-6.96325e-22
-1.15249e-20
-1.16466e-20
-5.68063e-21
-2.5874e-22
-3.06868e-21
-2.22218e-21
1.44606e-21
4.32482e-21
-7.14584e-21
-1.10708e-20
5.18715e-22
7.60978e-22
-2.41359e-21
-2.94607e-21
-4.30943e-21
4.98796e-21
8.14359e-21
2.05461e-21
9.71611e-23
9.0989e-21
5.37272e-21
-7.91576e-21
-3.83301e-21
-3.72245e-21
-8.46415e-21
-2.38205e-21
3.10196e-21
-8.34972e-21
-7.31725e-21
-8.51188e-21
-2.55233e-21
3.02355e-21
4.73177e-21
1.23186e-21
-5.4651e-21
2.21287e-21
1.12543e-20
3.08554e-21
-6.4195e-21
2.32725e-21
4.51224e-21
-5.67855e-21
-2.90733e-21
-2.34697e-21
-1.92013e-21
-9.07823e-22
1.68274e-20
-1.14448e-20
-1.77023e-21
-1.93694e-21
-3.08195e-21
5.51398e-21
6.18441e-21
-2.27189e-22
-2.41872e-21
-5.60626e-21
-6.32091e-22
3.33279e-21
-3.17188e-22
1.25389e-21
-7.64484e-22
-5.94107e-21
-3.65548e-21
2.10006e-21
3.3562e-21
-4.33746e-23
)
;

boundaryField
{
    movingWall
    {
        type            zeroGradient;
    }
    fixedWalls
    {
        type            zeroGradient;
    }
    frontAndBack
    {
        type            empty;
    }
}


// ************************************************************************* //
