/*--------------------------------*- C++ -*----------------------------------*\
| =========                 |                                                 |
| \\      /  F ield         | OpenFOAM: The Open Source CFD Toolbox           |
|  \\    /   O peration     | Version:  2506                                  |
|   \\  /    A nd           | Website:  www.openfoam.com                      |
|    \\/     M anipulation  |                                                 |
\*---------------------------------------------------------------------------*/
FoamFile
{
    version     2.0;
    format      ascii;
    arch        "LSB;label=32;scalar=64";
    class       volScalarField;
    location    "7";
    object      k2;
}
// * * * * * * * * * * * * * * * * * * * * * * * * * * * * * * * * * * * * * //

dimensions      [0 4 -4 0 0 0 0];

internalField   nonuniform List<scalar> 
400
(
3.35239e-11
3.35238e-11
3.35238e-11
3.35237e-11
3.35238e-11
3.35237e-11
3.35237e-11
3.35236e-11
3.35236e-11
3.35236e-11
3.35236e-11
3.35236e-11
3.35236e-11
3.35236e-11
3.35236e-11
3.35236e-11
3.35236e-11
3.35236e-11
3.35236e-11
3.35236e-11
3.56689e-11
3.5669e-11
3.56657e-11
3.56645e-11
3.56623e-11
3.56612e-11
3.56592e-11
3.56583e-11
3.56566e-11
3.56558e-11
3.56546e-11
3.56539e-11
3.56529e-11
3.56524e-11
3.56516e-11
3.56513e-11
3.56508e-11
3.56506e-11
3.56505e-11
3.56504e-11
3.90011e-11
3.9001e-11
3.89971e-11
3.89957e-11
3.89932e-11
3.89918e-11
3.89898e-11
3.89883e-11
3.89869e-11
3.89855e-11
3.89844e-11
3.89832e-11
3.89824e-11
3.89815e-11
3.89809e-11
3.89804e-11
3.89799e-11
3.89797e-11
3.89795e-11
3.89794e-11
4.23942e-11
4.23941e-11
4.23897e-11
4.23882e-11
4.23852e-11
4.23837e-11
4.23814e-11
4.23797e-11
4.23781e-11
4.23764e-11
4.23753e-11
4.23738e-11
4.2373e-11
4.23719e-11
4.23713e-11
4.23706e-11
4.23702e-11
4.23699e-11
4.23697e-11
4.23696e-11
4.51316e-11
4.51315e-11
4.51267e-11
4.5125e-11
4.51217e-11
4.512e-11
4.51174e-11
4.51157e-11
4.51138e-11
4.51122e-11
4.51107e-11
4.51094e-11
4.51082e-11
4.51073e-11
4.51063e-11
4.51058e-11
4.51052e-11
4.51049e-11
4.51047e-11
4.51046e-11
4.70373e-11
4.70373e-11
4.70321e-11
4.70303e-11
4.70267e-11
4.70251e-11
4.70222e-11
4.70204e-11
4.70184e-11
4.70165e-11
4.70152e-11
4.70135e-11
4.70125e-11
4.70113e-11
4.70105e-11
4.70097e-11
4.70092e-11
4.70089e-11
4.70087e-11
4.70086e-11
4.82537e-11
4.82537e-11
4.82483e-11
4.82464e-11
4.82427e-11
4.82409e-11
4.82381e-11
4.8236e-11
4.82341e-11
4.8232e-11
4.82307e-11
4.82289e-11
4.8228e-11
4.82266e-11
4.82259e-11
4.8225e-11
4.82246e-11
4.82241e-11
4.82239e-11
4.82238e-11
4.90079e-11
4.90078e-11
4.90024e-11
4.90004e-11
4.89967e-11
4.89948e-11
4.89919e-11
4.89899e-11
4.89878e-11
4.89859e-11
4.89843e-11
4.89826e-11
4.89814e-11
4.89803e-11
4.89793e-11
4.89786e-11
4.8978e-11
4.89777e-11
4.89774e-11
4.89773e-11
4.94926e-11
4.94925e-11
4.9487e-11
4.9485e-11
4.94813e-11
4.94792e-11
4.94764e-11
4.94742e-11
4.94722e-11
4.94701e-11
4.94686e-11
4.94669e-11
4.94657e-11
4.94645e-11
4.94635e-11
4.94628e-11
4.94622e-11
4.94619e-11
4.94616e-11
4.94615e-11
4.98376e-11
4.98375e-11
4.9832e-11
4.98299e-11
4.98261e-11
4.98242e-11
4.98212e-11
4.98191e-11
4.98169e-11
4.98149e-11
4.98133e-11
4.98117e-11
4.98104e-11
4.98093e-11
4.98082e-11
4.98076e-11
4.98069e-11
4.98066e-11
4.98063e-11
4.98062e-11
5.01208e-11
5.01207e-11
5.01151e-11
5.01131e-11
5.01093e-11
5.01072e-11
5.01043e-11
5.01022e-11
5.01e-11
5.00979e-11
5.00964e-11
5.00947e-11
5.00934e-11
5.00923e-11
5.00912e-11
5.00905e-11
5.00899e-11
5.00895e-11
5.00893e-11
5.00892e-11
5.03867e-11
5.03866e-11
5.03809e-11
5.03789e-11
5.03749e-11
5.03731e-11
5.03699e-11
5.0368e-11
5.03657e-11
5.03636e-11
5.03621e-11
5.03603e-11
5.03592e-11
5.03578e-11
5.0357e-11
5.0356e-11
5.03555e-11
5.03551e-11
5.03549e-11
5.03548e-11
5.06606e-11
5.06606e-11
5.06548e-11
5.06528e-11
5.06488e-11
5.06469e-11
5.06438e-11
5.06417e-11
5.06395e-11
5.06373e-11
5.06359e-11
5.0634e-11
5.0633e-11
5.06314e-11
5.06307e-11
5.06297e-11
5.06293e-11
5.06288e-11
5.06286e-11
5.06285e-11
5.09581e-11
5.0958e-11
5.09522e-11
5.09501e-11
5.09462e-11
5.0944e-11
5.09412e-11
5.09387e-11
5.09368e-11
5.09345e-11
5.09331e-11
5.09311e-11
5.09301e-11
5.09286e-11
5.09278e-11
5.09269e-11
5.09264e-11
5.09259e-11
5.09257e-11
5.09256e-11
5.12872e-11
5.12873e-11
5.12813e-11
5.12793e-11
5.12753e-11
5.12734e-11
5.12699e-11
5.12683e-11
5.12654e-11
5.12639e-11
5.12617e-11
5.12604e-11
5.12588e-11
5.12579e-11
5.12566e-11
5.1256e-11
5.12552e-11
5.12549e-11
5.12546e-11
5.12545e-11
5.16482e-11
5.16481e-11
5.16423e-11
5.16401e-11
5.16362e-11
5.1634e-11
5.1631e-11
5.16286e-11
5.16266e-11
5.16242e-11
5.16228e-11
5.16208e-11
5.16197e-11
5.16182e-11
5.16174e-11
5.16164e-11
5.16159e-11
5.16155e-11
5.16152e-11
5.16151e-11
5.20271e-11
5.2027e-11
5.2021e-11
5.20189e-11
5.20148e-11
5.20127e-11
5.20095e-11
5.20074e-11
5.2005e-11
5.20029e-11
5.20011e-11
5.19994e-11
5.1998e-11
5.19968e-11
5.19957e-11
5.1995e-11
5.19943e-11
5.19939e-11
5.19936e-11
5.19935e-11
5.23898e-11
5.23896e-11
5.23836e-11
5.23814e-11
5.23773e-11
5.23751e-11
5.23719e-11
5.23697e-11
5.23674e-11
5.23652e-11
5.23635e-11
5.23618e-11
5.23603e-11
5.23592e-11
5.2358e-11
5.23573e-11
5.23566e-11
5.23562e-11
5.2356e-11
5.23559e-11
5.26822e-11
5.26822e-11
5.26763e-11
5.26742e-11
5.26702e-11
5.26681e-11
5.26651e-11
5.26627e-11
5.26607e-11
5.26583e-11
5.26569e-11
5.26548e-11
5.26537e-11
5.26522e-11
5.26514e-11
5.26504e-11
5.26499e-11
5.26494e-11
5.26492e-11
5.26491e-11
5.28156e-11
5.28155e-11
5.28155e-11
5.28153e-11
5.28154e-11
5.28152e-11
5.28153e-11
5.28151e-11
5.28152e-11
5.28151e-11
5.28151e-11
5.28151e-11
5.28151e-11
5.28151e-11
5.28151e-11
5.28151e-11
5.28151e-11
5.28151e-11
5.28151e-11
5.28151e-11
)
;

boundaryField
{
    movingWall
    {
        type            calculated;
        value           nonuniform List<scalar> 
20
(
5.28156e-11
5.28155e-11
5.28155e-11
5.28153e-11
5.28154e-11
5.28152e-11
5.28153e-11
5.28151e-11
5.28152e-11
5.28151e-11
5.28151e-11
5.28151e-11
5.28151e-11
5.28151e-11
5.28151e-11
5.28151e-11
5.28151e-11
5.28151e-11
5.28151e-11
5.28151e-11
)
;
    }
    fixedWalls
    {
        type            calculated;
        value           nonuniform List<scalar> 
60
(
3.35239e-11
3.56689e-11
3.90011e-11
4.23942e-11
4.51316e-11
4.70373e-11
4.82537e-11
4.90079e-11
4.94926e-11
4.98376e-11
5.01208e-11
5.03867e-11
5.06606e-11
5.09581e-11
5.12872e-11
5.16482e-11
5.20271e-11
5.23898e-11
5.26822e-11
5.28156e-11
3.35236e-11
3.56504e-11
3.89794e-11
4.23696e-11
4.51046e-11
4.70086e-11
4.82238e-11
4.89773e-11
4.94615e-11
4.98062e-11
5.00892e-11
5.03548e-11
5.06285e-11
5.09256e-11
5.12545e-11
5.16151e-11
5.19935e-11
5.23559e-11
5.26491e-11
5.28151e-11
3.35239e-11
3.35238e-11
3.35238e-11
3.35237e-11
3.35238e-11
3.35237e-11
3.35237e-11
3.35236e-11
3.35236e-11
3.35236e-11
3.35236e-11
3.35236e-11
3.35236e-11
3.35236e-11
3.35236e-11
3.35236e-11
3.35236e-11
3.35236e-11
3.35236e-11
3.35236e-11
)
;
    }
    frontAndBack
    {
        type            empty;
    }
}


// ************************************************************************* //
