/*--------------------------------*- C++ -*----------------------------------*\
| =========                 |                                                 |
| \\      /  F ield         | OpenFOAM: The Open Source CFD Toolbox           |
|  \\    /   O peration     | Version:  2506                                  |
|   \\  /    A nd           | Website:  www.openfoam.com                      |
|    \\/     M anipulation  |                                                 |
\*---------------------------------------------------------------------------*/
FoamFile
{
    version     2.0;
    format      ascii;
    arch        "LSB;label=32;scalar=64";
    class       volScalarField;
    location    "7";
    object      kDiff;
}
// * * * * * * * * * * * * * * * * * * * * * * * * * * * * * * * * * * * * * //

dimensions      [0 2 -2 0 0 0 0];

internalField   nonuniform List<scalar> 
400
(
-1.07503e-08
-1.07553e-08
-1.07472e-08
-1.07574e-08
-1.07468e-08
-1.07569e-08
-1.07483e-08
-1.07547e-08
-1.07505e-08
-1.0753e-08
-1.07514e-08
-1.07525e-08
-1.07517e-08
-1.07522e-08
-1.07518e-08
-1.07521e-08
-1.07519e-08
-1.0752e-08
-1.07519e-08
-1.07519e-08
-1.14803e-08
-1.14589e-08
-1.1524e-08
-1.14648e-08
-1.15003e-08
-1.14686e-08
-1.15002e-08
-1.14607e-08
-1.15035e-08
-1.14547e-08
-1.15012e-08
-1.14607e-08
-1.14999e-08
-1.14624e-08
-1.14959e-08
-1.14692e-08
-1.14892e-08
-1.14756e-08
-1.14813e-08
-1.14793e-08
-1.25188e-08
-1.25105e-08
-1.25301e-08
-1.25049e-08
-1.25266e-08
-1.25002e-08
-1.25293e-08
-1.24983e-08
-1.25298e-08
-1.24994e-08
-1.25281e-08
-1.24998e-08
-1.25225e-08
-1.2504e-08
-1.2519e-08
-1.25068e-08
-1.25166e-08
-1.25107e-08
-1.2511e-08
-1.25115e-08
-1.34461e-08
-1.34328e-08
-1.34647e-08
-1.34273e-08
-1.34591e-08
-1.3424e-08
-1.34608e-08
-1.34261e-08
-1.34582e-08
-1.34273e-08
-1.34532e-08
-1.34262e-08
-1.34515e-08
-1.34256e-08
-1.34474e-08
-1.34305e-08
-1.34422e-08
-1.34343e-08
-1.34391e-08
-1.34378e-08
-1.41042e-08
-1.40914e-08
-1.41206e-08
-1.4083e-08
-1.41183e-08
-1.40765e-08
-1.4124e-08
-1.40711e-08
-1.41252e-08
-1.40714e-08
-1.41206e-08
-1.40745e-08
-1.41139e-08
-1.40793e-08
-1.41108e-08
-1.40839e-08
-1.41045e-08
-1.40904e-08
-1.40959e-08
-1.40947e-08
-1.45097e-08
-1.44954e-08
-1.45346e-08
-1.44902e-08
-1.45272e-08
-1.44838e-08
-1.45332e-08
-1.44807e-08
-1.45302e-08
-1.44827e-08
-1.45233e-08
-1.44849e-08
-1.45159e-08
-1.44921e-08
-1.45095e-08
-1.44989e-08
-1.45053e-08
-1.44995e-08
-1.4503e-08
-1.45017e-08
-1.4745e-08
-1.47253e-08
-1.47824e-08
-1.47251e-08
-1.47644e-08
-1.47217e-08
-1.4764e-08
-1.47272e-08
-1.47601e-08
-1.47271e-08
-1.47618e-08
-1.47151e-08
-1.4763e-08
-1.47134e-08
-1.47583e-08
-1.47208e-08
-1.47483e-08
-1.47308e-08
-1.47401e-08
-1.47382e-08
-1.48874e-08
-1.48789e-08
-1.48956e-08
-1.48684e-08
-1.48983e-08
-1.48616e-08
-1.49021e-08
-1.48584e-08
-1.49018e-08
-1.48598e-08
-1.48985e-08
-1.48618e-08
-1.48895e-08
-1.48679e-08
-1.48857e-08
-1.4871e-08
-1.48828e-08
-1.48756e-08
-1.4876e-08
-1.48765e-08
-1.49745e-08
-1.4964e-08
-1.49878e-08
-1.49586e-08
-1.49897e-08
-1.49477e-08
-1.49936e-08
-1.49451e-08
-1.49909e-08
-1.4947e-08
-1.49831e-08
-1.4952e-08
-1.49779e-08
-1.49548e-08
-1.49753e-08
-1.49578e-08
-1.49711e-08
-1.49634e-08
-1.49642e-08
-1.49646e-08
-1.50394e-08
-1.50278e-08
-1.50559e-08
-1.50232e-08
-1.50509e-08
-1.50166e-08
-1.50562e-08
-1.50124e-08
-1.50557e-08
-1.50126e-08
-1.50466e-08
-1.50186e-08
-1.50424e-08
-1.50203e-08
-1.50404e-08
-1.50229e-08
-1.50374e-08
-1.50286e-08
-1.50291e-08
-1.50298e-08
-1.5096e-08
-1.50852e-08
-1.51114e-08
-1.50825e-08
-1.5105e-08
-1.50753e-08
-1.51075e-08
-1.5074e-08
-1.51085e-08
-1.50726e-08
-1.50991e-08
-1.50789e-08
-1.50967e-08
-1.5079e-08
-1.50955e-08
-1.50809e-08
-1.50932e-08
-1.50858e-08
-1.50857e-08
-1.50865e-08
-1.51529e-08
-1.51351e-08
-1.51761e-08
-1.51292e-08
-1.51679e-08
-1.51235e-08
-1.51727e-08
-1.51205e-08
-1.51696e-08
-1.51286e-08
-1.51635e-08
-1.51248e-08
-1.5157e-08
-1.51327e-08
-1.51495e-08
-1.51405e-08
-1.5145e-08
-1.51403e-08
-1.51436e-08
-1.51423e-08
-1.52091e-08
-1.51936e-08
-1.52383e-08
-1.51898e-08
-1.52266e-08
-1.51856e-08
-1.52263e-08
-1.51863e-08
-1.52241e-08
-1.51948e-08
-1.5226e-08
-1.51787e-08
-1.52275e-08
-1.51771e-08
-1.52211e-08
-1.51852e-08
-1.52113e-08
-1.51943e-08
-1.52035e-08
-1.52015e-08
-1.52749e-08
-1.52558e-08
-1.53121e-08
-1.52516e-08
-1.52963e-08
-1.52503e-08
-1.52939e-08
-1.52568e-08
-1.52901e-08
-1.52528e-08
-1.52889e-08
-1.5246e-08
-1.52817e-08
-1.52553e-08
-1.52759e-08
-1.52618e-08
-1.52706e-08
-1.52666e-08
-1.52674e-08
-1.52671e-08
-1.53437e-08
-1.5315e-08
-1.54065e-08
-1.53175e-08
-1.53741e-08
-1.53215e-08
-1.53745e-08
-1.53116e-08
-1.53812e-08
-1.53074e-08
-1.5378e-08
-1.53062e-08
-1.53704e-08
-1.53178e-08
-1.53655e-08
-1.53256e-08
-1.53562e-08
-1.5335e-08
-1.5344e-08
-1.5341e-08
-1.54359e-08
-1.54252e-08
-1.54448e-08
-1.54154e-08
-1.54483e-08
-1.54092e-08
-1.54501e-08
-1.5412e-08
-1.54478e-08
-1.54115e-08
-1.54465e-08
-1.54056e-08
-1.54438e-08
-1.54062e-08
-1.54337e-08
-1.54184e-08
-1.54264e-08
-1.54255e-08
-1.54236e-08
-1.54242e-08
-1.55244e-08
-1.55105e-08
-1.55461e-08
-1.55038e-08
-1.5542e-08
-1.54931e-08
-1.55481e-08
-1.54897e-08
-1.5549e-08
-1.54892e-08
-1.55408e-08
-1.54945e-08
-1.55342e-08
-1.54984e-08
-1.55304e-08
-1.55035e-08
-1.55244e-08
-1.55108e-08
-1.55149e-08
-1.55143e-08
-1.56183e-08
-1.56225e-08
-1.56008e-08
-1.56071e-08
-1.56239e-08
-1.5594e-08
-1.56285e-08
-1.55883e-08
-1.56256e-08
-1.55879e-08
-1.56181e-08
-1.55931e-08
-1.5616e-08
-1.55944e-08
-1.56145e-08
-1.55971e-08
-1.56105e-08
-1.56025e-08
-1.56031e-08
-1.56037e-08
-1.56908e-08
-1.56828e-08
-1.5691e-08
-1.56737e-08
-1.57002e-08
-1.56645e-08
-1.57034e-08
-1.56687e-08
-1.57031e-08
-1.56617e-08
-1.57024e-08
-1.56571e-08
-1.57008e-08
-1.56572e-08
-1.56927e-08
-1.56677e-08
-1.56843e-08
-1.56736e-08
-1.56799e-08
-1.56782e-08
-1.57233e-08
-1.57183e-08
-1.57248e-08
-1.5717e-08
-1.57258e-08
-1.57172e-08
-1.57246e-08
-1.57185e-08
-1.57232e-08
-1.57198e-08
-1.57224e-08
-1.57204e-08
-1.57214e-08
-1.57211e-08
-1.57214e-08
-1.57212e-08
-1.57213e-08
-1.57212e-08
-1.57213e-08
-1.57213e-08
)
;

boundaryField
{
    movingWall
    {
        type            calculated;
        value           nonuniform List<scalar> 
20
(
-1.57233e-08
-1.57183e-08
-1.57248e-08
-1.5717e-08
-1.57258e-08
-1.57172e-08
-1.57246e-08
-1.57185e-08
-1.57232e-08
-1.57198e-08
-1.57224e-08
-1.57204e-08
-1.57214e-08
-1.57211e-08
-1.57214e-08
-1.57212e-08
-1.57213e-08
-1.57212e-08
-1.57213e-08
-1.57213e-08
)
;
    }
    fixedWalls
    {
        type            calculated;
        value           nonuniform List<scalar> 
60
(
-1.07503e-08
-1.14803e-08
-1.25188e-08
-1.34461e-08
-1.41042e-08
-1.45097e-08
-1.4745e-08
-1.48874e-08
-1.49745e-08
-1.50394e-08
-1.5096e-08
-1.51529e-08
-1.52091e-08
-1.52749e-08
-1.53437e-08
-1.54359e-08
-1.55244e-08
-1.56183e-08
-1.56908e-08
-1.57233e-08
-1.07519e-08
-1.14793e-08
-1.25115e-08
-1.34378e-08
-1.40947e-08
-1.45017e-08
-1.47382e-08
-1.48765e-08
-1.49646e-08
-1.50298e-08
-1.50865e-08
-1.51423e-08
-1.52015e-08
-1.52671e-08
-1.5341e-08
-1.54242e-08
-1.55143e-08
-1.56037e-08
-1.56782e-08
-1.57213e-08
-1.07503e-08
-1.07553e-08
-1.07472e-08
-1.07574e-08
-1.07468e-08
-1.07569e-08
-1.07483e-08
-1.07547e-08
-1.07505e-08
-1.0753e-08
-1.07514e-08
-1.07525e-08
-1.07517e-08
-1.07522e-08
-1.07518e-08
-1.07521e-08
-1.07519e-08
-1.0752e-08
-1.07519e-08
-1.07519e-08
)
;
    }
    frontAndBack
    {
        type            empty;
    }
}


// ************************************************************************* //
