/*--------------------------------*- C++ -*----------------------------------*\
| =========                 |                                                 |
| \\      /  F ield         | OpenFOAM: The Open Source CFD Toolbox           |
|  \\    /   O peration     | Version:  2506                                  |
|   \\  /    A nd           | Website:  www.openfoam.com                      |
|    \\/     M anipulation  |                                                 |
\*---------------------------------------------------------------------------*/
FoamFile
{
    version     2.0;
    format      ascii;
    arch        "LSB;label=32;scalar=64";
    class       volScalarField;
    location    "7";
    object      kTotal;
}
// * * * * * * * * * * * * * * * * * * * * * * * * * * * * * * * * * * * * * //

dimensions      [0 2 -2 0 0 0 0];

internalField   nonuniform List<scalar> 
400
(
1.158e-05
1.158e-05
1.158e-05
1.15799e-05
1.15799e-05
1.15799e-05
1.15799e-05
1.15799e-05
1.15799e-05
1.15799e-05
1.15799e-05
1.15799e-05
1.15799e-05
1.15799e-05
1.15799e-05
1.15799e-05
1.15799e-05
1.15799e-05
1.15799e-05
1.15799e-05
1.19447e-05
1.19447e-05
1.19442e-05
1.1944e-05
1.19436e-05
1.19434e-05
1.19431e-05
1.19429e-05
1.19426e-05
1.19425e-05
1.19423e-05
1.19422e-05
1.1942e-05
1.19419e-05
1.19418e-05
1.19417e-05
1.19417e-05
1.19416e-05
1.19416e-05
1.19416e-05
1.24902e-05
1.24902e-05
1.24895e-05
1.24893e-05
1.24889e-05
1.24887e-05
1.24884e-05
1.24881e-05
1.24879e-05
1.24877e-05
1.24875e-05
1.24873e-05
1.24872e-05
1.2487e-05
1.24869e-05
1.24869e-05
1.24868e-05
1.24867e-05
1.24867e-05
1.24867e-05
1.30222e-05
1.30222e-05
1.30215e-05
1.30212e-05
1.30208e-05
1.30206e-05
1.30202e-05
1.30199e-05
1.30197e-05
1.30194e-05
1.30193e-05
1.3019e-05
1.30189e-05
1.30187e-05
1.30187e-05
1.30185e-05
1.30185e-05
1.30184e-05
1.30184e-05
1.30184e-05
1.3436e-05
1.3436e-05
1.34353e-05
1.3435e-05
1.34345e-05
1.34343e-05
1.34339e-05
1.34337e-05
1.34334e-05
1.34331e-05
1.34329e-05
1.34327e-05
1.34325e-05
1.34324e-05
1.34323e-05
1.34322e-05
1.34321e-05
1.3432e-05
1.3432e-05
1.3432e-05
1.37168e-05
1.37168e-05
1.3716e-05
1.37157e-05
1.37152e-05
1.3715e-05
1.37146e-05
1.37143e-05
1.3714e-05
1.37137e-05
1.37135e-05
1.37133e-05
1.37131e-05
1.3713e-05
1.37129e-05
1.37127e-05
1.37127e-05
1.37126e-05
1.37126e-05
1.37126e-05
1.3893e-05
1.3893e-05
1.38922e-05
1.38919e-05
1.38914e-05
1.38911e-05
1.38907e-05
1.38904e-05
1.38902e-05
1.38899e-05
1.38897e-05
1.38894e-05
1.38893e-05
1.38891e-05
1.3889e-05
1.38888e-05
1.38888e-05
1.38887e-05
1.38887e-05
1.38887e-05
1.40011e-05
1.40011e-05
1.40003e-05
1.40001e-05
1.39995e-05
1.39993e-05
1.39989e-05
1.39986e-05
1.39983e-05
1.3998e-05
1.39978e-05
1.39975e-05
1.39974e-05
1.39972e-05
1.39971e-05
1.3997e-05
1.39969e-05
1.39968e-05
1.39968e-05
1.39968e-05
1.40702e-05
1.40702e-05
1.40694e-05
1.40691e-05
1.40686e-05
1.40683e-05
1.40679e-05
1.40676e-05
1.40673e-05
1.4067e-05
1.40668e-05
1.40666e-05
1.40664e-05
1.40662e-05
1.40661e-05
1.4066e-05
1.40659e-05
1.40658e-05
1.40658e-05
1.40658e-05
1.41192e-05
1.41191e-05
1.41184e-05
1.41181e-05
1.41175e-05
1.41173e-05
1.41168e-05
1.41165e-05
1.41162e-05
1.41159e-05
1.41157e-05
1.41155e-05
1.41153e-05
1.41151e-05
1.4115e-05
1.41149e-05
1.41148e-05
1.41148e-05
1.41147e-05
1.41147e-05
1.41592e-05
1.41592e-05
1.41584e-05
1.41581e-05
1.41576e-05
1.41573e-05
1.41569e-05
1.41566e-05
1.41563e-05
1.4156e-05
1.41558e-05
1.41555e-05
1.41553e-05
1.41552e-05
1.4155e-05
1.41549e-05
1.41548e-05
1.41548e-05
1.41548e-05
1.41548e-05
1.41967e-05
1.41967e-05
1.41959e-05
1.41956e-05
1.41951e-05
1.41948e-05
1.41944e-05
1.41941e-05
1.41938e-05
1.41935e-05
1.41933e-05
1.4193e-05
1.41929e-05
1.41926e-05
1.41925e-05
1.41924e-05
1.41923e-05
1.41923e-05
1.41922e-05
1.41922e-05
1.42353e-05
1.42353e-05
1.42345e-05
1.42342e-05
1.42336e-05
1.42333e-05
1.42329e-05
1.42326e-05
1.42323e-05
1.4232e-05
1.42318e-05
1.42315e-05
1.42314e-05
1.42312e-05
1.42311e-05
1.42309e-05
1.42309e-05
1.42308e-05
1.42308e-05
1.42307e-05
1.4277e-05
1.4277e-05
1.42762e-05
1.42759e-05
1.42753e-05
1.4275e-05
1.42746e-05
1.42743e-05
1.4274e-05
1.42737e-05
1.42735e-05
1.42732e-05
1.42731e-05
1.42729e-05
1.42728e-05
1.42726e-05
1.42725e-05
1.42725e-05
1.42725e-05
1.42724e-05
1.4323e-05
1.4323e-05
1.43222e-05
1.43219e-05
1.43214e-05
1.43211e-05
1.43206e-05
1.43204e-05
1.432e-05
1.43198e-05
1.43195e-05
1.43193e-05
1.43191e-05
1.43189e-05
1.43187e-05
1.43187e-05
1.43186e-05
1.43185e-05
1.43185e-05
1.43185e-05
1.43733e-05
1.43733e-05
1.43725e-05
1.43722e-05
1.43717e-05
1.43714e-05
1.4371e-05
1.43706e-05
1.43703e-05
1.437e-05
1.43698e-05
1.43695e-05
1.43694e-05
1.43692e-05
1.43691e-05
1.43689e-05
1.43689e-05
1.43688e-05
1.43688e-05
1.43687e-05
1.4426e-05
1.4426e-05
1.44251e-05
1.44248e-05
1.44243e-05
1.4424e-05
1.44235e-05
1.44232e-05
1.44229e-05
1.44226e-05
1.44224e-05
1.44221e-05
1.44219e-05
1.44218e-05
1.44216e-05
1.44215e-05
1.44214e-05
1.44214e-05
1.44213e-05
1.44213e-05
1.44762e-05
1.44761e-05
1.44753e-05
1.4475e-05
1.44744e-05
1.44741e-05
1.44737e-05
1.44734e-05
1.44731e-05
1.44728e-05
1.44725e-05
1.44723e-05
1.44721e-05
1.44719e-05
1.44718e-05
1.44717e-05
1.44716e-05
1.44715e-05
1.44715e-05
1.44715e-05
1.45165e-05
1.45165e-05
1.45157e-05
1.45154e-05
1.45149e-05
1.45146e-05
1.45142e-05
1.45138e-05
1.45135e-05
1.45132e-05
1.4513e-05
1.45127e-05
1.45126e-05
1.45124e-05
1.45123e-05
1.45121e-05
1.45121e-05
1.4512e-05
1.4512e-05
1.45119e-05
1.45349e-05
1.45349e-05
1.45349e-05
1.45348e-05
1.45348e-05
1.45348e-05
1.45348e-05
1.45348e-05
1.45348e-05
1.45348e-05
1.45348e-05
1.45348e-05
1.45348e-05
1.45348e-05
1.45348e-05
1.45348e-05
1.45348e-05
1.45348e-05
1.45348e-05
1.45348e-05
)
;

boundaryField
{
    movingWall
    {
        type            calculated;
        value           nonuniform List<scalar> 
20
(
1.45349e-05
1.45349e-05
1.45349e-05
1.45348e-05
1.45348e-05
1.45348e-05
1.45348e-05
1.45348e-05
1.45348e-05
1.45348e-05
1.45348e-05
1.45348e-05
1.45348e-05
1.45348e-05
1.45348e-05
1.45348e-05
1.45348e-05
1.45348e-05
1.45348e-05
1.45348e-05
)
;
    }
    fixedWalls
    {
        type            calculated;
        value           nonuniform List<scalar> 
60
(
1.158e-05
1.19447e-05
1.24902e-05
1.30222e-05
1.3436e-05
1.37168e-05
1.3893e-05
1.40011e-05
1.40702e-05
1.41192e-05
1.41592e-05
1.41967e-05
1.42353e-05
1.4277e-05
1.4323e-05
1.43733e-05
1.4426e-05
1.44762e-05
1.45165e-05
1.45349e-05
1.15799e-05
1.19416e-05
1.24867e-05
1.30184e-05
1.3432e-05
1.37126e-05
1.38887e-05
1.39968e-05
1.40658e-05
1.41147e-05
1.41548e-05
1.41922e-05
1.42307e-05
1.42724e-05
1.43185e-05
1.43687e-05
1.44213e-05
1.44715e-05
1.45119e-05
1.45348e-05
1.158e-05
1.158e-05
1.158e-05
1.15799e-05
1.15799e-05
1.15799e-05
1.15799e-05
1.15799e-05
1.15799e-05
1.15799e-05
1.15799e-05
1.15799e-05
1.15799e-05
1.15799e-05
1.15799e-05
1.15799e-05
1.15799e-05
1.15799e-05
1.15799e-05
1.15799e-05
)
;
    }
    frontAndBack
    {
        type            empty;
    }
}


// ************************************************************************* //
