/*--------------------------------*- C++ -*----------------------------------*\
| =========                 |                                                 |
| \\      /  F ield         | OpenFOAM: The Open Source CFD Toolbox           |
|  \\    /   O peration     | Version:  2506                                  |
|   \\  /    A nd           | Website:  www.openfoam.com                      |
|    \\/     M anipulation  |                                                 |
\*---------------------------------------------------------------------------*/
FoamFile
{
    version     2.0;
    format      ascii;
    arch        "LSB;label=32;scalar=64";
    class       volVectorField;
    location    "7";
    object      kU;
}
// * * * * * * * * * * * * * * * * * * * * * * * * * * * * * * * * * * * * * //

dimensions      [0 3 -3 0 0 0 0];

internalField   nonuniform List<vector> 
400
(
(-5.78461e-06 8.81059e-19 0)
(-5.7846e-06 -1.88301e-19 0)
(-5.78461e-06 4.50446e-20 0)
(-5.78459e-06 -8.40993e-21 0)
(-5.7846e-06 3.21515e-21 0)
(-5.78459e-06 4.18224e-22 0)
(-5.78459e-06 6.07346e-22 0)
(-5.78459e-06 -4.83577e-25 0)
(-5.78459e-06 -1.49342e-22 0)
(-5.78458e-06 -1.14854e-22 0)
(-5.78458e-06 -3.46183e-23 0)
(-5.78458e-06 3.17517e-22 0)
(-5.78458e-06 2.70847e-23 0)
(-5.78458e-06 2.67931e-22 0)
(-5.78458e-06 6.00191e-22 0)
(-5.78458e-06 7.12872e-22 0)
(-5.78458e-06 5.35979e-22 0)
(-5.78458e-06 1.39335e-22 0)
(-5.78458e-06 5.67091e-23 0)
(-5.78458e-06 3.34999e-22 0)
(-5.96661e-06 2.52108e-20 0)
(-5.96663e-06 -4.50389e-21 0)
(-5.96632e-06 2.20102e-21 0)
(-5.96625e-06 8.81725e-22 0)
(-5.96604e-06 9.96448e-22 0)
(-5.96597e-06 7.56177e-22 0)
(-5.96578e-06 3.14829e-23 0)
(-5.96573e-06 -6.30277e-22 0)
(-5.96557e-06 -6.15354e-22 0)
(-5.96552e-06 -4.80241e-22 0)
(-5.9654e-06 -9.89366e-23 0)
(-5.96536e-06 7.18224e-22 0)
(-5.96525e-06 6.22637e-22 0)
(-5.96523e-06 2.51326e-22 0)
(-5.96515e-06 -4.45055e-23 0)
(-5.96514e-06 5.78009e-22 0)
(-5.96509e-06 9.60546e-22 0)
(-5.96508e-06 2.10868e-22 0)
(-5.96506e-06 -4.43399e-22 0)
(-5.96506e-06 -1.44229e-22 0)
(-6.23883e-06 -8.4446e-19 0)
(-6.23882e-06 1.8556e-19 0)
(-6.23851e-06 -4.20236e-20 0)
(-6.23841e-06 1.05245e-20 0)
(-6.23819e-06 -8.43323e-22 0)
(-6.23809e-06 1.82696e-21 0)
(-6.23792e-06 1.5623e-21 0)
(-6.23782e-06 1.75741e-21 0)
(-6.23768e-06 8.40182e-22 0)
(-6.23759e-06 -1.29226e-22 0)
(-6.23749e-06 3.04534e-22 0)
(-6.23741e-06 -2.38078e-22 0)
(-6.23733e-06 -6.28612e-22 0)
(-6.23727e-06 -7.87124e-22 0)
(-6.23721e-06 -1.19031e-21 0)
(-6.23718e-06 -1.19456e-21 0)
(-6.23713e-06 -5.75176e-22 0)
(-6.23712e-06 -3.00708e-22 0)
(-6.2371e-06 -8.12114e-22 0)
(-6.2371e-06 -7.68063e-22 0)
(-6.50436e-06 7.42773e-19 0)
(-6.50436e-06 -1.60145e-19 0)
(-6.50401e-06 3.75174e-20 0)
(-6.50391e-06 -7.97882e-21 0)
(-6.50366e-06 2.90612e-21 0)
(-6.50357e-06 1.46884e-21 0)
(-6.50337e-06 2.44093e-21 0)
(-6.50326e-06 2.01111e-21 0)
(-6.50312e-06 1.33734e-21 0)
(-6.503e-06 2.46712e-22 0)
(-6.50291e-06 -6.70447e-22 0)
(-6.50281e-06 -1.44366e-21 0)
(-6.50273e-06 -1.46647e-21 0)
(-6.50266e-06 -9.08427e-22 0)
(-6.50261e-06 -7.35168e-22 0)
(-6.50256e-06 -1.09336e-21 0)
(-6.50252e-06 -1.16909e-21 0)
(-6.5025e-06 -6.90198e-22 0)
(-6.50249e-06 -4.23583e-22 0)
(-6.50248e-06 -7.4102e-23 0)
(-6.71095e-06 -8.99976e-20 0)
(-6.71095e-06 1.71334e-20 0)
(-6.71058e-06 -3.78393e-21 0)
(-6.71047e-06 2.09244e-21 0)
(-6.71021e-06 1.69344e-21 0)
(-6.71011e-06 2.17543e-21 0)
(-6.70989e-06 1.75427e-21 0)
(-6.70979e-06 6.45476e-22 0)
(-6.70962e-06 7.48183e-22 0)
(-6.70953e-06 2.99481e-22 0)
(-6.70939e-06 -1.32019e-21 0)
(-6.70932e-06 -1.37163e-21 0)
(-6.70921e-06 -3.8617e-22 0)
(-6.70916e-06 -6.42752e-22 0)
(-6.70907e-06 -1.30022e-21 0)
(-6.70905e-06 -1.53048e-21 0)
(-6.70899e-06 -1.08467e-21 0)
(-6.70898e-06 1.11327e-22 0)
(-6.70896e-06 5.91102e-22 0)
(-6.70895e-06 4.59822e-22 0)
(-6.85112e-06 -7.34937e-19 0)
(-6.85113e-06 1.62672e-19 0)
(-6.85073e-06 -3.66875e-20 0)
(-6.85062e-06 9.3456e-21 0)
(-6.85034e-06 -8.53639e-22 0)
(-6.85025e-06 1.48259e-21 0)
(-6.85001e-06 1.1542e-21 0)
(-6.84991e-06 9.2602e-22 0)
(-6.84973e-06 4.83083e-22 0)
(-6.84962e-06 2.77951e-22 0)
(-6.8495e-06 -2.35581e-22 0)
(-6.8494e-06 -5.35091e-22 0)
(-6.84931e-06 -6.11177e-22 0)
(-6.84923e-06 -1.15501e-21 0)
(-6.84917e-06 -1.69123e-21 0)
(-6.84912e-06 -1.63531e-21 0)
(-6.84908e-06 -1.07644e-21 0)
(-6.84905e-06 2.58023e-22 0)
(-6.84904e-06 1.0433e-21 0)
(-6.84903e-06 6.59432e-22 0)
(-6.93912e-06 1.08301e-18 0)
(-6.93913e-06 -2.31391e-19 0)
(-6.93871e-06 5.51176e-20 0)
(-6.93861e-06 -1.22854e-20 0)
(-6.93832e-06 2.12615e-21 0)
(-6.93821e-06 -6.40604e-22 0)
(-6.93799e-06 5.20622e-22 0)
(-6.93785e-06 1.03913e-21 0)
(-6.9377e-06 1.52803e-21 0)
(-6.93757e-06 1.73988e-21 0)
(-6.93746e-06 5.1806e-22 0)
(-6.93735e-06 7.30824e-23 0)
(-6.93726e-06 -5.52981e-22 0)
(-6.93718e-06 -9.68952e-22 0)
(-6.93712e-06 -6.86006e-22 0)
(-6.93706e-06 -1.2845e-22 0)
(-6.93702e-06 1.17511e-23 0)
(-6.937e-06 -1.8047e-22 0)
(-6.93698e-06 2.01806e-22 0)
(-6.93697e-06 3.99982e-22 0)
(-6.99312e-06 -4.40896e-19 0)
(-6.99312e-06 9.44952e-20 0)
(-6.99273e-06 -2.20957e-20 0)
(-6.9926e-06 4.94622e-21 0)
(-6.99232e-06 -3.58426e-22 0)
(-6.9922e-06 1.17866e-21 0)
(-6.99197e-06 7.55653e-22 0)
(-6.99186e-06 8.16119e-22 0)
(-6.99168e-06 8.71796e-22 0)
(-6.99156e-06 5.2783e-22 0)
(-6.99143e-06 -1.02418e-22 0)
(-6.99133e-06 -2.7242e-22 0)
(-6.99123e-06 -6.23354e-22 0)
(-6.99116e-06 -5.54995e-22 0)
(-6.99108e-06 -8.18098e-23 0)
(-6.99104e-06 7.85524e-23 0)
(-6.99099e-06 4.67121e-22 0)
(-6.99097e-06 4.70076e-22 0)
(-6.99095e-06 -8.94702e-23 0)
(-6.99094e-06 6.61845e-23 0)
(-7.02761e-06 -4.75818e-19 0)
(-7.02761e-06 1.01901e-19 0)
(-7.02721e-06 -2.38249e-20 0)
(-7.02708e-06 4.6624e-21 0)
(-7.0268e-06 -1.40002e-21 0)
(-7.02668e-06 4.45021e-23 0)
(-7.02645e-06 1.65975e-22 0)
(-7.02632e-06 2.252e-22 0)
(-7.02616e-06 -1.57704e-22 0)
(-7.02603e-06 -7.15196e-22 0)
(-7.02591e-06 6.58203e-22 0)
(-7.0258e-06 9.25059e-22 0)
(-7.0257e-06 -1.74511e-23 0)
(-7.02563e-06 -2.37835e-22 0)
(-7.02555e-06 5.94299e-22 0)
(-7.02551e-06 2.78394e-22 0)
(-7.02545e-06 -2.06096e-22 0)
(-7.02544e-06 -1.69931e-22 0)
(-7.02542e-06 4.80824e-22 0)
(-7.02541e-06 3.70343e-22 0)
(-7.05206e-06 9.58936e-19 0)
(-7.05206e-06 -2.05565e-19 0)
(-7.05165e-06 4.90281e-20 0)
(-7.05152e-06 -9.37496e-21 0)
(-7.05124e-06 2.59866e-21 0)
(-7.05112e-06 -6.7916e-22 0)
(-7.05089e-06 6.34222e-22 0)
(-7.05076e-06 8.70433e-22 0)
(-7.05059e-06 6.50445e-22 0)
(-7.05046e-06 4.62823e-22 0)
(-7.05034e-06 8.01049e-22 0)
(-7.05024e-06 5.67154e-22 0)
(-7.05013e-06 4.12928e-22 0)
(-7.05006e-06 3.6801e-22 0)
(-7.04998e-06 5.88954e-22 0)
(-7.04994e-06 6.75525e-22 0)
(-7.04988e-06 4.47647e-22 0)
(-7.04987e-06 -4.8222e-22 0)
(-7.04985e-06 -2.23974e-22 0)
(-7.04984e-06 3.28255e-22 0)
(-7.07206e-06 -9.46104e-19 0)
(-7.07206e-06 2.01989e-19 0)
(-7.07165e-06 -4.73202e-20 0)
(-7.07152e-06 1.05626e-20 0)
(-7.07124e-06 -2.88789e-21 0)
(-7.07111e-06 -4.90606e-22 0)
(-7.07089e-06 -9.37714e-22 0)
(-7.07076e-06 -1.91033e-22 0)
(-7.07059e-06 -6.73734e-22 0)
(-7.07046e-06 -6.54352e-22 0)
(-7.07033e-06 -6.69572e-22 0)
(-7.07023e-06 -4.5777e-22 0)
(-7.07012e-06 -8.9961e-23 0)
(-7.07006e-06 4.82285e-22 0)
(-7.06997e-06 -2.17432e-22 0)
(-7.06993e-06 1.26573e-22 0)
(-7.06988e-06 3.24145e-22 0)
(-7.06986e-06 1.58376e-22 0)
(-7.06984e-06 -5.6815e-22 0)
(-7.06983e-06 7.84693e-23 0)
(-7.09078e-06 5.85118e-19 0)
(-7.09079e-06 -1.31037e-19 0)
(-7.09037e-06 3.00595e-20 0)
(-7.09025e-06 -7.65459e-21 0)
(-7.08995e-06 8.69757e-22 0)
(-7.08984e-06 -8.42139e-22 0)
(-7.08959e-06 -2.85692e-22 0)
(-7.08948e-06 -5.08814e-24 0)
(-7.0893e-06 -1.43978e-22 0)
(-7.08917e-06 -2.28974e-22 0)
(-7.08905e-06 -1.97381e-22 0)
(-7.08894e-06 2.45383e-22 0)
(-7.08885e-06 3.4625e-22 0)
(-7.08876e-06 6.15392e-22 0)
(-7.08869e-06 3.01163e-22 0)
(-7.08863e-06 1.05204e-21 0)
(-7.08859e-06 6.6805e-22 0)
(-7.08857e-06 4.22537e-22 0)
(-7.08855e-06 -1.98606e-22 0)
(-7.08854e-06 2.83588e-23 0)
(-7.11003e-06 -1.19908e-20 0)
(-7.11003e-06 6.28966e-21 0)
(-7.10961e-06 -1.0777e-21 0)
(-7.10949e-06 8.84541e-22 0)
(-7.10919e-06 3.5397e-22 0)
(-7.10907e-06 7.57066e-23 0)
(-7.10883e-06 -6.63714e-22 0)
(-7.10871e-06 -9.06982e-22 0)
(-7.10854e-06 -2.94051e-22 0)
(-7.1084e-06 5.38642e-22 0)
(-7.10828e-06 4.18765e-22 0)
(-7.10817e-06 9.70304e-23 0)
(-7.10807e-06 1.11349e-22 0)
(-7.10799e-06 5.03231e-22 0)
(-7.10792e-06 7.13761e-22 0)
(-7.10787e-06 7.26062e-22 0)
(-7.10782e-06 2.98929e-22 0)
(-7.1078e-06 -4.26535e-22 0)
(-7.10778e-06 -3.56282e-22 0)
(-7.10777e-06 2.09944e-23 0)
(-7.13086e-06 -6.00163e-19 0)
(-7.13087e-06 1.34335e-19 0)
(-7.13043e-06 -3.06666e-20 0)
(-7.13031e-06 6.58687e-21 0)
(-7.13002e-06 -2.1886e-21 0)
(-7.12989e-06 -3.6049e-22 0)
(-7.12967e-06 -1.3507e-21 0)
(-7.12951e-06 -6.94805e-22 0)
(-7.12936e-06 1.92148e-22 0)
(-7.12922e-06 9.26974e-22 0)
(-7.1291e-06 1.23238e-21 0)
(-7.12898e-06 1.68971e-22 0)
(-7.1289e-06 -3.4773e-22 0)
(-7.1288e-06 3.68646e-22 0)
(-7.12874e-06 1.18053e-21 0)
(-7.12868e-06 -4.30058e-22 0)
(-7.12864e-06 -1.32293e-21 0)
(-7.12861e-06 -9.04504e-22 0)
(-7.12859e-06 -2.32387e-22 0)
(-7.12859e-06 -5.93384e-23 0)
(-7.15384e-06 1.00982e-18 0)
(-7.15386e-06 -2.22251e-19 0)
(-7.1534e-06 5.03086e-20 0)
(-7.1533e-06 -1.30257e-20 0)
(-7.15299e-06 1.96458e-21 0)
(-7.15289e-06 -1.30459e-21 0)
(-7.15261e-06 -3.10407e-22 0)
(-7.15254e-06 -1.1178e-23 0)
(-7.1523e-06 2.08368e-22 0)
(-7.15223e-06 4.27998e-22 0)
(-7.15204e-06 1.31015e-21 0)
(-7.15199e-06 1.16908e-21 0)
(-7.15184e-06 6.72932e-22 0)
(-7.15181e-06 1.86748e-22 0)
(-7.15169e-06 1.64179e-22 0)
(-7.15167e-06 -1.36487e-22 0)
(-7.1516e-06 -1.00134e-22 0)
(-7.15159e-06 3.3816e-22 0)
(-7.15156e-06 -5.42972e-23 0)
(-7.15156e-06 1.13526e-22 0)
(-7.17896e-06 -6.99967e-19 0)
(-7.17896e-06 1.48289e-19 0)
(-7.17854e-06 -3.72606e-20 0)
(-7.1784e-06 6.22425e-21 0)
(-7.17811e-06 -2.31273e-21 0)
(-7.17798e-06 -5.3446e-22 0)
(-7.17775e-06 -6.85059e-22 0)
(-7.17761e-06 -1.00857e-21 0)
(-7.17744e-06 -7.15571e-22 0)
(-7.1773e-06 3.30206e-22 0)
(-7.17718e-06 1.09445e-21 0)
(-7.17706e-06 1.87551e-21 0)
(-7.17697e-06 1.62158e-21 0)
(-7.17688e-06 -5.15632e-22 0)
(-7.17681e-06 -2.17385e-21 0)
(-7.17675e-06 -1.83168e-21 0)
(-7.17671e-06 -1.09974e-21 0)
(-7.17668e-06 -7.4927e-22 0)
(-7.17667e-06 -2.49418e-22 0)
(-7.17666e-06 1.25968e-22 0)
(-7.20522e-06 -1.63916e-19 0)
(-7.20522e-06 3.86769e-20 0)
(-7.20479e-06 -9.43446e-21 0)
(-7.20466e-06 8.2667e-22 0)
(-7.20436e-06 -1.44366e-21 0)
(-7.20424e-06 5.9972e-22 0)
(-7.20399e-06 7.72372e-22 0)
(-7.20387e-06 -5.58228e-23 0)
(-7.20368e-06 3.16337e-22 0)
(-7.20356e-06 8.62491e-22 0)
(-7.20341e-06 -1.02212e-22 0)
(-7.20332e-06 -5.12719e-23 0)
(-7.2032e-06 8.76058e-22 0)
(-7.20314e-06 6.5812e-22 0)
(-7.20304e-06 -5.71504e-22 0)
(-7.20301e-06 -1.55301e-21 0)
(-7.20295e-06 -1.2422e-21 0)
(-7.20293e-06 -1.07401e-21 0)
(-7.20291e-06 -4.79727e-22 0)
(-7.2029e-06 4.16461e-23 0)
(-7.23027e-06 8.5437e-19 0)
(-7.23026e-06 -1.86079e-19 0)
(-7.22986e-06 4.41727e-20 0)
(-7.2297e-06 -1.03982e-20 0)
(-7.22941e-06 1.53665e-21 0)
(-7.22927e-06 -2.74689e-22 0)
(-7.22904e-06 -4.52042e-23 0)
(-7.2289e-06 -1.06402e-21 0)
(-7.22872e-06 -8.19845e-22 0)
(-7.22859e-06 -1.18127e-22 0)
(-7.22846e-06 2.07889e-22 0)
(-7.22835e-06 5.63677e-23 0)
(-7.22824e-06 3.90189e-22 0)
(-7.22817e-06 9.83834e-22 0)
(-7.22808e-06 7.19013e-22 0)
(-7.22804e-06 -4.86765e-22 0)
(-7.22798e-06 -5.34738e-22 0)
(-7.22796e-06 -4.65285e-23 0)
(-7.22794e-06 1.09763e-22 0)
(-7.22794e-06 6.95458e-23 0)
(-7.25041e-06 -3.56455e-19 0)
(-7.25041e-06 7.40785e-20 0)
(-7.25e-06 -1.91167e-20 0)
(-7.24987e-06 3.0469e-21 0)
(-7.24958e-06 -9.71521e-22 0)
(-7.24945e-06 4.62266e-22 0)
(-7.24923e-06 -3.52359e-22 0)
(-7.24907e-06 -9.98857e-22 0)
(-7.24892e-06 -1.59185e-21 0)
(-7.24877e-06 -1.16331e-21 0)
(-7.24866e-06 1.45441e-22 0)
(-7.24854e-06 5.10797e-22 0)
(-7.24844e-06 -1.21012e-22 0)
(-7.24836e-06 -4.9241e-22 0)
(-7.24829e-06 -6.38461e-22 0)
(-7.24823e-06 -6.30937e-22 0)
(-7.24818e-06 -1.09104e-21 0)
(-7.24816e-06 -3.83523e-22 0)
(-7.24814e-06 1.35857e-23 0)
(-7.24813e-06 -1.654e-23 0)
(-7.25958e-06 -5.68799e-19 0)
(-7.25957e-06 1.23773e-19 0)
(-7.25957e-06 -3.03751e-20 0)
(-7.25956e-06 6.12827e-21 0)
(-7.25956e-06 -1.09793e-21 0)
(-7.25955e-06 1.10518e-21 0)
(-7.25955e-06 6.65628e-22 0)
(-7.25955e-06 4.94771e-22 0)
(-7.25955e-06 -3.27618e-22 0)
(-7.25954e-06 -7.96304e-22 0)
(-7.25954e-06 -7.42654e-22 0)
(-7.25954e-06 -4.29848e-22 0)
(-7.25954e-06 -5.3872e-22 0)
(-7.25954e-06 -5.01511e-22 0)
(-7.25954e-06 -5.5804e-22 0)
(-7.25954e-06 -2.74658e-22 0)
(-7.25954e-06 -5.26183e-22 0)
(-7.25954e-06 -2.67576e-22 0)
(-7.25954e-06 -1.88598e-22 0)
(-7.25954e-06 5.18875e-23 0)
)
;

boundaryField
{
    movingWall
    {
        type            calculated;
        value           nonuniform List<vector> 
20
(
(-7.25958e-06 -0 -0)
(-7.25957e-06 -0 -0)
(-7.25957e-06 -0 -0)
(-7.25956e-06 -0 -0)
(-7.25956e-06 -0 -0)
(-7.25955e-06 -0 -0)
(-7.25955e-06 -0 -0)
(-7.25955e-06 -0 -0)
(-7.25955e-06 -0 -0)
(-7.25954e-06 -0 -0)
(-7.25954e-06 -0 -0)
(-7.25954e-06 -0 -0)
(-7.25954e-06 -0 -0)
(-7.25954e-06 -0 -0)
(-7.25954e-06 -0 -0)
(-7.25954e-06 -0 -0)
(-7.25954e-06 -0 -0)
(-7.25954e-06 -0 -0)
(-7.25954e-06 -0 -0)
(-7.25954e-06 -0 -0)
)
;
    }
    fixedWalls
    {
        type            calculated;
        value           nonuniform List<vector> 
60
(
(-5.78461e-06 -0 -0)
(-5.96661e-06 -0 -0)
(-6.23883e-06 -0 -0)
(-6.50436e-06 -0 -0)
(-6.71095e-06 -0 -0)
(-6.85112e-06 -0 -0)
(-6.93912e-06 -0 -0)
(-6.99312e-06 -0 -0)
(-7.02761e-06 -0 -0)
(-7.05206e-06 -0 -0)
(-7.07206e-06 -0 -0)
(-7.09078e-06 -0 -0)
(-7.11003e-06 -0 -0)
(-7.13086e-06 -0 -0)
(-7.15384e-06 -0 -0)
(-7.17896e-06 -0 -0)
(-7.20522e-06 -0 -0)
(-7.23027e-06 -0 -0)
(-7.25041e-06 -0 -0)
(-7.25958e-06 -0 -0)
(-5.78458e-06 -0 -0)
(-5.96506e-06 -0 -0)
(-6.2371e-06 -0 -0)
(-6.50248e-06 -0 -0)
(-6.70895e-06 -0 -0)
(-6.84903e-06 -0 -0)
(-6.93697e-06 -0 -0)
(-6.99094e-06 -0 -0)
(-7.02541e-06 -0 -0)
(-7.04984e-06 -0 -0)
(-7.06983e-06 -0 -0)
(-7.08854e-06 -0 -0)
(-7.10777e-06 -0 -0)
(-7.12859e-06 -0 -0)
(-7.15156e-06 -0 -0)
(-7.17666e-06 -0 -0)
(-7.2029e-06 -0 -0)
(-7.22794e-06 -0 -0)
(-7.24813e-06 -0 -0)
(-7.25954e-06 -0 -0)
(-5.78461e-06 -0 -0)
(-5.7846e-06 -0 -0)
(-5.78461e-06 -0 -0)
(-5.78459e-06 -0 -0)
(-5.7846e-06 -0 -0)
(-5.78459e-06 -0 -0)
(-5.78459e-06 -0 -0)
(-5.78459e-06 -0 -0)
(-5.78459e-06 -0 -0)
(-5.78458e-06 -0 -0)
(-5.78458e-06 -0 -0)
(-5.78458e-06 -0 -0)
(-5.78458e-06 -0 -0)
(-5.78458e-06 -0 -0)
(-5.78458e-06 -0 -0)
(-5.78458e-06 -0 -0)
(-5.78458e-06 -0 -0)
(-5.78458e-06 -0 -0)
(-5.78458e-06 -0 -0)
(-5.78458e-06 -0 -0)
)
;
    }
    frontAndBack
    {
        type            empty;
    }
}


// ************************************************************************* //
