/*--------------------------------*- C++ -*----------------------------------*\
| =========                 |                                                 |
| \\      /  F ield         | OpenFOAM: The Open Source CFD Toolbox           |
|  \\    /   O peration     | Version:  2506                                  |
|   \\  /    A nd           | Website:  www.openfoam.com                      |
|    \\/     M anipulation  |                                                 |
\*---------------------------------------------------------------------------*/
FoamFile
{
    version     2.0;
    format      ascii;
    arch        "LSB;label=32;scalar=64";
    class       volTensorField;
    location    "7";
    object      kU2;
}
// * * * * * * * * * * * * * * * * * * * * * * * * * * * * * * * * * * * * * //

dimensions      [0 4 -4 0 0 0 0];

internalField   nonuniform List<tensor> 
400
(
(5.78461e-06 -8.7722e-19 -0 -8.81059e-19 1.3361e-31 0 -0 0 0)
(5.7846e-06 1.88141e-19 -0 1.88301e-19 6.12442e-33 -0 -0 -0 0)
(5.78461e-06 -4.41373e-20 -0 -4.50446e-20 3.43696e-34 0 -0 0 0)
(5.78459e-06 9.06801e-21 -0 8.40993e-21 1.31835e-35 -0 -0 -0 0)
(5.7846e-06 -2.90813e-21 -0 -3.21515e-21 1.61638e-36 0 -0 0 0)
(5.78459e-06 -7.01095e-22 -0 -4.18224e-22 5.06889e-38 0 -0 0 0)
(5.78459e-06 -1.15883e-21 -0 -6.07346e-22 1.21669e-37 0 -0 0 0)
(5.78459e-06 -6.45687e-22 -0 4.83577e-25 -5.39779e-41 -0 -0 0 0)
(5.78459e-06 -1.25318e-22 -0 1.49342e-22 -3.23538e-39 -0 -0 0 0)
(5.78458e-06 4.50391e-22 -0 1.14854e-22 8.94259e-39 -0 -0 -0 0)
(5.78458e-06 3.50471e-22 -0 3.46183e-23 2.09742e-39 -0 -0 -0 0)
(5.78458e-06 -4.18236e-22 -0 -3.17517e-22 2.29571e-38 0 -0 0 0)
(5.78458e-06 -1.19826e-22 -0 -2.70847e-23 5.61049e-40 0 -0 0 0)
(5.78458e-06 1.03881e-22 -0 -2.67931e-22 -4.81156e-39 0 -0 -0 0)
(5.78458e-06 -1.88982e-22 -0 -6.00191e-22 1.96082e-38 0 -0 0 0)
(5.78458e-06 -7.71233e-22 -0 -7.12872e-22 9.50441e-38 0 -0 0 0)
(5.78458e-06 -8.10917e-22 -0 -5.35979e-22 7.51368e-38 0 -0 0 0)
(5.78458e-06 -5.88081e-22 -0 -1.39335e-22 1.41653e-38 0 -0 0 0)
(5.78458e-06 2.87177e-23 -0 -5.67091e-23 -2.81534e-40 0 -0 -0 0)
(5.78458e-06 -1.76385e-22 -0 -3.34999e-22 1.02149e-38 0 -0 0 0)
(5.96661e-06 -2.38824e-20 -0 -2.52108e-20 1.00911e-34 0 -0 0 0)
(5.96663e-06 5.99405e-21 -0 4.50389e-21 4.52459e-36 -0 -0 -0 0)
(5.96632e-06 -9.64882e-22 -0 -2.20102e-21 3.55953e-37 0 -0 0 0)
(5.96625e-06 2.82546e-22 -0 -8.81725e-22 -4.17562e-38 0 -0 -0 0)
(5.96604e-06 -4.36506e-22 -0 -9.96448e-22 7.29051e-38 0 -0 0 0)
(5.96597e-06 -1.30964e-21 -0 -7.56177e-22 1.65994e-37 0 -0 0 0)
(5.96578e-06 -9.04858e-22 -0 -3.14829e-23 4.77515e-39 0 -0 0 0)
(5.96573e-06 2.72229e-22 -0 6.30277e-22 2.87609e-38 -0 -0 -0 0)
(5.96557e-06 7.28682e-22 -0 6.15354e-22 7.51642e-38 -0 -0 -0 0)
(5.96552e-06 5.68063e-22 -0 4.80241e-22 4.57305e-38 -0 -0 -0 0)
(5.9654e-06 5.22208e-22 -0 9.89366e-23 8.66085e-39 -0 -0 -0 0)
(5.96536e-06 -2.70986e-22 -0 -7.18224e-22 3.26265e-38 0 -0 0 0)
(5.96525e-06 -1.83488e-22 -0 -6.22637e-22 1.9152e-38 0 -0 0 0)
(5.96523e-06 -5.25394e-22 -0 -2.51326e-22 2.21358e-38 0 -0 0 0)
(5.96515e-06 -1.32088e-22 -0 4.45055e-23 -9.85493e-40 -0 -0 0 0)
(5.96514e-06 -4.01799e-22 -0 -5.78009e-22 3.89334e-38 0 -0 0 0)
(5.96509e-06 -5.25849e-22 -0 -9.60546e-22 8.46763e-38 0 -0 0 0)
(5.96508e-06 -6.40246e-22 -0 -2.10868e-22 2.2633e-38 0 -0 0 0)
(5.96506e-06 4.85748e-23 -0 4.43399e-22 3.61069e-39 -0 -0 -0 0)
(5.96506e-06 8.8881e-23 -0 1.44229e-22 2.14906e-39 -0 -0 -0 0)
(6.23883e-06 8.46189e-19 -0 8.4446e-19 1.14536e-31 -0 -0 -0 0)
(6.23882e-06 -1.83759e-19 -0 -1.8556e-19 5.46551e-33 0 -0 0 0)
(6.23851e-06 4.31409e-20 -0 4.20236e-20 2.90604e-34 -0 -0 -0 0)
(6.23841e-06 -9.65469e-21 -0 -1.05245e-20 1.62879e-35 0 -0 0 0)
(6.23819e-06 1.60394e-21 -0 8.43323e-22 2.16832e-37 -0 -0 -0 0)
(6.23809e-06 -1.48559e-21 -0 -1.82696e-21 4.35087e-37 0 -0 0 0)
(6.23792e-06 -1.32522e-21 -0 -1.5623e-21 3.31905e-37 0 -0 0 0)
(6.23782e-06 -9.59291e-22 -0 -1.75741e-21 2.70266e-37 0 -0 0 0)
(6.23768e-06 -9.04659e-22 -0 -8.40182e-22 1.21853e-37 0 -0 0 0)
(6.23759e-06 -9.14864e-22 -0 1.29226e-22 -1.89535e-38 -0 -0 0 0)
(6.23749e-06 -5.66865e-22 -0 -3.04534e-22 2.76761e-38 0 -0 0 0)
(6.23741e-06 2.28705e-22 -0 2.38078e-22 8.72952e-39 -0 -0 -0 0)
(6.23733e-06 6.90316e-22 -0 6.28612e-22 6.95716e-38 -0 -0 -0 0)
(6.23727e-06 2.23813e-22 -0 7.87124e-22 2.82445e-38 -0 -0 -0 0)
(6.23721e-06 5.87306e-22 -0 1.19031e-21 1.12082e-37 -0 -0 -0 0)
(6.23718e-06 1.19305e-21 -0 1.19456e-21 2.28496e-37 -0 -0 -0 0)
(6.23713e-06 1.31659e-21 -0 5.75176e-22 1.21414e-37 -0 -0 -0 0)
(6.23712e-06 6.46201e-22 -0 3.00708e-22 3.11551e-38 -0 -0 -0 0)
(6.2371e-06 5.31187e-22 -0 8.12114e-22 6.91643e-38 -0 -0 -0 0)
(6.2371e-06 7.41415e-22 -0 7.68063e-22 9.1301e-38 -0 -0 -0 0)
(6.50436e-06 -7.38821e-19 -0 -7.42773e-19 8.43706e-32 0 -0 0 0)
(6.50436e-06 1.60234e-19 -0 1.60145e-19 3.94515e-33 -0 -0 -0 0)
(6.50401e-06 -3.66611e-20 -0 -3.75174e-20 2.11474e-34 0 -0 0 0)
(6.50391e-06 8.83546e-21 -0 7.97882e-21 1.08391e-35 -0 -0 -0 0)
(6.50366e-06 -1.79057e-21 -0 -2.90612e-21 8.00105e-37 0 -0 0 0)
(6.50357e-06 -4.36336e-22 -0 -1.46884e-21 9.85474e-38 0 -0 0 0)
(6.50337e-06 -1.59215e-21 -0 -2.44093e-21 5.97587e-37 0 -0 0 0)
(6.50326e-06 -1.41723e-21 -0 -2.01111e-21 4.38275e-37 0 -0 0 0)
(6.50312e-06 -1.46153e-21 -0 -1.33734e-21 3.00559e-37 0 -0 0 0)
(6.503e-06 -9.86275e-22 -0 -2.46712e-22 3.74174e-38 0 -0 0 0)
(6.50291e-06 -3.87467e-22 -0 6.70447e-22 -3.99476e-38 -0 -0 0 0)
(6.50281e-06 9.51677e-22 -0 1.44366e-21 2.11278e-37 -0 -0 -0 0)
(6.50273e-06 1.08877e-21 -0 1.46647e-21 2.45536e-37 -0 -0 -0 0)
(6.50266e-06 8.20991e-22 -0 9.08427e-22 1.14693e-37 -0 -0 -0 0)
(6.50261e-06 7.92004e-22 -0 7.35168e-22 8.95419e-38 -0 -0 -0 0)
(6.50256e-06 1.29867e-21 -0 1.09336e-21 2.18364e-37 -0 -0 -0 0)
(6.50252e-06 9.4017e-22 -0 1.16909e-21 1.69034e-37 -0 -0 -0 0)
(6.5025e-06 9.81499e-22 -0 6.90198e-22 1.0418e-37 -0 -0 -0 0)
(6.50249e-06 8.35514e-22 -0 4.23583e-22 5.44268e-38 -0 -0 -0 0)
(6.50248e-06 5.31126e-22 -0 7.4102e-23 6.05269e-39 -0 -0 -0 0)
(6.71095e-06 8.91428e-20 -0 8.99976e-20 1.19545e-33 -0 -0 -0 0)
(6.71095e-06 -1.58164e-20 -0 -1.71334e-20 4.038e-35 0 -0 0 0)
(6.71058e-06 4.30501e-21 -0 3.78393e-21 2.42749e-36 -0 -0 -0 0)
(6.71047e-06 -9.96671e-22 -0 -2.09244e-21 3.10779e-37 0 -0 0 0)
(6.71021e-06 -8.48135e-22 -0 -1.69344e-21 2.14042e-37 0 -0 0 0)
(6.71011e-06 -1.7886e-21 -0 -2.17543e-21 5.79867e-37 0 -0 0 0)
(6.70989e-06 -1.50312e-21 -0 -1.75427e-21 3.92985e-37 0 -0 0 0)
(6.70979e-06 -7.81914e-22 -0 -6.45476e-22 7.52194e-38 0 -0 0 0)
(6.70962e-06 -3.64776e-22 -0 -7.48183e-22 4.06758e-38 0 -0 0 0)
(6.70953e-06 -3.97682e-22 -0 -2.99481e-22 1.77506e-38 0 -0 0 0)
(6.70939e-06 4.57936e-22 -0 1.32019e-21 9.01068e-38 -0 -0 -0 0)
(6.70932e-06 1.57073e-21 -0 1.37163e-21 3.21114e-37 -0 -0 -0 0)
(6.70921e-06 3.9635e-22 -0 3.8617e-22 2.28131e-38 -0 -0 -0 0)
(6.70916e-06 1.38248e-22 -0 6.42752e-22 1.32445e-38 -0 -0 -0 0)
(6.70907e-06 7.66115e-22 -0 1.30022e-21 1.48473e-37 -0 -0 -0 0)
(6.70905e-06 1.39403e-21 -0 1.53048e-21 3.18008e-37 -0 -0 -0 0)
(6.70899e-06 1.16291e-21 -0 1.08467e-21 1.88011e-37 -0 -0 -0 0)
(6.70898e-06 8.09184e-22 -0 -1.11327e-22 -1.34274e-38 0 -0 -0 0)
(6.70896e-06 2.19912e-23 -0 -5.91102e-22 -1.93756e-39 0 -0 -0 0)
(6.70895e-06 7.63676e-23 -0 -4.59822e-22 -5.23412e-39 0 -0 -0 0)
(6.85112e-06 7.36086e-19 -0 7.34937e-19 7.89617e-32 -0 -0 -0 0)
(6.85113e-06 -1.61978e-19 -0 -1.62672e-19 3.84597e-33 0 -0 0 0)
(6.85073e-06 3.69575e-20 -0 3.66875e-20 1.97917e-34 -0 -0 -0 0)
(6.85062e-06 -9.18055e-21 -0 -9.3456e-21 1.25241e-35 0 -0 0 0)
(6.85034e-06 7.8406e-22 -0 8.53639e-22 9.77038e-38 -0 -0 -0 0)
(6.85025e-06 -1.21611e-21 -0 -1.48259e-21 2.63202e-37 0 -0 0 0)
(6.85001e-06 -5.74638e-22 -0 -1.1542e-21 9.68246e-38 0 -0 0 0)
(6.84991e-06 -7.7572e-22 -0 -9.2602e-22 1.04867e-37 0 -0 0 0)
(6.84973e-06 -6.2096e-22 -0 -4.83083e-22 4.37937e-38 0 -0 0 0)
(6.84962e-06 -5.81138e-22 -0 -2.77951e-22 2.3582e-38 0 -0 0 0)
(6.8495e-06 -1.27757e-22 -0 2.35581e-22 -4.39406e-39 -0 -0 0 0)
(6.8494e-06 3.04039e-22 -0 5.35091e-22 2.37522e-38 -0 -0 -0 0)
(6.84931e-06 3.95614e-22 -0 6.11177e-22 3.53014e-38 -0 -0 -0 0)
(6.84923e-06 9.47681e-22 -0 1.15501e-21 1.59811e-37 -0 -0 -0 0)
(6.84917e-06 9.99326e-22 -0 1.69123e-21 2.46758e-37 -0 -0 -0 0)
(6.84912e-06 1.30694e-21 -0 1.63531e-21 3.12048e-37 -0 -0 -0 0)
(6.84908e-06 1.44814e-21 -0 1.07644e-21 2.27598e-37 -0 -0 -0 0)
(6.84905e-06 6.24816e-22 -0 -2.58023e-22 -2.35386e-38 0 -0 -0 0)
(6.84904e-06 -1.14272e-22 -0 -1.0433e-21 1.74069e-38 0 -0 0 0)
(6.84903e-06 1.89689e-23 -0 -6.59432e-22 -1.82635e-39 0 -0 -0 0)
(6.93912e-06 -1.07846e-18 -0 -1.08301e-18 1.68319e-31 0 -0 0 0)
(6.93913e-06 2.3084e-19 -0 2.31391e-19 7.69756e-33 -0 -0 -0 0)
(6.93871e-06 -5.50923e-20 -0 -5.51176e-20 4.37626e-34 0 -0 0 0)
(6.93861e-06 1.19248e-20 -0 1.22854e-20 2.1114e-35 -0 -0 -0 0)
(6.93832e-06 -2.35706e-21 -0 -2.12615e-21 7.22288e-37 0 -0 0 0)
(6.93821e-06 1.14142e-21 -0 6.40604e-22 1.05387e-37 -0 -0 -0 0)
(6.93799e-06 9.65691e-23 -0 -5.20622e-22 -7.24649e-39 0 -0 -0 0)
(6.93785e-06 -4.35595e-22 -0 -1.03913e-21 6.52418e-38 0 -0 0 0)
(6.9377e-06 -1.47079e-21 -0 -1.52803e-21 3.23943e-37 0 -0 0 0)
(6.93757e-06 -1.92508e-21 -0 -1.73988e-21 4.82792e-37 0 -0 0 0)
(6.93746e-06 -1.33277e-21 -0 -5.1806e-22 9.95257e-38 0 -0 0 0)
(6.93735e-06 -8.29523e-22 -0 -7.30824e-23 8.73872e-39 0 -0 0 0)
(6.93726e-06 1.50625e-22 -0 5.52981e-22 1.20065e-38 -0 -0 -0 0)
(6.93718e-06 9.35579e-22 -0 9.68952e-22 1.30677e-37 -0 -0 -0 0)
(6.93712e-06 9.23589e-22 -0 6.86006e-22 9.13329e-38 -0 -0 -0 0)
(6.93706e-06 4.32924e-22 -0 1.2845e-22 8.01621e-39 -0 -0 -0 0)
(6.93702e-06 3.59691e-22 -0 -1.17511e-23 -6.09308e-40 0 -0 -0 0)
(6.937e-06 3.61333e-22 -0 1.8047e-22 9.40029e-39 -0 -0 -0 0)
(6.93698e-06 3.85792e-22 -0 -2.01806e-22 -1.12232e-38 0 -0 -0 0)
(6.93697e-06 1.23032e-22 -0 -3.99982e-22 -7.09395e-39 0 -0 -0 0)
(6.99312e-06 4.39281e-19 -0 4.40896e-19 2.76953e-32 -0 -0 -0 0)
(6.99312e-06 -9.34507e-20 -0 -9.44952e-20 1.26276e-33 0 -0 0 0)
(6.99273e-06 2.24321e-20 -0 2.20957e-20 7.08812e-35 -0 -0 -0 0)
(6.9926e-06 -4.33459e-21 -0 -4.94622e-21 3.06607e-36 0 -0 0 0)
(6.99232e-06 1.01203e-21 -0 3.58426e-22 5.18764e-38 -0 -0 -0 0)
(6.9922e-06 -5.75564e-22 -0 -1.17866e-21 9.70211e-38 0 -0 0 0)
(6.99197e-06 -8.63147e-22 -0 -7.55653e-22 9.32841e-38 0 -0 0 0)
(6.99186e-06 -8.22638e-22 -0 -8.16119e-22 9.60219e-38 0 -0 0 0)
(6.99168e-06 -8.57337e-22 -0 -8.71796e-22 1.06902e-37 0 -0 0 0)
(6.99156e-06 -6.90848e-22 -0 -5.2783e-22 5.21558e-38 0 -0 0 0)
(6.99143e-06 -1.69332e-22 -0 1.02418e-22 -2.48056e-39 -0 -0 0 0)
(6.99133e-06 3.23407e-23 -0 2.7242e-22 1.26017e-39 -0 -0 -0 0)
(6.99123e-06 1.54771e-22 -0 6.23354e-22 1.37997e-38 -0 -0 -0 0)
(6.99116e-06 4.22626e-22 -0 5.54995e-22 3.35503e-38 -0 -0 -0 0)
(6.99108e-06 3.81659e-22 -0 8.18098e-23 4.46618e-39 -0 -0 -0 0)
(6.99104e-06 3.09858e-22 -0 -7.85524e-23 -3.48161e-39 0 -0 -0 0)
(6.99099e-06 5.66874e-22 -0 -4.67121e-22 -3.78771e-38 0 -0 -0 0)
(6.99097e-06 2.67366e-22 -0 -4.70076e-22 -1.79778e-38 0 -0 -0 0)
(6.99095e-06 4.02426e-23 -0 8.94702e-23 5.15025e-40 -0 -0 -0 0)
(6.99094e-06 1.40495e-22 -0 -6.61845e-23 -1.33009e-39 0 -0 -0 0)
(7.02761e-06 4.74291e-19 -0 4.75818e-19 3.21127e-32 -0 -0 -0 0)
(7.02761e-06 -1.00876e-19 -0 -1.01901e-19 1.46271e-33 0 -0 0 0)
(7.02721e-06 2.39468e-20 -0 2.38249e-20 8.11888e-35 -0 -0 -0 0)
(7.02708e-06 -4.63311e-21 -0 -4.6624e-21 3.07402e-36 0 -0 0 0)
(7.0268e-06 1.62801e-21 -0 1.40002e-21 3.24363e-37 -0 -0 -0 0)
(7.02668e-06 2.94681e-22 -0 -4.45021e-23 -1.86631e-39 0 -0 -0 0)
(7.02645e-06 1.60884e-22 -0 -1.65975e-22 -3.80032e-39 0 -0 -0 0)
(7.02632e-06 -1.76103e-22 -0 -2.252e-22 5.64427e-39 0 -0 0 0)
(7.02616e-06 1.42738e-22 -0 1.57704e-22 3.20378e-39 -0 -0 -0 0)
(7.02603e-06 8.1509e-22 -0 7.15196e-22 8.297e-38 -0 -0 -0 0)
(7.02591e-06 3.29544e-22 -0 -6.58203e-22 -3.08725e-38 0 -0 -0 0)
(7.0258e-06 -6.3248e-22 -0 -9.25059e-22 8.32761e-38 0 -0 0 0)
(7.0257e-06 -6.02694e-22 -0 1.74511e-23 -1.49703e-39 -0 -0 0 0)
(7.02563e-06 4.63231e-23 -0 2.37835e-22 1.56815e-39 -0 -0 -0 0)
(7.02555e-06 7.49286e-24 -0 -5.94299e-22 -6.33829e-40 0 -0 -0 0)
(7.02551e-06 6.32236e-23 -0 -2.78394e-22 -2.50531e-39 0 -0 -0 0)
(7.02545e-06 3.61264e-22 -0 2.06096e-22 1.05979e-38 -0 -0 -0 0)
(7.02544e-06 5.86877e-22 -0 1.69931e-22 1.41954e-38 -0 -0 -0 0)
(7.02542e-06 2.21852e-23 -0 -4.80824e-22 -1.51837e-39 0 -0 -0 0)
(7.02541e-06 -4.02206e-22 -0 -3.70343e-22 2.12022e-38 0 -0 0 0)
(7.05206e-06 -9.54601e-19 -0 -9.58936e-19 1.29806e-31 0 -0 0 0)
(7.05206e-06 2.05281e-19 -0 2.05565e-19 5.98387e-33 -0 -0 -0 0)
(7.05165e-06 -4.82667e-20 -0 -4.90281e-20 3.35584e-34 0 -0 0 0)
(7.05152e-06 9.39746e-21 -0 9.37496e-21 1.24939e-35 -0 -0 -0 0)
(7.05124e-06 -2.83905e-21 -0 -2.59866e-21 1.0463e-36 0 -0 0 0)
(7.05112e-06 4.7175e-22 -0 6.7916e-22 4.54387e-38 -0 -0 -0 0)
(7.05089e-06 -1.68339e-22 -0 -6.34222e-22 1.5142e-38 0 -0 0 0)
(7.05076e-06 -8.34304e-22 -0 -8.70433e-22 1.02997e-37 0 -0 0 0)
(7.05059e-06 -5.8925e-22 -0 -6.50445e-22 5.43606e-38 0 -0 0 0)
(7.05046e-06 1.06129e-22 -0 -4.62823e-22 -6.96677e-39 0 -0 -0 0)
(7.05034e-06 -2.53489e-22 -0 -8.01049e-22 2.88011e-38 0 -0 0 0)
(7.05024e-06 -2.75387e-22 -0 -5.67154e-22 2.21534e-38 0 -0 0 0)
(7.05013e-06 -1.53779e-22 -0 -4.12928e-22 9.00688e-39 0 -0 0 0)
(7.05006e-06 1.10769e-22 -0 -3.6801e-22 -5.78209e-39 0 -0 -0 0)
(7.04998e-06 -6.76174e-23 -0 -5.88954e-22 5.64875e-39 0 -0 0 0)
(7.04994e-06 -4.79726e-22 -0 -6.75525e-22 4.59673e-38 0 -0 0 0)
(7.04988e-06 -8.67036e-22 -0 -4.47647e-22 5.50542e-38 0 -0 0 0)
(7.04987e-06 -4.04278e-23 -0 4.8222e-22 -2.76532e-39 -0 -0 0 0)
(7.04985e-06 4.34516e-22 -0 2.23974e-22 1.38046e-38 -0 -0 -0 0)
(7.04984e-06 4.88262e-22 -0 -3.28255e-22 -2.27345e-38 0 -0 -0 0)
(7.07206e-06 9.41559e-19 -0 9.46104e-19 1.25962e-31 -0 -0 -0 0)
(7.07206e-06 -2.01358e-19 -0 -2.01989e-19 5.75111e-33 0 -0 0 0)
(7.07165e-06 4.7806e-20 -0 4.73202e-20 3.19895e-34 -0 -0 -0 0)
(7.07152e-06 -9.98822e-21 -0 -1.05626e-20 1.49192e-35 0 -0 0 0)
(7.07124e-06 3.03791e-21 -0 2.88789e-21 1.24068e-36 -0 -0 -0 0)
(7.07111e-06 4.77861e-22 -0 4.90606e-22 3.31548e-38 -0 -0 -0 0)
(7.07089e-06 1.28937e-21 -0 9.37714e-22 1.70992e-37 -0 -0 -0 0)
(7.07076e-06 6.7522e-22 -0 1.91033e-22 1.82427e-38 -0 -0 -0 0)
(7.07059e-06 8.98528e-22 -0 6.73734e-22 8.5618e-38 -0 -0 -0 0)
(7.07046e-06 9.47123e-22 -0 6.54352e-22 8.76537e-38 -0 -0 -0 0)
(7.07033e-06 7.86205e-22 -0 6.69572e-22 7.44549e-38 -0 -0 -0 0)
(7.07023e-06 8.1039e-22 -0 4.5777e-22 5.24696e-38 -0 -0 -0 0)
(7.07012e-06 9.20491e-22 -0 8.9961e-23 1.17124e-38 -0 -0 -0 0)
(7.07006e-06 1.88905e-22 -0 -4.82285e-22 -1.28862e-38 0 -0 -0 0)
(7.06997e-06 -1.18382e-22 -0 2.17432e-22 -3.64074e-39 -0 -0 0 0)
(7.06993e-06 -4.02209e-23 -0 -1.26573e-22 7.20074e-40 0 -0 0 0)
(7.06988e-06 -3.93918e-22 -0 -3.24145e-22 1.80607e-38 0 -0 0 0)
(7.06986e-06 -2.14396e-22 -0 -1.58376e-22 4.80282e-39 0 -0 0 0)
(7.06984e-06 6.32536e-22 -0 5.6815e-22 5.08322e-38 -0 -0 -0 0)
(7.06983e-06 1.03318e-21 -0 -7.84693e-23 -1.14674e-38 0 -0 -0 0)
(7.09078e-06 -5.85907e-19 -0 -5.85118e-19 4.83479e-32 0 -0 0 0)
(7.09079e-06 1.31247e-19 -0 1.31037e-19 2.42543e-33 -0 -0 -0 0)
(7.09037e-06 -3.03123e-20 -0 -3.00595e-20 1.28509e-34 0 -0 0 0)
(7.09025e-06 7.96594e-21 -0 7.65459e-21 8.59998e-36 -0 -0 -0 0)
(7.08995e-06 -5.8576e-22 -0 -8.69757e-22 7.18579e-38 0 -0 0 0)
(7.08984e-06 1.06748e-21 -0 8.42139e-22 1.26796e-37 -0 -0 -0 0)
(7.08959e-06 6.57091e-22 -0 2.85692e-22 2.64791e-38 -0 -0 -0 0)
(7.08948e-06 8.62159e-22 -0 5.08814e-24 6.18774e-40 -0 -0 -0 0)
(7.0893e-06 5.568e-22 -0 1.43978e-22 1.13081e-38 -0 -0 -0 0)
(7.08917e-06 3.83235e-22 -0 2.28974e-22 1.23782e-38 -0 -0 -0 0)
(7.08905e-06 6.53788e-22 -0 1.97381e-22 1.82035e-38 -0 -0 -0 0)
(7.08894e-06 7.55699e-25 -0 -2.45383e-22 -2.61584e-41 0 -0 -0 0)
(7.08885e-06 -1.06648e-22 -0 -3.4625e-22 5.20912e-39 0 -0 0 0)
(7.08876e-06 -6.12616e-22 -0 -6.15392e-22 5.31826e-38 0 -0 0 0)
(7.08869e-06 -7.33505e-22 -0 -3.01163e-22 3.11629e-38 0 -0 0 0)
(7.08863e-06 -7.53477e-22 -0 -1.05204e-21 1.11825e-37 0 -0 0 0)
(7.08859e-06 -5.57092e-22 -0 -6.6805e-22 5.2502e-38 0 -0 0 0)
(7.08857e-06 -2.45207e-22 -0 -4.22537e-22 1.46164e-38 0 -0 0 0)
(7.08855e-06 2.22727e-22 -0 1.98606e-22 6.24032e-39 -0 -0 -0 0)
(7.08854e-06 1.57128e-22 -0 -2.83588e-23 -6.28616e-40 0 -0 -0 0)
(7.11003e-06 1.42247e-20 -0 1.19908e-20 2.39894e-35 -0 -0 -0 0)
(7.11003e-06 -5.90095e-21 -0 -6.28966e-21 5.22009e-36 0 -0 0 0)
(7.10961e-06 1.40246e-21 -0 1.0777e-21 2.1259e-37 -0 -0 -0 0)
(7.10949e-06 -4.82972e-22 -0 -8.84541e-22 6.00899e-38 0 -0 0 0)
(7.10919e-06 -2.19713e-22 -0 -3.5397e-22 1.09396e-38 0 -0 0 0)
(7.10907e-06 -2.18668e-22 -0 -7.57066e-23 2.32866e-39 0 -0 0 0)
(7.10883e-06 5.18502e-22 -0 6.63714e-22 4.84098e-38 -0 -0 -0 0)
(7.10871e-06 1.08088e-21 -0 9.06982e-22 1.37906e-37 -0 -0 -0 0)
(7.10854e-06 5.35363e-22 -0 2.94051e-22 2.21458e-38 -0 -0 -0 0)
(7.1084e-06 3.63645e-23 -0 -5.38642e-22 -2.75554e-39 0 -0 -0 0)
(7.10828e-06 3.28568e-23 -0 -4.18765e-22 -1.93567e-39 0 -0 -0 0)
(7.10817e-06 2.87702e-22 -0 -9.70304e-23 -3.92729e-39 0 -0 -0 0)
(7.10807e-06 3.42768e-22 -0 -1.11349e-22 -5.3695e-39 0 -0 -0 0)
(7.10799e-06 -6.51392e-23 -0 -5.03231e-22 4.61172e-39 0 -0 0 0)
(7.10792e-06 -7.34441e-22 -0 -7.13761e-22 7.37509e-38 0 -0 0 0)
(7.10787e-06 -8.25053e-22 -0 -7.26062e-22 8.42784e-38 0 -0 0 0)
(7.10782e-06 -2.15645e-22 -0 -2.98929e-22 9.06925e-39 0 -0 0 0)
(7.1078e-06 -9.89619e-24 -0 4.26535e-22 -5.93864e-40 -0 -0 0 0)
(7.10778e-06 -2.5287e-22 -0 3.56282e-22 -1.26752e-38 -0 -0 0 0)
(7.10777e-06 2.89723e-22 -0 -2.09944e-23 -8.55762e-40 0 -0 -0 0)
(7.13086e-06 6.00724e-19 -0 6.00163e-19 5.05594e-32 -0 -0 -0 0)
(7.13087e-06 -1.33678e-19 -0 -1.34335e-19 2.51829e-33 0 -0 0 0)
(7.13043e-06 3.09174e-20 -0 3.06666e-20 1.3297e-34 -0 -0 -0 0)
(7.13031e-06 -7.37034e-21 -0 -6.58687e-21 6.8086e-36 0 -0 0 0)
(7.13002e-06 2.45143e-21 -0 2.1886e-21 7.52482e-37 -0 -0 -0 0)
(7.12989e-06 9.58431e-22 -0 3.6049e-22 4.84587e-38 -0 -0 -0 0)
(7.12967e-06 1.36966e-21 -0 1.3507e-21 2.5948e-37 -0 -0 -0 0)
(7.12951e-06 7.02355e-22 -0 6.94805e-22 6.84478e-38 -0 -0 -0 0)
(7.12936e-06 3.16313e-22 -0 -1.92148e-22 -8.52515e-39 0 -0 -0 0)
(7.12922e-06 -3.99741e-22 -0 -9.26974e-22 5.19762e-38 0 -0 0 0)
(7.1291e-06 -9.2665e-22 -0 -1.23238e-21 1.60186e-37 0 -0 0 0)
(7.12898e-06 -7.03617e-23 -0 -1.68971e-22 1.66771e-39 0 -0 0 0)
(7.1289e-06 4.6146e-22 -0 3.4773e-22 2.25089e-38 -0 -0 -0 0)
(7.1288e-06 4.98396e-22 -0 -3.68646e-22 -2.57731e-38 0 -0 -0 0)
(7.12874e-06 -4.09786e-22 -0 -1.18053e-21 6.7861e-38 0 -0 0 0)
(7.12868e-06 -4.48618e-22 -0 4.30058e-22 -2.70642e-38 -0 -0 0 0)
(7.12864e-06 6.23556e-22 -0 1.32293e-21 1.15719e-37 -0 -0 -0 0)
(7.12861e-06 7.75625e-22 -0 9.04504e-22 9.84141e-38 -0 -0 -0 0)
(7.12859e-06 4.00847e-22 -0 2.32387e-22 1.30673e-38 -0 -0 -0 0)
(7.12859e-06 5.23137e-22 -0 5.93384e-23 4.3546e-39 -0 -0 -0 0)
(7.15384e-06 -1.00876e-18 -0 -1.00982e-18 1.42394e-31 0 -0 0 0)
(7.15386e-06 2.22109e-19 -0 2.22251e-19 6.9003e-33 -0 -0 -0 0)
(7.1534e-06 -5.0772e-20 -0 -5.03086e-20 3.57071e-34 0 -0 0 0)
(7.1533e-06 1.27314e-20 -0 1.30257e-20 2.3183e-35 -0 -0 -0 0)
(7.15299e-06 -1.49975e-21 -0 -1.96458e-21 4.11908e-37 0 -0 0 0)
(7.15289e-06 1.96576e-21 -0 1.30459e-21 3.58528e-37 -0 -0 -0 0)
(7.15261e-06 1.08087e-21 -0 3.10407e-22 4.69072e-38 -0 -0 -0 0)
(7.15254e-06 3.62103e-22 -0 1.1178e-23 5.65895e-40 -0 -0 -0 0)
(7.1523e-06 6.48947e-23 -0 -2.08368e-22 -1.89058e-39 0 -0 -0 0)
(7.15223e-06 -2.96755e-22 -0 -4.27998e-22 1.77582e-38 0 -0 0 0)
(7.15204e-06 -7.27765e-22 -0 -1.31015e-21 1.33316e-37 0 -0 0 0)
(7.15199e-06 -1.14383e-21 -0 -1.16908e-21 1.86973e-37 0 -0 0 0)
(7.15184e-06 -1.17279e-21 -0 -6.72932e-22 1.1035e-37 0 -0 0 0)
(7.15181e-06 -4.80593e-22 -0 -1.86748e-22 1.25492e-38 0 -0 0 0)
(7.15169e-06 2.47203e-22 -0 -1.64179e-22 -5.67495e-39 0 -0 -0 0)
(7.15167e-06 2.74593e-22 -0 1.36487e-22 5.24052e-39 -0 -0 -0 0)
(7.1516e-06 1.53756e-22 -0 1.00134e-22 2.15282e-39 -0 -0 -0 0)
(7.15159e-06 3.9112e-23 -0 -3.3816e-22 -1.84939e-39 0 -0 -0 0)
(7.15156e-06 2.44281e-22 -0 5.42972e-23 1.85467e-39 -0 -0 -0 0)
(7.15156e-06 2.3059e-22 -0 -1.13526e-22 -3.66045e-39 0 -0 -0 0)
(7.17896e-06 6.98247e-19 -0 6.99967e-19 6.80809e-32 -0 -0 -0 0)
(7.17896e-06 -1.48624e-19 -0 -1.48289e-19 3.07e-33 0 -0 0 0)
(7.17854e-06 3.69745e-20 -0 3.72606e-20 1.91918e-34 -0 -0 -0 0)
(7.1784e-06 -5.74739e-21 -0 -6.22425e-21 4.98345e-36 0 -0 0 0)
(7.17811e-06 2.58024e-21 -0 2.31273e-21 8.31331e-37 -0 -0 -0 0)
(7.17798e-06 6.17454e-22 -0 5.3446e-22 4.59745e-38 -0 -0 -0 0)
(7.17775e-06 1.27819e-21 -0 6.85059e-22 1.21993e-37 -0 -0 -0 0)
(7.17761e-06 1.33466e-21 -0 1.00857e-21 1.87541e-37 -0 -0 -0 0)
(7.17744e-06 1.17094e-21 -0 7.15571e-22 1.16739e-37 -0 -0 -0 0)
(7.1773e-06 2.15225e-22 -0 -3.30206e-22 -9.90184e-39 0 -0 -0 0)
(7.17718e-06 -6.25146e-22 -0 -1.09445e-21 9.53286e-38 0 -0 0 0)
(7.17706e-06 -1.72802e-21 -0 -1.87551e-21 4.51567e-37 0 -0 0 0)
(7.17697e-06 -1.97081e-21 -0 -1.62158e-21 4.4529e-37 0 -0 0 0)
(7.17688e-06 -8.85192e-22 -0 5.15632e-22 -6.35977e-38 -0 -0 0 0)
(7.17681e-06 1.74458e-21 -0 2.17385e-21 5.28433e-37 -0 -0 -0 0)
(7.17675e-06 2.4726e-21 -0 1.83168e-21 6.31066e-37 -0 -0 -0 0)
(7.17671e-06 1.58499e-21 -0 1.09974e-21 2.42878e-37 -0 -0 -0 0)
(7.17668e-06 9.88773e-22 -0 7.4927e-22 1.03231e-37 -0 -0 -0 0)
(7.17667e-06 5.86328e-22 -0 2.49418e-22 2.03772e-38 -0 -0 -0 0)
(7.17666e-06 2.0565e-22 -0 -1.25968e-22 -3.60964e-39 0 -0 -0 0)
(7.20522e-06 1.66863e-19 -0 1.63916e-19 3.79606e-33 -0 -0 -0 0)
(7.20522e-06 -3.91637e-20 -0 -3.86769e-20 2.10227e-34 0 -0 0 0)
(7.20479e-06 9.71271e-21 -0 9.43446e-21 1.27185e-35 -0 -0 -0 0)
(7.20466e-06 -7.51422e-22 -0 -8.2667e-22 8.62189e-38 0 -0 0 0)
(7.20436e-06 1.99361e-21 -0 1.44366e-21 3.99494e-37 -0 -0 -0 0)
(7.20424e-06 4.51434e-23 -0 -5.9972e-22 -3.75798e-39 0 -0 -0 0)
(7.20399e-06 -7.33751e-22 -0 -7.72372e-22 7.86687e-38 0 -0 0 0)
(7.20387e-06 -9.88912e-23 -0 5.58228e-23 -7.66308e-40 -0 -0 0 0)
(7.20368e-06 2.69751e-22 -0 -3.16337e-22 -1.18457e-38 0 -0 -0 0)
(7.20356e-06 -4.83329e-22 -0 -8.62491e-22 5.78696e-38 0 -0 0 0)
(7.20341e-06 -2.96142e-22 -0 1.02212e-22 -4.20206e-39 -0 -0 0 0)
(7.20332e-06 -6.27672e-23 -0 5.12719e-23 -4.46766e-40 -0 -0 0 0)
(7.2032e-06 -7.56208e-22 -0 -8.76058e-22 9.19705e-38 0 -0 0 0)
(7.20314e-06 -8.52675e-22 -0 -6.5812e-22 7.79053e-38 0 -0 0 0)
(7.20304e-06 3.15115e-22 -0 5.71504e-22 2.50019e-38 -0 -0 -0 0)
(7.20301e-06 1.46387e-21 -0 1.55301e-21 3.15618e-37 -0 -0 -0 0)
(7.20295e-06 1.71989e-21 -0 1.2422e-21 2.96607e-37 -0 -0 -0 0)
(7.20293e-06 1.01157e-21 -0 1.07401e-21 1.50831e-37 -0 -0 -0 0)
(7.20291e-06 7.09184e-22 -0 4.79727e-22 4.7233e-38 -0 -0 -0 0)
(7.2029e-06 3.8025e-22 -0 -4.16461e-23 -2.19855e-39 0 -0 -0 0)
(7.23027e-06 -8.54559e-19 -0 -8.5437e-19 1.00979e-31 0 -0 0 0)
(7.23026e-06 1.85985e-19 -0 1.86079e-19 4.78653e-33 -0 -0 -0 0)
(7.22986e-06 -4.43022e-20 -0 -4.41727e-20 2.70676e-34 0 -0 0 0)
(7.2297e-06 1.11236e-20 -0 1.03982e-20 1.59987e-35 -0 -0 -0 0)
(7.22941e-06 -9.03779e-22 -0 -1.53665e-21 1.92103e-37 0 -0 0 0)
(7.22927e-06 8.79126e-22 -0 2.74689e-22 3.3404e-38 -0 -0 -0 0)
(7.22904e-06 3.42153e-22 -0 4.52042e-23 2.13953e-39 -0 -0 -0 0)
(7.2289e-06 1.05263e-21 -0 1.06402e-21 1.54937e-37 -0 -0 -0 0)
(7.22872e-06 1.19336e-21 -0 8.19845e-22 1.35345e-37 -0 -0 -0 0)
(7.22859e-06 7.06178e-22 -0 1.18127e-22 1.15401e-38 -0 -0 -0 0)
(7.22846e-06 -4.25331e-22 -0 -2.07889e-22 1.22324e-38 0 -0 0 0)
(7.22835e-06 -5.2365e-22 -0 -5.63677e-23 4.08349e-39 0 -0 0 0)
(7.22824e-06 -4.74462e-22 -0 -3.90189e-22 2.5612e-38 0 -0 0 0)
(7.22817e-06 -6.38282e-22 -0 -9.83834e-22 8.68773e-38 0 -0 0 0)
(7.22808e-06 -7.33886e-22 -0 -7.19013e-22 7.30033e-38 0 -0 0 0)
(7.22804e-06 3.44125e-22 -0 4.86765e-22 2.31748e-38 -0 -0 -0 0)
(7.22798e-06 7.51531e-22 -0 5.34738e-22 5.55994e-38 -0 -0 -0 0)
(7.22796e-06 -1.10457e-22 -0 4.65285e-23 -7.11045e-40 -0 -0 0 0)
(7.22794e-06 -4.67569e-23 -0 -1.09763e-22 7.10047e-40 0 -0 0 0)
(7.22794e-06 2.92561e-22 -0 -6.95458e-23 -2.81497e-39 0 -0 -0 0)
(7.25041e-06 3.55453e-19 -0 3.56455e-19 1.74753e-32 -0 -0 -0 0)
(7.25041e-06 -7.49811e-20 -0 -7.40785e-20 7.66092e-34 0 -0 0 0)
(7.25e-06 1.91581e-20 -0 1.91167e-20 5.05159e-35 -0 -0 -0 0)
(7.24987e-06 -2.25993e-21 -0 -3.0469e-21 9.4978e-37 0 -0 0 0)
(7.24958e-06 1.70912e-21 -0 9.71521e-22 2.2904e-37 -0 -0 -0 0)
(7.24945e-06 -5.03898e-23 -0 -4.62266e-22 3.21314e-39 0 -0 0 0)
(7.24923e-06 3.39352e-22 -0 3.52359e-22 1.64947e-38 -0 -0 -0 0)
(7.24907e-06 9.40759e-22 -0 9.98857e-22 1.29628e-37 -0 -0 -0 0)
(7.24892e-06 1.06999e-21 -0 1.59185e-21 2.34968e-37 -0 -0 -0 0)
(7.24877e-06 1.37534e-21 -0 1.16331e-21 2.2072e-37 -0 -0 -0 0)
(7.24866e-06 2.06766e-22 -0 -1.45441e-22 -4.14866e-39 0 -0 -0 0)
(7.24854e-06 -7.74725e-22 -0 -5.10797e-22 5.45941e-38 0 -0 0 0)
(7.24844e-06 -3.6597e-22 -0 1.21012e-22 -6.10985e-39 -0 -0 0 0)
(7.24836e-06 2.41073e-22 -0 4.9241e-22 1.6377e-38 -0 -0 -0 0)
(7.24829e-06 6.02404e-22 -0 6.38461e-22 5.30624e-38 -0 -0 -0 0)
(7.24823e-06 9.27901e-22 -0 6.30937e-22 8.07711e-38 -0 -0 -0 0)
(7.24818e-06 9.84592e-22 -0 1.09104e-21 1.48207e-37 -0 -0 -0 0)
(7.24816e-06 4.64532e-22 -0 3.83523e-22 2.45798e-38 -0 -0 -0 0)
(7.24814e-06 3.3576e-22 -0 -1.35857e-23 -6.29337e-40 0 -0 -0 0)
(7.24813e-06 1.44371e-22 -0 1.654e-23 3.29449e-40 -0 -0 -0 0)
(7.25958e-06 5.70759e-19 -0 5.68799e-19 4.47199e-32 -0 -0 -0 0)
(7.25957e-06 -1.24372e-19 -0 -1.23773e-19 2.1205e-33 0 -0 0 0)
(7.25957e-06 3.07669e-20 -0 3.03751e-20 1.28733e-34 -0 -0 -0 0)
(7.25956e-06 -5.82633e-21 -0 -6.12827e-21 4.91838e-36 0 -0 0 0)
(7.25956e-06 1.58421e-21 -0 1.09793e-21 2.39595e-37 -0 -0 -0 0)
(7.25955e-06 -8.97367e-22 -0 -1.10518e-21 1.36613e-37 0 -0 0 0)
(7.25955e-06 -9.61525e-22 -0 -6.65628e-22 8.81622e-38 0 -0 0 0)
(7.25955e-06 -6.40508e-22 -0 -4.94771e-22 4.36535e-38 0 -0 0 0)
(7.25955e-06 -5.18854e-22 -0 3.27618e-22 -2.34155e-38 -0 -0 0 0)
(7.25954e-06 1.95828e-22 -0 7.96304e-22 2.14805e-38 -0 -0 -0 0)
(7.25954e-06 9.1598e-22 -0 7.42654e-22 9.3705e-38 -0 -0 -0 0)
(7.25954e-06 5.78539e-22 -0 4.29848e-22 3.42562e-38 -0 -0 -0 0)
(7.25954e-06 3.04066e-22 -0 5.3872e-22 2.25643e-38 -0 -0 -0 0)
(7.25954e-06 4.17701e-22 -0 5.01511e-22 2.8856e-38 -0 -0 -0 0)
(7.25954e-06 5.67694e-22 -0 5.5804e-22 4.36385e-38 -0 -0 -0 0)
(7.25954e-06 4.42548e-22 -0 2.74658e-22 1.67434e-38 -0 -0 -0 0)
(7.25954e-06 7.03802e-22 -0 5.26183e-22 5.10127e-38 -0 -0 -0 0)
(7.25954e-06 5.20257e-22 -0 2.67576e-22 1.91759e-38 -0 -0 -0 0)
(7.25954e-06 2.52813e-22 -0 1.88598e-22 6.56793e-39 -0 -0 -0 0)
(7.25954e-06 -6.50819e-24 -0 -5.18875e-23 4.65172e-41 0 -0 0 0)
)
;

boundaryField
{
    movingWall
    {
        type            calculated;
        value           nonuniform List<tensor> 
20
(
(7.25958e-06 0 0 0 0 0 0 0 0)
(7.25957e-06 0 0 0 0 0 0 0 0)
(7.25957e-06 0 0 0 0 0 0 0 0)
(7.25956e-06 0 0 0 0 0 0 0 0)
(7.25956e-06 0 0 0 0 0 0 0 0)
(7.25955e-06 0 0 0 0 0 0 0 0)
(7.25955e-06 0 0 0 0 0 0 0 0)
(7.25955e-06 0 0 0 0 0 0 0 0)
(7.25955e-06 0 0 0 0 0 0 0 0)
(7.25954e-06 0 0 0 0 0 0 0 0)
(7.25954e-06 0 0 0 0 0 0 0 0)
(7.25954e-06 0 0 0 0 0 0 0 0)
(7.25954e-06 0 0 0 0 0 0 0 0)
(7.25954e-06 0 0 0 0 0 0 0 0)
(7.25954e-06 0 0 0 0 0 0 0 0)
(7.25954e-06 0 0 0 0 0 0 0 0)
(7.25954e-06 0 0 0 0 0 0 0 0)
(7.25954e-06 0 0 0 0 0 0 0 0)
(7.25954e-06 0 0 0 0 0 0 0 0)
(7.25954e-06 0 0 0 0 0 0 0 0)
)
;
    }
    fixedWalls
    {
        type            calculated;
        value           nonuniform List<tensor> 
60
(
(5.78461e-06 0 0 0 0 0 0 0 0)
(5.96661e-06 0 0 0 0 0 0 0 0)
(6.23883e-06 0 0 0 0 0 0 0 0)
(6.50436e-06 0 0 0 0 0 0 0 0)
(6.71095e-06 0 0 0 0 0 0 0 0)
(6.85112e-06 0 0 0 0 0 0 0 0)
(6.93912e-06 0 0 0 0 0 0 0 0)
(6.99312e-06 0 0 0 0 0 0 0 0)
(7.02761e-06 0 0 0 0 0 0 0 0)
(7.05206e-06 0 0 0 0 0 0 0 0)
(7.07206e-06 0 0 0 0 0 0 0 0)
(7.09078e-06 0 0 0 0 0 0 0 0)
(7.11003e-06 0 0 0 0 0 0 0 0)
(7.13086e-06 0 0 0 0 0 0 0 0)
(7.15384e-06 0 0 0 0 0 0 0 0)
(7.17896e-06 0 0 0 0 0 0 0 0)
(7.20522e-06 0 0 0 0 0 0 0 0)
(7.23027e-06 0 0 0 0 0 0 0 0)
(7.25041e-06 0 0 0 0 0 0 0 0)
(7.25958e-06 0 0 0 0 0 0 0 0)
(5.78458e-06 0 0 0 0 0 0 0 0)
(5.96506e-06 0 0 0 0 0 0 0 0)
(6.2371e-06 0 0 0 0 0 0 0 0)
(6.50248e-06 0 0 0 0 0 0 0 0)
(6.70895e-06 0 0 0 0 0 0 0 0)
(6.84903e-06 0 0 0 0 0 0 0 0)
(6.93697e-06 0 0 0 0 0 0 0 0)
(6.99094e-06 0 0 0 0 0 0 0 0)
(7.02541e-06 0 0 0 0 0 0 0 0)
(7.04984e-06 0 0 0 0 0 0 0 0)
(7.06983e-06 0 0 0 0 0 0 0 0)
(7.08854e-06 0 0 0 0 0 0 0 0)
(7.10777e-06 0 0 0 0 0 0 0 0)
(7.12859e-06 0 0 0 0 0 0 0 0)
(7.15156e-06 0 0 0 0 0 0 0 0)
(7.17666e-06 0 0 0 0 0 0 0 0)
(7.2029e-06 0 0 0 0 0 0 0 0)
(7.22794e-06 0 0 0 0 0 0 0 0)
(7.24813e-06 0 0 0 0 0 0 0 0)
(7.25954e-06 0 0 0 0 0 0 0 0)
(5.78461e-06 0 0 0 0 0 0 0 0)
(5.7846e-06 0 0 0 0 0 0 0 0)
(5.78461e-06 0 0 0 0 0 0 0 0)
(5.78459e-06 0 0 0 0 0 0 0 0)
(5.7846e-06 0 0 0 0 0 0 0 0)
(5.78459e-06 0 0 0 0 0 0 0 0)
(5.78459e-06 0 0 0 0 0 0 0 0)
(5.78459e-06 0 0 0 0 0 0 0 0)
(5.78459e-06 0 0 0 0 0 0 0 0)
(5.78458e-06 0 0 0 0 0 0 0 0)
(5.78458e-06 0 0 0 0 0 0 0 0)
(5.78458e-06 0 0 0 0 0 0 0 0)
(5.78458e-06 0 0 0 0 0 0 0 0)
(5.78458e-06 0 0 0 0 0 0 0 0)
(5.78458e-06 0 0 0 0 0 0 0 0)
(5.78458e-06 0 0 0 0 0 0 0 0)
(5.78458e-06 0 0 0 0 0 0 0 0)
(5.78458e-06 0 0 0 0 0 0 0 0)
(5.78458e-06 0 0 0 0 0 0 0 0)
(5.78458e-06 0 0 0 0 0 0 0 0)
)
;
    }
    frontAndBack
    {
        type            empty;
    }
}


// ************************************************************************* //
