/*--------------------------------*- C++ -*----------------------------------*\
| =========                 |                                                 |
| \\      /  F ield         | OpenFOAM: The Open Source CFD Toolbox           |
|  \\    /   O peration     | Version:  2506                                  |
|   \\  /    A nd           | Website:  www.openfoam.com                      |
|    \\/     M anipulation  |                                                 |
\*---------------------------------------------------------------------------*/
FoamFile
{
    version     2.0;
    format      ascii;
    arch        "LSB;label=32;scalar=64";
    class       volScalarField;
    location    "7";
    object      Lambda2Field;
}
// * * * * * * * * * * * * * * * * * * * * * * * * * * * * * * * * * * * * * //

dimensions      [0 0 -2 0 0 0 0];

internalField   nonuniform List<scalar> 
400
(
1.58325e-23
6.00177e-24
2.92746e-25
-2.21422e-26
9.3615e-27
0
1.21597e-28
7.09128e-28
1.66328e-28
0
0
2.49439e-28
1.1894e-28
-4.58852e-28
-3.24246e-28
0
6.43558e-28
4.49147e-28
0
1.13794e-29
3.43545e-24
6.5962e-24
4.18285e-25
1.64166e-27
3.05278e-27
1.31521e-27
2.10133e-27
8.81686e-28
0
-1.17318e-27
-2.69269e-27
-8.97007e-28
1.48501e-27
0
4.22545e-28
-3.79334e-28
0
5.22729e-29
1.96029e-28
3.27815e-28
4.98988e-23
1.67093e-23
2.75155e-25
7.34684e-28
7.34684e-28
1.04528e-27
1.33923e-27
1.0716e-28
1.33761e-28
-3.25227e-28
-1.97601e-29
0
0
0
0
9.69786e-28
1.55002e-27
0
-6.08463e-28
6.88344e-28
3.44791e-23
1.42359e-23
5.14228e-25
-2.43594e-26
7.87469e-27
-3.77842e-28
4.53294e-28
0
-2.20685e-27
-3.44961e-27
0
-1.0508e-27
6.69268e-28
3.14059e-28
0
0
1.68052e-28
0
4.76607e-28
5.74879e-28
5.03181e-24
8.01598e-24
5.23435e-25
1.39674e-26
7.34684e-28
2.54931e-29
-1.42619e-27
-7.81257e-29
0
-1.6711e-27
-6.15536e-28
2.07026e-28
-1.08719e-28
-3.60914e-28
0
1.36949e-28
-1.32149e-27
-4.70198e-28
0
5.4053e-28
2.44686e-23
1.12621e-23
3.25881e-25
6.61216e-27
-6.19283e-27
2.52946e-27
0
-2.36845e-28
0
0
7.34684e-28
4.62125e-28
-4.85756e-28
-4.08179e-28
0
0
0
0
-1.2403e-28
6.73858e-28
3.57592e-23
1.33232e-23
-3.73852e-26
2.93874e-27
0
1.27731e-27
0
-7.83783e-28
-3.60515e-28
4.06773e-28
6.51215e-28
0
0
5.19806e-29
5.53297e-28
0
4.40706e-28
0
2.72668e-28
-1.59772e-28
5.2078e-24
2.53789e-24
1.93579e-25
1.51558e-27
3.65544e-27
-7.66408e-28
0
0
8.12516e-28
1.24315e-27
0
0
1.09558e-28
-3.07928e-28
0
0
0
0
0
-8.78373e-30
4.41541e-24
2.66796e-24
0
0
3.56245e-27
7.01649e-28
6.97076e-29
-2.49275e-28
-7.15044e-28
9.70405e-31
-5.30896e-28
4.03247e-28
2.18249e-28
0
0
0
0
7.14034e-28
0
-3.14632e-28
3.59995e-26
4.5494e-24
-5.69684e-25
2.07852e-26
-2.90505e-27
7.55119e-28
-1.05239e-27
0
5.30592e-29
0
0
3.85777e-28
7.65587e-29
1.3536e-28
2.51279e-28
-1.03933e-28
-1.55562e-28
0
2.21424e-28
-2.2775e-29
0
5.82513e-25
-6.6006e-25
5.17159e-26
-2.0579e-26
2.99509e-27
6.28958e-28
3.03543e-28
0
3.1727e-30
4.2618e-28
2.10037e-29
7.20785e-28
-8.57614e-29
-1.19517e-28
2.76598e-29
9.45316e-30
5.05961e-28
1.40792e-31
-3.57363e-28
4.07319e-24
1.96086e-24
5.37758e-26
7.20847e-27
7.34684e-28
5.05786e-28
-3.04604e-28
1.01143e-28
8.56017e-29
2.83325e-28
5.46016e-29
0
-2.74904e-28
3.4474e-29
-4.9581e-28
-2.09607e-28
4.81553e-28
6.62777e-28
0
0
2.24138e-25
2.74136e-26
2.10358e-26
1.01175e-26
2.46256e-27
8.22587e-28
3.74691e-28
0
-1.63131e-27
0
7.3962e-28
2.34443e-28
-2.14496e-28
-4.47125e-28
1.51576e-28
4.35725e-28
-9.60578e-29
0
2.09891e-31
0
8.14795e-24
3.26542e-24
3.59995e-26
0
5.05622e-28
6.37013e-28
2.4967e-29
1.58822e-28
4.9701e-29
0
0
-9.77094e-28
0
1.99684e-29
0
-3.66053e-27
-3.29375e-28
1.1512e-28
0
1.10923e-28
3.00688e-23
1.05759e-23
7.9166e-27
1.83502e-26
-8.14792e-27
1.72986e-27
-2.45565e-28
-5.71242e-28
0
-5.17999e-28
0
0
1.127e-27
1.92813e-28
2.56244e-27
7.80546e-28
0
0
4.64303e-32
6.69588e-30
1.01717e-23
1.04548e-23
2.16563e-27
6.61216e-27
-1.04397e-27
1.22921e-27
0
0
1.5189e-27
7.19423e-28
9.73178e-28
2.90977e-28
-2.87752e-27
-5.69113e-27
-1.38649e-27
1.60318e-27
4.08799e-28
3.85695e-28
0
0
8.21102e-24
7.00279e-24
5.4461e-25
1.20247e-26
8.5369e-29
0
2.46641e-28
0
-3.43654e-28
-5.91076e-28
-8.78383e-28
1.01085e-27
5.62648e-28
-3.54737e-28
-4.5048e-29
0
6.2814e-29
3.82895e-28
2.494e-29
6.28942e-31
5.33586e-23
1.75477e-23
2.7005e-25
4.88867e-26
-1.06516e-26
1.77925e-27
5.91936e-28
5.80925e-28
-3.29309e-28
0
-5.36976e-29
0
-6.56488e-28
-1.16169e-28
1.10293e-27
6.35428e-28
0
0
0
6.72415e-29
9.86844e-24
1.30067e-23
4.16665e-25
3.87185e-26
-2.54175e-27
1.15744e-27
0
0
0
1.29922e-27
0
-1.5437e-28
-1.56003e-29
3.40432e-29
2.59169e-28
8.7083e-30
9.25202e-29
-8.16913e-28
0
0
1.27486e-23
5.17084e-24
4.7278e-25
0
2.61016e-27
-5.82238e-28
2.46471e-28
1.11255e-27
1.66491e-27
0
0
0
8.26344e-29
1.44269e-29
0
1.44059e-28
4.94682e-28
2.52089e-28
0
0
)
;

boundaryField
{
    movingWall
    {
        type            calculated;
        value           nonuniform List<scalar> 
20
(
0
0
5.25139e-25
-2.92594e-26
1.91713e-26
-2.76471e-27
2.22831e-27
4.2532e-27
4.27482e-27
1.01556e-27
0
0
9.10038e-28
3.54555e-29
0
2.0954e-28
7.30351e-28
4.13023e-28
0
0
)
;
    }
    fixedWalls
    {
        type            calculated;
        value           nonuniform List<scalar> 
60
(
1.01477e-22
1.001e-22
2.59894e-22
2.38272e-22
1.39396e-22
1.87415e-22
1.83207e-22
3.40531e-23
2.86567e-23
1.97215e-25
-4.10403e-23
3.64737e-23
1.48007e-24
4.21017e-23
1.48701e-22
1.3384e-22
1.13288e-22
2.77301e-22
2.05673e-22
9.7022e-23
1.13794e-29
3.27815e-28
1.33677e-27
4.90978e-28
8.59039e-28
1.04388e-27
0
1.02643e-28
-5.57775e-28
0
2.5879e-28
0
0
9.0249e-29
6.69588e-30
0
6.28942e-31
1.0432e-28
0
0
0
0
1.3671e-24
0
4.04995e-26
-5.16975e-27
0
-1.74275e-27
0
4.15376e-28
1.99162e-27
6.2418e-28
0
1.31994e-27
1.02476e-27
0
1.37364e-27
0
1.53774e-29
2.35896e-28
)
;
    }
    frontAndBack
    {
        type            empty;
    }
}


// ************************************************************************* //
