/*--------------------------------*- C++ -*----------------------------------*\
| =========                 |                                                 |
| \\      /  F ield         | OpenFOAM: The Open Source CFD Toolbox           |
|  \\    /   O peration     | Version:  2506                                  |
|   \\  /    A nd           | Website:  www.openfoam.com                      |
|    \\/     M anipulation  |                                                 |
\*---------------------------------------------------------------------------*/
FoamFile
{
    version     2.0;
    format      ascii;
    arch        "LSB;label=32;scalar=64";
    class       volVectorField;
    location    "7";
    object      LambVectorField;
}
// * * * * * * * * * * * * * * * * * * * * * * * * * * * * * * * * * * * * * //

dimensions      [0 1 -2 0 0 0 0];

internalField   nonuniform List<vector> 
400
(
(-1.63002e-24 -1.07019e-11 0)
(-4.60751e-25 1.41542e-11 -0)
(-2.37941e-26 -3.05562e-12 0)
(-1.13012e-27 7.77326e-13 -0)
(-6.976e-29 -1.2551e-13 0)
(3.25941e-30 4.50819e-14 0)
(7.5998e-31 7.23833e-15 0)
(3.43828e-33 -4.1129e-14 -0)
(-5.10448e-32 1.97716e-15 -0)
(1.11573e-30 -5.61934e-14 -0)
(4.47319e-32 -7.47454e-15 -0)
(-3.03415e-30 -5.52768e-14 0)
(4.01363e-33 8.57206e-16 0)
(-2.96981e-30 -6.41176e-14 0)
(-6.42277e-30 -6.19019e-14 0)
(1.36799e-31 1.11005e-15 0)
(9.18682e-31 9.91492e-15 0)
(-1.10621e-30 -4.59248e-14 0)
(-5.64609e-31 -5.75926e-14 0)
(3.92159e-31 6.77159e-15 0)
(1.3968e-27 3.3058e-13 0)
(-8.64978e-29 1.1459e-13 -0)
(-5.32975e-29 -1.44473e-13 0)
(-9.03358e-30 -6.11263e-14 0)
(-8.70281e-30 -5.21064e-14 0)
(-8.25651e-30 -6.51409e-14 0)
(-3.06478e-31 -5.80753e-14 0)
(7.44538e-30 -7.04723e-14 -0)
(8.64713e-30 -8.38299e-14 -0)
(1.1607e-29 -1.44182e-13 -0)
(2.58089e-30 -1.55615e-13 -0)
(-1.12467e-29 -9.34114e-14 0)
(-1.89871e-29 -1.81909e-13 0)
(4.71195e-31 1.11838e-14 0)
(6.47545e-31 -8.67918e-14 -0)
(-9.51188e-30 -9.8164e-14 0)
(9.91085e-31 6.15474e-15 0)
(8.3201e-31 2.35361e-14 0)
(-4.42498e-31 5.95295e-15 -0)
(2.38191e-31 -9.85116e-15 -0)
(-7.91153e-25 5.845e-12 -0)
(-3.44659e-25 -1.1588e-11 0)
(-1.8351e-26 2.72425e-12 -0)
(-1.11361e-27 -6.60097e-13 0)
(-1.88474e-29 1.39417e-13 -0)
(-3.35598e-30 -1.14589e-14 0)
(7.06746e-30 2.82188e-14 0)
(1.85342e-29 6.57859e-14 0)
(7.72476e-30 5.73503e-14 0)
(-1.30099e-30 6.27972e-14 -0)
(2.73192e-30 5.59553e-14 0)
(-3.67478e-30 9.62757e-14 -0)
(-1.45457e-29 1.44328e-13 -0)
(-7.97765e-30 6.32159e-14 -0)
(-1.67649e-29 8.78478e-14 -0)
(-3.3024e-30 1.72428e-14 -0)
(-1.17799e-30 1.2774e-14 -0)
(-4.10357e-30 8.51141e-14 -0)
(-1.15635e-29 8.88083e-14 -0)
(-2.17957e-31 1.76994e-15 -0)
(-6.20525e-25 -5.43385e-12 0)
(-2.44272e-25 9.92121e-12 -0)
(-1.30256e-26 -2.25812e-12 0)
(-7.52582e-28 6.13466e-13 -0)
(-4.06862e-29 -9.10523e-14 0)
(1.38585e-29 6.13611e-14 0)
(1.72168e-29 4.58706e-14 0)
(3.0394e-29 9.82839e-14 0)
(2.78756e-29 1.35551e-13 0)
(6.3129e-30 1.664e-13 0)
(-1.38581e-29 1.34415e-13 -0)
(-2.67877e-29 1.20662e-13 -0)
(-1.64818e-29 7.30846e-14 -0)
(-2.21554e-30 1.58592e-14 -0)
(-9.51485e-30 8.41594e-14 -0)
(-1.47947e-29 8.79885e-14 -0)
(-3.75853e-30 2.0905e-14 -0)
(1.21692e-30 -1.14649e-14 -0)
(6.17202e-31 -9.47475e-15 -0)
(-2.21666e-31 1.94513e-14 -0)
(-1.4924e-26 1.11286e-12 -0)
(-3.14141e-27 -1.23046e-12 0)
(-1.56945e-28 2.78333e-13 -0)
(-1.70001e-29 -5.45193e-14 0)
(-3.12556e-31 -1.23849e-15 0)
(8.49321e-30 2.61973e-14 0)
(2.72206e-29 1.04115e-13 0)
(6.65734e-30 6.92038e-14 0)
(5.74983e-31 5.15638e-15 0)
(3.79568e-30 8.50377e-14 0)
(-1.55677e-29 7.91173e-14 -0)
(2.84594e-30 -1.39209e-14 -0)
(2.18539e-30 -3.79685e-14 -0)
(-3.90195e-30 4.07293e-14 -0)
(-7.81732e-30 4.0337e-14 -0)
(-5.45037e-30 2.38924e-14 -0)
(1.27207e-29 -7.86817e-14 -0)
(-8.64252e-31 -5.2083e-14 0)
(-4.57667e-31 -5.19448e-15 0)
(-7.84119e-31 -1.14406e-14 0)
(-6.169e-25 5.75078e-12 -0)
(-2.25901e-25 -9.51409e-12 0)
(-1.18397e-26 2.21086e-12 -0)
(-7.13564e-28 -5.23065e-13 0)
(-2.10579e-29 1.68987e-13 -0)
(-4.77417e-31 -2.20588e-15 0)
(1.3689e-30 8.12418e-15 0)
(4.9887e-30 3.69021e-14 0)
(4.49045e-30 6.36709e-14 0)
(1.52565e-30 3.7597e-14 0)
(-4.0826e-31 1.18701e-14 -0)
(-4.28406e-31 5.48379e-15 -0)
(-5.64492e-30 6.32613e-14 -0)
(-7.23007e-30 4.28743e-14 -0)
(-1.73163e-30 7.0128e-15 -0)
(1.50864e-29 -6.3186e-14 -0)
(1.28646e-29 -8.18536e-14 -0)
(-3.2082e-30 -8.51595e-14 0)
(-5.02164e-30 -3.29659e-14 0)
(-2.16064e-31 -2.2441e-15 0)
(-1.46279e-24 -9.37248e-12 0)
(-4.64124e-25 1.39185e-11 -0)
(-2.52971e-26 -3.18463e-12 0)
(-1.35221e-27 7.63706e-13 -0)
(-5.1428e-29 -1.67826e-13 0)
(2.86873e-30 -3.10704e-14 -0)
(-7.91859e-30 -1.05526e-13 0)
(-1.02943e-29 -6.87312e-14 0)
(-2.61045e-29 -1.18522e-13 0)
(-3.14681e-30 -1.25476e-14 0)
(-2.29961e-31 -3.07947e-15 0)
(1.62641e-31 1.54387e-14 0)
(-1.19735e-30 1.5021e-14 -0)
(3.51804e-30 -2.51873e-14 -0)
(1.19813e-30 -1.21159e-14 -0)
(1.86244e-31 -1.00583e-14 -0)
(1.39016e-31 8.20651e-14 0)
(7.12758e-32 -2.73973e-15 -0)
(-2.43422e-31 -8.36751e-15 0)
(2.06306e-30 3.57801e-14 0)
(-2.47362e-25 3.92345e-12 -0)
(-7.68943e-26 -5.69057e-12 0)
(-3.87493e-27 1.22631e-12 -0)
(-2.5823e-28 -3.65066e-13 0)
(1.70029e-32 -3.31699e-16 -0)
(-1.18239e-29 -7.01435e-14 0)
(5.60288e-31 5.18429e-15 0)
(-9.68541e-30 -8.29768e-14 0)
(-6.2454e-30 -5.00872e-14 0)
(1.05195e-30 1.3934e-14 0)
(-1.67675e-31 1.14461e-14 -0)
(-2.90343e-31 7.45131e-15 -0)
(2.05635e-30 -2.30631e-14 -0)
(4.9184e-30 -6.19561e-14 -0)
(4.23229e-31 -3.61672e-14 -0)
(-6.97339e-31 -6.20621e-14 0)
(-5.80748e-30 -8.69156e-14 0)
(5.35338e-31 7.96155e-15 0)
(-7.39382e-32 5.77733e-15 -0)
(-2.59762e-31 -2.74381e-14 0)
(-3.0519e-25 4.50752e-12 -0)
(-8.85436e-26 -6.10639e-12 0)
(-5.05874e-27 1.49209e-12 -0)
(-2.47697e-28 -3.73324e-13 0)
(-2.29236e-30 1.15055e-14 -0)
(-1.41145e-31 -2.22861e-14 0)
(5.79512e-31 2.45333e-14 0)
(1.88513e-30 5.88168e-14 0)
(-1.51717e-30 6.75944e-14 -0)
(1.18209e-30 -1.16128e-14 -0)
(-7.26562e-30 -7.75559e-14 0)
(-2.30263e-30 -1.74884e-14 0)
(-4.1113e-32 1.65519e-14 -0)
(2.12992e-30 -6.29176e-14 -0)
(-2.91441e-30 -3.44529e-14 0)
(4.51449e-31 1.13927e-14 0)
(-1.87203e-31 6.38142e-15 -0)
(-1.07473e-30 4.44325e-14 -0)
(-5.26329e-31 -7.69029e-15 0)
(2.06751e-30 3.92206e-14 0)
(-1.45267e-24 -1.0683e-11 0)
(-3.65837e-25 1.25503e-11 -0)
(-2.10386e-26 -3.02596e-12 0)
(-8.39326e-28 6.31312e-13 -0)
(-5.54366e-29 -1.50423e-13 0)
(-7.26161e-32 7.53909e-16 -0)
(-9.29106e-30 -1.03292e-13 0)
(-1.0067e-29 -8.15456e-14 0)
(5.33301e-31 5.78079e-15 0)
(-3.69883e-30 -5.63466e-14 0)
(-6.32743e-30 -5.56901e-14 0)
(4.42833e-31 5.50482e-15 0)
(-1.42212e-30 -2.42805e-14 0)
(2.6994e-30 5.17132e-14 0)
(1.89995e-30 2.2743e-14 0)
(5.38646e-30 5.62144e-14 0)
(4.48494e-30 7.06322e-14 0)
(-2.50566e-30 3.66318e-14 -0)
(3.65239e-31 -1.14963e-14 -0)
(1.33094e-30 2.85842e-14 0)
(-1.58168e-24 1.18229e-11 -0)
(-3.62212e-25 -1.26818e-11 0)
(-1.99263e-26 2.97784e-12 -0)
(-8.17041e-28 -5.46998e-13 0)
(-1.19184e-28 2.91832e-13 -0)
(-5.60896e-30 8.0842e-14 -0)
(-1.38164e-29 1.04184e-13 -0)
(-2.09607e-30 7.75822e-14 -0)
(-5.78993e-30 6.07631e-14 -0)
(-5.01158e-30 5.41516e-14 -0)
(-7.4374e-30 7.8535e-14 -0)
(5.30773e-31 -8.19776e-15 -0)
(-5.20594e-31 4.0914e-14 -0)
(3.82095e-30 5.60131e-14 0)
(-9.88329e-31 3.21363e-14 -0)
(-1.37142e-31 -7.66031e-15 0)
(-2.06258e-32 -4.49865e-16 0)
(-3.24463e-31 -1.44839e-14 0)
(-9.08293e-32 1.13024e-15 -0)
(-6.78564e-31 -6.11364e-14 0)
(-4.92644e-25 -5.97013e-12 0)
(-1.42154e-25 7.69233e-12 -0)
(-7.26192e-27 -1.71293e-12 0)
(-4.73711e-28 4.38786e-13 -0)
(-1.17867e-29 -9.60813e-14 0)
(1.28377e-30 -1.08079e-14 -0)
(1.56803e-30 -3.89114e-14 -0)
(1.43456e-33 -1.99882e-15 -0)
(4.86342e-31 -2.39469e-14 -0)
(-2.43339e-32 7.53392e-16 -0)
(9.40998e-31 -3.37965e-14 -0)
(-1.20369e-30 -3.47738e-14 0)
(-2.90281e-30 -5.94299e-14 0)
(-4.6509e-30 -5.35742e-14 0)
(-4.86793e-30 -1.1458e-13 0)
(-8.81361e-30 -5.93859e-14 0)
(-4.27201e-30 -4.53297e-14 0)
(-2.50259e-30 -4.1984e-14 0)
(-1.558e-31 5.56076e-15 -0)
(-9.60845e-33 -2.40172e-15 0)
(1.96751e-27 -1.16665e-12 -0)
(-1.58899e-29 -1.79625e-14 0)
(1.72374e-29 -1.13715e-13 -0)
(-1.26224e-29 -1.01453e-13 0)
(-2.13269e-30 -4.28333e-14 0)
(-4.24849e-31 -3.98946e-14 0)
(1.24001e-30 -1.32814e-14 -0)
(6.63439e-31 -5.19988e-15 -0)
(4.20491e-30 -1.01651e-13 -0)
(-4.86766e-30 -6.42379e-14 0)
(-2.82765e-30 -4.79976e-14 0)
(-6.80963e-31 -4.98854e-14 0)
(-9.3873e-31 -5.99248e-14 0)
(-4.438e-30 -6.26854e-14 0)
(-3.14821e-31 -3.13511e-15 0)
(5.96156e-31 5.83614e-15 0)
(2.96186e-30 7.0426e-14 0)
(-3.8063e-30 6.34283e-14 -0)
(3.15606e-31 -6.29632e-15 -0)
(-1.39333e-32 -4.71719e-15 0)
(-4.44869e-25 5.28573e-12 -0)
(-1.42791e-25 -7.57976e-12 0)
(-7.70478e-27 1.79147e-12 -0)
(-3.68945e-28 -3.99385e-13 0)
(-2.99081e-29 9.74345e-14 -0)
(-2.14676e-30 4.24593e-14 -0)
(-8.88402e-31 4.68943e-15 -0)
(2.10892e-30 -2.164e-14 -0)
(-6.13094e-31 -2.27479e-14 0)
(-1.89724e-30 -1.45914e-14 0)
(1.1209e-29 6.48424e-14 0)
(1.81022e-30 7.63744e-14 0)
(1.36627e-31 -2.80102e-15 -0)
(-1.1086e-30 -2.14379e-14 0)
(1.08327e-29 6.54141e-14 0)
(-8.65936e-30 1.43538e-13 -0)
(-1.12954e-29 6.08657e-14 -0)
(1.94107e-30 -1.5298e-14 -0)
(3.86495e-31 -1.1856e-14 -0)
(-1.91558e-31 2.30127e-14 -0)
(-1.18671e-24 -8.40697e-12 0)
(-3.92269e-25 1.26264e-11 -0)
(-2.05684e-26 -2.92463e-12 0)
(-1.18126e-27 6.48712e-13 -0)
(-5.98918e-29 -2.18065e-13 0)
(4.08642e-30 -2.24052e-14 -0)
(3.13733e-30 -7.22925e-14 -0)
(1.38415e-31 -8.85682e-14 -0)
(-1.78888e-31 -6.1404e-15 0)
(-5.78787e-30 -9.67204e-14 0)
(-1.6794e-29 -9.16773e-14 0)
(1.45635e-30 8.90938e-15 0)
(-1.25801e-30 -1.337e-14 0)
(-5.22018e-31 -1.99915e-14 0)
(-1.76297e-30 -7.67955e-14 0)
(1.99863e-30 -1.04724e-13 -0)
(8.51954e-31 -6.0847e-14 -0)
(-3.03057e-32 -6.40921e-16 0)
(-2.38478e-32 3.14103e-15 -0)
(1.3147e-32 8.28196e-16 0)
(-6.6206e-25 6.79018e-12 -0)
(-1.80603e-25 -8.74331e-12 0)
(-1.11158e-26 2.14154e-12 -0)
(-4.22126e-28 -4.86837e-13 0)
(-5.65346e-29 1.75469e-13 -0)
(-2.34805e-30 3.15352e-14 -0)
(-8.39135e-30 8.79209e-14 -0)
(-1.14858e-29 8.17407e-14 -0)
(-6.24731e-30 6.26629e-14 -0)
(8.6784e-32 1.88632e-15 0)
(8.49935e-31 5.5737e-15 0)
(-1.91946e-30 -7.34524e-15 0)
(3.20244e-29 1.41737e-13 0)
(-1.15891e-29 1.61304e-13 -0)
(-3.01848e-29 9.96529e-14 -0)
(-1.69338e-29 6.6349e-14 -0)
(-1.84237e-30 1.2023e-14 -0)
(1.237e-30 -1.18483e-14 -0)
(4.23845e-31 -1.21956e-14 -0)
(-3.01929e-32 -1.72016e-15 0)
(3.44528e-26 -1.51444e-12 -0)
(-7.58042e-27 -1.41218e-12 0)
(-4.74926e-28 3.62685e-13 -0)
(-2.85488e-31 -2.4881e-15 0)
(4.80037e-30 -2.39555e-14 -0)
(-2.56064e-30 -3.07602e-14 0)
(-1.93046e-30 -1.80056e-14 0)
(-4.90521e-32 6.33012e-15 -0)
(-1.75008e-30 -3.98531e-14 0)
(1.3677e-29 1.1423e-13 0)
(-1.3338e-30 9.40001e-14 -0)
(-9.62618e-32 1.35241e-14 -0)
(2.09877e-30 1.72567e-14 0)
(6.78906e-30 7.43064e-14 0)
(-6.73672e-30 8.49072e-14 -0)
(-7.85161e-30 3.64166e-14 -0)
(1.14682e-30 -6.64988e-15 -0)
(-2.46317e-30 1.65195e-14 -0)
(1.03159e-30 -1.54889e-14 -0)
(-3.51652e-32 -6.082e-15 0)
(-4.1639e-25 -3.52378e-12 0)
(-2.48627e-25 9.6606e-12 -0)
(-1.4183e-26 -2.32137e-12 0)
(-7.31223e-28 5.08405e-13 -0)
(-4.70476e-29 -2.21342e-13 0)
(2.25831e-30 -5.94343e-14 -0)
(2.70703e-31 -4.32908e-14 -0)
(6.40186e-30 -4.34939e-14 -0)
(1.07064e-29 -9.44e-14 -0)
(2.00409e-30 -1.22638e-13 -0)
(-8.48961e-31 -2.9519e-14 0)
(-6.53775e-31 -8.38373e-14 0)
(-6.5453e-30 -1.21252e-13 0)
(-1.16871e-29 -8.58645e-14 0)
(-3.36868e-30 -3.38646e-14 0)
(6.57237e-31 -9.7594e-15 -0)
(2.45587e-30 -3.31957e-14 -0)
(2.31883e-31 -3.60218e-14 -0)
(-2.43872e-32 -1.60591e-15 0)
(-2.3693e-31 -2.46243e-14 0)
(-1.54161e-25 3.13569e-12 -0)
(-4.33829e-26 -4.24609e-12 0)
(-3.01205e-27 1.14232e-12 -0)
(-7.10099e-29 -1.68963e-13 0)
(-1.9307e-29 1.44071e-13 -0)
(8.09727e-30 1.26985e-13 0)
(-4.93213e-30 1.01471e-13 -0)
(-2.10303e-29 1.52624e-13 -0)
(-3.02595e-29 1.37795e-13 -0)
(-4.85364e-30 3.02438e-14 -0)
(-4.63395e-31 -2.30953e-14 0)
(4.07917e-30 5.78861e-14 0)
(-1.1361e-30 6.80504e-14 -0)
(-4.16769e-30 6.13491e-14 -0)
(-2.55589e-30 2.90164e-14 -0)
(-5.43541e-31 6.24422e-15 -0)
(-3.56622e-30 2.36917e-14 -0)
(3.67483e-30 -6.94502e-14 -0)
(-9.49013e-33 -5.06311e-15 0)
(9.30122e-35 -4.07597e-17 -0)
(-3.3165e-25 4.23284e-12 -0)
(-1.20445e-25 -7.06438e-12 0)
(-5.98675e-27 1.43082e-12 -0)
(-3.63326e-28 -4.30396e-13 0)
(-6.36531e-30 4.20877e-14 -0)
(-1.19511e-29 -7.8503e-14 0)
(-1.7143e-30 -1.86967e-14 0)
(-4.60951e-30 -6.76332e-14 0)
(1.64386e-30 -3.64256e-14 -0)
(-6.27114e-31 5.71711e-15 -0)
(5.16404e-31 -5.04792e-15 -0)
(1.66336e-31 -2.80918e-15 -0)
(-7.32554e-32 9.87156e-16 -0)
(3.72662e-30 -5.3944e-14 -0)
(2.32377e-30 -3.02299e-14 -0)
(1.0421e-30 -2.75439e-14 -0)
(1.97169e-30 -2.72026e-14 -0)
(-1.8267e-30 4.95599e-14 -0)
(1.14325e-31 -4.4006e-15 -0)
(-1.34601e-32 -1.88319e-15 0)
)
;

boundaryField
{
    movingWall
    {
        type            calculated;
        value           nonuniform List<vector> 
20
(
(0 1.22586e-11 -0)
(0 -9.32633e-12 -0)
(0 1.39851e-12 -0)
(0 -7.58563e-13 -0)
(0 -1.97261e-13 -0)
(0 -2.90746e-13 -0)
(0 -1.69227e-13 -0)
(0 -2.97181e-13 -0)
(0 -2.0426e-13 -0)
(0 -1.71919e-13 -0)
(0 -1.82684e-13 -0)
(0 -1.80445e-13 -0)
(0 -1.76649e-13 -0)
(0 -1.32961e-13 -0)
(0 -9.19427e-14 -0)
(0 -4.48477e-14 -0)
(0 -4.45065e-14 -0)
(0 8.41676e-14 -0)
(0 -4.4006e-15 -0)
(0 -1.88319e-15 -0)
)
;
    }
    fixedWalls
    {
        type            calculated;
        value           nonuniform List<vector> 
60
(
(0 -5.96504e-11 -0)
(0 -1.0125e-12 -0)
(0 4.94259e-11 -0)
(0 -4.21548e-11 -0)
(0 5.39133e-12 -0)
(0 4.03069e-11 -0)
(0 -5.9529e-11 -0)
(0 2.41888e-11 -0)
(0 2.62696e-11 -0)
(0 -5.43918e-11 -0)
(0 5.48132e-11 -0)
(0 -3.25735e-11 -0)
(0 -5.72248e-13 -0)
(0 3.24188e-11 -0)
(0 -5.3861e-11 -0)
(0 3.81066e-11 -0)
(0 5.84723e-12 -0)
(0 -4.15471e-11 -0)
(0 1.89064e-11 -0)
(0 2.94433e-11 -0)
(0 2.3165e-14 -0)
(0 -9.67161e-15 -0)
(0 -2.21527e-14 -0)
(0 2.25467e-14 -0)
(0 3.10341e-16 -0)
(0 1.14073e-14 -0)
(0 5.01688e-14 -0)
(0 -2.33182e-14 -0)
(0 4.8191e-14 -0)
(0 4.57299e-14 -0)
(0 -4.97704e-14 -0)
(0 1.60026e-15 -0)
(0 1.18149e-15 -0)
(0 2.37755e-14 -0)
(0 6.34972e-15 -0)
(0 7.02096e-15 -0)
(0 2.31274e-15 -0)
(0 -2.32563e-14 -0)
(0 -9.12785e-16 -0)
(0 2.85899e-15 -0)
(0 -1.68608e-11 -0)
(0 1.62732e-11 -0)
(0 -2.71015e-12 -0)
(0 1.07839e-12 -0)
(0 6.94296e-14 -0)
(0 1.78309e-13 -0)
(0 1.84874e-13 -0)
(0 1.46308e-13 -0)
(0 1.79613e-13 -0)
(0 1.75652e-13 -0)
(0 2.58979e-13 -0)
(0 1.3216e-13 -0)
(0 1.78493e-13 -0)
(0 1.23319e-13 -0)
(0 1.25535e-13 -0)
(0 1.34337e-13 -0)
(0 9.91492e-15 -0)
(0 8.28531e-15 -0)
(0 -3.3825e-15 -0)
(0 5.11805e-14 -0)
)
;
    }
    frontAndBack
    {
        type            empty;
    }
}


// ************************************************************************* //
