/*--------------------------------*- C++ -*----------------------------------*\
| =========                 |                                                 |
| \\      /  F ield         | OpenFOAM: The Open Source CFD Toolbox           |
|  \\    /   O peration     | Version:  2506                                  |
|   \\  /    A nd           | Website:  www.openfoam.com                      |
|    \\/     M anipulation  |                                                 |
\*---------------------------------------------------------------------------*/
FoamFile
{
    version     2.0;
    format      ascii;
    arch        "LSB;label=32;scalar=64";
    class       volVectorField;
    location    "7";
    object      momentum1:momentum;
}
// * * * * * * * * * * * * * * * * * * * * * * * * * * * * * * * * * * * * * //

dimensions      [1 1 -1 0 0 0 0];

internalField   nonuniform List<vector> 
400
(
(-2.5e-07 3.80777e-20 0)
(-2.5e-07 -8.13805e-21 0)
(-2.5e-07 1.94674e-21 0)
(-2.5e-07 -3.63462e-22 0)
(-2.5e-07 1.38953e-22 0)
(-2.5e-07 1.80749e-23 0)
(-2.5e-07 2.62484e-23 0)
(-2.5e-07 -2.08994e-26 0)
(-2.5e-07 -6.45432e-24 0)
(-2.5e-07 -4.96379e-24 0)
(-2.5e-07 -1.49614e-24 0)
(-2.5e-07 1.37226e-23 0)
(-2.5e-07 1.17055e-24 0)
(-2.5e-07 1.15795e-23 0)
(-2.5e-07 2.59393e-23 0)
(-2.5e-07 3.08091e-23 0)
(-2.5e-07 2.31641e-23 0)
(-2.5e-07 6.02184e-24 0)
(-2.5e-07 2.45087e-24 0)
(-2.5e-07 1.44781e-23 0)
(-2.5e-07 1.05633e-21 0)
(-2.5e-07 -1.88712e-22 0)
(-2.5e-07 9.22271e-23 0)
(-2.5e-07 3.69464e-23 0)
(-2.5e-07 4.1755e-23 0)
(-2.5e-07 3.16871e-23 0)
(-2.5e-07 1.31931e-24 0)
(-2.5e-07 -2.64124e-23 0)
(-2.5e-07 -2.57877e-23 0)
(-2.5e-07 -2.01257e-23 0)
(-2.5e-07 -4.14627e-24 0)
(-2.5e-07 3.00998e-23 0)
(-2.5e-07 2.60943e-23 0)
(-2.5e-07 1.0533e-23 0)
(-2.5e-07 -1.86523e-24 0)
(-2.5e-07 2.42245e-23 0)
(-2.5e-07 4.0257e-23 0)
(-2.5e-07 8.83761e-24 0)
(-2.5e-07 -1.85832e-23 0)
(-2.5e-07 -6.04475e-24 0)
(-2.5e-07 -3.38389e-20 0)
(-2.5e-07 7.43568e-21 0)
(-2.5e-07 -1.68404e-21 0)
(-2.5e-07 4.21761e-22 0)
(-2.5e-07 -3.37968e-23 0)
(-2.5e-07 7.3218e-23 0)
(-2.5e-07 6.26131e-23 0)
(-2.5e-07 7.04337e-23 0)
(-2.5e-07 3.36736e-23 0)
(-2.5e-07 -5.17933e-24 0)
(-2.5e-07 1.22058e-23 0)
(-2.5e-07 -9.54234e-24 0)
(-2.5e-07 -2.51956e-23 0)
(-2.5e-07 -3.15492e-23 0)
(-2.5e-07 -4.771e-23 0)
(-2.5e-07 -4.78808e-23 0)
(-2.5e-07 -2.30545e-23 0)
(-2.5e-07 -1.20532e-23 0)
(-2.5e-07 -3.25517e-23 0)
(-2.5e-07 -3.07861e-23 0)
(-2.5e-07 2.85491e-20 0)
(-2.5e-07 -6.15529e-21 0)
(-2.5e-07 1.44209e-21 0)
(-2.5e-07 -3.06693e-22 0)
(-2.5e-07 1.11711e-22 0)
(-2.5e-07 5.64629e-23 0)
(-2.5e-07 9.38335e-23 0)
(-2.5e-07 7.73117e-23 0)
(-2.5e-07 5.14116e-23 0)
(-2.5e-07 9.48453e-24 0)
(-2.5e-07 -2.57749e-23 0)
(-2.5e-07 -5.55016e-23 0)
(-2.5e-07 -5.63791e-23 0)
(-2.5e-07 -3.49252e-23 0)
(-2.5e-07 -2.82643e-23 0)
(-2.5e-07 -4.20359e-23 0)
(-2.5e-07 -4.49477e-23 0)
(-2.5e-07 -2.65359e-23 0)
(-2.5e-07 -1.62854e-23 0)
(-2.5e-07 -2.84899e-24 0)
(-2.5e-07 -3.35264e-21 0)
(-2.5e-07 6.38261e-22 0)
(-2.5e-07 -1.40969e-22 0)
(-2.5e-07 7.79543e-23 0)
(-2.5e-07 6.3092e-23 0)
(-2.5e-07 8.10505e-23 0)
(-2.5e-07 6.53615e-23 0)
(-2.5e-07 2.40498e-23 0)
(-2.5e-07 2.78772e-23 0)
(-2.5e-07 1.11588e-23 0)
(-2.5e-07 -4.91918e-23 0)
(-2.5e-07 -5.11091e-23 0)
(-2.5e-07 -1.43895e-23 0)
(-2.5e-07 -2.39505e-23 0)
(-2.5e-07 -4.845e-23 0)
(-2.5e-07 -5.70304e-23 0)
(-2.5e-07 -4.04183e-23 0)
(-2.5e-07 4.14843e-24 0)
(-2.5e-07 2.20266e-23 0)
(-2.5e-07 1.71346e-23 0)
(-2.5e-07 -2.68181e-20 0)
(-2.5e-07 5.93595e-21 0)
(-2.5e-07 -1.33882e-21 0)
(-2.5e-07 3.41049e-22 0)
(-2.5e-07 -3.11532e-23 0)
(-2.5e-07 5.41073e-23 0)
(-2.5e-07 4.21242e-23 0)
(-2.5e-07 3.37968e-23 0)
(-2.5e-07 1.76315e-23 0)
(-2.5e-07 1.01448e-23 0)
(-2.5e-07 -8.59847e-24 0)
(-2.5e-07 -1.95306e-23 0)
(-2.5e-07 -2.2308e-23 0)
(-2.5e-07 -4.21585e-23 0)
(-2.5e-07 -6.17312e-23 0)
(-2.5e-07 -5.96905e-23 0)
(-2.5e-07 -3.92914e-23 0)
(-2.5e-07 9.4182e-24 0)
(-2.5e-07 3.80821e-23 0)
(-2.5e-07 2.40702e-23 0)
(-2.5e-07 3.90183e-20 0)
(-2.5e-07 -8.33647e-21 0)
(-2.5e-07 1.98587e-21 0)
(-2.5e-07 -4.42648e-22 0)
(-2.5e-07 7.66091e-23 0)
(-2.5e-07 -2.30825e-23 0)
(-2.5e-07 1.87598e-23 0)
(-2.5e-07 3.74441e-23 0)
(-2.5e-07 5.50627e-23 0)
(-2.5e-07 6.26976e-23 0)
(-2.5e-07 1.86689e-23 0)
(-2.5e-07 2.63366e-24 0)
(-2.5e-07 -1.99279e-23 0)
(-2.5e-07 -3.49188e-23 0)
(-2.5e-07 -2.47223e-23 0)
(-2.5e-07 -4.62911e-24 0)
(-2.5e-07 4.23494e-25 0)
(-2.5e-07 -6.5039e-24 0)
(-2.5e-07 7.27283e-24 0)
(-2.5e-07 1.44149e-23 0)
(-2.5e-07 -1.57618e-20 0)
(-2.5e-07 3.37815e-21 0)
(-2.5e-07 -7.89954e-22 0)
(-2.5e-07 1.76838e-22 0)
(-2.5e-07 -1.2815e-23 0)
(-2.5e-07 4.21418e-23 0)
(-2.5e-07 2.70186e-23 0)
(-2.5e-07 2.91811e-23 0)
(-2.5e-07 3.11726e-23 0)
(-2.5e-07 1.88738e-23 0)
(-2.5e-07 -3.66229e-24 0)
(-2.5e-07 -9.74135e-24 0)
(-2.5e-07 -2.22906e-23 0)
(-2.5e-07 -1.98463e-23 0)
(-2.5e-07 -2.92551e-24 0)
(-2.5e-07 2.80904e-24 0)
(-2.5e-07 1.67044e-23 0)
(-2.5e-07 1.68101e-23 0)
(-2.5e-07 -3.1995e-24 0)
(-2.5e-07 2.36679e-24 0)
(-2.5e-07 -1.69267e-20 0)
(-2.5e-07 3.62504e-21 0)
(-2.5e-07 -8.47594e-22 0)
(-2.5e-07 1.65872e-22 0)
(-2.5e-07 -4.98099e-23 0)
(-2.5e-07 1.58333e-24 0)
(-2.5e-07 5.90536e-24 0)
(-2.5e-07 8.01272e-24 0)
(-2.5e-07 -5.6113e-24 0)
(-2.5e-07 -2.54481e-23 0)
(-2.5e-07 2.34206e-23 0)
(-2.5e-07 3.29165e-23 0)
(-2.5e-07 -6.20973e-25 0)
(-2.5e-07 -8.46313e-24 0)
(-2.5e-07 2.11478e-23 0)
(-2.5e-07 9.90655e-24 0)
(-2.5e-07 -7.33392e-24 0)
(-2.5e-07 -6.04701e-24 0)
(-2.5e-07 1.71102e-23 0)
(-2.5e-07 1.31787e-23 0)
(-2.5e-07 3.39949e-20 0)
(-2.5e-07 -7.28741e-21 0)
(-2.5e-07 1.73818e-21 0)
(-2.5e-07 -3.32374e-22 0)
(-2.5e-07 9.21347e-23 0)
(-2.5e-07 -2.40799e-23 0)
(-2.5e-07 2.24873e-23 0)
(-2.5e-07 3.08631e-23 0)
(-2.5e-07 2.30635e-23 0)
(-2.5e-07 1.64111e-23 0)
(-2.5e-07 2.84046e-23 0)
(-2.5e-07 2.01112e-23 0)
(-2.5e-07 1.46426e-23 0)
(-2.5e-07 1.30499e-23 0)
(-2.5e-07 2.0885e-23 0)
(-2.5e-07 2.3955e-23 0)
(-2.5e-07 1.58743e-23 0)
(-2.5e-07 -1.71003e-23 0)
(-2.5e-07 -7.94251e-24 0)
(-2.5e-07 1.16405e-23 0)
(-2.5e-07 -3.34451e-20 0)
(-2.5e-07 7.14039e-21 0)
(-2.5e-07 -1.67288e-21 0)
(-2.5e-07 3.73421e-22 0)
(-2.5e-07 -1.021e-22 0)
(-2.5e-07 -1.73454e-23 0)
(-2.5e-07 -3.3154e-23 0)
(-2.5e-07 -6.75434e-24 0)
(-2.5e-07 -2.38217e-23 0)
(-2.5e-07 -2.31368e-23 0)
(-2.5e-07 -2.36754e-23 0)
(-2.5e-07 -1.61865e-23 0)
(-2.5e-07 -3.18103e-24 0)
(-2.5e-07 1.70538e-23 0)
(-2.5e-07 -7.68858e-24 0)
(-2.5e-07 4.47574e-24 0)
(-2.5e-07 1.14622e-23 0)
(-2.5e-07 5.6004e-24 0)
(-2.5e-07 -2.00906e-23 0)
(-2.5e-07 2.7748e-24 0)
(-2.5e-07 2.06295e-20 0)
(-2.5e-07 -4.61998e-21 0)
(-2.5e-07 1.05987e-21 0)
(-2.5e-07 -2.69899e-22 0)
(-2.5e-07 3.06686e-23 0)
(-2.5e-07 -2.96952e-23 0)
(-2.5e-07 -1.00744e-23 0)
(-2.5e-07 -1.79426e-25 0)
(-2.5e-07 -5.07729e-24 0)
(-2.5e-07 -8.07479e-24 0)
(-2.5e-07 -6.96077e-24 0)
(-2.5e-07 8.65372e-24 0)
(-2.5e-07 1.22111e-23 0)
(-2.5e-07 2.17031e-23 0)
(-2.5e-07 1.06212e-23 0)
(-2.5e-07 3.71031e-23 0)
(-2.5e-07 2.35608e-23 0)
(-2.5e-07 1.49021e-23 0)
(-2.5e-07 -7.00446e-24 0)
(-2.5e-07 1.00016e-24 0)
(-2.5e-07 -4.21615e-22 0)
(-2.5e-07 2.21154e-22 0)
(-2.5e-07 -3.78959e-23 0)
(-2.5e-07 3.11042e-23 0)
(-2.5e-07 1.24476e-23 0)
(-2.5e-07 2.66232e-24 0)
(-2.5e-07 -2.33412e-23 0)
(-2.5e-07 -3.18968e-23 0)
(-2.5e-07 -1.03415e-23 0)
(-2.5e-07 1.89439e-23 0)
(-2.5e-07 1.47281e-23 0)
(-2.5e-07 3.41264e-24 0)
(-2.5e-07 3.91628e-24 0)
(-2.5e-07 1.76995e-23 0)
(-2.5e-07 2.51044e-23 0)
(-2.5e-07 2.55373e-23 0)
(-2.5e-07 1.05141e-23 0)
(-2.5e-07 -1.50024e-23 0)
(-2.5e-07 -1.25314e-23 0)
(-2.5e-07 7.38432e-25 0)
(-2.5e-07 -2.1041e-20 0)
(-2.5e-07 4.70963e-21 0)
(-2.5e-07 -1.0752e-21 0)
(-2.5e-07 2.30946e-22 0)
(-2.5e-07 -7.6739e-23 0)
(-2.5e-07 -1.26401e-23 0)
(-2.5e-07 -4.7362e-23 0)
(-2.5e-07 -2.43637e-23 0)
(-2.5e-07 6.7379e-24 0)
(-2.5e-07 3.25062e-23 0)
(-2.5e-07 4.32164e-23 0)
(-2.5e-07 5.92548e-24 0)
(-2.5e-07 -1.21944e-23 0)
(-2.5e-07 1.2928e-23 0)
(-2.5e-07 4.14003e-23 0)
(-2.5e-07 -1.5082e-23 0)
(-2.5e-07 -4.63948e-23 0)
(-2.5e-07 -3.17209e-23 0)
(-2.5e-07 -8.1498e-24 0)
(-2.5e-07 -2.081e-24 0)
(-2.5e-07 3.52894e-20 0)
(-2.5e-07 -7.76681e-21 0)
(-2.5e-07 1.75821e-21 0)
(-2.5e-07 -4.55234e-22 0)
(-2.5e-07 6.86627e-23 0)
(-2.5e-07 -4.55967e-23 0)
(-2.5e-07 -1.08494e-23 0)
(-2.5e-07 -3.907e-25 0)
(-2.5e-07 7.28324e-24 0)
(-2.5e-07 1.49603e-23 0)
(-2.5e-07 4.57965e-23 0)
(-2.5e-07 4.08656e-23 0)
(-2.5e-07 2.3523e-23 0)
(-2.5e-07 6.528e-24 0)
(-2.5e-07 5.73917e-24 0)
(-2.5e-07 -4.77117e-24 0)
(-2.5e-07 -3.50039e-24 0)
(-2.5e-07 1.18211e-23 0)
(-2.5e-07 -1.89809e-24 0)
(-2.5e-07 3.96858e-24 0)
(-2.5e-07 -2.43757e-20 0)
(-2.5e-07 5.16403e-21 0)
(-2.5e-07 -1.29764e-21 0)
(-2.5e-07 2.1677e-22 0)
(-2.5e-07 -8.05479e-23 0)
(-2.5e-07 -1.86146e-23 0)
(-2.5e-07 -2.38605e-23 0)
(-2.5e-07 -3.51289e-23 0)
(-2.5e-07 -2.49243e-23 0)
(-2.5e-07 1.15018e-23 0)
(-2.5e-07 3.81226e-23 0)
(-2.5e-07 6.53301e-23 0)
(-2.5e-07 5.64857e-23 0)
(-2.5e-07 -1.79616e-23 0)
(-2.5e-07 -7.57247e-23 0)
(-2.5e-07 -6.38059e-23 0)
(-2.5e-07 -3.83092e-23 0)
(-2.5e-07 -2.61008e-23 0)
(-2.5e-07 -8.6885e-24 0)
(-2.5e-07 4.3881e-24 0)
(-2.5e-07 -5.6874e-21 0)
(-2.5e-07 1.34197e-21 0)
(-2.5e-07 -3.27368e-22 0)
(-2.5e-07 2.86853e-23 0)
(-2.5e-07 -5.00968e-23 0)
(-2.5e-07 2.08114e-23 0)
(-2.5e-07 2.68036e-23 0)
(-2.5e-07 -1.93725e-24 0)
(-2.5e-07 1.09783e-23 0)
(-2.5e-07 2.99328e-23 0)
(-2.5e-07 -3.54733e-24 0)
(-2.5e-07 -1.77945e-24 0)
(-2.5e-07 3.04052e-23 0)
(-2.5e-07 2.28414e-23 0)
(-2.5e-07 -1.98355e-23 0)
(-2.5e-07 -5.39014e-23 0)
(-2.5e-07 -4.31143e-23 0)
(-2.5e-07 -3.72767e-23 0)
(-2.5e-07 -1.66505e-23 0)
(-2.5e-07 1.44546e-24 0)
(-2.5e-07 2.95414e-20 0)
(-2.5e-07 -6.43404e-21 0)
(-2.5e-07 1.52744e-21 0)
(-2.5e-07 -3.59567e-22 0)
(-2.5e-07 5.3139e-23 0)
(-2.5e-07 -9.49919e-24 0)
(-2.5e-07 -1.56328e-24 0)
(-2.5e-07 -3.67974e-23 0)
(-2.5e-07 -2.83537e-23 0)
(-2.5e-07 -4.0854e-24 0)
(-2.5e-07 7.18995e-24 0)
(-2.5e-07 1.94954e-24 0)
(-2.5e-07 1.34953e-23 0)
(-2.5e-07 3.40278e-23 0)
(-2.5e-07 2.48687e-23 0)
(-2.5e-07 -1.6836e-23 0)
(-2.5e-07 -1.84954e-23 0)
(-2.5e-07 -1.60932e-24 0)
(-2.5e-07 3.79648e-24 0)
(-2.5e-07 2.40545e-24 0)
(-2.5e-07 -1.22909e-20 0)
(-2.5e-07 2.55428e-21 0)
(-2.5e-07 -6.59198e-22 0)
(-2.5e-07 1.05067e-22 0)
(-2.5e-07 -3.35026e-23 0)
(-2.5e-07 1.59414e-23 0)
(-2.5e-07 -1.21516e-23 0)
(-2.5e-07 -3.44478e-23 0)
(-2.5e-07 -5.48997e-23 0)
(-2.5e-07 -4.0121e-23 0)
(-2.5e-07 5.01613e-24 0)
(-2.5e-07 1.76172e-23 0)
(-2.5e-07 -4.17373e-24 0)
(-2.5e-07 -1.69835e-23 0)
(-2.5e-07 -2.20211e-23 0)
(-2.5e-07 -2.17618e-23 0)
(-2.5e-07 -3.76316e-23 0)
(-2.5e-07 -1.32283e-23 0)
(-2.5e-07 4.68591e-25 0)
(-2.5e-07 -5.70491e-25 0)
(-2.5e-07 -1.95879e-20 0)
(-2.5e-07 4.26242e-21 0)
(-2.5e-07 -1.04604e-21 0)
(-2.5e-07 2.11041e-22 0)
(-2.5e-07 -3.78098e-23 0)
(-2.5e-07 3.80595e-23 0)
(-2.5e-07 2.29225e-23 0)
(-2.5e-07 1.70386e-23 0)
(-2.5e-07 -1.12823e-23 0)
(-2.5e-07 -2.74227e-23 0)
(-2.5e-07 -2.55751e-23 0)
(-2.5e-07 -1.48029e-23 0)
(-2.5e-07 -1.85521e-23 0)
(-2.5e-07 -1.72708e-23 0)
(-2.5e-07 -1.92175e-23 0)
(-2.5e-07 -9.45853e-24 0)
(-2.5e-07 -1.81204e-23 0)
(-2.5e-07 -9.21462e-24 0)
(-2.5e-07 -6.49484e-24 0)
(-2.5e-07 1.78687e-24 0)
)
;

boundaryField
{
    movingWall
    {
        type            calculated;
        value           uniform (0 0 0);
    }
    fixedWalls
    {
        type            calculated;
        value           uniform (0 0 0);
    }
    frontAndBack
    {
        type            empty;
    }
}


// ************************************************************************* //
