/*--------------------------------*- C++ -*----------------------------------*\
| =========                 |                                                 |
| \\      /  F ield         | OpenFOAM: The Open Source CFD Toolbox           |
|  \\    /   O peration     | Version:  2506                                  |
|   \\  /    A nd           | Website:  www.openfoam.com                      |
|    \\/     M anipulation  |                                                 |
\*---------------------------------------------------------------------------*/
FoamFile
{
    version     2.0;
    format      ascii;
    arch        "LSB;label=32;scalar=64";
    class       volScalarField;
    location    "7";
    object      norm_k_field;
}
// * * * * * * * * * * * * * * * * * * * * * * * * * * * * * * * * * * * * * //

dimensions      [0 0 0 0 0 0 0];

internalField   nonuniform List<scalar> 
400
(
5.78461e+09
2.28497e+09
5.78461e+09
5.78459e+09
5.7846e+09
5.78459e+09
5.78459e+09
5.78459e+09
5.78459e+09
5.78458e+09
5.78458e+09
5.78458e+09
5.78458e+09
5.78458e+09
5.78458e+09
5.78458e+09
5.78458e+09
5.78458e+09
5.78458e+09
5.78458e+09
3.59606e+09
5.96663e+09
5.96632e+09
5.96625e+09
5.96604e+09
5.96597e+09
5.96578e+09
5.96573e+09
5.96557e+09
5.96552e+09
5.9654e+09
5.96536e+09
5.96525e+09
5.96523e+09
5.96515e+09
5.96514e+09
5.96509e+09
5.96508e+09
5.96506e+09
5.96506e+09
6.23883e+09
4.10397e+09
6.23851e+09
6.23841e+09
6.23819e+09
6.23809e+09
6.23792e+09
6.23782e+09
6.23768e+09
6.23759e+09
6.23749e+09
6.23741e+09
6.23733e+09
6.23727e+09
6.23721e+09
6.23718e+09
6.23713e+09
6.23712e+09
6.2371e+09
6.2371e+09
6.50436e+09
6.50436e+09
6.50401e+09
6.50391e+09
6.50366e+09
6.50357e+09
6.50337e+09
6.50326e+09
6.50312e+09
6.503e+09
6.50291e+09
6.50281e+09
6.50273e+09
6.50266e+09
6.50261e+09
6.50256e+09
6.50252e+09
6.5025e+09
6.50249e+09
6.50248e+09
6.71095e+09
6.71095e+09
6.71058e+09
6.71047e+09
6.71021e+09
6.71011e+09
6.70989e+09
6.70979e+09
6.70962e+09
6.70953e+09
6.70939e+09
6.70932e+09
6.70921e+09
6.70916e+09
6.70907e+09
6.70905e+09
6.70899e+09
6.70898e+09
6.70896e+09
6.70895e+09
6.85112e+09
6.85113e+09
6.85073e+09
6.85062e+09
6.85034e+09
6.85025e+09
6.85001e+09
6.84991e+09
6.84973e+09
6.84962e+09
6.8495e+09
6.8494e+09
6.84931e+09
6.84923e+09
6.84917e+09
6.84912e+09
6.84908e+09
6.84905e+09
6.84904e+09
6.84903e+09
6.93912e+09
6.93913e+09
6.93871e+09
6.93861e+09
6.93832e+09
6.93821e+09
6.93799e+09
6.93785e+09
6.9377e+09
6.93757e+09
6.93746e+09
6.93735e+09
6.93726e+09
6.93718e+09
6.93712e+09
6.93706e+09
6.93702e+09
6.937e+09
6.93698e+09
6.93697e+09
6.99312e+09
6.99312e+09
6.99273e+09
6.9926e+09
6.99232e+09
6.9922e+09
6.99197e+09
6.99186e+09
6.99168e+09
6.99156e+09
6.99143e+09
6.99133e+09
6.99123e+09
6.99116e+09
6.99108e+09
6.99104e+09
6.99099e+09
6.99097e+09
6.99095e+09
6.99094e+09
7.02761e+09
5.00366e+09
7.02721e+09
7.02708e+09
7.0268e+09
7.02668e+09
7.02645e+09
7.02632e+09
7.02616e+09
7.02603e+09
7.02591e+09
7.0258e+09
7.0257e+09
7.02563e+09
7.02555e+09
7.02551e+09
7.02545e+09
7.02544e+09
7.02542e+09
7.02541e+09
7.05206e+09
7.05206e+09
7.05165e+09
7.05152e+09
7.05124e+09
7.05112e+09
7.05089e+09
7.05076e+09
7.05059e+09
7.05046e+09
7.05034e+09
7.05024e+09
7.05013e+09
7.05006e+09
7.04998e+09
7.04994e+09
7.04988e+09
7.04987e+09
7.04985e+09
7.04984e+09
7.07206e+09
7.07206e+09
7.07165e+09
7.07152e+09
7.07124e+09
7.07111e+09
7.07089e+09
7.07076e+09
7.07059e+09
7.07046e+09
7.07033e+09
7.07023e+09
7.07012e+09
7.07006e+09
7.06997e+09
7.06993e+09
7.06988e+09
7.06986e+09
7.06984e+09
7.06983e+09
7.09078e+09
5.30885e+09
7.09037e+09
7.09025e+09
7.08995e+09
7.08984e+09
7.08959e+09
7.08948e+09
7.0893e+09
7.08917e+09
7.08905e+09
7.08894e+09
7.08885e+09
7.08876e+09
7.08869e+09
7.08863e+09
7.08859e+09
7.08857e+09
7.08855e+09
7.08854e+09
7.11003e+09
7.11003e+09
7.10961e+09
7.10949e+09
7.10919e+09
7.10907e+09
7.10883e+09
7.10871e+09
7.10854e+09
7.1084e+09
7.10828e+09
7.10817e+09
7.10807e+09
7.10799e+09
7.10792e+09
7.10787e+09
7.10782e+09
7.1078e+09
7.10778e+09
7.10777e+09
7.13086e+09
7.13087e+09
7.13043e+09
7.13031e+09
7.13002e+09
7.12989e+09
7.12967e+09
7.12951e+09
7.12936e+09
7.12922e+09
7.1291e+09
7.12898e+09
7.1289e+09
7.1288e+09
7.12874e+09
7.12868e+09
7.12864e+09
7.12861e+09
7.12859e+09
7.12859e+09
7.15384e+09
7.15386e+09
7.1534e+09
7.1533e+09
7.15299e+09
7.15289e+09
7.15261e+09
7.15254e+09
7.1523e+09
7.15223e+09
7.15204e+09
7.15199e+09
7.15184e+09
7.15181e+09
7.15169e+09
7.15167e+09
7.1516e+09
7.15159e+09
7.15156e+09
7.15156e+09
7.17896e+09
7.17896e+09
7.17854e+09
7.1784e+09
7.17811e+09
7.17798e+09
7.17775e+09
7.17761e+09
7.17744e+09
7.1773e+09
7.17718e+09
7.17706e+09
7.17697e+09
7.17688e+09
7.17681e+09
7.17675e+09
7.17671e+09
7.17668e+09
7.17667e+09
7.17666e+09
7.20522e+09
7.20522e+09
7.20479e+09
7.20466e+09
7.20436e+09
7.20424e+09
7.20399e+09
7.20387e+09
7.20368e+09
7.20356e+09
7.20341e+09
7.20332e+09
7.2032e+09
7.20314e+09
7.20304e+09
7.20301e+09
7.20295e+09
7.20293e+09
7.20291e+09
7.2029e+09
7.23027e+09
7.23026e+09
7.22986e+09
7.2297e+09
7.22941e+09
7.22927e+09
7.22904e+09
7.2289e+09
7.22872e+09
7.22859e+09
7.22846e+09
7.22835e+09
7.22824e+09
7.22817e+09
7.22808e+09
7.22804e+09
7.22798e+09
7.22796e+09
7.22794e+09
7.22794e+09
7.25041e+09
7.25041e+09
7.25e+09
7.24987e+09
7.24958e+09
7.24945e+09
7.24923e+09
7.24907e+09
7.24892e+09
7.24877e+09
7.24866e+09
7.24854e+09
7.24844e+09
7.24836e+09
7.24829e+09
7.24823e+09
7.24818e+09
7.24816e+09
7.24814e+09
7.24813e+09
7.25958e+09
7.25957e+09
7.25957e+09
7.25956e+09
7.25956e+09
7.25955e+09
7.25955e+09
7.25955e+09
7.25955e+09
7.25954e+09
7.25954e+09
7.25954e+09
7.25954e+09
7.25954e+09
7.25954e+09
7.25954e+09
7.25954e+09
7.25954e+09
7.25954e+09
7.25954e+09
)
;

boundaryField
{
    movingWall
    {
        type            calculated;
        value           nonuniform List<scalar> 
20
(
7.25958e+09
7.25957e+09
7.25957e+09
7.25956e+09
7.25956e+09
7.25955e+09
7.25955e+09
7.25955e+09
7.25955e+09
7.25954e+09
7.25954e+09
7.25954e+09
7.25954e+09
7.25954e+09
7.25954e+09
7.25954e+09
7.25954e+09
7.25954e+09
7.25954e+09
7.25954e+09
)
;
    }
    fixedWalls
    {
        type            calculated;
        value           nonuniform List<scalar> 
60
(
5.78461e+09
3.59606e+09
6.23883e+09
6.50436e+09
6.71095e+09
6.85112e+09
6.93912e+09
6.99312e+09
7.02761e+09
7.05206e+09
7.07206e+09
7.09078e+09
7.11003e+09
7.13086e+09
7.15384e+09
7.17896e+09
7.20522e+09
7.23027e+09
7.25041e+09
7.25958e+09
5.78458e+09
5.96506e+09
6.2371e+09
6.50248e+09
6.70895e+09
6.84903e+09
6.93697e+09
6.99094e+09
7.02541e+09
7.04984e+09
7.06983e+09
7.08854e+09
7.10777e+09
7.12859e+09
7.15156e+09
7.17666e+09
7.2029e+09
7.22794e+09
7.24813e+09
7.25954e+09
5.78461e+09
2.28497e+09
5.78461e+09
5.78459e+09
5.7846e+09
5.78459e+09
5.78459e+09
5.78459e+09
5.78459e+09
5.78458e+09
5.78458e+09
5.78458e+09
5.78458e+09
5.78458e+09
5.78458e+09
5.78458e+09
5.78458e+09
5.78458e+09
5.78458e+09
5.78458e+09
)
;
    }
    frontAndBack
    {
        type            empty;
    }
}


// ************************************************************************* //
