/*--------------------------------*- C++ -*----------------------------------*\
| =========                 |                                                 |
| \\      /  F ield         | OpenFOAM: The Open Source CFD Toolbox           |
|  \\    /   O peration     | Version:  2506                                  |
|   \\  /    A nd           | Website:  www.openfoam.com                      |
|    \\/     M anipulation  |                                                 |
\*---------------------------------------------------------------------------*/
FoamFile
{
    version     2.0;
    format      ascii;
    arch        "LSB;label=32;scalar=64";
    class       volVectorField;
    location    "7";
    object      norm_U_composite;
}
// * * * * * * * * * * * * * * * * * * * * * * * * * * * * * * * * * * * * * //

dimensions      [0 0 0 0 0 0 0];

internalField   nonuniform List<vector> 
400
(
(-0.5 7.61554e-14 0)
(-0.5 -1.62761e-14 0)
(-0.5 3.89349e-15 0)
(-0.5 -7.26925e-16 0)
(-0.5 2.77906e-16 0)
(-0.5 3.61499e-17 0)
(-0.5 5.24969e-17 0)
(-0.5 -4.17987e-20 0)
(-0.5 -1.29086e-17 0)
(-0.5 -9.92759e-18 0)
(-0.5 -2.99229e-18 0)
(-0.5 2.74451e-17 0)
(-0.5 2.34111e-18 0)
(-0.5 2.31591e-17 0)
(-0.5 5.18785e-17 0)
(-0.5 6.16183e-17 0)
(-0.5 4.63283e-17 0)
(-0.5 1.20437e-17 0)
(-0.5 4.90175e-18 0)
(-0.5 2.89562e-17 0)
(-0.5 2.11266e-15 0)
(-0.5 -3.77424e-16 0)
(-0.5 1.84454e-16 0)
(-0.5 7.38927e-17 0)
(-0.5 8.351e-17 0)
(-0.5 6.33742e-17 0)
(-0.5 2.63862e-18 0)
(-0.5 -5.28248e-17 0)
(-0.5 -5.15755e-17 0)
(-0.5 -4.02513e-17 0)
(-0.5 -8.29254e-18 0)
(-0.5 6.01996e-17 0)
(-0.5 5.21887e-17 0)
(-0.5 2.10659e-17 0)
(-0.5 -3.73045e-18 0)
(-0.5 4.84489e-17 0)
(-0.5 8.0514e-17 0)
(-0.5 1.76752e-17 0)
(-0.5 -3.71663e-17 0)
(-0.5 -1.20895e-17 0)
(-0.5 -6.76778e-14 0)
(-0.5 1.48714e-14 0)
(-0.5 -3.36808e-15 0)
(-0.5 8.43522e-16 0)
(-0.5 -6.75935e-17 0)
(-0.5 1.46436e-16 0)
(-0.5 1.25226e-16 0)
(-0.5 1.40867e-16 0)
(-0.5 6.73472e-17 0)
(-0.5 -1.03587e-17 0)
(-0.5 2.44116e-17 0)
(-0.5 -1.90847e-17 0)
(-0.5 -5.03911e-17 0)
(-0.5 -6.30984e-17 0)
(-0.5 -9.542e-17 0)
(-0.5 -9.57615e-17 0)
(-0.5 -4.6109e-17 0)
(-0.5 -2.41063e-17 0)
(-0.5 -6.51034e-17 0)
(-0.5 -6.15721e-17 0)
(-0.5 5.70981e-14 0)
(-0.5 -1.23106e-14 0)
(-0.5 2.88417e-15 0)
(-0.5 -6.13386e-16 0)
(-0.5 2.23422e-16 0)
(-0.5 1.12926e-16 0)
(-0.5 1.87667e-16 0)
(-0.5 1.54623e-16 0)
(-0.5 1.02823e-16 0)
(-0.5 1.89691e-17 0)
(-0.5 -5.15498e-17 0)
(-0.5 -1.11003e-16 0)
(-0.5 -1.12758e-16 0)
(-0.5 -6.98504e-17 0)
(-0.5 -5.65287e-17 0)
(-0.5 -8.40718e-17 0)
(-0.5 -8.98954e-17 0)
(-0.5 -5.30717e-17 0)
(-0.5 -3.25709e-17 0)
(-0.5 -5.69798e-18 0)
(-0.5 -6.70528e-15 0)
(-0.5 1.27652e-15 0)
(-0.5 -2.81938e-16 0)
(-0.5 1.55909e-16 0)
(-0.5 1.26184e-16 0)
(-0.5 1.62101e-16 0)
(-0.5 1.30723e-16 0)
(-0.5 4.80995e-17 0)
(-0.5 5.57545e-17 0)
(-0.5 2.23176e-17 0)
(-0.5 -9.83836e-17 0)
(-0.5 -1.02218e-16 0)
(-0.5 -2.87791e-17 0)
(-0.5 -4.79011e-17 0)
(-0.5 -9.69001e-17 0)
(-0.5 -1.14061e-16 0)
(-0.5 -8.08367e-17 0)
(-0.5 8.29686e-18 0)
(-0.5 4.40532e-17 0)
(-0.5 3.42692e-17 0)
(-0.5 -5.36362e-14 0)
(-0.5 1.18719e-14 0)
(-0.5 -2.67763e-15 0)
(-0.5 6.82099e-16 0)
(-0.5 -6.23063e-17 0)
(-0.5 1.08215e-16 0)
(-0.5 8.42484e-17 0)
(-0.5 6.75936e-17 0)
(-0.5 3.52629e-17 0)
(-0.5 2.02895e-17 0)
(-0.5 -1.71969e-17 0)
(-0.5 -3.90611e-17 0)
(-0.5 -4.46159e-17 0)
(-0.5 -8.43169e-17 0)
(-0.5 -1.23462e-16 0)
(-0.5 -1.19381e-16 0)
(-0.5 -7.85829e-17 0)
(-0.5 1.88364e-17 0)
(-0.5 7.61643e-17 0)
(-0.5 4.81405e-17 0)
(-0.5 7.80365e-14 0)
(-0.5 -1.66729e-14 0)
(-0.5 3.97175e-15 0)
(-0.5 -8.85295e-16 0)
(-0.5 1.53218e-16 0)
(-0.5 -4.61649e-17 0)
(-0.5 3.75197e-17 0)
(-0.5 7.48881e-17 0)
(-0.5 1.10125e-16 0)
(-0.5 1.25395e-16 0)
(-0.5 3.73379e-17 0)
(-0.5 5.26731e-18 0)
(-0.5 -3.98559e-17 0)
(-0.5 -6.98376e-17 0)
(-0.5 -4.94446e-17 0)
(-0.5 -9.25823e-18 0)
(-0.5 8.46988e-19 0)
(-0.5 -1.30078e-17 0)
(-0.5 1.45457e-17 0)
(-0.5 2.88297e-17 0)
(-0.5 -3.15235e-14 0)
(-0.5 6.7563e-15 0)
(-0.5 -1.57991e-15 0)
(-0.5 3.53676e-16 0)
(-0.5 -2.563e-17 0)
(-0.5 8.42836e-17 0)
(-0.5 5.40372e-17 0)
(-0.5 5.83621e-17 0)
(-0.5 6.23452e-17 0)
(-0.5 3.77476e-17 0)
(-0.5 -7.32457e-18 0)
(-0.5 -1.94827e-17 0)
(-0.5 -4.45811e-17 0)
(-0.5 -3.96926e-17 0)
(-0.5 -5.85101e-18 0)
(-0.5 5.61808e-18 0)
(-0.5 3.34088e-17 0)
(-0.5 3.36202e-17 0)
(-0.5 -6.399e-18 0)
(-0.5 4.73359e-18 0)
(-0.5 -3.38534e-14 0)
(-0.5 7.25008e-15 0)
(-0.5 -1.69519e-15 0)
(-0.5 3.31745e-16 0)
(-0.5 -9.96198e-17 0)
(-0.5 3.16665e-18 0)
(-0.5 1.18107e-17 0)
(-0.5 1.60254e-17 0)
(-0.5 -1.12226e-17 0)
(-0.5 -5.08962e-17 0)
(-0.5 4.68411e-17 0)
(-0.5 6.5833e-17 0)
(-0.5 -1.24195e-18 0)
(-0.5 -1.69263e-17 0)
(-0.5 4.22956e-17 0)
(-0.5 1.98131e-17 0)
(-0.5 -1.46678e-17 0)
(-0.5 -1.2094e-17 0)
(-0.5 3.42203e-17 0)
(-0.5 2.63574e-17 0)
(-0.5 6.79898e-14 0)
(-0.5 -1.45748e-14 0)
(-0.5 3.47636e-15 0)
(-0.5 -6.64747e-16 0)
(-0.5 1.84269e-16 0)
(-0.5 -4.81597e-17 0)
(-0.5 4.49746e-17 0)
(-0.5 6.17262e-17 0)
(-0.5 4.6127e-17 0)
(-0.5 3.28222e-17 0)
(-0.5 5.68093e-17 0)
(-0.5 4.02223e-17 0)
(-0.5 2.92852e-17 0)
(-0.5 2.60997e-17 0)
(-0.5 4.17699e-17 0)
(-0.5 4.791e-17 0)
(-0.5 3.17485e-17 0)
(-0.5 -3.42007e-17 0)
(-0.5 -1.5885e-17 0)
(-0.5 2.3281e-17 0)
(-0.5 -6.68902e-14 0)
(-0.5 1.42808e-14 0)
(-0.5 -3.34576e-15 0)
(-0.5 7.46842e-16 0)
(-0.5 -2.04199e-16 0)
(-0.5 -3.46909e-17 0)
(-0.5 -6.6308e-17 0)
(-0.5 -1.35087e-17 0)
(-0.5 -4.76435e-17 0)
(-0.5 -4.62736e-17 0)
(-0.5 -4.73508e-17 0)
(-0.5 -3.23731e-17 0)
(-0.5 -6.36206e-18 0)
(-0.5 3.41076e-17 0)
(-0.5 -1.53772e-17 0)
(-0.5 8.95148e-18 0)
(-0.5 2.29244e-17 0)
(-0.5 1.12008e-17 0)
(-0.5 -4.01813e-17 0)
(-0.5 5.54959e-18 0)
(-0.5 4.1259e-14 0)
(-0.5 -9.23996e-15 0)
(-0.5 2.11974e-15 0)
(-0.5 -5.39797e-16 0)
(-0.5 6.13373e-17 0)
(-0.5 -5.93905e-17 0)
(-0.5 -2.01487e-17 0)
(-0.5 -3.58851e-19 0)
(-0.5 -1.01546e-17 0)
(-0.5 -1.61496e-17 0)
(-0.5 -1.39215e-17 0)
(-0.5 1.73074e-17 0)
(-0.5 2.44221e-17 0)
(-0.5 4.34062e-17 0)
(-0.5 2.12425e-17 0)
(-0.5 7.42063e-17 0)
(-0.5 4.71215e-17 0)
(-0.5 2.98041e-17 0)
(-0.5 -1.40089e-17 0)
(-0.5 2.00033e-18 0)
(-0.5 -8.43231e-16 0)
(-0.5 4.42309e-16 0)
(-0.5 -7.57918e-17 0)
(-0.5 6.22085e-17 0)
(-0.5 2.48953e-17 0)
(-0.5 5.32464e-18 0)
(-0.5 -4.66824e-17 0)
(-0.5 -6.37937e-17 0)
(-0.5 -2.0683e-17 0)
(-0.5 3.78877e-17 0)
(-0.5 2.94561e-17 0)
(-0.5 6.82528e-18 0)
(-0.5 7.83256e-18 0)
(-0.5 3.5399e-17 0)
(-0.5 5.02089e-17 0)
(-0.5 5.10745e-17 0)
(-0.5 2.10282e-17 0)
(-0.5 -3.00047e-17 0)
(-0.5 -2.50628e-17 0)
(-0.5 1.47686e-18 0)
(-0.5 -4.20821e-14 0)
(-0.5 9.41926e-15 0)
(-0.5 -2.1504e-15 0)
(-0.5 4.61892e-16 0)
(-0.5 -1.53478e-16 0)
(-0.5 -2.52802e-17 0)
(-0.5 -9.4724e-17 0)
(-0.5 -4.87274e-17 0)
(-0.5 1.34758e-17 0)
(-0.5 6.50123e-17 0)
(-0.5 8.64328e-17 0)
(-0.5 1.1851e-17 0)
(-0.5 -2.43888e-17 0)
(-0.5 2.58561e-17 0)
(-0.5 8.28006e-17 0)
(-0.5 -3.01639e-17 0)
(-0.5 -9.27896e-17 0)
(-0.5 -6.34418e-17 0)
(-0.5 -1.62996e-17 0)
(-0.5 -4.162e-18 0)
(-0.5 7.05789e-14 0)
(-0.5 -1.55336e-14 0)
(-0.5 3.51641e-15 0)
(-0.5 -9.10469e-16 0)
(-0.5 1.37325e-16 0)
(-0.5 -9.11934e-17 0)
(-0.5 -2.16989e-17 0)
(-0.5 -7.81401e-19 0)
(-0.5 1.45665e-17 0)
(-0.5 2.99206e-17 0)
(-0.5 9.15929e-17 0)
(-0.5 8.17313e-17 0)
(-0.5 4.7046e-17 0)
(-0.5 1.3056e-17 0)
(-0.5 1.14783e-17 0)
(-0.5 -9.54235e-18 0)
(-0.5 -7.00078e-18 0)
(-0.5 2.36423e-17 0)
(-0.5 -3.79618e-18 0)
(-0.5 7.93716e-18 0)
(-0.5 -4.87513e-14 0)
(-0.5 1.03281e-14 0)
(-0.5 -2.59528e-15 0)
(-0.5 4.3354e-16 0)
(-0.5 -1.61096e-16 0)
(-0.5 -3.72291e-17 0)
(-0.5 -4.7721e-17 0)
(-0.5 -7.02579e-17 0)
(-0.5 -4.98486e-17 0)
(-0.5 2.30035e-17 0)
(-0.5 7.62451e-17 0)
(-0.5 1.3066e-16 0)
(-0.5 1.12971e-16 0)
(-0.5 -3.59231e-17 0)
(-0.5 -1.51449e-16 0)
(-0.5 -1.27612e-16 0)
(-0.5 -7.66184e-17 0)
(-0.5 -5.22017e-17 0)
(-0.5 -1.7377e-17 0)
(-0.5 8.7762e-18 0)
(-0.5 -1.13748e-14 0)
(-0.5 2.68395e-15 0)
(-0.5 -6.54735e-16 0)
(-0.5 5.73705e-17 0)
(-0.5 -1.00194e-16 0)
(-0.5 4.16227e-17 0)
(-0.5 5.36072e-17 0)
(-0.5 -3.8745e-18 0)
(-0.5 2.19566e-17 0)
(-0.5 5.98656e-17 0)
(-0.5 -7.09466e-18 0)
(-0.5 -3.55891e-18 0)
(-0.5 6.08103e-17 0)
(-0.5 4.56829e-17 0)
(-0.5 -3.9671e-17 0)
(-0.5 -1.07803e-16 0)
(-0.5 -8.62285e-17 0)
(-0.5 -7.45534e-17 0)
(-0.5 -3.33009e-17 0)
(-0.5 2.89092e-18 0)
(-0.5 5.90828e-14 0)
(-0.5 -1.28681e-14 0)
(-0.5 3.05488e-15 0)
(-0.5 -7.19134e-16 0)
(-0.5 1.06278e-16 0)
(-0.5 -1.89984e-17 0)
(-0.5 -3.12657e-18 0)
(-0.5 -7.35948e-17 0)
(-0.5 -5.67075e-17 0)
(-0.5 -8.17079e-18 0)
(-0.5 1.43799e-17 0)
(-0.5 3.89907e-18 0)
(-0.5 2.69906e-17 0)
(-0.5 6.80555e-17 0)
(-0.5 4.97375e-17 0)
(-0.5 -3.3672e-17 0)
(-0.5 -3.69908e-17 0)
(-0.5 -3.21865e-18 0)
(-0.5 7.59297e-18 0)
(-0.5 4.8109e-18 0)
(-0.5 -2.45817e-14 0)
(-0.5 5.10857e-15 0)
(-0.5 -1.3184e-15 0)
(-0.5 2.10135e-16 0)
(-0.5 -6.70053e-17 0)
(-0.5 3.18828e-17 0)
(-0.5 -2.43032e-17 0)
(-0.5 -6.88955e-17 0)
(-0.5 -1.09799e-16 0)
(-0.5 -8.02419e-17 0)
(-0.5 1.00323e-17 0)
(-0.5 3.52345e-17 0)
(-0.5 -8.34746e-18 0)
(-0.5 -3.3967e-17 0)
(-0.5 -4.40422e-17 0)
(-0.5 -4.35235e-17 0)
(-0.5 -7.52633e-17 0)
(-0.5 -2.64566e-17 0)
(-0.5 9.37183e-19 0)
(-0.5 -1.14098e-18 0)
(-0.5 -3.91758e-14 0)
(-0.5 8.52484e-15 0)
(-0.5 -2.09208e-15 0)
(-0.5 4.22083e-16 0)
(-0.5 -7.56196e-17 0)
(-0.5 7.6119e-17 0)
(-0.5 4.5845e-17 0)
(-0.5 3.40772e-17 0)
(-0.5 -2.25646e-17 0)
(-0.5 -5.48453e-17 0)
(-0.5 -5.11502e-17 0)
(-0.5 -2.96057e-17 0)
(-0.5 -3.71043e-17 0)
(-0.5 -3.45415e-17 0)
(-0.5 -3.84349e-17 0)
(-0.5 -1.89171e-17 0)
(-0.5 -3.62408e-17 0)
(-0.5 -1.84292e-17 0)
(-0.5 -1.29897e-17 0)
(-0.5 3.57374e-18 0)
)
;

boundaryField
{
    movingWall
    {
        type            calculated;
        value           uniform (-0.5 -0 -0);
    }
    fixedWalls
    {
        type            calculated;
        value           uniform (-0.5 -0 -0);
    }
    frontAndBack
    {
        type            empty;
    }
}


// ************************************************************************* //
