/*--------------------------------*- C++ -*----------------------------------*\
| =========                 |                                                 |
| \\      /  F ield         | OpenFOAM: The Open Source CFD Toolbox           |
|  \\    /   O peration     | Version:  2506                                  |
|   \\  /    A nd           | Website:  www.openfoam.com                      |
|    \\/     M anipulation  |                                                 |
\*---------------------------------------------------------------------------*/
FoamFile
{
    version     2.0;
    format      ascii;
    arch        "LSB;label=32;scalar=64";
    class       volVectorField;
    location    "7";
    object      norm_U_L1;
}
// * * * * * * * * * * * * * * * * * * * * * * * * * * * * * * * * * * * * * //

dimensions      [0 0 0 0 0 0 0];

internalField   nonuniform List<vector> 
400
(
(-0.0025 3.80777e-16 0)
(-0.0025 -8.13805e-17 0)
(-0.0025 1.94674e-17 0)
(-0.0025 -3.63462e-18 0)
(-0.0025 1.38953e-18 0)
(-0.0025 1.80749e-19 0)
(-0.0025 2.62484e-19 0)
(-0.0025 -2.08994e-22 0)
(-0.0025 -6.45432e-20 0)
(-0.0025 -4.96379e-20 0)
(-0.0025 -1.49614e-20 0)
(-0.0025 1.37226e-19 0)
(-0.0025 1.17055e-20 0)
(-0.0025 1.15795e-19 0)
(-0.0025 2.59393e-19 0)
(-0.0025 3.08091e-19 0)
(-0.0025 2.31641e-19 0)
(-0.0025 6.02184e-20 0)
(-0.0025 2.45087e-20 0)
(-0.0025 1.44781e-19 0)
(-0.0025 1.05633e-17 0)
(-0.0025 -1.88712e-18 0)
(-0.0025 9.22271e-19 0)
(-0.0025 3.69464e-19 0)
(-0.0025 4.1755e-19 0)
(-0.0025 3.16871e-19 0)
(-0.0025 1.31931e-20 0)
(-0.0025 -2.64124e-19 0)
(-0.0025 -2.57877e-19 0)
(-0.0025 -2.01257e-19 0)
(-0.0025 -4.14627e-20 0)
(-0.0025 3.00998e-19 0)
(-0.0025 2.60943e-19 0)
(-0.0025 1.0533e-19 0)
(-0.0025 -1.86523e-20 0)
(-0.0025 2.42245e-19 0)
(-0.0025 4.0257e-19 0)
(-0.0025 8.83761e-20 0)
(-0.0025 -1.85832e-19 0)
(-0.0025 -6.04475e-20 0)
(-0.0025 -3.38389e-16 0)
(-0.0025 7.43568e-17 0)
(-0.0025 -1.68404e-17 0)
(-0.0025 4.21761e-18 0)
(-0.0025 -3.37968e-19 0)
(-0.0025 7.3218e-19 0)
(-0.0025 6.26131e-19 0)
(-0.0025 7.04337e-19 0)
(-0.0025 3.36736e-19 0)
(-0.0025 -5.17933e-20 0)
(-0.0025 1.22058e-19 0)
(-0.0025 -9.54234e-20 0)
(-0.0025 -2.51956e-19 0)
(-0.0025 -3.15492e-19 0)
(-0.0025 -4.771e-19 0)
(-0.0025 -4.78808e-19 0)
(-0.0025 -2.30545e-19 0)
(-0.0025 -1.20532e-19 0)
(-0.0025 -3.25517e-19 0)
(-0.0025 -3.07861e-19 0)
(-0.0025 2.85491e-16 0)
(-0.0025 -6.15529e-17 0)
(-0.0025 1.44209e-17 0)
(-0.0025 -3.06693e-18 0)
(-0.0025 1.11711e-18 0)
(-0.0025 5.64629e-19 0)
(-0.0025 9.38335e-19 0)
(-0.0025 7.73117e-19 0)
(-0.0025 5.14116e-19 0)
(-0.0025 9.48453e-20 0)
(-0.0025 -2.57749e-19 0)
(-0.0025 -5.55016e-19 0)
(-0.0025 -5.63791e-19 0)
(-0.0025 -3.49252e-19 0)
(-0.0025 -2.82643e-19 0)
(-0.0025 -4.20359e-19 0)
(-0.0025 -4.49477e-19 0)
(-0.0025 -2.65359e-19 0)
(-0.0025 -1.62854e-19 0)
(-0.0025 -2.84899e-20 0)
(-0.0025 -3.35264e-17 0)
(-0.0025 6.38261e-18 0)
(-0.0025 -1.40969e-18 0)
(-0.0025 7.79543e-19 0)
(-0.0025 6.3092e-19 0)
(-0.0025 8.10505e-19 0)
(-0.0025 6.53615e-19 0)
(-0.0025 2.40498e-19 0)
(-0.0025 2.78772e-19 0)
(-0.0025 1.11588e-19 0)
(-0.0025 -4.91918e-19 0)
(-0.0025 -5.11091e-19 0)
(-0.0025 -1.43895e-19 0)
(-0.0025 -2.39505e-19 0)
(-0.0025 -4.845e-19 0)
(-0.0025 -5.70304e-19 0)
(-0.0025 -4.04183e-19 0)
(-0.0025 4.14843e-20 0)
(-0.0025 2.20266e-19 0)
(-0.0025 1.71346e-19 0)
(-0.0025 -2.68181e-16 0)
(-0.0025 5.93595e-17 0)
(-0.0025 -1.33882e-17 0)
(-0.0025 3.41049e-18 0)
(-0.0025 -3.11532e-19 0)
(-0.0025 5.41073e-19 0)
(-0.0025 4.21242e-19 0)
(-0.0025 3.37968e-19 0)
(-0.0025 1.76315e-19 0)
(-0.0025 1.01448e-19 0)
(-0.0025 -8.59847e-20 0)
(-0.0025 -1.95306e-19 0)
(-0.0025 -2.2308e-19 0)
(-0.0025 -4.21585e-19 0)
(-0.0025 -6.17312e-19 0)
(-0.0025 -5.96905e-19 0)
(-0.0025 -3.92914e-19 0)
(-0.0025 9.4182e-20 0)
(-0.0025 3.80821e-19 0)
(-0.0025 2.40702e-19 0)
(-0.0025 3.90183e-16 0)
(-0.0025 -8.33647e-17 0)
(-0.0025 1.98587e-17 0)
(-0.0025 -4.42648e-18 0)
(-0.0025 7.66091e-19 0)
(-0.0025 -2.30825e-19 0)
(-0.0025 1.87598e-19 0)
(-0.0025 3.74441e-19 0)
(-0.0025 5.50627e-19 0)
(-0.0025 6.26976e-19 0)
(-0.0025 1.86689e-19 0)
(-0.0025 2.63366e-20 0)
(-0.0025 -1.99279e-19 0)
(-0.0025 -3.49188e-19 0)
(-0.0025 -2.47223e-19 0)
(-0.0025 -4.62911e-20 0)
(-0.0025 4.23494e-21 0)
(-0.0025 -6.5039e-20 0)
(-0.0025 7.27283e-20 0)
(-0.0025 1.44149e-19 0)
(-0.0025 -1.57618e-16 0)
(-0.0025 3.37815e-17 0)
(-0.0025 -7.89954e-18 0)
(-0.0025 1.76838e-18 0)
(-0.0025 -1.2815e-19 0)
(-0.0025 4.21418e-19 0)
(-0.0025 2.70186e-19 0)
(-0.0025 2.91811e-19 0)
(-0.0025 3.11726e-19 0)
(-0.0025 1.88738e-19 0)
(-0.0025 -3.66229e-20 0)
(-0.0025 -9.74135e-20 0)
(-0.0025 -2.22906e-19 0)
(-0.0025 -1.98463e-19 0)
(-0.0025 -2.92551e-20 0)
(-0.0025 2.80904e-20 0)
(-0.0025 1.67044e-19 0)
(-0.0025 1.68101e-19 0)
(-0.0025 -3.1995e-20 0)
(-0.0025 2.36679e-20 0)
(-0.0025 -1.69267e-16 0)
(-0.0025 3.62504e-17 0)
(-0.0025 -8.47594e-18 0)
(-0.0025 1.65872e-18 0)
(-0.0025 -4.98099e-19 0)
(-0.0025 1.58333e-20 0)
(-0.0025 5.90536e-20 0)
(-0.0025 8.01272e-20 0)
(-0.0025 -5.6113e-20 0)
(-0.0025 -2.54481e-19 0)
(-0.0025 2.34206e-19 0)
(-0.0025 3.29165e-19 0)
(-0.0025 -6.20973e-21 0)
(-0.0025 -8.46313e-20 0)
(-0.0025 2.11478e-19 0)
(-0.0025 9.90655e-20 0)
(-0.0025 -7.33392e-20 0)
(-0.0025 -6.04701e-20 0)
(-0.0025 1.71102e-19 0)
(-0.0025 1.31787e-19 0)
(-0.0025 3.39949e-16 0)
(-0.0025 -7.28741e-17 0)
(-0.0025 1.73818e-17 0)
(-0.0025 -3.32374e-18 0)
(-0.0025 9.21347e-19 0)
(-0.0025 -2.40799e-19 0)
(-0.0025 2.24873e-19 0)
(-0.0025 3.08631e-19 0)
(-0.0025 2.30635e-19 0)
(-0.0025 1.64111e-19 0)
(-0.0025 2.84046e-19 0)
(-0.0025 2.01112e-19 0)
(-0.0025 1.46426e-19 0)
(-0.0025 1.30499e-19 0)
(-0.0025 2.0885e-19 0)
(-0.0025 2.3955e-19 0)
(-0.0025 1.58743e-19 0)
(-0.0025 -1.71003e-19 0)
(-0.0025 -7.94251e-20 0)
(-0.0025 1.16405e-19 0)
(-0.0025 -3.34451e-16 0)
(-0.0025 7.14039e-17 0)
(-0.0025 -1.67288e-17 0)
(-0.0025 3.73421e-18 0)
(-0.0025 -1.021e-18 0)
(-0.0025 -1.73454e-19 0)
(-0.0025 -3.3154e-19 0)
(-0.0025 -6.75434e-20 0)
(-0.0025 -2.38217e-19 0)
(-0.0025 -2.31368e-19 0)
(-0.0025 -2.36754e-19 0)
(-0.0025 -1.61865e-19 0)
(-0.0025 -3.18103e-20 0)
(-0.0025 1.70538e-19 0)
(-0.0025 -7.68858e-20 0)
(-0.0025 4.47574e-20 0)
(-0.0025 1.14622e-19 0)
(-0.0025 5.6004e-20 0)
(-0.0025 -2.00906e-19 0)
(-0.0025 2.7748e-20 0)
(-0.0025 2.06295e-16 0)
(-0.0025 -4.61998e-17 0)
(-0.0025 1.05987e-17 0)
(-0.0025 -2.69899e-18 0)
(-0.0025 3.06686e-19 0)
(-0.0025 -2.96952e-19 0)
(-0.0025 -1.00744e-19 0)
(-0.0025 -1.79426e-21 0)
(-0.0025 -5.07729e-20 0)
(-0.0025 -8.07479e-20 0)
(-0.0025 -6.96077e-20 0)
(-0.0025 8.65372e-20 0)
(-0.0025 1.22111e-19 0)
(-0.0025 2.17031e-19 0)
(-0.0025 1.06212e-19 0)
(-0.0025 3.71031e-19 0)
(-0.0025 2.35608e-19 0)
(-0.0025 1.49021e-19 0)
(-0.0025 -7.00446e-20 0)
(-0.0025 1.00016e-20 0)
(-0.0025 -4.21615e-18 0)
(-0.0025 2.21154e-18 0)
(-0.0025 -3.78959e-19 0)
(-0.0025 3.11042e-19 0)
(-0.0025 1.24476e-19 0)
(-0.0025 2.66232e-20 0)
(-0.0025 -2.33412e-19 0)
(-0.0025 -3.18968e-19 0)
(-0.0025 -1.03415e-19 0)
(-0.0025 1.89439e-19 0)
(-0.0025 1.47281e-19 0)
(-0.0025 3.41264e-20 0)
(-0.0025 3.91628e-20 0)
(-0.0025 1.76995e-19 0)
(-0.0025 2.51044e-19 0)
(-0.0025 2.55373e-19 0)
(-0.0025 1.05141e-19 0)
(-0.0025 -1.50024e-19 0)
(-0.0025 -1.25314e-19 0)
(-0.0025 7.38432e-21 0)
(-0.0025 -2.1041e-16 0)
(-0.0025 4.70963e-17 0)
(-0.0025 -1.0752e-17 0)
(-0.0025 2.30946e-18 0)
(-0.0025 -7.6739e-19 0)
(-0.0025 -1.26401e-19 0)
(-0.0025 -4.7362e-19 0)
(-0.0025 -2.43637e-19 0)
(-0.0025 6.7379e-20 0)
(-0.0025 3.25062e-19 0)
(-0.0025 4.32164e-19 0)
(-0.0025 5.92548e-20 0)
(-0.0025 -1.21944e-19 0)
(-0.0025 1.2928e-19 0)
(-0.0025 4.14003e-19 0)
(-0.0025 -1.5082e-19 0)
(-0.0025 -4.63948e-19 0)
(-0.0025 -3.17209e-19 0)
(-0.0025 -8.1498e-20 0)
(-0.0025 -2.081e-20 0)
(-0.0025 3.52894e-16 0)
(-0.0025 -7.76681e-17 0)
(-0.0025 1.75821e-17 0)
(-0.0025 -4.55234e-18 0)
(-0.0025 6.86627e-19 0)
(-0.0025 -4.55967e-19 0)
(-0.0025 -1.08494e-19 0)
(-0.0025 -3.907e-21 0)
(-0.0025 7.28324e-20 0)
(-0.0025 1.49603e-19 0)
(-0.0025 4.57965e-19 0)
(-0.0025 4.08656e-19 0)
(-0.0025 2.3523e-19 0)
(-0.0025 6.528e-20 0)
(-0.0025 5.73917e-20 0)
(-0.0025 -4.77117e-20 0)
(-0.0025 -3.50039e-20 0)
(-0.0025 1.18211e-19 0)
(-0.0025 -1.89809e-20 0)
(-0.0025 3.96858e-20 0)
(-0.0025 -2.43757e-16 0)
(-0.0025 5.16403e-17 0)
(-0.0025 -1.29764e-17 0)
(-0.0025 2.1677e-18 0)
(-0.0025 -8.05479e-19 0)
(-0.0025 -1.86146e-19 0)
(-0.0025 -2.38605e-19 0)
(-0.0025 -3.51289e-19 0)
(-0.0025 -2.49243e-19 0)
(-0.0025 1.15018e-19 0)
(-0.0025 3.81226e-19 0)
(-0.0025 6.53301e-19 0)
(-0.0025 5.64857e-19 0)
(-0.0025 -1.79616e-19 0)
(-0.0025 -7.57247e-19 0)
(-0.0025 -6.38059e-19 0)
(-0.0025 -3.83092e-19 0)
(-0.0025 -2.61008e-19 0)
(-0.0025 -8.6885e-20 0)
(-0.0025 4.3881e-20 0)
(-0.0025 -5.6874e-17 0)
(-0.0025 1.34197e-17 0)
(-0.0025 -3.27368e-18 0)
(-0.0025 2.86853e-19 0)
(-0.0025 -5.00968e-19 0)
(-0.0025 2.08114e-19 0)
(-0.0025 2.68036e-19 0)
(-0.0025 -1.93725e-20 0)
(-0.0025 1.09783e-19 0)
(-0.0025 2.99328e-19 0)
(-0.0025 -3.54733e-20 0)
(-0.0025 -1.77945e-20 0)
(-0.0025 3.04052e-19 0)
(-0.0025 2.28414e-19 0)
(-0.0025 -1.98355e-19 0)
(-0.0025 -5.39014e-19 0)
(-0.0025 -4.31143e-19 0)
(-0.0025 -3.72767e-19 0)
(-0.0025 -1.66505e-19 0)
(-0.0025 1.44546e-20 0)
(-0.0025 2.95414e-16 0)
(-0.0025 -6.43404e-17 0)
(-0.0025 1.52744e-17 0)
(-0.0025 -3.59567e-18 0)
(-0.0025 5.3139e-19 0)
(-0.0025 -9.49919e-20 0)
(-0.0025 -1.56328e-20 0)
(-0.0025 -3.67974e-19 0)
(-0.0025 -2.83537e-19 0)
(-0.0025 -4.0854e-20 0)
(-0.0025 7.18995e-20 0)
(-0.0025 1.94954e-20 0)
(-0.0025 1.34953e-19 0)
(-0.0025 3.40278e-19 0)
(-0.0025 2.48687e-19 0)
(-0.0025 -1.6836e-19 0)
(-0.0025 -1.84954e-19 0)
(-0.0025 -1.60932e-20 0)
(-0.0025 3.79648e-20 0)
(-0.0025 2.40545e-20 0)
(-0.0025 -1.22909e-16 0)
(-0.0025 2.55428e-17 0)
(-0.0025 -6.59198e-18 0)
(-0.0025 1.05067e-18 0)
(-0.0025 -3.35026e-19 0)
(-0.0025 1.59414e-19 0)
(-0.0025 -1.21516e-19 0)
(-0.0025 -3.44478e-19 0)
(-0.0025 -5.48997e-19 0)
(-0.0025 -4.0121e-19 0)
(-0.0025 5.01613e-20 0)
(-0.0025 1.76172e-19 0)
(-0.0025 -4.17373e-20 0)
(-0.0025 -1.69835e-19 0)
(-0.0025 -2.20211e-19 0)
(-0.0025 -2.17618e-19 0)
(-0.0025 -3.76316e-19 0)
(-0.0025 -1.32283e-19 0)
(-0.0025 4.68591e-21 0)
(-0.0025 -5.70491e-21 0)
(-0.0025 -1.95879e-16 0)
(-0.0025 4.26242e-17 0)
(-0.0025 -1.04604e-17 0)
(-0.0025 2.11041e-18 0)
(-0.0025 -3.78098e-19 0)
(-0.0025 3.80595e-19 0)
(-0.0025 2.29225e-19 0)
(-0.0025 1.70386e-19 0)
(-0.0025 -1.12823e-19 0)
(-0.0025 -2.74227e-19 0)
(-0.0025 -2.55751e-19 0)
(-0.0025 -1.48029e-19 0)
(-0.0025 -1.85521e-19 0)
(-0.0025 -1.72708e-19 0)
(-0.0025 -1.92175e-19 0)
(-0.0025 -9.45853e-20 0)
(-0.0025 -1.81204e-19 0)
(-0.0025 -9.21462e-20 0)
(-0.0025 -6.49484e-20 0)
(-0.0025 1.78687e-20 0)
)
;

boundaryField
{
    movingWall
    {
        type            calculated;
        value           uniform (-0.0025 -0 -0);
    }
    fixedWalls
    {
        type            calculated;
        value           uniform (-0.0025 -0 -0);
    }
    frontAndBack
    {
        type            empty;
    }
}


// ************************************************************************* //
