/*--------------------------------*- C++ -*----------------------------------*\
| =========                 |                                                 |
| \\      /  F ield         | OpenFOAM: The Open Source CFD Toolbox           |
|  \\    /   O peration     | Version:  2506                                  |
|   \\  /    A nd           | Website:  www.openfoam.com                      |
|    \\/     M anipulation  |                                                 |
\*---------------------------------------------------------------------------*/
FoamFile
{
    version     2.0;
    format      ascii;
    arch        "LSB;label=32;scalar=64";
    class       volScalarField;
    location    "7";
    object      P_A;
}
// * * * * * * * * * * * * * * * * * * * * * * * * * * * * * * * * * * * * * //

dimensions      [1 -1 -3 0 0 0 0];

internalField   nonuniform List<scalar> 
400
(
2.24101e-32
2.241e-32
2.241e-32
2.24099e-32
2.24099e-32
2.24098e-32
2.24099e-32
2.24098e-32
2.24098e-32
2.24097e-32
2.24097e-32
2.24097e-32
2.24097e-32
2.24097e-32
2.24097e-32
2.24097e-32
2.24097e-32
2.24097e-32
2.24097e-32
2.24097e-32
2.53688e-32
2.50007e-32
2.50282e-32
2.50404e-32
2.50638e-32
2.50761e-32
2.50999e-32
2.51128e-32
2.51369e-32
2.51503e-32
2.51748e-32
2.51887e-32
2.52134e-32
2.52279e-32
2.5253e-32
2.5268e-32
2.52933e-32
2.53089e-32
2.53217e-32
2.53425e-32
3.03288e-32
2.98712e-32
2.99063e-32
2.99212e-32
2.99509e-32
2.9966e-32
2.99962e-32
3.00117e-32
3.00424e-32
3.00583e-32
3.00894e-32
3.01058e-32
3.01371e-32
3.01544e-32
3.01857e-32
3.02038e-32
3.02353e-32
3.0254e-32
3.02698e-32
3.02953e-32
3.58345e-32
3.52822e-32
3.53243e-32
3.53424e-32
3.5378e-32
3.53963e-32
3.54326e-32
3.54512e-32
3.54883e-32
3.55073e-32
3.55449e-32
3.55646e-32
3.56025e-32
3.56231e-32
3.56611e-32
3.56827e-32
3.57208e-32
3.57433e-32
3.57624e-32
3.57931e-32
4.0611e-32
3.99744e-32
4.00228e-32
4.00435e-32
4.00845e-32
4.01056e-32
4.01472e-32
4.01689e-32
4.02112e-32
4.02335e-32
4.02764e-32
4.02995e-32
4.03426e-32
4.03669e-32
4.04102e-32
4.04354e-32
4.0479e-32
4.05051e-32
4.05271e-32
4.05625e-32
4.41127e-32
4.34134e-32
4.34664e-32
4.34892e-32
4.35339e-32
4.35573e-32
4.36028e-32
4.36266e-32
4.36732e-32
4.36974e-32
4.37448e-32
4.37699e-32
4.38176e-32
4.38438e-32
4.38917e-32
4.3919e-32
4.39673e-32
4.39958e-32
4.402e-32
4.40588e-32
4.64236e-32
4.56825e-32
4.57385e-32
4.57627e-32
4.58101e-32
4.58346e-32
4.58832e-32
4.5908e-32
4.59577e-32
4.5983e-32
4.60334e-32
4.60599e-32
4.61105e-32
4.61383e-32
4.6189e-32
4.62181e-32
4.62691e-32
4.62993e-32
4.63249e-32
4.63661e-32
4.7886e-32
4.71182e-32
4.71765e-32
4.72013e-32
4.72506e-32
4.72759e-32
4.73261e-32
4.7352e-32
4.74031e-32
4.74298e-32
4.74815e-32
4.75091e-32
4.75614e-32
4.75903e-32
4.76427e-32
4.7673e-32
4.77257e-32
4.77571e-32
4.77836e-32
4.78263e-32
4.88379e-32
4.80527e-32
4.81123e-32
4.81376e-32
4.8188e-32
4.82138e-32
4.82652e-32
4.82915e-32
4.8344e-32
4.8371e-32
4.84242e-32
4.84523e-32
4.85057e-32
4.85353e-32
4.85889e-32
4.86198e-32
4.86737e-32
4.87058e-32
4.8733e-32
4.87766e-32
4.95211e-32
4.87235e-32
4.8784e-32
4.88097e-32
4.88609e-32
4.88872e-32
4.89393e-32
4.89661e-32
4.90193e-32
4.90468e-32
4.91007e-32
4.91294e-32
4.91835e-32
4.92137e-32
4.9268e-32
4.92995e-32
4.93542e-32
4.93868e-32
4.94144e-32
4.94587e-32
5.00855e-32
4.92776e-32
4.93389e-32
4.93649e-32
4.94168e-32
4.94433e-32
4.94962e-32
4.95233e-32
4.95772e-32
4.9605e-32
4.96597e-32
4.96887e-32
4.97436e-32
4.97741e-32
4.98291e-32
4.9861e-32
4.99164e-32
4.99495e-32
4.99774e-32
5.00223e-32
5.06181e-32
4.98006e-32
4.98624e-32
4.9889e-32
4.99412e-32
4.99685e-32
5.00215e-32
5.00494e-32
5.01036e-32
5.01319e-32
5.01872e-32
5.02165e-32
5.02722e-32
5.03027e-32
5.03588e-32
5.03907e-32
5.04471e-32
5.04804e-32
5.05087e-32
5.05541e-32
5.117e-32
5.03426e-32
5.0405e-32
5.04319e-32
5.04848e-32
5.05122e-32
5.05662e-32
5.05941e-32
5.06492e-32
5.06776e-32
5.07337e-32
5.07633e-32
5.08197e-32
5.08507e-32
5.09074e-32
5.09398e-32
5.09968e-32
5.10305e-32
5.10591e-32
5.11051e-32
5.17725e-32
5.09341e-32
5.09972e-32
5.10246e-32
5.10782e-32
5.11057e-32
5.11607e-32
5.11885e-32
5.12448e-32
5.12734e-32
5.13304e-32
5.13603e-32
5.14175e-32
5.14488e-32
5.15063e-32
5.1539e-32
5.15968e-32
5.1631e-32
5.166e-32
5.17066e-32
5.24434e-32
5.1593e-32
5.16567e-32
5.16848e-32
5.17389e-32
5.17674e-32
5.18223e-32
5.18518e-32
5.19074e-32
5.19379e-32
5.19942e-32
5.20258e-32
5.20828e-32
5.21155e-32
5.2173e-32
5.22069e-32
5.2265e-32
5.22999e-32
5.23292e-32
5.23765e-32
5.31842e-32
5.23199e-32
5.23853e-32
5.24132e-32
5.24686e-32
5.2497e-32
5.25536e-32
5.25824e-32
5.26402e-32
5.26697e-32
5.27284e-32
5.27592e-32
5.28181e-32
5.28504e-32
5.29097e-32
5.29434e-32
5.3003e-32
5.30382e-32
5.30681e-32
5.31161e-32
5.39672e-32
5.30885e-32
5.31549e-32
5.31834e-32
5.32394e-32
5.32686e-32
5.33257e-32
5.33555e-32
5.34137e-32
5.34442e-32
5.35033e-32
5.35351e-32
5.35945e-32
5.36279e-32
5.36876e-32
5.37223e-32
5.37825e-32
5.38185e-32
5.38489e-32
5.38977e-32
5.47221e-32
5.38296e-32
5.38975e-32
5.39258e-32
5.3983e-32
5.40123e-32
5.40705e-32
5.41004e-32
5.41599e-32
5.41906e-32
5.42509e-32
5.4283e-32
5.43435e-32
5.43772e-32
5.4438e-32
5.44732e-32
5.45344e-32
5.45709e-32
5.46017e-32
5.46513e-32
5.53345e-32
5.44489e-32
5.45147e-32
5.45427e-32
5.45987e-32
5.46274e-32
5.46849e-32
5.47142e-32
5.47731e-32
5.48035e-32
5.48633e-32
5.48953e-32
5.49555e-32
5.49894e-32
5.505e-32
5.50856e-32
5.51467e-32
5.51842e-32
5.52149e-32
5.5265e-32
5.56151e-32
5.56149e-32
5.56149e-32
5.56146e-32
5.56147e-32
5.56143e-32
5.56144e-32
5.56142e-32
5.56143e-32
5.56141e-32
5.56142e-32
5.56141e-32
5.56141e-32
5.5614e-32
5.5614e-32
5.5614e-32
5.5614e-32
5.5614e-32
5.5614e-32
5.5614e-32
)
;

boundaryField
{
    movingWall
    {
        type            calculated;
        value           nonuniform List<scalar> 
20
(
5.56151e-32
5.56149e-32
5.56149e-32
5.56146e-32
5.56147e-32
5.56143e-32
5.56144e-32
5.56142e-32
5.56143e-32
5.56141e-32
5.56142e-32
5.56141e-32
5.56141e-32
5.5614e-32
5.5614e-32
5.5614e-32
5.5614e-32
5.5614e-32
5.5614e-32
5.5614e-32
)
;
    }
    fixedWalls
    {
        type            calculated;
        value           nonuniform List<scalar> 
60
(
2.24101e-32
2.53688e-32
3.03288e-32
3.58345e-32
4.0611e-32
4.41127e-32
4.64236e-32
4.7886e-32
4.88379e-32
4.95211e-32
5.00855e-32
5.06181e-32
5.117e-32
5.17725e-32
5.24434e-32
5.31842e-32
5.39672e-32
5.47221e-32
5.53345e-32
5.56151e-32
2.24097e-32
2.53425e-32
3.02953e-32
3.57931e-32
4.05625e-32
4.40588e-32
4.63661e-32
4.78263e-32
4.87766e-32
4.94587e-32
5.00223e-32
5.05541e-32
5.11051e-32
5.17066e-32
5.23765e-32
5.31161e-32
5.38977e-32
5.46513e-32
5.5265e-32
5.5614e-32
2.24101e-32
2.241e-32
2.241e-32
2.24099e-32
2.24099e-32
2.24098e-32
2.24099e-32
2.24098e-32
2.24098e-32
2.24097e-32
2.24097e-32
2.24097e-32
2.24097e-32
2.24097e-32
2.24097e-32
2.24097e-32
2.24097e-32
2.24097e-32
2.24097e-32
2.24097e-32
)
;
    }
    frontAndBack
    {
        type            empty;
    }
}


// ************************************************************************* //
