/*--------------------------------*- C++ -*----------------------------------*\
| =========                 |                                                 |
| \\      /  F ield         | OpenFOAM: The Open Source CFD Toolbox           |
|  \\    /   O peration     | Version:  2506                                  |
|   \\  /    A nd           | Website:  www.openfoam.com                      |
|    \\/     M anipulation  |                                                 |
\*---------------------------------------------------------------------------*/
FoamFile
{
    version     2.0;
    format      ascii;
    arch        "LSB;label=32;scalar=64";
    class       surfaceScalarField;
    location    "7";
    object      PecletNoField;
}
// * * * * * * * * * * * * * * * * * * * * * * * * * * * * * * * * * * * * * //

dimensions      [0 0 0 0 0 0 0];

oriented        oriented;

internalField   nonuniform List<scalar> 
760
(
440.664
3.86055e-12
440.664
5.65794e-12
440.664
1.77758e-12
440.664
1.70777e-13
440.664
1.48626e-13
440.664
3.64442e-14
440.664
9.39831e-15
440.664
4.10346e-14
440.664
2.00832e-14
440.664
5.05329e-15
440.664
1.76641e-14
440.664
5.40496e-14
440.664
1.93819e-14
440.664
5.23268e-17
440.664
2.51697e-14
440.664
4.40036e-14
440.664
4.41862e-14
440.664
8.79322e-15
440.664
1.66419e-14
5.89939e-14
439.465
3.54567e-12
439.111
4.65215e-12
439.161
1.37072e-12
439.205
3.14226e-13
439.249
1.4191e-14
439.292
9.81161e-14
439.336
6.60036e-14
439.38
2.40242e-14
439.423
1.86413e-14
439.467
3.99928e-14
439.511
7.04725e-16
439.554
9.76406e-15
439.598
3.52178e-14
439.642
1.78918e-14
439.686
6.39082e-14
439.73
2.30866e-14
439.774
4.41425e-14
439.804
9.29028e-15
439.839
5.24407e-14
7.0793e-14
438.259
1.563e-12
437.886
1.562e-12
437.94
1.97701e-13
437.986
1.08135e-13
438.033
8.69287e-14
438.08
1.09995e-13
438.126
1.41057e-13
438.172
1.82168e-13
438.219
1.05281e-13
438.265
1.13184e-14
438.311
1.2582e-14
438.357
3.98441e-14
438.404
9.79123e-14
438.449
8.92825e-14
438.495
5.12382e-14
438.541
8.50308e-14
438.587
8.78599e-14
438.618
3.38641e-14
438.655
1.9006e-14
4.877e-14
437.118
3.06027e-12
436.731
3.9964e-12
436.787
1.10812e-12
436.835
1.52803e-13
436.884
1.08891e-13
436.932
1.28154e-13
436.981
1.374e-13
437.029
5.02284e-14
437.077
5.21532e-14
437.125
4.00861e-14
437.173
9.14753e-14
437.221
1.13033e-13
437.268
6.71663e-14
437.316
3.70441e-14
437.364
6.46437e-14
437.411
6.98549e-14
437.459
5.27311e-14
437.491
2.55369e-14
437.53
2.82658e-14
2.907e-14
436.249
3.69863e-12
435.851
4.65595e-12
435.908
1.30366e-12
435.958
3.15338e-13
436.008
7.85071e-14
436.058
1.13404e-13
436.108
1.04022e-13
436.157
6.92852e-14
436.207
6.57723e-14
436.256
3.44874e-14
436.305
1.21261e-14
436.355
7.15638e-14
436.404
3.90153e-14
436.453
6.77374e-14
436.502
9.95586e-14
436.551
1.20678e-13
436.6
9.20639e-14
436.633
1.98645e-14
436.673
7.74225e-14
3.714e-14
435.668
1.6133e-12
435.262
2.09201e-12
435.321
6.10201e-13
435.372
9.99809e-14
435.423
1.11049e-14
435.473
2.72048e-14
435.524
5.15857e-14
435.574
6.43464e-14
435.625
3.21371e-14
435.675
1.93832e-14
435.726
3.24503e-14
435.776
6.54806e-15
435.826
1.77684e-14
435.876
5.76729e-14
435.926
8.62507e-14
435.976
4.15891e-14
436.026
3.28044e-14
436.06
1.49449e-14
436.1
3.54924e-14
5.1465e-14
435.307
1.5733e-12
434.896
2.68585e-12
434.955
9.89672e-13
435.007
1.31328e-13
435.059
4.82106e-14
435.11
1.31326e-14
435.161
1.98687e-14
435.212
3.72584e-14
435.264
8.37853e-14
435.314
1.19776e-13
435.365
3.82431e-14
435.416
1.40703e-14
435.467
3.44108e-14
435.517
4.06036e-14
435.568
4.59016e-15
435.618
1.95012e-14
435.669
2.39032e-14
435.703
9.92313e-15
435.744
5.55095e-16
3.80481e-15
435.087
2.60457e-12
434.673
3.73987e-12
434.733
1.37364e-12
434.784
1.55717e-13
434.836
3.88089e-14
434.888
5.08066e-14
434.94
4.52984e-14
434.991
4.22954e-14
435.043
1.85337e-14
435.094
2.91625e-14
435.146
4.96912e-15
435.197
9.07168e-15
435.248
4.05576e-14
435.299
4.72265e-14
435.35
1.02558e-14
435.4
2.74249e-14
435.451
1.75551e-14
435.486
5.1421e-14
435.527
8.18566e-15
9.64545e-15
434.946
7.10499e-13
434.531
1.58655e-12
434.591
7.58163e-13
434.643
6.11734e-14
434.695
2.42162e-14
434.747
3.66469e-14
434.799
2.01523e-14
434.851
3.51761e-14
434.903
2.76251e-14
434.954
2.53048e-14
435.006
4.51578e-14
435.057
7.30204e-14
435.108
2.90536e-14
435.159
9.40759e-15
435.211
6.97086e-14
435.262
4.14754e-14
435.313
1.52841e-14
435.348
8.84462e-14
435.389
2.41524e-14
4.42982e-14
434.847
2.74645e-15
434.431
6.30155e-14
434.491
1.29513e-14
434.543
5.57849e-14
434.595
4.57837e-15
434.647
2.86035e-14
434.7
5.26436e-15
434.751
1.53071e-14
434.804
1.1048e-14
434.855
2.96316e-14
434.907
2.24768e-14
434.958
1.76618e-14
435.01
1.39537e-14
435.061
4.06373e-14
435.113
4.98369e-15
435.164
8.42932e-15
435.215
5.02571e-14
435.25
3.98526e-14
435.291
4.35937e-14
4.23336e-15
434.767
3.85347e-14
434.349
5.13225e-13
434.409
4.59049e-13
434.461
1.76945e-14
434.514
2.44612e-14
434.566
4.54932e-14
434.618
5.10958e-14
434.67
3.31739e-15
434.723
1.61059e-14
434.774
6.40207e-14
434.826
5.25517e-14
434.878
1.17307e-14
434.93
2.15984e-15
434.981
3.30385e-14
435.032
1.59699e-14
435.084
5.82301e-14
435.135
1.78802e-15
435.17
2.14227e-15
435.212
6.71162e-15
2.5331e-15
434.691
5.35506e-13
434.272
1.39571e-12
434.333
8.07675e-13
434.385
1.25167e-13
434.438
3.65321e-14
434.49
1.76999e-14
434.543
1.13645e-14
434.595
1.7658e-14
434.647
7.43248e-15
434.699
4.36081e-14
434.751
1.1597e-14
434.803
1.60936e-14
434.854
3.74573e-15
434.906
1.72312e-14
434.958
1.27306e-14
435.009
5.37556e-14
435.06
7.97062e-14
435.096
3.99868e-14
435.137
3.52696e-14
6.21638e-15
434.614
1.21735e-12
434.194
2.03052e-12
434.254
8.92832e-13
434.307
1.45912e-13
434.36
1.08304e-14
434.412
9.36866e-15
434.465
5.7121e-14
434.517
6.74313e-14
434.57
2.47527e-14
434.622
2.80531e-14
434.674
5.32642e-14
434.725
2.26456e-14
434.777
4.13225e-15
434.829
4.56488e-14
434.881
9.32399e-14
434.932
5.17942e-15
434.984
6.72546e-14
435.019
1.03259e-13
435.061
1.52338e-14
3.97672e-15
434.53
8.2995e-13
434.109
1.24035e-12
434.17
5.61642e-13
434.223
1.35462e-13
434.276
5.27099e-14
434.328
5.07832e-14
434.381
8.57968e-14
434.433
2.526e-14
434.486
3.77803e-14
434.538
5.51436e-14
434.59
1.06069e-13
434.642
4.795e-14
434.694
8.97562e-15
434.746
7.14948e-15
434.798
4.75098e-14
434.85
8.70286e-15
434.901
3.84753e-14
434.937
1.42374e-14
434.978
4.28533e-15
2.03711e-14
434.438
2.21752e-12
434.016
2.3241e-12
434.077
3.83112e-13
434.13
2.02162e-13
434.183
2.49688e-14
434.236
4.60883e-14
434.288
8.43959e-15
434.341
2.18937e-14
434.394
4.21108e-14
434.446
5.63737e-15
434.498
4.56299e-14
434.55
8.84643e-14
434.603
8.04697e-14
434.654
4.66717e-15
434.707
7.76497e-14
434.758
6.79985e-14
434.81
3.53775e-14
434.846
2.93546e-15
434.888
1.441e-14
4.25468e-14
434.338
3.01448e-12
433.914
4.57793e-12
433.975
1.40974e-12
434.028
1.33263e-13
434.082
1.15085e-13
434.134
1.13128e-14
434.188
3.65866e-15
434.24
3.34284e-14
434.293
2.36453e-15
434.346
5.12129e-14
434.398
2.46566e-14
434.45
5.67951e-14
434.503
1.03532e-13
434.555
6.84003e-15
434.607
8.54734e-14
434.659
1.04088e-13
434.711
7.71454e-14
434.747
7.69576e-14
434.789
1.80728e-14
3.07024e-14
434.233
2.62855e-12
433.808
3.36244e-12
433.87
1.07815e-12
433.923
2.11573e-13
433.976
2.6751e-14
434.029
3.47015e-16
434.082
1.22322e-14
434.135
3.26559e-14
434.188
8.80823e-15
434.241
4.87807e-14
434.294
2.13452e-14
434.346
8.4349e-15
434.399
1.1458e-14
434.451
4.42595e-14
434.503
9.13815e-15
434.555
6.42037e-14
434.608
3.64557e-14
434.643
1.77214e-14
434.686
2.70471e-14
2.62886e-14
434.134
3.11957e-12
433.708
3.4467e-12
433.769
7.32823e-13
433.823
2.0603e-13
433.876
4.33281e-14
433.929
3.48772e-14
433.983
1.2409e-14
434.036
6.82875e-14
434.089
8.55604e-14
434.141
7.46669e-14
434.194
4.71358e-15
434.247
1.82435e-14
434.3
8.23621e-15
434.352
2.09892e-14
434.405
2.41222e-14
434.457
2.22375e-14
434.509
6.27714e-14
434.545
2.815e-14
434.587
1.25919e-14
5.30209e-15
434.063
3.77918e-12
433.644
5.41185e-12
433.703
1.48204e-12
433.755
2.12835e-13
433.807
7.94586e-14
433.858
2.78991e-14
433.911
1.20461e-15
433.962
2.4855e-15
434.014
5.69314e-14
434.066
5.22949e-14
434.118
1.20645e-14
434.17
7.25638e-15
434.222
1.38088e-14
434.274
2.19759e-14
434.326
5.57322e-14
434.378
3.41203e-14
434.43
5.11702e-14
434.466
7.59729e-15
434.508
7.46512e-18
1.33427e-15
434.49
434.49
434.49
434.49
434.49
434.49
434.49
434.49
434.49
434.49
434.49
434.49
434.49
434.49
434.49
434.49
434.49
434.49
434.49
)
;

boundaryField
{
    movingWall
    {
        type            calculated;
        value           uniform 0;
    }
    fixedWalls
    {
        type            calculated;
        value           nonuniform List<scalar> 
60
(
250
250
250
250
250
250
250
250
250
250
250
250
250
250
250
250
250
250
250
250
250
250
250
250
250
250
250
250
250
250
250
250
250
250
250
250
250
250
250
250
0
0
0
0
0
0
0
0
0
0
0
0
0
0
0
0
0
0
0
0
)
;
    }
    frontAndBack
    {
        type            empty;
    }
}


// ************************************************************************* //
