/*--------------------------------*- C++ -*----------------------------------*\
| =========                 |                                                 |
| \\      /  F ield         | OpenFOAM: The Open Source CFD Toolbox           |
|  \\    /   O peration     | Version:  2506                                  |
|   \\  /    A nd           | Website:  www.openfoam.com                      |
|    \\/     M anipulation  |                                                 |
\*---------------------------------------------------------------------------*/
FoamFile
{
    version     2.0;
    format      ascii;
    arch        "LSB;label=32;scalar=64";
    class       surfaceScalarField;
    location    "7";
    object      phi;
}
// * * * * * * * * * * * * * * * * * * * * * * * * * * * * * * * * * * * * * //

dimensions      [0 3 -1 0 0 0 0];

oriented        oriented;

internalField   nonuniform List<scalar> 
760
(
-5e-05
4.38441e-19
-5e-05
-6.4314e-19
-5e-05
2.02042e-19
-5e-05
-1.94101e-20
-5e-05
1.68913e-20
-5e-05
4.14174e-21
-5e-05
1.06801e-21
-5e-05
-4.66296e-21
-5e-05
-2.28199e-21
-5e-05
-5.74171e-22
-5e-05
-2.00693e-21
-5e-05
6.14068e-21
-5e-05
2.20187e-21
-5e-05
5.94436e-24
-5e-05
2.85912e-21
-5e-05
4.99833e-21
-5e-05
5.01877e-21
-5e-05
9.98715e-22
-5e-05
-1.89009e-21
6.69986e-21
-5e-05
-4.03594e-19
-5e-05
5.30509e-19
-5e-05
-1.56284e-19
-5e-05
3.58244e-20
-5e-05
1.61767e-21
-5e-05
1.11837e-20
-5e-05
7.52238e-21
-5e-05
2.73783e-21
-5e-05
-2.1241e-21
-5e-05
-4.55669e-21
-5e-05
-8.02841e-23
-5e-05
1.11227e-21
-5e-05
4.01129e-21
-5e-05
2.03772e-21
-5e-05
-7.27762e-21
-5e-05
-2.62881e-21
-5e-05
5.02576e-21
-5e-05
1.05765e-21
-5e-05
-5.96969e-21
-8.05805e-21
-5e-05
-1.78381e-19
-5e-05
1.78609e-19
-5e-05
-2.26023e-20
-5e-05
1.23617e-20
-5e-05
9.93603e-21
-5e-05
1.25716e-20
-5e-05
1.61194e-20
-5e-05
2.08159e-20
-5e-05
1.20285e-20
-5e-05
-1.29305e-21
-5e-05
1.43721e-21
-5e-05
-4.55093e-21
-5e-05
-1.11818e-20
-5e-05
-1.01955e-20
-5e-05
-5.85029e-21
-5e-05
-9.70791e-21
-5e-05
-1.00296e-20
-5e-05
-3.86542e-21
-5e-05
-2.1693e-21
-5.56589e-21
-5e-05
3.50052e-19
-5e-05
-4.5804e-19
-5e-05
1.26982e-19
-5e-05
-1.75087e-20
-5e-05
1.24752e-20
-5e-05
1.4681e-20
-5e-05
1.57379e-20
-5e-05
5.75275e-21
-5e-05
5.97232e-21
-5e-05
4.5901e-21
-5e-05
-1.0473e-20
-5e-05
-1.29401e-20
-5e-05
-7.68813e-21
-5e-05
-4.23988e-21
-5e-05
-7.39775e-21
-5e-05
-7.99347e-21
-5e-05
-6.03316e-21
-5e-05
-2.92153e-21
-5e-05
-3.2335e-21
3.32514e-21
-5e-05
-4.23764e-19
-5e-05
5.34534e-19
-5e-05
-1.49641e-19
-5e-05
3.61933e-20
-5e-05
9.00935e-21
-5e-05
1.3013e-20
-5e-05
1.19346e-20
-5e-05
7.9486e-21
-5e-05
7.54446e-21
-5e-05
3.95558e-21
-5e-05
-1.39061e-21
-5e-05
-8.20624e-21
-5e-05
-4.47324e-21
-5e-05
-7.76569e-21
-5e-05
-1.14122e-20
-5e-05
-1.38318e-20
-5e-05
-1.05507e-20
-5e-05
2.27631e-21
-5e-05
8.87136e-21
4.25516e-21
-5e-05
1.85038e-19
-5e-05
-2.4044e-19
-5e-05
7.01185e-20
-5e-05
-1.1488e-20
-5e-05
1.27577e-21
-5e-05
3.12514e-21
-5e-05
5.92496e-21
-5e-05
7.39002e-21
-5e-05
3.6903e-21
-5e-05
2.22559e-21
-5e-05
-3.72541e-21
-5e-05
7.51677e-22
-5e-05
-2.0394e-21
-5e-05
-6.61895e-21
-5e-05
-9.8973e-21
-5e-05
-4.77196e-21
-5e-05
-3.76345e-21
-5e-05
-1.7144e-21
-5e-05
4.07119e-21
5.90267e-21
-5e-05
1.80568e-19
-5e-05
-3.08902e-19
-5e-05
1.13801e-19
-5e-05
-1.51e-20
-5e-05
5.54234e-21
-5e-05
1.50961e-21
-5e-05
2.28359e-21
-5e-05
4.2819e-21
-5e-05
9.6275e-21
-5e-05
1.37619e-20
-5e-05
4.39336e-21
-5e-05
-1.61626e-21
-5e-05
-3.95219e-21
-5e-05
-4.66305e-21
-5e-05
-5.27072e-22
-5e-05
-2.23906e-21
-5e-05
2.74408e-21
-5e-05
1.13907e-21
-5e-05
6.37146e-23
-4.36671e-22
-5e-05
-2.9905e-19
-5e-05
4.30306e-19
-5e-05
-1.58019e-19
-5e-05
1.79117e-20
-5e-05
-4.46337e-21
-5e-05
5.84275e-21
-5e-05
5.20849e-21
-5e-05
4.86281e-21
-5e-05
2.13053e-21
-5e-05
-3.35208e-21
-5e-05
5.71089e-22
-5e-05
1.0425e-21
-5e-05
-4.66008e-21
-5e-05
-5.42588e-21
-5e-05
-1.17812e-21
-5e-05
3.15012e-21
-5e-05
2.01615e-21
-5e-05
5.90502e-21
-5e-05
9.39945e-22
1.10744e-21
-5e-05
8.15996e-20
-5e-05
-1.82597e-19
-5e-05
8.72407e-20
-5e-05
-7.03858e-21
-5e-05
2.78585e-21
-5e-05
-4.21556e-21
-5e-05
2.31778e-21
-5e-05
4.04539e-21
-5e-05
3.17651e-21
-5e-05
-2.90946e-21
-5e-05
5.19129e-21
-5e-05
8.39364e-21
-5e-05
3.33919e-21
-5e-05
1.08114e-21
-5e-05
8.00985e-21
-5e-05
4.76531e-21
-5e-05
-1.7558e-21
-5e-05
-1.01596e-20
-5e-05
2.77413e-21
5.08747e-21
-5e-05
3.15489e-22
-5e-05
-7.25405e-21
-5e-05
1.4906e-21
-5e-05
6.41992e-21
-5e-05
-5.26809e-22
-5e-05
-3.291e-21
-5e-05
-6.05599e-22
-5e-05
1.76074e-21
-5e-05
-1.27063e-21
-5e-05
3.40765e-21
-5e-05
2.58444e-21
-5e-05
-2.03063e-21
-5e-05
1.60406e-21
-5e-05
4.67108e-21
-5e-05
-5.72768e-22
-5e-05
-9.68684e-22
-5e-05
5.77461e-21
-5e-05
4.57872e-21
-5e-05
-5.00817e-21
-4.86283e-22
-5e-05
4.42733e-21
-5e-05
5.90908e-20
-5e-05
-5.28428e-20
-5e-05
2.03672e-21
-5e-05
-2.81514e-21
-5e-05
-5.2352e-21
-5e-05
-5.87899e-21
-5e-05
3.81662e-22
-5e-05
-1.85268e-21
-5e-05
-7.36373e-21
-5e-05
-6.04362e-21
-5e-05
1.34896e-21
-5e-05
2.4833e-22
-5e-05
3.79831e-21
-5e-05
1.83572e-21
-5e-05
6.6929e-21
-5e-05
-2.05482e-22
-5e-05
-2.46171e-22
-5e-05
-7.71187e-22
2.91027e-22
-5e-05
6.1536e-20
-5e-05
-1.60725e-19
-5e-05
9.29909e-20
-5e-05
-1.44098e-20
-5e-05
-4.20507e-21
-5e-05
-2.03721e-21
-5e-05
-1.30781e-21
-5e-05
-2.03188e-21
-5e-05
-8.55114e-22
-5e-05
5.01673e-21
-5e-05
1.33393e-21
-5e-05
-1.85098e-21
-5e-05
4.30745e-22
-5e-05
1.98135e-21
-5e-05
-1.46362e-21
-5e-05
6.17968e-21
-5e-05
9.16157e-21
-5e-05
4.59575e-21
-5e-05
-4.05329e-21
7.14322e-22
-5e-05
-1.39913e-19
-5e-05
2.33873e-19
-5e-05
-1.02815e-19
-5e-05
1.68012e-20
-5e-05
1.24688e-21
-5e-05
-1.07851e-21
-5e-05
-6.57463e-21
-5e-05
-7.7607e-21
-5e-05
-2.84835e-21
-5e-05
3.22786e-21
-5e-05
6.12776e-21
-5e-05
2.60503e-21
-5e-05
4.7528e-22
-5e-05
5.24995e-21
-5e-05
1.07217e-20
-5e-05
5.95529e-22
-5e-05
-7.73177e-21
-5e-05
-1.18699e-20
-5e-05
-1.75103e-21
4.57047e-22
-5e-05
9.54076e-20
-5e-05
-1.42891e-19
-5e-05
6.46895e-20
-5e-05
-1.56011e-20
-5e-05
-6.06961e-21
-5e-05
-5.84727e-21
-5e-05
-9.87722e-21
-5e-05
-2.90777e-21
-5e-05
4.34834e-21
-5e-05
6.34626e-21
-5e-05
1.22051e-20
-5e-05
5.51704e-21
-5e-05
-1.03256e-21
-5e-05
-8.22408e-22
-5e-05
5.46425e-21
-5e-05
-1.00086e-21
-5e-05
-4.42412e-21
-5e-05
1.63695e-21
-5e-05
4.92671e-22
-2.34173e-21
-5e-05
2.54972e-19
-5e-05
-2.67802e-19
-5e-05
4.41365e-20
-5e-05
-2.32883e-20
-5e-05
2.87584e-21
-5e-05
-5.30788e-21
-5e-05
-9.7181e-22
-5e-05
-2.52083e-21
-5e-05
-4.84784e-21
-5e-05
-6.48926e-22
-5e-05
5.25169e-21
-5e-05
1.01808e-20
-5e-05
9.25931e-21
-5e-05
5.36985e-22
-5e-05
-8.93269e-21
-5e-05
-7.82175e-21
-5e-05
-4.06879e-21
-5e-05
-3.3758e-22
-5e-05
-1.65703e-21
4.89197e-21
-5e-05
-3.46689e-19
-5e-05
5.27632e-19
-5e-05
-1.62448e-19
-5e-05
1.5355e-20
-5e-05
-1.32583e-20
-5e-05
-1.30317e-21
-5e-05
4.21391e-22
-5e-05
-3.84984e-21
-5e-05
2.72272e-22
-5e-05
5.89658e-21
-5e-05
2.83848e-21
-5e-05
6.53772e-21
-5e-05
1.19158e-20
-5e-05
7.8717e-22
-5e-05
-9.83501e-21
-5e-05
-1.19759e-20
-5e-05
-8.87464e-21
-5e-05
-8.85224e-21
-5e-05
-2.07871e-21
-3.53093e-21
-5e-05
3.02373e-19
-5e-05
-3.87633e-19
-5e-05
1.24267e-19
-5e-05
-2.43839e-20
-5e-05
-3.08257e-21
-5e-05
3.99839e-23
-5e-05
1.40919e-21
-5e-05
-3.76176e-21
-5e-05
-1.01449e-21
-5e-05
5.61786e-21
-5e-05
2.45785e-21
-5e-05
-9.71175e-22
-5e-05
1.31904e-21
-5e-05
5.0947e-21
-5e-05
1.05173e-21
-5e-05
-7.38869e-21
-5e-05
-4.19475e-21
-5e-05
-2.03892e-21
-5e-05
-3.11165e-21
3.02402e-21
-5e-05
3.5893e-19
-5e-05
-3.97422e-19
-5e-05
8.44814e-20
-5e-05
-2.37496e-20
-5e-05
4.99374e-21
-5e-05
4.01942e-21
-5e-05
1.42984e-21
-5e-05
-7.86786e-21
-5e-05
-9.85644e-21
-5e-05
-8.60079e-21
-5e-05
-5.42868e-22
-5e-05
2.10093e-21
-5e-05
9.48344e-22
-5e-05
2.41655e-21
-5e-05
2.77684e-21
-5e-05
-2.55965e-21
-5e-05
-7.22423e-21
-5e-05
-3.23943e-21
-5e-05
1.44893e-21
-6.10033e-22
-5e-05
-4.34881e-19
-5e-05
6.2342e-19
-5e-05
-1.70708e-19
-5e-05
2.45142e-20
-5e-05
-9.15128e-21
-5e-05
3.21302e-21
-5e-05
-1.38719e-22
-5e-05
-2.8621e-22
-5e-05
-6.55525e-21
-5e-05
-6.02114e-21
-5e-05
-1.38898e-21
-5e-05
8.35386e-22
-5e-05
-1.58961e-21
-5e-05
-2.52966e-21
-5e-05
-6.41487e-21
-5e-05
-3.92713e-21
-5e-05
-5.88907e-21
-5e-05
-8.74317e-22
-5e-05
8.59075e-25
-1.53537e-22
-5e-05
-5e-05
-5e-05
-5e-05
-5e-05
-5e-05
-5e-05
-5e-05
-5e-05
-5e-05
-5e-05
-5e-05
-5e-05
-5e-05
-5e-05
-5e-05
-5e-05
-5e-05
-5e-05
)
;

boundaryField
{
    movingWall
    {
        type            calculated;
        value           uniform 0;
    }
    fixedWalls
    {
        type            calculated;
        value           nonuniform List<scalar> 
60
(
5e-05
5e-05
5e-05
5e-05
5e-05
5e-05
5e-05
5e-05
5e-05
5e-05
5e-05
5e-05
5e-05
5e-05
5e-05
5e-05
5e-05
5e-05
5e-05
5e-05
-5e-05
-5e-05
-5e-05
-5e-05
-5e-05
-5e-05
-5e-05
-5e-05
-5e-05
-5e-05
-5e-05
-5e-05
-5e-05
-5e-05
-5e-05
-5e-05
-5e-05
-5e-05
-5e-05
-5e-05
0
0
0
0
0
0
0
0
0
0
0
0
0
0
0
0
0
0
0
0
)
;
    }
    frontAndBack
    {
        type            empty;
    }
}


// ************************************************************************* //
