/*--------------------------------*- C++ -*----------------------------------*\
| =========                 |                                                 |
| \\      /  F ield         | OpenFOAM: The Open Source CFD Toolbox           |
|  \\    /   O peration     | Version:  2506                                  |
|   \\  /    A nd           | Website:  www.openfoam.com                      |
|    \\/     M anipulation  |                                                 |
\*---------------------------------------------------------------------------*/
FoamFile
{
    version     2.0;
    format      ascii;
    arch        "LSB;label=32;scalar=64";
    class       volScalarField;
    location    "7";
    object      QField;
}
// * * * * * * * * * * * * * * * * * * * * * * * * * * * * * * * * * * * * * //

dimensions      [0 0 -2 0 0 0 0];

internalField   nonuniform List<scalar> 
400
(
-2.71367e-23
-8.64245e-24
-4.5597e-25
4.27403e-26
-1.00144e-26
0
-2.9889e-28
-7.09128e-28
-3.49569e-28
-1.64507e-28
0
-4.17298e-28
-2.95606e-28
5.37086e-28
4.16975e-28
0
-1.37523e-27
-4.49147e-28
8.45934e-30
-9.14345e-29
-5.16968e-23
-1.59765e-23
-9.39867e-25
-1.64166e-27
-3.85996e-27
-1.31521e-27
-2.67828e-27
-8.81686e-28
2.04483e-28
1.17319e-27
2.72273e-27
9.83608e-28
-1.48501e-27
0
-1.15168e-27
5.16912e-28
0
1.95969e-28
-3.79499e-28
-9.8151e-28
-5.30888e-23
-1.77438e-23
-3.45217e-25
3.72575e-27
-7.58465e-28
-1.04528e-27
-1.97589e-27
-4.97055e-28
-2.52819e-27
4.65509e-28
9.46077e-29
-6.39664e-28
-5.95362e-28
-4.65449e-30
8.17421e-28
-9.85712e-28
-4.08361e-27
6.92427e-28
6.09308e-28
-7.21358e-28
-5.23867e-23
-1.55934e-23
-5.41562e-25
2.46341e-26
-7.87469e-27
3.87658e-28
-4.81884e-28
-1.28871e-28
2.87869e-27
4.00715e-27
1.48697e-27
1.32724e-27
-6.69268e-28
-3.87205e-28
2.2326e-28
6.41844e-28
-1.68052e-28
0
5.91739e-28
-1.24657e-27
-4.97948e-23
-1.37034e-23
-8.01917e-25
-3.03038e-26
1.54894e-27
-5.01455e-29
1.85401e-27
1.2846e-27
0
1.67117e-27
1.16399e-27
-3.89998e-28
2.94454e-28
3.69285e-28
-4.19513e-30
-2.78491e-28
1.32661e-27
6.77029e-28
0
-1.0083e-27
-4.97574e-23
-1.43986e-23
-4.98786e-25
-1.69331e-26
6.22206e-27
-3.0525e-27
0
2.6555e-28
8.07617e-28
2.84386e-28
7.35748e-28
-1.16536e-27
4.90664e-28
4.27427e-28
0
-6.49688e-28
6.12939e-28
1.44679e-27
1.58858e-28
-6.73858e-28
-3.37957e-23
-1.29724e-23
9.74865e-26
3.56077e-27
0
-9.94946e-28
1.64114e-27
7.87192e-28
9.48385e-28
-5.83863e-28
-6.51215e-28
0
0
-5.19806e-29
-1.27514e-27
0
-1.15324e-27
0
-8.95153e-28
2.35138e-28
-1.23807e-23
-5.93555e-24
-4.68784e-25
4.98395e-26
-1.55012e-27
8.63753e-28
0
1.35115e-28
-8.81332e-28
-3.82271e-27
0
0
-1.09558e-28
4.19912e-28
2.4563e-28
2.68059e-28
5.39506e-28
0
0
9.02822e-30
-1.02606e-23
-5.32978e-24
-2.06313e-25
3.38618e-26
-3.56245e-27
-7.17977e-28
-6.97076e-29
2.49728e-28
7.25566e-28
-2.6701e-29
9.1791e-28
-5.84321e-28
-4.0043e-28
-2.41287e-28
-5.89891e-29
0
0
-1.63302e-27
0
3.28393e-28
1.25365e-24
-4.47024e-24
6.7866e-25
-1.33459e-26
3.34253e-27
-7.55119e-28
1.36359e-27
1.8741e-29
-3.94876e-28
6.57e-29
8.02327e-29
-1.06475e-27
-7.65587e-29
-1.3536e-28
-7.43523e-28
1.08652e-28
6.86458e-28
-1.20623e-28
-8.06664e-28
4.00937e-29
1.70223e-23
1.76091e-25
7.48385e-25
-4.77046e-26
2.11835e-26
-2.92916e-27
-8.1235e-28
-3.03543e-28
-2.54967e-28
-3.1727e-30
-6.09498e-28
1.24222e-28
-7.20785e-28
9.77419e-29
1.36372e-28
-2.85105e-28
1.66674e-28
4.87419e-30
-1.01704e-29
3.75477e-28
1.22605e-23
1.56478e-24
6.01598e-27
2.97156e-26
1.24192e-27
-8.75586e-28
3.20011e-28
-2.72596e-28
-8.56017e-29
-9.12479e-28
-6.51372e-28
4.20356e-28
2.82963e-28
-3.4474e-29
6.67871e-28
2.80581e-28
-4.6085e-28
-6.62777e-28
0
0
5.77333e-24
2.82654e-25
-8.38692e-26
2.33581e-26
1.7123e-27
-4.06222e-28
-3.74691e-28
0
1.65365e-27
9.83589e-28
-8.80802e-28
-2.34443e-28
3.09797e-28
4.59445e-28
-6.67414e-28
-1.13158e-27
1.20603e-28
-1.01674e-27
1.24179e-29
0
-7.37065e-24
-3.68008e-24
-1.36314e-25
0
1.21897e-27
-6.37013e-28
1.35436e-28
-3.4159e-28
-1.91088e-28
0
2.39533e-28
1.20153e-27
0
-1.21122e-28
3.97411e-28
3.80751e-27
3.60799e-28
-5.81642e-28
0
-1.10923e-28
-2.70557e-23
-1.03162e-23
1.68818e-26
-1.87792e-26
8.9239e-27
-1.78892e-27
7.25445e-28
5.89785e-28
0
1.02495e-27
7.32143e-28
0
-2.60618e-27
-1.92813e-28
-4.17713e-27
-9.28968e-28
2.72124e-28
0
-5.84051e-30
-7.01381e-29
-3.66399e-23
-1.3392e-23
-1.53018e-25
-1.574e-26
3.79335e-27
-1.22921e-27
1.28912e-28
1.78329e-29
-1.55677e-27
-1.00822e-27
-1.65358e-27
-4.62359e-28
3.53759e-27
5.73371e-27
1.49114e-27
-1.74965e-27
-4.08799e-28
-1.06464e-27
0
0
-4.01432e-23
-1.23833e-23
-8.51171e-25
-1.20247e-26
-8.5369e-29
0
-2.46641e-28
0
3.45536e-28
6.29949e-28
1.03148e-27
-1.05529e-27
-1.19915e-27
5.25752e-28
5.73459e-28
2.52389e-28
-2.14822e-28
-8.17996e-28
1.35362e-28
2.14959e-29
-5.10005e-23
-1.69971e-23
-2.52645e-25
-4.54688e-26
1.12064e-26
-1.77925e-27
-5.91936e-28
-5.80925e-28
3.49743e-28
-7.37112e-28
6.54309e-29
-5.2113e-30
1.01627e-27
3.69933e-28
-1.10293e-27
-8.18614e-28
4.62022e-29
7.63156e-28
0
-6.72415e-29
-5.46239e-23
-1.61561e-23
-6.21921e-25
-5.12841e-26
2.87915e-27
-1.15744e-27
2.16991e-27
1.14999e-27
1.22457e-28
-1.29922e-27
0
1.99273e-28
4.02825e-28
-7.25357e-28
-4.26178e-28
-7.99866e-29
-9.25202e-29
8.26167e-28
0
0
-2.51107e-23
-6.97391e-24
-5.84799e-25
7.50397e-27
-2.64864e-27
1.9024e-27
-3.44687e-28
-1.11255e-27
-2.39919e-27
0
0
0
-2.46394e-28
-1.44269e-29
8.47004e-29
-3.26597e-28
-6.0182e-28
-2.52089e-28
0
0
)
;

boundaryField
{
    movingWall
    {
        type            calculated;
        value           nonuniform List<scalar> 
20
(
4.43836e-24
3.25657e-24
-1.0403e-24
1.34125e-25
-2.00764e-26
8.1235e-27
-2.48773e-27
-4.2532e-27
-4.92754e-27
-1.01556e-27
8.9669e-28
4.99011e-28
-9.79925e-28
-3.54555e-29
2.77546e-28
-3.90711e-28
-7.81515e-28
-4.13023e-28
0
0
)
;
    }
    fixedWalls
    {
        type            calculated;
        value           nonuniform List<scalar> 
60
(
-1.54081e-22
-2.87304e-22
-2.78791e-22
-2.68181e-22
-2.61471e-22
-2.59174e-22
-1.74579e-22
-8.95773e-23
-7.3286e-23
2.93426e-24
8.33918e-23
4.78666e-23
1.24828e-23
-4.70503e-23
-1.39458e-22
-1.97934e-22
-2.26897e-22
-2.62113e-22
-2.86338e-22
-1.37611e-22
-1.49806e-28
-1.60811e-27
-1.3919e-27
-1.82604e-27
-1.69946e-27
-1.04388e-27
1.01068e-27
-1.02643e-28
5.71535e-28
8.74448e-28
-5.16647e-29
0
0
-9.0249e-29
-2.29829e-28
0
3.52189e-29
-1.0432e-28
0
0
1.22639e-23
9.3737e-24
-2.34048e-24
2.72665e-25
-5.19657e-26
6.00611e-27
1.47442e-28
1.74275e-27
7.13024e-29
-5.6757e-28
-1.99162e-27
-7.37231e-28
1.01506e-28
-1.31994e-27
-1.02476e-27
1.47889e-28
-2.00917e-27
0
1.0629e-28
-3.27168e-28
)
;
    }
    frontAndBack
    {
        type            empty;
    }
}


// ************************************************************************* //
