/*--------------------------------*- C++ -*----------------------------------*\
| =========                 |                                                 |
| \\      /  F ield         | OpenFOAM: The Open Source CFD Toolbox           |
|  \\    /   O peration     | Version:  2506                                  |
|   \\  /    A nd           | Website:  www.openfoam.com                      |
|    \\/     M anipulation  |                                                 |
\*---------------------------------------------------------------------------*/
FoamFile
{
    version     2.0;
    format      ascii;
    arch        "LSB;label=32;scalar=64";
    class       surfaceScalarField;
    location    "7";
    object      surfaceK;
}
// * * * * * * * * * * * * * * * * * * * * * * * * * * * * * * * * * * * * * //

dimensions      [0 2 -2 0 0 0 0];

internalField   nonuniform List<scalar> 
760
(
5.78461e-06
5.87561e-06
5.7846e-06
5.87561e-06
5.7846e-06
5.87546e-06
5.7846e-06
5.87542e-06
5.78459e-06
5.87532e-06
5.78459e-06
5.87528e-06
5.78459e-06
5.87519e-06
5.78459e-06
5.87516e-06
5.78459e-06
5.87508e-06
5.78458e-06
5.87505e-06
5.78458e-06
5.87499e-06
5.78458e-06
5.87497e-06
5.78458e-06
5.87492e-06
5.78458e-06
5.87491e-06
5.78458e-06
5.87487e-06
5.78458e-06
5.87486e-06
5.78458e-06
5.87483e-06
5.78458e-06
5.87483e-06
5.78458e-06
5.87482e-06
5.87482e-06
5.96662e-06
6.10272e-06
5.96647e-06
6.10272e-06
5.96628e-06
6.10241e-06
5.96615e-06
6.10233e-06
5.966e-06
6.10212e-06
5.96587e-06
6.10203e-06
5.96576e-06
6.10185e-06
5.96565e-06
6.10177e-06
5.96555e-06
6.10163e-06
5.96546e-06
6.10156e-06
5.96538e-06
6.10144e-06
5.96531e-06
6.10138e-06
5.96524e-06
6.10129e-06
5.96519e-06
6.10125e-06
5.96515e-06
6.10118e-06
5.96511e-06
6.10116e-06
5.96508e-06
6.10111e-06
5.96507e-06
6.1011e-06
5.96506e-06
6.10108e-06
6.10108e-06
6.23882e-06
6.37159e-06
6.23867e-06
6.37159e-06
6.23846e-06
6.37126e-06
6.2383e-06
6.37116e-06
6.23814e-06
6.37093e-06
6.23801e-06
6.37083e-06
6.23787e-06
6.37064e-06
6.23775e-06
6.37054e-06
6.23764e-06
6.3704e-06
6.23754e-06
6.3703e-06
6.23745e-06
6.3702e-06
6.23737e-06
6.37011e-06
6.2373e-06
6.37003e-06
6.23724e-06
6.36997e-06
6.23719e-06
6.36991e-06
6.23715e-06
6.36987e-06
6.23713e-06
6.36983e-06
6.23711e-06
6.36981e-06
6.2371e-06
6.3698e-06
6.36979e-06
6.50436e-06
6.60766e-06
6.50419e-06
6.60766e-06
6.50396e-06
6.6073e-06
6.50379e-06
6.60719e-06
6.50362e-06
6.60694e-06
6.50347e-06
6.60684e-06
6.50331e-06
6.60663e-06
6.50319e-06
6.60652e-06
6.50306e-06
6.60637e-06
6.50296e-06
6.60626e-06
6.50286e-06
6.60615e-06
6.50277e-06
6.60606e-06
6.5027e-06
6.60597e-06
6.50263e-06
6.60591e-06
6.50258e-06
6.60584e-06
6.50254e-06
6.6058e-06
6.50251e-06
6.60576e-06
6.50249e-06
6.60574e-06
6.50248e-06
6.60572e-06
6.60572e-06
6.71095e-06
6.78104e-06
6.71077e-06
6.78104e-06
6.71053e-06
6.78066e-06
6.71034e-06
6.78055e-06
6.71016e-06
6.78028e-06
6.71e-06
6.78018e-06
6.70984e-06
6.77995e-06
6.70971e-06
6.77985e-06
6.70957e-06
6.77968e-06
6.70946e-06
6.77957e-06
6.70935e-06
6.77945e-06
6.70926e-06
6.77936e-06
6.70918e-06
6.77926e-06
6.70912e-06
6.7792e-06
6.70906e-06
6.77912e-06
6.70902e-06
6.77908e-06
6.70898e-06
6.77903e-06
6.70897e-06
6.77902e-06
6.70896e-06
6.779e-06
6.77899e-06
6.85113e-06
6.89512e-06
6.85093e-06
6.89513e-06
6.85068e-06
6.89472e-06
6.85048e-06
6.89462e-06
6.85029e-06
6.89433e-06
6.85013e-06
6.89423e-06
6.84996e-06
6.894e-06
6.84982e-06
6.89388e-06
6.84968e-06
6.89372e-06
6.84956e-06
6.89359e-06
6.84945e-06
6.89348e-06
6.84936e-06
6.89338e-06
6.84927e-06
6.89329e-06
6.8492e-06
6.89321e-06
6.84914e-06
6.89314e-06
6.8491e-06
6.89309e-06
6.84907e-06
6.89305e-06
6.84905e-06
6.89303e-06
6.84904e-06
6.89301e-06
6.893e-06
6.93912e-06
6.96612e-06
6.93892e-06
6.96612e-06
6.93866e-06
6.96572e-06
6.93846e-06
6.9656e-06
6.93826e-06
6.96532e-06
6.9381e-06
6.9652e-06
6.93792e-06
6.96498e-06
6.93778e-06
6.96485e-06
6.93763e-06
6.96469e-06
6.93751e-06
6.96456e-06
6.9374e-06
6.96444e-06
6.9373e-06
6.96434e-06
6.93722e-06
6.96425e-06
6.93715e-06
6.96417e-06
6.93709e-06
6.9641e-06
6.93704e-06
6.96405e-06
6.93701e-06
6.964e-06
6.93699e-06
6.96398e-06
6.93698e-06
6.96397e-06
6.96396e-06
6.99312e-06
7.01037e-06
6.99292e-06
7.01037e-06
6.99266e-06
7.00997e-06
6.99246e-06
7.00984e-06
6.99226e-06
7.00956e-06
6.99209e-06
7.00944e-06
6.99192e-06
7.00921e-06
6.99177e-06
7.00909e-06
6.99162e-06
7.00892e-06
6.9915e-06
7.0088e-06
6.99138e-06
7.00867e-06
6.99128e-06
7.00856e-06
6.9912e-06
7.00847e-06
6.99112e-06
7.00839e-06
6.99106e-06
7.00832e-06
6.99101e-06
7.00827e-06
6.99098e-06
7.00822e-06
6.99096e-06
7.0082e-06
6.99095e-06
7.00818e-06
7.00818e-06
7.02761e-06
7.03984e-06
7.02741e-06
7.03984e-06
7.02715e-06
7.03943e-06
7.02694e-06
7.0393e-06
7.02674e-06
7.03902e-06
7.02657e-06
7.0389e-06
7.02639e-06
7.03867e-06
7.02624e-06
7.03854e-06
7.02609e-06
7.03837e-06
7.02597e-06
7.03825e-06
7.02585e-06
7.03812e-06
7.02575e-06
7.03802e-06
7.02566e-06
7.03791e-06
7.02559e-06
7.03785e-06
7.02553e-06
7.03776e-06
7.02548e-06
7.03772e-06
7.02544e-06
7.03767e-06
7.02543e-06
7.03765e-06
7.02541e-06
7.03763e-06
7.03763e-06
7.05206e-06
7.06206e-06
7.05186e-06
7.06206e-06
7.05159e-06
7.06165e-06
7.05138e-06
7.06152e-06
7.05118e-06
7.06124e-06
7.051e-06
7.06112e-06
7.05083e-06
7.06089e-06
7.05068e-06
7.06076e-06
7.05053e-06
7.06059e-06
7.0504e-06
7.06046e-06
7.05029e-06
7.06034e-06
7.05018e-06
7.06023e-06
7.0501e-06
7.06013e-06
7.05002e-06
7.06006e-06
7.04996e-06
7.05997e-06
7.04991e-06
7.05994e-06
7.04988e-06
7.05988e-06
7.04986e-06
7.05986e-06
7.04984e-06
7.05984e-06
7.05984e-06
7.07206e-06
7.08142e-06
7.07186e-06
7.08142e-06
7.07159e-06
7.08101e-06
7.07138e-06
7.08088e-06
7.07118e-06
7.0806e-06
7.071e-06
7.08048e-06
7.07082e-06
7.08024e-06
7.07067e-06
7.08012e-06
7.07052e-06
7.07994e-06
7.0704e-06
7.07981e-06
7.07028e-06
7.07969e-06
7.07018e-06
7.07958e-06
7.07009e-06
7.07949e-06
7.07001e-06
7.07941e-06
7.06995e-06
7.07933e-06
7.0699e-06
7.07928e-06
7.06987e-06
7.07923e-06
7.06985e-06
7.07921e-06
7.06984e-06
7.07919e-06
7.07919e-06
7.09078e-06
7.1004e-06
7.09058e-06
7.10041e-06
7.09031e-06
7.09999e-06
7.0901e-06
7.09987e-06
7.0899e-06
7.09957e-06
7.08972e-06
7.09946e-06
7.08954e-06
7.09921e-06
7.08939e-06
7.0991e-06
7.08923e-06
7.09892e-06
7.08911e-06
7.09878e-06
7.08899e-06
7.09867e-06
7.08889e-06
7.09855e-06
7.0888e-06
7.09846e-06
7.08873e-06
7.09838e-06
7.08866e-06
7.09831e-06
7.08861e-06
7.09825e-06
7.08858e-06
7.09821e-06
7.08856e-06
7.09818e-06
7.08855e-06
7.09816e-06
7.09816e-06
7.11003e-06
7.12044e-06
7.10982e-06
7.12045e-06
7.10955e-06
7.12002e-06
7.10934e-06
7.1199e-06
7.10913e-06
7.1196e-06
7.10895e-06
7.11948e-06
7.10877e-06
7.11925e-06
7.10862e-06
7.11911e-06
7.10847e-06
7.11895e-06
7.10834e-06
7.11881e-06
7.10823e-06
7.11869e-06
7.10812e-06
7.11858e-06
7.10803e-06
7.11849e-06
7.10796e-06
7.1184e-06
7.10789e-06
7.11833e-06
7.10785e-06
7.11827e-06
7.10781e-06
7.11823e-06
7.10779e-06
7.1182e-06
7.10778e-06
7.11819e-06
7.11818e-06
7.13086e-06
7.14235e-06
7.13065e-06
7.14236e-06
7.13037e-06
7.14191e-06
7.13017e-06
7.14181e-06
7.12995e-06
7.1415e-06
7.12978e-06
7.14139e-06
7.12959e-06
7.14114e-06
7.12944e-06
7.14102e-06
7.12929e-06
7.14083e-06
7.12916e-06
7.14072e-06
7.12904e-06
7.14057e-06
7.12894e-06
7.14049e-06
7.12885e-06
7.14037e-06
7.12877e-06
7.14031e-06
7.12871e-06
7.14022e-06
7.12866e-06
7.14017e-06
7.12862e-06
7.14012e-06
7.1286e-06
7.1401e-06
7.12859e-06
7.14008e-06
7.14007e-06
7.15385e-06
7.1664e-06
7.15363e-06
7.16641e-06
7.15335e-06
7.16597e-06
7.15315e-06
7.16585e-06
7.15294e-06
7.16555e-06
7.15275e-06
7.16543e-06
7.15258e-06
7.16518e-06
7.15242e-06
7.16507e-06
7.15227e-06
7.16487e-06
7.15214e-06
7.16477e-06
7.15202e-06
7.16461e-06
7.15192e-06
7.16453e-06
7.15182e-06
7.16441e-06
7.15175e-06
7.16434e-06
7.15168e-06
7.16425e-06
7.15163e-06
7.16421e-06
7.15159e-06
7.16416e-06
7.15157e-06
7.16413e-06
7.15156e-06
7.16411e-06
7.16411e-06
7.17896e-06
7.19209e-06
7.17875e-06
7.19209e-06
7.17847e-06
7.19166e-06
7.17826e-06
7.19153e-06
7.17805e-06
7.19124e-06
7.17787e-06
7.19111e-06
7.17768e-06
7.19087e-06
7.17752e-06
7.19074e-06
7.17737e-06
7.19056e-06
7.17724e-06
7.19043e-06
7.17712e-06
7.1903e-06
7.17702e-06
7.19019e-06
7.17692e-06
7.19008e-06
7.17685e-06
7.19001e-06
7.17678e-06
7.18993e-06
7.17673e-06
7.18988e-06
7.1767e-06
7.18983e-06
7.17667e-06
7.18981e-06
7.17666e-06
7.18979e-06
7.18978e-06
7.20522e-06
7.21775e-06
7.20501e-06
7.21774e-06
7.20473e-06
7.21732e-06
7.20451e-06
7.21718e-06
7.2043e-06
7.21689e-06
7.20412e-06
7.21676e-06
7.20393e-06
7.21651e-06
7.20377e-06
7.21639e-06
7.20362e-06
7.2162e-06
7.20349e-06
7.21608e-06
7.20337e-06
7.21594e-06
7.20326e-06
7.21584e-06
7.20317e-06
7.21572e-06
7.20309e-06
7.21566e-06
7.20303e-06
7.21556e-06
7.20298e-06
7.21552e-06
7.20294e-06
7.21546e-06
7.20292e-06
7.21545e-06
7.20291e-06
7.21543e-06
7.21542e-06
7.23027e-06
7.24034e-06
7.23006e-06
7.24034e-06
7.22978e-06
7.23993e-06
7.22956e-06
7.23978e-06
7.22934e-06
7.2395e-06
7.22916e-06
7.23936e-06
7.22897e-06
7.23913e-06
7.22881e-06
7.23899e-06
7.22866e-06
7.23882e-06
7.22852e-06
7.23868e-06
7.22841e-06
7.23856e-06
7.2283e-06
7.23845e-06
7.22821e-06
7.23834e-06
7.22813e-06
7.23826e-06
7.22806e-06
7.23818e-06
7.22801e-06
7.23813e-06
7.22797e-06
7.23808e-06
7.22795e-06
7.23806e-06
7.22794e-06
7.23804e-06
7.23803e-06
7.25041e-06
7.25499e-06
7.25021e-06
7.25499e-06
7.24994e-06
7.25479e-06
7.24972e-06
7.25471e-06
7.24952e-06
7.25457e-06
7.24934e-06
7.2545e-06
7.24915e-06
7.25439e-06
7.249e-06
7.25431e-06
7.24885e-06
7.25424e-06
7.24872e-06
7.25416e-06
7.2486e-06
7.2541e-06
7.24849e-06
7.25404e-06
7.2484e-06
7.25399e-06
7.24832e-06
7.25395e-06
7.24826e-06
7.25391e-06
7.24821e-06
7.25388e-06
7.24817e-06
7.25386e-06
7.24815e-06
7.25385e-06
7.24814e-06
7.25384e-06
7.25384e-06
7.25957e-06
7.25957e-06
7.25956e-06
7.25956e-06
7.25956e-06
7.25955e-06
7.25955e-06
7.25955e-06
7.25955e-06
7.25954e-06
7.25954e-06
7.25954e-06
7.25954e-06
7.25954e-06
7.25954e-06
7.25954e-06
7.25954e-06
7.25954e-06
7.25954e-06
)
;

boundaryField
{
    movingWall
    {
        type            calculated;
        value           nonuniform List<scalar> 
20
(
7.25958e-06
7.25957e-06
7.25957e-06
7.25956e-06
7.25956e-06
7.25955e-06
7.25955e-06
7.25955e-06
7.25955e-06
7.25954e-06
7.25954e-06
7.25954e-06
7.25954e-06
7.25954e-06
7.25954e-06
7.25954e-06
7.25954e-06
7.25954e-06
7.25954e-06
7.25954e-06
)
;
    }
    fixedWalls
    {
        type            calculated;
        value           nonuniform List<scalar> 
60
(
5.78461e-06
5.96661e-06
6.23883e-06
6.50436e-06
6.71095e-06
6.85112e-06
6.93912e-06
6.99312e-06
7.02761e-06
7.05206e-06
7.07206e-06
7.09078e-06
7.11003e-06
7.13086e-06
7.15384e-06
7.17896e-06
7.20522e-06
7.23027e-06
7.25041e-06
7.25958e-06
5.78458e-06
5.96506e-06
6.2371e-06
6.50248e-06
6.70895e-06
6.84903e-06
6.93697e-06
6.99094e-06
7.02541e-06
7.04984e-06
7.06983e-06
7.08854e-06
7.10777e-06
7.12859e-06
7.15156e-06
7.17666e-06
7.2029e-06
7.22794e-06
7.24813e-06
7.25954e-06
5.78461e-06
5.7846e-06
5.78461e-06
5.78459e-06
5.7846e-06
5.78459e-06
5.78459e-06
5.78459e-06
5.78459e-06
5.78458e-06
5.78458e-06
5.78458e-06
5.78458e-06
5.78458e-06
5.78458e-06
5.78458e-06
5.78458e-06
5.78458e-06
5.78458e-06
5.78458e-06
)
;
    }
    frontAndBack
    {
        type            empty;
    }
}


// ************************************************************************* //
