/*--------------------------------*- C++ -*----------------------------------*\
| =========                 |                                                 |
| \\      /  F ield         | OpenFOAM: The Open Source CFD Toolbox           |
|  \\    /   O peration     | Version:  2506                                  |
|   \\  /    A nd           | Website:  www.openfoam.com                      |
|    \\/     M anipulation  |                                                 |
\*---------------------------------------------------------------------------*/
FoamFile
{
    version     2.0;
    format      ascii;
    arch        "LSB;label=32;scalar=64";
    class       surfaceVectorField;
    location    "7";
    object      surfaceU;
}
// * * * * * * * * * * * * * * * * * * * * * * * * * * * * * * * * * * * * * //

dimensions      [0 1 -1 0 0 0 0];

internalField   nonuniform List<vector> 
760
(
(-1 5.98793e-14 0)
(-1 7.82681e-14 0)
(-1 -1.23826e-14 0)
(-1 -1.66535e-14 0)
(-1 3.16656e-15 0)
(-1 4.07794e-15 0)
(-1 -4.49019e-16 0)
(-1 -6.53032e-16 0)
(-1 3.14056e-16 0)
(-1 3.61416e-16 0)
(-1 8.86467e-17 0)
(-1 9.95241e-17 0)
(-1 5.24551e-17 0)
(-1 5.51355e-17 0)
(-1 -1.29504e-17 0)
(-1 -5.28666e-17 0)
(-1 -2.28362e-17 0)
(-1 -6.44841e-17 0)
(-1 -1.29199e-17 0)
(-1 -5.01789e-17 0)
(-1 2.44528e-17 0)
(-1 -1.12848e-17 0)
(-1 2.97862e-17 0)
(-1 8.76447e-17 0)
(-1 2.55002e-17 0)
(-1 5.45298e-17 0)
(-1 7.50376e-17 0)
(-1 4.4225e-17 0)
(-1 1.13497e-16 0)
(-1 4.81481e-17 0)
(-1 1.07947e-16 0)
(-1 1.10067e-16 0)
(-1 5.8372e-17 0)
(-1 1.26842e-16 0)
(-1 1.69454e-17 0)
(-1 2.97189e-17 0)
(-1 3.38579e-17 0)
(-1 -3.22646e-17 0)
(-1 1.68667e-17 0)
(-1 1.73523e-15 0)
(-1 -6.55651e-14 0)
(-1 -1.92969e-16 0)
(-1 1.44939e-14 0)
(-1 2.58347e-16 0)
(-1 -3.18363e-15 0)
(-1 1.57403e-16 0)
(-1 9.17415e-16 0)
(-1 1.46884e-16 0)
(-1 1.59164e-17 0)
(-1 6.60129e-17 0)
(-1 2.0981e-16 0)
(-1 -5.01862e-17 0)
(-1 1.27865e-16 0)
(-1 -1.044e-16 0)
(-1 8.80425e-17 0)
(-1 -9.18268e-17 0)
(-1 1.57717e-17 0)
(-1 -4.85439e-17 0)
(-1 -5.061e-17 0)
(-1 5.1907e-17 0)
(-1 1.61191e-17 0)
(-1 1.12388e-16 0)
(-1 4.11149e-17 0)
(-1 7.32546e-17 0)
(-1 1.79751e-18 0)
(-1 1.73355e-17 0)
(-1 -4.20325e-17 0)
(-1 4.47185e-17 0)
(-1 -9.91505e-17 0)
(-1 1.28963e-16 0)
(-1 -4.73126e-17 0)
(-1 9.81892e-17 0)
(-1 3.4405e-17 0)
(-1 -1.94911e-17 0)
(-1 -6.43109e-18 0)
(-1 -4.92558e-17 0)
(-1 -1.0227e-16 0)
(-1 -7.36617e-17 0)
(-1 -5.28064e-14 0)
(-1 -1.05797e-14 0)
(-1 1.15033e-14 0)
(-1 2.56078e-15 0)
(-1 -2.52456e-15 0)
(-1 -4.83906e-16 0)
(-1 7.75929e-16 0)
(-1 2.30136e-16 0)
(-1 7.88425e-17 0)
(-1 1.55829e-16 0)
(-1 2.71662e-16 0)
(-1 2.59362e-16 0)
(-1 2.66093e-16 0)
(-1 3.12893e-16 0)
(-1 2.08215e-16 0)
(-1 2.95491e-16 0)
(-1 5.69886e-17 0)
(-1 1.70171e-16 0)
(-1 1.40529e-17 0)
(-1 8.61041e-18 0)
(-1 5.32693e-18 0)
(-1 -2.71382e-17 0)
(-1 -6.94758e-17 0)
(-1 -1.30088e-16 0)
(-1 -1.1349e-16 0)
(-1 -1.63149e-16 0)
(-1 -1.58518e-16 0)
(-1 -1.32949e-16 0)
(-1 -1.91182e-16 0)
(-1 -1.51949e-16 0)
(-1 -1.41871e-16 0)
(-1 -1.79833e-16 0)
(-1 -7.02153e-17 0)
(-1 -1.36004e-16 0)
(-1 -8.92098e-17 0)
(-1 -7.71781e-17 0)
(-1 -1.26676e-16 0)
(-1 -9.76743e-17 0)
(-1 -6.72701e-17 0)
(-1 4.47875e-14 0)
(-1 5.03928e-14 0)
(-1 -9.42641e-15 0)
(-1 -1.10341e-14 0)
(-1 2.27079e-15 0)
(-1 2.60224e-15 0)
(-1 -3.89964e-16 0)
(-1 -4.57477e-16 0)
(-1 3.36348e-16 0)
(-1 3.49606e-16 0)
(-1 3.00593e-16 0)
(-1 2.75027e-16 0)
(-1 3.4229e-16 0)
(-1 3.1839e-16 0)
(-1 2.57447e-16 0)
(-1 2.02723e-16 0)
(-1 1.21792e-16 0)
(-1 1.58578e-16 0)
(-1 -3.25807e-17 0)
(-1 4.12867e-17 0)
(-1 -1.62553e-16 0)
(-1 -1.49933e-16 0)
(-1 -2.23761e-16 0)
(-1 -2.13221e-16 0)
(-1 -1.82609e-16 0)
(-1 -1.41537e-16 0)
(-1 -1.26379e-16 0)
(-1 -1.17752e-16 0)
(-1 -1.40601e-16 0)
(-1 -1.53429e-16 0)
(-1 -1.73967e-16 0)
(-1 -1.98133e-16 0)
(-1 -1.42967e-16 0)
(-1 -1.70732e-16 0)
(-1 -8.56426e-17 0)
(-1 -4.47749e-17 0)
(-1 -3.82688e-17 0)
(-1 1.14823e-17 0)
(-1 2.85713e-17 0)
(-1 -5.42875e-15 0)
(-1 -6.03415e-14 0)
(-1 9.94584e-16 0)
(-1 1.31484e-14 0)
(-1 -1.26029e-16 0)
(-1 -2.95957e-15 0)
(-1 2.82093e-16 0)
(-1 8.38007e-16 0)
(-1 2.88285e-16 0)
(-1 6.38778e-17 0)
(-1 2.92824e-16 0)
(-1 2.70316e-16 0)
(-1 1.78822e-16 0)
(-1 2.14971e-16 0)
(-1 1.03854e-16 0)
(-1 1.15693e-16 0)
(-1 7.80721e-17 0)
(-1 9.10174e-17 0)
(-1 -7.6066e-17 0)
(-1 4.26072e-17 0)
(-1 -2.00602e-16 0)
(-1 -1.15581e-16 0)
(-1 -1.30997e-16 0)
(-1 -1.41279e-16 0)
(-1 -7.66801e-17 0)
(-1 -7.3395e-17 0)
(-1 -1.44801e-16 0)
(-1 -1.32218e-16 0)
(-1 -2.10961e-16 0)
(-1 -2.20362e-16 0)
(-1 -1.94898e-16 0)
(-1 -2.33442e-16 0)
(-1 -7.25398e-17 0)
(-1 -1.5942e-16 0)
(-1 5.23501e-17 0)
(-1 2.71333e-17 0)
(-1 7.83225e-17 0)
(-1 1.20217e-16 0)
(-1 8.24097e-17 0)
(-1 -4.17643e-14 0)
(-1 2.44003e-14 0)
(-1 9.19428e-15 0)
(-1 -4.80103e-15 0)
(-1 -1.99553e-15 0)
(-1 1.29412e-15 0)
(-1 6.19792e-16 0)
(-1 -2.03197e-16 0)
(-1 4.59082e-17 0)
(-1 9.09119e-17 0)
(-1 1.92463e-16 0)
(-1 6.20496e-17 0)
(-1 1.51842e-16 0)
(-1 1.21768e-16 0)
(-1 1.02857e-16 0)
(-1 1.42482e-16 0)
(-1 5.55525e-17 0)
(-1 1.45388e-16 0)
(-1 3.0926e-18 0)
(-1 1.45685e-16 0)
(-1 -5.62581e-17 0)
(-1 2.01409e-17 0)
(-1 -8.3677e-17 0)
(-1 -3.37938e-17 0)
(-1 -1.28933e-16 0)
(-1 -8.44718e-17 0)
(-1 -2.07779e-16 0)
(-1 -1.54154e-16 0)
(-1 -2.42843e-16 0)
(-1 -1.72907e-16 0)
(-1 -1.97964e-16 0)
(-1 -1.28639e-16 0)
(-1 -5.97465e-17 0)
(-1 -7.77359e-17 0)
(-1 9.50007e-17 0)
(-1 5.82861e-18 0)
(-1 1.24305e-16 0)
(-1 9.07099e-17 0)
(-1 7.69702e-17 0)
(-1 6.13636e-14 0)
(-1 4.6513e-14 0)
(-1 -1.27012e-14 0)
(-1 -9.91664e-15 0)
(-1 3.08645e-15 0)
(-1 2.39184e-15 0)
(-1 -7.32077e-16 0)
(-1 -5.3162e-16 0)
(-1 1.07053e-16 0)
(-1 1.27588e-16 0)
(-1 -8.64525e-18 0)
(-1 3.81186e-17 0)
(-1 1.12408e-16 0)
(-1 9.15569e-17 0)
(-1 1.85013e-16 0)
(-1 1.3325e-16 0)
(-1 2.35521e-16 0)
(-1 1.72471e-16 0)
(-1 1.62733e-16 0)
(-1 1.63143e-16 0)
(-1 4.26052e-17 0)
(-1 3.00133e-17 0)
(-1 -3.45885e-17 0)
(-1 -1.42154e-17 0)
(-1 -1.09693e-16 0)
(-1 -8.4437e-17 0)
(-1 -1.19282e-16 0)
(-1 -1.0953e-16 0)
(-1 -5.87028e-17 0)
(-1 -5.52956e-17 0)
(-1 -8.41124e-18 0)
(-1 -3.64015e-18 0)
(-1 -1.21608e-17 0)
(-1 3.42558e-17 0)
(-1 1.53786e-18 0)
(-1 2.06124e-17 0)
(-1 4.33754e-17 0)
(-1 8.14666e-18 0)
(-1 3.35633e-17 0)
(-1 -2.47672e-14 0)
(-1 -6.5377e-14 0)
(-1 5.17639e-15 0)
(-1 1.40064e-14 0)
(-1 -1.22623e-15 0)
(-1 -3.2751e-15 0)
(-1 3.28046e-16 0)
(-1 6.85421e-16 0)
(-1 5.86536e-17 0)
(-1 -1.2525e-16 0)
(-1 1.38321e-16 0)
(-1 8.74502e-17 0)
(-1 1.12399e-16 0)
(-1 6.58479e-17 0)
(-1 1.20707e-16 0)
(-1 7.43876e-17 0)
(-1 1.00093e-16 0)
(-1 5.11226e-17 0)
(-1 3.04231e-17 0)
(-1 -1.31485e-17 0)
(-1 -2.68073e-17 0)
(-1 3.95166e-17 0)
(-1 -6.40638e-17 0)
(-1 4.63503e-17 0)
(-1 -8.42737e-17 0)
(-1 -4.5823e-17 0)
(-1 -4.55436e-17 0)
(-1 -5.66189e-17 0)
(-1 -2.32932e-19 0)
(-1 3.64446e-17 0)
(-1 3.90268e-17 0)
(-1 2.54312e-17 0)
(-1 6.7029e-17 0)
(-1 1.87409e-17 0)
(-1 2.72212e-17 0)
(-1 2.15262e-17 0)
(-1 -1.66541e-18 0)
(-1 2.78213e-17 0)
(-1 3.1091e-17 0)
(-1 -2.66034e-14 0)
(-1 3.41364e-14 0)
(-1 5.55489e-15 0)
(-1 -7.32474e-15 0)
(-1 -1.36344e-15 0)
(-1 1.78117e-15 0)
(-1 2.32125e-16 0)
(-1 -3.33002e-16 0)
(-1 -9.64531e-17 0)
(-1 8.46496e-17 0)
(-1 1.49774e-17 0)
(-1 -4.49931e-17 0)
(-1 2.78362e-17 0)
(-1 5.67853e-17 0)
(-1 4.80284e-18 0)
(-1 7.77516e-17 0)
(-1 -6.21188e-17 0)
(-1 3.49044e-17 0)
(-1 -4.05503e-18 0)
(-1 -1.8074e-17 0)
(-1 1.12674e-16 0)
(-1 1.0365e-16 0)
(-1 6.45911e-17 0)
(-1 1.06055e-16 0)
(-1 -1.81682e-17 0)
(-1 2.80432e-17 0)
(-1 2.53693e-17 0)
(-1 9.17348e-18 0)
(-1 6.21087e-17 0)
(-1 8.40655e-17 0)
(-1 5.14527e-18 0)
(-1 6.77231e-17 0)
(-1 -2.67619e-17 0)
(-1 1.70807e-17 0)
(-1 2.21263e-17 0)
(-1 -4.62947e-17 0)
(-1 6.05778e-17 0)
(-1 1.83353e-17 0)
(-1 4.96384e-17 0)
(-1 5.3415e-14 0)
(-1 1.09956e-15 0)
(-1 -1.10985e-14 0)
(-1 -2.94042e-16 0)
(-1 2.81161e-15 0)
(-1 1.30591e-16 0)
(-1 -4.80478e-16 0)
(-1 8.20942e-17 0)
(-1 1.3611e-16 0)
(-1 -1.99299e-17 0)
(-1 -3.18512e-18 0)
(-1 -8.28506e-17 0)
(-1 1.06701e-16 0)
(-1 -2.13334e-17 0)
(-1 1.07853e-16 0)
(-1 4.82175e-17 0)
(-1 7.89491e-17 0)
(-1 -1.5165e-18 0)
(-1 8.96314e-17 0)
(-1 -1.34515e-17 0)
(-1 9.70316e-17 0)
(-1 9.45842e-18 0)
(-1 6.95075e-17 0)
(-1 7.84928e-18 0)
(-1 5.53849e-17 0)
(-1 2.29231e-17 0)
(-1 6.78697e-17 0)
(-1 6.02074e-17 0)
(-1 8.96799e-17 0)
(-1 2.63928e-17 0)
(-1 7.96585e-17 0)
(-1 5.68615e-17 0)
(-1 -2.45216e-18 0)
(-1 5.46729e-17 0)
(-1 -5.00857e-17 0)
(-1 -2.29999e-17 0)
(-1 7.39598e-18 0)
(-1 -5.60663e-17 0)
(-1 2.88306e-17 0)
(-1 -5.26095e-14 0)
(-1 -2.56312e-14 0)
(-1 1.0935e-14 0)
(-1 5.04082e-15 0)
(-1 -2.59892e-15 0)
(-1 -1.22602e-15 0)
(-1 5.42642e-16 0)
(-1 2.07044e-16 0)
(-1 -2.3889e-16 0)
(-1 -1.42862e-16 0)
(-1 -1.00999e-16 0)
(-1 -9.40814e-17 0)
(-1 -7.98167e-17 0)
(-1 -8.64567e-17 0)
(-1 -6.11521e-17 0)
(-1 -1.38675e-17 0)
(-1 -9.39171e-17 0)
(-1 -5.77981e-17 0)
(-1 -9.36245e-17 0)
(-1 -6.24232e-17 0)
(-1 -7.97239e-17 0)
(-1 -6.12724e-17 0)
(-1 -3.87351e-17 0)
(-1 -1.50656e-17 0)
(-1 2.77456e-17 0)
(-1 1.80601e-17 0)
(-1 1.87305e-17 0)
(-1 7.75138e-17 0)
(-1 -6.42567e-18 0)
(-1 5.86532e-18 0)
(-1 3.18759e-17 0)
(-1 8.31577e-17 0)
(-1 3.41252e-17 0)
(-1 7.00459e-17 0)
(-1 -2.89805e-17 0)
(-1 4.10049e-17 0)
(-1 -3.46317e-17 0)
(-1 -5.41902e-17 0)
(-1 7.54992e-18 0)
(-1 3.20191e-14 0)
(-1 4.04158e-14 0)
(-1 -7.12022e-15 0)
(-1 -8.79765e-15 0)
(-1 1.57994e-15 0)
(-1 2.04395e-15 0)
(-1 -4.7846e-16 0)
(-1 -4.77589e-16 0)
(-1 1.9468e-18 0)
(-1 8.62326e-17 0)
(-1 -7.95392e-17 0)
(-1 -5.40658e-17 0)
(-1 -2.05076e-17 0)
(-1 -6.68311e-17 0)
(-1 -1.05134e-17 0)
(-1 -6.41525e-17 0)
(-1 -2.63042e-17 0)
(-1 -3.08376e-17 0)
(-1 -3.00711e-17 0)
(-1 2.17381e-17 0)
(-1 3.38589e-18 0)
(-1 1.55346e-17 0)
(-1 4.17296e-17 0)
(-1 2.41327e-17 0)
(-1 6.78283e-17 0)
(-1 3.22547e-17 0)
(-1 6.46486e-17 0)
(-1 7.88052e-17 0)
(-1 9.54487e-17 0)
(-1 7.14513e-17 0)
(-1 1.21328e-16 0)
(-1 1.25281e-16 0)
(-1 7.69256e-17 0)
(-1 6.81497e-17 0)
(-1 1.57952e-17 0)
(-1 -2.00591e-19 0)
(-1 -1.20086e-17 0)
(-1 -3.90717e-17 0)
(-1 3.47719e-18 0)
(-1 -4.00922e-16 0)
(-1 -4.29253e-14 0)
(-1 3.66517e-16 0)
(-1 9.86157e-15 0)
(-1 -1.35833e-17 0)
(-1 -2.22619e-15 0)
(-1 8.71037e-17 0)
(-1 5.24101e-16 0)
(-1 3.02199e-17 0)
(-1 -1.28583e-16 0)
(-1 -4.13577e-17 0)
(-1 -1.99556e-17 0)
(-1 -1.10476e-16 0)
(-1 -1.41406e-16 0)
(-1 -8.44767e-17 0)
(-1 -1.12521e-16 0)
(-1 1.72048e-17 0)
(-1 -7.20716e-18 0)
(-1 6.73439e-17 0)
(-1 1.029e-16 0)
(-1 3.62814e-17 0)
(-1 1.15889e-16 0)
(-1 1.46578e-17 0)
(-1 1.86762e-17 0)
(-1 4.32315e-17 0)
(-1 -1.65562e-17 0)
(-1 8.56078e-17 0)
(-1 6.1255e-17 0)
(-1 1.01283e-16 0)
(-1 1.33009e-16 0)
(-1 7.21027e-17 0)
(-1 2.09106e-17 0)
(-1 -8.97655e-18 0)
(-1 -7.17615e-17 0)
(-1 -5.50675e-17 0)
(-1 -9.34465e-17 0)
(-1 -2.35859e-17 0)
(-1 -4.13624e-17 0)
(-1 -2.68514e-18 0)
(-1 -3.26628e-14 0)
(-1 2.84968e-14 0)
(-1 7.26886e-15 0)
(-1 -6.11436e-15 0)
(-1 -1.68851e-15 0)
(-1 1.36601e-15 0)
(-1 3.08414e-16 0)
(-1 -4.48577e-16 0)
(-1 -1.78758e-16 0)
(-1 -1.61526e-17 0)
(-1 -1.20004e-16 0)
(-1 -1.16474e-16 0)
(-1 -1.43451e-16 0)
(-1 -1.16423e-16 0)
(-1 -3.52516e-17 0)
(-1 -4.95088e-17 0)
(-1 7.84881e-17 0)
(-1 2.80423e-17 0)
(-1 1.51445e-16 0)
(-1 9.49329e-17 0)
(-1 9.82838e-17 0)
(-1 1.78026e-16 0)
(-1 -1.25378e-17 0)
(-1 9.35822e-17 0)
(-1 1.46726e-18 0)
(-1 2.26572e-17 0)
(-1 1.08657e-16 0)
(-1 3.89121e-17 0)
(-1 5.26367e-17 0)
(-1 9.42789e-17 0)
(-1 -1.22954e-16 0)
(-1 -3.97063e-17 0)
(-1 -1.56231e-16 0)
(-1 -9.97904e-17 0)
(-1 -7.97414e-17 0)
(-1 -3.97995e-17 0)
(-1 -2.04616e-17 0)
(-1 -2.00958e-17 0)
(-1 3.77515e-18 0)
(-1 5.50453e-14 0)
(-1 2.18276e-14 0)
(-1 -1.20172e-14 0)
(-1 -5.20556e-15 0)
(-1 2.60594e-15 0)
(-1 9.21133e-16 0)
(-1 -7.73143e-16 0)
(-1 -4.76929e-16 0)
(-1 4.61321e-17 0)
(-1 -2.37702e-17 0)
(-1 -1.12892e-16 0)
(-1 -1.28423e-16 0)
(-1 -2.24803e-17 0)
(-1 -6.94199e-17 0)
(-1 1.37851e-17 0)
(-1 -7.10393e-17 0)
(-1 4.44871e-17 0)
(-1 -3.52821e-17 0)
(-1 1.21514e-16 0)
(-1 5.29241e-17 0)
(-1 1.73324e-16 0)
(-1 1.67838e-16 0)
(-1 1.28777e-16 0)
(-1 2.12392e-16 0)
(-1 6.0102e-17 0)
(-1 1.60017e-16 0)
(-1 2.45343e-17 0)
(-1 -2.28671e-17 0)
(-1 1.93599e-18 0)
(-1 -1.39971e-16 0)
(-1 -1.65431e-17 0)
(-1 -1.37154e-16 0)
(-1 1.66415e-17 0)
(-1 -8.36192e-17 0)
(-1 1.98461e-17 0)
(-1 -2.85594e-17 0)
(-1 4.14098e-18 0)
(-1 -2.11732e-17 0)
(-1 1.67134e-17 0)
(-1 -3.84232e-14 0)
(-1 -6.01261e-14 0)
(-1 7.73279e-15 0)
(-1 1.3012e-14 0)
(-1 -2.16174e-15 0)
(-1 -3.25001e-15 0)
(-1 2.72444e-16 0)
(-1 4.9091e-16 0)
(-1 -1.98325e-16 0)
(-1 -2.61289e-16 0)
(-1 -8.49501e-17 0)
(-1 4.39359e-18 0)
(-1 -1.17979e-16 0)
(-1 5.8862e-18 0)
(-1 -1.20106e-16 0)
(-1 -7.41324e-17 0)
(-1 -2.68451e-17 0)
(-1 -2.7892e-17 0)
(-1 9.92486e-17 0)
(-1 8.28691e-17 0)
(-1 2.06905e-16 0)
(-1 6.91504e-17 0)
(-1 2.43632e-16 0)
(-1 1.27101e-16 0)
(-1 7.70482e-17 0)
(-1 1.73782e-16 0)
(-1 -1.87373e-16 0)
(-1 9.75978e-18 0)
(-1 -2.79061e-16 0)
(-1 -1.9112e-16 0)
(-1 -2.0423e-16 0)
(-1 -2.35415e-16 0)
(-1 -1.2882e-16 0)
(-1 -1.62847e-16 0)
(-1 -6.95787e-17 0)
(-1 -1.26755e-16 0)
(-1 -8.6008e-18 0)
(-1 -5.06779e-17 0)
(-1 1.16671e-17 0)
(-1 -8.69085e-15 0)
(-1 4.7708e-14 0)
(-1 2.02921e-15 0)
(-1 -1.01841e-14 0)
(-1 -5.97365e-16 0)
(-1 2.40014e-15 0)
(-1 -4.28231e-17 0)
(-1 -6.61764e-16 0)
(-1 -5.85709e-17 0)
(-1 6.08431e-18 0)
(-1 9.52299e-17 0)
(-1 2.26243e-17 0)
(-1 4.97327e-17 0)
(-1 5.04806e-17 0)
(-1 1.80821e-17 0)
(-1 -7.74693e-17 0)
(-1 8.18222e-17 0)
(-1 -3.47508e-17 0)
(-1 5.2771e-17 0)
(-1 5.16948e-17 0)
(-1 -1.06536e-17 0)
(-1 7.28523e-18 0)
(-1 5.72514e-17 0)
(-1 3.40162e-19 0)
(-1 1.06493e-16 0)
(-1 8.78009e-17 0)
(-1 6.01187e-18 0)
(-1 1.13738e-16 0)
(-1 -1.47474e-16 0)
(-1 1.00664e-17 0)
(-1 -1.94031e-16 0)
(-1 -1.41475e-16 0)
(-1 -1.60782e-16 0)
(-1 -1.23219e-16 0)
(-1 -1.07854e-16 0)
(-1 -7.7772e-17 0)
(-1 -3.041e-17 0)
(-1 -2.5708e-17 0)
(-1 7.70182e-18 0)
(-1 4.62148e-14 0)
(-1 3.45011e-14 0)
(-1 -9.8132e-15 0)
(-1 -7.75951e-15 0)
(-1 2.33574e-15 0)
(-1 1.73648e-15 0)
(-1 -6.12856e-16 0)
(-1 -5.08999e-16 0)
(-1 8.72795e-17 0)
(-1 3.92726e-17 0)
(-1 -2.2125e-17 0)
(-1 1.28844e-17 0)
(-1 -7.67214e-17 0)
(-1 -2.74298e-17 0)
(-1 -1.30302e-16 0)
(-1 -1.4249e-16 0)
(-1 -6.48783e-17 0)
(-1 -1.66507e-16 0)
(-1 6.2091e-18 0)
(-1 -8.84127e-17 0)
(-1 1.8279e-17 0)
(-1 2.44121e-17 0)
(-1 3.08897e-17 0)
(-1 3.91335e-17 0)
(-1 9.50461e-17 0)
(-1 1.86431e-17 0)
(-1 1.17793e-16 0)
(-1 3.40885e-17 0)
(-1 1.60655e-17 0)
(-1 5.69529e-18 0)
(-1 -7.06628e-17 0)
(-1 -7.71955e-17 0)
(-1 -4.02094e-17 0)
(-1 -1.12254e-16 0)
(-1 4.37432e-18 0)
(-1 -2.96752e-17 0)
(-1 1.24039e-17 0)
(-1 8.53015e-18 0)
(-1 3.66992e-18 0)
(-1 -1.94731e-14 0)
(-1 -6.37575e-14 0)
(-1 3.79017e-15 0)
(-1 1.36334e-14 0)
(-1 -1.10826e-15 0)
(-1 -3.41047e-15 0)
(-1 1.43129e-16 0)
(-1 6.32217e-16 0)
(-1 -3.51225e-17 0)
(-1 -1.42625e-16 0)
(-1 7.57963e-18 0)
(-1 1.08002e-16 0)
(-1 -9.31987e-17 0)
(-1 2.15418e-17 0)
(-1 -1.78695e-16 0)
(-1 -3.48183e-17 0)
(-1 -1.90041e-16 0)
(-1 -1.32364e-16 0)
(-1 -7.02097e-17 0)
(-1 -1.35087e-16 0)
(-1 4.52667e-17 0)
(-1 -4.11179e-17 0)
(-1 2.6887e-17 0)
(-1 5.62873e-18 0)
(-1 -4.23145e-17 0)
(-1 -4.54517e-17 0)
(-1 -7.80092e-17 0)
(-1 -6.85086e-17 0)
(-1 -8.75657e-17 0)
(-1 -8.24771e-17 0)
(-1 -1.18787e-16 0)
(-1 -6.24406e-17 0)
(-1 -1.0172e-16 0)
(-1 -1.11504e-16 0)
(-1 -2.55194e-17 0)
(-1 -4.48858e-17 0)
(-1 -2.03799e-19 0)
(-1 -1.20525e-17 0)
(-1 2.43276e-18 0)
(-1 -3.0651e-14 0)
(-1 6.43276e-15 0)
(-1 -1.66999e-15 0)
(-1 3.46463e-16 0)
(-1 4.99362e-19 0)
(-1 1.21964e-16 0)
(-1 7.99222e-17 0)
(-1 1.15126e-17 0)
(-1 -7.741e-17 0)
(-1 -1.05996e-16 0)
(-1 -8.07559e-17 0)
(-1 -6.671e-17 0)
(-1 -7.16458e-17 0)
(-1 -7.29764e-17 0)
(-1 -5.7352e-17 0)
(-1 -5.51579e-17 0)
(-1 -5.46701e-17 0)
(-1 -3.14189e-17 0)
(-1 -9.41595e-18 0)
)
;

boundaryField
{
    movingWall
    {
        type            calculated;
        value           uniform (-1 -0 -0);
    }
    fixedWalls
    {
        type            calculated;
        value           uniform (-1 -0 -0);
    }
    frontAndBack
    {
        type            empty;
    }
}


// ************************************************************************* //
