/*--------------------------------*- C++ -*----------------------------------*\
| =========                 |                                                 |
| \\      /  F ield         | OpenFOAM: The Open Source CFD Toolbox           |
|  \\    /   O peration     | Version:  2506                                  |
|   \\  /    A nd           | Website:  www.openfoam.com                      |
|    \\/     M anipulation  |                                                 |
\*---------------------------------------------------------------------------*/
FoamFile
{
    version     2.0;
    format      ascii;
    arch        "LSB;label=32;scalar=64";
    class       surfaceScalarField;
    location    "7";
    object      surfaceDivU;
}
// * * * * * * * * * * * * * * * * * * * * * * * * * * * * * * * * * * * * * //

dimensions      [0 0 -1 0 0 0 0];

internalField   nonuniform List<scalar> 
760
(
6.43906e-12
-6.04443e-12
-7.8322e-13
8.27587e-13
1.52755e-13
-1.68066e-13
-8.33717e-14
8.06484e-14
5.43645e-15
-1.64768e-14
1.91343e-15
1.73809e-14
-1.33256e-14
-2.23576e-14
1.81745e-15
3.51759e-15
1.56388e-14
8.68129e-15
7.40615e-15
3.47364e-15
-5.91654e-15
4.83424e-16
-1.28876e-14
-1.42291e-14
-3.67705e-15
-7.9198e-15
9.23731e-15
2.19252e-16
1.58215e-14
2.20048e-14
-3.41411e-15
6.27545e-15
-1.14489e-14
-2.45329e-14
1.3298e-14
-1.12237e-14
-3.22646e-15
1.36516e-14
0
-1.16559e-11
-8.14507e-12
1.44274e-12
9.32979e-13
-2.40174e-13
-2.4478e-13
1.47543e-13
7.40975e-14
-4.53238e-15
-9.93055e-15
-6.89008e-15
6.25964e-15
-5.51433e-15
-2.36869e-14
1.03814e-14
1.12483e-14
-3.48382e-15
-3.56159e-14
-3.44909e-15
-4.19996e-15
-7.82913e-15
-1.10191e-15
-9.26129e-15
4.65523e-15
-4.0235e-15
1.09699e-14
1.29868e-14
-3.94561e-15
1.24587e-14
1.99513e-15
-1.48433e-14
-9.16208e-15
-2.43077e-14
3.04976e-14
-1.08701e-14
-3.5466e-14
1.68781e-14
7.11065e-15
1.35525e-14
4.44381e-12
1.05981e-11
-7.54542e-13
-1.24035e-12
6.94908e-14
1.84728e-13
-8.33763e-14
-9.04968e-14
8.61467e-16
2.34384e-14
-1.05371e-14
-7.71222e-16
-6.92425e-15
-1.81869e-14
-3.4749e-14
3.62689e-14
-3.6332e-14
-2.13353e-14
-1.85278e-15
-8.56282e-15
1.13825e-14
9.3979e-15
2.48864e-14
6.32666e-15
1.10478e-14
1.01889e-14
-1.49372e-14
-1.15175e-14
-1.96257e-14
-3.4327e-15
3.61789e-14
-2.42441e-14
1.93393e-14
3.7089e-14
-1.74852e-14
-1.21953e-14
3.7851e-15
3.20384e-14
-2.71051e-14
4.91392e-12
-4.70273e-12
-3.01081e-13
6.72223e-13
2.47405e-14
-1.57706e-13
1.63179e-14
6.5158e-14
2.18057e-14
-2.64142e-14
-8.42095e-15
1.38767e-14
2.50062e-14
-1.44265e-14
4.96826e-14
1.82891e-14
6.43392e-15
1.1407e-14
2.68786e-15
-5.16314e-15
4.34211e-15
5.53658e-16
-8.3708e-15
-8.34501e-15
-1.23763e-14
5.61184e-15
-1.29743e-17
-1.14444e-14
-8.05109e-15
1.6831e-14
-2.33339e-14
-1.60524e-14
5.55436e-15
-5.91011e-15
3.73283e-14
1.17884e-14
1.14823e-15
4.0275e-14
-4.06576e-14
-8.94442e-12
-2.30393e-12
8.15598e-13
2.51982e-13
-1.17288e-13
-1.74674e-14
2.24259e-14
9.27094e-15
-3.43433e-14
-3.87311e-14
7.87111e-15
1.9684e-14
-2.11437e-14
-2.05362e-14
-1.99865e-14
-1.48401e-14
-1.90067e-16
1.0088e-14
-7.29734e-15
1.88292e-14
-1.21335e-14
1.75611e-14
5.63763e-15
-1.75073e-14
6.54376e-15
1.13184e-14
5.39954e-15
-1.53219e-15
8.82969e-15
1.48832e-14
1.37145e-15
-9.10304e-15
3.23898e-16
-2.37155e-14
1.47351e-14
3.04012e-14
-1.53078e-15
7.54022e-15
-1.35525e-14
6.89247e-12
1.0056e-11
-5.81084e-13
-1.404e-12
1.09092e-13
3.00833e-13
-5.18861e-14
-1.27692e-13
1.52962e-14
8.29749e-15
-8.72329e-15
-1.70882e-14
-1.42326e-14
7.77996e-15
1.52345e-14
4.6815e-16
2.91073e-14
4.68083e-15
4.36876e-14
-9.77481e-15
1.21872e-14
3.21205e-14
-1.18266e-14
-1.83534e-14
3.24243e-15
1.02142e-14
7.95144e-15
7.36588e-16
-3.04956e-15
-9.26773e-15
-3.419e-14
3.24596e-16
6.3618e-15
-3.14531e-14
2.32064e-14
2.97492e-14
-4.48153e-15
9.88566e-15
-1.35525e-14
1.7595e-12
-8.60585e-12
-5.22087e-13
1.30344e-12
6.40492e-14
-2.64509e-13
-6.75082e-14
1.238e-13
-2.40869e-14
-4.04237e-14
-5.84979e-16
-1.45482e-14
2.24807e-14
1.57405e-14
-1.00855e-14
-6.34127e-15
-3.42013e-14
-4.74573e-15
-2.1342e-14
1.49994e-14
1.57979e-15
6.95299e-15
3.68729e-15
3.21349e-15
7.70834e-15
1.40791e-14
-1.64826e-14
1.04901e-14
-5.89358e-15
-1.54376e-14
3.06156e-15
2.1791e-15
-8.06571e-15
-2.18054e-14
1.64284e-14
4.21386e-15
8.14666e-16
1.71493e-14
-1.35525e-14
-9.06191e-12
-1.21973e-12
1.56102e-12
2.07377e-13
-2.04758e-13
-6.80779e-14
1.50885e-13
4.87943e-14
-3.0885e-14
-1.76125e-14
1.77728e-15
4.24572e-15
-1.30815e-14
-1.28921e-15
-1.0015e-15
-1.18911e-14
4.4455e-14
8.6027e-15
4.32944e-14
5.10879e-14
8.58669e-15
7.64171e-16
1.36053e-14
1.68804e-15
1.68609e-14
-1.77798e-15
1.15351e-14
-1.82971e-14
-7.36495e-15
-1.50152e-15
-2.26878e-14
-4.2371e-15
-9.52581e-15
-9.97037e-15
4.93475e-15
3.81807e-14
2.78213e-15
4.61567e-15
0
8.04956e-12
6.39679e-12
-1.42172e-12
-1.01938e-12
1.85474e-13
1.64071e-13
-1.19703e-13
-7.93009e-14
1.75182e-14
6.47197e-15
1.17923e-15
-1.27844e-14
-9.88353e-17
1.70977e-14
-2.28693e-15
-1.45081e-14
1.52356e-14
3.04438e-14
8.55764e-15
-1.67051e-14
-6.13448e-15
-1.57942e-14
-1.36952e-14
1.13905e-14
-3.69359e-14
-8.45589e-15
-3.13337e-14
-2.0167e-14
1.62633e-15
1.10458e-14
8.48038e-15
1.24585e-14
3.77362e-14
-6.37717e-15
3.78616e-14
-6.92946e-15
1.83353e-15
2.3332e-14
0
-2.67215e-12
-6.38324e-12
5.66414e-13
1.50467e-12
-1.00704e-13
-3.26384e-13
4.6874e-14
1.37334e-13
-2.38306e-14
-2.98317e-14
3.13412e-15
-1.76932e-14
2.6884e-15
1.6326e-14
1.82226e-14
-1.01175e-14
-1.4968e-15
4.82787e-14
-4.10569e-14
-3.46925e-14
1.73077e-15
-5.1814e-15
1.66298e-14
-7.21633e-16
8.31305e-15
4.09832e-15
2.22125e-14
1.37721e-14
2.1878e-14
1.67783e-14
-2.39909e-15
-1.31031e-14
-5.10428e-14
2.60244e-14
-2.14591e-14
-2.53045e-14
2.14984e-14
2.52688e-15
0
-2.20642e-12
4.18773e-12
6.11873e-13
-1.08041e-12
-8.83454e-14
2.03765e-13
6.06283e-14
-6.7712e-14
-2.36943e-14
2.14421e-14
-4.50129e-15
-2.83673e-14
3.5201e-15
1.17763e-14
1.99385e-14
5.75052e-15
1.50829e-14
1.82415e-14
1.18297e-15
-3.11736e-14
-7.6338e-15
-1.81263e-14
-1.32531e-14
9.06709e-16
9.55739e-15
5.03148e-15
8.33791e-15
2.07937e-15
-1.82027e-14
7.73167e-15
1.53204e-14
-1.98137e-14
5.17627e-14
2.67031e-16
-1.31853e-15
1.7633e-14
-1.89715e-14
-2.28787e-14
0
5.31374e-12
-1.3417e-12
-1.48852e-12
5.2182e-14
2.24399e-13
-1.82245e-14
-1.06898e-13
1.82037e-14
1.67692e-14
-1.77876e-14
-1.20897e-14
6.15038e-15
1.40067e-14
-7.27121e-15
4.05352e-15
-4.11483e-15
-2.8015e-14
-3.80447e-15
-5.04828e-14
-1.08871e-15
-9.5858e-15
-2.75152e-14
1.91913e-14
1.78334e-14
-2.44654e-15
1.56985e-15
1.47312e-15
-1.3099e-14
6.12069e-15
-2.02115e-14
-3.48671e-14
1.46191e-14
-3.38627e-14
-4.10188e-14
-3.92723e-15
3.12929e-14
-3.90717e-15
-2.15959e-14
0
-6.60326e-12
-1.3417e-12
1.52248e-12
3.74721e-13
-2.24419e-13
-1.26676e-13
1.07314e-13
6.17625e-14
-2.84064e-14
-1.44735e-14
1.09689e-14
1.34621e-14
-2.53927e-14
1.32214e-15
-1.19728e-14
-1.6203e-14
2.31218e-14
-1.1469e-14
2.18789e-14
1.97833e-14
-9.60061e-17
-1.12661e-14
2.12e-16
1.12258e-14
-9.08265e-15
6.10099e-16
-3.47837e-14
1.00167e-14
-1.1713e-14
-1.79287e-14
8.46744e-15
1.1673e-14
2.41368e-14
-3.60266e-15
1.36242e-14
1.37805e-14
-1.76888e-14
-1.96983e-14
0
5.63628e-12
5.9089e-12
-1.27443e-12
-8.20283e-13
1.59506e-13
1.20294e-13
-6.00254e-14
-6.54455e-14
2.7395e-14
2.31128e-14
3.81541e-15
2.61544e-15
1.05119e-14
8.52078e-15
-1.56992e-14
-1.20548e-14
-1.48075e-14
-1.42765e-14
-1.33617e-14
1.23318e-15
5.5743e-17
2.10338e-14
1.16239e-14
1.70448e-14
1.97095e-14
-2.23901e-14
2.68716e-14
1.5157e-14
5.45726e-15
2.25358e-14
-3.97141e-16
-4.13352e-15
-1.3959e-14
-4.78843e-15
-1.95421e-14
-2.03884e-14
-2.00958e-15
9.42563e-15
-1.35525e-14
-5.47661e-13
-8.55164e-12
5.74445e-13
1.30919e-12
-1.04657e-13
-2.73546e-13
1.76927e-14
9.62658e-14
-1.66675e-15
-1.4009e-15
7.32081e-15
2.82547e-14
-1.40459e-14
-6.35337e-15
-1.06321e-14
1.25879e-14
1.7642e-15
-1.98699e-14
3.56287e-14
-1.35257e-14
3.8023e-14
5.08039e-14
-1.69692e-14
6.84424e-15
-2.69426e-14
-3.43827e-14
1.08212e-14
-1.31073e-15
1.29451e-14
7.54842e-15
-8.52481e-15
3.4007e-15
-1.12179e-14
-1.10941e-14
8.57927e-15
1.15736e-14
-2.11732e-15
6.36742e-15
-1.35525e-14
-6.69479e-12
2.69695e-12
4.61204e-13
-5.57469e-13
-7.26224e-14
9.11958e-14
7.71722e-14
-5.77429e-14
2.85205e-14
4.22421e-14
1.45805e-14
1.62543e-14
2.02804e-14
5.63668e-15
3.3501e-15
2.54974e-14
-3.51599e-14
-1.98168e-14
1.64943e-15
-2.72012e-14
1.96252e-14
7.64357e-15
-1.05693e-14
-8.08374e-16
-8.75091e-15
1.26057e-14
-4.58354e-15
-1.20271e-15
-1.99593e-15
-4.55288e-15
8.31422e-16
1.65212e-14
1.16974e-14
-1.50541e-14
9.36176e-15
-6.90018e-15
-5.06779e-15
5.91394e-15
-1.35525e-14
8.83427e-12
8.32125e-12
-9.27477e-13
-5.8819e-13
1.06075e-13
1.15507e-13
-9.2673e-14
-6.28662e-14
2.99759e-14
1.80882e-14
7.3105e-15
3.55087e-15
1.08537e-14
2.30509e-15
2.33051e-15
5.10909e-15
-1.18581e-14
-6.57323e-15
-2.1207e-14
2.34333e-14
-1.279e-14
-1.03828e-14
2.23666e-14
-9.60516e-15
2.01539e-14
2.41969e-14
-1.17204e-15
-1.23224e-14
1.39642e-14
1.57617e-15
6.35643e-16
5.23803e-15
-3.36517e-14
-3.70999e-14
-1.0348e-14
1.63603e-14
-2.5708e-15
1.18347e-14
-1.35525e-14
-1.10121e-12
-1.01779e-11
4.54794e-13
1.03462e-12
-5.34344e-14
-2.48714e-13
4.7895e-14
1.07189e-13
-8.33682e-15
-1.03352e-14
-1.45453e-15
1.20886e-14
-3.43948e-15
2.65163e-14
-3.79466e-15
-1.77309e-14
2.87182e-14
-1.63345e-14
3.42575e-14
3.18601e-14
-7.19796e-15
-1.67058e-15
-7.77486e-15
-9.0763e-15
-8.27936e-15
1.08717e-14
-9.57415e-15
1.01105e-14
-7.15002e-15
5.87435e-15
-3.24975e-14
-1.39636e-14
1.29121e-14
-2.23758e-14
3.85431e-14
3.32015e-14
8.53015e-16
-3.52235e-16
0
-8.04211e-12
-2.66985e-12
3.31115e-13
-1.00332e-13
-8.809e-14
-2.23391e-15
4.89592e-14
-4.54091e-15
1.00902e-14
-7.09966e-16
4.00594e-14
-1.63049e-14
1.22249e-14
4.28118e-14
-3.02707e-14
-1.70344e-14
-1.31926e-14
-2.67889e-14
-4.06799e-15
1.35963e-14
-3.54892e-15
-4.11179e-15
9.57023e-15
5.62873e-16
2.92616e-14
-4.54517e-15
2.5559e-14
3.38067e-14
-9.39242e-16
1.88573e-14
-3.84194e-15
-1.97966e-14
-2.08646e-15
2.40212e-15
-5.69383e-15
-4.48858e-15
-1.20525e-15
-1.20525e-15
0
5.27193e-12
-4.33681e-13
8.13152e-14
-5.42101e-14
-2.71051e-14
-1.35525e-14
1.35525e-14
-1.35525e-14
9.46633e-30
1.35525e-14
0
-1.35525e-14
1.32529e-28
2.71051e-14
9.46633e-30
-1.35525e-14
0
0
0
)
;

boundaryField
{
    movingWall
    {
        type            calculated;
        value           nonuniform List<scalar> 
20
(
1.16823e-11
-1.13841e-12
2.71051e-13
-1.0842e-13
0
-5.42101e-14
2.71051e-14
0
-2.71051e-14
2.71051e-14
0
0
-2.71051e-14
2.71051e-14
2.71051e-14
-2.71051e-14
0
0
0
0
)
;
    }
    fixedWalls
    {
        type            calculated;
        value           nonuniform List<scalar> 
60
(
1.49078e-11
-2.69966e-11
1.07065e-11
1.04897e-11
-1.98951e-11
1.52873e-11
4.8247e-12
-2.20364e-11
1.9597e-11
-6.80337e-12
-5.96311e-12
1.43386e-11
-1.7022e-11
1.43386e-11
-2.52077e-12
-1.45825e-11
1.99764e-11
-3.33392e-12
-1.7022e-11
1.16823e-11
-2.71051e-14
2.71051e-14
0
-5.42101e-14
-2.71051e-14
0
-2.71051e-14
0
0
0
0
0
0
0
-2.71051e-14
0
-2.71051e-14
0
0
0
1.49078e-11
-2.02966e-12
4.63222e-13
-1.57711e-13
-9.03193e-15
1.99048e-14
-1.6078e-14
-1.05733e-14
1.42082e-14
1.70693e-14
-2.25697e-15
-9.57612e-15
-1.61991e-14
8.845e-15
9.62962e-15
2.20134e-14
-2.88417e-14
5.94378e-15
2.06521e-14
-2.71051e-14
)
;
    }
    frontAndBack
    {
        type            empty;
    }
}


// ************************************************************************* //
