/*--------------------------------*- C++ -*----------------------------------*\
| =========                 |                                                 |
| \\      /  F ield         | OpenFOAM: The Open Source CFD Toolbox           |
|  \\    /   O peration     | Version:  2506                                  |
|   \\  /    A nd           | Website:  www.openfoam.com                      |
|    \\/     M anipulation  |                                                 |
\*---------------------------------------------------------------------------*/
FoamFile
{
    version     2.0;
    format      ascii;
    arch        "LSB;label=32;scalar=64";
    class       volScalarField;
    location    "7";
    object      turbulenceProperties:nuTilda;
}
// * * * * * * * * * * * * * * * * * * * * * * * * * * * * * * * * * * * * * //

dimensions      [0 2 -1 0 0 0 0];

internalField   nonuniform List<scalar> 
400
(
1.34652e-06
1.34651e-06
1.34652e-06
1.34651e-06
1.34652e-06
1.34651e-06
1.34652e-06
1.34651e-06
1.34651e-06
1.34651e-06
1.34651e-06
1.34651e-06
1.34651e-06
1.34651e-06
1.34651e-06
1.34651e-06
1.34651e-06
1.34651e-06
1.34651e-06
1.34651e-06
1.3674e-06
1.38756e-06
1.3857e-06
1.38497e-06
1.38345e-06
1.3827e-06
1.38119e-06
1.38043e-06
1.37894e-06
1.37816e-06
1.37668e-06
1.37589e-06
1.37443e-06
1.37361e-06
1.37217e-06
1.37134e-06
1.36991e-06
1.36906e-06
1.36835e-06
1.36722e-06
1.39807e-06
1.41949e-06
1.4175e-06
1.41669e-06
1.41507e-06
1.41425e-06
1.41265e-06
1.41182e-06
1.41024e-06
1.4094e-06
1.40784e-06
1.40699e-06
1.40545e-06
1.40458e-06
1.40306e-06
1.40219e-06
1.40069e-06
1.39981e-06
1.39906e-06
1.39788e-06
1.42739e-06
1.44973e-06
1.44765e-06
1.44681e-06
1.44511e-06
1.44426e-06
1.44259e-06
1.44172e-06
1.44008e-06
1.43919e-06
1.43757e-06
1.43668e-06
1.43508e-06
1.43417e-06
1.43259e-06
1.43168e-06
1.43011e-06
1.42919e-06
1.42841e-06
1.42718e-06
1.4498e-06
1.47289e-06
1.47074e-06
1.46987e-06
1.46812e-06
1.46724e-06
1.46551e-06
1.46462e-06
1.46291e-06
1.462e-06
1.46032e-06
1.4594e-06
1.45774e-06
1.45682e-06
1.45517e-06
1.45424e-06
1.45261e-06
1.45167e-06
1.45086e-06
1.44959e-06
1.46483e-06
1.48843e-06
1.48623e-06
1.48534e-06
1.48354e-06
1.48265e-06
1.48088e-06
1.47997e-06
1.47822e-06
1.47729e-06
1.47558e-06
1.47464e-06
1.47294e-06
1.47199e-06
1.47032e-06
1.46935e-06
1.4677e-06
1.46673e-06
1.46591e-06
1.46461e-06
1.47419e-06
1.49811e-06
1.49588e-06
1.49498e-06
1.49316e-06
1.49225e-06
1.49046e-06
1.48952e-06
1.48777e-06
1.48682e-06
1.48509e-06
1.48413e-06
1.48241e-06
1.48145e-06
1.47975e-06
1.47877e-06
1.4771e-06
1.47611e-06
1.47528e-06
1.47396e-06
1.47991e-06
1.50402e-06
1.50178e-06
1.50087e-06
1.49904e-06
1.49812e-06
1.49631e-06
1.49538e-06
1.49359e-06
1.49264e-06
1.49089e-06
1.48993e-06
1.4882e-06
1.48722e-06
1.48551e-06
1.48453e-06
1.48284e-06
1.48185e-06
1.48101e-06
1.47968e-06
1.48355e-06
1.50779e-06
1.50553e-06
1.50462e-06
1.50277e-06
1.50185e-06
1.50003e-06
1.49909e-06
1.49731e-06
1.49635e-06
1.49459e-06
1.49362e-06
1.49188e-06
1.4909e-06
1.48918e-06
1.48819e-06
1.48649e-06
1.4855e-06
1.48465e-06
1.48332e-06
1.48612e-06
1.51045e-06
1.50819e-06
1.50727e-06
1.50542e-06
1.50449e-06
1.50267e-06
1.50172e-06
1.49993e-06
1.49897e-06
1.4972e-06
1.49623e-06
1.49448e-06
1.4935e-06
1.49177e-06
1.49078e-06
1.48908e-06
1.48808e-06
1.48723e-06
1.48589e-06
1.48822e-06
1.51262e-06
1.51035e-06
1.50943e-06
1.50758e-06
1.50664e-06
1.50482e-06
1.50387e-06
1.50207e-06
1.5011e-06
1.49933e-06
1.49836e-06
1.49661e-06
1.49562e-06
1.49389e-06
1.4929e-06
1.49119e-06
1.49018e-06
1.48933e-06
1.48799e-06
1.49019e-06
1.51465e-06
1.51237e-06
1.51145e-06
1.50959e-06
1.50866e-06
1.50682e-06
1.50588e-06
1.50407e-06
1.5031e-06
1.50133e-06
1.50035e-06
1.4986e-06
1.4976e-06
1.49587e-06
1.49487e-06
1.49316e-06
1.49215e-06
1.4913e-06
1.48995e-06
1.4922e-06
1.51674e-06
1.51445e-06
1.51353e-06
1.51166e-06
1.51073e-06
1.50888e-06
1.50793e-06
1.50612e-06
1.50515e-06
1.50337e-06
1.50239e-06
1.50063e-06
1.49964e-06
1.4979e-06
1.4969e-06
1.49519e-06
1.49417e-06
1.49332e-06
1.49197e-06
1.49438e-06
1.51899e-06
1.51669e-06
1.51577e-06
1.51389e-06
1.51295e-06
1.51111e-06
1.51015e-06
1.50835e-06
1.50737e-06
1.50559e-06
1.5046e-06
1.50284e-06
1.50184e-06
1.5001e-06
1.49909e-06
1.49737e-06
1.49635e-06
1.4955e-06
1.49414e-06
1.49678e-06
1.52147e-06
1.51916e-06
1.51824e-06
1.51635e-06
1.51542e-06
1.51356e-06
1.51262e-06
1.51077e-06
1.50982e-06
1.508e-06
1.50704e-06
1.50525e-06
1.50427e-06
1.50251e-06
1.50151e-06
1.49978e-06
1.49876e-06
1.4979e-06
1.49654e-06
1.49939e-06
1.52416e-06
1.52186e-06
1.52092e-06
1.51904e-06
1.51809e-06
1.51624e-06
1.51527e-06
1.51345e-06
1.51247e-06
1.51068e-06
1.50968e-06
1.50791e-06
1.5069e-06
1.50515e-06
1.50413e-06
1.50241e-06
1.50138e-06
1.50052e-06
1.49916e-06
1.50212e-06
1.52699e-06
1.52467e-06
1.52373e-06
1.52184e-06
1.5209e-06
1.51903e-06
1.51807e-06
1.51623e-06
1.51525e-06
1.51344e-06
1.51245e-06
1.51066e-06
1.50966e-06
1.5079e-06
1.50689e-06
1.50514e-06
1.50412e-06
1.50325e-06
1.50188e-06
1.50472e-06
1.52966e-06
1.52735e-06
1.5264e-06
1.5245e-06
1.52355e-06
1.52168e-06
1.52071e-06
1.51887e-06
1.51789e-06
1.51608e-06
1.51508e-06
1.51329e-06
1.51229e-06
1.51051e-06
1.5095e-06
1.50775e-06
1.50672e-06
1.50585e-06
1.50448e-06
1.50681e-06
1.53132e-06
1.52909e-06
1.52817e-06
1.52633e-06
1.5254e-06
1.52359e-06
1.52263e-06
1.52085e-06
1.51987e-06
1.5181e-06
1.5171e-06
1.51535e-06
1.51434e-06
1.5126e-06
1.51157e-06
1.50985e-06
1.5088e-06
1.50795e-06
1.50657e-06
1.50775e-06
1.50776e-06
1.50775e-06
1.50776e-06
1.50775e-06
1.50775e-06
1.50775e-06
1.50775e-06
1.50775e-06
1.50775e-06
1.50775e-06
1.50775e-06
1.50775e-06
1.50775e-06
1.50775e-06
1.50775e-06
1.50775e-06
1.50775e-06
1.50775e-06
1.50775e-06
)
;

boundaryField
{
    movingWall
    {
        type            calculated;
        value           nonuniform List<scalar> 
20
(
1.50775e-06
1.50776e-06
1.50775e-06
1.50776e-06
1.50775e-06
1.50775e-06
1.50775e-06
1.50775e-06
1.50775e-06
1.50775e-06
1.50775e-06
1.50775e-06
1.50775e-06
1.50775e-06
1.50775e-06
1.50775e-06
1.50775e-06
1.50775e-06
1.50775e-06
1.50775e-06
)
;
    }
    fixedWalls
    {
        type            calculated;
        value           nonuniform List<scalar> 
60
(
1.34652e-06
1.3674e-06
1.39807e-06
1.42739e-06
1.4498e-06
1.46483e-06
1.47419e-06
1.47991e-06
1.48355e-06
1.48612e-06
1.48822e-06
1.49019e-06
1.4922e-06
1.49438e-06
1.49678e-06
1.49939e-06
1.50212e-06
1.50472e-06
1.50681e-06
1.50775e-06
1.34651e-06
1.36722e-06
1.39788e-06
1.42718e-06
1.44959e-06
1.46461e-06
1.47396e-06
1.47968e-06
1.48332e-06
1.48589e-06
1.48799e-06
1.48995e-06
1.49197e-06
1.49414e-06
1.49654e-06
1.49916e-06
1.50188e-06
1.50448e-06
1.50657e-06
1.50775e-06
1.34652e-06
1.34651e-06
1.34652e-06
1.34651e-06
1.34652e-06
1.34651e-06
1.34652e-06
1.34651e-06
1.34651e-06
1.34651e-06
1.34651e-06
1.34651e-06
1.34651e-06
1.34651e-06
1.34651e-06
1.34651e-06
1.34651e-06
1.34651e-06
1.34651e-06
1.34651e-06
)
;
    }
    frontAndBack
    {
        type            empty;
    }
}


// ************************************************************************* //
