/*--------------------------------*- C++ -*----------------------------------*\
| =========                 |                                                 |
| \\      /  F ield         | OpenFOAM: The Open Source CFD Toolbox           |
|  \\    /   O peration     | Version:  2506                                  |
|   \\  /    A nd           | Website:  www.openfoam.com                      |
|    \\/     M anipulation  |                                                 |
\*---------------------------------------------------------------------------*/
FoamFile
{
    version     2.0;
    format      ascii;
    arch        "LSB;label=32;scalar=64";
    class       volSymmTensorField;
    location    "7";
    object      turbulenceProperties:devReff;
}
// * * * * * * * * * * * * * * * * * * * * * * * * * * * * * * * * * * * * * //

dimensions      [0 2 -2 0 0 0 0];

internalField   nonuniform List<symmTensor> 
400
(
(1.29891e-16 -1.50339e-16 -0 -2.4256e-16 -0 1.12668e-16)
(-4.48777e-17 1.67367e-16 -0 6.02307e-17 -0 -1.53531e-17)
(1.15002e-17 -3.59009e-17 -0 -1.50042e-17 -0 3.50397e-18)
(-5.77888e-19 7.58975e-18 -0 1.77087e-18 -0 -1.19298e-18)
(1.77697e-18 -2.0392e-18 -0 -1.70865e-18 -0 -6.83206e-20)
(1.50567e-19 5.11522e-19 -0 -3.01134e-19 -0 1.50567e-19)
(4.93477e-19 8.21299e-20 -0 -3.71857e-19 -0 -1.21619e-19)
(-7.99803e-20 7.63521e-19 -0 1.59961e-19 -0 -7.99803e-20)
(-5.0762e-19 2.24339e-20 -0 4.00144e-19 -0 1.07476e-19)
(-4.85978e-19 5.92593e-19 -0 3.5686e-19 -0 1.29118e-19)
(-1.70725e-20 -8.481e-20 -0 3.41449e-20 -0 -1.70725e-20)
(5.42659e-19 6.02993e-19 -0 -4.70222e-19 -0 -7.2437e-20)
(4.9256e-19 9.7263e-21 -0 -3.70025e-19 -0 -1.22536e-19)
(6.69066e-20 5.0268e-19 -0 -1.33813e-19 -0 6.69066e-20)
(7.28417e-20 5.2782e-19 -0 -1.45683e-19 -0 7.28417e-20)
(1.66517e-19 1.25952e-20 -0 -3.33034e-19 -0 1.66517e-19)
(1.01202e-18 1.125e-19 -0 -7.93855e-19 -0 -2.18168e-19)
(4.49608e-20 7.09105e-19 -0 -8.99216e-20 -0 4.49608e-20)
(-4.58876e-19 5.76716e-19 -0 3.02656e-19 -0 1.5622e-19)
(4.35581e-19 7.68339e-20 -0 -2.56066e-19 -0 -1.79515e-19)
(-2.45115e-16 -1.16479e-17 -0 4.4956e-16 -0 -2.04444e-16)
(8.59779e-17 7.4781e-18 -0 -1.13928e-16 -0 2.79498e-17)
(-2.08993e-17 -4.10491e-19 -0 2.69852e-17 -0 -6.08598e-18)
(2.38393e-18 1.15562e-18 -0 -4.76786e-18 -0 2.38393e-18)
(-1.34719e-18 6.41045e-19 -0 1.46019e-18 -0 -1.12998e-19)
(1.67381e-19 1.10969e-18 -0 -3.34761e-19 -0 1.67381e-19)
(9.33e-19 1.18996e-18 -0 -6.32049e-19 -0 -3.00951e-19)
(2.13814e-19 1.0488e-18 -0 -4.27628e-19 -0 2.13814e-19)
(1.21764e-19 8.96665e-19 -0 -2.43527e-19 -0 1.21764e-19)
(-6.53976e-22 1.44353e-18 -0 1.30795e-21 -0 -6.53976e-22)
(4.15687e-20 1.31327e-18 -0 -8.31374e-20 -0 4.15687e-20)
(-7.05757e-20 7.87427e-19 -0 1.41151e-19 -0 -7.05757e-20)
(-7.99732e-20 2.24716e-18 -0 1.59946e-19 -0 -7.99732e-20)
(-1.30808e-19 1.272e-19 -0 2.61616e-19 -0 -1.30808e-19)
(-1.04533e-18 8.62449e-19 -0 8.57686e-19 -0 1.87644e-19)
(-6.49577e-19 7.33068e-19 -0 6.82712e-19 -0 -3.31354e-20)
(-1.40134e-19 6.99788e-20 -0 2.80268e-19 -0 -1.40134e-19)
(3.5608e-19 2.67583e-19 -0 -9.58416e-20 -0 -2.60238e-19)
(-5.16966e-19 6.76752e-20 -0 4.17651e-19 -0 9.9314e-20)
(-9.58832e-19 -1.1198e-19 -0 6.85227e-19 -0 2.73605e-19)
(8.8095e-17 1.74135e-16 -0 -1.69393e-16 -0 8.12982e-17)
(-2.68361e-17 -1.61424e-16 -0 4.06722e-17 -0 -1.38361e-17)
(7.41091e-18 3.2961e-17 -0 -9.87027e-18 -0 2.45936e-18)
(-6.33593e-19 -7.53613e-18 -0 1.88609e-18 -0 -1.25249e-18)
(6.25489e-19 1.59146e-18 -0 -6.32166e-19 -0 6.6768e-21)
(7.54127e-20 -7.49562e-19 -0 -1.50825e-19 -0 7.54127e-20)
(1.10646e-18 -2.9663e-19 -0 -9.75564e-19 -0 -1.30899e-19)
(7.28072e-19 -4.86535e-19 -0 -8.37509e-19 -0 1.09436e-19)
(1.88436e-18 3.58298e-20 -0 -1.29453e-18 -0 -5.89837e-19)
(9.00892e-20 -5.20531e-19 -0 -1.80178e-19 -0 9.00892e-20)
(-6.57962e-20 -5.98511e-19 -0 1.31592e-19 -0 -6.57962e-20)
(-1.08489e-18 -7.56906e-19 -0 9.33025e-19 -0 1.51862e-19)
(-1.07523e-18 -1.44533e-18 -0 9.13872e-19 -0 1.61355e-19)
(-5.50411e-19 -5.15537e-19 -0 4.82578e-19 -0 6.78328e-20)
(3.31833e-19 -8.5275e-19 -0 -4.5504e-20 -0 -2.86329e-19)
(-6.13546e-19 -4.21508e-19 -0 6.08979e-19 -0 4.56774e-21)
(-1.90712e-18 -4.724e-19 -0 1.34212e-18 -0 5.65006e-19)
(3.04456e-19 -8.83671e-19 -0 9.07221e-21 -0 -3.13529e-19)
(6.9845e-21 -8.41501e-19 -0 -1.3969e-20 -0 6.9845e-21)
(4.21634e-19 -5.97707e-19 -0 -2.25387e-19 -0 -1.96247e-19)
(1.18919e-16 -1.42627e-16 -0 -1.98811e-16 -0 7.98917e-17)
(-5.22027e-17 1.34699e-16 -0 5.72328e-17 -0 -5.03013e-18)
(1.33986e-17 -2.7712e-17 -0 -1.37651e-17 -0 3.66494e-19)
(-3.11791e-18 5.16063e-18 -0 3.13315e-18 -0 -1.5243e-20)
(2.95708e-19 -2.28299e-18 -0 -5.91415e-19 -0 2.95708e-19)
(2.39033e-20 -5.38557e-19 -0 -4.78065e-20 -0 2.39033e-20)
(4.21922e-19 -7.1573e-19 -0 -2.23541e-19 -0 -1.98382e-19)
(-1.38204e-18 -7.36234e-19 -0 9.03303e-19 -0 4.78734e-19)
(-4.31128e-19 -9.29956e-19 -0 2.42088e-19 -0 1.8904e-19)
(4.63252e-19 -1.19712e-18 -0 -3.06384e-19 -0 -1.56868e-19)
(-1.01397e-18 -9.42751e-19 -0 7.87883e-19 -0 2.26091e-19)
(-1.26769e-19 -1.09996e-18 -0 2.53539e-19 -0 -1.26769e-19)
(3.29514e-20 -1.02396e-18 -0 -6.59029e-20 -0 3.29514e-20)
(4.36401e-19 -4.38511e-19 -0 -2.52954e-19 -0 -1.83447e-19)
(-4.15431e-19 -8.97125e-19 -0 2.111e-19 -0 2.04331e-19)
(3.85249e-19 -8.53281e-19 -0 -1.50786e-19 -0 -2.34463e-19)
(-5.29255e-20 -3.80681e-19 -0 1.05851e-19 -0 -5.29255e-20)
(4.93789e-20 -1.31035e-19 -0 -9.87579e-20 -0 4.93789e-20)
(-2.46692e-19 -1.08281e-19 -0 -1.26151e-19 -0 3.72843e-19)
(9.71985e-19 -3.97195e-19 -0 -7.05032e-19 -0 -2.66953e-19)
(-2.03397e-16 1.21213e-17 -0 3.55276e-16 -0 -1.51879e-16)
(8.0114e-17 -1.53608e-17 -0 -9.55456e-17 -0 1.54316e-17)
(-1.96993e-17 1.94902e-18 -0 2.26093e-17 -0 -2.90993e-18)
(3.63929e-18 -1.24711e-18 -0 -4.79146e-18 -0 1.15216e-18)
(-2.24436e-20 -1.42032e-20 -0 6.66575e-19 -0 -6.44131e-19)
(-4.2163e-19 -3.2123e-19 -0 2.2162e-19 -0 2.0001e-19)
(-1.581e-19 -6.70903e-19 -0 3.16199e-19 -0 -1.581e-19)
(2.81297e-19 -4.49601e-19 -0 5.89042e-20 -0 -3.40201e-19)
(-1.03258e-19 5.91071e-20 -0 2.06517e-19 -0 -1.03258e-19)
(2.01804e-21 -2.6801e-19 -0 -4.03609e-21 -0 2.01804e-21)
(4.66669e-19 -3.35821e-19 -0 -3.12074e-19 -0 -1.54596e-19)
(5.24065e-19 -1.59525e-19 -0 -4.26915e-19 -0 -9.71502e-20)
(1.04101e-19 1.86092e-19 -0 -2.08202e-19 -0 1.04101e-19)
(-2.20987e-20 -1.54448e-19 -0 4.41973e-20 -0 -2.20987e-20)
(-5.16222e-19 -1.58919e-19 -0 4.11458e-19 -0 1.04764e-19)
(-4.67882e-19 -3.47266e-19 -0 3.14829e-19 -0 1.53053e-19)
(1.72744e-20 3.40584e-19 -0 -3.45487e-20 -0 1.72744e-20)
(1.09796e-19 2.43586e-20 -0 -2.19591e-19 -0 1.09796e-19)
(1.66015e-19 -5.94812e-20 -0 -3.3203e-19 -0 1.66015e-19)
(9.09768e-19 4.89694e-19 -0 -5.7817e-19 -0 -3.31599e-19)
(1.54815e-16 1.25597e-16 -0 -2.71718e-16 -0 1.16903e-16)
(-5.94646e-17 -1.24872e-16 -0 7.09745e-17 -0 -1.15099e-17)
(1.44017e-17 2.60171e-17 -0 -1.69726e-17 -0 2.57093e-18)
(-2.83972e-18 -6.00758e-18 -0 3.81158e-18 -0 -9.71856e-19)
(4.1393e-20 6.9552e-19 -0 -8.27861e-20 -0 4.1393e-20)
(-1.14883e-18 -6.47805e-19 -0 1.0527e-18 -0 9.61244e-20)
(-1.42674e-19 9.32727e-20 -0 2.85348e-19 -0 -1.42674e-19)
(4.10043e-20 -1.98695e-19 -0 -8.20086e-20 -0 4.10043e-20)
(-3.31613e-19 -5.13642e-19 -0 4.09903e-20 -0 2.90623e-19)
(1.5774e-19 -1.90673e-19 -0 -3.15481e-19 -0 1.5774e-19)
(-2.07064e-19 1.36217e-19 -0 -2.07965e-19 -0 4.15028e-19)
(9.93836e-19 6.29245e-20 -0 -7.43589e-19 -0 -2.50247e-19)
(-1.69445e-20 -5.18106e-19 -0 3.38889e-20 -0 -1.69445e-20)
(-3.3554e-20 -1.30044e-19 -0 6.71081e-20 -0 -3.3554e-20)
(7.25773e-20 8.04391e-20 -0 -1.45155e-19 -0 7.25773e-20)
(9.89275e-19 5.18807e-19 -0 -7.35041e-19 -0 -2.54234e-19)
(9.53784e-19 3.04658e-19 -0 -6.64237e-19 -0 -2.89547e-19)
(-8.61389e-19 2.66724e-19 -0 4.79554e-19 -0 3.81836e-19)
(-4.51108e-20 2.43584e-19 -0 9.02215e-20 -0 -4.51108e-20)
(-8.31492e-21 5.9577e-19 -0 1.66298e-20 -0 -8.31492e-21)
(2.76099e-17 -1.74097e-16 -0 -6.455e-17 -0 3.69402e-17)
(-3.68722e-18 1.80606e-16 -0 1.36076e-17 -0 -9.92036e-18)
(8.51647e-19 -3.5987e-17 -0 -2.94968e-18 -0 2.09803e-18)
(3.27497e-19 8.77878e-18 -0 5.91295e-19 -0 -9.18792e-19)
(5.62036e-20 -1.92885e-18 -0 -1.12407e-19 -0 5.62036e-20)
(7.93992e-19 8.88923e-19 -0 -3.41992e-19 -0 -4.52e-19)
(-8.76817e-19 6.56157e-19 -0 5.07837e-19 -0 3.68981e-19)
(-1.41421e-20 4.56007e-19 -0 2.82841e-20 -0 -1.41421e-20)
(4.56651e-19 1.12946e-18 -0 -2.90548e-19 -0 -1.66102e-19)
(8.57007e-19 4.7857e-19 -0 -4.68611e-19 -0 -3.88396e-19)
(1.5118e-20 5.8724e-19 -0 -3.0236e-20 -0 1.5118e-20)
(2.99788e-20 1.77301e-19 -0 -5.99577e-20 -0 2.99788e-20)
(5.32868e-23 1.72477e-19 -0 -1.06574e-22 -0 5.32868e-23)
(6.83136e-20 3.33224e-19 -0 -1.36627e-19 -0 6.83136e-20)
(1.00978e-18 -1.39087e-19 -0 -7.74919e-19 -0 -2.34859e-19)
(1.91311e-19 -1.15457e-19 -0 -3.82623e-19 -0 1.91311e-19)
(1.00095e-18 -9.24656e-19 -0 -7.5754e-19 -0 -2.43405e-19)
(2.26214e-20 -3.14415e-20 -0 -4.52428e-20 -0 2.26214e-20)
(-9.5576e-19 -9.60195e-20 -0 6.67367e-19 -0 2.88393e-19)
(-6.64066e-20 -2.11465e-19 -0 1.32813e-19 -0 -6.64066e-20)
(-1.76244e-16 6.86893e-17 -0 3.45019e-16 -0 -1.68776e-16)
(4.9999e-17 -7.23244e-17 -0 -8.00417e-17 -0 3.00427e-17)
(-1.40944e-17 1.53518e-17 -0 2.00832e-17 -0 -5.98876e-18)
(-2.11942e-19 -2.95165e-18 -0 -2.69343e-18 -0 2.90537e-18)
(2.79235e-20 1.24291e-18 -0 5.67517e-19 -0 -5.9544e-19)
(7.56294e-20 4.4011e-19 -0 -1.51259e-19 -0 7.56294e-20)
(-3.94078e-20 5.96002e-20 -0 7.88155e-20 -0 -3.94078e-20)
(-9.02198e-20 9.15647e-19 -0 1.8044e-19 -0 -9.02198e-20)
(-6.01343e-19 6.70456e-19 -0 5.79616e-19 -0 2.17264e-20)
(-1.93152e-18 1.60138e-19 -0 1.37097e-18 -0 5.60549e-19)
(1.45602e-20 1.31525e-19 -0 -2.91203e-20 -0 1.45602e-20)
(9.2786e-20 8.5615e-20 -0 -1.85572e-19 -0 9.2786e-20)
(5.91472e-20 3.57823e-19 -0 -1.18294e-19 -0 5.91472e-20)
(8.10405e-20 5.33743e-19 -0 -1.62081e-19 -0 8.10405e-20)
(1.40491e-19 2.07232e-19 -0 -2.80982e-19 -0 1.40491e-19)
(4.59568e-19 5.32402e-19 -0 -2.96558e-19 -0 -1.6301e-19)
(3.91237e-19 8.6942e-19 -0 -1.59988e-19 -0 -2.31249e-19)
(1.39892e-21 9.14133e-20 -0 -2.79783e-21 -0 1.39892e-21)
(3.0118e-20 6.63295e-20 -0 -6.0236e-20 -0 3.0118e-20)
(-3.78419e-21 3.07334e-19 -0 7.56837e-21 -0 -3.78419e-21)
(1.56934e-16 7.04381e-17 -0 -3.0702e-16 -0 1.50086e-16)
(-4.43749e-17 -7.77571e-17 -0 7.12822e-17 -0 -2.69074e-17)
(1.31622e-17 1.46724e-17 -0 -1.82161e-17 -0 5.0539e-18)
(-3.14876e-19 -3.04761e-18 -0 2.50075e-18 -0 -2.18588e-18)
(3.21923e-19 1.37948e-18 -0 -6.43847e-19 -0 3.21923e-19)
(-6.1879e-19 -2.56331e-19 -0 6.14064e-19 -0 4.72645e-21)
(-1.3896e-20 -3.41284e-19 -0 2.77919e-20 -0 -1.3896e-20)
(5.15773e-21 -5.70394e-19 -0 -1.03155e-20 -0 5.15773e-21)
(-2.48622e-20 -4.69387e-19 -0 4.97244e-20 -0 -2.48622e-20)
(-4.23029e-19 -1.33504e-19 -0 2.22839e-19 -0 2.00189e-19)
(5.13707e-19 3.54772e-19 -0 -4.04292e-19 -0 -1.09415e-19)
(5.06877e-19 4.22065e-19 -0 -3.90684e-19 -0 -1.16193e-19)
(5.28499e-19 1.90212e-19 -0 -4.34022e-19 -0 -9.4477e-20)
(9.31366e-19 5.22866e-19 -0 -6.16886e-19 -0 -3.1448e-19)
(4.8817e-19 2.26994e-19 -0 -3.5351e-19 -0 -1.3466e-19)
(6.4781e-20 1.30881e-19 -0 -1.29562e-19 -0 6.4781e-20)
(-2.54273e-21 7.33002e-20 -0 5.08545e-21 -0 -2.54273e-21)
(-1.34912e-18 -7.34931e-19 -0 8.30352e-19 -0 5.18769e-19)
(-1.45258e-20 -8.83203e-20 -0 2.90517e-20 -0 -1.45258e-20)
(2.83981e-20 -1.72129e-19 -0 -5.67962e-20 -0 2.83981e-20)
(-4.76895e-17 -1.22706e-16 -0 9.97377e-17 -0 -5.20482e-17)
(9.95823e-18 1.52572e-16 -0 -2.11644e-17 -0 1.12062e-17)
(-2.53268e-18 -2.92086e-17 -0 5.06537e-18 -0 -2.53268e-18)
(-1.94863e-19 7.88849e-18 -0 -8.57894e-19 -0 1.05276e-18)
(-1.60431e-19 -1.10696e-18 -0 3.20862e-19 -0 -1.60431e-19)
(-5.80709e-20 6.32333e-19 -0 1.16142e-19 -0 -5.80709e-20)
(-5.35517e-19 6.82545e-19 -0 4.47473e-19 -0 8.80437e-20)
(-4.52924e-20 9.32614e-19 -0 9.05848e-20 -0 -4.52924e-20)
(-8.87061e-19 6.64787e-20 -0 5.27298e-19 -0 3.59763e-19)
(8.38234e-19 5.98793e-19 -0 -4.29748e-19 -0 -4.08486e-19)
(-1.44393e-19 6.06248e-19 -0 2.88785e-19 -0 -1.44393e-19)
(-9.81482e-19 6.32847e-20 -0 7.16541e-19 -0 2.64941e-19)
(-7.84707e-21 3.44025e-19 -0 1.56941e-20 -0 -7.84707e-21)
(7.82077e-20 -6.51763e-19 -0 -1.56415e-19 -0 7.82077e-20)
(-9.18995e-19 -3.61613e-19 -0 5.9205e-19 -0 3.26945e-19)
(-1.66411e-20 -5.99886e-19 -0 3.32823e-20 -0 -1.66411e-20)
(4.72803e-19 -4.34149e-19 -0 -3.22781e-19 -0 -1.50021e-19)
(1.28122e-18 -2.01941e-19 -0 -6.94133e-19 -0 -5.87088e-19)
(-9.44254e-19 -1.32061e-19 -0 6.43061e-19 -0 3.01194e-19)
(-3.18662e-20 -2.94336e-19 -0 6.37324e-20 -0 -3.18662e-20)
(-3.13959e-17 1.05931e-16 -0 7.71158e-17 -0 -4.57198e-17)
(6.99895e-19 -1.46625e-16 -0 -1.26336e-17 -0 1.19337e-17)
(-1.25005e-18 2.80362e-17 -0 3.74805e-18 -0 -2.498e-18)
(-1.88801e-18 -8.16741e-18 -0 6.56384e-19 -0 1.23163e-18)
(-1.8862e-19 2.39141e-19 -0 3.7724e-19 -0 -1.8862e-19)
(3.9862e-19 -1.56489e-18 -0 -1.73465e-19 -0 -2.25156e-19)
(-5.15683e-19 -1.29609e-18 -0 4.07688e-19 -0 1.07995e-19)
(-9.5229e-20 -9.78382e-19 -0 1.90458e-19 -0 -9.5229e-20)
(-9.17685e-19 -5.48155e-19 -0 5.88313e-19 -0 3.29372e-19)
(-7.50972e-20 -6.24149e-19 -0 1.50194e-19 -0 -7.50972e-20)
(-5.24034e-19 -9.6704e-19 -0 4.24689e-19 -0 9.93458e-20)
(3.8042e-19 -9.42608e-20 -0 -1.37513e-19 -0 -2.42907e-19)
(-7.45445e-21 -7.76093e-19 -0 1.49089e-20 -0 -7.45445e-21)
(2.65264e-20 -6.02452e-19 -0 -5.30528e-20 -0 2.65264e-20)
(-3.14587e-20 -2.53714e-19 -0 6.29174e-20 -0 -3.14587e-20)
(8.71004e-19 -8.80392e-20 -0 -4.95946e-19 -0 -3.75058e-19)
(-8.07031e-19 -5.16949e-21 -0 3.68185e-19 -0 4.38846e-19)
(-3.17199e-19 4.56461e-19 -0 1.15142e-20 -0 3.05685e-19)
(4.18099e-19 1.29857e-20 -0 -2.13361e-19 -0 -2.04739e-19)
(-3.25963e-20 5.43196e-19 -0 6.51926e-20 -0 -3.25963e-20)
(8.37449e-17 -7.85641e-17 -0 -1.93651e-16 -0 1.09906e-16)
(-6.68111e-18 9.16956e-17 -0 3.52096e-17 -0 -2.85285e-17)
(3.77118e-18 -2.03439e-17 -0 -9.41461e-18 -0 5.64344e-18)
(1.02931e-18 4.42702e-18 -0 1.06157e-18 -0 -2.09088e-18)
(-6.43861e-20 -1.10586e-18 -0 -4.95164e-19 -0 5.5955e-19)
(8.93251e-19 4.99502e-19 -0 -5.38731e-19 -0 -3.54521e-19)
(3.01106e-20 1.7604e-19 -0 -6.02211e-20 -0 3.01106e-20)
(-4.92966e-19 -2.29982e-20 -0 3.62198e-19 -0 1.30769e-19)
(4.13541e-20 3.4815e-19 -0 -8.27081e-20 -0 4.13541e-20)
(9.60528e-19 8.66635e-21 -0 -6.73887e-19 -0 -2.86641e-19)
(9.49102e-19 2.34784e-19 -0 -6.51227e-19 -0 -2.97875e-19)
(-3.55518e-19 2.23524e-19 -0 8.75999e-20 -0 2.67918e-19)
(2.17624e-20 5.6332e-19 -0 -4.35248e-20 -0 2.17624e-20)
(1.97969e-21 6.30598e-19 -0 -3.95939e-21 -0 1.97969e-21)
(1.00529e-19 1.17557e-18 -0 -2.01058e-19 -0 1.00529e-19)
(6.45599e-20 5.63643e-19 -0 -1.2912e-19 -0 6.45599e-20)
(8.27822e-19 7.2511e-19 -0 -4.09552e-19 -0 -4.1827e-19)
(-6.31387e-20 7.63495e-19 -0 1.26277e-19 -0 -6.31387e-20)
(2.31641e-20 6.39003e-20 -0 -4.63282e-20 -0 2.31641e-20)
(-6.23939e-21 -2.75956e-20 -0 1.24788e-20 -0 -6.23939e-21)
(-1.22304e-16 1.52503e-17 -0 2.52706e-16 -0 -1.30403e-16)
(2.74038e-17 -3.32849e-18 -0 -5.66806e-17 -0 2.92768e-17)
(-7.80418e-18 3.06003e-18 -0 1.37358e-17 -0 -5.93158e-18)
(-1.26669e-19 7.04372e-19 -0 -2.24326e-18 -0 2.36993e-18)
(5.02347e-19 7.55014e-19 -0 2.43403e-19 -0 -7.4575e-19)
(-7.79646e-19 7.8878e-19 -0 3.11296e-19 -0 4.6835e-19)
(-1.14437e-19 4.71044e-19 -0 2.28874e-19 -0 -1.14437e-19)
(-7.42162e-20 -5.98399e-20 -0 1.48432e-19 -0 -7.42162e-20)
(3.62526e-20 7.01631e-19 -0 -7.25051e-20 -0 3.62526e-20)
(-2.91293e-19 5.08324e-19 -0 -4.11095e-20 -0 3.32402e-19)
(5.69655e-19 6.95064e-19 -0 -5.1571e-19 -0 -5.39445e-20)
(-8.36832e-21 6.7329e-19 -0 1.67366e-20 -0 -8.36832e-21)
(-7.48475e-20 5.57727e-19 -0 1.49695e-19 -0 -7.48475e-20)
(-2.69093e-20 5.25934e-19 -0 5.38187e-20 -0 -2.69093e-20)
(9.25442e-19 -3.60472e-20 -0 -6.04279e-19 -0 -3.21163e-19)
(-9.90989e-19 6.70975e-20 -0 7.35481e-19 -0 2.55508e-19)
(-6.29877e-19 -4.36751e-19 -0 6.366e-19 -0 -6.72218e-21)
(-1.38911e-18 -5.17145e-19 -0 9.0891e-19 -0 4.80196e-19)
(4.11859e-19 -7.23656e-20 -0 -2.00664e-19 -0 -2.11195e-19)
(-9.44231e-21 -5.42098e-20 -0 1.88846e-20 -0 -9.44231e-21)
(1.0863e-16 8.94193e-17 -0 -2.18505e-16 -0 1.09876e-16)
(-2.66184e-17 -9.66778e-17 -0 5.01145e-17 -0 -2.34961e-17)
(8.42954e-18 2.06319e-17 -0 -1.24888e-17 -0 4.05929e-18)
(-1.49348e-18 -4.59922e-18 -0 2.98697e-18 -0 -1.49348e-18)
(-6.59625e-19 1.12185e-18 -0 7.09104e-20 -0 5.88714e-19)
(-1.48161e-19 -7.59405e-19 -0 2.96322e-19 -0 -1.48161e-19)
(-3.77667e-19 5.39805e-20 -0 1.31316e-19 -0 2.46351e-19)
(5.12682e-19 -2.49079e-19 -0 -4.01397e-19 -0 -1.11285e-19)
(4.70001e-19 -2.61791e-19 -0 -3.16133e-19 -0 -1.53868e-19)
(-1.22241e-20 -1.67909e-19 -0 2.44481e-20 -0 -1.22241e-20)
(5.11135e-19 -5.01389e-19 -0 -3.98552e-19 -0 -1.12584e-19)
(1.14902e-19 -3.68674e-19 -0 -2.29804e-19 -0 1.14902e-19)
(6.01422e-20 -3.22197e-20 -0 -1.20284e-19 -0 6.01422e-20)
(-4.49942e-19 -2.46575e-19 -0 2.76368e-19 -0 1.73574e-19)
(-4.75002e-19 -4.94575e-19 -0 3.26582e-19 -0 1.4842e-19)
(-9.29385e-20 -8.42908e-19 -0 1.85877e-19 -0 -9.29385e-20)
(-4.29679e-20 -5.46752e-19 -0 8.59358e-20 -0 -4.29679e-20)
(9.13191e-19 -1.75871e-19 -0 -5.79944e-19 -0 -3.33246e-19)
(3.2596e-20 -1.3629e-19 -0 -6.51921e-20 -0 3.2596e-20)
(9.90074e-21 -3.58587e-19 -0 -1.98015e-20 -0 9.90074e-21)
(8.05846e-18 -1.56484e-16 -0 1.13057e-17 -0 -1.93642e-17)
(-1.77577e-17 1.63588e-16 -0 6.7847e-18 -0 1.0973e-17)
(2.23084e-18 -3.36893e-17 -0 -9.05006e-20 -0 -2.14034e-18)
(-1.29235e-18 8.09643e-18 -0 7.1149e-19 -0 5.80862e-19)
(4.04505e-19 -1.26271e-18 -0 -1.84707e-19 -0 -2.19798e-19)
(-4.34514e-19 9.90499e-19 -0 2.44776e-19 -0 1.89738e-19)
(4.88257e-19 4.15958e-19 -0 -3.52363e-19 -0 -1.35894e-19)
(-3.30496e-20 8.52649e-19 -0 6.60993e-20 -0 -3.30496e-20)
(-9.71883e-20 -7.06808e-20 -0 1.94377e-19 -0 -9.71883e-20)
(-4.80434e-19 7.58611e-19 -0 3.3692e-19 -0 1.43514e-19)
(-8.47432e-19 8.16528e-19 -0 4.47164e-19 -0 4.00268e-19)
(1.82286e-19 1.02521e-19 -0 -3.64572e-19 -0 1.82286e-19)
(1.45812e-18 4.69876e-19 -0 -1.04513e-18 -0 -4.12986e-19)
(-9.47633e-20 3.9366e-19 -0 1.89527e-19 -0 -9.47633e-20)
(-1.60637e-18 9.87316e-19 -0 1.34208e-18 -0 2.6429e-19)
(-5.65105e-19 1.2895e-18 -0 5.06712e-19 -0 5.8393e-20)
(4.40398e-19 5.47081e-19 -0 -2.57392e-19 -0 -1.83006e-19)
(1.7233e-20 -7.3698e-21 -0 -3.4466e-20 -0 1.7233e-20)
(-4.17187e-19 3.61152e-20 -0 2.11071e-19 -0 2.06116e-19)
(4.35318e-19 9.52139e-21 -0 -2.47408e-19 -0 -1.8791e-19)
(-1.535e-16 9.86546e-17 -0 2.65234e-16 -0 -1.11733e-16)
(6.54759e-17 -1.12004e-16 -0 -7.47264e-17 -0 9.25052e-18)
(-1.51523e-17 2.09269e-17 -0 1.7188e-17 -0 -2.03571e-18)
(2.73582e-18 -5.60881e-18 -0 -3.59799e-18 -0 8.6217e-19)
(-1.6137e-18 1.47888e-19 -0 1.35405e-18 -0 2.5965e-19)
(2.03972e-19 -8.85569e-19 -0 -4.07944e-19 -0 2.03972e-19)
(5.3183e-19 -8.60372e-19 -0 -4.39364e-19 -0 -9.24665e-20)
(-4.20912e-19 -9.31466e-19 -0 2.17579e-19 -0 2.03332e-19)
(4.27442e-19 -1.15097e-18 -0 -2.30738e-19 -0 -1.96704e-19)
(8.78088e-19 -6.02376e-19 -0 -5.07992e-19 -0 -3.70096e-19)
(-9.83455e-19 -5.59838e-19 -0 7.18919e-19 -0 2.64535e-19)
(-5.46849e-19 -8.45414e-20 -0 4.69757e-19 -0 7.7092e-20)
(4.37016e-19 -8.64285e-19 -0 -2.50188e-19 -0 -1.86829e-19)
(5.00579e-20 -6.39048e-19 -0 -1.00116e-19 -0 5.00579e-20)
(-7.84642e-20 -7.24565e-19 -0 1.56928e-19 -0 -7.84642e-20)
(-5.6648e-19 -1.10763e-18 -0 5.0932e-19 -0 5.716e-20)
(-1.21508e-19 -4.85253e-19 -0 2.43016e-19 -0 -1.21508e-19)
(-9.81906e-19 -1.36272e-19 -0 7.1683e-19 -0 2.65076e-19)
(-4.52427e-20 -1.40255e-19 -0 9.04853e-20 -0 -4.52427e-20)
(-7.73699e-21 -1.97804e-20 -0 1.5474e-20 -0 -7.73699e-21)
(1.89902e-16 5.74045e-17 -0 -3.43015e-16 -0 1.53113e-16)
(-7.14773e-17 -3.31499e-17 -0 8.9215e-17 -0 -1.77377e-17)
(1.90947e-17 7.92835e-18 -0 -2.25706e-17 -0 3.47588e-18)
(-1.77108e-18 -2.52748e-18 -0 3.54216e-18 -0 -1.77108e-18)
(4.10751e-19 3.48589e-19 -0 -8.21503e-19 -0 4.10751e-19)
(2.80046e-20 -3.54385e-19 -0 -5.60091e-20 -0 2.80046e-20)
(6.84913e-20 4.17041e-19 -0 -1.36983e-19 -0 6.84913e-20)
(-5.12474e-21 7.29107e-20 -0 1.02495e-20 -0 -5.12474e-21)
(-1.05318e-20 1.65339e-19 -0 2.10636e-20 -0 -1.05318e-20)
(-4.7864e-20 -1.18158e-18 -0 9.5728e-20 -0 -4.7864e-20)
(-9.49708e-20 -7.9017e-19 -0 1.89942e-19 -0 -9.49708e-20)
(-6.10638e-19 -4.68396e-19 -0 5.97186e-19 -0 1.34528e-20)
(-9.63952e-19 -4.25358e-19 -0 6.79915e-19 -0 2.84037e-19)
(5.75528e-19 -3.92639e-19 -0 -5.27116e-19 -0 -4.84121e-20)
(7.24595e-19 -2.70585e-19 -0 -8.25345e-19 -0 1.0075e-19)
(1.44127e-19 -2.04748e-19 -0 -2.88255e-19 -0 1.44127e-19)
(4.76586e-19 -7.65078e-20 -0 -3.29477e-19 -0 -1.47109e-19)
(9.06654e-19 -4.33597e-19 -0 -5.66028e-19 -0 -3.40625e-19)
(-3.7743e-19 -1.78172e-19 -0 1.31268e-19 -0 2.46162e-19)
(4.09598e-19 -6.99545e-20 -0 -1.95677e-19 -0 -2.13921e-19)
(-9.44859e-18 -1.72135e-16 -0 3.51126e-17 -0 -2.56641e-17)
(-6.27304e-18 1.4701e-16 -0 -2.45449e-18 -0 8.72753e-18)
(2.29766e-19 -2.92588e-17 -0 1.41517e-18 -0 -1.64493e-18)
(-1.01492e-18 7.73462e-18 -0 1.55295e-19 -0 8.59623e-19)
(4.67494e-19 -6.76626e-19 -0 -3.10243e-19 -0 -1.57251e-19)
(-1.49651e-20 1.18918e-18 -0 2.99301e-20 -0 -1.49651e-20)
(-1.19688e-19 7.504e-19 -0 2.39376e-19 -0 -1.19688e-19)
(-9.98785e-20 7.47997e-19 -0 1.99757e-19 -0 -9.98785e-20)
(-6.1865e-19 7.85937e-19 -0 6.12861e-19 -0 5.78915e-21)
(-1.46394e-18 1.08502e-18 -0 1.05472e-18 -0 4.0922e-19)
(2.6298e-20 2.84344e-19 -0 -5.2596e-20 -0 2.6298e-20)
(4.75717e-19 9.07308e-19 -0 -3.272e-19 -0 -1.48517e-19)
(-5.22256e-19 1.10054e-18 -0 4.20374e-19 -0 1.01881e-19)
(-1.2226e-19 8.8375e-19 -0 2.44521e-19 -0 -1.2226e-19)
(-6.70857e-21 8.58173e-19 -0 1.34171e-20 -0 -6.70857e-21)
(5.14597e-19 5.11605e-19 -0 -4.05263e-19 -0 -1.09334e-19)
(8.48607e-19 2.41828e-19 -0 -4.4954e-19 -0 -3.99066e-19)
(-7.57916e-19 2.09288e-19 -0 2.68271e-19 -0 4.89645e-19)
(5.25252e-20 -1.84774e-20 -0 -1.0505e-19 -0 5.25252e-20)
(-6.18466e-21 3.4037e-19 -0 1.23693e-20 -0 -6.18466e-21)
(-1.91091e-16 5.35477e-17 -0 3.21674e-16 -0 -1.30583e-16)
(8.41512e-17 -5.83397e-17 -0 -9.14133e-17 -0 7.26214e-18)
(-1.95785e-17 9.41992e-18 -0 2.16572e-17 -0 -2.07869e-18)
(3.8373e-18 -3.82266e-18 -0 -4.54988e-18 -0 7.1258e-19)
(-6.96111e-19 -8.3877e-19 -0 7.67378e-19 -0 -7.1267e-20)
(1.46169e-19 -1.66042e-18 -0 -2.92338e-19 -0 1.46169e-19)
(-7.57683e-19 -7.04777e-19 -0 2.65976e-19 -0 4.91707e-19)
(9.98279e-19 -1.36458e-18 -0 -7.47273e-19 -0 -2.51007e-19)
(4.68812e-19 -1.53522e-18 -0 -3.13077e-19 -0 -1.55735e-19)
(-7.16913e-20 -9.00582e-19 -0 1.43383e-19 -0 -7.16913e-20)
(-1.00638e-19 -2.66014e-19 -0 2.01275e-19 -0 -1.00638e-19)
(-5.14505e-20 -5.82007e-19 -0 1.02901e-19 -0 -5.14505e-20)
(-5.14576e-19 -4.64873e-19 -0 4.04903e-19 -0 1.09673e-19)
(-9.8977e-19 -5.41993e-19 -0 7.31152e-19 -0 2.58617e-19)
(-5.51412e-19 -2.90046e-19 -0 4.78725e-19 -0 7.26873e-20)
(4.38676e-19 7.18807e-20 -0 -2.53308e-19 -0 -1.85368e-19)
(1.15096e-21 -3.51263e-19 -0 -2.30191e-21 -0 1.15096e-21)
(-2.33408e-20 4.48498e-19 -0 4.66815e-20 -0 -2.33408e-20)
(-3.15819e-20 -5.8266e-20 -0 6.31638e-20 -0 -3.15819e-20)
(-1.89806e-21 -4.69005e-22 -0 3.79613e-21 -0 -1.89806e-21)
(1.14047e-16 9.2379e-17 -0 -2.03765e-16 -0 8.97176e-17)
(-4.54562e-17 -8.9405e-17 -0 5.41061e-17 -0 -8.64987e-18)
(1.14713e-17 2.08323e-17 -0 -1.3585e-17 -0 2.11373e-18)
(-1.38594e-18 -4.32906e-18 -0 2.14805e-18 -0 -7.62108e-19)
(6.3473e-19 1.10817e-18 -0 -6.45623e-19 -0 1.08935e-20)
(2.50177e-19 3.4428e-19 -0 1.23483e-19 -0 -3.7366e-19)
(-4.48944e-19 4.08679e-19 -0 2.74052e-19 -0 1.74892e-19)
(5.3424e-20 1.0932e-18 -0 -1.06848e-19 -0 5.3424e-20)
(1.03488e-18 8.28496e-19 -0 -8.22081e-19 -0 -2.12796e-19)
(2.07273e-19 6.57911e-20 -0 -4.14547e-19 -0 2.07273e-19)
(6.309e-20 -5.80902e-20 -0 -1.2618e-19 -0 6.309e-20)
(-8.63654e-21 -3.23274e-20 -0 1.72731e-20 -0 -8.63654e-21)
(4.85631e-19 1.13599e-20 -0 -3.47425e-19 -0 -1.38206e-19)
(1.05117e-19 6.26899e-19 -0 -2.10235e-19 -0 1.05117e-19)
(1.2655e-19 2.75958e-19 -0 -2.531e-19 -0 1.2655e-19)
(5.11698e-19 3.06868e-19 -0 -3.99559e-19 -0 -1.12139e-19)
(5.86979e-19 3.10795e-19 -0 -5.50122e-19 -0 -3.68573e-20)
(6.88713e-20 -6.7735e-19 -0 -1.37743e-19 -0 6.88713e-20)
(1.8493e-20 -5.0641e-20 -0 -3.69859e-20 -0 1.8493e-20)
(-3.73275e-21 -2.16713e-20 -0 7.4655e-21 -0 -3.73275e-21)
)
;

boundaryField
{
    movingWall
    {
        type            calculated;
        value           nonuniform List<symmTensor> 
20
(
(2.23032e-16 1.76188e-20 -0 -4.24923e-16 -0 2.0189e-16)
(-6.67884e-17 -5.50716e-17 -0 1.01593e-16 -0 -3.48045e-17)
(1.65787e-17 1.8426e-17 -0 -2.5026e-17 -0 8.44723e-18)
(-2.61251e-18 -4.80198e-19 -0 4.68292e-18 -0 -2.07041e-18)
(7.64705e-19 3.35646e-18 -0 -9.8731e-19 -0 2.22604e-19)
(-4.45673e-20 2.42161e-18 -0 6.31236e-19 -0 -5.86668e-19)
(-6.05907e-19 1.86044e-18 -0 6.69713e-19 -0 -6.38062e-20)
(-1.81745e-19 3.24544e-18 -0 3.63491e-19 -0 -1.81745e-19)
(8.43146e-19 2.39829e-18 -0 -6.0209e-19 -0 -2.41056e-19)
(2.92508e-19 1.83353e-18 -0 -5.85017e-19 -0 2.92508e-19)
(2.72801e-19 1.72588e-18 -0 -5.45602e-19 -0 2.72801e-19)
(1.57897e-19 1.74827e-18 -0 -3.15795e-19 -0 1.57897e-19)
(5.5929e-19 1.78623e-18 -0 -5.76479e-19 -0 1.71891e-20)
(1.84221e-19 1.33493e-18 -0 -3.68443e-19 -0 1.84221e-19)
(2.04986e-19 8.5693e-19 -0 -4.09972e-19 -0 2.04986e-19)
(4.62292e-19 4.39701e-19 -0 -3.82482e-19 -0 -7.98093e-20)
(5.54685e-19 4.43114e-19 -0 -5.67269e-19 -0 1.2584e-20)
(9.82893e-20 -9.34681e-19 -0 -1.96579e-19 -0 9.82893e-20)
(6.92783e-20 -4.4006e-20 -0 -1.38557e-19 -0 6.92783e-20)
(-1.906e-20 -1.88319e-20 -0 3.81199e-20 -0 -1.906e-20)
)
;
    }
    fixedWalls
    {
        type            calculated;
        value           nonuniform List<symmTensor> 
60
(
(1.69491e-16 -6.21983e-16 -0 -2.41281e-16 -0 7.17909e-17)
(-3.24412e-16 -2.36775e-17 -0 4.49873e-16 -0 -1.2546e-16)
(1.01736e-16 5.88585e-16 -0 -1.60839e-16 -0 5.91031e-17)
(1.98536e-16 -4.92021e-16 -0 -2.21213e-16 -0 2.26769e-17)
(-3.05149e-16 5.33712e-17 -0 3.74043e-16 -0 -6.8894e-17)
(2.29044e-16 4.55111e-16 -0 -2.84006e-16 -0 5.49614e-17)
(9.94369e-18 -6.53295e-16 -0 -4.91973e-17 -0 3.92536e-17)
(-1.87082e-16 2.62488e-16 -0 3.17321e-16 -0 -1.30239e-16)
(1.67027e-16 2.78959e-16 -0 -2.8254e-16 -0 1.15513e-16)
(-3.81279e-17 -5.43918e-16 -0 8.51375e-17 -0 -4.70096e-17)
(-1.29812e-18 5.22111e-16 -0 5.41106e-17 -0 -5.28125e-17)
(2.52981e-17 -3.34409e-16 -0 -1.44743e-16 -0 1.19445e-16)
(-1.00463e-16 1.92142e-17 -0 2.16914e-16 -0 -1.16451e-16)
(9.99664e-17 3.49125e-16 -0 -1.92827e-16 -0 9.2861e-17)
(6.57147e-17 -5.90652e-16 -0 -1.95189e-17 -0 -4.61958e-17)
(-2.41906e-16 3.98955e-16 -0 2.8486e-16 -0 -4.29542e-17)
(2.65755e-16 1.23524e-16 -0 -3.48546e-16 -0 8.27906e-17)
(2.38391e-17 -5.29854e-16 -0 1.44943e-17 -0 -3.83334e-17)
(-3.15161e-16 2.04243e-16 -0 3.54098e-16 -0 -3.8937e-17)
(1.66722e-16 3.3238e-16 -0 -2.10876e-16 -0 4.41538e-17)
(6.14608e-19 2.3165e-19 -0 -3.41037e-19 -0 -2.73571e-19)
(-1.30494e-18 -9.67161e-20 -0 8.33528e-19 -0 4.71414e-19)
(6.00641e-19 -7.63628e-19 -0 -3.13104e-19 -0 -2.87537e-19)
(1.31203e-18 -3.16634e-19 -0 -8.47696e-19 -0 -4.6433e-19)
(1.25602e-18 5.45204e-19 -0 -7.35688e-19 -0 -5.20334e-19)
(-7.25268e-21 6.56175e-19 -0 1.45054e-20 -0 -7.25268e-21)
(5.34243e-19 -4.04127e-20 -0 -1.80308e-19 -0 -3.53935e-19)
(-3.29642e-21 3.08919e-19 -0 6.59284e-21 -0 -3.29642e-21)
(2.47299e-20 -6.01912e-20 -0 -4.94598e-20 -0 2.47299e-20)
(1.15649e-18 -8.48025e-20 -0 -5.36631e-19 -0 -6.19863e-19)
(5.63745e-19 5.86498e-19 -0 -2.39311e-19 -0 -3.24434e-19)
(-5.4303e-21 1.60026e-20 -0 1.08606e-20 -0 -5.4303e-21)
(-8.21644e-21 1.18149e-20 -0 1.64329e-20 -0 -8.21644e-21)
(8.61372e-21 -3.04347e-19 -0 -1.72274e-20 -0 8.61372e-21)
(1.20149e-18 6.34972e-20 -0 -6.26621e-19 -0 -5.74868e-19)
(-6.72831e-21 7.02096e-20 -0 1.34566e-20 -0 -6.72831e-21)
(5.86832e-19 2.31274e-20 -0 -2.85485e-19 -0 -3.01347e-19)
(-5.37587e-21 3.09538e-19 -0 1.07517e-20 -0 -5.37587e-21)
(-1.64955e-21 -9.12785e-21 -0 3.29909e-21 -0 -1.64955e-21)
(-3.24368e-21 2.85899e-20 -0 6.48736e-21 -0 -3.24368e-21)
(4.16282e-16 -7.09089e-17 -0 -8.17384e-16 -0 4.01103e-16)
(-1.04153e-16 1.26316e-16 -0 1.82285e-16 -0 -7.81322e-17)
(2.54635e-17 -3.50952e-17 -0 -4.38796e-17 -0 1.84162e-17)
(-3.51553e-18 3.67845e-18 -0 7.57317e-18 -0 -4.05763e-18)
(2.56637e-18 -3.7466e-18 -0 -3.50643e-18 -0 9.40065e-19)
(1.92799e-19 -8.81449e-19 -0 -3.85599e-19 -0 1.92799e-19)
(6.41384e-19 -1.70397e-18 -0 -7.40667e-19 -0 9.9283e-20)
(-2.22927e-22 -1.20146e-18 -0 4.45853e-22 -0 -2.22927e-22)
(-4.30247e-19 -1.75659e-18 -0 3.18392e-19 -0 1.11854e-19)
(-4.14348e-19 -1.79619e-18 -0 2.86595e-19 -0 1.27753e-19)
(-1.59589e-20 -2.73928e-18 -0 3.19177e-20 -0 -1.59589e-20)
(5.07775e-19 -1.34293e-18 -0 -4.73448e-19 -0 -3.43265e-20)
(3.73887e-19 -1.76778e-18 -0 -2.05672e-19 -0 -1.68214e-19)
(1.23515e-19 -1.43134e-18 -0 -2.4703e-19 -0 1.23515e-19)
(2.76686e-19 -1.40919e-18 -0 -5.53371e-19 -0 2.76686e-19)
(3.28631e-19 -1.32117e-18 -0 -6.57262e-19 -0 3.28631e-19)
(9.69886e-19 9.91492e-20 -0 -8.55569e-19 -0 -1.14317e-19)
(6.4233e-20 8.28531e-20 -0 -1.28466e-19 -0 6.4233e-20)
(-3.35258e-19 -3.3825e-20 -0 1.28415e-19 -0 2.06843e-19)
(5.15834e-19 -3.76373e-19 -0 -4.89566e-19 -0 -2.62673e-20)
)
;
    }
    frontAndBack
    {
        type            empty;
    }
}


// ************************************************************************* //
