/*--------------------------------*- C++ -*----------------------------------*\
| =========                 |                                                 |
| \\      /  F ield         | OpenFOAM: The Open Source CFD Toolbox           |
|  \\    /   O peration     | Version:  2506                                  |
|   \\  /    A nd           | Website:  www.openfoam.com                      |
|    \\/     M anipulation  |                                                 |
\*---------------------------------------------------------------------------*/
FoamFile
{
    version     2.0;
    format      ascii;
    arch        "LSB;label=32;scalar=64";
    class       volScalarField;
    location    "7";
    object      turbulenceProperties:L;
}
// * * * * * * * * * * * * * * * * * * * * * * * * * * * * * * * * * * * * * //

dimensions      [0 1 0 0 0 0 0];

internalField   nonuniform List<scalar> 
400
(
0.00102215
0.00102215
0.00102215
0.00102215
0.00102215
0.00102215
0.00102215
0.00102215
0.00102215
0.00102215
0.00102215
0.00102215
0.00102215
0.00102215
0.00102215
0.00102215
0.00102215
0.00102215
0.00102215
0.00102215
0.00102205
0.00103711
0.00103575
0.00103521
0.00103409
0.00103354
0.00103243
0.00103186
0.00103076
0.00103018
0.00102909
0.0010285
0.00102742
0.00102681
0.00102574
0.00102512
0.00102406
0.00102342
0.00102289
0.00102205
0.00102192
0.00103758
0.00103615
0.00103557
0.0010344
0.00103381
0.00103265
0.00103205
0.00103091
0.0010303
0.00102917
0.00102855
0.00102744
0.00102681
0.0010257
0.00102507
0.00102397
0.00102333
0.00102279
0.00102192
0.00102183
0.00103783
0.00103637
0.00103577
0.00103458
0.00103398
0.00103279
0.00103218
0.00103101
0.00103039
0.00102924
0.0010286
0.00102746
0.00102682
0.00102569
0.00102504
0.00102393
0.00102327
0.00102271
0.00102183
0.00102178
0.00103805
0.00103656
0.00103596
0.00103474
0.00103413
0.00103293
0.00103231
0.00103112
0.00103049
0.00102931
0.00102867
0.0010275
0.00102686
0.0010257
0.00102505
0.00102391
0.00102324
0.00102267
0.00102178
0.00102175
0.00103821
0.00103671
0.0010361
0.00103486
0.00103425
0.00103303
0.0010324
0.0010312
0.00103056
0.00102937
0.00102872
0.00102755
0.00102689
0.00102573
0.00102506
0.00102391
0.00102323
0.00102266
0.00102175
0.00102174
0.00103832
0.0010368
0.00103619
0.00103495
0.00103433
0.0010331
0.00103246
0.00103126
0.00103061
0.00102942
0.00102876
0.00102758
0.00102691
0.00102574
0.00102507
0.00102391
0.00102323
0.00102265
0.00102174
0.00102174
0.00103838
0.00103687
0.00103625
0.001035
0.00103438
0.00103314
0.00103251
0.00103129
0.00103064
0.00102944
0.00102878
0.0010276
0.00102693
0.00102575
0.00102508
0.00102392
0.00102323
0.00102265
0.00102174
0.00102173
0.00103843
0.0010369
0.00103628
0.00103503
0.00103441
0.00103317
0.00103253
0.00103131
0.00103066
0.00102946
0.0010288
0.00102761
0.00102694
0.00102576
0.00102508
0.00102392
0.00102323
0.00102265
0.00102173
0.00102173
0.00103845
0.00103693
0.00103631
0.00103506
0.00103443
0.00103319
0.00103255
0.00103133
0.00103068
0.00102947
0.00102881
0.00102762
0.00102695
0.00102577
0.00102509
0.00102392
0.00102323
0.00102265
0.00102173
0.00102173
0.00103848
0.00103695
0.00103632
0.00103507
0.00103444
0.0010332
0.00103256
0.00103134
0.00103069
0.00102948
0.00102882
0.00102762
0.00102695
0.00102577
0.00102509
0.00102392
0.00102323
0.00102265
0.00102173
0.00102172
0.0010385
0.00103696
0.00103634
0.00103508
0.00103446
0.00103321
0.00103258
0.00103135
0.0010307
0.00102949
0.00102882
0.00102763
0.00102695
0.00102577
0.00102509
0.00102392
0.00102323
0.00102265
0.00102172
0.00102172
0.00103852
0.00103698
0.00103636
0.0010351
0.00103447
0.00103323
0.00103259
0.00103136
0.0010307
0.00102949
0.00102883
0.00102763
0.00102696
0.00102578
0.00102509
0.00102392
0.00102323
0.00102264
0.00102172
0.00102172
0.00103854
0.001037
0.00103638
0.00103512
0.00103448
0.00103324
0.00103259
0.00103137
0.00103071
0.0010295
0.00102884
0.00102764
0.00102696
0.00102578
0.00102509
0.00102392
0.00102323
0.00102264
0.00102172
0.00102171
0.00103856
0.00103702
0.0010364
0.00103513
0.0010345
0.00103325
0.00103262
0.00103137
0.00103073
0.0010295
0.00102885
0.00102764
0.00102697
0.00102577
0.0010251
0.00102392
0.00102322
0.00102264
0.00102171
0.0010217
0.00103858
0.00103704
0.00103641
0.00103515
0.00103452
0.00103327
0.00103262
0.00103139
0.00103073
0.00102952
0.00102885
0.00102765
0.00102697
0.00102578
0.00102509
0.00102392
0.00102322
0.00102263
0.0010217
0.0010217
0.00103861
0.00103706
0.00103643
0.00103517
0.00103453
0.00103328
0.00103264
0.0010314
0.00103074
0.00102952
0.00102886
0.00102765
0.00102697
0.00102578
0.00102509
0.00102391
0.00102322
0.00102263
0.0010217
0.00102169
0.00103862
0.00103708
0.00103645
0.00103518
0.00103454
0.00103329
0.00103264
0.00103141
0.00103075
0.00102953
0.00102886
0.00102765
0.00102697
0.00102578
0.00102509
0.00102391
0.00102321
0.00102262
0.00102169
0.00102168
0.0010383
0.00103682
0.00103621
0.00103498
0.00103436
0.00103315
0.00103251
0.00103131
0.00103065
0.00102946
0.0010288
0.00102761
0.00102693
0.00102576
0.00102506
0.0010239
0.00102319
0.00102261
0.00102168
0.00102168
0.00102168
0.00102168
0.00102168
0.00102168
0.00102168
0.00102168
0.00102168
0.00102168
0.00102168
0.00102168
0.00102168
0.00102168
0.00102168
0.00102168
0.00102168
0.00102168
0.00102168
0.00102168
0.00102168
)
;

boundaryField
{
    movingWall
    {
        type            calculated;
        value           nonuniform List<scalar> 
20
(
0.00102168
0.00102168
0.00102168
0.00102168
0.00102168
0.00102168
0.00102168
0.00102168
0.00102168
0.00102168
0.00102168
0.00102168
0.00102168
0.00102168
0.00102168
0.00102168
0.00102168
0.00102168
0.00102168
0.00102168
)
;
    }
    fixedWalls
    {
        type            calculated;
        value           nonuniform List<scalar> 
60
(
0.00102215
0.00102205
0.00102192
0.00102183
0.00102178
0.00102175
0.00102174
0.00102174
0.00102173
0.00102173
0.00102173
0.00102172
0.00102172
0.00102172
0.00102171
0.0010217
0.0010217
0.00102169
0.00102168
0.00102168
0.00102215
0.00102205
0.00102192
0.00102183
0.00102178
0.00102175
0.00102174
0.00102174
0.00102173
0.00102173
0.00102173
0.00102172
0.00102172
0.00102172
0.00102171
0.0010217
0.0010217
0.00102169
0.00102168
0.00102168
0.00102215
0.00102215
0.00102215
0.00102215
0.00102215
0.00102215
0.00102215
0.00102215
0.00102215
0.00102215
0.00102215
0.00102215
0.00102215
0.00102215
0.00102215
0.00102215
0.00102215
0.00102215
0.00102215
0.00102215
)
;
    }
    frontAndBack
    {
        type            empty;
    }
}


// ************************************************************************* //
