/*--------------------------------*- C++ -*----------------------------------*\
| =========                 |                                                 |
| \\      /  F ield         | OpenFOAM: The Open Source CFD Toolbox           |
|  \\    /   O peration     | Version:  2506                                  |
|   \\  /    A nd           | Website:  www.openfoam.com                      |
|    \\/     M anipulation  |                                                 |
\*---------------------------------------------------------------------------*/
FoamFile
{
    version     2.0;
    format      ascii;
    arch        "LSB;label=32;scalar=64";
    class       volScalarField;
    location    "7";
    object      turbulenceProperties:omega;
}
// * * * * * * * * * * * * * * * * * * * * * * * * * * * * * * * * * * * * * //

dimensions      [0 0 -1 0 0 0 0];

internalField   nonuniform List<scalar> 
400
(
4.29598
4.29598
4.29597
4.29598
4.29597
4.29598
4.29597
4.29597
4.29597
4.29597
4.29597
4.29597
4.29597
4.29597
4.29597
4.29597
4.29597
4.29597
4.29597
4.29597
4.36347
4.30009
4.30562
4.30787
4.31243
4.31474
4.3193
4.32166
4.32621
4.32863
4.33317
4.33565
4.34018
4.34274
4.34724
4.34987
4.35436
4.35706
4.35931
4.3629
4.46244
4.39511
4.40106
4.4035
4.4084
4.41087
4.41575
4.41828
4.42313
4.42571
4.43054
4.43317
4.43796
4.44065
4.44542
4.44816
4.4529
4.45569
4.45806
4.46182
4.55683
4.48659
4.49279
4.49534
4.50045
4.50303
4.50812
4.51076
4.51581
4.51851
4.52353
4.52629
4.53128
4.53409
4.53906
4.54192
4.54686
4.54978
4.55225
4.55617
4.62887
4.55632
4.56272
4.56534
4.57063
4.57329
4.57855
4.58126
4.5865
4.58927
4.59447
4.5973
4.60248
4.60536
4.61051
4.61345
4.61857
4.62157
4.62413
4.62818
4.67708
4.60292
4.60947
4.61215
4.61755
4.62026
4.62565
4.62842
4.63376
4.6366
4.64191
4.64481
4.65009
4.65305
4.65829
4.66132
4.66653
4.66961
4.67222
4.67636
4.70707
4.63191
4.63855
4.64126
4.64674
4.64949
4.65493
4.65776
4.66316
4.66605
4.67142
4.67436
4.67971
4.68271
4.68802
4.69109
4.69637
4.6995
4.70214
4.70634
4.72538
4.64961
4.65629
4.65904
4.66455
4.66733
4.67281
4.67565
4.68111
4.68401
4.68944
4.6924
4.69779
4.70082
4.70618
4.70926
4.71459
4.71774
4.7204
4.72463
4.73703
4.66088
4.66759
4.67035
4.67589
4.67868
4.68419
4.68706
4.69253
4.69546
4.7009
4.70388
4.7093
4.71234
4.71773
4.72083
4.72619
4.72935
4.73203
4.73628
4.74527
4.66885
4.67558
4.67835
4.68391
4.68672
4.69225
4.69512
4.70062
4.70355
4.70902
4.712
4.71745
4.72049
4.72591
4.72901
4.73439
4.73757
4.74026
4.74452
4.75201
4.67537
4.68212
4.6849
4.69047
4.69329
4.69883
4.70171
4.70723
4.71017
4.71565
4.71865
4.7241
4.72716
4.73259
4.73571
4.7411
4.74428
4.74698
4.75126
4.75832
4.68146
4.68824
4.69102
4.69662
4.69942
4.705
4.70787
4.71341
4.71636
4.72185
4.72486
4.73032
4.7334
4.73883
4.74197
4.74737
4.75057
4.75327
4.75756
4.76478
4.68772
4.69452
4.6973
4.70291
4.70574
4.71132
4.71421
4.71975
4.72272
4.72822
4.73124
4.73672
4.7398
4.74524
4.74839
4.75381
4.75701
4.75972
4.76402
4.77178
4.69448
4.70131
4.7041
4.70972
4.71256
4.71815
4.72107
4.72661
4.72959
4.7351
4.73814
4.74362
4.74672
4.75218
4.75534
4.76077
4.76398
4.7667
4.77102
4.77948
4.70194
4.7088
4.71158
4.71724
4.72007
4.7257
4.72858
4.7342
4.73713
4.74272
4.74571
4.75126
4.75433
4.75984
4.76298
4.76845
4.77166
4.77439
4.77872
4.7879
4.71009
4.71695
4.71977
4.72543
4.72828
4.73391
4.73684
4.74243
4.74542
4.75098
4.75403
4.75956
4.76267
4.76817
4.77135
4.77681
4.78005
4.78279
4.78713
4.79669
4.71859
4.72547
4.7283
4.73398
4.73684
4.7425
4.74542
4.75105
4.75404
4.75963
4.76268
4.76824
4.77135
4.77689
4.78006
4.78556
4.7888
4.79155
4.79591
4.80506
4.72671
4.7336
4.73645
4.74214
4.74502
4.75068
4.75363
4.75926
4.76227
4.76787
4.77093
4.77651
4.77963
4.78518
4.78837
4.79388
4.79714
4.7999
4.80427
4.81177
4.73475
4.7414
4.74415
4.74968
4.75248
4.75799
4.76089
4.76637
4.76935
4.77482
4.77788
4.78334
4.78649
4.79193
4.79517
4.80059
4.80391
4.80663
4.81101
4.81483
4.81482
4.81482
4.81481
4.81482
4.81481
4.81482
4.81481
4.81482
4.81481
4.81481
4.81481
4.81481
4.81481
4.81481
4.81481
4.81481
4.81481
4.81481
4.81481
)
;

boundaryField
{
    movingWall
    {
        type            calculated;
        value           nonuniform List<scalar> 
20
(
4.81483
4.81482
4.81482
4.81481
4.81482
4.81481
4.81482
4.81481
4.81482
4.81481
4.81481
4.81481
4.81481
4.81481
4.81481
4.81481
4.81481
4.81481
4.81481
4.81481
)
;
    }
    fixedWalls
    {
        type            calculated;
        value           nonuniform List<scalar> 
60
(
4.29598
4.36347
4.46244
4.55683
4.62887
4.67708
4.70707
4.72538
4.73703
4.74527
4.75201
4.75832
4.76478
4.77178
4.77948
4.7879
4.79669
4.80506
4.81177
4.81483
4.29597
4.3629
4.46182
4.55617
4.62818
4.67636
4.70634
4.72463
4.73628
4.74452
4.75126
4.75756
4.76402
4.77102
4.77872
4.78713
4.79591
4.80427
4.81101
4.81481
4.29598
4.29598
4.29597
4.29598
4.29597
4.29598
4.29597
4.29597
4.29597
4.29597
4.29597
4.29597
4.29597
4.29597
4.29597
4.29597
4.29597
4.29597
4.29597
4.29597
)
;
    }
    frontAndBack
    {
        type            empty;
    }
}


// ************************************************************************* //
