/*--------------------------------*- C++ -*----------------------------------*\
| =========                 |                                                 |
| \\      /  F ield         | OpenFOAM: The Open Source CFD Toolbox           |
|  \\    /   O peration     | Version:  2506                                  |
|   \\  /    A nd           | Website:  www.openfoam.com                      |
|    \\/     M anipulation  |                                                 |
\*---------------------------------------------------------------------------*/
FoamFile
{
    version     2.0;
    format      ascii;
    arch        "LSB;label=32;scalar=64";
    class       volSymmTensorField;
    location    "7";
    object      turbulenceProperties:R;
}
// * * * * * * * * * * * * * * * * * * * * * * * * * * * * * * * * * * * * * //

dimensions      [0 2 -2 0 0 0 0];

internalField   nonuniform List<symmTensor> 
400
(
(3.85641e-06 -1.78411e-17 -0 3.85641e-06 -0 3.85641e-06)
(3.8564e-06 1.98618e-17 -0 3.8564e-06 -0 3.8564e-06)
(3.8564e-06 -4.26044e-18 -0 3.8564e-06 -0 3.8564e-06)
(3.85639e-06 9.0069e-19 -0 3.85639e-06 -0 3.85639e-06)
(3.8564e-06 -2.41996e-19 -0 3.8564e-06 -0 3.8564e-06)
(3.85639e-06 6.07033e-20 -0 3.85639e-06 -0 3.85639e-06)
(3.8564e-06 9.74653e-21 -0 3.8564e-06 -0 3.8564e-06)
(3.85639e-06 9.06085e-20 -0 3.85639e-06 -0 3.85639e-06)
(3.85639e-06 2.66227e-21 -0 3.85639e-06 -0 3.85639e-06)
(3.85639e-06 7.03241e-20 -0 3.85639e-06 -0 3.85639e-06)
(3.85639e-06 -1.00646e-20 -0 3.85639e-06 -0 3.85639e-06)
(3.85639e-06 7.15583e-20 -0 3.85639e-06 -0 3.85639e-06)
(3.85639e-06 1.15424e-21 -0 3.85639e-06 -0 3.85639e-06)
(3.85639e-06 5.96541e-20 -0 3.85639e-06 -0 3.85639e-06)
(3.85639e-06 6.26375e-20 -0 3.85639e-06 -0 3.85639e-06)
(3.85639e-06 1.4947e-21 -0 3.85639e-06 -0 3.85639e-06)
(3.85639e-06 1.33506e-20 -0 3.85639e-06 -0 3.85639e-06)
(3.85639e-06 8.41509e-20 -0 3.85639e-06 -0 3.85639e-06)
(3.85639e-06 6.84401e-20 -0 3.85639e-06 -0 3.85639e-06)
(3.85639e-06 9.11804e-21 -0 3.85639e-06 -0 3.85639e-06)
(3.97774e-06 -1.40114e-18 -0 3.97774e-06 -0 3.97774e-06)
(3.97775e-06 9.11196e-19 -0 3.97775e-06 -0 3.97775e-06)
(3.97754e-06 -4.99591e-20 -0 3.97754e-06 -0 3.97754e-06)
(3.9775e-06 1.4058e-19 -0 3.9775e-06 -0 3.9775e-06)
(3.97736e-06 7.79074e-20 -0 3.97736e-06 -0 3.97736e-06)
(3.97731e-06 1.34798e-19 -0 3.97731e-06 -0 3.97731e-06)
(3.97719e-06 1.44411e-19 -0 3.97719e-06 -0 3.97719e-06)
(3.97715e-06 1.27217e-19 -0 3.97715e-06 -0 3.97715e-06)
(3.97705e-06 1.08661e-19 -0 3.97705e-06 -0 3.97705e-06)
(3.97702e-06 1.74845e-19 -0 3.97702e-06 -0 3.97702e-06)
(3.97693e-06 1.58918e-19 -0 3.97693e-06 -0 3.97693e-06)
(3.97691e-06 9.52373e-20 -0 3.97691e-06 -0 3.97691e-06)
(3.97684e-06 2.71534e-19 -0 3.97684e-06 -0 3.97684e-06)
(3.97682e-06 1.53622e-20 -0 3.97682e-06 -0 3.97682e-06)
(3.97677e-06 1.04063e-19 -0 3.97677e-06 -0 3.97677e-06)
(3.97676e-06 8.84049e-20 -0 3.97676e-06 -0 3.97676e-06)
(3.97673e-06 8.43146e-21 -0 3.97673e-06 -0 3.97673e-06)
(3.97672e-06 3.22223e-20 -0 3.97672e-06 -0 3.97672e-06)
(3.97671e-06 8.14572e-21 -0 3.97671e-06 -0 3.97671e-06)
(3.97671e-06 -1.34687e-20 -0 3.97671e-06 -0 3.97671e-06)
(4.15922e-06 2.13592e-17 -0 4.15922e-06 -0 4.15922e-06)
(4.15922e-06 -2.00657e-17 -0 4.15922e-06 -0 4.15922e-06)
(4.15901e-06 4.09217e-18 -0 4.15901e-06 -0 4.15901e-06)
(4.15894e-06 -9.35155e-19 -0 4.15894e-06 -0 4.15894e-06)
(4.15879e-06 1.97285e-19 -0 4.15879e-06 -0 4.15879e-06)
(4.15873e-06 -9.28726e-20 -0 4.15873e-06 -0 4.15873e-06)
(4.15861e-06 -3.67167e-20 -0 4.15861e-06 -0 4.15861e-06)
(4.15855e-06 -6.0192e-20 -0 4.15855e-06 -0 4.15855e-06)
(4.15846e-06 4.42837e-21 -0 4.15846e-06 -0 4.15846e-06)
(4.15839e-06 -6.4301e-20 -0 4.15839e-06 -0 4.15839e-06)
(4.15832e-06 -7.38622e-20 -0 4.15832e-06 -0 4.15832e-06)
(4.15827e-06 -9.336e-20 -0 4.15827e-06 -0 4.15827e-06)
(4.15822e-06 -1.78102e-19 -0 4.15822e-06 -0 4.15822e-06)
(4.15818e-06 -6.34933e-20 -0 4.15818e-06 -0 4.15818e-06)
(4.15814e-06 -1.04925e-19 -0 4.15814e-06 -0 4.15814e-06)
(4.15812e-06 -5.18352e-20 -0 4.15812e-06 -0 4.15812e-06)
(4.15809e-06 -5.80391e-20 -0 4.15809e-06 -0 4.15809e-06)
(4.15808e-06 -1.08508e-19 -0 4.15808e-06 -0 4.15808e-06)
(4.15807e-06 -1.03282e-19 -0 4.15807e-06 -0 4.15807e-06)
(4.15807e-06 -7.33051e-20 -0 4.15807e-06 -0 4.15807e-06)
(4.33624e-06 -1.78154e-17 -0 4.33624e-06 -0 4.33624e-06)
(4.33624e-06 1.70552e-17 -0 4.33624e-06 -0 4.33624e-06)
(4.33601e-06 -3.50441e-18 -0 4.33601e-06 -0 4.33601e-06)
(4.33594e-06 6.52274e-19 -0 4.33594e-06 -0 4.33594e-06)
(4.33578e-06 -2.8826e-19 -0 4.33578e-06 -0 4.33578e-06)
(4.33571e-06 -6.79658e-20 -0 4.33571e-06 -0 4.33571e-06)
(4.33558e-06 -9.02334e-20 -0 4.33558e-06 -0 4.33558e-06)
(4.3355e-06 -9.27696e-20 -0 4.3355e-06 -0 4.3355e-06)
(4.33541e-06 -1.17063e-19 -0 4.33541e-06 -0 4.33541e-06)
(4.33533e-06 -1.50612e-19 -0 4.33533e-06 -0 4.33533e-06)
(4.33527e-06 -1.18493e-19 -0 4.33527e-06 -0 4.33527e-06)
(4.33521e-06 -1.38177e-19 -0 4.33521e-06 -0 4.33521e-06)
(4.33516e-06 -1.28505e-19 -0 4.33516e-06 -0 4.33516e-06)
(4.33511e-06 -5.50018e-20 -0 4.33511e-06 -0 4.33511e-06)
(4.33507e-06 -1.12417e-19 -0 4.33507e-06 -0 4.33507e-06)
(4.33504e-06 -1.06863e-19 -0 4.33504e-06 -0 4.33504e-06)
(4.33502e-06 -4.763e-20 -0 4.33502e-06 -0 4.33502e-06)
(4.335e-06 -1.63855e-20 -0 4.335e-06 -0 4.335e-06)
(4.33499e-06 -1.35338e-20 -0 4.33499e-06 -0 4.33499e-06)
(4.33499e-06 -4.96071e-20 -0 4.33499e-06 -0 4.33499e-06)
(4.47397e-06 1.53483e-18 -0 4.47397e-06 -0 4.47397e-06)
(4.47397e-06 -1.97202e-18 -0 4.47397e-06 -0 4.47397e-06)
(4.47372e-06 2.49898e-19 -0 4.47372e-06 -0 4.47372e-06)
(4.47365e-06 -1.59818e-19 -0 4.47365e-06 -0 4.47365e-06)
(4.47348e-06 -1.81825e-21 -0 4.47348e-06 -0 4.47348e-06)
(4.47341e-06 -4.11015e-20 -0 4.47341e-06 -0 4.47341e-06)
(4.47326e-06 -8.57539e-20 -0 4.47326e-06 -0 4.47326e-06)
(4.4732e-06 -5.7437e-20 -0 4.4732e-06 -0 4.4732e-06)
(4.47308e-06 7.54331e-21 -0 4.47308e-06 -0 4.47308e-06)
(4.47302e-06 -3.41853e-20 -0 4.47302e-06 -0 4.47302e-06)
(4.47293e-06 -4.27916e-20 -0 4.47293e-06 -0 4.47293e-06)
(4.47288e-06 -2.03162e-20 -0 4.47288e-06 -0 4.47288e-06)
(4.47281e-06 2.36761e-20 -0 4.47281e-06 -0 4.47281e-06)
(4.47277e-06 -1.96391e-20 -0 4.47277e-06 -0 4.47277e-06)
(4.47272e-06 -2.01877e-20 -0 4.47272e-06 -0 4.47272e-06)
(4.4727e-06 -4.40891e-20 -0 4.4727e-06 -0 4.4727e-06)
(4.47266e-06 4.31986e-20 -0 4.47266e-06 -0 4.47266e-06)
(4.47265e-06 3.0878e-21 -0 4.47265e-06 -0 4.47265e-06)
(4.47264e-06 -7.53645e-21 -0 4.47264e-06 -0 4.47264e-06)
(4.47264e-06 6.19982e-20 -0 4.47264e-06 -0 4.47264e-06)
(4.56742e-06 1.60471e-17 -0 4.56742e-06 -0 4.56742e-06)
(4.56742e-06 -1.61783e-17 -0 4.56742e-06 -0 4.56742e-06)
(4.56716e-06 3.36641e-18 -0 4.56716e-06 -0 4.56716e-06)
(4.56708e-06 -7.76931e-19 -0 4.56708e-06 -0 4.56708e-06)
(4.5669e-06 8.98534e-20 -0 4.5669e-06 -0 4.5669e-06)
(4.56683e-06 -8.36453e-20 -0 4.56683e-06 -0 4.56683e-06)
(4.56667e-06 1.20309e-20 -0 4.56667e-06 -0 4.56667e-06)
(4.5666e-06 -2.56152e-20 -0 4.5666e-06 -0 4.5666e-06)
(4.56649e-06 -6.61494e-20 -0 4.56649e-06 -0 4.56649e-06)
(4.56641e-06 -2.45424e-20 -0 4.56641e-06 -0 4.56641e-06)
(4.56634e-06 1.75153e-20 -0 4.56634e-06 -0 4.56634e-06)
(4.56627e-06 8.08659e-21 -0 4.56627e-06 -0 4.56627e-06)
(4.56621e-06 -6.65166e-20 -0 4.56621e-06 -0 4.56621e-06)
(4.56616e-06 -1.66861e-20 -0 4.56616e-06 -0 4.56616e-06)
(4.56611e-06 1.0311e-20 -0 4.56611e-06 -0 4.56611e-06)
(4.56608e-06 6.6465e-20 -0 4.56608e-06 -0 4.56608e-06)
(4.56605e-06 3.89919e-20 -0 4.56605e-06 -0 4.56605e-06)
(4.56604e-06 3.41171e-20 -0 4.56604e-06 -0 4.56604e-06)
(4.56603e-06 3.11421e-20 -0 4.56603e-06 -0 4.56603e-06)
(4.56602e-06 7.61098e-20 -0 4.56602e-06 -0 4.56602e-06)
(4.62608e-06 -2.23678e-17 -0 4.62608e-06 -0 4.62608e-06)
(4.62609e-06 2.35315e-17 -0 4.62609e-06 -0 4.62609e-06)
(4.62581e-06 -4.68273e-18 -0 4.62581e-06 -0 4.62581e-06)
(4.62574e-06 1.14173e-18 -0 4.62574e-06 -0 4.62574e-06)
(4.62555e-06 -2.50591e-19 -0 4.62555e-06 -0 4.62555e-06)
(4.62547e-06 1.15425e-19 -0 4.62547e-06 -0 4.62547e-06)
(4.62533e-06 8.5112e-20 -0 4.62533e-06 -0 4.62533e-06)
(4.62524e-06 5.91177e-20 -0 4.62524e-06 -0 4.62524e-06)
(4.62514e-06 1.46276e-19 -0 4.62514e-06 -0 4.62514e-06)
(4.62504e-06 6.19446e-20 -0 4.62504e-06 -0 4.62504e-06)
(4.62497e-06 7.59334e-20 -0 4.62497e-06 -0 4.62497e-06)
(4.6249e-06 2.29131e-20 -0 4.6249e-06 -0 4.6249e-06)
(4.62484e-06 2.22673e-20 -0 4.62484e-06 -0 4.62484e-06)
(4.62479e-06 4.29957e-20 -0 4.62479e-06 -0 4.62479e-06)
(4.62474e-06 -1.79285e-20 -0 4.62474e-06 -0 4.62474e-06)
(4.62471e-06 -1.4874e-20 -0 4.62471e-06 -0 4.62471e-06)
(4.62468e-06 -1.19003e-19 -0 4.62468e-06 -0 4.62468e-06)
(4.62466e-06 -4.04416e-21 -0 4.62466e-06 -0 4.62466e-06)
(4.62465e-06 -1.23444e-20 -0 4.62465e-06 -0 4.62465e-06)
(4.62465e-06 -2.71651e-20 -0 4.62465e-06 -0 4.62465e-06)
(4.66208e-06 8.85493e-18 -0 4.66208e-06 -0 4.66208e-06)
(4.66208e-06 -9.4556e-18 -0 4.66208e-06 -0 4.66208e-06)
(4.66182e-06 2.00448e-18 -0 4.66182e-06 -0 4.66182e-06)
(4.66173e-06 -3.85191e-19 -0 4.66173e-06 -0 4.66173e-06)
(4.66155e-06 1.62029e-19 -0 4.66155e-06 -0 4.66155e-06)
(4.66147e-06 5.73429e-20 -0 4.66147e-06 -0 4.66147e-06)
(4.66132e-06 7.75729e-21 -0 4.66132e-06 -0 4.66132e-06)
(4.66124e-06 1.19112e-19 -0 4.66124e-06 -0 4.66124e-06)
(4.66112e-06 8.71258e-20 -0 4.66112e-06 -0 4.66112e-06)
(4.66104e-06 2.07985e-20 -0 4.66104e-06 -0 4.66104e-06)
(4.66095e-06 1.70648e-20 -0 4.66095e-06 -0 4.66095e-06)
(4.66089e-06 1.11019e-20 -0 4.66089e-06 -0 4.66089e-06)
(4.66082e-06 4.63529e-20 -0 4.66082e-06 -0 4.66082e-06)
(4.66077e-06 6.91025e-20 -0 4.66077e-06 -0 4.66077e-06)
(4.66072e-06 2.6803e-20 -0 4.66072e-06 -0 4.66072e-06)
(4.66069e-06 6.88201e-20 -0 4.66069e-06 -0 4.66069e-06)
(4.66066e-06 1.12273e-19 -0 4.66066e-06 -0 4.66066e-06)
(4.66065e-06 1.17978e-20 -0 4.66065e-06 -0 4.66065e-06)
(4.66063e-06 8.55626e-21 -0 4.66063e-06 -0 4.66063e-06)
(4.66063e-06 3.96139e-20 -0 4.66063e-06 -0 4.66063e-06)
(4.68508e-06 9.09983e-18 -0 4.68508e-06 -0 4.68508e-06)
(4.68508e-06 -1.0188e-17 -0 4.68508e-06 -0 4.68508e-06)
(4.68481e-06 1.91993e-18 -0 4.68481e-06 -0 4.68481e-06)
(4.68472e-06 -3.98579e-19 -0 4.68472e-06 -0 4.68472e-06)
(4.68453e-06 1.80221e-19 -0 4.68453e-06 -0 4.68453e-06)
(4.68445e-06 -3.34704e-20 -0 4.68445e-06 -0 4.68445e-06)
(4.6843e-06 -4.45162e-20 -0 4.6843e-06 -0 4.6843e-06)
(4.68421e-06 -7.436e-20 -0 4.68421e-06 -0 4.68421e-06)
(4.68411e-06 -6.11287e-20 -0 4.68411e-06 -0 4.68411e-06)
(4.68402e-06 -1.73767e-20 -0 4.68402e-06 -0 4.68402e-06)
(4.68394e-06 4.61293e-20 -0 4.68394e-06 -0 4.68394e-06)
(4.68387e-06 5.48481e-20 -0 4.68387e-06 -0 4.68387e-06)
(4.6838e-06 2.46933e-20 -0 4.6838e-06 -0 4.6838e-06)
(4.68375e-06 6.78398e-20 -0 4.68375e-06 -0 4.68375e-06)
(4.6837e-06 2.9422e-20 -0 4.6837e-06 -0 4.6837e-06)
(4.68367e-06 1.69545e-20 -0 4.68367e-06 -0 4.68367e-06)
(4.68364e-06 9.48595e-21 -0 4.68364e-06 -0 4.68364e-06)
(4.68362e-06 -9.50536e-20 -0 4.68362e-06 -0 4.68362e-06)
(4.68361e-06 -1.14174e-20 -0 4.68361e-06 -0 4.68361e-06)
(4.68361e-06 -2.22342e-20 -0 4.68361e-06 -0 4.68361e-06)
(4.70137e-06 -1.58762e-17 -0 4.70137e-06 -0 4.70137e-06)
(4.70137e-06 2.00211e-17 -0 4.70137e-06 -0 4.70137e-06)
(4.7011e-06 -3.82788e-18 -0 4.7011e-06 -0 4.7011e-06)
(4.70102e-06 1.03326e-18 -0 4.70102e-06 -0 4.70102e-06)
(4.70083e-06 -1.4484e-19 -0 4.70083e-06 -0 4.70083e-06)
(4.70075e-06 8.26928e-20 -0 4.70075e-06 -0 4.70075e-06)
(4.70059e-06 8.91652e-20 -0 4.70059e-06 -0 4.70059e-06)
(4.70051e-06 1.21767e-19 -0 4.70051e-06 -0 4.70051e-06)
(4.70039e-06 8.67077e-21 -0 4.70039e-06 -0 4.70039e-06)
(4.70031e-06 7.80567e-20 -0 4.70031e-06 -0 4.70031e-06)
(4.70022e-06 7.89474e-20 -0 4.70022e-06 -0 4.70022e-06)
(4.70016e-06 8.23647e-21 -0 4.70016e-06 -0 4.70016e-06)
(4.70009e-06 4.47291e-20 -0 4.70009e-06 -0 4.70009e-06)
(4.70004e-06 -8.46921e-20 -0 4.70004e-06 -0 4.70004e-06)
(4.69999e-06 -4.69418e-20 -0 4.69999e-06 -0 4.69999e-06)
(4.69996e-06 -7.78276e-20 -0 4.69996e-06 -0 4.69996e-06)
(4.69992e-06 -5.62693e-20 -0 4.69992e-06 -0 4.69992e-06)
(4.69991e-06 -2.61579e-20 -0 4.69991e-06 -0 4.69991e-06)
(4.6999e-06 -1.70977e-20 -0 4.6999e-06 -0 4.6999e-06)
(4.69989e-06 -3.80772e-20 -0 4.69989e-06 -0 4.69989e-06)
(4.71471e-06 1.37227e-17 -0 4.71471e-06 -0 4.71471e-06)
(4.71471e-06 -1.92647e-17 -0 4.71471e-06 -0 4.71471e-06)
(4.71444e-06 3.67882e-18 -0 4.71444e-06 -0 4.71444e-06)
(4.71435e-06 -1.07113e-18 -0 4.71435e-06 -0 4.71435e-06)
(4.71416e-06 3.13292e-20 -0 4.71416e-06 -0 4.71416e-06)
(4.71407e-06 -2.04901e-19 -0 4.71407e-06 -0 4.71407e-06)
(4.71393e-06 -1.69528e-19 -0 4.71393e-06 -0 4.71393e-06)
(4.71384e-06 -1.27901e-19 -0 4.71384e-06 -0 4.71384e-06)
(4.71372e-06 -7.15843e-20 -0 4.71372e-06 -0 4.71372e-06)
(4.71364e-06 -8.14629e-20 -0 4.71364e-06 -0 4.71364e-06)
(4.71356e-06 -1.26087e-19 -0 4.71356e-06 -0 4.71356e-06)
(4.71349e-06 -1.22832e-20 -0 4.71349e-06 -0 4.71349e-06)
(4.71342e-06 -1.0103e-19 -0 4.71342e-06 -0 4.71342e-06)
(4.71337e-06 -7.83813e-20 -0 4.71337e-06 -0 4.71337e-06)
(4.71331e-06 -3.29759e-20 -0 4.71331e-06 -0 4.71331e-06)
(4.71329e-06 -1.14361e-20 -0 4.71329e-06 -0 4.71329e-06)
(4.71325e-06 -6.70834e-22 -0 4.71325e-06 -0 4.71325e-06)
(4.71324e-06 5.91993e-20 -0 4.71324e-06 -0 4.71324e-06)
(4.71323e-06 1.68331e-21 -0 4.71323e-06 -0 4.71323e-06)
(4.71322e-06 7.03578e-20 -0 4.71322e-06 -0 4.71322e-06)
(4.72719e-06 -1.01892e-17 -0 4.72719e-06 -0 4.72719e-06)
(4.72719e-06 1.20618e-17 -0 4.72719e-06 -0 4.72719e-06)
(4.72691e-06 -2.67257e-18 -0 4.72691e-06 -0 4.72691e-06)
(4.72683e-06 5.81267e-19 -0 4.72683e-06 -0 4.72683e-06)
(4.72663e-06 -1.45043e-19 -0 4.72663e-06 -0 4.72663e-06)
(4.72656e-06 6.54793e-20 -0 4.72656e-06 -0 4.72656e-06)
(4.72639e-06 2.30524e-20 -0 4.72639e-06 -0 4.72639e-06)
(4.72632e-06 -3.00998e-21 -0 4.72632e-06 -0 4.72632e-06)
(4.7262e-06 4.55179e-20 -0 4.7262e-06 -0 4.7262e-06)
(4.72611e-06 1.13243e-21 -0 4.72611e-06 -0 4.72611e-06)
(4.72603e-06 3.06476e-20 -0 4.72603e-06 -0 4.72603e-06)
(4.72596e-06 2.91613e-20 -0 4.72596e-06 -0 4.72596e-06)
(4.7259e-06 7.34168e-20 -0 4.7259e-06 -0 4.7259e-06)
(4.72584e-06 8.21376e-20 -0 4.72584e-06 -0 4.72584e-06)
(4.7258e-06 1.52968e-19 -0 4.7258e-06 -0 4.7258e-06)
(4.72575e-06 7.32999e-20 -0 4.72575e-06 -0 4.72575e-06)
(4.72573e-06 9.42044e-20 -0 4.72573e-06 -0 4.72573e-06)
(4.72571e-06 9.91329e-20 -0 4.72571e-06 -0 4.72571e-06)
(4.7257e-06 8.29276e-21 -0 4.7257e-06 -0 4.7257e-06)
(4.72569e-06 -3.57845e-21 -0 4.72569e-06 -0 4.72569e-06)
(4.74002e-06 1.98018e-18 -0 4.74002e-06 -0 4.74002e-06)
(4.74002e-06 -4.38357e-19 -0 4.74002e-06 -0 4.74002e-06)
(4.73974e-06 4.02473e-19 -0 4.73974e-06 -0 4.73974e-06)
(4.73966e-06 9.25941e-20 -0 4.73966e-06 -0 4.73966e-06)
(4.73946e-06 9.91448e-20 -0 4.73946e-06 -0 4.73946e-06)
(4.73938e-06 1.03523e-19 -0 4.73938e-06 -0 4.73938e-06)
(4.73922e-06 6.17567e-20 -0 4.73922e-06 -0 4.73922e-06)
(4.73914e-06 -7.84107e-21 -0 4.73914e-06 -0 4.73914e-06)
(4.73902e-06 9.18418e-20 -0 4.73902e-06 -0 4.73902e-06)
(4.73893e-06 6.6501e-20 -0 4.73893e-06 -0 4.73893e-06)
(4.73886e-06 9.08378e-20 -0 4.73886e-06 -0 4.73886e-06)
(4.73878e-06 8.79422e-20 -0 4.73878e-06 -0 4.73878e-06)
(4.73872e-06 7.27738e-20 -0 4.73872e-06 -0 4.73872e-06)
(4.73866e-06 6.85858e-20 -0 4.73866e-06 -0 4.73866e-06)
(4.73861e-06 -4.69609e-21 -0 4.73861e-06 -0 4.73861e-06)
(4.73858e-06 8.73612e-21 -0 4.73858e-06 -0 4.73858e-06)
(4.73855e-06 -5.68085e-20 -0 4.73855e-06 -0 4.73855e-06)
(4.73853e-06 -6.72257e-20 -0 4.73853e-06 -0 4.73853e-06)
(4.73852e-06 -9.4024e-21 -0 4.73852e-06 -0 4.73852e-06)
(4.73851e-06 -7.03789e-21 -0 4.73851e-06 -0 4.73851e-06)
(4.75391e-06 1.16254e-17 -0 4.75391e-06 -0 4.75391e-06)
(4.75391e-06 -1.27487e-17 -0 4.75391e-06 -0 4.75391e-06)
(4.75362e-06 2.71711e-18 -0 4.75362e-06 -0 4.75362e-06)
(4.75354e-06 -6.05374e-19 -0 4.75354e-06 -0 4.75354e-06)
(4.75335e-06 1.47505e-19 -0 4.75335e-06 -0 4.75335e-06)
(4.75326e-06 -9.97958e-20 -0 4.75326e-06 -0 4.75326e-06)
(4.75311e-06 7.08626e-21 -0 4.75311e-06 -0 4.75311e-06)
(4.75301e-06 -3.26796e-20 -0 4.75301e-06 -0 4.75301e-06)
(4.75291e-06 -3.43118e-20 -0 4.75291e-06 -0 4.75291e-06)
(4.75281e-06 -2.19946e-20 -0 4.75281e-06 -0 4.75281e-06)
(4.75273e-06 -6.56101e-20 -0 4.75273e-06 -0 4.75273e-06)
(4.75266e-06 -4.8216e-20 -0 4.75266e-06 -0 4.75266e-06)
(4.7526e-06 -4.20947e-21 -0 4.7526e-06 -0 4.7526e-06)
(4.75254e-06 -3.21962e-20 -0 4.75254e-06 -0 4.75254e-06)
(4.75249e-06 -6.45134e-20 -0 4.75249e-06 -0 4.75249e-06)
(4.75245e-06 -1.09887e-19 -0 4.75245e-06 -0 4.75245e-06)
(4.75243e-06 -7.12068e-20 -0 4.75243e-06 -0 4.75243e-06)
(4.75241e-06 -2.28912e-20 -0 4.75241e-06 -0 4.75241e-06)
(4.7524e-06 -1.77306e-20 -0 4.7524e-06 -0 4.7524e-06)
(4.75239e-06 -4.66134e-20 -0 4.75239e-06 -0 4.75239e-06)
(4.76923e-06 -2.03729e-17 -0 4.76923e-06 -0 4.76923e-06)
(4.76924e-06 2.16027e-17 -0 4.76924e-06 -0 4.76924e-06)
(4.76893e-06 -4.44297e-18 -0 4.76893e-06 -0 4.76893e-06)
(4.76887e-06 1.0672e-18 -0 4.76887e-06 -0 4.76887e-06)
(4.76866e-06 -1.6626e-19 -0 4.76866e-06 -0 4.76866e-06)
(4.76859e-06 1.30349e-19 -0 4.76859e-06 -0 4.76859e-06)
(4.76841e-06 5.46813e-20 -0 4.76841e-06 -0 4.76841e-06)
(4.76836e-06 1.12028e-19 -0 4.76836e-06 -0 4.76836e-06)
(4.7682e-06 -9.27675e-21 -0 4.7682e-06 -0 4.7682e-06)
(4.76816e-06 9.95123e-20 -0 4.76816e-06 -0 4.76816e-06)
(4.76803e-06 1.06998e-19 -0 4.76803e-06 -0 4.76803e-06)
(4.76799e-06 1.34268e-20 -0 4.76799e-06 -0 4.76799e-06)
(4.7679e-06 6.14747e-20 -0 4.7679e-06 -0 4.7679e-06)
(4.76787e-06 5.14741e-20 -0 4.76787e-06 -0 4.76787e-06)
(4.76779e-06 1.28968e-19 -0 4.76779e-06 -0 4.76779e-06)
(4.76778e-06 1.68343e-19 -0 4.76778e-06 -0 4.76778e-06)
(4.76773e-06 7.13491e-20 -0 4.76773e-06 -0 4.76773e-06)
(4.76772e-06 -9.60588e-22 -0 4.76772e-06 -0 4.76772e-06)
(4.76771e-06 4.70494e-21 -0 4.76771e-06 -0 4.76771e-06)
(4.7677e-06 1.23943e-21 -0 4.7677e-06 -0 4.7677e-06)
(4.78597e-06 1.28635e-17 -0 4.78597e-06 -0 4.78597e-06)
(4.78597e-06 -1.48135e-17 -0 4.78597e-06 -0 4.78597e-06)
(4.78569e-06 2.76412e-18 -0 4.78569e-06 -0 4.78569e-06)
(4.7856e-06 -7.40441e-19 -0 4.7856e-06 -0 4.7856e-06)
(4.78541e-06 1.95024e-20 -0 4.78541e-06 -0 4.78541e-06)
(4.78532e-06 -1.16719e-19 -0 4.78532e-06 -0 4.78532e-06)
(4.78517e-06 -1.13278e-19 -0 4.78517e-06 -0 4.78517e-06)
(4.78507e-06 -1.2257e-19 -0 4.78507e-06 -0 4.78507e-06)
(4.78496e-06 -1.51296e-19 -0 4.78496e-06 -0 4.78496e-06)
(4.78487e-06 -7.91381e-20 -0 4.78487e-06 -0 4.78487e-06)
(4.78479e-06 -7.34738e-20 -0 4.78479e-06 -0 4.78479e-06)
(4.78471e-06 -1.1089e-20 -0 4.78471e-06 -0 4.78471e-06)
(4.78465e-06 -1.13249e-19 -0 4.78465e-06 -0 4.78465e-06)
(4.78459e-06 -8.36874e-20 -0 4.78459e-06 -0 4.78459e-06)
(4.78454e-06 -9.47906e-20 -0 4.78454e-06 -0 4.78454e-06)
(4.7845e-06 -1.4482e-19 -0 4.7845e-06 -0 4.7845e-06)
(4.78448e-06 -6.33821e-20 -0 4.78448e-06 -0 4.78448e-06)
(4.78445e-06 -1.77888e-20 -0 4.78445e-06 -0 4.78445e-06)
(4.78444e-06 -1.82997e-20 -0 4.78444e-06 -0 4.78444e-06)
(4.78444e-06 -2.57879e-21 -0 4.78444e-06 -0 4.78444e-06)
(4.80348e-06 7.49677e-18 -0 4.80348e-06 -0 4.80348e-06)
(4.80348e-06 -4.39138e-18 -0 4.80348e-06 -0 4.80348e-06)
(4.80319e-06 1.04889e-18 -0 4.80319e-06 -0 4.80319e-06)
(4.80311e-06 -3.34198e-19 -0 4.80311e-06 -0 4.80311e-06)
(4.80291e-06 4.60427e-20 -0 4.80291e-06 -0 4.80291e-06)
(4.80283e-06 -4.6783e-20 -0 4.80283e-06 -0 4.80283e-06)
(4.80266e-06 5.49956e-20 -0 4.80266e-06 -0 4.80266e-06)
(4.80258e-06 9.60955e-21 -0 4.80258e-06 -0 4.80258e-06)
(4.80245e-06 2.17685e-20 -0 4.80245e-06 -0 4.80245e-06)
(4.80237e-06 -1.5548e-19 -0 4.80237e-06 -0 4.80237e-06)
(4.80228e-06 -1.03868e-19 -0 4.80228e-06 -0 4.80228e-06)
(4.80221e-06 -6.15357e-20 -0 4.80221e-06 -0 4.80221e-06)
(4.80213e-06 -5.58241e-20 -0 4.80213e-06 -0 4.80213e-06)
(4.80209e-06 -5.15004e-20 -0 4.80209e-06 -0 4.80209e-06)
(4.80203e-06 -3.54551e-20 -0 4.80203e-06 -0 4.80203e-06)
(4.80201e-06 -2.68129e-20 -0 4.80201e-06 -0 4.80201e-06)
(4.80196e-06 -1.0009e-20 -0 4.80196e-06 -0 4.80196e-06)
(4.80195e-06 -5.66911e-20 -0 4.80195e-06 -0 4.80195e-06)
(4.80194e-06 -2.32837e-20 -0 4.80194e-06 -0 4.80194e-06)
(4.80193e-06 -9.13446e-21 -0 4.80193e-06 -0 4.80193e-06)
(4.82018e-06 -2.25138e-17 -0 4.82018e-06 -0 4.82018e-06)
(4.82017e-06 1.9504e-17 -0 4.82017e-06 -0 4.82017e-06)
(4.8199e-06 -3.87673e-18 -0 4.8199e-06 -0 4.8199e-06)
(4.8198e-06 1.02427e-18 -0 4.8198e-06 -0 4.8198e-06)
(4.81961e-06 -8.95066e-20 -0 4.81961e-06 -0 4.81961e-06)
(4.81952e-06 1.57224e-19 -0 4.81952e-06 -0 4.81952e-06)
(4.81936e-06 9.91063e-20 -0 4.81936e-06 -0 4.81936e-06)
(4.81927e-06 9.87342e-20 -0 4.81927e-06 -0 4.81927e-06)
(4.81915e-06 1.03633e-19 -0 4.81915e-06 -0 4.81915e-06)
(4.81906e-06 1.42989e-19 -0 4.81906e-06 -0 4.81906e-06)
(4.81897e-06 3.74336e-20 -0 4.81897e-06 -0 4.81897e-06)
(4.8189e-06 1.19378e-19 -0 4.8189e-06 -0 4.8189e-06)
(4.81883e-06 1.44654e-19 -0 4.81883e-06 -0 4.81883e-06)
(4.81878e-06 1.16092e-19 -0 4.81878e-06 -0 4.81878e-06)
(4.81872e-06 1.12617e-19 -0 4.81872e-06 -0 4.81872e-06)
(4.81869e-06 6.70983e-20 -0 4.81869e-06 -0 4.81869e-06)
(4.81865e-06 3.16845e-20 -0 4.81865e-06 -0 4.81865e-06)
(4.81864e-06 2.74047e-20 -0 4.81864e-06 -0 4.81864e-06)
(4.81863e-06 -2.41827e-21 -0 4.81863e-06 -0 4.81863e-06)
(4.81862e-06 4.45113e-20 -0 4.81862e-06 -0 4.81862e-06)
(4.8336e-06 7.01203e-18 -0 4.8336e-06 -0 4.8336e-06)
(4.83361e-06 -7.74731e-18 -0 4.83361e-06 -0 4.83361e-06)
(4.83334e-06 1.24935e-18 -0 4.83334e-06 -0 4.83334e-06)
(4.83325e-06 -5.06731e-19 -0 4.83325e-06 -0 4.83325e-06)
(4.83305e-06 -1.11071e-19 -0 4.83305e-06 -0 4.83305e-06)
(4.83297e-06 -2.19758e-19 -0 4.83297e-06 -0 4.83297e-06)
(4.83282e-06 -9.31821e-20 -0 4.83282e-06 -0 4.83282e-06)
(4.83272e-06 -1.80319e-19 -0 4.83272e-06 -0 4.83272e-06)
(4.83261e-06 -2.02662e-19 -0 4.83261e-06 -0 4.83261e-06)
(4.83252e-06 -1.18818e-19 -0 4.83252e-06 -0 4.83252e-06)
(4.83244e-06 -3.50609e-20 -0 4.83244e-06 -0 4.83244e-06)
(4.83236e-06 -7.66655e-20 -0 4.83236e-06 -0 4.83236e-06)
(4.8323e-06 -6.11745e-20 -0 4.8323e-06 -0 4.8323e-06)
(4.83224e-06 -7.12816e-20 -0 4.83224e-06 -0 4.83224e-06)
(4.83219e-06 -3.81082e-20 -0 4.83219e-06 -0 4.83219e-06)
(4.83215e-06 9.43856e-21 -0 4.83215e-06 -0 4.83215e-06)
(4.83212e-06 -4.60784e-20 -0 4.83212e-06 -0 4.83212e-06)
(4.83211e-06 5.87981e-20 -0 4.83211e-06 -0 4.83211e-06)
(4.83209e-06 -7.6349e-21 -0 4.83209e-06 -0 4.83209e-06)
(4.83209e-06 -6.14075e-23 -0 4.83209e-06 -0 4.83209e-06)
(4.83972e-06 1.21036e-17 -0 4.83972e-06 -0 4.83972e-06)
(4.83971e-06 -1.17139e-17 -0 4.83971e-06 -0 4.83971e-06)
(4.83971e-06 2.72947e-18 -0 4.83971e-06 -0 4.83971e-06)
(4.83971e-06 -5.67197e-19 -0 4.83971e-06 -0 4.83971e-06)
(4.83971e-06 1.45193e-19 -0 4.83971e-06 -0 4.83971e-06)
(4.8397e-06 4.51078e-20 -0 4.8397e-06 -0 4.8397e-06)
(4.8397e-06 5.35454e-20 -0 4.8397e-06 -0 4.8397e-06)
(4.8397e-06 1.43232e-19 -0 4.8397e-06 -0 4.8397e-06)
(4.8397e-06 1.0855e-19 -0 4.8397e-06 -0 4.8397e-06)
(4.8397e-06 8.61999e-21 -0 4.8397e-06 -0 4.8397e-06)
(4.8397e-06 -7.61101e-21 -0 4.8397e-06 -0 4.8397e-06)
(4.8397e-06 -4.23555e-21 -0 4.8397e-06 -0 4.8397e-06)
(4.8397e-06 1.48839e-21 -0 4.8397e-06 -0 4.8397e-06)
(4.83969e-06 8.21366e-20 -0 4.83969e-06 -0 4.83969e-06)
(4.83969e-06 3.61561e-20 -0 4.83969e-06 -0 4.83969e-06)
(4.83969e-06 4.02061e-20 -0 4.83969e-06 -0 4.83969e-06)
(4.83969e-06 4.07206e-20 -0 4.83969e-06 -0 4.83969e-06)
(4.83969e-06 -8.87468e-20 -0 4.83969e-06 -0 4.83969e-06)
(4.83969e-06 -6.63501e-21 -0 4.83969e-06 -0 4.83969e-06)
(4.83969e-06 -2.83938e-21 -0 4.83969e-06 -0 4.83969e-06)
)
;

boundaryField
{
    movingWall
    {
        type            kqRWallFunction;
        value           nonuniform List<symmTensor> 
20
(
(4.83972e-06 0 -0 4.83972e-06 -0 4.83972e-06)
(4.83971e-06 -0 -0 4.83971e-06 -0 4.83971e-06)
(4.83971e-06 0 -0 4.83971e-06 -0 4.83971e-06)
(4.83971e-06 -0 -0 4.83971e-06 -0 4.83971e-06)
(4.83971e-06 0 -0 4.83971e-06 -0 4.83971e-06)
(4.8397e-06 0 -0 4.8397e-06 -0 4.8397e-06)
(4.8397e-06 0 -0 4.8397e-06 -0 4.8397e-06)
(4.8397e-06 0 -0 4.8397e-06 -0 4.8397e-06)
(4.8397e-06 0 -0 4.8397e-06 -0 4.8397e-06)
(4.8397e-06 0 -0 4.8397e-06 -0 4.8397e-06)
(4.8397e-06 0 -0 4.8397e-06 -0 4.8397e-06)
(4.8397e-06 0 -0 4.8397e-06 -0 4.8397e-06)
(4.8397e-06 0 -0 4.8397e-06 -0 4.8397e-06)
(4.83969e-06 0 -0 4.83969e-06 -0 4.83969e-06)
(4.83969e-06 0 -0 4.83969e-06 -0 4.83969e-06)
(4.83969e-06 0 -0 4.83969e-06 -0 4.83969e-06)
(4.83969e-06 0 -0 4.83969e-06 -0 4.83969e-06)
(4.83969e-06 -0 -0 4.83969e-06 -0 4.83969e-06)
(4.83969e-06 -0 -0 4.83969e-06 -0 4.83969e-06)
(4.83969e-06 -0 -0 4.83969e-06 -0 4.83969e-06)
)
;
    }
    fixedWalls
    {
        type            kqRWallFunction;
        value           nonuniform List<symmTensor> 
60
(
(3.85641e-06 -0 -0 3.85641e-06 -0 3.85641e-06)
(3.97774e-06 -0 -0 3.97774e-06 -0 3.97774e-06)
(4.15922e-06 0 -0 4.15922e-06 -0 4.15922e-06)
(4.33624e-06 -0 -0 4.33624e-06 -0 4.33624e-06)
(4.47397e-06 0 -0 4.47397e-06 -0 4.47397e-06)
(4.56742e-06 0 -0 4.56742e-06 -0 4.56742e-06)
(4.62608e-06 -0 -0 4.62608e-06 -0 4.62608e-06)
(4.66208e-06 0 -0 4.66208e-06 -0 4.66208e-06)
(4.68508e-06 0 -0 4.68508e-06 -0 4.68508e-06)
(4.70137e-06 -0 -0 4.70137e-06 -0 4.70137e-06)
(4.71471e-06 0 -0 4.71471e-06 -0 4.71471e-06)
(4.72719e-06 -0 -0 4.72719e-06 -0 4.72719e-06)
(4.74002e-06 0 -0 4.74002e-06 -0 4.74002e-06)
(4.75391e-06 0 -0 4.75391e-06 -0 4.75391e-06)
(4.76923e-06 -0 -0 4.76923e-06 -0 4.76923e-06)
(4.78597e-06 0 -0 4.78597e-06 -0 4.78597e-06)
(4.80348e-06 0 -0 4.80348e-06 -0 4.80348e-06)
(4.82018e-06 -0 -0 4.82018e-06 -0 4.82018e-06)
(4.8336e-06 0 -0 4.8336e-06 -0 4.8336e-06)
(4.83972e-06 0 -0 4.83972e-06 -0 4.83972e-06)
(3.85639e-06 0 -0 3.85639e-06 -0 3.85639e-06)
(3.97671e-06 -0 -0 3.97671e-06 -0 3.97671e-06)
(4.15807e-06 -0 -0 4.15807e-06 -0 4.15807e-06)
(4.33499e-06 -0 -0 4.33499e-06 -0 4.33499e-06)
(4.47264e-06 0 -0 4.47264e-06 -0 4.47264e-06)
(4.56602e-06 0 -0 4.56602e-06 -0 4.56602e-06)
(4.62465e-06 -0 -0 4.62465e-06 -0 4.62465e-06)
(4.66063e-06 0 -0 4.66063e-06 -0 4.66063e-06)
(4.68361e-06 -0 -0 4.68361e-06 -0 4.68361e-06)
(4.69989e-06 -0 -0 4.69989e-06 -0 4.69989e-06)
(4.71322e-06 0 -0 4.71322e-06 -0 4.71322e-06)
(4.72569e-06 0 -0 4.72569e-06 -0 4.72569e-06)
(4.73851e-06 0 -0 4.73851e-06 -0 4.73851e-06)
(4.75239e-06 -0 -0 4.75239e-06 -0 4.75239e-06)
(4.7677e-06 0 -0 4.7677e-06 -0 4.7677e-06)
(4.78444e-06 0 -0 4.78444e-06 -0 4.78444e-06)
(4.80193e-06 0 -0 4.80193e-06 -0 4.80193e-06)
(4.81862e-06 0 -0 4.81862e-06 -0 4.81862e-06)
(4.83209e-06 -0 -0 4.83209e-06 -0 4.83209e-06)
(4.83969e-06 0 -0 4.83969e-06 -0 4.83969e-06)
(3.85641e-06 -0 -0 3.85641e-06 -0 3.85641e-06)
(3.8564e-06 0 -0 3.8564e-06 -0 3.8564e-06)
(3.8564e-06 -0 -0 3.8564e-06 -0 3.8564e-06)
(3.85639e-06 0 -0 3.85639e-06 -0 3.85639e-06)
(3.8564e-06 -0 -0 3.8564e-06 -0 3.8564e-06)
(3.85639e-06 -0 -0 3.85639e-06 -0 3.85639e-06)
(3.8564e-06 -0 -0 3.8564e-06 -0 3.8564e-06)
(3.85639e-06 -0 -0 3.85639e-06 -0 3.85639e-06)
(3.85639e-06 -0 -0 3.85639e-06 -0 3.85639e-06)
(3.85639e-06 -0 -0 3.85639e-06 -0 3.85639e-06)
(3.85639e-06 -0 -0 3.85639e-06 -0 3.85639e-06)
(3.85639e-06 -0 -0 3.85639e-06 -0 3.85639e-06)
(3.85639e-06 -0 -0 3.85639e-06 -0 3.85639e-06)
(3.85639e-06 -0 -0 3.85639e-06 -0 3.85639e-06)
(3.85639e-06 -0 -0 3.85639e-06 -0 3.85639e-06)
(3.85639e-06 -0 -0 3.85639e-06 -0 3.85639e-06)
(3.85639e-06 0 -0 3.85639e-06 -0 3.85639e-06)
(3.85639e-06 0 -0 3.85639e-06 -0 3.85639e-06)
(3.85639e-06 -0 -0 3.85639e-06 -0 3.85639e-06)
(3.85639e-06 -0 -0 3.85639e-06 -0 3.85639e-06)
)
;
    }
    frontAndBack
    {
        type            empty;
    }
}


// ************************************************************************* //
