/*--------------------------------*- C++ -*----------------------------------*\
| =========                 |                                                 |
| \\      /  F ield         | OpenFOAM: The Open Source CFD Toolbox           |
|  \\    /   O peration     | Version:  2506                                  |
|   \\  /    A nd           | Website:  www.openfoam.com                      |
|    \\/     M anipulation  |                                                 |
\*---------------------------------------------------------------------------*/
FoamFile
{
    version     2.0;
    format      ascii;
    arch        "LSB;label=32;scalar=64";
    class       volScalarField;
    location    "7";
    object      turbulenceProperties:k;
}
// * * * * * * * * * * * * * * * * * * * * * * * * * * * * * * * * * * * * * //

dimensions      [0 2 -2 0 0 0 0];

internalField   nonuniform List<scalar> 
400
(
5.78461e-06
5.7846e-06
5.78461e-06
5.78459e-06
5.7846e-06
5.78459e-06
5.78459e-06
5.78459e-06
5.78459e-06
5.78458e-06
5.78458e-06
5.78458e-06
5.78458e-06
5.78458e-06
5.78458e-06
5.78458e-06
5.78458e-06
5.78458e-06
5.78458e-06
5.78458e-06
5.96661e-06
5.96663e-06
5.96632e-06
5.96625e-06
5.96604e-06
5.96597e-06
5.96578e-06
5.96573e-06
5.96557e-06
5.96552e-06
5.9654e-06
5.96536e-06
5.96525e-06
5.96523e-06
5.96515e-06
5.96514e-06
5.96509e-06
5.96508e-06
5.96506e-06
5.96506e-06
6.23883e-06
6.23882e-06
6.23851e-06
6.23841e-06
6.23819e-06
6.23809e-06
6.23792e-06
6.23782e-06
6.23768e-06
6.23759e-06
6.23749e-06
6.23741e-06
6.23733e-06
6.23727e-06
6.23721e-06
6.23718e-06
6.23713e-06
6.23712e-06
6.2371e-06
6.2371e-06
6.50436e-06
6.50436e-06
6.50401e-06
6.50391e-06
6.50366e-06
6.50357e-06
6.50337e-06
6.50326e-06
6.50312e-06
6.503e-06
6.50291e-06
6.50281e-06
6.50273e-06
6.50266e-06
6.50261e-06
6.50256e-06
6.50252e-06
6.5025e-06
6.50249e-06
6.50248e-06
6.71095e-06
6.71095e-06
6.71058e-06
6.71047e-06
6.71021e-06
6.71011e-06
6.70989e-06
6.70979e-06
6.70962e-06
6.70953e-06
6.70939e-06
6.70932e-06
6.70921e-06
6.70916e-06
6.70907e-06
6.70905e-06
6.70899e-06
6.70898e-06
6.70896e-06
6.70895e-06
6.85112e-06
6.85113e-06
6.85073e-06
6.85062e-06
6.85034e-06
6.85025e-06
6.85001e-06
6.84991e-06
6.84973e-06
6.84962e-06
6.8495e-06
6.8494e-06
6.84931e-06
6.84923e-06
6.84917e-06
6.84912e-06
6.84908e-06
6.84905e-06
6.84904e-06
6.84903e-06
6.93912e-06
6.93913e-06
6.93871e-06
6.93861e-06
6.93832e-06
6.93821e-06
6.93799e-06
6.93785e-06
6.9377e-06
6.93757e-06
6.93746e-06
6.93735e-06
6.93726e-06
6.93718e-06
6.93712e-06
6.93706e-06
6.93702e-06
6.937e-06
6.93698e-06
6.93697e-06
6.99312e-06
6.99312e-06
6.99273e-06
6.9926e-06
6.99232e-06
6.9922e-06
6.99197e-06
6.99186e-06
6.99168e-06
6.99156e-06
6.99143e-06
6.99133e-06
6.99123e-06
6.99116e-06
6.99108e-06
6.99104e-06
6.99099e-06
6.99097e-06
6.99095e-06
6.99094e-06
7.02761e-06
7.02761e-06
7.02721e-06
7.02708e-06
7.0268e-06
7.02668e-06
7.02645e-06
7.02632e-06
7.02616e-06
7.02603e-06
7.02591e-06
7.0258e-06
7.0257e-06
7.02563e-06
7.02555e-06
7.02551e-06
7.02545e-06
7.02544e-06
7.02542e-06
7.02541e-06
7.05206e-06
7.05206e-06
7.05165e-06
7.05152e-06
7.05124e-06
7.05112e-06
7.05089e-06
7.05076e-06
7.05059e-06
7.05046e-06
7.05034e-06
7.05024e-06
7.05013e-06
7.05006e-06
7.04998e-06
7.04994e-06
7.04988e-06
7.04987e-06
7.04985e-06
7.04984e-06
7.07206e-06
7.07206e-06
7.07165e-06
7.07152e-06
7.07124e-06
7.07111e-06
7.07089e-06
7.07076e-06
7.07059e-06
7.07046e-06
7.07033e-06
7.07023e-06
7.07012e-06
7.07006e-06
7.06997e-06
7.06993e-06
7.06988e-06
7.06986e-06
7.06984e-06
7.06983e-06
7.09078e-06
7.09079e-06
7.09037e-06
7.09025e-06
7.08995e-06
7.08984e-06
7.08959e-06
7.08948e-06
7.0893e-06
7.08917e-06
7.08905e-06
7.08894e-06
7.08885e-06
7.08876e-06
7.08869e-06
7.08863e-06
7.08859e-06
7.08857e-06
7.08855e-06
7.08854e-06
7.11003e-06
7.11003e-06
7.10961e-06
7.10949e-06
7.10919e-06
7.10907e-06
7.10883e-06
7.10871e-06
7.10854e-06
7.1084e-06
7.10828e-06
7.10817e-06
7.10807e-06
7.10799e-06
7.10792e-06
7.10787e-06
7.10782e-06
7.1078e-06
7.10778e-06
7.10777e-06
7.13086e-06
7.13087e-06
7.13043e-06
7.13031e-06
7.13002e-06
7.12989e-06
7.12967e-06
7.12951e-06
7.12936e-06
7.12922e-06
7.1291e-06
7.12898e-06
7.1289e-06
7.1288e-06
7.12874e-06
7.12868e-06
7.12864e-06
7.12861e-06
7.12859e-06
7.12859e-06
7.15384e-06
7.15386e-06
7.1534e-06
7.1533e-06
7.15299e-06
7.15289e-06
7.15261e-06
7.15254e-06
7.1523e-06
7.15223e-06
7.15204e-06
7.15199e-06
7.15184e-06
7.15181e-06
7.15169e-06
7.15167e-06
7.1516e-06
7.15159e-06
7.15156e-06
7.15156e-06
7.17896e-06
7.17896e-06
7.17854e-06
7.1784e-06
7.17811e-06
7.17798e-06
7.17775e-06
7.17761e-06
7.17744e-06
7.1773e-06
7.17718e-06
7.17706e-06
7.17697e-06
7.17688e-06
7.17681e-06
7.17675e-06
7.17671e-06
7.17668e-06
7.17667e-06
7.17666e-06
7.20522e-06
7.20522e-06
7.20479e-06
7.20466e-06
7.20436e-06
7.20424e-06
7.20399e-06
7.20387e-06
7.20368e-06
7.20356e-06
7.20341e-06
7.20332e-06
7.2032e-06
7.20314e-06
7.20304e-06
7.20301e-06
7.20295e-06
7.20293e-06
7.20291e-06
7.2029e-06
7.23027e-06
7.23026e-06
7.22986e-06
7.2297e-06
7.22941e-06
7.22927e-06
7.22904e-06
7.2289e-06
7.22872e-06
7.22859e-06
7.22846e-06
7.22835e-06
7.22824e-06
7.22817e-06
7.22808e-06
7.22804e-06
7.22798e-06
7.22796e-06
7.22794e-06
7.22794e-06
7.25041e-06
7.25041e-06
7.25e-06
7.24987e-06
7.24958e-06
7.24945e-06
7.24923e-06
7.24907e-06
7.24892e-06
7.24877e-06
7.24866e-06
7.24854e-06
7.24844e-06
7.24836e-06
7.24829e-06
7.24823e-06
7.24818e-06
7.24816e-06
7.24814e-06
7.24813e-06
7.25958e-06
7.25957e-06
7.25957e-06
7.25956e-06
7.25956e-06
7.25955e-06
7.25955e-06
7.25955e-06
7.25955e-06
7.25954e-06
7.25954e-06
7.25954e-06
7.25954e-06
7.25954e-06
7.25954e-06
7.25954e-06
7.25954e-06
7.25954e-06
7.25954e-06
7.25954e-06
)
;

boundaryField
{
    movingWall
    {
        type            kqRWallFunction;
        value           nonuniform List<scalar> 
20
(
7.25958e-06
7.25957e-06
7.25957e-06
7.25956e-06
7.25956e-06
7.25955e-06
7.25955e-06
7.25955e-06
7.25955e-06
7.25954e-06
7.25954e-06
7.25954e-06
7.25954e-06
7.25954e-06
7.25954e-06
7.25954e-06
7.25954e-06
7.25954e-06
7.25954e-06
7.25954e-06
)
;
    }
    fixedWalls
    {
        type            kqRWallFunction;
        value           nonuniform List<scalar> 
60
(
5.78461e-06
5.96661e-06
6.23883e-06
6.50436e-06
6.71095e-06
6.85112e-06
6.93912e-06
6.99312e-06
7.02761e-06
7.05206e-06
7.07206e-06
7.09078e-06
7.11003e-06
7.13086e-06
7.15384e-06
7.17896e-06
7.20522e-06
7.23027e-06
7.25041e-06
7.25958e-06
5.78458e-06
5.96506e-06
6.2371e-06
6.50248e-06
6.70895e-06
6.84903e-06
6.93697e-06
6.99094e-06
7.02541e-06
7.04984e-06
7.06983e-06
7.08854e-06
7.10777e-06
7.12859e-06
7.15156e-06
7.17666e-06
7.2029e-06
7.22794e-06
7.24813e-06
7.25954e-06
5.78461e-06
5.7846e-06
5.78461e-06
5.78459e-06
5.7846e-06
5.78459e-06
5.78459e-06
5.78459e-06
5.78459e-06
5.78458e-06
5.78458e-06
5.78458e-06
5.78458e-06
5.78458e-06
5.78458e-06
5.78458e-06
5.78458e-06
5.78458e-06
5.78458e-06
5.78458e-06
)
;
    }
    frontAndBack
    {
        type            empty;
    }
}


// ************************************************************************* //
