/*--------------------------------*- C++ -*----------------------------------*\
| =========                 |                                                 |
| \\      /  F ield         | OpenFOAM: The Open Source CFD Toolbox           |
|  \\    /   O peration     | Version:  2506                                  |
|   \\  /    A nd           | Website:  www.openfoam.com                      |
|    \\/     M anipulation  |                                                 |
\*---------------------------------------------------------------------------*/
FoamFile
{
    version     2.0;
    format      ascii;
    arch        "LSB;label=32;scalar=64";
    class       volTensorField;
    location    "7";
    object      U2;
}
// * * * * * * * * * * * * * * * * * * * * * * * * * * * * * * * * * * * * * //

dimensions      [0 2 -2 0 0 0 0];

internalField   nonuniform List<tensor> 
400
(
(1 -1.51647e-13 -0 -1.52311e-13 2.30975e-26 0 -0 0 0)
(1 3.25245e-14 -0 3.25522e-14 1.05875e-27 -0 -0 -0 0)
(1 -7.63013e-15 -0 -7.78697e-15 5.94156e-29 0 -0 0 0)
(1 1.56761e-15 -0 1.45385e-15 2.27908e-30 -0 -0 -0 0)
(1 -5.02737e-16 -0 -5.55812e-16 2.79427e-31 0 -0 0 0)
(1 -1.212e-16 -0 -7.22997e-17 8.76276e-33 0 -0 0 0)
(1 -2.0033e-16 -0 -1.04994e-16 2.10334e-32 0 -0 0 0)
(1 -1.11622e-16 -0 8.35975e-20 -9.33133e-36 -0 -0 0 0)
(1 -2.16642e-17 -0 2.58173e-17 -5.59311e-34 -0 -0 0 0)
(1 7.78605e-17 -0 1.98552e-17 1.54593e-33 -0 -0 -0 0)
(1 6.05871e-17 -0 5.98458e-18 3.62588e-34 -0 -0 -0 0)
(1 -7.23019e-17 -0 -5.48902e-17 3.96867e-33 0 -0 0 0)
(1 -2.07146e-17 -0 -4.68222e-18 9.69904e-35 0 -0 0 0)
(1 1.79582e-17 -0 -4.63182e-17 -8.31791e-34 0 -0 -0 0)
(1 -3.26699e-17 -0 -1.03757e-16 3.38974e-33 0 -0 0 0)
(1 -1.33326e-16 -0 -1.23237e-16 1.64306e-32 0 -0 0 0)
(1 -1.40186e-16 -0 -9.26566e-17 1.29892e-32 0 -0 0 0)
(1 -1.01664e-16 -0 -2.40874e-17 2.44881e-33 0 -0 0 0)
(1 4.96453e-18 -0 -9.8035e-18 -4.86698e-35 0 -0 -0 0)
(1 -3.04922e-17 -0 -5.79124e-17 1.76588e-33 0 -0 0 0)
(1 -4.00268e-15 -0 -4.22531e-15 1.69126e-29 0 -0 0 0)
(1 1.0046e-15 -0 7.54847e-16 7.58317e-31 -0 -0 -0 0)
(1 -1.61722e-16 -0 -3.68909e-16 5.96605e-32 0 -0 0 0)
(1 4.73574e-17 -0 -1.47785e-16 -6.99874e-33 0 -0 -0 0)
(1 -7.31651e-17 -0 -1.6702e-16 1.222e-32 0 -0 0 0)
(1 -2.19518e-16 -0 -1.26748e-16 2.78235e-32 0 -0 0 0)
(1 -1.51675e-16 -0 -5.27724e-18 8.00423e-34 0 -0 0 0)
(1 4.56321e-17 -0 1.0565e-16 4.82102e-33 -0 -0 -0 0)
(1 1.22148e-16 -0 1.03151e-16 1.25997e-32 -0 -0 -0 0)
(1 9.52243e-17 -0 8.05026e-17 7.6658e-33 -0 -0 -0 0)
(1 8.75394e-17 -0 1.65851e-17 1.45185e-33 -0 -0 -0 0)
(1 -4.54266e-17 -0 -1.20399e-16 5.46932e-33 0 -0 0 0)
(1 -3.07594e-17 -0 -1.04377e-16 3.21058e-33 0 -0 0 0)
(1 -8.8076e-17 -0 -4.21319e-17 3.7108e-33 0 -0 0 0)
(1 -2.21432e-17 -0 7.46091e-18 -1.65208e-34 -0 -0 0 0)
(1 -6.73579e-17 -0 -9.68978e-17 6.52683e-33 0 -0 0 0)
(1 -8.81544e-17 -0 -1.61028e-16 1.41953e-32 0 -0 0 0)
(1 -1.07332e-16 -0 -3.53504e-17 3.79424e-33 0 -0 0 0)
(1 8.14321e-18 -0 7.43326e-17 6.05306e-34 -0 -0 -0 0)
(1 1.49003e-17 -0 2.4179e-17 3.60274e-34 -0 -0 -0 0)
(1 1.35633e-13 -0 1.35356e-13 1.83586e-26 -0 -0 -0 0)
(1 -2.94542e-14 -0 -2.97427e-14 8.76047e-28 0 -0 0 0)
(1 6.91526e-15 -0 6.73616e-15 4.65823e-29 -0 -0 -0 0)
(1 -1.54762e-15 -0 -1.68704e-15 2.6109e-30 0 -0 0 0)
(1 2.57117e-16 -0 1.35187e-16 3.47588e-32 -0 -0 -0 0)
(1 -2.38148e-16 -0 -2.92872e-16 6.97468e-32 0 -0 0 0)
(1 -2.12446e-16 -0 -2.50452e-16 5.32076e-32 0 -0 0 0)
(1 -1.53786e-16 -0 -2.81735e-16 4.33269e-32 0 -0 0 0)
(1 -1.45031e-16 -0 -1.34694e-16 1.95349e-32 0 -0 0 0)
(1 -1.46669e-16 -0 2.07173e-17 -3.0386e-33 -0 -0 0 0)
(1 -9.08803e-17 -0 -4.88232e-17 4.43707e-33 0 -0 0 0)
(1 3.66667e-17 -0 3.81694e-17 1.39954e-33 -0 -0 -0 0)
(1 1.10675e-16 -0 1.00782e-16 1.11541e-32 -0 -0 -0 0)
(1 3.58832e-17 -0 1.26197e-16 4.52835e-33 -0 -0 -0 0)
(1 9.41617e-17 -0 1.9084e-16 1.79698e-32 -0 -0 -0 0)
(1 1.9128e-16 -0 1.91523e-16 3.66345e-32 -0 -0 -0 0)
(1 2.1109e-16 -0 9.2218e-17 1.94663e-32 -0 -0 -0 0)
(1 1.03606e-16 -0 4.82126e-17 4.9951e-33 -0 -0 -0 0)
(1 8.51657e-17 -0 1.30207e-16 1.10892e-32 -0 -0 -0 0)
(1 1.18872e-16 -0 1.23144e-16 1.46384e-32 -0 -0 -0 0)
(1 -1.13589e-13 -0 -1.14196e-13 1.29714e-26 0 -0 0 0)
(1 2.46348e-14 -0 2.46212e-14 6.06538e-28 -0 -0 -0 0)
(1 -5.63669e-15 -0 -5.76835e-15 3.25144e-29 0 -0 0 0)
(1 1.35848e-15 -0 1.22677e-15 1.66655e-30 -0 -0 -0 0)
(1 -2.75317e-16 -0 -4.46844e-16 1.23024e-31 0 -0 0 0)
(1 -6.70919e-17 -0 -2.25852e-16 1.51528e-32 0 -0 0 0)
(1 -2.44819e-16 -0 -3.75334e-16 9.18888e-32 0 -0 0 0)
(1 -2.17927e-16 -0 -3.09247e-16 6.73932e-32 0 -0 0 0)
(1 -2.24743e-16 -0 -2.05647e-16 4.62177e-32 0 -0 0 0)
(1 -1.51665e-16 -0 -3.79381e-17 5.75387e-33 0 -0 0 0)
(1 -5.95836e-17 -0 1.031e-16 -6.14304e-33 -0 -0 0 0)
(1 1.46349e-16 -0 2.22006e-16 3.24903e-32 -0 -0 -0 0)
(1 1.67433e-16 -0 2.25516e-16 3.77589e-32 -0 -0 -0 0)
(1 1.26255e-16 -0 1.39701e-16 1.76379e-32 -0 -0 -0 0)
(1 1.21798e-16 -0 1.13057e-16 1.37702e-32 -0 -0 -0 0)
(1 1.99718e-16 -0 1.68144e-16 3.35813e-32 -0 -0 -0 0)
(1 1.44585e-16 -0 1.79791e-16 2.59951e-32 -0 -0 -0 0)
(1 1.50942e-16 -0 1.06143e-16 1.60215e-32 -0 -0 -0 0)
(1 1.28491e-16 -0 6.51417e-17 8.37015e-33 -0 -0 -0 0)
(1 8.16806e-17 -0 1.1396e-17 9.30828e-34 -0 -0 -0 0)
(1 1.32832e-14 -0 1.34106e-14 1.78135e-28 -0 -0 -0 0)
(1 -2.35681e-15 -0 -2.55304e-15 6.01704e-30 0 -0 0 0)
(1 6.41526e-16 -0 5.63876e-16 3.61741e-31 -0 -0 -0 0)
(1 -1.48525e-16 -0 -3.11817e-16 4.63126e-32 0 -0 0 0)
(1 -1.26395e-16 -0 -2.52368e-16 3.1898e-32 0 -0 0 0)
(1 -2.66552e-16 -0 -3.24202e-16 8.64169e-32 0 -0 0 0)
(1 -2.24016e-16 -0 -2.61446e-16 5.8568e-32 0 -0 0 0)
(1 -1.16533e-16 -0 -9.61991e-17 1.12104e-32 0 -0 0 0)
(1 -5.43661e-17 -0 -1.11509e-16 6.06231e-33 0 -0 0 0)
(1 -5.92713e-17 -0 -4.46353e-17 2.64559e-33 0 -0 0 0)
(1 6.8253e-17 -0 1.96767e-16 1.34299e-32 -0 -0 -0 0)
(1 2.34112e-16 -0 2.04436e-16 4.7861e-32 -0 -0 -0 0)
(1 5.90755e-17 -0 5.75581e-17 3.40027e-33 -0 -0 -0 0)
(1 2.06059e-17 -0 9.58021e-17 1.97409e-33 -0 -0 -0 0)
(1 1.14191e-16 -0 1.938e-16 2.21302e-32 -0 -0 -0 0)
(1 2.07783e-16 -0 2.28122e-16 4.73999e-32 -0 -0 -0 0)
(1 1.73336e-16 -0 1.61673e-16 2.80238e-32 -0 -0 -0 0)
(1 1.20612e-16 -0 -1.65937e-17 -2.0014e-33 0 -0 -0 0)
(1 3.27788e-18 -0 -8.81064e-17 -2.88802e-34 0 -0 -0 0)
(1 1.13829e-17 -0 -6.85385e-17 -7.8017e-34 0 -0 -0 0)
(1 1.0744e-13 -0 1.07272e-13 1.15254e-26 -0 -0 -0 0)
(1 -2.36425e-14 -0 -2.37438e-14 5.61363e-28 0 -0 0 0)
(1 5.39468e-15 -0 5.35526e-15 2.88899e-29 -0 -0 -0 0)
(1 -1.3401e-15 -0 -1.3642e-15 1.82817e-30 0 -0 0 0)
(1 1.14456e-16 -0 1.24613e-16 1.42626e-32 -0 -0 -0 0)
(1 -1.77528e-16 -0 -2.16429e-16 3.84222e-32 0 -0 0 0)
(1 -8.38886e-17 -0 -1.68497e-16 1.4135e-32 0 -0 0 0)
(1 -1.13245e-16 -0 -1.35187e-16 1.53093e-32 0 -0 0 0)
(1 -9.06546e-17 -0 -7.05259e-17 6.3935e-33 0 -0 0 0)
(1 -8.48424e-17 -0 -4.05791e-17 3.44283e-33 0 -0 0 0)
(1 -1.8652e-17 -0 3.43939e-17 -6.41516e-34 -0 -0 0 0)
(1 4.43891e-17 -0 7.81223e-17 3.46778e-33 -0 -0 -0 0)
(1 5.77597e-17 -0 8.92318e-17 5.154e-33 -0 -0 -0 0)
(1 1.38363e-16 -0 1.68634e-16 2.33327e-32 -0 -0 -0 0)
(1 1.45905e-16 -0 2.46925e-16 3.60275e-32 -0 -0 -0 0)
(1 1.90819e-16 -0 2.38762e-16 4.55604e-32 -0 -0 -0 0)
(1 2.11436e-16 -0 1.57166e-16 3.32305e-32 -0 -0 -0 0)
(1 9.12267e-17 -0 -3.76728e-17 -3.43677e-33 0 -0 -0 0)
(1 -1.66844e-17 -0 -1.52329e-16 2.54152e-33 0 -0 0 0)
(1 2.76958e-18 -0 -9.6281e-17 -2.66658e-34 0 -0 -0 0)
(1 -1.55418e-13 -0 -1.56073e-13 2.42566e-26 0 -0 0 0)
(1 3.32664e-14 -0 3.33459e-14 1.1093e-27 -0 -0 -0 0)
(1 -7.93985e-15 -0 -7.94349e-15 6.30702e-29 0 -0 0 0)
(1 1.71862e-15 -0 1.77059e-15 3.04297e-30 -0 -0 -0 0)
(1 -3.39716e-16 -0 -3.06436e-16 1.04101e-31 0 -0 0 0)
(1 1.64513e-16 -0 9.23299e-17 1.51894e-32 -0 -0 -0 0)
(1 1.39189e-17 -0 -7.50394e-17 -1.04446e-33 0 -0 -0 0)
(1 -6.27853e-17 -0 -1.49776e-16 9.40375e-33 0 -0 0 0)
(1 -2.12e-16 -0 -2.20251e-16 4.66931e-32 0 -0 0 0)
(1 -2.77486e-16 -0 -2.50791e-16 6.9591e-32 0 -0 0 0)
(1 -1.92112e-16 -0 -7.46757e-17 1.43461e-32 0 -0 0 0)
(1 -1.19574e-16 -0 -1.05346e-17 1.25966e-33 0 -0 0 0)
(1 2.17124e-17 -0 7.97117e-17 1.73073e-33 -0 -0 -0 0)
(1 1.34864e-16 -0 1.39675e-16 1.88372e-32 -0 -0 -0 0)
(1 1.33137e-16 -0 9.88892e-17 1.31658e-32 -0 -0 -0 0)
(1 6.24073e-17 -0 1.85165e-17 1.15556e-33 -0 -0 -0 0)
(1 5.18509e-17 -0 -1.69398e-18 -8.78342e-35 0 -0 -0 0)
(1 5.20878e-17 -0 2.60156e-17 1.3551e-33 -0 -0 -0 0)
(1 5.56138e-17 -0 -2.90913e-17 -1.61788e-33 0 -0 -0 0)
(1 1.77357e-17 -0 -5.76595e-17 -1.02263e-33 0 -0 -0 0)
(1 6.28161e-14 -0 6.3047e-14 3.96037e-27 -0 -0 -0 0)
(1 -1.33632e-14 -0 -1.35126e-14 1.80572e-28 0 -0 0 0)
(1 3.20791e-15 -0 3.15982e-15 1.01364e-29 -0 -0 -0 0)
(1 -6.19882e-16 -0 -7.07351e-16 4.38474e-31 0 -0 0 0)
(1 1.44734e-16 -0 5.12599e-17 7.41905e-33 -0 -0 -0 0)
(1 -8.23151e-17 -0 -1.68567e-16 1.38756e-32 0 -0 0 0)
(1 -1.23448e-16 -0 -1.08074e-16 1.33416e-32 0 -0 0 0)
(1 -1.17657e-16 -0 -1.16724e-16 1.37334e-32 0 -0 0 0)
(1 -1.22622e-16 -0 -1.2469e-16 1.52899e-32 0 -0 0 0)
(1 -9.88117e-17 -0 -7.54953e-17 7.45982e-33 0 -0 0 0)
(1 -2.42199e-17 -0 1.46491e-17 -3.548e-34 -0 -0 0 0)
(1 4.62583e-18 -0 3.89654e-17 1.80247e-34 -0 -0 -0 0)
(1 2.21378e-17 -0 8.91622e-17 1.97386e-33 -0 -0 -0 0)
(1 6.04515e-17 -0 7.93852e-17 4.79896e-33 -0 -0 -0 0)
(1 5.45922e-17 -0 1.1702e-17 6.3884e-34 -0 -0 -0 0)
(1 4.43221e-17 -0 -1.12362e-17 -4.9801e-34 0 -0 -0 0)
(1 8.10864e-17 -0 -6.68175e-17 -5.41799e-33 0 -0 -0 0)
(1 3.82445e-17 -0 -6.72404e-17 -2.57158e-33 0 -0 -0 0)
(1 5.75639e-18 -0 1.2798e-17 7.36703e-35 -0 -0 -0 0)
(1 2.00967e-17 -0 -9.46718e-18 -1.90259e-34 0 -0 -0 0)
(1 6.74895e-14 -0 6.77069e-14 4.56951e-27 -0 -0 -0 0)
(1 -1.43542e-14 -0 -1.45002e-14 2.08138e-28 0 -0 0 0)
(1 3.40773e-15 -0 3.39038e-15 1.15535e-29 -0 -0 -0 0)
(1 -6.59322e-16 -0 -6.6349e-16 4.37453e-31 0 -0 0 0)
(1 2.31685e-16 -0 1.9924e-16 4.61609e-32 -0 -0 -0 0)
(1 4.19375e-17 -0 -6.33331e-18 -2.65603e-34 0 -0 -0 0)
(1 2.2897e-17 -0 -2.36214e-17 -5.4086e-34 0 -0 -0 0)
(1 -2.50634e-17 -0 -3.20509e-17 8.03304e-34 0 -0 0 0)
(1 2.03152e-17 -0 2.24452e-17 4.55979e-34 -0 -0 -0 0)
(1 1.1601e-16 -0 1.01792e-16 1.18089e-32 -0 -0 -0 0)
(1 4.69042e-17 -0 -9.36823e-17 -4.39409e-33 0 -0 -0 0)
(1 -9.00225e-17 -0 -1.31666e-16 1.18529e-32 0 -0 0 0)
(1 -8.57843e-17 -0 2.48389e-18 -2.13079e-34 -0 -0 0 0)
(1 6.59344e-18 -0 3.38525e-17 2.23205e-34 -0 -0 -0 0)
(1 1.06652e-18 -0 -8.45912e-17 -9.02178e-35 0 -0 -0 0)
(1 8.99915e-18 -0 -3.96262e-17 -3.56602e-34 0 -0 -0 0)
(1 5.14221e-17 -0 2.93357e-17 1.5085e-33 -0 -0 -0 0)
(1 8.35361e-17 -0 2.4188e-17 2.02057e-33 -0 -0 -0 0)
(1 3.15785e-18 -0 -6.84407e-17 -2.16126e-34 0 -0 -0 0)
(1 -5.72502e-17 -0 -5.27148e-17 3.01793e-33 0 -0 0 0)
(1 -1.35365e-13 -0 -1.3598e-13 1.84069e-26 0 -0 0 0)
(1 2.91094e-14 -0 2.91496e-14 8.48529e-28 -0 -0 -0 0)
(1 -6.84473e-15 -0 -6.95271e-15 4.75894e-29 0 -0 0 0)
(1 1.33268e-15 -0 1.32949e-15 1.7718e-30 -0 -0 -0 0)
(1 -4.02632e-16 -0 -3.68539e-16 1.48385e-31 0 -0 0 0)
(1 6.69042e-17 -0 9.63194e-17 6.44418e-33 -0 -0 -0 0)
(1 -2.38749e-17 -0 -8.99492e-17 2.14753e-33 0 -0 0 0)
(1 -1.18328e-16 -0 -1.23452e-16 1.46079e-32 0 -0 0 0)
(1 -8.35746e-17 -0 -9.22539e-17 7.71009e-33 0 -0 0 0)
(1 1.50528e-17 -0 -6.56444e-17 -9.88129e-34 0 -0 -0 0)
(1 -3.59542e-17 -0 -1.13619e-16 4.08506e-33 0 -0 0 0)
(1 -3.90606e-17 -0 -8.04447e-17 3.14222e-33 0 -0 0 0)
(1 -2.18122e-17 -0 -5.85703e-17 1.27755e-33 0 -0 0 0)
(1 1.57118e-17 -0 -5.21995e-17 -8.20148e-34 0 -0 -0 0)
(1 -9.59115e-18 -0 -8.35399e-17 8.01244e-34 0 -0 0 0)
(1 -6.80468e-17 -0 -9.582e-17 6.52024e-33 0 -0 0 0)
(1 -1.22986e-16 -0 -6.3497e-17 7.80924e-33 0 -0 0 0)
(1 -5.73455e-18 -0 6.84013e-17 -3.92251e-34 -0 -0 0 0)
(1 6.16349e-17 -0 3.17701e-17 1.95814e-33 -0 -0 -0 0)
(1 6.92586e-17 -0 -4.6562e-17 -3.22482e-33 0 -0 -0 0)
(1 1.33138e-13 -0 1.3378e-13 1.78112e-26 -0 -0 -0 0)
(1 -2.84724e-14 -0 -2.85616e-14 8.13215e-28 0 -0 0 0)
(1 6.76024e-15 -0 6.69153e-15 4.52363e-29 -0 -0 -0 0)
(1 -1.41246e-15 -0 -1.49368e-15 2.10976e-30 0 -0 0 0)
(1 4.29614e-16 -0 4.08399e-16 1.75454e-31 -0 -0 -0 0)
(1 6.75793e-17 -0 6.93818e-17 4.68877e-33 -0 -0 -0 0)
(1 1.8235e-16 -0 1.32616e-16 2.41825e-32 -0 -0 -0 0)
(1 9.54948e-17 -0 2.70173e-17 2.58002e-33 -0 -0 -0 0)
(1 1.2708e-16 -0 9.52869e-17 1.2109e-32 -0 -0 -0 0)
(1 1.33955e-16 -0 9.25473e-17 1.23972e-32 -0 -0 -0 0)
(1 1.11198e-16 -0 9.47017e-17 1.05306e-32 -0 -0 -0 0)
(1 1.1462e-16 -0 6.47461e-17 7.42121e-33 -0 -0 -0 0)
(1 1.30194e-16 -0 1.27241e-17 1.65661e-33 -0 -0 -0 0)
(1 2.67191e-17 -0 -6.82152e-17 -1.82265e-33 0 -0 -0 0)
(1 -1.67443e-17 -0 3.07543e-17 -5.14959e-34 -0 -0 0 0)
(1 -5.68901e-18 -0 -1.7903e-17 1.0185e-34 0 -0 0 0)
(1 -5.57179e-17 -0 -4.58488e-17 2.5546e-33 0 -0 0 0)
(1 -3.03254e-17 -0 -2.24016e-17 6.79337e-34 0 -0 0 0)
(1 8.94696e-17 -0 8.03625e-17 7.19001e-33 -0 -0 -0 0)
(1 1.46139e-16 -0 -1.10992e-17 -1.62202e-33 0 -0 -0 0)
(1 -8.26293e-14 -0 -8.25181e-14 6.81841e-27 0 -0 0 0)
(1 1.85095e-14 -0 1.84799e-14 3.42054e-28 -0 -0 -0 0)
(1 -4.27515e-15 -0 -4.23948e-15 1.81244e-29 0 -0 0 0)
(1 1.12351e-15 -0 1.07959e-15 1.21293e-30 -0 -0 -0 0)
(1 -8.26184e-17 -0 -1.22675e-16 1.01352e-32 0 -0 0 0)
(1 1.50564e-16 -0 1.18781e-16 1.78842e-32 -0 -0 -0 0)
(1 9.26839e-17 -0 4.02974e-17 3.73492e-33 -0 -0 -0 0)
(1 1.21611e-16 -0 7.17702e-19 8.72805e-35 -0 -0 -0 0)
(1 7.85409e-17 -0 2.03092e-17 1.5951e-33 -0 -0 -0 0)
(1 5.40592e-17 -0 3.22992e-17 1.74607e-33 -0 -0 -0 0)
(1 9.22251e-17 -0 2.78431e-17 2.56783e-33 -0 -0 -0 0)
(1 1.06603e-19 -0 -3.46149e-17 -3.69003e-36 0 -0 -0 0)
(1 -1.50444e-17 -0 -4.88443e-17 7.34833e-34 0 -0 0 0)
(1 -8.64208e-17 -0 -8.68123e-17 7.50239e-33 0 -0 0 0)
(1 -1.03475e-16 -0 -4.24849e-17 4.39615e-33 0 -0 0 0)
(1 -1.06294e-16 -0 -1.48413e-16 1.57753e-32 0 -0 0 0)
(1 -7.85899e-17 -0 -9.4243e-17 7.40655e-33 0 -0 0 0)
(1 -3.45919e-17 -0 -5.96082e-17 2.06196e-33 0 -0 0 0)
(1 3.14206e-17 -0 2.80178e-17 8.80338e-34 -0 -0 -0 0)
(1 2.21665e-17 -0 -4.00066e-18 -8.86806e-35 0 -0 -0 0)
(1 2.00066e-15 -0 1.68646e-15 3.37403e-30 -0 -0 -0 0)
(1 -8.29947e-16 -0 -8.84617e-16 7.34186e-31 0 -0 0 0)
(1 1.97263e-16 -0 1.51584e-16 2.99019e-32 -0 -0 -0 0)
(1 -6.79334e-17 -0 -1.24417e-16 8.45207e-33 0 -0 0 0)
(1 -3.09055e-17 -0 -4.97905e-17 1.5388e-33 0 -0 0 0)
(1 -3.0759e-17 -0 -1.06493e-17 3.27562e-34 0 -0 0 0)
(1 7.29377e-17 -0 9.33647e-17 6.80981e-33 -0 -0 -0 0)
(1 1.5205e-16 -0 1.27587e-16 1.93996e-32 -0 -0 -0 0)
(1 7.53126e-17 -0 4.13659e-17 3.11538e-33 -0 -0 -0 0)
(1 5.11571e-18 -0 -7.57754e-17 -3.87646e-34 0 -0 -0 0)
(1 4.62232e-18 -0 -5.89123e-17 -2.72312e-34 0 -0 -0 0)
(1 4.04749e-17 -0 -1.36506e-17 -5.52504e-34 0 -0 -0 0)
(1 4.82224e-17 -0 -1.56651e-17 -7.55409e-34 0 -0 -0 0)
(1 -9.16421e-18 -0 -7.0798e-17 6.48808e-34 0 -0 0 0)
(1 -1.03327e-16 -0 -1.00418e-16 1.03759e-32 0 -0 0 0)
(1 -1.16076e-16 -0 -1.02149e-16 1.18571e-32 0 -0 0 0)
(1 -3.03392e-17 -0 -4.20563e-17 1.27595e-33 0 -0 0 0)
(1 -1.3923e-18 -0 6.00094e-17 -8.35511e-35 -0 -0 0 0)
(1 -3.55765e-17 -0 5.01256e-17 -1.78329e-33 -0 -0 0 0)
(1 4.07614e-17 -0 -2.95373e-18 -1.20398e-34 0 -0 -0 0)
(1 8.42429e-14 -0 8.41641e-14 7.09023e-27 -0 -0 -0 0)
(1 -1.87463e-14 -0 -1.88385e-14 3.53153e-28 0 -0 0 0)
(1 4.33598e-15 -0 4.3008e-15 1.86482e-29 -0 -0 -0 0)
(1 -1.03366e-15 -0 -9.23784e-16 9.54881e-31 0 -0 0 0)
(1 3.43818e-16 -0 3.06956e-16 1.05537e-31 -0 -0 -0 0)
(1 1.34424e-16 -0 5.05605e-17 6.79656e-33 -0 -0 -0 0)
(1 1.92107e-16 -0 1.89448e-16 3.63943e-32 -0 -0 -0 0)
(1 9.85138e-17 -0 9.74547e-17 9.60063e-33 -0 -0 -0 0)
(1 4.43676e-17 -0 -2.69516e-17 -1.19578e-33 0 -0 -0 0)
(1 -5.60709e-17 -0 -1.30025e-16 7.29059e-33 0 -0 0 0)
(1 -1.29981e-16 -0 -1.72866e-16 2.24693e-32 0 -0 0 0)
(1 -9.8698e-18 -0 -2.37019e-17 2.33933e-34 0 -0 0 0)
(1 6.47309e-17 -0 4.87776e-17 3.15742e-33 -0 -0 -0 0)
(1 6.9913e-17 -0 -5.17121e-17 -3.61535e-33 0 -0 -0 0)
(1 -5.74836e-17 -0 -1.65601e-16 9.51936e-33 0 -0 0 0)
(1 -6.29315e-17 -0 6.03279e-17 -3.79652e-33 -0 -0 0 0)
(1 8.7472e-17 -0 1.85579e-16 1.6233e-32 -0 -0 -0 0)
(1 1.08805e-16 -0 1.26884e-16 1.38055e-32 -0 -0 -0 0)
(1 5.62309e-17 -0 3.25992e-17 1.83308e-33 -0 -0 -0 0)
(1 7.33859e-17 -0 8.32401e-18 6.10864e-34 -0 -0 -0 0)
(1 -1.41009e-13 -0 -1.41158e-13 1.99045e-26 0 -0 0 0)
(1 3.10474e-14 -0 3.10672e-14 9.64556e-28 -0 -0 -0 0)
(1 -7.09761e-15 -0 -7.03282e-15 4.99162e-29 0 -0 0 0)
(1 1.77979e-15 -0 1.82094e-15 3.24089e-30 -0 -0 -0 0)
(1 -2.09667e-16 -0 -2.74651e-16 5.75854e-32 0 -0 0 0)
(1 2.7482e-16 -0 1.82387e-16 5.01235e-32 -0 -0 -0 0)
(1 1.51115e-16 -0 4.33978e-17 6.55805e-33 -0 -0 -0 0)
(1 5.06258e-17 -0 1.5628e-18 7.91181e-35 -0 -0 -0 0)
(1 9.07327e-18 -0 -2.9133e-17 -2.64331e-34 0 -0 -0 0)
(1 -4.14912e-17 -0 -5.98412e-17 2.48288e-33 0 -0 0 0)
(1 -1.01756e-16 -0 -1.83186e-16 1.86403e-32 0 -0 0 0)
(1 -1.59931e-16 -0 -1.63463e-16 2.61427e-32 0 -0 0 0)
(1 -1.63984e-16 -0 -9.40921e-17 1.54296e-32 0 -0 0 0)
(1 -6.71988e-17 -0 -2.6112e-17 1.7547e-33 0 -0 0 0)
(1 3.45656e-17 -0 -2.29567e-17 -7.93512e-34 0 -0 -0 0)
(1 3.83956e-17 -0 1.90847e-17 7.32769e-34 -0 -0 -0 0)
(1 2.14995e-17 -0 1.40016e-17 3.01027e-34 -0 -0 -0 0)
(1 5.469e-18 -0 -4.72846e-17 -2.58599e-34 0 -0 -0 0)
(1 3.41577e-17 -0 7.59235e-18 2.59337e-34 -0 -0 -0 0)
(1 3.22433e-17 -0 -1.58743e-17 -5.1184e-34 0 -0 -0 0)
(1 9.7263e-14 -0 9.75026e-14 9.4834e-27 -0 -0 -0 0)
(1 -2.07028e-14 -0 -2.06561e-14 4.27639e-28 0 -0 0 0)
(1 5.15071e-15 -0 5.19056e-15 2.6735e-29 -0 -0 -0 0)
(1 -8.00651e-16 -0 -8.6708e-16 6.94228e-31 0 -0 0 0)
(1 3.59459e-16 -0 3.22191e-16 1.15815e-31 -0 -0 -0 0)
(1 8.60205e-17 -0 7.44582e-17 6.40494e-33 -0 -0 -0 0)
(1 1.78077e-16 -0 9.5442e-17 1.6996e-32 -0 -0 -0 0)
(1 1.85948e-16 -0 1.40516e-16 2.61286e-32 -0 -0 -0 0)
(1 1.63142e-16 -0 9.96971e-17 1.62648e-32 -0 -0 -0 0)
(1 2.99868e-17 -0 -4.6007e-17 -1.37961e-33 0 -0 -0 0)
(1 -8.71019e-17 -0 -1.5249e-16 1.32822e-32 0 -0 0 0)
(1 -2.4077e-16 -0 -2.61321e-16 6.2918e-32 0 -0 0 0)
(1 -2.74602e-16 -0 -2.25943e-16 6.20443e-32 0 -0 0 0)
(1 -1.23339e-16 -0 7.18462e-17 -8.86147e-33 -0 -0 0 0)
(1 2.43086e-16 -0 3.02899e-16 7.36305e-32 -0 -0 -0 0)
(1 3.44529e-16 -0 2.55224e-16 8.79319e-32 -0 -0 -0 0)
(1 2.20851e-16 -0 1.53237e-16 3.38425e-32 -0 -0 -0 0)
(1 1.37776e-16 -0 1.04403e-16 1.43843e-32 -0 -0 -0 0)
(1 8.16991e-17 -0 3.4754e-17 2.83937e-33 -0 -0 -0 0)
(1 2.86553e-17 -0 -1.75524e-17 -5.0297e-34 0 -0 -0 0)
(1 2.31586e-14 -0 2.27496e-14 5.26848e-28 -0 -0 -0 0)
(1 -5.43547e-15 -0 -5.3679e-15 2.9177e-29 0 -0 0 0)
(1 1.34809e-15 -0 1.30947e-15 1.76528e-30 -0 -0 -0 0)
(1 -1.04297e-16 -0 -1.14741e-16 1.19671e-32 0 -0 0 0)
(1 2.76723e-16 -0 2.00387e-16 5.54517e-32 -0 -0 -0 0)
(1 6.26623e-18 -0 -8.32454e-17 -5.21635e-34 0 -0 -0 0)
(1 -1.01853e-16 -0 -1.07214e-16 1.09202e-32 0 -0 0 0)
(1 -1.37275e-17 -0 7.749e-18 -1.06374e-34 -0 -0 0 0)
(1 3.74463e-17 -0 -4.39132e-17 -1.64439e-33 0 -0 -0 0)
(1 -6.70958e-17 -0 -1.19731e-16 8.03347e-33 0 -0 0 0)
(1 -4.11114e-17 -0 1.41893e-17 -5.83343e-34 -0 -0 0 0)
(1 -8.71365e-18 -0 7.11782e-18 -6.20222e-35 -0 -0 0 0)
(1 -1.04982e-16 -0 -1.21621e-16 1.2768e-32 0 -0 0 0)
(1 -1.18375e-16 -0 -9.13658e-17 1.08155e-32 0 -0 0 0)
(1 4.37475e-17 -0 7.93421e-17 3.47102e-33 -0 -0 -0 0)
(1 2.0323e-16 -0 2.15606e-16 4.38175e-32 -0 -0 -0 0)
(1 2.38776e-16 -0 1.72457e-16 4.11786e-32 -0 -0 -0 0)
(1 1.40438e-16 -0 1.49107e-16 2.09403e-32 -0 -0 -0 0)
(1 9.8458e-17 -0 6.66019e-17 6.55749e-33 -0 -0 -0 0)
(1 5.27913e-17 -0 -5.78184e-18 -3.05231e-34 0 -0 -0 0)
(1 -1.18192e-13 -0 -1.18166e-13 1.39662e-26 0 -0 0 0)
(1 2.57231e-14 -0 2.57362e-14 6.62014e-28 -0 -0 -0 0)
(1 -6.12767e-15 -0 -6.10976e-15 3.74386e-29 0 -0 0 0)
(1 1.53859e-15 -0 1.43827e-15 2.21291e-30 -0 -0 -0 0)
(1 -1.25014e-16 -0 -2.12556e-16 2.65725e-32 0 -0 0 0)
(1 1.21606e-16 -0 3.79968e-17 4.62065e-33 -0 -0 -0 0)
(1 4.73304e-17 -0 6.25314e-18 2.95963e-34 -0 -0 -0 0)
(1 1.45615e-16 -0 1.4719e-16 2.1433e-32 -0 -0 -0 0)
(1 1.65086e-16 -0 1.13415e-16 1.87232e-32 -0 -0 -0 0)
(1 9.76923e-17 -0 1.63416e-17 1.59645e-33 -0 -0 -0 0)
(1 -5.88412e-17 -0 -2.87598e-17 1.69226e-33 0 -0 0 0)
(1 -7.24438e-17 -0 -7.79814e-18 5.64927e-34 0 -0 0 0)
(1 -6.564e-17 -0 -5.39812e-17 3.54333e-33 0 -0 0 0)
(1 -8.83048e-17 -0 -1.36111e-16 1.20193e-32 0 -0 0 0)
(1 -1.01533e-16 -0 -9.9475e-17 1.01e-32 0 -0 0 0)
(1 4.76098e-17 -0 6.7344e-17 3.20623e-33 -0 -0 -0 0)
(1 1.03975e-16 -0 7.39816e-17 7.69225e-33 -0 -0 -0 0)
(1 -1.52819e-17 -0 6.43729e-18 -9.83742e-35 -0 -0 0 0)
(1 -6.46891e-18 -0 -1.51859e-17 9.82364e-35 0 -0 0 0)
(1 4.04764e-17 -0 -9.62181e-18 -3.89456e-34 0 -0 -0 0)
(1 4.90252e-14 -0 4.91634e-14 2.41025e-27 -0 -0 -0 0)
(1 -1.03416e-14 -0 -1.02171e-14 1.05662e-28 0 -0 0 0)
(1 2.64249e-15 -0 2.63679e-15 6.9677e-30 -0 -0 -0 0)
(1 -3.1172e-16 -0 -4.20269e-16 1.31007e-31 0 -0 0 0)
(1 2.35754e-16 -0 1.34011e-16 3.15935e-32 -0 -0 -0 0)
(1 -6.95084e-18 -0 -6.37656e-17 4.43225e-34 0 -0 0 0)
(1 4.68122e-17 -0 4.86064e-17 2.27537e-33 -0 -0 -0 0)
(1 1.29776e-16 -0 1.37791e-16 1.7882e-32 -0 -0 -0 0)
(1 1.47607e-16 -0 2.19599e-16 3.24142e-32 -0 -0 -0 0)
(1 1.89734e-16 -0 1.60484e-16 3.04493e-32 -0 -0 -0 0)
(1 2.85248e-17 -0 -2.00645e-17 -5.72335e-34 0 -0 -0 0)
(1 -1.0688e-16 -0 -7.0469e-17 7.53174e-33 0 -0 0 0)
(1 -5.04895e-17 -0 1.66949e-17 -8.42918e-34 -0 -0 0 0)
(1 3.32589e-17 -0 6.79341e-17 2.25942e-33 -0 -0 -0 0)
(1 8.31099e-17 -0 8.80844e-17 7.32068e-33 -0 -0 -0 0)
(1 1.28018e-16 -0 8.7047e-17 1.11436e-32 -0 -0 -0 0)
(1 1.3584e-16 -0 1.50527e-16 2.04475e-32 -0 -0 -0 0)
(1 6.40896e-17 -0 5.29131e-17 3.39118e-33 -0 -0 -0 0)
(1 4.63236e-17 -0 -1.87437e-18 -8.68273e-35 0 -0 -0 0)
(1 1.99184e-17 -0 2.28196e-18 4.5453e-35 -0 -0 -0 0)
(1 7.86216e-14 -0 7.83516e-14 6.16013e-27 -0 -0 -0 0)
(1 -1.71321e-14 -0 -1.70497e-14 2.92097e-28 0 -0 0 0)
(1 4.23811e-15 -0 4.18415e-15 1.77329e-29 -0 -0 -0 0)
(1 -8.02573e-16 -0 -8.44165e-16 6.77505e-31 0 -0 0 0)
(1 2.18224e-16 -0 1.51239e-16 3.30041e-32 -0 -0 -0 0)
(1 -1.23612e-16 -0 -1.52238e-16 1.88184e-32 0 -0 0 0)
(1 -1.3245e-16 -0 -9.169e-17 1.21443e-32 0 -0 0 0)
(1 -8.82297e-17 -0 -6.81545e-17 6.01325e-33 0 -0 0 0)
(1 -7.14719e-17 -0 4.51293e-17 -3.22547e-33 -0 -0 0 0)
(1 2.69753e-17 -0 1.09691e-16 2.95894e-33 -0 -0 -0 0)
(1 1.26176e-16 -0 1.023e-16 1.29078e-32 -0 -0 -0 0)
(1 7.96936e-17 -0 5.92115e-17 4.71878e-33 -0 -0 -0 0)
(1 4.1885e-17 -0 7.42085e-17 3.10823e-33 -0 -0 -0 0)
(1 5.75382e-17 -0 6.90831e-17 3.97491e-33 -0 -0 -0 0)
(1 7.81997e-17 -0 7.68698e-17 6.01119e-33 -0 -0 -0 0)
(1 6.09609e-17 -0 3.78341e-17 2.3064e-33 -0 -0 -0 0)
(1 9.69486e-17 -0 7.24816e-17 7.02699e-33 -0 -0 -0 0)
(1 7.16653e-17 -0 3.68585e-17 2.64147e-33 -0 -0 -0 0)
(1 3.4825e-17 -0 2.59794e-17 9.04731e-34 -0 -0 -0 0)
(1 -8.96501e-19 -0 -7.14748e-18 6.40773e-36 0 -0 0 0)
)
;

boundaryField
{
    movingWall
    {
        type            calculated;
        value           uniform (1 0 0 0 0 0 0 0 0);
    }
    fixedWalls
    {
        type            calculated;
        value           uniform (1 0 0 0 0 0 0 0 0);
    }
    frontAndBack
    {
        type            empty;
    }
}


// ************************************************************************* //
