/*--------------------------------*- C++ -*----------------------------------*\
| =========                 |                                                 |
| \\      /  F ield         | OpenFOAM: The Open Source CFD Toolbox           |
|  \\    /   O peration     | Version:  2506                                  |
|   \\  /    A nd           | Website:  www.openfoam.com                      |
|    \\/     M anipulation  |                                                 |
\*---------------------------------------------------------------------------*/
FoamFile
{
    version     2.0;
    format      ascii;
    arch        "LSB;label=32;scalar=64";
    class       volScalarField;
    location    "7";
    object      Uy;
}
// * * * * * * * * * * * * * * * * * * * * * * * * * * * * * * * * * * * * * //

dimensions      [0 1 -1 0 0 0 0];

internalField   nonuniform List<scalar> 
400
(
1.52311e-13
-3.25522e-14
7.78697e-15
-1.45385e-15
5.55812e-16
7.22997e-17
1.04994e-16
-8.35975e-20
-2.58173e-17
-1.98552e-17
-5.98458e-18
5.48902e-17
4.68222e-18
4.63182e-17
1.03757e-16
1.23237e-16
9.26566e-17
2.40874e-17
9.8035e-18
5.79124e-17
4.22531e-15
-7.54847e-16
3.68909e-16
1.47785e-16
1.6702e-16
1.26748e-16
5.27724e-18
-1.0565e-16
-1.03151e-16
-8.05026e-17
-1.65851e-17
1.20399e-16
1.04377e-16
4.21319e-17
-7.46091e-18
9.68978e-17
1.61028e-16
3.53504e-17
-7.43326e-17
-2.4179e-17
-1.35356e-13
2.97427e-14
-6.73616e-15
1.68704e-15
-1.35187e-16
2.92872e-16
2.50452e-16
2.81735e-16
1.34694e-16
-2.07173e-17
4.88232e-17
-3.81694e-17
-1.00782e-16
-1.26197e-16
-1.9084e-16
-1.91523e-16
-9.2218e-17
-4.82126e-17
-1.30207e-16
-1.23144e-16
1.14196e-13
-2.46212e-14
5.76835e-15
-1.22677e-15
4.46844e-16
2.25852e-16
3.75334e-16
3.09247e-16
2.05647e-16
3.79381e-17
-1.031e-16
-2.22006e-16
-2.25516e-16
-1.39701e-16
-1.13057e-16
-1.68144e-16
-1.79791e-16
-1.06143e-16
-6.51417e-17
-1.1396e-17
-1.34106e-14
2.55304e-15
-5.63876e-16
3.11817e-16
2.52368e-16
3.24202e-16
2.61446e-16
9.61991e-17
1.11509e-16
4.46353e-17
-1.96767e-16
-2.04436e-16
-5.75581e-17
-9.58021e-17
-1.938e-16
-2.28122e-16
-1.61673e-16
1.65937e-17
8.81064e-17
6.85385e-17
-1.07272e-13
2.37438e-14
-5.35526e-15
1.3642e-15
-1.24613e-16
2.16429e-16
1.68497e-16
1.35187e-16
7.05259e-17
4.05791e-17
-3.43939e-17
-7.81223e-17
-8.92318e-17
-1.68634e-16
-2.46925e-16
-2.38762e-16
-1.57166e-16
3.76728e-17
1.52329e-16
9.6281e-17
1.56073e-13
-3.33459e-14
7.94349e-15
-1.77059e-15
3.06436e-16
-9.23299e-17
7.50394e-17
1.49776e-16
2.20251e-16
2.50791e-16
7.46757e-17
1.05346e-17
-7.97117e-17
-1.39675e-16
-9.88892e-17
-1.85165e-17
1.69398e-18
-2.60156e-17
2.90913e-17
5.76595e-17
-6.3047e-14
1.35126e-14
-3.15982e-15
7.07351e-16
-5.12599e-17
1.68567e-16
1.08074e-16
1.16724e-16
1.2469e-16
7.54953e-17
-1.46491e-17
-3.89654e-17
-8.91622e-17
-7.93852e-17
-1.1702e-17
1.12362e-17
6.68175e-17
6.72404e-17
-1.2798e-17
9.46718e-18
-6.77069e-14
1.45002e-14
-3.39038e-15
6.6349e-16
-1.9924e-16
6.33331e-18
2.36214e-17
3.20509e-17
-2.24452e-17
-1.01792e-16
9.36823e-17
1.31666e-16
-2.48389e-18
-3.38525e-17
8.45912e-17
3.96262e-17
-2.93357e-17
-2.4188e-17
6.84407e-17
5.27148e-17
1.3598e-13
-2.91496e-14
6.95271e-15
-1.32949e-15
3.68539e-16
-9.63194e-17
8.99492e-17
1.23452e-16
9.22539e-17
6.56444e-17
1.13619e-16
8.04447e-17
5.85703e-17
5.21995e-17
8.35399e-17
9.582e-17
6.3497e-17
-6.84013e-17
-3.17701e-17
4.6562e-17
-1.3378e-13
2.85616e-14
-6.69153e-15
1.49368e-15
-4.08399e-16
-6.93818e-17
-1.32616e-16
-2.70173e-17
-9.52869e-17
-9.25473e-17
-9.47017e-17
-6.47461e-17
-1.27241e-17
6.82152e-17
-3.07543e-17
1.7903e-17
4.58488e-17
2.24016e-17
-8.03625e-17
1.10992e-17
8.25181e-14
-1.84799e-14
4.23948e-15
-1.07959e-15
1.22675e-16
-1.18781e-16
-4.02974e-17
-7.17702e-19
-2.03092e-17
-3.22992e-17
-2.78431e-17
3.46149e-17
4.88443e-17
8.68123e-17
4.24849e-17
1.48413e-16
9.4243e-17
5.96082e-17
-2.80178e-17
4.00066e-18
-1.68646e-15
8.84617e-16
-1.51584e-16
1.24417e-16
4.97905e-17
1.06493e-17
-9.33647e-17
-1.27587e-16
-4.13659e-17
7.57754e-17
5.89123e-17
1.36506e-17
1.56651e-17
7.0798e-17
1.00418e-16
1.02149e-16
4.20563e-17
-6.00094e-17
-5.01256e-17
2.95373e-18
-8.41641e-14
1.88385e-14
-4.3008e-15
9.23784e-16
-3.06956e-16
-5.05605e-17
-1.89448e-16
-9.74547e-17
2.69516e-17
1.30025e-16
1.72866e-16
2.37019e-17
-4.87776e-17
5.17121e-17
1.65601e-16
-6.03279e-17
-1.85579e-16
-1.26884e-16
-3.25992e-17
-8.32401e-18
1.41158e-13
-3.10672e-14
7.03282e-15
-1.82094e-15
2.74651e-16
-1.82387e-16
-4.33978e-17
-1.5628e-18
2.9133e-17
5.98412e-17
1.83186e-16
1.63463e-16
9.40921e-17
2.6112e-17
2.29567e-17
-1.90847e-17
-1.40016e-17
4.72846e-17
-7.59235e-18
1.58743e-17
-9.75026e-14
2.06561e-14
-5.19056e-15
8.6708e-16
-3.22191e-16
-7.44582e-17
-9.5442e-17
-1.40516e-16
-9.96971e-17
4.6007e-17
1.5249e-16
2.61321e-16
2.25943e-16
-7.18462e-17
-3.02899e-16
-2.55224e-16
-1.53237e-16
-1.04403e-16
-3.4754e-17
1.75524e-17
-2.27496e-14
5.3679e-15
-1.30947e-15
1.14741e-16
-2.00387e-16
8.32454e-17
1.07214e-16
-7.749e-18
4.39132e-17
1.19731e-16
-1.41893e-17
-7.11782e-18
1.21621e-16
9.13658e-17
-7.93421e-17
-2.15606e-16
-1.72457e-16
-1.49107e-16
-6.66019e-17
5.78184e-18
1.18166e-13
-2.57362e-14
6.10976e-15
-1.43827e-15
2.12556e-16
-3.79968e-17
-6.25314e-18
-1.4719e-16
-1.13415e-16
-1.63416e-17
2.87598e-17
7.79814e-18
5.39812e-17
1.36111e-16
9.9475e-17
-6.7344e-17
-7.39816e-17
-6.43729e-18
1.51859e-17
9.62181e-18
-4.91634e-14
1.02171e-14
-2.63679e-15
4.20269e-16
-1.34011e-16
6.37656e-17
-4.86064e-17
-1.37791e-16
-2.19599e-16
-1.60484e-16
2.00645e-17
7.0469e-17
-1.66949e-17
-6.79341e-17
-8.80844e-17
-8.7047e-17
-1.50527e-16
-5.29131e-17
1.87437e-18
-2.28196e-18
-7.83516e-14
1.70497e-14
-4.18415e-15
8.44165e-16
-1.51239e-16
1.52238e-16
9.169e-17
6.81545e-17
-4.51293e-17
-1.09691e-16
-1.023e-16
-5.92115e-17
-7.42085e-17
-6.90831e-17
-7.68698e-17
-3.78341e-17
-7.24816e-17
-3.68585e-17
-2.59794e-17
7.14748e-18
)
;

boundaryField
{
    movingWall
    {
        type            calculated;
        value           uniform -0;
    }
    fixedWalls
    {
        type            calculated;
        value           uniform -0;
    }
    frontAndBack
    {
        type            empty;
    }
}


// ************************************************************************* //
