/*--------------------------------*- C++ -*----------------------------------*\
| =========                 |                                                 |
| \\      /  F ield         | OpenFOAM: The Open Source CFD Toolbox           |
|  \\    /   O peration     | Version:  2506                                  |
|   \\  /    A nd           | Website:  www.openfoam.com                      |
|    \\/     M anipulation  |                                                 |
\*---------------------------------------------------------------------------*/
FoamFile
{
    version     2.0;
    format      ascii;
    arch        "LSB;label=32;scalar=64";
    class       volVectorField;
    location    "7";
    object      vorticityField;
}
// * * * * * * * * * * * * * * * * * * * * * * * * * * * * * * * * * * * * * //

dimensions      [0 0 -1 0 0 0 0];

internalField   nonuniform List<vector> 
400
(
(0 -0 1.07019e-11)
(0 -0 -1.41542e-11)
(0 -0 3.05562e-12)
(0 -0 -7.77326e-13)
(0 -0 1.2551e-13)
(0 -0 -4.50819e-14)
(0 -0 -7.23833e-15)
(0 -0 4.1129e-14)
(0 -0 -1.97716e-15)
(0 -0 5.61934e-14)
(0 -0 7.47454e-15)
(0 -0 5.52768e-14)
(0 -0 -8.57206e-16)
(0 -0 6.41176e-14)
(0 -0 6.19019e-14)
(0 -0 -1.11005e-15)
(0 -0 -9.91492e-15)
(0 -0 4.59248e-14)
(0 -0 5.75926e-14)
(0 -0 -6.77159e-15)
(0 -0 -3.3058e-13)
(0 -0 -1.1459e-13)
(0 -0 1.44473e-13)
(0 -0 6.11263e-14)
(0 -0 5.21064e-14)
(0 -0 6.51409e-14)
(0 -0 5.80753e-14)
(0 -0 7.04723e-14)
(0 -0 8.38299e-14)
(0 -0 1.44182e-13)
(0 -0 1.55615e-13)
(0 -0 9.34114e-14)
(0 -0 1.81909e-13)
(0 -0 -1.11838e-14)
(0 -0 8.67918e-14)
(0 -0 9.8164e-14)
(0 -0 -6.15474e-15)
(0 -0 -2.35361e-14)
(0 -0 -5.95295e-15)
(0 -0 9.85116e-15)
(0 -0 -5.845e-12)
(0 -0 1.1588e-11)
(0 -0 -2.72425e-12)
(0 -0 6.60097e-13)
(0 -0 -1.39417e-13)
(0 -0 1.14589e-14)
(0 -0 -2.82188e-14)
(0 -0 -6.57859e-14)
(0 -0 -5.73503e-14)
(0 -0 -6.27972e-14)
(0 -0 -5.59553e-14)
(0 -0 -9.62757e-14)
(0 -0 -1.44328e-13)
(0 -0 -6.32159e-14)
(0 -0 -8.78478e-14)
(0 -0 -1.72428e-14)
(0 -0 -1.2774e-14)
(0 -0 -8.51141e-14)
(0 -0 -8.88083e-14)
(0 -0 -1.76994e-15)
(0 -0 5.43385e-12)
(0 -0 -9.92121e-12)
(0 -0 2.25812e-12)
(0 -0 -6.13466e-13)
(0 -0 9.10523e-14)
(0 -0 -6.13611e-14)
(0 -0 -4.58706e-14)
(0 -0 -9.82839e-14)
(0 -0 -1.35551e-13)
(0 -0 -1.664e-13)
(0 -0 -1.34415e-13)
(0 -0 -1.20662e-13)
(0 -0 -7.30846e-14)
(0 -0 -1.58592e-14)
(0 -0 -8.41594e-14)
(0 -0 -8.79885e-14)
(0 -0 -2.0905e-14)
(0 -0 1.14649e-14)
(0 -0 9.47475e-15)
(0 -0 -1.94513e-14)
(0 -0 -1.11286e-12)
(0 -0 1.23046e-12)
(0 -0 -2.78333e-13)
(0 -0 5.45193e-14)
(0 -0 1.23849e-15)
(0 -0 -2.61973e-14)
(0 -0 -1.04115e-13)
(0 -0 -6.92038e-14)
(0 -0 -5.15638e-15)
(0 -0 -8.50377e-14)
(0 -0 -7.91173e-14)
(0 -0 1.39209e-14)
(0 -0 3.79685e-14)
(0 -0 -4.07293e-14)
(0 -0 -4.0337e-14)
(0 -0 -2.38924e-14)
(0 -0 7.86817e-14)
(0 -0 5.2083e-14)
(0 -0 5.19448e-15)
(0 -0 1.14406e-14)
(0 -0 -5.75078e-12)
(0 -0 9.51409e-12)
(0 -0 -2.21086e-12)
(0 -0 5.23065e-13)
(0 -0 -1.68987e-13)
(0 -0 2.20588e-15)
(0 -0 -8.12418e-15)
(0 -0 -3.69021e-14)
(0 -0 -6.36709e-14)
(0 -0 -3.7597e-14)
(0 -0 -1.18701e-14)
(0 -0 -5.48379e-15)
(0 -0 -6.32613e-14)
(0 -0 -4.28743e-14)
(0 -0 -7.0128e-15)
(0 -0 6.3186e-14)
(0 -0 8.18536e-14)
(0 -0 8.51595e-14)
(0 -0 3.29659e-14)
(0 -0 2.2441e-15)
(0 -0 9.37248e-12)
(0 -0 -1.39185e-11)
(0 -0 3.18463e-12)
(0 -0 -7.63706e-13)
(0 -0 1.67826e-13)
(0 -0 3.10704e-14)
(0 -0 1.05526e-13)
(0 -0 6.87312e-14)
(0 -0 1.18522e-13)
(0 -0 1.25476e-14)
(0 -0 3.07947e-15)
(0 -0 -1.54387e-14)
(0 -0 -1.5021e-14)
(0 -0 2.51873e-14)
(0 -0 1.21159e-14)
(0 -0 1.00583e-14)
(0 -0 -8.20651e-14)
(0 -0 2.73973e-15)
(0 -0 8.36751e-15)
(0 -0 -3.57801e-14)
(0 -0 -3.92345e-12)
(0 -0 5.69057e-12)
(0 -0 -1.22631e-12)
(0 -0 3.65066e-13)
(0 -0 3.31699e-16)
(0 -0 7.01435e-14)
(0 -0 -5.18429e-15)
(0 -0 8.29768e-14)
(0 -0 5.00872e-14)
(0 -0 -1.3934e-14)
(0 -0 -1.14461e-14)
(0 -0 -7.45131e-15)
(0 -0 2.30631e-14)
(0 -0 6.19561e-14)
(0 -0 3.61672e-14)
(0 -0 6.20621e-14)
(0 -0 8.69156e-14)
(0 -0 -7.96155e-15)
(0 -0 -5.77733e-15)
(0 -0 2.74381e-14)
(0 -0 -4.50752e-12)
(0 -0 6.10639e-12)
(0 -0 -1.49209e-12)
(0 -0 3.73324e-13)
(0 -0 -1.15055e-14)
(0 -0 2.22861e-14)
(0 -0 -2.45333e-14)
(0 -0 -5.88168e-14)
(0 -0 -6.75944e-14)
(0 -0 1.16128e-14)
(0 -0 7.75559e-14)
(0 -0 1.74884e-14)
(0 -0 -1.65519e-14)
(0 -0 6.29176e-14)
(0 -0 3.44529e-14)
(0 -0 -1.13927e-14)
(0 -0 -6.38142e-15)
(0 -0 -4.44325e-14)
(0 -0 7.69029e-15)
(0 -0 -3.92206e-14)
(0 -0 1.0683e-11)
(0 -0 -1.25503e-11)
(0 -0 3.02596e-12)
(0 -0 -6.31312e-13)
(0 -0 1.50423e-13)
(0 -0 -7.53909e-16)
(0 -0 1.03292e-13)
(0 -0 8.15456e-14)
(0 -0 -5.78079e-15)
(0 -0 5.63466e-14)
(0 -0 5.56901e-14)
(0 -0 -5.50482e-15)
(0 -0 2.42805e-14)
(0 -0 -5.17132e-14)
(0 -0 -2.2743e-14)
(0 -0 -5.62144e-14)
(0 -0 -7.06322e-14)
(0 -0 -3.66318e-14)
(0 -0 1.14963e-14)
(0 -0 -2.85842e-14)
(0 -0 -1.18229e-11)
(0 -0 1.26818e-11)
(0 -0 -2.97784e-12)
(0 -0 5.46998e-13)
(0 -0 -2.91832e-13)
(0 -0 -8.0842e-14)
(0 -0 -1.04184e-13)
(0 -0 -7.75822e-14)
(0 -0 -6.07631e-14)
(0 -0 -5.41516e-14)
(0 -0 -7.8535e-14)
(0 -0 8.19776e-15)
(0 -0 -4.0914e-14)
(0 -0 -5.60131e-14)
(0 -0 -3.21363e-14)
(0 -0 7.66031e-15)
(0 -0 4.49865e-16)
(0 -0 1.44839e-14)
(0 -0 -1.13024e-15)
(0 -0 6.11364e-14)
(0 -0 5.97013e-12)
(0 -0 -7.69233e-12)
(0 -0 1.71293e-12)
(0 -0 -4.38786e-13)
(0 -0 9.60813e-14)
(0 -0 1.08079e-14)
(0 -0 3.89114e-14)
(0 -0 1.99882e-15)
(0 -0 2.39469e-14)
(0 -0 -7.53392e-16)
(0 -0 3.37965e-14)
(0 -0 3.47738e-14)
(0 -0 5.94299e-14)
(0 -0 5.35742e-14)
(0 -0 1.1458e-13)
(0 -0 5.93859e-14)
(0 -0 4.53297e-14)
(0 -0 4.1984e-14)
(0 -0 -5.56076e-15)
(0 -0 2.40172e-15)
(0 -0 1.16665e-12)
(0 -0 1.79625e-14)
(0 -0 1.13715e-13)
(0 -0 1.01453e-13)
(0 -0 4.28333e-14)
(0 -0 3.98946e-14)
(0 -0 1.32814e-14)
(0 -0 5.19988e-15)
(0 -0 1.01651e-13)
(0 -0 6.42379e-14)
(0 -0 4.79976e-14)
(0 -0 4.98854e-14)
(0 -0 5.99248e-14)
(0 -0 6.26854e-14)
(0 -0 3.13511e-15)
(0 -0 -5.83614e-15)
(0 -0 -7.0426e-14)
(0 -0 -6.34283e-14)
(0 -0 6.29632e-15)
(0 -0 4.71719e-15)
(0 -0 -5.28573e-12)
(0 -0 7.57976e-12)
(0 -0 -1.79147e-12)
(0 -0 3.99385e-13)
(0 -0 -9.74345e-14)
(0 -0 -4.24593e-14)
(0 -0 -4.68943e-15)
(0 -0 2.164e-14)
(0 -0 2.27479e-14)
(0 -0 1.45914e-14)
(0 -0 -6.48424e-14)
(0 -0 -7.63744e-14)
(0 -0 2.80102e-15)
(0 -0 2.14379e-14)
(0 -0 -6.54141e-14)
(0 -0 -1.43538e-13)
(0 -0 -6.08657e-14)
(0 -0 1.5298e-14)
(0 -0 1.1856e-14)
(0 -0 -2.30127e-14)
(0 -0 8.40697e-12)
(0 -0 -1.26264e-11)
(0 -0 2.92463e-12)
(0 -0 -6.48712e-13)
(0 -0 2.18065e-13)
(0 -0 2.24052e-14)
(0 -0 7.22925e-14)
(0 -0 8.85682e-14)
(0 -0 6.1404e-15)
(0 -0 9.67204e-14)
(0 -0 9.16773e-14)
(0 -0 -8.90938e-15)
(0 -0 1.337e-14)
(0 -0 1.99915e-14)
(0 -0 7.67955e-14)
(0 -0 1.04724e-13)
(0 -0 6.0847e-14)
(0 -0 6.40921e-16)
(0 -0 -3.14103e-15)
(0 -0 -8.28196e-16)
(0 -0 -6.79018e-12)
(0 -0 8.74331e-12)
(0 -0 -2.14154e-12)
(0 -0 4.86837e-13)
(0 -0 -1.75469e-13)
(0 -0 -3.15352e-14)
(0 -0 -8.79209e-14)
(0 -0 -8.17407e-14)
(0 -0 -6.26629e-14)
(0 -0 -1.88632e-15)
(0 -0 -5.5737e-15)
(0 -0 7.34524e-15)
(0 -0 -1.41737e-13)
(0 -0 -1.61304e-13)
(0 -0 -9.96529e-14)
(0 -0 -6.6349e-14)
(0 -0 -1.2023e-14)
(0 -0 1.18483e-14)
(0 -0 1.21956e-14)
(0 -0 1.72016e-15)
(0 -0 1.51444e-12)
(0 -0 1.41218e-12)
(0 -0 -3.62685e-13)
(0 -0 2.4881e-15)
(0 -0 2.39555e-14)
(0 -0 3.07602e-14)
(0 -0 1.80056e-14)
(0 -0 -6.33012e-15)
(0 -0 3.98531e-14)
(0 -0 -1.1423e-13)
(0 -0 -9.40001e-14)
(0 -0 -1.35241e-14)
(0 -0 -1.72567e-14)
(0 -0 -7.43064e-14)
(0 -0 -8.49072e-14)
(0 -0 -3.64166e-14)
(0 -0 6.64988e-15)
(0 -0 -1.65195e-14)
(0 -0 1.54889e-14)
(0 -0 6.082e-15)
(0 -0 3.52378e-12)
(0 -0 -9.6606e-12)
(0 -0 2.32137e-12)
(0 -0 -5.08405e-13)
(0 -0 2.21342e-13)
(0 -0 5.94343e-14)
(0 -0 4.32908e-14)
(0 -0 4.34939e-14)
(0 -0 9.44e-14)
(0 -0 1.22638e-13)
(0 -0 2.9519e-14)
(0 -0 8.38373e-14)
(0 -0 1.21252e-13)
(0 -0 8.58645e-14)
(0 -0 3.38646e-14)
(0 -0 9.7594e-15)
(0 -0 3.31957e-14)
(0 -0 3.60218e-14)
(0 -0 1.60591e-15)
(0 -0 2.46243e-14)
(0 -0 -3.13569e-12)
(0 -0 4.24609e-12)
(0 -0 -1.14232e-12)
(0 -0 1.68963e-13)
(0 -0 -1.44071e-13)
(0 -0 -1.26985e-13)
(0 -0 -1.01471e-13)
(0 -0 -1.52624e-13)
(0 -0 -1.37795e-13)
(0 -0 -3.02438e-14)
(0 -0 2.30953e-14)
(0 -0 -5.78861e-14)
(0 -0 -6.80504e-14)
(0 -0 -6.13491e-14)
(0 -0 -2.90164e-14)
(0 -0 -6.24422e-15)
(0 -0 -2.36917e-14)
(0 -0 6.94502e-14)
(0 -0 5.06311e-15)
(0 -0 4.07597e-17)
(0 -0 -4.23284e-12)
(0 -0 7.06438e-12)
(0 -0 -1.43082e-12)
(0 -0 4.30396e-13)
(0 -0 -4.20877e-14)
(0 -0 7.8503e-14)
(0 -0 1.86967e-14)
(0 -0 6.76332e-14)
(0 -0 3.64256e-14)
(0 -0 -5.71711e-15)
(0 -0 5.04792e-15)
(0 -0 2.80918e-15)
(0 -0 -9.87156e-16)
(0 -0 5.3944e-14)
(0 -0 3.02299e-14)
(0 -0 2.75439e-14)
(0 -0 2.72026e-14)
(0 -0 -4.95599e-14)
(0 -0 4.4006e-15)
(0 -0 1.88319e-15)
)
;

boundaryField
{
    movingWall
    {
        type            calculated;
        value           nonuniform List<vector> 
20
(
(0 -0 -1.22586e-11)
(0 -0 9.32633e-12)
(0 -0 -1.39851e-12)
(0 -0 7.58563e-13)
(0 -0 1.97261e-13)
(0 -0 2.90746e-13)
(0 -0 1.69227e-13)
(0 -0 2.97181e-13)
(0 -0 2.0426e-13)
(0 -0 1.71919e-13)
(0 -0 1.82684e-13)
(0 -0 1.80445e-13)
(0 -0 1.76649e-13)
(0 -0 1.32961e-13)
(0 -0 9.19427e-14)
(0 -0 4.48477e-14)
(0 -0 4.45065e-14)
(0 -0 -8.41676e-14)
(0 -0 4.4006e-15)
(0 -0 1.88319e-15)
)
;
    }
    fixedWalls
    {
        type            calculated;
        value           nonuniform List<vector> 
60
(
(0 -0 5.96504e-11)
(0 -0 1.0125e-12)
(0 -0 -4.94259e-11)
(0 -0 4.21548e-11)
(0 -0 -5.39133e-12)
(0 -0 -4.03069e-11)
(0 -0 5.9529e-11)
(0 -0 -2.41888e-11)
(0 -0 -2.62696e-11)
(0 -0 5.43918e-11)
(0 -0 -5.48132e-11)
(0 -0 3.25735e-11)
(0 -0 5.72248e-13)
(0 -0 -3.24188e-11)
(0 -0 5.3861e-11)
(0 -0 -3.81066e-11)
(0 -0 -5.84723e-12)
(0 -0 4.15471e-11)
(0 -0 -1.89064e-11)
(0 -0 -2.94433e-11)
(0 -0 -2.3165e-14)
(0 -0 9.67161e-15)
(0 -0 2.21527e-14)
(0 -0 -2.25467e-14)
(0 -0 -3.10341e-16)
(0 -0 -1.14073e-14)
(0 -0 -5.01688e-14)
(0 -0 2.33182e-14)
(0 -0 -4.8191e-14)
(0 -0 -4.57299e-14)
(0 -0 4.97704e-14)
(0 -0 -1.60026e-15)
(0 -0 -1.18149e-15)
(0 -0 -2.37755e-14)
(0 -0 -6.34972e-15)
(0 -0 -7.02096e-15)
(0 -0 -2.31274e-15)
(0 -0 2.32563e-14)
(0 -0 9.12785e-16)
(0 -0 -2.85899e-15)
(0 -0 1.68608e-11)
(0 -0 -1.62732e-11)
(0 -0 2.71015e-12)
(0 -0 -1.07839e-12)
(0 -0 -6.94296e-14)
(0 -0 -1.78309e-13)
(0 -0 -1.84874e-13)
(0 -0 -1.46308e-13)
(0 -0 -1.79613e-13)
(0 -0 -1.75652e-13)
(0 -0 -2.58979e-13)
(0 -0 -1.3216e-13)
(0 -0 -1.78493e-13)
(0 -0 -1.23319e-13)
(0 -0 -1.25535e-13)
(0 -0 -1.34337e-13)
(0 -0 -9.91492e-15)
(0 -0 -8.28531e-15)
(0 -0 3.3825e-15)
(0 -0 -5.11805e-14)
)
;
    }
    frontAndBack
    {
        type            empty;
    }
}


// ************************************************************************* //
