/*--------------------------------*- C++ -*----------------------------------*\
| =========                 |                                                 |
| \\      /  F ield         | OpenFOAM: The Open Source CFD Toolbox           |
|  \\    /   O peration     | Version:  2506                                  |
|   \\  /    A nd           | Website:  www.openfoam.com                      |
|    \\/     M anipulation  |                                                 |
\*---------------------------------------------------------------------------*/
FoamFile
{
    version     2.0;
    format      ascii;
    arch        "LSB;label=32;scalar=64";
    class       volVectorField;
    location    "7";
    object      wallShearStress;
}
// * * * * * * * * * * * * * * * * * * * * * * * * * * * * * * * * * * * * * //

dimensions      [0 2 -2 0 0 0 0];

internalField   uniform (0 0 0);

boundaryField
{
    movingWall
    {
        type            calculated;
        value           uniform (0 0 0);
    }
    fixedWalls
    {
        type            calculated;
        value           nonuniform List<vector> 
60
(
(1.69491e-16 -6.21983e-16 0)
(-3.24412e-16 -2.36775e-17 0)
(1.01736e-16 5.88585e-16 0)
(1.98536e-16 -4.92021e-16 0)
(-3.05149e-16 5.33712e-17 0)
(2.29044e-16 4.55111e-16 0)
(9.94369e-18 -6.53295e-16 0)
(-1.87082e-16 2.62488e-16 0)
(1.67027e-16 2.78959e-16 0)
(-3.81279e-17 -5.43918e-16 0)
(-1.29812e-18 5.22111e-16 0)
(2.52981e-17 -3.34409e-16 0)
(-1.00463e-16 1.92142e-17 0)
(9.99664e-17 3.49125e-16 0)
(6.57147e-17 -5.90652e-16 0)
(-2.41906e-16 3.98955e-16 0)
(2.65755e-16 1.23524e-16 0)
(2.38391e-17 -5.29854e-16 0)
(-3.15161e-16 2.04243e-16 0)
(1.66722e-16 3.3238e-16 0)
(-6.14608e-19 -2.3165e-19 0)
(1.30494e-18 9.67161e-20 0)
(-6.00641e-19 7.63628e-19 0)
(-1.31203e-18 3.16634e-19 0)
(-1.25602e-18 -5.45204e-19 0)
(7.25268e-21 -6.56175e-19 0)
(-5.34243e-19 4.04127e-20 0)
(3.29642e-21 -3.08919e-19 0)
(-2.47299e-20 6.01912e-20 0)
(-1.15649e-18 8.48025e-20 0)
(-5.63745e-19 -5.86498e-19 0)
(5.4303e-21 -1.60026e-20 0)
(8.21644e-21 -1.18149e-20 0)
(-8.61372e-21 3.04347e-19 0)
(-1.20149e-18 -6.34972e-20 0)
(6.72831e-21 -7.02096e-20 0)
(-5.86832e-19 -2.31274e-20 0)
(5.37587e-21 -3.09538e-19 0)
(1.64955e-21 9.12785e-21 0)
(3.24368e-21 -2.85899e-20 0)
(-7.09089e-17 -8.17384e-16 0)
(1.26316e-16 1.82285e-16 0)
(-3.50952e-17 -4.38796e-17 0)
(3.67845e-18 7.57317e-18 0)
(-3.7466e-18 -3.50643e-18 0)
(-8.81449e-19 -3.85599e-19 0)
(-1.70397e-18 -7.40667e-19 0)
(-1.20146e-18 4.45853e-22 0)
(-1.75659e-18 3.18392e-19 0)
(-1.79619e-18 2.86595e-19 0)
(-2.73928e-18 3.19177e-20 0)
(-1.34293e-18 -4.73448e-19 0)
(-1.76778e-18 -2.05672e-19 0)
(-1.43134e-18 -2.4703e-19 0)
(-1.40919e-18 -5.53371e-19 0)
(-1.32117e-18 -6.57262e-19 0)
(9.91492e-20 -8.55569e-19 0)
(8.28531e-20 -1.28466e-19 0)
(-3.3825e-20 1.28415e-19 0)
(-3.76373e-19 -4.89566e-19 0)
)
;
    }
    frontAndBack
    {
        type            empty;
    }
}


// ************************************************************************* //
