/*--------------------------------*- C++ -*----------------------------------*\
| =========                 |                                                 |
| \\      /  F ield         | OpenFOAM: The Open Source CFD Toolbox           |
|  \\    /   O peration     | Version:  2506                                  |
|   \\  /    A nd           | Website:  www.openfoam.com                      |
|    \\/     M anipulation  |                                                 |
\*---------------------------------------------------------------------------*/
FoamFile
{
    version     2.0;
    format      ascii;
    arch        "LSB;label=32;scalar=64";
    class       volScalarField;
    location    "7";
    object      yPlus;
}
// * * * * * * * * * * * * * * * * * * * * * * * * * * * * * * * * * * * * * //

dimensions      [0 0 0 0 0 0 0];

internalField   uniform 0;

boundaryField
{
    movingWall
    {
        type            calculated;
        value           nonuniform List<scalar> 
20
(
4.46754e-06
2.10389e-06
1.02723e-06
5.53477e-07
4.13245e-07
4.13312e-07
3.36696e-07
4.41627e-07
3.73143e-07
3.3817e-07
3.37535e-07
3.34671e-07
3.35502e-07
2.91614e-07
2.42371e-07
1.71239e-07
1.82063e-07
2.37215e-07
8.05906e-08
4.22714e-08
)
;
    }
    fixedWalls
    {
        type            calculated;
        value           nonuniform List<scalar> 
60
(
6.18061e-06
2.51124e-06
5.81937e-06
5.39196e-06
2.84755e-06
5.23109e-06
6.24732e-06
3.98265e-06
4.12348e-06
5.83061e-06
5.78652e-06
4.56489e-06
8.08534e-07
4.58718e-06
5.95502e-06
5.01558e-06
2.83983e-06
5.44107e-06
3.87546e-06
4.46754e-06
1.76931e-07
2.36303e-07
2.03594e-07
2.35763e-07
2.4103e-07
1.55146e-07
1.76849e-07
4.86497e-08
1.14799e-07
2.38156e-07
1.67015e-07
3.16254e-08
2.71741e-08
4.5618e-08
2.35909e-07
6.62427e-08
1.66713e-07
4.90454e-08
2.38849e-08
4.22714e-08
6.18061e-06
2.86657e-06
1.40097e-06
6.52626e-07
4.43154e-07
2.91901e-07
3.37762e-07
2.8856e-07
3.33481e-07
3.33366e-07
4.08093e-07
2.90499e-07
3.33209e-07
2.89945e-07
2.95319e-07
2.97966e-07
1.52198e-07
7.76005e-08
4.95063e-08
1.76931e-07
)
;
    }
    frontAndBack
    {
        type            empty;
    }
}


// ************************************************************************* //
