/*--------------------------------*- C++ -*----------------------------------*\
| =========                 |                                                 |
| \\      /  F ield         | OpenFOAM: The Open Source CFD Toolbox           |
|  \\    /   O peration     | Version:  2506                                  |
|   \\  /    A nd           | Website:  www.openfoam.com                      |
|    \\/     M anipulation  |                                                 |
\*---------------------------------------------------------------------------*/
FoamFile
{
    version     2.0;
    format      ascii;
    arch        "LSB;label=32;scalar=64";
    class       volScalarField;
    location    "7";
    object      zeroGradient(epsilon);
}
// * * * * * * * * * * * * * * * * * * * * * * * * * * * * * * * * * * * * * //

dimensions      [0 2 -3 0 0 0 0];

internalField   nonuniform List<scalar> 
400
(
2.23655e-06
2.23655e-06
2.23655e-06
2.23654e-06
2.23654e-06
2.23654e-06
2.23654e-06
2.23654e-06
2.23654e-06
2.23654e-06
2.23654e-06
2.23654e-06
2.23654e-06
2.23653e-06
2.23653e-06
2.23653e-06
2.23653e-06
2.23653e-06
2.23653e-06
2.23653e-06
2.34316e-06
2.30913e-06
2.31198e-06
2.31316e-06
2.31553e-06
2.31674e-06
2.31912e-06
2.32036e-06
2.32275e-06
2.32403e-06
2.32642e-06
2.32774e-06
2.33012e-06
2.33149e-06
2.33388e-06
2.33528e-06
2.33767e-06
2.33912e-06
2.34032e-06
2.34225e-06
2.50564e-06
2.46783e-06
2.47104e-06
2.47237e-06
2.47504e-06
2.47639e-06
2.47906e-06
2.48044e-06
2.48311e-06
2.48452e-06
2.48719e-06
2.48863e-06
2.49129e-06
2.49278e-06
2.49543e-06
2.49695e-06
2.4996e-06
2.50116e-06
2.50249e-06
2.5046e-06
2.66754e-06
2.62642e-06
2.62991e-06
2.63135e-06
2.63425e-06
2.63572e-06
2.63862e-06
2.64012e-06
2.64302e-06
2.64455e-06
2.64745e-06
2.64902e-06
2.65192e-06
2.65353e-06
2.65641e-06
2.65807e-06
2.66095e-06
2.66264e-06
2.66408e-06
2.66638e-06
2.79577e-06
2.75195e-06
2.75566e-06
2.75721e-06
2.76029e-06
2.76185e-06
2.76494e-06
2.76654e-06
2.76963e-06
2.77126e-06
2.77435e-06
2.77603e-06
2.77911e-06
2.78083e-06
2.7839e-06
2.78567e-06
2.78873e-06
2.79054e-06
2.79208e-06
2.79452e-06
2.88389e-06
2.83817e-06
2.84204e-06
2.84365e-06
2.84686e-06
2.84849e-06
2.85172e-06
2.85338e-06
2.8566e-06
2.85831e-06
2.86153e-06
2.86328e-06
2.86649e-06
2.86829e-06
2.87149e-06
2.87333e-06
2.87653e-06
2.87842e-06
2.88002e-06
2.88257e-06
2.93966e-06
2.89273e-06
2.8967e-06
2.89835e-06
2.90165e-06
2.90332e-06
2.90663e-06
2.90834e-06
2.91165e-06
2.91339e-06
2.9167e-06
2.91849e-06
2.92179e-06
2.92363e-06
2.92692e-06
2.92882e-06
2.9321e-06
2.93404e-06
2.93568e-06
2.9383e-06
2.97406e-06
2.92638e-06
2.93041e-06
2.93209e-06
2.93544e-06
2.93714e-06
2.9405e-06
2.94223e-06
2.94559e-06
2.94737e-06
2.95073e-06
2.95255e-06
2.9559e-06
2.95777e-06
2.96111e-06
2.96304e-06
2.96637e-06
2.96834e-06
2.97001e-06
2.97267e-06
2.9961e-06
2.94793e-06
2.95201e-06
2.9537e-06
2.95709e-06
2.9588e-06
2.96219e-06
2.96395e-06
2.96734e-06
2.96914e-06
2.97253e-06
2.97437e-06
2.97775e-06
2.97964e-06
2.98302e-06
2.98496e-06
2.98833e-06
2.99032e-06
2.992e-06
2.99469e-06
3.01176e-06
2.96325e-06
2.96735e-06
2.96906e-06
2.97247e-06
2.97419e-06
2.97761e-06
2.97937e-06
2.98279e-06
2.9846e-06
2.98801e-06
2.98987e-06
2.99328e-06
2.99518e-06
2.99858e-06
3.00053e-06
3.00392e-06
3.00593e-06
3.00763e-06
3.01033e-06
3.02459e-06
2.9758e-06
2.97993e-06
2.98164e-06
2.98507e-06
2.98681e-06
2.99024e-06
2.99202e-06
2.99546e-06
2.99727e-06
3.00071e-06
3.00257e-06
3.006e-06
3.00792e-06
3.01133e-06
3.0133e-06
3.01671e-06
3.01873e-06
3.02043e-06
3.02315e-06
3.03662e-06
2.98757e-06
2.99172e-06
2.99344e-06
2.99689e-06
2.99864e-06
3.00209e-06
3.00387e-06
3.00733e-06
3.00916e-06
3.01261e-06
3.01448e-06
3.01793e-06
3.01985e-06
3.02329e-06
3.02527e-06
3.02869e-06
3.03072e-06
3.03244e-06
3.03517e-06
3.049e-06
2.99968e-06
3.00386e-06
3.00559e-06
3.00905e-06
3.01081e-06
3.01428e-06
3.01607e-06
3.01955e-06
3.02138e-06
3.02486e-06
3.02674e-06
3.0302e-06
3.03214e-06
3.03559e-06
3.03758e-06
3.04103e-06
3.04307e-06
3.04479e-06
3.04754e-06
3.06242e-06
3.01282e-06
3.01701e-06
3.01875e-06
3.02224e-06
3.024e-06
3.02749e-06
3.0293e-06
3.03279e-06
3.03464e-06
3.03813e-06
3.04003e-06
3.04351e-06
3.04546e-06
3.04893e-06
3.05094e-06
3.0544e-06
3.05645e-06
3.05819e-06
3.06095e-06
3.07725e-06
3.02733e-06
3.03155e-06
3.0333e-06
3.03681e-06
3.03859e-06
3.0421e-06
3.04392e-06
3.04744e-06
3.0493e-06
3.05281e-06
3.05472e-06
3.05822e-06
3.06018e-06
3.06368e-06
3.06569e-06
3.06918e-06
3.07125e-06
3.07299e-06
3.07578e-06
3.09349e-06
3.04322e-06
3.04747e-06
3.04924e-06
3.05277e-06
3.05456e-06
3.05809e-06
3.05992e-06
3.06346e-06
3.06534e-06
3.06888e-06
3.0708e-06
3.07433e-06
3.0763e-06
3.07982e-06
3.08185e-06
3.08536e-06
3.08744e-06
3.0892e-06
3.092e-06
3.11051e-06
3.05986e-06
3.06414e-06
3.06592e-06
3.06948e-06
3.07128e-06
3.07484e-06
3.07669e-06
3.08025e-06
3.08214e-06
3.0857e-06
3.08764e-06
3.09119e-06
3.09318e-06
3.09673e-06
3.09877e-06
3.10231e-06
3.10441e-06
3.10618e-06
3.109e-06
3.12677e-06
3.07578e-06
3.08009e-06
3.08188e-06
3.08546e-06
3.08727e-06
3.09086e-06
3.09271e-06
3.0963e-06
3.0982e-06
3.10179e-06
3.10374e-06
3.10732e-06
3.10932e-06
3.11289e-06
3.11495e-06
3.11851e-06
3.12062e-06
3.1224e-06
3.12525e-06
3.13986e-06
3.0896e-06
3.09377e-06
3.0955e-06
3.09898e-06
3.10076e-06
3.10426e-06
3.10608e-06
3.10959e-06
3.11148e-06
3.11499e-06
3.11694e-06
3.12046e-06
3.12248e-06
3.12599e-06
3.12808e-06
3.1316e-06
3.13376e-06
3.13552e-06
3.13837e-06
3.14582e-06
3.14582e-06
3.14582e-06
3.14581e-06
3.14581e-06
3.1458e-06
3.14581e-06
3.1458e-06
3.14581e-06
3.1458e-06
3.1458e-06
3.1458e-06
3.1458e-06
3.1458e-06
3.1458e-06
3.1458e-06
3.1458e-06
3.1458e-06
3.1458e-06
3.1458e-06
)
;

boundaryField
{
    movingWall
    {
        type            zeroGradient;
    }
    fixedWalls
    {
        type            zeroGradient;
    }
    frontAndBack
    {
        type            empty;
    }
}


// ************************************************************************* //
