/*--------------------------------*- C++ -*----------------------------------*\
| =========                 |                                                 |
| \\      /  F ield         | OpenFOAM: The Open Source CFD Toolbox           |
|  \\    /   O peration     | Version:  2506                                  |
|   \\  /    A nd           | Website:  www.openfoam.com                      |
|    \\/     M anipulation  |                                                 |
\*---------------------------------------------------------------------------*/
FoamFile
{
    version     2.0;
    format      ascii;
    arch        "LSB;label=32;scalar=64";
    class       volVectorField;
    location    "3.75";
    object      diffU;
}
// * * * * * * * * * * * * * * * * * * * * * * * * * * * * * * * * * * * * * //

dimensions      [0 1 -1 0 0 0 0];

internalField   nonuniform List<vector> 
400
(
(0 0 0)
(-1.27304e-09 -1.62271e-07 0)
(-1.04754e-09 -1.2405e-07 0)
(-1.11884e-09 -1.33099e-07 0)
(-1.1114e-09 -1.3097e-07 0)
(-1.11444e-09 -1.31472e-07 0)
(-1.11431e-09 -1.31354e-07 0)
(-1.11445e-09 -1.31382e-07 0)
(-1.11453e-09 -1.31375e-07 0)
(-1.11458e-09 -1.31377e-07 0)
(-1.11461e-09 -1.31377e-07 0)
(-1.11464e-09 -1.31377e-07 0)
(-1.11466e-09 -1.31377e-07 0)
(-1.11468e-09 -1.31377e-07 0)
(-1.11469e-09 -1.31377e-07 0)
(-1.1147e-09 -1.31377e-07 0)
(-1.1147e-09 -1.31377e-07 0)
(-1.11471e-09 -1.31377e-07 0)
(-1.11472e-09 -1.31377e-07 0)
(-1.11472e-09 -1.31377e-07 0)
(-5.36434e-09 -2.62777e-07 0)
(-1.78624e-10 -1.00501e-07 0)
(-1.50666e-09 -1.38683e-07 0)
(-1.02419e-09 -1.2966e-07 0)
(-1.14551e-09 -1.31779e-07 0)
(-1.10529e-09 -1.31281e-07 0)
(-1.11694e-09 -1.31399e-07 0)
(-1.1137e-09 -1.31371e-07 0)
(-1.11477e-09 -1.31378e-07 0)
(-1.11452e-09 -1.31376e-07 0)
(-1.11464e-09 -1.31377e-07 0)
(-1.11464e-09 -1.31377e-07 0)
(-1.11466e-09 -1.31377e-07 0)
(-1.11468e-09 -1.31377e-07 0)
(-1.11469e-09 -1.31377e-07 0)
(-1.1147e-09 -1.31377e-07 0)
(-1.11471e-09 -1.31377e-07 0)
(-1.11472e-09 -1.31377e-07 0)
(-1.11472e-09 -1.31377e-07 0)
(-1.11472e-09 -1.31377e-07 0)
(5.86265e-09 9.30163e-11 0)
(-2.64449e-09 -1.62248e-07 0)
(-4.73486e-10 -1.2406e-07 0)
(-1.25941e-09 -1.33092e-07 0)
(-1.06381e-09 -1.30972e-07 0)
(-1.12892e-09 -1.31471e-07 0)
(-1.11057e-09 -1.31354e-07 0)
(-1.11581e-09 -1.31382e-07 0)
(-1.11425e-09 -1.31375e-07 0)
(-1.11472e-09 -1.31377e-07 0)
(-1.11461e-09 -1.31377e-07 0)
(-1.11466e-09 -1.31377e-07 0)
(-1.11467e-09 -1.31377e-07 0)
(-1.11468e-09 -1.31377e-07 0)
(-1.11469e-09 -1.31377e-07 0)
(-1.1147e-09 -1.31377e-07 0)
(-1.11471e-09 -1.31377e-07 0)
(-1.11472e-09 -1.31377e-07 0)
(-1.11472e-09 -1.31377e-07 0)
(-1.11472e-09 -1.31377e-07 0)
(-1.08313e-08 -2.63069e-07 0)
(9.80595e-10 -1.00458e-07 0)
(-2.00424e-09 -1.38701e-07 0)
(-9.19896e-10 -1.29658e-07 0)
(-1.18462e-09 -1.31781e-07 0)
(-1.09538e-09 -1.31281e-07 0)
(-1.12004e-09 -1.31399e-07 0)
(-1.11296e-09 -1.31371e-07 0)
(-1.11509e-09 -1.31378e-07 0)
(-1.11451e-09 -1.31376e-07 0)
(-1.11469e-09 -1.31377e-07 0)
(-1.11465e-09 -1.31377e-07 0)
(-1.11468e-09 -1.31377e-07 0)
(-1.11469e-09 -1.31377e-07 0)
(-1.1147e-09 -1.31377e-07 0)
(-1.1147e-09 -1.31377e-07 0)
(-1.11471e-09 -1.31377e-07 0)
(-1.11472e-09 -1.31377e-07 0)
(-1.11472e-09 -1.31377e-07 0)
(-1.11472e-09 -1.31377e-07 0)
(1.10634e-08 7.39088e-10 0)
(-3.70848e-09 -1.62419e-07 0)
(-5.23781e-12 -1.24022e-07 0)
(-1.35464e-09 -1.33104e-07 0)
(-1.0285e-09 -1.30969e-07 0)
(-1.13847e-09 -1.31472e-07 0)
(-1.10811e-09 -1.31354e-07 0)
(-1.11671e-09 -1.31382e-07 0)
(-1.1141e-09 -1.31375e-07 0)
(-1.11483e-09 -1.31377e-07 0)
(-1.11462e-09 -1.31376e-07 0)
(-1.11469e-09 -1.31377e-07 0)
(-1.11468e-09 -1.31377e-07 0)
(-1.11469e-09 -1.31377e-07 0)
(-1.1147e-09 -1.31377e-07 0)
(-1.1147e-09 -1.31377e-07 0)
(-1.11471e-09 -1.31377e-07 0)
(-1.11472e-09 -1.31377e-07 0)
(-1.11472e-09 -1.31377e-07 0)
(-1.11472e-09 -1.31377e-07 0)
(-1.53205e-08 -2.64161e-07 0)
(1.86522e-09 -1.0014e-07 0)
(-2.4027e-09 -1.38779e-07 0)
(-8.42064e-10 -1.29635e-07 0)
(-1.21353e-09 -1.31788e-07 0)
(-1.0878e-09 -1.31279e-07 0)
(-1.12212e-09 -1.31399e-07 0)
(-1.11238e-09 -1.31371e-07 0)
(-1.1153e-09 -1.31378e-07 0)
(-1.11449e-09 -1.31376e-07 0)
(-1.11473e-09 -1.31377e-07 0)
(-1.11467e-09 -1.31377e-07 0)
(-1.1147e-09 -1.31377e-07 0)
(-1.1147e-09 -1.31377e-07 0)
(-1.1147e-09 -1.31377e-07 0)
(-1.11471e-09 -1.31377e-07 0)
(-1.11471e-09 -1.31377e-07 0)
(-1.11472e-09 -1.31377e-07 0)
(-1.11472e-09 -1.31377e-07 0)
(-1.11472e-09 -1.31377e-07 0)
(1.47376e-08 2.33524e-09 0)
(-4.40454e-09 -1.62885e-07 0)
(3.18182e-10 -1.23908e-07 0)
(-1.41433e-09 -1.33137e-07 0)
(-1.00565e-09 -1.3096e-07 0)
(-1.14429e-09 -1.31475e-07 0)
(-1.10657e-09 -1.31353e-07 0)
(-1.11722e-09 -1.31382e-07 0)
(-1.11401e-09 -1.31375e-07 0)
(-1.11488e-09 -1.31377e-07 0)
(-1.11463e-09 -1.31376e-07 0)
(-1.11471e-09 -1.31377e-07 0)
(-1.11469e-09 -1.31377e-07 0)
(-1.1147e-09 -1.31377e-07 0)
(-1.11471e-09 -1.31377e-07 0)
(-1.11471e-09 -1.31377e-07 0)
(-1.11471e-09 -1.31377e-07 0)
(-1.11472e-09 -1.31377e-07 0)
(-1.11472e-09 -1.31377e-07 0)
(-1.11472e-09 -1.31377e-07 0)
(-1.80252e-08 -2.6627e-07 0)
(2.35239e-09 -9.9533e-08 0)
(-2.63695e-09 -1.38927e-07 0)
(-8.02227e-10 -1.29594e-07 0)
(-1.22924e-09 -1.31798e-07 0)
(-1.08389e-09 -1.31277e-07 0)
(-1.1231e-09 -1.314e-07 0)
(-1.11206e-09 -1.31371e-07 0)
(-1.11539e-09 -1.31378e-07 0)
(-1.11449e-09 -1.31376e-07 0)
(-1.11475e-09 -1.31377e-07 0)
(-1.11468e-09 -1.31377e-07 0)
(-1.11471e-09 -1.31377e-07 0)
(-1.11471e-09 -1.31377e-07 0)
(-1.11471e-09 -1.31377e-07 0)
(-1.11471e-09 -1.31377e-07 0)
(-1.11472e-09 -1.31377e-07 0)
(-1.11472e-09 -1.31377e-07 0)
(-1.11472e-09 -1.31377e-07 0)
(-1.11472e-09 -1.31377e-07 0)
(1.64861e-08 4.92286e-09 0)
(-4.6954e-09 -1.63615e-07 0)
(4.67221e-10 -1.23732e-07 0)
(-1.43561e-09 -1.33185e-07 0)
(-9.96065e-10 -1.30948e-07 0)
(-1.14632e-09 -1.31478e-07 0)
(-1.10601e-09 -1.31352e-07 0)
(-1.11737e-09 -1.31382e-07 0)
(-1.11397e-09 -1.31375e-07 0)
(-1.1149e-09 -1.31377e-07 0)
(-1.11464e-09 -1.31376e-07 0)
(-1.11472e-09 -1.31377e-07 0)
(-1.1147e-09 -1.31377e-07 0)
(-1.11471e-09 -1.31377e-07 0)
(-1.11471e-09 -1.31377e-07 0)
(-1.11471e-09 -1.31377e-07 0)
(-1.11472e-09 -1.31377e-07 0)
(-1.11472e-09 -1.31377e-07 0)
(-1.11472e-09 -1.31377e-07 0)
(-1.11472e-09 -1.31377e-07 0)
(-1.88046e-08 -2.69273e-07 0)
(2.45036e-09 -9.86997e-08 0)
(-2.69879e-09 -1.39126e-07 0)
(-7.97905e-10 -1.2954e-07 0)
(-1.23222e-09 -1.31812e-07 0)
(-1.08343e-09 -1.31273e-07 0)
(-1.12315e-09 -1.31401e-07 0)
(-1.11203e-09 -1.31371e-07 0)
(-1.11539e-09 -1.31378e-07 0)
(-1.1145e-09 -1.31376e-07 0)
(-1.11476e-09 -1.31377e-07 0)
(-1.11469e-09 -1.31377e-07 0)
(-1.11472e-09 -1.31377e-07 0)
(-1.11471e-09 -1.31377e-07 0)
(-1.11472e-09 -1.31377e-07 0)
(-1.11472e-09 -1.31377e-07 0)
(-1.11472e-09 -1.31377e-07 0)
(-1.11472e-09 -1.31377e-07 0)
(-1.11472e-09 -1.31377e-07 0)
(-1.11472e-09 -1.31377e-07 0)
(1.63509e-08 8.24054e-09 0)
(-4.6167e-09 -1.64519e-07 0)
(4.48077e-10 -1.23516e-07 0)
(-1.42464e-09 -1.33243e-07 0)
(-9.98827e-10 -1.30933e-07 0)
(-1.14521e-09 -1.31482e-07 0)
(-1.10633e-09 -1.31351e-07 0)
(-1.11727e-09 -1.31382e-07 0)
(-1.11401e-09 -1.31375e-07 0)
(-1.1149e-09 -1.31377e-07 0)
(-1.11465e-09 -1.31376e-07 0)
(-1.11473e-09 -1.31377e-07 0)
(-1.11471e-09 -1.31377e-07 0)
(-1.11472e-09 -1.31377e-07 0)
(-1.11472e-09 -1.31377e-07 0)
(-1.11472e-09 -1.31377e-07 0)
(-1.11472e-09 -1.31377e-07 0)
(-1.11472e-09 -1.31377e-07 0)
(-1.11472e-09 -1.31377e-07 0)
(-1.11472e-09 -1.31377e-07 0)
(-1.78132e-08 -2.72797e-07 0)
(2.2091e-09 -9.77516e-08 0)
(-2.60378e-09 -1.3935e-07 0)
(-8.22312e-10 -1.2948e-07 0)
(-1.224e-09 -1.31827e-07 0)
(-1.08584e-09 -1.31269e-07 0)
(-1.12246e-09 -1.31402e-07 0)
(-1.11226e-09 -1.3137e-07 0)
(-1.11534e-09 -1.31378e-07 0)
(-1.11453e-09 -1.31376e-07 0)
(-1.11477e-09 -1.31377e-07 0)
(-1.11471e-09 -1.31377e-07 0)
(-1.11473e-09 -1.31377e-07 0)
(-1.11472e-09 -1.31377e-07 0)
(-1.11472e-09 -1.31377e-07 0)
(-1.11472e-09 -1.31377e-07 0)
(-1.11472e-09 -1.31377e-07 0)
(-1.11472e-09 -1.31377e-07 0)
(-1.11472e-09 -1.31377e-07 0)
(-1.11472e-09 -1.31377e-07 0)
(1.45845e-08 1.18398e-08 0)
(-4.2309e-09 -1.65473e-07 0)
(2.84718e-10 -1.2329e-07 0)
(-1.38847e-09 -1.33302e-07 0)
(-1.01195e-09 -1.30919e-07 0)
(-1.14166e-09 -1.31485e-07 0)
(-1.10737e-09 -1.3135e-07 0)
(-1.11698e-09 -1.31383e-07 0)
(-1.11412e-09 -1.31375e-07 0)
(-1.1149e-09 -1.31377e-07 0)
(-1.11468e-09 -1.31376e-07 0)
(-1.11474e-09 -1.31377e-07 0)
(-1.11472e-09 -1.31377e-07 0)
(-1.11473e-09 -1.31377e-07 0)
(-1.11472e-09 -1.31377e-07 0)
(-1.11472e-09 -1.31377e-07 0)
(-1.11472e-09 -1.31377e-07 0)
(-1.11472e-09 -1.31377e-07 0)
(-1.11472e-09 -1.31377e-07 0)
(-1.11472e-09 -1.31377e-07 0)
(-1.5373e-08 -2.7635e-07 0)
(1.69913e-09 -9.68202e-08 0)
(-2.38171e-09 -1.39571e-07 0)
(-8.68481e-10 -1.29423e-07 0)
(-1.20691e-09 -1.31841e-07 0)
(-1.09046e-09 -1.31266e-07 0)
(-1.12124e-09 -1.31403e-07 0)
(-1.1127e-09 -1.3137e-07 0)
(-1.11527e-09 -1.31378e-07 0)
(-1.11459e-09 -1.31376e-07 0)
(-1.11479e-09 -1.31377e-07 0)
(-1.11473e-09 -1.31377e-07 0)
(-1.11474e-09 -1.31377e-07 0)
(-1.11473e-09 -1.31377e-07 0)
(-1.11473e-09 -1.31377e-07 0)
(-1.11472e-09 -1.31377e-07 0)
(-1.11472e-09 -1.31377e-07 0)
(-1.11472e-09 -1.31377e-07 0)
(-1.11471e-09 -1.31377e-07 0)
(-1.11472e-09 -1.31377e-07 0)
(1.15554e-08 1.52176e-08 0)
(-3.61288e-09 -1.66348e-07 0)
(1.08272e-11 -1.23083e-07 0)
(-1.33379e-09 -1.33355e-07 0)
(-1.03288e-09 -1.30906e-07 0)
(-1.1363e-09 -1.31488e-07 0)
(-1.10896e-09 -1.3135e-07 0)
(-1.11657e-09 -1.31383e-07 0)
(-1.11429e-09 -1.31375e-07 0)
(-1.1149e-09 -1.31377e-07 0)
(-1.11472e-09 -1.31376e-07 0)
(-1.11476e-09 -1.31377e-07 0)
(-1.11474e-09 -1.31377e-07 0)
(-1.11474e-09 -1.31377e-07 0)
(-1.11473e-09 -1.31377e-07 0)
(-1.11473e-09 -1.31377e-07 0)
(-1.11472e-09 -1.31377e-07 0)
(-1.11472e-09 -1.31377e-07 0)
(-1.11471e-09 -1.31377e-07 0)
(-1.11472e-09 -1.31377e-07 0)
(-1.18811e-08 -2.79445e-07 0)
(9.97824e-10 -9.60264e-08 0)
(-2.06834e-09 -1.39758e-07 0)
(-9.29878e-10 -1.29375e-07 0)
(-1.18357e-09 -1.31852e-07 0)
(-1.09666e-09 -1.31263e-07 0)
(-1.11966e-09 -1.31403e-07 0)
(-1.1133e-09 -1.3137e-07 0)
(-1.11519e-09 -1.31378e-07 0)
(-1.11467e-09 -1.31376e-07 0)
(-1.11481e-09 -1.31377e-07 0)
(-1.11475e-09 -1.31377e-07 0)
(-1.11475e-09 -1.31377e-07 0)
(-1.11474e-09 -1.31377e-07 0)
(-1.11474e-09 -1.31377e-07 0)
(-1.11473e-09 -1.31377e-07 0)
(-1.11473e-09 -1.31377e-07 0)
(-1.11472e-09 -1.31377e-07 0)
(-1.11471e-09 -1.31377e-07 0)
(-1.11472e-09 -1.31377e-07 0)
(7.67507e-09 1.79306e-08 0)
(-2.84096e-09 -1.67037e-07 0)
(-3.36605e-10 -1.2292e-07 0)
(-1.26689e-09 -1.33396e-07 0)
(-1.05893e-09 -1.30896e-07 0)
(-1.12978e-09 -1.31491e-07 0)
(-1.11092e-09 -1.31349e-07 0)
(-1.11608e-09 -1.31383e-07 0)
(-1.11451e-09 -1.31375e-07 0)
(-1.1149e-09 -1.31377e-07 0)
(-1.11476e-09 -1.31376e-07 0)
(-1.11478e-09 -1.31377e-07 0)
(-1.11476e-09 -1.31377e-07 0)
(-1.11475e-09 -1.31377e-07 0)
(-1.11474e-09 -1.31377e-07 0)
(-1.11473e-09 -1.31377e-07 0)
(-1.11473e-09 -1.31377e-07 0)
(-1.11472e-09 -1.31377e-07 0)
(-1.11471e-09 -1.31377e-07 0)
(-1.11472e-09 -1.31377e-07 0)
(-7.74307e-09 -2.81696e-07 0)
(1.81104e-10 -9.5461e-08 0)
(-1.69931e-09 -1.39893e-07 0)
(-1.00065e-09 -1.29341e-07 0)
(-1.15661e-09 -1.31861e-07 0)
(-1.10383e-09 -1.31261e-07 0)
(-1.11789e-09 -1.31404e-07 0)
(-1.11398e-09 -1.3137e-07 0)
(-1.11511e-09 -1.31378e-07 0)
(-1.11476e-09 -1.31376e-07 0)
(-1.11482e-09 -1.31377e-07 0)
(-1.11478e-09 -1.31377e-07 0)
(-1.11477e-09 -1.31377e-07 0)
(-1.11475e-09 -1.31377e-07 0)
(-1.11474e-09 -1.31377e-07 0)
(-1.11473e-09 -1.31377e-07 0)
(-1.11473e-09 -1.31377e-07 0)
(-1.11472e-09 -1.31377e-07 0)
(-1.11471e-09 -1.31377e-07 0)
(-1.11472e-09 -1.31377e-07 0)
(3.46403e-09 1.9667e-08 0)
(-2.02197e-09 -1.67471e-07 0)
(-7.14006e-10 -1.22818e-07 0)
(-1.19495e-09 -1.33419e-07 0)
(-1.08726e-09 -1.3089e-07 0)
(-1.12269e-09 -1.31492e-07 0)
(-1.11309e-09 -1.31349e-07 0)
(-1.11555e-09 -1.31383e-07 0)
(-1.11474e-09 -1.31375e-07 0)
(-1.11489e-09 -1.31377e-07 0)
(-1.11481e-09 -1.31377e-07 0)
(-1.1148e-09 -1.31377e-07 0)
(-1.11477e-09 -1.31377e-07 0)
(-1.11476e-09 -1.31377e-07 0)
(-1.11474e-09 -1.31377e-07 0)
(-1.11473e-09 -1.31377e-07 0)
(-1.11473e-09 -1.31377e-07 0)
(-1.11472e-09 -1.31377e-07 0)
(-1.11471e-09 -1.31377e-07 0)
(-1.11472e-09 -1.31377e-07 0)
(-3.26686e-09 -2.82961e-07 0)
(-5.92179e-10 -9.50413e-08 0)
(-1.35081e-09 -1.4e-07 0)
(-1.05753e-09 -1.29311e-07 0)
(-1.13572e-09 -1.3187e-07 0)
(-1.10926e-09 -1.31259e-07 0)
(-1.11679e-09 -1.31405e-07 0)
(-1.11445e-09 -1.3137e-07 0)
(-1.11506e-09 -1.31378e-07 0)
(-1.11482e-09 -1.31376e-07 0)
(-1.11484e-09 -1.31377e-07 0)
(-1.1148e-09 -1.31377e-07 0)
(-1.11478e-09 -1.31377e-07 0)
(-1.11476e-09 -1.31377e-07 0)
(-1.11475e-09 -1.31377e-07 0)
(-1.11474e-09 -1.31377e-07 0)
(-1.11473e-09 -1.31377e-07 0)
(-1.11472e-09 -1.31377e-07 0)
(-1.11471e-09 -1.31377e-07 0)
(-1.11472e-09 -1.31377e-07 0)
)
;

boundaryField
{
    movingWall
    {
        type            calculated;
        value           uniform (-1.11472e-09 -1.31377e-07 0);
    }
    fixedWalls
    {
        type            calculated;
        value           uniform (-1.11472e-09 -1.31377e-07 0);
    }
    frontAndBack
    {
        type            empty;
    }
}


// ************************************************************************* //
