/*--------------------------------*- C++ -*----------------------------------*\
| =========                 |                                                 |
| \\      /  F ield         | OpenFOAM: The Open Source CFD Toolbox           |
|  \\    /   O peration     | Version:  2506                                  |
|   \\  /    A nd           | Website:  www.openfoam.com                      |
|    \\/     M anipulation  |                                                 |
\*---------------------------------------------------------------------------*/
FoamFile
{
    version     2.0;
    format      ascii;
    arch        "LSB;label=32;scalar=64";
    class       volScalarField;
    location    "3.75";
    object      divPhi;
}
// * * * * * * * * * * * * * * * * * * * * * * * * * * * * * * * * * * * * * //

dimensions      [0 0 -1 0 0 0 0];

internalField   nonuniform List<scalar> 
400
(
8.5923e-12
2.5138e-13
3.1122e-13
2.96498e-13
2.28164e-13
2.08291e-13
1.58228e-13
1.17882e-13
1.26196e-13
1.00592e-13
1.19095e-13
8.4285e-14
8.14562e-14
7.96384e-14
8.56465e-14
5.19387e-14
6.8785e-14
6.7915e-14
7.31866e-14
2.71051e-14
3.52366e-13
2.21689e-13
2.78206e-13
2.28274e-13
2.06216e-13
1.62932e-13
1.36759e-13
1.39971e-13
1.056e-13
9.28048e-14
1.07541e-13
1.23382e-13
9.02035e-14
8.11447e-14
7.78025e-14
7.63938e-14
7.50533e-14
4.4838e-14
3.80405e-14
5.42101e-14
-3.52366e-13
6.18514e-14
1.20996e-13
1.77151e-13
1.38057e-13
1.49633e-13
1.25008e-13
1.33261e-13
8.79074e-14
9.5289e-14
8.86464e-14
6.62412e-14
8.62436e-14
5.60725e-14
1.00952e-13
3.09402e-14
5.83637e-14
3.85441e-14
1.18191e-13
2.71051e-14
1.6263e-13
3.47808e-14
1.08463e-13
6.36643e-14
1.3586e-13
7.70258e-14
1.05586e-13
9.99147e-14
8.94218e-14
6.10873e-14
7.72041e-14
9.06409e-14
9.35438e-14
4.00281e-14
7.12684e-14
4.99979e-14
7.74118e-14
7.26848e-14
4.53327e-14
2.71051e-14
-3.79471e-13
-1.05983e-14
4.09869e-14
2.42407e-14
7.34081e-14
6.12641e-14
8.79221e-14
5.03025e-14
9.60886e-14
6.55154e-14
5.50181e-14
6.79675e-14
5.10822e-14
7.00495e-14
5.95858e-14
2.00728e-14
2.86424e-14
1.36231e-14
6.73572e-14
2.71051e-14
1.0842e-13
-1.232e-14
-2.52876e-14
3.50755e-14
3.98556e-14
3.84565e-14
5.11217e-14
1.46685e-14
2.7043e-14
5.38864e-14
6.53528e-14
2.74355e-14
3.28582e-14
2.10079e-14
3.16697e-14
2.74275e-14
5.23816e-14
4.92561e-14
-1.31245e-15
5.42101e-14
-2.98156e-13
-6.14627e-14
-2.3534e-14
3.0939e-15
-8.14821e-15
3.52122e-14
2.98066e-14
1.43077e-14
2.01084e-14
5.35377e-14
2.96273e-14
1.44639e-14
3.35419e-14
2.46208e-14
3.01487e-14
2.23303e-14
5.89797e-15
1.02881e-14
6.421e-14
-2.71051e-14
8.13152e-14
-3.41435e-14
-2.95285e-14
-4.22238e-14
-4.68476e-14
-6.52002e-16
9.56009e-15
-9.39331e-15
-2.08778e-14
4.12462e-14
4.17139e-15
-1.29032e-14
4.02478e-14
3.05336e-15
1.39496e-14
-1.42063e-14
1.3574e-14
4.43589e-14
-5.22665e-15
2.71051e-14
-2.71051e-13
-9.23739e-14
-6.6448e-14
-2.82117e-14
-3.49673e-14
-3.93831e-14
-1.35233e-14
-9.12766e-15
-3.33112e-14
-1.92749e-15
1.0979e-15
-1.45043e-14
-8.35273e-15
2.19565e-14
-2.96254e-14
-5.33884e-15
1.6403e-15
-3.85715e-14
2.90093e-14
0
5.42101e-14
-8.24919e-14
-8.2281e-14
-6.37449e-14
-4.24009e-14
-6.20885e-14
-4.79928e-14
-4.91372e-14
-6.26607e-14
-7.04218e-15
-4.22043e-14
-7.08094e-15
-3.35418e-14
-1.57998e-14
-1.68345e-14
-3.37446e-14
7.2201e-15
-4.27597e-15
-6.31186e-14
0
-3.25261e-13
-9.79347e-14
-6.29336e-14
-1.06791e-13
-4.59439e-14
-9.90976e-14
-6.65686e-14
-3.31035e-14
-7.53672e-14
-4.4031e-14
-3.10223e-14
-5.29343e-14
-2.48916e-14
-1.4264e-14
-9.86078e-15
-1.88755e-14
-2.81839e-14
-5.72483e-14
1.47258e-14
-2.71051e-14
-2.71051e-14
-7.49614e-14
-7.99601e-14
-1.01876e-13
-8.64268e-14
-6.39738e-14
-1.12433e-13
-7.45266e-14
-5.05799e-14
-5.52427e-14
-5.49246e-14
-3.43776e-14
-6.91975e-14
-4.52181e-14
-4.88324e-14
-4.18109e-14
-3.27918e-14
-2.86827e-14
-9.06097e-14
-5.42101e-14
-2.71051e-13
-1.23237e-13
-1.02202e-13
-1.03506e-13
-9.67487e-14
-9.84267e-14
-1.01137e-13
-8.84483e-14
-7.68812e-14
-5.76573e-14
-8.98554e-14
-7.92636e-14
-5.75222e-14
-4.58841e-14
-4.78781e-14
-4.44602e-14
-6.90349e-14
-9.27728e-14
-1.17677e-14
-2.71051e-14
-1.35525e-13
-9.75925e-14
-1.04093e-13
-1.23514e-13
-8.83659e-14
-1.18427e-13
-8.1333e-14
-1.08959e-13
-8.8999e-14
-1.02701e-13
-9.26544e-14
-7.18119e-14
-9.17449e-14
-5.41092e-14
-6.08562e-14
-3.62426e-14
-6.06015e-14
-7.86172e-14
-1.02116e-13
-2.71051e-14
-2.71051e-13
-1.11479e-13
-1.33679e-13
-1.09064e-13
-1.35027e-13
-1.34254e-13
-1.06511e-13
-7.81171e-14
-1.27309e-13
-9.90792e-14
-8.95041e-14
-7.09456e-14
-8.78401e-14
-7.5671e-14
-1.11588e-13
-7.85755e-14
-7.75416e-14
-8.68654e-14
-2.60487e-14
-5.42101e-14
-1.6263e-13
-1.40257e-13
-1.26985e-13
-1.12862e-13
-1.28717e-13
-1.16563e-13
-9.33827e-14
-1.24912e-13
-8.65704e-14
-1.05355e-13
-9.42067e-14
-8.9036e-14
-7.63106e-14
-7.75673e-14
-8.19022e-14
-9.8855e-14
-5.71431e-14
-7.94603e-14
-8.27914e-14
-5.42101e-14
-2.43945e-13
-1.3337e-13
-1.22078e-13
-1.34261e-13
-1.00069e-13
-1.37865e-13
-1.29445e-13
-1.049e-13
-1.04687e-13
-1.09373e-13
-7.87956e-14
-1.29722e-13
-6.81059e-14
-9.57811e-14
-8.64965e-14
-6.22592e-14
-4.82393e-14
-9.71577e-14
-4.93042e-14
-5.42101e-14
-1.89735e-13
-1.16794e-13
-1.03641e-13
-1.10856e-13
-9.2812e-14
-1.34282e-13
-1.2424e-13
-1.23171e-13
-8.30144e-14
-9.52549e-14
-1.26116e-13
-6.96658e-14
-8.65692e-14
-7.42352e-14
-7.89147e-14
-1.24089e-13
-6.97844e-14
-6.30305e-14
-8.36222e-14
-2.71051e-14
-1.89735e-13
-1.57695e-13
-8.40722e-14
-1.0729e-13
-1.07743e-13
-1.15436e-13
-1.00529e-13
-1.07208e-13
-8.10342e-14
-8.42496e-14
-8.89527e-14
-8.94959e-14
-1.09299e-13
-8.38923e-14
-9.27415e-14
-5.24642e-14
-4.1881e-14
-8.1432e-14
-8.74777e-14
-5.42101e-14
-8.13152e-14
-5.42101e-14
-5.42101e-14
-5.42101e-14
-5.42101e-14
-5.42101e-14
-2.71051e-14
-5.42101e-14
-5.42101e-14
-2.71051e-14
-8.13152e-14
-2.71051e-14
-5.42101e-14
-2.71051e-14
-5.42101e-14
-2.71051e-14
-2.71051e-14
-2.71051e-14
-5.42101e-14
0
)
;

boundaryField
{
    movingWall
    {
        type            extrapolatedCalculated;
        value           nonuniform List<scalar> 
20
(
-8.13152e-14
-5.42101e-14
-5.42101e-14
-5.42101e-14
-5.42101e-14
-5.42101e-14
-2.71051e-14
-5.42101e-14
-5.42101e-14
-2.71051e-14
-8.13152e-14
-2.71051e-14
-5.42101e-14
-2.71051e-14
-5.42101e-14
-2.71051e-14
-2.71051e-14
-2.71051e-14
-5.42101e-14
0
)
;
    }
    fixedWalls
    {
        type            extrapolatedCalculated;
        value           nonuniform List<scalar> 
60
(
8.5923e-12
3.52366e-13
-3.52366e-13
1.6263e-13
-3.79471e-13
1.0842e-13
-2.98156e-13
8.13152e-14
-2.71051e-13
5.42101e-14
-3.25261e-13
-2.71051e-14
-2.71051e-13
-1.35525e-13
-2.71051e-13
-1.6263e-13
-2.43945e-13
-1.89735e-13
-1.89735e-13
-8.13152e-14
2.71051e-14
5.42101e-14
2.71051e-14
2.71051e-14
2.71051e-14
5.42101e-14
-2.71051e-14
2.71051e-14
0
0
-2.71051e-14
-5.42101e-14
-2.71051e-14
-2.71051e-14
-5.42101e-14
-5.42101e-14
-5.42101e-14
-2.71051e-14
-5.42101e-14
0
8.5923e-12
2.5138e-13
3.1122e-13
2.96498e-13
2.28164e-13
2.08291e-13
1.58228e-13
1.17882e-13
1.26196e-13
1.00592e-13
1.19095e-13
8.4285e-14
8.14562e-14
7.96384e-14
8.56465e-14
5.19387e-14
6.8785e-14
6.7915e-14
7.31866e-14
2.71051e-14
)
;
    }
    frontAndBack
    {
        type            empty;
    }
}


// ************************************************************************* //
