/*--------------------------------*- C++ -*----------------------------------*\
| =========                 |                                                 |
| \\      /  F ield         | OpenFOAM: The Open Source CFD Toolbox           |
|  \\    /   O peration     | Version:  2506                                  |
|   \\  /    A nd           | Website:  www.openfoam.com                      |
|    \\/     M anipulation  |                                                 |
\*---------------------------------------------------------------------------*/
FoamFile
{
    version     2.0;
    format      ascii;
    arch        "LSB;label=32;scalar=64";
    class       volScalarField;
    location    "3.75";
    object      divU;
}
// * * * * * * * * * * * * * * * * * * * * * * * * * * * * * * * * * * * * * //

dimensions      [0 0 -1 0 0 0 0];

internalField   nonuniform List<scalar> 
400
(
9.32828e-08
-1.06687e-07
1.74346e-08
-6.94409e-09
8.1074e-10
-3.2971e-10
6.07141e-11
-1.25366e-11
2.81198e-12
-8.52232e-13
1.22544e-13
-2.39882e-14
7.52863e-14
1.34069e-13
1.96342e-13
8.04134e-14
-7.20276e-14
-1.01002e-13
4.49441e-13
-2.71051e-14
-3.22052e-07
3.88118e-07
-8.56195e-08
3.6814e-08
-8.23906e-09
2.94192e-09
-8.38006e-10
2.33152e-10
-7.37185e-11
2.06242e-11
-6.02778e-12
1.83516e-12
-4.24679e-13
2.65108e-13
1.60752e-13
1.98261e-14
-1.73737e-13
9.44773e-14
4.11486e-13
-5.42101e-14
5.1552e-07
-6.29315e-07
1.36711e-07
-5.87804e-08
1.28565e-08
-4.62991e-09
1.29436e-09
-3.55117e-10
1.12515e-10
-3.0196e-11
9.2326e-12
-2.44855e-12
9.45001e-13
-1.3054e-13
2.14106e-13
1.13679e-13
-1.57378e-13
-8.46415e-14
3.36876e-13
8.13152e-14
-6.97515e-07
8.65553e-07
-1.86169e-07
8.07025e-08
-1.72849e-08
6.34855e-09
-1.73883e-09
4.8682e-10
-1.50557e-10
4.21497e-11
-1.18568e-11
3.8157e-12
-8.05607e-13
4.93379e-13
1.22435e-13
2.37427e-14
-1.53788e-13
1.24742e-13
4.09243e-13
-8.13152e-14
8.49272e-07
-1.07501e-06
2.27635e-07
-1.00073e-07
2.09836e-08
-7.80556e-09
2.11917e-09
-5.8853e-10
1.84815e-10
-4.94339e-11
1.50889e-11
-4.03123e-12
1.4113e-12
-2.09729e-13
2.59543e-13
8.45061e-14
-1.14197e-13
-1.49111e-13
3.4709e-13
5.42101e-14
-9.62972e-07
1.2452e-06
-2.59366e-07
1.15678e-07
-2.3724e-08
8.90478e-09
-2.39787e-09
6.62763e-10
-2.0763e-10
5.61265e-11
-1.61815e-11
4.96459e-12
-1.14886e-12
6.00803e-13
9.19364e-14
-5.76778e-14
-1.32562e-13
1.8954e-13
3.29136e-13
-1.0842e-13
1.04535e-06
-1.38125e-06
2.84224e-07
-1.28289e-07
2.59143e-08
-9.81575e-09
2.62729e-09
-7.24271e-10
2.27716e-10
-6.0469e-11
1.80498e-11
-4.9742e-12
1.55329e-12
-2.9118e-13
2.1983e-13
8.45442e-14
-7.99452e-14
-1.73445e-13
3.09672e-13
2.71051e-14
-1.08558e-06
1.46588e-06
-2.97851e-07
1.35952e-07
-2.69203e-08
1.02949e-08
-2.73085e-09
7.49858e-10
-2.36002e-10
6.2593e-11
-1.82797e-11
5.39867e-12
-1.36975e-12
5.88296e-13
1.63295e-14
-7.38117e-14
-1.78944e-13
2.08796e-13
2.80984e-13
-1.0842e-13
1.10173e-06
-1.51856e-06
3.06074e-07
-1.409e-07
2.75644e-08
-1.06397e-08
2.80419e-09
-7.71064e-10
2.42191e-10
-6.39376e-11
1.87544e-11
-5.35722e-12
1.55224e-12
-3.38332e-13
1.74173e-13
-1.0068e-14
-1.22336e-13
-1.58654e-13
1.81109e-13
2.71051e-14
-1.08071e-06
1.52013e-06
-3.03287e-07
1.4089e-07
-2.70967e-08
1.05472e-08
-2.75993e-09
7.54923e-10
-2.38249e-10
6.2258e-11
-1.84265e-11
5.27872e-12
-1.46134e-12
4.5471e-13
-1.41397e-14
-1.91937e-13
-2.17142e-13
2.78971e-13
1.52548e-13
-8.13152e-14
1.04393e-06
-1.49548e-06
2.96755e-07
-1.38698e-07
2.64733e-08
-1.03698e-08
2.70307e-09
-7.41056e-10
2.32663e-10
-6.13203e-11
1.78039e-11
-5.23342e-12
1.38613e-12
-3.87383e-13
1.14312e-13
-6.30038e-14
-1.5554e-13
-1.05331e-13
6.60936e-14
2.71051e-14
-9.77538e-07
1.42554e-06
-2.80533e-07
1.32059e-07
-2.488e-08
9.7963e-09
-2.54305e-09
6.92488e-10
-2.19024e-10
5.66835e-11
-1.69225e-11
4.63623e-12
-1.41155e-12
3.35068e-13
-5.21026e-15
-2.34249e-13
-2.48785e-13
2.50274e-13
9.58639e-14
-1.35525e-13
9.03032e-07
-1.33684e-06
2.62232e-07
-1.23922e-07
2.32867e-08
-9.18681e-09
2.38366e-09
-6.50117e-10
2.04133e-10
-5.37674e-11
1.54165e-11
-4.67622e-12
1.06741e-12
-3.36599e-13
5.98014e-14
-1.37813e-13
-2.07632e-13
-2.10918e-14
-2.94474e-14
0
-8.06664e-07
1.21164e-06
-2.3605e-07
1.12168e-07
-2.08894e-08
8.25222e-09
-2.13911e-09
5.78712e-10
-1.83355e-10
4.72102e-11
-1.42296e-11
3.79014e-12
-1.25393e-12
2.71245e-13
-6.33596e-14
-2.84559e-13
-2.14074e-13
2.42659e-13
-6.62761e-14
-1.0842e-13
7.07695e-07
-1.07507e-06
2.09132e-07
-9.95768e-08
1.85892e-08
-7.31876e-09
1.90342e-09
-5.15084e-10
1.61639e-10
-4.2762e-11
1.21252e-11
-3.75039e-12
7.44735e-13
-3.79805e-13
-7.58923e-14
-1.99103e-13
-1.70096e-13
-1.44784e-14
-1.33451e-13
-5.42101e-14
-5.94085e-07
9.12411e-07
-1.76451e-07
8.43843e-08
-1.56769e-08
6.1502e-09
-1.60476e-09
4.29462e-10
-1.36809e-10
3.47583e-11
-1.08829e-11
2.51753e-12
-1.16139e-12
2.90996e-14
-1.56228e-13
-4.02409e-13
-2.93404e-13
1.95713e-13
-1.26871e-13
-1.0842e-13
4.81254e-07
-7.4463e-07
1.43926e-07
-6.88661e-08
1.28888e-08
-4.99897e-09
1.31374e-09
-3.5172e-10
1.09308e-10
-2.95575e-11
7.93683e-12
-2.79374e-12
3.55009e-13
-2.71494e-13
-4.44718e-14
-1.9861e-13
-1.50568e-13
1.09701e-13
-2.22499e-13
-1.0842e-13
-3.59613e-07
5.60913e-07
-1.07972e-07
5.19413e-08
-9.76611e-09
3.74381e-09
-1.00106e-09
2.64097e-10
-8.41411e-11
2.2107e-11
-6.44965e-12
1.79199e-12
-5.88002e-13
2.03014e-13
-3.4727e-15
-2.53232e-13
-2.68804e-13
1.88913e-13
-1.09883e-13
-8.13152e-14
2.40606e-07
-3.75832e-07
7.20246e-08
-3.4328e-08
6.31715e-09
-2.38084e-09
6.30036e-10
-1.60407e-10
5.08001e-11
-1.31592e-11
3.39203e-12
-1.35084e-12
-1.41545e-14
-2.27765e-13
-1.63375e-13
-5.10473e-13
-1.86863e-13
2.62678e-13
-2.17577e-13
-5.42101e-14
-1.08867e-07
1.67531e-07
-4.00756e-08
1.91818e-08
-4.52822e-09
1.65024e-09
-4.77564e-10
1.36555e-10
-4.3856e-11
1.12757e-11
-4.22839e-12
6.23416e-13
-6.50521e-13
0
-1.89735e-13
-2.71051e-13
0
2.1684e-13
-5.14996e-13
-2.71051e-14
)
;

boundaryField
{
    movingWall
    {
        type            extrapolatedCalculated;
        value           nonuniform List<scalar> 
20
(
-1.08867e-07
1.67531e-07
-4.00756e-08
1.91818e-08
-4.52822e-09
1.65024e-09
-4.77564e-10
1.36555e-10
-4.3856e-11
1.12757e-11
-4.22839e-12
6.23416e-13
-6.50521e-13
0
-1.89735e-13
-2.71051e-13
0
2.1684e-13
-5.14996e-13
-2.71051e-14
)
;
    }
    fixedWalls
    {
        type            extrapolatedCalculated;
        value           nonuniform List<scalar> 
60
(
9.32828e-08
-3.22052e-07
5.1552e-07
-6.97515e-07
8.49272e-07
-9.62972e-07
1.04535e-06
-1.08558e-06
1.10173e-06
-1.08071e-06
1.04393e-06
-9.77538e-07
9.03032e-07
-8.06664e-07
7.07695e-07
-5.94085e-07
4.81254e-07
-3.59613e-07
2.40606e-07
-1.08867e-07
-2.71051e-14
-5.42101e-14
8.13152e-14
-8.13152e-14
5.42101e-14
-1.0842e-13
2.71051e-14
-1.0842e-13
2.71051e-14
-8.13152e-14
2.71051e-14
-1.35525e-13
0
-1.0842e-13
-5.42101e-14
-1.0842e-13
-1.0842e-13
-8.13152e-14
-5.42101e-14
-2.71051e-14
9.32828e-08
-1.06687e-07
1.74346e-08
-6.94409e-09
8.1074e-10
-3.2971e-10
6.07141e-11
-1.25366e-11
2.81198e-12
-8.52232e-13
1.22544e-13
-2.39882e-14
7.52863e-14
1.34069e-13
1.96342e-13
8.04134e-14
-7.20276e-14
-1.01002e-13
4.49441e-13
-2.71051e-14
)
;
    }
    frontAndBack
    {
        type            empty;
    }
}


// ************************************************************************* //
