/*--------------------------------*- C++ -*----------------------------------*\
| =========                 |                                                 |
| \\      /  F ield         | OpenFOAM: The Open Source CFD Toolbox           |
|  \\    /   O peration     | Version:  2506                                  |
|   \\  /    A nd           | Website:  www.openfoam.com                      |
|    \\/     M anipulation  |                                                 |
\*---------------------------------------------------------------------------*/
FoamFile
{
    version     2.0;
    format      ascii;
    arch        "LSB;label=32;scalar=64";
    class       volScalarField;
    location    "3.75";
    object      enstrophyField;
}
// * * * * * * * * * * * * * * * * * * * * * * * * * * * * * * * * * * * * * //

dimensions      [0 0 -2 0 0 0 0];

internalField   nonuniform List<scalar> 
400
(
5.36825e-11
7.79095e-11
4.35043e-12
2.45485e-13
1.36778e-14
7.74513e-16
4.24822e-17
2.54043e-18
1.16275e-19
1.1519e-20
3.24892e-23
2.58511e-22
5.05654e-23
4.02356e-23
1.90541e-23
9.40659e-24
3.42537e-24
3.02756e-25
1.20093e-25
2.13625e-26
5.65917e-11
7.87072e-11
4.42018e-12
2.48136e-13
1.39258e-14
7.81163e-16
4.38221e-17
2.45344e-18
1.38056e-19
7.61019e-21
4.48403e-22
2.11845e-23
2.36003e-24
1.58955e-26
1.35832e-25
3.04416e-27
3.57975e-26
1.95215e-25
1.91596e-24
4.10285e-27
5.62495e-11
7.85162e-11
4.39666e-12
2.46084e-13
1.37689e-14
7.70161e-16
4.30534e-17
2.40812e-18
1.34113e-19
7.59232e-21
3.99342e-22
2.74634e-23
4.30388e-25
7.38037e-25
1.44302e-25
2.04528e-26
8.13617e-26
4.85548e-25
5.12147e-24
2.36782e-26
5.61536e-11
7.86657e-11
4.40078e-12
2.46076e-13
1.3756e-14
7.68682e-16
4.29526e-17
2.39652e-18
1.34359e-19
7.35885e-21
4.43634e-22
1.83773e-23
3.08958e-24
2.51042e-25
4.80581e-25
1.01002e-26
1.44024e-25
8.60835e-25
9.31866e-24
2.30909e-26
5.57172e-11
7.89337e-11
4.4144e-12
2.46766e-13
1.37906e-14
7.70578e-16
4.30306e-17
2.40644e-18
1.33595e-19
7.63716e-21
3.872e-22
2.98272e-23
1.48966e-25
1.5339e-24
5.63222e-25
1.29927e-26
2.66315e-25
1.40383e-24
1.4166e-23
1.86406e-26
5.53581e-11
7.94784e-11
4.44573e-12
2.4858e-13
1.38974e-14
7.76765e-16
4.34297e-17
2.42324e-18
1.36296e-19
7.40516e-21
4.61296e-22
1.64066e-23
4.45691e-24
7.07073e-25
9.17917e-25
1.71931e-26
2.76906e-25
1.96629e-24
1.94733e-23
2.10085e-26
5.50287e-11
8.03029e-11
4.49478e-12
2.51504e-13
1.40713e-14
7.87335e-16
4.4029e-17
2.46768e-18
1.3702e-19
7.92453e-21
3.85237e-22
3.47863e-23
1.70392e-27
2.552e-24
1.005e-24
6.63659e-26
2.81148e-25
2.4582e-24
2.37627e-23
9.15573e-27
5.49133e-11
8.1452e-11
4.56327e-12
2.55586e-13
1.4316e-14
8.01772e-16
4.49364e-17
2.51178e-18
1.42046e-19
7.64953e-21
4.9914e-22
1.50059e-23
6.14907e-24
1.49741e-24
1.84305e-24
1.27339e-25
2.8424e-25
3.09715e-24
2.78534e-23
4.0715e-29
5.49581e-11
8.28862e-11
4.64867e-12
2.60673e-13
1.46177e-14
8.19957e-16
4.5964e-17
2.58511e-18
1.43544e-19
8.4136e-21
3.93942e-22
4.05504e-23
7.29348e-26
3.74848e-24
1.62911e-24
1.87387e-25
2.80021e-25
3.47129e-24
2.95207e-23
1.63343e-27
5.52132e-11
8.45886e-11
4.74968e-12
2.66653e-13
1.49729e-14
8.40715e-16
4.72506e-17
2.6473e-18
1.50386e-19
8.07482e-21
5.40797e-22
1.43434e-23
7.59024e-24
2.2249e-24
2.42768e-24
2.17867e-25
1.45596e-25
3.79154e-24
3.13971e-23
1.7493e-26
5.56337e-11
8.64819e-11
4.86143e-12
2.73248e-13
1.53602e-14
8.63784e-16
4.85424e-17
2.73785e-18
1.52297e-19
8.977e-21
4.15222e-22
4.49218e-23
1.35837e-25
4.42728e-24
2.1533e-24
3.79362e-25
9.95835e-26
4.42593e-24
3.22194e-23
4.19902e-26
5.62107e-11
8.8526e-11
4.98173e-12
2.80305e-13
1.57753e-14
8.87794e-16
5.00158e-17
2.80819e-18
1.60024e-19
8.58232e-21
5.82207e-22
1.46922e-23
8.48517e-24
2.53912e-24
2.74663e-24
3.71934e-25
8.23603e-26
4.21021e-24
3.09156e-23
8.28506e-26
5.69029e-11
9.0613e-11
5.10378e-12
2.87444e-13
1.61907e-14
9.12332e-16
5.13711e-17
2.90358e-18
1.6173e-19
9.57457e-21
4.40235e-22
4.80678e-23
1.73007e-25
4.85607e-24
2.38249e-24
4.04083e-25
7.0997e-26
4.0675e-24
2.86277e-23
8.8012e-26
5.76605e-11
9.26995e-11
5.22562e-12
2.94533e-13
1.66044e-14
9.36039e-16
5.2821e-17
2.97095e-18
1.69428e-19
9.13558e-21
6.12796e-22
1.5641e-23
8.84752e-24
2.3041e-24
2.47796e-24
3.46216e-25
2.59444e-26
3.76203e-24
2.59213e-23
9.6272e-26
5.84617e-11
9.46682e-11
5.33981e-12
3.0116e-13
1.6987e-14
9.58497e-16
5.40487e-17
3.05769e-18
1.70883e-19
1.00375e-20
4.81315e-22
4.72452e-23
1.61478e-26
3.66441e-24
1.66744e-24
3.49843e-25
3.70795e-26
2.86726e-24
2.08023e-23
8.16904e-26
5.92281e-11
9.64863e-11
5.44524e-12
3.07251e-13
1.734e-14
9.78586e-16
5.52709e-17
3.11355e-18
1.77368e-19
9.65677e-21
6.26931e-22
1.9731e-23
6.79606e-24
1.29605e-24
1.59818e-24
1.87875e-25
8.33903e-27
2.36863e-24
1.57684e-23
9.05372e-26
5.99614e-11
9.80475e-11
5.53505e-12
3.12424e-13
1.76365e-14
9.95872e-16
5.62076e-17
3.18033e-18
1.7824e-19
1.03864e-20
5.14892e-22
4.52832e-23
4.61647e-26
2.44103e-24
9.91774e-25
2.5691e-25
1.94706e-27
1.77723e-24
1.07849e-23
1.09835e-25
6.07119e-11
9.93821e-11
5.61208e-12
3.16851e-13
1.78916e-14
1.01032e-15
5.70808e-17
3.22027e-18
1.82822e-19
1.0111e-20
6.17481e-22
2.54826e-23
4.29707e-24
2.92554e-25
6.58862e-25
7.68987e-26
1.35454e-26
1.03566e-24
6.62187e-24
5.71965e-26
6.10213e-11
1.00411e-10
5.67968e-12
3.21212e-13
1.81677e-14
1.0278e-15
5.81314e-17
3.29169e-18
1.85819e-19
1.05934e-20
5.87849e-22
3.4876e-23
1.43645e-24
2.72053e-25
2.26234e-27
5.90575e-26
2.34016e-25
1.7843e-25
3.5638e-24
4.90445e-29
6.36448e-11
1.01641e-10
5.81575e-12
3.28628e-13
1.88466e-14
1.0688e-15
6.20911e-17
3.38942e-18
2.28151e-19
7.62851e-21
1.74635e-21
2.95325e-23
1.03615e-22
3.40134e-23
1.82591e-23
7.67508e-24
2.89115e-24
1.79313e-25
3.1345e-25
8.54983e-26
)
;

boundaryField
{
    movingWall
    {
        type            calculated;
        value           nonuniform List<scalar> 
20
(
7.67038e-11
1.052e-10
6.20012e-12
3.49357e-13
2.06436e-14
1.18429e-15
7.11357e-17
3.83012e-18
3.02189e-19
6.0719e-21
3.84112e-21
2.83121e-22
3.87773e-22
1.55381e-22
8.08515e-23
3.82467e-23
1.61974e-23
7.57664e-25
3.8367e-24
5.46693e-25
)
;
    }
    fixedWalls
    {
        type            calculated;
        value           nonuniform List<scalar> 
60
(
1.39731e-09
1.41227e-09
1.41164e-09
1.41497e-09
1.42019e-09
1.43011e-09
1.44481e-09
1.46514e-09
1.49046e-09
1.52048e-09
1.55391e-09
1.59e-09
1.62693e-09
1.66386e-09
1.69878e-09
1.73103e-09
1.75878e-09
1.78244e-09
1.79819e-09
1.82355e-09
5.34901e-25
2.31014e-24
5.82639e-24
1.09873e-23
1.7496e-23
2.41188e-23
3.0918e-23
3.74475e-23
4.20377e-23
4.58984e-23
4.7714e-23
4.81884e-23
4.55008e-23
4.10725e-23
3.37798e-23
2.62873e-23
1.87179e-23
1.1445e-23
4.99821e-24
1.35484e-24
4.61023e-11
7.61581e-11
4.17713e-12
2.38329e-13
1.30124e-14
7.41065e-16
3.9369e-17
2.49184e-18
8.82602e-20
1.5311e-20
1.17892e-22
7.35748e-22
2.43008e-22
1.53426e-22
7.55134e-23
3.84456e-23
1.50021e-23
1.1202e-24
1.57862e-24
1.09773e-25
)
;
    }
    frontAndBack
    {
        type            empty;
    }
}


// ************************************************************************* //
