/*--------------------------------*- C++ -*----------------------------------*\
| =========                 |                                                 |
| \\      /  F ield         | OpenFOAM: The Open Source CFD Toolbox           |
|  \\    /   O peration     | Version:  2506                                  |
|   \\  /    A nd           | Website:  www.openfoam.com                      |
|    \\/     M anipulation  |                                                 |
\*---------------------------------------------------------------------------*/
FoamFile
{
    version     2.0;
    format      ascii;
    arch        "LSB;label=32;scalar=64";
    class       volScalarField;
    location    "3.75";
    object      epsilonzeroGrad;
}
// * * * * * * * * * * * * * * * * * * * * * * * * * * * * * * * * * * * * * //

dimensions      [0 2 -3 0 0 0 0];

internalField   nonuniform List<scalar> 
400
(
3.04897e-05
3.04891e-05
3.04888e-05
3.04883e-05
3.0488e-05
3.04877e-05
3.04874e-05
3.04872e-05
3.0487e-05
3.04868e-05
3.04866e-05
3.04865e-05
3.04863e-05
3.04862e-05
3.04861e-05
3.04861e-05
3.04861e-05
3.0486e-05
3.0486e-05
3.0486e-05
4.35705e-05
4.19466e-05
4.20688e-05
4.212e-05
4.22231e-05
4.22772e-05
4.23816e-05
4.24381e-05
4.2544e-05
4.26027e-05
4.27101e-05
4.27714e-05
4.28801e-05
4.29441e-05
4.3054e-05
4.3121e-05
4.32319e-05
4.33021e-05
4.3358e-05
4.34497e-05
6.219e-05
5.95171e-05
5.97172e-05
5.98011e-05
5.99699e-05
6.00584e-05
6.02293e-05
6.03214e-05
6.04948e-05
6.05905e-05
6.07663e-05
6.08658e-05
6.10437e-05
6.11476e-05
6.13272e-05
6.14358e-05
6.16168e-05
6.17306e-05
6.18218e-05
6.1971e-05
7.81113e-05
7.4429e-05
7.47002e-05
7.48143e-05
7.50438e-05
7.51645e-05
7.53971e-05
7.55232e-05
7.57594e-05
7.58908e-05
7.61306e-05
7.62677e-05
7.65106e-05
7.66541e-05
7.68996e-05
7.70501e-05
7.72978e-05
7.74558e-05
7.75808e-05
7.77863e-05
8.87466e-05
8.43436e-05
8.46644e-05
8.47997e-05
8.50718e-05
8.52153e-05
8.54912e-05
8.56414e-05
8.59218e-05
8.60786e-05
8.63635e-05
8.65275e-05
8.68162e-05
8.69881e-05
8.72801e-05
8.74606e-05
8.77555e-05
8.79453e-05
8.80943e-05
8.83399e-05
9.5038e-05
9.0196e-05
9.05468e-05
9.06947e-05
9.09926e-05
9.11498e-05
9.14518e-05
9.16167e-05
9.19237e-05
9.20961e-05
9.24081e-05
9.25885e-05
9.29048e-05
9.30942e-05
9.34143e-05
9.36133e-05
9.39366e-05
9.4146e-05
9.43095e-05
9.45796e-05
9.86593e-05
9.35612e-05
9.39293e-05
9.40846e-05
9.43973e-05
9.45625e-05
9.48797e-05
9.5053e-05
9.53755e-05
9.55569e-05
9.58846e-05
9.60746e-05
9.6407e-05
9.66064e-05
9.69429e-05
9.71526e-05
9.74926e-05
9.77133e-05
9.78852e-05
9.81696e-05
0.000100867
9.56122e-05
9.59909e-05
9.61506e-05
9.64725e-05
9.66425e-05
9.6969e-05
9.71475e-05
9.74794e-05
9.76663e-05
9.80037e-05
9.81994e-05
9.85418e-05
9.87472e-05
9.90938e-05
9.931e-05
9.96602e-05
9.98878e-05
0.000100065
0.000100358
0.0001024
9.7037e-05
9.74229e-05
9.75858e-05
9.79139e-05
9.80873e-05
9.84201e-05
9.86022e-05
9.89407e-05
9.91314e-05
9.94754e-05
9.96753e-05
0.000100024
0.000100234
0.000100588
0.000100808
0.000101166
0.000101398
0.000101579
0.000101878
0.00010365
9.81987e-05
9.85905e-05
9.87559e-05
9.90892e-05
9.92653e-05
9.96034e-05
9.97884e-05
0.000100132
0.000100326
0.000100675
0.000100879
0.000101233
0.000101447
0.000101806
0.00010203
0.000102393
0.00010263
0.000102813
0.000103117
0.000104822
9.92873e-05
9.96848e-05
9.98526e-05
0.000100191
0.000100369
0.000100712
0.0001009
0.000101249
0.000101446
0.0001018
0.000102006
0.000102366
0.000102583
0.000102947
0.000103175
0.000103543
0.000103784
0.00010397
0.000104278
0.000106028
0.000100409
0.000100812
0.000100982
0.000101325
0.000101507
0.000101854
0.000102045
0.000102399
0.000102599
0.000102958
0.000103168
0.000103533
0.000103753
0.000104123
0.000104355
0.000104728
0.000104972
0.000105161
0.000105475
0.000107343
0.00010163
0.00010204
0.000102212
0.000102561
0.000102745
0.000103098
0.000103292
0.000103652
0.000103855
0.00010422
0.000104433
0.000104804
0.000105028
0.000105403
0.000105639
0.000106019
0.000106267
0.000106459
0.000106778
0.000108823
0.000103004
0.00010342
0.000103596
0.000103951
0.000104138
0.000104498
0.000104695
0.000105061
0.000105268
0.00010564
0.000105857
0.000106234
0.000106462
0.000106844
0.000107084
0.000107471
0.000107724
0.000107919
0.000108244
0.000110525
0.000104584
0.000105008
0.000105188
0.000105549
0.00010574
0.000106107
0.000106308
0.000106681
0.000106893
0.000107272
0.000107493
0.000107878
0.000108111
0.000108501
0.000108747
0.000109141
0.000109399
0.000109599
0.00010993
0.000112514
0.00010643
0.000106864
0.000107048
0.000107418
0.000107613
0.000107988
0.000108194
0.000108576
0.000108792
0.00010918
0.000109407
0.000109801
0.00011004
0.000110439
0.00011069
0.000111093
0.000111358
0.000111563
0.000111902
0.000114846
0.000108594
0.000109039
0.000109227
0.000109607
0.000109808
0.000110193
0.000110404
0.000110796
0.000111018
0.000111416
0.00011165
0.000112054
0.000112299
0.000112709
0.000112967
0.000113382
0.000113654
0.000113864
0.000114213
0.000117451
0.000111013
0.00011147
0.000111663
0.000112053
0.00011226
0.000112655
0.000112873
0.000113276
0.000113505
0.000113914
0.000114155
0.00011457
0.000114823
0.000115245
0.000115511
0.000115937
0.000116219
0.000116434
0.000116794
0.000119902
0.000113451
0.000113898
0.000114088
0.000114472
0.000114676
0.000115067
0.000115285
0.000115684
0.000115914
0.000116323
0.000116566
0.000116983
0.000117241
0.000117665
0.000117939
0.00011837
0.000118661
0.00011888
0.000119249
0.00012083
0.000120828
0.000120826
0.000120824
0.000120824
0.000120822
0.000120821
0.00012082
0.00012082
0.000120819
0.000120818
0.000120818
0.000120818
0.000120817
0.000120817
0.000120817
0.000120817
0.000120817
0.000120817
0.000120817
)
;

boundaryField
{
    movingWall
    {
        type            zeroGradient;
    }
    fixedWalls
    {
        type            zeroGradient;
    }
    frontAndBack
    {
        type            empty;
    }
}


// ************************************************************************* //
