/*--------------------------------*- C++ -*----------------------------------*\
| =========                 |                                                 |
| \\      /  F ield         | OpenFOAM: The Open Source CFD Toolbox           |
|  \\    /   O peration     | Version:  2506                                  |
|   \\  /    A nd           | Website:  www.openfoam.com                      |
|    \\/     M anipulation  |                                                 |
\*---------------------------------------------------------------------------*/
FoamFile
{
    version     2.0;
    format      ascii;
    arch        "LSB;label=32;scalar=64";
    class       volScalarField;
    location    "3.75";
    object      flowTypeField;
}
// * * * * * * * * * * * * * * * * * * * * * * * * * * * * * * * * * * * * * //

dimensions      [0 0 0 0 0 0 0];

internalField   nonuniform List<scalar> 
400
(
-0.0311504
-0.00623375
-0.011118
-0.0124415
-0.0168849
-0.0252424
-0.0200122
-0.0602099
0.0274438
-0.275087
0.702172
-0.280619
0.169013
0.0219895
0.0719434
0.106203
0.258746
0.661372
0.638267
0.753079
-0.05771
-0.0105583
-0.0192501
-0.0189396
-0.0280282
-0.0350029
-0.0368612
-0.0591933
-0.0417199
-0.114876
0.0563457
0.0532202
0.573104
0.93459
0.781617
0.955115
0.857959
0.706218
0.0800412
0.869188
-0.0527096
-0.00801361
-0.0159009
-0.0113589
-0.0207564
-0.0181656
-0.0234551
-0.0193999
-0.0384198
0.027066
-0.165018
0.320163
0.7093
0.648853
0.764385
0.878266
0.777275
0.572991
0.00973802
0.72206
-0.0484335
-0.00600496
-0.0138577
-0.00665116
-0.0157254
-0.010403
-0.00803906
-0.0144043
0.0167558
-0.0291588
0.134431
-0.194008
0.517883
0.735066
0.605223
0.907433
0.690751
0.43413
0.000239766
0.688324
-0.0394864
-0.00312705
-0.010298
-0.000343611
-0.00877999
0.00163794
0.00555093
0.0111725
0.0266875
0.0686161
-0.00433628
0.301203
0.753563
0.499251
0.540968
0.883429
0.546361
0.332796
-0.00955139
0.724284
-0.0295672
-0.00023476
-0.00668836
0.0057718
-0.00265334
0.0120537
0.017923
0.0244344
0.057263
0.0555506
0.152757
0.00271655
0.402599
0.541032
0.460277
0.85641
0.455934
0.191947
-0.0200461
0.633852
-0.0184045
0.00264107
-0.00278187
0.0115789
0.00367275
0.0216299
0.029501
0.0389684
0.0715611
0.0965172
0.103895
0.253121
0.960781
0.356461
0.396752
0.688287
0.330683
0.15754
-0.0192974
0.72558
-0.00800048
0.00496111
0.000559302
0.0159191
0.00811521
0.0284322
0.0356155
0.0474985
0.0820077
0.0948188
0.156964
0.13887
0.296506
0.347802
0.269635
0.557776
0.224018
0.0557566
-0.0257205
0.965644
0.00196587
0.00690397
0.00368447
0.0192058
0.0122998
0.0334083
0.0414648
0.053706
0.0881582
0.109519
0.134689
0.222912
0.745587
0.244535
0.268495
0.453999
-0.000587113
0.053282
-0.0105213
0.80364
0.0105921
0.0081612
0.00612391
0.0208072
0.0147978
0.0354573
0.0427328
0.054868
0.0895894
0.0981247
0.160157
0.164787
0.251624
0.256178
0.204526
0.421916
-0.0473667
0.0322008
-0.0203775
0.275944
0.0181312
0.00900999
0.00818638
0.0215407
0.016871
0.0365033
0.0432539
0.0567593
0.0841586
0.110859
0.119007
0.2165
0.6959
0.221661
0.215427
0.288402
-0.449232
-0.0166775
-0.0307524
0.184249
0.0242492
0.00929118
0.00965037
0.0209587
0.0178282
0.0349911
0.0417768
0.0517475
0.0840737
0.0826261
0.155036
0.127615
0.24646
0.266642
0.198362
0.299137
0.00544588
0.0268438
-0.027376
0.0965667
0.0291335
0.00929307
0.0107456
0.019957
0.0183301
0.0335619
0.0387202
0.0519842
0.0690441
0.101426
0.0835716
0.214566
0.722171
0.227243
0.218965
0.346175
0.348071
0.0270526
-0.0244868
0.197768
0.0328999
0.00896862
0.0114516
0.0182299
0.0183705
0.0302453
0.0363549
0.0432648
0.0714542
0.0579428
0.145714
0.116278
0.2662
0.348643
0.259205
0.399287
0.676729
0.0741169
-0.041078
0.363369
0.0355073
0.00851211
0.0118439
0.0164787
0.0179229
0.0278544
0.0314208
0.0438525
0.0492743
0.0889915
0.0374337
0.227958
0.930217
0.340102
0.355672
0.47944
0.726229
0.152727
-0.022359
0.47232
0.0374279
0.00796646
0.0120609
0.0145565
0.0175742
0.0242057
0.0296203
0.0334872
0.0568519
0.0344307
0.133626
0.148211
0.373451
0.533631
0.413108
0.623045
0.884426
0.222578
-0.0277373
0.513734
0.0383817
0.00740034
0.0120462
0.0128795
0.0166658
0.0221003
0.0240809
0.0355129
0.0320028
0.0718514
0.0258873
0.230069
0.909942
0.447401
0.494267
0.593607
0.950607
0.274046
-0.0205939
0.494656
0.0379224
0.00667638
0.011738
0.0111927
0.0161572
0.0189855
0.02406
0.0259993
0.0441191
0.0250512
0.115773
0.195337
0.477907
0.765736
0.592001
0.770023
0.88466
0.392149
-0.043492
0.638997
0.0394681
0.00585631
0.0105278
0.00810541
0.011539
0.0133954
0.012244
0.019649
0.0127419
0.0410901
0.00818577
0.284029
0.649843
0.799745
0.972794
0.822913
0.657098
0.7182
-0.0770409
0.988721
0.0211616
0.00278179
0.00489664
0.00318673
0.00367077
0.00623905
-0.00288273
0.0232463
-0.0555392
0.193214
-0.508998
0.55171
-0.0956494
0.123425
0.0670372
0.138813
0.321676
0.769979
0.588728
0.699037
)
;

boundaryField
{
    movingWall
    {
        type            calculated;
        value           nonuniform List<scalar> 
20
(
0.749265
0.264166
0.253107
0.255939
0.245662
0.243885
0.228219
0.251098
0.140014
0.469189
-0.323639
0.315622
-0.092339
0.0375948
-0.00569454
0.0304696
0.114038
0.601301
0.286903
0.428481
)
;
    }
    fixedWalls
    {
        type            calculated;
        value           nonuniform List<scalar> 
60
(
-0.00592907
-0.01062
-0.0089618
-0.00711112
-0.0042085
-0.0011768
0.00195101
0.00455706
0.00681002
0.00835438
0.00947193
0.00997539
0.0101654
0.00998087
0.00963227
0.00915738
0.00863891
0.00796443
0.00786325
0.00410241
0.138734
0.0694315
0.0421631
0.0166365
0.00638225
0.0109545
0.00847939
0.00403078
0.00618863
0.00294176
0.00562326
0.000180666
0.00598373
0.00731247
0.0126866
0.0101208
0.00506705
0.0206825
0.0911984
0.171563
0.773149
0.269952
0.275085
0.267996
0.272839
0.26493
0.27827
0.2315
0.370982
-0.0367933
0.686972
-0.20375
0.076202
-0.0171168
0.0135425
0.0254099
0.0917615
0.43845
0.31376
0.543493
)
;
    }
    frontAndBack
    {
        type            empty;
    }
}


// ************************************************************************* //
