/*--------------------------------*- C++ -*----------------------------------*\
| =========                 |                                                 |
| \\      /  F ield         | OpenFOAM: The Open Source CFD Toolbox           |
|  \\    /   O peration     | Version:  2506                                  |
|   \\  /    A nd           | Website:  www.openfoam.com                      |
|    \\/     M anipulation  |                                                 |
\*---------------------------------------------------------------------------*/
FoamFile
{
    version     2.0;
    format      ascii;
    arch        "LSB;label=32;scalar=64";
    class       surfaceScalarField;
    location    "3.75";
    object      fluxField;
}
// * * * * * * * * * * * * * * * * * * * * * * * * * * * * * * * * * * * * * //

dimensions      [0 3 -1 0 0 0 0];

oriented        oriented;

internalField   nonuniform List<scalar> 
760
(
-5e-05
-5.89285e-16
-5e-05
-4.83171e-16
-5e-05
5.03696e-16
-5e-05
-1.3944e-16
-5e-05
9.27536e-17
-5e-05
-9.74521e-18
-5e-05
1.54631e-17
-5e-05
2.34785e-18
-5e-05
3.8133e-18
-5e-05
1.90114e-18
-5e-05
1.60951e-18
-5e-05
1.15274e-18
-5e-05
9.33617e-19
-5e-05
7.1792e-19
-5e-05
5.50529e-19
-5e-05
4.40232e-19
-5e-05
4.42779e-19
-5e-05
4.62641e-19
-5e-05
2.2078e-19
-1.82047e-19
-5e-05
1.73612e-15
-5e-05
1.04134e-16
-5e-05
2.38011e-16
-5e-05
3.52584e-17
-5e-05
6.05064e-17
-5e-05
1.14768e-17
-5e-05
1.61887e-17
-5e-05
6.57154e-18
-5e-05
5.93781e-18
-5e-05
3.73302e-18
-5e-05
2.95861e-18
-5e-05
2.22062e-18
-5e-05
1.79118e-18
-5e-05
1.38765e-18
-5e-05
1.07696e-18
-5e-05
8.65542e-19
-5e-05
8.57809e-19
-5e-05
9.18086e-19
-5e-05
4.1458e-19
-3.51082e-19
-5e-05
-5.57367e-15
-5e-05
1.17896e-15
-5e-05
-2.11354e-16
-5e-05
9.83555e-17
-5e-05
1.23047e-17
-5e-05
2.29679e-17
-5e-05
1.20443e-17
-5e-05
9.6391e-18
-5e-05
6.69541e-18
-5e-05
5.14295e-18
-5e-05
3.92768e-18
-5e-05
3.11481e-18
-5e-05
2.52663e-18
-5e-05
1.98669e-18
-5e-05
1.55108e-18
-5e-05
1.25492e-18
-5e-05
1.24137e-18
-5e-05
1.33409e-18
-5e-05
5.99215e-19
-5.11415e-19
-5e-05
1.05781e-14
-5e-05
-3.10835e-15
-5e-05
7.58773e-16
-5e-05
-2.16477e-16
-5e-05
7.81653e-17
-5e-05
-4.24018e-18
-5e-05
1.68285e-17
-5e-05
7.57248e-18
-5e-05
7.71419e-18
-5e-05
5.63818e-18
-5e-05
4.67265e-18
-5e-05
3.7593e-18
-5e-05
3.13252e-18
-5e-05
2.48826e-18
-5e-05
1.95507e-18
-5e-05
1.59158e-18
-5e-05
1.58786e-18
-5e-05
1.7117e-18
-5e-05
7.59608e-19
-6.64389e-19
-5e-05
-1.67117e-14
-5e-05
4.85403e-15
-5e-05
-1.17832e-15
-5e-05
3.46824e-16
-5e-05
-8.03082e-17
-5e-05
3.46445e-17
-5e-05
2.79519e-18
-5e-05
1.03274e-17
-5e-05
6.7185e-18
-5e-05
6.22881e-18
-5e-05
5.03262e-18
-5e-05
4.25735e-18
-5e-05
3.5851e-18
-5e-05
2.88847e-18
-5e-05
2.2875e-18
-5e-05
1.87782e-18
-5e-05
1.88236e-18
-5e-05
2.02948e-18
-5e-05
8.93148e-19
-8.07184e-19
-5e-05
2.31922e-14
-5e-05
-6.7927e-15
-5e-05
1.66217e-15
-5e-05
-4.62816e-16
-5e-05
1.32191e-16
-5e-05
-2.4385e-17
-5e-05
1.76199e-17
-5e-05
5.49307e-18
-5e-05
7.79128e-18
-5e-05
6.06274e-18
-5e-05
5.41429e-18
-5e-05
4.57507e-18
-5e-05
3.94117e-18
-5e-05
3.19952e-18
-5e-05
2.55731e-18
-5e-05
2.10655e-18
-5e-05
2.11494e-18
-5e-05
2.28355e-18
-5e-05
9.90303e-19
-9.32333e-19
-5e-05
-2.95332e-14
-5e-05
8.38045e-15
-5e-05
-2.037e-15
-5e-05
5.60834e-16
-5e-05
-1.40142e-16
-5e-05
4.47413e-17
-5e-05
-2.41201e-18
-5e-05
1.02805e-17
-5e-05
6.41186e-18
-5e-05
6.57356e-18
-5e-05
5.54245e-18
-5e-05
4.86864e-18
-5e-05
4.21014e-18
-5e-05
3.45086e-18
-5e-05
2.76546e-18
-5e-05
2.27763e-18
-5e-05
2.29072e-18
-5e-05
2.47063e-18
-5e-05
1.0532e-18
-1.03744e-18
-5e-05
3.51572e-14
-5e-05
-9.85817e-15
-5e-05
2.36549e-15
-5e-05
-6.43774e-16
-5e-05
1.71328e-16
-5e-05
-3.49964e-17
-5e-05
1.92544e-17
-5e-05
4.87802e-18
-5e-05
8.03719e-18
-5e-05
6.39187e-18
-5e-05
5.86553e-18
-5e-05
5.06984e-18
-5e-05
4.43483e-18
-5e-05
3.63685e-18
-5e-05
2.91788e-18
-5e-05
2.40067e-18
-5e-05
2.41505e-18
-5e-05
2.60007e-18
-5e-05
1.08669e-18
-1.11905e-18
-5e-05
-3.99143e-14
-5e-05
1.09756e-14
-5e-05
-2.61095e-15
-5e-05
7.13326e-16
-5e-05
-1.69814e-16
-5e-05
5.36775e-17
-5e-05
-3.34582e-18
-5e-05
1.12197e-17
-5e-05
6.85253e-18
-5e-05
7.082e-18
-5e-05
6.00319e-18
-5e-05
5.30143e-18
-5e-05
4.6029e-18
-5e-05
3.77789e-18
-5e-05
3.0251e-18
-5e-05
2.48437e-18
-5e-05
2.49019e-18
-5e-05
2.66407e-18
-5e-05
1.0956e-18
-1.17698e-18
-5e-05
4.30279e-14
-5e-05
-1.16366e-14
-5e-05
2.77395e-15
-5e-05
-7.28543e-16
-5e-05
1.94088e-16
-5e-05
-3.61635e-17
-5e-05
2.175e-17
-5e-05
5.96148e-18
-5e-05
8.89834e-18
-5e-05
7.0264e-18
-5e-05
6.3506e-18
-5e-05
5.4532e-18
-5e-05
4.74397e-18
-5e-05
3.8745e-18
-5e-05
3.09322e-18
-5e-05
2.527e-18
-5e-05
2.51392e-18
-5e-05
2.67183e-18
-5e-05
1.07491e-18
-1.21444e-18
-5e-05
-4.50813e-14
-5e-05
1.20647e-14
-5e-05
-2.83869e-15
-5e-05
7.69608e-16
-5e-05
-1.73181e-16
-5e-05
5.89295e-17
-5e-05
-1.10683e-18
-5e-05
1.27993e-17
-5e-05
7.91292e-18
-5e-05
7.77021e-18
-5e-05
6.4703e-18
-5e-05
5.61021e-18
-5e-05
4.81209e-18
-5e-05
3.9147e-18
-5e-05
3.105e-18
-5e-05
2.52535e-18
-5e-05
2.49544e-18
-5e-05
2.62996e-18
-5e-05
1.03974e-18
-1.22751e-18
-5e-05
4.49003e-14
-5e-05
-1.17861e-14
-5e-05
2.81338e-15
-5e-05
-7.10281e-16
-5e-05
1.94967e-16
-5e-05
-3.0259e-17
-5e-05
2.36422e-17
-5e-05
7.88286e-18
-5e-05
9.90314e-18
-5e-05
7.69277e-18
-5e-05
6.71303e-18
-5e-05
5.64494e-18
-5e-05
4.8174e-18
-5e-05
3.87847e-18
-5e-05
3.05479e-18
-5e-05
2.46898e-18
-5e-05
2.42469e-18
-5e-05
2.54268e-18
-5e-05
9.92972e-19
-1.21318e-18
-5e-05
-4.39178e-14
-5e-05
1.14991e-14
-5e-05
-2.68947e-15
-5e-05
7.25918e-16
-5e-05
-1.53527e-16
-5e-05
5.87008e-17
-5e-05
2.60628e-18
-5e-05
1.40398e-17
-5e-05
8.90525e-18
-5e-05
8.20831e-18
-5e-05
6.65951e-18
-5e-05
5.62076e-18
-5e-05
4.71208e-18
-5e-05
3.76477e-18
-5e-05
2.9423e-18
-5e-05
2.36434e-18
-5e-05
2.30623e-18
-5e-05
2.4003e-18
-5e-05
9.27763e-19
-1.16946e-18
-5e-05
4.05266e-14
-5e-05
-1.03716e-14
-5e-05
2.48827e-15
-5e-05
-6.0209e-16
-5e-05
1.737e-16
-5e-05
-1.99682e-17
-5e-05
2.37012e-17
-5e-05
9.51872e-18
-5e-05
1.02822e-17
-5e-05
7.85876e-18
-5e-05
6.59343e-18
-5e-05
5.40632e-18
-5e-05
4.49766e-18
-5e-05
3.55759e-18
-5e-05
2.76243e-18
-5e-05
2.20568e-18
-5e-05
2.13521e-18
-5e-05
2.20874e-18
-5e-05
8.44016e-19
-1.08865e-18
-5e-05
-3.68479e-14
-5e-05
9.47406e-15
-5e-05
-2.20602e-15
-5e-05
5.96421e-16
-5e-05
-1.16201e-16
-5e-05
5.24112e-17
-5e-05
6.17179e-18
-5e-05
1.39236e-17
-5e-05
8.98824e-18
-5e-05
7.80193e-18
-5e-05
6.15517e-18
-5e-05
5.03907e-18
-5e-05
4.12997e-18
-5e-05
3.23897e-18
-5e-05
2.49502e-18
-5e-05
1.97633e-18
-5e-05
1.90226e-18
-5e-05
1.95472e-18
-5e-05
7.39131e-19
-9.73669e-19
-5e-05
3.09776e-14
-5e-05
-7.74295e-15
-5e-05
1.87367e-15
-5e-05
-4.26854e-16
-5e-05
1.34122e-16
-5e-05
-7.81003e-18
-5e-05
2.08822e-17
-5e-05
9.67898e-18
-5e-05
9.13882e-18
-5e-05
6.8261e-18
-5e-05
5.49889e-18
-5e-05
4.38343e-18
-5e-05
3.56535e-18
-5e-05
2.77199e-18
-5e-05
2.12257e-18
-5e-05
1.668e-18
-5e-05
1.60716e-18
-5e-05
1.64813e-18
-5e-05
6.12027e-19
-8.35582e-19
-5e-05
-2.52976e-14
-5e-05
6.39152e-15
-5e-05
-1.49633e-15
-5e-05
4.14765e-16
-5e-05
-7.16789e-17
-5e-05
4.21046e-17
-5e-05
6.98166e-18
-5e-05
1.14371e-17
-5e-05
6.9915e-18
-5e-05
5.85144e-18
-5e-05
4.43721e-18
-5e-05
3.55706e-18
-5e-05
2.85347e-18
-5e-05
2.21573e-18
-5e-05
1.68972e-18
-5e-05
1.32593e-18
-5e-05
1.27695e-18
-5e-05
1.30814e-18
-5e-05
4.797e-19
-6.81428e-19
-5e-05
1.81122e-14
-5e-05
-4.47419e-15
-5e-05
1.0545e-15
-5e-05
-1.67425e-16
-5e-05
6.61366e-17
-5e-05
1.01254e-17
-5e-05
1.06613e-17
-5e-05
7.85679e-18
-5e-05
5.36505e-18
-5e-05
4.32735e-18
-5e-05
3.23939e-18
-5e-05
2.58252e-18
-5e-05
2.04851e-18
-5e-05
1.58219e-18
-5e-05
1.19853e-18
-5e-05
9.39579e-19
-5e-05
9.08581e-19
-5e-05
9.55248e-19
-5e-05
3.79105e-19
-5.06794e-19
-5e-05
-1.35236e-14
-5e-05
6.01858e-15
-5e-05
-1.61497e-15
-5e-05
5.8197e-16
-5e-05
-1.61115e-16
-5e-05
6.063e-17
-5e-05
-1.0278e-17
-5e-05
8.95835e-18
-5e-05
1.6615e-18
-5e-05
2.72752e-18
-5e-05
1.63405e-18
-5e-05
1.39024e-18
-5e-05
1.05356e-18
-5e-05
8.1042e-19
-5e-05
6.02901e-19
-5e-05
4.68693e-19
-5e-05
4.75057e-19
-5e-05
5.46784e-19
-5e-05
2.50538e-19
-2.81854e-19
-5e-05
-5e-05
-5e-05
-5e-05
-5e-05
-5e-05
-5e-05
-5e-05
-5e-05
-5e-05
-5e-05
-5e-05
-5e-05
-5e-05
-5e-05
-5e-05
-5e-05
-5e-05
-5e-05
)
;

boundaryField
{
    movingWall
    {
        type            calculated;
        value           uniform -0;
    }
    fixedWalls
    {
        type            calculated;
        value           nonuniform List<scalar> 
60
(
5e-05
5e-05
5e-05
5e-05
5e-05
5e-05
5e-05
5e-05
5e-05
5e-05
5e-05
5e-05
5e-05
5e-05
5e-05
5e-05
5e-05
5e-05
5e-05
5e-05
-5e-05
-5e-05
-5e-05
-5e-05
-5e-05
-5e-05
-5e-05
-5e-05
-5e-05
-5e-05
-5e-05
-5e-05
-5e-05
-5e-05
-5e-05
-5e-05
-5e-05
-5e-05
-5e-05
-5e-05
0
0
0
0
0
0
0
0
0
0
0
0
0
0
0
0
0
0
0
0
)
;
    }
    frontAndBack
    {
        type            empty;
    }
}


// ************************************************************************* //
