/*--------------------------------*- C++ -*----------------------------------*\
| =========                 |                                                 |
| \\      /  F ield         | OpenFOAM: The Open Source CFD Toolbox           |
|  \\    /   O peration     | Version:  2506                                  |
|   \\  /    A nd           | Website:  www.openfoam.com                      |
|    \\/     M anipulation  |                                                 |
\*---------------------------------------------------------------------------*/
FoamFile
{
    version     2.0;
    format      ascii;
    arch        "LSB;label=32;scalar=64";
    class       volTensorField;
    location    "3.75";
    object      gradU;
}
// * * * * * * * * * * * * * * * * * * * * * * * * * * * * * * * * * * * * * //

dimensions      [0 0 -1 0 0 0 0];

internalField   nonuniform List<tensor> 
400
(
(9.564e-08 1.00482e-05 0 -3.13491e-07 -2.35714e-09 0 0 0 0)
(-1.04754e-07 -1.2405e-05 0 7.77775e-08 -1.93268e-09 0 0 0 0)
(1.54198e-08 2.91725e-06 0 -3.24763e-08 2.01478e-09 0 0 0 0)
(-6.38633e-09 -6.92052e-07 0 8.64063e-09 -5.57761e-10 0 0 0 0)
(4.39725e-10 1.62648e-07 0 -2.74734e-09 3.71014e-10 0 0 0 0)
(-2.90729e-10 -3.83875e-08 0 9.70171e-10 -3.89808e-11 0 0 0 0)
(-1.13841e-12 9.03655e-09 0 -1.81062e-10 6.18526e-11 0 0 0 0)
(-2.1928e-11 -2.12592e-09 0 1.28153e-10 9.39138e-12 0 0 0 0)
(-1.24412e-11 4.95461e-10 0 1.32273e-11 1.52532e-11 0 0 0 0)
(-8.45678e-12 -1.18281e-10 0 3.35018e-11 7.60455e-12 0 0 0 0)
(-6.31548e-12 2.61671e-11 0 1.81062e-11 6.43802e-12 0 0 0 0)
(-4.63496e-12 -6.96298e-12 0 1.57751e-11 4.61098e-12 0 0 0 0)
(-3.65918e-12 1.00248e-12 0 1.10589e-11 3.73447e-12 0 0 0 0)
(-2.73761e-12 -7.30636e-13 0 8.23994e-12 2.87168e-12 0 0 0 0)
(-2.00577e-12 -2.10069e-13 0 5.96311e-12 2.20212e-12 0 0 0 0)
(-1.68051e-12 -1.09027e-13 0 4.22839e-12 1.76093e-12 0 0 0 0)
(-1.84314e-12 -1.53069e-14 0 2.60209e-12 1.77112e-12 0 0 0 0)
(-1.95156e-12 -2.0894e-13 0 5.69206e-13 1.85056e-12 0 0 0 0)
(-4.33681e-13 -6.21219e-13 0 -1.11131e-12 8.83122e-13 0 0 0 0)
(7.04731e-13 -6.43502e-14 0 -2.71051e-13 -7.28186e-13 0 0 0 0)
(-3.31353e-07 -1.00525e-05 0 5.86265e-07 9.30163e-09 0 0 0 0)
(3.85768e-07 1.24093e-05 0 -1.37146e-07 2.34922e-09 0 0 0 0)
(-8.45568e-08 -2.91587e-06 0 5.74053e-08 -1.06274e-09 0 0 0 0)
(3.61152e-08 6.90408e-07 0 -1.40575e-08 6.98795e-10 0 0 0 0)
(-8.11008e-09 -1.62129e-07 0 4.75878e-09 -1.28989e-10 0 0 0 0)
(2.85704e-09 3.80783e-08 0 -1.44792e-09 8.48882e-11 0 0 0 0)
(-8.40907e-10 -8.98818e-09 0 3.7367e-10 2.90238e-12 0 0 0 0)
(2.16244e-10 2.07932e-09 0 -1.35823e-10 1.68948e-11 0 0 0 0)
(-8.22096e-11 -4.97248e-10 0 2.82164e-11 8.49804e-12 0 0 0 0)
(1.33086e-11 1.09466e-10 0 -1.39049e-11 7.32755e-12 0 0 0 0)
(-1.14112e-11 -2.91607e-11 0 7.86047e-13 5.39643e-12 0 0 0 0)
(-2.43945e-12 4.25943e-12 0 -2.24972e-12 4.2715e-12 0 0 0 0)
(-3.84892e-12 -2.74178e-12 0 -5.69206e-13 3.43027e-12 0 0 0 0)
(-2.41235e-12 -8.01716e-13 0 -6.23416e-13 2.67891e-12 0 0 0 0)
(-1.95156e-12 -9.00685e-13 0 -3.79471e-13 2.10571e-12 0 0 0 0)
(-1.68051e-12 -3.21973e-13 0 -2.43945e-13 1.70124e-12 0 0 0 0)
(-1.84314e-12 1.04942e-13 0 -1.6263e-13 1.66012e-12 0 0 0 0)
(-1.73472e-12 -6.79054e-13 0 -5.42101e-14 1.82178e-12 0 0 0 0)
(-3.52366e-13 -1.95753e-12 0 0 7.75197e-13 0 0 0 0)
(6.23416e-13 -9.05853e-14 0 0 -6.76142e-13 0 0 0 0)
(5.44759e-07 1.00599e-05 0 -5.46691e-07 -2.92392e-08 0 0 0 0)
(-6.33614e-07 -1.24153e-05 0 1.15922e-07 4.29932e-09 0 0 0 0)
(1.38508e-07 2.91559e-06 0 -4.97576e-08 -1.79746e-09 0 0 0 0)
(-5.90328e-08 -6.91118e-07 0 1.04296e-08 2.52389e-10 0 0 0 0)
(1.30493e-08 1.62034e-07 0 -3.91112e-09 -1.92807e-10 0 0 0 0)
(-4.67587e-09 -3.82556e-08 0 9.9134e-10 4.59642e-11 0 0 0 0)
(1.31094e-09 8.96856e-09 0 -3.10814e-10 -1.65777e-11 0 0 0 0)
(-3.67382e-10 -2.12033e-09 0 7.42678e-11 1.22703e-11 0 0 0 0)
(1.09477e-10 4.85894e-10 0 -3.20111e-11 3.03038e-12 0 0 0 0)
(-3.58329e-11 -1.21383e-10 0 1.84314e-12 5.63971e-12 0 0 0 0)
(5.3668e-12 2.3111e-11 0 -5.14996e-12 3.87626e-12 0 0 0 0)
(-6.01732e-12 -8.92914e-12 0 -1.51788e-12 3.57676e-12 0 0 0 0)
(-2.00577e-12 -5.90103e-13 0 -1.51788e-12 2.94177e-12 0 0 0 0)
(-2.52077e-12 -2.05519e-12 0 -8.40257e-13 2.39617e-12 0 0 0 0)
(-1.68051e-12 -1.18774e-12 0 -6.50521e-13 1.8965e-12 0 0 0 0)
(-1.43657e-12 -5.54617e-13 0 -3.52366e-13 1.55753e-12 0 0 0 0)
(-1.68051e-12 1.05234e-13 0 -2.98156e-13 1.53424e-12 0 0 0 0)
(-1.76183e-12 -1.09386e-12 0 -1.0842e-13 1.66402e-12 0 0 0 0)
(-4.06576e-13 -3.11914e-12 0 8.13152e-14 7.38541e-13 0 0 0 0)
(7.04731e-13 -1.63405e-13 0 5.42101e-14 -6.41332e-13 0 0 0 0)
(-7.62122e-07 -1.00774e-05 0 5.20071e-07 6.46072e-08 0 0 0 0)
(8.82702e-07 1.24368e-05 0 -1.06398e-07 -1.71492e-08 0 0 0 0)
(-1.90049e-07 -2.91992e-06 0 4.68248e-08 3.88051e-09 0 0 0 0)
(8.19618e-08 6.92012e-07 0 -9.52285e-09 -1.25933e-09 0 0 0 0)
(-1.75484e-08 -1.62335e-07 0 3.5319e-09 2.63443e-10 0 0 0 0)
(6.45737e-09 3.82546e-08 0 -9.54667e-10 -1.08832e-10 0 0 0 0)
(-1.75798e-09 -9.02187e-09 0 2.46629e-10 1.9137e-11 0 0 0 0)
(4.95074e-10 2.09893e-09 0 -9.03683e-11 -8.26649e-12 0 0 0 0)
(-1.54634e-10 -5.03878e-10 0 1.45012e-11 4.07512e-12 0 0 0 0)
(4.01697e-11 1.10312e-10 0 -1.10047e-11 1.98093e-12 0 0 0 0)
(-1.48265e-11 -3.12236e-11 0 -1.43657e-12 2.97989e-12 0 0 0 0)
(1.24683e-12 3.32494e-12 0 -2.73761e-12 2.57796e-12 0 0 0 0)
(-3.2255e-12 -3.92236e-12 0 -1.43657e-12 2.42357e-12 0 0 0 0)
(-1.51788e-12 -1.84699e-12 0 -1.13841e-12 2.00628e-12 0 0 0 0)
(-1.49078e-12 -1.73933e-12 0 -7.58942e-13 1.61595e-12 0 0 0 0)
(-1.32815e-12 -6.84229e-13 0 -5.42101e-13 1.34663e-12 0 0 0 0)
(-1.54499e-12 2.11441e-13 0 -3.25261e-13 1.38595e-12 0 0 0 0)
(-1.38236e-12 -1.47475e-12 0 -1.6263e-13 1.51043e-12 0 0 0 0)
(-2.43945e-13 -4.26289e-12 0 5.42101e-14 6.41574e-13 0 0 0 0)
(5.42101e-13 -1.87795e-13 0 2.71051e-14 -6.11895e-13 0 0 0 0)
(9.58432e-07 1.01073e-05 0 -4.48927e-07 -1.09159e-07 0 0 0 0)
(-1.10686e-06 -1.24761e-05 0 8.84624e-08 3.18495e-08 0 0 0 0)
(2.35384e-07 2.93148e-06 0 -3.98459e-08 -7.74838e-09 0 0 0 0)
(-1.02326e-07 -6.94735e-07 0 7.78324e-09 2.25321e-09 0 0 0 0)
(2.16174e-08 1.63184e-07 0 -2.89135e-09 -6.33894e-10 0 0 0 0)
(-7.96111e-09 -3.84999e-08 0 7.5764e-10 1.55539e-10 0 0 0 0)
(2.17529e-09 9.06913e-09 0 -2.07787e-10 -5.61334e-11 0 0 0 0)
(-5.99537e-10 -2.13539e-09 0 5.84385e-11 1.10198e-11 0 0 0 0)
(1.88787e-10 4.96141e-10 0 -2.07625e-11 -3.98276e-12 0 0 0 0)
(-5.17978e-11 -1.22478e-10 0 1.11131e-12 2.36251e-12 0 0 0 0)
(1.36609e-11 2.37081e-11 0 -4.11997e-12 1.43987e-12 0 0 0 0)
(-6.01732e-12 -9.48545e-12 0 -1.76183e-12 1.99221e-12 0 0 0 0)
(-4.06576e-13 -1.16179e-12 0 -1.70762e-12 1.81033e-12 0 0 0 0)
(-1.81604e-12 -2.86282e-12 0 -1.11131e-12 1.60082e-12 0 0 0 0)
(-1.0571e-12 -1.84739e-12 0 -7.86047e-13 1.32973e-12 0 0 0 0)
(-1.0571e-12 -7.84616e-13 0 -6.23416e-13 1.14497e-12 0 0 0 0)
(-1.30104e-12 2.69029e-13 0 -4.60786e-13 1.178e-12 0 0 0 0)
(-1.40946e-12 -1.83824e-12 0 -1.6263e-13 1.27113e-12 0 0 0 0)
(-1.89735e-13 -5.24146e-12 0 8.13152e-14 5.34158e-13 0 0 0 0)
(6.23416e-13 -1.93084e-13 0 0 -5.71182e-13 0 0 0 0)
(-1.12259e-06 -1.01548e-05 0 3.67422e-07 1.59616e-07 0 0 0 0)
(1.29178e-06 1.25382e-05 0 -6.96062e-08 -4.65869e-08 0 0 0 0)
(-2.70728e-07 -2.94951e-06 0 3.2342e-08 1.1362e-08 0 0 0 0)
(1.18916e-07 6.99127e-07 0 -5.9687e-09 -3.23856e-09 0 0 0 0)
(-2.4574e-08 -1.64433e-07 0 2.28458e-09 8.49996e-10 0 0 0 0)
(9.14091e-09 3.88323e-08 0 -5.82515e-10 -2.36118e-10 0 0 0 0)
(-2.45718e-09 -9.16639e-09 0 1.53442e-10 5.92988e-11 0 0 0 0)
(6.82099e-10 2.15108e-09 0 -5.03883e-11 -1.93374e-11 0 0 0 0)
(-2.11934e-10 -5.12536e-10 0 9.56808e-12 4.29113e-12 0 0 0 0)
(5.67851e-11 1.15735e-10 0 -5.96311e-12 -6.64269e-13 0 0 0 0)
(-1.76996e-11 -3.15939e-11 0 -1.21973e-12 1.52668e-12 0 0 0 0)
(3.68629e-12 3.6954e-12 0 -2.03288e-12 1.27088e-12 0 0 0 0)
(-2.57498e-12 -4.31375e-12 0 -1.32815e-12 1.42429e-12 0 0 0 0)
(-6.50521e-13 -2.32759e-12 0 -1.13841e-12 1.24421e-12 0 0 0 0)
(-9.75782e-13 -2.19519e-12 0 -8.40257e-13 1.07923e-12 0 0 0 0)
(-9.75782e-13 -8.35957e-13 0 -6.50521e-13 9.14913e-13 0 0 0 0)
(-1.0571e-12 3.3761e-13 0 -4.06576e-13 9.30312e-13 0 0 0 0)
(-8.40257e-13 -2.1186e-12 0 -1.35525e-13 1.01628e-12 0 0 0 0)
(-5.42101e-14 -6.1052e-12 0 1.35525e-13 3.88622e-13 0 0 0 0)
(4.06576e-13 -1.5077e-13 0 5.42101e-14 -5.00596e-13 0 0 0 0)
(1.25625e-06 1.02204e-05 0 -2.70472e-07 -2.10901e-07 0 0 0 0)
(-1.44194e-06 -1.26243e-05 0 4.87168e-08 6.06926e-08 0 0 0 0)
(2.99021e-07 2.97483e-06 0 -2.3425e-08 -1.47967e-08 0 0 0 0)
(-1.32383e-07 -7.05247e-07 0 3.98371e-09 4.0946e-09 0 0 0 0)
(2.70037e-08 1.66187e-07 0 -1.57093e-09 -1.08933e-09 0 0 0 0)
(-1.00923e-08 -3.92906e-08 0 3.91505e-10 2.76505e-10 0 0 0 0)
(2.70742e-09 9.28591e-09 0 -9.80119e-11 -8.01276e-11 0 0 0 0)
(-7.4341e-10 -2.1904e-09 0 3.11708e-11 1.91497e-11 0 0 0 0)
(2.33239e-10 5.14814e-10 0 -8.67362e-12 -5.5177e-12 0 0 0 0)
(-6.25043e-11 -1.25243e-10 0 6.50521e-13 2.04328e-12 0 0 0 0)
(1.7537e-11 2.56432e-11 0 -2.11419e-12 5.12665e-13 0 0 0 0)
(-6.15285e-12 -9.58785e-12 0 -1.24683e-12 1.17427e-12 0 0 0 0)
(4.87891e-13 -1.18846e-12 0 -1.24683e-12 1.07584e-12 0 0 0 0)
(-1.30104e-12 -3.20788e-12 0 -9.48677e-13 1.00537e-12 0 0 0 0)
(-6.23416e-13 -2.17669e-12 0 -7.58942e-13 8.32625e-13 0 0 0 0)
(-5.96311e-13 -9.3353e-13 0 -5.69206e-13 6.84323e-13 0 0 0 0)
(-7.86047e-13 3.70393e-13 0 -3.79471e-13 7.03138e-13 0 0 0 0)
(-9.21572e-13 -2.37993e-12 0 -1.6263e-13 7.48323e-13 0 0 0 0)
(5.42101e-14 -6.75834e-12 0 1.35525e-13 2.51586e-13 0 0 0 0)
(4.33681e-13 -8.11097e-14 0 5.42101e-14 -4.20438e-13 0 0 0 0)
(-1.34434e-06 -1.0305e-05 0 1.74856e-07 2.58761e-07 0 0 0 0)
(1.53883e-06 1.27343e-05 0 -2.90865e-08 -7.29545e-08 0 0 0 0)
(-3.15461e-07 -3.00611e-06 0 1.49039e-08 1.761e-08 0 0 0 0)
(1.4077e-07 7.12834e-07 0 -2.12807e-09 -4.81843e-09 0 0 0 0)
(-2.81662e-08 -1.68251e-07 0 9.58516e-10 1.24588e-09 0 0 0 0)
(1.06138e-08 3.98415e-08 0 -2.02746e-10 -3.18951e-10 0 0 0 0)
(-2.81752e-09 -9.42375e-09 0 5.63785e-11 8.66658e-11 0 0 0 0)
(7.71464e-10 2.22569e-09 0 -1.56396e-11 -2.16099e-11 0 0 0 0)
(-2.42509e-10 -5.29642e-10 0 3.36103e-12 6.50133e-12 0 0 0 0)
(6.33174e-11 1.21765e-10 0 -1.92446e-12 -7.2679e-13 0 0 0 0)
(-1.95698e-11 -3.24629e-11 0 -8.67362e-13 1.2923e-12 0 0 0 0)
(4.58075e-12 4.25857e-12 0 -1.21973e-12 8.04786e-13 0 0 0 0)
(-2.27682e-12 -4.48265e-12 0 -9.75782e-13 8.9877e-13 0 0 0 0)
(-1.6263e-13 -2.57081e-12 0 -8.40257e-13 7.43951e-13 0 0 0 0)
(-5.96311e-13 -2.51623e-12 0 -5.96311e-13 6.09652e-13 0 0 0 0)
(-5.69206e-13 -9.65443e-13 0 -4.60786e-13 4.92165e-13 0 0 0 0)
(-6.77626e-13 4.0161e-13 0 -3.52366e-13 4.97312e-13 0 0 0 0)
(-2.98156e-13 -2.57015e-12 0 -8.13152e-14 5.17766e-13 0 0 0 0)
(1.35525e-13 -7.27396e-12 0 1.89735e-13 1.33943e-13 0 0 0 0)
(2.1684e-13 1.80812e-14 0 2.71051e-14 -3.26419e-13 0 0 0 0)
(1.40202e-06 1.04062e-05 0 -7.79325e-08 -3.00286e-07 0 0 0 0)
(-1.60189e-06 -1.28655e-05 0 9.79701e-09 8.33352e-08 0 0 0 0)
(3.2598e-07 3.04297e-06 0 -6.1847e-09 -1.99058e-08 0 0 0 0)
(-1.46329e-07 -7.21611e-07 0 4.32217e-10 5.4284e-09 0 0 0 0)
(2.8929e-08 1.70686e-07 0 -2.97451e-10 -1.36457e-09 0 0 0 0)
(-1.09944e-08 -4.04498e-08 0 4.60244e-11 3.54695e-10 0 0 0 0)
(2.89458e-09 9.58325e-09 0 -4.66207e-12 -9.04011e-11 0 0 0 0)
(-7.96428e-10 -2.27056e-09 0 3.25261e-12 2.53669e-11 0 0 0 0)
(2.46927e-10 5.35697e-10 0 -1.0842e-13 -4.73864e-12 0 0 0 0)
(-6.67055e-11 -1.30452e-10 0 -7.31836e-13 2.76053e-12 0 0 0 0)
(1.82146e-11 2.71748e-11 0 -8.94467e-13 5.50626e-13 0 0 0 0)
(-6.28837e-12 -9.98138e-12 0 -9.75782e-13 9.26387e-13 0 0 0 0)
(8.67362e-13 -1.24929e-12 0 -8.67362e-13 6.72269e-13 0 0 0 0)
(-8.94467e-13 -3.497e-12 0 -7.58942e-13 5.6415e-13 0 0 0 0)
(-2.43945e-13 -2.42847e-12 0 -6.23416e-13 4.28894e-13 0 0 0 0)
(-3.52366e-13 -1.04587e-12 0 -4.33681e-13 3.34794e-13 0 0 0 0)
(-4.33681e-13 3.95994e-13 0 -3.52366e-13 3.00554e-13 0 0 0 0)
(-4.06576e-13 -2.7433e-12 0 -1.0842e-13 2.55966e-13 0 0 0 0)
(1.35525e-13 -7.60252e-12 0 8.13152e-14 3.56501e-14 0 0 0 0)
(2.71051e-13 1.11367e-13 0 5.42101e-14 -2.31719e-13 0 0 0 0)
(-1.41248e-06 -1.05219e-05 0 -1.35191e-08 3.31769e-07 0 0 0 0)
(1.61058e-06 1.30147e-05 0 7.87055e-09 -9.04489e-08 0 0 0 0)
(-3.24826e-07 -3.08402e-06 0 -1.91448e-09 2.15396e-08 0 0 0 0)
(1.46658e-07 7.31375e-07 0 1.09702e-09 -5.76748e-09 0 0 0 0)
(-2.85523e-08 -1.73325e-07 0 -2.76173e-10 1.45561e-09 0 0 0 0)
(1.09066e-08 4.11157e-08 0 1.10453e-10 -3.59364e-10 0 0 0 0)
(-2.86032e-09 -9.75308e-09 0 -3.19026e-11 1.00383e-10 0 0 0 0)
(7.75963e-10 2.31135e-09 0 1.03541e-11 -2.10331e-11 0 0 0 0)
(-2.46439e-10 -5.52248e-10 0 -3.82181e-12 8.18326e-12 0 0 0 0)
(6.24772e-11 1.27054e-10 0 -2.71051e-14 -2.224e-13 0 0 0 0)
(-1.98138e-11 -3.42971e-11 0 -1.40946e-12 1.38965e-12 0 0 0 0)
(4.66207e-12 4.38022e-12 0 -9.75782e-13 6.07076e-13 0 0 0 0)
(-2.03288e-12 -4.84489e-12 0 -9.48677e-13 5.64287e-13 0 0 0 0)
(8.13152e-14 -2.81418e-12 0 -7.04731e-13 3.86466e-13 0 0 0 0)
(-2.98156e-13 -2.74559e-12 0 -5.42101e-13 2.72473e-13 0 0 0 0)
(-3.52366e-13 -1.09378e-12 0 -4.33681e-13 1.70497e-13 0 0 0 0)
(-3.25261e-13 3.22782e-13 0 -2.1684e-13 9.49294e-14 0 0 0 0)
(2.43945e-13 -2.83506e-12 0 -8.13152e-14 3.10491e-14 0 0 0 0)
(2.43945e-13 -7.76165e-12 0 1.6263e-13 -8.27715e-14 0 0 0 0)
(5.42101e-14 2.1415e-13 0 2.71051e-14 -1.49866e-13 0 0 0 0)
(1.39637e-06 1.06475e-05 0 9.91389e-08 -3.52437e-07 0 0 0 0)
(-1.59029e-06 -1.31757e-05 0 -2.41254e-08 9.48051e-08 0 0 0 0)
(3.19206e-07 3.12765e-06 0 9.50108e-09 -2.24506e-08 0 0 0 0)
(-1.4469e-07 -7.41695e-07 0 -2.44078e-09 5.9926e-09 0 0 0 0)
(2.79424e-08 1.76094e-07 0 8.22042e-10 -1.46908e-09 0 0 0 0)
(-1.07501e-08 -4.1805e-08 0 -2.41018e-10 3.80372e-10 0 0 0 0)
(2.7945e-09 9.92158e-09 0 6.84132e-11 -9.14272e-11 0 0 0 0)
(-7.68401e-10 -2.36276e-09 0 -2.27411e-11 2.73513e-11 0 0 0 0)
(2.366e-10 5.56508e-10 0 4.60786e-12 -3.9417e-12 0 0 0 0)
(-6.42932e-11 -1.37245e-10 0 -3.25261e-12 2.97524e-12 0 0 0 0)
(1.73201e-11 2.80043e-11 0 -8.13152e-13 4.78805e-13 0 0 0 0)
(-5.85469e-12 -1.08067e-11 0 -1.32815e-12 6.28034e-13 0 0 0 0)
(1.11131e-12 -1.4699e-12 0 -9.48677e-13 2.72493e-13 0 0 0 0)
(-5.42101e-13 -3.78881e-12 0 -8.13152e-13 1.60794e-13 0 0 0 0)
(5.42101e-14 -2.64444e-12 0 -5.69206e-13 4.71361e-14 0 0 0 0)
(-5.42101e-14 -1.22341e-12 0 -3.52366e-13 -6.59243e-15 0 0 0 0)
(-8.13152e-14 2.56546e-13 0 -1.89735e-13 -7.39241e-14 0 0 0 0)
(5.42101e-14 -2.921e-12 0 5.42101e-14 -1.67462e-13 0 0 0 0)
(2.1684e-13 -7.78344e-12 0 2.43945e-13 -1.40664e-13 0 0 0 0)
(8.13152e-14 3.44004e-13 0 5.42101e-14 -5.22496e-14 0 0 0 0)
(-1.33746e-06 -1.07795e-05 0 -1.76644e-07 3.59926e-07 0 0 0 0)
(1.52094e-06 1.33447e-05 0 3.85803e-08 -9.54032e-08 0 0 0 0)
(-3.03142e-07 -3.17283e-06 0 -1.63359e-08 2.26083e-08 0 0 0 0)
(1.37979e-07 7.52357e-07 0 3.61733e-09 -5.91955e-09 0 0 0 0)
(-2.63526e-08 -1.78937e-07 0 -1.3121e-09 1.47259e-09 0 0 0 0)
(1.0153e-08 4.24933e-08 0 3.55618e-10 -3.56754e-10 0 0 0 0)
(-2.64204e-09 -1.01061e-08 0 -1.04517e-10 9.89962e-11 0 0 0 0)
(7.12158e-10 2.39884e-09 0 2.89482e-11 -1.96657e-11 0 0 0 0)
(-2.26978e-10 -5.76624e-10 0 -1.08962e-11 7.96089e-12 0 0 0 0)
(5.70019e-11 1.31475e-10 0 4.60786e-13 -3.09768e-13 0 0 0 0)
(-1.78893e-11 -3.66443e-11 0 -2.52077e-12 9.70947e-13 0 0 0 0)
(4.49944e-12 4.1739e-12 0 -1.24683e-12 1.38935e-13 0 0 0 0)
(-1.43657e-12 -5.31213e-12 0 -1.19262e-12 2.12466e-14 0 0 0 0)
(4.87891e-13 -3.03954e-12 0 -7.86047e-13 -1.44911e-13 0 0 0 0)
(1.89735e-13 -2.91298e-12 0 -5.69206e-13 -2.00837e-13 0 0 0 0)
(0 -1.21484e-12 0 -3.52366e-13 -2.25455e-13 0 0 0 0)
(2.71051e-14 1.61912e-13 0 -2.43945e-13 -2.8298e-13 0 0 0 0)
(5.96311e-13 -2.9018e-12 0 0 -3.49126e-13 0 0 0 0)
(2.71051e-13 -7.64644e-12 0 2.1684e-13 -1.8707e-13 0 0 0 0)
(-1.89735e-13 4.07064e-13 0 0 5.7312e-14 0 0 0 0)
(1.2583e-06 1.0912e-05 0 2.44021e-07 -3.55272e-07 0 0 0 0)
(-1.42998e-06 -1.3513e-05 0 -5.09976e-08 9.31409e-08 0 0 0 0)
(2.84243e-07 3.21713e-06 0 2.2207e-08 -2.20114e-08 0 0 0 0)
(-1.29667e-07 -7.62831e-07 0 -4.61686e-09 5.74479e-09 0 0 0 0)
(2.46807e-08 1.81657e-07 0 1.70865e-09 -1.39398e-09 0 0 0 0)
(-9.54263e-09 -4.31786e-08 0 -4.62548e-10 3.55839e-10 0 0 0 0)
(2.46781e-09 1.02587e-08 0 1.22488e-10 -8.41437e-11 0 0 0 0)
(-6.74753e-10 -2.4538e-09 0 -4.39915e-11 2.46278e-11 0 0 0 0)
(2.08113e-10 5.75864e-10 0 7.12863e-12 -3.99158e-12 0 0 0 0)
(-5.58364e-11 -1.44235e-10 0 -5.85469e-12 2.06215e-12 0 0 0 0)
(1.56396e-11 2.8453e-11 0 -1.21973e-12 -2.14108e-13 0 0 0 0)
(-4.58075e-12 -1.17564e-11 0 -1.95156e-12 -9.6734e-14 0 0 0 0)
(1.49078e-12 -1.75375e-12 0 -1.16552e-12 -4.21283e-13 0 0 0 0)
(1.0842e-13 -4.0109e-12 0 -8.94467e-13 -4.54826e-13 0 0 0 0)
(5.14996e-13 -2.72499e-12 0 -5.42101e-13 -4.49984e-13 0 0 0 0)
(2.71051e-13 -1.30556e-12 0 -4.06576e-13 -4.1856e-13 0 0 0 0)
(2.71051e-13 1.32876e-13 0 -2.43945e-13 -4.73842e-13 0 0 0 0)
(5.42101e-13 -2.82509e-12 0 2.71051e-14 -5.69522e-13 0 0 0 0)
(2.43945e-13 -7.377e-12 0 1.89735e-13 -2.60837e-13 0 0 0 0)
(-1.6263e-13 4.73762e-13 0 5.42101e-14 1.74892e-13 0 0 0 0)
(-1.14444e-06 -1.10417e-05 0 -3.02913e-07 3.37778e-07 0 0 0 0)
(1.29913e-06 1.36779e-05 0 6.18012e-08 -8.74826e-08 0 0 0 0)
(-2.56761e-07 -3.26023e-06 0 -2.73891e-08 2.0711e-08 0 0 0 0)
(1.1748e-07 7.72974e-07 0 5.46747e-09 -5.31203e-09 0 0 0 0)
(-2.21983e-08 -1.84326e-07 0 -2.0934e-09 1.30891e-09 0 0 0 0)
(8.5669e-09 4.38032e-08 0 5.3565e-10 -3.14676e-10 0 0 0 0)
(-2.22348e-09 -1.04373e-08 0 -1.5908e-10 8.43796e-11 0 0 0 0)
(5.96799e-10 2.47899e-09 0 4.13894e-11 -1.80844e-11 0 0 0 0)
(-1.88868e-10 -5.9919e-10 0 -1.70762e-11 5.50788e-12 0 0 0 0)
(4.85994e-11 1.35252e-10 0 8.13152e-14 -1.3982e-12 0 0 0 0)
(-1.39591e-11 -3.88032e-11 0 -3.79471e-12 -2.64299e-13 0 0 0 0)
(4.63496e-12 3.96673e-12 0 -1.6263e-12 -8.57774e-13 0 0 0 0)
(-4.06576e-13 -5.67022e-12 0 -1.46367e-12 -8.5767e-13 0 0 0 0)
(1.11131e-12 -3.06824e-12 0 -9.21572e-13 -8.28724e-13 0 0 0 0)
(6.50521e-13 -2.87671e-12 0 -6.50521e-13 -7.19472e-13 0 0 0 0)
(3.52366e-13 -1.2387e-12 0 -4.06576e-13 -6.34637e-13 0 0 0 0)
(4.60786e-13 1.09505e-14 0 -2.1684e-13 -6.84069e-13 0 0 0 0)
(1.00289e-12 -2.68879e-12 0 5.42101e-14 -7.66242e-13 0 0 0 0)
(2.71051e-13 -6.90202e-12 0 2.98156e-13 -3.34984e-13 0 0 0 0)
(-4.33681e-13 4.93009e-13 0 5.42101e-14 3.23227e-13 0 0 0 0)
(1.01719e-06 1.11623e-05 0 3.49185e-07 -3.09498e-07 0 0 0 0)
(-1.15446e-06 -1.38301e-05 0 -7.01303e-08 7.93825e-08 0 0 0 0)
(2.27909e-07 3.2993e-06 0 3.1337e-08 -1.87772e-08 0 0 0 0)
(-1.04371e-07 -7.82233e-07 0 -6.13976e-09 4.79405e-09 0 0 0 0)
(1.97489e-08 1.86655e-07 0 2.33404e-09 -1.15961e-09 0 0 0 0)
(-7.60828e-09 -4.44032e-08 0 -6.19676e-10 2.89518e-10 0 0 0 0)
(1.97355e-09 1.05553e-08 0 1.58266e-10 -7.01175e-11 0 0 0 0)
(-5.32696e-10 -2.53267e-09 0 -5.97395e-11 1.76195e-11 0 0 0 0)
(1.66805e-10 5.9255e-10 0 7.94178e-12 -5.17592e-12 0 0 0 0)
(-4.25278e-11 -1.50007e-10 0 -8.32125e-12 -2.27292e-13 0 0 0 0)
(1.38778e-11 2.89934e-11 0 -2.03288e-12 -1.75305e-12 0 0 0 0)
(-2.27682e-12 -1.23498e-11 0 -2.62919e-12 -1.469e-12 0 0 0 0)
(2.22261e-12 -1.7247e-12 0 -1.54499e-12 -1.47078e-12 0 0 0 0)
(8.94467e-13 -3.8727e-12 0 -1.16552e-12 -1.27447e-12 0 0 0 0)
(1.00289e-12 -2.5309e-12 0 -7.04731e-13 -1.06963e-12 0 0 0 0)
(7.31836e-13 -1.27015e-12 0 -4.33681e-13 -9.17431e-13 0 0 0 0)
(7.58942e-13 1.2711e-15 0 -2.71051e-13 -9.31804e-13 0 0 0 0)
(1.00289e-12 -2.476e-12 0 -8.13152e-14 -1.01608e-12 0 0 0 0)
(2.98156e-13 -6.28753e-12 0 1.6263e-13 -4.19541e-13 0 0 0 0)
(-5.14996e-13 4.85519e-13 0 8.13152e-14 4.59916e-13 0 0 0 0)
(-8.65387e-07 -1.12718e-05 0 -3.88031e-07 2.71302e-07 0 0 0 0)
(9.81279e-07 1.39687e-05 0 7.71924e-08 -6.8868e-08 0 0 0 0)
(-1.9277e-07 -3.33482e-06 0 -3.47433e-08 1.63188e-08 0 0 0 0)
(8.84774e-08 7.90592e-07 0 6.68961e-09 -4.0931e-09 0 0 0 0)
(-1.66782e-08 -1.88831e-07 0 -2.60493e-09 1.00129e-09 0 0 0 0)
(6.3911e-09 4.48927e-08 0 6.52717e-10 -2.40885e-10 0 0 0 0)
(-1.6636e-09 -1.07092e-08 0 -1.95319e-10 5.88418e-11 0 0 0 0)
(4.46447e-10 2.54393e-09 0 4.8518e-11 -1.69784e-11 0 0 0 0)
(-1.37423e-10 -6.17037e-10 0 -2.14401e-11 6.02326e-13 0 0 0 0)
(3.86518e-11 1.38675e-10 0 -2.98156e-13 -3.90335e-12 0 0 0 0)
(-8.26704e-12 -4.00449e-11 0 -4.63496e-12 -2.6251e-12 0 0 0 0)
(5.14996e-12 4.24901e-12 0 -2.03288e-12 -2.62254e-12 0 0 0 0)
(1.0842e-12 -5.47568e-12 0 -1.78893e-12 -2.25849e-12 0 0 0 0)
(1.89735e-12 -2.6671e-12 0 -1.0571e-12 -1.86792e-12 0 0 0 0)
(1.32815e-12 -2.51968e-12 0 -7.31836e-13 -1.4898e-12 0 0 0 0)
(8.40257e-13 -1.10088e-12 0 -4.87891e-13 -1.2333e-12 0 0 0 0)
(8.94467e-13 -8.76969e-14 0 -2.1684e-13 -1.1804e-12 0 0 0 0)
(1.40946e-12 -2.17653e-12 0 0 -1.22638e-12 0 0 0 0)
(3.79471e-13 -5.42603e-12 0 1.89735e-13 -5.08416e-13 0 0 0 0)
(-6.77626e-13 4.52634e-13 0 2.71051e-14 5.52349e-13 0 0 0 0)
(7.06355e-07 1.13647e-05 0 4.13806e-07 -2.25101e-07 0 0 0 0)
(-8.01168e-07 -1.40851e-05 0 -8.16721e-08 5.65379e-08 0 0 0 0)
(1.57407e-07 3.36408e-06 0 3.69033e-08 -1.348e-08 0 0 0 0)
(-7.22326e-08 -7.9755e-07 0 -7.07748e-09 3.36648e-09 0 0 0 0)
(1.3712e-08 1.90507e-07 0 2.69595e-09 -8.23203e-10 0 0 0 0)
(-5.19864e-09 -4.53456e-08 0 -7.16658e-10 1.99659e-10 0 0 0 0)
(1.36935e-09 1.07792e-08 0 1.76562e-10 -5.56023e-11 0 0 0 0)
(-3.58762e-10 -2.59091e-09 0 -6.88739e-11 7.03246e-12 0 0 0 0)
(1.17907e-10 6.05625e-10 0 8.5652e-12 -8.58927e-12 0 0 0 0)
(-2.56685e-11 -1.53235e-10 0 -9.1073e-12 -3.89864e-12 0 0 0 0)
(1.21702e-11 3.02742e-11 0 -1.81604e-12 -4.24672e-12 0 0 0 0)
(5.14996e-13 -1.19832e-11 0 -2.46656e-12 -3.30549e-12 0 0 0 0)
(3.1984e-12 -9.7008e-13 0 -1.27394e-12 -2.84751e-12 0 0 0 0)
(1.95156e-12 -3.104e-12 0 -8.94467e-13 -2.22505e-12 0 0 0 0)
(1.68051e-12 -1.89628e-12 0 -4.87891e-13 -1.73139e-12 0 0 0 0)
(1.16552e-12 -9.60758e-13 0 -2.43945e-13 -1.36829e-12 0 0 0 0)
(1.16552e-12 8.19276e-15 0 -5.42101e-14 -1.32084e-12 0 0 0 0)
(1.46367e-12 -1.80401e-12 0 8.13152e-14 -1.35995e-12 0 0 0 0)
(2.98156e-13 -4.50881e-12 0 1.35525e-13 -5.2931e-13 0 0 0 0)
(-7.04731e-13 4.41585e-13 0 -2.71051e-14 6.16618e-13 0 0 0 0)
(-5.33253e-07 -1.14404e-05 0 -4.21104e-07 1.7364e-07 0 0 0 0)
(6.04376e-07 1.41803e-05 0 8.18985e-08 -4.34629e-08 0 0 0 0)
(-1.18176e-07 -3.38799e-06 0 -3.774e-08 1.02033e-08 0 0 0 0)
(5.42701e-08 8.03249e-07 0 7.19452e-09 -2.32876e-09 0 0 0 0)
(-1.03174e-08 -1.91997e-07 0 -2.83299e-09 5.51262e-10 0 0 0 0)
(3.87174e-09 4.56603e-08 0 7.08689e-10 -1.27917e-10 0 0 0 0)
(-1.01579e-09 -1.09018e-08 0 -2.17193e-10 1.47185e-11 0 0 0 0)
(2.78423e-10 2.59095e-09 0 5.31259e-11 -1.43212e-11 0 0 0 0)
(-7.76289e-11 -6.27968e-10 0 -2.32832e-11 -6.5058e-12 0 0 0 0)
(2.82164e-11 1.43018e-10 0 8.13152e-13 -6.09634e-12 0 0 0 0)
(-1.65341e-12 -3.94517e-11 0 -4.3097e-12 -4.79129e-12 0 0 0 0)
(5.69206e-12 5.64821e-12 0 -1.49078e-12 -3.89816e-12 0 0 0 0)
(2.62919e-12 -4.39525e-12 0 -1.46367e-12 -3.21984e-12 0 0 0 0)
(2.73761e-12 -1.55097e-12 0 -7.86047e-13 -2.53415e-12 0 0 0 0)
(1.95156e-12 -1.66292e-12 0 -5.14996e-13 -1.96477e-12 0 0 0 0)
(1.30104e-12 -6.90326e-13 0 -2.98156e-13 -1.5454e-12 0 0 0 0)
(1.19262e-12 -7.93529e-14 0 -2.43945e-13 -1.47349e-12 0 0 0 0)
(1.5992e-12 -1.385e-12 0 5.42101e-14 -1.41157e-12 0 0 0 0)
(2.98156e-13 -3.44946e-12 0 1.89735e-13 -4.02379e-13 0 0 0 0)
(-7.86047e-13 3.65325e-13 0 2.71051e-14 6.98535e-13 0 0 0 0)
(3.67149e-07 1.14949e-05 0 4.4762e-07 -1.26543e-07 0 0 0 0)
(-4.17803e-07 -1.42485e-05 0 -7.73283e-08 4.19711e-08 0 0 0 0)
(8.27025e-08 3.40521e-06 0 3.48496e-08 -1.06779e-08 0 0 0 0)
(-3.73256e-08 -8.07202e-07 0 -5.68813e-09 2.99758e-09 0 0 0 0)
(7.22615e-09 1.92708e-07 0 2.08918e-09 -9.09007e-10 0 0 0 0)
(-2.58287e-09 -4.58822e-08 0 -5.43402e-10 2.02018e-10 0 0 0 0)
(7.13785e-10 1.08928e-08 0 1.10236e-10 -8.37571e-11 0 0 0 0)
(-1.64826e-10 -2.61213e-09 0 -4.63225e-11 4.40626e-12 0 0 0 0)
(6.56213e-11 6.1385e-10 0 4.22839e-12 -1.48142e-11 0 0 0 0)
(-6.74916e-12 -1.5152e-10 0 -5.96311e-12 -6.39931e-12 0 0 0 0)
(9.81203e-12 3.24724e-11 0 -1.81604e-12 -6.42135e-12 0 0 0 0)
(3.41524e-12 -1.04117e-11 0 -2.05998e-12 -4.76913e-12 0 0 0 0)
(3.95734e-12 3.93922e-13 0 -1.30104e-12 -3.9798e-12 0 0 0 0)
(2.84603e-12 -1.84894e-12 0 -1.11131e-12 -3.08707e-12 0 0 0 0)
(2.22261e-12 -9.07522e-13 0 -8.40257e-13 -2.38252e-12 0 0 0 0)
(1.38236e-12 -4.69473e-13 0 -8.13152e-13 -1.88354e-12 0 0 0 0)
(1.54499e-12 1.42027e-13 0 -5.42101e-13 -1.7341e-12 0 0 0 0)
(1.89735e-12 -7.32903e-13 0 -1.35525e-13 -1.63385e-12 0 0 0 0)
(2.98156e-13 -2.3987e-12 0 2.71051e-13 -5.1427e-13 0 0 0 0)
(-9.48677e-13 1.45429e-13 0 1.35525e-13 8.99759e-13 0 0 0 0)
(-1.62961e-07 -1.15249e-05 0 -2.4266e-07 5.40943e-08 0 0 0 0)
(1.91605e-07 1.42961e-05 0 3.84718e-08 -2.40743e-08 0 0 0 0)
(-4.65355e-08 -3.42696e-06 0 -1.64617e-08 6.45989e-09 0 0 0 0)
(2.15097e-08 8.13018e-07 0 2.30482e-09 -2.32788e-09 0 0 0 0)
(-5.17267e-09 -1.94793e-07 0 -6.45805e-10 6.44461e-10 0 0 0 0)
(1.89275e-09 4.64855e-08 0 2.51345e-10 -2.4252e-10 0 0 0 0)
(-5.18682e-10 -1.10994e-08 0 4.42626e-11 4.11119e-11 0 0 0 0)
(1.72388e-10 2.65989e-09 0 5.62701e-11 -3.58334e-11 0 0 0 0)
(-3.72152e-11 -6.38773e-10 0 3.67273e-11 -6.64599e-12 0 0 0 0)
(2.2199e-11 1.5141e-10 0 2.78911e-11 -1.09101e-11 0 0 0 0)
(2.30393e-12 -3.78216e-11 0 2.12775e-11 -6.53622e-12 0 0 0 0)
(6.17995e-12 8.08976e-12 0 1.57751e-11 -5.56095e-12 0 0 0 0)
(3.55076e-12 -2.71319e-12 0 1.16823e-11 -4.21423e-12 0 0 0 0)
(3.25261e-12 4.63145e-14 0 8.29415e-12 -3.24168e-12 0 0 0 0)
(2.22261e-12 -4.59387e-13 0 5.58364e-12 -2.41161e-12 0 0 0 0)
(1.5992e-12 -4.19057e-14 0 3.87602e-12 -1.87477e-12 0 0 0 0)
(1.89735e-12 1.70338e-13 0 2.57498e-12 -1.90023e-12 0 0 0 0)
(2.41235e-12 -1.65173e-13 0 4.33681e-13 -2.18714e-12 0 0 0 0)
(4.87891e-13 -9.15849e-13 0 -1.70762e-12 -1.00215e-12 0 0 0 0)
(-1.16552e-12 -2.01634e-14 0 -4.33681e-13 1.12742e-12 0 0 0 0)
)
;

boundaryField
{
    movingWall
    {
        type            extrapolatedCalculated;
        value           nonuniform List<tensor> 
20
(
(-1.62961e-07 -1.15249e-05 0 8.60859e-07 6.06338e-05 0 0 0 0)
(1.91605e-07 1.42961e-05 0 -2.09015e-07 -1.45341e-05 0 0 0 0)
(-4.65355e-08 -3.42696e-06 0 9.44381e-08 3.44929e-06 0 0 0 0)
(2.15097e-08 8.13018e-07 0 -2.28733e-08 -8.26291e-07 0 0 0 0)
(-5.17267e-09 -1.94793e-07 0 8.39933e-09 1.97218e-07 0 0 0 0)
(1.89275e-09 4.64855e-08 0 -2.18261e-09 -4.71186e-08 0 0 0 0)
(-5.18682e-10 -1.10994e-08 0 8.28315e-10 1.12756e-08 0 0 0 0)
(1.72388e-10 2.65989e-09 0 -1.07825e-10 -2.72084e-09 0 0 0 0)
(-3.72152e-11 -6.38773e-10 0 1.38645e-10 6.36065e-10 0 0 0 0)
(2.2199e-11 1.5141e-10 0 4.12115e-11 -1.65746e-10 0 0 0 0)
(2.30393e-12 -3.78216e-11 0 4.98268e-11 3.04229e-11 0 0 0 0)
(6.17995e-12 8.08976e-12 0 3.18856e-11 -1.44599e-11 0 0 0 0)
(3.55076e-12 -2.71319e-12 0 2.51354e-11 -1.93614e-12 0 0 0 0)
(3.25261e-12 4.63145e-14 0 1.76748e-11 -3.60716e-12 0 0 0 0)
(2.22261e-12 -4.59387e-13 0 1.22569e-11 -2.1214e-12 0 0 0 0)
(1.5992e-12 -4.19057e-14 0 8.70415e-12 -1.76961e-12 0 0 0 0)
(1.89735e-12 1.70338e-13 0 5.86198e-12 -1.95377e-12 0 0 0 0)
(2.41235e-12 -1.65173e-13 0 1.06581e-12 -2.45097e-12 0 0 0 0)
(4.87891e-13 -9.15849e-13 0 -3.68594e-12 -1.29308e-12 0 0 0 0)
(-1.16552e-12 -2.01634e-14 0 -1.06581e-12 1.21243e-12 0 0 0 0)
)
;
    }
    fixedWalls
    {
        type            extrapolatedCalculated;
        value           nonuniform List<tensor> 
60
(
(4.45887e-07 5.25507e-05 0 -3.13491e-07 -2.35714e-09 0 0 0 0)
(-1.69985e-06 -5.25601e-05 0 5.86265e-07 9.30163e-09 0 0 0 0)
(2.79095e-06 5.25879e-05 0 -5.46691e-07 -2.92392e-08 0 0 0 0)
(-3.88661e-06 -5.2677e-05 0 5.20071e-07 6.46072e-08 0 0 0 0)
(4.87123e-06 5.28463e-05 0 -4.48927e-07 -1.09159e-07 0 0 0 0)
(-5.68232e-06 -5.31137e-05 0 3.67422e-07 1.59616e-07 0 0 0 0)
(6.34092e-06 5.34848e-05 0 -2.70472e-07 -2.10901e-07 0 0 0 0)
(-6.76421e-06 -5.39573e-05 0 1.74856e-07 2.58761e-07 0 0 0 0)
(7.04034e-06 5.45198e-05 0 -7.79325e-08 -3.00286e-07 0 0 0 0)
(-7.07594e-06 -5.51584e-05 0 -1.35191e-08 3.31769e-07 0 0 0 0)
(6.98626e-06 5.58469e-05 0 9.91389e-08 -3.52437e-07 0 0 0 0)
(-6.67939e-06 -5.65682e-05 0 -1.76644e-07 3.59926e-07 0 0 0 0)
(6.27969e-06 5.72866e-05 0 2.44021e-07 -3.55272e-07 0 0 0 0)
(-5.7033e-06 -5.79893e-05 0 -3.02913e-07 3.37778e-07 0 0 0 0)
(5.06804e-06 5.86377e-05 0 3.49185e-07 -3.09498e-07 0 0 0 0)
(-4.30657e-06 -5.92273e-05 0 -3.88031e-07 2.71302e-07 0 0 0 0)
(3.51592e-06 5.97229e-05 0 4.13806e-07 -2.25101e-07 0 0 0 0)
(-2.65134e-06 -6.01277e-05 0 -4.21104e-07 1.7364e-07 0 0 0 0)
(1.8315e-06 6.04175e-05 0 4.4762e-07 -1.26543e-07 0 0 0 0)
(-8.60859e-07 -6.06338e-05 0 -2.4266e-07 5.40943e-08 0 0 0 0)
(5.32907e-13 7.63261e-13 0 -2.71051e-13 -7.28186e-13 0 0 0 0)
(5.32907e-13 2.14948e-12 0 0 -6.76142e-13 0 0 0 0)
(5.32907e-13 3.46783e-12 0 5.42101e-14 -6.41332e-13 0 0 0 0)
(3.55271e-13 4.71481e-12 0 2.71051e-14 -6.11895e-13 0 0 0 0)
(3.55271e-13 5.91541e-12 0 0 -5.71182e-13 0 0 0 0)
(2.66454e-13 6.99954e-12 0 5.42101e-14 -5.00596e-13 0 0 0 0)
(1.77636e-13 7.91779e-12 0 5.42101e-14 -4.20438e-13 0 0 0 0)
(1.77636e-13 8.68129e-12 0 2.71051e-14 -3.26419e-13 0 0 0 0)
(0 9.22347e-12 0 5.42101e-14 -2.31719e-13 0 0 0 0)
(0 9.60817e-12 0 2.71051e-14 -1.49866e-13 0 0 0 0)
(-1.33227e-13 9.82293e-12 0 5.42101e-14 -5.22496e-14 0 0 0 0)
(-1.77636e-13 9.81717e-12 0 0 5.7312e-14 0 0 0 0)
(-1.77636e-13 9.59368e-12 0 5.42101e-14 1.74892e-13 0 0 0 0)
(-3.55271e-13 9.1176e-12 0 5.42101e-14 3.23227e-13 0 0 0 0)
(-4.44089e-13 8.30078e-12 0 8.13152e-14 4.59916e-13 0 0 0 0)
(-6.21725e-13 7.27793e-12 0 2.71051e-14 5.52349e-13 0 0 0 0)
(-5.77316e-13 6.09138e-12 0 -2.71051e-14 6.16618e-13 0 0 0 0)
(-4.88498e-13 4.81146e-12 0 2.71051e-14 6.98535e-13 0 0 0 0)
(-7.10543e-13 3.29724e-12 0 1.35525e-13 8.99759e-13 0 0 0 0)
(-1.06581e-12 1.21243e-12 0 -4.33681e-13 1.12742e-12 0 0 0 0)
(9.564e-08 1.00482e-05 0 4.45887e-07 5.25507e-05 0 0 0 0)
(-1.04754e-07 -1.2405e-05 0 -6.33273e-08 -1.23578e-05 0 0 0 0)
(1.54198e-08 2.91725e-06 0 2.68713e-08 2.93077e-06 0 0 0 0)
(-6.38633e-09 -6.92052e-07 0 -1.64784e-09 -6.88825e-07 0 0 0 0)
(4.39725e-10 1.62648e-07 0 1.32605e-09 1.6256e-07 0 0 0 0)
(-2.90729e-10 -3.83875e-08 0 1.10933e-10 -3.82341e-08 0 0 0 0)
(-1.13841e-12 9.03655e-09 0 1.63114e-10 9.00988e-09 0 0 0 0)
(-2.1928e-11 -2.12592e-09 0 1.06493e-10 -2.0879e-09 0 0 0 0)