/*--------------------------------*- C++ -*----------------------------------*\
| =========                 |                                                 |
| \\      /  F ield         | OpenFOAM: The Open Source CFD Toolbox           |
|  \\    /   O peration     | Version:  2506                                  |
|   \\  /    A nd           | Website:  www.openfoam.com                      |
|    \\/     M anipulation  |                                                 |
\*---------------------------------------------------------------------------*/
FoamFile
{
    version     2.0;
    format      ascii;
    arch        "LSB;label=32;scalar=64";
    class       volVectorField;
    location    "3.75";
    object      gradPhi;
}
// * * * * * * * * * * * * * * * * * * * * * * * * * * * * * * * * * * * * * //

dimensions      [0 2 -1 0 0 0 0];

internalField   nonuniform List<vector> 
400
(
(-0.02 -2.23899e-12 0)
(-2.02087e-12 2.02089e-12 0)
(-6.85567e-14 6.85724e-14 0)
(-1.51839e-13 1.51853e-13 0)
(1.31472e-14 -1.31359e-14 0)
(-9.26442e-15 9.27492e-15 0)
(1.58488e-15 -1.57773e-15 0)
(-1.45915e-15 1.4655e-15 0)
(-4.46678e-16 4.52188e-16 0)
(-4.91345e-16 4.96986e-16 0)
(-2.97785e-16 3.0411e-16 0)
(-2.38228e-16 2.42739e-16 0)
(-1.8198e-16 1.85677e-16 0)
(-1.40621e-16 1.44928e-16 0)
(-1.05879e-16 1.09992e-16 0)
(-8.43724e-17 8.66226e-17 0)
(-8.43724e-17 8.74649e-17 0)
(-9.09899e-17 9.41977e-17 0)
(-3.97047e-17 4.43169e-17 0)
(3.97047e-17 -3.81166e-17 0)
(-0.02 6.63356e-12 0)
(6.30073e-12 -6.30072e-12 0)
(-7.95367e-14 7.9549e-14 0)
(4.88579e-13 -4.88568e-13 0)
(-8.99145e-14 8.99253e-14 0)
(2.93732e-14 -2.93652e-14 0)
(-1.49422e-14 1.49487e-14 0)
(2.03486e-15 -2.02771e-15 0)
(-1.52532e-15 1.53041e-15 0)
(-5.9557e-17 6.46628e-17 0)
(-3.52379e-16 3.58564e-16 0)
(-1.86943e-16 1.9169e-16 0)
(-1.77017e-16 1.82041e-16 0)
(-1.2904e-16 1.3289e-16 0)
(-1.0257e-16 1.06673e-16 0)
(-8.43724e-17 8.79589e-17 0)
(-7.94093e-17 8.43391e-17 0)
(-8.43724e-17 8.69376e-17 0)
(-3.47416e-17 3.7545e-17 0)
(3.30872e-17 -3.07241e-17 0)
(-0.02 -1.14842e-11 0)
(-1.10515e-11 1.10515e-11 0)
(3.06808e-13 -3.06802e-13 0)
(-8.62769e-13 8.62777e-13 0)
(1.61505e-13 -1.61497e-13 0)
(-5.80863e-14 5.80936e-14 0)
(2.52671e-14 -2.52611e-14 0)
(-5.40976e-15 5.41525e-15 0)
(1.71557e-15 -1.70986e-15 0)
(-7.94093e-16 7.98368e-16 0)
(-5.12852e-17 5.46206e-17 0)
(-2.18376e-16 2.2347e-16 0)
(-1.32349e-16 1.35327e-16 0)
(-1.20768e-16 1.24785e-16 0)
(-9.09899e-17 9.46699e-17 0)
(-7.44463e-17 7.6332e-17 0)
(-7.27919e-17 7.64149e-17 0)
(-8.43724e-17 8.77767e-17 0)
(-3.47416e-17 3.92441e-17 0)
(3.63959e-17 -3.54663e-17 0)
(-0.02 1.68009e-11 0)
(1.61186e-11 -1.61186e-11 0)
(-3.89349e-13 3.89354e-13 0)
(1.22608e-12 -1.22608e-12 0)
(-2.05807e-13 2.05814e-13 0)
(8.07444e-14 -8.07401e-14 0)
(-3.32874e-14 3.32935e-14 0)
(6.87056e-15 -6.86602e-15 0)
(-2.68172e-15 2.68619e-15 0)
(6.07151e-16 -6.03442e-16 0)
(-3.25909e-16 3.28754e-16 0)
(-6.12114e-17 6.62721e-17 0)
(-1.32349e-16 1.3589e-16 0)
(-9.26442e-17 9.40655e-17 0)
(-7.61006e-17 8.11862e-17 0)
(-6.61744e-17 6.87155e-17 0)
(-6.78288e-17 7.00703e-17 0)
(-6.78288e-17 7.08249e-17 0)
(-2.64698e-17 2.88832e-17 0)
(2.81241e-17 -2.66044e-17 0)
(-0.02 -2.19079e-11 0)
(-2.10083e-11 2.10083e-11 0)
(4.6267e-13 -4.62668e-13 0)
(-1.55707e-12 1.55708e-12 0)
(2.5723e-13 -2.57226e-13 0)
(-9.8231e-14 9.82333e-14 0)
(4.20075e-14 -4.20029e-14 0)
(-8.10637e-15 8.11006e-15 0)
(3.26571e-15 -3.26176e-15 0)
(-9.34714e-16 9.38056e-16 0)
(1.57164e-16 -1.54253e-16 0)
(-1.65436e-16 1.68273e-16 0)
(-6.78288e-17 6.97053e-17 0)
(-8.27181e-17 8.55267e-17 0)
(-6.12114e-17 6.4468e-17 0)
(-5.29396e-17 5.40691e-17 0)
(-5.62483e-17 5.71927e-17 0)
(-6.78288e-17 6.88753e-17 0)
(-2.48154e-17 2.95615e-17 0)
(3.30872e-17 -3.33016e-17 0)
(-0.02 2.65565e-11 0)
(2.53996e-11 -2.53996e-11 0)
(-4.67802e-13 4.67801e-13 0)
(1.8461e-12 -1.8461e-12 0)
(-2.93614e-13 2.93617e-13 0)
(1.13842e-13 -1.1384e-13 0)
(-4.76721e-14 4.76746e-14 0)
(9.37857e-15 -9.37878e-15 0)
(-3.68757e-15 3.68961e-15 0)
(9.76073e-16 -9.73653e-16 0)
(-3.15983e-16 3.19001e-16 0)
(2.15067e-17 -1.96449e-17 0)
(-8.76811e-17 8.98907e-17 0)
(-5.12852e-17 5.31133e-17 0)
(-5.29396e-17 5.41696e-17 0)
(-4.79765e-17 4.91568e-17 0)
(-4.46678e-17 4.72656e-17 0)
(-3.97047e-17 4.37945e-17 0)
(-1.8198e-17 1.68953e-17 0)
(2.31611e-17 -2.06733e-17 0)
(-0.02 -3.0458e-11 0)
(-2.90898e-11 2.90898e-11 0)
(4.67997e-13 -4.68e-13 0)
(-2.08041e-12 2.08041e-12 0)
(3.22739e-13 -3.22741e-13 0)
(-1.24231e-13 1.24233e-13 0)
(5.27559e-14 -5.27543e-14 0)
(-9.89473e-15 9.89604e-15 0)
(4.07304e-15 -4.07153e-15 0)
(-1.1018e-15 1.10451e-15 0)
(2.41537e-16 -2.41666e-16 0)
(-1.40621e-16 1.41653e-16 0)
(-2.81241e-17 2.98497e-17 0)
(-5.62483e-17 5.71013e-17 0)
(-3.97047e-17 4.05815e-17 0)
(-2.81241e-17 2.95607e-17 0)
(-3.30872e-17 3.42676e-17 0)
(-4.30134e-17 4.41302e-17 0)
(-1.15805e-17 1.41181e-17 0)
(2.48154e-17 -2.5404e-17 0)
(-0.02 3.34382e-11 0)
(3.19014e-11 -3.19014e-11 0)
(-4.63979e-13 4.63977e-13 0)
(2.25677e-12 -2.25678e-12 0)
(-3.38937e-13 3.38936e-13 0)
(1.31843e-13 -1.31843e-13 0)
(-5.56196e-14 5.56213e-14 0)
(1.031e-14 -1.03106e-14 0)
(-4.30134e-15 4.30088e-15 0)
(1.09022e-15 -1.08753e-15 0)
(-3.35835e-16 3.3483e-16 0)
(5.12852e-17 -5.01575e-17 0)
(-6.61744e-17 6.67427e-17 0)
(-2.81241e-17 2.87372e-17 0)
(-2.97785e-17 3.03609e-17 0)
(-2.81241e-17 2.79887e-17 0)
(-2.48154e-17 2.47783e-17 0)
(-1.8198e-17 1.93218e-17 0)
(-4.96308e-18 4.65968e-18 0)
(1.48893e-17 -1.30272e-17 0)
(-0.02 -3.54566e-11 0)
(-3.38023e-11 3.38023e-11 0)
(4.61229e-13 -4.61234e-13 0)
(-2.37458e-12 2.37458e-12 0)
(3.45728e-13 -3.45731e-13 0)
(-1.36271e-13 1.3627e-13 0)
(5.69878e-14 -5.69895e-14 0)
(-1.05317e-14 1.0533e-14 0)
(4.29638e-15 -4.29948e-15 0)
(-1.19445e-15 1.19588e-15 0)
(2.48154e-16 -2.4952e-16 0)
(-1.34003e-16 1.35445e-16 0)
(-1.15805e-17 9.76725e-18 0)
(-3.30872e-17 3.48265e-17 0)
(-2.15067e-17 1.95053e-17 0)
(-1.32349e-17 1.26406e-17 0)
(-1.32349e-17 1.43111e-17 0)
(-1.98523e-17 1.88928e-17 0)
(-3.30872e-18 4.4223e-18 0)
(1.32349e-17 -1.40492e-17 0)
(-0.02 3.64051e-11 0)
(3.46987e-11 -3.46987e-11 0)
(-4.55143e-13 4.55139e-13 0)
(2.42171e-12 -2.42171e-12 0)
(-3.45381e-13 3.4538e-13 0)
(1.36243e-13 -1.36246e-13 0)
(-5.74345e-14 5.74325e-14 0)
(1.01528e-14 -1.01542e-14 0)
(-4.44858e-15 4.44512e-15 0)
(1.05879e-15 -1.05871e-15 0)
(-3.44107e-16 3.40714e-16 0)
(6.12114e-17 -6.06152e-17 0)
(-5.29396e-17 5.02401e-17 0)
(-1.15805e-17 1.16647e-17 0)
(-1.65436e-17 1.55473e-17 0)
(-1.32349e-17 1.21322e-17 0)
(-4.96308e-18 5.7e-18 0)
(4.96308e-18 -5.06149e-18 0)
(3.30872e-18 -7.3169e-18 0)
(6.61744e-18 -5.23053e-18 0)
(-0.02 -3.63788e-11 0)
(-3.4663e-11 3.4663e-11 0)
(4.43819e-13 -4.43821e-13 0)
(-2.41014e-12 2.41013e-12 0)
(3.36295e-13 -3.36299e-13 0)
(-1.3445e-13 1.34446e-13 0)
(5.57685e-14 -5.57723e-14 0)
(-1.0133e-14 1.01313e-14 0)
(4.11109e-15 -4.11518e-15 0)
(-1.16136e-15 1.1596e-15 0)
(2.38228e-16 -2.39321e-16 0)
(-1.20768e-16 1.18325e-16 0)
(8.27181e-18 -9.05426e-18 0)
(-1.65436e-17 1.49846e-17 0)
(-1.65436e-18 3.48686e-19 0)
(3.30872e-18 -3.3223e-18 0)
(1.65436e-18 -4.48071e-18 0)
(-1.65436e-18 -1.29336e-18 0)
(6.61744e-18 -4.2393e-18 0)
(3.30872e-18 -6.00025e-18 0)
(-0.02 3.53413e-11 0)
(3.36799e-11 -3.36799e-11 0)
(-4.25641e-13 4.25637e-13 0)
(2.33036e-12 -2.33037e-12 0)
(-3.23234e-13 3.2323e-13 0)
(1.2788e-13 -1.27884e-13 0)
(-5.39338e-14 5.39286e-14 0)
(9.25615e-15 -9.2598e-15 0)
(-4.1144e-15 4.11172e-15 0)
(9.7111e-16 -9.73632e-16 0)
(-2.97785e-16 2.95605e-16 0)
(7.44463e-17 -7.63216e-17 0)
(-2.64698e-17 2.21793e-17 0)
(1.15805e-17 -1.3745e-17 0)
(6.61744e-18 -8.72484e-18 0)
(6.61744e-18 -9.27829e-18 0)
(1.15805e-17 -1.37829e-17 0)
(2.31611e-17 -2.43215e-17 0)
(8.27181e-18 -1.2043e-17 0)
(-8.27181e-18 6.65695e-18 0)
(-0.02 -3.34594e-11 0)
(-3.18844e-11 3.18844e-11 0)
(3.98767e-13 -3.98773e-13 0)
(-2.20032e-12 2.20032e-12 0)
(3.02867e-13 -3.02872e-13 0)
(-1.20333e-13 1.2033e-13 0)
(5.00312e-14 -5.00367e-14 0)
(-8.89881e-15 8.89383e-15 0)
(3.63629e-15 -3.63881e-15 0)
(-9.92617e-16 9.89214e-16 0)
(2.34919e-16 -2.40271e-16 0)
(-7.44463e-17 7.09393e-17 0)
(3.80503e-17 -4.14291e-17 0)
(1.48893e-17 -1.76516e-17 0)
(2.15067e-17 -2.43468e-17 0)
(2.15067e-17 -2.31718e-17 0)
(2.15067e-17 -2.48515e-17 0)
(1.8198e-17 -2.35333e-17 0)
(1.15805e-17 -1.09657e-17 0)
(-6.61744e-18 4.71006e-18 0)
(-0.02 3.07599e-11 0)
(2.93197e-11 -2.93197e-11 0)
(-3.63516e-13 3.6351e-13 0)
(2.01533e-12 -2.01534e-12 0)
(-2.79769e-13 2.79765e-13 0)
(1.08844e-13 -1.08851e-13 0)
(-4.60922e-14 4.60877e-14 0)
(7.84498e-15 -7.85065e-15 0)
(-3.37986e-15 3.37533e-15 0)
(8.6854e-16 -8.7368e-16 0)
(-1.95215e-16 1.92306e-16 0)
(1.07533e-16 -1.12113e-16 0)
(2.15067e-17 -2.61057e-17 0)
(4.46678e-17 -4.78451e-17 0)
(3.30872e-17 -3.58855e-17 0)
(2.81241e-17 -3.07599e-17 0)
(2.97785e-17 -3.34596e-17 0)
(3.97047e-17 -4.26603e-17 0)
(1.48893e-17 -1.94252e-17 0)
(-1.98523e-17 1.915e-17 0)
(-0.02 -2.74201e-11 0)
(-2.61385e-11 2.61385e-11 0)
(3.19871e-13 -3.19878e-13 0)
(-1.79271e-12 1.7927e-12 0)
(2.5122e-13 -2.51226e-13 0)
(-9.65303e-14 9.65244e-14 0)
(4.07254e-14 -4.07307e-14 0)
(-7.01615e-15 7.01226e-15 0)
(2.96792e-15 -2.97398e-15 0)
(-6.99795e-16 6.9407e-16 0)
(2.66352e-16 -2.69538e-16 0)
(9.92617e-18 -1.48645e-17 0)
(8.60268e-17 -8.92514e-17 0)
(5.45939e-17 -5.9354e-17 0)
(4.96308e-17 -5.40362e-17 0)
(4.30134e-17 -4.684e-17 0)
(4.46678e-17 -4.82808e-17 0)
(4.30134e-17 -4.78463e-17 0)
(1.65436e-17 -1.78807e-17 0)
(-2.48154e-17 2.19117e-17 0)
(-0.02 2.35244e-11 0)
(2.24292e-11 -2.24292e-11 0)
(-2.69707e-13 2.69701e-13 0)
(1.53326e-12 -1.53326e-12 0)
(-2.20222e-13 2.20215e-13 0)
(8.17867e-14 -8.17927e-14 0)
(-3.49186e-14 3.49147e-14 0)
(6.07812e-15 -6.08471e-15 0)
(-2.33761e-15 2.33172e-15 0)
(7.79204e-16 -7.8365e-16 0)
(-3.80503e-17 3.22909e-17 0)
(1.68745e-16 -1.73022e-16 0)
(9.09899e-17 -9.42912e-17 0)
(8.76811e-17 -9.2252e-17 0)
(6.61744e-17 -7.03441e-17 0)
(5.29396e-17 -5.79346e-17 0)
(5.12852e-17 -5.45454e-17 0)
(5.9557e-17 -6.19714e-17 0)
(2.31611e-17 -2.72317e-17 0)
(-3.14329e-17 2.86213e-17 0)
(-0.02 -1.92035e-11 0)
(-1.83146e-11 1.83146e-11 0)
(2.15572e-13 -2.15578e-13 0)
(-1.25162e-12 1.25162e-12 0)
(1.86185e-13 -1.8619e-13 0)
(-6.61811e-14 6.61746e-14 0)
(2.89497e-14 -2.89568e-14 0)
(-4.67688e-15 4.6712e-15 0)
(2.23339e-15 -2.23843e-15 0)
(-3.09366e-16 3.04731e-16 0)
(3.25909e-16 -3.29911e-16 0)
(1.1746e-16 -1.22652e-16 0)
(1.47238e-16 -1.51378e-16 0)
(1.0257e-16 -1.07976e-16 0)
(8.27181e-17 -8.69659e-17 0)
(6.78288e-17 -7.13539e-17 0)
(6.78288e-17 -7.0028e-17 0)
(6.12114e-17 -6.5937e-17 0)
(1.98523e-17 -2.27202e-17 0)
(-3.30872e-17 3.11225e-17 0)
(-0.02 1.46194e-11 0)
(1.39489e-11 -1.39489e-11 0)
(-1.58723e-13 1.58717e-13 0)
(9.42273e-13 -9.42279e-13 0)
(-1.45524e-13 1.45519e-13 0)
(4.87557e-14 -4.87618e-14 0)
(-2.09359e-14 2.09281e-14 0)
(4.02672e-15 -4.03279e-15 0)
(-1.02736e-15 1.02294e-15 0)
(6.94832e-16 -6.9996e-16 0)
(1.58819e-16 -1.63641e-16 0)
(2.33265e-16 -2.38232e-16 0)
(1.57164e-16 -1.62198e-16 0)
(1.32349e-16 -1.35803e-16 0)
(9.92617e-17 -1.03975e-16 0)
(7.44463e-17 -7.89856e-17 0)
(6.78288e-17 -7.29056e-17 0)
(6.78288e-17 -7.14773e-17 0)
(1.98523e-17 -2.33999e-17 0)
(-3.63959e-17 3.35208e-17 0)
(-0.02 -1.02665e-11 0)
(-9.97614e-12 9.97613e-12 0)
(3.11563e-13 -3.11568e-13 0)
(-7.13519e-13 7.13514e-13 0)
(1.31843e-13 -1.31847e-13 0)
(-3.88097e-14 3.88032e-14 0)
(1.79697e-14 -1.79749e-14 0)
(-2.44845e-15 2.44296e-15 0)
(1.6891e-15 -1.69397e-15 0)
(7.44463e-17 -7.94096e-17 0)
(3.82157e-16 -3.87099e-16 0)
(2.10104e-16 -2.15121e-16 0)
(1.96869e-16 -2.01714e-16 0)
(1.45584e-16 -1.49561e-16 0)
(1.09188e-16 -1.14533e-16 0)
(8.60268e-17 -8.85759e-17 0)
(7.94093e-17 -8.26305e-17 0)
(8.10637e-17 -8.49457e-17 0)
(2.64698e-17 -3.00083e-17 0)
(-4.63221e-17 4.33428e-17 0)
(-0.02 4.19481e-12 0)
(4.15277e-12 -4.15277e-12 0)
(-2.46366e-13 2.46363e-13 0)
(3.34495e-13 -3.34498e-13 0)
(-6.63664e-14 6.63626e-14 0)
(2.30568e-14 -2.30593e-14 0)
(-7.2279e-15 7.22717e-15 0)
(2.60231e-15 -2.60621e-15 0)
(-5.9557e-17 5.69066e-17 0)
(6.12114e-16 -6.12428e-16 0)
(2.81241e-16 -2.85576e-16 0)
(2.76278e-16 -2.76063e-16 0)
(1.98523e-16 -2.01889e-16 0)
(1.57164e-16 -1.58436e-16 0)
(1.15805e-16 -1.18691e-16 0)
(9.42986e-17 -9.4955e-17 0)
(9.42986e-17 -9.68394e-17 0)
(1.04225e-16 -1.05704e-16 0)
(4.30134e-17 -4.44152e-17 0)
(-5.9557e-17 5.95613e-17 0)
)
;

boundaryField
{
    movingWall
    {
        type            extrapolatedCalculated;
        value           nonuniform List<vector> 
20
(
(-0.02 4.19481e-12 0)
(4.15277e-12 -4.15277e-12 0)
(-2.46366e-13 2.46363e-13 0)
(3.34495e-13 -3.34498e-13 0)
(-6.63664e-14 6.63626e-14 0)
(2.30568e-14 -2.30593e-14 0)
(-7.2279e-15 7.22717e-15 0)
(2.60231e-15 -2.60621e-15 0)
(-5.9557e-17 5.69066e-17 0)
(6.12114e-16 -6.12428e-16 0)
(2.81241e-16 -2.85576e-16 0)
(2.76278e-16 -2.76063e-16 0)
(1.98523e-16 -2.01889e-16 0)
(1.57164e-16 -1.58436e-16 0)
(1.15805e-16 -1.18691e-16 0)
(9.42986e-17 -9.4955e-17 0)
(9.42986e-17 -9.68394e-17 0)
(1.04225e-16 -1.05704e-16 0)
(4.30134e-17 -4.44152e-17 0)
(-5.9557e-17 5.95613e-17 0)
)
;
    }
    fixedWalls
    {
        type            extrapolatedCalculated;
        value           nonuniform List<vector> 
60
(
(-0.02 -2.23899e-12 0)
(-0.02 6.63356e-12 0)
(-0.02 -1.14842e-11 0)
(-0.02 1.68009e-11 0)
(-0.02 -2.19079e-11 0)
(-0.02 2.65565e-11 0)
(-0.02 -3.0458e-11 0)
(-0.02 3.34382e-11 0)
(-0.02 -3.54566e-11 0)
(-0.02 3.64051e-11 0)
(-0.02 -3.63788e-11 0)
(-0.02 3.53413e-11 0)
(-0.02 -3.34594e-11 0)
(-0.02 3.07599e-11 0)
(-0.02 -2.74201e-11 0)
(-0.02 2.35244e-11 0)
(-0.02 -1.92035e-11 0)
(-0.02 1.46194e-11 0)
(-0.02 -1.02665e-11 0)
(-0.02 4.19481e-12 0)
(3.97047e-17 -3.81166e-17 0)
(3.30872e-17 -3.07241e-17 0)
(3.63959e-17 -3.54663e-17 0)
(2.81241e-17 -2.66044e-17 0)
(3.30872e-17 -3.33016e-17 0)
(2.31611e-17 -2.06733e-17 0)
(2.48154e-17 -2.5404e-17 0)
(1.48893e-17 -1.30272e-17 0)
(1.32349e-17 -1.40492e-17 0)
(6.61744e-18 -5.23053e-18 0)
(3.30872e-18 -6.00025e-18 0)
(-8.27181e-18 6.65695e-18 0)
(-6.61744e-18 4.71006e-18 0)
(-1.98523e-17 1.915e-17 0)
(-2.48154e-17 2.19117e-17 0)
(-3.14329e-17 2.86213e-17 0)
(-3.30872e-17 3.11225e-17 0)
(-3.63959e-17 3.35208e-17 0)
(-4.63221e-17 4.33428e-17 0)
(-5.9557e-17 5.95613e-17 0)
(-0.02 -2.23899e-12 0)
(-2.02087e-12 2.02089e-12 0)
(-6.85567e-14 6.85724e-14 0)
(-1.51839e-13 1.51853e-13 0)
(1.31472e-14 -1.31359e-14 0)
(-9.26442e-15 9.27492e-15 0)
(1.58488e-15 -1.57773e-15 0)
(-1.45915e-15 1.4655e-15 0)
(-4.46678e-16 4.52188e-16 0)
(-4.91345e-16 4.96986e-16 0)
(-2.97785e-16 3.0411e-16 0)
(-2.38228e-16 2.42739e-16 0)
(-1.8198e-16 1.85677e-16 0)
(-1.40621e-16 1.44928e-16 0)
(-1.05879e-16 1.09992e-16 0)
(-8.43724e-17 8.66226e-17 0)
(-8.43724e-17 8.74649e-17 0)
(-9.09899e-17 9.41977e-17 0)
(-3.97047e-17 4.43169e-17 0)
(3.97047e-17 -3.81166e-17 0)
)
;
    }
    frontAndBack
    {
        type            empty;
    }
}


// ************************************************************************* //
