/*--------------------------------*- C++ -*----------------------------------*\
| =========                 |                                                 |
| \\      /  F ield         | OpenFOAM: The Open Source CFD Toolbox           |
|  \\    /   O peration     | Version:  2506                                  |
|   \\  /    A nd           | Website:  www.openfoam.com                      |
|    \\/     M anipulation  |                                                 |
\*---------------------------------------------------------------------------*/
FoamFile
{
    version     2.0;
    format      ascii;
    arch        "LSB;label=32;scalar=64";
    class       volScalarField;
    location    "3.75";
    object      magSqrP;
}
// * * * * * * * * * * * * * * * * * * * * * * * * * * * * * * * * * * * * * //

dimensions      [0 4 -4 0 0 0 0];

internalField   nonuniform List<scalar> 
400
(
0
1.45962e-20
2.69536e-21
2.12992e-21
1.87848e-21
1.86233e-21
1.8872e-21
1.89893e-21
1.91041e-21
1.91773e-21
1.92375e-21
1.92823e-21
1.93167e-21
1.93423e-21
1.93616e-21
1.93754e-21
1.93837e-21
1.93868e-21
1.93862e-21
1.9384e-21
3.46929e-20
0
2.45027e-21
4.04555e-22
2.11804e-21
1.76493e-21
1.91374e-21
1.88704e-21
1.90972e-21
1.91509e-21
1.92266e-21
1.92726e-21
1.93099e-21
1.93365e-21
1.93567e-21
1.9371e-21
1.93794e-21
1.93821e-21
1.93821e-21
1.93803e-21
0
3.21131e-19
9.3391e-22
5.87452e-21
1.37814e-21
1.96023e-21
1.80858e-21
1.8968e-21
1.89809e-21
1.91375e-21
1.91991e-21
1.92577e-21
1.92964e-21
1.93258e-21
1.93468e-21
1.93618e-21
1.93708e-21
1.93739e-21
1.93737e-21
1.9372e-21
9.9588e-20
0
2.17616e-21
0
2.32568e-21
1.62921e-21
1.92675e-21
1.86504e-21
1.90241e-21
1.90764e-21
1.918e-21
1.92348e-21
1.92798e-21
1.93105e-21
1.9333e-21
1.93487e-21
1.9358e-21
1.93611e-21
1.93614e-21
1.93602e-21
0
9.61325e-19
1.31891e-21
1.1017e-20
1.16424e-21
2.04487e-21
1.75716e-21
1.89172e-21
1.88692e-21
1.90809e-21
1.91474e-21
1.92171e-21
1.92601e-21
1.92931e-21
1.93161e-21
1.93322e-21
1.93418e-21
1.93454e-21
1.93457e-21
1.93445e-21
1.31444e-19
0
1.40723e-21
0
2.56083e-21
1.5612e-21
1.95539e-21
1.85625e-21
1.89982e-21
1.90274e-21
1.91407e-21
1.91962e-21
1.92429e-21
1.92744e-21
1.92976e-21
1.93136e-21
1.93227e-21
1.93261e-21
1.93269e-21
1.93265e-21
0
1.66696e-18
2.40116e-21
1.57504e-20
1.07474e-21
2.1247e-21
1.74056e-21
1.89784e-21
1.88537e-21
1.90702e-21
1.91225e-21
1.91876e-21
1.92265e-21
1.92569e-21
1.92782e-21
1.92928e-21
1.93017e-21
1.93054e-21
1.93059e-21
1.93056e-21
1.22426e-19
0
6.45703e-22
0
2.72046e-21
1.55426e-21
1.9927e-21
1.86511e-21
1.90621e-21
1.90439e-21
1.91379e-21
1.91782e-21
1.92154e-21
1.92401e-21
1.92588e-21
1.92718e-21
1.92791e-21
1.92821e-21
1.92832e-21
1.92835e-21
0
2.10513e-18
4.16626e-21
1.87947e-20
1.11334e-21
2.20278e-21
1.75981e-21
1.91682e-21
1.89516e-21
1.91247e-21
1.91412e-21
1.91835e-21
1.92064e-21
1.92262e-21
1.92401e-21
1.92502e-21
1.92562e-21
1.92587e-21
1.92594e-21
1.92598e-21
9.39671e-20
0
2.32184e-22
0
2.80077e-21
1.60198e-21
2.03556e-21
1.8899e-21
1.92147e-21
1.91296e-21
1.91789e-21
1.91881e-21
1.9204e-21
1.92142e-21
1.9223e-21
1.92296e-21
1.92329e-21
1.92341e-21
1.92351e-21
1.9236e-21
0
2.11833e-18
5.81162e-21
1.92063e-20
1.23491e-21
2.26556e-21
1.80707e-21
1.94573e-21
1.91446e-21
1.9238e-21
1.92024e-21
1.92071e-21
1.92042e-21
1.92059e-21
1.92075e-21
1.92097e-21
1.92105e-21
1.92107e-21
1.92112e-21
1.92123e-21
6.38806e-20
0
1.31677e-22
0
2.82694e-21
1.69327e-21
2.07808e-21
1.92547e-21
1.94295e-21
1.92691e-21
1.92566e-21
1.92245e-21
1.92107e-21
1.92e-21
1.91947e-21
1.91919e-21
1.91892e-21
1.91876e-21
1.91884e-21
1.91899e-21
0
1.74869e-18
6.51955e-21
1.70486e-20
1.40813e-21
2.30452e-21
1.8727e-21
1.97979e-21
1.93979e-21
1.93909e-21
1.92957e-21
1.92543e-21
1.92194e-21
1.91981e-21
1.91845e-21
1.91762e-21
1.91703e-21
1.91673e-21
1.91674e-21
1.91689e-21
4.00479e-20
0
2.21316e-22
0
2.80766e-21
1.81302e-21
2.11428e-21
1.9659e-21
1.96714e-21
1.94395e-21
1.93588e-21
1.92813e-21
1.92335e-21
1.91992e-21
1.91776e-21
1.91637e-21
1.9154e-21
1.91488e-21
1.91488e-21
1.91505e-21
0
1.17052e-18
6.11798e-21
1.3214e-20
1.61269e-21
2.31633e-21
1.94663e-21
2.0136e-21
1.96699e-21
1.95581e-21
1.94054e-21
1.93165e-21
1.92489e-21
1.92037e-21
1.91737e-21
1.91539e-21
1.91408e-21
1.91339e-21
1.91327e-21
1.9134e-21
2.33628e-20
0
5.70386e-22
0
2.7438e-21
1.94431e-21
2.1384e-21
2.0047e-21
1.98987e-21
1.96101e-21
1.94656e-21
1.93464e-21
1.92666e-21
1.92099e-21
1.91723e-21
1.91471e-21
1.91304e-21
1.91212e-21
1.91189e-21
1.91202e-21
0
5.91052e-19
4.98968e-21
8.8729e-21
1.83236e-21
2.29898e-21
2.01756e-21
2.0404e-21
1.99089e-21
1.97037e-21
1.95061e-21
1.93773e-21
1.9282e-21
1.92165e-21
1.9172e-21
1.91421e-21
1.9122e-21
1.91109e-21
1.91079e-21
1.91092e-21
1.22813e-20
0
1.3148e-21
2.47381e-22
2.63349e-21
2.06487e-21
2.14393e-21
2.03413e-21
2.00613e-21
1.97421e-21
1.955e-21
1.9401e-21
1.92969e-21
1.92231e-21
1.91732e-21
1.91397e-21
1.91162e-21
1.91028e-21
1.90998e-21
1.91015e-21
2.44049e-22
1.71603e-19
3.85302e-21
4.94304e-21
2.06817e-21
2.24147e-21
2.07678e-21
2.05463e-21
2.00815e-21
1.98048e-21
1.95816e-21
1.94254e-21
1.93114e-21
1.92317e-21
1.91773e-21
1.91397e-21
1.91136e-21
1.90991e-21
1.90963e-21
1.90975e-21
4.62622e-21
0
3.27718e-21
1.30862e-21
2.52442e-21
2.11972e-21
2.14017e-21
2.05096e-21
2.01661e-21
1.98288e-21
1.96084e-21
1.9441e-21
1.93229e-21
1.92389e-21
1.91813e-21
1.91409e-21
1.91135e-21
1.90995e-21
1.90965e-21
1.90964e-21
)
;

boundaryField
{
    movingWall
    {
        type            calculated;
        value           nonuniform List<scalar> 
20
(
4.62622e-21
0
3.27718e-21
1.30862e-21
2.52442e-21
2.11972e-21
2.14017e-21
2.05096e-21
2.01661e-21
1.98288e-21
1.96084e-21
1.9441e-21
1.93229e-21
1.92389e-21
1.91813e-21
1.91409e-21
1.91135e-21
1.90995e-21
1.90965e-21
1.90964e-21
)
;
    }
    fixedWalls
    {
        type            calculated;
        value           nonuniform List<scalar> 
60
(
0
3.46929e-20
0
9.9588e-20
0
1.31444e-19
0
1.22426e-19
0
9.39671e-20
0
6.38806e-20
0
4.00479e-20
0
2.33628e-20
0
1.22813e-20
2.44049e-22
4.62622e-21
1.9384e-21
1.93803e-21
1.9372e-21
1.93602e-21
1.93445e-21
1.93265e-21
1.93056e-21
1.92835e-21
1.92598e-21
1.9236e-21
1.92123e-21
1.91899e-21
1.91689e-21
1.91505e-21
1.9134e-21
1.91202e-21
1.91092e-21
1.91015e-21
1.90975e-21
1.90964e-21
0
1.45962e-20
2.69536e-21
2.12992e-21
1.87848e-21
1.86233e-21
1.8872e-21
1.89893e-21
1.91041e-21
1.91773e-21
1.92375e-21
1.92823e-21
1.93167e-21
1.93423e-21
1.93616e-21
1.93754e-21
1.93837e-21
1.93868e-21
1.93862e-21
1.9384e-21
)
;
    }
    frontAndBack
    {
        type            empty;
    }
}


// ************************************************************************* //
