/*--------------------------------*- C++ -*----------------------------------*\
| =========                 |                                                 |
| \\      /  F ield         | OpenFOAM: The Open Source CFD Toolbox           |
|  \\    /   O peration     | Version:  2506                                  |
|   \\  /    A nd           | Website:  www.openfoam.com                      |
|    \\/     M anipulation  |                                                 |
\*---------------------------------------------------------------------------*/
FoamFile
{
    version     2.0;
    format      ascii;
    arch        "LSB;label=32;scalar=64";
    class       volScalarField;
    location    "3.75";
    object      pzeroGrad;
}
// * * * * * * * * * * * * * * * * * * * * * * * * * * * * * * * * * * * * * //

dimensions      [0 2 -2 0 0 0 0];

internalField   nonuniform List<scalar> 
400
(
0
1.20815e-10
5.19168e-11
4.6151e-11
4.33414e-11
4.31548e-11
4.3442e-11
4.35767e-11
4.37083e-11
4.37919e-11
4.38606e-11
4.39117e-11
4.39507e-11
4.39799e-11
4.40018e-11
4.40175e-11
4.40269e-11
4.40305e-11
4.40298e-11
4.40273e-11
1.8626e-10
0
4.95002e-11
2.01136e-11
4.60221e-11
4.20111e-11
4.37463e-11
4.344e-11
4.37003e-11
4.37617e-11
4.38481e-11
4.39006e-11
4.3943e-11
4.39733e-11
4.39962e-11
4.40125e-11
4.4022e-11
4.40251e-11
4.40251e-11
4.40231e-11
0
5.66685e-10
3.05599e-11
7.66454e-11
3.71232e-11
4.42745e-11
4.25274e-11
4.35523e-11
4.35671e-11
4.37464e-11
4.38168e-11
4.38836e-11
4.39277e-11
4.39611e-11
4.3985e-11
4.4002e-11
4.40123e-11
4.40158e-11
4.40156e-11
4.40137e-11
3.15576e-10
0
4.66494e-11
0
4.82253e-11
4.03635e-11
4.38948e-11
4.31861e-11
4.36166e-11
4.36765e-11
4.3795e-11
4.38575e-11
4.39087e-11
4.39438e-11
4.39693e-11
4.39871e-11
4.39977e-11
4.40013e-11
4.40015e-11
4.40003e-11
0
9.80472e-10
3.63169e-11
1.04962e-10
3.4121e-11
4.52203e-11
4.19184e-11
4.34939e-11
4.34387e-11
4.36817e-11
4.37578e-11
4.38373e-11
4.38864e-11
4.3924e-11
4.39501e-11
4.39685e-11
4.39793e-11
4.39834e-11
4.39837e-11
4.39823e-11
3.62552e-10
0
3.75131e-11
0
5.06046e-11
3.9512e-11
4.42198e-11
4.30842e-11
4.35869e-11
4.36204e-11
4.37501e-11
4.38135e-11
4.38668e-11
4.39026e-11
4.39291e-11
4.39473e-11
4.39576e-11
4.39615e-11
4.39624e-11
4.39619e-11
0
1.29111e-09
4.90016e-11
1.25501e-10
3.27832e-11
4.60944e-11
4.172e-11
4.35642e-11
4.34208e-11
4.36694e-11
4.37292e-11
4.38037e-11
4.3848e-11
4.38827e-11
4.39069e-11
4.39236e-11
4.39337e-11
4.39379e-11
4.39385e-11
4.39381e-11
3.49894e-10
0
2.54107e-11
0
5.2158e-11
3.94241e-11
4.46396e-11
4.31869e-11
4.36602e-11
4.36393e-11
4.37469e-11
4.37929e-11
4.38354e-11
4.38636e-11
4.38849e-11
4.38996e-11
4.3908e-11
4.39114e-11
4.39127e-11
4.3913e-11
0
1.45091e-09
6.45466e-11
1.37094e-10
3.33667e-11
4.69337e-11
4.19501e-11
4.37815e-11
4.35334e-11
4.37318e-11
4.37506e-11
4.3799e-11
4.38252e-11
4.38477e-11
4.38636e-11
4.38751e-11
4.38818e-11
4.38847e-11
4.38855e-11
4.3886e-11
3.06541e-10
0
1.52376e-11
0
5.29223e-11
4.00247e-11
4.51172e-11
4.3473e-11
4.38346e-11
4.37374e-11
4.37937e-11
4.38042e-11
4.38223e-11
4.3834e-11
4.38441e-11
4.38515e-11
4.38553e-11
4.38567e-11
4.38578e-11
4.38588e-11
0
1.45545e-09
7.6234e-11
1.38587e-10
3.51413e-11
4.75979e-11
4.25097e-11
4.41104e-11
4.37546e-11
4.38612e-11
4.38205e-11
4.38259e-11
4.38226e-11
4.38245e-11
4.38264e-11
4.38289e-11
4.38298e-11
4.383e-11
4.38306e-11
4.38318e-11
2.52746e-10
0
1.14751e-11
0
5.3169e-11
4.11493e-11
4.55859e-11
4.38802e-11
4.40789e-11
4.38966e-11
4.38824e-11
4.38457e-11
4.383e-11
4.38178e-11
4.38118e-11
4.38085e-11
4.38055e-11
4.38036e-11
4.38046e-11
4.38063e-11
0
1.32238e-09
8.07437e-11
1.3057e-10
3.75251e-11
4.80054e-11
4.32747e-11
4.44949e-11
4.4043e-11
4.40351e-11
4.39269e-11
4.38797e-11
4.384e-11
4.38157e-11
4.38001e-11
4.37906e-11
4.37839e-11
4.37804e-11
4.37806e-11
4.37823e-11
2.0012e-10
0
1.48767e-11
0
5.29874e-11
4.25795e-11
4.59813e-11
4.43385e-11
4.43525e-11
4.40902e-11
4.39986e-11
4.39105e-11
4.3856e-11
4.38169e-11
4.37923e-11
4.37763e-11
4.37653e-11
4.37594e-11
4.37593e-11
4.37613e-11
0
1.0819e-09
7.82175e-11
1.14952e-10
4.01583e-11
4.81283e-11
4.41206e-11
4.48731e-11
4.43508e-11
4.42245e-11
4.40516e-11
4.39506e-11
4.38735e-11
4.38221e-11
4.37878e-11
4.37652e-11
4.37502e-11
4.37424e-11
4.3741e-11
4.37424e-11
1.52849e-10
0
2.38828e-11
0
5.23813e-11
4.40944e-11
4.62428e-11
4.47739e-11
4.46079e-11
4.42833e-11
4.41198e-11
4.39846e-11
4.38937e-11
4.38291e-11
4.37862e-11
4.37574e-11
4.37383e-11
4.37277e-11
4.37252e-11
4.37267e-11
0
7.68799e-10
7.06377e-11
9.41961e-11
4.28061e-11
4.79477e-11
4.49173e-11
4.51708e-11
4.46194e-11
4.43888e-11
4.41657e-11
4.40196e-11
4.39113e-11
4.38367e-11
4.37859e-11
4.37517e-11
4.37287e-11
4.3716e-11
4.37126e-11
4.3714e-11
1.10821e-10
0
3.62601e-11
1.57284e-11
5.13175e-11
4.54409e-11
4.63026e-11
4.51013e-11
4.47898e-11
4.44321e-11
4.42154e-11
4.40465e-11
4.39283e-11
4.38442e-11
4.37872e-11
4.37489e-11
4.37221e-11
4.37067e-11
4.37033e-11
4.37052e-11
1.56221e-11
4.1425e-10
6.20727e-11
7.03068e-11
4.54771e-11
4.73442e-11
4.55717e-11
4.53281e-11
4.48123e-11
4.45026e-11
4.42512e-11
4.40743e-11
4.39448e-11
4.3854e-11
4.37918e-11
4.37489e-11
4.37191e-11
4.37025e-11
4.36993e-11
4.37007e-11
6.80163e-11
0
5.72466e-11
3.61749e-11
5.02436e-11
4.60404e-11
4.62619e-11
4.52875e-11
4.49067e-11
4.45295e-11
4.42814e-11
4.4092e-11
4.39578e-11
4.38622e-11
4.37965e-11
4.37503e-11
4.3719e-11
4.3703e-11
4.36995e-11
4.36994e-11
)
;

boundaryField
{
    movingWall
    {
        type            zeroGradient;
    }
    fixedWalls
    {
        type            zeroGradient;
    }
    frontAndBack
    {
        type            empty;
    }
}


// ************************************************************************* //
