/*--------------------------------*- C++ -*----------------------------------*\
| =========                 |                                                 |
| \\      /  F ield         | OpenFOAM: The Open Source CFD Toolbox           |
|  \\    /   O peration     | Version:  2506                                  |
|   \\  /    A nd           | Website:  www.openfoam.com                      |
|    \\/     M anipulation  |                                                 |
\*---------------------------------------------------------------------------*/
FoamFile
{
    version     2.0;
    format      ascii;
    arch        "LSB;label=32;scalar=64";
    class       volScalarField;
    location    "3.75";
    object      QField;
}
// * * * * * * * * * * * * * * * * * * * * * * * * * * * * * * * * * * * * * //

dimensions      [0 0 -2 0 0 0 0];

internalField   nonuniform List<scalar> 
400
(
3.1498e-12
9.6503e-13
9.47724e-14
5.98332e-15
4.47012e-16
3.72538e-17
1.6361e-18
2.72237e-19
-6.74336e-21
3.89833e-21
-5.14445e-22
8.84703e-23
-2.47514e-23
-1.84115e-24
-3.16429e-24
-2.49825e-24
-3.22459e-24
-3.49256e-24
-1.07336e-24
-5.30618e-25
5.89035e-12
1.7028e-12
1.67476e-13
9.73066e-15
7.72582e-16
5.53771e-17
3.35618e-18
2.86074e-19
1.33319e-20
1.61963e-21
-3.86582e-23
-8.37609e-25
-1.47635e-23
-6.96228e-24
-4.45121e-24
-2.9375e-24
-3.04277e-24
-3.1971e-24
-2.73153e-25
-4.21518e-25
5.48371e-12
1.43649e-12
1.44824e-13
7.19318e-15
6.31219e-16
3.77094e-17
2.76582e-18
1.52964e-19
1.58857e-20
2.16388e-23
1.39824e-22
-3.50759e-23
-6.79624e-24
-7.76709e-24
-3.95974e-24
-2.43292e-24
-2.54694e-24
-3.05032e-24
-4.66394e-26
-4.43109e-25
5.19174e-12
1.30812e-12
1.35987e-13
6.48671e-15
5.68729e-16
3.58176e-17
2.19141e-18
1.85584e-19
6.67669e-21
1.29352e-21
-8.9036e-23
1.23167e-23
-1.3452e-23
-5.14793e-24
-3.72907e-24
-2.15945e-24
-2.0725e-24
-2.32779e-24
7.45826e-26
-3.26619e-25
4.43283e-12
1.06841e-12
1.14984e-13
5.17673e-15
4.5812e-16
2.79308e-17
1.76234e-18
1.18182e-19
9.54922e-21
1.37379e-23
1.17347e-22
-2.86995e-23
-2.71992e-24
-6.08862e-24
-2.85779e-24
-1.69948e-24
-1.40867e-24
-2.09057e-24
3.24862e-25
-3.56084e-25
3.5519e-12
8.12556e-13
9.23171e-14
3.78776e-15
3.54772e-16
2.04621e-17
1.2608e-18
9.51994e-20
3.99454e-21
6.52417e-22
-6.55576e-23
1.21971e-23
-9.39681e-24
-3.45914e-24
-2.89761e-24
-1.43656e-24
-8.46166e-25
-1.14106e-24
8.06342e-25
-1.95357e-25
2.49937e-12
5.27501e-13
6.52609e-14
2.26744e-15
2.31652e-16
1.25919e-17
6.9319e-19
5.40404e-20
3.17836e-21
-4.62409e-23
6.32054e-23
-1.91796e-23
-9.56911e-25
-4.35127e-24
-2.17105e-24
-9.3944e-25
-4.12146e-25
-1.07668e-24
9.29564e-25
-1.77939e-25
1.45402e-12
2.58132e-13
3.92475e-14
8.3867e-16
1.2618e-16
4.69241e-18
2.87115e-19
1.81377e-20
2.0351e-22
1.88313e-22
-5.34472e-23
8.88082e-24
-6.42043e-24
-2.28113e-24
-1.864e-24
-7.25006e-25
-1.95478e-25
-3.63367e-25
1.39828e-24
-7.1271e-26
3.89973e-13
-7.45069e-15
1.2331e-14
-4.82438e-16
1.12953e-17
-2.03798e-18
-2.16995e-19
-1.28177e-20
-1.11202e-21
-2.79612e-22
3.43364e-23
-1.55651e-23
-5.00486e-25
-3.15863e-24
-1.61858e-24
-5.71544e-25
9.1901e-27
-4.01498e-25
6.23032e-25
-6.88448e-26
-6.10863e-13
-2.48108e-13
-1.29009e-14
-1.64818e-15
-8.94287e-17
-8.46079e-18
-5.98277e-19
-4.0253e-20
-4.12727e-21
-1.04511e-23
-7.58746e-23
7.10437e-24
-5.74336e-24
-1.95182e-24
-1.56963e-24
-5.3443e-25
3.91154e-26
-2.22959e-25
1.24209e-24
-1.39288e-26
-1.54771e-12
-4.68636e-13
-3.68824e-14
-2.67739e-15
-1.85807e-16
-1.41648e-17
-9.3426e-19
-7.47486e-20
-3.49692e-21
-6.37692e-22
3.10647e-23
-1.80299e-23
-1.09164e-24
-3.16805e-24
-1.50268e-24
-4.30731e-25
5.4687e-26
1.49269e-25
1.86823e-24
-2.28972e-26
-2.38552e-12
-6.59944e-13
-5.86846e-14
-3.5383e-15
-2.7359e-16
-1.87335e-17
-1.31781e-18
-8.34472e-20
-8.08998e-21
-7.8239e-23
-1.09741e-22
5.82929e-24
-6.36589e-24
-2.45992e-24
-1.69619e-24
-4.28069e-25
3.18276e-26
-2.08188e-25
1.60735e-24
-1.08741e-26
-3.10979e-12
-8.22321e-13
-7.76993e-14
-4.26679e-15
-3.44793e-16
-2.33678e-17
-1.46421e-18
-1.24564e-19
-4.93582e-21
-9.59595e-22
3.13563e-23
-2.25003e-23
-2.67206e-24
-3.63693e-24
-1.70896e-24
-6.44259e-25
-9.60208e-26
-2.32164e-25
1.33605e-24
-5.41255e-26
-3.73123e-12
-9.58964e-13
-9.46125e-14
-4.85027e-15
-4.14925e-16
-2.6159e-17
-1.84798e-18
-1.13397e-19
-1.12721e-20
-7.89497e-23
-1.43557e-22
2.47536e-24
-7.95064e-24
-3.74857e-24
-2.33939e-24
-7.2725e-25
-3.12835e-25
-6.22694e-25
1.96708e-24
-1.66904e-25
-4.21252e-12
-1.06155e-12
-1.0767e-13
-5.30308e-15
-4.58561e-16
-2.97183e-17
-1.80892e-18
-1.60686e-19
-5.56927e-21
-1.23858e-21
3.46116e-23
-2.91253e-23
-5.93361e-24
-5.65366e-24
-2.85632e-24
-1.22225e-24
-7.06841e-25
-1.22035e-24
8.97455e-25
-2.76335e-25
-4.60858e-12
-1.14585e-12
-1.19008e-13
-5.6509e-15
-5.0859e-16
-3.08417e-17
-2.1896e-18
-1.31007e-19
-1.33121e-20
-1.09525e-22
-1.63905e-22
-4.86825e-24
-1.22443e-23
-6.36348e-24
-3.82266e-24
-1.57339e-24
-1.07485e-24
-1.72853e-24
8.36581e-25
-3.86555e-25
-4.8618e-12
-1.19565e-12
-1.26267e-13
-5.88782e-15
-5.24885e-16
-3.35352e-17
-1.97933e-18
-1.80969e-19
-6.20003e-21
-1.29548e-21
3.29588e-24
-3.12596e-23
-1.03433e-23
-7.11876e-24
-3.8348e-24
-1.82914e-24
-1.53901e-24
-1.84383e-24
4.53241e-25
-4.22581e-25
-4.91018e-12
-1.18761e-12
-1.29068e-13
-5.90537e-15
-5.49615e-16
-3.28542e-17
-2.38275e-18
-1.41634e-19
-1.41161e-20
-2.88312e-22
-1.62103e-22
-1.37683e-23
-1.48988e-23
-8.15666e-24
-4.69078e-24
-2.21646e-24
-1.77667e-24
-2.18229e-24
5.34513e-25
-5.58983e-25
-5.19181e-12
-1.11935e-12
-1.19553e-13
-4.70336e-15
-4.09169e-16
-2.54543e-17
-1.26056e-18
-1.21727e-19
-3.56773e-21
-8.60342e-22
-4.03536e-24
-3.77358e-23
-1.52369e-23
-1.08407e-23
-6.05797e-24
-2.98548e-24
-2.60217e-24
-3.19932e-24
4.96838e-25
-8.7329e-25
-2.80545e-12
-5.54611e-13
-5.67142e-14
-1.92393e-15
-1.29132e-16
-1.21429e-17
4.69966e-19
-1.55849e-19
2.37078e-20
-4.4652e-21
7.89688e-22
-1.61984e-22
1.67325e-23
-1.09281e-23
-2.79502e-24
-2.8357e-24
-4.04402e-24
-5.20451e-24
-2.05286e-24
-1.32277e-24
)
;

boundaryField
{
    movingWall
    {
        type            calculated;
        value           nonuniform List<scalar> 
20
(
4.03936e-14
2.03299e-13
1.63121e-13
8.23169e-16
6.15987e-16
1.22761e-17
3.34537e-18
-1.82238e-19
6.48912e-20
-9.91925e-21
1.95462e-21
-3.47309e-22
6.13224e-23
-1.25513e-23
9.15599e-25
-2.46521e-24
-4.70552e-24
-5.73654e-24
-4.00665e-24
-1.4346e-24
)
;
    }
    fixedWalls
    {
        type            calculated;
        value           nonuniform List<scalar> 
60
(
1.64731e-11
3.07983e-11
2.86677e-11
2.71447e-11
2.31924e-11
1.86082e-11
1.31288e-11
7.68441e-12
2.13475e-12
-3.09327e-12
-7.99881e-12
-1.23965e-11
-1.62101e-11
-1.94921e-11
-2.20439e-11
-2.41504e-11
-2.55051e-11
-2.57804e-11
-2.72758e-11
-1.476e-11
-1.81173e-25
-3.60321e-25
-5.29762e-25
-3.45184e-25
-2.02925e-25
-5.12831e-25
-5.03909e-25
-2.93291e-25
-5.00005e-25
-2.6043e-25
-5.25541e-25
-1.01806e-26
-5.51142e-25
-6.09099e-25
-8.79223e-25
-5.40678e-25
-1.90876e-25
-4.71648e-25
-1.08618e-24
-6.75809e-25
5.45575e-13
5.08956e-13
-3.31982e-14
3.25868e-15
-1.44197e-16
1.53742e-17
-1.48425e-18
2.72178e-19
-4.36145e-20
7.60463e-21
-1.29535e-21
2.25045e-22
-4.21883e-23
5.0838e-24
-2.06083e-24
-2.05195e-24
-3.33804e-24
-3.09076e-24
-1.93238e-24
-5.72187e-25
)
;
    }
    frontAndBack
    {
        type            empty;
    }
}


// ************************************************************************* //
