/*--------------------------------*- C++ -*----------------------------------*\
| =========                 |                                                 |
| \\      /  F ield         | OpenFOAM: The Open Source CFD Toolbox           |
|  \\    /   O peration     | Version:  2506                                  |
|   \\  /    A nd           | Website:  www.openfoam.com                      |
|    \\/     M anipulation  |                                                 |
\*---------------------------------------------------------------------------*/
FoamFile
{
    version     2.0;
    format      ascii;
    arch        "LSB;label=32;scalar=64";
    class       volScalarField;
    location    "3.75";
    object      staticCoeffP;
}
// * * * * * * * * * * * * * * * * * * * * * * * * * * * * * * * * * * * * * //

dimensions      [0 0 0 0 0 0 0];

internalField   nonuniform List<scalar> 
400
(
0
2.4163e-10
1.03834e-10
9.23022e-11
8.66827e-11
8.63096e-11
8.68838e-11
8.71534e-11
8.74167e-11
8.75837e-11
8.77209e-11
8.78235e-11
8.79012e-11
8.79599e-11
8.80034e-11
8.80349e-11
8.8054e-11
8.80611e-11
8.80598e-11
8.80545e-11
3.72521e-10
0
9.90004e-11
4.02269e-11
9.20442e-11
8.40221e-11
8.74927e-11
8.68803e-11
8.74008e-11
8.75233e-11
8.76961e-11
8.78013e-11
8.78861e-11
8.79465e-11
8.79923e-11
8.80251e-11
8.80442e-11
8.80505e-11
8.805e-11
8.8046e-11
0
1.13337e-09
6.112e-11
1.53291e-10
7.42464e-11
8.85487e-11
8.50546e-11
8.71045e-11
8.71343e-11
8.74927e-11
8.76335e-11
8.77671e-11
8.78555e-11
8.79221e-11
8.79701e-11
8.80038e-11
8.80247e-11
8.80314e-11
8.80309e-11
8.80274e-11
6.31151e-10
0
9.32987e-11
0
9.64508e-11
8.0727e-11
8.77898e-11
8.63722e-11
8.72333e-11
8.73528e-11
8.75899e-11
8.77152e-11
8.78173e-11
8.78875e-11
8.79385e-11
8.79741e-11
8.79954e-11
8.80025e-11
8.80029e-11
8.80007e-11
0
1.96094e-09
7.26339e-11
2.09924e-10
6.82419e-11
9.04405e-11
8.38369e-11
8.69878e-11
8.68772e-11
8.73634e-11
8.75158e-11
8.76748e-11
8.77729e-11
8.7848e-11
8.78999e-11
8.79368e-11
8.79585e-11
8.7967e-11
8.79674e-11
8.79647e-11
7.25104e-10
0
7.50262e-11
0
1.01209e-10
7.90239e-11
8.84395e-11
8.61684e-11
8.71738e-11
8.72409e-11
8.75002e-11
8.76268e-11
8.77334e-11
8.78053e-11
8.78582e-11
8.78946e-11
8.79155e-11
8.7923e-11
8.79248e-11
8.79239e-11
0
2.58222e-09
9.80034e-11
2.51001e-10
6.55662e-11
9.21889e-11
8.34399e-11
8.71285e-11
8.68416e-11
8.7339e-11
8.74585e-11
8.76073e-11
8.76961e-11
8.77654e-11
8.78138e-11
8.78471e-11
8.78675e-11
8.78759e-11
8.78768e-11
8.78764e-11
6.99788e-10
0
5.08216e-11
0
1.04316e-10
7.8848e-11
8.92793e-11
8.63736e-11
8.73204e-11
8.72786e-11
8.74936e-11
8.75859e-11
8.76708e-11
8.77272e-11
8.77698e-11
8.77991e-11
8.7816e-11
8.78226e-11
8.78253e-11
8.78257e-11
0
2.90181e-09
1.29093e-10
2.74188e-10
6.67333e-11
9.38676e-11
8.39e-11
8.75633e-11
8.70668e-11
8.74634e-11
8.75011e-11
8.75979e-11
8.76503e-11
8.76952e-11
8.77272e-11
8.77503e-11
8.77636e-11
8.77693e-11
8.77711e-11
8.7772e-11
6.13081e-10
0
3.04752e-11
0
1.05845e-10
8.00493e-11
9.02345e-11
8.6946e-11
8.7669e-11
8.74749e-11
8.75873e-11
8.76086e-11
8.76446e-11
8.76681e-11
8.76881e-11
8.77032e-11
8.77107e-11
8.77134e-11
8.77156e-11
8.77178e-11
0
2.9109e-09
1.52468e-10
2.77174e-10
7.02824e-11
9.51959e-11
8.50191e-11
8.8221e-11
8.75091e-11
8.77223e-11
8.7641e-11
8.76517e-11
8.7645e-11
8.7649e-11
8.7653e-11
8.76579e-11
8.76597e-11
8.76601e-11
8.76614e-11
8.76637e-11
5.05493e-10
0
2.29501e-11
0
1.06338e-10
8.22986e-11
9.1172e-11
8.77605e-11
8.81579e-11
8.77933e-11
8.77649e-11
8.76916e-11
8.76601e-11
8.76357e-11
8.76237e-11
8.7617e-11
8.76108e-11
8.76073e-11
8.7609e-11
8.76126e-11
0
2.64476e-09
1.61487e-10
2.6114e-10
7.50502e-11
9.60108e-11
8.65494e-11
8.89897e-11
8.8086e-11
8.807e-11
8.78537e-11
8.77596e-11
8.76801e-11
8.76312e-11
8.76001e-11
8.75811e-11
8.75677e-11
8.75611e-11
8.75615e-11
8.75646e-11
4.00239e-10
0
2.97535e-11
0
1.05975e-10
8.5159e-11
9.19624e-11
8.86771e-11
8.8705e-11
8.81806e-11
8.79972e-11
8.78209e-11
8.77121e-11
8.76339e-11
8.75846e-11
8.75526e-11
8.75304e-11
8.75189e-11
8.75184e-11
8.75224e-11
0
2.16381e-09
1.56435e-10
2.29905e-10
8.03166e-11
9.62568e-11
8.8241e-11
8.9746e-11
8.87015e-11
8.84492e-11
8.81033e-11
8.79012e-11
8.77471e-11
8.76441e-11
8.75757e-11
8.75304e-11
8.75002e-11
8.74847e-11
8.7482e-11
8.74847e-11
3.05698e-10
0
4.77653e-11
0
1.04763e-10
8.81886e-11
9.24856e-11
8.95479e-11
8.92157e-11
8.85665e-11
8.82396e-11
8.79692e-11
8.77876e-11
8.76583e-11
8.75722e-11
8.75149e-11
8.74767e-11
8.74554e-11
8.74505e-11
8.74532e-11
0
1.5376e-09
1.41275e-10
1.88392e-10
8.56124e-11
9.58953e-11
8.98344e-11
9.03415e-11
8.92388e-11
8.87779e-11
8.83311e-11
8.80394e-11
8.78226e-11
8.76734e-11
8.75717e-11
8.75033e-11
8.74576e-11
8.74318e-11
8.74252e-11
8.74283e-11
2.21642e-10
0
7.25202e-11
3.14566e-11
1.02635e-10
9.08815e-11
9.2605e-11
9.02025e-11
8.95795e-11
8.8864e-11
8.84306e-11
8.80931e-11
8.78564e-11
8.76885e-11
8.75744e-11
8.7498e-11
8.74443e-11
8.74132e-11
8.74065e-11
8.74105e-11
3.12443e-11
8.28499e-10
1.24146e-10
1.40614e-10
9.09544e-11
9.46883e-11
9.11435e-11
9.06559e-11
8.96248e-11
8.90052e-11
8.85021e-11
8.81486e-11
8.78897e-11
8.77081e-11
8.75837e-11
8.7498e-11
8.74385e-11
8.74048e-11
8.73985e-11
8.74016e-11
1.36033e-10
0
1.14493e-10
7.23497e-11
1.00487e-10
9.2081e-11
9.25238e-11
9.05751e-11
8.98135e-11
8.9059e-11
8.85629e-11
8.81841e-11
8.79155e-11
8.77245e-11
8.7593e-11
8.75007e-11
8.74381e-11
8.74061e-11
8.7399e-11
8.7399e-11
)
;

boundaryField
{
    movingWall
    {
        type            calculated;
        value           nonuniform List<scalar> 
20
(
1.36033e-10
0
1.14493e-10
7.23497e-11
1.00487e-10
9.2081e-11
9.25238e-11
9.05751e-11
8.98135e-11
8.9059e-11
8.85629e-11
8.81841e-11
8.79155e-11
8.77245e-11
8.7593e-11
8.75007e-11
8.74381e-11
8.74061e-11
8.7399e-11
8.7399e-11
)
;
    }
    fixedWalls
    {
        type            calculated;
        value           nonuniform List<scalar> 
60
(
0
3.72521e-10
0
6.31151e-10
0
7.25104e-10
0
6.99788e-10
0
6.13081e-10
0
5.05493e-10
0
4.00239e-10
0
3.05698e-10
0
2.21642e-10
3.12443e-11
1.36033e-10
8.80545e-11
8.8046e-11
8.80274e-11
8.80007e-11
8.79647e-11
8.79239e-11
8.78764e-11
8.78257e-11
8.7772e-11
8.77178e-11
8.76637e-11
8.76126e-11
8.75646e-11
8.75224e-11
8.74847e-11
8.74532e-11
8.74283e-11
8.74105e-11
8.74016e-11
8.7399e-11
0
2.4163e-10
1.03834e-10
9.23022e-11
8.66827e-11
8.63096e-11
8.68838e-11
8.71534e-11
8.74167e-11
8.75837e-11
8.77209e-11
8.78235e-11
8.79012e-11
8.79599e-11
8.80034e-11
8.80349e-11
8.8054e-11
8.80611e-11
8.80598e-11
8.80545e-11
)
;
    }
    frontAndBack
    {
        type            empty;
    }
}


// ************************************************************************* //
