/*--------------------------------*- C++ -*----------------------------------*\
| =========                 |                                                 |
| \\      /  F ield         | OpenFOAM: The Open Source CFD Toolbox           |
|  \\    /   O peration     | Version:  2506                                  |
|   \\  /    A nd           | Website:  www.openfoam.com                      |
|    \\/     M anipulation  |                                                 |
\*---------------------------------------------------------------------------*/
FoamFile
{
    version     2.0;
    format      ascii;
    arch        "LSB;label=32;scalar=64";
    class       volVectorField;
    location    "3.75";
    object      U;
}
// * * * * * * * * * * * * * * * * * * * * * * * * * * * * * * * * * * * * * //

dimensions      [0 1 -1 0 0 0 0];

internalField   nonuniform List<vector> 
400
(
(-1 1.31377e-07 0)
(-1 -3.08945e-08 0)
(-1 7.32691e-09 0)
(-1 -1.72206e-09 0)
(-1 4.064e-10 0)
(-1 -9.55853e-11 0)
(-1 2.25247e-11 0)
(-1 -5.21975e-12 0)
(-1 1.26548e-12 0)
(-1 -2.65138e-13 0)
(-1 8.26675e-14 0)
(-1 -3.46702e-15 0)
(-1 1.30377e-14 0)
(-1 6.55779e-15 0)
(-1 5.73132e-15 0)
(-1 4.45711e-15 0)
(-1 4.64105e-15 0)
(-1 4.30404e-15 0)
(-1 2.55165e-15 0)
(-1 -1.90815e-15 0)
(-1 -1.314e-07 0)
(-1 3.08752e-08 0)
(-1 -7.30677e-09 0)
(-1 1.71649e-09 0)
(-1 -4.0269e-10 0)
(-1 9.51955e-11 0)
(-1 -2.19062e-11 0)
(-1 5.31366e-12 0)
(-1 -1.11295e-12 0)
(-1 3.41183e-13 0)
(-1 -1.82873e-14 0)
(-1 4.95768e-14 0)
(-1 2.4307e-14 0)
(-1 2.2159e-14 0)
(-1 1.62898e-14 0)
(-1 1.31522e-14 0)
(-1 1.30701e-14 0)
(-1 1.42016e-14 0)
(-1 6.27956e-15 0)
(-1 -5.37371e-15 0)
(-1 1.3147e-07 0)
(-1 -3.0871e-08 0)
(-1 7.31629e-09 0)
(-1 -1.71508e-09 0)
(-1 4.0511e-10 0)
(-1 -9.47364e-11 0)
(-1 2.25537e-11 0)
(-1 -5.0508e-12 0)
(-1 1.35046e-12 0)
(-1 -1.91862e-13 0)
(-1 1.36632e-13 0)
(-1 3.9248e-14 0)
(-1 4.73404e-14 0)
(-1 3.33469e-14 0)
(-1 2.67884e-14 0)
(-1 2.14695e-14 0)
(-1 2.12423e-14 0)
(-1 2.25219e-14 0)
(-1 1.03036e-14 0)
(-1 -8.66957e-15 0)
(-1 -1.31693e-07 0)
(-1 3.09182e-08 0)
(-1 -7.32474e-09 0)
(-1 1.71901e-09 0)
(-1 -4.04618e-10 0)
(-1 9.56551e-11 0)
(-1 -2.2072e-11 0)
(-1 5.43636e-12 0)
(-1 -1.08264e-12 0)
(-1 3.97581e-13 0)
(-1 2.04753e-14 0)
(-1 8.53443e-14 0)
(-1 5.37247e-14 0)
(-1 4.61207e-14 0)
(-1 3.52548e-14 0)
(-1 2.87274e-14 0)
(-1 2.84125e-14 0)
(-1 3.08418e-14 0)
(-1 1.3665e-14 0)
(-1 -1.1787e-14 0)
(-1 1.32116e-07 0)
(-1 -3.10425e-08 0)
(-1 7.35509e-09 0)
(-1 -1.72767e-09 0)
(-1 4.07744e-10 0)
(-1 -9.58247e-11 0)
(-1 2.27451e-11 0)
(-1 -5.13346e-12 0)
(-1 1.39121e-12 0)
(-1 -1.72053e-13 0)
(-1 1.66431e-13 0)
(-1 6.50276e-14 0)
(-1 7.15761e-14 0)
(-1 5.34097e-14 0)
(-1 4.29479e-14 0)
(-1 3.49358e-14 0)
(-1 3.51017e-14 0)
(-1 3.76261e-14 0)
(-1 1.67194e-14 0)
(-1 -1.47885e-14 0)
(-1 -1.32784e-07 0)
(-1 3.12367e-08 0)
(-1 -7.40223e-09 0)
(-1 1.74154e-09 0)
(-1 -4.10957e-10 0)
(-1 9.72105e-11 0)
(-1 -2.26333e-11 0)
(-1 5.54656e-12 0)
(-1 -1.12247e-12 0)
(-1 4.21206e-13 0)
(-1 3.48741e-14 0)
(-1 1.05266e-13 0)
(-1 7.1828e-14 0)
(-1 6.21289e-14 0)
(-1 4.85521e-14 0)
(-1 4.01771e-14 0)
(-1 4.01926e-14 0)
(-1 4.35532e-14 0)
(-1 1.90066e-14 0)
(-1 -1.74989e-14 0)
(-1 1.33712e-07 0)
(-1 -3.15084e-08 0)
(-1 7.46871e-09 0)
(-1 -1.76005e-09 0)
(-1 4.16244e-10 0)
(-1 -9.81859e-11 0)
(-1 2.33381e-11 0)
(-1 -5.32684e-12 0)
(-1 1.43412e-12 0)
(-1 -1.78696e-13 0)
(-1 1.81697e-13 0)
(-1 7.77364e-14 0)
(-1 8.5819e-14 0)
(-1 6.58518e-14 0)
(-1 5.37401e-14 0)
(-1 4.4085e-14 0)
(-1 4.44048e-14 0)
(-1 4.77889e-14 0)
(-1 2.06056e-14 0)
(-1 -1.97945e-14 0)
(-1 -1.34893e-07 0)
(-1 3.18436e-08 0)
(-1 -7.55019e-09 0)
(-1 1.78249e-09 0)
(-1 -4.2185e-10 0)
(-1 9.99756e-11 0)
(-1 -2.34346e-11 0)
(-1 5.73806e-12 0)
(-1 -1.17765e-12 0)
(-1 4.41638e-13 0)
(-1 4.00007e-14 0)
(-1 1.17009e-13 0)
(-1 8.25865e-14 0)
(-1 7.21826e-14 0)
(-1 5.68784e-14 0)
(-1 4.70203e-14 0)
(-1 4.72239e-14 0)
(-1 5.10364e-14 0)
(-1 2.15224e-14 0)
(-1 -2.17032e-14 0)
(-1 1.363e-07 0)
(-1 -3.22379e-08 0)
(-1 7.64481e-09 0)
(-1 -1.80824e-09 0)
(-1 4.28703e-10 0)
(-1 -1.01375e-10 0)
(-1 2.42047e-11 0)
(-1 -5.54294e-12 0)
(-1 1.49914e-12 0)
(-1 -1.85964e-13 0)
(-1 1.9462e-13 0)
(-1 8.57842e-14 0)
(-1 9.48066e-14 0)
(-1 7.32913e-14 0)
(-1 5.98367e-14 0)
(-1 4.90066e-14 0)
(-1 4.9378e-14 0)
(-1 5.29666e-14 0)
(-1 2.1945e-14 0)
(-1 -2.30587e-14 0)
(-1 -1.37896e-07 0)
(-1 3.2677e-08 0)
(-1 -7.74925e-09 0)
(-1 1.83677e-09 0)
(-1 -4.35495e-10 0)
(-1 1.03523e-10 0)
(-1 -2.43386e-11 0)
(-1 5.99173e-12 0)
(-1 -1.22503e-12 0)
(-1 4.69244e-13 0)
(-1 4.5507e-14 0)
(-1 1.26273e-13 0)
(-1 8.93092e-14 0)
(-1 7.78241e-14 0)
(-1 6.11673e-14 0)
(-1 5.03683e-14 0)
(-1 5.02295e-14 0)
(-1 5.35961e-14 0)
(-1 2.18789e-14 0)
(-1 -2.40204e-14 0)
(-1 1.39617e-07 0)
(-1 -3.31424e-08 0)
(-1 7.86021e-09 0)
(-1 -1.86591e-09 0)
(-1 4.43259e-10 0)
(-1 -1.04969e-10 0)
(-1 2.52086e-11 0)
(-1 -5.75327e-12 0)
(-1 1.58097e-12 0)
(-1 -1.88188e-13 0)
(-1 2.08517e-13 0)
(-1 9.1855e-14 0)
(-1 1.0045e-13 0)
(-1 7.7156e-14 0)
(-1 6.25614e-14 0)
(-1 5.07116e-14 0)
(-1 5.03273e-14 0)
(-1 5.3277e-14 0)
(-1 2.11173e-14 0)
(-1 -2.45573e-14 0)
(-1 -1.4142e-07 0)
(-1 3.3625e-08 0)
(-1 -7.97376e-09 0)
(-1 1.8967e-09 0)
(-1 -4.50186e-10 0)
(-1 1.07326e-10 0)
(-1 -2.52529e-11 0)
(-1 6.26524e-12 0)
(-1 -1.26445e-12 0)
(-1 4.98996e-13 0)
(-1 5.0295e-14 0)
(-1 1.32553e-13 0)
(-1 9.20341e-14 0)
(-1 7.94321e-14 0)
(-1 6.16387e-14 0)
(-1 5.03023e-14 0)
(-1 4.94902e-14 0)
(-1 5.19214e-14 0)
(-1 2.04723e-14 0)
(-1 -2.45429e-14 0)
(-1 1.43216e-07 0)
(-1 -3.40964e-08 0)
(-1 8.08629e-09 0)
(-1 -1.92511e-09 0)
(-1 4.57985e-10 0)
(-1 -1.08537e-10 0)
(-1 2.61985e-11 0)
(-1 -5.94992e-12 0)
(-1 1.66058e-12 0)
(-1 -1.91285e-13 0)
(-1 2.18226e-13 0)
(-1 9.32444e-14 0)
(-1 1.00662e-13 0)
(-1 7.57069e-14 0)
(-1 6.0553e-14 0)
(-1 4.8457e-14 0)
(-1 4.74975e-14 0)
(-1 4.97858e-14 0)
(-1 1.92466e-14 0)
(-1 -2.39842e-14 0)
(-1 -1.44973e-07 0)
(-1 3.45564e-08 0)
(-1 -8.19387e-09 0)
(-1 1.95415e-09 0)
(-1 -4.64126e-10 0)
(-1 1.10885e-10 0)
(-1 -2.60943e-11 0)
(-1 6.51152e-12 0)
(-1 -1.30437e-12 0)
(-1 5.19618e-13 0)
(-1 4.8154e-14 0)
(-1 1.31586e-13 0)
(-1 8.78213e-14 0)
(-1 7.48838e-14 0)
(-1 5.71388e-14 0)
(-1 4.61167e-14 0)
(-1 4.47518e-14 0)
(-1 4.62262e-14 0)
(-1 1.78639e-14 0)
(-1 -2.2794e-14 0)
(-1 1.46594e-07 0)
(-1 -3.49713e-08 0)
(-1 8.2934e-09 0)
(-1 -1.97823e-09 0)
(-1 4.71074e-10 0)
(-1 -1.11683e-10 0)
(-1 2.70423e-11 0)
(-1 -6.13077e-12 0)
(-1 1.71566e-12 0)
(-1 -2.05267e-13 0)
(-1 2.15583e-13 0)
(-1 8.46666e-14 0)
(-1 9.20853e-14 0)
(-1 6.74196e-14 0)
(-1 5.33583e-14 0)
(-1 4.21107e-14 0)
(-1 4.06568e-14 0)
(-1 4.21234e-14 0)
(-1 1.58967e-14 0)
(-1 -2.07519e-14 0)
(-1 -1.48068e-07 0)
(-1 3.53502e-08 0)
(-1 -8.38164e-09 0)
(-1 2.00209e-09 0)
(-1 -4.75722e-10 0)
(-1 1.1378e-10 0)
(-1 -2.67955e-11 0)
(-1 6.68771e-12 0)
(-1 -1.35613e-12 0)
(-1 5.17345e-13 0)
(-1 3.06234e-14 0)
(-1 1.16896e-13 0)
(-1 7.31135e-14 0)
(-1 6.21392e-14 0)
(-1 4.64425e-14 0)
(-1 3.69424e-14 0)
(-1 3.54338e-14 0)
(-1 3.60654e-14 0)
(-1 1.36685e-14 0)
(-1 -1.81948e-14 0)
(-1 1.49307e-07 0)
(-1 -3.566e-08 0)
(-1 8.45659e-09 0)
(-1 -2.01916e-09 0)
(-1 4.81087e-10 0)
(-1 -1.14092e-10 0)
(-1 2.76308e-11 0)
(-1 -6.30055e-12 0)
(-1 1.72168e-12 0)
(-1 -2.44301e-13 0)
(-1 1.89332e-13 0)
(-1 5.84412e-14 0)
(-1 6.95004e-14 0)
(-1 4.87404e-14 0)
(-1 3.84603e-14 0)
(-1 2.97777e-14 0)
(-1 2.88527e-14 0)
(-1 2.98596e-14 0)
(-1 1.08126e-14 0)
(-1 -1.52284e-14 0)
(-1 -1.50319e-07 0)
(-1 3.59156e-08 0)
(-1 -8.51644e-09 0)
(-1 2.03575e-09 0)
(-1 -4.83954e-10 0)
(-1 1.15776e-10 0)
(-1 -2.73515e-11 0)
(-1 6.75804e-12 0)
(-1 -1.44202e-12 0)
(-1 4.78358e-13 0)
(-1 -1.18437e-14 0)
(-1 8.38411e-14 0)
(-1 4.46384e-14 0)
(-1 3.98886e-14 0)
(-1 2.91287e-14 0)
(-1 2.32595e-14 0)
(-1 2.22254e-14 0)
(-1 2.24659e-14 0)
(-1 8.37541e-15 0)
(-1 -1.20287e-14 0)
(-1 1.51044e-07 0)
(-1 -3.60946e-08 0)
(-1 8.55862e-09 0)
(-1 -2.04245e-09 0)
(-1 4.866e-10 0)
(-1 -1.15371e-10 0)
(-1 2.77779e-11 0)
(-1 -6.44377e-12 0)
(-1 1.65662e-12 0)
(-1 -3.05264e-13 0)
(-1 1.41419e-13 0)
(-1 1.94597e-14 0)
(-1 3.7302e-14 0)
(-1 2.33989e-14 0)
(-1 1.88126e-14 0)
(-1 1.43237e-14 0)
(-1 1.41178e-14 0)
(-1 1.5744e-14 0)
(-1 6.7888e-15 0)
(-1 -8.24309e-15 0)
(-1 -1.51585e-07 0)
(-1 3.63353e-08 0)
(-1 -8.62322e-09 0)
(-1 2.06573e-09 0)
(-1 -4.93044e-10 0)
(-1 1.17797e-10 0)
(-1 -2.81891e-11 0)
(-1 6.8021e-12 0)
(-1 -1.59016e-12 0)
(-1 4.14365e-13 0)
(-1 -7.60573e-14 0)
(-1 3.61498e-14 0)
(-1 4.84035e-15 0)
(-1 9.01791e-15 0)
(-1 5.30349e-15 0)
(-1 4.42404e-15 0)
(-1 4.88443e-15 0)
(-1 6.12742e-15 0)
(-1 3.23271e-15 0)
(-1 -3.03107e-15 0)
)
;

boundaryField
{
    movingWall
    {
        type            fixedValue;
        value           uniform (-1 -0 -0);
    }
    fixedWalls
    {
        type            noSlip;
    }
    frontAndBack
    {
        type            empty;
    }
}


// ************************************************************************* //
