/*--------------------------------*- C++ -*----------------------------------*\
| =========                 |                                                 |
| \\      /  F ield         | OpenFOAM: The Open Source CFD Toolbox           |
|  \\    /   O peration     | Version:  2506                                  |
|   \\  /    A nd           | Website:  www.openfoam.com                      |
|    \\/     M anipulation  |                                                 |
\*---------------------------------------------------------------------------*/
FoamFile
{
    version     2.0;
    format      ascii;
    arch        "LSB;label=32;scalar=64";
    class       volVectorField;
    location    "3.75";
    object      vorticityField;
}
// * * * * * * * * * * * * * * * * * * * * * * * * * * * * * * * * * * * * * //

dimensions      [0 0 -1 0 0 0 0];

internalField   nonuniform List<vector> 
400
(
(0 -0 1.03617e-05)
(0 -0 -1.24828e-05)
(0 -0 2.94972e-06)
(0 -0 -7.00692e-07)
(0 -0 1.65395e-07)
(0 -0 -3.93577e-08)
(0 -0 9.21761e-09)
(0 -0 -2.25408e-09)
(0 -0 4.82234e-10)
(0 -0 -1.51783e-10)
(0 -0 8.06092e-12)
(0 -0 -2.27381e-11)
(0 -0 -1.00564e-11)
(0 -0 -8.97057e-12)
(0 -0 -6.17318e-12)
(0 -0 -4.33742e-12)
(0 -0 -2.61739e-12)
(0 -0 -7.78146e-13)
(0 -0 4.90088e-13)
(0 -0 2.067e-13)
(0 -0 -1.06388e-05)
(0 -0 1.25465e-05)
(0 -0 -2.97328e-06)
(0 -0 7.04465e-07)
(0 -0 -1.66888e-07)
(0 -0 3.95263e-08)
(0 -0 -9.36185e-09)
(0 -0 2.21515e-09)
(0 -0 -5.25464e-10)
(0 -0 1.23371e-10)
(0 -0 -2.99467e-11)
(0 -0 6.50915e-12)
(0 -0 -2.17257e-12)
(0 -0 -1.783e-13)
(0 -0 -5.21214e-13)
(0 -0 -7.80277e-14)
(0 -0 2.67573e-13)
(0 -0 -6.24844e-13)
(0 -0 -1.95753e-12)
(0 -0 -9.05853e-14)
(0 -0 1.06066e-05)
(0 -0 -1.25313e-05)
(0 -0 2.96535e-06)
(0 -0 -7.01547e-07)
(0 -0 1.65945e-07)
(0 -0 -3.92469e-08)
(0 -0 9.27937e-09)
(0 -0 -2.1946e-09)
(0 -0 5.17905e-10)
(0 -0 -1.23226e-10)
(0 -0 2.8261e-11)
(0 -0 -7.41126e-12)
(0 -0 9.2778e-13)
(0 -0 -1.21494e-12)
(0 -0 -5.3722e-13)
(0 -0 -2.02251e-13)
(0 -0 4.0339e-13)
(0 -0 -9.85442e-13)
(0 -0 -3.20046e-12)
(0 -0 -2.17615e-13)
(0 -0 -1.05975e-05)
(0 -0 1.25432e-05)
(0 -0 -2.96674e-06)
(0 -0 7.01535e-07)
(0 -0 -1.65867e-07)
(0 -0 3.92092e-08)
(0 -0 -9.2685e-09)
(0 -0 2.1893e-09)
(0 -0 -5.18379e-10)
(0 -0 1.21317e-10)
(0 -0 -2.97871e-11)
(0 -0 6.06255e-12)
(0 -0 -2.48579e-12)
(0 -0 -7.08579e-13)
(0 -0 -9.80389e-13)
(0 -0 -1.42128e-13)
(0 -0 5.36702e-13)
(0 -0 -1.31212e-12)
(0 -0 -4.3171e-12)
(0 -0 -2.149e-13)
(0 -0 1.05562e-05)
(0 -0 -1.25645e-05)
(0 -0 2.97133e-06)
(0 -0 -7.02518e-07)
(0 -0 1.66076e-07)
(0 -0 -3.92576e-08)
(0 -0 9.27691e-09)
(0 -0 -2.19383e-09)
(0 -0 5.16904e-10)
(0 -0 -1.23589e-10)
(0 -0 2.7828e-11)
(0 -0 -7.72363e-12)
(0 -0 5.45832e-13)
(0 -0 -1.75151e-12)
(0 -0 -1.06134e-12)
(0 -0 -1.612e-13)
(0 -0 7.29815e-13)
(0 -0 -1.67561e-12)
(0 -0 -5.32278e-12)
(0 -0 -1.93084e-13)
(0 -0 -1.05222e-05)
(0 -0 1.26078e-05)
(0 -0 -2.98186e-06)
(0 -0 7.05096e-07)
(0 -0 -1.66718e-07)
(0 -0 3.94148e-08)
(0 -0 -9.31984e-09)
(0 -0 2.20147e-09)
(0 -0 -5.22104e-10)
(0 -0 1.21698e-10)
(0 -0 -3.03742e-11)
(0 -0 5.72827e-12)
(0 -0 -2.9856e-12)
(0 -0 -1.18918e-12)
(0 -0 -1.35493e-12)
(0 -0 -1.85435e-13)
(0 -0 7.44186e-13)
(0 -0 -1.98307e-12)
(0 -0 -6.24073e-12)
(0 -0 -2.04981e-13)
(0 -0 1.04908e-05)
(0 -0 -1.2673e-05)
(0 -0 2.99826e-06)
(0 -0 -7.09231e-07)
(0 -0 1.67758e-07)
(0 -0 -3.96821e-08)
(0 -0 9.38392e-09)
(0 -0 -2.22157e-09)
(0 -0 5.23488e-10)
(0 -0 -1.25893e-10)
(0 -0 2.77574e-11)
(0 -0 -8.34101e-12)
(0 -0 5.83766e-14)
(0 -0 -2.2592e-12)
(0 -0 -1.41775e-12)
(0 -0 -3.64324e-13)
(0 -0 7.49864e-13)
(0 -0 -2.2173e-12)
(0 -0 -6.89386e-12)
(0 -0 -1.3532e-13)
(0 -0 -1.04798e-05)
(0 -0 1.27634e-05)
(0 -0 -3.02102e-06)
(0 -0 7.14962e-07)
(0 -0 -1.6921e-07)
(0 -0 4.00443e-08)
(0 -0 -9.48013e-09)
(0 -0 2.24133e-09)
(0 -0 -5.33003e-10)
(0 -0 1.23689e-10)
(0 -0 -3.15956e-11)
(0 -0 5.4783e-12)
(0 -0 -3.50687e-12)
(0 -0 -1.73055e-12)
(0 -0 -1.91992e-12)
(0 -0 -5.04657e-13)
(0 -0 7.53976e-13)
(0 -0 -2.48884e-12)
(0 -0 -7.4637e-12)
(0 -0 -9.02386e-15)
(0 -0 1.04841e-05)
(0 -0 -1.28753e-05)
(0 -0 3.04915e-06)
(0 -0 -7.22043e-07)
(0 -0 1.70984e-07)
(0 -0 -4.04958e-08)
(0 -0 9.58791e-09)
(0 -0 -2.27381e-09)
(0 -0 5.35806e-10)
(0 -0 -1.2972e-10)
(0 -0 2.80693e-11)
(0 -0 -9.00559e-12)
(0 -0 -3.81929e-13)
(0 -0 -2.73806e-12)
(0 -0 -1.80506e-12)
(0 -0 -6.12189e-13)
(0 -0 7.4836e-13)
(0 -0 -2.63488e-12)
(0 -0 -7.68384e-12)
(0 -0 5.71565e-14)
(0 -0 -1.05084e-05)
(0 -0 1.30068e-05)
(0 -0 -3.0821e-06)
(0 -0 7.30278e-07)
(0 -0 -1.73049e-07)
(0 -0 4.10052e-08)
(0 -0 -9.72118e-09)
(0 -0 2.301e-09)
(0 -0 -5.48426e-10)
(0 -0 1.27081e-10)
(0 -0 -3.28876e-11)
(0 -0 5.356e-12)
(0 -0 -3.89621e-12)
(0 -0 -2.10945e-12)
(0 -0 -2.20349e-12)
(0 -0 -6.60102e-13)
(0 -0 5.39623e-13)
(0 -0 -2.75374e-12)
(0 -0 -7.92428e-12)
(0 -0 1.87045e-13)
(0 -0 1.05483e-05)
(0 -0 -1.31516e-05)
(0 -0 3.11815e-06)
(0 -0 -7.39254e-07)
(0 -0 1.75272e-07)
(0 -0 -4.1564e-08)
(0 -0 9.85316e-09)
(0 -0 -2.34002e-09)
(0 -0 5.519e-10)
(0 -0 -1.33993e-10)
(0 -0 2.88174e-11)
(0 -0 -9.47859e-12)
(0 -0 -5.21224e-13)
(0 -0 -2.97566e-12)
(0 -0 -2.07524e-12)
(0 -0 -8.71047e-13)
(0 -0 4.46281e-13)
(0 -0 -2.97521e-12)
(0 -0 -8.02738e-12)
(0 -0 2.89794e-13)
(0 -0 -1.06029e-05)
(0 -0 1.33061e-05)
(0 -0 -3.15649e-06)
(0 -0 7.4874e-07)
(0 -0 -1.77625e-07)
(0 -0 4.21377e-08)
(0 -0 -1.00016e-08)
(0 -0 2.36989e-09)
(0 -0 -5.65728e-10)
(0 -0 1.31014e-10)
(0 -0 -3.41235e-11)
(0 -0 5.42074e-12)
(0 -0 -4.11951e-12)
(0 -0 -2.2535e-12)
(0 -0 -2.34377e-12)
(0 -0 -8.62477e-13)
(0 -0 4.05858e-13)
(0 -0 -2.9018e-12)
(0 -0 -7.86328e-12)
(0 -0 4.07064e-13)
(0 -0 1.0668e-05)
(0 -0 -1.3462e-05)
(0 -0 3.19493e-06)
(0 -0 -7.58214e-07)
(0 -0 1.79949e-07)
(0 -0 -4.27161e-08)
(0 -0 1.01362e-08)
(0 -0 -2.4098e-09)
(0 -0 5.68735e-10)
(0 -0 -1.3838e-10)
(0 -0 2.96727e-11)
(0 -0 -9.80487e-12)
(0 -0 -5.8823e-13)
(0 -0 -3.11643e-12)
(0 -0 -2.18288e-12)
(0 -0 -8.98981e-13)
(0 -0 3.76821e-13)
(0 -0 -2.85219e-12)
(0 -0 -7.56674e-12)
(0 -0 4.19552e-13)
(0 -0 -1.07388e-05)
(0 -0 1.36161e-05)
(0 -0 -3.23284e-06)
(0 -0 7.67507e-07)
(0 -0 -1.82233e-07)
(0 -0 4.32675e-08)
(0 -0 -1.02782e-08)
(0 -0 2.4376e-09)
(0 -0 -5.82114e-10)
(0 -0 1.35171e-10)
(0 -0 -3.50085e-11)
(0 -0 5.59303e-12)
(0 -0 -4.20655e-12)
(0 -0 -2.14667e-12)
(0 -0 -2.22619e-12)
(0 -0 -8.32125e-13)
(0 -0 2.27791e-13)
(0 -0 -2.743e-12)
(0 -0 -7.20018e-12)
(0 -0 4.38798e-13)
(0 -0 1.08131e-05)
(0 -0 -1.376e-05)
(0 -0 3.26797e-06)
(0 -0 -7.76093e-07)
(0 -0 1.84321e-07)
(0 -0 -4.37835e-08)
(0 -0 1.0397e-08)
(0 -0 -2.47293e-09)
(0 -0 5.84608e-10)
(0 -0 -1.41686e-10)
(0 -0 3.10263e-11)
(0 -0 -9.72062e-12)
(0 -0 -1.7971e-13)
(0 -0 -2.70718e-12)
(0 -0 -1.82617e-12)
(0 -0 -8.36472e-13)
(0 -0 2.72322e-13)
(0 -0 -2.39469e-12)
(0 -0 -6.45016e-12)
(0 -0 4.04204e-13)
(0 -0 -1.08838e-05)
(0 -0 1.38915e-05)
(0 -0 -3.30007e-06)
(0 -0 7.83902e-07)
(0 -0 -1.86226e-07)
(0 -0 4.42399e-08)
(0 -0 -1.05139e-08)
(0 -0 2.49542e-09)
(0 -0 -5.95597e-10)
(0 -0 1.38973e-10)
(0 -0 -3.54099e-11)
(0 -0 6.28188e-12)
(0 -0 -3.68675e-12)
(0 -0 -1.61e-12)
(0 -0 -1.78784e-12)
(0 -0 -6.12985e-13)
(0 -0 1.29144e-13)
(0 -0 -2.17653e-12)
(0 -0 -5.61576e-12)
(0 -0 4.25528e-13)
(0 -0 1.09509e-05)
(0 -0 -1.40034e-05)
(0 -0 3.32718e-06)
(0 -0 -7.90473e-07)
(0 -0 1.87811e-07)
(0 -0 -4.4629e-08)
(0 -0 1.06026e-08)
(0 -0 -2.52203e-09)
(0 -0 5.9706e-10)
(0 -0 -1.44127e-10)
(0 -0 3.20903e-11)
(0 -0 -9.51664e-12)
(0 -0 3.03857e-13)
(0 -0 -2.20954e-12)
(0 -0 -1.40839e-12)
(0 -0 -7.16813e-13)
(0 -0 6.24029e-14)
(0 -0 -1.88533e-12)
(0 -0 -4.64433e-12)
(0 -0 4.6869e-13)
(0 -0 -1.10192e-05)
(0 -0 1.40984e-05)
(0 -0 -3.35025e-06)
(0 -0 7.96054e-07)
(0 -0 -1.89164e-07)
(0 -0 4.49516e-08)
(0 -0 -1.06846e-08)
(0 -0 2.53782e-09)
(0 -0 -6.04685e-10)
(0 -0 1.42204e-10)
(0 -0 -3.5142e-11)
(0 -0 7.13899e-12)
(0 -0 -2.93157e-12)
(0 -0 -7.64924e-13)
(0 -0 -1.14792e-12)
(0 -0 -3.9217e-13)
(0 -0 1.64593e-13)
(0 -0 -1.43921e-12)
(0 -0 -3.6392e-12)
(0 -0 3.3822e-13)
(0 -0 1.10473e-05)
(0 -0 -1.41712e-05)
(0 -0 3.37036e-06)
(0 -0 -8.01514e-07)
(0 -0 1.90618e-07)
(0 -0 -4.53388e-08)
(0 -0 1.07825e-08)
(0 -0 -2.56581e-09)
(0 -0 6.09622e-10)
(0 -0 -1.45557e-10)
(0 -0 3.42884e-11)
(0 -0 -8.35176e-12)
(0 -0 1.69496e-12)
(0 -0 -7.37636e-13)
(0 -0 -6.72658e-14)
(0 -0 3.43679e-13)
(0 -0 6.84128e-13)
(0 -0 -5.97378e-13)
(0 -0 -2.66976e-12)
(0 -0 9.90399e-15)
(0 -0 -1.12823e-05)
(0 -0 1.42577e-05)
(0 -0 -3.4105e-06)
(0 -0 8.10713e-07)
(0 -0 -1.94147e-07)
(0 -0 4.62342e-08)
(0 -0 -1.11437e-08)
(0 -0 2.60362e-09)
(0 -0 -6.75501e-10)
(0 -0 1.23519e-10)
(0 -0 -5.9099e-11)
(0 -0 -7.68538e-12)
(0 -0 -1.43955e-11)
(0 -0 -8.24783e-12)
(0 -0 -6.04303e-12)
(0 -0 -3.91793e-12)
(0 -0 -2.40464e-12)
(0 -0 -5.98854e-13)
(0 -0 7.9177e-13)
(0 -0 4.13517e-13)
)
;

boundaryField
{
    movingWall
    {
        type            calculated;
        value           nonuniform List<vector> 
20
(
(0 -0 -1.23858e-05)
(0 -0 1.45052e-05)
(0 -0 -3.5214e-06)
(0 -0 8.35891e-07)
(0 -0 -2.03192e-07)
(0 -0 4.86681e-08)
(0 -0 -1.19278e-08)
(0 -0 2.76771e-09)
(0 -0 -7.77418e-10)
(0 -0 1.10199e-10)
(0 -0 -8.76484e-11)
(0 -0 -2.37958e-11)
(0 -0 -2.78486e-11)
(0 -0 -1.76284e-11)
(0 -0 -1.27162e-11)
(0 -0 -8.74605e-12)
(0 -0 -5.69164e-12)
(0 -0 -1.23099e-12)
(0 -0 2.77009e-12)
(0 -0 1.04565e-12)
)
;
    }
    fixedWalls
    {
        type            calculated;
        value           nonuniform List<vector> 
60
(
(0 -0 5.28641e-05)
(0 -0 -5.31464e-05)
(0 -0 5.31346e-05)
(0 -0 -5.31971e-05)
(0 -0 5.32952e-05)
(0 -0 -5.34811e-05)
(0 -0 5.37552e-05)
(0 -0 -5.41321e-05)
(0 -0 5.45977e-05)
(0 -0 -5.51449e-05)
(0 -0 5.57477e-05)
(0 -0 -5.63915e-05)
(0 -0 5.70426e-05)
(0 -0 -5.76864e-05)
(0 -0 5.82885e-05)
(0 -0 -5.88392e-05)
(0 -0 5.93091e-05)
(0 -0 -5.97066e-05)
(0 -0 5.99698e-05)
(0 -0 -6.03912e-05)
(0 -0 1.03431e-12)
(0 -0 2.14948e-12)
(0 -0 3.41362e-12)
(0 -0 4.68771e-12)
(0 -0 5.91541e-12)
(0 -0 6.94533e-12)
(0 -0 7.86358e-12)
(0 -0 8.65419e-12)
(0 -0 9.16926e-12)
(0 -0 9.58106e-12)
(0 -0 9.76872e-12)
(0 -0 9.81717e-12)
(0 -0 9.53947e-12)
(0 -0 9.06339e-12)
(0 -0 8.21946e-12)
(0 -0 7.25083e-12)
(0 -0 6.11848e-12)
(0 -0 4.78436e-12)
(0 -0 3.16171e-12)
(0 -0 1.64611e-12)
(0 -0 9.60233e-06)
(0 -0 -1.23416e-05)
(0 -0 2.89037e-06)
(0 -0 -6.90404e-07)
(0 -0 1.61322e-07)
(0 -0 -3.84984e-08)
(0 -0 8.87344e-09)
(0 -0 -2.23242e-09)
(0 -0 4.20143e-10)
(0 -0 -1.74991e-10)
(0 -0 -1.53552e-11)
(0 -0 -3.83601e-11)
(0 -0 -2.20457e-11)
(0 -0 -1.75172e-11)
(0 -0 -1.22893e-11)
(0 -0 -8.76877e-12)
(0 -0 -5.4776e-12)
(0 -0 -1.4968e-12)
(0 -0 1.77686e-12)
(0 -0 4.68557e-13)
)
;
    }
    frontAndBack
    {
        type            empty;
    }
}


// ************************************************************************* //
