/*--------------------------------*- C++ -*----------------------------------*\
| =========                 |                                                 |
| \\      /  F ield         | OpenFOAM: The Open Source CFD Toolbox           |
|  \\    /   O peration     | Version:  2506                                  |
|   \\  /    A nd           | Website:  www.openfoam.com                      |
|    \\/     M anipulation  |                                                 |
\*---------------------------------------------------------------------------*/
FoamFile
{
    version     2.0;
    format      ascii;
    arch        "LSB;label=32;scalar=64";
    class       volVectorField;
    location    "4.125";
    object      diffU;
}
// * * * * * * * * * * * * * * * * * * * * * * * * * * * * * * * * * * * * * //

dimensions      [0 1 -1 0 0 0 0];

internalField   nonuniform List<vector> 
400
(
(0 0 0)
(9.88173e-11 -5.21442e-08 0)
(4.2097e-11 -3.97649e-08 0)
(6.60823e-11 -4.27049e-08 0)
(5.66136e-11 -4.2007e-08 0)
(5.93959e-11 -4.2173e-08 0)
(5.82676e-11 -4.21336e-08 0)
(5.84981e-11 -4.2143e-08 0)
(5.8354e-11 -4.21408e-08 0)
(5.83519e-11 -4.21413e-08 0)
(5.8322e-11 -4.21412e-08 0)
(5.83097e-11 -4.21412e-08 0)
(5.82984e-11 -4.21412e-08 0)
(5.82908e-11 -4.21412e-08 0)
(5.82852e-11 -4.21412e-08 0)
(5.8281e-11 -4.21412e-08 0)
(5.82785e-11 -4.21412e-08 0)
(5.82762e-11 -4.21412e-08 0)
(5.82749e-11 -4.21412e-08 0)
(5.82743e-11 -4.21412e-08 0)
(8.09863e-11 -8.4265e-08 0)
(5.5286e-11 -3.21402e-08 0)
(5.9436e-11 -4.45106e-08 0)
(5.8812e-11 -4.1578e-08 0)
(5.84524e-11 -4.22741e-08 0)
(5.85669e-11 -4.21094e-08 0)
(5.84145e-11 -4.21486e-08 0)
(5.84042e-11 -4.21394e-08 0)
(5.83559e-11 -4.21416e-08 0)
(5.83366e-11 -4.21411e-08 0)
(5.83174e-11 -4.21412e-08 0)
(5.83057e-11 -4.21412e-08 0)
(5.82961e-11 -4.21412e-08 0)
(5.82896e-11 -4.21412e-08 0)
(5.82844e-11 -4.21412e-08 0)
(5.82808e-11 -4.21412e-08 0)
(5.82778e-11 -4.21412e-08 0)
(5.82761e-11 -4.21412e-08 0)
(5.82751e-11 -4.21412e-08 0)
(5.82743e-11 -4.21412e-08 0)
(7.88436e-12 -9.57252e-11 0)
(6.28666e-11 -5.21135e-08 0)
(5.46638e-11 -3.97748e-08 0)
(5.82114e-11 -4.27017e-08 0)
(5.82534e-11 -4.20077e-08 0)
(5.83508e-11 -4.21725e-08 0)
(5.83674e-11 -4.21336e-08 0)
(5.83444e-11 -4.21429e-08 0)
(5.83332e-11 -4.21407e-08 0)
(5.83182e-11 -4.21413e-08 0)
(5.83079e-11 -4.21412e-08 0)
(5.8299e-11 -4.21412e-08 0)
(5.82921e-11 -4.21412e-08 0)
(5.82869e-11 -4.21412e-08 0)
(5.82828e-11 -4.21412e-08 0)
(5.82797e-11 -4.21412e-08 0)
(5.82775e-11 -4.21412e-08 0)
(5.82758e-11 -4.21412e-08 0)
(5.82748e-11 -4.21412e-08 0)
(5.82745e-11 -4.21412e-08 0)
(1.44642e-11 -8.41359e-08 0)
(7.44343e-11 -3.2187e-08 0)
(5.32652e-11 -4.45012e-08 0)
(6.00853e-11 -4.15813e-08 0)
(5.7629e-11 -4.22735e-08 0)
(5.84566e-11 -4.21096e-08 0)
(5.82283e-11 -4.21485e-08 0)
(5.83209e-11 -4.21393e-08 0)
(5.82963e-11 -4.21416e-08 0)
(5.83013e-11 -4.21411e-08 0)
(5.82941e-11 -4.21412e-08 0)
(5.82903e-11 -4.21412e-08 0)
(5.82865e-11 -4.21412e-08 0)
(5.82832e-11 -4.21412e-08 0)
(5.82807e-11 -4.21412e-08 0)
(5.82784e-11 -4.21412e-08 0)
(5.82767e-11 -4.21412e-08 0)
(5.82755e-11 -4.21412e-08 0)
(5.82747e-11 -4.21412e-08 0)
(5.82743e-11 -4.21412e-08 0)
(1.98878e-10 -1.9197e-10 0)
(1.95846e-11 -5.20805e-08 0)
(7.12345e-11 -3.97842e-08 0)
(5.39979e-11 -4.26995e-08 0)
(5.93503e-11 -4.20087e-08 0)
(5.78309e-11 -4.21724e-08 0)
(5.83633e-11 -4.21337e-08 0)
(5.82345e-11 -4.21429e-08 0)
(5.82888e-11 -4.21407e-08 0)
(5.82789e-11 -4.21413e-08 0)
(5.82835e-11 -4.21412e-08 0)
(5.82818e-11 -4.21412e-08 0)
(5.8281e-11 -4.21412e-08 0)
(5.82795e-11 -4.21412e-08 0)
(5.8278e-11 -4.21412e-08 0)
(5.82768e-11 -4.21412e-08 0)
(5.82758e-11 -4.21412e-08 0)
(5.82749e-11 -4.21412e-08 0)
(5.82743e-11 -4.21412e-08 0)
(5.82747e-11 -4.21412e-08 0)
(-2.10651e-10 -8.40574e-08 0)
(1.24177e-10 -3.22119e-08 0)
(3.33826e-11 -4.44955e-08 0)
(6.4783e-11 -4.15833e-08 0)
(5.61318e-11 -4.22732e-08 0)
(5.88227e-11 -4.21098e-08 0)
(5.80482e-11 -4.21485e-08 0)
(5.83016e-11 -4.21394e-08 0)
(5.82443e-11 -4.21416e-08 0)
(5.82727e-11 -4.21411e-08 0)
(5.82707e-11 -4.21412e-08 0)
(5.82743e-11 -4.21412e-08 0)
(5.82746e-11 -4.21412e-08 0)
(5.82751e-11 -4.21412e-08 0)
(5.82753e-11 -4.21412e-08 0)
(5.82751e-11 -4.21412e-08 0)
(5.82749e-11 -4.21412e-08 0)
(5.82745e-11 -4.21412e-08 0)
(5.82745e-11 -4.21412e-08 0)
(5.82745e-11 -4.21412e-08 0)
(4.46019e-10 -2.5449e-10 0)
(-3.33431e-11 -5.20634e-08 0)
(9.34928e-11 -3.97884e-08 0)
(4.90208e-11 -4.26985e-08 0)
(6.09424e-11 -4.20091e-08 0)
(5.73304e-11 -4.21724e-08 0)
(5.84529e-11 -4.21337e-08 0)
(5.81621e-11 -4.21429e-08 0)
(5.82698e-11 -4.21407e-08 0)
(5.82518e-11 -4.21413e-08 0)
(5.82665e-11 -4.21412e-08 0)
(5.82681e-11 -4.21412e-08 0)
(5.82714e-11 -4.21412e-08 0)
(5.82725e-11 -4.21412e-08 0)
(5.82734e-11 -4.21412e-08 0)
(5.82738e-11 -4.21412e-08 0)
(5.82743e-11 -4.21412e-08 0)
(5.82743e-11 -4.21412e-08 0)
(5.82745e-11 -4.21412e-08 0)
(5.82746e-11 -4.21412e-08 0)
(-4.44041e-10 -8.40074e-08 0)
(1.73481e-10 -3.2223e-08 0)
(1.24805e-11 -4.4493e-08 0)
(6.94603e-11 -4.1584e-08 0)
(5.46456e-11 -4.22732e-08 0)
(5.92542e-11 -4.21099e-08 0)
(5.79148e-11 -4.21486e-08 0)
(5.83169e-11 -4.21394e-08 0)
(5.82148e-11 -4.21416e-08 0)
(5.82585e-11 -4.21411e-08 0)
(5.82563e-11 -4.21412e-08 0)
(5.82645e-11 -4.21412e-08 0)
(5.82674e-11 -4.21412e-08 0)
(5.82703e-11 -4.21412e-08 0)
(5.82718e-11 -4.21412e-08 0)
(5.82729e-11 -4.21412e-08 0)
(5.82738e-11 -4.21412e-08 0)
(5.82743e-11 -4.21412e-08 0)
(5.82743e-11 -4.21412e-08 0)
(5.82746e-11 -4.21412e-08 0)
(6.57448e-10 -2.90543e-10 0)
(-7.75657e-11 -5.20576e-08 0)
(1.12559e-10 -3.97897e-08 0)
(4.48872e-11 -4.26984e-08 0)
(6.23243e-11 -4.20091e-08 0)
(5.69356e-11 -4.21725e-08 0)
(5.85519e-11 -4.21338e-08 0)
(5.81191e-11 -4.21429e-08 0)
(5.82669e-11 -4.21408e-08 0)
(5.82383e-11 -4.21413e-08 0)
(5.8257e-11 -4.21412e-08 0)
(5.82596e-11 -4.21412e-08 0)
(5.82649e-11 -4.21412e-08 0)
(5.82681e-11 -4.21412e-08 0)
(5.82701e-11 -4.21412e-08 0)
(5.82718e-11 -4.21412e-08 0)
(5.82729e-11 -4.21412e-08 0)
(5.82736e-11 -4.21412e-08 0)
(5.82743e-11 -4.21412e-08 0)
(5.82746e-11 -4.21412e-08 0)
(-6.17308e-10 -8.39834e-08 0)
(2.09422e-10 -3.22247e-08 0)
(-3.04157e-12 -4.44928e-08 0)
(7.28501e-11 -4.15839e-08 0)
(5.35532e-11 -4.22733e-08 0)
(5.95828e-11 -4.21099e-08 0)
(5.7832e-11 -4.21486e-08 0)
(5.83398e-11 -4.21394e-08 0)
(5.8203e-11 -4.21416e-08 0)
(5.82554e-11 -4.21411e-08 0)
(5.82505e-11 -4.21412e-08 0)
(5.82603e-11 -4.21412e-08 0)
(5.82636e-11 -4.21412e-08 0)
(5.82674e-11 -4.21412e-08 0)
(5.82701e-11 -4.21412e-08 0)
(5.82716e-11 -4.21412e-08 0)
(5.82727e-11 -4.21412e-08 0)
(5.82736e-11 -4.21412e-08 0)
(5.82741e-11 -4.21412e-08 0)
(5.82747e-11 -4.21412e-08 0)
(7.89408e-10 -3.03165e-10 0)
(-1.04625e-10 -5.20594e-08 0)
(1.2442e-10 -3.97892e-08 0)
(4.23819e-11 -4.26988e-08 0)
(6.31841e-11 -4.2009e-08 0)
(5.67033e-11 -4.21726e-08 0)
(5.86206e-11 -4.21338e-08 0)
(5.81011e-11 -4.2143e-08 0)
(5.82718e-11 -4.21408e-08 0)
(5.8235e-11 -4.21413e-08 0)
(5.82558e-11 -4.21412e-08 0)
(5.82578e-11 -4.21412e-08 0)
(5.82632e-11 -4.21412e-08 0)
(5.82667e-11 -4.21412e-08 0)
(5.82692e-11 -4.21412e-08 0)
(5.82716e-11 -4.21412e-08 0)
(5.82727e-11 -4.21412e-08 0)
(5.82741e-11 -4.21412e-08 0)
(5.82743e-11 -4.21412e-08 0)
(5.82745e-11 -4.21412e-08 0)
(-7.00305e-10 -8.39795e-08 0)
(2.26006e-10 -3.22204e-08 0)
(-1.04108e-11 -4.4494e-08 0)
(7.43916e-11 -4.15833e-08 0)
(5.30516e-11 -4.22735e-08 0)
(5.97369e-11 -4.21098e-08 0)
(5.77998e-11 -4.21487e-08 0)
(5.8355e-11 -4.21395e-08 0)
(5.82019e-11 -4.21416e-08 0)
(5.8257e-11 -4.21411e-08 0)
(5.82503e-11 -4.21412e-08 0)
(5.82598e-11 -4.21412e-08 0)
(5.82634e-11 -4.21412e-08 0)
(5.82667e-11 -4.21412e-08 0)
(5.82694e-11 -4.21412e-08 0)
(5.82712e-11 -4.21412e-08 0)
(5.82727e-11 -4.21412e-08 0)
(5.82736e-11 -4.21412e-08 0)
(5.82741e-11 -4.21412e-08 0)
(5.82745e-11 -4.21412e-08 0)
(8.21945e-10 -2.99953e-10 0)
(-1.10411e-10 -5.20655e-08 0)
(1.27231e-10 -3.97875e-08 0)
(4.18803e-11 -4.26995e-08 0)
(6.33681e-11 -4.20088e-08 0)
(5.66642e-11 -4.21726e-08 0)
(5.86398e-11 -4.21338e-08 0)
(5.8104e-11 -4.2143e-08 0)
(5.82775e-11 -4.21408e-08 0)
(5.82383e-11 -4.21413e-08 0)
(5.82583e-11 -4.21412e-08 0)
(5.82592e-11 -4.21412e-08 0)
(5.82641e-11 -4.21412e-08 0)
(5.82669e-11 -4.21412e-08 0)
(5.82698e-11 -4.21412e-08 0)
(5.82714e-11 -4.21412e-08 0)
(5.82727e-11 -4.21412e-08 0)
(5.82734e-11 -4.21412e-08 0)
(5.82743e-11 -4.21412e-08 0)
(5.82745e-11 -4.21412e-08 0)
(-6.81291e-10 -8.39872e-08 0)
(2.20718e-10 -3.22132e-08 0)
(-8.53162e-12 -4.44959e-08 0)
(7.38549e-11 -4.15826e-08 0)
(5.32332e-11 -4.22738e-08 0)
(5.96942e-11 -4.21098e-08 0)
(5.78266e-11 -4.21487e-08 0)
(5.836e-11 -4.21395e-08 0)
(5.82114e-11 -4.21417e-08 0)
(5.82625e-11 -4.21411e-08 0)
(5.82554e-11 -4.21412e-08 0)
(5.82632e-11 -4.21412e-08 0)
(5.82656e-11 -4.21412e-08 0)
(5.82683e-11 -4.21412e-08 0)
(5.82703e-11 -4.21412e-08 0)
(5.82716e-11 -4.21412e-08 0)
(5.82729e-11 -4.21412e-08 0)
(5.82738e-11 -4.21412e-08 0)
(5.82743e-11 -4.21412e-08 0)
(5.82746e-11 -4.21412e-08 0)
(7.51067e-10 -2.89214e-10 0)
(-9.39748e-11 -5.20731e-08 0)
(1.20609e-10 -3.97856e-08 0)
(4.34774e-11 -4.27002e-08 0)
(6.28471e-11 -4.20086e-08 0)
(5.68319e-11 -4.21727e-08 0)
(5.861e-11 -4.21338e-08 0)
(5.81304e-11 -4.2143e-08 0)
(5.82853e-11 -4.21408e-08 0)
(5.8249e-11 -4.21413e-08 0)
(5.82647e-11 -4.21412e-08 0)
(5.82643e-11 -4.21412e-08 0)
(5.82674e-11 -4.21412e-08 0)
(5.82696e-11 -4.21412e-08 0)
(5.82712e-11 -4.21412e-08 0)
(5.82723e-11 -4.21412e-08 0)
(5.82734e-11 -4.21412e-08 0)
(5.82736e-11 -4.21412e-08 0)
(5.82745e-11 -4.21412e-08 0)
(5.82745e-11 -4.21412e-08 0)
(-5.64866e-10 -8.39985e-08 0)
(1.9439e-10 -3.22059e-08 0)
(2.19158e-12 -4.44979e-08 0)
(7.13206e-11 -4.1582e-08 0)
(5.40781e-11 -4.2274e-08 0)
(5.94692e-11 -4.21098e-08 0)
(5.79137e-11 -4.21487e-08 0)
(5.83575e-11 -4.21395e-08 0)
(5.82321e-11 -4.21417e-08 0)
(5.82725e-11 -4.21411e-08 0)
(5.82638e-11 -4.21413e-08 0)
(5.82689e-11 -4.21412e-08 0)
(5.82701e-11 -4.21412e-08 0)
(5.82716e-11 -4.21412e-08 0)
(5.82721e-11 -4.21412e-08 0)
(5.82729e-11 -4.21412e-08 0)
(5.82738e-11 -4.21412e-08 0)
(5.82741e-11 -4.21412e-08 0)
(5.82745e-11 -4.21412e-08 0)
(5.82746e-11 -4.21412e-08 0)
(5.88514e-10 -2.77678e-10 0)
(-5.77103e-11 -5.20797e-08 0)
(1.05645e-10 -3.97841e-08 0)
(4.69857e-11 -4.27009e-08 0)
(6.17242e-11 -4.20085e-08 0)
(5.72034e-11 -4.21728e-08 0)
(5.85475e-11 -4.21338e-08 0)
(5.81837e-11 -4.2143e-08 0)
(5.82958e-11 -4.21408e-08 0)
(5.82645e-11 -4.21413e-08 0)
(5.82738e-11 -4.21412e-08 0)
(5.82716e-11 -4.21412e-08 0)
(5.82723e-11 -4.21412e-08 0)
(5.82725e-11 -4.21412e-08 0)
(5.82732e-11 -4.21412e-08 0)
(5.82736e-11 -4.21412e-08 0)
(5.82743e-11 -4.21412e-08 0)
(5.82743e-11 -4.21412e-08 0)
(5.82747e-11 -4.21412e-08 0)
(5.82745e-11 -4.21412e-08 0)
(-3.73803e-10 -8.40077e-08 0)
(1.51723e-10 -3.22009e-08 0)
(1.97575e-11 -4.44998e-08 0)
(6.72788e-11 -4.15816e-08 0)
(5.54714e-11 -4.22743e-08 0)
(5.91416e-11 -4.21098e-08 0)
(5.8062e-11 -4.21488e-08 0)
(5.8357e-11 -4.21395e-08 0)
(5.82623e-11 -4.21417e-08 0)
(5.82847e-11 -4.21411e-08 0)
(5.82752e-11 -4.21413e-08 0)
(5.82757e-11 -4.21412e-08 0)
(5.82743e-11 -4.21412e-08 0)
(5.82743e-11 -4.21412e-08 0)
(5.82743e-11 -4.21412e-08 0)
(5.82741e-11 -4.21412e-08 0)
(5.82743e-11 -4.21412e-08 0)
(5.82745e-11 -4.21412e-08 0)
(5.82745e-11 -4.21412e-08 0)
(5.82745e-11 -4.21412e-08 0)
(3.67861e-10 -2.67385e-10 0)
(-9.72022e-12 -5.20849e-08 0)
(8.54937e-11 -3.9784e-08 0)
(5.21205e-11 -4.27009e-08 0)
(6.02631e-11 -4.20086e-08 0)
(5.77902e-11 -4.21728e-08 0)
(5.84613e-11 -4.21338e-08 0)
(5.82623e-11 -4.2143e-08 0)
(5.83039e-11 -4.21408e-08 0)
(5.82829e-11 -4.21413e-08 0)
(5.8282e-11 -4.21412e-08 0)
(5.82782e-11 -4.21412e-08 0)
(5.82766e-11 -4.21412e-08 0)
(5.82752e-11 -4.21412e-08 0)
(5.82745e-11 -4.21412e-08 0)
(5.82745e-11 -4.21412e-08 0)
(5.82741e-11 -4.21412e-08 0)
(5.82745e-11 -4.21412e-08 0)
(5.82745e-11 -4.21412e-08 0)
(5.82746e-11 -4.21412e-08 0)
(-1.48664e-10 -8.40224e-08 0)
(1.2953e-10 -3.21848e-08 0)
(2.78668e-11 -4.45051e-08 0)
(6.83418e-11 -4.15795e-08 0)
(5.52185e-11 -4.22749e-08 0)
(5.94164e-11 -4.21095e-08 0)
(5.80276e-11 -4.21488e-08 0)
(5.84108e-11 -4.21394e-08 0)
(5.82696e-11 -4.21417e-08 0)
(5.82973e-11 -4.21411e-08 0)
(5.82803e-11 -4.21412e-08 0)
(5.82797e-11 -4.21412e-08 0)
(5.82766e-11 -4.21412e-08 0)
(5.82757e-11 -4.21412e-08 0)
(5.82752e-11 -4.21412e-08 0)
(5.82746e-11 -4.21412e-08 0)
(5.82747e-11 -4.21412e-08 0)
(5.82746e-11 -4.21412e-08 0)
(5.82751e-11 -4.21412e-08 0)
(5.82748e-11 -4.21412e-08 0)
)
;

boundaryField
{
    movingWall
    {
        type            calculated;
        value           uniform (5.82745e-11 -4.21412e-08 0);
    }
    fixedWalls
    {
        type            calculated;
        value           uniform (5.82745e-11 -4.21412e-08 0);
    }
    frontAndBack
    {
        type            empty;
    }
}


// ************************************************************************* //
