/*--------------------------------*- C++ -*----------------------------------*\
| =========                 |                                                 |
| \\      /  F ield         | OpenFOAM: The Open Source CFD Toolbox           |
|  \\    /   O peration     | Version:  2506                                  |
|   \\  /    A nd           | Website:  www.openfoam.com                      |
|    \\/     M anipulation  |                                                 |
\*---------------------------------------------------------------------------*/
FoamFile
{
    version     2.0;
    format      ascii;
    arch        "LSB;label=32;scalar=64";
    class       volScalarField;
    location    "4.125";
    object      divU;
}
// * * * * * * * * * * * * * * * * * * * * * * * * * * * * * * * * * * * * * //

dimensions      [0 0 -1 0 0 0 0];

internalField   nonuniform List<scalar> 
400
(
-3.07642e-11
4.01278e-09
-2.57591e-09
1.40411e-09
-5.38586e-10
1.73909e-10
-6.2932e-11
1.73505e-11
-6.39827e-12
1.48681e-12
-6.64429e-13
4.89618e-14
-9.51145e-14
-2.54029e-14
-5.45765e-15
-1.05595e-15
-3.845e-16
-8.67393e-15
-4.37639e-16
0
-7.60015e-09
9.1666e-10
-6.43452e-10
2.2283e-10
-9.30501e-11
3.99907e-11
-1.20224e-11
4.63065e-12
-1.67569e-12
3.68016e-13
-2.08336e-13
-1.29746e-14
-2.0761e-14
-8.51257e-15
8.97353e-15
-1.20505e-14
-3.80286e-14
-1.03326e-15
4.3646e-15
0
8.32871e-09
4.69434e-12
4.69968e-10
2.86524e-11
7.32406e-11
-4.55819e-12
6.18512e-12
-6.15642e-13
6.06882e-13
-3.80125e-14
5.35061e-14
-4.22044e-14
-2.49257e-14
-1.20617e-14
-1.36721e-14
-1.00661e-14
6.94061e-15
-1.14662e-14
3.75148e-15
0
-1.23896e-08
7.17532e-09
-2.37054e-09
6.56306e-10
-2.5847e-10
7.12649e-11
-2.24354e-11
7.96585e-12
-1.77627e-12
8.41157e-13
-1.54655e-13
8.98718e-14
1.22987e-14
1.45613e-14
4.47061e-14
-1.59897e-14
1.02063e-14
-1.91937e-14
4.25685e-15
2.71051e-14
1.8042e-08
-1.52617e-08
4.01764e-09
-1.38501e-09
4.12547e-10
-1.19926e-10
3.81763e-11
-1.08196e-11
3.55193e-12
-8.88156e-13
4.21583e-13
-3.02483e-14
7.27291e-14
-5.65081e-14
-2.39348e-14
3.85242e-14
5.67734e-15
-1.86502e-14
4.09466e-14
0
-2.65542e-08
2.61099e-08
-6.36086e-09
2.37017e-09
-6.34156e-10
1.90146e-10
-5.92312e-11
1.67096e-11
-4.98126e-12
1.58772e-12
-4.44507e-13
1.55516e-13
-3.62737e-14
6.84454e-14
3.10562e-14
3.07574e-14
1.0038e-14
2.92268e-15
8.24321e-15
-2.71051e-14
3.46163e-08
-3.63563e-08
8.48171e-09
-3.32107e-09
8.34443e-10
-2.57885e-10
7.87612e-11
-2.17371e-11
6.60639e-12
-1.85188e-12
6.38793e-13
-2.01462e-13
1.12037e-13
-5.50642e-14
-2.77131e-14
2.9142e-14
-1.13707e-14
3.89681e-14
3.46653e-14
-2.71051e-14
-4.23163e-08
4.62319e-08
-1.05324e-08
4.22894e-09
-1.02708e-09
3.21463e-10
-9.74614e-11
2.66403e-11
-8.17212e-12
2.38277e-12
-6.96707e-13
2.65011e-13
-3.96712e-14
2.52209e-14
-2.86283e-14
3.08023e-14
2.11433e-15
-2.75702e-14
2.62322e-14
-2.71051e-14
4.87276e-08
-5.46596e-08
1.2266e-08
-5.01428e-09
1.19276e-09
-3.78522e-10
1.13844e-10
-3.10901e-11
9.46667e-12
-2.73514e-12
7.65498e-13
-1.99856e-13
7.65092e-14
9.0593e-15
-2.10895e-14
2.09309e-14
-1.91257e-14
7.32886e-14
4.17052e-15
-2.71051e-14
-5.37057e-08
6.12548e-08
-1.36015e-08
5.61988e-09
-1.316e-09
4.20288e-10
-1.25855e-10
3.40919e-11
-1.0448e-11
2.95575e-12
-8.41573e-13
2.82649e-13
-8.02056e-14
3.71743e-14
2.84441e-14
-4.04163e-14
-4.14601e-14
-1.25773e-14
5.26051e-14
0
5.72175e-08
-6.60694e-08
1.4579e-08
-6.0709e-09
1.41072e-09
-4.53607e-10
1.35273e-10
-3.6712e-11
1.12213e-11
-3.2075e-12
9.33276e-13
-2.64965e-13
9.34374e-14
-2.30429e-14
8.18443e-14
-7.02715e-14
4.78199e-14
6.30983e-15
-7.43175e-14
2.71051e-14
-5.87636e-08
6.83766e-08
-1.49994e-08
6.27789e-09
-1.44659e-09
4.65887e-10
-1.38725e-10
3.74112e-11
-1.15202e-11
3.2496e-12
-9.67416e-13
3.22119e-13
-5.48608e-14
-4.12676e-15
1.54492e-14
-3.38217e-14
1.75981e-14
-1.67484e-14
8.77492e-15
2.71051e-14
5.87312e-08
-6.87501e-08
1.50377e-08
-6.31608e-09
1.4524e-09
-4.68897e-10
1.39443e-10
-3.76627e-11
1.15106e-11
-3.25653e-12
9.47578e-13
-3.24593e-13
8.74022e-14
-7.23401e-15
6.27554e-14
-3.25706e-14
-4.31798e-14
5.27754e-15
5.11261e-14
-2.71051e-14
-5.66383e-08
6.65166e-08
-1.44927e-08
6.10047e-09
-1.39694e-09
4.49855e-10
-1.33878e-10
3.59596e-11
-1.1153e-11
3.11898e-12
-8.10483e-13
2.56028e-13
-5.85491e-14
-2.26082e-14
8.7076e-15
1.09316e-14
2.87064e-14
-1.05869e-14
-9.35262e-15
-2.71051e-14
5.29213e-08
-6.2321e-08
1.35491e-08
-5.71345e-09
1.30924e-09
-4.21015e-10
1.25371e-10
-3.37156e-11
1.0401e-11
-2.96025e-12
8.41257e-13
-2.5564e-13
9.60619e-14
4.84404e-14
-4.63765e-14
2.17601e-14
4.24044e-15
-2.43442e-14
-1.12837e-15
0
-4.75488e-08
5.60479e-08
-1.21521e-08
5.12272e-09
-1.17413e-09
3.74906e-10
-1.12042e-10
3.01348e-11
-9.22637e-12
2.62388e-12
-7.61363e-13
2.17485e-13
-5.42282e-15
2.9309e-15
-5.88151e-14
9.24605e-15
2.35481e-14
-5.35502e-14
3.44428e-14
-2.71051e-14
4.05018e-08
-4.77852e-08
1.02822e-08
-4.35285e-09
9.9554e-10
-3.14736e-10
9.48875e-11
-2.49636e-11
7.77109e-12
-2.17275e-12
6.4821e-13
-2.34184e-13
5.04983e-14
-2.32891e-14
2.20889e-14
4.23035e-14
-5.42086e-14
7.67004e-15
1.49781e-14
0
-3.28337e-08
3.88281e-08
-8.4388e-09
3.57397e-09
-8.25346e-10
2.6483e-10
-7.94902e-11
2.18634e-11
-6.72561e-12
1.95371e-12
-5.51734e-13
1.2603e-13
-3.73294e-14
3.88623e-14
1.13341e-14
-4.53685e-14
-1.88018e-14
2.35284e-14
-2.88815e-14
0
2.26976e-08
-2.66267e-08
5.64962e-09
-2.30745e-09
5.05373e-10
-1.52677e-10
4.44739e-11
-1.10161e-11
3.15394e-12
-8.78177e-13
1.51852e-13
-1.09127e-13
-2.32937e-14
-8.86061e-14
2.87766e-14
-2.4901e-14
-1.21689e-14
1.50668e-14
1.38633e-14
0
-1.28378e-08
1.63842e-08
-5.45142e-09
2.52438e-09
-7.80436e-10
2.60751e-10
-8.38901e-11
2.46114e-11
-8.0231e-12
2.1684e-12
-7.86047e-13
1.35525e-13
-8.13152e-14
2.71051e-14
-2.71051e-14
0
-2.71051e-14
0
2.71051e-14
-5.42101e-14
)
;

boundaryField
{
    movingWall
    {
        type            extrapolatedCalculated;
        value           nonuniform List<scalar> 
20
(
-1.28378e-08
1.63842e-08
-5.45142e-09
2.52438e-09
-7.80436e-10
2.60751e-10
-8.38901e-11
2.46114e-11
-8.0231e-12
2.1684e-12
-7.86047e-13
1.35525e-13
-8.13152e-14
2.71051e-14
-2.71051e-14
0
-2.71051e-14
0
2.71051e-14
-5.42101e-14
)
;
    }
    fixedWalls
    {
        type            extrapolatedCalculated;
        value           nonuniform List<scalar> 
60
(
-3.07642e-11
-7.60015e-09
8.32871e-09
-1.23896e-08
1.8042e-08
-2.65542e-08
3.46163e-08
-4.23163e-08
4.87276e-08
-5.37057e-08
5.72175e-08
-5.87636e-08
5.87312e-08
-5.66383e-08
5.29213e-08
-4.75488e-08
4.05018e-08
-3.28337e-08
2.26976e-08
-1.28378e-08
0
0
0
2.71051e-14
0
-2.71051e-14
-2.71051e-14
-2.71051e-14
-2.71051e-14
0
2.71051e-14
2.71051e-14
-2.71051e-14
-2.71051e-14
0
-2.71051e-14
0
0
0
-5.42101e-14
-3.07642e-11
4.01278e-09
-2.57591e-09
1.40411e-09
-5.38586e-10
1.73909e-10
-6.2932e-11
1.73505e-11
-6.39827e-12
1.48681e-12
-6.64429e-13
4.89618e-14
-9.51145e-14
-2.54029e-14
-5.45765e-15
-1.05595e-15
-3.845e-16
-8.67393e-15
-4.37639e-16
0
)
;
    }
    frontAndBack
    {
        type            empty;
    }
}


// ************************************************************************* //
