/*--------------------------------*- C++ -*----------------------------------*\
| =========                 |                                                 |
| \\      /  F ield         | OpenFOAM: The Open Source CFD Toolbox           |
|  \\    /   O peration     | Version:  2506                                  |
|   \\  /    A nd           | Website:  www.openfoam.com                      |
|    \\/     M anipulation  |                                                 |
\*---------------------------------------------------------------------------*/
FoamFile
{
    version     2.0;
    format      ascii;
    arch        "LSB;label=32;scalar=64";
    class       volScalarField;
    location    "4.125";
    object      enstrophyField;
}
// * * * * * * * * * * * * * * * * * * * * * * * * * * * * * * * * * * * * * //

dimensions      [0 0 -2 0 0 0 0];

internalField   nonuniform List<scalar> 
400
(
5.17578e-12
7.92117e-12
4.46918e-13
2.53238e-14
1.42269e-15
8.18964e-17
4.4507e-18
2.82921e-19
1.1518e-20
1.5292e-21
3.69882e-27
4.37576e-23
9.30958e-24
6.14304e-24
2.34452e-24
1.00346e-24
3.28261e-25
7.13677e-26
1.32029e-26
1.80124e-30
5.16191e-12
7.91637e-12
4.46545e-13
2.51856e-14
1.42054e-15
8.0113e-17
4.5197e-18
2.54646e-19
1.4422e-20
8.01208e-22
4.81045e-23
2.07407e-24
2.78782e-25
7.03129e-27
3.83072e-26
2.09249e-26
1.0663e-26
2.38845e-26
2.58643e-26
2.47461e-26
5.16483e-12
7.87976e-12
4.43488e-13
2.49572e-14
1.40443e-15
7.90392e-17
4.44661e-18
2.50452e-19
1.40367e-20
8.04319e-22
4.217e-23
2.99007e-24
2.78876e-26
7.75316e-26
5.21826e-26
4.597e-26
5.47275e-26
4.75096e-26
5.39973e-26
3.24591e-26
5.19434e-12
7.87171e-12
4.42827e-13
2.49076e-14
1.40096e-15
7.87896e-17
4.43244e-18
2.49e-19
1.40762e-20
7.7479e-22
4.70728e-23
1.86886e-24
3.9042e-25
3.01319e-26
7.20783e-26
6.25864e-26
6.0617e-26
6.94018e-26
8.5262e-26
5.25113e-26
5.1955e-12
7.85743e-12
4.41884e-13
2.48462e-14
1.39696e-15
7.85485e-17
4.4146e-18
2.48556e-19
1.38955e-20
7.99713e-22
4.03084e-23
3.39724e-24
2.24783e-26
9.10949e-26
5.39554e-26
8.50941e-26
9.72687e-26
1.12169e-25
1.53142e-25
8.08967e-26
5.19518e-12
7.8467e-12
4.41199e-13
2.48027e-14
1.39431e-15
7.83713e-17
4.40724e-18
2.4727e-19
1.39978e-20
7.65942e-22
4.85655e-23
1.56623e-24
4.70572e-25
5.13115e-26
9.84933e-26
9.04021e-26
1.04135e-25
1.50254e-25
1.8376e-25
6.3993e-26
5.18353e-12
7.83416e-12
4.40467e-13
2.47604e-14
1.39179e-15
7.82414e-17
4.39625e-18
2.4747e-19
1.3831e-20
7.96609e-22
3.99465e-23
3.76478e-24
6.51053e-29
2.24061e-25
1.06361e-25
1.20184e-25
1.21544e-25
1.44621e-25
1.55869e-25
8.54103e-26
5.17112e-12
7.82441e-12
4.39925e-13
2.47301e-14
1.39019e-15
7.81398e-17
4.39373e-18
2.46631e-19
1.39365e-20
7.64307e-22
4.67846e-23
1.73889e-24
4.0436e-25
5.70182e-26
1.17403e-25
8.60939e-26
8.76575e-26
1.39107e-25
1.77394e-25
7.09146e-26
5.15447e-12
7.81513e-12
4.3943e-13
2.47042e-14
1.38878e-15
7.80795e-17
4.3877e-18
2.46989e-19
1.37923e-20
7.99902e-22
3.9218e-23
3.64129e-24
4.07632e-27
1.48911e-25
8.17363e-26
1.00697e-25
7.94441e-26
7.8844e-26
1.56924e-25
5.65978e-26
5.13847e-12
7.80824e-12
4.39081e-13
2.46866e-14
1.38799e-15
7.80311e-17
4.38851e-18
2.46402e-19
1.39317e-20
7.66629e-22
4.76626e-23
1.75614e-24
3.90961e-25
2.04806e-26
8.99167e-26
8.67899e-26
6.55894e-26
1.25589e-25
1.14006e-25
3.79168e-26
5.12093e-12
7.80227e-12
4.3879e-13
2.46731e-14
1.38735e-15
7.80143e-17
4.38609e-18
2.46864e-19
1.38201e-20
7.8971e-22
4.13699e-23
3.11276e-24
1.58426e-26
1.00308e-25
3.12086e-26
3.8279e-26
4.952e-26
7.24056e-26
9.82022e-26
1.98443e-26
5.10401e-12
7.7978e-12
4.38586e-13
2.46643e-14
1.38706e-15
7.80019e-17
4.3874e-18
2.46603e-19
1.39054e-20
7.71969e-22
4.55223e-23
2.07007e-24
2.60734e-25
1.33031e-27
4.87939e-26
2.37879e-26
2.10173e-26
2.63323e-26
7.30306e-26
1.64448e-26
5.08741e-12
7.79426e-12
4.38433e-13
2.46587e-14
1.38688e-15
7.80105e-17
4.38668e-18
2.46945e-19
1.38451e-20
7.87675e-22
4.17243e-23
2.87068e-24
6.79981e-26
4.86064e-26
1.13983e-26
1.73553e-26
1.70162e-26
2.2688e-26
5.70247e-26
1.09339e-26
5.07117e-12
7.7913e-12
4.38312e-13
2.46545e-14
1.38684e-15
7.80117e-17
4.38895e-18
2.46738e-19
1.39248e-20
7.72998e-22
4.49617e-23
2.21582e-24
1.76133e-25
7.26482e-28
1.05708e-26
1.52089e-27
5.29766e-27
1.17756e-26
4.26036e-26
2.10978e-27
5.05739e-12
7.78943e-12
4.38245e-13
2.46531e-14
1.38689e-15
7.80273e-17
4.38943e-18
2.47085e-19
1.38724e-20
7.85224e-22
4.4035e-23
2.52603e-24
8.95927e-26
3.05023e-26
7.1816e-28
1.42458e-26
5.86665e-27
1.21128e-26
1.57452e-26
7.38685e-29
5.04331e-12
7.78717e-12
4.38151e-13
2.46498e-14
1.38683e-15
7.8029e-17
4.39089e-18
2.46997e-19
1.39145e-20
7.82334e-22
4.40903e-23
2.25972e-24
1.84293e-25
5.46564e-27
2.45677e-27
1.33331e-27
5.04151e-27
7.29314e-27
1.17987e-26
1.82925e-28
5.03525e-12
7.78692e-12
4.38159e-13
2.46516e-14
1.38702e-15
7.80465e-17
4.39186e-18
2.47145e-19
1.39146e-20
7.83081e-22
4.31334e-23
2.44252e-24
1.69533e-25
8.55955e-27
2.46458e-28
3.27227e-28
7.07558e-28
1.68589e-27
3.75714e-27
2.74702e-28
5.02622e-12
7.78545e-12
4.38098e-13
2.46494e-14
1.38696e-15
7.80475e-17
4.39197e-18
2.4722e-19
1.38973e-20
7.81164e-22
4.42684e-23
2.37993e-24
1.89325e-25
5.24601e-27
2.11441e-27
5.66009e-28
4.08417e-27
1.95198e-27
7.02558e-28
5.22542e-30
5.02603e-12
7.79905e-12
4.39542e-13
2.47689e-14
1.39587e-15
7.86684e-17
4.43433e-18
2.49885e-19
1.41035e-20
7.93236e-22
4.51837e-23
2.44074e-24
1.54169e-25
3.27015e-27
3.98e-27
6.72578e-28
1.18035e-27
4.17988e-28
4.57768e-27
1.94008e-29
5.06323e-12
7.80935e-12
4.41595e-13
2.49563e-14
1.41029e-15
8.03544e-17
4.50359e-18
2.64494e-19
1.39309e-20
9.6969e-22
3.29162e-23
5.65289e-24
1.95328e-28
7.10222e-26
1.55691e-27
1.24705e-27
2.62057e-29
3.87543e-28
8.71103e-28
2.66412e-27
)
;

boundaryField
{
    movingWall
    {
        type            calculated;
        value           nonuniform List<scalar> 
20
(
5.36363e-12
7.9211e-12
4.52796e-13
2.57751e-14
1.47016e-15
8.53875e-17
4.78633e-18
2.96016e-19
1.46739e-20
1.2499e-21
2.5437e-23
1.03747e-23
7.61763e-26
2.28252e-25
3.59241e-26
2.26094e-27
4.61351e-27
1.019e-27
2.19607e-26
1.15537e-26
)
;
    }
    fixedWalls
    {
        type            calculated;
        value           nonuniform List<scalar> 
60
(
1.42131e-10
1.41966e-10
1.41538e-10
1.41405e-10
1.41157e-10
1.40972e-10
1.40751e-10
1.40576e-10
1.40409e-10
1.40283e-10
1.40173e-10
1.4009e-10
1.40024e-10
1.39968e-10
1.39932e-10
1.39891e-10
1.39885e-10
1.39855e-10
1.39897e-10
1.4015e-10
2.30936e-28
1.30841e-26
1.24374e-26
1.82713e-26
2.65607e-26
1.15542e-26
1.78094e-26
1.1076e-26
5.48758e-27
1.20197e-27
1.04572e-28
6.55827e-28
2.06799e-27
8.33432e-27
1.83313e-26
1.49792e-26
9.10609e-27
3.79331e-27
3.23276e-27
5.22291e-27
5.23953e-12
7.97085e-12
4.51628e-13
2.58414e-14
1.45035e-15
8.58748e-17
4.49875e-18
3.25097e-19
9.25513e-21
2.61536e-21
5.06727e-23
1.40983e-22
4.33312e-23
2.37297e-23
9.66152e-24
3.74214e-24
1.40641e-24
2.78095e-25
3.34937e-26
5.34963e-28
)
;
    }
    frontAndBack
    {
        type            empty;
    }
}


// ************************************************************************* //
