/*--------------------------------*- C++ -*----------------------------------*\
| =========                 |                                                 |
| \\      /  F ield         | OpenFOAM: The Open Source CFD Toolbox           |
|  \\    /   O peration     | Version:  2506                                  |
|   \\  /    A nd           | Website:  www.openfoam.com                      |
|    \\/     M anipulation  |                                                 |
\*---------------------------------------------------------------------------*/
FoamFile
{
    version     2.0;
    format      ascii;
    arch        "LSB;label=32;scalar=64";
    class       volScalarField;
    location    "4.125";
    object      flowTypeField;
}
// * * * * * * * * * * * * * * * * * * * * * * * * * * * * * * * * * * * * * //

dimensions      [0 0 0 0 0 0 0];

internalField   nonuniform List<scalar> 
400
(
-0.00110625
-0.00094384
-0.00158449
-0.00370089
-0.00270532
-0.0110849
0.00492487
-0.0491027
0.0998379
-0.318449
0.991178
-0.20152
0.167764
0.0442726
0.10645
0.119052
0.183194
0.317272
0.398814
0.959981
-0.000240812
-0.000903875
-0.0013309
-0.00351813
-0.0030851
-0.00831949
-0.00331278
-0.0218548
0.0131697
-0.0767061
0.172292
0.354608
0.666946
0.910035
0.743791
0.740311
0.745688
0.491436
0.275402
-0.267827
-0.0020649
-0.000481197
-0.000655052
-0.000567904
-0.00155496
0.000877863
-0.00627156
0.0116394
-0.0365455
0.083551
-0.212263
0.44397
0.850236
0.727611
0.690862
0.631246
0.470677
0.372823
0.175392
0.00883973
-0.00595605
-0.0010912
-0.00176223
-0.00188885
-0.0020702
-0.00414883
0.000160443
-0.015751
0.0257175
-0.110322
0.205451
0.0769287
0.588704
0.787354
0.626752
0.557409
0.46011
0.322083
0.155134
0.000618192
-0.00702446
-0.00125095
-0.00211248
-0.00209692
-0.00281449
-0.00289735
-0.00600837
0.0028268
-0.0319759
0.0671235
-0.347958
0.38178
0.825835
0.673829
0.641782
0.467655
0.318056
0.194964
0.00771273
-0.0720819
-0.00770391
-0.00131867
-0.00235488
-0.00218704
-0.00295941
-0.00389578
-0.00287207
-0.00998237
0.0112718
-0.0708378
0.148614
-0.191255
0.501693
0.679165
0.523387
0.412921
0.267225
0.0959081
0.000627744
0.0706185
-0.00725677
-0.00120724
-0.00219308
-0.0019986
-0.0026989
-0.00326053
-0.00410728
-0.00181003
-0.0166091
0.0354118
-0.150168
0.274216
0.985925
0.43443
0.441847
0.315989
0.182992
0.0953037
0.0892159
-0.0670238
-0.00654291
-0.00105226
-0.00197476
-0.0016812
-0.00243822
-0.0028207
-0.00284199
-0.00515285
0.00248387
-0.0283718
0.0984853
0.0547597
0.470381
0.625872
0.423664
0.387424
0.274698
0.0562986
0.00584541
0.000710065
-0.00531905
-0.000814619
-0.00157261
-0.00127052
-0.00181357
-0.00217578
-0.00200053
-0.0023722
-0.00433308
0.00795659
-0.0149787
0.183533
0.898888
0.473399
0.450113
0.307441
0.246539
0.268949
0.0190308
0.00272923
-0.00399728
-0.000564115
-0.00116061
-0.000803144
-0.00131558
-0.00127254
-0.00143271
-0.00117456
-0.00157047
-0.000536208
0.0235346
0.190348
0.376115
0.738714
0.433385
0.282341
0.249589
-0.0217312
0.0954829
0.00346383
-0.00244094
-0.000278106
-0.000663779
-0.000313646
-0.000582024
-0.000566374
2.69725e-05
-0.00099861
0.00282249
-0.00245762
0.0389835
0.112806
0.810671
0.479673
0.620393
0.465811
0.309749
0.124438
0.0130886
0.143994
-0.000847761
6.10955e-06
-0.000169067
0.000182484
3.83439e-05
0.000407966
0.000447945
0.00198776
-0.001461
0.01625
-0.0135829
0.237185
0.372502
0.91291
0.496319
0.512788
0.461549
0.322428
0.0406824
0.0494594
0.000769256
0.000288595
0.000332796
0.000654532
0.000737954
0.00105515
0.00208981
0.000635142
0.0090484
-0.0127267
0.0816762
-0.0298262
0.645749
0.553768
0.712951
0.508873
0.39016
0.296417
0.0410724
-0.195613
0.00238338
0.000561169
0.000829464
0.00110429
0.00134858
0.00201121
0.00201347
0.00528572
-0.00279873
0.0321866
-0.0641731
0.258538
0.297386
0.929635
0.661197
0.808217
0.604099
0.358481
-0.0781888
0.0362047
0.00378975
0.000793813
0.00125137
0.00147665
0.00192147
0.00236596
0.00388561
0.00144992
0.0148163
-0.0234478
0.0935991
-0.21807
0.586469
0.556948
0.879005
0.472583
0.500911
0.203998
0.139811
0.559576
0.00520746
0.00102092
0.00168184
0.00184876
0.00237815
0.00342719
0.00280575
0.00853873
-0.00503645
0.0410966
-0.099302
0.277869
0.0339983
0.772573
0.752515
0.781467
0.467588
0.0157174
0.0361743
0.386175
0.00606793
0.00115453
0.00193501
0.00201105
0.00282446
0.00293571
0.00551373
0.000716132
0.0188064
-0.0300602
0.113308
-0.398559
0.416049
0.534995
0.89801
0.841732
0.590841
0.270822
0.0643133
0.35066
0.00696685
0.00126419
0.0021885
0.00243542
0.00288478
0.00488813
0.00324609
0.0114471
-0.00376619
0.0451195
-0.0871747
0.239263
-0.225114
0.725069
0.65559
0.707943
-0.0385173
0.249719
0.428289
0.860632
0.00707933
0.00058721
0.000885965
-0.000413018
-0.000421012
-0.00208946
-0.00102146
-0.00741079
0.00443257
-0.0307647
0.0543326
-0.126975
0.355905
0.689504
0.44762
0.603055
0.411983
0.527756
-0.370904
0.832751
0.00322433
-7.24698e-05
-0.000317935
-0.00167884
-0.00186982
-0.00496225
-0.0014192
-0.0167719
0.0167645
-0.0760577
0.157262
-0.298692
0.965063
-0.101358
0.556117
0.0220737
0.690134
0.290113
0.305937
0.286887
)
;

boundaryField
{
    movingWall
    {
        type            calculated;
        value           nonuniform List<scalar> 
20
(
0.758907
0.265924
0.262
0.259227
0.256644
0.248007
0.252002
0.222778
0.2706
0.125516
0.461652
-0.27278
0.655457
-0.304056
0.133602
-0.0703385
0.0183378
0.124385
0.0689258
0.0724376
)
;
    }
    fixedWalls
    {
        type            calculated;
        value           nonuniform List<scalar> 
60
(
-0.000210011
-4.64858e-05
-0.000394521
-0.0011363
-0.00133585
-0.00145331
-0.00134998
-0.00119036
-0.000932338
-0.00065792
-0.000343145
-3.00382e-05
0.000280078
0.000579443
0.000832239
0.00108146
0.001221
0.00137071
0.00137141
0.00062493
0.758068
-0.0597549
0.00859221
0.0904121
-0.0312091
0.151973
-0.117662
0.0445764
0.0959112
0.474124
0.538651
0.172636
0.310927
0.060651
-0.16111
0.0315821
0.00584824
0.236978
0.301341
0.31389
0.762746
0.267354
0.265893
0.261118
0.263086
0.24718
0.272615
0.188268
0.406974
-0.168252
0.54501
-0.172177
0.0698625
-0.0163853
0.0178716
0.0195046
0.0405157
0.104917
0.205968
0.650108
)
;
    }
    frontAndBack
    {
        type            empty;
    }
}


// ************************************************************************* //
