/*--------------------------------*- C++ -*----------------------------------*\
| =========                 |                                                 |
| \\      /  F ield         | OpenFOAM: The Open Source CFD Toolbox           |
|  \\    /   O peration     | Version:  2506                                  |
|   \\  /    A nd           | Website:  www.openfoam.com                      |
|    \\/     M anipulation  |                                                 |
\*---------------------------------------------------------------------------*/
FoamFile
{
    version     2.0;
    format      ascii;
    arch        "LSB;label=32;scalar=64";
    class       surfaceScalarField;
    location    "4.125";
    object      fluxField;
}
// * * * * * * * * * * * * * * * * * * * * * * * * * * * * * * * * * * * * * //

dimensions      [0 3 -1 0 0 0 0];

oriented        oriented;

internalField   nonuniform List<scalar> 
760
(
-5e-05
4.35601e-16
-5e-05
-4.92273e-17
-5e-05
1.74399e-16
-5e-05
-1.18877e-17
-5e-05
3.25171e-17
-5e-05
2.12164e-18
-5e-05
6.70998e-18
-5e-05
2.18278e-18
-5e-05
2.05284e-18
-5e-05
1.1713e-18
-5e-05
8.84214e-19
-5e-05
6.08552e-19
-5e-05
4.5056e-19
-5e-05
3.25686e-19
-5e-05
2.35805e-19
-5e-05
1.69143e-19
-5e-05
1.21877e-19
-5e-05
8.59229e-20
-5e-05
4.73244e-20
8.76716e-21
-5e-05
-1.95753e-15
-5e-05
7.18689e-16
-5e-05
-7.46079e-17
-5e-05
6.84129e-17
-5e-05
1.53825e-17
-5e-05
1.30606e-17
-5e-05
7.77543e-18
-5e-05
4.80329e-18
-5e-05
3.32835e-18
-5e-05
2.22653e-18
-5e-05
1.59455e-18
-5e-05
1.14194e-18
-5e-05
8.41843e-19
-5e-05
6.21288e-19
-5e-05
4.56253e-19
-5e-05
3.29024e-19
-5e-05
2.34438e-19
-5e-05
1.62372e-19
-5e-05
8.91826e-20
1.65796e-20
-5e-05
1.2696e-15
-5e-05
-4.49624e-16
-5e-05
1.59268e-16
-5e-05
-1.41618e-17
-5e-05
3.02025e-17
-5e-05
9.07228e-18
-5e-05
9.47451e-18
-5e-05
5.50427e-18
-5e-05
4.13616e-18
-5e-05
2.85008e-18
-5e-05
2.08691e-18
-5e-05
1.52766e-18
-5e-05
1.13896e-18
-5e-05
8.50794e-19
-5e-05
6.33551e-19
-5e-05
4.65046e-19
-5e-05
3.33772e-19
-5e-05
2.27526e-19
-5e-05
1.22911e-19
2.18049e-20
-5e-05
-1.13653e-15
-5e-05
3.74177e-16
-5e-05
-7.46376e-17
-5e-05
4.08231e-17
-5e-05
6.29607e-18
-5e-05
1.19141e-17
-5e-05
7.25249e-18
-5e-05
5.79972e-18
-5e-05
4.17734e-18
-5e-05
3.11731e-18
-5e-05
2.31948e-18
-5e-05
1.74364e-18
-5e-05
1.31767e-18
-5e-05
9.99751e-19
-5e-05
7.56566e-19
-5e-05
5.65209e-19
-5e-05
4.09127e-19
-5e-05
2.79805e-19
-5e-05
1.50142e-19
2.46586e-20
-5e-05
8.26137e-16
-5e-05
-2.50146e-16
-5e-05
6.9435e-17
-5e-05
-8.31916e-18
-5e-05
1.36021e-17
-5e-05
6.6035e-18
-5e-05
6.70483e-18
-5e-05
4.95905e-18
-5e-05
3.95085e-18
-5e-05
3.03057e-18
-5e-05
2.34156e-18
-5e-05
1.8017e-18
-5e-05
1.38699e-18
-5e-05
1.07008e-18
-5e-05
8.2072e-19
-5e-05
6.19495e-19
-5e-05
4.55429e-19
-5e-05
3.13822e-19
-5e-05
1.66091e-19
2.3906e-20
-5e-05
-7.36847e-16
-5e-05
1.76506e-16
-5e-05
-3.59372e-17
-5e-05
1.54906e-17
-5e-05
4.06414e-18
-5e-05
6.23529e-18
-5e-05
4.93145e-18
-5e-05
4.22483e-18
-5e-05
3.43031e-18
-5e-05
2.76185e-18
-5e-05
2.19958e-18
-5e-05
1.73972e-18
-5e-05
1.36651e-18
-5e-05
1.06743e-18
-5e-05
8.27692e-19
-5e-05
6.31106e-19
-5e-05
4.70072e-19
-5e-05
3.25991e-19
-5e-05
1.71467e-19
2.12965e-20
-5e-05
5.14065e-16
-5e-05
-9.9406e-17
-5e-05
2.53954e-17
-5e-05
-1.02239e-18
-5e-05
4.94349e-18
-5e-05
3.99601e-18
-5e-05
3.83384e-18
-5e-05
3.35454e-18
-5e-05
2.851e-18
-5e-05
2.37628e-18
-5e-05
1.94863e-18
-5e-05
1.58271e-18
-5e-05
1.27484e-18
-5e-05
1.00945e-18
-5e-05
7.92671e-19
-5e-05
6.10373e-19
-5e-05
4.57943e-19
-5e-05
3.2145e-19
-5e-05
1.71297e-19
1.94037e-20
-5e-05
-3.87267e-16
-5e-05
4.55154e-17
-5e-05
-7.18685e-18
-5e-05
2.07651e-18
-5e-05
3.3429e-18
-5e-05
2.62847e-18
-5e-05
2.89556e-18
-5e-05
2.51977e-18
-5e-05
2.26667e-18
-5e-05
1.93739e-18
-5e-05
1.63509e-18
-5e-05
1.36052e-18
-5e-05
1.12172e-18
-5e-05
9.07548e-19
-5e-05
7.24679e-19
-5e-05
5.63354e-19
-5e-05
4.27433e-19
-5e-05
3.04816e-19
-5e-05
1.62412e-19
1.58499e-20
-5e-05
2.11294e-16
-5e-05
2.84554e-18
-5e-05
-2.01549e-18
-5e-05
4.36956e-18
-5e-05
3.25791e-19
-5e-05
2.30392e-18
-5e-05
1.76248e-18
-5e-05
1.87687e-18
-5e-05
1.66194e-18
-5e-05
1.49817e-18
-5e-05
1.29591e-18
-5e-05
1.10878e-18
-5e-05
9.33923e-19
-5e-05
7.74759e-19
-5e-05
6.31696e-19
-5e-05
4.999e-19
-5e-05
3.81466e-19
-5e-05
2.7582e-19
-5e-05
1.43344e-19
9.61203e-21
-5e-05
-1.0426e-16
-5e-05
-4.00979e-17
-5e-05
1.19186e-17
-5e-05
-5.52342e-18
-5e-05
2.99657e-18
-5e-05
4.12601e-19
-5e-05
1.38091e-18
-5e-05
1.11653e-18
-5e-05
1.1556e-18
-5e-05
1.05065e-18
-5e-05
9.619e-19
-5e-05
8.49933e-19
-5e-05
7.3889e-19
-5e-05
6.25934e-19
-5e-05
5.22107e-19
-5e-05
4.23577e-19
-5e-05
3.28448e-19
-5e-05
2.40801e-19
-5e-05
1.21571e-19
3.85458e-21
-5e-05
-5.71753e-18
-5e-05
6.72648e-17
-5e-05
-1.85094e-17
-5e-05
7.65918e-18
-5e-05
-2.36961e-18
-5e-05
1.10366e-18
-5e-05
2.55444e-19
-5e-05
6.61124e-19
-5e-05
6.16601e-19
-5e-05
6.48245e-19
-5e-05
6.26342e-19
-5e-05
5.91056e-19
-5e-05
5.38355e-19
-5e-05
4.75354e-19
-5e-05
4.06708e-19
-5e-05
3.34798e-19
-5e-05
2.69453e-19
-5e-05
2.04865e-19
-5e-05
1.03393e-19
-1.47334e-21
-5e-05
7.45961e-17
-5e-05
-8.59416e-17
-5e-05
2.19937e-17
-5e-05
-9.42331e-18
-5e-05
2.34673e-18
-5e-05
-1.13024e-18
-5e-05
1.28365e-19
-5e-05
-3.90971e-20
-5e-05
1.89604e-19
-5e-05
2.4997e-19
-5e-05
3.138e-19
-5e-05
3.38028e-19
-5e-05
3.45427e-19
-5e-05
3.31005e-19
-5e-05
2.95242e-19
-5e-05
2.49043e-19
-5e-05
2.07687e-19
-5e-05
1.65219e-19
-5e-05
8.35089e-20
-7.97709e-21
-5e-05
-1.17232e-16
-5e-05
9.43743e-17
-5e-05
-2.5861e-17
-5e-05
8.12901e-18
-5e-05
-4.15332e-18
-5e-05
-1.43959e-19
-5e-05
-1.00594e-18
-5e-05
-4.0324e-19
-5e-05
-2.86867e-19
-5e-05
-8.90728e-20
-5e-05
2.68303e-20
-5e-05
1.15363e-19
-5e-05
1.70928e-19
-5e-05
1.94703e-19
-5e-05
1.91872e-19
-5e-05
1.74816e-19
-5e-05
1.51835e-19
-5e-05
1.23292e-19
-5e-05
6.02154e-20
-1.37827e-20
-5e-05
1.51224e-16
-5e-05
-9.54573e-17
-5e-05
2.25336e-17
-5e-05
-1.08715e-17
-5e-05
6.30024e-19
-5e-05
-2.5158e-18
-5e-05
-1.11294e-18
-5e-05
-1.03898e-18
-5e-05
-6.33407e-19
-5e-05
-4.06101e-19
-5e-05
-2.02621e-19
-5e-05
-6.47419e-20
-5e-05
2.60203e-20
-5e-05
7.56631e-20
-5e-05
1.03821e-19
-5e-05
1.11153e-19
-5e-05
1.02044e-19
-5e-05
8.54447e-20
-5e-05
3.83194e-20
-1.83423e-20
-5e-05
-1.32036e-16
-5e-05
8.57595e-17
-5e-05
-2.64949e-17
-5e-05
4.83097e-18
-5e-05
-5.92684e-18
-5e-05
-1.84114e-18
-5e-05
-2.23363e-18
-5e-05
-1.34771e-18
-5e-05
-9.97938e-19
-5e-05
-6.24865e-19
-5e-05
-3.79221e-19
-5e-05
-1.99435e-19
-5e-05
-8.44047e-20
-5e-05
-1.49949e-20
-5e-05
3.58397e-20
-5e-05
5.96501e-20
-5e-05
6.20465e-20
-5e-05
5.49003e-20
-5e-05
2.00467e-20
-2.10909e-20
-5e-05
1.5638e-16
-5e-05
-7.86844e-17
-5e-05
1.22186e-17
-5e-05
-1.16489e-17
-5e-05
-3.1768e-18
-5e-05
-4.00752e-18
-5e-05
-2.4437e-18
-5e-05
-1.78367e-18
-5e-05
-1.17496e-18
-5e-05
-7.67045e-19
-5e-05
-4.8172e-19
-5e-05
-2.84442e-19
-5e-05
-1.50434e-19
-5e-05
-6.70299e-20
-5e-05
-1.47038e-20
-5e-05
1.5864e-20
-5e-05
3.29921e-20
-5e-05
3.40463e-20
-5e-05
8.6107e-21
-1.92523e-20
-5e-05
-7.45357e-17
-5e-05
4.67215e-17
-5e-05
-3.46308e-17
-5e-05
-1.83429e-18
-5e-05
-9.73115e-18
-5e-05
-3.27768e-18
-5e-05
-3.22732e-18
-5e-05
-1.73467e-18
-5e-05
-1.24885e-18
-5e-05
-7.60029e-19
-5e-05
-4.95245e-19
-5e-05
-2.95715e-19
-5e-05
-1.70335e-19
-5e-05
-8.71374e-20
-5e-05
-4.19116e-20
-5e-05
-9.75292e-21
-5e-05
1.35529e-20
-5e-05
2.22463e-20
-5e-05
3.74451e-21
-1.55724e-20
-5e-05
1.82778e-16
-5e-05
-8.52841e-17
-5e-05
-3.32217e-17
-5e-05
-1.19706e-18
-5e-05
-1.26301e-17
-5e-05
-1.83969e-18
-5e-05
-3.48077e-18
-5e-05
-1.28332e-18
-5e-05
-1.1122e-18
-5e-05
-5.95774e-19
-5e-05
-4.08984e-19
-5e-05
-2.39543e-19
-5e-05
-1.44858e-19
-5e-05
-7.83759e-20
-5e-05
-3.7824e-20
-5e-05
-1.13421e-20
-5e-05
2.07582e-21
-5e-05
1.26584e-20
-5e-05
-4.44119e-22
-1.38575e-20
-5e-05
-1.82615e-16
-5e-05
3.17213e-16
-5e-05
-1.66844e-16
-5e-05
5.27062e-17
-5e-05
-2.80268e-17
-5e-05
5.04306e-18
-5e-05
-4.16878e-18
-5e-05
-1.04509e-19
-5e-05
-8.31043e-19
-5e-05
-2.73754e-19
-5e-05
-2.4664e-19
-5e-05
-1.28926e-19
-5e-05
-8.03623e-20
-5e-05
-4.24803e-20
-5e-05
-1.99109e-20
-5e-05
-6.22524e-21
-5e-05
-3.04222e-21
-5e-05
3.7667e-21
-5e-05
-3.31044e-21
-9.71927e-21
-5e-05
-5e-05
-5e-05
-5e-05
-5e-05
-5e-05
-5e-05
-5e-05
-5e-05
-5e-05
-5e-05
-5e-05
-5e-05
-5e-05
-5e-05
-5e-05
-5e-05
-5e-05
-5e-05
)
;

boundaryField
{
    movingWall
    {
        type            calculated;
        value           uniform -0;
    }
    fixedWalls
    {
        type            calculated;
        value           nonuniform List<scalar> 
60
(
5e-05
5e-05
5e-05
5e-05
5e-05
5e-05
5e-05
5e-05
5e-05
5e-05
5e-05
5e-05
5e-05
5e-05
5e-05
5e-05
5e-05
5e-05
5e-05
5e-05
-5e-05
-5e-05
-5e-05
-5e-05
-5e-05
-5e-05
-5e-05
-5e-05
-5e-05
-5e-05
-5e-05
-5e-05
-5e-05
-5e-05
-5e-05
-5e-05
-5e-05
-5e-05
-5e-05
-5e-05
0
0
0
0
0
0
0
0
0
0
0
0
0
0
0
0
0
0
0
0
)
;
    }
    frontAndBack
    {
        type            empty;
    }
}


// ************************************************************************* //
