/*--------------------------------*- C++ -*----------------------------------*\
| =========                 |                                                 |
| \\      /  F ield         | OpenFOAM: The Open Source CFD Toolbox           |
|  \\    /   O peration     | Version:  2506                                  |
|   \\  /    A nd           | Website:  www.openfoam.com                      |
|    \\/     M anipulation  |                                                 |
\*---------------------------------------------------------------------------*/
FoamFile
{
    version     2.0;
    format      ascii;
    arch        "LSB;label=32;scalar=64";
    class       volTensorField;
    location    "4.125";
    object      gradU;
}
// * * * * * * * * * * * * * * * * * * * * * * * * * * * * * * * * * * * * * //

dimensions      [0 0 -1 0 0 0 0];

internalField   nonuniform List<tensor> 
400
(
(-1.77316e-09 3.21383e-06 0 -3.55626e-09 1.7424e-09 0 0 0 0)
(4.20969e-09 -3.97649e-06 0 3.75541e-09 -1.96909e-10 0 0 0 0)
(-3.2735e-09 9.43927e-07 0 -1.50159e-09 6.97594e-10 0 0 0 0)
(1.45167e-09 -2.24216e-07 0 8.34538e-10 -4.75508e-11 0 0 0 0)
(-6.68655e-10 5.31939e-08 0 -1.48292e-10 1.30069e-10 0 0 0 0)
(1.65422e-10 -1.26568e-08 0 1.41407e-10 8.48655e-12 0 0 0 0)
(-8.97719e-11 2.99683e-09 0 1.33086e-11 2.68399e-11 0 0 0 0)
(8.61941e-12 -7.16907e-10 0 3.53179e-11 8.73112e-12 0 0 0 0)
(-1.46096e-11 1.67849e-10 0 1.60733e-11 8.21135e-12 0 0 0 0)
(-3.1984e-12 -4.13708e-11 0 1.3932e-11 4.68521e-12 0 0 0 0)
(-4.20128e-12 8.93997e-12 0 9.02598e-12 3.53685e-12 0 0 0 0)
(-2.38524e-12 -2.71422e-12 0 6.64074e-12 2.43421e-12 0 0 0 0)
(-1.89735e-12 2.38656e-13 0 4.55365e-12 1.80224e-12 0 0 0 0)
(-1.32815e-12 -3.60964e-13 0 3.14419e-12 1.30274e-12 0 0 0 0)
(-9.48677e-13 -1.32541e-13 0 2.03288e-12 9.43219e-13 0 0 0 0)
(-6.77626e-13 -1.15615e-13 0 1.30104e-12 6.7657e-13 0 0 0 0)
(-4.87891e-13 -7.84244e-14 0 7.31836e-13 4.87506e-13 0 0 0 0)
(-3.52366e-13 -7.96477e-14 0 2.98156e-13 3.43692e-13 0 0 0 0)
(-1.89735e-13 -8.11837e-14 0 8.13152e-14 1.89298e-13 0 0 0 0)
(-2.71051e-14 -5.61081e-14 0 -5.42101e-14 3.50687e-14 0 0 0 0)
(1.97235e-09 -3.21228e-06 0 7.88432e-10 -9.57252e-09 0 0 0 0)
(-2.15501e-09 3.97544e-06 0 -3.59508e-09 3.07167e-09 0 0 0 0)
(3.52583e-10 -9.43778e-07 0 1.25667e-09 -9.96026e-10 0 0 0 0)
(-9.83642e-11 2.23648e-07 0 -7.87077e-10 3.21202e-10 0 0 0 0)
(-2.4503e-11 -5.31378e-08 0 1.63986e-10 -6.85385e-11 0 0 0 0)
(-3.7676e-12 1.25535e-08 0 -1.04517e-10 4.37557e-11 0 0 0 0)
(-1.62901e-11 -2.99658e-09 0 9.97466e-12 4.26182e-12 0 0 0 0)
(-5.85469e-12 6.98278e-10 0 -1.53686e-11 1.0482e-11 0 0 0 0)
(-6.77626e-12 -1.71895e-10 0 -2.05998e-12 5.10205e-12 0 0 0 0)
(-3.84892e-12 3.66963e-11 0 -3.33392e-12 4.2209e-12 0 0 0 0)
(-3.06287e-12 -1.1191e-11 0 -1.38236e-12 2.84134e-12 0 0 0 0)
(-2.1413e-12 9.796e-13 0 -1.0571e-12 2.13357e-12 0 0 0 0)
(-1.5992e-12 -1.37012e-12 0 -6.23416e-13 1.56513e-12 0 0 0 0)
(-1.19262e-12 -4.98057e-13 0 -3.79471e-13 1.18241e-12 0 0 0 0)
(-8.67362e-13 -4.93633e-13 0 -2.1684e-13 8.81793e-13 0 0 0 0)
(-6.50521e-13 -3.40097e-13 0 -1.35525e-13 6.39527e-13 0 0 0 0)
(-4.87891e-13 -2.54454e-13 0 -1.0842e-13 4.50247e-13 0 0 0 0)
(-2.98156e-13 -2.18561e-13 0 0 3.05796e-13 0 0 0 0)
(-1.6263e-13 -2.27439e-13 0 0 1.67433e-13 0 0 0 0)
(-2.71051e-14 -1.68258e-13 0 5.42101e-14 3.12496e-14 0 0 0 0)
(-4.57981e-09 3.20733e-06 0 -6.65218e-09 1.29085e-08 0 0 0 0)
(4.67795e-09 -3.96791e-06 0 1.91486e-09 -4.67325e-09 0 0 0 0)
(-4.65529e-10 9.41177e-07 0 -6.17101e-10 9.35502e-10 0 0 0 0)
(3.58952e-10 -2.23288e-07 0 1.2734e-10 -3.30299e-10 0 0 0 0)
(1.39591e-11 5.29164e-08 0 -8.2318e-11 5.92799e-11 0 0 0 0)
(1.13841e-11 -1.2584e-08 0 -1.10318e-11 -1.59531e-11 0 0 0 0)
(-6.23416e-13 2.96356e-09 0 -1.85941e-11 6.7963e-12 0 0 0 0)
(-3.41524e-12 -7.16066e-10 0 -8.32125e-12 2.80391e-12 0 0 0 0)
(-2.62919e-12 1.61588e-10 0 -5.96311e-12 3.23125e-12 0 0 0 0)
(-2.52077e-12 -4.36315e-11 0 -3.52366e-12 2.49421e-12 0 0 0 0)
(-1.92446e-12 6.85264e-12 0 -2.33103e-12 1.96946e-12 0 0 0 0)
(-1.57209e-12 -3.99042e-12 0 -1.54499e-12 1.54286e-12 0 0 0 0)
(-1.21973e-12 -7.12509e-13 0 -9.48677e-13 1.18846e-12 0 0 0 0)
(-9.21572e-13 -1.0443e-12 0 -6.50521e-13 9.18023e-13 0 0 0 0)
(-7.31836e-13 -6.75422e-13 0 -3.52366e-13 7.09191e-13 0 0 0 0)
(-5.42101e-13 -5.47162e-13 0 -2.43945e-13 5.44085e-13 0 0 0 0)
(-3.79471e-13 -4.12155e-13 0 -8.13152e-14 3.97335e-13 0 0 0 0)
(-2.71051e-13 -3.62462e-13 0 -5.42101e-14 2.60618e-13 0 0 0 0)
(-1.35525e-13 -3.5573e-13 0 -2.71051e-14 1.34912e-13 0 0 0 0)
(-2.71051e-14 -2.5479e-13 0 0 2.09014e-14 0 0 0 0)
(-2.76507e-09 -3.20405e-06 0 1.90993e-08 -9.62451e-09 0 0 0 0)
(3.88012e-09 3.96347e-06 0 -4.32822e-09 3.2952e-09 0 0 0 0)
(-1.43491e-09 -9.39435e-07 0 1.65707e-09 -9.35621e-10 0 0 0 0)
(4.36364e-10 2.22772e-07 0 -4.21321e-10 2.1994e-10 0 0 0 0)
(-1.62847e-10 -5.28235e-08 0 1.09694e-10 -9.56257e-11 0 0 0 0)
(5.99022e-11 1.2501e-08 0 -5.20146e-11 1.13672e-11 0 0 0 0)
(-1.35525e-11 -2.97783e-09 0 -4.33681e-13 -8.88807e-12 0 0 0 0)
(6.77626e-12 6.94713e-10 0 -1.09775e-11 1.18181e-12 0 0 0 0)
(-1.95156e-12 -1.72205e-10 0 -4.41812e-12 1.64725e-13 0 0 0 0)
(-2.1684e-13 3.54345e-11 0 -3.93023e-12 1.0689e-12 0 0 0 0)
(-1.0842e-12 -1.21423e-11 0 -2.43945e-12 9.30251e-13 0 0 0 0)
(-7.86047e-13 1.98597e-13 0 -1.73472e-12 8.63913e-13 0 0 0 0)
(-7.04731e-13 -1.99496e-12 0 -1.11131e-12 7.14851e-13 0 0 0 0)
(-5.69206e-13 -9.77323e-13 0 -7.31836e-13 5.95829e-13 0 0 0 0)
(-4.60786e-13 -8.67571e-13 0 -4.87891e-13 4.92059e-13 0 0 0 0)
(-4.06576e-13 -6.51953e-13 0 -2.98156e-13 4.00652e-13 0 0 0 0)
(-2.98156e-13 -5.37922e-13 0 -1.89735e-13 3.01421e-13 0 0 0 0)
(-2.1684e-13 -4.80984e-13 0 -1.0842e-13 2.09113e-13 0 0 0 0)
(-1.0842e-13 -4.67156e-13 0 -5.42101e-14 1.08926e-13 0 0 0 0)
(0 -3.24072e-13 0 0 1.14146e-14 0 0 0 0)
(1.01913e-08 3.201e-06 0 -2.25115e-08 7.85065e-09 0 0 0 0)
(-1.27644e-08 -3.95922e-06 0 4.97421e-09 -2.49729e-09 0 0 0 0)
(3.44134e-09 9.38102e-07 0 -1.98824e-09 5.7629e-10 0 0 0 0)
(-1.18845e-09 -2.22448e-07 0 4.69731e-10 -1.96569e-10 0 0 0 0)
(3.8332e-10 5.27079e-08 0 -1.49755e-10 2.9224e-11 0 0 0 0)
(-9.86895e-11 -1.24972e-08 0 3.66189e-11 -2.12423e-11 0 0 0 0)
(4.03594e-11 2.95337e-09 0 -1.80249e-11 -2.19065e-12 0 0 0 0)
(-7.45389e-12 -7.07014e-10 0 -1.95156e-12 -3.36267e-12 0 0 0 0)
(4.44523e-12 1.61475e-10 0 -5.23128e-12 -9.0596e-13 0 0 0 0)
(-5.42101e-13 -4.28659e-11 0 -2.87314e-12 -3.46955e-13 0 0 0 0)
(3.25261e-13 6.64765e-12 0 -2.33103e-12 8.83474e-14 0 0 0 0)
(-2.71051e-13 -4.20582e-12 0 -1.5992e-12 2.32246e-13 0 0 0 0)
(-2.1684e-13 -9.80593e-13 0 -1.19262e-12 2.77271e-13 0 0 0 0)
(-3.25261e-13 -1.26709e-12 0 -8.40257e-13 2.81296e-13 0 0 0 0)
(-2.71051e-13 -8.70599e-13 0 -5.42101e-13 2.5662e-13 0 0 0 0)
(-1.89735e-13 -7.37799e-13 0 -3.25261e-13 2.17144e-13 0 0 0 0)
(-1.89735e-13 -6.03694e-13 0 -1.6263e-13 1.85206e-13 0 0 0 0)
(-1.6263e-13 -5.54958e-13 0 -8.13152e-14 1.36069e-13 0 0 0 0)
(-2.71051e-14 -5.53429e-13 0 0 6.37948e-14 0 0 0 0)
(0 -3.75131e-13 0 2.71051e-14 -3.01038e-15 0 0 0 0)
(-2.03023e-08 -3.19869e-06 0 2.47141e-08 -6.25193e-09 0 0 0 0)
(2.44033e-08 3.9562e-06 0 -5.29275e-09 1.70661e-09 0 0 0 0)
(-5.93937e-09 -9.37134e-07 0 2.22584e-09 -4.21489e-10 0 0 0 0)
(2.27493e-09 2.22225e-07 0 -4.9773e-10 9.52391e-11 0 0 0 0)
(-5.96013e-10 -5.26482e-08 0 1.59215e-10 -3.81517e-11 0 0 0 0)
(1.91633e-10 1.24696e-08 0 -5.0063e-11 -1.47285e-12 0 0 0 0)
(-5.21501e-11 -2.95995e-09 0 8.97177e-12 -7.09352e-12 0 0 0 0)
(1.96512e-11 6.95998e-10 0 -7.23705e-12 -2.93691e-12 0 0 0 0)
(-2.90024e-12 -1.69189e-10 0 -1.87025e-12 -2.08219e-12 0 0 0 0)
(2.6563e-12 3.64288e-11 0 -2.71051e-12 -1.07488e-12 0 0 0 0)
(1.35525e-13 -1.15631e-11 0 -1.70762e-12 -5.67935e-13 0 0 0 0)
(4.06576e-13 3.87521e-13 0 -1.38236e-12 -2.47917e-13 0 0 0 0)
(5.42101e-14 -1.94591e-12 0 -9.75782e-13 -8.18978e-14 0 0 0 0)
(8.13152e-14 -9.97975e-13 0 -6.77626e-13 -1.05718e-14 0 0 0 0)
(0 -9.31723e-13 0 -4.87891e-13 2.7886e-14 0 0 0 0)
(-2.71051e-14 -7.23366e-13 0 -2.98156e-13 4.64433e-14 0 0 0 0)
(-5.42101e-14 -6.18997e-13 0 -1.6263e-13 5.85707e-14 0 0 0 0)
(-5.42101e-14 -6.02395e-13 0 -5.42101e-14 4.8678e-14 0 0 0 0)
(0 -6.06235e-13 0 0 2.15067e-14 0 0 0 0)
(0 -3.84856e-13 0 -2.71051e-14 -1.04378e-14 0 0 0 0)
(2.96127e-08 3.19645e-06 0 -2.33391e-08 5.00365e-09 0 0 0 0)
(-3.52526e-08 -3.95339e-06 0 4.93041e-09 -1.10365e-09 0 0 0 0)
(8.23639e-09 9.3649e-07 0 -2.09021e-09 2.4533e-10 0 0 0 0)
(-3.25502e-09 -2.22065e-07 0 4.67779e-10 -6.6052e-11 0 0 0 0)
(8.30933e-10 5.26111e-08 0 -1.4859e-10 3.51742e-12 0 0 0 0)
(-2.48933e-10 -1.24662e-08 0 4.31512e-11 -8.95714e-12 0 0 0 0)
(8.31583e-11 2.95191e-09 0 -1.33086e-11 -4.39045e-12 0 0 0 0)
(-1.82688e-11 -7.02002e-10 0 1.51788e-12 -3.48114e-12 0 0 0 0)
(8.91756e-12 1.63337e-10 0 -2.98156e-12 -2.31724e-12 0 0 0 0)
(-2.98156e-13 -4.13517e-11 0 -1.43657e-12 -1.54225e-12 0 0 0 0)
(1.65341e-12 7.47462e-12 0 -1.46367e-12 -1.00379e-12 0 0 0 0)
(4.33681e-13 -3.71978e-12 0 -9.75782e-13 -6.28028e-13 0 0 0 0)
(4.87891e-13 -7.43247e-13 0 -7.31836e-13 -3.66685e-13 0 0 0 0)
(1.89735e-13 -1.15731e-12 0 -4.87891e-13 -2.3193e-13 0 0 0 0)
(1.0842e-13 -8.13584e-13 0 -3.52366e-13 -1.40084e-13 0 0 0 0)
(1.0842e-13 -7.07115e-13 0 -2.1684e-13 -8.29306e-14 0 0 0 0)
(2.71051e-14 -6.0146e-13 0 -1.0842e-13 -4.85137e-14 0 0 0 0)
(5.42101e-14 -5.92022e-13 0 -5.42101e-14 -1.81647e-14 0 0 0 0)
(2.71051e-14 -6.12544e-13 0 -5.42101e-14 -6.82972e-16 0 0 0 0)
(-2.71051e-14 -3.86199e-13 0 2.71051e-14 -7.57105e-15 0 0 0 0)
(-3.8711e-08 -3.19479e-06 0 2.11429e-08 -3.60533e-09 0 0 0 0)
(4.56522e-08 3.95144e-06 0 -4.42224e-09 5.79686e-10 0 0 0 0)
(-1.04021e-08 -9.36097e-07 0 1.9066e-09 -1.30329e-10 0 0 0 0)
(4.21654e-09 2.21983e-07 0 -4.13379e-10 1.23956e-11 0 0 0 0)
(-1.02067e-09 -5.25911e-08 0 1.38182e-10 -6.40239e-12 0 0 0 0)
(3.26941e-10 1.24617e-08 0 -3.9465e-11 -5.47014e-12 0 0 0 0)
(-9.37022e-11 -2.95447e-09 0 9.89334e-12 -3.75309e-12 0 0 0 0)
(2.99782e-11 6.98071e-10 0 -4.25549e-12 -3.33907e-12 0 0 0 0)
(-5.82759e-12 -1.6725e-10 0 -2.98156e-13 -2.33729e-12 0 0 0 0)
(4.14707e-12 3.77422e-11 0 -1.35525e-12 -1.75557e-12 0 0 0 0)
(5.69206e-13 -1.06489e-11 0 -9.75782e-13 -1.25418e-12 0 0 0 0)
(1.16552e-12 1.02462e-12 0 -8.40257e-13 -8.8878e-13 0 0 0 0)
(5.69206e-13 -1.54981e-12 0 -6.50521e-13 -6.12494e-13 0 0 0 0)
(4.33681e-13 -7.71374e-13 0 -4.33681e-13 -4.07606e-13 0 0 0 0)
(2.43945e-13 -7.82724e-13 0 -2.98156e-13 -2.71966e-13 0 0 0 0)
(2.1684e-13 -6.31796e-13 0 -2.1684e-13 -1.88075e-13 0 0 0 0)
(1.35525e-13 -5.54232e-13 0 -1.35525e-13 -1.2204e-13 0 0 0 0)
(2.71051e-14 -5.54565e-13 0 -2.71051e-14 -6.65383e-14 0 0 0 0)
(5.42101e-14 -5.95641e-13 0 0 -3.55382e-14 0 0 0 0)
(0 -3.76602e-13 0 0 -1.42155e-14 0 0 0 0)
(4.63333e-08 3.19343e-06 0 -1.73266e-08 2.39425e-09 0 0 0 0)
(-5.44889e-08 -3.94992e-06 0 3.59413e-09 -1.7068e-10 0 0 0 0)
(1.22453e-08 9.35923e-07 0 -1.5522e-09 2.06854e-11 0 0 0 0)
(-5.02346e-09 -2.21941e-07 0 3.38976e-10 9.17221e-12 0 0 0 0)
(1.20482e-09 5.25933e-08 0 -1.09233e-10 -1.20684e-11 0 0 0 0)
(-3.77221e-10 -1.24635e-08 0 3.28513e-11 -1.29822e-12 0 0 0 0)
(1.18368e-10 2.95404e-09 0 -8.29415e-12 -4.53234e-12 0 0 0 0)
(-2.85145e-11 -7.00586e-10 0 2.24972e-12 -2.57163e-12 0 0 0 0)
(1.18991e-11 1.64921e-10 0 -1.16552e-12 -2.41895e-12 0 0 0 0)
(-9.75782e-13 -4.02686e-11 0 -2.71051e-13 -1.75688e-12 0 0 0 0)
(2.11419e-12 8.34141e-12 0 -5.14996e-13 -1.35672e-12 0 0 0 0)
(8.13152e-13 -3.07809e-12 0 -3.79471e-13 -1.00697e-12 0 0 0 0)
(8.40257e-13 -2.62074e-13 0 -3.52366e-13 -7.51181e-13 0 0 0 0)
(5.42101e-13 -8.16782e-13 0 -2.71051e-13 -5.31158e-13 0 0 0 0)
(3.52366e-13 -5.94053e-13 0 -1.89735e-13 -3.71932e-13 0 0 0 0)
(2.71051e-13 -5.57189e-13 0 -1.0842e-13 -2.53817e-13 0 0 0 0)
(1.6263e-13 -4.79923e-13 0 -8.13152e-14 -1.8387e-13 0 0 0 0)
(1.89735e-13 -5.0552e-13 0 -1.0842e-13 -1.15982e-13 0 0 0 0)
(8.13152e-14 -5.60222e-13 0 0 -7.62718e-14 0 0 0 0)
(0 -3.36446e-13 0 0 -2.49513e-14 0 0 0 0)
(-5.24434e-08 -3.19257e-06 0 1.3196e-08 -1.26222e-09 0 0 0 0)
(6.14266e-08 3.94906e-06 0 -2.70601e-09 -1.71774e-10 0 0 0 0)
(-1.36572e-08 -9.35917e-07 0 1.18612e-09 5.57363e-11 0 0 0 0)
(5.65945e-09 2.2195e-07 0 -2.50532e-10 -3.95719e-11 0 0 0 0)
(-1.32668e-09 -5.26015e-08 0 8.59772e-11 1.06831e-11 0 0 0 0)
(4.27853e-10 1.24693e-08 0 -2.3229e-11 -7.56527e-12 0 0 0 0)
(-1.24331e-10 -2.95575e-09 0 6.85758e-12 -1.52628e-12 0 0 0 0)
(3.71339e-11 7.00184e-10 0 -1.81604e-12 -3.04134e-12 0 0 0 0)
(-8.42967e-12 -1.66435e-10 0 4.87891e-13 -2.02533e-12 0 0 0 0)
(4.74338e-12 3.88045e-11 0 -3.52366e-13 -1.7901e-12 0 0 0 0)
(4.87891e-13 -9.89899e-12 0 -1.35525e-13 -1.33602e-12 0 0 0 0)
(1.32815e-12 1.63016e-12 0 -2.43945e-13 -1.03538e-12 0 0 0 0)
(7.04731e-13 -1.074e-12 0 -1.89735e-13 -7.80131e-13 0 0 0 0)
(6.23416e-13 -3.92124e-13 0 -1.89735e-13 -5.95301e-13 0 0 0 0)
(4.60786e-13 -5.05383e-13 0 -8.13152e-14 -4.38357e-13 0 0 0 0)
(2.71051e-13 -4.43734e-13 0 -2.71051e-14 -3.05293e-13 0 0 0 0)
(1.6263e-13 -4.16396e-13 0 -5.42101e-14 -2.1207e-13 0 0 0 0)
(1.35525e-13 -4.46966e-13 0 5.42101e-14 -1.40076e-13 0 0 0 0)
(1.35525e-13 -5.04611e-13 0 -2.71051e-14 -8.70907e-14 0 0 0 0)
(0 -2.75379e-13 0 0 -2.30298e-14 0 0 0 0)
(5.68234e-08 3.19199e-06 0 -8.29973e-09 3.94168e-10 0 0 0 0)
(-6.64988e-08 -3.9486e-06 0 1.65842e-09 4.29451e-10 0 0 0 0)
(1.47007e-08 9.36055e-07 0 -7.36932e-10 -1.21712e-10 0 0 0 0)
(-6.12363e-09 -2.21986e-07 0 1.54146e-10 5.27304e-11 0 0 0 0)
(1.43218e-09 5.26253e-08 0 -5.01444e-11 -2.14648e-11 0 0 0 0)
(-4.56368e-10 -1.24757e-08 0 1.54228e-11 2.76423e-12 0 0 0 0)
(1.39781e-10 2.95856e-09 0 -3.2255e-12 -4.50187e-12 0 0 0 0)
(-3.48842e-11 -7.01086e-10 0 1.57209e-12 -1.82163e-12 0 0 0 0)
(1.33899e-11 1.66172e-10 0 -8.13152e-14 -2.15601e-12 0 0 0 0)
(-1.5992e-12 -3.95793e-11 0 1.6263e-13 -1.6096e-12 0 0 0 0)
(2.27682e-12 9.09614e-12 0 0 -1.34223e-12 0 0 0 0)
(7.58942e-13 -2.5222e-12 0 -2.71051e-14 -1.0355e-12 0 0 0 0)
(8.94467e-13 1.78003e-13 0 0 -8.02139e-13 0 0 0 0)
(5.69206e-13 -4.75008e-13 0 -2.71051e-14 -6.02318e-13 0 0 0 0)
(5.42101e-13 -3.04044e-13 0 -5.42101e-14 -4.61596e-13 0 0 0 0)
(2.98156e-13 -3.30901e-13 0 -5.42101e-14 -3.55116e-13 0 0 0 0)
(2.71051e-13 -3.14706e-13 0 0 -2.35981e-13 0 0 0 0)
(1.6263e-13 -3.80541e-13 0 0 -1.43743e-13 0 0 0 0)
(0 -4.43175e-13 0 0 -7.27125e-14 0 0 0 0)
(5.42101e-14 -2.26325e-13 0 -2.71051e-14 -2.13117e-14 0 0 0 0)
(-5.90848e-08 -3.19175e-06 0 3.25366e-09 3.21255e-10 0 0 0 0)
(6.89894e-08 3.94855e-06 0 -5.78612e-10 -6.12826e-10 0 0 0 0)
(-1.51614e-08 -9.36293e-07 0 2.81107e-10 1.62012e-10 0 0 0 0)
(6.34621e-09 2.2205e-07 0 -5.01444e-11 -6.833e-11 0 0 0 0)
(-1.46546e-09 -5.26515e-08 0 1.83772e-11 1.88654e-11 0 0 0 0)
(4.74826e-10 1.24862e-08 0 -3.93023e-12 -8.93561e-12 0 0 0 0)
(-1.38209e-10 -2.96033e-09 0 1.89735e-12 -5.08318e-13 0 0 0 0)
(4.02239e-11 7.0253e-10 0 2.43945e-13 -2.80088e-12 0 0 0 0)
(-9.81203e-12 -1.66223e-10 0 5.42101e-13 -1.70799e-12 0 0 0 0)
(4.8518e-12 3.96182e-11 0 3.25261e-13 -1.5931e-12 0 0 0 0)
(2.71051e-13 -9.32489e-12 0 2.1684e-13 -1.25017e-12 0 0 0 0)
(1.32815e-12 2.17026e-12 0 1.35525e-13 -1.01211e-12 0 0 0 0)
(7.04731e-13 -6.40813e-13 0 8.13152e-14 -7.71714e-13 0 0 0 0)
(5.69206e-13 -5.15812e-14 0 0 -5.77395e-13 0 0 0 0)
(4.60786e-13 -2.5818e-13 0 5.42101e-14 -4.45866e-13 0 0 0 0)
(2.98156e-13 -2.18119e-13 0 0 -3.43021e-13 0 0 0 0)
(2.71051e-13 -2.05024e-13 0 0 -2.47062e-13 0 0 0 0)
(1.35525e-13 -2.83698e-13 0 -5.42101e-14 -1.58584e-13 0 0 0 0)
(8.13152e-14 -3.82179e-13 0 0 -7.95379e-14 0 0 0 0)
(5.42101e-14 -1.81355e-13 0 0 -2.6015e-14 0 0 0 0)
(5.94985e-08 3.1917e-06 0 1.90142e-09 -7.67312e-10 0 0 0 0)
(-6.94714e-08 -3.94876e-06 0 -5.28765e-10 7.21264e-10 0 0 0 0)
(1.52291e-08 9.366e-07 0 1.87946e-10 -1.91419e-10 0 0 0 0)
(-6.3863e-09 -2.22129e-07 0 -5.36951e-11 7.02093e-11 0 0 0 0)
(1.47839e-09 5.26847e-08 0 1.81604e-11 -2.60002e-11 0 0 0 0)
(-4.72848e-10 -1.24951e-08 0 -4.25549e-12 3.94514e-12 0 0 0 0)
(1.43982e-10 2.9647e-09 0 2.71051e-12 -4.53721e-12 0 0 0 0)
(-3.62124e-11 -7.02285e-10 0 4.87891e-13 -1.45657e-12 0 0 0 0)
(1.3417e-11 1.6738e-10 0 9.75782e-13 -1.90588e-12 0 0 0 0)
(-1.89735e-12 -3.91215e-11 0 5.69206e-13 -1.35617e-12 0 0 0 0)
(2.08709e-12 9.67712e-12 0 5.42101e-13 -1.14788e-12 0 0 0 0)
(5.69206e-13 -2.04375e-12 0 3.52366e-13 -8.90657e-13 0 0 0 0)
(7.86047e-13 6.12722e-13 0 2.43945e-13 -6.97994e-13 0 0 0 0)
(5.42101e-13 -1.49159e-13 0 1.6263e-13 -5.45208e-13 0 0 0 0)
(4.87891e-13 -6.96702e-14 0 8.13152e-14 -4.1348e-13 0 0 0 0)
(2.71051e-13 -1.32098e-13 0 5.42101e-14 -2.96905e-13 0 0 0 0)
(1.89735e-13 -1.30269e-13 0 5.42101e-14 -2.23408e-13 0 0 0 0)
(1.6263e-13 -2.13016e-13 0 0 -1.67709e-13 0 0 0 0)
(1.35525e-13 -3.10607e-13 0 2.71051e-14 -9.31741e-14 0 0 0 0)
(0 -1.20772e-13 0 2.71051e-14 -2.32226e-14 0 0 0 0)
(-5.77121e-08 -3.19179e-06 0 -7.08778e-09 1.07382e-09 0 0 0 0)
(6.72759e-08 3.94912e-06 0 1.64365e-09 -7.59326e-10 0 0 0 0)
(-1.46863e-08 -9.36945e-07 0 -6.62231e-10 1.93579e-10 0 0 0 0)
(6.17648e-09 2.22216e-07 0 1.5973e-10 -7.60022e-11 0 0 0 0)
(-1.41608e-09 -5.27178e-08 0 -5.2123e-11 1.91334e-11 0 0 0 0)
(4.59349e-10 1.25077e-08 0 1.67509e-11 -9.48736e-12 0 0 0 0)
(-1.33438e-10 -2.96573e-09 0 -2.98156e-12 -4.27996e-13 0 0 0 0)
(3.84892e-11 7.05161e-10 0 2.6834e-12 -2.54295e-12 0 0 0 0)
(-9.75782e-12 -1.66123e-10 0 7.58942e-13 -1.38616e-12 0 0 0 0)
(4.39102e-12 4.03763e-11 0 1.0571e-12 -1.26811e-12 0 0 0 0)
(1.0842e-13 -8.85938e-12 0 6.23416e-13 -9.17804e-13 0 0 0 0)
(9.75782e-13 2.62014e-12 0 5.14996e-13 -7.20422e-13 0 0 0 0)
(5.14996e-13 -2.95364e-13 0 2.98156e-13 -5.79632e-13 0 0 0 0)
(4.60786e-13 2.32933e-13 0 2.71051e-13 -4.7616e-13 0 0 0 0)
(3.52366e-13 -9.87654e-15 0 1.35525e-13 -3.52203e-13 0 0 0 0)
(2.71051e-13 -2.80474e-14 0 2.71051e-14 -2.54653e-13 0 0 0 0)
(2.1684e-13 -7.58285e-14 0 2.71051e-14 -1.99164e-13 0 0 0 0)
(1.35525e-13 -1.53464e-13 0 0 -1.5139e-13 0 0 0 0)
(8.13152e-14 -2.37693e-13 0 5.42101e-14 -8.75838e-14 0 0 0 0)
(0 -6.49582e-14 0 0 -1.82383e-14 0 0 0 0)
(5.40544e-08 3.19202e-06 0 1.16425e-08 -1.13304e-09 0 0 0 0)
(-6.30458e-08 -3.94964e-06 0 -2.63282e-09 7.24867e-10 0 0 0 0)
(1.37452e-08 9.37283e-07 0 1.07233e-09 -1.96114e-10 0 0 0 0)
(-5.77625e-09 -2.22304e-07 0 -2.53432e-10 6.28101e-11 0 0 0 0)
(1.33547e-09 5.27512e-08 0 8.45136e-11 -2.62275e-11 0 0 0 0)
(-4.23706e-10 -1.25147e-08 0 -2.24701e-11 2.69865e-12 0 0 0 0)
(1.2986e-10 2.97164e-09 0 8.72783e-12 -4.48277e-12 0 0 0 0)
(-3.24719e-11 -7.03243e-10 0 -2.71051e-13 -1.23493e-12 0 0 0 0)
(1.1872e-11 1.68655e-10 0 2.08709e-12 -1.45812e-12 0 0 0 0)
(-2.08709e-12 -3.86531e-11 0 9.75782e-13 -8.75056e-13 0 0 0 0)
(1.54499e-12 1.02248e-11 0 8.40257e-13 -7.064e-13 0 0 0 0)
(2.71051e-13 -1.70558e-12 0 5.42101e-13 -5.38774e-13 0 0 0 0)
(5.42101e-13 8.56984e-13 0 4.33681e-13 -4.417e-13 0 0 0 0)
(4.06576e-13 7.82694e-14 0 3.25261e-13 -3.62632e-13 0 0 0 0)
(2.1684e-13 1.51837e-13 0 1.89735e-13 -2.71925e-13 0 0 0 0)
(2.1684e-13 2.09411e-14 0 1.89735e-13 -2.06012e-13 0 0 0 0)
(1.6263e-13 -2.70052e-14 0 8.13152e-14 -1.59991e-13 0 0 0 0)
(1.0842e-13 -1.01436e-13 0 5.42101e-14 -1.22177e-13 0 0 0 0)
(8.13152e-14 -1.77455e-13 0 0 -7.30909e-14 0 0 0 0)
(0 -1.49503e-14 0 -2.71051e-14 -1.09944e-14 0 0 0 0)
(-4.87025e-08 -3.1922e-06 0 -1.62554e-08 1.15366e-09 0 0 0 0)
(5.67057e-08 3.95006e-06 0 3.62644e-09 -6.57775e-10 0 0 0 0)
(-1.23069e-08 -9.37607e-07 0 -1.49639e-09 1.54854e-10 0 0 0 0)
(5.18864e-09 2.22386e-07 0 3.50821e-10 -6.59195e-11 0 0 0 0)
(-1.18514e-09 -5.27779e-08 0 -1.12269e-10 1.10002e-11 0 0 0 0)
(3.83564e-10 1.25294e-08 0 3.71068e-11 -8.66552e-12 0 0 0 0)
(-1.11212e-10 -2.96967e-09 0 -6.26127e-12 -8.40295e-13 0 0 0 0)
(3.18755e-11 7.08186e-10 0 5.3397e-12 -1.74384e-12 0 0 0 0)
(-8.51099e-12 -1.65763e-10 0 1.0571e-12 -7.08073e-13 0 0 0 0)
(3.1984e-12 4.1128e-11 0 1.57209e-12 -5.6872e-13 0 0 0 0)
(-3.52366e-13 -8.5231e-12 0 8.67362e-13 -4.09998e-13 0 0 0 0)
(5.69206e-13 2.88484e-12 0 7.58942e-13 -3.40026e-13 0 0 0 0)
(2.71051e-13 -1.19222e-13 0 4.87891e-13 -2.64115e-13 0 0 0 0)
(2.1684e-13 4.02708e-13 0 2.98156e-13 -2.0814e-13 0 0 0 0)
(1.35525e-13 1.46744e-13 0 2.1684e-13 -2.02174e-13 0 0 0 0)
(1.89735e-13 8.3886e-14 0 1.35525e-13 -1.75144e-13 0 0 0 0)
(1.35525e-13 8.00597e-15 0 1.0842e-13 -1.16218e-13 0 0 0 0)
(2.71051e-14 -6.65636e-14 0 5.42101e-14 -8.34161e-14 0 0 0 0)
(8.13152e-14 -1.2651e-13 0 2.71051e-14 -4.5744e-14 0 0 0 0)
(-2.71051e-14 1.91272e-14 0 0 7.35428e-15 0 0 0 0)
(4.14254e-08 3.19251e-06 0 1.91063e-08 -9.23661e-10 0 0 0 0)
(-4.82868e-08 -3.95064e-06 0 -4.26669e-09 5.01623e-10 0 0 0 0)
(1.04696e-08 9.37875e-07 0 1.75657e-09 -1.87397e-10 0 0 0 0)
(-4.3921e-09 -2.22447e-07 0 -4.04163e-10 3.92585e-11 0 0 0 0)
(1.02175e-09 5.28084e-08 0 1.3932e-10 -2.62174e-11 0 0 0 0)
(-3.17644e-10 -1.25265e-08 0 -3.277e-11 2.91935e-12 0 0 0 0)
(9.80119e-11 2.97856e-09 0 1.48265e-11 -3.13447e-12 0 0 0 0)
(-2.51535e-11 -7.03111e-10 0 -5.42101e-14 1.95976e-13 0 0 0 0)
(8.07731e-12 1.6983e-10 0 3.00866e-12 -2.95563e-13 0 0 0 0)
(-2.19551e-12 -3.8355e-11 0 1.21973e-12 2.80645e-14 0 0 0 0)
(7.04731e-13 1.04535e-11 0 1.16552e-12 -5.40995e-14 0 0 0 0)
(-1.89735e-13 -1.55969e-12 0 6.50521e-13 -4.50934e-14 0 0 0 0)
(1.35525e-13 9.8887e-13 0 4.06576e-13 -7.96042e-14 0 0 0 0)
(5.42101e-14 1.40211e-13 0 2.71051e-13 -8.04301e-14 0 0 0 0)
(1.35525e-13 1.84832e-13 0 1.6263e-13 -1.08831e-13 0 0 0 0)
(1.35525e-13 1.06897e-13 0 8.13152e-14 -1.02468e-13 0 0 0 0)
(2.71051e-14 6.47231e-14 0 2.71051e-14 -7.77568e-14 0 0 0 0)
(5.42101e-14 -3.0962e-14 0 2.71051e-14 -4.72e-14 0 0 0 0)
(2.71051e-14 -8.6685e-14 0 0 -1.94648e-14 0 0 0 0)
(-2.71051e-14 2.34394e-14 0 0 1.47197e-14 0 0 0 0)
(-3.38629e-08 -3.19262e-06 0 -2.20652e-08 1.02926e-09 0 0 0 0)
(3.93561e-08 3.9508e-06 0 4.799e-09 -5.28022e-10 0 0 0 0)
(-8.44444e-09 -9.38069e-07 0 -2.01513e-09 5.63606e-12 0 0 0 0)
(3.57142e-09 2.22547e-07 0 5.13478e-10 2.54893e-12 0 0 0 0)
(-8.13748e-10 -5.28142e-08 0 -1.46123e-10 -1.1596e-11 0 0 0 0)
(2.5907e-10 1.25525e-08 0 5.87095e-11 5.75196e-12 0 0 0 0)
(-7.84691e-11 -2.97239e-09 0 -8.61941e-12 -1.0138e-12 0 0 0 0)
(2.00577e-11 7.11025e-10 0 7.86047e-12 1.80542e-12 0 0 0 0)
(-7.26415e-12 -1.65931e-10 0 7.86047e-13 5.46603e-13 0 0 0 0)
(1.30104e-12 4.13694e-11 0 1.84314e-12 6.57021e-13 0 0 0 0)
(-8.94467e-13 -8.59625e-12 0 8.13152e-13 3.45044e-13 0 0 0 0)
(-1.0842e-13 2.85934e-12 0 6.77626e-13 2.24689e-13 0 0 0 0)
(-1.35525e-13 -1.54559e-13 0 4.60786e-13 1.01908e-13 0 0 0 0)
(0 3.73481e-13 0 2.71051e-13 3.50463e-14 0 0 0 0)
(0 1.24706e-13 0 1.89735e-13 1.63503e-14 0 0 0 0)
(-2.71051e-14 1.14961e-13 0 8.13152e-14 -6.35682e-15 0 0 0 0)
(2.71051e-14 6.32738e-14 0 -2.71051e-14 -4.59083e-14 0 0 0 0)
(5.42101e-14 -8.27153e-15 0 5.42101e-14 -3.83517e-14 0 0 0 0)
(0 -6.45899e-14 0 -2.71051e-14 -1.67545e-14 0 0 0 0)
(0 2.38723e-14 0 2.71051e-14 6.85975e-15 0 0 0 0)
(2.41592e-08 3.19301e-06 0 2.25139e-08 -1.46157e-09 0 0 0 0)
(-2.82367e-08 -3.95166e-06 0 -2.21936e-09 1.60999e-09 0 0 0 0)
(6.1841e-09 9.38405e-07 0 8.10902e-10 -5.3449e-10 0 0 0 0)
(-2.52307e-09 -2.22465e-07 0 1.06306e-10 2.15613e-10 0 0 0 0)
(5.66956e-10 5.28117e-08 0 -2.53161e-11 -6.15865e-11 0 0 0 0)
(-1.80194e-10 -1.25159e-08 0 2.74845e-11 2.7531e-11 0 0 0 0)
(4.7217e-11 2.97462e-09 0 -3.41524e-12 -2.75206e-12 0 0 0 0)
(-1.57209e-11 -7.01551e-10 0 5.39391e-12 4.71524e-12 0 0 0 0)
(2.03288e-12 1.68681e-10 0 7.31836e-13 1.12461e-12 0 0 0 0)
(-2.1684e-12 -3.85566e-11 0 1.27394e-12 1.28808e-12 0 0 0 0)
(-4.87891e-13 1.00212e-11 0 5.14996e-13 6.49377e-13 0 0 0 0)
(-5.42101e-13 -1.80283e-12 0 4.06576e-13 4.42469e-13 0 0 0 0)
(-2.71051e-13 7.99228e-13 0 2.43945e-13 2.57981e-13 0 0 0 0)
(-2.43945e-13 5.46531e-14 0 1.35525e-13 1.43582e-13 0 0 0 0)
(-5.42101e-14 1.43429e-13 0 5.42101e-14 7.16526e-14 0 0 0 0)
(-5.42101e-14 4.46388e-14 0 8.13152e-14 2.04675e-14 0 0 0 0)
(0 3.27282e-14 0 8.13152e-14 -2.04721e-14 0 0 0 0)
(5.42101e-14 -1.80821e-15 0 2.71051e-14 -3.55667e-14 0 0 0 0)
(2.71051e-14 -4.14735e-14 0 5.42101e-14 -1.14653e-14 0 0 0 0)
(-2.71051e-14 3.33341e-14 0 2.71051e-14 1.65529e-14 0 0 0 0)
(-1.35683e-08 -3.19247e-06 0 -1.02648e-08 7.30461e-10 0 0 0 0)
(1.7653e-08 3.95172e-06 0 -3.2602e-10 -1.26885e-09 0 0 0 0)
(-6.1188e-09 -9.39463e-07 0 3.18864e-10 6.67377e-10 0 0 0 0)
(2.7352e-09 2.2302e-07 0 -3.91343e-10 -2.10825e-10 0 0 0 0)
(-8.92542e-10 -5.30023e-08 0 1.06767e-10 1.12107e-10 0 0 0 0)
(2.80917e-10 1.26113e-08 0 -6.57569e-11 -2.01723e-11 0 0 0 0)
(-1.0056e-10 -2.99521e-09 0 5.99022e-12 1.66751e-11 0 0 0 0)
(2.42048e-11 7.14902e-10 0 -1.24141e-11 4.18034e-13 0 0 0 0)
(-1.1357e-11 -1.69358e-10 0 -2.43945e-12 3.32417e-12 0 0 0 0)
(1.0842e-12 4.08942e-11 0 -3.14419e-12 1.09502e-12 0 0 0 0)
(-1.76183e-12 -9.44186e-12 0 -1.32815e-12 9.8656e-13 0 0 0 0)
(-3.79471e-13 2.46794e-12 0 -8.94467e-13 5.15703e-13 0 0 0 0)
(-4.06576e-13 -4.53446e-13 0 -4.33681e-13 3.21449e-13 0 0 0 0)
(-1.35525e-13 1.87153e-13 0 -1.89735e-13 1.69921e-13 0 0 0 0)
(-1.0842e-13 1.59144e-15 0 -5.42101e-14 7.96436e-14 0 0 0 0)
(-2.71051e-14 2.2836e-14 0 -2.71051e-14 2.4901e-14 0 0 0 0)
(-2.71051e-14 7.23957e-15 0 0 1.21689e-14 0 0 0 0)
(2.71051e-14 7.35321e-16 0 -2.71051e-14 -1.50668e-14 0 0 0 0)
(2.71051e-14 -1.24704e-14 0 -5.42101e-14 1.32418e-14 0 0 0 0)
(-8.13152e-14 1.87847e-14 0 -5.42101e-14 3.88771e-14 0 0 0 0)
)
;

boundaryField
{
    movingWall
    {
        type            extrapolatedCalculated;
        value           nonuniform List<tensor> 
20
(
(-1.35683e-08 -3.19247e-06 0 8.27753e-08 1.67525e-05 0 0 0 0)
(1.7653e-08 3.95172e-06 0 -2.8502e-08 -3.98256e-06 0 0 0 0)
(-6.1188e-09 -9.39463e-07 0 1.21631e-08 9.45559e-07 0 0 0 0)
(2.7352e-09 2.2302e-07 0 -4.02691e-09 -2.24707e-07 0 0 0 0)
(-8.92542e-10 -5.30023e-08 0 1.2224e-09 5.34793e-08 0 0 0 0)
(2.80917e-10 1.26113e-08 0 -4.56746e-10 -1.26978e-08 0 0 0 0)
(-1.0056e-10 -2.99521e-09 0 9.87654e-11 3.03393e-09 0 0 0 0)
(2.42048e-11 7.14902e-10 0 -5.45342e-11 -7.16981e-10 0 0 0 0)
(-1.1357e-11 -1.69358e-10 0 1.95399e-12 1.74319e-10 0 0 0 0)
(1.0842e-12 4.08942e-11 0 -9.10383e-12 -3.95478e-11 0 0 0 0)
(-1.76183e-12 -9.44186e-12 0 -2.30926e-12 1.07418e-11 0 0 0 0)
(-3.79471e-13 2.46794e-12 0 -2.08722e-12 -1.78035e-12 0 0 0 0)
(-4.06576e-13 -4.53446e-13 0 -8.43769e-13 8.70039e-13 0 0 0 0)
(-1.35525e-13 1.87153e-13 0 -4.88498e-13 3.34373e-14 0 0 0 0)
(-1.0842e-13 1.59144e-15 0 -2.66454e-13 1.21429e-13 0 0 0 0)
(-2.71051e-14 2.2836e-14 0 -4.44089e-14 2.70716e-14 0 0 0 0)
(-2.71051e-14 7.23957e-15 0 -8.88178e-14 3.00852e-14 0 0 0 0)
(2.71051e-14 7.35321e-16 0 -4.44089e-14 -1.88671e-15 0 0 0 0)
(2.71051e-14 -1.24704e-14 0 -2.22045e-13 2.7144e-14 0 0 0 0)
(-8.13152e-14 1.87847e-14 0 -1.33227e-13 4.79947e-14 0 0 0 0)
)
;
    }
    fixedWalls
    {
        type            extrapolatedCalculated;
        value           nonuniform List<tensor> 
60
(
(-2.33098e-08 1.68565e-05 0 -3.55626e-09 1.7424e-09 0 0 0 0)
(9.08473e-09 -1.68495e-05 0 7.88432e-10 -9.57252e-09 0 0 0 0)
(-2.01561e-08 1.68182e-05 0 -6.65218e-09 1.29085e-08 0 0 0 0)
(-1.75241e-08 -1.67979e-05 0 1.90993e-08 -9.62451e-09 0 0 0 0)
(5.62414e-08 1.67797e-05 0 -2.25115e-08 7.85065e-09 0 0 0 0)
(-1.0757e-07 -1.67665e-05 0 2.47141e-08 -6.25193e-09 0 0 0 0)
(1.55098e-07 1.67547e-05 0 -2.33391e-08 5.00365e-09 0 0 0 0)
(-2.00926e-07 -1.67465e-05 0 2.11429e-08 -3.60533e-09 0 0 0 0)
(2.39669e-07 1.67403e-05 0 -1.73266e-08 2.39425e-09 0 0 0 0)
(-2.70233e-07 -1.67369e-05 0 1.3196e-08 -1.26222e-09 0 0 0 0)
(2.92454e-07 1.67352e-05 0 -8.29973e-09 3.94168e-10 0 0 0 0)
(-3.03432e-07 -1.67353e-05 0 3.25366e-09 3.21255e-10 0 0 0 0)
(3.05468e-07 1.67365e-05 0 1.90142e-09 -7.67312e-10 0 0 0 0)
(-2.95826e-07 -1.67384e-05 0 -7.08778e-09 1.07382e-09 0 0 0 0)
(2.77117e-07 1.67408e-05 0 1.16425e-08 -1.13304e-09 0 0 0 0)
(-2.49256e-07 -1.67429e-05 0 -1.62554e-08 1.15366e-09 0 0 0 0)
(2.12096e-07 1.67454e-05 0 1.91063e-08 -9.23661e-10 0 0 0 0)
(-1.72831e-07 -1.67466e-05 0 -2.20652e-08 1.02926e-09 0 0 0 0)
(1.23835e-07 1.67495e-05 0 2.25139e-08 -1.46157e-09 0 0 0 0)
(-8.27753e-08 -1.67525e-05 0 -1.02648e-08 7.30461e-10 0 0 0 0)
(8.88178e-14 -3.27189e-14 0 -5.42101e-14 3.50687e-14 0 0 0 0)
(8.88178e-14 -1.07556e-13 0 5.42101e-14 3.12496e-14 0 0 0 0)
(0 -1.57717e-13 0 0 2.09014e-14 0 0 0 0)
(8.88178e-14 -1.91161e-13 0 0 1.14146e-14 0 0 0 0)
(-8.88178e-14 -2.03376e-13 0 2.71051e-14 -3.01038e-15 0 0 0 0)
(0 -1.7912e-13 0 -2.71051e-14 -1.04378e-14 0 0 0 0)
(-4.44089e-14 -1.61625e-13 0 2.71051e-14 -7.57105e-15 0 0 0 0)
(-4.44089e-14 -1.48835e-13 0 0 -1.42155e-14 0 0 0 0)
(-4.44089e-14 -1.04762e-13 0 0 -2.49513e-14 0 0 0 0)
(-8.88178e-14 -4.90301e-14 0 0 -2.30298e-14 0 0 0 0)
(0 -1.26433e-14 0 -2.71051e-14 -2.13117e-14 0 0 0 0)
(0 3.62168e-14 0 0 -2.6015e-14 0 0 0 0)
(0 9.14166e-14 0 2.71051e-14 -2.32226e-14 0 0 0 0)
(-4.44089e-14 1.29107e-13 0 0 -1.82383e-14 0 0 0 0)
(0 1.6437e-13 0 -2.71051e-14 -1.09944e-14 0 0 0 0)
(-4.44089e-14 1.73085e-13 0 0 7.35428e-15 0 0 0 0)
(0 1.34953e-13 0 0 1.47197e-14 0 0 0 0)
(0 1.14206e-13 0 2.71051e-14 6.85975e-15 0 0 0 0)
(-4.44089e-14 1.07514e-13 0 2.71051e-14 1.65529e-14 0 0 0 0)
(-1.33227e-13 4.79947e-14 0 -5.42101e-14 3.88771e-14 0 0 0 0)
(-1.77316e-09 3.21383e-06 0 -2.33098e-08 1.68565e-05 0 0 0 0)
(4.20969e-09 -3.97649e-06 0 1.62171e-08 -4.00118e-06 0 0 0 0)
(-3.2735e-09 9.43927e-07 0 -6.471e-09 9.50536e-07 0 0 0 0)
(1.45167e-09 -2.24216e-07 0 3.1231e-09 -2.2547e-07 0 0 0 0)
(-6.68655e-10 5.31939e-08 0 -6.64357e-10 5.36734e-08 0 0 0 0)
(1.65422e-10 -1.26568e-08 0 4.48575e-10 -1.26942e-08 0 0 0 0)
(-8.97719e-11 2.99683e-09 0 -2.75335e-12 3.04638e-09 0 0 0 0)
(8.61941e-12 -7.16907e-10 0 8.94396e-11 -7.0691e-10 0 0 0 0)
(-1.46096e-11 1.67849e-10 0 3.17968e-11 1.78757e-10 0 0 0 0)
(-3.1984e-12 -4.13708e-11 0 3.0953e-11 -3.55132e-11 0 0 0 0)
(-4.20128e-12 8.93997e-12 0 1.9007e-11 1.32735e-11 0 0 0 0)
(-2.38524e-12 -2.71422e-12 0 1.40776e-11 2.4669e-13 0 0 0 0)
(-1.89735e-12 2.38656e-13 0 9.54792e-12 2.41662e-12 0 0 0 0)
(-1.32815e-12 -3.60964e-13 0 6.52811e-12 1.20132e-12 0 0 0 0)
(-9.48677e-13 -1.32541e-13 0 4.26326e-12 9.72766e-13 0 0 0 0)
(-6.77626e-13 -1.15615e-13 0 2.62013e-12 6.71152e-13 0 0 0 0)
(-4.87891e-13 -7.84244e-14 0 1.59872e-12 5.10304e-13 0 0 0 0)