/*--------------------------------*- C++ -*----------------------------------*\
| =========                 |                                                 |
| \\      /  F ield         | OpenFOAM: The Open Source CFD Toolbox           |
|  \\    /   O peration     | Version:  2506                                  |
|   \\  /    A nd           | Website:  www.openfoam.com                      |
|    \\/     M anipulation  |                                                 |
\*---------------------------------------------------------------------------*/
FoamFile
{
    version     2.0;
    format      ascii;
    arch        "LSB;label=32;scalar=64";
    class       volScalarField;
    location    "4.125";
    object      Lambda2Field;
}
// * * * * * * * * * * * * * * * * * * * * * * * * * * * * * * * * * * * * * //

dimensions      [0 0 -2 0 0 0 0];

internalField   nonuniform List<scalar> 
400
(
-1.14261e-14
-1.49156e-14
-1.40668e-15
-1.85009e-16
-7.44111e-18
-1.76239e-18
4.06039e-20
-2.52434e-20
2.76532e-21
-5.54426e-22
9.32014e-23
-1.2099e-23
4.33482e-24
5.62207e-25
6.20223e-25
3.07327e-25
1.80269e-25
9.43766e-26
2.92322e-26
3.77631e-27
-2.44103e-15
-1.42826e-14
-1.18503e-15
-1.75925e-16
-8.70914e-18
-1.31014e-18
-2.96245e-20
-1.06217e-20
3.80132e-22
-1.04526e-22
2.35431e-23
3.5166e-24
3.30379e-24
1.58709e-24
8.59356e-25
4.55086e-25
2.3031e-25
8.88968e-26
2.64486e-26
-8.14476e-27
-2.11691e-14
-7.57613e-15
-5.79926e-16
-2.83046e-17
-4.35246e-18
1.38953e-19
-5.50584e-20
5.96643e-21
-9.53127e-22
1.59963e-22
-1.2095e-23
8.54558e-24
2.08837e-24
1.52211e-24
7.40947e-25
4.27351e-25
1.77513e-25
8.75707e-26
2.78434e-26
4.36867e-28
-6.11024e-14
-1.71397e-14
-1.55465e-15
-9.3668e-17
-5.76791e-18
-6.46648e-19
1.37042e-21
-7.58033e-21
7.60849e-22
-1.38123e-22
3.0486e-23
2.73358e-25
2.71366e-24
1.03924e-24
6.35604e-25
3.54906e-25
1.9096e-25
9.58766e-26
3.70795e-26
0
-7.19553e-14
-1.95311e-14
-1.85333e-15
-1.03078e-16
-7.74635e-18
-4.47895e-19
-5.16052e-20
1.39109e-21
-8.24961e-22
1.2328e-22
-1.53901e-23
6.77988e-24
1.2165e-24
1.14381e-24
5.37806e-25
2.75977e-25
1.3248e-25
6.36412e-26
7.34684e-28
-1.01589e-26
-7.86406e-14
-2.03436e-14
-2.05063e-15
-1.05433e-16
-8.02715e-18
-5.87544e-19
-2.38363e-20
-4.6508e-21
3.20761e-22
-9.16845e-23
1.97638e-23
-3.70388e-25
1.90172e-24
6.76366e-25
4.54579e-25
2.1641e-25
1.03606e-25
3.50255e-26
0
1.04315e-26
-7.37252e-14
-1.82491e-14
-1.88962e-15
-9.32821e-17
-7.12704e-18
-4.75963e-19
-3.23704e-20
-7.31808e-22
-4.07476e-22
5.94934e-23
-8.20664e-24
3.81778e-24
6.78394e-25
6.00641e-25
2.98434e-25
1.60209e-25
6.59451e-26
3.24235e-26
3.32066e-26
-9.73327e-27
-6.60487e-14
-1.53901e-14
-1.67656e-15
-7.39839e-17
-6.22535e-18
-3.84911e-19
-2.04495e-20
-2.07194e-21
5.53295e-23
-3.39521e-23
1.0715e-23
0
1.33218e-24
5.00673e-25
2.92883e-25
1.72371e-25
9.00062e-26
1.57662e-26
1.26296e-27
0
-5.31846e-14
-1.12275e-14
-1.30279e-15
-4.99974e-17
-4.29335e-18
-2.67147e-19
-1.04903e-20
-7.63045e-22
-5.06289e-23
1.1867e-23
0
1.82926e-24
6.56619e-25
5.03518e-25
2.36874e-25
1.24834e-25
6.54736e-26
6.82603e-26
5.81738e-27
0
-3.9379e-14
-6.91297e-15
-9.23588e-16
-2.35762e-17
-2.76244e-18
-1.0659e-19
-4.81109e-21
0
-1.0143e-23
0
1.5796e-24
6.74337e-25
7.00422e-25
4.28783e-25
2.33252e-25
8.54958e-26
4.90215e-26
-4.60879e-27
2.12623e-26
0
-2.32638e-14
-2.12636e-15
-4.73698e-16
0
-5.8773e-19
0
0
0
0
-3.84598e-24
1.80159e-24
6.44357e-25
6.43427e-25
3.36871e-25
2.29553e-25
1.06835e-25
5.56869e-26
2.06621e-26
0
6.58875e-27
-6.89385e-15
0
-3.33293e-17
0
0
0
0
1.79224e-22
0
1.54242e-23
-4.59087e-25
1.3185e-24
4.44539e-25
3.23996e-25
1.848e-25
8.88968e-26
6.10398e-26
3.37464e-26
6.32628e-27
6.76779e-28
6.06935e-15
2.08849e-15
1.76067e-16
1.19322e-17
9.5745e-19
5.31883e-20
8.05641e-21
0
1.66958e-22
-1.86682e-23
6.5636e-24
0
6.36666e-25
2.69616e-25
1.653e-25
6.63074e-26
2.89376e-26
2.64486e-26
2.62399e-28
-2.73425e-27
2.26239e-14
6.49156e-15
6.20511e-16
3.55003e-17
2.74818e-18
2.09605e-19
8.84268e-21
1.8987e-21
-3.08626e-23
4.42897e-23
-4.68072e-24
1.86837e-24
1.77157e-25
2.7546e-25
1.22709e-25
6.40881e-26
3.76111e-26
1.83671e-26
-5.21443e-27
0
3.71644e-14
1.03992e-14
1.00512e-15
5.63428e-17
4.45888e-18
2.81213e-19
2.59561e-20
1.9214e-22
3.54123e-22
-3.33611e-23
9.09047e-24
-6.34318e-25
5.66756e-25
1.5696e-25
7.58285e-26
4.64142e-26
2.34012e-26
6.25611e-27
5.34228e-27
4.0523e-28
5.18918e-14
1.43251e-14
1.40305e-15
7.80219e-17
5.92545e-18
4.65002e-19
1.85946e-20
3.78454e-21
-1.02791e-22
6.49805e-23
-7.22451e-24
2.30504e-24
1.15893e-26
1.63392e-25
5.01871e-26
4.20442e-26
1.43745e-26
0
0
5.40854e-29
6.09978e-14
1.68564e-14
1.64748e-15
8.99066e-17
7.35796e-18
4.10502e-19
4.41714e-20
3.81541e-23
5.11047e-22
-4.19624e-23
1.21867e-23
-9.78614e-25
4.08387e-25
4.09429e-26
4.19036e-26
1.9192e-26
2.48901e-27
1.38861e-27
3.78877e-28
2.16668e-28
7.04471e-14
1.89602e-14
1.89033e-15
1.14273e-16
7.71753e-18
7.36985e-19
2.56213e-20
5.59225e-21
-7.76616e-23
7.66815e-23
-6.18999e-24
1.94932e-24
-5.28515e-26
1.01232e-25
2.36612e-26
9.38845e-27
0
1.02245e-27
1.75071e-27
6.47059e-28
7.18894e-14
8.77276e-15
7.6124e-16
-1.72834e-17
-1.01555e-18
-3.11524e-19
-7.92957e-21
-3.53695e-21
1.24712e-22
-4.44167e-23
5.3989e-24
-4.39113e-25
2.61522e-25
2.80227e-26
1.0714e-26
4.04873e-27
2.6613e-27
1.21598e-27
-1.5136e-27
1.17752e-27
3.27708e-14
-9.7671e-16
-2.62121e-16
-7.97959e-17
-4.86226e-18
-7.50368e-19
-7.82967e-21
-8.289e-21
4.24192e-22
-1.2738e-22
1.35135e-23
-1.94154e-24
2.9998e-25
-6.6362e-27
6.25684e-27
1.08763e-30
1.48081e-28
2.07078e-28
8.51364e-28
4.93107e-28
)
;

boundaryField
{
    movingWall
    {
        type            calculated;
        value           nonuniform List<scalar> 
20
(
0
0
0
0
0
0
0
0
0
0
2.49078e-23
-1.9815e-24
5.47908e-25
-7.30566e-26
1.13309e-26
-2.79436e-28
9.16811e-29
0
3.50366e-27
0
)
;
    }
    fixedWalls
    {
        type            calculated;
        value           nonuniform List<scalar> 
60
(
-5.94028e-14
-1.31931e-14
-1.11471e-13
-3.20521e-13
-3.74573e-13
-4.02797e-13
-3.66983e-13
-3.13698e-13
-2.32611e-13
-1.47835e-13
-5.33688e-14
0
3.18237e-14
1.18639e-13
1.94906e-13
2.72164e-13
3.19943e-13
3.69519e-13
3.771e-13
1.71962e-13
3.00351e-27
0
0
1.30293e-28
0
4.85505e-27
-2.40869e-27
2.02081e-28
6.22569e-28
5.30371e-28
3.42696e-28
0
2.47785e-27
3.32634e-28
-4.33437e-27
5.40854e-29
0
3.09557e-27
3.18816e-27
0
0
0
0
0
0
0
0
0
5.55051e-21
-1.93623e-23
1.87573e-22
-3.25203e-23
5.87862e-24
-5.92434e-25
3.34932e-25
1.47517e-25
1.12659e-25
7.11056e-26
2.15784e-26
5.71809e-27
)
;
    }
    frontAndBack
    {
        type            empty;
    }
}


// ************************************************************************* //
