/*--------------------------------*- C++ -*----------------------------------*\
| =========                 |                                                 |
| \\      /  F ield         | OpenFOAM: The Open Source CFD Toolbox           |
|  \\    /   O peration     | Version:  2506                                  |
|   \\  /    A nd           | Website:  www.openfoam.com                      |
|    \\/     M anipulation  |                                                 |
\*---------------------------------------------------------------------------*/
FoamFile
{
    version     2.0;
    format      ascii;
    arch        "LSB;label=32;scalar=64";
    class       volScalarField;
    location    "4.125";
    object      pzeroGrad;
}
// * * * * * * * * * * * * * * * * * * * * * * * * * * * * * * * * * * * * * //

dimensions      [0 2 -2 0 0 0 0];

internalField   nonuniform List<scalar> 
400
(
0
0
5.68334e-12
1.03994e-12
2.08403e-12
1.36785e-12
1.41523e-12
1.30388e-12
1.28412e-12
1.258e-12
1.24627e-12
1.23748e-12
1.23229e-12
1.22869e-12
1.22605e-12
1.22417e-12
1.22285e-12
1.2218e-12
1.22128e-12
1.22097e-12
4.76149e-12
8.37086e-13
2.26415e-12
1.22914e-12
1.5021e-12
1.33172e-12
1.32936e-12
1.28314e-12
1.26553e-12
1.24904e-12
1.23981e-12
1.23343e-12
1.22944e-12
1.22674e-12
1.22469e-12
1.22319e-12
1.22203e-12
1.22106e-12
1.22067e-12
1.22038e-12
0
0
0
8.31663e-13
1.14909e-12
1.22952e-12
1.24377e-12
1.24259e-12
1.23784e-12
1.23285e-12
1.22895e-12
1.22637e-12
1.22448e-12
1.22305e-12
1.22198e-12
1.22129e-12
1.22062e-12
1.2198e-12
1.21926e-12
1.21921e-12
9.17968e-12
0
2.15348e-12
7.38597e-13
1.1586e-12
1.10192e-12
1.18561e-12
1.1959e-12
1.21027e-12
1.21381e-12
1.21629e-12
1.2173e-12
1.21793e-12
1.21827e-12
1.21845e-12
1.21857e-12
1.2184e-12
1.21807e-12
1.21775e-12
1.21771e-12
0
8.34547e-12
0
1.34716e-12
8.20976e-13
1.12749e-12
1.12131e-12
1.17103e-12
1.18379e-12
1.1969e-12
1.20336e-12
1.20807e-12
1.21096e-12
1.21315e-12
1.21456e-12
1.21535e-12
1.21585e-12
1.21592e-12
1.21573e-12
1.21587e-12
1.55394e-11
0
2.54204e-12
0
1.28773e-12
1.00047e-12
1.13657e-12
1.13794e-12
1.16868e-12
1.18121e-12
1.19255e-12
1.19941e-12
1.20439e-12
1.20785e-12
1.21027e-12
1.21201e-12
1.21296e-12
1.21341e-12
1.21359e-12
1.21391e-12
0
2.67851e-11
0
2.34664e-12
6.13685e-13
1.13725e-12
1.06439e-12
1.13916e-12
1.15161e-12
1.17158e-12
1.18287e-12
1.192e-12
1.19851e-12
1.20306e-12
1.20629e-12
1.2087e-12
1.21011e-12
1.21094e-12
1.2115e-12
1.21196e-12
2.06884e-11
0
2.60113e-12
0
1.47817e-12
9.54449e-13
1.13657e-12
1.11298e-12
1.14891e-12
1.16209e-12
1.17643e-12
1.18597e-12
1.19336e-12
1.19861e-12
1.20265e-12
1.20569e-12
1.20763e-12
1.20883e-12
1.20941e-12
1.20993e-12
0
4.32317e-11
0
3.27195e-12
4.69631e-13
1.1754e-12
1.04124e-12
1.13176e-12
1.13774e-12
1.15929e-12
1.17123e-12
1.18186e-12
1.18957e-12
1.19531e-12
1.19971e-12
1.20319e-12
1.20538e-12
1.20664e-12
1.20723e-12
1.20786e-12
2.41405e-11
0
2.58579e-12
0
1.6316e-12
9.37937e-13
1.15317e-12
1.10754e-12
1.14398e-12
1.15449e-12
1.16913e-12
1.17895e-12
1.18717e-12
1.19293e-12
1.19744e-12
1.20102e-12
1.20342e-12
1.20475e-12
1.20545e-12
1.20615e-12
0
5.37826e-11
0
3.89489e-12
4.03768e-13
1.21535e-12
1.03987e-12
1.13745e-12
1.13712e-12
1.15712e-12
1.16758e-12
1.17797e-12
1.18564e-12
1.19168e-12
1.19588e-12
1.19904e-12
1.20151e-12
1.20307e-12
1.20414e-12
1.20459e-12
2.53103e-11
0
2.54096e-12
0
1.72467e-12
9.48674e-13
1.17459e-12
1.11549e-12
1.14954e-12
1.15693e-12
1.16936e-12
1.17778e-12
1.18555e-12
1.19109e-12
1.19493e-12
1.19804e-12
1.20034e-12
1.20175e-12
1.20272e-12
1.20321e-12
0
5.67535e-11
0
4.09306e-12
4.23767e-13
1.24747e-12
1.05812e-12
1.15208e-12
1.14691e-12
1.16383e-12
1.17136e-12
1.17977e-12
1.1862e-12
1.19104e-12
1.19464e-12
1.19764e-12
1.19982e-12
1.20087e-12
1.20164e-12
1.20207e-12
2.38189e-11
0
2.4501e-12
0
1.74842e-12
9.88178e-13
1.19861e-12
1.13574e-12
1.16387e-12
1.16729e-12
1.17655e-12
1.18246e-12
1.18775e-12
1.19173e-12
1.19502e-12
1.19767e-12
1.19931e-12
1.20033e-12
1.20095e-12
1.20137e-12
0
5.18297e-11
0
3.83529e-12
5.32181e-13
1.27214e-12
1.09686e-12
1.17571e-12
1.16602e-12
1.17777e-12
1.18152e-12
1.18651e-12
1.19013e-12
1.19332e-12
1.1959e-12
1.1979e-12
1.19934e-12
1.20004e-12
1.20045e-12
1.20084e-12
1.96254e-11
0
2.28897e-12
0
1.71164e-12
1.06042e-12
1.22832e-12
1.1688e-12
1.18639e-12
1.18457e-12
1.18845e-12
1.19054e-12
1.19318e-12
1.19545e-12
1.19706e-12
1.19822e-12
1.19943e-12
1.1999e-12
1.20024e-12
1.20072e-12
0
3.99374e-11
2.258e-13
3.19767e-12
7.42594e-13
1.30118e-12
1.16157e-12
1.20962e-12
1.19431e-12
1.19642e-12
1.1948e-12
1.19537e-12
1.19612e-12
1.19739e-12
1.19819e-12
1.199e-12
1.19954e-12
1.19989e-12
1.20028e-12
1.20054e-12
1.31198e-11
0
2.12494e-12
0
1.67948e-12
1.17799e-12
1.27587e-12
1.21409e-12
1.21473e-12
1.20457e-12
1.20188e-12
1.19939e-12
1.19884e-12
1.19907e-12
1.19951e-12
1.19978e-12
1.19977e-12
1.20001e-12
1.20037e-12
1.20036e-12
0
2.22717e-11
1.42134e-12
2.38023e-12
1.18425e-12
1.34466e-12
1.25715e-12
1.24642e-12
1.2244e-12
1.21387e-12
1.20687e-12
1.20299e-12
1.20109e-12
1.20036e-12
1.20017e-12
1.20022e-12
1.20013e-12
1.20007e-12
1.20025e-12
1.20046e-12
4.32492e-12
0
5.13932e-12
8.80485e-15
1.97245e-12
1.21559e-12
1.34775e-12
1.24355e-12
1.23795e-12
1.21727e-12
1.21038e-12
1.20485e-12
1.20228e-12
1.20091e-12
1.2004e-12
1.20012e-12
1.2003e-12
1.20012e-12
1.20029e-12
1.20051e-12
)
;

boundaryField
{
    movingWall
    {
        type            zeroGradient;
    }
    fixedWalls
    {
        type            zeroGradient;
    }
    frontAndBack
    {
        type            empty;
    }
}


// ************************************************************************* //
