/*--------------------------------*- C++ -*----------------------------------*\
| =========                 |                                                 |
| \\      /  F ield         | OpenFOAM: The Open Source CFD Toolbox           |
|  \\    /   O peration     | Version:  2506                                  |
|   \\  /    A nd           | Website:  www.openfoam.com                      |
|    \\/     M anipulation  |                                                 |
\*---------------------------------------------------------------------------*/
FoamFile
{
    version     2.0;
    format      ascii;
    arch        "LSB;label=32;scalar=64";
    class       volScalarField;
    location    "4.125";
    object      QField;
}
// * * * * * * * * * * * * * * * * * * * * * * * * * * * * * * * * * * * * * //

dimensions      [0 0 -2 0 0 0 0];

internalField   nonuniform List<scalar> 
400
(
1.14261e-14
1.49325e-14
1.41511e-15
1.87047e-16
7.80124e-18
1.79116e-18
-4.2293e-20
2.53949e-20
-2.81785e-21
5.61392e-22
-9.55514e-23
1.22182e-23
-4.50624e-24
-5.95301e-25
-6.25371e-25
-3.08041e-25
-1.80456e-25
-9.73578e-26
-2.9315e-26
-3.99217e-27
2.51378e-15
1.42854e-14
1.18567e-15
1.75997e-16
8.71552e-18
1.31189e-18
2.98205e-20
1.06702e-20
-3.88674e-22
1.06097e-22
-2.41726e-23
-3.53309e-24
-3.35711e-24
-1.59916e-24
-8.71873e-25
-4.62118e-25
-2.47259e-25
-9.11749e-26
-2.72296e-26
8.27428e-27
2.12766e-14
7.57615e-15
5.80365e-16
2.83148e-17
4.3568e-18
-1.39005e-19
5.51003e-20
-5.96814e-21
9.55072e-22
-1.6003e-22
1.21836e-23
-8.59068e-24
-2.12554e-24
-1.52536e-24
-7.57007e-25
-4.28427e-25
-1.84291e-25
-9.02897e-26
-2.79261e-26
-5.66533e-28
6.12217e-14
1.71675e-14
1.55805e-15
9.39544e-17
5.81e-18
6.50918e-19
-1.17097e-21
7.63425e-21
-7.61144e-22
1.39034e-22
-3.06292e-23
-3.34564e-25
-2.72079e-24
-1.05439e-24
-6.50014e-25
-3.57279e-25
-1.91933e-25
-9.74925e-26
-3.71343e-26
0
7.21392e-14
1.97259e-14
1.86715e-15
1.04724e-16
7.90449e-18
4.59731e-19
5.31457e-20
-1.35472e-21
8.40694e-22
-1.22972e-22
1.55246e-23
-6.78889e-24
-1.2296e-24
-1.15618e-24
-5.41509e-25
-2.81177e-25
-1.33319e-25
-6.72554e-26
-1.72916e-27
1.01679e-26
7.91797e-14
2.09808e-14
2.08841e-15
1.10825e-16
8.40512e-18
6.23985e-19
2.69259e-20
4.97926e-21
-3.10387e-22
9.58852e-23
-1.98224e-23
4.34895e-25
-1.90322e-24
-6.77114e-25
-4.54579e-25
-2.16935e-25
-1.03843e-25
-3.52948e-26
0
-1.04315e-26
7.47503e-14
1.95307e-14
1.95948e-15
1.04092e-16
7.82041e-18
5.4016e-19
3.89206e-20
1.12915e-21
4.66335e-22
-5.89447e-23
9.28072e-24
-3.90206e-24
-7.22838e-25
-6.08646e-25
-3.01867e-25
-1.62322e-25
-6.65254e-26
-3.30783e-26
-3.32246e-26
1.06732e-26
6.76868e-14
1.75007e-14
1.78611e-15
9.18154e-17
7.27365e-18
4.90013e-19
2.95813e-20
2.87054e-21
-3.62458e-23
4.38698e-23
-1.11049e-23
-1.7494e-25
-1.35682e-24
-5.11301e-25
-2.99718e-25
-1.77781e-25
-9.16519e-26
-1.6835e-26
-1.92653e-27
0
5.54423e-14
1.42058e-14
1.45299e-15
7.51865e-17
5.7304e-18
4.09932e-19
2.39647e-20
1.64945e-21
1.63434e-22
-9.20049e-24
1.42742e-24
-1.98686e-24
-7.23531e-25
-5.0933e-25
-2.43769e-25
-1.29208e-25
-6.89279e-26
-7.68144e-26
-6.20205e-27
0
4.21955e-14
1.06756e-14
1.10935e-15
5.53817e-17
4.50836e-18
2.86412e-19
2.0459e-20
1.15862e-21
9.82752e-23
5.18221e-24
-1.9934e-24
-9.77464e-25
-7.53558e-25
-4.4552e-25
-2.43084e-25
-9.47772e-26
-5.70619e-26
5.24624e-27
-2.54805e-26
0
2.65151e-14
6.51989e-15
6.8802e-16
3.38954e-17
2.60812e-18
1.91149e-19
8.91357e-21
1.16572e-21
-1.53565e-23
9.01086e-24
-3.05603e-24
-8.54252e-25
-7.17487e-25
-3.55718e-25
-2.66714e-25
-1.23818e-25
-6.39627e-26
-2.3377e-26
0
-7.28987e-27
1.03659e-14
2.2424e-15
2.60742e-16
1.07009e-17
9.39942e-19
4.48309e-20
5.68705e-21
-2.84042e-22
1.06869e-22
-2.06157e-23
1.68315e-24
-1.63836e-24
-4.91744e-25
-3.28657e-25
-1.91453e-25
-1.02274e-25
-6.69664e-26
-3.68714e-26
-6.46764e-27
-1.41027e-27
-6.11442e-15
-2.13807e-15
-1.78946e-16
-1.23756e-17
-9.95213e-19
-5.50382e-20
-8.6891e-21
3.95384e-22
-1.88897e-22
2.48413e-23
-7.6417e-24
2.13179e-25
-6.98126e-25
-2.713e-25
-1.96068e-25
-7.33151e-26
-3.53266e-26
-2.72746e-26
-4.20843e-27
3.27354e-27
-2.26847e-14
-6.54206e-15
-6.23316e-16
-3.5964e-17
-2.7749e-18
-2.13873e-19
-8.78539e-21
-1.99011e-21
1.39604e-22
-4.82499e-23
5.42357e-24
-2.05234e-24
-2.10444e-25
-2.82544e-25
-1.22766e-25
-6.82637e-26
-4.11316e-26
-2.05171e-26
5.76345e-27
0
-3.72243e-14
-1.04444e-14
-1.00777e-15
-5.67017e-17
-4.49322e-18
-2.82349e-19
-2.65181e-20
-1.50514e-22
-3.69308e-22
3.95433e-23
-9.68285e-24
7.7856e-25
-6.11104e-25
-1.72895e-25
-8.7773e-26
-4.8645e-26
-2.38235e-26
-7.74767e-27
-5.9434e-27
-4.0523e-28
-5.19466e-14
-1.4362e-14
-1.40493e-15
-7.83596e-17
-5.93836e-18
-4.68251e-19
-1.85004e-20
-3.83708e-21
1.81254e-22
-6.6476e-23
7.53708e-24
-2.38297e-24
-1.3421e-26
-1.65203e-25
-5.92197e-26
-4.45998e-26
-1.66184e-26
1.34742e-27
-2.9063e-28
-1.99338e-28
-6.10352e-14
-1.68804e-14
-1.6494e-15
-9.00775e-17
-7.38406e-18
-4.11421e-19
-4.44688e-20
-4.30452e-23
-5.13347e-22
4.67211e-23
-1.22219e-23
1.02317e-24
-4.12839e-25
-4.23643e-26
-4.48087e-26
-2.25794e-26
-3.86192e-27
-1.71949e-27
-5.27593e-28
-3.98977e-28
-7.04809e-14
-1.89807e-14
-1.89037e-15
-1.14264e-16
-7.70795e-18
-7.35462e-19
-2.55407e-20
-5.55278e-21
1.26459e-22
-7.5395e-23
6.68143e-24
-1.96192e-24
5.74076e-26
-1.01232e-25
-2.36612e-26
-9.17574e-27
4.70692e-28
-1.63065e-27
-1.75071e-27
-6.47059e-28
-7.19226e-14
-8.81563e-15
-7.6426e-16
2.31053e-17
1.30207e-18
3.39033e-19
1.00291e-20
3.70997e-21
-1.21161e-22
4.63256e-23
-5.47769e-24
4.93124e-25
-2.64894e-25
-4.24331e-26
-1.16596e-26
-4.73936e-27
-2.6613e-27
-1.87906e-27
1.93752e-27
-1.35219e-27
-3.27802e-14
1.26594e-15
2.95477e-16
8.67006e-17
5.55883e-18
8.23616e-19
1.62651e-20
8.88499e-21
-4.50894e-22
1.29766e-22
-1.42783e-23
2.0118e-24
-3.27344e-25
1.24808e-26
-8.54871e-27
-5.59718e-29
-3.29838e-28
-3.88455e-28
-3.17101e-28
-2.14298e-27
)
;

boundaryField
{
    movingWall
    {
        type            calculated;
        value           nonuniform List<scalar> 
20
(
3.69556e-14
4.2328e-14
5.64107e-15
2.83463e-16
1.70575e-17
2.19315e-18
-9.26794e-21
2.16322e-20
-1.64881e-21
3.29416e-22
-4.0729e-23
5.82672e-24
-7.36341e-25
8.68921e-26
-1.27413e-26
2.80344e-28
-1.72459e-28
-1.84846e-29
-2.03324e-27
-1.40008e-27
)
;
    }
    fixedWalls
    {
        type            calculated;
        value           nonuniform List<scalar> 
60
(
5.99055e-14
1.31977e-14
1.11617e-13
3.20997e-13
3.78177e-13
4.15041e-13
3.91815e-13
3.54794e-13
2.90626e-13
2.21202e-13
1.39013e-13
5.43536e-14
-3.20575e-14
-1.18956e-13
-1.95219e-13
-2.7245e-13
-3.20138e-13
-3.69696e-13
-3.77279e-13
-1.72022e-13
1.34103e-27
8.60613e-27
0
1.01382e-27
5.77989e-27
-4.85505e-27
4.71707e-27
6.31296e-28
1.10806e-27
2.04546e-27
-3.42696e-28
0
-2.47785e-27
8.09941e-28
4.45525e-27
-3.26595e-28
0
-3.09557e-27
-3.64926e-27
-2.57767e-27
4.50244e-14
4.76435e-14
2.99657e-15
3.72942e-16
-5.49213e-19
3.57759e-18
-2.65228e-19
5.80267e-20
-7.94863e-21
1.39414e-21
-2.25688e-22
3.76213e-23
-6.86385e-24
7.60886e-25
-3.57785e-25
-1.51863e-25
-1.23594e-25
-7.28984e-26
-2.19537e-26
-5.87025e-27
)
;
    }
    frontAndBack
    {
        type            empty;
    }
}


// ************************************************************************* //
