/*--------------------------------*- C++ -*----------------------------------*\
| =========                 |                                                 |
| \\      /  F ield         | OpenFOAM: The Open Source CFD Toolbox           |
|  \\    /   O peration     | Version:  2506                                  |
|   \\  /    A nd           | Website:  www.openfoam.com                      |
|    \\/     M anipulation  |                                                 |
\*---------------------------------------------------------------------------*/
FoamFile
{
    version     2.0;
    format      ascii;
    arch        "LSB;label=32;scalar=64";
    class       volScalarField;
    location    "4.125";
    object      staticCoeffP;
}
// * * * * * * * * * * * * * * * * * * * * * * * * * * * * * * * * * * * * * //

dimensions      [0 0 0 0 0 0 0];

internalField   nonuniform List<scalar> 
400
(
0
0
1.13669e-11
2.07967e-12
4.16822e-12
2.73559e-12
2.83062e-12
2.60769e-12
2.56817e-12
2.51621e-12
2.49267e-12
2.47491e-12
2.4647e-12
2.45759e-12
2.45226e-12
2.44826e-12
2.4456e-12
2.44382e-12
2.44249e-12
2.44205e-12
9.52305e-12
1.67422e-12
4.52838e-12
2.45848e-12
3.00426e-12
2.66365e-12
2.65876e-12
2.56639e-12
2.53086e-12
2.498e-12
2.47979e-12
2.46692e-12
2.45892e-12
2.45359e-12
2.44915e-12
2.44649e-12
2.44427e-12
2.44205e-12
2.44116e-12
2.44071e-12
0
0
0
1.66311e-12
2.29816e-12
2.45892e-12
2.48734e-12
2.48512e-12
2.4758e-12
2.46558e-12
2.45803e-12
2.4527e-12
2.44915e-12
2.44604e-12
2.44382e-12
2.44249e-12
2.44116e-12
2.43938e-12
2.43849e-12
2.43849e-12
1.83595e-11
0
4.30678e-12
1.47704e-12
2.31726e-12
2.20401e-12
2.37144e-12
2.39186e-12
2.42073e-12
2.42784e-12
2.43272e-12
2.4345e-12
2.43583e-12
2.43672e-12
2.43672e-12
2.43716e-12
2.43672e-12
2.43627e-12
2.43539e-12
2.43539e-12
0
1.66911e-11
0
2.69429e-12
1.6418e-12
2.25509e-12
2.24265e-12
2.34213e-12
2.36744e-12
2.39364e-12
2.40652e-12
2.41629e-12
2.42206e-12
2.4265e-12
2.42917e-12
2.4305e-12
2.43183e-12
2.43183e-12
2.43139e-12
2.43183e-12
3.10787e-11
0
5.08393e-12
0
2.57527e-12
2.00107e-12
2.27329e-12
2.27596e-12
2.33724e-12
2.36255e-12
2.3852e-12
2.39897e-12
2.40874e-12
2.41585e-12
2.42073e-12
2.42384e-12
2.42606e-12
2.42695e-12
2.42739e-12
2.42784e-12
0
5.35705e-11
0
4.69313e-12
1.22746e-12
2.27462e-12
2.12896e-12
2.27818e-12
2.30305e-12
2.34301e-12
2.36566e-12
2.38387e-12
2.39719e-12
2.40608e-12
2.41274e-12
2.41762e-12
2.42029e-12
2.42206e-12
2.42295e-12
2.42384e-12
4.13767e-11
0
5.20206e-12
0
2.9563e-12
1.9087e-12
2.27329e-12
2.22578e-12
2.29772e-12
2.32436e-12
2.35278e-12
2.37188e-12
2.38654e-12
2.39719e-12
2.40519e-12
2.4114e-12
2.4154e-12
2.41762e-12
2.41895e-12
2.41984e-12
0
8.64633e-11
0
6.5441e-12
9.39249e-13
2.35101e-12
2.08233e-12
2.26352e-12
2.27551e-12
2.31859e-12
2.34257e-12
2.36389e-12
2.37899e-12
2.39053e-12
2.39941e-12
2.40652e-12
2.41096e-12
2.41318e-12
2.41451e-12
2.41585e-12
4.82809e-11
0
5.17142e-12
0
3.26317e-12
1.87583e-12
2.30616e-12
2.21512e-12
2.28795e-12
2.30882e-12
2.33813e-12
2.35811e-12
2.37455e-12
2.38565e-12
2.39497e-12
2.40208e-12
2.40696e-12
2.40963e-12
2.41096e-12
2.41229e-12
0
1.07565e-10
0
7.78977e-12
8.07354e-13
2.4305e-12
2.07967e-12
2.27507e-12
2.27418e-12
2.31415e-12
2.33502e-12
2.35589e-12
2.37144e-12
2.38343e-12
2.39186e-12
2.39808e-12
2.40297e-12
2.40608e-12
2.4083e-12
2.40918e-12
5.06204e-11
0
5.08171e-12
0
3.44924e-12
1.89715e-12
2.34923e-12
2.2311e-12
2.29905e-12
2.3137e-12
2.33857e-12
2.35545e-12
2.37099e-12
2.38209e-12
2.38964e-12
2.39586e-12
2.40075e-12
2.40341e-12
2.40563e-12
2.40652e-12
0
1.13507e-10
0
8.1859e-12
8.47322e-13
2.49489e-12
2.11609e-12
2.30393e-12
2.29372e-12
2.32747e-12
2.34257e-12
2.35945e-12
2.37232e-12
2.38209e-12
2.3892e-12
2.39542e-12
2.39941e-12
2.40163e-12
2.40341e-12
2.4043e-12
4.76379e-11
0
4.90008e-12
0
3.49676e-12
1.9762e-12
2.39719e-12
2.27152e-12
2.32792e-12
2.33458e-12
2.35323e-12
2.36478e-12
2.37543e-12
2.38343e-12
2.39009e-12
2.39542e-12
2.39853e-12
2.40075e-12
2.40208e-12
2.40297e-12
0
1.03659e-10
0
7.67075e-12
1.06448e-12
2.54419e-12
2.1938e-12
2.35145e-12
2.33191e-12
2.35545e-12
2.363e-12
2.37321e-12
2.38032e-12
2.38654e-12
2.39186e-12
2.39586e-12
2.39853e-12
2.4003e-12
2.40075e-12
2.40163e-12
3.92508e-11
0
4.57812e-12
0
3.42348e-12
2.12097e-12
2.4567e-12
2.33769e-12
2.37277e-12
2.36922e-12
2.37677e-12
2.38121e-12
2.38654e-12
2.39098e-12
2.39408e-12
2.39631e-12
2.39897e-12
2.39986e-12
2.4003e-12
2.40163e-12
0
7.98748e-11
4.51639e-13
6.39533e-12
1.48503e-12
2.60236e-12
2.32303e-12
2.4194e-12
2.38876e-12
2.39275e-12
2.38964e-12
2.39053e-12
2.39231e-12
2.39497e-12
2.39631e-12
2.39808e-12
2.39897e-12
2.39986e-12
2.40075e-12
2.40119e-12
2.62395e-11
0
4.24993e-12
0
3.35909e-12
2.35589e-12
2.55174e-12
2.42828e-12
2.42961e-12
2.40918e-12
2.40385e-12
2.39897e-12
2.39764e-12
2.39808e-12
2.39897e-12
2.39941e-12
2.39941e-12
2.39986e-12
2.40075e-12
2.40075e-12
0
4.45435e-11
2.84262e-12
4.76064e-12
2.36833e-12
2.6894e-12
2.51443e-12
2.49267e-12
2.44871e-12
2.42784e-12
2.41362e-12
2.40608e-12
2.40208e-12
2.40075e-12
2.4003e-12
2.4003e-12
2.4003e-12
2.4003e-12
2.4003e-12
2.40075e-12
8.64997e-12
0
1.02784e-11
1.77636e-14
3.94484e-12
2.43139e-12
2.69562e-12
2.4869e-12
2.4758e-12
2.4345e-12
2.42073e-12
2.40963e-12
2.40474e-12
2.40163e-12
2.40075e-12
2.4003e-12
2.40075e-12
2.4003e-12
2.40075e-12
2.40119e-12
)
;

boundaryField
{
    movingWall
    {
        type            calculated;
        value           nonuniform List<scalar> 
20
(
8.64997e-12
0
1.02784e-11
1.77636e-14
3.94484e-12
2.43139e-12
2.69562e-12
2.4869e-12
2.4758e-12
2.4345e-12
2.42073e-12
2.40963e-12
2.40474e-12
2.40163e-12
2.40075e-12
2.4003e-12
2.40075e-12
2.4003e-12
2.40075e-12
2.40119e-12
)
;
    }
    fixedWalls
    {
        type            calculated;
        value           nonuniform List<scalar> 
60
(
0
9.52305e-12
0
1.83595e-11
0
3.10787e-11
0
4.13767e-11
0
4.82809e-11
0
5.06204e-11
0
4.76379e-11
0
3.92508e-11
0
2.62395e-11
0
8.64997e-12
2.44205e-12
2.44071e-12
2.43849e-12
2.43539e-12
2.43183e-12
2.42784e-12
2.42384e-12
2.41984e-12
2.41585e-12
2.41229e-12
2.40918e-12
2.40652e-12
2.4043e-12
2.40297e-12
2.40163e-12
2.40163e-12
2.40119e-12
2.40075e-12
2.40075e-12
2.40119e-12
0
0
1.13669e-11
2.07967e-12
4.16822e-12
2.73559e-12
2.83062e-12
2.60769e-12
2.56817e-12
2.51621e-12
2.49267e-12
2.47491e-12
2.4647e-12
2.45759e-12
2.45226e-12
2.44826e-12
2.4456e-12
2.44382e-12
2.44249e-12
2.44205e-12
)
;
    }
    frontAndBack
    {
        type            empty;
    }
}


// ************************************************************************* //
