/*--------------------------------*- C++ -*----------------------------------*\
| =========                 |                                                 |
| \\      /  F ield         | OpenFOAM: The Open Source CFD Toolbox           |
|  \\    /   O peration     | Version:  2506                                  |
|   \\  /    A nd           | Website:  www.openfoam.com                      |
|    \\/     M anipulation  |                                                 |
\*---------------------------------------------------------------------------*/
FoamFile
{
    version     2.0;
    format      ascii;
    arch        "LSB;label=32;scalar=64";
    class       volVectorField;
    location    "4.125";
    object      UNear;
}
// * * * * * * * * * * * * * * * * * * * * * * * * * * * * * * * * * * * * * //

dimensions      [0 1 -1 0 0 0 0];

internalField   nonuniform List<vector> 
400
(
(-1 4.21412e-08 0)
(-1 -1.00029e-08 0)
(-1 2.37634e-09 0)
(-1 -5.63674e-10 0)
(-1 1.34183e-10 0)
(-1 -3.17356e-11 0)
(-1 7.61596e-12 0)
(-1 -1.76727e-12 0)
(-1 4.46891e-13 0)
(-1 -8.8783e-14 0)
(-1 3.31837e-14 0)
(-1 6.16726e-16 0)
(-1 6.04155e-15 0)
(-1 3.00329e-15 0)
(-1 2.43192e-15 0)
(-1 1.67788e-15 0)
(-1 1.27576e-15 0)
(-1 8.93634e-16 0)
(-1 4.79284e-16 0)
(-1 8.17973e-17 0)
(-1 -4.21238e-08 0)
(-1 1.0001e-08 0)
(-1 -2.36936e-09 0)
(-1 5.63199e-10 0)
(-1 -1.32883e-10 0)
(-1 3.18204e-11 0)
(-1 -7.34756e-12 0)
(-1 1.85459e-12 0)
(-1 -3.64778e-13 0)
(-1 1.35635e-13 0)
(-1 2.18484e-15 0)
(-1 2.37253e-14 0)
(-1 1.19808e-14 0)
(-1 1.00242e-14 0)
(-1 7.00028e-15 0)
(-1 5.08783e-15 0)
(-1 3.5993e-15 0)
(-1 2.54328e-15 0)
(-1 1.41369e-15 0)
(-1 2.68889e-16 0)
(-1 4.20455e-08 0)
(-1 -9.97223e-09 0)
(-1 2.36638e-09 0)
(-1 -5.60462e-10 0)
(-1 1.33498e-10 0)
(-1 -3.1298e-11 0)
(-1 7.65858e-12 0)
(-1 -1.66245e-12 0)
(-1 4.97912e-13 0)
(-1 -4.6574e-14 0)
(-1 6.15971e-14 0)
(-1 2.19525e-14 0)
(-1 2.16929e-14 0)
(-1 1.48274e-14 0)
(-1 1.12498e-14 0)
(-1 8.07315e-15 0)
(-1 5.77823e-15 0)
(-1 3.9516e-15 0)
(-1 2.15361e-15 0)
(-1 3.94294e-16 0)
(-1 -4.19947e-08 0)
(-1 9.95424e-09 0)
(-1 -2.36001e-09 0)
(-1 5.59896e-10 0)
(-1 -1.3229e-10 0)
(-1 3.16609e-11 0)
(-1 -7.2796e-12 0)
(-1 1.88263e-12 0)
(-1 -3.32465e-13 0)
(-1 1.60577e-13 0)
(-1 2.18794e-14 0)
(-1 3.9154e-14 0)
(-1 2.38654e-14 0)
(-1 1.92044e-14 0)
(-1 1.40922e-14 0)
(-1 1.05287e-14 0)
(-1 7.57265e-15 0)
(-1 5.14946e-15 0)
(-1 2.76281e-15 0)
(-1 4.77903e-16 0)
(-1 4.19493e-08 0)
(-1 -9.93928e-09 0)
(-1 2.35702e-09 0)
(-1 -5.58263e-10 0)
(-1 1.32542e-10 0)
(-1 -3.11843e-11 0)
(-1 7.56969e-12 0)
(-1 -1.65064e-12 0)
(-1 4.99559e-13 0)
(-1 -3.58849e-14 0)
(-1 7.08996e-14 0)
(-1 3.05916e-14 0)
(-1 2.88414e-14 0)
(-1 2.07857e-14 0)
(-1 1.61704e-14 0)
(-1 1.20797e-14 0)
(-1 8.79244e-15 0)
(-1 6.04273e-15 0)
(-1 3.24287e-15 0)
(-1 5.0844e-16 0)
(-1 -4.19162e-08 0)
(-1 9.92927e-09 0)
(-1 -2.35425e-09 0)
(-1 5.5793e-10 0)
(-1 -1.31998e-10 0)
(-1 3.14485e-11 0)
(-1 -7.3015e-12 0)
(-1 1.849e-12 0)
(-1 -3.41525e-13 0)
(-1 1.57108e-13 0)
(-1 2.27629e-14 0)
(-1 4.14764e-14 0)
(-1 2.66381e-14 0)
(-1 2.20173e-14 0)
(-1 1.66584e-14 0)
(-1 1.27001e-14 0)
(-1 9.42472e-15 0)
(-1 6.51015e-15 0)
(-1 3.40076e-15 0)
(-1 4.47799e-16 0)
(-1 4.18867e-08 0)
(-1 -9.92221e-09 0)
(-1 2.35281e-09 0)
(-1 -5.57311e-10 0)
(-1 1.3216e-10 0)
(-1 -3.11991e-11 0)
(-1 7.49876e-12 0)
(-1 -1.68001e-12 0)
(-1 4.78737e-13 0)
(-1 -4.66338e-14 0)
(-1 6.52202e-14 0)
(-1 2.81124e-14 0)
(-1 2.80224e-14 0)
(-1 2.06799e-14 0)
(-1 1.64493e-14 0)
(-1 1.25441e-14 0)
(-1 9.37815e-15 0)
(-1 6.52951e-15 0)
(-1 3.45793e-15 0)
(-1 4.04061e-16 0)
(-1 -4.18662e-08 0)
(-1 9.91824e-09 0)
(-1 -2.35179e-09 0)
(-1 5.5727e-10 0)
(-1 -1.31963e-10 0)
(-1 3.13589e-11 0)
(-1 -7.34541e-12 0)
(-1 1.81419e-12 0)
(-1 -3.64697e-13 0)
(-1 1.41685e-13 0)
(-1 1.2725e-14 0)
(-1 3.51962e-14 0)
(-1 2.29713e-14 0)
(-1 1.96981e-14 0)
(-1 1.52575e-14 0)
(-1 1.18708e-14 0)
(-1 8.93958e-15 0)
(-1 6.3285e-15 0)
(-1 3.39393e-15 0)
(-1 3.72089e-16 0)
(-1 4.18507e-08 0)
(-1 -9.91641e-09 0)
(-1 2.35151e-09 0)
(-1 -5.57187e-10 0)
(-1 1.32096e-10 0)
(-1 -3.12538e-11 0)
(-1 7.46123e-12 0)
(-1 -1.7134e-12 0)
(-1 4.55364e-13 0)
(-1 -6.41895e-14 0)
(-1 5.26784e-14 0)
(-1 1.92246e-14 0)
(-1 2.18975e-14 0)
(-1 1.66039e-14 0)
(-1 1.37296e-14 0)
(-1 1.06634e-14 0)
(-1 8.15775e-15 0)
(-1 5.86412e-15 0)
(-1 3.10255e-15 0)
(-1 2.61906e-16 0)
(-1 -4.18422e-08 0)
(-1 9.91653e-09 0)
(-1 -2.35159e-09 0)
(-1 5.57361e-10 0)
(-1 -1.32083e-10 0)
(-1 3.13459e-11 0)
(-1 -7.39073e-12 0)
(-1 1.78847e-12 0)
(-1 -3.88887e-13 0)
(-1 1.24116e-13 0)
(-1 -8.42178e-16 0)
(-1 2.51265e-14 0)
(-1 1.54595e-14 0)
(-1 1.43865e-14 0)
(-1 1.15382e-14 0)
(-1 9.33265e-15 0)
(-1 7.10088e-15 0)
(-1 5.16868e-15 0)
(-1 2.63122e-15 0)
(-1 1.22575e-16 0)
(-1 4.18381e-08 0)
(-1 -9.91813e-09 0)
(-1 2.35206e-09 0)
(-1 -5.57582e-10 0)
(-1 1.32203e-10 0)
(-1 -3.13294e-11 0)
(-1 7.44597e-12 0)
(-1 -1.74381e-12 0)
(-1 4.35111e-13 0)
(-1 -8.20905e-14 0)
(-1 3.93182e-14 0)
(-1 8.87084e-15 0)
(-1 1.40961e-14 0)
(-1 1.06509e-14 0)
(-1 9.34606e-15 0)
(-1 7.61042e-15 0)
(-1 6.03705e-15 0)
(-1 4.46336e-15 0)
(-1 2.23164e-15 0)
(-1 3.16082e-17 0)
(-1 -4.18383e-08 0)
(-1 9.92082e-09 0)
(-1 -2.3528e-09 0)
(-1 5.57889e-10 0)
(-1 -1.32298e-10 0)
(-1 3.13736e-11 0)
(-1 -7.43575e-12 0)
(-1 1.77025e-12 0)
(-1 -4.10447e-13 0)
(-1 1.0802e-13 0)
(-1 -1.42645e-14 0)
(-1 1.47714e-14 0)
(-1 7.43807e-15 0)
(-1 8.36329e-15 0)
(-1 6.92226e-15 0)
(-1 5.78149e-15 0)
(-1 4.74107e-15 0)
(-1 3.73125e-15 0)
(-1 1.90409e-15 0)
(-1 -9.05419e-17 0)
(-1 4.18413e-08 0)
(-1 -9.92426e-09 0)
(-1 2.35368e-09 0)
(-1 -5.58266e-10 0)
(-1 1.32392e-10 0)
(-1 -3.14188e-11 0)
(-1 7.44088e-12 0)
(-1 -1.77182e-12 0)
(-1 4.18031e-13 0)
(-1 -9.80215e-14 0)
(-1 2.68165e-14 0)
(-1 -1.25031e-15 0)
(-1 6.379e-15 0)
(-1 4.87692e-15 0)
(-1 4.88741e-15 0)
(-1 4.18021e-15 0)
(-1 3.56643e-15 0)
(-1 2.87753e-15 0)
(-1 1.43627e-15 0)
(-1 -2.28542e-16 0)
(-1 -4.1846e-08 0)
(-1 9.92804e-09 0)
(-1 -2.35472e-09 0)
(-1 5.58591e-10 0)
(-1 -1.32558e-10 0)
(-1 3.1413e-11 0)
(-1 -7.48112e-12 0)
(-1 1.75569e-12 0)
(-1 -4.29506e-13 0)
(-1 9.44586e-14 0)
(-1 -2.57433e-14 0)
(-1 5.86484e-15 0)
(-1 4.58134e-16 0)
(-1 2.91121e-15 0)
(-1 2.78746e-15 0)
(-1 2.81244e-15 0)
(-1 2.50699e-15 0)
(-1 2.05416e-15 0)
(-1 9.72349e-16 0)
(-1 -3.22768e-16 0)
(-1 4.1852e-08 0)
(-1 -9.93185e-09 0)
(-1 2.35562e-09 0)
(-1 -5.59026e-10 0)
(-1 1.32583e-10 0)
(-1 -3.15137e-11 0)
(-1 7.4366e-12 0)
(-1 -1.79725e-12 0)
(-1 4.0417e-13 0)
(-1 -1.10703e-13 0)
(-1 1.76384e-14 0)
(-1 -8.45452e-15 0)
(-1 5.82678e-16 0)
(-1 1.15316e-16 0)
(-1 1.36537e-15 0)
(-1 1.63368e-15 0)
(-1 1.57478e-15 0)
(-1 1.36363e-15 0)
(-1 5.60428e-16 0)
(-1 -4.10924e-16 0)
(-1 -4.18573e-08 0)
(-1 9.93528e-09 0)
(-1 -2.35668e-09 0)
(-1 5.59219e-10 0)
(-1 -1.3282e-10 0)
(-1 3.144e-11 0)
(-1 -7.52595e-12 0)
(-1 1.74334e-12 0)
(-1 -4.44087e-13 0)
(-1 8.57081e-14 0)
(-1 -3.28073e-14 0)
(-1 4.7711e-16 0)
(-1 -3.95887e-15 0)
(-1 -7.15114e-16 0)
(-1 6.8216e-17 0)
(-1 7.52324e-16 0)
(-1 9.07076e-16 0)
(-1 8.32384e-16 0)
(-1 2.4144e-16 0)
(-1 -4.32712e-16 0)
(-1 4.18635e-08 0)
(-1 -9.93843e-09 0)
(-1 2.35717e-09 0)
(-1 -5.59685e-10 0)
(-1 1.32693e-10 0)
(-1 -3.16003e-11 0)
(-1 7.4282e-12 0)
(-1 -1.81469e-12 0)
(-1 3.97089e-13 0)
(-1 -1.1639e-13 0)
(-1 1.35385e-14 0)
(-1 -1.18548e-14 0)
(-1 -2.05847e-15 0)
(-1 -1.96608e-15 0)
(-1 -6.56367e-16 0)
(-1 -1.17762e-16 0)
(-1 4.12608e-16 0)
(-1 5.29468e-16 0)
(-1 1.02988e-16 0)
(-1 -3.37381e-16 0)
(-1 -4.18665e-08 0)
(-1 9.9403e-09 0)
(-1 -2.35855e-09 0)
(-1 5.59611e-10 0)
(-1 -1.33082e-10 0)
(-1 3.14692e-11 0)
(-1 -7.55729e-12 0)
(-1 1.7453e-12 0)
(-1 -4.47043e-13 0)
(-1 8.59887e-14 0)
(-1 -3.33483e-14 0)
(-1 2.6176e-17 0)
(-1 -4.75491e-15 0)
(-1 -1.51941e-15 0)
(-1 -1.0201e-15 0)
(-1 -2.72354e-16 0)
(-1 1.29508e-16 0)
(-1 3.60384e-16 0)
(-1 4.67928e-17 0)
(-1 -2.85516e-16 0)
(-1 4.18738e-08 0)
(-1 -9.94371e-09 0)
(-1 2.35722e-09 0)
(-1 -5.59659e-10 0)
(-1 1.32577e-10 0)
(-1 -3.15428e-11 0)
(-1 7.41806e-12 0)
(-1 -1.79663e-12 0)
(-1 4.02555e-13 0)
(-1 -1.0982e-13 0)
(-1 1.69889e-14 0)
(-1 -9.6079e-15 0)
(-1 -1.0394e-15 0)
(-1 -1.61562e-15 0)
(-1 -4.92864e-16 0)
(-1 -1.81331e-16 0)
(-1 -4.64755e-17 0)
(-1 1.45951e-16 0)
(-1 -6.45576e-17 0)
(-1 -2.68784e-16 0)
(-1 -4.18811e-08 0)
(-1 9.9564e-09 0)
(-1 -2.3639e-09 0)
(-1 5.61768e-10 0)
(-1 -1.33698e-10 0)
(-1 3.17445e-11 0)
(-1 -7.58481e-12 0)
(-1 1.79245e-12 0)
(-1 -4.35797e-13 0)
(-1 9.88695e-14 0)
(-1 -2.68545e-14 0)
(-1 4.45087e-15 0)
(-1 -2.1751e-15 0)
(-1 -8.35933e-17 0)
(-1 -3.03573e-16 0)
(-1 -6.76789e-17 0)
(-1 -7.52131e-17 0)
(-1 4.71678e-18 0)
(-1 -6.78599e-17 0)
(-1 -1.19987e-16 0)
)
;

boundaryField
{
    movingWall
    {
        type            fixedValue;
        value           uniform (-1 -0 -0);
    }
    fixedWalls
    {
        type            calculated;
        value           nonuniform List<vector> 
60
(
(-1 1.68565e-08 0)
(-1 -1.68495e-08 0)
(-1 1.68182e-08 0)
(-1 -1.67979e-08 0)
(-1 1.67797e-08 0)
(-1 -1.67665e-08 0)
(-1 1.67547e-08 0)
(-1 -1.67465e-08 0)
(-1 1.67403e-08 0)
(-1 -1.67369e-08 0)
(-1 1.67352e-08 0)
(-1 -1.67353e-08 0)
(-1 1.67365e-08 0)
(-1 -1.67384e-08 0)
(-1 1.67408e-08 0)
(-1 -1.67429e-08 0)
(-1 1.67454e-08 0)
(-1 -1.67466e-08 0)
(-1 1.67495e-08 0)
(-1 -1.67525e-08 0)
(-1 3.27189e-17 0)
(-1 1.07556e-16 0)
(-1 1.57717e-16 0)
(-1 1.91161e-16 0)
(-1 2.03376e-16 0)
(-1 1.7912e-16 0)
(-1 1.61625e-16 0)
(-1 1.48835e-16 0)
(-1 1.04762e-16 0)
(-1 4.90301e-17 0)
(-1 1.26433e-17 0)
(-1 -3.62168e-17 0)
(-1 -9.14166e-17 0)
(-1 -1.29107e-16 0)
(-1 -1.6437e-16 0)
(-1 -1.73085e-16 0)
(-1 -1.34953e-16 0)
(-1 -1.14206e-16 0)
(-1 -1.07514e-16 0)
(-1 -4.79947e-17 0)
(-1 1.68565e-08 0)
(-1 -4.00118e-09 0)
(-1 9.50536e-10 0)
(-1 -2.2547e-10 0)
(-1 5.36734e-11 0)
(-1 -1.26942e-11 0)
(-1 3.04638e-12 0)
(-1 -7.0691e-13 0)
(-1 1.78757e-13 0)
(-1 -3.55132e-14 0)
(-1 1.32735e-14 0)
(-1 2.4669e-16 0)
(-1 2.41662e-15 0)
(-1 1.20132e-15 0)
(-1 9.72766e-16 0)
(-1 6.71152e-16 0)
(-1 5.10304e-16 0)
(-1 3.57454e-16 0)
(-1 1.91714e-16 0)
(-1 3.27189e-17 0)
)
;
    }
    frontAndBack
    {
        type            empty;
    }
}


// ************************************************************************* //
