/*--------------------------------*- C++ -*----------------------------------*\
| =========                 |                                                 |
| \\      /  F ield         | OpenFOAM: The Open Source CFD Toolbox           |
|  \\    /   O peration     | Version:  2506                                  |
|   \\  /    A nd           | Website:  www.openfoam.com                      |
|    \\/     M anipulation  |                                                 |
\*---------------------------------------------------------------------------*/
FoamFile
{
    version     2.0;
    format      ascii;
    arch        "LSB;label=32;scalar=64";
    class       volScalarField;
    location    "4.125";
    object      Uy;
}
// * * * * * * * * * * * * * * * * * * * * * * * * * * * * * * * * * * * * * //

dimensions      [0 1 -1 0 0 0 0];

internalField   nonuniform List<scalar> 
400
(
4.21412e-08
-1.00029e-08
2.37634e-09
-5.63674e-10
1.34183e-10
-3.17356e-11
7.61596e-12
-1.76727e-12
4.46891e-13
-8.8783e-14
3.31837e-14
6.16726e-16
6.04155e-15
3.00329e-15
2.43192e-15
1.67788e-15
1.27576e-15
8.93634e-16
4.79284e-16
8.17973e-17
-4.21238e-08
1.0001e-08
-2.36936e-09
5.63199e-10
-1.32883e-10
3.18204e-11
-7.34756e-12
1.85459e-12
-3.64778e-13
1.35635e-13
2.18484e-15
2.37253e-14
1.19808e-14
1.00242e-14
7.00028e-15
5.08783e-15
3.5993e-15
2.54328e-15
1.41369e-15
2.68889e-16
4.20455e-08
-9.97223e-09
2.36638e-09
-5.60462e-10
1.33498e-10
-3.1298e-11
7.65858e-12
-1.66245e-12
4.97912e-13
-4.6574e-14
6.15971e-14
2.19525e-14
2.16929e-14
1.48274e-14
1.12498e-14
8.07315e-15
5.77823e-15
3.9516e-15
2.15361e-15
3.94294e-16
-4.19947e-08
9.95424e-09
-2.36001e-09
5.59896e-10
-1.3229e-10
3.16609e-11
-7.2796e-12
1.88263e-12
-3.32465e-13
1.60577e-13
2.18794e-14
3.9154e-14
2.38654e-14
1.92044e-14
1.40922e-14
1.05287e-14
7.57265e-15
5.14946e-15
2.76281e-15
4.77903e-16
4.19493e-08
-9.93928e-09
2.35702e-09
-5.58263e-10
1.32542e-10
-3.11843e-11
7.56969e-12
-1.65064e-12
4.99559e-13
-3.58849e-14
7.08996e-14
3.05916e-14
2.88414e-14
2.07857e-14
1.61704e-14
1.20797e-14
8.79244e-15
6.04273e-15
3.24287e-15
5.0844e-16
-4.19162e-08
9.92927e-09
-2.35425e-09
5.5793e-10
-1.31998e-10
3.14485e-11
-7.3015e-12
1.849e-12
-3.41525e-13
1.57108e-13
2.27629e-14
4.14764e-14
2.66381e-14
2.20173e-14
1.66584e-14
1.27001e-14
9.42472e-15
6.51015e-15
3.40076e-15
4.47799e-16
4.18867e-08
-9.92221e-09
2.35281e-09
-5.57311e-10
1.3216e-10
-3.11991e-11
7.49876e-12
-1.68001e-12
4.78737e-13
-4.66338e-14
6.52202e-14
2.81124e-14
2.80224e-14
2.06799e-14
1.64493e-14
1.25441e-14
9.37815e-15
6.52951e-15
3.45793e-15
4.04061e-16
-4.18662e-08
9.91824e-09
-2.35179e-09
5.5727e-10
-1.31963e-10
3.13589e-11
-7.34541e-12
1.81419e-12
-3.64697e-13
1.41685e-13
1.2725e-14
3.51962e-14
2.29713e-14
1.96981e-14
1.52575e-14
1.18708e-14
8.93958e-15
6.3285e-15
3.39393e-15
3.72089e-16
4.18507e-08
-9.91641e-09
2.35151e-09
-5.57187e-10
1.32096e-10
-3.12538e-11
7.46123e-12
-1.7134e-12
4.55364e-13
-6.41895e-14
5.26784e-14
1.92246e-14
2.18975e-14
1.66039e-14
1.37296e-14
1.06634e-14
8.15775e-15
5.86412e-15
3.10255e-15
2.61906e-16
-4.18422e-08
9.91653e-09
-2.35159e-09
5.57361e-10
-1.32083e-10
3.13459e-11
-7.39073e-12
1.78847e-12
-3.88887e-13
1.24116e-13
-8.42178e-16
2.51265e-14
1.54595e-14
1.43865e-14
1.15382e-14
9.33265e-15
7.10088e-15
5.16868e-15
2.63122e-15
1.22575e-16
4.18381e-08
-9.91813e-09
2.35206e-09
-5.57582e-10
1.32203e-10
-3.13294e-11
7.44597e-12
-1.74381e-12
4.35111e-13
-8.20905e-14
3.93182e-14
8.87084e-15
1.40961e-14
1.06509e-14
9.34606e-15
7.61042e-15
6.03705e-15
4.46336e-15
2.23164e-15
3.16082e-17
-4.18383e-08
9.92082e-09
-2.3528e-09
5.57889e-10
-1.32298e-10
3.13736e-11
-7.43575e-12
1.77025e-12
-4.10447e-13
1.0802e-13
-1.42645e-14
1.47714e-14
7.43807e-15
8.36329e-15
6.92226e-15
5.78149e-15
4.74107e-15
3.73125e-15
1.90409e-15
-9.05419e-17
4.18413e-08
-9.92426e-09
2.35368e-09
-5.58266e-10
1.32392e-10
-3.14188e-11
7.44088e-12
-1.77182e-12
4.18031e-13
-9.80215e-14
2.68165e-14
-1.25031e-15
6.379e-15
4.87692e-15
4.88741e-15
4.18021e-15
3.56643e-15
2.87753e-15
1.43627e-15
-2.28542e-16
-4.1846e-08
9.92804e-09
-2.35472e-09
5.58591e-10
-1.32558e-10
3.1413e-11
-7.48112e-12
1.75569e-12
-4.29506e-13
9.44586e-14
-2.57433e-14
5.86484e-15
4.58134e-16
2.91121e-15
2.78746e-15
2.81244e-15
2.50699e-15
2.05416e-15
9.72349e-16
-3.22768e-16
4.1852e-08
-9.93185e-09
2.35562e-09
-5.59026e-10
1.32583e-10
-3.15137e-11
7.4366e-12
-1.79725e-12
4.0417e-13
-1.10703e-13
1.76384e-14
-8.45452e-15
5.82678e-16
1.15316e-16
1.36537e-15
1.63368e-15
1.57478e-15
1.36363e-15
5.60428e-16
-4.10924e-16
-4.18573e-08
9.93528e-09
-2.35668e-09
5.59219e-10
-1.3282e-10
3.144e-11
-7.52595e-12
1.74334e-12
-4.44087e-13
8.57081e-14
-3.28073e-14
4.7711e-16
-3.95887e-15
-7.15114e-16
6.8216e-17
7.52324e-16
9.07076e-16
8.32384e-16
2.4144e-16
-4.32712e-16
4.18635e-08
-9.93843e-09
2.35717e-09
-5.59685e-10
1.32693e-10
-3.16003e-11
7.4282e-12
-1.81469e-12
3.97089e-13
-1.1639e-13
1.35385e-14
-1.18548e-14
-2.05847e-15
-1.96608e-15
-6.56367e-16
-1.17762e-16
4.12608e-16
5.29468e-16
1.02988e-16
-3.37381e-16
-4.18665e-08
9.9403e-09
-2.35855e-09
5.59611e-10
-1.33082e-10
3.14692e-11
-7.55729e-12
1.7453e-12
-4.47043e-13
8.59887e-14
-3.33483e-14
2.6176e-17
-4.75491e-15
-1.51941e-15
-1.0201e-15
-2.72354e-16
1.29508e-16
3.60384e-16
4.67928e-17
-2.85516e-16
4.18738e-08
-9.94371e-09
2.35722e-09
-5.59659e-10
1.32577e-10
-3.15428e-11
7.41806e-12
-1.79663e-12
4.02555e-13
-1.0982e-13
1.69889e-14
-9.6079e-15
-1.0394e-15
-1.61562e-15
-4.92864e-16
-1.81331e-16
-4.64755e-17
1.45951e-16
-6.45576e-17
-2.68784e-16
-4.18811e-08
9.9564e-09
-2.3639e-09
5.61768e-10
-1.33698e-10
3.17445e-11
-7.58481e-12
1.79245e-12
-4.35797e-13
9.88695e-14
-2.68545e-14
4.45087e-15
-2.1751e-15
-8.35933e-17
-3.03573e-16
-6.76789e-17
-7.52131e-17
4.71678e-18
-6.78599e-17
-1.19987e-16
)
;

boundaryField
{
    movingWall
    {
        type            calculated;
        value           uniform -0;
    }
    fixedWalls
    {
        type            calculated;
        value           uniform -0;
    }
    frontAndBack
    {
        type            empty;
    }
}


// ************************************************************************* //
