/*--------------------------------*- C++ -*----------------------------------*\
| =========                 |                                                 |
| \\      /  F ield         | OpenFOAM: The Open Source CFD Toolbox           |
|  \\    /   O peration     | Version:  2506                                  |
|   \\  /    A nd           | Website:  www.openfoam.com                      |
|    \\/     M anipulation  |                                                 |
\*---------------------------------------------------------------------------*/
FoamFile
{
    version     2.0;
    format      ascii;
    arch        "LSB;label=32;scalar=64";
    class       volVectorField;
    location    "4.125";
    object      vorticityField;
}
// * * * * * * * * * * * * * * * * * * * * * * * * * * * * * * * * * * * * * //

dimensions      [0 0 -1 0 0 0 0];

internalField   nonuniform List<vector> 
400
(
(0 -0 3.21738e-06)
(0 -0 -3.98024e-06)
(0 -0 9.45429e-07)
(0 -0 -2.2505e-07)
(0 -0 5.33422e-08)
(0 -0 -1.27982e-08)
(0 -0 2.98352e-09)
(0 -0 -7.52225e-10)
(0 -0 1.51776e-10)
(0 -0 -5.53028e-11)
(0 -0 -8.60095e-14)
(0 -0 -9.35495e-12)
(0 -0 -4.31499e-12)
(0 -0 -3.50515e-12)
(0 -0 -2.16542e-12)
(0 -0 -1.41666e-12)
(0 -0 -8.10261e-13)
(0 -0 -3.77803e-13)
(0 -0 -1.62499e-13)
(0 -0 -1.89802e-15)
(0 -0 -3.21307e-06)
(0 -0 3.97904e-06)
(0 -0 -9.45035e-07)
(0 -0 2.24435e-07)
(0 -0 -5.33018e-08)
(0 -0 1.2658e-08)
(0 -0 -3.00656e-09)
(0 -0 7.13647e-10)
(0 -0 -1.69835e-10)
(0 -0 4.00302e-11)
(0 -0 -9.80861e-12)
(0 -0 2.0367e-12)
(0 -0 -7.46702e-13)
(0 -0 -1.18586e-13)
(0 -0 -2.76793e-13)
(0 -0 -2.04572e-13)
(0 -0 -1.46034e-13)
(0 -0 -2.18561e-13)
(0 -0 -2.27439e-13)
(0 -0 -2.22468e-13)
(0 -0 3.21398e-06)
(0 -0 -3.96983e-06)
(0 -0 9.41794e-07)
(0 -0 -2.23415e-07)
(0 -0 5.29987e-08)
(0 -0 -1.25729e-08)
(0 -0 2.98215e-09)
(0 -0 -7.07745e-10)
(0 -0 1.67551e-10)
(0 -0 -4.01078e-11)
(0 -0 9.18368e-12)
(0 -0 -2.44543e-12)
(0 -0 2.36168e-13)
(0 -0 -3.93781e-13)
(0 -0 -3.23056e-13)
(0 -0 -3.03216e-13)
(0 -0 -3.3084e-13)
(0 -0 -3.08252e-13)
(0 -0 -3.28625e-13)
(0 -0 -2.5479e-13)
(0 -0 -3.22315e-06)
(0 -0 3.9678e-06)
(0 -0 -9.41092e-07)
(0 -0 2.23193e-07)
(0 -0 -5.29332e-08)
(0 -0 1.25531e-08)
(0 -0 -2.97739e-09)
(0 -0 7.05691e-10)
(0 -0 -1.67787e-10)
(0 -0 3.93647e-11)
(0 -0 -9.70287e-12)
(0 -0 1.93332e-12)
(0 -0 -8.83652e-13)
(0 -0 -2.45487e-13)
(0 -0 -3.7968e-13)
(0 -0 -3.53798e-13)
(0 -0 -3.48187e-13)
(0 -0 -3.72564e-13)
(0 -0 -4.12946e-13)
(0 -0 -3.24072e-13)
(0 -0 3.22351e-06)
(0 -0 -3.9642e-06)
(0 -0 9.4009e-07)
(0 -0 -2.22918e-07)
(0 -0 5.28576e-08)
(0 -0 -1.25338e-08)
(0 -0 2.9714e-09)
(0 -0 -7.05062e-10)
(0 -0 1.66706e-10)
(0 -0 -3.99928e-11)
(0 -0 8.97869e-12)
(0 -0 -2.60662e-12)
(0 -0 2.1203e-13)
(0 -0 -4.26837e-13)
(0 -0 -3.28498e-13)
(0 -0 -4.12539e-13)
(0 -0 -4.41064e-13)
(0 -0 -4.73642e-13)
(0 -0 -5.53429e-13)
(0 -0 -4.02236e-13)
(0 -0 -3.22341e-06)
(0 -0 3.96149e-06)
(0 -0 -9.3936e-07)
(0 -0 2.22723e-07)
(0 -0 -5.28074e-08)
(0 -0 1.25197e-08)
(0 -0 -2.96892e-09)
(0 -0 7.03235e-10)
(0 -0 -1.67319e-10)
(0 -0 3.91393e-11)
(0 -0 -9.8555e-12)
(0 -0 1.76988e-12)
(0 -0 -9.70126e-13)
(0 -0 -3.20348e-13)
(0 -0 -4.43832e-13)
(0 -0 -4.25211e-13)
(0 -0 -4.56367e-13)
(0 -0 -5.48185e-13)
(0 -0 -6.06235e-13)
(0 -0 -3.57751e-13)
(0 -0 3.21979e-06)
(0 -0 -3.95832e-06)
(0 -0 9.3858e-07)
(0 -0 -2.22533e-07)
(0 -0 5.27597e-08)
(0 -0 -1.25093e-08)
(0 -0 2.96522e-09)
(0 -0 -7.0352e-10)
(0 -0 1.66319e-10)
(0 -0 -3.99151e-11)
(0 -0 8.93829e-12)
(0 -0 -2.744e-12)
(0 -0 -1.1411e-14)
(0 -0 -6.69419e-13)
(0 -0 -4.61218e-13)
(0 -0 -4.90274e-13)
(0 -0 -4.93039e-13)
(0 -0 -5.37812e-13)
(0 -0 -5.58334e-13)
(0 -0 -4.13304e-13)
(0 -0 -3.21594e-06)
(0 -0 3.95586e-06)
(0 -0 -9.38003e-07)
(0 -0 2.22396e-07)
(0 -0 -5.27293e-08)
(0 -0 1.25012e-08)
(0 -0 -2.96437e-09)
(0 -0 7.02326e-10)
(0 -0 -1.66952e-10)
(0 -0 3.90975e-11)
(0 -0 -9.67312e-12)
(0 -0 1.86488e-12)
(0 -0 -8.99289e-13)
(0 -0 -3.37693e-13)
(0 -0 -4.84568e-13)
(0 -0 -4.14955e-13)
(0 -0 -4.18706e-13)
(0 -0 -5.2746e-13)
(0 -0 -5.95641e-13)
(0 -0 -3.76602e-13)
(0 -0 3.21075e-06)
(0 -0 -3.95351e-06)
(0 -0 9.37475e-07)
(0 -0 -2.2228e-07)
(0 -0 5.27025e-08)
(0 -0 -1.24964e-08)
(0 -0 2.96233e-09)
(0 -0 -7.02836e-10)
(0 -0 1.66086e-10)
(0 -0 -3.99975e-11)
(0 -0 8.85641e-12)
(0 -0 -2.69862e-12)
(0 -0 9.0292e-14)
(0 -0 -5.45731e-13)
(0 -0 -4.04317e-13)
(0 -0 -4.48769e-13)
(0 -0 -3.98608e-13)
(0 -0 -3.97099e-13)
(0 -0 -5.60222e-13)
(0 -0 -3.36446e-13)
(0 -0 -3.20577e-06)
(0 -0 3.95177e-06)
(0 -0 -9.37103e-07)
(0 -0 2.22201e-07)
(0 -0 -5.26875e-08)
(0 -0 1.24925e-08)
(0 -0 -2.9626e-09)
(0 -0 7.02e-10)
(0 -0 -1.66923e-10)
(0 -0 3.91568e-11)
(0 -0 -9.76346e-12)
(0 -0 1.87411e-12)
(0 -0 -8.84264e-13)
(0 -0 -2.02389e-13)
(0 -0 -4.24068e-13)
(0 -0 -4.16629e-13)
(0 -0 -3.62186e-13)
(0 -0 -5.01176e-13)
(0 -0 -4.77506e-13)
(0 -0 -2.75379e-13)
(0 -0 3.20029e-06)
(0 -0 -3.95026e-06)
(0 -0 9.36792e-07)
(0 -0 -2.2214e-07)
(0 -0 5.26754e-08)
(0 -0 -1.24911e-08)
(0 -0 2.96179e-09)
(0 -0 -7.02658e-10)
(0 -0 1.66253e-10)
(0 -0 -3.97419e-11)
(0 -0 9.09614e-12)
(0 -0 -2.4951e-12)
(0 -0 1.78003e-13)
(0 -0 -4.47903e-13)
(0 -0 -2.49834e-13)
(0 -0 -2.76691e-13)
(0 -0 -3.14706e-13)
(0 -0 -3.80541e-13)
(0 -0 -4.43175e-13)
(0 -0 -1.9922e-13)
(0 -0 -3.195e-06)
(0 -0 3.94913e-06)
(0 -0 -9.36575e-07)
(0 -0 2.22101e-07)
(0 -0 -5.26699e-08)
(0 -0 1.24901e-08)
(0 -0 -2.96223e-09)
(0 -0 7.02286e-10)
(0 -0 -1.66766e-10)
(0 -0 3.9293e-11)
(0 -0 -9.54173e-12)
(0 -0 2.03473e-12)
(0 -0 -7.22128e-13)
(0 -0 -5.15812e-14)
(0 -0 -3.1239e-13)
(0 -0 -2.18119e-13)
(0 -0 -2.05024e-13)
(0 -0 -2.29488e-13)
(0 -0 -3.82179e-13)
(0 -0 -1.81355e-13)
(0 -0 3.1898e-06)
(0 -0 -3.94823e-06)
(0 -0 9.36412e-07)
(0 -0 -2.22075e-07)
(0 -0 5.26665e-08)
(0 -0 -1.24908e-08)
(0 -0 2.96199e-09)
(0 -0 -7.02773e-10)
(0 -0 1.66404e-10)
(0 -0 -3.96907e-11)
(0 -0 9.13502e-12)
(0 -0 -2.39611e-12)
(0 -0 3.68777e-13)
(0 -0 -3.1179e-13)
(0 -0 -1.50985e-13)
(0 -0 -1.86308e-13)
(0 -0 -1.84479e-13)
(0 -0 -2.13016e-13)
(0 -0 -3.37712e-13)
(0 -0 -1.47877e-13)
(0 -0 -3.1847e-06)
(0 -0 3.94748e-06)
(0 -0 -9.36282e-07)
(0 -0 2.22056e-07)
(0 -0 -5.26656e-08)
(0 -0 1.24909e-08)
(0 -0 -2.96275e-09)
(0 -0 7.02478e-10)
(0 -0 -1.66882e-10)
(0 -0 3.93192e-11)
(0 -0 -9.48279e-12)
(0 -0 2.10514e-12)
(0 -0 -5.93519e-13)
(0 -0 -3.81178e-14)
(0 -0 -1.45402e-13)
(0 -0 -5.51524e-14)
(0 -0 -1.02934e-13)
(0 -0 -1.53464e-13)
(0 -0 -2.91903e-13)
(0 -0 -6.49582e-14)
(0 -0 3.18037e-06)
(0 -0 -3.94701e-06)
(0 -0 9.36211e-07)
(0 -0 -2.2205e-07)
(0 -0 5.26667e-08)
(0 -0 -1.24922e-08)
(0 -0 2.96291e-09)
(0 -0 -7.02972e-10)
(0 -0 1.66567e-10)
(0 -0 -3.96289e-11)
(0 -0 9.38456e-12)
(0 -0 -2.24768e-12)
(0 -0 4.23303e-13)
(0 -0 -2.46991e-13)
(0 -0 -3.78988e-14)
(0 -0 -1.68794e-13)
(0 -0 -1.0832e-13)
(0 -0 -1.55646e-13)
(0 -0 -1.77455e-13)
(0 -0 1.21547e-14)
(0 -0 -3.17594e-06)
(0 -0 3.94643e-06)
(0 -0 -9.3611e-07)
(0 -0 2.22035e-07)
(0 -0 -5.26656e-08)
(0 -0 1.24923e-08)
(0 -0 -2.96341e-09)
(0 -0 7.02846e-10)
(0 -0 -1.6682e-10)
(0 -0 3.95559e-11)
(0 -0 -9.39046e-12)
(0 -0 2.1259e-12)
(0 -0 -6.07113e-13)
(0 -0 1.04553e-13)
(0 -0 -7.00967e-14)
(0 -0 -5.16393e-14)
(0 -0 -1.00414e-13)
(0 -0 -1.20774e-13)
(0 -0 -1.53615e-13)
(0 -0 1.91272e-14)
(0 -0 3.1734e-06)
(0 -0 -3.94637e-06)
(0 -0 9.36118e-07)
(0 -0 -2.22043e-07)
(0 -0 5.26691e-08)
(0 -0 -1.24937e-08)
(0 -0 2.96374e-09)
(0 -0 -7.03057e-10)
(0 -0 1.66821e-10)
(0 -0 -3.95748e-11)
(0 -0 9.28799e-12)
(0 -0 -2.21021e-12)
(0 -0 5.82294e-13)
(0 -0 -1.3084e-13)
(0 -0 2.22017e-14)
(0 -0 2.55823e-14)
(0 -0 3.7618e-14)
(0 -0 -5.8067e-14)
(0 -0 -8.6685e-14)
(0 -0 2.34394e-14)
(0 -0 -3.17056e-06)
(0 -0 3.946e-06)
(0 -0 -9.36054e-07)
(0 -0 2.22033e-07)
(0 -0 -5.26681e-08)
(0 -0 1.24938e-08)
(0 -0 -2.96377e-09)
(0 -0 7.03165e-10)
(0 -0 -1.66717e-10)
(0 -0 3.95263e-11)
(0 -0 -9.4094e-12)
(0 -0 2.18171e-12)
(0 -0 -6.15345e-13)
(0 -0 1.02431e-13)
(0 -0 -6.50293e-14)
(0 -0 3.36455e-14)
(0 -0 9.03788e-14)
(0 -0 -6.24816e-14)
(0 -0 -3.74849e-14)
(0 -0 -3.23278e-15)
(0 -0 3.1705e-06)
(0 -0 -3.94944e-06)
(0 -0 9.37594e-07)
(0 -0 -2.22571e-07)
(0 -0 5.2837e-08)
(0 -0 -1.25434e-08)
(0 -0 2.97803e-09)
(0 -0 -7.06945e-10)
(0 -0 1.67949e-10)
(0 -0 -3.98305e-11)
(0 -0 9.50618e-12)
(0 -0 -2.20941e-12)
(0 -0 5.55282e-13)
(0 -0 -8.08721e-14)
(0 -0 8.92188e-14)
(0 -0 -3.66764e-14)
(0 -0 -4.8587e-14)
(0 -0 -2.89133e-14)
(0 -0 -9.56836e-14)
(0 -0 6.22909e-15)
(0 -0 -3.18221e-06)
(0 -0 3.95205e-06)
(0 -0 -9.39782e-07)
(0 -0 2.23411e-07)
(0 -0 -5.31091e-08)
(0 -0 1.26771e-08)
(0 -0 -3.0012e-09)
(0 -0 7.27316e-10)
(0 -0 -1.66919e-10)
(0 -0 4.40384e-11)
(0 -0 -8.11371e-12)
(0 -0 3.36241e-12)
(0 -0 -1.9765e-14)
(0 -0 3.76888e-13)
(0 -0 5.58015e-14)
(0 -0 4.9941e-14)
(0 -0 7.23957e-15)
(0 -0 2.78404e-14)
(0 -0 4.17397e-14)
(0 -0 7.29948e-14)
)
;

boundaryField
{
    movingWall
    {
        type            calculated;
        value           nonuniform List<vector> 
20
(
(0 -0 -3.27525e-06)
(0 -0 3.98023e-06)
(0 -0 -9.51626e-07)
(0 -0 2.27047e-07)
(0 -0 -5.42247e-08)
(0 -0 1.30681e-08)
(0 -0 -3.09397e-09)
(0 -0 7.69436e-10)
(0 -0 -1.71312e-10)
(0 -0 4.9998e-11)
(0 -0 -7.1326e-12)
(0 -0 4.55516e-12)
(0 -0 3.90324e-13)
(0 -0 6.75651e-13)
(0 -0 2.68045e-13)
(0 -0 6.72449e-14)
(0 -0 9.60574e-14)
(0 -0 4.51442e-14)
(0 -0 2.09574e-13)
(0 -0 1.52011e-13)
)
;
    }
    fixedWalls
    {
        type            calculated;
        value           nonuniform List<vector> 
60
(
(0 -0 1.686e-05)
(0 -0 -1.68503e-05)
(0 -0 1.68249e-05)
(0 -0 -1.6817e-05)
(0 -0 1.68022e-05)
(0 -0 -1.67912e-05)
(0 -0 1.6778e-05)
(0 -0 -1.67676e-05)
(0 -0 1.67576e-05)
(0 -0 -1.67501e-05)
(0 -0 1.67435e-05)
(0 -0 -1.67386e-05)
(0 -0 1.67346e-05)
(0 -0 -1.67313e-05)
(0 -0 1.67292e-05)
(0 -0 -1.67267e-05)
(0 -0 1.67263e-05)
(0 -0 -1.67245e-05)
(0 -0 1.6727e-05)
(0 -0 -1.67422e-05)
(0 -0 2.14912e-14)
(0 -0 -1.61766e-13)
(0 -0 -1.57717e-13)
(0 -0 -1.91161e-13)
(0 -0 -2.30481e-13)
(0 -0 -1.52015e-13)
(0 -0 -1.8873e-13)
(0 -0 -1.48835e-13)
(0 -0 -1.04762e-13)
(0 -0 -4.90301e-14)
(0 -0 1.44618e-14)
(0 -0 3.62168e-14)
(0 -0 6.43116e-14)
(0 -0 1.29107e-13)
(0 -0 1.91475e-13)
(0 -0 1.73085e-13)
(0 -0 1.34953e-13)
(0 -0 8.71012e-14)
(0 -0 8.04085e-14)
(0 -0 1.02205e-13)
(0 -0 3.23714e-06)
(0 -0 -3.99271e-06)
(0 -0 9.50398e-07)
(0 -0 -2.27339e-07)
(0 -0 5.38582e-08)
(0 -0 -1.31053e-08)
(0 -0 2.99958e-09)
(0 -0 -8.06346e-10)
(0 -0 1.36052e-10)
(0 -0 -7.23238e-11)
(0 -0 -1.0067e-11)
(0 -0 -1.67918e-11)
(0 -0 -9.30926e-12)
(0 -0 -6.88907e-12)
(0 -0 -4.3958e-12)
(0 -0 -2.73574e-12)
(0 -0 -1.67715e-12)
(0 -0 -7.45781e-13)
(0 -0 -2.58819e-13)
(0 -0 3.27097e-14)
)
;
    }
    frontAndBack
    {
        type            empty;
    }
}


// ************************************************************************* //
