/*--------------------------------*- C++ -*----------------------------------*\
| =========                 |                                                 |
| \\      /  F ield         | OpenFOAM: The Open Source CFD Toolbox           |
|  \\    /   O peration     | Version:  2506                                  |
|   \\  /    A nd           | Website:  www.openfoam.com                      |
|    \\/     M anipulation  |                                                 |
\*---------------------------------------------------------------------------*/
FoamFile
{
    version     2.0;
    format      ascii;
    arch        "LSB;label=32;scalar=64";
    class       volScalarField;
    location    "4.125";
    object      zeroGradient(epsilon);
}
// * * * * * * * * * * * * * * * * * * * * * * * * * * * * * * * * * * * * * //

dimensions      [0 2 -3 0 0 0 0];

internalField   nonuniform List<scalar> 
400
(
2.00797e-05
2.00795e-05
2.00793e-05
2.00792e-05
2.0079e-05
2.00789e-05
2.00788e-05
2.00787e-05
2.00786e-05
2.00786e-05
2.00785e-05
2.00784e-05
2.00784e-05
2.00784e-05
2.00783e-05
2.00783e-05
2.00783e-05
2.00783e-05
2.00783e-05
2.00783e-05
2.59294e-05
2.51059e-05
2.51696e-05
2.51963e-05
2.525e-05
2.52778e-05
2.5332e-05
2.53611e-05
2.54156e-05
2.54462e-05
2.55009e-05
2.5533e-05
2.5588e-05
2.56215e-05
2.56769e-05
2.57118e-05
2.57676e-05
2.58039e-05
2.58321e-05
2.58787e-05
3.39702e-05
3.27683e-05
3.28615e-05
3.29005e-05
3.29791e-05
3.30195e-05
3.30987e-05
3.3141e-05
3.32205e-05
3.32647e-05
3.33445e-05
3.33908e-05
3.34708e-05
3.3519e-05
3.35994e-05
3.36496e-05
3.37304e-05
3.37825e-05
3.38233e-05
3.38904e-05
4.08032e-05
3.92516e-05
3.93706e-05
3.94206e-05
3.95212e-05
3.95731e-05
3.96745e-05
3.97289e-05
3.98308e-05
3.98879e-05
3.99902e-05
4.00499e-05
4.01526e-05
4.0215e-05
4.03183e-05
4.03833e-05
4.04872e-05
4.05547e-05
4.06072e-05
4.06938e-05
4.53926e-05
4.35919e-05
4.37292e-05
4.37868e-05
4.39029e-05
4.39629e-05
4.408e-05
4.41429e-05
4.42606e-05
4.43267e-05
4.44449e-05
4.45142e-05
4.4633e-05
4.47055e-05
4.48249e-05
4.49005e-05
4.50207e-05
4.50993e-05
4.51601e-05
4.52606e-05
4.813e-05
4.6177e-05
4.63253e-05
4.63875e-05
4.65131e-05
4.6578e-05
4.67046e-05
4.67728e-05
4.69001e-05
4.69717e-05
4.70996e-05
4.71747e-05
4.73033e-05
4.73819e-05
4.75112e-05
4.75932e-05
4.77235e-05
4.78088e-05
4.78746e-05
4.79837e-05
4.97079e-05
4.76662e-05
4.78209e-05
4.78858e-05
4.80168e-05
4.80846e-05
4.82167e-05
4.82879e-05
4.84208e-05
4.84956e-05
4.86292e-05
4.87077e-05
4.88419e-05
4.89241e-05
4.90592e-05
4.9145e-05
4.9281e-05
4.93703e-05
4.94391e-05
4.9553e-05
5.06597e-05
4.85644e-05
4.87229e-05
4.87895e-05
4.89238e-05
4.89933e-05
4.91288e-05
4.92018e-05
4.9338e-05
4.94148e-05
4.95517e-05
4.96323e-05
4.977e-05
4.98544e-05
4.99929e-05
5.00809e-05
5.02205e-05
5.03122e-05
5.03827e-05
5.04997e-05
5.13062e-05
4.91749e-05
4.93361e-05
4.94037e-05
4.95403e-05
4.9611e-05
4.97487e-05
4.9823e-05
4.99615e-05
5.00396e-05
5.01788e-05
5.02608e-05
5.04008e-05
5.04866e-05
5.06275e-05
5.07171e-05
5.0859e-05
5.09523e-05
5.10241e-05
5.11431e-05
5.18219e-05
4.96612e-05
4.98244e-05
4.9893e-05
5.00313e-05
5.0103e-05
5.02425e-05
5.03177e-05
5.04581e-05
5.05372e-05
5.06783e-05
5.07614e-05
5.09032e-05
5.09902e-05
5.11329e-05
5.12238e-05
5.13676e-05
5.14622e-05
5.15349e-05
5.16555e-05
5.22962e-05
5.01089e-05
5.0274e-05
5.03433e-05
5.04833e-05
5.05558e-05
5.06969e-05
5.07731e-05
5.09151e-05
5.09952e-05
5.1138e-05
5.12221e-05
5.13656e-05
5.14537e-05
5.15982e-05
5.16901e-05
5.18357e-05
5.19314e-05
5.2005e-05
5.21271e-05
5.27789e-05
5.05646e-05
5.07317e-05
5.08019e-05
5.09435e-05
5.10169e-05
5.11597e-05
5.12368e-05
5.13805e-05
5.14616e-05
5.16061e-05
5.16912e-05
5.18365e-05
5.19257e-05
5.20719e-05
5.2165e-05
5.23123e-05
5.24093e-05
5.24838e-05
5.26074e-05
5.33014e-05
5.10576e-05
5.12267e-05
5.12978e-05
5.14412e-05
5.15155e-05
5.16602e-05
5.17383e-05
5.18838e-05
5.1966e-05
5.21123e-05
5.21986e-05
5.23457e-05
5.24361e-05
5.25842e-05
5.26786e-05
5.28277e-05
5.29261e-05
5.30015e-05
5.31268e-05
5.3886e-05
5.16095e-05
5.1781e-05
5.18531e-05
5.19985e-05
5.20739e-05
5.22206e-05
5.22998e-05
5.24474e-05
5.25308e-05
5.26791e-05
5.27667e-05
5.29159e-05
5.30076e-05
5.31578e-05
5.32536e-05
5.3405e-05
5.35048e-05
5.35813e-05
5.37084e-05
5.45558e-05
5.22412e-05
5.24154e-05
5.24887e-05
5.26364e-05
5.2713e-05
5.2862e-05
5.29426e-05
5.30925e-05
5.31773e-05
5.3328e-05
5.3417e-05
5.35687e-05
5.36619e-05
5.38146e-05
5.3912e-05
5.40658e-05
5.41673e-05
5.42451e-05
5.43743e-05
5.53325e-05
5.29738e-05
5.31512e-05
5.32258e-05
5.33762e-05
5.34542e-05
5.3606e-05
5.3688e-05
5.38407e-05
5.3927e-05
5.40806e-05
5.41713e-05
5.43257e-05
5.44208e-05
5.45763e-05
5.46755e-05
5.48322e-05
5.49357e-05
5.50149e-05
5.51466e-05
5.62262e-05
5.38169e-05
5.39979e-05
5.4074e-05
5.42276e-05
5.43072e-05
5.44621e-05
5.45458e-05
5.47017e-05
5.47899e-05
5.49466e-05
5.50393e-05
5.5197e-05
5.52941e-05
5.54528e-05
5.55543e-05
5.57143e-05
5.582e-05
5.59009e-05
5.60354e-05
5.71941e-05
5.47306e-05
5.49154e-05
5.49931e-05
5.51499e-05
5.52312e-05
5.53894e-05
5.5475e-05
5.56342e-05
5.57244e-05
5.58846e-05
5.59794e-05
5.61405e-05
5.62399e-05
5.64021e-05
5.65059e-05
5.66694e-05
5.67777e-05
5.68604e-05
5.6998e-05
5.80746e-05
5.56194e-05
5.57995e-05
5.58754e-05
5.60293e-05
5.61094e-05
5.62652e-05
5.63503e-05
5.65075e-05
5.65979e-05
5.67565e-05
5.68524e-05
5.70124e-05
5.71138e-05
5.72754e-05
5.73821e-05
5.75457e-05
5.76577e-05
5.77408e-05
5.78808e-05
5.84326e-05
5.84318e-05
5.84312e-05
5.84311e-05
5.84303e-05
5.84303e-05
5.84297e-05
5.84297e-05
5.84294e-05
5.84293e-05
5.84291e-05
5.8429e-05
5.84289e-05
5.84289e-05
5.84288e-05
5.84288e-05
5.84288e-05
5.84287e-05
5.84287e-05
5.84287e-05
)
;

boundaryField
{
    movingWall
    {
        type            zeroGradient;
    }
    fixedWalls
    {
        type            zeroGradient;
    }
    frontAndBack
    {
        type            empty;
    }
}


// ************************************************************************* //
