/*--------------------------------*- C++ -*----------------------------------*\
| =========                 |                                                 |
| \\      /  F ield         | OpenFOAM: The Open Source CFD Toolbox           |
|  \\    /   O peration     | Version:  2506                                  |
|   \\  /    A nd           | Website:  www.openfoam.com                      |
|    \\/     M anipulation  |                                                 |
\*---------------------------------------------------------------------------*/
FoamFile
{
    version     2.0;
    format      ascii;
    arch        "LSB;label=32;scalar=64";
    class       volScalarField;
    location    "0.375";
    object      Lambda2Field;
}
// * * * * * * * * * * * * * * * * * * * * * * * * * * * * * * * * * * * * * //

dimensions      [0 0 -2 0 0 0 0];

internalField   nonuniform List<scalar> 
400
(
0.00447258
0.0105458
0.0189375
0.0217226
0.0214637
0.0193698
0.0170655
0.015522
0.0146697
0.0144882
0.0158089
0.0163344
0.0176154
0.0200683
0.0233436
0.0264229
0.0272702
0.0242823
0.0144645
0.00684539
0.0106149
0.0174697
0.0200787
0.0203209
0.0184803
0.0153273
0.0117451
0.00839398
0.00577598
0.00406915
0.00359444
0.00455122
0.00692665
0.0108392
0.0157868
0.0208768
0.0247332
0.0260005
0.0238857
0.0155043
0.0196403
0.0214984
0.0233913
0.0224408
0.0204106
0.0172835
0.013591
0.00998914
0.00703711
0.00515798
0.00468708
0.0058507
0.00871053
0.0130962
0.0184587
0.0238641
0.0283006
0.0311599
0.0301116
0.0277275
0.0241559
0.0256138
0.026536
0.0256123
0.0234585
0.020517
0.0171253
0.013781
0.0110357
0.00936244
0.00911137
0.0105099
0.0136257
0.0182385
0.0237588
0.029418
0.0344268
0.0376258
0.0376854
0.0343961
0.0264362
0.0302156
0.0315967
0.0305
0.0283305
0.0256449
0.0226673
0.0197773
0.0174743
0.0162215
0.0163703
0.018154
0.0216418
0.0265989
0.0325024
0.0386799
0.0446383
0.048623
0.048003
0.038873
0.027038
0.0359103
0.0387104
0.0378364
0.035699
0.0333009
0.0307152
0.0283257
0.02658
0.0259217
0.0267206
0.0292088
0.033446
0.0392469
0.0461595
0.0536263
0.0611655
0.0660001
0.0633457
0.0423645
0.0272722
0.0434615
0.0483583
0.0480814
0.0460533
0.0438661
0.0416362
0.0397513
0.0386581
0.0388027
0.0405825
0.0442679
0.0499396
0.0573753
0.066445
0.0765342
0.0870464
0.093316
0.0875077
0.0472896
0.0279511
0.0537394
0.0613047
0.0618359
0.0599066
0.0578089
0.0558383
0.0544038
0.0540296
0.0552128
0.0584199
0.0638573
0.072024
0.0828081
0.0959891
0.111129
0.127396
0.137203
0.127142
0.0561582
0.0293824
0.0678358
0.0787215
0.0800492
0.0779936
0.0757088
0.073739
0.0725845
0.0729287
0.0753907
0.0806021
0.0889419
0.101237
0.117679
0.138411
0.163293
0.191299
0.210524
0.194884
0.0731427
0.0314498
0.0872871
0.102264
0.104083
0.101269
0.0981632
0.0956173
0.0943558
0.0952451
0.0991481
0.106998
0.119617
0.138418
0.164392
0.198762
0.242635
0.29581
0.340114
0.316962
0.106803
0.0336112
0.114462
0.134359
0.135725
0.130733
0.125565
0.121326
0.119111
0.120014
0.12524
0.136224
0.154734
0.183159
0.224589
0.283244
0.364542
0.473341
0.586853
0.552335
0.160021
0.0331031
0.153188
0.17846
0.177
0.167131
0.157498
0.149586
0.144845
0.144586
0.150366
0.164372
0.189769
0.231312
0.296628
0.397769
0.554505
0.794112
1.09789
1.04105
0.41533
0.0322974
0.209701
0.238569
0.229157
0.209296
0.191141
0.176537
0.166786
0.163215
0.167434
0.182627
0.213977
0.27115
0.371071
0.545503
0.863144
1.44927
2.41437
2.23372
0.542359
0
0.293736
0.31786
0.286673
0.249211
0.217395
0.19236
0.174683
0.164932
0.16444
0.176726
0.209509
0.278995
0.421663
0.727386
1.41673
2.96854
5.62106
5.5964
-3.60544
0.125352
0.41201
0.4026
0.326461
0.261755
0.212312
0.175433
0.149352
0.131841
0.123239
0.127053
0.152453
0.223842
0.408383
0.913563
2.54252
6.65453
11.6203
14.0584
-1.25472
0
0.47098
0.37696
0.266595
0.183541
0.12094
0.0761623
0.042881
0.0214174
0.00759177
0.0027558
0.0183757
0.0888105
0.329264
1.16805
4.00945
10.431
11.9136
19.743
59.6752
0
0.557666
0.169236
0
0
-0.139957
-0.230483
-0.284951
-0.317081
-0.330386
-0.31327
-0.233563
-0.0159616
0.591745
2.36523
4.64741
-6.0663
-79.6582
-43.2949
138.36
0
0
0
-0.64098
-1.02745
-1.23326
-1.38656
-1.53307
-1.62786
-1.59614
-1.37832
-0.86273
0.149319
2.40272
6.40695
10.8268
-11.4088
-171.645
-125.94
343.772
10.547
0
0
0
0
0
0
0
-0.813879
-1.3243
-1.25532
-0.574483
0
2.08093
3.98741
5.64957
0
-23.2353
-181.031
851.378
3221.3
-590.379
-666.631
-347.546
-157.386
-91.7727
-77.0445
-77.6342
-78.9536
-71.9455
-54.67
-32.3796
-14.2334
0
-0.686145
0
0
0
-169.14
1589.01
)
;

boundaryField
{
    movingWall
    {
        type            calculated;
        value           nonuniform List<scalar> 
20
(
1600.22
0
0
0
0
0
0
0
0
0
0
0
0
0
0
0
0
0
-608.375
3159.95
)
;
    }
    fixedWalls
    {
        type            calculated;
        value           nonuniform List<scalar> 
60
(
0.00138847
0.00715501
0.0126776
0.0140557
0.0124635
0.00689984
0
0
0
0
0
0
0
0
0
0
0
0
36.0006
6911.86
0.00256281
0.0105824
0.0179874
0.0192173
0.0151313
0.00350085
0
0
0
0
0
0
0
-12.4773
-8.21566
0
156.902
605.908
3183.95
1946.44
0.00141942
0.00735028
0.0138681
0.0172328
0.0189612
0.0190303
0.0190411
0.0203103
0.0227051
0.0255479
0.0298885
0.0280153
0.0264871
0.0258715
0.0257597
0.0251527
0.0225078
0.0181041
0.0102748
0.00239718
)
;
    }
    frontAndBack
    {
        type            empty;
    }
}


// ************************************************************************* //
