/*--------------------------------*- C++ -*----------------------------------*\
| =========                 |                                                 |
| \\      /  F ield         | OpenFOAM: The Open Source CFD Toolbox           |
|  \\    /   O peration     | Version:  2506                                  |
|   \\  /    A nd           | Website:  www.openfoam.com                      |
|    \\/     M anipulation  |                                                 |
\*---------------------------------------------------------------------------*/
FoamFile
{
    version     2.0;
    format      ascii;
    arch        "LSB;label=32;scalar=64";
    class       volScalarField;
    location    "1.075";
    object      p;
}
// * * * * * * * * * * * * * * * * * * * * * * * * * * * * * * * * * * * * * //

dimensions      [0 2 -2 0 0 0 0];

internalField   nonuniform List<scalar> 
6400
(
1.6502e-08
-3.11636e-06
-5.92417e-05
-0.000166132
-0.000310945
-0.000482038
-0.000669123
-0.000863378
-0.00105759
-0.00124595
-0.00142386
-0.00158771
-0.00173469
-0.00186265
-0.00197001
-0.00205558
-0.00211854
-0.0021583
-0.00217448
-0.00216684
-0.00213524
-0.00207965
-0.00200013
-0.00189677
-0.00176973
-0.00161923
-0.00144556
-0.00124908
-0.00103022
-0.000789517
-0.000527625
-0.000245338
5.64048e-05
0.000376503
0.000713675
0.00106644
0.00143313
0.00181189
0.00220069
0.00259728
0.00299921
0.0034039
0.00380857
0.00421032
0.00460615
0.00499293
0.00536754
0.00572683
0.00606772
0.00638719
0.00668234
0.00695046
0.00718906
0.00739596
0.00756932
0.00770766
0.00780988
0.00787534
0.00790387
0.0078958
0.00785197
0.00777372
0.00766293
0.007522
0.00735382
0.00716178
0.00694975
0.00672209
0.00648356
0.00623933
0.005995
0.00575656
0.00553039
0.00532325
0.00514214
0.00499411
0.00488566
0.0048221
0.00480639
0.00482825
3.5121e-06
8.36102e-07
-4.84548e-05
-0.000138939
-0.000260093
-0.000403564
-0.00056148
-0.000726738
-0.000893192
-0.00105572
-0.00121014
-0.00135301
-0.00148164
-0.00159388
-0.00168806
-0.00176291
-0.00181749
-0.00185111
-0.00186327
-0.00185363
-0.00182197
-0.00176818
-0.00169224
-0.0015942
-0.00147416
-0.00133231
-0.00116891
-0.000984282
-0.000778847
-0.000553109
-0.000307704
-4.33913e-05
0.000238941
0.000538238
0.000853271
0.00118264
0.00152478
0.00187794
0.00224022
0.00260952
0.00298357
0.00335995
0.00373611
0.00410936
0.00447692
0.00483592
0.0051835
0.00551679
0.00583296
0.00612925
0.00640304
0.00665187
0.0068735
0.00706598
0.00722767
0.00735727
0.00745383
0.00751683
0.00754617
0.00754224
0.00750587
0.00743837
0.00734152
0.00721758
0.00706926
0.00689972
0.00671255
0.00651174
0.00630165
0.00608699
0.00587277
0.00566432
0.00546719
0.00528712
0.00512986
0.00500094
0.00490504
0.00484584
0.00482804
0.00485008
6.08053e-05
5.1358e-05
1.75296e-06
-8.18607e-05
-0.000190725
-0.000318192
-0.000458017
-0.000604307
-0.000751859
-0.000896236
-0.00103368
-0.00116107
-0.00127588
-0.00137609
-0.00146006
-0.00152654
-0.00157453
-0.00160331
-0.00161234
-0.0016012
-0.00156963
-0.00151748
-0.00144467
-0.00135121
-0.00123715
-0.00110266
-0.000947965
-0.000773347
-0.00057919
-0.000365976
-0.000134296
0.000115129
0.000381459
0.0006637
0.000960681
0.00127107
0.0015934
0.00192603
0.00226714
0.00261477
0.00296679
0.00332092
0.00367477
0.00402581
0.00437144
0.00470898
0.00503575
0.00534909
0.00564635
0.00592497
0.00618251
0.00641667
0.00662541
0.00680693
0.00695973
0.00708262
0.00717476
0.00723569
0.00726539
0.00726426
0.00723312
0.00717324
0.00708632
0.00697451
0.00684038
0.0066869
0.00651742
0.00633565
0.00614563
0.00595166
0.00575832
0.00557038
0.0053928
0.00523055
0.00508858
0.00497156
0.00488336
0.00482728
0.00480996
0.00483489
0.000170492
0.000143814
8.59771e-05
1.38735e-06
-0.000103674
-0.000223699
-0.00035347
-0.000488119
-0.000623289
-0.000755162
-0.000880467
-0.000996455
-0.00110085
-0.00119179
-0.00126778
-0.00132763
-0.0013704
-0.00139537
-0.00140198
-0.0013898
-0.00135856
-0.00130807
-0.00123821
-0.00114895
-0.00104033
-0.000912472
-0.000765561
-0.000599842
-0.000415655
-0.000213447
6.23805e-06
0.000242744
0.000495276
0.000762891
0.00104449
0.00133883
0.00164451
0.00195999
0.00228356
0.00261334
0.00294733
0.00328337
0.00361919
0.0039524
0.00428051
0.00460099
0.00491131
0.00520896
0.00549141
0.00575623
0.0060011
0.00622387
0.00642261
0.00659562
0.00674148
0.00685909
0.00694765
0.00700677
0.00703646
0.00703711
0.00700954
0.00695497
0.00687502
0.00677175
0.00664763
0.00650546
0.0063484
0.00617992
0.00600378
0.00582397
0.00564472
0.00547036
0.00530535
0.00515415
0.00502114
0.00491048
0.00482571
0.00477009
0.00475085
0.00477296
0.000319995
0.000267971
0.000195812
0.000105077
-1.32682e-06
-0.000118855
-0.000243173
-0.000370361
-0.00049683
-0.000619396
-0.000735302
-0.000842191
-0.000938084
-0.00102135
-0.00109065
-0.00114491
-0.00118329
-0.00120509
-0.00120978
-0.00119696
-0.00116633
-0.00111768
-0.00105088
-0.00096587
-0.000862661
-0.000741328
-0.000602008
-0.000444917
-0.00027035
-7.86937e-05
0.000129563
0.000353822
0.000593348
0.000847262
0.00111453
0.00139401
0.00168438
0.0019842
0.00229182
0.00260549
0.00292331
0.00324323
0.00356307
0.00388055
0.00419331
0.00449893
0.004795
0.00507911
0.00534884
0.00560185
0.00583593
0.00604902
0.00623926
0.00640504
0.00654499
0.00665805
0.00674348
0.00680091
0.00683035
0.0068322
0.00680725
0.00675666
0.00668201
0.00658528
0.0064688
0.00633525
0.00618761
0.00602914
0.00586336
0.00569399
0.00552491
0.00536012
0.00520364
0.00505948
0.00493157
0.00482365
0.00473897
0.00468069
0.00465532
0.00466738
0.000498194
0.000415798
0.000324931
0.000223931
0.000112051
-7.04916e-06
-0.000129805
-0.000253128
-0.00037416
-0.000490327
-0.00059937
-0.000699345
-0.000788604
-0.00086577
-0.000929703
-0.00097948
-0.00101435
-0.0010337
-0.00103705
-0.00102403
-0.000994356
-0.000947794
-0.000884205
-0.00080351
-0.00070569
-0.000590779
-0.000458866
-0.000310121
-0.000144796
3.67845e-05
0.000234204
0.000446919
0.000674258
0.000915413
0.00116944
0.00143528
0.00171169
0.00199732
0.00229061
0.00258991
0.00289341
0.00319915
0.00350504
0.00380889
0.00410843
0.00440136
0.00468535
0.00495803
0.0052171
0.00546026
0.00568538
0.00589047
0.00607373
0.00623356
0.00636864
0.00647793
0.00656071
0.00661663
0.00664569
0.00664826
0.00662509
0.00657731
0.00650644
0.00641439
0.00630338
0.00617597
0.00603498
0.00588349
0.00572481
0.00556243
0.00539995
0.00524104
0.00508938
0.0049486
0.00482224
0.00471365
0.00462586
0.00456179
0.00452647
0.00452296
0.000695453
0.000579871
0.000467274
0.000352854
0.000232165
0.000108099
-1.63931e-05
-0.000138976
-0.000257479
-0.000369896
-0.000474447
-0.000569598
-0.000654041
-0.000726673
-0.000786578
-0.000832998
-0.000865305
-0.000882987
-0.00088564
-0.000872931
-0.000844586
-0.00080039
-0.000740196
-0.000663912
-0.000571477
-0.000462884
-0.000338188
-0.000197505
-4.10255e-05
0.000130993
0.000318194
0.000520099
0.000736107
0.000965495
0.00120741
0.00146085
0.0017247
0.00199765
0.00227826
0.00256496
0.00285601
0.00314953
0.00344352
0.00373585
0.00402435
0.00430676
0.00458082
0.00484423
0.00509469
0.00532999
0.00554803
0.00574684
0.00592465
0.00607986
0.00621117
0.00631754
0.00639824
0.00645292
0.00648155
0.00648446
0.00646237
0.00641636
0.0063479
0.00625881
0.00615126
0.00602767
0.00589074
0.0057434
0.00558878
0.00543016
0.00527093
0.00511446
0.00496416
0.00482334
0.0046952
0.00458279
0.00448891
0.00441626
0.00436787
0.00434504
0.00090336
0.000753197
0.000616959
0.000486836
0.000354797
0.000223132
9.42702e-05
-3.01353e-05
-0.000148534
-0.000259453
-0.000361577
-0.000453764
-0.000535045
-0.0006046
-0.000661743
-0.000705894
-0.000736568
-0.000753378
-0.000755996
-0.000744129
-0.000717541
-0.000676045
-0.000619485
-0.000547747
-0.000460739
-0.00035842
-0.0002408
-0.000107941
4.00365e-05
0.000202942
0.000380483
0.000572248
0.000777715
0.000996252
0.00122709
0.00146932
0.00172188
0.00198358
0.00225305
0.0025288
0.00280916
0.00309233
0.00337633
0.00365914
0.00393862
0.00421258
0.00447878
0.00473493
0.00497877
0.00520811
0.00542086
0.00561507
0.00578893
0.00594086
0.00606951
0.00617385
0.00625312
0.00630692
0.00633519
0.00633821
0.00631666
0.00627157
0.00620437
0.00611681
0.00601096
0.00588917
0.00575402
0.00560832
0.00545505
0.00529733
0.00513834
0.00498125
0.00482923
0.00468533
0.00455249
0.00443346
0.00433087
0.00424721
0.00418338
0.00413881
0.00111462
0.000929412
0.000768418
0.000621012
0.000475791
0.000334539
0.000199236
7.09429e-05
-4.93467e-05
-0.000160663
-0.000262129
-0.000352982
-0.000432585
-0.000500397
-0.000555956
-0.000598876
-0.000628837
-0.000645566
-0.000648813
-0.000638351
-0.000613988
-0.000575564
-0.000522918
-0.000455909
-0.000374424
-0.000278387
-0.000167758
-4.25358e-05
9.72298e-05
0.00025141
0.000419779
0.000602005
0.000797656
0.00100618
0.00122691
0.001459
0.00170149
0.00195325
0.00221303
0.00247938
0.0027507
0.00302523
0.00330107
0.00357624
0.00384864
0.0041161
0.00437638
0.00462722
0.00486635
0.00509158
0.0053008
0.00549205
0.00566348
0.00581346
0.00594062
0.00604388
0.00612243
0.00617584
0.00620395
0.00620702
0.00618566
0.00614085
0.00607398
0.00598673
0.0058811
0.00575936
0.00562401
0.00547773
0.00532342
0.00516405
0.00500265
0.00484223
0.00468575
0.00453609
0.00439595
0.00426786
0.00415431
0.0040576
0.00397658
0.00390877
0.00132297
0.00110278
0.000916466
0.000750772
0.000591077
0.000438759
0.000295428
0.000161611
3.77945e-05
-7.55038e-05
-0.000177821
-0.000268768
-0.000348015
-0.000415292
-0.000470366
-0.000513051
-0.000543186
-0.000560608
-0.000565158
-0.000556688
-0.000535053
-0.000500106
-0.000451684
-0.000389635
-0.000313822
-0.000224126
-0.000120449
-2.72596e-06
0.000129057
0.000274838
0.000434465
0.000607695
0.000794185
0.000993477
0.00120497
0.00142792
0.00166146
0.00190454
0.00215597
0.00241438
0.0026782
0.00294574
0.00321516
0.00348448
0.00375164
0.00401448
0.00427074
0.00451814
0.00475443
0.00497737
0.00518483
0.00537476
0.00554528
0.00569471
0.00582161
0.00592483
0.0060035
0.0060571
0.00608542
0.00608863
0.00606729
0.00602234
0.00595509
0.00586717
0.00576052
0.00563734
0.00550004
0.00535127
0.0051938
0.00503052
0.00486434
0.00469815
0.00453478
0.00437696
0.00422723
0.00408791
0.00396145
0.00385004
0.00375051
0.00365862
0.0015229
0.00126813
0.00105633
0.000871756
0.000696709
0.000532261
0.000379714
0.000239099
0.000110444
-6.14825e-06
-0.000110602
-0.000202874
-0.000282932
-0.000350766
-0.000406378
-0.000449768
-0.000480923
-0.000499797
-0.000506335
-0.000500464
-0.000482078
-0.000451041
-0.000407199
-0.000350386
-0.000280437
-0.000197188
-0.000100477
9.82524e-06
0.000133794
0.000271436
0.000422689
0.000587401
0.000765317
0.000956066
0.00115913
0.00137387
0.0015995
0.00183505
0.0020794
0.00233123
0.00258902
0.00285113
0.00311576
0.00338096
0.00364467
0.00390469
0.00415877
0.0044046
0.00463989
0.00486236
0.00506981
0.00526011
0.00543131
0.00558164
0.0057096
0.00581392
0.00589367
0.00594821
0.00597725
0.00598089
0.0059596
0.00591428
0.00584617
0.00575684
0.00564816
0.00552227
0.00538155
0.00522859
0.0050661
0.00489691
0.00472384
0.00454971
0.00437727
0.00420913
0.00404774
0.00389529
0.00375422
0.00362672
0.00350769
0.00339125
0.00170953
0.00142076
0.00118359
0.000979835
0.000788897
0.000611587
0.00044895
0.000300566
0.000166038
4.50797e-05
-6.25904e-05
-0.000157243
-0.000239138
-0.000308519
-0.000365609
-0.000410583
-0.000443564
-0.000464639
-0.000473852
-0.000471194
-0.000456595
-0.000429937
-0.000391069
-0.000339816
-0.000275975
-0.000199324
-0.000109647
-6.75552e-06
0.000109496
0.000239198
0.000382376
0.000538971
0.00070882
0.000891637
0.00108701
0.00129438
0.00151305
0.00174214
0.00198058
0.0022271
0.00248024
0.00273841
0.00299982
0.00326255
0.0035245
0.00378348
0.00403719
0.00428329
0.00451943
0.00474327
0.00495249
0.0051449
0.00531843
0.00547123
0.00560166
0.00570837
0.0057903
0.00584668
0.00587715
0.00588169
0.00586071
0.00581501
0.00574577
0.00565449
0.005543
0.00541339
0.00526801
0.0051094
0.00494026
0.00476338
0.00458154
0.00439752
0.00421402
0.00403363
0.00385871
0.00369141
0.00353425
0.00338946
0.00325013
0.00310884
0.00187841
0.00155637
0.00129408
0.0010711
0.000863995
0.000673347
0.000500002
0.000343127
0.000201919
7.5731e-05
-3.6044e-05
-0.000133979
-0.000218616
-0.000290439
-0.000349864
-0.000397234
-0.000432821
-0.000456836
-0.00046941
-0.000470585
-0.000460329
-0.00043855
-0.000405098
-0.000359772
-0.000302326
-0.000232486
-0.000149981
-5.45585e-05
5.40048e-05
0.00017589
0.000311215
0.000460013
0.00062221
0.000797622
0.000985933
0.00118669
0.00139927
0.00162288
0.00185648
0.00209887
0.00234867
0.0026043
0.002864
0.00312584
0.0033877
0.00364737
0.00390251
0.00415072
0.00438957
0.00461664
0.00482949
0.00502581
0.00520342
0.00536034
0.00549481
0.00560533
0.0056907
0.00575003
0.00578281
0.00578894
0.00576872
0.00572286
0.00565246
0.00555894
0.00544408
0.00530995
0.00515888
0.0049934
0.00481621
0.00463007
0.00443777
0.00424209
0.00404573
0.0038513
0.00366115
0.00347745
0.00330285
0.00313967
0.00297933
0.00281291
0.00202549
0.00167093
0.00138393
0.00114183
0.000918471
0.00071423
0.000529769
0.000363876
0.00021537
8.32708e-05
-3.33403e-05
-0.000135335
-0.000223509
-0.000298567
-0.000361107
-0.000411641
-0.000450589
-0.000478266
-0.000494875
-0.000500514
-0.00049519
-0.000478829
-0.000451271
-0.000412285
-0.000361578
-0.000298828
-0.000223706
-0.000135886
-3.50575e-05
7.90537e-05
0.000206659
0.000347883
0.000502755
0.000671194
0.000852994
0.00104779
0.00125505
0.00147402
0.00170377
0.00194315
0.00219081
0.00244523
0.00270466
0.00296713
0.00323053
0.0034926
0.00375095
0.00400312
0.00424658
0.00447878
0.00469717
0.0048993
0.00508286
0.00524571
0.00538593
0.00550184
0.0055921
0.00565566
0.00569188
0.0057005
0.00568173
0.00563615
0.00556477
0.00546895
0.00535041
0.0052112
0.00505364
0.00488027
0.00469381
0.00449703
0.00429277
0.00408382
0.00387296
0.00366285
0.0034559
0.00325434
0.003061
0.00287841
0.00269633
0.00250444
0.00214697
0.0017607
0.00144947
0.00118847
0.000948917
0.00073099
0.000535173
0.000359898
0.000203641
6.50967e-05
-5.69612e-05
-0.000163677
-0.000256079
-0.000335076
-0.000401455
-0.000455887
-0.000498922
-0.000530963
-0.000552282
-0.000563035
-0.000563263
-0.000552894
-0.00053175
-0.000499565
-0.000456005
-0.000400698
-0.000333246
-0.000253239
-0.000160276
-5.39877e-05
6.59298e-05
0.000199705
0.000347476
0.000509275
0.000685
0.00087438
0.00107695
0.00129206
0.00151884
0.0017562
0.00200287
0.00225732
0.00251782
0.0027824
0.00304892
0.00331508
0.00357843
0.00383642
0.00408641
0.00432571
0.00455164
0.0047616
0.00495309
0.00512382
0.00527166
0.00539476
0.00549157
0.00556087
0.00560186
0.00561414
0.00559773
0.00555312
0.0054812
0.00538326
0.00526096
0.00511634
0.00495172
0.00476966
0.00457291
0.00436429
0.00414669
0.00392302
0.00369614
0.00346882
0.00324359
0.00302278
0.00280944
0.00260637
0.00240176
0.00218393
0.00223922
0.00182212
0.0014872
0.00120762
0.000952043
0.000720456
0.000513175
0.000328299
0.000163964
1.85483e-05
-0.00010946
-0.000221454
-0.000318684
-0.000402263
-0.000473162
-0.000532194
-0.000580012
-0.000617106
-0.000643823
-0.000660364
-0.000666789
-0.000663021
-0.000648856
-0.000623996
-0.000588064
-0.000540628
-0.00048121
-0.000409313
-0.00032444
-0.00022613
-0.000113975
1.23653e-05
0.000153148
0.000308521
0.000478484
0.00066286
0.000861274
0.00107315
0.00129773
0.00153398
0.00178067
0.00203631
0.00229917
0.00256727
0.00283845
0.00311036
0.0033805
0.00364619
0.00390467
0.00415311
0.00438868
0.00460858
0.00481016
0.00499089
0.00514843
0.00528071
0.00538596
0.00546277
0.00551014
0.00552746
0.00551462
0.00547194
0.00540019
0.00530057
0.0051747
0.00502458
0.00485255
0.0046612
0.00445331
0.00423181
0.00399967
0.00375994
0.00351563
0.00326965
0.0030247
0.00278323
0.00254863
0.00232398
0.00209594
0.00185147
0.00229885
0.00185178
0.00149379
0.00119602
0.000924664
0.000679541
0.000460801
0.000266204
9.35537e-05
-5.9066e-05
-0.000193431
-0.000311174
-0.000413774
-0.000502536
-0.000578595
-0.00064289
-0.00069617
-0.000739014
-0.000771832
-0.000794856
-0.000808153
-0.000811631
-0.000805065
-0.000788123
-0.000760375
-0.000721317
-0.000670385
-0.000606992
-0.000530546
-0.000440484
-0.000336286
-0.000217486
-8.3705e-05
6.53192e-05
0.00022969
0.000409329
0.000603966
0.000813132
0.00103614
0.00127206
0.00151969
0.00177757
0.00204397
0.00231693
0.00259427
0.00287359
0.00315228
0.00342757
0.00369656
0.00395626
0.00420367
0.0044358
0.00464977
0.00484281
0.00501234
0.00515604
0.0052719
0.00535826
0.00541388
0.00543796
0.00543018
0.00539067
0.00532009
0.00521952
0.00509053
0.00493508
0.00475552
0.00455447
0.0043348
0.00409953
0.00385179
0.00359479
0.00333171
0.00306568
0.00279957
0.00253604
0.00227885
0.00203142
0.0017789
0.00150687
0.00232259
0.00184644
0.00146603
0.00115052
0.000863707
0.000605252
0.000375126
0.000170757
-1.03639e-05
-0.000170434
-0.000311487
-0.000435401
-0.000543869
-0.000638377
-0.0007202
-0.000790396
-0.000849817
-0.000899118
-0.000938756
-0.00096898
-0.000989855
-0.00100128
-0.001003
-0.00099464
-0.000975711
-0.000945625
-0.000903731
-0.00084935
-0.00078179
-0.000700374
-0.000604456
-0.000493441
-0.000366823
-0.000224228
-6.54414e-05
0.000109575
0.000300668
0.000507484
0.000729432
0.000965647
0.00121499
0.00147603
0.00174708
0.00202618
0.00231112
0.00259944
0.00288845
0.00317526
0.00345683
0.00373001
0.00399159
0.00423838
0.00446723
0.00467511
0.00485917
0.00501679
0.00514569
0.00524394
0.00531002
0.00534289
0.00534197
0.00530723
0.00523913
0.00513865
0.00500728
0.00484693
0.00465996
0.00444905
0.00421714
0.00396739
0.00370312
0.00342773
0.00314462
0.00285716
0.00256845
0.00228142
0.00200024
0.00172873
0.00145049
0.00114967
0.00230731
0.00180298
0.00140084
0.00106808
0.000766201
0.000494665
0.00025328
3.91521e-05
-0.000150528
-0.000318234
-0.000466264
-0.000596732
-0.000711531
-0.000812308
-0.000900476
-0.00097721
-0.00104346
-0.00109994
-0.00114713
-0.0011853
-0.0012145
-0.00123463
-0.0012454
-0.00124637
-0.00123698
-0.00121657
-0.00118438
-0.00113965
-0.00108156
-0.00100933
-0.000922162
-0.000819331
-0.00070021
-0.000564302
-0.000411265
-0.000240929
-5.33129e-05
0.000151349
0.000372565
0.00060955
0.000861231
0.00112624
0.00140293
0.00168934
0.00198324
0.00228212
0.00258321
0.00288348
0.00317975
0.0034687
0.00374692
0.00401094
0.00425736
0.00448284
0.00468422
0.00485857
0.00500327
0.00511608
0.00519518
0.00523921
0.00524734
0.00521929
0.00515535
0.00505634
0.00492363
0.00475911
0.00456512
0.0043444
0.00410001
0.00383526
0.00355367
0.00325886
0.00295452
0.00264428
0.00233152
0.00201949
0.00171282
0.00141579
0.00111037
0.000779266
0.00224996
0.00171842
0.00129525
0.000945789
0.000629252
0.000344929
9.24623e-05
-0.00013135
-0.000329629
-0.000505126
-0.000660394
-0.000797767
-0.000919323
-0.00102687
-0.00112196
-0.00120588
-0.00127965
-0.00134404
-0.00139954
-0.00144645
-0.0014848
-0.00151447
-0.00153512
-0.00154625
-0.00154723
-0.00153729
-0.00151562
-0.00148131
-0.00143344
-0.00137107
-0.00129329
-0.00119923
-0.00108812
-0.000959353
-0.000812422
-0.000647012
-0.000462999
-0.000260491
-3.98725e-05
0.00019817
0.00045265
0.00072228
0.00100545
0.00130023
0.00160437
0.00191531
0.00223019
0.00254587
0.00285902
0.00316613
0.00346355
0.00374756
0.00401444
0.00426052
0.00448229
0.00467648
0.00484009
0.00497051
0.00506555
0.00512352
0.00514327
0.00512427
0.00506654
0.00497074
0.00483811
0.00467047
0.00447015
0.00423995
0.00398306
0.00370296
0.0034034
0.00308827
0.00276154
0.00242717
0.00208889
0.00175031
0.00141654
0.00109238
0.000758119
0.000394882
0.00214763
0.00158985
0.0011464
0.000780801
0.000450059
0.00015329
-0.000110032
-0.000343424
-0.000550315
-0.000733732
-0.00089647
-0.00104107
-0.0011698
-0.00128462
-0.00138721
-0.00147897
-0.00156098
-0.00163402
-0.00169865
-0.00175513
-0.00180352
-0.00184363
-0.00187508
-0.00189731
-0.00190959
-0.00191109
-0.00190086
-0.0018779
-0.00184114
-0.0017895
-0.00172192
-0.00163741
-0.00153506
-0.00141408
-0.00127382
-0.0011138
-0.000933741
-0.000733616
-0.000513681
-0.000274504
-1.69604e-05
0.000257754
0.000548095
0.000852162
0.0011677
0.00149211
0.00182244
0.00215548
0.00248772
0.00281545
0.00313476
0.00344166
0.00373208
0.00400202
0.00424757
0.00446504
0.00465103
0.0048025
0.00491685
0.00499199
0.0050264
0.00501922
0.00497022
0.0048798
0.00474906
0.00457972
0.0043741
0.00413506
0.00386591
0.00357032
0.00325229
0.00291601
0.0025658
0.00220599
0.00184069
0.0014739
0.00111131
0.000758255
0.000393221
-4.31239e-06
0.00199748
0.00141448
0.000951531
0.000570384
0.00022593
-8.29043e-05
-0.000356827
-0.000599675
-0.000815172
-0.00100661
-0.00117703
-0.00132917
-0.00146548
-0.00158808
-0.00169878
-0.00179904
-0.00189001
-0.00197251
-0.00204711
-0.00211408
-0.00217345
-0.002225
-0.00226827
-0.00230264
-0.00232729
-0.00234131
-0.00234361
-0.00233308
-0.00230849
-0.00226863
-0.0022123
-0.00213835
-0.00204571
-0.00193342
-0.00180063
-0.00164671
-0.00147121
-0.00127395
-0.00105503
-0.000814884
-0.00055424
-0.000274187
2.38094e-05
0.000337899
0.000665842
0.00100501
0.00135241
0.0017047
0.00205824
0.00240909
0.0027531
0.00308595
0.00340323
0.00370053
0.00397355
0.00421812
0.00443038
0.0046068
0.00474428
0.0048403
0.00489291
0.00490086
0.00486357
0.00478119
0.00465461
0.00448542
0.00427592
0.00402901
0.00374811
0.00343712
0.0031003
0.00274219
0.00236749
0.00198094
0.00158708
0.00119035
0.000797064
0.00041315
1.51778e-05
-0.000419162
0.00179674
0.0011896
0.000707974
0.000311922
-4.57134e-05
-0.000366211
-0.000650465
-0.000902623
-0.0011267
-0.00132625
-0.00150454
-0.00166454
-0.00180886
-0.00193977
-0.00205918
-0.00216863
-0.00226931
-0.00236212
-0.0024476
-0.00252605
-0.00259743
-0.00266148
-0.00271769
-0.00276536
-0.0028036
-0.00283136
-0.00284745
-0.00285059
-0.00283944
-0.00281263
-0.00276881
-0.00270666
-0.00262493
-0.00252246
-0.00239823
-0.00225139
-0.00208134
-0.00188772
-0.00167044
-0.00142976
-0.00116624
-0.000880855
-0.000574956
-0.000250323
9.08455e-05
0.000445925
0.000811875
0.00118527
0.0015623
0.00193882
0.0023104
0.0026724
0.00302005
0.00334852
0.00365302
0.0039289
0.00417173
0.00437744
0.00454241
0.00466357
0.00473847
0.0047654
0.00474338
0.00467224
0.0045526
0.00438591
0.00417439
0.00392095
0.00362916
0.00330314
0.00294743
0.00256696
0.00216683
0.00175226
0.00132827
0.00089977
0.000473771
5.68649e-05
-0.000376471
-0.000850477
0.00154276
0.000912618
0.000413201
2.91868e-06
-0.000367351
-0.000699091
-0.000993386
-0.00125469
-0.00148731
-0.00169505
-0.00188143
-0.0020496
-0.00220237
-0.00234211
-0.00247085
-0.0025902
-0.00270143
-0.00280543
-0.00290277
-0.00299372
-0.00307822
-0.00315595
-0.00322635
-0.00328862
-0.00334179
-0.00338466
-0.00341594
-0.0034342
-0.00343797
-0.00342571
-0.00339591
-0.00334705
-0.0032777
-0.00318647
-0.00307216
-0.00293372
-0.00277034
-0.00258143
-0.00236672
-0.00212624
-0.00186039
-0.00156997
-0.00125621
-0.000920764
-0.000565771
-0.000193821
0.000192021
0.000588242
0.000990893
0.00139562
0.00179771
0.00219221
0.00257395
0.00293763
0.00327797
0.00358972
0.00386789
0.00410776
0.00430511
0.00445624
0.00455813
0.00460852
0.00460597
0.00454987
0.00444055
0.00427923
0.00406803
0.00380987
0.00350844
0.00316806
0.00279363
0.00239044
0.00196407
0.00152025
0.00106451
0.000602334
0.000141481
-0.000310739
-0.000782124
-0.00129901
0.00123303
0.000581091
6.47986e-05
-0.000359012
-0.000741344
-0.00108388
-0.00138791
-0.00165817
-0.00189929
-0.00211532
-0.00231
-0.00248669
-0.00264834
-0.00279747
-0.00293619
-0.0030662
-0.00318882
-0.00330496
-0.0034152
-0.00351976
-0.00361857
-0.00371126
-0.0037972
-0.0038755
-0.00394507
-0.0040046
-0.00405267
-0.0040877
-0.00410808
-0.00411211
-0.00409808
-0.00406428
-0.00400904
-0.0039308
-0.00382811
-0.00369971
-0.00354453
-0.00336178
-0.0031509
-0.00291173
-0.00264443
-0.00234962
-0.00202835
-0.00168214
-0.00131299
-0.000923459
-0.000516592
-9.59702e-05
0.000334328
0.000769749
0.00120533
0.00163576
0.00205546
0.00245866
0.00283949
0.0031921
0.00351082
0.00379025
0.00402545
0.00421202
0.00434627
0.00442529
0.00444707
0.00441051
0.00431553
0.0041631
0.00395514
0.00369458
0.00338519
0.00303153
0.00263882
0.00221277
0.00175949
0.00128523
0.000796148
0.000298323
-0.000199653
-0.000689692
-0.00120207
-0.0017654
0.000865153
0.000192685
-0.000339523
-0.000776128
-0.00116992
-0.00152279
-0.00183622
-0.00211528
-0.00236485
-0.00258927
-0.00279247
-0.00297802
-0.003149
-0.00330808
-0.00345747
-0.00359895
-0.00373385
-0.00386313
-0.00398735
-0.00410673
-0.00422115
-0.00433019
-0.00443314
-0.00452901
-0.0046166
-0.0046945
-0.00476113
-0.0048148
-0.00485372
-0.00487601
-0.00487977
-0.00486307
-0.00482401
-0.00476082
-0.00467179
-0.00455542
-0.00441037
-0.00423556
-0.0040302
-0.00379382
-0.00352636
-0.0032282
-0.00290015
-0.00254355
-0.00216027
-0.00175273
-0.00132397
-0.000877597
-0.000417786
5.07342e-05
0.000522745
0.000992601
0.00145429
0.00190152
0.00232781
0.00272664
0.0030916
0.00341653
0.00369566
0.00392382
0.00409651
0.00421008
0.00426182
0.00425005
0.00417419
0.00403484
0.00383373
0.00357368
0.00325855
0.00289312
0.00248294
0.00203417
0.00155345
0.00104769
0.000523684
-1.18155e-05
-0.000549303
-0.00107985
-0.00163642
-0.00225011
0.000436881
-0.000254786
-0.000801901
-0.00125053
-0.00165515
-0.00201787
-0.00234038
-0.00262805
-0.00288606
-0.00311896
-0.00333091
-0.00352566
-0.00370646
-0.00387609
-0.00403687
-0.00419064
-0.00433877
-0.00448224
-0.00462161
-0.00475707
-0.00488849
-0.00501536
-0.00513689
-0.00525201
-0.0053594
-0.00545754
-0.00554472
-0.00561911
-0.00567872
-0.0057215
-0.00574533
-0.00574806
-0.00572757
-0.00568183
-0.00560887
-0.0055069
-0.00537429
-0.00520965
-0.00501187
-0.00478022
-0.00451433
-0.00421427
-0.00388061
-0.00351443
-0.0031174
-0.00269181
-0.00224062
-0.00176742
-0.00127645
-0.000772586
-0.000261274
0.000251499
0.000759281
0.00125523
0.00173221
0.002183
0.00260036
0.00297728
0.00330708
0.00358368
0.00380167
0.00395651
0.00404469
0.00406378
0.00401265
0.0038914
0.00370147
0.00344555
0.00312752
0.00275235
0.00232592
0.00185488
0.00134646
0.000808269
0.00024781
-0.000327421
-0.000906924
-0.00148083
-0.00208506
-0.00275338
-5.38838e-05
-0.000763342
-0.0013243
-0.00178415
-0.00219895
-0.00257104
-0.00290231
-0.00319842
-0.00346481
-0.00370629
-0.00392723
-0.00413155
-0.00432266
-0.00450348
-0.00467639
-0.00484331
-0.00500565
-0.00516442
-0.00532016
-0.00547307
-0.00562294
-0.00576921
-0.00591102
-0.00604719
-0.00617631
-0.00629674
-0.00640665
-0.00650402
-0.00658671
-0.00665245
-0.00669891
-0.00672373
-0.00672453
-0.00669899
-0.00664489
-0.00656008
-0.00644263
-0.0062908
-0.00610318
-0.00587865
-0.00561651
-0.0053165
-0.00497886
-0.00460437
-0.00419445
-0.0037512
-0.00327744
-0.00277669
-0.00225321
-0.00171197
-0.00115865
-0.000599533
-4.15359e-05
0.000507937
0.00104109
0.0015499
0.00202626
0.00246221
0.00285008
0.00318271
0.00345366
0.00365738
0.00378935
0.00384634
0.00382645
0.00372922
0.00355567
0.00330828
0.00299088
0.0026086
0.00216766
0.00167521
0.00113913
0.000567765
-3.05871e-05
-0.000647618
-0.00127173
-0.00189201
-0.00254759
-0.00327518
-0.000609053
-0.00133482
-0.00190852
-0.00237877
-0.00280309
-0.00318405
-0.00352374
-0.0038281
-0.00410284
-0.00435301
-0.00458318
-0.00479745
-0.00499939
-0.00519203
-0.00537784
-0.00555881
-0.00573639
-0.0059116
-0.00608502
-0.00625677
-0.00642663
-0.00659396
-0.00675782
-0.00691698
-0.00706991
-0.00721485
-0.00734983
-0.00747267
-0.00758103
-0.00767246
-0.00774441
-0.00779426
-0.0078194
-0.00781719
-0.00778508
-0.00772062
-0.00762149
-0.00748561
-0.00731116
-0.00709666
-0.00684099
-0.00654349
-0.00620402
-0.00582302
-0.00540158
-0.00494156
-0.00444556
-0.00391696
-0.00335999
-0.00277968
-0.00218186
-0.00157314
-0.000960866
-0.000353005
0.000241946
0.000815133
0.00135752
0.00186009
0.00231405
0.00271107
0.00304349
0.00330457
0.00348871
0.00359162
0.00361052
0.00354422
0.00339322
0.00315964
0.00284721
0.00246116
0.00200804
0.00149552
0.000932179
0.000327149
-0.000310405
-0.000971279
-0.00164264
-0.00231245
-0.00302333
-0.00381516
-0.00123034
-0.00197088
-0.00255617
-0.00303598
-0.00346915
-0.00385847
-0.00420622
-0.00451864
-0.0048017
-0.00506066
-0.00530031
-0.00552493
-0.00573823
-0.00594333
-0.00614283
-0.00633876
-0.00653264
-0.0067255
-0.00691789
-0.00710995
-0.00730137
-0.0074915
-0.00767932
-0.00786352
-0.00804247
-0.00821428
-0.00837684
-0.00852781
-0.00866467
-0.00878476
-0.00888531
-0.00896346
-0.0090163
-0.00904089
-0.00903433
-0.00899379
-0.0089166
-0.00880026
-0.00864253
-0.00844147
-0.00819552
-0.00790357
-0.00756501
-0.00717988
-0.00674889
-0.00627355
-0.00575617
-0.00519994
-0.00460897
-0.00398828
-0.00334383
-0.0026825
-0.00201202
-0.00134094
-0.000678472
-3.43211e-05
0.000581468
0.00115874
0.00168745
0.00215794
0.0025612
0.00288913
0.00313482
0.00329277
0.00335912
0.00333179
0.00321055
0.00299706
0.00269486
0.0023092
0.00184694
0.00131628
0.000726513
8.76309e-05
-0.000590253
-0.00129694
-0.00201824
-0.00274085
-0.00351119
-0.00437258
-0.00191928
-0.00267299
-0.0032687
-0.00375719
-0.00419851
-0.00459565
-0.00495112
-0.0052714
-0.00556273
-0.0058306
-0.00607999
-0.00631534
-0.0065405
-0.00675873
-0.0069727
-0.00718453
-0.00739577
-0.00760748
-0.0078202
-0.00803404
-0.00824868
-0.00846341
-0.00867717
-0.00888855
-0.00909583
-0.00929701
-0.00948981
-0.00967174
-0.00984012
-0.00999208
-0.0101246
-0.0102346
-0.0103188
-0.010374
-0.0103969
-0.0103843
-0.0103331
-0.0102404
-0.0101035
-0.00991981
-0.0096874
-0.00940461
-0.00907032
-0.00868408
-0.00824613
-0.00775755
-0.00722028
-0.00663723
-0.0060123
-0.00535044
-0.00465766
-0.00394104
-0.00320871
-0.00246972
-0.00173401
-0.00101218
-0.000315338
0.000345133
0.000957825
0.00151161
0.00199595
0.00240119
0.0027189
0.00294217
0.00306583
0.00308669
0.00300361
0.00281764
0.00253196
0.0021518
0.00168427
0.00113807
0.000523239
-0.000149295
-0.000868387
-0.00162273
-0.00239664
-0.00317543
-0.00400962
-0.00494621
-0.00267716
-0.00344239
-0.00404731
-0.00454358
-0.00499234
-0.00539677
-0.00575959
-0.00608754
-0.0063871
-0.00666397
-0.00692332
-0.00716977
-0.0074073
-0.0076393
-0.00786853
-0.00809718
-0.00832686
-0.00855861
-0.008793
-0.00903013
-0.00926966
-0.00951085
-0.00975257
-0.00999335
-0.0102314
-0.0104645
-0.0106903
-0.0109062
-0.0111093
-0.0112966
-0.0114647