/*--------------------------------*- C++ -*----------------------------------*\
| =========                 |                                                 |
| \\      /  F ield         | OpenFOAM: The Open Source CFD Toolbox           |
|  \\    /   O peration     | Version:  2506                                  |
|   \\  /    A nd           | Website:  www.openfoam.com                      |
|    \\/     M anipulation  |                                                 |
\*---------------------------------------------------------------------------*/
FoamFile
{
    version     2.0;
    format      ascii;
    arch        "LSB;label=32;scalar=64";
    class       surfaceScalarField;
    location    "1.075";
    object      phi;
}
// * * * * * * * * * * * * * * * * * * * * * * * * * * * * * * * * * * * * * //

dimensions      [0 3 -1 0 0 0 0];

oriented        oriented;

internalField   nonuniform List<scalar> 
12640
(
1.97841e-10
-1.97894e-10
5.43257e-10
-3.45409e-10
8.19219e-10
-2.75978e-10
9.1039e-10
-9.11852e-11
7.64394e-10
1.4598e-10
3.6327e-10
4.01134e-10
-2.91356e-10
6.54608e-10
-1.18685e-09
8.95492e-10
-2.3048e-09
1.11794e-09
-3.6239e-09
1.3191e-09
-5.12179e-09
1.49789e-09
-6.77607e-09
1.65428e-09
-8.56496e-09
1.7889e-09
-1.04677e-08
1.90274e-09
-1.24646e-08
1.99695e-09
-1.45374e-08
2.07279e-09
-1.66689e-08
2.13149e-09
-1.88431e-08
2.17417e-09
-2.10449e-08
2.2019e-09
-2.32606e-08
2.21561e-09
-2.54766e-08
2.21606e-09
-2.76805e-08
2.2039e-09
-2.98601e-08
2.17964e-09
-3.20038e-08
2.1437e-09
-3.41002e-08
2.09635e-09
-3.6138e-08
2.03778e-09
-3.81061e-08
1.96812e-09
-3.99936e-08
1.88747e-09
-4.17894e-08
1.79588e-09
-4.34828e-08
1.69337e-09
-4.50628e-08
1.58002e-09
-4.65188e-08
1.45594e-09
-4.78401e-08
1.32129e-09
-4.90164e-08
1.17631e-09
-5.00377e-08
1.02136e-09
-5.08946e-08
8.56876e-10
-5.15781e-08
6.83459e-10
-5.208e-08
5.01847e-10
-5.23928e-08
3.1289e-10
-5.25104e-08
1.17582e-10
-5.24275e-08
-8.28805e-11
-5.21404e-08
-2.87149e-10
-5.16466e-08
-4.93765e-10
-5.09455e-08
-7.0111e-10
-5.00381e-08
-9.07403e-10
-4.89273e-08
-1.11078e-09
-4.7618e-08
-1.30931e-09
-4.61171e-08
-1.50094e-09
-4.44335e-08
-1.6836e-09
-4.25783e-08
-1.85521e-09
-4.05646e-08
-2.01371e-09
-3.84075e-08
-2.15706e-09
-3.61242e-08
-2.28332e-09
-3.37335e-08
-2.39066e-09
-3.1256e-08
-2.47748e-09
-2.87137e-08
-2.54234e-09
-2.61297e-08
-2.58399e-09
-2.35283e-08
-2.60144e-09
-2.09342e-08
-2.59402e-09
-1.83729e-08
-2.56136e-09
-1.58695e-08
-2.50336e-09
-1.34492e-08
-2.42029e-09
-1.11365e-08
-2.31275e-09
-8.95478e-09
-2.18169e-09
-6.92638e-09
-2.02841e-09
-5.07185e-09
-1.85453e-09
-3.40978e-09
-1.66206e-09
-1.9564e-09
-1.45338e-09
-7.25159e-10
-1.23125e-09
2.73705e-10
-9.98871e-10
1.03371e-09
-7.60007e-10
1.55285e-09
-5.19151e-10
1.83474e-09
-2.81894e-10
1.89015e-09
-5.54197e-11
1.73959e-09
1.50564e-10
1.41725e-09
3.22334e-10
9.77159e-10
4.40088e-10
5.0319e-10
4.73959e-10
1.24775e-10
3.78418e-10
1.24771e-10
3.50402e-10
-5.4829e-10
7.96992e-10
-7.92026e-10
9.95285e-10
-4.74259e-10
7.38087e-10
1.66029e-10
-9.22531e-11
9.76322e-10
-1.54864e-09
1.85754e-09
-3.64033e-09
2.74634e-09
-6.34824e-09
3.60339e-09
-9.63556e-09
4.40527e-09
-1.34552e-08
5.13873e-09
-1.77544e-08
5.79708e-09
-2.24781e-08
6.37799e-09
-2.75711e-08
6.88184e-09
-3.29791e-08
7.31071e-09
-3.86499e-08
7.66772e-09
-4.45336e-08
7.9565e-09
-5.05829e-08
8.18081e-09
-5.67531e-08
8.34434e-09
-6.30017e-08
8.45057e-09
-6.92887e-08
8.50261e-09
-7.55759e-08
8.50319e-09
-8.18266e-08
8.45462e-09
-8.80057e-08
8.35878e-09
-9.40792e-08
8.21717e-09
-1.00014e-07
8.03096e-09
-1.05777e-07
7.80099e-09
-1.11337e-07
7.5279e-09
-1.16661e-07
7.21219e-09
-1.2172e-07
6.85426e-09
-1.26481e-07
6.45452e-09
-1.30914e-07
6.01343e-09
-1.3499e-07
5.53167e-09
-1.38679e-07
5.01008e-09
-1.41953e-07
4.44982e-09
-1.44784e-07
3.8524e-09
-1.47146e-07
3.21977e-09
-1.49017e-07
2.55431e-09
-1.50374e-07
1.85893e-09
-1.51199e-07
1.13703e-09
-1.51474e-07
3.92576e-10
-1.51186e-07
-3.69932e-10
-1.50328e-07
-1.14541e-09
-1.48894e-07
-1.92827e-09
-1.46882e-07
-2.71242e-09
-1.44298e-07
-3.49133e-09
-1.41151e-07
-4.25805e-09
-1.37455e-07
-5.00534e-09
-1.3323e-07
-5.72572e-09
-1.28502e-07
-6.4116e-09
-1.23302e-07
-7.05534e-09
-1.17667e-07
-7.64936e-09
-1.11637e-07
-8.18629e-09
-1.05262e-07
-8.65912e-09
-9.85909e-08
-9.06131e-09
-9.16814e-08
-9.38692e-09
-8.4593e-08
-9.63071e-09
-7.73887e-08
-9.78828e-09
-7.0134e-08
-9.85617e-09
-6.28961e-08
-9.83194e-09
-5.57432e-08
-9.71427e-09
-4.87435e-08
-9.50301e-09
-4.19646e-08
-9.19925e-09
-3.5472e-08
-8.80535e-09
-2.93287e-08
-8.32495e-09
-2.35941e-08
-7.76303e-09
-1.83227e-08
-7.12589e-09
-1.35635e-08
-6.42124e-09
-9.3587e-09
-5.6582e-09
-5.74247e-09
-4.84749e-09
-2.73975e-09
-4.0016e-09
-3.646e-10
-3.13517e-09
1.38186e-09
-2.26563e-09
2.51407e-09
-1.41411e-09
3.0656e-09
-6.06946e-10
3.09409e-09
1.22076e-10
2.68778e-09
7.28627e-10
1.97398e-09
1.15388e-09
1.1279e-09
1.32005e-09
3.76733e-10
1.12958e-09
5.01499e-10
2.87805e-10
-8.36112e-10
4.93991e-10
-9.98191e-10
2.34532e-10
-2.14833e-10
-7.29482e-10
1.13006e-09
-2.54193e-09
2.78875e-09
-5.2733e-09
4.58894e-09
-8.94008e-09
6.4131e-09
-1.35207e-08
8.18404e-09
-1.8968e-08
9.85259e-09
-2.52182e-08
1.13889e-08
-3.21973e-08
1.27763e-08
-3.98264e-08
1.40071e-08
-4.80242e-08
1.50797e-08
-5.671e-08
1.59965e-08
-6.58045e-08
1.67622e-08
-7.52312e-08
1.73832e-08
-8.49167e-08
1.78663e-08
-9.47908e-08
1.82185e-08
-1.04787e-07
1.84463e-08
-1.1484e-07
1.8556e-08
-1.2489e-07
1.8553e-08
-1.34877e-07
1.8442e-08
-1.44745e-07
1.8227e-08
-1.54439e-07
1.79111e-08
-1.63905e-07
1.74969e-08
-1.73091e-07
1.69864e-08
-1.81944e-07
1.63813e-08
-1.90414e-07
1.56827e-08
-1.98452e-07
1.48919e-08
-2.06008e-07
1.40101e-08
-2.13033e-07
1.30387e-08
-2.19481e-07
1.19794e-08
-2.25305e-07
1.08344e-08
-2.30462e-07
9.60669e-09
-2.34909e-07
8.29973e-09
-2.38607e-07
6.91804e-09
-2.4152e-07
5.46707e-09
-2.43615e-07
3.9533e-09
-2.44862e-07
2.38426e-09
-2.45238e-07
7.68658e-10
-2.44724e-07
-8.8366e-10
-2.43308e-07
-2.56173e-09
-2.40983e-07
-4.25355e-09
-2.37749e-07
-5.94605e-09
-2.33615e-07
-7.62528e-09
-2.28597e-07
-9.27649e-09
-2.22718e-07
-1.08843e-08
-2.1601e-07
-1.2433e-08
-2.08515e-07
-1.39064e-08
-2.00282e-07
-1.52885e-08
-1.91368e-07
-1.65633e-08
-1.81839e-07
-1.77155e-08
-1.71768e-07
-1.87304e-08
-1.61235e-07
-1.95942e-08
-1.50327e-07
-2.02946e-08
-1.39137e-07
-2.08206e-08
-1.27763e-07
-2.11631e-08
-1.16304e-07
-2.1315e-08
-1.04864e-07
-2.12712e-08
-9.35496e-08
-2.10292e-08
-8.24639e-08
-2.05887e-08
-7.1711e-08
-1.99522e-08
-6.13913e-08
-1.9125e-08
-5.16013e-08
-1.8115e-08
-4.24314e-08
-1.69329e-08
-3.39648e-08
-1.55925e-08
-2.62754e-08
-1.41106e-08
-1.94268e-08
-1.25068e-08
-1.34697e-08
-1.08046e-08
-8.44021e-09
-9.03106e-09
-4.35762e-09
-7.21778e-09
-1.22121e-09
-5.40205e-09
9.92984e-10
-3.62831e-09
2.33658e-09
-1.95054e-09
2.89406e-09
-4.35412e-10
2.78921e-09
8.33466e-10
2.19226e-09
1.75084e-09
1.32651e-09
2.1858e-09
4.73479e-10
1.98259e-09
9.74977e-10
1.03835e-10
-9.39966e-10
-1.47663e-10
-7.46681e-10
-1.11756e-09
7.55082e-10
-3.04013e-09
3.05262e-09
-6.05863e-09
5.80727e-09
-1.02444e-08
8.77468e-09
-1.56129e-08
1.17816e-08
-2.21379e-08
1.47091e-08
-2.97637e-08
1.74783e-08
-3.84136e-08
2.00388e-08
-4.7998e-08
2.23606e-08
-5.84192e-08
2.44282e-08
-6.95758e-08
2.62363e-08
-8.13654e-08
2.77861e-08
-9.36867e-08
2.90836e-08
-1.06441e-07
3.01372e-08
-1.19531e-07
3.09571e-08
-1.32867e-07
3.15536e-08
-1.46357e-07
3.19369e-08
-1.59918e-07
3.21167e-08
-1.73467e-07
3.21016e-08
-1.86924e-07
3.18994e-08
-2.00213e-07
3.15163e-08
-2.1326e-07
3.09579e-08
-2.25992e-07
3.02285e-08
-2.38337e-07
2.93317e-08
-2.50226e-07
2.82706e-08
-2.61591e-07
2.70476e-08
-2.72364e-07
2.56653e-08
-2.82481e-07
2.41262e-08
-2.91875e-07
2.2433e-08
-3.00485e-07
2.05894e-08
-3.0825e-07
1.85995e-08
-3.15112e-07
1.64689e-08
-3.21016e-07
1.4204e-08
-3.25911e-07
1.1813e-08
-3.2975e-07
9.30565e-09
-3.3249e-07
6.69326e-09
-3.34095e-07
3.98909e-09
-3.34534e-07
1.2082e-09
-3.33786e-07
-1.63247e-09
-3.31833e-07
-4.51413e-09
-3.2867e-07
-7.41625e-09
-3.243e-07
-1.03166e-08
-3.18733e-07
-1.31917e-08
-3.11993e-07
-1.60164e-08
-3.04113e-07
-1.8765e-08
-2.95135e-07
-2.14108e-08
-2.85115e-07
-2.39269e-08
-2.74117e-07
-2.62862e-08
-2.62218e-07
-2.84622e-08
-2.49504e-07
-3.04292e-08
-2.36072e-07
-3.21626e-08
-2.22027e-07
-3.36395e-08
-2.07482e-07
-3.48394e-08
-1.92558e-07
-3.57441e-08
-1.77383e-07
-3.63384e-08
-1.62087e-07
-3.66105e-08
-1.46807e-07
-3.65521e-08
-1.31677e-07
-3.6159e-08
-1.16834e-07
-3.54312e-08
-1.02413e-07
-3.43731e-08
-8.85447e-08
-3.29936e-08
-7.53532e-08
-3.13065e-08
-6.29559e-08
-2.93302e-08
-5.14602e-08
-2.70882e-08
-4.09617e-08
-2.46091e-08
-3.15416e-08
-2.1927e-08
-2.32647e-08
-1.90815e-08
-1.61768e-08
-1.61189e-08
-1.03019e-08
-1.30928e-08
-5.63845e-09
-1.00655e-08
-2.15641e-09
-7.11035e-09
2.07541e-10
-4.31449e-09
1.55467e-09
-1.78255e-09
2.02964e-09
3.58498e-10
1.82648e-09
1.954e-09
1.19477e-09
2.81749e-09
4.48514e-10
2.72884e-09
1.42349e-09
-1.38188e-10
-8.01789e-10
-9.81318e-10
9.64548e-11
-2.83131e-09
2.60506e-09
-5.89003e-09
6.11136e-09
-1.02808e-08
1.0198e-08
-1.60619e-08
1.45558e-08
-2.3239e-08
1.89587e-08
-3.17769e-08
2.32471e-08
-4.16098e-08
2.73112e-08
-5.26494e-08
3.10784e-08
-6.47926e-08
3.45038e-08
-7.79265e-08
3.75622e-08
-9.19331e-08
4.02429e-08
-1.06692e-07
4.25453e-08
-1.22084e-07
4.44754e-08
-1.37991e-07
4.60437e-08
-1.54297e-07
4.7263e-08
-1.7089e-07
4.81471e-08
-1.87663e-07
4.871e-08
-2.04511e-07
4.89648e-08
-2.21333e-07
4.89238e-08
-2.38032e-07
4.85978e-08
-2.54512e-07
4.79962e-08
-2.70681e-07
4.71268e-08
-2.86449e-07
4.59964e-08
-3.01728e-07
4.46106e-08
-3.16431e-07
4.29742e-08
-3.30475e-07
4.10914e-08
-3.43776e-07
3.89665e-08
-3.56254e-07
3.66037e-08
-3.67829e-07
3.40082e-08
-3.78425e-07
3.11857e-08
-3.87969e-07
2.81434e-08
-3.9639e-07
2.48899e-08
-4.03622e-07
2.1436e-08
-4.09603e-07
1.77943e-08
-4.14278e-07
1.398e-08
-4.17595e-07
1.00106e-08
-4.19512e-07
5.90644e-09
-4.19995e-07
1.69041e-09
-4.19015e-07
-2.6118e-09
-4.16558e-07
-6.97187e-09
-4.12615e-07
-1.1359e-08
-4.07192e-07
-1.57399e-08
-4.00304e-07
-2.00793e-08
-3.9198e-07
-2.43401e-08
-3.82262e-07
-2.84837e-08
-3.71202e-07
-3.24708e-08
-3.58867e-07
-3.62614e-08
-3.45338e-07
-3.98154e-08
-3.30706e-07
-4.30937e-08
-3.15078e-07
-4.60582e-08
-2.98567e-07
-4.86727e-08
-2.81303e-07
-5.09036e-08
-2.63422e-07
-5.27205e-08
-2.4507e-07
-5.40967e-08
-2.26398e-07
-5.50099e-08
-2.07566e-07
-5.54426e-08
-1.88735e-07
-5.5383e-08
-1.70069e-07
-5.48249e-08
-1.51732e-07
-5.37685e-08
-1.33885e-07
-5.22205e-08
-1.16684e-07
-5.01945e-08
-1.00279e-07
-4.7711e-08
-8.48113e-08
-4.47981e-08
-7.04087e-08
-4.14908e-08
-5.71855e-08
-3.78322e-08
-4.52392e-08
-3.38733e-08
-3.46471e-08
-2.96736e-08
-2.54642e-08
-2.53018e-08
-1.77197e-08
-2.08373e-08
-1.14137e-08
-1.63715e-08
-6.51361e-09
-1.20104e-08
-2.9504e-09
-7.87772e-09
-6.14207e-10
-4.11875e-09
6.49986e-10
-9.05687e-10
1.04732e-09
1.55665e-09
8.38739e-10
3.02605e-09
3.50276e-10
3.2173e-09
1.77377e-09
-4.0583e-10
-3.95953e-10
-1.91639e-09
1.60703e-09
-4.75329e-09
5.44199e-09
-9.06782e-09
1.04259e-08
-1.49488e-08
1.6079e-08
-2.24304e-08
2.20374e-08
-3.15006e-08
2.80289e-08
-4.21099e-08
3.38564e-08
-5.41796e-08
3.93808e-08
-6.7609e-08
4.45079e-08
-8.22821e-08
4.91769e-08
-9.80724e-08
5.33525e-08
-1.14847e-07
5.7018e-08
-1.32472e-07
6.01698e-08
-1.5081e-07
6.28136e-08
-1.69728e-07
6.49613e-08
-1.89093e-07
6.6628e-08
-2.08776e-07
6.78309e-08
-2.28654e-07
6.85875e-08
-2.48604e-07
6.89147e-08
-2.68508e-07
6.88283e-08
-2.88253e-07
6.83425e-08
-3.07727e-07
6.74698e-08
-3.26821e-07
6.62209e-08
-3.45429e-07
6.46051e-08
-3.63449e-07
6.26303e-08
-3.80779e-07
6.03036e-08
-3.97318e-07
5.76313e-08
-4.12972e-07
5.462e-08
-4.27645e-07
5.12763e-08
-4.41244e-07
4.76079e-08
-4.53682e-07
4.36237e-08
-4.64873e-07
3.93344e-08
-4.74736e-07
3.47529e-08
-4.83195e-07
2.98946e-08
-4.90179e-07
2.47779e-08
-4.95623e-07
1.94245e-08
-4.99472e-07
1.38592e-08
-5.01676e-07
8.11054e-09
-5.02196e-07
2.2108e-09
-5.01004e-07
-3.80428e-09
-4.9808e-07
-9.89532e-09
-4.9342e-07
-1.60196e-08
-4.87028e-07
-2.21311e-08
-4.78926e-07
-2.81813e-08
-4.69147e-07
-3.41191e-08
-4.57739e-07
-3.98915e-08
-4.44766e-07
-4.54445e-08
-4.30304e-07
-5.07233e-08
-4.14446e-07
-5.56732e-08
-3.97299e-07
-6.02405e-08
-3.78984e-07
-6.43733e-08
-3.59634e-07
-6.80222e-08
-3.39397e-07
-7.11413e-08
-3.18428e-07
-7.3689e-08
-2.96896e-07
-7.56289e-08
-2.74975e-07
-7.69306e-08
-2.52848e-07
-7.75704e-08
-2.30699e-07
-7.7532e-08
-2.08716e-07
-7.68072e-08
-1.87089e-07
-7.53964e-08
-1.66e-07
-7.33089e-08
-1.45631e-07
-7.05637e-08
-1.26153e-07
-6.71891e-08
-1.07727e-07
-6.32238e-08
-9.05015e-08
-5.87164e-08
-7.46076e-08
-5.37262e-08
-6.01574e-08
-4.83235e-08
-4.72408e-08
-4.25902e-08
-3.59223e-08
-3.66203e-08
-2.62377e-08
-3.05219e-08
-1.8191e-08
-2.44182e-08
-1.17511e-08
-1.84504e-08
-6.84806e-09
-1.27807e-08
-3.37015e-09
-7.59666e-09
-1.15988e-09
-3.11596e-09
-1.04396e-11
4.07195e-10
3.39038e-10
2.67657e-09
2.09694e-10
3.34664e-09
1.98345e-09
-6.82395e-10
2.86426e-10
-2.89874e-09
3.82342e-09
-6.78434e-09
9.32756e-09
-1.24298e-08
1.60714e-08
-1.98799e-08
2.35291e-08
-2.91359e-08
3.12934e-08
-4.01613e-08
3.90543e-08
-5.28872e-08
4.65823e-08
-6.72188e-08
5.37124e-08
-8.30412e-08
6.03303e-08
-1.00225e-07
6.63605e-08
-1.1863e-07
7.17578e-08
-1.38111e-07
7.6499e-08
-1.58519e-07
8.05777e-08
-1.79704e-07
8.39988e-08
-2.01518e-07
8.6775e-08
-2.23814e-07
8.89238e-08
-2.46448e-07
9.04655e-08
-2.69282e-07
9.14209e-08
-2.92178e-07
9.18106e-08
-3.15003e-07
9.1654e-08
-3.3763e-07
9.09688e-08
-3.5993e-07
8.97706e-08
-3.81783e-07
8.80734e-08
-4.03067e-07
8.58891e-08
-4.23665e-07
8.32283e-08
-4.43462e-07
8.01007e-08
-4.62346e-07
7.65152e-08
-4.80207e-07
7.24809e-08
-4.96938e-07
6.80074e-08
-5.12436e-07
6.31055e-08
-5.266e-07
5.77879e-08
-5.39335e-07
5.20695e-08
-5.5055e-07
4.59681e-08
-5.6016e-07
3.95048e-08
-5.68087e-07
3.27045e-08
-5.74259e-07
2.55963e-08
-5.78613e-07
1.82135e-08
-5.81097e-07
1.0594e-08
-5.81666e-07
2.78043e-09
-5.80291e-07
-5.18003e-09
-5.7695e-07
-1.32356e-08
-5.71639e-07
-2.13304e-08
-5.64366e-07
-2.94043e-08
-5.55154e-07
-3.73937e-08
-5.44041e-07
-4.52322e-08
-5.31081e-07
-5.2851e-08
-5.16346e-07
-6.01796e-08
-4.99922e-07
-6.7147e-08
-4.81913e-07
-7.36822e-08
-4.62438e-07
-7.97156e-08
-4.41632e-07
-8.51799e-08
-4.19643e-07
-9.00109e-08
-3.96635e-07
-9.41492e-08
-3.72783e-07
-9.75408e-08
-3.48274e-07
-1.00139e-07
-3.23301e-07
-1.01903e-07
-2.98068e-07
-1.02803e-07
-2.72782e-07
-1.02819e-07
-2.47651e-07
-1.01938e-07
-2.22886e-07
-1.00161e-07
-1.98693e-07
-9.7502e-08
-1.75273e-07
-9.39838e-08
-1.52818e-07
-8.9644e-08
-1.31509e-07
-8.45327e-08
-1.11512e-07
-7.87136e-08
-9.29739e-08
-7.22639e-08
-7.60226e-08
-6.52749e-08
-6.076e-08
-5.78527e-08
-4.72613e-08
-5.01191e-08
-3.55707e-08
-4.22125e-08
-2.56987e-08
-3.42902e-08
-1.7619e-08
-2.65301e-08
-1.12653e-08
-1.91344e-08
-6.52914e-09
-1.23328e-08
-3.25672e-09
-6.38839e-09
-1.24669e-09
-1.60284e-09
-2.47501e-10
1.67738e-09
4.61319e-11
3.05299e-09
2.02957e-09
-9.5926e-10
1.24569e-09
-3.89651e-09
6.76067e-09
-8.86185e-09
1.42929e-08
-1.58808e-08
2.30904e-08
-2.49479e-08
3.25962e-08
-3.60259e-08
4.23714e-08
-4.90481e-08
5.20765e-08
-6.39218e-08
6.1456e-08
-8.05329e-08
7.03235e-08
-9.875e-08
7.85473e-08
-1.18429e-07
8.60394e-08
-1.39416e-07
9.27453e-08
-1.61554e-07
9.86365e-08
-1.84679e-07
1.03703e-07
-2.08631e-07
1.0795e-07
-2.33247e-07
1.11391e-07
-2.58368e-07
1.14045e-07
-2.83838e-07
1.15935e-07
-3.09503e-07
1.17086e-07
-3.35214e-07
1.17522e-07
-3.60826e-07
1.17266e-07
-3.86196e-07
1.16338e-07
-4.11184e-07
1.14759e-07
-4.35655e-07
1.12545e-07
-4.59477e-07
1.09711e-07
-4.82518e-07
1.0627e-07
-5.04653e-07
1.02235e-07
-5.25756e-07
9.76185e-08
-5.45707e-07
9.24318e-08
-5.64388e-07
8.66879e-08
-5.81684e-07
8.04016e-08
-5.97485e-07
7.35896e-08
-6.11688e-07
6.62717e-08
-6.24191e-07
5.84713e-08
-6.34902e-07
5.0216e-08
-6.43735e-07
4.15379e-08
-6.50613e-07
3.24743e-08
-6.55468e-07
2.30679e-08
-6.58241e-07
1.3367e-08
-6.58886e-07
3.42559e-09
-6.57369e-07
-6.69668e-09
-6.5367e-07
-1.69346e-08
-6.47783e-07
-2.72176e-08
-6.39717e-07
-3.74704e-08
-6.29498e-07
-4.76133e-08
-6.17167e-07
-5.7563e-08
-6.02784e-07
-6.72334e-08
-5.86427e-07
-7.65366e-08
-5.68191e-07
-8.53837e-08
-5.48187e-07
-9.3686e-08
-5.26546e-07
-1.01357e-07
-5.03414e-07
-1.08312e-07
-4.78954e-07
-1.14471e-07
-4.53344e-07
-1.19759e-07
-4.26775e-07
-1.2411e-07
-3.99449e-07
-1.27465e-07
-3.71579e-07
-1.29773e-07
-3.43387e-07
-1.30995e-07
-3.15099e-07
-1.31107e-07
-2.86944e-07
-1.30093e-07
-2.59151e-07
-1.27954e-07
-2.31948e-07
-1.24705e-07
-2.05555e-07
-1.20377e-07
-1.80183e-07
-1.15016e-07
-1.56032e-07
-1.08684e-07
-1.33285e-07
-1.0146e-07
-1.12107e-07
-9.3442e-08
-9.26395e-08
-8.47426e-08
-7.49981e-08
-7.5494e-08
-5.92701e-08
-6.58471e-08
-4.551e-08
-5.59726e-08
-3.37375e-08
-4.60627e-08
-2.3934e-08
-3.63335e-08
-1.6041e-08
-2.70274e-08
-9.95724e-09
-1.84166e-08
-5.5376e-09
-1.0808e-08
-2.59157e-09
-4.54887e-09
-8.82675e-10
-3.15243e-11
-1.28338e-10
2.29863e-09
1.90123e-09
-1.2321e-09
2.47778e-09
-4.89138e-09
1.04199e-08
-1.0947e-08
2.03485e-08
-1.93585e-08
3.15019e-08
-3.00671e-08
4.33048e-08
-4.29931e-08
5.52975e-08
-5.80358e-08
6.71191e-08
-7.5075e-08
7.84952e-08
-9.39743e-08
8.92227e-08
-1.14584e-07
9.91567e-08
-1.36743e-07
1.08199e-07
-1.60284e-07
1.16287e-07
-1.85037e-07
1.23389e-07
-2.10825e-07
1.29492e-07
-2.37477e-07
1.34601e-07
-2.64817e-07
1.38731e-07
-2.92675e-07
1.41903e-07
-3.20884e-07
1.44144e-07
-3.49278e-07
1.4548e-07
-3.77696e-07
1.4594e-07
-4.05981e-07
1.45551e-07
-4.33979e-07
1.44336e-07
-4.61538e-07
1.42319e-07
-4.88513e-07
1.3952e-07
-5.14759e-07
1.35956e-07
-5.40134e-07
1.31645e-07
-5.64501e-07
1.26602e-07
-5.87724e-07
1.20842e-07
-6.09673e-07
1.14381e-07
-6.30219e-07
1.07234e-07
-6.49239e-07
9.94218e-08
-6.66615e-07
9.09647e-08
-6.82231e-07
8.18883e-08
-6.95982e-07
7.22219e-08
-7.07766e-07
6.20002e-08
-7.17491e-07
5.12633e-08
-7.25075e-07
4.00574e-08
-7.30442e-07
2.84354e-08
-7.33532e-07
1.64566e-08
-7.34293e-07
4.18734e-09
-7.32691e-07
-8.29937e-09
-7.28702e-07
-2.09238e-08
-7.22319e-07
-3.36001e-08
-7.13553e-07
-4.62365e-08
-7.0243e-07
-5.8736e-08
-6.88996e-07
-7.09975e-08
-6.73313e-07
-8.29163e-08
-6.55464e-07
-9.43857e-08
-6.3555e-07
-1.05298e-07
-6.13691e-07
-1.15545e-07
-5.90025e-07
-1.25022e-07
-5.64711e-07
-1.33626e-07
-5.37922e-07
-1.4126e-07
-5.09848e-07
-1.47833e-07
-4.80694e-07
-1.53264e-07
-4.50679e-07
-1.5748e-07
-4.20031e-07
-1.6042e-07
-3.88989e-07
-1.62038e-07
-3.57797e-07
-1.62299e-07
-3.26702e-07
-1.61187e-07
-2.95954e-07
-1.58702e-07
-2.65798e-07
-1.54861e-07
-2.36474e-07
-1.49701e-07
-2.08212e-07
-1.43277e-07
-1.81231e-07
-1.35665e-07
-1.55732e-07
-1.2696e-07
-1.31895e-07
-1.17278e-07
-1.0988e-07
-1.06758e-07
-8.98156e-08
-9.55583e-08
-7.18034e-08
-8.38593e-08
-5.59104e-08
-7.18656e-08
-4.21676e-08
-5.98055e-08
-3.05676e-08
-4.79336e-08
-2.10622e-08
-3.65328e-08
-1.35612e-08
-2.59175e-08
-7.93178e-09
-1.64375e-08
-3.99792e-09
-8.48274e-09
-1.54191e-09
-2.48756e-09
-3.06534e-10
1.06325e-09
1.5947e-09
-1.49888e-09
3.97666e-09
-5.87301e-09
1.47941e-08
-1.30159e-08
2.74914e-08
-2.28224e-08
4.13084e-08
-3.51794e-08
5.56619e-08
-4.99625e-08
7.00805e-08
-6.70342e-08
8.41907e-08
-8.62442e-08
9.77053e-08
-1.07431e-07
1.1041e-07
-1.30425e-07
1.2215e-07
-1.55048e-07
1.32821e-07
-1.81117e-07
1.42356e-07
-2.08447e-07
1.50719e-07
-2.36852e-07
1.57897e-07
-2.66146e-07
1.63895e-07
-2.96145e-07
1.6873e-07
-3.26667e-07
1.72425e-07
-3.57533e-07
1.7501e-07
-3.88569e-07
1.76516e-07
-4.19604e-07
1.76975e-07
-4.50469e-07
1.76415e-07
-4.80999e-07
1.74867e-07
-5.11036e-07
1.72355e-07
-5.4042e-07
1.68904e-07
-5.68998e-07
1.64534e-07
-5.96619e-07
1.59266e-07
-6.23136e-07
1.53118e-07
-6.48403e-07
1.46109e-07
-6.72281e-07
1.38258e-07
-6.94632e-07
1.29586e-07
-7.15325e-07
1.20115e-07
-7.34233e-07
1.09872e-07
-7.51233e-07
9.88891e-08
-7.66213e-07
8.72013e-08
-7.79063e-07
7.48508e-08
-7.89687e-07
6.18865e-08
-7.97993e-07
4.83641e-08
-8.03905e-07
3.43469e-08
-8.07354e-07
1.99063e-08
-8.08288e-07
5.12136e-09
-8.06667e-07
-9.92068e-09
-8.02466e-07
-2.51249e-08
-7.95677e-07
-4.03892e-08
-7.86309e-07
-5.56043e-08
-7.7439e-07
-7.06554e-08
-7.59965e-07
-8.54221e-08
-7.43101e-07
-9.97805e-08
-7.23883e-07
-1.13604e-07
-7.02417e-07
-1.26764e-07
-6.7883e-07
-1.39133e-07
-6.53266e-07
-1.50585e-07
-6.25893e-07
-1.60999e-07
-5.96893e-07
-1.70259e-07
-5.66469e-07
-1.78258e-07
-5.34837e-07
-1.84896e-07
-5.0223e-07
-1.90087e-07
-4.68892e-07
-1.93758e-07
-4.35077e-07
-1.95853e-07
-4.01046e-07
-1.9633e-07
-3.67064e-07
-1.95169e-07
-3.33399e-07
-1.92367e-07
-3.00316e-07
-1.87945e-07
-2.68073e-07
-1.81944e-07
-2.3692e-07
-1.7443e-07
-2.07095e-07
-1.6549e-07
-1.78816e-07
-1.55238e-07
-1.52284e-07
-1.43811e-07
-1.27673e-07
-1.3137e-07
-1.0513e-07
-1.18101e-07
-8.47715e-08
-1.04218e-07
-6.66796e-08
-8.99575e-08
-5.0899e-08
-7.55861e-08
-3.74357e-08
-6.13969e-08
-2.6255e-08
-4.77135e-08
-1.72804e-08
-3.48921e-08
-1.03938e-08
-2.33241e-08
-5.43631e-09
-1.34403e-08
-2.21041e-09
-5.71347e-09
-4.84489e-10
-6.62671e-10
1.1102e-09
-1.75868e-09
5.73535e-09
-6.8358e-09
1.98712e-08
-1.50543e-08
3.57099e-08
-2.62467e-08
5.25007e-08
-4.0246e-08
6.96612e-08
-5.6882e-08
8.67165e-08
-7.59788e-08
1.03287e-07
-9.73543e-08
1.19081e-07
-1.20821e-07
1.33876e-07
-1.46185e-07
1.47515e-07
-1.73251e-07
1.59887e-07
-2.01821e-07
1.70925e-07
-2.31694e-07
1.80592e-07
-2.62673e-07
1.88876e-07
-2.9456e-07
1.95782e-07
-3.2716e-07
2.0133e-07
-3.60283e-07
2.05548e-07
-3.93739e-07
2.08467e-07
-4.27345e-07
2.10123e-07
-4.60921e-07
2.1055e-07
-4.94288e-07
2.09783e-07
-5.27274e-07
2.07853e-07
-5.59709e-07
2.04791e-07
-5.91428e-07
2.00622e-07
-6.22266e-07
1.95373e-07
-6.52066e-07
1.89065e-07
-6.80669e-07
1.81722e-07
-7.07925e-07
1.73365e-07
-7.33683e-07
1.64017e-07
-7.578e-07
1.53703e-07
-7.80136e-07
1.42451e-07
-8.00556e-07
1.30292e-07
-8.18932e-07
1.17265e-07
-8.35142e-07
1.03411e-07
-8.49072e-07
8.87812e-08
-8.60618e-07
7.34325e-08
-8.69685e-07
5.74308e-08
-8.76188e-07
4.08506e-08
-8.80057e-07
2.37754e-08
-8.81234e-07
6.29774e-09
-8.79674e-07
-1.14804e-08
-8.75351e-07
-2.94484e-08
-8.68253e-07
-4.7487e-08
-8.58388e-07
-6.54691e-08
-8.45783e-07
-8.32607e-08
-8.30483e-07
-1.00722e-07
-8.12555e-07
-1.17708e-07
-7.92088e-07
-1.34071e-07
-7.6919e-07
-1.49662e-07
-7.43991e-07
-1.64331e-07
-7.16643e-07
-1.77933e-07
-6.87319e-07
-1.90323e-07
-6.56211e-07
-2.01368e-07
-6.2353e-07
-2.10939e-07
-5.89505e-07
-2.18921e-07
-5.54381e-07
-2.25211e-07
-5.18415e-07
-2.29725e-07
-4.81876e-07
-2.32392e-07
-4.45043e-07
-2.33164e-07
-4.08198e-07
-2.32014e-07
-3.71627e-07
-2.28938e-07
-3.35614e-07
-2.23958e-07
-3.00436e-07
-2.17121e-07
-2.66365e-07
-2.08501e-07
-2.33657e-07
-1.98199e-07
-2.02551e-07
-1.86344e-07
-1.73266e-07
-1.73096e-07
-1.45996e-07
-1.58639e-07
-1.20907e-07
-1.4319e-07
-9.81316e-08
-1.26993e-07
-7.77697e-08
-1.10319e-07
-5.98823e-08
-9.34735e-08
-4.44911e-08
-7.6788e-08
-3.15771e-08
-6.06275e-08
-2.10799e-08
-4.53893e-08
-1.28979e-08
-3.15061e-08
-6.89035e-09
-1.94478e-08
-2.8804e-09
-9.72342e-09
-6.60322e-10
-2.88275e-09
4.49871e-10
-2.01128e-09
7.74662e-09
-7.77679e-09
2.56367e-08
-1.70538e-08
4.4987e-08
-2.96152e-08
6.50621e-08
-4.52411e-08
8.52872e-08
-6.37156e-08
1.05191e-07
-8.48235e-08
1.24395e-07
-1.0835e-07
1.42607e-07
-1.34079e-07
1.59605e-07
-1.61794e-07
1.7523e-07
-1.9128e-07
1.89373e-07
-2.22321e-07
2.01966e-07
-2.54703e-07
2.12975e-07
-2.88216e-07
2.22389e-07
-3.22651e-07
2.30217e-07
-3.57803e-07
2.36482e-07
-3.93472e-07
2.41216e-07
-4.2946e-07
2.44455e-07
-4.65575e-07
2.46237e-07
-5.01628e-07
2.46603e-07
-5.37434e-07
2.45589e-07
-5.72812e-07
2.43231e-07
-6.07585e-07
2.39564e-07
-6.41578e-07
2.34616e-07
-6.74622e-07
2.28417e-07
-7.0655e-07
2.20993e-07
-7.37197e-07
2.12369e-07
-7.66403e-07
2.02571e-07
-7.94014e-07
1.91627e-07
-8.19876e-07
1.79565e-07
-8.43843e-07
1.66418e-07
-8.65775e-07
1.52224e-07
-8.85535e-07
1.37025e-07
-9.02996e-07
1.20872e-07
-9.18038e-07
1.03823e-07
-9.3055e-07
8.59442e-08
-9.40431e-07
6.73116e-08
-9.47591e-07
4.80111e-08
-9.51954e-07
2.81387e-08
-9.53457e-07
7.80083e-09
-9.52052e-07
-1.28856e-08
-9.47707e-07
-3.37935e-08
-9.40408e-07
-5.47863e-08
-9.30159e-07
-7.57183e-08
-9.16984e-07
-9.64357e-08
-9.00928e-07
-1.16778e-07
-8.82056e-07
-1.36579e-07
-8.60458e-07
-1.5567e-07
-8.36243e-07
-1.73877e-07
-8.09544e-07
-1.9103e-07
-7.80517e-07
-2.06959e-07
-7.49341e-07
-2.215e-07
-7.16213e-07
-2.34495e-07
-6.81354e-07
-2.45798e-07
-6.45002e-07
-2.55272e-07
-6.07414e-07
-2.628e-07
-5.68861e-07
-2.68278e-07
-5.29626e-07
-2.71626e-07
-4.90004e-07
-2.72785e-07
-4.50296e-07
-2.71722e-07
-4.10804e-07
-2.6843e-07
-3.71834e-07
-2.62929e-07
-3.33683e-07
-2.55272e-07
-2.96643e-07
-2.45541e-07
-2.60991e-07
-2.3385e-07
-2.26989e-07
-2.20346e-07
-1.94877e-07
-2.05208e-07
-1.64869e-07
-1.88647e-07
-1.37152e-07
-1.70907e-07
-1.1188e-07
-1.52265e-07
-8.91695e-08
-1.3303e-07
-6.91016e-08
-1.13541e-07
-5.17161e-08
-9.41736e-08
-3.70115e-08
-7.53321e-08
-2.49449e-08
-5.74558e-08
-1.5433e-08
-4.1018e-08
-8.35337e-09
-2.65274e-08
-3.54898e-09
-1.45278e-08
-8.33519e-10
-5.59822e-09
-3.83644e-10
-2.25669e-09
1.00033e-08
-8.6946e-09
3.20746e-08
-1.90096e-08
5.53019e-08
-3.29175e-08
7.897e-08
-5.01475e-08
1.02517e-07
-7.04382e-08
1.25482e-07
-9.35353e-08
1.47493e-07
-1.1919e-07
1.68262e-07
-1.47158e-07
1.87573e-07
-1.77199e-07
2.05271e-07
-2.09076e-07
2.21251e-07
-2.42558e-07
2.35447e-07
-2.77414e-07
2.47831e-07
-3.13422e-07
2.58397e-07
-3.50363e-07
2.67157e-07
-3.88021e-07
2.74141e-07
-4.26187e-07
2.79382e-07
-4.64656e-07
2.82924e-07
-5.03227e-07
2.84809e-07
-5.41705e-07
2.85081e-07
-5.79898e-07
2.83781e-07
-6.17617e-07
2.80951e-07
-6.54679e-07
2.76625e-07
-6.90903e-07
2.7084e-07
-7.26112e-07
2.63626e-07
-7.60133e-07
2.55013e-07
-7.92795e-07
2.45031e-07
-8.23932e-07
2.33709e-07
-8.53382e-07
2.21077e-07
-8.80986e-07
2.0717e-07
-9.06592e-07
1.92024e-07
-9.30052e-07
1.75684e-07
-9.51224e-07
1.58197e-07
-9.69975e-07
1.39623e-07
-9.86177e-07
1.20025e-07
-9.99715e-07
9.94815e-08
-1.01048e-06
7.80768e-08
-1.01838e-06
5.59088e-08
-1.02332e-06
3.30861e-08
-1.02525e-06
9.7291e-09
-1.02411e-06
-1.403e-08
-1.01985e-06
-3.80477e-08
-1.01247e-06
-6.21694e-08
-1.00196e-06
-8.62304e-08
-9.88338e-07
-1.10057e-07
-9.7165e-07
-1.33467e-07
-9.51957e-07
-1.56272e-07
-9.29348e-07
-1.78279e-07
-9.03931e-07
-1.99294e-07
-8.75841e-07
-2.1912e-07
-8.45235e-07
-2.37565e-07
-8.12296e-07
-2.54439e-07
-7.77228e-07
-2.69563e-07
-7.40258e-07
-2.82768e-07
-7.01633e-07
-2.93897e-07
-6.6162e-07
-3.02812e-07
-6.20504e-07
-3.09394e-07
-5.78582e-07
-3.13548e-07
-5.36165e-07
-3.15202e-07
-4.93572e-07
-3.14316e-07
-4.51124e-07
-3.10877e-07
-4.09147e-07
-3.04906e-07
-3.67962e-07
-2.96457e-07
-3.27881e-07
-2.85622e-07
-2.89205e-07
-2.72526e-07
-2.5222e-07
-2.57332e-07
-2.17188e-07
-2.4024e-07
-1.84347e-07
-2.21487e-07
-1.53908e-07
-2.01347e-07
-1.26045e-07
-1.80128e-07
-1.00898e-07
-1.58176e-07
-7.85687e-08
-1.35871e-07
-5.91169e-08
-1.13625e-07
-4.25609e-08
-9.18882e-08
-2.88768e-08
-7.114e-08
-1.79997e-08
-5.18951e-08
-9.82589e-09
-3.47012e-08
-4.21678e-09
-2.01369e-08
-1.00449e-09
-8.81051e-09
-1.38813e-09
-2.4951e-09
1.24984e-08
-9.58871e-09
3.91681e-08
-2.09189e-08
6.66322e-08
-3.61473e-08
9.41985e-08
-5.49536e-08
1.21323e-07
-7.70321e-08
1.4756e-07
-1.0209e-07
1.7255e-07
-1.29844e-07
1.96016e-07
-1.60022e-07
2.17751e-07
-1.92357e-07
2.37607e-07
-2.26594e-07
2.55487e-07
-2.62481e-07
2.71335e-07
-2.99775e-07
2.85126e-07
-3.3824e-07
2.96862e-07
-3.77645e-07
3.06563e-07
-4.17767e-07
3.14262e-07
-4.58386e-07
3.20002e-07
-4.99291e-07
3.23829e-07
-5.40273e-07
3.25791e-07
-5.81131e-07
3.25939e-07
-6.21667e-07
3.24317e-07
-6.61686e-07
3.2097e-07
-7.01e-07
3.15939e-07
-7.39421e-07
3.09261e-07
-7.76768e-07
3.00972e-07
-8.1286e-07
2.91106e-07
-8.47524e-07
2.79694e-07
-8.80585e-07
2.6677e-07
-9.11878e-07
2.52369e-07
-9.41237e-07
2.36529e-07
-9.68503e-07
2.19291e-07
-9.93524e-07
2.00705e-07
-1.01615e-06
1.80825e-07
-1.03625e-06
1.59717e-07
-1.05367e-06
1.37454e-07
-1.06831e-06
1.1412e-07
-1.08005e-06
8.98124e-08
-1.08878e-06
6.46393e-08
-1.09442e-06
3.8722e-08
-1.09688e-06
1.21949e-08
-1.09612e-06
-1.47946e-08
-1.09208e-06
-4.20863e-08
-1.08474e-06
-6.95075e-08
-1.0741e-06
-9.68742e-08
-1.06016e-06
-1.23992e-07
-1.04297e-06
-1.50656e-07
-1.02259e-06
-1.76657e-07
-9.99089e-07
-2.01777e-07
-9.72587e-07
-2.25795e-07
-9.43214e-07
-2.48493e-07
-9.11129e-07
-2.6965e-07
-8.76514e-07
-2.89053e-07
-8.3958e-07
-3.06498e-07
-8.00557e-07
-3.2179e-07
-7.59703e-07
-3.34751e-07
-7.17293e-07
-3.45222e-07
-6.73625e-07
-3.53063e-07
-6.2901e-07
-3.58163e-07
-5.83776e-07
-3.60437e-07
-5.38258e-07
-3.59834e-07
-4.92801e-07
-3.56334e-07
-4.4775e-07
-3.49957e-07
-4.03449e-07
-3.40758e-07
-3.60236e-07
-3.28835e-07
-3.18436e-07
-3.14325e-07
-2.78361e-07
-2.97407e-07
-2.40299e-07
-2.78302e-07
-2.04515e-07
-2.57272e-07
-1.71242e-07
-2.34619e-07
-1.40682e-07
-2.10688e-07
-1.12999e-07
-1.85859e-07
-8.83175e-08
-1.60552e-07
-6.67193e-08
-1.35224e-07
-4.82443e-08
-1.10363e-07
-3.28888e-08
-8.64954e-08
-2.06072e-08
-6.41767e-08
-1.13138e-08
-4.39946e-08
-4.88699e-09
-2.65638e-08
-1.17433e-09
-1.25232e-08
-2.56246e-09
-2.7267e-09
1.52252e-08
-1.04589e-08
4.69004e-08
-2.27801e-08
7.89534e-08
-3.93002e-08
1.10719e-07
-5.96512e-08
1.41674e-07
-8.34844e-08
1.71393e-07
-1.10469e-07
1.99534e-07
-1.40288e-07
2.25835e-07
-1.7264e-07
2.50103e-07
-2.07234e-07
2.72202e-07
-2.43794e-07
2.92046e-07
-2.82049e-07
3.0959e-07
-3.21742e-07
3.24819e-07
-3.62624e-07
3.37743e-07
-4.04453e-07
3.48392e-07
-4.46997e-07
3.56805e-07
-4.90028e-07
3.63033e-07
-5.33327e-07
3.67128e-07
-5.7668e-07
3.69145e-07
-6.1988e-07
3.69139e-07
-6.62723e-07
3.6716e-07
-7.0501e-07
3.63257e-07
-7.46547e-07
3.57476e-07
-7.87142e-07
3.49857e-07
-8.26609e-07
3.4044e-07
-8.64764e-07
3.29261e-07
-9.01426e-07
3.16356e-07
-9.36419e-07
3.01763e-07
-9.6957e-07
2.8552e-07
-1.00071e-06
2.67668e-07
-1.02967e-06
2.48255e-07
-1.0563e-06
2.27334e-07
-1.08044e-06
2.04966e-07
-1.10195e-06
1.81224e-07
-1.12068e-06
1.56187e-07
-1.13651e-06
1.2995e-07
-1.14932e-06
1.02619e-07
-1.15899e-06
7.43124e-08
-1.16544e-06
4.51649e-08
-1.16856e-06
1.53242e-08
-1.16831e-06
-1.50471e-08