/*--------------------------------*- C++ -*----------------------------------*\
| =========                 |                                                 |
| \\      /  F ield         | OpenFOAM: The Open Source CFD Toolbox           |
|  \\    /   O peration     | Version:  2506                                  |
|   \\  /    A nd           | Website:  www.openfoam.com                      |
|    \\/     M anipulation  |                                                 |
\*---------------------------------------------------------------------------*/
FoamFile
{
    version     2.0;
    format      ascii;
    arch        "LSB;label=32;scalar=64";
    class       volVectorField;
    location    "1.075";
    object      U;
}
// * * * * * * * * * * * * * * * * * * * * * * * * * * * * * * * * * * * * * //

dimensions      [0 1 -1 0 0 0 0];

internalField   nonuniform List<vector> 
6400
(
(7.72988e-06 -7.7069e-06 0)
(3.00091e-05 -1.40124e-05 0)
(5.66e-05 -1.27268e-05 0)
(7.28563e-05 -7.6567e-06 0)
(7.13572e-05 -1.03441e-06 0)
(4.96653e-05 5.973e-06 0)
(7.36019e-06 1.27931e-05 0)
(-5.48754e-05 1.91329e-05 0)
(-0.000135744 2.48702e-05 0)
(-0.0002336 2.99714e-05 0)
(-0.000346674 3.44327e-05 0)
(-0.000473163 3.82785e-05 0)
(-0.000611277 4.15468e-05 0)
(-0.000759316 4.42785e-05 0)
(-0.000915661 4.65143e-05 0)
(-0.00107879 4.8299e-05 0)
(-0.00124727 4.96733e-05 0)
(-0.0014198 5.06685e-05 0)
(-0.00159512 5.13145e-05 0)
(-0.00177209 5.16383e-05 0)
(-0.00194961 5.16608e-05 0)
(-0.00212665 5.1397e-05 0)
(-0.00230222 5.08599e-05 0)
(-0.00247538 5.0061e-05 0)
(-0.00264521 4.90061e-05 0)
(-0.00281079 4.76974e-05 0)
(-0.00297124 4.61368e-05 0)
(-0.00312568 4.43241e-05 0)
(-0.00327322 4.22601e-05 0)
(-0.003413 3.99424e-05 0)
(-0.00354415 3.73676e-05 0)
(-0.00366579 3.45376e-05 0)
(-0.00377708 3.14547e-05 0)
(-0.00387717 2.81205e-05 0)
(-0.00396526 2.45415e-05 0)
(-0.00404057 2.07267e-05 0)
(-0.00410234 1.66868e-05 0)
(-0.0041499 1.24386e-05 0)
(-0.00418261 8.00231e-06 0)
(-0.00419994 3.39908e-06 0)
(-0.0042014 -1.34418e-06 0)
(-0.00418666 -6.19447e-06 0)
(-0.00415544 -1.11163e-05 0)
(-0.00410764 -1.60709e-05 0)
(-0.00404326 -2.1015e-05 0)
(-0.00396245 -2.59026e-05 0)
(-0.00386553 -3.06856e-05 0)
(-0.00375297 -3.53132e-05 0)
(-0.00362539 -3.97328e-05 0)
(-0.00348361 -4.38926e-05 0)
(-0.00332858 -4.77407e-05 0)
(-0.00316144 -5.12248e-05 0)
(-0.00298349 -5.42944e-05 0)
(-0.00279615 -5.69034e-05 0)
(-0.00260103 -5.90108e-05 0)
(-0.00239981 -6.05796e-05 0)
(-0.00219431 -6.1577e-05 0)
(-0.00198643 -6.19771e-05 0)
(-0.00177814 -6.17623e-05 0)
(-0.00157144 -6.09221e-05 0)
(-0.00136838 -5.94526e-05 0)
(-0.00117097 -5.7358e-05 0)
(-0.000981201 -5.46524e-05 0)
(-0.000800996 -5.13585e-05 0)
(-0.000632193 -4.75063e-05 0)
(-0.000476512 -4.31329e-05 0)
(-0.000335526 -3.82842e-05 0)
(-0.000210635 -3.30153e-05 0)
(-0.000103036 -2.73896e-05 0)
(-1.36867e-05 -2.14799e-05 0)
(5.67316e-05 -1.53707e-05 0)
(0.000107864 -9.16451e-06 0)
(0.000139751 -2.99371e-06 0)
(0.000152932 2.96178e-06 0)
(0.000148612 8.43802e-06 0)
(0.000128907 1.30276e-05 0)
(9.71918e-05 1.60806e-05 0)
(5.87826e-05 1.65155e-05 0)
(2.30097e-05 1.26485e-05 0)
(3.64872e-06 3.65966e-06 0)
(1.43671e-05 -3.01262e-05 0)
(4.83811e-05 -4.78663e-05 0)
(7.82701e-05 -3.61098e-05 0)
(7.93217e-05 -8.10729e-06 0)
(3.747e-05 2.78899e-05 0)
(-5.34383e-05 6.69112e-05 0)
(-0.000195451 0.000105956 0)
(-0.00038796 0.000143284 0)
(-0.000628557 0.000177931 0)
(-0.000913787 0.000209389 0)
(-0.00123957 0.000237442 0)
(-0.00160155 0.000262054 0)
(-0.00199528 0.000283294 0)
(-0.00241635 0.00030129 0)
(-0.0028605 0.000316216 0)
(-0.00332363 0.000328252 0)
(-0.00380185 0.000337581 0)
(-0.00429149 0.000344376 0)
(-0.00478905 0.000348799 0)
(-0.00529125 0.000350991 0)
(-0.00579496 0.000351071 0)
(-0.00629718 0.000349141 0)
(-0.00679506 0.000345282 0)
(-0.00728583 0.000339557 0)
(-0.00776681 0.000332013 0)
(-0.00823536 0.000322681 0)
(-0.00868891 0.000311584 0)
(-0.00912491 0.000298738 0)
(-0.00954085 0.000284153 0)
(-0.00993423 0.00026784 0)
(-0.0103026 0.000249812 0)
(-0.0106436 0.000230087 0)
(-0.0109547 0.000208697 0)
(-0.0112337 0.000185682 0)
(-0.0114784 0.000161098 0)
(-0.0116867 0.000135019 0)
(-0.0118565 0.000107543 0)
(-0.011986 7.87844e-05 0)
(-0.0120736 4.88808e-05 0)
(-0.0121178 1.79938e-05 0)
(-0.0121176 -1.36893e-05 0)
(-0.0120719 -4.59572e-05 0)
(-0.0119802 -7.85767e-05 0)
(-0.0118423 -0.000111293 0)
(-0.0116584 -0.000143828 0)
(-0.0114289 -0.000175889 0)
(-0.0111548 -0.000207171 0)
(-0.0108376 -0.000237354 0)
(-0.0104789 -0.000266113 0)
(-0.0100811 -0.000293124 0)
(-0.00964689 -0.000318063 0)
(-0.00917942 -0.000340612 0)
(-0.00868225 -0.00036047 0)
(-0.00815934 -0.000377354 0)
(-0.007615 -0.000391009 0)
(-0.00705388 -0.000401211 0)
(-0.00648092 -0.000407769 0)
(-0.00590126 -0.00041053 0)
(-0.00532023 -0.000409388 0)
(-0.00474327 -0.000404285 0)
(-0.00417584 -0.000395209 0)
(-0.0036234 -0.000382203 0)
(-0.00309128 -0.000365364 0)
(-0.00258465 -0.000344841 0)
(-0.00210843 -0.000320841 0)
(-0.00166718 -0.000293623 0)
(-0.00126507 -0.000263506 0)
(-0.000905771 -0.000230866 0)
(-0.000592356 -0.000196146 0)
(-0.000327224 -0.000159859 0)
(-0.000111967 -0.000122608 0)
(5.27631e-05 -8.5117e-05 0)
(0.000167442 -4.82785e-05 0)
(0.000233911 -1.32309e-05 0)
(0.000255723 1.85137e-05 0)
(0.000238597 4.48793e-05 0)
(0.000190876 6.29668e-05 0)
(0.000124226 6.86827e-05 0)
(5.64813e-05 5.65907e-05 0)
(1.25481e-05 2.29318e-05 0)
(1.34034e-05 -5.74592e-05 0)
(3.75245e-05 -7.81558e-05 0)
(4.05482e-05 -3.89356e-05 0)
(-4.39314e-06 3.52463e-05 0)
(-0.000113363 0.00012845 0)
(-0.000294319 0.000229946 0)
(-0.000550327 0.000332635 0)
(-0.000880898 0.000432014 0)
(-0.00128311 0.000525303 0)
(-0.00175236 0.000610881 0)
(-0.00228303 0.000687902 0)
(-0.00286894 0.000756017 0)
(-0.00350361 0.000815211 0)
(-0.00418052 0.000865689 0)
(-0.00489327 0.000907769 0)
(-0.0056356 0.000941847 0)
(-0.00640151 0.000968341 0)
(-0.00718525 0.000987666 0)
(-0.00798134 0.00100022 0)
(-0.00878455 0.00100635 0)
(-0.00958986 0.00100637 0)
(-0.0103925 0.00100056 0)
(-0.0111878 0.000989123 0)
(-0.0119714 0.000972248 0)
(-0.0127388 0.000950071 0)
(-0.0134859 0.000922695 0)
(-0.0142085 0.000890198 0)
(-0.0149025 0.000852646 0)
(-0.0155638 0.000810093 0)
(-0.0161885 0.000762591 0)
(-0.0167726 0.000710206 0)
(-0.0173125 0.000653024 0)
(-0.0178043 0.00059115 0)
(-0.0182444 0.000524728 0)
(-0.0186293 0.000453945 0)
(-0.0189559 0.000379035 0)
(-0.019221 0.000300286 0)
(-0.0194219 0.000218044 0)
(-0.0195561 0.000132715 0)
(-0.0196215 4.47686e-05 0)
(-0.0196163 -4.52607e-05 0)
(-0.0195392 -0.000136773 0)
(-0.0193896 -0.000229111 0)
(-0.0191672 -0.000321558 0)
(-0.0188722 -0.000413346 0)
(-0.0185057 -0.000503662 0)
(-0.0180693 -0.000591657 0)
(-0.0175651 -0.000676455 0)
(-0.0169961 -0.000757167 0)
(-0.016366 -0.000832899 0)
(-0.0156789 -0.00090277 0)
(-0.0149398 -0.000965919 0)
(-0.0141542 -0.00102153 0)
(-0.0133284 -0.00106884 0)
(-0.012469 -0.00110715 0)
(-0.0115832 -0.00113586 0)
(-0.0106787 -0.00115445 0)
(-0.00976332 -0.00116253 0)
(-0.00884534 -0.00115981 0)
(-0.0079331 -0.00114613 0)
(-0.00703503 -0.0011215 0)
(-0.00615947 -0.00108603 0)
(-0.00531462 -0.00104001 0)
(-0.00450839 -0.000983866 0)
(-0.00374828 -0.000918192 0)
(-0.00304127 -0.000843733 0)
(-0.00239367 -0.000761399 0)
(-0.00181103 -0.000672273 0)
(-0.00129794 -0.000577625 0)
(-0.000857925 -0.000478935 0)
(-0.000493257 -0.00037794 0)
(-0.000204733 -0.000276696 0)
(8.559e-06 -0.000177687 0)
(0.000149548 -8.39735e-05 0)
(0.000223576 5.77719e-07 0)
(0.000238868 7.09969e-05 0)
(0.000206892 0.000120859 0)
(0.000142834 0.00014195 0)
(6.88627e-05 0.000124342 0)
(1.63943e-05 5.85199e-05 0)
(8.38424e-06 -7.4766e-05 0)
(9.61076e-06 -7.99711e-05 0)
(-3.39261e-05 5.85919e-06 0)
(-0.00014587 0.000146453 0)
(-0.000341416 0.00031812 0)
(-0.00062878 0.00050409 0)
(-0.00101108 0.000692731 0)
(-0.00148766 0.000876209 0)
(-0.00205501 0.00104945 0)
(-0.00270769 0.00120929 0)
(-0.00343892 0.00135392 0)
(-0.00424111 0.00148246 0)
(-0.00510624 0.00159466 0)
(-0.00602611 0.00169068 0)
(-0.00699254 0.00177098 0)
(-0.00799748 0.00183615 0)
(-0.00903314 0.00188686 0)
(-0.010092 0.00192382 0)
(-0.0111667 0.00194769 0)
(-0.0122505 0.0019591 0)
(-0.0133364 0.0019586 0)
(-0.0144182 0.00194669 0)
(-0.0154896 0.00192376 0)
(-0.0165445 0.00189016 0)
(-0.0175771 0.00184615 0)
(-0.0185815 0.00179194 0)
(-0.0195523 0.00172773 0)
(-0.0204838 0.00165364 0)
(-0.0213707 0.00156982 0)
(-0.0222076 0.0014764 0)
(-0.0229892 0.00137354 0)
(-0.0237106 0.00126143 0)
(-0.0243668 0.00114034 0)
(-0.024953 0.00101055 0)
(-0.0254647 0.000872474 0)
(-0.0258977 0.000726585 0)
(-0.0262479 0.000573465 0)
(-0.0265118 0.000413803 0)
(-0.0266863 0.0002484 0)
(-0.0267686 7.8177e-05 0)
(-0.0267566 -9.58299e-05 0)
(-0.0266487 -0.000272467 0)
(-0.0264442 -0.00045047 0)
(-0.0261427 -0.000628472 0)
(-0.0257449 -0.000805011 0)
(-0.0252521 -0.000978545 0)
(-0.0246665 -0.00114747 0)
(-0.0239912 -0.00131013 0)
(-0.02323 -0.00146485 0)
(-0.0223879 -0.00160995 0)
(-0.0214704 -0.00174379 0)
(-0.0204841 -0.00186474 0)
(-0.0194363 -0.00197129 0)
(-0.018335 -0.00206202 0)
(-0.0171891 -0.00213562 0)
(-0.0160079 -0.00219097 0)
(-0.0148014 -0.00222711 0)
(-0.0135799 -0.00224332 0)
(-0.0123542 -0.00223906 0)
(-0.011135 -0.00221406 0)
(-0.00993345 -0.00216833 0)
(-0.00876029 -0.00210213 0)
(-0.00762617 -0.002016 0)
(-0.00654136 -0.00191078 0)
(-0.00551558 -0.0017876 0)
(-0.00455785 -0.00164793 0)
(-0.00367633 -0.0014935 0)
(-0.00287813 -0.00132641 0)
(-0.00216915 -0.00114912 0)
(-0.00155386 -0.000964479 0)
(-0.00103512 -0.000775802 0)
(-0.000613879 -0.000586987 0)
(-0.00028897 -0.000402655 0)
(-5.67403e-05 -0.000228358 0)
(8.92986e-05 -7.08748e-05 0)
(0.000158898 6.143e-05 0)
(0.000165333 0.0001582 0)
(0.000125777 0.000206774 0)
(6.46134e-05 0.000192153 0)
(1.61587e-05 9.70889e-05 0)
(1.69138e-06 -7.42363e-05 0)
(-2.72285e-05 -3.82457e-05 0)
(-0.000130027 0.000115938 0)
(-0.000323441 0.000342786 0)
(-0.000619676 0.000611707 0)
(-0.00102593 0.000900387 0)
(-0.00154458 0.00119274 0)
(-0.00217421 0.00147758 0)
(-0.00291059 0.00174734 0)
(-0.0037474 0.00199713 0)
(-0.00467687 0.00222396 0)
(-0.00569025 0.00242622 0)
(-0.00677825 0.0026033 0)
(-0.00793126 0.00275525 0)
(-0.00913967 0.00288255 0)
(-0.0103939 0.00298598 0)
(-0.0116847 0.00306645 0)
(-0.0130028 0.00312494 0)
(-0.0143396 0.00316242 0)
(-0.0156865 0.00317979 0)
(-0.0170353 0.00317788 0)
(-0.0183781 0.00315744 0)
(-0.0197071 0.00311908 0)
(-0.0210148 0.00306334 0)
(-0.0222941 0.00299065 0)
(-0.0235377 0.00290137 0)
(-0.0247387 0.0027958 0)
(-0.0258903 0.00267422 0)
(-0.0269857 0.00253687 0)
(-0.0280184 0.00238402 0)
(-0.0289821 0.00221598 0)
(-0.0298704 0.00203309 0)
(-0.0306775 0.00183581 0)
(-0.0313974 0.00162468 0)
(-0.0320248 0.00140038 0)
(-0.0325545 0.00116371 0)
(-0.0329818 0.000915646 0)
(-0.0333024 0.000657326 0)
(-0.0335126 0.000390059 0)
(-0.0336091 0.000115338 0)
(-0.0335897 -0.00016516 0)
(-0.0334524 -0.000449586 0)
(-0.0331964 -0.000735918 0)
(-0.0328216 -0.00102198 0)
(-0.0323287 -0.00130544 0)
(-0.0317196 -0.00158386 0)
(-0.0309969 -0.0018547 0)
(-0.0301646 -0.00211537 0)
(-0.0292273 -0.00236321 0)
(-0.0281911 -0.00259559 0)
(-0.0270627 -0.00280992 0)
(-0.0258501 -0.00300367 0)
(-0.0245621 -0.00317446 0)
(-0.0232085 -0.00332005 0)
(-0.0217999 -0.00343844 0)
(-0.0203476 -0.00352785 0)
(-0.0188635 -0.0035868 0)
(-0.0173602 -0.00361413 0)
(-0.0158504 -0.00360906 0)
(-0.0143473 -0.00357118 0)
(-0.0128639 -0.00350048 0)
(-0.0114134 -0.00339741 0)
(-0.0100084 -0.00326285 0)
(-0.00866133 -0.00309815 0)
(-0.00738376 -0.00290515 0)
(-0.00618652 -0.00268614 0)
(-0.00507938 -0.00244395 0)
(-0.00407086 -0.00218193 0)
(-0.00316799 -0.00190398 0)
(-0.00237615 -0.00161466 0)
(-0.00169875 -0.0013192 0)
(-0.00113703 -0.0010237 0)
(-0.000689782 -0.00073527 0)
(-0.00035301 -0.000462281 0)
(-0.000119638 -0.000214701 0)
(2.0856e-05 -4.47405e-06 0)
(8.26491e-05 0.000154017 0)
(8.39073e-05 0.000243601 0)
(4.95874e-05 0.000243979 0)
(1.36187e-05 0.00013007 0)
(-5.57037e-06 -5.28435e-05 0)
(-6.83297e-05 5.48284e-05 0)
(-0.000238036 0.000301818 0)
(-0.000522376 0.000635827 0)
(-0.000929048 0.00102065 0)
(-0.00146332 0.0014291 0)
(-0.00212603 0.00184112 0)
(-0.00291451 0.00224235 0)
(-0.00382347 0.00262279 0)
(-0.00484561 0.00297572 0)
(-0.00597213 0.00329693 0)
(-0.00719325 0.00358399 0)
(-0.00849854 0.00383581 0)
(-0.00987723 0.00405225 0)
(-0.0113184 0.00423377 0)
(-0.0128113 0.00438127 0)
(-0.0143452 0.0044959 0)
(-0.0159097 0.00457887 0)
(-0.0174946 0.00463146 0)
(-0.0190901 0.00465488 0)
(-0.0206866 0.00465023 0)
(-0.0222748 0.00461852 0)
(-0.0238457 0.00456062 0)
(-0.0253906 0.00447727 0)
(-0.0269008 0.0043691 0)
(-0.0283679 0.00423665 0)
(-0.0297839 0.00408038 0)
(-0.0311406 0.00390072 0)
(-0.0324303 0.00369808 0)
(-0.0336452 0.00347289 0)
(-0.0347779 0.00322564 0)
(-0.0358211 0.00295692 0)
(-0.0367679 0.00266742 0)
(-0.0376117 0.00235799 0)
(-0.038346 0.00202967 0)
(-0.038965 0.00168366 0)
(-0.0394633 0.00132143 0)
(-0.0398361 0.00094464 0)
(-0.0400791 0.000555233 0)
(-0.0401887 0.000155384 0)
(-0.0401623 -0.000252475 0)
(-0.0399979 -0.000665664 0)
(-0.0396946 -0.00108127 0)
(-0.0392522 -0.00149616 0)
(-0.038672 -0.00190701 0)
(-0.0379559 -0.00231031 0)
(-0.0371073 -0.00270246 0)
(-0.0361306 -0.00307973 0)
(-0.0350315 -0.00343838 0)
(-0.0338168 -0.00377464 0)
(-0.0324943 -0.00408484 0)
(-0.0310733 -0.00436541 0)
(-0.0295639 -0.00461296 0)
(-0.0279774 -0.00482432 0)
(-0.0263259 -0.00499665 0)
(-0.0246225 -0.00512745 0)
(-0.0228808 -0.00521462 0)
(-0.0211152 -0.00525653 0)
(-0.0193405 -0.00525207 0)
(-0.0175715 -0.00520068 0)
(-0.0158233 -0.00510237 0)
(-0.0141111 -0.00495778 0)
(-0.0124493 -0.0047682 0)
(-0.010852 -0.00453557 0)
(-0.0093328 -0.00426253 0)
(-0.00790397 -0.0039524 0)
(-0.00657675 -0.00360925 0)
(-0.00536097 -0.00323788 0)
(-0.00426475 -0.00284389 0)
(-0.00329434 -0.00243376 0)
(-0.0024538 -0.00201493 0)
(-0.0017448 -0.00159594 0)
(-0.00116632 -0.00118664 0)
(-0.000714397 -0.000798438 0)
(-0.000381819 -0.000444623 0)
(-0.000157877 -0.000140797 0)
(-2.81592e-05 9.46517e-05 0)
(2.57325e-05 0.00024012 0)
(2.80331e-05 0.000270229 0)
(9.8927e-06 0.000153065 0)
(-1.28794e-05 -9.45648e-06 0)
(-0.000111129 0.000203392 0)
(-0.000351921 0.000569822 0)
(-0.00073288 0.0010331 0)
(-0.00125635 0.00155266 0)
(-0.00192489 0.00209742 0)
(-0.00273722 0.00264393 0)
(-0.00368893 0.00317501 0)
(-0.00477334 0.00367842 0)
(-0.00598195 0.00414575 0)
(-0.00730488 0.00457154 0)
(-0.00873129 0.00495254 0)
(-0.0102497 0.00528716 0)
(-0.0118482 0.005575 0)
(-0.0135149 0.00581648 0)
(-0.0152378 0.00601259 0)
(-0.0170051 0.00616465 0)
(-0.0188052 0.00627414 0)
(-0.0206266 0.00634261 0)
(-0.0224585 0.00637155 0)
(-0.02429 0.00636238 0)
(-0.0261106 0.00631637 0)
(-0.0279102 0.00623464 0)
(-0.0296787 0.00611818 0)
(-0.0314066 0.00596782 0)
(-0.0330842 0.00578432 0)
(-0.0347022 0.00556832 0)
(-0.0362517 0.00532043 0)
(-0.0377236 0.00504127 0)
(-0.0391094 0.00473148 0)
(-0.0404006 0.00439179 0)
(-0.041589 0.00402305 0)
(-0.0426668 0.00362627 0)
(-0.0436266 0.00320266 0)
(-0.0444613 0.00275368 0)
(-0.0451642 0.00228103 0)
(-0.0457295 0.00178673 0)
(-0.0461517 0.00127308 0)
(-0.0464262 0.000742721 0)
(-0.046549 0.000198627 0)
(-0.0465173 -0.000355907 0)
(-0.0463289 -0.000917264 0)
(-0.0459828 -0.00148152 0)
(-0.0454791 -0.00204446 0)
(-0.0448191 -0.00260162 0)
(-0.0440052 -0.00314834 0)
(-0.043041 -0.00367977 0)
(-0.0419316 -0.00419096 0)
(-0.0406834 -0.0046769 0)
(-0.0393039 -0.00513261 0)
(-0.037802 -0.00555317 0)
(-0.0361879 -0.00593384 0)
(-0.034473 -0.00627012 0)
(-0.0326697 -0.00655781 0)
(-0.0307917 -0.00679311 0)
(-0.0288535 -0.00697271 0)
(-0.0268702 -0.00709382 0)
(-0.0248579 -0.00715428 0)
(-0.022833 -0.00715261 0)
(-0.0208122 -0.00708806 0)
(-0.0188122 -0.00696068 0)
(-0.0168498 -0.00677131 0)
(-0.0149413 -0.00652168 0)
(-0.0131026 -0.00621442 0)
(-0.0113486 -0.00585304 0)
(-0.00969324 -0.00544203 0)
(-0.00814909 -0.0049868 0)
(-0.00672723 -0.0044938 0)
(-0.00543689 -0.0039705 0)
(-0.00428524 -0.00342551 0)
(-0.0032771 -0.00286865 0)
(-0.00241474 -0.0023111 0)
(-0.00169757 -0.00176561 0)
(-0.00112196 -0.00124673 0)
(-0.000680963 -0.000771158 0)
(-0.000364137 -0.00035813 0)
(-0.00015736 -2.99317e-05 0)
(-4.25832e-05 0.000187643 0)
(2.77997e-06 0.000264632 0)
(5.62392e-06 0.000163639 0)
(-2.00322e-05 5.61948e-05 0)
(-0.000154226 0.000409352 0)
(-0.000467997 0.000923459 0)
(-0.000948646 0.00153908 0)
(-0.00159265 0.00221264 0)
(-0.0023994 0.00291008 0)
(-0.00336501 0.00360521 0)
(-0.00448293 0.00427853 0)
(-0.00574479 0.00491588 0)
(-0.00714068 0.00550735 0)
(-0.00865949 0.00604636 0)
(-0.0102893 0.00652888 0)
(-0.0120175 0.00695284 0)
(-0.0138312 0.00731757 0)
(-0.0157176 0.00762344 0)
(-0.0176635 0.00787152 0)
(-0.0196561 0.00806328 0)
(-0.0216828 0.00820045 0)
(-0.0237312 0.00828485 0)
(-0.0257893 0.00831826 0)
(-0.0278451 0.00830238 0)
(-0.0298871 0.00823876 0)
(-0.0319042 0.00812879 0)
(-0.0338853 0.0079737 0)
(-0.0358196 0.00777458 0)
(-0.0376967 0.00753237 0)
(-0.0395063 0.00724796 0)
(-0.0412382 0.00692218 0)
(-0.0428828 0.00655586 0)
(-0.0444303 0.00614989 0)
(-0.0458716 0.0057053 0)
(-0.0471977 0.00522323 0)
(-0.0483999 0.00470508 0)
(-0.04947 0.00415247 0)
(-0.0504004 0.00356734 0)
(-0.0511838 0.00295196 0)
(-0.0518137 0.00230896 0)
(-0.0522842 0.00164137 0)
(-0.0525904 0.000952625 0)
(-0.0527279 0.000246564 0)
(-0.0526936 -0.000472558 0)
(-0.0524852 -0.00120008 0)
(-0.0521017 -0.00193097 0)
(-0.0515432 -0.00265983 0)
(-0.0508111 -0.00338096 0)
(-0.0499081 -0.00408839 0)
(-0.0488382 -0.00477595 0)
(-0.0476069 -0.00543732 0)
(-0.0462211 -0.00606615 0)
(-0.0446891 -0.00665607 0)
(-0.0430205 -0.00720085 0)
(-0.0412265 -0.00769445 0)
(-0.0393195 -0.00813114 0)
(-0.037313 -0.00850558 0)
(-0.0352219 -0.00881295 0)
(-0.0330619 -0.00904901 0)
(-0.0308498 -0.00921023 0)
(-0.0286029 -0.00929383 0)
(-0.0263391 -0.00929794 0)
(-0.0240768 -0.00922158 0)
(-0.0218344 -0.0090648 0)
(-0.0196301 -0.00882869 0)
(-0.0174819 -0.00851543 0)
(-0.0154072 -0.00812836 0)
(-0.0134224 -0.00767198 0)
(-0.0115431 -0.00715198 0)
(-0.00978301 -0.0065753 0)
(-0.0081546 -0.0059501 0)
(-0.0066682 -0.0052859 0)
(-0.005332 -0.00459356 0)
(-0.00415171 -0.00388542 0)
(-0.00313038 -0.00317545 0)
(-0.00226809 -0.00247939 0)
(-0.00156181 -0.001815 0)
(-0.00100518 -0.00120238 0)
(-0.000588391 -0.000664355 0)
(-0.000298012 -0.00022692 0)
(-0.000116783 8.02757e-05 0)
(-2.43511e-05 0.00022329 0)
(1.1788e-06 0.000160528 0)
(-2.69513e-05 0.0001439 0)
(-0.000196875 0.000673251 0)
(-0.000584087 0.00136422 0)
(-0.00116565 0.0021561 0)
(-0.00193199 0.00300338 0)
(-0.00287906 0.00386991 0)
(-0.00400001 0.0047275 0)
(-0.00528587 0.00555484 0)
(-0.00672628 0.00633623 0)
(-0.00830974 0.00706053 0)
(-0.0100238 0.00772021 0)
(-0.0118552 0.00831061 0)
(-0.0137904 0.00882921 0)
(-0.0158155 0.00927517 0)
(-0.0179166 0.00964879 0)
(-0.0200797 0.0099512 0)
(-0.022291 0.0101841 0)
(-0.024537 0.0103493 0)
(-0.0268044 0.0104491 0)
(-0.0290801 0.0104854 0)
(-0.0313513 0.0104603 0)
(-0.0336056 0.0103756 0)
(-0.0358309 0.0102328 0)
(-0.0380152 0.0100336 0)
(-0.0401469 0.00977931 0)
(-0.0422145 0.00947103 0)
(-0.0442069 0.0091099 0)
(-0.0461132 0.00869701 0)
(-0.0479227 0.00823346 0)
(-0.049625 0.00772042 0)
(-0.0512101 0.00715921 0)
(-0.0526682 0.00655137 0)
(-0.0539901 0.00589867 0)
(-0.0551668 0.00520323 0)
(-0.0561901 0.00446751 0)
(-0.0570523 0.00369441 0)
(-0.0577462 0.00288724 0)
(-0.0582656 0.00204982 0)
(-0.058605 0.00118644 0)
(-0.0587599 0.000301891 0)
(-0.0587268 -0.000598535 0)
(-0.0585034 -0.00150906 0)
(-0.0580885 -0.00242344 0)
(-0.0574822 -0.00333501 0)
(-0.0566859 -0.00423673 0)
(-0.0557025 -0.00512125 0)
(-0.0545364 -0.00598095 0)
(-0.0531933 -0.00680807 0)
(-0.0516806 -0.00759477 0)
(-0.050007 -0.00833322 0)
(-0.0481831 -0.00901575 0)
(-0.0462207 -0.00963492 0)
(-0.0441329 -0.0101837 0)
(-0.0419344 -0.0106554 0)
(-0.0396411 -0.0110443 0)
(-0.0372699 -0.0113449 0)
(-0.0348387 -0.011553 0)
(-0.0323663 -0.011665 0)
(-0.029872 -0.0116788 0)
(-0.0273756 -0.0115929 0)
(-0.0248969 -0.0114075 0)
(-0.0224559 -0.0111239 0)
(-0.020072 -0.0107447 0)
(-0.0177641 -0.0102739 0)
(-0.0155502 -0.00971723 0)
(-0.0134472 -0.00908152 0)
(-0.0114704 -0.00837532 0)
(-0.00963338 -0.00760865 0)
(-0.00794786 -0.00679313 0)
(-0.00642311 -0.00594201 0)
(-0.0050659 -0.00507026 0)
(-0.00388022 -0.0041947 0)
(-0.00286705 -0.00333414 0)
(-0.00202419 -0.00250959 0)
(-0.00134615 -0.00174452 0)
(-0.000824039 -0.00106523 0)
(-0.000445406 -0.00050125 0)
(-0.000194079 -8.57237e-05 0)
(-5.22404e-05 0.000144013 0)
(-3.24437e-06 0.000143208 0)
(-3.36129e-05 0.000253233 0)
(-0.000238704 0.000994751 0)
(-0.00069891 0.00189229 0)
(-0.00138135 0.00288489 0)
(-0.00227045 0.00392601 0)
(-0.00335852 0.00497824 0)
(-0.00463557 0.00601204 0)
(-0.00608997 0.00700483 0)
(-0.00770919 0.00793979 0)
(-0.00947992 0.00880488 0)
(-0.0113882 0.00959186 0)
(-0.0134195 0.0102956 0)
(-0.0155592 0.0109132 0)
(-0.0177923 0.0114438 0)
(-0.020104 0.0118877 0)
(-0.0224794 0.012246 0)
(-0.0249038 0.0125207 0)
(-0.0273629 0.0127138 0)
(-0.0298424 0.0128279 0)
(-0.0323287 0.0128652 0)
(-0.034808 0.012828 0)
(-0.037267 0.0127184 0)
(-0.0396929 0.0125384 0)
(-0.0420728 0.0122897 0)
(-0.0443944 0.0119739 0)
(-0.0466453 0.0115924 0)
(-0.0488138 0.0111467 0)
(-0.0508879 0.010638 0)
(-0.0528565 0.0100677 0)
(-0.0547084 0.00943733 0)
(-0.0564327 0.00874856 0)
(-0.0580192 0.00800329 0)
(-0.0594579 0.00720377 0)
(-0.0607393 0.0063526 0)
(-0.0618546 0.00545285 0)
(-0.0627954 0.00450806 0)
(-0.0635543 0.0035223 0)
(-0.0641244 0.00250021 0)
(-0.0645001 0.001447 0)
(-0.0646764 0.000368484 0)
(-0.0646495 -0.000728951 0)
(-0.0644169 -0.00183833 0)
(-0.0639773 -0.00295214 0)
(-0.0633307 -0.00406237 0)
(-0.0624785 -0.00516056 0)
(-0.0614236 -0.00623787 0)
(-0.0601705 -0.00728518 0)
(-0.0587253 -0.00829316 0)
(-0.0570956 -0.00925239 0)
(-0.0552908 -0.0101535 0)
(-0.0533216 -0.0109872 0)
(-0.0512007 -0.0117447 0)
(-0.0489419 -0.0124174 0)
(-0.0465608 -0.0129974 0)
(-0.0440741 -0.0134775 0)
(-0.0414998 -0.0138515 0)
(-0.038857 -0.0141139 0)
(-0.0361657 -0.0142606 0)
(-0.0334466 -0.0142887 0)
(-0.0307208 -0.0141967 0)
(-0.0280096 -0.0139845 0)
(-0.0253345 -0.0136537 0)
(-0.0227163 -0.0132073 0)
(-0.0201757 -0.0126502 0)
(-0.017732 -0.011989 0)
(-0.0154036 -0.0112319 0)
(-0.0132074 -0.0103891 0)
(-0.0111584 -0.00947262 0)
(-0.00926963 -0.00849618 0)
(-0.0075516 -0.00747551 0)
(-0.0060123 -0.0064283 0)
(-0.00465687 -0.00537428 0)
(-0.00348739 -0.00433537 0)
(-0.00250272 -0.00333584 0)
(-0.00169844 -0.0024025 0)
(-0.00106681 -0.00156503 0)
(-0.000596552 -0.000856289 0)
(-0.00027276 -0.000312629 0)
(-8.02456e-05 2.57141e-05 0)
(-7.54886e-06 0.000111582 0)
(-4.00272e-05 0.000383647 0)
(-0.000279536 0.00137304 0)
(-0.000811732 0.00250702 0)
(-0.00159419 0.0037251 0)
(-0.00260545 0.00498049 0)
(-0.00383413 0.00623519 0)
(-0.005267 0.00745896 0)
(-0.00688961 0.00862846 0)
(-0.00868709 0.0097262 0)
(-0.0106442 0.0107396 0)
(-0.0127454 0.0116599 0)
(-0.0149748 0.0124817 0)
(-0.0173165 0.0132021 0)
(-0.0197545 0.01382 0)
(-0.0222731 0.0143358 0)
(-0.0248565 0.014751 0)
(-0.0274892 0.0150676 0)
(-0.0301561 0.015288 0)
(-0.0328422 0.0154149 0)
(-0.0355331 0.015451 0)
(-0.0382143 0.0153987 0)
(-0.0408718 0.0152605 0)
(-0.043492 0.0150387 0)
(-0.0460615 0.0147352 0)
(-0.048567 0.0143518 0)
(-0.0509957 0.0138904 0)
(-0.0533349 0.0133525 0)
(-0.0555722 0.0127398 0)
(-0.0576957 0.0120539 0)
(-0.0596936 0.0112967 0)
(-0.0615545 0.0104701 0)
(-0.0632673 0.00957661 0)
(-0.0648216 0.00861883 0)
(-0.0662074 0.00759996 0)
(-0.0674152 0.00652365 0)
(-0.0684362 0.00539417 0)
(-0.0692625 0.00421635 0)
(-0.0698869 0.00299571 0)
(-0.0703031 0.00173843 0)
(-0.0705059 0.000451376 0)
(-0.0704913 -0.000857903 0)
(-0.0702563 -0.00218119 0)
(-0.0697995 -0.00350964 0)
(-0.0691206 -0.00483383 0)
(-0.0682211 -0.0061438 0)
(-0.0671038 -0.00742916 0)
(-0.0657731 -0.00867919 0)
(-0.0642354 -0.00988292 0)
(-0.0624984 -0.0110293 0)
(-0.0605717 -0.0121072 0)
(-0.0584666 -0.0131058 0)
(-0.0561961 -0.0140147 0)
(-0.0537748 -0.0148236 0)
(-0.0512188 -0.0155233 0)
(-0.0485459 -0.0161053 0)
(-0.0457749 -0.016562 0)
(-0.042926 -0.0168871 0)
(-0.0400203 -0.0170755 0)
(-0.0370798 -0.0171238 0)
(-0.0341271 -0.01703 0)
(-0.0311847 -0.0167939 0)
(-0.0282758 -0.0164172 0)
(-0.0254227 -0.0159035 0)
(-0.0226475 -0.0152584 0)
(-0.0199713 -0.0144893 0)
(-0.0174142 -0.0136061 0)
(-0.0149944 -0.0126205 0)
(-0.0127286 -0.0115464 0)
(-0.0106312 -0.0104 0)
(-0.00871429 -0.00919933 0)
(-0.0069872 -0.00796497 0)
(-0.00545638 -0.00671959 0)
(-0.00412519 -0.00548825 0)
(-0.00299376 -0.00429848 0)
(-0.00205892 -0.00318042 0)
(-0.00131424 -0.00216705 0)
(-0.000749762 -0.00129441 0)
(-0.000351897 -0.000601808 0)
(-0.000108048 -0.000132053 0)
(-1.1698e-05 6.57783e-05 0)
(-4.62107e-05 0.000534562 0)
(-0.000319293 0.00180703 0)
(-0.000922157 0.00320721 0)
(-0.00180323 0.00467563 0)
(-0.00293532 0.00616588 0)
(-0.00430342 0.00763998 0)
(-0.005891 0.00906752 0)
(-0.0076807 0.0104249 0)
(-0.00965523 0.0116944 0)
(-0.0117973 0.0128632 0)
(-0.0140897 0.0139225 0)
(-0.0165151 0.0148667 0)
(-0.0190563 0.015693 0)
(-0.0216963 0.0164004 0)
(-0.0244183 0.0169896 0)
(-0.0272058 0.0174621 0)
(-0.0300427 0.0178203 0)
(-0.0329128 0.0180669 0)
(-0.0358008 0.0182049 0)
(-0.0386912 0.0182373 0)
(-0.0415692 0.0181668 0)
(-0.0444202 0.0179963 0)
(-0.0472297 0.0177281 0)
(-0.0499839 0.0173647 0)
(-0.0526687 0.0169081 0)
(-0.0552709 0.0163603 0)
(-0.0577771 0.0157233 0)
(-0.0601744 0.0149989 0)
(-0.0624501 0.0141891 0)
(-0.064592 0.0132961 0)
(-0.0665881 0.0123223 0)
(-0.0684268 0.0112705 0)
(-0.0700971 0.0101439 0)
(-0.0715884 0.00894621 0)
(-0.0728909 0.00768174 0)
(-0.0739951 0.00635546 0)
(-0.0748927 0.00497303 0)
(-0.075576 0.00354085 0)
(-0.0760384 0.0020661 0)
(-0.0762741 0.000556748 0)
(-0.0762788 -0.000978467 0)
(-0.0760493 -0.00253004 0)
(-0.0755836 -0.00408775 0)
(-0.0748814 -0.0056407 0)
(-0.0739437 -0.00717738 0)
(-0.0727733 -0.0086858 0)
(-0.0713747 -0.0101535 0)
(-0.0697539 -0.0115679 0)
(-0.0679189 -0.0129161 0)
(-0.0658795 -0.0141853 0)
(-0.0636472 -0.0153628 0)
(-0.0612353 -0.0164365 0)
(-0.0586589 -0.0173947 0)
(-0.0559349 -0.0182264 0)
(-0.0530815 -0.0189215 0)
(-0.0501187 -0.0194714 0)
(-0.0470675 -0.0198685 0)
(-0.0439502 -0.0201068 0)
(-0.04079 -0.020182 0)
(-0.0376107 -0.0200919 0)
(-0.0344367 -0.0198359 0)
(-0.0312922 -0.0194158 0)
(-0.0282014 -0.0188356 0)
(-0.0251881 -0.0181016 0)
(-0.022275 -0.0172223 0)
(-0.0194839 -0.0162089 0)
(-0.0168348 -0.0150747 0)
(-0.0143459 -0.0138358 0)
(-0.0120336 -0.0125105 0)
(-0.00991125 -0.0111195 0)
(-0.00798994 -0.00968619 0)
(-0.0062776 -0.00823626 0)
(-0.00477906 -0.00679794 0)
(-0.00349588 -0.00540205 0)
(-0.00242629 -0.00408203 0)
(-0.00156529 -0.00287411 0)
(-0.000904331 -0.00181745 0)
(-0.000431129 -0.000954161 0)
(-0.000135546 -0.000329422 0)
(-1.56905e-05 6.00948e-06 0)
(-5.21789e-05 0.000705405 0)
(-0.000357964 0.00229547 0)
(-0.00102998 0.00399131 0)
(-0.00200789 0.00573488 0)
(-0.003259 0.00748062 0)
(-0.00476473 0.00919109 0)
(-0.00650525 0.0108362 0)
(-0.00846027 0.0123927 0)
(-0.01061 0.0138428 0)
(-0.0129352 0.015174 0)
(-0.0154166 0.0163776 0)
(-0.0180356 0.0174483 0)
(-0.0207736 0.0183833 0)
(-0.0236126 0.0191821 0)
(-0.0265349 0.0198454 0)
(-0.0295231 0.0203754 0)
(-0.0325602 0.0207746 0)
(-0.0356297 0.0210462 0)
(-0.0387153 0.0211934 0)
(-0.0418011 0.0212195 0)
(-0.0448717 0.0211277 0)
(-0.0479119 0.0209211 0)
(-0.0509068 0.0206024 0)
(-0.0538418 0.0201742 0)
(-0.0567027 0.0196389 0)
(-0.0594753 0.0189988 0)
(-0.062146 0.0182561 0)
(-0.0647012 0.0174129 0)
(-0.0671279 0.0164716 0)
(-0.0694132 0.0154347 0)
(-0.0715446 0.014305 0)
(-0.0735101 0.0130857 0)
(-0.0752982 0.0117805 0)
(-0.0768977 0.0103938 0)
(-0.0782982 0.00893039 0)
(-0.0794901 0.00739608 0)
(-0.0804642 0.00579732 0)
(-0.0812125 0.00414143 0)
(-0.0817278 0.00243661 0)
(-0.082004 0.000691917 0)
(-0.0820363 -0.00108268 0)
(-0.0818209 -0.00287636 0)
(-0.0813556 -0.00467749 0)
(-0.0806395 -0.00647365 0)
(-0.0796736 -0.00825175 0)
(-0.0784602 -0.00999811 0)
(-0.0770034 -0.0116986 0)
(-0.0753094 -0.0133386 0)
(-0.0733859 -0.0149037 0)
(-0.0712427 -0.016379 0)
(-0.0688915 -0.0177501 0)
(-0.0663458 -0.0190029 0)
(-0.0636213 -0.020124 0)
(-0.060735 -0.0211008 0)
(-0.057706 -0.0219215 0)
(-0.054555 -0.0225761 0)
(-0.0513041 -0.0230556 0)
(-0.0479765 -0.023353 0)
(-0.0445967 -0.0234633 0)
(-0.0411898 -0.0233833 0)
(-0.0377817 -0.0231125 0)
(-0.0343983 -0.0226525 0)
(-0.0310655 -0.0220077 0)
(-0.0278087 -0.0211848 0)
(-0.0246526 -0.0201936 0)
(-0.0216206 -0.0190464 0)
(-0.0187349 -0.0177585 0)
(-0.0160155 -0.0163477 0)
(-0.0134805 -0.0148347 0)
(-0.0111452 -0.0132429 0)
(-0.00902238 -0.0115986 0)
(-0.00712172 -0.00993043 0)
(-0.00544968 -0.00826992 0)
(-0.0040094 -0.0066512 0)
(-0.00280068 -0.00511103 0)
(-0.00182002 -0.00368892 0)
(-0.00106029 -0.0024271 0)
(-0.000510504 -0.00137045 0)
(-0.000162789 -0.000566457 0)
(-1.95471e-05 -6.75144e-05 0)
(-5.795e-05 0.000895604 0)
(-0.000395561 0.00283705 0)
(-0.0011351 0.00485758 0)
(-0.00220784 0.00690088 0)
(-0.00357579 0.00892266 0)
(-0.00521689 0.0108865 0)
(-0.00710806 0.0127631 0)
(-0.00922612 0.0145297 0)
(-0.0115488 0.0161693 0)
(-0.0140545 0.0176698 0)
(-0.0167225 0.0190229 0)
(-0.0195324 0.0202237 0)
(-0.0224645 0.0212701 0)
(-0.0254995 0.0221618 0)
(-0.0286189 0.0229001 0)
(-0.0318043 0.0234874 0)
(-0.0350383 0.0239269 0)
(-0.0383034 0.024222 0)
(-0.041583 0.0243764 0)
(-0.0448607 0.0243937 0)
(-0.0481203 0.0242776 0)
(-0.0513464 0.0240314 0)
(-0.0545235 0.023658 0)
(-0.0576366 0.0231606 0)
(-0.0606709 0.0225416 0)
(-0.063612 0.0218037 0)
(-0.0664457 0.0209493 0)
(-0.0691581 0.0199809 0)
(-0.0717356 0.0189011 0)
(-0.0741649 0.0177129 0)
(-0.076433 0.0164193 0)
(-0.0785275 0.0150241 0)
(-0.0804364 0.0135315 0)
(-0.082148 0.0119463 0)
(-0.0836514 0.0102742 0)
(-0.0849364 0.00852147 0)
(-0.0859935 0.00669551 0)
(-0.0868141 0.00480453 0)
(-0.0873904 0.00285773 0)
(-0.0877158 0.00086532 0)
(-0.0877849 -0.00116153 0)
(-0.0875934 -0.00321066 0)
(-0.0871387 -0.005269 0)