/*--------------------------------*- C++ -*----------------------------------*\
| =========                 |                                                 |
| \\      /  F ield         | OpenFOAM: The Open Source CFD Toolbox           |
|  \\    /   O peration     | Version:  2506                                  |
|   \\  /    A nd           | Website:  www.openfoam.com                      |
|    \\/     M anipulation  |                                                 |
\*---------------------------------------------------------------------------*/
FoamFile
{
    version     2.0;
    format      ascii;
    arch        "LSB;label=32;scalar=64";
    class       volScalarField;
    location    "2";
    object      Lambda2Field;
}
// * * * * * * * * * * * * * * * * * * * * * * * * * * * * * * * * * * * * * //

dimensions      [0 0 -2 0 0 0 0];

internalField   nonuniform List<scalar> 
400
(
0.0474459
0.24812
0.572896
0.73832
0.783214
0.830984
1.03344
1.41045
1.90381
2.53313
3.49635
4.88581
6.43836
7.81549
8.95922
8.20217
5.62423
2.52327
0.446546
0.0384579
0.286216
0.823087
1.45495
1.85712
2.05214
2.11456
2.17078
2.39843
2.95972
3.92821
4.85126
5.62415
6.75914
9.18078
12.4622
14.0544
11.7927
5.9238
1.10909
0
0.707004
1.27244
1.93458
2.4129
2.68849
2.81405
3.15674
4.16007
5.92841
8.20481
10.4205
12.3228
14.0926
16.9418
21.7563
25.6405
25.172
18.7527
5.41241
0.466291
1.12053
1.65611
2.11338
2.50503
2.87045
3.42502
4.73159
7.22354
10.6318
13.2796
13.2304
10.8608
8.76674
8.79238
12.7689
21.892
31.7644
33.4131
19.6121
0.647099
1.48644
1.86006
2.15358
2.50297
3.02945
4.14831
6.5846
10.3705
13.5184
12.2418
4.89828
-5.46772
-14.0914
-17.7085
-16.5681
-8.19417
10.243
33.6573
39.0427
8.97357
1.72344
1.84099
2.00696
2.38029
3.08307
4.68471
8.01923
11.8786
11.9296
3.93437
-10.7743
-24.6216
-31.9907
-34.1238
-34.7748
-34.8013
-25.9932
3.24423
40.6994
47.043
1.81255
1.6311
1.72131
2.11816
2.93189
4.79834
8.34957
10.9552
6.87753
-6.82956
-24.5498
-34.8989
-34.9104
-31.1619
-29.0932
-32.1074
-38.658
-29.9118
21.2429
82.3054
1.78206
1.31391
1.35405
1.74038
2.58126
4.42097
7.64762
8.69578
1.48228
-14.9707
-32.1679
-38.2111
-34.5398
-27.9986
-22.1689
-20.3928
-27.4837
-36.8608
-8.93018
85.8607
1.67294
0.987604
0.982729
1.32813
2.11629
3.75519
6.5165
6.62954
-0.569178
-17.686
-34.7635
-40.833
-37.8758
-30.7848
-21.9371
-15.6611
-16.6401
-27.4104
-21.8811
70.1999
1.53829
0.721355
0.675883
0.968495
1.66571
3.05488
5.36715
5.67647
-0.327161
-15.3799
-32.1758
-40.3271
-39.8632
-32.8154
-21.678
-13.5189
-11.5917
-17.8448
-20.0789
43.47
1.26351
0.551925
0.473129
0.709895
1.29844
2.45751
4.38944
5.38474
1.77644
-8.58089
-22.9019
-32.6977
-34.3592
-27.9838
-17.1769
-9.63799
-7.29995
-10.886
-14.8963
18.6419
0.959914
0.468702
0.383731
0.574587
1.0573
1.98856
3.55505
4.92291
3.76284
-1.37543
-10.656
-18.44
-20.5314
-16.313
-8.74768
-4.00378
-2.38742
-4.82045
-8.30963
3.5761
0.603559
0.436868
0.386556
0.552583
0.954362
1.67626
2.85944
4.17847
4.43183
2.29342
-1.66055
-5.9861
-7.3145
-4.81906
-1.11846
0.72265
1.6766
0
-0.792911
-3.01256
0.31514
0.396857
0.447991
0.615299
0.961643
1.51307
2.33078
3.3296
3.96535
3.45692
1.68719
0
-0.607829
0.489471
2.15136
3.5215
4.35727
3.06801
0
-1.02837
-0.0222498
0.281205
0.519095
0.751765
1.0663
1.50001
2.05234
2.65732
3.09131
2.98668
2.20937
1.25835
0.906442
1.60501
2.83862
4.0247
5.17365
2.53783
-4.33254
0
-0.202632
0.0493225
0.641838
0.952459
1.27613
1.63902
2.01335
2.31543
2.41662
2.17822
1.55038
0.794134
0.397474
0.789139
1.79981
2.96494
4.19685
-3.30543
-14.6009
1.93751
0
-0.177058
0
0.541789
1.04931
1.46536
1.77191
1.92313
1.82319
1.40161
0.684393
-0.0215415
-0.638792
-0.634246
0
1.00921
0
-17.277
-7.09389
26.6272
0
0.25772
1.42821
1.4558
1.69197
1.97401
2.13049
2.02017
1.55244
0.679274
0
-1.50246
-2.82087
-3.67235
-4.76132
-5.56369
-15.6561
-40.7636
0
259.115
8.68126
0
0
0.302577
0
0
0
0
0
0
0
-1.84203
-3.54986
-5.59935
-8.38366
-13.378
-27.9144
-18.9883
-139.24
957.721
3238.08
-608.63
-684.831
-360.834
-165.481
-87.8129
-57.1232
-40.4978
-29.623
-23.0765
-19.9236
-18.0383
-18.2441
-15.7665
-34.3981
0
0
0
-221.945
1609.11
)
;

boundaryField
{
    movingWall
    {
        type            calculated;
        value           nonuniform List<scalar> 
20
(
1529.06
0
0
0
0
0
0
0
0
0
0
0
0
0
0
0
-119.263
0
-1330.48
2877.17
)
;
    }
    fixedWalls
    {
        type            calculated;
        value           nonuniform List<scalar> 
60
(
0
0.0527516
0.461177
0.900056
1.3403
1.86625
2.41518
2.61139
2.26994
1.83154
1.2589
0.748127
0.219486
0
-0.208302
0
-0.276617
0
27.156
6875.93
0
0
0.220139
0
0
24.1025
48.015
60.9165
40.5544
0
0
0
0
0
0
0
58.924
755.911
3136.98
2165.79
0
0.0239367
0.0579341
0
0
0
0.472118
0.888537
1.32257
2.26179
4.04773
6.91082
10.2434
12.5198
11.7604
8.3714
4.52922
1.24026
0.326702
0.0305276
)
;
    }
    frontAndBack
    {
        type            empty;
    }
}


// ************************************************************************* //
