/*--------------------------------*- C++ -*----------------------------------*\
| =========                 |                                                 |
| \\      /  F ield         | OpenFOAM: The Open Source CFD Toolbox           |
|  \\    /   O peration     | Version:  2506                                  |
|   \\  /    A nd           | Website:  www.openfoam.com                      |
|    \\/     M anipulation  |                                                 |
\*---------------------------------------------------------------------------*/
FoamFile
{
    version     2.0;
    format      ascii;
    arch        "LSB;label=32;scalar=64";
    class       volVectorField;
    location    "2";
    object      LambVectorField;
}
// * * * * * * * * * * * * * * * * * * * * * * * * * * * * * * * * * * * * * //

dimensions      [0 1 -2 0 0 0 0];

internalField   nonuniform List<vector> 
400
(
(-6.04642e-05 -7.45841e-05 0)
(-0.00100168 -0.00221642 0)
(-0.00305628 -0.011992 0)
(-0.0057528 -0.0333559 0)
(-0.00961858 -0.0698068 0)
(-0.0154581 -0.124811 0)
(-0.0230806 -0.201087 0)
(-0.0311951 -0.30067 0)
(-0.0385107 -0.425818 0)
(-0.0428466 -0.573235 0)
(-0.0393125 -0.721908 0)
(-0.0222262 -0.830314 0)
(0.00898789 -0.847231 -0)
(0.0441731 -0.741498 -0)
(0.0655264 -0.533986 -0)
(0.0629091 -0.297942 -0)
(0.0390049 -0.112714 -0)
(0.0117002 -0.0180144 -0)
(0.000847709 0.000357558 0)
(0.000162682 -0.000230548 0)
(-0.00255506 -0.001391 0)
(-0.00603427 -0.00612731 0)
(-0.00840653 -0.0135097 0)
(-0.0112568 -0.0257683 0)
(-0.0151101 -0.0443248 0)
(-0.0187507 -0.065908 0)
(-0.0216449 -0.0885589 0)
(-0.0249156 -0.116786 0)
(-0.0289318 -0.155923 0)
(-0.0313686 -0.206085 0)
(-0.0279142 -0.262996 0)
(-0.01471 -0.317811 0)
(0.00945554 -0.35931 -0)
(0.0431449 -0.379579 -0)
(0.0817683 -0.363924 -0)
(0.113392 -0.307758 -0)
(0.116587 -0.206505 -0)
(0.0744101 -0.0826737 -0)
(0.0164709 -0.00652806 -0)
(-0.000494281 0.000563701 0)
(-0.0146068 -0.00516788 0)
(-0.0135405 -0.00934608 0)
(-0.0135025 -0.0138886 0)
(-0.0135918 -0.0191297 0)
(-0.0142776 -0.0257304 0)
(-0.0157261 -0.034658 0)
(-0.0207156 -0.0538069 0)
(-0.0319946 -0.0947774 0)
(-0.0485896 -0.162826 0)
(-0.0629933 -0.248478 0)
(-0.061351 -0.318607 0)
(-0.0370216 -0.339941 0)
(-0.000823613 -0.323934 0)
(0.0405746 -0.328628 -0)
(0.107011 -0.3964 -0)
(0.208655 -0.473644 -0)
(0.309406 -0.475332 -0)
(0.301009 -0.322725 -0)
(0.121965 -0.0681646 -0)
(-0.000212823 0.00245567 0)
(-0.0412438 -0.0102328 0)
(-0.0208043 -0.0107477 0)
(-0.017033 -0.0129146 0)
(-0.0134271 -0.0135922 0)
(-0.0107817 -0.0138045 0)
(-0.0134541 -0.0209398 0)
(-0.0274827 -0.0496492 0)
(-0.053604 -0.107703 0)
(-0.0798538 -0.178198 0)
(-0.0770177 -0.202264 0)
(-0.031915 -0.111539 0)
(0.013791 0.0824198 0)
(0.00754896 0.272237 0)
(-0.0473952 0.357718 -0)
(-0.0844032 0.271726 -0)
(0.00544394 -0.0106632 -0)
(0.287783 -0.388636 -0)
(0.61079 -0.59618 -0)
(0.524124 -0.362772 -0)
(0.0518955 -0.00355586 -0)
(-0.0857143 -0.015177 0)
(-0.026873 -0.0105247 0)
(-0.017595 -0.0101559 0)
(-0.0106987 -0.00816109 0)
(-0.00706593 -0.00673979 0)
(-0.0144822 -0.0165098 0)
(-0.0387817 -0.0500842 0)
(-0.0690212 -0.0974267 0)
(-0.0596794 -0.0935132 0)
(0.0350598 0.0651863 0)
(0.162985 0.40359 0)
(0.191911 0.798819 0)
(0.0563732 1.08931 0)
(-0.181391 1.20158 -0)
(-0.426455 1.15968 -0)
(-0.557579 0.926995 -0)
(-0.354586 0.411642 -0)
(0.366257 -0.311337 -0)
(1.08618 -0.68154 -0)
(0.394956 -0.1555 -0)
(-0.146299 -0.0184476 0)
(-0.0315021 -0.0092919 0)
(-0.0158992 -0.00698907 0)
(-0.00700137 -0.00404688 0)
(-0.00431115 -0.00308245 0)
(-0.0171172 -0.0143589 0)
(-0.0456812 -0.0425537 0)
(-0.0485492 -0.0489698 0)
(0.0599767 0.0675018 0)
(0.279872 0.378619 0)
(0.437776 0.800319 0)
(0.363069 1.13549 0)
(0.0892178 1.2737 0)
(-0.251881 1.26894 -0)
(-0.587187 1.23117 -0)
(-0.922025 1.20889 -0)
(-1.12935 1.05841 -0)
(-0.660699 0.458831 -0)
(0.974375 -0.49333 -0)
(1.624 -0.6039 -0)
(-0.216569 -0.0190421 0)
(-0.0351506 -0.00763796 0)
(-0.0130317 -0.00427899 0)
(-0.00344109 -0.00148202 0)
(-0.00224524 -0.00118383 0)
(-0.0177406 -0.0107726 0)
(-0.0367249 -0.024272 0)
(0.0204306 0.0144682 0)
(0.246087 0.194907 0)
(0.547738 0.52448 0)
(0.652266 0.856681 0)
(0.427706 1.00651 0)
(0.0503494 0.964965 0)
(-0.287354 0.860161 -0)
(-0.566618 0.777764 -0)
(-0.870146 0.777312 -0)
(-1.31293 0.878563 -0)
(-1.58042 0.821415 -0)
(-0.0515654 0.0194612 -0)
(3.59677 -0.928993 -0)
(-0.286848 -0.0166237 0)
(-0.0385688 -0.00590075 0)
(-0.0100359 -0.00235736 0)
(-0.000217387 -6.68412e-05 0)
(0.000779754 0.000290016 0)
(-0.0127051 -0.00533006 0)
(-0.0150285 -0.00668117 0)
(0.0998682 0.0464327 0)
(0.411962 0.210468 0)
(0.736555 0.454369 0)
(0.755177 0.650775 0)
(0.419618 0.698007 0)
(-0.00194775 0.637589 -0)
(-0.335227 0.541351 -0)
(-0.556195 0.441567 -0)
(-0.72635 0.381984 -0)
(-1.07308 0.433568 -0)
(-1.73556 0.593901 -0)
(-1.26395 0.330494 -0)
(5.83445 -0.968596 -0)
(-0.347004 -0.0116476 0)
(-0.0422975 -0.00417237 0)
(-0.00729243 -0.00112706 0)
(0.00328374 0.000661652 0)
(0.00546548 0.00130685 0)
(-0.0033697 -0.000879958 0)
(0.0065571 0.00171889 0)
(0.150896 0.0386249 0)
(0.478099 0.124321 0)
(0.801849 0.239317 0)
(0.796335 0.326034 0)
(0.430436 0.350414 0)
(-0.021164 0.333647 -0)
(-0.387504 0.286407 -0)
(-0.58669 0.217746 -0)
(-0.660341 0.168278 -0)
(-0.841996 0.16946 -0)
(-1.48998 0.283339 -0)
(-1.94689 0.318501 -0)
(7.66349 -0.787846 -0)
(-0.388746 -0.00509843 0)
(-0.0463931 -0.00239588 0)
(-0.0050167 -0.000421111 0)
(0.00692982 0.000749156 0)
(0.0108812 0.0013323 0)
(0.00734994 0.000901434 0)
(0.0199137 0.00203698 0)
(0.149237 0.0103259 0)
(0.436084 0.0137723 0)
(0.74678 -0.00231223 0)
(0.770151 -0.0279162 0)
(0.443226 -0.0374296 0)
(-0.00980303 -0.0240126 0)
(-0.398665 -0.00966093 0)
(-0.584852 -0.000123587 0)
(-0.61495 0.0156392 -0)
(-0.712635 0.0327794 -0)
(-1.26292 0.0995089 -0)
(-2.19653 0.200112 -0)
(8.91514 -0.583837 -0)
(-0.40766 0.0018817 0)
(-0.0510093 -0.000549109 0)
(-0.00401046 -8.59147e-05 0)
(0.00978247 0.00024221 0)
(0.0156898 0.000282331 0)
(0.0166356 -2.88694e-05 0)
(0.0257968 -0.00106713 0)
(0.113576 -0.0114041 0)
(0.323984 -0.0575439 0)
(0.57396 -0.160902 0)
(0.64533 -0.287024 0)
(0.419572 -0.366338 0)
(0.023942 -0.367385 0)
(-0.33736 -0.301041 0)
(-0.506955 -0.192419 0)
(-0.531279 -0.102966 0)
(-0.603097 -0.0551969 0)
(-1.10033 -0.00629453 0)
(-2.31104 0.0955403 -0)
(9.68383 -0.468389 -0)
(-0.403149 0.0075695 0)
(-0.0558869 0.00135172 0)
(-0.00455542 0.000151873 0)
(0.0111645 -0.000550667 0)
(0.0186341 -0.0014127 0)
(0.0227478 -0.00262015 0)
(0.0292263 -0.00505788 0)
(0.0758254 -0.0193946 0)
(0.201494 -0.0740105 0)
(0.363873 -0.19322 0)
(0.437555 -0.353174 0)
(0.320024 -0.480134 0)
(0.0545636 -0.510204 0)
(-0.215627 -0.433899 0)
(-0.367282 -0.29239 0)
(-0.412253 -0.171745 0)
(-0.485285 -0.107089 0)
(-0.960242 -0.0723348 0)
(-2.38281 0.0213507 -0)
(10.0628 -0.427252 -0)
(-0.379694 0.0113133 0)
(-0.0599241 0.00316899 0)
(-0.00646157 0.000519148 0)
(0.0109231 -0.00125545 0)
(0.019471 -0.00312901 0)
(0.0253288 -0.00557093 0)
(0.0314994 -0.00935078 0)
(0.0525761 -0.0210759 0)
(0.113344 -0.0617188 0)
(0.197152 -0.149505 0)
(0.246023 -0.27578 0)
(0.195587 -0.388484 0)
(0.0529618 -0.428123 0)
(-0.107474 -0.380413 0)
(-0.222464 -0.283307 0)
(-0.286098 -0.186941 0)
(-0.371532 -0.129269 0)
(-0.826398 -0.112192 0)
(-2.4334 -0.0271126 0)
(10.1973 -0.432982 -0)
(-0.344386 0.0124659 0)
(-0.0625011 0.00463926 0)
(-0.00927264 0.00110228 0)
(0.00902193 -0.00155548 0)
(0.018116 -0.00431956 0)
(0.0245101 -0.00781451 0)
(0.0308159 -0.0128619 0)
(0.0412153 -0.0224033 0)
(0.0645174 -0.0461779 0)
(0.0997291 -0.0965326 0)
(0.124296 -0.1729 0)
(0.105929 -0.245797 0)
(0.0424219 -0.28302 0)
(-0.0415158 -0.273128 0)
(-0.120615 -0.230593 0)
(-0.18561 -0.173361 0)
(-0.273994 -0.133911 0)
(-0.6973 -0.134917 0)
(-2.46705 -0.0596688 0)
(10.1422 -0.458521 -0)
(-0.301786 0.0110259 0)
(-0.0633961 0.00536024 0)
(-0.0128661 0.0018835 0)
(0.00501998 -0.00110843 0)
(0.0140402 -0.00435315 0)
(0.0205648 -0.00854096 0)
(0.0266491 -0.0143975 0)
(0.0334329 -0.0231753 0)
(0.0422257 -0.0377298 0)
(0.0538815 -0.0634486 0)
(0.06322 -0.10323 0)
(0.0582669 -0.148134 0)
(0.032044 -0.180849 0)
(-0.0101216 -0.191523 0)
(-0.0609416 -0.182031 0)
(-0.115902 -0.155478 0)
(-0.196134 -0.133244 0)
(-0.578613 -0.152227 0)
(-2.46557 -0.107065 0)
(9.88252 -0.467768 -0)
(-0.278549 0.00520947 0)
(-0.0631466 0.0049224 0)
(-0.0178118 0.00280122 0)
(-0.00126929 0.000323941 0)
(0.00732632 -0.00273544 0)
(0.0138927 -0.00710881 0)
(0.019746 -0.0132753 0)
(0.0255204 -0.0219951 0)
(0.0308758 -0.0339062 0)
(0.0354326 -0.0501792 0)
(0.0385635 -0.0730741 0)
(0.0370928 -0.102243 0)
(0.0261216 -0.130166 0)
(0.00421762 -0.148644 0)
(-0.0277282 -0.154685 0)
(-0.0699529 -0.146648 0)
(-0.140185 -0.13932 0)
(-0.493922 -0.191397 0)
(-2.38257 -0.232536 0)
(9.52111 -0.417186 -0)
(-0.206533 -0.00526065 0)
(-0.0616035 0.0012693 0)
(-0.0256638 0.0033005 0)
(-0.0100364 0.00264987 0)
(-0.000109645 4.65516e-05 0)
(0.00801504 -0.00490516 0)
(0.014945 -0.0123517 0)
(0.021301 -0.0228396 0)
(0.0270491 -0.0369029 0)
(0.0316416 -0.0549077 0)
(0.0342975 -0.0773679 0)
(0.0331466 -0.102929 0)
(0.0266103 -0.128513 0)
(0.0134955 -0.152605 0)
(-0.00874957 -0.168545 0)
(-0.0441038 -0.175025 0)
(-0.112471 -0.183513 0)
(-0.473802 -0.31481 0)
(-2.18927 -0.433524 0)
(9.16349 -0.2662 -0)
(-0.428201 -0.0314858 0)
(-0.0439912 -0.00238759 0)
(0.0172912 -0.0010623 0)
(0.0377028 -0.00839299 0)
(0.0480701 -0.021099 0)
(0.0573349 -0.0405449 0)
(0.0647496 -0.0659894 0)
(0.0705574 -0.09679 0)
(0.0745626 -0.132413 0)
(0.0763132 -0.172435 0)
(0.0747827 -0.215428 0)
(0.0696735 -0.260035 0)
(0.0601324 -0.304425 0)
(0.0455127 -0.349789 0)
(0.0228645 -0.390958 0)
(-0.022102 -0.438884 0)
(-0.118126 -0.448483 0)
(-0.526051 -0.719415 0)
(-1.83409 -0.544599 0)
(7.09641 0.145233 0)
(0.0287354 0.0129954 0)
(0.0629087 0.066352 0)
(0.0893908 -0.00549223 0)
(0.145286 -0.120589 0)
(0.179919 -0.270143 0)
(0.193283 -0.43351 0)
(0.198472 -0.598667 0)
(0.200899 -0.763759 0)
(0.200409 -0.927869 0)
(0.19575 -1.08973 0)
(0.186149 -1.24746 0)
(0.171676 -1.40006 0)
(0.152592 -1.54693 0)
(0.126692 -1.68942 0)
(0.093261 -1.8196 0)
(0.0251483 -1.97745 0)
(-0.0806334 -1.96496 0)
(-0.507615 -2.53724 0)
(-1.29829 -0.913538 0)
(-2.36942 -0.750589 0)
(16.7869 -7.28882 0)
(13.9161 -12.1583 0)
(8.51232 -16.8881 0)
(5.49909 -20.6649 0)
(3.9672 -23.5192 0)
(3.08931 -25.8919 0)
(2.51902 -28.0234 0)
(2.117 -29.9693 0)
(1.81695 -31.7367 0)
(1.58466 -33.3377 0)
(1.39423 -34.7788 0)
(1.23161 -36.0621 0)
(1.08612 -37.1762 0)
(0.945666 -38.1343 0)
(0.793182 -38.8272 0)
(0.581024 -39.5547 0)
(0.348606 -38.8756 0)
(-0.507135 -41.3624 0)
(0.670371 -24.388 0)
(-14.2916 -55.0804 0)
)
;

boundaryField
{
    movingWall
    {
        type            calculated;
        value           nonuniform List<vector> 
20
(
(0 -367.564 0)
(0 -380.617 0)
(0 -369.491 0)
(0 -358.741 0)
(0 -350.655 0)
(0 -344.117 0)
(0 -338.273 0)
(0 -332.863 0)
(0 -327.838 0)
(0 -323.179 0)
(0 -318.9 0)
(0 -315.033 0)
(0 -311.662 0)
(0 -308.794 0)
(0 -306.857 0)
(0 -304.853 0)
(0 -308.068 0)
(0 -298.98 0)
(0 -359.221 0)
(0 -239.107 0)
)
;
    }
    fixedWalls
    {
        type            calculated;
        value           uniform (-0 0 0);
    }
    frontAndBack
    {
        type            empty;
    }
}


// ************************************************************************* //
