/*--------------------------------*- C++ -*----------------------------------*\
| =========                 |                                                 |
| \\      /  F ield         | OpenFOAM: The Open Source CFD Toolbox           |
|  \\    /   O peration     | Version:  2506                                  |
|   \\  /    A nd           | Website:  www.openfoam.com                      |
|    \\/     M anipulation  |                                                 |
\*---------------------------------------------------------------------------*/
FoamFile
{
    version     2.0;
    format      ascii;
    arch        "LSB;label=32;scalar=64";
    class       volVectorField;
    location    "10";
    object      ddtU;
}
// * * * * * * * * * * * * * * * * * * * * * * * * * * * * * * * * * * * * * //

dimensions      [0 1 -2 0 0 0 0];

internalField   nonuniform List<vector> 
400
(
(1.33227e-13 -9.29108e-14 0)
(-2.22045e-14 -3.02849e-14 0)
(0 -8.294e-16 0)
(0 1.87422e-14 0)
(-2.22045e-14 9.63655e-15 0)
(-6.66134e-14 1.88872e-14 0)
(-4.44089e-14 1.38976e-14 0)
(-8.88178e-14 2.89935e-15 0)
(-6.66134e-14 -1.05852e-14 0)
(-4.44089e-14 -6.16741e-15 0)
(-4.44089e-14 -1.00799e-15 0)
(0 -1.12083e-14 0)
(-2.22045e-14 -1.61973e-14 0)
(0 -1.48164e-14 0)
(0 1.36196e-14 0)
(-4.44089e-14 1.21582e-14 0)
(4.44089e-14 -1.4457e-14 0)
(4.44089e-14 -9.70139e-15 0)
(2.22045e-14 1.55462e-14 0)
(-4.44089e-14 7.89591e-15 0)
(-2.22045e-14 -2.05275e-13 0)
(-8.88178e-14 -2.07365e-14 0)
(-8.88178e-14 -1.7712e-14 0)
(-4.44089e-14 1.98912e-14 0)
(-4.44089e-14 1.55416e-14 0)
(-4.44089e-14 5.37849e-15 0)
(-4.44089e-14 1.1383e-14 0)
(0 -9.64362e-17 0)
(0 -1.98516e-14 0)
(0 -1.66948e-14 0)
(-4.44089e-14 3.36435e-15 0)
(0 -3.58744e-16 0)
(-4.44089e-14 -1.45557e-14 0)
(0 -1.0995e-14 0)
(0 2.22395e-14 0)
(4.44089e-14 1.69826e-14 0)
(-4.44089e-14 -2.34063e-14 0)
(0 -2.05508e-14 0)
(0 2.01607e-14 0)
(0 1.08325e-14 0)
(-8.88178e-14 -1.85687e-14 0)
(-2.22045e-14 -5.01668e-14 0)
(-4.44089e-14 -2.14367e-14 0)
(-8.88178e-14 -1.80371e-14 0)
(0 4.34474e-15 0)
(0 -1.3203e-14 0)
(-4.44089e-14 -6.96286e-16 0)
(0 -4.01524e-15 0)
(-6.66134e-14 -1.46394e-14 0)
(0 -1.71942e-14 0)
(-8.88178e-14 -4.63656e-15 0)
(0 8.49442e-15 0)
(0 7.16605e-15 0)
(-4.44089e-14 4.52619e-15 0)
(-8.88178e-14 6.32159e-15 0)
(0 6.24592e-15 0)
(0 -4.44793e-15 0)
(-4.44089e-14 -1.24047e-14 0)
(-4.44089e-14 3.1917e-15 0)
(0 -2.49373e-15 0)
(0 -1.90546e-14 0)
(-4.44089e-14 -5.93347e-14 0)
(0 -2.04166e-14 0)
(-4.44089e-14 -1.03093e-14 0)
(-4.44089e-14 4.82919e-15 0)
(-6.66134e-14 -5.9114e-15 0)
(-2.22045e-14 -1.55599e-14 0)
(2.22045e-14 -7.02298e-15 0)
(2.22045e-14 -1.03798e-14 0)
(0 6.0325e-15 0)
(-2.22045e-14 3.45382e-15 0)
(-4.44089e-14 -2.05709e-15 0)
(2.22045e-14 5.34595e-15 0)
(0 1.12345e-14 0)
(2.22045e-14 5.56152e-15 0)
(2.22045e-14 6.77826e-15 0)
(0 8.45937e-15 0)
(2.22045e-14 3.331e-15 0)
(-2.22045e-14 2.30478e-15 0)
(-2.22045e-14 -4.51078e-15 0)
(0 -1.71671e-13 0)
(0 -6.37567e-15 0)
(-2.22045e-14 -2.28744e-14 0)
(0 -1.15785e-14 0)
(2.22045e-14 -2.28884e-14 0)
(0 -2.05234e-14 0)
(0 -1.16877e-14 0)
(4.44089e-14 7.18564e-16 0)
(-4.44089e-14 1.47821e-15 0)
(-4.44089e-14 9.44005e-15 0)
(0 6.58976e-15 0)
(2.22045e-14 -1.07856e-15 0)
(-2.22045e-14 9.88885e-15 0)
(-4.44089e-14 1.91242e-14 0)
(0 1.96115e-14 0)
(-2.22045e-14 1.49418e-14 0)
(0 5.56108e-15 0)
(-2.22045e-14 -3.33471e-15 0)
(0 -3.16946e-15 0)
(2.22045e-14 1.05395e-14 0)
(0 -1.41968e-14 0)
(-4.44089e-14 -3.0462e-14 0)
(0 -1.08366e-14 0)
(0 -1.8206e-14 0)
(-6.66134e-14 -3.41027e-14 0)
(-2.22045e-14 -2.00629e-14 0)
(-4.44089e-14 -1.70718e-15 0)
(4.44089e-14 5.45751e-15 0)
(0 3.6314e-15 0)
(0 -5.52683e-15 0)
(4.44089e-14 -2.29883e-15 0)
(-2.22045e-14 9.26864e-15 0)
(4.44089e-14 1.69518e-14 0)
(0 -1.68876e-15 0)
(4.44089e-14 1.59847e-14 0)
(0 1.51267e-14 0)
(0 9.12435e-15 0)
(-2.22045e-14 -1.63722e-14 0)
(-2.22045e-14 -1.19632e-14 0)
(-2.22045e-14 1.28946e-14 0)
(2.22045e-14 4.20938e-14 0)
(2.22045e-14 -2.95391e-14 0)
(0 4.474e-15 0)
(2.22045e-14 6.49668e-15 0)
(0 -2.0146e-15 0)
(0 -1.37619e-14 0)
(-2.22045e-14 -2.32077e-15 0)
(0 -8.63787e-16 0)
(-2.22045e-14 -6.39981e-15 0)
(4.44089e-14 1.38377e-14 0)
(0 -1.14328e-15 0)
(0 -1.51518e-14 0)
(0 -1.73371e-15 0)
(4.44089e-14 -3.67652e-15 0)
(0 1.98416e-15 0)
(0 1.10869e-15 0)
(2.22045e-14 4.8736e-15 0)
(2.22045e-14 -2.83678e-15 0)
(2.22045e-14 -7.3427e-15 0)
(-4.44089e-14 -2.79796e-15 0)
(0 -9.57728e-14 0)
(-4.44089e-14 -5.10647e-15 0)
(-4.44089e-14 -2.63889e-15 0)
(0 5.51384e-15 0)
(0 8.86749e-15 0)
(0 3.62145e-15 0)
(-4.44089e-14 -2.53339e-15 0)
(4.44089e-14 -1.24868e-14 0)
(0 -8.2105e-16 0)
(0 2.30076e-14 0)
(4.44089e-14 1.75046e-14 0)
(-4.44089e-14 -2.00649e-14 0)
(0 -1.98338e-14 0)
(0 6.71082e-15 0)
(4.44089e-14 7.13412e-15 0)
(-4.44089e-14 2.09166e-15 0)
(0 3.66098e-16 0)
(0 -5.33889e-15 0)
(2.22045e-14 -9.54477e-15 0)
(0 -1.09451e-14 0)
(4.44089e-14 1.15401e-14 0)
(-4.44089e-14 8.63945e-15 0)
(-2.22045e-14 -3.25271e-15 0)
(-2.22045e-14 -1.55354e-14 0)
(-2.22045e-14 -3.26228e-15 0)
(-2.22045e-14 1.42398e-14 0)
(2.22045e-14 1.7362e-16 0)
(-2.22045e-14 -1.29055e-14 0)
(-2.22045e-14 -7.60879e-15 0)
(-4.44089e-14 -2.10463e-14 0)
(4.44089e-14 5.26557e-15 0)
(4.44089e-14 1.38074e-14 0)
(4.44089e-14 -1.97892e-14 0)
(0 -3.51037e-15 0)
(8.88178e-14 2.24421e-15 0)
(4.44089e-14 6.69361e-15 0)
(4.44089e-14 -8.3485e-15 0)
(4.44089e-14 -3.68717e-15 0)
(0 1.3857e-14 0)
(-2.22045e-14 -5.88844e-15 0)
(-4.44089e-14 8.75603e-14 0)
(0 -4.3728e-15 0)
(0 -1.55781e-14 0)
(4.44089e-14 -2.05221e-14 0)
(0 -1.35638e-14 0)
(0 1.09945e-15 0)
(0 9.98678e-15 0)
(4.44089e-14 -2.7201e-16 0)
(0 -1.20762e-14 0)
(4.44089e-14 -2.10467e-14 0)
(0 -2.02863e-14 0)
(0 -4.53252e-15 0)
(0 -1.29107e-14 0)
(0 -1.16387e-14 0)
(0 -2.02772e-14 0)
(0 -1.54862e-14 0)
(4.44089e-14 -9.22919e-15 0)
(0 1.9395e-14 0)
(-4.44089e-14 1.4015e-14 0)
(4.44089e-14 -9.71406e-16 0)
(-1.33227e-13 -4.70095e-14 0)
(4.44089e-14 -3.18059e-15 0)
(0 -1.2177e-14 0)
(0 -1.30726e-15 0)
(0 -1.17349e-14 0)
(0 -2.70869e-14 0)
(4.44089e-14 -2.85361e-14 0)
(6.66134e-14 -1.5219e-14 0)
(6.66134e-14 2.13494e-15 0)
(2.22045e-14 6.76363e-15 0)
(-2.22045e-14 -3.60746e-15 0)
(0 -1.76999e-14 0)
(0 -8.17828e-15 0)
(0 -1.03852e-14 0)
(4.44089e-14 5.76338e-16 0)
(-4.44089e-14 -6.18579e-15 0)
(-6.66134e-14 1.22882e-14 0)
(-4.44089e-14 8.81135e-15 0)
(-2.22045e-14 -1.28782e-14 0)
(0 -9.70995e-15 0)
(4.44089e-14 1.64156e-14 0)
(0 -3.01346e-15 0)
(0 -3.27112e-15 0)
(4.44089e-14 -1.9885e-14 0)
(4.44089e-14 -1.34576e-14 0)
(6.66134e-14 -1.4215e-14 0)
(2.22045e-14 -2.53543e-14 0)
(-2.22045e-14 -1.72943e-14 0)
(2.22045e-14 8.04496e-16 0)
(-4.44089e-14 4.8838e-15 0)
(-2.22045e-14 5.98193e-15 0)
(-6.66134e-14 -6.44962e-15 0)
(0 -2.33215e-14 0)
(0 -1.73293e-14 0)
(2.22045e-14 7.76372e-15 0)
(0 1.79205e-14 0)
(0 5.3956e-15 0)
(2.22045e-14 3.41521e-15 0)
(0 1.18939e-14 0)
(0 -1.73351e-14 0)
(-2.22045e-14 4.56898e-14 0)
(-4.44089e-14 -4.00273e-14 0)
(0 -3.32737e-14 0)
(4.44089e-14 -2.89443e-14 0)
(0 -1.96259e-14 0)
(-4.44089e-14 -4.45067e-15 0)
(0 1.02044e-15 0)
(0 1.47157e-15 0)
(0 3.31872e-15 0)
(-4.44089e-14 7.04817e-15 0)
(0 5.74413e-15 0)
(-4.44089e-14 7.47085e-15 0)
(6.66134e-14 -2.36377e-15 0)
(-4.44089e-14 -1.45527e-14 0)
(-4.44089e-14 -1.64351e-14 0)
(-4.44089e-14 -8.14599e-16 0)
(0 -7.3125e-16 0)
(-4.44089e-14 1.43396e-14 0)
(0 9.29978e-15 0)
(8.88178e-14 -1.49244e-15 0)
(8.88178e-14 1.48028e-14 0)
(2.22045e-14 -5.91038e-15 0)
(0 -1.29617e-14 0)
(-2.22045e-14 -2.49845e-14 0)
(2.22045e-14 -3.31741e-14 0)
(-4.44089e-14 -2.02155e-14 0)
(0 3.42694e-15 0)
(-4.44089e-14 1.69551e-14 0)
(-2.22045e-14 2.41632e-14 0)
(-4.44089e-14 1.23907e-14 0)
(2.22045e-14 -7.65234e-15 0)
(2.22045e-14 3.28073e-16 0)
(2.22045e-14 5.73058e-15 0)
(4.44089e-14 -5.1471e-15 0)
(2.22045e-14 -4.27399e-15 0)
(-2.22045e-14 2.81528e-15 0)
(-4.44089e-14 6.27956e-15 0)
(-2.22045e-14 -3.7479e-15 0)
(0 -1.13253e-14 0)
(-2.22045e-14 1.35941e-15 0)
(-4.44089e-14 2.93587e-14 0)
(2.22045e-14 4.52286e-15 0)
(0 5.62629e-15 0)
(2.22045e-14 -1.13388e-15 0)
(-6.66134e-14 -1.34955e-14 0)
(-4.44089e-14 -1.28837e-14 0)
(-4.44089e-14 3.62983e-16 0)
(-4.44089e-14 3.14866e-14 0)
(0 1.88003e-14 0)
(4.44089e-14 -1.75654e-15 0)
(0 -1.86283e-14 0)
(0 -1.7696e-14 0)
(4.44089e-14 -6.21083e-15 0)
(0 1.19813e-14 0)
(-4.44089e-14 8.63558e-15 0)
(0 -5.08965e-16 0)
(4.44089e-14 -3.04092e-15 0)
(0 -1.51769e-14 0)
(0 -9.90801e-15 0)
(0 -6.84041e-15 0)
(-8.88178e-14 -5.4649e-14 0)
(8.88178e-14 -9.61832e-15 0)
(0 9.08398e-15 0)
(0 3.19383e-14 0)
(0 2.36258e-14 0)
(0 1.77243e-14 0)
(0 7.98764e-16 0)
(-4.44089e-14 -3.75552e-16 0)
(4.44089e-14 -1.30498e-14 0)
(4.44089e-14 -1.41781e-14 0)
(-2.22045e-14 -9.14666e-15 0)
(-4.44089e-14 6.7912e-16 0)
(-6.66134e-14 1.14538e-14 0)
(0 2.42358e-15 0)
(4.44089e-14 -7.16915e-15 0)
(4.44089e-14 -5.6872e-15 0)
(-4.44089e-14 -6.40349e-15 0)
(6.66134e-14 -1.12743e-14 0)
(0 -1.52455e-14 0)
(0 -8.42256e-15 0)
(8.88178e-14 6.00647e-14 0)
(0 -2.06474e-14 0)
(-4.44089e-14 2.30632e-14 0)
(-4.44089e-14 1.42511e-14 0)
(-8.88178e-14 1.60204e-14 0)
(-4.44089e-14 1.46445e-14 0)
(-4.44089e-14 1.07414e-14 0)
(4.44089e-14 -8.07144e-15 0)
(0 -7.60259e-15 0)
(-4.44089e-14 -3.58095e-15 0)
(4.44089e-14 -8.34473e-16 0)
(0 3.94036e-15 0)
(0 9.26758e-15 0)
(-2.22045e-14 -9.32552e-15 0)
(-4.44089e-14 -1.76943e-14 0)
(4.44089e-14 -1.0059e-14 0)
(0 -3.44888e-15 0)
(-2.22045e-14 1.73172e-15 0)
(0 -9.23606e-15 0)
(2.22045e-14 -1.02046e-14 0)
(8.88178e-14 -3.11375e-15 0)
(-6.66134e-14 1.5645e-14 0)
(4.44089e-14 -1.19328e-14 0)
(2.22045e-14 1.62669e-15 0)
(2.22045e-14 1.87844e-14 0)
(-2.22045e-14 -6.28692e-15 0)
(-2.22045e-14 -1.07168e-14 0)
(0 -5.99247e-15 0)
(2.22045e-14 4.79434e-15 0)
(2.22045e-14 4.37048e-15 0)
(-2.22045e-14 -7.13395e-15 0)
(0 -1.47115e-14 0)
(0 8.35705e-15 0)
(0 1.27362e-14 0)
(4.44089e-14 -6.84024e-15 0)
(6.66134e-14 -1.23715e-14 0)
(-4.44089e-14 2.27073e-15 0)
(0 -3.73196e-15 0)
(0 -1.78445e-15 0)
(0 -2.47442e-15 0)
(0 7.5382e-15 0)
(0 3.26998e-14 0)
(-4.44089e-14 -1.99258e-14 0)
(-4.44089e-14 -8.07755e-15 0)
(0 1.63813e-14 0)
(0 3.69704e-15 0)
(-4.44089e-14 -3.52422e-14 0)
(-4.44089e-14 -4.63019e-14 0)
(-4.44089e-14 -2.21649e-14 0)
(0 5.86672e-15 0)
(4.44089e-14 1.27044e-14 0)
(2.22045e-14 8.56306e-15 0)
(-6.66134e-14 4.85836e-15 0)
(4.44089e-14 -7.80081e-15 0)
(4.44089e-14 -1.41075e-14 0)
(0 -5.29314e-15 0)
(4.44089e-14 1.97518e-15 0)
(4.44089e-14 -6.46101e-15 0)
(0 1.45976e-14 0)
(0 1.29522e-14 0)
(-4.44089e-14 1.36944e-13 0)
(2.22045e-14 -1.15177e-14 0)
(4.44089e-14 5.6527e-15 0)
(4.44089e-14 -9.85632e-15 0)
(0 -3.69762e-15 0)
(4.44089e-14 -1.44215e-15 0)
(4.44089e-14 -2.1798e-14 0)
(2.22045e-14 -2.93242e-14 0)
(-4.44089e-14 -2.03918e-14 0)
(-2.22045e-14 -6.47481e-17 0)
(0 1.68434e-14 0)
(-2.22045e-14 1.72961e-14 0)
(0 -6.98031e-16 0)
(2.22045e-14 -1.48888e-14 0)
(-2.22045e-14 -1.53393e-14 0)
(-6.66134e-14 -9.78642e-15 0)
(-4.44089e-14 -2.77021e-15 0)
(-2.22045e-14 6.11885e-15 0)
(0 1.54797e-14 0)
(0 1.16089e-14 0)
)
;

boundaryField
{
    movingWall
    {
        type            calculated;
        value           uniform (0 0 0);
    }
    fixedWalls
    {
        type            calculated;
        value           uniform (0 0 0);
    }
    frontAndBack
    {
        type            empty;
    }
}


// ************************************************************************* //
