/*--------------------------------*- C++ -*----------------------------------*\
| =========                 |                                                 |
| \\      /  F ield         | OpenFOAM: The Open Source CFD Toolbox           |
|  \\    /   O peration     | Version:  2506                                  |
|   \\  /    A nd           | Website:  www.openfoam.com                      |
|    \\/     M anipulation  |                                                 |
\*---------------------------------------------------------------------------*/
FoamFile
{
    version     2.0;
    format      ascii;
    arch        "LSB;label=32;scalar=64";
    class       volScalarField;
    location    "10";
    object      divPhi;
}
// * * * * * * * * * * * * * * * * * * * * * * * * * * * * * * * * * * * * * //

dimensions      [0 0 -1 0 0 0 0];

internalField   nonuniform List<scalar> 
400
(
-1.0842e-13
-2.1348e-14
1.34922e-14
-7.34587e-16
-8.81852e-15
3.94449e-15
5.40895e-15
-6.52048e-16
-2.76845e-15
-7.81273e-15
1.86179e-14
-1.70354e-14
7.86664e-15
9.68655e-15
-1.95866e-14
2.20224e-14
-2.15752e-14
1.91815e-15
2.15229e-14
0
-2.71051e-14
8.60774e-16
1.57259e-14
2.10309e-15
-9.91005e-15
4.38657e-16
2.33311e-14
-4.70816e-15
5.70905e-15
-1.93387e-14
5.86019e-15
2.51361e-14
-6.94375e-15
1.99729e-14
3.50875e-14
-2.43277e-14
6.01492e-15
2.98042e-16
2.73042e-15
-2.71051e-14
2.71051e-14
-3.96355e-17
-2.36912e-14
-9.39841e-15
-2.86525e-14
1.03193e-14
-2.98228e-15
-1.52528e-14
-9.40279e-15
1.70967e-14
1.05268e-14
-2.02796e-14
2.42008e-14
-2.09395e-14
2.3529e-14
-7.94286e-15
1.10974e-14
3.3046e-17
1.00626e-14
0
0
-1.28319e-14
1.90307e-14
-1.79443e-14
2.06523e-14
-1.32229e-15
-6.03108e-15
3.6342e-14
2.77562e-16
-2.67525e-14
4.3774e-14
8.63916e-15
1.35106e-14
5.41012e-15
1.27383e-15
9.70197e-15
7.51994e-15
1.05982e-14
1.24409e-14
0
0
3.62187e-15
-2.37592e-14
-9.27176e-15
8.83774e-15
-5.86731e-15
-6.46006e-15
-1.24055e-14
-1.13976e-14
1.71618e-14
-1.9746e-14
1.08339e-14
1.80518e-14
3.24461e-15
5.8708e-15
1.98993e-14
-4.24036e-15
1.47704e-14
1.0904e-14
0
0
1.08926e-14
-7.93594e-16
-1.22422e-14
1.64474e-14
2.69111e-14
-2.85991e-15
-2.99874e-15
-1.8553e-14
-4.8051e-15
5.57543e-15
2.6331e-14
-2.29484e-14
9.97633e-15
-9.08114e-15
-8.75041e-15
-9.90239e-15
-3.0482e-14
2.66347e-14
0
0
-3.02283e-15
1.44193e-14
-2.66907e-14
-2.36109e-14
1.25218e-14
-7.85528e-15
-1.9703e-14
3.78112e-14
-3.59761e-15
6.48832e-15
-3.49656e-14
2.06655e-14
2.08075e-14
-3.31104e-14
-2.08732e-14
-1.94121e-14
-7.8546e-15
8.56461e-15
0
2.71051e-14
-1.6308e-14
-2.42391e-14
6.59642e-15
-4.45102e-15
1.52949e-14
-1.66475e-15
2.641e-14
1.79811e-15
6.34645e-15
2.85664e-14
-1.40519e-15
-3.21985e-14
4.98512e-15
1.08074e-14
-1.00537e-14
1.71221e-14
-1.28896e-14
1.56402e-14
0
0
-3.93374e-15
3.28309e-15
4.48705e-15
-2.18497e-15
-1.25216e-14
-1.97419e-14
-1.43651e-14
-4.19274e-16
2.44341e-14
3.6658e-15
-3.23835e-15
-5.34901e-15
-4.92884e-15
9.83816e-15
-2.73141e-15
-4.04336e-14
1.79583e-14
-3.42518e-15
0
0
2.86132e-14
-3.21953e-14
3.83616e-15
7.38776e-16
-2.61587e-14
3.73165e-15
2.30129e-14
-2.5511e-15
2.79012e-15
-3.50998e-15
-6.8417e-15
3.16488e-15
-8.1265e-15
-1.52313e-14
1.55199e-14
-2.54612e-14
5.53879e-15
-2.02687e-14
0
0
9.46089e-15
1.1168e-14
-9.98994e-15
1.85551e-14
-1.19555e-14
3.71366e-14
-1.89851e-14
8.73662e-15
-9.25242e-15
3.7531e-15
1.21263e-14
-7.60954e-15
-3.48593e-15
2.46757e-14
-3.83797e-14
1.64409e-14
2.42421e-15
-1.86353e-15
0
-2.71051e-14
2.4323e-14
2.1727e-14
-1.75938e-14
-1.2604e-14
-2.16387e-14
1.54478e-14
1.34408e-14
4.08987e-15
-1.4125e-14
7.20629e-16
1.12914e-14
7.08207e-15
-3.81309e-15
-1.42781e-14
1.32683e-14
-3.886e-14
1.44248e-14
-2.21075e-14
0
-2.71051e-14
3.56617e-15
-1.38585e-14
3.5543e-14
-1.4619e-14
1.64747e-14
-1.31124e-14
2.98851e-14
8.22758e-15
3.06647e-14
-2.39344e-14
2.17122e-14
2.66166e-14
-5.01885e-15
-4.98562e-15
1.64818e-16
-1.03868e-14
-1.2929e-14
2.62067e-14
0
2.71051e-14
4.09089e-15
2.54542e-14
7.17845e-15
2.5447e-14
-3.71377e-14
-2.58064e-15
-6.50596e-15
2.21536e-14
-1.22257e-15
3.16713e-15
1.07223e-14
-2.38475e-14
-4.38416e-15
-1.62729e-14
-4.64231e-15
-5.56178e-15
7.40412e-15
-1.59545e-14
0
0
2.07921e-14
-9.24414e-15
1.91756e-14
-1.10896e-14
-1.862e-14
2.77224e-15
1.22187e-14
-3.0153e-14
5.39912e-15
-1.13084e-14
1.88289e-14
-3.67638e-15
1.42328e-15
-5.24856e-15
-1.29022e-14
-1.56589e-14
1.73001e-14
8.59774e-15
0
-2.71051e-14
-1.34234e-14
1.49169e-14
-3.98457e-14
1.68714e-15
5.57405e-15
2.6361e-14
2.97805e-15
7.83496e-15
8.31979e-15
-1.49843e-14
-7.79435e-15
-1.26218e-14
5.63964e-15
-1.78232e-14
-8.22985e-15
1.26802e-14
1.22512e-15
5.18673e-15
0
2.71051e-14
-7.63508e-15
-3.94212e-14
-6.3017e-16
-9.66007e-15
1.85888e-14
1.47763e-14
-3.6452e-15
-2.02693e-14
3.25273e-14
1.04905e-14
-1.37024e-14
-5.32629e-15
-2.61682e-15
-3.50846e-15
1.14233e-14
-1.84898e-14
1.77197e-14
1.84389e-15
2.71051e-14
0
3.63603e-15
-1.4597e-14
-1.97254e-14
-1.46155e-14
-7.06478e-15
-5.82441e-15
-1.75886e-14
1.41399e-14
2.58999e-14
2.84715e-15
1.25855e-14
-3.41212e-14
1.32949e-14
1.58282e-14
9.13675e-15
-5.75955e-15
-1.92694e-14
1.20511e-14
0
-2.71051e-14
1.12061e-14
-4.94775e-15
3.21695e-14
1.06813e-14
-1.7489e-14
-2.25661e-14
6.17855e-15
-1.23298e-14
7.06157e-15
6.65213e-15
1.01211e-15
-1.15534e-15
2.8107e-15
7.50481e-15
1.70314e-16
-1.06201e-15
-3.61647e-15
7.11957e-15
0
0
0
0
0
2.71051e-14
0
2.71051e-14
2.71051e-14
0
0
0
0
0
0
2.71051e-14
-2.71051e-14
0
0
0
0
)
;

boundaryField
{
    movingWall
    {
        type            extrapolatedCalculated;
        value           nonuniform List<scalar> 
20
(
0
0
0
0
2.71051e-14
0
2.71051e-14
2.71051e-14
0
0
0
0
0
0
2.71051e-14
-2.71051e-14
0
0
0
0
)
;
    }
    fixedWalls
    {
        type            extrapolatedCalculated;
        value           nonuniform List<scalar> 
60
(
-1.0842e-13
-2.71051e-14
2.71051e-14
0
0
0
0
2.71051e-14
0
0
0
-2.71051e-14
-2.71051e-14
2.71051e-14
0
-2.71051e-14
2.71051e-14
0
-2.71051e-14
0
0
-2.71051e-14
0
0
0
0
0
0
0
0
0
0
0
0
0
0
2.71051e-14
0
0
0
-1.0842e-13
-2.1348e-14
1.34922e-14
-7.34587e-16
-8.81852e-15
3.94449e-15
5.40895e-15
-6.52048e-16
-2.76845e-15
-7.81273e-15
1.86179e-14
-1.70354e-14
7.86664e-15
9.68655e-15
-1.95866e-14
2.20224e-14
-2.15752e-14
1.91815e-15
2.15229e-14
0
)
;
    }
    frontAndBack
    {
        type            empty;
    }
}


// ************************************************************************* //
