/*--------------------------------*- C++ -*----------------------------------*\
| =========                 |                                                 |
| \\      /  F ield         | OpenFOAM: The Open Source CFD Toolbox           |
|  \\    /   O peration     | Version:  2506                                  |
|   \\  /    A nd           | Website:  www.openfoam.com                      |
|    \\/     M anipulation  |                                                 |
\*---------------------------------------------------------------------------*/
FoamFile
{
    version     2.0;
    format      ascii;
    arch        "LSB;label=32;scalar=64";
    class       volScalarField;
    location    "10";
    object      divU;
}
// * * * * * * * * * * * * * * * * * * * * * * * * * * * * * * * * * * * * * //

dimensions      [0 0 -1 0 0 0 0];

internalField   nonuniform List<scalar> 
400
(
1.74014e-11
-2.13653e-12
4.11935e-13
-1.53474e-13
5.32268e-15
8.76179e-15
1.74225e-14
-1.34125e-14
-7.62753e-15
-1.44196e-14
2.08588e-14
1.97509e-14
-5.11694e-14
3.20829e-14
-2.11523e-15
-3.50898e-14
4.48627e-14
1.07645e-14
-3.20878e-14
0
-3.36103e-11
4.33803e-12
-8.73991e-13
3.17415e-13
-8.19328e-14
2.78095e-14
-2.45254e-14
2.66794e-14
3.90339e-14
-1.53344e-15
-2.66794e-14
-2.33748e-14
-8.26419e-15
3.45996e-14
5.11186e-14
-4.1951e-15
-5.43018e-14
-3.78031e-15
-3.03166e-14
2.71051e-14
1.5992e-11
-2.5718e-12
4.75079e-13
-2.42568e-13
3.34738e-14
-1.73254e-14
1.01657e-14
4.46222e-14
-4.23634e-14
-2.61246e-14
-5.71722e-15
7.93777e-14
2.93004e-15
-5.74856e-14
-1.01135e-14
5.63703e-14
-4.94023e-14
-3.73809e-15
4.48776e-14
0
1.12757e-11
1.01528e-14
-7.57131e-15
2.25704e-14
1.70372e-14
-4.72992e-15
2.57305e-14
-2.2005e-14
2.92602e-14
3.66147e-15
-1.78061e-14
3.99089e-15
9.9519e-15
2.94926e-15
-2.08177e-15
5.0455e-15
1.16204e-14
1.68838e-14
8.6109e-15
-2.71051e-14
-2.57498e-11
2.1683e-12
-4.15992e-13
1.36249e-13
-7.92678e-15
-2.75993e-14
1.26011e-14
1.74786e-14
-3.94111e-14
1.99203e-14
-2.3046e-16
4.17821e-15
1.72658e-14
1.03994e-14
1.01078e-14
2.17691e-14
-4.90853e-15
-2.28793e-14
1.51287e-14
0
2.05727e-11
-2.24559e-12
4.59011e-13
-2.19451e-13
3.47185e-14
-3.61538e-15
2.69631e-14
-1.68194e-15
-1.3832e-14
-6.96102e-15
1.83569e-14
5.50065e-15
1.07488e-15
-4.52837e-15
-1.01704e-14
-1.16666e-14
-1.16512e-14
7.42471e-15
-3.17101e-15
0
5.01444e-12
-1.28202e-12
2.45469e-13
-8.84375e-14
6.36036e-14
-4.0988e-14
1.66543e-14
-8.94511e-16
1.12579e-14
-6.06453e-15
4.80721e-15
-5.43492e-14
2.60551e-14
3.28531e-14
-4.03638e-14
-2.254e-14
-1.4671e-14
1.34651e-14
-1.79462e-14
0
-2.69695e-11
4.60517e-12
-9.42857e-13
3.64155e-13
-2.44851e-14
-1.60282e-14
-2.96176e-15
6.08786e-14
-3.0516e-14
4.50651e-14
-3.66414e-16
-1.09885e-14
-3.58495e-14
1.21101e-15
1.35626e-14
6.1462e-16
1.19818e-14
3.89105e-14
-1.06854e-14
0
2.60209e-11
-4.27085e-12
7.83501e-13
-3.37982e-13
4.96367e-14
-9.01997e-15
1.11708e-14
-2.1114e-14
2.47412e-14
-4.36013e-14
-3.1556e-15
-7.36919e-15
1.96849e-15
1.81947e-17
2.20253e-14
-7.04824e-14
4.03919e-14
3.36268e-14
-7.54263e-15
-2.71051e-14
-1.17094e-11
2.18654e-12
-4.03956e-13
1.90257e-13
-6.10185e-14
-2.1595e-14
4.62149e-15
2.46979e-14
3.0788e-14
8.51936e-15
3.25316e-15
2.30147e-15
-3.14485e-14
9.33901e-15
-5.07135e-14
5.15688e-14
1.22379e-14
-4.18458e-14
3.39916e-14
0
-7.02021e-12
1.42299e-12
-2.20237e-13
1.01709e-13
-1.93371e-14
-1.81214e-14
8.77623e-15
4.39846e-14
-2.25139e-14
-8.29937e-15
4.68827e-15
8.18214e-15
-3.4105e-15
3.46675e-14
1.80579e-14
-3.50309e-14
-1.52653e-14
6.37706e-14
1.85217e-15
0
2.17383e-11
-4.2129e-12
8.3027e-13
-3.33386e-13
4.56413e-14
1.38648e-14
1.22378e-14
-2.25621e-14
1.10228e-14
-1.24273e-14
-4.8482e-15
9.06674e-15
3.54045e-15
-1.10264e-14
2.04045e-14
-4.86276e-14
7.89059e-15
-1.78524e-15
3.14391e-14
-2.71051e-14
-2.56956e-11
4.95949e-12
-9.31772e-13
4.24786e-13
-1.26055e-13
-2.16556e-14
4.41419e-14
3.34688e-14
-8.266e-15
-2.78218e-15
-1.11795e-14
2.97105e-14
6.10176e-14
-5.57174e-14
-3.70952e-15
4.36279e-15
3.59688e-16
-4.74085e-15
4.84816e-14
0
1.72388e-11
-3.40845e-12
6.38269e-13
-2.76173e-13
3.5158e-14
1.92585e-14
-2.86189e-15
-7.36477e-15
1.40388e-14
2.69259e-14
-1.56644e-14
-5.22488e-14
-3.75332e-15
-3.14035e-15
-2.20737e-14
-1.48533e-14
-4.62667e-14
4.71465e-14
1.43362e-14
-2.71051e-14
1.40946e-12
8.49138e-13
-1.78304e-13
6.08492e-14
-4.15311e-14
1.8244e-14
6.4382e-15
1.76027e-14
-6.3218e-14
3.64009e-14
2.12849e-15
-3.61916e-15
2.5909e-14
-2.80109e-14
-1.21392e-15
3.0086e-14
5.10676e-14
-1.65338e-14
-1.76795e-14
0
-2.02204e-11
2.25233e-12
-4.19744e-13
1.52055e-13
9.10485e-15
-3.64888e-14
-1.16863e-14
-8.44565e-15
3.64936e-15
3.5868e-14
-6.52467e-14
-5.07868e-15
5.04326e-15
2.68325e-15
-1.47849e-14
-5.11443e-14
-1.87575e-15
6.04816e-14
1.11221e-14
0
2.4259e-11
-3.00793e-12
5.03202e-13
-2.49658e-13
-4.31495e-14
5.12259e-14
-9.27692e-15
2.91917e-14
-4.91797e-14
3.43464e-14
8.01291e-15
-1.71374e-14
3.26223e-14
-1.62861e-15
1.64235e-14
2.2603e-14
2.48556e-14
-5.6489e-15
2.55304e-14
-2.71051e-14
-5.09575e-12
1.88633e-12
-3.67605e-13
1.82178e-13
-1.77475e-14
-2.31461e-16
-1.54513e-14
-1.98183e-14
4.53981e-14
1.69957e-14
-1.63653e-14
7.42014e-15
-2.53485e-14
2.09444e-14
-7.85176e-15
4.98413e-15
-4.34162e-14
-3.21812e-14
7.10843e-15
0
-1.95427e-11
4.00201e-13
-1.12103e-13
3.05844e-14
1.75251e-14
-1.96104e-14
-6.63177e-14
4.24282e-14
-7.77617e-15
1.4759e-14
5.16373e-14
6.06106e-15
-4.57134e-14
-5.31658e-15
-1.86339e-14
2.71662e-15
6.14909e-14
-1.77846e-14
3.49505e-14
-2.71051e-14
1.40946e-11
-1.27394e-12
2.98156e-13
-8.13152e-14
2.71051e-14
0
2.71051e-14
0
0
0
-5.42101e-14
0
2.71051e-14
0
0
0
0
-2.71051e-14
5.42101e-14
0
)
;

boundaryField
{
    movingWall
    {
        type            extrapolatedCalculated;
        value           nonuniform List<scalar> 
20
(
1.40946e-11
-1.27394e-12
2.98156e-13
-8.13152e-14
2.71051e-14
0
2.71051e-14
0
0
0
-5.42101e-14
0
2.71051e-14
0
0
0
0
-2.71051e-14
5.42101e-14
0
)
;
    }
    fixedWalls
    {
        type            extrapolatedCalculated;
        value           nonuniform List<scalar> 
60
(
1.74014e-11
-3.36103e-11
1.5992e-11
1.12757e-11
-2.57498e-11
2.05727e-11
5.01444e-12
-2.69695e-11
2.60209e-11
-1.17094e-11
-7.02021e-12
2.17383e-11
-2.56956e-11
1.72388e-11
1.40946e-12
-2.02204e-11
2.4259e-11
-5.09575e-12
-1.95427e-11
1.40946e-11
0
2.71051e-14
0
-2.71051e-14
0
0
0
0
-2.71051e-14
0
0
-2.71051e-14
0
-2.71051e-14
0
0
-2.71051e-14
0
-2.71051e-14
0
1.74014e-11
-2.13653e-12
4.11935e-13
-1.53474e-13
5.32268e-15
8.76179e-15
1.74225e-14
-1.34125e-14
-7.62753e-15
-1.44196e-14
2.08588e-14
1.97509e-14
-5.11694e-14
3.20829e-14
-2.11523e-15
-3.50898e-14
4.48627e-14
1.07645e-14
-3.20878e-14
0
)
;
    }
    frontAndBack
    {
        type            empty;
    }
}


// ************************************************************************* //
