/*--------------------------------*- C++ -*----------------------------------*\
| =========                 |                                                 |
| \\      /  F ield         | OpenFOAM: The Open Source CFD Toolbox           |
|  \\    /   O peration     | Version:  2506                                  |
|   \\  /    A nd           | Website:  www.openfoam.com                      |
|    \\/     M anipulation  |                                                 |
\*---------------------------------------------------------------------------*/
FoamFile
{
    version     2.0;
    format      ascii;
    arch        "LSB;label=32;scalar=64";
    class       volScalarField;
    location    "10";
    object      dpdt2;
}
// * * * * * * * * * * * * * * * * * * * * * * * * * * * * * * * * * * * * * //

dimensions      [0 4 -6 0 0 0 0];

internalField   nonuniform List<scalar> 
400
(
2.22988e-26
3.61632e-25
7.77966e-25
1.19702e-24
1.44471e-24
1.64544e-24
1.96145e-24
2.17763e-24
2.42229e-24
2.89489e-24
3.28896e-24
3.46746e-24
3.5703e-24
3.56853e-24
3.85676e-24
3.70372e-24
3.2932e-24
2.87735e-24
3.22146e-24
3.16276e-24
2.60039e-25
5.06389e-25
8.06262e-25
1.12877e-24
1.44927e-24
1.61525e-24
2.00113e-24
2.24214e-24
2.53744e-24
3.05305e-24
3.41884e-24
3.52493e-24
3.56363e-24
3.53059e-24
3.59276e-24
3.51715e-24
3.41412e-24
3.168e-24
3.12812e-24
3.1046e-24
6.41336e-25
6.70625e-25
9.89368e-25
1.21824e-24
1.5454e-24
1.81961e-24
1.9544e-24
2.27814e-24
2.63443e-24
3.07636e-24
3.38044e-24
3.42885e-24
3.56853e-24
3.59572e-24
3.36761e-24
3.31528e-24
3.42846e-24
3.20908e-24
3.00509e-24
3.02379e-24
9.9196e-25
9.77267e-25
1.29317e-24
1.61364e-24
1.81571e-24
2.04239e-24
2.15465e-24
2.35899e-24
2.64034e-24
3.02394e-24
3.24897e-24
3.25874e-24
3.32773e-24
3.416e-24
3.3071e-24
3.27418e-24
3.2953e-24
3.19108e-24
3.10644e-24
3.15313e-24
1.24211e-24
1.36391e-24
1.59465e-24
1.79762e-24
1.9502e-24
2.1659e-24
2.35474e-24
2.42534e-24
2.76317e-24
2.95817e-24
3.09125e-24
3.08422e-24
3.13343e-24
3.09e-24
3.14985e-24
3.16881e-24
3.21836e-24
3.08592e-24
3.13506e-24
3.13718e-24
1.62588e-24
1.8377e-24
1.94166e-24
2.08613e-24
2.20474e-24
2.336e-24
2.41112e-24
2.51292e-24
2.69281e-24
2.97957e-24
3.09929e-24
2.97185e-24
2.93159e-24
2.98664e-24
3.08528e-24
3.01185e-24
3.03759e-24
3.18208e-24
3.17127e-24
2.93374e-24
2.04481e-24
2.24142e-24
2.22551e-24
2.21558e-24
2.37809e-24
2.42934e-24
2.48595e-24
2.63113e-24
2.74282e-24
3.01989e-24
3.16984e-24
3.02166e-24
2.86449e-24
3.058e-24
2.96925e-24
2.95579e-24
2.88571e-24
3.13545e-24
3.13396e-24
2.87436e-24
2.43907e-24
2.48556e-24
2.43948e-24
2.38746e-24
2.49771e-24
2.60454e-24
2.51945e-24
2.61126e-24
2.92134e-24
2.88264e-24
3.27466e-24
3.4173e-24
3.01018e-24
3.02241e-24
3.04529e-24
3.0321e-24
3.0765e-24
3.18757e-24
3.10507e-24
2.93102e-24
2.73906e-24
2.68851e-24
2.55729e-24
2.56411e-24
2.59256e-24
2.6255e-24
2.67879e-24
2.7606e-24
2.94014e-24
2.91324e-24
3.09924e-24
3.39017e-24
3.20787e-24
3.06879e-24
3.06401e-24
3.16625e-24
3.0806e-24
3.26937e-24
3.16992e-24
3.00339e-24
2.90708e-24
2.79444e-24
2.67887e-24
2.87325e-24
2.80108e-24
2.84567e-24
2.83077e-24
2.92041e-24
2.98723e-24
3.1681e-24
3.19557e-24
3.20818e-24
3.43157e-24
3.2618e-24
3.22782e-24
3.22621e-24
3.27823e-24
3.30602e-24
2.97045e-24
3.1015e-24
3.07195e-24
3.04067e-24
2.99681e-24
3.07727e-24
3.07168e-24
3.09958e-24
3.05657e-24
3.00204e-24
3.24669e-24
3.25885e-24
3.38888e-24
3.5286e-24
3.51498e-24
3.44406e-24
3.44181e-24
3.43215e-24
3.3486e-24
3.28908e-24
3.20894e-24
3.1411e-24
3.26564e-24
3.25824e-24
3.21734e-24
3.28922e-24
3.21251e-24
3.29387e-24
3.27682e-24
3.22085e-24
3.31336e-24
3.42155e-24
3.54142e-24
3.66242e-24
3.72446e-24
3.62298e-24
3.3646e-24
3.31903e-24
3.26224e-24
3.32163e-24
3.27807e-24
3.30867e-24
3.47098e-24
3.38942e-24
3.50809e-24
3.47118e-24
3.42282e-24
3.4711e-24
3.45073e-24
3.4227e-24
3.49419e-24
3.49664e-24
3.6587e-24
3.75265e-24
3.97773e-24
3.70751e-24
3.48945e-24
3.29709e-24
3.39803e-24
3.36632e-24
3.0889e-24
3.51213e-24
3.85317e-24
3.81396e-24
3.81531e-24
3.73831e-24
3.5752e-24
3.5273e-24
3.42816e-24
3.38562e-24
3.48348e-24
3.50895e-24
3.61537e-24
3.75345e-24
3.82496e-24
3.73005e-24
3.64433e-24
3.56851e-24
3.67148e-24
3.35306e-24
3.27654e-24
3.34073e-24
3.95292e-24
4.06928e-24
4.03088e-24
4.02199e-24
3.82132e-24
3.53846e-24
3.39998e-24
3.33817e-24
3.40263e-24
3.45888e-24
3.79405e-24
3.8051e-24
3.80815e-24
3.76784e-24
3.6657e-24
3.59875e-24
3.62209e-24
3.50215e-24
3.30259e-24
3.4359e-24
4.07636e-24
4.17951e-24
4.12715e-24
4.06997e-24
4.01387e-24
3.82402e-24
3.58235e-24
3.24874e-24
3.34533e-24
3.47307e-24
3.79013e-24
3.83383e-24
3.90873e-24
3.7896e-24
3.81045e-24
3.82222e-24
3.72044e-24
3.50689e-24
3.40172e-24
3.46447e-24
4.23585e-24
4.14007e-24
4.14043e-24
4.08493e-24
4.16242e-24
3.69286e-24
3.64293e-24
3.45046e-24
3.44169e-24
3.51544e-24
3.95944e-24
3.8953e-24
3.878e-24
3.90165e-24
3.9053e-24
3.74691e-24
3.73376e-24
3.66938e-24
3.61266e-24
3.55677e-24
4.35739e-24
4.15888e-24
4.06821e-24
4.10593e-24
4.09721e-24
3.98042e-24
3.7338e-24
3.59284e-24
3.62079e-24
3.8116e-24
4.03059e-24
3.94938e-24
3.8373e-24
3.9065e-24
3.98899e-24
3.85387e-24
3.82045e-24
3.74787e-24
3.65042e-24
3.59407e-24
4.17525e-24
4.28945e-24
4.2819e-24
4.23672e-24
3.99991e-24
4.13207e-24
4.00166e-24
3.83989e-24
3.69512e-24
3.77313e-24
4.0005e-24
4.10918e-24
3.89223e-24
3.9997e-24
4.07262e-24
3.86599e-24
3.7993e-24
3.87644e-24
3.70257e-24
3.57535e-24
4.13374e-24
4.22758e-24
4.30715e-24
4.41304e-24
4.02005e-24
4.09378e-24
4.35417e-24
4.29659e-24
4.03529e-24
3.90798e-24
3.91778e-24
4.06232e-24
3.94264e-24
4.09228e-24
4.11601e-24
3.96362e-24
3.91113e-24
3.75749e-24
3.49217e-24
3.43189e-24
)
;

boundaryField
{
    movingWall
    {
        type            calculated;
        value           nonuniform List<scalar> 
20
(
4.13374e-24
4.22758e-24
4.30715e-24
4.41304e-24
4.02005e-24
4.09378e-24
4.35417e-24
4.29659e-24
4.03529e-24
3.90798e-24
3.91778e-24
4.06232e-24
3.94264e-24
4.09228e-24
4.11601e-24
3.96362e-24
3.91113e-24
3.75749e-24
3.49217e-24
3.43189e-24
)
;
    }
    fixedWalls
    {
        type            calculated;
        value           nonuniform List<scalar> 
60
(
2.22988e-26
2.60039e-25
6.41336e-25
9.9196e-25
1.24211e-24
1.62588e-24
2.04481e-24
2.43907e-24
2.73906e-24
2.90708e-24
3.07195e-24
3.26564e-24
3.47098e-24
3.85317e-24
3.95292e-24
4.07636e-24
4.23585e-24
4.35739e-24
4.17525e-24
4.13374e-24
3.16276e-24
3.1046e-24
3.02379e-24
3.15313e-24
3.13718e-24
2.93374e-24
2.87436e-24
2.93102e-24
3.00339e-24
3.1015e-24
3.1411e-24
3.30867e-24
3.51213e-24
3.34073e-24
3.4359e-24
3.46447e-24
3.55677e-24
3.59407e-24
3.57535e-24
3.43189e-24
2.22988e-26
3.61632e-25
7.77966e-25
1.19702e-24
1.44471e-24
1.64544e-24
1.96145e-24
2.17763e-24
2.42229e-24
2.89489e-24
3.28896e-24
3.46746e-24
3.5703e-24
3.56853e-24
3.85676e-24
3.70372e-24
3.2932e-24
2.87735e-24
3.22146e-24
3.16276e-24
)
;
    }
    frontAndBack
    {
        type            empty;
    }
}


// ************************************************************************* //
