/*--------------------------------*- C++ -*----------------------------------*\
| =========                 |                                                 |
| \\      /  F ield         | OpenFOAM: The Open Source CFD Toolbox           |
|  \\    /   O peration     | Version:  2506                                  |
|   \\  /    A nd           | Website:  www.openfoam.com                      |
|    \\/     M anipulation  |                                                 |
\*---------------------------------------------------------------------------*/
FoamFile
{
    version     2.0;
    format      ascii;
    arch        "LSB;label=32;scalar=64";
    class       volScalarField;
    location    "10";
    object      dUdt2;
}
// * * * * * * * * * * * * * * * * * * * * * * * * * * * * * * * * * * * * * //

dimensions      [0 2 -4 0 0 0 0];

internalField   nonuniform List<scalar> 
400
(
2.63818e-26
1.41021e-27
6.87905e-31
3.51268e-28
5.85901e-28
4.79407e-27
2.1653e-27
7.89702e-27
4.54939e-27
2.01019e-27
1.97317e-27
1.25625e-28
7.55389e-28
2.19525e-28
1.85494e-28
2.11997e-27
2.18116e-27
2.06627e-27
7.34723e-28
2.0345e-27
4.26308e-26
8.31861e-27
8.20232e-27
2.36781e-27
2.21369e-27
2.00108e-27
2.10173e-27
9.29994e-33
3.94087e-28
2.78718e-28
1.98347e-27
1.28698e-31
2.18402e-27
1.20889e-28
4.94594e-28
2.26056e-27
2.52001e-27
4.22337e-28
4.06454e-28
1.17343e-28
8.2334e-27
3.00974e-27
2.43168e-27
8.21395e-27
1.88768e-29
1.7432e-28
1.97264e-27
1.61221e-29
4.65166e-27
2.9564e-28
7.91011e-27
7.21551e-29
5.13523e-29
1.99264e-27
7.92857e-27
3.90115e-29
1.97841e-29
2.12603e-27
1.98234e-27
6.2187e-30
3.63078e-28
5.49276e-27
4.16837e-28
2.07843e-27
1.99547e-27
4.47229e-27
7.35149e-28
5.4236e-28
6.00778e-28
3.63911e-29
5.04967e-28
1.97638e-27
5.21617e-28
1.26213e-28
5.23969e-28
5.38983e-28
7.1561e-29
5.04134e-28
4.9835e-28
5.13385e-28
2.94709e-26
4.06492e-29
1.01628e-27
1.34063e-28
1.01692e-27
4.21208e-28
1.36601e-28
1.97267e-27
1.97434e-27
2.06127e-27
4.34249e-29
4.94201e-28
5.90827e-28
2.33789e-27
3.84612e-28
7.16297e-28
3.09256e-29
5.04158e-28
1.00455e-29
6.04119e-28
2.0155e-28
2.90008e-27
1.17431e-28
3.31459e-28
5.60034e-27
8.95559e-28
1.97507e-27
2.00194e-27
1.31871e-29
3.05459e-29
1.97744e-27
5.78946e-28
2.25951e-27
2.85193e-30
2.22766e-27
2.28817e-28
8.32537e-29
7.61086e-28
6.36157e-28
6.5931e-28
2.26493e-27
1.3656e-27
2.00167e-29
5.35245e-28
4.0586e-30
1.89389e-28
4.98424e-28
7.46128e-31
5.33996e-28
2.16363e-27
1.30709e-30
2.29577e-28
3.00575e-30
1.98567e-27
3.93688e-30
1.2292e-30
5.1679e-28
5.01085e-28
5.46953e-28
1.97998e-27
9.17244e-27
1.99823e-27
1.97912e-27
3.04024e-29
7.86323e-29
1.31149e-29
1.97857e-27
2.12807e-27
6.74124e-31
5.29349e-28
2.27856e-27
2.37475e-27
3.93378e-28
4.50351e-29
2.02305e-27
1.97653e-27
1.34028e-31
2.85037e-29
5.84141e-28
1.19795e-28
2.10533e-27
2.04679e-27
5.03618e-28
7.34387e-28
5.03681e-28
6.95809e-28
4.93068e-28
6.59589e-28
5.50932e-28
2.4151e-27
1.99988e-27
2.1628e-27
2.36376e-27
1.23227e-29
7.89365e-27
2.01696e-27
2.04185e-27
1.98575e-27
1.92018e-28
5.27712e-28
9.63895e-27
1.91214e-29
2.42677e-28
2.39331e-27
1.83976e-28
1.20878e-30
9.97358e-29
1.97223e-27
1.45834e-28
2.41512e-27
4.11533e-28
2.05438e-29
1.66687e-28
1.35458e-28
4.11165e-28
2.39823e-28
2.05733e-27
3.76165e-28
2.16857e-27
1.9731e-27
1.99593e-26
1.98227e-27
1.4828e-28
1.70892e-30
1.37708e-28
7.33703e-28
2.78646e-27
4.66896e-27
4.4419e-27
5.38785e-28
5.06052e-28
3.13288e-28
6.68842e-29
1.07853e-28
1.97248e-27
2.01042e-27
4.58834e-27
2.04979e-27
6.58885e-28
9.42832e-29
2.24162e-27
9.08092e-30
1.07002e-29
2.36757e-27
2.15326e-27
4.63941e-27
1.13588e-27
7.9213e-28
4.93685e-28
1.996e-27
5.28822e-28
4.47894e-27
5.4389e-28
3.00304e-28
5.53313e-28
3.21144e-28
2.91125e-29
5.04702e-28
1.41465e-28
3.00504e-28
2.5806e-27
3.57434e-27
1.10714e-27
2.80993e-27
3.85178e-28
1.99196e-27
1.0413e-30
2.16551e-30
1.10139e-29
2.02183e-27
3.2995e-29
2.02797e-27
4.44293e-27
2.18393e-27
2.24226e-27
1.97282e-27
5.34726e-31
2.17778e-27
8.64858e-29
7.89084e-27
8.10773e-27
5.27971e-28
1.68006e-28
1.11726e-27
1.59356e-27
2.38082e-27
1.17439e-29
2.25963e-27
1.0769e-27
2.12568e-27
5.51596e-28
4.93146e-28
5.25878e-28
1.99864e-27
5.11305e-28
5.00964e-28
2.01159e-27
5.07085e-28
1.28263e-28
4.94886e-28
2.83409e-27
5.13494e-28
3.16551e-29
4.94324e-28
4.61947e-27
2.13814e-27
1.97228e-27
2.96356e-27
3.53453e-28
1.97524e-27
3.47013e-28
3.13148e-28
2.01073e-27
1.43553e-28
2.04673e-27
2.59045e-31
1.9814e-27
2.30338e-28
9.81686e-29
4.67913e-29
1.08751e-26
7.98112e-27
8.25188e-29
1.02006e-27
5.58179e-28
3.14151e-28
6.38024e-31
1.97229e-27
2.14245e-27
2.17317e-27
5.76699e-28
1.97261e-27
4.56853e-27
5.87374e-30
2.02355e-27
2.0045e-27
2.01316e-27
4.56445e-27
2.32427e-28
7.09396e-29
1.14964e-26
4.26316e-28
2.50406e-27
2.17525e-27
8.14526e-27
2.18661e-27
2.08753e-27
2.0373e-27
5.77993e-29
1.98498e-27
1.97285e-27
1.55265e-29
8.58881e-29
5.80003e-28
2.28524e-27
2.07334e-27
1.18947e-29
4.96037e-28
8.53048e-29
5.97173e-28
7.8983e-27
4.68211e-27
2.11454e-27
4.95684e-28
8.45893e-28
5.32563e-28
6.07888e-28
3.59097e-29
5.16024e-28
5.12139e-28
5.43931e-28
2.16429e-28
6.98403e-29
1.62211e-28
2.01894e-27
4.5904e-27
1.97731e-27
1.39275e-29
3.18424e-30
6.12275e-30
5.68244e-29
1.06928e-27
2.36919e-27
2.0374e-27
2.68346e-28
1.36681e-29
3.21416e-27
4.11602e-27
2.46344e-27
3.44184e-29
2.13356e-27
5.66364e-28
4.46095e-27
2.033e-27
2.17117e-27
2.80173e-29
1.97605e-27
2.0139e-27
2.1309e-28
1.67759e-28
2.07258e-26
6.25696e-28
2.00411e-27
2.0693e-27
1.36724e-29
1.97423e-27
2.44731e-27
1.35295e-27
2.38798e-27
4.93042e-28
2.83701e-28
7.92192e-28
4.87247e-31
7.14714e-28
7.28333e-28
4.53312e-27
1.97983e-27
5.30478e-28
2.39621e-28
1.34767e-28
)
;

boundaryField
{
    movingWall
    {
        type            calculated;
        value           uniform 0;
    }
    fixedWalls
    {
        type            calculated;
        value           uniform 0;
    }
    frontAndBack
    {
        type            empty;
    }
}


// ************************************************************************* //
