/*--------------------------------*- C++ -*----------------------------------*\
| =========                 |                                                 |
| \\      /  F ield         | OpenFOAM: The Open Source CFD Toolbox           |
|  \\    /   O peration     | Version:  2506                                  |
|   \\  /    A nd           | Website:  www.openfoam.com                      |
|    \\/     M anipulation  |                                                 |
\*---------------------------------------------------------------------------*/
FoamFile
{
    version     2.0;
    format      ascii;
    arch        "LSB;label=32;scalar=64";
    class       volScalarField;
    location    "10";
    object      enstrophyField;
}
// * * * * * * * * * * * * * * * * * * * * * * * * * * * * * * * * * * * * * //

dimensions      [0 0 -2 0 0 0 0];

internalField   nonuniform List<scalar> 
400
(
9.31131e-23
1.65626e-22
8.20655e-24
5.26978e-25
1.84363e-26
3.35478e-28
3.29713e-27
1.04798e-27
9.05936e-28
1.44555e-27
1.49414e-27
1.14893e-27
6.12524e-28
1.03464e-27
6.18142e-29
7.18502e-30
2.94466e-29
3.58658e-29
3.92551e-29
1.1333e-27
1.10333e-24
7.50054e-25
1.03388e-26
1.73594e-26
8.82365e-27
4.47621e-27
9.87942e-27
5.49527e-29
5.65718e-29
4.184e-28
5.68369e-28
6.66321e-29
2.56935e-28
6.35383e-30
6.20986e-27
1.28873e-27
3.86048e-28
1.25528e-27
2.02825e-27
9.95771e-28
1.71333e-23
9.56897e-23
5.29232e-24
2.55004e-25
3.37529e-26
6.92283e-28
1.00389e-26
9.33793e-27
7.2198e-27
7.41103e-27
3.4165e-27
1.31872e-27
3.36095e-27
1.3835e-27
1.08239e-28
1.14093e-27
1.41054e-27
3.22648e-27
1.23355e-27
5.50495e-29
2.22163e-23
9.35691e-23
4.85496e-24
2.80634e-25
5.5747e-27
7.39615e-27
2.27184e-27
3.96326e-30
5.0871e-28
4.91203e-28
1.55577e-27
1.1721e-27
3.85614e-28
2.37096e-27
6.65587e-27
1.04562e-27
5.81393e-28
2.40369e-27
2.61607e-28
1.91797e-29
4.98139e-24
3.26791e-24
1.86044e-25
1.13056e-26
3.46968e-30
1.35633e-29
8.31674e-30
3.86957e-28
5.62267e-30
2.15117e-27
1.80591e-30
1.32105e-29
7.05775e-32
3.42638e-30
4.09739e-29
1.7661e-27
1.77339e-28
7.69132e-28
3.248e-28
1.76421e-27
1.81148e-23
6.56802e-23
3.48952e-24
1.69918e-25
1.87382e-26
3.31176e-28
2.43129e-28
4.08657e-28
3.43046e-28
2.40442e-31
4.47692e-29
1.2371e-27
1.84875e-27
4.77829e-29
4.32835e-28
2.3575e-29
4.29776e-29
1.84003e-28
5.0883e-30
2.7144e-29
6.925e-23
1.49467e-22
8.6234e-24
3.56689e-25
3.75102e-26
2.14627e-28
3.89866e-27
7.61923e-28
5.41349e-27
3.67271e-27
6.20714e-27
4.57034e-27
4.2131e-27
1.39078e-27
4.47031e-29
3.48392e-29
7.90645e-31
1.5605e-31
5.10116e-28
6.4643e-30
1.22281e-23
2.77601e-23
1.46634e-24
8.76991e-26
4.13356e-27
8.22666e-28
1.16205e-27
1.50127e-28
3.89419e-28
1.3226e-28
4.50938e-28
2.4194e-29
5.02352e-28
4.77079e-27
6.25786e-28
1.86937e-27
6.03699e-28
7.34932e-30
3.9843e-29
1.38631e-29
1.41652e-23
2.65881e-23
1.42508e-24
5.67628e-26
8.01752e-27
6.11835e-28
2.08785e-27
2.07603e-27
2.39577e-27
7.39811e-27
3.7053e-27
4.67055e-27
2.08165e-27
2.23955e-28
2.62423e-27
1.7278e-28
1.66801e-27
3.421e-29
4.32484e-28
1.33467e-28
8.48551e-23
1.40727e-22
7.76418e-24
3.64623e-25
3.53396e-26
1.92686e-27
5.69626e-27
5.47217e-30
5.97941e-28
8.72884e-28
2.27262e-27
5.69594e-28
6.6646e-28
2.25789e-27
3.9371e-27
1.48146e-27
6.11254e-28
3.1523e-28
3.02232e-30
1.05269e-28
1.10389e-22
1.64544e-22
9.40778e-24
4.28595e-25
4.1464e-26
1.28264e-27
6.57265e-27
3.0592e-28
3.7863e-29
8.5502e-28
5.81249e-28
4.51072e-31
7.13228e-28
5.57133e-28
5.013e-28
1.02361e-27
2.97028e-27
5.62868e-30
6.74026e-29
2.57508e-28
3.56582e-23
5.82702e-23
3.19671e-24
1.581e-25
1.41359e-26
3.01395e-28
8.41936e-29
2.11158e-28
7.11899e-28
4.44339e-27
4.12289e-27
1.99123e-28
1.45545e-28
3.84863e-28
2.47707e-27
2.1868e-27
1.44644e-29
2.19945e-29
7.063e-32
1.05298e-29
1.22366e-24
1.89349e-24
5.15215e-26
1.41293e-26
7.11848e-28
1.67941e-27
1.27793e-27
1.19416e-27
3.80839e-28
3.44746e-27
8.90723e-28
1.20709e-28
4.59576e-30
7.21428e-28
9.38993e-32
3.55929e-30
1.97855e-30
4.7304e-30
1.71565e-30
1.76591e-32
3.84743e-23
8.22918e-23
4.53777e-24
2.10315e-25
1.84069e-26
9.20134e-28
3.7545e-30
1.28385e-27
2.63993e-27
7.11536e-31
5.6853e-28
2.99969e-30
1.41135e-27
6.58395e-32
1.47788e-29
9.81594e-31
2.53073e-29
4.19902e-29
1.1066e-30
5.29692e-29
7.2066e-23
1.47098e-22
8.45411e-24
3.34553e-25
2.96108e-26
1.74573e-27
9.6254e-27
8.30225e-27
4.71938e-27
3.1928e-27
1.98234e-27
2.02705e-27
1.25949e-27
4.02636e-27
4.16516e-27
1.55242e-27
7.44318e-29
6.66796e-29
5.54696e-30
6.05582e-28
3.07949e-23
5.33697e-23
2.96142e-24
1.81441e-25
1.11147e-28
2.46374e-27
2.70089e-28
6.43842e-28
1.31328e-27
1.06047e-28
1.18953e-27
8.17444e-29
2.26728e-29
1.9625e-27
5.50246e-28
1.66174e-27
2.67457e-29
1.63586e-27
2.10785e-28
5.50421e-29
1.35658e-24
1.65953e-24
9.0538e-26
1.31028e-28
2.12641e-27
4.67735e-29
2.92717e-27
3.55369e-27
7.35402e-27
5.89076e-27
3.06463e-29
3.16443e-27
3.22301e-27
7.40875e-28
5.19884e-27
2.11032e-27
2.50602e-27
9.2845e-28
3.85725e-30
5.8896e-29
6.8352e-24
7.23509e-23
3.85649e-24
2.43647e-25
2.30803e-27
7.09071e-27
3.32802e-27
4.86222e-27
2.60796e-27
4.82038e-30
3.73402e-27
3.66127e-27
1.04847e-28
1.22017e-27
4.34748e-29
1.841e-28
9.04992e-28
7.56532e-28
2.26625e-28
1.7508e-31
1.05785e-23
2.01348e-23
1.24999e-24
4.99552e-26
6.5925e-27
1.00018e-28
8.22742e-27
4.22954e-27
3.44639e-29
1.35247e-28
1.00032e-29
2.50401e-28
4.57498e-31
5.08903e-28
2.20155e-29
3.52774e-28
1.28957e-30
6.7588e-29
2.3068e-27
1.57823e-28
7.40922e-24
2.86408e-23
1.24868e-24
1.07677e-25
1.39179e-28
2.16652e-27
3.83224e-28
1.12343e-28
6.07021e-28
2.45503e-27
2.97144e-27
2.45043e-27
1.39177e-28
1.13883e-29
1.07587e-28
2.0962e-31
1.24893e-29
1.28693e-28
7.45506e-28
5.03221e-29
)
;

boundaryField
{
    movingWall
    {
        type            calculated;
        value           nonuniform List<scalar> 
20
(
1.19527e-22
5.50342e-23
1.66395e-24
2.79618e-25
1.41884e-26
3.86613e-26
4.04238e-26
4.46249e-26
2.64e-26
2.82997e-26
2.01033e-26
5.47202e-27
1.39804e-26
1.20595e-26
7.29517e-27
9.57532e-28
1.22052e-27
1.28693e-28
2.68068e-27
5.03221e-29
)
;
    }
    fixedWalls
    {
        type            calculated;
        value           nonuniform List<scalar> 
60
(
2.9581e-21
1.00968e-23
1.75293e-21
1.6726e-21
6.58646e-23
1.18571e-21
2.79923e-21
5.15258e-22
4.82891e-22
2.62231e-21
3.07179e-21
1.05321e-21
3.29662e-23
1.49464e-21
2.72633e-21
9.94105e-22
3.20544e-23
1.32611e-21
3.76607e-22
4.98052e-22
6.6699e-28
9.91296e-28
4.70321e-28
5.8049e-30
1.46497e-27
2.90273e-30
7.49945e-36
7.13236e-31
2.40476e-28
2.69397e-28
1.40153e-28
6.71985e-30
1.79384e-30
1.21844e-28
5.24125e-28
1.71463e-29
3.04644e-28
5.06353e-29
1.65537e-29
3.06283e-28
2.66372e-22
2.2456e-22
7.95844e-24
9.65213e-25
4.20764e-27
3.1338e-26
4.02904e-26
1.00331e-26
1.57097e-27
9.73306e-32
1.03527e-31
3.40674e-27
1.84501e-28
3.20778e-27
6.18142e-29
3.6148e-27
2.94466e-29
3.58658e-29
3.19658e-27
3.37978e-27
)
;
    }
    frontAndBack
    {
        type            empty;
    }
}


// ************************************************************************* //
