/*--------------------------------*- C++ -*----------------------------------*\
| =========                 |                                                 |
| \\      /  F ield         | OpenFOAM: The Open Source CFD Toolbox           |
|  \\    /   O peration     | Version:  2506                                  |
|   \\  /    A nd           | Website:  www.openfoam.com                      |
|    \\/     M anipulation  |                                                 |
\*---------------------------------------------------------------------------*/
FoamFile
{
    version     2.0;
    format      ascii;
    arch        "LSB;label=32;scalar=64";
    class       volScalarField;
    location    "10";
    object      flowTypeField;
}
// * * * * * * * * * * * * * * * * * * * * * * * * * * * * * * * * * * * * * //

dimensions      [0 0 0 0 0 0 0];

internalField   nonuniform List<scalar> 
400
(
0.396037
0.0516486
0.0400037
-0.0570314
0.170561
0.519501
-0.0162595
0.425292
0.307653
0.123518
0.0566621
0.161127
0.499373
0.387754
0.0164414
0.896107
0.807905
0.668939
0.61915
0.120732
0.94375
0.820045
0.907255
0.533866
0.1641
-0.126866
-0.0306563
0.781402
0.775093
0.0539021
0.0242524
0.361695
0.0978464
0.804226
-0.0938862
0.0647823
0.490226
0.103487
-0.0521304
0.392645
0.682904
0.141967
0.0907675
0.15527
-0.409304
0.544843
-0.014197
0.0634166
0.0131417
-0.0848477
-0.0135134
0.425977
0.00117814
0.420283
0.457543
0.468654
0.181512
-0.475628
0.319497
0.709198
0.603869
0.128456
0.104266
0.0515603
0.445162
-0.448626
0.211461
0.679979
0.18218
-0.145958
0.101133
0.11021
0.00821118
-0.255728
-0.0606643
0.155435
-0.204114
-0.172102
0.270057
0.862472
0.85857
0.62989
0.61558
0.597671
0.96129
0.741504
0.80176
0.288792
0.832014
-0.0482523
0.691859
0.00058302
0.821614
0.55336
0.348005
-0.0436805
0.475517
0.347253
0.0819799
-0.0846693
0.704692
0.151844
0.135254
0.130567
-0.0502311
0.00705498
0.259906
-0.0105586
0.0342207
0.023961
0.610035
-0.801736
-0.095788
0.61414
0.222417
0.225744
0.167959
0.0130551
0.553563
3.13404e-06
0.263938
0.0715957
-0.031711
0.115502
-0.373417
0.768594
-0.0612298
0.276359
0.0401795
-0.0534589
-0.0194086
0.0328184
0.0996378
0.296041
0.598252
0.335657
0.448427
0.759669
0.1938
0.00296295
0.7796
0.241417
0.230818
0.175429
0.307322
0.450736
-0.58314
0.632184
0.490202
0.64706
-0.0841097
0.735991
0.257042
-0.0534672
0.421377
-0.122919
-0.274552
0.792853
0.622325
0.255798
0.75836
0.229457
0.226122
0.308908
-0.292864
0.12386
-0.144288
0.194831
-0.10552
0.0150701
-0.0574965
-0.185519
-0.160944
0.214226
0.0999541
0.623211
0.260133
0.637998
-0.07525
0.434703
0.275775
0.0516011
-0.0201742
0.0708899
-0.226893
0.241744
-0.125245
0.916716
0.414546
-0.518274
-0.229433
-0.152962
0.389499
-0.213803
0.0934058
0.272225
0.350539
0.520223
0.923389
0.114967
0.114121
0.0332669
-0.0546922
0.058154
-0.387967
0.397678
-0.243595
0.671132
0.726469
-0.205066
-0.249049
0.691294
-0.382094
0.131447
-0.0177431
0.390066
0.0823224
0.900446
0.0754047
0.169778
0.585464
0.0973448
0.0585626
0.0877939
-0.142996
0.590579
0.0315884
0.448487
-0.326257
-0.156186
-0.107242
0.257349
0.0688903
0.263606
-0.129338
0.149404
0.163285
0.422283
0.946235
0.763169
0.918056
0.623827
0.718642
0.486136
0.564574
-0.0549013
0.330199
0.181566
0.264486
-0.0138057
0.222828
0.452217
0.908034
0.349221
0.626056
0.0701262
0.621244
0.218372
0.937007
0.787403
0.519042
0.0857889
0.0355588
0.0784666
0.0435858
0.288177
0.531216
-0.0819156
-0.205162
0.914869
0.22724
0.921649
0.0370575
0.479955
0.741273
0.901398
0.818666
0.775294
0.896798
0.572119
0.213229
0.061887
-0.0243095
0.151411
-0.220005
0.462541
-0.156106
-0.151308
0.0191939
0.180849
0.22779
0.216604
0.161592
-0.0421647
-0.117665
0.0869739
0.721845
0.20022
0.351199
-0.2744
0.616532
0.143135
0.102377
0.0552716
0.861962
0.105207
0.365973
-0.314225
-0.0801583
0.704215
0.33621
0.515287
0.226819
-0.15074
-0.0744927
0.124261
0.742048
0.233108
0.237502
0.601166
0.916404
0.68596
0.705143
0.935993
0.449882
0.887477
0.134551
0.140412
0.00511288
0.0251581
0.542274
0.0316954
0.191452
-0.381135
-0.249698
-0.0482153
0.16724
0.0248341
0.71849
0.557944
0.69208
0.147941
0.107483
0.0918426
0.54703
-0.458947
-0.479809
-0.160644
0.0920685
0.591397
-0.318097
-0.567046
0.469094
-0.113795
0.0393802
0.315193
0.300536
0.0292562
0.239392
0.857991
0.763092
0.319689
0.259599
0.341336
-0.0646795
0.741961
0.0616495
0.0781623
0.774692
0.678083
0.878056
0.460011
0.973787
-0.171842
0.404951
0.0227767
0.942073
0.283887
-0.0971334
0.497219
0.72607
0.159066
0.221193
0.023259
0.830137
-0.197354
0.527187
0.666277
0.300623
-0.245864
0.0359915
-0.276652
0.523992
0.804972
0.601324
0.949485
0.789349
0.664059
0.455029
0.297757
)
;

boundaryField
{
    movingWall
    {
        type            calculated;
        value           nonuniform List<scalar> 
20
(
0.518183
0.0957624
0.280655
-0.106569
0.387224
-0.0411605
0.0935251
0.0768169
0.0373629
-0.0350355
-0.0676412
-0.0896835
0.0923396
0.125983
0.151523
0.390339
0.279198
0.701302
0.282198
0.551199
)
;
    }
    fixedWalls
    {
        type            calculated;
        value           nonuniform List<scalar> 
60
(
0.0515796
0.849656
0.132939
0.125876
0.622554
0.156372
0.0480412
0.247128
0.242452
0.031061
0.0108708
0.10225
0.645326
0.0791217
0.0430622
0.134449
0.689041
0.136725
0.314941
0.176342
0.592424
0.52227
0.464935
0.94306
0.211858
2.48308e-05
0.23042
0.636165
0.0348851
0.0526007
0.619063
0.871496
0.498894
0.600794
-0.187606
0.766059
0.458005
0.296353
0.852221
0.0875441
0.656904
0.161061
0.276863
-0.0096743
0.735085
-0.122919
0.119166
0.155535
0.224279
0.969098
0.967967
0.161704
0.628217
0.242501
0.224985
0.175832
0.821589
0.675078
0.137391
0.0901199
)
;
    }
    frontAndBack
    {
        type            empty;
    }
}


// ************************************************************************* //
