/*--------------------------------*- C++ -*----------------------------------*\
| =========                 |                                                 |
| \\      /  F ield         | OpenFOAM: The Open Source CFD Toolbox           |
|  \\    /   O peration     | Version:  2506                                  |
|   \\  /    A nd           | Website:  www.openfoam.com                      |
|    \\/     M anipulation  |                                                 |
\*---------------------------------------------------------------------------*/
FoamFile
{
    version     2.0;
    format      ascii;
    arch        "LSB;label=32;scalar=64";
    class       surfaceScalarField;
    location    "10";
    object      fluxField;
}
// * * * * * * * * * * * * * * * * * * * * * * * * * * * * * * * * * * * * * //

dimensions      [0 3 -1 0 0 0 0];

oriented        oriented;

internalField   nonuniform List<scalar> 
760
(
-5e-05
4.67891e-18
-5e-05
-1.0288e-18
-5e-05
2.38509e-19
-5e-05
-5.19209e-20
-5e-05
1.48832e-20
-5e-05
2.19045e-21
-5e-05
1.11319e-20
-5e-05
1.01994e-20
-5e-05
4.86938e-21
-5e-05
3.17136e-21
-5e-05
5.21469e-21
-5e-05
4.93773e-21
-5e-05
7.60169e-22
-5e-05
-5.5318e-21
-5e-05
-5.28809e-22
-5e-05
4.78007e-21
-5e-05
-2.33686e-21
-5e-05
-4.08513e-21
-5e-05
-1.24568e-21
5.00162e-22
-5e-05
-4.37622e-18
-5e-05
9.62535e-19
-5e-05
-2.25274e-19
-5e-05
5.22488e-20
-5e-05
-6.93068e-21
-5e-05
6.95237e-21
-5e-05
7.42117e-21
-5e-05
6.66985e-21
-5e-05
2.98221e-21
-5e-05
-3.83359e-22
-5e-05
1.06412e-22
-5e-05
9.32555e-22
-5e-05
-2.06605e-21
-5e-05
-4.90264e-21
-5e-05
-7.72886e-22
-5e-05
5.72749e-21
-5e-05
-2.2917e-23
-5e-05
-7.72134e-21
-5e-05
-7.57915e-21
-4.21617e-21
-5e-05
-1.70488e-19
-5e-05
3.46769e-20
-5e-05
-1.67555e-20
-5e-05
3.44367e-22
-5e-05
1.59218e-21
-5e-05
2.44492e-21
-5e-05
2.54141e-21
-5e-05
4.37927e-21
-5e-05
2.96168e-21
-5e-05
2.45108e-22
-5e-05
-1.42931e-21
-5e-05
-4.84364e-22
-5e-05
7.32509e-22
-5e-05
-8.18861e-22
-5e-05
-2.52838e-21
-5e-05
5.40039e-22
-5e-05
1.20195e-21
-5e-05
-7.71079e-21
-5e-05
-9.1094e-21
-5.51796e-21
-5e-05
3.31426e-18
-5e-05
-7.69956e-19
-5e-05
1.67514e-19
-5e-05
-4.17912e-20
-5e-05
1.10356e-20
-5e-05
-1.18248e-21
-5e-05
-3.43634e-22
-5e-05
1.27501e-21
-5e-05
5.3878e-22
-5e-05
9.15368e-22
-5e-05
2.32473e-21
-5e-05
9.97722e-22
-5e-05
2.48797e-21
-5e-05
7.37314e-22
-5e-05
-5.20442e-22
-5e-05
1.26138e-21
-5e-05
2.90511e-21
-5e-05
-2.55531e-21
-5e-05
-4.62354e-21
-1.90195e-21
-5e-05
-3.96758e-18
-5e-05
8.47007e-19
-5e-05
-1.98866e-19
-5e-05
4.76149e-20
-5e-05
-8.75796e-21
-5e-05
-1.23565e-22
-5e-05
-3.62598e-21
-5e-05
-2.40662e-21
-5e-05
-3.07651e-21
-5e-05
-1.79619e-21
-5e-05
-5.7615e-23
-5e-05
1.04455e-21
-5e-05
4.31644e-21
-5e-05
2.59985e-21
-5e-05
2.52694e-21
-5e-05
5.44228e-21
-5e-05
5.54913e-21
-5e-05
1.05645e-21
-5e-05
-2.99409e-21
-1.45521e-22
-5e-05
1.5922e-18
-5e-05
-3.17451e-19
-5e-05
8.76476e-20
-5e-05
-7.42893e-21
-5e-05
8.67963e-21
-5e-05
-9.03845e-22
-5e-05
-3.54939e-23
-5e-05
-4.20485e-22
-5e-05
-3.45799e-21
-5e-05
-1.74026e-21
-5e-05
-2.18704e-21
-5e-05
1.37516e-21
-5e-05
7.04498e-21
-5e-05
5.64417e-21
-5e-05
4.23365e-21
-5e-05
3.8596e-21
-5e-05
3.86346e-21
-5e-05
1.85618e-21
-5e-05
-7.92752e-22
-1.50349e-22
-5e-05
2.79205e-18
-5e-05
-5.98333e-19
-5e-05
1.49459e-19
-5e-05
-2.21094e-20
-5e-05
1.59009e-20
-5e-05
3.30553e-21
-5e-05
4.16358e-21
-5e-05
-2.23628e-22
-5e-05
-3.96179e-21
-5e-05
-1.51613e-21
-5e-05
1.2018e-21
-5e-05
-3.47838e-23
-5e-05
-2.62489e-22
-5e-05
1.437e-21
-5e-05
3.46159e-21
-5e-05
1.14126e-21
-5e-05
3.10851e-21
-5e-05
3.36628e-21
-5e-05
2.28971e-21
-7.44048e-23
-5e-05
-4.1113e-18
-5e-05
8.93793e-19
-5e-05
-2.08609e-19
-5e-05
5.03813e-20
-5e-05
-6.12127e-21
-5e-05
9.54548e-21
-5e-05
6.03582e-21
-5e-05
1.66712e-21
-5e-05
-8.5274e-22
-5e-05
-2.28625e-21
-5e-05
-9.16036e-23
-5e-05
-2.74712e-21
-5e-05
-8.96237e-21
-5e-05
-6.47351e-21
-5e-05
-3.38562e-21
-5e-05
1.53655e-22
-5e-05
2.99546e-21
-5e-05
2.95137e-21
-5e-05
4.1049e-21
1.29602e-21
-5e-05
2.61441e-18
-5e-05
-5.6627e-19
-5e-05
1.34889e-19
-5e-05
-3.02853e-20
-5e-05
5.63291e-21
-5e-05
4.52127e-21
-5e-05
9.56897e-21
-5e-05
8.27403e-21
-5e-05
6.18531e-21
-5e-05
2.65219e-21
-5e-05
-7.88899e-22
-5e-05
-1.8423e-21
-5e-05
-6.28414e-21
-5e-05
-6.77171e-21
-5e-05
-8.04621e-21
-5e-05
-4.06806e-21
-5e-05
-3.45455e-21
-5e-05
1.63044e-21
-5e-05
4.89061e-21
2.82141e-21
-5e-05
-3.20064e-19
-5e-05
7.2297e-20
-5e-05
-1.96738e-20
-5e-05
1.30369e-22
-5e-05
-1.7021e-21
-5e-05
1.37752e-21
-5e-05
1.15537e-21
-5e-05
-6.01787e-22
-5e-05
9.20725e-22
-5e-05
2.12984e-21
-5e-05
8.13289e-22
-5e-05
5.75367e-22
-5e-05
-1.08586e-21
-5e-05
-4.44151e-21
-5e-05
-5.90212e-21
-5e-05
-7.4366e-21
-5e-05
-3.7168e-21
-5e-05
3.09107e-21
-5e-05
1.72164e-21
8.03076e-22
-5e-05
-2.02694e-18
-5e-05
4.37062e-19
-5e-05
-1.09269e-19
-5e-05
1.86509e-20
-5e-05
-4.83428e-21
-5e-05
2.24592e-21
-5e-05
-4.58221e-21
-5e-05
-9.33264e-21
-5e-05
-5.62848e-21
-5e-05
-2.07484e-21
-5e-05
1.17207e-21
-5e-05
2.04554e-21
-5e-05
-8.52625e-22
-5e-05
-4.88565e-21
-5e-05
-2.26179e-21
-5e-05
-1.98146e-21
-5e-05
2.95995e-21
-5e-05
2.39013e-21
-5e-05
4.63042e-22
-4.18544e-22
-5e-05
3.42002e-18
-5e-05
-7.41518e-19
-5e-05
1.73686e-19
-5e-05
-4.26889e-20
-5e-05
4.63406e-21
-5e-05
-3.31006e-21
-5e-05
-3.71682e-21
-5e-05
-5.64052e-21
-5e-05
-4.02056e-21
-5e-05
-3.10683e-21
-5e-05
-1.21205e-21
-5e-05
2.26668e-21
-5e-05
8.85112e-22
-5e-05
-2.75659e-21
-5e-05
-1.67513e-21
-5e-05
1.39564e-21
-5e-05
1.97265e-21
-5e-05
-4.46311e-22
-5e-05
1.0835e-21
1.10744e-22
-5e-05
-3.04856e-18
-5e-05
6.90995e-19
-5e-05
-1.51628e-19
-5e-05
3.84338e-20
-5e-05
-1.1185e-20
-5e-05
-5.41391e-21
-5e-05
-9.29331e-21
-5e-05
-5.18533e-21
-5e-05
-2.0665e-21
-5e-05
-6.95545e-22
-5e-05
-2.79487e-21
-5e-05
6.51372e-22
-5e-05
1.70187e-21
-5e-05
-3.76814e-22
-5e-05
-9.27379e-22
-5e-05
1.0907e-21
-5e-05
8.9922e-23
-5e-05
-1.18521e-21
-5e-05
-1.43214e-21
-1.09404e-21
-5e-05
1.24035e-18
-5e-05
-2.62578e-19
-5e-05
7.14757e-20
-5e-05
-8.05683e-21
-5e-05
2.01325e-21
-5e-05
-8.73789e-21
-5e-05
-7.49174e-21
-5e-05
-1.84119e-21
-5e-05
3.50969e-21
-5e-05
6.73148e-21
-5e-05
2.86015e-21
-5e-05
4.9032e-22
-5e-05
-9.38329e-22
-5e-05
-7.85087e-22
-5e-05
1.25784e-21
-5e-05
3.06294e-21
-5e-05
1.98585e-21
-5e-05
-1.7659e-21
-5e-05
-3.1922e-21
-1.30514e-21
-5e-05
1.94519e-18
-5e-05
-4.38237e-19
-5e-05
9.77255e-20
-5e-05
-2.54453e-20
-5e-05
3.16975e-21
-5e-05
-2.21525e-21
-5e-05
1.60955e-21
-5e-05
4.40067e-21
-5e-05
4.5243e-21
-5e-05
2.32395e-21
-5e-05
5.32123e-22
-5e-05
-9.0479e-22
-5e-05
-2.99005e-22
-5e-05
-2.26472e-22
-5e-05
-3.03479e-22
-5e-05
7.45231e-22
-5e-05
-7.85632e-22
-5e-05
-4.13346e-21
-5e-05
-4.41988e-21
-1.65754e-21
-5e-05
-3.60405e-18
-5e-05
7.867e-19
-5e-05
-1.93028e-19
-5e-05
3.80136e-20
-5e-05
-1.12763e-20
-5e-05
4.43032e-21
-5e-05
3.85468e-21
-5e-05
4.66485e-21
-5e-05
9.12339e-22
-5e-05
-4.58551e-21
-5e-05
-2.75914e-21
-5e-05
-1.26967e-21
-5e-05
1.26081e-21
-5e-05
6.70812e-22
-5e-05
-3.69622e-21
-5e-05
-6.0098e-21
-5e-05
-7.2452e-21
-5e-05
-5.2084e-21
-5e-05
-3.99574e-21
-2.8708e-21
-5e-05
2.96225e-18
-5e-05
-6.50338e-19
-5e-05
1.52906e-19
-5e-05
-3.53094e-20
-5e-05
2.76514e-21
-5e-05
-7.52232e-21
-5e-05
-2.31923e-21
-5e-05
5.21662e-22
-5e-05
1.2576e-21
-5e-05
1.81034e-21
-5e-05
2.00323e-21
-5e-05
-4.28436e-21
-5e-05
-5.39695e-21
-5e-05
-4.07152e-22
-5e-05
-2.67039e-21
-5e-05
-7.90178e-21
-5e-05
-7.33861e-21
-5e-05
-1.41223e-21
-5e-05
-3.9367e-22
-2.17169e-21
-5e-05
1.93203e-18
-5e-05
-4.43214e-19
-5e-05
1.0461e-19
-5e-05
-2.89944e-20
-5e-05
2.3394e-21
-5e-05
-6.83413e-21
-5e-05
-3.86283e-21
-5e-05
-4.95457e-21
-5e-05
-2.20299e-21
-5e-05
4.24892e-21
-5e-05
2.68493e-21
-5e-05
-4.92123e-21
-5e-05
-6.33712e-21
-5e-05
-1.54017e-21
-5e-05
-1.96294e-21
-5e-05
-5.53023e-21
-5e-05
-4.07779e-21
-5e-05
-1.26903e-21
-5e-05
1.77711e-21
7.05489e-22
-5e-05
-3.92673e-18
-5e-05
8.58992e-19
-5e-05
-2.04209e-19
-5e-05
4.15274e-20
-5e-05
-9.17125e-21
-5e-05
1.87366e-21
-5e-05
-3.0269e-21
-5e-05
-9.72173e-21
-5e-05
-8.72031e-21
-5e-05
-3.08652e-21
-5e-05
-6.43214e-22
-5e-05
1.51526e-21
-5e-05
2.12417e-21
-5e-05
-1.32914e-21
-5e-05
-4.65848e-21
-5e-05
-6.09711e-21
-5e-05
-4.95607e-21
-5e-05
-4.44615e-21
-5e-05
1.96137e-21
2.88133e-21
-5e-05
-5e-05
-5e-05
-5e-05
-5e-05
-5e-05
-5e-05
-5e-05
-5e-05
-5e-05
-5e-05
-5e-05
-5e-05
-5e-05
-5e-05
-5e-05
-5e-05
-5e-05
-5e-05
)
;

boundaryField
{
    movingWall
    {
        type            calculated;
        value           uniform -0;
    }
    fixedWalls
    {
        type            calculated;
        value           nonuniform List<scalar> 
60
(
5e-05
5e-05
5e-05
5e-05
5e-05
5e-05
5e-05
5e-05
5e-05
5e-05
5e-05
5e-05
5e-05
5e-05
5e-05
5e-05
5e-05
5e-05
5e-05
5e-05
-5e-05
-5e-05
-5e-05
-5e-05
-5e-05
-5e-05
-5e-05
-5e-05
-5e-05
-5e-05
-5e-05
-5e-05
-5e-05
-5e-05
-5e-05
-5e-05
-5e-05
-5e-05
-5e-05
-5e-05
0
0
0
0
0
0
0
0
0
0
0
0
0
0
0
0
0
0
0
0
)
;
    }
    frontAndBack
    {
        type            empty;
    }
}


// ************************************************************************* //
