/*--------------------------------*- C++ -*----------------------------------*\
| =========                 |                                                 |
| \\      /  F ield         | OpenFOAM: The Open Source CFD Toolbox           |
|  \\    /   O peration     | Version:  2506                                  |
|   \\  /    A nd           | Website:  www.openfoam.com                      |
|    \\/     M anipulation  |                                                 |
\*---------------------------------------------------------------------------*/
FoamFile
{
    version     2.0;
    format      ascii;
    arch        "LSB;label=32;scalar=64";
    class       volTensorField;
    location    "10";
    object      gradU;
}
// * * * * * * * * * * * * * * * * * * * * * * * * * * * * * * * * * * * * * //

dimensions      [0 0 -1 0 0 0 0];

internalField   nonuniform List<tensor> 
400
(
(-1.30104e-12 1.53541e-11 0 1.70762e-12 1.87156e-11 0 0 0 0)
(1.97867e-12 -1.86611e-11 0 -4.60786e-13 -4.1152e-12 0 0 0 0)
(-5.42101e-13 4.07841e-12 0 2.71051e-14 9.54036e-13 0 0 0 0)
(5.42101e-14 -9.45308e-13 0 8.13152e-14 -2.07684e-13 0 0 0 0)
(-5.42101e-14 2.19128e-13 0 2.71051e-14 5.95328e-14 0 0 0 0)
(0 -2.83073e-14 0 -5.42101e-14 8.76179e-15 0 0 0 0)
(-2.71051e-14 2.69949e-14 0 -5.42101e-14 4.45275e-14 0 0 0 0)
(-5.42101e-14 -8.42853e-15 0 -5.42101e-14 4.07976e-14 0 0 0 0)
(-2.71051e-14 -1.1644e-14 0 -5.42101e-14 1.94775e-14 0 0 0 0)
(-2.71051e-14 -4.41204e-16 0 -5.42101e-14 1.26854e-14 0 0 0 0)
(0 4.55031e-16 0 -5.42101e-14 2.08588e-14 0 0 0 0)
(0 -6.27406e-15 0 -5.42101e-14 1.97509e-14 0 0 0 0)
(-5.42101e-14 -1.92094e-14 0 -5.42101e-14 3.04068e-15 0 0 0 0)
(5.42101e-14 -8.72069e-15 0 -5.42101e-14 -2.21272e-14 0 0 0 0)
(0 1.11188e-14 0 0 -2.11523e-15 0 0 0 0)
(-5.42101e-14 -3.79078e-15 0 0 1.91203e-14 0 0 0 0)
(5.42101e-14 -7.67419e-15 0 0 -9.34745e-15 0 0 0 0)
(2.71051e-14 8.46945e-15 0 0 -1.63405e-14 0 0 0 0)
(-2.71051e-14 8.8606e-15 0 0 -4.98272e-15 0 0 0 0)
(0 -6.60134e-15 0 -5.42101e-14 2.00065e-15 0 0 0 0)
(2.60209e-12 -7.53647e-13 0 7.31836e-13 -3.62205e-11 0 0 0 0)
(-3.63208e-12 8.99529e-13 0 -3.25261e-13 7.96534e-12 0 0 0 0)
(9.75782e-13 -1.70902e-13 0 -2.71051e-14 -1.85513e-12 0 0 0 0)
(-1.0842e-13 5.08047e-14 0 -1.35525e-13 4.16679e-13 0 0 0 0)
(0 -2.68214e-15 0 -1.35525e-13 -8.72555e-14 0 0 0 0)
(0 1.3302e-14 0 -8.13152e-14 1.90477e-14 0 0 0 0)
(0 5.0409e-15 0 -1.35525e-13 -1.48428e-14 0 0 0 0)
(5.42101e-14 -1.66215e-14 0 -2.71051e-14 -1.41182e-14 0 0 0 0)
(5.42101e-14 -1.64682e-14 0 -2.71051e-14 -7.54867e-15 0 0 0 0)
(0 1.82243e-15 0 -2.71051e-14 -1.42189e-14 0 0 0 0)
(0 6.61048e-15 0 -2.71051e-14 -2.04331e-14 0 0 0 0)
(0 -1.1544e-14 0 0 -1.60207e-14 0 0 0 0)
(0 -2.26687e-14 0 0 -1.13049e-14 0 0 0 0)
(2.71051e-14 3.56478e-15 0 0 2.51665e-15 0 0 0 0)
(5.42101e-14 3.01286e-14 0 -8.13152e-14 -9.76309e-16 0 0 0 0)
(0 -3.44143e-15 0 -5.42101e-14 3.78967e-15 0 0 0 0)
(-5.42101e-14 -2.77866e-14 0 0 9.25578e-15 0 0 0 0)
(0 -4.10472e-15 0 -5.42101e-14 -1.45449e-14 0 0 0 0)
(0 9.48056e-15 0 -5.42101e-14 -2.53339e-14 0 0 0 0)
(5.42101e-14 9.58341e-15 0 5.42101e-14 -1.88653e-14 0 0 0 0)
(-8.40257e-13 -1.29011e-11 0 -7.04731e-12 1.68229e-11 0 0 0 0)
(1.13841e-12 1.57042e-11 0 1.87025e-12 -3.71143e-12 0 0 0 0)
(-3.52366e-13 -3.47024e-12 0 -2.1684e-13 8.34074e-13 0 0 0 0)
(-2.71051e-14 8.22569e-13 0 1.0842e-13 -2.07618e-13 0 0 0 0)
(0 -1.78504e-13 0 8.13152e-14 3.40914e-14 0 0 0 0)
(0 4.41054e-14 0 8.13152e-14 -1.80298e-14 0 0 0 0)
(2.71051e-14 -6.17097e-15 0 1.35525e-13 -1.9519e-14 0 0 0 0)
(5.42101e-14 -1.13436e-15 0 1.35525e-13 -9.16231e-15 0 0 0 0)
(-5.42101e-14 -1.17447e-14 0 1.0842e-13 -8.21501e-17 0 0 0 0)
(-2.71051e-14 -1.33256e-14 0 1.0842e-13 2.51387e-15 0 0 0 0)
(0 -1.34683e-15 0 8.13152e-14 -6.14287e-15 0 0 0 0)
(8.13152e-14 2.85417e-15 0 5.42101e-14 -5.66767e-15 0 0 0 0)
(0 -6.72062e-16 0 8.13152e-14 1.11942e-14 0 0 0 0)
(-8.13152e-14 1.60787e-15 0 5.42101e-14 1.63351e-14 0 0 0 0)
(0 1.23919e-14 0 2.71051e-14 -7.02199e-15 0 0 0 0)
(8.13152e-14 6.4413e-15 0 5.42101e-14 -2.07498e-14 0 0 0 0)
(-5.42101e-14 -2.60087e-14 0 2.71051e-14 4.89946e-15 0 0 0 0)
(0 -2.61202e-14 0 5.42101e-14 4.22217e-17 0 0 0 0)
(5.42101e-14 4.54012e-15 0 5.42101e-14 -6.12101e-15 0 0 0 0)
(0 3.75979e-14 0 2.71051e-14 -5.20714e-15 0 0 0 0)
(-2.6563e-12 1.23578e-11 0 5.69206e-12 1.3939e-11 0 0 0 0)
(3.2255e-12 -1.50893e-11 0 -1.40946e-12 -3.21853e-12 0 0 0 0)
(-7.31836e-13 3.33291e-12 0 2.1684e-13 7.37077e-13 0 0 0 0)
(1.89735e-13 -7.49178e-13 0 0 -1.68542e-13 0 0 0 0)
(-2.71051e-14 1.86906e-13 0 8.13152e-14 3.77735e-14 0 0 0 0)
(0 -4.03084e-14 0 8.13152e-14 -1.45096e-14 0 0 0 0)
(2.71051e-14 1.39084e-14 0 8.13152e-14 -1.15402e-14 0 0 0 0)
(0 2.81541e-15 0 0 -1.24171e-14 0 0 0 0)
(2.71051e-14 -4.79198e-15 0 2.71051e-14 -9.69159e-15 0 0 0 0)
(0 -4.23829e-15 0 2.71051e-14 2.68104e-15 0 0 0 0)
(-2.71051e-14 -1.57106e-15 0 5.42101e-14 1.50162e-14 0 0 0 0)
(0 5.79309e-15 0 5.42101e-14 5.92835e-15 0 0 0 0)
(0 -6.65926e-16 0 2.71051e-14 7.02186e-15 0 0 0 0)
(0 -1.46514e-14 0 5.42101e-14 6.2247e-15 0 0 0 0)
(0 -6.95626e-15 0 1.0842e-13 8.03177e-15 0 0 0 0)
(0 8.48003e-15 0 5.42101e-14 2.88535e-15 0 0 0 0)
(0 -6.99459e-15 0 2.71051e-14 6.81263e-15 0 0 0 0)
(0 -1.51252e-14 0 5.42101e-14 2.06219e-14 0 0 0 0)
(0 4.2312e-15 0 2.71051e-14 1.79434e-14 0 0 0 0)
(-5.42101e-14 2.09116e-14 0 2.71051e-14 1.4464e-14 0 0 0 0)
(3.38813e-12 -2.1806e-12 0 9.75782e-13 -2.91274e-11 0 0 0 0)
(-4.3097e-12 2.50231e-12 0 -5.42101e-14 6.46785e-12 0 0 0 0)
(1.0571e-12 -4.20255e-13 0 1.89735e-13 -1.46552e-12 0 0 0 0)
(-2.1684e-13 1.23265e-13 0 -2.71051e-14 3.57625e-13 0 0 0 0)
(8.13152e-14 -2.44708e-14 0 -2.71051e-14 -7.91741e-14 0 0 0 0)
(-2.71051e-14 -5.20832e-15 0 0 4.23566e-15 0 0 0 0)
(2.71051e-14 -4.07842e-15 0 0 -1.31294e-14 0 0 0 0)
(2.71051e-14 7.14246e-16 0 -2.71051e-14 -1.47265e-14 0 0 0 0)
(-2.71051e-14 3.35341e-15 0 0 -1.44611e-14 0 0 0 0)
(2.71051e-14 1.13821e-14 0 -5.42101e-14 -1.08462e-14 0 0 0 0)
(0 1.90048e-15 0 0 -9.5294e-15 0 0 0 0)
(0 -5.14013e-15 0 0 1.87322e-16 0 0 0 0)
(0 -3.75706e-16 0 0 7.31388e-15 0 0 0 0)
(0 2.61778e-15 0 0 7.45014e-15 0 0 0 0)
(0 9.0525e-15 0 0 1.21895e-14 0 0 0 0)
(0 5.22217e-15 0 -5.42101e-14 1.67236e-14 0 0 0 0)
(-2.71051e-14 -8.27214e-15 0 -2.71051e-14 1.05761e-14 0 0 0 0)
(-2.71051e-14 -1.49894e-14 0 -5.42101e-14 1.4447e-14 0 0 0 0)
(0 -1.61779e-15 0 -2.71051e-14 6.51778e-15 0 0 0 0)
(0 5.19041e-15 0 -5.42101e-14 7.02573e-15 0 0 0 0)
(-1.68051e-12 -1.03017e-11 0 -4.2826e-12 2.22391e-11 0 0 0 0)
(2.41235e-12 1.25726e-11 0 1.11131e-12 -4.65783e-12 0 0 0 0)
(-6.77626e-13 -2.77731e-12 0 -1.35525e-13 1.14605e-12 0 0 0 0)
(0 6.37165e-13 0 5.42101e-14 -2.20175e-13 0 0 0 0)
(-2.71051e-14 -1.66483e-13 0 2.71051e-14 6.97504e-14 0 0 0 0)
(0 2.57362e-14 0 0 -3.12112e-15 0 0 0 0)
(0 -5.05379e-15 0 -2.71051e-14 1.4362e-14 0 0 0 0)
(0 1.48367e-15 0 -2.71051e-14 7.94453e-15 0 0 0 0)
(0 -9.11678e-16 0 -2.71051e-14 -1.52592e-15 0 0 0 0)
(0 6.93458e-16 0 0 2.23719e-16 0 0 0 0)
(2.71051e-14 9.46247e-15 0 0 -8.51771e-15 0 0 0 0)
(0 2.26364e-14 0 -2.71051e-14 1.32244e-15 0 0 0 0)
(0 6.59689e-15 0 -5.42101e-14 1.09142e-14 0 0 0 0)
(-2.71051e-14 -9.77578e-15 0 0 1.21773e-14 0 0 0 0)
(-2.71051e-14 2.31722e-15 0 -2.71051e-14 6.82683e-15 0 0 0 0)
(0 6.86658e-15 0 0 -6.33071e-15 0 0 0 0)
(0 -9.2712e-15 0 0 -6.74269e-15 0 0 0 0)
(0 -1.91835e-14 0 0 3.19893e-15 0 0 0 0)
(0 -3.19008e-15 0 0 8.80536e-15 0 0 0 0)
(0 7.36804e-15 0 0 -1.93117e-17 0 0 0 0)
(2.1684e-13 1.54007e-11 0 3.63208e-12 4.7994e-12 0 0 0 0)
(-1.6263e-13 -1.85908e-11 0 -1.30104e-12 -1.12353e-12 0 0 0 0)
(0 4.0174e-12 0 -1.35525e-13 2.47245e-13 0 0 0 0)
(-2.71051e-14 -9.53037e-13 0 -1.0842e-13 -5.87218e-14 0 0 0 0)
(2.71051e-14 1.92583e-13 0 -8.13152e-14 2.88851e-14 0 0 0 0)
(-5.42101e-14 -6.05967e-14 0 -8.13152e-14 1.68375e-14 0 0 0 0)
(0 6.98723e-15 0 -8.13152e-14 1.67963e-14 0 0 0 0)
(0 -1.51736e-14 0 -5.42101e-14 7.87431e-16 0 0 0 0)
(0 -4.3674e-15 0 -1.0842e-13 -2.01521e-15 0 0 0 0)
(0 4.39032e-15 0 -8.13152e-14 8.96495e-16 0 0 0 0)
(0 2.9992e-15 0 -1.0842e-13 1.35554e-14 0 0 0 0)
(-5.42101e-14 1.42917e-14 0 -8.13152e-14 -5.63979e-15 0 0 0 0)
(5.42101e-14 1.04791e-14 0 -8.13152e-14 -2.92299e-14 0 0 0 0)
(5.42101e-14 -1.46954e-15 0 -5.42101e-14 -1.68287e-14 0 0 0 0)
(-2.71051e-14 -9.45549e-15 0 0 -3.08827e-15 0 0 0 0)
(0 -8.34736e-15 0 0 -1.08734e-14 0 0 0 0)
(0 1.25749e-15 0 0 -3.01979e-15 0 0 0 0)
(0 5.58659e-16 0 0 6.04039e-15 0 0 0 0)
(-2.71051e-14 -4.83603e-15 0 2.71051e-14 1.23298e-14 0 0 0 0)
(0 -3.59564e-15 0 0 3.03776e-16 0 0 0 0)
(6.50521e-13 -6.62583e-12 0 -1.68051e-12 -2.76134e-11 0 0 0 0)
(-1.35525e-12 8.0204e-12 0 5.69206e-13 5.9685e-12 0 0 0 0)
(4.87891e-13 -1.71251e-12 0 0 -1.43227e-12 0 0 0 0)
(8.13152e-14 4.18806e-13 0 0 2.89963e-13 0 0 0 0)
(5.42101e-14 -9.09237e-14 0 0 -8.80887e-14 0 0 0 0)
(-5.42101e-14 1.36474e-14 0 5.42101e-14 2.49598e-14 0 0 0 0)
(0 -2.11039e-14 0 2.71051e-14 7.48899e-15 0 0 0 0)
(5.42101e-14 -1.73278e-14 0 0 7.56297e-15 0 0 0 0)
(-5.42101e-14 -8.02614e-16 0 2.71051e-14 1.24362e-14 0 0 0 0)
(5.42101e-14 1.6264e-14 0 0 -3.08047e-15 0 0 0 0)
(0 2.92619e-15 0 -2.71051e-14 -5.17362e-15 0 0 0 0)
(0 -2.01489e-14 0 -2.71051e-14 -1.08494e-14 0 0 0 0)
(0 -4.592e-15 0 2.71051e-14 -3.47995e-14 0 0 0 0)
(2.71051e-14 1.63658e-14 0 -8.13152e-14 -3.1642e-14 0 0 0 0)
(5.42101e-14 8.27251e-15 0 -2.71051e-14 -2.73888e-14 0 0 0 0)
(0 6.93506e-15 0 -5.42101e-14 -3.95041e-15 0 0 0 0)
(0 7.64259e-15 0 -2.71051e-14 -4.52198e-16 0 0 0 0)
(2.71051e-14 -3.83388e-15 0 0 -1.65965e-15 0 0 0 0)
(-2.71051e-14 -8.9267e-15 0 0 7.26079e-15 0 0 0 0)
(0 -5.26557e-15 0 0 5.48168e-15 0 0 0 0)
(-8.94467e-13 -6.24419e-12 0 -9.21572e-13 2.69028e-11 0 0 0 0)
(1.57209e-12 7.59036e-12 0 2.98156e-13 -5.84025e-12 0 0 0 0)
(-5.96311e-13 -1.66114e-12 0 2.71051e-14 1.37399e-12 0 0 0 0)
(-2.71051e-14 3.91146e-13 0 5.42101e-14 -3.22666e-13 0 0 0 0)
(0 -7.24194e-14 0 5.42101e-14 4.70167e-14 0 0 0 0)
(0 3.4981e-14 0 0 -2.00968e-14 0 0 0 0)
(0 -1.04096e-14 0 5.42101e-14 1.41326e-14 0 0 0 0)
(-5.42101e-14 -1.02264e-14 0 5.42101e-14 2.64276e-14 0 0 0 0)
(0 -1.50108e-14 0 5.42101e-14 2.81522e-14 0 0 0 0)
(-5.42101e-14 -1.32195e-14 0 1.0842e-13 1.97538e-14 0 0 0 0)
(0 -4.76969e-15 0 8.13152e-14 -2.78918e-15 0 0 0 0)
(0 -1.53342e-14 0 8.13152e-14 3.61931e-15 0 0 0 0)
(0 -1.03135e-14 0 5.42101e-14 1.07129e-14 0 0 0 0)
(0 5.94118e-15 0 2.71051e-14 -1.19282e-15 0 0 0 0)
(5.42101e-14 1.82362e-14 0 -5.42101e-14 -1.86424e-14 0 0 0 0)
(-5.42101e-14 1.85893e-14 0 0 -1.68869e-14 0 0 0 0)
(5.42101e-14 3.54825e-15 0 -5.42101e-14 -2.58e-14 0 0 0 0)
(2.71051e-14 8.27164e-15 0 0 -5.28371e-15 0 0 0 0)
(0 2.3053e-15 0 -2.71051e-14 3.14281e-15 0 0 0 0)
(-2.71051e-14 -1.63381e-14 0 0 6.10157e-15 0 0 0 0)
(2.71051e-14 1.44368e-11 0 1.40946e-12 -1.17379e-11 0 0 0 0)
(-3.79471e-13 -1.75084e-11 0 -7.31836e-13 2.55427e-12 0 0 0 0)
(2.1684e-13 3.80508e-12 0 -1.35525e-13 -6.1825e-13 0 0 0 0)
(8.13152e-14 -9.08169e-13 0 -5.42101e-14 1.21663e-13 0 0 0 0)
(-2.71051e-14 2.11646e-13 0 -5.42101e-14 -2.93401e-14 0 0 0 0)
(0 -1.92368e-14 0 -8.13152e-14 -1.2575e-14 0 0 0 0)
(2.71051e-14 2.54206e-14 0 -8.13152e-14 -3.36544e-14 0 0 0 0)
(5.42101e-14 -3.30822e-15 0 0 -3.55033e-14 0 0 0 0)
(5.42101e-14 -7.47648e-15 0 2.71051e-14 -2.10583e-14 0 0 0 0)
(0 -1.46773e-14 0 2.71051e-14 -2.08941e-15 0 0 0 0)
(0 -1.32083e-14 0 5.42101e-14 6.40875e-15 0 0 0 0)
(0 -6.6468e-15 0 2.71051e-14 9.67065e-15 0 0 0 0)
(-5.42101e-14 -9.40413e-15 0 2.71051e-14 2.07931e-14 0 0 0 0)
(0 -1.29895e-14 0 5.42101e-14 9.32081e-15 0 0 0 0)
(-5.42101e-14 -7.42154e-15 0 8.13152e-14 8.57635e-15 0 0 0 0)
(5.42101e-14 -2.22596e-16 0 5.42101e-14 -1.34741e-14 0 0 0 0)
(0 1.92457e-14 0 5.42101e-14 -1.049e-15 0 0 0 0)
(-5.42101e-14 2.5109e-14 0 0 5.84253e-15 0 0 0 0)
(5.42101e-14 2.45859e-15 0 0 -1.26758e-14 0 0 0 0)
(0 -1.451e-14 0 0 -8.07333e-15 0 0 0 0)
(-1.89735e-13 -1.54278e-11 0 -5.69206e-13 -6.82748e-12 0 0 0 0)
(-2.71051e-14 1.871e-11 0 5.69206e-13 1.45906e-12 0 0 0 0)
(1.35525e-13 -4.09374e-12 0 2.43945e-13 -3.58382e-13 0 0 0 0)
(2.71051e-14 9.80056e-13 0 5.42101e-14 7.4082e-14 0 0 0 0)
(0 -2.06657e-13 0 8.13152e-14 -1.25287e-14 0 0 0 0)
(-2.71051e-14 3.06666e-14 0 8.13152e-14 3.47361e-15 0 0 0 0)
(2.71051e-14 -3.33378e-14 0 8.13152e-14 -2.29503e-14 0 0 0 0)
(8.13152e-14 2.36964e-15 0 2.71051e-14 -3.49234e-14 0 0 0 0)
(0 1.8403e-14 0 2.71051e-14 -2.61968e-14 0 0 0 0)
(0 1.42476e-14 0 -2.71051e-14 -1.68187e-14 0 0 0 0)
(0 6.99037e-15 0 -2.71051e-14 1.43512e-15 0 0 0 0)
(0 -9.49812e-16 0 0 5.88067e-15 0 0 0 0)
(0 -1.06634e-14 0 2.71051e-14 9.32953e-16 0 0 0 0)
(2.71051e-14 -6.27558e-15 0 2.71051e-14 -1.77656e-15 0 0 0 0)
(0 -4.55881e-15 0 2.71051e-14 1.45613e-14 0 0 0 0)
(-5.42101e-14 8.9639e-15 0 5.42101e-14 2.18206e-14 0 0 0 0)
(-5.42101e-14 2.28649e-14 0 -5.42101e-14 2.6707e-14 0 0 0 0)
(5.42101e-14 -3.3552e-15 0 0 -2.80374e-15 0 0 0 0)
(0 -1.16106e-14 0 0 -5.03441e-15 0 0 0 0)
(0 4.41107e-15 0 2.71051e-14 -4.88648e-15 0 0 0 0)
(-5.42101e-14 9.06833e-12 0 6.23416e-13 2.17878e-11 0 0 0 0)
(4.87891e-13 -1.10393e-11 0 -2.43945e-13 -4.71432e-12 0 0 0 0)
(-2.98156e-13 2.4201e-12 0 -1.0842e-13 1.13182e-12 0 0 0 0)
(-8.13152e-14 -5.62316e-13 0 0 -2.45359e-13 0 0 0 0)
(0 1.41037e-13 0 -2.71051e-14 3.78734e-14 0 0 0 0)
(2.71051e-14 -2.96583e-14 0 -5.42101e-14 -2.22239e-14 0 0 0 0)
(0 -1.29764e-14 0 0 3.46153e-15 0 0 0 0)
(-2.71051e-14 -6.55472e-15 0 -2.71051e-14 1.47685e-14 0 0 0 0)
(0 1.06282e-14 0 -2.71051e-14 6.43166e-15 0 0 0 0)
(0 1.29546e-14 0 -8.13152e-14 -4.12796e-15 0 0 0 0)
(0 9.49114e-15 0 -8.13152e-14 -9.53647e-15 0 0 0 0)
(0 -7.14896e-15 0 -2.71051e-14 8.84596e-16 0 0 0 0)
(0 -1.70614e-14 0 0 6.95095e-15 0 0 0 0)
(-2.71051e-14 6.389e-16 0 -2.71051e-14 8.51623e-15 0 0 0 0)
(2.71051e-14 1.61756e-14 0 -5.42101e-14 2.34665e-15 0 0 0 0)
(-5.42101e-14 1.19231e-14 0 -5.42101e-14 1.35084e-14 0 0 0 0)
(0 -5.37855e-15 0 0 -3.94919e-15 0 0 0 0)
(0 -6.63242e-15 0 0 -1.13458e-14 0 0 0 0)
(2.71051e-14 3.75846e-16 0 0 2.48185e-15 0 0 0 0)
(-2.71051e-14 -4.58906e-15 0 0 2.11715e-15 0 0 0 0)
(1.89735e-13 1.6457e-12 0 8.13152e-14 -2.58743e-11 0 0 0 0)
(-7.58942e-13 -1.94602e-12 0 0 5.73005e-12 0 0 0 0)
(3.79471e-13 3.75213e-13 0 5.42101e-14 -1.30126e-12 0 0 0 0)
(1.0842e-13 -1.13893e-13 0 5.42101e-14 3.24491e-13 0 0 0 0)
(-5.42101e-14 1.64782e-14 0 5.42101e-14 -6.32761e-14 0 0 0 0)
(0 -3.7452e-15 0 5.42101e-14 -8.4154e-15 0 0 0 0)
(5.42101e-14 3.65458e-15 0 5.42101e-14 -2.2306e-14 0 0 0 0)
(2.71051e-14 5.33976e-15 0 5.42101e-14 1.82076e-15 0 0 0 0)
(-2.71051e-14 -4.93458e-16 0 2.71051e-14 7.81624e-15 0 0 0 0)
(0 -1.72055e-15 0 8.13152e-14 9.64515e-15 0 0 0 0)
(0 1.20029e-14 0 5.42101e-14 -6.33128e-15 0 0 0 0)
(2.71051e-14 1.55376e-14 0 0 -6.46125e-15 0 0 0 0)
(5.42101e-14 -3.03175e-15 0 0 3.26704e-15 0 0 0 0)
(-5.42101e-14 -1.08799e-14 0 2.71051e-14 9.51912e-15 0 0 0 0)
(0 4.33357e-16 0 0 2.99102e-15 0 0 0 0)
(0 2.66807e-15 0 0 -1.21976e-15 0 0 0 0)
(0 -1.98925e-15 0 0 -7.53091e-15 0 0 0 0)
(0 3.07584e-15 0 0 -2.95561e-15 0 0 0 0)
(5.42101e-14 1.85237e-15 0 0 -1.00626e-14 0 0 0 0)
(0 -1.87931e-16 0 0 -4.81914e-15 0 0 0 0)
(8.13152e-14 -1.1076e-11 0 -2.30393e-12 1.71556e-11 0 0 0 0)
(4.06576e-13 1.35337e-11 0 7.04731e-13 -3.81429e-12 0 0 0 0)
(-2.43945e-13 -2.98546e-12 0 2.71051e-14 8.92414e-13 0 0 0 0)
(-8.13152e-14 6.75664e-13 0 2.71051e-14 -1.85962e-13 0 0 0 0)
(-2.71051e-14 -1.91869e-13 0 0 5.27928e-14 0 0 0 0)
(2.71051e-14 1.13118e-14 0 5.42101e-14 -1.32959e-14 0 0 0 0)
(0 -2.74026e-15 0 0 7.20629e-15 0 0 0 0)
(-2.71051e-14 2.35675e-14 0 -2.71051e-14 1.33765e-14 0 0 0 0)
(0 1.84526e-14 0 -5.42101e-14 2.23048e-14 0 0 0 0)
(0 -1.19293e-15 0 0 2.97081e-14 0 0 0 0)
(-2.71051e-14 -6.61525e-15 0 2.71051e-14 2.26201e-14 0 0 0 0)
(-5.42101e-14 2.44936e-15 0 0 -6.44209e-16 0 0 0 0)
(0 -1.08099e-15 0 -5.42101e-14 -1.05608e-14 0 0 0 0)
(0 3.62876e-16 0 0 -1.63309e-15 0 0 0 0)
(-2.71051e-14 5.43669e-15 0 0 8.74086e-15 0 0 0 0)
(-2.71051e-14 1.40114e-15 0 0 7.88896e-15 0 0 0 0)
(-5.42101e-14 -7.11439e-15 0 0 7.58369e-15 0 0 0 0)
(5.42101e-14 -9.16408e-15 0 0 -2.32276e-15 0 0 0 0)
(2.71051e-14 -1.48769e-15 0 0 -7.04027e-15 0 0 0 0)
(-2.71051e-14 1.02926e-14 0 0 -8.44383e-16 0 0 0 0)
(-1.40946e-12 1.49871e-11 0 2.98156e-12 2.81938e-12 0 0 0 0)
(1.54499e-12 -1.82092e-11 0 -1.0571e-12 -7.02636e-13 0 0 0 0)
(-2.71051e-13 4.00354e-12 0 -1.0842e-13 1.04999e-13 0 0 0 0)
(1.35525e-13 -9.53514e-13 0 -1.35525e-13 -6.95538e-14 0 0 0 0)
(-5.42101e-14 1.89145e-13 0 -5.42101e-14 4.62599e-15 0 0 0 0)
(0 -4.93317e-14 0 -1.0842e-13 2.60905e-14 0 0 0 0)
(-2.71051e-14 3.03271e-14 0 -1.0842e-13 3.64051e-14 0 0 0 0)
(0 2.04382e-14 0 -1.0842e-13 2.49675e-14 0 0 0 0)
(-5.42101e-14 1.58381e-14 0 -8.13152e-14 4.05841e-15 0 0 0 0)
(5.42101e-14 -1.40523e-15 0 -8.13152e-14 -1.76301e-14 0 0 0 0)
(0 -1.83494e-14 0 -8.13152e-14 -9.31212e-15 0 0 0 0)
(0 -1.76433e-14 0 -8.13152e-14 -5.58044e-15 0 0 0 0)
(2.71051e-14 -4.02064e-15 0 -5.42101e-14 2.5573e-15 0 0 0 0)
(-2.71051e-14 8.42178e-15 0 -8.13152e-14 2.23446e-15 0 0 0 0)
(0 9.95541e-15 0 -8.13152e-14 -6.24526e-15 0 0 0 0)
(2.71051e-14 1.5109e-15 0 -5.42101e-14 -9.27082e-15 0 0 0 0)
(5.42101e-14 -1.2201e-14 0 0 -1.10859e-14 0 0 0 0)
(0 -1.15481e-14 0 0 -9.47022e-15 0 0 0 0)
(0 3.33075e-15 0 0 -4.91068e-15 0 0 0 0)
(0 7.69672e-15 0 -2.71051e-14 -1.40963e-15 0 0 0 0)
(1.97867e-12 -8.95922e-12 0 -1.11131e-12 -2.2197e-11 0 0 0 0)
(-2.6563e-12 1.08194e-11 0 4.87891e-13 4.89975e-12 0 0 0 0)
(7.31836e-13 -2.35238e-12 0 8.13152e-14 -1.16301e-12 0 0 0 0)
(-1.0842e-13 5.75291e-13 0 -2.71051e-14 2.53836e-13 0 0 0 0)
(5.42101e-14 -9.62247e-14 0 -8.13152e-14 -5.77842e-14 0 0 0 0)
(-5.42101e-14 4.30909e-14 0 -2.71051e-14 2.65823e-14 0 0 0 0)
(-2.71051e-14 -3.86334e-15 0 -2.71051e-14 8.98054e-15 0 0 0 0)
(0 -8.77926e-15 0 2.71051e-14 1.05671e-15 0 0 0 0)
(2.71051e-14 -2.4145e-14 0 2.71051e-14 -1.44478e-14 0 0 0 0)
(5.42101e-14 -1.45635e-14 0 0 -2.76379e-14 0 0 0 0)
(-5.42101e-14 5.43442e-15 0 5.42101e-14 -1.3165e-14 0 0 0 0)
(0 1.43188e-14 0 2.71051e-14 -1.45952e-15 0 0 0 0)
(0 6.73391e-15 0 0 6.23928e-15 0 0 0 0)
(0 -8.43968e-15 0 5.42101e-14 3.58914e-15 0 0 0 0)
(0 -6.0686e-15 0 2.71051e-14 -1.3571e-14 0 0 0 0)
(-2.71051e-14 -3.43952e-15 0 5.42101e-14 -2.70201e-14 0 0 0 0)
(2.71051e-14 -7.31379e-15 0 0 -2.58383e-14 0 0 0 0)
(5.42101e-14 -2.98885e-15 0 5.42101e-14 -4.29978e-15 0 0 0 0)
(0 6.5729e-15 0 2.71051e-14 1.69656e-15 0 0 0 0)
(0 1.6613e-14 0 2.71051e-14 -4.85303e-15 0 0 0 0)
(-2.00577e-12 -2.31017e-12 0 -3.95734e-12 2.62652e-11 0 0 0 0)
(2.73761e-12 2.82471e-12 0 1.00289e-12 -5.74815e-12 0 0 0 0)
(-8.67362e-13 -6.42371e-13 0 -2.1684e-13 1.38373e-12 0 0 0 0)
(5.42101e-14 1.51713e-13 0 1.35525e-13 -2.93292e-13 0 0 0 0)
(-1.0842e-13 -3.81086e-14 0 2.71051e-14 5.61658e-14 0 0 0 0)
(1.0842e-13 1.74331e-14 0 2.71051e-14 -4.78106e-14 0 0 0 0)
(2.71051e-14 4.80148e-15 0 8.13152e-14 -2.46957e-14 0 0 0 0)
(5.42101e-14 -2.99013e-15 0 8.13152e-14 -1.65728e-14 0 0 0 0)
(-5.42101e-14 -1.28565e-14 0 1.0842e-13 1.38104e-15 0 0 0 0)
(0 -1.22448e-16 0 1.0842e-13 2.55834e-14 0 0 0 0)
(0 7.82895e-15 0 0 1.90495e-14 0 0 0 0)
(0 1.76103e-15 0 8.13152e-14 -1.20588e-14 0 0 0 0)
(5.42101e-14 1.02802e-15 0 8.13152e-14 -2.66311e-14 0 0 0 0)
(0 -1.13885e-14 0 2.71051e-14 -4.31186e-15 0 0 0 0)
(0 -2.06539e-14 0 8.13152e-14 4.10333e-15 0 0 0 0)
(2.71051e-14 -1.07564e-14 0 5.42101e-14 -7.56793e-15 0 0 0 0)
(2.71051e-14 1.05194e-14 0 8.13152e-14 -3.73653e-16 0 0 0 0)
(-2.71051e-14 1.59867e-14 0 -2.71051e-14 1.51847e-14 0 0 0 0)
(0 2.7775e-15 0 0 1.44083e-14 0 0 0 0)
(-2.71051e-14 1.08532e-14 0 0 2.79643e-15 0 0 0 0)
(-9.75782e-13 1.15578e-11 0 7.86047e-12 -4.12088e-12 0 0 0 0)
(1.0571e-12 -1.40621e-11 0 -2.03288e-12 8.28496e-13 0 0 0 0)
(-1.6263e-13 3.10248e-12 0 3.25261e-13 -1.93181e-13 0 0 0 0)
(1.6263e-13 -7.52275e-13 0 -5.42101e-14 2.526e-14 0 0 0 0)
(-2.71051e-14 1.49257e-13 0 8.13152e-14 -1.70299e-15 0 0 0 0)
(0 -3.77706e-14 0 8.13152e-14 2.75278e-15 0 0 0 0)
(0 2.73745e-14 0 -5.42101e-14 -6.1744e-15 0 0 0 0)
(0 1.72974e-14 0 -8.13152e-14 -2.19049e-14 0 0 0 0)
(5.42101e-14 1.80112e-14 0 -5.42101e-14 -1.38424e-14 0 0 0 0)
(0 3.10496e-15 0 0 9.75433e-15 0 0 0 0)
(-2.71051e-14 -3.22077e-14 0 5.42101e-14 2.7268e-15 0 0 0 0)
(0 -3.13618e-14 0 5.42101e-14 -2.54748e-15 0 0 0 0)
(-2.71051e-14 1.44808e-14 0 0 -3.76066e-15 0 0 0 0)
(2.71051e-14 2.22947e-14 0 -2.71051e-14 -4.53206e-15 0 0 0 0)
(0 -9.32467e-15 0 0 2.8298e-15 0 0 0 0)
(0 -7.9165e-15 0 -2.71051e-14 9.48621e-15 0 0 0 0)
(-5.42101e-14 1.54388e-14 0 -2.71051e-14 1.30433e-14 0 0 0 0)
(-2.71051e-14 1.17931e-14 0 -2.71051e-14 5.72796e-16 0 0 0 0)
(0 -5.81537e-15 0 -2.71051e-14 8.68311e-15 0 0 0 0)
(0 -5.91743e-16 0 0 1.15087e-14 0 0 0 0)
(3.87602e-12 -5.60255e-12 0 -1.00289e-12 -2.3435e-11 0 0 0 0)
(-4.79759e-12 6.75241e-12 0 4.06576e-13 5.20882e-12 0 0 0 0)
(1.11131e-12 -1.44561e-12 0 1.35525e-13 -1.23528e-12 0 0 0 0)
(-2.43945e-13 3.43191e-13 0 2.71051e-14 2.82087e-13 0 0 0 0)
(5.42101e-14 -6.06158e-14 0 5.42101e-14 -4.60426e-14 0 0 0 0)
(-5.42101e-14 1.29617e-14 0 2.71051e-14 3.48311e-14 0 0 0 0)
(-8.13152e-14 -1.98562e-14 0 1.0842e-13 3.34371e-15 0 0 0 0)
(5.42101e-14 -1.06581e-14 0 8.13152e-14 -1.90686e-14 0 0 0 0)
(2.71051e-14 1.88028e-14 0 2.71051e-14 -2.60693e-14 0 0 0 0)
(5.42101e-14 1.64467e-14 0 0 -2.93417e-14 0 0 0 0)
(5.42101e-14 -4.47286e-15 0 0 -1.33126e-14 0 0 0 0)
(-2.71051e-14 -4.72644e-15 0 -2.71051e-14 2.5746e-14 0 0 0 0)
(-8.13152e-14 -9.56554e-16 0 0 3.38452e-14 0 0 0 0)
(0 -4.798e-15 0 2.71051e-14 8.44087e-16 0 0 0 0)
(0 -6.63559e-15 0 0 -1.07821e-14 0 0 0 0)
(0 -5.42908e-16 0 -2.71051e-14 -2.26751e-15 0 0 0 0)
(5.42101e-14 1.60597e-15 0 0 -3.51313e-15 0 0 0 0)
(0 1.16265e-14 0 0 -1.27085e-14 0 0 0 0)
(2.71051e-14 1.37134e-14 0 -5.42101e-14 7.37059e-16 0 0 0 0)
(-2.71051e-14 -9.33864e-15 0 -2.71051e-14 8.70335e-15 0 0 0 0)
(-1.5992e-12 -6.6684e-12 0 -2.81893e-12 1.57069e-11 0 0 0 0)
(2.1684e-12 8.13767e-12 0 5.69206e-13 -3.43597e-12 0 0 0 0)
(-5.14996e-13 -1.82425e-12 0 -2.43945e-13 8.16835e-13 0 0 0 0)
(8.13152e-14 4.36958e-13 0 -2.71051e-14 -1.6611e-13 0 0 0 0)
(0 -9.79993e-14 0 -8.13152e-14 3.6685e-14 0 0 0 0)
(0 1.16157e-14 0 -5.42101e-14 -7.49462e-15 0 0 0 0)
(2.71051e-14 -2.65253e-14 0 -5.42101e-14 1.21076e-14 0 0 0 0)
(-2.71051e-14 -1.21155e-14 0 -2.71051e-14 3.88869e-14 0 0 0 0)
(-2.71051e-14 7.73806e-15 0 -2.71051e-14 3.48812e-14 0 0 0 0)
(0 1.58616e-14 0 -5.42101e-14 1.23461e-14 0 0 0 0)
(-5.42101e-14 2.288e-14 0 -5.42101e-14 2.57286e-15 0 0 0 0)
(0 1.5796e-14 0 -5.42101e-14 -6.06106e-15 0 0 0 0)
(2.71051e-14 -1.04211e-14 0 -2.71051e-14 -8.49668e-15 0 0 0 0)
(0 -2.23326e-14 0 -2.71051e-14 5.31658e-15 0 0 0 0)
(-2.71051e-14 -1.24363e-14 0 -2.71051e-14 1.86339e-14 0 0 0 0)
(-2.71051e-14 -6.47488e-16 0 0 2.43884e-14 0 0 0 0)
(-2.71051e-14 4.99786e-15 0 0 1.98243e-14 0 0 0 0)
(-5.42101e-14 1.60433e-14 0 0 1.77846e-14 0 0 0 0)
(5.42101e-14 1.55965e-14 0 5.42101e-14 -7.84548e-15 0 0 0 0)
(0 -1.00322e-14 0 0 -1.15253e-14 0 0 0 0)
)
;

boundaryField
{
    movingWall
    {
        type            extrapolatedCalculated;
        value           nonuniform List<tensor> 
20
(
(-1.5992e-12 -6.6684e-12 0 8.79297e-12 3.438e-11 0 0 0 0)
(2.1684e-12 8.13767e-12 0 -2.35367e-12 -7.70643e-12 0 0 0 0)
(-5.14996e-13 -1.82425e-12 0 0 1.82934e-12 0 0 0 0)
(8.13152e-14 4.36958e-13 0 -3.10862e-13 -4.09428e-13 0 0 0 0)
(0 -9.79993e-14 0 -2.66454e-13 8.15055e-14 0 0 0 0)
(0 1.16157e-14 0 -2.66454e-13 -1.74312e-14 0 0 0 0)
(2.71051e-14 -2.65253e-14 0 -3.10862e-13 3.50426e-14 0 0 0 0)
(-2.71051e-14 -1.21155e-14 0 -3.10862e-13 8.86701e-14 0 0 0 0)
(-2.71051e-14 7.73806e-15 0 -2.22045e-13 8.35047e-14 0 0 0 0)
(0 1.58616e-14 0 -2.22045e-13 5.77178e-14 0 0 0 0)
(-5.42101e-14 2.288e-14 0 -1.77636e-13 2.00581e-14 0 0 0 0)
(0 1.5796e-14 0 -8.88178e-14 -3.38021e-14 0 0 0 0)
(2.71051e-14 -1.04211e-14 0 -1.77636e-13 -4.31257e-14 0 0 0 0)
(0 -2.23326e-14 0 -1.77636e-13 7.8822e-15 0 0 0 0)
(-2.71051e-14 -1.24363e-14 0 -1.33227e-13 4.62046e-14 0 0 0 0)
(-2.71051e-14 -6.47488e-16 0 -4.44089e-14 5.76273e-14 0 0 0 0)
(-2.71051e-14 4.99786e-15 0 -4.44089e-14 4.87945e-14 0 0 0 0)
(-5.42101e-14 1.60433e-14 0 0 3.76358e-14 0 0 0 0)
(5.42101e-14 1.55965e-14 0 8.88178e-14 -1.53785e-14 0 0 0 0)
(0 -1.00322e-14 0 0 -2.47501e-14 0 0 0 0)
)
;
    }
    fixedWalls
    {
        type            extrapolatedCalculated;
        value           nonuniform List<tensor> 
60
(
(-7.72715e-12 7.86245e-11 0 1.70762e-12 1.87156e-11 0 0 0 0)
(1.45661e-11 -3.76189e-12 0 7.31836e-13 -3.62205e-11 0 0 0 0)
(-4.79616e-12 -6.62576e-11 0 -7.04731e-12 1.68229e-11 0 0 0 0)
(-1.35891e-11 6.35298e-11 0 5.69206e-12 1.3939e-11 0 0 0 0)
(1.79856e-11 -1.05016e-11 0 9.75782e-13 -2.91274e-11 0 0 0 0)
(-9.68114e-12 -5.29798e-11 0 -4.2826e-12 2.22391e-11 0 0 0 0)
(7.99361e-13 7.84549e-11 0 3.63208e-12 4.7994e-12 0 0 0 0)
(4.75175e-12 -3.37822e-11 0 -1.68051e-12 -2.76134e-11 0 0 0 0)
(-5.77316e-12 -3.19986e-11 0 -9.21572e-13 2.69028e-11 0 0 0 0)
(1.06581e-12 7.38291e-11 0 1.40946e-12 -1.17379e-11 0 0 0 0)
(-1.77636e-13 -7.89502e-11 0 -5.69206e-13 -6.82748e-12 0 0 0 0)
(-1.33227e-12 4.65192e-11 0 6.23416e-13 2.17878e-11 0 0 0 0)
(2.39808e-12 8.20119e-12 0 8.13152e-14 -2.58743e-11 0 0 0 0)
(-9.76996e-13 -5.69781e-11 0 -2.30393e-12 1.71556e-11 0 0 0 0)
(-6.83897e-12 7.68238e-11 0 2.98156e-12 2.81938e-12 0 0 0 0)
(1.09246e-11 -4.57006e-11 0 -1.11131e-12 -2.2197e-11 0 0 0 0)
(-1.13687e-11 -1.19641e-11 0 -3.95734e-12 2.62652e-11 0 0 0 0)
(-4.79616e-12 5.93601e-11 0 7.86047e-12 -4.12088e-12 0 0 0 0)
(2.01172e-11 -2.84476e-11 0 -1.00289e-12 -2.3435e-11 0 0 0 0)
(-8.79297e-12 -3.438e-11 0 -2.81893e-12 1.57069e-11 0 0 0 0)
(8.88178e-14 -1.76864e-14 0 -5.42101e-14 2.00065e-15 0 0 0 0)
(8.88178e-14 9.68381e-15 0 5.42101e-14 -1.88653e-14 0 0 0 0)
(0 5.77749e-14 0 2.71051e-14 -5.20714e-15 0 0 0 0)
(-8.88178e-14 3.05124e-14 0 2.71051e-14 1.4464e-14 0 0 0 0)
(-4.44089e-14 -8.11195e-17 0 -5.42101e-14 7.02573e-15 0 0 0 0)
(0 2.40945e-15 0 0 -1.93117e-17 0 0 0 0)
(0 -3.87284e-18 0 0 3.03776e-16 0 0 0 0)
(0 1.19435e-15 0 0 5.48168e-15 0 0 0 0)
(0 -2.19306e-14 0 0 6.10157e-15 0 0 0 0)
(0 -2.32119e-14 0 0 -8.07333e-15 0 0 0 0)
(-4.44089e-14 1.03627e-14 0 2.71051e-14 -4.88648e-15 0 0 0 0)
(-4.44089e-14 -3.66602e-15 0 0 2.11715e-15 0 0 0 0)
(0 1.89412e-15 0 0 -4.81914e-15 0 0 0 0)
(-4.44089e-14 1.56105e-14 0 0 -8.44383e-16 0 0 0 0)
(0 5.27165e-15 0 -2.71051e-14 -1.40963e-15 0 0 0 0)
(0 2.12491e-14 0 2.71051e-14 -4.85303e-15 0 0 0 0)
(-4.44089e-14 2.46838e-14 0 0 2.79643e-15 0 0 0 0)
(0 1.00633e-14 0 0 1.15087e-14 0 0 0 0)
(-4.44089e-14 -2.13511e-14 0 -2.71051e-14 8.70335e-15 0 0 0 0)
(0 -2.47501e-14 0 0 -1.15253e-14 0 0 0 0)
(-1.30104e-12 1.53541e-11 0 -7.72715e-12 7.86245e-11 0 0 0 0)
(1.97867e-12 -1.86611e-11 0 2.53131e-12 -1.72081e-11 0 0 0 0)
(-5.42101e-13 4.07841e-12 0 8.88178e-14 3.97992e-12 0 0 0 0)
(5.42101e-14 -9.45308e-13 0 4.44089e-13 -8.94431e-13 0 0 0 0)
(-5.42101e-14 2.19128e-13 0 3.10862e-13 1.98691e-13 0 0 0 0)
(0 -2.83073e-14 0 2.22045e-13 -1.79205e-14 0 0 0 0)
(-2.71051e-14 2.69949e-14 0 3.10862e-13 8.54622e-14 0 0 0 0)
(-5.42101e-14 -8.42853e-15 0 1.33227e-13 9.00591e-14 0 0 0 0)
(-2.71051e-14 -1.1644e-14 0 4.44089e-14 5.17481e-14 0 0 0 0)
(-2.71051e-14 -4.41204e-16 0 0 4.3483e-14 0 0 0 0)
(0 4.55031e-16 0 0 4.99833e-14 0 0 0 0)
(0 -6.27406e-15 0 -8.88178e-14 4.53032e-14 0 0 0 0)
(-5.42101e-14 -1.92094e-14 0 0 2.48871e-14 0 0 0 0)
(5.42101e-14 -8.72069e-15 0 -8.88178e-14 -3.15346e-14 0 0 0 0)
(0 1.11188e-14 0 0 -9.99571e-15 0 0 0 0)
(-5.42101e-14 -3.79078e-15 0 -8.88178e-14 1.29408e-14 0 0 0 0)
(5.42101e-14 -7.67419e-15 0 0 -2.51588e-14 0 0 0 0)
(2.71051e-14 8.46945e-15 0 0 -1.7756e-14 0 0 0 0)
(-2.71051e-14 8.8606e-15 0 8.88178e-14 8.71895e-15 0 0 0 0)
(0 -6.60134e-15 0 -8.88178e-14 1.76864e-14 0 0 0 0)
)
;
    }
    frontAndBack
    {
        type            empty;
    }
}


// ************************************************************************* //
