/*--------------------------------*- C++ -*----------------------------------*\
| =========                 |                                                 |
| \\      /  F ield         | OpenFOAM: The Open Source CFD Toolbox           |
|  \\    /   O peration     | Version:  2506                                  |
|   \\  /    A nd           | Website:  www.openfoam.com                      |
|    \\/     M anipulation  |                                                 |
\*---------------------------------------------------------------------------*/
FoamFile
{
    version     2.0;
    format      ascii;
    arch        "LSB;label=32;scalar=64";
    class       volVectorField;
    location    "10";
    object      gradPhi;
}
// * * * * * * * * * * * * * * * * * * * * * * * * * * * * * * * * * * * * * //

dimensions      [0 2 -1 0 0 0 0];

internalField   nonuniform List<vector> 
400
(
(-0.02 1.0883e-16 0)
(1.60473e-16 -1.62342e-16 0)
(-4.63221e-17 4.67532e-17 0)
(8.27181e-18 -8.16825e-18 0)
(-1.65436e-18 2.26958e-18 0)
(0 1.97224e-19 0)
(-1.65436e-18 1.6257e-18 0)
(-3.30872e-18 2.6779e-18 0)
(-1.65436e-18 1.21683e-18 0)
(0 9.64616e-19 0)
(0 9.30895e-19 0)
(-1.65436e-18 5.03484e-19 0)
(0 3.93332e-19 0)
(1.65436e-18 -8.70925e-19 0)
(-1.65436e-18 3.75925e-19 0)
(0 1.10112e-18 0)
(0 -1.07876e-18 0)
(1.65436e-18 -1.25935e-18 0)
(0 -2.79105e-19 0)
(0 9.47798e-19 0)
(-0.02 -2.23603e-16 0)
(-3.06057e-16 3.06042e-16 0)
(8.93355e-17 -9.06902e-17 0)
(-1.48893e-17 1.64049e-17 0)
(1.65436e-18 -2.76508e-18 0)
(-1.65436e-18 1.17996e-18 0)
(0 8.96106e-19 0)
(1.65436e-18 -1.55806e-18 0)
(1.65436e-18 -9.31378e-19 0)
(1.65436e-18 -1.93155e-18 0)
(1.65436e-18 -6.37886e-19 0)
(0 7.5332e-19 0)
(0 -7.40519e-19 0)
(1.65436e-18 -8.40934e-19 0)
(1.65436e-18 -1.33205e-18 0)
(-1.65436e-18 3.93e-19 0)
(0 1.37951e-18 0)
(0 -8.10052e-20 0)
(0 -9.39626e-19 0)
(1.65436e-18 -2.36911e-18 0)
(-0.02 8.91477e-17 0)
(1.1746e-16 -1.17952e-16 0)
(-3.97047e-17 4.0042e-17 0)
(6.61744e-18 -7.35134e-18 0)
(-1.65436e-18 4.18129e-19 0)
(1.65436e-18 -8.6122e-19 0)
(1.65436e-18 -2.67092e-18 0)
(0 -5.27231e-19 0)
(0 5.99661e-19 0)
(-1.65436e-18 1.82177e-18 0)
(1.65436e-18 -1.12192e-18 0)
(0 -2.27078e-18 0)
(1.65436e-18 2.01972e-19 0)
(-1.65436e-18 2.02014e-18 0)
(0 7.77326e-19 0)
(0 -1.89126e-18 0)
(0 2.54124e-19 0)
(0 -1.32498e-20 0)
(1.65436e-18 -9.88646e-19 0)
(0 -3.97665e-19 0)
(-0.02 1.32965e-16 0)
(1.62127e-16 -1.6327e-16 0)
(-3.63959e-17 3.73727e-17 0)
(8.27181e-18 -8.55881e-18 0)
(-1.65436e-18 2.46524e-18 0)
(0 -5.8208e-19 0)
(0 -1.5244e-19 0)
(1.65436e-18 -1.30765e-19 0)
(1.65436e-18 -8.71235e-19 0)
(0 -8.37208e-19 0)
(0 1.66236e-18 0)
(-1.65436e-18 1.44594e-18 0)
(0 8.20747e-19 0)
(0 -3.7773e-20 0)
(0 2.42494e-19 0)
(0 8.82241e-19 0)
(0 -1.78873e-19 0)
(0 5.28257e-19 0)
(-1.65436e-18 1.47417e-18 0)
(-1.65436e-18 2.0391e-18 0)
(-0.02 -2.14513e-16 0)
(-2.77933e-16 2.77294e-16 0)
(7.44463e-17 -7.39679e-17 0)
(-1.65436e-17 1.53414e-17 0)
(4.96308e-18 -4.65648e-18 0)
(0 -2.27251e-19 0)
(0 -2.14491e-20 0)
(0 -1.08213e-18 0)
(0 -5.83759e-19 0)
(1.65436e-18 -5.14792e-19 0)
(0 -4.65493e-19 0)
(0 1.09735e-19 0)
(0 2.27055e-19 0)
(0 -1.08275e-19 0)
(0 2.29849e-19 0)
(0 5.09869e-19 0)
(-1.65436e-18 7.67238e-19 0)
(-1.65436e-18 1.56386e-18 0)
(0 -7.68433e-20 0)
(0 -2.60083e-19 0)
(-0.02 1.43832e-16 0)
(2.00178e-16 -1.98859e-16 0)
(-5.9557e-17 5.94241e-17 0)
(8.27181e-18 -8.28004e-18 0)
(-4.96308e-18 4.44624e-18 0)
(1.65436e-18 2.83669e-19 0)
(0 1.80008e-19 0)
(0 4.7034e-19 0)
(0 -3.57769e-19 0)
(0 2.56907e-19 0)
(1.65436e-18 -1.44443e-18 0)
(1.65436e-18 -5.80397e-19 0)
(-1.65436e-18 6.60497e-19 0)
(-1.65436e-18 1.69184e-18 0)
(-1.65436e-18 6.07655e-19 0)
(0 -7.72345e-20 0)
(0 -2.83102e-19 0)
(0 -9.07367e-19 0)
(0 7.86534e-19 0)
(0 -8.53286e-20 0)
(-0.02 8.60873e-18 0)
(1.8198e-17 -1.96693e-17 0)
(-8.27181e-18 1.02474e-17 0)
(0 -2.07768e-18 0)
(0 7.07594e-19 0)
(0 6.35785e-19 0)
(-1.65436e-18 1.10548e-18 0)
(-1.65436e-18 5.20042e-19 0)
(1.65436e-18 1.07704e-19 0)
(0 6.03745e-20 0)
(-1.65436e-18 1.4009e-18 0)
(-1.65436e-18 -3.54321e-19 0)
(3.30872e-18 -1.88506e-18 0)
(1.65436e-18 -2.16894e-18 0)
(0 1.53791e-19 0)
(0 -6.06139e-19 0)
(0 -4.75486e-19 0)
(-1.65436e-18 1.13137e-18 0)
(0 4.51749e-19 0)
(0 3.0885e-19 0)
(-0.02 -1.23571e-16 0)
(-1.9356e-16 1.93137e-16 0)
(7.11375e-17 -7.10508e-17 0)
(-9.92617e-18 9.79587e-18 0)
(3.30872e-18 -3.10777e-18 0)
(-1.65436e-18 1.49391e-18 0)
(0 3.09527e-19 0)
(1.65436e-18 -4.04855e-19 0)
(-1.65436e-18 9.09851e-19 0)
(1.65436e-18 -8.5805e-19 0)
(1.65436e-18 -2.5135e-19 0)
(0 3.22766e-19 0)
(0 -1.28795e-18 0)
(0 -7.91121e-19 0)
(3.30872e-18 -1.86987e-18 0)
(0 -8.14277e-19 0)
(0 4.71457e-19 0)
(0 -2.51751e-19 0)
(0 3.53781e-19 0)
(0 -3.17771e-19 0)
(-0.02 1.17331e-16 0)
(1.78671e-16 -1.7963e-16 0)
(-6.94832e-17 6.91387e-17 0)
(1.15805e-17 -1.09475e-17 0)
(0 1.13303e-19 0)
(1.65436e-18 -1.39083e-18 0)
(-1.65436e-18 4.51395e-19 0)
(-3.30872e-18 2.027e-18 0)
(-1.65436e-18 1.24438e-18 0)
(-1.65436e-18 2.25964e-18 0)
(0 1.10224e-19 0)
(0 -9.16578e-20 0)
(0 -1.27802e-20 0)
(0 -4.95698e-19 0)
(1.65436e-18 -1.40371e-18 0)
(0 3.66114e-19 0)
(0 -1.52253e-18 0)
(3.30872e-18 -1.16811e-18 0)
(0 4.01982e-19 0)
(-1.65436e-18 1.44289e-18 0)
(-0.02 -4.35913e-17 0)
(-7.27919e-17 7.4811e-17 0)
(2.97785e-17 -3.15895e-17 0)
(-4.96308e-18 4.03321e-18 0)
(0 1.46187e-19 0)
(0 -6.81852e-19 0)
(1.65436e-18 -1.53683e-18 0)
(3.30872e-18 -2.19686e-18 0)
(1.65436e-18 -1.46184e-18 0)
(0 -1.0822e-18 0)
(0 -3.58789e-19 0)
(0 -1.80168e-19 0)
(0 1.78095e-18 0)
(-1.65436e-18 1.19537e-18 0)
(-3.30872e-18 1.45703e-18 0)
(3.30872e-18 -1.79794e-18 0)
(0 -6.06633e-19 0)
(-1.65436e-18 2.08953e-18 0)
(0 -8.42174e-19 0)
(1.65436e-18 -1.65876e-18 0)
(-0.02 -1.63178e-17 0)
(-3.63959e-17 3.69895e-17 0)
(1.65436e-17 -1.68054e-17 0)
(0 6.63948e-19 0)
(0 -4.64436e-19 0)
(0 7.10158e-19 0)
(1.65436e-18 -1.04026e-18 0)
(1.65436e-18 -2.0999e-18 0)
(1.65436e-18 -7.90866e-19 0)
(0 -6.02127e-19 0)
(0 3.63154e-19 0)
(0 9.48402e-19 0)
(0 -5.38721e-19 0)
(1.65436e-18 -1.12322e-18 0)
(0 6.40094e-19 0)
(-3.30872e-18 1.37078e-18 0)
(-1.65436e-18 2.0951e-18 0)
(1.65436e-18 -1.51098e-18 0)
(0 -4.34996e-19 0)
(0 1.6759e-19 0)
(-0.02 7.66422e-17 0)
(1.2904e-16 -1.28006e-16 0)
(-5.45939e-17 5.47381e-17 0)
(6.61744e-18 -5.8012e-18 0)
(0 -2.02701e-19 0)
(1.65436e-18 -1.83941e-18 0)
(0 2.70813e-19 0)
(-1.65436e-18 1.6213e-18 0)
(0 -2.32338e-19 0)
(0 -2.4363e-19 0)
(0 -1.51623e-19 0)
(0 -4.17476e-20 0)
(0 7.3458e-19 0)
(-1.65436e-18 1.33889e-18 0)
(0 -5.92435e-19 0)
(0 1.22715e-18 0)
(-1.65436e-18 -5.45374e-20 0)
(1.65436e-18 -7.55222e-19 0)
(-1.65436e-18 3.43056e-19 0)
(0 7.92454e-19 0)
(-0.02 -9.88968e-17 0)
(-1.57164e-16 1.57527e-16 0)
(6.12114e-17 -6.27656e-17 0)
(-8.27181e-18 9.4331e-18 0)
(0 -1.00754e-19 0)
(0 5.50417e-19 0)
(1.65436e-18 -1.42801e-18 0)
(1.65436e-18 -5.33037e-19 0)
(-1.65436e-18 1.56214e-18 0)
(0 8.84235e-19 0)
(0 -1.23275e-18 0)
(1.65436e-18 -8.34214e-19 0)
(1.65436e-18 -3.78527e-19 0)
(0 -6.02882e-20 0)
(-1.65436e-18 4.64624e-19 0)
(0 -6.55174e-19 0)
(1.65436e-18 -1.28684e-18 0)
(-1.65436e-18 1.34281e-18 0)
(1.65436e-18 -2.94797e-19 0)
(1.65436e-18 -1.49485e-18 0)
(-0.02 5.31015e-17 0)
(9.76073e-17 -9.7552e-17 0)
(-4.30134e-17 4.26232e-17 0)
(4.96308e-18 -4.12873e-18 0)
(0 6.4805e-19 0)
(0 -1.32537e-18 0)
(0 5.2659e-19 0)
(-1.65436e-18 8.90951e-19 0)
(1.65436e-18 -6.58954e-19 0)
(-1.65436e-18 1.11614e-18 0)
(-3.30872e-18 2.71033e-18 0)
(0 8.0576e-19 0)
(-1.65436e-18 1.87301e-19 0)
(0 3.17346e-20 0)
(0 7.90889e-19 0)
(-1.65436e-18 1.1149e-18 0)
(-1.65436e-18 1.5965e-18 0)
(3.30872e-18 -1.69385e-18 0)
(0 -7.52806e-19 0)
(-1.65436e-18 8.84182e-19 0)
(-0.02 5.49104e-17 0)
(5.62483e-17 -5.60856e-17 0)
(-6.61744e-18 6.3966e-18 0)
(4.96308e-18 -4.82115e-18 0)
(0 8.83677e-19 0)
(-1.65436e-18 9.25883e-19 0)
(-1.65436e-18 1.6229e-18 0)
(0 9.36233e-19 0)
(-3.30872e-18 1.45043e-18 0)
(1.65436e-18 -1.02417e-18 0)
(1.65436e-18 -2.07903e-18 0)
(1.65436e-18 -9.49923e-19 0)
(0 -3.46697e-19 0)
(0 2.90372e-19 0)
(0 -8.04036e-19 0)
(1.65436e-18 -1.76825e-18 0)
(0 -1.86011e-18 0)
(0 4.94799e-19 0)
(0 -1.27642e-19 0)
(0 -4.63048e-20 0)
(-0.02 -1.45834e-16 0)
(-1.96869e-16 1.97511e-16 0)
(5.9557e-17 -5.84231e-17 0)
(-1.15805e-17 9.24621e-18 0)
(4.96308e-18 -3.42692e-18 0)
(-3.30872e-18 2.56496e-18 0)
(0 1.17944e-18 0)
(-1.65436e-18 8.9322e-19 0)
(1.65436e-18 -8.11108e-19 0)
(1.65436e-18 -1.20922e-18 0)
(0 -1.83795e-19 0)
(0 2.40905e-20 0)
(-1.65436e-18 9.07981e-19 0)
(0 2.10818e-19 0)
(0 -6.28734e-19 0)
(0 2.33617e-19 0)
(0 6.17015e-20 0)
(1.65436e-18 -8.0375e-19 0)
(0 -1.70551e-19 0)
(1.65436e-18 -1.05795e-18 0)
(-0.02 1.59256e-16 0)
(2.15067e-16 -2.15196e-16 0)
(-6.94832e-17 6.91115e-17 0)
(8.27181e-18 -8.88125e-18 0)
(-3.30872e-18 3.4984e-18 0)
(3.30872e-18 -3.41502e-18 0)
(3.30872e-18 -1.93449e-18 0)
(1.65436e-18 -1.68642e-18 0)
(-1.65436e-18 -4.99626e-20 0)
(0 1.21037e-18 0)
(-1.65436e-18 1.27374e-18 0)
(0 -2.954e-19 0)
(3.30872e-18 -2.34573e-18 0)
(0 -4.12823e-19 0)
(-1.65436e-18 7.15739e-19 0)
(3.30872e-18 -1.72785e-18 0)
(0 -1.5585e-18 0)
(0 8.24731e-19 0)
(-1.65436e-18 1.18811e-18 0)
(0 9.12266e-19 0)
(-0.02 1.22728e-17 0)
(4.96308e-18 -3.5022e-18 0)
(8.27181e-18 -9.60081e-18 0)
(1.65436e-18 -2.31002e-18 0)
(0 -2.4777e-19 0)
(0 7.25726e-20 0)
(1.65436e-18 -1.03003e-18 0)
(0 -6.97169e-19 0)
(1.65436e-18 -9.90044e-19 0)
(0 1.02388e-18 0)
(-1.65436e-18 9.73086e-19 0)
(0 -4.08579e-20 0)
(-1.65436e-18 -8.44925e-20 0)
(1.65436e-18 -5.59668e-19 0)
(1.65436e-18 -3.88419e-19 0)
(-1.65436e-18 1.24093e-18 0)
(-3.30872e-18 1.99176e-18 0)
(-1.65436e-18 8.6105e-19 0)
(0 5.10358e-19 0)
(0 -1.09779e-20 0)
(-0.02 -2.12284e-16 0)
(-2.63043e-16 2.63298e-16 0)
(5.9557e-17 -6.18592e-17 0)
(-1.15805e-17 1.34368e-17 0)
(3.30872e-18 -2.80092e-18 0)
(-3.30872e-18 2.18929e-18 0)
(-3.30872e-18 1.87342e-18 0)
(1.65436e-18 -1.52215e-18 0)
(1.65436e-18 -1.32349e-18 0)
(3.30872e-18 -2.29717e-18 0)
(1.65436e-18 -2.52026e-18 0)
(0 7.76581e-19 0)
(-3.30872e-18 3.00355e-18 0)
(-1.65436e-18 8.31044e-19 0)
(1.65436e-18 -4.16171e-19 0)
(0 -4.48322e-19 0)
(1.65436e-18 -1.12038e-18 0)
(1.65436e-18 -1.92786e-18 0)
(0 -2.46574e-19 0)
(-1.65436e-18 1.3863e-18 0)
(-0.02 1.21715e-16 0)
(1.63782e-16 -1.64546e-16 0)
(-3.97047e-17 4.0905e-17 0)
(6.61744e-18 -7.02949e-18 0)
(-1.65436e-18 2.17644e-18 0)
(0 -4.80802e-19 0)
(1.65436e-18 -2.26945e-19 0)
(-1.65436e-18 2.40158e-18 0)
(-1.65436e-18 1.97175e-18 0)
(-1.65436e-18 1.00217e-18 0)
(-1.65436e-18 1.02265e-18 0)
(0 -5.06055e-20 0)
(1.65436e-18 -1.29749e-18 0)
(0 -1.40535e-19 0)
(0 9.80012e-19 0)
(-1.65436e-18 1.34674e-18 0)
(-1.65436e-18 1.40835e-18 0)
(-1.65436e-18 1.53608e-18 0)
(0 -3.55978e-19 0)
(1.65436e-18 -1.18262e-18 0)
)
;

boundaryField
{
    movingWall
    {
        type            extrapolatedCalculated;
        value           nonuniform List<vector> 
20
(
(-0.02 1.21715e-16 0)
(1.63782e-16 -1.64546e-16 0)
(-3.97047e-17 4.0905e-17 0)
(6.61744e-18 -7.02949e-18 0)
(-1.65436e-18 2.17644e-18 0)
(0 -4.80802e-19 0)
(1.65436e-18 -2.26945e-19 0)
(-1.65436e-18 2.40158e-18 0)
(-1.65436e-18 1.97175e-18 0)
(-1.65436e-18 1.00217e-18 0)
(-1.65436e-18 1.02265e-18 0)
(0 -5.06055e-20 0)
(1.65436e-18 -1.29749e-18 0)
(0 -1.40535e-19 0)
(0 9.80012e-19 0)
(-1.65436e-18 1.34674e-18 0)
(-1.65436e-18 1.40835e-18 0)
(-1.65436e-18 1.53608e-18 0)
(0 -3.55978e-19 0)
(1.65436e-18 -1.18262e-18 0)
)
;
    }
    fixedWalls
    {
        type            extrapolatedCalculated;
        value           nonuniform List<vector> 
60
(
(-0.02 1.0883e-16 0)
(-0.02 -2.23603e-16 0)
(-0.02 8.91477e-17 0)
(-0.02 1.32965e-16 0)
(-0.02 -2.14513e-16 0)
(-0.02 1.43832e-16 0)
(-0.02 8.60873e-18 0)
(-0.02 -1.23571e-16 0)
(-0.02 1.17331e-16 0)
(-0.02 -4.35913e-17 0)
(-0.02 -1.63178e-17 0)
(-0.02 7.66422e-17 0)
(-0.02 -9.88968e-17 0)
(-0.02 5.31015e-17 0)
(-0.02 5.49104e-17 0)
(-0.02 -1.45834e-16 0)
(-0.02 1.59256e-16 0)
(-0.02 1.22728e-17 0)
(-0.02 -2.12284e-16 0)
(-0.02 1.21715e-16 0)
(0 9.47798e-19 0)
(1.65436e-18 -2.36911e-18 0)
(0 -3.97665e-19 0)
(-1.65436e-18 2.0391e-18 0)
(0 -2.60083e-19 0)
(0 -8.53286e-20 0)
(0 3.0885e-19 0)
(0 -3.17771e-19 0)
(-1.65436e-18 1.44289e-18 0)
(1.65436e-18 -1.65876e-18 0)
(0 1.6759e-19 0)
(0 7.92454e-19 0)
(1.65436e-18 -1.49485e-18 0)
(-1.65436e-18 8.84182e-19 0)
(0 -4.63048e-20 0)
(1.65436e-18 -1.05795e-18 0)
(0 9.12266e-19 0)
(0 -1.09779e-20 0)
(-1.65436e-18 1.3863e-18 0)
(1.65436e-18 -1.18262e-18 0)
(-0.02 1.0883e-16 0)
(1.60473e-16 -1.62342e-16 0)
(-4.63221e-17 4.67532e-17 0)
(8.27181e-18 -8.16825e-18 0)
(-1.65436e-18 2.26958e-18 0)
(0 1.97224e-19 0)
(-1.65436e-18 1.6257e-18 0)
(-3.30872e-18 2.6779e-18 0)
(-1.65436e-18 1.21683e-18 0)
(0 9.64616e-19 0)
(0 9.30895e-19 0)
(-1.65436e-18 5.03484e-19 0)
(0 3.93332e-19 0)
(1.65436e-18 -8.70925e-19 0)
(-1.65436e-18 3.75925e-19 0)
(0 1.10112e-18 0)
(0 -1.07876e-18 0)
(1.65436e-18 -1.25935e-18 0)
(0 -2.79105e-19 0)
(0 9.47798e-19 0)
)
;
    }
    frontAndBack
    {
        type            empty;
    }
}


// ************************************************************************* //
