/*--------------------------------*- C++ -*----------------------------------*\
| =========                 |                                                 |
| \\      /  F ield         | OpenFOAM: The Open Source CFD Toolbox           |
|  \\    /   O peration     | Version:  2506                                  |
|   \\  /    A nd           | Website:  www.openfoam.com                      |
|    \\/     M anipulation  |                                                 |
\*---------------------------------------------------------------------------*/
FoamFile
{
    version     2.0;
    format      ascii;
    arch        "LSB;label=32;scalar=64";
    class       volScalarField;
    location    "10";
    object      initialResidual:k;
}
// * * * * * * * * * * * * * * * * * * * * * * * * * * * * * * * * * * * * * //

dimensions      [0 0 0 0 0 0 0];

internalField   nonuniform List<scalar> 
400
(
-1.43475e-13
-1.43512e-13
-1.43445e-13
-1.43526e-13
-1.43435e-13
-1.43528e-13
-1.43442e-13
-1.43516e-13
-1.43459e-13
-1.43494e-13
-1.43478e-13
-1.43482e-13
-1.43483e-13
-1.43482e-13
-1.43483e-13
-1.43483e-13
-1.43483e-13
-1.43482e-13
-1.43483e-13
-1.43483e-13
-1.46974e-13
-1.46855e-13
-1.47136e-13
-1.46781e-13
-1.47049e-13
-1.46883e-13
-1.47059e-13
-1.46855e-13
-1.46826e-13
-1.46941e-13
-1.46923e-13
-1.46906e-13
-1.46934e-13
-1.46906e-13
-1.46936e-13
-1.46913e-13
-1.46937e-13
-1.46944e-13
-1.46928e-13
-1.46916e-13
-1.524e-13
-1.52682e-13
-1.52215e-13
-1.52384e-13
-1.52413e-13
-1.52429e-13
-1.52339e-13
-1.52722e-13
-1.52023e-13
-1.53046e-13
-1.51743e-13
-1.52988e-13
-1.51721e-13
-1.52888e-13
-1.51886e-13
-1.52713e-13
-1.52111e-13
-1.52429e-13
-1.52336e-13
-1.52378e-13
-1.57948e-13
-1.59112e-13
-1.57283e-13
-1.58583e-13
-1.57581e-13
-1.58401e-13
-1.57785e-13
-1.58288e-13
-1.57877e-13
-1.58336e-13
-1.57818e-13
-1.58558e-13
-1.57558e-13
-1.58567e-13
-1.5757e-13
-1.58419e-13
-1.5781e-13
-1.58122e-13
-1.58038e-13
-1.58073e-13
-1.62878e-13
-1.62401e-13
-1.63109e-13
-1.62785e-13
-1.62952e-13
-1.62681e-13
-1.63081e-13
-1.62576e-13
-1.62895e-13
-1.62718e-13
-1.62748e-13
-1.62828e-13
-1.6278e-13
-1.62782e-13
-1.62809e-13
-1.62786e-13
-1.62816e-13
-1.62798e-13
-1.62797e-13
-1.62787e-13
-1.66209e-13
-1.65843e-13
-1.66355e-13
-1.66216e-13
-1.66237e-13
-1.66082e-13
-1.66181e-13
-1.66091e-13
-1.66174e-13
-1.66112e-13
-1.66164e-13
-1.66127e-13
-1.66158e-13
-1.66129e-13
-1.66154e-13
-1.66128e-13
-1.66153e-13
-1.66147e-13
-1.66144e-13
-1.66134e-13
-1.68457e-13
-1.67923e-13
-1.68566e-13
-1.6822e-13
-1.68377e-13
-1.68224e-13
-1.6833e-13
-1.68343e-13
-1.68298e-13
-1.68291e-13
-1.68269e-13
-1.68263e-13
-1.68301e-13
-1.68289e-13
-1.68314e-13
-1.68347e-13
-1.68224e-13
-1.68317e-13
-1.68286e-13
-1.68283e-13
-1.69735e-13
-1.69256e-13
-1.69872e-13
-1.69647e-13
-1.69734e-13
-1.69514e-13
-1.69618e-13
-1.69594e-13
-1.69594e-13
-1.69595e-13
-1.69614e-13
-1.69583e-13
-1.69641e-13
-1.69607e-13
-1.69617e-13
-1.6962e-13
-1.69606e-13
-1.69601e-13
-1.69602e-13
-1.69598e-13
-1.70544e-13
-1.7012e-13
-1.70855e-13
-1.70272e-13
-1.70804e-13
-1.70088e-13
-1.70957e-13
-1.69954e-13
-1.70774e-13
-1.70104e-13
-1.70288e-13
-1.70454e-13
-1.70424e-13
-1.70431e-13
-1.70448e-13
-1.70412e-13
-1.70445e-13
-1.70449e-13
-1.70431e-13
-1.70417e-13
-1.7107e-13
-1.70594e-13
-1.71275e-13
-1.71053e-13
-1.71066e-13
-1.70895e-13
-1.71064e-13
-1.70925e-13
-1.7099e-13
-1.70976e-13
-1.70985e-13
-1.70971e-13
-1.71009e-13
-1.71006e-13
-1.70992e-13
-1.70982e-13
-1.71e-13
-1.70982e-13
-1.70983e-13
-1.70979e-13
-1.71485e-13
-1.71274e-13
-1.71678e-13
-1.71394e-13
-1.71504e-13
-1.71391e-13
-1.71471e-13
-1.71398e-13
-1.71445e-13
-1.71416e-13
-1.71453e-13
-1.7142e-13
-1.71453e-13
-1.71423e-13
-1.71449e-13
-1.71422e-13
-1.71448e-13
-1.71441e-13
-1.71438e-13
-1.71427e-13
-1.71914e-13
-1.71663e-13
-1.72105e-13
-1.71786e-13
-1.71894e-13
-1.71815e-13
-1.7189e-13
-1.7182e-13
-1.71866e-13
-1.71835e-13
-1.71873e-13
-1.71836e-13
-1.7187e-13
-1.71837e-13
-1.71865e-13
-1.71837e-13
-1.71863e-13
-1.71856e-13
-1.71854e-13
-1.71842e-13
-1.72329e-13
-1.71996e-13
-1.72598e-13
-1.7223e-13
-1.72336e-13
-1.72239e-13
-1.7232e-13
-1.72255e-13
-1.72292e-13
-1.72264e-13
-1.72299e-13
-1.72264e-13
-1.72296e-13
-1.72268e-13
-1.72297e-13
-1.72323e-13
-1.72214e-13
-1.72308e-13
-1.72273e-13
-1.7227e-13
-1.72786e-13
-1.73093e-13
-1.72515e-13
-1.72725e-13
-1.72762e-13
-1.72705e-13
-1.72762e-13
-1.72997e-13
-1.725e-13
-1.73241e-13
-1.72259e-13
-1.73335e-13
-1.72076e-13
-1.7331e-13
-1.72163e-13
-1.7311e-13
-1.72449e-13
-1.72781e-13
-1.72697e-13
-1.72734e-13
-1.73368e-13
-1.72983e-13
-1.73693e-13
-1.73053e-13
-1.73619e-13
-1.72927e-13
-1.73715e-13
-1.72838e-13
-1.73488e-13
-1.73059e-13
-1.73128e-13
-1.73277e-13
-1.73262e-13
-1.73242e-13
-1.73274e-13
-1.73237e-13
-1.73272e-13
-1.73277e-13
-1.73258e-13
-1.73244e-13
-1.73883e-13
-1.73541e-13
-1.7406e-13
-1.738e-13
-1.7386e-13
-1.73768e-13
-1.73859e-13
-1.73748e-13
-1.73819e-13
-1.73784e-13
-1.73823e-13
-1.73789e-13
-1.73825e-13
-1.73789e-13
-1.7382e-13
-1.73788e-13
-1.73816e-13
-1.73806e-13
-1.73807e-13
-1.73795e-13
-1.74427e-13
-1.7399e-13
-1.74741e-13
-1.74333e-13
-1.74432e-13
-1.74326e-13
-1.74407e-13
-1.74341e-13
-1.74372e-13
-1.74355e-13
-1.74389e-13
-1.74359e-13
-1.74399e-13
-1.74398e-13
-1.74305e-13
-1.7444e-13
-1.743e-13
-1.74397e-13
-1.74363e-13
-1.7436e-13
-1.74934e-13
-1.7509e-13
-1.74754e-13
-1.74802e-13
-1.75004e-13
-1.74874e-13
-1.74886e-13
-1.75207e-13
-1.74593e-13
-1.75658e-13
-1.74155e-13
-1.75586e-13
-1.74176e-13
-1.75458e-13
-1.74348e-13
-1.75236e-13
-1.74604e-13
-1.74928e-13
-1.74848e-13
-1.74885e-13
-1.75377e-13
-1.75345e-13
-1.75285e-13
-1.7525e-13
-1.75406e-13
-1.75251e-13
-1.75316e-13
-1.75311e-13
-1.75173e-13
-1.7576e-13
-1.74873e-13
-1.76024e-13
-1.74701e-13
-1.75795e-13
-1.74855e-13
-1.75531e-13
-1.75095e-13
-1.75301e-13
-1.75273e-13
-1.75299e-13
-1.75559e-13
-1.75499e-13
-1.75547e-13
-1.75514e-13
-1.75535e-13
-1.75523e-13
-1.75526e-13
-1.75536e-13
-1.75521e-13
-1.75537e-13
-1.75521e-13
-1.75533e-13
-1.75525e-13
-1.75532e-13
-1.75525e-13
-1.7553e-13
-1.75527e-13
-1.75529e-13
-1.75528e-13
-1.75528e-13
)
;

boundaryField
{
    movingWall
    {
        type            zeroGradient;
    }
    fixedWalls
    {
        type            zeroGradient;
    }
    frontAndBack
    {
        type            empty;
    }
}


// ************************************************************************* //
