/*--------------------------------*- C++ -*----------------------------------*\
| =========                 |                                                 |
| \\      /  F ield         | OpenFOAM: The Open Source CFD Toolbox           |
|  \\    /   O peration     | Version:  2506                                  |
|   \\  /    A nd           | Website:  www.openfoam.com                      |
|    \\/     M anipulation  |                                                 |
\*---------------------------------------------------------------------------*/
FoamFile
{
    version     2.0;
    format      ascii;
    arch        "LSB;label=32;scalar=64";
    class       volScalarField;
    location    "10";
    object      initialResidual:p;
}
// * * * * * * * * * * * * * * * * * * * * * * * * * * * * * * * * * * * * * //

dimensions      [0 0 0 0 0 0 0];

internalField   nonuniform List<scalar> 
400
(
1.0842e-19
-3.7021e-20
-8.36192e-21
-4.91016e-21
-1.06084e-20
-4.31135e-21
3.45676e-21
4.52513e-21
7.29601e-21
8.38793e-21
-1.14197e-20
-1.41626e-20
8.98326e-21
-8.11226e-21
-2.31175e-20
3.25531e-22
1.87684e-20
2.80768e-20
-2.60776e-20
-1.9599e-26
2.03287e-20
-2.1641e-20
7.90098e-21
1.35545e-20
9.61685e-21
6.70451e-21
1.79624e-21
2.2222e-22
-7.25409e-21
-1.32683e-20
-1.74922e-20
-8.65621e-21
-3.11423e-21
3.00399e-21
-1.74382e-20
6.61924e-21
1.24295e-20
-1.11699e-20
-2.27115e-21
-3.76113e-26
1.35527e-20
8.06541e-21
4.69761e-22
1.45925e-20
5.08268e-21
-6.11056e-21
1.80141e-20
8.43838e-22
-4.1121e-21
-1.21855e-20
-1.55921e-20
-2.3003e-21
-7.58044e-21
-1.87995e-20
1.76437e-20
-2.5445e-21
-3.93896e-21
-2.53211e-21
1.49405e-20
6.77625e-21
-6.77635e-21
1.01497e-20
-1.49489e-21
-1.11416e-20
-1.2691e-20
-9.1946e-21
2.82261e-21
6.90549e-21
4.31026e-21
-9.85928e-21
-4.74707e-21
5.74905e-21
5.73853e-21
-1.32458e-20
4.73128e-21
-1.4172e-21
3.4789e-21
-3.0236e-21
7.11518e-23
-6.77629e-21
2.71053e-20
1.16244e-20
-1.42926e-20
-4.75421e-21
7.45457e-21
6.34831e-22
2.53333e-21
1.25373e-21
-1.51463e-20
6.41159e-21
5.77239e-21
2.02971e-21
-5.27902e-21
2.95386e-21
6.06743e-21
-9.55984e-21
-3.07146e-21
1.9216e-20
-4.12434e-21
-1.09552e-27
1.35524e-20
-2.16747e-20
3.30839e-21
-1.54771e-20
-3.76516e-21
-5.41629e-21
2.10771e-21
8.86611e-21
1.33376e-20
9.28486e-22
-1.30127e-20
8.48979e-21
8.24396e-21
4.14024e-22
-3.3058e-21
5.16811e-21
4.9198e-21
-1.77729e-20
1.86271e-21
1.35525e-20
1.60467e-25
-2.11378e-20
-4.58839e-21
7.51095e-21
-7.83881e-21
3.01055e-21
1.09269e-21
-1.99839e-20
2.86509e-20
-1.1994e-20
-7.35205e-21
1.25881e-20
7.18263e-21
-1.29802e-20
1.62599e-20
9.35592e-21
1.73232e-20
-5.02964e-21
-1.11737e-21
1.35525e-20
6.77633e-21
-2.14246e-20
-3.91291e-21
1.25606e-20
-1.86767e-21
-7.46482e-22
-2.84762e-21
1.49909e-21
9.17803e-22
2.00338e-20
-1.8564e-20
-1.84047e-20
3.62819e-21
-2.4864e-21
-1.532e-20
1.23386e-20
1.05973e-20
-5.29723e-21
2.05617e-21
6.77625e-21
-1.35525e-20
-1.29916e-20
1.36839e-20
6.27933e-21
5.05609e-21
8.04963e-21
2.60082e-22
4.64319e-21
-4.66517e-21
2.24425e-20
5.31766e-21
-2.01296e-20
3.61971e-21
3.89055e-21
-2.08761e-21
6.72152e-21
1.17834e-20
-1.07853e-20
-9.55419e-21
6.77628e-21
-2.03288e-20
2.13015e-20
1.28418e-20
-1.33456e-20
9.18823e-22
-3.03266e-22
6.56102e-21
-1.71973e-21
1.34341e-20
-9.7036e-21
3.78974e-21
1.84039e-20
-1.77123e-20
-1.57105e-20
4.55942e-21
2.25807e-21
1.02838e-20
-1.21194e-20
3.418e-20
-6.77627e-21
6.77645e-21
-5.76617e-22
7.51173e-22
-2.45714e-21
-2.12522e-21
-3.113e-21
6.95284e-22
1.7134e-20
-1.34345e-20
8.17457e-21
-6.89508e-21
-1.04339e-20
1.91722e-21
-4.90937e-21
-3.53616e-21
-1.20931e-20
2.72412e-21
-1.8574e-20
-9.77626e-21
6.77629e-21
-5.30108e-26
-9.35692e-21
1.34713e-20
-5.24317e-21
9.30466e-21
-3.08858e-21
-1.52177e-21
1.15326e-20
-8.95843e-21
-2.41158e-21
-1.17452e-21
-2.78422e-21
-1.0844e-20
-4.44302e-22
1.4674e-20
4.75935e-21
1.09747e-20
-1.06335e-20
1.98503e-21
8.56489e-27
2.43098e-25
7.27409e-21
1.0619e-20
3.79831e-21
1.35577e-21
-7.3414e-21
-7.84663e-21
-6.14588e-21
-3.75827e-21
-4.86459e-21
-2.1464e-20
6.73987e-21
-2.11577e-20
2.00622e-21
4.50425e-21
2.22605e-20
-1.59017e-22
-9.73384e-21
3.68788e-20
-2.7105e-20
-1.35525e-20
-1.20936e-21
-3.23994e-21
5.82756e-21
5.99642e-21
-1.82274e-20
5.31155e-21
6.58228e-22
-1.38011e-20
6.4152e-21
1.43184e-20
-7.92127e-21
-6.72562e-21
9.01978e-21
-8.72174e-21
-8.2551e-21
-2.38699e-20
1.4452e-20
-1.0254e-21
6.77628e-21
6.77642e-21
-1.0597e-20
-9.24157e-21
-1.23401e-20
-4.80613e-21
1.32682e-20
7.15536e-21
6.20934e-21
-1.32041e-21
1.07218e-20
-1.66984e-20
2.16427e-22
1.66489e-20
-8.89886e-21
-7.87871e-21
2.80931e-21
1.20812e-21
-6.34834e-21
1.42408e-20
-6.77623e-21
-6.77611e-21
-1.20263e-20
-3.48943e-21
-1.26039e-21
-5.9536e-21
-1.51166e-20
-4.11884e-22
2.42894e-20
2.58748e-20
5.24501e-22
3.76869e-21
2.08006e-21
-2.37154e-20
1.19964e-21
4.76932e-21
-1.20897e-20
-4.38041e-21
1.01401e-20
9.74227e-21
2.28489e-26
1.35526e-20
-8.4913e-21
-4.42256e-21
9.22078e-21
-1.68846e-20
1.30627e-20
-8.83619e-21
1.19516e-20
6.35512e-21
2.08171e-20
-1.16436e-20
1.80295e-22
-5.72306e-21
-2.92368e-21
-5.42009e-21
1.13583e-20
-3.32238e-21
-1.40658e-21
-5.50448e-21
2.94772e-26
-2.71049e-20
9.48895e-21
1.31795e-20
-7.0441e-21
2.50132e-21
-6.78202e-21
1.13447e-20
3.58581e-21
3.38698e-21
3.42393e-21
-1.13535e-20
-4.49329e-21
2.78665e-21
4.22112e-21
-6.37404e-21
2.65457e-22
-1.07533e-20
-1.15273e-20
2.19896e-20
2.77815e-26
1.48285e-25
2.22034e-21
-6.28053e-21
-5.89178e-21
1.43577e-20
-1.11847e-20
4.28939e-21
8.79745e-21
1.7225e-20
9.87267e-21
-4.7826e-21
-1.56176e-20
1.10683e-20
-6.37123e-22
-1.60065e-20
1.39059e-20
6.98847e-21
-2.91721e-20
-7.42417e-21
6.77629e-21
-6.77626e-21
6.77633e-21
6.77629e-21
-2.03288e-20
2.03288e-20
6.77629e-21
-2.03288e-20
-1.35525e-20
2.61949e-26
-6.77624e-21
6.77629e-21
-1.35525e-20
2.45904e-26
-6.77624e-21
-6.77624e-21
2.01996e-26
-6.77625e-21
1.35526e-20
2.52226e-26
6.77626e-21
)
;

boundaryField
{
    movingWall
    {
        type            zeroGradient;
    }
    fixedWalls
    {
        type            zeroGradient;
    }
    frontAndBack
    {
        type            empty;
    }
}


// ************************************************************************* //
