/*--------------------------------*- C++ -*----------------------------------*\
| =========                 |                                                 |
| \\      /  F ield         | OpenFOAM: The Open Source CFD Toolbox           |
|  \\    /   O peration     | Version:  2506                                  |
|   \\  /    A nd           | Website:  www.openfoam.com                      |
|    \\/     M anipulation  |                                                 |
\*---------------------------------------------------------------------------*/
FoamFile
{
    version     2.0;
    format      ascii;
    arch        "LSB;label=32;scalar=64";
    class       volScalarField;
    location    "10";
    object      initialResidual:epsilon;
}
// * * * * * * * * * * * * * * * * * * * * * * * * * * * * * * * * * * * * * //

dimensions      [0 0 0 0 0 0 0];

internalField   nonuniform List<scalar> 
400
(
0
0
0
0
0
0
0
0
0
0
0
0
0
0
0
0
0
0
0
0
0
-5.42936e-14
-5.44577e-14
-5.43717e-14
-5.4451e-14
-5.4427e-14
-5.45282e-14
-5.44969e-14
-5.45993e-14
-5.45766e-14
-5.46614e-14
-5.46643e-14
-5.47199e-14
-5.47538e-14
-5.4781e-14
-5.4842e-14
-5.48461e-14
-5.49236e-14
-1.09796e-13
0
0
-5.6667e-14
-5.68875e-14
-5.67766e-14
-5.68667e-14
-5.68337e-14
-5.69468e-14
-5.69102e-14
-5.70284e-14
-5.69929e-14
-5.70953e-14
-5.70895e-14
-5.71545e-14
-5.71888e-14
-5.72163e-14
-5.7286e-14
-5.72829e-14
-5.7374e-14
-1.14802e-13
0
0
-5.93631e-14
-5.96024e-14
-5.94832e-14
-5.95775e-14
-5.95435e-14
-5.96598e-14
-5.96252e-14
-5.97492e-14
-5.97101e-14
-5.98209e-14
-5.98124e-14
-5.98829e-14
-5.99181e-14
-5.99479e-14
-6.00212e-14
-6.00181e-14
-6.01145e-14
-1.20283e-13
0
0
-6.16674e-14
-6.19145e-14
-6.17919e-14
-6.18904e-14
-6.18556e-14
-6.19764e-14
-6.19413e-14
-6.20701e-14
-6.20302e-14
-6.21453e-14
-6.21373e-14
-6.22106e-14
-6.22479e-14
-6.22788e-14
-6.23558e-14
-6.23526e-14
-6.24535e-14
-1.24963e-13
0
0
-6.33547e-14
-6.36122e-14
-6.34852e-14
-6.35867e-14
-6.35509e-14
-6.36756e-14
-6.36395e-14
-6.37727e-14
-6.37315e-14
-6.38508e-14
-6.38421e-14
-6.39184e-14
-6.39566e-14
-6.3989e-14
-6.40683e-14
-6.40654e-14
-6.41693e-14
-1.28396e-13
0
0
-6.44754e-14
-6.47371e-14
-6.46081e-14
-6.47119e-14
-6.46754e-14
-6.4803e-14
-6.47662e-14
-6.49021e-14
-6.48603e-14
-6.49819e-14
-6.49735e-14
-6.50512e-14
-6.50904e-14
-6.51236e-14
-6.52046e-14
-6.52018e-14
-6.53079e-14
-1.30674e-13
0
0
-6.51814e-14
-6.54466e-14
-6.53161e-14
-6.54215e-14
-6.53843e-14
-6.55139e-14
-6.54762e-14
-6.56143e-14
-6.55719e-14
-6.56952e-14
-6.56866e-14
-6.57654e-14
-6.58054e-14
-6.58389e-14
-6.59211e-14
-6.59183e-14
-6.60259e-14
-1.32111e-13
0
0
-6.56304e-14
-6.58978e-14
-6.57664e-14
-6.58723e-14
-6.58355e-14
-6.59659e-14
-6.59282e-14
-6.6067e-14
-6.60248e-14
-6.61486e-14
-6.61404e-14
-6.62198e-14
-6.62601e-14
-6.6294e-14
-6.63768e-14
-6.63742e-14
-6.64825e-14
-1.33025e-13
0
0
-6.59406e-14
-6.62076e-14
-6.60761e-14
-6.61832e-14
-6.61455e-14
-6.62776e-14
-6.62388e-14
-6.6379e-14
-6.63363e-14
-6.6461e-14
-6.64528e-14
-6.65325e-14
-6.65732e-14
-6.66072e-14
-6.66906e-14
-6.66879e-14
-6.6797e-14
-1.33655e-13
0
0
-6.61828e-14
-6.64536e-14
-6.63208e-14
-6.6428e-14
-6.63904e-14
-6.65229e-14
-6.6484e-14
-6.66248e-14
-6.6582e-14
-6.67072e-14
-6.6699e-14
-6.67791e-14
-6.68199e-14
-6.68543e-14
-6.69378e-14
-6.69354e-14
-6.70447e-14
-1.34151e-13
0
0
-6.64047e-14
-6.66763e-14
-6.65431e-14
-6.66507e-14
-6.66131e-14
-6.67464e-14
-6.6707e-14
-6.68485e-14
-6.68057e-14
-6.69312e-14
-6.69231e-14
-6.70035e-14
-6.70444e-14
-6.7079e-14
-6.71628e-14
-6.71605e-14
-6.72702e-14
-1.34602e-13
0
0
-6.66302e-14
-6.6901e-14
-6.6768e-14
-6.68762e-14
-6.68384e-14
-6.69723e-14
-6.69328e-14
-6.70747e-14
-6.70319e-14
-6.71578e-14
-6.71498e-14
-6.72304e-14
-6.72716e-14
-6.73063e-14
-6.73905e-14
-6.73881e-14
-6.74983e-14
-1.35058e-13
0
0
-6.6871e-14
-6.71423e-14
-6.70087e-14
-6.71178e-14
-6.70795e-14
-6.72143e-14
-6.71744e-14
-6.73172e-14
-6.7274e-14
-6.74006e-14
-6.73924e-14
-6.74735e-14
-6.75147e-14
-6.75498e-14
-6.76342e-14
-6.7632e-14
-6.77425e-14
-1.35547e-13
0
0
-6.71327e-14
-6.74053e-14
-6.72715e-14
-6.73805e-14
-6.73428e-14
-6.74775e-14
-6.7438e-14
-6.75807e-14
-6.75382e-14
-6.76646e-14
-6.76571e-14
-6.77382e-14
-6.77799e-14
-6.78148e-14
-6.78998e-14
-6.78975e-14
-6.80086e-14
-1.36079e-13
0
0
-6.74133e-14
-6.76867e-14
-6.75524e-14
-6.76623e-14
-6.7624e-14
-6.77601e-14
-6.77197e-14
-6.78636e-14
-6.78206e-14
-6.79478e-14
-6.79401e-14
-6.80217e-14
-6.80635e-14
-6.80988e-14
-6.81841e-14
-6.81819e-14
-6.82935e-14
-1.36649e-13
0
0
-6.76984e-14
-6.7973e-14
-6.78383e-14
-6.79486e-14
-6.79102e-14
-6.80468e-14
-6.80064e-14
-6.81509e-14
-6.81077e-14
-6.82357e-14
-6.82278e-14
-6.83099e-14
-6.83519e-14
-6.83874e-14
-6.84731e-14
-6.84709e-14
-6.8583e-14
-1.37229e-13
0
0
-6.79679e-14
-6.82324e-14
-6.81014e-14
-6.82133e-14
-6.81745e-14
-6.83148e-14
-6.82703e-14
-6.84155e-14
-6.83752e-14
-6.84996e-14
-6.84955e-14
-6.85753e-14
-6.86189e-14
-6.86542e-14
-6.87399e-14
-6.87386e-14
-6.88501e-14
-1.37764e-13
0
0
-6.83043e-14
-6.8629e-14
-6.84644e-14
-6.85864e-14
-6.85299e-14
-6.86916e-14
-6.86211e-14
-6.87858e-14
-6.87295e-14
-6.88637e-14
-6.88524e-14
-6.89343e-14
-6.89789e-14
-6.90083e-14
-6.91035e-14
-6.90888e-14
-6.92156e-14
-1.38331e-13
0
0
0
0
0
0
0
0
0
0
0
0
0
0
0
0
0
0
0
0
0
)
;

boundaryField
{
    movingWall
    {
        type            zeroGradient;
    }
    fixedWalls
    {
        type            zeroGradient;
    }
    frontAndBack
    {
        type            empty;
    }
}


// ************************************************************************* //
