/*--------------------------------*- C++ -*----------------------------------*\
| =========                 |                                                 |
| \\      /  F ield         | OpenFOAM: The Open Source CFD Toolbox           |
|  \\    /   O peration     | Version:  2506                                  |
|   \\  /    A nd           | Website:  www.openfoam.com                      |
|    \\/     M anipulation  |                                                 |
\*---------------------------------------------------------------------------*/
FoamFile
{
    version     2.0;
    format      ascii;
    arch        "LSB;label=32;scalar=64";
    class       volScalarField;
    location    "10";
    object      initialResidual:Uy;
}
// * * * * * * * * * * * * * * * * * * * * * * * * * * * * * * * * * * * * * //

dimensions      [0 0 0 0 0 0 0];

internalField   nonuniform List<scalar> 
400
(
2.16454e-20
-3.84597e-21
-3.18349e-21
3.26524e-22
-8.02276e-22
2.69486e-21
6.19308e-21
5.41772e-21
7.97294e-22
2.10684e-21
4.495e-21
2.00384e-21
-4.49319e-21
-1.01172e-20
-3.55978e-21
1.33746e-21
3.11329e-22
1.15101e-21
1.48442e-21
1.89819e-21
1.7237e-20
1.24363e-20
-2.51949e-21
2.38136e-21
7.78684e-21
6.05878e-21
2.38849e-21
5.59972e-21
2.50158e-21
-3.31926e-21
2.00714e-21
2.8649e-21
-2.75935e-21
-9.74423e-21
-5.73986e-21
1.54555e-21
-2.93251e-22
-4.1604e-21
-2.68042e-21
4.81988e-22
4.78574e-20
-4.85783e-22
1.37837e-20
1.01005e-20
1.67304e-20
1.09698e-20
4.70533e-21
3.61846e-21
1.01001e-21
-8.53059e-21
-1.03316e-20
-6.08213e-21
-3.2286e-21
-4.2449e-21
-5.14959e-21
1.28847e-22
-3.33141e-21
-7.76621e-21
-1.41387e-21
4.39357e-22
2.7762e-20
4.6166e-21
1.61586e-20
1.59953e-20
1.54504e-20
1.04044e-20
8.68866e-21
3.79661e-21
-2.66659e-21
-2.12013e-21
-5.75725e-21
-9.55871e-21
-1.17746e-20
-1.12488e-20
-4.25599e-21
5.16896e-23
-4.9629e-21
-4.84101e-21
3.30286e-21
1.75044e-21
-2.30666e-20
3.53064e-20
1.5452e-20
1.37964e-20
4.4733e-21
1.17415e-21
2.78965e-21
2.99721e-21
-2.65254e-21
2.7133e-21
1.08286e-21
-8.46597e-21
-1.03575e-20
-7.09831e-21
4.88511e-22
-1.30411e-21
-4.07837e-21
-1.49509e-21
-4.16611e-21
-2.575e-21
3.22127e-20
1.73407e-20
1.71408e-20
1.03468e-20
4.56546e-22
-1.16028e-21
3.57234e-21
4.36551e-21
-5.33583e-22
-7.59868e-22
-3.74957e-22
1.93385e-22
6.90692e-22
-3.10801e-21
-1.80298e-21
-1.91531e-21
-2.31612e-21
-2.85321e-21
-9.31741e-21
-2.9952e-21
4.48313e-20
4.46338e-21
1.23314e-20
9.28521e-21
7.56381e-21
2.17139e-21
2.33437e-21
2.20141e-21
-7.16549e-22
-1.57612e-21
4.76078e-21
8.0756e-21
2.67422e-21
1.78846e-21
-2.16712e-21
-2.47373e-21
3.18452e-21
1.22396e-21
-4.61269e-21
-1.49836e-21
-1.69555e-21
7.32298e-21
3.66462e-21
8.60812e-21
6.75201e-21
6.54281e-21
2.70948e-21
-2.8024e-22
-4.48019e-22
-2.35562e-22
7.66562e-21
4.36809e-21
-8.43299e-22
2.41791e-21
3.66842e-21
5.85545e-21
7.31806e-21
4.23002e-21
5.60221e-22
-7.82468e-22
9.66118e-21
8.26219e-21
5.15889e-21
6.30254e-21
2.50316e-21
9.07859e-21
8.39203e-21
4.60161e-21
3.09907e-21
-1.51443e-21
-5.14433e-21
-4.97031e-22
4.41474e-21
1.50045e-21
4.80437e-21
1.09943e-20
5.4675e-21
-1.54095e-21
5.2481e-21
3.18093e-21
2.66285e-20
6.6713e-21
6.06353e-21
4.55912e-21
4.45748e-21
9.67419e-21
1.24491e-20
7.26245e-21
7.17924e-21
4.74038e-21
-2.27223e-21
1.03527e-21
2.08119e-21
5.25422e-21
5.41784e-21
2.16593e-21
2.90412e-21
7.72754e-21
1.04954e-20
4.4305e-21
-3.92398e-21
9.7816e-21
6.55604e-21
9.06923e-21
9.00275e-21
4.09238e-21
-1.1105e-21
2.87986e-22
7.85436e-21
8.90037e-21
1.01496e-20
5.42388e-21
1.46111e-21
3.37727e-21
4.82281e-21
-1.00961e-21
3.06663e-21
6.73576e-21
7.60486e-21
2.3705e-21
1.35464e-20
3.27524e-21
1.40233e-20
6.74058e-22
3.97953e-21
6.67335e-21
1.95081e-21
2.06676e-21
5.12907e-21
7.50076e-21
8.87825e-21
5.82786e-21
3.19975e-21
-1.9594e-21
1.97673e-22
4.50002e-21
2.73799e-21
-2.67402e-21
5.98679e-21
3.99796e-21
3.20374e-20
9.65506e-22
3.86081e-21
6.91947e-22
2.51498e-21
2.38362e-21
4.07025e-21
3.47104e-21
3.2346e-21
1.77271e-21
2.13942e-21
4.80128e-21
1.65295e-21
-1.7239e-21
-6.88671e-22
8.50716e-21
7.74142e-21
5.81953e-21
4.81528e-21
3.50813e-22
1.18919e-20
1.84961e-20
1.22196e-20
1.14311e-20
2.2072e-22
-9.26889e-21
-5.4147e-21
-1.46173e-21
2.91648e-21
2.46352e-21
4.75439e-22
-2.2232e-21
-2.62929e-21
-5.69997e-22
2.54036e-21
9.05245e-21
8.86519e-21
5.78965e-21
8.02492e-22
-1.86376e-21
9.58882e-21
8.96973e-21
9.65171e-21
9.81737e-21
6.19657e-21
2.40392e-21
-2.79173e-21
9.42344e-22
2.40266e-21
-5.76888e-22
-2.70613e-21
-5.29624e-21
-2.56159e-21
2.8284e-21
8.16569e-21
6.81628e-21
2.52914e-21
-1.59082e-21
8.70128e-23
7.56252e-22
-3.5429e-21
-6.61814e-21
-3.70819e-21
7.88574e-21
1.52733e-20
1.19489e-20
6.41053e-21
3.9881e-21
-5.46016e-21
-6.7877e-21
-1.96426e-21
1.78937e-21
5.62051e-21
4.08674e-21
2.2225e-21
2.25558e-21
1.14395e-21
2.0876e-21
3.75337e-21
-1.83879e-22
2.78799e-20
-1.88799e-20
5.72961e-21
1.22881e-21
3.34487e-21
5.03067e-21
8.43849e-21
7.6428e-21
3.79156e-22
7.25265e-21
7.14744e-21
1.88846e-21
1.6703e-21
2.79847e-21
-2.95933e-21
-4.80009e-21
1.94211e-21
8.35108e-21
5.02625e-21
-8.15408e-22
-1.03666e-20
1.20566e-20
-1.21259e-21
-2.39934e-21
2.80781e-23
6.85161e-21
3.66144e-21
4.71086e-21
8.06222e-21
1.11897e-20
1.45373e-21
-4.83586e-21
-8.10538e-22
1.06266e-20
3.35468e-21
-5.85788e-21
4.79299e-21
6.49093e-21
2.38057e-21
-6.24354e-22
-1.5227e-20
1.98455e-20
-2.15394e-21
-9.108e-22
-1.21652e-21
7.70193e-21
6.77135e-21
6.12381e-22
3.13858e-21
2.7483e-21
2.89904e-22
5.23492e-21
6.66696e-21
4.67422e-21
-2.18607e-21
-3.00601e-22
1.73981e-21
-1.30297e-21
1.05534e-21
1.10399e-21
3.70609e-20
-1.12314e-20
5.26814e-21
3.15926e-22
-3.97181e-21
-1.53383e-23
3.39282e-21
1.89503e-21
1.91813e-21
5.62889e-22
1.87279e-21
7.65493e-21
5.05955e-21
-2.05177e-21
-4.04893e-21
3.18293e-22
-1.65609e-21
-2.25073e-21
-1.5597e-22
1.04448e-21
)
;

boundaryField
{
    movingWall
    {
        type            zeroGradient;
    }
    fixedWalls
    {
        type            zeroGradient;
    }
    frontAndBack
    {
        type            empty;
    }
}


// ************************************************************************* //
