/*--------------------------------*- C++ -*----------------------------------*\
| =========                 |                                                 |
| \\      /  F ield         | OpenFOAM: The Open Source CFD Toolbox           |
|  \\    /   O peration     | Version:  2506                                  |
|   \\  /    A nd           | Website:  www.openfoam.com                      |
|    \\/     M anipulation  |                                                 |
\*---------------------------------------------------------------------------*/
FoamFile
{
    version     2.0;
    format      ascii;
    arch        "LSB;label=32;scalar=64";
    class       volScalarField;
    location    "10";
    object      k2;
}
// * * * * * * * * * * * * * * * * * * * * * * * * * * * * * * * * * * * * * //

dimensions      [0 4 -4 0 0 0 0];

internalField   nonuniform List<scalar> 
400
(
5.617e-12
5.617e-12
5.61699e-12
5.617e-12
5.61699e-12
5.61699e-12
5.61699e-12
5.61699e-12
5.61699e-12
5.61699e-12
5.61698e-12
5.61698e-12
5.61698e-12
5.61698e-12
5.61698e-12
5.61698e-12
5.61698e-12
5.61698e-12
5.61698e-12
5.61698e-12
5.7442e-12
5.74419e-12
5.74398e-12
5.74389e-12
5.74379e-12
5.74366e-12
5.7436e-12
5.74347e-12
5.74344e-12
5.74333e-12
5.74329e-12
5.74321e-12
5.74318e-12
5.74311e-12
5.7431e-12
5.74305e-12
5.74304e-12
5.74301e-12
5.74301e-12
5.743e-12
5.95654e-12
5.95654e-12
5.95631e-12
5.95622e-12
5.95606e-12
5.95599e-12
5.95585e-12
5.95578e-12
5.95568e-12
5.95562e-12
5.95553e-12
5.95549e-12
5.9554e-12
5.9554e-12
5.95532e-12
5.95532e-12
5.95527e-12
5.95527e-12
5.95525e-12
5.95525e-12
6.19754e-12
6.19754e-12
6.1973e-12
6.19722e-12
6.19705e-12
6.19697e-12
6.19682e-12
6.19675e-12
6.19663e-12
6.19657e-12
6.19648e-12
6.19643e-12
6.19636e-12
6.19633e-12
6.19626e-12
6.19625e-12
6.1962e-12
6.1962e-12
6.19618e-12
6.19618e-12
6.41858e-12
6.41857e-12
6.41833e-12
6.41822e-12
6.41807e-12
6.41793e-12
6.41785e-12
6.41771e-12
6.41765e-12
6.41752e-12
6.41748e-12
6.41738e-12
6.41734e-12
6.41727e-12
6.41724e-12
6.41719e-12
6.41717e-12
6.41715e-12
6.41714e-12
6.41714e-12
6.59403e-12
6.59402e-12
6.59377e-12
6.59366e-12
6.59348e-12
6.59338e-12
6.59325e-12
6.59314e-12
6.59306e-12
6.59294e-12
6.59289e-12
6.59278e-12
6.59275e-12
6.59266e-12
6.59264e-12
6.59259e-12
6.59257e-12
6.59254e-12
6.59254e-12
6.59253e-12
6.72002e-12
6.72e-12
6.71975e-12
6.71964e-12
6.71948e-12
6.71935e-12
6.71924e-12
6.71911e-12
6.71901e-12
6.71891e-12
6.71883e-12
6.71876e-12
6.71869e-12
6.71863e-12
6.71858e-12
6.71854e-12
6.71851e-12
6.7185e-12
6.71848e-12
6.71848e-12
6.80521e-12
6.8052e-12
6.80492e-12
6.80482e-12
6.80463e-12
6.80452e-12
6.80439e-12
6.80428e-12
6.80417e-12
6.80408e-12
6.80399e-12
6.80392e-12
6.80384e-12
6.80379e-12
6.80374e-12
6.8037e-12
6.80367e-12
6.80365e-12
6.80364e-12
6.80363e-12
6.86196e-12
6.86195e-12
6.86167e-12
6.86155e-12
6.8614e-12
6.86125e-12
6.86116e-12
6.861e-12
6.86093e-12
6.8608e-12
6.86075e-12
6.86065e-12
6.8606e-12
6.86052e-12
6.86048e-12
6.86044e-12
6.86041e-12
6.86039e-12
6.86037e-12
6.86037e-12
6.90133e-12
6.90133e-12
6.90105e-12
6.90094e-12
6.90075e-12
6.90064e-12
6.90051e-12
6.90038e-12
6.9003e-12
6.90018e-12
6.90011e-12
6.90001e-12
6.89996e-12
6.89988e-12
6.89984e-12
6.8998e-12
6.89977e-12
6.89975e-12
6.89974e-12
6.89973e-12
6.93139e-12
6.93139e-12
6.9311e-12
6.93099e-12
6.93081e-12
6.93069e-12
6.93056e-12
6.93043e-12
6.93034e-12
6.93022e-12
6.93016e-12
6.93005e-12
6.93001e-12
6.92992e-12
6.92989e-12
6.92984e-12
6.92982e-12
6.92979e-12
6.92978e-12
6.92978e-12
6.95736e-12
6.95735e-12
6.95706e-12
6.95695e-12
6.95678e-12
6.95665e-12
6.95652e-12
6.95639e-12
6.9563e-12
6.95618e-12
6.95612e-12
6.95601e-12
6.95597e-12
6.95588e-12
6.95585e-12
6.95579e-12
6.95578e-12
6.95575e-12
6.95574e-12
6.95573e-12
6.98237e-12
6.98238e-12
6.98208e-12
6.98197e-12
6.98179e-12
6.98167e-12
6.98153e-12
6.98142e-12
6.9813e-12
6.98121e-12
6.98111e-12
6.98104e-12
6.98096e-12
6.9809e-12
6.98085e-12
6.98081e-12
6.98078e-12
6.98076e-12
6.98075e-12
6.98074e-12
7.00816e-12
7.00816e-12
7.00787e-12
7.00776e-12
7.00756e-12
7.00747e-12
7.00729e-12
7.00721e-12
7.00707e-12
7.00699e-12
7.00688e-12
7.00682e-12
7.00672e-12
7.00671e-12
7.00661e-12
7.00661e-12
7.00655e-12
7.00655e-12
7.00652e-12
7.00652e-12
7.03537e-12
7.03535e-12
7.03505e-12
7.03494e-12
7.03478e-12
7.03462e-12
7.03453e-12
7.03437e-12
7.0343e-12
7.03416e-12
7.0341e-12
7.034e-12
7.03395e-12
7.03387e-12
7.03383e-12
7.03378e-12
7.03375e-12
7.03373e-12
7.03372e-12
7.03371e-12
7.06362e-12
7.06361e-12
7.06333e-12
7.06321e-12
7.06303e-12
7.0629e-12
7.06276e-12
7.06263e-12
7.06255e-12
7.06241e-12
7.06236e-12
7.06224e-12
7.0622e-12
7.06211e-12
7.06208e-12
7.06202e-12
7.062e-12
7.06197e-12
7.06197e-12
7.06196e-12
7.09152e-12
7.09152e-12
7.09122e-12
7.09111e-12
7.09092e-12
7.09081e-12
7.09065e-12
7.09055e-12
7.09042e-12
7.09033e-12
7.09023e-12
7.09016e-12
7.09007e-12
7.09002e-12
7.08996e-12
7.08993e-12
7.08989e-12
7.08987e-12
7.08986e-12
7.08985e-12
7.11664e-12
7.11663e-12
7.11634e-12
7.11624e-12
7.11603e-12
7.11592e-12
7.11576e-12
7.11566e-12
7.11552e-12
7.11545e-12
7.11532e-12
7.11528e-12
7.11516e-12
7.11515e-12
7.11505e-12
7.11505e-12
7.11499e-12
7.11498e-12
7.11496e-12
7.11496e-12
7.13585e-12
7.13585e-12
7.13557e-12
7.13547e-12
7.13526e-12
7.13516e-12
7.13501e-12
7.13491e-12
7.13478e-12
7.13471e-12
7.13459e-12
7.13454e-12
7.13443e-12
7.1344e-12
7.13431e-12
7.1343e-12
7.13425e-12
7.13424e-12
7.13422e-12
7.13422e-12
7.14476e-12
7.14475e-12
7.14475e-12
7.14475e-12
7.14475e-12
7.14474e-12
7.14474e-12
7.14474e-12
7.14474e-12
7.14474e-12
7.14474e-12
7.14474e-12
7.14473e-12
7.14473e-12
7.14473e-12
7.14473e-12
7.14473e-12
7.14473e-12
7.14473e-12
7.14473e-12
)
;

boundaryField
{
    movingWall
    {
        type            calculated;
        value           nonuniform List<scalar> 
20
(
7.14476e-12
7.14475e-12
7.14475e-12
7.14475e-12
7.14475e-12
7.14474e-12
7.14474e-12
7.14474e-12
7.14474e-12
7.14474e-12
7.14474e-12
7.14474e-12
7.14473e-12
7.14473e-12
7.14473e-12
7.14473e-12
7.14473e-12
7.14473e-12
7.14473e-12
7.14473e-12
)
;
    }
    fixedWalls
    {
        type            calculated;
        value           nonuniform List<scalar> 
60
(
5.617e-12
5.7442e-12
5.95654e-12
6.19754e-12
6.41858e-12
6.59403e-12
6.72002e-12
6.80521e-12
6.86196e-12
6.90133e-12
6.93139e-12
6.95736e-12
6.98237e-12
7.00816e-12
7.03537e-12
7.06362e-12
7.09152e-12
7.11664e-12
7.13585e-12
7.14476e-12
5.61698e-12
5.743e-12
5.95525e-12
6.19618e-12
6.41714e-12
6.59253e-12
6.71848e-12
6.80363e-12
6.86037e-12
6.89973e-12
6.92978e-12
6.95573e-12
6.98074e-12
7.00652e-12
7.03371e-12
7.06196e-12
7.08985e-12
7.11496e-12
7.13422e-12
7.14473e-12
5.617e-12
5.617e-12
5.61699e-12
5.617e-12
5.61699e-12
5.61699e-12
5.61699e-12
5.61699e-12
5.61699e-12
5.61699e-12
5.61698e-12
5.61698e-12
5.61698e-12
5.61698e-12
5.61698e-12
5.61698e-12
5.61698e-12
5.61698e-12
5.61698e-12
5.61698e-12
)
;
    }
    frontAndBack
    {
        type            empty;
    }
}


// ************************************************************************* //
