/*--------------------------------*- C++ -*----------------------------------*\
| =========                 |                                                 |
| \\      /  F ield         | OpenFOAM: The Open Source CFD Toolbox           |
|  \\    /   O peration     | Version:  2506                                  |
|   \\  /    A nd           | Website:  www.openfoam.com                      |
|    \\/     M anipulation  |                                                 |
\*---------------------------------------------------------------------------*/
FoamFile
{
    version     2.0;
    format      ascii;
    arch        "LSB;label=32;scalar=64";
    class       volScalarField;
    location    "10";
    object      kDiff;
}
// * * * * * * * * * * * * * * * * * * * * * * * * * * * * * * * * * * * * * //

dimensions      [0 2 -2 0 0 0 0];

internalField   nonuniform List<scalar> 
400
(
-2.86624e-09
-2.86651e-09
-2.86603e-09
-2.86653e-09
-2.86595e-09
-2.86657e-09
-2.86598e-09
-2.8665e-09
-2.86607e-09
-2.86636e-09
-2.86618e-09
-2.86631e-09
-2.86622e-09
-2.8663e-09
-2.86624e-09
-2.86628e-09
-2.86627e-09
-2.86626e-09
-2.86626e-09
-2.86626e-09
-2.93529e-09
-2.93563e-09
-2.93647e-09
-2.93419e-09
-2.93558e-09
-2.93654e-09
-2.93352e-09
-2.93618e-09
-2.92992e-09
-2.94052e-09
-2.92915e-09
-2.94032e-09
-2.92978e-09
-2.93943e-09
-2.93118e-09
-2.9379e-09
-2.9332e-09
-2.93615e-09
-2.9346e-09
-2.93477e-09
-3.04525e-09
-3.04628e-09
-3.04112e-09
-3.0454e-09
-3.04416e-09
-3.04477e-09
-3.04405e-09
-3.04688e-09
-3.03994e-09
-3.04989e-09
-3.03748e-09
-3.05065e-09
-3.03879e-09
-3.04693e-09
-3.0399e-09
-3.04586e-09
-3.04126e-09
-3.04408e-09
-3.04331e-09
-3.04376e-09
-3.15955e-09
-3.16416e-09
-3.14811e-09
-3.16488e-09
-3.1507e-09
-3.16296e-09
-3.15306e-09
-3.16125e-09
-3.15462e-09
-3.1609e-09
-3.15434e-09
-3.1616e-09
-3.15243e-09
-3.16303e-09
-3.15354e-09
-3.15964e-09
-3.15498e-09
-3.15776e-09
-3.15703e-09
-3.15743e-09
-3.25112e-09
-3.24855e-09
-3.25751e-09
-3.25129e-09
-3.25298e-09
-3.25167e-09
-3.25349e-09
-3.24955e-09
-3.25179e-09
-3.25219e-09
-3.24847e-09
-3.25605e-09
-3.24709e-09
-3.25576e-09
-3.24838e-09
-3.25443e-09
-3.25011e-09
-3.25262e-09
-3.25137e-09
-3.25153e-09
-3.31818e-09
-3.31634e-09
-3.32247e-09
-3.32027e-09
-3.31697e-09
-3.32101e-09
-3.31475e-09
-3.32301e-09
-3.31317e-09
-3.32448e-09
-3.31227e-09
-3.32491e-09
-3.3125e-09
-3.32398e-09
-3.31392e-09
-3.32208e-09
-3.31622e-09
-3.31983e-09
-3.31813e-09
-3.31836e-09
-3.36232e-09
-3.35639e-09
-3.36843e-09
-3.35719e-09
-3.36521e-09
-3.35837e-09
-3.36465e-09
-3.36015e-09
-3.36286e-09
-3.35996e-09
-3.36219e-09
-3.3603e-09
-3.36256e-09
-3.36093e-09
-3.36235e-09
-3.36147e-09
-3.36059e-09
-3.36207e-09
-3.36121e-09
-3.36129e-09
-3.38825e-09
-3.38358e-09
-3.39467e-09
-3.38591e-09
-3.39025e-09
-3.38505e-09
-3.38903e-09
-3.38689e-09
-3.38776e-09
-3.38768e-09
-3.38767e-09
-3.38779e-09
-3.38817e-09
-3.38778e-09
-3.38788e-09
-3.38789e-09
-3.38758e-09
-3.38762e-09
-3.38759e-09
-3.38756e-09
-3.40475e-09
-3.40174e-09
-3.41164e-09
-3.40033e-09
-3.40941e-09
-3.39951e-09
-3.40991e-09
-3.3979e-09
-3.40796e-09
-3.39914e-09
-3.40266e-09
-3.40683e-09
-3.40139e-09
-3.40699e-09
-3.40198e-09
-3.40587e-09
-3.4033e-09
-3.40491e-09
-3.40386e-09
-3.40392e-09
-3.41486e-09
-3.41173e-09
-3.42144e-09
-3.41527e-09
-3.41487e-09
-3.41595e-09
-3.41402e-09
-3.41693e-09
-3.41237e-09
-3.41865e-09
-3.4116e-09
-3.41893e-09
-3.41243e-09
-3.41842e-09
-3.41293e-09
-3.41703e-09
-3.41439e-09
-3.41564e-09
-3.41507e-09
-3.41513e-09
-3.42444e-09
-3.4237e-09
-3.42756e-09
-3.42369e-09
-3.42394e-09
-3.42574e-09
-3.42171e-09
-3.42744e-09
-3.42008e-09
-3.4289e-09
-3.41943e-09
-3.42914e-09
-3.41971e-09
-3.42839e-09
-3.42083e-09
-3.42691e-09
-3.4226e-09
-3.42522e-09
-3.42394e-09
-3.42408e-09
-3.43273e-09
-3.43166e-09
-3.43581e-09
-3.43172e-09
-3.43168e-09
-3.43488e-09
-3.42925e-09
-3.43681e-09
-3.42738e-09
-3.43842e-09
-3.42658e-09
-3.43863e-09
-3.42687e-09
-3.43772e-09
-3.42822e-09
-3.43592e-09
-3.43038e-09
-3.4338e-09
-3.43217e-09
-3.43238e-09
-3.44111e-09
-3.43833e-09
-3.44762e-09
-3.43741e-09
-3.44407e-09
-3.43879e-09
-3.44331e-09
-3.43923e-09
-3.44266e-09
-3.43983e-09
-3.44236e-09
-3.44014e-09
-3.44204e-09
-3.44055e-09
-3.44182e-09
-3.44106e-09
-3.44028e-09
-3.44174e-09
-3.44084e-09
-3.44092e-09
-3.45199e-09
-3.45312e-09
-3.44672e-09
-3.45145e-09
-3.45055e-09
-3.4501e-09
-3.45213e-09
-3.45242e-09
-3.44781e-09
-3.45529e-09
-3.44505e-09
-3.45666e-09
-3.44541e-09
-3.45368e-09
-3.44572e-09
-3.45259e-09
-3.44751e-09
-3.45049e-09
-3.44977e-09
-3.45018e-09
-3.46132e-09
-3.45873e-09
-3.46762e-09
-3.4562e-09
-3.46588e-09
-3.45593e-09
-3.46577e-09
-3.45494e-09
-3.46359e-09
-3.45739e-09
-3.45846e-09
-3.46358e-09
-3.45773e-09
-3.46323e-09
-3.45847e-09
-3.46226e-09
-3.45978e-09
-3.46136e-09
-3.46032e-09
-3.46037e-09
-3.4715e-09
-3.46994e-09
-3.47527e-09
-3.47204e-09
-3.46985e-09
-3.4748e-09
-3.46735e-09
-3.47636e-09
-3.46546e-09
-3.47834e-09
-3.46452e-09
-3.47866e-09
-3.46494e-09
-3.47752e-09
-3.46653e-09
-3.47541e-09
-3.46899e-09
-3.47297e-09
-3.4711e-09
-3.47137e-09
-3.48272e-09
-3.47843e-09
-3.49171e-09
-3.47771e-09
-3.48723e-09
-3.47896e-09
-3.4865e-09
-3.47932e-09
-3.4858e-09
-3.48024e-09
-3.48536e-09
-3.481e-09
-3.48473e-09
-3.48183e-09
-3.48255e-09
-3.48346e-09
-3.48187e-09
-3.48349e-09
-3.48255e-09
-3.48264e-09
-3.49441e-09
-3.49454e-09
-3.49099e-09
-3.49329e-09
-3.49552e-09
-3.49243e-09
-3.49514e-09
-3.49602e-09
-3.4903e-09
-3.4998e-09
-3.48591e-09
-3.50132e-09
-3.48786e-09
-3.4967e-09
-3.48886e-09
-3.49529e-09
-3.49046e-09
-3.49338e-09
-3.49271e-09
-3.49312e-09
-3.50283e-09
-3.50072e-09
-3.50222e-09
-3.49973e-09
-3.50482e-09
-3.49828e-09
-3.50387e-09
-3.49992e-09
-3.50195e-09
-3.50545e-09
-3.49713e-09
-3.50849e-09
-3.49544e-09
-3.50737e-09
-3.49752e-09
-3.50249e-09
-3.49887e-09
-3.50214e-09
-3.50102e-09
-3.50138e-09
-3.50612e-09
-3.50564e-09
-3.50623e-09
-3.50576e-09
-3.50611e-09
-3.50584e-09
-3.50601e-09
-3.506e-09
-3.50589e-09
-3.50607e-09
-3.5059e-09
-3.506e-09
-3.50593e-09
-3.50601e-09
-3.50593e-09
-3.50598e-09
-3.50595e-09
-3.50596e-09
-3.50596e-09
-3.50596e-09
)
;

boundaryField
{
    movingWall
    {
        type            calculated;
        value           nonuniform List<scalar> 
20
(
-3.50612e-09
-3.50564e-09
-3.50623e-09
-3.50576e-09
-3.50611e-09
-3.50584e-09
-3.50601e-09
-3.506e-09
-3.50589e-09
-3.50607e-09
-3.5059e-09
-3.506e-09
-3.50593e-09
-3.50601e-09
-3.50593e-09
-3.50598e-09
-3.50595e-09
-3.50596e-09
-3.50596e-09
-3.50596e-09
)
;
    }
    fixedWalls
    {
        type            calculated;
        value           nonuniform List<scalar> 
60
(
-2.86624e-09
-2.93529e-09
-3.04525e-09
-3.15955e-09
-3.25112e-09
-3.31818e-09
-3.36232e-09
-3.38825e-09
-3.40475e-09
-3.41486e-09
-3.42444e-09
-3.43273e-09
-3.44111e-09
-3.45199e-09
-3.46132e-09
-3.4715e-09
-3.48272e-09
-3.49441e-09
-3.50283e-09
-3.50612e-09
-2.86626e-09
-2.93477e-09
-3.04376e-09
-3.15743e-09
-3.25153e-09
-3.31836e-09
-3.36129e-09
-3.38756e-09
-3.40392e-09
-3.41513e-09
-3.42408e-09
-3.43238e-09
-3.44092e-09
-3.45018e-09
-3.46037e-09
-3.47137e-09
-3.48264e-09
-3.49312e-09
-3.50138e-09
-3.50596e-09
-2.86624e-09
-2.86651e-09
-2.86603e-09
-2.86653e-09
-2.86595e-09
-2.86657e-09
-2.86598e-09
-2.8665e-09
-2.86607e-09
-2.86636e-09
-2.86618e-09
-2.86631e-09
-2.86622e-09
-2.8663e-09
-2.86624e-09
-2.86628e-09
-2.86627e-09
-2.86626e-09
-2.86626e-09
-2.86626e-09
)
;
    }
    frontAndBack
    {
        type            empty;
    }
}


// ************************************************************************* //
