/*--------------------------------*- C++ -*----------------------------------*\
| =========                 |                                                 |
| \\      /  F ield         | OpenFOAM: The Open Source CFD Toolbox           |
|  \\    /   O peration     | Version:  2506                                  |
|   \\  /    A nd           | Website:  www.openfoam.com                      |
|    \\/     M anipulation  |                                                 |
\*---------------------------------------------------------------------------*/
FoamFile
{
    version     2.0;
    format      ascii;
    arch        "LSB;label=32;scalar=64";
    class       volScalarField;
    location    "10";
    object      kTotal;
}
// * * * * * * * * * * * * * * * * * * * * * * * * * * * * * * * * * * * * * //

dimensions      [0 2 -2 0 0 0 0];

internalField   nonuniform List<scalar> 
400
(
4.74004e-06
4.74004e-06
4.74004e-06
4.74004e-06
4.74004e-06
4.74004e-06
4.74004e-06
4.74004e-06
4.74004e-06
4.74004e-06
4.74004e-06
4.74004e-06
4.74004e-06
4.74004e-06
4.74004e-06
4.74004e-06
4.74004e-06
4.74004e-06
4.74004e-06
4.74004e-06
4.79341e-06
4.79341e-06
4.79332e-06
4.79329e-06
4.79324e-06
4.79319e-06
4.79316e-06
4.79311e-06
4.79309e-06
4.79305e-06
4.79303e-06
4.793e-06
4.79299e-06
4.79296e-06
4.79295e-06
4.79293e-06
4.79293e-06
4.79292e-06
4.79292e-06
4.79291e-06
4.8812e-06
4.8812e-06
4.88111e-06
4.88108e-06
4.88101e-06
4.88098e-06
4.88092e-06
4.8809e-06
4.88085e-06
4.88083e-06
4.88079e-06
4.88078e-06
4.88074e-06
4.88074e-06
4.88071e-06
4.88071e-06
4.88068e-06
4.88068e-06
4.88068e-06
4.88068e-06
4.97897e-06
4.97897e-06
4.97888e-06
4.97884e-06
4.97877e-06
4.97874e-06
4.97869e-06
4.97866e-06
4.97861e-06
4.97858e-06
4.97855e-06
4.97853e-06
4.9785e-06
4.97849e-06
4.97846e-06
4.97846e-06
4.97844e-06
4.97843e-06
4.97843e-06
4.97843e-06
5.06698e-06
5.06698e-06
5.06689e-06
5.06684e-06
5.06678e-06
5.06673e-06
5.0667e-06
5.06664e-06
5.06662e-06
5.06657e-06
5.06655e-06
5.06651e-06
5.0665e-06
5.06647e-06
5.06646e-06
5.06644e-06
5.06643e-06
5.06642e-06
5.06642e-06
5.06641e-06
5.13577e-06
5.13577e-06
5.13567e-06
5.13563e-06
5.13556e-06
5.13552e-06
5.13547e-06
5.13542e-06
5.13539e-06
5.13535e-06
5.13532e-06
5.13528e-06
5.13527e-06
5.13524e-06
5.13523e-06
5.13521e-06
5.1352e-06
5.13519e-06
5.13519e-06
5.13519e-06
5.1846e-06
5.18459e-06
5.1845e-06
5.18445e-06
5.18439e-06
5.18434e-06
5.1843e-06
5.18425e-06
5.18421e-06
5.18417e-06
5.18414e-06
5.18411e-06
5.18409e-06
5.18407e-06
5.18405e-06
5.18403e-06
5.18402e-06
5.18402e-06
5.18401e-06
5.18401e-06
5.21736e-06
5.21735e-06
5.21725e-06
5.21721e-06
5.21714e-06
5.2171e-06
5.21705e-06
5.217e-06
5.21696e-06
5.21693e-06
5.21689e-06
5.21687e-06
5.21684e-06
5.21682e-06
5.2168e-06
5.21678e-06
5.21677e-06
5.21676e-06
5.21676e-06
5.21676e-06
5.23907e-06
5.23907e-06
5.23896e-06
5.23891e-06
5.23886e-06
5.2388e-06
5.23876e-06
5.2387e-06
5.23868e-06
5.23863e-06
5.23861e-06
5.23857e-06
5.23855e-06
5.23852e-06
5.23851e-06
5.23849e-06
5.23848e-06
5.23847e-06
5.23846e-06
5.23846e-06
5.25408e-06
5.25408e-06
5.25397e-06
5.25393e-06
5.25386e-06
5.25382e-06
5.25376e-06
5.25372e-06
5.25368e-06
5.25364e-06
5.25361e-06
5.25358e-06
5.25356e-06
5.25353e-06
5.25351e-06
5.25349e-06
5.25348e-06
5.25348e-06
5.25347e-06
5.25347e-06
5.26551e-06
5.26551e-06
5.2654e-06
5.26536e-06
5.26529e-06
5.26524e-06
5.26519e-06
5.26514e-06
5.26511e-06
5.26506e-06
5.26504e-06
5.265e-06
5.26498e-06
5.26495e-06
5.26494e-06
5.26492e-06
5.26491e-06
5.2649e-06
5.2649e-06
5.26489e-06
5.27536e-06
5.27536e-06
5.27525e-06
5.27521e-06
5.27514e-06
5.27509e-06
5.27505e-06
5.275e-06
5.27496e-06
5.27491e-06
5.27489e-06
5.27485e-06
5.27483e-06
5.2748e-06
5.27479e-06
5.27477e-06
5.27476e-06
5.27475e-06
5.27475e-06
5.27475e-06
5.28484e-06
5.28484e-06
5.28473e-06
5.28469e-06
5.28462e-06
5.28457e-06
5.28452e-06
5.28448e-06
5.28443e-06
5.2844e-06
5.28436e-06
5.28433e-06
5.2843e-06
5.28428e-06
5.28426e-06
5.28425e-06
5.28423e-06
5.28423e-06
5.28422e-06
5.28422e-06
5.29459e-06
5.29459e-06
5.29448e-06
5.29444e-06
5.29436e-06
5.29432e-06
5.29426e-06
5.29423e-06
5.29417e-06
5.29415e-06
5.2941e-06
5.29408e-06
5.29404e-06
5.29404e-06
5.294e-06
5.294e-06
5.29398e-06
5.29398e-06
5.29397e-06
5.29397e-06
5.30485e-06
5.30485e-06
5.30473e-06
5.30469e-06
5.30463e-06
5.30457e-06
5.30454e-06
5.30448e-06
5.30445e-06
5.3044e-06
5.30438e-06
5.30434e-06
5.30432e-06
5.30429e-06
5.30427e-06
5.30426e-06
5.30425e-06
5.30424e-06
5.30423e-06
5.30423e-06
5.3155e-06
5.31549e-06
5.31538e-06
5.31534e-06
5.31527e-06
5.31522e-06
5.31517e-06
5.31512e-06
5.31509e-06
5.31504e-06
5.31502e-06
5.31498e-06
5.31496e-06
5.31493e-06
5.31492e-06
5.31489e-06
5.31489e-06
5.31488e-06
5.31487e-06
5.31487e-06
5.32598e-06
5.32598e-06
5.32587e-06
5.32583e-06
5.32576e-06
5.32572e-06
5.32566e-06
5.32562e-06
5.32557e-06
5.32554e-06
5.3255e-06
5.32547e-06
5.32544e-06
5.32542e-06
5.3254e-06
5.32539e-06
5.32537e-06
5.32536e-06
5.32536e-06
5.32536e-06
5.33541e-06
5.33541e-06
5.3353e-06
5.33526e-06
5.33518e-06
5.33514e-06
5.33508e-06
5.33504e-06
5.33499e-06
5.33496e-06
5.33491e-06
5.3349e-06
5.33485e-06
5.33485e-06
5.33481e-06
5.33481e-06
5.33479e-06
5.33479e-06
5.33478e-06
5.33478e-06
5.3426e-06
5.34261e-06
5.3425e-06
5.34246e-06
5.34238e-06
5.34235e-06
5.34229e-06
5.34225e-06
5.3422e-06
5.34218e-06
5.34213e-06
5.34211e-06
5.34207e-06
5.34206e-06
5.34203e-06
5.34202e-06
5.342e-06
5.342e-06
5.34199e-06
5.34199e-06
5.34594e-06
5.34594e-06
5.34593e-06
5.34593e-06
5.34593e-06
5.34593e-06
5.34593e-06
5.34593e-06
5.34593e-06
5.34593e-06
5.34593e-06
5.34593e-06
5.34593e-06
5.34593e-06
5.34593e-06
5.34593e-06
5.34593e-06
5.34593e-06
5.34593e-06
5.34593e-06
)
;

boundaryField
{
    movingWall
    {
        type            calculated;
        value           nonuniform List<scalar> 
20
(
5.34594e-06
5.34594e-06
5.34593e-06
5.34593e-06
5.34593e-06
5.34593e-06
5.34593e-06
5.34593e-06
5.34593e-06
5.34593e-06
5.34593e-06
5.34593e-06
5.34593e-06
5.34593e-06
5.34593e-06
5.34593e-06
5.34593e-06
5.34593e-06
5.34593e-06
5.34593e-06
)
;
    }
    fixedWalls
    {
        type            calculated;
        value           nonuniform List<scalar> 
60
(
4.74004e-06
4.79341e-06
4.8812e-06
4.97897e-06
5.06698e-06
5.13577e-06
5.1846e-06
5.21736e-06
5.23907e-06
5.25408e-06
5.26551e-06
5.27536e-06
5.28484e-06
5.29459e-06
5.30485e-06
5.3155e-06
5.32598e-06
5.33541e-06
5.3426e-06
5.34594e-06
4.74004e-06
4.79291e-06
4.88068e-06
4.97843e-06
5.06641e-06
5.13519e-06
5.18401e-06
5.21676e-06
5.23846e-06
5.25347e-06
5.26489e-06
5.27475e-06
5.28422e-06
5.29397e-06
5.30423e-06
5.31487e-06
5.32536e-06
5.33478e-06
5.34199e-06
5.34593e-06
4.74004e-06
4.74004e-06
4.74004e-06
4.74004e-06
4.74004e-06
4.74004e-06
4.74004e-06
4.74004e-06
4.74004e-06
4.74004e-06
4.74004e-06
4.74004e-06
4.74004e-06
4.74004e-06
4.74004e-06
4.74004e-06
4.74004e-06
4.74004e-06
4.74004e-06
4.74004e-06
)
;
    }
    frontAndBack
    {
        type            empty;
    }
}


// ************************************************************************* //
