/*--------------------------------*- C++ -*----------------------------------*\
| =========                 |                                                 |
| \\      /  F ield         | OpenFOAM: The Open Source CFD Toolbox           |
|  \\    /   O peration     | Version:  2506                                  |
|   \\  /    A nd           | Website:  www.openfoam.com                      |
|    \\/     M anipulation  |                                                 |
\*---------------------------------------------------------------------------*/
FoamFile
{
    version     2.0;
    format      ascii;
    arch        "LSB;label=32;scalar=64";
    class       volVectorField;
    location    "10";
    object      kU;
}
// * * * * * * * * * * * * * * * * * * * * * * * * * * * * * * * * * * * * * //

dimensions      [0 3 -3 0 0 0 0];

internalField   nonuniform List<vector> 
400
(
(-2.36859e-06 4.65573e-19 0)
(-2.36859e-06 -1.01897e-19 0)
(-2.36859e-06 2.3567e-20 0)
(-2.36859e-06 -5.29634e-21 0)
(-2.36859e-06 1.17654e-21 0)
(-2.36859e-06 -1.06116e-22 0)
(-2.36859e-06 5.06062e-22 0)
(-2.36859e-06 5.33282e-22 0)
(-2.36859e-06 3.06425e-22 0)
(-2.36859e-06 2.57483e-22 0)
(-2.36859e-06 2.95974e-22 0)
(-2.36858e-06 2.68261e-22 0)
(-2.36858e-06 1.47368e-22 0)
(-2.36858e-06 -1.86731e-22 0)
(-2.36858e-06 -5.91892e-23 0)
(-2.36858e-06 7.66282e-23 0)
(-2.36858e-06 -1.48977e-22 0)
(-2.36858e-06 -1.05141e-22 0)
(-2.36858e-06 5.16289e-23 0)
(-2.36858e-06 1.04729e-22 0)
(-2.39524e-06 -2.25266e-20 0)
(-2.39524e-06 4.47493e-21 0)
(-2.39519e-06 -9.80706e-22 0)
(-2.39518e-06 3.81409e-22 0)
(-2.39515e-06 2.36161e-22 0)
(-2.39513e-06 3.17161e-22 0)
(-2.39511e-06 5.54756e-22 0)
(-2.39509e-06 4.3789e-22 0)
(-2.39508e-06 1.5665e-22 0)
(-2.39505e-06 4.34623e-23 0)
(-2.39505e-06 2.00296e-22 0)
(-2.39503e-06 2.01785e-22 0)
(-2.39503e-06 -7.6188e-23 0)
(-2.39501e-06 -3.41135e-22 0)
(-2.39501e-06 9.18946e-24 0)
(-2.395e-06 3.80447e-22 0)
(-2.395e-06 -7.32327e-23 0)
(-2.39499e-06 -2.8504e-22 0)
(-2.39499e-06 -1.7154e-22 0)
(-2.39499e-06 -5.79815e-23 0)
(-2.43908e-06 -4.04019e-19 0)
(-2.43908e-06 8.93511e-20 0)
(-2.43903e-06 -2.09794e-20 0)
(-2.43901e-06 4.70903e-21 0)
(-2.43898e-06 -9.16635e-22 0)
(-2.43897e-06 3.55298e-22 0)
(-2.43894e-06 1.59085e-22 0)
(-2.43892e-06 2.04786e-22 0)
(-2.43891e-06 1.31417e-22 0)
(-2.43889e-06 -8.16566e-23 0)
(-2.43888e-06 -1.9358e-22 0)
(-2.43886e-06 -1.14503e-22 0)
(-2.43885e-06 -1.23969e-22 0)
(-2.43885e-06 -1.30893e-22 0)
(-2.43883e-06 -8.47552e-23 0)
(-2.43883e-06 1.71324e-22 0)
(-2.43882e-06 7.23371e-23 0)
(-2.43882e-06 -4.62982e-22 0)
(-2.43882e-06 -5.64687e-22 0)
(-2.43882e-06 -3.52256e-22 0)
(-2.48791e-06 3.9514e-19 0)
(-2.48791e-06 -8.76889e-20 0)
(-2.48786e-06 1.9732e-20 0)
(-2.48784e-06 -4.76903e-21 0)
(-2.48781e-06 1.09343e-21 0)
(-2.48779e-06 -1.19112e-22 0)
(-2.48777e-06 9.06277e-23 0)
(-2.48775e-06 2.26895e-22 0)
(-2.48773e-06 1.60666e-22 0)
(-2.48771e-06 1.07682e-22 0)
(-2.4877e-06 5.52282e-23 0)
(-2.48768e-06 6.85972e-23 0)
(-2.48767e-06 1.99341e-22 0)
(-2.48766e-06 5.20307e-23 0)
(-2.48765e-06 -1.65138e-22 0)
(-2.48765e-06 -1.21017e-22 0)
(-2.48764e-06 4.58155e-23 0)
(-2.48764e-06 -2.95016e-22 0)
(-2.48764e-06 -3.30444e-22 0)
(-2.48763e-06 -1.89759e-22 0)
(-2.53187e-06 -6.64713e-20 0)
(-2.53187e-06 1.12613e-20 0)
(-2.53181e-06 -3.11601e-21 0)
(-2.53179e-06 6.21017e-22 0)
(-2.53177e-06 4.83189e-24 0)
(-2.53174e-06 1.46704e-24 0)
(-2.53172e-06 -1.27028e-22 0)
(-2.5317e-06 -1.01786e-22 0)
(-2.53168e-06 -1.08944e-22 0)
(-2.53166e-06 -1.68878e-23 0)
(-2.53165e-06 1.79213e-22 0)
(-2.53163e-06 3.12255e-23 0)
(-2.53162e-06 4.9082e-23 0)
(-2.53161e-06 2.17138e-23 0)
(-2.5316e-06 1.15353e-22 0)
(-2.53159e-06 2.50886e-22 0)
(-2.53159e-06 2.47557e-22 0)
(-2.53158e-06 4.14691e-23 0)
(-2.53158e-06 -1.31913e-22 0)
(-2.53158e-06 5.13402e-25 0)
(-2.56623e-06 -3.39895e-19 0)
(-2.56623e-06 7.55303e-20 0)
(-2.56617e-06 -1.72546e-20 0)
(-2.56615e-06 4.25804e-21 0)
(-2.56612e-06 -9.03856e-22 0)
(-2.5661e-06 -1.41702e-23 0)
(-2.56608e-06 -2.4343e-22 0)
(-2.56605e-06 -1.43853e-22 0)
(-2.56604e-06 -2.05355e-22 0)
(-2.56601e-06 -1.67244e-22 0)
(-2.56601e-06 -1.87558e-22 0)
(-2.56598e-06 7.55629e-23 0)
(-2.56598e-06 3.93288e-22 0)
(-2.56596e-06 2.44836e-22 0)
(-2.56596e-06 1.42443e-22 0)
(-2.56594e-06 3.04293e-22 0)
(-2.56594e-06 3.18634e-22 0)
(-2.56594e-06 6.63991e-23 0)
(-2.56593e-06 -1.73603e-22 0)
(-2.56593e-06 -1.54562e-23 0)
(-2.59062e-06 5.08117e-19 0)
(-2.59062e-06 -1.09144e-19 0)
(-2.59056e-06 2.65009e-20 0)
(-2.59055e-06 -5.06832e-21 0)
(-2.59051e-06 1.81184e-21 0)
(-2.59049e-06 -7.93512e-23 0)
(-2.59047e-06 2.42066e-22 0)
(-2.59044e-06 1.01651e-22 0)
(-2.59042e-06 -1.51e-22 0)
(-2.59041e-06 -1.14844e-23 0)
(-2.59039e-06 -3.72713e-23 0)
(-2.59038e-06 6.62062e-23 0)
(-2.59036e-06 3.32937e-22 0)
(-2.59035e-06 3.37652e-22 0)
(-2.59034e-06 2.94868e-22 0)
(-2.59034e-06 9.27211e-23 0)
(-2.59033e-06 7.86427e-23 0)
(-2.59033e-06 1.25294e-22 0)
(-2.59032e-06 9.31136e-23 0)
(-2.59032e-06 2.50798e-26 0)
(-2.60699e-06 -2.20174e-19 0)
(-2.60699e-06 4.74398e-20 0)
(-2.60693e-06 -1.10832e-20 0)
(-2.60691e-06 2.79485e-21 0)
(-2.60687e-06 -1.65213e-22 0)
(-2.60686e-06 4.24534e-22 0)
(-2.60683e-06 1.90554e-22 0)
(-2.60681e-06 -1.25611e-22 0)
(-2.60679e-06 -2.61148e-22 0)
(-2.60677e-06 -1.46531e-22 0)
(-2.60675e-06 1.62819e-22 0)
(-2.60674e-06 -7.02513e-23 0)
(-2.60672e-06 -3.62409e-22 0)
(-2.60671e-06 -1.89951e-22 0)
(-2.6067e-06 6.42024e-23 0)
(-2.6067e-06 2.56896e-23 0)
(-2.60669e-06 2.44978e-22 0)
(-2.60669e-06 2.24908e-22 0)
(-2.60669e-06 1.4504e-22 0)
(-2.60668e-06 -7.78323e-24 0)
(-2.61783e-06 -2.09417e-19 0)
(-2.61783e-06 4.59549e-20 0)
(-2.61777e-06 -1.07144e-20 0)
(-2.61776e-06 2.46896e-21 0)
(-2.61772e-06 -4.75052e-22 0)
(-2.6177e-06 5.73188e-22 0)
(-2.61768e-06 4.40646e-22 0)
(-2.61765e-06 3.00691e-22 0)
(-2.61764e-06 1.72948e-22 0)
(-2.61761e-06 -9.22399e-23 0)
(-2.6176e-06 -1.73088e-22 0)
(-2.61758e-06 -2.17089e-22 0)
(-2.61757e-06 -5.74469e-22 0)
(-2.61756e-06 -4.8705e-22 0)
(-2.61755e-06 -4.18951e-22 0)
(-2.61754e-06 -9.70858e-24 0)
(-2.61754e-06 6.76323e-23 0)
(-2.61753e-06 8.31682e-23 0)
(-2.61753e-06 2.84145e-22 0)
(-2.61753e-06 1.4351e-22 0)
(-2.62533e-06 4.84565e-19 0)
(-2.62533e-06 -1.05552e-19 0)
(-2.62528e-06 2.49099e-20 0)
(-2.62526e-06 -5.6563e-21 0)
(-2.62522e-06 1.06792e-21 0)
(-2.6252e-06 -1.00061e-22 0)
(-2.62518e-06 5.62901e-22 0)
(-2.62515e-06 5.67271e-22 0)
(-2.62514e-06 4.76047e-22 0)
(-2.62511e-06 3.70996e-22 0)
(-2.6251e-06 9.0746e-23 0)
(-2.62508e-06 2.42643e-23 0)
(-2.62507e-06 -8.37382e-23 0)
(-2.62505e-06 -2.22599e-22 0)
(-2.62505e-06 -4.24717e-22 0)
(-2.62504e-06 -4.17416e-22 0)
(-2.62503e-06 -4.30558e-22 0)
(-2.62503e-06 8.77915e-23 0)
(-2.62503e-06 2.2856e-22 0)
(-2.62503e-06 1.5233e-22 0)
(-2.63104e-06 -5.19303e-19 0)
(-2.63104e-06 1.13391e-19 0)
(-2.63099e-06 -2.70345e-20 0)
(-2.63097e-06 5.68232e-21 0)
(-2.63093e-06 -1.24937e-21 0)
(-2.63091e-06 2.45243e-22 0)
(-2.63089e-06 -4.42539e-22 0)
(-2.63086e-06 -6.31833e-22 0)
(-2.63084e-06 -3.80191e-22 0)
(-2.63082e-06 -1.47674e-22 0)
(-2.63081e-06 -5.35895e-24 0)
(-2.63079e-06 3.62297e-23 0)
(-2.63078e-06 -3.03464e-23 0)
(-2.63076e-06 -2.44299e-22 0)
(-2.63076e-06 -1.95442e-22 0)
(-2.63075e-06 -3.64228e-22 0)
(-2.63074e-06 4.03769e-23 0)
(-2.63074e-06 2.37289e-22 0)
(-2.63074e-06 -4.78896e-23 0)
(-2.63074e-06 -6.8154e-23 0)
(-2.63596e-06 3.06557e-19 0)
(-2.63596e-06 -6.75196e-20 0)
(-2.63591e-06 1.55641e-20 0)
(-2.63589e-06 -3.72649e-21 0)
(-2.63586e-06 7.42005e-22 0)
(-2.63583e-06 -8.90717e-24 0)
(-2.63581e-06 -3.97454e-23 0)
(-2.63578e-06 -3.50937e-22 0)
(-2.63577e-06 -2.12512e-22 0)
(-2.63574e-06 -7.07997e-23 0)
(-2.63573e-06 1.28939e-22 0)
(-2.63571e-06 1.7936e-22 0)
(-2.6357e-06 -5.94875e-23 0)
(-2.63568e-06 -2.70325e-22 0)
(-2.63568e-06 -4.26476e-23 0)
(-2.63567e-06 1.56011e-22 0)
(-2.63567e-06 2.71605e-22 0)
(-2.63566e-06 1.42499e-23 0)
(-2.63566e-06 9.67961e-23 0)
(-2.63566e-06 2.41559e-23 0)
(-2.6407e-06 5.41422e-20 0)
(-2.6407e-06 -1.06841e-20 0)
(-2.64064e-06 2.75362e-21 0)
(-2.64062e-06 -7.75829e-22 0)
(-2.64059e-06 -2.53871e-22 0)
(-2.64057e-06 -3.40694e-22 0)
(-2.64054e-06 -3.52759e-22 0)
(-2.64052e-06 -2.44188e-22 0)
(-2.64049e-06 -2.11758e-22 0)
(-2.64048e-06 -2.57214e-22 0)
(-2.64046e-06 -2.57185e-22 0)
(-2.64045e-06 5.972e-23 0)
(-2.64043e-06 1.53077e-22 0)
(-2.64042e-06 -2.03316e-23 0)
(-2.64041e-06 -1.34197e-22 0)
(-2.6404e-06 -8.8891e-24 0)
(-2.6404e-06 -6.37492e-23 0)
(-2.64039e-06 -6.1413e-23 0)
(-2.64039e-06 1.74651e-23 0)
(-2.64039e-06 -1.2503e-23 0)
(-2.64557e-06 -3.76849e-19 0)
(-2.64557e-06 8.38267e-20 0)
(-2.64552e-06 -1.88041e-20 0)
(-2.64549e-06 4.84431e-21 0)
(-2.64546e-06 -9.29232e-22 0)
(-2.64544e-06 -2.31564e-22 0)
(-2.6454e-06 -6.29973e-22 0)
(-2.64539e-06 -3.0405e-22 0)
(-2.64536e-06 -6.51767e-24 0)
(-2.64535e-06 1.8409e-22 0)
(-2.64533e-06 -3.80744e-23 0)
(-2.64531e-06 9.09328e-24 0)
(-2.6453e-06 2.6719e-23 0)
(-2.64529e-06 -1.95022e-23 0)
(-2.64528e-06 3.63179e-23 0)
(-2.64527e-06 1.24313e-22 0)
(-2.64527e-06 7.33815e-23 0)
(-2.64526e-06 -6.38817e-23 0)
(-2.64526e-06 -1.69032e-22 0)
(-2.64526e-06 -1.03235e-22 0)
(-2.6507e-06 5.09091e-19 0)
(-2.6507e-06 -1.1183e-19 0)
(-2.65063e-06 2.64187e-20 0)
(-2.65062e-06 -5.70792e-21 0)
(-2.65058e-06 1.14449e-21 0)
(-2.65056e-06 -6.944e-22 0)
(-2.65054e-06 -1.6309e-22 0)
(-2.65051e-06 1.09435e-22 0)
(-2.65049e-06 3.78627e-22 0)
(-2.65047e-06 5.29218e-22 0)
(-2.65046e-06 3.41377e-22 0)
(-2.65044e-06 4.28716e-23 0)
(-2.65043e-06 -1.2625e-22 0)
(-2.65041e-06 -6.36923e-23 0)
(-2.65041e-06 9.69628e-23 0)
(-2.6504e-06 2.00166e-22 0)
(-2.65039e-06 1.37007e-22 0)
(-2.65039e-06 -1.23208e-22 0)
(-2.65039e-06 -1.69063e-22 0)
(-2.65038e-06 -3.49297e-23 0)
(-2.65601e-06 -3.03454e-19 0)
(-2.65601e-06 6.54956e-20 0)
(-2.65595e-06 -1.60895e-20 0)
(-2.65593e-06 3.01613e-21 0)
(-2.6559e-06 -8.1004e-22 0)
(-2.65587e-06 4.60455e-22 0)
(-2.65585e-06 3.34406e-22 0)
(-2.65582e-06 3.57843e-22 0)
(-2.65581e-06 1.0124e-22 0)
(-2.65578e-06 -2.83401e-22 0)
(-2.65578e-06 -2.85534e-22 0)
(-2.65575e-06 -1.39073e-22 0)
(-2.65575e-06 9.47399e-23 0)
(-2.65572e-06 3.9762e-23 0)
(-2.65573e-06 -1.29396e-22 0)
(-2.65571e-06 -1.21402e-22 0)
(-2.65571e-06 -2.20738e-22 0)
(-2.6557e-06 -3.15634e-22 0)
(-2.6557e-06 -3.00113e-22 0)
(-2.6557e-06 -1.41078e-22 0)
(-2.66125e-06 -7.95988e-20 0)
(-2.66125e-06 1.81195e-20 0)
(-2.66119e-06 -4.42606e-21 0)
(-2.66118e-06 1.02436e-21 0)
(-2.66113e-06 -3.88675e-22 0)
(-2.66112e-06 1.02198e-23 0)
(-2.66108e-06 7.52409e-23 0)
(-2.66107e-06 1.3799e-22 0)
(-2.66104e-06 -4.32889e-24 0)
(-2.66103e-06 -2.04126e-22 0)
(-2.66101e-06 -7.5872e-24 0)
(-2.66099e-06 4.20456e-24 0)
(-2.66098e-06 3.92735e-23 0)
(-2.66097e-06 3.15598e-23 0)
(-2.66096e-06 -2.63769e-22 0)
(-2.66095e-06 -5.18029e-22 0)
(-2.66094e-06 -5.4999e-22 0)
(-2.66094e-06 -2.38113e-22 0)
(-2.66094e-06 -1.24592e-22 0)
(-2.66094e-06 -1.64205e-22 0)
(-2.66596e-06 3.95629e-19 0)
(-2.66596e-06 -8.75024e-20 0)
(-2.6659e-06 2.07392e-20 0)
(-2.66588e-06 -4.79139e-21 0)
(-2.66584e-06 6.8422e-22 0)
(-2.66582e-06 -8.12365e-22 0)
(-2.66579e-06 -3.22677e-22 0)
(-2.66577e-06 -8.26089e-23 0)
(-2.66575e-06 1.38434e-22 0)
(-2.66573e-06 3.97521e-22 0)
(-2.66571e-06 2.21202e-22 0)
(-2.6657e-06 -4.61044e-22 0)
(-2.66568e-06 -6.14806e-22 0)
(-2.66568e-06 -7.50291e-23 0)
(-2.66566e-06 -2.04988e-23 0)
(-2.66566e-06 -3.23592e-22 0)
(-2.66565e-06 -2.31525e-22 0)
(-2.66565e-06 8.7954e-23 0)
(-2.66564e-06 8.28369e-23 0)
(-2.66564e-06 -6.70631e-23 0)
(-2.66955e-06 -1.89856e-19 0)
(-2.66955e-06 4.02931e-20 0)
(-2.6695e-06 -9.59684e-21 0)
(-2.66948e-06 1.70186e-21 0)
(-2.66944e-06 -4.35349e-22 0)
(-2.66942e-06 8.37351e-23 0)
(-2.66939e-06 -8.93433e-23 0)
(-2.66938e-06 -4.46304e-22 0)
(-2.66935e-06 -3.73844e-22 0)
(-2.66934e-06 5.56125e-23 0)
(-2.66932e-06 6.51761e-23 0)
(-2.6693e-06 -6.37823e-23 0)
(-2.66929e-06 -6.09868e-23 0)
(-2.66928e-06 -8.93148e-23 0)
(-2.66927e-06 -1.89058e-22 0)
(-2.66926e-06 -2.66435e-22 0)
(-2.66925e-06 -2.03548e-22 0)
(-2.66925e-06 -2.23567e-22 0)
(-2.66925e-06 1.06793e-22 0)
(-2.66925e-06 1.42479e-22 0)
(-2.67122e-06 -2.29591e-19 0)
(-2.67121e-06 5.14638e-20 0)
(-2.67121e-06 -1.22164e-20 0)
(-2.67121e-06 2.73418e-21 0)
(-2.67121e-06 -5.44297e-22 0)
(-2.67121e-06 1.16406e-22 0)
(-2.67121e-06 -2.34016e-22 0)
(-2.67121e-06 -5.92142e-22 0)
(-2.67121e-06 -5.57647e-22 0)
(-2.67121e-06 -3.85441e-22 0)
(-2.67121e-06 -1.33949e-22 0)
(-2.67121e-06 2.25732e-22 0)
(-2.67121e-06 2.87995e-22 0)
(-2.67121e-06 -5.26375e-23 0)
(-2.67121e-06 -3.08555e-22 0)
(-2.67121e-06 -3.84837e-22 0)
(-2.67121e-06 -3.25851e-22 0)
(-2.67121e-06 -2.51333e-22 0)
(-2.67121e-06 1.02698e-22 0)
(-2.67121e-06 1.65282e-22 0)
)
;

boundaryField
{
    movingWall
    {
        type            calculated;
        value           nonuniform List<vector> 
20
(
(-2.67122e-06 -0 -0)
(-2.67121e-06 -0 -0)
(-2.67121e-06 -0 -0)
(-2.67121e-06 -0 -0)
(-2.67121e-06 -0 -0)
(-2.67121e-06 -0 -0)
(-2.67121e-06 -0 -0)
(-2.67121e-06 -0 -0)
(-2.67121e-06 -0 -0)
(-2.67121e-06 -0 -0)
(-2.67121e-06 -0 -0)
(-2.67121e-06 -0 -0)
(-2.67121e-06 -0 -0)
(-2.67121e-06 -0 -0)
(-2.67121e-06 -0 -0)
(-2.67121e-06 -0 -0)
(-2.67121e-06 -0 -0)
(-2.67121e-06 -0 -0)
(-2.67121e-06 -0 -0)
(-2.67121e-06 -0 -0)
)
;
    }
    fixedWalls
    {
        type            calculated;
        value           nonuniform List<vector> 
60
(
(-2.36859e-06 -0 -0)
(-2.39524e-06 -0 -0)
(-2.43908e-06 -0 -0)
(-2.48791e-06 -0 -0)
(-2.53187e-06 -0 -0)
(-2.56623e-06 -0 -0)
(-2.59062e-06 -0 -0)
(-2.60699e-06 -0 -0)
(-2.61783e-06 -0 -0)
(-2.62533e-06 -0 -0)
(-2.63104e-06 -0 -0)
(-2.63596e-06 -0 -0)
(-2.6407e-06 -0 -0)
(-2.64557e-06 -0 -0)
(-2.6507e-06 -0 -0)
(-2.65601e-06 -0 -0)
(-2.66125e-06 -0 -0)
(-2.66596e-06 -0 -0)
(-2.66955e-06 -0 -0)
(-2.67122e-06 -0 -0)
(-2.36858e-06 -0 -0)
(-2.39499e-06 -0 -0)
(-2.43882e-06 -0 -0)
(-2.48763e-06 -0 -0)
(-2.53158e-06 -0 -0)
(-2.56593e-06 -0 -0)
(-2.59032e-06 -0 -0)
(-2.60668e-06 -0 -0)
(-2.61753e-06 -0 -0)
(-2.62503e-06 -0 -0)
(-2.63074e-06 -0 -0)
(-2.63566e-06 -0 -0)
(-2.64039e-06 -0 -0)
(-2.64526e-06 -0 -0)
(-2.65038e-06 -0 -0)
(-2.6557e-06 -0 -0)
(-2.66094e-06 -0 -0)
(-2.66564e-06 -0 -0)
(-2.66925e-06 -0 -0)
(-2.67121e-06 -0 -0)
(-2.36859e-06 -0 -0)
(-2.36859e-06 -0 -0)
(-2.36859e-06 -0 -0)
(-2.36859e-06 -0 -0)
(-2.36859e-06 -0 -0)
(-2.36859e-06 -0 -0)
(-2.36859e-06 -0 -0)
(-2.36859e-06 -0 -0)
(-2.36859e-06 -0 -0)
(-2.36859e-06 -0 -0)
(-2.36859e-06 -0 -0)
(-2.36858e-06 -0 -0)
(-2.36858e-06 -0 -0)
(-2.36858e-06 -0 -0)
(-2.36858e-06 -0 -0)
(-2.36858e-06 -0 -0)
(-2.36858e-06 -0 -0)
(-2.36858e-06 -0 -0)
(-2.36858e-06 -0 -0)
(-2.36858e-06 -0 -0)
)
;
    }
    frontAndBack
    {
        type            empty;
    }
}


// ************************************************************************* //
