/*--------------------------------*- C++ -*----------------------------------*\
| =========                 |                                                 |
| \\      /  F ield         | OpenFOAM: The Open Source CFD Toolbox           |
|  \\    /   O peration     | Version:  2506                                  |
|   \\  /    A nd           | Website:  www.openfoam.com                      |
|    \\/     M anipulation  |                                                 |
\*---------------------------------------------------------------------------*/
FoamFile
{
    version     2.0;
    format      ascii;
    arch        "LSB;label=32;scalar=64";
    class       volTensorField;
    location    "10";
    object      kU2;
}
// * * * * * * * * * * * * * * * * * * * * * * * * * * * * * * * * * * * * * //

dimensions      [0 4 -4 0 0 0 0];

internalField   nonuniform List<tensor> 
400
(
(2.36859e-06 -4.66673e-19 -0 -4.65573e-19 9.17298e-32 0 -0 0 0)
(2.36859e-06 1.01539e-19 -0 1.01897e-19 4.36821e-33 -0 -0 -0 0)
(2.36859e-06 -2.35768e-20 -0 -2.3567e-20 2.34585e-34 0 -0 0 0)
(2.36859e-06 5.51831e-21 -0 5.29634e-21 1.23394e-35 -0 -0 -0 0)
(2.36859e-06 -1.06242e-21 -0 -1.17654e-21 5.27734e-37 0 -0 0 0)
(2.36859e-06 3.29795e-22 -0 1.06116e-22 1.47753e-38 -0 -0 -0 0)
(2.36859e-06 -3.41474e-22 -0 -5.06062e-22 7.29577e-38 0 -0 0 0)
(2.36859e-06 -4.98945e-22 -0 -5.33282e-22 1.12336e-37 0 -0 0 0)
(2.36859e-06 -4.31785e-22 -0 -3.06425e-22 5.58601e-38 0 -0 0 0)
(2.36859e-06 -3.30523e-22 -0 -2.57483e-22 3.59304e-38 0 -0 0 0)
(2.36859e-06 -3.07912e-22 -0 -2.95974e-22 3.84762e-38 0 -0 0 0)
(2.36858e-06 -4.01e-22 -0 -2.68261e-22 4.54164e-38 0 -0 0 0)
(2.36858e-06 -3.39191e-22 -0 -1.47368e-22 2.11037e-38 0 -0 0 0)
(2.36858e-06 1.12615e-23 -0 1.86731e-22 8.87813e-40 -0 -0 -0 0)
(2.36858e-06 2.20485e-22 -0 5.91892e-23 5.50976e-39 -0 -0 -0 0)
(2.36858e-06 6.73607e-23 -0 -7.66282e-23 -2.17925e-39 0 -0 -0 0)
(2.36858e-06 -2.22365e-23 -0 1.48977e-22 -1.39861e-39 -0 -0 0 0)
(2.36858e-06 -9.75133e-24 -0 1.05141e-22 -4.32862e-40 -0 -0 0 0)
(2.36858e-06 1.32484e-22 -0 -5.16289e-23 -2.8878e-39 0 -0 -0 0)
(2.36858e-06 -1.12187e-23 -0 -1.04729e-22 4.96048e-40 0 -0 0 0)
(2.39524e-06 2.00682e-20 -0 2.25266e-20 1.88736e-34 -0 -0 -0 0)
(2.39524e-06 -4.72327e-21 -0 -4.47493e-21 8.8243e-36 0 -0 0 0)
(2.39519e-06 7.68588e-22 -0 9.80706e-22 3.14696e-37 -0 -0 -0 0)
(2.39518e-06 -1.43195e-22 -0 -3.81409e-22 2.28024e-38 0 -0 0 0)
(2.39515e-06 -5.00383e-23 -0 -2.36161e-22 4.93376e-39 0 -0 0 0)
(2.39513e-06 -2.5275e-22 -0 -3.17161e-22 3.34689e-38 0 -0 0 0)
(2.39511e-06 -4.18438e-22 -0 -5.54756e-22 9.69184e-38 0 -0 0 0)
(2.39509e-06 -4.39044e-22 -0 -4.3789e-22 8.02697e-38 0 -0 0 0)
(2.39508e-06 -3.94381e-22 -0 -1.5665e-22 2.57945e-38 0 -0 0 0)
(2.39505e-06 -2.43388e-22 -0 -4.34623e-23 4.41668e-39 0 -0 0 0)
(2.39505e-06 -1.60007e-22 -0 -2.00296e-22 1.33813e-38 0 -0 0 0)
(2.39503e-06 -2.06081e-22 -0 -2.01785e-22 1.73626e-38 0 -0 0 0)
(2.39503e-06 -9.81184e-23 -0 7.6188e-23 -3.12123e-39 -0 -0 0 0)
(2.39501e-06 2.09469e-22 -0 3.41135e-22 2.98359e-38 -0 -0 -0 0)
(2.39501e-06 2.57129e-22 -0 -9.18946e-24 -9.86584e-40 0 -0 -0 0)
(2.395e-06 -1.77081e-22 -0 -3.80447e-22 2.81295e-38 0 -0 0 0)
(2.395e-06 -2.07058e-22 -0 7.32327e-23 -6.33128e-39 -0 -0 0 0)
(2.39499e-06 3.89449e-23 -0 2.8504e-22 4.63503e-39 -0 -0 -0 0)
(2.39499e-06 4.12964e-22 -0 1.7154e-22 2.95783e-38 -0 -0 -0 0)
(2.39499e-06 1.877e-22 -0 5.79815e-23 4.54413e-39 -0 -0 -0 0)
(2.43908e-06 4.03792e-19 -0 4.04019e-19 6.68857e-32 -0 -0 -0 0)
(2.43908e-06 -8.99629e-20 -0 -8.93511e-20 3.29563e-33 0 -0 0 0)
(2.43903e-06 2.0718e-20 -0 2.09794e-20 1.78206e-34 -0 -0 -0 0)
(2.43901e-06 -4.929e-21 -0 -4.70903e-21 9.51648e-36 0 -0 0 0)
(2.43898e-06 9.69619e-22 -0 9.16635e-22 3.64409e-37 -0 -0 -0 0)
(2.43897e-06 -5.16307e-22 -0 -3.55298e-22 7.52132e-38 0 -0 0 0)
(2.43894e-06 -1.67576e-22 -0 -1.59085e-22 1.09305e-38 0 -0 0 0)
(2.43892e-06 -2.53751e-22 -0 -2.04786e-22 2.13064e-38 0 -0 0 0)
(2.43891e-06 -3.09938e-22 -0 -1.31417e-22 1.67006e-38 0 -0 0 0)
(2.43889e-06 -1.28017e-22 -0 8.16566e-23 -4.28615e-39 -0 -0 0 0)
(2.43888e-06 1.3704e-22 -0 1.9358e-22 1.08773e-38 -0 -0 -0 0)
(2.43886e-06 2.18086e-22 -0 1.14503e-22 1.0239e-38 -0 -0 -0 0)
(2.43885e-06 2.11354e-22 -0 1.23969e-22 1.07433e-38 -0 -0 -0 0)
(2.43885e-06 1.86086e-22 -0 1.30893e-22 9.98723e-39 -0 -0 -0 0)
(2.43883e-06 1.61842e-22 -0 8.47552e-23 5.62438e-39 -0 -0 -0 0)
(2.43883e-06 -9.51608e-23 -0 -1.71324e-22 6.68492e-39 0 -0 0 0)
(2.43882e-06 -1.26576e-22 -0 -7.23371e-23 3.75432e-39 0 -0 0 0)
(2.43882e-06 3.11718e-22 -0 4.62982e-22 5.91761e-38 -0 -0 -0 0)
(2.43882e-06 6.03607e-22 -0 5.64687e-22 1.3976e-37 -0 -0 -0 0)
(2.43882e-06 3.21847e-22 -0 3.52256e-22 4.64868e-38 -0 -0 -0 0)
(2.48791e-06 -3.95377e-19 -0 -3.9514e-19 6.27956e-32 0 -0 0 0)
(2.48791e-06 8.69508e-20 -0 8.76889e-20 3.06467e-33 -0 -0 -0 0)
(2.48786e-06 -1.99859e-20 -0 -1.9732e-20 1.58514e-34 0 -0 0 0)
(2.48784e-06 4.64079e-21 -0 4.76903e-21 8.89611e-36 -0 -0 -0 0)
(2.48781e-06 -1.03336e-21 -0 -1.09343e-21 4.54175e-37 0 -0 0 0)
(2.48779e-06 4.55805e-23 -0 1.19112e-22 2.18234e-39 -0 -0 -0 0)
(2.48777e-06 -2.84175e-22 -0 -9.06277e-23 1.03523e-38 0 -0 0 0)
(2.48775e-06 -3.14252e-22 -0 -2.26895e-22 2.86614e-38 0 -0 0 0)
(2.48773e-06 -2.89776e-22 -0 -1.60666e-22 1.87147e-38 0 -0 0 0)
(2.48771e-06 -3.26459e-23 -0 -1.07682e-22 1.41309e-39 0 -0 0 0)
(2.4877e-06 -1.22679e-23 -0 -5.52282e-23 2.72354e-40 0 -0 0 0)
(2.48768e-06 -9.41842e-23 -0 -6.85972e-23 2.59711e-39 0 -0 0 0)
(2.48767e-06 -1.32846e-22 -0 -1.99341e-22 1.06451e-38 0 -0 0 0)
(2.48766e-06 8.77072e-23 -0 -5.20307e-23 -1.83444e-39 0 -0 -0 0)
(2.48765e-06 2.34313e-22 -0 1.65138e-22 1.55544e-38 -0 -0 -0 0)
(2.48765e-06 2.05326e-22 -0 1.21017e-22 9.98853e-39 -0 -0 -0 0)
(2.48764e-06 5.94039e-23 -0 -4.58155e-23 -1.09406e-39 0 -0 -0 0)
(2.48764e-06 3.36448e-22 -0 2.95016e-22 3.99004e-38 -0 -0 -0 0)
(2.48764e-06 3.59111e-22 -0 3.30444e-22 4.77024e-38 -0 -0 -0 0)
(2.48763e-06 1.33653e-22 -0 1.89759e-22 1.01952e-38 -0 -0 -0 0)
(2.53187e-06 6.42981e-20 -0 6.64713e-20 1.68807e-33 -0 -0 -0 0)
(2.53187e-06 -1.1342e-20 -0 -1.12613e-20 5.04476e-35 0 -0 0 0)
(2.53181e-06 2.82645e-21 -0 3.11601e-21 3.47863e-36 -0 -0 -0 0)
(2.53179e-06 -7.6759e-22 -0 -6.21017e-22 1.8828e-37 0 -0 0 0)
(2.53177e-06 -2.94573e-22 -0 -4.83189e-24 5.62194e-40 0 -0 0 0)
(2.53174e-06 -2.61266e-22 -0 -1.46704e-24 1.51393e-40 0 -0 0 0)
(2.53172e-06 -2.09212e-23 -0 1.27028e-22 -1.04971e-39 -0 -0 0 0)
(2.5317e-06 1.10882e-22 -0 1.01786e-22 4.45798e-39 -0 -0 -0 0)
(2.53168e-06 1.27656e-22 -0 1.08944e-22 5.49331e-39 -0 -0 -0 0)
(2.53166e-06 1.36383e-22 -0 1.68878e-23 9.09758e-40 -0 -0 -0 0)
(2.53165e-06 -9.57978e-23 -0 -1.79213e-22 6.78142e-39 0 -0 0 0)
(2.53163e-06 -4.4878e-23 -0 -3.12255e-23 5.53532e-40 0 -0 0 0)
(2.53162e-06 7.60923e-23 -0 -4.9082e-23 -1.47524e-39 0 -0 -0 0)
(2.53161e-06 2.20361e-22 -0 -2.17138e-23 -1.89005e-39 0 -0 -0 0)
(2.5316e-06 1.3289e-22 -0 -1.15353e-22 -6.05516e-39 0 -0 -0 0)
(2.53159e-06 -6.17529e-23 -0 -2.50886e-22 6.11984e-39 0 -0 0 0)
(2.53159e-06 -1.77165e-22 -0 -2.47557e-22 1.73244e-38 0 -0 0 0)
(2.53158e-06 -8.36795e-23 -0 -4.14691e-23 1.37073e-39 0 -0 0 0)
(2.53158e-06 9.17943e-23 -0 1.31913e-22 4.78312e-39 -0 -0 -0 0)
(2.53158e-06 1.32895e-22 -0 -5.13402e-25 -2.69509e-41 0 -0 -0 0)
(2.56623e-06 3.39713e-19 -0 3.39895e-19 4.49948e-32 -0 -0 -0 0)
(2.56623e-06 -7.59211e-20 -0 -7.55303e-20 2.23454e-33 0 -0 0 0)
(2.56617e-06 1.71156e-20 -0 1.72546e-20 1.15083e-34 -0 -0 -0 0)
(2.56615e-06 -4.49164e-21 -0 -4.25804e-21 7.45301e-36 0 -0 0 0)
(2.56612e-06 4.66298e-22 -0 9.03856e-22 1.64243e-37 -0 -0 -0 0)
(2.5661e-06 -2.43247e-22 -0 1.41702e-23 -1.34323e-39 -0 -0 0 0)
(2.56608e-06 2.21526e-22 -0 2.4343e-22 2.1015e-38 -0 -0 -0 0)
(2.56605e-06 2.13874e-22 -0 1.43853e-22 1.19898e-38 -0 -0 -0 0)
(2.56604e-06 2.51947e-22 -0 2.05355e-22 2.01628e-38 -0 -0 -0 0)
(2.56601e-06 9.63347e-23 -0 1.67244e-22 6.27879e-39 -0 -0 -0 0)
(2.56601e-06 1.58064e-22 -0 1.87558e-22 1.15535e-38 -0 -0 -0 0)
(2.56598e-06 4.33528e-23 -0 -7.55629e-23 -1.27665e-39 0 -0 -0 0)
(2.56598e-06 -1.75799e-22 -0 -3.93288e-22 2.69447e-38 0 -0 0 0)
(2.56596e-06 -2.66502e-22 -0 -2.44836e-22 2.54288e-38 0 -0 0 0)
(2.56596e-06 6.26383e-23 -0 -1.42443e-22 -3.47721e-39 0 -0 -0 0)
(2.56594e-06 -1.10222e-22 -0 -3.04293e-22 1.30711e-38 0 -0 0 0)
(2.56594e-06 -2.01572e-22 -0 -3.18634e-22 2.50308e-38 0 -0 0 0)
(2.56594e-06 -2.76449e-22 -0 -6.63991e-23 7.1537e-39 0 -0 0 0)
(2.56593e-06 2.01187e-23 -0 1.73603e-22 1.36116e-39 -0 -0 -0 0)
(2.56593e-06 1.8089e-22 -0 1.54562e-23 1.08962e-39 -0 -0 -0 0)
(2.59062e-06 -5.07572e-19 -0 -5.08117e-19 9.95538e-32 0 -0 0 0)
(2.59062e-06 1.08761e-19 -0 1.09144e-19 4.58217e-33 -0 -0 -0 0)
(2.59056e-06 -2.6443e-20 -0 -2.65009e-20 2.70506e-34 0 -0 0 0)
(2.59055e-06 5.15247e-21 -0 5.06832e-21 1.00806e-35 -0 -0 -0 0)
(2.59051e-06 -1.83793e-21 -0 -1.81184e-21 1.28547e-36 0 -0 0 0)
(2.59049e-06 -9.88989e-23 -0 7.93512e-23 -3.02944e-39 -0 -0 0 0)
(2.59047e-06 -2.72125e-22 -0 -2.42066e-22 2.54287e-38 0 -0 0 0)
(2.59044e-06 -1.12838e-22 -0 -1.01651e-22 4.42785e-39 0 -0 0 0)
(2.59042e-06 6.81086e-23 -0 1.51e-22 3.97015e-39 -0 -0 -0 0)
(2.59041e-06 1.90711e-22 -0 1.14844e-23 8.45504e-40 -0 -0 -0 0)
(2.59039e-06 2.24636e-23 -0 3.72713e-23 3.23212e-40 -0 -0 -0 0)
(2.59038e-06 -2.62451e-22 -0 -6.62062e-23 6.70785e-39 0 -0 0 0)
(2.59036e-06 -3.55392e-22 -0 -3.32937e-22 4.56782e-38 0 -0 0 0)
(2.59035e-06 -3.8527e-22 -0 -3.37652e-22 5.02198e-38 0 -0 0 0)
(2.59034e-06 -2.6917e-22 -0 -2.94868e-22 3.06406e-38 0 -0 0 0)
(2.59034e-06 -7.83617e-23 -0 -9.27211e-23 2.80496e-39 0 -0 0 0)
(2.59033e-06 -1.55216e-23 -0 -7.86427e-23 4.71236e-40 0 -0 0 0)
(2.59033e-06 -1.62035e-22 -0 -1.25294e-22 7.83762e-39 0 -0 0 0)
(2.59032e-06 -1.88213e-22 -0 -9.31136e-23 6.76565e-39 0 -0 0 0)
(2.59032e-06 -3.62632e-23 -0 -2.50798e-26 3.51104e-43 0 -0 0 0)
(2.60699e-06 2.18926e-19 -0 2.20174e-19 1.84895e-32 -0 -0 -0 0)
(2.60699e-06 -4.75063e-20 -0 -4.74398e-20 8.64481e-34 0 -0 0 0)
(2.60693e-06 1.10488e-20 -0 1.10832e-20 4.69731e-35 -0 -0 -0 0)
(2.60691e-06 -2.72297e-21 -0 -2.79485e-21 2.91927e-36 0 -0 0 0)
(2.60687e-06 2.80795e-22 -0 1.65213e-22 1.77956e-38 -0 -0 -0 0)
(2.60686e-06 -3.77331e-22 -0 -4.24534e-22 6.14495e-38 0 -0 0 0)
(2.60683e-06 -2.23575e-22 -0 -1.90554e-22 1.63429e-38 0 -0 0 0)
(2.60681e-06 -3.71421e-23 -0 1.25611e-22 -1.78972e-39 -0 -0 0 0)
(2.60679e-06 2.50447e-22 -0 2.61148e-22 2.50898e-38 -0 -0 -0 0)
(2.60677e-06 4.46409e-22 -0 1.46531e-22 2.50934e-38 -0 -0 -0 0)
(2.60675e-06 6.53319e-23 -0 -1.62819e-22 -4.08066e-39 0 -0 -0 0)
(2.60674e-06 -1.91269e-22 -0 7.02513e-23 -5.15468e-39 -0 -0 0 0)
(2.60672e-06 1.03904e-22 -0 3.62409e-22 1.44456e-38 -0 -0 -0 0)
(2.60671e-06 2.77417e-22 -0 1.89951e-22 2.02153e-38 -0 -0 -0 0)
(2.6067e-06 2.87802e-23 -0 -6.42024e-23 -7.08849e-40 0 -0 -0 0)
(2.6067e-06 1.572e-24 -0 -2.56896e-23 -1.54925e-41 0 -0 -0 0)
(2.60669e-06 -2.40206e-22 -0 -2.44978e-22 2.25747e-38 0 -0 0 0)
(2.60669e-06 -2.94492e-22 -0 -2.24908e-22 2.54091e-38 0 -0 0 0)
(2.60669e-06 -2.69441e-22 -0 -1.4504e-22 1.49921e-38 0 -0 0 0)
(2.60668e-06 -1.34869e-22 -0 7.78323e-24 -4.02702e-40 -0 -0 0 0)
(2.61783e-06 2.09569e-19 -0 2.09417e-19 1.67647e-32 -0 -0 -0 0)
(2.61783e-06 -4.58418e-20 -0 -4.59549e-20 8.04732e-34 0 -0 0 0)
(2.61777e-06 1.06718e-20 -0 1.07144e-20 4.36789e-35 -0 -0 -0 0)
(2.61776e-06 -2.6723e-21 -0 -2.46896e-21 2.52041e-36 0 -0 0 0)
(2.61772e-06 4.32353e-22 -0 4.75052e-22 7.84613e-38 -0 -0 -0 0)
(2.6177e-06 -3.86811e-22 -0 -5.73188e-22 8.46985e-38 0 -0 0 0)
(2.61768e-06 -4.38374e-22 -0 -4.40646e-22 7.37935e-38 0 -0 0 0)
(2.61765e-06 -4.69601e-22 -0 -3.00691e-22 5.39432e-38 0 -0 0 0)
(2.61764e-06 -2.72534e-22 -0 -1.72948e-22 1.80064e-38 0 -0 0 0)
(2.61761e-06 -1.83215e-22 -0 9.22399e-23 -6.45618e-39 -0 -0 0 0)
(2.6176e-06 2.42004e-22 -0 1.73088e-22 1.60024e-38 -0 -0 -0 0)
(2.61758e-06 3.97799e-22 -0 2.17089e-22 3.29915e-38 -0 -0 -0 0)
(2.61757e-06 3.15471e-22 -0 5.74469e-22 6.92352e-38 -0 -0 -0 0)
(2.61756e-06 4.41107e-22 -0 4.8705e-22 8.20771e-38 -0 -0 -0 0)
(2.61755e-06 4.48322e-22 -0 4.18951e-22 7.1756e-38 -0 -0 -0 0)
(2.61754e-06 9.73125e-23 -0 9.70858e-24 3.60937e-40 -0 -0 -0 0)
(2.61754e-06 -1.76895e-22 -0 -6.76323e-23 4.57063e-39 0 -0 0 0)
(2.61753e-06 -1.31425e-22 -0 -8.31682e-23 4.17582e-39 0 -0 0 0)
(2.61753e-06 -1.02789e-22 -0 -2.84145e-22 1.11582e-38 0 -0 0 0)
(2.61753e-06 -2.20576e-22 -0 -1.4351e-22 1.20934e-38 0 -0 0 0)
(2.62533e-06 -4.83416e-19 -0 -4.84565e-19 8.92254e-32 0 -0 0 0)
(2.62533e-06 1.05495e-19 -0 1.05552e-19 4.24146e-33 -0 -0 -0 0)
(2.62528e-06 -2.51144e-20 -0 -2.49099e-20 2.38297e-34 0 -0 0 0)
(2.62526e-06 5.38692e-21 -0 5.6563e-21 1.16065e-35 -0 -0 -0 0)
(2.62522e-06 -1.24596e-21 -0 -1.06792e-21 5.06845e-37 0 -0 0 0)
(2.6252e-06 1.14492e-22 -0 1.00061e-22 4.3639e-39 -0 -0 -0 0)
(2.62518e-06 -4.31815e-22 -0 -5.62901e-22 9.25916e-38 0 -0 0 0)
(2.62515e-06 -5.70841e-22 -0 -5.67271e-22 1.23353e-37 0 -0 0 0)
(2.62514e-06 -6.34555e-22 -0 -4.76047e-22 1.15071e-37 0 -0 0 0)
(2.62511e-06 -6.47245e-22 -0 -3.70996e-22 9.14726e-38 0 -0 0 0)
(2.6251e-06 -3.57014e-22 -0 -9.0746e-23 1.23414e-38 0 -0 0 0)
(2.62508e-06 -8.37554e-23 -0 -2.42643e-23 7.74173e-40 0 -0 0 0)
(2.62507e-06 -8.57199e-23 -0 8.37382e-23 -2.73441e-39 -0 -0 0 0)
(2.62505e-06 6.98388e-23 -0 2.22599e-22 5.92219e-39 -0 -0 -0 0)
(2.62505e-06 1.58574e-22 -0 4.24717e-22 2.56563e-38 -0 -0 -0 0)
(2.62504e-06 2.14157e-22 -0 4.17416e-22 3.40538e-38 -0 -0 -0 0)
(2.62503e-06 3.09423e-22 -0 4.30558e-22 5.07516e-38 -0 -0 -0 0)
(2.62503e-06 1.66771e-22 -0 -8.77915e-23 -5.57747e-39 0 -0 -0 0)
(2.62503e-06 -4.46119e-23 -0 -2.2856e-22 3.88435e-39 0 -0 0 0)
(2.62503e-06 -1.6508e-22 -0 -1.5233e-22 9.57955e-39 0 -0 0 0)
(2.63104e-06 5.18685e-19 -0 5.19303e-19 1.02376e-31 -0 -0 -0 0)
(2.63104e-06 -1.13432e-19 -0 -1.13391e-19 4.88863e-33 0 -0 0 0)
(2.63099e-06 2.68743e-20 -0 2.70345e-20 2.76145e-34 -0 -0 -0 0)
(2.63097e-06 -5.69952e-21 -0 -5.68232e-21 1.23097e-35 0 -0 0 0)
(2.63093e-06 1.095e-21 -0 1.24937e-21 5.19987e-37 -0 -0 -0 0)
(2.63091e-06 -6.01559e-22 -0 -2.45243e-22 5.60749e-38 0 -0 0 0)
(2.63089e-06 6.71628e-23 -0 4.42539e-22 1.12974e-38 -0 -0 -0 0)
(2.63086e-06 4.31638e-22 -0 6.31833e-22 1.03663e-37 -0 -0 -0 0)
(2.63084e-06 4.08274e-22 -0 3.80191e-22 5.90009e-38 -0 -0 -0 0)
(2.63082e-06 2.36643e-22 -0 1.47674e-22 1.32833e-38 -0 -0 -0 0)
(2.63081e-06 -4.20938e-23 -0 5.35895e-24 -8.57448e-41 -0 -0 0 0)
(2.63079e-06 -2.69053e-22 -0 -3.62297e-23 3.70525e-39 0 -0 0 0)
(2.63078e-06 -7.72299e-23 -0 3.03464e-23 -8.90856e-40 -0 -0 0 0)
(2.63076e-06 1.07694e-22 -0 2.44299e-22 1.00007e-38 -0 -0 -0 0)
(2.63076e-06 2.03023e-22 -0 1.95442e-22 1.50827e-38 -0 -0 -0 0)
(2.63075e-06 2.82862e-22 -0 3.64228e-22 3.91624e-38 -0 -0 -0 0)
(2.63074e-06 1.21259e-22 -0 -4.03769e-23 -1.86109e-39 0 -0 -0 0)
(2.63074e-06 -1.21388e-22 -0 -2.37289e-22 1.0949e-38 0 -0 0 0)
(2.63074e-06 -1.21506e-22 -0 4.78896e-23 -2.21187e-39 -0 -0 0 0)
(2.63074e-06 -5.95676e-23 -0 6.8154e-23 -1.54321e-39 -0 -0 0 0)
(2.63596e-06 -3.06341e-19 -0 -3.06557e-19 3.56269e-32 0 -0 0 0)
(2.63596e-06 6.74799e-20 -0 6.75196e-20 1.72848e-33 -0 -0 -0 0)
(2.63591e-06 -1.56073e-20 -0 -1.55641e-20 9.21555e-35 0 -0 0 0)
(2.63589e-06 3.46442e-21 -0 3.72649e-21 4.89782e-36 -0 -0 -0 0)
(2.63586e-06 -9.19366e-22 -0 -7.42005e-22 2.58805e-37 0 -0 0 0)
(2.63583e-06 -1.78434e-22 -0 8.90717e-24 -6.02976e-40 -0 -0 0 0)
(2.63581e-06 -2.944e-22 -0 3.97454e-23 -4.43925e-39 -0 -0 0 0)
(2.63578e-06 1.23017e-22 -0 3.50937e-22 1.63789e-38 -0 -0 -0 0)
(2.63577e-06 2.23114e-22 -0 2.12512e-22 1.79889e-38 -0 -0 -0 0)
(2.63574e-06 1.35162e-22 -0 7.07997e-23 3.63064e-39 -0 -0 -0 0)
(2.63573e-06 -5.01055e-23 -0 -1.28939e-22 2.45115e-39 0 -0 0 0)
(2.63571e-06 -2.64356e-22 -0 -1.7936e-22 1.79894e-38 0 -0 0 0)
(2.6357e-06 -2.47855e-22 -0 5.94875e-23 -5.59405e-39 -0 -0 0 0)
(2.63568e-06 4.19525e-23 -0 2.70325e-22 4.3028e-39 -0 -0 -0 0)
(2.63568e-06 1.44961e-22 -0 4.26476e-23 2.3456e-39 -0 -0 -0 0)
(2.63567e-06 8.01516e-23 -0 -1.56011e-22 -4.74434e-39 0 -0 -0 0)
(2.63567e-06 -2.005e-22 -0 -2.71605e-22 2.06614e-38 0 -0 0 0)
(2.63566e-06 3.07567e-23 -0 -1.42499e-23 -1.66289e-40 0 -0 -0 0)
(2.63566e-06 5.99452e-23 -0 -9.67961e-23 -2.20152e-39 0 -0 -0 0)
(2.63566e-06 -2.52602e-22 -0 -2.41559e-23 2.31511e-39 0 -0 0 0)
(2.6407e-06 -5.35389e-20 -0 -5.41422e-20 1.09771e-33 0 -0 0 0)
(2.6407e-06 1.01556e-20 -0 1.06841e-20 4.10889e-35 -0 -0 -0 0)
(2.64064e-06 -3.19294e-21 -0 -2.75362e-21 3.32954e-36 0 -0 0 0)
(2.64062e-06 3.93674e-22 -0 7.75829e-22 1.15663e-37 -0 -0 -0 0)
(2.64059e-06 -5.24916e-24 -0 2.53871e-22 -5.04663e-40 -0 -0 0 0)
(2.64057e-06 2.81933e-22 -0 3.40694e-22 3.63758e-38 -0 -0 -0 0)
(2.64054e-06 3.66232e-22 -0 3.52759e-22 4.89264e-38 -0 -0 -0 0)
(2.64052e-06 2.63616e-22 -0 2.44188e-22 2.43785e-38 -0 -0 -0 0)
(2.64049e-06 2.55573e-22 -0 2.11758e-22 2.0496e-38 -0 -0 -0 0)
(2.64048e-06 3.50267e-22 -0 2.57214e-22 3.41201e-38 -0 -0 -0 0)
(2.64046e-06 3.33021e-22 -0 2.57185e-22 3.24368e-38 -0 -0 -0 0)
(2.64045e-06 3.89119e-23 -0 -5.972e-23 -8.80087e-40 0 -0 -0 0)
(2.64043e-06 -1.84284e-22 -0 -1.53077e-22 1.06838e-38 0 -0 0 0)
(2.64042e-06 -1.71795e-22 -0 2.03316e-23 -1.32284e-39 -0 -0 0 0)
(2.64041e-06 -8.27795e-23 -0 1.34197e-22 -4.20722e-39 -0 -0 0 0)
(2.6404e-06 -1.86525e-24 -0 8.8891e-24 -6.27949e-42 -0 -0 0 0)
(2.6404e-06 5.40953e-23 -0 6.37492e-23 1.30607e-39 -0 -0 -0 0)
(2.64039e-06 2.50724e-22 -0 6.1413e-23 5.83159e-39 -0 -0 -0 0)
(2.64039e-06 1.0531e-22 -0 -1.74651e-23 -6.96584e-40 0 -0 -0 0)
(2.64039e-06 -7.20014e-24 -0 1.2503e-23 -3.40947e-41 -0 -0 0 0)
(2.64557e-06 3.77045e-19 -0 3.76849e-19 5.37083e-32 -0 -0 -0 0)
(2.64557e-06 -8.39049e-20 -0 -8.38267e-20 2.65859e-33 0 -0 0 0)
(2.64552e-06 1.86326e-20 -0 1.88041e-20 1.32439e-34 -0 -0 -0 0)
(2.64549e-06 -5.17479e-21 -0 -4.84431e-21 9.47586e-36 0 -0 0 0)
(2.64546e-06 4.9043e-22 -0 9.29232e-22 1.72266e-37 -0 -0 -0 0)
(2.64544e-06 -3.58301e-23 -0 2.31564e-22 -3.13632e-39 -0 -0 0 0)
(2.6454e-06 6.75301e-22 -0 6.29973e-22 1.60815e-37 -0 -0 -0 0)
(2.64539e-06 5.28314e-22 -0 3.0405e-22 6.07222e-38 -0 -0 -0 0)
(2.64536e-06 3.2612e-22 -0 6.51767e-24 8.03497e-40 -0 -0 -0 0)
(2.64535e-06 -2.02018e-23 -0 -1.8409e-22 1.40585e-39 0 -0 0 0)
(2.64533e-06 -6.31404e-23 -0 3.80744e-23 -9.08784e-40 -0 -0 0 0)
(2.64531e-06 -4.75401e-24 -0 -9.09328e-24 1.63419e-41 0 -0 0 0)
(2.6453e-06 4.90766e-23 -0 -2.6719e-23 -4.957e-40 0 -0 -0 0)
(2.64529e-06 -4.85758e-23 -0 1.95022e-23 -3.58121e-40 -0 -0 0 0)
(2.64528e-06 -9.28474e-23 -0 -3.63179e-23 1.27473e-39 0 -0 0 0)
(2.64527e-06 -8.70772e-23 -0 -1.24313e-22 4.09215e-39 0 -0 0 0)
(2.64527e-06 9.67396e-24 -0 -7.33815e-23 -2.68362e-40 0 -0 -0 0)
(2.64526e-06 1.43108e-23 -0 6.38817e-23 3.45598e-40 -0 -0 -0 0)
(2.64526e-06 1.92401e-23 -0 1.69032e-22 1.22945e-39 -0 -0 -0 0)
(2.64526e-06 1.21215e-22 -0 1.03235e-22 4.73056e-39 -0 -0 -0 0)
(2.6507e-06 -5.08702e-19 -0 -5.09091e-19 9.7701e-32 0 -0 0 0)
(2.6507e-06 1.1189e-19 -0 1.1183e-19 4.7205e-33 -0 -0 -0 0)
(2.65063e-06 -2.63441e-20 -0 -2.64187e-20 2.6257e-34 0 -0 0 0)
(2.65062e-06 5.69289e-21 -0 5.70792e-21 1.22593e-35 -0 -0 -0 0)
(2.65058e-06 -1.32334e-21 -0 -1.14449e-21 5.714e-37 0 -0 0 0)
(2.65056e-06 5.23655e-22 -0 6.944e-22 1.37188e-37 -0 -0 -0 0)
(2.65054e-06 1.679e-22 -0 1.6309e-22 1.03311e-38 -0 -0 -0 0)
(2.65051e-06 3.07843e-22 -0 -1.09435e-22 -1.27103e-38 0 -0 -0 0)
(2.65049e-06 -1.29476e-22 -0 -3.78627e-22 1.84958e-38 0 -0 0 0)
(2.65047e-06 -5.52496e-22 -0 -5.29218e-22 1.10317e-37 0 -0 0 0)
(2.65046e-06 -5.88245e-22 -0 -3.41377e-22 7.57655e-38 0 -0 0 0)
(2.65044e-06 -2.77382e-22 -0 -4.28716e-23 4.48674e-39 0 -0 0 0)
(2.65043e-06 4.3943e-23 -0 1.2625e-22 2.09317e-39 -0 -0 -0 0)
(2.65041e-06 2.2247e-22 -0 6.36923e-23 5.34619e-39 -0 -0 -0 0)
(2.65041e-06 1.74763e-23 -0 -9.69628e-23 -6.39355e-40 0 -0 -0 0)
(2.6504e-06 -2.06911e-22 -0 -2.00166e-22 1.56265e-38 0 -0 0 0)
(2.65039e-06 -1.77305e-22 -0 -1.37007e-22 9.16546e-39 0 -0 0 0)
(2.65039e-06 -7.79155e-23 -0 1.23208e-22 -3.62203e-39 -0 -0 0 0)
(2.65039e-06 3.77629e-23 -0 1.69063e-22 2.40883e-39 -0 -0 -0 0)
(2.65038e-06 -5.57189e-23 -0 3.49297e-23 -7.34326e-40 -0 -0 0 0)
(2.65601e-06 3.02728e-19 -0 3.03454e-19 3.45872e-32 -0 -0 -0 0)
(2.65601e-06 -6.56233e-20 -0 -6.54956e-20 1.61823e-33 0 -0 0 0)
(2.65595e-06 1.62102e-20 -0 1.60895e-20 9.81998e-35 -0 -0 -0 0)
(2.65593e-06 -2.592e-21 -0 -3.01613e-21 2.94352e-36 0 -0 0 0)
(2.6559e-06 1.12378e-21 -0 8.1004e-22 3.42748e-37 -0 -0 -0 0)
(2.65587e-06 -2.25087e-22 -0 -4.60455e-22 3.90238e-38 0 -0 0 0)
(2.65585e-06 -3.23799e-22 -0 -3.34406e-22 4.07705e-38 0 -0 0 0)
(2.65582e-06 -3.6283e-22 -0 -3.57843e-22 4.88872e-38 0 -0 0 0)
(2.65581e-06 -2.74529e-22 -0 -1.0124e-22 1.04651e-38 0 -0 0 0)
(2.65578e-06 9.51323e-23 -0 2.83401e-22 1.01517e-38 -0 -0 -0 0)
(2.65578e-06 1.64077e-22 -0 2.85534e-22 1.76406e-38 -0 -0 -0 0)
(2.65575e-06 1.48091e-22 -0 1.39073e-22 7.75507e-39 -0 -0 -0 0)
(2.65575e-06 5.73519e-23 -0 -9.47399e-23 -2.04595e-39 0 -0 -0 0)
(2.65572e-06 -7.58022e-24 -0 -3.9762e-23 1.13492e-40 0 -0 0 0)
(2.65573e-06 3.4199e-23 -0 1.29396e-22 1.66629e-39 -0 -0 -0 0)
(2.65571e-06 4.58847e-23 -0 1.21402e-22 2.09757e-39 -0 -0 -0 0)
(2.65571e-06 1.35709e-22 -0 2.20738e-22 1.12799e-38 -0 -0 -0 0)
(2.6557e-06 1.65928e-22 -0 3.15634e-22 1.97208e-38 -0 -0 -0 0)
(2.6557e-06 9.76745e-23 -0 3.00113e-22 1.10379e-38 -0 -0 -0 0)
(2.6557e-06 2.92388e-23 -0 1.41078e-22 1.55324e-39 -0 -0 -0 0)
(2.66125e-06 8.03981e-20 -0 7.95988e-20 2.40473e-33 -0 -0 -0 0)
(2.66125e-06 -1.83942e-20 -0 -1.81195e-20 1.2524e-34 0 -0 0 0)
(2.66119e-06 4.73294e-21 -0 4.42606e-21 7.87178e-36 -0 -0 -0 0)
(2.66118e-06 -8.34732e-22 -0 -1.02436e-21 3.2131e-37 0 -0 0 0)
(2.66113e-06 6.01838e-22 -0 3.88675e-22 8.79022e-38 -0 -0 -0 0)
(2.66112e-06 1.84633e-22 -0 -1.02198e-23 -7.09067e-40 0 -0 -0 0)
(2.66108e-06 6.7678e-23 -0 -7.52409e-23 -1.91356e-39 0 -0 -0 0)
(2.66107e-06 -2.45384e-22 -0 -1.3799e-22 1.27244e-38 0 -0 0 0)
(2.66104e-06 -9.68251e-23 -0 4.32889e-24 -1.57512e-40 -0 -0 0 0)
(2.66103e-06 1.56481e-22 -0 2.04126e-22 1.20036e-38 -0 -0 -0 0)
(2.66101e-06 -3.51549e-24 -0 7.5872e-24 -1.00236e-41 -0 -0 0 0)
(2.66099e-06 4.82219e-23 -0 -4.20456e-24 -7.6194e-41 0 -0 -0 0)
(2.66098e-06 8.40307e-23 -0 -3.92735e-23 -1.24021e-39 0 -0 -0 0)
(2.66097e-06 -1.55634e-22 -0 -3.15598e-23 1.84587e-39 0 -0 0 0)
(2.66096e-06 2.83503e-23 -0 2.63769e-22 2.81024e-39 -0 -0 -0 0)
(2.66095e-06 3.84196e-22 -0 5.18029e-22 7.47947e-38 -0 -0 -0 0)
(2.66094e-06 5.04103e-22 -0 5.4999e-22 1.04193e-37 -0 -0 -0 0)
(2.66094e-06 2.61153e-22 -0 2.38113e-22 2.33691e-38 -0 -0 -0 0)
(2.66094e-06 1.709e-24 -0 1.24592e-22 8.00196e-41 -0 -0 -0 0)
(2.66094e-06 2.84355e-23 -0 1.64205e-22 1.75474e-39 -0 -0 -0 0)
(2.66596e-06 -3.9567e-19 -0 -3.95629e-19 5.87176e-32 0 -0 0 0)
(2.66596e-06 8.77109e-20 -0 8.75024e-20 2.87886e-33 -0 -0 -0 0)
(2.6659e-06 -2.08982e-20 -0 -2.07392e-20 1.62576e-34 0 -0 0 0)
(2.66588e-06 4.81307e-21 -0 4.79139e-21 8.65055e-36 -0 -0 -0 0)
(2.66584e-06 -4.33839e-22 -0 -6.8422e-22 1.1135e-37 0 -0 0 0)
(2.66582e-06 7.28566e-22 -0 8.12365e-22 2.22018e-37 -0 -0 -0 0)
(2.66579e-06 1.79833e-22 -0 3.22677e-22 2.17677e-38 -0 -0 -0 0)
(2.66577e-06 2.73615e-24 -0 8.26089e-23 8.47897e-41 -0 -0 -0 0)
(2.66575e-06 -7.45317e-23 -0 -1.38434e-22 3.87049e-39 0 -0 0 0)
(2.66573e-06 -3.39269e-22 -0 -3.97521e-22 5.05927e-38 0 -0 0 0)
(2.66571e-06 -3.16287e-22 -0 -2.21202e-22 2.62456e-38 0 -0 0 0)
(2.6657e-06 2.64962e-22 -0 4.61044e-22 4.58263e-38 -0 -0 -0 0)
(2.66568e-06 7.26192e-22 -0 6.14806e-22 1.67487e-37 -0 -0 -0 0)
(2.66568e-06 2.44782e-22 -0 7.50291e-23 6.88972e-39 -0 -0 -0 0)
(2.66566e-06 -7.067e-23 -0 2.04988e-23 -5.43449e-40 -0 -0 0 0)
(2.66566e-06 1.58701e-22 -0 3.23592e-22 1.92652e-38 -0 -0 -0 0)
(2.66565e-06 2.6179e-22 -0 2.31525e-22 2.27377e-38 -0 -0 -0 0)
(2.66565e-06 -1.37694e-22 -0 -8.7954e-23 4.54328e-39 0 -0 0 0)
(2.66564e-06 -1.0662e-22 -0 -8.28369e-23 3.31331e-39 0 -0 0 0)
(2.66564e-06 3.40835e-23 -0 6.70631e-23 8.57484e-40 -0 -0 -0 0)
(2.66955e-06 1.89957e-19 -0 1.89856e-19 1.35096e-32 -0 -0 -0 0)
(2.66955e-06 -3.98567e-20 -0 -4.02931e-20 6.0158e-34 0 -0 0 0)
(2.6695e-06 9.33088e-21 -0 9.59684e-21 3.35445e-35 -0 -0 -0 0)
(2.66948e-06 -1.80968e-21 -0 -1.70186e-21 1.15372e-36 0 -0 0 0)
(2.66944e-06 6.53993e-22 -0 4.35349e-22 1.06657e-37 -0 -0 -0 0)
(2.66942e-06 -3.43902e-23 -0 -8.37351e-23 1.07876e-39 0 -0 0 0)
(2.66939e-06 -3.81033e-22 -0 8.93433e-23 -1.2753e-38 -0 -0 0 0)
(2.66938e-06 -1.71682e-22 -0 4.46304e-22 -2.87042e-38 -0 -0 0 0)
(2.66935e-06 7.80137e-23 -0 3.73844e-22 1.09259e-38 -0 -0 -0 0)
(2.66934e-06 2.26887e-23 -0 -5.56125e-23 -4.72692e-40 0 -0 -0 0)
(2.66932e-06 1.04385e-22 -0 -6.51761e-23 -2.54874e-39 0 -0 -0 0)
(2.6693e-06 1.78069e-22 -0 6.37823e-23 4.25492e-39 -0 -0 -0 0)
(2.66929e-06 1.25829e-22 -0 6.09868e-23 2.87488e-39 -0 -0 -0 0)
(2.66928e-06 -1.47978e-23 -0 8.93148e-23 -4.95138e-40 -0 -0 0 0)
(2.66927e-06 7.74977e-25 -0 1.89058e-22 5.48898e-41 -0 -0 -0 0)
(2.66926e-06 1.95792e-22 -0 2.66435e-22 1.95432e-38 -0 -0 -0 0)
(2.66925e-06 2.2991e-22 -0 2.03548e-22 1.75322e-38 -0 -0 -0 0)
(2.66925e-06 1.37337e-22 -0 2.23567e-22 1.15028e-38 -0 -0 -0 0)
(2.66925e-06 8.80304e-23 -0 -1.06793e-22 -3.52196e-39 0 -0 -0 0)
(2.66925e-06 3.0384e-23 -0 -1.42479e-22 -1.62183e-39 0 -0 -0 0)
(2.67122e-06 2.3142e-19 -0 2.29591e-19 1.98906e-32 -0 -0 -0 0)
(2.67121e-06 -5.16177e-20 -0 -5.14638e-20 9.9447e-34 0 -0 0 0)
(2.67121e-06 1.22919e-20 -0 1.22164e-20 5.62151e-35 -0 -0 -0 0)
(2.67121e-06 -2.86582e-21 -0 -2.73418e-21 2.93337e-36 0 -0 0 0)
(2.67121e-06 4.94911e-22 -0 5.44297e-22 1.00845e-37 -0 -0 -0 0)
(2.67121e-06 -1.35668e-22 -0 -1.16406e-22 5.91212e-39 0 -0 0 0)
(2.67121e-06 -5.71203e-23 -0 2.34016e-22 -5.00411e-39 -0 -0 0 0)
(2.67121e-06 2.00485e-22 -0 5.92142e-22 4.44427e-38 -0 -0 -0 0)
(2.67121e-06 2.85292e-22 -0 5.57647e-22 5.95582e-38 -0 -0 -0 0)
(2.67121e-06 3.84577e-22 -0 3.85441e-22 5.54923e-38 -0 -0 -0 0)
(2.67121e-06 3.58911e-22 -0 1.33949e-22 1.79977e-38 -0 -0 -0 0)
(2.67121e-06 5.2757e-24 -0 -2.25732e-22 -4.45825e-40 0 -0 -0 0)
(2.67121e-06 -2.97318e-22 -0 -2.87995e-22 3.20551e-38 0 -0 0 0)
(2.67121e-06 -1.46218e-22 -0 5.26375e-23 -2.8813e-39 -0 -0 0 0)
(2.67121e-06 1.03683e-22 -0 3.08555e-22 1.19765e-38 -0 -0 -0 0)
(2.67121e-06 2.54129e-22 -0 3.84837e-22 3.66119e-38 -0 -0 -0 0)
(2.67121e-06 2.88852e-22 -0 3.25851e-22 3.5236e-38 -0 -0 -0 0)
(2.67121e-06 3.33057e-22 -0 2.51333e-22 3.13372e-38 -0 -0 -0 0)
(2.67121e-06 1.04049e-22 -0 -1.02698e-22 -4.00031e-39 0 -0 -0 0)
(2.67121e-06 -1.02326e-23 -0 -1.65282e-22 6.33144e-40 0 -0 0 0)
)
;

boundaryField
{
    movingWall
    {
        type            calculated;
        value           nonuniform List<tensor> 
20
(
(2.67122e-06 0 0 0 0 0 0 0 0)
(2.67121e-06 0 0 0 0 0 0 0 0)
(2.67121e-06 0 0 0 0 0 0 0 0)
(2.67121e-06 0 0 0 0 0 0 0 0)
(2.67121e-06 0 0 0 0 0 0 0 0)
(2.67121e-06 0 0 0 0 0 0 0 0)
(2.67121e-06 0 0 0 0 0 0 0 0)
(2.67121e-06 0 0 0 0 0 0 0 0)
(2.67121e-06 0 0 0 0 0 0 0 0)
(2.67121e-06 0 0 0 0 0 0 0 0)
(2.67121e-06 0 0 0 0 0 0 0 0)
(2.67121e-06 0 0 0 0 0 0 0 0)
(2.67121e-06 0 0 0 0 0 0 0 0)
(2.67121e-06 0 0 0 0 0 0 0 0)
(2.67121e-06 0 0 0 0 0 0 0 0)
(2.67121e-06 0 0 0 0 0 0 0 0)
(2.67121e-06 0 0 0 0 0 0 0 0)
(2.67121e-06 0 0 0 0 0 0 0 0)
(2.67121e-06 0 0 0 0 0 0 0 0)
(2.67121e-06 0 0 0 0 0 0 0 0)
)
;
    }
    fixedWalls
    {
        type            calculated;
        value           nonuniform List<tensor> 
60
(
(2.36859e-06 0 0 0 0 0 0 0 0)
(2.39524e-06 0 0 0 0 0 0 0 0)
(2.43908e-06 0 0 0 0 0 0 0 0)
(2.48791e-06 0 0 0 0 0 0 0 0)
(2.53187e-06 0 0 0 0 0 0 0 0)
(2.56623e-06 0 0 0 0 0 0 0 0)
(2.59062e-06 0 0 0 0 0 0 0 0)
(2.60699e-06 0 0 0 0 0 0 0 0)
(2.61783e-06 0 0 0 0 0 0 0 0)
(2.62533e-06 0 0 0 0 0 0 0 0)
(2.63104e-06 0 0 0 0 0 0 0 0)
(2.63596e-06 0 0 0 0 0 0 0 0)
(2.6407e-06 0 0 0 0 0 0 0 0)
(2.64557e-06 0 0 0 0 0 0 0 0)
(2.6507e-06 0 0 0 0 0 0 0 0)
(2.65601e-06 0 0 0 0 0 0 0 0)
(2.66125e-06 0 0 0 0 0 0 0 0)
(2.66596e-06 0 0 0 0 0 0 0 0)
(2.66955e-06 0 0 0 0 0 0 0 0)
(2.67122e-06 0 0 0 0 0 0 0 0)
(2.36858e-06 0 0 0 0 0 0 0 0)
(2.39499e-06 0 0 0 0 0 0 0 0)
(2.43882e-06 0 0 0 0 0 0 0 0)
(2.48763e-06 0 0 0 0 0 0 0 0)
(2.53158e-06 0 0 0 0 0 0 0 0)
(2.56593e-06 0 0 0 0 0 0 0 0)
(2.59032e-06 0 0 0 0 0 0 0 0)
(2.60668e-06 0 0 0 0 0 0 0 0)
(2.61753e-06 0 0 0 0 0 0 0 0)
(2.62503e-06 0 0 0 0 0 0 0 0)
(2.63074e-06 0 0 0 0 0 0 0 0)
(2.63566e-06 0 0 0 0 0 0 0 0)
(2.64039e-06 0 0 0 0 0 0 0 0)
(2.64526e-06 0 0 0 0 0 0 0 0)
(2.65038e-06 0 0 0 0 0 0 0 0)
(2.6557e-06 0 0 0 0 0 0 0 0)
(2.66094e-06 0 0 0 0 0 0 0 0)
(2.66564e-06 0 0 0 0 0 0 0 0)
(2.66925e-06 0 0 0 0 0 0 0 0)
(2.67121e-06 0 0 0 0 0 0 0 0)
(2.36859e-06 0 0 0 0 0 0 0 0)
(2.36859e-06 0 0 0 0 0 0 0 0)
(2.36859e-06 0 0 0 0 0 0 0 0)
(2.36859e-06 0 0 0 0 0 0 0 0)
(2.36859e-06 0 0 0 0 0 0 0 0)
(2.36859e-06 0 0 0 0 0 0 0 0)
(2.36859e-06 0 0 0 0 0 0 0 0)
(2.36859e-06 0 0 0 0 0 0 0 0)
(2.36859e-06 0 0 0 0 0 0 0 0)
(2.36859e-06 0 0 0 0 0 0 0 0)
(2.36859e-06 0 0 0 0 0 0 0 0)
(2.36858e-06 0 0 0 0 0 0 0 0)
(2.36858e-06 0 0 0 0 0 0 0 0)
(2.36858e-06 0 0 0 0 0 0 0 0)
(2.36858e-06 0 0 0 0 0 0 0 0)
(2.36858e-06 0 0 0 0 0 0 0 0)
(2.36858e-06 0 0 0 0 0 0 0 0)
(2.36858e-06 0 0 0 0 0 0 0 0)
(2.36858e-06 0 0 0 0 0 0 0 0)
(2.36858e-06 0 0 0 0 0 0 0 0)
)
;
    }
    frontAndBack
    {
        type            empty;
    }
}


// ************************************************************************* //
