/*--------------------------------*- C++ -*----------------------------------*\
| =========                 |                                                 |
| \\      /  F ield         | OpenFOAM: The Open Source CFD Toolbox           |
|  \\    /   O peration     | Version:  2506                                  |
|   \\  /    A nd           | Website:  www.openfoam.com                      |
|    \\/     M anipulation  |                                                 |
\*---------------------------------------------------------------------------*/
FoamFile
{
    version     2.0;
    format      ascii;
    arch        "LSB;label=32;scalar=64";
    class       volVectorField;
    location    "10";
    object      LambVectorField;
}
// * * * * * * * * * * * * * * * * * * * * * * * * * * * * * * * * * * * * * //

dimensions      [0 1 -2 0 0 0 0];

internalField   nonuniform List<vector> 
400
(
(-2.68237e-24 -1.36465e-11 0)
(-7.82983e-25 1.82003e-11 -0)
(-4.03098e-26 -4.05131e-12 0)
(-2.29561e-27 1.02662e-12 -0)
(-9.5383e-29 -1.92023e-13 0)
(1.16048e-30 -2.59028e-14 -0)
(-1.73499e-29 -8.1205e-14 0)
(-1.03076e-29 -4.57816e-14 0)
(-5.50679e-30 -4.25661e-14 0)
(-5.84509e-30 -5.37689e-14 0)
(-6.83086e-30 -5.46651e-14 0)
(-5.42914e-30 -4.7936e-14 0)
(-2.17766e-30 -3.50007e-14 0)
(3.58622e-30 -4.54894e-14 -0)
(2.77851e-31 -1.11188e-14 -0)
(1.22639e-31 3.79078e-15 0)
(-4.82684e-31 7.67419e-15 -0)
(3.75959e-31 -8.46945e-15 -0)
(-1.93138e-31 -8.8606e-15 0)
(-2.10507e-30 -4.76088e-14 0)
(-1.39706e-26 1.48548e-12 -0)
(-2.28823e-27 -1.22479e-12 0)
(-5.88773e-29 1.43797e-13 -0)
(-2.96713e-29 -1.8633e-13 0)
(-1.30983e-29 -1.32843e-13 0)
(-1.25291e-29 -9.46172e-14 0)
(-3.25579e-29 -1.40566e-13 0)
(-1.91669e-30 -1.04836e-14 0)
(-6.95705e-31 -1.06369e-14 0)
(-5.24938e-31 -2.89275e-14 0)
(-2.8196e-30 -3.37155e-14 0)
(9.726e-31 1.1544e-14 0)
(-7.21111e-31 2.26687e-14 -0)
(5.07751e-31 -3.56478e-15 -0)
(-4.27601e-31 -1.11444e-13 0)
(-8.06465e-30 -5.07687e-14 0)
(-8.49641e-31 2.77866e-14 -0)
(5.9633e-30 -5.01054e-14 -0)
(4.56182e-30 -6.36907e-14 -0)
(-1.08039e-30 4.46267e-14 -0)
(-9.69641e-25 5.85376e-12 -0)
(-5.06783e-25 -1.3834e-11 0)
(-2.79842e-26 3.2534e-12 -0)
(-1.37882e-27 -7.14149e-13 0)
(-9.76468e-29 2.59819e-13 -0)
(5.42055e-30 3.72098e-14 0)
(9.24245e-30 1.41696e-13 0)
(1.14747e-29 1.3666e-13 0)
(6.47492e-30 1.20165e-13 0)
(-4.07618e-30 1.21746e-13 -0)
(-6.56111e-30 8.2662e-14 -0)
(-2.41113e-30 5.13559e-14 -0)
(-4.1675e-30 8.19872e-14 -0)
(-2.82316e-30 5.26022e-14 -0)
(-5.11318e-31 1.47132e-14 -0)
(3.35569e-30 4.77688e-14 0)
(1.57539e-30 5.31138e-14 0)
(-1.52498e-29 8.03303e-14 -0)
(-1.15007e-29 4.967e-14 -0)
(1.51555e-30 -1.04928e-14 -0)
(-1.05869e-24 -6.66577e-12 0)
(-4.82161e-25 1.36798e-11 -0)
(-2.47145e-26 -3.11607e-12 0)
(-1.43613e-27 7.49178e-13 -0)
(-4.64086e-29 -1.05591e-13 0)
(-5.82318e-30 1.21624e-13 -0)
(2.45559e-30 6.74068e-14 0)
(-2.5678e-31 -2.81541e-15 0)
(2.06002e-30 3.1897e-14 0)
(1.35671e-30 3.13433e-14 0)
(1.23837e-30 5.57812e-14 0)
(1.33509e-30 4.8417e-14 0)
(2.22533e-30 2.7771e-14 0)
(1.44027e-30 6.88615e-14 0)
(-7.65904e-30 1.15376e-13 -0)
(-2.22463e-30 4.57301e-14 -0)
(6.28022e-31 3.40996e-14 0)
(-8.22268e-30 6.93353e-14 -0)
(-3.03844e-30 2.28739e-14 -0)
(-4.72446e-31 6.1935e-15 -0)
(-8.28674e-26 3.15639e-12 -0)
(-1.1371e-26 -2.55652e-12 0)
(-7.50742e-28 6.09991e-13 -0)
(-3.68839e-29 -1.5037e-13 0)
(-5.02751e-33 -2.63427e-15 0)
(3.01801e-33 5.20832e-15 0)
(-2.04633e-31 4.07842e-15 -0)
(1.11847e-30 -2.78193e-14 -0)
(1.44305e-31 -3.35341e-15 -0)
(4.37542e-31 -6.55922e-14 -0)
(-1.34533e-31 -1.90048e-15 0)
(6.33991e-32 5.14013e-15 0)
(7.28402e-33 3.75706e-16 0)
(-2.24529e-32 -2.61778e-15 0)
(-4.1248e-31 -9.0525e-15 0)
(-5.88986e-30 -5.94323e-14 0)
(-1.84161e-30 -1.88329e-14 0)
(-6.42462e-31 -3.92207e-14 0)
(1.32806e-30 -2.54873e-14 -0)
(-1.20464e-32 -5.94005e-14 0)
(-7.97227e-25 6.01911e-12 -0)
(-3.37333e-25 -1.14613e-11 0)
(-1.77631e-26 2.64179e-12 -0)
(-9.67302e-28 -5.82955e-13 0)
(-6.81869e-29 1.93588e-13 -0)
(1.42117e-31 -2.57362e-14 -0)
(2.09189e-30 -2.20513e-14 -0)
(1.60268e-30 -2.85887e-14 -0)
(2.0962e-30 -2.61934e-14 -0)
(4.51973e-32 -6.93458e-16 -0)
(6.91645e-31 -9.46247e-15 -0)
(-1.46478e-30 -4.97414e-14 0)
(-9.3199e-30 -6.0807e-14 0)
(9.32774e-31 9.77578e-15 0)
(-1.6333e-30 -2.94223e-14 0)
(-8.14302e-31 -6.86658e-15 0)
(1.15128e-30 9.2712e-15 0)
(4.96414e-31 1.91835e-14 0)
(-2.1583e-31 3.19008e-15 -0)
(4.43824e-32 -7.36804e-15 -0)
(-2.30826e-24 -1.17686e-11 0)
(-7.28424e-25 1.72897e-11 -0)
(-4.24835e-26 -4.15293e-12 0)
(-1.65246e-27 8.44617e-13 -0)
(-1.91568e-28 -2.73899e-13 0)
(6.34641e-31 -2.07184e-14 -0)
(-8.25141e-30 -8.83024e-14 0)
(-1.53181e-30 -3.90365e-14 0)
(6.06539e-30 -1.04053e-13 -0)
(3.7997e-31 -8.57055e-14 -0)
(1.60313e-30 -1.11419e-13 -0)
(-2.44357e-30 -9.56069e-14 0)
(-1.17982e-29 -9.17943e-14 0)
(-6.87473e-30 -5.27406e-14 0)
(1.07635e-30 9.45549e-15 0)
(2.98794e-31 8.34736e-15 0)
(-3.81776e-32 -1.25749e-15 0)
(-2.70223e-32 -5.58659e-16 0)
(1.14818e-30 3.19411e-14 0)
(3.48133e-35 3.59564e-15 0)
(-4.17658e-25 4.94531e-12 -0)
(-1.35591e-25 -7.45119e-12 0)
(-7.28062e-27 1.71251e-12 -0)
(-4.48997e-28 -4.18806e-13 0)
(-5.76237e-30 9.09237e-14 -0)
(6.60576e-30 4.05627e-14 0)
(3.52399e-30 4.82089e-14 0)
(-8.34953e-31 1.73278e-14 -0)
(-2.79579e-30 2.79077e-14 -0)
(9.14232e-31 -1.6264e-14 -0)
(-1.87576e-30 -3.00312e-14 0)
(1.87467e-31 -6.95615e-15 -0)
(-4.4068e-30 3.16971e-14 -0)
(7.118e-30 -9.7681e-14 -0)
(-8.7134e-31 -3.53776e-14 0)
(-6.02601e-31 -6.11452e-14 0)
(-3.2656e-30 -3.47476e-14 0)
(3.30791e-31 3.83388e-15 0)
(4.96695e-31 8.9267e-15 0)
(-1.57223e-32 5.26557e-15 -0)
(-4.25791e-25 5.32262e-12 -0)
(-1.28011e-25 -7.2922e-12 0)
(-6.90987e-27 1.68824e-12 -0)
(-3.17784e-28 -3.36936e-13 0)
(-2.29801e-29 1.2663e-13 -0)
(-7.65965e-30 -3.4981e-14 0)
(1.08777e-29 6.46197e-14 0)
(7.40185e-30 6.44365e-14 0)
(4.57346e-30 6.9221e-14 0)
(-4.28636e-30 1.2164e-13 -0)
(-5.69232e-30 8.60849e-14 -0)
(-8.01562e-30 9.66493e-14 -0)
(-1.41608e-29 6.45237e-14 -0)
(-3.93797e-30 2.11639e-14 -0)
(1.15953e-29 -7.24463e-14 -0)
(6.89484e-32 -1.85893e-14 -0)
(-1.49237e-30 -5.77584e-14 0)
(-2.62819e-31 -8.27164e-15 0)
(-3.19263e-30 -2.94104e-14 0)
(8.95761e-31 1.63381e-14 0)
(-2.40448e-24 -1.30273e-11 0)
(-6.74509e-25 1.67766e-11 -0)
(-3.73903e-26 -3.9406e-12 0)
(-1.83992e-27 8.53959e-13 -0)
(-1.08148e-28 -2.65856e-13 0)
(2.36614e-30 -6.20784e-14 -0)
(-2.28867e-29 -1.06736e-13 0)
(7.14876e-31 3.30822e-15 0)
(6.27108e-30 3.45815e-14 0)
(5.90493e-30 4.17824e-14 0)
(2.33056e-30 6.74184e-14 0)
(3.11977e-31 3.37519e-14 0)
(-1.16462e-30 3.65092e-14 -0)
(-5.69839e-30 6.71996e-14 -0)
(-1.43571e-29 8.87367e-14 -0)
(-8.65553e-30 5.44327e-14 -0)
(-5.73485e-30 3.49644e-14 -0)
(-8.39744e-31 -2.5109e-14 0)
(-2.14068e-31 -2.45859e-15 0)
(8.4201e-31 1.451e-14 0)
(-2.93273e-24 1.48586e-11 -0)
(-7.81818e-25 -1.81408e-11 0)
(-4.45717e-26 4.33769e-12 -0)
(-1.99963e-27 -9.25846e-13 0)
(-1.36751e-28 2.87972e-13 -0)
(4.72125e-30 5.06485e-14 0)
(-1.92857e-29 1.14653e-13 -0)
(-5.94051e-30 2.47354e-14 -0)
(-1.25756e-30 8.70207e-15 -0)
(2.32122e-30 -4.13526e-14 -0)
(6.94522e-32 -3.40954e-14 -0)
(1.30803e-32 9.49812e-16 0)
(-4.35663e-31 3.77684e-14 -0)
(-3.09981e-30 3.33806e-14 -0)
(-2.35234e-30 3.16639e-14 -0)
(-6.26436e-30 4.52462e-14 -0)
(-1.18296e-30 -7.7075e-14 0)
(3.02635e-31 3.3552e-15 0)
(-2.11357e-31 1.16106e-14 -0)
(-5.87929e-31 2.2694e-14 -0)
(-9.82126e-25 -8.44491e-12 0)
(-2.76521e-25 1.07954e-11 -0)
(-1.49301e-26 -2.52852e-12 0)
(-7.94975e-28 5.62316e-13 -0)
(-4.73328e-29 -1.68142e-13 0)
(8.2967e-32 -2.45518e-14 -0)
(-1.95671e-31 1.29764e-14 -0)
(2.73614e-30 -2.05503e-14 -0)
(3.04229e-30 -3.77332e-14 -0)
(2.53222e-30 -9.42698e-14 -0)
(-4.44222e-30 -9.08063e-14 0)
(-1.35801e-30 -1.99561e-14 0)
(-3.85073e-31 1.70614e-14 -0)
(2.84552e-30 -2.7744e-14 -0)
(1.1389e-30 -7.03857e-14 -0)
(-3.91456e-30 -6.61332e-14 0)
(5.54258e-31 5.37855e-15 0)
(3.58588e-32 6.63242e-15 0)
(-1.38032e-32 -3.75846e-16 0)
(4.2059e-32 4.58906e-15 0)
(-3.20746e-26 -1.56439e-12 0)
(-7.87347e-27 1.94602e-12 -0)
(-3.34737e-28 -3.21003e-13 0)
(-4.93895e-29 1.68103e-13 -0)
(-3.62761e-30 3.77319e-14 -0)
(-7.47757e-30 5.79553e-14 -0)
(-6.75391e-30 5.05555e-14 -0)
(-4.5194e-30 4.88703e-14 -0)
(-2.2133e-30 2.75985e-14 -0)
(-8.08866e-30 8.30357e-14 -0)
(-4.11105e-30 4.22072e-14 -0)
(-3.5142e-31 -1.55376e-14 0)
(1.75764e-31 3.03175e-15 0)
(-2.92489e-31 3.79849e-14 -0)
(2.20252e-32 -4.33357e-16 -0)
(8.98223e-33 -2.66807e-15 -0)
(-4.8028e-32 1.98925e-15 -0)
(7.15411e-32 -3.07584e-15 -0)
(-1.22527e-32 -1.85237e-15 0)
(-8.89909e-34 1.87931e-16 -0)
(-1.24954e-24 8.77203e-12 -0)
(-4.06497e-25 -1.2829e-11 0)
(-2.1413e-26 3.01256e-12 -0)
(-1.18761e-27 -6.48559e-13 0)
(-6.73952e-29 1.91869e-13 -0)
(-3.75503e-30 4.28983e-14 -0)
(-6.52561e-31 2.74026e-15 -0)
(5.82409e-30 -5.06725e-14 -0)
(1.79027e-31 -7.26627e-14 -0)
(8.30158e-32 1.19293e-15 0)
(-4.85339e-31 3.37203e-14 -0)
(-8.4197e-33 -2.44936e-15 0)
(-5.36633e-31 -5.31291e-14 0)
(2.67527e-33 -3.62876e-16 -0)
(-7.4642e-32 -5.43669e-15 0)
(-6.58457e-32 -1.40114e-15 0)
(1.97358e-31 7.11439e-15 0)
(-2.21308e-31 9.16408e-15 -0)
(-9.50632e-32 1.48769e-15 -0)
(4.01684e-31 -1.02926e-14 -0)
(-2.30577e-24 -1.20055e-11 0)
(-7.23629e-25 1.71521e-11 -0)
(-4.09836e-26 -4.11196e-12 0)
(-1.76148e-27 8.17989e-13 -0)
(-1.05077e-28 -2.43355e-13 0)
(1.54801e-29 -5.90885e-14 -0)
(8.53725e-30 -1.38747e-13 -0)
(-5.32033e-30 -1.28858e-13 0)
(-1.38785e-29 -9.71533e-14 0)
(-1.59556e-29 -7.99099e-14 0)
(-8.10994e-30 -6.29658e-14 0)
(-1.02991e-30 -6.36719e-14 0)
(2.39071e-30 -5.01895e-14 -0)
(2.15648e-30 -8.97369e-14 -0)
(-3.33905e-30 -9.12706e-14 0)
(-4.20822e-30 -5.5721e-14 0)
(6.30706e-31 1.2201e-14 0)
(-5.36833e-31 1.15481e-14 -0)
(2.12462e-31 -3.33075e-15 -0)
(4.58657e-31 -3.48018e-14 -0)
(-8.96637e-25 7.84792e-12 -0)
(-2.54768e-25 -1.03315e-11 0)
(-1.47431e-26 2.43369e-12 -0)
(-6.84093e-28 -6.02396e-13 0)
(-4.54736e-30 1.49095e-14 -0)
(-1.217e-29 -7.0196e-14 0)
(-2.92643e-30 -2.32417e-14 0)
(4.83501e-30 3.58843e-14 0)
(1.95367e-30 5.12501e-14 0)
(-1.55408e-30 1.45635e-14 -0)
(-5.24408e-30 4.87757e-14 -0)
(-6.69577e-31 1.27863e-14 -0)
(-2.40222e-31 -6.73391e-15 0)
(9.38005e-31 6.26498e-14 0)
(-1.61633e-30 3.31737e-14 -0)
(-2.63538e-30 5.76496e-14 -0)
(-6.0791e-31 7.31379e-15 -0)
(-6.79819e-30 5.7199e-14 -0)
(-2.32028e-30 2.05322e-14 -0)
(-5.57368e-31 1.04921e-14 -0)
(4.92674e-26 -1.64717e-12 -0)
(-1.24041e-26 -1.82183e-12 0)
(-7.07738e-28 4.2553e-13 -0)
(-6.23124e-30 -1.61881e-14 0)
(-9.52486e-30 6.52136e-14 -0)
(3.71443e-32 9.67197e-15 0)
(2.16339e-30 7.65137e-14 0)
(4.37167e-30 8.43053e-14 0)
(-1.97289e-31 1.21277e-13 -0)
(-8.32625e-30 1.08543e-13 -0)
(2.23223e-32 -7.82895e-15 -0)
(1.25701e-31 7.95541e-14 0)
(1.18496e-30 8.02871e-14 0)
(4.56544e-31 3.84935e-14 0)
(-1.01077e-29 1.01969e-13 -0)
(-1.26476e-29 6.49665e-14 -0)
(-1.46328e-29 7.07958e-14 -0)
(3.85604e-30 -4.30918e-14 -0)
(1.3005e-31 -2.7775e-15 -0)
(6.69745e-31 -1.08532e-14 -0)
(-5.48688e-25 -3.69735e-12 0)
(-3.94824e-25 1.20292e-11 -0)
(-2.16052e-26 -2.77722e-12 0)
(-1.25463e-27 6.98065e-13 -0)
(-1.7438e-29 -6.79416e-14 0)
(-3.62894e-29 1.19086e-13 -0)
(9.8753e-30 -8.15846e-14 -0)
(3.05588e-30 -9.86126e-14 -0)
(-3.7505e-30 -7.22213e-14 0)
(-4.6302e-31 -3.10496e-15 0)
(7.17098e-30 8.64178e-14 0)
(-1.48e-29 8.55719e-14 -0)
(3.33981e-30 -1.44808e-14 -0)
(1.39042e-30 -4.93998e-14 -0)
(-7.17063e-32 9.32467e-15 -0)
(2.32936e-30 -1.91886e-14 -0)
(3.69515e-30 -4.25439e-14 -0)
(-1.28346e-30 -3.88981e-14 0)
(-6.61593e-31 -2.12897e-14 0)
(-1.48873e-32 5.91743e-16 -0)
(-3.27124e-25 4.59967e-12 -0)
(-9.57815e-26 -6.34584e-12 0)
(-5.68417e-27 1.58113e-12 -0)
(-2.01513e-28 -3.16086e-13 0)
(-1.87265e-29 1.14826e-13 -0)
(4.43653e-31 1.41434e-14 0)
(-4.29335e-30 1.28276e-13 -0)
(-1.53774e-29 9.19732e-14 -0)
(-1.16274e-30 8.30227e-15 -0)
(-3.42648e-31 -1.64467e-14 0)
(1.09213e-31 4.47286e-15 0)
(5.34732e-31 -2.23786e-14 -0)
(-2.1855e-32 9.56554e-16 -0)
(-1.06749e-30 3.19031e-14 -0)
(-4.69983e-31 6.63559e-15 -0)
(2.65133e-30 -2.65621e-14 -0)
(1.22466e-31 -1.60597e-15 -0)
(9.73796e-31 -1.16265e-14 -0)
(-2.71752e-30 -6.79235e-14 0)
(-9.48334e-31 -1.77664e-14 0)
(-3.30863e-25 3.84947e-12 -0)
(-1.45815e-25 -7.56847e-12 0)
(-7.22729e-27 1.58031e-12 -0)
(-4.75002e-28 -4.64063e-13 0)
(-3.39961e-30 1.66841e-14 -0)
(-2.86856e-30 -6.58258e-14 0)
(2.42537e-30 -2.76848e-14 -0)
(3.32281e-30 -1.49895e-14 -0)
(7.27391e-30 -3.48431e-14 -0)
(1.0111e-29 -7.00718e-14 -0)
(3.86571e-30 -7.70901e-14 -0)
(-5.91589e-30 -7.00061e-14 0)
(-1.79877e-30 -1.6684e-14 0)
(9.4044e-32 -4.77248e-15 -0)
(1.69441e-30 -1.46688e-14 -0)
(-9.32824e-32 6.47488e-16 -0)
(6.09671e-31 -4.99786e-15 -0)
(1.5095e-30 -1.60433e-14 -0)
(1.48455e-30 3.86136e-14 0)
(6.20742e-31 1.00322e-14 0)
)
;

boundaryField
{
    movingWall
    {
        type            calculated;
        value           nonuniform List<vector> 
20
(
(0 1.54614e-11 -0)
(0 -1.04913e-11 -0)
(0 1.82425e-12 -0)
(0 -7.47821e-13 -0)
(0 -1.68454e-13 -0)
(0 -2.78069e-13 -0)
(0 -2.84337e-13 -0)
(0 -2.98747e-13 -0)
(0 -2.29783e-13 -0)
(0 -2.37906e-13 -0)
(0 -2.00516e-13 -0)
(0 -1.04614e-13 -0)
(0 -1.67215e-13 -0)
(0 -1.55303e-13 -0)
(0 -1.2079e-13 -0)
(0 -4.37614e-14 -0)
(0 -4.94068e-14 -0)
(0 -1.60433e-14 -0)
(0 7.32214e-14 -0)
(0 1.00322e-14 -0)
)
;
    }
    fixedWalls
    {
        type            calculated;
        value           nonuniform List<vector> 
60
(
(0 -7.69168e-11 -0)
(0 4.49373e-12 -0)
(0 5.92103e-11 -0)
(0 -5.78377e-11 -0)
(0 1.14773e-11 -0)
(0 4.86972e-11 -0)
(0 -7.48229e-11 -0)
(0 3.21017e-11 -0)
(0 3.1077e-11 -0)
(0 -7.24197e-11 -0)
(0 7.8381e-11 -0)
(0 -4.58958e-11 -0)
(0 -8.11987e-12 -0)
(0 5.46742e-11 -0)
(0 -7.38422e-11 -0)
(0 4.45893e-11 -0)
(0 8.00679e-12 -0)
(0 -5.14997e-11 -0)
(0 2.74448e-11 -0)
(0 3.15611e-11 -0)
(0 -3.65237e-14 -0)
(0 4.45263e-14 -0)
(0 -3.06699e-14 -0)
(0 -3.40732e-15 -0)
(0 -5.4129e-14 -0)
(0 -2.40945e-15 -0)
(0 3.87284e-18 -0)
(0 -1.19435e-15 -0)
(0 2.19306e-14 -0)
(0 2.32119e-14 -0)
(0 1.67423e-14 -0)
(0 3.66602e-15 -0)
(0 -1.89412e-15 -0)
(0 -1.56105e-14 -0)
(0 -3.23767e-14 -0)
(0 5.85599e-15 -0)
(0 -2.46838e-14 -0)
(0 -1.00633e-14 -0)
(0 -5.7539e-15 -0)
(0 2.47501e-14 -0)
(0 -2.30812e-11 -0)
(0 2.11924e-11 -0)
(0 -3.9896e-12 -0)
(0 1.3894e-12 -0)
(0 9.17349e-14 -0)
(0 2.50352e-13 -0)
(0 2.83868e-13 -0)
(0 1.41655e-13 -0)
(0 5.60529e-14 -0)
(0 4.41204e-16 -0)
(0 -4.55031e-16 -0)
(0 -8.25438e-14 -0)
(0 1.92094e-14 -0)
(0 -8.00972e-14 -0)
(0 -1.11188e-14 -0)
(0 -8.50271e-14 -0)
(0 7.67419e-15 -0)
(0 -8.46945e-15 -0)
(0 7.99572e-14 -0)
(0 -8.22165e-14 -0)
)
;
    }
    frontAndBack
    {
        type            empty;
    }
}


// ************************************************************************* //
