/*--------------------------------*- C++ -*----------------------------------*\
| =========                 |                                                 |
| \\      /  F ield         | OpenFOAM: The Open Source CFD Toolbox           |
|  \\    /   O peration     | Version:  2506                                  |
|   \\  /    A nd           | Website:  www.openfoam.com                      |
|    \\/     M anipulation  |                                                 |
\*---------------------------------------------------------------------------*/
FoamFile
{
    version     2.0;
    format      ascii;
    arch        "LSB;label=32;scalar=64";
    class       volScalarField;
    location    "10";
    object      Lambda2Field;
}
// * * * * * * * * * * * * * * * * * * * * * * * * * * * * * * * * * * * * * //

dimensions      [0 0 -2 0 0 0 0];

internalField   nonuniform List<scalar> 
400
(
2.79116e-23
1.25139e-23
4.04419e-25
-3.37354e-26
8.8782e-27
1.53454e-27
0
2.12136e-27
1.0106e-27
1.84838e-28
0
3.40118e-28
1.05059e-27
9.62363e-28
0
3.65585e-28
8.73747e-29
2.67012e-28
2.48275e-29
3.57859e-28
6.2193e-24
1.28994e-23
9.56783e-25
4.86962e-27
3.63498e-28
-7.18842e-28
-4.6286e-28
6.4985e-28
5.03353e-28
0
0
0
0
6.33353e-30
0
1.8656e-28
8.56694e-29
2.22517e-28
0
8.75418e-28
9.1624e-23
3.06668e-23
8.76651e-25
8.99178e-26
-1.33528e-26
3.58644e-27
-1.01638e-28
0
0
-7.10084e-28
-7.17826e-29
1.86847e-28
0
3.53998e-28
3.35882e-28
7.79738e-28
0
-1.41598e-27
2.83587e-28
1.01909e-27
7.73975e-23
3.16268e-23
1.2583e-24
2.84066e-26
1.5933e-26
-3.06716e-27
1.26414e-27
0
0
-1.07691e-28
1.40318e-28
3.14044e-28
0
-7.55509e-28
-6.8969e-28
4.59703e-28
-1.43177e-28
-3.94674e-28
1.14687e-28
7.76016e-28
9.35164e-24
1.84379e-23
1.03772e-24
4.36787e-26
6.93181e-27
1.79408e-29
1.72381e-28
1.97511e-28
2.09125e-28
0
0
0
0
0
0
-3.41475e-30
3.36071e-28
1.02129e-27
4.38502e-29
-2.32012e-28
4.69422e-23
1.97914e-23
8.35574e-25
3.45408e-26
0
0
1.36983e-28
0
2.47111e-29
0
7.25514e-29
-6.11811e-28
-2.385e-28
1.48286e-28
0
0
0
0
0
0
5.59835e-23
2.42138e-23
-4.8333e-25
1.04063e-25
-1.48256e-26
5.21093e-27
-2.86052e-28
8.22565e-28
4.73515e-28
-3.56196e-28
-1.41425e-28
0
2.27366e-30
3.62869e-28
9.53741e-30
0
0
0
2.0944e-29
0
1.1558e-23
6.40197e-24
2.38038e-25
6.61216e-27
2.93874e-27
1.36282e-27
-5.15937e-28
5.71986e-29
1.32904e-28
9.48931e-30
-5.25483e-29
5.46137e-28
0
-3.29572e-28
5.2592e-28
-3.60345e-28
-2.06948e-28
2.75442e-30
5.2719e-29
0
6.55454e-24
4.73458e-24
3.10562e-25
2.19387e-26
-1.71529e-27
0
-3.64575e-28
1.44044e-28
-2.11939e-29
0
-3.80069e-28
-1.2338e-27
-4.44332e-28
1.61036e-28
0
2.85166e-28
4.7329e-28
2.79176e-29
-5.2608e-29
3.72292e-29
2.03488e-23
1.29573e-23
-1.33451e-25
5.58441e-26
-1.06125e-26
1.56424e-27
-9.34463e-28
1.26048e-27
2.40803e-28
-3.93464e-28
-6.7495e-28
-8.66402e-29
1.77454e-28
-6.17282e-28
0
1.69486e-28
1.04331e-27
3.41351e-29
1.60677e-28
0
8.81761e-24
1.06506e-23
-8.70213e-25
5.38636e-26
-1.66474e-26
2.50573e-27
-1.97619e-27
1.28387e-27
4.98814e-28
-1.03312e-28
-1.87415e-28
0
-2.88161e-28
0
0
9.62071e-28
0
7.86095e-30
0
1.19562e-28
5.65628e-24
2.93103e-24
0
6.61216e-27
-2.38843e-27
2.10168e-27
0
3.95774e-28
-2.46712e-28
-1.03637e-27
-6.80829e-28
1.93773e-28
0
5.52088e-29
-1.42195e-28
0
0
0
6.15958e-30
4.48234e-30
1.6982e-25
5.75992e-25
1.64338e-25
5.58081e-27
3.83202e-27
-1.32209e-28
6.95671e-28
2.92784e-28
4.77184e-29
-4.6878e-29
6.5068e-28
4.17477e-29
1.06736e-29
0
0
0
0
0
1.01255e-28
0
2.55249e-23
9.70296e-24
0
2.49261e-26
7.34684e-28
7.89994e-28
0
0
-5.02814e-28
0
3.32362e-28
4.15005e-31
5.86007e-29
0
7.64026e-29
6.22357e-29
5.75124e-29
5.39522e-30
4.95654e-29
7.12982e-31
4.66713e-23
1.97426e-23
-3.60596e-25
1.34063e-25
-7.31482e-27
5.34855e-27
-1.96273e-27
-1.59254e-27
0
4.25087e-28
1.49208e-27
1.43467e-27
2.24499e-28
0
-7.70522e-28
4.04199e-30
1.22897e-28
0
0
-2.06633e-28
1.38716e-23
1.23346e-23
3.44301e-25
0
1.07633e-26
0
1.85366e-28
-2.36846e-28
0
7.63852e-28
4.67919e-28
3.88111e-28
0
-4.44634e-28
0
5.43631e-28
6.67617e-28
0
1.78159e-28
4.50295e-28
1.31652e-23
1.03274e-23
8.91608e-25
2.34997e-26
2.12167e-27
2.75837e-27
1.00031e-27
3.15136e-29
0
0
0
1.43198e-28
7.92808e-28
-2.90093e-28
-1.66263e-27
0
8.55525e-28
0
0
7.82004e-30
9.1802e-23
2.92729e-23
1.03556e-24
4.1419e-26
1.21397e-26
-3.06374e-27
-1.44585e-27
-9.26718e-28
0
0
-1.0113e-27
-1.69363e-27
1.41426e-29
0
0
2.14577e-28
0
0
1.57626e-28
0
2.06423e-23
2.57623e-23
1.03909e-24
6.88116e-26
-3.47254e-28
1.56453e-27
0
0
1.18926e-27
8.60938e-28
1.77224e-28
7.90966e-28
1.14549e-27
-1.29338e-28
0
1.47156e-29
1.23421e-29
0
-8.72277e-30
3.28873e-28
2.13552e-23
9.33399e-24
7.10239e-25
0
7.96883e-27
-5.7352e-28
1.58453e-27
1.06308e-27
5.24943e-28
-7.07436e-28
0
-8.19565e-28
3.54657e-28
6.05326e-28
6.84308e-28
5.94796e-28
3.93003e-28
3.16292e-28
9.07039e-28
0
)
;

boundaryField
{
    movingWall
    {
        type            calculated;
        value           nonuniform List<scalar> 
20
(
0
0
2.65221e-25
0
2.61122e-26
-2.7912e-27
8.98041e-27
4.50095e-27
0
-1.90645e-28
-1.12557e-27
-2.6038e-28
2.58584e-27
3.96706e-27
2.39153e-27
7.63438e-28
5.12734e-28
1.41646e-27
1.62175e-27
0
)
;
    }
    fixedWalls
    {
        type            calculated;
        value           nonuniform List<scalar> 
60
(
1.93969e-22
2.09419e-22
4.89941e-22
5.4628e-22
3.13235e-22
3.20616e-22
2.85593e-22
7.93506e-23
6.28184e-23
1.05195e-22
4.49705e-23
3.07758e-23
6.41768e-24
1.32228e-22
2.37003e-22
1.70134e-22
1.76593e-22
4.8358e-22
4.33233e-22
1.74231e-22
9.62785e-28
8.80861e-28
1.56599e-27
1.03625e-27
5.37584e-29
0
0
0
0
0
3.0476e-28
4.48234e-30
0
7.12982e-31
-1.40901e-28
5.75957e-28
7.82004e-30
0
6.54472e-28
0
0
0
6.5611e-25
0
7.10573e-26
-5.96433e-27
9.12639e-27
1.81583e-27
2.17585e-28
7.34684e-28
0
5.57249e-28
6.19366e-28
1.76898e-27
0
5.04152e-28
6.32967e-28
3.15276e-28
8.63e-28
5.86317e-28
)
;
    }
    frontAndBack
    {
        type            empty;
    }
}


// ************************************************************************* //
