/*--------------------------------*- C++ -*----------------------------------*\
| =========                 |                                                 |
| \\      /  F ield         | OpenFOAM: The Open Source CFD Toolbox           |
|  \\    /   O peration     | Version:  2506                                  |
|   \\  /    A nd           | Website:  www.openfoam.com                      |
|    \\/     M anipulation  |                                                 |
\*---------------------------------------------------------------------------*/
FoamFile
{
    version     2.0;
    format      ascii;
    arch        "LSB;label=32;scalar=64";
    class       volScalarField;
    location    "10";
    object      magP;
}
// * * * * * * * * * * * * * * * * * * * * * * * * * * * * * * * * * * * * * //

dimensions      [0 2 -2 0 0 0 0];

internalField   nonuniform List<scalar> 
400
(
3.36637e-16
4.41049e-15
3.46623e-15
4.29246e-15
4.56634e-15
4.75157e-15
5.24892e-15
5.52817e-15
5.52838e-15
5.77323e-15
5.93954e-15
6.02054e-15
6.20275e-15
5.91909e-15
6.00528e-15
6.16705e-15
6.00525e-15
5.62656e-15
5.8121e-15
5.66898e-15
3.3493e-15
0
3.68547e-15
3.93259e-15
4.65782e-15
4.83049e-15
5.35866e-15
5.41416e-15
5.58064e-15
5.8567e-15
6.02195e-15
6.05621e-15
6.10634e-15
5.99036e-15
5.87398e-15
5.97876e-15
6.19545e-15
5.84599e-15
5.71886e-15
5.52586e-15
3.11792e-15
5.30092e-15
3.78589e-15
4.31117e-15
4.57617e-15
5.0162e-15
5.20111e-15
5.47076e-15
5.6438e-15
6.05779e-15
6.02789e-15
5.83743e-15
6.0412e-15
6.15066e-15
5.93788e-15
5.75307e-15
6.0795e-15
5.85696e-15
5.64572e-15
5.73467e-15
3.71107e-15
3.9633e-15
4.23476e-15
4.60177e-15
4.80691e-15
5.17799e-15
5.42535e-15
5.56414e-15
5.61685e-15
5.91762e-15
6.08177e-15
5.92273e-15
5.93577e-15
5.97906e-15
5.90509e-15
5.81112e-15
5.87264e-15
5.80283e-15
5.78532e-15
6.03248e-15
4.52553e-15
2.3749e-15
4.68812e-15
4.76598e-15
4.91493e-15
5.26065e-15
5.6301e-15
5.59496e-15
5.73828e-15
5.88856e-15
5.90992e-15
5.83333e-15
5.77614e-15
5.74064e-15
5.77154e-15
5.72786e-15
5.80079e-15
5.75926e-15
5.82253e-15
6.0326e-15
3.53243e-15
7.19689e-15
5.07985e-15
5.25221e-15
5.24339e-15
5.45598e-15
5.58971e-15
5.65434e-15
5.74822e-15
5.93793e-15
5.85651e-15
5.77768e-15
5.63543e-15
5.66644e-15
5.72345e-15
5.64115e-15
5.65648e-15
5.70027e-15
5.92338e-15
5.97041e-15
4.9896e-15
6.29133e-15
5.12219e-15
5.22916e-15
5.31722e-15
5.51422e-15
5.62298e-15
5.68612e-15
5.85539e-15
5.96713e-15
6.07194e-15
5.91287e-15
5.53781e-15
5.54492e-15
5.63948e-15
5.58976e-15
5.55125e-15
5.75701e-15
5.94063e-15
5.95528e-15
6.5641e-15
1.51303e-15
5.35923e-15
5.11552e-15
5.3689e-15
5.62926e-15
5.61382e-15
5.57249e-15
5.95501e-15
5.91075e-15
6.14608e-15
6.198e-15
5.70424e-15
5.59799e-15
5.59487e-15
5.65569e-15
5.68147e-15
5.73721e-15
5.91592e-15
5.9548e-15
5.22392e-15
9.42627e-15
5.6104e-15
5.6177e-15
5.35555e-15
5.60258e-15
5.69715e-15
5.67678e-15
5.88866e-15
6.02996e-15
5.99142e-15
6.10728e-15
5.82765e-15
5.61772e-15
5.65024e-15
5.83695e-15
5.63302e-15
5.79122e-15
5.91158e-15
5.99322e-15
6.20368e-15
3.93846e-15
5.69894e-15
5.59121e-15
5.76775e-15
5.81943e-15
5.82524e-15
5.72439e-15
5.90229e-15
6.0682e-15
6.02814e-15
5.98953e-15
6.0367e-15
5.78024e-15
5.87693e-15
5.77508e-15
5.76724e-15
5.91014e-15
5.68311e-15
5.84083e-15
6.14676e-15
4.66185e-15
5.98431e-15
5.79867e-15
5.99239e-15
6.05264e-15
5.9538e-15
5.81203e-15
6.11168e-15
6.164e-15
6.2192e-15
6.23093e-15
6.06139e-15
5.84012e-15
5.91594e-15
6.00638e-15
5.94265e-15
5.67499e-15
5.741e-15
5.84623e-15
5.42541e-15
9.52578e-15
6.05883e-15
6.42367e-15
6.14786e-15
6.17317e-15
6.10167e-15
6.06097e-15
6.13198e-15
6.26437e-15
6.35526e-15
6.3172e-15
6.20659e-15
6.04006e-15
5.76294e-15
6.00613e-15
5.83785e-15
5.71894e-15
5.78886e-15
5.95691e-15
6.68979e-15
1.9336e-15
6.32846e-15
6.22577e-15
6.55441e-15
6.32607e-15
6.14388e-15
6.14443e-15
6.25636e-15
6.30308e-15
6.42427e-15
6.37407e-15
6.32659e-15
6.12199e-15
5.9489e-15
5.91169e-15
5.78171e-15
5.7635e-15
5.66001e-15
5.96324e-15
6.1874e-15
9.14674e-15
6.39345e-15
6.68315e-15
6.41339e-15
6.2582e-15
6.20661e-15
6.19185e-15
6.15915e-15
6.25176e-15
6.553e-15
6.47031e-15
6.31932e-15
6.19377e-15
6.09598e-15
5.98184e-15
5.89121e-15
5.582e-15
5.71012e-15
6.00047e-15
6.74787e-15
5.75263e-15
6.52527e-15
6.52018e-15
6.54472e-15
6.31699e-15
6.23326e-15
6.20402e-15
6.30967e-15
6.263e-15
6.55402e-15
6.46027e-15
6.27334e-15
6.27576e-15
6.10223e-15
5.88223e-15
5.70527e-15
5.72957e-15
5.80297e-15
6.05569e-15
7.09762e-15
4.41236e-15
6.54838e-15
6.40723e-15
6.56962e-15
6.50163e-15
6.40204e-15
6.19153e-15
6.27068e-15
6.38955e-15
6.71852e-15
6.51703e-15
6.29403e-15
6.23717e-15
6.19836e-15
6.07669e-15
5.79458e-15
5.72915e-15
5.94782e-15
6.09127e-15
6.04157e-15
9.16209e-15
6.51852e-15
6.71597e-15
6.67137e-15
6.35925e-15
6.36369e-15
6.20594e-15
6.29824e-15
6.48674e-15
6.82691e-15
6.56412e-15
6.21081e-15
6.26525e-15
6.3215e-15
5.92117e-15
5.75228e-15
5.89986e-15
6.1239e-15
6.27037e-15
6.88593e-15
4.9799e-15
6.42611e-15
6.27215e-15
6.56519e-15
6.60527e-15
6.54819e-15
6.34488e-15
6.3761e-15
6.6272e-15
6.73441e-15
6.5055e-15
6.34437e-15
6.24635e-15
6.26296e-15
6.10777e-15
5.95871e-15
5.95824e-15
6.09484e-15
6.32353e-15
6.83451e-15
5.8703e-15
6.52178e-15
6.40251e-15
6.46449e-15
6.80527e-15
6.89816e-15
6.5699e-15
6.5287e-15
6.51628e-15
6.46386e-15
6.47993e-15
6.48059e-15
6.33362e-15
6.30216e-15
6.11304e-15
5.93091e-15
5.98255e-15
6.02217e-15
6.33301e-15
5.17802e-15
7.71772e-15
6.54572e-15
6.76008e-15
6.51473e-15
6.86462e-15
7.00141e-15
6.96901e-15
6.79095e-15
6.60277e-15
6.50113e-15
6.43677e-15
6.32924e-15
6.34277e-15
6.36546e-15
6.179e-15
6.05854e-15
6.06577e-15
5.88378e-15
6.10839e-15
)
;

boundaryField
{
    movingWall
    {
        type            calculated;
        value           nonuniform List<scalar> 
20
(
5.17802e-15
7.71772e-15
6.54572e-15
6.76008e-15
6.51473e-15
6.86462e-15
7.00141e-15
6.96901e-15
6.79095e-15
6.60277e-15
6.50113e-15
6.43677e-15
6.32924e-15
6.34277e-15
6.36546e-15
6.179e-15
6.05854e-15
6.06577e-15
5.88378e-15
6.10839e-15
)
;
    }
    fixedWalls
    {
        type            calculated;
        value           nonuniform List<scalar> 
60
(
3.36637e-16
3.3493e-15
3.11792e-15
3.71107e-15
4.52553e-15
3.53243e-15
4.9896e-15
6.5641e-15
5.22392e-15
6.20368e-15
6.14676e-15
5.42541e-15
6.68979e-15
6.1874e-15
6.74787e-15
7.09762e-15
6.04157e-15
6.88593e-15
6.83451e-15
5.17802e-15
5.66898e-15
5.52586e-15
5.73467e-15
6.03248e-15
6.0326e-15
5.97041e-15
5.95528e-15
5.9548e-15
5.99322e-15
5.84083e-15
5.84623e-15
5.95691e-15
5.96324e-15
6.00047e-15
6.05569e-15
6.09127e-15
6.27037e-15
6.32353e-15
6.33301e-15
6.10839e-15
3.36637e-16
4.41049e-15
3.46623e-15
4.29246e-15
4.56634e-15
4.75157e-15
5.24892e-15
5.52817e-15
5.52838e-15
5.77323e-15
5.93954e-15
6.02054e-15
6.20275e-15
5.91909e-15
6.00528e-15
6.16705e-15
6.00525e-15
5.62656e-15
5.8121e-15
5.66898e-15
)
;
    }
    frontAndBack
    {
        type            empty;
    }
}


// ************************************************************************* //
