/*--------------------------------*- C++ -*----------------------------------*\
| =========                 |                                                 |
| \\      /  F ield         | OpenFOAM: The Open Source CFD Toolbox           |
|  \\    /   O peration     | Version:  2506                                  |
|   \\  /    A nd           | Website:  www.openfoam.com                      |
|    \\/     M anipulation  |                                                 |
\*---------------------------------------------------------------------------*/
FoamFile
{
    version     2.0;
    format      ascii;
    arch        "LSB;label=32;scalar=64";
    class       volScalarField;
    location    "10";
    object      magSqrP;
}
// * * * * * * * * * * * * * * * * * * * * * * * * * * * * * * * * * * * * * //

dimensions      [0 4 -4 0 0 0 0];

internalField   nonuniform List<scalar> 
400
(
1.13325e-31
1.94524e-29
1.20148e-29
1.84252e-29
2.08515e-29
2.25774e-29
2.75512e-29
3.05606e-29
3.0563e-29
3.33302e-29
3.52782e-29
3.62468e-29
3.84741e-29
3.50357e-29
3.60634e-29
3.80325e-29
3.6063e-29
3.16581e-29
3.37805e-29
3.21373e-29
1.12178e-29
0
1.35827e-29
1.54653e-29
2.16953e-29
2.33336e-29
2.87153e-29
2.93131e-29
3.11436e-29
3.43009e-29
3.62639e-29
3.66776e-29
3.72874e-29
3.58844e-29
3.45037e-29
3.57456e-29
3.83837e-29
3.41756e-29
3.27053e-29
3.05351e-29
9.72142e-30
2.80997e-29
1.43329e-29
1.85862e-29
2.09413e-29
2.51622e-29
2.70516e-29
2.99292e-29
3.18525e-29
3.66968e-29
3.63355e-29
3.40756e-29
3.64961e-29
3.78306e-29
3.52584e-29
3.30979e-29
3.69603e-29
3.4304e-29
3.18742e-29
3.28865e-29
1.37721e-29
1.57078e-29
1.79332e-29
2.11762e-29
2.31064e-29
2.68116e-29
2.94344e-29
3.09596e-29
3.1549e-29
3.50182e-29
3.69879e-29
3.50788e-29
3.52333e-29
3.57491e-29
3.48701e-29
3.37691e-29
3.44879e-29
3.36728e-29
3.34699e-29
3.63908e-29
2.04804e-29
5.64015e-30
2.19785e-29
2.27145e-29
2.41565e-29
2.76744e-29
3.16981e-29
3.13036e-29
3.29279e-29
3.46752e-29
3.49271e-29
3.40277e-29
3.33638e-29
3.2955e-29
3.33107e-29
3.28084e-29
3.36491e-29
3.31691e-29
3.39018e-29
3.63923e-29
1.24781e-29
5.17952e-29
2.58049e-29
2.75857e-29
2.74931e-29
2.97677e-29
3.12449e-29
3.19715e-29
3.3042e-29
3.5259e-29
3.42987e-29
3.33816e-29
3.17581e-29
3.21086e-29
3.27578e-29
3.18225e-29
3.19957e-29
3.24931e-29
3.50864e-29
3.56458e-29
2.48961e-29
3.95809e-29
2.62369e-29
2.73441e-29
2.82728e-29
3.04066e-29
3.16179e-29
3.2332e-29
3.42856e-29
3.56066e-29
3.68684e-29
3.4962e-29
3.06673e-29
3.07461e-29
3.18037e-29
3.12454e-29
3.08164e-29
3.31432e-29
3.5291e-29
3.54653e-29
4.30874e-29
2.28926e-30
2.87214e-29
2.61686e-29
2.88251e-29
3.16886e-29
3.1515e-29
3.10526e-29
3.54622e-29
3.4937e-29
3.77743e-29
3.84152e-29
3.25383e-29
3.13374e-29
3.13026e-29
3.19869e-29
3.22791e-29
3.29156e-29
3.49981e-29
3.54596e-29
2.72893e-29
8.88545e-29
3.14765e-29
3.15586e-29
2.8682e-29
3.13889e-29
3.24575e-29
3.22258e-29
3.46763e-29
3.63604e-29
3.58972e-29
3.72988e-29
3.39615e-29
3.15587e-29
3.19252e-29
3.407e-29
3.17309e-29
3.35383e-29
3.49467e-29
3.59186e-29
3.84857e-29
1.55115e-29
3.24779e-29
3.12616e-29
3.32669e-29
3.38658e-29
3.39335e-29
3.27687e-29
3.4837e-29
3.6823e-29
3.63384e-29
3.58745e-29
3.64418e-29
3.34112e-29
3.45383e-29
3.33516e-29
3.32611e-29
3.49297e-29
3.22978e-29
3.41153e-29
3.77827e-29
2.17328e-29
3.5812e-29
3.36246e-29
3.59087e-29
3.66345e-29
3.54477e-29
3.37797e-29
3.73526e-29
3.79949e-29
3.86785e-29
3.88245e-29
3.67405e-29
3.4107e-29
3.49984e-29
3.60766e-29
3.53151e-29
3.22055e-29
3.29591e-29
3.41784e-29
2.9435e-29
9.07404e-29
3.67094e-29
4.12635e-29
3.77962e-29
3.8108e-29
3.72304e-29
3.67354e-29
3.76012e-29
3.92423e-29
4.03893e-29
3.9907e-29
3.85217e-29
3.64823e-29
3.32115e-29
3.60735e-29
3.40805e-29
3.27063e-29
3.35109e-29
3.54848e-29
4.47533e-29
3.73882e-30
4.00494e-29
3.87602e-29
4.29603e-29
4.00192e-29
3.77472e-29
3.7754e-29
3.91421e-29
3.97288e-29
4.12712e-29
4.06288e-29
4.00258e-29
3.74787e-29
3.53894e-29
3.49481e-29
3.34282e-29
3.3218e-29
3.20357e-29
3.55603e-29
3.82839e-29
8.36628e-29
4.08762e-29
4.46645e-29
4.11316e-29
3.91651e-29
3.85221e-29
3.8339e-29
3.79352e-29
3.90845e-29
4.29418e-29
4.18649e-29
3.99338e-29
3.83628e-29
3.7161e-29
3.57824e-29
3.47064e-29
3.11587e-29
3.26054e-29
3.60056e-29
4.55337e-29
3.30927e-29
4.25791e-29
4.25128e-29
4.28334e-29
3.99043e-29
3.88535e-29
3.84898e-29
3.98119e-29
3.92251e-29
4.29552e-29
4.1735e-29
3.93549e-29
3.93852e-29
3.72372e-29
3.46006e-29
3.25501e-29
3.2828e-29
3.36745e-29
3.66714e-29
5.03761e-29
1.94689e-29
4.28813e-29
4.10525e-29
4.316e-29
4.22712e-29
4.09862e-29
3.83351e-29
3.93215e-29
4.08263e-29
4.51385e-29
4.24717e-29
3.96148e-29
3.89023e-29
3.84197e-29
3.69261e-29
3.35772e-29
3.28231e-29
3.53766e-29
3.71036e-29
3.65005e-29
8.39439e-29
4.24911e-29
4.51042e-29
4.45071e-29
4.04401e-29
4.04965e-29
3.85137e-29
3.96678e-29
4.20778e-29
4.66067e-29
4.30877e-29
3.85741e-29
3.92534e-29
3.99613e-29
3.50602e-29
3.30888e-29
3.48084e-29
3.75022e-29
3.93176e-29
4.7416e-29
2.47994e-29
4.1295e-29
3.93399e-29
4.31018e-29
4.36297e-29
4.28788e-29
4.02576e-29
4.06547e-29
4.39198e-29
4.53523e-29
4.23215e-29
4.02511e-29
3.90169e-29
3.92246e-29
3.73048e-29
3.55062e-29
3.55006e-29
3.71471e-29
3.99871e-29
4.67106e-29
3.44604e-29
4.25335e-29
4.09922e-29
4.17896e-29
4.63117e-29
4.75846e-29
4.31635e-29
4.2624e-29
4.24619e-29
4.17814e-29
4.19894e-29
4.1998e-29
4.01148e-29
3.97172e-29
3.73693e-29
3.51757e-29
3.57909e-29
3.62665e-29
4.0107e-29
2.68119e-29
5.95632e-29
4.28465e-29
4.56987e-29
4.24418e-29
4.7123e-29
4.90197e-29
4.85671e-29
4.6117e-29
4.35966e-29
4.22646e-29
4.1432e-29
4.00593e-29
4.02308e-29
4.05191e-29
3.81801e-29
3.67059e-29
3.67936e-29
3.46188e-29
3.73124e-29
)
;

boundaryField
{
    movingWall
    {
        type            calculated;
        value           nonuniform List<scalar> 
20
(
2.68119e-29
5.95632e-29
4.28465e-29
4.56987e-29
4.24418e-29
4.7123e-29
4.90197e-29
4.85671e-29
4.6117e-29
4.35966e-29
4.22646e-29
4.1432e-29
4.00593e-29
4.02308e-29
4.05191e-29
3.81801e-29
3.67059e-29
3.67936e-29
3.46188e-29
3.73124e-29
)
;
    }
    fixedWalls
    {
        type            calculated;
        value           nonuniform List<scalar> 
60
(
1.13325e-31
1.12178e-29
9.72142e-30
1.37721e-29
2.04804e-29
1.24781e-29
2.48961e-29
4.30874e-29
2.72893e-29
3.84857e-29
3.77827e-29
2.9435e-29
4.47533e-29
3.82839e-29
4.55337e-29
5.03761e-29
3.65005e-29
4.7416e-29
4.67106e-29
2.68119e-29
3.21373e-29
3.05351e-29
3.28865e-29
3.63908e-29
3.63923e-29
3.56458e-29
3.54653e-29
3.54596e-29
3.59186e-29
3.41153e-29
3.41784e-29
3.54848e-29
3.55603e-29
3.60056e-29
3.66714e-29
3.71036e-29
3.93176e-29
3.99871e-29
4.0107e-29
3.73124e-29
1.13325e-31
1.94524e-29
1.20148e-29
1.84252e-29
2.08515e-29
2.25774e-29
2.75512e-29
3.05606e-29
3.0563e-29
3.33302e-29
3.52782e-29
3.62468e-29
3.84741e-29
3.50357e-29
3.60634e-29
3.80325e-29
3.6063e-29
3.16581e-29
3.37805e-29
3.21373e-29
)
;
    }
    frontAndBack
    {
        type            empty;
    }
}


// ************************************************************************* //
