/*--------------------------------*- C++ -*----------------------------------*\
| =========                 |                                                 |
| \\      /  F ield         | OpenFOAM: The Open Source CFD Toolbox           |
|  \\    /   O peration     | Version:  2506                                  |
|   \\  /    A nd           | Website:  www.openfoam.com                      |
|    \\/     M anipulation  |                                                 |
\*---------------------------------------------------------------------------*/
FoamFile
{
    version     2.0;
    format      ascii;
    arch        "LSB;label=32;scalar=64";
    class       volVectorField;
    location    "10";
    object      momentum1:momentum;
}
// * * * * * * * * * * * * * * * * * * * * * * * * * * * * * * * * * * * * * //

dimensions      [1 1 -1 0 0 0 0];

internalField   nonuniform List<vector> 
400
(
(-2.5e-07 4.91403e-20 0)
(-2.5e-07 -1.07551e-20 0)
(-2.5e-07 2.48745e-21 0)
(-2.5e-07 -5.59019e-22 0)
(-2.5e-07 1.24182e-22 0)
(-2.5e-07 -1.12003e-23 0)
(-2.5e-07 5.34139e-23 0)
(-2.5e-07 5.6287e-23 0)
(-2.5e-07 3.23426e-23 0)
(-2.5e-07 2.71769e-23 0)
(-2.5e-07 3.12396e-23 0)
(-2.5e-07 2.83145e-23 0)
(-2.5e-07 1.55544e-23 0)
(-2.5e-07 -1.97091e-23 0)
(-2.5e-07 -6.24732e-24 0)
(-2.5e-07 8.08797e-24 0)
(-2.5e-07 -1.57243e-23 0)
(-2.5e-07 -1.10975e-23 0)
(-2.5e-07 5.44934e-24 0)
(-2.5e-07 1.1054e-23 0)
(-2.5e-07 -2.35118e-21 0)
(-2.5e-07 4.67065e-22 0)
(-2.5e-07 -1.02362e-22 0)
(-2.5e-07 3.98102e-23 0)
(-2.5e-07 2.46499e-23 0)
(-2.5e-07 3.31048e-23 0)
(-2.5e-07 5.79049e-23 0)
(-2.5e-07 4.57071e-23 0)
(-2.5e-07 1.63512e-23 0)
(-2.5e-07 4.53667e-24 0)
(-2.5e-07 2.09073e-23 0)
(-2.5e-07 2.10629e-23 0)
(-2.5e-07 -7.95272e-24 0)
(-2.5e-07 -3.56089e-23 0)
(-2.5e-07 9.59229e-25 0)
(-2.5e-07 3.97127e-23 0)
(-2.5e-07 -7.64434e-24 0)
(-2.5e-07 -2.97538e-23 0)
(-2.5e-07 -1.79061e-23 0)
(-2.5e-07 -6.05238e-24 0)
(-2.5e-07 -4.1411e-20 0)
(-2.5e-07 9.15829e-21 0)
(-2.5e-07 -2.15038e-21 0)
(-2.5e-07 4.82678e-22 0)
(-2.5e-07 -9.39567e-23 0)
(-2.5e-07 3.64189e-23 0)
(-2.5e-07 1.63068e-23 0)
(-2.5e-07 2.09915e-23 0)
(-2.5e-07 1.34709e-23 0)
(-2.5e-07 -8.37026e-24 0)
(-2.5e-07 -1.98432e-23 0)
(-2.5e-07 -1.17373e-23 0)
(-2.5e-07 -1.27078e-23 0)
(-2.5e-07 -1.34175e-23 0)
(-2.5e-07 -8.68809e-24 0)
(-2.5e-07 1.75622e-23 0)
(-2.5e-07 7.41517e-24 0)
(-2.5e-07 -4.74596e-23 0)
(-2.5e-07 -5.78853e-23 0)
(-2.5e-07 -3.61093e-23 0)
(-2.5e-07 3.97061e-20 0)
(-2.5e-07 -8.81152e-21 0)
(-2.5e-07 1.98282e-21 0)
(-2.5e-07 -4.79234e-22 0)
(-2.5e-07 1.09878e-22 0)
(-2.5e-07 -1.19697e-23 0)
(-2.5e-07 9.10734e-24 0)
(-2.5e-07 2.28013e-23 0)
(-2.5e-07 1.61459e-23 0)
(-2.5e-07 1.08213e-23 0)
(-2.5e-07 5.55013e-24 0)
(-2.5e-07 6.89369e-24 0)
(-2.5e-07 2.00329e-23 0)
(-2.5e-07 5.22887e-24 0)
(-2.5e-07 -1.65958e-23 0)
(-2.5e-07 -1.21618e-23 0)
(-2.5e-07 4.60431e-24 0)
(-2.5e-07 -2.96482e-23 0)
(-2.5e-07 -3.32087e-23 0)
(-2.5e-07 -1.90702e-23 0)
(-2.5e-07 -6.56347e-21 0)
(-2.5e-07 1.11196e-21 0)
(-2.5e-07 -3.07686e-22 0)
(-2.5e-07 6.13218e-23 0)
(-2.5e-07 4.77127e-25 0)
(-2.5e-07 1.44865e-25 0)
(-2.5e-07 -1.25437e-23 0)
(-2.5e-07 -1.00512e-23 0)
(-2.5e-07 -1.07581e-23 0)
(-2.5e-07 -1.66766e-24 0)
(-2.5e-07 1.76972e-23 0)
(-2.5e-07 3.08354e-24 0)
(-2.5e-07 4.84689e-24 0)
(-2.5e-07 2.14427e-24 0)
(-2.5e-07 1.13913e-23 0)
(-2.5e-07 2.47755e-23 0)
(-2.5e-07 2.44468e-23 0)
(-2.5e-07 4.09517e-24 0)
(-2.5e-07 -1.30267e-23 0)
(-2.5e-07 5.06997e-26 0)
(-2.5e-07 -3.31124e-20 0)
(-2.5e-07 7.35811e-21 0)
(-2.5e-07 -1.68097e-21 0)
(-2.5e-07 4.14827e-22 0)
(-2.5e-07 -8.80567e-23 0)
(-2.5e-07 -1.38052e-24 0)
(-2.5e-07 -2.37162e-23 0)
(-2.5e-07 -1.4015e-23 0)
(-2.5e-07 -2.0007e-23 0)
(-2.5e-07 -1.62942e-23 0)
(-2.5e-07 -1.82734e-23 0)
(-2.5e-07 7.36199e-24 0)
(-2.5e-07 3.83175e-23 0)
(-2.5e-07 2.38542e-23 0)
(-2.5e-07 1.38781e-23 0)
(-2.5e-07 2.96473e-23 0)
(-2.5e-07 3.10446e-23 0)
(-2.5e-07 6.46929e-24 0)
(-2.5e-07 -1.69142e-23 0)
(-2.5e-07 -1.50591e-24 0)
(-2.5e-07 4.90343e-20 0)
(-2.5e-07 -1.05326e-20 0)
(-2.5e-07 2.55745e-21 0)
(-2.5e-07 -4.89116e-22 0)
(-2.5e-07 1.74853e-22 0)
(-2.5e-07 -7.65793e-24 0)
(-2.5e-07 2.33612e-23 0)
(-2.5e-07 9.81014e-24 0)
(-2.5e-07 -1.45729e-23 0)
(-2.5e-07 -1.10836e-24 0)
(-2.5e-07 -3.59707e-24 0)
(-2.5e-07 6.38963e-24 0)
(-2.5e-07 3.21323e-23 0)
(-2.5e-07 3.25875e-23 0)
(-2.5e-07 2.84584e-23 0)
(-2.5e-07 8.94876e-24 0)
(-2.5e-07 7.59003e-24 0)
(-2.5e-07 1.20925e-23 0)
(-2.5e-07 8.98667e-24 0)
(-2.5e-07 2.42053e-27 0)
(-2.5e-07 -2.11139e-20 0)
(-2.5e-07 4.54929e-21 0)
(-2.5e-07 -1.06286e-21 0)
(-2.5e-07 2.68022e-22 0)
(-2.5e-07 -1.5844e-23 0)
(-2.5e-07 4.07132e-23 0)
(-2.5e-07 1.82746e-23 0)
(-2.5e-07 -1.20464e-23 0)
(-2.5e-07 -2.5045e-23 0)
(-2.5e-07 -1.4053e-23 0)
(-2.5e-07 1.56151e-23 0)
(-2.5e-07 -6.73747e-24 0)
(-2.5e-07 -3.47572e-23 0)
(-2.5e-07 -1.82175e-23 0)
(-2.5e-07 6.15743e-24 0)
(-2.5e-07 2.46381e-24 0)
(-2.5e-07 2.34951e-23 0)
(-2.5e-07 2.15703e-23 0)
(-2.5e-07 1.39104e-23 0)
(-2.5e-07 -7.46469e-25 0)
(-2.5e-07 -1.99991e-20 0)
(-2.5e-07 4.38864e-21 0)
(-2.5e-07 -1.02323e-21 0)
(-2.5e-07 2.3579e-22 0)
(-2.5e-07 -4.53688e-23 0)
(-2.5e-07 5.47416e-23 0)
(-2.5e-07 4.20837e-23 0)
(-2.5e-07 2.87176e-23 0)
(-2.5e-07 1.65176e-23 0)
(-2.5e-07 -8.80954e-24 0)
(-2.5e-07 -1.65311e-23 0)
(-2.5e-07 -2.07338e-23 0)
(-2.5e-07 -5.48666e-23 0)
(-2.5e-07 -4.65176e-23 0)
(-2.5e-07 -4.00136e-23 0)
(-2.5e-07 -9.27262e-25 0)
(-2.5e-07 6.45953e-24 0)
(-2.5e-07 7.94338e-24 0)
(-2.5e-07 2.71386e-23 0)
(-2.5e-07 1.37066e-23 0)
(-2.5e-07 4.61432e-20 0)
(-2.5e-07 -1.00513e-20 0)
(-2.5e-07 2.37212e-21 0)
(-2.5e-07 -5.38643e-22 0)
(-2.5e-07 1.01698e-22 0)
(-2.5e-07 -9.52885e-24 0)
(-2.5e-07 5.3606e-23 0)
(-2.5e-07 5.40227e-23 0)
(-2.5e-07 4.53355e-23 0)
(-2.5e-07 3.53315e-23 0)
(-2.5e-07 8.64214e-24 0)
(-2.5e-07 2.31081e-24 0)
(-2.5e-07 -7.97485e-24 0)
(-2.5e-07 -2.11995e-23 0)
(-2.5e-07 -4.04485e-23 0)
(-2.5e-07 -3.97534e-23 0)
(-2.5e-07 -4.1005e-23 0)
(-2.5e-07 8.361e-24 0)
(-2.5e-07 2.17674e-23 0)
(-2.5e-07 1.45075e-23 0)
(-2.5e-07 -4.93439e-20 0)
(-2.5e-07 1.07743e-20 0)
(-2.5e-07 -2.56886e-21 0)
(-2.5e-07 5.39947e-22 0)
(-2.5e-07 -1.18719e-22 0)
(-2.5e-07 2.3304e-23 0)
(-2.5e-07 -4.20523e-23 0)
(-2.5e-07 -6.00405e-23 0)
(-2.5e-07 -3.61282e-23 0)
(-2.5e-07 -1.40331e-23 0)
(-2.5e-07 -5.09249e-25 0)
(-2.5e-07 3.44286e-24 0)
(-2.5e-07 -2.88378e-24 0)
(-2.5e-07 -2.32156e-23 0)
(-2.5e-07 -1.85727e-23 0)
(-2.5e-07 -3.46126e-23 0)
(-2.5e-07 3.83702e-24 0)
(-2.5e-07 2.25497e-23 0)
(-2.5e-07 -4.55097e-24 0)
(-2.5e-07 -6.47671e-24 0)
(-2.5e-07 2.90745e-20 0)
(-2.5e-07 -6.40369e-21 0)
(-2.5e-07 1.47617e-21 0)
(-2.5e-07 -3.53438e-22 0)
(-2.5e-07 7.03761e-23 0)
(-2.5e-07 -8.44817e-25 0)
(-2.5e-07 -3.76975e-24 0)
(-2.5e-07 -3.32858e-23 0)
(-2.5e-07 -2.01566e-23 0)
(-2.5e-07 -6.71535e-24 0)
(-2.5e-07 1.22299e-23 0)
(-2.5e-07 1.70125e-23 0)
(-2.5e-07 -5.64247e-24 0)
(-2.5e-07 -2.56409e-23 0)
(-2.5e-07 -4.04522e-24 0)
(-2.5e-07 1.4798e-23 0)
(-2.5e-07 2.57624e-23 0)
(-2.5e-07 1.35165e-24 0)
(-2.5e-07 9.1814e-24 0)
(-2.5e-07 2.29126e-24 0)
(-2.5e-07 5.12574e-21 0)
(-2.5e-07 -1.01148e-21 0)
(-2.5e-07 2.60696e-22 0)
(-2.5e-07 -7.34513e-23 0)
(-2.5e-07 -2.40355e-23 0)
(-2.5e-07 -3.22558e-23 0)
(-2.5e-07 -3.33985e-23 0)
(-2.5e-07 -2.31193e-23 0)
(-2.5e-07 -2.00491e-23 0)
(-2.5e-07 -2.4353e-23 0)
(-2.5e-07 -2.43504e-23 0)
(-2.5e-07 5.65435e-24 0)
(-2.5e-07 1.44936e-23 0)
(-2.5e-07 -1.92504e-24 0)
(-2.5e-07 -1.27061e-23 0)
(-2.5e-07 -8.41643e-25 0)
(-2.5e-07 -6.03595e-24 0)
(-2.5e-07 -5.81476e-24 0)
(-2.5e-07 1.65365e-24 0)
(-2.5e-07 -1.18382e-24 0)
(-2.5e-07 -3.56113e-20 0)
(-2.5e-07 7.92143e-21 0)
(-2.5e-07 -1.77697e-21 0)
(-2.5e-07 4.57789e-22 0)
(-2.5e-07 -8.7814e-23 0)
(-2.5e-07 -2.18833e-23 0)
(-2.5e-07 -5.95346e-23 0)
(-2.5e-07 -2.8734e-23 0)
(-2.5e-07 -6.15952e-25 0)
(-2.5e-07 1.73975e-23 0)
(-2.5e-07 -3.59827e-24 0)
(-2.5e-07 8.59377e-25 0)
(-2.5e-07 2.52514e-24 0)
(-2.5e-07 -1.8431e-24 0)
(-2.5e-07 3.43233e-24 0)
(-2.5e-07 1.17486e-23 0)
(-2.5e-07 6.93517e-24 0)
(-2.5e-07 -6.03737e-24 0)
(-2.5e-07 -1.5975e-23 0)
(-2.5e-07 -9.75658e-24 0)
(-2.5e-07 4.80148e-20 0)
(-2.5e-07 -1.05472e-20 0)
(-2.5e-07 2.49173e-21 0)
(-2.5e-07 -5.38358e-22 0)
(-2.5e-07 1.07947e-22 0)
(-2.5e-07 -6.54956e-23 0)
(-2.5e-07 -1.53827e-23 0)
(-2.5e-07 1.0322e-23 0)
(-2.5e-07 3.57129e-23 0)
(-2.5e-07 4.99173e-23 0)
(-2.5e-07 3.21998e-23 0)
(-2.5e-07 4.04382e-24 0)
(-2.5e-07 -1.19084e-23 0)
(-2.5e-07 -6.00777e-24 0)
(-2.5e-07 9.14602e-24 0)
(-2.5e-07 1.88808e-23 0)
(-2.5e-07 1.29233e-23 0)
(-2.5e-07 -1.16217e-23 0)
(-2.5e-07 -1.5947e-23 0)
(-2.5e-07 -3.29478e-24 0)
(-2.5e-07 -2.85629e-20 0)
(-2.5e-07 6.16484e-21 0)
(-2.5e-07 -1.51448e-21 0)
(-2.5e-07 2.83905e-22 0)
(-2.5e-07 -7.62491e-23 0)
(-2.5e-07 4.33431e-23 0)
(-2.5e-07 3.14782e-23 0)
(-2.5e-07 3.36847e-23 0)
(-2.5e-07 9.53008e-24 0)
(-2.5e-07 -2.66778e-23 0)
(-2.5e-07 -2.68786e-23 0)
(-2.5e-07 -1.30917e-23 0)
(-2.5e-07 8.91838e-24 0)
(-2.5e-07 3.74305e-24 0)
(-2.5e-07 -1.21808e-23 0)
(-2.5e-07 -1.14284e-23 0)
(-2.5e-07 -2.07796e-23 0)
(-2.5e-07 -2.97129e-23 0)
(-2.5e-07 -2.82517e-23 0)
(-2.5e-07 -1.32807e-23 0)
(-2.5e-07 -7.47758e-21 0)
(-2.5e-07 1.70216e-21 0)
(-2.5e-07 -4.15798e-22 0)
(-2.5e-07 9.62315e-23 0)
(-2.5e-07 -3.65141e-23 0)
(-2.5e-07 9.60101e-25 0)
(-2.5e-07 7.06863e-24 0)
(-2.5e-07 1.29638e-23 0)
(-2.5e-07 -4.06692e-25 0)
(-2.5e-07 -1.91774e-23 0)
(-2.5e-07 -7.12813e-25 0)
(-2.5e-07 3.95018e-25 0)
(-2.5e-07 3.68976e-24 0)
(-2.5e-07 2.96507e-24 0)
(-2.5e-07 -2.47814e-23 0)
(-2.5e-07 -4.86696e-23 0)
(-2.5e-07 -5.16724e-23 0)
(-2.5e-07 -2.23711e-23 0)
(-2.5e-07 -1.17056e-23 0)
(-2.5e-07 -1.54274e-23 0)
(-2.5e-07 3.71001e-20 0)
(-2.5e-07 -8.20554e-21 0)
(-2.5e-07 1.94485e-21 0)
(-2.5e-07 -4.49325e-22 0)
(-2.5e-07 6.41655e-23 0)
(-2.5e-07 -7.61833e-23 0)
(-2.5e-07 -3.02609e-23 0)
(-2.5e-07 -7.74719e-24 0)
(-2.5e-07 1.29827e-23 0)
(-2.5e-07 3.72807e-23 0)
(-2.5e-07 2.07451e-23 0)
(-2.5e-07 -4.32386e-23 0)
(-2.5e-07 -5.76593e-23 0)
(-2.5e-07 -7.03659e-24 0)
(-2.5e-07 -1.92249e-24 0)
(-2.5e-07 -3.03483e-23 0)
(-2.5e-07 -2.17137e-23 0)
(-2.5e-07 8.24885e-24 0)
(-2.5e-07 7.76894e-24 0)
(-2.5e-07 -6.28958e-24 0)
(-2.5e-07 -1.77798e-20 0)
(-2.5e-07 3.7734e-21 0)
(-2.5e-07 -8.9875e-22 0)
(-2.5e-07 1.59382e-22 0)
(-2.5e-07 -4.07715e-23 0)
(-2.5e-07 7.84206e-24 0)
(-2.5e-07 -8.36738e-24 0)
(-2.5e-07 -4.17985e-23 0)
(-2.5e-07 -3.50126e-23 0)
(-2.5e-07 5.20846e-24 0)
(-2.5e-07 6.10419e-24 0)
(-2.5e-07 -5.97369e-24 0)
(-2.5e-07 -5.7119e-24 0)
(-2.5e-07 -8.36508e-24 0)
(-2.5e-07 -1.77069e-23 0)
(-2.5e-07 -2.4954e-23 0)
(-2.5e-07 -1.90642e-23 0)
(-2.5e-07 -2.09391e-23 0)
(-2.5e-07 1.00021e-23 0)
(-2.5e-07 1.33445e-23 0)
(-2.5e-07 -2.14875e-20 0)
(-2.5e-07 4.81652e-21 0)
(-2.5e-07 -1.14334e-21 0)
(-2.5e-07 2.55893e-22 0)
(-2.5e-07 -5.09409e-23 0)
(-2.5e-07 1.08945e-23 0)
(-2.5e-07 -2.19016e-23 0)
(-2.5e-07 -5.54188e-23 0)
(-2.5e-07 -5.21905e-23 0)
(-2.5e-07 -3.60736e-23 0)
(-2.5e-07 -1.25363e-23 0)
(-2.5e-07 2.11263e-23 0)
(-2.5e-07 2.69536e-23 0)
(-2.5e-07 -4.92637e-24 0)
(-2.5e-07 -2.88778e-23 0)
(-2.5e-07 -3.60171e-23 0)
(-2.5e-07 -3.04966e-23 0)
(-2.5e-07 -2.35224e-23 0)
(-2.5e-07 9.61159e-24 0)
(-2.5e-07 1.54688e-23 0)
)
;

boundaryField
{
    movingWall
    {
        type            calculated;
        value           uniform (0 0 0);
    }
    fixedWalls
    {
        type            calculated;
        value           uniform (0 0 0);
    }
    frontAndBack
    {
        type            empty;
    }
}


// ************************************************************************* //
