/*--------------------------------*- C++ -*----------------------------------*\
| =========                 |                                                 |
| \\      /  F ield         | OpenFOAM: The Open Source CFD Toolbox           |
|  \\    /   O peration     | Version:  2506                                  |
|   \\  /    A nd           | Website:  www.openfoam.com                      |
|    \\/     M anipulation  |                                                 |
\*---------------------------------------------------------------------------*/
FoamFile
{
    version     2.0;
    format      ascii;
    arch        "LSB;label=32;scalar=64";
    class       volScalarField;
    location    "10";
    object      norm_k_field;
}
// * * * * * * * * * * * * * * * * * * * * * * * * * * * * * * * * * * * * * //

dimensions      [0 0 0 0 0 0 0];

internalField   nonuniform List<scalar> 
400
(
1.77205e+09
4.37777e+08
5.30332e+08
4.4754e+08
4.25519e+08
4.11815e+08
3.79039e+08
3.62826e+08
3.62814e+08
3.49698e+08
3.41317e+08
3.3738e+08
3.28844e+08
3.42326e+08
3.38114e+08
3.30482e+08
3.38116e+08
3.57438e+08
3.47703e+08
3.55165e+08
5.50718e+08
2.39524e+09
5.11196e+08
4.85581e+08
4.23335e+08
4.10793e+08
3.7667e+08
3.73406e+08
3.63959e+08
3.49301e+08
3.41081e+08
3.39422e+08
3.37027e+08
3.42616e+08
3.48417e+08
3.43184e+08
3.32849e+08
3.49838e+08
3.56458e+08
3.67e+08
5.92309e+08
3.87099e+08
5.09631e+08
4.59224e+08
4.37394e+08
4.054e+08
3.93307e+08
3.76915e+08
3.67095e+08
3.4556e+08
3.47028e+08
3.56693e+08
3.46369e+08
3.41066e+08
3.51524e+08
3.61144e+08
3.44491e+08
3.55671e+08
3.66976e+08
3.62128e+08
5.28098e+08
5.0126e+08
4.75258e+08
4.44117e+08
4.28423e+08
4.02686e+08
3.8718e+08
3.78991e+08
3.75969e+08
3.5962e+08
3.51282e+08
3.5935e+08
3.58673e+08
3.56447e+08
3.60264e+08
3.65233e+08
3.61963e+08
3.65677e+08
3.6662e+08
3.53735e+08
4.58213e+08
7.50205e+08
4.45106e+08
4.39092e+08
4.2803e+08
4.04389e+08
3.81853e+08
3.83883e+08
3.75716e+08
3.67516e+08
3.6638e+08
3.70482e+08
3.73608e+08
3.75573e+08
3.73859e+08
3.76285e+08
3.7225e+08
3.74535e+08
3.71062e+08
3.59978e+08
5.66192e+08
3.13073e+08
4.22078e+08
4.10439e+08
4.11014e+08
3.97476e+08
3.89406e+08
3.85621e+08
3.80254e+08
3.69853e+08
3.74244e+08
3.78593e+08
3.86709e+08
3.84907e+08
3.81643e+08
3.8637e+08
3.85481e+08
3.8296e+08
3.70619e+08
3.68118e+08
4.3252e+08
3.55301e+08
4.23143e+08
4.15875e+08
4.10072e+08
3.97667e+08
3.91133e+08
3.87436e+08
3.77867e+08
3.71804e+08
3.66291e+08
3.74718e+08
3.96213e+08
3.95781e+08
3.90142e+08
3.93085e+08
3.95395e+08
3.83354e+08
3.73212e+08
3.72426e+08
3.44652e+08
1.03739e+09
4.09944e+08
4.26278e+08
4.09313e+08
3.93235e+08
3.94149e+08
3.96624e+08
3.74807e+08
3.77205e+08
3.64781e+08
3.62148e+08
3.88817e+08
3.95077e+08
3.95262e+08
3.91649e+08
3.90137e+08
3.86909e+08
3.76911e+08
3.74804e+08
4.20609e+08
2.5108e+08
3.96008e+08
3.95569e+08
4.1188e+08
3.96466e+08
3.90864e+08
3.92053e+08
3.79992e+08
3.72351e+08
3.74402e+08
3.68296e+08
3.83378e+08
3.95538e+08
3.93602e+08
3.82852e+08
3.94623e+08
3.85429e+08
3.78717e+08
3.74296e+08
3.64443e+08
5.3161e+08
3.91894e+08
3.98297e+08
3.87902e+08
3.84959e+08
3.84627e+08
3.90392e+08
3.80328e+08
3.71397e+08
3.73513e+08
3.75573e+08
3.73054e+08
3.87162e+08
3.81718e+08
3.87455e+08
3.87903e+08
3.79881e+08
3.92785e+08
3.83729e+08
3.68145e+08
4.64697e+08
3.76699e+08
3.86983e+08
3.76257e+08
3.73039e+08
3.78338e+08
3.86208e+08
3.69933e+08
3.67227e+08
3.64418e+08
3.63824e+08
3.72558e+08
3.84608e+08
3.80391e+08
3.75479e+08
3.78925e+08
3.94118e+08
3.90259e+08
3.8426e+08
4.10241e+08
2.50429e+08
3.7342e+08
3.55066e+08
3.68762e+08
3.67457e+08
3.71153e+08
3.73288e+08
3.6957e+08
3.62831e+08
3.58347e+08
3.60207e+08
3.65735e+08
3.74383e+08
3.89724e+08
3.76195e+08
3.85452e+08
3.92273e+08
3.88233e+08
3.78854e+08
3.43403e+08
9.00156e+08
3.60327e+08
3.65445e+08
3.49542e+08
3.60434e+08
3.69622e+08
3.69591e+08
3.63887e+08
3.61557e+08
3.55653e+08
3.58071e+08
3.6039e+08
3.70742e+08
3.79975e+08
3.8202e+08
3.89341e+08
3.90388e+08
3.96454e+08
3.7919e+08
3.68084e+08
2.60731e+08
3.57819e+08
3.44324e+08
3.56848e+08
3.64476e+08
3.6708e+08
3.67831e+08
3.69508e+08
3.64787e+08
3.50236e+08
3.5411e+08
3.61413e+08
3.6772e+08
3.72785e+08
3.78879e+08
3.83861e+08
4.01894e+08
3.9422e+08
3.77869e+08
3.4212e+08
3.92543e+08
3.52231e+08
3.52467e+08
3.51316e+08
3.62247e+08
3.66437e+08
3.67921e+08
3.62601e+08
3.64928e+08
3.50867e+08
3.55274e+08
3.64403e+08
3.6428e+08
3.7318e+08
3.85107e+08
3.9527e+08
3.93842e+08
3.89592e+08
3.75638e+08
3.27999e+08
4.90731e+08
3.51858e+08
3.5856e+08
3.50863e+08
3.54039e+08
3.588e+08
3.69299e+08
3.65277e+08
3.59397e+08
3.44079e+08
3.53298e+08
3.64099e+08
3.66956e+08
3.68935e+08
3.75276e+08
3.90857e+08
3.94657e+08
3.82235e+08
3.74502e+08
3.77934e+08
2.6188e+08
3.53951e+08
3.44892e+08
3.46892e+08
3.61602e+08
3.61379e+08
3.69288e+08
3.64614e+08
3.55432e+08
3.39982e+08
3.51792e+08
3.69026e+08
3.6626e+08
3.63444e+08
3.84466e+08
3.94081e+08
3.85651e+08
3.73523e+08
3.65997e+08
3.38065e+08
4.4582e+08
3.5899e+08
3.66588e+08
3.52383e+08
3.50523e+08
3.53169e+08
3.62943e+08
3.61404e+08
3.49503e+08
3.44656e+08
3.55166e+08
3.62956e+08
3.67865e+08
3.67022e+08
3.75034e+08
3.83066e+08
3.83092e+08
3.75715e+08
3.63983e+08
3.40742e+08
3.88564e+08
3.54903e+08
3.60618e+08
3.57619e+08
3.42003e+08
3.37977e+08
3.52631e+08
3.54557e+08
3.55141e+08
3.57633e+08
3.56862e+08
3.56829e+08
3.63978e+08
3.65545e+08
3.75263e+08
3.85123e+08
3.82274e+08
3.80117e+08
3.64004e+08
4.32374e+08
3.06412e+08
3.54004e+08
3.44225e+08
3.55463e+08
3.39649e+08
3.33843e+08
3.352e+08
3.42861e+08
3.51347e+08
3.56108e+08
3.5919e+08
3.6446e+08
3.63788e+08
3.62667e+08
3.72087e+08
3.78437e+08
3.7805e+08
3.88044e+08
3.75783e+08
)
;

boundaryField
{
    movingWall
    {
        type            calculated;
        value           nonuniform List<scalar> 
20
(
4.32374e+08
3.06412e+08
3.54004e+08
3.44225e+08
3.55463e+08
3.39649e+08
3.33843e+08
3.352e+08
3.42861e+08
3.51347e+08
3.56108e+08
3.5919e+08
3.6446e+08
3.63788e+08
3.62667e+08
3.72087e+08
3.78437e+08
3.7805e+08
3.88044e+08
3.75783e+08
)
;
    }
    fixedWalls
    {
        type            calculated;
        value           nonuniform List<scalar> 
60
(
1.77205e+09
5.50718e+08
5.92309e+08
5.28098e+08
4.58213e+08
5.66192e+08
4.3252e+08
3.44652e+08
4.20609e+08
3.64443e+08
3.68145e+08
4.10241e+08
3.43403e+08
3.68084e+08
3.4212e+08
3.27999e+08
3.77934e+08
3.38065e+08
3.40742e+08
4.32374e+08
3.55165e+08
3.67e+08
3.62128e+08
3.53735e+08
3.59978e+08
3.68118e+08
3.72426e+08
3.74804e+08
3.74296e+08
3.83729e+08
3.8426e+08
3.78854e+08
3.7919e+08
3.77869e+08
3.75638e+08
3.74502e+08
3.65997e+08
3.63983e+08
3.64004e+08
3.75783e+08
1.77205e+09
4.37777e+08
5.30332e+08
4.4754e+08
4.25519e+08
4.11815e+08
3.79039e+08
3.62826e+08
3.62814e+08
3.49698e+08
3.41317e+08
3.3738e+08
3.28844e+08
3.42326e+08
3.38114e+08
3.30482e+08
3.38116e+08
3.57438e+08
3.47703e+08
3.55165e+08
)
;
    }
    frontAndBack
    {
        type            empty;
    }
}


// ************************************************************************* //
