/*--------------------------------*- C++ -*----------------------------------*\
| =========                 |                                                 |
| \\      /  F ield         | OpenFOAM: The Open Source CFD Toolbox           |
|  \\    /   O peration     | Version:  2506                                  |
|   \\  /    A nd           | Website:  www.openfoam.com                      |
|    \\/     M anipulation  |                                                 |
\*---------------------------------------------------------------------------*/
FoamFile
{
    version     2.0;
    format      ascii;
    arch        "LSB;label=32;scalar=64";
    class       volScalarField;
    location    "10";
    object      P_A;
}
// * * * * * * * * * * * * * * * * * * * * * * * * * * * * * * * * * * * * * //

dimensions      [1 -1 -3 0 0 0 0];

internalField   nonuniform List<scalar> 
400
(
6.29339e-34
6.29338e-34
6.29338e-34
6.29338e-34
6.29337e-34
6.29337e-34
6.29336e-34
6.29336e-34
6.29336e-34
6.29336e-34
6.29336e-34
6.29335e-34
6.29335e-34
6.29335e-34
6.29335e-34
6.29335e-34
6.29335e-34
6.29335e-34
6.29335e-34
6.29335e-34
6.58159e-34
6.52102e-34
6.52589e-34
6.52793e-34
6.53207e-34
6.53406e-34
6.53832e-34
6.54032e-34
6.54465e-34
6.54669e-34
6.55106e-34
6.55317e-34
6.55757e-34
6.55976e-34
6.56416e-34
6.56645e-34
6.57084e-34
6.57325e-34
6.57543e-34
6.57886e-34
7.0771e-34
7.01021e-34
7.0157e-34
7.01797e-34
7.02256e-34
7.02485e-34
7.0295e-34
7.0318e-34
7.03653e-34
7.03884e-34
7.04363e-34
7.04598e-34
7.05078e-34
7.05323e-34
7.05802e-34
7.06053e-34
7.06533e-34
7.06793e-34
7.07032e-34
7.07404e-34
7.66128e-34
7.58816e-34
7.5942e-34
7.59665e-34
7.6017e-34
7.60417e-34
7.60928e-34
7.61178e-34
7.61693e-34
7.61947e-34
7.62469e-34
7.62726e-34
7.63253e-34
7.63515e-34
7.64042e-34
7.64316e-34
7.64841e-34
7.65124e-34
7.65385e-34
7.65792e-34
8.21745e-34
8.13834e-34
8.14479e-34
8.14749e-34
8.15294e-34
8.15557e-34
8.16117e-34
8.16381e-34
8.16946e-34
8.17213e-34
8.17786e-34
8.18055e-34
8.18632e-34
8.1891e-34
8.19486e-34
8.19775e-34
8.20349e-34
8.20652e-34
8.20936e-34
8.21376e-34
8.6728e-34
8.58871e-34
8.59557e-34
8.59844e-34
8.60421e-34
8.60705e-34
8.61296e-34
8.61577e-34
8.62179e-34
8.6246e-34
8.63071e-34
8.63355e-34
8.63971e-34
8.64263e-34
8.64878e-34
8.65184e-34
8.65795e-34
8.66116e-34
8.66419e-34
8.66886e-34
9.00736e-34
8.91959e-34
8.92673e-34
8.92977e-34
8.93577e-34
8.93875e-34
8.94488e-34
8.94785e-34
8.95406e-34
8.9571e-34
8.96336e-34
8.96645e-34
8.97275e-34
8.97592e-34
8.98224e-34
8.9855e-34
8.99183e-34
8.99521e-34
8.99836e-34
9.00324e-34
9.23717e-34
9.14685e-34
9.15419e-34
9.15731e-34
9.16346e-34
9.16655e-34
9.17285e-34
9.17593e-34
9.18231e-34
9.18543e-34
9.19187e-34
9.19505e-34
9.20153e-34
9.20479e-34
9.21129e-34
9.21465e-34
9.22115e-34
9.22464e-34
9.22788e-34
9.2329e-34
9.39189e-34
9.29984e-34
9.30731e-34
9.31048e-34
9.3168e-34
9.31989e-34
9.32635e-34
9.32946e-34
9.33599e-34
9.33914e-34
9.34576e-34
9.34893e-34
9.3556e-34
9.35886e-34
9.36554e-34
9.36892e-34
9.37557e-34
9.3791e-34
9.38241e-34
9.38753e-34
9.49997e-34
9.40674e-34
9.41432e-34
9.41752e-34
9.4239e-34
9.42706e-34
9.43359e-34
9.43672e-34
9.44337e-34
9.44652e-34
9.45325e-34
9.45645e-34
9.46321e-34
9.46651e-34
9.47327e-34
9.4767e-34
9.48344e-34
9.48702e-34
9.49037e-34
9.49556e-34
9.5829e-34
9.48874e-34
9.4964e-34
9.49962e-34
9.50609e-34
9.50925e-34
9.51586e-34
9.51901e-34
9.52574e-34
9.5289e-34
9.53571e-34
9.53892e-34
9.54578e-34
9.54908e-34
9.55594e-34
9.55938e-34
9.5662e-34
9.56981e-34
9.5732e-34
9.57843e-34
9.65482e-34
9.55986e-34
9.56759e-34
9.57084e-34
9.57737e-34
9.58054e-34
9.58723e-34
9.59039e-34
9.59718e-34
9.60036e-34
9.60724e-34
9.61046e-34
9.61739e-34
9.62071e-34
9.62764e-34
9.6311e-34
9.63799e-34
9.64162e-34
9.64504e-34
9.65031e-34
9.72438e-34
9.62867e-34
9.63642e-34
9.63974e-34
9.64627e-34
9.64954e-34
9.65619e-34
9.65947e-34
9.66621e-34
9.66954e-34
9.67634e-34
9.67972e-34
9.68659e-34
9.69004e-34
9.69693e-34
9.70049e-34
9.70739e-34
9.71108e-34
9.71451e-34
9.71983e-34
9.79634e-34
9.69979e-34
9.7077e-34
9.71097e-34
9.71757e-34
9.72087e-34
9.72755e-34
9.73088e-34
9.73767e-34
9.74101e-34
9.7479e-34
9.75128e-34
9.75822e-34
9.76173e-34
9.76865e-34
9.77227e-34
9.77919e-34
9.78293e-34
9.78638e-34
9.79174e-34
9.87253e-34
9.77515e-34
9.78303e-34
9.7864e-34
9.79308e-34
9.79635e-34
9.80318e-34
9.80647e-34
9.81338e-34
9.81669e-34
9.8237e-34
9.82705e-34
9.83411e-34
9.83756e-34
9.84462e-34
9.8482e-34
9.85524e-34
9.85897e-34
9.86247e-34
9.86788e-34
9.95198e-34
9.85373e-34
9.86173e-34
9.86507e-34
9.87183e-34
9.87511e-34
9.88203e-34
9.88529e-34
9.89234e-34
9.89561e-34
9.90274e-34
9.90606e-34
9.91325e-34
9.91666e-34
9.92384e-34
9.92741e-34
9.93455e-34
9.9383e-34
9.94184e-34
9.9473e-34
1.00307e-33
9.93165e-34
9.93965e-34
9.94311e-34
9.94985e-34
9.95325e-34
9.96011e-34
9.96354e-34
9.97049e-34
9.97396e-34
9.98098e-34
9.9845e-34
9.99159e-34
9.99517e-34
1.00023e-33
1.0006e-33
1.00131e-33
1.0017e-33
1.00205e-33
1.0026e-33
1.01019e-33
1.0002e-33
1.00102e-33
1.00136e-33
1.00204e-33
1.00238e-33
1.00307e-33
1.00342e-33
1.00412e-33
1.00446e-33
1.00518e-33
1.00553e-33
1.00624e-33
1.00661e-33
1.00732e-33
1.0077e-33
1.00841e-33
1.0088e-33
1.00916e-33
1.00971e-33
1.01565e-33
1.00579e-33
1.00658e-33
1.00692e-33
1.00758e-33
1.00791e-33
1.00859e-33
1.00893e-33
1.00962e-33
1.00996e-33
1.01066e-33
1.01101e-33
1.01172e-33
1.01208e-33
1.01279e-33
1.01317e-33
1.01388e-33
1.01427e-33
1.01463e-33
1.01519e-33
1.01819e-33
1.01819e-33
1.01819e-33
1.01819e-33
1.01819e-33
1.01819e-33
1.01818e-33
1.01818e-33
1.01818e-33
1.01818e-33
1.01818e-33
1.01818e-33
1.01818e-33
1.01818e-33
1.01818e-33
1.01818e-33
1.01818e-33
1.01818e-33
1.01818e-33
1.01818e-33
)
;

boundaryField
{
    movingWall
    {
        type            calculated;
        value           nonuniform List<scalar> 
20
(
1.01819e-33
1.01819e-33
1.01819e-33
1.01819e-33
1.01819e-33
1.01819e-33
1.01818e-33
1.01818e-33
1.01818e-33
1.01818e-33
1.01818e-33
1.01818e-33
1.01818e-33
1.01818e-33
1.01818e-33
1.01818e-33
1.01818e-33
1.01818e-33
1.01818e-33
1.01818e-33
)
;
    }
    fixedWalls
    {
        type            calculated;
        value           nonuniform List<scalar> 
60
(
6.29339e-34
6.58159e-34
7.0771e-34
7.66128e-34
8.21745e-34
8.6728e-34
9.00736e-34
9.23717e-34
9.39189e-34
9.49997e-34
9.5829e-34
9.65482e-34
9.72438e-34
9.79634e-34
9.87253e-34
9.95198e-34
1.00307e-33
1.01019e-33
1.01565e-33
1.01819e-33
6.29335e-34
6.57886e-34
7.07404e-34
7.65792e-34
8.21376e-34
8.66886e-34
9.00324e-34
9.2329e-34
9.38753e-34
9.49556e-34
9.57843e-34
9.65031e-34
9.71983e-34
9.79174e-34
9.86788e-34
9.9473e-34
1.0026e-33
1.00971e-33
1.01519e-33
1.01818e-33
6.29339e-34
6.29338e-34
6.29338e-34
6.29338e-34
6.29337e-34
6.29337e-34
6.29336e-34
6.29336e-34
6.29336e-34
6.29336e-34
6.29336e-34
6.29335e-34
6.29335e-34
6.29335e-34
6.29335e-34
6.29335e-34
6.29335e-34
6.29335e-34
6.29335e-34
6.29335e-34
)
;
    }
    frontAndBack
    {
        type            empty;
    }
}


// ************************************************************************* //
