/*--------------------------------*- C++ -*----------------------------------*\
| =========                 |                                                 |
| \\      /  F ield         | OpenFOAM: The Open Source CFD Toolbox           |
|  \\    /   O peration     | Version:  2506                                  |
|   \\  /    A nd           | Website:  www.openfoam.com                      |
|    \\/     M anipulation  |                                                 |
\*---------------------------------------------------------------------------*/
FoamFile
{
    version     2.0;
    format      ascii;
    arch        "LSB;label=32;scalar=64";
    class       surfaceScalarField;
    location    "10";
    object      PecletNoField;
}
// * * * * * * * * * * * * * * * * * * * * * * * * * * * * * * * * * * * * * //

dimensions      [0 0 0 0 0 0 0];

oriented        oriented;

internalField   nonuniform List<scalar> 
760
(
460.301
5.00832e-12
460.301
7.46821e-12
460.301
2.15085e-12
460.301
3.7578e-13
460.301
1.04415e-13
460.301
9.07368e-15
460.301
7.47954e-14
460.301
1.23207e-13
460.301
5.59864e-14
460.301
4.43827e-14
460.301
4.28323e-14
460.301
2.31666e-14
460.301
1.80987e-14
460.301
4.00752e-14
460.301
1.72985e-14
460.301
5.06696e-14
460.301
4.9642e-14
460.301
5.7953e-14
460.301
1.28442e-14
4.36176e-14
459.926
5.27878e-12
459.771
6.6042e-12
459.793
2.01941e-12
459.812
3.7858e-13
459.831
2.2776e-14
459.85
6.33046e-14
459.869
1.15926e-13
459.888
5.14799e-14
459.907
1.31232e-14
459.926
4.44543e-14
459.945
1.34717e-14
459.964
5.77858e-14
459.983
1.5964e-14
460.002
7.87151e-14
460.022
4.39673e-14
460.041
6.87087e-14
460.06
1.38309e-14
460.073
6.16427e-14
460.089
5.6051e-14
6.53705e-14
459.587
1.17772e-12
459.427
1.1824e-12
459.45
1.78883e-13
459.47
4.06607e-14
459.49
3.55375e-15
459.51
2.36988e-14
459.529
6.84936e-15
459.549
2.72218e-14
459.569
4.06601e-14
459.589
3.92704e-14
459.608
3.80815e-14
459.628
4.65852e-14
459.648
6.672e-15
459.667
1.41645e-14
459.687
8.21588e-15
459.707
1.82491e-14
459.726
2.54982e-14
459.74
6.22046e-14
459.756
1.01443e-13
8.35967e-14
459.217
4.92936e-12
459.054
6.31049e-12
459.077
1.5363e-12
459.097
3.5215e-13
459.118
1.0959e-13
459.138
3.03439e-15
459.158
1.38409e-14
459.178
2.11989e-14
459.198
6.37041e-16
459.219
8.09252e-16
459.239
3.82607e-14
459.259
1.98304e-14
459.279
3.10142e-14
459.299
1.24195e-14
459.319
2.92439e-15
459.339
2.22738e-14
459.359
1.72653e-14
459.372
3.78999e-14
459.389
3.36701e-14
1.01089e-14
458.887
4.91868e-12
458.721
6.4096e-12
458.745
1.85692e-12
458.765
3.51669e-13
458.786
1.0405e-13
458.807
1.34556e-14
458.827
1.48159e-14
458.848
2.84525e-14
458.868
2.61423e-14
458.889
2.28072e-14
458.909
1.68807e-14
458.929
2.48522e-14
458.95
4.14121e-14
458.97
7.44362e-15
458.991
1.34693e-14
459.011
4.56561e-14
459.031
5.24627e-14
459.045
3.38914e-14
459.062
3.71753e-14
1.83383e-15
458.631
1.6816e-12
458.463
2.70826e-12
458.487
8.67908e-13
458.508
2.80592e-14
458.529
9.98289e-14
458.55
4.44504e-16
458.571
6.55595e-15
458.591
6.87442e-15
458.612
4.25341e-14
458.633
1.10164e-14
458.653
4.93627e-14
458.674
1.77484e-15
458.695
7.16827e-14
458.715
8.50298e-14
458.736
4.13323e-14
458.757
4.20921e-14
458.777
3.94526e-14
458.791
7.74501e-15
458.808
1.07883e-15
5.74724e-15
458.451
2.07583e-12
458.281
3.60862e-12
458.305
1.3372e-12
458.326
1.2326e-13
458.347
1.32224e-13
458.368
2.86933e-14
458.389
4.4113e-14
458.41
1.69632e-14
458.431
3.75833e-14
458.452
8.24534e-15
458.473
1.48714e-14
458.494
1.80171e-14
458.515
1.4761e-14
458.536
1.44358e-14
458.556
4.837e-14
458.577
1.42867e-14
458.598
1.76373e-14
458.612
4.4136e-14
458.629
1.96369e-14
8.41788e-15
458.33
3.5901e-12
458.16
5.23982e-12
458.184
1.9182e-12
458.205
3.25566e-13
458.226
1.01968e-14
458.247
9.71368e-14
458.268
5.82865e-14
458.29
1.59242e-15
458.311
4.12003e-15
458.332
4.7566e-14
458.353
3.34866e-15
458.374
3.22014e-15
458.395
7.37904e-14
458.415
5.06947e-14
458.436
3.73535e-14
458.457
2.30432e-14
458.478
3.92465e-14
458.492
3.2585e-14
458.509
3.5852e-14
6.15312e-15
458.25
1.78903e-12
458.079
2.98862e-12
458.104
1.24912e-12
458.125
1.75968e-13
458.146
5.00479e-15
458.167
3.34052e-14
458.188
7.89587e-14
458.21
9.12786e-14
458.231
6.11366e-14
458.252
5.59799e-14
458.273
8.39905e-15
458.294
7.4199e-15
458.315
7.43653e-14
458.336
7.34048e-14
458.357
1.01683e-13
458.378
6.25952e-15
458.399
3.05467e-14
458.413
2.09635e-14
458.43
5.42734e-14
5.99916e-14
458.195
2.09222e-13
458.024
4.37934e-13
458.048
1.97877e-13
458.069
8.78546e-15
458.091
1.69203e-15
458.112
2.16754e-15
458.133
8.54744e-15
458.154
9.37337e-15
458.176
5.84391e-15
458.197
6.39164e-15
458.218
8.0412e-15
458.239
1.56745e-14
458.26
7.25126e-15
458.281
1.86197e-14
458.302
3.49005e-14
458.323
8.86565e-14
458.344
5.83464e-14
458.359
7.48084e-14
458.376
1.56671e-14
1.60463e-14
458.153
9.5709e-13
457.981
2.13181e-12
458.006
9.67514e-13
458.027
3.91932e-14
458.049
1.95804e-14
458.07
3.46953e-14
458.091
3.9104e-14
458.113
1.05565e-13
458.134
4.20737e-14
458.155
2.11937e-14
458.176
8.59743e-15
458.197
2.77793e-14
458.219
1.74332e-14
458.24
7.00852e-14
458.261
5.56617e-15
458.282
2.5833e-14
458.303
3.76724e-14
458.317
5.555e-15
458.334
4.27033e-15
8.36387e-15
458.117
2.55542e-12
457.945
3.72987e-12
457.97
1.53926e-12
457.991
2.26481e-13
458.013
2.88623e-14
458.034
4.95529e-14
458.055
2.66969e-14
458.077
3.12942e-14
458.098
5.27132e-14
458.119
3.23525e-14
458.14
1.65066e-15
458.162
2.58646e-14
458.183
1.62235e-14
458.204
8.73526e-15
458.225
3.27112e-14
458.246
3.03987e-14
458.267
3.51704e-14
458.281
2.9054e-14
458.299
1.14513e-14
2.79543e-14
458.083
1.97677e-12
457.91
3.48317e-12
457.935
1.33496e-12
457.956
2.05501e-13
457.978
3.34742e-14
457.999
2.43418e-14
458.021
9.20972e-14
458.042
5.57054e-14
458.063
1.88427e-14
458.085
8.15261e-15
458.106
5.48194e-14
458.127
1.23523e-14
458.148
1.11888e-15
458.169
1.14966e-14
458.191
1.14212e-14
458.212
3.77581e-16
458.233
2.37965e-14
458.247
3.2479e-14
458.264
2.05827e-15
4.05506e-14
458.047
4.56596e-13
457.875
9.83414e-13
457.899
6.16755e-13
457.921
1.64346e-14
457.942
3.79625e-15
457.964
8.50324e-14
457.985
6.79742e-14
458.006
1.48978e-14
458.028
1.1339e-14
458.049
5.9273e-14
458.07
6.933e-14
458.092
2.45572e-14
458.113
7.46124e-15
458.134
1.0042e-14
458.155
2.48127e-14
458.176
5.14559e-14
458.198
4.93526e-14
458.212
4.51335e-14
458.229
3.65517e-14
3.2268e-17
458.01
2.97245e-12
457.837
3.55093e-12
457.862
9.09562e-13
457.883
2.04303e-13
457.905
3.66657e-14
457.926
4.26299e-14
457.948
6.34733e-15
457.969
2.79769e-14
457.99
5.50864e-14
458.012
1.23634e-14
458.033
2.58965e-14
458.054
1.89533e-14
458.076
8.41982e-15
458.097
3.25977e-15
458.118
1.20216e-14
458.139
2.95529e-14
458.161
3.58694e-14
458.175
2.24606e-14
458.192
4.23968e-14
2.15388e-15
457.971
3.7091e-12
457.798
5.49068e-12
457.823
1.7651e-12
457.844
2.19016e-13
457.866
1.20235e-13
457.887
7.48113e-14
457.909
6.03512e-14
457.93
6.88748e-14
457.952
1.79391e-14
457.973
4.30126e-14
457.994
3.43116e-14
458.016
1.78484e-14
458.037
3.31674e-14
458.058
1.29155e-14
458.08
4.082e-14
458.101
1.88492e-14
458.122
3.30399e-14
458.137
5.92794e-14
458.154
5.02066e-14
5.06234e-14
457.933
3.58681e-12
457.76
4.3598e-12
457.784
1.39869e-12
457.806
1.87562e-13
457.828
3.99318e-14
457.849
8.15403e-14
457.871
2.82234e-14
457.892
8.34498e-15
457.914
1.565e-14
457.935
1.24143e-14
457.956
2.40197e-14
457.978
3.13747e-14
457.999
7.42637e-14
458.021
5.99239e-15
458.042
8.03468e-15
458.063
9.79888e-14
458.084
1.04426e-13
458.099
2.14959e-14
458.116
4.22334e-15
8.8276e-15
457.899
4.14877e-12
457.725
4.51984e-12
457.75
9.59142e-13
457.772
2.93291e-13
457.793
2.85871e-14
457.815
7.82129e-14
457.836
7.53785e-14
457.858
4.02631e-14
457.879
2.96812e-14
457.901
5.92946e-14
457.922
6.8576e-14
457.944
3.32437e-14
457.965
7.81282e-14
457.987
3.16225e-14
458.008
2.58233e-14
458.029
4.11476e-14
458.051
1.31902e-14
458.065
1.79455e-14
458.082
2.76005e-14
9.3299e-15
457.877
5.57525e-12
457.706
7.53407e-12
457.73
1.87299e-12
457.751
3.21876e-13
457.772
9.9661e-14
457.792
2.20167e-14
457.814
1.03925e-14
457.835
1.09977e-13
457.856
9.02962e-14
457.877
4.58954e-14
457.898
4.68343e-14
457.919
2.31762e-15
457.94
5.94239e-14
457.961
6.43651e-15
457.982
4.48859e-14
458.003
6.16834e-14
458.025
6.45075e-14
458.039
7.03589e-14
458.057
1.63056e-14
5.41712e-14
458.053
458.053
458.053
458.053
458.053
458.053
458.053
458.053
458.053
458.053
458.053
458.053
458.053
458.053
458.053
458.053
458.053
458.053
458.053
)
;

boundaryField
{
    movingWall
    {
        type            calculated;
        value           uniform 0;
    }
    fixedWalls
    {
        type            calculated;
        value           nonuniform List<scalar> 
60
(
250
250
250
250
250
250
250
250
250
250
250
250
250
250
250
250
250
250
250
250
250
250
250
250
250
250
250
250
250
250
250
250
250
250
250
250
250
250
250
250
0
0
0
0
0
0
0
0
0
0
0
0
0
0
0
0
0
0
0
0
)
;
    }
    frontAndBack
    {
        type            empty;
    }
}


// ************************************************************************* //
