/*--------------------------------*- C++ -*----------------------------------*\
| =========                 |                                                 |
| \\      /  F ield         | OpenFOAM: The Open Source CFD Toolbox           |
|  \\    /   O peration     | Version:  2506                                  |
|   \\  /    A nd           | Website:  www.openfoam.com                      |
|    \\/     M anipulation  |                                                 |
\*---------------------------------------------------------------------------*/
FoamFile
{
    version     2.0;
    format      ascii;
    arch        "LSB;label=32;scalar=64";
    class       volScalarField;
    location    "10";
    object      QField;
}
// * * * * * * * * * * * * * * * * * * * * * * * * * * * * * * * * * * * * * //

dimensions      [0 0 -2 0 0 0 0];

internalField   nonuniform List<scalar> 
400
(
-5.05688e-23
-1.67414e-23
-6.2773e-25
6.56093e-26
-9.16674e-27
-1.53454e-27
2.56476e-28
-2.66855e-27
-1.15916e-27
-3.67757e-28
2.46673e-29
-3.40118e-28
-1.20618e-27
-1.67227e-27
0
-1.03651e-27
-5.06726e-28
-4.42911e-28
1.35057e-28
-3.57859e-28
-9.36973e-23
-2.86381e-23
-1.81484e-24
-3.82911e-26
-3.63498e-28
1.08166e-27
6.8317e-28
-1.21588e-27
-8.55585e-28
4.9397e-29
1.79177e-28
0
0
6.82139e-29
2.39699e-27
-1.8656e-28
-5.01757e-28
-2.22517e-28
5.13942e-28
-1.54221e-27
-1.05054e-22
-3.3596e-23
-1.04639e-24
-8.35556e-26
1.45151e-26
-3.58644e-27
3.07258e-28
-3.42955e-28
1.27781e-27
1.37663e-27
1.09517e-28
-6.15593e-28
5.46488e-29
-1.41545e-27
-3.35882e-28
-2.03646e-27
4.39367e-28
1.41598e-27
-5.77941e-28
-1.01909e-27
-1.07368e-22
-3.16492e-23
-1.26213e-24
-3.19785e-26
-1.62221e-26
3.27769e-27
-1.44376e-27
0
-1.32804e-28
1.14879e-28
-3.21846e-28
-3.14044e-28
1.805e-29
7.94256e-28
7.54199e-28
-4.59703e-28
1.89589e-28
8.19938e-28
-1.14687e-28
-1.3509e-27
-9.65596e-23
-2.77389e-23
-1.46946e-24
-7.42063e-26
-7.10133e-27
-1.14808e-28
-3.55873e-28
-3.79803e-28
3.9197e-28
3.23038e-28
0
0
0
0
0
2.83094e-28
-5.10883e-28
-1.20416e-27
-4.38502e-29
2.81373e-28
-8.14912e-23
-2.52083e-23
-1.15299e-24
-3.45408e-26
2.62194e-27
0
-1.36983e-28
4.02148e-29
-2.47111e-29
0
-2.30873e-28
6.1356e-28
3.57618e-28
-3.30066e-28
-1.22233e-28
0
0
0
0
0
-5.48958e-23
-2.40046e-23
5.4446e-25
-1.01737e-25
1.64429e-26
-5.8402e-27
5.68168e-28
-8.22565e-28
-4.73515e-28
3.57e-28
3.25174e-28
1.46787e-27
-7.32443e-28
-9.91949e-28
8.37077e-29
0
0
0
-2.0312e-28
0
-2.90979e-23
-1.26541e-23
-6.98792e-25
2.35784e-26
-4.7753e-27
-2.0929e-27
5.72021e-28
4.0999e-28
-6.52413e-28
-1.66993e-28
7.93146e-29
-5.46137e-28
1.24466e-28
4.73132e-28
-1.26052e-27
3.75951e-28
2.07153e-28
-4.49848e-29
-1.96804e-28
0
-2.98182e-23
-1.14445e-23
-7.74301e-25
-1.24582e-26
3.92586e-27
0
5.64305e-28
-8.78269e-28
8.1374e-28
3.62407e-28
3.87848e-28
1.2469e-27
5.59098e-28
-1.61036e-28
-2.20211e-29
9.15439e-28
-1.20627e-27
-1.43215e-28
6.24853e-29
-1.65383e-28
-2.06662e-23
-1.37826e-23
3.81623e-25
-3.93389e-26
1.22686e-26
-1.56424e-27
1.15488e-27
-1.92464e-27
-9.38924e-28
3.9783e-28
7.16022e-28
1.80162e-28
-8.72297e-28
7.0416e-28
1.38559e-28
-7.18368e-28
-1.04331e-27
-3.16724e-28
-6.87159e-28
0
-7.48619e-24
-1.06894e-23
9.50081e-25
-5.11209e-26
1.68043e-26
-2.58782e-27
2.0888e-27
-2.90403e-27
-4.98814e-28
3.86182e-28
1.89474e-28
0
2.89032e-28
1.21946e-28
1.23567e-28
-1.66883e-27
-2.08277e-28
-1.51991e-28
0
-1.19562e-28
-6.83446e-24
-4.99307e-24
-7.50711e-26
1.99514e-26
3.82282e-27
-2.21016e-27
0
-5.77967e-28
2.88078e-28
1.05341e-27
7.71774e-28
-1.93773e-28
0
-2.13515e-28
9.40485e-28
-8.59412e-29
0
0
6.72707e-29
-5.73856e-29
-5.0431e-24
-4.34877e-24
-5.14129e-25
4.13555e-26
2.53692e-27
2.03028e-28
-1.40732e-27
-2.40118e-28
-1.98484e-28
1.39907e-28
-6.5068e-28
-1.75132e-28
1.77107e-28
-2.21133e-28
0
0
0
0
-5.45493e-28
0
-2.41232e-23
-1.10885e-23
-1.36779e-25
-3.19235e-27
-1.43095e-27
-9.73599e-28
0
2.76226e-28
1.00032e-27
0
-4.33812e-28
3.49227e-29
-5.86007e-29
0
-2.36921e-28
-2.13831e-28
-4.11113e-28
-1.25917e-28
-1.90827e-28
2.2887e-29
-4.86585e-23
-2.03345e-23
4.05605e-25
-1.38652e-25
1.00028e-26
-5.34855e-27
2.3013e-27
2.21592e-27
1.06787e-27
-1.07e-27
-1.49208e-27
-1.43467e-27
-1.48643e-28
6.24253e-28
8.09526e-28
-1.6938e-28
-6.00968e-28
0
0
2.0862e-28
-5.38769e-23
-1.82939e-23
-6.59851e-25
-1.19276e-26
-1.0957e-26
-2.73046e-28
-3.48134e-28
2.37962e-28
2.62842e-28
-1.49825e-27
4.19078e-28
-3.88111e-28
0
4.57516e-28
1.6449e-28
9.18839e-28
-7.00348e-28
-7.10656e-29
-1.78159e-28
-4.50295e-28
-6.18242e-23
-1.85691e-23
-1.33949e-24
-3.64604e-26
-5.05658e-27
-5.65616e-27
-1.05981e-27
-6.55268e-28
1.31903e-27
1.32759e-29
0
-1.43198e-28
-1.52727e-27
3.08685e-28
1.67947e-27
3.77977e-28
-8.65513e-28
2.17384e-29
0
-7.57975e-29
-8.68287e-23
-2.77107e-23
-9.77699e-25
-3.66729e-26
-1.20907e-26
3.07132e-27
1.48397e-27
1.40654e-27
2.25991e-28
0
1.67207e-27
1.70012e-27
1.01933e-28
4.81458e-28
0
-2.14577e-28
-2.88608e-28
3.04126e-28
-1.57626e-28
0
-9.64535e-23
-2.77352e-23
-1.17686e-24
-7.81161e-26
7.90017e-28
-2.23953e-27
1.88092e-27
-1.67049e-28
-1.21626e-27
-1.59062e-27
-7.21676e-28
-8.25956e-28
-2.75212e-27
1.3005e-28
0
-1.47156e-29
-1.90447e-28
0
7.63385e-28
-4.89029e-28
-4.39162e-23
-1.20826e-23
-8.65684e-25
-1.66346e-27
-7.96883e-27
6.2969e-28
-1.10976e-27
-1.38242e-27
-7.35717e-28
8.59862e-28
1.10085e-27
8.56301e-28
-5.12767e-28
-6.05326e-28
-8.42159e-28
-6.6105e-28
-5.37339e-28
-9.64105e-28
-1.27079e-27
0
)
;

boundaryField
{
    movingWall
    {
        type            calculated;
        value           nonuniform List<scalar> 
20
(
3.65453e-24
2.44276e-24
-9.42102e-25
1.02541e-25
-2.61122e-26
3.09505e-27
-7.2959e-27
-6.16967e-27
-5.45205e-28
3.52199e-27
2.97695e-27
1.40296e-27
-3.02008e-27
-3.96706e-27
-2.90922e-27
-1.59074e-27
-1.10063e-27
-2.04024e-27
-2.21892e-27
0
)
;
    }
    fixedWalls
    {
        type            calculated;
        value           nonuniform List<scalar> 
60
(
-2.78879e-22
-5.24839e-22
-5.47623e-22
-5.51034e-22
-5.13627e-22
-4.42191e-22
-2.81118e-22
-1.87983e-22
-1.84803e-22
-1.1657e-22
-4.37261e-23
-5.80281e-23
-6.27157e-23
-1.48035e-22
-2.48336e-22
-2.9328e-22
-3.45947e-22
-4.46834e-22
-4.99978e-22
-2.35025e-22
-7.81089e-28
-2.20054e-27
-1.56599e-27
-2.1117e-27
-3.16403e-28
0
0
0
0
0
-6.38791e-29
-9.40205e-29
0
3.74981e-29
1.42888e-28
-5.75957e-28
-1.24187e-28
0
-9.65231e-28
0
1.63496e-23
1.3188e-23
-2.51976e-24
3.71314e-25
-7.88896e-26
6.28548e-27
-1.07082e-26
-3.75921e-27
-8.85537e-28
-1.17861e-27
0
-5.57249e-28
-1.34913e-27
-2.48405e-27
0
-1.03821e-27
-1.36386e-27
-4.81277e-28
-1.02331e-27
-5.86317e-28
)
;
    }
    frontAndBack
    {
        type            empty;
    }
}


// ************************************************************************* //
