/*--------------------------------*- C++ -*----------------------------------*\
| =========                 |                                                 |
| \\      /  F ield         | OpenFOAM: The Open Source CFD Toolbox           |
|  \\    /   O peration     | Version:  2506                                  |
|   \\  /    A nd           | Website:  www.openfoam.com                      |
|    \\/     M anipulation  |                                                 |
\*---------------------------------------------------------------------------*/
FoamFile
{
    version     2.0;
    format      ascii;
    arch        "LSB;label=32;scalar=64";
    class       surfaceScalarField;
    location    "10";
    object      surfaceP;
}
// * * * * * * * * * * * * * * * * * * * * * * * * * * * * * * * * * * * * * //

dimensions      [0 2 -2 0 0 0 0];

internalField   nonuniform List<scalar> 
760
(
2.37356e-15
1.84297e-15
3.93836e-15
2.20524e-15
3.87935e-15
3.57585e-15
4.4294e-15
4.11253e-15
4.65896e-15
4.61208e-15
5.00025e-15
4.79103e-15
5.38855e-15
5.30379e-15
5.52827e-15
5.47116e-15
5.65081e-15
5.55451e-15
5.85639e-15
5.81497e-15
5.98004e-15
5.98075e-15
6.11164e-15
6.03837e-15
6.06092e-15
6.15455e-15
5.96219e-15
5.95473e-15
6.08617e-15
5.93963e-15
6.08615e-15
6.07291e-15
5.8159e-15
6.10035e-15
5.71933e-15
5.73627e-15
5.74054e-15
5.76548e-15
5.59742e-15
1.67465e-15
3.23361e-15
1.84273e-15
2.65046e-15
3.80903e-15
3.73568e-15
4.29521e-15
4.12188e-15
4.74415e-15
4.61699e-15
5.09457e-15
4.92334e-15
5.38641e-15
5.27989e-15
5.4974e-15
5.44246e-15
5.71867e-15
5.61222e-15
5.93933e-15
5.95724e-15
6.03908e-15
6.02492e-15
6.08127e-15
5.94682e-15
6.04835e-15
6.07377e-15
5.93217e-15
6.07051e-15
5.92637e-15
5.90593e-15
6.08711e-15
5.86592e-15
6.02072e-15
6.13748e-15
5.78242e-15
5.85148e-15
5.62236e-15
5.68229e-15
5.63027e-15
4.20942e-15
3.4145e-15
4.5434e-15
4.63211e-15
4.04853e-15
4.01032e-15
4.44367e-15
4.45647e-15
4.79618e-15
4.69154e-15
5.10865e-15
5.09709e-15
5.33593e-15
5.31323e-15
5.55728e-15
5.51745e-15
5.8508e-15
5.63032e-15
6.04284e-15
5.98771e-15
5.93266e-15
6.05483e-15
5.93931e-15
5.88008e-15
6.09593e-15
5.98848e-15
6.04427e-15
6.06486e-15
5.84548e-15
5.92148e-15
5.91629e-15
5.7821e-15
5.96823e-15
5.97607e-15
5.75134e-15
5.82989e-15
5.6902e-15
5.71552e-15
5.88358e-15
3.83719e-15
4.1183e-15
4.09903e-15
3.1691e-15
4.41826e-15
4.46144e-15
4.70434e-15
4.68387e-15
4.99245e-15
4.86092e-15
5.30167e-15
5.21932e-15
5.49474e-15
5.52773e-15
5.59049e-15
5.57955e-15
5.76723e-15
5.67756e-15
5.99969e-15
5.90309e-15
6.00225e-15
5.99584e-15
5.92925e-15
5.87803e-15
5.95741e-15
5.85596e-15
5.94207e-15
5.85985e-15
5.8581e-15
5.83832e-15
5.84188e-15
5.76949e-15
5.83773e-15
5.83671e-15
5.79407e-15
5.78105e-15
5.9089e-15
5.80392e-15
6.03254e-15
3.45021e-15
4.02898e-15
3.53151e-15
4.78589e-15
4.72705e-15
4.88399e-15
4.84045e-15
5.0091e-15
5.08779e-15
5.07916e-15
5.44538e-15
5.35831e-15
5.61253e-15
5.60991e-15
5.66662e-15
5.62465e-15
5.81342e-15
5.74325e-15
5.89924e-15
5.91325e-15
5.87162e-15
5.88321e-15
5.80474e-15
5.8055e-15
5.75839e-15
5.70579e-15
5.75609e-15
5.70354e-15
5.7497e-15
5.7475e-15
5.76432e-15
5.68451e-15
5.78002e-15
5.72863e-15
5.7909e-15
5.72977e-15
5.92756e-15
5.87295e-15
6.00151e-15
5.36466e-15
4.26102e-15
6.13837e-15
6.74411e-15
5.16603e-15
5.10102e-15
5.2478e-15
5.24068e-15
5.34968e-15
5.2803e-15
5.52285e-15
5.4851e-15
5.62203e-15
5.60635e-15
5.70128e-15
5.67023e-15
5.84307e-15
5.80181e-15
5.89722e-15
5.95253e-15
5.81709e-15
5.96422e-15
5.70655e-15
5.84527e-15
5.65093e-15
5.58662e-15
5.69494e-15
5.60568e-15
5.6823e-15
5.68146e-15
5.64881e-15
5.61545e-15
5.67837e-15
5.60386e-15
5.81182e-15
5.72864e-15
5.9469e-15
5.932e-15
5.96284e-15
5.64047e-15
5.77685e-15
5.70676e-15
3.90218e-15
5.17568e-15
5.24071e-15
5.27319e-15
5.17234e-15
5.41572e-15
5.34306e-15
5.5686e-15
5.57174e-15
5.65455e-15
5.6184e-15
5.77076e-15
5.62931e-15
5.91126e-15
5.9052e-15
6.01953e-15
5.93894e-15
5.9924e-15
6.10901e-15
5.72534e-15
6.05543e-15
5.54136e-15
5.62102e-15
5.5922e-15
5.57145e-15
5.61462e-15
5.61718e-15
5.57051e-15
5.62273e-15
5.65413e-15
5.61636e-15
5.84882e-15
5.74711e-15
5.94795e-15
5.92827e-15
5.95504e-15
4.03857e-15
5.89401e-15
3.43613e-15
5.46965e-15
5.23738e-15
5.48482e-15
5.24221e-15
5.36661e-15
5.49908e-15
5.36223e-15
5.62154e-15
5.61592e-15
5.59315e-15
5.65549e-15
5.76375e-15
5.62464e-15
5.93288e-15
5.92183e-15
6.02842e-15
5.97036e-15
6.17204e-15
6.06875e-15
5.95112e-15
6.15264e-15
5.65111e-15
5.76595e-15
5.59643e-15
5.60785e-15
5.62528e-15
5.62256e-15
5.66858e-15
5.74632e-15
5.70934e-15
5.65724e-15
5.82657e-15
5.76422e-15
5.93536e-15
5.91375e-15
5.97401e-15
7.32509e-15
5.7138e-15
7.51833e-15
6.68236e-15
5.61405e-15
5.65467e-15
5.48663e-15
5.60446e-15
5.47907e-15
5.56165e-15
5.64986e-15
5.711e-15
5.68697e-15
5.7612e-15
5.78272e-15
5.70059e-15
5.95931e-15
5.89547e-15
6.01069e-15
6.04908e-15
6.04935e-15
6.00978e-15
5.96747e-15
6.04841e-15
5.72268e-15
5.93218e-15
5.63398e-15
5.69898e-15
5.7436e-15
5.76358e-15
5.73498e-15
5.80602e-15
5.71212e-15
5.70013e-15
5.8514e-15
5.85068e-15
5.9524e-15
5.79734e-15
5.91702e-15
5.07107e-15
6.17522e-15
4.8187e-15
4.30015e-15
5.64508e-15
5.84163e-15
5.67948e-15
5.69494e-15
5.79359e-15
5.88007e-15
5.82234e-15
5.93604e-15
5.77482e-15
5.88952e-15
5.81334e-15
5.76821e-15
5.98524e-15
6.00698e-15
6.04817e-15
6.1161e-15
6.00883e-15
6.12367e-15
6.01312e-15
6.11023e-15
5.90847e-15
6.04905e-15
5.82858e-15
5.81018e-15
5.826e-15
5.89643e-15
5.77116e-15
5.89073e-15
5.83869e-15
5.85495e-15
5.79663e-15
5.79257e-15
5.76197e-15
5.71206e-15
5.84353e-15
5.40431e-15
5.78608e-15
5.32308e-15
7.09381e-15
5.89149e-15
6.02157e-15
5.89553e-15
6.11117e-15
6.02251e-15
6.07012e-15
6.00322e-15
6.1129e-15
5.88291e-15
6.02773e-15
5.96185e-15
5.9365e-15
6.13784e-15
6.12183e-15
6.1916e-15
6.21419e-15
6.22507e-15
6.28723e-15
6.14616e-15
6.27407e-15
5.95076e-15
6.13399e-15
5.87803e-15
5.94009e-15
5.96116e-15
5.83944e-15
5.97452e-15
6.00625e-15
5.80882e-15
5.89025e-15
5.708e-15
5.69697e-15
5.79362e-15
5.76493e-15
5.90157e-15
7.47559e-15
6.0576e-15
7.7923e-15
5.72969e-15
6.24125e-15
6.19364e-15
6.28576e-15
6.32472e-15
6.16051e-15
6.35113e-15
6.13742e-15
6.24962e-15
6.08132e-15
6.12278e-15
6.09648e-15
6.1027e-15
6.19817e-15
6.19417e-15
6.30981e-15
6.28372e-15
6.33623e-15
6.38976e-15
6.26189e-15
6.34564e-15
6.12332e-15
6.26659e-15
5.9015e-15
6.08102e-15
5.88453e-15
5.85592e-15
5.92199e-15
5.95891e-15
5.7784e-15
5.80978e-15
5.7539e-15
5.74122e-15
5.87289e-15
5.72444e-15
5.96008e-15
4.3117e-15
6.43859e-15
4.13103e-15
5.54017e-15
6.27711e-15
6.36095e-15
6.39009e-15
6.45446e-15
6.44024e-15
6.4839e-15
6.23498e-15
6.29214e-15
6.14415e-15
6.17525e-15
6.2004e-15
6.16814e-15
6.27972e-15
6.20776e-15
6.36367e-15
6.27742e-15
6.39917e-15
6.48863e-15
6.35033e-15
6.42219e-15
6.22429e-15
6.32296e-15
6.03544e-15
6.15788e-15
5.93029e-15
6.02244e-15
5.8467e-15
5.94676e-15
5.77261e-15
5.83646e-15
5.71176e-15
5.67275e-15
5.81163e-15
5.68506e-15
5.98186e-15
7.66707e-15
6.46763e-15
7.77009e-15
7.44968e-15
6.5383e-15
6.45936e-15
6.54827e-15
6.60167e-15
6.3358e-15
6.47906e-15
6.23241e-15
6.2876e-15
6.19923e-15
6.21994e-15
6.1755e-15
6.19793e-15
6.20546e-15
6.23441e-15
6.40238e-15
6.25738e-15
6.51165e-15
6.55351e-15
6.39481e-15
6.46529e-15
6.25655e-15
6.29633e-15
6.14488e-15
6.23477e-15
6.03891e-15
6.0991e-15
5.93653e-15
5.93203e-15
5.73661e-15
5.79824e-15
5.64606e-15
5.65579e-15
5.85529e-15
5.75654e-15
6.02808e-15
6.25025e-15
6.92274e-15
6.13895e-15
5.08249e-15
6.52272e-15
6.53682e-15
6.53245e-15
6.4637e-15
6.43086e-15
6.55717e-15
6.27512e-15
6.40931e-15
6.21864e-15
6.31765e-15
6.25684e-15
6.19777e-15
6.28633e-15
6.29018e-15
6.40851e-15
6.32627e-15
6.50714e-15
6.63627e-15
6.36681e-15
6.48865e-15
6.27455e-15
6.28369e-15
6.18899e-15
6.25646e-15
5.99223e-15
6.1503e-15
5.79375e-15
5.97946e-15
5.71742e-15
5.74993e-15
5.76627e-15
5.72936e-15
5.92933e-15
5.8754e-15
6.07348e-15
5.75499e-15
6.56959e-15
5.48037e-15
6.78722e-15
6.4778e-15
6.53345e-15
6.48842e-15
6.5616e-15
6.53563e-15
6.62049e-15
6.45184e-15
6.43044e-15
6.29679e-15
6.38286e-15
6.23111e-15
6.19874e-15
6.33012e-15
6.28446e-15
6.55403e-15
6.43814e-15
6.61778e-15
6.77271e-15
6.40553e-15
6.54058e-15
6.2656e-15
6.25242e-15
6.21777e-15
6.25121e-15
6.13753e-15
6.25993e-15
5.93564e-15
5.99893e-15
5.76186e-15
5.77343e-15
5.83848e-15
5.8145e-15
6.01955e-15
6.03586e-15
6.18082e-15
7.60183e-15
6.46375e-15
7.8403e-15
7.07099e-15
6.61724e-15
6.47232e-15
6.69367e-15
6.49406e-15
6.51531e-15
6.61828e-15
6.36147e-15
6.48226e-15
6.28482e-15
6.45594e-15
6.25209e-15
6.27541e-15
6.39249e-15
6.33717e-15
6.65683e-15
6.55697e-15
6.69552e-15
6.78066e-15
6.38746e-15
6.53481e-15
6.23803e-15
6.27759e-15
6.29337e-15
6.2558e-15
6.12133e-15
6.29223e-15
5.83672e-15
6.01447e-15
5.82607e-15
5.8555e-15
6.01188e-15
5.92905e-15
6.19714e-15
6.10937e-15
6.29695e-15
5.93291e-15
6.86022e-15
5.70301e-15
5.4251e-15
6.34913e-15
6.47394e-15
6.41867e-15
6.33733e-15
6.58523e-15
6.51484e-15
6.57673e-15
6.70527e-15
6.44654e-15
6.72317e-15
6.36049e-15
6.45739e-15
6.50165e-15
6.4524e-15
6.68081e-15
6.57174e-15
6.61996e-15
6.59914e-15
6.42494e-15
6.49271e-15
6.29536e-15
6.41248e-15
6.25465e-15
6.28999e-15
6.18536e-15
6.28256e-15
6.03324e-15
6.1104e-15
5.95848e-15
5.94481e-15
6.02654e-15
5.97039e-15
6.20919e-15
6.05851e-15
6.32827e-15
6.35241e-15
6.00627e-15
6.19604e-15
6.79401e-15
6.46214e-15
6.53375e-15
6.4335e-15
6.5813e-15
6.63488e-15
6.48961e-15
6.85171e-15
6.83494e-15
6.73403e-15
6.94978e-15
6.5493e-15
6.76945e-15
6.52249e-15
6.65982e-15
6.49007e-15
6.55952e-15
6.47189e-15
6.48249e-15
6.48026e-15
6.45835e-15
6.4071e-15
6.40491e-15
6.31789e-15
6.3382e-15
6.2076e-15
6.33381e-15
6.02198e-15
6.14602e-15
5.95673e-15
5.99473e-15
6.00236e-15
6.02416e-15
6.17759e-15
5.95297e-15
6.2207e-15
6.44787e-15
7.13172e-15
6.6529e-15
6.63741e-15
6.68968e-15
6.93301e-15
6.98521e-15
6.87998e-15
6.69686e-15
6.55195e-15
6.46895e-15
6.383e-15
6.336e-15
6.35412e-15
6.27223e-15
6.11877e-15
6.06216e-15
5.97477e-15
5.99608e-15
)
;

boundaryField
{
    movingWall
    {
        type            calculated;
        value           nonuniform List<scalar> 
20
(
5.17802e-15
7.71772e-15
6.54572e-15
6.76008e-15
6.51473e-15
6.86462e-15
7.00141e-15
6.96901e-15
6.79095e-15
6.60277e-15
6.50113e-15
6.43677e-15
6.32924e-15
6.34277e-15
6.36546e-15
6.179e-15
6.05854e-15
6.06577e-15
5.88378e-15
6.10839e-15
)
;
    }
    fixedWalls
    {
        type            calculated;
        value           nonuniform List<scalar> 
60
(
3.36637e-16
3.3493e-15
3.11792e-15
3.71107e-15
4.52553e-15
3.53243e-15
4.9896e-15
6.5641e-15
5.22392e-15
6.20368e-15
6.14676e-15
5.42541e-15
6.68979e-15
6.1874e-15
6.74787e-15
7.09762e-15
6.04157e-15
6.88593e-15
6.83451e-15
5.17802e-15
5.66898e-15
5.52586e-15
5.73467e-15
6.03248e-15
6.0326e-15
5.97041e-15
5.95528e-15
5.9548e-15
5.99322e-15
5.84083e-15
5.84623e-15
5.95691e-15
5.96324e-15
6.00047e-15
6.05569e-15
6.09127e-15
6.27037e-15
6.32353e-15
6.33301e-15
6.10839e-15
3.36637e-16
4.41049e-15
3.46623e-15
4.29246e-15
4.56634e-15
4.75157e-15
5.24892e-15
5.52817e-15
5.52838e-15
5.77323e-15
5.93954e-15
6.02054e-15
6.20275e-15
5.91909e-15
6.00528e-15
6.16705e-15
6.00525e-15
5.62656e-15
5.8121e-15
5.66898e-15
)
;
    }
    frontAndBack
    {
        type            empty;
    }
}


// ************************************************************************* //
