/*--------------------------------*- C++ -*----------------------------------*\
| =========                 |                                                 |
| \\      /  F ield         | OpenFOAM: The Open Source CFD Toolbox           |
|  \\    /   O peration     | Version:  2506                                  |
|   \\  /    A nd           | Website:  www.openfoam.com                      |
|    \\/     M anipulation  |                                                 |
\*---------------------------------------------------------------------------*/
FoamFile
{
    version     2.0;
    format      ascii;
    arch        "LSB;label=32;scalar=64";
    class       surfaceScalarField;
    location    "10";
    object      surfaceDivU;
}
// * * * * * * * * * * * * * * * * * * * * * * * * * * * * * * * * * * * * * //

dimensions      [0 0 -1 0 0 0 0];

internalField   nonuniform List<scalar> 
760
(
7.63246e-12
-8.10441e-12
-8.62296e-13
1.10075e-12
1.29231e-13
-2.31028e-13
-7.40754e-14
8.1971e-14
7.04223e-15
-3.83051e-14
1.30921e-14
1.82856e-14
2.00499e-15
-3.55147e-15
-1.052e-14
6.63346e-15
-1.10236e-14
1.57032e-14
3.21956e-15
-7.97653e-15
2.03048e-14
-2.91033e-15
-1.57092e-14
-1.81195e-15
-9.54326e-15
-2.97168e-14
1.49838e-14
3.33412e-14
-1.86025e-14
2.45017e-14
4.88642e-15
-1.96425e-14
2.78136e-14
-4.71956e-15
-1.06616e-14
3.49211e-15
-1.60439e-14
-3.12022e-14
1.35525e-14
-1.46361e-11
-8.80914e-12
1.73202e-12
8.83117e-13
-2.78288e-13
-1.99456e-13
1.17741e-13
3.74237e-14
-2.70617e-14
-2.42295e-14
1.64203e-15
5.24205e-15
1.077e-15
-7.17988e-15
3.28567e-14
3.56508e-14
1.87502e-14
-1.66475e-15
-1.41064e-14
-1.3829e-14
-2.50271e-14
-1.61983e-14
-1.58195e-14
2.80014e-14
1.31677e-14
-2.66708e-15
4.28591e-14
-1.1443e-14
2.34617e-14
2.05025e-14
-2.92484e-14
2.60876e-14
-2.9041e-14
-5.1852e-14
-1.70484e-14
-3.7592e-15
-1.60576e-15
7.2805e-15
1.35525e-14
6.71009e-12
1.36338e-11
-1.04836e-12
-1.28082e-12
1.16255e-13
2.33754e-13
-1.04547e-13
-1.09999e-13
8.0742e-15
2.52555e-14
-3.57986e-15
-1.10276e-14
2.73939e-14
1.79481e-14
1.12937e-15
1.13086e-14
-3.4244e-14
-6.55162e-15
-1.59209e-14
-1.12316e-14
3.68302e-14
-1.17617e-14
4.11539e-14
4.16843e-14
-2.72778e-14
6.44097e-15
-3.37995e-14
-2.72681e-14
2.31284e-14
-6.09765e-15
3.48397e-15
3.07079e-14
-2.65702e-14
-1.88909e-14
2.05697e-14
6.57287e-15
2.24388e-14
2.67442e-14
-1.35525e-14
5.64293e-12
-7.23705e-12
1.29076e-15
1.08923e-12
7.49955e-15
-2.11781e-13
1.98038e-14
7.94099e-14
6.15363e-15
4.5552e-15
1.05003e-14
-1.61646e-14
1.86276e-15
1.91658e-14
3.62758e-15
-2.26321e-15
1.64608e-14
-5.07545e-15
-7.07232e-15
1.17909e-14
-6.90761e-15
-9.01829e-15
6.97139e-15
4.08455e-15
6.45058e-15
1.36088e-14
4.33745e-16
6.67433e-15
1.48187e-15
4.013e-15
8.33296e-15
1.34073e-14
1.42521e-14
3.35595e-15
1.27474e-14
-2.99772e-15
-9.24708e-15
1.18698e-14
-1.35525e-14
-1.17908e-11
-2.58853e-12
8.76155e-13
-3.86428e-14
-1.39871e-13
2.15095e-14
6.41613e-14
-4.16008e-14
-1.7763e-14
1.33959e-14
-7.4991e-15
-1.56073e-14
1.50399e-14
1.97821e-14
-1.09662e-14
7.89832e-15
-9.74538e-15
-2.66215e-14
9.84493e-15
6.47965e-15
1.97388e-15
9.06321e-15
1.0722e-14
4.83943e-15
1.38326e-14
9.17033e-15
1.02536e-14
2.93551e-15
1.59385e-14
-3.13335e-17
8.4303e-15
5.05124e-15
-1.38939e-14
-8.27987e-15
-3.87529e-15
-7.72728e-15
7.56434e-15
5.97884e-15
0
9.16357e-12
1.27936e-11
-8.93288e-13
-1.76381e-12
1.1978e-13
3.5224e-13
-9.23663e-14
-1.53944e-13
1.55516e-14
4.91611e-14
1.16739e-14
-2.23017e-14
1.26406e-14
2.18087e-14
-7.75695e-15
-1.28823e-15
-1.03965e-14
-1.28703e-15
5.69793e-15
-6.51277e-15
1.19288e-14
1.1582e-14
3.28776e-15
-2.44243e-14
-1.72675e-15
1.3565e-14
-7.34941e-15
1.41623e-14
-1.09185e-14
-2.52671e-14
-1.16589e-14
-1.71033e-14
-2.11325e-15
-1.31611e-14
2.12685e-15
1.04449e-14
-1.5855e-15
-1.05586e-14
0
1.86621e-12
-1.09775e-11
-5.18277e-13
1.66157e-12
7.85159e-14
-3.48694e-13
-1.2417e-14
1.37859e-13
1.13078e-14
1.95593e-14
-1.21668e-14
-2.85081e-14
7.8799e-15
6.84628e-15
5.18169e-15
2.9992e-14
2.59669e-15
-9.62906e-15
-6.28658e-16
1.95003e-14
-2.4771e-14
2.2204e-15
-1.41471e-14
-3.26689e-14
2.94541e-14
-4.8972e-15
-3.75535e-15
1.7032e-14
-3.14519e-14
-1.34006e-14
-1.86055e-14
-1.09627e-14
-6.0295e-16
-1.34458e-15
-2.24056e-15
2.61878e-14
-8.97311e-15
-1.43158e-14
0
-1.11822e-11
-4.74338e-13
1.83115e-12
1.67156e-13
-2.89351e-13
-7.9678e-14
1.69835e-13
1.30869e-14
-2.02566e-14
1.25758e-14
-9.49497e-15
-1.25241e-14
2.89584e-14
4.10454e-15
1.51813e-14
1.98823e-14
7.27455e-15
-2.88739e-15
2.23493e-14
7.31889e-16
-5.67746e-15
-1.76101e-15
-2.3419e-14
-9.17884e-15
-1.73192e-14
-1.69405e-14
7.3868e-15
6.14603e-16
7.0886e-15
1.77939e-14
6.29823e-15
-3.49339e-14
2.54462e-14
2.61869e-14
1.41125e-14
3.62687e-14
-5.34272e-15
-9.11404e-15
-1.35525e-14
1.0875e-11
7.15573e-12
-1.74368e-12
-1.04216e-12
2.2276e-13
1.89772e-13
-1.44172e-13
-7.38623e-14
2.03084e-14
-5.6909e-15
1.07543e-15
-1.53075e-14
-4.97159e-15
7.89616e-15
1.81361e-15
1.79195e-15
-9.43005e-15
2.77646e-14
-2.33785e-14
-1.7541e-14
-5.26239e-15
4.87804e-17
-2.70035e-15
-2.53386e-15
9.93343e-16
-1.474e-14
1.10217e-14
4.6786e-15
-2.42285e-14
-1.43441e-14
-1.50452e-14
-9.4568e-15
3.70094e-14
2.63149e-14
1.30421e-14
-4.10951e-15
-1.73238e-14
1.32245e-14
-1.35525e-14
-4.76142e-12
-9.3648e-12
8.91293e-13
1.80476e-12
-1.06849e-13
-3.12096e-13
6.46192e-14
1.45983e-13
-4.13068e-14
-4.01778e-14
-8.48675e-15
-1.98582e-14
1.46597e-14
6.69886e-15
2.77429e-14
3.43413e-14
1.96537e-14
4.13702e-15
5.88626e-15
1.09996e-16
2.77731e-15
3.97072e-15
-1.45735e-14
5.24181e-15
-1.10547e-14
-1.74295e-14
-2.06873e-14
2.20033e-14
4.27611e-16
-1.63278e-14
3.19033e-14
8.26893e-15
-1.4804e-14
-1.5137e-15
-3.9271e-15
1.09624e-14
1.69958e-14
1.79219e-14
0
-2.79861e-12
7.35902e-12
6.01374e-13
-1.39496e-12
-5.92642e-14
3.05017e-13
4.11857e-14
-1.15839e-13
-1.87293e-14
1.31521e-14
-4.67257e-15
-2.12828e-15
2.63804e-14
1.0507e-14
1.07354e-14
1.07113e-14
-1.54066e-14
-5.74555e-15
-1.80555e-15
-1.03633e-14
6.43521e-15
-7.99621e-17
2.38582e-15
8.62444e-15
1.56285e-14
6.49745e-17
2.63627e-14
1.18206e-14
-8.48651e-15
1.92312e-14
-2.51481e-14
-4.18292e-14
2.42527e-14
-3.68734e-15
3.28114e-14
3.09927e-14
9.26085e-16
1.66456e-14
-1.35525e-14
8.76268e-12
-1.97867e-12
-1.69132e-12
3.73293e-13
2.48442e-13
-5.07511e-14
-1.43872e-13
4.56999e-14
2.97531e-14
-4.02068e-14
1.30513e-14
-3.89541e-15
-5.16215e-15
2.81898e-14
-5.76963e-15
5.45337e-15
-7.02258e-16
1.3784e-15
-8.63776e-15
-7.60475e-15
2.10927e-15
-8.01384e-15
6.30359e-15
1.93886e-14
-3.74296e-15
3.2279e-14
4.68907e-15
-3.33719e-14
-1.41115e-14
8.3475e-15
-2.03685e-14
-2.21324e-14
3.05268e-15
4.12514e-15
1.48269e-14
-3.26305e-15
2.16701e-15
3.99603e-14
-1.35525e-14
-1.03681e-11
-4.22839e-12
2.01386e-12
7.75519e-13
-2.53493e-13
-1.46752e-13
1.49365e-13
7.43064e-14
-7.38553e-14
-4.54485e-14
1.12431e-14
-1.19854e-15
3.88054e-14
2.064e-14
1.26014e-14
1.3052e-14
-5.52409e-15
2.88638e-15
-6.98083e-15
1.20719e-14
9.26553e-15
-1.3422e-14
4.53641e-14
-1.12691e-14
2.65012e-15
2.86321e-14
-2.97134e-14
-2.94289e-14
3.26636e-16
-1.28916e-14
2.36124e-15
-5.24526e-15
-2.19058e-15
-2.29535e-14
2.18704e-14
2.12028e-14
2.42408e-14
3.14089e-14
-1.35525e-14
6.91518e-12
9.32414e-12
-1.38509e-12
-1.27966e-12
1.81048e-13
2.29982e-13
-1.20507e-13
-1.07662e-13
2.72083e-14
-3.18654e-15
8.19833e-15
1.87513e-14
-5.11333e-15
1.78815e-15
3.337e-15
5.11897e-15
2.04824e-14
-2.45896e-14
5.63075e-15
3.16634e-14
-3.39566e-14
-6.76797e-15
-2.80011e-14
-2.7934e-14
-3.44683e-15
1.10779e-14
-1.2607e-14
-1.55756e-14
-1.84635e-14
-1.16438e-14
-3.056e-14
7.61633e-15
4.39884e-16
2.40043e-15
3.07414e-14
1.53063e-14
-6.38441e-15
-1.67163e-15
-1.35525e-14
1.1293e-12
-9.40545e-12
3.35417e-13
1.55074e-12
-5.87275e-14
-2.99024e-13
9.65906e-15
1.06452e-13
-1.16435e-14
-1.62131e-14
1.23411e-14
-9.1224e-15
1.20204e-14
-2.62406e-15
-2.28076e-14
4.57853e-15
-1.34086e-14
-2.97843e-14
1.92647e-14
3.61345e-14
-7.45333e-16
-3.15591e-14
1.11449e-14
-4.34892e-15
-1.05095e-15
1.54761e-14
-1.46124e-14
-1.26638e-14
1.4436e-14
-7.9994e-15
4.05768e-14
-1.05291e-14
1.72669e-14
2.45959e-14
-1.71067e-14
2.19739e-14
-8.83975e-15
-3.2787e-15
0
-8.98402e-12
2.01933e-12
9.16295e-13
-3.77797e-13
-1.33845e-13
4.17289e-14
8.05797e-14
-4.88016e-14
-1.3692e-14
-1.70223e-14
-2.40876e-14
7.36851e-15
-1.0066e-14
-1.04816e-14
-2.39815e-15
1.0373e-14
1.97587e-14
-2.27652e-14
-1.46893e-14
3.51072e-14
-3.51627e-14
-2.86169e-14
-1.77128e-17
-1.11081e-14
3.86325e-15
1.88328e-14
-6.05082e-15
5.2732e-16
-3.29646e-14
8.19306e-16
-2.651e-14
-1.42706e-14
2.93029e-14
1.14899e-14
3.58018e-14
2.74163e-14
5.56105e-15
1.83262e-14
-1.35525e-14
1.06255e-11
9.58164e-12
-1.25236e-12
-5.608e-13
1.26772e-13
6.77986e-14
-1.46404e-13
-3.37398e-14
4.03817e-15
-3.04485e-14
2.09745e-14
2.54972e-14
9.95739e-15
-1.23641e-14
-9.99401e-15
4.68671e-15
-7.41666e-15
-1.89078e-15
2.11797e-14
2.5671e-14
-4.56226e-15
-4.17622e-15
7.74243e-15
-4.85865e-15
1.54968e-14
3.6369e-15
7.39744e-15
9.65789e-15
1.95132e-14
4.28587e-15
2.37293e-14
1.37936e-14
9.60337e-15
-9.28028e-15
9.94074e-15
-1.8915e-14
-7.8734e-16
1.63194e-14
-1.35525e-14
-1.60471e-12
-1.23192e-11
7.59361e-13
1.14326e-12
-9.27134e-14
-2.39854e-13
8.22153e-14
1.06381e-13
-8.98947e-15
-1.11179e-16
-7.84139e-15
-9.92095e-15
-1.76348e-14
-4.08845e-14
1.27899e-14
1.1305e-14
3.11969e-14
1.8811e-14
3.15162e-16
1.58773e-14
-4.4726e-15
1.7636e-14
-8.96417e-15
6.7406e-15
-2.20205e-15
-3.5531e-14
6.54631e-15
7.8139e-15
-1.43382e-15
-1.32428e-14
-1.9216e-14
3.85037e-15
-3.77987e-14
9.03732e-15
-1.25364e-14
-2.49829e-14
3.55421e-15
2.10295e-14
-1.35525e-14
-9.57127e-12
-2.72406e-12
1.44049e-13
-4.36868e-13
-4.07593e-14
9.30262e-14
2.40548e-14
-2.53654e-14
-1.04266e-15
2.23151e-14
-4.29641e-14
-9.80522e-15
-1.19447e-14
-1.96063e-14
1.7326e-14
2.12141e-14
3.4914e-15
-3.88808e-15
3.31981e-14
7.37949e-15
2.88492e-14
-1.28643e-15
-1.98262e-14
3.03053e-15
-2.5515e-14
-9.30419e-15
-1.19752e-14
-2.65829e-15
-7.95864e-15
-9.31695e-15
3.21037e-14
1.35831e-15
2.18531e-14
3.07454e-14
8.58297e-15
-2.24448e-14
3.92274e-15
4.45803e-14
-1.35525e-14
6.41035e-12
-4.87891e-13
1.0842e-13
-2.71051e-14
1.35525e-14
1.35525e-14
1.35525e-14
0
0
-2.71051e-14
-2.71051e-14
1.35525e-14
1.35525e-14
0
0
0
-1.35525e-14
1.35525e-14
2.71051e-14
)
;

boundaryField
{
    movingWall
    {
        type            calculated;
        value           nonuniform List<scalar> 
20
(
1.40946e-11
-1.27394e-12
2.98156e-13
-8.13152e-14
2.71051e-14
0
2.71051e-14
0
0
0
-5.42101e-14
0
2.71051e-14
0
0
0
0
-2.71051e-14
5.42101e-14
0
)
;
    }
    fixedWalls
    {
        type            calculated;
        value           nonuniform List<scalar> 
60
(
1.74014e-11
-3.36103e-11
1.5992e-11
1.12757e-11
-2.57498e-11
2.05727e-11
5.01444e-12
-2.69695e-11
2.60209e-11
-1.17094e-11
-7.02021e-12
2.17383e-11
-2.56956e-11
1.72388e-11
1.40946e-12
-2.02204e-11
2.4259e-11
-5.09575e-12
-1.95427e-11
1.40946e-11
0
2.71051e-14
0
-2.71051e-14
0
0
0
0
-2.71051e-14
0
0
-2.71051e-14
0
-2.71051e-14
0
0
-2.71051e-14
0
-2.71051e-14
0
1.74014e-11
-2.13653e-12
4.11935e-13
-1.53474e-13
5.32268e-15
8.76179e-15
1.74225e-14
-1.34125e-14
-7.62753e-15
-1.44196e-14
2.08588e-14
1.97509e-14
-5.11694e-14
3.20829e-14
-2.11523e-15
-3.50898e-14
4.48627e-14
1.07645e-14
-3.20878e-14
0
)
;
    }
    frontAndBack
    {
        type            empty;
    }
}


// ************************************************************************* //
