/*--------------------------------*- C++ -*----------------------------------*\
| =========                 |                                                 |
| \\      /  F ield         | OpenFOAM: The Open Source CFD Toolbox           |
|  \\    /   O peration     | Version:  2506                                  |
|   \\  /    A nd           | Website:  www.openfoam.com                      |
|    \\/     M anipulation  |                                                 |
\*---------------------------------------------------------------------------*/
FoamFile
{
    version     2.0;
    format      ascii;
    arch        "LSB;label=32;scalar=64";
    class       volScalarField;
    location    "10";
    object      turbulenceProperties:omega;
}
// * * * * * * * * * * * * * * * * * * * * * * * * * * * * * * * * * * * * * //

dimensions      [0 0 -1 0 0 0 0];

internalField   nonuniform List<scalar> 
400
(
2.7463
2.7463
2.7463
2.7463
2.7463
2.7463
2.7463
2.7463
2.7463
2.7463
2.7463
2.7463
2.7463
2.7463
2.7463
2.7463
2.7463
2.7463
2.7463
2.7463
2.76177
2.73635
2.73858
2.7395
2.74133
2.74228
2.74411
2.74506
2.7469
2.74786
2.74971
2.75068
2.75253
2.75352
2.75537
2.75639
2.75823
2.75927
2.76019
2.76163
2.78703
2.76069
2.76303
2.764
2.76593
2.7669
2.76884
2.76981
2.77174
2.77272
2.77466
2.77564
2.77758
2.77856
2.7805
2.7815
2.78342
2.78445
2.78541
2.78688
2.81488
2.78802
2.7904
2.79139
2.79336
2.79435
2.79632
2.79731
2.79929
2.80028
2.80226
2.80326
2.80524
2.80624
2.80822
2.80924
2.8112
2.81225
2.81322
2.81472
2.8397
2.81235
2.81479
2.8158
2.8178
2.81881
2.82081
2.82182
2.82383
2.82485
2.82685
2.82788
2.82988
2.83092
2.83292
2.83397
2.83595
2.83702
2.83801
2.83954
2.85894
2.83122
2.83368
2.8347
2.83673
2.83776
2.83979
2.84082
2.84285
2.84388
2.84591
2.84696
2.84898
2.85004
2.85206
2.85313
2.85514
2.85623
2.85723
2.85878
2.87251
2.84452
2.84701
2.84804
2.85009
2.85112
2.85318
2.85421
2.85627
2.8573
2.85937
2.8604
2.86247
2.86352
2.86557
2.86664
2.86868
2.86977
2.87079
2.87235
2.88158
2.8534
2.85592
2.85695
2.85902
2.86005
2.86212
2.86316
2.86523
2.86627
2.86835
2.86939
2.87147
2.87253
2.8746
2.87567
2.87772
2.87882
2.87984
2.88141
2.88757
2.85928
2.8618
2.86284
2.86491
2.86595
2.86802
2.86907
2.87115
2.8722
2.87428
2.87534
2.87741
2.87848
2.88055
2.88164
2.8837
2.8848
2.88583
2.88741
2.89171
2.86333
2.86586
2.8669
2.86898
2.87002
2.8721
2.87315
2.87523
2.87629
2.87837
2.87944
2.88152
2.88259
2.88467
2.88576
2.88782
2.88893
2.88996
2.89154
2.89485
2.86641
2.86894
2.86999
2.87207
2.87312
2.8752
2.87626
2.87834
2.8794
2.88149
2.88255
2.88464
2.88572
2.8878
2.88889
2.89096
2.89207
2.8931
2.89469
2.89756
2.86907
2.8716
2.87265
2.87474
2.87579
2.87787
2.87893
2.88102
2.88208
2.88417
2.88524
2.88733
2.88841
2.89049
2.89159
2.89366
2.89478
2.89581
2.8974
2.90017
2.87162
2.87416
2.87521
2.8773
2.87835
2.88045
2.8815
2.8836
2.88465
2.88676
2.88782
2.88992
2.89099
2.89309
2.89418
2.89626
2.89737
2.89841
2.9
2.90285
2.87425
2.87679
2.87784
2.87994
2.88099
2.88309
2.88414
2.88625
2.8873
2.88941
2.89047
2.89258
2.89365
2.89575
2.89684
2.89893
2.90004
2.90108
2.90268
2.90567
2.87701
2.87956
2.88061
2.88271
2.88377
2.88586
2.88692
2.88903
2.89009
2.8922
2.89327
2.89537
2.89645
2.89855
2.89965
2.90174
2.90286
2.9039
2.90549
2.90858
2.87987
2.88242
2.88348
2.88558
2.88664
2.88874
2.88981
2.89191
2.89299
2.89509
2.89617
2.89827
2.89936
2.90146
2.90256
2.90465
2.90577
2.90681
2.90841
2.91146
2.88268
2.88525
2.8863
2.88841
2.88947
2.89158
2.89264
2.89476
2.89582
2.89794
2.89901
2.90113
2.90221
2.90432
2.90542
2.90752
2.90864
2.90968
2.91129
2.91404
2.88522
2.88778
2.88884
2.89096
2.89201
2.89413
2.89519
2.89731
2.89838
2.9005
2.90157
2.90369
2.90477
2.90689
2.90799
2.91009
2.91121
2.91226
2.91387
2.91601
2.88769
2.89017
2.89119
2.89325
2.89427
2.89634
2.89737
2.89945
2.90049
2.90257
2.90363
2.90572
2.9068
2.90888
2.90998
2.91206
2.9132
2.91423
2.91584
2.91692
2.91692
2.91692
2.91692
2.91692
2.91692
2.91692
2.91692
2.91692
2.91692
2.91692
2.91692
2.91692
2.91692
2.91692
2.91692
2.91692
2.91692
2.91692
2.91692
)
;

boundaryField
{
    movingWall
    {
        type            calculated;
        value           nonuniform List<scalar> 
20
(
2.91692
2.91692
2.91692
2.91692
2.91692
2.91692
2.91692
2.91692
2.91692
2.91692
2.91692
2.91692
2.91692
2.91692
2.91692
2.91692
2.91692
2.91692
2.91692
2.91692
)
;
    }
    fixedWalls
    {
        type            calculated;
        value           nonuniform List<scalar> 
60
(
2.7463
2.76177
2.78703
2.81488
2.8397
2.85894
2.87251
2.88158
2.88757
2.89171
2.89485
2.89756
2.90017
2.90285
2.90567
2.90858
2.91146
2.91404
2.91601
2.91692
2.7463
2.76163
2.78688
2.81472
2.83954
2.85878
2.87235
2.88141
2.88741
2.89154
2.89469
2.8974
2.9
2.90268
2.90549
2.90841
2.91129
2.91387
2.91584
2.91692
2.7463
2.7463
2.7463
2.7463
2.7463
2.7463
2.7463
2.7463
2.7463
2.7463
2.7463
2.7463
2.7463
2.7463
2.7463
2.7463
2.7463
2.7463
2.7463
2.7463
)
;
    }
    frontAndBack
    {
        type            empty;
    }
}


// ************************************************************************* //
