/*--------------------------------*- C++ -*----------------------------------*\
| =========                 |                                                 |
| \\      /  F ield         | OpenFOAM: The Open Source CFD Toolbox           |
|  \\    /   O peration     | Version:  2506                                  |
|   \\  /    A nd           | Website:  www.openfoam.com                      |
|    \\/     M anipulation  |                                                 |
\*---------------------------------------------------------------------------*/
FoamFile
{
    version     2.0;
    format      ascii;
    arch        "LSB;label=32;scalar=64";
    class       volScalarField;
    location    "10";
    object      turbulenceProperties:k;
}
// * * * * * * * * * * * * * * * * * * * * * * * * * * * * * * * * * * * * * //

dimensions      [0 2 -2 0 0 0 0];

internalField   nonuniform List<scalar> 
400
(
2.36859e-06
2.36859e-06
2.36859e-06
2.36859e-06
2.36859e-06
2.36859e-06
2.36859e-06
2.36859e-06
2.36859e-06
2.36859e-06
2.36859e-06
2.36858e-06
2.36858e-06
2.36858e-06
2.36858e-06
2.36858e-06
2.36858e-06
2.36858e-06
2.36858e-06
2.36858e-06
2.39524e-06
2.39524e-06
2.39519e-06
2.39518e-06
2.39515e-06
2.39513e-06
2.39511e-06
2.39509e-06
2.39508e-06
2.39505e-06
2.39505e-06
2.39503e-06
2.39503e-06
2.39501e-06
2.39501e-06
2.395e-06
2.395e-06
2.39499e-06
2.39499e-06
2.39499e-06
2.43908e-06
2.43908e-06
2.43903e-06
2.43901e-06
2.43898e-06
2.43897e-06
2.43894e-06
2.43892e-06
2.43891e-06
2.43889e-06
2.43888e-06
2.43886e-06
2.43885e-06
2.43885e-06
2.43883e-06
2.43883e-06
2.43882e-06
2.43882e-06
2.43882e-06
2.43882e-06
2.48791e-06
2.48791e-06
2.48786e-06
2.48784e-06
2.48781e-06
2.48779e-06
2.48777e-06
2.48775e-06
2.48773e-06
2.48771e-06
2.4877e-06
2.48768e-06
2.48767e-06
2.48766e-06
2.48765e-06
2.48765e-06
2.48764e-06
2.48764e-06
2.48764e-06
2.48763e-06
2.53187e-06
2.53187e-06
2.53181e-06
2.53179e-06
2.53177e-06
2.53174e-06
2.53172e-06
2.5317e-06
2.53168e-06
2.53166e-06
2.53165e-06
2.53163e-06
2.53162e-06
2.53161e-06
2.5316e-06
2.53159e-06
2.53159e-06
2.53158e-06
2.53158e-06
2.53158e-06
2.56623e-06
2.56623e-06
2.56617e-06
2.56615e-06
2.56612e-06
2.5661e-06
2.56608e-06
2.56605e-06
2.56604e-06
2.56601e-06
2.56601e-06
2.56598e-06
2.56598e-06
2.56596e-06
2.56596e-06
2.56594e-06
2.56594e-06
2.56594e-06
2.56593e-06
2.56593e-06
2.59062e-06
2.59062e-06
2.59056e-06
2.59055e-06
2.59051e-06
2.59049e-06
2.59047e-06
2.59044e-06
2.59042e-06
2.59041e-06
2.59039e-06
2.59038e-06
2.59036e-06
2.59035e-06
2.59034e-06
2.59034e-06
2.59033e-06
2.59033e-06
2.59032e-06
2.59032e-06
2.60699e-06
2.60699e-06
2.60693e-06
2.60691e-06
2.60687e-06
2.60686e-06
2.60683e-06
2.60681e-06
2.60679e-06
2.60677e-06
2.60675e-06
2.60674e-06
2.60672e-06
2.60671e-06
2.6067e-06
2.6067e-06
2.60669e-06
2.60669e-06
2.60669e-06
2.60668e-06
2.61783e-06
2.61783e-06
2.61777e-06
2.61776e-06
2.61772e-06
2.6177e-06
2.61768e-06
2.61765e-06
2.61764e-06
2.61761e-06
2.6176e-06
2.61758e-06
2.61757e-06
2.61756e-06
2.61755e-06
2.61754e-06
2.61754e-06
2.61753e-06
2.61753e-06
2.61753e-06
2.62533e-06
2.62533e-06
2.62528e-06
2.62526e-06
2.62522e-06
2.6252e-06
2.62518e-06
2.62515e-06
2.62514e-06
2.62511e-06
2.6251e-06
2.62508e-06
2.62507e-06
2.62505e-06
2.62505e-06
2.62504e-06
2.62503e-06
2.62503e-06
2.62503e-06
2.62503e-06
2.63104e-06
2.63104e-06
2.63099e-06
2.63097e-06
2.63093e-06
2.63091e-06
2.63089e-06
2.63086e-06
2.63084e-06
2.63082e-06
2.63081e-06
2.63079e-06
2.63078e-06
2.63076e-06
2.63076e-06
2.63075e-06
2.63074e-06
2.63074e-06
2.63074e-06
2.63074e-06
2.63596e-06
2.63596e-06
2.63591e-06
2.63589e-06
2.63586e-06
2.63583e-06
2.63581e-06
2.63578e-06
2.63577e-06
2.63574e-06
2.63573e-06
2.63571e-06
2.6357e-06
2.63568e-06
2.63568e-06
2.63567e-06
2.63567e-06
2.63566e-06
2.63566e-06
2.63566e-06
2.6407e-06
2.6407e-06
2.64064e-06
2.64062e-06
2.64059e-06
2.64057e-06
2.64054e-06
2.64052e-06
2.64049e-06
2.64048e-06
2.64046e-06
2.64045e-06
2.64043e-06
2.64042e-06
2.64041e-06
2.6404e-06
2.6404e-06
2.64039e-06
2.64039e-06
2.64039e-06
2.64557e-06
2.64557e-06
2.64552e-06
2.64549e-06
2.64546e-06
2.64544e-06
2.6454e-06
2.64539e-06
2.64536e-06
2.64535e-06
2.64533e-06
2.64531e-06
2.6453e-06
2.64529e-06
2.64528e-06
2.64527e-06
2.64527e-06
2.64526e-06
2.64526e-06
2.64526e-06
2.6507e-06
2.6507e-06
2.65063e-06
2.65062e-06
2.65058e-06
2.65056e-06
2.65054e-06
2.65051e-06
2.65049e-06
2.65047e-06
2.65046e-06
2.65044e-06
2.65043e-06
2.65041e-06
2.65041e-06
2.6504e-06
2.65039e-06
2.65039e-06
2.65039e-06
2.65038e-06
2.65601e-06
2.65601e-06
2.65595e-06
2.65593e-06
2.6559e-06
2.65587e-06
2.65585e-06
2.65582e-06
2.65581e-06
2.65578e-06
2.65578e-06
2.65575e-06
2.65575e-06
2.65572e-06
2.65573e-06
2.65571e-06
2.65571e-06
2.6557e-06
2.6557e-06
2.6557e-06
2.66125e-06
2.66125e-06
2.66119e-06
2.66118e-06
2.66113e-06
2.66112e-06
2.66108e-06
2.66107e-06
2.66104e-06
2.66103e-06
2.66101e-06
2.66099e-06
2.66098e-06
2.66097e-06
2.66096e-06
2.66095e-06
2.66094e-06
2.66094e-06
2.66094e-06
2.66094e-06
2.66596e-06
2.66596e-06
2.6659e-06
2.66588e-06
2.66584e-06
2.66582e-06
2.66579e-06
2.66577e-06
2.66575e-06
2.66573e-06
2.66571e-06
2.6657e-06
2.66568e-06
2.66568e-06
2.66566e-06
2.66566e-06
2.66565e-06
2.66565e-06
2.66564e-06
2.66564e-06
2.66955e-06
2.66955e-06
2.6695e-06
2.66948e-06
2.66944e-06
2.66942e-06
2.66939e-06
2.66938e-06
2.66935e-06
2.66934e-06
2.66932e-06
2.6693e-06
2.66929e-06
2.66928e-06
2.66927e-06
2.66926e-06
2.66925e-06
2.66925e-06
2.66925e-06
2.66925e-06
2.67122e-06
2.67121e-06
2.67121e-06
2.67121e-06
2.67121e-06
2.67121e-06
2.67121e-06
2.67121e-06
2.67121e-06
2.67121e-06
2.67121e-06
2.67121e-06
2.67121e-06
2.67121e-06
2.67121e-06
2.67121e-06
2.67121e-06
2.67121e-06
2.67121e-06
2.67121e-06
)
;

boundaryField
{
    movingWall
    {
        type            kqRWallFunction;
        value           nonuniform List<scalar> 
20
(
2.67122e-06
2.67121e-06
2.67121e-06
2.67121e-06
2.67121e-06
2.67121e-06
2.67121e-06
2.67121e-06
2.67121e-06
2.67121e-06
2.67121e-06
2.67121e-06
2.67121e-06
2.67121e-06
2.67121e-06
2.67121e-06
2.67121e-06
2.67121e-06
2.67121e-06
2.67121e-06
)
;
    }
    fixedWalls
    {
        type            kqRWallFunction;
        value           nonuniform List<scalar> 
60
(
2.36859e-06
2.39524e-06
2.43908e-06
2.48791e-06
2.53187e-06
2.56623e-06
2.59062e-06
2.60699e-06
2.61783e-06
2.62533e-06
2.63104e-06
2.63596e-06
2.6407e-06
2.64557e-06
2.6507e-06
2.65601e-06
2.66125e-06
2.66596e-06
2.66955e-06
2.67122e-06
2.36858e-06
2.39499e-06
2.43882e-06
2.48763e-06
2.53158e-06
2.56593e-06
2.59032e-06
2.60668e-06
2.61753e-06
2.62503e-06
2.63074e-06
2.63566e-06
2.64039e-06
2.64526e-06
2.65038e-06
2.6557e-06
2.66094e-06
2.66564e-06
2.66925e-06
2.67121e-06
2.36859e-06
2.36859e-06
2.36859e-06
2.36859e-06
2.36859e-06
2.36859e-06
2.36859e-06
2.36859e-06
2.36859e-06
2.36859e-06
2.36859e-06
2.36858e-06
2.36858e-06
2.36858e-06
2.36858e-06
2.36858e-06
2.36858e-06
2.36858e-06
2.36858e-06
2.36858e-06
)
;
    }
    frontAndBack
    {
        type            empty;
    }
}


// ************************************************************************* //
