/*--------------------------------*- C++ -*----------------------------------*\
| =========                 |                                                 |
| \\      /  F ield         | OpenFOAM: The Open Source CFD Toolbox           |
|  \\    /   O peration     | Version:  2506                                  |
|   \\  /    A nd           | Website:  www.openfoam.com                      |
|    \\/     M anipulation  |                                                 |
\*---------------------------------------------------------------------------*/
FoamFile
{
    version     2.0;
    format      ascii;
    arch        "LSB;label=32;scalar=64";
    class       volScalarField;
    location    "10";
    object      turbulenceProperties:epsilon;
}
// * * * * * * * * * * * * * * * * * * * * * * * * * * * * * * * * * * * * * //

dimensions      [0 2 -3 0 0 0 0];

internalField   nonuniform List<scalar> 
400
(
5.85437e-07
5.85437e-07
5.85437e-07
5.85437e-07
5.85436e-07
5.85437e-07
5.85436e-07
5.85436e-07
5.85436e-07
5.85436e-07
5.85436e-07
5.85436e-07
5.85436e-07
5.85436e-07
5.85436e-07
5.85436e-07
5.85436e-07
5.85436e-07
5.85436e-07
5.85436e-07
5.95359e-07
5.8988e-07
5.90348e-07
5.90543e-07
5.90932e-07
5.91128e-07
5.91521e-07
5.91719e-07
5.92114e-07
5.92315e-07
5.92712e-07
5.92917e-07
5.93315e-07
5.93525e-07
5.93923e-07
5.94138e-07
5.94535e-07
5.94758e-07
5.94956e-07
5.95266e-07
6.11801e-07
6.06019e-07
6.06521e-07
6.0673e-07
6.07146e-07
6.07354e-07
6.07772e-07
6.07981e-07
6.08402e-07
6.08612e-07
6.09034e-07
6.09246e-07
6.09669e-07
6.09883e-07
6.10306e-07
6.10525e-07
6.10945e-07
6.1117e-07
6.11379e-07
6.11701e-07
6.30283e-07
6.24269e-07
6.24792e-07
6.25008e-07
6.25441e-07
6.25658e-07
6.26093e-07
6.2631e-07
6.26748e-07
6.26966e-07
6.27406e-07
6.27626e-07
6.28066e-07
6.28289e-07
6.28728e-07
6.28956e-07
6.29393e-07
6.29627e-07
6.29844e-07
6.30179e-07
6.47076e-07
6.40845e-07
6.41387e-07
6.41611e-07
6.4206e-07
6.42284e-07
6.42735e-07
6.4296e-07
6.43413e-07
6.43639e-07
6.44094e-07
6.44322e-07
6.44778e-07
6.45009e-07
6.45464e-07
6.457e-07
6.46152e-07
6.46395e-07
6.4662e-07
6.46967e-07
6.60301e-07
6.53899e-07
6.54455e-07
6.54686e-07
6.55146e-07
6.55376e-07
6.5584e-07
6.56071e-07
6.56537e-07
6.56769e-07
6.57237e-07
6.57471e-07
6.57939e-07
6.58176e-07
6.58644e-07
6.58886e-07
6.59352e-07
6.59601e-07
6.59832e-07
6.60189e-07
6.69743e-07
6.63217e-07
6.63783e-07
6.64019e-07
6.64488e-07
6.64723e-07
6.65195e-07
6.65431e-07
6.65905e-07
6.66142e-07
6.66619e-07
6.66857e-07
6.67335e-07
6.67577e-07
6.68054e-07
6.68301e-07
6.68775e-07
6.69029e-07
6.69264e-07
6.69628e-07
6.76102e-07
6.69491e-07
6.70065e-07
6.70303e-07
6.70778e-07
6.71016e-07
6.71495e-07
6.71733e-07
6.72214e-07
6.72454e-07
6.72936e-07
6.73178e-07
6.73662e-07
6.73907e-07
6.7439e-07
6.7464e-07
6.7512e-07
6.75377e-07
6.75616e-07
6.75984e-07
6.80327e-07
6.7366e-07
6.74239e-07
6.74479e-07
6.74958e-07
6.75198e-07
6.7568e-07
6.75921e-07
6.76406e-07
6.76647e-07
6.77134e-07
6.77378e-07
6.77866e-07
6.78113e-07
6.786e-07
6.78852e-07
6.79337e-07
6.79596e-07
6.79837e-07
6.80208e-07
6.83252e-07
6.76547e-07
6.77129e-07
6.77371e-07
6.77853e-07
6.78094e-07
6.78579e-07
6.78821e-07
6.79309e-07
6.79552e-07
6.80042e-07
6.80287e-07
6.80778e-07
6.81026e-07
6.81516e-07
6.8177e-07
6.82257e-07
6.82518e-07
6.8276e-07
6.83134e-07
6.85484e-07
6.78748e-07
6.79333e-07
6.79576e-07
6.8006e-07
6.80302e-07
6.8079e-07
6.81032e-07
6.81522e-07
6.81766e-07
6.82258e-07
6.82504e-07
6.82997e-07
6.83247e-07
6.83739e-07
6.83994e-07
6.84483e-07
6.84745e-07
6.84988e-07
6.85364e-07
6.87409e-07
6.80648e-07
6.81235e-07
6.81479e-07
6.81965e-07
6.82208e-07
6.82697e-07
6.82941e-07
6.83433e-07
6.83678e-07
6.84171e-07
6.84418e-07
6.84913e-07
6.85164e-07
6.85657e-07
6.85913e-07
6.86405e-07
6.86668e-07
6.86912e-07
6.87288e-07
6.89262e-07
6.82477e-07
6.83066e-07
6.83311e-07
6.83799e-07
6.84043e-07
6.84534e-07
6.84778e-07
6.85272e-07
6.85518e-07
6.86013e-07
6.86261e-07
6.86758e-07
6.87009e-07
6.87505e-07
6.87761e-07
6.88254e-07
6.88518e-07
6.88763e-07
6.89141e-07
6.91172e-07
6.84361e-07
6.84952e-07
6.85198e-07
6.85687e-07
6.85932e-07
6.86425e-07
6.8667e-07
6.87166e-07
6.87413e-07
6.8791e-07
6.88159e-07
6.88657e-07
6.88909e-07
6.89407e-07
6.89665e-07
6.90159e-07
6.90424e-07
6.9067e-07
6.9105e-07
6.93183e-07
6.86346e-07
6.8694e-07
6.87186e-07
6.87678e-07
6.87923e-07
6.88418e-07
6.88665e-07
6.89162e-07
6.8941e-07
6.89909e-07
6.90159e-07
6.90659e-07
6.90912e-07
6.91412e-07
6.9167e-07
6.92167e-07
6.92433e-07
6.9268e-07
6.93061e-07
6.95271e-07
6.88407e-07
6.89003e-07
6.8925e-07
6.89743e-07
6.8999e-07
6.90487e-07
6.90734e-07
6.91233e-07
6.91482e-07
6.91984e-07
6.92234e-07
6.92737e-07
6.92991e-07
6.93492e-07
6.93752e-07
6.94251e-07
6.94518e-07
6.94766e-07
6.95148e-07
6.9733e-07
6.90439e-07
6.91038e-07
6.91286e-07
6.91781e-07
6.92029e-07
6.92528e-07
6.92776e-07
6.93277e-07
6.93527e-07
6.9403e-07
6.94282e-07
6.94786e-07
6.95042e-07
6.95545e-07
6.95806e-07
6.96306e-07
6.96574e-07
6.96823e-07
6.97207e-07
6.99183e-07
6.92269e-07
6.92869e-07
6.93118e-07
6.93615e-07
6.93863e-07
6.94363e-07
6.94613e-07
6.95115e-07
6.95366e-07
6.95871e-07
6.96124e-07
6.96629e-07
6.96886e-07
6.9739e-07
6.97653e-07
6.98155e-07
6.98424e-07
6.98674e-07
6.99059e-07
7.00599e-07
6.93797e-07
6.94377e-07
6.94618e-07
6.95101e-07
6.95343e-07
6.95831e-07
6.96075e-07
6.96567e-07
6.96813e-07
6.9731e-07
6.97559e-07
6.98059e-07
6.98313e-07
6.98813e-07
6.99075e-07
6.99573e-07
6.99845e-07
7.00093e-07
7.00478e-07
7.01255e-07
7.01254e-07
7.01254e-07
7.01254e-07
7.01254e-07
7.01254e-07
7.01254e-07
7.01254e-07
7.01253e-07
7.01253e-07
7.01253e-07
7.01253e-07
7.01253e-07
7.01253e-07
7.01253e-07
7.01253e-07
7.01253e-07
7.01253e-07
7.01253e-07
7.01253e-07
)
;

boundaryField
{
    movingWall
    {
        type            epsilonWallFunction;
        blending        stepwise;
        value           nonuniform List<scalar> 
20
(
7.01255e-07
7.01254e-07
7.01254e-07
7.01254e-07
7.01254e-07
7.01254e-07
7.01254e-07
7.01254e-07
7.01253e-07
7.01253e-07
7.01253e-07
7.01253e-07
7.01253e-07
7.01253e-07
7.01253e-07
7.01253e-07
7.01253e-07
7.01253e-07
7.01253e-07
7.01253e-07
)
;
    }
    fixedWalls
    {
        type            epsilonWallFunction;
        blending        stepwise;
        value           nonuniform List<scalar> 
60
(
5.85437e-07
5.95359e-07
6.11801e-07
6.30283e-07
6.47076e-07
6.60301e-07
6.69743e-07
6.76102e-07
6.80327e-07
6.83252e-07
6.85484e-07
6.87409e-07
6.89262e-07
6.91172e-07
6.93183e-07
6.95271e-07
6.9733e-07
6.99183e-07
7.00599e-07
7.01255e-07
5.85436e-07
5.95266e-07
6.11701e-07
6.30179e-07
6.46967e-07
6.60189e-07
6.69628e-07
6.75984e-07
6.80208e-07
6.83134e-07
6.85364e-07
6.87288e-07
6.89141e-07
6.9105e-07
6.93061e-07
6.95148e-07
6.97207e-07
6.99059e-07
7.00478e-07
7.01253e-07
5.85437e-07
5.85437e-07
5.85437e-07
5.85437e-07
5.85436e-07
5.85437e-07
5.85436e-07
5.85436e-07
5.85436e-07
5.85436e-07
5.85436e-07
5.85436e-07
5.85436e-07
5.85436e-07
5.85436e-07
5.85436e-07
5.85436e-07
5.85436e-07
5.85436e-07
5.85436e-07
)
;
    }
    frontAndBack
    {
        type            empty;
    }
}


// ************************************************************************* //
