/*--------------------------------*- C++ -*----------------------------------*\
| =========                 |                                                 |
| \\      /  F ield         | OpenFOAM: The Open Source CFD Toolbox           |
|  \\    /   O peration     | Version:  2506                                  |
|   \\  /    A nd           | Website:  www.openfoam.com                      |
|    \\/     M anipulation  |                                                 |
\*---------------------------------------------------------------------------*/
FoamFile
{
    version     2.0;
    format      ascii;
    arch        "LSB;label=32;scalar=64";
    class       volScalarField;
    location    "10";
    object      turbulenceProperties:nuTilda;
}
// * * * * * * * * * * * * * * * * * * * * * * * * * * * * * * * * * * * * * //

dimensions      [0 2 -1 0 0 0 0];

internalField   nonuniform List<scalar> 
400
(
8.62465e-07
8.62465e-07
8.62465e-07
8.62465e-07
8.62465e-07
8.62464e-07
8.62465e-07
8.62464e-07
8.62464e-07
8.62464e-07
8.62464e-07
8.62464e-07
8.62464e-07
8.62464e-07
8.62464e-07
8.62464e-07
8.62464e-07
8.62464e-07
8.62464e-07
8.62464e-07
8.67283e-07
8.75339e-07
8.74611e-07
8.74311e-07
8.73718e-07
8.73408e-07
8.72821e-07
8.72508e-07
8.71923e-07
8.71606e-07
8.71021e-07
8.70703e-07
8.70119e-07
8.69798e-07
8.69215e-07
8.68891e-07
8.6831e-07
8.67981e-07
8.67692e-07
8.67238e-07
8.75154e-07
8.83503e-07
8.82739e-07
8.82422e-07
8.81794e-07
8.8148e-07
8.80854e-07
8.8054e-07
8.79918e-07
8.79603e-07
8.78983e-07
8.78668e-07
8.78049e-07
8.77736e-07
8.7712e-07
8.76803e-07
8.76195e-07
8.75871e-07
8.7557e-07
8.75108e-07
8.83842e-07
8.92357e-07
8.9158e-07
8.91253e-07
8.90617e-07
8.90294e-07
8.89657e-07
8.89336e-07
8.887e-07
8.8838e-07
8.87746e-07
8.87425e-07
8.86796e-07
8.86473e-07
8.85847e-07
8.85524e-07
8.84903e-07
8.84573e-07
8.84266e-07
8.83795e-07
8.91598e-07
9.00266e-07
8.99469e-07
8.9914e-07
8.98491e-07
8.98159e-07
8.97517e-07
8.97185e-07
8.96543e-07
8.96211e-07
8.95573e-07
8.95239e-07
8.94604e-07
8.94271e-07
8.93639e-07
8.93303e-07
8.92677e-07
8.92338e-07
8.92026e-07
8.91547e-07
8.97615e-07
9.06404e-07
9.05596e-07
9.05263e-07
9.04603e-07
9.0427e-07
9.03616e-07
9.03279e-07
9.0263e-07
9.02291e-07
9.01646e-07
9.01307e-07
9.00664e-07
9.00324e-07
8.99685e-07
8.99344e-07
8.98709e-07
8.98365e-07
8.9805e-07
8.97564e-07
9.01865e-07
9.1074e-07
9.09923e-07
9.0959e-07
9.08923e-07
9.08587e-07
9.07924e-07
9.07587e-07
9.06926e-07
9.06592e-07
9.05931e-07
9.05598e-07
9.0494e-07
9.04605e-07
9.03952e-07
9.03613e-07
9.02969e-07
9.02624e-07
9.02304e-07
9.01813e-07
9.04706e-07
9.1364e-07
9.12817e-07
9.12482e-07
9.11808e-07
9.11473e-07
9.10804e-07
9.10467e-07
9.09801e-07
9.09465e-07
9.08799e-07
9.08464e-07
9.07801e-07
9.07464e-07
9.06807e-07
9.06466e-07
9.05817e-07
9.0547e-07
9.05148e-07
9.04654e-07
9.06586e-07
9.15558e-07
9.1473e-07
9.14393e-07
9.1372e-07
9.13379e-07
9.12711e-07
9.1237e-07
9.11703e-07
9.11363e-07
9.10699e-07
9.10357e-07
9.09697e-07
9.09354e-07
9.08698e-07
9.08352e-07
9.07702e-07
9.07352e-07
9.07029e-07
9.06533e-07
9.07883e-07
9.16882e-07
9.16053e-07
9.15714e-07
9.15037e-07
9.14697e-07
9.14026e-07
9.13683e-07
9.13017e-07
9.12672e-07
9.12008e-07
9.11664e-07
9.11003e-07
9.10658e-07
9.1e-07
9.09654e-07
9.09001e-07
9.08651e-07
9.08327e-07
9.0783e-07
9.08869e-07
9.17887e-07
9.17058e-07
9.16716e-07
9.16041e-07
9.15697e-07
9.15026e-07
9.14681e-07
9.14014e-07
9.13668e-07
9.13004e-07
9.12658e-07
9.11996e-07
9.11649e-07
9.10992e-07
9.10643e-07
9.09991e-07
9.09638e-07
9.09314e-07
9.08815e-07
9.09717e-07
9.18753e-07
9.17922e-07
9.1758e-07
9.16904e-07
9.16559e-07
9.15887e-07
9.1554e-07
9.14874e-07
9.14525e-07
9.13861e-07
9.13513e-07
9.12852e-07
9.12503e-07
9.11845e-07
9.11494e-07
9.10842e-07
9.10488e-07
9.10164e-07
9.09664e-07
9.10533e-07
9.19586e-07
9.18751e-07
9.18412e-07
9.1773e-07
9.1739e-07
9.16711e-07
9.1637e-07
9.15694e-07
9.15354e-07
9.14679e-07
9.1434e-07
9.13668e-07
9.13327e-07
9.12661e-07
9.12315e-07
9.11658e-07
9.11306e-07
9.1098e-07
9.10479e-07
9.1137e-07
9.20438e-07
9.19608e-07
9.19263e-07
9.18581e-07
9.1824e-07
9.17558e-07
9.17218e-07
9.1654e-07
9.16199e-07
9.15525e-07
9.15183e-07
9.14512e-07
9.14172e-07
9.13502e-07
9.13158e-07
9.12497e-07
9.12146e-07
9.11818e-07
9.11317e-07
9.12251e-07
9.21338e-07
9.20499e-07
9.20158e-07
9.19477e-07
9.19131e-07
9.18455e-07
9.18109e-07
9.17434e-07
9.17088e-07
9.16417e-07
9.1607e-07
9.15402e-07
9.15054e-07
9.1439e-07
9.1404e-07
9.13382e-07
9.13027e-07
9.127e-07
9.12198e-07
9.13164e-07
9.22268e-07
9.21431e-07
9.21086e-07
9.20404e-07
9.20057e-07
9.1938e-07
9.1903e-07
9.18359e-07
9.18007e-07
9.1734e-07
9.16987e-07
9.16322e-07
9.15969e-07
9.15308e-07
9.14954e-07
9.14297e-07
9.1394e-07
9.13613e-07
9.1311e-07
9.14061e-07
9.23186e-07
9.22342e-07
9.22003e-07
9.21313e-07
9.20972e-07
9.20286e-07
9.19945e-07
9.19262e-07
9.18921e-07
9.18239e-07
9.17899e-07
9.1722e-07
9.16877e-07
9.16206e-07
9.15858e-07
9.15195e-07
9.1484e-07
9.14512e-07
9.14007e-07
9.14866e-07
9.24003e-07
9.23166e-07
9.2282e-07
9.22132e-07
9.21788e-07
9.21102e-07
9.20759e-07
9.20077e-07
9.19732e-07
9.19054e-07
9.18709e-07
9.18032e-07
9.17689e-07
9.17015e-07
9.16668e-07
9.16003e-07
9.15648e-07
9.15318e-07
9.14813e-07
9.15481e-07
9.24458e-07
9.23648e-07
9.23315e-07
9.22645e-07
9.22314e-07
9.21644e-07
9.21311e-07
9.20642e-07
9.20307e-07
9.19638e-07
9.19299e-07
9.18632e-07
9.18288e-07
9.17625e-07
9.17277e-07
9.16619e-07
9.1626e-07
9.15934e-07
9.15429e-07
9.15766e-07
9.15766e-07
9.15766e-07
9.15766e-07
9.15766e-07
9.15766e-07
9.15765e-07
9.15765e-07
9.15765e-07
9.15765e-07
9.15765e-07
9.15765e-07
9.15765e-07
9.15765e-07
9.15765e-07
9.15765e-07
9.15765e-07
9.15765e-07
9.15765e-07
9.15765e-07
)
;

boundaryField
{
    movingWall
    {
        type            calculated;
        value           nonuniform List<scalar> 
20
(
9.15766e-07
9.15766e-07
9.15766e-07
9.15766e-07
9.15766e-07
9.15766e-07
9.15765e-07
9.15765e-07
9.15765e-07
9.15765e-07
9.15765e-07
9.15765e-07
9.15765e-07
9.15765e-07
9.15765e-07
9.15765e-07
9.15765e-07
9.15765e-07
9.15765e-07
9.15765e-07
)
;
    }
    fixedWalls
    {
        type            calculated;
        value           nonuniform List<scalar> 
60
(
8.62465e-07
8.67283e-07
8.75154e-07
8.83842e-07
8.91598e-07
8.97615e-07
9.01865e-07
9.04706e-07
9.06586e-07
9.07883e-07
9.08869e-07
9.09717e-07
9.10533e-07
9.1137e-07
9.12251e-07
9.13164e-07
9.14061e-07
9.14866e-07
9.15481e-07
9.15766e-07
8.62464e-07
8.67238e-07
8.75108e-07
8.83795e-07
8.91547e-07
8.97564e-07
9.01813e-07
9.04654e-07
9.06533e-07
9.0783e-07
9.08815e-07
9.09664e-07
9.10479e-07
9.11317e-07
9.12198e-07
9.1311e-07
9.14007e-07
9.14813e-07
9.15429e-07
9.15765e-07
8.62465e-07
8.62465e-07
8.62465e-07
8.62465e-07
8.62465e-07
8.62464e-07
8.62465e-07
8.62464e-07
8.62464e-07
8.62464e-07
8.62464e-07
8.62464e-07
8.62464e-07
8.62464e-07
8.62464e-07
8.62464e-07
8.62464e-07
8.62464e-07
8.62464e-07
8.62464e-07
)
;
    }
    frontAndBack
    {
        type            empty;
    }
}


// ************************************************************************* //
