/*--------------------------------*- C++ -*----------------------------------*\
| =========                 |                                                 |
| \\      /  F ield         | OpenFOAM: The Open Source CFD Toolbox           |
|  \\    /   O peration     | Version:  2506                                  |
|   \\  /    A nd           | Website:  www.openfoam.com                      |
|    \\/     M anipulation  |                                                 |
\*---------------------------------------------------------------------------*/
FoamFile
{
    version     2.0;
    format      ascii;
    arch        "LSB;label=32;scalar=64";
    class       volTensorField;
    location    "10";
    object      U2;
}
// * * * * * * * * * * * * * * * * * * * * * * * * * * * * * * * * * * * * * //

dimensions      [0 2 -2 0 0 0 0];

internalField   nonuniform List<tensor> 
400
(
(1 -1.97026e-13 -0 -1.96561e-13 3.87276e-26 0 -0 0 0)
(1 4.28688e-14 -0 4.30202e-14 1.84423e-27 -0 -0 -0 0)
(1 -9.95396e-15 -0 -9.94981e-15 9.904e-29 0 -0 0 0)
(1 2.32979e-15 -0 2.23608e-15 5.20958e-30 -0 -0 -0 0)
(1 -4.48546e-16 -0 -4.96728e-16 2.22805e-31 0 -0 0 0)
(1 1.39237e-16 -0 4.48014e-17 6.23801e-33 -0 -0 -0 0)
(1 -1.44168e-16 -0 -2.13656e-16 3.08022e-32 0 -0 0 0)
(1 -2.10651e-16 -0 -2.25148e-16 4.74276e-32 0 -0 0 0)
(1 -1.82296e-16 -0 -1.2937e-16 2.35838e-32 0 -0 0 0)
(1 -1.39545e-16 -0 -1.08708e-16 1.51696e-32 0 -0 0 0)
(1 -1.29998e-16 -0 -1.24958e-16 1.62444e-32 0 -0 0 0)
(1 -1.69299e-16 -0 -1.13258e-16 1.91745e-32 0 -0 0 0)
(1 -1.43204e-16 -0 -6.22177e-17 8.90982e-33 0 -0 0 0)
(1 4.75451e-18 -0 7.88364e-17 3.74828e-34 -0 -0 -0 0)
(1 9.30873e-17 -0 2.49893e-17 2.32618e-33 -0 -0 -0 0)
(1 2.84392e-17 -0 -3.23519e-17 -9.20063e-34 0 -0 -0 0)
(1 -9.38808e-18 -0 6.28971e-17 -5.90483e-34 -0 -0 0 0)
(1 -4.11695e-18 -0 4.439e-17 -1.82751e-34 -0 -0 0 0)
(1 5.59337e-17 -0 -2.17974e-17 -1.21921e-33 0 -0 -0 0)
(1 -4.73647e-18 -0 -4.4216e-17 2.09428e-34 0 -0 0 0)
(1 8.37836e-15 -0 9.40473e-15 7.87962e-29 -0 -0 -0 0)
(1 -1.97194e-15 -0 -1.86826e-15 3.6841e-30 0 -0 0 0)
(1 3.20888e-16 -0 4.09448e-16 1.31387e-31 -0 -0 -0 0)
(1 -5.97847e-17 -0 -1.59241e-16 9.52016e-33 0 -0 0 0)
(1 -2.08915e-17 -0 -9.85995e-17 2.05989e-33 0 -0 0 0)
(1 -1.05527e-16 -0 -1.32419e-16 1.39738e-32 0 -0 0 0)
(1 -1.74705e-16 -0 -2.3162e-16 4.0465e-32 0 -0 0 0)
(1 -1.8331e-16 -0 -1.82828e-16 3.35143e-32 0 -0 0 0)
(1 -1.64663e-16 -0 -6.54049e-17 1.07698e-32 0 -0 0 0)
(1 -1.01621e-16 -0 -1.81467e-17 1.84408e-33 0 -0 0 0)
(1 -6.68075e-17 -0 -8.36292e-17 5.58706e-33 0 -0 0 0)
(1 -8.60452e-17 -0 -8.42515e-17 7.24944e-33 0 -0 0 0)
(1 -4.09675e-17 -0 3.18109e-17 -1.30321e-33 -0 -0 0 0)
(1 8.74607e-17 -0 1.42436e-16 1.24575e-32 -0 -0 -0 0)
(1 1.0736e-16 -0 -3.83692e-18 -4.11933e-34 0 -0 -0 0)
(1 -7.39378e-17 -0 -1.58851e-16 1.17451e-32 0 -0 0 0)
(1 -8.64543e-17 -0 3.05774e-17 -2.64354e-33 -0 -0 0 0)
(1 1.6261e-17 -0 1.19015e-16 1.9353e-33 -0 -0 -0 0)
(1 1.72428e-16 -0 7.16245e-17 1.23501e-32 -0 -0 -0 0)
(1 7.83721e-17 -0 2.42095e-17 1.89735e-33 -0 -0 -0 0)
(1 1.65551e-13 -0 1.65644e-13 2.74225e-26 -0 -0 -0 0)
(1 -3.6884e-14 -0 -3.66331e-14 1.35118e-27 0 -0 0 0)
(1 8.49433e-15 -0 8.60152e-15 7.30641e-29 -0 -0 -0 0)
(1 -2.0209e-15 -0 -1.93071e-15 3.90177e-30 0 -0 0 0)
(1 3.9755e-16 -0 3.75827e-16 1.4941e-31 -0 -0 -0 0)
(1 -2.11691e-16 -0 -1.45676e-16 3.08381e-32 0 -0 0 0)
(1 -6.87086e-17 -0 -6.52272e-17 4.48167e-33 0 -0 0 0)
(1 -1.04042e-16 -0 -8.39658e-17 8.73597e-33 0 -0 0 0)
(1 -1.27081e-16 -0 -5.38836e-17 6.84757e-33 0 -0 0 0)
(1 -5.24899e-17 -0 3.34811e-17 -1.75742e-33 -0 -0 0 0)
(1 5.61899e-17 -0 7.93727e-17 4.45995e-33 -0 -0 -0 0)
(1 8.94214e-17 -0 4.69493e-17 4.19827e-33 -0 -0 -0 0)
(1 8.66613e-17 -0 5.0831e-17 4.40508e-33 -0 -0 -0 0)
(1 7.63009e-17 -0 5.36699e-17 4.09506e-33 -0 -0 -0 0)
(1 6.63603e-17 -0 3.47524e-17 2.30618e-33 -0 -0 -0 0)
(1 -3.9019e-17 -0 -7.02486e-17 2.74103e-33 0 -0 0 0)
(1 -5.19003e-17 -0 -2.96607e-17 1.5394e-33 0 -0 0 0)
(1 1.27815e-16 -0 1.89839e-16 2.42642e-32 -0 -0 -0 0)
(1 2.475e-16 -0 2.31541e-16 5.73064e-32 -0 -0 -0 0)
(1 1.31969e-16 -0 1.44437e-16 1.90612e-32 -0 -0 -0 0)
(1 -1.5892e-13 -0 -1.58824e-13 2.52403e-26 0 -0 0 0)
(1 3.49494e-14 -0 3.52461e-14 1.23183e-27 -0 -0 -0 0)
(1 -8.03338e-15 -0 -7.93129e-15 6.37151e-29 0 -0 0 0)
(1 1.86539e-15 -0 1.91694e-15 3.57584e-30 -0 -0 -0 0)
(1 -4.15368e-16 -0 -4.39514e-16 1.8256e-31 0 -0 0 0)
(1 1.83217e-17 -0 4.78787e-17 8.77218e-34 -0 -0 -0 0)
(1 -1.14229e-16 -0 -3.64294e-17 4.16129e-33 0 -0 0 0)
(1 -1.2632e-16 -0 -9.12052e-17 1.1521e-32 0 -0 0 0)
(1 -1.16482e-16 -0 -6.45834e-17 7.52283e-33 0 -0 0 0)
(1 -1.31228e-17 -0 -4.32854e-17 5.68027e-34 0 -0 0 0)
(1 -4.93143e-18 -0 -2.22005e-17 1.0948e-34 0 -0 0 0)
(1 -3.78602e-17 -0 -2.75748e-17 1.04399e-33 0 -0 0 0)
(1 -5.34016e-17 -0 -8.01314e-17 4.27915e-33 0 -0 0 0)
(1 3.52569e-17 -0 -2.09155e-17 -7.37415e-34 0 -0 -0 0)
(1 9.41906e-17 -0 6.6383e-17 6.25266e-33 -0 -0 -0 0)
(1 8.25384e-17 -0 4.86471e-17 4.01525e-33 -0 -0 -0 0)
(1 2.38796e-17 -0 -1.84173e-17 -4.39797e-34 0 -0 -0 0)
(1 1.35248e-16 -0 1.18593e-16 1.60395e-32 -0 -0 -0 0)
(1 1.44358e-16 -0 1.32835e-16 1.91758e-32 -0 -0 -0 0)
(1 5.3727e-17 -0 7.62809e-17 4.09835e-33 -0 -0 -0 0)
(1 2.53955e-14 -0 2.62539e-14 6.66731e-28 -0 -0 -0 0)
(1 -4.47972e-15 -0 -4.44784e-15 1.99251e-29 0 -0 0 0)
(1 1.11637e-15 -0 1.23074e-15 1.37397e-30 -0 -0 -0 0)
(1 -3.0318e-16 -0 -2.45287e-16 7.43662e-32 0 -0 0 0)
(1 -1.16351e-16 -0 -1.90851e-18 2.22056e-34 0 -0 0 0)
(1 -1.03196e-16 -0 -5.79459e-19 5.9798e-35 0 -0 0 0)
(1 -8.26362e-18 -0 5.01747e-17 -4.14624e-34 -0 -0 0 0)
(1 4.37975e-17 -0 4.02047e-17 1.76087e-33 -0 -0 -0 0)
(1 5.04233e-17 -0 4.30322e-17 2.16983e-33 -0 -0 -0 0)
(1 5.38709e-17 -0 6.67063e-18 3.59353e-34 -0 -0 -0 0)
(1 -3.78401e-17 -0 -7.07888e-17 2.67865e-33 0 -0 0 0)
(1 -1.7727e-17 -0 -1.23341e-17 2.18647e-34 0 -0 0 0)
(1 3.00567e-17 -0 -1.93876e-17 -5.82726e-34 0 -0 -0 0)
(1 8.70438e-17 -0 -8.57709e-18 -7.46583e-34 0 -0 -0 0)
(1 5.24923e-17 -0 -4.55653e-17 -2.39183e-33 0 -0 -0 0)
(1 -2.43929e-17 -0 -9.91021e-17 2.41739e-33 0 -0 0 0)
(1 -6.99816e-17 -0 -9.7787e-17 6.84329e-33 0 -0 0 0)
(1 -3.30542e-17 -0 -1.63807e-17 5.41451e-34 0 -0 0 0)
(1 3.62597e-17 -0 5.21069e-17 1.88938e-33 -0 -0 -0 0)
(1 5.24947e-17 -0 -2.02799e-19 -1.06459e-35 0 -0 -0 0)
(1 1.32378e-13 -0 1.32449e-13 1.75335e-26 -0 -0 -0 0)
(1 -2.95848e-14 -0 -2.94324e-14 8.70752e-28 0 -0 0 0)
(1 6.6697e-15 -0 6.72388e-15 4.48462e-29 -0 -0 -0 0)
(1 -1.75034e-15 -0 -1.65931e-15 2.90435e-30 0 -0 0 0)
(1 1.81713e-16 -0 3.52227e-16 6.40043e-32 -0 -0 -0 0)
(1 -9.47925e-17 -0 5.52207e-18 -5.23451e-34 -0 -0 0 0)
(1 8.63288e-17 -0 9.48647e-17 8.18955e-33 -0 -0 -0 0)
(1 8.33475e-17 -0 5.606e-17 4.67246e-33 -0 -0 -0 0)
(1 9.8185e-17 -0 8.0028e-17 7.85755e-33 -0 -0 -0 0)
(1 3.75426e-17 -0 6.51768e-17 2.44691e-33 -0 -0 -0 0)
(1 6.15993e-17 -0 7.30934e-17 4.5025e-33 -0 -0 -0 0)
(1 1.68952e-17 -0 -2.9448e-17 -4.9753e-34 0 -0 -0 0)
(1 -6.85114e-17 -0 -1.5327e-16 1.05008e-32 0 -0 0 0)
(1 -1.03861e-16 -0 -9.54169e-17 9.91007e-33 0 -0 0 0)
(1 2.44113e-17 -0 -5.55124e-17 -1.35513e-33 0 -0 -0 0)
(1 -4.29557e-17 -0 -1.18589e-16 5.09408e-33 0 -0 0 0)
(1 -7.85565e-17 -0 -1.24178e-16 9.75501e-33 0 -0 0 0)
(1 -1.07738e-16 -0 -2.58772e-17 2.78795e-33 0 -0 0 0)
(1 7.84068e-18 -0 6.76568e-17 5.30475e-34 -0 -0 -0 0)
(1 7.04968e-17 -0 6.02363e-18 4.24647e-34 -0 -0 -0 0)
(1 -1.95927e-13 -0 -1.96137e-13 3.84286e-26 0 -0 0 0)
(1 4.19828e-14 -0 4.21305e-14 1.76876e-27 -0 -0 -0 0)
(1 -1.02074e-14 -0 -1.02298e-14 1.0442e-28 0 -0 0 0)
(1 1.98895e-15 -0 1.95647e-15 3.89131e-30 -0 -0 -0 0)
(1 -7.09485e-16 -0 -6.99412e-16 4.96223e-31 0 -0 0 0)
(1 -3.81776e-17 -0 3.06317e-17 -1.16945e-33 -0 -0 0 0)
(1 -1.05049e-16 -0 -9.34449e-17 9.81627e-33 0 -0 0 0)
(1 -4.35595e-17 -0 -3.92406e-17 1.7093e-33 0 -0 0 0)
(1 2.62924e-17 -0 5.82915e-17 1.53263e-33 -0 -0 -0 0)
(1 7.36219e-17 -0 4.43344e-18 3.26398e-34 -0 -0 -0 0)
(1 8.67189e-18 -0 1.43883e-17 1.24774e-34 -0 -0 -0 0)
(1 -1.01318e-16 -0 -2.55585e-17 2.58953e-33 0 -0 0 0)
(1 -1.37198e-16 -0 -1.28529e-16 1.76339e-32 0 -0 0 0)
(1 -1.48732e-16 -0 -1.3035e-16 1.93873e-32 0 -0 0 0)
(1 -1.03913e-16 -0 -1.13834e-16 1.18288e-32 0 -0 0 0)
(1 -3.02516e-17 -0 -3.5795e-17 1.08286e-33 0 -0 0 0)
(1 -5.99212e-18 -0 -3.03601e-17 1.81921e-34 0 -0 0 0)
(1 -6.25539e-17 -0 -4.837e-17 3.02573e-33 0 -0 0 0)
(1 -7.26602e-17 -0 -3.59467e-17 2.61189e-33 0 -0 0 0)
(1 -1.39995e-17 -0 -9.6821e-21 1.35544e-37 0 -0 0 0)
(1 8.39766e-14 -0 8.44554e-14 7.09228e-27 -0 -0 -0 0)
(1 -1.82227e-14 -0 -1.81972e-14 3.31602e-28 0 -0 0 0)
(1 4.23824e-15 -0 4.25143e-15 1.80186e-29 -0 -0 -0 0)
(1 -1.04452e-15 -0 -1.07209e-15 1.11982e-30 0 -0 0 0)
(1 1.07713e-16 -0 6.33759e-17 6.82642e-33 -0 -0 -0 0)
(1 -1.44746e-16 -0 -1.62853e-16 2.35723e-32 0 -0 0 0)
(1 -8.57651e-17 -0 -7.30982e-17 6.26928e-33 0 -0 0 0)
(1 -1.42481e-17 -0 4.81857e-17 -6.86554e-34 -0 -0 0 0)
(1 9.60748e-17 -0 1.0018e-16 9.62478e-33 -0 -0 -0 0)
(1 1.7125e-16 -0 5.62118e-17 9.62626e-33 -0 -0 -0 0)
(1 2.50626e-17 -0 -6.24604e-17 -1.56542e-33 0 -0 -0 0)
(1 -7.33749e-17 -0 2.69499e-17 -1.97744e-33 -0 -0 0 0)
(1 3.98599e-17 -0 1.39029e-16 5.54167e-33 -0 -0 -0 0)
(1 1.06424e-16 -0 7.28698e-17 7.7551e-33 -0 -0 -0 0)
(1 1.10408e-17 -0 -2.46297e-17 -2.71933e-34 0 -0 -0 0)
(1 6.03063e-19 -0 -9.85524e-18 -5.94334e-36 0 -0 -0 0)
(1 -9.21499e-17 -0 -9.39804e-17 8.66028e-33 0 -0 0 0)
(1 -1.12976e-16 -0 -8.62811e-17 9.74765e-33 0 -0 0 0)
(1 -1.03365e-16 -0 -5.56416e-17 5.75142e-33 0 -0 0 0)
(1 -5.17397e-17 -0 2.98588e-18 -1.54488e-34 -0 -0 0 0)
(1 8.00542e-14 -0 7.99965e-14 6.40406e-27 -0 -0 -0 0)
(1 -1.75114e-14 -0 -1.75546e-14 3.07404e-28 0 -0 0 0)
(1 4.07667e-15 -0 4.09293e-15 1.66855e-29 -0 -0 -0 0)
(1 -1.02084e-15 -0 -9.4316e-16 9.62813e-31 0 -0 0 0)
(1 1.65164e-16 -0 1.81475e-16 2.99731e-32 -0 -0 -0 0)
(1 -1.47767e-16 -0 -2.18966e-16 3.23561e-32 0 -0 0 0)
(1 -1.67467e-16 -0 -1.68335e-16 2.81905e-32 0 -0 0 0)
(1 -1.79398e-16 -0 -1.1487e-16 2.06075e-32 0 -0 0 0)
(1 -1.04114e-16 -0 -6.60705e-17 6.87889e-33 0 -0 0 0)
(1 -6.99933e-17 -0 3.52382e-17 -2.46644e-33 -0 -0 0 0)
(1 9.24524e-17 -0 6.61245e-17 6.11337e-33 -0 -0 -0 0)
(1 1.51972e-16 -0 8.29351e-17 1.26038e-32 -0 -0 -0 0)
(1 1.2052e-16 -0 2.19466e-16 2.64501e-32 -0 -0 -0 0)
(1 1.68519e-16 -0 1.86071e-16 3.13564e-32 -0 -0 -0 0)
(1 1.71275e-16 -0 1.60054e-16 2.74134e-32 -0 -0 -0 0)
(1 3.71771e-17 -0 3.70905e-18 1.37891e-34 -0 -0 -0 0)
(1 -6.75806e-17 -0 -2.58381e-17 1.74616e-33 0 -0 0 0)
(1 -5.02094e-17 -0 -3.17735e-17 1.59533e-33 0 -0 0 0)
(1 -3.92694e-17 -0 -1.08555e-16 4.26287e-33 0 -0 0 0)
(1 -8.42687e-17 -0 -5.48265e-17 4.62016e-33 0 -0 0 0)
(1 -1.84135e-13 -0 -1.84573e-13 3.39863e-26 0 -0 0 0)
(1 4.01835e-14 -0 4.02053e-14 1.61559e-27 -0 -0 -0 0)
(1 -9.56637e-15 -0 -9.48848e-15 9.07704e-29 0 -0 0 0)
(1 2.05196e-15 -0 2.15457e-15 4.4211e-30 -0 -0 -0 0)
(1 -4.7461e-16 -0 -4.06792e-16 1.93068e-31 0 -0 0 0)
(1 4.36126e-17 -0 3.81154e-17 1.66231e-33 -0 -0 -0 0)
(1 -1.6449e-16 -0 -2.14424e-16 3.52706e-32 0 -0 0 0)
(1 -2.17451e-16 -0 -2.16091e-16 4.69891e-32 0 -0 0 0)
(1 -2.41723e-16 -0 -1.81342e-16 4.38344e-32 0 -0 0 0)
(1 -2.46559e-16 -0 -1.41326e-16 3.48452e-32 0 -0 0 0)
(1 -1.36e-16 -0 -3.45686e-17 4.70132e-33 0 -0 0 0)
(1 -3.19059e-17 -0 -9.24326e-18 2.94914e-34 0 -0 0 0)
(1 -3.26543e-17 -0 3.18994e-17 -1.04165e-33 -0 -0 0 0)
(1 2.66047e-17 -0 8.4798e-17 2.25603e-33 -0 -0 -0 0)
(1 6.04079e-17 -0 1.61794e-16 9.77364e-33 -0 -0 -0 0)
(1 8.15823e-17 -0 1.59013e-16 1.29727e-32 -0 -0 -0 0)
(1 1.17874e-16 -0 1.6402e-16 1.93337e-32 -0 -0 -0 0)
(1 6.35309e-17 -0 -3.3444e-17 -2.12473e-33 0 -0 -0 0)
(1 -1.69948e-17 -0 -8.70697e-17 1.47974e-33 0 -0 0 0)
(1 -6.28869e-17 -0 -5.80298e-17 3.64932e-33 0 -0 0 0)
(1 1.9714e-13 -0 1.97375e-13 3.89107e-26 -0 -0 -0 0)
(1 -4.31131e-14 -0 -4.30972e-14 1.85806e-27 0 -0 0 0)
(1 1.02145e-14 -0 1.02754e-14 1.04959e-28 -0 -0 -0 0)
(1 -2.16632e-15 -0 -2.15979e-15 4.67879e-30 0 -0 0 0)
(1 4.16201e-16 -0 4.74876e-16 1.97644e-31 -0 -0 -0 0)
(1 -2.28651e-16 -0 -9.3216e-17 2.13139e-32 0 -0 0 0)
(1 2.55286e-17 -0 1.68209e-16 4.29415e-33 -0 -0 -0 0)
(1 1.64067e-16 -0 2.40162e-16 3.94028e-32 -0 -0 -0 0)
(1 1.55188e-16 -0 1.44513e-16 2.24266e-32 -0 -0 -0 0)
(1 8.99505e-17 -0 5.61323e-17 5.04913e-33 -0 -0 -0 0)
(1 -1.60003e-17 -0 2.03699e-18 -3.25926e-35 -0 -0 0 0)
(1 -1.02271e-16 -0 -1.37714e-17 1.40842e-33 0 -0 0 0)
(1 -2.93563e-17 -0 1.15351e-17 -3.38628e-34 -0 -0 0 0)
(1 4.09363e-17 -0 9.28624e-17 3.80144e-33 -0 -0 -0 0)
(1 7.71726e-17 -0 7.42909e-17 5.73322e-33 -0 -0 -0 0)
(1 1.07522e-16 -0 1.38451e-16 1.48864e-32 -0 -0 -0 0)
(1 4.60929e-17 -0 -1.53481e-17 -7.07439e-34 0 -0 -0 0)
(1 -4.61421e-17 -0 -9.01988e-17 4.16196e-33 0 -0 0 0)
(1 -4.61869e-17 -0 1.82039e-17 -8.40782e-34 -0 -0 0 0)
(1 -2.26429e-17 -0 2.59068e-17 -5.86607e-34 -0 -0 0 0)
(1 -1.16216e-13 -0 -1.16298e-13 1.35157e-26 0 -0 0 0)
(1 2.55997e-14 -0 2.56148e-14 6.5573e-28 -0 -0 -0 0)
(1 -5.92102e-15 -0 -5.90466e-15 3.49616e-29 0 -0 0 0)
(1 1.31433e-15 -0 1.41375e-15 1.85813e-30 -0 -0 -0 0)
(1 -3.48792e-16 -0 -2.81504e-16 9.81865e-32 0 -0 0 0)
(1 -6.76956e-17 -0 3.37927e-18 -2.28762e-34 -0 -0 0 0)
(1 -1.11692e-16 -0 1.5079e-17 -1.68421e-33 -0 -0 0 0)
(1 4.6672e-17 -0 1.33143e-16 6.21407e-33 -0 -0 -0 0)
(1 8.46487e-17 -0 8.06262e-17 6.8249e-33 -0 -0 -0 0)
(1 5.12804e-17 -0 2.68614e-17 1.37746e-33 -0 -0 -0 0)
(1 -1.90101e-17 -0 -4.89197e-17 9.29968e-34 0 -0 0 0)
(1 -1.00298e-16 -0 -6.805e-17 6.82528e-33 0 -0 0 0)
(1 -9.40374e-17 -0 2.25699e-17 -2.12241e-33 -0 -0 0 0)
(1 1.59171e-17 -0 1.02564e-16 1.63252e-33 -0 -0 -0 0)
(1 5.49995e-17 -0 1.61809e-17 8.89939e-34 -0 -0 -0 0)
(1 3.04104e-17 -0 -5.91921e-17 -1.80005e-33 0 -0 -0 0)
(1 -7.60718e-17 -0 -1.0305e-16 7.83918e-33 0 -0 0 0)
(1 1.16695e-17 -0 -5.40659e-18 -6.30921e-35 0 -0 -0 0)
(1 2.27439e-17 -0 -3.67256e-17 -8.35284e-34 0 -0 -0 0)
(1 -9.58404e-17 -0 -9.16505e-18 8.78382e-34 0 -0 0 0)
(1 -2.02745e-14 -0 -2.0503e-14 4.15688e-28 0 -0 0 0)
(1 3.8458e-15 -0 4.04594e-15 1.55599e-29 -0 -0 -0 0)
(1 -1.20915e-15 -0 -1.04278e-15 1.26089e-30 0 -0 0 0)
(1 1.49084e-16 -0 2.93805e-16 4.38015e-32 -0 -0 -0 0)
(1 -1.98788e-18 -0 9.61418e-17 -1.91118e-34 -0 -0 0 0)
(1 1.0677e-16 -0 1.29023e-16 1.37758e-32 -0 -0 -0 0)
(1 1.38696e-16 -0 1.33594e-16 1.85289e-32 -0 -0 -0 0)
(1 9.98351e-17 -0 9.24773e-17 9.23248e-33 -0 -0 -0 0)
(1 9.67898e-17 -0 8.01962e-17 7.76217e-33 -0 -0 -0 0)
(1 1.32653e-16 -0 9.74119e-17 1.29219e-32 -0 -0 -0 0)
(1 1.26122e-16 -0 9.74017e-17 1.22845e-32 -0 -0 -0 0)
(1 1.47369e-17 -0 -2.26174e-17 -3.3331e-34 0 -0 -0 0)
(1 -6.97932e-17 -0 -5.79743e-17 4.04622e-33 0 -0 0 0)
(1 -6.50634e-17 -0 7.70014e-18 -5.00998e-34 -0 -0 0 0)
(1 -3.1351e-17 -0 5.08245e-17 -1.5934e-33 -0 -0 0 0)
(1 -7.06426e-19 -0 3.36657e-18 -2.37823e-36 -0 -0 0 0)
(1 2.04876e-17 -0 2.41438e-17 4.94648e-34 -0 -0 -0 0)
(1 9.49569e-17 -0 2.3259e-17 2.20861e-33 -0 -0 -0 0)
(1 3.98843e-17 -0 -6.6146e-18 -2.63819e-34 0 -0 -0 0)
(1 -2.72692e-18 -0 4.73529e-18 -1.29128e-35 -0 -0 0 0)
(1 1.42519e-13 -0 1.42445e-13 2.03012e-26 -0 -0 -0 0)
(1 -3.17153e-14 -0 -3.16857e-14 1.00492e-27 0 -0 0 0)
(1 7.04309e-15 -0 7.1079e-15 5.00616e-29 -0 -0 -0 0)
(1 -1.95608e-15 -0 -1.83116e-15 3.58189e-30 0 -0 0 0)
(1 1.85386e-16 -0 3.51256e-16 6.51179e-32 -0 -0 -0 0)
(1 -1.35441e-17 -0 8.75332e-17 -1.18556e-33 -0 -0 0 0)
(1 2.55273e-16 -0 2.38139e-16 6.07904e-32 -0 -0 -0 0)
(1 1.99711e-16 -0 1.14936e-16 2.2954e-32 -0 -0 -0 0)
(1 1.2328e-16 -0 2.46381e-18 3.03738e-34 -0 -0 -0 0)
(1 -7.63674e-18 -0 -6.959e-17 5.31441e-34 0 -0 0 0)
(1 -2.38686e-17 -0 1.43931e-17 -3.43543e-34 -0 -0 0 0)
(1 -1.79714e-18 -0 -3.43751e-18 6.1777e-36 0 -0 0 0)
(1 1.85524e-17 -0 -1.01006e-17 -1.87389e-34 0 -0 -0 0)
(1 -1.83631e-17 -0 7.37242e-18 -1.3538e-34 -0 -0 0 0)
(1 -3.50993e-17 -0 -1.37293e-17 4.81889e-34 0 -0 0 0)
(1 -3.2918e-17 -0 -4.69944e-17 1.54696e-33 0 -0 0 0)
(1 3.65708e-18 -0 -2.77407e-17 -1.0145e-34 0 -0 -0 0)
(1 5.40996e-18 -0 2.41495e-17 1.30648e-34 -0 -0 -0 0)
(1 7.27343e-18 -0 6.39001e-17 4.64773e-34 -0 -0 -0 0)
(1 4.58234e-17 -0 3.90263e-17 1.78832e-33 -0 -0 -0 0)
(1 -1.91913e-13 -0 -1.92059e-13 3.68586e-26 0 -0 0 0)
(1 4.22115e-14 -0 4.21888e-14 1.78085e-27 -0 -0 -0 0)
(1 -9.9388e-15 -0 -9.96693e-15 9.90593e-29 0 -0 0 0)
(1 2.14776e-15 -0 2.15343e-15 4.62505e-30 -0 -0 -0 0)
(1 -4.99264e-16 -0 -4.31786e-16 2.15575e-31 0 -0 0 0)
(1 1.97564e-16 -0 2.61982e-16 5.17583e-32 -0 -0 -0 0)
(1 6.33458e-17 -0 6.15309e-17 3.89773e-33 -0 -0 -0 0)
(1 1.16145e-16 -0 -4.12882e-17 -4.7954e-33 0 -0 -0 0)
(1 -4.88498e-17 -0 -1.42851e-16 6.97826e-33 0 -0 0 0)
(1 -2.08452e-16 -0 -1.99669e-16 4.16215e-32 0 -0 0 0)
(1 -2.21941e-16 -0 -1.28799e-16 2.85858e-32 0 -0 0 0)
(1 -1.04655e-16 -0 -1.61753e-17 1.69283e-33 0 -0 0 0)
(1 1.65796e-17 -0 4.76337e-17 7.89747e-34 -0 -0 -0 0)
(1 8.39378e-17 -0 2.40311e-17 2.01712e-33 -0 -0 -0 0)
(1 6.59382e-18 -0 -3.65841e-17 -2.41229e-34 0 -0 -0 0)
(1 -7.80678e-17 -0 -7.5523e-17 5.89592e-33 0 -0 0 0)
(1 -6.68977e-17 -0 -5.16931e-17 3.45815e-33 0 -0 0 0)
(1 -2.93978e-17 -0 4.64866e-17 -1.3666e-33 -0 -0 0 0)
(1 1.42481e-17 -0 6.37881e-17 9.08859e-34 -0 -0 -0 0)
(1 -2.1023e-17 -0 1.31791e-17 -2.77064e-34 -0 -0 0 0)
(1 1.13978e-13 -0 1.14252e-13 1.30222e-26 -0 -0 -0 0)
(1 -2.47075e-14 -0 -2.46594e-14 6.0927e-28 0 -0 0 0)
(1 6.10333e-15 -0 6.05791e-15 3.69734e-29 -0 -0 -0 0)
(1 -9.75928e-16 -0 -1.13562e-15 1.10828e-30 0 -0 0 0)
(1 4.23125e-16 -0 3.04996e-16 1.29052e-31 -0 -0 -0 0)
(1 -8.47506e-17 -0 -1.73372e-16 1.46934e-32 0 -0 0 0)
(1 -1.21919e-16 -0 -1.25913e-16 1.53512e-32 0 -0 0 0)
(1 -1.36617e-16 -0 -1.34739e-16 1.84076e-32 0 -0 0 0)
(1 -1.03369e-16 -0 -3.81203e-17 3.94046e-33 0 -0 0 0)
(1 3.58208e-17 -0 1.06711e-16 3.82248e-33 -0 -0 -0 0)
(1 6.1781e-17 -0 1.07514e-16 6.64234e-33 -0 -0 -0 0)
(1 5.57625e-17 -0 5.23669e-17 2.92011e-33 -0 -0 -0 0)
(1 2.15954e-17 -0 -3.56735e-17 -7.70384e-34 0 -0 -0 0)
(1 -2.85429e-18 -0 -1.49722e-17 4.2735e-35 0 -0 0 0)
(1 1.28775e-17 -0 4.87232e-17 6.27432e-34 -0 -0 -0 0)
(1 1.72778e-17 -0 4.57138e-17 7.89833e-34 -0 -0 -0 0)
(1 5.1101e-17 -0 8.31184e-17 4.24743e-33 -0 -0 -0 0)
(1 6.248e-17 -0 1.18852e-16 7.42585e-33 -0 -0 -0 0)
(1 3.67792e-17 -0 1.13007e-16 4.1563e-33 -0 -0 -0 0)
(1 1.10098e-17 -0 5.31227e-17 5.84872e-34 -0 -0 -0 0)
(1 3.02106e-14 -0 2.99103e-14 9.0361e-28 -0 -0 -0 0)
(1 -6.91187e-15 -0 -6.80863e-15 4.70604e-29 0 -0 0 0)
(1 1.77851e-15 -0 1.66319e-15 2.958e-30 -0 -0 -0 0)
(1 -3.1367e-16 -0 -3.84926e-16 1.2074e-31 0 -0 0 0)
(1 2.26158e-16 -0 1.46056e-16 3.30318e-32 -0 -0 -0 0)
(1 6.93819e-17 -0 -3.8404e-18 -2.66455e-34 0 -0 -0 0)
(1 2.54325e-17 -0 -2.82745e-17 -7.19091e-34 0 -0 -0 0)
(1 -9.22124e-17 -0 -5.18552e-17 4.7817e-33 0 -0 0 0)
(1 -3.63862e-17 -0 1.62677e-18 -5.91918e-35 -0 -0 0 0)
(1 5.88047e-17 -0 7.67095e-17 4.51088e-33 -0 -0 -0 0)
(1 -1.32111e-18 -0 2.85125e-18 -3.76683e-36 -0 -0 0 0)
(1 1.81218e-17 -0 -1.58007e-18 -2.86337e-35 0 -0 -0 0)
(1 3.15789e-17 -0 -1.4759e-17 -4.66074e-34 0 -0 -0 0)
(1 -5.84879e-17 -0 -1.18603e-17 6.93683e-34 0 -0 0 0)
(1 1.06542e-17 -0 9.91256e-17 1.0561e-33 -0 -0 -0 0)
(1 1.44383e-16 -0 1.94678e-16 2.81082e-32 -0 -0 -0 0)
(1 1.89445e-16 -0 2.0669e-16 3.91564e-32 -0 -0 -0 0)
(1 9.81431e-17 -0 8.94844e-17 8.78227e-33 -0 -0 -0 0)
(1 6.42254e-19 -0 4.68226e-17 3.0072e-35 -0 -0 -0 0)
(1 1.06863e-17 -0 6.17094e-17 6.59445e-34 -0 -0 -0 0)
(1 -1.48416e-13 -0 -1.484e-13 2.2025e-26 0 -0 0 0)
(1 3.29004e-14 -0 3.28221e-14 1.07986e-27 -0 -0 -0 0)
(1 -7.83908e-15 -0 -7.77941e-15 6.09834e-29 0 -0 0 0)
(1 1.80543e-15 -0 1.7973e-15 3.24491e-30 -0 -0 -0 0)
(1 -1.6274e-16 -0 -2.56662e-16 4.17692e-32 0 -0 0 0)
(1 2.73299e-16 -0 3.04733e-16 8.32833e-32 -0 -0 -0 0)
(1 6.74597e-17 -0 1.21044e-16 8.16557e-33 -0 -0 -0 0)
(1 1.0264e-18 -0 3.09887e-17 3.18068e-35 -0 -0 -0 0)
(1 -2.7959e-17 -0 -5.19307e-17 1.45193e-33 0 -0 0 0)
(1 -1.2727e-16 -0 -1.49123e-16 1.89789e-32 0 -0 0 0)
(1 -1.1865e-16 -0 -8.29803e-17 9.84562e-33 0 -0 0 0)
(1 9.93968e-17 -0 1.72954e-16 1.71911e-32 -0 -0 -0 0)
(1 2.72422e-16 -0 2.30637e-16 6.28308e-32 -0 -0 -0 0)
(1 9.18273e-17 -0 2.81464e-17 2.58461e-33 -0 -0 -0 0)
(1 -2.65112e-17 -0 7.68996e-18 -2.0387e-34 -0 -0 0 0)
(1 5.95354e-17 -0 1.21393e-16 7.22719e-33 -0 -0 -0 0)
(1 9.82086e-17 -0 8.68549e-17 8.5299e-33 -0 -0 -0 0)
(1 -5.16552e-17 -0 -3.29954e-17 1.70438e-33 0 -0 0 0)
(1 -3.9998e-17 -0 -3.10758e-17 1.24297e-33 0 -0 0 0)
(1 1.27862e-17 -0 2.51583e-17 3.2168e-34 -0 -0 -0 0)
(1 7.11568e-14 -0 7.11191e-14 5.06061e-27 -0 -0 -0 0)
(1 -1.49301e-14 -0 -1.50936e-14 2.25349e-28 0 -0 0 0)
(1 3.49537e-15 -0 3.595e-15 1.25658e-29 -0 -0 -0 0)
(1 -6.77914e-16 -0 -6.37526e-16 4.32188e-31 0 -0 0 0)
(1 2.44993e-16 -0 1.63086e-16 3.99549e-32 -0 -0 -0 0)
(1 -1.2883e-17 -0 -3.13682e-17 4.04117e-34 0 -0 0 0)
(1 -1.42741e-16 -0 3.34695e-17 -4.77749e-33 -0 -0 0 0)
(1 -6.43154e-17 -0 1.67194e-16 -1.07532e-32 -0 -0 0 0)
(1 2.92257e-17 -0 1.4005e-16 4.09308e-33 -0 -0 -0 0)
(1 8.49975e-18 -0 -2.08338e-17 -1.77082e-34 0 -0 -0 0)
(1 3.91055e-17 -0 -2.44168e-17 -9.5483e-34 0 -0 -0 0)
(1 6.671e-17 -0 2.38948e-17 1.59402e-33 -0 -0 -0 0)
(1 4.71394e-17 -0 2.28476e-17 1.07702e-33 -0 -0 -0 0)
(1 -5.54374e-18 -0 3.34603e-17 -1.85495e-34 -0 -0 0 0)
(1 2.90334e-19 -0 7.08276e-17 2.05636e-35 -0 -0 -0 0)
(1 7.33505e-17 -0 9.98162e-17 7.32157e-33 -0 -0 -0 0)
(1 8.61326e-17 -0 7.62567e-17 6.56819e-33 -0 -0 -0 0)
(1 5.14514e-17 -0 8.37565e-17 4.30939e-33 -0 -0 -0 0)
(1 3.29795e-17 -0 -4.00085e-17 -1.31946e-33 0 -0 -0 0)
(1 1.1383e-17 -0 -5.33779e-17 -6.076e-34 0 -0 -0 0)
(1 8.66348e-14 -0 8.59501e-14 7.44627e-27 -0 -0 -0 0)
(1 -1.93237e-14 -0 -1.92661e-14 3.72291e-28 0 -0 0 0)
(1 4.60161e-15 -0 4.57335e-15 2.10448e-29 -0 -0 -0 0)
(1 -1.07285e-15 -0 -1.02357e-15 1.09814e-30 0 -0 0 0)
(1 1.85276e-16 -0 2.03764e-16 3.77525e-32 -0 -0 -0 0)
(1 -5.07888e-17 -0 -4.3578e-17 2.21327e-33 0 -0 0 0)
(1 -2.13837e-17 -0 8.76065e-17 -1.87335e-33 -0 -0 0 0)
(1 7.50541e-17 -0 2.21675e-16 1.66376e-32 -0 -0 -0 0)
(1 1.06803e-16 -0 2.08762e-16 2.22963e-32 -0 -0 -0 0)
(1 1.43971e-16 -0 1.44295e-16 2.07742e-32 -0 -0 -0 0)
(1 1.34363e-16 -0 5.01454e-17 6.73766e-33 -0 -0 -0 0)
(1 1.97502e-18 -0 -8.45053e-17 -1.669e-34 0 -0 -0 0)
(1 -1.11305e-16 -0 -1.07814e-16 1.20002e-32 0 -0 0 0)
(1 -5.47385e-17 -0 1.97055e-17 -1.07865e-33 -0 -0 0 0)
(1 3.88148e-17 -0 1.15511e-16 4.48355e-33 -0 -0 -0 0)
(1 9.51361e-17 -0 1.44068e-16 1.37061e-32 -0 -0 -0 0)
(1 1.08135e-16 -0 1.21986e-16 1.3191e-32 -0 -0 -0 0)
(1 1.24684e-16 -0 9.40896e-17 1.17314e-32 -0 -0 -0 0)
(1 3.89521e-17 -0 -3.84463e-17 -1.49757e-33 0 -0 -0 0)
(1 -3.83069e-18 -0 -6.18752e-17 2.37025e-34 0 -0 0 0)
)
;

boundaryField
{
    movingWall
    {
        type            calculated;
        value           uniform (1 0 0 0 0 0 0 0 0);
    }
    fixedWalls
    {
        type            calculated;
        value           uniform (1 0 0 0 0 0 0 0 0);
    }
    frontAndBack
    {
        type            empty;
    }
}


// ************************************************************************* //
