/*--------------------------------*- C++ -*----------------------------------*\
| =========                 |                                                 |
| \\      /  F ield         | OpenFOAM: The Open Source CFD Toolbox           |
|  \\    /   O peration     | Version:  2506                                  |
|   \\  /    A nd           | Website:  www.openfoam.com                      |
|    \\/     M anipulation  |                                                 |
\*---------------------------------------------------------------------------*/
FoamFile
{
    version     2.0;
    format      ascii;
    arch        "LSB;label=32;scalar=64";
    class       volScalarField;
    location    "10";
    object      Uy;
}
// * * * * * * * * * * * * * * * * * * * * * * * * * * * * * * * * * * * * * //

dimensions      [0 1 -1 0 0 0 0];

internalField   nonuniform List<scalar> 
400
(
1.96561e-13
-4.30202e-14
9.94981e-15
-2.23608e-15
4.96728e-16
-4.48014e-17
2.13656e-16
2.25148e-16
1.2937e-16
1.08708e-16
1.24958e-16
1.13258e-16
6.22177e-17
-7.88364e-17
-2.49893e-17
3.23519e-17
-6.28971e-17
-4.439e-17
2.17974e-17
4.4216e-17
-9.40473e-15
1.86826e-15
-4.09448e-16
1.59241e-16
9.85995e-17
1.32419e-16
2.3162e-16
1.82828e-16
6.54049e-17
1.81467e-17
8.36292e-17
8.42515e-17
-3.18109e-17
-1.42436e-16
3.83692e-18
1.58851e-16
-3.05774e-17
-1.19015e-16
-7.16245e-17
-2.42095e-17
-1.65644e-13
3.66331e-14
-8.60152e-15
1.93071e-15
-3.75827e-16
1.45676e-16
6.52272e-17
8.39658e-17
5.38836e-17
-3.34811e-17
-7.93727e-17
-4.69493e-17
-5.0831e-17
-5.36699e-17
-3.47524e-17
7.02486e-17
2.96607e-17
-1.89839e-16
-2.31541e-16
-1.44437e-16
1.58824e-13
-3.52461e-14
7.93129e-15
-1.91694e-15
4.39514e-16
-4.78787e-17
3.64294e-17
9.12052e-17
6.45834e-17
4.32854e-17
2.22005e-17
2.75748e-17
8.01314e-17
2.09155e-17
-6.6383e-17
-4.86471e-17
1.84173e-17
-1.18593e-16
-1.32835e-16
-7.62809e-17
-2.62539e-14
4.44784e-15
-1.23074e-15
2.45287e-16
1.90851e-18
5.79459e-19
-5.01747e-17
-4.02047e-17
-4.30322e-17
-6.67063e-18
7.07888e-17
1.23341e-17
1.93876e-17
8.57709e-18
4.55653e-17
9.91021e-17
9.7787e-17
1.63807e-17
-5.21069e-17
2.02799e-19
-1.32449e-13
2.94324e-14
-6.72388e-15
1.65931e-15
-3.52227e-16
-5.52207e-18
-9.48647e-17
-5.606e-17
-8.0028e-17
-6.51768e-17
-7.30934e-17
2.9448e-17
1.5327e-16
9.54169e-17
5.55124e-17
1.18589e-16
1.24178e-16
2.58772e-17
-6.76568e-17
-6.02363e-18
1.96137e-13
-4.21305e-14
1.02298e-14
-1.95647e-15
6.99412e-16
-3.06317e-17
9.34449e-17
3.92406e-17
-5.82915e-17
-4.43344e-18
-1.43883e-17
2.55585e-17
1.28529e-16
1.3035e-16
1.13834e-16
3.5795e-17
3.03601e-17
4.837e-17
3.59467e-17
9.6821e-21
-8.44554e-14
1.81972e-14
-4.25143e-15
1.07209e-15
-6.33759e-17
1.62853e-16
7.30982e-17
-4.81857e-17
-1.0018e-16
-5.62118e-17
6.24604e-17
-2.69499e-17
-1.39029e-16
-7.28698e-17
2.46297e-17
9.85524e-18
9.39804e-17
8.62811e-17
5.56416e-17
-2.98588e-18
-7.99965e-14
1.75546e-14
-4.09293e-15
9.4316e-16
-1.81475e-16
2.18966e-16
1.68335e-16
1.1487e-16
6.60705e-17
-3.52382e-17
-6.61245e-17
-8.29351e-17
-2.19466e-16
-1.86071e-16
-1.60054e-16
-3.70905e-18
2.58381e-17
3.17735e-17
1.08555e-16
5.48265e-17
1.84573e-13
-4.02053e-14
9.48848e-15
-2.15457e-15
4.06792e-16
-3.81154e-17
2.14424e-16
2.16091e-16
1.81342e-16
1.41326e-16
3.45686e-17
9.24326e-18
-3.18994e-17
-8.4798e-17
-1.61794e-16
-1.59013e-16
-1.6402e-16
3.3444e-17
8.70697e-17
5.80298e-17
-1.97375e-13
4.30972e-14
-1.02754e-14
2.15979e-15
-4.74876e-16
9.3216e-17
-1.68209e-16
-2.40162e-16
-1.44513e-16
-5.61323e-17
-2.03699e-18
1.37714e-17
-1.15351e-17
-9.28624e-17
-7.42909e-17
-1.38451e-16
1.53481e-17
9.01988e-17
-1.82039e-17
-2.59068e-17
1.16298e-13
-2.56148e-14
5.90466e-15
-1.41375e-15
2.81504e-16
-3.37927e-18
-1.5079e-17
-1.33143e-16
-8.06262e-17
-2.68614e-17
4.89197e-17
6.805e-17
-2.25699e-17
-1.02564e-16
-1.61809e-17
5.91921e-17
1.0305e-16
5.40659e-18
3.67256e-17
9.16505e-18
2.0503e-14
-4.04594e-15
1.04278e-15
-2.93805e-16
-9.61418e-17
-1.29023e-16
-1.33594e-16
-9.24773e-17
-8.01962e-17
-9.74119e-17
-9.74017e-17
2.26174e-17
5.79743e-17
-7.70014e-18
-5.08245e-17
-3.36657e-18
-2.41438e-17
-2.3259e-17
6.6146e-18
-4.73529e-18
-1.42445e-13
3.16857e-14
-7.1079e-15
1.83116e-15
-3.51256e-16
-8.75332e-17
-2.38139e-16
-1.14936e-16
-2.46381e-18
6.959e-17
-1.43931e-17
3.43751e-18
1.01006e-17
-7.37242e-18
1.37293e-17
4.69944e-17
2.77407e-17
-2.41495e-17
-6.39001e-17
-3.90263e-17
1.92059e-13
-4.21888e-14
9.96693e-15
-2.15343e-15
4.31786e-16
-2.61982e-16
-6.15309e-17
4.12882e-17
1.42851e-16
1.99669e-16
1.28799e-16
1.61753e-17
-4.76337e-17
-2.40311e-17
3.65841e-17
7.5523e-17
5.16931e-17
-4.64866e-17
-6.37881e-17
-1.31791e-17
-1.14252e-13
2.46594e-14
-6.05791e-15
1.13562e-15
-3.04996e-16
1.73372e-16
1.25913e-16
1.34739e-16
3.81203e-17
-1.06711e-16
-1.07514e-16
-5.23669e-17
3.56735e-17
1.49722e-17
-4.87232e-17
-4.57138e-17
-8.31184e-17
-1.18852e-16
-1.13007e-16
-5.31227e-17
-2.99103e-14
6.80863e-15
-1.66319e-15
3.84926e-16
-1.46056e-16
3.8404e-18
2.82745e-17
5.18552e-17
-1.62677e-18
-7.67095e-17
-2.85125e-18
1.58007e-18
1.4759e-17
1.18603e-17
-9.91256e-17
-1.94678e-16
-2.0669e-16
-8.94844e-17
-4.68226e-17
-6.17094e-17
1.484e-13
-3.28221e-14
7.77941e-15
-1.7973e-15
2.56662e-16
-3.04733e-16
-1.21044e-16
-3.09887e-17
5.19307e-17
1.49123e-16
8.29803e-17
-1.72954e-16
-2.30637e-16
-2.81464e-17
-7.68996e-18
-1.21393e-16
-8.68549e-17
3.29954e-17
3.10758e-17
-2.51583e-17
-7.11191e-14
1.50936e-14
-3.595e-15
6.37526e-16
-1.63086e-16
3.13682e-17
-3.34695e-17
-1.67194e-16
-1.4005e-16
2.08338e-17
2.44168e-17
-2.38948e-17
-2.28476e-17
-3.34603e-17
-7.08276e-17
-9.98162e-17
-7.62567e-17
-8.37565e-17
4.00085e-17
5.33779e-17
-8.59501e-14
1.92661e-14
-4.57335e-15
1.02357e-15
-2.03764e-16
4.3578e-17
-8.76065e-17
-2.21675e-16
-2.08762e-16
-1.44295e-16
-5.01454e-17
8.45053e-17
1.07814e-16
-1.97055e-17
-1.15511e-16
-1.44068e-16
-1.21986e-16
-9.40896e-17
3.84463e-17
6.18752e-17
)
;

boundaryField
{
    movingWall
    {
        type            calculated;
        value           uniform -0;
    }
    fixedWalls
    {
        type            calculated;
        value           uniform -0;
    }
    frontAndBack
    {
        type            empty;
    }
}


// ************************************************************************* //
