/*--------------------------------*- C++ -*----------------------------------*\
| =========                 |                                                 |
| \\      /  F ield         | OpenFOAM: The Open Source CFD Toolbox           |
|  \\    /   O peration     | Version:  2506                                  |
|   \\  /    A nd           | Website:  www.openfoam.com                      |
|    \\/     M anipulation  |                                                 |
\*---------------------------------------------------------------------------*/
FoamFile
{
    version     2.0;
    format      ascii;
    arch        "LSB;label=32;scalar=64";
    class       volScalarField;
    location    "1.975";
    object      p;
}
// * * * * * * * * * * * * * * * * * * * * * * * * * * * * * * * * * * * * * //

dimensions      [0 2 -2 0 0 0 0];

internalField   nonuniform List<scalar> 
6400
(
1.83947e-06
-3.55896e-07
-6.40665e-05
-0.000186167
-0.000351511
-0.000546702
-0.000760115
-0.000981897
-0.00120399
-0.00141996
-0.00162475
-0.00181445
-0.00198604
-0.00213727
-0.00226646
-0.00237238
-0.00245415
-0.00251116
-0.00254299
-0.00254936
-0.00253009
-0.00248507
-0.00241422
-0.00231754
-0.00219506
-0.00204688
-0.00187311
-0.00167399
-0.00144983
-0.00120105
-0.000928227
-0.000632093
-0.000313557
2.62669e-05
0.000386045
0.000764208
0.00115894
0.00156818
0.00198961
0.00242065
0.00285848
0.00330007
0.00374219
0.00418139
0.00461413
0.00503672
0.00544546
0.00583661
0.00620649
0.00655152
0.0068683
0.00715365
0.00740467
0.00761884
0.00779403
0.00792855
0.00802124
0.00807146
0.00807918
0.00804495
0.00796992
0.0078559
0.00770528
0.00752108
0.00730691
0.00706692
0.00680585
0.00652889
0.00624177
0.00595061
0.005662
0.0053829
0.00512064
0.00488284
0.00467734
0.00451184
0.00439324
0.00432673
0.00431437
0.00434279
6.56571e-06
3.29768e-06
-5.31386e-05
-0.000156693
-0.000295209
-0.000459135
-0.000639627
-0.000828757
-0.00101969
-0.00120674
-0.00138527
-0.00155158
-0.00170273
-0.00183641
-0.00195087
-0.00204475
-0.00211704
-0.002167
-0.0021941
-0.00219792
-0.00217819
-0.0021347
-0.00206735
-0.00197606
-0.00186084
-0.00172176
-0.00155893
-0.00137256
-0.00116297
-0.000930582
-0.000675954
-0.000399795
-0.000102985
0.000213409
0.000548115
0.000899649
0.0012663
0.00164614
0.00203699
0.00243645
0.00284193
0.00325061
0.00365949
0.00406543
0.00446516
0.00485531
0.00523248
0.00559327
0.00593433
0.00625241
0.00654444
0.00680754
0.00703913
0.00723693
0.00739906
0.00752405
0.00761091
0.00765912
0.00766873
0.00764032
0.00757503
0.00747457
0.00734122
0.00717779
0.00698765
0.00677466
0.00654316
0.00629793
0.00604418
0.00578745
0.00553362
0.00528886
0.0050595
0.00485199
0.00467272
0.00452767
0.00442175
0.0043585
0.00434251
0.00437114
7.1061e-05
5.97729e-05
2.8409e-06
-9.29092e-05
-0.00021745
-0.000363255
-0.000523299
-0.00069104
-0.000860698
-0.00102734
-0.00118683
-0.0013358
-0.00147148
-0.00159167
-0.00169465
-0.00177906
-0.00184386
-0.00188825
-0.00191163
-0.00191353
-0.00189362
-0.00185166
-0.00178747
-0.00170095
-0.00159209
-0.0014609
-0.00130748
-0.00113204
-0.000934861
-0.000716337
-0.000477
-0.000217523
6.12602e-05
0.000358338
0.000672509
0.00100237
0.00134631
0.0017025
0.00206892
0.0024433
0.00282321
0.00320602
0.00358893
0.00396898
0.00434314
0.00470826
0.00506118
0.00539872
0.00571779
0.00601536
0.00628859
0.00653481
0.00675165
0.00693702
0.0070892
0.00720687
0.00728912
0.00733556
0.00734625
0.0073218
0.00726332
0.00717246
0.00705139
0.00690277
0.00672977
0.00653601
0.00632554
0.0061028
0.00587257
0.00563994
0.00541025
0.005189
0.00498182
0.0047943
0.00463193
0.00449976
0.00440187
0.00434156
0.00432613
0.00435928
0.000194566
0.000163821
9.76097e-05
8.79021e-07
-0.000119262
-0.000256572
-0.00040522
-0.000559791
-0.00071544
-0.000867955
-0.00101376
-0.00114985
-0.00127377
-0.00138351
-0.00147746
-0.00155434
-0.00161316
-0.00165313
-0.00167364
-0.00167421
-0.00165447
-0.00161416
-0.00155307
-0.00147108
-0.00136812
-0.0012442
-0.00109938
-0.000933816
-0.000747767
-0.000541588
-0.000315765
-7.0917e-05
0.00019218
0.000472579
0.000769154
0.00108059
0.00140536
0.00174177
0.00208788
0.00244157
0.00280055
0.00316232
0.00352424
0.00388352
0.00423728
0.00458255
0.00491633
0.00523563
0.0055375
0.0058191
0.00607772
0.00631087
0.00651628
0.006692
0.00683642
0.0069483
0.00702681
0.00707159
0.00708275
0.00706087
0.00700705
0.00692287
0.0068104
0.00667221
0.00651129
0.00633107
0.00613535
0.00592831
0.00571438
0.00549827
0.00528488
0.00507923
0.00488637
0.0047113
0.00455891
0.00443376
0.00433961
0.00427986
0.0042629
0.00429452
0.000363449
0.000304077
0.000221726
0.000118125
-3.42331e-06
-0.000137819
-0.000280229
-0.000426286
-0.000572034
-0.000713978
-0.000849106
-0.000974866
-0.00108912
-0.00119012
-0.00127645
-0.00134695
-0.00140072
-0.001437
-0.00145523
-0.00145494
-0.00143575
-0.00139739
-0.00133963
-0.00126232
-0.00116536
-0.00104871
-0.000912417
-0.00075658
-0.000581406
-0.000387203
-0.000174398
5.64539e-05
0.000304644
0.000569303
0.000849388
0.00114367
0.00145074
0.00176899
0.0020966
0.00243158
0.00277174
0.00311473
0.00345804
0.00379902
0.00413491
0.0044629
0.00478011
0.0050837
0.00537083
0.00563878
0.00588498
0.00610702
0.00630275
0.0064703
0.00660811
0.00671501
0.00679022
0.0068334
0.00684466
0.00682458
0.00677421
0.00669508
0.00658919
0.00645897
0.00630729
0.00613741
0.00595291
0.00575771
0.00555598
0.00535208
0.00515052
0.0049559
0.00477279
0.00460573
0.00445909
0.00433702
0.00424303
0.00418052
0.00415735
0.00417914
0.000565295
0.000471549
0.000368029
0.000252884
0.000125226
-1.085e-05
-0.000151369
-0.000292927
-0.000432406
-0.000566998
-0.000694262
-0.000812103
-0.000918755
-0.00101276
-0.00109292
-0.00115825
-0.00120796
-0.0012414
-0.00125803
-0.00125743
-0.00123925
-0.0012032
-0.00114904
-0.00107659
-0.000985737
-0.000876391
-0.000748545
-0.00060226
-0.000437683
-0.00025506
-5.47457e-05
0.000162773
0.000396869
0.000646756
0.000911483
0.00118992
0.00148075
0.00178248
0.00209339
0.0024116
0.00273505
0.00306149
0.00338852
0.00371361
0.00403413
0.00434735
0.00465051
0.00494085
0.00521564
0.00547226
0.00570817
0.00592107
0.00610885
0.00626969
0.00640208
0.00650487
0.00657729
0.00661902
0.00663014
0.00661122
0.00656326
0.00648775
0.00638659
0.00626213
0.0061171
0.00595461
0.00577808
0.0055912
0.00539789
0.00520222
0.00500838
0.0048206
0.00464308
0.00447991
0.00433508
0.00421234
0.00411498
0.00404622
0.00401243
0.00401782
0.00078912
0.0006577
0.000529585
0.000399307
0.000261768
0.000120213
-2.21084e-05
-0.000162663
-0.000299106
-0.00042928
-0.000551295
-0.000663523
-0.000764584
-0.000853332
-0.000928818
-0.000990255
-0.00103699
-0.00106848
-0.00108428
-0.00108402
-0.00106736
-0.00103403
-0.000983781
-0.000916422
-0.00083179
-0.00072977
-0.0006103
-0.000473384
-0.000319104
-0.000147633
4.0748e-05
0.000245635
0.000466488
0.000702612
0.000953153
0.00121708
0.00149318
0.00178005
0.00207608
0.00237951
0.00268835
0.00300048
0.00331358
0.00362522
0.00393284
0.0042338
0.00452542
0.00480501
0.00506988
0.00531745
0.00554527
0.00575102
0.00593263
0.0060883
0.00621653
0.00631616
0.00638642
0.00642696
0.00643784
0.0064196
0.00637319
0.00630002
0.00620195
0.00608123
0.00594047
0.00578267
0.00561107
0.00542921
0.00524079
0.00504964
0.00485969
0.00467484
0.00449899
0.00433589
0.00418916
0.00406221
0.00395813
0.0038799
0.00383183
0.0038162
0.00102524
0.000854502
0.000699595
0.000551613
0.000401368
0.000251396
0.000104333
-3.807e-05
-0.000174172
-0.000302428
-0.000421477
-0.00053015
-0.000627459
-0.000712577
-0.000784819
-0.000843605
-0.000888447
-0.000918931
-0.000934701
-0.000935446
-0.000920881
-0.000890741
-0.000844782
-0.000782786
-0.000704563
-0.000609954
-0.000498843
-0.000371172
-0.000226949
-6.62698e-05
0.000110669
0.000303552
0.000511932
0.000735215
0.000972643
0.00122329
0.00148604
0.00175959
0.00204244
0.00233291
0.00262912
0.00292901
0.00323037
0.00353082
0.00382787
0.00411895
0.0044014
0.00467257
0.00492982
0.00517057
0.00539237
0.00559291
0.00577012
0.00592216
0.00604752
0.00614501
0.00621384
0.00625359
0.00626431
0.00624646
0.00620096
0.00612915
0.00603281
0.00591411
0.0057756
0.00562012
0.00545083
0.0052711
0.00508445
0.00489453
0.00470504
0.00451966
0.00434199
0.00417553
0.00402358
0.00388925
0.00377544
0.00368493
0.00361972
0.00357997
0.00126524
0.00105461
0.000871642
0.000704212
0.00053922
0.000378616
0.000224525
7.79978e-05
-5.99725e-05
-0.000188408
-0.000306455
-0.00041339
-0.000508604
-0.000591595
-0.000661939
-0.000719275
-0.000763291
-0.00079371
-0.00081028
-0.00081276
-0.000800908
-0.000774482
-0.000733238
-0.000676942
-0.00060537
-0.000518319
-0.000415615
-0.000297128
-0.00016279
-1.26133e-05
0.000153297
0.000334722
0.000531314
0.000742579
0.000967867
0.00120635
0.00145702
0.00171867
0.00198989
0.0022691
0.0025545
0.0028441
0.00313575
0.00342714
0.00371582
0.00399924
0.00427477
0.00453978
0.00479161
0.00502768
0.00524551
0.00544276
0.00561732
0.00576731
0.00589116
0.00598763
0.00605586
0.00609539
0.0061062
0.00608868
0.00604369
0.0059725
0.00587684
0.00575879
0.0056208
0.00546566
0.00529639
0.00511625
0.00492865
0.00473706
0.00454502
0.00435601
0.00417343
0.00400055
0.00384043
0.00369591
0.00356977
0.0034646
0.00338006
0.00331418
0.00150183
0.00125139
0.00103975
0.000851763
0.000670602
0.00049774
0.000334876
0.000182429
4.07979e-05
-8.95692e-05
-0.000208297
-0.000315086
-0.000409695
-0.000491934
-0.000561644
-0.000618685
-0.000662923
-0.000694223
-0.00071244
-0.000717407
-0.00070893
-0.00068679
-0.000650744
-0.000600541
-0.000535923
-0.000456639
-0.00036245
-0.000253154
-0.000128599
1.12936e-05
0.000166514
0.000336946
0.000522346
0.000722329
0.000936349
0.00116369
0.00140343
0.00165448
0.00191553
0.00218505
0.00246134
0.00274247
0.00302634
0.00331068
0.00359307
0.00387097
0.00414176
0.00440278
0.00465134
0.00488484
0.00510073
0.00529662
0.00547033
0.00561991
0.0057437
0.00584039
0.00590903
0.00594907
0.00596042
0.00594339
0.00589876
0.00582774
0.00573197
0.00561347
0.00547462
0.00531812
0.00514693
0.00496421
0.00477325
0.00457744
0.00438016
0.00418477
0.00399451
0.00381248
0.00364156
0.00348437
0.00334364
0.00322184
0.00311631
0.00302308
0.00172858
0.00143882
0.00119837
0.000989187
0.000790928
0.000604662
0.000431729
0.000271973
0.000125245
-8.50001e-06
-0.000129337
-0.000237365
-0.000332693
-0.000415435
-0.000485689
-0.000543535
-0.000589015
-0.000622137
-0.000642861
-0.000651095
-0.000646692
-0.000629454
-0.000599141
-0.000555483
-0.000498184
-0.000426938
-0.000341443
-0.000241415
-0.000126616
3.12951e-06
0.000147915
0.00030773
0.000482442
0.000671778
0.000875303
0.00109241
0.00132228
0.00156392
0.00181611
0.00207741
0.00234618
0.00262054
0.00289845
0.00317766
0.00345575
0.0037302
0.00399835
0.0042575
0.00450493
0.00473796
0.00495397
0.00515048
0.00532521
0.00547611
0.00560141
0.00569969
0.0057699
0.00581139
0.00582395
0.0058078
0.00576364
0.00569259
0.00559622
0.00547647
0.00533567
0.00517644
0.00500169
0.0048145
0.00461811
0.00441582
0.00421093
0.00400671
0.0038063
0.00361269
0.00342861
0.00325658
0.00309929
0.00295919
0.00283142
0.00271006
0.00193973
0.0016114
0.0013423
0.00111167
0.000895768
0.000695338
0.000511406
0.000343291
0.000190333
5.20281e-05
-7.21162e-05
-0.000182577
-0.000279797
-0.000364178
-0.000436074
-0.00049577
-0.000543484
-0.000579358
-0.000603456
-0.000615757
-0.000616159
-0.000604486
-0.000580493
-0.000543889
-0.000494336
-0.000431473
-0.000354922
-0.00026432
-0.000159334
-3.96855e-05
9.48258e-05
0.000244303
0.000408731
0.00058795
0.000781642
0.000989308
0.00121025
0.00144355
0.00168809
0.00194252
0.00220523
0.00247444
0.0027481
0.003024
0.00329972
0.0035727
0.00384026
0.00409966
0.00434808
0.00458276
0.00480098
0.00500015
0.00517786
0.00533192
0.00546045
0.00556188
0.00563502
0.00567909
0.00569376
0.00567914
0.00563582
0.00556482
0.00546763
0.00534613
0.00520257
0.00503955
0.00485989
0.00466666
0.00446305
0.00425231
0.00403772
0.00382249
0.00360971
0.00340233
0.003203
0.00301416
0.00283859
0.00267878
0.00252774
0.00237775
0.00213005
0.00176405
0.00146672
0.00121463
0.000980849
0.000765798
0.000570234
0.000392985
0.00023292
8.91047e-05
-3.93454e-05
-0.000153263
-0.000253409
-0.000340463
-0.000415017
-0.000477557
-0.000528465
-0.00056801
-0.000596353
-0.000613542
-0.000619515
-0.00061411
-0.000597078
-0.000568098
-0.000526788
-0.000472722
-0.00040545
-0.000324517
-0.000229491
-0.000119987
4.30986e-06
0.000143623
0.000298056
0.000467573
0.000651976
0.000850879
0.00106369
0.00128961
0.0015276
0.00177637
0.0020344
0.00229994
0.00257098
0.0028453
0.00312049
0.00339396
0.00366297
0.00392469
0.00417624
0.00441472
0.00463731
0.00484126
0.00502402
0.00518325
0.00531688
0.00542319
0.00550083
0.00554886
0.00556679
0.0055546
0.00551276
0.00544219
0.00534427
0.0052208
0.00507399
0.00490638
0.00472077
0.0045202
0.00430784
0.00408696
0.00386082
0.00363263
0.00340551
0.00318237
0.0029659
0.0027585
0.00256309
0.00238228
0.0022071
0.00202806
0.00229469
0.00189205
0.00156705
0.00129374
0.00104205
0.00081216
0.000604566
0.000417637
0.000249801
9.97203e-05
-3.38621e-05
-0.000152116
-0.000256103
-0.000346768
-0.000424928
-0.000491257
-0.000546289
-0.000590413
-0.000623879
-0.000646796
-0.000659137
-0.00066075
-0.000651373
-0.000630652
-0.000598154
-0.000553384
-0.000495809
-0.000424882
-0.000340066
-0.00024086
-0.00012683
2.37283e-06
0.00014698
0.000307085
0.000482612
0.000673297
0.000878667
0.00109802
0.0013304
0.00157462
0.00182922
0.00209248
0.00236242
0.00263684
0.00291329
0.00318914
0.00346159
0.00372773
0.00398456
0.00422906
0.00445825
0.00466923
0.00485925
0.00502579
0.00516659
0.00527974
0.00536367
0.00541728
0.0054399
0.00543134
0.00539192
0.00532243
0.00522416
0.00509882
0.00494855
0.00477586
0.00458353
0.00437458
0.00415223
0.00391975
0.00368044
0.00343757
0.00319431
0.00295363
0.00271826
0.00249067
0.00227398
0.002071
0.00187083
0.00166232
0.00242916
0.00199098
0.001639
0.00134482
0.00107539
0.000830631
0.000610799
0.000413834
0.000237741
8.07999e-05
-5.85986e-05
-0.000181946
-0.00029059
-0.000385723
-0.000468375
-0.000539394
-0.000599454
-0.000649057
-0.000688531
-0.000718039
-0.000737582
-0.00074701
-0.000746042
-0.000734284
-0.000711243
-0.000676352
-0.000628992
-0.000568512
-0.000494264
-0.000405628
-0.000302041
-0.000183023
-4.82067e-05
0.000102634
0.000269557
0.000452426
0.000650887
0.000864347
0.00109196
0.0013326
0.00158489
0.00184714
0.00211742
0.0023935
0.00267293
0.00295303
0.00323091
0.00350357
0.00376788
0.00402067
0.00425879
0.00447915
0.0046788
0.00485499
0.00500524
0.0051274
0.0052197
0.00528079
0.00530981
0.00530637
0.00527061
0.0052032
0.00510527
0.00497846
0.00482484
0.00464687
0.00444732
0.00422925
0.00399589
0.00375058
0.00349671
0.00323762
0.00297659
0.00271673
0.00246085
0.00221154
0.0019722
0.00174589
0.00151986
0.00128132
0.00252921
0.00205664
0.00167847
0.00136392
0.00107704
0.000817521
0.000585395
0.000378186
0.000193493
2.92298e-05
-0.000116553
-0.000245651
-0.000359682
-0.000460073
-0.000548049
-0.000624623
-0.000690599
-0.000746576
-0.000792957
-0.000829947
-0.000857564
-0.000875656
-0.000883913
-0.000881893
-0.000869041
-0.00084471
-0.000808183
-0.000758704
-0.000695506
-0.00061784
-0.000525009
-0.000416392
-0.000291482
-0.000149908
8.52787e-06
0.000183825
0.000375757
0.000583849
0.000807356
0.00104525
0.00129622
0.00155863
0.00183056
0.00210981
0.00239387
0.00268003
0.00296532
0.00324661
0.00352064
0.00378407
0.00403356
0.0042658
0.00447761
0.00466599
0.0048282
0.00496183
0.00506483
0.0051356
0.00517305
0.00517655
0.00514605
0.00508202
0.00498547
0.00485792
0.00470136
0.00451822
0.00431126
0.00408358
0.00383845
0.00357931
0.00330967
0.00303301
0.00275275
0.00247216
0.00219424
0.00192173
0.00165839
0.00140759
0.00115474
0.000885444
0.00259082
0.00208508
0.00168156
0.00134722
0.00104329
0.000769244
0.000524892
0.000307351
0.000113828
-5.81175e-05
-0.000210758
-0.000346183
-0.000466263
-0.000572645
-0.000666739
-0.000749707
-0.000822473
-0.000885727
-0.000939931
-0.000985323
-0.00102193
-0.00104959
-0.00106796
-0.00107653
-0.00107469
-0.0010617
-0.00103674
-0.000998944
-0.000947409
-0.000881256
-0.000799643
-0.000701803
-0.000587075
-0.00045494
-0.000305046
-0.000137251
4.83587e-05
0.000251435
0.000471348
0.00070717
0.000957657
0.00122124
0.00149604
0.00177984
0.00207013
0.00236412
0.00265876
0.00295081
0.00323685
0.00351336
0.00377677
0.00402355
0.00425024
0.00445357
0.0046305
0.00477831
0.00489466
0.00497766
0.0050259
0.00503853
0.00501522
0.00495626
0.00486248
0.00473527
0.00457654
0.00438865
0.00417439
0.00393687
0.00367946
0.00340572
0.0031193
0.00282387
0.00252303
0.00222029
0.00191886
0.00162172
0.001333
0.00105647
0.000775734
0.000474734
0.00261014
0.00207248
0.00164454
0.00129106
0.00097058
0.000682334
0.000425916
0.000198045
-4.4511e-06
-0.000184358
-0.000344258
-0.000486519
-0.000613256
-0.000726321
-0.000827295
-0.000917482
-0.000997912
-0.00106935
-0.00113232
-0.00118707
-0.00123364
-0.00127183
-0.00130127
-0.00132139
-0.00133148
-0.00133073
-0.00131819
-0.00129288
-0.00125377
-0.00119983
-0.00113006
-0.00104354
-0.000939455
-0.000817114
-0.000676008
-0.000515835
-0.000336534
-0.00013831
7.83323e-05
0.000312575
0.000563264
0.000828902
0.00110764
0.00139728
0.00169529
0.00199882
0.00230475
0.00260969
0.00291007
0.00320217
0.00348218
0.00374631
0.0039908
0.00421208
0.00440676
0.00457178
0.00470447
0.00480257
0.00486436
0.00488867
0.0048749
0.00482309
0.00473386
0.00460846
0.00444866
0.0042568
0.00403565
0.00378837
0.00351844
0.00322954
0.00292553
0.00261027
0.00228764
0.0019614
0.00163504
0.00131181
0.000996312
0.000692738
0.000382857
4.89586e-05
0.00258349
0.00201522
0.00156385
0.00119195
0.000855483
0.000553438
0.000285187
4.70604e-05
-0.000164486
-0.00035257
-0.000520075
-0.000669635
-0.000803596
-0.000924006
-0.00103261
-0.00113083
-0.0012198
-0.00130036
-0.00137306
-0.00143817
-0.00149572
-0.00154548
-0.00158703
-0.00161973
-0.0016428
-0.00165529
-0.00165617
-0.00164431
-0.00161853
-0.00157767
-0.00152055
-0.00144609
-0.0013533
-0.00124132
-0.00110945
-0.000957233
-0.000784437
-0.000591114
-0.000377625
-0.000144663
0.000106721
0.000375112
0.000658712
0.000955347
0.00126247
0.00157719
0.00189629
0.00221626
0.00253334
0.00284362
0.00314303
0.00342748
0.00369291
0.00393537
0.00415113
0.00433672
0.00448907
0.00460555
0.00468404
0.00472302
0.00472156
0.00467941
0.00459694
0.0044752
0.00431587
0.00412118
0.00389389
0.00363724
0.0033548
0.00305044
0.00272821
0.00239225
0.00204671
0.00169569
0.00134299
0.000992219
0.000648463
0.000316417
-2.40343e-05
-0.000392315
0.00250735
0.00190986
0.00143609
0.00104655
0.000694717
0.00037933
9.95337e-05
-0.000148722
-0.000369345
-0.000565775
-0.000741187
-0.000898474
-0.0010402
-0.0011686
-0.00128556
-0.00139264
-0.00149105
-0.00158168
-0.00166512
-0.00174164
-0.00181125
-0.0018737
-0.00192849
-0.00197492
-0.0020121
-0.00203899
-0.00205442
-0.00205712
-0.00204577
-0.00201903
-0.00197557
-0.00191411
-0.00183348
-0.00173263
-0.00161069
-0.00146699
-0.00130113
-0.00111299
-0.000902769
-0.000671013
-0.000418651
-0.000147002
0.000142207
0.000446839
0.000764351
0.00109181
0.0014259
0.001763
0.00209919
0.00243029
0.00275201
0.00305993
0.00334963
0.00361679
0.00385724
0.0040671
0.00424283
0.00438137
0.00448016
0.00453724
0.00455133
0.00452181
0.00444877
0.00433304
0.00417611
0.00398013
0.00374786
0.00348256
0.00318793
0.00286804
0.00252718
0.00216977
0.00180034
0.00142332
0.00104291
0.000663089
0.000289522
-7.25545e-05
-0.000445208
-0.000849652
0.00237834
0.00175308
0.00125801
0.000851669
0.000485139
0.00015691
-0.000134099
-0.000392315
-0.000622001
-0.000826912
-0.00101051
-0.00117593
-0.00132595
-0.00146297
-0.00158904
-0.00170581
-0.00181456
-0.00191625
-0.00201147
-0.00210051
-0.00218334
-0.00225967
-0.00232893
-0.00239033
-0.0024429
-0.00248547
-0.00251673
-0.00253528
-0.00253962
-0.00252825
-0.00249965
-0.00245236
-0.00238499
-0.00229631
-0.00218522
-0.00205086
-0.00189263
-0.00171021
-0.00150362
-0.00127325
-0.00101987
-0.000744679
-0.00044932
-0.000135872
0.00019314
0.000534754
0.000885593
0.0012419
0.00159957
0.00195423
0.00230126
0.00263594
0.00295346
0.00324907
0.00351815
0.00375633
0.00395957
0.00412429
0.00424743
0.00432657
0.00435994
0.00434655
0.00428613
0.00417922
0.00402712
0.00383186
0.00359614
0.00332328
0.00301712
0.00268191
0.00232222
0.00194283
0.00154861
0.00114444
0.000734946
0.000324542
-8.04824e-05
-0.000474287
-0.000880991
-0.00132369
0.00219328
0.00154177
0.00102655
0.000604277
0.000223757
-0.000116774
-0.000418629
-0.000686606
-0.000925314
-0.00113882
-0.00133086
-0.0015048
-0.00166363
-0.00180993
-0.00194585
-0.00207315
-0.00219319
-0.00230695
-0.00241506
-0.00251778
-0.00261505
-0.00270654
-0.0027916
-0.00286935
-0.00293871
-0.00299839
-0.00304693
-0.00308278
-0.00310428
-0.00310973
-0.00309742
-0.00306569
-0.00301294
-0.0029377
-0.00283866
-0.00271475
-0.00256512
-0.00238925
-0.00218695
-0.0019584
-0.00170423
-0.00142548
-0.00112367
-0.000800806
-0.000459368
-0.000102327
0.000266882
0.000644387
0.00102592
0.00140685
0.0017823
0.00214718
0.00249626
0.00282434
0.0031263
0.00339722
0.00363251
0.003828
0.00398006
0.00408571
0.00414268
0.00414946
0.00410541
0.00401071
0.00386639
0.00367434
0.00343719
0.00315828
0.00284159
0.00249158
0.00211312
0.00171136
0.00129162
0.000859226
0.000419284
-2.32873e-05
-0.000461511
-0.000888892
-0.00133172
-0.00181509
0.00194911
0.00127295
0.000738793
0.000301508
-9.22547e-05
-0.000444514
-0.000756823
-0.00103434
-0.00128201
-0.00150421
-0.00170494
-0.0018878
-0.00205597
-0.00221218
-0.00235871
-0.00249741
-0.00262971
-0.00275662
-0.00287875
-0.00299638
-0.00310941
-0.00321742
-0.00331971
-0.0034153
-0.00350299
-0.00358135
-0.00364879
-0.00370359
-0.0037439
-0.00376784
-0.00377349
-0.00375896
-0.00372244
-0.00366221
-0.00357672
-0.00346464
-0.0033249
-0.00315671
-0.00295966
-0.00273371
-0.00247928
-0.00219724
-0.00188896
-0.00155633
-0.00120177
-0.000828224
-0.000439174
-3.85866e-05
0.000369104
0.000779052
0.00118606
0.00158468
0.00196926
0.00233408
0.00267348
0.00298194
0.00325425
0.00348558
0.00367167
0.00380887
0.00389431
0.00392595
0.00390262
0.0038241
0.00369112
0.00350532
0.00326926
0.00298628
0.00266047
0.00229653
0.00189965
0.00147538
0.0010295
0.000567881
9.6157e-05
-0.000380207
-0.000853473
-0.00131643
-0.00179768
-0.00232447
0.00164297
0.000943839
0.000392017
-5.93176e-05
-0.000465542
-0.000828931
-0.00115128
-0.00143809
-0.00169466
-0.00192565
-0.00213532
-0.00232749
-0.00250552
-0.0026723
-0.00283023
-0.00298124
-0.00312679
-0.00326794
-0.00340532
-0.00353915
-0.0036693
-0.0037953
-0.00391636
-0.0040314
-0.00413908
-0.00423786
-0.00432599
-0.00440156
-0.00446256
-0.00450688
-0.0045324
-0.00453699
-0.00451858
-0.00447521
-0.00440507
-0.00430655
-0.00417829
-0.00401926
-0.00382877
-0.00360653
-0.00335272
-0.00306799
-0.00275353
-0.00241108
-0.00204297
-0.00165209
-0.00124193
-0.000816536
-0.000380484
6.11577e-05
0.000502894
0.000938884
0.00136303
0.00176909
0.00215079
0.00250197
0.00281671
0.00308947
0.00331522
0.00348962
0.00360908
0.00367089
0.00367331
0.00361563
0.00349817
0.0033223
0.00309042
0.00280586
0.00247282
0.0020962
0.00168156
0.00123487
0.000762438
0.000270701
-0.000234113
-0.000745929
-0.00125618
-0.00175686
-0.00227908
-0.00285234
0.00127221
0.00055186
-1.63032e-05
-0.000480686
-0.000898558
-0.00127245
-0.0016044
-0.00190027
-0.00216566
-0.00240553
-0.00262438
-0.00282626
-0.00301471
-0.00319273
-0.00336286
-0.00352709
-0.00368694
-0.00384349
-0.00399736
-0.00414875
-0.00429749
-0.00444303
-0.0045845
-0.00472071
-0.0048502
-0.00497129
-0.00508206
-0.00518043
-0.00526418
-0.00533101
-0.00537855
-0.00540443
-0.00540632
-0.00538197
-0.00532929
-0.00524638
-0.00513159
-0.00498356
-0.0048013
-0.00458425
-0.00433229
-0.00404584
-0.00372586
-0.00337389
-0.00299213
-0.00258337
-0.00215109
-0.00169936
-0.00123291
-0.000756989
-0.000277399
0.000199637
0.000667549
0.00111953
0.00154867
0.0019481
0.00231112
0.00263139
0.00290305
0.00312092
0.0032806
0.00337862
0.00341256
0.00338109
0.00328406
0.00312248
0.00289853
0.00261547
0.00227758
0.00189001
0.00145864
0.000989917
0.000490708
-3.1918e-05
-0.00057108
-0.00112003
-0.00166929
-0.00221001
-0.00277595
-0.00339909
0.00083436
9.46431e-05
-0.000488479
-0.000964872
-0.00139355
-0.00177731
-0.00211842
-0.00242308
-0.00269722
-0.00294606
-0.00317435
-0.00338635
-0.00358574
-0.00377571
-0.00395885
-0.00413725
-0.00431248
-0.00448562
-0.00465728
-0.00482766
-0.00499651
-0.00516323
-0.00532685
-0.00548607
-0.00563932
-0.00578474
-0.00592028
-0.00604366
-0.00615246
-0.00624415
-0.00631612
-0.00636573
-0.00639038
-0.00638754
-0.00635478
-0.00628989
-0.00619088
-0.00605607
-0.00588412
-0.00567415
-0.00542571
-0.00513891
-0.00481446
-0.00445366
-0.00405851
-0.00363168
-0.00317656
-0.00269727
-0.00219858
-0.00168596
-0.00116547
-0.000643735
-0.000127798
0.000374948
0.000856911
0.00131045
0.00172802
0.0021024
0.00242679
0.00269506
0.00290188
0.00304291
0.0031149
0.00311581
0.0030449
0.00290272
0.00269116
0.00241336
0.00207362
0.00167731
0.00123067
0.000740638
0.000214681
-0.000339443
-0.000914136
-0.00150191
-0.00209229
-0.00267548
-0.00328814
-0.00396489
0.000327213
-0.00042995
-0.0010266
-0.00151392
-0.00195254
-0.0023455
-0.00269532
-0.00300852
-0.00329133
-0.00354923
-0.00378722
-0.00400973
-0.00422064
-0.00442324
-0.00462024
-0.00481379
-0.00500549
-0.00519644
-0.00538726
-0.00557809
-0.00576865
-0.00595826
-0.00614586
-0.00633004
-0.00650911
-0.00668106
-0.00684365
-0.00699443
-0.00713076
-0.00724988
-0.00734893
-0.007425
-0.00747518
-0.00749662
-0.00748658
-0.00744248
-0.00736198
-0.007243
-0.00708386
-0.00688327
-0.00664044
-0.00635513
-0.00602771
-0.0056592
-0.00525135
-0.00480665
-0.00432838
-0.00382059
-0.00328813
-0.00273661
-0.00217236
-0.00160234
-0.00103412
-0.000475677
6.46771e-05
0.000578476
0.00105727
0.00149284
0.00187736
0.00220363
0.00246526
0.00265689
0.00277431
0.00281463
0.00277638
0.00265956
0.00246565
0.00219759
0.00185967
0.00145743
0.000997473
0.000487247
-6.5134e-05
-0.000651169
-0.00126247
-0.00189075
-0.00252441
-0.00315266
-0.00381525
-0.00454967
-0.000251202
-0.00102381
-0.0016325
-0.00212966
-0.00257733
-0.00297881
-0.00333687
-0.00365834
-0.00394973
-0.00421679
-0.00446472
-0.00469817
-0.00492117
-0.00513711
-0.00534881
-0.00555849
-0.00576778
-0.00597781
-0.00618916
-0.00640196
-0.00661588
-0.00683016
-0.00704365
-0.00725484
-0.0074619
-0.00766267
-0.00785475
-0.00803549
-0.00820203
-0.00835138
-0.0084804
-0.0085859
-0.00866467
-0.0087135
-0.00872931
-0.00870913
-0.00865023
-0.00855013
-0.00840671
-0.00821828
-0.00798363
-0.0077021
-0.00737369
-0.00699908
-0.0065797
-0.00611781
-0.00561648
-0.0050797
-0.00451229
-0.00391998
-0.00330931
-0.00268761
-0.00206291
-0.00144382
-0.000839374
-0.000258923
0.00028811
0.000792417
0.00124503
0.00163756
0.00196242
0.00221306
0.00238417
0.00247185
0.00247375
0.00238915
0.00221903
0.00196602
0.00163434
0.00122965
0.000758896
0.000230056
-0.000348073
-0.000966186
-0.00161504
-0.00228544
-0.00296461
-0.00364061
-0.00435657
-0.00515303
-0.000902583
-0.00168857
-0.00230777
-0.00281362
-0.00326944
-0.00367876
-0.00404459
-0.00437404
-0.00467393
-0.00495023
-0.00520837
-0.00545317
-0.0056888
-0.0059188
-0.00614606
-0.00637285
-0.00660087
-0.00683123
-0.00706452
-0.00730084
-0.00753979
-0.00778057
-0.00802193
-0.00826225
-0.00849956
-0.00873158
-0.00895571
-0.00916911
-0.00936872
-0.00955127
-0.00971338
-0.00985154
-0.00996221
-0.0100419
-0.010087
-0.0100942
-0.0100604
-0.00998262
-0.00985829
-0.00968526
-0.00946182
-0.00918689
-0.00886
-0.00848142
-0.00805221
-0.00757431
-0.00705055
-0.00648474
-0.00588165
-0.00524704
-0.00458765
-0.00391111
-0.00322591
-0.00254126
-0.00186699
-0.00121334
-0.000590777
-9.77575e-06
0.000519435
0.000987137
0.00138439
0.00170331
0.00193729
0.00208124
0.00213175
0.00208724
0.00194803
0.00171631
0.00139612
0.000993218
0.000514839
-3.04982e-05
-0.000633281
-0.00128334
-0.0019705
-0.00268459
-0.00341149
-0.00413804
-0.00491101
-0.00577421
-0.00162834
-0.00242558
-0.00305371
-0.00356711
-0.00403015
-0.0044466
-0.00481971
-0.00515688
-0.00546516
-0.00575079
-0.00601937
-0.00627592
-0.00652474
-0.00676949
-0.00701314
-0.00725803
-0.00750588
-0.00775783
-0.00801447
-0.00827586
-0.00854156
-0.00881069
-0.00908192
-0.00935355
-0.00962346
-0.00988922
-0.0101481
-0.010397
-0.0106326
-0.0108516
-0.0110501
-0.0112243
-0.0113705
-0.0114846
-0.0115628
-0.0116013
-0.0115965
-0.0115449
-0.0114434
-0.0112895
-0.0110808
-0.0108158
-0.0104935
-0.0101137
-0.0096769
-0.00918475
-0.00863974
-0.00804542
-0.00740643
-0.00672851
-0.00601851
-0.00528432
-0.00453487
-0.00377996
-0.00303017
-0.0022967
-0.00159111
-0.000925122
-0.00031034
0.000242059
0.000721621
0.00111893
0.0014259
0.00163603
0.00174468
0.0017492
0.00164905
0.00144587
0.00114339
0.000747352
0.000265264
-0.000293835
-0.000919685
-0.0016012
-0.00232718
-0.00308638
-0.00386324
-0.00464324
-0.00547703
-0.00641199
-0.00242958
-0.00323589
-0.00387137
-0.00439113
-0.00486044
-0.00528332
-0.00566322
-0.0060078
-0.00632437
-0.00661938
-0.00689864
-0.00716731
-0.00742984
-0.00769001
-0.00795086
-0.00821479
-0.00848358
-0.00875836
-0.00903973
-0.00932772
-0.00962186
-0.0099212
-0.0102243
-0.0105295
-0.0108343
-0.0111364
-0.0114327
-0.0117201
-0.0119949
-0.0122535
-0.0124919
-0.0127059
-0.0128913
-0.0130439
-0.0131593
-0.0132332
-0.0132615
-0.0132403
-0.013166
-0.0130354
-0.0128455
-0.0125943
-0.0122802
-0.0119023
-0.0114609
-0.0109569
-0.0103924
-0.00977075
-0.00909625
-0.00837458
-0.0076126
-0.00681843
-0.00600135
-0.00517174
-0.00434093
-0.00352106
-0.00272485
-0.00196535
-0.00125562
-0.00060846
-3.59907e-05
0.000450646
0.000841664
0.00112895
0.00130637
0.00136998
0.00131821
0.00115191
0.000874396
0.000491257
1.02128e-05
-0.0005592
-0.00120596
-0.001918
-0.00268303
-0.00348862
-0.00431761
-0.00515399
-0.00605262
-0.00706465
-0.00330707
-0.00412025
-0.00476145
-0.00528638
-0.00576103
-0.00618961
-0.00657579
-0.00692748
-0.00725221
-0.00755664
-0.00784677
-0.0081279
-0.00840463
-0.00868083
-0.00895964
-0.00924352
-0.00953428
-0.00983308
-0.0101405
-0.0104566
-0.0107808
-0.0111122
-0.0114493
-0.0117901
-0.0121323
-0.0124732
-0.0128098