/*--------------------------------*- C++ -*----------------------------------*\
| =========                 |                                                 |
| \\      /  F ield         | OpenFOAM: The Open Source CFD Toolbox           |
|  \\    /   O peration     | Version:  2506                                  |
|   \\  /    A nd           | Website:  www.openfoam.com                      |
|    \\/     M anipulation  |                                                 |
\*---------------------------------------------------------------------------*/
FoamFile
{
    version     2.0;
    format      ascii;
    arch        "LSB;label=32;scalar=64";
    class       surfaceScalarField;
    location    "1.975";
    object      phi;
}
// * * * * * * * * * * * * * * * * * * * * * * * * * * * * * * * * * * * * * //

dimensions      [0 3 -1 0 0 0 0];

oriented        oriented;

internalField   nonuniform List<scalar> 
12640
(
2.19865e-10
-2.29336e-10
6.17895e-10
-3.9805e-10
9.39054e-10
-3.21165e-10
1.05034e-09
-1.11285e-10
8.9246e-10
1.57872e-10
4.46084e-10
4.46372e-10
-2.85818e-10
7.31911e-10
-1.28815e-09
1.00235e-09
-2.53943e-09
1.25127e-09
-4.01512e-09
1.47568e-09
-5.68971e-09
1.67458e-09
-7.53791e-09
1.84819e-09
-9.53535e-09
1.99744e-09
-1.16589e-08
2.12362e-09
-1.38872e-08
2.22822e-09
-1.61999e-08
2.31277e-09
-1.85787e-08
2.37875e-09
-2.10062e-08
2.42753e-09
-2.34665e-08
2.46031e-09
-2.59446e-08
2.47811e-09
-2.84264e-08
2.48176e-09
-3.08983e-08
2.47192e-09
-3.33474e-08
2.44907e-09
-3.57609e-08
2.41351e-09
-3.81263e-08
2.36543e-09
-4.04311e-08
2.30487e-09
-4.26629e-08
2.2318e-09
-4.48091e-08
2.14615e-09
-4.68569e-08
2.04779e-09
-4.87935e-08
1.93663e-09
-5.06061e-08
1.81258e-09
-5.22817e-08
1.6756e-09
-5.38074e-08
1.52577e-09
-5.51707e-08
1.36327e-09
-5.63591e-08
1.1884e-09
-5.73607e-08
1.00164e-09
-5.81644e-08
8.0362e-10
-5.87595e-08
5.95184e-10
-5.91369e-08
3.77355e-10
-5.92883e-08
1.5136e-10
-5.92069e-08
-8.13692e-11
-5.88877e-08
-3.19194e-10
-5.83274e-08
-5.60276e-10
-5.75248e-08
-8.02596e-10
-5.64809e-08
-1.04398e-09
-5.51988e-08
-1.28209e-09
-5.36843e-08
-1.5145e-09
-5.19456e-08
-1.73868e-09
-4.99936e-08
-1.95204e-09
-4.78416e-08
-2.15201e-09
-4.55055e-08
-2.33606e-09
-4.30038e-08
-2.5017e-09
-4.03572e-08
-2.64661e-09
-3.75886e-08
-2.76862e-09
-3.47229e-08
-2.86577e-09
-3.17865e-08
-2.93638e-09
-2.88074e-08
-2.97905e-09
-2.58147e-08
-2.99274e-09
-2.2838e-08
-2.97674e-09
-1.99072e-08
-2.93076e-09
-1.70523e-08
-2.8549e-09
-1.43027e-08
-2.74967e-09
-1.16866e-08
-2.61602e-09
-9.23135e-09
-2.4553e-09
-6.96206e-09
-2.26929e-09
-4.90187e-09
-2.06019e-09
-3.07126e-09
-1.83061e-09
-1.48768e-09
-1.58357e-09
-1.65088e-10
-1.32259e-09
8.86597e-10
-1.05168e-09
1.66209e-09
-7.75486e-10
2.16162e-09
-4.99528e-10
2.39217e-09
-2.3055e-10
2.36929e-09
2.28734e-11
2.12007e-09
2.49222e-10
1.68756e-09
4.32518e-10
1.13758e-09
5.49999e-10
5.69592e-10
5.6801e-10
1.32827e-10
4.36796e-10
1.32833e-10
3.95343e-10
-6.24721e-10
9.07509e-10
-9.102e-10
1.14397e-09
-5.57635e-10
8.66934e-10
1.65757e-10
-5.7308e-11
1.08213e-09
-1.68759e-09
2.07666e-09
-4.03287e-09
3.0772e-09
-7.06993e-09
4.03941e-09
-1.07559e-08
4.93724e-09
-1.50366e-08
5.75637e-09
-1.98521e-08
6.48999e-09
-2.514e-08
7.13618e-09
-3.08387e-08
7.69608e-09
-3.68878e-08
8.17272e-09
-4.32297e-08
8.57018e-09
-4.981e-08
8.89302e-09
-5.65771e-08
9.14584e-09
-6.34826e-08
9.33306e-09
-7.04809e-08
9.45864e-09
-7.75289e-08
9.52607e-09
-8.45854e-08
9.53824e-09
-9.1611e-08
9.49749e-09
-9.85675e-08
9.40554e-09
-1.05418e-07
9.26362e-09
-1.12125e-07
9.07249e-09
-1.18652e-07
8.83251e-09
-1.24964e-07
8.54381e-09
-1.31025e-07
8.20629e-09
-1.36797e-07
7.8198e-09
-1.42244e-07
7.38418e-09
-1.47331e-07
6.89943e-09
-1.52021e-07
6.36576e-09
-1.56279e-07
5.78372e-09
-1.6007e-07
5.15427e-09
-1.63361e-07
4.47886e-09
-1.66118e-07
3.75954e-09
-1.68314e-07
2.99896e-09
-1.69919e-07
2.20046e-09
-1.7091e-07
1.36807e-09
-1.71265e-07
5.06558e-10
-1.70968e-07
-3.78561e-10
-1.70006e-07
-1.28107e-09
-1.68372e-07
-2.19404e-09
-1.66065e-07
-3.10994e-09
-1.63088e-07
-4.02062e-09
-1.59453e-07
-4.91749e-09
-1.55176e-07
-5.79151e-09
-1.50281e-07
-6.63341e-09
-1.44799e-07
-7.43377e-09
-1.38768e-07
-8.18316e-09
-1.32232e-07
-8.87231e-09
-1.25241e-07
-9.49227e-09
-1.17853e-07
-1.00346e-08
-1.10131e-07
-1.04914e-08
-1.02141e-07
-1.08556e-08
-9.39558e-08
-1.11213e-08
-8.56515e-08
-1.12833e-08
-7.73062e-08
-1.13381e-08
-6.89999e-08
-1.1283e-08
-6.08134e-08
-1.11172e-08
-5.28271e-08
-1.08412e-08
-4.51199e-08
-1.04569e-08
-3.7768e-08
-9.96795e-09
-3.08437e-08
-9.37953e-09
-2.44146e-08
-8.69839e-09
-1.85419e-08
-7.93288e-09
-1.32796e-08
-7.09297e-09
-8.67284e-09
-6.1903e-09
-4.7571e-09
-5.23833e-09
-1.55623e-09
-4.25257e-09
9.1925e-10
-3.25097e-09
2.67437e-09
-2.25466e-09
3.73277e-09
-1.28896e-09
4.14071e-09
-3.85074e-10
3.9725e-09
4.17436e-10
3.33763e-09
1.06738e-09
2.38966e-09
1.49795e-09
1.33497e-09
1.62265e-09
4.34793e-10
1.33688e-09
5.67646e-10
3.25349e-10
-9.50066e-10
5.64008e-10
-1.14885e-09
2.81128e-10
-2.74759e-10
-7.9546e-10
1.24235e-09
-2.82867e-09
3.11535e-09
-5.89722e-09
5.14522e-09
-1.00179e-08
7.19786e-09
-1.51645e-08
9.186e-09
-2.1282e-08
1.10548e-08
-2.82973e-08
1.27716e-08
-3.61262e-08
1.4319e-08
-4.46797e-08
1.56897e-08
-5.3867e-08
1.68834e-08
-6.35982e-08
1.79039e-08
-7.37861e-08
1.8758e-08
-8.43467e-08
1.94536e-08
-9.51999e-08
1.99991e-08
-1.0627e-07
2.04029e-08
-1.17484e-07
2.06726e-08
-1.28773e-07
2.0815e-08
-1.4007e-07
2.0836e-08
-1.51313e-07
2.07402e-08
-1.62439e-07
2.05312e-08
-1.73387e-07
2.02118e-08
-1.84098e-07
1.97836e-08
-1.94513e-07
1.92477e-08
-2.04574e-07
1.86045e-08
-2.14222e-07
1.78543e-08
-2.23399e-07
1.6997e-08
-2.32048e-07
1.60328e-08
-2.4011e-07
1.49622e-08
-2.47531e-07
1.37859e-08
-2.54253e-07
1.25058e-08
-2.60223e-07
1.11242e-08
-2.65388e-07
9.64472e-09
-2.69701e-07
8.0722e-09
-2.73115e-07
6.41268e-09
-2.75588e-07
4.67364e-09
-2.77084e-07
2.86404e-09
-2.77572e-07
9.94356e-10
-2.77027e-07
-9.23441e-10
-2.75432e-07
-2.87589e-09
-2.72778e-07
-4.84815e-09
-2.69064e-07
-6.82404e-09
-2.64298e-07
-8.78626e-09
-2.58499e-07
-1.07165e-08
-2.51695e-07
-1.25957e-08
-2.43924e-07
-1.44042e-08
-2.35236e-07
-1.61222e-08
-2.25689e-07
-1.773e-08
-2.15353e-07
-1.9208e-08
-2.04308e-07
-2.05375e-08
-1.92642e-07
-2.17009e-08
-1.80451e-07
-2.26817e-08
-1.67842e-07
-2.34653e-08
-1.54924e-07
-2.4039e-08
-1.41815e-07
-2.43927e-08
-1.28634e-07
-2.45184e-08
-1.15506e-07
-2.44114e-08
-1.02554e-07
-2.40695e-08
-8.99009e-08
-2.34941e-08
-7.76683e-08
-2.26895e-08
-6.59726e-08
-2.16636e-08
-5.49246e-08
-2.04275e-08
-4.46272e-08
-1.89958e-08
-3.51736e-08
-1.73865e-08
-2.66456e-08
-1.5621e-08
-1.91113e-08
-1.37247e-08
-1.26231e-08
-1.17265e-08
-7.21574e-09
-9.65995e-09
-2.90302e-09
-7.56369e-09
3.24952e-10
-5.48264e-09
2.50579e-09
-3.46979e-09
3.70944e-09
-1.58873e-09
4.04403e-09
8.2844e-11
3.66242e-09
1.44899e-09
2.76972e-09
2.39067e-09
1.62936e-09
2.76302e-09
5.67158e-10
2.39906e-09
1.13481e-09
1.18575e-10
-1.06863e-09
-1.61576e-10
-8.68703e-10
-1.25114e-09
8.14806e-10
-3.4152e-09
3.40642e-09
-6.81503e-09
6.51519e-09
-1.15296e-08
9.85982e-09
-1.75743e-08
1.32425e-08
-2.49174e-08
1.6529e-08
-3.34938e-08
1.96312e-08
-4.32159e-08
2.24937e-08
-5.39819e-08
2.50849e-08
-6.56818e-08
2.73896e-08
-7.82022e-08
2.94038e-08
-9.14295e-08
3.11312e-08
-1.05252e-07
3.25804e-08
-1.19561e-07
3.37625e-08
-1.34251e-07
3.46898e-08
-1.49223e-07
3.53749e-08
-1.6438e-07
3.58294e-08
-1.79629e-07
3.60642e-08
-1.94882e-07
3.60883e-08
-2.10051e-07
3.59093e-08
-2.25053e-07
3.55331e-08
-2.39805e-07
3.49642e-08
-2.54227e-07
3.42057e-08
-2.68239e-07
3.32596e-08
-2.81762e-07
3.2127e-08
-2.94716e-07
3.08088e-08
-3.07025e-07
2.93055e-08
-3.1861e-07
2.76179e-08
-3.29395e-07
2.57474e-08
-3.39305e-07
2.36961e-08
-3.48267e-07
2.14676e-08
-3.5621e-07
1.90668e-08
-3.63065e-07
1.65003e-08
-3.6877e-07
1.37769e-08
-3.73265e-07
1.09075e-08
-3.76497e-07
7.90529e-09
-3.78418e-07
4.78593e-09
-3.78992e-07
1.56759e-09
-3.78186e-07
-1.7291e-09
-3.75981e-07
-5.0811e-09
-3.72366e-07
-8.46309e-09
-3.67342e-07
-1.18476e-08
-3.60923e-07
-1.52054e-08
-3.53134e-07
-1.85055e-08
-3.44014e-07
-2.17159e-08
-3.33615e-07
-2.48036e-08
-3.22001e-07
-2.77355e-08
-3.09253e-07
-3.04782e-08
-2.95461e-07
-3.29995e-08
-2.80731e-07
-3.5268e-08
-2.65178e-07
-3.72543e-08
-2.48928e-07
-3.8931e-08
-2.3212e-07
-4.02739e-08
-2.14897e-07
-4.1262e-08
-1.97411e-07
-4.18782e-08
-1.7982e-07
-4.21097e-08
-1.62283e-07
-4.19485e-08
-1.44961e-07
-4.13913e-08
-1.28014e-07
-4.04405e-08
-1.116e-07
-3.91037e-08
-9.58697e-08
-3.73942e-08
-8.09662e-08
-3.5331e-08
-6.70231e-08
-3.2939e-08
-5.41608e-08
-3.02487e-08
-4.24848e-08
-2.7297e-08
-3.20829e-08
-2.41266e-08
-2.30221e-08
-2.07872e-08
-1.53466e-08
-1.73355e-08
-9.07368e-09
-1.38366e-08
-4.1908e-09
-1.03655e-08
-6.51225e-10
-7.00938e-09
1.63048e-09
-3.87045e-09
2.78354e-09
-1.07025e-09
2.98677e-09
1.24573e-09
2.47449e-09
2.90294e-09
1.54283e-09
3.6947e-09
5.58901e-10
3.38299e-09
1.6937e-09
-1.54859e-10
-9.1377e-10
-1.10658e-09
8.30175e-11
-3.19637e-09
2.9046e-09
-6.65125e-09
6.86132e-09
-1.16087e-08
1.14727e-08
-1.81323e-08
1.63834e-08
-2.62258e-08
2.1336e-08
-3.58469e-08
2.61502e-08
-4.69193e-08
3.07035e-08
-5.93419e-08
3.49164e-08
-7.2998e-08
3.8741e-08
-8.77607e-08
4.21522e-08
-1.03498e-07
4.51412e-08
-1.20077e-07
4.77101e-08
-1.37365e-07
4.98685e-08
-1.55233e-07
5.16303e-08
-1.73555e-07
5.30115e-08
-1.92208e-07
5.40287e-08
-2.11077e-07
5.46979e-08
-2.30046e-07
5.50337e-08
-2.49007e-07
5.50489e-08
-2.67852e-07
5.4754e-08
-2.86476e-07
5.41578e-08
-3.04779e-07
5.32666e-08
-3.22658e-07
5.20852e-08
-3.40016e-07
5.0617e-08
-3.56753e-07
4.88641e-08
-3.72772e-07
4.68283e-08
-3.87978e-07
4.45112e-08
-4.02275e-07
4.19145e-08
-4.15569e-07
3.90413e-08
-4.27768e-07
3.58957e-08
-4.38784e-07
3.24836e-08
-4.48531e-07
2.88135e-08
-4.56927e-07
2.48961e-08
-4.63895e-07
2.07453e-08
-4.69366e-07
1.63781e-08
-4.73275e-07
1.1815e-08
-4.75569e-07
7.07997e-09
-4.76202e-07
2.20076e-09
-4.7514e-07
-2.79145e-09
-4.72359e-07
-7.86195e-09
-4.6785e-07
-1.29727e-08
-4.61615e-07
-1.80827e-08
-4.53672e-07
-2.31482e-08
-4.44054e-07
-2.81232e-08
-4.3281e-07
-3.29602e-08
-4.20003e-07
-3.76104e-08
-4.05714e-07
-4.20246e-08
-3.90038e-07
-4.61538e-08
-3.73087e-07
-4.99502e-08
-3.54988e-07
-5.33677e-08
-3.35879e-07
-5.63627e-08
-3.15915e-07
-5.88954e-08
-2.95259e-07
-6.09298e-08
-2.74086e-07
-6.24353e-08
-2.52577e-07
-6.33866e-08
-2.30922e-07
-6.37652e-08
-2.09311e-07
-6.3559e-08
-1.87939e-07
-6.27639e-08
-1.66996e-07
-6.13831e-08
-1.46672e-07
-5.94282e-08
-1.27147e-07
-5.69192e-08
-1.08593e-07
-5.38845e-08
-9.11711e-08
-5.03611e-08
-7.50247e-08
-4.63951e-08
-6.02806e-08
-4.20411e-08
-4.70439e-08
-3.73634e-08
-3.53955e-08
-3.24356e-08
-2.53887e-08
-2.73423e-08
-1.70459e-08
-2.21794e-08
-1.03549e-08
-1.70565e-08
-5.26491e-09
-1.20994e-08
-1.68237e-09
-7.45298e-09
5.33165e-10
-3.28578e-09
1.57388e-09
2.0501e-10
1.68881e-09
2.78799e-09
1.19006e-09
4.19346e-09
4.63189e-10
4.10985e-09
2.15688e-09
-4.58719e-10
-4.5506e-10
-2.16949e-09
1.7938e-09
-5.38215e-09
6.11727e-09
-1.02651e-08
1.17443e-08
-1.69159e-08
1.81234e-08
-2.53698e-08
2.48373e-08
-3.561e-08
3.15762e-08
-4.75779e-08
3.81181e-08
-6.11825e-08
4.4308e-08
-7.63088e-08
5.00428e-08
-9.28256e-08
5.52578e-08
-1.10591e-07
5.99176e-08
-1.29457e-07
6.40073e-08
-1.49274e-07
6.75271e-08
-1.69892e-07
7.04867e-08
-1.91164e-07
7.29024e-08
-2.12946e-07
7.47934e-08
-2.35098e-07
7.61801e-08
-2.57482e-07
7.70826e-08
-2.79968e-07
7.75194e-08
-3.02426e-07
7.75071e-08
-3.24732e-07
7.70593e-08
-3.46761e-07
7.61875e-08
-3.68395e-07
7.49004e-08
-3.89515e-07
7.32046e-08
-4.10003e-07
7.1105e-08
-4.29744e-07
6.86052e-08
-4.48623e-07
6.57081e-08
-4.66529e-07
6.24168e-08
-4.83349e-07
5.87347e-08
-4.98975e-07
5.46669e-08
-5.13299e-07
5.02202e-08
-5.2622e-07
4.54038e-08
-5.37636e-07
4.02304e-08
-5.47456e-07
3.47159e-08
-5.55591e-07
2.88805e-08
-5.61962e-07
2.27486e-08
-5.66496e-07
1.63493e-08
-5.69133e-07
9.71644e-09
-5.69821e-07
2.88886e-09
-5.68522e-07
-4.08991e-09
-5.65213e-07
-1.11716e-08
-5.59882e-07
-1.83037e-08
-5.52535e-07
-2.54293e-08
-5.43195e-07
-3.24885e-08
-5.319e-07
-3.9418e-08
-5.18708e-07
-4.61525e-08
-5.03693e-07
-5.26253e-08
-4.86949e-07
-5.8769e-08
-4.68586e-07
-6.45169e-08
-4.48732e-07
-6.98035e-08
-4.27534e-07
-7.4566e-08
-4.05151e-07
-7.87452e-08
-3.8176e-07
-8.22865e-08
-3.57549e-07
-8.51411e-08
-3.32717e-07
-8.72671e-08
-3.07473e-07
-8.86303e-08
-2.82033e-07
-8.92052e-08
-2.56617e-07
-8.89756e-08
-2.31445e-07
-8.79357e-08
-2.06738e-07
-8.60902e-08
-1.82711e-07
-8.3455e-08
-1.59573e-07
-8.00574e-08
-1.37521e-07
-7.59366e-08
-1.16738e-07
-7.11437e-08
-9.73916e-08
-6.57417e-08
-7.96267e-08
-5.9806e-08
-6.35653e-08
-5.34248e-08
-4.93018e-08
-4.66992e-08
-3.68998e-08
-3.97443e-08
-2.63885e-08
-3.26906e-08
-1.77595e-08
-2.56856e-08
-1.09624e-08
-1.88964e-08
-5.90219e-09
-1.25132e-08
-2.43487e-09
-6.7531e-09
-3.64077e-10
-1.86577e-09
5.63094e-10
1.86081e-09
6.61268e-10
4.09528e-09
3.15041e-10
4.45606e-09
2.47191e-09
-7.73748e-10
3.18688e-10
-3.28849e-09
4.30855e-09
-7.69531e-09
1.05241e-08
-1.40928e-08
1.81418e-08
-2.25272e-08
2.65578e-08
-3.29961e-08
3.53062e-08
-4.54544e-08
4.40345e-08
-5.98213e-08
5.2485e-08
-7.59875e-08
6.04743e-08
-9.38222e-08
6.78774e-08
-1.13179e-07
7.46147e-08
-1.33902e-07
8.06401e-08
-1.55827e-07
8.59332e-08
-1.78792e-07
9.04915e-08
-2.0263e-07
9.4325e-08
-2.27179e-07
9.74514e-08
-2.52279e-07
9.98931e-08
-2.77773e-07
1.01674e-07
-3.03509e-07
1.02818e-07
-3.29337e-07
1.03348e-07
-3.55114e-07
1.03284e-07
-3.80697e-07
1.02642e-07
-4.05946e-07
1.01437e-07
-4.30726e-07
9.96798e-08
-4.549e-07
9.73792e-08
-4.78337e-07
9.45419e-08
-5.00905e-07
9.11729e-08
-5.22474e-07
8.72771e-08
-5.42916e-07
8.2859e-08
-5.62105e-07
7.79244e-08
-5.79919e-07
7.24809e-08
-5.96238e-07
6.65386e-08
-6.10945e-07
6.0111e-08
-6.2393e-07
5.32156e-08
-6.35089e-07
4.58746e-08
-6.44324e-07
3.81153e-08
-6.51546e-07
2.99708e-08
-6.56677e-07
2.14801e-08
-6.59649e-07
1.26881e-08
-6.60406e-07
3.64632e-09
-6.58908e-07
-5.58796e-09
-6.55128e-07
-1.49513e-08
-6.49057e-07
-2.43749e-08
-6.40702e-07
-3.37846e-08
-6.30088e-07
-4.3102e-08
-6.17261e-07
-5.22451e-08
-6.02285e-07
-6.11288e-08
-5.85243e-07
-6.96666e-08
-5.66241e-07
-7.77714e-08
-5.45402e-07
-8.53564e-08
-5.22868e-07
-9.2337e-08
-4.98802e-07
-9.86319e-08
-4.73383e-07
-1.04164e-07
-4.46806e-07
-1.08864e-07
-4.19279e-07
-1.12667e-07
-3.91026e-07
-1.1552e-07
-3.62279e-07
-1.17378e-07
-3.33276e-07
-1.18208e-07
-3.04262e-07
-1.17989e-07
-2.75484e-07
-1.16714e-07
-2.47187e-07
-1.14387e-07
-2.19612e-07
-1.1103e-07
-1.9299e-07
-1.06679e-07
-1.67544e-07
-1.01383e-07
-1.43478e-07
-9.52094e-08
-1.2098e-07
-8.82399e-08
-1.00214e-07
-8.05722e-08
-8.13181e-08
-7.23207e-08
-6.44011e-08
-6.36161e-08
-4.95383e-08
-5.46071e-08
-3.67682e-08
-4.54607e-08
-2.60891e-08
-3.63647e-08
-1.74557e-08
-2.75298e-08
-1.07766e-08
-1.91924e-08
-5.91041e-09
-1.16193e-08
-2.66401e-09
-5.11218e-09
-7.88952e-10
-1.4241e-11
2.13933e-11
3.28493e-09
1.3685e-10
4.3406e-09
2.60876e-09
-1.0898e-09
1.4085e-09
-4.42657e-09
7.64533e-09
-1.00635e-08
1.6161e-08
-1.8024e-08
2.61023e-08
-2.82966e-08
3.68303e-08
-4.08342e-08
4.78438e-08
-5.55573e-08
5.87576e-08
-7.23579e-08
6.92856e-08
-9.11049e-08
7.92212e-08
-1.11649e-07
8.84215e-08
-1.33828e-07
9.67933e-08
-1.5747e-07
1.04282e-07
-1.82398e-07
1.10862e-07
-2.08436e-07
1.16529e-07
-2.35402e-07
1.21292e-07
-2.63122e-07
1.25171e-07
-2.9142e-07
1.28191e-07
-3.20126e-07
1.3038e-07
-3.49074e-07
1.31766e-07
-3.78099e-07
1.32373e-07
-4.07042e-07
1.32227e-07
-4.35747e-07
1.31346e-07
-4.64059e-07
1.29749e-07
-4.91827e-07
1.27448e-07
-5.18901e-07
1.24454e-07
-5.45135e-07
1.20776e-07
-5.70383e-07
1.1642e-07
-5.945e-07
1.11395e-07
-6.17346e-07
1.05705e-07
-6.38782e-07
9.93603e-08
-6.58672e-07
9.23708e-08
-6.76884e-07
8.47507e-08
-6.93291e-07
7.65182e-08
-7.07772e-07
6.76967e-08
-7.20213e-07
5.83152e-08
-7.30507e-07
4.84095e-08
-7.38559e-07
3.8022e-08
-7.44281e-07
2.72027e-08
-7.47602e-07
1.6009e-08
-7.48462e-07
4.50597e-09
-7.46816e-07
-7.23376e-09
-7.42637e-07
-1.91304e-08
-7.35915e-07
-3.10972e-08
-7.26658e-07
-4.30414e-08
-7.14895e-07
-5.48648e-08
-7.00675e-07
-6.64646e-08
-6.8407e-07
-7.77347e-08
-6.65169e-07
-8.85672e-08
-6.44087e-07
-9.88533e-08
-6.20959e-07
-1.08485e-07
-5.95939e-07
-1.17356e-07
-5.69205e-07
-1.25366e-07
-5.40949e-07
-1.3242e-07
-5.11386e-07
-1.38427e-07
-4.80742e-07
-1.43311e-07
-4.49259e-07
-1.47003e-07
-4.1719e-07
-1.49447e-07
-3.84796e-07
-1.50602e-07
-3.52344e-07
-1.50441e-07
-3.20103e-07
-1.48954e-07
-2.88343e-07
-1.46148e-07
-2.57325e-07
-1.42048e-07
-2.27307e-07
-1.36697e-07
-1.9853e-07
-1.3016e-07
-1.71223e-07
-1.22517e-07
-1.45591e-07
-1.13871e-07
-1.21819e-07
-1.04345e-07
-1.00061e-07
-9.40783e-08
-8.0442e-08
-8.32352e-08
-6.30503e-08
-7.19987e-08
-4.79363e-08
-6.05748e-08
-3.51082e-08
-4.91928e-08
-2.45297e-08
-3.81082e-08
-1.61172e-08
-2.76049e-08
-9.73753e-09
-1.7999e-08
-5.20609e-09
-9.64362e-09
-2.28563e-09
-2.93469e-09
-6.84723e-10
1.68403e-09
-5.70929e-11
3.71297e-09
2.55166e-09
-1.40163e-09
2.81013e-09
-5.56203e-09
1.18057e-08
-1.24409e-08
2.30398e-08
-2.19855e-08
3.56469e-08
-3.4123e-08
4.89678e-08
-4.87574e-08
6.24782e-08
-6.57701e-08
7.57704e-08
-8.50222e-08
8.85377e-08
-1.06357e-07
1.00556e-07
-1.29605e-07
1.1167e-07
-1.54586e-07
1.21774e-07
-1.81113e-07
1.30809e-07
-2.08995e-07
1.38744e-07
-2.3804e-07
1.45574e-07
-2.68058e-07
1.51309e-07
-2.98857e-07
1.55971e-07
-3.30253e-07
1.59587e-07
-3.6206e-07
1.62188e-07
-3.94101e-07
1.63806e-07
-4.26198e-07
1.64471e-07
-4.58179e-07
1.64208e-07
-4.89874e-07
1.63042e-07
-5.21117e-07
1.60991e-07
-5.51742e-07
1.58073e-07
-5.81588e-07
1.54299e-07
-6.10493e-07
1.49681e-07
-6.38301e-07
1.44228e-07
-6.64854e-07
1.37948e-07
-6.9e-07
1.30851e-07
-7.13587e-07
1.22947e-07
-7.35468e-07
1.14252e-07
-7.55501e-07
1.04784e-07
-7.73549e-07
9.4566e-08
-7.89481e-07
8.36281e-08
-8.03173e-07
7.20072e-08
-8.14511e-07
5.97478e-08
-8.23392e-07
4.69029e-08
-8.29724e-07
3.35343e-08
-8.33427e-07
1.97128e-08
-8.34439e-07
5.51817e-09
-8.32713e-07
-8.9606e-09
-8.28217e-07
-2.36261e-08
-8.20941e-07
-3.83727e-08
-8.10895e-07
-5.30875e-08
-7.98109e-07
-6.76511e-08
-7.82635e-07
-8.19389e-08
-7.64547e-07
-9.58223e-08
-7.43944e-07
-1.0917e-07
-7.20946e-07
-1.21851e-07
-6.95697e-07
-1.33734e-07
-6.68363e-07
-1.4469e-07
-6.39132e-07
-1.54598e-07
-6.08211e-07
-1.6334e-07
-5.75828e-07
-1.70811e-07
-5.42227e-07
-1.76913e-07
-5.07666e-07
-1.81564e-07
-4.72418e-07
-1.84696e-07
-4.36763e-07
-1.86257e-07
-4.00989e-07
-1.86215e-07
-3.65387e-07
-1.84556e-07
-3.30247e-07
-1.81288e-07
-2.95854e-07
-1.7644e-07
-2.62487e-07
-1.70065e-07
-2.30409e-07
-1.62237e-07
-1.99869e-07
-1.53057e-07
-1.71096e-07
-1.42645e-07
-1.44291e-07
-1.3115e-07
-1.19628e-07
-1.18741e-07
-9.72477e-08
-1.05615e-07
-7.72552e-08
-9.19912e-08
-5.97147e-08
-7.81153e-08
-4.46475e-08
-6.426e-08
-3.20296e-08
-5.07261e-08
-2.17891e-08
-3.78453e-08
-1.38051e-08
-2.5983e-08
-7.90616e-09
-1.55425e-08
-3.87077e-09
-6.97007e-09
-1.42764e-09
-7.59097e-10
-2.58064e-10
2.54339e-09
2.29359e-09
-1.70659e-09
4.5167e-09
-6.68222e-09
1.67813e-08
-1.47987e-08
3.11563e-08
-2.59287e-08
4.67769e-08
-3.99366e-08
6.29758e-08
-5.66752e-08
7.92168e-08
-7.5984e-08
9.50792e-08
-9.76898e-08
1.10244e-07
-1.21609e-07
1.24475e-07
-1.47547e-07
1.37608e-07
-1.75306e-07
1.49533e-07
-2.04683e-07
1.60185e-07
-2.35472e-07
1.69533e-07
-2.67467e-07
1.7757e-07
-3.00466e-07
1.84308e-07
-3.34267e-07
1.89771e-07
-3.68672e-07
1.93991e-07
-4.03486e-07
1.97002e-07
-4.38518e-07
1.98839e-07
-4.73581e-07
1.99534e-07
-5.08491e-07
1.99118e-07
-5.43067e-07
1.97617e-07
-5.77129e-07
1.95054e-07
-6.10503e-07
1.91446e-07
-6.43013e-07
1.8681e-07
-6.7449e-07
1.81158e-07
-7.04762e-07
1.745e-07
-7.33663e-07
1.66849e-07
-7.61028e-07
1.58216e-07
-7.86697e-07
1.48616e-07
-8.10511e-07
1.38066e-07
-8.32318e-07
1.26591e-07
-8.51972e-07
1.1422e-07
-8.69333e-07
1.00989e-07
-8.8427e-07
8.69437e-08
-8.9666e-07
7.2138e-08
-9.06393e-07
5.66362e-08
-9.13371e-07
4.05125e-08
-9.1751e-07
2.38519e-08
-9.18742e-07
6.74998e-09
-9.17016e-07
-1.06873e-08
-9.12298e-07
-2.83439e-08
-9.04576e-07
-4.60943e-08
-8.93859e-07
-6.38043e-08
-8.80178e-07
-8.13325e-08
-8.63586e-07
-9.8531e-08
-8.44161e-07
-1.15247e-07
-8.22004e-07
-1.31327e-07
-7.97243e-07
-1.46612e-07
-7.70028e-07
-1.60949e-07
-7.40533e-07
-1.74185e-07
-7.08955e-07
-1.86175e-07
-6.75515e-07
-1.96781e-07
-6.40452e-07
-2.05874e-07
-6.04024e-07
-2.13341e-07
-5.66506e-07
-2.19082e-07
-5.28187e-07
-2.23015e-07
-4.89366e-07
-2.25078e-07
-4.50351e-07
-2.2523e-07
-4.11452e-07
-2.23455e-07
-3.72981e-07
-2.19759e-07
-3.35245e-07
-2.14176e-07
-2.98543e-07
-2.06767e-07
-2.63163e-07
-1.97618e-07
-2.29374e-07
-1.86845e-07
-1.97426e-07
-1.74593e-07
-1.67541e-07
-1.61034e-07
-1.39914e-07
-1.46368e-07
-1.14704e-07
-1.30825e-07
-9.20338e-08
-1.14662e-07
-7.19839e-08
-9.81653e-08
-5.45921e-08
-8.16518e-08
-3.98497e-08
-6.54685e-08
-2.77002e-08
-4.99949e-08
-1.80378e-08
-3.56454e-08
-1.0708e-08
-2.28723e-08
-5.50793e-09
-1.21702e-08
-2.18896e-09
-4.07806e-09
-4.61025e-10
8.15453e-10
1.83256e-09
-2.00344e-09
6.5201e-09
-7.77984e-09
2.25577e-08
-1.71191e-08
4.04955e-08
-2.98215e-08
5.94793e-08
-4.56895e-08
7.88438e-08
-6.45233e-08
9.80506e-08
-8.61188e-08
1.16675e-07
-1.10267e-07
1.34391e-07
-1.36753e-07
1.50961e-07
-1.65361e-07
1.66216e-07
-1.95869e-07
1.80042e-07
-2.28058e-07
1.92374e-07
-2.61707e-07
2.03182e-07
-2.96598e-07
2.12461e-07
-3.32516e-07
2.20225e-07
-3.69247e-07
2.26503e-07
-4.06584e-07
2.31328e-07
-4.44321e-07
2.34739e-07
-4.82258e-07
2.36775e-07
-5.20196e-07
2.37472e-07
-5.57942e-07
2.36864e-07
-5.95305e-07
2.3498e-07
-6.32096e-07
2.31844e-07
-6.68128e-07
2.27479e-07
-7.03218e-07
2.219e-07
-7.37185e-07
2.15124e-07
-7.69848e-07
2.07163e-07
-8.01031e-07
1.98032e-07
-8.30559e-07
1.87744e-07
-8.58261e-07
1.76318e-07
-8.83972e-07
1.63777e-07
-9.07529e-07
1.50149e-07
-9.28778e-07
1.35469e-07
-9.4757e-07
1.19781e-07
-9.63766e-07
1.0314e-07
-9.77237e-07
8.5609e-08
-9.87865e-07
6.72645e-08
-9.95546e-07
4.81938e-08
-1.00019e-06
2.84965e-08
-1.00173e-06
8.28435e-09
-1.00009e-06
-1.23187e-08
-9.9526e-07
-3.31774e-08
-9.87209e-07
-5.41453e-08
-9.75947e-07
-7.50664e-08
-9.61504e-07
-9.57759e-08
-9.43933e-07
-1.16102e-07
-9.23313e-07
-1.35867e-07
-8.99749e-07
-1.54891e-07
-8.7337e-07
-1.72991e-07
-8.44332e-07
-1.89987e-07
-8.12816e-07
-2.05702e-07
-7.79026e-07
-2.19965e-07
-7.43193e-07
-2.32614e-07
-7.05566e-07
-2.435e-07
-6.66418e-07
-2.52489e-07
-6.26037e-07
-2.59462e-07
-5.84728e-07
-2.64324e-07
-5.42808e-07
-2.66998e-07
-5.00601e-07
-2.67437e-07
-4.5844e-07
-2.65616e-07
-4.16656e-07
-2.61543e-07
-3.75579e-07
-2.55253e-07
-3.35531e-07
-2.46815e-07
-2.9682e-07
-2.36328e-07
-2.59741e-07
-2.23925e-07
-2.24564e-07
-2.0977e-07
-1.91536e-07
-1.94063e-07
-1.60871e-07
-1.77033e-07
-1.32751e-07
-1.58945e-07
-1.07318e-07
-1.40095e-07
-8.4673e-08
-1.2081e-07
-6.48723e-08
-1.01453e-07
-4.79253e-08
-8.24154e-08
-3.37935e-08
-6.41267e-08
-2.23894e-08
-4.70495e-08
-1.35774e-08
-3.16843e-08
-7.17542e-09
-1.85722e-08
-2.95823e-09
-8.29525e-09
-6.63349e-10
-1.47943e-09
1.16921e-09
-2.29161e-09
8.81169e-09
-8.85072e-09
2.91169e-08
-1.93906e-08
5.10354e-08
-3.36425e-08
7.37312e-08
-5.13481e-08
9.65494e-08
-7.22552e-08
1.18958e-07
-9.61151e-08
1.40535e-07
-1.22681e-07
1.60958e-07
-1.51709e-07
1.79989e-07
-1.82955e-07
1.97461e-07
-2.16177e-07
2.13264e-07
-2.51137e-07
2.27334e-07
-2.876e-07
2.39645e-07
-3.25333e-07
2.50194e-07
-3.64109e-07
2.59002e-07
-4.03706e-07
2.661e-07
-4.43905e-07
2.71527e-07
-4.84491e-07
2.75326e-07
-5.25255e-07
2.77539e-07
-5.6599e-07
2.78207e-07
-6.06493e-07
2.77367e-07
-6.46564e-07
2.75051e-07
-6.86007e-07
2.71287e-07
-7.24625e-07
2.66097e-07
-7.62227e-07
2.59502e-07
-7.98621e-07
2.51519e-07
-8.3362e-07
2.42162e-07
-8.67038e-07
2.31449e-07
-8.98692e-07
2.19397e-07
-9.28402e-07
2.06028e-07
-9.55993e-07
1.91369e-07
-9.81296e-07
1.75452e-07
-1.00415e-06
1.5832e-07
-1.02439e-06
1.40025e-07
-1.04188e-06
1.2063e-07
-1.05648e-06
1.00209e-07
-1.06807e-06
7.88492e-08
-1.07653e-06
5.66523e-08
-1.08176e-06
3.37329e-08
-1.0837e-06
1.02194e-08
-1.08227e-06
-1.3746e-08
-1.07744e-06
-3.80079e-08
-1.06919e-06
-6.23989e-08
-1.05751e-06
-8.674e-08
-1.04245e-06
-1.10842e-07
-1.02404e-06
-1.34509e-07
-1.00237e-06
-1.57537e-07
-9.77539e-07
-1.79719e-07
-9.49684e-07
-2.00847e-07
-9.1896e-07
-2.20711e-07
-8.85553e-07
-2.39109e-07
-8.49674e-07
-2.55843e-07
-8.1156e-07
-2.70728e-07
-7.71472e-07
-2.83589e-07
-7.29692e-07
-2.94269e-07
-6.86521e-07
-3.02633e-07
-6.4228e-07
-3.08565e-07
-5.97302e-07
-3.11976e-07
-5.51931e-07
-3.12808e-07
-5.06517e-07
-3.1103e-07
-4.61414e-07
-3.06646e-07
-4.16974e-07
-2.99694e-07
-3.73541e-07
-2.90248e-07
-3.31449e-07
-2.7842e-07
-2.91016e-07
-2.64358e-07
-2.52537e-07
-2.48249e-07
-2.16283e-07
-2.30317e-07
-1.82492e-07
-2.10823e-07
-1.5137e-07
-1.90067e-07
-1.23082e-07
-1.68383e-07
-9.77514e-08
-1.46141e-07
-7.54551e-08
-1.23749e-07
-5.62241e-08
-1.01646e-07
-4.004e-08
-8.03107e-08
-2.6836e-08
-6.02535e-08
-1.6497e-08
-4.20233e-08
-8.86257e-09
-2.62066e-08
-3.73062e-09
-1.34272e-08
-8.64018e-10
-4.34603e-09
3.05187e-10
-2.57091e-09
1.13826e-08
-9.89243e-09
3.64384e-08
-2.16061e-08
6.27491e-08
-3.73773e-08
8.95024e-08
-5.68888e-08
1.16061e-07
-7.98367e-08
1.41906e-07
-1.05928e-07
1.66626e-07
-1.34879e-07
1.89908e-07
-1.66412e-07
2.11522e-07
-2.00257e-07
2.31306e-07
-2.36151e-07
2.49158e-07
-2.73836e-07
2.6502e-07
-3.13062e-07
2.7887e-07
-3.53583e-07
2.90715e-07
-3.9516e-07
3.00579e-07
-4.3756e-07
3.085e-07
-4.80556e-07
3.14522e-07
-5.23923e-07
3.18693e-07
-5.67446e-07
3.21061e-07
-6.10908e-07
3.21669e-07
-6.54099e-07
3.20559e-07
-6.96813e-07
3.17765e-07
-7.38844e-07
3.13318e-07
-7.79989e-07
3.07243e-07
-8.20049e-07
2.99562e-07
-8.58825e-07
2.90295e-07
-8.96121e-07
2.79458e-07
-9.31744e-07
2.67072e-07
-9.65502e-07
2.53156e-07
-9.9721e-07
2.37736e-07
-1.02668e-06
2.20843e-07
-1.05375e-06
2.02515e-07
-1.07823e-06
1.82802e-07
-1.09997e-06
1.61762e-07
-1.1188e-06
1.39467e-07
-1.1346e-06
1.16003e-07
-1.14722e-06
9.14682e-08
-1.15654e-06
6.59783e-08
-1.16247e-06
3.96629e-08
-1.16492e-06
1.26676e-08
-1.16382e-06
-1.4847e-08
-1.15912e-06
-4.27052e-08
-1.1508e-06
-7.07178e-08
-1.13886e-06
-9.86825e-08
-1.12332e-06
-1.26386e-07
-1.10422e-06
-1.53606e-07
-1.08165e-06
-1.80111e-07
-1.0557e-06
-2.05668e-07
-1.02651e-06
-2.30038e-07
-9.94231e-07
-2.52987e-07
-9.59059e-07
-2.74281e-07
-9.21206e-07
-2.93696e-07
-8.80915e-07
-3.11019e-07
-8.38454e-07
-3.2605e-07
-7.94116e-07
-3.38608e-07
-7.48215e-07
-3.48534e-07
-7.01083e-07
-3.55696e-07
-6.53071e-07
-3.59988e-07
-6.04542e-07
-3.61338e-07
-5.55864e-07
-3.59707e-07
-5.07415e-07
-3.55095e-07
-4.59568e-07
-3.47541e-07
-4.12692e-07
-3.37123e-07
-3.67148e-07
-3.23964e-07
-3.23278e-07
-3.08228e-07
-2.81406e-07
-2.90121e-07
-2.41828e-07
-2.69895e-07
-2.04809e-07
-2.47842e-07
-1.70582e-07
-2.24294e-07
-1.39337e-07
-1.99628e-07
-1.11221e-07
-1.74257e-07
-8.63377e-08
-1.48632e-07
-6.47401e-08
-1.23244e-07
-4.64329e-08
-9.86179e-08
-3.13713e-08
-7.53151e-08
-1.94622e-08
-5.39324e-08
-1.05669e-08
-3.5102e-08
-4.50536e-09
-1.94887e-08
-1.0631e-09
-7.78829e-09
-7.57917e-10
-2.84129e-09
1.42239e-08
-1.09035e-08
4.45006e-08
-2.37607e-08
7.56063e-08
-4.10156e-08
1.06757e-07
-6.22941e-08
1.37339e-07
-8.72422e-08
1.66854e-07
-1.15523e-07
1.94907e-07
-1.46815e-07
2.212e-07
-1.80808e-07
2.45516e-07
-2.17207e-07
2.67705e-07
-2.55724e-07
2.87675e-07
-2.96083e-07
3.05379e-07
-3.38018e-07
3.20805e-07
-3.81271e-07
3.33967e-07
-4.2559e-07
3.44898e-07
-4.70733e-07
3.53643e-07
-5.16462e-07
3.60252e-07
-5.62549e-07
3.6478e-07
-6.08766e-07
3.67278e-07
-6.54894e-07
3.67797e-07
-7.00714e-07
3.66379e-07
-7.46012e-07
3.63064e-07
-7.90579e-07
3.57884e-07
-8.34203e-07
3.50868e-07
-8.7668e-07
3.42039e-07
-9.17803e-07
3.31418e-07
-9.57371e-07
3.19026e-07
-9.95183e-07
3.04884e-07
-1.03104e-06
2.89015e-07
-1.06475e-06
2.71447e-07
-1.09613e-06
2.52217e-07
-1.12498e-06
2.31368e-07
-1.15113e-06
2.08956e-07
-1.17442e-06
1.85046e-07
-1.19467e-06
1.59719e-07
-1.21174e-06
1.33072e-07
-1.22548e-06
1.05215e-07
-1.23578e-06
7.62767e-08
-1.24252e-06
4.64025e-08
-1.24561e-06
1.57548e-08
-1.24497e-06
-1.5487e-08
-1.24055e-06
-4.71271e-08
-1.23231e-06
-7.8954e-08
-1.22025e-06
-1.10742e-07
-1.20439e-06
-1.42252e-07
-1.18476e-06
-1.73236e-07
-1.16143e-06
-2.03435e-07
-1.13451e-06
-2.32587e-07
-1.10413e-06
-2.60424e-07
-1.07043e-06
-2.8668e-07
-1.03362e-06
-3.11094e-07
-9.93905e-07
-3.33412e-07
-9.51535e-07
-3.53389e-07
-9.06784e-07
-3.70801e-07
-8.59953e-07
-3.85438e-07
-8.11368e-07
-3.97119e-07
-7.61376e-07
-4.05689e-07
-7.10341e-07
-4.11023e-07
-6.58644e-07
-4.13034e-07
-6.06677e-07
-4.11674e-07
-5.54836e-07
-4.06936e-07
-5.03522e-07
-3.98855e-07
-4.53128e-07
-3.87517e-07
-4.04043e-07
-3.7305e-07
-3.56638e-07
-3.55633e-07
-3.11264e-07
-3.35495e-07
-2.68247e-07
-3.12911e-07
-2.27885e-07
-2.88204e-07
-1.90435e-07
-2.61744e-07
-1.56119e-07
-2.33945e-07
-1.25111e-07
-2.05264e-07
-9.7541e-08
-1.76202e-07
-7.34885e-08
-1.47297e-07
-5.29829e-08
-1.19124e-07
-3.60029e-08
-9.22951e-08
-2.24782e-08
-6.74571e-08
-1.22918e-08
-4.52883e-08
-5.28457e-09
-2.64959e-08
-1.26144e-09
-1.18114e-08
-2.01935e-09
-3.10271e-09
1.73266e-08
-1.18828e-08
5.32808e-08
-2.58508e-08
8.95742e-08
-4.45495e-08
1.25456e-07
-6.75505e-08
1.6034e-07
-9.44513e-08
1.93754e-07
-1.24872e-07
2.25327e-07
-1.58453e-07
2.54781e-07
-1.94855e-07
2.81917e-07
-2.33752e-07
3.06603e-07
-2.74838e-07
3.2876e-07
-3.17815e-07
3.48357e-07
-3.62402e-07
3.65392e-07
-4.08326e-07
3.79892e-07
-4.55327e-07
3.91899e-07
-5.03151e-07
4.01467e-07
-5.51554e-07
4.08655e-07
-6.00299e-07
4.13524e-07
-6.49152e-07
4.16132e-07
-6.97887e-07
4.16532e-07
-7.46281e-07
4.14773e-07
-7.94115e-07
4.10897e-07
-8.41172e-07
4.0494e-07
-8.87237e-07
3.96933e-07
-9.32098e-07
3.869e-07
-9.75545e-07
3.74865e-07
-1.01737e-06
3.60851e-07
-1.05737e-06
3.4488e-07
-1.09533e-06
3.26979e-07
-1.13106e-06
3.0718e-07
-1.16437e-06
2.85522e-07
-1.19505e-06
2.62054e-07
-1.22294e-06
2.36837e-07
-1.24784e-06
2.09945e-07
-1.26958e-06
1.81468e-07
-1.28802e-06
1.5151e-07
-1.303e-06
1.20196e-07
-1.31439e-06
8.76657e-08
-1.32207e-06
5.40807e-08
-1.32594e-06
1.96197e-08
-1.3259e-06