/*--------------------------------*- C++ -*----------------------------------*\
| =========                 |                                                 |
| \\      /  F ield         | OpenFOAM: The Open Source CFD Toolbox           |
|  \\    /   O peration     | Version:  2506                                  |
|   \\  /    A nd           | Website:  www.openfoam.com                      |
|    \\/     M anipulation  |                                                 |
\*---------------------------------------------------------------------------*/
FoamFile
{
    version     2.0;
    format      ascii;
    arch        "LSB;label=32;scalar=64";
    class       volVectorField;
    location    "1.975";
    object      U;
}
// * * * * * * * * * * * * * * * * * * * * * * * * * * * * * * * * * * * * * //

dimensions      [0 1 -1 0 0 0 0];

internalField   nonuniform List<vector> 
6400
(
(8.55344e-06 -8.94364e-06 0)
(3.38418e-05 -1.62117e-05 0)
(6.46312e-05 -1.48167e-05 0)
(8.37272e-05 -9.00315e-06 0)
(8.26543e-05 -1.44453e-06 0)
(5.86881e-05 6.51453e-06 0)
(1.14563e-05 1.42101e-05 0)
(-5.81918e-05 2.13334e-05 0)
(-0.000148716 2.77542e-05 0)
(-0.000258225 3.34344e-05 0)
(-0.000384685 3.83848e-05 0)
(-0.000526045 4.26414e-05 0)
(-0.000680305 4.62518e-05 0)
(-0.000845561 4.9268e-05 0)
(-0.00102002 5.17425e-05 0)
(-0.00120203 5.37254e-05 0)
(-0.00139003 5.52628e-05 0)
(-0.00158261 5.63955e-05 0)
(-0.00177842 5.71585e-05 0)
(-0.00197624 5.75802e-05 0)
(-0.00217491 5.76834e-05 0)
(-0.00237332 5.74851e-05 0)
(-0.00257041 5.69974e-05 0)
(-0.00276516 5.62274e-05 0)
(-0.00295657 5.51779e-05 0)
(-0.00314362 5.38485e-05 0)
(-0.00332533 5.22361e-05 0)
(-0.0035007 5.03363e-05 0)
(-0.0036687 4.81435e-05 0)
(-0.00382833 4.56519e-05 0)
(-0.00397854 4.28563e-05 0)
(-0.00411831 3.97527e-05 0)
(-0.00424661 3.63396e-05 0)
(-0.00436241 3.26181e-05 0)
(-0.0044647 2.85926e-05 0)
(-0.00455252 2.42713e-05 0)
(-0.00462494 1.96671e-05 0)
(-0.00468107 1.4798e-05 0)
(-0.00472013 9.6867e-06 0)
(-0.00474142 4.36115e-06 0)
(-0.00474432 -1.14536e-06 0)
(-0.00472837 -6.794e-06 0)
(-0.00469323 -1.25406e-05 0)
(-0.00463871 -1.8336e-05 0)
(-0.0045648 -2.4127e-05 0)
(-0.00447167 -2.98561e-05 0)
(-0.00435967 -3.54627e-05 0)
(-0.00422936 -4.08834e-05 0)
(-0.0040815 -4.60534e-05 0)
(-0.00391705 -5.09074e-05 0)
(-0.0037372 -5.53809e-05 0)
(-0.00354332 -5.94111e-05 0)
(-0.00333697 -6.29382e-05 0)
(-0.00311991 -6.59065e-05 0)
(-0.00289405 -6.82654e-05 0)
(-0.00266146 -6.99712e-05 0)
(-0.0024243 -7.09876e-05 0)
(-0.00218488 -7.12869e-05 0)
(-0.00194554 -7.08505e-05 0)
(-0.00170868 -6.96693e-05 0)
(-0.0014767 -6.77446e-05 0)
(-0.00125197 -6.50879e-05 0)
(-0.00103683 -6.17211e-05 0)
(-0.000833486 -5.76762e-05 0)
(-0.000644051 -5.29953e-05 0)
(-0.000470467 -4.77302e-05 0)
(-0.000314484 -4.1942e-05 0)
(-0.000177629 -3.57012e-05 0)
(-6.11674e-05 -2.90884e-05 0)
(3.39341e-05 -2.21962e-05 0)
(0.000107052 -1.51307e-05 0)
(0.000157966 -8.02074e-06 0)
(0.000186939 -1.02832e-06 0)
(0.00019483 5.6281e-06 0)
(0.000183293 1.16329e-05 0)
(0.000155056 1.65036e-05 0)
(0.000114307 1.94851e-05 0)
(6.74479e-05 1.93481e-05 0)
(2.53518e-05 1.42485e-05 0)
(3.61993e-06 3.63244e-06 0)
(1.60905e-05 -3.45123e-05 0)
(5.48138e-05 -5.50281e-05 0)
(8.94433e-05 -4.20459e-05 0)
(9.16959e-05 -1.03367e-05 0)
(4.55238e-05 3.04535e-05 0)
(-5.60438e-05 7.45376e-05 0)
(-0.000215208 0.000118512 0)
(-0.000431119 0.000160423 0)
(-0.000700958 0.000199201 0)
(-0.00102071 0.000234309 0)
(-0.00138573 0.000265538 0)
(-0.00179106 0.00029288 0)
(-0.0022317 0.000316444 0)
(-0.00270276 0.000336412 0)
(-0.00319949 0.000352997 0)
(-0.00371742 0.000366427 0)
(-0.00425229 0.000376923 0)
(-0.00480012 0.000384693 0)
(-0.00535715 0.000389918 0)
(-0.00591984 0.000392757 0)
(-0.00648482 0.00039334 0)
(-0.00704887 0.000391767 0)
(-0.0076089 0.000388113 0)
(-0.0081619 0.00038243 0)
(-0.00870491 0.000374746 0)
(-0.00923502 0.000365072 0)
(-0.00974932 0.000353406 0)
(-0.0102449 0.000339738 0)
(-0.0107189 0.000324055 0)
(-0.0111684 0.00030634 0)
(-0.0115905 0.000286586 0)
(-0.0119823 0.000264792 0)
(-0.0123409 0.000240972 0)
(-0.0126635 0.000215157 0)
(-0.0129474 0.000187401 0)
(-0.01319 0.00015778 0)
(-0.0133887 0.000126398 0)
(-0.0135412 9.33888e-05 0)
(-0.0136455 5.89166e-05 0)
(-0.0136997 2.31765e-05 0)
(-0.0137023 -1.36043e-05 0)
(-0.0136521 -5.11664e-05 0)
(-0.0135484 -8.92205e-05 0)
(-0.0133907 -0.000127449 0)
(-0.0131792 -0.000165509 0)
(-0.0129144 -0.000203036 0)
(-0.0125975 -0.000239646 0)
(-0.0122301 -0.000274944 0)
(-0.0118144 -0.000308528 0)
(-0.011353 -0.000339994 0)
(-0.0108494 -0.000368945 0)
(-0.0103073 -0.000394996 0)
(-0.00973096 -0.000417782 0)
(-0.00912526 -0.000436966 0)
(-0.00849539 -0.000452244 0)
(-0.00784696 -0.000463353 0)
(-0.00718589 -0.000470077 0)
(-0.00651836 -0.000472253 0)
(-0.00585072 -0.000469774 0)
(-0.00518944 -0.000462593 0)
(-0.00454097 -0.000450728 0)
(-0.00391172 -0.000434262 0)
(-0.0033079 -0.000413343 0)
(-0.00273549 -0.000388186 0)
(-0.00220011 -0.000359074 0)
(-0.00170691 -0.000326353 0)
(-0.00126054 -0.000290438 0)
(-0.000864997 -0.000251811 0)
(-0.000523526 -0.000211029 0)
(-0.00023853 -0.000168733 0)
(-1.14264e-05 -0.000125669 0)
(0.000157516 -8.27192e-05 0)
(0.000269378 -4.09582e-05 0)
(0.000326869 -1.743e-06 0)
(0.000334708 3.31457e-05 0)
(0.000300126 6.12959e-05 0)
(0.000233343 7.93953e-05 0)
(0.000148284 8.28664e-05 0)
(6.57252e-05 6.58574e-05 0)
(1.41312e-05 2.52652e-05 0)
(1.50298e-05 -6.53479e-05 0)
(4.25474e-05 -8.97845e-05 0)
(4.66293e-05 -4.6199e-05 0)
(-3.20701e-06 3.75278e-05 0)
(-0.000125241 0.000142847 0)
(-0.000328444 0.000257339 0)
(-0.000616133 0.000372917 0)
(-0.000987629 0.000484484 0)
(-0.00143946 0.00058895 0)
(-0.00196631 0.000684553 0)
(-0.00256178 0.000770411 0)
(-0.00321885 0.000846217 0)
(-0.00393026 0.000912037 0)
(-0.00468874 0.000968171 0)
(-0.00548719 0.00101505 0)
(-0.00631875 0.00105318 0)
(-0.00717684 0.00108306 0)
(-0.00805524 0.0011052 0)
(-0.008948 0.00112004 0)
(-0.00984945 0.00112798 0)
(-0.0107542 0.00112935 0)
(-0.0116571 0.00112443 0)
(-0.012553 0.00111341 0)
(-0.0134372 0.00109645 0)
(-0.0143047 0.00107362 0)
(-0.0151509 0.00104499 0)
(-0.0159711 0.00101057 0)
(-0.0167606 0.00097036 0)
(-0.0175148 0.000924344 0)
(-0.018229 0.000872517 0)
(-0.0188986 0.000814886 0)
(-0.019519 0.000751487 0)
(-0.0200858 0.000682392 0)
(-0.0205945 0.000607725 0)
(-0.0210409 0.000527667 0)
(-0.021421 0.000442464 0)
(-0.0217309 0.000352436 0)
(-0.0219672 0.000257983 0)
(-0.0221266 0.000159587 0)
(-0.0222065 5.78126e-05 0)
(-0.0222046 -4.66879e-05 0)
(-0.0221193 -0.00015318 0)
(-0.0219494 -0.00026085 0)
(-0.0216946 -0.00036881 0)
(-0.0213551 -0.000476106 0)
(-0.0209321 -0.000581727 0)
(-0.0204273 -0.000684617 0)
(-0.0198434 -0.000783692 0)
(-0.019184 -0.00087785 0)
(-0.0184533 -0.00096599 0)
(-0.0176565 -0.00104703 0)
(-0.0167996 -0.00111993 0)
(-0.0158893 -0.00118369 0)
(-0.0149331 -0.00123742 0)
(-0.013939 -0.00128028 0)
(-0.0129156 -0.00131157 0)
(-0.0118722 -0.00133071 0)
(-0.0108182 -0.00133728 0)
(-0.0097634 -0.00133098 0)
(-0.00871774 -0.00131171 0)
(-0.00769113 -0.00127953 0)
(-0.00669336 -0.00123467 0)
(-0.00573398 -0.00117756 0)
(-0.00482213 -0.00110882 0)
(-0.00396638 -0.00102924 0)
(-0.00317461 -0.000939799 0)
(-0.00245387 -0.000841683 0)
(-0.00181018 -0.000736267 0)
(-0.00124842 -0.000625142 0)
(-0.000772115 -0.000510143 0)
(-0.000383265 -0.000393395 0)
(-8.20948e-05 -0.000277385 0)
(0.000133213 -0.000165083 0)
(0.000266859 -6.01069e-05 0)
(0.000325859 3.30298e-05 0)
(0.000320549 0.000108603 0)
(0.000264924 0.00015934 0)
(0.00017709 0.000176143 0)
(8.30298e-05 0.000148406 0)
(1.91987e-05 6.71409e-05 0)
(9.45095e-06 -8.49611e-05 0)
(1.10729e-05 -9.22592e-05 0)
(-3.76942e-05 3.7052e-06 0)
(-0.000163598 0.000162271 0)
(-0.000383808 0.000356042 0)
(-0.000707508 0.000565698 0)
(-0.00113808 0.000777935 0)
(-0.00167457 0.000983912 0)
(-0.00231287 0.00117796 0)
(-0.0030467 0.00135662 0)
(-0.00386832 0.00151798 0)
(-0.00476917 0.00166119 0)
(-0.00574023 0.0017861 0)
(-0.00677238 0.00189305 0)
(-0.00785655 0.00198266 0)
(-0.00898391 0.00205571 0)
(-0.0101459 0.00211301 0)
(-0.0113344 0.00215542 0)
(-0.0125414 0.00218369 0)
(-0.0137595 0.00219852 0)
(-0.0149813 0.0022005 0)
(-0.0161998 0.00219012 0)
(-0.0174083 0.00216775 0)
(-0.0186001 0.00213367 0)
(-0.0197687 0.00208806 0)
(-0.0209077 0.00203105 0)
(-0.0220106 0.00196268 0)
(-0.0230712 0.001883 0)
(-0.0240833 0.00179201 0)
(-0.0250406 0.00168975 0)
(-0.0259369 0.00157627 0)
(-0.0267662 0.0014517 0)
(-0.0275225 0.00131621 0)
(-0.0282001 0.00117008 0)
(-0.0287933 0.00101372 0)
(-0.0292969 0.000847625 0)
(-0.029706 0.000672456 0)
(-0.0300161 0.000489009 0)
(-0.0302231 0.000298233 0)
(-0.0303235 0.000101236 0)
(-0.0303147 -0.000100719 0)
(-0.0301946 -0.000306217 0)
(-0.0299619 -0.000513698 0)
(-0.0296162 -0.000721469 0)
(-0.0291581 -0.000927716 0)
(-0.0285891 -0.00113052 0)
(-0.0279119 -0.0013279 0)
(-0.0271299 -0.00151781 0)
(-0.026248 -0.00169817 0)
(-0.0252718 -0.00186693 0)
(-0.0242083 -0.00202205 0)
(-0.0230652 -0.0021616 0)
(-0.0218514 -0.00228372 0)
(-0.0205767 -0.00238672 0)
(-0.0192516 -0.00246907 0)
(-0.0178874 -0.00252947 0)
(-0.016496 -0.00256684 0)
(-0.0150898 -0.00258039 0)
(-0.0136815 -0.00256959 0)
(-0.0122839 -0.00253426 0)
(-0.0109101 -0.00247453 0)
(-0.00957258 -0.00239086 0)
(-0.00828386 -0.00228407 0)
(-0.00705576 -0.00215534 0)
(-0.00589937 -0.0020062 0)
(-0.00482491 -0.00183853 0)
(-0.00384146 -0.0016546 0)
(-0.00295681 -0.00145706 0)
(-0.00217719 -0.00124897 0)
(-0.00150712 -0.00103383 0)
(-0.00094912 -0.000815701 0)
(-0.00050346 -0.000599268 0)
(-0.000167851 -0.000390029 0)
(6.28944e-05 -0.000194519 0)
(0.000197269 -2.06148e-05 0)
(0.000247512 0.000122088 0)
(0.000229838 0.000221905 0)
(0.000164773 0.000264828 0)
(8.11722e-05 0.000234734 0)
(1.95472e-05 0.000114145 0)
(1.93548e-06 -8.44693e-05 0)
(-3.06085e-05 -4.53298e-05 0)
(-0.000146714 0.000127781 0)
(-0.000365221 0.000383686 0)
(-0.000699776 0.000687145 0)
(-0.00115838 0.00101248 0)
(-0.00174347 0.00134135 0)
(-0.00245327 0.00166111 0)
(-0.00328279 0.00196333 0)
(-0.00422476 0.00224262 0)
(-0.00527035 0.00249583 0)
(-0.00640967 0.00272135 0)
(-0.00763231 0.0029187 0)
(-0.0089276 0.00308814 0)
(-0.0102849 0.0032304 0)
(-0.0116937 0.0033465 0)
(-0.0131437 0.00343758 0)
(-0.0146251 0.0035048 0)
(-0.0161283 0.00354928 0)
(-0.0176441 0.00357202 0)
(-0.0191634 0.00357391 0)
(-0.0206777 0.00355565 0)
(-0.0221786 0.00351784 0)
(-0.0236577 0.00346091 0)
(-0.0251069 0.00338515 0)
(-0.0265184 0.00329079 0)
(-0.0278841 0.00317794 0)
(-0.0291963 0.00304671 0)
(-0.0304472 0.00289717 0)
(-0.0316292 0.00272941 0)
(-0.0327347 0.0025436 0)
(-0.0337562 0.00233997 0)
(-0.0346866 0.00211889 0)
(-0.0355187 0.00188088 0)
(-0.036246 0.0016266 0)
(-0.036862 0.00135695 0)
(-0.0373609 0.00107301 0)
(-0.0377373 0.000776102 0)
(-0.0379864 0.000467781 0)
(-0.0381043 0.000149846 0)
(-0.0380877 -0.000175666 0)
(-0.0379343 -0.000506483 0)
(-0.0376428 -0.000840114 0)
(-0.0372128 -0.00117386 0)
(-0.0366451 -0.00150485 0)
(-0.0359419 -0.00183005 0)
(-0.0351063 -0.00214632 0)
(-0.0341428 -0.00245045 0)
(-0.0330572 -0.00273917 0)
(-0.0318566 -0.00300925 0)
(-0.0305492 -0.00325753 0)
(-0.0291445 -0.00348094 0)
(-0.0276533 -0.00367662 0)
(-0.0260872 -0.0038419 0)
(-0.024459 -0.00397441 0)
(-0.0227823 -0.00407212 0)
(-0.0210714 -0.00413335 0)
(-0.019341 -0.00415686 0)
(-0.0176066 -0.00414187 0)
(-0.0158834 -0.00408808 0)
(-0.014187 -0.00399571 0)
(-0.0125327 -0.00386552 0)
(-0.0109352 -0.00369882 0)
(-0.00940874 -0.00349748 0)
(-0.00796669 -0.00326393 0)
(-0.00662125 -0.0030012 0)
(-0.00538332 -0.00271289 0)
(-0.00426223 -0.00240323 0)
(-0.00326548 -0.00207707 0)
(-0.0023985 -0.00173998 0)
(-0.00166441 -0.00139835 0)
(-0.00106366 -0.00105947 0)
(-0.000593834 -0.000731779 0)
(-0.000249236 -0.000425116 0)
(-2.05891e-05 -0.000151033 0)
(0.000105347 7.6791e-05 0)
(0.000145945 0.000242125 0)
(0.000123036 0.000325906 0)
(6.64971e-05 0.000306085 0)
(1.71305e-05 0.000156261 0)
(-6.27235e-06 -6.03623e-05 0)
(-7.72973e-05 5.9926e-05 0)
(-0.000269531 0.000338038 0)
(-0.000591474 0.000715039 0)
(-0.00105159 0.00114925 0)
(-0.00165558 0.00160951 0)
(-0.00240412 0.00207296 0)
(-0.00329397 0.00252338 0)
(-0.00431894 0.00294963 0)
(-0.00547064 0.00334436 0)
(-0.0067391 0.00370306 0)
(-0.00811328 0.00402332 0)
(-0.00958151 0.00430419 0)
(-0.0111318 0.00454577 0)
(-0.0127522 0.00474886 0)
(-0.0144307 0.00491466 0)
(-0.0161557 0.00504459 0)
(-0.0179158 0.00514014 0)
(-0.0196999 0.00520274 0)
(-0.0214973 0.00523373 0)
(-0.0232976 0.00523428 0)
(-0.0250906 0.00520537 0)
(-0.0268664 0.00514779 0)
(-0.0286154 0.00506214 0)
(-0.0303279 0.00494888 0)
(-0.0319945 0.00480833 0)
(-0.0336059 0.00464072 0)
(-0.035153 0.00444622 0)
(-0.0366267 0.00422501 0)
(-0.0380179 0.0039773 0)
(-0.0393179 0.0037034 0)
(-0.040518 0.00340371 0)
(-0.0416098 0.00307886 0)
(-0.0425852 0.00272965 0)
(-0.0434365 0.00235713 0)
(-0.0441563 0.00196264 0)
(-0.0447381 0.00154782 0)
(-0.0451756 0.00111463 0)
(-0.0454635 0.000665352 0)
(-0.0455974 0.00020261 0)
(-0.0455736 -0.000270634 0)
(-0.0453896 -0.000751098 0)
(-0.045044 -0.00123519 0)
(-0.0445366 -0.00171904 0)
(-0.0438686 -0.00219853 0)
(-0.0430422 -0.00266934 0)
(-0.0420614 -0.00312699 0)
(-0.0409314 -0.0035669 0)
(-0.039659 -0.00398444 0)
(-0.0382524 -0.00437504 0)
(-0.036721 -0.00473419 0)
(-0.0350759 -0.00505757 0)
(-0.0333293 -0.00534111 0)
(-0.0314947 -0.00558107 0)
(-0.0295868 -0.00577408 0)
(-0.027621 -0.00591726 0)
(-0.0256137 -0.00600826 0)
(-0.023582 -0.00604533 0)
(-0.0215434 -0.00602736 0)
(-0.0195155 -0.00595395 0)
(-0.017516 -0.00582542 0)
(-0.0155624 -0.00564286 0)
(-0.0136718 -0.00540815 0)
(-0.0118603 -0.00512397 0)
(-0.0101435 -0.00479381 0)
(-0.00853519 -0.00442201 0)
(-0.00704805 -0.00401372 0)
(-0.00569283 -0.00357498 0)
(-0.00447825 -0.00311274 0)
(-0.00341069 -0.00263493 0)
(-0.00249393 -0.00215054 0)
(-0.00172889 -0.00166981 0)
(-0.00111327 -0.0012044 0)
(-0.000641339 -0.000767679 0)
(-0.000303599 -0.000375047 0)
(-8.64938e-05 -4.4377e-05 0)
(2.77378e-05 0.000203535 0)
(6.1365e-05 0.00034459 0)
(4.37805e-05 0.000350913 0)
(1.32251e-05 0.000188135 0)
(-1.459e-05 -1.12389e-05 0)
(-0.00012605 0.000228335 0)
(-0.000399254 0.000641788 0)
(-0.0008312 0.00116496 0)
(-0.00142415 0.00175125 0)
(-0.0021807 0.00236507 0)
(-0.00309907 0.00297974 0)
(-0.00417401 0.00357592 0)
(-0.00539774 0.00413998 0)
(-0.00676056 0.00466274 0)
(-0.00825125 0.00513839 0)
(-0.00985761 0.00556365 0)
(-0.0115668 0.00593711 0)
(-0.0133657 0.00625867 0)
(-0.0152411 0.00652912 0)
(-0.0171798 0.00674982 0)
(-0.0191689 0.00692245 0)
(-0.0211958 0.00704878 0)
(-0.023248 0.00713058 0)
(-0.0253135 0.00716949 0)
(-0.0273806 0.00716697 0)
(-0.0294377 0.00712426 0)
(-0.0314738 0.00704236 0)
(-0.0334776 0.00692208 0)
(-0.0354385 0.00676403 0)
(-0.0373456 0.00656865 0)
(-0.0391884 0.0063363 0)
(-0.0409564 0.00606727 0)
(-0.0426394 0.00576187 0)
(-0.0442271 0.00542047 0)
(-0.0457097 0.00504353 0)
(-0.0470773 0.00463174 0)
(-0.0483206 0.004186 0)
(-0.0494305 0.00370747 0)
(-0.0503982 0.00319769 0)
(-0.0512158 0.00265853 0)
(-0.0518758 0.00209226 0)
(-0.0523714 0.00150158 0)
(-0.0526967 0.000889628 0)
(-0.0528468 0.00025998 0)
(-0.0528178 -0.000383355 0)
(-0.0526071 -0.00103594 0)
(-0.0522131 -0.00169295 0)
(-0.0516357 -0.00234918 0)
(-0.0508762 -0.00299913 0)
(-0.0499375 -0.00363702 0)
(-0.0488239 -0.00425687 0)
(-0.0475413 -0.00485259 0)
(-0.0460973 -0.00541802 0)
(-0.0445009 -0.00594707 0)
(-0.042763 -0.00643377 0)
(-0.0408956 -0.00687238 0)
(-0.0389125 -0.0072575 0)
(-0.0368286 -0.00758416 0)
(-0.0346601 -0.00784789 0)
(-0.0324245 -0.00804488 0)
(-0.0301397 -0.008172 0)
(-0.0278249 -0.00822693 0)
(-0.0254993 -0.0082082 0)
(-0.0231827 -0.00811525 0)
(-0.0208949 -0.00794854 0)
(-0.0186553 -0.0077095 0)
(-0.0164829 -0.00740065 0)
(-0.014396 -0.00702556 0)
(-0.0124116 -0.0065889 0)
(-0.0105455 -0.00609644 0)
(-0.00881188 -0.00555508 0)
(-0.00722293 -0.00497289 0)
(-0.00578856 -0.00435908 0)
(-0.00451622 -0.00372418 0)
(-0.00341052 -0.00308005 0)
(-0.002473 -0.00244005 0)
(-0.00170184 -0.00181926 0)
(-0.00109164 -0.00123473 0)
(-0.00063314 -0.000705803 0)
(-0.000313008 -0.000254556 0)
(-0.000113701 9.37312e-05 0)
(-1.32031e-05 0.000310126 0)
(1.62761e-05 0.000361405 0)
(8.58197e-06 0.000206661 0)
(-2.27603e-05 6.32769e-05 0)
(-0.000175232 0.000462181 0)
(-0.000531629 0.00104307 0)
(-0.00107709 0.0017386 0)
(-0.00180714 0.00249875 0)
(-0.00272072 0.00328455 0)
(-0.00381303 0.00406632 0)
(-0.00507639 0.00482213 0)
(-0.00650111 0.00553627 0)
(-0.00807588 0.00619796 0)
(-0.00978813 0.00680021 0)
(-0.0116244 0.00733898 0)
(-0.0135708 0.00781239 0)
(-0.015613 0.00822015 0)
(-0.0177367 0.00856303 0)
(-0.0199277 0.00884255 0)
(-0.0221719 0.00906059 0)
(-0.0244554 0.00921922 0)
(-0.0267649 0.00932051 0)
(-0.029087 0.00936639 0)
(-0.0314089 0.0093586 0)
(-0.0337179 0.00929863 0)
(-0.0360016 0.00918773 0)
(-0.0382478 0.00902688 0)
(-0.0404445 0.00881686 0)
(-0.0425797 0.00855827 0)
(-0.0446419 0.0082516 0)
(-0.0466193 0.00789729 0)
(-0.0485007 0.0074958 0)
(-0.0502747 0.0070477 0)
(-0.0519304 0.00655368 0)
(-0.0534571 0.00601472 0)
(-0.0548443 0.00543206 0)
(-0.0560822 0.00480733 0)
(-0.0571613 0.00414256 0)
(-0.0580727 0.00344026 0)
(-0.0588083 0.00270344 0)
(-0.0593608 0.00193561 0)
(-0.0597239 0.00114087 0)
(-0.0598921 0.000323854 0)
(-0.0598614 -0.000510274 0)
(-0.0596288 -0.0013558 0)
(-0.0591927 -0.00220654 0)
(-0.0585532 -0.00305584 0)
(-0.0577116 -0.00389666 0)
(-0.0566712 -0.00472164 0)
(-0.0554365 -0.00552317 0)
(-0.0540142 -0.00629349 0)
(-0.0524124 -0.00702479 0)
(-0.0506411 -0.00770933 0)
(-0.0487119 -0.00833953 0)
(-0.046638 -0.0089081 0)
(-0.0444344 -0.00940818 0)
(-0.0421173 -0.00983345 0)
(-0.0397043 -0.0101783 0)
(-0.0372143 -0.0104378 0)
(-0.0346671 -0.0106079 0)
(-0.0320833 -0.0106858 0)
(-0.0294841 -0.0106696 0)
(-0.026891 -0.0105584 0)
(-0.0243257 -0.0103529 0)
(-0.0218094 -0.0100549 0)
(-0.019363 -0.00966759 0)
(-0.0170065 -0.00919542 0)
(-0.0147588 -0.00864435 0)
(-0.0126373 -0.00802173 0)
(-0.0106578 -0.00733632 0)
(-0.00883377 -0.00659833 0)
(-0.00717656 -0.00581946 0)
(-0.00569473 -0.00501298 0)
(-0.0043939 -0.00419375 0)
(-0.00327647 -0.00337846 0)
(-0.00234139 -0.00258571 0)
(-0.00158389 -0.00183632 0)
(-0.000995353 -0.0011536 0)
(-0.000563107 -0.000563775 0)
(-0.000270304 -9.64431e-05 0)
(-9.57081e-05 0.000214952 0)
(-1.38719e-05 0.000332474 0)
(3.64057e-06 0.000210107 0)
(-3.06801e-05 0.000162994 0)
(-0.000223956 0.000762108 0)
(-0.000664075 0.00154362 0)
(-0.00132442 0.0024386 0)
(-0.00219356 0.00339484 0)
(-0.00326644 0.0043711 0)
(-0.0045349 0.00533546 0)
(-0.00598847 0.00626406 0)
(-0.00761524 0.00713955 0)
(-0.00940207 0.00794985 0)
(-0.0113349 0.00868704 0)
(-0.013399 0.00934644 0)
(-0.0155792 0.0099258 0)
(-0.0178601 0.0104247 0)
(-0.0202264 0.0108439 0)
(-0.0226628 0.011185 0)
(-0.0251543 0.0114502 0)
(-0.0276861 0.0116419 0)
(-0.0302436 0.0117622 0)
(-0.0328126 0.0118136 0)
(-0.0353791 0.011798 0)
(-0.0379296 0.011717 0)
(-0.0404504 0.0115723 0)
(-0.0429284 0.011365 0)
(-0.0453504 0.011096 0)
(-0.0477036 0.0107661 0)
(-0.0499753 0.010376 0)
(-0.0521528 0.00992614 0)
(-0.0542238 0.00941732 0)
(-0.0561761 0.00885027 0)
(-0.0579977 0.00822598 0)
(-0.0596771 0.00754574 0)
(-0.061203 0.00681121 0)
(-0.0625647 0.00602451 0)
(-0.063752 0.00518826 0)
(-0.0647554 0.00430565 0)
(-0.0655661 0.0033805 0)
(-0.0661763 0.00241725 0)
(-0.0665792 0.00142102 0)
(-0.0667689 0.000397575 0)
(-0.0667411 -0.000646636 0)
(-0.0664926 -0.00170454 0)
(-0.0660218 -0.00276848 0)
(-0.0653285 -0.00383024 0)
(-0.0644144 -0.00488114 0)
(-0.0632827 -0.00591211 0)
(-0.0619385 -0.0069138 0)
(-0.0603887 -0.00787667 0)
(-0.058642 -0.00879112 0)
(-0.056709 -0.00964762 0)
(-0.0546022 -0.0104369 0)
(-0.0523356 -0.0111499 0)
(-0.0499252 -0.0117783 0)
(-0.0473883 -0.0123143 0)
(-0.044744 -0.012751 0)
(-0.0420122 -0.0130822 0)
(-0.0392143 -0.0133031 0)
(-0.0363725 -0.01341 0)
(-0.0335096 -0.0134005 0)
(-0.0306488 -0.0132738 0)
(-0.0278134 -0.0130303 0)
(-0.0250264 -0.0126723 0)
(-0.0223106 -0.0122037 0)
(-0.0196876 -0.0116299 0)
(-0.0171782 -0.0109582 0)
(-0.0148014 -0.0101975 0)
(-0.0125744 -0.00935868 0)
(-0.0105126 -0.00845413 0)
(-0.00862839 -0.00749814 0)
(-0.00693179 -0.00650685 0)
(-0.00542959 -0.00549829 0)
(-0.00412529 -0.00449253 0)
(-0.00301882 -0.00351179 0)
(-0.00210639 -0.0025807 0)
(-0.00138031 -0.00172652 0)
(-0.000828932 -0.000979547 0)
(-0.000436459 -0.000373502 0)
(-0.000182809 5.40341e-05 0)
(-4.53085e-05 0.000261058 0)
(-1.35406e-06 0.000197629 0)
(-3.83172e-05 0.000287429 0)
(-0.000271749 0.00112775 0)
(-0.000795037 0.00214361 0)
(-0.00157013 0.0032657 0)
(-0.00257868 0.00444072 0)
(-0.00381144 0.00562605 0)
(-0.00525666 0.00678837 0)
(-0.00690084 0.00790249 0)
(-0.0087296 0.00894992 0)
(-0.0107278 0.00991768 0)
(-0.0128798 0.0107972 0)
(-0.0151693 0.0115833 0)
(-0.01758 0.0122736 0)
(-0.0200955 0.0128674 0)
(-0.0226993 0.0133658 0)
(-0.0253753 0.0137705 0)
(-0.0281074 0.0140839 0)
(-0.0308801 0.0143085 0)
(-0.0336777 0.014447 0)
(-0.0364852 0.014502 0)
(-0.0392878 0.0144756 0)
(-0.0420708 0.0143699 0)
(-0.0448199 0.0141866 0)
(-0.0475208 0.0139269 0)
(-0.0501597 0.0135922 0)
(-0.0527225 0.0131832 0)
(-0.0551958 0.0127008 0)
(-0.0575661 0.0121459 0)
(-0.05982 0.0115191 0)
(-0.0619445 0.0108217 0)
(-0.0639269 0.0100548 0)
(-0.0657548 0.00922009 0)
(-0.0674161 0.00831976 0)
(-0.0688994 0.00735641 0)
(-0.0701938 0.00633333 0)
(-0.0712892 0.00525444 0)
(-0.0721762 0.00412443 0)
(-0.0728465 0.00294872 0)
(-0.0732927 0.00173353 0)
(-0.0735087 0.000485856 0)
(-0.0734897 -0.00078652 0)
(-0.0732324 -0.00207507 0)
(-0.0727349 -0.00337058 0)
(-0.0719969 -0.00466317 0)
(-0.0710202 -0.00594243 0)
(-0.0698079 -0.0071975 0)
(-0.0683654 -0.00841715 0)
(-0.0666999 -0.00958995 0)
(-0.0648204 -0.0107044 0)
(-0.0627381 -0.0117491 0)
(-0.060466 -0.0127129 0)
(-0.0580189 -0.0135851 0)
(-0.0554136 -0.0143555 0)
(-0.0526685 -0.0150147 0)
(-0.0498035 -0.0155545 0)
(-0.0468401 -0.0159674 0)
(-0.0438007 -0.0162477 0)
(-0.0407091 -0.0163906 0)
(-0.0375895 -0.0163934 0)
(-0.0344667 -0.0162548 0)
(-0.0313658 -0.0159754 0)
(-0.0283114 -0.0155578 0)
(-0.025328 -0.0150064 0)
(-0.0224392 -0.0143279 0)
(-0.0196673 -0.0135307 0)
(-0.0170331 -0.0126255 0)
(-0.0145556 -0.0116251 0)
(-0.0122516 -0.0105444 0)
(-0.0101353 -0.00940024 0)
(-0.00821798 -0.00821176 0)
(-0.00650795 -0.00700023 0)
(-0.00500998 -0.0057892 0)
(-0.00372524 -0.00460456 0)
(-0.00265117 -0.00347477 0)
(-0.00178128 -0.00243102 0)
(-0.0011052 -0.00150756 0)
(-0.000608469 -0.000742057 0)
(-0.000272384 -0.000175887 0)
(-7.72277e-05 0.000145428 0)
(-6.27521e-06 0.00016892 0)
(-4.56701e-05 0.000435962 0)
(-0.000318368 0.00155813 0)
(-0.000923588 0.0028422 0)
(-0.00181229 0.00421935 0)
(-0.00295932 0.00563609 0)
(-0.00435121 0.00704927 0)
(-0.0059725 0.00842487 0)
(-0.00780649 0.009737 0)
(-0.00983618 0.0109666 0)
(-0.0120443 0.0121001 0)
(-0.0144134 0.0131286 0)
(-0.0169257 0.0140467 0)
(-0.0195636 0.014852 0)
(-0.0223095 0.015544 0)
(-0.0251462 0.0161237 0)
(-0.0280564 0.0165932 0)
(-0.0310232 0.016955 0)
(-0.0340302 0.0172121 0)
(-0.0370612 0.0173674 0)
(-0.0401001 0.0174237 0)
(-0.0431313 0.0173836 0)
(-0.0461395 0.0172491 0)
(-0.0491094 0.0170224 0)
(-0.052026 0.0167048 0)
(-0.0548745 0.0162978 0)
(-0.0576404 0.0158024 0)
(-0.0603092 0.0152195 0)
(-0.0628665 0.0145503 0)
(-0.0652984 0.0137958 0)
(-0.067591 0.0129572 0)
(-0.0697308 0.0120363 0)
(-0.0717047 0.011035 0)
(-0.0734999 0.0099559 0)
(-0.0751044 0.00880231 0)
(-0.0765066 0.00757814 0)
(-0.0776958 0.00628814 0)
(-0.0786619 0.00493787 0)
(-0.0793963 0.00353381 0)
(-0.0798909 0.00208333 0)
(-0.0801394 0.000594714 0)
(-0.0801364 -0.000922862 0)
(-0.0798783 -0.00245935 0)
(-0.079363 -0.00400389 0)
(-0.0785901 -0.00554489 0)
(-0.0775611 -0.00707012 0)
(-0.0762792 -0.0085668 0)
(-0.0747497 -0.0100218 0)
(-0.07298 -0.0114216 0)
(-0.0709794 -0.0127528 0)
(-0.0687594 -0.014002 0)
(-0.0663333 -0.0151561 0)
(-0.0637168 -0.0162023 0)
(-0.0609271 -0.0171288 0)
(-0.0579835 -0.0179245 0)
(-0.0549069 -0.0185794 0)
(-0.0517198 -0.019085 0)
(-0.048446 -0.0194341 0)
(-0.0451104 -0.0196213 0)
(-0.0417388 -0.019643 0)
(-0.0383575 -0.0194976 0)
(-0.0349931 -0.0191857 0)
(-0.0316722 -0.0187101 0)
(-0.0284208 -0.0180759 0)
(-0.0252645 -0.0172907 0)
(-0.0222272 -0.0163643 0)
(-0.0193318 -0.0153092 0)
(-0.016599 -0.0141402 0)
(-0.0140473 -0.0128745 0)
(-0.0116926 -0.0115317 0)
(-0.00954805 -0.0101341 0)
(-0.00762334 -0.00870627 0)
(-0.00592483 -0.00727519 0)
(-0.0044552 -0.00587054 0)
(-0.00321328 -0.0045246 0)
(-0.00219407 -0.00327246 0)
(-0.00138867 -0.00215227 0)
(-0.000784107 -0.00120546 0)
(-0.0003632 -0.000476933 0)
(-0.000109194 -1.53246e-05 0)
(-1.10668e-05 0.000123962 0)
(-5.27495e-05 0.00060791 0)
(-0.000363694 0.00205191 0)
(-0.00104917 0.00363784 0)
(-0.00204962 0.00529805 0)
(-0.0033333 0.00697958 0)
(-0.00488256 0.00863945 0)
(-0.00667817 0.0102437 0)
(-0.00870015 0.0117662 0)
(-0.0109288 0.0131878 0)
(-0.0133446 0.0144949 0)
(-0.0159281 0.0156786 0)
(-0.0186601 0.0167336 0)
(-0.0215217 0.0176575 0)
(-0.0244941 0.0184501 0)
(-0.027559 0.0191127 0)
(-0.0306984 0.0196476 0)
(-0.0338946 0.0200578 0)
(-0.0371302 0.0203465 0)
(-0.0403884 0.0205169 0)
(-0.0436524 0.0205722 0)
(-0.046906 0.020515 0)
(-0.0501329 0.020348 0)
(-0.0533174 0.0200731 0)
(-0.0564437 0.0196922 0)
(-0.0594964 0.0192067 0)
(-0.06246 0.0186179 0)
(-0.0653195 0.017927 0)
(-0.0680598 0.0171351 0)
(-0.0706663 0.0162436 0)
(-0.0731244 0.0152541 0)
(-0.0754199 0.0141685 0)
(-0.077539 0.0129893 0)
(-0.0794684 0.0117196 0)
(-0.0811952 0.0103632 0)
(-0.0827075 0.00892474 0)
(-0.0839937 0.00740985 0)
(-0.0850434 0.00582502 0)
(-0.0858472 0.00417778 0)
(-0.0863967 0.00247671 0)
(-0.086685 0.000731407 0)
(-0.0867063 -0.00104749 0)
(-0.0864566 -0.00284837 0)
(-0.0859334 -0.00465869 0)
(-0.085136 -0.00646505 0)
(-0.0840656 -0.00825333 0)
(-0.0827253 -0.0100088 0)
(-0.0811204 -0.0117163 0)
(-0.0792581 -0.0133602 0)
(-0.0771478 -0.014925 0)
(-0.0748012 -0.0163952 0)
(-0.072232 -0.0177555 0)
(-0.0694561 -0.0189914 0)
(-0.0664914 -0.0200888 0)
(-0.0633579 -0.0210349 0)
(-0.0600774 -0.0218182 0)
(-0.0566731 -0.0224284 0)
(-0.0531702 -0.0228571 0)
(-0.0495946 -0.0230979 0)
(-0.0459737 -0.0231464 0)
(-0.0423353 -0.0230005 0)
(-0.0387076 -0.0226608 0)
(-0.0351189 -0.0221301 0)
(-0.0315972 -0.0214142 0)
(-0.0281697 -0.0205216 0)
(-0.0248626 -0.0194634 0)
(-0.0217004 -0.0182538 0)
(-0.018706 -0.0169097 0)
(-0.0158997 -0.0154507 0)
(-0.0132995 -0.0138995 0)
(-0.0109202 -0.012281 0)
(-0.00877345 -0.0106234 0)
(-0.00686726 -0.0089573 0)
(-0.00520602 -0.00731605 0)
(-0.00379025 -0.00573583 0)
(-0.00261654 -0.00425563 0)
(-0.00167766 -0.00291743 0)
(-0.000962254 -0.00176633 0)
(-0.000454668 -0.000850571 0)
(-0.000141023 -0.000221669 0)
(-1.57158e-05 6.28709e-05 0)
(-5.9569e-05 0.000802565 0)
(-0.000407669 0.00260753 0)
(-0.00117146 0.00452854 0)
(-0.00228131 0.00649962 0)
(-0.00369913 0.00846896 0)
(-0.00540319 0.0103944 0)
(-0.00737051 0.0122425 0)
(-0.00957782 0.0139876 0)
(-0.0120026 0.015611 0)
(-0.0146231 0.0170994 0)
(-0.0174179 0.0184441 0)
(-0.0203661 0.0196404 0)
(-0.0234475 0.020686 0)
(-0.0266423 0.0215814 0)
(-0.0299309 0.022328 0)
(-0.0332946 0.0229287 0)
(-0.036715 0.0233869 0)
(-0.0401739 0.023706 0)
(-0.0436538 0.0238897 0)
(-0.0471375 0.0239414 0)
(-0.0506078 0.0238641 0)
(-0.0540481 0.0236606 0)
(-0.057442 0.0233332 0)
(-0.0607731 0.0228838 0)
(-0.0640253 0.0223141 0)
(-0.0671826 0.0216255 0)
(-0.0702294 0.0208194 0)
(-0.07315 0.0198972 0)
(-0.075929 0.0188604 0)
(-0.0785514 0.0177109 0)
(-0.0810023 0.016451 0)
(-0.0832673 0.0150835 0)
(-0.0853324 0.0136122 0)
(-0.0871843 0.0120415 0)
(-0.0888102 0.0103766 0)
(-0.0901982 0.00862415 0)
(-0.0913372 0.00679147 0)
(-0.0922172 0.00488723 0)
(-0.0928293 0.00292121 0)
(-0.093166 0.000904373 0)
(-0.093221 -0.00115117 0)
(-0.0929898 -0.00323219 0)
(-0.0924694 -0.00532441 0)
(-0.0916587 -0.00741261 0)
(-0.0905585 -0.00948071 0)
(-0.0891717 -0.0115119 0)
(-0.0875031 -0.013489 0)
(-0.0855599 -0.0153942 0)
(-0.0833514 -0.0172097 0)
(-0.0808893 -0.0189178 0)
(-0.0781873 -0.0205012 0)
(-0.0752617 -0.0219429 0)
(-0.0721309 -0.023227 0)
(-0.0688152 -0.0243386 0)
(-0.0653372 -0.0252643 0)
(-0.0617212 -0.0259923 0)
(-0.057993 -0.0265127 0)
(-0.0541802 -0.0268178 0)
(-0.0503112 -0.0269024 0)
(-0.0464155 -0.0267638 0)
(-0.0425229 -0.0264021 0)
(-0.0386636 -0.0258205 0)
(-0.0348675 -0.0250252 0)
(-0.0311637 -0.0240254 0)
(-0.0275804 -0.0228337 0)
(-0.0241446 -0.0214659 0)
(-0.0208809 -0.0199409 0)
(-0.017812 -0.0182809 0)
(-0.014958 -0.0165112 0)
(-0.0123357 -0.0146602 0)
(-0.0099587 -0.0127592 0)
(-0.00783716 -0.0108426 0)
(-0.00597732 -0.00894749 0)
(-0.00438151 -0.00711401 0)
(-0.00304814 -0.00538507 0)
(-0.00197173 -0.00380647 0)
(-0.00114262 -0.00242692 0)
(-0.000546669 -0.00129798 0)
(-0.000172708 -0.000473906 0)
(-2.02361e-05 -1.42056e-05 0)
(-6.61414e-05 0.00101921 0)
(-0.000450268 0.00322331 0)
(-0.00129024 0.00551199 0)
(-0.00250678 0.00782141 0)
(-0.00405574 0.0101014 0)
(-0.00591139 0.0123111 0)
(-0.00804711 0.0144183 0)
(-0.0104363 0.0163983 0)
(-0.0130538 0.018233 0)
(-0.0158753 0.0199101 0)
(-0.0188776 0.0214216 0)
(-0.0220381 0.0227632 0)
(-0.0253351 0.0239336 0)
(-0.0287477 0.0249335 0)
(-0.0322555 0.0257651 0)
(-0.0358388 0.0264317 0)
(-0.0394784 0.0269371 0)
(-0.0431556 0.0272854 0)
(-0.0468522 0.0274805 0)
(-0.0505504 0.0275261 0)
(-0.0542326 0.0274257 0)
(-0.0578816 0.0271822 0)
(-0.0614804 0.026798 0)
(-0.0650122 0.0262755 0)
(-0.0684604 0.0256163 0)
(-0.0718085 0.0248221 0)
(-0.0750401 0.0238944 0)
(-0.0781393 0.0228348 0)
(-0.08109 0.0216451 0)
(-0.0838766 0.0203274 0)
(-0.0864838 0.0188844 0)
(-0.0888965 0.0173195 0)
(-0.0911003 0.0156367 0)
(-0.0930811 0.013841 0)
(-0.0948256 0.0119387 0)
(-0.0963214 0.00993693 0)
(-0.0975566 0.00784411 0)
(-0.0985208 0.00566999 0)
(-0.0992043 0.00342557 0)
(-0.0995991 0.00112317 0)
(-0.0996983 -0.0012236 0)
(-0.0994966 -0.00359988 0)
(-0.0989907 -0.00598965 0)
(-0.0981788 -0.0083758 0)
(-0.0970612 -0.0107402 0)
(-0.0956402 -0.0130641 0)
(-0.0939203 -0.015328 0)