/*--------------------------------*- C++ -*----------------------------------*\
| =========                 |                                                 |
| \\      /  F ield         | OpenFOAM: The Open Source CFD Toolbox           |
|  \\    /   O peration     | Version:  2506                                  |
|   \\  /    A nd           | Website:  www.openfoam.com                      |
|    \\/     M anipulation  |                                                 |
\*---------------------------------------------------------------------------*/
FoamFile
{
    version     2.0;
    format      ascii;
    arch        "LSB;label=32;scalar=64";
    class       volVectorField;
    location    "9.875";
    object      diffU;
}
// * * * * * * * * * * * * * * * * * * * * * * * * * * * * * * * * * * * * * //

dimensions      [0 1 -1 0 0 0 0];

internalField   nonuniform List<vector> 
400
(
(0 0 0)
(2.35367e-14 -2.2898e-13 0)
(1.84297e-14 -1.79026e-13 0)
(1.85407e-14 -1.9057e-13 0)
(1.83187e-14 -1.88055e-13 0)
(1.84297e-14 -1.88652e-13 0)
(1.80966e-14 -1.88579e-13 0)
(1.80966e-14 -1.88663e-13 0)
(1.77636e-14 -1.88705e-13 0)
(1.80966e-14 -1.88691e-13 0)
(1.80966e-14 -1.88695e-13 0)
(1.79856e-14 -1.88682e-13 0)
(1.78746e-14 -1.88661e-13 0)
(1.76525e-14 -1.88626e-13 0)
(1.73195e-14 -1.88688e-13 0)
(1.76525e-14 -1.88775e-13 0)
(1.75415e-14 -1.88683e-13 0)
(1.76525e-14 -1.886e-13 0)
(1.75415e-14 -1.88661e-13 0)
(1.75415e-14 -1.88733e-13 0)
(4.71845e-14 -1.88768e-13 0)
(8.43769e-15 -1.88839e-13 0)
(1.75415e-14 -1.88768e-13 0)
(1.70974e-14 -1.88774e-13 0)
(1.75415e-14 -1.88685e-13 0)
(1.75415e-14 -1.88576e-13 0)
(1.70974e-14 -1.88552e-13 0)
(1.73195e-14 -1.88628e-13 0)
(1.70974e-14 -1.88697e-13 0)
(1.73195e-14 -1.88746e-13 0)
(1.75415e-14 -1.88712e-13 0)
(1.73195e-14 -1.88593e-13 0)
(1.73195e-14 -1.88534e-13 0)
(1.70974e-14 -1.88503e-13 0)
(1.70974e-14 -1.88619e-13 0)
(1.75415e-14 -1.88733e-13 0)
(1.70974e-14 -1.88668e-13 0)
(1.70974e-14 -1.88689e-13 0)
(1.73195e-14 -1.88743e-13 0)
(1.73195e-14 -1.88774e-13 0)
(1.4877e-14 -3.56744e-13 0)
(1.9984e-14 -1.51977e-13 0)
(1.84297e-14 -1.97318e-13 0)
(1.73195e-14 -1.86643e-13 0)
(1.73195e-14 -1.88949e-13 0)
(1.73195e-14 -1.8834e-13 0)
(1.75415e-14 -1.88442e-13 0)
(1.70974e-14 -1.88648e-13 0)
(1.73195e-14 -1.88818e-13 0)
(1.73195e-14 -1.88847e-13 0)
(1.73195e-14 -1.88727e-13 0)
(1.70974e-14 -1.88564e-13 0)
(1.70974e-14 -1.88522e-13 0)
(1.68754e-14 -1.886e-13 0)
(1.75415e-14 -1.88745e-13 0)
(1.75415e-14 -1.88715e-13 0)
(1.75415e-14 -1.88746e-13 0)
(1.76525e-14 -1.88763e-13 0)
(1.76525e-14 -1.88787e-13 0)
(1.75415e-14 -1.88813e-13 0)
(-1.35447e-14 -4.10233e-14 0)
(2.43139e-14 -2.19961e-13 0)
(1.53211e-14 -1.81051e-13 0)
(1.70974e-14 -1.90061e-13 0)
(1.68754e-14 -1.88137e-13 0)
(1.70974e-14 -1.88589e-13 0)
(1.76525e-14 -1.88509e-13 0)
(1.77636e-14 -1.8854e-13 0)
(1.76525e-14 -1.88635e-13 0)
(1.73195e-14 -1.88674e-13 0)
(1.73195e-14 -1.88698e-13 0)
(1.73195e-14 -1.88696e-13 0)
(1.73195e-14 -1.887e-13 0)
(1.76525e-14 -1.88674e-13 0)
(1.75415e-14 -1.8876e-13 0)
(1.75415e-14 -1.88764e-13 0)
(1.73195e-14 -1.88807e-13 0)
(1.73195e-14 -1.88742e-13 0)
(1.76525e-14 -1.88794e-13 0)
(1.75415e-14 -1.88821e-13 0)
(5.26246e-14 -2.01363e-13 0)
(8.65974e-15 -1.86408e-13 0)
(1.86517e-14 -1.89152e-13 0)
(1.75415e-14 -1.88605e-13 0)
(1.77636e-14 -1.88772e-13 0)
(1.77636e-14 -1.88806e-13 0)
(1.79856e-14 -1.88797e-13 0)
(1.80966e-14 -1.88609e-13 0)
(1.79856e-14 -1.88545e-13 0)
(1.82077e-14 -1.88572e-13 0)
(1.80966e-14 -1.88631e-13 0)
(1.79856e-14 -1.88641e-13 0)
(1.76525e-14 -1.88666e-13 0)
(1.77636e-14 -1.88637e-13 0)
(1.73195e-14 -1.88667e-13 0)
(1.77636e-14 -1.88752e-13 0)
(1.77636e-14 -1.88764e-13 0)
(1.76525e-14 -1.88825e-13 0)
(1.77636e-14 -1.88844e-13 0)
(1.76525e-14 -1.88738e-13 0)
(-5.10703e-15 -3.23058e-13 0)
(2.4758e-14 -1.59035e-13 0)
(1.77636e-14 -1.95283e-13 0)
(1.84297e-14 -1.87017e-13 0)
(1.79856e-14 -1.88944e-13 0)
(1.82077e-14 -1.88705e-13 0)
(1.79856e-14 -1.8884e-13 0)
(1.80966e-14 -1.88763e-13 0)
(1.79856e-14 -1.8866e-13 0)
(1.80966e-14 -1.8856e-13 0)
(1.78746e-14 -1.88537e-13 0)
(1.77636e-14 -1.8851e-13 0)
(1.78746e-14 -1.88509e-13 0)
(1.77636e-14 -1.88608e-13 0)
(1.77636e-14 -1.88761e-13 0)
(1.78746e-14 -1.88806e-13 0)
(1.77636e-14 -1.8874e-13 0)
(1.77636e-14 -1.88743e-13 0)
(1.73195e-14 -1.88669e-13 0)
(1.76525e-14 -1.88655e-13 0)
(2.32037e-14 -1.13425e-15 0)
(1.64313e-14 -2.28781e-13 0)
(1.84297e-14 -1.78965e-13 0)
(1.73195e-14 -1.90697e-13 0)
(1.78746e-14 -1.88094e-13 0)
(1.73195e-14 -1.8867e-13 0)
(1.73195e-14 -1.88594e-13 0)
(1.68754e-14 -1.88635e-13 0)
(1.70974e-14 -1.8857e-13 0)
(1.68754e-14 -1.88573e-13 0)
(1.70974e-14 -1.88588e-13 0)
(1.73195e-14 -1.88586e-13 0)
(1.75415e-14 -1.88623e-13 0)
(1.77636e-14 -1.8865e-13 0)
(1.78746e-14 -1.88725e-13 0)
(1.77636e-14 -1.88729e-13 0)
(1.76525e-14 -1.88679e-13 0)
(1.76525e-14 -1.88613e-13 0)
(1.75415e-14 -1.88547e-13 0)
(1.76525e-14 -1.88622e-13 0)
(2.89768e-14 -2.68035e-13 0)
(1.22125e-14 -1.70706e-13 0)
(1.59872e-14 -1.92627e-13 0)
(1.66533e-14 -1.87527e-13 0)
(1.62093e-14 -1.88639e-13 0)
(1.66533e-14 -1.88276e-13 0)
(1.66533e-14 -1.88452e-13 0)
(1.66533e-14 -1.88658e-13 0)
(1.70974e-14 -1.8878e-13 0)
(1.68754e-14 -1.88884e-13 0)
(1.70974e-14 -1.8886e-13 0)
(1.73195e-14 -1.88806e-13 0)
(1.73195e-14 -1.88856e-13 0)
(1.70974e-14 -1.88874e-13 0)
(1.70974e-14 -1.8875e-13 0)
(1.73195e-14 -1.88697e-13 0)
(1.70974e-14 -1.88648e-13 0)
(1.70974e-14 -1.88667e-13 0)
(1.73195e-14 -1.88693e-13 0)
(1.75415e-14 -1.88654e-13 0)
(-3.55271e-15 -2.66722e-13 0)
(2.34257e-14 -1.71478e-13 0)
(1.70974e-14 -1.92496e-13 0)
(1.73195e-14 -1.87555e-13 0)
(1.68754e-14 -1.88756e-13 0)
(1.73195e-14 -1.88624e-13 0)
(1.76525e-14 -1.88774e-13 0)
(1.79856e-14 -1.88782e-13 0)
(1.80966e-14 -1.88793e-13 0)
(1.77636e-14 -1.88945e-13 0)
(1.76525e-14 -1.88954e-13 0)
(1.76525e-14 -1.88801e-13 0)
(1.80966e-14 -1.88733e-13 0)
(1.77636e-14 -1.8877e-13 0)
(1.77636e-14 -1.88701e-13 0)
(1.77636e-14 -1.88723e-13 0)
(1.76525e-14 -1.88699e-13 0)
(1.77636e-14 -1.88695e-13 0)
(1.76525e-14 -1.88673e-13 0)
(1.75415e-14 -1.88661e-13 0)
(2.77556e-14 -4.22216e-15 0)
(1.46549e-14 -2.28856e-13 0)
(1.78746e-14 -1.78995e-13 0)
(1.73195e-14 -1.90633e-13 0)
(1.76525e-14 -1.88265e-13 0)
(1.76525e-14 -1.89065e-13 0)
(1.75415e-14 -1.88957e-13 0)
(1.73195e-14 -1.88848e-13 0)
(1.73195e-14 -1.88711e-13 0)
(1.77636e-14 -1.88764e-13 0)
(1.70974e-14 -1.88782e-13 0)
(1.70974e-14 -1.88813e-13 0)
(1.68754e-14 -1.88835e-13 0)
(1.70974e-14 -1.88829e-13 0)
(1.73195e-14 -1.88785e-13 0)
(1.75415e-14 -1.887e-13 0)
(1.75415e-14 -1.88674e-13 0)
(1.73195e-14 -1.88631e-13 0)
(1.75415e-14 -1.88581e-13 0)
(1.75415e-14 -1.88673e-13 0)
(1.77636e-14 -3.84205e-13 0)
(1.73195e-14 -1.45034e-13 0)
(1.80966e-14 -1.98691e-13 0)
(1.88738e-14 -1.86297e-13 0)
(1.84297e-14 -1.89125e-13 0)
(1.86517e-14 -1.88572e-13 0)
(1.80966e-14 -1.88734e-13 0)
(1.80966e-14 -1.88808e-13 0)
(1.80966e-14 -1.88821e-13 0)
(1.80966e-14 -1.88732e-13 0)
(1.80966e-14 -1.88751e-13 0)
(1.80966e-14 -1.88884e-13 0)
(1.80966e-14 -1.88812e-13 0)
(1.76525e-14 -1.88716e-13 0)
(1.73195e-14 -1.88737e-13 0)
(1.70974e-14 -1.8876e-13 0)
(1.70974e-14 -1.88776e-13 0)
(1.70974e-14 -1.88779e-13 0)
(1.76525e-14 -1.88746e-13 0)
(1.75415e-14 -1.8869e-13 0)
(7.54952e-15 -7.48872e-14 0)
(2.14273e-14 -2.14141e-13 0)
(1.83187e-14 -1.82837e-13 0)
(1.76525e-14 -1.90003e-13 0)
(1.80966e-14 -1.88303e-13 0)
(1.79856e-14 -1.88659e-13 0)
(1.78746e-14 -1.88616e-13 0)
(1.80966e-14 -1.88786e-13 0)
(1.78746e-14 -1.88761e-13 0)
(1.79856e-14 -1.8865e-13 0)
(1.78746e-14 -1.88611e-13 0)
(1.76525e-14 -1.88672e-13 0)
(1.75415e-14 -1.88574e-13 0)
(1.75415e-14 -1.88472e-13 0)
(1.76525e-14 -1.88571e-13 0)
(1.77636e-14 -1.88781e-13 0)
(1.78746e-14 -1.88803e-13 0)
(1.77636e-14 -1.88726e-13 0)
(1.76525e-14 -1.88736e-13 0)
(1.75415e-14 -1.88664e-13 0)
(2.498e-14 -1.68935e-13 0)
(1.35447e-14 -1.93239e-13 0)
(1.64313e-14 -1.87778e-13 0)
(1.73195e-14 -1.89092e-13 0)
(1.73195e-14 -1.8877e-13 0)
(1.73195e-14 -1.88708e-13 0)
(1.75415e-14 -1.88645e-13 0)
(1.73195e-14 -1.88644e-13 0)
(1.68754e-14 -1.88722e-13 0)
(1.73195e-14 -1.88712e-13 0)
(1.75415e-14 -1.88627e-13 0)
(1.75415e-14 -1.88557e-13 0)
(1.70974e-14 -1.88616e-13 0)
(1.70974e-14 -1.88681e-13 0)
(1.73195e-14 -1.88746e-13 0)
(1.75415e-14 -1.8874e-13 0)
(1.68754e-14 -1.88728e-13 0)
(1.70974e-14 -1.88772e-13 0)
(1.73195e-14 -1.88773e-13 0)
(1.73195e-14 -1.88737e-13 0)
(1.19904e-14 -3.2845e-13 0)
(2.05391e-14 -1.58128e-13 0)
(1.84297e-14 -1.95951e-13 0)
(1.75415e-14 -1.87237e-13 0)
(1.76525e-14 -1.89227e-13 0)
(1.76525e-14 -1.88683e-13 0)
(1.77636e-14 -1.88655e-13 0)
(1.76525e-14 -1.88572e-13 0)
(1.79856e-14 -1.88736e-13 0)
(1.77636e-14 -1.88773e-13 0)
(1.77636e-14 -1.88612e-13 0)
(1.76525e-14 -1.88389e-13 0)
(1.76525e-14 -1.88473e-13 0)
(1.76525e-14 -1.88692e-13 0)
(1.77636e-14 -1.8882e-13 0)
(1.77636e-14 -1.88763e-13 0)
(1.77636e-14 -1.88787e-13 0)
(1.78746e-14 -1.8887e-13 0)
(1.77636e-14 -1.88798e-13 0)
(1.76525e-14 -1.88781e-13 0)
(8.43769e-15 3.69957e-15 0)
(1.9762e-14 -2.31299e-13 0)
(1.70974e-14 -1.78748e-13 0)
(1.78746e-14 -1.90884e-13 0)
(1.73195e-14 -1.88218e-13 0)
(1.70974e-14 -1.88927e-13 0)
(1.73195e-14 -1.88781e-13 0)
(1.70974e-14 -1.88684e-13 0)
(1.73195e-14 -1.88585e-13 0)
(1.70974e-14 -1.88528e-13 0)
(1.73195e-14 -1.88461e-13 0)
(1.73195e-14 -1.88445e-13 0)
(1.76525e-14 -1.88565e-13 0)
(1.75415e-14 -1.88747e-13 0)
(1.76525e-14 -1.88787e-13 0)
(1.75415e-14 -1.88765e-13 0)
(1.75415e-14 -1.888e-13 0)
(1.73195e-14 -1.88792e-13 0)
(1.76525e-14 -1.88736e-13 0)
(1.77636e-14 -1.88685e-13 0)
(4.86278e-14 -3.02564e-13 0)
(9.54792e-15 -1.63491e-13 0)
(1.84297e-14 -1.94416e-13 0)
(1.70974e-14 -1.87253e-13 0)
(1.76525e-14 -1.88762e-13 0)
(1.73195e-14 -1.88436e-13 0)
(1.75415e-14 -1.88639e-13 0)
(1.70974e-14 -1.88639e-13 0)
(1.70974e-14 -1.88635e-13 0)
(1.73195e-14 -1.88649e-13 0)
(1.70974e-14 -1.88795e-13 0)
(1.73195e-14 -1.88889e-13 0)
(1.77636e-14 -1.88777e-13 0)
(1.77636e-14 -1.88698e-13 0)
(1.75415e-14 -1.88647e-13 0)
(1.76525e-14 -1.88704e-13 0)
(1.75415e-14 -1.88808e-13 0)
(1.75415e-14 -1.88847e-13 0)
(1.75415e-14 -1.8881e-13 0)
(1.73195e-14 -1.88726e-13 0)
(-1.39888e-14 -2.28023e-13 0)
(2.52021e-14 -1.79345e-13 0)
(1.62093e-14 -1.90836e-13 0)
(1.73195e-14 -1.88173e-13 0)
(1.70974e-14 -1.8885e-13 0)
(1.73195e-14 -1.88652e-13 0)
(1.75415e-14 -1.88682e-13 0)
(1.78746e-14 -1.88647e-13 0)
(1.76525e-14 -1.88595e-13 0)
(1.77636e-14 -1.88628e-13 0)
(1.76525e-14 -1.88769e-13 0)
(1.77636e-14 -1.88863e-13 0)
(1.76525e-14 -1.8875e-13 0)
(1.77636e-14 -1.88648e-13 0)
(1.78746e-14 -1.88674e-13 0)
(1.77636e-14 -1.88747e-13 0)
(1.77636e-14 -1.88701e-13 0)
(1.76525e-14 -1.8862e-13 0)
(1.75415e-14 -1.88732e-13 0)
(1.76525e-14 -1.88808e-13 0)
(1.33227e-15 -3.45336e-14 0)
(2.02061e-14 -2.22862e-13 0)
(1.57652e-14 -1.80916e-13 0)
(1.73195e-14 -1.90582e-13 0)
(1.70974e-14 -1.88334e-13 0)
(1.70974e-14 -1.88876e-13 0)
(1.68754e-14 -1.88786e-13 0)
(1.70974e-14 -1.88788e-13 0)
(1.70974e-14 -1.88729e-13 0)
(1.70974e-14 -1.88699e-13 0)
(1.73195e-14 -1.88718e-13 0)
(1.70974e-14 -1.88797e-13 0)
(1.70974e-14 -1.88873e-13 0)
(1.75415e-14 -1.88824e-13 0)
(1.75415e-14 -1.88731e-13 0)
(1.75415e-14 -1.88679e-13 0)
(1.73195e-14 -1.88542e-13 0)
(1.73195e-14 -1.88569e-13 0)
(1.75415e-14 -1.88708e-13 0)
(1.75415e-14 -1.88758e-13 0)
(6.61693e-14 -2.52841e-13 0)
(6.21725e-15 -1.75748e-13 0)
(1.9762e-14 -1.91974e-13 0)
(1.68754e-14 -1.88137e-13 0)
(1.75415e-14 -1.88866e-13 0)
(1.76525e-14 -1.88688e-13 0)
(1.76525e-14 -1.88723e-13 0)
(1.77636e-14 -1.88822e-13 0)
(1.76525e-14 -1.88891e-13 0)
(1.78746e-14 -1.88821e-13 0)
(1.73195e-14 -1.8877e-13 0)
(1.75415e-14 -1.8879e-13 0)
(1.75415e-14 -1.88839e-13 0)
(1.70974e-14 -1.88826e-13 0)
(1.70974e-14 -1.88786e-13 0)
(1.73195e-14 -1.88694e-13 0)
(1.73195e-14 -1.88644e-13 0)
(1.75415e-14 -1.88763e-13 0)
(1.76525e-14 -1.8877e-13 0)
(1.75415e-14 -1.88754e-13 0)
(-8.88178e-16 -2.86755e-13 0)
(2.33147e-14 -1.67228e-13 0)
(1.79856e-14 -1.93899e-13 0)
(1.84297e-14 -1.87618e-13 0)
(1.82077e-14 -1.89139e-13 0)
(1.80966e-14 -1.88773e-13 0)
(1.77636e-14 -1.88739e-13 0)
(1.82077e-14 -1.88716e-13 0)
(1.78746e-14 -1.88701e-13 0)
(1.78746e-14 -1.8865e-13 0)
(1.79856e-14 -1.88649e-13 0)
(1.78746e-14 -1.88649e-13 0)
(1.79856e-14 -1.88658e-13 0)
(1.76525e-14 -1.88729e-13 0)
(1.77636e-14 -1.8881e-13 0)
(1.76525e-14 -1.88773e-13 0)
(1.75415e-14 -1.88741e-13 0)
(1.75415e-14 -1.88736e-13 0)
(1.75415e-14 -1.88737e-13 0)
(1.76525e-14 -1.88736e-13 0)
)
;

boundaryField
{
    movingWall
    {
        type            calculated;
        value           uniform (1.75415e-14 -1.88705e-13 0);
    }
    fixedWalls
    {
        type            calculated;
        value           uniform (1.75415e-14 -1.88705e-13 0);
    }
    frontAndBack
    {
        type            empty;
    }
}


// ************************************************************************* //
