/*--------------------------------*- C++ -*----------------------------------*\
| =========                 |                                                 |
| \\      /  F ield         | OpenFOAM: The Open Source CFD Toolbox           |
|  \\    /   O peration     | Version:  2506                                  |
|   \\  /    A nd           | Website:  www.openfoam.com                      |
|    \\/     M anipulation  |                                                 |
\*---------------------------------------------------------------------------*/
FoamFile
{
    version     2.0;
    format      ascii;
    arch        "LSB;label=32;scalar=64";
    class       volScalarField;
    location    "9.875";
    object      divU;
}
// * * * * * * * * * * * * * * * * * * * * * * * * * * * * * * * * * * * * * //

dimensions      [0 0 -1 0 0 0 0];

internalField   nonuniform List<scalar> 
400
(
1.76996e-11
-2.19781e-12
4.7363e-13
-1.93401e-13
6.6977e-14
-3.60438e-14
7.98587e-16
-1.52643e-14
-2.62917e-14
5.14399e-14
2.35733e-16
-1.36079e-14
-5.67626e-15
-2.6097e-14
1.02721e-14
1.72977e-14
-2.12513e-14
3.916e-14
-2.65862e-14
0
-3.36103e-11
4.74356e-12
-9.48921e-13
3.89049e-13
-2.24431e-14
-3.19924e-14
-1.25921e-14
4.05255e-14
-3.7604e-14
6.29801e-14
-2.99638e-15
-2.89791e-14
8.20866e-15
-2.35679e-14
3.16262e-14
-3.89294e-15
-2.75384e-14
2.28273e-14
-1.20954e-14
2.71051e-14
1.47723e-11
-2.78676e-12
5.00369e-13
-2.27539e-13
5.94208e-14
4.79834e-14
-6.25119e-14
-4.85785e-15
2.28248e-14
1.59897e-14
-1.5271e-15
-3.93155e-14
-8.37795e-15
-1.36286e-14
7.17352e-14
-6.95834e-15
1.27647e-14
-9.55793e-15
-4.42683e-14
0
1.30646e-11
-5.37876e-13
9.71637e-14
-1.72361e-14
2.29165e-14
-2.57099e-14
3.74965e-14
2.60881e-14
-3.12439e-14
-3.78654e-14
8.10027e-15
-1.98824e-14
3.14424e-14
3.68736e-14
-2.89021e-14
-1.05722e-14
-4.32675e-14
3.85272e-14
4.29298e-15
0
-2.55872e-11
2.68163e-12
-5.39988e-13
2.32926e-13
-5.77296e-14
-1.01943e-14
4.39954e-15
3.77003e-15
-6.66364e-15
2.77253e-14
-2.90039e-15
-2.8411e-14
-3.62324e-15
-1.06723e-14
-1.86902e-15
3.94416e-14
-9.47242e-15
3.84168e-14
1.67754e-14
-2.71051e-14
1.84585e-11
-1.93509e-12
3.70317e-13
-1.93068e-13
3.72149e-14
3.44848e-15
-2.3795e-15
2.82702e-14
-3.62834e-14
5.51543e-16
-2.57131e-14
4.24073e-15
6.15396e-16
-1.19624e-14
-7.6184e-15
1.46287e-14
-9.55612e-16
-2.17657e-14
1.934e-14
0
5.96311e-12
-1.63856e-12
3.10662e-13
-1.08529e-13
4.06227e-14
-7.81586e-15
9.28263e-15
1.16353e-14
-7.5417e-14
2.24159e-14
-3.81506e-15
2.8868e-14
-7.00918e-15
-1.14937e-14
-6.4737e-15
-2.87263e-14
8.26202e-15
-1.41897e-14
1.69197e-14
-2.71051e-14
-2.59395e-11
4.38986e-12
-9.06911e-13
3.68297e-13
-5.27091e-14
2.38876e-14
-8.74234e-15
5.11211e-14
-1.63827e-14
1.22841e-14
-4.03866e-14
7.35694e-15
-4.51079e-14
-2.34742e-14
-4.05217e-15
-1.08805e-15
6.23284e-15
3.18007e-14
3.14756e-14
0
2.48824e-11
-3.75613e-12
7.27325e-13
-3.21756e-13
3.88585e-14
-8.16375e-16
-5.07254e-15
4.9858e-15
-9.42624e-15
2.42457e-14
-3.26136e-14
3.37525e-14
3.83093e-14
-1.89561e-14
-7.58259e-15
-1.43807e-15
3.5857e-15
-1.88072e-14
1.55683e-14
-2.71051e-14
-1.10318e-11
1.65304e-12
-3.25815e-13
1.02228e-13
1.97618e-15
-2.27644e-14
-1.10221e-15
-5.17516e-14
4.20029e-14
1.84889e-14
-6.65033e-14
-1.70471e-15
3.30981e-15
1.36011e-14
7.01163e-14
-5.10064e-15
-4.05459e-15
-6.19047e-17
-1.88492e-14
0
-7.04731e-12
1.49823e-12
-2.22107e-13
8.38954e-14
-2.89267e-14
4.48678e-14
-4.82901e-14
8.64038e-15
-1.72149e-14
2.77235e-15
4.81929e-15
1.24392e-14
-2.48133e-14
-3.20005e-14
-7.11574e-14
-1.31933e-14
-1.68933e-14
1.75114e-14
7.41235e-14
-2.71051e-14
2.0898e-11
-3.72884e-12
7.06497e-13
-3.04087e-13
6.07366e-14
-5.00451e-14
4.19294e-14
2.50155e-14
1.98217e-14
4.74722e-15
-9.94025e-15
-9.01294e-15
2.19087e-14
-1.48198e-15
6.34173e-14
-1.12051e-14
1.49484e-14
-8.87053e-15
-6.4134e-14
0
-2.5018e-11
4.7727e-12
-9.57223e-13
3.51906e-13
-8.59025e-14
5.60408e-14
-1.61548e-14
-6.19719e-14
-4.85242e-15
1.9534e-14
4.41751e-14
-3.49857e-14
-2.22132e-14
-2.35235e-14
6.56755e-14
-9.06759e-14
-6.48217e-14
5.80957e-14
-1.62056e-14
5.42101e-14
1.69949e-11
-3.1533e-12
5.9633e-13
-2.60928e-13
7.77542e-14
-2.00211e-14
-2.65679e-15
1.53308e-14
8.84369e-15
1.08133e-14
-2.04988e-14
3.27345e-15
1.00391e-14
-2.99095e-15
3.4498e-14
-1.18702e-14
-1.78278e-14
1.85865e-15
-1.24936e-14
-2.71051e-14
1.89735e-12
3.49025e-13
-3.62262e-14
3.56286e-14
-3.83391e-14
4.6668e-15
-1.07497e-15
-1.85056e-14
4.61198e-14
-3.90499e-15
1.53833e-14
7.5677e-15
-2.03399e-14
2.35446e-14
2.46508e-14
-3.31148e-14
7.22601e-15
4.13859e-15
4.05524e-14
-5.42101e-14
-2.08709e-11
2.18341e-12
-4.58933e-13
1.712e-13
-2.02575e-14
3.21268e-14
-4.54149e-14
-1.47867e-14
1.79462e-14
-1.39327e-14
-4.25568e-14
1.99855e-14
4.24927e-14
-2.07373e-14
-1.83062e-14
-4.20733e-15
1.71949e-14
2.13859e-14
-4.0313e-14
5.42101e-14
2.44217e-11
-2.94054e-12
5.38645e-13
-1.88795e-13
2.25028e-14
4.23505e-14
4.83048e-14
-2.53876e-15
-1.86428e-14
8.16758e-15
1.9313e-14
2.01775e-15
-2.12933e-14
-6.23513e-15
3.65719e-16
-1.63617e-15
1.66973e-14
-3.21354e-14
2.40997e-14
-5.42101e-14
-3.82181e-12
1.75593e-12
-4.15469e-13
1.67196e-13
-3.33096e-14
-1.54079e-14
-9.96589e-15
-2.00527e-14
-2.11225e-14
-1.10584e-14
1.92323e-14
-1.77676e-14
2.39418e-14
3.01542e-14
-1.07796e-14
3.71972e-15
-5.89356e-14
3.48582e-14
-6.89776e-15
2.71051e-14
-2.14672e-11
9.22529e-13
-2.50029e-13
8.41505e-14
-5.35335e-15
2.19775e-14
2.18862e-14
-1.2803e-14
3.59327e-14
-3.32711e-14
-2.79953e-14
2.41823e-14
-3.58524e-14
-1.45712e-14
8.50774e-15
-5.66919e-15
2.95923e-14
1.8148e-14
-3.69279e-14
0
1.4962e-11
-1.57209e-12
3.52366e-13
-1.35525e-13
0
-2.71051e-14
0
0
0
0
2.71051e-14
-2.71051e-14
0
2.71051e-14
2.71051e-14
-5.42101e-14
0
0
2.71051e-14
-2.71051e-14
)
;

boundaryField
{
    movingWall
    {
        type            extrapolatedCalculated;
        value           nonuniform List<scalar> 
20
(
1.4962e-11
-1.57209e-12
3.52366e-13
-1.35525e-13
0
-2.71051e-14
0
0
0
0
2.71051e-14
-2.71051e-14
0
2.71051e-14
2.71051e-14
-5.42101e-14
0
0
2.71051e-14
-2.71051e-14
)
;
    }
    fixedWalls
    {
        type            extrapolatedCalculated;
        value           nonuniform List<scalar> 
60
(
1.76996e-11
-3.36103e-11
1.47723e-11
1.30646e-11
-2.55872e-11
1.84585e-11
5.96311e-12
-2.59395e-11
2.48824e-11
-1.10318e-11
-7.04731e-12
2.0898e-11
-2.5018e-11
1.69949e-11
1.89735e-12
-2.08709e-11
2.44217e-11
-3.82181e-12
-2.14672e-11
1.4962e-11
0
2.71051e-14
0
0
-2.71051e-14
0
-2.71051e-14
0
-2.71051e-14
0
-2.71051e-14
0
5.42101e-14
-2.71051e-14
-5.42101e-14
5.42101e-14
-5.42101e-14
2.71051e-14
0
-2.71051e-14
1.76996e-11
-2.19781e-12
4.7363e-13
-1.93401e-13
6.6977e-14
-3.60438e-14
7.98587e-16
-1.52643e-14
-2.62917e-14
5.14399e-14
2.35733e-16
-1.36079e-14
-5.67626e-15
-2.6097e-14
1.02721e-14
1.72977e-14
-2.12513e-14
3.916e-14
-2.65862e-14
0
)
;
    }
    frontAndBack
    {
        type            empty;
    }
}


// ************************************************************************* //
