/*--------------------------------*- C++ -*----------------------------------*\
| =========                 |                                                 |
| \\      /  F ield         | OpenFOAM: The Open Source CFD Toolbox           |
|  \\    /   O peration     | Version:  2506                                  |
|   \\  /    A nd           | Website:  www.openfoam.com                      |
|    \\/     M anipulation  |                                                 |
\*---------------------------------------------------------------------------*/
FoamFile
{
    version     2.0;
    format      ascii;
    arch        "LSB;label=32;scalar=64";
    class       volScalarField;
    location    "9.875";
    object      enstrophyField;
}
// * * * * * * * * * * * * * * * * * * * * * * * * * * * * * * * * * * * * * //

dimensions      [0 0 -2 0 0 0 0];

internalField   nonuniform List<scalar> 
400
(
9.31661e-23
1.54482e-22
7.06755e-24
4.84298e-25
3.47477e-27
8.93844e-27
3.98502e-28
2.23052e-27
3.86834e-30
1.41715e-27
1.41933e-27
2.80742e-28
1.57968e-29
1.32804e-27
2.20533e-27
1.06237e-31
2.56884e-27
1.58902e-27
8.85179e-29
1.15303e-30
1.18218e-24
7.19949e-26
2.15934e-29
6.81338e-27
5.11048e-27
4.47752e-27
2.89681e-27
4.40962e-27
2.41413e-27
5.71067e-27
2.41835e-27
4.91029e-27
4.07798e-27
2.65221e-27
1.25616e-27
1.19036e-29
9.65748e-30
2.81167e-29
3.59137e-29
5.75165e-29
2.4728e-23
1.02867e-22
5.28052e-24
3.73209e-25
3.91249e-27
8.71997e-27
3.60511e-27
4.21524e-27
5.12489e-27
4.09706e-29
3.39817e-27
1.13438e-27
6.42228e-30
5.36897e-27
2.16003e-27
2.82437e-33
1.7399e-27
1.70372e-27
5.14345e-28
1.82234e-28
3.07939e-23
8.27462e-23
4.30963e-24
2.70625e-25
7.20426e-27
2.06452e-27
1.21245e-27
2.23053e-27
2.28804e-27
6.58024e-27
3.48904e-27
5.90702e-27
3.13231e-27
3.81181e-27
3.9763e-29
5.05314e-28
2.37635e-30
8.98307e-31
3.1176e-29
2.10014e-28
1.76061e-24
7.12816e-25
9.52877e-26
4.75238e-27
8.25732e-27
9.52239e-27
2.72241e-29
4.22076e-28
2.74058e-28
4.0394e-27
1.86736e-27
4.68051e-28
1.44883e-27
3.71042e-28
6.52425e-29
6.76575e-28
1.89118e-27
1.93443e-27
6.40011e-28
4.88143e-29
2.84332e-23
7.15723e-23
3.83948e-24
2.18504e-25
1.91935e-26
7.03185e-28
1.17362e-27
7.98991e-27
5.15897e-27
1.09306e-26
3.72309e-27
1.62325e-27
4.74968e-29
3.1789e-28
2.73714e-27
2.15641e-30
1.96316e-29
2.54383e-29
3.8823e-29
3.68549e-29
6.45396e-23
1.36724e-22
7.88449e-24
3.02119e-25
6.67357e-26
3.65806e-27
1.37961e-26
1.84417e-26
3.83202e-27
8.94658e-27
3.20226e-27
1.28351e-27
5.19828e-27
4.83105e-27
1.07506e-27
1.72849e-27
7.19638e-27
7.39123e-27
1.4198e-27
2.87604e-28
5.95037e-24
2.35512e-23
1.15432e-24
7.95479e-26
5.62184e-28
2.65436e-27
4.27327e-27
1.41675e-26
5.39438e-27
3.98443e-27
1.87522e-28
1.45044e-27
6.63784e-27
9.48321e-28
2.58648e-27
5.15079e-29
4.46084e-30
1.01485e-29
1.40145e-27
2.18573e-28
1.76632e-23
2.57668e-23
1.66443e-24
6.01746e-26
2.93828e-26
9.42763e-27
7.72083e-27
3.46577e-27
2.48465e-27
7.7465e-27
1.04241e-28
2.90654e-27
1.64072e-27
5.41525e-30
1.22696e-27
3.63683e-28
3.08257e-27
1.32959e-27
2.79455e-28
2.88842e-29
7.5212e-23
1.42484e-22
6.99759e-24
5.93603e-25
2.25876e-28
2.09658e-26
1.48984e-29
2.9113e-30
3.56006e-29
5.86247e-28
1.7489e-27
3.75289e-27
1.23605e-30
1.75453e-27
2.24819e-27
4.26409e-27
3.89441e-27
4.10916e-27
2.63102e-28
1.21111e-28
8.64614e-23
1.60221e-22
8.73838e-24
4.31976e-25
4.77026e-26
7.15019e-29
1.28188e-27
1.97834e-27
1.90373e-28
2.48561e-29
4.66353e-27
5.53993e-28
6.9684e-28
1.08769e-27
1.72001e-27
1.68773e-27
1.5742e-27
2.91233e-28
1.65573e-28
3.45258e-30
3.30761e-23
5.45243e-23
3.38926e-24
8.44807e-26
2.94624e-26
5.42917e-27
1.0377e-28
7.90717e-28
1.11258e-26
2.39388e-27
3.10711e-28
1.67412e-27
8.24555e-27
1.4855e-27
4.79303e-28
1.26341e-27
1.78265e-27
1.12714e-27
5.57578e-28
5.39742e-31
5.64796e-25
1.62546e-24
8.59519e-26
1.01142e-27
4.28852e-27
7.84863e-28
5.62777e-28
1.08323e-27
2.31737e-29
6.68672e-28
9.08516e-28
5.94144e-31
7.77064e-29
8.44785e-29
1.72098e-29
1.61738e-30
5.01025e-30
1.01166e-29
5.92738e-30
5.10192e-29
4.29061e-23
7.97149e-23
4.55829e-24
1.59009e-25
1.04448e-26
6.20978e-27
7.28602e-28
1.06133e-27
5.14317e-27
7.75984e-29
2.14407e-27
9.57276e-29
6.2269e-27
6.72259e-27
1.87796e-27
5.21492e-30
4.23277e-27
6.00531e-31
1.02712e-27
5.11137e-29
6.4092e-23
1.46778e-22
8.16683e-24
3.9852e-25
1.915e-26
4.27014e-28
2.94847e-28
1.09247e-27
7.68913e-27
4.39219e-27
4.01467e-27
9.59493e-28
1.64154e-27
2.46822e-28
1.37321e-27
3.31785e-28
2.98221e-28
2.06734e-29
2.10748e-27
3.9908e-28
2.18783e-23
5.30433e-23
2.57146e-24
2.09119e-25
2.05027e-27
1.09924e-28
2.07081e-28
3.26947e-27
3.94617e-28
4.73914e-27
1.30197e-27
1.37416e-27
1.81735e-28
9.94943e-29
1.50457e-27
2.47032e-27
8.56103e-28
2.18052e-32
7.35095e-29
7.98812e-29
1.52701e-24
3.39932e-24
2.04081e-25
1.46948e-26
2.16904e-28
1.40699e-28
3.35034e-27
3.78409e-29
1.69693e-30
1.50627e-28
3.01735e-27
1.89868e-30
8.44319e-27
5.9936e-28
4.92988e-29
2.9953e-28
7.9469e-28
4.77094e-30
1.76685e-28
1.00036e-28
7.80583e-24
8.11657e-23
4.13461e-24
2.55384e-25
1.03038e-26
1.02075e-27
1.67934e-28
1.60632e-29
3.92861e-29
6.07618e-31
9.86942e-28
7.51175e-28
3.57846e-30
4.55599e-27
7.5582e-27
5.02765e-27
2.12285e-27
1.38006e-28
1.05703e-27
5.36196e-28
1.18781e-23
1.69109e-23
1.05953e-24
2.04775e-26
1.33706e-26
4.42774e-27
7.42289e-27
4.81571e-27
5.86337e-27
8.84634e-28
3.06096e-27
6.65464e-27
6.27573e-27
1.42962e-29
8.38985e-28
8.00474e-28
1.86817e-27
8.01852e-29
3.91364e-28
1.21696e-28
1.08052e-23
3.79878e-23
1.56278e-24
1.26549e-25
1.87738e-27
4.4404e-27
1.79746e-27
3.61941e-27
1.84327e-27
1.76714e-27
3.71986e-28
1.42038e-27
1.06605e-27
2.40869e-27
9.43968e-30
2.37104e-29
6.58009e-30
6.25351e-32
3.36551e-35
5.61142e-28
)
;

boundaryField
{
    movingWall
    {
        type            calculated;
        value           nonuniform List<scalar> 
20
(
1.12939e-22
6.72204e-23
1.7323e-24
3.45492e-25
1.13956e-26
3.4341e-26
4.47131e-27
3.65093e-26
9.76273e-27
9.58649e-27
1.58076e-26
8.75368e-27
1.43821e-26
4.26663e-28
3.56783e-27
1.3156e-27
6.58009e-30
6.25351e-32
3.36551e-35
1.29054e-27
)
;
    }
    fixedWalls
    {
        type            calculated;
        value           nonuniform List<scalar> 
60
(
2.75945e-21
1.1906e-24
1.86765e-21
1.52782e-21
1.7427e-23
1.29103e-21
2.56615e-21
4.2191e-22
4.82721e-22
2.56504e-21
2.90072e-21
1.00452e-21
2.77301e-23
1.47125e-21
2.68663e-21
9.37188e-22
6.03226e-23
1.43746e-21
3.2285e-22
6.55631e-22
6.39465e-29
3.80697e-28
9.37035e-28
1.07644e-27
9.62814e-29
1.99826e-28
5.42001e-28
2.44018e-29
1.5469e-28
8.18376e-29
1.75575e-29
1.3589e-28
8.50208e-29
5.83199e-30
1.83828e-28
3.56613e-29
9.8254e-29
1.16989e-27
2.72093e-29
7.87381e-28
2.38921e-22
2.0606e-22
6.07509e-24
8.48302e-25
7.08983e-27
8.30936e-26
2.49026e-26
2.75246e-26
4.19522e-27
2.44365e-26
2.44456e-26
1.51774e-26
8.14164e-27
1.10835e-27
2.73175e-27
9.65712e-28
1.52557e-28
8.9232e-28
8.85179e-29
1.15303e-30
)
;
    }
    frontAndBack
    {
        type            empty;
    }
}


// ************************************************************************* //
