/*--------------------------------*- C++ -*----------------------------------*\
| =========                 |                                                 |
| \\      /  F ield         | OpenFOAM: The Open Source CFD Toolbox           |
|  \\    /   O peration     | Version:  2506                                  |
|   \\  /    A nd           | Website:  www.openfoam.com                      |
|    \\/     M anipulation  |                                                 |
\*---------------------------------------------------------------------------*/
FoamFile
{
    version     2.0;
    format      ascii;
    arch        "LSB;label=32;scalar=64";
    class       volScalarField;
    location    "9.875";
    object      flowTypeField;
}
// * * * * * * * * * * * * * * * * * * * * * * * * * * * * * * * * * * * * * //

dimensions      [0 0 0 0 0 0 0];

internalField   nonuniform List<scalar> 
400
(
0.390874
0.046187
0.056291
-0.0638941
0.579194
-0.216439
0.360375
-0.061123
0.836393
0.276839
0.0169622
0.371804
0.774895
0.331755
0.187091
0.945216
-0.141434
0.0840453
0.493236
0.734571
0.940942
0.936907
0.994929
0.655841
0.224887
0.0814877
0.117605
0.155619
0.187989
0.199914
-0.276151
0.00914448
-0.0922336
0.144648
-0.11794
0.300693
0.775262
0.697701
0.380405
0.746992
0.602984
0.115549
0.0859137
-0.0116787
0.494285
-0.229151
-0.0269647
-0.3524
-0.161395
0.190489
-0.5129
-0.0671381
0.701258
-0.235835
0.305872
0.731418
0.0522422
-0.0704094
0.163011
0.0276189
0.550609
0.121569
0.0756413
0.0312731
0.188245
0.0885752
0.472537
-0.0794995
0.166718
0.0751238
-0.0198313
-7.15877e-06
0.183967
-0.0152265
0.624016
-0.156505
0.92812
0.948761
0.162402
0.0576078
0.910468
0.785734
0.689358
0.659657
0.0743352
-0.0144415
0.810411
0.520316
0.135993
-0.0347968
0.0305493
0.462248
0.142725
0.268966
1.87147e-05
0.359342
-0.00144536
-0.0174079
-0.163522
0.794234
0.612689
0.119311
0.0874241
0.0112982
-0.0551326
-0.18589
0.223599
-0.124381
-0.167841
-0.0905083
-0.00376865
-0.0447451
0.0750261
0.00126995
-0.348521
0.241546
0.343928
0.827959
0.64148
0.346466
0.269554
0.0722641
-0.0399513
0.150798
-0.71996
0.418601
0.0191993
-0.010607
0.106803
0.100336
0.119224
0.344676
0.122705
0.13861
0.142937
0.0461711
-0.10143
-0.0810878
0.114385
0.300695
0.835857
0.260291
0.284412
0.202674
0.71562
-0.158881
-0.503176
-0.128417
-0.216286
0.139574
0.517139
0.151143
-0.0243134
0.209761
-0.320615
0.00128646
0.135215
0.774496
0.287705
0.228895
0.728748
0.236005
0.162997
0.262858
-0.599901
0.205517
0.0586761
0.0503691
-0.123728
-0.139065
0.480091
-0.205039
0.0545634
0.817045
0.0868493
0.00494637
0.0345877
0.141205
0.181329
0.655134
0.314324
0.0460513
0.0363001
-0.161924
0.863616
-0.451648
0.779585
0.93528
0.789959
0.0272147
0.366422
-0.0589785
0.680335
-0.0856039
0.289655
-0.133195
-0.0794632
-0.107358
0.174506
0.0162351
0.204374
0.0379807
-0.00794321
0.0307277
-0.341429
0.748979
0.419267
-0.149568
0.282217
0.404308
-0.155813
-0.0681868
0.491509
0.403348
0.371728
-0.0584255
-0.00654867
0.347152
0.733889
0.843015
0.593816
0.114985
0.0291121
0.314763
-0.558685
0.244944
0.583066
0.287643
-0.0969101
-0.271688
0.339648
0.277504
-0.160648
-0.0034344
0.449565
-0.803634
-0.0955793
0.122633
0.403528
0.622003
0.942484
0.641124
0.651079
0.810411
0.173042
0.323059
-0.216093
0.480793
0.0516637
0.108584
0.287132
0.959592
0.534828
0.431139
0.897017
0.957622
0.90478
0.915205
0.422982
0.761424
0.495522
0.0828986
0.014545
0.190026
0.0768212
-0.558638
-0.203038
0.226116
-0.222834
0.383405
-0.168732
0.197224
-0.364888
-0.4144
-0.00209435
0.166164
-0.125338
0.353636
0.237597
0.692779
0.253762
0.0623505
0.00181626
0.0575685
0.0937447
0.535488
0.00205296
-0.574958
-0.0993911
-0.0736315
-0.0177838
0.469575
-0.139753
0.325188
0.0756522
0.300046
0.0987487
0.0507472
0.150406
0.478132
0.6802
0.157744
0.170625
-0.00813457
0.527931
0.56578
0.588322
0.0555483
0.241255
-0.184577
-0.0759676
0.358585
0.618634
0.592739
0.104064
-0.291796
-0.360768
0.929585
0.718466
0.715011
0.913842
0.604488
0.592315
0.527721
0.658059
0.766913
0.159897
0.427379
0.696411
0.0369892
-0.403746
0.676735
-0.191542
-0.130195
0.208064
0.0981312
0.00493462
0.916305
0.402396
0.582773
0.676016
0.133383
0.113028
0.057872
0.167146
0.00301763
0.321202
0.607575
0.639137
0.878266
0.250471
0.344156
0.848179
0.0472726
-0.126354
-0.227737
0.149937
0.650244
-0.629664
-0.175527
0.764115
0.349061
0.278279
0.533822
0.0203176
0.134595
-0.0849171
-0.127913
0.0306808
0.289669
0.0865844
-0.0532769
0.0864578
0.746275
0.309803
0.267059
0.211868
0.560575
0.245391
0.414916
0.69011
0.129326
0.207064
0.00451693
0.535823
-0.38442
-0.0990675
-0.0327845
0.0444479
-0.087783
0.259278
0.114512
0.155675
-0.219993
0.688296
0.822771
0.141191
0.85308
0.966094
0.144339
)
;

boundaryField
{
    movingWall
    {
        type            calculated;
        value           nonuniform List<scalar> 
20
(
0.573769
0.102969
0.335858
-0.13947
0.505057
-0.158996
-0.0513864
-0.0139625
-0.0267787
-0.0252166
0.017911
0.0388158
0.0501129
0.348198
0.132348
0.289033
0.663349
0.891793
0.96744
0.0553454
)
;
    }
    fixedWalls
    {
        type            calculated;
        value           nonuniform List<scalar> 
60
(
0.0480402
0.943584
0.110153
0.109551
0.766877
0.119693
0.0480139
0.277397
0.235046
0.0424268
0.029842
0.107705
0.665348
0.0714641
0.0490723
0.166239
0.618666
0.135361
0.34313
0.151807
0.212823
0.642007
0.00573551
0.0125953
0.688162
0.536451
0.360919
0.724926
0.00515631
0.0234418
0.0105967
0.0367399
0.806141
0.908783
0.73706
0.86633
0.728005
-0.65411
0.709861
0.241947
0.660838
0.153814
0.330798
-0.0540288
0.677655
-0.129762
0.0262991
-0.045301
0.0138352
0.0324559
0.00433507
0.0312501
0.0674609
0.348007
0.168578
0.232707
0.420982
0.330064
0.549158
0.765694
)
;
    }
    frontAndBack
    {
        type            empty;
    }
}


// ************************************************************************* //
