/*--------------------------------*- C++ -*----------------------------------*\
| =========                 |                                                 |
| \\      /  F ield         | OpenFOAM: The Open Source CFD Toolbox           |
|  \\    /   O peration     | Version:  2506                                  |
|   \\  /    A nd           | Website:  www.openfoam.com                      |
|    \\/     M anipulation  |                                                 |
\*---------------------------------------------------------------------------*/
FoamFile
{
    version     2.0;
    format      ascii;
    arch        "LSB;label=32;scalar=64";
    class       surfaceScalarField;
    location    "9.875";
    object      fluxField;
}
// * * * * * * * * * * * * * * * * * * * * * * * * * * * * * * * * * * * * * //

dimensions      [0 3 -1 0 0 0 0];

oriented        oriented;

internalField   nonuniform List<scalar> 
760
(
-5e-05
4.71604e-18
-5e-05
-1.01024e-18
-5e-05
2.4038e-19
-5e-05
-4.83503e-20
-5e-05
1.67443e-20
-5e-05
4.54158e-21
-5e-05
6.97591e-21
-5e-05
2.96019e-21
-5e-05
2.03331e-22
-5e-05
-6.92558e-22
-5e-05
5.89332e-23
-5e-05
3.37428e-21
-5e-05
5.3572e-21
-5e-05
7.02827e-21
-5e-05
2.56802e-21
-5e-05
-2.45184e-21
-5e-05
1.46345e-21
-5e-05
3.01375e-21
-5e-05
1.29703e-22
-2.4314e-21
-5e-05
-4.20256e-18
-5e-05
9.14839e-19
-5e-05
-2.16901e-19
-5e-05
4.98283e-20
-5e-05
-5.61078e-21
-5e-05
1.23307e-20
-5e-05
1.04045e-20
-5e-05
3.35511e-21
-5e-05
-2.62473e-21
-5e-05
-4.58377e-21
-5e-05
-7.49095e-22
-5e-05
6.30775e-21
-5e-05
8.82843e-21
-5e-05
7.66056e-21
-5e-05
1.13028e-21
-5e-05
-9.73236e-22
-5e-05
-1.08327e-22
-5e-05
-1.06943e-21
-5e-05
-3.02385e-21
-4.43024e-21
-5e-05
-5.0895e-19
-5e-05
1.36791e-19
-5e-05
-2.39855e-20
-5e-05
1.76542e-20
-5e-05
8.07893e-21
-5e-05
1.19958e-20
-5e-05
1.14771e-20
-5e-05
5.5618e-21
-5e-05
-1.07007e-21
-5e-05
-2.77885e-21
-5e-05
-3.81775e-22
-5e-05
3.72365e-21
-5e-05
4.68178e-21
-5e-05
3.36912e-21
-5e-05
-2.39498e-21
-5e-05
-1.73958e-21
-5e-05
-3.5851e-21
-5e-05
-2.38948e-21
-5e-05
-4.29081e-21
-5.6056e-21
-5e-05
3.37557e-18
-5e-05
-7.24004e-19
-5e-05
1.80145e-19
-5e-05
-3.14141e-20
-5e-05
1.25054e-20
-5e-05
3.48786e-22
-5e-05
2.59785e-21
-5e-05
6.52203e-21
-5e-05
5.74154e-21
-5e-05
4.08617e-21
-5e-05
2.02507e-21
-5e-05
1.80566e-21
-5e-05
1.08433e-21
-5e-05
2.44215e-21
-5e-05
-4.49251e-22
-5e-05
-2.64304e-21
-5e-05
-4.04062e-21
-5e-05
-3.92072e-21
-5e-05
-5.70302e-21
-3.72672e-21
-5e-05
-3.6753e-18
-5e-05
7.99155e-19
-5e-05
-1.75655e-19
-5e-05
4.46789e-20
-5e-05
-7.65613e-21
-5e-05
-2.54858e-21
-5e-05
-5.67638e-21
-5e-05
9.42508e-22
-5e-05
5.11035e-21
-5e-05
6.93132e-21
-5e-05
6.05117e-21
-5e-05
6.44978e-21
-5e-05
5.87045e-21
-5e-05
4.10819e-21
-5e-05
-4.67255e-22
-5e-05
-3.69214e-21
-5e-05
-2.36811e-21
-5e-05
-3.94832e-21
-5e-05
-2.58241e-21
4.22683e-22
-5e-05
1.33043e-18
-5e-05
-2.60157e-19
-5e-05
7.90268e-20
-5e-05
-7.60938e-21
-5e-05
9.30373e-21
-5e-05
8.62121e-22
-5e-05
-5.94876e-22
-5e-05
2.91294e-22
-5e-05
4.48169e-21
-5e-05
6.91415e-21
-5e-05
7.12425e-21
-5e-05
7.83645e-21
-5e-05
6.93011e-21
-5e-05
3.78567e-21
-5e-05
-1.9046e-21
-5e-05
-3.11908e-21
-5e-05
-2.38903e-22
-5e-05
1.33484e-21
-5e-05
4.83501e-21
3.30722e-21
-5e-05
2.70601e-18
-5e-05
-5.5194e-19
-5e-05
1.45428e-19
-5e-05
-2.0356e-20
-5e-05
1.69319e-20
-5e-05
1.15986e-20
-5e-05
9.09692e-21
-5e-05
2.90883e-21
-5e-05
1.47453e-21
-5e-05
-1.17229e-21
-5e-05
-9.53764e-22
-5e-05
4.40724e-22
-5e-05
-1.75229e-21
-5e-05
-2.87342e-21
-5e-05
-1.61843e-21
-5e-05
-4.05305e-22
-5e-05
2.06551e-21
-5e-05
3.22884e-21
-5e-05
4.22992e-21
3.31521e-21
-5e-05
-3.93369e-18
-5e-05
8.80625e-19
-5e-05
-1.92847e-19
-5e-05
5.8193e-20
-5e-05
3.75248e-22
-5e-05
1.27482e-20
-5e-05
4.59068e-21
-5e-05
-7.72241e-22
-5e-05
-4.09567e-21
-5e-05
-1.04815e-20
-5e-05
-1.00967e-20
-5e-05
-4.93703e-21
-5e-05
-4.5007e-21
-5e-05
-5.86856e-21
-5e-05
-1.01304e-21
-5e-05
-2.72012e-22
-5e-05
1.55821e-21
-5e-05
1.17391e-21
-5e-05
1.09262e-21
2.35677e-21
-5e-05
2.66162e-18
-5e-05
-5.73115e-19
-5e-05
1.4795e-19
-5e-05
-1.94526e-20
-5e-05
9.71463e-21
-5e-05
-6.98036e-21
-5e-05
-8.0444e-21
-5e-05
-5.52981e-21
-5e-05
-2.35656e-21
-5e-05
-7.4911e-21
-5e-05
-8.15339e-21
-5e-05
-5.11441e-21
-5e-05
-3.97519e-21
-5e-05
-4.73902e-21
-5e-05
-1.89565e-21
-5e-05
-3.59518e-22
-5e-05
8.96425e-22
-5e-05
2.07446e-21
-5e-05
3.89208e-21
1.89892e-21
-5e-05
-2.75435e-19
-5e-05
8.79997e-20
-5e-05
-6.91481e-21
-5e-05
1.20045e-20
-5e-05
4.94045e-22
-5e-05
-5.69111e-21
-5e-05
-7.05182e-21
-5e-05
-6.16164e-21
-5e-05
-3.05181e-21
-5e-05
-2.15403e-21
-5e-05
-3.0733e-21
-5e-05
-7.20244e-21
-5e-05
-5.94881e-21
-5e-05
-3.37599e-21
-5e-05
-2.79973e-21
-5e-05
-1.27516e-21
-5e-05
-1.01365e-21
-5e-05
-1.54762e-23
-5e-05
2.06397e-21
1.16996e-21
-5e-05
-2.04206e-18
-5e-05
4.55872e-19
-5e-05
-1.02961e-19
-5e-05
2.77501e-20
-5e-05
-4.55405e-22
-5e-05
4.44068e-21
-5e-05
1.48e-21
-5e-05
-4.61617e-21
-5e-05
-4.30373e-21
-5e-05
6.93087e-22
-5e-05
1.20482e-21
-5e-05
-3.66646e-21
-5e-05
5.7294e-22
-5e-05
5.55241e-21
-5e-05
2.53943e-21
-5e-05
-3.29833e-21
-5e-05
-4.22333e-21
-5e-05
-2.39842e-21
-5e-05
-1.79792e-21
1.40072e-21
-5e-05
3.33969e-18
-5e-05
-7.4925e-19
-5e-05
1.69848e-19
-5e-05
-4.21404e-20
-5e-05
8.40788e-21
-5e-05
1.04126e-21
-5e-05
3.70609e-21
-5e-05
-5.22391e-22
-5e-05
-1.82085e-21
-5e-05
1.18681e-21
-5e-05
4.2912e-21
-5e-05
4.52303e-21
-5e-05
5.47718e-21
-5e-05
6.40577e-21
-5e-05
2.3018e-21
-5e-05
-2.80127e-21
-5e-05
-3.03917e-21
-5e-05
-2.21763e-21
-5e-05
-2.48097e-21
2.1536e-22
-5e-05
-2.9994e-18
-5e-05
6.51074e-19
-5e-05
-1.57991e-19
-5e-05
2.69902e-20
-5e-05
-1.46994e-20
-5e-05
4.57683e-22
-5e-05
2.73756e-21
-5e-05
4.83581e-21
-5e-05
-1.2131e-21
-5e-05
-1.89276e-21
-5e-05
4.26751e-21
-5e-05
1.15824e-20
-5e-05
7.99922e-21
-5e-05
8.95377e-22
-5e-05
-3.90991e-21
-5e-05
-2.34018e-21
-5e-05
-2.65289e-21
-5e-05
-5.80487e-21
-5e-05
-4.0514e-21
-2.72252e-21
-5e-05
1.31647e-18
-5e-05
-3.00434e-19
-5e-05
6.77673e-20
-5e-05
-1.77982e-20
-5e-05
-8.90233e-22
-5e-05
-5.00528e-21
-5e-05
-6.64197e-22
-5e-05
3.83271e-21
-5e-05
2.21092e-21
-5e-05
2.70332e-21
-5e-05
8.42783e-21
-5e-05
1.43709e-20
-5e-05
9.28605e-21
-5e-05
-7.47738e-22
-5e-05
-4.92802e-21
-5e-05
-2.96756e-21
-5e-05
-4.45694e-21
-5e-05
-6.3116e-21
-5e-05
-3.12339e-21
-1.41185e-21
-5e-05
1.96362e-18
-5e-05
-4.34516e-19
-5e-05
1.0614e-19
-5e-05
-1.81979e-20
-5e-05
1.0744e-20
-5e-05
1.1667e-21
-5e-05
-2.68742e-22
-5e-05
2.14986e-21
-5e-05
4.7537e-21
-5e-05
5.80002e-21
-5e-05
3.84582e-21
-5e-05
1.89193e-21
-5e-05
1.69128e-21
-5e-05
-8.90111e-22
-5e-05
-6.13563e-22
-5e-05
-1.50245e-21
-5e-05
-4.96976e-21
-5e-05
-5.74162e-21
-5e-05
-3.41443e-21
-3.21606e-23
-5e-05
-3.82944e-18
-5e-05
8.64337e-19
-5e-05
-1.96049e-19
-5e-05
4.95764e-20
-5e-05
-5.06438e-21
-5e-05
8.03171e-21
-5e-05
2.1988e-21
-5e-05
3.07959e-21
-5e-05
4.48655e-21
-5e-05
3.29309e-21
-5e-05
-3.86295e-21
-5e-05
-8.55614e-21
-5e-05
-2.92934e-21
-5e-05
1.59194e-21
-5e-05
2.19971e-21
-5e-05
-1.05183e-21
-5e-05
-2.47753e-21
-5e-05
-1.42978e-21
-5e-05
-3.30198e-21
-3.09803e-21
-5e-05
2.87133e-18
-5e-05
-6.19939e-19
-5e-05
1.41437e-19
-5e-05
-3.36463e-20
-5e-05
5.6257e-21
-5e-05
-2.96491e-21
-5e-05
-1.47633e-21
-5e-05
-6.34691e-22
-5e-05
2.11555e-21
-5e-05
2.04189e-21
-5e-05
-1.94801e-21
-5e-05
-6.27183e-21
-5e-05
-5.32333e-21
-5e-05
-1.55878e-21
-5e-05
9.14297e-23
-5e-05
-4.09042e-22
-5e-05
4.17432e-21
-5e-05
5.51869e-21
-5e-05
-7.51332e-22
-3.89934e-21
-5e-05
2.25087e-18
-5e-05
-5.30024e-19
-5e-05
1.12973e-19
-5e-05
-3.27399e-20
-5e-05
5.22512e-21
-5e-05
-3.85198e-21
-5e-05
-2.49147e-21
-5e-05
-5.01316e-21
-5e-05
-5.28064e-21
-5e-05
-2.7646e-21
-5e-05
-1.96818e-21
-5e-05
-4.4419e-21
-5e-05
-7.56708e-21
-5e-05
-6.01398e-21
-5e-05
-2.6949e-21
-5e-05
9.29931e-22
-5e-05
5.5949e-21
-5e-05
1.93828e-21
-5e-05
-1.72444e-21
-2.56215e-21
-5e-05
-4.05466e-18
-5e-05
8.60825e-19
-5e-05
-2.11585e-19
-5e-05
4.13664e-20
-5e-05
-1.48909e-20
-5e-05
-1.28188e-21
-5e-05
-1.30472e-21
-5e-05
-3.20075e-21
-5e-05
-4.56936e-21
-5e-05
-1.54152e-21
-5e-05
-2.22556e-22
-5e-05
-7.30701e-22
-5e-05
-2.18683e-21
-5e-05
-3.64281e-21
-5e-05
-4.64933e-21
-5e-05
-1.4173e-21
-5e-05
6.21808e-22
-5e-05
-2.23926e-21
-5e-05
-2.45571e-21
-2.01915e-21
-5e-05
-5e-05
-5e-05
-5e-05
-5e-05
-5e-05
-5e-05
-5e-05
-5e-05
-5e-05
-5e-05
-5e-05
-5e-05
-5e-05
-5e-05
-5e-05
-5e-05
-5e-05
-5e-05
)
;

boundaryField
{
    movingWall
    {
        type            calculated;
        value           uniform -0;
    }
    fixedWalls
    {
        type            calculated;
        value           nonuniform List<scalar> 
60
(
5e-05
5e-05
5e-05
5e-05
5e-05
5e-05
5e-05
5e-05
5e-05
5e-05
5e-05
5e-05
5e-05
5e-05
5e-05
5e-05
5e-05
5e-05
5e-05
5e-05
-5e-05
-5e-05
-5e-05
-5e-05
-5e-05
-5e-05
-5e-05
-5e-05
-5e-05
-5e-05
-5e-05
-5e-05
-5e-05
-5e-05
-5e-05
-5e-05
-5e-05
-5e-05
-5e-05
-5e-05
0
0
0
0
0
0
0
0
0
0
0
0
0
0
0
0
0
0
0
0
)
;
    }
    frontAndBack
    {
        type            empty;
    }
}


// ************************************************************************* //
