/*--------------------------------*- C++ -*----------------------------------*\
| =========                 |                                                 |
| \\      /  F ield         | OpenFOAM: The Open Source CFD Toolbox           |
|  \\    /   O peration     | Version:  2506                                  |
|   \\  /    A nd           | Website:  www.openfoam.com                      |
|    \\/     M anipulation  |                                                 |
\*---------------------------------------------------------------------------*/
FoamFile
{
    version     2.0;
    format      ascii;
    arch        "LSB;label=32;scalar=64";
    class       volTensorField;
    location    "9.875";
    object      gradU;
}
// * * * * * * * * * * * * * * * * * * * * * * * * * * * * * * * * * * * * * //

dimensions      [0 0 -1 0 0 0 0];

internalField   nonuniform List<tensor> 
400
(
(-1.16552e-12 1.4843e-11 0 1.19262e-12 1.88642e-11 0 0 0 0)
(1.84314e-12 -1.79026e-11 0 -3.25261e-13 -4.04095e-12 0 0 0 0)
(-4.87891e-13 3.84098e-12 0 8.13152e-14 9.61521e-13 0 0 0 0)
(0 -9.02857e-13 0 8.13152e-14 -1.93401e-13 0 0 0 0)
(0 1.91784e-13 0 1.0842e-13 6.6977e-14 0 0 0 0)
(-5.42101e-14 -5.23893e-14 0 8.13152e-14 1.81663e-14 0 0 0 0)
(-2.71051e-14 -1.12619e-15 0 2.71051e-14 2.79036e-14 0 0 0 0)
(-2.71051e-14 -1.25809e-14 0 5.42101e-14 1.18407e-14 0 0 0 0)
(-2.71051e-14 -2.78149e-15 0 0 8.13323e-16 0 0 0 0)
(5.42101e-14 9.72004e-16 0 5.42101e-14 -2.77023e-15 0 0 0 0)
(0 9.31022e-16 0 5.42101e-14 2.35733e-16 0 0 0 0)
(-2.71051e-14 3.40939e-15 0 2.71051e-14 1.34971e-14 0 0 0 0)
(-2.71051e-14 5.62082e-15 0 0 2.14288e-14 0 0 0 0)
(-5.42101e-14 -2.67298e-15 0 -5.42101e-14 2.81131e-14 0 0 0 0)
(0 -1.49024e-14 0 -8.13152e-14 1.02721e-14 0 0 0 0)
(2.71051e-14 4.60948e-16 0 0 -9.80737e-15 0 0 0 0)
(-2.71051e-14 1.74675e-14 0 -5.42101e-14 5.85378e-15 0 0 0 0)
(2.71051e-14 2.16392e-15 0 -5.42101e-14 1.2055e-14 0 0 0 0)
(-2.71051e-14 -1.33055e-14 0 0 5.1881e-16 0 0 0 0)
(0 -1.51857e-15 0 0 -9.72558e-15 0 0 0 0)
(2.05998e-12 -1.97662e-14 0 1.51788e-12 -3.56744e-11 0 0 0 0)
(-2.95445e-12 -1.09011e-17 0 -3.79471e-13 7.70031e-12 0 0 0 0)
(8.67362e-13 6.57167e-15 0 0 -1.82913e-12 0 0 0 0)
(0 8.3135e-15 0 -1.0842e-13 3.92715e-13 0 0 0 0)
(5.42101e-14 1.97836e-14 0 -8.13152e-14 -8.94201e-14 0 0 0 0)
(-5.42101e-14 1.3316e-14 0 -8.13152e-14 3.11564e-14 0 0 0 0)
(-2.71051e-14 -5.19939e-15 0 -8.13152e-14 1.37144e-14 0 0 0 0)
(2.71051e-14 -1.45094e-14 0 -1.0842e-13 1.57968e-15 0 0 0 0)
(-2.71051e-14 -1.18295e-14 0 -8.13152e-14 -1.13122e-14 0 0 0 0)
(8.13152e-14 -1.54959e-15 0 -1.0842e-13 -1.55649e-14 0 0 0 0)
(0 1.53363e-14 0 -5.42101e-14 -3.23211e-15 0 0 0 0)
(-5.42101e-14 1.77837e-14 0 -8.13152e-14 1.17339e-14 0 0 0 0)
(0 8.99516e-15 0 -8.13152e-14 1.38849e-14 0 0 0 0)
(-2.71051e-14 -8.48371e-15 0 -8.13152e-14 2.52914e-15 0 0 0 0)
(2.71051e-14 -2.30181e-14 0 2.71051e-14 -5.75098e-15 0 0 0 0)
(0 -4.87926e-15 0 0 5.91443e-15 0 0 0 0)
(-2.71051e-14 4.39488e-15 0 0 -6.28709e-15 0 0 0 0)
(2.71051e-14 -7.49889e-15 0 0 -1.63327e-14 0 0 0 0)
(0 -8.4751e-15 0 0 -1.26142e-14 0 0 0 0)
(5.42101e-14 1.07253e-14 0 0 -7.99539e-15 0 0 0 0)
(0 -1.31311e-11 0 -6.09864e-12 1.47745e-11 0 0 0 0)
(3.25261e-13 1.59427e-11 0 1.5992e-12 -3.11219e-12 0 0 0 0)
(-2.71051e-13 -3.46661e-12 0 -2.1684e-13 7.71664e-13 0 0 0 0)
(-1.0842e-13 8.36849e-13 0 -2.71051e-14 -1.28696e-13 0 0 0 0)
(0 -1.69774e-13 0 -8.13152e-14 5.47588e-14 0 0 0 0)
(5.42101e-14 5.07452e-14 0 -8.13152e-14 -1.33941e-15 0 0 0 0)
(-5.42101e-14 -3.0703e-14 0 5.42101e-14 4.2903e-15 0 0 0 0)
(-2.71051e-14 -3.76076e-14 0 5.42101e-14 8.82678e-15 0 0 0 0)
(2.71051e-14 -1.9926e-14 0 8.13152e-14 6.21864e-15 0 0 0 0)
(0 9.05214e-15 0 0 7.21968e-15 0 0 0 0)
(0 2.82298e-14 0 -5.42101e-14 1.46928e-15 0 0 0 0)
(-2.71051e-14 2.05264e-14 0 -2.71051e-14 -1.03364e-14 0 0 0 0)
(0 -3.58393e-15 0 0 -1.65866e-14 0 0 0 0)
(0 -2.23089e-14 0 8.13152e-14 -1.71657e-14 0 0 0 0)
(8.13152e-14 -1.15171e-14 0 5.42101e-14 -1.4101e-14 0 0 0 0)
(0 -7.51581e-17 0 0 -3.0654e-15 0 0 0 0)
(2.71051e-14 -4.77966e-15 0 5.42101e-14 -1.39071e-14 0 0 0 0)
(0 -4.16321e-15 0 5.42101e-14 -5.28021e-15 0 0 0 0)
(-2.71051e-14 -4.96815e-15 0 2.71051e-14 -5.06782e-15 0 0 0 0)
(0 1.9091e-14 0 0 -4.70144e-15 0 0 0 0)
(-2.46656e-12 1.16425e-11 0 3.79471e-12 1.55381e-11 0 0 0 0)
(2.90024e-12 -1.40028e-11 0 -1.13841e-12 -3.44318e-12 0 0 0 0)
(-7.31836e-13 2.99007e-12 0 5.42101e-14 8.16522e-13 0 0 0 0)
(1.89735e-13 -7.08591e-13 0 2.71051e-14 -1.96273e-13 0 0 0 0)
(0 1.47141e-13 0 2.71051e-14 1.77058e-14 0 0 0 0)
(2.71051e-14 -3.71526e-14 0 2.71051e-14 -4.65882e-14 0 0 0 0)
(8.13152e-14 4.96681e-15 0 5.42101e-14 -3.55169e-14 0 0 0 0)
(2.71051e-14 -1.25811e-14 0 5.42101e-14 3.8409e-15 0 0 0 0)
(-5.42101e-14 -1.34366e-14 0 5.42101e-14 2.72464e-14 0 0 0 0)
(-5.42101e-14 -6.29895e-15 0 1.0842e-13 2.74601e-14 0 0 0 0)
(0 -2.21978e-15 0 8.13152e-14 9.62737e-15 0 0 0 0)
(0 -2.72224e-16 0 1.0842e-13 -7.67195e-15 0 0 0 0)
(5.42101e-14 2.16584e-15 0 8.13152e-14 -1.43898e-14 0 0 0 0)
(2.71051e-14 -5.99814e-15 0 8.13152e-14 -3.70791e-15 0 0 0 0)
(-2.71051e-14 -8.91774e-15 0 0 7.78292e-15 0 0 0 0)
(0 -4.68533e-15 0 2.71051e-14 -3.61382e-15 0 0 0 0)
(-5.42101e-14 2.18007e-15 0 0 -1.82206e-15 0 0 0 0)
(5.42101e-14 1.34038e-15 0 0 -6.12494e-15 0 0 0 0)
(0 -7.89633e-15 0 0 -5.64884e-15 0 0 0 0)
(0 2.04946e-14 0 0 7.51554e-15 0 0 0 0)
(2.60209e-12 -1.03623e-12 0 8.40257e-13 -2.82035e-11 0 0 0 0)
(-3.41524e-12 1.2211e-12 0 2.71051e-14 6.09264e-12 0 0 0 0)
(8.94467e-13 -2.19709e-13 0 2.1684e-13 -1.4232e-12 0 0 0 0)
(-8.13152e-14 3.8033e-14 0 1.35525e-13 3.04372e-13 0 0 0 0)
(2.71051e-14 -2.00891e-14 0 1.0842e-13 -8.06461e-14 0 0 0 0)
(0 -2.47753e-15 0 1.35525e-13 -1.15895e-14 0 0 0 0)
(2.71051e-14 1.97262e-14 0 2.71051e-14 -3.30969e-14 0 0 0 0)
(2.71051e-14 2.51558e-14 0 5.42101e-14 -2.23181e-14 0 0 0 0)
(0 3.69316e-15 0 2.71051e-14 -2.52475e-15 0 0 0 0)
(2.71051e-14 -8.56694e-15 0 8.13152e-14 1.13806e-14 0 0 0 0)
(-2.71051e-14 -6.90227e-15 0 5.42101e-14 1.61044e-14 0 0 0 0)
(-5.42101e-14 -3.49075e-15 0 2.71051e-14 1.85765e-14 0 0 0 0)
(-2.71051e-14 3.80112e-16 0 5.42101e-14 1.91445e-14 0 0 0 0)
(-2.71051e-14 -1.36169e-16 0 2.71051e-14 6.66419e-15 0 0 0 0)
(0 -1.1423e-14 0 0 -7.20175e-17 0 0 0 0)
(5.42101e-14 -9.68013e-15 0 2.71051e-14 -4.19639e-15 0 0 0 0)
(-2.71051e-14 -7.29078e-15 0 5.42101e-14 6.69004e-15 0 0 0 0)
(2.71051e-14 -7.98999e-15 0 5.42101e-14 -1.10424e-16 0 0 0 0)
(0 8.67233e-15 0 -2.71051e-14 1.24824e-14 0 0 0 0)
(-5.42101e-14 1.72243e-14 0 2.71051e-14 1.65976e-14 0 0 0 0)
(-1.54499e-12 -1.04683e-11 0 -2.92735e-12 2.00229e-11 0 0 0 0)
(2.30393e-12 1.27775e-11 0 8.13152e-13 -4.23725e-12 0 0 0 0)
(-6.50521e-13 -2.7982e-12 0 -2.71051e-14 1.01873e-12 0 0 0 0)
(2.71051e-14 6.33961e-13 0 -2.71051e-14 -2.09153e-13 0 0 0 0)
(-2.71051e-14 -1.68821e-13 0 2.71051e-14 6.78394e-14 0 0 0 0)
(0 1.03965e-14 0 -2.71051e-14 1.36428e-14 0 0 0 0)
(-2.71051e-14 -5.7618e-15 0 -5.42101e-14 2.0326e-14 0 0 0 0)
(2.71051e-14 1.79911e-14 0 -1.0842e-13 -2.60486e-15 0 0 0 0)
(-2.71051e-14 2.02621e-14 0 -8.13152e-14 -2.51467e-15 0 0 0 0)
(0 1.23302e-14 0 -1.35525e-13 -6.86917e-17 0 0 0 0)
(-2.71051e-14 4.97611e-15 0 -8.13152e-14 4.29233e-15 0 0 0 0)
(0 2.76789e-15 0 -5.42101e-14 5.54666e-15 0 0 0 0)
(0 -9.74647e-15 0 0 4.23864e-15 0 0 0 0)
(0 -2.52147e-14 0 0 -1.29011e-15 0 0 0 0)
(0 -1.97783e-14 0 5.42101e-14 -5.74938e-15 0 0 0 0)
(0 2.07673e-15 0 0 2.29224e-15 0 0 0 0)
(0 6.26604e-15 0 0 8.51681e-15 0 0 0 0)
(-5.42101e-14 7.13278e-15 0 0 2.11327e-14 0 0 0 0)
(0 8.81169e-15 0 0 2.96697e-14 0 0 0 0)
(0 -8.58544e-15 0 0 1.15381e-14 0 0 0 0)
(4.60786e-13 1.47494e-11 0 3.38813e-12 5.50232e-12 0 0 0 0)
(-4.60786e-13 -1.77831e-11 0 -1.24683e-12 -1.16713e-12 0 0 0 0)
(5.42101e-14 3.80839e-12 0 -1.6263e-13 2.65606e-13 0 0 0 0)
(-5.42101e-14 -9.12853e-13 0 -1.35525e-13 -5.09866e-14 0 0 0 0)
(0 2.02707e-13 0 -1.6263e-13 3.05128e-14 0 0 0 0)
(-5.42101e-14 -4.9991e-14 0 -1.35525e-13 4.29458e-14 0 0 0 0)
(-2.71051e-14 3.47849e-15 0 -1.6263e-13 3.87672e-14 0 0 0 0)
(0 2.31513e-15 0 -1.89735e-13 1.04702e-14 0 0 0 0)
(-5.42101e-14 6.22932e-15 0 -8.13152e-14 -1.20286e-14 0 0 0 0)
(5.42101e-14 -1.75994e-15 0 -1.35525e-13 -3.23458e-14 0 0 0 0)
(2.71051e-14 -1.28692e-15 0 -8.13152e-14 -3.23121e-14 0 0 0 0)
(5.42101e-14 -3.54444e-15 0 -5.42101e-14 -2.95829e-14 0 0 0 0)
(2.71051e-14 -6.45666e-15 0 -1.0842e-13 -3.47296e-14 0 0 0 0)
(2.71051e-14 -1.01242e-14 0 -1.0842e-13 -2.66364e-14 0 0 0 0)
(0 -7.84065e-15 0 -5.42101e-14 1.1447e-15 0 0 0 0)
(-2.71051e-14 4.58606e-15 0 -5.42101e-14 1.08551e-14 0 0 0 0)
(0 1.15496e-14 0 -1.0842e-13 9.21764e-15 0 0 0 0)
(-2.71051e-14 1.31629e-14 0 -1.0842e-13 7.57597e-15 0 0 0 0)
(2.71051e-14 -9.22195e-16 0 -5.42101e-14 -2.42036e-15 0 0 0 0)
(-2.71051e-14 -2.39835e-14 0 0 3.19522e-17 0 0 0 0)
(6.23416e-13 -6.13315e-12 0 -2.6834e-12 -2.65588e-11 0 0 0 0)
(-1.32815e-12 7.54075e-12 0 6.77626e-13 5.73026e-12 0 0 0 0)
(4.33681e-13 -1.68205e-12 0 -1.6263e-13 -1.3531e-12 0 0 0 0)
(5.42101e-14 3.98868e-13 0 0 3.14196e-13 0 0 0 0)
(0 -7.48886e-14 0 -1.0842e-13 -6.62268e-14 0 0 0 0)
(2.71051e-14 1.86509e-14 0 -5.42101e-14 4.59844e-15 0 0 0 0)
(0 -3.82374e-14 0 5.42101e-14 -1.8025e-14 0 0 0 0)
(5.42101e-14 -3.28047e-14 0 1.35525e-13 -1.47243e-14 0 0 0 0)
(0 -2.25538e-14 0 8.13152e-14 -2.22808e-14 0 0 0 0)
(5.42101e-14 -7.95326e-15 0 8.13152e-14 -3.72368e-14 0 0 0 0)
(0 7.73898e-15 0 2.71051e-14 -3.65715e-14 0 0 0 0)
(2.71051e-14 3.50317e-16 0 5.42101e-14 -2.1511e-14 0 0 0 0)
(-2.71051e-14 -6.79993e-15 0 1.0842e-13 -1.09936e-14 0 0 0 0)
(0 1.06597e-14 0 5.42101e-14 -1.19805e-14 0 0 0 0)
(0 1.77131e-14 0 -5.42101e-14 2.42154e-15 0 0 0 0)
(0 1.01497e-14 0 0 5.33173e-16 0 0 0 0)
(0 2.98692e-15 0 0 -2.02919e-15 0 0 0 0)
(2.71051e-14 -4.50522e-15 0 0 -8.2197e-15 0 0 0 0)
(5.42101e-14 1.26768e-15 0 5.42101e-14 -1.25492e-14 0 0 0 0)
(0 -6.19703e-15 0 -2.71051e-14 -3.83374e-15 0 0 0 0)
(-1.51788e-12 -6.07913e-12 0 -1.35525e-13 2.63813e-11 0 0 0 0)
(2.05998e-12 7.42264e-12 0 2.43945e-13 -5.81496e-12 0 0 0 0)
(-6.23416e-13 -1.60768e-12 0 2.1684e-13 1.36319e-12 0 0 0 0)
(0 3.74019e-13 0 2.71051e-14 -3.10582e-13 0 0 0 0)
(0 -1.06891e-13 0 1.35525e-13 3.73575e-14 0 0 0 0)
(8.13152e-14 -1.78918e-15 0 1.35525e-13 -7.89141e-14 0 0 0 0)
(5.42101e-14 -1.58442e-14 0 1.0842e-13 -5.05403e-14 0 0 0 0)
(2.71051e-14 -1.9407e-15 0 8.13152e-14 -1.90303e-14 0 0 0 0)
(-2.71051e-14 -1.62832e-14 0 5.42101e-14 6.95642e-15 0 0 0 0)
(0 -1.60507e-14 0 1.0842e-13 1.19616e-14 0 0 0 0)
(-2.71051e-14 1.44389e-14 0 0 7.77305e-15 0 0 0 0)
(2.71051e-14 2.20335e-14 0 -5.42101e-14 -7.09515e-16 0 0 0 0)
(2.71051e-14 3.07382e-15 0 -5.42101e-14 2.10204e-15 0 0 0 0)
(-2.71051e-14 3.29097e-15 0 0 4.51812e-15 0 0 0 0)
(0 4.67305e-15 0 5.42101e-14 -3.53042e-15 0 0 0 0)
(0 1.35332e-16 0 2.71051e-14 -3.50022e-16 0 0 0 0)
(0 2.79677e-15 0 8.13152e-14 -2.64714e-15 0 0 0 0)
(-2.71051e-14 2.64288e-15 0 5.42101e-14 3.60221e-15 0 0 0 0)
(0 3.46376e-15 0 2.71051e-14 1.11978e-14 0 0 0 0)
(-2.71051e-14 -7.60055e-15 0 0 -1.83139e-15 0 0 0 0)
(7.31836e-13 1.44331e-11 0 2.1684e-12 -1.17482e-11 0 0 0 0)
(-1.00289e-12 -1.74773e-11 0 -5.96311e-13 2.64446e-12 0 0 0 0)
(2.98156e-13 3.82233e-12 0 8.13152e-14 -6.19459e-13 0 0 0 0)
(-2.71051e-14 -9.2696e-13 0 1.6263e-13 1.25828e-13 0 0 0 0)
(2.71051e-14 1.5678e-13 0 1.35525e-13 -3.68823e-14 0 0 0 0)
(-2.71051e-14 -6.92469e-14 0 1.35525e-13 5.15701e-15 0 0 0 0)
(0 2.16464e-14 0 2.71051e-14 3.97033e-15 0 0 0 0)
(-5.42101e-14 2.4692e-14 0 2.71051e-14 -2.5273e-15 0 0 0 0)
(5.42101e-14 8.43808e-15 0 0 -2.78101e-15 0 0 0 0)
(0 -7.13663e-15 0 2.71051e-14 2.13483e-14 0 0 0 0)
(-8.13152e-14 -4.93214e-15 0 5.42101e-14 2.03204e-14 0 0 0 0)
(0 -5.32069e-15 0 8.13152e-14 -8.35214e-15 0 0 0 0)
(0 -1.57229e-15 0 0 -7.89449e-15 0 0 0 0)
(0 5.0272e-15 0 -5.42101e-14 5.45212e-15 0 0 0 0)
(8.13152e-14 1.2845e-14 0 -5.42101e-14 -3.61632e-15 0 0 0 0)
(0 1.1033e-14 0 -8.13152e-14 -3.66257e-15 0 0 0 0)
(0 6.93915e-15 0 -8.13152e-14 -7.64029e-15 0 0 0 0)
(0 9.33976e-15 0 -8.13152e-14 -8.35975e-15 0 0 0 0)
(0 -4.16592e-15 0 -2.71051e-14 -7.31246e-15 0 0 0 0)
(0 -1.55635e-14 0 0 -2.91586e-15 0 0 0 0)
(0 -1.51829e-11 0 -2.03288e-12 -7.0665e-12 0 0 0 0)
(2.71051e-14 1.85514e-11 0 6.50521e-13 1.47149e-12 0 0 0 0)
(1.6263e-13 -4.12631e-12 0 5.42101e-14 -3.84183e-13 0 0 0 0)
(2.71051e-14 9.56595e-13 0 2.71051e-14 6.29826e-14 0 0 0 0)
(-2.71051e-14 -2.27562e-13 0 8.13152e-14 -3.7978e-15 0 0 0 0)
(0 3.90635e-14 0 2.71051e-14 4.05271e-14 0 0 0 0)
(-8.13152e-14 -2.35285e-14 0 2.71051e-14 3.41272e-14 0 0 0 0)
(0 -8.69204e-15 0 5.42101e-14 6.18188e-15 0 0 0 0)
(0 7.59234e-15 0 2.71051e-14 -5.00766e-15 0 0 0 0)
(0 7.05069e-15 0 0 1.13885e-14 0 0 0 0)
(0 -1.52615e-14 0 8.13152e-14 1.71125e-14 0 0 0 0)
(0 -6.18136e-15 0 2.71051e-14 1.41439e-14 0 0 0 0)
(-5.42101e-14 1.68781e-14 0 5.42101e-14 2.6087e-14 0 0 0 0)
(-5.42101e-14 7.56914e-15 0 5.42101e-14 3.57136e-14 0 0 0 0)
(-8.13152e-14 -4.44164e-15 0 5.42101e-14 2.13566e-14 0 0 0 0)
(0 -3.88864e-15 0 5.42101e-14 -8.0927e-15 0 0 0 0)
(0 -1.90041e-15 0 5.42101e-14 -1.28387e-14 0 0 0 0)
(2.71051e-14 2.97071e-15 0 2.71051e-14 -9.53176e-15 0 0 0 0)
(8.13152e-14 8.90766e-15 0 2.71051e-14 -1.54476e-14 0 0 0 0)
(-2.71051e-14 2.62777e-15 0 0 9.23052e-16 0 0 0 0)
(-6.23416e-13 8.83813e-12 0 7.04731e-13 2.1527e-11 0 0 0 0)
(1.0842e-12 -1.0795e-11 0 -3.52366e-13 -4.82049e-12 0 0 0 0)
(-3.79471e-13 2.41382e-12 0 -1.89735e-13 1.09123e-12 0 0 0 0)
(-2.71051e-14 -5.46574e-13 0 -1.35525e-13 -2.79562e-13 0 0 0 0)
(2.71051e-14 1.34324e-13 0 -1.0842e-13 3.54531e-14 0 0 0 0)
(-2.71051e-14 -3.13219e-14 0 -1.35525e-13 -1.35976e-14 0 0 0 0)
(2.71051e-14 -1.26988e-14 0 -2.71051e-14 8.90437e-15 0 0 0 0)
(0 -1.44429e-14 0 -5.42101e-14 1.63751e-14 0 0 0 0)
(0 1.36447e-14 0 -1.35525e-13 9.93153e-15 0 0 0 0)
(0 1.49835e-14 0 -5.42101e-14 1.97488e-15 0 0 0 0)
(-2.71051e-14 -2.17671e-15 0 -2.71051e-14 1.23455e-14 0 0 0 0)
(-5.42101e-14 3.65383e-15 0 -5.42101e-14 3.2758e-14 0 0 0 0)
(0 1.99974e-14 0 -1.0842e-13 1.9617e-14 0 0 0 0)
(0 2.9682e-16 0 -5.42101e-14 3.41343e-15 0 0 0 0)
(5.42101e-14 -3.09614e-14 0 0 -9.50529e-16 0 0 0 0)
(0 -2.31624e-14 0 2.71051e-14 1.98824e-15 0 0 0 0)
(0 5.50008e-15 0 -5.42101e-14 4.73665e-15 0 0 0 0)
(0 6.73092e-15 0 5.42101e-14 7.23136e-16 0 0 0 0)
(-5.42101e-14 6.2889e-15 0 -2.71051e-14 -2.73219e-15 0 0 0 0)
(0 -1.03898e-15 0 0 -4.74145e-15 0 0 0 0)
(3.52366e-13 1.52361e-12 0 4.60786e-13 -2.53563e-11 0 0 0 0)
(-8.40257e-13 -1.88435e-12 0 -8.13152e-14 5.60129e-12 0 0 0 0)
(3.52366e-13 4.14613e-13 0 0 -1.31135e-12 0 0 0 0)
(8.13152e-14 -9.9186e-14 0 -5.42101e-14 2.76522e-13 0 0 0 0)
(0 3.84022e-14 0 -5.42101e-14 -9.24289e-14 0 0 0 0)
(5.42101e-14 1.25147e-14 0 -2.71051e-14 -2.33432e-15 0 0 0 0)
(0 6.44421e-15 0 -2.71051e-14 -3.8741e-15 0 0 0 0)
(-8.13152e-14 -7.66488e-15 0 -5.42101e-14 2.14328e-14 0 0 0 0)
(0 -6.80789e-15 0 0 2.43096e-15 0 0 0 0)
(2.71051e-14 9.46467e-15 0 -2.71051e-14 -1.23183e-14 0 0 0 0)
(5.42101e-14 1.55216e-14 0 -2.71051e-14 -9.47467e-17 0 0 0 0)
(-5.42101e-14 1.09009e-15 0 0 2.82373e-14 0 0 0 0)
(-2.71051e-14 -1.24665e-14 0 0 1.00882e-14 0 0 0 0)
(0 -1.29983e-14 0 0 -2.20416e-14 0 0 0 0)
(8.13152e-14 -5.86682e-15 0 0 -2.48468e-14 0 0 0 0)
(-8.13152e-14 1.79854e-15 0 0 1.84439e-15 0 0 0 0)
(-5.42101e-14 -3.16552e-15 0 0 1.5451e-15 0 0 0 0)
(8.13152e-14 -4.49812e-15 0 0 -1.43489e-14 0 0 0 0)
(0 3.44307e-15 0 0 -6.28176e-15 0 0 0 0)
(5.42101e-14 1.01014e-14 0 0 -1.17515e-14 0 0 0 0)
(-2.71051e-13 -1.09169e-11 0 -1.65341e-12 1.72634e-11 0 0 0 0)
(6.50521e-13 1.325e-11 0 6.23416e-13 -3.80603e-12 0 0 0 0)
(-2.98156e-13 -2.91095e-12 0 1.0842e-13 9.03032e-13 0 0 0 0)
(-8.13152e-14 6.72351e-13 0 1.0842e-13 -1.79154e-13 0 0 0 0)
(2.71051e-14 -1.44532e-13 0 0 5.52365e-14 0 0 0 0)
(0 5.7233e-14 0 -5.42101e-14 -2.18518e-14 0 0 0 0)
(0 1.10683e-14 0 -2.71051e-14 -1.3607e-14 0 0 0 0)
(2.71051e-14 -8.13779e-15 0 -5.42101e-14 -4.01242e-15 0 0 0 0)
(0 -2.01064e-14 0 8.13152e-14 1.36961e-14 0 0 0 0)
(0 1.24578e-14 0 0 1.83843e-14 0 0 0 0)
(-2.71051e-14 3.83789e-14 0 -2.71051e-14 1.66413e-14 0 0 0 0)
(0 1.38367e-14 0 0 1.11541e-14 0 0 0 0)
(0 -3.02815e-14 0 8.13152e-14 5.14731e-15 0 0 0 0)
(0 -3.46382e-14 0 8.13152e-14 -6.57246e-15 0 0 0 0)
(2.71051e-14 -7.0754e-15 0 5.42101e-14 -4.07245e-15 0 0 0 0)
(0 3.22953e-15 0 0 -2.50954e-15 0 0 0 0)
(0 -1.06932e-14 0 8.13152e-14 -7.2162e-15 0 0 0 0)
(0 -1.09593e-15 0 0 -2.02693e-15 0 0 0 0)
(-2.71051e-14 8.88632e-15 0 5.42101e-14 3.71207e-15 0 0 0 0)
(-2.71051e-14 1.69943e-14 0 2.71051e-14 5.24268e-15 0 0 0 0)
(-7.04731e-13 1.4981e-11 0 3.65918e-12 2.58863e-12 0 0 0 0)
(8.94467e-13 -1.82448e-11 0 -1.11131e-12 -5.36327e-13 0 0 0 0)
(-1.89735e-13 4.04149e-12 0 0 1.53491e-13 0 0 0 0)
(2.71051e-14 -9.46981e-13 0 -5.42101e-14 -1.59892e-15 0 0 0 0)
(-8.13152e-14 1.95704e-13 0 0 4.6537e-14 0 0 0 0)
(-2.71051e-14 -5.63288e-14 0 -2.71051e-14 2.46879e-14 0 0 0 0)
(0 2.42836e-14 0 0 1.58182e-15 0 0 0 0)
(0 1.96383e-14 0 -2.71051e-14 -6.73138e-15 0 0 0 0)
(2.71051e-14 1.55889e-14 0 -1.0842e-13 1.01711e-14 0 0 0 0)
(-2.71051e-14 1.24098e-14 0 -8.13152e-14 1.23868e-14 0 0 0 0)
(2.71051e-14 8.29138e-15 0 -8.13152e-14 -1.8328e-14 0 0 0 0)
(5.42101e-14 -1.04039e-14 0 -5.42101e-14 -4.99159e-14 0 0 0 0)
(0 -3.0193e-14 0 2.71051e-14 -3.0379e-14 0 0 0 0)
(2.71051e-14 -2.22181e-14 0 0 -5.69491e-16 0 0 0 0)
(0 -1.8039e-15 0 -5.42101e-14 1.72578e-14 0 0 0 0)
(-2.71051e-14 -1.3452e-15 0 -2.71051e-14 5.86046e-15 0 0 0 0)
(0 -2.68291e-15 0 -2.71051e-14 -2.05128e-15 0 0 0 0)
(0 6.43014e-15 0 0 2.27994e-15 0 0 0 0)
(5.42101e-14 1.07127e-14 0 -5.42101e-14 -1.16418e-15 0 0 0 0)
(-5.42101e-14 1.14666e-15 0 -2.71051e-14 5.51876e-15 0 0 0 0)
(2.30393e-12 -8.8646e-12 0 -2.24972e-12 -2.31722e-11 0 0 0 0)
(-3.00866e-12 1.08148e-11 0 5.14996e-13 5.19541e-12 0 0 0 0)
(7.58942e-13 -2.37622e-12 0 -1.0842e-13 -1.20875e-12 0 0 0 0)
(-1.0842e-13 5.65398e-13 0 -8.13152e-14 2.71097e-13 0 0 0 0)
(5.42101e-14 -1.18245e-13 0 -5.42101e-14 -6.32336e-14 0 0 0 0)
(0 1.22778e-14 0 2.71051e-14 2.746e-14 0 0 0 0)
(-5.42101e-14 -2.0351e-14 0 0 9.87015e-15 0 0 0 0)
(-2.71051e-14 4.5149e-16 0 8.13152e-14 3.71892e-15 0 0 0 0)
(2.71051e-14 -9.88244e-16 0 2.71051e-14 -1.06859e-15 0 0 0 0)
(0 -1.60413e-14 0 8.13152e-14 -1.00277e-14 0 0 0 0)
(0 -2.39237e-14 0 2.71051e-14 -3.08351e-14 0 0 0 0)
(5.42101e-14 1.78573e-15 0 5.42101e-14 -4.17923e-14 0 0 0 0)
(5.42101e-14 1.90649e-14 0 0 -1.84825e-14 0 0 0 0)
(-2.71051e-14 1.29987e-14 0 2.71051e-14 9.92819e-15 0 0 0 0)
(-2.71051e-14 -6.45444e-16 0 5.42101e-14 1.12531e-14 0 0 0 0)
(0 -1.60796e-14 0 5.42101e-14 1.80246e-15 0 0 0 0)
(0 -1.42738e-14 0 2.71051e-14 9.96893e-15 0 0 0 0)
(0 -2.08831e-16 0 0 1.72474e-14 0 0 0 0)
(-5.42101e-14 1.21251e-14 0 0 4.49794e-16 0 0 0 0)
(5.42101e-14 1.26397e-14 0 0 -1.22635e-14 0 0 0 0)
(-2.38524e-12 -2.99581e-12 0 -4.74338e-12 2.68031e-11 0 0 0 0)
(3.00866e-12 3.71873e-12 0 1.11131e-12 -5.9371e-12 0 0 0 0)
(-8.13152e-13 -8.82822e-13 0 -2.43945e-13 1.34994e-12 0 0 0 0)
(1.35525e-13 1.98539e-13 0 2.71051e-14 -3.32891e-13 0 0 0 0)
(-2.71051e-14 -4.79331e-14 0 -2.71051e-14 4.27603e-14 0 0 0 0)
(8.13152e-14 1.67749e-14 0 0 -4.39865e-14 0 0 0 0)
(5.42101e-14 5.42531e-16 0 -8.13152e-14 -1.47005e-14 0 0 0 0)
(0 8.69952e-15 0 0 -1.48571e-14 0 0 0 0)
(0 1.84225e-15 0 0 -9.48399e-15 0 0 0 0)
(0 -1.73566e-14 0 0 -5.00479e-15 0 0 0 0)
(0 -2.34732e-14 0 5.42101e-14 7.65973e-15 0 0 0 0)
(0 1.94868e-15 0 0 9.13726e-15 0 0 0 0)
(0 2.15274e-14 0 -1.0842e-13 -9.57594e-15 0 0 0 0)
(0 7.51748e-15 0 -2.71051e-14 -1.26029e-14 0 0 0 0)
(0 -9.92963e-15 0 0 -8.43311e-15 0 0 0 0)
(0 -2.62936e-15 0 -2.71051e-14 2.57116e-15 0 0 0 0)
(0 1.2762e-14 0 -2.71051e-14 2.66074e-14 0 0 0 0)
(-5.42101e-14 -3.08899e-15 0 0 2.77938e-14 0 0 0 0)
(2.71051e-14 -1.87981e-14 0 0 1.02026e-14 0 0 0 0)
(-2.71051e-14 1.29603e-14 0 2.71051e-14 -3.20524e-15 0 0 0 0)
(-1.32815e-12 1.20014e-11 0 8.0502e-12 -2.48184e-12 0 0 0 0)
(1.40946e-12 -1.46383e-11 0 -1.89735e-12 3.5966e-13 0 0 0 0)
(-2.98156e-13 3.22799e-12 0 3.52366e-13 -1.13857e-13 0 0 0 0)
(1.6263e-13 -7.41786e-13 0 -2.71051e-14 3.62567e-15 0 0 0 0)
(-2.71051e-14 1.70659e-13 0 2.71051e-14 -1.60232e-15 0 0 0 0)
(0 -4.51831e-14 0 0 -3.54828e-15 0 0 0 0)
(0 8.77836e-15 0 2.71051e-14 -4.06057e-15 0 0 0 0)
(0 5.66801e-15 0 0 -1.75139e-14 0 0 0 0)
(0 8.86409e-15 0 0 -2.95848e-14 0 0 0 0)
(0 1.10238e-15 0 0 -1.9226e-14 0 0 0 0)
(2.71051e-14 -9.78169e-15 0 -5.42101e-14 -8.06635e-17 0 0 0 0)
(-2.71051e-14 -1.54499e-14 0 -5.42101e-14 7.31969e-15 0 0 0 0)
(2.71051e-14 -2.67524e-15 0 0 -8.97501e-15 0 0 0 0)
(5.42101e-14 1.41416e-14 0 -8.13152e-14 -1.78208e-14 0 0 0 0)
(0 1.45286e-14 0 -1.0842e-13 -1.11453e-14 0 0 0 0)
(0 1.89609e-14 0 -8.13152e-14 5.35589e-15 0 0 0 0)
(-5.42101e-14 1.09489e-14 0 -5.42101e-14 5.68232e-15 0 0 0 0)
(5.42101e-14 -1.66136e-14 0 0 -1.43216e-14 0 0 0 0)
(0 -1.88739e-14 0 2.71051e-14 -3.89243e-15 0 0 0 0)
(0 5.64234e-15 0 -2.71051e-14 5.34876e-15 0 0 0 0)
(3.7405e-12 -5.11799e-12 0 -2.43945e-13 -2.52221e-11 0 0 0 0)
(-4.63496e-12 6.0867e-12 0 2.71051e-13 5.5634e-12 0 0 0 0)
(1.0571e-12 -1.23886e-12 0 2.1684e-13 -1.29823e-12 0 0 0 0)
(-2.1684e-13 3.10794e-13 0 1.0842e-13 2.96425e-13 0 0 0 0)
(8.13152e-14 -5.5107e-14 0 1.0842e-13 -8.04639e-14 0 0 0 0)
(0 1.43167e-14 0 1.0842e-13 1.02804e-14 0 0 0 0)
(2.71051e-14 -1.34231e-14 0 1.0842e-13 4.74702e-15 0 0 0 0)
(-2.71051e-14 -1.68247e-14 0 8.13152e-14 7.24964e-15 0 0 0 0)
(2.71051e-14 1.30145e-16 0 1.0842e-13 2.84509e-15 0 0 0 0)
(-2.71051e-14 1.21474e-14 0 5.42101e-14 4.89232e-15 0 0 0 0)
(-2.71051e-14 3.0725e-15 0 8.13152e-14 6.9825e-15 0 0 0 0)
(0 -6.94567e-15 0 1.0842e-13 1.48448e-14 0 0 0 0)
(-5.42101e-14 -3.61308e-15 0 1.0842e-13 2.1521e-14 0 0 0 0)
(-2.71051e-14 5.34719e-15 0 0 9.48471e-15 0 0 0 0)
(2.71051e-14 1.32471e-14 0 5.42101e-14 -7.81773e-15 0 0 0 0)
(0 1.41983e-14 0 5.42101e-14 -9.38891e-15 0 0 0 0)
(5.42101e-14 -6.91554e-15 0 5.42101e-14 -1.98924e-14 0 0 0 0)
(2.71051e-14 -1.26637e-14 0 0 -1.67101e-14 0 0 0 0)
(-2.71051e-14 8.72239e-16 0 -2.71051e-14 -2.9251e-15 0 0 0 0)
(0 1.1504e-14 0 2.71051e-14 2.172e-15 0 0 0 0)
(-1.24683e-12 -7.65736e-12 0 -3.00866e-12 1.62186e-11 0 0 0 0)
(1.87025e-12 9.2856e-12 0 5.69206e-13 -3.4433e-12 0 0 0 0)
(-4.87891e-13 -2.03898e-12 0 -2.71051e-13 8.4634e-13 0 0 0 0)
(2.71051e-14 4.75983e-13 0 -2.71051e-14 -1.65466e-13 0 0 0 0)
(-5.42101e-14 -1.15486e-13 0 -5.42101e-14 5.95635e-14 0 0 0 0)
(-2.71051e-14 4.00279e-14 0 -5.42101e-14 5.12753e-15 0 0 0 0)
(0 5.74759e-15 0 -5.42101e-14 5.21887e-15 0 0 0 0)
(0 3.76609e-15 0 -8.13152e-14 1.2803e-14 0 0 0 0)
(-2.71051e-14 6.50678e-15 0 -5.42101e-14 1.82775e-14 0 0 0 0)
(0 5.23978e-15 0 -5.42101e-14 6.16609e-15 0 0 0 0)
(2.71051e-14 1.70795e-16 0 -2.71051e-14 8.90225e-16 0 0 0 0)
(-2.71051e-14 -9.11418e-16 0 -5.42101e-14 2.9228e-15 0 0 0 0)
(0 -8.03534e-15 0 -5.42101e-14 8.74731e-15 0 0 0 0)
(0 -1.51972e-14 0 5.42101e-14 1.45712e-14 0 0 0 0)
(0 -4.34504e-15 0 0 1.85973e-14 0 0 0 0)
(-5.42101e-14 6.88628e-15 0 0 5.66919e-15 0 0 0 0)
(0 3.6277e-15 0 0 -2.48723e-15 0 0 0 0)
(0 3.53653e-16 0 0 8.95704e-15 0 0 0 0)
(2.71051e-14 8.20429e-18 0 0 9.82286e-15 0 0 0 0)
(-2.71051e-14 6.39544e-15 0 -2.71051e-14 8.07659e-15 0 0 0 0)
)
;

boundaryField
{
    movingWall
    {
        type            extrapolatedCalculated;
        value           nonuniform List<tensor> 
20
(
(-1.24683e-12 -7.65736e-12 0 7.37188e-12 3.922e-11 0 0 0 0)
(1.87025e-12 9.2856e-12 0 -2.30926e-12 -8.59055e-12 0 0 0 0)
(-4.87891e-13 -2.03898e-12 0 -1.77636e-13 2.0776e-12 0 0 0 0)
(2.71051e-14 4.75983e-13 0 -3.55271e-13 -4.34644e-13 0 0 0 0)
(-5.42101e-14 -1.15486e-13 0 -2.66454e-13 1.73664e-13 0 0 0 0)
(-2.71051e-14 4.00279e-14 0 -2.22045e-13 2.73009e-14 0 0 0 0)
(0 5.74759e-15 0 -8.88178e-14 1.35523e-14 0 0 0 0)
(0 3.76609e-15 0 -2.66454e-13 4.31059e-15 0 0 0 0)
(-2.71051e-14 6.50678e-15 0 -1.33227e-13 -1.51205e-15 0 0 0 0)
(0 5.23978e-15 0 -1.33227e-13 -2.17165e-14 0 0 0 0)
(2.71051e-14 1.70795e-16 0 -1.77636e-13 -2.24712e-14 0 0 0 0)
(-2.71051e-14 -9.11418e-16 0 -1.33227e-13 -2.23997e-14 0 0 0 0)
(0 -8.03534e-15 0 -1.77636e-13 -1.88255e-14 0 0 0 0)
(0 -1.51972e-14 0 -4.44089e-14 9.74166e-15 0 0 0 0)
(0 -4.34504e-15 0 -8.88178e-14 4.19633e-14 0 0 0 0)
(-5.42101e-14 6.88628e-15 0 -4.44089e-14 2.71218e-14 0 0 0 0)
(0 3.6277e-15 0 0 1.44182e-14 0 0 0 0)
(0 3.53653e-16 0 0 1.2611e-14 0 0 0 0)
(2.71051e-14 8.20429e-18 0 0 1.30036e-14 0 0 0 0)
(-2.71051e-14 6.39544e-15 0 -4.44089e-14 1.25782e-14 0 0 0 0)
)
;
    }
    fixedWalls
    {
        type            extrapolatedCalculated;
        value           nonuniform List<tensor> 
60
(
(-7.01661e-12 7.54819e-11 0 1.19262e-12 1.88642e-11 0 0 0 0)
(1.18572e-11 -2.52334e-14 0 1.51788e-12 -3.56744e-11 0 0 0 0)
(-1.06581e-12 -6.72158e-11 0 -6.09864e-12 1.47745e-11 0 0 0 0)
(-1.24345e-11 5.90726e-11 0 3.79471e-12 1.55381e-11 0 0 0 0)
(1.40332e-11 -5.06347e-12 0 8.40257e-13 -2.82035e-11 0 0 0 0)
(-9.05942e-12 -5.37413e-11 0 -2.92735e-12 2.00229e-11 0 0 0 0)
(2.26485e-12 7.50282e-11 0 3.38813e-12 5.50232e-12 0 0 0 0)
(4.57412e-12 -3.1732e-11 0 -2.6834e-12 -2.65588e-11 0 0 0 0)
(-8.43769e-12 -3.12071e-11 0 -1.35525e-13 2.63813e-11 0 0 0 0)
(4.08562e-12 7.3793e-11 0 2.1684e-12 -1.17482e-11 0 0 0 0)
(8.88178e-14 -7.82e-11 0 -2.03288e-12 -7.0665e-12 0 0 0 0)
(-3.9968e-12 4.5527e-11 0 7.04731e-13 2.1527e-11 0 0 0 0)
(2.9754e-12 7.90795e-12 0 4.60786e-13 -2.53563e-11 0 0 0 0)
(-2.22045e-12 -5.58983e-11 0 -1.65341e-12 1.72634e-11 0 0 0 0)
(-3.64153e-12 7.69617e-11 0 3.65918e-12 2.58863e-12 0 0 0 0)
(1.24345e-11 -4.55438e-11 0 -2.24972e-12 -2.31722e-11 0 0 0 0)
(-1.26121e-11 -1.57272e-11 0 -4.74338e-12 2.68031e-11 0 0 0 0)
(-6.4837e-12 6.16685e-11 0 8.0502e-12 -2.48184e-12 0 0 0 0)
(1.94511e-11 -2.56546e-11 0 -2.43945e-13 -2.52221e-11 0 0 0 0)
(-7.37188e-12 -3.922e-11 0 -3.00866e-12 1.62186e-11 0 0 0 0)
(0 1.1309e-14 0 0 -9.72558e-15 0 0 0 0)
(8.88178e-14 2.75934e-14 0 0 -7.99539e-15 0 0 0 0)
(0 4.32905e-14 0 0 -4.70144e-15 0 0 0 0)
(0 4.63991e-14 0 0 7.51554e-15 0 0 0 0)
(-4.44089e-14 1.32284e-14 0 2.71051e-14 1.65976e-14 0 0 0 0)
(-4.44089e-14 -1.99913e-14 0 0 1.15381e-14 0 0 0 0)
(-4.44089e-14 -3.29242e-14 0 0 3.19522e-17 0 0 0 0)
(0 -2.01191e-14 0 -2.71051e-14 -3.83374e-15 0 0 0 0)
(0 -1.75892e-14 0 0 -1.83139e-15 0 0 0 0)
(0 -1.27936e-14 0 0 -2.91586e-15 0 0 0 0)
(0 -5.92579e-15 0 0 9.23052e-16 0 0 0 0)
(0 -1.64858e-14 0 0 -4.74145e-15 0 0 0 0)
(8.88178e-14 1.304e-14 0 0 -1.17515e-14 0 0 0 0)
(-4.44089e-14 3.05203e-14 0 2.71051e-14 5.24268e-15 0 0 0 0)
(-8.88178e-14 -7.9307e-15 0 -2.71051e-14 5.51876e-15 0 0 0 0)
(8.88178e-14 8.44527e-15 0 0 -1.22635e-14 0 0 0 0)
(-4.44089e-14 4.11232e-14 0 2.71051e-14 -3.20524e-15 0 0 0 0)
(0 2.12662e-14 0 -2.71051e-14 5.34876e-15 0 0 0 0)
(0 1.97282e-14 0 2.71051e-14 2.172e-15 0 0 0 0)
(-4.44089e-14 1.25782e-14 0 -2.71051e-14 8.07659e-15 0 0 0 0)
(-1.16552e-12 1.4843e-11 0 -7.01661e-12 7.54819e-11 0 0 0 0)
(1.84314e-12 -1.79026e-11 0 2.39808e-12 -1.611e-11 0 0 0 0)
(-4.87891e-13 3.84098e-12 0 3.55271e-13 3.87136e-12 0 0 0 0)
(0 -9.02857e-13 0 3.9968e-13 -7.4606e-13 0 0 0 0)
(0 1.91784e-13 0 3.10862e-13 2.59931e-13 0 0 0 0)
(-5.42101e-14 -5.23893e-14 0 3.55271e-13 2.10759e-14 0 0 0 0)
(-2.71051e-14 -1.12619e-15 0 2.22045e-13 5.03738e-14 0 0 0 0)
(-2.71051e-14 -1.25809e-14 0 2.22045e-13 1.65711e-14 0 0 0 0)
(-2.71051e-14 -2.78149e-15 0 8.88178e-14 5.01231e-17 0 0 0 0)
(5.42101e-14 9.72004e-16 0 2.22045e-13 5.44517e-15 0 0 0 0)
(0 9.31022e-16 0 2.22045e-13 3.93814e-15 0 0 0 0)
(-2.71051e-14 3.40939e-15 0 1.77636e-13 9.16926e-15 0 0 0 0)
(-2.71051e-14 5.62082e-15 0 1.33227e-13 1.75757e-14 0 0 0 0)
(-5.42101e-14 -2.67298e-15 0 4.44089e-14 3.16525e-14 0 0 0 0)
(0 -1.49024e-14 0 -8.88178e-14 6.88377e-15 0 0 0 0)
(2.71051e-14 4.60948e-16 0 4.44089e-14 -2.7957e-14 0 0 0 0)
(-2.71051e-14 1.74675e-14 0 0 8.72756e-15 0 0 0 0)
(2.71051e-14 2.16392e-15 0 4.44089e-14 4.19129e-14 0 0 0 0)
(-2.71051e-14 -1.33055e-14 0 0 1.73833e-14 0 0 0 0)
(0 -1.51857e-15 0 0 -1.1309e-14 0 0 0 0)
)
;
    }
    frontAndBack
    {
        type            empty;
    }
}


// ************************************************************************* //
