/*--------------------------------*- C++ -*----------------------------------*\
| =========                 |                                                 |
| \\      /  F ield         | OpenFOAM: The Open Source CFD Toolbox           |
|  \\    /   O peration     | Version:  2506                                  |
|   \\  /    A nd           | Website:  www.openfoam.com                      |
|    \\/     M anipulation  |                                                 |
\*---------------------------------------------------------------------------*/
FoamFile
{
    version     2.0;
    format      ascii;
    arch        "LSB;label=32;scalar=64";
    class       volVectorField;
    location    "9.875";
    object      LambVectorField;
}
// * * * * * * * * * * * * * * * * * * * * * * * * * * * * * * * * * * * * * //

dimensions      [0 1 -2 0 0 0 0];

internalField   nonuniform List<vector> 
400
(
(-2.57589e-24 -1.36504e-11 0)
(-7.07928e-25 1.75774e-11 -0)
(-3.63876e-26 -3.75967e-12 0)
(-1.83563e-27 9.84173e-13 -0)
(-5.41721e-29 -8.33639e-14 0)
(7.04486e-30 1.33704e-13 0)
(3.55529e-30 2.82312e-14 0)
(2.76701e-30 6.6791e-14 0)
(3.48542e-34 2.78149e-15 0)
(7.24726e-31 5.32381e-14 0)
(5.24551e-31 5.32791e-14 0)
(5.43179e-31 2.36957e-14 0)
(-2.46974e-31 -5.62082e-15 0)
(-4.0782e-30 -5.15371e-14 0)
(-1.14293e-30 -6.64128e-14 0)
(3.22168e-32 -4.60948e-16 -0)
(-1.56393e-30 -7.16776e-14 0)
(-5.907e-30 -5.6374e-14 0)
(5.78231e-31 1.33055e-14 0)
(-4.29337e-32 1.51857e-15 -0)
(-9.70005e-29 1.53765e-12 -0)
(5.10672e-29 -3.7946e-13 -0)
(4.15281e-31 -6.57167e-15 -0)
(8.03852e-30 -1.16734e-13 -0)
(-2.01615e-30 -1.01099e-13 0)
(-1.22049e-29 -9.46311e-14 0)
(-1.16535e-29 -7.61158e-14 0)
(-7.22922e-30 -9.39108e-14 0)
(-5.56436e-31 -6.94857e-14 0)
(4.41538e-30 -1.06871e-13 -0)
(5.20765e-31 -6.95464e-14 -0)
(-1.11038e-29 -9.90988e-14 0)
(-1.53842e-29 -9.03103e-14 0)
(-1.47119e-29 -7.28314e-14 0)
(4.28611e-30 5.01231e-14 0)
(-1.37503e-31 4.87926e-15 -0)
(-1.61375e-31 -4.39488e-15 0)
(1.1824e-31 7.49889e-15 0)
(-3.24342e-31 8.4751e-15 -0)
(7.3987e-31 -1.07253e-14 -0)
(-1.18174e-24 7.03249e-12 -0)
(-5.26809e-25 -1.43435e-11 0)
(-2.79899e-26 3.24977e-12 -0)
(-1.78147e-27 -8.63954e-13 0)
(-2.1617e-29 8.84589e-14 -0)
(-4.81035e-29 -1.3206e-13 0)
(2.23388e-29 8.49131e-14 0)
(5.25423e-30 9.18177e-14 0)
(-1.144e-29 1.01241e-13 -0)
(1.28573e-30 -9.05214e-15 -0)
(1.8529e-30 -8.24399e-14 -0)
(-6.68089e-30 -4.76315e-14 0)
(6.55101e-31 3.58393e-15 0)
(1.08207e-29 1.03624e-13 0)
(-2.64883e-30 6.57272e-14 -0)
(-8.07816e-34 7.51581e-17 -0)
(-2.42165e-30 5.89898e-14 -0)
(-3.41745e-30 5.83733e-14 -0)
(-2.65194e-30 3.20732e-14 -0)
(2.06615e-30 -1.9091e-14 -0)
(-1.15897e-24 -7.84778e-12 0)
(-4.02096e-25 1.28644e-11 -0)
(-2.24694e-26 -2.93586e-12 0)
(-9.97476e-28 7.35696e-13 -0)
(-6.81238e-29 -1.20035e-13 0)
(7.42686e-30 6.42577e-14 0)
(9.65193e-30 4.92433e-14 0)
(1.10371e-29 6.67912e-14 0)
(4.74842e-30 6.76467e-14 0)
(3.54271e-30 1.14719e-13 0)
(6.01853e-31 8.35349e-14 0)
(9.43869e-31 1.08692e-13 0)
(3.54793e-31 7.91493e-14 0)
(2.64928e-30 8.73133e-14 0)
(-4.94924e-31 8.91774e-15 -0)
(-1.87039e-30 3.17904e-14 -0)
(2.23135e-31 -2.18007e-15 -0)
(4.96402e-32 -1.34038e-15 -0)
(-7.02365e-31 7.89633e-15 -0)
(2.37733e-30 -2.04946e-14 -0)
(-2.37539e-26 1.87649e-12 -0)
(-2.74184e-27 -1.194e-12 0)
(-1.95419e-28 4.36549e-13 -0)
(9.67734e-30 9.74923e-14 0)
(-8.65066e-30 1.28509e-13 -0)
(-1.40249e-29 1.38003e-13 -0)
(-6.79528e-31 7.3789e-15 -0)
(2.77857e-30 2.90543e-14 0)
(3.73343e-30 2.34119e-14 0)
(1.19152e-29 8.98821e-14 0)
(4.50997e-30 6.11124e-14 0)
(1.94413e-30 3.05958e-14 0)
(2.09347e-30 5.383e-14 0)
(1.83452e-30 2.72412e-14 0)
(4.28691e-31 1.1423e-14 0)
(-1.72473e-30 3.67852e-14 -0)
(-3.64532e-30 6.15009e-14 -0)
(-7.45121e-30 6.22001e-14 -0)
(4.97923e-30 -3.57774e-14 -0)
(-3.26764e-31 9.88072e-15 -0)
(-1.01315e-24 7.54098e-12 -0)
(-3.54979e-25 -1.19643e-11 0)
(-1.82297e-26 2.77109e-12 -0)
(-1.11581e-27 -6.61066e-13 0)
(-4.68126e-29 1.95926e-13 -0)
(1.18235e-32 -3.75016e-14 -0)
(6.5388e-30 -4.84483e-14 -0)
(7.32343e-30 -1.26411e-13 -0)
(-4.56558e-30 -1.01577e-13 0)
(-2.13929e-29 -1.47855e-13 0)
(-1.45184e-29 -8.62913e-14 0)
(-1.10793e-29 -5.6978e-14 0)
(1.9096e-30 9.74647e-15 0)
(2.44542e-30 2.52147e-14 0)
(-4.15955e-30 7.39884e-14 -0)
(2.09333e-31 -2.07673e-15 -0)
(2.22141e-31 -6.26604e-15 -0)
(2.72035e-31 -7.13278e-15 -0)
(-3.1613e-31 -8.81169e-15 0)
(4.29085e-31 8.58544e-15 0)
(-2.13105e-24 -1.13613e-11 0)
(-6.62709e-25 1.65363e-11 -0)
(-3.86762e-26 -3.97102e-12 0)
(-1.54865e-27 7.77328e-13 -0)
(-2.2325e-28 -3.65337e-13 0)
(-2.9766e-30 -8.55343e-14 0)
(-1.84662e-29 -1.66109e-13 0)
(-1.33638e-29 -1.92051e-13 0)
(-1.1759e-29 -8.75445e-14 0)
(-1.76407e-29 -1.33765e-13 0)
(-9.341e-30 -8.00282e-14 0)
(-6.02968e-30 -5.06657e-14 0)
(-8.28728e-30 -1.01964e-13 0)
(-5.35149e-30 -9.8296e-14 0)
(9.25768e-31 -4.63695e-14 -0)
(1.40899e-30 -5.87962e-14 -0)
(-3.10668e-30 -1.1997e-13 0)
(-1.11288e-29 -1.21583e-13 0)
(-8.39414e-30 -5.32879e-14 0)
(1.97409e-30 2.39835e-14 0)
(-2.73668e-25 3.44975e-12 -0)
(-1.23526e-25 -6.86312e-12 0)
(-5.9599e-27 1.51942e-12 -0)
(-4.69878e-28 -3.98868e-13 0)
(-2.21974e-30 -3.35316e-14 0)
(-3.12677e-29 -7.2861e-14 0)
(2.33622e-29 9.24475e-14 0)
(7.87249e-30 1.6833e-13 0)
(-7.82541e-30 1.03869e-13 -0)
(-1.59585e-29 8.92684e-14 -0)
(-2.99926e-30 1.93661e-14 -0)
(-5.46031e-30 5.38598e-14 -0)
(-1.74407e-29 1.1522e-13 -0)
(-7.37655e-30 4.35504e-14 -0)
(3.22015e-30 -7.19232e-14 -0)
(-7.86781e-32 -1.01497e-14 0)
(-1.69432e-31 -2.98692e-15 0)
(1.69491e-31 4.50522e-15 0)
(6.17973e-31 5.29424e-14 0)
(-1.05163e-30 -2.0908e-14 0)
(-4.63706e-25 5.9436e-12 -0)
(-1.23664e-25 -7.17869e-12 0)
(-6.91744e-27 1.82452e-12 -0)
(-3.98844e-28 -3.46914e-13 0)
(-1.24089e-29 2.42416e-13 -0)
(1.10929e-29 1.37314e-13 0)
(-8.58425e-30 1.24264e-13 -0)
(-6.46547e-30 8.32559e-14 -0)
(-6.23777e-30 7.04933e-14 -0)
(-2.9934e-29 1.24471e-13 -0)
(3.5952e-30 -1.44389e-14 -0)
(7.32709e-30 -7.62436e-14 -0)
(1.64172e-30 -5.72839e-14 -0)
(2.15107e-31 -3.29097e-15 -0)
(2.10548e-31 4.95371e-14 0)
(-5.02507e-31 2.69697e-14 -0)
(4.39988e-31 7.85184e-14 0)
(4.81403e-31 5.15672e-14 0)
(7.57288e-31 2.36413e-14 0)
(3.34219e-31 7.60055e-15 0)
(-2.26263e-24 -1.22647e-11 0)
(-6.77791e-25 1.6881e-11 -0)
(-3.63229e-26 -3.74101e-12 0)
(-2.10051e-27 1.08959e-12 -0)
(-9.34716e-30 -2.12545e-14 0)
(-7.37177e-29 2.04772e-13 -0)
(-1.37937e-30 5.45864e-15 -0)
(-3.4635e-31 2.413e-15 -0)
(4.87298e-32 -8.43808e-15 -0)
(-2.02553e-30 3.42417e-14 -0)
(-4.56231e-30 5.91422e-14 -0)
(-9.39785e-30 8.66359e-14 -0)
(-2.04945e-31 1.57229e-15 -0)
(7.35717e-30 -5.92373e-14 -0)
(5.36952e-30 -6.70551e-14 -0)
(-3.92625e-31 -9.23481e-14 0)
(-2.66999e-30 -8.82543e-14 0)
(-6.67611e-30 -9.06549e-14 0)
(-2.83645e-30 -2.29391e-14 0)
(4.97781e-31 1.55635e-14 0)
(-2.57083e-24 1.315e-11 -0)
(-7.81751e-25 -1.79009e-11 0)
(-4.17465e-26 4.18052e-12 -0)
(-2.23819e-27 -9.2949e-13 0)
(-1.29732e-28 3.08877e-13 -0)
(-1.58275e-30 -1.19584e-14 0)
(-1.48747e-30 5.06336e-14 -0)
(-6.47457e-30 6.29021e-14 -0)
(-2.26928e-30 1.95127e-14 -0)
(1.90421e-31 -7.05069e-15 -0)
(-4.42231e-30 9.65767e-14 -0)
(-5.97899e-30 3.32864e-14 -0)
(-4.01709e-30 3.7332e-14 -0)
(-5.05664e-31 4.6641e-14 -0)
(-1.87175e-30 5.86517e-14 -0)
(-3.21042e-30 5.80987e-14 -0)
(-3.97258e-30 5.61105e-14 -0)
(-1.79227e-30 2.41343e-14 -0)
(-7.4777e-31 1.81974e-14 -0)
(-3.8929e-32 -2.62777e-15 0)
(-9.25724e-25 -8.1334e-12 0)
(-2.65621e-25 1.04426e-11 -0)
(-1.52765e-26 -2.60356e-12 0)
(-5.3353e-28 4.11049e-13 -0)
(-9.75337e-29 -2.42745e-13 0)
(-4.71754e-30 -1.04203e-13 0)
(-1.27606e-30 -1.44062e-14 0)
(3.24962e-30 -3.97673e-14 -0)
(8.33137e-30 -1.4917e-13 -0)
(-3.78703e-30 -6.91936e-14 0)
(-2.34286e-30 -2.49283e-14 0)
(-1.90742e-30 -5.78639e-14 0)
(-1.67613e-29 -1.28418e-13 0)
(-1.26967e-29 -5.45069e-14 0)
(4.13303e-30 3.09614e-14 0)
(-3.85428e-30 5.02674e-14 -0)
(5.85959e-30 -5.97102e-14 -0)
(-1.02909e-30 4.74792e-14 -0)
(1.02936e-30 -3.3394e-14 -0)
(4.28211e-32 1.03898e-15 0)
(-2.10119e-26 -1.06282e-12 0)
(-8.17454e-27 1.80303e-12 -0)
(-3.84089e-28 -4.14613e-13 0)
(-1.74347e-29 4.49759e-14 -0)
(6.0643e-30 -9.26124e-14 -0)
(1.43498e-31 -3.96198e-14 -0)
(-2.00177e-30 -3.35493e-14 0)
(-2.83089e-30 -4.65452e-14 0)
(-1.15613e-31 6.80789e-15 -0)
(2.65447e-31 -3.65697e-14 -0)
(-3.31057e-30 -4.26267e-14 0)
(-1.61286e-31 -1.09009e-15 0)
(1.1041e-30 1.24665e-14 0)
(3.02766e-31 1.29983e-14 0)
(-2.42993e-31 5.86682e-15 -0)
(6.36245e-32 -1.79854e-15 -0)
(-7.41769e-32 3.16552e-15 -0)
(-3.01513e-31 4.49812e-15 -0)
(2.35554e-31 -3.44307e-15 -0)
(3.29306e-31 -1.01014e-14 -0)
(-1.29453e-24 9.26349e-12 -0)
(-3.86079e-25 -1.26266e-11 0)
(-2.18784e-26 3.01937e-12 -0)
(-8.27429e-28 -5.63931e-13 0)
(-7.55172e-29 1.44532e-13 -0)
(-2.44386e-30 -1.11443e-13 0)
(-1.90241e-30 -3.81734e-14 0)
(-6.10975e-30 -4.60723e-14 0)
(-3.19903e-30 1.01422e-13 -0)
(8.52759e-31 -1.24578e-14 -0)
(-6.09237e-30 -6.54839e-14 0)
(-4.36324e-30 -1.38367e-14 0)
(2.58238e-29 1.11597e-13 0)
(1.45202e-30 1.15953e-13 0)
(-7.04649e-30 6.12855e-14 -0)
(1.8806e-31 -3.22953e-15 -0)
(-7.60752e-30 9.20084e-14 -0)
(-1.81008e-31 1.09593e-15 -0)
(-4.24422e-30 4.53238e-14 -0)
(-7.71459e-31 1.01108e-14 -0)
(-2.17837e-24 -1.13218e-11 0)
(-7.29784e-25 1.71335e-11 -0)
(-4.02399e-26 -4.04149e-12 0)
(-1.94551e-27 8.92771e-13 -0)
(-9.52852e-29 -1.95704e-13 0)
(-6.49178e-30 2.92238e-14 -0)
(1.85536e-30 -2.42836e-14 -0)
(-9.67403e-31 -4.67433e-14 0)
(-1.48785e-29 -1.24009e-13 0)
(-1.65504e-29 -9.3725e-14 0)
(-2.18709e-29 -8.96065e-14 0)
(-1.13677e-29 -4.38062e-14 0)
(8.02394e-30 5.72981e-14 0)
(-9.42758e-31 2.22181e-14 -0)
(4.30479e-30 -5.24062e-14 -0)
(1.55772e-30 -2.57598e-14 -0)
(2.33463e-30 -2.44221e-14 -0)
(5.61352e-31 -6.43014e-15 -0)
(2.03165e-30 -6.49228e-14 -0)
(-5.6014e-31 -2.82517e-14 0)
(-7.53166e-25 6.61488e-12 -0)
(-2.59695e-25 -1.02998e-11 0)
(-1.29516e-26 2.2678e-12 -0)
(-9.38551e-28 -6.46713e-13 0)
(-3.65793e-30 6.40354e-14 -0)
(3.9857e-30 1.48273e-14 0)
(1.33613e-30 2.0351e-14 0)
(5.28027e-30 8.08637e-14 0)
(1.97128e-30 2.80933e-14 0)
(5.3951e-30 9.73565e-14 0)
(-4.60506e-30 5.10288e-14 -0)
(-9.63673e-30 5.24244e-14 -0)
(1.38005e-30 -1.90649e-14 -0)
(9.63112e-32 1.41063e-14 0)
(3.15969e-30 5.48556e-14 0)
(2.62231e-32 7.02897e-14 0)
(-4.27011e-30 4.13788e-14 -0)
(-2.97301e-32 2.08831e-16 -0)
(1.27658e-30 -1.21251e-14 -0)
(2.66865e-31 -1.26397e-14 -0)
(6.87113e-26 -1.74757e-12 -0)
(-2.44055e-26 -2.60742e-12 0)
(-1.36134e-27 6.38876e-13 -0)
(-9.11669e-29 -1.71434e-13 0)
(-3.02947e-30 2.0828e-14 -0)
(-8.80011e-31 -1.67749e-14 0)
(-1.82524e-30 -8.18577e-14 0)
(-5.03574e-31 -8.69952e-15 0)
(-2.01344e-31 -1.84225e-15 0)
(1.32445e-30 1.73566e-14 0)
(-4.99298e-30 7.76833e-14 -0)
(3.08719e-31 -1.94868e-15 -0)
(5.81993e-30 -1.29948e-13 -0)
(-1.96829e-30 -3.46225e-14 0)
(3.01742e-31 9.92963e-15 0)
(1.0389e-30 -2.44757e-14 -0)
(-1.63237e-31 -3.9867e-14 0)
(2.631e-31 3.08899e-15 0)
(-5.03704e-31 1.87981e-14 -0)
(-1.45419e-30 1.41447e-14 -0)
(-6.09155e-25 -3.95116e-12 0)
(-4.35199e-25 1.27409e-11 -0)
(-2.23964e-26 -2.87563e-12 0)
(-1.34192e-27 7.14681e-13 -0)
(-5.31837e-29 -1.43554e-13 0)
(-7.72885e-30 4.51831e-14 -0)
(-1.49089e-30 1.83267e-14 -0)
(4.71991e-31 -5.66801e-15 -0)
(2.18684e-31 -8.86409e-15 -0)
(-5.91766e-33 -1.10238e-15 0)
(6.06316e-31 -4.44284e-14 -0)
(3.58333e-30 -3.87602e-14 -0)
(-4.49833e-31 2.67524e-15 -0)
(1.13786e-29 -9.54567e-14 -0)
(3.28653e-30 -1.22949e-13 -0)
(-2.61566e-30 -1.00276e-13 0)
(-1.0613e-29 -6.5159e-14 0)
(2.25237e-30 1.66136e-14 0)
(-1.49794e-31 4.5979e-14 -0)
(1.74103e-30 -3.27474e-14 -0)
(-3.12604e-25 4.87404e-12 -0)
(-7.53511e-26 -5.81565e-12 0)
(-4.75927e-27 1.4557e-12 -0)
(-1.14958e-28 -2.02374e-13 0)
(-2.64055e-29 1.63527e-13 -0)
(1.5976e-30 9.41035e-14 0)
(-2.23071e-30 1.21843e-13 -0)
(-1.15073e-29 9.81398e-14 -0)
(-2.0202e-29 1.0829e-13 -0)
(-4.87726e-30 4.20627e-14 -0)
(-5.09205e-30 7.82427e-14 -0)
(-9.83232e-30 1.15366e-13 -0)
(-1.50726e-29 1.12033e-13 -0)
(6.48925e-31 -5.34719e-15 -0)
(-3.32067e-30 4.0963e-14 -0)
(4.44636e-31 4.00118e-14 0)
(3.72364e-30 6.11256e-14 0)
(-7.35039e-31 1.26637e-14 -0)
(1.83866e-30 -2.79773e-14 -0)
(-7.6945e-31 1.5601e-14 -0)
(-4.55805e-25 4.6487e-12 -0)
(-1.87197e-25 -8.7164e-12 0)
(-9.18259e-27 1.76793e-12 -0)
(-5.4666e-28 -5.03088e-13 0)
(-2.66036e-29 6.12761e-14 -0)
(6.43196e-30 -9.4238e-14 -0)
(2.03141e-30 -5.99577e-14 -0)
(9.16877e-31 -8.50813e-14 -0)
(-2.29517e-31 -6.07169e-14 0)
(-3.22761e-30 -5.94499e-14 0)
(-1.5323e-30 -2.72758e-14 0)
(-2.98469e-30 -5.32987e-14 0)
(-2.17316e-30 -4.61748e-14 0)
(-1.69036e-30 6.94073e-14 -0)
(-4.5583e-31 4.34504e-15 -0)
(4.66921e-31 -6.88628e-15 -0)
(1.30762e-31 -3.6277e-15 -0)
(1.11498e-32 -3.53653e-16 -0)
(2.66712e-34 -8.20429e-18 -0)
(1.05344e-30 -3.35005e-14 -0)
)
;

boundaryField
{
    movingWall
    {
        type            calculated;
        value           nonuniform List<vector> 
20
(
(0 1.50292e-11 -0)
(0 -1.15949e-11 -0)
(0 1.86134e-12 -0)
(0 -8.31254e-13 -0)
(0 -1.50967e-13 -0)
(0 -2.62073e-13 -0)
(0 -9.45654e-14 -0)
(0 -2.7022e-13 -0)
(0 -1.39734e-13 -0)
(0 -1.38467e-13 -0)
(0 -1.77806e-13 -0)
(0 -1.32315e-13 -0)
(0 -1.696e-13 -0)
(0 -2.92117e-14 -0)
(0 -8.44728e-14 -0)
(0 -5.12952e-14 -0)
(0 -3.6277e-15 -0)
(0 -3.53653e-16 -0)
(0 -8.20429e-18 -0)
(0 -5.08044e-14 -0)
)
;
    }
    fixedWalls
    {
        type            calculated;
        value           nonuniform List<vector> 
60
(
(0 -7.42893e-11 -0)
(0 1.54312e-12 -0)
(0 6.11171e-11 -0)
(0 -5.52779e-11 -0)
(0 5.90373e-12 -0)
(0 5.08139e-11 -0)
(0 -7.16401e-11 -0)
(0 2.90486e-11 -0)
(0 3.10716e-11 -0)
(0 -7.16246e-11 -0)
(0 7.61671e-11 -0)
(0 -4.48223e-11 -0)
(0 -7.44716e-12 -0)
(0 5.42449e-11 -0)
(0 -7.33025e-11 -0)
(0 4.32941e-11 -0)
(0 1.09839e-11 -0)
(0 -5.36183e-11 -0)
(0 2.54106e-11 -0)
(0 3.62113e-11 -0)
(0 -1.1309e-14 -0)
(0 -2.75934e-14 -0)
(0 -4.32905e-14 -0)
(0 -4.63991e-14 -0)
(0 1.38767e-14 -0)
(0 1.99913e-14 -0)
(0 3.29242e-14 -0)
(0 -6.98595e-15 -0)
(0 1.75892e-14 -0)
(0 1.27936e-14 -0)
(0 5.92579e-15 -0)
(0 1.64858e-14 -0)
(0 -1.304e-14 -0)
(0 -3.41526e-15 -0)
(0 -1.91744e-14 -0)
(0 -8.44527e-15 -0)
(0 -1.40181e-14 -0)
(0 -4.83713e-14 -0)
(0 7.37689e-15 -0)
(0 -3.96833e-14 -0)
(0 -2.18596e-11 -0)
(0 2.03007e-11 -0)
(0 -3.48571e-12 -0)
(0 1.30254e-12 -0)
(0 1.19078e-13 -0)
(0 4.07661e-13 -0)
(0 2.23171e-13 -0)
(0 2.34626e-13 -0)
(0 9.15993e-14 -0)
(0 2.21073e-13 -0)
(0 2.21114e-13 -0)
(0 1.74226e-13 -0)
(0 1.27606e-13 -0)
(0 4.70819e-14 -0)
(0 -7.39155e-14 -0)
(0 4.3948e-14 -0)
(0 -1.74675e-14 -0)
(0 4.2245e-14 -0)
(0 1.33055e-14 -0)
(0 1.51857e-15 -0)
)
;
    }
    frontAndBack
    {
        type            empty;
    }
}


// ************************************************************************* //
