/*--------------------------------*- C++ -*----------------------------------*\
| =========                 |                                                 |
| \\      /  F ield         | OpenFOAM: The Open Source CFD Toolbox           |
|  \\    /   O peration     | Version:  2506                                  |
|   \\  /    A nd           | Website:  www.openfoam.com                      |
|    \\/     M anipulation  |                                                 |
\*---------------------------------------------------------------------------*/
FoamFile
{
    version     2.0;
    format      ascii;
    arch        "LSB;label=32;scalar=64";
    class       volScalarField;
    location    "9.875";
    object      Lambda2Field;
}
// * * * * * * * * * * * * * * * * * * * * * * * * * * * * * * * * * * * * * //

dimensions      [0 0 -2 0 0 0 0];

internalField   nonuniform List<scalar> 
400
(
1.90605e-23
9.2202e-24
5.50368e-25
-3.60119e-26
2.07933e-26
-1.32131e-27
7.04158e-28
0
6.61495e-31
6.03666e-29
5.04708e-29
2.74584e-28
4.59193e-28
9.35248e-28
1.21179e-27
9.61845e-29
-2.1223e-28
2.80164e-29
2.69164e-31
0
4.21353e-24
8.72878e-24
7.52316e-25
0
1.33003e-27
0
6.10874e-28
1.57561e-27
1.08988e-27
4.10272e-28
-8.20937e-28
0
-5.38652e-28
6.96251e-28
0
0
3.95275e-29
2.66758e-28
0
6.39262e-29
8.0082e-23
2.56013e-23
8.25171e-25
-6.12008e-27
1.38052e-26
-1.18762e-27
0
-1.30403e-27
-8.85604e-28
0
-1.52818e-27
0
0
-1.51939e-27
0
0
0
-1.97807e-28
0
0
5.02638e-23
2.43524e-23
6.97677e-25
1.67931e-26
3.98825e-27
0
1.5307e-27
0
1.397e-29
7.11221e-29
-8.78152e-29
0
3.83182e-28
0
6.05738e-29
-1.13936e-28
3.3199e-30
3.75149e-29
0
0
5.90015e-24
1.16969e-23
7.52429e-25
1.17666e-26
0
-2.01452e-28
1.26936e-27
1.8618e-27
1.00103e-28
0
0
2.50469e-28
3.87118e-28
4.07206e-29
0
0
0
0
-7.92527e-29
7.42347e-28
3.30314e-23
1.56981e-23
4.99023e-25
0
0
-9.56725e-29
7.25494e-28
-1.21592e-27
-9.12932e-28
-1.67105e-27
0
-1.19282e-28
0
0
-1.03913e-27
0
0
4.4659e-28
0
0
5.01854e-23
2.23849e-23
-5.48813e-25
1.26314e-25
-3.20353e-26
8.61938e-27
1.68976e-28
-3.29638e-28
0
1.28476e-27
8.3933e-28
1.06729e-27
1.43472e-27
1.80716e-27
4.25043e-28
0
-1.16725e-27
-6.92439e-28
5.58504e-29
1.02094e-33
1.68463e-23
6.87379e-24
4.61631e-25
2.93874e-27
8.11944e-27
-2.76383e-28
-1.74795e-27
-1.50713e-27
-1.33753e-27
7.3986e-28
2.09765e-28
4.81714e-28
-2.56595e-30
5.77862e-28
-9.54366e-28
0
0
6.75635e-29
2.26203e-28
1.67971e-28
3.12784e-24
6.05425e-24
4.00381e-26
1.01378e-26
-1.30908e-26
5.98496e-27
8.36487e-28
2.04344e-28
-1.48031e-28
-1.59714e-27
6.04203e-29
-4.59754e-28
0
2.04135e-29
2.53327e-28
3.66818e-30
2.2742e-28
1.56247e-28
9.38854e-29
3.35397e-30
3.18325e-23
1.14277e-23
3.9971e-25
-1.34919e-25
2.19823e-26
-8.65002e-27
5.86727e-28
6.75667e-28
7.73402e-30
0
1.45545e-28
-3.62894e-28
0
-2.428e-28
0
-8.83732e-28
-5.05884e-28
-6.89578e-28
1.12917e-28
0
3.0865e-23
1.20688e-23
-7.6091e-26
2.66632e-26
-1.77696e-26
1.05882e-27
5.26926e-28
-4.32981e-28
2.05791e-28
0
-9.48154e-28
0
1.59549e-27
1.68579e-27
2.15324e-28
-1.45312e-28
0
1.71376e-28
4.80069e-28
8.52025e-31
6.61716e-24
4.97928e-24
0
7.48093e-26
-1.33065e-26
4.4298e-27
4.2349e-28
7.82949e-28
-1.75056e-27
-8.08358e-28
2.11411e-28
8.7501e-28
-1.7833e-27
-4.43915e-30
9.03506e-31
-6.23865e-28
-2.75724e-28
3.64884e-28
0
0
8.26219e-25
8.59257e-25
1.24162e-25
1.1989e-26
0
0
-1.59662e-28
8.74879e-28
0
0
0
7.97347e-28
1.01771e-28
0
6.17365e-28
3.40176e-30
2.38732e-30
2.05892e-28
0
1.38098e-28
1.81236e-23
8.68342e-24
0
7.95086e-26
7.34684e-28
-2.6251e-27
-1.14855e-28
4.5725e-28
-1.44737e-27
0
-3.05578e-28
0
-2.43585e-27
-2.77341e-27
0
0
-8.17449e-28
0
4.95508e-28
4.88117e-28
5.53149e-23
2.05632e-23
2.35593e-26
5.13385e-26
2.16569e-27
2.13629e-27
0
-4.86985e-28
-9.55464e-28
-2.74424e-28
0
3.05559e-27
0
3.2432e-31
9.77895e-29
7.08068e-29
7.27205e-29
0
0
0
2.5251e-23
1.46216e-23
8.33623e-25
0
9.34884e-27
3.3279e-28
9.74199e-29
5.05433e-29
0
-1.20385e-27
0
1.8434e-27
3.41603e-28
4.509e-28
9.16422e-29
-8.68427e-28
-2.87512e-28
0
2.02315e-31
1.50393e-28
1.98997e-23
1.31847e-23
8.76576e-25
2.37485e-26
2.03391e-27
1.93481e-27
1.71989e-28
0
0
0
-1.21381e-27
0
-2.24231e-27
-4.49291e-29
0
7.12688e-29
0
7.72498e-28
1.04093e-28
3.61564e-28
9.83774e-23
2.79034e-23
1.1504e-24
2.01193e-26
4.62828e-27
0
2.37938e-28
0
0
0
5.30273e-28
8.91121e-28
8.05509e-29
0
-1.45098e-27
-1.51312e-27
0
2.05109e-28
-4.96428e-28
-1.24327e-28
1.52398e-23
2.31327e-23
8.4882e-25
8.07161e-26
4.99729e-28
1.55222e-27
-7.20649e-28
-6.33416e-28
2.22049e-29
6.82449e-28
2.98596e-28
-5.32682e-28
7.1423e-29
8.99598e-29
7.79242e-28
7.6969e-28
2.08137e-29
2.79229e-28
0
3.11817e-28
2.4593e-23
8.78325e-24
7.90704e-25
0
9.19925e-27
-1.43523e-27
-2.84341e-28
-1.42323e-28
0
-2.46028e-28
0
5.79508e-29
4.35596e-28
-6.11521e-28
0
3.21397e-29
0
0
9.64885e-29
0
)
;

boundaryField
{
    movingWall
    {
        type            calculated;
        value           nonuniform List<scalar> 
20
(
0
0
6.00233e-25
0
3.37104e-26
-8.14264e-27
-3.26823e-28
-9.84906e-28
-1.32193e-28
-2.26472e-28
4.74614e-28
6.23171e-28
1.42736e-27
6.74891e-28
3.85917e-28
4.2978e-28
0
0
1.69092e-28
0
)
;
    }
    fixedWalls
    {
        type            calculated;
        value           nonuniform List<scalar> 
60
(
1.39254e-22
1.40554e-22
4.11061e-22
3.7878e-22
1.92677e-22
2.39392e-22
2.59335e-22
1.06072e-22
7.5424e-23
1.76705e-22
1.58979e-22
4.80588e-23
1.24969e-23
9.73531e-23
2.88318e-22
2.57077e-22
2.33666e-22
5.02603e-22
3.84604e-22
1.72344e-22
0
6.39262e-29
0
0
6.34036e-28
1.33129e-28
1.02094e-33
5.45329e-28
0
0
0
0
1.38098e-28
8.5474e-28
2.45419e-28
1.50393e-28
1.12492e-27
-5.47813e-28
5.34733e-28
0
0
0
1.60263e-24
0
5.96185e-26
-1.56737e-26
4.84619e-28
-2.05884e-27
0
2.45478e-28
2.06728e-28
6.89704e-28
1.05775e-27
8.83179e-28
1.3236e-27
7.55154e-28
7.61703e-29
8.30781e-28
3.02177e-28
0
)
;
    }
    frontAndBack
    {
        type            empty;
    }
}


// ************************************************************************* //
