/*--------------------------------*- C++ -*----------------------------------*\
| =========                 |                                                 |
| \\      /  F ield         | OpenFOAM: The Open Source CFD Toolbox           |
|  \\    /   O peration     | Version:  2506                                  |
|   \\  /    A nd           | Website:  www.openfoam.com                      |
|    \\/     M anipulation  |                                                 |
\*---------------------------------------------------------------------------*/
FoamFile
{
    version     2.0;
    format      ascii;
    arch        "LSB;label=32;scalar=64";
    class       volScalarField;
    location    "9.875";
    object      QField;
}
// * * * * * * * * * * * * * * * * * * * * * * * * * * * * * * * * * * * * * //

dimensions      [0 0 -2 0 0 0 0];

internalField   nonuniform List<scalar> 
400
(
-3.96886e-23
-1.32711e-23
-7.81447e-25
7.3416e-26
-2.07933e-26
3.27525e-27
-7.25804e-28
3.61069e-28
-2.20452e-29
-2.02867e-28
-5.04708e-29
-4.58251e-28
-5.80829e-28
-1.66892e-27
-1.21179e-27
-2.65829e-28
7.88247e-28
4.44058e-28
-1.40624e-29
0
-7.34587e-23
-2.27502e-23
-1.58651e-24
9.01352e-28
-3.23877e-27
-6.06205e-28
-7.94519e-28
-1.5303e-27
-6.55298e-28
-1.43367e-27
8.31383e-28
8.09987e-28
7.31443e-28
-7.58407e-28
4.68025e-28
0
1.70412e-28
-4.42699e-28
0
-4.33431e-28
-8.0082e-23
-2.65077e-23
-9.60862e-25
3.66361e-26
-1.38052e-26
4.05375e-27
1.43183e-27
1.79946e-27
1.78884e-27
0
1.53034e-27
8.36539e-28
0
1.81405e-27
-5.22285e-28
0
-1.17847e-28
2.25688e-28
2.72026e-28
0
-8.25054e-23
-2.5927e-23
-7.59653e-25
-1.80336e-26
-3.98825e-27
-2.55753e-28
-3.15732e-27
7.86128e-28
-7.48634e-28
-8.0568e-28
1.80501e-28
2.95145e-29
-9.56188e-28
3.87236e-28
-2.10956e-28
1.26996e-28
9.8774e-29
-3.32034e-28
0
0
-7.25171e-23
-2.08409e-23
-1.22536e-24
-2.99045e-26
-7.85616e-30
3.35767e-28
-1.43177e-27
-1.96863e-27
-1.00103e-28
1.00509e-27
-6.23379e-29
-9.12417e-28
-5.39519e-28
-1.76942e-28
0
3.48937e-29
2.139e-28
4.30145e-28
2.35064e-28
-1.36662e-27
-6.15796e-23
-2.01523e-23
-7.38548e-25
1.15144e-26
2.73711e-27
2.81799e-28
-8.63285e-28
1.88e-27
1.71578e-27
1.67105e-27
2.88289e-28
1.50048e-28
0
0
1.07218e-27
0
0
-1.1456e-27
0
0
-4.74376e-23
-2.16347e-23
6.33758e-25
-1.20951e-25
3.29663e-26
-9.10313e-27
-4.85078e-28
4.39262e-28
1.15861e-27
-1.99198e-27
-9.80466e-28
-1.79584e-27
-1.64138e-27
-1.81965e-27
-4.25043e-28
-4.56171e-29
1.25221e-27
1.22178e-27
-1.15596e-28
-8.66065e-31
-3.30149e-23
-1.27204e-23
-8.60365e-25
1.70326e-26
-8.11944e-27
1.13571e-27
2.07285e-27
3.64766e-27
1.83397e-27
-1.37189e-27
-2.09765e-28
-6.02048e-28
1.03523e-27
-5.77862e-28
9.6023e-28
0
0
-2.22795e-28
-7.49014e-28
-1.67971e-28
-4.08675e-23
-1.37894e-23
-5.01222e-25
-1.01378e-26
1.44864e-26
-6.17443e-27
-1.02196e-27
-3.58009e-28
6.9416e-28
1.74022e-27
-2.10689e-28
1.17521e-27
2.23608e-28
-1.22464e-28
-2.53327e-28
-3.66818e-30
-2.2742e-28
-2.40909e-28
-9.38854e-29
4.96398e-29
-3.98947e-23
-1.3074e-23
-4.95508e-25
1.47341e-25
-2.22473e-26
9.24493e-27
-5.86727e-28
-5.32274e-28
-1.50759e-28
1.93439e-28
-1.38498e-27
4.32653e-28
0
2.72525e-28
4.02266e-28
8.97147e-28
5.64258e-28
7.59464e-28
-1.12917e-28
0
-3.0865e-23
-1.20282e-23
1.61208e-25
-2.42214e-26
1.86072e-26
-1.05882e-27
-2.13732e-27
4.71196e-28
-2.05791e-28
0
1.24099e-27
1.67546e-28
-2.32914e-27
-2.34636e-27
-1.49584e-27
2.10803e-28
1.03021e-28
-3.3888e-28
-1.49756e-27
-2.50194e-29
-1.96488e-23
-9.03017e-24
4.38963e-26
-6.64971e-26
1.55244e-26
-3.87634e-27
-1.02849e-28
-7.82949e-28
1.8492e-27
8.12258e-28
-3.93625e-28
-1.57774e-27
2.16813e-27
1.60907e-29
-5.15283e-29
6.27818e-28
2.9816e-28
-3.64884e-28
3.18573e-28
0
-9.63676e-24
-4.85975e-24
-4.62076e-25
1.71086e-26
2.08179e-27
2.12668e-28
1.74671e-28
-2.15833e-27
0
-7.73469e-29
4.15578e-28
-1.53075e-27
-2.7344e-28
0
-2.02042e-27
-1.49977e-28
-8.37599e-29
-1.16679e-27
0
-6.37051e-28
-2.27294e-23
-1.07362e-23
4.63616e-26
-5.83286e-26
1.49719e-27
3.10261e-27
3.00007e-28
-5.49907e-28
1.63495e-27
0
5.89199e-28
0
2.46234e-27
2.81661e-27
2.73174e-28
0
8.69523e-28
0
-5.82344e-28
-6.02734e-28
-5.66426e-23
-2.07553e-23
-2.91226e-26
-5.13793e-26
-3.78417e-27
-2.19596e-27
0
5.32296e-28
1.96584e-27
6.73364e-28
1.77432e-28
-3.26994e-27
8.18384e-28
-1.54361e-29
-9.77895e-29
-1.9531e-28
-7.27205e-29
0
5.17626e-28
-2.68092e-28
-7.33301e-23
-2.12008e-23
-1.175e-24
1.6583e-26
-9.838e-27
-3.3279e-28
-5.35062e-28
-1.37514e-28
-2.17777e-30
1.3044e-27
6.48454e-28
-2.36237e-27
-1.00194e-27
-6.21435e-28
-2.70026e-28
8.71676e-28
3.86891e-28
0
-2.43834e-29
-6.64804e-28
-7.81421e-23
-2.19954e-23
-1.31307e-24
-5.04965e-26
-2.45825e-27
-3.57677e-27
-7.528e-28
0
0
0
1.27248e-27
0
2.33401e-27
2.03762e-28
0
-7.12688e-29
3.45914e-28
-1.50671e-27
2.76542e-28
-2.64413e-28
-9.33171e-23
-2.72671e-23
-1.10349e-24
-1.95165e-26
-4.58228e-27
0
-2.37938e-28
0
0
0
-5.32453e-28
-1.03594e-27
-2.43268e-28
1.83855e-28
1.57519e-27
1.54181e-27
2.85503e-28
-7.76377e-28
5.11579e-28
1.52936e-28
-9.55918e-23
-2.74359e-23
-1.10372e-24
-9.79733e-26
-5.68221e-28
-1.55222e-27
1.584e-27
1.1716e-27
6.30061e-29
-7.91121e-28
-4.39101e-28
7.53051e-28
-7.74925e-28
-2.57084e-28
-9.30025e-28
-7.6969e-28
-7.03475e-28
-4.52929e-28
1.02927e-28
-3.11817e-28
-4.32603e-23
-1.17252e-23
-9.65588e-25
8.41658e-27
-9.48946e-27
2.03093e-27
3.11577e-28
3.0624e-28
-1.42678e-28
2.84049e-28
2.8759e-29
-1.28631e-28
-4.35596e-28
8.23841e-28
0
-3.07327e-28
0
0
2.66249e-28
-4.55677e-29
)
;

boundaryField
{
    movingWall
    {
        type            calculated;
        value           nonuniform List<scalar> 
20
(
7.54839e-24
5.37643e-24
-1.37584e-24
1.57322e-25
-4.0186e-26
8.14799e-27
5.10488e-28
1.00349e-27
9.07861e-28
6.98079e-28
-5.78743e-28
4.8572e-28
-1.42736e-27
-6.74891e-28
-3.85917e-28
-1.16446e-27
0
0
3.52462e-28
-5.69184e-29
)
;
    }
    fixedWalls
    {
        type            calculated;
        value           nonuniform List<scalar> 
60
(
-2.22384e-22
-4.2296e-22
-4.25671e-22
-4.17371e-22
-3.91531e-22
-3.38715e-22
-2.41743e-22
-2.06633e-22
-2.26826e-22
-2.08012e-22
-1.59599e-22
-1.18123e-22
-7.9089e-23
-1.30755e-22
-2.91044e-22
-3.90596e-22
-4.12644e-22
-4.80352e-22
-4.96856e-22
-2.37562e-22
0
-7.10133e-28
0
0
-1.09564e-27
-5.12396e-28
-1.41896e-30
-5.45329e-28
0
0
0
0
-1.04374e-27
-1.06008e-27
-7.05126e-28
-1.08922e-27
-9.72305e-28
5.76422e-28
-5.34733e-28
-1.77398e-29
1.61719e-23
1.3239e-23
-3.25339e-24
3.60854e-25
-5.96185e-26
1.74699e-26
-1.11532e-27
2.34436e-27
2.45687e-28
7.93551e-29
-2.06728e-28
-8.54162e-28
-1.22523e-27
-1.59718e-27
-1.3236e-27
-7.78246e-28
-2.36561e-28
1.03995e-27
-4.71174e-28
0
)
;
    }
    frontAndBack
    {
        type            empty;
    }
}


// ************************************************************************* //
