/*--------------------------------*- C++ -*----------------------------------*\
| =========                 |                                                 |
| \\      /  F ield         | OpenFOAM: The Open Source CFD Toolbox           |
|  \\    /   O peration     | Version:  2506                                  |
|   \\  /    A nd           | Website:  www.openfoam.com                      |
|    \\/     M anipulation  |                                                 |
\*---------------------------------------------------------------------------*/
FoamFile
{
    version     2.0;
    format      ascii;
    arch        "LSB;label=32;scalar=64";
    class       volScalarField;
    location    "9.875";
    object      Uy;
}
// * * * * * * * * * * * * * * * * * * * * * * * * * * * * * * * * * * * * * //

dimensions      [0 1 -1 0 0 0 0];

internalField   nonuniform List<scalar> 
400
(
1.88705e-13
-4.0275e-14
9.6784e-15
-1.86515e-15
6.49828e-16
5.26897e-17
1.25934e-16
4.14278e-17
1.25308e-19
1.36129e-17
9.84535e-18
2.29231e-17
4.39392e-17
7.91314e-17
1.72094e-17
-6.98925e-17
2.18189e-17
1.04782e-16
4.34581e-17
-2.82724e-17
-6.30836e-17
-1.34579e-16
-6.31926e-17
-6.88621e-17
1.99424e-17
1.28974e-16
1.53102e-16
7.69796e-17
8.00793e-18
-4.13152e-17
-7.48802e-18
1.12048e-16
1.70349e-16
2.02e-16
8.55115e-17
-2.81812e-17
3.67189e-17
1.57676e-17
-3.827e-17
-6.89834e-17
-1.68039e-13
3.67281e-14
-8.61287e-15
2.062e-15
-2.44374e-16
3.64254e-16
2.63078e-16
5.72246e-17
-1.12997e-16
-1.42036e-16
-2.24758e-17
1.40262e-16
1.82788e-16
1.04423e-16
-4.03004e-17
-1.07482e-17
-4.1052e-17
-5.85448e-17
-8.2684e-17
-1.08226e-16
1.47681e-13
-3.12565e-14
7.65344e-15
-1.35583e-15
5.67531e-16
1.15579e-16
1.96005e-16
1.65247e-16
7.01944e-17
3.08816e-17
7.20481e-18
8.68386e-18
4.48257e-18
3.03422e-17
-5.54988e-17
-5.88351e-17
-1.02352e-16
-3.70345e-17
-8.89483e-17
-1.15998e-16
-1.26587e-14
2.29635e-15
-4.47645e-16
9.92626e-17
-6.73155e-17
-1.01628e-16
-9.20907e-17
9.56336e-17
1.59467e-16
1.32565e-16
7.37979e-17
6.35425e-17
3.88905e-17
6.73436e-17
3.75288e-17
-4.68864e-17
-5.92726e-17
-1.19794e-16
-1.39172e-16
-3.30709e-17
-1.34353e-13
2.96699e-14
-6.57854e-15
1.68789e-15
-2.3893e-16
-3.15281e-19
-1.34964e-16
-5.79333e-17
4.49469e-17
1.44688e-16
1.68249e-16
1.94449e-16
1.95928e-16
9.69841e-17
-5.6219e-17
-1.00799e-16
-3.54516e-17
-3.81387e-17
3.58761e-17
4.99782e-17
1.87571e-13
-4.00761e-14
9.73961e-15
-1.99227e-15
6.11079e-16
3.48001e-17
1.11169e-16
6.9585e-17
1.34321e-16
1.31878e-16
1.16721e-16
1.19009e-16
8.12769e-17
5.44425e-17
-1.9965e-17
-2.3964e-17
2.58955e-17
9.15324e-17
1.57524e-16
8.23105e-17
-7.933e-14
1.79985e-14
-3.92248e-15
1.17803e-15
6.61985e-17
4.29142e-16
2.52708e-16
4.67682e-17
-7.53392e-17
-1.7877e-16
-1.54872e-16
-1.0138e-16
-1.51369e-16
-1.69379e-16
-4.4772e-17
7.75179e-18
5.67247e-17
3.7621e-17
1.16725e-17
5.02977e-17
-7.80177e-14
1.72265e-14
-3.79138e-15
1.14969e-15
-5.11886e-17
8.07845e-17
-6.90805e-17
-7.76579e-17
-8.84874e-17
-2.4049e-16
-2.48994e-16
-9.6101e-17
-2.86594e-17
-6.53628e-17
4.25031e-18
-1.86323e-17
5.60363e-18
9.33544e-18
3.20324e-17
4.3973e-17
1.84483e-13
-4.01511e-14
9.70937e-15
-1.9278e-15
4.39774e-16
-3.59999e-16
-2.52695e-16
-1.43535e-16
-5.77499e-18
-5.91539e-17
-7.71413e-17
-1.08475e-16
-1.30348e-16
-1.24198e-16
-8.00762e-17
4.25157e-18
3.02534e-17
7.36431e-17
1.23651e-16
3.19839e-17
-1.955e-13
4.36711e-14
-9.98596e-15
2.40798e-15
-4.20012e-16
1.32355e-16
-2.93771e-17
-1.02931e-16
-1.16298e-16
-2.70074e-17
-4.57906e-17
-1.79622e-16
-1.07604e-16
-1.08416e-17
-3.19129e-17
-5.5258e-17
-7.07993e-17
-7.42621e-17
-4.10921e-17
1.48145e-17
1.13818e-13
-2.54362e-14
5.86754e-15
-1.29797e-15
4.01796e-16
4.52724e-17
8.8577e-17
-8.17159e-17
-5.58515e-17
5.47309e-17
9.39836e-17
3.29638e-17
1.30522e-16
2.32938e-16
1.3349e-16
-7.66754e-17
-9.81338e-17
-2.16746e-17
-3.08246e-17
4.12144e-17
1.97699e-14
-4.53377e-15
9.2638e-16
-3.87644e-16
-6.54805e-17
-3.62187e-18
5.96665e-17
6.08203e-17
-1.69823e-17
-7.25867e-18
7.76644e-17
1.47957e-16
8.85653e-17
2.32927e-17
-4.14182e-17
-3.53756e-17
-2.34328e-17
-6.70307e-17
-6.8414e-17
-3.26e-17
-1.39746e-13
3.05767e-14
-7.24601e-15
1.46725e-15
-5.22494e-16
2.19292e-17
4.9836e-17
1.32612e-16
-3.15419e-17
-6.84518e-17
9.30361e-17
3.15337e-16
2.31403e-16
1.25224e-17
-1.14978e-16
-5.82315e-17
-8.26829e-17
-1.65164e-16
-9.36422e-17
-7.63008e-17
1.92404e-13
-4.25941e-14
9.9567e-15
-2.17918e-15
4.86884e-16
-2.2214e-16
-7.64038e-17
2.06961e-17
1.19979e-16
1.76585e-16
2.44077e-16
2.59498e-16
1.40038e-16
-4.2432e-17
-8.21427e-17
-6.04709e-17
-9.55948e-17
-8.73001e-17
-3.12934e-17
1.98268e-17
-1.13859e-13
2.52135e-14
-5.7111e-15
1.45126e-15
-5.71235e-17
2.68808e-16
6.56542e-17
6.52984e-17
7.01691e-17
5.54159e-17
-9.02444e-17
-1.83821e-16
-7.2387e-17
6.82752e-18
5.76002e-17
3.73072e-19
-1.03196e-16
-1.42365e-16
-1.05284e-16
-2.11132e-17
-3.93181e-14
9.36001e-15
-2.13084e-15
5.31791e-16
-1.45452e-16
5.24599e-17
2.22977e-17
5.78852e-17
1.09293e-16
7.63077e-17
-6.42735e-17
-1.58424e-16
-4.47867e-17
5.685e-17
3.03881e-17
-4.24463e-17
4.09453e-18
8.51735e-17
-2.67954e-17
-1.02808e-16
1.54171e-13
-3.41576e-14
7.78834e-15
-1.87764e-15
3.7048e-16
-1.71056e-16
-8.13509e-17
-8.32729e-17
-2.46708e-17
5.36808e-18
-1.3647e-17
-9.24488e-17
-1.68146e-16
-1.19201e-16
-2.67309e-17
2.60846e-17
1.62878e-16
1.35574e-16
-3.25787e-18
-5.31656e-17
-6.41365e-14
1.29566e-14
-3.26941e-15
5.68048e-16
-1.61475e-16
1.69771e-17
-1.8308e-17
-1.17254e-16
-1.86555e-16
-1.15952e-16
-6.50802e-17
-8.52273e-17
-1.34537e-16
-1.21358e-16
-8.10649e-17
1.11126e-17
6.09177e-17
-5.80428e-17
-6.57197e-17
-4.93204e-17
-9.805e-14
2.14764e-14
-5.19399e-15
1.08661e-15
-4.3416e-16
-6.82523e-17
-3.38808e-17
-1.07765e-17
3.78012e-18
5.42913e-17
5.61779e-17
5.59992e-17
4.70637e-17
-2.43541e-17
-1.04908e-16
-6.78045e-17
-3.60454e-17
-3.15276e-17
-3.25089e-17
-3.14455e-17
)
;

boundaryField
{
    movingWall
    {
        type            calculated;
        value           uniform -0;
    }
    fixedWalls
    {
        type            calculated;
        value           uniform -0;
    }
    frontAndBack
    {
        type            empty;
    }
}


// ************************************************************************* //
