/*--------------------------------*- C++ -*----------------------------------*\
| =========                 |                                                 |
| \\      /  F ield         | OpenFOAM: The Open Source CFD Toolbox           |
|  \\    /   O peration     | Version:  2506                                  |
|   \\  /    A nd           | Website:  www.openfoam.com                      |
|    \\/     M anipulation  |                                                 |
\*---------------------------------------------------------------------------*/
FoamFile
{
    version     2.0;
    format      ascii;
    arch        "LSB;label=32;scalar=64";
    class       volVectorField;
    location    "9.875";
    object      vorticityField;
}
// * * * * * * * * * * * * * * * * * * * * * * * * * * * * * * * * * * * * * //

dimensions      [0 0 -1 0 0 0 0];

internalField   nonuniform List<vector> 
400
(
(0 -0 1.36504e-11)
(0 -0 -1.75774e-11)
(0 -0 3.75967e-12)
(0 -0 -9.84173e-13)
(0 -0 8.33639e-14)
(0 -0 -1.33704e-13)
(0 -0 -2.82312e-14)
(0 -0 -6.6791e-14)
(0 -0 -2.78149e-15)
(0 -0 -5.32381e-14)
(0 -0 -5.32791e-14)
(0 -0 -2.36957e-14)
(0 -0 5.62082e-15)
(0 -0 5.15371e-14)
(0 -0 6.64128e-14)
(0 -0 4.60948e-16)
(0 -0 7.16776e-14)
(0 -0 5.6374e-14)
(0 -0 -1.33055e-14)
(0 -0 -1.51857e-15)
(0 -0 -1.53765e-12)
(0 -0 3.7946e-13)
(0 -0 6.57167e-15)
(0 -0 1.16734e-13)
(0 -0 1.01099e-13)
(0 -0 9.46311e-14)
(0 -0 7.61158e-14)
(0 -0 9.39108e-14)
(0 -0 6.94857e-14)
(0 -0 1.06871e-13)
(0 -0 6.95464e-14)
(0 -0 9.90988e-14)
(0 -0 9.03103e-14)
(0 -0 7.28314e-14)
(0 -0 -5.01231e-14)
(0 -0 -4.87926e-15)
(0 -0 4.39488e-15)
(0 -0 -7.49889e-15)
(0 -0 -8.4751e-15)
(0 -0 1.07253e-14)
(0 -0 -7.03249e-12)
(0 -0 1.43435e-11)
(0 -0 -3.24977e-12)
(0 -0 8.63954e-13)
(0 -0 -8.84589e-14)
(0 -0 1.3206e-13)
(0 -0 -8.49131e-14)
(0 -0 -9.18177e-14)
(0 -0 -1.01241e-13)
(0 -0 9.05214e-15)
(0 -0 8.24399e-14)
(0 -0 4.76315e-14)
(0 -0 -3.58393e-15)
(0 -0 -1.03624e-13)
(0 -0 -6.57272e-14)
(0 -0 -7.51581e-17)
(0 -0 -5.89898e-14)
(0 -0 -5.83733e-14)
(0 -0 -3.20732e-14)
(0 -0 1.9091e-14)
(0 -0 7.84778e-12)
(0 -0 -1.28644e-11)
(0 -0 2.93586e-12)
(0 -0 -7.35696e-13)
(0 -0 1.20035e-13)
(0 -0 -6.42577e-14)
(0 -0 -4.92433e-14)
(0 -0 -6.67912e-14)
(0 -0 -6.76467e-14)
(0 -0 -1.14719e-13)
(0 -0 -8.35349e-14)
(0 -0 -1.08692e-13)
(0 -0 -7.91493e-14)
(0 -0 -8.73133e-14)
(0 -0 -8.91774e-15)
(0 -0 -3.17904e-14)
(0 -0 2.18007e-15)
(0 -0 1.34038e-15)
(0 -0 -7.89633e-15)
(0 -0 2.04946e-14)
(0 -0 -1.87649e-12)
(0 -0 1.194e-12)
(0 -0 -4.36549e-13)
(0 -0 -9.74923e-14)
(0 -0 -1.28509e-13)
(0 -0 -1.38003e-13)
(0 -0 -7.3789e-15)
(0 -0 -2.90543e-14)
(0 -0 -2.34119e-14)
(0 -0 -8.98821e-14)
(0 -0 -6.11124e-14)
(0 -0 -3.05958e-14)
(0 -0 -5.383e-14)
(0 -0 -2.72412e-14)
(0 -0 -1.1423e-14)
(0 -0 -3.67852e-14)
(0 -0 -6.15009e-14)
(0 -0 -6.22001e-14)
(0 -0 3.57774e-14)
(0 -0 -9.88072e-15)
(0 -0 -7.54098e-12)
(0 -0 1.19643e-11)
(0 -0 -2.77109e-12)
(0 -0 6.61066e-13)
(0 -0 -1.95926e-13)
(0 -0 3.75016e-14)
(0 -0 4.84483e-14)
(0 -0 1.26411e-13)
(0 -0 1.01577e-13)
(0 -0 1.47855e-13)
(0 -0 8.62913e-14)
(0 -0 5.6978e-14)
(0 -0 -9.74647e-15)
(0 -0 -2.52147e-14)
(0 -0 -7.39884e-14)
(0 -0 2.07673e-15)
(0 -0 6.26604e-15)
(0 -0 7.13278e-15)
(0 -0 8.81169e-15)
(0 -0 -8.58544e-15)
(0 -0 1.13613e-11)
(0 -0 -1.65363e-11)
(0 -0 3.97102e-12)
(0 -0 -7.77328e-13)
(0 -0 3.65337e-13)
(0 -0 8.55343e-14)
(0 -0 1.66109e-13)
(0 -0 1.92051e-13)
(0 -0 8.75445e-14)
(0 -0 1.33765e-13)
(0 -0 8.00282e-14)
(0 -0 5.06657e-14)
(0 -0 1.01964e-13)
(0 -0 9.8296e-14)
(0 -0 4.63695e-14)
(0 -0 5.87962e-14)
(0 -0 1.1997e-13)
(0 -0 1.21583e-13)
(0 -0 5.32879e-14)
(0 -0 -2.39835e-14)
(0 -0 -3.44975e-12)
(0 -0 6.86312e-12)
(0 -0 -1.51942e-12)
(0 -0 3.98868e-13)
(0 -0 3.35316e-14)
(0 -0 7.2861e-14)
(0 -0 -9.24475e-14)
(0 -0 -1.6833e-13)
(0 -0 -1.03869e-13)
(0 -0 -8.92684e-14)
(0 -0 -1.93661e-14)
(0 -0 -5.38598e-14)
(0 -0 -1.1522e-13)
(0 -0 -4.35504e-14)
(0 -0 7.19232e-14)
(0 -0 1.01497e-14)
(0 -0 2.98692e-15)
(0 -0 -4.50522e-15)
(0 -0 -5.29424e-14)
(0 -0 2.0908e-14)
(0 -0 -5.9436e-12)
(0 -0 7.17869e-12)
(0 -0 -1.82452e-12)
(0 -0 3.46914e-13)
(0 -0 -2.42416e-13)
(0 -0 -1.37314e-13)
(0 -0 -1.24264e-13)
(0 -0 -8.32559e-14)
(0 -0 -7.04933e-14)
(0 -0 -1.24471e-13)
(0 -0 1.44389e-14)
(0 -0 7.62436e-14)
(0 -0 5.72839e-14)
(0 -0 3.29097e-15)
(0 -0 -4.95371e-14)
(0 -0 -2.69697e-14)
(0 -0 -7.85184e-14)
(0 -0 -5.15672e-14)
(0 -0 -2.36413e-14)
(0 -0 -7.60055e-15)
(0 -0 1.22647e-11)
(0 -0 -1.6881e-11)
(0 -0 3.74101e-12)
(0 -0 -1.08959e-12)
(0 -0 2.12545e-14)
(0 -0 -2.04772e-13)
(0 -0 -5.45864e-15)
(0 -0 -2.413e-15)
(0 -0 8.43808e-15)
(0 -0 -3.42417e-14)
(0 -0 -5.91422e-14)
(0 -0 -8.66359e-14)
(0 -0 -1.57229e-15)
(0 -0 5.92373e-14)
(0 -0 6.70551e-14)
(0 -0 9.23481e-14)
(0 -0 8.82543e-14)
(0 -0 9.06549e-14)
(0 -0 2.29391e-14)
(0 -0 -1.55635e-14)
(0 -0 -1.315e-11)
(0 -0 1.79009e-11)
(0 -0 -4.18052e-12)
(0 -0 9.2949e-13)
(0 -0 -3.08877e-13)
(0 -0 1.19584e-14)
(0 -0 -5.06336e-14)
(0 -0 -6.29021e-14)
(0 -0 -1.95127e-14)
(0 -0 7.05069e-15)
(0 -0 -9.65767e-14)
(0 -0 -3.32864e-14)
(0 -0 -3.7332e-14)
(0 -0 -4.6641e-14)
(0 -0 -5.86517e-14)
(0 -0 -5.80987e-14)
(0 -0 -5.61105e-14)
(0 -0 -2.41343e-14)
(0 -0 -1.81974e-14)
(0 -0 2.62777e-15)
(0 -0 8.1334e-12)
(0 -0 -1.04426e-11)
(0 -0 2.60356e-12)
(0 -0 -4.11049e-13)
(0 -0 2.42745e-13)
(0 -0 1.04203e-13)
(0 -0 1.44062e-14)
(0 -0 3.97673e-14)
(0 -0 1.4917e-13)
(0 -0 6.91936e-14)
(0 -0 2.49283e-14)
(0 -0 5.78639e-14)
(0 -0 1.28418e-13)
(0 -0 5.45069e-14)
(0 -0 -3.09614e-14)
(0 -0 -5.02674e-14)
(0 -0 5.97102e-14)
(0 -0 -4.74792e-14)
(0 -0 3.3394e-14)
(0 -0 -1.03898e-15)
(0 -0 1.06282e-12)
(0 -0 -1.80303e-12)
(0 -0 4.14613e-13)
(0 -0 -4.49759e-14)
(0 -0 9.26124e-14)
(0 -0 3.96198e-14)
(0 -0 3.35493e-14)
(0 -0 4.65452e-14)
(0 -0 -6.80789e-15)
(0 -0 3.65697e-14)
(0 -0 4.26267e-14)
(0 -0 1.09009e-15)
(0 -0 -1.24665e-14)
(0 -0 -1.29983e-14)
(0 -0 -5.86682e-15)
(0 -0 1.79854e-15)
(0 -0 -3.16552e-15)
(0 -0 -4.49812e-15)
(0 -0 3.44307e-15)
(0 -0 1.01014e-14)
(0 -0 -9.26349e-12)
(0 -0 1.26266e-11)
(0 -0 -3.01937e-12)
(0 -0 5.63931e-13)
(0 -0 -1.44532e-13)
(0 -0 1.11443e-13)
(0 -0 3.81734e-14)
(0 -0 4.60723e-14)
(0 -0 -1.01422e-13)
(0 -0 1.24578e-14)
(0 -0 6.54839e-14)
(0 -0 1.38367e-14)
(0 -0 -1.11597e-13)
(0 -0 -1.15953e-13)
(0 -0 -6.12855e-14)
(0 -0 3.22953e-15)
(0 -0 -9.20084e-14)
(0 -0 -1.09593e-15)
(0 -0 -4.53238e-14)
(0 -0 -1.01108e-14)
(0 -0 1.13218e-11)
(0 -0 -1.71335e-11)
(0 -0 4.04149e-12)
(0 -0 -8.92771e-13)
(0 -0 1.95704e-13)
(0 -0 -2.92238e-14)
(0 -0 2.42836e-14)
(0 -0 4.67433e-14)
(0 -0 1.24009e-13)
(0 -0 9.3725e-14)
(0 -0 8.96065e-14)
(0 -0 4.38062e-14)
(0 -0 -5.72981e-14)
(0 -0 -2.22181e-14)
(0 -0 5.24062e-14)
(0 -0 2.57598e-14)
(0 -0 2.44221e-14)
(0 -0 6.43014e-15)
(0 -0 6.49228e-14)
(0 -0 2.82517e-14)
(0 -0 -6.61488e-12)
(0 -0 1.02998e-11)
(0 -0 -2.2678e-12)
(0 -0 6.46713e-13)
(0 -0 -6.40354e-14)
(0 -0 -1.48273e-14)
(0 -0 -2.0351e-14)
(0 -0 -8.08637e-14)
(0 -0 -2.80933e-14)
(0 -0 -9.73565e-14)
(0 -0 -5.10288e-14)
(0 -0 -5.24244e-14)
(0 -0 1.90649e-14)
(0 -0 -1.41063e-14)
(0 -0 -5.48556e-14)
(0 -0 -7.02897e-14)
(0 -0 -4.13788e-14)
(0 -0 -2.08831e-16)
(0 -0 1.21251e-14)
(0 -0 1.26397e-14)
(0 -0 1.74757e-12)
(0 -0 2.60742e-12)
(0 -0 -6.38876e-13)
(0 -0 1.71434e-13)
(0 -0 -2.0828e-14)
(0 -0 1.67749e-14)
(0 -0 8.18577e-14)
(0 -0 8.69952e-15)
(0 -0 1.84225e-15)
(0 -0 -1.73566e-14)
(0 -0 -7.76833e-14)
(0 -0 1.94868e-15)
(0 -0 1.29948e-13)
(0 -0 3.46225e-14)
(0 -0 -9.92963e-15)
(0 -0 2.44757e-14)
(0 -0 3.9867e-14)
(0 -0 -3.08899e-15)
(0 -0 -1.87981e-14)
(0 -0 -1.41447e-14)
(0 -0 3.95116e-12)
(0 -0 -1.27409e-11)
(0 -0 2.87563e-12)
(0 -0 -7.14681e-13)
(0 -0 1.43554e-13)
(0 -0 -4.51831e-14)
(0 -0 -1.83267e-14)
(0 -0 5.66801e-15)
(0 -0 8.86409e-15)
(0 -0 1.10238e-15)
(0 -0 4.44284e-14)
(0 -0 3.87602e-14)
(0 -0 -2.67524e-15)
(0 -0 9.54567e-14)
(0 -0 1.22949e-13)
(0 -0 1.00276e-13)
(0 -0 6.5159e-14)
(0 -0 -1.66136e-14)
(0 -0 -4.5979e-14)
(0 -0 3.27474e-14)
(0 -0 -4.87404e-12)
(0 -0 5.81565e-12)
(0 -0 -1.4557e-12)
(0 -0 2.02374e-13)
(0 -0 -1.63527e-13)
(0 -0 -9.41035e-14)
(0 -0 -1.21843e-13)
(0 -0 -9.81398e-14)
(0 -0 -1.0829e-13)
(0 -0 -4.20627e-14)
(0 -0 -7.82427e-14)
(0 -0 -1.15366e-13)
(0 -0 -1.12033e-13)
(0 -0 5.34719e-15)
(0 -0 -4.0963e-14)
(0 -0 -4.00118e-14)
(0 -0 -6.11256e-14)
(0 -0 -1.26637e-14)
(0 -0 2.79773e-14)
(0 -0 -1.5601e-14)
(0 -0 -4.6487e-12)
(0 -0 8.7164e-12)
(0 -0 -1.76793e-12)
(0 -0 5.03088e-13)
(0 -0 -6.12761e-14)
(0 -0 9.4238e-14)
(0 -0 5.99577e-14)
(0 -0 8.50813e-14)
(0 -0 6.07169e-14)
(0 -0 5.94499e-14)
(0 -0 2.72758e-14)
(0 -0 5.32987e-14)
(0 -0 4.61748e-14)
(0 -0 -6.94073e-14)
(0 -0 -4.34504e-15)
(0 -0 6.88628e-15)
(0 -0 3.6277e-15)
(0 -0 3.53653e-16)
(0 -0 8.20429e-18)
(0 -0 3.35005e-14)
)
;

boundaryField
{
    movingWall
    {
        type            calculated;
        value           nonuniform List<vector> 
20
(
(0 -0 -1.50292e-11)
(0 -0 1.15949e-11)
(0 -0 -1.86134e-12)
(0 -0 8.31254e-13)
(0 -0 1.50967e-13)
(0 -0 2.62073e-13)
(0 -0 9.45654e-14)
(0 -0 2.7022e-13)
(0 -0 1.39734e-13)
(0 -0 1.38467e-13)
(0 -0 1.77806e-13)
(0 -0 1.32315e-13)
(0 -0 1.696e-13)
(0 -0 2.92117e-14)
(0 -0 8.44728e-14)
(0 -0 5.12952e-14)
(0 -0 3.6277e-15)
(0 -0 3.53653e-16)
(0 -0 8.20429e-18)
(0 -0 5.08044e-14)
)
;
    }
    fixedWalls
    {
        type            calculated;
        value           nonuniform List<vector> 
60
(
(0 -0 7.42893e-11)
(0 -0 -1.54312e-12)
(0 -0 -6.11171e-11)
(0 -0 5.52779e-11)
(0 -0 -5.90373e-12)
(0 -0 -5.08139e-11)
(0 -0 7.16401e-11)
(0 -0 -2.90486e-11)
(0 -0 -3.10716e-11)
(0 -0 7.16246e-11)
(0 -0 -7.61671e-11)
(0 -0 4.48223e-11)
(0 -0 7.44716e-12)
(0 -0 -5.42449e-11)
(0 -0 7.33025e-11)
(0 -0 -4.32941e-11)
(0 -0 -1.09839e-11)
(0 -0 5.36183e-11)
(0 -0 -2.54106e-11)
(0 -0 -3.62113e-11)
(0 -0 1.1309e-14)
(0 -0 2.75934e-14)
(0 -0 4.32905e-14)
(0 -0 4.63991e-14)
(0 -0 -1.38767e-14)
(0 -0 -1.99913e-14)
(0 -0 -3.29242e-14)
(0 -0 6.98595e-15)
(0 -0 -1.75892e-14)
(0 -0 -1.27936e-14)
(0 -0 -5.92579e-15)
(0 -0 -1.64858e-14)
(0 -0 1.304e-14)
(0 -0 3.41526e-15)
(0 -0 1.91744e-14)
(0 -0 8.44527e-15)
(0 -0 1.40181e-14)
(0 -0 4.83713e-14)
(0 -0 -7.37689e-15)
(0 -0 3.96833e-14)
(0 -0 2.18596e-11)
(0 -0 -2.03007e-11)
(0 -0 3.48571e-12)
(0 -0 -1.30254e-12)
(0 -0 -1.19078e-13)
(0 -0 -4.07661e-13)
(0 -0 -2.23171e-13)
(0 -0 -2.34626e-13)
(0 -0 -9.15993e-14)
(0 -0 -2.21073e-13)
(0 -0 -2.21114e-13)
(0 -0 -1.74226e-13)
(0 -0 -1.27606e-13)
(0 -0 -4.70819e-14)
(0 -0 7.39155e-14)
(0 -0 -4.3948e-14)
(0 -0 1.74675e-14)
(0 -0 -4.2245e-14)
(0 -0 -1.33055e-14)
(0 -0 -1.51857e-15)
)
;
    }
    frontAndBack
    {
        type            empty;
    }
}


// ************************************************************************* //
