/*--------------------------------*- C++ -*----------------------------------*\
| =========                 |                                                 |
| \\      /  F ield         | OpenFOAM: The Open Source CFD Toolbox           |
|  \\    /   O peration     | Version:  2506                                  |
|   \\  /    A nd           | Website:  www.openfoam.com                      |
|    \\/     M anipulation  |                                                 |
\*---------------------------------------------------------------------------*/
FoamFile
{
    version     2.0;
    format      ascii;
    arch        "LSB;label=32;scalar=64";
    class       volScalarField;
    location    "9.875";
    object      zeroGradient(epsilon);
}
// * * * * * * * * * * * * * * * * * * * * * * * * * * * * * * * * * * * * * //

dimensions      [0 2 -3 0 0 0 0];

internalField   nonuniform List<scalar> 
400
(
6.12814e-07
6.12813e-07
6.12813e-07
6.12813e-07
6.12813e-07
6.12813e-07
6.12813e-07
6.12813e-07
6.12812e-07
6.12812e-07
6.12812e-07
6.12812e-07
6.12812e-07
6.12812e-07
6.12812e-07
6.12812e-07
6.12812e-07
6.12812e-07
6.12812e-07
6.12812e-07
6.23567e-07
6.1774e-07
6.18239e-07
6.18445e-07
6.18858e-07
6.19069e-07
6.19482e-07
6.19699e-07
6.20111e-07
6.20334e-07
6.20746e-07
6.20975e-07
6.21386e-07
6.21622e-07
6.22033e-07
6.22274e-07
6.22685e-07
6.22931e-07
6.23138e-07
6.23468e-07
6.41346e-07
6.35189e-07
6.35725e-07
6.35946e-07
6.36387e-07
6.36612e-07
6.37053e-07
6.37282e-07
6.37721e-07
6.37955e-07
6.38392e-07
6.38631e-07
6.39067e-07
6.39311e-07
6.39745e-07
6.39993e-07
6.40426e-07
6.40678e-07
6.40895e-07
6.41238e-07
6.61256e-07
6.54845e-07
6.55403e-07
6.55633e-07
6.56093e-07
6.56327e-07
6.56786e-07
6.57025e-07
6.57482e-07
6.57725e-07
6.58181e-07
6.5843e-07
6.58883e-07
6.59137e-07
6.59589e-07
6.59847e-07
6.60298e-07
6.60561e-07
6.60787e-07
6.61144e-07
6.79265e-07
6.72619e-07
6.73197e-07
6.73436e-07
6.73912e-07
6.74155e-07
6.7463e-07
6.74878e-07
6.75351e-07
6.75604e-07
6.76076e-07
6.76334e-07
6.76804e-07
6.77067e-07
6.77535e-07
6.77803e-07
6.78271e-07
6.78543e-07
6.78777e-07
6.79148e-07
6.93382e-07
6.86548e-07
6.87142e-07
6.87388e-07
6.87877e-07
6.88127e-07
6.88615e-07
6.8887e-07
6.89357e-07
6.89616e-07
6.90101e-07
6.90367e-07
6.9085e-07
6.9112e-07
6.91602e-07
6.91878e-07
6.92358e-07
6.92638e-07
6.92879e-07
6.9326e-07
7.03413e-07
6.96445e-07
6.97051e-07
6.97302e-07
6.97801e-07
6.98055e-07
6.98553e-07
6.98812e-07
6.99309e-07
6.99574e-07
7.00068e-07
7.00339e-07
7.00831e-07
7.01107e-07
7.01598e-07
7.01879e-07
7.02369e-07
7.02655e-07
7.029e-07
7.03288e-07
7.10143e-07
7.03085e-07
7.03698e-07
7.03952e-07
7.04457e-07
7.04715e-07
7.05219e-07
7.05482e-07
7.05985e-07
7.06253e-07
7.06754e-07
7.07028e-07
7.07527e-07
7.07807e-07
7.08304e-07
7.08589e-07
7.09085e-07
7.09374e-07
7.09623e-07
7.10016e-07
7.14604e-07
7.07486e-07
7.08105e-07
7.0836e-07
7.0887e-07
7.0913e-07
7.09639e-07
7.09903e-07
7.1041e-07
7.10681e-07
7.11186e-07
7.11463e-07
7.11965e-07
7.12248e-07
7.12749e-07
7.13036e-07
7.13537e-07
7.13829e-07
7.14079e-07
7.14476e-07
7.17693e-07
7.10533e-07
7.11155e-07
7.11412e-07
7.11925e-07
7.12186e-07
7.12698e-07
7.12965e-07
7.13475e-07
7.13747e-07
7.14255e-07
7.14533e-07
7.15039e-07
7.15322e-07
7.15827e-07
7.16116e-07
7.16619e-07
7.16913e-07
7.17165e-07
7.17564e-07
7.20052e-07
7.1286e-07
7.13485e-07
7.13743e-07
7.14259e-07
7.14521e-07
7.15035e-07
7.15303e-07
7.15815e-07
7.16088e-07
7.16598e-07
7.16878e-07
7.17386e-07
7.17671e-07
7.18178e-07
7.18468e-07
7.18973e-07
7.19268e-07
7.19521e-07
7.19922e-07
7.22094e-07
7.14875e-07
7.15503e-07
7.15762e-07
7.16279e-07
7.16542e-07
7.17058e-07
7.17327e-07
7.17841e-07
7.18115e-07
7.18627e-07
7.18908e-07
7.19418e-07
7.19704e-07
7.20213e-07
7.20504e-07
7.21011e-07
7.21307e-07
7.21562e-07
7.21964e-07
7.24066e-07
7.16821e-07
7.17451e-07
7.17711e-07
7.1823e-07
7.18494e-07
7.19012e-07
7.19281e-07
7.19797e-07
7.20073e-07
7.20587e-07
7.20868e-07
7.2138e-07
7.21667e-07
7.22178e-07
7.2247e-07
7.22979e-07
7.23276e-07
7.23532e-07
7.23935e-07
7.26103e-07
7.18829e-07
7.19461e-07
7.19722e-07
7.20243e-07
7.20509e-07
7.21028e-07
7.21299e-07
7.21817e-07
7.22094e-07
7.22609e-07
7.22892e-07
7.23406e-07
7.23694e-07
7.24206e-07
7.245e-07
7.25011e-07
7.25309e-07
7.25565e-07
7.2597e-07
7.28252e-07
7.2095e-07
7.21585e-07
7.21847e-07
7.2237e-07
7.22636e-07
7.23158e-07
7.2343e-07
7.2395e-07
7.24228e-07
7.24745e-07
7.25029e-07
7.25545e-07
7.25834e-07
7.26349e-07
7.26643e-07
7.27156e-07
7.27456e-07
7.27713e-07
7.2812e-07
7.30488e-07
7.23157e-07
7.23794e-07
7.24057e-07
7.24582e-07
7.2485e-07
7.25374e-07
7.25646e-07
7.26168e-07
7.26447e-07
7.26967e-07
7.27252e-07
7.2777e-07
7.2806e-07
7.28577e-07
7.28873e-07
7.29388e-07
7.29689e-07
7.29947e-07
7.30355e-07
7.32699e-07
7.25338e-07
7.25978e-07
7.26242e-07
7.26769e-07
7.27037e-07
7.27563e-07
7.27837e-07
7.28361e-07
7.28641e-07
7.29163e-07
7.29449e-07
7.29969e-07
7.30261e-07
7.30779e-07
7.31076e-07
7.31594e-07
7.31896e-07
7.32155e-07
7.32565e-07
7.3469e-07
7.27305e-07
7.27946e-07
7.28211e-07
7.2874e-07
7.29009e-07
7.29537e-07
7.29812e-07
7.30338e-07
7.30619e-07
7.31142e-07
7.31429e-07
7.31951e-07
7.32244e-07
7.32764e-07
7.33062e-07
7.33581e-07
7.33884e-07
7.34144e-07
7.34556e-07
7.36216e-07
7.28949e-07
7.29569e-07
7.29826e-07
7.3034e-07
7.30603e-07
7.31116e-07
7.31387e-07
7.319e-07
7.32178e-07
7.3269e-07
7.32977e-07
7.33488e-07
7.33783e-07
7.34294e-07
7.34596e-07
7.35107e-07
7.35416e-07
7.35673e-07
7.36085e-07
7.36922e-07
7.36922e-07
7.36921e-07
7.36922e-07
7.3692e-07
7.36921e-07
7.3692e-07
7.36921e-07
7.36921e-07
7.3692e-07
7.3692e-07
7.3692e-07
7.3692e-07
7.3692e-07
7.3692e-07
7.3692e-07
7.3692e-07
7.3692e-07
7.3692e-07
7.3692e-07
)
;

boundaryField
{
    movingWall
    {
        type            zeroGradient;
    }
    fixedWalls
    {
        type            zeroGradient;
    }
    frontAndBack
    {
        type            empty;
    }
}


// ************************************************************************* //
