/*--------------------------------*- C++ -*----------------------------------*\
| =========                 |                                                 |
| \\      /  F ield         | OpenFOAM: The Open Source CFD Toolbox           |
|  \\    /   O peration     | Version:  2506                                  |
|   \\  /    A nd           | Website:  www.openfoam.com                      |
|    \\/     M anipulation  |                                                 |
\*---------------------------------------------------------------------------*/
FoamFile
{
    version     2.0;
    format      ascii;
    arch        "LSB;label=32;scalar=64";
    class       volVectorField;
    location    "6.25";
    object      diffU;
}
// * * * * * * * * * * * * * * * * * * * * * * * * * * * * * * * * * * * * * //

dimensions      [0 1 -1 0 0 0 0];

internalField   nonuniform List<vector> 
400
(
(0 0 0)
(1.82077e-14 -1.44972e-13 0)
(1.36557e-14 -1.13385e-13 0)
(1.39888e-14 -1.20798e-13 0)
(1.37668e-14 -1.19223e-13 0)
(1.36557e-14 -1.19624e-13 0)
(1.35447e-14 -1.1958e-13 0)
(1.36557e-14 -1.19631e-13 0)
(1.35447e-14 -1.19628e-13 0)
(1.37668e-14 -1.19573e-13 0)
(1.34337e-14 -1.19451e-13 0)
(1.34337e-14 -1.19455e-13 0)
(1.33227e-14 -1.19518e-13 0)
(1.31006e-14 -1.19637e-13 0)
(1.32117e-14 -1.19701e-13 0)
(1.33227e-14 -1.19576e-13 0)
(1.31006e-14 -1.19552e-13 0)
(1.31006e-14 -1.19612e-13 0)
(1.28786e-14 -1.19633e-13 0)
(1.28786e-14 -1.19652e-13 0)
(3.79696e-14 -9.73183e-14 0)
(5.55112e-15 -1.23578e-13 0)
(1.26565e-14 -1.18286e-13 0)
(1.19904e-14 -1.19759e-13 0)
(1.24345e-14 -1.19481e-13 0)
(1.24345e-14 -1.19488e-13 0)
(1.24345e-14 -1.19599e-13 0)
(1.24345e-14 -1.1971e-13 0)
(1.26565e-14 -1.19715e-13 0)
(1.26565e-14 -1.19521e-13 0)
(1.26565e-14 -1.19386e-13 0)
(1.26565e-14 -1.19496e-13 0)
(1.26565e-14 -1.1964e-13 0)
(1.31006e-14 -1.19706e-13 0)
(1.31006e-14 -1.19626e-13 0)
(1.31006e-14 -1.19523e-13 0)
(1.31006e-14 -1.19507e-13 0)
(1.32117e-14 -1.19527e-13 0)
(1.31006e-14 -1.19587e-13 0)
(1.31006e-14 -1.19673e-13 0)
(-1.33227e-15 -2.41797e-13 0)
(1.55431e-14 -9.29616e-14 0)
(1.17684e-14 -1.25752e-13 0)
(1.31006e-14 -1.18184e-13 0)
(1.26565e-14 -1.19785e-13 0)
(1.26565e-14 -1.19447e-13 0)
(1.26565e-14 -1.19658e-13 0)
(1.31006e-14 -1.19683e-13 0)
(1.24345e-14 -1.19687e-13 0)
(1.26565e-14 -1.19679e-13 0)
(1.28786e-14 -1.19677e-13 0)
(1.33227e-14 -1.19684e-13 0)
(1.31006e-14 -1.19651e-13 0)
(1.31006e-14 -1.1961e-13 0)
(1.26565e-14 -1.19568e-13 0)
(1.28786e-14 -1.1965e-13 0)
(1.26565e-14 -1.19674e-13 0)
(1.28786e-14 -1.19633e-13 0)
(1.28786e-14 -1.19657e-13 0)
(1.31006e-14 -1.19668e-13 0)
(4.44089e-16 -3.02627e-14 0)
(1.63203e-14 -1.39575e-13 0)
(1.26565e-14 -1.15161e-13 0)
(1.28786e-14 -1.20737e-13 0)
(1.28786e-14 -1.19477e-13 0)
(1.33227e-14 -1.19775e-13 0)
(1.33227e-14 -1.19668e-13 0)
(1.32117e-14 -1.19676e-13 0)
(1.32117e-14 -1.19712e-13 0)
(1.35447e-14 -1.1977e-13 0)
(1.33227e-14 -1.19771e-13 0)
(1.33227e-14 -1.19721e-13 0)
(1.34337e-14 -1.19549e-13 0)
(1.33227e-14 -1.1948e-13 0)
(1.32117e-14 -1.19554e-13 0)
(1.35447e-14 -1.19623e-13 0)
(1.34337e-14 -1.19606e-13 0)
(1.31006e-14 -1.19664e-13 0)
(1.33227e-14 -1.19713e-13 0)
(1.32117e-14 -1.1967e-13 0)
(3.66374e-14 -1.20063e-13 0)
(8.43769e-15 -1.18724e-13 0)
(1.43219e-14 -1.19804e-13 0)
(1.37668e-14 -1.1949e-13 0)
(1.36557e-14 -1.19646e-13 0)
(1.33227e-14 -1.19634e-13 0)
(1.33227e-14 -1.19611e-13 0)
(1.33227e-14 -1.19645e-13 0)
(1.33227e-14 -1.1976e-13 0)
(1.35447e-14 -1.19723e-13 0)
(1.33227e-14 -1.19708e-13 0)
(1.32117e-14 -1.19728e-13 0)
(1.32117e-14 -1.19566e-13 0)
(1.32117e-14 -1.19485e-13 0)
(1.32117e-14 -1.19513e-13 0)
(1.31006e-14 -1.19578e-13 0)
(1.32117e-14 -1.19556e-13 0)
(1.28786e-14 -1.19585e-13 0)
(1.31006e-14 -1.19644e-13 0)
(1.32117e-14 -1.19646e-13 0)
(-8.43769e-15 -2.055e-13 0)
(1.79856e-14 -1.01037e-13 0)
(1.19904e-14 -1.23828e-13 0)
(1.31006e-14 -1.18682e-13 0)
(1.28786e-14 -1.19877e-13 0)
(1.31006e-14 -1.19724e-13 0)
(1.35447e-14 -1.19808e-13 0)
(1.38778e-14 -1.1975e-13 0)
(1.37668e-14 -1.19791e-13 0)
(1.37668e-14 -1.19713e-13 0)
(1.37668e-14 -1.19622e-13 0)
(1.36557e-14 -1.19526e-13 0)
(1.34337e-14 -1.19435e-13 0)
(1.35447e-14 -1.19479e-13 0)
(1.33227e-14 -1.19513e-13 0)
(1.35447e-14 -1.19556e-13 0)
(1.33227e-14 -1.19621e-13 0)
(1.32117e-14 -1.19593e-13 0)
(1.34337e-14 -1.19596e-13 0)
(1.33227e-14 -1.19625e-13 0)
(2.15383e-14 -4.38821e-15 0)
(1.24345e-14 -1.44633e-13 0)
(1.43219e-14 -1.1374e-13 0)
(1.32117e-14 -1.2103e-13 0)
(1.32117e-14 -1.1958e-13 0)
(1.34337e-14 -1.1992e-13 0)
(1.31006e-14 -1.19822e-13 0)
(1.33227e-14 -1.19745e-13 0)
(1.31006e-14 -1.19617e-13 0)
(1.26565e-14 -1.19508e-13 0)
(1.24345e-14 -1.19586e-13 0)
(1.26565e-14 -1.19623e-13 0)
(1.32117e-14 -1.19555e-13 0)
(1.32117e-14 -1.19498e-13 0)
(1.32117e-14 -1.19411e-13 0)
(1.32117e-14 -1.19382e-13 0)
(1.32117e-14 -1.19491e-13 0)
(1.31006e-14 -1.19483e-13 0)
(1.31006e-14 -1.19546e-13 0)
(1.32117e-14 -1.19608e-13 0)
(1.70974e-14 -1.60441e-13 0)
(1.04361e-14 -1.10191e-13 0)
(1.19904e-14 -1.21636e-13 0)
(1.31006e-14 -1.1908e-13 0)
(1.28786e-14 -1.19793e-13 0)
(1.26565e-14 -1.19724e-13 0)
(1.24345e-14 -1.19702e-13 0)
(1.24345e-14 -1.19654e-13 0)
(1.22125e-14 -1.1954e-13 0)
(1.26565e-14 -1.19422e-13 0)
(1.24345e-14 -1.19568e-13 0)
(1.24345e-14 -1.19745e-13 0)
(1.22125e-14 -1.19791e-13 0)
(1.24345e-14 -1.19632e-13 0)
(1.26565e-14 -1.19491e-13 0)
(1.28786e-14 -1.19453e-13 0)
(1.31006e-14 -1.19477e-13 0)
(1.31006e-14 -1.19535e-13 0)
(1.31006e-14 -1.19617e-13 0)
(1.32117e-14 -1.19575e-13 0)
(9.99201e-15 -1.72325e-13 0)
(1.46549e-14 -1.0819e-13 0)
(1.35447e-14 -1.22291e-13 0)
(1.26565e-14 -1.18974e-13 0)
(1.28786e-14 -1.19768e-13 0)
(1.26565e-14 -1.19669e-13 0)
(1.24345e-14 -1.1966e-13 0)
(1.26565e-14 -1.19601e-13 0)
(1.24345e-14 -1.19616e-13 0)
(1.24345e-14 -1.1964e-13 0)
(1.31006e-14 -1.19591e-13 0)
(1.31006e-14 -1.19606e-13 0)
(1.28786e-14 -1.19775e-13 0)
(1.26565e-14 -1.19796e-13 0)
(1.28786e-14 -1.19761e-13 0)
(1.32117e-14 -1.19703e-13 0)
(1.31006e-14 -1.19605e-13 0)
(1.34337e-14 -1.19592e-13 0)
(1.31006e-14 -1.19547e-13 0)
(1.32117e-14 -1.19574e-13 0)
(7.10543e-15 -2.15013e-14 0)
(1.37668e-14 -1.41222e-13 0)
(1.24345e-14 -1.14719e-13 0)
(1.32117e-14 -1.20641e-13 0)
(1.34337e-14 -1.1929e-13 0)
(1.33227e-14 -1.19582e-13 0)
(1.33227e-14 -1.19497e-13 0)
(1.31006e-14 -1.19464e-13 0)
(1.32117e-14 -1.19493e-13 0)
(1.32117e-14 -1.19723e-13 0)
(1.31006e-14 -1.19781e-13 0)
(1.32117e-14 -1.19747e-13 0)
(1.35447e-14 -1.19736e-13 0)
(1.34337e-14 -1.19774e-13 0)
(1.31006e-14 -1.19769e-13 0)
(1.31006e-14 -1.19777e-13 0)
(1.28786e-14 -1.19749e-13 0)
(1.28786e-14 -1.19651e-13 0)
(1.31006e-14 -1.19538e-13 0)
(1.31006e-14 -1.196e-13 0)
(1.69864e-14 -2.11602e-13 0)
(1.26565e-14 -9.995e-14 0)
(1.37668e-14 -1.24185e-13 0)
(1.34337e-14 -1.18746e-13 0)
(1.32117e-14 -1.19917e-13 0)
(1.34337e-14 -1.19611e-13 0)
(1.32117e-14 -1.19561e-13 0)
(1.36557e-14 -1.1958e-13 0)
(1.37668e-14 -1.19613e-13 0)
(1.37668e-14 -1.19699e-13 0)
(1.39888e-14 -1.19808e-13 0)
(1.38778e-14 -1.19804e-13 0)
(1.36557e-14 -1.19783e-13 0)
(1.35447e-14 -1.19698e-13 0)
(1.33227e-14 -1.19528e-13 0)
(1.34337e-14 -1.1957e-13 0)
(1.32117e-14 -1.19569e-13 0)
(1.32117e-14 -1.19565e-13 0)
(1.31006e-14 -1.19603e-13 0)
(1.32117e-14 -1.19605e-13 0)
(1.79856e-14 -6.32459e-14 0)
(1.35447e-14 -1.31292e-13 0)
(1.4766e-14 -1.16818e-13 0)
(1.36557e-14 -1.20111e-13 0)
(1.38778e-14 -1.19313e-13 0)
(1.34337e-14 -1.19539e-13 0)
(1.33227e-14 -1.19596e-13 0)
(1.33227e-14 -1.19656e-13 0)
(1.32117e-14 -1.19663e-13 0)
(1.31006e-14 -1.19656e-13 0)
(1.28786e-14 -1.19648e-13 0)
(1.28786e-14 -1.19576e-13 0)
(1.28786e-14 -1.19664e-13 0)
(1.24345e-14 -1.19615e-13 0)
(1.26565e-14 -1.19575e-13 0)
(1.28786e-14 -1.1954e-13 0)
(1.26565e-14 -1.19559e-13 0)
(1.31006e-14 -1.1959e-13 0)
(1.31006e-14 -1.19578e-13 0)
(1.32117e-14 -1.19561e-13 0)
(5.77316e-15 -1.05217e-13 0)
(1.24345e-14 -1.23101e-13 0)
(1.08802e-14 -1.18973e-13 0)
(1.22125e-14 -1.19903e-13 0)
(1.22125e-14 -1.19556e-13 0)
(1.28786e-14 -1.19485e-13 0)
(1.26565e-14 -1.19523e-13 0)
(1.26565e-14 -1.19517e-13 0)
(1.24345e-14 -1.19535e-13 0)
(1.26565e-14 -1.1956e-13 0)
(1.24345e-14 -1.19551e-13 0)
(1.28786e-14 -1.1955e-13 0)
(1.31006e-14 -1.19512e-13 0)
(1.26565e-14 -1.19535e-13 0)
(1.28786e-14 -1.19734e-13 0)
(1.26565e-14 -1.19753e-13 0)
(1.28786e-14 -1.19775e-13 0)
(1.31006e-14 -1.19779e-13 0)
(1.26565e-14 -1.19729e-13 0)
(1.28786e-14 -1.19653e-13 0)
(1.84297e-14 -1.97761e-13 0)
(1.28786e-14 -1.02914e-13 0)
(1.38778e-14 -1.23544e-13 0)
(1.31006e-14 -1.18822e-13 0)
(1.28786e-14 -1.1989e-13 0)
(1.28786e-14 -1.19611e-13 0)
(1.26565e-14 -1.19664e-13 0)
(1.28786e-14 -1.1966e-13 0)
(1.31006e-14 -1.197e-13 0)
(1.31006e-14 -1.1972e-13 0)
(1.34337e-14 -1.19653e-13 0)
(1.32117e-14 -1.19639e-13 0)
(1.33227e-14 -1.19565e-13 0)
(1.33227e-14 -1.19609e-13 0)
(1.35447e-14 -1.19707e-13 0)
(1.34337e-14 -1.19786e-13 0)
(1.34337e-14 -1.19737e-13 0)
(1.34337e-14 -1.19613e-13 0)
(1.33227e-14 -1.1967e-13 0)
(1.32117e-14 -1.19739e-13 0)
(6.21725e-15 -2.20344e-14 0)
(1.46549e-14 -1.40618e-13 0)
(1.26565e-14 -1.14778e-13 0)
(1.32117e-14 -1.20644e-13 0)
(1.31006e-14 -1.19331e-13 0)
(1.34337e-14 -1.19671e-13 0)
(1.33227e-14 -1.19715e-13 0)
(1.33227e-14 -1.19731e-13 0)
(1.35447e-14 -1.19669e-13 0)
(1.33227e-14 -1.19675e-13 0)
(1.32117e-14 -1.19616e-13 0)
(1.32117e-14 -1.19651e-13 0)
(1.35447e-14 -1.1966e-13 0)
(1.34337e-14 -1.19648e-13 0)
(1.33227e-14 -1.19552e-13 0)
(1.32117e-14 -1.19519e-13 0)
(1.28786e-14 -1.19566e-13 0)
(1.28786e-14 -1.19573e-13 0)
(1.31006e-14 -1.19603e-13 0)
(1.31006e-14 -1.19682e-13 0)
(2.33147e-14 -1.79679e-13 0)
(9.99201e-15 -1.0665e-13 0)
(1.31006e-14 -1.22659e-13 0)
(1.26565e-14 -1.18953e-13 0)
(1.26565e-14 -1.19842e-13 0)
(1.28786e-14 -1.19643e-13 0)
(1.24345e-14 -1.19662e-13 0)
(1.24345e-14 -1.19701e-13 0)
(1.22125e-14 -1.19713e-13 0)
(1.24345e-14 -1.19715e-13 0)
(1.26565e-14 -1.19696e-13 0)
(1.26565e-14 -1.19705e-13 0)
(1.28786e-14 -1.19626e-13 0)
(1.26565e-14 -1.19558e-13 0)
(1.28786e-14 -1.19496e-13 0)
(1.28786e-14 -1.19562e-13 0)
(1.31006e-14 -1.19598e-13 0)
(1.31006e-14 -1.19663e-13 0)
(1.32117e-14 -1.19649e-13 0)
(1.31006e-14 -1.1967e-13 0)
(-3.9968e-15 -1.41026e-13 0)
(1.78746e-14 -1.15286e-13 0)
(1.28786e-14 -1.20528e-13 0)
(1.35447e-14 -1.1932e-13 0)
(1.33227e-14 -1.19599e-13 0)
(1.35447e-14 -1.19476e-13 0)
(1.35447e-14 -1.19353e-13 0)
(1.35447e-14 -1.19477e-13 0)
(1.33227e-14 -1.19762e-13 0)
(1.32117e-14 -1.19848e-13 0)
(1.31006e-14 -1.19761e-13 0)
(1.31006e-14 -1.19683e-13 0)
(1.26565e-14 -1.19749e-13 0)
(1.26565e-14 -1.19765e-13 0)
(1.28786e-14 -1.19786e-13 0)
(1.31006e-14 -1.19767e-13 0)
(1.31006e-14 -1.19643e-13 0)
(1.28786e-14 -1.19645e-13 0)
(1.31006e-14 -1.19635e-13 0)
(1.31006e-14 -1.19648e-13 0)
(1.63203e-14 -2.16465e-14 0)
(1.24345e-14 -1.40678e-13 0)
(1.35447e-14 -1.1462e-13 0)
(1.32117e-14 -1.2077e-13 0)
(1.32117e-14 -1.19393e-13 0)
(1.32117e-14 -1.19697e-13 0)
(1.33227e-14 -1.19614e-13 0)
(1.36557e-14 -1.19597e-13 0)
(1.38778e-14 -1.1964e-13 0)
(1.35447e-14 -1.1964e-13 0)
(1.36557e-14 -1.19567e-13 0)
(1.36557e-14 -1.19504e-13 0)
(1.37668e-14 -1.19613e-13 0)
(1.35447e-14 -1.19706e-13 0)
(1.32117e-14 -1.19725e-13 0)
(1.32117e-14 -1.19584e-13 0)
(1.31006e-14 -1.19452e-13 0)
(1.31006e-14 -1.19573e-13 0)
(1.28786e-14 -1.19722e-13 0)
(1.31006e-14 -1.19676e-13 0)
(3.80806e-14 -1.61784e-13 0)
(6.88338e-15 -1.1041e-13 0)
(1.38778e-14 -1.21766e-13 0)
(1.31006e-14 -1.19208e-13 0)
(1.31006e-14 -1.19752e-13 0)
(1.32117e-14 -1.19739e-13 0)
(1.32117e-14 -1.1983e-13 0)
(1.28786e-14 -1.19776e-13 0)
(1.28786e-14 -1.19634e-13 0)
(1.26565e-14 -1.19561e-13 0)
(1.26565e-14 -1.19589e-13 0)
(1.28786e-14 -1.1952e-13 0)
(1.28786e-14 -1.19499e-13 0)
(1.26565e-14 -1.1954e-13 0)
(1.26565e-14 -1.19613e-13 0)
(1.28786e-14 -1.19621e-13 0)
(1.28786e-14 -1.19545e-13 0)
(1.28786e-14 -1.19578e-13 0)
(1.32117e-14 -1.19707e-13 0)
(1.32117e-14 -1.19655e-13 0)
(-1.55431e-15 -2.04495e-13 0)
(1.70974e-14 -1.01356e-13 0)
(1.31006e-14 -1.24e-13 0)
(1.33227e-14 -1.18722e-13 0)
(1.33227e-14 -1.19802e-13 0)
(1.32117e-14 -1.19489e-13 0)
(1.32117e-14 -1.19503e-13 0)
(1.31006e-14 -1.19518e-13 0)
(1.32117e-14 -1.19553e-13 0)
(1.32117e-14 -1.19584e-13 0)
(1.31006e-14 -1.19643e-13 0)
(1.32117e-14 -1.19643e-13 0)
(1.31006e-14 -1.1965e-13 0)
(1.32117e-14 -1.19657e-13 0)
(1.32117e-14 -1.19715e-13 0)
(1.32117e-14 -1.19717e-13 0)
(1.28786e-14 -1.1967e-13 0)
(1.28786e-14 -1.19635e-13 0)
(1.33227e-14 -1.19633e-13 0)
(1.32117e-14 -1.19603e-13 0)
)
;

boundaryField
{
    movingWall
    {
        type            calculated;
        value           uniform (1.31006e-14 -1.19609e-13 0);
    }
    fixedWalls
    {
        type            calculated;
        value           uniform (1.31006e-14 -1.19609e-13 0);
    }
    frontAndBack
    {
        type            empty;
    }
}


// ************************************************************************* //
