/*--------------------------------*- C++ -*----------------------------------*\
| =========                 |                                                 |
| \\      /  F ield         | OpenFOAM: The Open Source CFD Toolbox           |
|  \\    /   O peration     | Version:  2506                                  |
|   \\  /    A nd           | Website:  www.openfoam.com                      |
|    \\/     M anipulation  |                                                 |
\*---------------------------------------------------------------------------*/
FoamFile
{
    version     2.0;
    format      ascii;
    arch        "LSB;label=32;scalar=64";
    class       volScalarField;
    location    "6.25";
    object      divPhi;
}
// * * * * * * * * * * * * * * * * * * * * * * * * * * * * * * * * * * * * * //

dimensions      [0 0 -1 0 0 0 0];

internalField   nonuniform List<scalar> 
400
(
1.35525e-13
5.42817e-15
4.56902e-15
4.50118e-15
-9.63893e-15
9.84631e-15
-1.12757e-14
-2.41118e-15
-2.79884e-15
1.89686e-15
5.95842e-15
1.77189e-14
-1.01007e-14
-1.47307e-14
1.55034e-14
4.19092e-15
-5.34649e-15
4.53712e-15
3.72686e-15
-2.71051e-14
0
3.02631e-14
-7.53267e-15
-7.53184e-16
-1.41432e-14
2.72351e-16
-9.31571e-15
-1.71077e-14
2.1145e-14
2.66392e-15
-5.02813e-15
-1.35171e-14
-1.5349e-14
2.2259e-14
-2.5284e-15
7.89395e-15
-2.65925e-14
1.24628e-14
7.11366e-15
2.71051e-14
0
-1.16837e-14
-2.01465e-14
2.18694e-14
2.74097e-14
1.11417e-14
-1.27171e-14
2.06637e-15
-9.31755e-15
-1.96534e-14
2.48618e-14
-2.15061e-14
4.82576e-15
-8.07576e-15
-1.0738e-14
1.90245e-15
-1.08453e-14
1.02379e-14
2.67212e-14
-2.71051e-14
2.71051e-14
-4.15793e-14
9.23008e-15
-2.07038e-14
-2.0772e-14
1.69005e-14
-1.1838e-14
-8.7555e-15
-9.44697e-16
3.1468e-14
-1.92378e-14
7.64354e-15
1.15328e-14
-4.66791e-16
-1.64604e-14
1.31871e-14
-1.55619e-14
6.905e-15
-7.75005e-15
2.71051e-14
0
1.96358e-14
5.05951e-15
5.34135e-15
1.2217e-14
-2.60443e-14
-4.61742e-15
-7.80859e-15
2.30872e-14
-1.24617e-15
-1.07574e-14
-1.22061e-14
1.2273e-14
-4.04357e-15
-6.82786e-15
1.37981e-14
2.87283e-14
-1.68043e-15
-1.10538e-14
0
0
-1.00553e-14
9.08046e-15
-9.429e-15
5.9031e-15
2.01512e-15
-2.35069e-15
1.73363e-14
-2.72407e-14
1.91831e-14
-7.20277e-15
-3.64833e-14
3.8494e-14
-1.3602e-15
-2.21487e-14
3.90111e-15
1.11166e-14
-1.31291e-14
-7.75664e-15
0
-2.71051e-14
-1.46782e-14
1.68734e-14
-1.09417e-14
-6.09124e-15
1.24314e-14
-1.55767e-15
-1.34594e-14
1.89632e-14
-1.48038e-14
1.0875e-15
-6.19898e-15
4.0708e-15
-1.44082e-14
9.44714e-16
2.04078e-14
-2.74326e-15
-3.37043e-15
-2.36019e-14
0
2.71051e-14
2.09951e-14
-1.66995e-14
3.08633e-16
-4.15284e-14
4.39401e-14
-2.26664e-15
-3.2726e-14
-1.04183e-14
-6.487e-15
2.71879e-14
-2.63731e-14
1.82364e-14
2.61015e-14
6.50327e-15
-2.70184e-14
1.67229e-14
-2.26906e-14
-5.61321e-15
0
-2.71051e-14
-9.21369e-15
-1.80573e-14
3.32843e-14
2.87546e-15
-8.31449e-15
-5.8096e-15
-1.66221e-14
-9.65482e-15
1.14981e-15
-1.69083e-15
-7.66085e-15
-2.10485e-14
8.14238e-16
8.92623e-15
-1.06701e-14
-1.62237e-14
-2.3123e-14
-1.9416e-15
0
2.71051e-14
-2.72039e-14
2.83111e-14
-7.64757e-15
3.10259e-14
2.39767e-15
-9.46493e-15
2.75298e-14
9.28034e-16
1.59754e-14
-4e-15
-2.11094e-14
-1.12032e-14
-7.07886e-15
-1.37266e-15
-2.67598e-14
1.77175e-14
1.83799e-14
2.28852e-15
0
0
-3.35351e-15
-1.28383e-14
-1.00606e-14
-8.1173e-16
1.68505e-17
-1.6806e-14
1.84401e-14
-2.4084e-14
8.50956e-15
-7.01449e-15
1.68018e-14
-1.70919e-14
-5.89253e-15
-7.0659e-15
6.94817e-15
-1.64475e-14
-8.2552e-15
1.08763e-14
0
-2.71051e-14
2.04984e-14
-2.25886e-14
-3.52326e-14
1.83142e-14
-2.26273e-14
7.14448e-15
5.45456e-15
-1.75563e-14
2.83384e-14
-1.85537e-14
-1.02716e-14
2.28385e-14
2.03635e-15
-2.55152e-14
-8.02699e-15
1.14693e-14
-2.69089e-14
-1.35924e-14
2.71051e-14
2.71051e-14
-1.04188e-14
-1.85826e-14
5.52703e-15
-1.38461e-14
5.84563e-15
6.75098e-15
1.19264e-14
-2.56869e-15
-3.45812e-15
4.31268e-15
1.75126e-14
-9.68065e-15
9.84367e-15
-1.55271e-14
-4.89627e-15
3.08554e-15
1.15726e-14
1.50879e-15
-2.71051e-14
0
-4.78054e-15
-1.67928e-14
4.09433e-15
1.72316e-14
-2.5132e-15
-1.73637e-14
2.66989e-14
-2.13048e-14
1.87942e-15
9.904e-15
2.53865e-16
-2.3346e-14
2.85649e-14
-5.33059e-15
9.57988e-15
8.36073e-15
3.89772e-14
7.98963e-15
2.71051e-14
0
-8.71459e-15
2.41199e-14
1.17198e-14
-3.90428e-14
1.52808e-14
4.8093e-15
6.08126e-15
2.05761e-14
1.37792e-14
7.83041e-15
1.25646e-14
-4.51158e-15
-5.18075e-15
1.77118e-14
7.80861e-16
1.46539e-14
1.94014e-14
-1.18274e-14
-2.71051e-14
2.71051e-14
-2.49296e-14
3.97624e-18
-7.22677e-16
-5.2333e-15
-1.3425e-14
2.74281e-14
4.77025e-16
-1.01419e-14
-3.35763e-14
1.44849e-14
9.98742e-16
5.35155e-16
-7.31922e-15
-2.17772e-14
1.4262e-14
-3.13816e-14
1.26586e-14
-3.1515e-14
2.71051e-14
-2.71051e-14
2.3903e-14
8.2202e-15
-3.3472e-16
-1.94341e-14
-2.35129e-15
1.30508e-15
3.05136e-15
-1.04873e-14
-1.90346e-15
-1.51178e-16
-8.72505e-15
-5.64288e-15
2.98124e-15
8.60802e-15
-1.89969e-14
1.05159e-14
2.53451e-14
-1.66184e-14
0
-2.71051e-14
2.1315e-14
-1.63744e-14
-6.36283e-16
-1.51584e-14
5.93805e-15
-6.76444e-15
-1.64788e-15
-7.51508e-15
3.6357e-15
1.48224e-15
-1.60987e-14
-1.52429e-14
2.23492e-14
-2.23732e-15
3.39095e-14
-5.24034e-16
-6.4275e-15
3.66322e-14
-2.71051e-14
0
5.77325e-16
-1.77612e-15
1.56003e-14
-4.49275e-15
2.18863e-15
-2.39827e-15
-1.47122e-15
-2.19067e-14
8.94548e-15
-1.40205e-15
7.27897e-15
2.98126e-14
4.12455e-15
-1.71517e-14
7.58857e-15
-2.16821e-15
-3.2365e-14
3.97192e-14
0
0
2.71051e-14
-2.71051e-14
0
-2.71051e-14
2.71051e-14
-2.71051e-14
2.71051e-14
0
0
-2.71051e-14
0
2.71051e-14
0
0
2.71051e-14
0
0
2.71051e-14
0
)
;

boundaryField
{
    movingWall
    {
        type            extrapolatedCalculated;
        value           nonuniform List<scalar> 
20
(
0
2.71051e-14
-2.71051e-14
0
-2.71051e-14
2.71051e-14
-2.71051e-14
2.71051e-14
0
0
-2.71051e-14
0
2.71051e-14
0
0
2.71051e-14
0
0
2.71051e-14
0
)
;
    }
    fixedWalls
    {
        type            extrapolatedCalculated;
        value           nonuniform List<scalar> 
60
(
1.35525e-13
0
0
2.71051e-14
0
0
-2.71051e-14
2.71051e-14
-2.71051e-14
2.71051e-14
0
-2.71051e-14
2.71051e-14
0
0
2.71051e-14
-2.71051e-14
-2.71051e-14
0
0
-2.71051e-14
2.71051e-14
-2.71051e-14
2.71051e-14
0
0
0
0
0
0
0
2.71051e-14
-2.71051e-14
2.71051e-14
-2.71051e-14
2.71051e-14
0
-2.71051e-14
0
0
1.35525e-13
5.42817e-15
4.56902e-15
4.50118e-15
-9.63893e-15
9.84631e-15
-1.12757e-14
-2.41118e-15
-2.79884e-15
1.89686e-15
5.95842e-15
1.77189e-14
-1.01007e-14
-1.47307e-14
1.55034e-14
4.19092e-15
-5.34649e-15
4.53712e-15
3.72686e-15
-2.71051e-14
)
;
    }
    frontAndBack
    {
        type            empty;
    }
}


// ************************************************************************* //
