/*--------------------------------*- C++ -*----------------------------------*\
| =========                 |                                                 |
| \\      /  F ield         | OpenFOAM: The Open Source CFD Toolbox           |
|  \\    /   O peration     | Version:  2506                                  |
|   \\  /    A nd           | Website:  www.openfoam.com                      |
|    \\/     M anipulation  |                                                 |
\*---------------------------------------------------------------------------*/
FoamFile
{
    version     2.0;
    format      ascii;
    arch        "LSB;label=32;scalar=64";
    class       volScalarField;
    location    "6.25";
    object      divU;
}
// * * * * * * * * * * * * * * * * * * * * * * * * * * * * * * * * * * * * * //

dimensions      [0 0 -1 0 0 0 0];

internalField   nonuniform List<scalar> 
400
(
1.3417e-11
-1.57798e-12
3.482e-13
-1.33799e-13
-2.77731e-15
-1.64963e-14
3.10994e-14
-1.23106e-14
-1.24834e-14
1.24447e-14
-1.59941e-14
2.67309e-14
-2.10443e-14
-1.24325e-14
-1.08395e-14
1.18881e-14
-1.11636e-14
7.93909e-15
-5.4361e-14
5.42101e-14
-2.2443e-11
2.67442e-12
-6.44594e-13
2.63105e-13
-4.79941e-15
2.82752e-14
-3.82372e-15
-1.75314e-14
3.57963e-14
1.91089e-15
-1.15391e-14
-2.33429e-14
1.98215e-14
4.4512e-14
2.43924e-15
4.46815e-15
3.74753e-15
-2.12899e-14
-2.53804e-15
0
5.52943e-12
-3.07594e-13
7.45097e-14
-2.44954e-14
-3.14372e-14
-2.74944e-14
1.64096e-14
1.29528e-14
-1.8118e-14
-2.3026e-14
3.12158e-14
8.42812e-15
-2.52886e-14
-4.13119e-14
-1.74379e-14
-5.52648e-15
2.09896e-14
-7.8242e-15
3.9145e-14
0
1.12215e-11
-1.36595e-12
2.08584e-13
-1.00921e-13
6.37987e-14
3.51772e-14
-6.00843e-15
-1.03173e-14
2.8788e-14
-3.66059e-16
1.00141e-15
4.03721e-15
1.03136e-14
2.53125e-14
1.51987e-14
2.87889e-14
-2.14177e-14
-3.01243e-14
1.33097e-14
-2.71051e-14
-1.56667e-11
1.59338e-12
-3.32847e-13
1.58838e-13
-8.46105e-14
-1.39611e-14
-2.00432e-14
-1.76744e-14
-6.18959e-15
5.3494e-15
1.5915e-14
-3.62624e-15
2.17247e-14
-1.66129e-15
-3.49016e-14
8.45333e-15
4.17261e-15
3.99904e-15
2.4991e-14
0
9.89334e-12
-5.36722e-13
1.3803e-13
-7.64686e-14
3.278e-15
3.87382e-14
4.02178e-14
5.36735e-14
-1.89382e-14
2.68286e-14
1.00964e-15
-4.73159e-14
-4.25229e-15
-2.99919e-14
2.37618e-15
2.80307e-14
1.06059e-14
1.41988e-14
7.63471e-15
-5.42101e-14
5.28549e-12
-1.64184e-12
3.02981e-13
-1.43332e-13
3.86956e-14
1.16237e-14
-3.42351e-15
9.03251e-15
-4.80045e-14
1.72369e-15
6.42716e-15
1.21102e-14
4.14451e-14
-1.82021e-14
4.58941e-15
1.11976e-14
-2.12178e-15
-7.01833e-15
3.26572e-14
-2.71051e-14
-1.66425e-11
3.11372e-12
-5.7923e-13
3.33306e-13
-8.85359e-14
3.66865e-14
-4.15093e-14
2.34117e-14
6.2894e-15
4.27808e-14
-4.82981e-14
-4.04216e-14
1.94798e-14
3.32475e-14
-3.04254e-14
6.04812e-14
-1.35226e-14
-1.7909e-14
3.25546e-14
-2.71051e-14
1.36881e-11
-2.72703e-12
4.91939e-13
-2.29382e-13
4.31309e-14
2.38371e-14
3.32336e-14
1.5315e-14
-4.32567e-14
1.26338e-14
6.58867e-14
-6.77113e-14
-2.08963e-15
-3.51479e-14
5.01972e-14
9.53135e-16
-1.35696e-14
-2.95642e-14
-1.37661e-14
0
-4.44523e-12
1.37672e-12
-2.39638e-13
1.18703e-13
-2.59407e-14
2.50382e-15
-1.10143e-14
-9.70654e-15
1.12259e-14
6.67781e-15
-1.00206e-14
-6.19589e-15
-2.87842e-15
1.76662e-15
-3.49225e-14
-4.00049e-14
1.71328e-14
5.44059e-14
7.79658e-15
0
-3.82181e-12
6.62084e-13
-1.51375e-13
3.6134e-14
-1.17611e-15
6.83679e-15
-2.09625e-14
2.52999e-14
2.12983e-14
4.05046e-14
3.04169e-14
-4.33154e-14
-2.2857e-14
-3.66057e-14
1.14962e-14
1.07842e-14
-1.81086e-14
-2.084e-14
3.76459e-15
0
1.11673e-11
-2.6559e-12
5.59628e-13
-1.8798e-13
7.84314e-15
-3.47038e-14
9.94663e-15
4.47457e-15
-5.21705e-14
2.72989e-14
-2.5191e-14
3.6334e-14
4.17743e-15
-4.74278e-14
7.21937e-14
-7.46666e-15
-1.16161e-14
3.91118e-14
1.82685e-14
-2.71051e-14
-1.42302e-11
3.32613e-12
-6.8217e-13
2.3905e-13
5.8604e-14
-1.48525e-14
3.1846e-15
4.09578e-15
-1.65992e-15
-6.15999e-15
1.36617e-15
8.42412e-14
-4.01065e-14
-1.96875e-14
-2.22422e-14
-4.96194e-15
-2.93841e-14
9.77551e-15
-1.80643e-14
2.71051e-14
8.83625e-12
-2.22029e-12
4.42001e-13
-1.60311e-13
-2.73537e-14
-6.3868e-15
-1.60974e-14
3.69057e-14
-1.50743e-14
9.4779e-15
2.19792e-14
-7.23122e-15
-2.77456e-14
-3.85388e-15
2.30372e-14
1.83671e-14
1.86277e-14
3.04148e-14
-5.48768e-15
-2.71051e-14
1.24683e-12
2.7925e-13
-6.58375e-14
7.05505e-14
4.58346e-15
1.74953e-14
1.12334e-14
5.65758e-15
1.07029e-14
9.94957e-15
-3.65289e-14
1.33245e-14
-6.71025e-15
1.20631e-15
1.69582e-14
-4.05414e-14
-4.87608e-14
5.25342e-14
-3.34502e-15
2.71051e-14
-1.11944e-11
1.53857e-12
-3.42646e-13
9.45133e-14
-2.21821e-14
9.86146e-15
-6.77467e-15
-2.30825e-14
5.55631e-14
-7.3282e-15
3.03133e-14
1.01375e-14
1.15137e-14
-3.75635e-14
-6.43408e-15
1.59816e-14
-2.22029e-15
1.81434e-14
-3.36009e-14
0
1.45554e-11
-1.72872e-12
4.07025e-13
-1.41359e-13
4.97673e-14
3.16001e-14
-1.96987e-15
-1.26154e-14
-1.84247e-14
1.79778e-16
-1.09956e-14
-2.39513e-14
-1.42896e-14
-2.52156e-14
5.20226e-14
-1.3298e-14
1.23303e-14
4.3929e-17
-1.38583e-14
0
-1.81604e-12
1.95447e-13
-1.49102e-14
-2.16868e-14
-1.97806e-14
-2.17109e-14
4.60253e-15
1.1676e-14
2.15628e-14
-2.53313e-14
3.3291e-14
4.66196e-14
1.06929e-14
-2.98447e-14
-1.19085e-14
-2.57499e-14
2.21531e-14
6.75562e-15
6.01397e-15
0
-1.64257e-11
1.52556e-12
-3.02363e-13
1.28887e-13
-6.43205e-15
2.61956e-14
-1.14635e-14
-3.4633e-14
-2.39073e-14
7.41079e-15
-1.39085e-15
5.62259e-15
7.01642e-15
-2.49933e-14
1.61922e-14
-1.19668e-14
-2.6748e-14
5.46867e-14
4.20502e-14
-2.71051e-14
1.16552e-11
-1.27394e-12
2.71051e-13
-1.0842e-13
0
0
-2.71051e-14
2.71051e-14
0
0
-2.71051e-14
2.71051e-14
0
0
0
-2.71051e-14
-5.42101e-14
5.42101e-14
2.71051e-14
-2.71051e-14
)
;

boundaryField
{
    movingWall
    {
        type            extrapolatedCalculated;
        value           nonuniform List<scalar> 
20
(
1.16552e-11
-1.27394e-12
2.71051e-13
-1.0842e-13
0
0
-2.71051e-14
2.71051e-14
0
0
-2.71051e-14
2.71051e-14
0
0
0
-2.71051e-14
-5.42101e-14
5.42101e-14
2.71051e-14
-2.71051e-14
)
;
    }
    fixedWalls
    {
        type            extrapolatedCalculated;
        value           nonuniform List<scalar> 
60
(
1.3417e-11
-2.2443e-11
5.52943e-12
1.12215e-11
-1.56667e-11
9.89334e-12
5.28549e-12
-1.66425e-11
1.36881e-11
-4.44523e-12
-3.82181e-12
1.11673e-11
-1.42302e-11
8.83625e-12
1.24683e-12
-1.11944e-11
1.45554e-11
-1.81604e-12
-1.64257e-11
1.16552e-11
5.42101e-14
0
0
-2.71051e-14
0
-5.42101e-14
-2.71051e-14
-2.71051e-14
0
0
0
-2.71051e-14
2.71051e-14
-2.71051e-14
2.71051e-14
0
0
0
-2.71051e-14
-2.71051e-14
1.3417e-11
-1.57798e-12
3.482e-13
-1.33799e-13
-2.77731e-15
-1.64963e-14
3.10994e-14
-1.23106e-14
-1.24834e-14
1.24447e-14
-1.59941e-14
2.67309e-14
-2.10443e-14
-1.24325e-14
-1.08395e-14
1.18881e-14
-1.11636e-14
7.93909e-15
-5.4361e-14
5.42101e-14
)
;
    }
    frontAndBack
    {
        type            empty;
    }
}


// ************************************************************************* //
