/*--------------------------------*- C++ -*----------------------------------*\
| =========                 |                                                 |
| \\      /  F ield         | OpenFOAM: The Open Source CFD Toolbox           |
|  \\    /   O peration     | Version:  2506                                  |
|   \\  /    A nd           | Website:  www.openfoam.com                      |
|    \\/     M anipulation  |                                                 |
\*---------------------------------------------------------------------------*/
FoamFile
{
    version     2.0;
    format      ascii;
    arch        "LSB;label=32;scalar=64";
    class       volScalarField;
    location    "6.25";
    object      enstrophyField;
}
// * * * * * * * * * * * * * * * * * * * * * * * * * * * * * * * * * * * * * //

dimensions      [0 0 -2 0 0 0 0];

internalField   nonuniform List<scalar> 
400
(
3.41062e-23
6.15443e-23
2.85695e-24
1.54955e-25
4.0741e-27
6.36867e-28
2.73763e-31
1.16943e-29
1.68807e-29
4.38343e-29
7.02917e-29
2.26281e-29
1.66164e-28
1.67135e-28
1.84823e-29
7.43862e-29
6.34676e-30
3.28358e-29
8.08602e-30
2.19227e-29
1.88295e-24
1.5691e-24
1.79278e-25
4.27235e-27
1.3213e-26
7.66028e-27
1.74851e-27
2.4272e-27
5.02604e-27
9.99383e-27
3.50658e-27
4.14207e-28
5.53664e-28
9.56043e-31
2.62456e-27
4.34203e-27
1.44851e-27
3.19087e-29
7.86681e-28
8.63679e-30
1.67413e-23
5.50533e-23
3.18081e-24
1.62223e-25
2.15602e-26
7.53999e-27
1.28688e-27
6.20149e-27
3.53986e-28
3.22347e-27
3.35325e-27
5.60125e-27
2.72631e-27
1.76063e-28
8.30067e-30
4.22097e-27
1.37692e-27
1.56314e-27
1.66563e-27
5.63737e-29
4.94038e-24
3.03035e-23
1.3004e-24
1.45813e-25
7.42352e-29
2.68631e-27
4.85664e-27
1.00087e-29
4.11199e-27
3.80312e-27
1.2144e-27
2.47138e-28
4.50954e-30
3.80724e-28
4.57593e-27
5.22384e-28
1.69601e-27
2.10359e-27
3.86075e-28
5.66528e-29
4.39582e-25
9.34533e-27
1.10181e-29
1.24313e-28
8.13788e-29
4.68059e-28
6.59654e-31
4.63249e-27
1.92156e-27
2.39542e-28
3.81679e-28
1.00606e-28
2.94723e-28
1.44418e-29
6.6188e-28
9.21718e-30
2.25968e-31
3.89856e-29
5.51841e-28
1.99036e-28
1.35928e-23
3.01141e-23
1.55672e-24
1.00939e-25
2.97502e-27
2.04807e-28
3.28884e-30
1.42503e-30
4.74522e-28
4.82189e-27
4.99685e-27
2.66011e-27
1.14793e-29
3.03462e-29
2.97373e-29
5.87784e-29
7.15187e-30
3.01635e-28
5.02468e-30
3.08547e-32
2.07674e-23
5.20536e-23
2.72184e-24
1.70563e-25
6.16362e-27
4.52211e-28
1.17084e-26
1.6763e-26
1.26706e-26
6.21396e-27
7.69329e-27
3.56409e-27
1.09606e-26
7.54474e-27
7.19337e-27
1.06616e-27
9.75061e-28
2.33072e-28
8.6858e-28
2.14743e-28
1.95202e-24
6.91147e-24
3.04551e-25
2.84317e-26
5.28679e-29
4.08948e-27
1.87419e-27
4.76077e-27
8.66689e-27
1.31951e-27
3.74554e-27
2.48768e-28
6.45843e-29
1.63281e-27
1.01161e-27
8.73548e-31
3.33423e-29
8.41382e-28
8.10238e-30
3.64902e-30
4.97353e-24
1.08162e-23
6.72455e-25
3.18108e-26
7.65167e-27
1.32942e-28
2.77503e-27
2.95563e-27
9.71531e-27
3.10896e-27
3.0394e-27
8.03367e-27
8.1194e-27
3.19566e-27
2.58888e-27
6.64018e-29
6.15049e-29
1.67249e-29
1.54889e-30
4.68379e-29
2.43034e-23
4.16969e-23
2.118e-24
1.59904e-25
1.33463e-27
8.33555e-27
4.67097e-27
5.83478e-27
1.30319e-26
1.35085e-26
3.50232e-27
1.23204e-27
3.52384e-27
3.57924e-27
3.77235e-28
3.15952e-28
7.94022e-29
1.16307e-27
1.31467e-29
1.80806e-28
3.45908e-23
3.84455e-23
2.19752e-24
7.98972e-26
6.45866e-27
6.34492e-28
4.89286e-30
5.23727e-28
7.0901e-29
2.88562e-29
1.37945e-28
4.4035e-28
4.224e-27
1.29579e-26
4.42894e-27
1.2544e-27
1.49626e-27
4.63943e-28
8.02823e-30
3.95624e-28
1.5716e-23
1.43497e-23
9.64899e-25
6.50013e-27
9.60044e-27
3.35561e-28
9.00576e-28
2.78445e-27
9.1846e-27
6.04362e-27
1.02984e-26
5.70151e-27
2.69513e-28
4.06889e-27
2.80022e-29
3.43932e-27
2.44028e-28
3.18261e-28
1.63388e-27
1.83407e-28
5.08746e-25
8.37525e-25
8.04512e-26
4.86421e-28
1.57246e-26
1.65385e-27
3.04618e-27
3.20786e-27
2.60298e-28
1.35683e-30
3.39566e-28
1.26562e-27
3.29312e-28
1.24376e-26
5.30941e-27
3.64933e-27
6.1648e-27
1.22784e-27
8.6492e-28
1.33082e-28
1.88848e-23
2.59555e-23
1.58525e-24
4.03488e-26
2.29839e-26
4.99814e-28
3.71611e-27
3.60763e-27
1.00101e-26
2.93698e-27
5.03798e-27
1.66829e-28
2.89319e-28
2.33672e-27
1.00608e-27
1.63792e-27
1.50616e-28
1.85286e-27
7.87548e-28
3.24986e-29
2.55011e-23
4.05301e-23
2.2173e-24
8.04256e-26
1.14739e-26
7.3889e-28
1.16103e-27
1.73229e-27
6.50539e-27
3.74893e-27
6.13555e-27
2.96156e-27
3.76263e-28
2.10829e-27
2.24974e-27
1.39527e-27
2.37548e-28
6.75259e-30
6.02102e-29
5.71087e-28
6.87529e-24
1.46009e-23
8.25042e-25
2.58868e-26
7.59223e-27
4.15715e-29
1.80152e-27
1.76366e-27
9.14705e-31
1.45068e-30
5.20345e-31
2.4971e-29
7.57433e-27
4.44233e-27
1.44746e-27
5.12516e-29
5.03633e-29
1.31039e-29
3.47538e-28
5.04438e-29
5.04652e-25
1.58207e-24
9.26854e-26
7.49448e-28
9.13428e-28
3.32652e-30
1.47065e-27
7.46845e-27
1.49003e-26
5.86101e-27
4.22967e-27
5.74396e-27
6.79437e-27
3.62111e-27
1.48346e-27
1.02792e-28
7.43961e-29
1.51547e-27
3.72322e-32
2.06525e-29
6.0835e-24
3.35058e-23
1.77168e-24
1.01332e-25
9.0298e-27
1.27626e-29
6.89072e-28
2.98817e-28
2.59767e-28
1.89034e-27
2.30138e-27
1.02717e-29
1.11978e-27
6.2909e-29
2.20362e-27
3.72226e-28
1.53203e-27
3.65375e-28
5.34334e-29
4.14696e-29
1.13795e-24
6.26953e-24
3.18778e-25
2.02744e-26
3.21602e-27
3.02189e-29
6.98055e-30
2.72535e-27
2.86712e-27
1.72056e-27
1.70045e-27
2.00025e-27
1.36111e-27
9.17014e-28
3.26612e-29
2.29632e-29
9.05915e-30
1.31411e-28
1.91627e-27
1.03285e-28
1.58666e-23
3.06751e-23
1.41524e-24
9.9873e-26
1.22989e-27
1.62181e-27
2.93378e-28
1.22888e-29
2.16209e-29
2.00026e-27
1.80633e-27
1.99836e-31
1.08869e-30
1.84558e-27
1.81241e-27
1.00936e-29
1.05907e-27
1.2759e-27
1.64757e-27
4.18186e-28
)
;

boundaryField
{
    movingWall
    {
        type            calculated;
        value           nonuniform List<scalar> 
20
(
7.84402e-23
4.65439e-23
1.50792e-24
1.29358e-25
7.34067e-29
2.75703e-27
8.62242e-28
1.22888e-29
7.15671e-28
6.25495e-28
1.73778e-29
9.58201e-28
1.08869e-30
7.16849e-28
7.37765e-28
1.1957e-27
3.25068e-27
3.62297e-27
4.23301e-27
1.06833e-27
)
;
    }
    fixedWalls
    {
        type            calculated;
        value           nonuniform List<scalar> 
60
(
1.08943e-21
4.07233e-23
1.01734e-21
5.10206e-22
2.54224e-25
5.39182e-22
9.46709e-22
1.15024e-22
2.02216e-22
7.4365e-22
7.17494e-22
2.80459e-22
1.61057e-23
4.88622e-22
7.417e-22
2.65079e-22
3.09069e-23
6.11933e-22
1.13719e-22
5.42002e-22
1.46174e-28
3.22812e-28
2.7698e-28
3.34497e-30
7.62574e-29
2.04508e-29
3.5693e-28
9.4318e-29
9.78302e-29
2.73279e-28
4.10251e-28
3.03861e-29
1.51563e-28
3.03991e-28
1.58642e-27
2.96174e-28
1.21107e-28
8.07623e-32
1.6955e-28
3.07547e-28
1.07529e-22
8.95294e-23
2.40997e-24
4.40927e-25
1.11126e-26
3.32134e-26
1.59089e-26
2.57374e-26
1.4762e-26
3.09287e-26
7.36534e-27
9.79357e-27
5.72961e-27
1.67135e-28
7.34559e-28
2.73135e-27
6.34676e-30
3.28358e-29
3.59521e-27
4.55434e-27
)
;
    }
    frontAndBack
    {
        type            empty;
    }
}


// ************************************************************************* //
