/*--------------------------------*- C++ -*----------------------------------*\
| =========                 |                                                 |
| \\      /  F ield         | OpenFOAM: The Open Source CFD Toolbox           |
|  \\    /   O peration     | Version:  2506                                  |
|   \\  /    A nd           | Website:  www.openfoam.com                      |
|    \\/     M anipulation  |                                                 |
\*---------------------------------------------------------------------------*/
FoamFile
{
    version     2.0;
    format      ascii;
    arch        "LSB;label=32;scalar=64";
    class       volScalarField;
    location    "6.25";
    object      epsilonzeroGrad;
}
// * * * * * * * * * * * * * * * * * * * * * * * * * * * * * * * * * * * * * //

dimensions      [0 2 -3 0 0 0 0];

internalField   nonuniform List<scalar> 
400
(
3.50063e-06
3.50062e-06
3.50062e-06
3.50062e-06
3.50062e-06
3.50061e-06
3.50061e-06
3.50061e-06
3.5006e-06
3.5006e-06
3.5006e-06
3.5006e-06
3.5006e-06
3.5006e-06
3.5006e-06
3.5006e-06
3.5006e-06
3.5006e-06
3.5006e-06
3.5006e-06
3.73817e-06
3.67481e-06
3.68003e-06
3.68223e-06
3.6866e-06
3.68884e-06
3.69324e-06
3.69554e-06
3.69996e-06
3.70231e-06
3.70677e-06
3.70917e-06
3.71367e-06
3.71612e-06
3.72065e-06
3.72316e-06
3.72772e-06
3.73029e-06
3.73258e-06
3.73618e-06
4.08879e-06
4.01629e-06
4.02234e-06
4.0249e-06
4.02996e-06
4.03253e-06
4.03761e-06
4.04023e-06
4.04533e-06
4.048e-06
4.05313e-06
4.05583e-06
4.061e-06
4.06373e-06
4.06894e-06
4.07171e-06
4.07693e-06
4.07976e-06
4.08239e-06
4.08643e-06
4.42353e-06
4.34291e-06
4.34963e-06
4.35247e-06
4.35809e-06
4.36094e-06
4.36659e-06
4.3695e-06
4.37517e-06
4.37813e-06
4.38383e-06
4.38683e-06
4.39257e-06
4.39561e-06
4.40139e-06
4.40448e-06
4.41028e-06
4.41343e-06
4.41634e-06
4.42084e-06
4.67712e-06
4.59012e-06
4.59736e-06
4.60043e-06
4.60648e-06
4.60956e-06
4.61564e-06
4.61878e-06
4.62489e-06
4.62808e-06
4.63424e-06
4.63747e-06
4.64367e-06
4.64694e-06
4.65318e-06
4.65651e-06
4.66277e-06
4.66617e-06
4.66931e-06
4.67416e-06
4.84452e-06
4.75322e-06
4.76081e-06
4.76402e-06
4.77037e-06
4.77359e-06
4.77997e-06
4.78327e-06
4.78968e-06
4.79302e-06
4.79948e-06
4.80287e-06
4.80937e-06
4.81281e-06
4.81935e-06
4.82284e-06
4.82941e-06
4.83298e-06
4.83628e-06
4.84137e-06
4.94725e-06
4.85329e-06
4.8611e-06
4.8644e-06
4.87093e-06
4.87425e-06
4.88081e-06
4.8842e-06
4.8908e-06
4.89424e-06
4.90088e-06
4.90437e-06
4.91106e-06
4.9146e-06
4.92133e-06
4.92492e-06
4.93168e-06
4.93535e-06
4.93875e-06
4.94399e-06
5.00959e-06
4.91401e-06
4.92195e-06
4.92531e-06
4.93195e-06
4.93532e-06
4.942e-06
4.94544e-06
4.95215e-06
4.95565e-06
4.96241e-06
4.96596e-06
4.97276e-06
4.97636e-06
4.9832e-06
4.98686e-06
4.99374e-06
4.99747e-06
5.00093e-06
5.00626e-06
5.04963e-06
4.953e-06
4.96103e-06
4.96442e-06
4.97113e-06
4.97455e-06
4.98129e-06
4.98478e-06
4.99155e-06
4.99509e-06
5.00192e-06
5.00551e-06
5.01238e-06
5.01602e-06
5.02294e-06
5.02664e-06
5.03359e-06
5.03737e-06
5.04086e-06
5.04625e-06
5.07864e-06
4.98127e-06
4.98935e-06
4.99277e-06
4.99954e-06
5.00297e-06
5.00977e-06
5.01328e-06
5.02011e-06
5.02368e-06
5.03056e-06
5.03418e-06
5.0411e-06
5.04477e-06
5.05174e-06
5.05547e-06
5.06247e-06
5.06628e-06
5.0698e-06
5.07523e-06
5.10307e-06
5.00507e-06
5.0132e-06
5.01664e-06
5.02345e-06
5.02691e-06
5.03375e-06
5.03729e-06
5.04416e-06
5.04775e-06
5.05467e-06
5.05831e-06
5.06528e-06
5.06898e-06
5.07599e-06
5.07975e-06
5.08679e-06
5.09063e-06
5.09416e-06
5.09963e-06
5.12648e-06
5.02787e-06
5.03606e-06
5.03952e-06
5.04637e-06
5.04985e-06
5.05673e-06
5.06029e-06
5.0672e-06
5.07082e-06
5.07778e-06
5.08144e-06
5.08846e-06
5.09217e-06
5.09923e-06
5.10301e-06
5.1101e-06
5.11395e-06
5.11751e-06
5.12301e-06
5.15091e-06
5.05168e-06
5.05992e-06
5.0634e-06
5.07029e-06
5.0738e-06
5.08072e-06
5.0843e-06
5.09126e-06
5.09489e-06
5.1019e-06
5.10559e-06
5.11264e-06
5.11638e-06
5.12349e-06
5.12729e-06
5.13442e-06
5.13831e-06
5.14189e-06
5.14742e-06
5.17767e-06
5.07775e-06
5.08604e-06
5.08955e-06
5.09648e-06
5.10001e-06
5.10698e-06
5.11058e-06
5.11759e-06
5.12125e-06
5.12831e-06
5.13202e-06
5.13913e-06
5.14289e-06
5.15004e-06
5.15387e-06
5.16105e-06
5.16497e-06
5.16857e-06
5.17415e-06
5.20755e-06
5.10686e-06
5.11521e-06
5.11874e-06
5.12573e-06
5.12929e-06
5.13631e-06
5.13994e-06
5.147e-06
5.15069e-06
5.1578e-06
5.16154e-06
5.1687e-06
5.1725e-06
5.1797e-06
5.18356e-06
5.1908e-06
5.19474e-06
5.19837e-06
5.20399e-06
5.24074e-06
5.13919e-06
5.14761e-06
5.15118e-06
5.15823e-06
5.16181e-06
5.1689e-06
5.17256e-06
5.17967e-06
5.1834e-06
5.19056e-06
5.19434e-06
5.20156e-06
5.20538e-06
5.21265e-06
5.21654e-06
5.22384e-06
5.22782e-06
5.23148e-06
5.23714e-06
5.2762e-06
5.17373e-06
5.18223e-06
5.18583e-06
5.19294e-06
5.19655e-06
5.2037e-06
5.20739e-06
5.21457e-06
5.21833e-06
5.22556e-06
5.22937e-06
5.23665e-06
5.24051e-06
5.24784e-06
5.25177e-06
5.25913e-06
5.26315e-06
5.26684e-06
5.27256e-06
5.31085e-06
5.20752e-06
5.21609e-06
5.21971e-06
5.22688e-06
5.23053e-06
5.23773e-06
5.24145e-06
5.24869e-06
5.25248e-06
5.25977e-06
5.26361e-06
5.27095e-06
5.27485e-06
5.28224e-06
5.28621e-06
5.29363e-06
5.29768e-06
5.30141e-06
5.30718e-06
5.33933e-06
5.23735e-06
5.24563e-06
5.24916e-06
5.25614e-06
5.25971e-06
5.26675e-06
5.27041e-06
5.27751e-06
5.28126e-06
5.28843e-06
5.29226e-06
5.29951e-06
5.30341e-06
5.31074e-06
5.31473e-06
5.32212e-06
5.32622e-06
5.32994e-06
5.33573e-06
5.35218e-06
5.35218e-06
5.35215e-06
5.35217e-06
5.35214e-06
5.35216e-06
5.35213e-06
5.35215e-06
5.35213e-06
5.35213e-06
5.35213e-06
5.35213e-06
5.35212e-06
5.35212e-06
5.35212e-06
5.35212e-06
5.35212e-06
5.35212e-06
5.35212e-06
5.35212e-06
)
;

boundaryField
{
    movingWall
    {
        type            zeroGradient;
    }
    fixedWalls
    {
        type            zeroGradient;
    }
    frontAndBack
    {
        type            empty;
    }
}


// ************************************************************************* //
