/*--------------------------------*- C++ -*----------------------------------*\
| =========                 |                                                 |
| \\      /  F ield         | OpenFOAM: The Open Source CFD Toolbox           |
|  \\    /   O peration     | Version:  2506                                  |
|   \\  /    A nd           | Website:  www.openfoam.com                      |
|    \\/     M anipulation  |                                                 |
\*---------------------------------------------------------------------------*/
FoamFile
{
    version     2.0;
    format      ascii;
    arch        "LSB;label=32;scalar=64";
    class       volScalarField;
    location    "6.25";
    object      flowTypeField;
}
// * * * * * * * * * * * * * * * * * * * * * * * * * * * * * * * * * * * * * //

dimensions      [0 0 0 0 0 0 0];

internalField   nonuniform List<scalar> 
400
(
0.466737
0.0576171
0.0660785
0.0691717
0.327818
0.205184
0.929252
0.544128
0.494969
0.658369
0.766941
0.680507
0.398322
0.157167
0.434069
0.56155
0.827792
0.245792
0.884958
0.830432
0.892956
0.655816
0.529603
0.620996
-0.0242548
0.093245
0.273018
0.143461
-0.00534763
-0.293379
0.00820038
0.492457
0.438899
0.947471
-0.278522
-0.13928
0.121461
0.642695
0.265398
0.0565036
0.479266
0.108438
0.0120546
0.0652683
-0.553754
0.111159
-0.120144
-0.0265099
0.27412
0.0541758
0.294097
0.0690324
0.137255
0.647513
0.789215
-0.119266
0.136109
0.000219505
0.234973
0.000206011
0.732151
0.126463
0.191021
-0.181063
0.889353
0.0923227
0.0911646
0.769006
-0.048863
-0.0702081
0.0910708
0.0182095
0.86985
0.0704559
-0.171702
0.164226
0.0565992
-0.0516739
-0.0234195
0.676456
0.927476
0.9574
0.992603
0.896457
0.771912
0.193219
0.834638
-0.176329
-0.128198
0.201864
0.10009
0.540787
0.0888687
0.000263374
0.0781522
0.382635
0.363119
0.189324
-0.106149
0.26505
0.55976
0.114531
0.0789839
-0.0330166
0.259429
0.634966
0.924143
0.940908
0.226742
-0.157881
-0.210215
0.0801661
0.022975
0.648561
0.338364
0.449901
0.403401
0.142666
0.586012
0.97566
0.346407
0.0718916
0.0162264
0.0187954
0.030447
0.439507
-0.100327
-0.12312
0.0157979
0.0342305
0.0849571
0.0448788
0.0851544
-0.119497
-0.10535
0.159081
0.271116
0.213081
0.29424
0.417094
0.848627
0.278951
0.347823
0.217891
0.877274
-0.0581234
0.203504
-0.176023
-0.21294
0.306272
-0.0406989
0.555735
0.749213
0.208248
0.0557117
0.967882
0.358262
-0.330788
0.784798
0.840879
0.73105
0.197788
0.10166
0.168002
-0.257015
0.438997
0.108434
0.0771641
0.0446653
0.21058
0.301723
-0.0343538
-0.172375
0.0765627
0.3541
0.716812
0.652406
0.736807
0.885611
0.0292789
0.180291
0.0256693
0.0045414
-0.193059
0.51177
-0.187592
0.134585
0.00379699
-0.190243
-0.210247
0.00587152
0.204692
-0.0320798
-0.0324423
0.516349
0.53289
0.0357956
0.227105
0.266446
0.29432
0.0131297
0.00398594
-0.107072
0.0717865
-0.309946
0.00714915
0.59532
0.439438
0.580435
0.763101
0.537801
0.472211
-0.0621917
-0.0837565
-0.12026
0.144624
0.129804
0.198531
0.23907
-0.0262034
0.466901
0.0807254
-0.105637
0.582312
-0.337675
0.623494
0.215888
0.0840592
0.070167
-0.00568639
0.0324218
0.0401887
0.450113
0.0888759
0.871789
0.00494154
0.318214
0.544951
0.0741853
0.455481
0.89957
0.539216
0.418969
0.776649
0.0531667
-0.0503507
0.0429085
0.0148476
0.160727
0.613932
0.0377536
0.43588
0.520882
-0.136584
-0.243563
0.0418008
-0.0103715
0.0854716
0.238529
0.659701
0.367638
0.0558046
-0.0782678
0.249106
-0.360183
0.434064
-0.0300476
0.141876
-0.0385364
0.108823
0.100433
0.350096
0.202914
-0.223668
-0.237777
0.030631
0.319075
-0.0430605
0.0582391
0.74806
0.0924436
0.0322895
-0.0495181
0.131407
-0.549006
0.169998
0.10967
-0.0812859
-0.0516418
-0.0642929
0.00963091
0.100458
0.0120742
-0.188965
-0.135266
0.305229
0.586116
0.893335
0.0172756
-0.193676
0.655135
0.137758
0.0675851
0.258294
-0.499629
0.689892
0.266331
0.242506
0.948876
0.825402
0.957764
0.0779787
-0.0927357
-0.0805426
0.159384
0.775388
0.180766
0.749698
0.281606
0.0486963
0.914636
0.533408
0.510043
0.767185
0.199867
0.904387
0.00341991
-0.356283
-0.237347
0.00375647
0.177164
0.12067
-0.0408613
-0.0288501
0.409737
0.0107207
0.312342
-0.00169716
0.838055
0.00378174
0.556752
0.121001
0.0574841
0.0583848
-0.234525
0.830681
0.467243
0.574915
0.223443
0.22993
-0.053519
0.794322
0.0519111
0.752559
-0.0340199
0.30118
-0.0044771
0.0283375
0.159926
0.647197
0.892179
0.381178
0.399149
0.295648
-0.0394734
0.571825
0.809732
0.06882
-0.184851
-0.0748392
-0.0638149
-0.00656152
0.0391588
0.277603
0.639019
0.469463
0.730144
0.649304
-0.00260735
0.479922
0.553543
0.0890581
0.107116
-0.0139056
0.413044
-0.878284
0.351913
0.756163
0.0879692
-0.152018
0.0129832
0.934985
0.662163
-0.118223
-0.0853742
0.783551
0.361112
0.307838
0.0695422
0.22654
)
;

boundaryField
{
    movingWall
    {
        type            calculated;
        value           nonuniform List<scalar> 
20
(
0.586434
0.122801
0.2785
0.0843084
0.880898
-0.0324588
0.341997
0.840255
0.224426
0.217125
0.739055
0.170592
0.83052
0.20501
0.337341
0.252682
0.22679
0.173104
0.0147309
0.10636
)
;
    }
    fixedWalls
    {
        type            calculated;
        value           nonuniform List<scalar> 
60
(
0.0678599
0.616237
0.0907295
0.155518
0.950549
0.113743
0.0624502
0.322177
0.190822
0.0238217
-0.0218089
0.0525412
0.563421
0.0351228
0.0166393
0.143012
0.536402
0.108776
0.396258
0.0994154
0.756369
0.00194426
4.34321e-05
0.922828
0.708265
0.893749
0.434869
0.63722
0.631898
0.138826
0.401539
0.805852
0.755331
0.600487
-0.685765
0.00938436
0.000689271
0.960132
0.555697
0.467455
0.644324
0.124945
0.337995
-0.138761
0.499712
-0.149685
0.00939027
-0.0208892
0.0334173
0.0676827
0.2119
0.0468644
-0.056607
0.132412
0.303262
0.174252
0.845854
0.00707211
0.175243
0.0922075
)
;
    }
    frontAndBack
    {
        type            empty;
    }
}


// ************************************************************************* //
