/*--------------------------------*- C++ -*----------------------------------*\
| =========                 |                                                 |
| \\      /  F ield         | OpenFOAM: The Open Source CFD Toolbox           |
|  \\    /   O peration     | Version:  2506                                  |
|   \\  /    A nd           | Website:  www.openfoam.com                      |
|    \\/     M anipulation  |                                                 |
\*---------------------------------------------------------------------------*/
FoamFile
{
    version     2.0;
    format      ascii;
    arch        "LSB;label=32;scalar=64";
    class       surfaceScalarField;
    location    "6.25";
    object      fluxField;
}
// * * * * * * * * * * * * * * * * * * * * * * * * * * * * * * * * * * * * * //

dimensions      [0 3 -1 0 0 0 0];

oriented        oriented;

internalField   nonuniform List<scalar> 
760
(
-5e-05
3.5475e-18
-5e-05
-7.33309e-19
-5e-05
1.88694e-19
-5e-05
-3.34497e-20
-5e-05
1.28582e-20
-5e-05
2.6522e-21
-5e-05
9.98598e-22
-5e-05
-3.07766e-21
-5e-05
-3.12086e-21
-5e-05
3.11119e-21
-5e-05
9.554e-21
-5e-05
6.68274e-21
-5e-05
1.5152e-21
-5e-05
-3.10812e-21
-5e-05
-2.70987e-21
-5e-05
2.97202e-21
-5e-05
3.98537e-21
-5e-05
1.98477e-21
-5e-05
-3.77265e-23
-2.65671e-21
-5e-05
-2.49742e-18
-5e-05
5.66962e-19
-5e-05
-1.20491e-19
-5e-05
3.18949e-20
-5e-05
-1.19985e-21
-5e-05
7.06881e-21
-5e-05
-9.5593e-22
-5e-05
-4.38284e-21
-5e-05
-4.60346e-21
-5e-05
4.77723e-22
-5e-05
3.89149e-21
-5e-05
9.40549e-22
-5e-05
-1.82089e-21
-5e-05
-2.42453e-21
-5e-05
6.09809e-22
-5e-05
1.11704e-21
-5e-05
9.36882e-22
-5e-05
1.45378e-21
-5e-05
-6.34511e-22
-3.05909e-21
-5e-05
-8.21031e-19
-5e-05
1.67047e-19
-5e-05
-4.23589e-20
-5e-05
7.42868e-21
-5e-05
-1.08303e-21
-5e-05
-9.73488e-23
-5e-05
-2.67386e-21
-5e-05
-3.53807e-21
-5e-05
-4.5295e-21
-5e-05
-5.75649e-21
-5e-05
-5.74857e-21
-5e-05
-4.66923e-21
-5e-05
4.54113e-22
-5e-05
3.22455e-21
-5e-05
2.4168e-21
-5e-05
-1.38162e-21
-5e-05
-1.52887e-21
-5e-05
-1.95605e-21
-5e-05
-3.76627e-21
-3.00343e-21
-5e-05
2.22232e-18
-5e-05
-4.77013e-19
-5e-05
1.06356e-19
-5e-05
-2.52302e-20
-5e-05
2.39714e-21
-5e-05
-4.75824e-21
-5e-05
-1.50211e-21
-5e-05
-2.57933e-21
-5e-05
-6.35553e-21
-5e-05
-6.86778e-21
-5e-05
-6.52591e-21
-5e-05
-5.76696e-21
-5e-05
2.57841e-21
-5e-05
6.32813e-21
-5e-05
3.79967e-21
-5e-05
4.20964e-22
-5e-05
1.42183e-21
-5e-05
-7.54819e-22
-5e-05
-3.44885e-21
-2.45462e-21
-5e-05
-2.15861e-18
-5e-05
4.86436e-19
-5e-05
-1.10317e-19
-5e-05
2.6157e-20
-5e-05
-7.6001e-21
-5e-05
-3.49026e-21
-5e-05
-5.01081e-21
-5e-05
-4.41859e-21
-5e-05
-8.32366e-21
-5e-05
-5.43891e-21
-5e-05
-2.79751e-21
-5e-05
-9.06561e-22
-5e-05
5.43117e-21
-5e-05
6.36094e-21
-5e-05
4.82712e-21
-5e-05
2.11333e-21
-5e-05
1.04315e-21
-5e-05
9.99761e-22
-5e-05
-5.28509e-22
-1.32192e-21
-5e-05
7.33254e-19
-5e-05
-1.61286e-19
-5e-05
4.12837e-20
-5e-05
-1.23409e-20
-5e-05
-5.95676e-21
-5e-05
-1.06443e-20
-5e-05
-1.02744e-20
-5e-05
-6.91042e-21
-5e-05
-4.73456e-21
-5e-05
-6.91236e-23
-5e-05
2.52409e-22
-5e-05
1.72354e-21
-5e-05
5.71319e-21
-5e-05
6.05456e-21
-5e-05
7.37031e-21
-5e-05
7.00769e-21
-5e-05
2.65148e-21
-5e-05
3.5497e-21
-5e-05
1.90868e-21
-3.75534e-22
-5e-05
1.85972e-18
-5e-05
-3.90132e-19
-5e-05
9.6074e-20
-5e-05
-2.22804e-20
-5e-05
-3.87863e-21
-5e-05
-1.06466e-20
-5e-05
-7.63214e-21
-5e-05
-4.51814e-21
-5e-05
1.5514e-21
-5e-05
7.20719e-21
-5e-05
1.60679e-21
-5e-05
-3.7487e-21
-5e-05
-3.19125e-21
-5e-05
2.22574e-21
-5e-05
7.92362e-21
-5e-05
9.57567e-21
-5e-05
6.24582e-21
-5e-05
5.02168e-21
-5e-05
1.38803e-21
8.82586e-22
-5e-05
-2.3387e-18
-5e-05
5.20931e-19
-5e-05
-1.17702e-19
-5e-05
2.91165e-20
-5e-05
-8.58144e-21
-5e-05
-4.38091e-21
-5e-05
-3.60105e-21
-5e-05
-9.23328e-22
-5e-05
1.57235e-21
-5e-05
3.91895e-21
-5e-05
1.47801e-21
-5e-05
-3.32914e-21
-5e-05
-8.68258e-21
-5e-05
-5.24066e-21
-5e-05
-8.30095e-22
-5e-05
1.56778e-21
-5e-05
3.3956e-21
-5e-05
2.29901e-21
-5e-05
1.36238e-21
1.73265e-21
-5e-05
1.13481e-18
-5e-05
-2.54853e-19
-5e-05
5.52221e-20
-5e-05
-9.91158e-21
-5e-05
4.00646e-21
-5e-05
-8.16988e-22
-5e-05
1.53213e-21
-5e-05
3.82875e-21
-5e-05
2.73835e-21
-5e-05
-3.6178e-21
-5e-05
-3.85712e-21
-5e-05
-3.37531e-21
-5e-05
-7.29867e-21
-5e-05
-8.78697e-21
-5e-05
-7.77948e-21
-5e-05
-6.53798e-21
-5e-05
-3.39239e-21
-5e-05
-6.14793e-22
-5e-05
3.33475e-21
1.10715e-21
-5e-05
1.52882e-19
-5e-05
-4.88445e-20
-5e-05
7.85301e-21
-5e-05
-4.20546e-21
-5e-05
2.91087e-22
-5e-05
6.25956e-22
-5e-05
4.02268e-21
-5e-05
4.34963e-21
-5e-05
2.80647e-21
-5e-05
-5.10681e-21
-5e-05
-9.2814e-21
-5e-05
-8.32524e-21
-5e-05
-7.49587e-21
-5e-05
-6.33461e-21
-5e-05
-1.95436e-21
-5e-05
-3.22497e-21
-5e-05
-2.49305e-21
-5e-05
4.89514e-23
-5e-05
1.94915e-21
3.29115e-22
-5e-05
-8.90734e-19
-5e-05
1.99402e-19
-5e-05
-4.462e-20
-5e-05
9.0335e-21
-5e-05
-2.94028e-22
-5e-05
1.7092e-21
-5e-05
1.53565e-21
-5e-05
-4.51284e-22
-5e-05
-1.4517e-21
-5e-05
-3.42637e-21
-5e-05
-5.94831e-21
-5e-05
-4.05258e-21
-5e-05
-5.71426e-21
-5e-05
-2.37515e-21
-5e-05
2.87405e-21
-5e-05
2.69604e-21
-5e-05
2.24911e-21
-5e-05
1.56625e-21
-5e-05
9.41148e-22
1.30305e-21
-5e-05
1.76888e-18
-5e-05
-3.79373e-19
-5e-05
8.56969e-20
-5e-05
-1.98899e-20
-5e-05
8.73705e-21
-5e-05
4.87657e-21
-5e-05
2.48666e-21
-5e-05
1.11864e-21
-5e-05
5.09902e-22
-5e-05
4.84547e-23
-5e-05
4.78508e-22
-5e-05
2.30725e-21
-5e-05
1.04436e-21
-5e-05
1.69556e-21
-5e-05
-2.28037e-21
-5e-05
-1.86666e-21
-5e-05
-2.90403e-21
-5e-05
-3.77457e-21
-5e-05
-2.20915e-21
1.18682e-22
-5e-05
-1.59401e-18
-5e-05
3.30089e-19
-5e-05
-8.24511e-20
-5e-05
1.23286e-20
-5e-05
-5.67779e-21
-5e-05
3.06313e-21
-5e-05
7.96151e-22
-5e-05
1.02395e-21
-5e-05
-4.1498e-22
-5e-05
-1.54e-21
-5e-05
3.41542e-22
-5e-05
7.31504e-22
-5e-05
3.5259e-21
-5e-05
1.85439e-21
-5e-05
-5.56055e-21
-5e-05
-8.01675e-21
-5e-05
-7.34603e-21
-5e-05
-4.33238e-21
-5e-05
-4.51608e-21
-4.3233e-21
-5e-05
4.85564e-19
-5e-05
-1.0784e-19
-5e-05
2.24089e-20
-5e-05
-6.19655e-21
-5e-05
-6.21664e-23
-5e-05
-1.5967e-21
-5e-05
-4.02434e-21
-5e-05
-4.3261e-21
-5e-05
-3.76858e-21
-5e-05
-4.40679e-21
-5e-05
-1.28147e-21
-5e-05
-1.8078e-21
-5e-05
-1.60143e-22
-5e-05
-9.63471e-22
-5e-05
-1.01696e-21
-5e-05
-2.18448e-21
-5e-05
-2.11933e-21
-5e-05
8.27439e-22
-5e-05
-1.37192e-21
-5.06157e-21
-5e-05
9.37618e-19
-5e-05
-2.01238e-19
-5e-05
4.4527e-20
-5e-05
-9.46742e-21
-5e-05
1.14587e-21
-5e-05
-2.40244e-21
-5e-05
-3.96792e-21
-5e-05
-5.36187e-21
-5e-05
-4.10054e-21
-5e-05
-4.28887e-21
-5e-05
-2.35595e-21
-5e-05
-3.44513e-21
-5e-05
-1.67756e-21
-5e-05
3.01579e-22
-5e-05
4.23956e-21
-5e-05
3.41719e-21
-5e-05
1.36232e-21
-5e-05
-4.18966e-22
-5e-05
-8.36256e-22
-3.34756e-21
-5e-05
-2.03718e-18
-5e-05
4.32075e-19
-5e-05
-9.9214e-20
-5e-05
2.36283e-20
-5e-05
-5.54553e-21
-5e-05
2.46536e-21
-5e-05
5.0826e-21
-5e-05
1.00563e-21
-5e-05
-6.43803e-21
-5e-05
-8.60831e-21
-5e-05
-5.97421e-21
-5e-05
-4.2419e-21
-5e-05
-3.89784e-21
-5e-05
-2.61462e-21
-5e-05
-1.60852e-21
-5e-05
-2.78087e-21
-5e-05
-5.55071e-22
-5e-05
-2.24043e-21
-5e-05
-1.62396e-21
-2.49384e-21
-5e-05
1.91364e-18
-5e-05
-4.18627e-19
-5e-05
1.01756e-19
-5e-05
-2.17873e-20
-5e-05
5.66557e-21
-5e-05
1.12376e-21
-5e-05
6.2838e-21
-5e-05
3.62242e-21
-5e-05
-4.60618e-21
-5e-05
-6.73132e-21
-5e-05
-2.7489e-21
-5e-05
7.88449e-22
-5e-05
-3.5724e-21
-5e-05
-6.30391e-21
-5e-05
-7.32313e-21
-5e-05
-3.32451e-21
-5e-05
3.08258e-21
-5e-05
1.09823e-23
-5e-05
-3.46456e-21
-2.64165e-21
-5e-05
1.39469e-18
-5e-05
-2.96728e-19
-5e-05
7.08114e-20
-5e-05
-1.89742e-20
-5e-05
1.83112e-21
-5e-05
-5.42773e-21
-5e-05
-5.62563e-21
-5e-05
-3.85727e-21
-5e-05
-1.38556e-21
-5e-05
4.43444e-22
-5e-05
1.54649e-21
-5e-05
4.87863e-21
-5e-05
2.67323e-21
-5e-05
-6.84911e-22
-5e-05
-2.97712e-21
-5e-05
3.38785e-22
-5e-05
5.53826e-21
-5e-05
1.68891e-21
-5e-05
-5.27277e-21
-2.81986e-21
-5e-05
-3.17651e-18
-5e-05
6.86322e-19
-5e-05
-1.63682e-19
-5e-05
3.22217e-20
-5e-05
-8.38428e-21
-5e-05
-2.27367e-22
-5e-05
-2.86587e-21
-5e-05
-1.88199e-21
-5e-05
7.99439e-22
-5e-05
1.8527e-21
-5e-05
-3.47712e-22
-5e-05
1.40565e-21
-5e-05
1.75411e-21
-5e-05
5.27927e-22
-5e-05
-2.72821e-21
-5e-05
-2.9917e-21
-5e-05
8.92657e-23
-5e-05
1.19159e-22
-5e-05
-3.03999e-21
-1.00692e-21
-5e-05
-5e-05
-5e-05
-5e-05
-5e-05
-5e-05
-5e-05
-5e-05
-5e-05
-5e-05
-5e-05
-5e-05
-5e-05
-5e-05
-5e-05
-5e-05
-5e-05
-5e-05
-5e-05
)
;

boundaryField
{
    movingWall
    {
        type            calculated;
        value           uniform -0;
    }
    fixedWalls
    {
        type            calculated;
        value           nonuniform List<scalar> 
60
(
5e-05
5e-05
5e-05
5e-05
5e-05
5e-05
5e-05
5e-05
5e-05
5e-05
5e-05
5e-05
5e-05
5e-05
5e-05
5e-05
5e-05
5e-05
5e-05
5e-05
-5e-05
-5e-05
-5e-05
-5e-05
-5e-05
-5e-05
-5e-05
-5e-05
-5e-05
-5e-05
-5e-05
-5e-05
-5e-05
-5e-05
-5e-05
-5e-05
-5e-05
-5e-05
-5e-05
-5e-05
0
0
0
0
0
0
0
0
0
0
0
0
0
0
0
0
0
0
0
0
)
;
    }
    frontAndBack
    {
        type            empty;
    }
}


// ************************************************************************* //
