/*--------------------------------*- C++ -*----------------------------------*\
| =========                 |                                                 |
| \\      /  F ield         | OpenFOAM: The Open Source CFD Toolbox           |
|  \\    /   O peration     | Version:  2506                                  |
|   \\  /    A nd           | Website:  www.openfoam.com                      |
|    \\/     M anipulation  |                                                 |
\*---------------------------------------------------------------------------*/
FoamFile
{
    version     2.0;
    format      ascii;
    arch        "LSB;label=32;scalar=64";
    class       volVectorField;
    location    "6.25";
    object      gradPhi;
}
// * * * * * * * * * * * * * * * * * * * * * * * * * * * * * * * * * * * * * //

dimensions      [0 2 -1 0 0 0 0];

internalField   nonuniform List<vector> 
400
(
(-0.02 8.60052e-17 0)
(1.19114e-16 -1.18991e-16 0)
(-3.80503e-17 3.81755e-17 0)
(4.96308e-18 -5.19595e-18 0)
(-1.65436e-18 2.22856e-18 0)
(0 4.92315e-19 0)
(-1.65436e-18 7.91468e-19 0)
(0 -1.20559e-19 0)
(0 -1.39942e-19 0)
(0 9.48431e-20 0)
(-1.65436e-18 1.65317e-18 0)
(0 8.85944e-19 0)
(-1.65436e-18 8.5022e-19 0)
(0 6.18718e-19 0)
(0 -5.80085e-19 0)
(0 2.09546e-19 0)
(0 1.08793e-18 0)
(0 2.26856e-19 0)
(0 1.86343e-19 0)
(0 -1.0196e-18 0)
(-0.02 -1.52119e-16 0)
(-2.10104e-16 2.11306e-16 0)
(6.12114e-17 -6.15915e-17 0)
(-1.15805e-17 1.05793e-17 0)
(3.30872e-18 -2.93572e-18 0)
(-1.65436e-18 8.76555e-19 0)
(1.65436e-18 -1.25725e-18 0)
(0 -7.34827e-19 0)
(3.30872e-18 -1.51331e-18 0)
(0 3.83531e-20 0)
(0 -5.49327e-19 0)
(0 -2.06546e-19 0)
(1.65436e-18 -1.61767e-18 0)
(1.65436e-18 -2.21627e-18 0)
(0 4.53665e-19 0)
(0 1.85152e-19 0)
(0 -1.0623e-18 0)
(0 3.96286e-19 0)
(0 1.6934e-19 0)
(0 9.05113e-19 0)
(-0.02 5.72817e-17 0)
(6.28657e-17 -6.4439e-17 0)
(-1.48893e-17 1.42771e-17 0)
(6.61744e-18 -4.28988e-18 0)
(-1.65436e-18 2.07765e-18 0)
(1.65436e-18 -8.11785e-19 0)
(0 -1.70068e-19 0)
(0 -3.96549e-19 0)
(-1.65436e-18 1.18738e-18 0)
(0 -1.11587e-18 0)
(3.30872e-18 -2.57126e-18 0)
(1.65436e-18 -1.7547e-18 0)
(-1.65436e-18 1.00874e-18 0)
(-1.65436e-18 2.54902e-18 0)
(-1.65436e-18 9.44771e-19 0)
(0 -2.99575e-19 0)
(0 -5.67893e-19 0)
(1.65436e-18 -1.4665e-18 0)
(1.65436e-18 -1.73013e-18 0)
(0 -1.05545e-18 0)
(-0.02 7.79979e-17 0)
(1.00916e-16 -1.01783e-16 0)
(-2.97785e-17 2.99291e-17 0)
(3.30872e-18 -4.83916e-18 0)
(1.65436e-18 -2.40909e-18 0)
(3.30872e-18 -2.42256e-18 0)
(0 4.39531e-20 0)
(-1.65436e-18 8.14159e-19 0)
(1.65436e-18 -9.3661e-19 0)
(1.65436e-18 -1.54434e-19 0)
(-1.65436e-18 5.05522e-19 0)
(0 1.02229e-19 0)
(0 3.35351e-19 0)
(0 3.80448e-19 0)
(0 -2.86116e-19 0)
(1.65436e-18 -7.91021e-19 0)
(-1.65436e-18 1.11942e-18 0)
(-1.65436e-18 1.18861e-18 0)
(-1.65436e-18 9.86943e-19 0)
(0 9.89739e-19 0)
(-0.02 -1.25709e-16 0)
(-1.5551e-16 1.56204e-16 0)
(4.1359e-17 -4.22214e-17 0)
(-6.61744e-18 8.07852e-18 0)
(0 2.942e-19 0)
(-3.30872e-18 1.91852e-18 0)
(0 3.6103e-19 0)
(0 4.73451e-20 0)
(1.65436e-18 -1.53659e-19 0)
(0 -2.80457e-19 0)
(-1.65436e-18 4.2402e-19 0)
(-1.65436e-18 3.62769e-19 0)
(0 3.70125e-20 0)
(0 -1.78839e-19 0)
(-1.65436e-18 4.81625e-19 0)
(-1.65436e-18 1.3858e-18 0)
(1.65436e-18 -4.95994e-19 0)
(0 -4.29272e-19 0)
(0 -1.65189e-19 0)
(0 -2.37551e-19 0)
(-0.02 9.94456e-17 0)
(1.24077e-16 -1.23457e-16 0)
(-2.97785e-17 3.00166e-17 0)
(6.61744e-18 -7.51478e-18 0)
(0 -3.15696e-19 0)
(3.30872e-18 -2.66279e-18 0)
(1.65436e-18 -2.59717e-18 0)
(3.30872e-18 -1.45326e-18 0)
(-1.65436e-18 1.94109e-19 0)
(0 1.02146e-18 0)
(0 1.77733e-19 0)
(-1.65436e-18 1.49665e-18 0)
(0 1.31105e-18 0)
(0 1.34168e-19 0)
(-1.65436e-18 5.89209e-19 0)
(0 8.60405e-19 0)
(0 4.74669e-19 0)
(-1.65436e-18 7.82819e-19 0)
(-1.65436e-18 1.52011e-18 0)
(0 3.44155e-19 0)
(-0.02 -1.13101e-17 0)
(3.30872e-18 -2.94165e-18 0)
(-9.92617e-18 9.87641e-18 0)
(-1.65436e-18 1.27962e-18 0)
(0 -5.99717e-19 0)
(0 5.20813e-19 0)
(0 1.3949e-18 0)
(-1.65436e-18 1.17072e-18 0)
(-1.65436e-18 2.3102e-18 0)
(-3.30872e-18 2.36641e-18 0)
(0 4.14513e-19 0)
(3.30872e-18 -2.55154e-18 0)
(3.30872e-18 -3.07641e-18 0)
(0 -6.524e-19 0)
(0 -2.0058e-19 0)
(0 8.25336e-19 0)
(-1.65436e-18 6.62258e-19 0)
(0 4.87934e-19 0)
(0 -7.92264e-19 0)
(0 3.28006e-19 0)
(-0.02 -6.72035e-17 0)
(-1.05879e-16 1.06138e-16 0)
(4.1359e-17 -4.0981e-17 0)
(-4.96308e-18 4.62827e-18 0)
(-1.65436e-18 9.38648e-19 0)
(0 1.57543e-18 0)
(-1.65436e-18 1.3198e-18 0)
(-1.65436e-18 3.9192e-19 0)
(1.65436e-18 -1.46907e-18 0)
(0 -9.39412e-19 0)
(0 1.30502e-18 0)
(-3.30872e-18 1.7018e-18 0)
(1.65436e-18 -6.46973e-19 0)
(3.30872e-18 -2.04027e-18 0)
(0 -1.07732e-18 0)
(1.65436e-18 -2.37131e-18 0)
(1.65436e-18 -3.81942e-19 0)
(0 -9.66011e-19 0)
(0 -4.55817e-19 0)
(0 3.02239e-19 0)
(-0.02 5.48552e-17 0)
(8.10637e-17 -8.28256e-17 0)
(-3.30872e-17 3.24582e-17 0)
(3.30872e-18 -2.41697e-18 0)
(0 8.6494e-19 0)
(0 9.7778e-20 0)
(0 -1.77148e-19 0)
(-1.65436e-18 8.05195e-19 0)
(-1.65436e-18 1.39343e-18 0)
(3.30872e-18 -2.32866e-18 0)
(1.65436e-18 -2.79919e-18 0)
(0 -4.19642e-19 0)
(-1.65436e-18 7.46261e-19 0)
(0 9.08885e-20 0)
(3.30872e-18 -2.58936e-18 0)
(1.65436e-18 -1.89309e-18 0)
(1.65436e-18 -1.64733e-18 0)
(-1.65436e-18 -2.16197e-20 0)
(-1.65436e-18 1.53883e-18 0)
(0 -3.91891e-19 0)
(-0.02 3.16034e-18 0)
(-6.61744e-18 5.87675e-18 0)
(9.92617e-18 -8.5236e-18 0)
(1.65436e-18 -2.0466e-18 0)
(0 5.22676e-20 0)
(0 5.35608e-19 0)
(0 1.17249e-18 0)
(0 8.52342e-19 0)
(0 5.29143e-19 0)
(0 7.4128e-19 0)
(0 -1.15459e-19 0)
(0 -2.02768e-18 0)
(0 -8.62987e-19 0)
(0 -3.94655e-19 0)
(-1.65436e-18 2.19556e-18 0)
(-3.30872e-18 1.90602e-18 0)
(0 3.41807e-19 0)
(1.65436e-18 -6.3536e-19 0)
(1.65436e-18 -1.14375e-18 0)
(0 -3.97285e-19 0)
(-0.02 -2.75871e-17 0)
(-3.14329e-17 3.10081e-17 0)
(8.27181e-18 -8.83374e-18 0)
(-1.65436e-18 2.58985e-18 0)
(0 -2.36627e-19 0)
(0 -1.19041e-19 0)
(0 -3.67055e-19 0)
(1.65436e-18 -1.80974e-18 0)
(1.65436e-18 -2.60586e-18 0)
(1.65436e-18 -3.73293e-19 0)
(0 -1.50725e-19 0)
(-1.65436e-18 1.89556e-18 0)
(-1.65436e-18 1.06082e-18 0)
(0 1.41457e-18 0)
(-1.65436e-18 1.07059e-18 0)
(0 3.30144e-19 0)
(-1.65436e-18 1.00225e-18 0)
(-1.65436e-18 1.37875e-18 0)
(0 4.29387e-19 0)
(0 5.57661e-19 0)
(-0.02 2.07171e-17 0)
(4.96308e-17 -4.89518e-17 0)
(-2.31611e-17 2.25518e-17 0)
(1.65436e-18 -2.61385e-18 0)
(-1.65436e-18 2.31155e-18 0)
(-1.65436e-18 1.5783e-18 0)
(0 -1.57727e-19 0)
(0 7.05977e-19 0)
(-3.30872e-18 1.68164e-18 0)
(0 9.91442e-19 0)
(-3.30872e-18 2.13355e-18 0)
(0 1.35684e-18 0)
(0 6.41267e-19 0)
(0 3.96444e-19 0)
(0 -2.27772e-18 0)
(0 -7.48758e-19 0)
(1.65436e-18 -1.31466e-18 0)
(1.65436e-18 -2.28794e-18 0)
(0 -1.22343e-18 0)
(0 6.45933e-19 0)
(-0.02 -2.11909e-17 0)
(-5.79026e-17 5.80853e-17 0)
(2.81241e-17 -2.96153e-17 0)
(-1.65436e-18 2.03798e-18 0)
(3.30872e-18 -4.31852e-18 0)
(1.65436e-18 -1.28686e-18 0)
(0 -1.96747e-20 0)
(0 3.23593e-19 0)
(0 -6.05871e-19 0)
(0 -2.34573e-19 0)
(0 -2.11934e-19 0)
(3.30872e-18 -1.3213e-18 0)
(-1.65436e-18 1.08455e-18 0)
(0 3.90366e-19 0)
(-1.65436e-18 4.99402e-19 0)
(1.65436e-18 -1.19872e-18 0)
(0 -4.19189e-19 0)
(0 5.68826e-19 0)
(0 -6.00192e-19 0)
(3.30872e-18 -3.11572e-18 0)
(-0.02 9.45796e-18 0)
(2.81241e-17 -2.81784e-17 0)
(-1.8198e-17 1.77078e-17 0)
(0 -7.16353e-20 0)
(-3.30872e-18 2.90914e-18 0)
(0 -4.17942e-19 0)
(0 -1.20573e-18 0)
(3.30872e-18 -1.97188e-18 0)
(0 -9.36806e-19 0)
(1.65436e-18 -1.08838e-18 0)
(0 -1.07569e-18 0)
(0 4.92315e-19 0)
(0 -6.83269e-19 0)
(1.65436e-18 -4.19189e-19 0)
(-1.65436e-18 5.09826e-19 0)
(0 7.23807e-19 0)
(0 2.63759e-19 0)
(0 1.37023e-18 0)
(0 1.67929e-18 0)
(-1.65436e-18 1.58323e-18 0)
(-0.02 2.41852e-17 0)
(2.81241e-17 -2.8657e-17 0)
(-4.96308e-18 6.11139e-18 0)
(1.65436e-18 -2.32923e-18 0)
(0 -1.45847e-18 0)
(1.65436e-18 -4.65553e-19 0)
(0 -2.46602e-19 0)
(0 3.24369e-19 0)
(0 7.38795e-19 0)
(0 5.94989e-19 0)
(-1.65436e-18 1.25157e-18 0)
(1.65436e-18 -7.39716e-19 0)
(0 -4.13531e-19 0)
(0 -3.32032e-19 0)
(0 1.15212e-18 0)
(-3.30872e-18 2.27055e-18 0)
(0 1.66991e-18 0)
(0 -9.78793e-19 0)
(0 -9.90851e-19 0)
(0 -1.7209e-19 0)
(-0.02 -6.7931e-17 0)
(-9.5953e-17 9.54122e-17 0)
(2.97785e-17 -2.96661e-17 0)
(-6.61744e-18 6.15414e-18 0)
(0 3.35223e-19 0)
(-1.65436e-18 1.27522e-18 0)
(0 2.48619e-18 0)
(-1.65436e-18 1.07504e-18 0)
(1.65436e-18 -1.5359e-18 0)
(0 -1.01252e-18 0)
(1.65436e-18 -2.37778e-18 0)
(0 -5.78293e-19 0)
(1.65436e-18 -1.10292e-18 0)
(0 -1.06924e-19 0)
(0 -6.19194e-19 0)
(3.30872e-18 -2.03645e-18 0)
(0 -9.46522e-19 0)
(1.65436e-18 -3.37138e-19 0)
(-1.65436e-18 3.70871e-19 0)
(0 3.85854e-19 0)
(-0.02 9.83872e-17 0)
(1.35658e-16 -1.34439e-16 0)
(-4.1359e-17 4.10684e-17 0)
(8.27181e-18 -8.11212e-18 0)
(-1.65436e-18 6.45213e-19 0)
(1.65436e-18 -8.01568e-19 0)
(0 4.91021e-20 0)
(-1.65436e-18 1.48397e-18 0)
(0 1.33798e-18 0)
(0 2.28392e-19 0)
(-1.65436e-18 1.9787e-18 0)
(-3.30872e-18 2.22432e-18 0)
(-1.65436e-18 1.04635e-18 0)
(1.65436e-18 -8.4023e-19 0)
(3.30872e-18 -2.5465e-18 0)
(0 -3.07692e-19 0)
(0 7.3962e-19 0)
(0 6.34322e-19 0)
(0 -6.10421e-19 0)
(0 -9.88772e-20 0)
(-0.02 -1.74707e-17 0)
(-1.8198e-17 2.01994e-17 0)
(4.96308e-18 -6.65074e-18 0)
(-1.65436e-18 1.34017e-18 0)
(-1.65436e-18 2.13785e-19 0)
(1.65436e-18 -9.40786e-19 0)
(3.30872e-18 -3.11398e-18 0)
(3.30872e-18 -2.94547e-18 0)
(0 1.48611e-19 0)
(-1.65436e-18 1.63221e-18 0)
(0 8.16711e-20 0)
(0 -3.68683e-19 0)
(-1.65436e-18 8.75252e-19 0)
(0 9.684e-19 0)
(-3.30872e-18 2.16824e-18 0)
(0 1.29007e-18 0)
(-1.65436e-18 8.03256e-19 0)
(0 1.12188e-18 0)
(0 -4.7975e-20 0)
(0 -5.19725e-19 0)
(-0.02 -1.3137e-16 0)
(-1.70399e-16 1.7108e-16 0)
(4.63221e-17 -4.67039e-17 0)
(-6.61744e-18 7.58809e-18 0)
(1.65436e-18 -2.17722e-18 0)
(-1.65436e-18 1.16778e-18 0)
(-1.65436e-18 1.57356e-18 0)
(-1.65436e-18 1.36409e-18 0)
(-1.65436e-18 6.35672e-19 0)
(0 2.65489e-19 0)
(0 -1.44215e-19 0)
(0 -1.86368e-19 0)
(1.65436e-18 -4.57733e-19 0)
(0 4.44019e-19 0)
(0 -7.45719e-19 0)
(1.65436e-18 -1.31605e-18 0)
(1.65436e-18 -1.43746e-18 0)
(0 -1.29688e-18 0)
(1.65436e-18 1.54348e-19 0)
(-1.65436e-18 9.5337e-19 0)
(-0.02 9.03983e-17 0)
(1.22423e-16 -1.20646e-16 0)
(-3.47416e-17 3.26149e-17 0)
(4.96308e-18 -4.84577e-18 0)
(-1.65436e-18 1.57989e-18 0)
(1.65436e-18 -1.09431e-19 0)
(-1.65436e-18 1.19914e-19 0)
(1.65436e-18 7.35612e-20 0)
(0 -2.59918e-19 0)
(0 -4.47274e-19 0)
(-1.65436e-18 7.01027e-20 0)
(0 -3.63949e-19 0)
(1.65436e-18 -1.35375e-19 0)
(0 -2.06228e-19 0)
(-1.65436e-18 8.57585e-19 0)
(0 9.75824e-19 0)
(0 1.08411e-19 0)
(0 2.62998e-19 0)
(0 7.24547e-19 0)
(0 1.28813e-20 0)
)
;

boundaryField
{
    movingWall
    {
        type            extrapolatedCalculated;
        value           nonuniform List<vector> 
20
(
(-0.02 9.03983e-17 0)
(1.22423e-16 -1.20646e-16 0)
(-3.47416e-17 3.26149e-17 0)
(4.96308e-18 -4.84577e-18 0)
(-1.65436e-18 1.57989e-18 0)
(1.65436e-18 -1.09431e-19 0)
(-1.65436e-18 1.19914e-19 0)
(1.65436e-18 7.35612e-20 0)
(0 -2.59918e-19 0)
(0 -4.47274e-19 0)
(-1.65436e-18 7.01027e-20 0)
(0 -3.63949e-19 0)
(1.65436e-18 -1.35375e-19 0)
(0 -2.06228e-19 0)
(-1.65436e-18 8.57585e-19 0)
(0 9.75824e-19 0)
(0 1.08411e-19 0)
(0 2.62998e-19 0)
(0 7.24547e-19 0)
(0 1.28813e-20 0)
)
;
    }
    fixedWalls
    {
        type            extrapolatedCalculated;
        value           nonuniform List<vector> 
60
(
(-0.02 8.60052e-17 0)
(-0.02 -1.52119e-16 0)
(-0.02 5.72817e-17 0)
(-0.02 7.79979e-17 0)
(-0.02 -1.25709e-16 0)
(-0.02 9.94456e-17 0)
(-0.02 -1.13101e-17 0)
(-0.02 -6.72035e-17 0)
(-0.02 5.48552e-17 0)
(-0.02 3.16034e-18 0)
(-0.02 -2.75871e-17 0)
(-0.02 2.07171e-17 0)
(-0.02 -2.11909e-17 0)
(-0.02 9.45796e-18 0)
(-0.02 2.41852e-17 0)
(-0.02 -6.7931e-17 0)
(-0.02 9.83872e-17 0)
(-0.02 -1.74707e-17 0)
(-0.02 -1.3137e-16 0)
(-0.02 9.03983e-17 0)
(0 -1.0196e-18 0)
(0 9.05113e-19 0)
(0 -1.05545e-18 0)
(0 9.89739e-19 0)
(0 -2.37551e-19 0)
(0 3.44155e-19 0)
(0 3.28006e-19 0)
(0 3.02239e-19 0)
(0 -3.91891e-19 0)
(0 -3.97285e-19 0)
(0 5.57661e-19 0)
(0 6.45933e-19 0)
(3.30872e-18 -3.11572e-18 0)
(-1.65436e-18 1.58323e-18 0)
(0 -1.7209e-19 0)
(0 3.85854e-19 0)
(0 -9.88772e-20 0)
(0 -5.19725e-19 0)
(-1.65436e-18 9.5337e-19 0)
(0 1.28813e-20 0)
(-0.02 8.60052e-17 0)
(1.19114e-16 -1.18991e-16 0)
(-3.80503e-17 3.81755e-17 0)
(4.96308e-18 -5.19595e-18 0)
(-1.65436e-18 2.22856e-18 0)
(0 4.92315e-19 0)
(-1.65436e-18 7.91468e-19 0)
(0 -1.20559e-19 0)
(0 -1.39942e-19 0)
(0 9.48431e-20 0)
(-1.65436e-18 1.65317e-18 0)
(0 8.85944e-19 0)
(-1.65436e-18 8.5022e-19 0)
(0 6.18718e-19 0)
(0 -5.80085e-19 0)
(0 2.09546e-19 0)
(0 1.08793e-18 0)
(0 2.26856e-19 0)
(0 1.86343e-19 0)
(0 -1.0196e-18 0)
)
;
    }
    frontAndBack
    {
        type            empty;
    }
}


// ************************************************************************* //
