/*--------------------------------*- C++ -*----------------------------------*\
| =========                 |                                                 |
| \\      /  F ield         | OpenFOAM: The Open Source CFD Toolbox           |
|  \\    /   O peration     | Version:  2506                                  |
|   \\  /    A nd           | Website:  www.openfoam.com                      |
|    \\/     M anipulation  |                                                 |
\*---------------------------------------------------------------------------*/
FoamFile
{
    version     2.0;
    format      ascii;
    arch        "LSB;label=32;scalar=64";
    class       volTensorField;
    location    "6.25";
    object      gradU;
}
// * * * * * * * * * * * * * * * * * * * * * * * * * * * * * * * * * * * * * //

dimensions      [0 0 -1 0 0 0 0];

internalField   nonuniform List<tensor> 
400
(
(-7.86047e-13 9.4246e-12 0 1.16552e-12 1.419e-11 0 0 0 0)
(1.35525e-12 -1.13385e-11 0 -2.43945e-13 -2.93324e-12 0 0 0 0)
(-4.06576e-13 2.41748e-12 0 2.71051e-14 7.54775e-13 0 0 0 0)
(0 -5.838e-13 0 -2.71051e-14 -1.33799e-13 0 0 0 0)
(-5.42101e-14 1.17372e-13 0 2.71051e-14 5.14328e-14 0 0 0 0)
(-2.71051e-14 -3.56894e-14 0 0 1.06088e-14 0 0 0 0)
(2.71051e-14 -7.3995e-16 0 0 3.99439e-15 0 0 0 0)
(0 -4.83618e-15 0 0 -1.23106e-14 0 0 0 0)
(0 5.81045e-15 0 0 -1.24834e-14 0 0 0 0)
(0 1.77419e-14 0 2.71051e-14 1.24447e-14 0 0 0 0)
(-5.42101e-14 1.18568e-14 0 0 3.8216e-14 0 0 0 0)
(0 -6.72727e-15 0 0 2.67309e-14 0 0 0 0)
(-2.71051e-14 -1.82299e-14 0 0 6.06078e-15 0 0 0 0)
(0 -1.82831e-14 0 0 -1.24325e-14 0 0 0 0)
(0 6.07985e-15 0 0 -1.08395e-14 0 0 0 0)
(0 1.49078e-14 0 2.71051e-14 1.18881e-14 0 0 0 0)
(-2.71051e-14 -3.5628e-15 0 0 1.59415e-14 0 0 0 0)
(0 -8.10381e-15 0 0 7.93909e-15 0 0 0 0)
(-5.42101e-14 -4.02145e-15 0 0 -1.50906e-16 0 0 0 0)
(5.42101e-14 6.62159e-15 0 0 -1.06268e-14 0 0 0 0)
(1.76183e-12 1.83217e-12 0 -1.0842e-13 -2.41797e-11 0 0 0 0)
(-2.52077e-12 -2.09676e-12 0 -3.25261e-13 5.20108e-12 0 0 0 0)
(5.96311e-13 3.81956e-13 0 -2.1684e-13 -1.23674e-12 0 0 0 0)
(0 -1.19543e-13 0 -2.71051e-14 2.61378e-13 0 0 0 0)
(5.42101e-14 2.70352e-14 0 -1.35525e-13 -5.62322e-14 0 0 0 0)
(0 -1.1749e-14 0 -1.35525e-13 1.76665e-14 0 0 0 0)
(0 -2.21795e-14 0 -8.13152e-14 -7.81811e-15 0 0 0 0)
(0 -1.16417e-14 0 -8.13152e-14 -5.22071e-15 0 0 0 0)
(5.42101e-14 1.89449e-14 0 -8.13152e-14 -5.93042e-15 0 0 0 0)
(0 3.29575e-14 0 -1.0842e-13 -1.05339e-14 0 0 0 0)
(0 2.42942e-15 0 -8.13152e-14 -2.265e-14 0 0 0 0)
(0 -2.54279e-14 0 -5.42101e-14 -2.29688e-14 0 0 0 0)
(2.71051e-14 -2.09336e-14 0 -5.42101e-14 -1.33444e-14 0 0 0 0)
(5.42101e-14 1.38278e-15 0 0 2.73438e-15 0 0 0 0)
(0 1.82407e-14 0 -5.42101e-14 1.32787e-14 0 0 0 0)
(0 1.18731e-14 0 -8.13152e-14 -7.41994e-15 0 0 0 0)
(2.71051e-14 -3.86199e-16 0 -5.42101e-14 -1.21939e-14 0 0 0 0)
(-2.71051e-14 -7.98858e-15 0 0 -2.12398e-15 0 0 0 0)
(0 -1.45445e-14 0 -5.42101e-14 -2.38714e-15 0 0 0 0)
(0 4.15615e-15 0 0 -1.60953e-15 0 0 0 0)
(-1.19262e-12 -9.55401e-12 0 -3.7676e-12 6.70556e-12 0 0 0 0)
(1.30104e-12 1.16045e-11 0 1.11131e-12 -1.59966e-12 0 0 0 0)
(-2.43945e-13 -2.52222e-12 0 0 3.12528e-13 0 0 0 0)
(8.13152e-14 5.96707e-13 0 2.71051e-14 -9.78648e-14 0 0 0 0)
(-2.71051e-14 -1.26339e-13 0 8.13152e-14 4.67282e-16 0 0 0 0)
(0 1.27247e-14 0 1.35525e-13 -2.86646e-14 0 0 0 0)
(2.71051e-14 -2.36271e-14 0 2.71051e-14 -6.8717e-15 0 0 0 0)
(0 -2.94849e-15 0 1.0842e-13 3.37906e-15 0 0 0 0)
(-2.71051e-14 4.9731e-16 0 2.71051e-14 2.95858e-16 0 0 0 0)
(0 1.0223e-15 0 8.13152e-14 -2.49369e-14 0 0 0 0)
(8.13152e-14 -5.78114e-16 0 8.13152e-14 -3.85602e-14 0 0 0 0)
(2.71051e-14 2.5784e-15 0 1.0842e-13 -2.24391e-14 0 0 0 0)
(-2.71051e-14 7.47326e-15 0 8.13152e-14 9.10002e-15 0 0 0 0)
(-5.42101e-14 8.34002e-15 0 2.71051e-14 2.25963e-14 0 0 0 0)
(-2.71051e-14 -4.07447e-15 0 0 7.22795e-15 0 0 0 0)
(0 -1.05649e-14 0 8.13152e-14 -9.99463e-15 0 0 0 0)
(2.71051e-14 1.73316e-15 0 5.42101e-14 -9.86302e-15 0 0 0 0)
(0 1.70301e-15 0 -5.42101e-14 -1.36393e-14 0 0 0 0)
(5.42101e-14 -3.50699e-15 0 5.42101e-14 -1.2527e-14 0 0 0 0)
(0 1.06183e-14 0 0 2.22641e-16 0 0 0 0)
(-9.48677e-13 6.93807e-12 0 3.79471e-12 1.21734e-11 0 0 0 0)
(1.21973e-12 -8.48979e-12 0 -7.04731e-13 -2.57624e-12 0 0 0 0)
(-3.79471e-13 1.88375e-12 0 2.71051e-13 5.9486e-13 0 0 0 0)
(2.71051e-14 -4.31603e-13 0 1.0842e-13 -1.30636e-13 0 0 0 0)
(5.42101e-14 9.62354e-14 0 1.0842e-13 1.39207e-14 0 0 0 0)
(5.42101e-14 -1.9088e-14 0 5.42101e-14 -1.86435e-14 0 0 0 0)
(0 9.86422e-15 0 1.0842e-13 4.68699e-15 0 0 0 0)
(-2.71051e-14 -4.47409e-15 0 0 3.83496e-15 0 0 0 0)
(2.71051e-14 -9.371e-15 0 8.13152e-14 -7.30413e-15 0 0 0 0)
(0 -5.89858e-15 0 8.13152e-14 -4.44514e-15 0 0 0 0)
(0 4.92716e-15 0 5.42101e-14 -3.10936e-15 0 0 0 0)
(0 2.22323e-14 0 0 -4.39091e-15 0 0 0 0)
(0 2.41019e-14 0 2.71051e-14 8.49719e-15 0 0 0 0)
(0 -4.89289e-16 0 2.71051e-14 1.24143e-14 0 0 0 0)
(0 -1.43502e-14 0 8.13152e-14 5.53151e-15 0 0 0 0)
(2.71051e-14 -5.21782e-15 0 2.71051e-14 7.21034e-15 0 0 0 0)
(-2.71051e-14 -4.03087e-15 0 5.42101e-14 1.18028e-14 0 0 0 0)
(-2.71051e-14 -1.06526e-14 0 5.42101e-14 4.80492e-15 0 0 0 0)
(0 -6.82533e-16 0 2.71051e-14 1.26969e-15 0 0 0 0)
(-2.71051e-14 1.64605e-14 0 2.71051e-14 2.19524e-15 0 0 0 0)
(1.87025e-12 4.31706e-14 0 -8.94467e-13 -1.75237e-11 0 0 0 0)
(-2.24972e-12 2.59166e-14 0 1.6263e-13 3.85379e-12 0 0 0 0)
(5.42101e-13 -7.66209e-14 0 -8.13152e-14 -8.66691e-13 0 0 0 0)
(-5.42101e-14 1.57679e-14 0 0 2.05549e-13 0 0 0 0)
(-5.42101e-14 -1.43474e-14 0 -2.71051e-14 -3.99889e-14 0 0 0 0)
(-2.71051e-14 3.49099e-15 0 -2.71051e-14 5.07189e-15 0 0 0 0)
(0 -1.14861e-15 0 0 -1.40348e-14 0 0 0 0)
(0 -1.49396e-14 0 8.13152e-14 -7.35703e-15 0 0 0 0)
(0 -7.78278e-15 0 5.42101e-14 -7.87251e-15 0 0 0 0)
(0 5.21707e-15 0 2.71051e-14 5.71546e-15 0 0 0 0)
(0 -5.23889e-16 0 2.71051e-14 1.49136e-14 0 0 0 0)
(-2.71051e-14 1.41849e-14 0 0 1.94416e-14 0 0 0 0)
(0 2.42785e-14 0 0 1.1411e-14 0 0 0 0)
(0 5.37434e-15 0 0 1.31247e-16 0 0 0 0)
(-2.71051e-14 -9.27846e-15 0 2.71051e-14 4.10981e-15 0 0 0 0)
(0 -4.29353e-15 0 0 6.76948e-15 0 0 0 0)
(0 -6.72262e-16 0 0 -1.51473e-15 0 0 0 0)
(0 -8.83013e-15 0 0 7.01832e-15 0 0 0 0)
(0 -6.11667e-15 0 2.71051e-14 1.16814e-14 0 0 0 0)
(0 7.15332e-15 0 2.71051e-14 4.53078e-15 0 0 0 0)
(-1.68051e-12 -6.73186e-12 0 -1.51788e-12 1.15675e-11 0 0 0 0)
(2.05998e-12 8.16725e-12 0 4.06576e-13 -2.59089e-12 0 0 0 0)
(-4.60786e-13 -1.7645e-12 0 0 6.06402e-13 0 0 0 0)
(8.13152e-14 3.95099e-13 0 -5.42101e-14 -1.53991e-13 0 0 0 0)
(0 -1.04242e-13 0 -2.71051e-14 6.57333e-15 0 0 0 0)
(5.42101e-14 6.86615e-15 0 2.71051e-14 -2.86159e-14 0 0 0 0)
(5.42101e-14 -2.5647e-15 0 0 -2.10542e-14 0 0 0 0)
(5.42101e-14 1.68821e-15 0 0 -9.96731e-15 0 0 0 0)
(-2.71051e-14 3.70149e-15 0 -2.71051e-14 1.43564e-14 0 0 0 0)
(0 1.68875e-14 0 -8.13152e-14 2.14792e-14 0 0 0 0)
(0 1.86533e-14 0 -8.13152e-14 1.21997e-14 0 0 0 0)
(-5.42101e-14 1.87298e-14 0 -5.42101e-14 1.05204e-14 0 0 0 0)
(0 4.79152e-15 0 0 1.12807e-15 0 0 0 0)
(-2.71051e-14 -7.79053e-15 0 0 -1.22554e-15 0 0 0 0)
(0 -7.71198e-15 0 0 1.01727e-14 0 0 0 0)
(0 -1.08424e-14 0 0 1.95774e-14 0 0 0 0)
(0 -3.78203e-15 0 0 6.43329e-15 0 0 0 0)
(0 2.54349e-15 0 2.71051e-14 1.01998e-14 0 0 0 0)
(0 -3.17007e-15 0 0 9.74875e-15 0 0 0 0)
(-5.42101e-14 2.48414e-16 0 0 3.78556e-15 0 0 0 0)
(7.86047e-13 9.01974e-12 0 2.57498e-12 4.50586e-12 0 0 0 0)
(-7.31836e-13 -1.09351e-11 0 -7.31836e-13 -9.15383e-13 0 0 0 0)
(8.13152e-14 2.36027e-12 0 2.71051e-14 2.19161e-13 0 0 0 0)
(-1.0842e-13 -5.84061e-13 0 0 -3.97581e-14 0 0 0 0)
(2.71051e-14 1.11028e-13 0 0 8.31253e-15 0 0 0 0)
(0 -2.41365e-14 0 -5.42101e-14 -9.43754e-18 0 0 0 0)
(-2.71051e-14 1.75e-14 0 -1.35525e-13 1.05688e-14 0 0 0 0)
(0 2.0471e-14 0 -1.6263e-13 9.56912e-15 0 0 0 0)
(-8.13152e-14 2.36637e-14 0 -1.35525e-13 2.51438e-14 0 0 0 0)
(-2.71051e-14 3.06034e-15 0 -1.0842e-13 2.91052e-14 0 0 0 0)
(0 -1.14826e-14 0 -1.35525e-13 5.41753e-15 0 0 0 0)
(2.71051e-14 3.11336e-15 0 -8.13152e-14 -2.1889e-14 0 0 0 0)
(8.13152e-14 1.25325e-14 0 -1.35525e-13 -3.56178e-14 0 0 0 0)
(0 1.4419e-14 0 -1.0842e-13 -1.53153e-14 0 0 0 0)
(0 1.15245e-14 0 -1.0842e-13 2.21323e-15 0 0 0 0)
(0 -8.03297e-15 0 -5.42101e-14 1.0272e-14 0 0 0 0)
(-2.71051e-14 -1.00499e-14 0 -5.42101e-14 1.43774e-14 0 0 0 0)
(0 -5.51468e-15 0 -2.71051e-14 5.88792e-15 0 0 0 0)
(2.71051e-14 -1.25309e-14 0 -5.42101e-14 -2.08258e-15 0 0 0 0)
(-2.71051e-14 -6.38099e-15 0 -2.71051e-14 5.03248e-15 0 0 0 0)
(1.35525e-13 -3.14138e-12 0 -1.16552e-12 -1.67937e-11 0 0 0 0)
(-5.42101e-13 3.88055e-12 0 1.6263e-13 3.64425e-12 0 0 0 0)
(2.71051e-13 -8.8887e-13 0 -1.0842e-13 -8.55105e-13 0 0 0 0)
(1.35525e-13 1.8425e-13 0 -5.42101e-14 2.05587e-13 0 0 0 0)
(-8.13152e-14 -6.44929e-14 0 -5.42101e-14 -1.88113e-14 0 0 0 0)
(0 9.12247e-15 0 -8.13152e-14 2.50628e-14 0 0 0 0)
(-5.42101e-14 7.01386e-15 0 -5.42101e-14 1.61244e-14 0 0 0 0)
(0 1.62632e-14 0 -8.13152e-14 1.43792e-14 0 0 0 0)
(0 2.32376e-14 0 -1.0842e-13 8.38085e-17 0 0 0 0)
(5.42101e-14 -2.83876e-15 0 -5.42101e-14 -1.31529e-14 0 0 0 0)
(-5.42101e-14 -3.23409e-14 0 5.42101e-14 -5.15126e-16 0 0 0 0)
(-5.42101e-14 -2.23055e-14 0 0 1.67824e-15 0 0 0 0)
(5.42101e-14 1.13652e-14 0 0 -2.19653e-14 0 0 0 0)
(5.42101e-14 3.00405e-14 0 -2.71051e-14 -2.98656e-14 0 0 0 0)
(0 1.78753e-14 0 -2.71051e-14 -3.50148e-14 0 0 0 0)
(8.13152e-14 1.32178e-15 0 0 -3.20316e-14 0 0 0 0)
(0 -8.16606e-15 0 0 -1.14009e-14 0 0 0 0)
(0 -1.39165e-14 0 2.71051e-14 -1.08907e-14 0 0 0 0)
(2.71051e-14 -4.02551e-15 0 0 -1.02609e-16 0 0 0 0)
(-2.71051e-14 -2.70149e-15 0 0 3.40024e-15 0 0 0 0)
(-1.89735e-13 -4.12968e-12 0 -9.75782e-13 1.3894e-11 0 0 0 0)
(3.79471e-13 5.00343e-12 0 3.52366e-13 -3.10313e-12 0 0 0 0)
(-1.89735e-13 -1.07839e-12 0 8.13152e-14 6.91698e-13 0 0 0 0)
(-8.13152e-14 2.52233e-13 0 0 -1.56112e-13 0 0 0 0)
(0 -6.94966e-14 0 5.42101e-14 5.03516e-14 0 0 0 0)
(0 1.07991e-14 0 2.71051e-14 1.42557e-14 0 0 0 0)
(0 6.81645e-15 0 8.13152e-14 2.05327e-14 0 0 0 0)
(0 4.43041e-15 0 8.13152e-14 1.90083e-14 0 0 0 0)
(-5.42101e-14 -3.8685e-15 0 1.35525e-13 4.66401e-15 0 0 0 0)
(5.42101e-14 2.4614e-15 0 8.13152e-14 -3.0147e-14 0 0 0 0)
(8.13152e-14 3.34855e-15 0 8.13152e-14 -2.13405e-14 0 0 0 0)
(-5.42101e-14 -1.83368e-14 0 1.0842e-13 -1.84652e-16 0 0 0 0)
(0 -1.90113e-14 0 1.0842e-13 5.53562e-15 0 0 0 0)
(-2.71051e-14 1.36946e-15 0 8.13152e-14 -1.41852e-14 0 0 0 0)
(8.13152e-14 9.35851e-15 0 8.13152e-14 -2.77975e-14 0 0 0 0)
(2.71051e-14 1.5581e-14 0 2.71051e-14 -3.2423e-14 0 0 0 0)
(2.71051e-14 1.1091e-14 0 0 -2.7152e-14 0 0 0 0)
(-2.71051e-14 5.78358e-15 0 0 -1.16552e-14 0 0 0 0)
(-2.71051e-14 1.76005e-15 0 0 7.88947e-15 0 0 0 0)
(0 -9.67863e-15 0 0 -2.502e-15 0 0 0 0)
(-5.42101e-13 7.64949e-12 0 6.77626e-13 -3.9277e-12 0 0 0 0)
(5.42101e-13 -9.32176e-12 0 -1.89735e-13 8.24033e-13 0 0 0 0)
(-5.42101e-14 2.05815e-12 0 0 -1.89476e-13 0 0 0 0)
(1.0842e-13 -4.57096e-13 0 1.0842e-13 2.28245e-14 0 0 0 0)
(0 1.05875e-13 0 5.42101e-14 -1.48615e-14 0 0 0 0)
(0 -2.06964e-14 0 1.0842e-13 5.77177e-15 0 0 0 0)
(-2.71051e-14 1.17665e-14 0 1.0842e-13 9.96222e-15 0 0 0 0)
(0 3.94487e-16 0 1.0842e-13 2.08353e-15 0 0 0 0)
(0 -2.59177e-14 0 1.35525e-13 2.72459e-16 0 0 0 0)
(0 -2.88433e-14 0 1.35525e-13 -5.95603e-15 0 0 0 0)
(0 -2.37857e-15 0 8.13152e-14 -2.16971e-14 0 0 0 0)
(2.71051e-14 4.57062e-15 0 5.42101e-14 -1.97997e-14 0 0 0 0)
(0 -2.63534e-15 0 8.13152e-14 -7.88789e-16 0 0 0 0)
(0 -3.29269e-15 0 8.13152e-14 9.80943e-15 0 0 0 0)
(-5.42101e-14 -3.62573e-16 0 2.71051e-14 2.33005e-14 0 0 0 0)
(-5.42101e-14 1.96735e-15 0 2.71051e-14 1.32521e-14 0 0 0 0)
(0 1.26018e-14 0 0 3.59735e-15 0 0 0 0)
(5.42101e-14 2.1125e-14 0 -2.71051e-14 2.65498e-15 0 0 0 0)
(0 5.12771e-15 0 0 -5.54241e-15 0 0 0 0)
(0 -8.08895e-15 0 -2.71051e-14 -3.11213e-15 0 0 0 0)
(3.52366e-13 -7.23334e-12 0 1.0842e-12 -4.17446e-12 0 0 0 0)
(-3.25261e-13 8.74165e-12 0 -2.71051e-14 9.92987e-13 0 0 0 0)
(5.42101e-14 -1.8796e-12 0 2.1684e-13 -2.09892e-13 0 0 0 0)
(-2.71051e-14 4.26848e-13 0 2.71051e-14 5.29558e-14 0 0 0 0)
(0 -8.65493e-14 0 2.71051e-14 -2.34046e-15 0 0 0 0)
(0 3.56228e-14 0 0 4.33296e-15 0 0 0 0)
(0 3.12821e-15 0 0 -9.94814e-15 0 0 0 0)
(5.42101e-14 -5.25935e-15 0 2.71051e-14 -1.92037e-14 0 0 0 0)
(2.71051e-14 -1.19081e-14 0 0 -1.70327e-14 0 0 0 0)
(2.71051e-14 -1.95082e-14 0 -2.71051e-14 6.72176e-15 0 0 0 0)
(2.71051e-14 -1.04951e-14 0 -2.71051e-14 1.33324e-14 0 0 0 0)
(-5.42101e-14 2.57152e-15 0 -2.71051e-14 1.70906e-14 0 0 0 0)
(-2.71051e-14 1.05978e-14 0 -8.13152e-14 7.12644e-15 0 0 0 0)
(-5.42101e-14 2.54587e-14 0 -1.35525e-13 1.58378e-14 0 0 0 0)
(0 1.28011e-14 0 -8.13152e-14 1.93136e-14 0 0 0 0)
(0 -4.12211e-15 0 -5.42101e-14 2.3684e-14 0 0 0 0)
(-2.71051e-14 4.93907e-16 0 -5.42101e-14 1.89686e-14 0 0 0 0)
(-2.71051e-14 -3.35618e-15 0 2.71051e-14 6.06921e-15 0 0 0 0)
(0 -4.00705e-15 0 0 -4.03199e-15 0 0 0 0)
(0 -1.02409e-15 0 2.71051e-14 3.89573e-15 0 0 0 0)
(5.42101e-13 4.46802e-12 0 -1.13841e-12 1.06385e-11 0 0 0 0)
(-3.52366e-13 -5.35719e-12 0 0 -2.3151e-12 0 0 0 0)
(2.71051e-14 1.11812e-12 0 -2.71051e-13 5.21268e-13 0 0 0 0)
(-8.13152e-14 -2.49544e-13 0 -1.35525e-13 -1.15694e-13 0 0 0 0)
(-2.71051e-14 5.72521e-14 0 -8.13152e-14 3.61243e-14 0 0 0 0)
(-5.42101e-14 -2.83041e-14 0 -5.42101e-14 1.26695e-14 0 0 0 0)
(0 -1.17701e-14 0 -5.42101e-14 3.80404e-15 0 0 0 0)
(0 -6.69004e-15 0 -8.13152e-14 6.27971e-15 0 0 0 0)
(-5.42101e-14 7.72038e-18 0 -1.35525e-13 7.84641e-15 0 0 0 0)
(0 1.52174e-15 0 -1.0842e-13 1.38993e-14 0 0 0 0)
(-5.42101e-14 7.99029e-15 0 -1.35525e-13 2.57073e-14 0 0 0 0)
(0 -1.63531e-15 0 -1.0842e-13 2.54393e-14 0 0 0 0)
(-2.71051e-14 -3.88812e-15 0 -2.71051e-14 2.70345e-14 0 0 0 0)
(-5.42101e-14 8.8945e-15 0 -8.13152e-14 1.62829e-14 0 0 0 0)
(8.13152e-14 7.48361e-15 0 0 -2.06177e-14 0 0 0 0)
(0 1.62236e-15 0 -8.13152e-14 -1.82508e-14 0 0 0 0)
(0 -5.01305e-15 0 -2.71051e-14 -2.06126e-14 0 0 0 0)
(5.42101e-14 -1.87567e-15 0 -2.71051e-14 -2.13633e-14 0 0 0 0)
(2.71051e-14 2.95423e-15 0 -5.42101e-14 -1.26012e-14 0 0 0 0)
(-2.71051e-14 -7.95269e-15 0 -2.71051e-14 -4.73746e-15 0 0 0 0)
(-7.86047e-13 1.09002e-12 0 8.13152e-14 -1.34516e-11 0 0 0 0)
(4.87891e-13 -1.37555e-12 0 -8.13152e-14 2.83785e-12 0 0 0 0)
(0 3.19811e-13 0 -8.13152e-14 -6.72592e-13 0 0 0 0)
(1.0842e-13 -5.82955e-14 0 -2.71051e-14 1.28874e-13 0 0 0 0)
(1.0842e-13 4.18139e-14 0 -1.35525e-13 -5.76593e-14 0 0 0 0)
(0 3.30253e-15 0 -5.42101e-14 -7.25374e-15 0 0 0 0)
(0 -3.26156e-15 0 -8.13152e-14 -6.76202e-15 0 0 0 0)
(0 -1.21698e-15 0 -8.13152e-14 -3.78786e-16 0 0 0 0)
(0 -4.28847e-15 0 -2.71051e-14 -3.69953e-15 0 0 0 0)
(0 -1.64732e-15 0 0 -6.35381e-15 0 0 0 0)
(0 1.04488e-15 0 2.71051e-14 -5.47865e-16 0 0 0 0)
(8.13152e-14 3.8987e-15 0 5.42101e-14 -6.30297e-15 0 0 0 0)
(-5.42101e-14 1.44139e-15 0 2.71051e-14 9.92618e-15 0 0 0 0)
(-2.71051e-14 -2.21934e-14 0 1.35525e-13 6.35315e-16 0 0 0 0)
(0 -2.17325e-14 0 8.13152e-14 -1.31207e-14 0 0 0 0)
(2.71051e-14 -4.11701e-15 0 8.13152e-14 -2.46003e-14 0 0 0 0)
(0 -2.61855e-15 0 1.0842e-13 -1.7768e-14 0 0 0 0)
(0 4.65522e-15 0 5.42101e-14 -2.23128e-15 0 0 0 0)
(0 1.26188e-14 0 5.42101e-14 -9.22773e-15 0 0 0 0)
(5.42101e-14 1.63146e-14 0 0 -1.77679e-14 0 0 0 0)
(5.14996e-13 -6.14569e-12 0 0 8.31828e-12 0 0 0 0)
(-4.60786e-13 7.42177e-12 0 2.1684e-13 -1.75172e-12 0 0 0 0)
(2.71051e-14 -1.59085e-12 0 1.89735e-13 4.1944e-13 0 0 0 0)
(-8.13152e-14 3.65389e-13 0 8.13152e-14 -7.41005e-14 0 0 0 0)
(-5.42101e-14 -7.88757e-14 0 1.35525e-13 2.24625e-14 0 0 0 0)
(0 2.25932e-14 0 5.42101e-14 -1.86393e-14 0 0 0 0)
(0 -4.89519e-15 0 8.13152e-14 -1.9282e-14 0 0 0 0)
(5.42101e-14 -3.62754e-15 0 8.13152e-14 -2.14002e-14 0 0 0 0)
(0 -5.9673e-15 0 1.35525e-13 -1.34144e-14 0 0 0 0)
(2.71051e-14 4.6734e-15 0 8.13152e-14 -1.14672e-14 0 0 0 0)
(2.71051e-14 8.04112e-15 0 1.0842e-13 -6.49206e-15 0 0 0 0)
(0 8.83874e-15 0 2.71051e-14 -1.01572e-14 0 0 0 0)
(0 3.05016e-15 0 2.71051e-14 -1.47442e-14 0 0 0 0)
(0 -1.41524e-14 0 5.42101e-14 -1.12715e-14 0 0 0 0)
(0 -1.7752e-14 0 2.71051e-14 1.81744e-14 0 0 0 0)
(0 -3.02488e-15 0 5.42101e-14 2.33291e-14 0 0 0 0)
(0 1.7356e-14 0 0 2.09068e-14 0 0 0 0)
(0 6.66457e-15 0 -5.42101e-14 2.06393e-14 0 0 0 0)
(-2.71051e-14 -1.25824e-14 0 2.71051e-14 1.25766e-14 0 0 0 0)
(-2.71051e-14 1.9043e-14 0 2.71051e-14 -2.95309e-15 0 0 0 0)
(-5.42101e-13 7.65658e-12 0 5.14996e-13 1.80822e-12 0 0 0 0)
(6.50521e-13 -9.27439e-12 0 -2.71051e-13 -3.73591e-13 0 0 0 0)
(-1.6263e-13 1.99743e-12 0 -1.0842e-13 8.84726e-14 0 0 0 0)
(8.13152e-14 -4.55273e-13 0 -5.42101e-14 -1.30835e-14 0 0 0 0)
(0 9.72751e-14 0 -5.42101e-14 4.83213e-15 0 0 0 0)
(2.71051e-14 -3.84419e-14 0 0 -3.22297e-15 0 0 0 0)
(0 -6.02242e-15 0 -5.42101e-14 2.25691e-16 0 0 0 0)
(0 4.6506e-15 0 -5.42101e-14 -4.14307e-15 0 0 0 0)
(0 5.64455e-15 0 -1.0842e-13 -1.32784e-15 0 0 0 0)
(0 5.27501e-15 0 -8.13152e-14 4.71674e-16 0 0 0 0)
(-2.71051e-14 2.35482e-15 0 -1.0842e-13 -4.29791e-15 0 0 0 0)
(2.71051e-14 -4.35342e-15 0 -8.13152e-14 -6.54931e-15 0 0 0 0)
(0 3.2717e-16 0 -2.71051e-14 -6.06968e-15 0 0 0 0)
(0 1.07251e-14 0 -5.42101e-14 5.0602e-15 0 0 0 0)
(0 1.2868e-14 0 -5.42101e-14 2.10261e-14 0 0 0 0)
(-5.42101e-14 -1.38459e-15 0 -5.42101e-14 2.24067e-14 0 0 0 0)
(-5.42101e-14 -5.30835e-15 0 -2.71051e-14 1.39266e-14 0 0 0 0)
(5.42101e-14 -3.67494e-15 0 0 -4.98562e-15 0 0 0 0)
(0 -1.09736e-14 0 0 2.14265e-15 0 0 0 0)
(0 6.691e-15 0 -2.71051e-14 6.85604e-15 0 0 0 0)
(7.04731e-13 -4.71106e-12 0 -1.00289e-12 -1.18992e-11 0 0 0 0)
(-1.00289e-12 5.70203e-12 0 2.98156e-13 2.53325e-12 0 0 0 0)
(2.43945e-13 -1.23035e-12 0 5.42101e-14 -5.74964e-13 0 0 0 0)
(-2.71051e-14 2.81748e-13 0 5.42101e-14 1.32383e-13 0 0 0 0)
(0 -6.90152e-14 0 5.42101e-14 -2.67656e-14 0 0 0 0)
(0 1.79868e-14 0 2.71051e-14 1.94712e-14 0 0 0 0)
(-5.42101e-14 -5.81528e-15 0 5.42101e-14 3.6202e-14 0 0 0 0)
(-5.42101e-14 -5.18107e-15 0 5.42101e-14 2.547e-14 0 0 0 0)
(5.42101e-14 -1.35256e-15 0 0 -9.34997e-15 0 0 0 0)
(0 1.70334e-15 0 0 -1.72778e-14 0 0 0 0)
(5.42101e-14 1.02014e-15 0 0 -1.4473e-14 0 0 0 0)
(0 7.06696e-15 0 0 -3.18706e-15 0 0 0 0)
(2.71051e-14 1.46597e-14 0 -1.0842e-13 -8.88113e-15 0 0 0 0)
(-2.71051e-14 1.29434e-14 0 -8.13152e-14 -1.16648e-14 0 0 0 0)
(2.71051e-14 -4.05588e-16 0 -5.42101e-14 -2.33923e-14 0 0 0 0)
(5.42101e-14 -1.01244e-14 0 0 -2.47922e-14 0 0 0 0)
(0 -1.00363e-14 0 0 -7.66955e-15 0 0 0 0)
(2.71051e-14 -5.11935e-15 0 0 -7.28584e-15 0 0 0 0)
(-2.71051e-14 -7.40767e-16 0 -2.71051e-14 -3.1508e-15 0 0 0 0)
(0 1.00443e-14 0 0 3.41491e-15 0 0 0 0)
(-1.24683e-12 -1.70937e-12 0 -7.04731e-13 1.58033e-11 0 0 0 0)
(1.68051e-12 2.04985e-12 0 2.71051e-13 -3.40281e-12 0 0 0 0)
(-4.06576e-13 -4.03442e-13 0 2.71051e-14 8.03881e-13 0 0 0 0)
(2.71051e-14 9.29257e-14 0 5.42101e-14 -1.81663e-13 0 0 0 0)
(0 -1.56367e-14 0 2.71051e-14 4.48444e-14 0 0 0 0)
(2.71051e-14 2.45257e-14 0 2.71051e-14 -5.36642e-15 0 0 0 0)
(0 -2.36562e-17 0 5.42101e-14 4.8048e-15 0 0 0 0)
(-2.71051e-14 -4.09014e-14 0 8.13152e-14 1.04672e-14 0 0 0 0)
(-2.71051e-14 -3.71032e-14 0 1.35525e-13 7.32738e-15 0 0 0 0)
(0 1.51928e-16 0 1.0842e-13 7.50798e-15 0 0 0 0)
(-2.71051e-14 1.64455e-14 0 1.0842e-13 1.29012e-14 0 0 0 0)
(-5.42101e-14 1.23851e-15 0 1.0842e-13 2.01214e-14 0 0 0 0)
(-2.71051e-14 -8.15055e-15 0 1.0842e-13 1.30179e-15 0 0 0 0)
(0 -3.78606e-15 0 8.13152e-14 -1.47572e-14 0 0 0 0)
(8.13152e-14 -2.59424e-16 0 5.42101e-14 -2.28584e-14 0 0 0 0)
(0 1.43382e-14 0 0 -2.17455e-15 0 0 0 0)
(0 1.2198e-14 0 0 1.45506e-14 0 0 0 0)
(0 8.4381e-16 0 -5.42101e-14 9.00563e-15 0 0 0 0)
(0 -2.72882e-16 0 0 -7.36243e-15 0 0 0 0)
(0 6.4269e-15 0 0 -5.9124e-16 0 0 0 0)
(2.43945e-13 7.68941e-12 0 4.20128e-12 -2.07577e-12 0 0 0 0)
(-2.98156e-13 -9.29737e-12 0 -1.11131e-12 4.87596e-13 0 0 0 0)
(1.0842e-13 1.9908e-12 0 1.0842e-13 -1.23779e-13 0 0 0 0)
(-2.71051e-14 -4.77288e-13 0 -2.71051e-14 1.12524e-14 0 0 0 0)
(0 1.07281e-13 0 -2.71051e-14 -1.53378e-14 0 0 0 0)
(0 -2.20528e-14 0 -2.71051e-14 -2.6206e-14 0 0 0 0)
(5.42101e-14 1.00183e-14 0 -2.71051e-14 -4.76377e-14 0 0 0 0)
(5.42101e-14 -2.65849e-15 0 -2.71051e-14 -2.99188e-14 0 0 0 0)
(0 -4.31175e-15 0 -2.71051e-14 1.28825e-14 0 0 0 0)
(-5.42101e-14 7.2772e-15 0 -5.42101e-14 2.86991e-14 0 0 0 0)
(2.71051e-14 1.36335e-14 0 -5.42101e-14 1.71816e-14 0 0 0 0)
(2.71051e-14 -4.53249e-15 0 0 1.63607e-14 0 0 0 0)
(-2.71051e-14 -2.02189e-14 0 2.71051e-14 2.49825e-14 0 0 0 0)
(-5.42101e-14 -1.12169e-14 0 0 2.2476e-14 0 0 0 0)
(-2.71051e-14 1.2177e-14 0 -5.42101e-14 1.7384e-14 0 0 0 0)
(-2.71051e-14 2.72846e-14 0 0 1.46532e-14 0 0 0 0)
(0 1.14392e-15 0 -5.42101e-14 9.82275e-15 0 0 0 0)
(0 -2.70324e-14 0 0 6.71169e-15 0 0 0 0)
(0 -1.03376e-14 0 0 -7.23282e-15 0 0 0 0)
(0 1.7998e-14 0 2.71051e-14 -7.12856e-16 0 0 0 0)
(1.87025e-12 -3.29754e-12 0 -1.78893e-12 -1.82848e-11 0 0 0 0)
(-2.41235e-12 4.00184e-12 0 4.60786e-13 3.9322e-12 0 0 0 0)
(6.23416e-13 -8.79786e-13 0 -8.13152e-14 -9.37974e-13 0 0 0 0)
(-8.13152e-14 2.01367e-13 0 0 2.04784e-13 0 0 0 0)
(2.71051e-14 -5.3095e-14 0 2.71051e-14 -4.08616e-14 0 0 0 0)
(0 -7.77418e-15 0 0 2.08015e-14 0 0 0 0)
(-2.71051e-14 -3.73646e-15 0 0 1.10391e-14 0 0 0 0)
(-5.42101e-14 1.96188e-14 0 -5.42101e-14 7.90112e-15 0 0 0 0)
(-2.71051e-14 2.15146e-14 0 -5.42101e-14 8.73998e-15 0 0 0 0)
(0 4.45098e-15 0 -5.42101e-14 5.63701e-15 0 0 0 0)
(0 4.10718e-15 0 -5.42101e-14 -7.5768e-15 0 0 0 0)
(2.71051e-14 9.03947e-15 0 -5.42101e-14 -1.38919e-14 0 0 0 0)
(0 -2.03529e-15 0 -5.42101e-14 -3.6765e-15 0 0 0 0)
(-2.71051e-14 -1.13845e-14 0 -5.42101e-14 4.85135e-15 0 0 0 0)
(2.71051e-14 -8.08223e-15 0 0 9.95631e-16 0 0 0 0)
(0 6.77691e-15 0 0 -1.3322e-14 0 0 0 0)
(0 4.25656e-15 0 0 -2.1796e-14 0 0 0 0)
(5.42101e-14 -1.62118e-14 0 0 -6.27899e-15 0 0 0 0)
(2.71051e-14 -7.69743e-15 0 5.42101e-14 8.93113e-15 0 0 0 0)
(-2.71051e-14 1.43726e-14 0 0 7.25178e-15 0 0 0 0)
(-1.0571e-12 -6.66322e-12 0 -1.02999e-12 1.2706e-11 0 0 0 0)
(1.46367e-12 8.04948e-12 0 2.1684e-13 -2.74529e-12 0 0 0 0)
(-3.79471e-13 -1.73662e-12 0 -5.42101e-14 6.54729e-13 0 0 0 0)
(2.71051e-14 4.19824e-13 0 -2.71051e-14 -1.28887e-13 0 0 0 0)
(-2.71051e-14 -7.67012e-14 0 -2.71051e-14 3.35371e-14 0 0 0 0)
(0 2.98478e-14 0 -2.71051e-14 9.09469e-16 0 0 0 0)
(-2.71051e-14 -2.88202e-15 0 -2.71051e-14 1.14635e-14 0 0 0 0)
(2.71051e-14 -4.95757e-15 0 0 7.52795e-15 0 0 0 0)
(0 -6.57585e-15 0 0 -3.19776e-15 0 0 0 0)
(0 -9.03958e-15 0 5.42101e-14 -7.41079e-15 0 0 0 0)
(-2.71051e-14 -5.89538e-15 0 5.42101e-14 1.39085e-15 0 0 0 0)
(2.71051e-14 -6.32197e-16 0 0 -5.62259e-15 0 0 0 0)
(0 -1.4756e-15 0 0 -7.01642e-15 0 0 0 0)
(0 -6.54473e-15 0 5.42101e-14 -2.11171e-15 0 0 0 0)
(0 -5.99629e-15 0 5.42101e-14 1.09128e-14 0 0 0 0)
(-2.71051e-14 4.49301e-15 0 0 1.19668e-14 0 0 0 0)
(-5.42101e-14 8.18689e-15 0 5.42101e-14 -3.57063e-16 0 0 0 0)
(5.42101e-14 3.69475e-15 0 5.42101e-14 -4.76636e-16 0 0 0 0)
(2.71051e-14 3.19313e-15 0 -5.42101e-14 1.216e-14 0 0 0 0)
(-2.71051e-14 1.81504e-15 0 -2.71051e-14 4.02766e-15 0 0 0 0)
)
;

boundaryField
{
    movingWall
    {
        type            extrapolatedCalculated;
        value           nonuniform List<tensor> 
20
(
(-1.0571e-12 -6.66322e-12 0 5.86198e-12 3.39542e-11 0 0 0 0)
(1.46367e-12 8.04948e-12 0 -1.59872e-12 -7.30135e-12 0 0 0 0)
(-3.79471e-13 -1.73662e-12 0 0 1.75631e-12 0 0 0 0)
(2.71051e-14 4.19824e-13 0 -8.88178e-14 -3.54889e-13 0 0 0 0)
(-2.71051e-14 -7.67012e-14 0 -8.88178e-14 7.70101e-14 0 0 0 0)
(0 2.98478e-14 0 -4.44089e-14 -4.80845e-14 0 0 0 0)
(-2.71051e-14 -2.88202e-15 0 -4.44089e-14 -4.23811e-14 0 0 0 0)
(2.71051e-14 -4.95757e-15 0 0 -3.65564e-14 0 0 0 0)
(0 -6.57585e-15 0 -4.44089e-14 -2.25509e-14 0 0 0 0)
(0 -9.03958e-15 0 -4.44089e-14 -1.0253e-14 0 0 0 0)
(-2.71051e-14 -5.89538e-15 0 0 1.36075e-14 0 0 0 0)
(2.71051e-14 -6.32197e-16 0 -4.44089e-14 1.33285e-14 0 0 0 0)
(0 -1.4756e-15 0 0 1.61363e-14 0 0 0 0)
(0 -6.54473e-15 0 -4.44089e-14 1.92309e-14 0 0 0 0)
(0 -5.99629e-15 0 -4.44089e-14 4.23152e-14 0 0 0 0)
(-2.71051e-14 4.49301e-15 0 -4.44089e-14 4.32161e-14 0 0 0 0)
(-5.42101e-14 8.18689e-15 0 8.88178e-14 2.43432e-14 0 0 0 0)
(5.42101e-14 3.69475e-15 0 8.88178e-14 1.04685e-14 0 0 0 0)
(2.71051e-14 3.19313e-15 0 -8.88178e-14 9.56414e-15 0 0 0 0)
(-2.71051e-14 1.81504e-15 0 -4.44089e-14 -2.30399e-15 0 0 0 0)
)
;
    }
    fixedWalls
    {
        type            extrapolatedCalculated;
        value           nonuniform List<tensor> 
60
(
(-5.24025e-12 4.78437e-11 0 1.16552e-12 1.419e-11 0 0 0 0)
(9.9476e-12 8.91635e-12 0 -1.0842e-13 -2.41797e-11 0 0 0 0)
(-5.77316e-12 -4.88751e-11 0 -3.7676e-12 6.70556e-12 0 0 0 0)
(-5.06262e-12 3.57386e-11 0 3.79471e-12 1.21734e-11 0 0 0 0)
(9.41469e-12 -1.81412e-13 0 -8.94467e-13 -1.75237e-11 0 0 0 0)
(-8.61533e-12 -3.43563e-11 0 -1.51788e-12 1.15675e-11 0 0 0 0)
(3.37508e-12 4.60884e-11 0 2.57498e-12 4.50586e-12 0 0 0 0)
(1.59872e-12 -1.63329e-11 0 -1.16552e-12 -1.67937e-11 0 0 0 0)
(-1.24345e-12 -2.10863e-11 0 -9.75782e-13 1.3894e-11 0 0 0 0)
(-2.39808e-12 3.92432e-11 0 6.77626e-13 -3.9277e-12 0 0 0 0)
(1.55431e-12 -3.6797e-11 0 1.0842e-12 -4.17446e-12 0 0 0 0)
(1.95399e-12 2.25453e-11 0 -1.13841e-12 1.06385e-11 0 0 0 0)
(-2.93099e-12 5.75682e-12 0 8.13152e-14 -1.34516e-11 0 0 0 0)
(2.13163e-12 -3.12609e-11 0 0 8.31828e-12 0 0 0 0)
(-2.75335e-12 3.90299e-11 0 5.14996e-13 1.80822e-12 0 0 0 0)
(4.08562e-12 -2.4028e-11 0 -1.00289e-12 -1.18992e-11 0 0 0 0)
(-6.83897e-12 -8.56691e-12 0 -7.04731e-13 1.58033e-11 0 0 0 0)
(1.28786e-12 3.91851e-11 0 4.20128e-12 -2.07577e-12 0 0 0 0)
(9.99201e-12 -1.687e-11 0 -1.78893e-12 -1.82848e-11 0 0 0 0)
(-5.86198e-12 -3.39542e-11 0 -1.02999e-12 1.2706e-11 0 0 0 0)
(8.88178e-14 1.70982e-14 0 0 -1.06268e-14 0 0 0 0)
(0 2.54091e-14 0 0 -1.60953e-15 0 0 0 0)
(0 2.35363e-14 0 0 2.22641e-16 0 0 0 0)
(-4.44089e-14 2.45186e-14 0 2.71051e-14 2.19524e-15 0 0 0 0)
(-4.44089e-14 1.47554e-14 0 2.71051e-14 4.53078e-15 0 0 0 0)
(-8.88178e-14 6.39543e-15 0 0 3.78556e-15 0 0 0 0)
(-4.44089e-14 -3.86889e-16 0 -2.71051e-14 5.03248e-15 0 0 0 0)
(-4.44089e-14 -1.37345e-14 0 0 3.40024e-15 0 0 0 0)
(-4.44089e-14 -1.39879e-14 0 0 -2.502e-15 0 0 0 0)
(0 -3.72647e-15 0 -2.71051e-14 -3.11213e-15 0 0 0 0)
(-4.44089e-14 -1.53936e-15 0 2.71051e-14 3.89573e-15 0 0 0 0)
(-4.44089e-14 -1.93094e-14 0 -2.71051e-14 -4.73746e-15 0 0 0 0)
(8.88178e-14 1.74105e-14 0 0 -1.77679e-14 0 0 0 0)
(-4.44089e-14 5.17623e-14 0 2.71051e-14 -2.95309e-15 0 0 0 0)
(0 2.92228e-14 0 -2.71051e-14 6.85604e-15 0 0 0 0)
(0 2.43382e-14 0 0 3.41491e-15 0 0 0 0)
(0 1.55632e-14 0 0 -5.9124e-16 0 0 0 0)
(0 2.67032e-14 0 2.71051e-14 -7.12856e-16 0 0 0 0)
(-4.44089e-14 1.84146e-14 0 0 7.25178e-15 0 0 0 0)
(-4.44089e-14 -2.30399e-15 0 -2.71051e-14 4.02766e-15 0 0 0 0)
(-7.86047e-13 9.4246e-12 0 -5.24025e-12 4.78437e-11 0 0 0 0)
(1.35525e-12 -1.13385e-11 0 2.04281e-12 -1.01453e-11 0 0 0 0)
(-4.06576e-13 2.41748e-12 0 2.22045e-13 2.48977e-12 0 0 0 0)
(0 -5.838e-13 0 3.55271e-13 -4.7536e-13 0 0 0 0)
(-5.42101e-14 1.17372e-13 0 2.66454e-13 1.54572e-13 0 0 0 0)
(-2.71051e-14 -3.56894e-14 0 2.22045e-13 -5.87025e-15 0 0 0 0)
(2.71051e-14 -7.3995e-16 0 1.77636e-13 1.18142e-14 0 0 0 0)
(0 -4.83618e-15 0 2.22045e-13 -8.83005e-15 0 0 0 0)
(0 5.81045e-15 0 1.77636e-13 -7.53052e-15 0 0 0 0)
(0 1.77419e-14 0 2.66454e-13 1.44118e-14 0 0 0 0)
(-5.42101e-14 1.18568e-14 0 1.33227e-13 6.34371e-14 0 0 0 0)
(0 -6.72727e-15 0 1.33227e-13 6.18389e-14 0 0 0 0)
(-2.71051e-14 -1.82299e-14 0 8.88178e-14 3.6528e-14 0 0 0 0)
(0 -1.82831e-14 0 0 -1.10806e-14 0 0 0 0)
(0 6.07985e-15 0 4.44089e-14 -3.66042e-14 0 0 0 0)
(0 1.49078e-14 0 8.88178e-14 1.32388e-14 0 0 0 0)
(-2.71051e-14 -3.5628e-15 0 0 2.30271e-14 0 0 0 0)
(0 -8.10381e-15 0 0 -1.01242e-15 0 0 0 0)
(-5.42101e-14 -4.02145e-15 0 -8.88178e-14 -9.38816e-15 0 0 0 0)
(5.42101e-14 6.62159e-15 0 -8.88178e-14 -1.70982e-14 0 0 0 0)
)
;
    }
    frontAndBack
    {
        type            empty;
    }
}


// ************************************************************************* //
