/*--------------------------------*- C++ -*----------------------------------*\
| =========                 |                                                 |
| \\      /  F ield         | OpenFOAM: The Open Source CFD Toolbox           |
|  \\    /   O peration     | Version:  2506                                  |
|   \\  /    A nd           | Website:  www.openfoam.com                      |
|    \\/     M anipulation  |                                                 |
\*---------------------------------------------------------------------------*/
FoamFile
{
    version     2.0;
    format      ascii;
    arch        "LSB;label=32;scalar=64";
    class       volVectorField;
    location    "6.25";
    object      LambVectorField;
}
// * * * * * * * * * * * * * * * * * * * * * * * * * * * * * * * * * * * * * //

dimensions      [0 1 -2 0 0 0 0];

internalField   nonuniform List<vector> 
400
(
(-9.87862e-25 -8.25908e-12 0)
(-2.81393e-25 1.10945e-11 -0)
(-1.48787e-26 -2.39038e-12 0)
(-6.61576e-28 5.56695e-13 -0)
(-3.4882e-29 -9.02673e-14 0)
(-5.23764e-31 3.56894e-14 -0)
(2.18548e-32 7.3995e-16 0)
(-1.06759e-31 4.83618e-15 -0)
(1.09389e-31 -5.81045e-15 -0)
(3.37349e-31 9.36315e-15 0)
(-1.8804e-30 -1.18568e-14 0)
(1.04002e-30 6.72727e-15 0)
(1.66475e-30 1.82299e-14 0)
(-5.06469e-31 1.82831e-14 -0)
(5.5637e-31 -6.07985e-15 -0)
(4.03691e-31 1.21972e-14 0)
(2.05102e-31 3.5628e-15 0)
(-2.05111e-32 8.10381e-15 -0)
(-9.43849e-32 4.02145e-15 -0)
(2.83043e-31 -6.62159e-15 -0)
(-4.32575e-26 -1.94059e-12 0)
(-7.03132e-27 1.77149e-12 -0)
(-7.92402e-28 -5.98796e-13 0)
(-1.38276e-29 9.24376e-14 -0)
(-2.07912e-29 -1.6256e-13 0)
(-1.49476e-29 -1.23776e-13 0)
(-6.15509e-31 -5.91357e-14 0)
(7.0392e-30 -6.96735e-14 -0)
(1.06284e-29 -1.0026e-13 -0)
(-1.25003e-29 -1.41378e-13 0)
(-1.87225e-29 -8.37446e-14 0)
(-3.2441e-30 -2.87822e-14 0)
(1.02199e-30 -3.32765e-14 -0)
(1.33609e-31 -1.38278e-15 -0)
(1.22328e-30 -7.24508e-14 -0)
(-7.99406e-30 -9.31883e-14 0)
(-5.48181e-30 -5.38239e-14 0)
(6.5444e-31 7.98858e-15 0)
(-8.7111e-31 -3.96656e-14 0)
(2.6401e-31 -4.15615e-15 -0)
(-7.07028e-25 5.78641e-12 -0)
(-2.79618e-25 -1.04932e-11 0)
(-1.54939e-26 2.52222e-12 -0)
(-8.11901e-28 -5.69602e-13 0)
(-3.65249e-29 2.07655e-13 -0)
(1.98923e-29 1.22801e-13 0)
(-2.4679e-30 5.07322e-14 -0)
(-8.27272e-30 1.11369e-13 -0)
(-2.07888e-30 2.66077e-14 -0)
(-5.56503e-30 8.02929e-14 -0)
(-5.56116e-30 8.18933e-14 -0)
(-7.94769e-30 1.05842e-13 -0)
(-3.11048e-30 7.38419e-14 -0)
(-6.71286e-33 1.8765e-14 -0)
(1.68181e-31 4.07447e-15 0)
(-3.7765e-30 9.188e-14 -0)
(-3.37804e-30 5.2477e-14 -0)
(1.3291e-30 -5.59131e-14 -0)
(-2.73243e-30 5.77171e-14 -0)
(6.24787e-31 -1.06183e-14 -0)
(-2.80849e-25 -3.14337e-12 0)
(-1.55434e-25 7.78506e-12 -0)
(-7.17426e-27 -1.6127e-12 0)
(-6.09274e-28 5.40024e-13 -0)
(1.61536e-30 1.21848e-14 0)
(-1.21589e-29 7.32981e-14 -0)
(-5.74666e-30 9.8556e-14 -0)
(-3.00841e-31 4.47409e-15 -0)
(-9.34517e-30 9.06862e-14 -0)
(-1.40371e-29 8.72137e-14 -0)
(-7.98558e-30 4.9283e-14 -0)
(2.48289e-30 -2.22323e-14 -0)
(1.81056e-31 3.00318e-15 0)
(3.56904e-30 2.75943e-14 0)
(5.29939e-30 9.56654e-14 0)
(-4.57768e-31 3.23229e-14 -0)
(1.87355e-31 5.8241e-14 0)
(-3.53314e-30 6.48627e-14 -0)
(-2.87071e-30 2.77876e-14 -0)
(-6.5247e-31 1.06445e-14 -0)
(4.25247e-28 -9.37637e-13 -0)
(1.21024e-28 1.36714e-13 0)
(9.12399e-31 -4.69427e-15 -0)
(-1.87681e-30 -1.57679e-14 0)
(4.68022e-31 -1.27576e-14 -0)
(7.47969e-31 -3.0596e-14 -0)
(-2.03956e-33 1.14861e-15 -0)
(-3.45869e-30 9.62548e-14 -0)
(-9.37158e-30 6.19929e-14 -0)
(-2.48999e-30 2.1888e-14 -0)
(-2.7353e-30 2.76289e-14 -0)
(1.688e-30 -1.41849e-14 -0)
(-1.04029e-30 -2.42785e-14 0)
(-6.65265e-31 -5.37434e-15 0)
(3.51435e-30 3.63835e-14 0)
(1.33103e-31 4.29353e-15 0)
(3.60712e-32 6.72262e-16 0)
(2.14381e-31 8.83013e-15 0)
(-1.15096e-30 3.32217e-14 -0)
(-7.35988e-31 1.99517e-14 -0)
(-4.47833e-25 5.21398e-12 -0)
(-1.44133e-25 -7.76068e-12 0)
(-7.44318e-27 1.7645e-12 -0)
(-4.16622e-28 -4.49309e-13 0)
(-2.062e-29 7.71365e-14 -0)
(-2.33079e-30 2.02389e-14 -0)
(-5.09495e-31 2.5647e-15 -0)
(2.37719e-31 -1.68821e-15 -0)
(5.59985e-30 -3.08065e-14 -0)
(1.01931e-29 -9.82027e-14 -0)
(1.28951e-30 -9.99685e-14 -0)
(-6.03482e-30 -7.29399e-14 0)
(-8.35634e-31 -4.79152e-15 0)
(1.01785e-30 7.79053e-15 0)
(7.44153e-31 7.71198e-15 0)
(5.80418e-31 1.08424e-14 0)
(-4.51212e-32 3.78203e-15 -0)
(3.85915e-31 2.45616e-14 0)
(4.281e-32 3.17007e-15 0)
(3.97178e-33 -2.48414e-16 -0)
(-7.42571e-25 -6.44476e-12 0)
(-2.55324e-25 1.02033e-11 -0)
(-1.36949e-26 -2.33317e-12 0)
(-8.29884e-28 5.84061e-13 -0)
(-3.22511e-30 -1.11028e-13 0)
(9.34104e-30 -3.00736e-14 -0)
(3.24899e-29 -1.53025e-13 -0)
(2.48296e-29 -1.83101e-13 -0)
(1.21108e-30 -1.59189e-13 -0)
(-1.1263e-29 -1.11481e-13 0)
(-2.85243e-30 -1.24043e-13 0)
(1.16471e-30 -8.44285e-14 -0)
(-8.01423e-30 -1.48058e-13 0)
(-1.37003e-29 -1.22839e-13 0)
(-2.37873e-29 -1.19945e-13 0)
(-1.04718e-29 -4.61771e-14 0)
(-5.21044e-30 -4.41602e-14 0)
(-2.72634e-30 -2.15904e-14 0)
(-2.61924e-30 -4.16792e-14 0)
(-2.00448e-32 -2.07241e-14 0)
(-8.0679e-26 1.97587e-12 -0)
(-3.50168e-26 -3.71792e-12 0)
(-1.58173e-27 7.8045e-13 -0)
(-1.26305e-28 -2.3846e-13 0)
(-1.89402e-30 1.02828e-14 -0)
(1.04237e-29 -9.04376e-14 -0)
(5.69189e-30 -6.1224e-14 -0)
(4.40271e-30 -9.75784e-14 -0)
(-9.17177e-30 -1.31658e-13 0)
(-9.61961e-30 -5.13713e-14 0)
(3.57249e-30 8.6551e-14 0)
(-3.03696e-30 2.23055e-14 -0)
(2.06596e-30 -1.13652e-14 -0)
(1.28581e-30 -5.71455e-14 -0)
(-5.33581e-30 -4.49803e-14 0)
(-2.0653e-31 -1.32178e-15 0)
(1.07664e-30 8.16606e-15 0)
(3.05985e-30 4.10215e-14 0)
(-2.94721e-32 4.02551e-15 -0)
(9.27588e-32 2.70149e-15 0)
(-1.6626e-25 3.1539e-12 -0)
(-5.31098e-26 -4.65106e-12 0)
(-3.10962e-27 1.1597e-12 -0)
(-1.60165e-28 -2.52233e-13 0)
(-1.96774e-29 1.23707e-13 -0)
(-9.77997e-31 1.6306e-14 -0)
(-3.80494e-30 7.44987e-14 -0)
(6.29425e-31 7.68847e-14 0)
(-9.43659e-31 1.39394e-13 -0)
(-2.40491e-30 7.88538e-14 -0)
(1.39126e-30 7.79666e-14 0)
(3.78646e-31 1.26757e-13 0)
(-2.1093e-29 1.27432e-13 -0)
(-1.49599e-29 7.99457e-14 -0)
(-1.09251e-29 7.19566e-14 -0)
(-1.07797e-30 1.1524e-14 -0)
(-4.4151e-32 -1.1091e-14 0)
(-1.00456e-31 -5.78358e-15 0)
(-1.088e-31 -1.76005e-15 0)
(3.38458e-31 9.67863e-15 0)
(-6.83995e-25 -6.97186e-12 0)
(-1.9737e-25 9.13202e-12 -0)
(-1.00649e-26 -2.05815e-12 0)
(-5.83302e-28 5.65516e-13 -0)
(-1.64978e-29 -5.16649e-14 0)
(3.52468e-30 1.29117e-13 0)
(1.08599e-29 9.66537e-14 0)
(1.56598e-29 1.08026e-13 0)
(1.87764e-29 1.61443e-13 0)
(-1.87731e-29 1.64369e-13 -0)
(-1.44061e-29 8.36937e-14 -0)
(-6.85022e-30 4.96395e-14 -0)
(-1.06133e-29 8.39505e-14 -0)
(-1.39055e-29 8.46079e-14 -0)
(-4.37696e-30 2.74676e-14 -0)
(-4.22259e-30 2.51377e-14 -0)
(1.76017e-30 -1.26018e-14 -0)
(2.02377e-30 -4.823e-14 -0)
(-3.67007e-31 -5.12771e-15 0)
(-1.77157e-31 -1.90161e-14 0)
(-7.65153e-25 8.31754e-12 -0)
(-1.72387e-25 -8.76875e-12 0)
(-9.59363e-27 2.09644e-12 -0)
(-3.45071e-28 -3.99743e-13 0)
(-3.49691e-29 1.13654e-13 -0)
(8.05133e-32 -3.56228e-14 -0)
(-1.51869e-31 -3.12821e-15 0)
(9.39278e-31 3.23644e-14 0)
(-4.81698e-32 1.19081e-14 -0)
(6.84164e-31 -7.59687e-15 -0)
(3.30748e-30 -1.66099e-14 -0)
(5.78723e-30 -2.96766e-14 -0)
(1.59388e-29 -9.1913e-14 -0)
(1.43327e-29 -1.60984e-13 -0)
(-7.63993e-30 -9.41163e-14 0)
(-1.95242e-30 -5.0088e-14 0)
(-2.18566e-30 -5.4704e-14 0)
(1.33782e-30 3.04612e-14 0)
(2.56151e-32 4.00705e-15 0)
(1.08252e-31 2.81291e-14 0)
(-3.15997e-25 -5.60643e-12 0)
(-6.25886e-26 5.35719e-12 -0)
(-3.87768e-27 -1.38917e-12 0)
(-5.72252e-29 1.14019e-13 -0)
(-4.10046e-29 -1.38567e-13 0)
(-1.82969e-30 -2.5906e-14 0)
(-5.46522e-31 -4.244e-14 0)
(3.51285e-30 -7.46251e-14 -0)
(7.32188e-30 -1.35533e-13 -0)
(5.16685e-30 -1.09942e-13 -0)
(5.56918e-30 -1.43516e-13 -0)
(-3.51395e-30 -1.06785e-13 0)
(1.28061e-30 -2.32169e-14 -0)
(5.38954e-31 -9.02097e-14 -0)
(-2.52845e-31 -7.48361e-15 0)
(-5.71122e-30 -8.29375e-14 0)
(-1.10482e-30 -2.2092e-14 0)
(-4.72577e-31 -2.52294e-14 0)
(-1.78658e-30 -5.71643e-14 0)
(-9.24552e-31 -1.91524e-14 0)
(-1.45174e-26 -1.00871e-12 0)
(-4.51924e-27 1.29424e-12 -0)
(-2.55324e-28 -4.01126e-13 0)
(-9.16075e-30 3.11904e-14 -0)
(-9.4989e-30 -1.77339e-13 0)
(-7.15656e-30 -5.75126e-14 0)
(-6.75856e-30 -7.80536e-14 0)
(-7.35454e-30 -8.00982e-14 0)
(-1.69799e-30 -2.28166e-14 0)
(8.06103e-32 1.64732e-15 0)
(1.51008e-30 2.60602e-14 0)
(2.98765e-30 5.03114e-14 0)
(2.48765e-30 2.56637e-14 0)
(1.16392e-29 1.57719e-13 0)
(-1.28811e-29 1.03048e-13 -0)
(-1.22619e-29 8.54322e-14 -0)
(-1.84515e-29 1.11039e-13 -0)
(-8.41015e-30 4.95549e-14 -0)
(-4.97513e-30 4.15913e-14 -0)
(7.10111e-31 -1.63146e-14 -0)
(-4.803e-25 6.14569e-12 -0)
(-1.20289e-25 -7.20493e-12 0)
(-7.00583e-27 1.78059e-12 -0)
(-2.23522e-28 -2.84073e-13 0)
(-6.0177e-29 2.14401e-13 -0)
(-6.03668e-32 3.16169e-14 -0)
(-4.71939e-30 8.62103e-14 -0)
(-4.32029e-30 8.49427e-14 -0)
(-1.28784e-29 1.41493e-13 -0)
(-8.47153e-30 7.66418e-14 -0)
(-4.4452e-30 1.00379e-13 -0)
(-5.50235e-31 1.82663e-14 -0)
(1.0609e-30 2.40549e-14 0)
(2.5888e-32 6.83625e-14 0)
(-4.37001e-30 4.48571e-14 -0)
(-1.01387e-29 5.7235e-14 -0)
(2.21584e-30 -1.7356e-14 -0)
(2.18028e-31 -6.08747e-14 -0)
(-2.42188e-30 3.96875e-14 -0)
(-1.04328e-30 8.06208e-15 -0)
(-6.96839e-25 -7.14159e-12 0)
(-1.89151e-25 9.00334e-12 -0)
(-1.01732e-26 -2.10585e-12 0)
(-4.14983e-28 4.01063e-13 -0)
(-4.21414e-29 -1.51485e-13 0)
(-2.38181e-30 3.84419e-14 -0)
(5.11902e-30 -4.81877e-14 -0)
(7.19177e-30 -5.88607e-14 -0)
(6.81251e-30 -1.14065e-13 -0)
(5.69221e-30 -8.65902e-14 -0)
(7.72639e-31 -1.10775e-13 -0)
(3.24696e-30 -7.69617e-14 -0)
(1.38557e-30 -2.74322e-14 -0)
(2.52712e-30 -6.49352e-14 -0)
(-3.80617e-30 -6.70781e-14 0)
(-4.74176e-30 -5.28255e-14 0)
(-9.35002e-31 -2.17967e-14 0)
(1.34794e-31 3.67494e-15 0)
(6.74561e-32 1.09736e-14 0)
(2.46904e-30 -3.37961e-14 -0)
(-2.22751e-25 3.70818e-12 -0)
(-7.00313e-26 -5.40387e-12 0)
(-3.91768e-27 1.28456e-12 -0)
(-1.49268e-28 -2.27538e-13 0)
(-2.86318e-29 1.23225e-13 -0)
(-3.11289e-31 9.11827e-15 -0)
(-3.15048e-30 6.00254e-14 -0)
(-5.48132e-30 5.93912e-14 -0)
(-1.41067e-31 1.35256e-15 -0)
(1.80243e-31 -1.70334e-15 -0)
(8.90208e-32 -1.02014e-15 -0)
(6.75715e-31 -7.06696e-15 -0)
(2.04233e-30 -1.2308e-13 -0)
(-4.80536e-30 -9.42585e-14 0)
(-6.07131e-30 -5.38045e-14 0)
(4.75085e-31 1.01244e-14 0)
(1.16382e-31 1.00363e-14 0)
(-2.73567e-31 5.11935e-15 -0)
(1.04396e-30 -2.63643e-14 -0)
(6.11149e-31 -1.00443e-14 -0)
(-2.15167e-26 1.00464e-12 -0)
(-7.69073e-27 -1.7788e-12 0)
(-3.95554e-28 4.30547e-13 -0)
(-1.11935e-29 -3.87156e-14 0)
(4.50178e-31 4.27417e-14 0)
(3.42418e-31 2.57935e-15 0)
(1.38724e-29 5.42338e-14 0)
(1.61958e-29 1.22217e-13 0)
(-2.64509e-29 1.72628e-13 -0)
(-2.58236e-29 1.08268e-13 -0)
(-1.39531e-29 9.19747e-14 -0)
(-7.93786e-30 1.07182e-13 -0)
(-1.62407e-29 1.16571e-13 -0)
(-1.32388e-29 8.51012e-14 -0)
(-9.65096e-30 5.44695e-14 -0)
(2.26772e-30 -1.43382e-14 -0)
(4.12282e-31 -1.2198e-14 -0)
(1.99181e-30 -5.50539e-14 -0)
(-6.92053e-33 2.72882e-16 -0)
(2.50058e-31 -6.4269e-15 -0)
(-3.41706e-25 -3.48812e-12 0)
(-1.72469e-25 8.18606e-12 -0)
(-9.39114e-27 -1.88238e-12 0)
(-5.22488e-28 4.50183e-13 -0)
(-2.90395e-29 -1.34386e-13 0)
(4.43603e-31 -5.05224e-15 -0)
(1.64744e-31 -3.71234e-14 -0)
(-3.02644e-31 -2.44466e-14 0)
(7.0711e-31 -2.27933e-14 -0)
(1.88998e-30 -6.14873e-14 -0)
(-2.83243e-30 -6.78437e-14 0)
(4.78621e-31 4.53249e-15 0)
(-1.69212e-31 4.73239e-14 -0)
(-1.08345e-30 1.12169e-14 -0)
(7.68393e-30 -6.63871e-14 -0)
(-6.87007e-31 -2.72846e-14 0)
(-8.69623e-30 -5.5354e-14 0)
(9.89885e-31 2.70324e-14 0)
(-1.17044e-30 1.03376e-14 -0)
(-6.07971e-31 9.1071e-15 -0)
(-6.36254e-26 1.50861e-12 -0)
(-3.25759e-26 -3.54105e-12 0)
(-1.72192e-27 7.98471e-13 -0)
(-8.08779e-29 -2.01367e-13 0)
(-1.14562e-29 8.02001e-14 -0)
(-1.00525e-30 7.77418e-15 -0)
(-8.24215e-31 3.73646e-15 -0)
(1.23051e-29 -7.38289e-14 -0)
(1.84765e-30 -7.57247e-14 -0)
(-2.84362e-30 -5.86611e-14 0)
(-1.17277e-30 -5.83173e-14 0)
(-5.66383e-30 -6.32496e-14 0)
(-5.76557e-30 -5.21748e-14 0)
(-2.96329e-30 -4.28256e-14 0)
(-2.69991e-32 8.08223e-15 -0)
(7.8801e-32 -6.77691e-15 -0)
(-2.74244e-31 -4.25656e-15 0)
(5.01555e-31 1.62118e-14 0)
(-6.0477e-30 6.19075e-14 -0)
(6.61665e-31 -1.43726e-14 -0)
(-4.78179e-25 5.63322e-12 -0)
(-1.42972e-25 -7.83264e-12 0)
(-7.38705e-27 1.6824e-12 -0)
(-3.96526e-28 -4.46929e-13 0)
(-9.54851e-30 4.95961e-14 -0)
(-6.84638e-30 -5.69529e-14 0)
(-2.5665e-30 -2.4223e-14 0)
(4.53077e-31 4.95757e-15 0)
(3.70728e-31 6.57585e-15 0)
(1.62125e-30 6.32497e-14 0)
(-2.04471e-30 6.01055e-14 -0)
(-2.10656e-32 6.32197e-16 -0)
(-5.95265e-32 1.4756e-15 -0)
(-2.92093e-30 6.07548e-14 -0)
(-6.36911e-30 6.02064e-14 -0)
(4.85425e-31 -4.49301e-15 -0)
(-2.80088e-30 4.60232e-14 -0)
(-1.32206e-30 5.05154e-14 -0)
(1.37253e-30 -5.74032e-14 -0)
(-1.66579e-31 -2.89201e-14 0)
)
;

boundaryField
{
    movingWall
    {
        type            calculated;
        value           nonuniform List<vector> 
20
(
(0 1.25252e-11 -0)
(0 -9.6482e-12 -0)
(0 1.73662e-12 -0)
(0 -5.08642e-13 -0)
(0 -1.21167e-14 -0)
(0 -7.42567e-14 -0)
(0 -4.15269e-14 -0)
(0 4.95757e-15 -0)
(0 -3.78331e-14 -0)
(0 -3.53693e-14 -0)
(0 5.89538e-15 -0)
(0 -4.37767e-14 -0)
(0 1.4756e-15 -0)
(0 -3.78642e-14 -0)
(0 -3.84126e-14 -0)
(0 -4.89019e-14 -0)
(0 8.0631e-14 -0)
(0 8.51231e-14 -0)
(0 -9.2011e-14 -0)
(0 -4.6224e-14 -0)
)
;
    }
    fixedWalls
    {
        type            calculated;
        value           nonuniform List<vector> 
60
(
(0 -4.66782e-11 -0)
(0 -9.02477e-12 -0)
(0 4.51075e-11 -0)
(0 -3.19439e-11 -0)
(0 -7.13055e-13 -0)
(0 3.28384e-11 -0)
(0 -4.35134e-11 -0)
(0 1.51674e-11 -0)
(0 2.01105e-11 -0)
(0 -3.85655e-11 -0)
(0 3.78812e-11 -0)
(0 -2.36837e-11 -0)
(0 -5.6755e-12 -0)
(0 3.12609e-11 -0)
(0 -3.85149e-11 -0)
(0 2.30252e-11 -0)
(0 7.86217e-12 -0)
(0 -3.49838e-11 -0)
(0 1.5081e-11 -0)
(0 3.29242e-11 -0)
(0 -1.70982e-14 -0)
(0 -2.54091e-14 -0)
(0 -2.35363e-14 -0)
(0 2.58649e-15 -0)
(0 1.23497e-14 -0)
(0 -6.39543e-15 -0)
(0 -2.67182e-14 -0)
(0 1.37345e-14 -0)
(0 1.39879e-14 -0)
(0 -2.33786e-14 -0)
(0 2.86444e-14 -0)
(0 -7.79565e-15 -0)
(0 -1.74105e-14 -0)
(0 -2.46573e-14 -0)
(0 -5.63279e-14 -0)
(0 -2.43382e-14 -0)
(0 -1.55632e-14 -0)
(0 4.01901e-16 -0)
(0 -1.84146e-14 -0)
(0 -2.48011e-14 -0)
(0 -1.46649e-11 -0)
(0 1.33813e-11 -0)
(0 -2.19544e-12 -0)
(0 9.39071e-13 -0)
(0 1.49081e-13 -0)
(0 2.57734e-13 -0)
(0 1.78376e-13 -0)
(0 2.26881e-13 -0)
(0 1.71825e-13 -0)
(0 2.48712e-13 -0)
(0 1.2137e-13 -0)
(0 1.39954e-13 -0)
(0 1.07048e-13 -0)
(0 1.82831e-14 -0)
(0 3.83291e-14 -0)
(0 7.391e-14 -0)
(0 3.5628e-15 -0)
(0 8.10381e-15 -0)
(0 -8.47964e-14 -0)
(0 -9.54394e-14 -0)
)
;
    }
    frontAndBack
    {
        type            empty;
    }
}


// ************************************************************************* //
