/*--------------------------------*- C++ -*----------------------------------*\
| =========                 |                                                 |
| \\      /  F ield         | OpenFOAM: The Open Source CFD Toolbox           |
|  \\    /   O peration     | Version:  2506                                  |
|   \\  /    A nd           | Website:  www.openfoam.com                      |
|    \\/     M anipulation  |                                                 |
\*---------------------------------------------------------------------------*/
FoamFile
{
    version     2.0;
    format      ascii;
    arch        "LSB;label=32;scalar=64";
    class       volScalarField;
    location    "6.25";
    object      Lambda2Field;
}
// * * * * * * * * * * * * * * * * * * * * * * * * * * * * * * * * * * * * * //

dimensions      [0 0 -2 0 0 0 0];

internalField   nonuniform List<scalar> 
400
(
1.16024e-23
4.60268e-24
2.3083e-25
1.58239e-26
5.82672e-27
1.12546e-28
1.59552e-29
0
0
4.80895e-28
1.46046e-27
0
3.67331e-29
0
0
4.04078e-28
2.54131e-28
0
2.27726e-32
1.1293e-28
2.9054e-24
7.03627e-24
2.72764e-25
3.24021e-27
-5.01889e-28
1.59229e-27
1.80353e-27
9.46643e-28
0
-3.4623e-27
0
1.37845e-27
1.31288e-27
7.47684e-30
-8.12508e-28
-9.10411e-28
1.69628e-28
4.51131e-30
7.88458e-28
0
3.74181e-23
1.45888e-23
5.95094e-26
2.27859e-26
-9.53863e-27
1.72452e-27
0
-3.08257e-28
1.35671e-29
8.31285e-29
1.43988e-27
7.83065e-28
6.90499e-28
7.3665e-28
5.22432e-29
-7.5919e-28
1.91234e-28
0
0
0
2.72279e-23
7.47075e-24
6.5459e-25
-2.97289e-26
1.06276e-26
0
1.06948e-27
1.47069e-29
-2.73201e-29
-4.59885e-28
2.67102e-28
0
6.53283e-28
0
-1.13629e-27
0
0
0
-1.6888e-29
4.50983e-28
3.45922e-24
5.06545e-24
3.00104e-25
2.93874e-27
1.988e-27
0
0
-1.16069e-27
-3.59929e-28
1.41409e-28
0
3.77976e-28
0
0
0
0
0
0
-2.93387e-29
1.93891e-28
1.30423e-23
7.56414e-24
2.12324e-25
0
2.82547e-27
1.00498e-27
4.43278e-28
9.93472e-29
1.05777e-28
-9.11859e-28
-1.36796e-27
0
0
1.50196e-30
0
0
0
6.89413e-29
0
1.43305e-29
2.38435e-23
8.53831e-24
7.05875e-26
1.5807e-27
6.90981e-29
1.30844e-27
-1.63701e-27
-3.23763e-27
0
4.02882e-28
1.55619e-27
2.25965e-28
0
-1.32875e-27
-1.24459e-27
4.35468e-28
7.51516e-28
1.49476e-28
6.83637e-28
1.98283e-28
3.6797e-24
9.24969e-25
1.6984e-25
8.37887e-27
3.85003e-27
-1.1365e-28
0
-1.11568e-27
-2.51942e-27
3.2689e-28
0
2.81648e-30
4.82474e-28
7.77045e-29
0
1.02602e-27
0
-2.586e-28
1.05285e-32
1.15617e-29
4.06567e-24
1.90703e-24
0
6.61216e-27
-1.23213e-27
2.9271e-28
5.54281e-28
3.6026e-28
0
1.10899e-27
7.27706e-28
0
-2.03057e-27
3.12579e-28
1.53369e-27
1.15701e-27
7.34684e-28
1.35844e-28
6.22437e-29
0
5.47737e-24
2.06254e-24
2.93874e-27
-3.78035e-26
5.73949e-27
-2.2106e-27
1.37497e-27
4.27704e-29
-3.51243e-27
-3.87352e-27
0
6.39802e-28
-2.13671e-28
-1.71521e-28
5.33084e-28
2.28942e-28
0
0
0
2.19251e-28
0
0
-3.63518e-25
1.23044e-26
-2.34045e-27
0
0
2.26225e-28
2.90112e-28
5.73952e-28
4.62223e-28
2.22388e-28
-1.27081e-28
-5.11564e-28
-6.6791e-28
2.2346e-28
3.33035e-28
0
0
-1.25813e-29
0
1.24162e-25
-3.13473e-26
4.04317e-26
-3.3505e-27
1.69488e-27
6.3806e-28
5.44001e-28
6.05198e-29
0
0
1.773e-28
8.3625e-28
0
4.25089e-28
0
1.35879e-28
5.0723e-28
0
2.38002e-28
7.06505e-25
3.49891e-25
0
1.3335e-26
0
-1.26414e-28
2.65214e-28
9.8959e-29
1.16239e-28
0
2.83215e-29
2.51077e-28
1.37598e-28
-2.27308e-27
-1.59503e-27
2.70401e-28
0
2.5236e-28
6.84064e-28
3.157e-28
2.65221e-25
1.82166e-24
-1.25912e-25
3.52025e-26
-7.75091e-27
1.22478e-27
-2.62587e-29
1.62994e-28
-6.28774e-28
5.11515e-28
9.13967e-28
2.39574e-28
8.26749e-29
-6.40158e-28
-1.50862e-28
0
0
0
0
5.24882e-28
4.23698e-24
2.6534e-24
-1.90113e-25
2.48516e-26
-5.24994e-27
1.03876e-29
3.26476e-28
-2.34944e-28
-6.1022e-28
-4.28716e-28
0
3.96892e-28
0
-5.55805e-28
-2.5548e-28
5.77117e-28
3.37833e-28
2.48564e-29
0
-1.34355e-28
5.22131e-24
2.70587e-24
0
1.60083e-26
-3.02492e-27
4.87533e-28
9.95341e-28
3.67854e-28
8.74219e-29
0
2.09469e-28
0
-8.54721e-28
-3.17807e-28
5.69188e-28
6.14654e-28
0
5.30834e-29
3.00061e-29
0
2.75924e-24
3.37974e-24
1.54369e-25
5.7722e-27
0
6.93569e-28
0
-2.59122e-27
-4.29374e-27
1.64721e-29
1.94947e-27
5.39149e-28
-1.49001e-28
-9.0091e-29
5.08445e-28
0
0
0
0
0
3.23649e-23
1.04211e-23
2.27598e-25
1.30635e-26
-2.67261e-27
5.97743e-28
1.9978e-27
9.67191e-28
1.1687e-28
4.29138e-28
-4.39211e-30
2.67673e-28
7.60927e-29
5.0517e-28
0
2.14716e-28
0
0
0
4.87836e-28
9.39691e-24
7.66342e-24
4.60188e-25
6.61216e-27
0
0
1.21861e-28
0
-4.31624e-28
-2.09512e-28
-1.65243e-28
0
1.10333e-28
6.40693e-28
9.91282e-31
0
0
3.94257e-29
0
5.25884e-29
7.98051e-24
3.88779e-24
2.3814e-25
0
2.81367e-27
-8.082e-28
2.09528e-28
5.667e-29
0
-4.35117e-28
0
3.16136e-29
0
-3.50331e-28
-2.05969e-28
1.43205e-28
4.4394e-28
2.0052e-28
0
0
)
;

boundaryField
{
    movingWall
    {
        type            calculated;
        value           nonuniform List<scalar> 
20
(
0
0
1.43998e-25
0
7.54712e-27
0
8.62672e-28
7.34684e-28
2.92027e-28
4.01438e-28
1.85163e-28
2.05725e-28
0
2.90644e-28
2.66289e-28
5.35154e-28
1.31973e-27
4.3775e-28
0
0
)
;
    }
    fixedWalls
    {
        type            calculated;
        value           nonuniform List<scalar> 
60
(
8.32229e-23
9.7988e-23
2.17471e-22
1.61248e-22
8.87987e-23
1.26373e-22
1.30068e-22
2.15922e-23
2.21218e-23
3.2343e-23
-2.24693e-23
0
9.05881e-24
4.54384e-24
2.33699e-23
4.07897e-23
5.28089e-23
1.66286e-22
1.30019e-22
6.93354e-23
1.1293e-28
0
0
6.69396e-28
4.20473e-28
1.43305e-29
3.58125e-29
1.15617e-29
6.26001e-30
1.01006e-28
0
5.45826e-28
3.157e-28
1.41174e-27
-7.45081e-28
0
0
7.2379e-28
5.25884e-29
7.86717e-29
0
0
7.02093e-25
0
3.4213e-26
-7.18996e-27
8.1338e-30
-9.95878e-28
1.03214e-27
4.72739e-27
4.51838e-27
0
-2.84843e-28
0
2.69999e-28
1.32408e-27
5.30246e-28
0
4.45314e-28
0
)
;
    }
    frontAndBack
    {
        type            empty;
    }
}


// ************************************************************************* //
