/*--------------------------------*- C++ -*----------------------------------*\
| =========                 |                                                 |
| \\      /  F ield         | OpenFOAM: The Open Source CFD Toolbox           |
|  \\    /   O peration     | Version:  2506                                  |
|   \\  /    A nd           | Website:  www.openfoam.com                      |
|    \\/     M anipulation  |                                                 |
\*---------------------------------------------------------------------------*/
FoamFile
{
    version     2.0;
    format      ascii;
    arch        "LSB;label=32;scalar=64";
    class       volScalarField;
    location    "6.25";
    object      magSqrP;
}
// * * * * * * * * * * * * * * * * * * * * * * * * * * * * * * * * * * * * * //

dimensions      [0 4 -4 0 0 0 0];

internalField   nonuniform List<scalar> 
400
(
0
5.53808e-30
4.32293e-31
1.37101e-31
1.64629e-32
0
0
0
0
0
0
0
0
0
0
0
1.28278e-35
4.92376e-34
7.46774e-33
0
1.38593e-30
0
1.62712e-31
2.9915e-32
7.97291e-32
0
0
0
0
0
0
0
0
0
0
0
0
1.92381e-32
3.24538e-33
2.97524e-34
2.98378e-31
1.63387e-31
3.05413e-32
1.09715e-31
1.0308e-31
0
0
0
0
0
0
0
0
0
0
0
0
3.80903e-33
0
6.27432e-33
0
2.06389e-30
4.69366e-32
4.86544e-32
0
0
0
0
0
0
0
0
0
0
0
0
4.64444e-34
1.22249e-32
2.06892e-33
5.95168e-32
2.15327e-32
0
1.1149e-31
2.23865e-34
7.87105e-33
0
0
0
0
0
0
0
0
0
0
3.3075e-33
0
3.13009e-33
8.39021e-33
1.12041e-31
0
4.64811e-31
1.43771e-32
0
0
0
0
0
2.37548e-33
0
0
0
0
0
0
3.27245e-33
0
8.7047e-34
3.93524e-32
1.56953e-31
0
2.06127e-30
2.8132e-33
1.81368e-32
0
3.6397e-33
1.13617e-32
1.81844e-33
5.85193e-32
6.21718e-35
0
0
0
0
0
0
0
2.87142e-33
1.19013e-32
1.46652e-31
1.95306e-31
0
1.59973e-32
0
3.26625e-32
6.50679e-33
2.89273e-32
7.77491e-34
7.53087e-33
0
1.80145e-33
1.12086e-31
0
0
0
0
0
0
2.50982e-32
1.37754e-31
0
4.68335e-30
6.39705e-33
4.79171e-32
1.4946e-33
3.08791e-34
1.49291e-32
1.4528e-32
1.00395e-31
0
0
3.22917e-32
1.89429e-34
0
0
0
0
1.92895e-34
6.48124e-32
8.97719e-32
7.45991e-32
0
3.92437e-32
2.30191e-33
3.79307e-32
7.00661e-32
1.11243e-31
6.06553e-32
8.3552e-32
1.68283e-33
0
8.23218e-34
5.42824e-33
4.35806e-33
3.90549e-33
1.83702e-33
0
0
6.97646e-34
7.46067e-32
4.44641e-34
0
6.87872e-32
5.29146e-32
7.77091e-32
1.62688e-31
1.55563e-31
7.7015e-32
1.09813e-32
2.54904e-33
8.30789e-33
6.73615e-32
8.00538e-32
1.18248e-31
6.21024e-33
9.85051e-34
1.78934e-33
0
0
4.88168e-32
0
5.52711e-30
3.70211e-32
2.11901e-31
1.10371e-31
1.94993e-31
1.30924e-31
1.03227e-31
1.43887e-31
6.92586e-32
1.38452e-31
9.19405e-32
1.99941e-31
1.93683e-31
2.56573e-35
3.2408e-33
2.88217e-33
0
0
2.92814e-32
8.26204e-31
0
2.90786e-31
3.76404e-32
3.33632e-32
1.8257e-31
1.97148e-31
1.1453e-31
1.36747e-31
1.33828e-31
1.847e-31
1.03933e-31
4.65751e-31
4.04399e-31
1.15235e-31
4.90169e-32
4.779e-32
1.94374e-32
1.92806e-32
3.35205e-33
1.45484e-31
5.90544e-30
8.51483e-32
2.1219e-31
1.54123e-31
1.89451e-31
2.12211e-31
1.07755e-31
2.06069e-31
2.02264e-31
3.00661e-31
3.51233e-31
4.06354e-31
4.55674e-31
2.44102e-31
1.71515e-31
1.23124e-31
5.3635e-32
1.04815e-31
1.67106e-31
6.0934e-31
3.25647e-31
2.38816e-31
9.07735e-32
1.18759e-31
2.42421e-31
3.34562e-31
3.11593e-31
3.09928e-31
3.50923e-31
4.05546e-31
3.319e-31
3.90736e-31
3.79915e-31
2.46952e-31
3.11746e-31
2.49458e-31
3.67546e-32
9.69405e-32
3.27409e-31
1.78911e-30
0
4.23091e-31
2.23324e-31
2.1042e-31
2.56422e-31
4.97751e-31
5.81659e-31
2.34652e-31
3.32483e-31
3.45775e-31
4.84659e-31
4.38369e-31
4.49434e-31
1.49662e-31
1.01827e-31
1.82955e-31
1.77804e-31
2.50414e-31
5.24185e-31
2.56233e-31
6.15762e-30
8.09576e-31
5.46574e-31
3.24773e-31
3.46589e-31
4.43904e-31
5.15042e-31
5.6961e-31
4.68409e-31
4.93858e-31
6.96063e-31
5.53529e-31
4.60897e-31
1.44334e-31
1.87317e-31
1.6689e-31
2.21548e-31
3.18315e-31
6.83845e-31
1.14022e-30
6.71527e-31
8.22676e-31
7.01065e-31
7.38183e-31
5.56085e-31
3.32432e-31
2.72594e-31
6.40305e-31
6.0203e-31
3.68838e-31
3.97569e-31
6.93694e-31
4.88104e-31
2.87698e-31
2.58155e-31
1.23292e-31
1.63089e-31
3.56961e-31
8.46774e-31
2.37784e-30
0
7.45628e-31
6.42516e-31
7.40739e-31
7.6755e-31
5.95342e-31
3.19968e-31
4.36701e-31
4.47405e-31
4.35323e-31
4.74831e-31
7.2259e-31
6.13198e-31
3.2447e-31
2.3954e-31
3.78249e-32
7.06383e-32
4.77232e-31
1.13162e-30
1.57313e-31
4.6569e-30
8.15288e-31
1.1027e-30
8.11404e-31
6.26627e-31
3.57462e-31
2.52953e-31
3.81704e-31
4.75646e-31
6.12019e-31
5.25606e-31
9.52834e-31
6.53355e-31
4.43183e-31
3.83499e-31
2.48443e-32
4.16945e-32
5.39134e-31
1.07195e-30
)
;

boundaryField
{
    movingWall
    {
        type            calculated;
        value           nonuniform List<scalar> 
20
(
1.57313e-31
4.6569e-30
8.15288e-31
1.1027e-30
8.11404e-31
6.26627e-31
3.57462e-31
2.52953e-31
3.81704e-31
4.75646e-31
6.12019e-31
5.25606e-31
9.52834e-31
6.53355e-31
4.43183e-31
3.83499e-31
2.48443e-32
4.16945e-32
5.39134e-31
1.07195e-30
)
;
    }
    fixedWalls
    {
        type            calculated;
        value           nonuniform List<scalar> 
60
(
0
1.38593e-30
2.98378e-31
0
2.15327e-32
0
0
1.95306e-31
0
7.45991e-32
4.44641e-34
0
8.26204e-31
1.45484e-31
6.0934e-31
1.78911e-30
2.56233e-31
1.14022e-30
2.37784e-30
1.57313e-31
0
2.97524e-34
6.27432e-33
5.95168e-32
1.12041e-31
1.56953e-31
1.46652e-31
1.37754e-31
8.97719e-32
7.46067e-32
4.88168e-32
2.92814e-32
3.35205e-33
1.67106e-31
3.27409e-31
5.24185e-31
6.83845e-31
8.46774e-31
1.13162e-30
1.07195e-30
0
5.53808e-30
4.32293e-31
1.37101e-31
1.64629e-32
0
0
0
0
0
0
0
0
0
0
0
1.28278e-35
4.92376e-34
7.46774e-33
0
)
;
    }
    frontAndBack
    {
        type            empty;
    }
}


// ************************************************************************* //
