/*--------------------------------*- C++ -*----------------------------------*\
| =========                 |                                                 |
| \\      /  F ield         | OpenFOAM: The Open Source CFD Toolbox           |
|  \\    /   O peration     | Version:  2506                                  |
|   \\  /    A nd           | Website:  www.openfoam.com                      |
|    \\/     M anipulation  |                                                 |
\*---------------------------------------------------------------------------*/
FoamFile
{
    version     2.0;
    format      ascii;
    arch        "LSB;label=32;scalar=64";
    class       volScalarField;
    location    "6.25";
    object      pNear;
}
// * * * * * * * * * * * * * * * * * * * * * * * * * * * * * * * * * * * * * //

dimensions      [0 2 -2 0 0 0 0];

internalField   nonuniform List<scalar> 
400
(
0
2.35331e-15
6.5749e-16
3.70271e-16
1.28308e-16
0
0
0
0
0
0
0
0
0
0
0
3.58159e-18
2.21896e-17
8.64161e-17
0
1.17726e-15
0
4.03376e-16
1.7296e-16
2.82363e-16
0
0
0
0
0
0
0
0
0
0
0
0
1.38701e-16
5.69683e-17
1.72489e-17
5.4624e-16
4.04212e-16
1.74761e-16
3.31233e-16
3.21061e-16
0
0
0
0
0
0
0
0
0
0
0
0
6.17174e-17
0
7.92106e-17
0
1.43662e-15
2.16649e-16
2.20577e-16
0
0
0
0
0
0
0
0
0
0
0
0
2.1551e-17
1.10566e-16
4.54854e-17
2.43961e-16
1.4674e-16
0
3.33901e-16
1.49621e-17
8.87189e-17
0
0
0
0
0
0
0
0
0
0
5.75109e-17
0
5.59472e-17
9.15981e-17
3.34725e-16
0
6.8177e-16
1.19904e-16
0
0
0
0
0
4.87389e-17
0
0
0
0
0
0
5.72053e-17
0
2.95037e-17
1.98374e-16
3.96173e-16
0
1.43571e-15
5.30396e-17
1.34673e-16
0
6.03299e-17
1.06591e-16
4.26432e-17
2.41908e-16
7.88491e-18
0
0
0
0
0
0
0
5.35856e-17
1.09093e-16
3.82951e-16
4.41935e-16
0
1.26481e-16
0
1.80728e-16
8.06647e-17
1.7008e-16
2.78835e-17
8.67806e-17
0
4.24435e-17
3.34793e-16
0
0
0
0
0
0
1.58424e-16
3.71152e-16
0
2.16411e-15
7.99815e-17
2.189e-16
3.86601e-17
1.75724e-17
1.22185e-16
1.20532e-16
3.16851e-16
0
0
1.79699e-16
1.37633e-17
0
0
0
0
1.38887e-17
2.54583e-16
2.9962e-16
2.73128e-16
0
1.981e-16
4.79782e-17
1.94758e-16
2.647e-16
3.33531e-16
2.46283e-16
2.89054e-16
4.10223e-17
0
2.86918e-17
7.36766e-17
6.60156e-17
6.24939e-17
4.28605e-17
0
0
2.6413e-17
2.73142e-16
2.10865e-17
0
2.62273e-16
2.30032e-16
2.78763e-16
4.03346e-16
3.94415e-16
2.77516e-16
1.04792e-16
5.0488e-17
9.11476e-17
2.59541e-16
2.82938e-16
3.43872e-16
7.88051e-17
3.13855e-17
4.23006e-17
0
0
2.20945e-16
0
2.35098e-15
1.92409e-16
4.60327e-16
3.32221e-16
4.4158e-16
3.61834e-16
3.2129e-16
3.79324e-16
2.6317e-16
3.72092e-16
3.03217e-16
4.47148e-16
4.40094e-16
5.06531e-18
5.69281e-17
5.36859e-17
0
0
1.71118e-16
9.08957e-16
0
5.39245e-16
1.94011e-16
1.82656e-16
4.27282e-16
4.44013e-16
3.38422e-16
3.69793e-16
3.65824e-16
4.29767e-16
3.22387e-16
6.82459e-16
6.35924e-16
3.39463e-16
2.21398e-16
2.18609e-16
1.39418e-16
1.38855e-16
5.78969e-17
3.81423e-16
2.43011e-15
2.91802e-16
4.60641e-16
3.92585e-16
4.3526e-16
4.60663e-16
3.28261e-16
4.53948e-16
4.49738e-16
5.48325e-16
5.9265e-16
6.37459e-16
6.75036e-16
4.94066e-16
4.14144e-16
3.5089e-16
2.31592e-16
3.23751e-16
4.08786e-16
7.80602e-16
5.70654e-16
4.88688e-16
3.01286e-16
3.44615e-16
4.92363e-16
5.78413e-16
5.58205e-16
5.56712e-16
5.92387e-16
6.36825e-16
5.76108e-16
6.25089e-16
6.16373e-16
4.96942e-16
5.58342e-16
4.99458e-16
1.91715e-16
3.11353e-16
5.72196e-16
1.33758e-15
0
6.50455e-16
4.72572e-16
4.58716e-16
5.06382e-16
7.05515e-16
7.62666e-16
4.84409e-16
5.76613e-16
5.88026e-16
6.96174e-16
6.62094e-16
6.70398e-16
3.86861e-16
3.19104e-16
4.27732e-16
4.21669e-16
5.00414e-16
7.24006e-16
5.06195e-16
2.48145e-15
8.99764e-16
7.39306e-16
5.69889e-16
5.88718e-16
6.66261e-16
7.17664e-16
7.54725e-16
6.84404e-16
7.02751e-16
8.34304e-16
7.43996e-16
6.78894e-16
3.79913e-16
4.32801e-16
4.08522e-16
4.70689e-16
5.64194e-16
8.26949e-16
1.06781e-15
8.19468e-16
9.07015e-16
8.37296e-16
8.59176e-16
7.45711e-16
5.76569e-16
5.22105e-16
8.00191e-16
7.75906e-16
6.07321e-16
6.30531e-16
8.32883e-16
6.98644e-16
5.36375e-16
5.08089e-16
3.51129e-16
4.03843e-16
5.97462e-16
9.20203e-16
1.54202e-15
0
8.63498e-16
8.01571e-16
8.60662e-16
8.76099e-16
7.71584e-16
5.65657e-16
6.60834e-16
6.68883e-16
6.5979e-16
6.8908e-16
8.50053e-16
7.8307e-16
5.69622e-16
4.89428e-16
1.94486e-16
2.65779e-16
6.9082e-16
1.06378e-15
3.96627e-16
2.15799e-15
9.02933e-16
1.0501e-15
9.0078e-16
7.91598e-16
5.97881e-16
5.02944e-16
6.17822e-16
6.89671e-16
7.82317e-16
7.24987e-16
9.76132e-16
8.08304e-16
6.6572e-16
6.19273e-16
1.57621e-16
2.04192e-16
7.34258e-16
1.03535e-15
)
;

boundaryField
{
    movingWall
    {
        type            zeroGradient;
    }
    fixedWalls
    {
        type            calculated;
        value           nonuniform List<scalar> 
60
(
1.76588e-16
9.06015e-16
5.58956e-16
1.03947e-16
1.02718e-16
2.2011e-17
6.62902e-17
3.09354e-16
1.07259e-16
1.94353e-16
5.57298e-17
1.39507e-16
6.93484e-16
5.2043e-16
8.04272e-16
1.12932e-15
7.15144e-16
1.0547e-15
1.29908e-15
5.68437e-16
2.58733e-18
2.39558e-17
9.46289e-17
2.32863e-16
3.30328e-16
3.84972e-16
3.83165e-16
3.62192e-16
3.06378e-16
2.69284e-16
2.21301e-16
1.61609e-16
1.27514e-16
3.80664e-16
5.70456e-16
7.16676e-16
8.25496e-16
9.27751e-16
1.03798e-15
1.03961e-15
3.52997e-16
1.74594e-15
8.6878e-16
3.7706e-16
1.45356e-16
1.92462e-17
0
0
0
0
0
0
0
0
0
5.37238e-19
5.83554e-18
2.90323e-17
6.38197e-17
1.29624e-17
)
;
    }
    frontAndBack
    {
        type            empty;
    }
}


// ************************************************************************* //
