/*--------------------------------*- C++ -*----------------------------------*\
| =========                 |                                                 |
| \\      /  F ield         | OpenFOAM: The Open Source CFD Toolbox           |
|  \\    /   O peration     | Version:  2506                                  |
|   \\  /    A nd           | Website:  www.openfoam.com                      |
|    \\/     M anipulation  |                                                 |
\*---------------------------------------------------------------------------*/
FoamFile
{
    version     2.0;
    format      ascii;
    arch        "LSB;label=32;scalar=64";
    class       volScalarField;
    location    "6.25";
    object      QField;
}
// * * * * * * * * * * * * * * * * * * * * * * * * * * * * * * * * * * * * * //

dimensions      [0 0 -2 0 0 0 0];

internalField   nonuniform List<scalar> 
400
(
-2.21385e-23
-6.74125e-24
-3.72399e-25
-1.58239e-26
-5.96956e-27
-2.87552e-28
1.08268e-28
0
0
-4.80895e-28
-2.07169e-27
0
-1.64278e-28
0
0
-4.04078e-28
-4.32095e-28
0
8.18064e-30
-5.76082e-28
-4.24018e-23
-1.37927e-23
-6.54658e-25
-3.24021e-27
6.15596e-28
-1.59229e-27
-1.80353e-27
-9.46643e-28
1.21902e-27
3.57326e-27
1.97548e-28
-1.37845e-27
-1.49651e-27
1.48231e-28
9.88832e-28
9.65467e-28
-3.51454e-28
5.75707e-29
-7.88458e-28
0
-4.39929e-23
-1.49774e-23
-7.62398e-26
-2.41317e-26
1.02607e-26
-1.72452e-27
4.54156e-28
3.19676e-28
-2.14989e-29
-8.31285e-29
-3.08852e-27
-8.87764e-28
-8.54345e-28
-1.45101e-27
-1.95914e-28
8.59083e-28
-3.61292e-28
9.23201e-29
-4.88978e-28
0
-3.78766e-23
-9.12533e-24
-7.36323e-25
4.32536e-26
-9.67922e-27
2.40932e-29
-1.06948e-27
-1.03947e-28
5.64025e-28
4.79644e-28
-2.67102e-28
0
-6.53283e-28
1.32622e-29
1.16689e-27
3.36866e-28
-1.01402e-28
4.47241e-28
1.85001e-29
-5.05666e-28
-3.27351e-23
-8.67417e-24
-4.76064e-25
-1.11428e-26
1.77892e-27
-4.28503e-29
0
1.21482e-27
4.21906e-28
-1.41409e-28
1.42e-29
-5.26966e-28
0
0
1.40096e-28
0
0
0
1.65793e-28
-1.93891e-28
-2.96574e-23
-8.65779e-24
-2.79421e-25
8.8965e-27
-2.82547e-27
-1.73738e-27
-1.14135e-27
-5.40329e-28
-2.88802e-28
1.37321e-27
1.5168e-27
4.45029e-28
0
3.32185e-29
0
0
0
-6.89413e-29
0
-2.05216e-28
-1.96838e-23
-7.33282e-24
-4.61543e-26
4.31058e-27
2.25312e-28
-1.30844e-27
2.08523e-27
3.3292e-27
1.16245e-27
-4.57097e-28
-1.55619e-27
-3.40139e-28
-1.19779e-27
1.56331e-27
1.24949e-27
-4.35468e-28
-9.34506e-28
-1.49476e-28
-7.35748e-28
-3.09363e-28
-5.9373e-24
-2.60665e-24
-3.28148e-25
3.78505e-26
-1.96653e-27
7.41795e-28
-4.93881e-28
1.32244e-27
2.51943e-27
-8.66912e-28
1.78113e-27
-9.09773e-29
-1.19074e-27
-8.04768e-28
4.8451e-28
-2.60465e-27
0
3.77206e-28
-2.78121e-30
-9.21638e-29
-6.66585e-24
-2.94058e-24
-4.35502e-26
1.26943e-26
3.76742e-27
-2.9271e-28
-5.54281e-28
-3.6026e-28
2.71443e-28
-1.83442e-27
-2.0076e-27
1.99809e-27
2.06121e-27
2.73133e-28
-3.02135e-27
-1.30115e-27
-7.35955e-28
3.15915e-28
-2.13844e-28
0
-3.05429e-24
-1.32196e-24
1.02715e-26
5.20331e-26
-5.73949e-27
2.24391e-27
-1.54575e-27
-4.27704e-29
3.5125e-27
3.909e-27
1.93414e-28
-7.84446e-28
2.14293e-28
2.67746e-28
-1.25329e-27
-7.7172e-28
0
7.1652e-28
0
-2.19251e-28
6.37147e-24
-8.60368e-26
3.96194e-25
-1.30051e-26
2.34592e-27
0
0
-8.98477e-28
-4.61671e-28
-3.46577e-28
7.69037e-29
-8.56783e-28
6.68603e-28
2.59173e-27
1.04093e-27
-2.2346e-28
-4.87372e-28
-7.35367e-29
0
2.77581e-29
1.08536e-23
8.15762e-25
3.17196e-25
-2.44119e-26
3.67631e-27
-2.22118e-27
-6.3806e-28
-5.44001e-28
-4.24308e-28
1.64987e-28
-3.10708e-28
-1.773e-28
-8.38158e-28
-1.59438e-28
-1.67653e-27
1.31922e-28
-1.35879e-28
-1.20895e-27
-1.81407e-28
-8.7149e-29
1.04849e-23
1.27271e-24
2.60055e-26
1.23924e-26
-5.846e-28
1.7903e-28
-2.65214e-28
-9.8959e-29
-1.16239e-28
0
-2.83215e-29
-7.23876e-28
-5.77168e-28
2.99055e-27
1.76718e-27
-3.32018e-28
2.83904e-28
-2.5236e-28
-6.84064e-28
-9.63202e-28
4.28388e-24
-8.02174e-25
3.1321e-25
-2.36861e-26
9.47195e-27
-1.22478e-27
3.98053e-28
-8.65132e-28
8.0872e-28
-6.90837e-28
-1.04779e-27
-2.39574e-28
-8.26749e-29
7.67204e-28
4.8117e-28
1.63979e-28
0
3.61287e-28
1.56803e-31
-4.36117e-28
-4.92335e-24
-2.75686e-24
2.02173e-25
-2.57443e-26
5.27329e-27
-8.73589e-29
-3.26476e-28
2.52109e-28
6.11983e-28
4.28938e-28
3.71805e-28
-5.31518e-28
8.86796e-30
5.81411e-28
6.97577e-28
-1.28973e-27
-8.98844e-28
-2.70271e-28
0
1.8136e-28
-1.31104e-23
-4.24066e-24
-7.35627e-26
-1.88618e-26
3.74132e-27
-4.87533e-28
-1.64727e-27
-1.09986e-27
-5.06863e-28
0
-7.84586e-28
0
1.34868e-27
1.36867e-27
-6.56037e-28
-1.34399e-27
0
-1.97483e-28
6.53242e-29
0
-2.09087e-23
-6.27408e-24
-3.15903e-25
-9.96149e-27
4.23833e-28
-8.10228e-28
1.2824e-30
3.04219e-27
4.82981e-27
-1.64721e-29
-2.13272e-27
-1.22506e-27
8.484e-28
3.07864e-28
-1.84467e-27
0
0
4.5743e-29
0
0
-3.28117e-23
-1.04776e-23
-2.29263e-25
-1.32419e-26
2.90786e-27
-5.97743e-28
-2.3109e-27
-1.69396e-27
-1.1687e-28
-1.16128e-27
1.20478e-27
4.43458e-28
-1.29119e-28
-1.21843e-27
1.88922e-28
-3.97175e-28
6.20123e-29
0
0
-4.87836e-28
-4.00962e-23
-1.13298e-23
-6.56288e-25
-1.6652e-26
3.31588e-28
0
-2.99214e-28
6.35216e-28
9.29411e-28
2.41288e-28
2.22651e-28
1.1349e-28
-1.10333e-28
-7.48654e-28
2.69866e-29
0
0
-3.40385e-28
6.59357e-28
-1.9656e-28
-2.02946e-23
-5.76366e-24
-3.42592e-25
7.88588e-27
-2.98801e-27
8.09027e-28
-3.88835e-28
2.04045e-28
0
4.90037e-28
2.8189e-28
-1.52401e-28
0
3.5479e-28
3.2506e-28
-3.24361e-28
-4.24456e-28
-2.26131e-28
5.02696e-28
-5.99733e-29
)
;

boundaryField
{
    movingWall
    {
        type            calculated;
        value           nonuniform List<scalar> 
20
(
3.16672e-24
2.18208e-24
-6.66467e-25
2.76686e-26
-8.8998e-27
1.32551e-27
1.02076e-27
-9.90863e-28
-2.92027e-28
-4.01438e-28
-3.68831e-28
3.33195e-28
0
-2.90644e-28
-2.66289e-28
-9.71845e-28
-2.04679e-27
2.39341e-28
5.42844e-28
1.43054e-28
)
;
    }
    fixedWalls
    {
        type            calculated;
        value           nonuniform List<scalar> 
60
(
-1.30122e-22
-2.39563e-22
-2.22854e-22
-1.97247e-22
-1.65143e-22
-1.51806e-22
-1.03469e-22
-4.58846e-23
-3.78521e-23
-1.71733e-23
3.3407e-23
4.64533e-23
3.89582e-23
1.77315e-23
-2.50789e-23
-7.27131e-23
-1.14116e-22
-1.67301e-22
-2.12881e-22
-1.09455e-22
-9.43852e-28
0
0
-7.62065e-28
-6.01152e-28
-3.36226e-28
-2.33974e-28
-1.51001e-28
1.11111e-28
-1.01006e-28
-1.31281e-28
-3.12997e-28
-1.57811e-27
-1.27188e-27
7.92087e-28
0
0
-7.2379e-28
-3.22044e-28
-2.41314e-28
1.17799e-23
9.41293e-24
-1.54907e-24
2.07407e-25
-3.96536e-26
8.08375e-27
4.51666e-28
1.07385e-27
-1.03214e-27
-4.72739e-27
-5.01857e-27
8.96253e-28
6.29045e-28
0
-2.69999e-28
-1.32408e-27
-6.2415e-28
0
1.51757e-28
-3.3878e-28
)
;
    }
    frontAndBack
    {
        type            empty;
    }
}


// ************************************************************************* //
