/*--------------------------------*- C++ -*----------------------------------*\
| =========                 |                                                 |
| \\      /  F ield         | OpenFOAM: The Open Source CFD Toolbox           |
|  \\    /   O peration     | Version:  2506                                  |
|   \\  /    A nd           | Website:  www.openfoam.com                      |
|    \\/     M anipulation  |                                                 |
\*---------------------------------------------------------------------------*/
FoamFile
{
    version     2.0;
    format      ascii;
    arch        "LSB;label=32;scalar=64";
    class       volScalarField;
    location    "6.25";
    object      Uy;
}
// * * * * * * * * * * * * * * * * * * * * * * * * * * * * * * * * * * * * * //

dimensions      [0 1 -1 0 0 0 0];

internalField   nonuniform List<scalar> 
400
(
1.19609e-13
-2.53632e-14
6.22443e-15
-1.1884e-15
3.8643e-16
-1.46756e-17
2.95355e-17
-2.20751e-17
-1.88263e-17
3.60294e-17
1.58593e-16
1.54597e-16
9.132e-17
-2.77015e-17
-9.15106e-17
3.30969e-17
5.75677e-17
-2.53105e-18
-2.34704e-17
-4.27455e-17
2.22909e-14
-3.96915e-15
1.32332e-15
-1.49588e-16
1.27898e-16
1.20763e-16
1.04084e-17
-1.01031e-16
-1.06008e-16
8.84181e-17
2.23567e-16
1.12712e-16
-3.07122e-17
-9.66234e-17
-1.68843e-17
8.5784e-17
1.01847e-16
8.1922e-17
2.19613e-17
-6.35228e-17
-1.22188e-13
2.66476e-14
-6.14296e-15
1.42538e-15
-1.75893e-16
1.61989e-16
-4.86456e-17
-7.42822e-17
-7.81305e-17
-6.93091e-17
-6.79075e-17
-7.50903e-17
-4.21235e-17
-3.57733e-19
4.12767e-17
-4.11025e-17
-6.43718e-17
-2.37709e-17
-4.73418e-17
-5.88408e-17
8.93465e-14
-1.99657e-14
4.4486e-15
-1.12824e-15
1.32571e-16
-1.65883e-16
-5.83086e-17
-6.72406e-17
-1.0305e-16
-1.60951e-16
-1.62035e-16
-1.11679e-16
6.0288e-17
1.2934e-16
5.53951e-17
-1.41623e-17
3.21689e-18
-5.44711e-17
-1.03309e-16
-6.12964e-17
-4.5353e-16
8.85236e-16
-1.94364e-16
1.19028e-16
-3.66856e-17
-2.44466e-17
-1.77567e-18
-3.59327e-17
-1.51172e-16
-1.13761e-16
-9.90011e-17
-1.18999e-16
4.28484e-17
1.23785e-16
9.65918e-17
3.10009e-17
5.36565e-17
2.42783e-17
-3.46448e-17
-3.68884e-17
-8.58908e-14
1.85722e-14
-4.2183e-15
9.27251e-16
-2.67318e-16
-1.15164e-16
-1.98657e-16
-1.40811e-16
-1.81775e-16
-1.03796e-16
-1.28992e-17
8.2737e-17
1.74399e-16
1.30652e-16
9.64932e-17
5.35324e-17
-1.19304e-17
1.57121e-17
1.35044e-17
-1.59886e-17
1.15221e-13
-2.50236e-14
5.86965e-15
-1.42089e-15
2.90477e-17
-3.10606e-16
-2.12317e-16
-1.35606e-16
-7.60782e-18
1.01031e-16
2.29955e-17
-1.37952e-17
5.41291e-17
1.1153e-16
1.98319e-16
2.26775e-16
1.17989e-16
1.26276e-16
6.28427e-17
9.67223e-19
-4.08322e-14
9.41837e-15
-2.0267e-15
5.29671e-16
-1.84193e-16
-1.15258e-16
-9.29683e-17
-4.51197e-17
6.96637e-17
1.87256e-16
4.12761e-17
-1.36153e-16
-1.81779e-16
-2.25006e-17
1.18625e-16
1.56252e-16
1.31843e-16
7.45913e-17
-7.32133e-18
3.43362e-17
-5.27157e-14
1.14189e-14
-2.6814e-15
6.34988e-16
-1.59065e-16
-5.99779e-17
-5.10739e-17
8.18661e-18
-6.76974e-18
-3.04984e-17
1.78443e-17
2.98718e-18
-1.65524e-16
-1.87126e-16
-1.51829e-16
-9.35407e-17
3.9808e-18
1.73691e-17
6.18166e-17
3.49697e-17
9.81079e-14
-2.1613e-14
4.89028e-15
-1.03145e-15
3.19323e-16
2.72984e-17
1.12359e-16
1.44963e-16
1.16304e-16
-1.14214e-16
-1.72129e-16
-1.37999e-16
-1.26423e-16
-1.64353e-16
-1.5935e-16
-1.67979e-16
-1.39676e-16
-4.19609e-17
7.15733e-17
9.31618e-18
-9.19926e-14
1.96592e-14
-4.57616e-15
8.63233e-16
-3.0768e-16
-2.26016e-18
4.85483e-17
2.9022e-17
-4.04514e-18
-9.00587e-17
-1.99127e-16
-1.9501e-16
-1.73412e-16
-8.90315e-17
8.11754e-17
3.89799e-17
3.99543e-17
4.39189e-17
6.39251e-18
3.84841e-18
5.63633e-14
-1.16831e-14
2.79136e-15
-5.01893e-16
2.95918e-16
7.0628e-17
1.28775e-17
-4.70733e-17
-5.40228e-17
-4.69961e-17
-3.88054e-17
3.29068e-17
-5.51585e-17
-5.97446e-18
3.37865e-17
6.88617e-17
5.00101e-17
1.87312e-17
3.12534e-17
4.82735e-17
1.4392e-14
-3.49182e-15
6.36518e-16
-2.93704e-16
5.35635e-17
1.24435e-16
8.65887e-17
9.1819e-17
7.44189e-17
4.89343e-17
5.79458e-17
5.93831e-17
9.69328e-17
7.37971e-17
-1.25001e-16
-1.43528e-16
-1.66171e-16
-1.69714e-16
-1.19619e-16
-4.35262e-17
-7.81523e-14
1.66954e-14
-3.93456e-15
7.86847e-16
-2.80675e-16
-1.90932e-18
-5.47427e-17
-5.08612e-17
-9.10181e-17
-1.10534e-16
-4.42841e-17
-3.01229e-17
4.41033e-17
3.78687e-19
-9.74208e-17
-1.77142e-16
-1.2767e-16
-3.58159e-18
-6.10239e-17
-1.29406e-16
9.75748e-14
-2.1009e-14
4.83091e-15
-1.03471e-15
2.78188e-16
-6.19587e-17
-1.06231e-16
-1.22183e-16
-5.97249e-17
-6.57374e-17
-6.97485e-18
-4.21892e-17
-5.0509e-17
-3.89175e-17
5.67424e-17
8.97626e-17
4.28965e-17
3.66792e-17
6.14711e-18
-7.30571e-17
-6.00701e-14
1.29595e-14
-3.04983e-15
6.56013e-16
-2.32354e-16
-3.41391e-17
-5.24858e-17
-9.22919e-17
-1.04297e-16
-1.05817e-16
-8.72631e-17
-9.5616e-17
-1.65935e-17
5.09807e-17
1.1284e-16
4.69248e-17
1.15962e-17
-5.34378e-17
-3.95973e-17
-6.08455e-17
-2.14173e-14
4.32354e-15
-9.18724e-16
2.8912e-16
1.05325e-17
1.32754e-16
2.5579e-16
1.32517e-16
-1.53225e-16
-2.38515e-16
-1.51705e-16
-7.40598e-17
-1.3932e-16
-1.55565e-16
-1.77181e-16
-1.5816e-16
-3.3799e-17
-3.61792e-17
-2.53609e-17
-3.8908e-17
9.79627e-14
-2.10686e-14
4.98897e-15
-1.16061e-15
2.1609e-16
-8.78033e-17
-4.43775e-18
1.23798e-17
-3.10227e-17
-3.07377e-17
4.17493e-17
1.05598e-16
-3.5756e-18
-9.65908e-17
-1.15744e-16
2.51793e-17
1.57102e-16
3.66185e-17
-1.13222e-16
-6.67579e-17
-4.21749e-14
9.1995e-15
-2.15652e-15
4.01644e-16
-1.42846e-16
-1.29306e-16
-2.20588e-16
-1.66671e-16
-2.43996e-17
4.84754e-17
2.01102e-17
8.95473e-17
1.10505e-16
6.91944e-17
-3.34055e-18
-1.16279e-17
6.44285e-17
3.09377e-17
-9.76892e-17
-4.60366e-17
-8.48855e-14
1.82534e-14
-4.39077e-15
8.87223e-16
-1.92525e-16
1.20211e-16
1.05953e-16
9.1391e-17
5.63771e-17
2.56325e-17
-3.40187e-17
-3.33213e-17
-4.03407e-17
-4.80773e-17
-1.05788e-16
-1.0804e-16
-6.08579e-17
-2.61714e-17
-2.39104e-17
5.75996e-18
)
;

boundaryField
{
    movingWall
    {
        type            calculated;
        value           uniform -0;
    }
    fixedWalls
    {
        type            calculated;
        value           uniform -0;
    }
    frontAndBack
    {
        type            empty;
    }
}


// ************************************************************************* //
