/*--------------------------------*- C++ -*----------------------------------*\
| =========                 |                                                 |
| \\      /  F ield         | OpenFOAM: The Open Source CFD Toolbox           |
|  \\    /   O peration     | Version:  2506                                  |
|   \\  /    A nd           | Website:  www.openfoam.com                      |
|    \\/     M anipulation  |                                                 |
\*---------------------------------------------------------------------------*/
FoamFile
{
    version     2.0;
    format      ascii;
    arch        "LSB;label=32;scalar=64";
    class       volVectorField;
    location    "6.25";
    object      UzeroGrad;
}
// * * * * * * * * * * * * * * * * * * * * * * * * * * * * * * * * * * * * * //

dimensions      [0 1 -1 0 0 0 0];

internalField   nonuniform List<vector> 
400
(
(-1 1.19609e-13 0)
(-1 -2.53632e-14 0)
(-1 6.22443e-15 0)
(-1 -1.1884e-15 0)
(-1 3.8643e-16 0)
(-1 -1.46756e-17 0)
(-1 2.95355e-17 0)
(-1 -2.20751e-17 0)
(-1 -1.88263e-17 0)
(-1 3.60294e-17 0)
(-1 1.58593e-16 0)
(-1 1.54597e-16 0)
(-1 9.132e-17 0)
(-1 -2.77015e-17 0)
(-1 -9.15106e-17 0)
(-1 3.30969e-17 0)
(-1 5.75677e-17 0)
(-1 -2.53105e-18 0)
(-1 -2.34704e-17 0)
(-1 -4.27455e-17 0)
(-1 2.22909e-14 0)
(-1 -3.96915e-15 0)
(-1 1.32332e-15 0)
(-1 -1.49588e-16 0)
(-1 1.27898e-16 0)
(-1 1.20763e-16 0)
(-1 1.04084e-17 0)
(-1 -1.01031e-16 0)
(-1 -1.06008e-16 0)
(-1 8.84181e-17 0)
(-1 2.23567e-16 0)
(-1 1.12712e-16 0)
(-1 -3.07122e-17 0)
(-1 -9.66234e-17 0)
(-1 -1.68843e-17 0)
(-1 8.5784e-17 0)
(-1 1.01847e-16 0)
(-1 8.1922e-17 0)
(-1 2.19613e-17 0)
(-1 -6.35228e-17 0)
(-1 -1.22188e-13 0)
(-1 2.66476e-14 0)
(-1 -6.14296e-15 0)
(-1 1.42538e-15 0)
(-1 -1.75893e-16 0)
(-1 1.61989e-16 0)
(-1 -4.86456e-17 0)
(-1 -7.42822e-17 0)
(-1 -7.81305e-17 0)
(-1 -6.93091e-17 0)
(-1 -6.79075e-17 0)
(-1 -7.50903e-17 0)
(-1 -4.21235e-17 0)
(-1 -3.57733e-19 0)
(-1 4.12767e-17 0)
(-1 -4.11025e-17 0)
(-1 -6.43718e-17 0)
(-1 -2.37709e-17 0)
(-1 -4.73418e-17 0)
(-1 -5.88408e-17 0)
(-1 8.93465e-14 0)
(-1 -1.99657e-14 0)
(-1 4.4486e-15 0)
(-1 -1.12824e-15 0)
(-1 1.32571e-16 0)
(-1 -1.65883e-16 0)
(-1 -5.83086e-17 0)
(-1 -6.72406e-17 0)
(-1 -1.0305e-16 0)
(-1 -1.60951e-16 0)
(-1 -1.62035e-16 0)
(-1 -1.11679e-16 0)
(-1 6.0288e-17 0)
(-1 1.2934e-16 0)
(-1 5.53951e-17 0)
(-1 -1.41623e-17 0)
(-1 3.21689e-18 0)
(-1 -5.44711e-17 0)
(-1 -1.03309e-16 0)
(-1 -6.12964e-17 0)
(-1 -4.5353e-16 0)
(-1 8.85236e-16 0)
(-1 -1.94364e-16 0)
(-1 1.19028e-16 0)
(-1 -3.66856e-17 0)
(-1 -2.44466e-17 0)
(-1 -1.77567e-18 0)
(-1 -3.59327e-17 0)
(-1 -1.51172e-16 0)
(-1 -1.13761e-16 0)
(-1 -9.90011e-17 0)
(-1 -1.18999e-16 0)
(-1 4.28484e-17 0)
(-1 1.23785e-16 0)
(-1 9.65918e-17 0)
(-1 3.10009e-17 0)
(-1 5.36565e-17 0)
(-1 2.42783e-17 0)
(-1 -3.46448e-17 0)
(-1 -3.68884e-17 0)
(-1 -8.58908e-14 0)
(-1 1.85722e-14 0)
(-1 -4.2183e-15 0)
(-1 9.27251e-16 0)
(-1 -2.67318e-16 0)
(-1 -1.15164e-16 0)
(-1 -1.98657e-16 0)
(-1 -1.40811e-16 0)
(-1 -1.81775e-16 0)
(-1 -1.03796e-16 0)
(-1 -1.28992e-17 0)
(-1 8.2737e-17 0)
(-1 1.74399e-16 0)
(-1 1.30652e-16 0)
(-1 9.64932e-17 0)
(-1 5.35324e-17 0)
(-1 -1.19304e-17 0)
(-1 1.57121e-17 0)
(-1 1.35044e-17 0)
(-1 -1.59886e-17 0)
(-1 1.15221e-13 0)
(-1 -2.50236e-14 0)
(-1 5.86965e-15 0)
(-1 -1.42089e-15 0)
(-1 2.90477e-17 0)
(-1 -3.10606e-16 0)
(-1 -2.12317e-16 0)
(-1 -1.35606e-16 0)
(-1 -7.60782e-18 0)
(-1 1.01031e-16 0)
(-1 2.29955e-17 0)
(-1 -1.37952e-17 0)
(-1 5.41291e-17 0)
(-1 1.1153e-16 0)
(-1 1.98319e-16 0)
(-1 2.26775e-16 0)
(-1 1.17989e-16 0)
(-1 1.26276e-16 0)
(-1 6.28427e-17 0)
(-1 9.67223e-19 0)
(-1 -4.08322e-14 0)
(-1 9.41837e-15 0)
(-1 -2.0267e-15 0)
(-1 5.29671e-16 0)
(-1 -1.84193e-16 0)
(-1 -1.15258e-16 0)
(-1 -9.29683e-17 0)
(-1 -4.51197e-17 0)
(-1 6.96637e-17 0)
(-1 1.87256e-16 0)
(-1 4.12761e-17 0)
(-1 -1.36153e-16 0)
(-1 -1.81779e-16 0)
(-1 -2.25006e-17 0)
(-1 1.18625e-16 0)
(-1 1.56252e-16 0)
(-1 1.31843e-16 0)
(-1 7.45913e-17 0)
(-1 -7.32133e-18 0)
(-1 3.43362e-17 0)
(-1 -5.27157e-14 0)
(-1 1.14189e-14 0)
(-1 -2.6814e-15 0)
(-1 6.34988e-16 0)
(-1 -1.59065e-16 0)
(-1 -5.99779e-17 0)
(-1 -5.10739e-17 0)
(-1 8.18661e-18 0)
(-1 -6.76974e-18 0)
(-1 -3.04984e-17 0)
(-1 1.78443e-17 0)
(-1 2.98718e-18 0)
(-1 -1.65524e-16 0)
(-1 -1.87126e-16 0)
(-1 -1.51829e-16 0)
(-1 -9.35407e-17 0)
(-1 3.9808e-18 0)
(-1 1.73691e-17 0)
(-1 6.18166e-17 0)
(-1 3.49697e-17 0)
(-1 9.81079e-14 0)
(-1 -2.1613e-14 0)
(-1 4.89028e-15 0)
(-1 -1.03145e-15 0)
(-1 3.19323e-16 0)
(-1 2.72984e-17 0)
(-1 1.12359e-16 0)
(-1 1.44963e-16 0)
(-1 1.16304e-16 0)
(-1 -1.14214e-16 0)
(-1 -1.72129e-16 0)
(-1 -1.37999e-16 0)
(-1 -1.26423e-16 0)
(-1 -1.64353e-16 0)
(-1 -1.5935e-16 0)
(-1 -1.67979e-16 0)
(-1 -1.39676e-16 0)
(-1 -4.19609e-17 0)
(-1 7.15733e-17 0)
(-1 9.31618e-18 0)
(-1 -9.19926e-14 0)
(-1 1.96592e-14 0)
(-1 -4.57616e-15 0)
(-1 8.63233e-16 0)
(-1 -3.0768e-16 0)
(-1 -2.26016e-18 0)
(-1 4.85483e-17 0)
(-1 2.9022e-17 0)
(-1 -4.04514e-18 0)
(-1 -9.00587e-17 0)
(-1 -1.99127e-16 0)
(-1 -1.9501e-16 0)
(-1 -1.73412e-16 0)
(-1 -8.90315e-17 0)
(-1 8.11754e-17 0)
(-1 3.89799e-17 0)
(-1 3.99543e-17 0)
(-1 4.39189e-17 0)
(-1 6.39251e-18 0)
(-1 3.84841e-18 0)
(-1 5.63633e-14 0)
(-1 -1.16831e-14 0)
(-1 2.79136e-15 0)
(-1 -5.01893e-16 0)
(-1 2.95918e-16 0)
(-1 7.0628e-17 0)
(-1 1.28775e-17 0)
(-1 -4.70733e-17 0)
(-1 -5.40228e-17 0)
(-1 -4.69961e-17 0)
(-1 -3.88054e-17 0)
(-1 3.29068e-17 0)
(-1 -5.51585e-17 0)
(-1 -5.97446e-18 0)
(-1 3.37865e-17 0)
(-1 6.88617e-17 0)
(-1 5.00101e-17 0)
(-1 1.87312e-17 0)
(-1 3.12534e-17 0)
(-1 4.82735e-17 0)
(-1 1.4392e-14 0)
(-1 -3.49182e-15 0)
(-1 6.36518e-16 0)
(-1 -2.93704e-16 0)
(-1 5.35635e-17 0)
(-1 1.24435e-16 0)
(-1 8.65887e-17 0)
(-1 9.1819e-17 0)
(-1 7.44189e-17 0)
(-1 4.89343e-17 0)
(-1 5.79458e-17 0)
(-1 5.93831e-17 0)
(-1 9.69328e-17 0)
(-1 7.37971e-17 0)
(-1 -1.25001e-16 0)
(-1 -1.43528e-16 0)
(-1 -1.66171e-16 0)
(-1 -1.69714e-16 0)
(-1 -1.19619e-16 0)
(-1 -4.35262e-17 0)
(-1 -7.81523e-14 0)
(-1 1.66954e-14 0)
(-1 -3.93456e-15 0)
(-1 7.86847e-16 0)
(-1 -2.80675e-16 0)
(-1 -1.90932e-18 0)
(-1 -5.47427e-17 0)
(-1 -5.08612e-17 0)
(-1 -9.10181e-17 0)
(-1 -1.10534e-16 0)
(-1 -4.42841e-17 0)
(-1 -3.01229e-17 0)
(-1 4.41033e-17 0)
(-1 3.78687e-19 0)
(-1 -9.74208e-17 0)
(-1 -1.77142e-16 0)
(-1 -1.2767e-16 0)
(-1 -3.58159e-18 0)
(-1 -6.10239e-17 0)
(-1 -1.29406e-16 0)
(-1 9.75748e-14 0)
(-1 -2.1009e-14 0)
(-1 4.83091e-15 0)
(-1 -1.03471e-15 0)
(-1 2.78188e-16 0)
(-1 -6.19587e-17 0)
(-1 -1.06231e-16 0)
(-1 -1.22183e-16 0)
(-1 -5.97249e-17 0)
(-1 -6.57374e-17 0)
(-1 -6.97485e-18 0)
(-1 -4.21892e-17 0)
(-1 -5.0509e-17 0)
(-1 -3.89175e-17 0)
(-1 5.67424e-17 0)
(-1 8.97626e-17 0)
(-1 4.28965e-17 0)
(-1 3.66792e-17 0)
(-1 6.14711e-18 0)
(-1 -7.30571e-17 0)
(-1 -6.00701e-14 0)
(-1 1.29595e-14 0)
(-1 -3.04983e-15 0)
(-1 6.56013e-16 0)
(-1 -2.32354e-16 0)
(-1 -3.41391e-17 0)
(-1 -5.24858e-17 0)
(-1 -9.22919e-17 0)
(-1 -1.04297e-16 0)
(-1 -1.05817e-16 0)
(-1 -8.72631e-17 0)
(-1 -9.5616e-17 0)
(-1 -1.65935e-17 0)
(-1 5.09807e-17 0)
(-1 1.1284e-16 0)
(-1 4.69248e-17 0)
(-1 1.15962e-17 0)
(-1 -5.34378e-17 0)
(-1 -3.95973e-17 0)
(-1 -6.08455e-17 0)
(-1 -2.14173e-14 0)
(-1 4.32354e-15 0)
(-1 -9.18724e-16 0)
(-1 2.8912e-16 0)
(-1 1.05325e-17 0)
(-1 1.32754e-16 0)
(-1 2.5579e-16 0)
(-1 1.32517e-16 0)
(-1 -1.53225e-16 0)
(-1 -2.38515e-16 0)
(-1 -1.51705e-16 0)
(-1 -7.40598e-17 0)
(-1 -1.3932e-16 0)
(-1 -1.55565e-16 0)
(-1 -1.77181e-16 0)
(-1 -1.5816e-16 0)
(-1 -3.3799e-17 0)
(-1 -3.61792e-17 0)
(-1 -2.53609e-17 0)
(-1 -3.8908e-17 0)
(-1 9.79627e-14 0)
(-1 -2.10686e-14 0)
(-1 4.98897e-15 0)
(-1 -1.16061e-15 0)
(-1 2.1609e-16 0)
(-1 -8.78033e-17 0)
(-1 -4.43775e-18 0)
(-1 1.23798e-17 0)
(-1 -3.10227e-17 0)
(-1 -3.07377e-17 0)
(-1 4.17493e-17 0)
(-1 1.05598e-16 0)
(-1 -3.5756e-18 0)
(-1 -9.65908e-17 0)
(-1 -1.15744e-16 0)
(-1 2.51793e-17 0)
(-1 1.57102e-16 0)
(-1 3.66185e-17 0)
(-1 -1.13222e-16 0)
(-1 -6.67579e-17 0)
(-1 -4.21749e-14 0)
(-1 9.1995e-15 0)
(-1 -2.15652e-15 0)
(-1 4.01644e-16 0)
(-1 -1.42846e-16 0)
(-1 -1.29306e-16 0)
(-1 -2.20588e-16 0)
(-1 -1.66671e-16 0)
(-1 -2.43996e-17 0)
(-1 4.84754e-17 0)
(-1 2.01102e-17 0)
(-1 8.95473e-17 0)
(-1 1.10505e-16 0)
(-1 6.91944e-17 0)
(-1 -3.34055e-18 0)
(-1 -1.16279e-17 0)
(-1 6.44285e-17 0)
(-1 3.09377e-17 0)
(-1 -9.76892e-17 0)
(-1 -4.60366e-17 0)
(-1 -8.48855e-14 0)
(-1 1.82534e-14 0)
(-1 -4.39077e-15 0)
(-1 8.87223e-16 0)
(-1 -1.92525e-16 0)
(-1 1.20211e-16 0)
(-1 1.05953e-16 0)
(-1 9.1391e-17 0)
(-1 5.63771e-17 0)
(-1 2.56325e-17 0)
(-1 -3.40187e-17 0)
(-1 -3.33213e-17 0)
(-1 -4.03407e-17 0)
(-1 -4.80773e-17 0)
(-1 -1.05788e-16 0)
(-1 -1.0804e-16 0)
(-1 -6.08579e-17 0)
(-1 -2.61714e-17 0)
(-1 -2.39104e-17 0)
(-1 5.75996e-18 0)
)
;

boundaryField
{
    movingWall
    {
        type            zeroGradient;
    }
    fixedWalls
    {
        type            zeroGradient;
    }
    frontAndBack
    {
        type            empty;
    }
}


// ************************************************************************* //
