/*--------------------------------*- C++ -*----------------------------------*\
| =========                 |                                                 |
| \\      /  F ield         | OpenFOAM: The Open Source CFD Toolbox           |
|  \\    /   O peration     | Version:  2506                                  |
|   \\  /    A nd           | Website:  www.openfoam.com                      |
|    \\/     M anipulation  |                                                 |
\*---------------------------------------------------------------------------*/
FoamFile
{
    version     2.0;
    format      ascii;
    arch        "LSB;label=32;scalar=64";
    class       volVectorField;
    location    "6.25";
    object      vorticityField;
}
// * * * * * * * * * * * * * * * * * * * * * * * * * * * * * * * * * * * * * //

dimensions      [0 0 -1 0 0 0 0];

internalField   nonuniform List<vector> 
400
(
(0 -0 8.25908e-12)
(0 -0 -1.10945e-11)
(0 -0 2.39038e-12)
(0 -0 -5.56695e-13)
(0 -0 9.02673e-14)
(0 -0 -3.56894e-14)
(0 -0 -7.3995e-16)
(0 -0 -4.83618e-15)
(0 -0 5.81045e-15)
(0 -0 -9.36315e-15)
(0 -0 1.18568e-14)
(0 -0 -6.72727e-15)
(0 -0 -1.82299e-14)
(0 -0 -1.82831e-14)
(0 -0 6.07985e-15)
(0 -0 -1.21972e-14)
(0 -0 -3.5628e-15)
(0 -0 -8.10381e-15)
(0 -0 -4.02145e-15)
(0 -0 6.62159e-15)
(0 -0 1.94059e-12)
(0 -0 -1.77149e-12)
(0 -0 5.98796e-13)
(0 -0 -9.24376e-14)
(0 -0 1.6256e-13)
(0 -0 1.23776e-13)
(0 -0 5.91357e-14)
(0 -0 6.96735e-14)
(0 -0 1.0026e-13)
(0 -0 1.41378e-13)
(0 -0 8.37446e-14)
(0 -0 2.87822e-14)
(0 -0 3.32765e-14)
(0 -0 1.38278e-15)
(0 -0 7.24508e-14)
(0 -0 9.31883e-14)
(0 -0 5.38239e-14)
(0 -0 -7.98858e-15)
(0 -0 3.96656e-14)
(0 -0 4.15615e-15)
(0 -0 -5.78641e-12)
(0 -0 1.04932e-11)
(0 -0 -2.52222e-12)
(0 -0 5.69602e-13)
(0 -0 -2.07655e-13)
(0 -0 -1.22801e-13)
(0 -0 -5.07322e-14)
(0 -0 -1.11369e-13)
(0 -0 -2.66077e-14)
(0 -0 -8.02929e-14)
(0 -0 -8.18933e-14)
(0 -0 -1.05842e-13)
(0 -0 -7.38419e-14)
(0 -0 -1.8765e-14)
(0 -0 -4.07447e-15)
(0 -0 -9.188e-14)
(0 -0 -5.2477e-14)
(0 -0 5.59131e-14)
(0 -0 -5.77171e-14)
(0 -0 1.06183e-14)
(0 -0 3.14337e-12)
(0 -0 -7.78506e-12)
(0 -0 1.6127e-12)
(0 -0 -5.40024e-13)
(0 -0 -1.21848e-14)
(0 -0 -7.32981e-14)
(0 -0 -9.8556e-14)
(0 -0 -4.47409e-15)
(0 -0 -9.06862e-14)
(0 -0 -8.72137e-14)
(0 -0 -4.9283e-14)
(0 -0 2.22323e-14)
(0 -0 -3.00318e-15)
(0 -0 -2.75943e-14)
(0 -0 -9.56654e-14)
(0 -0 -3.23229e-14)
(0 -0 -5.8241e-14)
(0 -0 -6.48627e-14)
(0 -0 -2.77876e-14)
(0 -0 -1.06445e-14)
(0 -0 9.37637e-13)
(0 -0 -1.36714e-13)
(0 -0 4.69427e-15)
(0 -0 1.57679e-14)
(0 -0 1.27576e-14)
(0 -0 3.0596e-14)
(0 -0 -1.14861e-15)
(0 -0 -9.62548e-14)
(0 -0 -6.19929e-14)
(0 -0 -2.1888e-14)
(0 -0 -2.76289e-14)
(0 -0 1.41849e-14)
(0 -0 2.42785e-14)
(0 -0 5.37434e-15)
(0 -0 -3.63835e-14)
(0 -0 -4.29353e-15)
(0 -0 -6.72262e-16)
(0 -0 -8.83013e-15)
(0 -0 -3.32217e-14)
(0 -0 -1.99517e-14)
(0 -0 -5.21398e-12)
(0 -0 7.76068e-12)
(0 -0 -1.7645e-12)
(0 -0 4.49309e-13)
(0 -0 -7.71365e-14)
(0 -0 -2.02389e-14)
(0 -0 -2.5647e-15)
(0 -0 1.68821e-15)
(0 -0 3.08065e-14)
(0 -0 9.82027e-14)
(0 -0 9.99685e-14)
(0 -0 7.29399e-14)
(0 -0 4.79152e-15)
(0 -0 -7.79053e-15)
(0 -0 -7.71198e-15)
(0 -0 -1.08424e-14)
(0 -0 -3.78203e-15)
(0 -0 -2.45616e-14)
(0 -0 -3.17007e-15)
(0 -0 2.48414e-16)
(0 -0 6.44476e-12)
(0 -0 -1.02033e-11)
(0 -0 2.33317e-12)
(0 -0 -5.84061e-13)
(0 -0 1.11028e-13)
(0 -0 3.00736e-14)
(0 -0 1.53025e-13)
(0 -0 1.83101e-13)
(0 -0 1.59189e-13)
(0 -0 1.11481e-13)
(0 -0 1.24043e-13)
(0 -0 8.44285e-14)
(0 -0 1.48058e-13)
(0 -0 1.22839e-13)
(0 -0 1.19945e-13)
(0 -0 4.61771e-14)
(0 -0 4.41602e-14)
(0 -0 2.15904e-14)
(0 -0 4.16792e-14)
(0 -0 2.07241e-14)
(0 -0 -1.97587e-12)
(0 -0 3.71792e-12)
(0 -0 -7.8045e-13)
(0 -0 2.3846e-13)
(0 -0 -1.02828e-14)
(0 -0 9.04376e-14)
(0 -0 6.1224e-14)
(0 -0 9.75784e-14)
(0 -0 1.31658e-13)
(0 -0 5.13713e-14)
(0 -0 -8.6551e-14)
(0 -0 -2.23055e-14)
(0 -0 1.13652e-14)
(0 -0 5.71455e-14)
(0 -0 4.49803e-14)
(0 -0 1.32178e-15)
(0 -0 -8.16606e-15)
(0 -0 -4.10215e-14)
(0 -0 -4.02551e-15)
(0 -0 -2.70149e-15)
(0 -0 -3.1539e-12)
(0 -0 4.65106e-12)
(0 -0 -1.1597e-12)
(0 -0 2.52233e-13)
(0 -0 -1.23707e-13)
(0 -0 -1.6306e-14)
(0 -0 -7.44987e-14)
(0 -0 -7.68847e-14)
(0 -0 -1.39394e-13)
(0 -0 -7.88538e-14)
(0 -0 -7.79666e-14)
(0 -0 -1.26757e-13)
(0 -0 -1.27432e-13)
(0 -0 -7.99457e-14)
(0 -0 -7.19566e-14)
(0 -0 -1.1524e-14)
(0 -0 1.1091e-14)
(0 -0 5.78358e-15)
(0 -0 1.76005e-15)
(0 -0 -9.67863e-15)
(0 -0 6.97186e-12)
(0 -0 -9.13202e-12)
(0 -0 2.05815e-12)
(0 -0 -5.65516e-13)
(0 -0 5.16649e-14)
(0 -0 -1.29117e-13)
(0 -0 -9.66537e-14)
(0 -0 -1.08026e-13)
(0 -0 -1.61443e-13)
(0 -0 -1.64369e-13)
(0 -0 -8.36937e-14)
(0 -0 -4.96395e-14)
(0 -0 -8.39505e-14)
(0 -0 -8.46079e-14)
(0 -0 -2.74676e-14)
(0 -0 -2.51377e-14)
(0 -0 1.26018e-14)
(0 -0 4.823e-14)
(0 -0 5.12771e-15)
(0 -0 1.90161e-14)
(0 -0 -8.31754e-12)
(0 -0 8.76875e-12)
(0 -0 -2.09644e-12)
(0 -0 3.99743e-13)
(0 -0 -1.13654e-13)
(0 -0 3.56228e-14)
(0 -0 3.12821e-15)
(0 -0 -3.23644e-14)
(0 -0 -1.19081e-14)
(0 -0 7.59687e-15)
(0 -0 1.66099e-14)
(0 -0 2.96766e-14)
(0 -0 9.1913e-14)
(0 -0 1.60984e-13)
(0 -0 9.41163e-14)
(0 -0 5.0088e-14)
(0 -0 5.4704e-14)
(0 -0 -3.04612e-14)
(0 -0 -4.00705e-15)
(0 -0 -2.81291e-14)
(0 -0 5.60643e-12)
(0 -0 -5.35719e-12)
(0 -0 1.38917e-12)
(0 -0 -1.14019e-13)
(0 -0 1.38567e-13)
(0 -0 2.5906e-14)
(0 -0 4.244e-14)
(0 -0 7.46251e-14)
(0 -0 1.35533e-13)
(0 -0 1.09942e-13)
(0 -0 1.43516e-13)
(0 -0 1.06785e-13)
(0 -0 2.32169e-14)
(0 -0 9.02097e-14)
(0 -0 7.48361e-15)
(0 -0 8.29375e-14)
(0 -0 2.2092e-14)
(0 -0 2.52294e-14)
(0 -0 5.71643e-14)
(0 -0 1.91524e-14)
(0 -0 1.00871e-12)
(0 -0 -1.29424e-12)
(0 -0 4.01126e-13)
(0 -0 -3.11904e-14)
(0 -0 1.77339e-13)
(0 -0 5.75126e-14)
(0 -0 7.80536e-14)
(0 -0 8.00982e-14)
(0 -0 2.28166e-14)
(0 -0 -1.64732e-15)
(0 -0 -2.60602e-14)
(0 -0 -5.03114e-14)
(0 -0 -2.56637e-14)
(0 -0 -1.57719e-13)
(0 -0 -1.03048e-13)
(0 -0 -8.54322e-14)
(0 -0 -1.11039e-13)
(0 -0 -4.95549e-14)
(0 -0 -4.15913e-14)
(0 -0 1.63146e-14)
(0 -0 -6.14569e-12)
(0 -0 7.20493e-12)
(0 -0 -1.78059e-12)
(0 -0 2.84073e-13)
(0 -0 -2.14401e-13)
(0 -0 -3.16169e-14)
(0 -0 -8.62103e-14)
(0 -0 -8.49427e-14)
(0 -0 -1.41493e-13)
(0 -0 -7.66418e-14)
(0 -0 -1.00379e-13)
(0 -0 -1.82663e-14)
(0 -0 -2.40549e-14)
(0 -0 -6.83625e-14)
(0 -0 -4.48571e-14)
(0 -0 -5.7235e-14)
(0 -0 1.7356e-14)
(0 -0 6.08747e-14)
(0 -0 -3.96875e-14)
(0 -0 -8.06208e-15)
(0 -0 7.14159e-12)
(0 -0 -9.00334e-12)
(0 -0 2.10585e-12)
(0 -0 -4.01063e-13)
(0 -0 1.51485e-13)
(0 -0 -3.84419e-14)
(0 -0 4.81877e-14)
(0 -0 5.88607e-14)
(0 -0 1.14065e-13)
(0 -0 8.65902e-14)
(0 -0 1.10775e-13)
(0 -0 7.69617e-14)
(0 -0 2.74322e-14)
(0 -0 6.49352e-14)
(0 -0 6.70781e-14)
(0 -0 5.28255e-14)
(0 -0 2.17967e-14)
(0 -0 -3.67494e-15)
(0 -0 -1.09736e-14)
(0 -0 3.37961e-14)
(0 -0 -3.70818e-12)
(0 -0 5.40387e-12)
(0 -0 -1.28456e-12)
(0 -0 2.27538e-13)
(0 -0 -1.23225e-13)
(0 -0 -9.11827e-15)
(0 -0 -6.00254e-14)
(0 -0 -5.93912e-14)
(0 -0 -1.35256e-15)
(0 -0 1.70334e-15)
(0 -0 1.02014e-15)
(0 -0 7.06696e-15)
(0 -0 1.2308e-13)
(0 -0 9.42585e-14)
(0 -0 5.38045e-14)
(0 -0 -1.01244e-14)
(0 -0 -1.00363e-14)
(0 -0 -5.11935e-15)
(0 -0 2.63643e-14)
(0 -0 1.00443e-14)
(0 -0 -1.00464e-12)
(0 -0 1.7788e-12)
(0 -0 -4.30547e-13)
(0 -0 3.87156e-14)
(0 -0 -4.27417e-14)
(0 -0 -2.57935e-15)
(0 -0 -5.42338e-14)
(0 -0 -1.22217e-13)
(0 -0 -1.72628e-13)
(0 -0 -1.08268e-13)
(0 -0 -9.19747e-14)
(0 -0 -1.07182e-13)
(0 -0 -1.16571e-13)
(0 -0 -8.51012e-14)
(0 -0 -5.44695e-14)
(0 -0 1.43382e-14)
(0 -0 1.2198e-14)
(0 -0 5.50539e-14)
(0 -0 -2.72882e-16)
(0 -0 6.4269e-15)
(0 -0 3.48812e-12)
(0 -0 -8.18606e-12)
(0 -0 1.88238e-12)
(0 -0 -4.50183e-13)
(0 -0 1.34386e-13)
(0 -0 5.05224e-15)
(0 -0 3.71234e-14)
(0 -0 2.44466e-14)
(0 -0 2.27933e-14)
(0 -0 6.14873e-14)
(0 -0 6.78437e-14)
(0 -0 -4.53249e-15)
(0 -0 -4.73239e-14)
(0 -0 -1.12169e-14)
(0 -0 6.63871e-14)
(0 -0 2.72846e-14)
(0 -0 5.5354e-14)
(0 -0 -2.70324e-14)
(0 -0 -1.03376e-14)
(0 -0 -9.1071e-15)
(0 -0 -1.50861e-12)
(0 -0 3.54105e-12)
(0 -0 -7.98471e-13)
(0 -0 2.01367e-13)
(0 -0 -8.02001e-14)
(0 -0 -7.77418e-15)
(0 -0 -3.73646e-15)
(0 -0 7.38289e-14)
(0 -0 7.57247e-14)
(0 -0 5.86611e-14)
(0 -0 5.83173e-14)
(0 -0 6.32496e-14)
(0 -0 5.21748e-14)
(0 -0 4.28256e-14)
(0 -0 -8.08223e-15)
(0 -0 6.77691e-15)
(0 -0 4.25656e-15)
(0 -0 -1.62118e-14)
(0 -0 -6.19075e-14)
(0 -0 1.43726e-14)
(0 -0 -5.63322e-12)
(0 -0 7.83264e-12)
(0 -0 -1.6824e-12)
(0 -0 4.46929e-13)
(0 -0 -4.95961e-14)
(0 -0 5.69529e-14)
(0 -0 2.4223e-14)
(0 -0 -4.95757e-15)
(0 -0 -6.57585e-15)
(0 -0 -6.32497e-14)
(0 -0 -6.01055e-14)
(0 -0 -6.32197e-16)
(0 -0 -1.4756e-15)
(0 -0 -6.07548e-14)
(0 -0 -6.02064e-14)
(0 -0 4.49301e-15)
(0 -0 -4.60232e-14)
(0 -0 -5.05154e-14)
(0 -0 5.74032e-14)
(0 -0 2.89201e-14)
)
;

boundaryField
{
    movingWall
    {
        type            calculated;
        value           nonuniform List<vector> 
20
(
(0 -0 -1.25252e-11)
(0 -0 9.6482e-12)
(0 -0 -1.73662e-12)
(0 -0 5.08642e-13)
(0 -0 1.21167e-14)
(0 -0 7.42567e-14)
(0 -0 4.15269e-14)
(0 -0 -4.95757e-15)
(0 -0 3.78331e-14)
(0 -0 3.53693e-14)
(0 -0 -5.89538e-15)
(0 -0 4.37767e-14)
(0 -0 -1.4756e-15)
(0 -0 3.78642e-14)
(0 -0 3.84126e-14)
(0 -0 4.89019e-14)
(0 -0 -8.0631e-14)
(0 -0 -8.51231e-14)
(0 -0 9.2011e-14)
(0 -0 4.6224e-14)
)
;
    }
    fixedWalls
    {
        type            calculated;
        value           nonuniform List<vector> 
60
(
(0 -0 4.66782e-11)
(0 -0 9.02477e-12)
(0 -0 -4.51075e-11)
(0 -0 3.19439e-11)
(0 -0 7.13055e-13)
(0 -0 -3.28384e-11)
(0 -0 4.35134e-11)
(0 -0 -1.51674e-11)
(0 -0 -2.01105e-11)
(0 -0 3.85655e-11)
(0 -0 -3.78812e-11)
(0 -0 2.36837e-11)
(0 -0 5.6755e-12)
(0 -0 -3.12609e-11)
(0 -0 3.85149e-11)
(0 -0 -2.30252e-11)
(0 -0 -7.86217e-12)
(0 -0 3.49838e-11)
(0 -0 -1.5081e-11)
(0 -0 -3.29242e-11)
(0 -0 1.70982e-14)
(0 -0 2.54091e-14)
(0 -0 2.35363e-14)
(0 -0 -2.58649e-15)
(0 -0 -1.23497e-14)
(0 -0 6.39543e-15)
(0 -0 2.67182e-14)
(0 -0 -1.37345e-14)
(0 -0 -1.39879e-14)
(0 -0 2.33786e-14)
(0 -0 -2.86444e-14)
(0 -0 7.79565e-15)
(0 -0 1.74105e-14)
(0 -0 2.46573e-14)
(0 -0 5.63279e-14)
(0 -0 2.43382e-14)
(0 -0 1.55632e-14)
(0 -0 -4.01901e-16)
(0 -0 1.84146e-14)
(0 -0 2.48011e-14)
(0 -0 1.46649e-11)
(0 -0 -1.33813e-11)
(0 -0 2.19544e-12)
(0 -0 -9.39071e-13)
(0 -0 -1.49081e-13)
(0 -0 -2.57734e-13)
(0 -0 -1.78376e-13)
(0 -0 -2.26881e-13)
(0 -0 -1.71825e-13)
(0 -0 -2.48712e-13)
(0 -0 -1.2137e-13)
(0 -0 -1.39954e-13)
(0 -0 -1.07048e-13)
(0 -0 -1.82831e-14)
(0 -0 -3.83291e-14)
(0 -0 -7.391e-14)
(0 -0 -3.5628e-15)
(0 -0 -8.10381e-15)
(0 -0 8.47964e-14)
(0 -0 9.54394e-14)
)
;
    }
    frontAndBack
    {
        type            empty;
    }
}


// ************************************************************************* //
