/*--------------------------------*- C++ -*----------------------------------*\
| =========                 |                                                 |
| \\      /  F ield         | OpenFOAM: The Open Source CFD Toolbox           |
|  \\    /   O peration     | Version:  2506                                  |
|   \\  /    A nd           | Website:  www.openfoam.com                      |
|    \\/     M anipulation  |                                                 |
\*---------------------------------------------------------------------------*/
FoamFile
{
    version     2.0;
    format      ascii;
    arch        "LSB;label=32;scalar=64";
    class       volScalarField;
    location    "0.675";
    object      p;
}
// * * * * * * * * * * * * * * * * * * * * * * * * * * * * * * * * * * * * * //

dimensions      [0 2 -2 0 0 0 0];

internalField   nonuniform List<scalar> 
6400
(
-1.08469e-07
1.19646e-05
-0.000495475
-0.00152936
-0.00297298
-0.00471615
-0.00665848
-0.00871043
-0.0107948
-0.0128461
-0.0148091
-0.0166375
-0.018293
-0.0197438
-0.0209642
-0.0219333
-0.022635
-0.0230571
-0.023191
-0.0230315
-0.0225759
-0.0218244
-0.0207793
-0.0194454
-0.0178289
-0.0159382
-0.0137832
-0.011375
-0.00872637
-0.00585115
-0.00276437
0.000517935
0.00397876
0.00760024
0.0113637
0.0152497
0.0192384
0.0233089
0.0274404
0.0316112
0.0357995
0.0399833
0.0441402
0.048248
0.0522845
0.0562275
0.0600552
0.0637461
0.0672794
0.0706347
0.0737927
0.0767348
0.0794436
0.0819031
0.0840986
0.0860171
0.0876474
0.0889802
0.0900085
0.0907279
0.0911362
0.0912345
0.0910268
0.0905204
0.0897264
0.0886598
0.08734
0.0857911
0.0840426
0.0821298
0.0800943
0.0779855
0.0758608
0.0737873
0.0718427
0.0701155
0.0687029
0.067709
0.0672408
0.0672785
-1.24247e-05
5.30586e-07
-0.000453683
-0.00133782
-0.00255281
-0.00401931
-0.00566142
-0.00740672
-0.00918993
-0.0109538
-0.0126486
-0.0142318
-0.0156672
-0.0169246
-0.0179788
-0.0188095
-0.0194004
-0.0197391
-0.0198163
-0.019626
-0.019165
-0.0184324
-0.0174298
-0.0161605
-0.0146301
-0.0128457
-0.010816
-0.00855106
-0.00606246
-0.00336287
-0.000466073
0.00261308
0.00585882
0.00925452
0.0127828
0.0164255
0.0201639
0.0239787
0.0278502
0.0317583
0.0356824
0.039602
0.0434961
0.0473439
0.0511246
0.0548177
0.0584028
0.0618598
0.0651696
0.0683132
0.0712728
0.0740314
0.0765731
0.0788832
0.0809485
0.0827574
0.0842998
0.085568
0.0865559
0.0872602
0.0876797
0.0878162
0.0876743
0.0872619
0.0865902
0.0856743
0.0845332
0.0831903
0.0816736
0.0800165
0.0782578
0.0764426
0.0746224
0.0728557
0.0712079
0.0697504
0.0685564
0.0677008
0.0672772
0.067316
0.000493571
0.000455551
1.19144e-06
-0.000815307
-0.00190697
-0.0032103
-0.00466417
-0.00620842
-0.00778732
-0.00935081
-0.0108546
-0.0122601
-0.0135338
-0.0146473
-0.0155769
-0.0163028
-0.0168093
-0.017084
-0.0171177
-0.016904
-0.0164392
-0.0157219
-0.014753
-0.0135352
-0.0120733
-0.0103736
-0.00844384
-0.00629337
-0.00393273
-0.00137368
0.00137096
0.00428732
0.00736063
0.0105753
0.0139149
0.0173624
0.0209002
0.02451
0.0281732
0.0318708
0.0355834
0.0392914
0.0429754
0.0466154
0.0501921
0.0536858
0.0570776
0.0603486
0.0634806
0.0664562
0.0692586
0.0718719
0.0742813
0.0764734
0.078436
0.0801584
0.0816318
0.0828489
0.0838049
0.0844968
0.0849243
0.0850895
0.0849974
0.0846559
0.0840763
0.0832732
0.0822649
0.0810737
0.0797261
0.0782531
0.0766906
0.0750795
0.0734656
0.0719001
0.0704388
0.0691411
0.0680664
0.0672749
0.0668521
0.0668497
0.00152679
0.00134192
0.000817829
-2.01941e-06
-0.00105109
-0.00227556
-0.00362366
-0.00504472
-0.00649108
-0.00791911
-0.00928959
-0.0105678
-0.0117233
-0.0127301
-0.013566
-0.0142124
-0.0146545
-0.0148801
-0.0148805
-0.0146492
-0.0141824
-0.0134785
-0.0125379
-0.0113629
-0.00995779
-0.00832817
-0.00648126
-0.00442562
-0.00217107
0.000271389
0.00288972
0.00567088
0.00860095
0.0116652
0.014848
0.0181334
0.0215045
0.0249441
0.0284343
0.0319573
0.0354945
0.0390275
0.0425375
0.0460058
0.0494139
0.0527432
0.0559757
0.0590936
0.0620796
0.0649173
0.0675907
0.0700851
0.0723865
0.0744823
0.076361
0.0780129
0.0794298
0.0806051
0.0815345
0.0822154
0.0826479
0.0828344
0.0827798
0.0824919
0.0819816
0.0812628
0.080353
0.0792731
0.0780478
0.0767056
0.0752792
0.0738053
0.0723249
0.0708825
0.0695263
0.0683069
0.0672746
0.0664812
0.0659947
0.0658591
0.00297636
0.00256488
0.00191297
0.00104014
-1.62659e-05
-0.00121137
-0.00250125
-0.00384363
-0.0051982
-0.00652742
-0.00779704
-0.00897637
-0.0100383
-0.0109591
-0.0117186
-0.0122998
-0.0126885
-0.0128737
-0.0128469
-0.0126018
-0.0121348
-0.0114441
-0.01053
-0.00939444
-0.0080412
-0.00647549
-0.00470397
-0.00273461
-0.00057658
0.00175981
0.00426323
0.00692138
0.00972111
0.0126485
0.0156887
0.0188266
0.0220461
0.0253309
0.0286641
0.0320285
0.0354066
0.0387808
0.0421331
0.045446
0.0487016
0.0518823
0.054971
0.0579509
0.0608054
0.063519
0.0660766
0.0684642
0.0706686
0.0726779
0.0744815
0.0760701
0.0774361
0.0785735
0.0794782
0.0801482
0.0805835
0.0807866
0.0807623
0.0805182
0.0800644
0.0794141
0.0785837
0.0775924
0.076463
0.0752214
0.073897
0.0725227
0.0711342
0.0697705
0.0684724
0.0672826
0.0662442
0.0654011
0.0647943
0.0644464
0.00474009
0.00405157
0.00322863
0.00226249
0.00115728
-5.00225e-05
-0.00132214
-0.00262435
-0.00392306
-0.00518639
-0.00638484
-0.00749164
-0.00848289
-0.00933754
-0.0100374
-0.010567
-0.0109135
-0.0110668
-0.0110188
-0.010764
-0.0102987
-0.00962131
-0.00873198
-0.00763255
-0.00632645
-0.00481855
-0.00311506
-0.00122345
0.000847653
0.00308855
0.00548853
0.00803597
0.0107184
0.0135226
0.0164346
0.0194398
0.0225231
0.0256688
0.0288609
0.032083
0.0353184
0.0385503
0.0417616
0.0449353
0.0480547
0.0511029
0.0540634
0.0569203
0.0596579
0.0622612
0.064716
0.0670089
0.0691274
0.0710602
0.0727971
0.0743295
0.0756502
0.0767534
0.0776354
0.0782943
0.0787302
0.0789454
0.0789445
0.0787345
0.0783249
0.0777279
0.0769586
0.0760346
0.0749765
0.0738078
0.0725546
0.0712458
0.0699127
0.0685886
0.0673082
0.0661069
0.0650217
0.0640893
0.0633195
0.0627082
0.0067272
0.00573334
0.00470946
0.00361847
0.00243047
0.00117593
-0.000113318
-0.00140921
-0.00268417
-0.00391147
-0.00506605
-0.00612488
-0.00706717
-0.00787447
-0.00853071
-0.00902215
-0.00933733
-0.00946702
-0.0094041
-0.00914345
-0.00868184
-0.00801783
-0.00715163
-0.00608503
-0.00482126
-0.00336494
-0.00172195
0.000100643
0.00209468
0.00425095
0.00655932
0.00900873
0.0115873
0.0142825
0.0170811
0.019969
0.0229319
0.0259548
0.0290224
0.032119
0.0352287
0.0383353
0.0414225
0.0444742
0.047474
0.050406
0.0532545
0.0560039
0.0586395
0.0611468
0.0635121
0.0657226
0.0677665
0.0696328
0.0713118
0.0727953
0.0740762
0.0751492
0.0760106
0.0766585
0.0770929
0.0773158
0.0773315
0.0771463
0.0767691
0.0762109
0.0754853
0.0746083
0.0735985
0.0724768
0.0712662
0.0699921
0.0686814
0.0673627
0.0660649
0.064817
0.0636512
0.0625981
0.0616351
0.0607311
0.00885827
0.0075456
0.00630161
0.00506264
0.00376575
0.00243626
0.0011016
-0.000215984
-0.00149419
-0.00271093
-0.00384519
-0.00487746
-0.00578993
-0.00656668
-0.00719374
-0.00765912
-0.00795278
-0.00806661
-0.00799435
-0.00773155
-0.00727544
-0.00662488
-0.00578026
-0.00474338
-0.00351742
-0.00210683
-0.000517237
0.0012446
0.0031709
0.00525287
0.00748084
0.00984428
0.0123319
0.0149316
0.0176307
0.020416
0.0232735
0.0261891
0.029148
0.0321352
0.0351353
0.0381328
0.0411122
0.0440579
0.0469542
0.0497857
0.0525373
0.0551941
0.0577418
0.0601665
0.062455
0.064595
0.0665749
0.0683843
0.0700138
0.0714552
0.0727019
0.0737485
0.0745913
0.0752284
0.0756595
0.0758863
0.0759125
0.075744
0.0753884
0.0748559
0.0741586
0.0733108
0.072329
0.0712317
0.0700391
0.0687732
0.0674572
0.0661151
0.0647711
0.0634486
0.0621759
0.0609785
0.0598026
0.0585915
0.0110662
0.00943081
0.00795564
0.0065524
0.00512717
0.00370123
0.00229862
0.000936564
-0.000367274
-0.00159487
-0.00272887
-0.003753
-0.00465228
-0.00541319
-0.0060238
-0.00647387
-0.0067548
-0.00685963
-0.00678307
-0.00652138
-0.00607234
-0.00543521
-0.0046106
-0.00360047
-0.002408
-0.00103755
0.000505409
0.00221435
0.00408178
0.00609927
0.00825754
0.0105465
0.0129553
0.0154723
0.0180855
0.0207821
0.0235487
0.0263717
0.0292369
0.0321299
0.0350359
0.0379399
0.0408269
0.0436819
0.0464899
0.0492358
0.0519051
0.0544833
0.0569567
0.0593117
0.0615355
0.0636162
0.0655425
0.0673042
0.0688921
0.0702982
0.071516
0.0725399
0.0733664
0.0739931
0.0744196
0.0746471
0.0746788
0.0745195
0.0741764
0.0736581
0.0729755
0.0721414
0.07117
0.0700777
0.0688821
0.067602
0.0662574
0.0648684
0.0634548
0.0620357
0.0606359
0.0592775
0.057877
0.0563536
0.0132949
0.0113388
0.00962702
0.00804864
0.00648088
0.00494205
0.00345366
0.00202872
0.000680852
-0.000575493
-0.00172621
-0.00275797
-0.00365838
-0.00441621
-0.00502151
-0.0054657
-0.00574161
-0.00584349
-0.005767
-0.00550919
-0.00506847
-0.00444452
-0.00363829
-0.00265192
-0.00148868
-0.000152934
0.00134994
0.00301358
0.00483071
0.00679319
0.00889204
0.0111176
0.0134593
0.0159061
0.0184463
0.0210676
0.0237572
0.0265018
0.0292879
0.0321014
0.034928
0.0377535
0.0405631
0.0433423
0.0460765
0.0487512
0.0513522
0.0538655
0.0562776
0.0585753
0.0607462
0.0627785
0.0646611
0.0663841
0.0679383
0.0693158
0.0705099
0.0715152
0.0723278
0.072945
0.0733661
0.0735918
0.0736245
0.0734685
0.0731296
0.0726157
0.0719362
0.0711021
0.070126
0.0690221
0.0678055
0.0664925
0.0650999
0.0636447
0.062143
0.0606099
0.0590681
0.0575372
0.0559057
0.054071
0.0154977
0.013226
0.011276
0.00951568
0.0077954
0.00613133
0.00454328
0.00304073
0.00163385
0.000333989
-0.000847639
-0.00190033
-0.00281407
-0.00357976
-0.00418929
-0.00463572
-0.00491326
-0.00501734
-0.00494461
-0.00469293
-0.00426135
-0.00365007
-0.0028604
-0.00189473
-0.000756481
0.00054992
0.00201912
0.00364486
0.00542002
0.00733667
0.00938611
0.0115589
0.013845
0.0162335
0.0187133
0.0212723
0.0238982
0.0265783
0.0292992
0.0320475
0.0348092
0.0375705
0.0403171
0.0430348
0.0457094
0.0483269
0.0508732
0.0533348
0.0556983
0.0579509
0.0600802
0.0620748
0.0639236
0.0656167
0.067145
0.0685006
0.0696766
0.0706674
0.0714688
0.0720779
0.0724933
0.0727154
0.0727458
0.0725878
0.0722466
0.0717287
0.0710421
0.0701966
0.069203
0.0680733
0.0668207
0.0654591
0.0640026
0.0624655
0.0608607
0.0592004
0.0575058
0.0557945
0.0539295
0.0517878
0.0176352
0.0150548
0.0128674
0.0109212
0.00904155
0.0072432
0.00554485
0.00395308
0.00247517
0.00111975
-0.000104484
-0.00118917
-0.00212648
-0.00290922
-0.00353106
-0.00398657
-0.0042713
-0.00438185
-0.00431584
-0.00407195
-0.0036499
-0.00305044
-0.00227527
-0.0013271
-0.000209551
0.00107286
0.00251473
0.00410984
0.00585118
0.00773097
0.00974072
0.0118712
0.0141127
0.0164546
0.0188861
0.0213955
0.0239708
0.0265996
0.029269
0.0319658
0.0346766
0.0373878
0.0400854
0.0427555
0.0453844
0.0479582
0.0504631
0.0528858
0.0552131
0.0574324
0.0595315
0.0614988
0.0633235
0.0649956
0.0665059
0.0678463
0.0690098
0.0699906
0.070784
0.0713867
0.071797
0.0720144
0.07204
0.0718762
0.0715271
0.0709982
0.0702963
0.0694297
0.0684076
0.0672405
0.0659394
0.0645162
0.0629828
0.0613511
0.0596317
0.0578341
0.0559786
0.0540822
0.0519835
0.0495407
0.019674
0.0167924
0.0143699
0.012236
0.0101924
0.00825332
0.00643667
0.00474668
0.00318819
0.00176753
0.000491179
-0.000634589
-0.00160387
-0.00241128
-0.00305208
-0.00352229
-0.00381873
-0.00393912
-0.00388205
-0.00364701
-0.0032344
-0.00264552
-0.00188253
-0.000948466
0.00015281
0.00141662
0.00283748
0.00440918
0.00612473
0.00797647
0.00995605
0.0120545
0.0142621
0.0165688
0.0189638
0.0214359
0.0239733
0.0265638
0.029195
0.0318539
0.0345273
0.037202
0.0398643
0.0425005
0.0450971
0.0476404
0.050117
0.0525134
0.0548168
0.0570145
0.0590944
0.0610449
0.0628552
0.0645151
0.0660154
0.0673476
0.0685046
0.0694801
0.0702691
0.070868
0.0712742
0.0714867
0.0715059
0.0713333
0.0709721
0.0704267
0.0697027
0.0688071
0.0677477
0.0665334
0.0651735
0.0636781
0.0620573
0.060321
0.0584778
0.0565352
0.0545133
0.0524287
0.0500976
0.0473602
0.0215852
0.0184101
0.0157554
0.0134334
0.0112232
0.00913879
0.00719794
0.00540288
0.00375637
0.0022628
0.000926734
-0.000247411
-0.00125547
-0.00209368
-0.00275879
-0.00324816
-0.00355982
-0.00369256
-0.0036459
-0.00342014
-0.00301636
-0.00243642
-0.00168296
-0.000759372
0.000330209
0.00158091
0.00298713
0.0045426
0.00624033
0.00807273
0.0100315
0.0121079
0.0142924
0.016575
0.0189451
0.0213919
0.0239037
0.0264688
0.0290747
0.0317088
0.0343582
0.0370098
0.0396502
0.0422659
0.0448434
0.0473693
0.0498302
0.0522129
0.0545044
0.0566922
0.0587639
0.0607081
0.0625137
0.0641705
0.0656688
0.0670002
0.0681569
0.0691324
0.0699212
0.0705191
0.0709231
0.0711313
0.0711434
0.0709603
0.0705839
0.0700178
0.0692664
0.0683354
0.0672315
0.0659621
0.0645351
0.062959
0.0612423
0.0593935
0.0574194
0.055326
0.0531338
0.0508594
0.0482976
0.0452719
0.0233437
0.0198823
0.0169989
0.0144891
0.0121108
0.00987809
0.00780878
0.00590351
0.00416331
0.00259089
0.00118916
-3.91004e-05
-0.00109128
-0.00196509
-0.00265864
-0.00317054
-0.00349997
-0.00364672
-0.00361122
-0.00339454
-0.00299846
-0.00242539
-0.00167846
-0.00076144
0.00032123
0.00156445
0.00296248
0.00450893
0.00619681
0.00801851
0.00996584
0.01203
0.0142018
0.0164712
0.018828
0.0212613
0.0237598
0.0263118
0.0289052
0.0315275
0.034166
0.0368077
0.0394393
0.0420476
0.0446192
0.0471406
0.0495986
0.0519799
0.0542715
0.0564608
0.0585356
0.060484
0.0622948
0.0639575
0.0654624
0.0668004
0.0679635
0.0689447
0.0697381
0.0703387
0.0707429
0.0709483
0.0709537
0.0707591
0.0703657
0.0697759
0.0689931
0.068022
0.066868
0.0655372
0.0640364
0.0623728
0.0605536
0.0585859
0.0564754
0.0542269
0.0518615
0.0493963
0.0466059
0.0432977
0.0249275
0.0211862
0.0180775
0.0153809
0.0128339
0.0104509
0.00825012
0.00623092
0.00439279
0.00273704
0.00126512
-2.16219e-05
-0.00112198
-0.00203497
-0.00275998
-0.00329678
-0.00364561
-0.00380722
-0.00378289
-0.00357449
-0.00318443
-0.00261572
-0.00187194
-0.00095728
0.0001235
0.00136505
0.00276145
0.00430619
0.0059922
0.00781185
0.00975696
0.0118188
0.0139882
0.0162554
0.0186101
0.0210416
0.0235388
0.0260901
0.0286835
0.0313068
0.0339472
0.036592
0.039228
0.0418419
0.0444205
0.0469502
0.0494178
0.0518101
0.0541139
0.0563164
0.0584054
0.0603686
0.0621947
0.0638729
0.0653929
0.0667455
0.0679222
0.0689153
0.0697184
0.0703261
0.0707339
0.0709388
0.0709387
0.0707328
0.0703215
0.0697062
0.0688894
0.0678747
0.0666663
0.0652694
0.0636897
0.0619332
0.0600061
0.0579148
0.0556636
0.0532566
0.0507159
0.0480594
0.0450422
0.041456
0.0263167
0.022301
0.0189702
0.016088
0.0133722
0.0108378
0.00850362
0.00636785
0.00442876
0.00268642
0.00114101
-0.000207377
-0.0013588
-0.00231348
-0.00307196
-0.00363507
-0.00400407
-0.0041806
-0.0041668
-0.00396525
-0.00357901
-0.00301165
-0.00226727
-0.00135043
-0.000266253
0.000979651
0.00238115
0.00393158
0.00562378
0.00745005
0.00940221
0.0114715
0.0136489
0.0159245
0.0182883
0.0207296
0.0232374
0.0258002
0.0284061
0.031043
0.0336982
0.036359
0.0390123
0.0416448
0.0442432
0.0467941
0.049284
0.0516995
0.0540276
0.0562552
0.0583696
0.0603585
0.0622103
0.0639136
0.065458
0.0668335
0.0680313
0.0690432
0.069862
0.0704817
0.0708972
0.0711047
0.0711013
0.0708853
0.0704564
0.0698149
0.0689625
0.0679018
0.0666361
0.0651697
0.0635071
0.0616537
0.0596147
0.0573958
0.0550005
0.0524325
0.0497149
0.0468666
0.043624
0.0397635
0.0274931
0.0232076
0.0196575
0.0165909
0.0137067
0.0110203
0.0085515
0.00629743
0.00425531
0.00242414
0.000803003
-0.000609156
-0.00181351
-0.00281141
-0.00360442
-0.0041944
-0.00458353
-0.00477433
-0.00476971
-0.00457297
-0.00418781
-0.00361837
-0.0028692
-0.00194531
-0.00085215
0.000404366
0.00181788
0.00338155
0.0050881
0.00692975
0.00889824
0.0109849
0.0131804
0.0154753
0.0178593
0.0203219
0.0228521
0.0254386
0.0280694
0.0307324
0.0334151
0.0361048
0.0387882
0.0414522
0.0440834
0.0466682
0.0491931
0.0516445
0.054009
0.0562735
0.0584249
0.0604508
0.0623388
0.0640774
0.0656555
0.0670629
0.06829
0.0693279
0.0701691
0.0708066
0.0712347
0.0714487
0.071445
0.0712212
0.0707758
0.0701085
0.0692202
0.0681124
0.0667876
0.0652492
0.0635011
0.0615477
0.0593937
0.0570442
0.0545022
0.051771
0.048875
0.0458345
0.0423671
0.0382346
0.0284397
0.0238881
0.0201209
0.0168712
0.013819
0.0109806
0.00837644
0.00600302
0.0038566
0.00193524
0.000237027
-0.00124011
-0.00249838
-0.00354011
-0.00436788
-0.00498447
-0.00539294
-0.00559663
-0.00559921
-0.00540466
-0.00501732
-0.00444185
-0.00368332
-0.00274713
-0.00163911
-0.000365458
0.00106721
0.00265186
0.00438105
0.00624691
0.0082411
0.0103549
0.012579
0.0149037
0.0173191
0.0198145
0.022379
0.0250012
0.0276692
0.0303709
0.0330939
0.0358252
0.0385518
0.0412603
0.0439371
0.0465687
0.0491413
0.0516412
0.0540546
0.0563681
0.0585685
0.0606426
0.062578
0.0643624
0.0659843
0.0674328
0.0686979
0.06977
0.0706407
0.0713025
0.0717488
0.0719742
0.0719742
0.0717456
0.0712861
0.0705945
0.0696708
0.0685157
0.0671311
0.0655194
0.063684
0.0616285
0.0593573
0.0568748
0.054184
0.0512878
0.0482119
0.0449783
0.0412864
0.0368828
0.0291403
0.0243254
0.020343
0.0169112
0.0136914
0.0107011
0.00796141
0.00546818
0.00321684
0.00120463
-0.000571228
-0.00211376
-0.00342609
-0.0045115
-0.00537347
-0.00601566
-0.00644195
-0.0066565
-0.00666366
-0.00646812
-0.00607479
-0.00548891
-0.004716
-0.0037619
-0.00263279
-0.0013352
0.000123998
0.00173756
0.00349787
0.00539691
0.00742626
0.00957707
0.0118401
0.0142056
0.0166635
0.0192032
0.0218137
0.0244837
0.0272012
0.0299543
0.0327302
0.035516
0.0382987
0.0410647
0.0438003
0.0464917
0.0491249
0.0516861
0.054161
0.0565361
0.0587974
0.0609317
0.0629258
0.064767
0.0664432
0.0679429
0.0692553
0.0703702
0.0712785
0.0719719
0.0724429
0.0726854
0.072694
0.0724646
0.0719941
0.0712806
0.0703231
0.0691218
0.0676775
0.0659922
0.0640685
0.0619096
0.0595195
0.0569024
0.0540608
0.0509978
0.0477407
0.0443128
0.0403955
0.0357208
0.0295793
0.024503
0.0203066
0.0166935
0.0133068
0.0101647
0.0072896
0.0046765
0.00232016
0.000217079
-0.00163634
-0.00324397
-0.00460981
-0.005738
-0.00663289
-0.00729896
-0.00774091
-0.00796361
-0.00797216
-0.00777185
-0.00736823
-0.00676705
-0.00597432
-0.00499631
-0.00383957
-0.00251093
-0.00101756
0.000633081
0.00243316
0.00437453
0.00644862
0.00864652
0.0109589
0.0133759
0.0158875
0.018483
0.0211515
0.0238814
0.0266609
0.0294778
0.0323194
0.0351728
0.0380246
0.0408612
0.0436687
0.0464331
0.0491402
0.0517756
0.0543251
0.0567743
0.0591092
0.0613158
0.0633805
0.0652901
0.0670317
0.0685931
0.0699628
0.07113
0.0720847
0.0728177
0.0733208
0.0735869
0.0736099
0.0733848
0.0729076
0.0721755
0.0711868
0.0699409
0.0684381
0.0666795
0.0646674
0.0624046
0.0598945
0.0571414
0.0541475
0.0509161
0.047476
0.0438523
0.0397081
0.0347606
0.0297414
0.0244047
0.0199951
0.0162012
0.012648
0.00935455
0.00634422
0.00361156
0.00115058
-0.00104289
-0.0029732
-0.004645
-0.00606313
-0.00723255
-0.0081584
-0.00884599
-0.00930076
-0.00952832
-0.00953445
-0.00932508
-0.00890632
-0.00828449
-0.00746606
-0.00645773
-0.00526644
-0.00389934
-0.00236388
-0.000667766
0.00118097
0.00317397
0.00530257
0.00755772
0.00992998
0.0124095
0.0149861
0.017649
0.0203873
0.0231893
0.0260432
0.0289366
0.0318569
0.0347908
0.0377249
0.0406454
0.0435382
0.046389
0.0491833
0.0519064
0.0545436
0.0570802
0.0595015
0.0617932
0.0639409
0.0659309
0.0677495
0.0693839
0.0708218
0.0720514
0.073062
0.0738435
0.074387
0.0746843
0.0747284
0.0745134
0.0740345
0.0732882
0.0722718
0.0709841
0.0694246
0.0675941
0.0654942
0.0631273
0.0604968
0.0576065
0.054459
0.0510574
0.0474325
0.0436109
0.0392374
0.0340143
0.0296115
0.0240145
0.0193918
0.0154174
0.0116979
0.00825352
0.00510845
0.00225679
-0.00030809
-0.00259102
-0.00459702
-0.00633152
-0.00780011
-0.00900857
-0.00996282
-0.0106689
-0.0111331
-0.0113616
-0.0113609
-0.0111376
-0.0106984
-0.0100501
-0.00919963
-0.00815418
-0.00692104
-0.00550773
-0.00392196
-0.00217171
-0.000265232
0.00178895
0.00398198
0.00630469
0.00874754
0.0113006
0.0139535
0.0166956
0.0195156
0.0224021
0.0253429
0.0283257
0.0313375
0.0343651
0.0373949
0.0404127
0.0434044
0.0463552
0.0492503
0.0520748
0.0548133
0.0574508
0.059972
0.0623619
0.0646057
0.0666887
0.0685968
0.0703161
0.0718336
0.0731367
0.0742136
0.0750535
0.0756464
0.0759832
0.0760561
0.0758582
0.0753838
0.0746284
0.0735888
0.0722629
0.0706496
0.0687491
0.0665626
0.0640921
0.0613409
0.0583129
0.0550104
0.0514369
0.0476249
0.0436028
0.0389969
0.0334941
0.0291741
0.0233162
0.0184802
0.0143252
0.0104396
0.00684451
0.00356525
0.000595388
-0.00207235
-0.00444338
-0.00652342
-0.00831861
-0.0098353
-0.01108
-0.0120595
-0.0127805
-0.01325
-0.013475
-0.0134626
-0.01322
-0.0127545
-0.0120733
-0.011184
-0.0100942
-0.00881157
-0.00734393
-0.00569933
-0.003886
-0.00191242
0.000212675
0.00248027
0.00488104
0.00740532
0.0100431
0.0127839
0.0156169
0.0185309
0.0215141
0.0245545
0.0276395
0.030756
0.0338907
0.0370296
0.0401586
0.0432629
0.0463276
0.0493376
0.0522773
0.0551312
0.0578836
0.0605186
0.0630205
0.0653739
0.0675633
0.0695738
0.0713908
0.0730002
0.0743885
0.0755431
0.0764521
0.0771045
0.0774903
0.0776006
0.0774276
0.0769647
0.0762066
0.0751491
0.0737894
0.0721259
0.0701581
0.0678868
0.0653139
0.0624423
0.0592759
0.0558173
0.0520699
0.0480683
0.0438428
0.0390004
0.0332127
0.0284137
0.0222934
0.0172432
0.0129073
0.00885556
0.00511012
0.00169731
-0.00138979
-0.00415904
-0.00661647
-0.00876846
-0.0106218
-0.0121837
-0.0134614
-0.0144624
-0.0151942
-0.0156644
-0.0158808
-0.0158511
-0.0155832
-0.015085
-0.0143642
-0.0134288
-0.012287
-0.0109467
-0.00941629
-0.00770398
-0.00581833
-0.00376804
-0.00156204
0.000790462
0.00327998
0.00589671
0.0086305
0.0114708
0.0144067
0.0174269
0.0205195
0.0236722
0.0268725
0.030107
0.0333622
0.036624
0.0398779
0.043109
0.0463019
0.049441
0.0525105
0.0554942
0.0583758
0.0611391
0.0637674
0.0662446
0.0685544
0.0706812
0.0726093
0.0743238
0.0758101
0.0770547
0.0780444
0.0787674
0.0792126
0.07937
0.0792308
0.0787875
0.0780338
0.0769646
0.0755765
0.0738671
0.0718355
0.069482
0.0668081
0.0638167
0.0605118
0.0568958
0.0529726
0.0487786
0.0443459
0.0392623
0.0331833
0.027314
0.0209294
0.0156638
0.0111462
0.00692814
0.00303256
-0.000513117
-0.0037163
-0.00658548
-0.00912726
-0.0113487
-0.0132573
-0.014861
-0.0161678
-0.0171859
-0.0179237
-0.0183894
-0.0185916
-0.0185386
-0.0182389
-0.017701
-0.0169332
-0.0159441
-0.0147421
-0.0133358
-0.0117336
-0.00994438
-0.00797683
-0.0058399
-0.00354276
-0.00109478
0.00149438
0.00421477
0.00705611
0.0100078
0.0130587
0.0161974
0.019412
0.02269
0.0260188
0.0293848
0.0327743
0.0361729
0.0395659
0.042938
0.0462736
0.0495566
0.0527706
0.055899
0.058925
0.0618314
0.0646011
0.067217
0.0696621
0.0719197
0.0739733
0.0758068
0.0774049
0.0787526
0.0798359
0.0806416
0.0811576
0.0813728
0.0812774
0.0808628
0.0801217
0.0790482
0.0776379
0.0758879
0.0737966
0.071364
0.0685912
0.065481
0.0620374
0.058263
0.0541618
0.0497722
0.0451284
0.0397978
0.0334199
0.0258586
0.0192069
0.013724
0.00902387
0.00463908
0.000593551
-0.00308426
-0.00640224
-0.0093695
-0.0119933
-0.0142813
-0.0162417
-0.0178833
-0.0192148
-0.0202452
-0.0209835
-0.021439
-0.0216206
-0.0215377
-0.0211991
-0.0206141
-0.0197915
-0.0187404
-0.0174696
-0.0159882
-0.0143051
-0.0124293
-0.01037
-0.00813618
-0.00573736
-0.00318309
-0.000483171
0.00235229
0.00531289
0.00838785
0.011566
0.0148358
0.0181852
0.0216017
0.0250723
0.0285834
0.0321211
0.0356707
0.0392172
0.0427451
0.0462382
0.0496801
0.053054
0.0563425
0.0595283
0.0625934
0.0655201
0.0682904
0.0708863
0.0732902
0.0754845
0.0774522
0.0791766
0.0806417
0.0818323
0.082734
0.0833334
0.0836184
0.0835778
0.083202
0.0824828
0.0814132
0.079988
0.0782034
0.0760575
0.0735495
0.0706804
0.0674528
0.0638707
0.0599367
0.0556552
0.0510667
0.046207
0.0406233
0.0339377
0.0240301
0.0171078
0.0114056
0.00652166
0.00196957
-0.00222581
-0.00603496
-0.0094663
-0.0125296
-0.0152326
-0.0175839
-0.0195923
-0.0212674
-0.0226186
-0.0236558
-0.0243888
-0.0248275
-0.0249818
-0.0248616
-0.0244765
-0.0238362
-0.0229504
-0.0218285
-0.0204799
-0.0189141
-0.0171403
-0.015168
-0.0130065
-0.0106653
-0.00815397
-0.00548231
-0.00266028
0.000301883
0.00339363
0.00660407
0.00992194
0.0133356
0.0168328
0.020401
0.0240269
0.027697
0.031397
0.035112
0.0388267
0.0425252
0.0461911
0.0498075
0.0533569
0.0568214
0.060183
0.0634232
0.0665232
0.0694642
0.0722273
0.0747938
0.0771451
0.0792629
0.0811293
0.0827272
0.08404
0.0850521
0.0857487
0.0861165
0.086143
0.0858174
0.0851304
0.084074
0.0826421
0.0808301
0.0786352
0.0760563
0.073094
0.0697508
0.0660305
0.061936
0.0574719
0.0526806
0.0476001
0.041756
0.0347531
0.0218104
0.0146137
0.00868936
0.00362016
-0.00109995
-0.00544513
-0.0093848
-0.0129279
-0.0160849
-0.0188642
-0.021275
-0.0233271
-0.0250306
-0.0263961
-0.027434
-0.0281551
-0.02857
-0.0286895
-0.028524
-0.028084
-0.0273799
-0.0264218
-0.0252198
-0.0237838
-0.0221236
-0.020249
-0.0181697
-0.0158954
-0.0134359
-0.0108009
-0.00800047
-0.00504471
-0.001944
0.00129099
0.00464926
0.00811944
0.0116897
0.0153479
0.0190812
0.0228763
0.0267194
0.030596
0.034491
0.0383889
0.0422734
0.0461276
0.0499343
0.0536753
0.0573324
0.0608865
0.0643185
0.0676089
0.0707378
0.0736854
0.0764317
0.0789571
0.081242
0.0832674
0.0850146
0.0864657
0.0876038
0.0884127
0.0888775
0.0889846
0.0887219
0.0880787
0.087046
0.0856166
0.0837851
0.0815479
0.0789033
0.0758516
0.0723949
0.0685373
0.0642814
0.0596321
0.054634
0.0493272
0.0432149
0.0358839
0.0191808
0.0117048
0.00555541
0.000299149
-0.00458987
-0.00908486
-0.0131541
-0.0168073
-0.0200553
-0.0229076
-0.0253738
-0.0274646
-0.0291912
-0.0305647
-0.0315966
-0.0322985
-0.0326819
-0.0327583
-0.032539
-0.0320352
-0.0312579
-0.0302178
-0.0289258
-0.0273921
-0.0256272
-0.0236411
-0.021444
-0.0190458
-0.0164567
-0.0136865
-0.0107457
-0.00764429
-0.00439294
-0.0010024
0.00251624
0.00615152
0.00989155
0.013724
0.017636
0.0216142
0.0256444
0.0297122
0.0338022
0.0378984
0.0419845
0.046043
0.0500561
0.0540055
0.0578719
0.0616359
0.0652774
0.0687758
0.0721106
0.0752607
0.0782051
0.0809229
0.0833931
0.0855954
0.0875096
0.0891165
0.0903975
0.091335
0.0919126
0.0921152
0.0919292
0.0913427
0.0903454
0.0889289
0.0870869
0.084815
0.0821108
0.0789741
0.0754068
0.0714127
0.0669946
0.0621576
0.0569486
0.0514095
0.0450204
0.0373495
0.0161212
0.00836086
0.00198281
-0.00346257
-0.00852156
-0.0131664
-0.0173643
-0.0211255
-0.0244618
-0.0273831
-0.0299002
-0.0320245
-0.0337678
-0.0351426
-0.0361611
-0.0368359
-0.0371793
-0.0372037
-0.0369212
-0.0363438
-0.0354832
-0.034351
-0.0329583
-0.0313162
-0.0294354
-0.0273267
-0.0250004
-0.0224668
-0.0197364
-0.0168193
-0.013726
-0.0104668
-0.00705249
-0.00349387
0.000197879
0.00401122
0.00793419
0.0119544
0.0160588
0.0202341
0.0244659
0.0287396
0.0330396
0.0373498
0.0416532
0.0459323
0.0501687
0.0543434
0.0584367
0.0624284
0.0662974
0.0700226
0.073582
0.0769537
0.0801155
0.0830449
0.0857198
0.0881182
0.0902185
0.0919999
0.0934421
0.094526
0.0952334
0.0955478
0.0954539
0.0949383
0.0939894
0.0925976
0.0907554
0.0884573
0.0857004
0.0824838
0.0788091
0.0746801
0.0700993
0.0650721
0.0596475
0.0538698
0.0471947
0.039171
0.0126107
0.00456016
-0.00205043
-0.00768727
-0.0129174
-0.0177122
-0.0220377
-0.0259048
-0.0293261
-0.0323124
-0.0348751
-0.0370268
-0.0387802
-0.0401488
-0.0411457
-0.0417845
-0.0420786
-0.0420412
-0.0416854
-0.0410239
-0.0400693
-0.0388337
-0.0373292
-0.0355671
-0.033559
-0.0313158
-0.0288484
-0.0261675
-0.0232837
-0.0202075
-0.0169493
-0.0135199
-0.00993005
-0.0061906
-0.00231282
0.00169171
0.00581097
0.0100325
0.0143433
0.0187299
0.0231778
0.0276723
0.0321976
0.0367374
0.0412744
0.0457907
0.0502674
0.054685
0.0590232
0.063261
0.0673766
0.0713478
0.0751516
0.0787649
0.0821641
0.0853256
0.0882257
0.0908408
0.0931477
0.0951237
0.096747
0.0979966
0.0988526
0.0992965
0.0993116
0.0988827
0.0979967
0.0966426
0.0948115
0.0924971
0.0896954
0.0864049
0.0826268
0.0783646
0.0736208
0.0684008
0.0627561
0.056733
0.049762
0.0413715
0.00862735
0.000279998
-0.00656752
-0.0123984
-0.0178011
-0.0227459
-0.0271978
-0.0311684
-0.0346711
-0.0377177
-0.0403204
-0.0424928
-0.0442488
-0.0456027
-0.0465691
-0.0471623
-0.0473969
-0.0472871
-0.0468468
-0.0460899
-0.0450296
-0.0436789
-0.0420504
-0.0401563
-0.0380084
-0.0356185
-0.0329976
-0.0301568
-0.027107
-0.023859
-0.0204234
-0.0168111
-0.0130327
-0.00909949
-0.00502257
-0.000813572
0.00351549
0.00795213
0.0124833
0.0170955
0.0217742
0.0265046
0.0312707
0.036056
0.040843
0.0456133
0.0503478
0.0550264
0.059628
0.064131
0.0685127
0.0727499
0.0768187
0.0806945
0.0843526
0.0877678
0.0909149
0.0937685
0.0963038
0.0984963
0.100322
0.101758
0.102783
0.103376
0.103519
0.103194
0.102387
0.101085
0.0992779
0.0969581
0.0941207
0.0907633
0.0868864
0.0824935
0.0775867
0.0721715
0.0663019
0.0600262
0.0527487
0.0439765
0.00414773
-0.00450366
-0.011593
-0.0176208
-0.0231975
-0.0282924
-0.0328694
-0.0369408
-0.040521
-0.0436225
-0.0462589
-0.0484446
-0.0501948
-0.0515249
-0.0524507
-0.0529877
-0.0531516
-0.0529577
-0.0524211
-0.0515563
-0.0503777
-0.0488991
-0.0471338
-0.0450946
-0.0427941
-0.0402443
-0.0374568
-0.0344432
-0.0312144
-0.0277816
-0.0241556
-0.0203472
-0.0163673
-0.0122271
-0.0079377
-0.00351079
0.00104168
0.00570726
0.0104729
0.0153251
0.0202494
0.0252308
0.0302534
0.0353004
0.040354
0.0453956
0.0504056
0.0553635
0.0602475
0.0650353
0.0697034
0.0742275
0.0785827
0.0827431
0.0866825
0.0903743
0.0937914
0.0969069
0.099694
0.102126
0.104178
0.105823
0.107039
0.107802
0.108093
0.107891
0.107181
0.105947
0.104179
0.101866
0.0990032
0.0955867
0.0916168
0.087096
0.0820267
0.0764141
0.0703146
0.0637789
0.0561835
0.0470137
-0.000852845
-0.00981627
-0.0171528
-0.0233808
-0.0291332
-0.0343782
-0.0390787
-0.0432479
-0.046901
-0.0500517
-0.0527146
-0.0549053
-0.0566404
-0.0579365
-0.0588106
-0.0592797
-0.0593607
-0.0590699
-0.0584237
-0.0574378
-0.0561273
-0.054507
-0.0525911
-0.050393
-0.047926
-0.0452026
-0.0422349
-0.0390347
-0.0356135
-0.0319824
-0.0281524
-0.0241346
-0.0199398
-0.0155792
-0.011064
-0.00640558
-0.00161599
0.00329245
0.0083068
0.0134135
0.0185982
0.0238459
0.0291407
0.0344655
0.0398026
0.0451329
0.0504365
0.0556924
0.0608784
0.0659712
0.0709466
0.0757793
0.0804431
0.0849111
0.0891553
0.0931477
0.0968595
0.100262
0.103326
0.106023
0.108324
0.110204
0.111635
0.112592
0.113052
0.112995
0.112401