/*--------------------------------*- C++ -*----------------------------------*\
| =========                 |                                                 |
| \\      /  F ield         | OpenFOAM: The Open Source CFD Toolbox           |
|  \\    /   O peration     | Version:  2506                                  |
|   \\  /    A nd           | Website:  www.openfoam.com                      |
|    \\/     M anipulation  |                                                 |
\*---------------------------------------------------------------------------*/
FoamFile
{
    version     2.0;
    format      ascii;
    arch        "LSB;label=32;scalar=64";
    class       surfaceScalarField;
    location    "0.675";
    object      phi;
}
// * * * * * * * * * * * * * * * * * * * * * * * * * * * * * * * * * * * * * //

dimensions      [0 3 -1 0 0 0 0];

oriented        oriented;

internalField   nonuniform List<scalar> 
12640
(
1.90685e-10
-1.90638e-10
5.5679e-10
-3.66089e-10
8.84236e-10
-3.27385e-10
1.04742e-09
-1.63215e-10
9.8415e-10
6.3264e-11
6.67235e-10
3.16897e-10
8.9786e-11
5.7746e-10
-7.43093e-10
8.3293e-10
-1.81924e-09
1.07617e-09
-3.12219e-09
1.30292e-09
-4.63294e-09
1.5107e-09
-6.33097e-09
1.69803e-09
-8.19505e-09
1.86411e-09
-1.02036e-08
2.00862e-09
-1.23352e-08
2.13159e-09
-1.45685e-08
2.23326e-09
-1.68825e-08
2.31407e-09
-1.92571e-08
2.37454e-09
-2.16723e-08
2.41526e-09
-2.41092e-08
2.43693e-09
-2.65495e-08
2.44026e-09
-2.89755e-08
2.42603e-09
-3.13705e-08
2.39501e-09
-3.37186e-08
2.34802e-09
-3.60044e-08
2.28587e-09
-3.82138e-08
2.20937e-09
-4.03331e-08
2.11937e-09
-4.23498e-08
2.0167e-09
-4.42521e-08
1.90221e-09
-4.60288e-08
1.77674e-09
-4.76699e-08
1.64113e-09
-4.91662e-08
1.49625e-09
-5.05091e-08
1.34295e-09
-5.16912e-08
1.18211e-09
-5.27058e-08
1.0146e-09
-5.35471e-08
8.41308e-10
-5.42103e-08
6.63138e-10
-5.46913e-08
4.81005e-10
-5.49871e-08
2.95841e-10
-5.50957e-08
1.08594e-10
-5.5016e-08
-7.97726e-11
-5.47477e-08
-2.68275e-10
-5.42918e-08
-4.55912e-10
-5.36501e-08
-6.41662e-10
-5.28256e-08
-8.24487e-10
-5.18223e-08
-1.00334e-09
-5.06451e-08
-1.17715e-09
-4.93003e-08
-1.34485e-09
-4.7795e-08
-1.50533e-09
-4.61374e-08
-1.65751e-09
-4.43371e-08
-1.8003e-09
-4.24045e-08
-1.93259e-09
-4.03512e-08
-2.05332e-09
-3.81898e-08
-2.16141e-09
-3.5934e-08
-2.2558e-09
-3.35985e-08
-2.33548e-09
-3.11991e-08
-2.39945e-09
-2.87523e-08
-2.44677e-09
-2.62758e-08
-2.47655e-09
-2.37879e-08
-2.48793e-09
-2.13077e-08
-2.48014e-09
-1.88552e-08
-2.45251e-09
-1.64508e-08
-2.40441e-09
-1.41155e-08
-2.33534e-09
-1.18705e-08
-2.24494e-09
-9.73758e-09
-2.13295e-09
-7.73824e-09
-1.99933e-09
-5.89404e-09
-1.84421e-09
-4.22604e-09
-1.66801e-09
-2.75455e-09
-1.47149e-09
-1.49862e-09
-1.25594e-09
-4.75288e-10
-1.02332e-09
3.01437e-10
-7.76712e-10
8.22332e-10
-5.20889e-10
1.08577e-09
-2.63442e-10
1.10251e-09
-1.67434e-11
9.0366e-10
1.98843e-10
5.5507e-10
3.4858e-10
1.84097e-10
3.70961e-10
1.84106e-10
3.66549e-10
-5.57166e-10
8.87964e-10
-8.87556e-10
1.21941e-09
-6.58835e-10
1.13785e-09
-8.16031e-11
5.05443e-10
6.95671e-10
-7.51701e-10
1.57402e-09
-2.66284e-09
2.48855e-09
-5.22691e-09
3.39697e-09
-8.42247e-09
4.27176e-09
-1.22145e-08
5.09501e-09
-1.65589e-08
5.85513e-09
-2.14057e-08
6.5448e-09
-2.67012e-08
7.15958e-09
-3.23896e-08
7.69703e-09
-3.84141e-08
8.15617e-09
-4.47179e-08
8.5371e-09
-5.12445e-08
8.8407e-09
-5.79384e-08
9.06843e-09
-6.47453e-08
9.22218e-09
-7.16126e-08
9.30416e-09
-7.84891e-08
9.31683e-09
-8.53259e-08
9.26285e-09
-9.20759e-08
9.14504e-09
-9.86943e-08
8.96632e-09
-1.05138e-07
8.7297e-09
-1.11367e-07
8.43822e-09
-1.17343e-07
8.09502e-09
-1.23029e-07
7.70324e-09
-1.28393e-07
7.26608e-09
-1.33403e-07
6.78676e-09
-1.3803e-07
6.26855e-09
-1.42249e-07
5.7147e-09
-1.46034e-07
5.12855e-09
-1.49366e-07
4.51345e-09
-1.52224e-07
3.87279e-09
-1.54593e-07
3.21e-09
-1.56458e-07
2.52858e-09
-1.57809e-07
1.83206e-09
-1.58637e-07
1.12404e-09
-1.58937e-07
4.08191e-10
-1.58705e-07
-3.11767e-10
-1.57941e-07
-1.03204e-09
-1.56648e-07
-1.74878e-09
-1.54832e-07
-2.45807e-09
-1.525e-07
-3.15593e-09
-1.49665e-07
-3.83834e-09
-1.46341e-07
-4.5012e-09
-1.42546e-07
-5.1404e-09
-1.38299e-07
-5.75182e-09
-1.33626e-07
-6.33129e-09
-1.28551e-07
-6.87467e-09
-1.23106e-07
-7.37783e-09
-1.17323e-07
-7.83669e-09
-1.11237e-07
-8.24723e-09
-1.04887e-07
-8.60552e-09
-9.83148e-08
-8.90776e-09
-9.1564e-08
-9.15027e-09
-8.46812e-08
-9.32957e-09
-7.77154e-08
-9.44238e-09
-7.07176e-08
-9.48569e-09
-6.3741e-08
-9.45674e-09
-5.68404e-08
-9.35313e-09
-5.0072e-08
-9.17284e-09
-4.3493e-08
-8.91431e-09
-3.71614e-08
-8.57652e-09
-3.11354e-08
-8.15904e-09
-2.54725e-08
-7.66225e-09
-2.02293e-08
-7.08743e-09
-1.54602e-08
-6.43707e-09
-1.12165e-08
-5.71523e-09
-7.5443e-09
-4.92808e-09
-4.4829e-09
-4.08471e-09
-2.06119e-09
-3.19842e-09
-2.93403e-10
-2.28868e-09
8.27456e-10
-1.38431e-09
1.33909e-09
-5.28392e-10
1.32362e-09
2.14291e-10
9.25534e-10
7.46662e-10
3.70998e-10
9.25503e-10
5.55092e-10
3.30837e-10
-8.87953e-10
6.67665e-10
-1.22442e-09
6.1524e-10
-6.06616e-10
-8.73399e-11
6.21007e-10
-1.61127e-09
2.21964e-09
-4.05579e-09
4.01867e-09
-7.46545e-09
5.89827e-09
-1.18443e-08
7.77576e-09
-1.71669e-08
9.59432e-09
-2.33868e-08
1.13149e-08
-3.04427e-08
1.29111e-08
-3.82631e-08
1.43652e-08
-4.67693e-08
1.56658e-08
-5.58785e-08
1.68061e-08
-6.5505e-08
1.77827e-08
-7.55623e-08
1.85944e-08
-8.59638e-08
1.92422e-08
-9.66237e-08
1.97284e-08
-1.07458e-07
2.00564e-08
-1.18384e-07
2.02303e-08
-1.29322e-07
2.02551e-08
-1.40196e-07
2.01361e-08
-1.5093e-07
1.98791e-08
-1.61453e-07
1.94901e-08
-1.71699e-07
1.89756e-08
-1.81603e-07
1.8342e-08
-1.91104e-07
1.75959e-08
-2.00145e-07
1.67441e-08
-2.08672e-07
1.57936e-08
-2.16637e-07
1.47512e-08
-2.23992e-07
1.36241e-08
-2.30697e-07
1.24194e-08
-2.36713e-07
1.11444e-08
-2.42006e-07
9.80632e-09
-2.46546e-07
8.41262e-09
-2.50306e-07
6.97081e-09
-2.53266e-07
5.48855e-09
-2.55408e-07
3.97358e-09
-2.56718e-07
2.43378e-09
-2.57187e-07
8.77158e-10
-2.5681e-07
-6.88145e-10
-2.55588e-07
-2.25385e-09
-2.53526e-07
-3.81154e-09
-2.50631e-07
-5.35267e-09
-2.46918e-07
-6.86859e-09
-2.42406e-07
-8.35054e-09
-2.37118e-07
-9.78967e-09
-2.31081e-07
-1.11771e-08
-2.24329e-07
-1.25037e-08
-2.169e-07
-1.37607e-08
-2.08835e-07
-1.49391e-08
-2.00183e-07
-1.60299e-08
-1.90995e-07
-1.70245e-08
-1.81329e-07
-1.79141e-08
-1.71244e-07
-1.86905e-08
-1.60806e-07
-1.93455e-08
-1.50085e-07
-1.98713e-08
-1.39154e-07
-2.02606e-08
-1.2809e-07
-2.05065e-08
-1.16973e-07
-2.06027e-08
-1.05886e-07
-2.05437e-08
-9.49142e-08
-2.03246e-08
-8.41457e-08
-1.99414e-08
-7.36686e-08
-1.93914e-08
-6.35722e-08
-1.86729e-08
-5.39453e-08
-1.77859e-08
-4.48758e-08
-1.67318e-08
-3.64484e-08
-1.55147e-08
-2.87444e-08
-1.41411e-08
-2.18384e-08
-1.26212e-08
-1.57966e-08
-1.09698e-08
-1.06734e-08
-9.20798e-09
-6.50632e-09
-7.3655e-09
-3.31069e-09
-5.4843e-09
-1.0714e-09
-3.62357e-09
2.67504e-10
-1.86728e-09
8.1634e-10
-3.34552e-10
7.55317e-10
8.07658e-10
3.51374e-10
1.32945e-09
9.06455e-10
1.72242e-10
-1.06019e-09
1.05707e-10
-1.1578e-09
-5.86819e-10
8.59059e-11
-2.16934e-09
2.2036e-09
-4.81929e-09
4.86954e-09
-8.64303e-09
7.84236e-09
-1.369e-08
1.09453e-08
-1.99653e-08
1.4051e-08
-2.74394e-08
1.70685e-08
-3.60573e-08
1.99328e-08
-4.57445e-08
2.25984e-08
-5.64128e-08
2.50335e-08
-6.79639e-08
2.72169e-08
-8.02929e-08
2.91352e-08
-9.32907e-08
3.07805e-08
-1.06846e-07
3.21497e-08
-1.20846e-07
3.32428e-08
-1.35181e-07
3.40626e-08
-1.49738e-07
3.46139e-08
-1.64411e-07
3.49031e-08
-1.79094e-07
3.49379e-08
-1.93685e-07
3.47269e-08
-2.08085e-07
3.42796e-08
-2.22201e-07
3.36059e-08
-2.35942e-07
3.27165e-08
-2.49222e-07
3.16223e-08
-2.61961e-07
3.03346e-08
-2.74082e-07
2.88649e-08
-2.85513e-07
2.72249e-08
-2.96189e-07
2.54267e-08
-3.06047e-07
2.34823e-08
-3.15032e-07
2.14042e-08
-3.23092e-07
1.92047e-08
-3.30182e-07
1.68965e-08
-3.36262e-07
1.44925e-08
-3.41297e-07
1.20057e-08
-3.45257e-07
9.44925e-09
-3.48121e-07
6.83666e-09
-3.49868e-07
4.18153e-09
-3.50489e-07
1.49773e-09
-3.49976e-07
-1.20066e-09
-3.48331e-07
-3.89932e-09
-3.45559e-07
-6.58373e-09
-3.41672e-07
-9.23916e-09
-3.3669e-07
-1.18507e-08
-3.30637e-07
-1.44032e-08
-3.23546e-07
-1.68815e-08
-3.15452e-07
-1.92702e-08
-3.06402e-07
-2.1554e-08
-2.96445e-07
-2.37176e-08
-2.85639e-07
-2.57455e-08
-2.74046e-07
-2.76226e-08
-2.61736e-07
-2.93341e-08
-2.48785e-07
-3.08652e-08
-2.35274e-07
-3.22017e-08
-2.2129e-07
-3.333e-08
-2.06924e-07
-3.42368e-08
-1.92275e-07
-3.491e-08
-1.77443e-07
-3.5338e-08
-1.62535e-07
-3.55106e-08
-1.47661e-07
-3.54185e-08
-1.32931e-07
-3.5054e-08
-1.18461e-07
-3.44112e-08
-1.04367e-07
-3.34858e-08
-9.07641e-08
-3.2276e-08
-7.77674e-08
-3.07826e-08
-6.54896e-08
-2.90096e-08
-5.40393e-08
-2.6965e-08
-4.35189e-08
-2.46615e-08
-3.40221e-08
-2.21181e-08
-2.56304e-08
-1.93615e-08
-1.84097e-08
-1.64287e-08
-1.24044e-08
-1.33707e-08
-7.63181e-09
-1.02569e-08
-4.0737e-09
-7.18169e-09
-1.6668e-09
-4.2742e-09
-2.91194e-10
-1.71018e-09
2.42487e-10
2.73971e-10
2.08137e-10
1.36379e-09
1.11459e-09
-4.71776e-11
-1.01303e-09
-6.53868e-10
-5.51117e-10
-2.15823e-09
1.59027e-09
-4.80094e-09
4.84628e-09
-8.74628e-09
8.81486e-09
-1.40937e-08
1.31898e-08
-2.08882e-08
1.77398e-08
-2.91301e-08
2.22929e-08
-3.87837e-08
2.67222e-08
-4.97854e-08
3.09344e-08
-6.20492e-08
3.48622e-08
-7.54729e-08
3.84572e-08
-8.9942e-08
4.16861e-08
-1.05333e-07
4.45266e-08
-1.21518e-07
4.69654e-08
-1.38364e-07
4.89956e-08
-1.55737e-07
5.06159e-08
-1.73504e-07
5.1829e-08
-1.91531e-07
5.26407e-08
-2.09687e-07
5.30598e-08
-2.27846e-07
5.30967e-08
-2.45883e-07
5.27638e-08
-2.63678e-07
5.20747e-08
-2.81116e-07
5.10441e-08
-2.98087e-07
4.96875e-08
-3.14486e-07
4.80211e-08
-3.30213e-07
4.60617e-08
-3.45175e-07
4.38267e-08
-3.59284e-07
4.13337e-08
-3.72458e-07
3.86007e-08
-3.84621e-07
3.5646e-08
-3.95706e-07
3.24885e-08
-4.05648e-07
2.91468e-08
-4.14392e-07
2.56405e-08
-4.21888e-07
2.19888e-08
-4.28094e-07
1.82116e-08
-4.32974e-07
1.43292e-08
-4.36499e-07
1.03618e-08
-4.38648e-07
6.33021e-09
-4.39405e-07
2.25559e-09
-4.38765e-07
-1.84068e-09
-4.36728e-07
-5.93684e-09
-4.33301e-07
-1.00108e-08
-4.285e-07
-1.40403e-08
-4.22348e-07
-1.80026e-08
-4.14876e-07
-2.1875e-08
-4.06123e-07
-2.56342e-08
-3.96136e-07
-2.92572e-08
-3.84969e-07
-3.27208e-08
-3.72685e-07
-3.60018e-08
-3.59353e-07
-3.90772e-08
-3.45052e-07
-4.19241e-08
-3.29866e-07
-4.45202e-08
-3.13888e-07
-4.68434e-08
-2.97217e-07
-4.88726e-08
-2.79959e-07
-5.05874e-08
-2.62228e-07
-5.19682e-08
-2.44141e-07
-5.29969e-08
-2.25822e-07
-5.36567e-08
-2.074e-07
-5.39325e-08
-1.89008e-07
-5.38111e-08
-1.7078e-07
-5.32816e-08
-1.52856e-07
-5.23358e-08
-1.35373e-07
-5.09683e-08
-1.18472e-07
-4.91775e-08
-1.02288e-07
-4.69658e-08
-8.69572e-08
-4.43408e-08
-7.26064e-08
-4.13158e-08
-5.93563e-08
-3.79116e-08
-4.73163e-08
-3.41582e-08
-3.6581e-08
-3.00967e-08
-2.72266e-08
-2.57832e-08
-1.9305e-08
-2.12924e-08
-1.2838e-08
-1.67239e-08
-7.81029e-09
-1.22094e-08
-4.16105e-09
-7.92345e-09
-1.77486e-09
-4.09638e-09
-4.72053e-10
-1.02881e-09
2.22878e-12
8.89502e-10
1.11682e-09
-2.94218e-10
-7.18839e-10
-1.51855e-09
6.73199e-10
-3.94186e-09
4.01369e-09
-7.7637e-09
8.66806e-09
-1.31213e-08
1.41724e-08
-2.00961e-08
2.01646e-08
-2.87204e-08
2.63641e-08
-3.89843e-08
3.25568e-08
-5.08426e-08
3.85805e-08
-6.42214e-08
4.43132e-08
-7.90235e-08
4.96643e-08
-9.51339e-08
5.45676e-08
-1.12424e-07
5.89759e-08
-1.30754e-07
6.2857e-08
-1.49979e-07
6.61904e-08
-1.69948e-07
6.89649e-08
-1.90509e-07
7.11768e-08
-2.11508e-07
7.28281e-08
-2.32793e-07
7.39256e-08
-2.54213e-07
7.448e-08
-2.75622e-07
7.45049e-08
-2.96874e-07
7.40165e-08
-3.17833e-07
7.30331e-08
-3.38363e-07
7.15742e-08
-3.58337e-07
6.96612e-08
-3.77632e-07
6.73161e-08
-3.96132e-07
6.45622e-08
-4.13729e-07
6.14233e-08
-4.30319e-07
5.79238e-08
-4.45807e-07
5.40889e-08
-4.60105e-07
4.99442e-08
-4.73132e-07
4.55156e-08
-4.84815e-07
4.08298e-08
-4.95089e-07
3.59136e-08
-5.03894e-07
3.07943e-08
-5.11182e-07
2.54997e-08
-5.16911e-07
2.00581e-08
-5.21047e-07
1.4498e-08
-5.23566e-07
8.84869e-09
-5.2445e-07
3.13961e-09
-5.23691e-07
-2.59918e-09
-5.21291e-07
-8.33722e-09
-5.17258e-07
-1.40436e-08
-5.11611e-07
-1.96871e-08
-5.04378e-07
-2.5236e-08
-4.95594e-07
-3.06585e-08
-4.85306e-07
-3.59223e-08
-4.73568e-07
-4.09952e-08
-4.60444e-07
-4.58449e-08
-4.46007e-07
-5.0439e-08
-4.30338e-07
-5.47457e-08
-4.13529e-07
-5.87333e-08
-3.95679e-07
-6.23707e-08
-3.76895e-07
-6.56276e-08
-3.57292e-07
-6.84747e-08
-3.36996e-07
-7.08839e-08
-3.16136e-07
-7.28285e-08
-2.94849e-07
-7.42838e-08
-2.73279e-07
-7.52267e-08
-2.51574e-07
-7.56371e-08
-2.29888e-07
-7.54973e-08
-2.08376e-07
-7.47931e-08
-1.87198e-07
-7.35139e-08
-1.66513e-07
-7.16535e-08
-1.4648e-07
-6.92109e-08
-1.27255e-07
-6.61908e-08
-1.0899e-07
-6.26052e-08
-9.18317e-08
-5.84742e-08
-7.59153e-08
-5.38281e-08
-6.13642e-08
-4.87092e-08
-4.82856e-08
-4.31753e-08
-3.67659e-08
-3.73028e-08
-2.68663e-08
-3.11921e-08
-1.86168e-08
-2.49734e-08
-1.20107e-08
-1.88155e-08
-6.99795e-09
-1.29362e-08
-3.47852e-09
-7.6158e-09
-1.29625e-09
-3.21105e-09
-2.32982e-10
-1.73777e-10
8.83841e-10
-5.50707e-10
-1.68135e-10
-2.43065e-09
2.55308e-09
-5.83303e-09
7.41615e-09
-1.09061e-08
1.37412e-08
-1.77509e-08
2.10172e-08
-2.64226e-08
2.88363e-08
-3.6934e-08
3.68755e-08
-4.92598e-08
4.48826e-08
-6.33416e-08
5.26623e-08
-7.90933e-08
6.00648e-08
-9.64055e-08
6.69765e-08
-1.1515e-07
7.33124e-08
-1.35186e-07
7.90111e-08
-1.56358e-07
8.40293e-08
-1.78506e-07
8.83386e-08
-2.01464e-07
9.19227e-08
-2.25062e-07
9.47749e-08
-2.4913e-07
9.68961e-08
-2.73498e-07
9.82938e-08
-2.97999e-07
9.89806e-08
-3.22467e-07
9.89731e-08
-3.46742e-07
9.82915e-08
-3.70668e-07
9.6959e-08
-3.94094e-07
9.50007e-08
-4.16877e-07
9.2444e-08
-4.38879e-07
8.93176e-08
-4.59968e-07
8.56516e-08
-4.80022e-07
8.14772e-08
-4.98925e-07
7.68266e-08
-5.16569e-07
7.17327e-08
-5.32854e-07
6.62292e-08
-5.47689e-07
6.03506e-08
-5.60991e-07
5.41318e-08
-5.72686e-07
4.76085e-08
-5.82708e-07
4.08168e-08
-5.91002e-07
3.37936e-08
-5.9752e-07
2.65761e-08
-6.02224e-07
1.92025e-08
-6.05087e-07
1.17113e-08
-6.06089e-07
4.14161e-09
-6.05221e-07
-3.46673e-09
-6.02485e-07
-1.10734e-08
-5.97891e-07
-1.86376e-08
-5.9146e-07
-2.61179e-08
-5.83224e-07
-3.34724e-08
-5.73223e-07
-4.06591e-08
-5.6151e-07
-4.76356e-08
-5.48146e-07
-5.43591e-08
-5.33204e-07
-6.07872e-08
-5.16765e-07
-6.68775e-08
-4.98923e-07
-7.25878e-08
-4.7978e-07
-7.78767e-08
-4.59447e-07
-8.27034e-08
-4.38046e-07
-8.70284e-08
-4.15708e-07
-9.08132e-08
-3.9257e-07
-9.40212e-08
-3.68781e-07
-9.66179e-08
-3.44494e-07
-9.85711e-08
-3.19869e-07
-9.98512e-08
-2.95074e-07
-1.00432e-07
-2.70279e-07
-1.00292e-07
-2.45659e-07
-9.94131e-08
-2.21391e-07
-9.77821e-08
-1.97652e-07
-9.53923e-08
-1.74619e-07
-9.22437e-08
-1.52466e-07
-8.83439e-08
-1.31361e-07
-8.37101e-08
-1.11465e-07
-7.83699e-08
-9.29295e-08
-7.23641e-08
-7.58899e-08
-6.57488e-08
-6.04662e-08
-5.8599e-08
-4.67566e-08
-5.10125e-08
-3.48335e-08
-4.31151e-08
-2.47392e-08
-3.50677e-08
-1.64807e-08
-2.70739e-08
-1.00255e-08
-1.93914e-08
-5.297e-09
-1.23443e-08
-2.17198e-09
-6.33604e-09
-4.79078e-10
-1.86668e-09
4.04774e-10
-8.06801e-10
6.38716e-10
-3.35536e-09
5.1016e-09
-7.76441e-09
1.18252e-08
-1.41267e-08
2.01035e-08
-2.25014e-08
2.93919e-08
-3.29118e-08
3.92468e-08
-4.5346e-08
4.93097e-08
-5.97589e-08
5.92954e-08
-7.60756e-08
6.8979e-08
-9.41952e-08
7.81844e-08
-1.13995e-07
8.6776e-08
-1.35333e-07
9.46507e-08
-1.58054e-07
1.01732e-07
-1.81992e-07
1.07967e-07
-2.0697e-07
1.13317e-07
-2.32807e-07
1.1776e-07
-2.59321e-07
1.21288e-07
-2.86324e-07
1.23899e-07
-3.13632e-07
1.25602e-07
-3.41061e-07
1.2641e-07
-3.68431e-07
1.26343e-07
-3.95566e-07
1.25427e-07
-4.22295e-07
1.23688e-07
-4.48452e-07
1.21158e-07
-4.7388e-07
1.17872e-07
-4.98427e-07
1.13864e-07
-5.21948e-07
1.09173e-07
-5.44308e-07
1.03837e-07
-5.65379e-07
9.78977e-08
-5.85042e-07
9.13961e-08
-6.03188e-07
8.43748e-08
-6.19715e-07
7.68776e-08
-6.34532e-07
6.89487e-08
-6.47557e-07
6.06334e-08
-6.58718e-07
5.19777e-08
-6.67952e-07
4.30283e-08
-6.75209e-07
3.38328e-08
-6.80446e-07
2.44395e-08
-6.83632e-07
1.48973e-08
-6.84747e-07
5.25615e-09
-6.8378e-07
-4.43347e-09
-6.80733e-07
-1.41203e-08
-6.75618e-07
-2.37525e-08
-6.68458e-07
-3.32775e-08
-6.59288e-07
-4.26423e-08
-6.48154e-07
-5.17935e-08
-6.35112e-07
-6.06773e-08
-6.20232e-07
-6.92398e-08
-6.03592e-07
-7.74272e-08
-5.85283e-07
-8.51858e-08
-5.65409e-07
-9.24627e-08
-5.4408e-07
-9.92053e-08
-5.21421e-07
-1.05363e-07
-4.97565e-07
-1.10884e-07
-4.72655e-07
-1.15723e-07
-4.46845e-07
-1.19832e-07
-4.20294e-07
-1.23168e-07
-3.93173e-07
-1.25692e-07
-3.65657e-07
-1.27367e-07
-3.3793e-07
-1.2816e-07
-3.10178e-07
-1.28045e-07
-2.82591e-07
-1.26999e-07
-2.55365e-07
-1.25009e-07
-2.28691e-07
-1.22066e-07
-2.02764e-07
-1.18171e-07
-1.77771e-07
-1.13336e-07
-1.53897e-07
-1.07584e-07
-1.31318e-07
-1.00949e-07
-1.10198e-07
-9.34846e-08
-9.06861e-08
-8.52603e-08
-7.29163e-08
-7.63688e-08
-5.69997e-08
-6.69291e-08
-4.30226e-08
-5.70922e-08
-3.10428e-08
-4.70475e-08
-2.10856e-08
-3.70311e-08
-1.31411e-08
-2.73359e-08
-7.1621e-09
-1.83233e-08
-3.06371e-09
-1.04344e-08
-7.25809e-10
-4.20456e-09
-3.21021e-10
-1.05744e-09
1.69619e-09
-4.27244e-09
8.31662e-09
-9.69408e-09
1.72468e-08
-1.73593e-08
2.77687e-08
-2.72827e-08
3.93154e-08
-3.94522e-08
5.14163e-08
-5.38273e-08
6.36848e-08
-7.03398e-08
7.58078e-08
-8.88951e-08
8.75343e-08
-1.09375e-07
9.86647e-08
-1.31642e-07
1.09043e-07
-1.5554e-07
1.18549e-07
-1.809e-07
1.27092e-07
-2.07541e-07
1.34607e-07
-2.35274e-07
1.41049e-07
-2.63904e-07
1.46391e-07
-2.93233e-07
1.50618e-07
-3.23062e-07
1.53728e-07
-3.53192e-07
1.55731e-07
-3.83424e-07
1.56642e-07
-4.13565e-07
1.56484e-07
-4.43425e-07
1.55286e-07
-4.72819e-07
1.53082e-07
-5.01569e-07
1.49908e-07
-5.29504e-07
1.45806e-07
-5.56459e-07
1.40819e-07
-5.82279e-07
1.34993e-07
-6.06817e-07
1.28375e-07
-6.29933e-07
1.21015e-07
-6.51501e-07
1.12963e-07
-6.71399e-07
1.04273e-07
-6.8952e-07
9.49981e-08
-7.05763e-07
8.51919e-08
-7.2004e-07
7.49105e-08
-7.32273e-07
6.42105e-08
-7.42394e-07
5.31495e-08
-7.50347e-07
4.17861e-08
-7.56088e-07
3.01796e-08
-7.59581e-07
1.83906e-08
-7.60805e-07
6.48031e-09
-7.5975e-07
-5.489e-09
-7.56416e-07
-1.74543e-08
-7.50816e-07
-2.93517e-08
-7.42977e-07
-4.11166e-08
-7.32936e-07
-5.26839e-08
-7.20741e-07
-6.3988e-08
-7.06456e-07
-7.49627e-08
-6.90154e-07
-8.5542e-08
-6.71921e-07
-9.56598e-08
-6.51856e-07
-1.05251e-07
-6.3007e-07
-1.14249e-07
-6.06683e-07
-1.22591e-07
-5.81831e-07
-1.30215e-07
-5.55657e-07
-1.37059e-07
-5.28315e-07
-1.43064e-07
-4.99972e-07
-1.48175e-07
-4.70801e-07
-1.5234e-07
-4.40984e-07
-1.55509e-07
-4.10712e-07
-1.57638e-07
-3.80182e-07
-1.5869e-07
-3.49595e-07
-1.58631e-07
-3.19158e-07
-1.57437e-07
-2.89078e-07
-1.55089e-07
-2.59564e-07
-1.5158e-07
-2.30823e-07
-1.46912e-07
-2.0306e-07
-1.41099e-07
-1.76473e-07
-1.34171e-07
-1.51251e-07
-1.26171e-07
-1.27573e-07
-1.17163e-07
-1.05602e-07
-1.07231e-07
-8.5487e-08
-9.6484e-08
-6.73533e-08
-8.50628e-08
-5.13041e-08
-7.31414e-08
-3.74154e-08
-6.09361e-08
-2.57345e-08
-4.8712e-08
-1.62779e-08
-3.67925e-08
-9.03111e-09
-2.557e-08
-3.95054e-09
-1.5515e-08
-9.67809e-10
-7.18727e-09
-1.28882e-09
-1.30021e-09
2.99637e-09
-5.17073e-09
1.21872e-08
-1.15971e-08
2.36732e-08
-2.05624e-08
3.67339e-08
-3.20362e-08
5.07892e-08
-4.59691e-08
6.53492e-08
-6.22896e-08
8.00053e-08
-8.09035e-08
9.44217e-08
-1.01694e-07
1.08325e-07
-1.24525e-07
1.21496e-07
-1.49241e-07
1.33759e-07
-1.75671e-07
1.44979e-07
-2.0363e-07
1.55051e-07
-2.32924e-07
1.63902e-07
-2.63352e-07
1.71477e-07
-2.94704e-07
1.77743e-07
-3.26769e-07
1.82683e-07
-3.59335e-07
1.86294e-07
-3.92189e-07
1.88586e-07
-4.25122e-07
1.89575e-07
-4.57926e-07
1.89288e-07
-4.90399e-07
1.87759e-07
-5.22344e-07
1.85027e-07
-5.5357e-07
1.81135e-07
-5.83896e-07
1.76132e-07
-6.13145e-07
1.70068e-07
-6.41151e-07
1.62999e-07
-6.67758e-07
1.54981e-07
-6.92817e-07
1.46074e-07
-7.16191e-07
1.36337e-07
-7.37752e-07
1.25834e-07
-7.57383e-07
1.14629e-07
-7.74977e-07
1.02787e-07
-7.90441e-07
9.03742e-08
-8.0369e-07
7.74596e-08
-8.14652e-07
6.41119e-08
-8.23268e-07
5.04014e-08
-8.29488e-07
3.63997e-08
-8.33276e-07
2.21791e-08
-8.3461e-07
7.81356e-09
-8.33476e-07
-6.6224e-09
-8.29878e-07
-2.1053e-08
-8.23828e-07
-3.54016e-08
-8.15353e-07
-4.95908e-08
-8.04495e-07
-6.35424e-08
-7.91305e-07
-7.71776e-08
-7.75851e-07
-9.04175e-08
-7.5821e-07
-1.03183e-07
-7.38475e-07
-1.15394e-07
-7.16752e-07
-1.26974e-07
-6.93158e-07
-1.37843e-07
-6.67824e-07
-1.47926e-07
-6.40891e-07
-1.57148e-07
-6.12514e-07
-1.65436e-07
-5.82858e-07
-1.7272e-07
-5.52099e-07
-1.78934e-07
-5.20424e-07
-1.84016e-07
-4.88025e-07
-1.87907e-07
-4.55108e-07
-1.90556e-07
-4.2188e-07
-1.91918e-07
-3.88558e-07
-1.91953e-07
-3.55361e-07
-1.90634e-07
-3.22511e-07
-1.87939e-07
-2.9023e-07
-1.8386e-07
-2.58741e-07
-1.78401e-07
-2.2826e-07
-1.7158e-07
-1.99001e-07
-1.6343e-07
-1.71167e-07
-1.54005e-07
-1.44951e-07
-1.43379e-07
-1.20533e-07
-1.31649e-07
-9.80749e-08
-1.18942e-07
-7.77203e-08
-1.05417e-07
-5.95905e-08
-9.12712e-08
-4.37828e-08
-7.67438e-08
-3.03688e-08
-6.2126e-08
-1.9394e-08
-4.77673e-08
-1.08786e-08
-3.40854e-08
-4.82089e-09
-2.15727e-08
-1.20251e-09
-1.08056e-08
-2.49131e-09
-1.53418e-09
4.5305e-09
-6.04471e-09
1.66977e-08
-1.34599e-08
3.10883e-08
-2.37119e-08
4.69859e-08
-3.67261e-08
6.38034e-08
-5.24152e-08
8.10383e-08
-7.06753e-08
9.82654e-08
-9.13844e-08
1.15131e-07
-1.14402e-07
1.31343e-07
-1.39571e-07
1.46665e-07
-1.66718e-07
1.60905e-07
-1.95654e-07
1.73914e-07
-2.2618e-07
1.85578e-07
-2.58087e-07
1.95809e-07
-2.9116e-07
2.04549e-07
-3.25176e-07
2.11759e-07
-3.59912e-07
2.17419e-07
-3.95143e-07
2.21525e-07
-4.30644e-07
2.24087e-07
-4.66193e-07
2.25124e-07
-5.01571e-07
2.24666e-07
-5.36564e-07
2.22752e-07
-5.70965e-07
2.19427e-07
-6.04572e-07
2.14742e-07
-6.37191e-07
2.08751e-07
-6.68639e-07
2.01516e-07
-6.98738e-07
1.93099e-07
-7.27324e-07
1.83567e-07
-7.54238e-07
1.72988e-07
-7.79336e-07
1.61435e-07
-8.02483e-07
1.48981e-07
-8.23554e-07
1.357e-07
-8.42438e-07
1.21671e-07
-8.59034e-07
1.0697e-07
-8.73253e-07
9.16789e-08
-8.8502e-07
7.58784e-08
-8.9427e-07
5.96512e-08
-9.00951e-07
4.30815e-08
-9.05027e-07
2.62547e-08
-9.06471e-07
9.25753e-09
-9.05271e-07
-7.82212e-09
-9.01429e-07
-2.48952e-08
-8.94959e-07
-4.18714e-08
-8.8589e-07
-5.86599e-08
-8.74264e-07
-7.51685e-08
-8.60137e-07
-9.13049e-08
-8.43578e-07
-1.06976e-07
-8.24671e-07
-1.22089e-07
-8.03514e-07
-1.36552e-07
-7.80217e-07
-1.50271e-07
-7.54905e-07
-1.63155e-07
-7.27715e-07
-1.75116e-07
-6.98798e-07
-1.86065e-07
-6.68315e-07
-1.95918e-07
-6.36443e-07
-2.04592e-07
-6.03367e-07
-2.1201e-07
-5.69283e-07
-2.181e-07
-5.34397e-07
-2.22793e-07
-4.98923e-07
-2.2603e-07
-4.63083e-07
-2.27757e-07
-4.27105e-07
-2.27932e-07
-3.91221e-07
-2.26518e-07
-3.55665e-07
-2.23494e-07
-3.20675e-07
-2.18851e-07
-2.86485e-07
-2.12591e-07
-2.53327e-07
-2.04738e-07
-2.21427e-07
-1.9533e-07
-1.91004e-07
-1.84428e-07
-1.62267e-07
-1.72116e-07
-1.3541e-07
-1.58506e-07
-1.10613e-07
-1.43739e-07
-8.8038e-08
-1.27992e-07
-6.78265e-08
-1.11483e-07
-5.00989e-08
-9.44714e-08
-3.49532e-08
-7.72717e-08
-2.24653e-08
-6.02553e-08
-1.26909e-08
-4.38598e-08
-5.66912e-09
-2.85945e-08
-1.42895e-09
-1.50458e-08
-3.92026e-09
-1.75933e-09
6.2898e-09
-6.89236e-09
2.18308e-08
-1.5276e-08
3.9472e-08
-2.67951e-08
5.8505e-08
-4.13325e-08
7.83408e-08
-5.8763e-08
9.84688e-08
-7.89499e-08
1.18452e-07
-1.01742e-07
1.37923e-07
-1.26974e-07
1.56575e-07
-1.54467e-07
1.74157e-07
-1.84025e-07
1.90464e-07
-2.15445e-07
2.05334e-07
-2.4851e-07
2.18643e-07
-2.82997e-07
2.30296e-07
-3.18675e-07
2.40227e-07
-3.5531e-07
2.48394e-07
-3.92664e-07
2.54774e-07
-4.30501e-07
2.59363e-07
-4.68585e-07
2.6217e-07
-5.06681e-07
2.6322e-07
-5.44561e-07
2.62545e-07
-5.81998e-07
2.6019e-07
-6.18776e-07
2.56205e-07
-6.54684e-07
2.50649e-07
-6.89517e-07
2.43585e-07
-7.23084e-07
2.35082e-07
-7.55198e-07
2.25213e-07
-7.85686e-07
2.14054e-07
-8.14383e-07
2.01686e-07
-8.41137e-07
1.88189e-07
-8.65806e-07
1.7365e-07
-8.8826e-07
1.58154e-07
-9.08382e-07
1.41792e-07
-9.26065e-07
1.24653e-07
-9.41217e-07
1.06831e-07
-9.53758e-07
8.84192e-08
-9.6362e-07
6.95137e-08
-9.70751e-07
5.02118e-08
-9.75108e-07
3.06124e-08
-9.76667e-07
1.08159e-08
-9.75413e-07
-9.07594e-09
-9.71348e-07
-2.89601e-08
-9.64487e-07
-4.87322e-08
-9.5486e-07
-6.8287e-08
-9.4251e-07
-8.75181e-08
-9.27497e-07
-1.06319e-07
-9.09892e-07
-1.24581e-07
-8.89783e-07
-1.42198e-07
-8.67272e-07
-1.59063e-07
-8.42474e-07
-1.75068e-07
-8.1552e-07
-1.90109e-07
-7.86554e-07
-2.04082e-07
-7.55734e-07
-2.16886e-07
-7.23229e-07
-2.28423e-07
-6.89222e-07
-2.38598e-07
-6.53909e-07
-2.47323e-07
-6.17496e-07
-2.54513e-07
-5.80198e-07
-2.60091e-07
-5.4224e-07
-2.63988e-07
-5.03855e-07
-2.66142e-07
-4.65283e-07
-2.66504e-07
-4.26768e-07
-2.65033e-07
-3.88558e-07
-2.61705e-07
-3.50901e-07
-2.56507e-07
-3.14046e-07
-2.49446e-07
-2.7824e-07
-2.40544e-07
-2.43723e-07
-2.29847e-07
-2.10729e-07
-2.17422e-07
-1.79482e-07
-2.03363e-07
-1.50194e-07
-1.87794e-07
-1.23063e-07
-1.7087e-07
-9.82704e-08
-1.52785e-07
-7.59808e-08
-1.33772e-07
-5.63386e-08
-1.14114e-07
-3.94693e-08
-9.4141e-08
-2.54801e-08
-7.42445e-08
-1.44619e-08
-5.4878e-08
-6.49334e-09
-3.6563e-08
-1.64712e-09
-1.9892e-08
-5.56739e-09
-1.97617e-09
8.26598e-09
-7.71388e-09
2.75684e-08
-1.7044e-08
4.88021e-08
-2.98076e-08
7.12686e-08
-4.58467e-08
9.438e-08
-6.49994e-08
1.17622e-07
-8.70957e-08
1.40549e-07
-1.11955e-07
1.62783e-07
-1.39387e-07
1.84006e-07
-1.69186e-07
2.03956e-07
-2.01139e-07
2.22417e-07
-2.35023e-07
2.39217e-07
-2.70603e-07
2.54223e-07
-3.0764e-07
2.67333e-07
-3.45891e-07
2.78477e-07
-3.85106e-07
2.87609e-07
-4.25036e-07
2.94704e-07
-4.65432e-07
2.99759e-07
-5.06046e-07
3.02784e-07
-5.46634e-07
3.03808e-07
-5.86955e-07
3.02866e-07
-6.26775e-07
3.0001e-07
-6.65866e-07
2.95297e-07
-7.04009e-07
2.88791e-07
-7.40991e-07
2.80567e-07
-7.7661e-07
2.70701e-07
-8.10674e-07
2.59277e-07
-8.43002e-07
2.46382e-07
-8.73422e-07
2.32106e-07
-9.01775e-07
2.16542e-07
-9.27914e-07
1.99788e-07
-9.51703e-07
1.81943e-07
-9.73019e-07
1.63109e-07
-9.91753e-07
1.43388e-07
-1.00781e-06
1.22886e-07
-1.0211e-06
1.01711e-07
-1.03156e-06
7.99725e-08
-1.03913e-06
5.77814e-08
-1.04377e-06
3.52505e-08
-1.04544e-06
1.24943e-08
-1.04415e-06
-1.03709e-08
-1.03988e-06
-3.32276e-08
-1.03266e-06
-5.59568e-08
-1.02251e-06
-7.84383e-08
-1.00947e-06
-1.00551e-07
-9.93619e-07
-1.22173e-07
-9.7502e-07
-1.43181e-07
-9.53765e-07
-1.63453e-07
-9.2996e-07
-1.82868e-07
-9.03725e-07
-2.01303e-07
-8.75196e-07
-2.18638e-07
-8.44522e-07
-2.34756e-07
-8.11867e-07
-2.49541e-07
-7.77409e-07
-2.62882e-07
-7.41336e-07
-2.7467e-07
-7.03854e-07
-2.84806e-07
-6.65176e-07
-2.93191e-07
-6.25527e-07
-2.9974e-07
-5.85143e-07
-3.04372e-07
-5.44267e-07
-3.07018e-07
-5.0315e-07
-3.07621e-07
-4.62048e-07
-3.06136e-07
-4.2122e-07
-3.02533e-07
-3.80928e-07
-2.96799e-07
-3.41436e-07
-2.88938e-07
-3.03002e-07
-2.78978e-07
-2.65883e-07
-2.66966e-07
-2.30329e-07
-2.52976e-07
-1.9658e-07
-2.37112e-07
-1.64867e-07
-2.19507e-07
-1.35406e-07
-2.0033e-07
-1.08402e-07
-1.79789e-07
-8.404e-08
-1.58134e-07
-6.24916e-08
-1.35662e-07
-4.39105e-08
-1.12722e-07
-2.84351e-08
-8.97199e-08
-1.61908e-08
-6.71223e-08
-7.29403e-09
-4.54598e-08
-1.85758e-09
-2.53285e-08
-7.42498e-09
-2.18545e-09
1.04515e-08
-8.51083e-09
3.38938e-08
-1.87656e-08
5.90569e-08
-3.27501e-08
8.5253e-08
-5.02679e-08
1.11898e-07
-7.11213e-08
1.38475e-07
-9.51075e-08
1.64535e-07
-1.22016e-07
1.89692e-07
-1.5163e-07
2.1362e-07
-1.8372e-07
2.36046e-07
-2.18051e-07
2.56748e-07
-2.54378e-07
2.75545e-07
-2.92453e-07
2.92297e-07
-3.32017e-07
3.06898e-07
-3.72813e-07
3.19273e-07
-4.14577e-07
3.29373e-07
-4.57048e-07
3.37175e-07
-4.99965e-07
3.42675e-07
-5.43068e-07
3.45887e-07
-5.86101e-07
3.46841e-07
-6.28816e-07
3.45581e-07
-6.70967e-07
3.42162e-07
-7.12319e-07
3.36648e-07
-7.52642e-07
3.29115e-07
-7.91718e-07
3.19643e-07
-8.29335e-07
3.08319e-07
-8.65296e-07
2.95238e-07
-8.99412e-07
2.80497e-07
-9.31505e-07
2.64199e-07
-9.6141e-07
2.46448e-07
-9.88975e-07
2.27354e-07
-1.01406e-06
2.07028e-07
-1.03654e-06
1.85586e-07
-1.05629e-06
1.63143e-07
-1.07323e-06
1.39819e-07
-1.08725e-06
1.15736e-07
-1.09829e-06
9.10159e-08
-1.1063e-06
6.57848e-08
-1.11122e-06
4.01698e-08
-1.11302e-06
1.43002e-08
-1.1117e-06
-1.16932e-08
-1.10725e-06
-3.76777e-08
-1.09969e-06
-6.35192e-08
-1.08904e-06
-8.90822e-08
-1.07537e-06
-1.1423e-07
-1.05871e-06
-1.38825e-07
-1.03917e-06
-1.62729e-07
-1.01681e-06
-1.85805e-07
-9.91769e-07
-2.07913e-07
-9.64153e-07
-2.28918e-07
-9.34106e-07
-2.48685e-07
-9.01783e-07
-2.67079e-07
-8.67353e-07
-2.83971e-07
-8.30999e-07
-2.99236e-07
-7.92919e-07
-3.12751e-07
-7.53323e-07
-3.24402e-07
-7.12433e-07
-3.34081e-07
-6.70484e-07
-3.41689e-07
-6.2772e-07
-3.47136e-07
-5.84394e-07
-3.50343e-07
-5.40769e-07
-3.51246e-07
-4.97111e-07
-3.49793e-07
-4.53693e-07
-3.45951e-07
-4.1079e-07
-3.39702e-07
-3.68677e-07
-3.31051e-07
-3.2763e-07
-3.20025e-07
-2.87919e-07
-3.06676e-07
-2.49812e-07
-2.91084e-07
-2.13566e-07
-2.73358e-07
-1.7943e-07
-2.53642e-07
-1.47644e-07
-2.32117e-07
-1.18431e-07
-2.09002e-07
-9.20042e-08
-1.84561e-07
-6.85591e-08
-1.59107e-07
-4.82788e-08
-1.33002e-07
-3.13329e-08
-1.06666e-07
-1.78804e-08
-8.05748e-08
-8.07321e-09
-5.5267e-08
-2.06118e-09
-3.13405e-08
-9.48615e-09
-2.38806e-09
1.28395e-08
-9.28555e-09
4.07913e-08
-2.04443e-08
7.02156e-08
-3.56269e-08
1.00436e-07
-5.46005e-08
1.30871e-07
-7.71327e-08
1.61007e-07
-1.02988e-07
1.90391e-07
-1.31928e-07
2.18632e-07
-1.63706e-07
2.45398e-07
-1.98071e-07
2.70411e-07
-2.34763e-07
2.9344e-07
-2.73518e-07
3.14301e-07
-3.14068e-07
3.32847e-07
-3.56139e-07
3.48969e-07
-3.99457e-07
3.62591e-07
-4.43746e-07
3.73662e-07
-4.8873e-07
3.82159e-07
-5.34135e-07
3.88081e-07
-5.79692e-07
3.91444e-07
-6.25135e-07
3.92284e-07
-6.70203e-07
3.90649e-07
-7.14644e-07
3.86603e-07
-7.58213e-07
3.80217e-07
-8.00673e-07
3.71575e-07
-8.41797e-07
3.60767e-07
-8.81368e-07
3.47891e-07
-9.19181e-07
3.33051e-07
-9.55041e-07
3.16358e-07
-9.88766e-07
2.97924e-07
-1.02019e-06
2.77867e-07
-1.04914e-06
2.5631e-07
-1.07549e-06
2.33377e-07
-1.0991e-06
2.09196e-07
-1.11985e-06
1.83897e-07
-1.13765e-06
1.57613e-07
-1.15239e-06
1.30481e-07
-1.16401e-06
1.02636e-07
-1.17245e-06
7.42197e-08