/*--------------------------------*- C++ -*----------------------------------*\
| =========                 |                                                 |
| \\      /  F ield         | OpenFOAM: The Open Source CFD Toolbox           |
|  \\    /   O peration     | Version:  2506                                  |
|   \\  /    A nd           | Website:  www.openfoam.com                      |
|    \\/     M anipulation  |                                                 |
\*---------------------------------------------------------------------------*/
FoamFile
{
    version     2.0;
    format      ascii;
    arch        "LSB;label=32;scalar=64";
    class       volVectorField;
    location    "0.675";
    object      U;
}
// * * * * * * * * * * * * * * * * * * * * * * * * * * * * * * * * * * * * * //

dimensions      [0 1 -1 0 0 0 0];

internalField   nonuniform List<vector> 
6400
(
(7.25546e-06 -7.24986e-06 0)
(2.98285e-05 -1.44467e-05 0)
(5.93444e-05 -1.41797e-05 0)
(8.06751e-05 -9.74096e-06 0)
(8.55354e-05 -3.43274e-06 0)
(7.06742e-05 3.54039e-06 0)
(3.49644e-05 1.0564e-05 0)
(-2.15621e-05 1.73178e-05 0)
(-9.81515e-05 2.36377e-05 0)
(-0.000193617 2.94432e-05 0)
(-0.000306512 3.46972e-05 0)
(-0.000435238 3.93852e-05 0)
(-0.000578113 4.35046e-05 0)
(-0.000733418 4.70616e-05 0)
(-0.000899423 5.00679e-05 0)
(-0.00107441 5.25393e-05 0)
(-0.00125669 5.44935e-05 0)
(-0.00144462 5.5949e-05 0)
(-0.00163658 5.69248e-05 0)
(-0.00183102 5.7441e-05 0)
(-0.00202645 5.75179e-05 0)
(-0.00222144 5.71763e-05 0)
(-0.00241459 5.64369e-05 0)
(-0.00260461 5.53204e-05 0)
(-0.00279025 5.38469e-05 0)
(-0.00297033 5.20369e-05 0)
(-0.00314373 4.99106e-05 0)
(-0.00330941 4.74883e-05 0)
(-0.00346639 4.47901e-05 0)
(-0.00361375 4.18358e-05 0)
(-0.00375065 3.86453e-05 0)
(-0.00387632 3.52384e-05 0)
(-0.00399004 3.16352e-05 0)
(-0.00409118 2.78558e-05 0)
(-0.00417917 2.39205e-05 0)
(-0.00425351 1.98496e-05 0)
(-0.00431377 1.5664e-05 0)
(-0.00435961 1.13847e-05 0)
(-0.00439073 7.03306e-06 0)
(-0.00440694 2.63108e-06 0)
(-0.0044081 -1.79901e-06 0)
(-0.00439417 -6.23449e-06 0)
(-0.00436518 -1.06521e-05 0)
(-0.00432123 -1.5028e-05 0)
(-0.00426251 -1.9338e-05 0)
(-0.00418931 -2.35575e-05 0)
(-0.00410198 -2.76614e-05 0)
(-0.00400097 -3.16245e-05 0)
(-0.00388682 -3.54208e-05 0)
(-0.00376013 -3.90242e-05 0)
(-0.00362163 -4.24086e-05 0)
(-0.0034721 -4.55479e-05 0)
(-0.00331243 -4.84162e-05 0)
(-0.00314358 -5.09873e-05 0)
(-0.00296662 -5.32355e-05 0)
(-0.00278268 -5.51358e-05 0)
(-0.00259297 -5.66637e-05 0)
(-0.0023988 -5.77955e-05 0)
(-0.00220152 -5.85084e-05 0)
(-0.00200258 -5.87805e-05 0)
(-0.00180349 -5.85914e-05 0)
(-0.0016058 -5.79221e-05 0)
(-0.00141113 -5.67553e-05 0)
(-0.00122114 -5.50751e-05 0)
(-0.00103752 -5.28684e-05 0)
(-0.000862003 -5.0124e-05 0)
(-0.00069631 -4.68337e-05 0)
(-0.000542176 -4.29928e-05 0)
(-0.00040131 -3.8601e-05 0)
(-0.000275378 -3.36639e-05 0)
(-0.000165965 -2.81968e-05 0)
(-7.4533e-05 -2.22292e-05 0)
(-2.35106e-06 -1.58154e-05 0)
(4.96104e-05 -9.05283e-06 0)
(8.08566e-05 -2.12107e-06 0)
(9.16526e-05 4.64553e-06 0)
(8.3446e-05 1.06213e-05 0)
(5.98057e-05 1.46091e-05 0)
(2.92503e-05 1.4363e-05 0)
(6.87583e-06 6.874e-06 0)
(1.44672e-05 -2.98141e-05 0)
(5.15941e-05 -5.15107e-05 0)
(8.98982e-05 -4.4094e-05 0)
(0.000103659 -1.91195e-05 0)
(7.71575e-05 1.52993e-05 0)
(2.5284e-06 5.4126e-05 0)
(-0.000123932 9.42807e-05 0)
(-0.000303142 0.000133871 0)
(-0.000534058 0.000171734 0)
(-0.000814314 0.000207151 0)
(-0.00114067 0.000239687 0)
(-0.00150932 0.000269082 0)
(-0.00191606 0.000295189 0)
(-0.00235651 0.000317941 0)
(-0.00282614 0.000337327 0)
(-0.00332038 0.000353375 0)
(-0.00383469 0.000366143 0)
(-0.00436458 0.000375708 0)
(-0.00490566 0.000382162 0)
(-0.00545364 0.000385608 0)
(-0.00600438 0.000386157 0)
(-0.00655386 0.000383927 0)
(-0.00709824 0.000379041 0)
(-0.00763383 0.000371625 0)
(-0.00815714 0.000361806 0)
(-0.00866482 0.000349715 0)
(-0.00915373 0.000335483 0)
(-0.0096209 0.000319242 0)
(-0.0100636 0.000301125 0)
(-0.0104791 0.000281266 0)
(-0.0108651 0.0002598 0)
(-0.0112195 0.000236862 0)
(-0.0115401 0.000212589 0)
(-0.0118252 0.000187119 0)
(-0.0120731 0.000160593 0)
(-0.0122825 0.00013315 0)
(-0.0124521 0.000104934 0)
(-0.0125809 7.60916e-05 0)
(-0.0126682 4.67698e-05 0)
(-0.0127134 1.71195e-05 0)
(-0.0127162 -1.27059e-05 0)
(-0.0126763 -4.25503e-05 0)
(-0.012594 -7.22548e-05 0)
(-0.0124694 -0.000101658 0)
(-0.0123033 -0.000130595 0)
(-0.0120964 -0.000158899 0)
(-0.0118497 -0.000186401 0)
(-0.0115646 -0.00021293 0)
(-0.0112425 -0.000238315 0)
(-0.0108852 -0.000262382 0)
(-0.0104947 -0.000284958 0)
(-0.0100733 -0.00030587 0)
(-0.00962346 -0.000324949 0)
(-0.00914796 -0.000342025 0)
(-0.00864975 -0.000356932 0)
(-0.00813203 -0.00036951 0)
(-0.00759822 -0.000379603 0)
(-0.00705193 -0.000387063 0)
(-0.00649701 -0.000391749 0)
(-0.00593744 -0.00039353 0)
(-0.00537741 -0.000392285 0)
(-0.00482123 -0.000387909 0)
(-0.00427336 -0.000380307 0)
(-0.00373834 -0.000369406 0)
(-0.00322078 -0.000355149 0)
(-0.00272535 -0.000337506 0)
(-0.00225668 -0.000316473 0)
(-0.00181936 -0.000292082 0)
(-0.00141785 -0.000264412 0)
(-0.00105639 -0.000233601 0)
(-0.000738941 -0.000199871 0)
(-0.000468953 -0.000163561 0)
(-0.000249225 -0.000125191 0)
(-8.15882e-05 -8.55528e-05 0)
(3.35295e-05 -4.58744e-05 0)
(9.77185e-05 -8.09452e-06 0)
(0.000115367 2.46978e-05 0)
(9.49512e-05 4.75479e-05 0)
(5.26596e-05 5.26105e-05 0)
(1.43608e-05 2.92262e-05 0)
(1.43049e-05 -5.94439e-05 0)
(4.46188e-05 -8.99498e-05 0)
(6.13611e-05 -6.05177e-05 0)
(3.57187e-05 6.69008e-06 0)
(-5.06831e-05 9.6252e-05 0)
(-0.000208074 0.000197505 0)
(-0.000441793 0.000303213 0)
(-0.000753551 0.000408538 0)
(-0.00114232 0.000510251 0)
(-0.00160507 0.000606205 0)
(-0.00213741 0.000694984 0)
(-0.00273394 0.000775671 0)
(-0.0033886 0.000847698 0)
(-0.00409487 0.000910741 0)
(-0.00484599 0.000964655 0)
(-0.00563505 0.00100942 0)
(-0.0064551 0.00104513 0)
(-0.00729924 0.00107193 0)
(-0.00816065 0.00109003 0)
(-0.00903267 0.00109968 0)
(-0.0099088 0.00110116 0)
(-0.0107828 0.00109478 0)
(-0.0116485 0.00108087 0)
(-0.0125002 0.00105976 0)
(-0.0133323 0.00103181 0)
(-0.0141395 0.000997374 0)
(-0.0149168 0.000956821 0)
(-0.0156596 0.000910521 0)
(-0.0163634 0.000858853 0)
(-0.017024 0.000802195 0)
(-0.0176377 0.000740933 0)
(-0.0182009 0.000675456 0)
(-0.0187104 0.000606155 0)
(-0.0191634 0.000533429 0)
(-0.0195573 0.000457679 0)
(-0.0198898 0.000379313 0)
(-0.020159 0.000298744 0)
(-0.0203633 0.000216392 0)
(-0.0205016 0.000132685 0)
(-0.0205729 4.80547e-05 0)
(-0.0205766 -3.70559e-05 0)
(-0.0205127 -0.000122198 0)
(-0.0203812 -0.000206916 0)
(-0.0201826 -0.000290745 0)
(-0.019918 -0.000373215 0)
(-0.0195886 -0.000453849 0)
(-0.0191961 -0.000532166 0)
(-0.0187425 -0.000607679 0)
(-0.0182302 -0.0006799 0)
(-0.0176622 -0.000748338 0)
(-0.0170415 -0.000812504 0)
(-0.0163719 -0.000871912 0)
(-0.0156572 -0.000926082 0)
(-0.0149019 -0.00097454 0)
(-0.0141105 -0.00101683 0)
(-0.0132883 -0.00105249 0)
(-0.0124405 -0.00108111 0)
(-0.011573 -0.00110226 0)
(-0.0106916 -0.00111558 0)
(-0.00980274 -0.00112071 0)
(-0.00891292 -0.00111732 0)
(-0.00802887 -0.00110515 0)
(-0.00715753 -0.00108397 0)
(-0.00630595 -0.00105359 0)
(-0.00548125 -0.00101392 0)
(-0.00469058 -0.000964917 0)
(-0.00394102 -0.000906644 0)
(-0.00323951 -0.000839277 0)
(-0.00259272 -0.000763139 0)
(-0.00200693 -0.00067874 0)
(-0.00148784 -0.000586847 0)
(-0.00104034 -0.000488575 0)
(-0.000668202 -0.000385534 0)
(-0.000373683 -0.000280044 0)
(-0.000156956 -0.000175474 0)
(-1.53943e-05 -7.67447e-05 0)
(5.72536e-05 8.9379e-06 0)
(7.20237e-05 7.11372e-05 0)
(4.80232e-05 9.50136e-05 0)
(1.46909e-05 5.98429e-05 0)
(1.00669e-05 -8.12429e-05 0)
(2.0449e-05 -0.000104477 0)
(-4.21371e-06 -3.52407e-05 0)
(-9.07168e-05 9.36381e-05 0)
(-0.000257219 0.000259378 0)
(-0.000514676 0.000445424 0)
(-0.000869001 0.000639906 0)
(-0.00132215 0.00083446 0)
(-0.00187297 0.00102323 0)
(-0.00251794 0.00120213 0)
(-0.00325176 0.00136835 0)
(-0.00406783 0.00151997 0)
(-0.00495862 0.00165575 0)
(-0.00591595 0.0017749 0)
(-0.0069312 0.00187702 0)
(-0.00799554 0.00196195 0)
(-0.00909999 0.00202976 0)
(-0.0102356 0.00208066 0)
(-0.0113934 0.00211496 0)
(-0.0125648 0.00213311 0)
(-0.013741 0.00213559 0)
(-0.014914 0.00212296 0)
(-0.0160756 0.00209581 0)
(-0.017218 0.00205477 0)
(-0.0183341 0.0020005 0)
(-0.0194166 0.00193368 0)
(-0.0204589 0.00185501 0)
(-0.0214547 0.00176521 0)
(-0.0223982 0.00166498 0)
(-0.0232837 0.00155507 0)
(-0.0241062 0.00143622 0)
(-0.024861 0.00130919 0)
(-0.0255438 0.00117474 0)
(-0.0261507 0.00103364 0)
(-0.0266782 0.000886675 0)
(-0.0271234 0.00073464 0)
(-0.0274838 0.000578341 0)
(-0.0277571 0.000418599 0)
(-0.0279419 0.000256245 0)
(-0.0280368 9.21248e-05 0)
(-0.0280412 -7.29008e-05 0)
(-0.0279548 -0.000237958 0)
(-0.0277779 -0.00040216 0)
(-0.0275112 -0.000564604 0)
(-0.027156 -0.000724378 0)
(-0.0267141 -0.000880558 0)
(-0.0261876 -0.00103221 0)
(-0.0255794 -0.0011784 0)
(-0.0248927 -0.00131818 0)
(-0.0241314 -0.0014506 0)
(-0.0232996 -0.00157473 0)
(-0.0224024 -0.00168964 0)
(-0.0214448 -0.00179439 0)
(-0.0204328 -0.0018881 0)
(-0.0193727 -0.00196987 0)
(-0.0182711 -0.00203887 0)
(-0.0171352 -0.00209427 0)
(-0.0159726 -0.00213532 0)
(-0.0147913 -0.0021613 0)
(-0.0135996 -0.00217155 0)
(-0.0124061 -0.0021655 0)
(-0.0112197 -0.00214265 0)
(-0.0100494 -0.00210261 0)
(-0.00890457 -0.0020451 0)
(-0.00779439 -0.00196998 0)
(-0.00672814 -0.00187724 0)
(-0.00571497 -0.00176711 0)
(-0.00476375 -0.00164001 0)
(-0.00388299 -0.0014967 0)
(-0.00308056 -0.00133828 0)
(-0.00236355 -0.00116635 0)
(-0.00173795 -0.000983178 0)
(-0.00120829 -0.000791915 0)
(-0.000777166 -0.000596936 0)
(-0.000444712 -0.000404328 0)
(-0.000207869 -0.000222568 0)
(-5.9626e-05 -6.34551e-05 0)
(1.19718e-05 5.68162e-05 0)
(2.61403e-05 0.0001163 0)
(1.09149e-05 8.39129e-05 0)
(4.02764e-06 -8.71104e-05 0)
(-1.29824e-05 -7.9633e-05 0)
(-9.19412e-05 4.98897e-05 0)
(-0.000253958 0.000259699 0)
(-0.000514893 0.000520376 0)
(-0.000885198 0.000809857 0)
(-0.00137046 0.00111173 0)
(-0.00197228 0.001414 0)
(-0.00268911 0.00170795 0)
(-0.00351682 0.00198728 0)
(-0.00444932 0.00224751 0)
(-0.00547898 0.00248547 0)
(-0.00659706 0.00269903 0)
(-0.00779398 0.00288677 0)
(-0.00905963 0.0030479 0)
(-0.0103835 0.00318203 0)
(-0.0117549 0.00328911 0)
(-0.0131632 0.00336939 0)
(-0.0145975 0.0034233 0)
(-0.0160474 0.00345143 0)
(-0.0175026 0.00345452 0)
(-0.0189528 0.00343339 0)
(-0.0203884 0.00338897 0)
(-0.0218 0.00332222 0)
(-0.0231785 0.00323419 0)
(-0.0245153 0.00312594 0)
(-0.0258023 0.00299857 0)
(-0.0270317 0.00285322 0)
(-0.0281962 0.00269105 0)
(-0.029289 0.00251325 0)
(-0.030304 0.00232099 0)
(-0.0312352 0.00211552 0)
(-0.0320775 0.00189805 0)
(-0.032826 0.00166984 0)
(-0.0334765 0.00143216 0)
(-0.0340253 0.0011863 0)
(-0.0344694 0.00093357 0)
(-0.0348061 0.000675294 0)
(-0.0350334 0.000412824 0)
(-0.0351499 0.000147533 0)
(-0.0351547 -0.000119187 0)
(-0.0350475 -0.000385918 0)
(-0.0348287 -0.000651226 0)
(-0.0344992 -0.000913653 0)
(-0.0340605 -0.00117172 0)
(-0.0335149 -0.00142395 0)
(-0.032865 -0.00166882 0)
(-0.0321144 -0.00190483 0)
(-0.0312671 -0.00213047 0)
(-0.0303278 -0.0023442 0)
(-0.0293016 -0.00254454 0)
(-0.0281947 -0.00272998 0)
(-0.0270134 -0.00289906 0)
(-0.0257649 -0.00305033 0)
(-0.0244569 -0.00318239 0)
(-0.0230976 -0.00329392 0)
(-0.0216958 -0.00338361 0)
(-0.0202606 -0.00345026 0)
(-0.0188019 -0.00349277 0)
(-0.0173297 -0.00351013 0)
(-0.0158544 -0.00350144 0)
(-0.0143869 -0.00346598 0)
(-0.0129381 -0.00340316 0)
(-0.011519 -0.00331261 0)
(-0.0101409 -0.00319418 0)
(-0.00881482 -0.00304798 0)
(-0.00755163 -0.00287446 0)
(-0.00636188 -0.00267444 0)
(-0.00525556 -0.00244922 0)
(-0.00424192 -0.00220073 0)
(-0.0033292 -0.00193165 0)
(-0.00252433 -0.00164564 0)
(-0.00183254 -0.0013477 0)
(-0.0012569 -0.00104455 0)
(-0.000797841 -0.00074523 0)
(-0.000452481 -0.000461906 0)
(-0.000213971 -0.000210899 0)
(-7.06482e-05 -1.38347e-05 0)
(-5.23154e-06 0.000100839 0)
(5.26645e-06 9.32152e-05 0)
(-2.66243e-06 -7.38392e-05 0)
(-5.09257e-05 -7.47324e-06 0)
(-0.000191905 0.000205419 0)
(-0.000438858 0.000516434 0)
(-0.000803913 0.000890611 0)
(-0.00129608 0.00130102 0)
(-0.00191985 0.00172705 0)
(-0.00267595 0.00215321 0)
(-0.00356204 0.00256788 0)
(-0.00457324 0.00296247 0)
(-0.0057026 0.00333064 0)
(-0.00694154 0.00366786 0)
(-0.00828022 0.0039709 0)
(-0.00970787 0.00423762 0)
(-0.011213 0.00446669 0)
(-0.0127838 0.0046574 0)
(-0.0144081 0.00480956 0)
(-0.0160735 0.00492337 0)
(-0.0177679 0.00499934 0)
(-0.0194791 0.00503826 0)
(-0.0211951 0.00504107 0)
(-0.0229044 0.00500894 0)
(-0.0245955 0.00494311 0)
(-0.0262577 0.00484495 0)
(-0.0278803 0.00471593 0)
(-0.0294534 0.00455756 0)
(-0.0309675 0.00437143 0)
(-0.0324135 0.00415917 0)
(-0.0337829 0.00392244 0)
(-0.0350679 0.00366296 0)
(-0.036261 0.00338247 0)
(-0.0373556 0.00308273 0)
(-0.0383454 0.00276553 0)
(-0.0392249 0.00243271 0)
(-0.0399891 0.00208611 0)
(-0.0406337 0.00172762 0)
(-0.0411552 0.00135915 0)
(-0.0415503 0.000982634 0)
(-0.041817 0.000600047 0)
(-0.0419533 0.000213391 0)
(-0.0419584 -0.000175301 0)
(-0.0418319 -0.000563964 0)
(-0.0415743 -0.000950505 0)
(-0.0411867 -0.0013328 0)
(-0.0406708 -0.00170871 0)
(-0.0400294 -0.00207606 0)
(-0.0392655 -0.00243268 0)
(-0.0383833 -0.00277636 0)
(-0.0373874 -0.00310491 0)
(-0.0362834 -0.00341613 0)
(-0.0350775 -0.00370786 0)
(-0.0337765 -0.00397793 0)
(-0.032388 -0.00422423 0)
(-0.0309204 -0.00444468 0)
(-0.0293826 -0.00463729 0)
(-0.0277841 -0.00480013 0)
(-0.0261352 -0.00493137 0)
(-0.0244465 -0.00502931 0)
(-0.0227293 -0.00509237 0)
(-0.0209953 -0.00511914 0)
(-0.0192566 -0.0051084 0)
(-0.0175255 -0.00505916 0)
(-0.0158148 -0.00497064 0)
(-0.0141371 -0.0048424 0)
(-0.0125052 -0.00467431 0)
(-0.0109318 -0.00446665 0)
(-0.00942923 -0.00422018 0)
(-0.00800951 -0.00393623 0)
(-0.00668393 -0.0036168 0)
(-0.00546293 -0.00326476 0)
(-0.0043558 -0.00288405 0)
(-0.00337039 -0.00247994 0)
(-0.00251268 -0.00205942 0)
(-0.00178646 -0.00163167 0)
(-0.00119278 -0.00120876 0)
(-0.000729514 -0.000806426 0)
(-0.000390731 -0.00044521 0)
(-0.000165985 -0.00015159 0)
(-4.1354e-05 4.04671e-05 0)
(-1.09615e-06 8.4392e-05 0)
(-9.44457e-06 -4.01828e-05 0)
(-9.06164e-05 0.000116194 0)
(-0.000297708 0.000437613 0)
(-0.00063511 0.000871166 0)
(-0.00111035 0.00137756 0)
(-0.00173029 0.00192579 0)
(-0.00249776 0.00249157 0)
(-0.00341211 0.00305616 0)
(-0.00446987 0.00360519 0)
(-0.00566518 0.00412777 0)
(-0.00699011 0.00461571 0)
(-0.00843509 0.00506298 0)
(-0.00998925 0.00546523 0)
(-0.0116407 0.00581944 0)
(-0.0133768 0.0061237 0)
(-0.0151844 0.00637689 0)
(-0.01705 0.00657861 0)
(-0.01896 0.006729 0)
(-0.0209008 0.00682862 0)
(-0.0228589 0.00687841 0)
(-0.0248209 0.00687957 0)
(-0.0267738 0.00683357 0)
(-0.0287049 0.00674205 0)
(-0.0306019 0.00660679 0)
(-0.0324531 0.00642974 0)
(-0.0342472 0.0062129 0)
(-0.0359733 0.00595841 0)
(-0.0376214 0.00566845 0)
(-0.0391819 0.00534526 0)
(-0.0406459 0.00499117 0)
(-0.0420049 0.00460852 0)
(-0.0432515 0.00419971 0)
(-0.0443785 0.00376718 0)
(-0.0453798 0.00331341 0)
(-0.0462497 0.00284093 0)
(-0.0469834 0.0023523 0)
(-0.0475767 0.00185013 0)
(-0.0480263 0.00133705 0)
(-0.0483294 0.000815752 0)
(-0.0484843 0.000288968 0)
(-0.0484897 -0.000240534 0)
(-0.0483455 -0.000769945 0)
(-0.0480519 -0.00129642 0)
(-0.0476104 -0.00181706 0)
(-0.047023 -0.00232897 0)
(-0.0462926 -0.0028292 0)
(-0.0454229 -0.00331478 0)
(-0.0444185 -0.00378276 0)
(-0.0432847 -0.00423014 0)
(-0.0420277 -0.00465397 0)
(-0.0406545 -0.0050513 0)
(-0.039173 -0.00541923 0)
(-0.0375916 -0.00575491 0)
(-0.0359198 -0.00605556 0)
(-0.0341675 -0.00631848 0)
(-0.0323456 -0.00654111 0)
(-0.0304656 -0.006721 0)
(-0.0285394 -0.0068559 0)
(-0.0265796 -0.00694372 0)
(-0.0245995 -0.00698261 0)
(-0.0226124 -0.00697098 0)
(-0.0206323 -0.00690756 0)
(-0.0186732 -0.00679141 0)
(-0.0167494 -0.00662201 0)
(-0.0148751 -0.00639929 0)
(-0.0130642 -0.00612377 0)
(-0.0113306 -0.00579657 0)
(-0.00968747 -0.00541961 0)
(-0.00814733 -0.00499569 0)
(-0.00672175 -0.00452877 0)
(-0.00542103 -0.00402411 0)
(-0.00425398 -0.0034887 0)
(-0.00322751 -0.00293158 0)
(-0.0023463 -0.00236442 0)
(-0.00161242 -0.00180217 0)
(-0.00102499 -0.00126392 0)
(-0.000579564 -0.000773992 0)
(-0.000267604 -0.000362976 0)
(-7.94278e-05 -6.92319e-05 0)
(-7.59794e-06 5.60694e-05 0)
(-1.60584e-05 1.41202e-05 0)
(-0.000130491 0.000293199 0)
(-0.000405371 0.000749744 0)
(-0.000835952 0.00132808 0)
(-0.00142472 0.00198575 0)
(-0.00217594 0.00268848 0)
(-0.0030903 0.00340888 0)
(-0.00416541 0.00412535 0)
(-0.00539636 0.004821 0)
(-0.00677606 0.00548276 0)
(-0.00829547 0.00610062 0)
(-0.00994396 0.00666707 0)
(-0.0117096 0.00717657 0)
(-0.0135793 0.00762522 0)
(-0.0155395 0.00801044 0)
(-0.0175758 0.00833069 0)
(-0.0196735 0.00858529 0)
(-0.0218179 0.00877429 0)
(-0.023994 0.00889829 0)
(-0.0261871 0.00895838 0)
(-0.0283826 0.008956 0)
(-0.0305663 0.00889296 0)
(-0.0327242 0.00877128 0)
(-0.0348429 0.00859321 0)
(-0.0369094 0.0083612 0)
(-0.0389113 0.00807781 0)
(-0.0408368 0.00774575 0)
(-0.0426747 0.00736781 0)
(-0.0444144 0.0069469 0)
(-0.0460461 0.00648598 0)
(-0.0475605 0.00598809 0)
(-0.0489494 0.00545633 0)
(-0.0502048 0.00489387 0)
(-0.05132 0.00430391 0)
(-0.0522888 0.00368973 0)
(-0.0531058 0.00305465 0)
(-0.0537664 0.00240205 0)
(-0.0542668 0.00173536 0)
(-0.0546043 0.00105807 0)
(-0.0547766 0.000373715 0)
(-0.0547826 -0.000314107 0)
(-0.0546219 -0.00100176 0)
(-0.0542951 -0.00168554 0)
(-0.0538035 -0.00236173 0)
(-0.0531496 -0.00302654 0)
(-0.0523364 -0.00367617 0)
(-0.0513681 -0.0043068 0)
(-0.0502497 -0.00491459 0)
(-0.0489872 -0.00549569 0)
(-0.0475873 -0.00604629 0)
(-0.0460578 -0.00656261 0)
(-0.0444074 -0.00704089 0)
(-0.0426453 -0.00747748 0)
(-0.0407819 -0.00786882 0)
(-0.0388283 -0.00821146 0)
(-0.0367964 -0.00850212 0)
(-0.0346986 -0.00873769 0)
(-0.0325483 -0.00891529 0)
(-0.0303593 -0.00903231 0)
(-0.0281459 -0.00908641 0)
(-0.0259229 -0.00907563 0)
(-0.0237055 -0.00899839 0)
(-0.0215092 -0.00885358 0)
(-0.0193493 -0.00864064 0)
(-0.0172414 -0.00835959 0)
(-0.0152009 -0.00801118 0)
(-0.0132427 -0.00759699 0)
(-0.0113812 -0.00711956 0)
(-0.00963003 -0.00658259 0)
(-0.00800191 -0.00599112 0)
(-0.00650821 -0.00535186 0)
(-0.00515876 -0.0046735 0)
(-0.00396156 -0.00396711 0)
(-0.00292243 -0.00324676 0)
(-0.00204478 -0.0025301 0)
(-0.00132935 -0.00183924 0)
(-0.000773632 -0.00120172 0)
(-0.000371462 -0.000651524 0)
(-0.000117844 -0.000230292 0)
(-1.39622e-05 7.89e-06 0)
(-2.23959e-05 8.87738e-05 0)
(-0.000169706 0.000523841 0)
(-0.000512505 0.00114298 0)
(-0.00103708 0.00188908 0)
(-0.00174073 0.00271749 0)
(-0.00262487 0.00359145 0)
(-0.00368775 0.00448104 0)
(-0.0049249 0.00536223 0)
(-0.00632974 0.00621588 0)
(-0.00789374 0.00702694 0)
(-0.00960657 0.00778368 0)
(-0.0114564 0.00847715 0)
(-0.0134303 0.00910068 0)
(-0.015514 0.00964946 0)
(-0.0176928 0.0101202 0)
(-0.0199512 0.010511 0)
(-0.0222736 0.0108208 0)
(-0.0246439 0.0110496 0)
(-0.0270462 0.0111979 0)
(-0.0294646 0.0112671 0)
(-0.0318833 0.0112588 0)
(-0.0342871 0.0111752 0)
(-0.0366609 0.0110187 0)
(-0.0389902 0.0107921 0)
(-0.0412609 0.0104982 0)
(-0.0434597 0.0101404 0)
(-0.0455737 0.00972184 0)
(-0.0475908 0.00924608 0)
(-0.0494997 0.00871668 0)
(-0.0512895 0.00813734 0)
(-0.0529505 0.00751184 0)
(-0.0544733 0.00684405 0)
(-0.0558497 0.0061379 0)
(-0.0570722 0.00539742 0)
(-0.058134 0.00462669 0)
(-0.0590294 0.00382988 0)
(-0.0597534 0.00301121 0)
(-0.0603019 0.00217497 0)
(-0.0606718 0.00132552 0)
(-0.0608609 0.000467298 0)
(-0.0608677 -0.00039521 0)
(-0.060692 -0.00125745 0)
(-0.0603343 -0.0021148 0)
(-0.0597961 -0.00296261 0)
(-0.05908 -0.00379616 0)
(-0.0581895 -0.00461071 0)
(-0.0571289 -0.00540147 0)
(-0.0559038 -0.00616368 0)
(-0.0545206 -0.00689255 0)
(-0.0529866 -0.00758333 0)
(-0.0513102 -0.0082313 0)
(-0.0495008 -0.00883184 0)
(-0.0475684 -0.0093804 0)
(-0.0455244 -0.00987256 0)
(-0.0433806 -0.0103041 0)
(-0.0411498 -0.0106709 0)
(-0.0388456 -0.0109691 0)
(-0.0364824 -0.0111953 0)
(-0.034075 -0.0113462 0)
(-0.0316389 -0.0114191 0)
(-0.0291902 -0.0114114 0)
(-0.0267451 -0.0113214 0)
(-0.0243202 -0.0111477 0)
(-0.0219323 -0.0108898 0)
(-0.019598 -0.0105478 0)
(-0.0173339 -0.0101226 0)
(-0.015156 -0.0096164 0)
(-0.0130799 -0.00903234 0)
(-0.0111205 -0.00837502 0)
(-0.00929141 -0.00765064 0)
(-0.00760524 -0.00686731 0)
(-0.00607298 -0.00603538 0)
(-0.00470386 -0.00516792 0)
(-0.00350509 -0.00428118 0)
(-0.00248167 -0.00339529 0)
(-0.00163624 -0.002535 0)
(-0.000968564 -0.00173058 0)
(-0.000475108 -0.00101864 0)
(-0.000155716 -0.00044318 0)
(-2.00682e-05 -5.9921e-05 0)
(-2.8423e-05 0.000183201 0)
(-0.000207834 0.000807497 0)
(-0.000617749 0.00161712 0)
(-0.00123587 0.00255446 0)
(-0.0020544 0.00357346 0)
(-0.00307174 0.00463559 0)
(-0.00428353 0.00570889 0)
(-0.00568303 0.00676734 0)
(-0.00726176 0.00778985 0)
(-0.00900956 0.00875962 0)
(-0.0109147 0.00966336 0)
(-0.0129641 0.0104908 0)
(-0.0151434 0.0112342 0)
(-0.0174375 0.0118878 0)
(-0.0198305 0.0124477 0)
(-0.0223059 0.0129115 0)
(-0.0248468 0.013278 0)
(-0.0274363 0.013547 0)
(-0.0300573 0.013719 0)
(-0.032693 0.0137956 0)
(-0.0353266 0.0137786 0)
(-0.0379416 0.0136706 0)
(-0.0405222 0.0134744 0)
(-0.0430528 0.0131932 0)
(-0.0455184 0.0128307 0)
(-0.0479048 0.0123906 0)
(-0.0501983 0.011877 0)
(-0.0523858 0.0112938 0)
(-0.0544553 0.0106456 0)
(-0.0563953 0.00993678 0)
(-0.0581951 0.00917188 0)
(-0.059845 0.00835562 0)
(-0.061336 0.00749278 0)
(-0.0626602 0.00658825 0)
(-0.0638102 0.00564698 0)
(-0.06478 0.00467405 0)
(-0.0655642 0.00367457 0)
(-0.0661585 0.00265379 0)
(-0.0665594 0.001617 0)
(-0.0667646 0.000569585 0)
(-0.0667727 -0.00048299 0)
(-0.0665833 -0.00153519 0)
(-0.0661969 -0.00258141 0)
(-0.0656153 -0.00361599 0)
(-0.064841 -0.0046332 0)
(-0.0638779 -0.00562729 0)
(-0.0627307 -0.00659247 0)
(-0.0614052 -0.00752295 0)
(-0.0599082 -0.00841293 0)
(-0.0582477 -0.00925666 0)
(-0.0564325 -0.0100484 0)
(-0.0544726 -0.0107827 0)
(-0.052379 -0.0114539 0)
(-0.0501634 -0.0120567 0)
(-0.0478387 -0.0125861 0)
(-0.0454185 -0.0130371 0)
(-0.0429173 -0.0134051 0)
(-0.0403504 -0.013686 0)
(-0.0377336 -0.0138758 0)
(-0.0350836 -0.0139713 0)
(-0.0324173 -0.0139695 0)
(-0.0297521 -0.0138684 0)
(-0.0271058 -0.0136664 0)
(-0.0244961 -0.0133629 0)
(-0.0219409 -0.0129581 0)
(-0.0194578 -0.0124533 0)
(-0.017064 -0.011851 0)
(-0.0147763 -0.0111551 0)
(-0.0126106 -0.0103711 0)
(-0.0105818 -0.00950639 0)
(-0.00870371 -0.00857031 0)
(-0.00698854 -0.00757489 0)
(-0.00544697 -0.00653499 0)
(-0.00408776 -0.00546893 0)
(-0.00291772 -0.00439902 0)
(-0.00194164 -0.00335226 0)
(-0.0011617 -0.00236115 0)
(-0.000577142 -0.00146434 0)
(-0.000192595 -0.000707422 0)
(-2.58756e-05 -0.000146842 0)
(-3.41415e-05 0.000296711 0)
(-0.000244694 0.00114304 0)
(-0.000720395 0.00217113 0)
(-0.00143084 0.00332347 0)
(-0.0023633 0.00455326 0)
(-0.00351318 0.00582069 0)
(-0.0048734 0.00709231 0)
(-0.00643481 0.00834045 0)
(-0.00818688 0.00954243 0)
(-0.0101177 0.0106799 0)
(-0.0122139 0.0117382 0)
(-0.0144611 0.0127059 0)
(-0.0168436 0.0135742 0)
(-0.0193452 0.0143366 0)
(-0.0219488 0.0149886 0)
(-0.0246368 0.0155273 0)
(-0.0273914 0.0159513 0)
(-0.0301946 0.0162602 0)
(-0.0330284 0.0164547 0)
(-0.0358748 0.0165364 0)
(-0.0387162 0.0165075 0)
(-0.0415352 0.0163709 0)
(-0.0443151 0.0161299 0)
(-0.0470393 0.0157883 0)
(-0.0496921 0.0153503 0)
(-0.0522584 0.0148203 0)
(-0.0547237 0.0142029 0)
(-0.0570743 0.0135032 0)
(-0.0592973 0.0127262 0)
(-0.0613806 0.0118771 0)
(-0.063313 0.0109616 0)
(-0.0650841 0.00998498 0)
(-0.0666844 0.00895307 0)
(-0.0681055 0.00787163 0)
(-0.0693397 0.00674656 0)
(-0.0703806 0.00558387 0)
(-0.0712224 0.00438967 0)
(-0.0718605 0.00317018 0)
(-0.0722915 0.00193169 0)
(-0.0725126 0.000680621 0)
(-0.0725225 -0.000576551 0)
(-0.0723207 -0.00183324 0)
(-0.0719078 -0.0030828 0)
(-0.0712855 -0.00431848 0)
(-0.0704567 -0.00553351 0)
(-0.0694253 -0.00672105 0)
(-0.0681963 -0.00787424 0)
(-0.0667759 -0.0089862 0)
(-0.0651713 -0.0100501 0)
(-0.0633908 -0.011059 0)
(-0.0614438 -0.0120064 0)
(-0.0593408 -0.0128854 0)
(-0.0570934 -0.0136897 0)
(-0.0547141 -0.0144129 0)
(-0.0522163 -0.015049 0)
(-0.0496145 -0.0155923 0)
(-0.0469241 -0.0160373 0)
(-0.0441611 -0.016379 0)
(-0.0413423 -0.0166131 0)
(-0.0384853 -0.0167355 0)
(-0.035608 -0.0167429 0)
(-0.0327288 -0.0166329 0)
(-0.0298665 -0.0164038 0)
(-0.02704 -0.0160547 0)
(-0.0242681 -0.0155861 0)
(-0.0215696 -0.0149995 0)
(-0.0189628 -0.0142979 0)
(-0.0164657 -0.0134858 0)
(-0.0140952 -0.0125695 0)
(-0.0118677 -0.0115576 0)
(-0.00979812 -0.0104606 0)
(-0.0079002 -0.00929212 0)
(-0.00618611 -0.00806868 0)
(-0.00466634 -0.0068104 0)
(-0.00334968 -0.00554151 0)
(-0.00224317 -0.00429094 0)
(-0.00135155 -0.00309298 0)
(-0.000676845 -0.00198781 0)
(-0.000228292 -0.00102203 0)
(-3.13849e-05 -0.000252226 0)
(-3.95722e-05 0.000428588 0)
(-0.00028025 0.00152911 0)
(-0.000820154 0.00280349 0)
(-0.00162127 0.00419473 0)
(-0.00266617 0.00565571 0)
(-0.00394732 0.00714582 0)
(-0.00545487 0.00863049 0)
(-0.00717722 0.0100808 0)
(-0.00910166 0.0114727 0)
(-0.0112144 0.0127867 0)
(-0.0135004 0.0140068 0)
(-0.0159438 0.0151206 0)
(-0.0185276 0.0161184 0)
(-0.0212342 0.016993 0)
(-0.0240454 0.0177393 0)
(-0.0269426 0.0183542 0)
(-0.029907 0.0188359 0)
(-0.0329194 0.0191839 0)
(-0.0359609 0.0193992 0)
(-0.0390127 0.0194834 0)
(-0.0420563 0.0194391 0)
(-0.0450734 0.0192695 0)
(-0.0480463 0.0189785 0)
(-0.0509578 0.0185703 0)
(-0.0537915 0.0180499 0)
(-0.0565313 0.0174223 0)
(-0.0591621 0.0166929 0)
(-0.0616695 0.0158675 0)
(-0.0640401 0.014952 0)
(-0.0662611 0.0139525 0)
(-0.0683207 0.0128754 0)
(-0.0702081 0.0117271 0)
(-0.0719134 0.0105142 0)
(-0.0734275 0.00924361 0)
(-0.0747427 0.00792209 0)
(-0.0758519 0.00655669 0)
(-0.0767492 0.00515454 0)
(-0.0774299 0.00372289 0)
(-0.07789 0.00226909 0)
(-0.0781271 0.000800624 0)
(-0.0781394 -0.000674942 0)
(-0.0779265 -0.00214993 0)
(-0.077489 -0.00361658 0)
(-0.0768287 -0.00506703 0)
(-0.0759486 -0.00649339 0)
(-0.0748528 -0.00788767 0)
(-0.0735465 -0.00924188 0)
(-0.072036 -0.010548 0)
(-0.070329 -0.0117981 0)
(-0.0684342 -0.0129842 0)
(-0.0663614 -0.0140984 0)
(-0.0641216 -0.0151331 0)
(-0.0617269 -0.0160807 0)
(-0.0591903 -0.0169339 0)
(-0.0565261 -0.0176856 0)
(-0.0537493 -0.0183293 0)
(-0.0508761 -0.0188586 0)
(-0.0479232 -0.0192678 0)
(-0.0449084 -0.0195516 0)
(-0.04185 -0.0197057 0)
(-0.0387669 -0.0197261 0)
(-0.0356785 -0.0196099 0)
(-0.0326045 -0.0193553 0)
(-0.0295648 -0.0189614 0)
(-0.0265794 -0.0184285 0)
(-0.0236681 -0.0177586 0)
(-0.0208504 -0.016955 0)
(-0.0181454 -0.0160228 0)
(-0.0155714 -0.0149691 0)
(-0.0131459 -0.0138035 0)
(-0.0108853 -0.0125378 0)
(-0.00880491 -0.0111869 0)
(-0.00691854 -0.00976882 0)
(-0.00523855 -0.00830533 0)
(-0.00377577 -0.00682231 0)
(-0.00253963 -0.00535029 0)
(-0.00153744 -0.003925 0)
(-0.000773941 -0.00258776 0)
(-0.000262775 -0.00138577 0)
(-3.66166e-05 -0.000375397 0)
(-4.47452e-05 0.000578141 0)
(-0.000314555 0.00196426 0)
(-0.000917005 0.00351246 0)
(-0.00180694 0.00516649 0)
(-0.00296249 0.00687921 0)
(-0.00437326 0.00860955 0)
(-0.00602671 0.0103222 0)
(-0.00790868 0.0119872 0)
(-0.0100043 0.0135796 0)
(-0.0122977 0.0150787 0)
(-0.0147722 0.0164676 0)
(-0.0174102 0.0177331 0)
(-0.0201935 0.0188646 0)
(-0.023103 0.0198545 0)
(-0.0261195 0.0206971 0)
(-0.0292231 0.0213889 0)
(-0.0323939 0.021928 0)
(-0.0356119 0.0223141 0)
(-0.0388572 0.0225481 0)
(-0.0421102 0.0226318 0)
(-0.0453513 0.0225682 0)
(-0.0485615 0.0223609 0)
(-0.0517224 0.0220144 0)
(-0.0548161 0.0215335 0)
(-0.0578252 0.0209237 0)
(-0.0607332 0.0201909 0)
(-0.0635243 0.0193412 0)
(-0.0661835 0.0183812 0)
(-0.0686967 0.0173177 0)
(-0.0710507 0.0161578 0)
(-0.0732332 0.0149086 0)
(-0.0752329 0.0135777 0)
(-0.0770394 0.0121725 0)
(-0.0786435 0.010701 0)
(-0.0800368 0.0091709 0)
(-0.0812122 0.00759041 0)
(-0.0821635 0.00596768 0)
(-0.0828856 0.00431103 0)
(-0.0833747 0.00262893 0)
(-0.0836277 0.000929967 0)
(-0.0836432 -0.000777159 0)
(-0.0834205 -0.00248363 0)
(-0.0829604 -0.00418052 0)
(-0.0822646 -0.00585883 0)
(-0.0813362 -0.00750945 0)
(-0.0801794 -0.00912325 0)
(-0.0787995 -0.010691 0)
(-0.0772034 -0.0122036 0)
(-0.0753987 -0.0136519 0)
(-0.0733946 -0.0150266 0)
(-0.0712012 -0.016319 0)
(-0.06883 -0.01752 0)
(-0.0662934 -0.018621 0)
(-0.0636052 -0.0196137 0)
(-0.06078 -0.02049 0)
(-0.0578337 -0.0212423 0)
(-0.0547829 -0.0218634 0)
(-0.0516452 -0.0223468 0)
(-0.0484391 -0.0226864 0)
(-0.0451838 -0.022877 0)
(-0.041899 -0.0229145 0)
(-0.038605 -0.0227954 0)
(-0.0353226 -0.0225175 0)
(-0.0320726 -0.0220798 0)
(-0.028876 -0.0214829 0)
(-0.0257538 -0.0207285 0)
(-0.0227267 -0.0198207 0)
(-0.0198148 -0.0187649 0)
(-0.017038 -0.0175691 0)
(-0.014415 -0.0162437 0)
(-0.0119638 -0.0148016 0)
(-0.00970133 -0.0132589 0)
(-0.0076431 -0.011635 0)
(-0.00580343 -0.00995314 0)
(-0.00419535 -0.00824057 0)
(-0.00283065 -0.00652917 0)
(-0.00171922 -0.00485585 0)
(-0.000868445 -0.00326272 0)
(-0.000296106 -0.00179736 0)
(-4.16013e-05 -0.000515706 0)
(-4.96934e-05 0.000744729 0)
(-0.000347711 0.00244709 0)
(-0.00101109 0.00429627 0)
(-0.00198796 0.00623686 0)
(-0.00325227 0.00822194 0)
(-0.00479088 0.0102102 0)
(-0.00658856 0.0121659 0)
(-0.00862867 0.0140583 0)
(-0.010894 0.0158617 0)
(-0.0133668 0.0175546 0)
(-0.0160284 0.0191193 0)
(-0.0188597 0.0205419 0)
(-0.0218409 0.0218112 0)
(-0.0249516 0.022919 0)
(-0.0281712 0.0238594 0)
(-0.0314789 0.0246286 0)
(-0.0348535 0.0252247 0)
(-0.0382742 0.0256473 0)
(-0.0417201 0.0258975 0)
(-0.0451707 0.0259775 0)
(-0.0486055 0.0258905 0)
(-0.052005 0.0256407 0)
(-0.0553497 0.0252331 0)
(-0.0586212 0.0246731 0)
(-0.0618015 0.023967 0)
(-0.0648733 0.0231214 0)
(-0.0678203 0.0221432 0)
(-0.070627 0.0210399 0)
(-0.0732788 0.0198192 0)
(-0.0757619 0.018489 0)
(-0.0780636 0.0170576 0)
(-0.0801723 0.0155333 0)
(-0.0820772 0.0139249 0)
(-0.0837686 0.0122411 0)
(-0.0852381 0.0104909 0)
(-0.086478 0.00868339 0)
(-0.087482 0.00682796 0)
(-0.0882449 0.00493403 0)
(-0.0887626 0.00301119 0)
(-0.089032 0.00106917 0)
(-0.0890515 -0.000882133 0)
(-0.0888205 -0.00283273 0)
(-0.0883395 -0.00477251 0)
(-0.0876105 -0.00669125 0)