/*--------------------------------*- C++ -*----------------------------------*\
| =========                 |                                                 |
| \\      /  F ield         | OpenFOAM: The Open Source CFD Toolbox           |
|  \\    /   O peration     | Version:  2506                                  |
|   \\  /    A nd           | Website:  www.openfoam.com                      |
|    \\/     M anipulation  |                                                 |
\*---------------------------------------------------------------------------*/
FoamFile
{
    version     2.0;
    format      ascii;
    arch        "LSB;label=32;scalar=64";
    class       volScalarField;
    location    "0.675";
    object      Ux;
}
// * * * * * * * * * * * * * * * * * * * * * * * * * * * * * * * * * * * * * //

dimensions      [0 1 -1 0 0 0 0];

internalField   nonuniform List<scalar> 
6400
(
7.25546e-06
2.98285e-05
5.93444e-05
8.06751e-05
8.55354e-05
7.06742e-05
3.49644e-05
-2.15621e-05
-9.81515e-05
-0.000193617
-0.000306512
-0.000435238
-0.000578113
-0.000733418
-0.000899423
-0.00107441
-0.00125669
-0.00144462
-0.00163658
-0.00183102
-0.00202645
-0.00222144
-0.00241459
-0.00260461
-0.00279025
-0.00297033
-0.00314373
-0.00330941
-0.00346639
-0.00361375
-0.00375065
-0.00387632
-0.00399004
-0.00409118
-0.00417917
-0.00425351
-0.00431377
-0.00435961
-0.00439073
-0.00440694
-0.0044081
-0.00439417
-0.00436518
-0.00432123
-0.00426251
-0.00418931
-0.00410198
-0.00400097
-0.00388682
-0.00376013
-0.00362163
-0.0034721
-0.00331243
-0.00314358
-0.00296662
-0.00278268
-0.00259297
-0.0023988
-0.00220152
-0.00200258
-0.00180349
-0.0016058
-0.00141113
-0.00122114
-0.00103752
-0.000862003
-0.00069631
-0.000542176
-0.00040131
-0.000275378
-0.000165965
-7.4533e-05
-2.35106e-06
4.96104e-05
8.08566e-05
9.16526e-05
8.3446e-05
5.98057e-05
2.92503e-05
6.87583e-06
1.44672e-05
5.15941e-05
8.98982e-05
0.000103659
7.71575e-05
2.5284e-06
-0.000123932
-0.000303142
-0.000534058
-0.000814314
-0.00114067
-0.00150932
-0.00191606
-0.00235651
-0.00282614
-0.00332038
-0.00383469
-0.00436458
-0.00490566
-0.00545364
-0.00600438
-0.00655386
-0.00709824
-0.00763383
-0.00815714
-0.00866482
-0.00915373
-0.0096209
-0.0100636
-0.0104791
-0.0108651
-0.0112195
-0.0115401
-0.0118252
-0.0120731
-0.0122825
-0.0124521
-0.0125809
-0.0126682
-0.0127134
-0.0127162
-0.0126763
-0.012594
-0.0124694
-0.0123033
-0.0120964
-0.0118497
-0.0115646
-0.0112425
-0.0108852
-0.0104947
-0.0100733
-0.00962346
-0.00914796
-0.00864975
-0.00813203
-0.00759822
-0.00705193
-0.00649701
-0.00593744
-0.00537741
-0.00482123
-0.00427336
-0.00373834
-0.00322078
-0.00272535
-0.00225668
-0.00181936
-0.00141785
-0.00105639
-0.000738941
-0.000468953
-0.000249225
-8.15882e-05
3.35295e-05
9.77185e-05
0.000115367
9.49512e-05
5.26596e-05
1.43608e-05
1.43049e-05
4.46188e-05
6.13611e-05
3.57187e-05
-5.06831e-05
-0.000208074
-0.000441793
-0.000753551
-0.00114232
-0.00160507
-0.00213741
-0.00273394
-0.0033886
-0.00409487
-0.00484599
-0.00563505
-0.0064551
-0.00729924
-0.00816065
-0.00903267
-0.0099088
-0.0107828
-0.0116485
-0.0125002
-0.0133323
-0.0141395
-0.0149168
-0.0156596
-0.0163634
-0.017024
-0.0176377
-0.0182009
-0.0187104
-0.0191634
-0.0195573
-0.0198898
-0.020159
-0.0203633
-0.0205016
-0.0205729
-0.0205766
-0.0205127
-0.0203812
-0.0201826
-0.019918
-0.0195886
-0.0191961
-0.0187425
-0.0182302
-0.0176622
-0.0170415
-0.0163719
-0.0156572
-0.0149019
-0.0141105
-0.0132883
-0.0124405
-0.011573
-0.0106916
-0.00980274
-0.00891292
-0.00802887
-0.00715753
-0.00630595
-0.00548125
-0.00469058
-0.00394102
-0.00323951
-0.00259272
-0.00200693
-0.00148784
-0.00104034
-0.000668202
-0.000373683
-0.000156956
-1.53943e-05
5.72536e-05
7.20237e-05
4.80232e-05
1.46909e-05
1.00669e-05
2.0449e-05
-4.21371e-06
-9.07168e-05
-0.000257219
-0.000514676
-0.000869001
-0.00132215
-0.00187297
-0.00251794
-0.00325176
-0.00406783
-0.00495862
-0.00591595
-0.0069312
-0.00799554
-0.00909999
-0.0102356
-0.0113934
-0.0125648
-0.013741
-0.014914
-0.0160756
-0.017218
-0.0183341
-0.0194166
-0.0204589
-0.0214547
-0.0223982
-0.0232837
-0.0241062
-0.024861
-0.0255438
-0.0261507
-0.0266782
-0.0271234
-0.0274838
-0.0277571
-0.0279419
-0.0280368
-0.0280412
-0.0279548
-0.0277779
-0.0275112
-0.027156
-0.0267141
-0.0261876
-0.0255794
-0.0248927
-0.0241314
-0.0232996
-0.0224024
-0.0214448
-0.0204328
-0.0193727
-0.0182711
-0.0171352
-0.0159726
-0.0147913
-0.0135996
-0.0124061
-0.0112197
-0.0100494
-0.00890457
-0.00779439
-0.00672814
-0.00571497
-0.00476375
-0.00388299
-0.00308056
-0.00236355
-0.00173795
-0.00120829
-0.000777166
-0.000444712
-0.000207869
-5.9626e-05
1.19718e-05
2.61403e-05
1.09149e-05
4.02764e-06
-1.29824e-05
-9.19412e-05
-0.000253958
-0.000514893
-0.000885198
-0.00137046
-0.00197228
-0.00268911
-0.00351682
-0.00444932
-0.00547898
-0.00659706
-0.00779398
-0.00905963
-0.0103835
-0.0117549
-0.0131632
-0.0145975
-0.0160474
-0.0175026
-0.0189528
-0.0203884
-0.0218
-0.0231785
-0.0245153
-0.0258023
-0.0270317
-0.0281962
-0.029289
-0.030304
-0.0312352
-0.0320775
-0.032826
-0.0334765
-0.0340253
-0.0344694
-0.0348061
-0.0350334
-0.0351499
-0.0351547
-0.0350475
-0.0348287
-0.0344992
-0.0340605
-0.0335149
-0.032865
-0.0321144
-0.0312671
-0.0303278
-0.0293016
-0.0281947
-0.0270134
-0.0257649
-0.0244569
-0.0230976
-0.0216958
-0.0202606
-0.0188019
-0.0173297
-0.0158544
-0.0143869
-0.0129381
-0.011519
-0.0101409
-0.00881482
-0.00755163
-0.00636188
-0.00525556
-0.00424192
-0.0033292
-0.00252433
-0.00183254
-0.0012569
-0.000797841
-0.000452481
-0.000213971
-7.06482e-05
-5.23154e-06
5.26645e-06
-2.66243e-06
-5.09257e-05
-0.000191905
-0.000438858
-0.000803913
-0.00129608
-0.00191985
-0.00267595
-0.00356204
-0.00457324
-0.0057026
-0.00694154
-0.00828022
-0.00970787
-0.011213
-0.0127838
-0.0144081
-0.0160735
-0.0177679
-0.0194791
-0.0211951
-0.0229044
-0.0245955
-0.0262577
-0.0278803
-0.0294534
-0.0309675
-0.0324135
-0.0337829
-0.0350679
-0.036261
-0.0373556
-0.0383454
-0.0392249
-0.0399891
-0.0406337
-0.0411552
-0.0415503
-0.041817
-0.0419533
-0.0419584
-0.0418319
-0.0415743
-0.0411867
-0.0406708
-0.0400294
-0.0392655
-0.0383833
-0.0373874
-0.0362834
-0.0350775
-0.0337765
-0.032388
-0.0309204
-0.0293826
-0.0277841
-0.0261352
-0.0244465
-0.0227293
-0.0209953
-0.0192566
-0.0175255
-0.0158148
-0.0141371
-0.0125052
-0.0109318
-0.00942923
-0.00800951
-0.00668393
-0.00546293
-0.0043558
-0.00337039
-0.00251268
-0.00178646
-0.00119278
-0.000729514
-0.000390731
-0.000165985
-4.1354e-05
-1.09615e-06
-9.44457e-06
-9.06164e-05
-0.000297708
-0.00063511
-0.00111035
-0.00173029
-0.00249776
-0.00341211
-0.00446987
-0.00566518
-0.00699011
-0.00843509
-0.00998925
-0.0116407
-0.0133768
-0.0151844
-0.01705
-0.01896
-0.0209008
-0.0228589
-0.0248209
-0.0267738
-0.0287049
-0.0306019
-0.0324531
-0.0342472
-0.0359733
-0.0376214
-0.0391819
-0.0406459
-0.0420049
-0.0432515
-0.0443785
-0.0453798
-0.0462497
-0.0469834
-0.0475767
-0.0480263
-0.0483294
-0.0484843
-0.0484897
-0.0483455
-0.0480519
-0.0476104
-0.047023
-0.0462926
-0.0454229
-0.0444185
-0.0432847
-0.0420277
-0.0406545
-0.039173
-0.0375916
-0.0359198
-0.0341675
-0.0323456
-0.0304656
-0.0285394
-0.0265796
-0.0245995
-0.0226124
-0.0206323
-0.0186732
-0.0167494
-0.0148751
-0.0130642
-0.0113306
-0.00968747
-0.00814733
-0.00672175
-0.00542103
-0.00425398
-0.00322751
-0.0023463
-0.00161242
-0.00102499
-0.000579564
-0.000267604
-7.94278e-05
-7.59794e-06
-1.60584e-05
-0.000130491
-0.000405371
-0.000835952
-0.00142472
-0.00217594
-0.0030903
-0.00416541
-0.00539636
-0.00677606
-0.00829547
-0.00994396
-0.0117096
-0.0135793
-0.0155395
-0.0175758
-0.0196735
-0.0218179
-0.023994
-0.0261871
-0.0283826
-0.0305663
-0.0327242
-0.0348429
-0.0369094
-0.0389113
-0.0408368
-0.0426747
-0.0444144
-0.0460461
-0.0475605
-0.0489494
-0.0502048
-0.05132
-0.0522888
-0.0531058
-0.0537664
-0.0542668
-0.0546043
-0.0547766
-0.0547826
-0.0546219
-0.0542951
-0.0538035
-0.0531496
-0.0523364
-0.0513681
-0.0502497
-0.0489872
-0.0475873
-0.0460578
-0.0444074
-0.0426453
-0.0407819
-0.0388283
-0.0367964
-0.0346986
-0.0325483
-0.0303593
-0.0281459
-0.0259229
-0.0237055
-0.0215092
-0.0193493
-0.0172414
-0.0152009
-0.0132427
-0.0113812
-0.00963003
-0.00800191
-0.00650821
-0.00515876
-0.00396156
-0.00292243
-0.00204478
-0.00132935
-0.000773632
-0.000371462
-0.000117844
-1.39622e-05
-2.23959e-05
-0.000169706
-0.000512505
-0.00103708
-0.00174073
-0.00262487
-0.00368775
-0.0049249
-0.00632974
-0.00789374
-0.00960657
-0.0114564
-0.0134303
-0.015514
-0.0176928
-0.0199512
-0.0222736
-0.0246439
-0.0270462
-0.0294646
-0.0318833
-0.0342871
-0.0366609
-0.0389902
-0.0412609
-0.0434597
-0.0455737
-0.0475908
-0.0494997
-0.0512895
-0.0529505
-0.0544733
-0.0558497
-0.0570722
-0.058134
-0.0590294
-0.0597534
-0.0603019
-0.0606718
-0.0608609
-0.0608677
-0.060692
-0.0603343
-0.0597961
-0.05908
-0.0581895
-0.0571289
-0.0559038
-0.0545206
-0.0529866
-0.0513102
-0.0495008
-0.0475684
-0.0455244
-0.0433806
-0.0411498
-0.0388456
-0.0364824
-0.034075
-0.0316389
-0.0291902
-0.0267451
-0.0243202
-0.0219323
-0.019598
-0.0173339
-0.015156
-0.0130799
-0.0111205
-0.00929141
-0.00760524
-0.00607298
-0.00470386
-0.00350509
-0.00248167
-0.00163624
-0.000968564
-0.000475108
-0.000155716
-2.00682e-05
-2.8423e-05
-0.000207834
-0.000617749
-0.00123587
-0.0020544
-0.00307174
-0.00428353
-0.00568303
-0.00726176
-0.00900956
-0.0109147
-0.0129641
-0.0151434
-0.0174375
-0.0198305
-0.0223059
-0.0248468
-0.0274363
-0.0300573
-0.032693
-0.0353266
-0.0379416
-0.0405222
-0.0430528
-0.0455184
-0.0479048
-0.0501983
-0.0523858
-0.0544553
-0.0563953
-0.0581951
-0.059845
-0.061336
-0.0626602
-0.0638102
-0.06478
-0.0655642
-0.0661585
-0.0665594
-0.0667646
-0.0667727
-0.0665833
-0.0661969
-0.0656153
-0.064841
-0.0638779
-0.0627307
-0.0614052
-0.0599082
-0.0582477
-0.0564325
-0.0544726
-0.052379
-0.0501634
-0.0478387
-0.0454185
-0.0429173
-0.0403504
-0.0377336
-0.0350836
-0.0324173
-0.0297521
-0.0271058
-0.0244961
-0.0219409
-0.0194578
-0.017064
-0.0147763
-0.0126106
-0.0105818
-0.00870371
-0.00698854
-0.00544697
-0.00408776
-0.00291772
-0.00194164
-0.0011617
-0.000577142
-0.000192595
-2.58756e-05
-3.41415e-05
-0.000244694
-0.000720395
-0.00143084
-0.0023633
-0.00351318
-0.0048734
-0.00643481
-0.00818688
-0.0101177
-0.0122139
-0.0144611
-0.0168436
-0.0193452
-0.0219488
-0.0246368
-0.0273914
-0.0301946
-0.0330284
-0.0358748
-0.0387162
-0.0415352
-0.0443151
-0.0470393
-0.0496921
-0.0522584
-0.0547237
-0.0570743
-0.0592973
-0.0613806
-0.063313
-0.0650841
-0.0666844
-0.0681055
-0.0693397
-0.0703806
-0.0712224
-0.0718605
-0.0722915
-0.0725126
-0.0725225
-0.0723207
-0.0719078
-0.0712855
-0.0704567
-0.0694253
-0.0681963
-0.0667759
-0.0651713
-0.0633908
-0.0614438
-0.0593408
-0.0570934
-0.0547141
-0.0522163
-0.0496145
-0.0469241
-0.0441611
-0.0413423
-0.0384853
-0.035608
-0.0327288
-0.0298665
-0.02704
-0.0242681
-0.0215696
-0.0189628
-0.0164657
-0.0140952
-0.0118677
-0.00979812
-0.0079002
-0.00618611
-0.00466634
-0.00334968
-0.00224317
-0.00135155
-0.000676845
-0.000228292
-3.13849e-05
-3.95722e-05
-0.00028025
-0.000820154
-0.00162127
-0.00266617
-0.00394732
-0.00545487
-0.00717722
-0.00910166
-0.0112144
-0.0135004
-0.0159438
-0.0185276
-0.0212342
-0.0240454
-0.0269426
-0.029907
-0.0329194
-0.0359609
-0.0390127
-0.0420563
-0.0450734
-0.0480463
-0.0509578
-0.0537915
-0.0565313
-0.0591621
-0.0616695
-0.0640401
-0.0662611
-0.0683207
-0.0702081
-0.0719134
-0.0734275
-0.0747427
-0.0758519
-0.0767492
-0.0774299
-0.07789
-0.0781271
-0.0781394
-0.0779265
-0.077489
-0.0768287
-0.0759486
-0.0748528
-0.0735465
-0.072036
-0.070329
-0.0684342
-0.0663614
-0.0641216
-0.0617269
-0.0591903
-0.0565261
-0.0537493
-0.0508761
-0.0479232
-0.0449084
-0.04185
-0.0387669
-0.0356785
-0.0326045
-0.0295648
-0.0265794
-0.0236681
-0.0208504
-0.0181454
-0.0155714
-0.0131459
-0.0108853
-0.00880491
-0.00691854
-0.00523855
-0.00377577
-0.00253963
-0.00153744
-0.000773941
-0.000262775
-3.66166e-05
-4.47452e-05
-0.000314555
-0.000917005
-0.00180694
-0.00296249
-0.00437326
-0.00602671
-0.00790868
-0.0100043
-0.0122977
-0.0147722
-0.0174102
-0.0201935
-0.023103
-0.0261195
-0.0292231
-0.0323939
-0.0356119
-0.0388572
-0.0421102
-0.0453513
-0.0485615
-0.0517224
-0.0548161
-0.0578252
-0.0607332
-0.0635243
-0.0661835
-0.0686967
-0.0710507
-0.0732332
-0.0752329
-0.0770394
-0.0786435
-0.0800368
-0.0812122
-0.0821635
-0.0828856
-0.0833747
-0.0836277
-0.0836432
-0.0834205
-0.0829604
-0.0822646
-0.0813362
-0.0801794
-0.0787995
-0.0772034
-0.0753987
-0.0733946
-0.0712012
-0.06883
-0.0662934
-0.0636052
-0.06078
-0.0578337
-0.0547829
-0.0516452
-0.0484391
-0.0451838
-0.041899
-0.038605
-0.0353226
-0.0320726
-0.028876
-0.0257538
-0.0227267
-0.0198148
-0.017038
-0.014415
-0.0119638
-0.00970133
-0.0076431
-0.00580343
-0.00419535
-0.00283065
-0.00171922
-0.000868445
-0.000296106
-4.16013e-05
-4.96934e-05
-0.000347711
-0.00101109
-0.00198796
-0.00325227
-0.00479088
-0.00658856
-0.00862867
-0.010894
-0.0133668
-0.0160284
-0.0188597
-0.0218409
-0.0249516
-0.0281712
-0.0314789
-0.0348535
-0.0382742
-0.0417201
-0.0451707
-0.0486055
-0.052005
-0.0553497
-0.0586212
-0.0618015
-0.0648733
-0.0678203
-0.070627
-0.0732788
-0.0757619
-0.0780636
-0.0801723
-0.0820772
-0.0837686
-0.0852381
-0.086478
-0.087482
-0.0882449
-0.0887626
-0.089032
-0.0890515
-0.0888205
-0.0883395
-0.0876105
-0.0866365
-0.0854218
-0.0839721
-0.0822941
-0.0803959
-0.0782869
-0.0759774
-0.0734794
-0.0708058
-0.0679706
-0.0649892
-0.0618778
-0.0586537
-0.0553354
-0.0519419
-0.0484932
-0.0450099
-0.0415131
-0.0380246
-0.0345663
-0.0311601
-0.0278283
-0.0245926
-0.0214746
-0.0184954
-0.0156752
-0.0130337
-0.0105894
-0.00835974
-0.00636104
-0.00460852
-0.00311641
-0.00189711
-0.000960551
-0.000328403
-4.63736e-05
-5.44491e-05
-0.000379845
-0.00110265
-0.00216466
-0.00353586
-0.0052005
-0.00714074
-0.00933743
-0.0117711
-0.0144219
-0.0172694
-0.0202926
-0.0234703
-0.0267806
-0.0302017
-0.0337115
-0.0372879
-0.0409089
-0.0445527
-0.048198
-0.0518235
-0.0554089
-0.0589341
-0.0623799
-0.0657277
-0.0689597
-0.0720591
-0.0750098
-0.0777967
-0.0804058
-0.0828238
-0.0850388
-0.0870396
-0.0888164
-0.0903602
-0.0916634
-0.0927193
-0.0935226
-0.0940689
-0.0943552
-0.0943797
-0.0941416
-0.0936417
-0.0928816
-0.0918647
-0.0905952
-0.0890788
-0.0873225
-0.0853345
-0.0831244
-0.0807029
-0.0780823
-0.0752756
-0.0722976
-0.0691638
-0.0658911
-0.0624975
-0.0590019
-0.055424
-0.0517847
-0.0481053
-0.0444079
-0.040715
-0.0370496
-0.033435
-0.0298941
-0.0264504
-0.0231265
-0.019945
-0.0169278
-0.014096
-0.01147
-0.00906927
-0.00691208
-0.00501595
-0.00339749
-0.00207158
-0.00105057
-0.000359819
-5.09693e-05
-5.90428e-05
-0.000411093
-0.00119198
-0.0023375
-0.00381385
-0.0056028
-0.00768396
-0.0100357
-0.0126364
-0.0154639
-0.018496
-0.02171
-0.0250829
-0.0285915
-0.0322126
-0.035923
-0.0396993
-0.0435187
-0.0473583
-0.0511959
-0.0550096
-0.0587782
-0.0624811
-0.0660982
-0.0696106
-0.0729998
-0.0762486
-0.0793404
-0.0822597
-0.084992
-0.0875239
-0.0898429
-0.0919378
-0.0937982
-0.0954152
-0.0967807
-0.097888
-0.0987315
-0.0993067
-0.0996105
-0.099641
-0.0993974
-0.0988802
-0.0980914
-0.0970339
-0.0957123
-0.0941323
-0.092301
-0.0902266
-0.087919
-0.0853892
-0.0826495
-0.0797135
-0.0765961
-0.0733134
-0.0698828
-0.0663226
-0.0626524
-0.0588926
-0.0550648
-0.0511911
-0.0472945
-0.0433985
-0.0395269
-0.0357042
-0.0319548
-0.028303
-0.0247731
-0.0213892
-0.0181746
-0.0151525
-0.0123448
-0.00977309
-0.0074578
-0.00541867
-0.00367473
-0.00224325
-0.00113889
-0.000390519
-5.54244e-05
-6.35035e-05
-0.000441597
-0.00127942
-0.00250699
-0.00408696
-0.00599866
-0.00821926
-0.0107247
-0.0134911
-0.0164942
-0.0197098
-0.0231134
-0.0266804
-0.0303862
-0.0342062
-0.0381158
-0.0420906
-0.0461066
-0.0501403
-0.0541683
-0.0581681
-0.0621177
-0.0659958
-0.0697818
-0.0734562
-0.0770002
-0.0803958
-0.0836262
-0.0866755
-0.0895289
-0.0921726
-0.0945939
-0.0967812
-0.098724
-0.100413
-0.10184
-0.102999
-0.103882
-0.104487
-0.104809
-0.104847
-0.104599
-0.104066
-0.103251
-0.102155
-0.100784
-0.0991437
-0.0972404
-0.0950829
-0.0926812
-0.0900463
-0.0871909
-0.0841288
-0.0808752
-0.0774466
-0.0738608
-0.0701366
-0.0662942
-0.0623546
-0.05834
-0.0542734
-0.0501786
-0.0460801
-0.0420028
-0.0379722
-0.034014
-0.0301539
-0.0264176
-0.0228307
-0.0194184
-0.0162054
-0.0132158
-0.010473
-0.00799976
-0.00581799
-0.00394913
-0.00241281
-0.00122593
-0.000420681
-5.97737e-05
-6.78585e-05
-0.000471495
-0.00136529
-0.00267372
-0.00435597
-0.00638909
-0.00874783
-0.0114058
-0.0143367
-0.0175143
-0.0209124
-0.0245047
-0.028265
-0.032167
-0.0361848
-0.0402924
-0.0444645
-0.0486759
-0.052902
-0.0571188
-0.0613029
-0.0654315
-0.0694828
-0.0734357
-0.07727
-0.0809664
-0.0845067
-0.0878736
-0.0910509
-0.0940235
-0.0967772
-0.0992992
-0.101578
-0.103602
-0.105362
-0.106851
-0.10806
-0.108984
-0.109619
-0.10996
-0.110006
-0.109756
-0.10921
-0.10837
-0.107239
-0.105821
-0.104122
-0.10215
-0.0999125
-0.0974197
-0.0946829
-0.091715
-0.0885298
-0.085143
-0.0815713
-0.0778328
-0.0739469
-0.0699343
-0.0658165
-0.0616165
-0.057358
-0.0530658
-0.0487651
-0.0444822
-0.0402435
-0.0360761
-0.0320071
-0.0280637
-0.0242731
-0.0206622
-0.0172576
-0.0140855
-0.0111712
-0.00853974
-0.00621534
-0.00422179
-0.00258103
-0.00131213
-0.000450482
-6.40507e-05
-7.21335e-05
-0.000500924
-0.00144993
-0.00283825
-0.00462172
-0.00677516
-0.00927097
-0.0120804
-0.0151749
-0.0185262
-0.022106
-0.0258862
-0.0298389
-0.0339363
-0.038151
-0.0424558
-0.046824
-0.0512295
-0.0556468
-0.0600508
-0.0644176
-0.0687235
-0.0729462
-0.077064
-0.0810563
-0.0849033
-0.0885863
-0.0920879
-0.0953914
-0.0984814
-0.101344
-0.103965
-0.106333
-0.108438
-0.110269
-0.111819
-0.113079
-0.114044
-0.114709
-0.115071
-0.115126
-0.114875
-0.114318
-0.113455
-0.112291
-0.110829
-0.109076
-0.107037
-0.104723
-0.102142
-0.0993065
-0.096229
-0.0929238
-0.0894065
-0.0856942
-0.0818055
-0.07776
-0.0735789
-0.0692845
-0.0649002
-0.0604507
-0.0559614
-0.0514588
-0.04697
-0.0425229
-0.0381456
-0.0338667
-0.0297152
-0.0257198
-0.0219093
-0.0183121
-0.0149564
-0.0118699
-0.00907966
-0.00661227
-0.00449387
-0.0027487
-0.00139793
-0.000480098
-6.8287e-05
-7.63518e-05
-0.000530011
-0.00153367
-0.00300114
-0.00488503
-0.00715795
-0.00979001
-0.0127501
-0.0160075
-0.0195317
-0.0232926
-0.0272601
-0.0314046
-0.0356967
-0.0401074
-0.0446085
-0.0491719
-0.0537704
-0.0583776
-0.0629676
-0.0675155
-0.0719972
-0.0763896
-0.0806706
-0.0848189
-0.0888146
-0.0926386
-0.096273
-0.099701
-0.102907
-0.105876
-0.108596
-0.111053
-0.113238
-0.115139
-0.116749
-0.118061
-0.119067
-0.119763
-0.120146
-0.120213
-0.119963
-0.119396
-0.118513
-0.117318
-0.115815
-0.114009
-0.111908
-0.109519
-0.106854
-0.103923
-0.100739
-0.0973165
-0.0936716
-0.0898214
-0.0857847
-0.0815817
-0.0772339
-0.0727642
-0.0681968
-0.0635569
-0.0588709
-0.0541663
-0.0494714
-0.044815
-0.0402269
-0.0357372
-0.0313762
-0.0271747
-0.023163
-0.0193719
-0.0158314
-0.0125715
-0.00962153
-0.00701037
-0.00476655
-0.00291661
-0.00148378
-0.000509699
-7.25126e-05
-8.05347e-05
-0.000558878
-0.00161681
-0.00316295
-0.00514671
-0.00753855
-0.0103063
-0.0134165
-0.0168363
-0.020533
-0.0244744
-0.0286287
-0.0329644
-0.0374505
-0.0420567
-0.0467532
-0.0515109
-0.0563014
-0.0610973
-0.0658719
-0.0705995
-0.0752554
-0.0798158
-0.0842582
-0.0885608
-0.0927034
-0.0966665
-0.100432
-0.103983
-0.107303
-0.110378
-0.113195
-0.11574
-0.118003
-0.119975
-0.121646
-0.123008
-0.124056
-0.124785
-0.12519
-0.12527
-0.125022
-0.124447
-0.123547
-0.122324
-0.120782
-0.118927
-0.116766
-0.114307
-0.11156
-0.108537
-0.105249
-0.101713
-0.0979431
-0.0939577
-0.0897754
-0.085417
-0.0809043
-0.0762608
-0.0715112
-0.0666816
-0.0617993
-0.0568926
-0.051991
-0.0471247
-0.0423247
-0.0376228
-0.0330509
-0.0286415
-0.0244271
-0.0204403
-0.0167134
-0.0132785
-0.0101674
-0.00741124
-0.00504102
-0.00308554
-0.00157012
-0.000539451
-7.67559e-05
-8.47012e-05
-0.000587636
-0.00169966
-0.00332421
-0.00540755
-0.00791801
-0.0108211
-0.0140812
-0.017663
-0.0215318
-0.0256535
-0.0299942
-0.0345206
-0.0392003
-0.0440013
-0.0488925
-0.0538435
-0.0588249
-0.0638083
-0.0687661
-0.0736719
-0.0785003
-0.083227
-0.0878289
-0.0922839
-0.0965714
-0.100672
-0.104566
-0.108238
-0.111671
-0.114851
-0.117763
-0.120395
-0.122737
-0.124778
-0.126509
-0.127923
-0.129013
-0.129775
-0.130204
-0.130297
-0.130054
-0.129475
-0.128559
-0.127311
-0.125733
-0.123833
-0.121615
-0.119088
-0.116263
-0.113151
-0.109764
-0.106116
-0.102225
-0.0981069
-0.0937817
-0.0892701
-0.0845945
-0.0797787
-0.0748481
-0.0698295
-0.0647511
-0.0596422
-0.0545335
-0.0494564
-0.0444434
-0.0395277
-0.0347432
-0.0301241
-0.025705
-0.0215204
-0.017605
-0.0139933
-0.0107192
-0.00781647
-0.00531844
-0.00325626
-0.00165736
-0.000569515
-8.10437e-05
-8.88688e-05
-0.00061639
-0.00178248
-0.00348542
-0.00566829
-0.00829733
-0.0113358
-0.0147456
-0.0184894
-0.0225303
-0.026832
-0.0313588
-0.0360756
-0.0409484
-0.0459435
-0.0510285
-0.0561719
-0.0613431
-0.0665126
-0.0716522
-0.0767345
-0.0817335
-0.0866246
-0.091384
-0.0959894
-0.10042
-0.104655
-0.108677
-0.112468
-0.116012
-0.119294
-0.1223
-0.125019
-0.127438
-0.129547
-0.131339
-0.132804
-0.133937
-0.134733
-0.135187
-0.135296
-0.13506
-0.134477
-0.133549
-0.132278
-0.130668
-0.128725
-0.126454
-0.123864
-0.120965
-0.117767
-0.114283
-0.110529
-0.106519
-0.102272
-0.0978065
-0.0931443
-0.0883079
-0.0833216
-0.0782114
-0.0730047
-0.0677307
-0.0624196
-0.0571033
-0.0518145
-0.0465872
-0.0414563
-0.0364573
-0.0316264
-0.0270002
-0.0226155
-0.0185093
-0.0147183
-0.011279
-0.00822761
-0.00559995
-0.00342954
-0.00174593
-0.000600043
-8.54015e-05
-9.30539e-05
-0.000645238
-0.00186553
-0.00364704
-0.00592966
-0.00867748
-0.0118515
-0.0154113
-0.0193172
-0.0235301
-0.0280118
-0.0327245
-0.0376315
-0.0426968
-0.0478854
-0.0531634
-0.0584981
-0.0638577
-0.0692119
-0.0745314
-0.0797884
-0.0849561
-0.0900093
-0.0949239
-0.0996773
-0.104248
-0.108616
-0.112763
-0.116671
-0.120324
-0.123707
-0.126806
-0.129608
-0.132104
-0.134282
-0.136133
-0.13765
-0.138826
-0.139656
-0.140136
-0.140263
-0.140035
-0.139452
-0.138514
-0.137224
-0.135586
-0.133603
-0.131283
-0.128633
-0.125663
-0.122384
-0.118809
-0.114951
-0.110827
-0.106454
-0.101852
-0.0970418
-0.0920472
-0.0868924
-0.0816042
-0.0762107
-0.0707417
-0.0652286
-0.0597044
-0.0542031
-0.0487603
-0.0434124
-0.0381969
-0.0331519
-0.0283161
-0.0237287
-0.0194288
-0.0154559
-0.0118487
-0.0086462
-0.00588667
-0.00360608
-0.0018362
-0.000631184
-8.98535e-05
-9.72717e-05
-0.000674271
-0.00194907
-0.00380952
-0.00619232
-0.00905937
-0.0123693
-0.0160795
-0.0201478
-0.0245331
-0.0291948
-0.0340934
-0.0391901
-0.0444474
-0.0498288
-0.0552988
-0.0608235
-0.0663701
-0.0719072
-0.0774047
-0.0828341
-0.0881681
-0.0933809
-0.0984481
-0.103347
-0.108055
-0.112553
-0.116822
-0.120845
-0.124604
-0.128085
-0.131275
-0.134161
-0.136731
-0.138976
-0.140887
-0.142455
-0.143675
-0.144541
-0.145048
-0.145194
-0.144977
-0.144396
-0.143451
-0.142145
-0.140481
-0.138464
-0.136099
-0.133394
-0.130358
-0.127002
-0.123339
-0.119382
-0.115147
-0.110653
-0.105918
-0.100964
-0.0958138
-0.0904932
-0.0850291
-0.0794502
-0.0737872
-0.0680725
-0.0623402
-0.0566258
-0.0509662
-0.0453997
-0.0399656
-0.034704
-0.029656
-0.0248628
-0.0203663
-0.0162083
-0.0124303
-0.00907373
-0.00617968
-0.00378662
-0.00192858
-0.000663079
-9.44229e-05
-0.000101536
-0.000703574
-0.00203331
-0.00397328
-0.0064569
-0.00944387
-0.0128905
-0.0167516
-0.0209828
-0.0255407
-0.0303827
-0.0354671
-0.0407533
-0.0462021
-0.0517753
-0.0574362
-0.0631494
-0.0688812
-0.0745991
-0.0802724
-0.0858716
-0.091369
-0.0967384
-0.101955
-0.106996
-0.111839
-0.116464
-0.120852
-0.124985
-0.128848
-0.132426
-0.135704
-0.13867
-0.141314
-0.143625
-0.145594
-0.147214
-0.148477
-0.149379
-0.149915
-0.150082
-0.149878
-0.149302
-0.148353
-0.147035
-0.14535
-0.143301
-0.140896
-0.13814
-0.135044
-0.131616
-0.12787
-0.12382
-0.11948
-0.114868
-0.110004
-0.10491
-0.0996084
-0.094125
-0.0884875
-0.0827252
-0.0768696
-0.0709541
-0.0650139
-0.0590858
-0.0532085
-0.0474217
-0.0417669
-0.0362862
-0.031023
-0.0260209
-0.0213244
-0.0169778
-0.0130255
-0.00951163
-0.00648002
-0.00397182
-0.00202343
-0.000695867
-9.91317e-05
-0.00010586
-0.000733228
-0.00211848
-0.00413873
-0.00672402
-0.00983179
-0.0134159
-0.0174287
-0.0218235
-0.0265545
-0.031577
-0.0368471
-0.0423225
-0.0479621
-0.0537261
-0.0595765
-0.0654766
-0.0713914
-0.0772877
-0.0831339
-0.0888999
-0.0945575
-0.10008
-0.105442
-0.110621
-0.115595
-0.120343
-0.124846
-0.129088
-0.133051
-0.136721
-0.140085
-0.14313
-0.145845
-0.14822
-0.150247
-0.151917
-0.153224
-0.154163
-0.154729
-0.154919
-0.154729
-0.154161
-0.153212
-0.151885
-0.150183
-0.148108
-0.145667
-0.142867
-0.139715
-0.136222
-0.132399
-0.12826
-0.12382
-0.119096
-0.114109
-0.108879
-0.10343
-0.0977878
-0.0919801
-0.0860369
-0.0799906
-0.0738755
-0.0677279
-0.061586
-0.05549
-0.0494815
-0.0436039
-0.0379015
-0.03242
-0.0272056
-0.0223054
-0.0177665
-0.0136361
-0.00996129
-0.00678873
-0.00416235
-0.00212112
-0.00072968
-0.000104002
-0.000110256
-0.00076331
-0.00220479
-0.00430624
-0.00699426
-0.0102239
-0.0139466
-0.0181121
-0.0226713
-0.027576
-0.0327792
-0.0382351
-0.0438992
-0.0497287
-0.0556824
-0.0617205
-0.0678053
-0.0739007
-0.0799724
-0.0859882
-0.0919174
-0.0977312
-0.103403
-0.108907
-0.11422
-0.119319
-0.124186
-0.1288
-0.133145
-0.137204
-0.140964
-0.14441
-0.14753
-0.150314
-0.152752
-0.154834
-0.156554
-0.157905
-0.158881
-0.159478
-0.159692
-0.15952
-0.158962
-0.158016
-0.156685
-0.15497
-0.152875
-0.150404
-0.147564
-0.144363
-0.14081
-0.136917
-0.132696
-0.128162
-0.123334
-0.118229
-0.112869
-0.107277
-0.10148
-0.0955063
-0.0893856
-0.0831511
-0.0768381
-0.0704841
-0.0641286
-0.0578133
-0.0515819
-0.0454794
-0.0395527
-0.0338498
-0.0284196
-0.0233118
-0.0185765
-0.0142639
-0.0104241
-0.00710678
-0.00435887
-0.00222199
-0.00076465
-0.000109054
-0.000114735
-0.000793893
-0.00229243
-0.00447618
-0.00726817
-0.010621
-0.0144835
-0.0188029
-0.0235273
-0.0286064
-0.0339906
-0.0396321
-0.0454844
-0.0515029
-0.0576446
-0.0638685
-0.0701355
-0.0764084
-0.0826522
-0.0888336
-0.0949217
-0.100887
-0.106703
-0.112343
-0.117785
-0.123005
-0.127985
-0.132705
-0.137148
-0.141299
-0.145143
-0.148667
-0.15186
-0.154709
-0.157207
-0.159344
-0.161113
-0.162506
-0.16352
-0.164148
-0.164388
-0.164236
-0.163691
-0.162753
-0.161422
-0.1597
-0.157589
-0.155095
-0.152222
-0.148978
-0.145373
-0.141416
-0.137121
-0.132501
-0.127574
-0.122358
-0.116874
-0.111146
-0.1052
-0.0990647
-0.0927704
-0.086351
-0.0798426
-0.0732836
-0.0667152
-0.0601806
-0.0537251
-0.047396
-0.0412425
-0.035315
-0.0296652
-0.0243458
-0.0194098
-0.0149105
-0.0109013
-0.00743515
-0.00456201
-0.00232639
-0.000800903
-0.000114309
-0.00011931
-0.000825051
-0.00238161
-0.00464892
-0.00754631
-0.0110238
-0.0150276
-0.0195021
-0.0243928
-0.0296469
-0.0352124
-0.0410393
-0.0470792
-0.0532853
-0.0596133
-0.0660205
-0.0724666
-0.0789135
-0.0853251
-0.0916677
-0.0979096
-0.104021
-0.109975
-0.115746
-0.12131
-0.126645
-0.131732
-0.136552
-0.141088
-0.145325
-0.149248
-0.152846
-0.156106
-0.159017
-0.161572
-0.163761
-0.165576
-0.167012
-0.168063
-0.168724
-0.168991
-0.168861
-0.168334
-0.167407
-0.16608
-0.164356
-0.162236
-0.159724
-0.156826
-0.153548
-0.149898
-0.145886
-0.141524
-0.136826
-0.131808
-0.126489
-0.12089
-0.115032
-0.108944
-0.102652
-0.0961895
-0.0895893
-0.0828886
-0.0761271
-0.069347
-0.0625932
-0.055913
-0.0493558
-0.042973
-0.0368178
-0.0309448
-0.0254094
-0.0202681
-0.0155775
-0.0113942
-0.00777477
-0.0047724
-0.00243467
-0.000838567
-0.000119787
-0.000123992
-0.000856857
-0.00247252
-0.00482482
-0.00782921
-0.0114331
-0.0155797
-0.0202107
-0.0252689
-0.0306987
-0.0364458
-0.0424578
-0.0486842
-0.0550764
-0.0615883
-0.0681759
-0.0747976
-0.0814142
-0.0879888
-0.0944871
-0.100877
-0.107128
-0.113214
-0.119108
-0.124788
-0.130231
-0.135417
-0.14033
-0.144952
-0.149268
-0.153265
-0.15693
-0.160252
-0.163222
-0.165829
-0.168067
-0.169927
-0.171404
-0.172492
-0.173186
-0.173482
-0.173377
-0.172869
-0.171958
-0.170641
-0.168921
-0.166798
-0.164277
-0.161361
-0.158056
-0.15437
-0.150312
-0.145893
-0.141127
-0.136028
-0.130615
-0.124908
-0.118929
-0.112706
-0.106265
-0.0996398
-0.0928639
-0.0859751
-0.079014
-0.0720243
-0.0650523
-0.0581472
-0.0513607
-0.0447465
-0.0383605
-0.0322604
-0.0265048
-0.0211535
-0.0162665
-0.0119042
-0.00812659
-0.00499064
-0.00254715
-0.000877767
-0.00012551
-0.000128793
-0.000889387
-0.00256537
-0.00500425
-0.00811745
-0.0118495
-0.0161408
-0.0209298
-0.0261567
-0.0317629
-0.0376917
-0.0438883
-0.0503001
-0.0568765
-0.0635696
-0.0703341
-0.0771271
-0.0839083
-0.0906403
-0.0972879
-0.103819
-0.110203
-0.116412
-0.122422
-0.128208
-0.133751
-0.139029
-0.144026
-0.148726
-0.153114
-0.157177
-0.160903
-0.164282
-0.167304
-0.16996
-0.172243
-0.174145
-0.175661
-0.176785
-0.177512
-0.177839
-0.177761
-0.177277
-0.176385
-0.175084
-0.173374
-0.171256
-0.168733
-0.165808
-0.162486
-0.158774
-0.15468
-0.150214
-0.145389
-0.14022
-0.134723
-0.128919
-0.122829
-0.116479
-0.109898
-0.103117
-0.0961715
-0.0890998
-0.0819432
-0.0747467
-0.0675582
-0.0604286
-0.0534119
-0.0465645
-0.039945
-0.033614
-0.0276338
-0.0220675
-0.0169789
-0.0124323
-0.00849152
-0.00521736
-0.00266419
-0.000918631
-0.000131498
-0.000133725
-0.00092272
-0.00266037
-0.0051876
-0.0084116
-0.0122739
-0.0167118
-0.0216605
-0.0270572
-0.0328406
-0.0389512
-0.0453317
-0.0519273
-0.0586854
-0.0655566
-0.0724938
-0.079453
-0.0863931
-0.0932757
-0.100065
-0.106729
-0.113237
-0.119562
-0.125677
-0.131561
-0.137193
-0.142554
-0.147626
-0.152394
-0.156845
-0.160966
-0.164746
-0.168175
-0.171243
-0.173942
-0.176266
-0.178207
-0.17976
-0.180919
-0.18168
-0.182037
-0.181989
-0.181532
-0.180664
-0.179384
-0.177691
-0.175586
-0.173069
-0.170145
-0.166816
-0.163089
-0.15897
-0.15447
-0.149599
-0.144371
-0.138802
-0.132911
-0.12672
-0.120255
-0.113542
-0.106615
-0.0995078
-0.0922595
-0.0849126
-0.0775131
-0.0701105
-0.0627576
-0.0555106
-0.0484285
-0.0415728
-0.0350075
-0.0287982
-0.0230119
-0.0177164
-0.0129798
-0.00887049
-0.00545318
-0.00278611
-0.000961288