/*--------------------------------*- C++ -*----------------------------------*\
| =========                 |                                                 |
| \\      /  F ield         | OpenFOAM: The Open Source CFD Toolbox           |
|  \\    /   O peration     | Version:  2506                                  |
|   \\  /    A nd           | Website:  www.openfoam.com                      |
|    \\/     M anipulation  |                                                 |
\*---------------------------------------------------------------------------*/
FoamFile
{
    version     2.0;
    format      ascii;
    arch        "LSB;label=32;scalar=64";
    class       volScalarField;
    location    "0.675";
    object      Uy;
}
// * * * * * * * * * * * * * * * * * * * * * * * * * * * * * * * * * * * * * //

dimensions      [0 1 -1 0 0 0 0];

internalField   nonuniform List<scalar> 
6400
(
-7.24986e-06
-1.44467e-05
-1.41797e-05
-9.74096e-06
-3.43274e-06
3.54039e-06
1.0564e-05
1.73178e-05
2.36377e-05
2.94432e-05
3.46972e-05
3.93852e-05
4.35046e-05
4.70616e-05
5.00679e-05
5.25393e-05
5.44935e-05
5.5949e-05
5.69248e-05
5.7441e-05
5.75179e-05
5.71763e-05
5.64369e-05
5.53204e-05
5.38469e-05
5.20369e-05
4.99106e-05
4.74883e-05
4.47901e-05
4.18358e-05
3.86453e-05
3.52384e-05
3.16352e-05
2.78558e-05
2.39205e-05
1.98496e-05
1.5664e-05
1.13847e-05
7.03306e-06
2.63108e-06
-1.79901e-06
-6.23449e-06
-1.06521e-05
-1.5028e-05
-1.9338e-05
-2.35575e-05
-2.76614e-05
-3.16245e-05
-3.54208e-05
-3.90242e-05
-4.24086e-05
-4.55479e-05
-4.84162e-05
-5.09873e-05
-5.32355e-05
-5.51358e-05
-5.66637e-05
-5.77955e-05
-5.85084e-05
-5.87805e-05
-5.85914e-05
-5.79221e-05
-5.67553e-05
-5.50751e-05
-5.28684e-05
-5.0124e-05
-4.68337e-05
-4.29928e-05
-3.8601e-05
-3.36639e-05
-2.81968e-05
-2.22292e-05
-1.58154e-05
-9.05283e-06
-2.12107e-06
4.64553e-06
1.06213e-05
1.46091e-05
1.4363e-05
6.874e-06
-2.98141e-05
-5.15107e-05
-4.4094e-05
-1.91195e-05
1.52993e-05
5.4126e-05
9.42807e-05
0.000133871
0.000171734
0.000207151
0.000239687
0.000269082
0.000295189
0.000317941
0.000337327
0.000353375
0.000366143
0.000375708
0.000382162
0.000385608
0.000386157
0.000383927
0.000379041
0.000371625
0.000361806
0.000349715
0.000335483
0.000319242
0.000301125
0.000281266
0.0002598
0.000236862
0.000212589
0.000187119
0.000160593
0.00013315
0.000104934
7.60916e-05
4.67698e-05
1.71195e-05
-1.27059e-05
-4.25503e-05
-7.22548e-05
-0.000101658
-0.000130595
-0.000158899
-0.000186401
-0.00021293
-0.000238315
-0.000262382
-0.000284958
-0.00030587
-0.000324949
-0.000342025
-0.000356932
-0.00036951
-0.000379603
-0.000387063
-0.000391749
-0.00039353
-0.000392285
-0.000387909
-0.000380307
-0.000369406
-0.000355149
-0.000337506
-0.000316473
-0.000292082
-0.000264412
-0.000233601
-0.000199871
-0.000163561
-0.000125191
-8.55528e-05
-4.58744e-05
-8.09452e-06
2.46978e-05
4.75479e-05
5.26105e-05
2.92262e-05
-5.94439e-05
-8.99498e-05
-6.05177e-05
6.69008e-06
9.6252e-05
0.000197505
0.000303213
0.000408538
0.000510251
0.000606205
0.000694984
0.000775671
0.000847698
0.000910741
0.000964655
0.00100942
0.00104513
0.00107193
0.00109003
0.00109968
0.00110116
0.00109478
0.00108087
0.00105976
0.00103181
0.000997374
0.000956821
0.000910521
0.000858853
0.000802195
0.000740933
0.000675456
0.000606155
0.000533429
0.000457679
0.000379313
0.000298744
0.000216392
0.000132685
4.80547e-05
-3.70559e-05
-0.000122198
-0.000206916
-0.000290745
-0.000373215
-0.000453849
-0.000532166
-0.000607679
-0.0006799
-0.000748338
-0.000812504
-0.000871912
-0.000926082
-0.00097454
-0.00101683
-0.00105249
-0.00108111
-0.00110226
-0.00111558
-0.00112071
-0.00111732
-0.00110515
-0.00108397
-0.00105359
-0.00101392
-0.000964917
-0.000906644
-0.000839277
-0.000763139
-0.00067874
-0.000586847
-0.000488575
-0.000385534
-0.000280044
-0.000175474
-7.67447e-05
8.9379e-06
7.11372e-05
9.50136e-05
5.98429e-05
-8.12429e-05
-0.000104477
-3.52407e-05
9.36381e-05
0.000259378
0.000445424
0.000639906
0.00083446
0.00102323
0.00120213
0.00136835
0.00151997
0.00165575
0.0017749
0.00187702
0.00196195
0.00202976
0.00208066
0.00211496
0.00213311
0.00213559
0.00212296
0.00209581
0.00205477
0.0020005
0.00193368
0.00185501
0.00176521
0.00166498
0.00155507
0.00143622
0.00130919
0.00117474
0.00103364
0.000886675
0.00073464
0.000578341
0.000418599
0.000256245
9.21248e-05
-7.29008e-05
-0.000237958
-0.00040216
-0.000564604
-0.000724378
-0.000880558
-0.00103221
-0.0011784
-0.00131818
-0.0014506
-0.00157473
-0.00168964
-0.00179439
-0.0018881
-0.00196987
-0.00203887
-0.00209427
-0.00213532
-0.0021613
-0.00217155
-0.0021655
-0.00214265
-0.00210261
-0.0020451
-0.00196998
-0.00187724
-0.00176711
-0.00164001
-0.0014967
-0.00133828
-0.00116635
-0.000983178
-0.000791915
-0.000596936
-0.000404328
-0.000222568
-6.34551e-05
5.68162e-05
0.0001163
8.39129e-05
-8.71104e-05
-7.9633e-05
4.98897e-05
0.000259699
0.000520376
0.000809857
0.00111173
0.001414
0.00170795
0.00198728
0.00224751
0.00248547
0.00269903
0.00288677
0.0030479
0.00318203
0.00328911
0.00336939
0.0034233
0.00345143
0.00345452
0.00343339
0.00338897
0.00332222
0.00323419
0.00312594
0.00299857
0.00285322
0.00269105
0.00251325
0.00232099
0.00211552
0.00189805
0.00166984
0.00143216
0.0011863
0.00093357
0.000675294
0.000412824
0.000147533
-0.000119187
-0.000385918
-0.000651226
-0.000913653
-0.00117172
-0.00142395
-0.00166882
-0.00190483
-0.00213047
-0.0023442
-0.00254454
-0.00272998
-0.00289906
-0.00305033
-0.00318239
-0.00329392
-0.00338361
-0.00345026
-0.00349277
-0.00351013
-0.00350144
-0.00346598
-0.00340316
-0.00331261
-0.00319418
-0.00304798
-0.00287446
-0.00267444
-0.00244922
-0.00220073
-0.00193165
-0.00164564
-0.0013477
-0.00104455
-0.00074523
-0.000461906
-0.000210899
-1.38347e-05
0.000100839
9.32152e-05
-7.38392e-05
-7.47324e-06
0.000205419
0.000516434
0.000890611
0.00130102
0.00172705
0.00215321
0.00256788
0.00296247
0.00333064
0.00366786
0.0039709
0.00423762
0.00446669
0.0046574
0.00480956
0.00492337
0.00499934
0.00503826
0.00504107
0.00500894
0.00494311
0.00484495
0.00471593
0.00455756
0.00437143
0.00415917
0.00392244
0.00366296
0.00338247
0.00308273
0.00276553
0.00243271
0.00208611
0.00172762
0.00135915
0.000982634
0.000600047
0.000213391
-0.000175301
-0.000563964
-0.000950505
-0.0013328
-0.00170871
-0.00207606
-0.00243268
-0.00277636
-0.00310491
-0.00341613
-0.00370786
-0.00397793
-0.00422423
-0.00444468
-0.00463729
-0.00480013
-0.00493137
-0.00502931
-0.00509237
-0.00511914
-0.0051084
-0.00505916
-0.00497064
-0.0048424
-0.00467431
-0.00446665
-0.00422018
-0.00393623
-0.0036168
-0.00326476
-0.00288405
-0.00247994
-0.00205942
-0.00163167
-0.00120876
-0.000806426
-0.00044521
-0.00015159
4.04671e-05
8.4392e-05
-4.01828e-05
0.000116194
0.000437613
0.000871166
0.00137756
0.00192579
0.00249157
0.00305616
0.00360519
0.00412777
0.00461571
0.00506298
0.00546523
0.00581944
0.0061237
0.00637689
0.00657861
0.006729
0.00682862
0.00687841
0.00687957
0.00683357
0.00674205
0.00660679
0.00642974
0.0062129
0.00595841
0.00566845
0.00534526
0.00499117
0.00460852
0.00419971
0.00376718
0.00331341
0.00284093
0.0023523
0.00185013
0.00133705
0.000815752
0.000288968
-0.000240534
-0.000769945
-0.00129642
-0.00181706
-0.00232897
-0.0028292
-0.00331478
-0.00378276
-0.00423014
-0.00465397
-0.0050513
-0.00541923
-0.00575491
-0.00605556
-0.00631848
-0.00654111
-0.006721
-0.0068559
-0.00694372
-0.00698261
-0.00697098
-0.00690756
-0.00679141
-0.00662201
-0.00639929
-0.00612377
-0.00579657
-0.00541961
-0.00499569
-0.00452877
-0.00402411
-0.0034887
-0.00293158
-0.00236442
-0.00180217
-0.00126392
-0.000773992
-0.000362976
-6.92319e-05
5.60694e-05
1.41202e-05
0.000293199
0.000749744
0.00132808
0.00198575
0.00268848
0.00340888
0.00412535
0.004821
0.00548276
0.00610062
0.00666707
0.00717657
0.00762522
0.00801044
0.00833069
0.00858529
0.00877429
0.00889829
0.00895838
0.008956
0.00889296
0.00877128
0.00859321
0.0083612
0.00807781
0.00774575
0.00736781
0.0069469
0.00648598
0.00598809
0.00545633
0.00489387
0.00430391
0.00368973
0.00305465
0.00240205
0.00173536
0.00105807
0.000373715
-0.000314107
-0.00100176
-0.00168554
-0.00236173
-0.00302654
-0.00367617
-0.0043068
-0.00491459
-0.00549569
-0.00604629
-0.00656261
-0.00704089
-0.00747748
-0.00786882
-0.00821146
-0.00850212
-0.00873769
-0.00891529
-0.00903231
-0.00908641
-0.00907563
-0.00899839
-0.00885358
-0.00864064
-0.00835959
-0.00801118
-0.00759699
-0.00711956
-0.00658259
-0.00599112
-0.00535186
-0.0046735
-0.00396711
-0.00324676
-0.0025301
-0.00183924
-0.00120172
-0.000651524
-0.000230292
7.89e-06
8.87738e-05
0.000523841
0.00114298
0.00188908
0.00271749
0.00359145
0.00448104
0.00536223
0.00621588
0.00702694
0.00778368
0.00847715
0.00910068
0.00964946
0.0101202
0.010511
0.0108208
0.0110496
0.0111979
0.0112671
0.0112588
0.0111752
0.0110187
0.0107921
0.0104982
0.0101404
0.00972184
0.00924608
0.00871668
0.00813734
0.00751184
0.00684405
0.0061379
0.00539742
0.00462669
0.00382988
0.00301121
0.00217497
0.00132552
0.000467298
-0.00039521
-0.00125745
-0.0021148
-0.00296261
-0.00379616
-0.00461071
-0.00540147
-0.00616368
-0.00689255
-0.00758333
-0.0082313
-0.00883184
-0.0093804
-0.00987256
-0.0103041
-0.0106709
-0.0109691
-0.0111953
-0.0113462
-0.0114191
-0.0114114
-0.0113214
-0.0111477
-0.0108898
-0.0105478
-0.0101226
-0.0096164
-0.00903234
-0.00837502
-0.00765064
-0.00686731
-0.00603538
-0.00516792
-0.00428118
-0.00339529
-0.002535
-0.00173058
-0.00101864
-0.00044318
-5.9921e-05
0.000183201
0.000807497
0.00161712
0.00255446
0.00357346
0.00463559
0.00570889
0.00676734
0.00778985
0.00875962
0.00966336
0.0104908
0.0112342
0.0118878
0.0124477
0.0129115
0.013278
0.013547
0.013719
0.0137956
0.0137786
0.0136706
0.0134744
0.0131932
0.0128307
0.0123906
0.011877
0.0112938
0.0106456
0.00993678
0.00917188
0.00835562
0.00749278
0.00658825
0.00564698
0.00467405
0.00367457
0.00265379
0.001617
0.000569585
-0.00048299
-0.00153519
-0.00258141
-0.00361599
-0.0046332
-0.00562729
-0.00659247
-0.00752295
-0.00841293
-0.00925666
-0.0100484
-0.0107827
-0.0114539
-0.0120567
-0.0125861
-0.0130371
-0.0134051
-0.013686
-0.0138758
-0.0139713
-0.0139695
-0.0138684
-0.0136664
-0.0133629
-0.0129581
-0.0124533
-0.011851
-0.0111551
-0.0103711
-0.00950639
-0.00857031
-0.00757489
-0.00653499
-0.00546893
-0.00439902
-0.00335226
-0.00236115
-0.00146434
-0.000707422
-0.000146842
0.000296711
0.00114304
0.00217113
0.00332347
0.00455326
0.00582069
0.00709231
0.00834045
0.00954243
0.0106799
0.0117382
0.0127059
0.0135742
0.0143366
0.0149886
0.0155273
0.0159513
0.0162602
0.0164547
0.0165364
0.0165075
0.0163709
0.0161299
0.0157883
0.0153503
0.0148203
0.0142029
0.0135032
0.0127262
0.0118771
0.0109616
0.00998498
0.00895307
0.00787163
0.00674656
0.00558387
0.00438967
0.00317018
0.00193169
0.000680621
-0.000576551
-0.00183324
-0.0030828
-0.00431848
-0.00553351
-0.00672105
-0.00787424
-0.0089862
-0.0100501
-0.011059
-0.0120064
-0.0128854
-0.0136897
-0.0144129
-0.015049
-0.0155923
-0.0160373
-0.016379
-0.0166131
-0.0167355
-0.0167429
-0.0166329
-0.0164038
-0.0160547
-0.0155861
-0.0149995
-0.0142979
-0.0134858
-0.0125695
-0.0115576
-0.0104606
-0.00929212
-0.00806868
-0.0068104
-0.00554151
-0.00429094
-0.00309298
-0.00198781
-0.00102203
-0.000252226
0.000428588
0.00152911
0.00280349
0.00419473
0.00565571
0.00714582
0.00863049
0.0100808
0.0114727
0.0127867
0.0140068
0.0151206
0.0161184
0.016993
0.0177393
0.0183542
0.0188359
0.0191839
0.0193992
0.0194834
0.0194391
0.0192695
0.0189785
0.0185703
0.0180499
0.0174223
0.0166929
0.0158675
0.014952
0.0139525
0.0128754
0.0117271
0.0105142
0.00924361
0.00792209
0.00655669
0.00515454
0.00372289
0.00226909
0.000800624
-0.000674942
-0.00214993
-0.00361658
-0.00506703
-0.00649339
-0.00788767
-0.00924188
-0.010548
-0.0117981
-0.0129842
-0.0140984
-0.0151331
-0.0160807
-0.0169339
-0.0176856
-0.0183293
-0.0188586
-0.0192678
-0.0195516
-0.0197057
-0.0197261
-0.0196099
-0.0193553
-0.0189614
-0.0184285
-0.0177586
-0.016955
-0.0160228
-0.0149691
-0.0138035
-0.0125378
-0.0111869
-0.00976882
-0.00830533
-0.00682231
-0.00535029
-0.003925
-0.00258776
-0.00138577
-0.000375397
0.000578141
0.00196426
0.00351246
0.00516649
0.00687921
0.00860955
0.0103222
0.0119872
0.0135796
0.0150787
0.0164676
0.0177331
0.0188646
0.0198545
0.0206971
0.0213889
0.021928
0.0223141
0.0225481
0.0226318
0.0225682
0.0223609
0.0220144
0.0215335
0.0209237
0.0201909
0.0193412
0.0183812
0.0173177
0.0161578
0.0149086
0.0135777
0.0121725
0.010701
0.0091709
0.00759041
0.00596768
0.00431103
0.00262893
0.000929967
-0.000777159
-0.00248363
-0.00418052
-0.00585883
-0.00750945
-0.00912325
-0.010691
-0.0122036
-0.0136519
-0.0150266
-0.016319
-0.01752
-0.018621
-0.0196137
-0.02049
-0.0212423
-0.0218634
-0.0223468
-0.0226864
-0.022877
-0.0229145
-0.0227954
-0.0225175
-0.0220798
-0.0214829
-0.0207285
-0.0198207
-0.0187649
-0.0175691
-0.0162437
-0.0148016
-0.0132589
-0.011635
-0.00995314
-0.00824057
-0.00652917
-0.00485585
-0.00326272
-0.00179736
-0.000515706
0.000744729
0.00244709
0.00429627
0.00623686
0.00822194
0.0102102
0.0121659
0.0140583
0.0158617
0.0175546
0.0191193
0.0205419
0.0218112
0.022919
0.0238594
0.0246286
0.0252247
0.0256473
0.0258975
0.0259775
0.0258905
0.0256407
0.0252331
0.0246731
0.023967
0.0231214
0.0221432
0.0210399
0.0198192
0.018489
0.0170576
0.0155333
0.0139249
0.0122411
0.0104909
0.00868339
0.00682796
0.00493403
0.00301119
0.00106917
-0.000882133
-0.00283273
-0.00477251
-0.00669125
-0.00857864
-0.0104243
-0.0122178
-0.0139488
-0.0156069
-0.0171817
-0.0186631
-0.0200409
-0.0213055
-0.0224473
-0.0234572
-0.0243265
-0.0250471
-0.0256116
-0.0260131
-0.0262458
-0.0263048
-0.0261863
-0.0258878
-0.025408
-0.0247473
-0.023908
-0.022894
-0.0217115
-0.020369
-0.0188777
-0.0172515
-0.0155076
-0.0136667
-0.0117531
-0.00979527
-0.00782632
-0.00588405
-0.0040112
-0.00225555
-0.000672562
0.00092778
0.00297628
0.00515319
0.00740397
0.00968204
0.0119461
0.01416
0.0162926
0.0183177
0.0202131
0.0219606
0.0235455
0.0249565
0.0261848
0.0272244
0.0280712
0.0287234
0.0291808
0.0294445
0.0295172
0.0294025
0.0291052
0.0286307
0.0279853
0.0271758
0.0262098
0.025095
0.0238397
0.0224526
0.0209427
0.0193191
0.0175912
0.0157689
0.0138619
0.0118803
0.00983439
0.00773462
0.00559158
0.00341603
0.0012189
-0.000988729
-0.00319565
-0.0053905
-0.00756184
-0.00969809
-0.0117876
-0.0138188
-0.0157798
-0.0176592
-0.0194452
-0.0211264
-0.0226916
-0.0241298
-0.0254303
-0.0265829
-0.0275778
-0.0284058
-0.0290586
-0.0295286
-0.0298091
-0.0298946
-0.0297806
-0.0294644
-0.0289444
-0.0282209
-0.0272961
-0.0261744
-0.0248621
-0.0233685
-0.0217053
-0.0198874
-0.0179329
-0.0158633
-0.0137043
-0.0114854
-0.00924049
-0.00700822
-0.00483184
-0.00275924
-0.000845456
0.00112679
0.00355065
0.00608164
0.00866605
0.0112577
0.0138154
0.0163028
0.0186887
0.0209462
0.0230529
0.0249901
0.0267428
0.0282992
0.0296504
0.0307903
0.0317148
0.0324221
0.0329122
0.0331866
0.0332483
0.0331014
0.0327513
0.0322041
0.0314667
0.0305469
0.0294528
0.0281933
0.0267776
0.0252152
0.0235161
0.0216906
0.0197491
0.0177025
0.0155617
0.0133379
0.0110425
0.00868718
0.00628363
0.00384384
0.00137994
-0.00109574
-0.00357076
-0.0060325
-0.00846823
-0.0108651
-0.0132102
-0.0154905
-0.0176931
-0.019805
-0.0218133
-0.0237052
-0.0254683
-0.0270902
-0.0285591
-0.0298636
-0.0309928
-0.0319364
-0.0326851
-0.0332303
-0.0335646
-0.0336817
-0.0335766
-0.033246
-0.0326881
-0.0319029
-0.0308926
-0.0296617
-0.0282168
-0.0265677
-0.0247267
-0.0227092
-0.0205344
-0.0182246
-0.0158064
-0.0133101
-0.0107706
-0.00822716
-0.00572345
-0.00330749
-0.00103396
0.00134134
0.00416919
0.00708022
0.0100215
0.0129473
0.0158165
0.0185929
0.021245
0.0237459
0.0260727
0.0282066
0.0301324
0.031838
0.0333146
0.0345558
0.0355579
0.0363192
0.0368398
0.0371218
0.0371686
0.0369849
0.0365766
0.0359507
0.0351148
0.0340774
0.0328478
0.0314355
0.0298508
0.0281043
0.0262069
0.02417
0.0220051
0.0197242
0.0173393
0.0148628
0.0123072
0.00968542
0.00701032
0.00429513
0.0015532
-0.00120189
-0.00395643
-0.00669652
-0.00940814
-0.0120771
-0.0146892
-0.0172301
-0.0196855
-0.0220411
-0.0242826
-0.026396
-0.0283674
-0.0301833
-0.0318304
-0.0332963
-0.0345686
-0.0356362
-0.0364886
-0.0371162
-0.0375106
-0.0376649
-0.0375733
-0.037232
-0.0366386
-0.0357931
-0.0346974
-0.033356
-0.0317759
-0.029967
-0.027942
-0.0257172
-0.0233122
-0.0207503
-0.0180587
-0.0152687
-0.0124158
-0.00953993
-0.00668511
-0.00389956
-0.00123776
0.00157109
0.00483103
0.00814774
0.0114689
0.0147493
0.017948
0.0210289
0.0239604
0.0267156
0.0292716
0.0316093
0.0337134
0.035572
0.0371762
0.0385198
0.0395992
0.0404131
0.0409619
0.0412483
0.0412761
0.0410508
0.040579
0.0398683
0.0389272
0.0377652
0.0363924
0.0348194
0.0330573
0.0311179
0.0290132
0.0267555
0.0243577
0.0218326
0.0191936
0.0164542
0.0136281
0.0107293
0.00777197
0.00477057
0.0017397
-0.00130581
-0.00435097
-0.00738057
-0.0103793
-0.0133316
-0.0162219
-0.0190346
-0.0217539
-0.0243642
-0.0268499
-0.0291955
-0.0313858
-0.0334059
-0.0352413
-0.036878
-0.0383028
-0.0395031
-0.0404672
-0.0411845
-0.0416458
-0.0418431
-0.04177
-0.0414219
-0.0407959
-0.0398917
-0.038711
-0.0372581
-0.03554
-0.0335669
-0.031352
-0.0289119
-0.0262668
-0.0234406
-0.0204614
-0.017361
-0.0141757
-0.0109459
-0.00771619
-0.00453492
-0.0014566
0.00181575
0.00553548
0.00928321
0.0130072
0.0166626
0.0202087
0.0236096
0.0268338
0.0298544
0.0326485
0.0351971
0.037485
0.0395003
0.0412344
0.0426813
0.0438377
0.0447026
0.0452773
0.0455647
0.0455694
0.0452976
0.0447566
0.0439549
0.042902
0.0416082
0.0400846
0.0383428
0.0363951
0.0342542
0.0319332
0.0294457
0.0268055
0.0240268
0.021124
0.0181117
0.0150049
0.0118189
0.00856904
0.00527096
0.00194056
-0.00140608
-0.00475263
-0.00808261
-0.0113793
-0.014626
-0.0178056
-0.0209011
-0.0238954
-0.0267714
-0.0295121
-0.0321007
-0.0345205
-0.0367552
-0.038789
-0.0406065
-0.042193
-0.0435348
-0.044619
-0.045434
-0.0459691
-0.0462157
-0.0461663
-0.0458156
-0.0451602
-0.0441992
-0.0429339
-0.0413685
-0.03951
-0.0373685
-0.0349575
-0.032294
-0.0293987
-0.026296
-0.0230146
-0.019587
-0.0160501
-0.0124449
-0.00881634
-0.00521329
-0.00169034
0.00207512
0.00628201
0.0104859
0.0146355
0.0186861
0.0225976
0.0263341
0.0298643
0.0331614
0.0362027
0.0389694
0.0414464
0.0436222
0.0454883
0.0470393
0.0482722
0.0491868
0.0497847
0.0500696
0.0500469
0.0497235
0.0491077
0.0482088
0.0470373
0.0456045
0.0439224
0.042004
0.0398624
0.0375115
0.0349655
0.0322392
0.0293475
0.0263058
0.0231296
0.0198348
0.0164377
0.0129546
0.0094021
0.00579719
0.00215698
-0.00150115
-0.0051596
-0.00880055
-0.012406
-0.0159577
-0.0194374
-0.0228266
-0.0261068
-0.0292594
-0.0322661
-0.0351085
-0.0377685
-0.0402284
-0.0424708
-0.0444791
-0.0462371
-0.0477297
-0.0489427
-0.0498632
-0.0504796
-0.050782
-0.0507619
-0.0504133
-0.0497319
-0.0487162
-0.0473671
-0.0456884
-0.043687
-0.0413729
-0.0387597
-0.0358647
-0.032709
-0.0293173
-0.025719
-0.0219472
-0.0180392
-0.0140368
-0.00998552
-0.00593456
-0.00193894
0.00234905
0.00707024
0.0117552
0.016353
0.0208193
0.0251141
0.0292017
0.0330513
0.036636
0.0399336
0.0429255
0.045597
0.0479369
0.0499372
0.0515931
0.0529021
0.0538646
0.0544831
0.0547619
0.0547073
0.0543272
0.0536307
0.0526283
0.0513313
0.0497522
0.0479042
0.0458012
0.0434575
0.0408881
0.0381086
0.0351347
0.0319825
0.0286687
0.0252099
0.0216234
0.0179264
0.0141365
0.0102718
0.00635021
0.00239026
-0.00158944
-0.00556997
-0.00953221
-0.0134568
-0.0173242
-0.0211146
-0.0248082
-0.0283851
-0.0318253
-0.0351088
-0.0382158
-0.0411268
-0.0438225
-0.0462841
-0.0484934
-0.0504327
-0.0520856
-0.0534365
-0.0544711
-0.0551765
-0.0555415
-0.0555568
-0.0552152
-0.0545116
-0.0534437
-0.0520118
-0.0502192
-0.0480725
-0.0455817
-0.0427603
-0.0396256
-0.036199
-0.0325059
-0.0285757
-0.0244424
-0.0201438
-0.0157223
-0.011224
-0.00669888
-0.00220241
0.00263747
0.00789997
0.0130909
0.0181595
0.0230617
0.0277576
0.032212
0.0363942
0.0402779
0.0438408
0.0470651
0.0499364
0.052444
0.0545806
0.056342
0.0577264
0.0587351
0.0593712
0.0596402
0.0595492
0.059107
0.058324
0.0572116
0.0557823
0.0540497
0.0520281
0.0497325
0.0471786
0.0443826
0.041361
0.0381308
0.0347095
0.0311147
0.0273644
0.023477
0.019471
0.0153652
0.0111787
0.00693105
0.00264174
-0.00166925
-0.00598175
-0.0102753
-0.0145292
-0.0187225
-0.0228341
-0.0268428
-0.0307271
-0.0344655
-0.0380367
-0.0414194
-0.0445922
-0.0475346
-0.050226
-0.0526468
-0.0547777
-0.0566008
-0.0580989
-0.0592564
-0.0600589
-0.0604939
-0.060551
-0.0602216
-0.0594999
-0.0583825
-0.056869
-0.0549623
-0.0526683
-0.0499967
-0.046961
-0.0435785
-0.0398707
-0.0358633
-0.0315863
-0.0270739
-0.0223649
-0.0175021
-0.0125325
-0.0075066
-0.00248089
0.00294035
0.00877111
0.0144928
0.0200548
0.025413
0.0305281
0.0353649
0.0398931
0.0440867
0.0479241
0.0513878
0.0544641
0.0571431
0.0594179
0.0612852
0.0627443
0.0637971
0.0644479
0.0647031
0.0645709
0.0640614
0.0631858
0.0619568
0.0603883
0.0584948
0.056292
0.0537961
0.051024
0.047993
0.044721
0.0412262
0.0375272
0.0336428
0.0295924
0.0253954
0.0210715
0.0166408
0.0121237
0.00754077
0.00291285
-0.00173884
-0.00639284
-0.0110274
-0.0156205
-0.0201498
-0.0245929
-0.028927
-0.0331293
-0.0371767
-0.0410465
-0.0447156
-0.0481613
-0.0513613
-0.0542935
-0.0569364
-0.0592695
-0.0612729
-0.062928
-0.0642175
-0.0651257
-0.0656385
-0.0657441
-0.0654328
-0.0646975
-0.0635338
-0.0619404
-0.0599194
-0.0574761
-0.05462
-0.051364
-0.0477256
-0.0437262
-0.0393917
-0.0347526
-0.0298436
-0.0247039
-0.0193774
-0.0139117
-0.00835828
-0.00277455
0.00325771
0.0096837
0.015961
0.0220389
0.0278735
0.0334256
0.0386604
0.0435478
0.0480625
0.0521834
0.0558936
0.05918
0.0620336
0.0644485
0.0664221
0.0679549
0.0690497
0.0697119
0.0699492
0.069771
0.0691884
0.0682141
0.066862
0.0651471
0.0630855
0.0606939
0.0579898
0.0549915
0.0517175
0.0481869
0.0444192
0.0404342
0.0362521
0.0318931
0.027378
0.0227278
0.0179638
0.0131074
0.00818042
0.00320503
-0.00179637
-0.00680105
-0.011786
-0.0167278
-0.021603
-0.0263875
-0.0310572
-0.0355879
-0.039955
-0.0441341
-0.0481006
-0.0518303
-0.055299
-0.058483
-0.0613591
-0.0639051
-0.0660994
-0.0679217
-0.0693529
-0.0703758
-0.0709746
-0.0711361
-0.070849
-0.070105
-0.0688986
-0.0672273
-0.0650923
-0.0624982
-0.0594538
-0.0559719
-0.0520694
-0.047768
-0.0430936
-0.038077
-0.0327534
-0.0271629
-0.0213498
-0.0153629
-0.00925468
-0.00308369
0.00358963
0.0106379
0.0174957
0.0241121
0.0304434
0.0364504
0.0420987
0.0473587
0.0522056
0.0566188
0.0605822
0.0640838
0.0671153
0.0696718
0.0717519
0.073357
0.0744914
0.0751617
0.0753768
0.0751474
0.074486
0.0734067
0.0719247
0.0700563
0.067819
0.065231
0.0623111
0.0590787
0.0555538
0.0517566
0.0477081
0.0434291
0.038941
0.0342655
0.0294244
0.0244398
0.0193342
0.0141303
0.00885104
0.00351975
-0.00183994
-0.00720408
-0.0125484
-0.0178482
-0.0230786
-0.0282142
-0.0332296
-0.0380989
-0.0427962
-0.0472954
-0.0515703
-0.0555949
-0.0593435
-0.0627906
-0.0659113
-0.0686813
-0.0710774
-0.0730774
-0.0746605
-0.0758075
-0.0765011
-0.0767262
-0.0764702
-0.075723
-0.0744779
-0.0727311
-0.0704828
-0.0677367
-0.0645008
-0.0607873
-0.0566129
-0.051999
-0.0469718
-0.0415623
-0.0358061
-0.029744
-0.0234213
-0.0168876
-0.0101967
-0.00340864
0.00393622
0.0116341
0.0190974
0.0262751
0.0331233
0.0396031
0.0456805
0.0513263
0.0565161
0.0612304
0.0654539
0.0691754
0.0723877
0.0750871
0.0772735
0.0789496
0.080121
0.0807956
0.0809839
0.0806979
0.0799518
0.0787609
0.077142
0.075113
0.0726926
0.0699006
0.066757
0.0632827
0.0594991
0.0554276
0.0510904
0.0465097
0.0417081
0.0367084
0.0315336
0.026207
0.0207522
0.015193
0.00955363
0.00385849
-0.00186761
-0.00759952
-0.0133117
-0.0189783
-0.024573
-0.0300692
-0.0354399
-0.0406579
-0.0456956
-0.0505255
-0.0551197
-0.0594505
-0.0634904
-0.0672121
-0.0705887
-0.0735943
-0.0762035
-0.0783922
-0.0801377
-0.0814189
-0.0822165
-0.0825137
-0.082296
-0.0815518
-0.0802726
-0.0784534
-0.0760929
-0.0731939
-0.0697635
-0.0658131
-0.0613591
-0.0564226
-0.0510297
-0.0452116
-0.0390046
-0.0324499
-0.025594
-0.0184875
-0.0111856
-0.00374983
0.00429764
0.0126726
0.0207666
0.0285284
0.0359139
0.0428845
0.0494064
0.055451
0.0609947
0.0660187
0.0705086
0.0744545
0.0778503
0.0806938
0.082986
0.0847312
0.0859365
0.0866115
0.086768
0.0864199
0.0855827
0.0842736
0.0825108
0.0803137
0.0777028
0.074699
0.0713241
0.0676003
0.0635502
0.0591969
0.0545636
0.0496738
0.0445513
0.0392201
0.0337044
0.0280287
0.0222175
0.0162959
0.0102891
0.00422269
-0.0018774
-0.00798486
-0.014073
-0.0201147
-0.0260823
-0.031948
-0.0376834
-0.0432598
-0.0486482
-0.0538193
-0.0587436
-0.0633918
-0.0677344
-0.0717422
-0.0753866
-0.0786394
-0.0814734
-0.0838623
-0.0857814
-0.0872074
-0.088119
-0.0884973
-0.0883259
-0.0875913
-0.0862833
-0.0843953
-0.0819244
-0.0788723
-0.0752448
-0.0710526
-0.0663115
-0.0610422
-0.0552707
-0.0490285
-0.0423521
-0.0352838
-0.0278706
-0.0201647
-0.0122226
-0.00410774
0.0046741
0.013754
0.0225042
0.0308729
0.0388163
0.0462956
0.0532774
0.0597338
0.065642
0.0709839
0.0757465
0.079921
0.0835027
0.0864907
0.0888879
0.0907
0.0919359
0.0926068
0.0927263
0.0923101
0.0913754
0.089941
0.088027
0.0856545
0.0828453
0.0796222
0.0760083
0.0720274
0.0677035
0.063061
0.0581244
0.0529184
0.0474682
0.0417988
0.0359355
0.0299039
0.0237298
0.0174391
0.0110582
0.00461376
-0.00186729
-0.0083575
-0.014829
-0.0212536
-0.0276023
-0.0338461
-0.0399552
-0.0458994
-0.0516482
-0.0571708
-0.062436
-0.0674126
-0.0720694
-0.0763752
-0.0802993
-0.0838116
-0.0868824
-0.0894835
-0.0915878
-0.0931698
-0.094206
-0.0946752
-0.0945588
-0.0938413
-0.0925105
-0.0905579
-0.087979
-0.084774
-0.0809474
-0.076509
-0.0714737
-0.0658617
-0.0596989
-0.0530168
-0.0458526
-0.0382488
-0.030254
-0.0219214
-0.0133092
-0.00448293
0.00506583
0.0148788
0.0243109
0.0333099
0.0418316
0.0498375
0.0572947
0.0641757
0.0704586
0.0761266
0.0811677
0.0855746
0.089344
0.0924769
0.0949777
0.0968541
0.0981167
0.0987786
0.0988555
0.0983648
0.0973257
0.0957589
0.0936862
0.0911305
0.0881154
0.0846652
0.0808049
0.0765594
0.0719544
0.0670156
0.0617688
0.0562402
0.0504557
0.0444418
0.0382249
0.0318315
0.0252884
0.0186227
0.0118617
0.00503304
-0.00183525
-0.00871473
-0.0155765
-0.022391
-0.0291285
-0.0357583
-0.0422495
-0.0485705
-0.0546893
-0.0605734
-0.0661901
-0.0715062
-0.0764887
-0.0811044
-0.0853205
-0.0891045
-0.0924248
-0.0952505
-0.0975523
-0.0993022
-0.100474
-0.101045
-0.100993
-0.100301
-0.0989541
-0.096942
-0.0942584
-0.0909014
-0.0868744
-0.0821858
-0.0768495
-0.0708853
-0.0643186
-0.0571809
-0.0495099
-0.0413489
-0.0327474
-0.0237602
-0.0144472
-0.00487602
0.00547311
0.0160479
0.0261879
0.0358404
0.0449611
0.0535116
0.0614593
0.0687776
0.0754455
0.0814472
0.0867723
0.0914148
0.0953735
0.0986509
0.101254
0.103191
0.104476
0.105123
0.105152
0.10458
0.103429
0.101722
0.0994829
0.0967362
0.0935074
0.0898226
0.0857081
0.0811908
0.0762977
0.0710558
0.0654925
0.0596348
0.0535103
0.0471462
0.04057
0.0338095
0.0268922
0.0198463
0.0127
0.00548177
-0.00177929
-0.00905379
-0.0163118
-0.0235228
-0.0306558
-0.037679
-0.0445603
-0.0512666
-0.0577645
-0.0640199
-0.0699983
-0.0756649
-0.0809846
-0.0859222
-0.0904426
-0.0945112
-0.0980938
-0.101157
-0.103669
-0.1056
-0.10692
-0.107603
-0.107626
-0.106969
-0.105614
-0.103548
-0.100764
-0.0972566
-0.0930285
-0.0880864
-0.082443
-0.0761172
-0.0691342
-0.0615253
-0.0533286
-0.0445881
-0.0353544
-0.0256838
-0.0156383
-0.00528769
0.00589625
0.0172619
0.0281362
0.0384659
0.0482064
0.0573195
0.0657729
0.0735409
0.0806034
0.0869462
0.0925602
0.0974413
0.10159
0.105011
0.107713
0.109707
0.11101
0.111637
0.11161
0.110949
0.109679
0.107825
0.105411
0.102465
0.0990148
0.0950875
0.0907115
0.0859152
0.0807272
0.0751759
0.0692898
0.0630975
0.0566275
0.0499081
0.042968
0.0358357
0.0285399
0.0211093
0.0135732
0.00596103
-0.00169743
-0.00937184
-0.0170313
-0.0246444
-0.0321791
-0.0396024
-0.0468809
-0.0539804
-0.060866
-0.067502
-0.0738522
-0.07988
-0.0855483
-0.0908198
-0.0956572
-0.100023
-0.103882
-0.107196
-0.109932
-0.112057
-0.113537
-0.114346
-0.114455
-0.113843
-0.112488
-0.110376
-0.107496
-0.103841
-0.0994125
-0.0942142
-0.088258
-0.081562
-0.0741505
-0.0660549
-0.0573133
-0.0479707
-0.0380788
-0.0276954
-0.0168845
-0.0057187
0.0063356
0.0185218
0.0301574
0.0411881
0.0515693
0.0612628
0.070237
0.0784668
0.0859335
0.0926241
0.0985314
0.103653
0.107992
0.111555
0.114353
0.1164
0.117714
0.118315
0.118224
0.117468
0.11607
0.114059
0.111463
0.10831
0.10463
0.100452
0.0958074
0.0907252
0.0852357
0.0793688
0.0731545
0.0666224
0.0598022
0.0527233
0.0454152
0.0379074
0.0302293
0.0224107
0.0144815
0.00647175
-0.00158777
-0.00966599
-0.0177312
-0.0257511
-0.0336926
-0.0415218
-0.0492041
-0.0567041
-0.0639853
-0.0710106
-0.0777423
-0.0841418
-0.09017
-0.0957874
-0.100954
-0.105632
-0.109779
-0.113359
-0.116333
-0.118666
-0.120321
-0.121268
-0.121476
-0.120919
-0.119575
-0.117425
-0.114455
-0.110657
-0.106029
-0.100573
-0.0942988
-0.0872242
-0.0793725
-0.0707747
-0.0614692
-0.0515016
-0.0409247
-0.0297982
-0.0181882
-0.00616986
0.00679155
0.0198287
0.0322527
0.0440087
0.0550517
0.0653435
0.0748533
0.0835567
0.0914365
0.0984813
0.104686
0.11005
0.114578
0.118281
0.121171
0.123265
0.124584
0.12515
0.124989
0.124128
0.122594
0.120418
0.11763
0.114261
0.110343
0.105908
0.100987
0.095612
0.0898148
0.0836268
0.0770792
0.0702028
0.0630284
0.0555864
0.0479072
0.040021
0.0319582
0.0237491
0.0154242
0.00701463
-0.00144851
-0.00993337
-0.0184075
-0.0268378
-0.0351903
-0.0434303
-0.051522
-0.0594287
-0.0671129
-0.0745359
-0.0816582
-0.0884394
-0.0948385
-0.100814
-0.106323
-0.111325
-0.115776
-0.119636
-0.122863
-0.125418
-0.127264
-0.128363
-0.128684
-0.128196
-0.126873
-0.124694
-0.121642
-0.117706
-0.112879
-0.107165
-0.100569
-0.0931086
-0.0848053
-0.0756902
-0.0658015
-0.0551856
-0.0438965
-0.0319957
-0.0195515
-0.00664204
0.00726453
0.0211835
0.0344239
0.0469297
0.0586556
0.0695637
0.0796236
0.0888122
0.0971136
0.104518
0.111023
0.116629
0.121346
0.125184
0.128161
0.130297
0.131613
0.132137
0.131897
0.130921
0.129242
0.126892
0.123903
0.12031
0.116146
0.111444
0.10624
0.100566
0.0944551
0.0879408
0.0810554
0.0738308
0.066299
0.0584912
0.0504387
0.0421724
0.0337233
0.0251224
0.0164008
0.00759011
-0.00127799
-0.0101711
-0.0190561
-0.0278992
-0.0366659
-0.0453203
-0.053826