/*--------------------------------*- C++ -*----------------------------------*\
| =========                 |                                                 |
| \\      /  F ield         | OpenFOAM: The Open Source CFD Toolbox           |
|  \\    /   O peration     | Version:  2506                                  |
|   \\  /    A nd           | Website:  www.openfoam.com                      |
|    \\/     M anipulation  |                                                 |
\*---------------------------------------------------------------------------*/
FoamFile
{
    version     2.0;
    format      ascii;
    arch        "LSB;label=32;scalar=64";
    class       volScalarField;
    location    "3.25";
    object      divPhi;
}
// * * * * * * * * * * * * * * * * * * * * * * * * * * * * * * * * * * * * * //

dimensions      [0 0 -1 0 0 0 0];

internalField   nonuniform List<scalar> 
400
(
1.7434e-10
4.66192e-12
5.93666e-12
5.45474e-12
4.48471e-12
3.70042e-12
3.08972e-12
2.68472e-12
2.38182e-12
2.14916e-12
2.00432e-12
1.85528e-12
1.77221e-12
1.69177e-12
1.62284e-12
1.53228e-12
1.32844e-12
1.22009e-12
1.97993e-12
6.50521e-13
7.34547e-12
3.89875e-12
4.76414e-12
4.56286e-12
4.03215e-12
3.42209e-12
3.00561e-12
2.59995e-12
2.38343e-12
2.18675e-12
2.01083e-12
1.85966e-12
1.80326e-12
1.7116e-12
1.63417e-12
1.47087e-12
1.43382e-12
1.50304e-12
1.10377e-12
1.13841e-12
-6.28837e-12
1.0936e-12
2.67262e-12
3.18068e-12
3.06056e-12
2.82575e-12
2.53518e-12
2.32109e-12
2.1403e-12
1.97771e-12
1.86715e-12
1.73769e-12
1.66458e-12
1.59383e-12
1.55049e-12
1.43234e-12
1.22803e-12
1.08058e-12
2.14594e-12
4.06576e-13
3.17129e-12
7.9774e-13
1.66132e-12
2.09759e-12
2.24917e-12
2.18822e-12
2.05949e-12
1.95778e-12
1.80815e-12
1.7416e-12
1.59809e-12
1.55543e-12
1.46423e-12
1.42858e-12
1.36265e-12
1.20047e-12
1.20362e-12
1.43401e-12
5.80328e-13
1.0842e-12
-6.4239e-12
-3.2495e-13
7.09449e-13
1.23769e-12
1.48649e-12
1.55194e-12
1.55482e-12
1.53232e-12
1.45439e-12
1.38619e-12
1.34745e-12
1.27904e-12
1.21813e-12
1.20025e-12
1.14082e-12
1.08059e-12
9.06823e-13
5.84474e-13
2.03839e-12
1.0842e-13
3.11708e-12
7.33323e-14
3.53264e-13
6.42798e-13
8.98193e-13
1.01499e-12
1.06758e-12
1.06622e-12
1.0621e-12
1.02894e-12
9.92671e-13
1.00166e-12
9.31598e-13
9.64485e-13
8.94485e-13
7.46856e-13
7.86425e-13
1.21673e-12
-4.42753e-14
9.21572e-13
-5.58364e-12
-7.42472e-13
-1.79826e-13
1.57456e-13
3.80109e-13
5.11811e-13
5.93276e-13
6.5918e-13
6.41099e-13
6.70855e-13
6.34233e-13
6.40167e-13
6.63922e-13
6.32444e-13
6.28225e-13
5.91905e-13
4.61769e-13
2.98439e-14
1.66862e-12
-1.89735e-13
2.71051e-12
-3.33911e-13
-3.53665e-13
-2.49623e-13
-1.15406e-13
3.72833e-14
1.09109e-13
1.98868e-13
2.42348e-13
2.38975e-13
3.14176e-13
2.94697e-13
3.47179e-13
3.53505e-13
3.32018e-13
2.27574e-13
2.80436e-13
8.18178e-13
-6.6884e-13
6.23416e-13
-5.52943e-12
-1.17695e-12
-8.68948e-13
-6.80872e-13
-5.49262e-13
-4.33368e-13
-3.50804e-13
-2.24205e-13
-2.2559e-13
-1.20495e-13
-9.72277e-14
-6.62093e-14
-2.58355e-14
5.84346e-15
1.27274e-14
6.18852e-14
-9.63721e-14
-5.37827e-13
1.12411e-12
-5.69206e-13
1.27394e-12
-9.91394e-13
-1.13872e-12
-1.06948e-12
-1.00883e-12
-9.03628e-13
-7.95114e-13
-7.03068e-13
-6.23746e-13
-5.57884e-13
-4.53363e-13
-4.31386e-13
-3.64815e-13
-3.18925e-13
-3.04136e-13
-3.41912e-13
-2.58243e-13
2.47739e-13
-1.27563e-12
2.71051e-13
-5.85469e-12
-1.78421e-12
-1.61034e-12
-1.51794e-12
-1.4406e-12
-1.30614e-12
-1.23707e-12
-1.09682e-12
-1.03288e-12
-9.0439e-13
-8.43271e-13
-7.5569e-13
-7.51316e-13
-6.49779e-13
-6.54581e-13
-5.65393e-13
-6.52077e-13
-1.14724e-12
3.99848e-13
-7.86047e-13
-7.31836e-13
-1.76063e-12
-1.88456e-12
-1.85926e-12
-1.8341e-12
-1.70889e-12
-1.58328e-12
-1.50792e-12
-1.37028e-12
-1.28763e-12
-1.1894e-12
-1.1033e-12
-1.03887e-12
-9.82879e-13
-9.66325e-13
-9.95566e-13
-8.45686e-13
-3.25425e-13
-1.76279e-12
-1.6263e-13
-6.07153e-12
-2.41157e-12
-2.27643e-12
-2.22903e-12
-2.15454e-12
-2.08402e-12
-1.93718e-12
-1.81112e-12
-1.711e-12
-1.60314e-12
-1.49857e-12
-1.41891e-12
-1.34257e-12
-1.30815e-12
-1.25388e-12
-1.14497e-12
-1.141e-12
-1.58295e-12
-3.37726e-13
-9.75782e-13
-2.6563e-12
-2.42403e-12
-2.51048e-12
-2.49524e-12
-2.41771e-12
-2.34895e-12
-2.22979e-12
-2.09077e-12
-2.01572e-12
-1.87937e-12
-1.77128e-12
-1.68497e-12
-1.58479e-12
-1.5473e-12
-1.48404e-12
-1.4533e-12
-1.31297e-12
-8.28552e-13
-2.02629e-12
-4.87891e-13
-5.85469e-12
-2.80436e-12
-2.6718e-12
-2.67909e-12
-2.59165e-12
-2.52183e-12
-2.42446e-12
-2.30539e-12
-2.16966e-12
-2.08097e-12
-1.96356e-12
-1.87613e-12
-1.78519e-12
-1.74498e-12
-1.66808e-12
-1.51197e-12
-1.46059e-12
-1.78434e-12
-8.74436e-13
-1.00289e-12
-4.06576e-12
-2.77347e-12
-2.74252e-12
-2.73165e-12
-2.65767e-12
-2.58856e-12
-2.52745e-12
-2.3828e-12
-2.25123e-12
-2.17844e-12
-2.07437e-12
-1.97404e-12
-1.90346e-12
-1.83938e-12
-1.78304e-12
-1.67134e-12
-1.51979e-12
-1.10315e-12
-2.01266e-12
-7.31836e-13
-5.17707e-12
-2.8125e-12
-2.76616e-12
-2.68677e-12
-2.69475e-12
-2.58021e-12
-2.5442e-12
-2.39083e-12
-2.3441e-12
-2.22265e-12
-2.12342e-12
-2.03805e-12
-2.01221e-12
-1.9232e-12
-1.87818e-12
-1.70286e-12
-1.53914e-12
-1.75158e-12
-1.48833e-12
-1.02999e-12
-4.55365e-12
-2.7033e-12
-2.67461e-12
-2.65737e-12
-2.59849e-12
-2.52952e-12
-2.46027e-12
-2.39401e-12
-2.31126e-12
-2.20844e-12
-2.15109e-12
-2.10212e-12
-2.0067e-12
-1.9849e-12
-1.89571e-12
-1.75386e-12
-1.58939e-12
-1.42881e-12
-1.96861e-12
-9.48677e-13
-4.44523e-12
-2.50977e-12
-2.45145e-12
-2.42524e-12
-2.39941e-12
-2.37566e-12
-2.30143e-12
-2.22751e-12
-2.17863e-12
-2.13645e-12
-2.07969e-12
-1.98178e-12
-1.95179e-12
-1.91686e-12
-1.83973e-12
-1.67653e-12
-1.47298e-12
-1.65661e-12
-1.87844e-12
-9.48677e-13
-1.84314e-12
-1.19262e-12
-1.19262e-12
-1.19262e-12
-1.11131e-12
-1.11131e-12
-1.11131e-12
-1.0571e-12
-1.02999e-12
-1.00289e-12
-9.75782e-13
-9.75782e-13
-9.48677e-13
-9.21572e-13
-8.40257e-13
-7.58942e-13
-7.58942e-13
-8.94467e-13
-9.48677e-13
0
)
;

boundaryField
{
    movingWall
    {
        type            extrapolatedCalculated;
        value           nonuniform List<scalar> 
20
(
-1.84314e-12
-1.19262e-12
-1.19262e-12
-1.19262e-12
-1.11131e-12
-1.11131e-12
-1.11131e-12
-1.0571e-12
-1.02999e-12
-1.00289e-12
-9.75782e-13
-9.75782e-13
-9.48677e-13
-9.21572e-13
-8.40257e-13
-7.58942e-13
-7.58942e-13
-8.94467e-13
-9.48677e-13
0
)
;
    }
    fixedWalls
    {
        type            extrapolatedCalculated;
        value           nonuniform List<scalar> 
60
(
1.7434e-10
7.34547e-12
-6.28837e-12
3.17129e-12
-6.4239e-12
3.11708e-12
-5.58364e-12
2.71051e-12
-5.52943e-12
1.27394e-12
-5.85469e-12
-7.31836e-13
-6.07153e-12
-2.6563e-12
-5.85469e-12
-4.06576e-12
-5.17707e-12
-4.55365e-12
-4.44523e-12
-1.84314e-12
6.50521e-13
1.13841e-12
4.06576e-13
1.0842e-12
1.0842e-13
9.21572e-13
-1.89735e-13
6.23416e-13
-5.69206e-13
2.71051e-13
-7.86047e-13
-1.6263e-13
-9.75782e-13
-4.87891e-13
-1.00289e-12
-7.31836e-13
-1.02999e-12
-9.48677e-13
-9.48677e-13
0
1.7434e-10
4.66192e-12
5.93666e-12
5.45474e-12
4.48471e-12
3.70042e-12
3.08972e-12
2.68472e-12
2.38182e-12
2.14916e-12
2.00432e-12
1.85528e-12
1.77221e-12
1.69177e-12
1.62284e-12
1.53228e-12
1.32844e-12
1.22009e-12
1.97993e-12
6.50521e-13
)
;
    }
    frontAndBack
    {
        type            empty;
    }
}


// ************************************************************************* //
