/*--------------------------------*- C++ -*----------------------------------*\
| =========                 |                                                 |
| \\      /  F ield         | OpenFOAM: The Open Source CFD Toolbox           |
|  \\    /   O peration     | Version:  2506                                  |
|   \\  /    A nd           | Website:  www.openfoam.com                      |
|    \\/     M anipulation  |                                                 |
\*---------------------------------------------------------------------------*/
FoamFile
{
    version     2.0;
    format      ascii;
    arch        "LSB;label=32;scalar=64";
    class       volScalarField;
    location    "3.25";
    object      divU;
}
// * * * * * * * * * * * * * * * * * * * * * * * * * * * * * * * * * * * * * //

dimensions      [0 0 -1 0 0 0 0];

internalField   nonuniform List<scalar> 
400
(
-1.39602e-07
-9.81405e-07
1.36118e-07
-8.2026e-08
9.32457e-09
-4.63049e-09
1.0099e-09
-2.13647e-10
7.33675e-11
-1.18024e-11
6.02882e-12
1.87974e-12
4.14118e-12
2.66214e-12
2.50213e-12
2.66387e-12
-4.81631e-13
-1.81859e-12
7.99403e-12
1.6263e-13
1.08439e-07
3.43008e-06
-5.64217e-07
3.1221e-07
-4.82057e-08
2.07292e-08
-5.17686e-09
1.30035e-09
-4.27816e-10
1.05279e-10
-2.85786e-11
9.72577e-12
-1.38939e-13
2.10502e-12
2.29604e-12
-4.82843e-13
-3.26297e-12
3.25051e-12
8.57268e-12
-1.24683e-12
-2.68537e-07
-5.77858e-06
9.28784e-07
-5.22101e-07
7.7772e-08
-3.38852e-08
8.27915e-09
-2.04813e-09
6.8763e-10
-1.53867e-10
4.70564e-11
-1.0459e-11
5.85066e-12
2.35555e-13
2.14234e-12
3.22308e-12
-2.16429e-12
-3.59326e-12
6.52292e-12
6.77626e-13
-1.31572e-07
9.01802e-06
-1.50407e-06
8.15796e-07
-1.27681e-07
5.40607e-08
-1.34474e-08
3.39965e-09
-1.1331e-09
2.68507e-10
-7.66415e-11
2.29525e-11
-3.95556e-12
3.23974e-12
2.41948e-12
-1.14294e-12
-3.80323e-12
3.98829e-12
8.90539e-12
-1.81604e-12
4.60332e-07
-1.22269e-05
2.04499e-06
-1.10514e-06
1.73653e-07
-7.34554e-08
1.81257e-08
-4.62638e-09
1.56177e-09
-3.56662e-10
1.06182e-10
-2.9115e-11
8.77159e-12
-1.99473e-12
1.68728e-12
2.42416e-12
-2.20876e-12
-4.2399e-12
5.56e-12
8.94467e-13
-1.49351e-06
1.62448e-05
-2.77453e-06
1.46882e-06
-2.3731e-07
9.83334e-08
-2.47633e-08
6.24958e-09
-2.14412e-09
4.86797e-10
-1.49275e-10
3.90585e-11
-1.10298e-11
3.98575e-12
1.96691e-12
-2.61283e-12
-5.48125e-12
4.52358e-12
8.63096e-12
-2.1413e-12
3.32732e-06
-2.08423e-05
3.64296e-06
-1.88877e-06
3.13303e-07
-1.28991e-07
3.2094e-08
-8.42596e-09
2.84509e-09
-6.65291e-10
1.92837e-10
-5.85193e-11
1.3364e-11
-4.81158e-12
1.50754e-12
1.42102e-12
-2.62397e-12
-4.61285e-12
4.48991e-12
9.75782e-13
-6.18382e-06
2.52797e-05
-4.47995e-06
2.29883e-06
-3.84752e-07
1.57647e-07
-3.98487e-08
1.02297e-08
-3.59993e-09
7.85941e-10
-2.57373e-10
6.45149e-11
-1.97681e-11
6.22641e-12
1.60061e-12
-3.81975e-12
-6.67666e-12
4.90262e-12
7.86798e-12
-2.1413e-12
1.33085e-05
-3.02156e-05
5.59636e-06
-2.76495e-06
4.70899e-07
-1.95961e-07
4.75397e-08
-1.314e-08
4.34167e-09
-1.01683e-09
3.10794e-10
-8.76659e-11
2.22635e-11
-6.62134e-12
2.53181e-12
3.67857e-13
-3.07497e-12
-4.32554e-12
3.33004e-12
1.0571e-12
-2.00645e-05
3.32746e-05
-6.37399e-06
3.05829e-06
-5.40359e-07
2.21921e-07
-5.43466e-08
1.52731e-08
-4.99553e-09
1.18897e-09
-3.65388e-10
1.01283e-10
-2.73225e-11
1.02382e-11
1.65685e-12
-4.29344e-12
-7.63817e-12
5.12491e-12
6.86146e-12
-2.00577e-12
2.24166e-05
-3.3962e-05
6.63436e-06
-3.13852e-06
5.78755e-07
-2.33634e-07
5.87488e-08
-1.65555e-08
5.48156e-09
-1.30168e-09
4.17523e-10
-1.10887e-10
3.20018e-11
-7.6382e-12
3.83013e-12
-7.92018e-13
-3.59739e-12
-3.67947e-12
2.3744e-12
1.0571e-12
-2.22774e-05
3.25846e-05
-6.42287e-06
3.01477e-06
-5.62433e-07
2.26271e-07
-5.69625e-08
1.62281e-08
-5.33031e-09
1.30162e-09
-4.01905e-10
1.14271e-10
-3.11494e-11
1.19267e-11
1.55273e-12
-4.99611e-12
-8.47979e-12
4.82282e-12
5.60279e-12
-1.70762e-12
2.13715e-05
-3.06263e-05
6.10245e-06
-2.84165e-06
5.40795e-07
-2.1576e-07
5.51017e-08
-1.57404e-08
5.18193e-09
-1.27163e-09
4.00143e-10
-1.11863e-10
3.00868e-11
-8.08079e-12
3.58264e-12
-2.36771e-12
-4.28889e-12
-2.64172e-12
1.31576e-12
9.48677e-13
-1.93754e-05
2.74822e-05
-5.48421e-06
2.54928e-06
-4.85246e-07
1.93859e-07
-4.93121e-08
1.41426e-08
-4.66137e-09
1.1412e-09
-3.6238e-10
9.7408e-11
-3.09879e-11
9.67184e-12
8.77684e-13
-5.6849e-12
-9.02942e-12
3.83053e-12
3.74673e-12
-1.11131e-12
1.71943e-05
-2.41838e-05
4.85802e-06
-2.24867e-06
4.34526e-07
-1.72481e-07
4.45088e-08
-1.27567e-08
4.19421e-09
-1.05453e-09
3.21555e-10
-9.73352e-11
2.18631e-11
-7.84647e-12
2.30577e-12
-4.65738e-12
-5.64408e-12
-1.39816e-12
-3.07489e-14
7.86047e-13
-1.45702e-05
2.03426e-05
-4.07354e-06
1.88623e-06
-3.62162e-07
1.43696e-07
-3.68539e-08
1.0497e-08
-3.49799e-09
8.34822e-10
-2.82187e-10
6.3651e-11
-3.00157e-11
3.27175e-12
-2.04402e-12
-7.89095e-12
-9.52092e-12
3.02688e-12
2.26125e-12
-4.06576e-13
1.25422e-05
-1.73373e-05
3.54782e-06
-1.61337e-06
3.20459e-07
-1.25238e-07
3.27934e-08
-9.43044e-09
3.05134e-09
-8.01304e-10
2.34091e-10
-7.44825e-11
1.65427e-11
-3.69485e-12
4.87396e-12
-1.85603e-12
-2.30876e-12
1.98525e-12
-1.39452e-13
5.42101e-14
-8.09016e-06
1.13338e-05
-2.22974e-06
1.05639e-06
-1.99279e-07
8.02603e-08
-2.06895e-08
5.83907e-09
-1.96082e-09
4.71217e-10
-1.53623e-10
3.84976e-11
-1.55367e-11
4.87297e-12
2.19139e-12
-5.13927e-12
-1.02077e-11
-1.08439e-12
2.66992e-13
-2.71051e-14
6.53763e-06
-8.78988e-06
1.8001e-06
-8.09671e-07
1.58205e-07
-6.11082e-08
1.60593e-08
-4.47937e-09
1.42228e-09
-3.81216e-10
9.48642e-11
-4.77972e-11
-6.64847e-12
-1.05153e-11
-6.66729e-12
-1.62973e-11
-1.40263e-11
3.59676e-13
-5.38195e-13
1.19262e-12
-4.11875e-06
5.28595e-06
-1.23954e-06
5.15148e-07
-1.17744e-07
4.37618e-08
-1.15945e-08
3.66509e-09
-1.0639e-09
3.3014e-10
-8.54622e-11
3.37187e-11
-3.7676e-12
1.22515e-11
6.66784e-12
-1.57209e-12
2.1684e-12
9.75782e-12
-3.08998e-12
9.75782e-13
)
;

boundaryField
{
    movingWall
    {
        type            extrapolatedCalculated;
        value           nonuniform List<scalar> 
20
(
-4.11875e-06
5.28595e-06
-1.23954e-06
5.15148e-07
-1.17744e-07
4.37618e-08
-1.15945e-08
3.66509e-09
-1.0639e-09
3.3014e-10
-8.54622e-11
3.37187e-11
-3.7676e-12
1.22515e-11
6.66784e-12
-1.57209e-12
2.1684e-12
9.75782e-12
-3.08998e-12
9.75782e-13
)
;
    }
    fixedWalls
    {
        type            extrapolatedCalculated;
        value           nonuniform List<scalar> 
60
(
-1.39602e-07
1.08439e-07
-2.68537e-07
-1.31572e-07
4.60332e-07
-1.49351e-06
3.32732e-06
-6.18382e-06
1.33085e-05
-2.00645e-05
2.24166e-05
-2.22774e-05
2.13715e-05
-1.93754e-05
1.71943e-05
-1.45702e-05
1.25422e-05
-8.09016e-06
6.53763e-06
-4.11875e-06
1.6263e-13
-1.24683e-12
6.77626e-13
-1.81604e-12
8.94467e-13
-2.1413e-12
9.75782e-13
-2.1413e-12
1.0571e-12
-2.00577e-12
1.0571e-12
-1.70762e-12
9.48677e-13
-1.11131e-12
7.86047e-13
-4.06576e-13
5.42101e-14
-2.71051e-14
1.19262e-12
9.75782e-13
-1.39602e-07
-9.81405e-07
1.36118e-07
-8.2026e-08
9.32457e-09
-4.63049e-09
1.0099e-09
-2.13647e-10
7.33675e-11
-1.18024e-11
6.02882e-12
1.87974e-12
4.14118e-12
2.66214e-12
2.50213e-12
2.66387e-12
-4.81631e-13
-1.81859e-12
7.99403e-12
1.6263e-13
)
;
    }
    frontAndBack
    {
        type            empty;
    }
}


// ************************************************************************* //
