/*--------------------------------*- C++ -*----------------------------------*\
| =========                 |                                                 |
| \\      /  F ield         | OpenFOAM: The Open Source CFD Toolbox           |
|  \\    /   O peration     | Version:  2506                                  |
|   \\  /    A nd           | Website:  www.openfoam.com                      |
|    \\/     M anipulation  |                                                 |
\*---------------------------------------------------------------------------*/
FoamFile
{
    version     2.0;
    format      ascii;
    arch        "LSB;label=32;scalar=64";
    class       volScalarField;
    location    "3.25";
    object      enstrophyField;
}
// * * * * * * * * * * * * * * * * * * * * * * * * * * * * * * * * * * * * * //

dimensions      [0 0 -2 0 0 0 0];

internalField   nonuniform List<scalar> 
400
(
3.27364e-10
3.85835e-10
2.00439e-11
1.11159e-12
5.64299e-14
3.42856e-15
1.05397e-16
2.94075e-17
2.18069e-18
4.03981e-18
2.21953e-18
1.49869e-18
8.62068e-19
4.64536e-19
2.21503e-19
9.11327e-20
2.96316e-20
5.31604e-21
1.13536e-22
1.96849e-24
4.45808e-10
4.36746e-10
2.34462e-11
1.25815e-12
6.7416e-14
3.62084e-15
1.92379e-16
1.05262e-17
5.40036e-19
2.74359e-20
3.7079e-21
6.22814e-22
2.37298e-21
2.94916e-21
3.32404e-21
2.80702e-21
2.04769e-21
3.45346e-21
5.14569e-21
3.82911e-22
5.43988e-10
5.21184e-10
2.79628e-11
1.49807e-12
8.03355e-14
4.27592e-15
2.32814e-16
1.17143e-17
7.33748e-19
2.92342e-20
8.64172e-22
2.54795e-21
4.00649e-21
6.94377e-21
8.10194e-21
7.19206e-21
5.37517e-21
9.27266e-21
1.38923e-20
1.0752e-21
6.9451e-10
6.63254e-10
3.55977e-11
1.90885e-12
1.02061e-13
5.49306e-15
2.87203e-16
1.64644e-17
7.18528e-19
5.37998e-20
4.62156e-21
2.01583e-21
8.66186e-21
1.287e-20
1.54508e-20
1.37141e-20
1.03156e-20
1.75871e-20
2.6109e-20
2.05974e-21
9.07926e-10
8.85787e-10
4.77605e-11
2.57005e-12
1.38439e-13
7.38603e-15
4.05526e-16
2.01188e-17
1.31843e-18
4.88403e-20
1.03138e-21
7.04015e-21
1.22187e-20
2.06614e-20
2.42041e-20
2.16411e-20
1.63498e-20
2.7618e-20
4.07245e-20
3.32813e-21
1.24302e-09
1.22089e-09
6.61247e-11
3.57706e-12
1.9287e-13
1.04708e-14
5.51397e-16
3.19416e-17
1.398e-18
1.05001e-19
9.88049e-21
4.77397e-21
1.92875e-20
2.85612e-20
3.42342e-20
3.05754e-20
2.32777e-20
3.87186e-20
5.63959e-20
4.72405e-21
1.61587e-09
1.67959e-09
9.16336e-11
4.98992e-12
2.71963e-13
1.46909e-14
8.14459e-16
4.11754e-17
2.66976e-18
1.06436e-19
2.07835e-21
1.36987e-20
2.24919e-20
3.77465e-20
4.40832e-20
3.96822e-20
3.03549e-20
4.97865e-20
7.15517e-20
6.16386e-21
2.05588e-09
2.28462e-09
1.25563e-10
6.88869e-12
3.76714e-13
2.07155e-14
1.10972e-15
6.43449e-17
2.96663e-18
2.07799e-19
2.04635e-20
7.45431e-21
3.10422e-20
4.47769e-20
5.35635e-20
4.8125e-20
3.70751e-20
5.97604e-20
8.47851e-20
7.47972e-21
2.36217e-09
2.95541e-09
1.64476e-10
9.12777e-12
5.06697e-13
2.79246e-14
1.5711e-15
8.21632e-17
5.20036e-18
2.32916e-19
4.81053e-21
2.16847e-20
3.13955e-20
5.26161e-20
6.08293e-20
5.51825e-20
4.26638e-20
6.76208e-20
9.45773e-20
8.51208e-21
2.3228e-09
3.41835e-09
1.93524e-10
1.09506e-11
6.18031e-13
3.50086e-14
1.93949e-15
1.14085e-16
5.63972e-18
3.70643e-19
3.75136e-20
8.83331e-21
4.00315e-20
5.5502e-20
6.62047e-20
5.96354e-20
4.63038e-20
7.22671e-20
1.00166e-19
9.20154e-21
2.29478e-09
3.75273e-09
2.12789e-10
1.20549e-11
6.83772e-13
3.8577e-14
2.2167e-15
1.20254e-16
7.59705e-18
3.78357e-19
8.14261e-21
2.79312e-20
3.53932e-20
5.92108e-20
6.76071e-20
6.14287e-20
4.765e-20
7.34568e-20
1.00965e-19
9.39297e-21
2.3738e-09
4.08471e-09
2.31588e-10
1.31233e-11
7.4273e-13
4.22502e-14
2.36492e-15
1.396e-16
7.18876e-18
4.54408e-19
4.87986e-20
8.84639e-21
4.1626e-20
5.57235e-20
6.60696e-20
5.93185e-20
4.59991e-20
7.0339e-20
9.70939e-20
9.17518e-21
2.44707e-09
4.37272e-09
2.48125e-10
1.40713e-11
7.99266e-13
4.523e-14
2.59911e-15
1.42613e-16
8.81115e-18
4.63391e-19
9.92684e-21
2.81835e-20
3.21195e-20
5.34816e-20
6.02907e-20
5.45287e-20
4.19588e-20
6.39163e-20
8.87946e-20
8.47325e-21
2.52009e-09
4.63952e-09
2.63251e-10
1.49343e-11
8.46706e-13
4.82063e-14
2.71007e-15
1.58718e-16
8.3878e-18
5.06223e-19
5.32464e-20
6.49385e-21
3.42597e-20
4.41558e-20
5.21595e-20
4.63658e-20
3.54064e-20
5.41516e-20
7.68538e-20
7.46723e-21
2.62113e-09
4.87936e-09
2.77e-10
1.57168e-11
8.92867e-13
5.05806e-14
2.89782e-15
1.60483e-16
9.67463e-18
5.29228e-19
1.32608e-20
2.29622e-20
2.20781e-20
3.74031e-20
4.15127e-20
3.71745e-20
2.80689e-20
4.30788e-20
6.20042e-20
6.06303e-21
2.78657e-09
5.1124e-09
2.90333e-10
1.64838e-11
9.35569e-13
5.32596e-14
3.0062e-15
1.74469e-16
9.47449e-18
5.50981e-19
5.31626e-20
2.90964e-21
2.17168e-20
2.63528e-20
3.10635e-20
2.721e-20
2.04619e-20
3.15171e-20
4.59194e-20
4.5131e-21
2.68524e-09
5.2202e-09
2.96063e-10
1.67801e-11
9.51753e-13
5.3888e-14
3.07217e-15
1.71627e-16
1.00578e-17
5.71396e-19
1.71304e-20
1.54921e-20
1.08899e-20
1.92399e-20
2.07901e-20
1.84776e-20
1.38161e-20
2.11932e-20
3.06827e-20
2.91953e-21
2.84816e-09
5.39163e-09
3.05843e-10
1.73403e-11
9.82955e-13
5.58134e-14
3.15417e-15
1.80995e-16
1.00224e-17
5.71511e-19
4.5791e-20
2.20634e-22
8.47297e-21
9.07869e-21
1.09115e-20
9.24867e-21
6.6836e-21
1.10047e-20
1.76191e-20
1.69342e-21
3.15975e-09
5.56912e-09
3.1701e-10
1.80399e-11
1.0272e-12
5.84943e-14
3.33948e-15
1.89473e-16
1.09507e-17
6.19512e-19
3.06296e-20
4.95179e-21
7.21904e-22
2.37102e-21
2.32214e-21
1.7598e-21
9.01889e-22
2.54318e-21
7.24486e-21
9.07998e-22
3.38045e-09
5.69227e-09
3.37557e-10
1.89934e-11
1.15868e-12
6.25984e-14
4.60164e-15
1.28328e-16
4.82111e-17
2.51365e-18
4.84977e-18
2.11243e-18
1.30883e-18
6.53406e-19
3.05303e-19
1.23298e-19
4.25107e-20
8.84935e-21
3.65079e-22
3.40746e-24
)
;

boundaryField
{
    movingWall
    {
        type            calculated;
        value           nonuniform List<scalar> 
20
(
6.32379e-09
6.4388e-09
4.16925e-10
2.30802e-11
1.57319e-12
8.32122e-14
7.56946e-15
1.2827e-16
1.30299e-16
1.45122e-17
1.86574e-17
8.78364e-18
5.3009e-18
2.66046e-18
1.24274e-18
5.09376e-19
1.81902e-19
3.46218e-20
6.41039e-23
1.14898e-22
)
;
    }
    fixedWalls
    {
        type            calculated;
        value           nonuniform List<scalar> 
60
(
6.96415e-09
7.98699e-09
9.53106e-09
1.21172e-08
1.61482e-08
2.21909e-08
3.04398e-08
4.12307e-08
5.30321e-08
6.10046e-08
6.70472e-08
7.30285e-08
7.82061e-08
8.30038e-08
8.72941e-08
9.14164e-08
9.34735e-08
9.6501e-08
9.93356e-08
1.02131e-07
2.22856e-22
7.92836e-22
2.02995e-21
3.68848e-21
5.47249e-21
7.24634e-21
8.747e-21
9.89902e-21
1.06105e-20
1.08768e-20
1.07466e-20
1.02408e-20
9.39036e-21
8.17575e-21
6.72004e-21
5.08419e-21
3.62942e-21
2.25049e-21
9.4528e-22
4.4157e-22
1.42791e-10
3.46705e-10
1.59774e-11
9.69736e-13
4.26258e-14
2.98144e-15
3.69085e-17
5.38578e-17
1.38583e-17
1.44589e-17
9.01048e-18
5.84272e-18
3.38379e-18
1.80389e-18
8.51424e-19
3.45132e-19
1.10933e-19
1.64842e-20
1.73987e-23
2.0221e-23
)
;
    }
    frontAndBack
    {
        type            empty;
    }
}


// ************************************************************************* //
