/*--------------------------------*- C++ -*----------------------------------*\
| =========                 |                                                 |
| \\      /  F ield         | OpenFOAM: The Open Source CFD Toolbox           |
|  \\    /   O peration     | Version:  2506                                  |
|   \\  /    A nd           | Website:  www.openfoam.com                      |
|    \\/     M anipulation  |                                                 |
\*---------------------------------------------------------------------------*/
FoamFile
{
    version     2.0;
    format      ascii;
    arch        "LSB;label=32;scalar=64";
    class       volScalarField;
    location    "3.25";
    object      flowTypeField;
}
// * * * * * * * * * * * * * * * * * * * * * * * * * * * * * * * * * * * * * //

dimensions      [0 0 0 0 0 0 0];

internalField   nonuniform List<scalar> 
400
(
-0.144339
-0.0215154
-0.0448602
-0.0352127
-0.0452566
-0.117437
0.153251
-0.767564
0.310689
-0.0387184
0.0567434
0.0418551
0.0604323
0.073907
0.0978752
0.135995
0.219288
0.408718
0.750211
0.883342
-0.236232
-0.0288778
-0.0765295
-0.030805
-0.0877211
-0.0601685
-0.0690008
-0.10562
0.20266
0.580229
0.836834
0.921616
0.838333
0.793281
0.740078
0.701852
0.675963
0.501122
0.138204
0.134232
-0.195269
-0.0149723
-0.0689522
0.00179978
-0.0684261
-0.015838
-0.015216
0.0115563
-0.0206814
0.666746
0.913563
0.853595
0.795836
0.703257
0.626519
0.566145
0.529438
0.33375
0.0521358
0.0475895
-0.138083
0.00771334
-0.0516356
0.0506316
-0.036885
0.0598891
0.076506
0.015262
0.398276
0.441291
0.838818
0.86599
0.719247
0.618635
0.524043
0.458399
0.411914
0.213317
0.0223536
0.008767
-0.0897302
0.0258531
-0.0343444
0.0824896
-0.00686785
0.105414
0.101597
0.187248
0.0728787
0.679595
0.907027
0.77931
0.673621
0.546943
0.445504
0.37062
0.321931
0.153904
0.00926544
-0.00146858
-0.062822
0.0400076
-0.0223637
0.108397
0.0136614
0.134392
0.172113
0.093955
0.466488
0.28607
0.79743
0.803568
0.615381
0.488503
0.380627
0.308533
0.253425
0.100398
0.00239691
-0.00849552
-0.0239075
0.0554773
-0.00240129
0.132989
0.0418617
0.179605
0.169982
0.276468
0.195245
0.651381
0.868071
0.71481
0.582636
0.439924
0.331813
0.2551
0.199762
0.0775239
-0.000718332
-0.00895284
0.0007522
0.0631486
0.0082957
0.142972
0.0573813
0.180094
0.226991
0.163959
0.4825
0.208323
0.74219
0.75649
0.53604
0.401364
0.292795
0.22055
0.162402
0.0538177
-0.0030401
-0.00987017
0.0356069
0.0727228
0.0264107
0.159368
0.0679747
0.219744
0.197877
0.303895
0.299434
0.582354
0.809458
0.64969
0.518816
0.370096
0.266036
0.1913
0.133323
0.0448727
-0.00319955
-0.00828397
0.0878693
0.0790078
0.0495086
0.162259
0.0975719
0.219195
0.240399
0.251349
0.449965
0.33501
0.665334
0.732549
0.479777
0.353492
0.248013
0.176979
0.118994
0.0374041
-0.00370847
-0.00796564
0.123036
0.0791336
0.0619977
0.161305
0.113838
0.231429
0.241014
0.314216
0.374153
0.517957
0.783696
0.596091
0.490935
0.34059
0.243056
0.170319
0.111519
0.0354476
-0.00286797
-0.00713568
0.132577
0.0717323
0.0619652
0.147239
0.111261
0.214929
0.234257
0.273398
0.41123
0.396889
0.599979
0.735358
0.466109
0.353823
0.250117
0.178263
0.12
0.0409286
-0.00301226
-0.00663683
0.138068
0.0642269
0.0606055
0.131512
0.106519
0.197896
0.215099
0.27595
0.353162
0.443416
0.781599
0.583126
0.517295
0.366386
0.272769
0.198309
0.137413
0.0481281
-0.00105859
-0.00795617
0.139799
0.0550811
0.0564787
0.112044
0.0951984
0.171898
0.190544
0.232338
0.340613
0.382163
0.557639
0.781354
0.513207
0.415713
0.309852
0.234309
0.175053
0.0713156
0.000138196
-0.00885651
0.134219
0.04582
0.0513233
0.0922661
0.0848091
0.146663
0.16306
0.217415
0.282418
0.375195
0.762293
0.628755
0.603119
0.4562
0.364639
0.286394
0.225144
0.0974056
0.00688779
-0.00810804
0.117265
0.0352039
0.0423228
0.0700076
0.0673675
0.111934
0.131225
0.155587
0.250967
0.327805
0.564437
0.861763
0.615646
0.535818
0.431564
0.353796
0.292056
0.144346
0.0141454
-0.00277805
0.140834
0.0353645
0.0479123
0.0671849
0.0728161
0.113034
0.122881
0.181483
0.215423
0.34899
0.756786
0.709477
0.724107
0.593116
0.510191
0.429494
0.367534
0.194364
0.0273188
0.0100585
0.118696
0.0242793
0.0379932
0.0427177
0.0565064
0.0695153
0.0955026
0.0948703
0.192644
0.293012
0.635399
0.963499
0.760166
0.711062
0.625849
0.563575
0.516735
0.318953
0.0464836
0.00910718
0.0773657
0.0133446
0.0222951
0.0223188
0.0255025
0.0414292
0.0304609
0.0742259
0.0879576
0.295449
0.715486
0.844179
0.92769
0.846536
0.813641
0.788247
0.796759
0.598675
0.139571
0.0051457
0.0462144
0.00749717
0.0120606
0.0135038
0.00703186
0.04451
-0.0591878
0.283811
-0.708173
0.396111
-0.078874
0.0864569
0.0467339
0.0800564
0.0964458
0.131219
0.208906
0.397358
0.691613
0.882628
)
;

boundaryField
{
    movingWall
    {
        type            calculated;
        value           nonuniform List<scalar> 
20
(
0.703987
0.2462
0.210573
0.228121
0.180418
0.218709
0.072145
0.471114
-0.31996
0.232141
-0.0608026
0.0288373
0.000387469
0.0135848
0.0136504
0.0226327
0.0516552
0.16692
0.869494
0.573723
)
;
    }
    fixedWalls
    {
        type            calculated;
        value           nonuniform List<scalar> 
60
(
-0.0275752
-0.0410915
-0.0259101
-0.000923541
0.0195737
0.0360989
0.0539343
0.063827
0.0767953
0.0862325
0.0863093
0.0782919
0.070306
0.0604723
0.0507316
0.0397525
0.039129
0.0275789
0.0180161
0.0100637
0.175174
0.101763
0.0484928
0.0252663
0.0196572
0.0131013
0.0114029
0.00915228
0.00768565
0.00743132
0.00681194
0.00784646
0.00955435
0.0145878
0.0178328
0.023801
0.0234328
0.0499683
0.168237
0.244083
0.813762
0.269645
0.310142
0.270888
0.317389
0.232236
0.601068
-0.299825
0.162177
-0.0310343
0.0201357
0.00721176
0.0128221
0.0139993
0.0193939
0.0312082
0.0644139
0.193899
0.905052
0.708339
)
;
    }
    frontAndBack
    {
        type            empty;
    }
}


// ************************************************************************* //
