/*--------------------------------*- C++ -*----------------------------------*\
| =========                 |                                                 |
| \\      /  F ield         | OpenFOAM: The Open Source CFD Toolbox           |
|  \\    /   O peration     | Version:  2506                                  |
|   \\  /    A nd           | Website:  www.openfoam.com                      |
|    \\/     M anipulation  |                                                 |
\*---------------------------------------------------------------------------*/
FoamFile
{
    version     2.0;
    format      ascii;
    arch        "LSB;label=32;scalar=64";
    class       surfaceScalarField;
    location    "3.25";
    object      fluxField;
}
// * * * * * * * * * * * * * * * * * * * * * * * * * * * * * * * * * * * * * //

dimensions      [0 3 -1 0 0 0 0];

oriented        oriented;

internalField   nonuniform List<scalar> 
760
(
-5e-05
-3.19493e-13
-5e-05
6.59645e-14
-5e-05
-1.51113e-14
-5e-05
2.86658e-15
-5e-05
-6.55618e-16
-5e-05
1.32477e-16
-5e-05
4.58996e-17
-5e-05
9.47783e-17
-5e-05
1.08304e-16
-5e-05
1.1478e-16
-5e-05
1.13675e-16
-5e-05
1.06878e-16
-5e-05
9.6113e-17
-5e-05
8.21298e-17
-5e-05
6.72023e-17
-5e-05
5.24502e-17
-5e-05
4.06185e-17
-5e-05
2.99166e-17
-5e-05
1.25898e-17
-3.35257e-18
-5e-05
6.64393e-13
-5e-05
-1.45034e-13
-5e-05
3.33882e-14
-5e-05
-7.63005e-15
-5e-05
1.53172e-15
-5e-05
-3.25084e-16
-5e-05
2.06381e-16
-5e-05
1.76734e-16
-5e-05
2.27631e-16
-5e-05
2.34758e-16
-5e-05
2.31061e-16
-5e-05
2.16046e-16
-5e-05
1.93434e-16
-5e-05
1.6479e-16
-5e-05
1.34602e-16
-5e-05
1.04742e-16
-5e-05
8.06621e-17
-5e-05
5.97255e-17
-5e-05
2.47894e-17
-6.53549e-18
-5e-05
-1.03446e-12
-5e-05
2.274e-13
-5e-05
-5.42133e-14
-5e-05
1.12954e-14
-5e-05
-2.75075e-15
-5e-05
6.85096e-16
-5e-05
1.17797e-16
-5e-05
3.42353e-16
-5e-05
3.48436e-16
-5e-05
3.64199e-16
-5e-05
3.51641e-16
-5e-05
3.26298e-16
-5e-05
2.90369e-16
-5e-05
2.46349e-16
-5e-05
2.007e-16
-5e-05
1.55908e-16
-5e-05
1.19609e-16
-5e-05
8.82976e-17
-5e-05
3.67047e-17
-9.44528e-18
-5e-05
1.44662e-12
-5e-05
-3.33918e-13
-5e-05
7.73806e-14
-5e-05
-1.85092e-14
-5e-05
4.09239e-15
-5e-05
-7.47827e-16
-5e-05
5.97373e-16
-5e-05
4.1571e-16
-5e-05
5.11439e-16
-5e-05
4.97365e-16
-5e-05
4.76652e-16
-5e-05
4.3639e-16
-5e-05
3.85563e-16
-5e-05
3.25434e-16
-5e-05
2.64208e-16
-5e-05
2.0473e-16
-5e-05
1.56597e-16
-5e-05
1.15306e-16
-5e-05
4.79729e-17
-1.20321e-17
-5e-05
-1.83778e-12
-5e-05
4.14228e-13
-5e-05
-9.85918e-14
-5e-05
2.14728e-14
-5e-05
-4.80594e-15
-5e-05
1.55367e-15
-5e-05
3.61471e-16
-5e-05
7.05855e-16
-5e-05
6.5526e-16
-5e-05
6.46669e-16
-5e-05
6.01566e-16
-5e-05
5.44777e-16
-5e-05
4.76951e-16
-5e-05
4.00304e-16
-5e-05
3.23704e-16
-5e-05
2.50128e-16
-5e-05
1.90715e-16
-5e-05
1.3988e-16
-5e-05
5.83174e-17
-1.42101e-17
-5e-05
2.24573e-12
-5e-05
-5.32772e-13
-5e-05
1.25736e-13
-5e-05
-2.95852e-14
-5e-05
7.56278e-15
-5e-05
-8.67334e-16
-5e-05
1.24213e-15
-5e-05
7.82712e-16
-5e-05
8.64989e-16
-5e-05
7.87528e-16
-5e-05
7.25743e-16
-5e-05
6.46774e-16
-5e-05
5.61522e-16
-5e-05
4.68498e-16
-5e-05
3.7734e-16
-5e-05
2.90706e-16
-5e-05
2.20898e-16
-5e-05
1.61423e-16
-5e-05
6.73861e-17
-1.59448e-17
-5e-05
-2.56128e-12
-5e-05
6.0331e-13
-5e-05
-1.44857e-13
-5e-05
3.40617e-14
-5e-05
-6.82899e-15
-5e-05
3.07458e-15
-5e-05
7.61336e-16
-5e-05
1.21358e-15
-5e-05
1.00174e-15
-5e-05
9.37537e-16
-5e-05
8.35388e-16
-5e-05
7.38111e-16
-5e-05
6.35072e-16
-5e-05
5.27203e-16
-5e-05
4.23046e-16
-5e-05
3.2506e-16
-5e-05
2.4623e-16
-5e-05
1.7917e-16
-5e-05
7.49228e-17
-1.72182e-17
-5e-05
2.60707e-12
-5e-05
-6.54609e-13
-5e-05
1.60338e-13
-5e-05
-3.48983e-14
-5e-05
1.16504e-14
-5e-05
-2.95183e-16
-5e-05
2.06849e-15
-5e-05
1.21184e-15
-5e-05
1.20727e-15
-5e-05
1.04222e-15
-5e-05
9.29436e-16
-5e-05
8.10585e-16
-5e-05
6.93759e-16
-5e-05
5.73405e-16
-5e-05
4.58808e-16
-5e-05
3.51729e-16
-5e-05
2.65654e-16
-5e-05
1.92635e-16
-5e-05
8.0653e-17
-1.80461e-17
-5e-05
-1.82972e-12
-5e-05
5.60422e-13
-5e-05
-1.22018e-13
-5e-05
4.15535e-14
-5e-05
-6.01713e-15
-5e-05
4.48992e-15
-5e-05
1.13491e-15
-5e-05
1.60933e-15
-5e-05
1.24361e-15
-5e-05
1.13551e-15
-5e-05
9.87927e-16
-5e-05
8.61153e-16
-5e-05
7.3333e-16
-5e-05
6.04705e-16
-5e-05
4.82839e-16
-5e-05
3.69568e-16
-5e-05
2.78495e-16
-5e-05
2.01285e-16
-5e-05
8.44448e-17
-1.846e-17
-5e-05
1.31909e-12
-5e-05
-3.685e-13
-5e-05
9.2926e-14
-5e-05
-2.21397e-14
-5e-05
9.15073e-15
-5e-05
2.67207e-16
-5e-05
2.23696e-15
-5e-05
1.3611e-15
-5e-05
1.35063e-15
-5e-05
1.14843e-15
-5e-05
1.02032e-15
-5e-05
8.82979e-16
-5e-05
7.52287e-16
-5e-05
6.19281e-16
-5e-05
4.94031e-16
-5e-05
3.77713e-16
-5e-05
2.8415e-16
-5e-05
2.04976e-16
-5e-05
8.61747e-17
-1.85098e-17
-5e-05
-1.13529e-12
-5e-05
3.01264e-13
-5e-05
-7.03026e-14
-5e-05
2.15604e-14
-5e-05
-3.0284e-15
-5e-05
3.09313e-15
-5e-05
1.23045e-15
-5e-05
1.52845e-15
-5e-05
1.25895e-15
-5e-05
1.15298e-15
-5e-05
1.00913e-15
-5e-05
8.8025e-16
-5e-05
7.48931e-16
-5e-05
6.16865e-16
-5e-05
4.91844e-16
-5e-05
3.75878e-16
-5e-05
2.82491e-16
-5e-05
2.03534e-16
-5e-05
8.58729e-17
-1.82294e-17
-5e-05
9.39967e-13
-5e-05
-2.45175e-13
-5e-05
6.02608e-14
-5e-05
-1.42943e-14
-5e-05
5.52329e-15
-5e-05
4.78037e-16
-5e-05
1.71518e-15
-5e-05
1.26111e-15
-5e-05
1.23779e-15
-5e-05
1.09294e-15
-5e-05
9.76394e-16
-5e-05
8.50352e-16
-5e-05
7.25506e-16
-5e-05
5.97565e-16
-5e-05
4.76549e-16
-5e-05
3.64053e-16
-5e-05
2.73484e-16
-5e-05
1.97155e-16
-5e-05
8.3529e-17
-1.76402e-17
-5e-05
-8.37748e-13
-5e-05
2.1538e-13
-5e-05
-5.05355e-14
-5e-05
1.43243e-14
-5e-05
-2.04239e-15
-5e-05
2.14561e-15
-5e-05
1.05992e-15
-5e-05
1.27494e-15
-5e-05
1.11462e-15
-5e-05
1.03063e-15
-5e-05
9.14068e-16
-5e-05
8.00541e-16
-5e-05
6.82837e-16
-5e-05
5.62802e-16
-5e-05
4.48746e-16
-5e-05
3.42775e-16
-5e-05
2.57537e-16
-5e-05
1.85883e-16
-5e-05
7.91911e-17
-1.67114e-17
-5e-05
6.90789e-13
-5e-05
-1.74638e-13
-5e-05
4.19108e-14
-5e-05
-9.89535e-15
-5e-05
3.70665e-15
-5e-05
4.91154e-16
-5e-05
1.33768e-15
-5e-05
1.06507e-15
-5e-05
1.04376e-15
-5e-05
9.3488e-16
-5e-05
8.37245e-16
-5e-05
7.30859e-16
-5e-05
6.23726e-16
-5e-05
5.13707e-16
-5e-05
4.09472e-16
-5e-05
3.12638e-16
-5e-05
2.34953e-16
-5e-05
1.69992e-16
-5e-05
7.28261e-17
-1.54021e-17
-5e-05
-5.80177e-13
-5e-05
1.34966e-13
-5e-05
-3.11008e-14
-5e-05
8.07661e-15
-5e-05
-5.66819e-16
-5e-05
1.47182e-15
-5e-05
9.98841e-16
-5e-05
1.0259e-15
-5e-05
9.24737e-16
-5e-05
8.36352e-16
-5e-05
7.41196e-16
-5e-05
6.45466e-16
-5e-05
5.49369e-16
-5e-05
4.51763e-16
-5e-05
3.59664e-16
-5e-05
2.74379e-16
-5e-05
2.06261e-16
-5e-05
1.49589e-16
-5e-05
6.44075e-17
-1.36887e-17
-5e-05
4.69036e-13
-5e-05
-1.31405e-13
-5e-05
3.37273e-14
-5e-05
-7.79919e-15
-5e-05
3.70946e-15
-5e-05
4.72277e-16
-5e-05
1.21541e-15
-5e-05
8.56529e-16
-5e-05
8.25309e-16
-5e-05
7.11714e-16
-5e-05
6.29068e-16
-5e-05
5.42591e-16
-5e-05
4.60295e-16
-5e-05
3.77409e-16
-5e-05
3.00003e-16
-5e-05
2.28691e-16
-5e-05
1.72176e-16
-5e-05
1.25386e-16
-5e-05
5.4274e-17
-1.16968e-17
-5e-05
-3.67806e-13
-5e-05
8.55119e-14
-5e-05
-1.711e-14
-5e-05
6.66227e-15
-5e-05
4.19671e-16
-5e-05
1.45189e-15
-5e-05
8.75739e-16
-5e-05
8.04683e-16
-5e-05
6.63562e-16
-5e-05
5.7788e-16
-5e-05
4.96927e-16
-5e-05
4.26654e-16
-5e-05
3.59571e-16
-5e-05
2.94122e-16
-5e-05
2.33455e-16
-5e-05
1.78104e-16
-5e-05
1.34487e-16
-5e-05
9.84472e-17
-5e-05
4.2947e-17
-9.59255e-18
-5e-05
1.94335e-13
-5e-05
-1.31012e-14
-5e-05
5.93966e-15
-5e-05
4.77738e-15
-5e-05
7.56905e-16
-5e-05
1.55892e-15
-5e-05
6.19557e-16
-5e-05
6.65611e-16
-5e-05
4.68561e-16
-5e-05
4.17017e-16
-5e-05
3.45463e-16
-5e-05
2.96043e-16
-5e-05
2.47298e-16
-5e-05
2.01789e-16
-5e-05
1.59824e-16
-5e-05
1.21894e-16
-5e-05
9.22954e-17
-5e-05
6.88197e-17
-5e-05
3.12443e-17
-7.20031e-18
-5e-05
-2.36522e-13
-5e-05
1.65194e-13
-5e-05
-3.79926e-14
-5e-05
1.91236e-14
-5e-05
-3.88815e-15
-5e-05
2.39063e-15
-5e-05
-5.01411e-17
-5e-05
4.98172e-16
-5e-05
2.09162e-16
-5e-05
2.26616e-16
-5e-05
1.71398e-16
-5e-05
1.49455e-16
-5e-05
1.22886e-16
-5e-05
1.00181e-16
-5e-05
7.89707e-17
-5e-05
5.99614e-17
-5e-05
4.57094e-17
-5e-05
3.5855e-17
-5e-05
1.75989e-17
-4.00229e-18
-5e-05
-5e-05
-5e-05
-5e-05
-5e-05
-5e-05
-5e-05
-5e-05
-5e-05
-5e-05
-5e-05
-5e-05
-5e-05
-5e-05
-5e-05
-5e-05
-5e-05
-5e-05
-5e-05
)
;

boundaryField
{
    movingWall
    {
        type            calculated;
        value           uniform -0;
    }
    fixedWalls
    {
        type            calculated;
        value           nonuniform List<scalar> 
60
(
5e-05
5e-05
5e-05
5e-05
5e-05
5e-05
5e-05
5e-05
5e-05
5e-05
5e-05
5e-05
5e-05
5e-05
5e-05
5e-05
5e-05
5e-05
5e-05
5e-05
-5e-05
-5e-05
-5e-05
-5e-05
-5e-05
-5e-05
-5e-05
-5e-05
-5e-05
-5e-05
-5e-05
-5e-05
-5e-05
-5e-05
-5e-05
-5e-05
-5e-05
-5e-05
-5e-05
-5e-05
0
0
0
0
0
0
0
0
0
0
0
0
0
0
0
0
0
0
0
0
)
;
    }
    frontAndBack
    {
        type            empty;
    }
}


// ************************************************************************* //
