/*--------------------------------*- C++ -*----------------------------------*\
| =========                 |                                                 |
| \\      /  F ield         | OpenFOAM: The Open Source CFD Toolbox           |
|  \\    /   O peration     | Version:  2506                                  |
|   \\  /    A nd           | Website:  www.openfoam.com                      |
|    \\/     M anipulation  |                                                 |
\*---------------------------------------------------------------------------*/
FoamFile
{
    version     2.0;
    format      ascii;
    arch        "LSB;label=32;scalar=64";
    class       volVectorField;
    location    "3.25";
    object      gradPhi;
}
// * * * * * * * * * * * * * * * * * * * * * * * * * * * * * * * * * * * * * //

dimensions      [0 2 -1 0 0 0 0];

internalField   nonuniform List<vector> 
400
(
(-0.02 -4.2812e-11 0)
(-4.18688e-11 4.18691e-11 0)
(1.31154e-12 -1.31124e-12 0)
(-2.29324e-12 2.29351e-12 0)
(2.76839e-13 -2.76615e-13 0)
(-8.86539e-14 8.88389e-14 0)
(2.51016e-14 -2.49475e-14 0)
(-2.23405e-14 2.24742e-14 0)
(-1.93742e-14 1.94938e-14 0)
(-2.33166e-14 2.34232e-14 0)
(-2.24513e-14 2.25513e-14 0)
(-2.12552e-14 2.13485e-14 0)
(-1.90649e-14 1.9153e-14 0)
(-1.63004e-14 1.63856e-14 0)
(-1.33275e-14 1.34087e-14 0)
(-1.0358e-14 1.04348e-14 0)
(-8.02365e-15 8.08952e-15 0)
(-5.96232e-15 6.02412e-15 0)
(-2.44018e-15 2.53845e-15 0)
(7.26265e-16 -6.92474e-16 0)
(-0.02 1.32827e-10 0)
(1.30897e-10 -1.30897e-10 0)
(-4.58923e-12 4.58946e-12 0)
(7.4426e-12 -7.44237e-12 0)
(-8.89732e-13 8.89933e-13 0)
(2.79792e-13 -2.7962e-13 0)
(-1.35512e-13 1.35662e-13 0)
(-5.67611e-15 5.80573e-15 0)
(-3.05511e-14 3.06708e-14 0)
(-2.22148e-14 2.23242e-14 0)
(-2.37368e-14 2.38365e-14 0)
(-2.16258e-14 2.17195e-14 0)
(-1.94288e-14 1.95185e-14 0)
(-1.64493e-14 1.65337e-14 0)
(-1.34136e-14 1.34948e-14 0)
(-1.04688e-14 1.05435e-14 0)
(-7.97568e-15 8.04734e-15 0)
(-5.77207e-15 5.84716e-15 0)
(-2.32603e-15 2.38209e-15 0)
(6.38583e-16 -5.82672e-16 0)
(-0.02 -2.32523e-10 0)
(-2.29408e-10 2.29408e-10 0)
(8.83497e-12 -8.83484e-12 0)
(-1.30741e-11 1.30743e-11 0)
(1.67049e-12 -1.67034e-12 0)
(-5.27142e-13 5.27283e-13 0)
(1.91084e-13 -1.90956e-13 0)
(-5.08981e-14 5.1014e-14 0)
(-1.13985e-14 1.15048e-14 0)
(-2.86618e-14 2.87616e-14 0)
(-2.33331e-14 2.34265e-14 0)
(-2.21817e-14 2.22688e-14 0)
(-1.92386e-14 1.9323e-14 0)
(-1.62657e-14 1.63452e-14 0)
(-1.31489e-14 1.32258e-14 0)
(-1.00883e-14 1.01598e-14 0)
(-7.71925e-15 7.7797e-15 0)
(-5.81508e-15 5.86881e-15 0)
(-2.36574e-15 2.47394e-15 0)
(6.56781e-16 -6.37375e-16 0)
(-0.02 3.4587e-10 0)
(3.42197e-10 -3.42197e-10 0)
(-1.3739e-11 1.37391e-11 0)
(1.97895e-11 -1.97894e-11 0)
(-2.61286e-12 2.61297e-12 0)
(7.70226e-13 -7.70116e-13 0)
(-3.53835e-13 3.53938e-13 0)
(1.17013e-14 -1.16029e-14 0)
(-5.18427e-14 5.19329e-14 0)
(-2.2051e-14 2.21384e-14 0)
(-2.59123e-14 2.59911e-14 0)
(-2.15696e-14 2.16478e-14 0)
(-1.90582e-14 1.91316e-14 0)
(-1.57082e-14 1.57791e-14 0)
(-1.2636e-14 1.27042e-14 0)
(-9.79547e-15 9.856e-15 0)
(-7.36852e-15 7.42827e-15 0)
(-5.18477e-15 5.25572e-15 0)
(-2.13247e-15 2.16195e-15 0)
(4.97963e-16 -4.4438e-16 0)
(-0.02 -4.68157e-10 0)
(-4.62603e-10 4.62603e-10 0)
(1.87488e-11 -1.87488e-11 0)
(-2.68388e-11 2.68389e-11 0)
(3.52838e-12 -3.5283e-12 0)
(-1.13436e-12 1.13444e-12 0)
(3.84366e-13 -3.84288e-13 0)
(-9.24705e-14 9.25479e-14 0)
(-7.46117e-16 8.18503e-16 0)
(-3.59526e-14 3.60211e-14 0)
(-2.34837e-14 2.35512e-14 0)
(-2.21684e-14 2.22313e-14 0)
(-1.81169e-14 1.81793e-14 0)
(-1.49968e-14 1.50563e-14 0)
(-1.18684e-14 1.1926e-14 0)
(-8.94679e-15 8.99966e-15 0)
(-6.74979e-15 6.79395e-15 0)
(-5.05242e-15 5.08309e-15 0)
(-2.08615e-15 2.1871e-15 0)
(5.06235e-16 -5.00815e-16 0)
(-0.02 6.00586e-10 0)
(5.94699e-10 -5.94699e-10 0)
(-2.45374e-11 2.45375e-11 0)
(3.4729e-11 -3.4729e-11 0)
(-4.85488e-12 4.85493e-12 0)
(1.36187e-12 -1.36182e-12 0)
(-6.33614e-13 6.33666e-13 0)
(2.9623e-14 -2.95678e-14 0)
(-7.99553e-14 8.00081e-14 0)
(-1.98838e-14 1.99355e-14 0)
(-2.68404e-14 2.68894e-14 0)
(-1.96819e-14 1.97322e-14 0)
(-1.70796e-14 1.71269e-14 0)
(-1.35426e-14 1.35909e-14 0)
(-1.06921e-14 1.07362e-14 0)
(-8.19405e-15 8.23138e-15 0)
(-6.05993e-15 6.09939e-15 0)
(-4.08958e-15 4.15023e-15 0)
(-1.70234e-15 1.69971e-15 0)
(3.07711e-16 -2.6193e-16 0)
(-0.02 -7.40462e-10 0)
(-7.31296e-10 7.31296e-10 0)
(3.01289e-11 -3.01289e-11 0)
(-4.36409e-11 4.36409e-11 0)
(5.9146e-12 -5.91458e-12 0)
(-1.95132e-12 1.95134e-12 0)
(6.34044e-13 -6.34015e-13 0)
(-1.4201e-13 1.42043e-13 0)
(2.2678e-14 -2.26456e-14 0)
(-4.09239e-14 4.09568e-14 0)
(-1.94685e-14 1.95004e-14 0)
(-1.93229e-14 1.93553e-14 0)
(-1.45253e-14 1.45583e-14 0)
(-1.18485e-14 1.18812e-14 0)
(-9.15027e-15 9.18072e-15 0)
(-6.7531e-15 6.78342e-15 0)
(-4.99617e-15 5.01989e-15 0)
(-3.72893e-15 3.7313e-15 0)
(-1.56337e-15 1.64554e-15 0)
(3.17637e-16 -3.27245e-16 0)
(-0.02 8.63548e-10 0)
(8.52547e-10 -8.52547e-10 0)
(-3.39449e-11 3.39449e-11 0)
(5.13006e-11 -5.13006e-11 0)
(-7.37768e-12 7.37767e-12 0)
(2.08839e-12 -2.08839e-12 0)
(-9.40609e-13 9.40615e-13 0)
(6.74119e-14 -6.74035e-14 0)
(-1.06279e-13 1.06293e-13 0)
(-8.31317e-15 8.32541e-15 0)
(-2.23951e-14 2.24094e-14 0)
(-1.33342e-14 1.33496e-14 0)
(-1.20487e-14 1.20662e-14 0)
(-9.13538e-15 9.15163e-15 0)
(-7.14353e-15 7.16125e-15 0)
(-5.4445e-15 5.45565e-15 0)
(-3.94896e-15 3.96182e-15 0)
(-2.48816e-15 2.52902e-15 0)
(-1.05052e-15 1.01883e-15 0)
(1.09188e-16 -7.86762e-17 0)
(-0.02 -9.447e-10 0)
(-9.20184e-10 9.20184e-10 0)
(2.94329e-11 -2.9433e-11 0)
(-5.94588e-11 5.94588e-11 0)
(7.55647e-12 -7.55649e-12 0)
(-2.79052e-12 2.7905e-12 0)
(9.25465e-13 -9.25483e-13 0)
(-1.70123e-13 1.70112e-13 0)
(6.97594e-14 -6.97715e-14 0)
(-3.43611e-14 3.43567e-14 0)
(-7.5108e-15 7.50515e-15 0)
(-1.16798e-14 1.16778e-14 0)
(-7.60179e-15 7.60058e-15 0)
(-6.41892e-15 6.41871e-15 0)
(-4.82577e-15 4.82635e-15 0)
(-3.46754e-15 3.47065e-15 0)
(-2.50967e-15 2.50328e-15 0)
(-1.93229e-15 1.90545e-15 0)
(-8.43724e-16 8.98733e-16 0)
(1.30695e-16 -1.57598e-16 0)
(-0.02 9.2551e-10 0)
(8.89971e-10 -8.89971e-10 0)
(-1.9215e-11 1.92149e-11 0)
(6.02132e-11 -6.02132e-11 0)
(-7.37617e-12 7.37612e-12 0)
(2.91351e-12 -2.91356e-12 0)
(-1.03654e-12 1.0365e-12 0)
(1.6046e-13 -1.60495e-13 0)
(-1.09299e-13 1.09269e-13 0)
(1.5417e-14 -1.54446e-14 0)
(-1.15044e-14 1.14802e-14 0)
(-2.56591e-15 2.54588e-15 0)
(-4.18884e-15 4.17078e-15 0)
(-2.75782e-15 2.7417e-15 0)
(-2.24662e-15 2.22981e-15 0)
(-1.74701e-15 1.72944e-15 0)
(-1.21926e-15 1.20621e-15 0)
(-5.62483e-16 5.74603e-16 0)
(-2.79587e-16 2.14761e-16 0)
(-5.45939e-17 6.84323e-17 0)
(-0.02 -8.62201e-10 0)
(-8.24231e-10 8.24231e-10 0)
(1.2762e-11 -1.27621e-11 0)
(-5.59641e-11 5.59641e-11 0)
(6.95017e-12 -6.95024e-12 0)
(-2.71633e-12 2.71626e-12 0)
(1.05108e-12 -1.05115e-12 0)
(-1.54842e-13 1.54787e-13 0)
(1.13026e-13 -1.13077e-13 0)
(-1.97961e-14 1.97504e-14 0)
(8.07659e-15 -8.11849e-15 0)
(-1.32183e-15 1.28347e-15 0)
(1.14151e-15 -1.17807e-15 0)
(3.02748e-16 -3.36382e-16 0)
(4.21862e-16 -4.53914e-16 0)
(4.45023e-16 -4.73315e-16 0)
(3.80503e-16 -4.1407e-16 0)
(7.7755e-17 -1.34801e-16 0)
(-4.79765e-17 6.75108e-17 0)
(-2.48154e-17 -1.50546e-17 0)
(-0.02 8.03051e-10 0)
(7.64774e-10 -7.64774e-10 0)
(-9.98174e-12 9.98164e-12 0)
(5.25211e-11 -5.25211e-11 0)
(-6.14612e-12 6.14603e-12 0)
(2.65855e-12 -2.65863e-12 0)
(-9.22803e-13 9.22723e-13 0)
(1.80114e-13 -1.80188e-13 0)
(-8.95837e-14 8.95152e-14 0)
(3.19143e-14 -3.19787e-14 0)
(8.70194e-16 -9.29392e-16 0)
(8.0402e-15 -8.09469e-15 0)
(4.23516e-15 -4.28749e-15 0)
(4.03333e-15 -4.08241e-15 0)
(3.03079e-15 -3.07981e-15 0)
(2.2367e-15 -2.28614e-15 0)
(1.68579e-15 -1.72814e-15 0)
(1.40621e-15 -1.42123e-15 0)
(5.0458e-16 -5.93312e-16 0)
(-1.86943e-16 1.79311e-16 0)
(-0.02 -7.31484e-10 0)
(-6.96983e-10 6.96983e-10 0)
(8.89244e-12 -8.89255e-12 0)
(-4.77543e-11 4.77542e-11 0)
(5.73689e-12 -5.737e-12 0)
(-2.33361e-12 2.33351e-12 0)
(9.18692e-13 -9.18788e-13 0)
(-1.26249e-13 1.26159e-13 0)
(1.14445e-13 -1.14532e-13 0)
(-6.50826e-15 6.4271e-15 0)
(1.81798e-14 -1.82544e-14 0)
(8.04516e-15 -8.11613e-15 0)
(8.97987e-15 -9.04794e-15 0)
(6.74483e-15 -6.80879e-15 0)
(5.51895e-15 -5.58311e-15 0)
(4.29472e-15 -4.35106e-15 0)
(3.2227e-15 -3.27957e-15 0)
(2.06133e-15 -2.14048e-15 0)
(7.44463e-16 -7.62227e-16 0)
(-1.75362e-16 1.27481e-16 0)
(-0.02 6.52793e-10 0)
(6.20998e-10 -6.20998e-10 0)
(-7.56153e-12 7.5614e-12 0)
(4.2745e-11 -4.27452e-11 0)
(-4.99471e-12 4.99459e-12 0)
(2.17711e-12 -2.17722e-12 0)
(-7.65786e-13 7.65675e-13 0)
(1.57603e-13 -1.57707e-13 0)
(-6.81134e-14 6.8013e-14 0)
(3.68492e-14 -3.69431e-14 0)
(1.00651e-14 -1.01536e-14 0)
(1.56718e-14 -1.57559e-14 0)
(1.13357e-14 -1.14152e-14 0)
(9.92617e-15 -1.00042e-14 0)
(7.80031e-15 -7.87333e-15 0)
(5.90276e-15 -5.97446e-15 0)
(4.3824e-15 -4.44841e-15 0)
(3.23758e-15 -3.27858e-15 0)
(1.2722e-15 -1.37327e-15 0)
(-3.25909e-16 3.02797e-16 0)
(-0.02 -5.62096e-10 0)
(-5.34591e-10 5.34591e-10 0)
(5.8135e-12 -5.81363e-12 0)
(-3.65691e-11 3.6569e-11 0)
(4.24871e-12 -4.24884e-12 0)
(-1.80503e-12 1.8049e-12 0)
(7.08042e-13 -7.08162e-13 0)
(-9.62871e-14 9.61716e-14 0)
(9.68959e-14 -9.70045e-14 0)
(3.62967e-15 -3.73296e-15 0)
(2.37864e-14 -2.38837e-14 0)
(1.53971e-14 -1.54906e-14 0)
(1.51854e-14 -1.52742e-14 0)
(1.21695e-14 -1.22559e-14 0)
(9.87985e-15 -9.96489e-15 0)
(7.61999e-15 -7.69535e-15 0)
(5.71747e-15 -5.79024e-15 0)
(3.90264e-15 -3.99157e-15 0)
(1.55345e-15 -1.59853e-15 0)
(-3.54033e-16 3.0331e-16 0)
(-0.02 4.76676e-10 0)
(4.53992e-10 -4.53992e-10 0)
(-5.90599e-12 5.90585e-12 0)
(3.1197e-11 -3.11972e-11 0)
(-3.83693e-12 3.8368e-12 0)
(1.59327e-12 -1.59339e-12 0)
(-5.87861e-13 5.87735e-13 0)
(1.25086e-13 -1.25206e-13 0)
(-4.35511e-14 4.34385e-14 0)
(3.82108e-14 -3.83192e-14 0)
(1.793e-14 -1.80331e-14 0)
(2.15977e-14 -2.16957e-14 0)
(1.71954e-14 -1.72922e-14 0)
(1.47668e-14 -1.48569e-14 0)
(1.17311e-14 -1.18222e-14 0)
(8.9352e-15 -9.01769e-15 0)
(6.64722e-15 -6.72366e-15 0)
(4.85059e-15 -4.90584e-15 0)
(2.00839e-15 -2.10876e-15 0)
(-4.49986e-16 4.13481e-16 0)
(-0.02 -3.84441e-10 0)
(-3.66007e-10 3.66007e-10 0)
(4.71346e-12 -4.7136e-12 0)
(-2.5597e-11 2.55968e-11 0)
(3.08984e-12 -3.08997e-12 0)
(-1.3296e-12 1.32947e-12 0)
(5.31809e-13 -5.31935e-13 0)
(-6.73077e-14 6.71876e-14 0)
(8.25824e-14 -8.26995e-14 0)
(1.49852e-14 -1.5097e-14 0)
(2.95535e-14 -2.96594e-14 0)
(2.20526e-14 -2.21548e-14 0)
(2.04562e-14 -2.05565e-14 0)
(1.66081e-14 -1.6705e-14 0)
(1.33705e-14 -1.34638e-14 0)
(1.02322e-14 -1.03191e-14 0)
(7.69278e-15 -7.76928e-15 0)
(5.38164e-15 -5.4697e-15 0)
(2.1606e-15 -2.23435e-15 0)
(-4.76456e-16 4.25627e-16 0)
(-0.02 2.71072e-10 0)
(2.56085e-10 -2.56085e-10 0)
(-9.05434e-13 9.053e-13 0)
(1.69287e-11 -1.69288e-11 0)
(-1.83061e-12 1.83048e-12 0)
(8.14697e-13 -8.14824e-13 0)
(-2.86638e-13 2.86515e-13 0)
(8.79591e-14 -8.80794e-14 0)
(8.85083e-16 -9.9989e-16 0)
(4.08975e-14 -4.10079e-14 0)
(2.79107e-14 -2.80172e-14 0)
(2.69959e-14 -2.71001e-14 0)
(2.22445e-14 -2.23451e-14 0)
(1.8514e-14 -1.86134e-14 0)
(1.4704e-14 -1.47975e-14 0)
(1.11802e-14 -1.12688e-14 0)
(8.25857e-15 -8.33867e-15 0)
(5.7456e-15 -5.81687e-15 0)
(2.22512e-15 -2.32388e-15 0)
(-5.22778e-16 4.73312e-16 0)
(-0.02 -2.04693e-10 0)
(-1.98897e-10 1.98897e-10 0)
(6.59466e-12 -6.59479e-12 0)
(-1.45903e-11 1.45902e-11 0)
(2.31135e-12 -2.31147e-12 0)
(-7.57074e-13 7.56956e-13 0)
(3.98144e-13 -3.98259e-13 0)
(-1.35079e-14 1.33955e-14 0)
(7.68269e-14 -7.69351e-14 0)
(3.14296e-14 -3.15358e-14 0)
(3.58566e-14 -3.59594e-14 0)
(2.81043e-14 -2.82036e-14 0)
(2.44184e-14 -2.45165e-14 0)
(1.97266e-14 -1.98226e-14 0)
(1.56651e-14 -1.57561e-14 0)
(1.18767e-14 -1.19617e-14 0)
(8.90212e-15 -8.97544e-15 0)
(6.36764e-15 -6.45155e-15 0)
(2.66352e-15 -2.7575e-15 0)
(-6.2204e-16 5.74844e-16 0)
(-0.02 1.01637e-10 0)
(9.99096e-11 -9.99097e-11 0)
(-6.85328e-12 6.85322e-12 0)
(8.91364e-12 -8.9137e-12 0)
(-1.36439e-12 1.36433e-12 0)
(7.75854e-13 -7.7591e-13 0)
(-1.05009e-13 1.04953e-13 0)
(1.21394e-13 -1.21447e-13 0)
(3.32411e-14 -3.32926e-14 0)
(4.83107e-14 -4.83611e-14 0)
(3.40831e-14 -3.41324e-14 0)
(3.04998e-14 -3.05486e-14 0)
(2.48684e-14 -2.4915e-14 0)
(2.0352e-14 -2.03983e-14 0)
(1.60572e-14 -1.60992e-14 0)
(1.22787e-14 -1.23167e-14 0)
(9.42324e-15 -9.46191e-15 0)
(7.31559e-15 -7.35886e-15 0)
(3.48905e-15 -3.5368e-15 0)
(-8.28835e-16 8.29627e-16 0)
)
;

boundaryField
{
    movingWall
    {
        type            extrapolatedCalculated;
        value           nonuniform List<vector> 
20
(
(-0.02 1.01637e-10 0)
(9.99096e-11 -9.99097e-11 0)
(-6.85328e-12 6.85322e-12 0)
(8.91364e-12 -8.9137e-12 0)
(-1.36439e-12 1.36433e-12 0)
(7.75854e-13 -7.7591e-13 0)
(-1.05009e-13 1.04953e-13 0)
(1.21394e-13 -1.21447e-13 0)
(3.32411e-14 -3.32926e-14 0)
(4.83107e-14 -4.83611e-14 0)
(3.40831e-14 -3.41324e-14 0)
(3.04998e-14 -3.05486e-14 0)
(2.48684e-14 -2.4915e-14 0)
(2.0352e-14 -2.03983e-14 0)
(1.60572e-14 -1.60992e-14 0)
(1.22787e-14 -1.23167e-14 0)
(9.42324e-15 -9.46191e-15 0)
(7.31559e-15 -7.35886e-15 0)
(3.48905e-15 -3.5368e-15 0)
(-8.28835e-16 8.29627e-16 0)
)
;
    }
    fixedWalls
    {
        type            extrapolatedCalculated;
        value           nonuniform List<vector> 
60
(
(-0.02 -4.2812e-11 0)
(-0.02 1.32827e-10 0)
(-0.02 -2.32523e-10 0)
(-0.02 3.4587e-10 0)
(-0.02 -4.68157e-10 0)
(-0.02 6.00586e-10 0)
(-0.02 -7.40462e-10 0)
(-0.02 8.63548e-10 0)
(-0.02 -9.447e-10 0)
(-0.02 9.2551e-10 0)
(-0.02 -8.62201e-10 0)
(-0.02 8.03051e-10 0)
(-0.02 -7.31484e-10 0)
(-0.02 6.52793e-10 0)
(-0.02 -5.62096e-10 0)
(-0.02 4.76676e-10 0)
(-0.02 -3.84441e-10 0)
(-0.02 2.71072e-10 0)
(-0.02 -2.04693e-10 0)
(-0.02 1.01637e-10 0)
(7.26265e-16 -6.92474e-16 0)
(6.38583e-16 -5.82672e-16 0)
(6.56781e-16 -6.37375e-16 0)
(4.97963e-16 -4.4438e-16 0)
(5.06235e-16 -5.00815e-16 0)
(3.07711e-16 -2.6193e-16 0)
(3.17637e-16 -3.27245e-16 0)
(1.09188e-16 -7.86762e-17 0)
(1.30695e-16 -1.57598e-16 0)
(-5.45939e-17 6.84323e-17 0)
(-2.48154e-17 -1.50546e-17 0)
(-1.86943e-16 1.79311e-16 0)
(-1.75362e-16 1.27481e-16 0)
(-3.25909e-16 3.02797e-16 0)
(-3.54033e-16 3.0331e-16 0)
(-4.49986e-16 4.13481e-16 0)
(-4.76456e-16 4.25627e-16 0)
(-5.22778e-16 4.73312e-16 0)
(-6.2204e-16 5.74844e-16 0)
(-8.28835e-16 8.29627e-16 0)
(-0.02 -4.2812e-11 0)
(-4.18688e-11 4.18691e-11 0)
(1.31154e-12 -1.31124e-12 0)
(-2.29324e-12 2.29351e-12 0)
(2.76839e-13 -2.76615e-13 0)
(-8.86539e-14 8.88389e-14 0)
(2.51016e-14 -2.49475e-14 0)
(-2.23405e-14 2.24742e-14 0)
(-1.93742e-14 1.94938e-14 0)
(-2.33166e-14 2.34232e-14 0)
(-2.24513e-14 2.25513e-14 0)
(-2.12552e-14 2.13485e-14 0)
(-1.90649e-14 1.9153e-14 0)
(-1.63004e-14 1.63856e-14 0)
(-1.33275e-14 1.34087e-14 0)
(-1.0358e-14 1.04348e-14 0)
(-8.02365e-15 8.08952e-15 0)
(-5.96232e-15 6.02412e-15 0)
(-2.44018e-15 2.53845e-15 0)
(7.26265e-16 -6.92474e-16 0)
)
;
    }
    frontAndBack
    {
        type            empty;
    }
}


// ************************************************************************* //
