/*--------------------------------*- C++ -*----------------------------------*\
| =========                 |                                                 |
| \\      /  F ield         | OpenFOAM: The Open Source CFD Toolbox           |
|  \\    /   O peration     | Version:  2506                                  |
|   \\  /    A nd           | Website:  www.openfoam.com                      |
|    \\/     M anipulation  |                                                 |
\*---------------------------------------------------------------------------*/
FoamFile
{
    version     2.0;
    format      ascii;
    arch        "LSB;label=32;scalar=64";
    class       volTensorField;
    location    "3.25";
    object      gradU;
}
// * * * * * * * * * * * * * * * * * * * * * * * * * * * * * * * * * * * * * //

dimensions      [0 0 -1 0 0 0 0];

internalField   nonuniform List<tensor> 
400
(
(1.13837e-06 2.22834e-05 0 -3.30431e-06 -1.27797e-06 0 0 0 0)
(-1.24526e-06 -2.71634e-05 0 6.15569e-07 2.63858e-07 0 0 0 0)
(1.96563e-07 6.056e-06 0 -2.75493e-07 -6.04452e-08 0 0 0 0)
(-9.34923e-08 -1.43712e-06 0 5.39171e-08 1.14663e-08 0 0 0 0)
(1.1947e-08 3.21157e-07 0 -1.47895e-08 -2.62247e-09 0 0 0 0)
(-5.1604e-09 -7.38987e-08 0 8.90902e-09 5.29909e-10 0 0 0 0)
(8.26298e-10 1.71283e-08 0 2.60957e-09 1.83598e-10 0 0 0 0)
(-5.9276e-10 -3.75258e-09 0 3.91652e-09 3.79113e-10 0 0 0 0)
(-3.59847e-10 9.00942e-10 0 2.98934e-09 4.33214e-10 0 0 0 0)
(-4.70923e-10 -1.90916e-10 0 2.65155e-09 4.59121e-10 0 0 0 0)
(-4.4867e-10 3.68863e-11 0 2.14379e-09 4.54699e-10 0 0 0 0)
(-4.25631e-10 -2.65777e-11 0 1.70472e-09 4.2751e-10 0 0 0 0)
(-3.80311e-10 -2.18334e-11 0 1.29123e-09 3.84452e-10 0 0 0 0)
(-3.25857e-10 -2.88678e-11 0 9.35016e-10 3.28519e-10 0 0 0 0)
(-2.66307e-10 -2.8753e-11 0 6.36833e-10 2.68809e-10 0 0 0 0)
(-2.07137e-10 -2.55538e-11 0 4.01372e-10 2.09801e-10 0 0 0 0)
(-1.62956e-10 -2.34287e-11 0 2.20012e-10 1.62474e-10 0 0 0 0)
(-1.21485e-10 -2.81394e-11 0 7.49726e-11 1.19666e-10 0 0 0 0)
(-4.23652e-11 -3.24704e-11 0 -1.74014e-11 5.03592e-11 0 0 0 0)
(1.35796e-11 -9.62781e-12 0 -7.64363e-12 -1.34103e-11 0 0 0 0)
(-3.82711e-06 -2.32975e-05 0 6.56246e-06 3.93554e-06 0 0 0 0)
(4.27407e-06 2.83809e-05 0 -1.17397e-06 -8.43994e-07 0 0 0 0)
(-7.58215e-07 -6.30839e-06 0 5.39412e-07 1.93998e-07 0 0 0 0)
(3.54196e-07 1.49494e-06 0 -9.13481e-08 -4.19865e-08 0 0 0 0)
(-5.69551e-08 -3.32093e-07 0 3.51017e-08 8.74934e-09 0 0 0 0)
(2.25594e-08 7.67048e-08 0 -8.3933e-09 -1.83024e-09 0 0 0 0)
(-5.81878e-09 -1.72791e-08 0 2.33618e-09 6.41926e-10 0 0 0 0)
(9.72529e-10 4.0022e-09 0 -5.86093e-10 3.27824e-10 0 0 0 0)
(-9.05119e-10 -8.20934e-10 0 2.18331e-10 4.77309e-10 0 0 0 0)
(-3.74619e-10 2.12401e-10 0 -2.18467e-11 4.7991e-10 0 0 0 0)
(-4.98137e-10 -6.84967e-11 0 1.76183e-11 4.69547e-10 0 0 0 0)
(-4.26959e-10 -4.36689e-11 0 -8.37546e-12 4.36675e-10 0 0 0 0)
(-3.89418e-10 -7.71579e-11 0 -8.26704e-12 3.89285e-10 0 0 0 0)
(-3.2854e-10 -8.67751e-11 0 -9.97466e-12 3.3064e-10 0 0 0 0)
(-2.6731e-10 -8.99654e-11 0 -8.42967e-12 2.69598e-10 0 0 0 0)
(-2.09658e-10 -8.07816e-11 0 -5.85469e-12 2.09167e-10 0 0 0 0)
(-1.63443e-10 -6.67057e-11 0 -2.71051e-12 1.60174e-10 0 0 0 0)
(-1.15983e-10 -8.39753e-11 0 -8.67362e-13 1.19236e-10 0 0 0 0)
(-4.02239e-11 -1.00606e-10 0 8.40257e-13 4.87985e-11 0 0 0 0)
(1.14654e-11 -2.73211e-11 0 3.52366e-13 -1.27317e-11 0 0 0 0)
(6.52686e-06 2.53749e-05 0 -7.60957e-06 -6.7954e-06 0 0 0 0)
(-7.26831e-06 -3.09049e-05 0 1.3808e-06 1.48974e-06 0 0 0 0)
(1.27919e-06 6.85801e-06 0 -6.20343e-07 -3.50406e-07 0 0 0 0)
(-5.97803e-07 -1.62236e-06 0 1.08568e-07 7.57018e-08 0 0 0 0)
(9.49018e-08 3.61313e-07 0 -3.95249e-08 -1.71298e-08 0 0 0 0)
(-3.79259e-08 -8.20061e-08 0 1.047e-08 4.04072e-09 0 0 0 0)
(8.63347e-09 1.92863e-08 0 -2.29206e-09 -3.54335e-10 0 0 0 0)
(-2.71061e-09 -3.9172e-09 0 9.23117e-10 6.62474e-10 0 0 0 0)
(2.04399e-10 1.05303e-09 0 -1.58375e-10 4.83221e-10 0 0 0 0)
(-6.71636e-10 -1.98678e-10 0 4.31241e-11 5.17766e-10 0 0 0 0)
(-4.35253e-10 -6.34839e-12 0 -4.79217e-11 4.82319e-10 0 0 0 0)
(-4.51462e-10 -1.06839e-10 0 -3.54534e-11 4.41008e-10 0 0 0 0)
(-3.81883e-10 -1.27869e-10 0 -3.83537e-11 3.87737e-10 0 0 0 0)
(-3.25992e-10 -1.48555e-10 0 -3.071e-11 3.26237e-10 0 0 0 0)
(-2.62241e-10 -1.50225e-10 0 -2.29309e-11 2.64392e-10 0 0 0 0)
(-2.01445e-10 -1.34977e-10 0 -1.50433e-11 2.04663e-10 0 0 0 0)
(-1.57941e-10 -1.1336e-10 0 -9.6765e-12 1.55787e-10 0 0 0 0)
(-1.1788e-10 -1.39515e-10 0 -3.33392e-12 1.14289e-10 0 0 0 0)
(-4.11455e-11 -1.64438e-10 0 2.24972e-12 4.76609e-11 0 0 0 0)
(1.23328e-11 -4.56947e-11 0 6.77626e-13 -1.16392e-11 0 0 0 0)
(-1.00559e-05 -2.86031e-05 0 8.66645e-06 9.9243e-06 0 0 0 0)
(1.12633e-05 3.48259e-05 0 -1.59537e-06 -2.24527e-06 0 0 0 0)
(-2.03044e-06 -7.72243e-06 0 7.15314e-07 5.26376e-07 0 0 0 0)
(9.35014e-07 1.82821e-06 0 -1.25679e-07 -1.19218e-07 0 0 0 0)
(-1.55053e-07 -4.03754e-07 0 4.80449e-08 2.73725e-08 0 0 0 0)
(5.97923e-08 9.34803e-08 0 -1.13344e-08 -5.73169e-09 0 0 0 0)
(-1.53657e-08 -2.06573e-08 0 3.30945e-09 1.9183e-09 0 0 0 0)
(3.10621e-09 4.83975e-09 0 -8.98614e-10 2.93429e-10 0 0 0 0)
(-1.78511e-09 -9.65642e-10 0 2.33131e-10 6.52014e-10 0 0 0 0)
(-2.64166e-10 2.11499e-10 0 -1.16525e-10 5.32664e-10 0 0 0 0)
(-5.76687e-10 -1.45256e-10 0 -4.91144e-11 5.00044e-10 0 0 0 0)
(-4.17418e-10 -1.38251e-10 0 -7.47557e-11 4.40367e-10 0 0 0 0)
(-3.84729e-10 -1.91928e-10 0 -6.03087e-11 3.80778e-10 0 0 0 0)
(-3.1309e-10 -2.10121e-10 0 -4.96836e-11 3.16339e-10 0 0 0 0)
(-2.51616e-10 -2.1154e-10 0 -3.57516e-11 2.54035e-10 0 0 0 0)
(-1.9643e-10 -1.89386e-10 0 -2.37711e-11 1.9529e-10 0 0 0 0)
(-1.51761e-10 -1.5708e-10 0 -1.34441e-11 1.47954e-10 0 0 0 0)
(-1.04056e-10 -1.92102e-10 0 -4.55365e-12 1.08033e-10 0 0 0 0)
(-3.61581e-11 -2.26534e-10 0 1.97867e-12 4.50729e-11 0 0 0 0)
(8.53809e-12 -6.33429e-11 0 8.40257e-13 -1.03472e-11 0 0 0 0)
(1.35979e-05 3.30539e-05 0 -9.55889e-06 -1.31376e-05 0 0 0 0)
(-1.52194e-05 -4.03029e-05 0 1.78721e-06 2.99259e-06 0 0 0 0)
(2.74888e-06 8.98406e-06 0 -7.89427e-07 -7.0389e-07 0 0 0 0)
(-1.26507e-06 -2.12137e-06 0 1.45811e-07 1.59928e-07 0 0 0 0)
(2.09246e-07 4.748e-07 0 -5.13926e-08 -3.55933e-08 0 0 0 0)
(-8.26613e-08 -1.0746e-07 0 1.408e-08 9.20597e-09 0 0 0 0)
(1.90693e-08 2.53115e-08 0 -3.1675e-09 -9.43609e-10 0 0 0 0)
(-5.78696e-09 -5.18349e-09 0 1.15983e-09 1.16058e-09 0 0 0 0)
(9.86488e-10 1.29226e-09 0 -3.31576e-10 5.75281e-10 0 0 0 0)
(-9.53881e-10 -3.50649e-10 0 -3.81097e-11 5.97214e-10 0 0 0 0)
(-3.93484e-10 -9.86458e-11 0 -1.44063e-10 4.99654e-10 0 0 0 0)
(-4.62656e-10 -2.26105e-10 0 -1.07444e-10 4.33547e-10 0 0 0 0)
(-3.56784e-10 -2.51897e-10 0 -9.55724e-11 3.65554e-10 0 0 0 0)
(-3.01462e-10 -2.75298e-10 0 -7.20181e-11 2.99481e-10 0 0 0 0)
(-2.36302e-10 -2.71274e-10 0 -5.12557e-11 2.37982e-10 0 0 0 0)
(-1.79164e-10 -2.41058e-10 0 -3.3014e-11 1.81593e-10 0 0 0 0)
(-1.38669e-10 -2.00617e-10 0 -1.97867e-11 1.36469e-10 0 0 0 0)
(-1.02538e-10 -2.42396e-10 0 -7.37257e-12 9.82947e-11 0 0 0 0)
(-3.58058e-11 -2.82818e-10 0 2.57498e-12 4.1378e-11 0 0 0 0)
(9.59519e-12 -8.04204e-11 0 1.16552e-12 -8.71216e-12 0 0 0 0)
(-1.78276e-05 -3.87481e-05 0 1.11121e-05 1.6334e-05 0 0 0 0)
(2.00328e-05 4.72596e-05 0 -2.15466e-06 -3.788e-06 0 0 0 0)
(-3.67184e-06 -1.05551e-05 0 9.4489e-07 8.97312e-07 0 0 0 0)
(1.67305e-06 2.49651e-06 0 -1.78206e-07 -2.04232e-07 0 0 0 0)
(-2.86785e-07 -5.54476e-07 0 6.66032e-08 4.94749e-08 0 0 0 0)
(1.08017e-07 1.2813e-07 0 -1.6582e-08 -9.684e-09 0 0 0 0)
(-2.82859e-08 -2.87027e-08 0 4.50562e-09 3.52263e-09 0 0 0 0)
(5.94216e-09 6.35864e-09 0 -1.63406e-09 3.07427e-10 0 0 0 0)
(-2.98305e-09 -1.52901e-09 0 1.43115e-10 8.38919e-10 0 0 0 0)
(-7.66531e-11 1.35872e-10 0 -3.22388e-10 5.63437e-10 0 0 0 0)
(-6.45995e-10 -3.08923e-10 0 -1.68349e-10 4.96709e-10 0 0 0 0)
(-3.68927e-10 -2.72351e-10 0 -1.74638e-10 4.0799e-10 0 0 0 0)
(-3.49303e-10 -3.25994e-10 0 -1.29589e-10 3.38283e-10 0 0 0 0)
(-2.68801e-10 -3.37692e-10 0 -9.86895e-11 2.72776e-10 0 0 0 0)
(-2.12585e-10 -3.29427e-10 0 -6.77626e-11 2.14545e-10 0 0 0 0)
(-1.64934e-10 -2.90899e-10 0 -4.3612e-11 1.6231e-10 0 0 0 0)
(-1.26201e-10 -2.40378e-10 0 -2.46114e-11 1.20733e-10 0 0 0 0)
(-8.16404e-11 -2.87193e-10 0 -8.91756e-12 8.61755e-11 0 0 0 0)
(-2.76472e-11 -3.33541e-10 0 2.30393e-12 3.62746e-11 0 0 0 0)
(4.79759e-12 -9.60087e-11 0 1.19262e-12 -6.93876e-12 0 0 0 0)
(2.25553e-05 4.56e-05 0 -1.12484e-05 -1.9228e-05 0 0 0 0)
(-2.53866e-05 -5.57396e-05 0 2.21877e-06 4.54433e-06 0 0 0 0)
(4.72533e-06 1.25678e-05 0 -9.69788e-07 -1.08237e-06 0 0 0 0)
(-2.14336e-06 -2.9692e-06 0 1.89884e-07 2.54588e-07 0 0 0 0)
(3.7087e-07 6.69347e-07 0 -6.81657e-08 -5.75671e-08 0 0 0 0)
(-1.44759e-07 -1.53413e-07 0 1.79989e-08 1.57677e-08 0 0 0 0)
(3.40172e-08 3.53029e-08 0 -5.05696e-09 -1.92317e-09 0 0 0 0)
(-1.01494e-08 -7.8672e-09 0 1.20753e-09 1.72348e-09 0 0 0 0)
(2.2981e-09 1.54827e-09 0 -7.62465e-10 5.46991e-10 0 0 0 0)
(-1.26532e-09 -6.92858e-10 0 -2.31477e-10 6.00037e-10 0 0 0 0)
(-2.45734e-10 -2.54093e-10 0 -3.18566e-10 4.38579e-10 0 0 0 0)
(-4.23869e-10 -3.8453e-10 0 -2.19009e-10 3.65349e-10 0 0 0 0)
(-2.80835e-10 -3.87111e-10 0 -1.75017e-10 2.94198e-10 0 0 0 0)
(-2.39636e-10 -3.99037e-10 0 -1.24277e-10 2.34823e-10 0 0 0 0)
(-1.81306e-10 -3.8174e-10 0 -8.48117e-11 1.82825e-10 0 0 0 0)
(-1.35986e-10 -3.3487e-10 0 -5.3153e-11 1.37418e-10 0 0 0 0)
(-1.03948e-10 -2.76751e-10 0 -3.03577e-11 1.0133e-10 0 0 0 0)
(-7.5596e-11 -3.26855e-10 0 -1.13028e-11 7.09861e-11 0 0 0 0)
(-2.56685e-11 -3.75932e-10 0 2.35814e-12 3.01468e-11 0 0 0 0)
(6.07153e-12 -1.09756e-10 0 1.27394e-12 -5.09355e-12 0 0 0 0)
(-2.68572e-05 -5.34318e-05 0 1.06912e-05 2.06734e-05 0 0 0 0)
(3.03114e-05 6.54053e-05 0 -2.19092e-06 -5.03167e-06 0 0 0 0)
(-5.70073e-06 -1.48448e-05 0 1.0021e-06 1.22078e-06 0 0 0 0)
(2.57467e-06 3.52132e-06 0 -1.90472e-07 -2.7584e-07 0 0 0 0)
(-4.5867e-07 -7.93296e-07 0 7.47067e-08 7.39176e-08 0 0 0 0)
(1.71126e-07 1.83774e-07 0 -1.97722e-08 -1.34791e-08 0 0 0 0)
(-4.50773e-08 -4.27469e-08 0 4.36394e-09 5.2286e-09 0 0 0 0)
(1.02367e-08 8.8288e-09 0 -2.51535e-09 -6.98725e-12 0 0 0 0)
(-4.42205e-09 -2.65245e-09 0 -2.16624e-10 8.22115e-10 0 0 0 0)
(3.67219e-10 2.74603e-11 0 -6.17209e-10 4.18719e-10 0 0 0 0)
(-6.33581e-10 -5.43611e-10 0 -3.41307e-10 3.76195e-10 0 0 0 0)
(-2.25379e-10 -4.16733e-10 0 -2.94632e-10 2.89893e-10 0 0 0 0)
(-2.54516e-10 -4.56521e-10 0 -2.07354e-10 2.34747e-10 0 0 0 0)
(-1.78595e-10 -4.49065e-10 0 -1.4981e-10 1.84808e-10 0 0 0 0)
(-1.41434e-10 -4.26832e-10 0 -9.95298e-11 1.43045e-10 0 0 0 0)
(-1.10507e-10 -3.72394e-10 0 -6.21519e-11 1.06676e-10 0 0 0 0)
(-8.4378e-11 -3.0681e-10 0 -3.45047e-11 7.76962e-11 0 0 0 0)
(-4.89517e-11 -3.58376e-10 0 -1.26581e-11 5.38593e-11 0 0 0 0)
(-1.50433e-11 -4.09621e-10 0 2.1684e-12 2.29208e-11 0 0 0 0)
(1.16552e-12 -1.21062e-10 0 1.24683e-12 -3.31173e-12 0 0 0 0)
(3.10556e-05 6.12417e-05 0 -7.49222e-06 -1.77472e-05 0 0 0 0)
(-3.50757e-05 -7.51922e-05 0 1.68962e-06 4.86012e-06 0 0 0 0)
(6.72579e-06 1.73237e-05 0 -8.13356e-07 -1.12942e-06 0 0 0 0)
(-3.07075e-06 -4.11607e-06 0 1.56584e-07 3.05807e-07 0 0 0 0)
(5.4157e-07 9.31708e-07 0 -7.49661e-08 -7.06702e-08 0 0 0 0)
(-2.15102e-07 -2.22102e-07 0 1.42228e-08 1.91404e-08 0 0 0 0)
(5.1274e-08 4.8775e-08 0 -7.28042e-09 -3.73429e-09 0 0 0 0)
(-1.473e-08 -1.22737e-08 0 5.45299e-10 1.58997e-09 0 0 0 0)
(4.1963e-09 1.97398e-09 0 -1.25103e-09 1.45372e-10 0 0 0 0)
(-1.39e-09 -1.13878e-09 0 -4.56259e-10 3.73165e-10 0 0 0 0)
(7.68428e-11 -3.82919e-10 0 -4.81006e-10 2.33962e-10 0 0 0 0)
(-2.89943e-10 -5.25979e-10 0 -3.17725e-10 2.02272e-10 0 0 0 0)
(-1.36013e-10 -4.92196e-10 0 -2.41614e-10 1.58285e-10 0 0 0 0)
(-1.31812e-10 -4.90739e-10 0 -1.66344e-10 1.25198e-10 0 0 0 0)
(-9.35938e-11 -4.59873e-10 0 -1.11077e-10 9.61242e-11 0 0 0 0)
(-7.09881e-11 -4.00219e-10 0 -6.80066e-11 7.13539e-11 0 0 0 0)
(-5.44269e-11 -3.29568e-10 0 -3.74592e-11 5.13608e-11 0 0 0 0)
(-3.89229e-11 -3.8163e-10 0 -1.38778e-11 3.46007e-11 0 0 0 0)
(-1.18449e-11 -4.33103e-10 0 1.81604e-12 1.51674e-11 0 0 0 0)
(2.71051e-12 -1.29365e-10 0 1.11131e-12 -1.65567e-12 0 0 0 0)
(-3.26598e-05 -6.63189e-05 0 1.83974e-06 1.25953e-05 0 0 0 0)
(3.69902e-05 8.2023e-05 0 -6.61291e-07 -3.71569e-06 0 0 0 0)
(-7.23376e-06 -1.93991e-05 0 2.74388e-07 8.59776e-07 0 0 0 0)
(3.31306e-06 4.58007e-06 0 -9.97993e-08 -2.54773e-07 0 0 0 0)
(-6.01031e-07 -1.07996e-06 0 3.18204e-08 6.06714e-08 0 0 0 0)
(2.38812e-07 2.5071e-07 0 -1.38977e-08 -1.68909e-08 0 0 0 0)
(-5.87547e-08 -6.02974e-08 0 1.98406e-09 4.40817e-09 0 0 0 0)
(1.6266e-08 1.27085e-08 0 -2.39685e-09 -9.92906e-10 0 0 0 0)
(-5.42364e-09 -3.86926e-09 0 -5.10768e-10 4.28102e-10 0 0 0 0)
(1.13727e-09 1.16051e-10 0 -7.44928e-10 5.16794e-11 0 0 0 0)
(-4.94965e-10 -7.14504e-10 0 -4.40593e-10 1.2957e-10 0 0 0 0)
(1.39862e-11 -4.9241e-10 0 -3.59494e-10 8.73046e-11 0 0 0 0)
(-1.03162e-10 -5.33595e-10 0 -2.5064e-10 7.58291e-11 0 0 0 0)
(-4.80573e-11 -5.11226e-10 0 -1.78053e-10 5.83031e-11 0 0 0 0)
(-4.31241e-11 -4.80677e-10 0 -1.16796e-10 4.47699e-11 0 0 0 0)
(-3.68629e-11 -4.17157e-10 0 -7.18013e-11 3.2581e-11 0 0 0 0)
(-3.02492e-11 -3.43563e-10 0 -3.92481e-11 2.26232e-11 0 0 0 0)
(-9.6494e-12 -3.94569e-10 0 -1.43928e-11 1.4763e-11 0 0 0 0)
(-5.42101e-14 -4.45877e-10 0 1.70762e-12 6.91956e-12 0 0 0 0)
(-1.78893e-12 -1.34574e-10 0 1.0842e-12 -1.98912e-13 0 0 0 0)
(3.22341e-05 7.01212e-05 0 2.37495e-06 -9.81753e-06 0 0 0 0)
(-3.66411e-05 -8.69277e-05 0 -2.93628e-07 2.67906e-06 0 0 0 0)
(7.28728e-06 2.07846e-05 0 1.55046e-07 -6.52914e-07 0 0 0 0)
(-3.31332e-06 -4.91517e-06 0 -4.99026e-09 1.74801e-07 0 0 0 0)
(6.27471e-07 1.16959e-06 0 1.70111e-10 -4.87165e-08 0 0 0 0)
(-2.44938e-07 -2.78365e-07 0 -5.98724e-10 1.13037e-08 0 0 0 0)
(6.27749e-08 6.46729e-08 0 -1.91088e-09 -4.02602e-09 0 0 0 0)
(-1.72249e-08 -1.62538e-08 0 -7.45416e-10 6.69382e-10 0 0 0 0)
(5.84829e-09 3.01856e-09 0 -8.79396e-10 -3.66743e-10 0 0 0 0)
(-1.31988e-09 -1.43731e-09 0 -5.67417e-10 1.82017e-11 0 0 0 0)
(4.62277e-10 -3.47294e-10 0 -4.74908e-10 -4.4742e-11 0 0 0 0)
(-9.99634e-11 -5.79719e-10 0 -3.43367e-10 -1.09142e-11 0 0 0 0)
(4.54281e-11 -5.21197e-10 0 -2.5514e-10 -1.34256e-11 0 0 0 0)
(2.03288e-12 -5.21798e-10 0 -1.77674e-10 -9.66355e-12 0 0 0 0)
(1.25767e-11 -4.85595e-10 0 -1.1788e-10 -8.75005e-12 0 0 0 0)
(6.55942e-12 -4.22366e-10 0 -7.18555e-11 -7.3406e-12 0 0 0 0)
(3.03577e-12 -3.47386e-10 0 -3.86789e-11 -6.63862e-12 0 0 0 0)
(2.08709e-12 -3.97334e-10 0 -1.40404e-11 -5.76861e-12 0 0 0 0)
(3.57787e-12 -4.48065e-10 0 1.30104e-12 -1.20735e-12 0 0 0 0)
(-8.13152e-14 -1.36086e-10 0 9.75782e-13 1.12135e-12 0 0 0 0)
(-3.05785e-05 -7.34573e-05 0 -4.55446e-06 8.30102e-06 0 0 0 0)
(3.47703e-05 9.11876e-05 0 8.02765e-07 -2.18575e-06 0 0 0 0)
(-6.94513e-06 -2.19034e-05 0 -3.81865e-07 5.22254e-07 0 0 0 0)
(3.15819e-06 5.18427e-06 0 6.11245e-08 -1.43419e-07 0 0 0 0)
(-5.96639e-07 -1.24346e-06 0 -2.46651e-08 3.42067e-08 0 0 0 0)
(2.36731e-07 2.954e-07 0 4.71059e-09 -1.04604e-08 0 0 0 0)
(-5.89014e-08 -7.09317e-08 0 -2.15778e-09 1.93893e-09 0 0 0 0)
(1.72974e-08 1.63677e-08 0 -3.41524e-10 -1.06935e-09 0 0 0 0)
(-5.24567e-09 -4.52044e-09 0 -7.28665e-10 -8.46436e-11 0 0 0 0)
(1.54176e-09 4.38052e-10 0 -5.15267e-10 -2.40136e-10 0 0 0 0)
(-2.70942e-10 -7.4362e-10 0 -4.31214e-10 -1.3096e-10 0 0 0 0)
(2.33862e-10 -4.61094e-10 0 -3.2808e-10 -1.19592e-10 0 0 0 0)
(6.25585e-11 -5.32344e-10 0 -2.4381e-10 -9.36986e-11 0 0 0 0)
(8.91214e-11 -5.0655e-10 0 -1.72713e-10 -7.72002e-11 0 0 0 0)
(6.27211e-11 -4.78354e-10 0 -1.14844e-10 -6.11767e-11 0 0 0 0)
(4.2311e-11 -4.15046e-10 0 -7.06087e-11 -4.73011e-11 0 0 0 0)
(2.75387e-11 -3.41991e-10 0 -3.86789e-11 -3.60261e-11 0 0 0 0)
(3.03306e-11 -3.89138e-10 0 -1.40675e-11 -2.55146e-11 0 0 0 0)
(1.49891e-11 -4.38987e-10 0 1.68051e-12 -9.37547e-12 0 0 0 0)
(-4.06576e-12 -1.34488e-10 0 9.75782e-13 2.35683e-12 0 0 0 0)
(2.84824e-05 7.62365e-05 0 6.27832e-06 -7.11086e-06 0 0 0 0)
(-3.24685e-05 -9.47064e-05 0 -1.18939e-06 1.84222e-06 0 0 0 0)
(6.54564e-06 2.28269e-05 0 5.50246e-07 -4.43185e-07 0 0 0 0)
(-2.95612e-06 -5.40322e-06 0 -9.82642e-08 1.14474e-07 0 0 0 0)
(5.71057e-07 1.30255e-06 0 3.82189e-08 -3.02627e-08 0 0 0 0)
(-2.22431e-07 -3.10633e-07 0 -9.86686e-09 6.67029e-09 0 0 0 0)
(5.77227e-08 7.4064e-08 0 1.96522e-09 -2.62106e-09 0 0 0 0)
(-1.57957e-08 -1.82773e-08 0 -1.38867e-09 5.53425e-11 0 0 0 0)
(5.67458e-09 3.84778e-09 0 -3.50116e-10 -4.92655e-10 0 0 0 0)
(-1.02238e-09 -1.48363e-09 0 -5.20932e-10 -2.49259e-10 0 0 0 0)
(6.49437e-10 -2.2675e-10 0 -3.67653e-10 -2.49302e-10 0 0 0 0)
(8.73867e-11 -5.42458e-10 0 -3.0504e-10 -1.99245e-10 0 0 0 0)
(2.00767e-10 -4.78806e-10 0 -2.25351e-10 -1.70675e-10 0 0 0 0)
(1.30972e-10 -4.89276e-10 0 -1.62224e-10 -1.39053e-10 0 0 0 0)
(1.1479e-10 -4.55696e-10 0 -1.08447e-10 -1.11215e-10 0 0 0 0)
(8.27517e-11 -3.97215e-10 0 -6.69766e-11 -8.51107e-11 0 0 0 0)
(5.94956e-11 -3.25599e-10 0 -3.59142e-11 -6.37886e-11 0 0 0 0)
(4.24465e-11 -3.70683e-10 0 -1.3146e-11 -4.50864e-11 0 0 0 0)
(1.86754e-11 -4.20194e-10 0 1.21973e-12 -1.73517e-11 0 0 0 0)
(-2.76472e-12 -1.29067e-10 0 1.11131e-12 3.71537e-12 0 0 0 0)
(-2.54895e-05 -7.8726e-05 0 -7.7318e-06 6.11415e-06 0 0 0 0)
(2.90423e-05 9.78553e-05 0 1.52755e-06 -1.56007e-06 0 0 0 0)
(-5.854e-06 -2.36311e-05 0 -6.8552e-07 3.69785e-07 0 0 0 0)
(2.64616e-06 5.59719e-06 0 1.31975e-07 -9.68785e-08 0 0 0 0)
(-5.08242e-07 -1.35126e-06 0 -4.99522e-08 2.29961e-08 0 0 0 0)
(2.00477e-07 3.23042e-07 0 1.2538e-08 -6.61782e-09 0 0 0 0)
(-5.04232e-08 -7.75466e-08 0 -3.92495e-09 1.11105e-09 0 0 0 0)
(1.49821e-08 1.84961e-08 0 6.79442e-10 -8.39485e-10 0 0 0 0)
(-4.37793e-09 -4.82504e-09 0 -7.29234e-10 -2.83459e-10 0 0 0 0)
(1.5242e-09 6.81404e-10 0 -3.248e-10 -3.82998e-10 0 0 0 0)
(-5.50775e-11 -6.93606e-10 0 -3.67273e-10 -3.07294e-10 0 0 0 0)
(3.76137e-10 -3.82466e-10 0 -2.68503e-10 -2.78729e-10 0 0 0 0)
(2.05456e-10 -4.72152e-10 0 -2.10389e-10 -2.36444e-10 0 0 0 0)
(2.06053e-10 -4.47091e-10 0 -1.49918e-10 -1.96377e-10 0 0 0 0)
(1.57968e-10 -4.24412e-10 0 -1.01427e-10 -1.57095e-10 0 0 0 0)
(1.14871e-10 -3.67619e-10 0 -6.31006e-11 -1.20547e-10 0 0 0 0)
(8.13152e-11 -3.01967e-10 0 -3.586e-11 -9.03383e-11 0 0 0 0)
(6.74103e-11 -3.42701e-10 0 -1.36067e-11 -6.35672e-11 0 0 0 0)
(2.92192e-11 -3.90185e-10 0 1.87025e-12 -2.54601e-11 0 0 0 0)
(-6.34258e-12 -1.20851e-10 0 1.35525e-12 5.23718e-12 0 0 0 0)
(2.22781e-05 8.07906e-05 0 8.38706e-06 -5.08386e-06 0 0 0 0)
(-2.54222e-05 -0.000100451 0 -1.66457e-06 1.23842e-06 0 0 0 0)
(5.15006e-06 2.42901e-05 0 7.52921e-07 -2.92046e-07 0 0 0 0)
(-2.32055e-06 -5.75001e-06 0 -1.43434e-07 7.18878e-08 0 0 0 0)
(4.5162e-07 1.39281e-06 0 5.64966e-08 -1.70939e-08 0 0 0 0)
(-1.76403e-07 -3.32518e-07 0 -1.44594e-08 3.92266e-09 0 0 0 0)
(4.58642e-08 7.98423e-08 0 3.71318e-09 -1.35536e-09 0 0 0 0)
(-1.26e-08 -1.96718e-08 0 -1.75633e-09 -1.56714e-10 0 0 0 0)
(4.67031e-09 4.30426e-09 0 -9.45153e-11 -4.76089e-10 0 0 0 0)
(-6.60415e-10 -1.50746e-09 0 -4.78648e-10 -3.94114e-10 0 0 0 0)
(7.05761e-10 -1.22481e-10 0 -2.85335e-10 -3.84194e-10 0 0 0 0)
(2.44244e-10 -4.71608e-10 0 -2.57308e-10 -3.41571e-10 0 0 0 0)
(3.19298e-10 -3.96454e-10 0 -1.8632e-10 -2.97428e-10 0 0 0 0)
(2.39934e-10 -4.09927e-10 0 -1.3642e-10 -2.47776e-10 0 0 0 0)
(2.01526e-10 -3.79865e-10 0 -9.17235e-11 -1.99231e-10 0 0 0 0)
(1.48373e-10 -3.30458e-10 0 -5.7788e-11 -1.53038e-10 0 0 0 0)
(1.09125e-10 -2.6862e-10 0 -3.16858e-11 -1.14766e-10 0 0 0 0)
(8.02039e-11 -3.05805e-10 0 -1.22786e-11 -8.16107e-11 0 0 0 0)
(3.36374e-11 -3.51389e-10 0 7.58942e-13 -3.36744e-11 0 0 0 0)
(-6.07153e-12 -1.08844e-10 0 1.27394e-12 6.85351e-12 0 0 0 0)
(-1.87671e-05 -8.25714e-05 0 -7.9179e-06 4.19685e-06 0 0 0 0)
(2.14081e-05 0.000102647 0 1.52931e-06 -1.06549e-06 0 0 0 0)
(-4.33286e-06 -2.47977e-05 0 -7.00672e-07 2.59312e-07 0 0 0 0)
(1.94973e-06 5.87214e-06 0 1.3041e-07 -6.35032e-08 0 0 0 0)
(-3.79267e-07 -1.41923e-06 0 -5.13337e-08 1.71051e-08 0 0 0 0)
(1.47694e-07 3.3878e-07 0 1.24077e-08 -3.99817e-09 0 0 0 0)
(-3.77202e-08 -8.1626e-08 0 -4.08625e-09 8.66272e-10 0 0 0 0)
(1.11744e-08 1.93754e-08 0 6.95543e-10 -6.77464e-10 0 0 0 0)
(-3.10028e-09 -5.06244e-09 0 -7.09393e-10 -3.97713e-10 0 0 0 0)
(1.33338e-09 7.73299e-10 0 -2.76444e-10 -4.9855e-10 0 0 0 0)
(1.66317e-10 -6.41063e-10 0 -3.14988e-10 -4.48511e-10 0 0 0 0)
(4.75152e-10 -2.957e-10 0 -2.19415e-10 -4.115e-10 0 0 0 0)
(3.26291e-10 -3.78356e-10 0 -1.69949e-10 -3.56296e-10 0 0 0 0)
(3.00703e-10 -3.48894e-10 0 -1.19316e-10 -2.97419e-10 0 0 0 0)
(2.366e-10 -3.29673e-10 0 -8.04207e-11 -2.38646e-10 0 0 0 0)
(1.74855e-10 -2.83154e-10 0 -4.98733e-11 -1.8275e-10 0 0 0 0)
(1.26825e-10 -2.3054e-10 0 -2.82435e-11 -1.36339e-10 0 0 0 0)
(9.98279e-11 -2.6161e-10 0 -1.05439e-11 -9.68123e-11 0 0 0 0)
(4.27989e-11 -3.01721e-10 0 1.32815e-12 -4.0534e-11 0 0 0 0)
(-8.37546e-12 -9.40306e-11 0 9.75782e-13 7.96774e-12 0 0 0 0)
(1.58895e-05 8.39219e-05 0 1.06383e-05 -3.34737e-06 0 0 0 0)
(-1.8205e-05 -0.000104388 0 -2.21002e-06 8.67668e-07 0 0 0 0)
(3.75117e-06 2.52921e-05 0 9.58445e-07 -2.03349e-07 0 0 0 0)
(-1.67122e-06 -5.99222e-06 0 -1.99103e-07 5.78459e-08 0 0 0 0)
(3.33618e-07 1.45232e-06 0 7.26388e-08 -1.31592e-08 0 0 0 0)
(-1.29156e-07 -3.48757e-07 0 -2.0464e-08 3.91844e-09 0 0 0 0)
(3.41521e-08 8.3163e-08 0 4.77718e-09 -1.35868e-09 0 0 0 0)
(-9.22306e-09 -2.09358e-08 0 -2.40869e-09 -2.07386e-10 0 0 0 0)
(3.69832e-09 4.48318e-09 0 -1.87025e-12 -6.46988e-10 0 0 0 0)
(-2.65955e-10 -1.55826e-09 0 -4.89246e-10 -5.35336e-10 0 0 0 0)
(7.62655e-10 -3.54298e-11 0 -2.20527e-10 -5.28567e-10 0 0 0 0)
(3.89256e-10 -3.79392e-10 0 -2.03369e-10 -4.63747e-10 0 0 0 0)
(4.19451e-10 -2.82373e-10 0 -1.34793e-10 -4.02898e-10 0 0 0 0)
(3.29462e-10 -2.92277e-10 0 -9.61145e-11 -3.33149e-10 0 0 0 0)
(2.71078e-10 -2.65197e-10 0 -6.12845e-11 -2.66193e-10 0 0 0 0)
(2.00496e-10 -2.28151e-10 0 -3.59142e-11 -2.02349e-10 0 0 0 0)
(1.48454e-10 -1.82682e-10 0 -1.64528e-11 -1.50756e-10 0 0 0 0)
(1.09748e-10 -2.09999e-10 0 -4.11997e-12 -1.07754e-10 0 0 0 0)
(4.5157e-11 -2.46609e-10 0 1.11131e-12 -4.5308e-11 0 0 0 0)
(-8.34836e-12 -7.62782e-11 0 1.35525e-13 8.41692e-12 0 0 0 0)
(-1.03387e-05 -8.50511e-05 0 -9.57713e-06 2.24857e-06 0 0 0 0)
(1.17282e-05 0.000105791 0 1.94864e-06 -3.94452e-07 0 0 0 0)
(-2.32194e-06 -2.56075e-05 0 -8.75207e-07 9.21986e-08 0 0 0 0)
(1.06393e-06 6.06233e-06 0 1.73307e-07 -7.53954e-09 0 0 0 0)
(-2.00628e-07 -1.47316e-06 0 -7.10476e-08 1.34893e-09 0 0 0 0)
(7.98322e-08 3.50581e-07 0 1.6475e-08 4.28138e-10 0 0 0 0)
(-1.96648e-08 -8.57518e-08 0 -6.3267e-09 -1.02473e-09 0 0 0 0)
(6.39536e-09 2.00871e-08 0 1.06105e-09 -5.56289e-10 0 0 0 0)
(-1.18083e-09 -5.39039e-09 0 -9.13251e-10 -7.80005e-10 0 0 0 0)
(1.11467e-09 8.91719e-10 0 -1.77403e-10 -6.43454e-10 0 0 0 0)
(4.52221e-10 -5.69474e-10 0 -2.66849e-10 -6.05855e-10 0 0 0 0)
(5.60939e-10 -1.7003e-10 0 -1.49024e-10 -5.22444e-10 0 0 0 0)
(4.33545e-10 -2.47758e-10 0 -1.17582e-10 -4.49091e-10 0 0 0 0)
(3.74212e-10 -2.12188e-10 0 -7.74391e-11 -3.69331e-10 0 0 0 0)
(2.96719e-10 -1.98873e-10 0 -5.11472e-11 -2.94523e-10 0 0 0 0)
(2.19714e-10 -1.67718e-10 0 -3.17129e-11 -2.2484e-10 0 0 0 0)
(1.58565e-10 -1.35945e-10 0 -2.03288e-11 -1.68767e-10 0 0 0 0)
(1.17419e-10 -1.56162e-10 0 -7.80626e-12 -1.1851e-10 0 0 0 0)
(4.70815e-11 -1.8555e-10 0 2.1684e-12 -4.68106e-11 0 0 0 0)
(-9.59519e-12 -5.71395e-11 0 1.0571e-12 9.56898e-12 0 0 0 0)
(8.26105e-06 8.57761e-05 0 6.28074e-06 -1.72343e-06 0 0 0 0)
(-9.50306e-06 -0.000106545 0 -1.00685e-06 7.1318e-07 0 0 0 0)
(1.97583e-06 2.5679e-05 0 4.99246e-07 -1.75729e-07 0 0 0 0)
(-8.67056e-07 -6.08306e-06 0 -7.64254e-08 5.7385e-08 0 0 0 0)
(1.76786e-07 1.46028e-06 0 2.69616e-08 -1.85802e-08 0 0 0 0)
(-6.4435e-08 -3.5113e-07 0 -9.09429e-09 3.32685e-09 0 0 0 0)
(1.87381e-08 8.21786e-08 0 4.53712e-10 -2.67879e-09 0 0 0 0)
(-3.80962e-09 -2.06911e-08 0 -1.22458e-09 -6.69753e-10 0 0 0 0)
(2.45986e-09 4.39601e-09 0 -2.83871e-10 -1.03759e-09 0 0 0 0)
(3.80392e-10 -1.38411e-09 0 -2.70996e-10 -7.61604e-10 0 0 0 0)
(7.91115e-10 8.55803e-11 0 -1.61926e-10 -6.9626e-10 0 0 0 0)
(5.3855e-10 -2.22628e-10 0 -1.23111e-10 -5.86356e-10 0 0 0 0)
(4.91008e-10 -1.2926e-10 0 -9.12627e-11 -4.97651e-10 0 0 0 0)
(3.95924e-10 -1.37709e-10 0 -6.88468e-11 -4.06433e-10 0 0 0 0)
(3.1675e-10 -1.20706e-10 0 -5.25567e-11 -3.23413e-10 0 0 0 0)
(2.31423e-10 -1.02396e-10 0 -4.30699e-11 -2.47731e-10 0 0 0 0)
(1.72307e-10 -7.63522e-11 0 -3.38813e-11 -1.86344e-10 0 0 0 0)
(1.32218e-10 -8.80425e-11 0 -1.67238e-11 -1.31859e-10 0 0 0 0)
(5.40475e-11 -1.1853e-10 0 1.84314e-12 -5.45816e-11 0 0 0 0)
(-1.1601e-11 -3.90366e-11 0 3.57787e-12 1.27921e-11 0 0 0 0)
(-5.06484e-06 -8.60614e-05 0 -3.83668e-06 9.46087e-07 0 0 0 0)
(5.94672e-06 0.000107339 0 6.40459e-07 -6.60775e-07 0 0 0 0)
(-1.39151e-06 -2.62633e-05 0 -2.80339e-07 1.5197e-07 0 0 0 0)
(5.91643e-07 6.21948e-06 0 5.61393e-08 -7.64945e-08 0 0 0 0)
(-1.33297e-07 -1.52721e-06 0 -4.92531e-09 1.55526e-08 0 0 0 0)
(5.33243e-08 3.66482e-07 0 1.26508e-08 -9.56253e-09 0 0 0 0)
(-1.17951e-08 -8.97484e-08 0 6.18537e-09 2.00565e-10 0 0 0 0)
(5.65777e-09 2.17283e-08 0 5.70784e-09 -1.99269e-09 0 0 0 0)
(-2.27249e-10 -5.48224e-09 0 4.33724e-09 -8.36648e-10 0 0 0 0)
(1.23661e-09 1.23305e-09 0 3.47522e-09 -9.06464e-10 0 0 0 0)
(6.00133e-10 -3.94226e-10 0 2.72018e-09 -6.85592e-10 0 0 0 0)
(6.31548e-10 2.85786e-11 0 2.08403e-09 -5.97818e-10 0 0 0 0)
(4.87783e-10 -6.78352e-11 0 1.55008e-09 -4.91542e-10 0 0 0 0)
(4.12973e-10 -3.79502e-11 0 1.10521e-09 -4.00723e-10 0 0 0 0)
(3.2255e-10 -4.01715e-11 0 7.41242e-10 -3.15883e-10 0 0 0 0)
(2.38281e-10 -3.0649e-11 0 4.65936e-10 -2.39845e-10 0 0 0 0)
(1.85019e-10 -2.00731e-11 0 2.71511e-10 -1.82838e-10 0 0 0 0)
(1.53171e-10 -2.43994e-11 0 1.08637e-10 -1.4342e-10 0 0 0 0)
(6.73018e-11 -4.08992e-11 0 -1.38778e-11 -7.03957e-11 0 0 0 0)
(-1.50433e-11 -1.53499e-11 0 -1.27394e-11 1.60092e-11 0 0 0 0)
)
;

boundaryField
{
    movingWall
    {
        type            extrapolatedCalculated;
        value           nonuniform List<tensor> 
20
(
(-5.06484e-06 -8.60614e-05 0 2.64001e-05 0.000455791 0 0 0 0)
(5.94672e-06 0.000107339 0 -6.14071e-06 -0.000111545 0 0 0 0)
(-1.39151e-06 -2.62633e-05 0 2.61316e-06 2.64354e-05 0 0 0 0)
(5.91643e-07 6.21948e-06 0 -5.74657e-07 -6.49202e-06 0 0 0 0)
(-1.33297e-07 -1.52721e-06 0 2.46589e-07 1.55744e-06 0 0 0 0)
(5.33243e-08 3.66482e-07 0 -4.14691e-08 -3.83158e-07 0 0 0 0)
(-1.17951e-08 -8.97484e-08 0 3.32919e-08 9.15094e-08 0 0 0 0)
(5.65777e-09 2.17283e-08 0 5.71143e-09 -2.41648e-08 0 0 0 0)
(-2.27249e-10 -5.48224e-09 0 1.06608e-08 4.59616e-09 0 0 0 0)
(1.23661e-09 1.23305e-09 0 6.62048e-09 -2.23584e-09 0 0 0 0)
(6.00133e-10 -3.94226e-10 0 5.71436e-09 -3.36058e-10 0 0 0 0)
(6.31548e-10 2.85786e-11 0 4.21991e-09 -6.58938e-10 0 0 0 0)
(4.87783e-10 -6.78352e-11 0 3.18821e-09 -4.50373e-10 0 0 0 0)
(4.12973e-10 -3.79502e-11 0 2.26876e-09 -3.87597e-10 0 0 0 0)
(3.2255e-10 -4.01715e-11 0 1.53637e-09 -2.98572e-10 0 0 0 0)
(2.38281e-10 -3.0649e-11 0 9.78684e-10 -2.26911e-10 0 0 0 0)
(1.85019e-10 -2.00731e-11 0 5.83089e-10 -1.75976e-10 0 0 0 0)
(1.53171e-10 -2.43994e-11 0 2.38742e-10 -1.46619e-10 0 0 0 0)
(6.73018e-11 -4.08992e-11 0 -2.95763e-11 -7.83779e-11 0 0 0 0)
(-1.50433e-11 -1.53499e-11 0 -3.05089e-11 1.69783e-11 0 0 0 0)
)
;
    }
    fixedWalls
    {
        type            extrapolatedCalculated;
        value           nonuniform List<tensor> 
60
(
(5.3842e-06 0.000114714 0 -3.30431e-06 -1.27797e-06 0 0 0 0)
(-1.86014e-05 -0.000119826 0 6.56246e-06 3.93554e-06 0 0 0 0)
(3.1634e-05 0.000130456 0 -7.60957e-06 -6.7954e-06 0 0 0 0)
(-4.90397e-05 -0.000147007 0 8.66645e-06 9.9243e-06 0 0 0 0)
(6.62998e-05 0.000170153 0 -9.55889e-06 -1.31376e-05 0 0 0 0)
(-8.72752e-05 -0.000199558 0 1.11121e-05 1.6334e-05 0 0 0 0)
(0.000110748 0.000235489 0 -1.12484e-05 -1.9228e-05 0 0 0 0)
(-0.000132269 -0.00027647 0 1.06912e-05 2.06734e-05 0 0 0 0)
(0.000153513 0.000318183 0 -7.49222e-06 -1.77472e-05 0 0 0 0)
(-0.000162238 -0.000347458 0 1.83974e-06 1.25953e-05 0 0 0 0)
(0.000160872 0.000368564 0 2.37495e-06 -9.81753e-06 0 0 0 0)
(-0.000152738 -0.000386729 0 -4.55446e-06 8.30102e-06 0 0 0 0)
(0.000142654 0.000401768 0 6.27832e-06 -7.11086e-06 0 0 0 0)
(-0.000127625 -0.000415172 0 -7.7318e-06 6.11415e-06 0 0 0 0)
(0.000111727 0.000426225 0 8.38706e-06 -5.08386e-06 0 0 0 0)
(-9.40764e-05 -0.000435507 0 -7.9179e-06 4.19685e-06 0 0 0 0)
(8.00553e-05 0.000443012 0 1.06383e-05 -3.34737e-06 0 0 0 0)
(-5.1523e-05 -0.000448897 0 -9.57713e-06 2.24857e-06 0 0 0 0)
(4.17468e-05 0.000452006 0 6.28074e-06 -1.72343e-06 0 0 0 0)
(-2.64001e-05 -0.000455791 0 -3.83668e-06 9.46087e-07 0 0 0 0)
(1.59872e-11 1.34683e-11 0 -7.64363e-12 -1.34103e-11 0 0 0 0)
(1.44773e-11 4.01729e-11 0 3.52366e-13 -1.27317e-11 0 0 0 0)
(1.45661e-11 6.43949e-11 0 6.77626e-13 -1.16392e-11 0 0 0 0)
(1.18128e-11 8.67295e-11 0 8.40257e-13 -1.03472e-11 0 0 0 0)
(1.1191e-11 1.05784e-10 0 1.16552e-12 -8.71216e-12 0 0 0 0)
(7.19425e-12 1.21578e-10 0 1.19262e-12 -6.93876e-12 0 0 0 0)
(6.4837e-12 1.33539e-10 0 1.27394e-12 -5.09355e-12 0 0 0 0)
(2.04281e-12 1.41952e-10 0 1.24683e-12 -3.31173e-12 0 0 0 0)
(1.5099e-12 1.46786e-10 0 1.11131e-12 -1.65567e-12 0 0 0 0)
(-2.44249e-12 1.48575e-10 0 1.0842e-12 -1.98912e-13 0 0 0 0)
(-2.75335e-12 1.47581e-10 0 9.75782e-13 1.12135e-12 0 0 0 0)
(-6.30607e-12 1.4409e-10 0 9.75782e-13 2.35683e-12 0 0 0 0)
(-6.70575e-12 1.38154e-10 0 1.11131e-12 3.71537e-12 0 0 0 0)
(-1.06581e-11 1.29228e-10 0 1.35525e-12 5.23718e-12 0 0 0 0)
(-1.23013e-11 1.17205e-10 0 1.27394e-12 6.85351e-12 0 0 0 0)
(-1.56763e-11 1.01814e-10 0 9.75782e-13 7.96774e-12 0 0 0 0)
(-1.62093e-11 8.53343e-11 0 1.35525e-13 8.41692e-12 0 0 0 0)
(-1.62093e-11 6.81465e-11 0 1.0571e-12 9.56898e-12 0 0 0 0)
(-2.04725e-11 4.70584e-11 0 3.57787e-12 1.27921e-11 0 0 0 0)
(-3.05089e-11 1.69783e-11 0 -1.27394e-11 1.60092e-11 0 0 0 0)
(1.13837e-06 2.22834e-05 0 5.3842e-06 0.000114714 0 0 0 0)
(-1.24526e-06 -2.71634e-05 0 -8.30721e-07 -2.55805e-05 0 0 0 0)
(1.96563e-07 6.056e-06 0 4.03147e-07 6.06032e-06 0 0 0 0)
(-9.34923e-08 -1.43712e-06 0 -4.44671e-08 -1.35648e-06 0 0 0 0)
(1.1947e-08 3.21157e-07 0 2.91781e-08 3.11857e-07 0 0 0 0)