/*--------------------------------*- C++ -*----------------------------------*\
| =========                 |                                                 |
| \\      /  F ield         | OpenFOAM: The Open Source CFD Toolbox           |
|  \\    /   O peration     | Version:  2506                                  |
|   \\  /    A nd           | Website:  www.openfoam.com                      |
|    \\/     M anipulation  |                                                 |
\*---------------------------------------------------------------------------*/
FoamFile
{
    version     2.0;
    format      ascii;
    arch        "LSB;label=32;scalar=64";
    class       volVectorField;
    location    "3.25";
    object      LambVectorField;
}
// * * * * * * * * * * * * * * * * * * * * * * * * * * * * * * * * * * * * * //

dimensions      [0 1 -2 0 0 0 0];

internalField   nonuniform List<vector> 
400
(
(-7.33815e-12 -2.55877e-05 0)
(-1.7765e-12 2.7779e-05 -0)
(-9.59272e-14 -6.33149e-06 0)
(-5.05639e-15 1.49103e-06 -0)
(-2.61918e-16 -3.35946e-07 0)
(-1.48747e-17 8.28077e-08 -0)
(-5.90277e-19 -1.45187e-08 0)
(-6.40147e-20 7.6691e-09 -0)
(6.5377e-21 2.08839e-09 0)
(1.88263e-21 2.84247e-09 0)
(2.57324e-21 2.10691e-09 0)
(1.78528e-21 1.7313e-09 0)
(1.25471e-21 1.31306e-09 0)
(7.83493e-22 9.63884e-10 0)
(4.43867e-22 6.65586e-10 0)
(2.24273e-22 4.26925e-10 0)
(1.00138e-22 2.4344e-10 0)
(3.0009e-23 1.03112e-10 0)
(1.95819e-24 1.50689e-11 0)
(-6.68089e-26 1.98418e-12 -0)
(-8.94497e-12 2.98599e-05 -0)
(-1.96805e-12 -2.95549e-05 0)
(-1.07889e-13 6.8478e-06 -0)
(-5.5613e-15 -1.58629e-06 0)
(-2.95911e-16 3.67195e-07 -0)
(-1.57371e-17 -8.50981e-08 0)
(-7.61471e-19 1.96153e-08 -0)
(-5.56937e-20 -4.58829e-09 0)
(1.24883e-21 1.03927e-09 0)
(-9.20331e-22 -2.34247e-10 0)
(2.86389e-22 8.6115e-11 0)
(1.14489e-22 3.52935e-11 0)
(1.99023e-22 6.88909e-11 0)
(1.89877e-22 7.68005e-11 0)
(1.64801e-22 8.15357e-11 0)
(1.17836e-22 7.49269e-11 0)
(7.76515e-23 6.39952e-11 0)
(7.5265e-23 8.31079e-11 0)
(3.79048e-23 1.01446e-10 0)
(-2.77931e-24 2.76735e-11 -0)
(-1.07576e-11 -3.29845e-05 0)
(-2.3372e-12 3.22857e-05 -0)
(-1.27811e-13 -7.47835e-06 0)
(-6.5967e-15 1.73093e-06 -0)
(-3.47581e-16 -4.00838e-07 0)
(-1.8304e-17 9.24761e-08 -0)
(-1.01582e-18 -2.15784e-08 0)
(-2.45349e-20 4.84032e-09 -0)
(-9.57442e-21 -1.2114e-09 0)
(1.32058e-21 2.41802e-10 0)
(-2.45981e-22 -4.15733e-11 0)
(3.85335e-22 7.13855e-11 0)
(4.34007e-22 8.95153e-11 0)
(4.85434e-22 1.17845e-10 0)
(4.28073e-22 1.27294e-10 0)
(3.13866e-22 1.19934e-10 0)
(2.08724e-22 1.03684e-10 0)
(2.0201e-22 1.36181e-10 0)
(1.03002e-22 1.66687e-10 0)
(-7.46536e-24 4.63723e-11 -0)
(-1.36973e-11 3.72696e-05 -0)
(-2.96787e-12 -3.64213e-05 0)
(-1.62505e-13 8.43774e-06 -0)
(-8.32921e-15 -1.95389e-06 0)
(-4.41483e-16 4.51799e-07 -0)
(-2.36185e-17 -1.04815e-07 0)
(-1.01532e-18 2.39668e-08 -0)
(-1.07669e-19 -5.73837e-09 0)
(7.23322e-21 1.19877e-09 0)
(-2.98717e-21 -3.28024e-10 0)
(7.8344e-22 9.61412e-11 0)
(4.85993e-22 6.34953e-11 0)
(8.90583e-22 1.3162e-10 0)
(9.20061e-22 1.60437e-10 0)
(8.20075e-22 1.75788e-10 0)
(5.99412e-22 1.65615e-10 0)
(3.98053e-22 1.43636e-10 0)
(3.84195e-22 1.87548e-10 0)
(1.94294e-22 2.28513e-10 0)
(-1.39164e-23 6.41831e-11 -0)
(-1.81268e-11 -4.26128e-05 0)
(-3.99198e-12 4.20901e-05 -0)
(-2.18482e-13 -9.77349e-06 0)
(-1.13433e-14 2.26718e-06 -0)
(-6.00313e-16 -5.26192e-07 0)
(-3.10231e-17 1.2154e-07 -0)
(-1.88698e-18 -2.8479e-08 0)
(-1.35402e-20 6.34331e-09 -0)
(-2.34218e-20 -1.62384e-09 0)
(3.37169e-21 3.12539e-10 0)
(-4.95834e-22 -4.54176e-11 0)
(1.16306e-21 1.1866e-10 0)
(1.35318e-21 1.56325e-10 0)
(1.48042e-21 2.0328e-10 0)
(1.29881e-21 2.20019e-10 0)
(9.50738e-22 2.08044e-10 0)
(6.31573e-22 1.80831e-10 0)
(6.02534e-22 2.35024e-10 0)
(3.04989e-22 2.85393e-10 0)
(-2.15762e-23 8.15859e-11 -0)
(-2.4875e-11 4.98602e-05 -0)
(-5.50539e-12 -4.94143e-05 0)
(-3.02429e-13 1.15e-05 -0)
(-1.56796e-14 -2.67472e-06 0)
(-8.27961e-16 6.21079e-07 -0)
(-4.5931e-17 -1.44712e-07 0)
(-1.72018e-18 3.32083e-08 -0)
(-2.42728e-19 -7.9927e-09 0)
(1.97087e-20 1.67212e-09 0)
(-6.90996e-21 -4.5826e-10 0)
(1.8479e-21 1.40574e-10 0)
(1.17153e-21 9.77136e-11 0)
(2.04691e-21 1.96405e-10 0)
(2.08638e-21 2.39003e-10 0)
(1.84341e-21 2.61665e-10 0)
(1.34406e-21 2.47287e-10 0)
(8.92403e-22 2.15767e-10 0)
(8.43581e-22 2.78275e-10 0)
(4.24519e-22 3.35845e-10 0)
(-2.95439e-23 9.72013e-11 -0)
(-3.3468e-11 -5.68484e-05 0)
(-7.69246e-12 5.79584e-05 -0)
(-4.24102e-13 -1.35376e-05 0)
(-2.22576e-14 3.15909e-06 -0)
(-1.20628e-15 -7.37513e-07 0)
(-6.03521e-17 1.71411e-07 -0)
(-4.09592e-18 -4.03599e-08 0)
(8.5275e-21 9.07473e-09 0)
(-5.27147e-20 -2.31074e-09 0)
(7.577e-21 4.61381e-10 0)
(-1.0241e-21 -6.44724e-11 0)
(2.29769e-21 1.65522e-10 0)
(2.5534e-21 2.12094e-10 0)
(2.75045e-21 2.7476e-10 0)
(2.38987e-21 2.96928e-10 0)
(1.74467e-21 2.81717e-10 0)
(1.15804e-21 2.46394e-10 0)
(1.08091e-21 3.15552e-10 0)
(5.41488e-22 3.7829e-10 0)
(-3.70671e-23 1.1103e-10 -0)
(-4.43202e-11 6.41231e-05 -0)
(-1.06029e-11 -6.75962e-05 0)
(-5.88269e-13 1.58469e-05 -0)
(-3.12088e-14 -3.71179e-06 0)
(-1.65682e-15 8.68003e-07 -0)
(-9.66992e-17 -2.03546e-07 0)
(-3.34635e-18 4.71108e-08 -0)
(-5.40022e-19 -1.13442e-08 0)
(4.20341e-20 2.43583e-09 0)
(-1.3589e-20 -6.44669e-10 0)
(3.54663e-21 2.02304e-10 0)
(1.91002e-21 1.22101e-10 0)
(3.32983e-21 2.49167e-10 0)
(3.31507e-21 2.99255e-10 0)
(2.90422e-21 3.27303e-10 0)
(2.11257e-21 3.10242e-10 0)
(1.40217e-21 2.72305e-10 0)
(1.29344e-21 3.45718e-10 0)
(6.44656e-22 4.11789e-10 0)
(-4.34051e-23 1.22309e-10 -0)
(-5.46749e-11 -6.87339e-05 0)
(-1.40725e-11 7.68818e-05 -0)
(-7.89604e-13 -1.8137e-05 0)
(-4.18889e-14 4.27265e-06 -0)
(-2.39064e-15 -1.00667e-06 0)
(-1.15062e-16 2.36324e-07 -0)
(-8.61969e-18 -5.60554e-08 0)
(1.11503e-20 1.2819e-08 0)
(-1.00085e-19 -3.22501e-09 0)
(1.40665e-20 6.82519e-10 0)
(-1.92704e-21 -9.8087e-11 0)
(3.49458e-21 2.08253e-10 0)
(3.60498e-21 2.50581e-10 0)
(3.84683e-21 3.24395e-10 0)
(3.30627e-21 3.48796e-10 0)
(2.41178e-21 3.32212e-10 0)
(1.59986e-21 2.92109e-10 0)
(1.45779e-21 3.67752e-10 0)
(7.22235e-22 4.34919e-10 0)
(-4.78803e-23 1.30477e-10 -0)
(-5.92057e-11 6.81586e-05 -0)
(-1.69881e-11 -8.26843e-05 0)
(-9.52517e-13 1.96735e-05 -0)
(-5.36599e-14 -4.67987e-06 0)
(-2.90784e-15 1.11178e-06 -0)
(-1.76355e-16 -2.64607e-07 0)
(-6.74971e-18 6.22814e-08 -0)
(-9.59237e-19 -1.51053e-08 0)
(6.28383e-20 3.35849e-09 0)
(-2.13615e-20 -8.60979e-10 0)
(5.44283e-21 2.73911e-10 0)
(2.34805e-21 1.32916e-10 0)
(4.22923e-21 2.82954e-10 0)
(4.10793e-21 3.33173e-10 0)
(3.57857e-21 3.63881e-10 0)
(2.5981e-21 3.45356e-10 0)
(1.7233e-21 3.04315e-10 0)
(1.55391e-21 3.80177e-10 0)
(7.68581e-22 4.47585e-10 0)
(-5.03885e-23 1.35658e-10 -0)
(-6.24221e-11 -6.77463e-05 0)
(-1.90766e-11 8.66341e-05 -0)
(-1.07548e-12 -2.06295e-05 0)
(-6.06491e-14 4.91018e-06 -0)
(-3.48663e-15 -1.16942e-06 0)
(-1.82156e-16 2.77766e-07 -0)
(-1.31738e-17 -6.65838e-08 0)
(-1.40494e-19 1.55083e-08 -0)
(-1.37657e-19 -3.89796e-09 0)
(1.83777e-20 8.69893e-10 0)
(-2.67248e-21 -1.27614e-10 0)
(4.17244e-21 2.36352e-10 0)
(4.02938e-21 2.66057e-10 0)
(4.28142e-21 3.44124e-10 0)
(3.65023e-21 3.67715e-10 0)
(2.65881e-21 3.5051e-10 0)
(1.7606e-21 3.08707e-10 0)
(1.57598e-21 3.83293e-10 0)
(7.7732e-22 4.49366e-10 0)
(-5.05694e-23 1.37062e-10 -0)
(-6.66168e-11 6.89029e-05 -0)
(-2.09917e-11 -9.03848e-05 0)
(-1.18251e-12 2.15215e-05 -0)
(-6.76978e-14 -5.12314e-06 0)
(-3.78148e-15 1.21879e-06 -0)
(-2.26597e-16 -2.9069e-07 0)
(-1.02222e-17 6.87739e-08 -0)
(-1.17294e-18 -1.67093e-08 0)
(5.70391e-20 3.79177e-09 0)
(-2.3826e-20 -9.53319e-10 0)
(6.06797e-21 3.12405e-10 0)
(2.33527e-21 1.33014e-10 0)
(4.27389e-21 2.88534e-10 0)
(4.08386e-21 3.33837e-10 0)
(3.54311e-21 3.6351e-10 0)
(2.5659e-21 3.44437e-10 0)
(1.69748e-21 3.03312e-10 0)
(1.5114e-21 3.75071e-10 0)
(7.51383e-22 4.40667e-10 0)
(-4.87972e-23 1.35463e-10 -0)
(-7.02674e-11 -6.99582e-05 0)
(-2.26363e-11 9.35171e-05 -0)
(-1.2777e-12 -2.22767e-05 0)
(-7.31335e-14 5.30495e-06 -0)
(-4.20209e-15 -1.26433e-06 0)
(-2.287e-16 3.00766e-07 -0)
(-1.56629e-17 -7.20987e-08 0)
(-3.33597e-19 1.68887e-08 -0)
(-1.44696e-19 -4.19789e-09 0)
(1.80265e-20 9.62695e-10 0)
(-2.76626e-21 -1.40903e-10 0)
(3.90731e-21 2.37417e-10 0)
(3.60103e-21 2.53454e-10 0)
(3.81654e-21 3.27052e-10 0)
(3.23463e-21 3.47248e-10 0)
(2.34884e-21 3.30238e-10 0)
(1.54776e-21 2.89685e-10 0)
(1.37886e-21 3.57537e-10 0)
(6.89457e-22 4.21413e-10 0)
(-4.49618e-23 1.30179e-10 -0)
(-7.3687e-11 7.09942e-05 -0)
(-2.41465e-11 -9.63277e-05 0)
(-1.36245e-12 2.29456e-05 -0)
(-7.84743e-14 -5.46522e-06 0)
(-4.43131e-15 1.30131e-06 -0)
(-2.62754e-16 -3.10504e-07 0)
(-1.28724e-17 7.36217e-08 -0)
(-1.26054e-18 -1.78167e-08 0)
(4.14344e-20 4.0958e-09 0)
(-2.26397e-20 -1.0062e-09 0)
(5.52492e-21 3.26332e-10 0)
(1.77374e-21 1.13964e-10 0)
(3.43058e-21 2.61762e-10 0)
(3.22211e-21 2.97173e-10 0)
(2.7889e-21 3.22984e-10 0)
(2.00935e-21 3.04519e-10 0)
(1.31952e-21 2.66107e-10 0)
(1.17776e-21 3.29094e-10 0)
(6.00466e-22 3.92056e-10 0)
(-3.94814e-23 1.22207e-10 -0)
(-7.71504e-11 -7.24035e-05 0)
(-2.54528e-11 9.87862e-05 -0)
(-1.43703e-12 -2.35372e-05 0)
(-8.27231e-14 5.60657e-06 -0)
(-4.74863e-15 -1.33631e-06 0)
(-2.62898e-16 3.18058e-07 -0)
(-1.73843e-17 -7.61291e-08 0)
(-5.04278e-19 1.79155e-08 -0)
(-1.39151e-19 -4.39878e-09 0)
(1.53243e-20 1.02881e-09 0)
(-2.69678e-21 -1.62854e-10 0)
(2.92954e-21 2.143e-10 0)
(2.48869e-21 2.10134e-10 0)
(2.65459e-21 2.73507e-10 0)
(2.23139e-21 2.88141e-10 0)
(1.61068e-21 2.7267e-10 0)
(1.05187e-21 2.36934e-10 0)
(9.45412e-22 2.93526e-10 0)
(4.86478e-22 3.52148e-10 0)
(-3.22662e-23 1.10118e-10 -0)
(-8.12804e-11 7.46535e-05 -0)
(-2.65995e-11 -0.000101118 0)
(-1.50119e-12 2.4097e-05 -0)
(-8.65723e-14 -5.74173e-06 0)
(-4.89187e-15 1.3679e-06 -0)
(-2.88984e-16 -3.26373e-07 0)
(-1.46084e-17 7.75397e-08 -0)
(-1.29234e-18 -1.86799e-08 0)
(2.33124e-20 4.35304e-09 0)
(-1.94822e-20 -1.04974e-09 0)
(4.26781e-21 3.26076e-10 0)
(9.26729e-22 7.62842e-11 0)
(2.11146e-21 2.08407e-10 0)
(1.92037e-21 2.29577e-10 0)
(1.65566e-21 2.49253e-10 0)
(1.18229e-21 2.33281e-10 0)
(7.7094e-22 2.02296e-10 0)
(6.93614e-22 2.51066e-10 0)
(3.62096e-22 3.03049e-10 0)
(-2.41825e-23 9.50063e-11 -0)
(-8.11638e-11 -7.32836e-05 0)
(-2.74155e-11 0.000102178 -0)
(-1.54876e-12 -2.43337e-05 0)
(-8.91543e-14 5.79311e-06 -0)
(-5.13872e-15 -1.37968e-06 0)
(-2.84483e-16 3.28293e-07 -0)
(-1.85786e-17 -7.83858e-08 0)
(-6.47008e-19 1.85271e-08 -0)
(-1.24043e-19 -4.48505e-09 0)
(1.05935e-20 1.06901e-09 0)
(-2.23492e-21 -1.85097e-10 0)
(1.68195e-21 1.76023e-10 0)
(1.22202e-21 1.4758e-10 0)
(1.32048e-21 1.96163e-10 0)
(1.09248e-21 2.03912e-10 0)
(7.84246e-22 1.92237e-10 0)
(5.1134e-22 1.66229e-10 0)
(4.63796e-22 2.05879e-10 0)
(2.41804e-22 2.4772e-10 0)
(-1.63018e-23 7.64137e-11 -0)
(-8.47001e-11 7.5474e-05 -0)
(-2.82172e-11 -0.000103842 0)
(-1.59106e-12 2.47323e-05 -0)
(-9.21997e-14 -5.88903e-06 0)
(-5.19873e-15 1.40211e-06 -0)
(-3.08923e-16 -3.34106e-07 0)
(-1.60427e-17 7.94251e-08 -0)
(-1.27683e-18 -1.90261e-08 0)
(-4.98955e-21 4.47714e-09 -0)
(-1.41184e-20 -1.06912e-09 0)
(2.36131e-21 3.02625e-10 0)
(1.57777e-22 2.10064e-11 0)
(7.94395e-22 1.30177e-10 0)
(6.78236e-22 1.34749e-10 0)
(5.88032e-22 1.47726e-10 0)
(4.14079e-22 1.36005e-10 0)
(2.66309e-22 1.15617e-10 0)
(2.49999e-22 1.48356e-10 0)
(1.39242e-22 1.87718e-10 0)
(-9.91473e-24 5.81966e-11 -0)
(-8.9831e-11 -7.94953e-05 0)
(-2.87332e-11 0.000105538 -0)
(-1.62583e-12 -2.51798e-05 0)
(-9.28933e-14 6.00664e-06 -0)
(-5.35786e-15 -1.43332e-06 0)
(-2.94928e-16 3.42036e-07 -0)
(-1.85326e-17 -8.17249e-08 0)
(-7.88104e-19 1.94665e-08 -0)
(-9.29279e-20 -4.67988e-09 0)
(3.86811e-21 1.11311e-09 0)
(-1.48894e-21 -2.47506e-10 0)
(4.30991e-22 9.95167e-11 0)
(1.43991e-22 3.79975e-11 0)
(2.0922e-22 6.88625e-11 0)
(1.64403e-22 6.8149e-11 0)
(1.08637e-22 5.93262e-11 0)
(5.89682e-23 4.24709e-11 0)
(7.61438e-23 7.13187e-11 0)
(6.11511e-23 1.20373e-10 0)
(-5.01343e-24 4.26145e-11 -0)
(-9.36931e-11 8.22247e-05 -0)
(-2.97542e-11 -0.000106698 0)
(-1.71717e-12 2.5983e-05 -0)
(-1.00031e-13 -6.16334e-06 0)
(-5.92718e-15 1.52229e-06 -0)
(-3.38934e-16 -3.53832e-07 0)
(-2.19471e-17 9.59338e-08 -0)
(-9.67829e-19 -1.60205e-08 0)
(-1.1283e-19 9.81948e-09 -0)
(1.25328e-20 2.24217e-09 0)
(2.61656e-21 3.11441e-09 0)
(3.38603e-21 2.05545e-09 0)
(1.82167e-21 1.61792e-09 0)
(1.10771e-21 1.14316e-09 0)
(5.8327e-22 7.81413e-10 0)
(2.81701e-22 4.96585e-10 0)
(1.28279e-22 2.91584e-10 0)
(4.87641e-23 1.33036e-10 0)
(5.29471e-24 2.70214e-11 0)
(-1.10806e-25 2.61054e-12 -0)
)
;

boundaryField
{
    movingWall
    {
        type            calculated;
        value           nonuniform List<vector> 
20
(
(0 0.000112461 -0)
(0 -0.00011348 -0)
(0 2.88765e-05 -0)
(0 -6.79414e-06 -0)
(0 1.7738e-06 -0)
(0 -4.07951e-07 -0)
(0 1.2304e-07 -0)
(0 -1.60169e-08 -0)
(0 1.6143e-08 -0)
(0 5.38743e-09 -0)
(0 6.10859e-09 -0)
(0 4.19133e-09 -0)
(0 3.25604e-09 -0)
(0 2.30671e-09 -0)
(0 1.57654e-09 -0)
(0 1.00933e-09 -0)
(0 6.03162e-10 -0)
(0 2.63142e-10 -0)
(0 1.13229e-11 -0)
(0 -1.5159e-11 -0)
)
;
    }
    fixedWalls
    {
        type            calculated;
        value           nonuniform List<vector> 
60
(
(0 -0.000118018 -0)
(0 0.000126388 -0)
(0 -0.000138066 -0)
(0 0.000155674 -0)
(0 -0.000179712 -0)
(0 0.00021067 -0)
(0 -0.000246738 -0)
(0 0.000287161 -0)
(0 -0.000325675 -0)
(0 0.000349298 -0)
(0 -0.000366189 -0)
(0 0.000382174 -0)
(0 -0.00039549 -0)
(0 0.00040744 -0)
(0 -0.000417838 -0)
(0 0.00042759 -0)
(0 -0.000432374 -0)
(0 0.00043932 -0)
(0 -0.000445726 -0)
(0 0.000451954 -0)
(0 -2.11119e-11 -0)
(0 -3.98205e-11 -0)
(0 -6.37173e-11 -0)
(0 -8.58893e-11 -0)
(0 -1.04618e-10 -0)
(0 -1.20386e-10 -0)
(0 -1.32265e-10 -0)
(0 -1.40706e-10 -0)
(0 -1.45674e-10 -0)
(0 -1.47491e-10 -0)
(0 -1.46606e-10 -0)
(0 -1.43114e-10 -0)
(0 -1.37043e-10 -0)
(0 -1.27873e-10 -0)
(0 -1.15931e-10 -0)
(0 -1.00838e-10 -0)
(0 -8.51988e-11 -0)
(0 -6.70894e-11 -0)
(0 -4.34806e-11 -0)
(0 -2.97177e-11 -0)
(0 -1.68992e-05 -0)
(0 2.63327e-05 -0)
(0 -5.65285e-06 -0)
(0 1.39265e-06 -0)
(0 -2.91979e-07 -0)
(0 7.72197e-08 -0)
(0 -8.59169e-09 -0)
(0 1.03786e-08 -0)
(0 5.26466e-09 -0)
(0 5.37752e-09 -0)
(0 4.24511e-09 -0)
(0 3.4184e-09 -0)
(0 2.60146e-09 -0)
(0 1.89942e-09 -0)
(0 1.30493e-09 -0)
(0 8.30821e-10 -0)
(0 4.71026e-10 -0)
(0 1.81572e-10 -0)
(0 -5.89893e-12 -0)
(0 -6.3594e-12 -0)
)
;
    }
    frontAndBack
    {
        type            empty;
    }
}


// ************************************************************************* //
