/*--------------------------------*- C++ -*----------------------------------*\
| =========                 |                                                 |
| \\      /  F ield         | OpenFOAM: The Open Source CFD Toolbox           |
|  \\    /   O peration     | Version:  2506                                  |
|   \\  /    A nd           | Website:  www.openfoam.com                      |
|    \\/     M anipulation  |                                                 |
\*---------------------------------------------------------------------------*/
FoamFile
{
    version     2.0;
    format      ascii;
    arch        "LSB;label=32;scalar=64";
    class       volScalarField;
    location    "3.25";
    object      Lambda2Field;
}
// * * * * * * * * * * * * * * * * * * * * * * * * * * * * * * * * * * * * * //

dimensions      [0 0 -2 0 0 0 0];

internalField   nonuniform List<scalar> 
400
(
-7.19978e-11
-1.51703e-11
-1.62975e-12
-6.87444e-14
-4.60701e-15
-6.31736e-16
4.47311e-17
-1.43457e-17
2.82271e-18
-2.84455e-19
2.80381e-19
1.35854e-19
1.16445e-19
7.91909e-20
5.26086e-20
3.26491e-20
2.12432e-20
1.22103e-20
2.35984e-21
2.53427e-22
-1.374e-10
-1.50508e-11
-2.82793e-12
-1.1105e-14
-8.41316e-15
-1.34878e-16
-6.50894e-18
-1.39985e-18
4.85882e-20
1.35699e-19
2.19267e-19
1.8266e-19
1.52181e-19
1.08804e-19
7.2213e-20
4.42239e-20
2.58366e-20
1.35248e-20
1.53343e-21
1.21829e-22
-1.46915e-10
0
-2.61799e-12
0
-5.27452e-15
0
0
0
0
2.59514e-19
1.89749e-19
1.98276e-19
1.50739e-19
1.10833e-19
7.22154e-20
4.26105e-20
2.53666e-20
1.3527e-20
1.32301e-21
1.04506e-22
-1.46767e-10
0
-1.40126e-12
0
0
0
0
0
2.00002e-19
4.51387e-20
2.57178e-19
1.84573e-19
1.56567e-19
1.08465e-19
7.08736e-20
4.264e-20
2.40021e-20
1.17025e-20
8.59175e-22
1.96747e-23
-1.31055e-10
0
0
0
0
0
0
0
0
3.70028e-19
1.69041e-19
2.12256e-19
1.51369e-19
1.09515e-19
6.97429e-20
4.00582e-20
2.25934e-20
1.14489e-20
5.53804e-22
-1.66373e-24
-1.1275e-10
0
0
0
0
0
0
0
4.84961e-19
0
2.98727e-19
1.8367e-19
1.56681e-19
1.05581e-19
6.75152e-20
3.90311e-20
2.04925e-20
9.22622e-21
0
-6.63557e-23
-4.18361e-12
0
0
0
0
0
0
0
0
5.20425e-19
1.41331e-19
2.17696e-19
1.4662e-19
1.04733e-19
6.52478e-20
3.62916e-20
1.86693e-20
8.7334e-21
0
-1.02959e-22
0
0
0
0
0
0
0
0
1.25046e-18
1.17901e-19
3.27061e-19
1.73578e-19
1.49768e-19
9.91705e-20
6.24861e-20
3.45248e-20
1.66231e-20
6.93262e-21
-3.62859e-22
-1.39976e-22
0
0
0
0
0
0
0
0
0
6.5883e-19
1.90091e-19
2.08031e-19
1.37421e-19
9.73059e-20
5.98408e-20
3.22568e-20
1.49833e-20
6.49339e-21
-5.56481e-22
-1.36418e-22
3.6631e-11
0
0
0
0
0
0
0
2.15956e-18
0
3.31593e-19
1.77214e-19
1.3949e-19
9.33348e-20
5.80007e-20
3.10139e-20
1.3996e-20
5.77206e-21
-7.13507e-22
-1.42705e-22
2.62919e-10
3.27018e-11
3.64887e-12
5.50833e-14
2.57226e-15
2.94437e-16
0
1.25639e-17
0
8.15886e-19
1.66934e-19
1.99175e-19
1.33158e-19
9.27139e-20
5.73184e-20
3.03923e-20
1.34457e-20
5.58308e-21
-5.70151e-22
-1.31533e-22
4.03465e-10
7.79797e-11
8.6369e-12
3.37455e-13
3.18401e-14
1.50093e-15
1.56814e-16
0
3.30105e-18
0
3.3781e-19
1.65578e-19
1.33704e-19
9.34479e-20
5.86787e-20
3.1096e-20
1.39862e-20
6.1252e-21
-5.13051e-22
-1.147e-22
5.29201e-10
1.16037e-10
1.27568e-11
5.44047e-13
5.06978e-14
3.10946e-15
1.52422e-16
2.53843e-17
0
8.34999e-19
1.45517e-19
1.73108e-19
1.37029e-19
9.65258e-20
6.17877e-20
3.3452e-20
1.52334e-20
6.67469e-21
-1.63752e-22
-1.2963e-22
6.46077e-10
1.51913e-10
1.63364e-11
7.48076e-13
6.80275e-14
4.0941e-15
3.05601e-16
1.32718e-17
3.59893e-18
0
2.57777e-19
1.80383e-19
1.41548e-19
1.05591e-19
6.77258e-20
3.63924e-20
1.74407e-20
8.70384e-21
0
-1.23556e-22
7.03442e-10
1.68742e-10
1.83738e-11
8.29916e-13
7.89812e-14
4.8234e-15
2.98305e-16
3.45747e-17
0
8.76869e-19
1.82553e-19
1.81004e-19
1.62331e-19
1.1349e-19
7.45354e-20
4.11111e-20
2.04197e-20
1.01875e-20
8.64789e-22
-9.16905e-23
6.71405e-10
1.58114e-10
1.74423e-11
7.69819e-13
7.31469e-14
4.21947e-15
3.34295e-16
1.39354e-17
3.74944e-18
3.47784e-20
2.29588e-19
2.34213e-19
1.70767e-19
1.30087e-19
8.24921e-20
4.4696e-20
2.25957e-20
1.2131e-20
1.24227e-21
-2.1605e-23
9.03996e-10
2.31454e-10
2.42824e-11
1.19641e-12
1.05668e-13
7.15233e-15
3.99131e-16
5.04709e-17
4.10208e-19
8.33105e-19
2.87197e-19
2.28677e-19
2.00389e-19
1.36637e-19
8.71109e-20
4.83926e-20
2.50443e-20
1.24762e-20
1.7651e-21
5.93574e-23
8.19602e-10
2.06304e-10
2.24204e-11
1.0507e-12
1.04666e-13
5.77602e-15
5.43576e-16
2.1623e-17
5.53118e-18
2.5584e-19
3.56467e-19
2.98286e-19
2.17093e-19
1.52837e-19
9.69154e-20
5.35929e-20
2.79063e-20
1.50063e-20
1.78888e-21
3.11634e-23
5.41707e-10
1.07783e-10
1.2851e-11
4.68194e-13
3.97167e-14
3.20435e-15
4.44613e-17
2.57865e-17
0
5.19787e-19
4.7092e-19
3.17444e-19
2.52886e-19
1.66236e-19
1.06674e-19
5.79668e-20
3.22766e-20
1.88591e-20
2.70266e-21
0
3.31085e-10
6.91828e-11
7.38571e-12
3.55009e-13
7.7639e-15
4.72775e-15
-4.16003e-16
1.27992e-16
-2.30778e-17
5.10681e-18
-6.02332e-19
4.16945e-19
1.32782e-19
1.18636e-19
7.00052e-20
4.24971e-20
2.79796e-20
1.79187e-20
5.09713e-21
4.21849e-22
)
;

boundaryField
{
    movingWall
    {
        type            calculated;
        value           nonuniform List<scalar> 
20
(
0
0
0
0
0
0
0
1.5611e-16
-3.73204e-17
9.69263e-18
-1.89259e-18
5.19452e-19
0
6.41311e-20
2.74269e-20
2.14928e-20
1.9263e-20
1.56718e-20
5.73919e-21
6.9461e-22
)
;
    }
    fixedWalls
    {
        type            calculated;
        value           nonuniform List<scalar> 
60
(
-3.5006e-10
-4.40339e-10
0
0
0
0
0
0
0
0
9.71706e-10
1.83025e-09
2.57299e-09
3.24741e-09
3.60062e-09
3.46592e-09
4.72412e-09
4.3042e-09
2.8419e-09
1.74962e-09
7.68892e-23
1.76251e-22
1.79106e-22
1.7994e-22
1.99195e-22
1.93143e-22
1.96064e-22
1.81164e-22
1.65404e-22
1.61125e-22
1.45265e-22
1.46155e-22
1.67336e-22
2.02565e-22
1.96283e-22
1.62833e-22
8.24094e-23
1.63603e-22
3.32006e-22
4.00011e-23
1.21274e-10
2.41159e-11
2.4801e-12
7.26452e-14
9.51347e-15
0
1.469e-16
-1.37169e-17
5.68434e-18
-7.68438e-19
3.59252e-19
7.99879e-20
8.83145e-20
5.17175e-20
3.42255e-20
2.23281e-20
1.60679e-20
9.23452e-21
3.04068e-21
3.35317e-22
)
;
    }
    frontAndBack
    {
        type            empty;
    }
}


// ************************************************************************* //
