/*--------------------------------*- C++ -*----------------------------------*\
| =========                 |                                                 |
| \\      /  F ield         | OpenFOAM: The Open Source CFD Toolbox           |
|  \\    /   O peration     | Version:  2506                                  |
|   \\  /    A nd           | Website:  www.openfoam.com                      |
|    \\/     M anipulation  |                                                 |
\*---------------------------------------------------------------------------*/
FoamFile
{
    version     2.0;
    format      ascii;
    arch        "LSB;label=32;scalar=64";
    class       volScalarField;
    location    "3.25";
    object      QField;
}
// * * * * * * * * * * * * * * * * * * * * * * * * * * * * * * * * * * * * * //

dimensions      [0 0 -2 0 0 0 0];

internalField   nonuniform List<scalar> 
400
(
7.21762e-11
1.63924e-11
1.65651e-12
7.64132e-14
4.71841e-15
6.55631e-16
-4.45457e-17
1.44723e-17
-2.84911e-18
2.90013e-19
-2.83086e-19
-1.36654e-19
-1.18019e-19
-8.00584e-20
-5.3275e-20
-3.32009e-20
-2.13214e-20
-1.2428e-20
-2.69851e-21
-2.55698e-22
1.37827e-10
2.97112e-11
3.25573e-12
1.21688e-13
1.11587e-14
6.02517e-16
3.66319e-17
2.66448e-18
-2.52786e-19
-1.75143e-19
-2.32692e-19
-1.86808e-19
-1.52233e-19
-1.09494e-19
-7.28245e-20
-4.43264e-20
-2.63602e-20
-1.39021e-20
-1.87833e-21
-1.36347e-22
1.48739e-10
3.18456e-11
3.80608e-12
1.30883e-13
1.26552e-14
7.05356e-16
4.11463e-17
1.82032e-18
2.65543e-19
-3.39183e-19
-2.10235e-19
-2.02886e-19
-1.52975e-19
-1.10913e-19
-7.27792e-20
-4.32588e-20
-2.57021e-20
-1.39375e-20
-1.59109e-21
-1.1258e-22
1.4809e-10
3.02709e-11
4.45519e-12
1.18297e-13
1.51541e-14
7.1683e-16
3.88882e-17
5.26052e-18
-9.38797e-19
-1.16067e-19
-2.95503e-19
-1.94152e-19
-1.58071e-19
-1.09482e-19
-7.14821e-20
-4.28628e-20
-2.45655e-20
-1.21163e-20
-1.18152e-21
-3.51211e-23
1.37314e-10
2.6484e-11
5.15736e-12
1.06999e-13
1.69534e-14
7.52066e-16
6.218e-17
-7.0429e-19
9.95991e-19
-5.83035e-19
-2.10817e-19
-2.24877e-19
-1.54498e-19
-1.10109e-19
-7.01399e-20
-4.04933e-20
-2.28937e-20
-1.18661e-20
-7.5332e-22
1.01366e-23
1.39376e-10
2.59445e-11
6.67861e-12
1.03203e-13
2.27412e-14
1.07861e-15
2.96826e-17
1.22172e-17
-2.28371e-18
6.14366e-22
-3.72878e-19
-1.98081e-19
-1.60409e-19
-1.06649e-19
-6.79319e-20
-3.94571e-20
-2.11527e-20
-9.59647e-21
-2.34436e-22
8.12127e-23
7.92325e-11
8.30823e-12
7.07356e-12
1.81325e-14
2.42766e-14
4.78743e-16
1.13105e-16
-7.99248e-18
2.43755e-18
-9.19619e-19
-1.88719e-19
-2.39076e-19
-1.50372e-19
-1.05863e-19
-6.55232e-20
-3.64862e-20
-1.89346e-20
-9.06064e-21
1.12676e-22
1.08897e-22
1.60223e-11
-9.21901e-12
7.9167e-12
-3.94856e-14
2.53608e-14
1.32699e-15
-4.91463e-17
2.2136e-17
-4.21002e-18
1.7071e-19
-4.23888e-19
-1.88118e-19
-1.54408e-19
-1.0028e-19
-6.2714e-20
-3.49335e-20
-1.71422e-20
-7.17285e-21
5.43418e-22
1.47084e-22
-9.23129e-11
-4.3426e-11
6.49405e-12
-2.9455e-13
3.15737e-14
-9.5824e-16
1.6363e-16
-1.67274e-17
3.07954e-18
-1.03828e-18
-1.66208e-19
-2.25764e-19
-1.4045e-19
-9.81339e-20
-6.00777e-20
-3.22828e-20
-1.51408e-20
-6.64294e-21
6.06875e-22
1.39277e-22
-2.89349e-10
-8.32032e-11
-8.96529e-13
-3.86991e-13
-2.10061e-15
-5.49453e-16
-1.39367e-16
1.43096e-17
-4.29816e-18
1.45223e-19
-3.78938e-19
-1.75798e-19
-1.41563e-19
-9.38272e-20
-5.80716e-20
-3.11535e-20
-1.41685e-20
-5.82141e-21
7.61013e-22
1.46261e-22
-4.82994e-10
-1.23688e-10
-7.98054e-12
-6.03699e-13
-3.07672e-14
-2.93537e-15
-1.29151e-16
-2.36458e-17
5.09696e-19
-8.39579e-19
-1.85616e-19
-1.97965e-19
-1.33588e-19
-9.27294e-20
-5.73519e-20
-3.03974e-20
-1.34567e-20
-5.59077e-21
5.78632e-22
1.32699e-22
-5.88391e-10
-1.49202e-10
-1.19913e-11
-7.6983e-13
-5.10791e-14
-3.8678e-15
-2.67261e-16
-1.2907e-17
-2.84987e-18
-1.44519e-19
-2.85177e-19
-1.79243e-19
-1.35652e-19
-9.43682e-20
-5.87732e-20
-3.13072e-20
-1.422e-20
-6.24808e-21
5.97194e-22
1.21648e-22
-6.81171e-10
-1.72457e-10
-1.54614e-11
-8.69343e-13
-6.70637e-14
-4.54865e-15
-2.96847e-16
-2.62554e-17
-1.44844e-18
-5.18032e-19
-2.45271e-19
-1.82883e-19
-1.42165e-19
-9.75842e-20
-6.21853e-20
-3.36472e-20
-1.54888e-20
-6.78674e-21
1.88473e-22
1.33162e-22
-7.64541e-10
-1.94787e-10
-1.83643e-11
-9.95047e-13
-7.91863e-14
-5.37703e-15
-3.60389e-16
-2.51443e-17
-2.27762e-18
-3.62445e-19
-2.37818e-19
-2.07533e-19
-1.47915e-19
-1.07491e-19
-6.78629e-20
-3.70443e-20
-1.81744e-20
-8.94813e-21
-1.41822e-23
1.30567e-22
-7.90855e-10
-1.98691e-10
-1.97926e-11
-9.91568e-13
-8.6409e-14
-5.49998e-15
-3.58631e-16
-3.25756e-17
-1.81666e-18
-4.61265e-19
-3.06097e-19
-2.04775e-19
-1.68835e-19
-1.15372e-19
-7.49927e-20
-4.18032e-20
-2.10352e-20
-1.03003e-20
-8.66033e-22
9.70497e-23
-7.32554e-10
-1.79789e-10
-1.84986e-11
-8.896e-13
-7.93417e-14
-4.79399e-15
-3.6622e-16
-2.10467e-17
-2.35824e-18
-4.50982e-19
-2.76522e-19
-2.60406e-19
-1.80557e-19
-1.31064e-19
-8.29762e-20
-4.60766e-20
-2.38024e-20
-1.2423e-20
-1.33408e-21
2.50198e-23
-9.45979e-10
-2.46497e-10
-2.50039e-11
-1.28974e-12
-1.09885e-13
-7.64306e-15
-4.43687e-16
-4.85152e-17
-2.38438e-18
-6.19998e-19
-4.10928e-19
-2.57673e-19
-2.07058e-19
-1.37852e-19
-8.84113e-20
-4.8764e-20
-2.5386e-20
-1.2691e-20
-1.77192e-21
-5.99298e-23
-8.37793e-10
-2.10775e-10
-2.26259e-11
-1.05867e-12
-1.04935e-13
-5.74166e-15
-5.22375e-16
-2.48712e-17
-4.00172e-18
-5.59044e-19
-4.25944e-19
-3.18398e-19
-2.23833e-19
-1.5464e-19
-9.75623e-20
-5.47192e-20
-2.95241e-20
-1.51344e-20
-1.80156e-21
-3.14142e-23
-5.52975e-10
-1.14052e-10
-1.31674e-11
-5.14657e-13
-4.26562e-14
-3.40765e-15
-8.74808e-17
-2.27864e-17
-1.30444e-18
-6.64797e-19
-5.36964e-19
-3.4319e-19
-2.56147e-19
-1.70397e-19
-1.08785e-19
-6.17408e-20
-3.46953e-20
-1.89065e-20
-2.73153e-21
-8.73229e-24
-3.34982e-10
-7.26756e-11
-7.57409e-12
-3.94415e-13
-9.59513e-15
-5.14622e-15
5.52762e-16
-1.35296e-16
2.39679e-17
-5.40608e-18
6.60922e-19
-4.37109e-19
-1.34616e-19
-1.23545e-19
-7.21113e-20
-4.287e-20
-2.83784e-20
-1.93171e-20
-5.30535e-21
-4.36379e-22
)
;

boundaryField
{
    movingWall
    {
        type            calculated;
        value           nonuniform List<scalar> 
20
(
-3.648e-11
-4.19161e-12
3.1845e-11
-2.66885e-13
1.68993e-13
-5.23399e-15
1.90854e-15
-2.60819e-16
5.74006e-17
-1.09283e-17
2.05107e-18
-5.3675e-19
-3.41131e-21
-7.39667e-20
-3.45861e-20
-2.40727e-20
-2.08545e-20
-1.66325e-20
-6.48463e-21
-7.23719e-22
)
;
    }
    fixedWalls
    {
        type            calculated;
        value           nonuniform List<scalar> 
60
(
3.72169e-10
7.13145e-10
7.77748e-10
7.87347e-10
7.55455e-10
7.91942e-10
5.19414e-10
2.21354e-10
-3.40521e-10
-1.40419e-09
-2.45469e-09
-3.02922e-09
-3.53682e-09
-3.99035e-09
-4.14278e-09
-3.84313e-09
-4.98089e-09
-4.415e-09
-2.91088e-09
-1.7737e-09
-1.11447e-22
-1.98476e-22
-2.13173e-22
-1.95104e-22
-2.20791e-22
-1.94916e-22
-2.03145e-22
-1.83756e-22
-1.65624e-22
-1.606e-22
-1.47095e-22
-1.55462e-22
-1.78446e-22
-2.30955e-22
-2.33619e-22
-2.24254e-22
-1.47997e-22
-2.27143e-22
-4.30254e-22
-2.7213e-22
1.06088e-11
9.28921e-12
-1.25022e-12
6.2916e-14
-5.64497e-15
6.16201e-16
-1.32779e-16
2.68439e-17
-6.00545e-18
8.65445e-19
-3.77138e-19
-8.54148e-20
-8.90418e-20
-5.19506e-20
-3.43441e-20
-2.29477e-20
-1.63256e-20
-9.82493e-21
-3.44799e-21
-3.36816e-22
)
;
    }
    frontAndBack
    {
        type            empty;
    }
}


// ************************************************************************* //
