/*--------------------------------*- C++ -*----------------------------------*\
| =========                 |                                                 |
| \\      /  F ield         | OpenFOAM: The Open Source CFD Toolbox           |
|  \\    /   O peration     | Version:  2506                                  |
|   \\  /    A nd           | Website:  www.openfoam.com                      |
|    \\/     M anipulation  |                                                 |
\*---------------------------------------------------------------------------*/
FoamFile
{
    version     2.0;
    format      ascii;
    arch        "LSB;label=32;scalar=64";
    class       volVectorField;
    location    "3.25";
    object      U;
}
// * * * * * * * * * * * * * * * * * * * * * * * * * * * * * * * * * * * * * //

dimensions      [0 1 -1 0 0 0 0];

internalField   nonuniform List<vector> 
400
(
(-1 2.86785e-07 0)
(-1 -6.39512e-08 0)
(-1 1.51508e-08 0)
(-1 -3.3912e-09 0)
(-1 7.79643e-10 0)
(-1 -1.7963e-10 0)
(-1 4.06563e-11 0)
(-1 -8.3471e-12 0)
(-1 3.1305e-12 0)
(-1 6.62321e-13 0)
(-1 1.22134e-12 0)
(-1 1.03118e-12 0)
(-1 9.55559e-13 0)
(-1 8.1285e-13 0)
(-1 6.66881e-13 0)
(-1 5.2532e-13 0)
(-1 4.11343e-13 0)
(-1 2.91033e-13 0)
(-1 1.29949e-13 0)
(-1 -3.36707e-14 0)
(-1 -2.99564e-07 0)
(-1 6.65898e-08 0)
(-1 -1.57553e-08 0)
(-1 3.50586e-09 0)
(-1 -8.05868e-10 0)
(-1 1.84929e-10 0)
(-1 -3.88203e-11 0)
(-1 1.21382e-11 0)
(-1 1.20165e-12 0)
(-1 3.92889e-12 0)
(-1 3.32565e-12 0)
(-1 3.24392e-12 0)
(-1 2.88896e-12 0)
(-1 2.47234e-12 0)
(-1 2.02121e-12 0)
(-1 1.57269e-12 0)
(-1 1.2134e-12 0)
(-1 9.0563e-13 0)
(-1 3.73644e-13 0)
(-1 -1.00432e-13 0)
(-1 3.2614e-07 0)
(-1 -7.23911e-08 0)
(-1 1.70908e-08 0)
(-1 -3.81106e-09 0)
(-1 8.67137e-10 0)
(-1 -1.97932e-10 0)
(-1 4.70756e-11 0)
(-1 -5.06886e-12 0)
(-1 7.90358e-12 0)
(-1 5.46142e-12 0)
(-1 5.9168e-12 0)
(-1 5.39794e-12 0)
(-1 4.84841e-12 0)
(-1 4.11925e-12 0)
(-1 3.36286e-12 0)
(-1 2.61699e-12 0)
(-1 2.01309e-12 0)
(-1 1.48339e-12 0)
(-1 6.17934e-13 0)
(-1 -1.60987e-13 0)
(-1 -3.67518e-07 0)
(-1 8.14871e-08 0)
(-1 -1.92593e-08 0)
(-1 4.26288e-09 0)
(-1 -9.77166e-10 0)
(-1 2.25336e-10 0)
(-1 -4.23637e-11 0)
(-1 1.8763e-11 0)
(-1 6.03385e-12 0)
(-1 9.10655e-12 0)
(-1 8.14885e-12 0)
(-1 7.654e-12 0)
(-1 6.76634e-12 0)
(-1 5.73471e-12 0)
(-1 4.66513e-12 0)
(-1 3.61931e-12 0)
(-1 2.77127e-12 0)
(-1 2.04852e-12 0)
(-1 8.50253e-13 0)
(-1 -2.16824e-13 0)
(-1 4.25383e-07 0)
(-1 -9.48439e-08 0)
(-1 2.23545e-08 0)
(-1 -5.00325e-09 0)
(-1 1.14086e-09 0)
(-1 -2.55249e-10 0)
(-1 6.62586e-11 0)
(-1 -2.13457e-12 0)
(-1 1.44237e-11 0)
(-1 1.07881e-11 0)
(-1 1.09172e-11 0)
(-1 9.8016e-12 0)
(-1 8.65619e-12 0)
(-1 7.28263e-12 0)
(-1 5.9032e-12 0)
(-1 4.56989e-12 0)
(-1 3.49262e-12 0)
(-1 2.56372e-12 0)
(-1 1.06866e-12 0)
(-1 -2.64459e-13 0)
(-1 -4.98894e-07 0)
(-1 1.11413e-07 0)
(-1 -2.62982e-08 0)
(-1 5.86216e-09 0)
(-1 -1.3331e-09 0)
(-1 3.17396e-10 0)
(-1 -5.17998e-11 0)
(-1 3.03688e-11 0)
(-1 1.17867e-11 0)
(-1 1.50787e-11 0)
(-1 1.31454e-11 0)
(-1 1.19895e-11 0)
(-1 1.04219e-11 0)
(-1 8.72952e-12 0)
(-1 7.04495e-12 0)
(-1 5.43525e-12 0)
(-1 4.13596e-12 0)
(-1 3.03146e-12 0)
(-1 1.26403e-12 0)
(-1 -3.03945e-13 0)
(-1 5.88724e-07 0)
(-1 -1.32724e-07 0)
(-1 3.13277e-08 0)
(-1 -7.04556e-09 0)
(-1 1.63561e-09 0)
(-1 -3.52089e-10 0)
(-1 1.01485e-10 0)
(-1 9.39698e-13 0)
(-1 2.28129e-11 0)
(-1 1.64224e-11 0)
(-1 1.58843e-11 0)
(-1 1.38815e-11 0)
(-1 1.2039e-11 0)
(-1 1.00104e-11 0)
(-1 8.04865e-12 0)
(-1 6.19299e-12 0)
(-1 4.69996e-12 0)
(-1 3.42547e-12 0)
(-1 1.43141e-12 0)
(-1 -3.33847e-13 0)
(-1 -6.91175e-07 0)
(-1 1.56856e-07 0)
(-1 -3.71219e-08 0)
(-1 8.40803e-09 0)
(-1 -1.90877e-09 0)
(-1 4.75073e-10 0)
(-1 -7.10314e-11 0)
(-1 4.76036e-11 0)
(-1 1.72566e-11 0)
(-1 2.10791e-11 0)
(-1 1.75312e-11 0)
(-1 1.5643e-11 0)
(-1 1.33638e-11 0)
(-1 1.10777e-11 0)
(-1 8.8732e-12 0)
(-1 6.80942e-12 0)
(-1 5.14926e-12 0)
(-1 3.74132e-12 0)
(-1 1.5655e-12 0)
(-1 -3.54881e-13 0)
(-1 7.95457e-07 0)
(-1 -1.83041e-07 0)
(-1 4.35355e-08 0)
(-1 -9.80396e-09 0)
(-1 2.37479e-09 0)
(-1 -4.8688e-10 0)
(-1 1.53771e-10 0)
(-1 8.69825e-13 0)
(-1 3.10341e-11 0)
(-1 2.06096e-11 0)
(-1 1.96463e-11 0)
(-1 1.67804e-11 0)
(-1 1.43865e-11 0)
(-1 1.18585e-11 0)
(-1 9.47911e-12 0)
(-1 7.25975e-12 0)
(-1 5.47692e-12 0)
(-1 3.96407e-12 0)
(-1 1.66062e-12 0)
(-1 -3.66964e-13 0)
(-1 -8.68646e-07 0)
(-1 2.05458e-07 0)
(-1 -4.84162e-08 0)
(-1 1.14661e-08 0)
(-1 -2.61547e-09 0)
(-1 6.66477e-10 0)
(-1 -1.08374e-10 0)
(-1 6.35033e-11 0)
(-1 1.87103e-11 0)
(-1 2.48107e-11 0)
(-1 1.98708e-11 0)
(-1 1.76657e-11 0)
(-1 1.49467e-11 0)
(-1 1.23297e-11 0)
(-1 9.83444e-12 0)
(-1 7.52296e-12 0)
(-1 5.66287e-12 0)
(-1 4.08733e-12 0)
(-1 1.71717e-12 0)
(-1 -3.71438e-13 0)
(-1 9.2141e-07 0)
(-1 -2.20198e-07 0)
(-1 5.21332e-08 0)
(-1 -1.23517e-08 0)
(-1 2.9815e-09 0)
(-1 -6.55789e-10 0)
(-1 1.97853e-10 0)
(-1 -9.05923e-12 0)
(-1 3.53151e-11 0)
(-1 2.11264e-11 0)
(-1 2.0942e-11 0)
(-1 1.76535e-11 0)
(-1 1.51448e-11 0)
(-1 1.24415e-11 0)
(-1 9.92681e-12 0)
(-1 7.58556e-12 0)
(-1 5.70315e-12 0)
(-1 4.1117e-12 0)
(-1 1.72981e-12 0)
(-1 -3.68953e-13 0)
(-1 -9.66821e-07 0)
(-1 2.32248e-07 0)
(-1 -5.49453e-08 0)
(-1 1.32141e-08 0)
(-1 -3.10264e-09 0)
(-1 7.79514e-10 0)
(-1 -1.48635e-10 0)
(-1 7.01971e-11 0)
(-1 1.50429e-11 0)
(-1 2.49927e-11 0)
(-1 1.94234e-11 0)
(-1 1.75565e-11 0)
(-1 1.48124e-11 0)
(-1 1.22331e-11 0)
(-1 9.74694e-12 0)
(-1 7.44956e-12 0)
(-1 5.59648e-12 0)
(-1 4.02965e-12 0)
(-1 1.7051e-12 0)
(-1 -3.60224e-13 0)
(-1 1.00442e-06 0)
(-1 -2.42055e-07 0)
(-1 5.73558e-08 0)
(-1 -1.37859e-08 0)
(-1 3.32357e-09 0)
(-1 -7.60392e-10 0)
(-1 2.17242e-10 0)
(-1 -1.97527e-11 0)
(-1 3.44686e-11 0)
(-1 1.87251e-11 0)
(-1 1.96324e-11 0)
(-1 1.64576e-11 0)
(-1 1.42078e-11 0)
(-1 1.16695e-11 0)
(-1 9.31504e-12 0)
(-1 7.11255e-12 0)
(-1 5.34289e-12 0)
(-1 3.85655e-12 0)
(-1 1.63606e-12 0)
(-1 -3.45385e-13 0)
(-1 -1.03793e-06 0)
(-1 2.5067e-07 0)
(-1 -5.93772e-08 0)
(-1 1.43589e-08 0)
(-1 -3.40526e-09 0)
(-1 8.46217e-10 0)
(-1 -1.74845e-10 0)
(-1 7.07505e-11 0)
(-1 1.01163e-11 0)
(-1 2.25001e-11 0)
(-1 1.69304e-11 0)
(-1 1.55641e-11 0)
(-1 1.31057e-11 0)
(-1 1.08426e-11 0)
(-1 8.63479e-12 0)
(-1 6.59845e-12 0)
(-1 4.9586e-12 0)
(-1 3.57878e-12 0)
(-1 1.53158e-12 0)
(-1 -3.23071e-13 0)
(-1 1.06556e-06 0)
(-1 -2.57656e-07 0)
(-1 6.10536e-08 0)
(-1 -1.47547e-08 0)
(-1 3.55353e-09 0)
(-1 -8.2657e-10 0)
(-1 2.28352e-10 0)
(-1 -2.81476e-11 0)
(-1 3.16341e-11 0)
(-1 1.48951e-11 0)
(-1 1.65594e-11 0)
(-1 1.36703e-11 0)
(-1 1.18434e-11 0)
(-1 9.70573e-12 0)
(-1 7.74408e-12 0)
(-1 5.90708e-12 0)
(-1 4.4395e-12 0)
(-1 3.22088e-12 0)
(-1 1.38146e-12 0)
(-1 -2.93013e-13 0)
(-1 -1.08877e-06 0)
(-1 2.63054e-07 0)
(-1 -6.22976e-08 0)
(-1 1.50777e-08 0)
(-1 -3.5762e-09 0)
(-1 8.85443e-10 0)
(-1 -1.88399e-10 0)
(-1 6.91834e-11 0)
(-1 5.35543e-12 0)
(-1 1.8559e-11 0)
(-1 1.30884e-11 0)
(-1 1.21484e-11 0)
(-1 1.01314e-11 0)
(-1 8.36481e-12 0)
(-1 6.64248e-12 0)
(-1 5.06807e-12 0)
(-1 3.81094e-12 0)
(-1 2.76267e-12 0)
(-1 1.19484e-12 0)
(-1 -2.54535e-13 0)
(-1 1.10753e-06 0)
(-1 -2.68311e-07 0)
(-1 6.36467e-08 0)
(-1 -1.53897e-08 0)
(-1 3.72458e-09 0)
(-1 -8.66552e-10 0)
(-1 2.37015e-10 0)
(-1 -3.49222e-11 0)
(-1 2.76569e-11 0)
(-1 9.90957e-12 0)
(-1 1.20743e-11 0)
(-1 9.55527e-12 0)
(-1 8.2804e-12 0)
(-1 6.73154e-12 0)
(-1 5.35763e-12 0)
(-1 4.07958e-12 0)
(-1 3.07611e-12 0)
(-1 2.25276e-12 0)
(-1 9.76118e-13 0)
(-1 -2.13336e-13 0)
(-1 -1.12224e-06 0)
(-1 2.71731e-07 0)
(-1 -6.43311e-08 0)
(-1 1.56562e-08 0)
(-1 -3.70779e-09 0)
(-1 9.24628e-10 0)
(-1 -2.01986e-10 0)
(-1 6.71095e-11 0)
(-1 -1.11445e-12 0)
(-1 1.32056e-11 0)
(-1 7.80274e-12 0)
(-1 7.5109e-12 0)
(-1 6.10244e-12 0)
(-1 5.03332e-12 0)
(-1 3.98056e-12 0)
(-1 3.04459e-12 0)
(-1 2.30338e-12 0)
(-1 1.68513e-12 0)
(-1 7.41761e-13 0)
(-1 -1.70366e-13 0)
(-1 1.13002e-06 0)
(-1 -2.72255e-07 0)
(-1 6.45687e-08 0)
(-1 -1.54651e-08 0)
(-1 3.73807e-09 0)
(-1 -8.62271e-10 0)
(-1 2.26768e-10 0)
(-1 -4.04851e-11 0)
(-1 1.98569e-11 0)
(-1 3.47503e-12 0)
(-1 6.01577e-12 0)
(-1 4.33084e-12 0)
(-1 3.78949e-12 0)
(-1 3.03823e-12 0)
(-1 2.4124e-12 0)
(-1 1.83118e-12 0)
(-1 1.38844e-12 0)
(-1 1.06765e-12 0)
(-1 5.08012e-13 0)
(-1 -1.17646e-13 0)
(-1 -1.13948e-06 0)
(-1 2.78863e-07 0)
(-1 -6.60884e-08 0)
(-1 1.623e-08 0)
(-1 -3.8936e-09 0)
(-1 9.57896e-10 0)
(-1 -2.28774e-10 0)
(-1 6.0412e-11 0)
(-1 -1.14904e-11 0)
(-1 5.58961e-12 0)
(-1 8.40146e-13 0)
(-1 1.64734e-12 0)
(-1 1.12593e-12 0)
(-1 9.68992e-13 0)
(-1 7.4643e-13 0)
(-1 5.67277e-13 0)
(-1 4.39939e-13 0)
(-1 3.66547e-13 0)
(-1 1.95945e-13 0)
(-1 -4.24457e-14 0)
)
;

boundaryField
{
    movingWall
    {
        type            fixedValue;
        value           uniform (-1 -0 -0);
    }
    fixedWalls
    {
        type            noSlip;
    }
    frontAndBack
    {
        type            empty;
    }
}


// ************************************************************************* //
