/*--------------------------------*- C++ -*----------------------------------*\
| =========                 |                                                 |
| \\      /  F ield         | OpenFOAM: The Open Source CFD Toolbox           |
|  \\    /   O peration     | Version:  2506                                  |
|   \\  /    A nd           | Website:  www.openfoam.com                      |
|    \\/     M anipulation  |                                                 |
\*---------------------------------------------------------------------------*/
FoamFile
{
    version     2.0;
    format      ascii;
    arch        "LSB;label=32;scalar=64";
    class       volVectorField;
    location    "3.25";
    object      vorticityField;
}
// * * * * * * * * * * * * * * * * * * * * * * * * * * * * * * * * * * * * * //

dimensions      [0 0 -1 0 0 0 0];

internalField   nonuniform List<vector> 
400
(
(0 -0 2.55877e-05)
(0 -0 -2.7779e-05)
(0 -0 6.33149e-06)
(0 -0 -1.49103e-06)
(0 -0 3.35946e-07)
(0 -0 -8.28077e-08)
(0 -0 1.45187e-08)
(0 -0 -7.6691e-09)
(0 -0 -2.08839e-09)
(0 -0 -2.84247e-09)
(0 -0 -2.10691e-09)
(0 -0 -1.7313e-09)
(0 -0 -1.31306e-09)
(0 -0 -9.63884e-10)
(0 -0 -6.65586e-10)
(0 -0 -4.26925e-10)
(0 -0 -2.4344e-10)
(0 -0 -1.03112e-10)
(0 -0 -1.50689e-11)
(0 -0 -1.98418e-12)
(0 -0 -2.98599e-05)
(0 -0 2.95549e-05)
(0 -0 -6.8478e-06)
(0 -0 1.58629e-06)
(0 -0 -3.67195e-07)
(0 -0 8.50981e-08)
(0 -0 -1.96153e-08)
(0 -0 4.58829e-09)
(0 -0 -1.03927e-09)
(0 -0 2.34247e-10)
(0 -0 -8.6115e-11)
(0 -0 -3.52935e-11)
(0 -0 -6.88909e-11)
(0 -0 -7.68005e-11)
(0 -0 -8.15357e-11)
(0 -0 -7.49269e-11)
(0 -0 -6.39952e-11)
(0 -0 -8.31079e-11)
(0 -0 -1.01446e-10)
(0 -0 -2.76735e-11)
(0 -0 3.29845e-05)
(0 -0 -3.22857e-05)
(0 -0 7.47835e-06)
(0 -0 -1.73093e-06)
(0 -0 4.00838e-07)
(0 -0 -9.24761e-08)
(0 -0 2.15784e-08)
(0 -0 -4.84032e-09)
(0 -0 1.2114e-09)
(0 -0 -2.41802e-10)
(0 -0 4.15733e-11)
(0 -0 -7.13855e-11)
(0 -0 -8.95153e-11)
(0 -0 -1.17845e-10)
(0 -0 -1.27294e-10)
(0 -0 -1.19934e-10)
(0 -0 -1.03684e-10)
(0 -0 -1.36181e-10)
(0 -0 -1.66687e-10)
(0 -0 -4.63723e-11)
(0 -0 -3.72696e-05)
(0 -0 3.64213e-05)
(0 -0 -8.43774e-06)
(0 -0 1.95389e-06)
(0 -0 -4.51799e-07)
(0 -0 1.04815e-07)
(0 -0 -2.39668e-08)
(0 -0 5.73837e-09)
(0 -0 -1.19877e-09)
(0 -0 3.28024e-10)
(0 -0 -9.61412e-11)
(0 -0 -6.34953e-11)
(0 -0 -1.3162e-10)
(0 -0 -1.60437e-10)
(0 -0 -1.75788e-10)
(0 -0 -1.65615e-10)
(0 -0 -1.43636e-10)
(0 -0 -1.87548e-10)
(0 -0 -2.28513e-10)
(0 -0 -6.41831e-11)
(0 -0 4.26128e-05)
(0 -0 -4.20901e-05)
(0 -0 9.77349e-06)
(0 -0 -2.26718e-06)
(0 -0 5.26192e-07)
(0 -0 -1.2154e-07)
(0 -0 2.8479e-08)
(0 -0 -6.34331e-09)
(0 -0 1.62384e-09)
(0 -0 -3.12539e-10)
(0 -0 4.54176e-11)
(0 -0 -1.1866e-10)
(0 -0 -1.56325e-10)
(0 -0 -2.0328e-10)
(0 -0 -2.20019e-10)
(0 -0 -2.08044e-10)
(0 -0 -1.80831e-10)
(0 -0 -2.35024e-10)
(0 -0 -2.85393e-10)
(0 -0 -8.15859e-11)
(0 -0 -4.98602e-05)
(0 -0 4.94143e-05)
(0 -0 -1.15e-05)
(0 -0 2.67472e-06)
(0 -0 -6.21079e-07)
(0 -0 1.44712e-07)
(0 -0 -3.32083e-08)
(0 -0 7.9927e-09)
(0 -0 -1.67212e-09)
(0 -0 4.5826e-10)
(0 -0 -1.40574e-10)
(0 -0 -9.77136e-11)
(0 -0 -1.96405e-10)
(0 -0 -2.39003e-10)
(0 -0 -2.61665e-10)
(0 -0 -2.47287e-10)
(0 -0 -2.15767e-10)
(0 -0 -2.78275e-10)
(0 -0 -3.35845e-10)
(0 -0 -9.72013e-11)
(0 -0 5.68484e-05)
(0 -0 -5.79584e-05)
(0 -0 1.35376e-05)
(0 -0 -3.15909e-06)
(0 -0 7.37513e-07)
(0 -0 -1.71411e-07)
(0 -0 4.03599e-08)
(0 -0 -9.07473e-09)
(0 -0 2.31074e-09)
(0 -0 -4.61381e-10)
(0 -0 6.44724e-11)
(0 -0 -1.65522e-10)
(0 -0 -2.12094e-10)
(0 -0 -2.7476e-10)
(0 -0 -2.96928e-10)
(0 -0 -2.81717e-10)
(0 -0 -2.46394e-10)
(0 -0 -3.15552e-10)
(0 -0 -3.7829e-10)
(0 -0 -1.1103e-10)
(0 -0 -6.4123e-05)
(0 -0 6.75962e-05)
(0 -0 -1.58469e-05)
(0 -0 3.71179e-06)
(0 -0 -8.68003e-07)
(0 -0 2.03546e-07)
(0 -0 -4.71108e-08)
(0 -0 1.13442e-08)
(0 -0 -2.43583e-09)
(0 -0 6.44669e-10)
(0 -0 -2.02304e-10)
(0 -0 -1.22101e-10)
(0 -0 -2.49167e-10)
(0 -0 -2.99255e-10)
(0 -0 -3.27303e-10)
(0 -0 -3.10242e-10)
(0 -0 -2.72305e-10)
(0 -0 -3.45718e-10)
(0 -0 -4.11789e-10)
(0 -0 -1.22309e-10)
(0 -0 6.87339e-05)
(0 -0 -7.68818e-05)
(0 -0 1.8137e-05)
(0 -0 -4.27265e-06)
(0 -0 1.00667e-06)
(0 -0 -2.36324e-07)
(0 -0 5.60554e-08)
(0 -0 -1.2819e-08)
(0 -0 3.22501e-09)
(0 -0 -6.82519e-10)
(0 -0 9.8087e-11)
(0 -0 -2.08253e-10)
(0 -0 -2.50581e-10)
(0 -0 -3.24395e-10)
(0 -0 -3.48796e-10)
(0 -0 -3.32212e-10)
(0 -0 -2.92109e-10)
(0 -0 -3.67752e-10)
(0 -0 -4.34919e-10)
(0 -0 -1.30477e-10)
(0 -0 -6.81586e-05)
(0 -0 8.26843e-05)
(0 -0 -1.96735e-05)
(0 -0 4.67987e-06)
(0 -0 -1.11178e-06)
(0 -0 2.64607e-07)
(0 -0 -6.22814e-08)
(0 -0 1.51053e-08)
(0 -0 -3.35849e-09)
(0 -0 8.60979e-10)
(0 -0 -2.73911e-10)
(0 -0 -1.32916e-10)
(0 -0 -2.82954e-10)
(0 -0 -3.33173e-10)
(0 -0 -3.63881e-10)
(0 -0 -3.45356e-10)
(0 -0 -3.04315e-10)
(0 -0 -3.80177e-10)
(0 -0 -4.47585e-10)
(0 -0 -1.35658e-10)
(0 -0 6.77463e-05)
(0 -0 -8.6634e-05)
(0 -0 2.06295e-05)
(0 -0 -4.91018e-06)
(0 -0 1.16942e-06)
(0 -0 -2.77766e-07)
(0 -0 6.65838e-08)
(0 -0 -1.55083e-08)
(0 -0 3.89796e-09)
(0 -0 -8.69893e-10)
(0 -0 1.27614e-10)
(0 -0 -2.36352e-10)
(0 -0 -2.66057e-10)
(0 -0 -3.44124e-10)
(0 -0 -3.67715e-10)
(0 -0 -3.5051e-10)
(0 -0 -3.08707e-10)
(0 -0 -3.83293e-10)
(0 -0 -4.49366e-10)
(0 -0 -1.37062e-10)
(0 -0 -6.89029e-05)
(0 -0 9.03849e-05)
(0 -0 -2.15215e-05)
(0 -0 5.12314e-06)
(0 -0 -1.21879e-06)
(0 -0 2.9069e-07)
(0 -0 -6.87739e-08)
(0 -0 1.67093e-08)
(0 -0 -3.79177e-09)
(0 -0 9.53319e-10)
(0 -0 -3.12405e-10)
(0 -0 -1.33014e-10)
(0 -0 -2.88534e-10)
(0 -0 -3.33837e-10)
(0 -0 -3.6351e-10)
(0 -0 -3.44437e-10)
(0 -0 -3.03312e-10)
(0 -0 -3.75071e-10)
(0 -0 -4.40667e-10)
(0 -0 -1.35463e-10)
(0 -0 6.99582e-05)
(0 -0 -9.3517e-05)
(0 -0 2.22767e-05)
(0 -0 -5.30495e-06)
(0 -0 1.26433e-06)
(0 -0 -3.00766e-07)
(0 -0 7.20987e-08)
(0 -0 -1.68887e-08)
(0 -0 4.19789e-09)
(0 -0 -9.62695e-10)
(0 -0 1.40903e-10)
(0 -0 -2.37417e-10)
(0 -0 -2.53454e-10)
(0 -0 -3.27052e-10)
(0 -0 -3.47248e-10)
(0 -0 -3.30238e-10)
(0 -0 -2.89685e-10)
(0 -0 -3.57537e-10)
(0 -0 -4.21413e-10)
(0 -0 -1.30179e-10)
(0 -0 -7.09942e-05)
(0 -0 9.63277e-05)
(0 -0 -2.29456e-05)
(0 -0 5.46522e-06)
(0 -0 -1.30131e-06)
(0 -0 3.10504e-07)
(0 -0 -7.36217e-08)
(0 -0 1.78167e-08)
(0 -0 -4.0958e-09)
(0 -0 1.0062e-09)
(0 -0 -3.26332e-10)
(0 -0 -1.13964e-10)
(0 -0 -2.61762e-10)
(0 -0 -2.97173e-10)
(0 -0 -3.22984e-10)
(0 -0 -3.04519e-10)
(0 -0 -2.66107e-10)
(0 -0 -3.29094e-10)
(0 -0 -3.92056e-10)
(0 -0 -1.22207e-10)
(0 -0 7.24035e-05)
(0 -0 -9.87862e-05)
(0 -0 2.35372e-05)
(0 -0 -5.60657e-06)
(0 -0 1.33631e-06)
(0 -0 -3.18058e-07)
(0 -0 7.61291e-08)
(0 -0 -1.79155e-08)
(0 -0 4.39878e-09)
(0 -0 -1.02881e-09)
(0 -0 1.62854e-10)
(0 -0 -2.143e-10)
(0 -0 -2.10134e-10)
(0 -0 -2.73507e-10)
(0 -0 -2.88141e-10)
(0 -0 -2.7267e-10)
(0 -0 -2.36934e-10)
(0 -0 -2.93526e-10)
(0 -0 -3.52148e-10)
(0 -0 -1.10118e-10)
(0 -0 -7.46535e-05)
(0 -0 0.000101118)
(0 -0 -2.4097e-05)
(0 -0 5.74173e-06)
(0 -0 -1.3679e-06)
(0 -0 3.26373e-07)
(0 -0 -7.75397e-08)
(0 -0 1.86799e-08)
(0 -0 -4.35304e-09)
(0 -0 1.04974e-09)
(0 -0 -3.26076e-10)
(0 -0 -7.62842e-11)
(0 -0 -2.08407e-10)
(0 -0 -2.29577e-10)
(0 -0 -2.49253e-10)
(0 -0 -2.33281e-10)
(0 -0 -2.02296e-10)
(0 -0 -2.51066e-10)
(0 -0 -3.03049e-10)
(0 -0 -9.50063e-11)
(0 -0 7.32836e-05)
(0 -0 -0.000102178)
(0 -0 2.43337e-05)
(0 -0 -5.79311e-06)
(0 -0 1.37968e-06)
(0 -0 -3.28293e-07)
(0 -0 7.83858e-08)
(0 -0 -1.85271e-08)
(0 -0 4.48505e-09)
(0 -0 -1.06901e-09)
(0 -0 1.85097e-10)
(0 -0 -1.76023e-10)
(0 -0 -1.4758e-10)
(0 -0 -1.96163e-10)
(0 -0 -2.03912e-10)
(0 -0 -1.92237e-10)
(0 -0 -1.66229e-10)
(0 -0 -2.05879e-10)
(0 -0 -2.4772e-10)
(0 -0 -7.64137e-11)
(0 -0 -7.5474e-05)
(0 -0 0.000103842)
(0 -0 -2.47323e-05)
(0 -0 5.88903e-06)
(0 -0 -1.40211e-06)
(0 -0 3.34106e-07)
(0 -0 -7.94251e-08)
(0 -0 1.90261e-08)
(0 -0 -4.47714e-09)
(0 -0 1.06912e-09)
(0 -0 -3.02625e-10)
(0 -0 -2.10064e-11)
(0 -0 -1.30177e-10)
(0 -0 -1.34749e-10)
(0 -0 -1.47726e-10)
(0 -0 -1.36005e-10)
(0 -0 -1.15617e-10)
(0 -0 -1.48356e-10)
(0 -0 -1.87718e-10)
(0 -0 -5.81966e-11)
(0 -0 7.94953e-05)
(0 -0 -0.000105538)
(0 -0 2.51798e-05)
(0 -0 -6.00664e-06)
(0 -0 1.43332e-06)
(0 -0 -3.42036e-07)
(0 -0 8.17249e-08)
(0 -0 -1.94665e-08)
(0 -0 4.67988e-09)
(0 -0 -1.11311e-09)
(0 -0 2.47506e-10)
(0 -0 -9.95167e-11)
(0 -0 -3.79975e-11)
(0 -0 -6.88625e-11)
(0 -0 -6.8149e-11)
(0 -0 -5.93262e-11)
(0 -0 -4.24709e-11)
(0 -0 -7.13187e-11)
(0 -0 -1.20373e-10)
(0 -0 -4.26145e-11)
(0 -0 -8.22247e-05)
(0 -0 0.000106698)
(0 -0 -2.5983e-05)
(0 -0 6.16334e-06)
(0 -0 -1.52229e-06)
(0 -0 3.53832e-07)
(0 -0 -9.59338e-08)
(0 -0 1.60205e-08)
(0 -0 -9.81948e-09)
(0 -0 -2.24217e-09)
(0 -0 -3.11441e-09)
(0 -0 -2.05545e-09)
(0 -0 -1.61792e-09)
(0 -0 -1.14316e-09)
(0 -0 -7.81413e-10)
(0 -0 -4.96585e-10)
(0 -0 -2.91584e-10)
(0 -0 -1.33036e-10)
(0 -0 -2.70214e-11)
(0 -0 -2.61054e-12)
)
;

boundaryField
{
    movingWall
    {
        type            calculated;
        value           nonuniform List<vector> 
20
(
(0 -0 -0.000112461)
(0 -0 0.00011348)
(0 -0 -2.88765e-05)
(0 -0 6.79414e-06)
(0 -0 -1.7738e-06)
(0 -0 4.07951e-07)
(0 -0 -1.2304e-07)
(0 -0 1.60169e-08)
(0 -0 -1.6143e-08)
(0 -0 -5.38743e-09)
(0 -0 -6.10859e-09)
(0 -0 -4.19133e-09)
(0 -0 -3.25604e-09)
(0 -0 -2.30671e-09)
(0 -0 -1.57654e-09)
(0 -0 -1.00933e-09)
(0 -0 -6.03162e-10)
(0 -0 -2.63142e-10)
(0 -0 -1.13229e-11)
(0 -0 1.5159e-11)
)
;
    }
    fixedWalls
    {
        type            calculated;
        value           nonuniform List<vector> 
60
(
(0 -0 0.000118018)
(0 -0 -0.000126388)
(0 -0 0.000138066)
(0 -0 -0.000155674)
(0 -0 0.000179712)
(0 -0 -0.00021067)
(0 -0 0.000246738)
(0 -0 -0.000287161)
(0 -0 0.000325675)
(0 -0 -0.000349298)
(0 -0 0.000366189)
(0 -0 -0.000382174)
(0 -0 0.00039549)
(0 -0 -0.00040744)
(0 -0 0.000417838)
(0 -0 -0.00042759)
(0 -0 0.000432374)
(0 -0 -0.00043932)
(0 -0 0.000445726)
(0 -0 -0.000451954)
(0 -0 2.11119e-11)
(0 -0 3.98205e-11)
(0 -0 6.37173e-11)
(0 -0 8.58893e-11)
(0 -0 1.04618e-10)
(0 -0 1.20386e-10)
(0 -0 1.32265e-10)
(0 -0 1.40706e-10)
(0 -0 1.45674e-10)
(0 -0 1.47491e-10)
(0 -0 1.46606e-10)
(0 -0 1.43114e-10)
(0 -0 1.37043e-10)
(0 -0 1.27873e-10)
(0 -0 1.15931e-10)
(0 -0 1.00838e-10)
(0 -0 8.51988e-11)
(0 -0 6.70894e-11)
(0 -0 4.34806e-11)
(0 -0 2.97177e-11)
(0 -0 1.68992e-05)
(0 -0 -2.63327e-05)
(0 -0 5.65285e-06)
(0 -0 -1.39265e-06)
(0 -0 2.91979e-07)
(0 -0 -7.72197e-08)
(0 -0 8.59169e-09)
(0 -0 -1.03786e-08)
(0 -0 -5.26466e-09)
(0 -0 -5.37752e-09)
(0 -0 -4.24511e-09)
(0 -0 -3.4184e-09)
(0 -0 -2.60146e-09)
(0 -0 -1.89942e-09)
(0 -0 -1.30493e-09)
(0 -0 -8.30821e-10)
(0 -0 -4.71026e-10)
(0 -0 -1.81572e-10)
(0 -0 5.89893e-12)
(0 -0 6.3594e-12)
)
;
    }
    frontAndBack
    {
        type            empty;
    }
}


// ************************************************************************* //
