/*--------------------------------*- C++ -*----------------------------------*\
| =========                 |                                                 |
| \\      /  F ield         | OpenFOAM: The Open Source CFD Toolbox           |
|  \\    /   O peration     | Version:  2506                                  |
|   \\  /    A nd           | Website:  www.openfoam.com                      |
|    \\/     M anipulation  |                                                 |
\*---------------------------------------------------------------------------*/
FoamFile
{
    version     2.0;
    format      ascii;
    arch        "LSB;label=32;scalar=64";
    class       volScalarField;
    location    "3.25";
    object      zeroGradient(epsilon);
}
// * * * * * * * * * * * * * * * * * * * * * * * * * * * * * * * * * * * * * //

dimensions      [0 2 -3 0 0 0 0];

internalField   nonuniform List<scalar> 
400
(
5.64821e-05
5.64801e-05
5.64773e-05
5.64768e-05
5.64731e-05
5.64738e-05
5.647e-05
5.64711e-05
5.64677e-05
5.64688e-05
5.64664e-05
5.64669e-05
5.64655e-05
5.64654e-05
5.64649e-05
5.64647e-05
5.64644e-05
5.64643e-05
5.64642e-05
5.64642e-05
0.000102339
9.74692e-05
9.78098e-05
9.79554e-05
9.8249e-05
9.84028e-05
9.87019e-05
9.88647e-05
9.9169e-05
9.93414e-05
9.96504e-05
9.98334e-05
0.000100146
0.000100341
0.000100656
0.000100864
0.000101181
0.000101403
0.000101563
0.000101836
0.000179886
0.000169052
0.000169786
0.000170101
0.000170737
0.000171072
0.000171721
0.000172077
0.000172738
0.000173117
0.000173789
0.000174193
0.000174874
0.000175305
0.000175993
0.000176455
0.000177147
0.000177641
0.00017799
0.000178593
0.000251549
0.000234113
0.000235251
0.000235743
0.000236738
0.000237265
0.000238283
0.000238847
0.000239887
0.000240492
0.00024155
0.0002422
0.000243275
0.000243973
0.00024506
0.000245812
0.00024691
0.000247716
0.000248273
0.000249243
0.000300793
0.000278382
0.000279811
0.000280431
0.000281687
0.000282355
0.00028364
0.00028436
0.000285674
0.000286448
0.00028779
0.000288624
0.000289988
0.000290887
0.00029227
0.00029324
0.00029464
0.000295682
0.000296394
0.000297641
0.000330068
0.000304568
0.000306176
0.00030687
0.000308284
0.000309038
0.000310486
0.000311301
0.000312782
0.000313661
0.000315174
0.000316122
0.000317663
0.000318687
0.000320251
0.000321356
0.000322942
0.000324131
0.000324938
0.000326356
0.000347104
0.000319775
0.000321484
0.000322224
0.00032373
0.000324534
0.000326077
0.000326947
0.000328527
0.000329467
0.000331082
0.000332097
0.000333742
0.000334839
0.00033651
0.000337696
0.000339391
0.000340667
0.00034153
0.000343049
0.000357772
0.000329288
0.000331063
0.000331829
0.000333393
0.000334229
0.000335831
0.000336737
0.000338378
0.000339357
0.000341034
0.000342092
0.000343802
0.000344946
0.000346684
0.00034792
0.000349684
0.000351015
0.000351914
0.000353496
0.000365481
0.000336163
0.000337982
0.00033877
0.000340375
0.000341234
0.000342879
0.00034381
0.000345495
0.000346502
0.000348225
0.000349315
0.000351071
0.000352249
0.000354035
0.000355308
0.000357121
0.000358492
0.000359416
0.000361045
0.00037201
0.000341983
0.000343837
0.000344645
0.000346285
0.000347163
0.000348844
0.000349797
0.000351519
0.00035255
0.000354312
0.000355427
0.000357223
0.00035843
0.000360256
0.000361561
0.000363415
0.00036482
0.000365766
0.000367434
0.000378293
0.000347586
0.000349481
0.000350303
0.000351977
0.000352874
0.00035459
0.000355564
0.000357322
0.000358376
0.000360175
0.000361315
0.000363149
0.000364384
0.00036625
0.000367584
0.000369479
0.000370917
0.000371884
0.00037359
0.000384897
0.000353469
0.000355399
0.000356242
0.000357951
0.000358867
0.00036062
0.000361615
0.000363412
0.00036449
0.000366327
0.000367494
0.000369369
0.000370633
0.00037254
0.000373906
0.000375844
0.000377316
0.000378305
0.00038005
0.00039218
0.000359955
0.000361933
0.000362791
0.00036454
0.000365478
0.000367272
0.000368291
0.00037013
0.000371235
0.000373116
0.000374312
0.000376231
0.000377527
0.00037948
0.000380882
0.000382867
0.000384377
0.00038539
0.00038718
0.000400468
0.000367328
0.000369354
0.000370235
0.000372029
0.000372992
0.000374831
0.000375879
0.000377765
0.000378901
0.000380831
0.000382061
0.000384031
0.000385364
0.00038737
0.000388812
0.000390851
0.000392405
0.000393446
0.000395286
0.000410091
0.000375883
0.000377964
0.000378873
0.000380719
0.00038171
0.000383604
0.000384684
0.000386626
0.000387797
0.000389785
0.000391055
0.000393084
0.000394461
0.000396527
0.000398017
0.000400118
0.000401724
0.000402798
0.000404697
0.000421499
0.000386013
0.00038816
0.0003891
0.000391008
0.000392034
0.000393993
0.000395111
0.000397119
0.000398334
0.00040039
0.000401708
0.000403808
0.000405236
0.000407375
0.000408921
0.000411098
0.000412765
0.000413878
0.000415847
0.000435271
0.000398231
0.000400461
0.000401439
0.000403422
0.00040449
0.000406526
0.000407691
0.00040978
0.000411047
0.000413186
0.000414562
0.000416747
0.000418239
0.000420466
0.000422081
0.000424349
0.000426091
0.000427251
0.000429307
0.000451583
0.000412717
0.00041504
0.00041606
0.00041813
0.000419247
0.000421373
0.000422595
0.000424777
0.000426106
0.000428342
0.000429787
0.000432072
0.00043364
0.000435971
0.00043767
0.000440045
0.000441877
0.000443092
0.00044525
0.000468014
0.000428468
0.000430757
0.000431764
0.000433823
0.00043494
0.000437066
0.000438299
0.000440494
0.000441849
0.00044411
0.000445597
0.00044792
0.000449549
0.00045193
0.000453712
0.00045615
0.000458089
0.000459343
0.000461599
0.000472879
0.000472845
0.000472818
0.000472816
0.000472776
0.000472788
0.000472752
0.000472762
0.000472738
0.000472741
0.00047273
0.000472728
0.000472724
0.000472721
0.00047272
0.000472718
0.000472718
0.000472718
0.000472717
0.000472717
)
;

boundaryField
{
    movingWall
    {
        type            zeroGradient;
    }
    fixedWalls
    {
        type            zeroGradient;
    }
    frontAndBack
    {
        type            empty;
    }
}


// ************************************************************************* //
