/*--------------------------------*- C++ -*----------------------------------*\
| =========                 |                                                 |
| \\      /  F ield         | OpenFOAM: The Open Source CFD Toolbox           |
|  \\    /   O peration     | Version:  2506                                  |
|   \\  /    A nd           | Website:  www.openfoam.com                      |
|    \\/     M anipulation  |                                                 |
\*---------------------------------------------------------------------------*/
FoamFile
{
    version     2.0;
    format      ascii;
    arch        "LSB;label=32;scalar=64";
    class       volVectorField;
    location    "5.375";
    object      diffU;
}
// * * * * * * * * * * * * * * * * * * * * * * * * * * * * * * * * * * * * * //

dimensions      [0 1 -1 0 0 0 0];

internalField   nonuniform List<vector> 
400
(
(0 0 0)
(7.88258e-15 -5.36033e-14 0)
(6.21725e-15 -4.23605e-14 0)
(5.66214e-15 -4.5038e-14 0)
(5.66214e-15 -4.46208e-14 0)
(5.21805e-15 -4.47779e-14 0)
(5.32907e-15 -4.4795e-14 0)
(4.996e-15 -4.48206e-14 0)
(4.996e-15 -4.47483e-14 0)
(4.77396e-15 -4.47206e-14 0)
(4.77396e-15 -4.4834e-14 0)
(4.66294e-15 -4.4817e-14 0)
(4.77396e-15 -4.47781e-14 0)
(4.66294e-15 -4.4733e-14 0)
(4.66294e-15 -4.47596e-14 0)
(4.44089e-15 -4.4786e-14 0)
(4.66294e-15 -4.48709e-14 0)
(4.44089e-15 -4.4895e-14 0)
(4.77396e-15 -4.48875e-14 0)
(4.66294e-15 -4.48122e-14 0)
(2.22045e-14 4.6639e-15 0)
(-4.44089e-16 -5.4977e-14 0)
(4.44089e-15 -4.20881e-14 0)
(3.77476e-15 -4.52442e-14 0)
(3.9968e-15 -4.46845e-14 0)
(4.44089e-15 -4.46679e-14 0)
(4.44089e-15 -4.45542e-14 0)
(3.9968e-15 -4.45789e-14 0)
(4.21885e-15 -4.45474e-14 0)
(3.9968e-15 -4.46424e-14 0)
(4.21885e-15 -4.48807e-14 0)
(4.21885e-15 -4.48944e-14 0)
(3.9968e-15 -4.49144e-14 0)
(4.66294e-15 -4.49442e-14 0)
(4.66294e-15 -4.48856e-14 0)
(4.88498e-15 -4.48339e-14 0)
(4.77396e-15 -4.48153e-14 0)
(4.77396e-15 -4.47914e-14 0)
(4.66294e-15 -4.48975e-14 0)
(4.44089e-15 -4.48514e-14 0)
(-6.43929e-15 -1.41339e-13 0)
(6.21725e-15 -2.32022e-14 0)
(3.55271e-15 -4.96572e-14 0)
(4.44089e-15 -4.36546e-14 0)
(4.21885e-15 -4.48832e-14 0)
(3.77476e-15 -4.46258e-14 0)
(3.9968e-15 -4.47484e-14 0)
(4.21885e-15 -4.48397e-14 0)
(4.66294e-15 -4.48712e-14 0)
(4.996e-15 -4.48406e-14 0)
(5.10703e-15 -4.48239e-14 0)
(4.77396e-15 -4.48061e-14 0)
(4.77396e-15 -4.48945e-14 0)
(4.66294e-15 -4.49842e-14 0)
(4.44089e-15 -4.49007e-14 0)
(4.44089e-15 -4.48845e-14 0)
(4.21885e-15 -4.48709e-14 0)
(4.66294e-15 -4.48539e-14 0)
(4.77396e-15 -4.48974e-14 0)
(4.66294e-15 -4.4901e-14 0)
(2.22045e-15 8.80073e-15 0)
(5.21805e-15 -5.65163e-14 0)
(4.996e-15 -4.21242e-14 0)
(4.21885e-15 -4.53754e-14 0)
(4.88498e-15 -4.45507e-14 0)
(5.10703e-15 -4.48279e-14 0)
(5.32907e-15 -4.48395e-14 0)
(4.996e-15 -4.49273e-14 0)
(4.77396e-15 -4.50039e-14 0)
(4.996e-15 -4.49291e-14 0)
(4.996e-15 -4.48333e-14 0)
(4.996e-15 -4.48303e-14 0)
(5.21805e-15 -4.48494e-14 0)
(4.88498e-15 -4.4812e-14 0)
(4.77396e-15 -4.47557e-14 0)
(4.77396e-15 -4.47842e-14 0)
(4.66294e-15 -4.48977e-14 0)
(4.44089e-15 -4.49783e-14 0)
(4.66294e-15 -4.49127e-14 0)
(4.77396e-15 -4.48531e-14 0)
(-7.32747e-15 -5.12655e-14 0)
(6.99441e-15 -4.39511e-14 0)
(3.33067e-15 -4.52055e-14 0)
(5.44009e-15 -4.48437e-14 0)
(4.66294e-15 -4.49651e-14 0)
(4.996e-15 -4.49596e-14 0)
(5.10703e-15 -4.48447e-14 0)
(5.10703e-15 -4.48092e-14 0)
(5.21805e-15 -4.49108e-14 0)
(5.10703e-15 -4.49186e-14 0)
(5.32907e-15 -4.48077e-14 0)
(4.88498e-15 -4.47993e-14 0)
(4.88498e-15 -4.47776e-14 0)
(4.77396e-15 -4.47205e-14 0)
(4.77396e-15 -4.4698e-14 0)
(4.77396e-15 -4.46952e-14 0)
(4.77396e-15 -4.48075e-14 0)
(4.66294e-15 -4.49149e-14 0)
(4.66294e-15 -4.48821e-14 0)
(4.77396e-15 -4.48483e-14 0)
(2.73115e-14 -5.87165e-14 0)
(4.44089e-16 -4.21532e-14 0)
(6.77236e-15 -4.54503e-14 0)
(4.44089e-15 -4.47669e-14 0)
(5.44009e-15 -4.49116e-14 0)
(5.21805e-15 -4.4892e-14 0)
(4.88498e-15 -4.49252e-14 0)
(4.66294e-15 -4.49198e-14 0)
(4.44089e-15 -4.49491e-14 0)
(4.21885e-15 -4.48881e-14 0)
(4.21885e-15 -4.47581e-14 0)
(4.44089e-15 -4.47456e-14 0)
(4.21885e-15 -4.47766e-14 0)
(4.44089e-15 -4.47157e-14 0)
(4.44089e-15 -4.47482e-14 0)
(4.44089e-15 -4.47996e-14 0)
(4.77396e-15 -4.48287e-14 0)
(4.77396e-15 -4.48119e-14 0)
(4.66294e-15 -4.48436e-14 0)
(4.66294e-15 -4.48853e-14 0)
(-1.13243e-14 -2.6126e-14 0)
(8.54872e-15 -4.85543e-14 0)
(4.21885e-15 -4.41375e-14 0)
(5.77316e-15 -4.50897e-14 0)
(4.88498e-15 -4.48461e-14 0)
(4.996e-15 -4.4855e-14 0)
(5.10703e-15 -4.49105e-14 0)
(5.32907e-15 -4.47634e-14 0)
(5.44009e-15 -4.46441e-14 0)
(5.10703e-15 -4.47134e-14 0)
(4.996e-15 -4.48153e-14 0)
(4.88498e-15 -4.48235e-14 0)
(4.88498e-15 -4.47783e-14 0)
(4.77396e-15 -4.46969e-14 0)
(4.996e-15 -4.47477e-14 0)
(4.88498e-15 -4.4851e-14 0)
(4.77396e-15 -4.48405e-14 0)
(4.66294e-15 -4.4805e-14 0)
(4.77396e-15 -4.48309e-14 0)
(4.66294e-15 -4.48833e-14 0)
(1.74305e-14 -5.6071e-14 0)
(1.33227e-15 -4.21505e-14 0)
(4.996e-15 -4.56341e-14 0)
(3.77476e-15 -4.46469e-14 0)
(4.21885e-15 -4.48748e-14 0)
(4.21885e-15 -4.48632e-14 0)
(3.9968e-15 -4.48776e-14 0)
(3.77476e-15 -4.4828e-14 0)
(3.77476e-15 -4.47878e-14 0)
(4.21885e-15 -4.48349e-14 0)
(4.44089e-15 -4.47298e-14 0)
(4.44089e-15 -4.45884e-14 0)
(4.21885e-15 -4.4668e-14 0)
(4.21885e-15 -4.48577e-14 0)
(4.44089e-15 -4.49215e-14 0)
(4.996e-15 -4.47735e-14 0)
(4.88498e-15 -4.47024e-14 0)
(4.66294e-15 -4.47696e-14 0)
(4.66294e-15 -4.48197e-14 0)
(4.66294e-15 -4.48679e-14 0)
(-1.77636e-14 -4.62685e-14 0)
(8.88178e-15 -4.52567e-14 0)
(2.66454e-15 -4.48483e-14 0)
(4.44089e-15 -4.49764e-14 0)
(3.77476e-15 -4.49349e-14 0)
(3.9968e-15 -4.48548e-14 0)
(3.9968e-15 -4.48171e-14 0)
(4.21885e-15 -4.4965e-14 0)
(4.66294e-15 -4.50058e-14 0)
(4.66294e-15 -4.4919e-14 0)
(3.9968e-15 -4.47859e-14 0)
(4.44089e-15 -4.48e-14 0)
(4.77396e-15 -4.49071e-14 0)
(4.996e-15 -4.49406e-14 0)
(4.44089e-15 -4.48728e-14 0)
(4.21885e-15 -4.47705e-14 0)
(4.44089e-15 -4.47464e-14 0)
(4.44089e-15 -4.47626e-14 0)
(4.66294e-15 -4.47964e-14 0)
(4.77396e-15 -4.48567e-14 0)
(2.59792e-14 -4.15737e-14 0)
(2.22045e-16 -4.5158e-14 0)
(6.32827e-15 -4.47113e-14 0)
(3.9968e-15 -4.48492e-14 0)
(4.21885e-15 -4.48436e-14 0)
(4.21885e-15 -4.48955e-14 0)
(4.66294e-15 -4.48986e-14 0)
(4.44089e-15 -4.49073e-14 0)
(4.21885e-15 -4.49279e-14 0)
(4.21885e-15 -4.49239e-14 0)
(4.44089e-15 -4.49759e-14 0)
(4.88498e-15 -4.49416e-14 0)
(4.66294e-15 -4.48379e-14 0)
(4.21885e-15 -4.47252e-14 0)
(4.44089e-15 -4.47215e-14 0)
(4.44089e-15 -4.48062e-14 0)
(4.66294e-15 -4.48859e-14 0)
(4.44089e-15 -4.49053e-14 0)
(4.77396e-15 -4.48444e-14 0)
(4.66294e-15 -4.48568e-14 0)
(-2.10942e-14 -3.93219e-14 0)
(8.54872e-15 -4.62539e-14 0)
(1.9984e-15 -4.44804e-14 0)
(3.9968e-15 -4.49529e-14 0)
(3.9968e-15 -4.49202e-14 0)
(4.44089e-15 -4.50465e-14 0)
(4.44089e-15 -4.50607e-14 0)
(4.44089e-15 -4.50239e-14 0)
(4.88498e-15 -4.50462e-14 0)
(4.77396e-15 -4.50517e-14 0)
(4.77396e-15 -4.50285e-14 0)
(4.66294e-15 -4.48903e-14 0)
(4.66294e-15 -4.47712e-14 0)
(4.77396e-15 -4.48125e-14 0)
(4.77396e-15 -4.48459e-14 0)
(4.66294e-15 -4.48108e-14 0)
(4.66294e-15 -4.48366e-14 0)
(4.44089e-15 -4.49396e-14 0)
(4.66294e-15 -4.49598e-14 0)
(4.88498e-15 -4.48548e-14 0)
(3.08642e-14 -4.96428e-14 0)
(4.44089e-16 -4.3622e-14 0)
(6.99441e-15 -4.51037e-14 0)
(4.77396e-15 -4.48382e-14 0)
(5.21805e-15 -4.51122e-14 0)
(5.10703e-15 -4.50993e-14 0)
(4.996e-15 -4.51282e-14 0)
(4.88498e-15 -4.51262e-14 0)
(4.996e-15 -4.50834e-14 0)
(5.21805e-15 -4.49262e-14 0)
(4.88498e-15 -4.48534e-14 0)
(5.10703e-15 -4.4856e-14 0)
(4.996e-15 -4.47933e-14 0)
(4.88498e-15 -4.47942e-14 0)
(4.88498e-15 -4.47833e-14 0)
(4.77396e-15 -4.48442e-14 0)
(4.996e-15 -4.47861e-14 0)
(4.77396e-15 -4.47997e-14 0)
(4.66294e-15 -4.49062e-14 0)
(4.66294e-15 -4.48912e-14 0)
(-1.95399e-14 -3.4567e-14 0)
(9.32587e-15 -4.68181e-14 0)
(2.44249e-15 -4.43089e-14 0)
(5.21805e-15 -4.5009e-14 0)
(4.44089e-15 -4.49505e-14 0)
(4.66294e-15 -4.49845e-14 0)
(4.44089e-15 -4.49592e-14 0)
(4.21885e-15 -4.50051e-14 0)
(3.9968e-15 -4.50468e-14 0)
(3.9968e-15 -4.50214e-14 0)
(3.77476e-15 -4.4957e-14 0)
(4.21885e-15 -4.47919e-14 0)
(4.44089e-15 -4.46764e-14 0)
(4.21885e-15 -4.47346e-14 0)
(4.21885e-15 -4.48574e-14 0)
(4.44089e-15 -4.48999e-14 0)
(4.21885e-15 -4.4854e-14 0)
(4.44089e-15 -4.48494e-14 0)
(4.44089e-15 -4.48694e-14 0)
(4.66294e-15 -4.48894e-14 0)
(2.20934e-14 -5.96706e-14 0)
(1.33227e-15 -4.2148e-14 0)
(6.10623e-15 -4.56172e-14 0)
(4.77396e-15 -4.49367e-14 0)
(4.996e-15 -4.49563e-14 0)
(4.996e-15 -4.48948e-14 0)
(4.996e-15 -4.48575e-14 0)
(4.996e-15 -4.47933e-14 0)
(4.88498e-15 -4.47432e-14 0)
(4.66294e-15 -4.48785e-14 0)
(4.44089e-15 -4.50203e-14 0)
(4.21885e-15 -4.50604e-14 0)
(4.44089e-15 -4.4987e-14 0)
(4.88498e-15 -4.4841e-14 0)
(4.996e-15 -4.47778e-14 0)
(4.66294e-15 -4.48059e-14 0)
(4.66294e-15 -4.4988e-14 0)
(4.88498e-15 -4.50454e-14 0)
(4.66294e-15 -4.49645e-14 0)
(4.77396e-15 -4.48649e-14 0)
(-4.88498e-15 -2.22239e-14 0)
(6.66134e-15 -4.95314e-14 0)
(4.44089e-15 -4.39761e-14 0)
(5.44009e-15 -4.51703e-14 0)
(4.77396e-15 -4.48967e-14 0)
(4.996e-15 -4.50225e-14 0)
(4.996e-15 -4.49565e-14 0)
(4.77396e-15 -4.48035e-14 0)
(5.21805e-15 -4.48008e-14 0)
(5.32907e-15 -4.48264e-14 0)
(5.21805e-15 -4.48551e-14 0)
(5.44009e-15 -4.49129e-14 0)
(5.10703e-15 -4.49119e-14 0)
(5.10703e-15 -4.47978e-14 0)
(4.77396e-15 -4.47136e-14 0)
(4.996e-15 -4.47945e-14 0)
(5.21805e-15 -4.49194e-14 0)
(4.996e-15 -4.49006e-14 0)
(4.77396e-15 -4.48344e-14 0)
(4.77396e-15 -4.48374e-14 0)
(1.31006e-14 -6.47907e-14 0)
(2.88658e-15 -4.09738e-14 0)
(5.32907e-15 -4.59193e-14 0)
(4.44089e-15 -4.47182e-14 0)
(4.77396e-15 -4.49401e-14 0)
(4.66294e-15 -4.49096e-14 0)
(4.44089e-15 -4.491e-14 0)
(4.44089e-15 -4.49545e-14 0)
(4.88498e-15 -4.49813e-14 0)
(4.66294e-15 -4.48718e-14 0)
(4.66294e-15 -4.47532e-14 0)
(4.66294e-15 -4.46637e-14 0)
(4.21885e-15 -4.46823e-14 0)
(4.44089e-15 -4.48623e-14 0)
(4.66294e-15 -4.49151e-14 0)
(4.44089e-15 -4.4903e-14 0)
(4.77396e-15 -4.47777e-14 0)
(4.66294e-15 -4.48033e-14 0)
(4.44089e-15 -4.47901e-14 0)
(4.66294e-15 -4.48434e-14 0)
(-6.66134e-16 -3.70557e-14 0)
(6.21725e-15 -4.62403e-14 0)
(4.44089e-15 -4.44224e-14 0)
(4.44089e-15 -4.49337e-14 0)
(4.44089e-15 -4.48756e-14 0)
(4.21885e-15 -4.48674e-14 0)
(4.44089e-15 -4.49538e-14 0)
(4.44089e-15 -4.50157e-14 0)
(4.44089e-15 -4.48978e-14 0)
(4.44089e-15 -4.48031e-14 0)
(4.21885e-15 -4.47319e-14 0)
(4.44089e-15 -4.478e-14 0)
(4.77396e-15 -4.47535e-14 0)
(4.66294e-15 -4.48704e-14 0)
(4.66294e-15 -4.49556e-14 0)
(4.44089e-15 -4.49499e-14 0)
(4.44089e-15 -4.486e-14 0)
(4.66294e-15 -4.48278e-14 0)
(4.44089e-15 -4.49239e-14 0)
(4.77396e-15 -4.49149e-14 0)
(4.996e-15 -3.4175e-14 0)
(4.44089e-15 -4.62772e-14 0)
(4.66294e-15 -4.44003e-14 0)
(4.996e-15 -4.49025e-14 0)
(4.996e-15 -4.47868e-14 0)
(4.88498e-15 -4.48051e-14 0)
(4.77396e-15 -4.49033e-14 0)
(4.44089e-15 -4.49413e-14 0)
(4.66294e-15 -4.48923e-14 0)
(4.21885e-15 -4.48343e-14 0)
(4.44089e-15 -4.4815e-14 0)
(4.77396e-15 -4.49139e-14 0)
(4.44089e-15 -4.49522e-14 0)
(4.77396e-15 -4.4882e-14 0)
(4.77396e-15 -4.48491e-14 0)
(4.77396e-15 -4.4812e-14 0)
(4.77396e-15 -4.48727e-14 0)
(4.66294e-15 -4.48438e-14 0)
(4.88498e-15 -4.4868e-14 0)
(4.88498e-15 -4.48539e-14 0)
(1.33227e-15 -4.17411e-14 0)
(4.44089e-15 -4.66236e-14 0)
(3.77476e-15 -4.45608e-14 0)
(4.21885e-15 -4.50289e-14 0)
(3.9968e-15 -4.47079e-14 0)
(4.21885e-15 -4.47485e-14 0)
(4.21885e-15 -4.47684e-14 0)
(4.21885e-15 -4.48351e-14 0)
(4.21885e-15 -4.48138e-14 0)
(4.21885e-15 -4.47862e-14 0)
(4.44089e-15 -4.49041e-14 0)
(4.44089e-15 -4.50476e-14 0)
(4.44089e-15 -4.51554e-14 0)
(4.44089e-15 -4.50783e-14 0)
(4.21885e-15 -4.494e-14 0)
(4.44089e-15 -4.48676e-14 0)
(4.44089e-15 -4.48612e-14 0)
(4.44089e-15 -4.49033e-14 0)
(4.66294e-15 -4.48358e-14 0)
(4.66294e-15 -4.48322e-14 0)
(1.16573e-14 -8.8406e-14 0)
(3.9968e-15 -3.61357e-14 0)
(6.32827e-15 -4.68839e-14 0)
(5.44009e-15 -4.44191e-14 0)
(5.44009e-15 -4.49328e-14 0)
(5.55112e-15 -4.4882e-14 0)
(5.55112e-15 -4.4917e-14 0)
(5.55112e-15 -4.49023e-14 0)
(5.44009e-15 -4.48678e-14 0)
(5.44009e-15 -4.48707e-14 0)
(5.55112e-15 -4.49221e-14 0)
(5.44009e-15 -4.4973e-14 0)
(5.10703e-15 -4.49424e-14 0)
(5.10703e-15 -4.49342e-14 0)
(4.77396e-15 -4.4933e-14 0)
(4.996e-15 -4.49469e-14 0)
(4.66294e-15 -4.49122e-14 0)
(4.66294e-15 -4.49042e-14 0)
(4.66294e-15 -4.48717e-14 0)
(4.996e-15 -4.48619e-14 0)
)
;

boundaryField
{
    movingWall
    {
        type            calculated;
        value           uniform (4.66294e-15 -4.48421e-14 0);
    }
    fixedWalls
    {
        type            calculated;
        value           uniform (4.66294e-15 -4.48421e-14 0);
    }
    frontAndBack
    {
        type            empty;
    }
}


// ************************************************************************* //
