/*--------------------------------*- C++ -*----------------------------------*\
| =========                 |                                                 |
| \\      /  F ield         | OpenFOAM: The Open Source CFD Toolbox           |
|  \\    /   O peration     | Version:  2506                                  |
|   \\  /    A nd           | Website:  www.openfoam.com                      |
|    \\/     M anipulation  |                                                 |
\*---------------------------------------------------------------------------*/
FoamFile
{
    version     2.0;
    format      ascii;
    arch        "LSB;label=32;scalar=64";
    class       volScalarField;
    location    "5.375";
    object      divU;
}
// * * * * * * * * * * * * * * * * * * * * * * * * * * * * * * * * * * * * * //

dimensions      [0 0 -1 0 0 0 0];

internalField   nonuniform List<scalar> 
400
(
9.29703e-12
-1.26619e-12
2.79625e-13
-1.14003e-13
1.07933e-14
-3.2563e-15
-2.06933e-14
1.36972e-15
3.88577e-14
5.02448e-15
-3.0457e-15
-2.9817e-14
-8.26574e-16
7.01729e-16
3.90666e-15
-4.77657e-14
5.40179e-14
-2.10322e-16
-1.00704e-14
0
-1.28478e-11
1.25892e-12
-3.14518e-13
1.32759e-13
3.87656e-14
3.90565e-14
-1.60358e-14
-5.47451e-14
5.36751e-14
-6.98158e-15
-2.03005e-15
-1.62203e-15
-1.24609e-14
5.6902e-14
1.6904e-14
2.36982e-14
-2.72934e-14
-2.32068e-14
-6.52696e-14
5.42101e-14
-5.14996e-13
8.33945e-13
-1.826e-13
6.54309e-14
-5.62756e-14
-4.0433e-15
3.67437e-14
-8.26833e-15
6.22288e-14
-8.54878e-15
-2.43965e-14
-2.23146e-14
-5.96414e-15
-1.1186e-14
-5.14224e-14
-2.55434e-14
1.86775e-14
6.65246e-14
-3.96908e-14
0
8.78204e-12
-1.81015e-12
3.70981e-13
-1.61903e-13
9.81616e-14
1.67838e-14
9.42523e-18
-5.94345e-14
4.05532e-15
-1.63484e-14
4.32194e-15
3.25754e-14
5.72788e-15
-1.19186e-14
-4.0498e-15
2.04914e-14
-2.91926e-14
6.21377e-15
1.60455e-14
-2.71051e-14
-7.75205e-12
2.5264e-12
-5.03735e-13
1.97103e-13
-1.00555e-13
1.03717e-14
1.85426e-14
-4.47877e-15
9.53633e-15
4.19603e-14
-1.52626e-14
-1.31601e-14
1.30143e-14
-2.93998e-14
-3.29657e-15
-8.15583e-15
-2.22936e-14
2.28494e-14
-4.14788e-15
0
4.36391e-12
-2.51467e-12
5.24639e-13
-1.52761e-13
1.01087e-13
-6.04778e-14
-4.22478e-14
-2.70054e-14
-1.80031e-14
-1.88296e-14
1.10905e-14
1.15251e-14
-1.41639e-14
2.71673e-14
-8.26743e-15
3.0473e-14
2.86176e-14
-2.03657e-14
9.76358e-16
0
-9.21572e-13
1.55136e-12
-3.06889e-13
1.0318e-13
-8.49755e-14
2.3719e-14
4.3828e-14
6.34957e-14
-2.89798e-14
-1.35034e-14
-1.31826e-14
2.72394e-14
-3.30942e-15
1.29731e-14
-2.56005e-14
-2.11283e-14
-1.29708e-14
3.80762e-14
-2.37395e-14
0
-1.0842e-12
-9.10704e-13
1.64138e-13
-7.52186e-14
4.16659e-14
-3.37055e-15
-1.09468e-13
-1.0872e-14
1.617e-14
2.01459e-14
1.68629e-14
-2.46197e-14
-1.61849e-14
1.57071e-14
4.32078e-14
6.82351e-14
-3.0662e-14
-1.18983e-14
6.81714e-15
0
-3.52366e-13
1.743e-12
-3.39899e-13
1.21391e-13
-6.36272e-14
-6.60401e-15
5.10652e-14
8.29868e-15
2.92697e-14
-7.00687e-14
-6.19627e-14
4.84783e-14
4.81423e-14
-5.23607e-14
-7.23135e-14
-1.63452e-14
5.20088e-15
2.87427e-14
4.35438e-15
0
2.35814e-12
-2.04302e-12
4.28724e-13
-1.74421e-13
-7.95021e-15
1.33722e-15
2.67116e-14
-7.89012e-14
-1.87185e-15
-2.02484e-15
4.92953e-14
1.23399e-14
-7.38023e-14
-1.24459e-14
3.87919e-14
6.09402e-14
-3.82631e-15
-1.60624e-14
-1.19885e-14
0
-2.95445e-12
2.44739e-12
-5.32087e-13
2.06151e-13
1.93984e-14
8.06173e-15
-2.33548e-14
3.47415e-14
9.68677e-15
-2.25863e-15
-1.97677e-14
2.09078e-14
1.1972e-14
7.76218e-15
-2.15988e-14
2.92297e-15
6.15101e-15
2.15973e-14
8.92939e-15
-2.71051e-14
2.6563e-12
-2.43373e-12
4.6084e-13
-2.06028e-13
1.63715e-14
-1.28457e-14
1.39012e-14
9.5165e-15
3.67309e-14
7.70312e-16
-1.26157e-14
3.64062e-15
2.14572e-14
1.55538e-14
-2.27463e-14
2.11226e-14
4.41459e-15
-5.06966e-14
1.79731e-14
0
-2.95445e-12
2.34864e-12
-4.84969e-13
2.44915e-13
-4.93584e-14
7.60045e-15
-4.0343e-14
1.56963e-14
-1.05685e-14
5.54582e-15
-2.92993e-14
3.74053e-14
-2.50186e-14
-1.62352e-14
3.20065e-14
-2.925e-14
-1.57761e-14
6.04922e-15
3.92542e-14
0
2.6563e-12
-1.88002e-12
3.88575e-13
-1.23584e-13
1.02316e-14
3.79947e-15
-1.29713e-14
8.74363e-15
-1.30796e-14
-2.05929e-15
-7.33216e-14
-1.79733e-15
5.98483e-14
5.87575e-14
-7.82002e-15
-1.87168e-14
3.18938e-14
9.30091e-16
1.5642e-14
-2.71051e-14
-1.27394e-12
1.05633e-12
-1.56636e-13
6.08911e-14
-1.52501e-14
2.32223e-15
-1.82206e-14
-7.37676e-15
1.73161e-14
2.57114e-14
3.47008e-14
3.78752e-14
-1.81028e-14
-2.46879e-14
-2.15404e-14
2.57827e-14
2.58193e-14
-1.96092e-15
-2.1132e-14
-2.71051e-14
-8.13152e-13
-4.30601e-13
9.68889e-14
-2.3865e-14
1.39635e-14
1.7835e-14
-4.50517e-14
2.56195e-14
7.61811e-15
-2.61623e-14
1.99207e-14
-3.01552e-14
-2.2571e-15
2.22619e-14
3.55772e-14
-1.6861e-14
4.65655e-15
-4.88894e-14
5.12395e-14
0
2.71051e-12
-3.93702e-14
-4.93667e-14
-1.51844e-14
-2.49211e-14
1.1833e-15
3.69328e-14
-1.69579e-16
1.65265e-14
4.69331e-15
-4.04658e-14
5.32446e-14
-2.92474e-14
-6.81589e-15
1.50697e-14
-3.487e-14
4.93682e-14
-5.29427e-14
4.34494e-14
0
-4.60786e-13
-1.04815e-13
7.23179e-14
2.95001e-14
1.8957e-14
1.3071e-14
-2.58519e-14
-3.63225e-14
-2.18223e-15
-2.07281e-14
5.07286e-14
-2.77168e-14
-4.23344e-14
-4.96519e-16
-1.04808e-14
4.67941e-16
-4.96563e-15
-6.27994e-15
2.51484e-14
-5.42101e-14
-5.77338e-12
1.2346e-12
-2.57354e-13
5.07333e-14
3.1463e-14
5.38048e-15
-1.20407e-16
-5.31142e-15
2.664e-16
2.74066e-15
1.29061e-14
-6.52023e-15
1.28622e-14
-5.70916e-15
-1.88698e-14
-1.30242e-14
-8.90959e-15
4.18862e-14
-2.32849e-15
0
4.66207e-12
-1.21973e-12
2.98156e-13
-1.0842e-13
2.71051e-14
0
0
-2.71051e-14
0
0
5.42101e-14
-2.71051e-14
0
0
2.71051e-14
-2.71051e-14
-2.71051e-14
0
5.42101e-14
-5.42101e-14
)
;

boundaryField
{
    movingWall
    {
        type            extrapolatedCalculated;
        value           nonuniform List<scalar> 
20
(
4.66207e-12
-1.21973e-12
2.98156e-13
-1.0842e-13
2.71051e-14
0
0
-2.71051e-14
0
0
5.42101e-14
-2.71051e-14
0
0
2.71051e-14
-2.71051e-14
-2.71051e-14
0
5.42101e-14
-5.42101e-14
)
;
    }
    fixedWalls
    {
        type            extrapolatedCalculated;
        value           nonuniform List<scalar> 
60
(
9.29703e-12
-1.28478e-11
-5.14996e-13
8.78204e-12
-7.75205e-12
4.36391e-12
-9.21572e-13
-1.0842e-12
-3.52366e-13
2.35814e-12
-2.95445e-12
2.6563e-12
-2.95445e-12
2.6563e-12
-1.27394e-12
-8.13152e-13
2.71051e-12
-4.60786e-13
-5.77338e-12
4.66207e-12
0
5.42101e-14
0
-2.71051e-14
0
0
0
0
0
0
-2.71051e-14
0
0
-2.71051e-14
-2.71051e-14
0
0
-5.42101e-14
0
-5.42101e-14
9.29703e-12
-1.26619e-12
2.79625e-13
-1.14003e-13
1.07933e-14
-3.2563e-15
-2.06933e-14
1.36972e-15
3.88577e-14
5.02448e-15
-3.0457e-15
-2.9817e-14
-8.26574e-16
7.01729e-16
3.90666e-15
-4.77657e-14
5.40179e-14
-2.10322e-16
-1.00704e-14
0
)
;
    }
    frontAndBack
    {
        type            empty;
    }
}


// ************************************************************************* //
