/*--------------------------------*- C++ -*----------------------------------*\
| =========                 |                                                 |
| \\      /  F ield         | OpenFOAM: The Open Source CFD Toolbox           |
|  \\    /   O peration     | Version:  2506                                  |
|   \\  /    A nd           | Website:  www.openfoam.com                      |
|    \\/     M anipulation  |                                                 |
\*---------------------------------------------------------------------------*/
FoamFile
{
    version     2.0;
    format      ascii;
    arch        "LSB;label=32;scalar=64";
    class       volScalarField;
    location    "5.375";
    object      enstrophyField;
}
// * * * * * * * * * * * * * * * * * * * * * * * * * * * * * * * * * * * * * //

dimensions      [0 0 -2 0 0 0 0];

internalField   nonuniform List<scalar> 
400
(
2.66125e-24
8.07701e-24
2.59926e-25
3.20397e-26
1.52929e-27
2.56501e-27
1.71018e-27
1.73296e-27
5.00357e-29
1.04152e-27
9.9332e-28
1.78794e-27
1.95962e-27
1.71748e-30
1.40182e-29
6.19721e-29
5.9446e-29
1.37136e-30
3.43195e-29
1.18427e-30
1.05232e-23
1.01816e-23
7.7418e-25
1.58995e-26
3.05951e-26
1.10347e-26
1.04293e-26
3.36151e-27
1.14535e-27
5.55569e-28
3.15323e-27
5.67622e-30
1.24006e-29
4.14682e-30
6.09149e-29
2.47394e-29
1.70873e-27
6.24002e-28
5.48002e-28
2.08513e-29
1.51634e-23
3.72042e-23
2.20384e-24
1.13954e-25
2.70627e-26
9.28049e-29
5.27377e-27
1.09237e-26
3.31404e-27
5.37545e-27
3.0309e-27
6.66801e-27
7.96716e-27
3.84341e-28
4.96865e-29
4.43589e-30
4.66988e-30
2.99049e-28
1.10962e-29
6.51541e-29
9.15143e-24
1.35247e-23
6.206e-25
6.16259e-26
3.82239e-28
1.35149e-26
7.00505e-27
2.49585e-27
3.72309e-28
1.45543e-28
4.88234e-29
1.29794e-30
3.19298e-28
1.57232e-28
2.95879e-28
8.52799e-28
5.0726e-27
1.13871e-30
7.85066e-28
1.79609e-28
4.55957e-24
5.98296e-25
3.17256e-26
4.68859e-30
2.16503e-27
7.25414e-29
2.39785e-27
2.18943e-29
1.30633e-28
2.08145e-27
2.18773e-27
1.63748e-27
3.97802e-27
1.93228e-27
4.38999e-28
1.3051e-28
2.41437e-28
5.97471e-28
2.22036e-29
5.03083e-28
2.73116e-25
7.09349e-25
6.83705e-26
3.5837e-28
7.84608e-28
9.35852e-31
3.88148e-30
2.85359e-30
2.86437e-28
1.82419e-28
8.55437e-28
1.70248e-30
1.63558e-27
4.02901e-30
3.51717e-29
3.2386e-29
7.57001e-31
1.11966e-30
2.69173e-29
9.95365e-30
3.06573e-24
1.82323e-24
1.43749e-25
1.38492e-28
1.73179e-26
2.80301e-27
6.91179e-27
3.26785e-27
1.75324e-27
1.46413e-28
6.05883e-29
6.82983e-30
8.0116e-29
1.63981e-27
1.18768e-28
2.01531e-27
2.53198e-28
3.93831e-28
3.06983e-29
4.48605e-30
1.55047e-26
5.16722e-25
1.79445e-27
1.69917e-26
1.78162e-27
3.28336e-27
3.59835e-27
1.04407e-26
3.25025e-27
1.80087e-27
5.61386e-27
1.82332e-27
3.62465e-28
3.16481e-27
1.96101e-27
2.89688e-27
1.49072e-27
6.87837e-29
4.82958e-29
5.50023e-32
5.24644e-25
2.49401e-26
5.77754e-27
3.75168e-29
7.38729e-29
2.17708e-27
2.12746e-27
2.67004e-27
2.53187e-28
2.41858e-28
7.08502e-29
2.19984e-27
2.33067e-27
5.86991e-30
1.44622e-28
4.41414e-27
1.51246e-27
1.21072e-27
4.42399e-29
4.5681e-28
1.76069e-25
3.36845e-26
1.68102e-27
8.4005e-28
1.7308e-27
1.78288e-27
3.40295e-27
4.51047e-28
1.56043e-27
1.15475e-29
3.45215e-27
8.84493e-29
2.34254e-28
2.16833e-27
1.94107e-27
4.77848e-27
2.05578e-27
8.63417e-30
1.17369e-29
1.42882e-30
2.9681e-27
1.33051e-25
5.30406e-27
7.84979e-27
4.1103e-27
7.4988e-27
2.5526e-30
1.39174e-27
1.62418e-27
5.6879e-27
6.00975e-29
9.48263e-31
1.07791e-27
6.71517e-27
1.4603e-27
4.33763e-31
2.25061e-27
2.21297e-27
3.60221e-29
8.48593e-29
1.21811e-25
5.96802e-26
2.05917e-26
5.96922e-27
3.22536e-27
4.12097e-28
4.43715e-28
1.00581e-29
8.24513e-27
2.98015e-27
3.90197e-27
1.81334e-27
1.82349e-27
1.52426e-27
5.34717e-27
4.1085e-32
1.72053e-27
7.21079e-29
4.18356e-29
7.38055e-28
1.44037e-24
5.57052e-25
4.1858e-26
2.05789e-27
1.60505e-27
3.44231e-28
2.11807e-30
3.8373e-29
1.3371e-30
1.99622e-27
5.43568e-27
5.98158e-27
1.79659e-27
1.63837e-28
2.50204e-27
5.86468e-32
1.75562e-27
1.18199e-30
7.97385e-30
1.9328e-28
3.58345e-24
1.40516e-24
1.22865e-25
7.59677e-28
1.25136e-27
1.48317e-28
1.43668e-28
9.15075e-28
1.03738e-26
9.26523e-27
2.16178e-26
8.73851e-27
1.76261e-27
5.54224e-28
1.28502e-27
1.15801e-27
8.76179e-27
1.34434e-27
1.62994e-28
1.05214e-28
3.68418e-24
2.73276e-24
1.33862e-25
2.10971e-27
8.77209e-28
1.78788e-29
2.896e-27
2.43441e-27
3.0795e-28
1.47455e-29
3.73844e-29
5.3743e-28
7.4549e-28
1.10169e-27
1.48711e-27
2.12798e-29
5.62524e-29
3.60872e-29
1.99723e-29
3.34411e-28
2.08427e-24
1.93741e-24
7.01044e-26
2.12887e-26
3.1725e-29
6.20826e-27
1.23609e-27
1.10802e-27
1.95193e-27
8.61137e-27
8.35032e-27
3.90743e-27
5.89926e-28
7.34329e-30
8.26565e-30
2.30799e-27
2.05943e-27
1.40309e-27
1.25982e-27
5.17766e-28
1.01514e-24
4.29112e-25
1.70884e-26
4.9534e-27
2.09627e-28
3.05313e-29
2.38337e-27
1.56513e-29
2.84806e-27
1.37654e-28
4.32371e-28
2.33129e-30
2.00009e-27
2.04183e-28
3.16174e-29
9.96879e-28
7.45841e-29
2.04188e-29
1.97932e-27
1.19295e-28
2.68989e-25
3.46771e-25
2.39339e-26
7.4698e-28
4.14537e-27
2.16858e-27
8.23516e-28
3.97872e-28
5.73027e-29
6.06754e-28
6.14787e-28
9.42197e-29
1.64719e-27
5.31999e-29
1.87352e-27
2.79683e-30
5.05961e-30
1.49505e-27
3.95173e-28
7.07844e-30
1.48882e-25
3.24768e-26
4.98305e-30
2.37493e-27
1.41898e-27
1.81605e-27
6.85412e-27
9.80904e-27
5.35935e-27
1.04481e-26
9.05236e-27
3.14708e-27
3.56054e-27
1.54925e-29
2.219e-28
1.84797e-28
6.36106e-30
1.33504e-27
5.85232e-28
4.12706e-28
4.82444e-24
8.28609e-24
2.79025e-25
3.10793e-26
1.84039e-28
1.55618e-27
1.36139e-27
1.74855e-27
1.64584e-27
1.18947e-27
9.67019e-28
1.36173e-27
4.8011e-28
3.93247e-28
1.53938e-27
4.25883e-28
9.10388e-30
8.17598e-30
8.96641e-30
1.74911e-27
)
;

boundaryField
{
    movingWall
    {
        type            calculated;
        value           nonuniform List<scalar> 
20
(
2.36654e-25
7.54955e-24
1.31559e-26
1.28002e-25
3.49992e-26
6.36709e-26
6.23898e-26
6.48711e-26
4.9306e-26
4.66427e-26
5.95259e-26
4.76908e-26
1.64744e-26
1.59445e-26
9.30202e-28
9.15396e-27
9.10388e-30
8.17598e-30
8.96641e-30
9.54442e-27
)
;
    }
    fixedWalls
    {
        type            calculated;
        value           nonuniform List<scalar> 
60
(
1.38375e-22
2.09161e-22
6.70508e-22
2.31953e-22
1.26802e-23
1.33658e-23
3.58046e-23
7.27295e-24
9.95183e-25
1.28887e-24
1.47956e-24
2.11313e-24
1.23874e-23
2.73436e-23
4.96891e-23
3.53902e-23
7.60742e-24
8.31139e-24
1.58357e-25
1.45284e-22
7.18718e-29
6.82549e-30
2.77525e-28
2.58515e-28
4.3715e-28
1.48822e-28
1.3582e-28
5.29306e-29
2.26483e-28
1.72462e-29
1.27276e-29
1.09175e-27
3.37795e-29
4.13235e-29
3.1784e-28
3.53593e-28
4.2318e-28
1.10484e-29
4.83038e-28
1.92918e-27
1.49783e-23
1.52568e-23
2.75674e-26
1.95759e-25
6.98145e-26
2.86702e-26
3.66466e-26
8.26445e-27
7.59198e-27
1.40337e-27
1.46055e-27
1.56155e-29
6.48547e-28
1.71748e-30
1.40182e-29
3.01747e-27
5.9446e-29
3.79858e-27
6.52474e-28
1.18427e-30
)
;
    }
    frontAndBack
    {
        type            empty;
    }
}


// ************************************************************************* //
