/*--------------------------------*- C++ -*----------------------------------*\
| =========                 |                                                 |
| \\      /  F ield         | OpenFOAM: The Open Source CFD Toolbox           |
|  \\    /   O peration     | Version:  2506                                  |
|   \\  /    A nd           | Website:  www.openfoam.com                      |
|    \\/     M anipulation  |                                                 |
\*---------------------------------------------------------------------------*/
FoamFile
{
    version     2.0;
    format      ascii;
    arch        "LSB;label=32;scalar=64";
    class       volScalarField;
    location    "5.375";
    object      flowTypeField;
}
// * * * * * * * * * * * * * * * * * * * * * * * * * * * * * * * * * * * * * //

dimensions      [0 0 0 0 0 0 0];

internalField   nonuniform List<scalar> 
400
(
0.720729
0.134398
0.280985
-0.0491644
0.386707
-0.0639023
0.273469
0.115758
0.68158
0.30573
0.176595
0.0181329
-0.152687
0.0463638
0.164155
0.738485
0.741275
0.00557514
0.312942
0.282976
0.631838
0.212553
0.0495879
0.374934
-0.222153
-0.0657523
-0.0429772
0.150498
0.34591
0.056477
-0.458457
0.0395605
0.517726
0.942464
0.588285
0.689332
0.0367369
0.0976277
0.407043
0.833041
0.269534
0.0642263
-0.0219992
0.0144354
-0.308158
0.533968
0.0126211
-0.0336096
0.387078
0.097194
0.0893656
-0.0298618
-0.160742
0.283339
0.764969
0.830456
0.831438
0.658941
0.758159
0.000101976
0.51568
0.0541412
0.0711269
-0.211136
0.720988
-0.081338
-0.0864582
0.094643
0.00377239
0.083913
0.0121285
0.888015
0.134297
0.560343
0.390675
-0.159831
-0.155895
0.620578
0.0176014
0.461215
0.530327
0.399073
0.353983
0.965843
0.211481
0.533316
-0.103483
0.00566776
0.401807
-0.0478155
-0.0644857
0.0633739
-0.0913027
-0.00454827
-0.090371
0.394355
0.33909
-0.0588297
0.259498
-0.156441
0.725828
0.472243
0.24777
0.770187
0.490144
0.965045
0.840285
0.855161
0.575122
0.451705
-0.511447
0.877844
0.0553595
0.834443
0.123235
0.804649
0.906125
0.900526
0.156075
0.175921
-0.156583
0.182754
-0.0866241
0.816208
-0.0149694
0.121861
-0.0485359
0.0100693
0.224494
0.417436
0.553747
0.681389
0.533176
0.0774276
0.295818
-0.0347336
0.395321
0.245446
0.647872
0.106426
0.903882
0.350598
0.807245
-0.20819
0.364444
0.00341177
0.338665
-0.0536443
0.208061
0.224722
-0.212704
0.00937187
0.0916971
-0.146237
0.183197
0.0486114
0.103702
0.536616
0.0515584
0.624254
0.531605
0.856913
0.714106
0.908169
0.718297
-0.211721
0.147484
-0.154446
0.574955
0.564085
0.620434
0.329624
0.13504
0.901391
0.743387
-0.15306
0.123415
0.331672
0.0299309
-0.111206
0.624744
0.829274
0.803902
0.738658
-0.0837951
0.0616072
0.168102
0.588058
-0.027237
0.569207
0.266463
0.612057
0.684383
-0.0453421
-0.017944
0.0141633
-0.161415
0.685715
0.628298
0.00460002
0.955207
0.72978
0.745279
0.421516
0.10365
-0.0722641
0.836212
0.304913
0.0856461
0.0161559
0.678982
0.926863
0.144148
-0.0330753
0.106558
0.580385
-0.208777
-0.196199
0.633126
0.50253
0.731342
0.816228
0.502986
0.449975
-0.251772
0.235851
-0.0245659
0.0655816
-0.141629
-0.414914
-0.0237601
-0.0899421
-0.0942247
-0.00790951
0.0727025
0.952735
-0.0804419
0.723757
0.250212
-0.38835
0.292783
0.508095
0.36435
0.688727
0.250938
0.206118
0.93799
0.735205
0.949933
-0.158153
-0.244986
-0.0558948
-0.0364085
0.0302622
-0.13488
0.948134
-0.0204278
0.917946
0.886208
0.270275
-0.0029492
0.208326
0.00864352
0.641281
0.0803014
0.359784
0.365116
0.248628
-0.024375
-0.184434
-0.00218758
0.0281495
0.451038
0.522524
0.173103
-0.0719149
-0.172513
0.0469353
0.0173756
0.471384
-0.269815
0.0181839
-0.121073
0.327582
-0.0186002
0.025818
-0.388056
-0.214635
0.556006
0.730635
0.616702
0.289339
0.392005
-0.0892537
0.0241514
0.795285
0.480982
0.703176
0.738515
0.291957
0.117938
0.0444494
0.0635415
-0.41784
0.688708
-0.0170497
0.317118
0.367785
-0.00876263
-0.165039
-0.181407
0.100677
0.425891
0.869138
0.893382
-0.189591
-0.173065
0.282157
0.315385
-0.130176
0.50732
0.110439
0.310646
-0.560433
0.452371
0.343247
-0.112252
0.0233559
-0.358401
0.023349
0.220925
0.953734
-0.033172
0.00456138
0.199173
0.381239
0.720373
0.832898
0.174568
0.00218756
0.276725
0.18687
-0.255452
0.181256
-0.0932165
-0.17777
0.44076
0.494957
0.187928
0.10321
0.540134
0.47878
0.140433
0.639353
-0.126993
0.607642
0.000618183
0.000959945
0.256659
0.892062
0.867947
0.708777
0.983938
0.0672078
0.431276
-0.0981616
-0.0792817
-0.0328789
0.0450329
-0.0658722
-0.18649
-0.442072
-0.0373658
0.776662
0.0666752
0.340977
0.263219
0.296212
-0.255379
-0.0579463
0.382872
0.0395179
0.125881
-0.147836
0.616091
-0.0236427
0.0369651
0.0303816
-0.0575829
0.100012
0.27351
0.338441
0.518242
0.39528
0.0326497
0.25217
0.784931
0.593067
0.8802
0.21093
)
;

boundaryField
{
    movingWall
    {
        type            calculated;
        value           nonuniform List<scalar> 
20
(
0.947301
0.262803
0.841989
-0.271406
0.156283
-0.00342284
0.00918576
-0.00855533
-0.00959863
0.0180942
0.0352217
0.0338572
0.043762
0.0260086
0.226142
0.0477148
0.836834
0.767259
0.882665
0.0404489
)
;
    }
    fixedWalls
    {
        type            calculated;
        value           nonuniform List<scalar> 
60
(
0.172261
0.179585
0.0572132
0.0728208
0.398615
0.475823
0.137027
0.419503
0.802115
0.766318
0.792452
0.758075
0.479278
0.194424
-0.00936583
0.043136
0.19301
0.0503492
0.870333
0.0572359
0.013728
0.933
2.46868e-05
0.505347
0.385897
0.019056
0.00529119
0.0295005
0.530258
0.000487337
0.913015
-0.661988
0.679908
0.736564
0.459262
0.0540129
0.402441
0.918282
-0.142415
0.512155
0.645717
0.0272707
0.795545
-0.479308
0.0873953
-0.0621816
0.00682888
0.0550774
0.106428
0.237921
-0.209595
0.739178
0.27605
0.921238
0.776432
0.249876
0.746071
0.044208
0.233868
0.775145
)
;
    }
    frontAndBack
    {
        type            empty;
    }
}


// ************************************************************************* //
