/*--------------------------------*- C++ -*----------------------------------*\
| =========                 |                                                 |
| \\      /  F ield         | OpenFOAM: The Open Source CFD Toolbox           |
|  \\    /   O peration     | Version:  2506                                  |
|   \\  /    A nd           | Website:  www.openfoam.com                      |
|    \\/     M anipulation  |                                                 |
\*---------------------------------------------------------------------------*/
FoamFile
{
    version     2.0;
    format      ascii;
    arch        "LSB;label=32;scalar=64";
    class       surfaceScalarField;
    location    "5.375";
    object      fluxField;
}
// * * * * * * * * * * * * * * * * * * * * * * * * * * * * * * * * * * * * * //

dimensions      [0 3 -1 0 0 0 0];

oriented        oriented;

internalField   nonuniform List<scalar> 
760
(
-5e-05
2.3587e-18
-5e-05
-4.72402e-19
-5e-05
1.30893e-19
-5e-05
-1.49483e-20
-5e-05
9.47459e-21
-5e-05
5.96219e-21
-5e-05
8.37921e-21
-5e-05
7.11869e-21
-5e-05
9.71443e-21
-5e-05
8.03238e-21
-5e-05
-7.61426e-22
-5e-05
-6.7798e-22
-5e-05
-2.06644e-22
-5e-05
1.75432e-22
-5e-05
9.76665e-22
-5e-05
1.61111e-21
-5e-05
-4.80609e-23
-5e-05
-5.25806e-23
-5e-05
-2.5176e-21
5.18412e-22
-5e-05
-1.17476e-18
-5e-05
2.87626e-19
-5e-05
-5.15245e-20
-5e-05
1.96371e-20
-5e-05
2.91514e-21
-5e-05
9.76411e-21
-5e-05
9.54358e-21
-5e-05
6.64252e-21
-5e-05
6.6425e-21
-5e-05
5.03087e-21
-5e-05
-5.07512e-22
-5e-05
-4.05507e-22
-5e-05
-3.11522e-21
-5e-05
-6.10328e-21
-5e-05
-2.55027e-21
-5e-05
-8.51718e-22
-5e-05
-4.70985e-23
-5e-05
9.74557e-22
-5e-05
-2.76487e-21
-1.70339e-21
-5e-05
-1.07134e-18
-5e-05
2.49144e-19
-5e-05
-5.24262e-20
-5e-05
1.63577e-20
-5e-05
6.25988e-21
-5e-05
5.76544e-21
-5e-05
2.40967e-21
-5e-05
-2.06708e-21
-5e-05
-4.77159e-21
-5e-05
-2.13719e-21
-5e-05
6.77135e-22
-5e-05
1.19762e-21
-5e-05
-1.49103e-21
-5e-05
-2.79649e-21
-5e-05
6.96928e-22
-5e-05
3.90402e-22
-5e-05
-2.10689e-21
-5e-05
-3.69763e-21
-5e-05
-3.14642e-21
-1.74539e-21
-5e-05
1.18049e-18
-5e-05
-2.69577e-19
-5e-05
5.8864e-20
-5e-05
-1.33706e-20
-5e-05
4.2116e-21
-5e-05
-2.58031e-21
-5e-05
2.35631e-24
-5e-05
-1.30611e-21
-5e-05
-5.76243e-21
-5e-05
-4.08711e-21
-5e-05
1.08049e-21
-5e-05
1.36759e-21
-5e-05
1.43197e-21
-5e-05
3.7966e-21
-5e-05
5.76381e-21
-5e-05
5.12284e-21
-5e-05
-5.21883e-22
-5e-05
-5.22282e-21
-5e-05
-2.76488e-21
-4.26893e-22
-5e-05
-5.07443e-19
-5e-05
8.94995e-20
-5e-05
-2.42898e-20
-5e-05
1.84198e-21
-5e-05
-4.80985e-21
-5e-05
-4.18335e-21
-5e-05
-2.14062e-21
-5e-05
-1.11969e-21
-5e-05
-4.39218e-21
-5e-05
-3.06246e-21
-5e-05
2.96062e-21
-5e-05
3.48624e-21
-5e-05
3.25359e-21
-5e-05
6.20258e-21
-5e-05
5.95212e-21
-5e-05
4.73731e-21
-5e-05
1.20286e-21
-5e-05
-1.06391e-21
-5e-05
-1.03697e-21
-1.23224e-21
-5e-05
1.21044e-19
-5e-05
-2.55812e-20
-5e-05
2.41078e-21
-5e-05
-4.30899e-21
-5e-05
-1.83318e-21
-5e-05
-1.56691e-21
-5e-05
-3.78568e-21
-5e-05
2.49181e-23
-5e-05
2.27548e-21
-5e-05
2.06887e-21
-5e-05
2.77264e-21
-5e-05
2.88127e-21
-5e-05
3.2353e-21
-5e-05
6.79182e-21
-5e-05
4.70941e-21
-5e-05
8.41995e-22
-5e-05
3.78132e-22
-5e-05
1.68483e-21
-5e-05
2.4409e-22
-2.10837e-21
-5e-05
1.87182e-19
-5e-05
-2.55129e-20
-5e-05
-2.18323e-21
-5e-05
-1.3101e-21
-5e-05
-9.15091e-22
-5e-05
-8.46518e-22
-5e-05
-2.59552e-21
-5e-05
2.32141e-21
-5e-05
6.30757e-21
-5e-05
3.4004e-21
-5e-05
3.48063e-21
-5e-05
6.80985e-21
-5e-05
5.94891e-21
-5e-05
3.24328e-21
-5e-05
3.76139e-22
-5e-05
1.4942e-21
-5e-05
3.53356e-21
-5e-05
2.74277e-21
-5e-05
8.41397e-22
-1.67315e-21
-5e-05
-3.1638e-19
-5e-05
5.69272e-20
-5e-05
-1.99519e-20
-5e-05
1.52415e-21
-5e-05
-3.13606e-21
-5e-05
-8.42638e-22
-5e-05
-2.62021e-22
-5e-05
-2.71799e-21
-5e-05
-2.73376e-21
-5e-05
-1.7398e-21
-5e-05
4.21572e-21
-5e-05
7.3976e-21
-5e-05
2.73005e-21
-5e-05
-2.8495e-21
-5e-05
-2.75058e-21
-5e-05
3.50626e-21
-5e-05
5.88702e-21
-5e-05
3.80169e-21
-5e-05
1.70429e-21
-1.00693e-21
-5e-05
4.60521e-20
-5e-05
-1.82606e-20
-5e-05
3.11656e-21
-5e-05
-3.53345e-21
-5e-05
-2.35427e-21
-5e-05
-1.651e-21
-5e-05
-7.86224e-22
-5e-05
-4.70159e-21
-5e-05
-6.2351e-21
-5e-05
-3.96465e-21
-5e-05
-1.93815e-21
-5e-05
-1.43295e-21
-5e-05
-1.51694e-21
-5e-05
4.62342e-22
-5e-05
2.25043e-21
-5e-05
2.68996e-21
-5e-05
1.30022e-21
-5e-05
4.0941e-22
-5e-05
1.0886e-21
-7.30941e-22
-5e-05
2.19717e-19
-5e-05
-4.31923e-20
-5e-05
1.23134e-20
-5e-05
-2.94755e-21
-5e-05
-1.98755e-21
-5e-05
-6.44196e-21
-5e-05
-6.87462e-21
-5e-05
-6.17278e-21
-5e-05
-7.24423e-21
-5e-05
-7.28247e-21
-5e-05
-8.00496e-21
-5e-05
-3.6913e-21
-5e-05
1.8782e-21
-5e-05
3.6648e-21
-5e-05
2.9217e-21
-5e-05
1.68251e-21
-5e-05
-9.56578e-22
-5e-05
-4.01561e-21
-5e-05
-2.99712e-21
-6.82396e-22
-5e-05
1.79896e-20
-5e-05
-4.79227e-21
-5e-05
2.50353e-21
-5e-05
-2.67246e-21
-5e-05
-8.70292e-21
-5e-05
-1.15371e-20
-5e-05
-1.2615e-20
-5e-05
-1.16434e-20
-5e-05
-1.11308e-20
-5e-05
-7.34092e-21
-5e-05
-4.94192e-21
-5e-05
-1.54932e-21
-5e-05
2.99301e-21
-5e-05
1.94055e-21
-5e-05
1.37656e-21
-5e-05
7.30743e-22
-5e-05
1.53775e-21
-5e-05
-1.37694e-21
-5e-05
-4.54392e-21
-1.54177e-21
-5e-05
1.36862e-19
-5e-05
-1.88969e-20
-5e-05
6.78968e-21
-5e-05
-4.07305e-21
-5e-05
-9.45966e-21
-5e-05
-9.98768e-21
-5e-05
-1.00772e-20
-5e-05
-1.11734e-20
-5e-05
-1.11461e-20
-5e-05
-6.58369e-21
-5e-05
-3.15393e-21
-5e-05
9.10155e-22
-5e-05
5.36429e-21
-5e-05
3.88845e-21
-5e-05
1.08969e-21
-5e-05
-1.49561e-21
-5e-05
1.10365e-21
-5e-05
8.78377e-22
-5e-05
-2.28298e-21
-2.40678e-21
-5e-05
-1.13834e-19
-5e-05
1.79547e-20
-5e-05
-6.04573e-21
-5e-05
-6.53382e-21
-5e-05
-5.56334e-21
-5e-05
-4.87615e-21
-5e-05
-3.30947e-21
-5e-05
-2.85218e-21
-5e-05
-2.64213e-21
-5e-05
-5.38981e-21
-5e-05
-7.32482e-21
-5e-05
-4.20119e-21
-5e-05
5.21612e-22
-5e-05
2.71747e-21
-5e-05
1.22536e-21
-5e-05
-5.36248e-22
-5e-05
-3.94403e-21
-5e-05
-5.26396e-21
-5e-05
-3.73899e-21
-1.74854e-21
-5e-05
1.94743e-19
-5e-05
-4.98759e-20
-5e-05
2.27617e-21
-5e-05
-1.05673e-20
-5e-05
-4.21837e-21
-5e-05
-5.8264e-21
-5e-05
-3.24282e-21
-5e-05
2.18591e-21
-5e-05
3.50636e-21
-5e-05
-5.14824e-22
-5e-05
-4.77787e-21
-5e-05
-7.2256e-21
-5e-05
-5.36672e-21
-5e-05
1.13684e-21
-5e-05
4.82126e-21
-5e-05
2.09707e-21
-5e-05
-5.57907e-21
-5e-05
-6.54374e-21
-5e-05
-2.86576e-21
-4.49917e-22
-5e-05
6.67413e-20
-5e-05
-2.05213e-20
-5e-05
-5.27763e-21
-5e-05
-5.10601e-21
-5e-05
-3.81252e-21
-5e-05
-6.19571e-21
-5e-05
-4.55516e-21
-5e-05
-1.84419e-21
-5e-05
-2.44724e-21
-5e-05
-3.48418e-22
-5e-05
1.89893e-21
-5e-05
2.69254e-21
-5e-05
2.25056e-21
-5e-05
6.04295e-22
-5e-05
1.39117e-21
-5e-05
-3.30587e-22
-5e-05
-3.21445e-22
-5e-05
-4.9023e-22
-5e-05
1.49326e-21
8.62678e-23
-5e-05
-3.04053e-19
-5e-05
6.17563e-20
-5e-05
-1.64353e-20
-5e-05
8.10008e-22
-5e-05
-3.28539e-21
-5e-05
-2.31752e-21
-5e-05
-4.48666e-21
-5e-05
-7.14765e-21
-5e-05
-4.87174e-21
-5e-05
2.35683e-22
-5e-05
4.98018e-21
-5e-05
6.01373e-21
-5e-05
6.21199e-21
-5e-05
-1.21078e-21
-5e-05
-4.65822e-21
-5e-05
-4.21525e-21
-5e-05
1.16414e-21
-5e-05
1.33017e-21
-5e-05
-7.42659e-22
-1.85027e-21
-5e-05
4.61338e-19
-5e-05
-7.08289e-20
-5e-05
2.15396e-20
-5e-05
-3.7961e-21
-5e-05
5.45998e-22
-5e-05
2.95825e-22
-5e-05
-4.31932e-21
-5e-05
-6.81866e-21
-5e-05
-2.64463e-21
-5e-05
1.17333e-21
-5e-05
3.43608e-21
-5e-05
-2.41375e-22
-5e-05
-5.35579e-22
-5e-05
-1.70397e-21
-5e-05
-3.00884e-21
-5e-05
-1.94124e-21
-5e-05
-1.21047e-21
-5e-05
3.16853e-22
-5e-05
-2.69017e-21
-2.11206e-21
-5e-05
3.44202e-19
-5e-05
-8.04138e-20
-5e-05
1.80795e-20
-5e-05
-6.1775e-21
-5e-05
4.73925e-21
-5e-05
3.26775e-21
-5e-05
3.13299e-22
-5e-05
-2.30437e-21
-5e-05
-5.45557e-22
-5e-05
1.59424e-21
-5e-05
-8.70366e-22
-5e-05
-6.9292e-21
-5e-05
-1.05836e-20
-5e-05
-6.90039e-21
-5e-05
-2.6202e-21
-5e-05
1.16985e-22
-5e-05
-1.24141e-21
-5e-05
-1.56998e-21
-5e-05
-4.89157e-22
-4.525e-23
-5e-05
-1.01157e-18
-5e-05
1.73124e-19
-5e-05
-4.40098e-20
-5e-05
5.90706e-21
-5e-05
1.08948e-21
-5e-05
1.34512e-21
-5e-05
-3.01016e-23
-5e-05
-1.32786e-21
-5e-05
6.66e-23
-5e-05
6.85166e-22
-5e-05
-3.54975e-21
-5e-05
-8.40632e-21
-5e-05
-1.0337e-20
-5e-05
-8.20355e-21
-5e-05
-4.71746e-21
-5e-05
-3.25604e-21
-5e-05
-2.2274e-21
-5e-05
-3.08098e-21
-5e-05
-5.82122e-22
-2.45553e-22
-5e-05
-5e-05
-5e-05
-5e-05
-5e-05
-5e-05
-5e-05
-5e-05
-5e-05
-5e-05
-5e-05
-5e-05
-5e-05
-5e-05
-5e-05
-5e-05
-5e-05
-5e-05
-5e-05
)
;

boundaryField
{
    movingWall
    {
        type            calculated;
        value           uniform -0;
    }
    fixedWalls
    {
        type            calculated;
        value           nonuniform List<scalar> 
60
(
5e-05
5e-05
5e-05
5e-05
5e-05
5e-05
5e-05
5e-05
5e-05
5e-05
5e-05
5e-05
5e-05
5e-05
5e-05
5e-05
5e-05
5e-05
5e-05
5e-05
-5e-05
-5e-05
-5e-05
-5e-05
-5e-05
-5e-05
-5e-05
-5e-05
-5e-05
-5e-05
-5e-05
-5e-05
-5e-05
-5e-05
-5e-05
-5e-05
-5e-05
-5e-05
-5e-05
-5e-05
0
0
0
0
0
0
0
0
0
0
0
0
0
0
0
0
0
0
0
0
)
;
    }
    frontAndBack
    {
        type            empty;
    }
}


// ************************************************************************* //
