/*--------------------------------*- C++ -*----------------------------------*\
| =========                 |                                                 |
| \\      /  F ield         | OpenFOAM: The Open Source CFD Toolbox           |
|  \\    /   O peration     | Version:  2506                                  |
|   \\  /    A nd           | Website:  www.openfoam.com                      |
|    \\/     M anipulation  |                                                 |
\*---------------------------------------------------------------------------*/
FoamFile
{
    version     2.0;
    format      ascii;
    arch        "LSB;label=32;scalar=64";
    class       volTensorField;
    location    "5.375";
    object      gradU;
}
// * * * * * * * * * * * * * * * * * * * * * * * * * * * * * * * * * * * * * //

dimensions      [0 0 -1 0 0 0 0];

internalField   nonuniform List<tensor> 
400
(
(-1.35525e-13 3.6081e-12 0 1.30104e-12 9.43482e-12 0 0 0 0)
(6.23416e-13 -4.23605e-12 0 -2.1684e-13 -1.88961e-12 0 0 0 0)
(-2.43945e-13 8.56533e-13 0 1.35525e-13 5.23571e-13 0 0 0 0)
(-5.42101e-14 -2.26034e-13 0 2.71051e-14 -5.97932e-14 0 0 0 0)
(-2.71051e-14 2.60107e-14 0 8.13152e-14 3.78984e-14 0 0 0 0)
(-2.71051e-14 -1.74141e-14 0 5.42101e-14 2.38488e-14 0 0 0 0)
(-5.42101e-14 -4.27369e-15 0 5.42101e-14 3.35168e-14 0 0 0 0)
(-2.71051e-14 4.66203e-15 0 -5.42101e-14 2.84748e-14 0 0 0 0)
(0 1.00036e-14 0 0 3.88577e-14 0 0 0 0)
(-2.71051e-14 -8.56968e-15 0 -5.42101e-14 3.21295e-14 0 0 0 0)
(0 -9.63836e-15 0 -5.42101e-14 -3.0457e-15 0 0 0 0)
(-2.71051e-14 5.58847e-15 0 -5.42101e-14 -2.71192e-15 0 0 0 0)
(0 8.39373e-15 0 -5.42101e-14 -8.26574e-16 0 0 0 0)
(0 1.85336e-15 0 0 7.01729e-16 0 0 0 0)
(0 -5.29494e-15 0 0 3.90666e-15 0 0 0 0)
(-5.42101e-14 -1.1133e-14 0 0 6.44444e-15 0 0 0 0)
(5.42101e-14 -1.09038e-14 0 0 -1.92243e-16 0 0 0 0)
(0 -1.65612e-15 0 0 -2.10322e-16 0 0 0 0)
(0 8.28487e-15 0 0 -1.00704e-14 0 0 0 0)
(0 1.53901e-15 0 0 2.07365e-15 0 0 0 0)
(1.27394e-12 3.93711e-12 0 -6.50521e-13 -1.41339e-11 0 0 0 0)
(-1.78893e-12 -4.6752e-12 0 -1.6263e-13 3.04011e-12 0 0 0 0)
(4.06576e-13 9.73281e-13 0 -2.71051e-13 -7.29668e-13 0 0 0 0)
(0 -2.59638e-13 0 -8.13152e-14 1.38342e-13 0 0 0 0)
(5.42101e-14 5.76312e-14 0 -1.89735e-13 -2.62378e-14 0 0 0 0)
(2.71051e-14 1.30326e-14 0 -1.35525e-13 1.52077e-14 0 0 0 0)
(-2.71051e-14 8.89971e-15 0 -1.35525e-13 4.65749e-15 0 0 0 0)
(-5.42101e-14 6.78851e-16 0 -8.13152e-14 -1.90467e-15 0 0 0 0)
(5.42101e-14 -6.34881e-15 0 -5.42101e-14 -1.22877e-14 0 0 0 0)
(0 -3.33337e-14 0 0 -1.20061e-14 0 0 0 0)
(0 -2.52031e-14 0 5.42101e-14 1.01566e-15 0 0 0 0)
(0 -3.36934e-15 0 0 1.08989e-15 0 0 0 0)
(0 -4.98008e-15 0 0 -1.16343e-14 0 0 0 0)
(8.13152e-14 2.87987e-15 0 0 -2.51149e-14 0 0 0 0)
(2.71051e-14 1.10377e-14 0 0 -1.41077e-14 0 0 0 0)
(2.71051e-14 7.03412e-15 0 0 -9.85131e-15 0 0 0 0)
(-2.71051e-14 4.249e-15 0 -5.42101e-14 3.84953e-18 0 0 0 0)
(-2.71051e-14 -8.22205e-15 0 2.71051e-14 4.10855e-15 0 0 0 0)
(-5.42101e-14 -6.0009e-15 0 2.71051e-14 -9.89056e-16 0 0 0 0)
(5.42101e-14 6.45776e-15 0 0 -8.8872e-15 0 0 0 0)
(-9.21572e-13 -7.48564e-12 0 -1.97867e-12 4.13683e-13 0 0 0 0)
(9.75782e-13 9.16814e-12 0 5.42101e-13 -1.53928e-13 0 0 0 0)
(-1.89735e-13 -2.04524e-12 0 5.42101e-14 -3.60679e-15 0 0 0 0)
(8.13152e-14 4.77396e-13 0 0 -1.31177e-14 0 0 0 0)
(-8.13152e-14 -9.71233e-14 0 1.35525e-13 1.33789e-14 0 0 0 0)
(0 1.34812e-14 0 2.71051e-14 -1.59947e-14 0 0 0 0)
(5.42101e-14 -2.13861e-14 0 8.13152e-14 -2.85357e-14 0 0 0 0)
(2.71051e-14 -1.22832e-14 0 1.35525e-13 -3.48384e-14 0 0 0 0)
(1.0842e-13 -9.78188e-17 0 8.13152e-14 -4.56564e-14 0 0 0 0)
(2.71051e-14 4.7337e-15 0 1.0842e-13 -2.86722e-14 0 0 0 0)
(-2.71051e-14 3.4576e-15 0 8.13152e-14 4.73859e-15 0 0 0 0)
(-2.71051e-14 -7.0615e-15 0 1.0842e-13 6.41249e-15 0 0 0 0)
(0 -1.7811e-14 0 1.0842e-13 6.49675e-15 0 0 0 0)
(-2.71051e-14 -6.20052e-16 0 2.71051e-14 1.32272e-14 0 0 0 0)
(-5.42101e-14 9.9686e-15 0 0 1.29888e-14 0 0 0 0)
(-2.71051e-14 2.97855e-15 0 0 4.96848e-15 0 0 0 0)
(2.71051e-14 3.0561e-15 0 0 -8.23917e-15 0 0 0 0)
(8.13152e-14 -2.64902e-15 0 -2.71051e-14 -1.86888e-14 0 0 0 0)
(-2.71051e-14 -4.71088e-15 0 0 -1.52623e-15 0 0 0 0)
(0 1.14153e-14 0 0 -1.68014e-16 0 0 0 0)
(-2.1684e-13 4.19687e-12 0 -8.13152e-14 9.0073e-12 0 0 0 0)
(2.71051e-13 -5.09249e-12 0 1.0842e-13 -2.07488e-12 0 0 0 0)
(-8.13152e-14 1.11409e-12 0 0 4.45161e-13 0 0 0 0)
(-5.42101e-14 -2.42652e-13 0 1.0842e-13 -1.18913e-13 0 0 0 0)
(1.0842e-13 5.47542e-14 0 2.71051e-14 -8.1931e-15 0 0 0 0)
(5.42101e-14 -2.8882e-14 0 1.35525e-13 -3.3383e-14 0 0 0 0)
(0 -9.94402e-15 0 1.0842e-13 -9.62925e-15 0 0 0 0)
(-5.42101e-14 -1.64419e-14 0 5.42101e-14 3.04389e-15 0 0 0 0)
(0 -1.82629e-16 0 2.71051e-14 -3.96336e-15 0 0 0 0)
(0 1.70612e-14 0 0 -7.79965e-15 0 0 0 0)
(0 9.88164e-15 0 0 1.6134e-15 0 0 0 0)
(2.71051e-14 -1.61118e-15 0 0 6.79909e-16 0 0 0 0)
(0 1.8346e-15 0 2.71051e-14 1.1692e-14 0 0 0 0)
(-2.71051e-14 9.3719e-15 0 2.71051e-14 2.63724e-14 0 0 0 0)
(-2.71051e-14 2.77896e-15 0 2.71051e-14 2.02675e-14 0 0 0 0)
(0 -1.41938e-14 0 2.71051e-14 1.89298e-14 0 0 0 0)
(-2.71051e-14 -1.94082e-14 0 8.13152e-14 6.34003e-15 0 0 0 0)
(0 -1.50911e-15 0 0 -6.10076e-15 0 0 0 0)
(2.71051e-14 1.25198e-14 0 -2.71051e-14 1.52619e-15 0 0 0 0)
(-2.71051e-14 8.152e-15 0 2.71051e-14 5.27399e-15 0 0 0 0)
(-1.00289e-12 -5.5323e-13 0 2.46656e-12 -6.75172e-12 0 0 0 0)
(1.0842e-12 6.05998e-13 0 -4.87891e-13 1.43631e-12 0 0 0 0)
(-1.6263e-13 -8.92651e-14 0 1.6263e-13 -3.32615e-13 0 0 0 0)
(1.35525e-13 2.40428e-14 0 2.71051e-14 6.08504e-14 0 0 0 0)
(-5.42101e-14 -1.15931e-14 0 5.42101e-14 -3.60858e-14 0 0 0 0)
(2.71051e-14 1.2045e-14 0 0 -6.41215e-15 0 0 0 0)
(2.71051e-14 1.50408e-14 0 -5.42101e-14 -8.57189e-15 0 0 0 0)
(0 -6.61729e-15 0 0 7.4567e-16 0 0 0 0)
(0 -1.09414e-14 0 -2.71051e-14 5.48101e-15 0 0 0 0)
(2.71051e-14 1.03105e-14 0 -5.42101e-14 4.09859e-15 0 0 0 0)
(-2.71051e-14 1.19372e-14 0 -5.42101e-14 7.52055e-15 0 0 0 0)
(-2.71051e-14 3.01711e-15 0 -5.42101e-14 8.4746e-15 0 0 0 0)
(0 7.88144e-15 0 -8.13152e-14 7.28647e-15 0 0 0 0)
(-2.71051e-14 7.95548e-15 0 -5.42101e-14 9.62392e-15 0 0 0 0)
(0 2.52599e-15 0 -2.71051e-14 7.5323e-16 0 0 0 0)
(0 -1.0949e-14 0 -2.71051e-14 -1.54213e-15 0 0 0 0)
(-2.71051e-14 -2.19744e-14 0 0 6.89895e-15 0 0 0 0)
(0 -7.46287e-15 0 2.71051e-14 1.66357e-14 0 0 0 0)
(0 6.66387e-15 0 0 6.91163e-15 0 0 0 0)
(0 4.61508e-15 0 -2.71051e-14 -3.22139e-15 0 0 0 0)
(1.84314e-12 -1.11855e-12 0 -3.79471e-13 2.51395e-12 0 0 0 0)
(-2.05998e-12 1.32662e-12 0 1.35525e-13 -4.60323e-13 0 0 0 0)
(4.06576e-13 -2.61365e-13 0 1.0842e-13 1.06802e-13 0 0 0 0)
(-1.35525e-13 5.38771e-14 0 2.71051e-14 -2.46039e-14 0 0 0 0)
(8.13152e-14 -1.25083e-14 0 2.71051e-14 1.19067e-14 0 0 0 0)
(-8.13152e-14 -1.3681e-15 0 0 1.04657e-14 0 0 0 0)
(-2.71051e-14 -2.78621e-15 0 0 -6.58024e-15 0 0 0 0)
(-2.71051e-14 -2.38897e-15 0 0 4.57844e-15 0 0 0 0)
(-5.42101e-14 3.17029e-15 0 2.71051e-14 2.66706e-14 0 0 0 0)
(-2.71051e-14 1.91008e-14 0 0 2.05253e-14 0 0 0 0)
(0 1.42577e-14 0 -2.71051e-14 -7.51948e-16 0 0 0 0)
(2.71051e-14 -1.84526e-15 0 0 -2.41988e-15 0 0 0 0)
(-2.71051e-14 2.98392e-15 0 -5.42101e-14 -7.31627e-17 0 0 0 0)
(2.71051e-14 2.83867e-15 0 0 2.35696e-15 0 0 0 0)
(0 -8.38709e-15 0 0 -4.97087e-15 0 0 0 0)
(5.42101e-14 -8.04811e-15 0 0 -1.55812e-14 0 0 0 0)
(2.71051e-14 -1.23045e-15 0 0 -3.2989e-15 0 0 0 0)
(-2.71051e-14 -1.49644e-15 0 0 1.0995e-14 0 0 0 0)
(0 -7.3372e-15 0 0 5.12424e-15 0 0 0 0)
(0 4.46176e-15 0 0 -3.5045e-15 0 0 0 0)
(-1.19262e-12 1.5004e-12 0 -9.75782e-13 2.64551e-13 0 0 0 0)
(1.54499e-12 -1.80115e-12 0 1.0842e-13 2.73321e-16 0 0 0 0)
(-2.98156e-13 3.46454e-13 0 -1.89735e-13 -1.8376e-14 0 0 0 0)
(8.13152e-14 -7.08529e-14 0 -5.42101e-14 1.19955e-14 0 0 0 0)
(-8.13152e-14 2.34766e-14 0 -1.6263e-13 3.67237e-15 0 0 0 0)
(2.71051e-14 -6.44187e-15 0 -8.13152e-14 2.88158e-15 0 0 0 0)
(2.71051e-14 9.15353e-15 0 -1.0842e-13 4.76063e-15 0 0 0 0)
(5.42101e-14 2.66336e-14 0 -5.42101e-14 9.18596e-15 0 0 0 0)
(-5.42101e-14 5.0055e-15 0 -5.42101e-14 1.61283e-14 0 0 0 0)
(-2.71051e-14 -1.71121e-14 0 0 5.32615e-15 0 0 0 0)
(-2.71051e-14 -1.1008e-14 0 0 2.83196e-15 0 0 0 0)
(0 3.6959e-15 0 0 1.57143e-14 0 0 0 0)
(-2.71051e-14 1.26583e-14 0 0 1.08545e-14 0 0 0 0)
(2.71051e-14 3.05777e-15 0 -5.42101e-14 -1.41941e-14 0 0 0 0)
(0 -1.54122e-14 0 0 -1.73331e-14 0 0 0 0)
(-2.71051e-14 -9.27699e-15 0 5.42101e-14 2.60882e-15 0 0 0 0)
(-2.71051e-14 4.6018e-15 0 2.71051e-14 1.26217e-14 0 0 0 0)
(2.71051e-14 9.60267e-16 0 -2.71051e-14 4.23176e-15 0 0 0 0)
(-2.71051e-14 -7.83559e-15 0 0 2.38923e-15 0 0 0 0)
(0 2.99535e-15 0 0 1.74086e-15 0 0 0 0)
(9.48677e-13 -8.53721e-13 0 -6.77626e-13 -2.01425e-12 0 0 0 0)
(-1.24683e-12 1.04369e-12 0 2.71051e-14 3.2976e-13 0 0 0 0)
(2.43945e-13 -2.49643e-13 0 -1.89735e-13 -7.10746e-14 0 0 0 0)
(-8.13152e-14 7.59255e-14 0 -1.0842e-13 1.1337e-14 0 0 0 0)
(5.42101e-14 -2.16222e-14 0 -8.13152e-14 -8.88386e-15 0 0 0 0)
(0 -2.7984e-16 0 -8.13152e-14 1.55201e-17 0 0 0 0)
(-1.0842e-13 3.51817e-15 0 -8.13152e-14 9.33399e-15 0 0 0 0)
(0 8.97874e-15 0 -1.35525e-13 -2.01576e-14 0 0 0 0)
(5.42101e-14 -6.89517e-16 0 -8.13152e-14 -3.61653e-14 0 0 0 0)
(5.42101e-14 5.80438e-15 0 -5.42101e-14 -2.05608e-14 0 0 0 0)
(2.71051e-14 2.46458e-14 0 -8.13152e-14 2.94036e-15 0 0 0 0)
(-2.71051e-14 6.17723e-15 0 -5.42101e-14 2.35102e-15 0 0 0 0)
(0 -2.69245e-14 0 0 -1.28754e-14 0 0 0 0)
(2.71051e-14 -2.53489e-14 0 5.42101e-14 -2.43711e-14 0 0 0 0)
(5.42101e-14 8.41588e-15 0 -5.42101e-14 -1.25069e-14 0 0 0 0)
(5.42101e-14 2.19067e-14 0 -5.42101e-14 8.04824e-15 0 0 0 0)
(-2.71051e-14 3.92493e-16 0 -5.42101e-14 9.41383e-15 0 0 0 0)
(-2.71051e-14 -1.17289e-14 0 0 4.23565e-15 0 0 0 0)
(0 -9.8281e-15 0 0 3.45155e-15 0 0 0 0)
(0 3.31669e-16 0 0 2.66487e-15 0 0 0 0)
(-1.81604e-12 -1.84091e-13 0 8.40257e-13 1.44973e-12 0 0 0 0)
(2.03288e-12 1.42023e-13 0 -8.13152e-14 -3.00751e-13 0 0 0 0)
(-4.33681e-13 2.80307e-14 0 1.35525e-13 9.22737e-14 0 0 0 0)
(1.35525e-13 -8.6622e-15 0 0 -2.02304e-14 0 0 0 0)
(-5.42101e-14 1.21551e-14 0 0 3.12717e-15 0 0 0 0)
(0 1.1776e-14 0 -5.42101e-14 -3.23346e-15 0 0 0 0)
(5.42101e-14 -1.10196e-14 0 5.42101e-14 -2.09681e-15 0 0 0 0)
(2.71051e-14 -1.88657e-14 0 5.42101e-14 -7.93439e-15 0 0 0 0)
(5.42101e-14 4.60231e-15 0 2.71051e-14 -1.40054e-14 0 0 0 0)
(-5.42101e-14 2.19935e-14 0 0 -8.89942e-15 0 0 0 0)
(-2.71051e-14 1.19038e-14 0 0 -2.46155e-14 0 0 0 0)
(8.13152e-14 -1.21199e-14 0 5.42101e-14 -3.53222e-14 0 0 0 0)
(5.42101e-14 -1.40639e-14 0 5.42101e-14 -1.6988e-14 0 0 0 0)
(-5.42101e-14 3.42634e-15 0 0 1.32474e-14 0 0 0 0)
(-8.13152e-14 1.70072e-14 0 0 2.0004e-14 0 0 0 0)
(0 1.26437e-14 0 -8.13152e-14 -3.26521e-15 0 0 0 0)
(2.71051e-14 7.89215e-16 0 -5.42101e-14 -1.83472e-14 0 0 0 0)
(5.42101e-14 -5.00201e-15 0 -5.42101e-14 -1.35691e-14 0 0 0 0)
(0 -9.40637e-15 0 0 -2.46276e-15 0 0 0 0)
(0 -3.12108e-15 0 2.71051e-14 1.10397e-15 0 0 0 0)
(1.68051e-12 2.95256e-13 0 -2.98156e-13 6.94661e-13 0 0 0 0)
(-1.95156e-12 -3.13766e-13 0 -5.42101e-14 -9.97265e-14 0 0 0 0)
(3.79471e-13 3.0878e-14 0 -2.71051e-14 3.67875e-14 0 0 0 0)
(-1.89735e-13 -1.32211e-14 0 -5.42101e-14 2.34358e-15 0 0 0 0)
(0 -4.6253e-15 0 5.42101e-14 1.46685e-15 0 0 0 0)
(2.71051e-14 -5.50382e-15 0 5.42101e-14 -1.91638e-14 0 0 0 0)
(5.42101e-14 -1.18276e-15 0 8.13152e-14 -2.43536e-14 0 0 0 0)
(-8.13152e-14 -2.92982e-15 0 2.71051e-14 -5.88475e-15 0 0 0 0)
(0 -1.65455e-15 0 5.42101e-14 -4.03649e-15 0 0 0 0)
(0 -4.80572e-15 0 0 -1.32713e-14 0 0 0 0)
(8.13152e-14 -1.777e-15 0 8.13152e-14 -2.42672e-14 0 0 0 0)
(2.71051e-14 1.38047e-14 0 2.71051e-14 -9.03337e-15 0 0 0 0)
(-8.13152e-14 2.16451e-14 0 0 1.35806e-14 0 0 0 0)
(-2.71051e-14 1.16431e-14 0 -5.42101e-14 1.28098e-14 0 0 0 0)
(2.71051e-14 -8.09669e-15 0 5.42101e-14 2.68511e-15 0 0 0 0)
(5.42101e-14 -1.64445e-14 0 8.13152e-14 -4.02978e-15 0 0 0 0)
(0 -9.91141e-15 0 5.42101e-14 -9.02719e-15 0 0 0 0)
(0 4.15552e-15 0 0 -1.77001e-14 0 0 0 0)
(0 4.84497e-15 0 0 -1.63429e-14 0 0 0 0)
(0 1.69046e-15 0 0 1.94179e-16 0 0 0 0)
(-2.1684e-12 4.10844e-13 0 4.87891e-13 -8.06911e-13 0 0 0 0)
(2.30393e-12 -5.1585e-13 0 0 1.536e-13 0 0 0 0)
(-4.87891e-13 1.30101e-13 0 2.71051e-14 -3.92396e-14 0 0 0 0)
(2.1684e-13 -4.39828e-14 0 8.13152e-14 1.10037e-15 0 0 0 0)
(5.42101e-14 -9.35233e-15 0 8.13152e-14 -2.68615e-14 0 0 0 0)
(2.71051e-14 -1.40444e-14 0 1.0842e-13 -2.03805e-14 0 0 0 0)
(0 2.25947e-15 0 0 -2.29614e-14 0 0 0 0)
(5.42101e-14 1.45138e-15 0 5.42101e-14 -2.18825e-14 0 0 0 0)
(2.71051e-14 -2.78422e-15 0 5.42101e-14 -1.55464e-14 0 0 0 0)
(0 1.76281e-15 0 1.0842e-13 -2.33788e-16 0 0 0 0)
(-2.71051e-14 1.61417e-14 0 2.71051e-14 1.22522e-14 0 0 0 0)
(0 2.57279e-14 0 2.71051e-14 8.56791e-15 0 0 0 0)
(0 7.77931e-15 0 5.42101e-14 4.45923e-15 0 0 0 0)
(2.71051e-14 -7.46914e-15 0 1.0842e-13 -6.897e-15 0 0 0 0)
(-2.71051e-14 1.67567e-16 0 5.42101e-14 -6.18056e-15 0 0 0 0)
(0 9.31411e-16 0 0 -3.80709e-15 0 0 0 0)
(0 -1.28811e-14 0 5.42101e-14 9.97732e-15 0 0 0 0)
(0 -1.23177e-14 0 5.42101e-14 1.05547e-14 0 0 0 0)
(2.71051e-14 8.48789e-15 0 0 -6.18719e-15 0 0 0 0)
(-2.71051e-14 1.30276e-14 0 0 -3.43748e-15 0 0 0 0)
(2.19551e-12 -3.58055e-13 0 1.35525e-13 4.7549e-13 0 0 0 0)
(-2.38524e-12 4.53906e-13 0 1.0842e-13 -5.64187e-14 0 0 0 0)
(4.33681e-13 -1.21622e-13 0 8.13152e-14 1.71446e-14 0 0 0 0)
(-1.89735e-13 -8.42957e-16 0 1.0842e-13 -5.60238e-15 0 0 0 0)
(2.71051e-14 -2.61062e-14 0 5.42101e-14 -3.02696e-15 0 0 0 0)
(-2.71051e-14 -1.60373e-15 0 2.71051e-14 6.19767e-15 0 0 0 0)
(0 -2.68472e-15 0 2.71051e-14 1.0151e-14 0 0 0 0)
(0 4.48512e-15 0 0 1.88002e-15 0 0 0 0)
(2.71051e-14 1.99942e-14 0 -1.0842e-13 -6.08874e-17 0 0 0 0)
(0 2.29929e-14 0 -5.42101e-14 3.02894e-15 0 0 0 0)
(-2.71051e-14 7.0247e-15 0 -8.13152e-14 7.15195e-15 0 0 0 0)
(0 6.0118e-15 0 -5.42101e-14 9.83789e-15 0 0 0 0)
(0 6.18014e-15 0 -5.42101e-14 9.48513e-15 0 0 0 0)
(0 1.00335e-15 0 -5.42101e-14 7.79162e-15 0 0 0 0)
(-2.71051e-14 -5.00678e-15 0 -1.0842e-13 -1.14749e-15 0 0 0 0)
(2.71051e-14 -2.86653e-16 0 0 -8.90539e-15 0 0 0 0)
(0 4.45036e-15 0 -5.42101e-14 -1.73642e-15 0 0 0 0)
(-5.42101e-14 -1.2009e-14 0 0 9.02127e-15 0 0 0 0)
(0 -9.14719e-15 0 0 9.04374e-15 0 0 0 0)
(0 1.13151e-14 0 -2.71051e-14 -3.46007e-15 0 0 0 0)
(-1.95156e-12 8.29915e-13 0 -8.67362e-13 -1.00278e-12 0 0 0 0)
(2.19551e-12 -9.74196e-13 0 8.13152e-14 1.47407e-13 0 0 0 0)
(-4.33681e-13 1.80917e-13 0 -1.0842e-13 -5.13417e-14 0 0 0 0)
(2.43945e-13 -6.41544e-14 0 0 -9.84307e-15 0 0 0 0)
(-5.42101e-14 2.44772e-15 0 -5.42101e-14 1.55853e-14 0 0 0 0)
(0 -8.66503e-16 0 -2.71051e-14 2.04461e-14 0 0 0 0)
(-5.42101e-14 -2.05819e-15 0 0 2.7071e-14 0 0 0 0)
(-2.71051e-14 -8.76048e-15 0 0 3.32849e-14 0 0 0 0)
(-5.42101e-14 -1.6353e-15 0 0 3.40157e-14 0 0 0 0)
(0 8.97564e-15 0 -5.42101e-14 4.7755e-15 0 0 0 0)
(0 2.29507e-14 0 -8.13152e-14 -1.66835e-14 0 0 0 0)
(5.42101e-14 2.80611e-14 0 -8.13152e-14 -2.04454e-14 0 0 0 0)
(0 5.73304e-15 0 -5.42101e-14 -1.93707e-14 0 0 0 0)
(0 -1.81018e-14 0 0 -4.68392e-15 0 0 0 0)
(2.71051e-14 -1.65294e-14 0 5.42101e-14 5.42669e-16 0 0 0 0)
(-2.71051e-14 3.42481e-16 0 0 3.83743e-15 0 0 0 0)
(0 5.04557e-15 0 -5.42101e-14 -2.01907e-14 0 0 0 0)
(2.71051e-14 -1.53753e-15 0 0 -2.45693e-14 0 0 0 0)
(5.42101e-14 -3.99346e-15 0 0 -5.82402e-15 0 0 0 0)
(0 7.44394e-15 0 2.71051e-14 2.63297e-15 0 0 0 0)
(1.40946e-12 -1.21343e-12 0 1.46367e-12 1.23431e-12 0 0 0 0)
(-1.5992e-12 1.40535e-12 0 -2.71051e-13 -2.71323e-13 0 0 0 0)
(3.52366e-13 -2.78871e-13 0 2.1684e-13 3.32876e-14 0 0 0 0)
(-1.0842e-13 6.6084e-14 0 2.71051e-14 -1.6134e-14 0 0 0 0)
(0 4.18296e-15 0 5.42101e-14 5.37988e-15 0 0 0 0)
(0 9.88198e-15 0 2.71051e-14 -3.80097e-15 0 0 0 0)
(0 1.01541e-14 0 2.71051e-14 2.66618e-16 0 0 0 0)
(0 1.14299e-14 0 5.42101e-14 2.01524e-14 0 0 0 0)
(-2.71051e-14 -8.5152e-15 0 1.35525e-13 2.4594e-14 0 0 0 0)
(-2.71051e-14 -2.77064e-14 0 1.0842e-13 1.94999e-14 0 0 0 0)
(-8.13152e-14 -1.81962e-14 0 1.89735e-13 1.01878e-14 0 0 0 0)
(0 3.32463e-15 0 1.35525e-13 -1.20976e-14 0 0 0 0)
(8.13152e-14 2.19416e-14 0 8.13152e-14 -2.35533e-14 0 0 0 0)
(5.42101e-14 2.09167e-14 0 5.42101e-14 -6.32251e-15 0 0 0 0)
(-2.71051e-14 3.51457e-15 0 5.42101e-14 1.43836e-14 0 0 0 0)
(-2.71051e-14 -2.102e-14 0 2.71051e-14 1.05333e-14 0 0 0 0)
(2.71051e-14 -2.39564e-14 0 1.0842e-13 -6.54017e-15 0 0 0 0)
(0 2.3577e-15 0 5.42101e-14 -5.11913e-15 0 0 0 0)
(0 1.80551e-14 0 0 3.49291e-15 0 0 0 0)
(-2.71051e-14 1.45062e-14 0 0 5.1945e-15 0 0 0 0)
(-7.58942e-13 1.7929e-12 0 -9.21572e-13 -5.12006e-13 0 0 0 0)
(9.48677e-13 -2.17522e-12 0 1.6263e-13 1.17419e-13 0 0 0 0)
(-1.35525e-13 4.36106e-13 0 -8.13152e-14 -3.02152e-14 0 0 0 0)
(2.71051e-14 -9.20621e-14 0 -2.71051e-14 2.18452e-14 0 0 0 0)
(-2.71051e-14 1.47807e-14 0 -2.71051e-14 1.62343e-15 0 0 0 0)
(0 -5.97976e-15 0 0 -1.47724e-15 0 0 0 0)
(0 2.18951e-14 0 -5.42101e-14 -5.24935e-15 0 0 0 0)
(0 1.55669e-14 0 -5.42101e-14 -1.61204e-14 0 0 0 0)
(5.42101e-14 -2.28772e-15 0 -2.71051e-14 -2.38144e-14 0 0 0 0)
(2.71051e-14 -5.43056e-15 0 0 6.65621e-16 0 0 0 0)
(0 -8.6469e-15 0 0 2.67072e-14 0 0 0 0)
(0 -5.68e-15 0 2.71051e-14 3.96726e-14 0 0 0 0)
(-5.42101e-14 1.15081e-14 0 -2.71051e-14 3.04691e-14 0 0 0 0)
(-2.71051e-14 1.98352e-14 0 -2.71051e-14 -2.13019e-15 0 0 0 0)
(0 3.26341e-16 0 -5.42101e-14 -1.37204e-14 0 0 0 0)
(2.71051e-14 -2.05813e-14 0 -2.71051e-14 -9.71063e-15 0 0 0 0)
(0 -1.06068e-14 0 0 2.10305e-14 0 0 0 0)
(-2.71051e-14 8.49555e-15 0 0 2.4214e-14 0 0 0 0)
(-2.71051e-14 6.32017e-15 0 0 1.74361e-14 0 0 0 0)
(-2.71051e-14 -1.24346e-15 0 -2.71051e-14 2.14474e-15 0 0 0 0)
(6.77626e-13 -1.60802e-12 0 4.33681e-13 -1.48318e-12 0 0 0 0)
(-7.58942e-13 1.88714e-12 0 -8.13152e-14 3.2911e-13 0 0 0 0)
(1.35525e-13 -3.74445e-13 0 0 -4.46308e-14 0 0 0 0)
(-5.42101e-14 9.79226e-14 0 -1.0842e-13 2.36641e-14 0 0 0 0)
(0 -1.91395e-14 0 -2.71051e-14 2.10849e-15 0 0 0 0)
(0 3.0092e-15 0 -1.0842e-13 1.55127e-14 0 0 0 0)
(-5.42101e-14 -4.48908e-15 0 -5.42101e-14 2.74001e-16 0 0 0 0)
(5.42101e-14 -7.1352e-15 0 -5.42101e-14 -2.12139e-14 0 0 0 0)
(2.71051e-14 8.2708e-15 0 -5.42101e-14 -9.69799e-15 0 0 0 0)
(-2.71051e-14 2.28152e-14 0 -1.0842e-13 2.3364e-15 0 0 0 0)
(0 2.08107e-14 0 -1.0842e-13 1.2325e-14 0 0 0 0)
(-5.42101e-14 7.08655e-15 0 -8.13152e-14 1.32847e-14 0 0 0 0)
(-2.71051e-14 -1.98611e-14 0 -5.42101e-14 1.58457e-14 0 0 0 0)
(2.71051e-14 -2.32727e-14 0 -2.71051e-14 -7.2603e-15 0 0 0 0)
(5.42101e-14 -4.06587e-15 0 0 -2.41975e-14 0 0 0 0)
(0 1.37308e-14 0 -5.42101e-14 -1.55387e-14 0 0 0 0)
(0 9.96826e-15 0 -5.42101e-14 5.94233e-15 0 0 0 0)
(-5.42101e-14 -1.23675e-15 0 -5.42101e-14 7.28161e-15 0 0 0 0)
(5.42101e-14 -4.01417e-15 0 -5.42101e-14 -8.94365e-15 0 0 0 0)
(0 -5.07463e-15 0 2.71051e-14 -7.74615e-15 0 0 0 0)
(-3.52366e-13 6.38832e-13 0 -7.86047e-13 3.06157e-12 0 0 0 0)
(4.87891e-13 -7.36668e-13 0 1.89735e-13 -5.30341e-13 0 0 0 0)
(-1.89735e-13 1.30659e-13 0 -5.42101e-14 1.519e-13 0 0 0 0)
(0 -4.53228e-14 0 5.42101e-14 -1.84244e-14 0 0 0 0)
(-2.71051e-14 6.62939e-15 0 2.71051e-14 1.53256e-14 0 0 0 0)
(0 -7.81425e-15 0 0 1.04534e-14 0 0 0 0)
(2.71051e-14 -1.48315e-14 0 5.42101e-14 6.69365e-16 0 0 0 0)
(0 5.59488e-15 0 0 1.31598e-15 0 0 0 0)
(0 2.12626e-14 0 -5.42101e-14 8.90844e-15 0 0 0 0)
(0 1.65924e-14 0 0 3.75057e-15 0 0 0 0)
(-2.71051e-14 2.30143e-15 0 -2.71051e-14 -6.1764e-15 0 0 0 0)
(8.13152e-14 -2.1593e-15 0 0 -2.50204e-14 0 0 0 0)
(0 -9.03688e-15 0 5.42101e-14 -2.69903e-14 0 0 0 0)
(0 -2.02081e-14 0 0 -1.97277e-15 0 0 0 0)
(0 -7.95203e-15 0 0 6.5975e-15 0 0 0 0)
(-5.42101e-14 9.55858e-15 0 5.42101e-14 9.09605e-15 0 0 0 0)
(5.42101e-14 1.22134e-14 0 0 -9.49843e-15 0 0 0 0)
(-5.42101e-14 -6.39044e-15 0 0 -4.05328e-15 0 0 0 0)
(5.42101e-14 -8.7076e-15 0 5.42101e-14 -7.79003e-15 0 0 0 0)
(0 1.54463e-14 0 0 -1.04716e-15 0 0 0 0)
(0 9.23205e-13 0 1.89735e-13 -4.68544e-13 0 0 0 0)
(-5.42101e-14 -1.02253e-12 0 -1.89735e-13 -3.83396e-14 0 0 0 0)
(8.13152e-14 1.37472e-13 0 -8.13152e-14 -1.38406e-14 0 0 0 0)
(2.71051e-14 -3.86518e-14 0 0 -9.52559e-15 0 0 0 0)
(0 9.73832e-15 0 -8.13152e-14 1.6773e-14 0 0 0 0)
(0 -1.1647e-14 0 5.42101e-14 1.18877e-14 0 0 0 0)
(-5.42101e-14 -1.36265e-14 0 -5.42101e-14 1.85305e-14 0 0 0 0)
(-5.42101e-14 1.10388e-15 0 -2.71051e-14 1.80572e-14 0 0 0 0)
(0 1.07054e-14 0 0 8.39628e-15 0 0 0 0)
(-2.71051e-14 7.73038e-15 0 -2.71051e-14 1.68367e-15 0 0 0 0)
(8.13152e-14 -7.96024e-15 0 2.71051e-14 -1.72258e-14 0 0 0 0)
(0 -1.37273e-14 0 0 -2.67513e-14 0 0 0 0)
(0 3.1865e-15 0 -5.42101e-14 -4.01921e-14 0 0 0 0)
(2.71051e-14 1.0315e-14 0 0 -2.07857e-14 0 0 0 0)
(0 7.00295e-15 0 -5.42101e-14 1.55459e-15 0 0 0 0)
(0 -2.36509e-15 0 0 8.23291e-15 0 0 0 0)
(0 -3.18107e-15 0 0 -1.23746e-16 0 0 0 0)
(0 4.71649e-16 0 -5.42101e-14 -7.54735e-15 0 0 0 0)
(2.71051e-14 -1.00805e-15 0 2.71051e-14 8.80404e-15 0 0 0 0)
(-5.42101e-14 3.76256e-15 0 0 8.26724e-15 0 0 0 0)
(-3.52366e-13 1.31949e-13 0 6.77626e-13 -5.42309e-12 0 0 0 0)
(2.1684e-13 -2.81965e-13 0 -2.71051e-14 1.01415e-12 0 0 0 0)
(0 1.59473e-13 0 1.6263e-13 -2.48357e-13 0 0 0 0)
(0 -1.47092e-14 0 5.42101e-14 4.83382e-14 0 0 0 0)
(5.42101e-14 2.80427e-14 0 8.13152e-14 -1.45991e-14 0 0 0 0)
(0 -6.05678e-15 0 5.42101e-14 -7.69053e-15 0 0 0 0)
(0 -8.662e-15 0 1.0842e-13 -1.3736e-15 0 0 0 0)
(0 -4.5393e-15 0 1.35525e-13 3.90604e-15 0 0 0 0)
(0 4.88906e-15 0 1.0842e-13 2.44863e-15 0 0 0 0)
(0 -9.02961e-15 0 1.35525e-13 -3.63632e-15 0 0 0 0)
(2.71051e-14 -2.61335e-14 0 1.0842e-13 -1.07175e-14 0 0 0 0)
(0 -2.51257e-14 0 5.42101e-14 -5.90849e-15 0 0 0 0)
(0 -3.07128e-15 0 8.13152e-14 9.86548e-16 0 0 0 0)
(0 2.15386e-14 0 2.71051e-14 -5.21264e-15 0 0 0 0)
(0 2.10666e-14 0 0 -8.38905e-15 0 0 0 0)
(0 7.88025e-15 0 2.71051e-14 -1.34921e-14 0 0 0 0)
(0 -3.56681e-15 0 0 -3.94397e-15 0 0 0 0)
(5.42101e-14 2.53735e-15 0 5.42101e-14 -6.04398e-15 0 0 0 0)
(0 7.10699e-15 0 -2.71051e-14 -3.71859e-16 0 0 0 0)
(0 -1.62493e-15 0 2.71051e-14 -8.01214e-16 0 0 0 0)
(6.23416e-13 -3.48574e-12 0 -3.79471e-13 4.04628e-12 0 0 0 0)
(-5.14996e-13 4.15221e-12 0 8.13152e-14 -6.92498e-13 0 0 0 0)
(1.35525e-13 -8.28343e-13 0 -8.13152e-14 1.76039e-13 0 0 0 0)
(-8.13152e-14 1.95106e-13 0 -5.42101e-14 -2.36282e-14 0 0 0 0)
(2.71051e-14 -4.62904e-14 0 -2.71051e-14 -4.35792e-15 0 0 0 0)
(0 1.57846e-15 0 -5.42101e-14 -5.38048e-15 0 0 0 0)
(0 -2.02989e-15 0 -5.42101e-14 1.20407e-16 0 0 0 0)
(-2.71051e-14 4.92611e-15 0 -5.42101e-14 5.31142e-15 0 0 0 0)
(0 3.16303e-15 0 -5.42101e-14 -2.664e-16 0 0 0 0)
(0 -5.43578e-15 0 -5.42101e-14 -2.74066e-15 0 0 0 0)
(2.71051e-14 -1.02324e-14 0 -5.42101e-14 1.4199e-14 0 0 0 0)
(-5.42101e-14 -2.02324e-15 0 -5.42101e-14 3.36253e-14 0 0 0 0)
(-5.42101e-14 3.88235e-15 0 -2.71051e-14 4.13479e-14 0 0 0 0)
(-2.71051e-14 9.3943e-16 0 -2.71051e-14 3.28142e-14 0 0 0 0)
(0 -1.27652e-15 0 5.42101e-14 1.88698e-14 0 0 0 0)
(-2.71051e-14 2.07999e-15 0 -2.71051e-14 1.30242e-14 0 0 0 0)
(-2.71051e-14 4.26705e-15 0 0 8.90959e-15 0 0 0 0)
(0 4.04376e-15 0 0 1.23239e-14 0 0 0 0)
(5.42101e-14 4.23472e-15 0 0 2.32849e-15 0 0 0 0)
(-5.42101e-14 4.93564e-15 0 -5.42101e-14 9.82214e-16 0 0 0 0)
)
;

boundaryField
{
    movingWall
    {
        type            extrapolatedCalculated;
        value           nonuniform List<tensor> 
20
(
(6.23416e-13 -3.48574e-12 0 -2.79776e-12 1.74255e-11 0 0 0 0)
(-5.14996e-13 4.15221e-12 0 2.66454e-13 -3.48259e-12 0 0 0 0)
(1.35525e-13 -8.28343e-13 0 -6.66134e-13 8.16696e-13 0 0 0 0)
(-8.13152e-14 1.95106e-13 0 -3.10862e-13 -1.69223e-13 0 0 0 0)
(2.71051e-14 -4.62904e-14 0 -3.10862e-13 3.62718e-14 0 0 0 0)
(0 1.57846e-15 0 -3.55271e-13 1.59389e-14 0 0 0 0)
(0 -2.02989e-15 0 -3.55271e-13 2.9958e-14 0 0 0 0)
(-2.71051e-14 4.92611e-15 0 -3.55271e-13 2.40584e-14 0 0 0 0)
(0 3.16303e-15 0 -3.10862e-13 1.02536e-14 0 0 0 0)
(0 -5.43578e-15 0 -3.10862e-13 1.14063e-14 0 0 0 0)
(2.71051e-14 -1.02324e-14 0 -3.55271e-13 3.19967e-14 0 0 0 0)
(-5.42101e-14 -2.02324e-15 0 -3.10862e-13 5.2336e-14 0 0 0 0)
(-5.42101e-14 3.88235e-15 0 -1.77636e-13 4.00897e-14 0 0 0 0)
(-2.71051e-14 9.3943e-16 0 -1.77636e-13 3.68066e-14 0 0 0 0)
(0 -1.27652e-15 0 -4.44089e-14 3.63319e-14 0 0 0 0)
(-2.71051e-14 2.07999e-15 0 -1.33227e-13 4.19127e-14 0 0 0 0)
(-2.71051e-14 4.26705e-15 0 0 2.8012e-14 0 0 0 0)
(0 4.04376e-15 0 0 2.48444e-14 0 0 0 0)
(5.42101e-14 4.23472e-15 0 0 1.1837e-14 0 0 0 0)
(-5.42101e-14 4.93564e-15 0 -1.33227e-13 7.90558e-15 0 0 0 0)
)
;
    }
    fixedWalls
    {
        type            extrapolatedCalculated;
        value           nonuniform List<tensor> 
60
(
(-1.86517e-12 1.79369e-11 0 1.30104e-12 9.43482e-12 0 0 0 0)
(7.01661e-12 1.98024e-11 0 -6.50521e-13 -1.41339e-11 0 0 0 0)
(-4.44089e-12 -3.85985e-11 0 -1.97867e-12 4.13683e-13 0 0 0 0)
(-9.76996e-13 2.14571e-11 0 -8.13152e-14 9.0073e-12 0 0 0 0)
(-4.79616e-12 -2.56936e-12 0 2.46656e-12 -6.75172e-12 0 0 0 0)
(9.05942e-12 -5.54974e-12 0 -3.79471e-13 2.51395e-12 0 0 0 0)
(-6.39488e-12 7.48644e-12 0 -9.75782e-13 2.64551e-13 0 0 0 0)
(5.10703e-12 -4.49154e-12 0 -6.77626e-13 -2.01425e-12 0 0 0 0)
(-8.9706e-12 -5.70546e-13 0 8.40257e-13 1.44973e-12 0 0 0 0)
(8.52651e-12 1.30738e-12 0 -2.98156e-13 6.94661e-13 0 0 0 0)
(-1.03029e-11 2.2081e-12 0 4.87891e-13 -8.06911e-13 0 0 0 0)
(1.04805e-11 -1.92026e-12 0 1.35525e-13 4.7549e-13 0 0 0 0)
(-9.68114e-12 4.11006e-12 0 -8.67362e-13 -1.00278e-12 0 0 0 0)
(6.9722e-12 -5.9314e-12 0 1.46367e-12 1.23431e-12 0 0 0 0)
(-3.81917e-12 9.04729e-12 0 -9.21572e-13 -5.12006e-13 0 0 0 0)
(3.37508e-12 -7.97942e-12 0 4.33681e-13 -1.48318e-12 0 0 0 0)
(-2.13163e-12 3.11457e-12 0 -7.86047e-13 3.06157e-12 0 0 0 0)
(1.33227e-13 4.26684e-12 0 1.89735e-13 -4.68544e-13 0 0 0 0)
(-1.33227e-12 1.2404e-12 0 6.77626e-13 -5.42309e-12 0 0 0 0)
(2.79776e-12 -1.74255e-11 0 -3.79471e-13 4.04628e-12 0 0 0 0)
(0 -1.19893e-14 0 0 2.07365e-15 0 0 0 0)
(8.88178e-14 3.69472e-15 0 0 -8.8872e-15 0 0 0 0)
(0 2.35595e-14 0 0 -1.68014e-16 0 0 0 0)
(-4.44089e-14 4.36678e-15 0 2.71051e-14 5.27399e-15 0 0 0 0)
(-4.44089e-14 2.4635e-15 0 -2.71051e-14 -3.22139e-15 0 0 0 0)
(0 1.72523e-14 0 0 -3.5045e-15 0 0 0 0)
(0 1.64815e-14 0 0 1.74086e-15 0 0 0 0)
(0 1.02889e-14 0 0 2.66487e-15 0 0 0 0)
(-4.44089e-14 5.82204e-15 0 2.71051e-14 1.10397e-15 0 0 0 0)
(0 5.87302e-15 0 0 1.94179e-16 0 0 0 0)
(-8.88178e-14 5.04532e-15 0 0 -3.43748e-15 0 0 0 0)
(0 1.96229e-14 0 -2.71051e-14 -3.46007e-15 0 0 0 0)
(0 1.88856e-14 0 2.71051e-14 2.63297e-15 0 0 0 0)
(-4.44089e-14 9.09104e-15 0 0 5.1945e-15 0 0 0 0)
(-4.44089e-14 -1.89237e-15 0 -2.71051e-14 2.14474e-15 0 0 0 0)
(0 5.12082e-16 0 2.71051e-14 -7.74615e-15 0 0 0 0)
(-4.44089e-14 2.90923e-14 0 0 -1.04716e-15 0 0 0 0)
(-8.88178e-14 4.70072e-15 0 0 8.26724e-15 0 0 0 0)
(0 -3.97672e-15 0 2.71051e-14 -8.01214e-16 0 0 0 0)
(-1.33227e-13 7.90558e-15 0 -5.42101e-14 9.82214e-16 0 0 0 0)
(-1.35525e-13 3.6081e-12 0 -1.86517e-12 1.79369e-11 0 0 0 0)
(6.23416e-13 -4.23605e-12 0 1.28786e-12 -3.50447e-12 0 0 0 0)
(-2.43945e-13 8.56533e-13 0 6.21725e-13 9.92668e-13 0 0 0 0)
(-5.42101e-14 -2.26034e-13 0 3.9968e-13 -7.83394e-14 0 0 0 0)
(-2.71051e-14 2.60107e-14 0 3.9968e-13 8.85309e-14 0 0 0 0)
(-2.71051e-14 -1.74141e-14 0 2.22045e-13 2.57036e-14 0 0 0 0)
(-5.42101e-14 -4.27369e-15 0 2.66454e-13 1.88745e-14 0 0 0 0)
(-2.71051e-14 4.66203e-15 0 1.33227e-13 8.60885e-15 0 0 0 0)
(0 1.00036e-14 0 1.33227e-13 3.75226e-14 0 0 0 0)
(-2.71051e-14 -8.56968e-15 0 4.44089e-14 4.86231e-14 0 0 0 0)
(0 -9.63836e-15 0 4.44089e-14 3.24389e-15 0 0 0 0)
(-2.71051e-14 5.58847e-15 0 0 1.00697e-14 0 0 0 0)
(0 8.39373e-15 0 4.44089e-14 2.55978e-14 0 0 0 0)
(0 1.85336e-15 0 0 4.36446e-14 0 0 0 0)
(0 -5.29494e-15 0 0 3.30112e-14 0 0 0 0)
(-5.42101e-14 -1.1133e-14 0 -8.88178e-14 2.24649e-14 0 0 0 0)
(5.42101e-14 -1.09038e-14 0 0 -1.15209e-14 0 0 0 0)
(0 -1.65612e-15 0 -8.88178e-14 -2.11502e-14 0 0 0 0)
(0 8.28487e-15 0 4.44089e-14 -1.81453e-14 0 0 0 0)
(0 1.53901e-15 0 0 1.19893e-14 0 0 0 0)
)
;
    }
    frontAndBack
    {
        type            empty;
    }
}


// ************************************************************************* //
