/*--------------------------------*- C++ -*----------------------------------*\
| =========                 |                                                 |
| \\      /  F ield         | OpenFOAM: The Open Source CFD Toolbox           |
|  \\    /   O peration     | Version:  2506                                  |
|   \\  /    A nd           | Website:  www.openfoam.com                      |
|    \\/     M anipulation  |                                                 |
\*---------------------------------------------------------------------------*/
FoamFile
{
    version     2.0;
    format      ascii;
    arch        "LSB;label=32;scalar=64";
    class       volScalarField;
    location    "5.375";
    object      Lambda2Field;
}
// * * * * * * * * * * * * * * * * * * * * * * * * * * * * * * * * * * * * * //

dimensions      [0 0 -2 0 0 0 0];

internalField   nonuniform List<scalar> 
400
(
4.71265e-24
1.30719e-24
1.75591e-25
-2.55144e-27
2.84975e-27
-2.09337e-28
8.91701e-28
4.81955e-28
0
1.19925e-27
5.22496e-28
0
-4.54342e-28
0
0
4.15308e-29
3.69575e-32
0
0
0
0
3.96061e-24
0
2.11125e-26
-7.99595e-27
-1.03156e-27
-4.71451e-28
0
4.95158e-28
0
-1.36523e-27
0
0
6.30756e-28
1.99028e-28
9.70483e-29
0
0
0
7.89823e-29
1.49827e-23
4.99375e-24
-7.48729e-26
1.72074e-28
-6.55051e-27
3.65408e-28
0
-4.50966e-28
2.07655e-27
1.24791e-27
3.03609e-28
-3.09255e-29
-1.88887e-27
1.58152e-28
1.68708e-28
2.46858e-29
6.78839e-29
4.21071e-28
2.32937e-30
0
0
0
6.61216e-27
-1.2168e-26
1.55124e-27
-9.75508e-28
-9.85411e-28
0
0
0
0
4.62277e-31
4.97269e-29
9.49528e-28
4.86097e-28
-2.6389e-29
-8.435e-28
0
0
2.48775e-28
0
8.79833e-25
1.19314e-26
4.35445e-27
6.73725e-28
4.11156e-29
-8.06812e-29
0
2.96566e-28
0
0
0
-5.87788e-28
0
-6.78998e-29
2.96772e-28
4.75956e-29
0
0
-1.14715e-28
3.82163e-24
3.91687e-25
0
2.06569e-27
0
1.09532e-28
4.32995e-29
2.09621e-29
7.97254e-28
4.21288e-28
-3.85889e-28
5.85583e-30
0
5.55524e-30
0
2.42775e-28
1.08827e-29
1.20889e-28
0
0
-4.1711e-26
0
0
3.98484e-27
0
5.32125e-28
-2.57744e-28
0
0
2.83679e-29
8.02002e-30
0
1.17819e-28
3.57115e-29
0
0
2.8404e-28
0
5.70842e-30
0
1.47849e-24
1.37031e-25
5.24177e-26
-1.6197e-27
1.83714e-27
2.27552e-29
0
-8.10517e-28
1.364e-27
1.08091e-28
-1.26939e-27
0
0
-6.3948e-28
0
0
6.73431e-29
1.79407e-29
0
0
1.94703e-24
7.89026e-26
1.23133e-26
4.09268e-28
9.77916e-30
-6.27922e-28
0
-2.88028e-28
3.20896e-28
7.91997e-29
6.05922e-28
5.90639e-28
0
1.75493e-28
4.00161e-28
-1.01746e-27
2.93836e-28
4.5528e-28
0
-8.33782e-29
3.94522e-25
2.69546e-26
5.16368e-28
7.22209e-28
-2.48586e-28
6.88897e-29
4.9692e-28
0
-7.33999e-29
0
4.44401e-28
4.5578e-28
1.84432e-28
0
0
0
-4.55808e-28
0
0
0
8.51553e-25
2.35929e-26
5.06613e-27
0
0
-7.88018e-28
0
5.57524e-28
9.07587e-29
1.91124e-28
5.87637e-28
6.97356e-28
4.21717e-28
-7.51216e-29
4.72832e-29
0
-5.98739e-28
-5.56342e-28
3.82813e-29
1.18163e-29
1.77565e-25
5.23956e-26
0
0
-6.80537e-28
0
0
0
-1.43309e-27
-1.23727e-27
0
-2.29116e-28
-2.45059e-28
0
5.44153e-28
7.9306e-29
-2.38239e-28
8.13833e-29
0
-2.94725e-28
2.85739e-25
0
0
9.6886e-29
1.10209e-28
2.34866e-29
7.32837e-28
7.34684e-28
1.15707e-27
-4.63765e-28
-1.5879e-27
0
0
0
-1.61379e-28
1.47259e-29
0
6.03653e-28
3.39192e-29
2.01768e-28
0
0
0
2.05151e-27
2.26759e-28
2.67852e-28
2.75226e-28
6.19614e-28
-4.19341e-28
-2.26925e-27
0
4.50571e-28
2.33894e-27
1.17387e-27
3.97413e-28
0
-1.86268e-27
1.27811e-28
0
2.69828e-29
-1.07629e-24
0
-1.70949e-26
2.97256e-27
0
0
-1.15938e-27
-5.84015e-28
6.29135e-28
4.43052e-31
0
0
6.16439e-28
0
0
6.52153e-28
0
5.8632e-28
3.04016e-28
3.83041e-29
0
0
1.99191e-27
-7.67805e-27
5.18777e-28
-8.56132e-29
2.43428e-28
8.36828e-28
0
-1.73895e-27
-2.1044e-27
0
1.32776e-27
6.83521e-28
5.85521e-28
-5.029e-28
-5.05069e-28
1.20066e-28
2.97598e-28
-7.75451e-29
0
9.82656e-26
1.59905e-26
-2.11749e-27
4.14563e-28
0
-6.93311e-29
0
-1.07328e-27
0
0
6.26021e-28
0
0
0
6.0091e-28
9.02201e-29
1.64291e-29
0
0
1.75165e-25
1.95479e-25
-4.5664e-27
9.07369e-29
-5.1054e-28
-4.90068e-28
1.08207e-27
2.96141e-28
0
0
8.09644e-29
0
0
4.32045e-28
-3.77214e-28
0
0
0
5.01877e-29
6.83473e-29
2.13574e-25
5.46625e-26
2.59352e-26
0
2.49343e-27
-2.69195e-28
-9.3725e-28
-5.99933e-28
5.30073e-28
-1.21052e-27
-2.09872e-27
-1.32715e-27
-2.48768e-28
5.83806e-28
0
2.13595e-28
0
1.7408e-28
-1.92497e-28
-4.3402e-29
1.71138e-24
6.02859e-25
8.57239e-26
-3.96457e-27
1.2737e-27
-5.66187e-29
1.10041e-28
0
-1.71397e-28
2.94674e-28
7.56312e-28
1.24034e-27
1.60442e-27
7.09221e-28
0
1.13251e-28
7.93808e-29
0
5.42186e-30
0
)
;

boundaryField
{
    movingWall
    {
        type            calculated;
        value           nonuniform List<scalar> 
20
(
1.01409e-23
1.37159e-24
5.70154e-25
-3.20148e-26
1.51246e-26
-3.06733e-28
7.21164e-28
-1.01542e-27
-8.78131e-28
1.68978e-27
4.36997e-27
3.368e-27
9.17537e-28
5.67808e-28
5.66889e-29
4.57574e-28
7.34684e-28
0
1.40114e-28
0
)
;
    }
    fixedWalls
    {
        type            calculated;
        value           nonuniform List<scalar> 
60
(
2.68155e-23
3.63509e-23
7.65449e-23
0
1.66657e-23
8.4259e-24
0
7.10077e-24
1.62231e-24
9.27516e-26
1.72842e-24
0
0
0
0
0
2.09564e-24
8.2732e-25
2.61547e-24
1.444e-23
0
7.89823e-29
0
1.46177e-28
0
0
0
0
1.59025e-28
0
1.18163e-29
-5.19909e-28
5.11896e-28
2.69828e-29
5.58926e-29
1.388e-29
1.09654e-30
6.83473e-29
-1.07147e-28
0
0
0
5.92037e-25
-8.42043e-26
1.11307e-26
-3.13203e-27
0
6.9522e-28
1.33274e-27
3.54114e-28
-4.17506e-28
1.01399e-28
3.72757e-28
0
0
1.49348e-27
1.32731e-28
1.47093e-28
3.67922e-28
0
)
;
    }
    frontAndBack
    {
        type            empty;
    }
}


// ************************************************************************* //
