/*--------------------------------*- C++ -*----------------------------------*\
| =========                 |                                                 |
| \\      /  F ield         | OpenFOAM: The Open Source CFD Toolbox           |
|  \\    /   O peration     | Version:  2506                                  |
|   \\  /    A nd           | Website:  www.openfoam.com                      |
|    \\/     M anipulation  |                                                 |
\*---------------------------------------------------------------------------*/
FoamFile
{
    version     2.0;
    format      ascii;
    arch        "LSB;label=32;scalar=64";
    class       volScalarField;
    location    "5.375";
    object      QField;
}
// * * * * * * * * * * * * * * * * * * * * * * * * * * * * * * * * * * * * * //

dimensions      [0 0 -2 0 0 0 0];

internalField   nonuniform List<scalar> 
400
(
-5.97294e-24
-2.09656e-24
-2.43805e-25
9.36807e-27
-3.14231e-27
2.97599e-28
-1.58527e-27
-5.19081e-28
0
-1.33544e-27
-5.22496e-28
3.76458e-28
4.55025e-28
0
0
-3.49354e-28
-1.04215e-29
0
0
0
-1.54445e-23
-6.19889e-24
-3.28572e-26
-2.11125e-26
9.51233e-27
2.17845e-27
1.07989e-27
1.58453e-28
-1.01029e-27
0
1.36626e-27
0
0
-2.04222e-27
-3.82391e-28
-2.6702e-28
2.30234e-28
1.11497e-28
2.16272e-28
-4.81776e-28
-1.51929e-23
-5.12026e-24
1.11557e-25
-1.06667e-27
1.20748e-26
-3.65408e-28
1.9209e-28
7.20384e-28
-4.94212e-27
-1.29039e-27
-4.09595e-28
5.91799e-28
1.93107e-27
-3.41717e-28
-7.04123e-28
-1.34671e-28
-2.23323e-28
-1.59148e-27
4.13685e-29
0
-1.61188e-24
-1.02696e-26
-3.61983e-26
3.27547e-26
-2.37241e-27
2.10455e-27
1.07813e-27
7.26306e-28
4.95018e-30
0
0
1.8429e-29
-4.97269e-29
-9.6885e-28
-6.24677e-28
3.84725e-28
1.40634e-27
0
3.80718e-28
-3.63912e-28
8.13579e-24
1.85291e-24
6.86105e-26
7.59508e-27
2.58468e-27
-1.73802e-28
5.83023e-28
0
-2.96566e-28
6.70024e-28
4.4327e-28
-6.61465e-29
6.4088e-28
1.70411e-28
6.84671e-29
-2.96772e-28
-1.86997e-28
2.02281e-28
0
1.25092e-28
4.20911e-24
7.68468e-25
7.17605e-26
1.87411e-27
1.30723e-27
-8.51024e-28
1.78358e-28
-1.24099e-28
-1.53175e-27
-5.56339e-28
3.86454e-28
-6.55911e-29
1.63742e-28
6.38854e-29
0
-8.44661e-28
-8.94167e-29
-2.98019e-28
0
0
1.14855e-24
1.95703e-25
7.12135e-26
-2.86553e-27
3.51938e-27
-4.45716e-28
1.12146e-27
1.94178e-27
-6.0297e-28
-1.44366e-28
-7.67605e-29
0
-2.94211e-28
-2.18971e-28
0
4.32194e-28
-4.66844e-28
1.4073e-28
-6.47602e-29
0
-2.48937e-24
-4.39445e-25
-6.47044e-26
7.30999e-27
-2.23981e-27
-2.27552e-29
-7.25912e-28
1.21685e-27
-2.01659e-27
-7.99948e-28
2.08378e-27
2.71144e-28
0
7.13583e-28
-2.21773e-28
1.62386e-27
-2.33885e-28
-1.14808e-28
0
0
-2.47808e-24
-5.99842e-25
-4.38162e-26
-2.74173e-27
-1.69524e-28
6.38378e-28
4.83706e-28
8.0765e-28
-8.83979e-28
4.82439e-28
6.67204e-28
-2.21521e-27
-1.58516e-28
-7.18141e-28
-1.62663e-27
1.02813e-27
-4.54518e-28
-1.00674e-27
0
8.4597e-29
1.25542e-24
1.77613e-25
1.47967e-26
-1.16138e-27
2.50738e-28
-2.21074e-28
-1.22403e-27
5.57933e-28
8.96932e-29
0
-1.8288e-27
-6.19028e-28
-1.10431e-27
2.83965e-28
5.11703e-28
1.11874e-27
5.37299e-28
0
0
0
1.54926e-24
3.53883e-25
1.56183e-26
3.81508e-27
-6.95676e-28
9.70286e-28
0
-1.26493e-27
-2.70454e-28
-1.91124e-28
-7.69617e-28
-6.97356e-28
-4.21717e-28
6.22862e-28
1.58441e-28
0
6.98286e-28
6.67743e-28
-1.67704e-28
9.3173e-29
1.09247e-24
8.53599e-26
1.7325e-26
1.15436e-27
1.33317e-27
-1.24519e-28
7.27694e-29
0
2.16612e-27
1.24645e-27
3.77361e-28
3.259e-28
3.35026e-28
5.43916e-29
-5.11733e-28
-2.41381e-28
2.41255e-28
-4.89044e-28
0
3.06697e-28
2.67683e-24
4.02849e-25
4.1881e-26
-2.40117e-27
-7.12187e-28
-2.34866e-29
-1.46752e-27
-9.02188e-28
-1.844e-27
4.8657e-28
1.86624e-27
1.17345e-27
3.10789e-28
0
9.10772e-28
-1.04014e-28
2.73521e-28
-6.65953e-28
-3.15721e-28
-2.01768e-28
3.51578e-24
8.14819e-25
7.22e-26
-4.19595e-29
-2.26759e-28
-2.67852e-28
-2.75226e-28
-6.19614e-28
4.87404e-28
2.47539e-27
2.62404e-27
-4.50571e-28
-3.69943e-27
-1.47664e-27
-5.80394e-28
2.84244e-28
2.42009e-27
-1.27811e-28
0
-1.40797e-28
2.04087e-24
4.65148e-25
3.95569e-26
-1.90323e-27
3.56629e-28
0
1.18694e-27
8.43882e-28
-1.35299e-27
1.80417e-29
0
1.53957e-28
-1.33981e-27
5.95372e-28
1.7691e-29
-8.21064e-28
0
-6.56323e-28
-4.72605e-28
-9.18374e-29
-3.07673e-25
-9.63225e-26
-6.04861e-27
9.33396e-27
-5.18777e-28
3.26258e-28
-2.58207e-28
-1.53681e-27
1.85496e-28
2.4103e-27
2.25631e-27
-1.43923e-28
-1.50617e-27
-8.276e-28
-1.31175e-27
7.4435e-28
5.4038e-28
-4.61781e-28
-7.02445e-28
1.37548e-28
-5.76639e-25
-1.18977e-25
-2.17377e-26
2.45695e-27
-5.9509e-28
0
8.22158e-28
0
1.15265e-27
0
2.29792e-28
-2.03454e-27
4.8989e-28
0
0
-1.01127e-27
-5.14911e-28
2.19729e-28
4.97416e-29
0
-1.75165e-25
-1.91931e-25
1.00531e-26
-2.58192e-28
7.91873e-28
6.31385e-28
-1.74323e-27
-9.4896e-28
0
1.63896e-28
-1.18495e-27
0
1.7274e-28
-5.63397e-28
3.79631e-28
0
0
2.55682e-29
2.65957e-28
-4.48168e-28
1.8215e-24
2.12267e-25
-2.59352e-26
7.97386e-28
-3.07171e-27
3.28339e-28
9.39136e-28
6.1519e-28
-5.30073e-28
1.22374e-27
2.5429e-27
1.36207e-27
2.49742e-28
-5.83806e-28
0
-2.13595e-28
0
-4.65195e-28
1.92635e-28
4.40439e-29
1.19978e-24
1.89959e-26
-4.34991e-26
1.24981e-26
-1.37283e-27
8.55683e-29
-1.10041e-28
1.23079e-28
1.71468e-28
-2.94674e-28
-1.69836e-28
-1.93251e-27
-2.13624e-27
-8.63968e-28
6.92004e-29
-2.96642e-28
-2.41495e-28
0
1.26228e-28
2.14315e-28
)
;

boundaryField
{
    movingWall
    {
        type            calculated;
        value           nonuniform List<scalar> 
20
(
1.1111e-24
6.87151e-25
-4.41104e-25
7.44116e-26
-1.34068e-26
5.6078e-28
-7.21164e-28
1.098e-27
9.83267e-28
-1.68978e-27
-2.76801e-27
-3.46609e-27
-1.48362e-27
-8.30768e-28
-5.66889e-29
-8.58935e-28
-7.59267e-28
0
6.41683e-28
2.28997e-28
)
;
    }
    fixedWalls
    {
        type            calculated;
        value           nonuniform List<scalar> 
60
(
-4.09342e-23
-8.62898e-23
-7.82109e-23
-7.05531e-24
3.87198e-23
2.0669e-23
5.61336e-24
-1.33304e-23
-1.25255e-23
6.31284e-24
7.23619e-24
5.24362e-24
1.3273e-23
1.72875e-23
1.02932e-23
-1.54532e-24
-4.07792e-24
-8.71993e-25
6.38448e-24
4.70806e-24
0
-7.89342e-28
0
-3.52574e-28
2.09832e-28
0
0
0
-2.06833e-28
0
3.05309e-28
5.31881e-28
-5.11896e-28
-2.30682e-28
-1.46538e-28
-1.388e-29
4.65033e-29
-7.34279e-28
1.07789e-28
2.97705e-28
4.29883e-24
3.27069e-24
-7.74685e-25
9.45882e-26
-1.27956e-26
3.17001e-27
1.15552e-28
-8.54451e-28
-1.33274e-27
-9.37363e-28
4.28029e-28
-2.7294e-28
-3.72757e-28
0
0
-2.20663e-27
-6.24548e-28
-1.47093e-28
-3.67922e-28
0
)
;
    }
    frontAndBack
    {
        type            empty;
    }
}


// ************************************************************************* //
