/*--------------------------------*- C++ -*----------------------------------*\
| =========                 |                                                 |
| \\      /  F ield         | OpenFOAM: The Open Source CFD Toolbox           |
|  \\    /   O peration     | Version:  2506                                  |
|   \\  /    A nd           | Website:  www.openfoam.com                      |
|    \\/     M anipulation  |                                                 |
\*---------------------------------------------------------------------------*/
FoamFile
{
    version     2.0;
    format      ascii;
    arch        "LSB;label=32;scalar=64";
    class       volVectorField;
    location    "5.375";
    object      U;
}
// * * * * * * * * * * * * * * * * * * * * * * * * * * * * * * * * * * * * * //

dimensions      [0 1 -1 0 0 0 0];

internalField   nonuniform List<vector> 
400
(
(-1 4.48421e-14 0)
(-1 -8.76118e-15 0)
(-1 2.48167e-15 0)
(-1 -1.95848e-16 0)
(-1 2.21327e-16 0)
(-1 6.4259e-17 0)
(-1 4.71862e-17 0)
(-1 2.15221e-17 0)
(-1 9.38065e-17 0)
(-1 1.21558e-16 0)
(-1 8.10973e-18 0)
(-1 2.51743e-17 0)
(-1 6.39944e-17 0)
(-1 1.09112e-16 0)
(-1 8.25281e-17 0)
(-1 5.61622e-17 0)
(-1 -2.88022e-17 0)
(-1 -5.28754e-17 0)
(-1 -4.53634e-17 0)
(-1 2.99733e-17 0)
(-1 4.9506e-14 0)
(-1 -1.01349e-14 0)
(-1 2.75404e-15 0)
(-1 -4.02084e-16 0)
(-1 1.57656e-16 0)
(-1 1.74229e-16 0)
(-1 2.87982e-16 0)
(-1 2.63226e-16 0)
(-1 2.94771e-16 0)
(-1 1.99737e-16 0)
(-1 -3.85668e-17 0)
(-1 -5.22935e-17 0)
(-1 -7.22602e-17 0)
(-1 -1.02094e-16 0)
(-1 -4.34615e-17 0)
(-1 8.28225e-18 0)
(-1 2.68798e-17 0)
(-1 5.07722e-17 0)
(-1 -5.53408e-17 0)
(-1 -9.23681e-18 0)
(-1 -9.64964e-14 0)
(-1 2.16399e-14 0)
(-1 -4.81502e-15 0)
(-1 1.18757e-15 0)
(-1 -4.10507e-17 0)
(-1 2.16336e-16 0)
(-1 9.37611e-17 0)
(-1 2.4754e-18 0)
(-1 -2.90707e-17 0)
(-1 1.49721e-18 0)
(-1 1.82663e-17 0)
(-1 3.60732e-17 0)
(-1 -5.23487e-17 0)
(-1 -1.42037e-16 0)
(-1 -5.85492e-17 0)
(-1 -4.23509e-17 0)
(-1 -2.87637e-17 0)
(-1 -1.17899e-17 0)
(-1 -5.52539e-17 0)
(-1 -5.88987e-17 0)
(-1 5.36429e-14 0)
(-1 -1.16742e-14 0)
(-1 2.71797e-15 0)
(-1 -5.33261e-16 0)
(-1 2.91446e-16 0)
(-1 1.42816e-17 0)
(-1 2.62564e-18 0)
(-1 -8.51587e-17 0)
(-1 -1.61793e-16 0)
(-1 -8.6985e-17 0)
(-1 8.81909e-18 0)
(-1 1.18314e-17 0)
(-1 -7.29268e-18 0)
(-1 3.01774e-17 0)
(-1 8.64263e-17 0)
(-1 5.7967e-17 0)
(-1 -5.5512e-17 0)
(-1 -1.36115e-16 0)
(-1 -7.06031e-17 0)
(-1 -1.09169e-17 0)
(-1 -6.42339e-15 0)
(-1 8.91087e-16 0)
(-1 -3.6341e-16 0)
(-1 -1.56344e-18 0)
(-1 -1.22982e-16 0)
(-1 -1.17494e-16 0)
(-1 -2.53139e-18 0)
(-1 3.29143e-17 0)
(-1 -6.87043e-17 0)
(-1 -7.64993e-17 0)
(-1 3.44003e-17 0)
(-1 4.28723e-17 0)
(-1 6.45714e-17 0)
(-1 1.21687e-16 0)
(-1 1.44126e-16 0)
(-1 1.46947e-16 0)
(-1 3.46366e-17 0)
(-1 -7.27975e-17 0)
(-1 -3.9992e-17 0)
(-1 -6.15876e-18 0)
(-1 -1.38743e-14 0)
(-1 2.68889e-15 0)
(-1 -6.08183e-16 0)
(-1 7.52428e-17 0)
(-1 -6.94123e-17 0)
(-1 -4.98399e-17 0)
(-1 -8.30933e-17 0)
(-1 -7.7702e-17 0)
(-1 -1.06983e-16 0)
(-1 -4.59991e-17 0)
(-1 8.40245e-17 0)
(-1 9.65774e-17 0)
(-1 6.5572e-17 0)
(-1 1.26417e-16 0)
(-1 9.39587e-17 0)
(-1 4.25457e-17 0)
(-1 1.34776e-17 0)
(-1 3.02412e-17 0)
(-1 -1.48676e-18 0)
(-1 -4.31308e-17 0)
(-1 1.87161e-14 0)
(-1 -3.71214e-15 0)
(-1 7.04614e-16 0)
(-1 -2.47602e-16 0)
(-1 -3.91507e-18 0)
(-1 -1.28366e-17 0)
(-1 -6.83338e-17 0)
(-1 7.86987e-17 0)
(-1 1.98002e-16 0)
(-1 1.28754e-16 0)
(-1 2.68809e-17 0)
(-1 1.86735e-17 0)
(-1 6.38398e-17 0)
(-1 1.45256e-16 0)
(-1 9.44176e-17 0)
(-1 -8.86588e-18 0)
(-1 1.64768e-18 0)
(-1 3.71522e-17 0)
(-1 1.12503e-17 0)
(-1 -4.12038e-17 0)
(-1 -1.12288e-14 0)
(-1 2.69163e-15 0)
(-1 -7.91943e-16 0)
(-1 1.95198e-16 0)
(-1 -3.26886e-17 0)
(-1 -2.10241e-17 0)
(-1 -3.5487e-17 0)
(-1 1.41576e-17 0)
(-1 5.43004e-17 0)
(-1 7.26244e-18 0)
(-1 1.12344e-16 0)
(-1 2.53721e-16 0)
(-1 1.74117e-16 0)
(-1 -1.55249e-17 0)
(-1 -7.9372e-17 0)
(-1 6.86339e-17 0)
(-1 1.39695e-16 0)
(-1 7.25588e-17 0)
(-1 2.24055e-17 0)
(-1 -2.57222e-17 0)
(-1 -1.42637e-15 0)
(-1 -4.14539e-16 0)
(-1 -6.13173e-18 0)
(-1 -1.34232e-16 0)
(-1 -9.27537e-17 0)
(-1 -1.26814e-17 0)
(-1 2.50062e-17 0)
(-1 -1.22877e-16 0)
(-1 -1.63651e-16 0)
(-1 -7.68543e-17 0)
(-1 5.62845e-17 0)
(-1 4.21836e-17 0)
(-1 -6.49145e-17 0)
(-1 -9.84551e-17 0)
(-1 -3.06511e-17 0)
(-1 7.16165e-17 0)
(-1 9.5786e-17 0)
(-1 7.95087e-17 0)
(-1 4.57659e-17 0)
(-1 -1.45551e-17 0)
(-1 3.26845e-15 0)
(-1 -3.15886e-16 0)
(-1 1.30794e-16 0)
(-1 -7.10574e-18 0)
(-1 -1.41693e-18 0)
(-1 -5.33587e-17 0)
(-1 -5.64551e-17 0)
(-1 -6.51863e-17 0)
(-1 -8.57533e-17 0)
(-1 -8.17318e-17 0)
(-1 -1.33811e-16 0)
(-1 -9.95018e-17 0)
(-1 4.23676e-18 0)
(-1 1.16949e-16 0)
(-1 1.20668e-16 0)
(-1 3.59818e-17 0)
(-1 -4.37772e-17 0)
(-1 -6.31323e-17 0)
(-1 -2.22203e-18 0)
(-1 -1.46826e-17 0)
(-1 5.52025e-15 0)
(-1 -1.4118e-15 0)
(-1 3.61743e-16 0)
(-1 -1.10796e-16 0)
(-1 -7.80852e-17 0)
(-1 -2.0432e-16 0)
(-1 -2.1853e-16 0)
(-1 -1.81725e-16 0)
(-1 -2.04016e-16 0)
(-1 -2.09567e-16 0)
(-1 -1.86388e-16 0)
(-1 -4.815e-17 0)
(-1 7.08914e-17 0)
(-1 2.96431e-17 0)
(-1 -3.8e-18 0)
(-1 3.13187e-17 0)
(-1 5.51411e-18 0)
(-1 -9.74922e-17 0)
(-1 -1.17663e-16 0)
(-1 -1.26133e-17 0)
(-1 -4.80066e-15 0)
(-1 1.22011e-15 0)
(-1 -2.61602e-16 0)
(-1 3.89793e-18 0)
(-1 -2.70032e-16 0)
(-1 -2.57164e-16 0)
(-1 -2.86069e-16 0)
(-1 -2.84011e-16 0)
(-1 -2.41218e-16 0)
(-1 -8.40696e-17 0)
(-1 -1.1289e-17 0)
(-1 -1.38227e-17 0)
(-1 4.8829e-17 0)
(-1 4.79788e-17 0)
(-1 5.88625e-17 0)
(-1 -2.08903e-18 0)
(-1 5.5996e-17 0)
(-1 4.24146e-17 0)
(-1 -6.40939e-17 0)
(-1 -4.90573e-17 0)
(-1 1.02751e-14 0)
(-1 -1.97599e-15 0)
(-1 5.33189e-16 0)
(-1 -1.6682e-16 0)
(-1 -1.08355e-16 0)
(-1 -1.42343e-16 0)
(-1 -1.1702e-16 0)
(-1 -1.62925e-16 0)
(-1 -2.04625e-16 0)
(-1 -1.79278e-16 0)
(-1 -1.14868e-16 0)
(-1 5.02289e-17 0)
(-1 1.65743e-16 0)
(-1 1.07559e-16 0)
(-1 -1.52749e-17 0)
(-1 -5.77352e-17 0)
(-1 -1.18501e-17 0)
(-1 -7.27949e-18 0)
(-1 -2.72254e-17 0)
(-1 -4.72141e-17 0)
(-1 -1.48285e-14 0)
(-1 2.69418e-15 0)
(-1 -7.75018e-16 0)
(-1 -9.45328e-17 0)
(-1 -1.14179e-16 0)
(-1 -5.27032e-17 0)
(-1 -1.53592e-17 0)
(-1 4.88374e-17 0)
(-1 9.89394e-17 0)
(-1 -3.63146e-17 0)
(-1 -1.78124e-16 0)
(-1 -2.18277e-16 0)
(-1 -1.44878e-16 0)
(-1 1.13957e-18 0)
(-1 6.42892e-17 0)
(-1 3.62853e-17 0)
(-1 -1.45911e-16 0)
(-1 -2.03279e-16 0)
(-1 -1.22334e-16 0)
(-1 -2.27276e-17 0)
(-1 2.26182e-14 0)
(-1 -4.68922e-15 0)
(-1 8.66065e-16 0)
(-1 -3.2816e-16 0)
(-1 -5.4556e-17 0)
(-1 -1.80353e-16 0)
(-1 -1.14354e-16 0)
(-1 3.85988e-17 0)
(-1 4.13151e-17 0)
(-1 1.57217e-17 0)
(-1 -1.29905e-17 0)
(-1 -7.07473e-17 0)
(-1 -6.97905e-17 0)
(-1 4.43341e-17 0)
(-1 1.28561e-16 0)
(-1 4.75976e-17 0)
(-1 -7.72518e-17 0)
(-1 -5.84707e-17 0)
(-1 7.70372e-18 0)
(-1 4.73092e-18 0)
(-1 -1.99486e-14 0)
(-1 3.86837e-15 0)
(-1 -1.07717e-15 0)
(-1 1.23919e-16 0)
(-1 -9.79447e-17 0)
(-1 -6.74756e-17 0)
(-1 -6.78527e-17 0)
(-1 -1.12366e-16 0)
(-1 -1.39205e-16 0)
(-1 -2.96584e-17 0)
(-1 8.89476e-17 0)
(-1 1.78449e-16 0)
(-1 1.59813e-16 0)
(-1 -2.01624e-17 0)
(-1 -7.29144e-17 0)
(-1 -6.0821e-17 0)
(-1 6.4394e-17 0)
(-1 3.88615e-17 0)
(-1 5.20265e-17 0)
(-1 -1.2802e-18 0)
(-1 7.78644e-15 0)
(-1 -1.39811e-15 0)
(-1 4.19757e-16 0)
(-1 -9.1519e-17 0)
(-1 -3.34711e-17 0)
(-1 -2.52252e-17 0)
(-1 -1.11614e-16 0)
(-1 -1.7354e-16 0)
(-1 -5.56648e-17 0)
(-1 3.90857e-17 0)
(-1 1.1026e-16 0)
(-1 6.21e-17 0)
(-1 8.86665e-17 0)
(-1 -2.82688e-17 0)
(-1 -1.13414e-16 0)
(-1 -1.07789e-16 0)
(-1 -1.78285e-17 0)
(-1 1.43454e-17 0)
(-1 -8.17328e-17 0)
(-1 -7.27306e-17 0)
(-1 1.06671e-14 0)
(-1 -1.43504e-15 0)
(-1 4.41829e-16 0)
(-1 -6.0325e-17 0)
(-1 5.5311e-17 0)
(-1 3.70582e-17 0)
(-1 -6.1159e-17 0)
(-1 -9.92065e-17 0)
(-1 -5.01202e-17 0)
(-1 7.84736e-18 0)
(-1 2.71836e-17 0)
(-1 -7.1755e-17 0)
(-1 -1.1009e-16 0)
(-1 -3.98901e-17 0)
(-1 -6.9394e-18 0)
(-1 3.01394e-17 0)
(-1 -3.05903e-17 0)
(-1 -1.67129e-18 0)
(-1 -2.58738e-17 0)
(-1 -1.17518e-17 0)
(-1 3.101e-15 0)
(-1 -1.78151e-15 0)
(-1 2.81351e-16 0)
(-1 -1.86775e-16 0)
(-1 1.34259e-16 0)
(-1 9.36519e-17 0)
(-1 7.3691e-17 0)
(-1 7.03187e-18 0)
(-1 2.8298e-17 0)
(-1 5.59224e-17 0)
(-1 -6.19982e-17 0)
(-1 -2.05413e-16 0)
(-1 -3.13255e-16 0)
(-1 -2.36126e-16 0)
(-1 -9.78684e-17 0)
(-1 -2.546e-17 0)
(-1 -1.90659e-17 0)
(-1 -6.11281e-17 0)
(-1 6.30753e-18 0)
(-1 9.94181e-18 0)
(-1 -4.35638e-14 0)
(-1 8.70649e-15 0)
(-1 -2.04174e-15 0)
(-1 4.23057e-16 0)
(-1 -9.06796e-17 0)
(-1 -3.98471e-17 0)
(-1 -7.48951e-17 0)
(-1 -6.01461e-17 0)
(-1 -2.5634e-17 0)
(-1 -2.85158e-17 0)
(-1 -7.99918e-17 0)
(-1 -1.3084e-16 0)
(-1 -1.00224e-16 0)
(-1 -9.20164e-17 0)
(-1 -9.08299e-17 0)
(-1 -1.04782e-16 0)
(-1 -7.003e-17 0)
(-1 -6.21111e-17 0)
(-1 -2.95924e-17 0)
(-1 -1.97639e-17 0)
)
;

boundaryField
{
    movingWall
    {
        type            fixedValue;
        value           uniform (-1 -0 -0);
    }
    fixedWalls
    {
        type            noSlip;
    }
    frontAndBack
    {
        type            empty;
    }
}


// ************************************************************************* //
