/*--------------------------------*- C++ -*----------------------------------*\
| =========                 |                                                 |
| \\      /  F ield         | OpenFOAM: The Open Source CFD Toolbox           |
|  \\    /   O peration     | Version:  2506                                  |
|   \\  /    A nd           | Website:  www.openfoam.com                      |
|    \\/     M anipulation  |                                                 |
\*---------------------------------------------------------------------------*/
FoamFile
{
    version     2.0;
    format      ascii;
    arch        "LSB;label=32;scalar=64";
    class       volVectorField;
    location    "5.375";
    object      vorticityField;
}
// * * * * * * * * * * * * * * * * * * * * * * * * * * * * * * * * * * * * * //

dimensions      [0 0 -1 0 0 0 0];

internalField   nonuniform List<vector> 
400
(
(0 -0 2.30705e-12)
(0 -0 -4.01921e-12)
(0 -0 7.21008e-13)
(0 -0 -2.53139e-13)
(0 -0 -5.53044e-14)
(0 -0 -7.16242e-14)
(0 -0 -5.84838e-14)
(0 -0 5.88721e-14)
(0 -0 1.00036e-14)
(0 -0 4.56404e-14)
(0 -0 4.45717e-14)
(0 -0 5.97986e-14)
(0 -0 6.26038e-14)
(0 -0 1.85336e-15)
(0 -0 -5.29494e-15)
(0 -0 -1.1133e-14)
(0 -0 -1.09038e-14)
(0 -0 -1.65612e-15)
(0 -0 8.28487e-15)
(0 -0 1.53901e-15)
(0 -0 4.58764e-12)
(0 -0 -4.51257e-12)
(0 -0 1.24433e-12)
(0 -0 -1.78323e-13)
(0 -0 2.47367e-13)
(0 -0 1.48558e-13)
(0 -0 1.44425e-13)
(0 -0 8.1994e-14)
(0 -0 4.78613e-14)
(0 -0 -3.33337e-14)
(0 -0 -7.94132e-14)
(0 -0 -3.36934e-15)
(0 -0 -4.98008e-15)
(0 -0 2.87987e-15)
(0 -0 1.10377e-14)
(0 -0 7.03412e-15)
(0 -0 5.84591e-14)
(0 -0 -3.53271e-14)
(0 -0 -3.3106e-14)
(0 -0 6.45776e-15)
(0 -0 -5.50698e-12)
(0 -0 8.62603e-12)
(0 -0 -2.09945e-12)
(0 -0 4.77396e-13)
(0 -0 -2.32649e-13)
(0 -0 -1.36239e-14)
(0 -0 -1.02701e-13)
(0 -0 -1.47808e-13)
(0 -0 -8.1413e-14)
(0 -0 -1.03687e-13)
(0 -0 -7.78576e-14)
(0 -0 -1.15482e-13)
(0 -0 -1.26231e-13)
(0 -0 -2.77251e-14)
(0 -0 9.9686e-15)
(0 -0 2.97855e-15)
(0 -0 3.0561e-15)
(0 -0 2.4456e-14)
(0 -0 -4.71088e-15)
(0 -0 1.14153e-14)
(0 -0 4.27818e-12)
(0 -0 -5.20091e-12)
(0 -0 1.11409e-12)
(0 -0 -3.51072e-13)
(0 -0 2.76492e-14)
(0 -0 -1.64407e-13)
(0 -0 -1.18364e-13)
(0 -0 -7.0652e-14)
(0 -0 -2.72877e-14)
(0 -0 1.70612e-14)
(0 -0 9.88164e-15)
(0 -0 -1.61118e-15)
(0 -0 -2.52705e-14)
(0 -0 -1.77332e-14)
(0 -0 -2.43261e-14)
(0 -0 -4.12989e-14)
(0 -0 -1.00723e-13)
(0 -0 -1.50911e-15)
(0 -0 3.96249e-14)
(0 -0 -1.89531e-14)
(0 -0 -3.01979e-12)
(0 -0 1.09389e-12)
(0 -0 -2.51895e-13)
(0 -0 -3.06222e-15)
(0 -0 -6.58032e-14)
(0 -0 1.2045e-14)
(0 -0 6.92509e-14)
(0 -0 -6.61729e-15)
(0 -0 1.61637e-14)
(0 -0 6.45206e-14)
(0 -0 6.61473e-14)
(0 -0 5.72272e-14)
(0 -0 8.91966e-14)
(0 -0 6.21656e-14)
(0 -0 2.9631e-14)
(0 -0 1.61561e-14)
(0 -0 -2.19744e-14)
(0 -0 -3.45679e-14)
(0 -0 6.66387e-15)
(0 -0 3.17201e-14)
(0 -0 -7.39075e-13)
(0 -0 1.19109e-12)
(0 -0 -3.69785e-13)
(0 -0 2.6772e-14)
(0 -0 -3.96133e-14)
(0 -0 -1.3681e-15)
(0 -0 -2.78621e-15)
(0 -0 -2.38897e-15)
(0 -0 -2.39348e-14)
(0 -0 1.91008e-14)
(0 -0 4.13627e-14)
(0 -0 -1.84526e-15)
(0 -0 5.7194e-14)
(0 -0 2.83867e-15)
(0 -0 -8.38709e-15)
(0 -0 -8.04811e-15)
(0 -0 -1.23045e-15)
(0 -0 -1.49644e-15)
(0 -0 -7.3372e-15)
(0 -0 4.46176e-15)
(0 -0 2.47618e-12)
(0 -0 -1.90957e-12)
(0 -0 5.36189e-13)
(0 -0 -1.66428e-14)
(0 -0 1.86107e-13)
(0 -0 7.48733e-14)
(0 -0 1.17574e-13)
(0 -0 8.08437e-14)
(0 -0 5.92156e-14)
(0 -0 -1.71121e-14)
(0 -0 -1.1008e-14)
(0 -0 3.6959e-15)
(0 -0 1.26583e-14)
(0 -0 5.72679e-14)
(0 -0 -1.54122e-14)
(0 -0 -6.34871e-14)
(0 -0 -2.25033e-14)
(0 -0 2.80653e-14)
(0 -0 -7.83559e-15)
(0 -0 2.99535e-15)
(0 -0 -1.76095e-13)
(0 -0 1.01658e-12)
(0 -0 -5.99074e-14)
(0 -0 1.84346e-13)
(0 -0 5.96929e-14)
(0 -0 8.10353e-14)
(0 -0 8.48333e-14)
(0 -0 1.44504e-13)
(0 -0 8.06256e-14)
(0 -0 6.00145e-14)
(0 -0 1.05961e-13)
(0 -0 6.03873e-14)
(0 -0 -2.69245e-14)
(0 -0 -7.9559e-14)
(0 -0 6.2626e-14)
(0 -0 7.61168e-14)
(0 -0 5.46026e-14)
(0 -0 -1.17289e-14)
(0 -0 -9.8281e-15)
(0 -0 3.31669e-16)
(0 -0 -1.02435e-12)
(0 -0 2.23339e-13)
(0 -0 -1.07495e-13)
(0 -0 -8.6622e-15)
(0 -0 1.21551e-14)
(0 -0 6.59861e-14)
(0 -0 -6.52297e-14)
(0 -0 -7.30758e-14)
(0 -0 -2.25027e-14)
(0 -0 2.19935e-14)
(0 -0 1.19038e-14)
(0 -0 -6.633e-14)
(0 -0 -6.8274e-14)
(0 -0 3.42634e-15)
(0 -0 1.70072e-14)
(0 -0 9.39589e-14)
(0 -0 5.49993e-14)
(0 -0 4.92081e-14)
(0 -0 -9.40637e-15)
(0 -0 -3.02261e-14)
(0 -0 5.93412e-13)
(0 -0 -2.59555e-13)
(0 -0 5.79831e-14)
(0 -0 4.0989e-14)
(0 -0 -5.88354e-14)
(0 -0 -5.97139e-14)
(0 -0 -8.24979e-14)
(0 -0 -3.00349e-14)
(0 -0 -5.58647e-14)
(0 -0 -4.80572e-15)
(0 -0 -8.30922e-14)
(0 -0 -1.33003e-14)
(0 -0 2.16451e-14)
(0 -0 6.58532e-14)
(0 -0 -6.23068e-14)
(0 -0 -9.77597e-14)
(0 -0 -6.41215e-14)
(0 -0 4.15552e-15)
(0 -0 4.84497e-15)
(0 -0 1.69046e-15)
(0 -0 -7.70468e-14)
(0 -0 -5.1585e-13)
(0 -0 1.02996e-13)
(0 -0 -1.25298e-13)
(0 -0 -9.06675e-14)
(0 -0 -1.22465e-13)
(0 -0 2.25947e-15)
(0 -0 -5.27587e-14)
(0 -0 -5.69943e-14)
(0 -0 -1.06657e-13)
(0 -0 -1.09633e-14)
(0 -0 -1.37714e-15)
(0 -0 -4.64308e-14)
(0 -0 -1.15889e-13)
(0 -0 -5.40425e-14)
(0 -0 9.31411e-16)
(0 -0 -6.70912e-14)
(0 -0 -6.65278e-14)
(0 -0 8.48789e-15)
(0 -0 1.30276e-14)
(0 -0 -4.9358e-13)
(0 -0 3.45486e-13)
(0 -0 -2.02937e-13)
(0 -0 -1.09263e-13)
(0 -0 -8.03163e-14)
(0 -0 -2.87088e-14)
(0 -0 -2.97898e-14)
(0 -0 4.48512e-15)
(0 -0 1.28414e-13)
(0 -0 7.7203e-14)
(0 -0 8.83399e-14)
(0 -0 6.02219e-14)
(0 -0 6.03903e-14)
(0 -0 5.52135e-14)
(0 -0 1.03413e-13)
(0 -0 -2.86653e-16)
(0 -0 5.86605e-14)
(0 -0 -1.2009e-14)
(0 -0 -9.14719e-15)
(0 -0 3.84202e-14)
(0 -0 1.69728e-12)
(0 -0 -1.05551e-12)
(0 -0 2.89337e-13)
(0 -0 -6.41544e-14)
(0 -0 5.66578e-14)
(0 -0 2.62386e-14)
(0 -0 -2.05819e-15)
(0 -0 -8.76048e-15)
(0 -0 -1.6353e-15)
(0 -0 6.31857e-14)
(0 -0 1.04266e-13)
(0 -0 1.09376e-13)
(0 -0 5.99431e-14)
(0 -0 -1.81018e-14)
(0 -0 -7.07396e-14)
(0 -0 3.42481e-16)
(0 -0 5.92557e-14)
(0 -0 -1.53753e-15)
(0 -0 -3.99346e-15)
(0 -0 -1.96611e-14)
(0 -0 -2.67711e-12)
(0 -0 1.6764e-12)
(0 -0 -4.95712e-13)
(0 -0 3.89789e-14)
(0 -0 -5.00272e-14)
(0 -0 -1.72231e-14)
(0 -0 -1.6951e-14)
(0 -0 -4.27802e-14)
(0 -0 -1.4404e-13)
(0 -0 -1.36127e-13)
(0 -0 -2.07932e-13)
(0 -0 -1.32201e-13)
(0 -0 -5.93736e-14)
(0 -0 -3.32934e-14)
(0 -0 -5.06955e-14)
(0 -0 -4.81251e-14)
(0 -0 -1.32377e-13)
(0 -0 -5.18524e-14)
(0 -0 1.80551e-14)
(0 -0 1.45062e-14)
(0 -0 2.71447e-12)
(0 -0 -2.33785e-12)
(0 -0 5.17421e-13)
(0 -0 -6.49571e-14)
(0 -0 4.18858e-14)
(0 -0 -5.97976e-15)
(0 -0 7.61053e-14)
(0 -0 6.9777e-14)
(0 -0 2.48173e-14)
(0 -0 -5.43056e-15)
(0 -0 -8.6469e-15)
(0 -0 -3.27851e-14)
(0 -0 3.86132e-14)
(0 -0 4.69402e-14)
(0 -0 5.45364e-14)
(0 -0 6.52377e-15)
(0 -0 -1.06068e-14)
(0 -0 8.49555e-15)
(0 -0 6.32017e-15)
(0 -0 2.58616e-14)
(0 -0 -2.0417e-12)
(0 -0 1.96845e-12)
(0 -0 -3.74445e-13)
(0 -0 2.06343e-13)
(0 -0 7.96555e-15)
(0 -0 1.11429e-13)
(0 -0 4.9721e-14)
(0 -0 4.70749e-14)
(0 -0 6.24809e-14)
(0 -0 1.31235e-13)
(0 -0 1.29231e-13)
(0 -0 8.84017e-14)
(0 -0 3.4349e-14)
(0 -0 3.83231e-15)
(0 -0 -4.06587e-15)
(0 -0 6.79409e-14)
(0 -0 6.41784e-14)
(0 -0 5.29734e-14)
(0 -0 5.01959e-14)
(0 -0 -3.21797e-14)
(0 -0 1.42488e-12)
(0 -0 -9.26403e-13)
(0 -0 1.84869e-13)
(0 -0 -9.95329e-14)
(0 -0 -2.04757e-14)
(0 -0 -7.81425e-15)
(0 -0 -6.90416e-14)
(0 -0 5.59488e-15)
(0 -0 7.54727e-14)
(0 -0 1.65924e-14)
(0 -0 2.94065e-14)
(0 -0 -2.1593e-15)
(0 -0 -6.3247e-14)
(0 -0 -2.02081e-14)
(0 -0 -7.95203e-15)
(0 -0 -4.46515e-14)
(0 -0 1.22134e-14)
(0 -0 -6.39044e-15)
(0 -0 -6.29177e-14)
(0 -0 1.54463e-14)
(0 -0 7.3347e-13)
(0 -0 -8.32791e-13)
(0 -0 2.18787e-13)
(0 -0 -3.86518e-14)
(0 -0 9.10535e-14)
(0 -0 -6.58571e-14)
(0 -0 4.05836e-14)
(0 -0 2.82089e-14)
(0 -0 1.07054e-14)
(0 -0 3.48354e-14)
(0 -0 -3.50653e-14)
(0 -0 -1.37273e-14)
(0 -0 5.73966e-14)
(0 -0 1.0315e-14)
(0 -0 6.12131e-14)
(0 -0 -2.36509e-15)
(0 -0 -3.18107e-15)
(0 -0 5.46818e-14)
(0 -0 -2.81131e-14)
(0 -0 3.76256e-15)
(0 -0 -5.45677e-13)
(0 -0 -2.5486e-13)
(0 -0 -3.15691e-15)
(0 -0 -6.89193e-14)
(0 -0 -5.32725e-14)
(0 -0 -6.02669e-14)
(0 -0 -1.17082e-13)
(0 -0 -1.40065e-13)
(0 -0 -1.03531e-13)
(0 -0 -1.44555e-13)
(0 -0 -1.34554e-13)
(0 -0 -7.93358e-14)
(0 -0 -8.43864e-14)
(0 -0 -5.56642e-15)
(0 -0 2.10666e-14)
(0 -0 -1.92248e-14)
(0 -0 -3.56681e-15)
(0 -0 -5.16728e-14)
(0 -0 3.4212e-14)
(0 -0 -2.873e-14)
(0 -0 -3.10627e-12)
(0 -0 4.0709e-12)
(0 -0 -7.47028e-13)
(0 -0 2.49316e-13)
(0 -0 -1.91854e-14)
(0 -0 5.57886e-14)
(0 -0 5.21802e-14)
(0 -0 5.91362e-14)
(0 -0 5.73731e-14)
(0 -0 4.87743e-14)
(0 -0 4.39777e-14)
(0 -0 5.21869e-14)
(0 -0 3.09874e-14)
(0 -0 2.80445e-14)
(0 -0 -5.54866e-14)
(0 -0 2.9185e-14)
(0 -0 4.26705e-15)
(0 -0 4.04376e-15)
(0 -0 4.23472e-15)
(0 -0 5.91457e-14)
)
;

boundaryField
{
    movingWall
    {
        type            calculated;
        value           nonuniform List<vector> 
20
(
(0 -0 -6.87974e-13)
(0 -0 3.88576e-12)
(0 -0 -1.62209e-13)
(0 -0 5.05969e-13)
(0 -0 2.64572e-13)
(0 -0 3.5685e-13)
(0 -0 3.53241e-13)
(0 -0 3.60197e-13)
(0 -0 3.14025e-13)
(0 -0 3.05427e-13)
(0 -0 3.45039e-13)
(0 -0 3.08839e-13)
(0 -0 1.81518e-13)
(0 -0 1.78575e-13)
(0 -0 4.31324e-14)
(0 -0 1.35307e-13)
(0 -0 4.26705e-15)
(0 -0 4.04376e-15)
(0 -0 4.23472e-15)
(0 -0 1.38162e-13)
)
;
    }
    fixedWalls
    {
        type            calculated;
        value           nonuniform List<vector> 
60
(
(0 -0 1.66358e-11)
(0 -0 2.04529e-11)
(0 -0 -3.66199e-11)
(0 -0 2.15385e-11)
(0 -0 -5.03592e-12)
(0 -0 -5.17027e-12)
(0 -0 8.46222e-12)
(0 -0 -3.81391e-12)
(0 -0 -1.4108e-12)
(0 -0 1.60554e-12)
(0 -0 1.72021e-12)
(0 -0 -2.05579e-12)
(0 -0 4.97742e-12)
(0 -0 -7.39507e-12)
(0 -0 9.96886e-12)
(0 -0 -8.41311e-12)
(0 -0 3.90062e-12)
(0 -0 4.0771e-12)
(0 -0 5.62774e-13)
(0 -0 -1.70461e-11)
(0 -0 -1.19893e-14)
(0 -0 3.69472e-15)
(0 -0 2.35595e-14)
(0 -0 -2.27383e-14)
(0 -0 2.95686e-14)
(0 -0 1.72523e-14)
(0 -0 1.64815e-14)
(0 -0 1.02889e-14)
(0 -0 -2.1283e-14)
(0 -0 5.87302e-15)
(0 -0 5.04532e-15)
(0 -0 4.6728e-14)
(0 -0 -8.21943e-15)
(0 -0 9.09104e-15)
(0 -0 2.52127e-14)
(0 -0 -2.6593e-14)
(0 -0 2.90923e-14)
(0 -0 4.70072e-15)
(0 -0 -3.10818e-14)
(0 -0 6.21157e-14)
(0 -0 5.47327e-12)
(0 -0 -5.52391e-12)
(0 -0 2.34808e-13)
(0 -0 -6.25714e-13)
(0 -0 -3.7367e-13)
(0 -0 -2.39459e-13)
(0 -0 -2.70727e-13)
(0 -0 -1.28565e-13)
(0 -0 -1.23223e-13)
(0 -0 -5.29786e-14)
(0 -0 -5.40473e-14)
(0 -0 5.58847e-15)
(0 -0 -3.60152e-14)
(0 -0 1.85336e-15)
(0 -0 -5.29494e-15)
(0 -0 7.76848e-14)
(0 -0 -1.09038e-14)
(0 -0 8.71617e-14)
(0 -0 -3.61241e-14)
(0 -0 1.53901e-15)
)
;
    }
    frontAndBack
    {
        type            empty;
    }
}


// ************************************************************************* //
