/*--------------------------------*- C++ -*----------------------------------*\
| =========                 |                                                 |
| \\      /  F ield         | OpenFOAM: The Open Source CFD Toolbox           |
|  \\    /   O peration     | Version:  2506                                  |
|   \\  /    A nd           | Website:  www.openfoam.com                      |
|    \\/     M anipulation  |                                                 |
\*---------------------------------------------------------------------------*/
FoamFile
{
    version     2.0;
    format      ascii;
    arch        "LSB;label=32;scalar=64";
    class       volScalarField;
    location    "5.375";
    object      zeroGradient(epsilon);
}
// * * * * * * * * * * * * * * * * * * * * * * * * * * * * * * * * * * * * * //

dimensions      [0 2 -3 0 0 0 0];

internalField   nonuniform List<scalar> 
400
(
6.47712e-06
6.47709e-06
6.47708e-06
6.47707e-06
6.47705e-06
6.47705e-06
6.47703e-06
6.47704e-06
6.47701e-06
6.47702e-06
6.477e-06
6.47701e-06
6.47699e-06
6.477e-06
6.47699e-06
6.477e-06
6.47699e-06
6.47699e-06
6.47699e-06
6.47699e-06
7.19809e-06
7.04664e-06
7.05905e-06
7.06409e-06
7.07442e-06
7.07968e-06
7.09007e-06
7.09549e-06
7.10594e-06
7.11154e-06
7.12204e-06
7.12785e-06
7.13836e-06
7.1444e-06
7.15493e-06
7.1612e-06
7.17174e-06
7.17824e-06
7.18354e-06
7.19212e-06
8.21838e-06
8.03497e-06
8.05021e-06
8.05637e-06
8.06901e-06
8.07538e-06
8.08808e-06
8.09461e-06
8.10736e-06
8.11407e-06
8.12685e-06
8.13377e-06
8.14654e-06
8.1537e-06
8.16644e-06
8.17385e-06
8.18657e-06
8.19423e-06
8.2006e-06
8.21083e-06
9.14027e-06
8.92828e-06
8.94584e-06
8.95294e-06
8.96751e-06
8.97486e-06
8.9895e-06
8.99704e-06
9.01174e-06
9.01949e-06
9.03423e-06
9.04222e-06
9.05696e-06
9.06523e-06
9.07994e-06
9.08851e-06
9.1032e-06
9.11206e-06
9.11941e-06
9.13123e-06
9.80132e-06
9.56792e-06
9.58721e-06
9.59501e-06
9.61101e-06
9.6191e-06
9.63519e-06
9.64347e-06
9.65964e-06
9.66816e-06
9.68436e-06
9.69316e-06
9.70936e-06
9.71848e-06
9.73466e-06
9.7441e-06
9.76025e-06
9.77002e-06
9.7781e-06
9.79112e-06
1.02177e-05
9.97054e-06
9.99094e-06
9.99919e-06
1.00161e-05
1.00247e-05
1.00417e-05
1.00505e-05
1.00676e-05
1.00766e-05
1.00937e-05
1.0103e-05
1.01202e-05
1.01298e-05
1.0147e-05
1.0157e-05
1.01741e-05
1.01844e-05
1.0193e-05
1.02068e-05
1.04651e-05
1.02097e-05
1.02307e-05
1.02393e-05
1.02567e-05
1.02656e-05
1.02831e-05
1.02922e-05
1.03099e-05
1.03192e-05
1.03369e-05
1.03465e-05
1.03642e-05
1.03742e-05
1.03919e-05
1.04022e-05
1.04199e-05
1.04306e-05
1.04394e-05
1.04537e-05
1.06134e-05
1.03531e-05
1.03745e-05
1.03832e-05
1.0401e-05
1.041e-05
1.04279e-05
1.04372e-05
1.04551e-05
1.04647e-05
1.04827e-05
1.04925e-05
1.05106e-05
1.05207e-05
1.05387e-05
1.05493e-05
1.05673e-05
1.05782e-05
1.05872e-05
1.06017e-05
1.07099e-05
1.04463e-05
1.04681e-05
1.04768e-05
1.04949e-05
1.0504e-05
1.05221e-05
1.05314e-05
1.05497e-05
1.05593e-05
1.05775e-05
1.05875e-05
1.06057e-05
1.0616e-05
1.06343e-05
1.0645e-05
1.06632e-05
1.06742e-05
1.06834e-05
1.06981e-05
1.07821e-05
1.05161e-05
1.0538e-05
1.05469e-05
1.05651e-05
1.05743e-05
1.05926e-05
1.0602e-05
1.06204e-05
1.06301e-05
1.06485e-05
1.06585e-05
1.0677e-05
1.06874e-05
1.07058e-05
1.07165e-05
1.07349e-05
1.07461e-05
1.07553e-05
1.07701e-05
1.08451e-05
1.0577e-05
1.0599e-05
1.0608e-05
1.06263e-05
1.06356e-05
1.0654e-05
1.06635e-05
1.0682e-05
1.06918e-05
1.07104e-05
1.07205e-05
1.0739e-05
1.07495e-05
1.07681e-05
1.07789e-05
1.07975e-05
1.08087e-05
1.0818e-05
1.08329e-05
1.09069e-05
1.06368e-05
1.0659e-05
1.0668e-05
1.06865e-05
1.06958e-05
1.07144e-05
1.07239e-05
1.07426e-05
1.07525e-05
1.07712e-05
1.07813e-05
1.08e-05
1.08106e-05
1.08293e-05
1.08402e-05
1.08589e-05
1.08702e-05
1.08796e-05
1.08946e-05
1.09724e-05
1.07001e-05
1.07225e-05
1.07316e-05
1.07502e-05
1.07596e-05
1.07783e-05
1.0788e-05
1.08068e-05
1.08167e-05
1.08356e-05
1.08458e-05
1.08647e-05
1.08753e-05
1.08942e-05
1.09052e-05
1.0924e-05
1.09354e-05
1.09449e-05
1.09601e-05
1.10449e-05
1.07702e-05
1.07928e-05
1.08019e-05
1.08207e-05
1.08302e-05
1.0849e-05
1.08588e-05
1.08777e-05
1.08878e-05
1.09068e-05
1.09172e-05
1.09362e-05
1.09469e-05
1.09659e-05
1.0977e-05
1.0996e-05
1.10075e-05
1.1017e-05
1.10324e-05
1.11267e-05
1.08492e-05
1.08721e-05
1.08813e-05
1.09003e-05
1.09098e-05
1.09289e-05
1.09387e-05
1.09579e-05
1.0968e-05
1.09872e-05
1.09977e-05
1.10169e-05
1.10277e-05
1.10469e-05
1.10581e-05
1.10773e-05
1.10889e-05
1.10985e-05
1.1114e-05
1.12192e-05
1.09387e-05
1.09617e-05
1.09711e-05
1.09902e-05
1.09999e-05
1.10192e-05
1.10291e-05
1.10485e-05
1.10587e-05
1.10781e-05
1.10887e-05
1.11081e-05
1.11191e-05
1.11385e-05
1.11498e-05
1.11692e-05
1.1181e-05
1.11907e-05
1.12063e-05
1.13206e-05
1.10367e-05
1.10601e-05
1.10695e-05
1.10889e-05
1.10987e-05
1.11182e-05
1.11282e-05
1.11478e-05
1.11582e-05
1.11778e-05
1.11885e-05
1.12082e-05
1.12193e-05
1.12389e-05
1.12504e-05
1.127e-05
1.12819e-05
1.12917e-05
1.13076e-05
1.14231e-05
1.11359e-05
1.11595e-05
1.1169e-05
1.11886e-05
1.11985e-05
1.12182e-05
1.12284e-05
1.12482e-05
1.12587e-05
1.12786e-05
1.12894e-05
1.13093e-05
1.13205e-05
1.13404e-05
1.1352e-05
1.13718e-05
1.13839e-05
1.13938e-05
1.14099e-05
1.151e-05
1.12259e-05
1.12488e-05
1.1258e-05
1.12772e-05
1.12869e-05
1.13062e-05
1.13162e-05
1.13356e-05
1.13461e-05
1.13656e-05
1.13765e-05
1.13961e-05
1.14074e-05
1.14271e-05
1.14389e-05
1.14586e-05
1.1471e-05
1.14808e-05
1.1497e-05
1.15484e-05
1.15483e-05
1.15483e-05
1.15483e-05
1.15482e-05
1.15483e-05
1.15482e-05
1.15482e-05
1.15481e-05
1.15482e-05
1.15481e-05
1.15481e-05
1.15481e-05
1.15481e-05
1.15481e-05
1.15481e-05
1.15481e-05
1.15481e-05
1.15481e-05
1.15481e-05
)
;

boundaryField
{
    movingWall
    {
        type            zeroGradient;
    }
    fixedWalls
    {
        type            zeroGradient;
    }
    frontAndBack
    {
        type            empty;
    }
}


// ************************************************************************* //
