/*--------------------------------*- C++ -*----------------------------------*\
| =========                 |                                                 |
| \\      /  F ield         | OpenFOAM: The Open Source CFD Toolbox           |
|  \\    /   O peration     | Version:  2506                                  |
|   \\  /    A nd           | Website:  www.openfoam.com                      |
|    \\/     M anipulation  |                                                 |
\*---------------------------------------------------------------------------*/
FoamFile
{
    version     2.0;
    format      ascii;
    arch        "LSB;label=32;scalar=64";
    class       volVectorField;
    location    "6.625";
    object      diffU;
}
// * * * * * * * * * * * * * * * * * * * * * * * * * * * * * * * * * * * * * //

dimensions      [0 1 -1 0 0 0 0];

internalField   nonuniform List<vector> 
400
(
(0 0 0)
(1.96509e-14 -1.6513e-13 0)
(1.46549e-14 -1.29077e-13 0)
(1.5099e-14 -1.37505e-13 0)
(1.46549e-14 -1.35829e-13 0)
(1.4766e-14 -1.36207e-13 0)
(1.4877e-14 -1.36086e-13 0)
(1.4766e-14 -1.36094e-13 0)
(1.46549e-14 -1.3606e-13 0)
(1.45439e-14 -1.35975e-13 0)
(1.44329e-14 -1.35961e-13 0)
(1.42109e-14 -1.35983e-13 0)
(1.39888e-14 -1.36154e-13 0)
(1.44329e-14 -1.36226e-13 0)
(1.42109e-14 -1.36247e-13 0)
(1.44329e-14 -1.36161e-13 0)
(1.42109e-14 -1.3609e-13 0)
(1.42109e-14 -1.3616e-13 0)
(1.42109e-14 -1.36187e-13 0)
(1.42109e-14 -1.36166e-13 0)
(3.86358e-14 -1.21547e-13 0)
(6.88338e-15 -1.39085e-13 0)
(1.42109e-14 -1.35018e-13 0)
(1.39888e-14 -1.36066e-13 0)
(1.42109e-14 -1.36041e-13 0)
(1.42109e-14 -1.36089e-13 0)
(1.39888e-14 -1.36075e-13 0)
(1.39888e-14 -1.36123e-13 0)
(1.42109e-14 -1.36055e-13 0)
(1.42109e-14 -1.35995e-13 0)
(1.42109e-14 -1.36041e-13 0)
(1.46549e-14 -1.3604e-13 0)
(1.46549e-14 -1.36156e-13 0)
(1.4766e-14 -1.36191e-13 0)
(1.45439e-14 -1.3622e-13 0)
(1.46549e-14 -1.36099e-13 0)
(1.46549e-14 -1.3594e-13 0)
(1.44329e-14 -1.36076e-13 0)
(1.44329e-14 -1.36244e-13 0)
(1.42109e-14 -1.36265e-13 0)
(1.17684e-14 -2.60569e-13 0)
(1.56541e-14 -1.08641e-13 0)
(1.45439e-14 -1.42454e-13 0)
(1.42109e-14 -1.34571e-13 0)
(1.45439e-14 -1.36319e-13 0)
(1.42109e-14 -1.35977e-13 0)
(1.39888e-14 -1.36113e-13 0)
(1.39888e-14 -1.3618e-13 0)
(1.37668e-14 -1.36202e-13 0)
(1.39888e-14 -1.3623e-13 0)
(1.42109e-14 -1.36223e-13 0)
(1.42109e-14 -1.36176e-13 0)
(1.39888e-14 -1.36182e-13 0)
(1.42109e-14 -1.36205e-13 0)
(1.39888e-14 -1.36222e-13 0)
(1.45439e-14 -1.36169e-13 0)
(1.42109e-14 -1.36055e-13 0)
(1.44329e-14 -1.36104e-13 0)
(1.44329e-14 -1.36257e-13 0)
(1.44329e-14 -1.36271e-13 0)
(-9.10383e-15 -4.58142e-14 0)
(2.05391e-14 -1.55388e-13 0)
(1.37668e-14 -1.31556e-13 0)
(1.52101e-14 -1.37084e-13 0)
(1.5099e-14 -1.35762e-13 0)
(1.53211e-14 -1.35961e-13 0)
(1.54321e-14 -1.35877e-13 0)
(1.53211e-14 -1.35922e-13 0)
(1.5099e-14 -1.36015e-13 0)
(1.4766e-14 -1.36175e-13 0)
(1.46549e-14 -1.36221e-13 0)
(1.46549e-14 -1.36203e-13 0)
(1.45439e-14 -1.36229e-13 0)
(1.4988e-14 -1.36314e-13 0)
(1.4766e-14 -1.36316e-13 0)
(1.4877e-14 -1.36215e-13 0)
(1.4877e-14 -1.36129e-13 0)
(1.46549e-14 -1.36077e-13 0)
(1.45439e-14 -1.36197e-13 0)
(1.44329e-14 -1.36202e-13 0)
(3.67484e-14 -1.38577e-13 0)
(7.32747e-15 -1.36156e-13 0)
(1.46549e-14 -1.36149e-13 0)
(1.35447e-14 -1.36186e-13 0)
(1.39888e-14 -1.36094e-13 0)
(1.37668e-14 -1.36087e-13 0)
(1.42109e-14 -1.36098e-13 0)
(1.45439e-14 -1.36073e-13 0)
(1.45439e-14 -1.36031e-13 0)
(1.5099e-14 -1.36096e-13 0)
(1.4988e-14 -1.36176e-13 0)
(1.4988e-14 -1.36257e-13 0)
(1.46549e-14 -1.36215e-13 0)
(1.46549e-14 -1.36249e-13 0)
(1.44329e-14 -1.36201e-13 0)
(1.42109e-14 -1.36087e-13 0)
(1.44329e-14 -1.36082e-13 0)
(1.42109e-14 -1.36059e-13 0)
(1.42109e-14 -1.36166e-13 0)
(1.45439e-14 -1.3622e-13 0)
(8.88178e-16 -2.27777e-13 0)
(1.88738e-14 -1.16067e-13 0)
(1.4877e-14 -1.40855e-13 0)
(1.5099e-14 -1.35119e-13 0)
(1.4877e-14 -1.36475e-13 0)
(1.5099e-14 -1.36271e-13 0)
(1.52101e-14 -1.363e-13 0)
(1.4988e-14 -1.36209e-13 0)
(1.4877e-14 -1.36277e-13 0)
(1.45439e-14 -1.36258e-13 0)
(1.4988e-14 -1.36143e-13 0)
(1.4766e-14 -1.3608e-13 0)
(1.45439e-14 -1.36091e-13 0)
(1.46549e-14 -1.36159e-13 0)
(1.44329e-14 -1.36107e-13 0)
(1.45439e-14 -1.36029e-13 0)
(1.45439e-14 -1.36157e-13 0)
(1.45439e-14 -1.36165e-13 0)
(1.46549e-14 -1.36121e-13 0)
(1.44329e-14 -1.36173e-13 0)
(1.65423e-14 -6.64587e-15 0)
(1.44329e-14 -1.63575e-13 0)
(1.4766e-14 -1.29608e-13 0)
(1.45439e-14 -1.37544e-13 0)
(1.42109e-14 -1.35892e-13 0)
(1.45439e-14 -1.36281e-13 0)
(1.42109e-14 -1.36023e-13 0)
(1.44329e-14 -1.35996e-13 0)
(1.46549e-14 -1.36083e-13 0)
(1.46549e-14 -1.36012e-13 0)
(1.42109e-14 -1.35945e-13 0)
(1.42109e-14 -1.36011e-13 0)
(1.42109e-14 -1.36214e-13 0)
(1.44329e-14 -1.36216e-13 0)
(1.42109e-14 -1.36047e-13 0)
(1.42109e-14 -1.36024e-13 0)
(1.45439e-14 -1.36114e-13 0)
(1.42109e-14 -1.3619e-13 0)
(1.45439e-14 -1.36103e-13 0)
(1.44329e-14 -1.36108e-13 0)
(1.92069e-14 -1.81326e-13 0)
(1.13243e-14 -1.26648e-13 0)
(1.31006e-14 -1.38448e-13 0)
(1.37668e-14 -1.3579e-13 0)
(1.39888e-14 -1.36323e-13 0)
(1.35447e-14 -1.36162e-13 0)
(1.35447e-14 -1.36212e-13 0)
(1.37668e-14 -1.36207e-13 0)
(1.35447e-14 -1.36154e-13 0)
(1.35447e-14 -1.36125e-13 0)
(1.39888e-14 -1.36063e-13 0)
(1.44329e-14 -1.36159e-13 0)
(1.45439e-14 -1.36217e-13 0)
(1.45439e-14 -1.36096e-13 0)
(1.42109e-14 -1.36016e-13 0)
(1.44329e-14 -1.36123e-13 0)
(1.44329e-14 -1.36149e-13 0)
(1.45439e-14 -1.36212e-13 0)
(1.44329e-14 -1.36159e-13 0)
(1.44329e-14 -1.36174e-13 0)
(1.55431e-14 -1.96043e-13 0)
(1.67644e-14 -1.23163e-13 0)
(1.62093e-14 -1.38993e-13 0)
(1.4766e-14 -1.35371e-13 0)
(1.4877e-14 -1.36192e-13 0)
(1.45439e-14 -1.35998e-13 0)
(1.4766e-14 -1.36129e-13 0)
(1.44329e-14 -1.36174e-13 0)
(1.46549e-14 -1.36156e-13 0)
(1.44329e-14 -1.36292e-13 0)
(1.39888e-14 -1.3639e-13 0)
(1.42109e-14 -1.36277e-13 0)
(1.39888e-14 -1.36061e-13 0)
(1.39888e-14 -1.3597e-13 0)
(1.42109e-14 -1.36174e-13 0)
(1.42109e-14 -1.3634e-13 0)
(1.46549e-14 -1.36209e-13 0)
(1.46549e-14 -1.36099e-13 0)
(1.45439e-14 -1.36063e-13 0)
(1.4766e-14 -1.36174e-13 0)
(1.22125e-14 -2.76083e-14 0)
(1.35447e-14 -1.59094e-13 0)
(1.37668e-14 -1.30581e-13 0)
(1.42109e-14 -1.37106e-13 0)
(1.39888e-14 -1.35752e-13 0)
(1.42109e-14 -1.36125e-13 0)
(1.42109e-14 -1.36104e-13 0)
(1.45439e-14 -1.3613e-13 0)
(1.45439e-14 -1.36003e-13 0)
(1.45439e-14 -1.35928e-13 0)
(1.44329e-14 -1.36018e-13 0)
(1.42109e-14 -1.36121e-13 0)
(1.39888e-14 -1.36091e-13 0)
(1.39888e-14 -1.36176e-13 0)
(1.44329e-14 -1.36379e-13 0)
(1.44329e-14 -1.36461e-13 0)
(1.42109e-14 -1.36229e-13 0)
(1.39888e-14 -1.3605e-13 0)
(1.44329e-14 -1.36143e-13 0)
(1.45439e-14 -1.36159e-13 0)
(9.32587e-15 -2.44415e-13 0)
(1.5099e-14 -1.12412e-13 0)
(1.37668e-14 -1.41656e-13 0)
(1.4766e-14 -1.34794e-13 0)
(1.45439e-14 -1.36301e-13 0)
(1.44329e-14 -1.36075e-13 0)
(1.44329e-14 -1.36241e-13 0)
(1.39888e-14 -1.36277e-13 0)
(1.42109e-14 -1.36245e-13 0)
(1.39888e-14 -1.36132e-13 0)
(1.42109e-14 -1.36022e-13 0)
(1.44329e-14 -1.36032e-13 0)
(1.45439e-14 -1.36092e-13 0)
(1.4877e-14 -1.36198e-13 0)
(1.4766e-14 -1.36254e-13 0)
(1.44329e-14 -1.36242e-13 0)
(1.39888e-14 -1.36292e-13 0)
(1.42109e-14 -1.36258e-13 0)
(1.44329e-14 -1.36292e-13 0)
(1.44329e-14 -1.36197e-13 0)
(1.84297e-14 -5.71827e-14 0)
(1.5099e-14 -1.53415e-13 0)
(1.53211e-14 -1.32158e-13 0)
(1.42109e-14 -1.36946e-13 0)
(1.4766e-14 -1.35753e-13 0)
(1.46549e-14 -1.35975e-13 0)
(1.4766e-14 -1.35833e-13 0)
(1.42109e-14 -1.35934e-13 0)
(1.42109e-14 -1.36114e-13 0)
(1.39888e-14 -1.36172e-13 0)
(1.42109e-14 -1.36262e-13 0)
(1.44329e-14 -1.36283e-13 0)
(1.42109e-14 -1.36334e-13 0)
(1.42109e-14 -1.36301e-13 0)
(1.45439e-14 -1.36201e-13 0)
(1.4766e-14 -1.36066e-13 0)
(1.4877e-14 -1.36241e-13 0)
(1.46549e-14 -1.36227e-13 0)
(1.44329e-14 -1.36116e-13 0)
(1.44329e-14 -1.36191e-13 0)
(1.28786e-14 -1.40829e-13 0)
(1.28786e-14 -1.35191e-13 0)
(1.33227e-14 -1.36297e-13 0)
(1.42109e-14 -1.3609e-13 0)
(1.39888e-14 -1.36069e-13 0)
(1.42109e-14 -1.35996e-13 0)
(1.39888e-14 -1.35952e-13 0)
(1.4766e-14 -1.3591e-13 0)
(1.45439e-14 -1.35954e-13 0)
(1.44329e-14 -1.36096e-13 0)
(1.46549e-14 -1.36225e-13 0)
(1.45439e-14 -1.36316e-13 0)
(1.4766e-14 -1.36336e-13 0)
(1.46549e-14 -1.36325e-13 0)
(1.45439e-14 -1.36288e-13 0)
(1.42109e-14 -1.36138e-13 0)
(1.44329e-14 -1.36121e-13 0)
(1.39888e-14 -1.36155e-13 0)
(1.44329e-14 -1.36183e-13 0)
(1.44329e-14 -1.36168e-13 0)
(1.63203e-14 -2.2024e-13 0)
(1.4877e-14 -1.17542e-13 0)
(1.53211e-14 -1.4031e-13 0)
(1.37668e-14 -1.35084e-13 0)
(1.42109e-14 -1.36357e-13 0)
(1.42109e-14 -1.36097e-13 0)
(1.44329e-14 -1.36271e-13 0)
(1.44329e-14 -1.36173e-13 0)
(1.44329e-14 -1.36124e-13 0)
(1.45439e-14 -1.36275e-13 0)
(1.4877e-14 -1.36293e-13 0)
(1.4766e-14 -1.3628e-13 0)
(1.4766e-14 -1.36221e-13 0)
(1.4766e-14 -1.36167e-13 0)
(1.45439e-14 -1.36161e-13 0)
(1.45439e-14 -1.36119e-13 0)
(1.46549e-14 -1.35977e-13 0)
(1.4766e-14 -1.36132e-13 0)
(1.45439e-14 -1.36301e-13 0)
(1.45439e-14 -1.36205e-13 0)
(1.9984e-15 -5.70152e-15 0)
(1.73195e-14 -1.64017e-13 0)
(1.33227e-14 -1.29377e-13 0)
(1.46549e-14 -1.37416e-13 0)
(1.45439e-14 -1.35787e-13 0)
(1.45439e-14 -1.36168e-13 0)
(1.44329e-14 -1.36118e-13 0)
(1.42109e-14 -1.36187e-13 0)
(1.44329e-14 -1.36307e-13 0)
(1.44329e-14 -1.36367e-13 0)
(1.44329e-14 -1.36299e-13 0)
(1.44329e-14 -1.36238e-13 0)
(1.39888e-14 -1.36227e-13 0)
(1.39888e-14 -1.36197e-13 0)
(1.42109e-14 -1.36146e-13 0)
(1.42109e-14 -1.36191e-13 0)
(1.42109e-14 -1.35998e-13 0)
(1.44329e-14 -1.36011e-13 0)
(1.45439e-14 -1.3622e-13 0)
(1.44329e-14 -1.36229e-13 0)
(3.28626e-14 -2.13198e-13 0)
(9.54792e-15 -1.19432e-13 0)
(1.46549e-14 -1.39897e-13 0)
(1.44329e-14 -1.3532e-13 0)
(1.45439e-14 -1.36373e-13 0)
(1.4877e-14 -1.3608e-13 0)
(1.46549e-14 -1.36071e-13 0)
(1.4877e-14 -1.3624e-13 0)
(1.5099e-14 -1.36368e-13 0)
(1.46549e-14 -1.36287e-13 0)
(1.46549e-14 -1.36222e-13 0)
(1.45439e-14 -1.36182e-13 0)
(1.46549e-14 -1.36192e-13 0)
(1.45439e-14 -1.36185e-13 0)
(1.45439e-14 -1.36089e-13 0)
(1.46549e-14 -1.36071e-13 0)
(1.42109e-14 -1.36155e-13 0)
(1.44329e-14 -1.36199e-13 0)
(1.45439e-14 -1.36216e-13 0)
(1.44329e-14 -1.36166e-13 0)
(-6.21725e-15 -1.71712e-13 0)
(2.0095e-14 -1.28912e-13 0)
(1.42109e-14 -1.38012e-13 0)
(1.4877e-14 -1.35894e-13 0)
(1.45439e-14 -1.36353e-13 0)
(1.42109e-14 -1.36247e-13 0)
(1.44329e-14 -1.36218e-13 0)
(1.45439e-14 -1.36258e-13 0)
(1.44329e-14 -1.36269e-13 0)
(1.44329e-14 -1.36247e-13 0)
(1.45439e-14 -1.36247e-13 0)
(1.45439e-14 -1.36215e-13 0)
(1.44329e-14 -1.36147e-13 0)
(1.44329e-14 -1.36095e-13 0)
(1.44329e-14 -1.36015e-13 0)
(1.46549e-14 -1.35907e-13 0)
(1.45439e-14 -1.36107e-13 0)
(1.44329e-14 -1.36189e-13 0)
(1.46549e-14 -1.36099e-13 0)
(1.46549e-14 -1.36129e-13 0)
(1.42109e-14 -2.31627e-14 0)
(1.46549e-14 -1.60456e-13 0)
(1.44329e-14 -1.30177e-13 0)
(1.44329e-14 -1.37145e-13 0)
(1.42109e-14 -1.35701e-13 0)
(1.42109e-14 -1.3621e-13 0)
(1.42109e-14 -1.36226e-13 0)
(1.42109e-14 -1.36234e-13 0)
(1.42109e-14 -1.36241e-13 0)
(1.39888e-14 -1.36319e-13 0)
(1.37668e-14 -1.36353e-13 0)
(1.35447e-14 -1.36239e-13 0)
(1.37668e-14 -1.36157e-13 0)
(1.39888e-14 -1.36129e-13 0)
(1.42109e-14 -1.36216e-13 0)
(1.42109e-14 -1.36231e-13 0)
(1.45439e-14 -1.36152e-13 0)
(1.45439e-14 -1.36083e-13 0)
(1.44329e-14 -1.36032e-13 0)
(1.44329e-14 -1.36132e-13 0)
(4.13003e-14 -1.74674e-13 0)
(7.32747e-15 -1.27897e-13 0)
(1.4988e-14 -1.37971e-13 0)
(1.42109e-14 -1.35596e-13 0)
(1.45439e-14 -1.36133e-13 0)
(1.45439e-14 -1.36093e-13 0)
(1.45439e-14 -1.3621e-13 0)
(1.45439e-14 -1.36188e-13 0)
(1.46549e-14 -1.36179e-13 0)
(1.46549e-14 -1.36171e-13 0)
(1.44329e-14 -1.36229e-13 0)
(1.45439e-14 -1.36292e-13 0)
(1.44329e-14 -1.36261e-13 0)
(1.45439e-14 -1.3622e-13 0)
(1.45439e-14 -1.36274e-13 0)
(1.42109e-14 -1.36317e-13 0)
(1.44329e-14 -1.36222e-13 0)
(1.42109e-14 -1.36165e-13 0)
(1.45439e-14 -1.36071e-13 0)
(1.46549e-14 -1.361e-13 0)
(2.22045e-15 -2.2315e-13 0)
(1.84297e-14 -1.1756e-13 0)
(1.5099e-14 -1.40676e-13 0)
(1.4988e-14 -1.35284e-13 0)
(1.52101e-14 -1.36433e-13 0)
(1.5099e-14 -1.36154e-13 0)
(1.4877e-14 -1.36216e-13 0)
(1.5099e-14 -1.36159e-13 0)
(1.4877e-14 -1.36131e-13 0)
(1.4766e-14 -1.36082e-13 0)
(1.4877e-14 -1.361e-13 0)
(1.4766e-14 -1.36208e-13 0)
(1.4766e-14 -1.36201e-13 0)
(1.46549e-14 -1.36185e-13 0)
(1.45439e-14 -1.36164e-13 0)
(1.46549e-14 -1.36166e-13 0)
(1.42109e-14 -1.36166e-13 0)
(1.44329e-14 -1.3617e-13 0)
(1.42109e-14 -1.36113e-13 0)
(1.44329e-14 -1.36095e-13 0)
)
;

boundaryField
{
    movingWall
    {
        type            calculated;
        value           uniform (1.44329e-14 -1.36135e-13 0);
    }
    fixedWalls
    {
        type            calculated;
        value           uniform (1.44329e-14 -1.36135e-13 0);
    }
    frontAndBack
    {
        type            empty;
    }
}


// ************************************************************************* //
