/*--------------------------------*- C++ -*----------------------------------*\
| =========                 |                                                 |
| \\      /  F ield         | OpenFOAM: The Open Source CFD Toolbox           |
|  \\    /   O peration     | Version:  2506                                  |
|   \\  /    A nd           | Website:  www.openfoam.com                      |
|    \\/     M anipulation  |                                                 |
\*---------------------------------------------------------------------------*/
FoamFile
{
    version     2.0;
    format      ascii;
    arch        "LSB;label=32;scalar=64";
    class       volScalarField;
    location    "6.625";
    object      divU;
}
// * * * * * * * * * * * * * * * * * * * * * * * * * * * * * * * * * * * * * //

dimensions      [0 0 -1 0 0 0 0];

internalField   nonuniform List<scalar> 
400
(
1.41488e-11
-1.73094e-12
3.56645e-13
-1.30153e-13
1.28876e-14
2.44569e-14
-1.63287e-14
5.19097e-15
1.54535e-14
2.81691e-15
-3.75321e-16
-5.67386e-14
2.30551e-14
-1.48316e-14
-1.98059e-14
5.51279e-14
-3.03457e-14
3.29489e-15
-1.61293e-14
2.71051e-14
-2.43674e-11
3.21326e-12
-6.28644e-13
3.25911e-13
-3.60912e-14
2.03916e-14
-1.90127e-14
-3.43565e-15
1.23126e-15
-2.26608e-14
2.76112e-14
3.24122e-14
-6.84045e-15
1.43796e-14
9.77332e-15
1.20844e-16
-2.68011e-14
-1.81852e-14
-5.02498e-14
5.42101e-14
7.42678e-12
-1.37151e-12
2.05454e-13
-1.01208e-13
1.88394e-14
-7.52974e-14
2.78987e-14
1.67402e-14
5.21852e-15
-1.35853e-14
9.61254e-15
-1.09441e-14
-4.12135e-14
2.14197e-15
2.16516e-16
4.27376e-14
-1.86135e-14
8.897e-15
8.60747e-15
0
1.04354e-11
-4.63796e-13
7.70367e-14
8.31795e-15
1.4206e-14
2.21305e-14
2.26988e-15
-2.67476e-14
-3.19419e-14
-2.73232e-14
1.43129e-14
-1.90336e-14
9.67904e-15
2.48775e-14
-2.47225e-14
2.37886e-14
-2.13602e-14
-1.37726e-14
-9.34605e-15
0
-1.66696e-11
1.67942e-12
-2.83725e-13
1.23529e-13
-2.99556e-14
-3.59613e-14
4.13213e-14
-1.28014e-15
2.32166e-14
4.57387e-14
-3.20309e-14
-6.75207e-15
-3.64797e-15
-1.38535e-14
-3.81096e-15
-3.8911e-14
2.97088e-15
4.5415e-15
5.24763e-14
2.71051e-14
1.22786e-11
-1.33355e-12
2.61967e-13
-1.47756e-13
1.73024e-14
2.58922e-14
-3.24421e-14
-2.06297e-14
-6.32016e-14
-5.0972e-17
4.52744e-14
-9.32303e-15
-3.57722e-15
-1.05883e-14
1.15529e-14
-5.48047e-15
-2.26305e-16
1.85993e-14
-2.26172e-14
-2.71051e-14
4.8518e-12
-1.22615e-12
2.31632e-13
-1.33558e-13
5.44939e-15
9.7347e-15
3.48538e-15
3.37624e-14
3.0424e-14
-4.09395e-14
-5.52336e-14
-1.71731e-14
3.80705e-14
-4.25446e-15
-3.36021e-14
3.93534e-14
5.51078e-16
-1.32852e-14
7.18815e-16
0
-1.87567e-11
3.41132e-12
-7.33971e-13
3.00601e-13
-2.44714e-14
-1.61468e-14
-7.17714e-15
4.29772e-14
-5.81962e-14
3.9537e-14
3.57787e-14
6.46809e-14
2.62635e-14
-6.7208e-15
-1.92242e-14
-1.93767e-14
-8.92826e-15
-4.16339e-15
4.78711e-15
0
1.56938e-11
-3.14007e-12
5.67704e-13
-2.91781e-13
5.96503e-14
1.46069e-14
3.6247e-15
-3.05904e-14
1.10972e-14
-4.92761e-14
1.32528e-14
-1.29053e-14
1.16988e-14
-1.48037e-14
-1.26304e-15
2.80753e-14
3.73638e-14
-1.4993e-14
3.3479e-14
-5.42101e-14
-5.12286e-12
1.24187e-12
-2.1368e-13
6.40306e-14
2.16357e-14
-2.01504e-14
4.66592e-14
1.33848e-14
2.18263e-15
2.08493e-14
-3.12498e-14
-1.55443e-14
8.62008e-15
1.66034e-14
4.49367e-14
-4.34419e-14
1.94973e-15
-3.86205e-15
6.48093e-14
-2.71051e-14
-3.38813e-12
9.96596e-13
-2.08704e-13
1.34237e-13
-3.25998e-14
-5.1708e-15
-3.46742e-14
5.81069e-15
-8.95186e-15
-3.06489e-14
5.27554e-14
2.24613e-14
1.1422e-14
4.12798e-15
-1.86033e-14
-5.81519e-14
-2.63644e-14
5.97603e-14
1.3235e-14
0
1.08149e-11
-2.58232e-12
4.35663e-13
-1.85098e-13
7.18395e-14
2.66599e-15
-3.28733e-14
-1.16968e-14
-7.00028e-15
9.92738e-17
5.36313e-15
-3.30222e-14
-1.29535e-14
4.56369e-14
5.93041e-14
6.48543e-15
1.78496e-14
-1.12278e-14
-3.05831e-15
0
-1.66154e-11
3.60706e-12
-6.77754e-13
2.45083e-13
-4.27861e-14
-3.66168e-14
3.17166e-14
1.86979e-14
-6.21595e-14
1.69909e-14
2.20055e-15
2.15311e-14
-1.61996e-15
4.80922e-15
-4.50586e-14
1.19821e-15
-3.70511e-14
-1.79829e-15
3.27166e-14
0
1.37423e-11
-2.96188e-12
5.83459e-13
-2.39881e-13
6.67856e-14
-2.67345e-14
4.22199e-14
-3.61424e-14
-1.6128e-14
-1.00815e-14
-5.17433e-15
2.28521e-15
9.28622e-15
1.75849e-14
-3.67543e-15
2.30568e-14
2.39003e-15
1.25746e-14
-2.51327e-14
-5.42101e-14
-2.71051e-13
9.69149e-13
-2.42608e-13
1.15921e-13
-1.61205e-14
2.13314e-15
-7.32983e-14
-1.57844e-14
4.0719e-14
-1.13185e-14
1.93503e-15
-4.21389e-14
-1.48855e-14
1.58025e-14
3.45745e-15
7.86546e-16
3.87899e-14
3.30362e-14
-1.66232e-14
2.71051e-14
-1.52601e-11
1.71491e-12
-4.01371e-13
1.32642e-13
8.60834e-15
-5.69494e-15
-1.98342e-15
5.84215e-14
-3.68161e-14
-2.65041e-14
-1.99903e-14
1.42835e-14
4.72709e-14
-2.82136e-14
4.36167e-14
-2.51069e-14
7.37042e-16
1.53205e-14
-4.52605e-15
0
1.75099e-11
-2.0351e-12
4.62277e-13
-1.58273e-13
2.15212e-14
-1.87515e-14
-1.74506e-14
4.7851e-15
2.97626e-15
-2.61736e-15
2.11092e-14
-1.8468e-14
-3.06047e-14
4.48178e-15
3.83773e-15
-1.4002e-14
-2.60878e-14
2.68622e-14
4.09844e-14
-5.42101e-14
-2.98156e-13
1.26429e-13
-2.15409e-14
3.40801e-14
-3.77977e-14
2.37667e-14
1.04352e-14
1.18522e-14
1.19501e-14
-2.20321e-14
-5.84533e-14
1.02752e-15
3.93344e-14
-7.95654e-15
5.01843e-15
2.63159e-14
1.66215e-14
-2.49962e-14
-1.04624e-14
0
-1.80249e-11
1.62416e-12
-3.12541e-13
1.38881e-13
-5.66978e-14
2.29786e-15
1.14547e-14
4.64734e-14
2.30419e-14
1.66875e-15
-6.05646e-15
3.11541e-14
-1.92638e-14
1.3579e-14
-1.68652e-14
5.72865e-15
-1.18966e-14
-6.59304e-15
3.56613e-14
-5.42101e-14
1.17636e-11
-1.43657e-12
3.25261e-13
-1.35525e-13
2.71051e-14
-2.71051e-14
2.71051e-14
0
-2.71051e-14
-2.71051e-14
2.71051e-14
0
2.71051e-14
0
2.71051e-14
-2.71051e-14
0
-5.42101e-14
5.42101e-14
0
)
;

boundaryField
{
    movingWall
    {
        type            extrapolatedCalculated;
        value           nonuniform List<scalar> 
20
(
1.17636e-11
-1.43657e-12
3.25261e-13
-1.35525e-13
2.71051e-14
-2.71051e-14
2.71051e-14
0
-2.71051e-14
-2.71051e-14
2.71051e-14
0
2.71051e-14
0
2.71051e-14
-2.71051e-14
0
-5.42101e-14
5.42101e-14
0
)
;
    }
    fixedWalls
    {
        type            extrapolatedCalculated;
        value           nonuniform List<scalar> 
60
(
1.41488e-11
-2.43674e-11
7.42678e-12
1.04354e-11
-1.66696e-11
1.22786e-11
4.8518e-12
-1.87567e-11
1.56938e-11
-5.12286e-12
-3.38813e-12
1.08149e-11
-1.66154e-11
1.37423e-11
-2.71051e-13
-1.52601e-11
1.75099e-11
-2.98156e-13
-1.80249e-11
1.17636e-11
2.71051e-14
5.42101e-14
0
0
2.71051e-14
-2.71051e-14
0
0
-5.42101e-14
-2.71051e-14
0
0
0
-5.42101e-14
2.71051e-14
0
-5.42101e-14
0
-5.42101e-14
0
1.41488e-11
-1.73094e-12
3.56645e-13
-1.30153e-13
1.28876e-14
2.44569e-14
-1.63287e-14
5.19097e-15
1.54535e-14
2.81691e-15
-3.75321e-16
-5.67386e-14
2.30551e-14
-1.48316e-14
-1.98059e-14
5.51279e-14
-3.03457e-14
3.29489e-15
-1.61293e-14
2.71051e-14
)
;
    }
    frontAndBack
    {
        type            empty;
    }
}


// ************************************************************************* //
