/*--------------------------------*- C++ -*----------------------------------*\
| =========                 |                                                 |
| \\      /  F ield         | OpenFOAM: The Open Source CFD Toolbox           |
|  \\    /   O peration     | Version:  2506                                  |
|   \\  /    A nd           | Website:  www.openfoam.com                      |
|    \\/     M anipulation  |                                                 |
\*---------------------------------------------------------------------------*/
FoamFile
{
    version     2.0;
    format      ascii;
    arch        "LSB;label=32;scalar=64";
    class       volScalarField;
    location    "6.625";
    object      enstrophyField;
}
// * * * * * * * * * * * * * * * * * * * * * * * * * * * * * * * * * * * * * //

dimensions      [0 0 -2 0 0 0 0];

internalField   nonuniform List<scalar> 
400
(
4.74156e-23
8.01859e-23
3.81568e-24
2.65972e-25
5.27495e-27
1.39618e-27
6.39834e-29
3.47854e-30
7.05718e-29
4.89468e-29
3.10916e-31
1.86178e-28
2.95897e-28
6.63217e-28
2.13403e-29
6.56119e-29
5.74761e-33
4.66104e-29
1.81672e-31
1.95785e-27
1.59691e-30
4.42279e-25
4.55941e-26
2.2026e-28
2.675e-30
3.02926e-27
3.0297e-27
3.474e-27
4.4336e-27
1.54525e-27
1.23273e-27
6.59313e-29
7.65528e-28
2.13506e-28
2.01146e-27
3.92577e-28
2.57623e-30
4.60218e-28
1.78238e-28
4.57767e-28
1.21206e-23
5.46663e-23
3.22276e-24
1.27574e-25
2.46178e-26
3.85997e-27
1.21492e-26
1.04294e-26
3.72262e-27
1.58582e-27
1.19026e-27
8.55541e-30
4.35454e-30
4.85334e-28
1.27918e-27
5.3923e-29
2.11685e-28
1.11959e-27
1.39926e-28
3.34936e-28
1.06399e-23
3.01164e-23
1.67524e-24
6.7152e-26
1.38589e-26
1.21794e-28
2.67579e-28
2.3113e-27
5.68924e-27
5.19374e-27
1.62385e-27
1.51044e-27
4.26731e-27
1.9807e-27
9.8344e-28
1.04722e-27
8.79745e-29
2.06674e-28
7.86852e-29
8.43986e-29
7.8032e-25
9.35746e-26
6.21455e-27
1.78199e-27
6.86769e-28
3.55556e-28
4.05142e-28
1.85337e-27
3.07005e-28
1.04496e-28
2.46733e-27
4.8008e-28
3.46796e-28
4.07213e-28
2.47566e-27
7.57091e-28
4.47409e-28
3.45849e-29
1.28551e-28
6.72866e-29
1.31306e-23
3.18995e-23
1.86688e-24
4.57504e-26
1.01306e-26
2.03586e-27
1.9317e-29
2.70854e-30
1.18364e-29
8.21103e-28
2.58959e-27
3.73892e-27
1.07369e-27
3.25353e-28
8.44622e-29
1.26283e-29
9.20192e-29
6.52384e-30
1.51512e-27
3.03479e-30
3.49592e-23
6.68669e-23
3.82461e-24
1.21498e-25
2.75362e-26
1.11887e-26
2.38303e-26
8.39075e-27
8.95984e-27
1.11403e-26
9.19393e-27
3.72762e-28
2.10125e-28
1.39882e-28
2.69568e-27
2.28053e-29
5.55539e-29
6.07177e-31
1.94583e-27
1.67111e-29
6.08724e-24
8.28644e-24
5.50947e-25
2.25893e-26
7.01961e-27
6.13337e-29
3.68641e-27
1.69098e-29
3.42313e-29
4.06886e-29
5.83191e-30
2.4169e-27
1.83156e-27
5.13456e-27
3.68018e-30
8.84902e-29
6.50676e-28
3.93101e-28
7.47655e-30
2.16266e-28
8.0643e-24
1.49117e-23
8.12766e-25
2.55146e-26
1.96783e-27
2.81974e-27
4.89618e-27
3.52293e-27
1.08398e-26
8.69702e-27
3.28987e-28
3.79454e-27
1.671e-27
1.24914e-28
4.16401e-27
1.28547e-27
1.31521e-27
8.71726e-28
5.99938e-28
4.61143e-28
4.21374e-23
5.13558e-23
2.98348e-24
1.33701e-25
1.1595e-26
6.17386e-28
3.2695e-27
2.06769e-27
2.7635e-27
3.18657e-27
2.70137e-27
1.89508e-27
5.31491e-28
6.05913e-27
3.41992e-27
7.67641e-28
7.50124e-27
4.03974e-27
1.3144e-28
4.59311e-28
4.07254e-23
5.14136e-23
2.88205e-24
1.43426e-25
2.79576e-26
2.23712e-28
8.27465e-27
3.57559e-28
2.35613e-27
1.2185e-27
2.06178e-27
2.44025e-29
2.50449e-27
9.38997e-28
9.8875e-30
1.68283e-27
3.4366e-27
3.29968e-27
1.90126e-29
1.20022e-27
1.67486e-23
2.65041e-23
1.40117e-24
4.65951e-26
1.14407e-26
1.81985e-28
1.70005e-27
5.98851e-27
3.04204e-27
8.76498e-28
2.13301e-27
2.62252e-29
1.56503e-30
8.16711e-28
1.27954e-27
1.26269e-27
2.46638e-27
7.70739e-29
6.40964e-30
7.17752e-30
1.71643e-26
1.28729e-25
6.38716e-28
1.24337e-27
4.11404e-27
2.17434e-27
1.97519e-27
1.48092e-27
1.04556e-27
5.87508e-27
2.90527e-27
2.13103e-27
1.51784e-27
1.2238e-27
1.74499e-28
1.39652e-28
3.22968e-28
1.93345e-29
4.03975e-28
1.78014e-28
1.47969e-23
2.83671e-23
1.63506e-24
6.78079e-26
1.66848e-26
1.04205e-27
1.90637e-27
7.58629e-27
1.43086e-28
1.44113e-28
1.50243e-31
2.63091e-29
2.14383e-27
1.81471e-27
5.09366e-28
1.69283e-28
3.32777e-28
3.75361e-27
2.64488e-29
2.79612e-28
3.69944e-23
7.02414e-23
3.75766e-24
2.60861e-25
4.76919e-27
3.81362e-27
4.19796e-28
5.021e-27
2.60432e-27
3.41012e-31
8.00797e-28
1.88601e-27
8.11855e-30
1.94183e-27
2.17398e-31
1.09082e-28
2.60206e-27
5.12525e-28
2.36522e-28
1.0142e-27
1.36391e-23
2.51062e-23
1.39475e-24
5.29344e-26
2.8825e-27
1.63943e-27
1.28751e-28
1.61445e-27
1.09439e-29
1.06584e-28
1.38281e-28
2.88655e-28
3.75469e-28
9.66943e-28
6.53186e-29
1.84547e-27
2.24417e-27
1.86928e-29
2.83676e-28
1.2612e-28
4.65857e-25
3.99858e-24
2.437e-25
1.37647e-26
3.36118e-29
4.49136e-27
3.36784e-28
1.2052e-27
1.52784e-27
3.48953e-27
6.23039e-27
7.00851e-27
4.35491e-27
2.27319e-27
1.76383e-28
1.01153e-27
1.52396e-27
3.62341e-31
5.46197e-28
8.5886e-30
8.4943e-24
4.44386e-23
2.59194e-24
1.24129e-25
4.37211e-27
5.68648e-27
2.91985e-30
1.22287e-30
3.58748e-29
2.13908e-27
6.17825e-28
1.92627e-28
5.98259e-29
1.72834e-29
5.16208e-29
1.83747e-27
8.76212e-28
7.213e-29
1.17639e-29
5.60499e-29
1.68825e-24
5.41475e-24
3.62337e-25
8.40229e-27
8.5712e-27
3.96661e-27
2.02936e-27
3.06046e-27
1.37911e-27
1.75266e-27
1.08955e-26
9.61616e-27
5.12454e-27
6.02273e-27
6.8014e-28
1.20139e-27
2.41209e-27
1.14237e-28
5.65769e-28
4.84776e-29
1.44742e-23
3.15948e-23
1.3397e-24
1.14518e-25
1.59821e-29
5.30563e-27
1.44042e-27
4.03414e-27
1.91731e-27
1.63664e-27
8.64346e-28
9.74969e-28
1.59938e-27
1.67854e-27
4.21418e-28
2.49252e-32
1.49457e-27
1.42442e-29
2.7996e-29
2.1992e-28
)
;

boundaryField
{
    movingWall
    {
        type            calculated;
        value           nonuniform List<scalar> 
20
(
6.8785e-23
4.84725e-23
1.13396e-24
2.08924e-25
2.50642e-26
4.1515e-26
1.5682e-26
3.7802e-26
1.71773e-26
9.2792e-27
1.3613e-26
7.58601e-27
9.19019e-27
4.28257e-27
1.07349e-27
3.9245e-27
3.98552e-27
1.42442e-29
3.3077e-27
1.88049e-29
)
;
    }
    fixedWalls
    {
        type            calculated;
        value           nonuniform List<scalar> 
60
(
1.42995e-21
1.09028e-23
1.01264e-21
5.6564e-22
1.9602e-24
5.9941e-22
1.24762e-21
1.61916e-22
2.71111e-22
9.69495e-22
9.62795e-22
4.86762e-22
1.42461e-24
5.29132e-22
1.27613e-21
4.50362e-22
7.63939e-23
8.17915e-22
1.01149e-22
5.55856e-22
2.22712e-27
1.97267e-30
1.48699e-27
3.63738e-28
5.78514e-28
1.17146e-28
5.645e-29
6.61085e-29
6.48538e-29
6.71368e-28
1.34759e-27
2.51372e-28
9.32924e-29
3.95303e-28
2.09819e-27
1.073e-28
2.52293e-30
6.78939e-31
9.80183e-29
6.51423e-29
1.35912e-22
1.12424e-22
3.57426e-24
4.43294e-25
8.40496e-28
1.26349e-26
1.38317e-26
8.52676e-27
2.95969e-27
5.95636e-28
3.10916e-31
2.41661e-27
1.17518e-26
4.33864e-29
4.5459e-27
1.22458e-28
3.95383e-27
3.13337e-27
3.89095e-27
4.7223e-27
)
;
    }
    frontAndBack
    {
        type            empty;
    }
}


// ************************************************************************* //
