/*--------------------------------*- C++ -*----------------------------------*\
| =========                 |                                                 |
| \\      /  F ield         | OpenFOAM: The Open Source CFD Toolbox           |
|  \\    /   O peration     | Version:  2506                                  |
|   \\  /    A nd           | Website:  www.openfoam.com                      |
|    \\/     M anipulation  |                                                 |
\*---------------------------------------------------------------------------*/
FoamFile
{
    version     2.0;
    format      ascii;
    arch        "LSB;label=32;scalar=64";
    class       surfaceScalarField;
    location    "6.625";
    object      fluxField;
}
// * * * * * * * * * * * * * * * * * * * * * * * * * * * * * * * * * * * * * //

dimensions      [0 3 -1 0 0 0 0];

oriented        oriented;

internalField   nonuniform List<scalar> 
760
(
-5e-05
3.76806e-18
-5e-05
-7.98654e-19
-5e-05
2.04358e-19
-5e-05
-3.25382e-20
-5e-05
9.99817e-21
-5e-05
-6.62047e-22
-5e-05
2.69408e-21
-5e-05
1.29774e-21
-5e-05
3.86337e-21
-5e-05
7.48049e-21
-5e-05
6.68243e-21
-5e-05
6.14415e-21
-5e-05
-1.01248e-21
-5e-05
-3.70789e-21
-5e-05
-4.95147e-21
-5e-05
2.29444e-22
-5e-05
5.96611e-21
-5e-05
8.23724e-22
-5e-05
-4.03233e-21
-4.04711e-21
-5e-05
-2.74615e-18
-5e-05
6.1358e-19
-5e-05
-1.30056e-19
-5e-05
4.08201e-20
-5e-05
-2.24654e-21
-5e-05
5.0979e-21
-5e-05
2.02308e-21
-5e-05
-8.58913e-22
-5e-05
3.07814e-22
-5e-05
1.11107e-21
-5e-05
1.26544e-22
-5e-05
1.32677e-21
-5e-05
-1.71011e-21
-5e-05
-3.18135e-21
-5e-05
-4.33293e-21
-5e-05
3.02109e-23
-5e-05
6.85225e-21
-5e-05
2.22996e-21
-5e-05
-5.78617e-21
-6.67238e-21
-5e-05
-8.5284e-19
-5e-05
2.06e-19
-5e-05
-4.35041e-20
-5e-05
1.53555e-20
-5e-05
4.70986e-21
-5e-05
8.2807e-21
-5e-05
6.97468e-21
-5e-05
4.18505e-21
-5e-05
1.30463e-21
-5e-05
-3.39632e-21
-5e-05
-4.37313e-21
-5e-05
-2.73602e-21
-5e-05
-3.52712e-21
-5e-05
-6.24077e-21
-5e-05
-6.72213e-21
-5e-05
-2.86814e-21
-5e-05
2.12288e-21
-5e-05
2.22425e-21
-5e-05
-4.6244e-21
-5.09412e-21
-5e-05
2.19694e-18
-5e-05
-4.81867e-19
-5e-05
1.14127e-19
-5e-05
-2.50256e-20
-5e-05
1.03278e-20
-5e-05
5.53263e-21
-5e-05
7.34373e-21
-5e-05
6.86562e-21
-5e-05
5.56706e-21
-5e-05
-5.45256e-23
-5e-05
-3.19803e-21
-5e-05
-4.75841e-21
-5e-05
-4.3565e-21
-5e-05
-7.33314e-21
-5e-05
-6.18061e-21
-5e-05
-8.29124e-22
-5e-05
1.43622e-21
-5e-05
3.33311e-21
-5e-05
-2.33651e-21
-3.81168e-21
-5e-05
-2.35212e-18
-5e-05
5.01169e-19
-5e-05
-1.18365e-19
-5e-05
2.41061e-20
-5e-05
-7.4889e-21
-5e-05
-2.21405e-21
-5e-05
-3.22221e-21
-5e-05
-3.20036e-22
-5e-05
-9.72108e-22
-5e-05
-2.11786e-21
-5e-05
-1.23147e-21
-5e-05
-1.68802e-21
-5e-05
-9.11992e-22
-5e-05
-3.46337e-21
-5e-05
-9.52739e-22
-5e-05
3.82478e-21
-5e-05
7.42719e-22
-5e-05
1.13537e-21
-5e-05
-4.3345e-22
-3.0826e-21
-5e-05
9.46166e-19
-5e-05
-1.8431e-19
-5e-05
4.51629e-20
-5e-05
-9.83401e-21
-5e-05
-2.45066e-21
-5e-05
-7.07947e-21
-5e-05
-1.33426e-21
-5e-05
1.61884e-21
-5e-05
-2.24786e-21
-5e-05
-1.2743e-23
-5e-05
4.54233e-21
-5e-05
4.44551e-21
-5e-05
-8.94305e-22
-5e-05
-2.64707e-21
-5e-05
2.88821e-21
-5e-05
5.40614e-21
-5e-05
-5.65764e-23
-5e-05
-2.12645e-21
-5e-05
1.12196e-21
-2.92571e-22
-5e-05
2.10743e-18
-5e-05
-4.4884e-19
-5e-05
1.05342e-19
-5e-05
-2.66133e-20
-5e-05
1.36235e-21
-5e-05
-4.34259e-21
-5e-05
8.71345e-22
-5e-05
1.66433e-21
-5e-05
8.29743e-22
-5e-05
3.31766e-21
-5e-05
6.5204e-21
-5e-05
2.48299e-21
-5e-05
-4.03491e-21
-5e-05
-1.06361e-21
-5e-05
5.15201e-21
-5e-05
3.06208e-21
-5e-05
1.3777e-22
-5e-05
-3.32129e-21
-5e-05
1.79704e-22
-3.11316e-22
-5e-05
-2.6275e-18
-5e-05
5.61451e-19
-5e-05
-1.29283e-19
-5e-05
2.77163e-20
-5e-05
-6.11786e-21
-5e-05
2.73957e-21
-5e-05
-1.79429e-21
-5e-05
-2.80822e-21
-5e-05
-9.96524e-22
-5e-05
-3.66827e-21
-5e-05
-4.60784e-21
-5e-05
-4.15857e-21
-5e-05
-2.10397e-22
-5e-05
5.09606e-21
-5e-05
1.97021e-21
-5e-05
-4.84417e-21
-5e-05
-2.23206e-21
-5e-05
-1.04085e-21
-5e-05
1.19678e-21
-1.95766e-21
-5e-05
1.21545e-18
-5e-05
-2.49692e-19
-5e-05
6.73871e-20
-5e-05
-5.18273e-21
-5e-05
8.13632e-21
-5e-05
3.65172e-21
-5e-05
9.06174e-22
-5e-05
-8.71339e-22
-5e-05
2.77429e-21
-5e-05
1.23349e-21
-5e-05
-3.46305e-21
-5e-05
-3.22632e-21
-5e-05
2.9247e-21
-5e-05
3.07534e-21
-5e-05
-7.09202e-21
-5e-05
-1.331e-20
-5e-05
-4.21159e-21
-5e-05
3.02802e-21
-5e-05
1.5935e-21
-1.5784e-21
-5e-05
6.1393e-21
-5e-05
1.90893e-20
-5e-05
7.90061e-22
-5e-05
9.23138e-21
-5e-05
5.40894e-21
-5e-05
1.73866e-21
-5e-05
-1.88772e-21
-5e-05
-3.43007e-21
-5e-05
5.45658e-22
-5e-05
5.21232e-21
-5e-05
5.74008e-21
-5e-05
2.89019e-21
-5e-05
2.15502e-21
-5e-05
-2.62542e-21
-5e-05
-9.09463e-21
-5e-05
-1.08605e-20
-5e-05
-6.28883e-21
-5e-05
-9.65513e-22
-5e-05
-4.12646e-21
-2.14677e-21
-5e-05
-7.33221e-19
-5e-05
1.61058e-19
-5e-05
-3.86235e-20
-5e-05
1.32306e-20
-5e-05
5.40257e-21
-5e-05
5.48356e-21
-5e-05
4.88397e-21
-5e-05
1.45267e-21
-5e-05
-2.23796e-21
-5e-05
-8.85967e-22
-5e-05
-3.63686e-22
-5e-05
-1.16094e-21
-5e-05
-3.92077e-21
-5e-05
-5.74427e-21
-5e-05
-4.65082e-21
-5e-05
-9.85438e-22
-5e-05
-6.5911e-21
-5e-05
-5.38871e-21
-5e-05
-3.46751e-21
-2.952e-21
-5e-05
1.85644e-18
-5e-05
-4.08411e-19
-5e-05
9.53633e-20
-5e-05
-1.91695e-20
-5e-05
1.11836e-20
-5e-05
7.44276e-21
-5e-05
1.21105e-20
-5e-05
1.06283e-20
-5e-05
5.02619e-21
-5e-05
2.48185e-23
-5e-05
-5.43548e-21
-5e-05
-8.25554e-21
-5e-05
-1.00146e-20
-5e-05
-8.91958e-21
-5e-05
-5.50276e-21
-5e-05
1.62136e-21
-5e-05
-2.31387e-21
-5e-05
-2.80696e-21
-5e-05
-7.64577e-22
-2.24171e-21
-5e-05
-2.22e-18
-5e-05
4.88412e-19
-5e-05
-1.08452e-19
-5e-05
2.73895e-20
-5e-05
-3.92027e-21
-5e-05
4.39832e-21
-5e-05
1.15289e-21
-5e-05
4.67448e-21
-5e-05
4.78891e-21
-5e-05
-2.52854e-21
-5e-05
-6.22613e-21
-5e-05
-8.16976e-21
-5e-05
-7.18125e-21
-5e-05
-5.57396e-21
-5e-05
-4.48838e-21
-5e-05
2.99551e-22
-5e-05
4.28976e-21
-5e-05
-4.49573e-22
-5e-05
-5.37337e-21
-2.5977e-21
-5e-05
1.15819e-18
-5e-05
-2.32249e-19
-5e-05
6.45496e-20
-5e-05
-5.76018e-21
-5e-05
3.14388e-21
-5e-05
9.2645e-23
-5e-05
-2.99756e-21
-5e-05
-2.25934e-21
-5e-05
-4.03201e-21
-5e-05
-9.29664e-21
-5e-05
-8.06985e-21
-5e-05
-6.20496e-21
-5e-05
-4.45471e-21
-5e-05
-2.38003e-21
-5e-05
-9.18858e-22
-5e-05
-1.01205e-21
-5e-05
7.37377e-21
-5e-05
3.14366e-21
-5e-05
-6.28317e-21
-4.11201e-21
-5e-05
1.33425e-18
-5e-05
-2.79485e-19
-5e-05
7.48732e-20
-5e-05
-1.16772e-20
-5e-05
2.74614e-21
-5e-05
5.33286e-22
-5e-05
2.00423e-21
-5e-05
-3.9461e-21
-5e-05
-1.0149e-20
-5e-05
-9.6059e-21
-5e-05
-6.29251e-21
-5e-05
-3.75846e-21
-5e-05
-3.72138e-21
-5e-05
-2.82563e-21
-5e-05
8.64361e-22
-5e-05
1.96636e-22
-5e-05
2.92121e-21
-5e-05
1.48278e-21
-5e-05
-4.1558e-21
-3.13314e-21
-5e-05
-2.81601e-18
-5e-05
5.98135e-19
-5e-05
-1.41e-19
-5e-05
2.63842e-20
-5e-05
-1.14004e-20
-5e-05
-1.42374e-21
-5e-05
-4.95855e-22
-5e-05
-5.72342e-21
-5e-05
-9.20403e-21
-5e-05
-6.62602e-21
-5e-05
-4.99758e-21
-5e-05
-3.20538e-21
-5e-05
-1.73481e-21
-5e-05
-2.77126e-22
-5e-05
4.12792e-21
-5e-05
7.27581e-21
-5e-05
1.84261e-22
-5e-05
-2.94615e-21
-5e-05
-1.13151e-21
-6.38097e-22
-5e-05
1.93486e-18
-5e-05
-4.2746e-19
-5e-05
1.02017e-19
-5e-05
-1.92395e-20
-5e-05
5.3803e-21
-5e-05
-4.68788e-21
-5e-05
-4.36266e-21
-5e-05
-5.57999e-21
-5e-05
-6.0322e-21
-5e-05
-7.4306e-21
-5e-05
-8.27522e-21
-5e-05
-4.617e-21
-5e-05
-8.74923e-22
-5e-05
1.12045e-21
-5e-05
9.59433e-22
-5e-05
3.27577e-21
-5e-05
2.54312e-22
-5e-05
-6.07224e-23
-5e-05
3.46984e-21
2.13224e-22
-5e-05
1.86081e-18
-5e-05
-4.02074e-19
-5e-05
1.03035e-19
-5e-05
-1.18088e-20
-5e-05
1.08794e-20
-5e-05
-8.34579e-22
-5e-05
-4.16746e-21
-5e-05
-3.81322e-21
-5e-05
-3.78874e-21
-5e-05
-5.50802e-21
-5e-05
-7.83706e-21
-5e-05
-6.51938e-21
-5e-05
-3.71893e-21
-5e-05
-1.98914e-21
-5e-05
-5.52166e-21
-5e-05
-6.97356e-21
-5e-05
-2.62088e-21
-5e-05
5.27223e-22
-5e-05
4.16066e-21
9.47912e-22
-5e-05
-3.13886e-18
-5e-05
6.70314e-19
-5e-05
-1.59451e-19
-5e-05
3.47201e-20
-5e-05
-7.39819e-21
-5e-05
5.74466e-22
-5e-05
-3.9126e-21
-5e-05
-1.93419e-21
-5e-05
-1.0158e-21
-5e-05
4.17187e-22
-5e-05
-1.51411e-21
-5e-05
-5.76401e-21
-5e-05
-4.81595e-21
-5e-05
-3.38152e-21
-5e-05
-4.2163e-21
-5e-05
-5.3441e-21
-5e-05
-2.97414e-21
-5e-05
-1.64826e-21
-5e-05
2.13906e-21
1.85576e-21
-5e-05
-5e-05
-5e-05
-5e-05
-5e-05
-5e-05
-5e-05
-5e-05
-5e-05
-5e-05
-5e-05
-5e-05
-5e-05
-5e-05
-5e-05
-5e-05
-5e-05
-5e-05
-5e-05
)
;

boundaryField
{
    movingWall
    {
        type            calculated;
        value           uniform -0;
    }
    fixedWalls
    {
        type            calculated;
        value           nonuniform List<scalar> 
60
(
5e-05
5e-05
5e-05
5e-05
5e-05
5e-05
5e-05
5e-05
5e-05
5e-05
5e-05
5e-05
5e-05
5e-05
5e-05
5e-05
5e-05
5e-05
5e-05
5e-05
-5e-05
-5e-05
-5e-05
-5e-05
-5e-05
-5e-05
-5e-05
-5e-05
-5e-05
-5e-05
-5e-05
-5e-05
-5e-05
-5e-05
-5e-05
-5e-05
-5e-05
-5e-05
-5e-05
-5e-05
0
0
0
0
0
0
0
0
0
0
0
0
0
0
0
0
0
0
0
0
)
;
    }
    frontAndBack
    {
        type            empty;
    }
}


// ************************************************************************* //
