/*--------------------------------*- C++ -*----------------------------------*\
| =========                 |                                                 |
| \\      /  F ield         | OpenFOAM: The Open Source CFD Toolbox           |
|  \\    /   O peration     | Version:  2506                                  |
|   \\  /    A nd           | Website:  www.openfoam.com                      |
|    \\/     M anipulation  |                                                 |
\*---------------------------------------------------------------------------*/
FoamFile
{
    version     2.0;
    format      ascii;
    arch        "LSB;label=32;scalar=64";
    class       volTensorField;
    location    "6.625";
    object      gradU;
}
// * * * * * * * * * * * * * * * * * * * * * * * * * * * * * * * * * * * * * //

dimensions      [0 0 -1 0 0 0 0];

internalField   nonuniform List<tensor> 
400
(
(-9.21572e-13 1.07139e-11 0 9.75782e-13 1.50723e-11 0 0 0 0)
(1.46367e-12 -1.29077e-11 0 -2.43945e-13 -3.19462e-12 0 0 0 0)
(-4.60786e-13 2.76249e-12 0 0 8.17431e-13 0 0 0 0)
(0 -6.75135e-13 0 5.42101e-14 -1.30153e-13 0 0 0 0)
(-2.71051e-14 1.29818e-13 0 2.71051e-14 3.99927e-14 0 0 0 0)
(2.71051e-14 -2.57377e-14 0 2.71051e-14 -2.64819e-15 0 0 0 0)
(-2.71051e-14 1.13122e-14 0 0 1.07763e-14 0 0 0 0)
(0 2.63763e-15 0 0 5.19097e-15 0 0 0 0)
(0 1.18804e-14 0 0 1.54535e-14 0 0 0 0)
(-2.71051e-14 9.89412e-15 0 0 2.9922e-14 0 0 0 0)
(-2.71051e-14 -7.88563e-16 0 0 2.67297e-14 0 0 0 0)
(-8.13152e-14 -1.92965e-14 0 0 2.45766e-14 0 0 0 0)
(2.71051e-14 -2.43268e-14 0 0 -4.04992e-15 0 0 0 0)
(0 -9.31519e-15 0 2.71051e-14 -1.48316e-14 0 0 0 0)
(0 6.53304e-15 0 0 -1.98059e-14 0 0 0 0)
(5.42101e-14 1.56498e-14 0 2.71051e-14 9.17776e-16 0 0 0 0)
(-5.42101e-14 1.07216e-16 0 0 2.38645e-14 0 0 0 0)
(0 -9.65509e-15 0 0 3.29489e-15 0 0 0 0)
(0 -6.0278e-16 0 0 -1.61293e-14 0 0 0 0)
(5.42101e-14 8.36547e-15 0 -5.42101e-14 -1.61885e-14 0 0 0 0)
(1.68051e-12 1.16373e-12 0 1.16552e-12 -2.60569e-11 0 0 0 0)
(-2.43945e-12 -1.34709e-12 0 -4.06576e-13 5.64894e-12 0 0 0 0)
(7.04731e-13 3.01974e-13 0 0 -1.33765e-12 0 0 0 0)
(2.71051e-14 -1.02304e-13 0 -8.13152e-14 2.93433e-13 0 0 0 0)
(0 -2.31301e-15 0 0 -4.89788e-14 0 0 0 0)
(0 -3.47861e-15 0 -8.13152e-14 2.30398e-14 0 0 0 0)
(-2.71051e-14 -3.47308e-15 0 -8.13152e-14 -2.68402e-15 0 0 0 0)
(0 2.03952e-15 0 -8.13152e-14 -8.62662e-15 0 0 0 0)
(2.71051e-14 1.28506e-14 0 -8.13152e-14 -1.42222e-14 0 0 0 0)
(0 1.38213e-15 0 -5.42101e-14 -2.54777e-14 0 0 0 0)
(5.42101e-14 -4.55679e-15 0 -5.42101e-14 -2.62236e-14 0 0 0 0)
(5.42101e-14 -1.14831e-14 0 0 -1.92695e-14 0 0 0 0)
(0 -1.50814e-14 0 -5.42101e-14 -2.79052e-15 0 0 0 0)
(0 -6.44079e-15 0 -2.71051e-14 2.10617e-15 0 0 0 0)
(0 9.21631e-15 0 -5.42101e-14 2.47417e-15 0 0 0 0)
(0 2.80206e-14 0 0 -7.96932e-16 0 0 0 0)
(-2.71051e-14 2.2699e-15 0 0 3.54457e-15 0 0 0 0)
(-2.71051e-14 -3.03387e-14 0 0 5.62493e-15 0 0 0 0)
(-5.42101e-14 -1.88806e-14 0 0 -7.01536e-15 0 0 0 0)
(5.42101e-14 2.39523e-14 0 5.42101e-14 -1.05011e-14 0 0 0 0)
(-1.35525e-13 -9.69402e-12 0 -4.77049e-12 7.57325e-12 0 0 0 0)
(2.71051e-13 1.18115e-11 0 1.35525e-12 -1.63032e-12 0 0 0 0)
(-1.35525e-13 -2.59301e-12 0 -5.42101e-14 3.46207e-13 0 0 0 0)
(0 6.13541e-13 0 1.0842e-13 -1.01858e-13 0 0 0 0)
(0 -1.40576e-13 0 8.13152e-14 2.78256e-14 0 0 0 0)
(-8.13152e-14 2.05571e-14 0 1.0842e-13 1.27312e-14 0 0 0 0)
(0 -2.03542e-14 0 1.35525e-13 1.98064e-14 0 0 0 0)
(0 -8.90058e-15 0 1.35525e-13 2.01758e-14 0 0 0 0)
(0 -4.97068e-15 0 8.13152e-14 3.98726e-15 0 0 0 0)
(0 -2.10721e-15 0 5.42101e-14 -1.80296e-14 0 0 0 0)
(2.71051e-14 5.41962e-15 0 5.42101e-14 -1.79987e-14 0 0 0 0)
(0 4.13652e-15 0 0 -1.62512e-14 0 0 0 0)
(-2.71051e-14 -2.95111e-15 0 0 -7.26804e-15 0 0 0 0)
(2.71051e-14 -4.0505e-15 0 2.71051e-14 -1.22377e-14 0 0 0 0)
(0 3.62994e-15 0 5.42101e-14 -9.55681e-15 0 0 0 0)
(5.42101e-14 1.67202e-14 0 2.71051e-14 -1.15934e-14 0 0 0 0)
(0 6.52908e-15 0 2.71051e-14 -1.89175e-14 0 0 0 0)
(0 -2.0215e-14 0 2.71051e-14 -2.28193e-17 0 0 0 0)
(0 -1.67288e-14 0 0 4.64711e-15 0 0 0 0)
(0 2.58819e-14 0 0 6.31302e-15 0 0 0 0)
(-1.76183e-12 7.10667e-12 0 2.49366e-12 1.21991e-11 0 0 0 0)
(2.27682e-12 -8.57413e-12 0 -8.13152e-13 -2.75147e-12 0 0 0 0)
(-5.42101e-13 1.83043e-12 0 0 6.30524e-13 0 0 0 0)
(1.6263e-13 -4.20685e-13 0 -5.42101e-14 -1.61524e-13 0 0 0 0)
(0 1.12277e-13 0 -5.42101e-14 2.24716e-14 0 0 0 0)
(2.71051e-14 -1.14978e-14 0 -2.71051e-14 -1.09923e-14 0 0 0 0)
(0 3.97155e-15 0 2.71051e-14 1.47619e-15 0 0 0 0)
(-2.71051e-14 -1.37796e-14 0 5.42101e-14 1.07223e-14 0 0 0 0)
(-5.42101e-14 -2.53548e-14 0 8.13152e-14 1.70497e-14 0 0 0 0)
(-5.42101e-14 -2.06038e-14 0 8.13152e-14 1.33672e-14 0 0 0 0)
(0 -2.77843e-15 0 5.42101e-14 4.70038e-15 0 0 0 0)
(0 -7.52494e-16 0 5.42101e-14 -8.08953e-15 0 0 0 0)
(0 -1.10679e-14 0 8.13152e-14 -3.31753e-15 0 0 0 0)
(2.71051e-14 -8.72956e-15 0 5.42101e-14 -4.36949e-15 0 0 0 0)
(-2.71051e-14 9.86059e-15 0 5.42101e-14 2.16608e-15 0 0 0 0)
(2.71051e-14 1.86599e-14 0 -2.71051e-14 8.15605e-15 0 0 0 0)
(-2.71051e-14 1.38405e-14 0 2.71051e-14 -2.74665e-15 0 0 0 0)
(-2.71051e-14 -6.77409e-15 0 -2.71051e-14 4.43545e-15 0 0 0 0)
(-2.71051e-14 -1.25447e-14 0 0 9.15153e-15 0 0 0 0)
(0 1.29922e-14 0 0 5.12978e-15 0 0 0 0)
(1.51788e-12 -2.46368e-13 0 1.00289e-12 -1.81963e-11 0 0 0 0)
(-2.24972e-12 2.42872e-13 0 -1.89735e-13 3.93215e-12 0 0 0 0)
(6.50521e-13 -3.06563e-15 0 1.0842e-13 -9.29968e-13 0 0 0 0)
(-8.13152e-14 5.48892e-15 0 -5.42101e-14 1.96527e-13 0 0 0 0)
(5.42101e-14 9.95623e-15 0 -2.71051e-14 -7.12666e-14 0 0 0 0)
(0 -4.38369e-16 0 -2.71051e-14 -3.09867e-14 0 0 0 0)
(8.13152e-14 1.36042e-15 0 -2.71051e-14 -4.22638e-14 0 0 0 0)
(2.71051e-14 6.67294e-15 0 -5.42101e-14 -2.87426e-14 0 0 0 0)
(5.42101e-14 -2.32581e-15 0 -2.71051e-14 -2.61567e-14 0 0 0 0)
(5.42101e-14 -1.44565e-14 0 0 -8.25332e-15 0 0 0 0)
(-2.71051e-14 -1.60371e-14 0 5.42101e-14 7.86625e-15 0 0 0 0)
(-2.71051e-14 -3.88139e-15 0 2.71051e-14 1.22816e-14 0 0 0 0)
(-2.71051e-14 7.68929e-16 0 2.71051e-14 1.3778e-14 0 0 0 0)
(-2.71051e-14 1.43311e-15 0 -2.71051e-14 1.54791e-14 0 0 0 0)
(-2.71051e-14 1.61555e-14 0 -5.42101e-14 2.09115e-14 0 0 0 0)
(-5.42101e-14 1.18074e-14 0 -2.71051e-14 1.86156e-14 0 0 0 0)
(0 2.80847e-15 0 -2.71051e-14 -2.77399e-15 0 0 0 0)
(0 -8.31684e-15 0 0 -8.79095e-15 0 0 0 0)
(5.42101e-14 -1.60344e-14 0 0 7.61225e-15 0 0 0 0)
(0 1.16006e-14 0 0 2.91629e-15 0 0 0 0)
(-9.21572e-13 -7.15745e-12 0 -2.03288e-12 1.31932e-11 0 0 0 0)
(1.40946e-12 8.69216e-12 0 7.04731e-13 -2.74192e-12 0 0 0 0)
(-3.79471e-13 -1.90519e-12 0 2.71051e-14 6.54113e-13 0 0 0 0)
(0 4.38016e-13 0 1.35525e-13 -1.3576e-13 0 0 0 0)
(0 -1.15237e-13 0 2.71051e-14 2.01529e-14 0 0 0 0)
(5.42101e-14 1.75051e-14 0 8.13152e-14 -1.94617e-14 0 0 0 0)
(-2.71051e-14 6.21563e-15 0 0 7.55178e-15 0 0 0 0)
(-2.71051e-14 2.32746e-15 0 0 7.75552e-15 0 0 0 0)
(-5.42101e-14 -4.86547e-15 0 0 -5.10303e-15 0 0 0 0)
(0 1.34191e-14 0 -2.71051e-14 8.42045e-15 0 0 0 0)
(2.71051e-14 1.77564e-14 0 -5.42101e-14 2.30952e-14 0 0 0 0)
(-2.71051e-14 5.15931e-15 0 -8.13152e-14 2.45341e-14 0 0 0 0)
(0 -7.87033e-15 0 -5.42101e-14 7.07464e-17 0 0 0 0)
(-2.71051e-14 -1.5961e-15 0 -2.71051e-14 3.26519e-15 0 0 0 0)
(0 1.29971e-14 0 0 1.53638e-14 0 0 0 0)
(0 -5.02559e-15 0 0 6.32547e-15 0 0 0 0)
(0 -1.35661e-14 0 0 -3.19718e-15 0 0 0 0)
(2.71051e-14 3.61216e-15 0 0 -1.30473e-14 0 0 0 0)
(-2.71051e-14 -8.37485e-16 0 5.42101e-14 6.22163e-15 0 0 0 0)
(-2.71051e-14 2.46365e-15 0 0 1.11601e-14 0 0 0 0)
(2.1684e-13 1.02049e-11 0 1.84314e-12 4.64506e-12 0 0 0 0)
(-1.6263e-13 -1.22962e-11 0 -7.31836e-13 -1.05812e-12 0 0 0 0)
(0 2.60309e-12 0 -1.6263e-13 2.40716e-13 0 0 0 0)
(-5.42101e-14 -6.28471e-13 0 -1.35525e-13 -6.71171e-14 0 0 0 0)
(0 1.26255e-13 0 -1.0842e-13 1.5252e-14 0 0 0 0)
(0 -1.30395e-14 0 -1.6263e-13 1.09475e-14 0 0 0 0)
(0 2.85776e-14 0 -1.89735e-13 8.82244e-15 0 0 0 0)
(2.71051e-14 -5.98186e-15 0 -1.35525e-13 1.81945e-16 0 0 0 0)
(2.71051e-14 -1.66088e-15 0 -1.35525e-13 1.23104e-14 0 0 0 0)
(-5.42101e-14 1.37417e-14 0 -1.35525e-13 1.33216e-14 0 0 0 0)
(-5.42101e-14 7.65468e-17 0 -1.35525e-13 7.91228e-15 0 0 0 0)
(0 -2.69058e-14 0 -5.42101e-14 -7.85005e-15 0 0 0 0)
(5.42101e-14 -2.05e-14 0 0 -1.25624e-14 0 0 0 0)
(0 1.67262e-14 0 0 6.33383e-15 0 0 0 0)
(-5.42101e-14 1.92158e-14 0 -5.42101e-14 9.05519e-15 0 0 0 0)
(5.42101e-14 -6.75356e-15 0 0 -9.37626e-15 0 0 0 0)
(0 -1.65643e-14 0 -2.71051e-14 7.77384e-16 0 0 0 0)
(0 1.10198e-15 0 0 -4.77939e-15 0 0 0 0)
(0 8.17299e-15 0 -5.42101e-14 -3.76901e-15 0 0 0 0)
(0 -5.7812e-15 0 0 -7.49792e-17 0 0 0 0)
(1.89735e-13 -3.57051e-12 0 -8.13152e-14 -1.89397e-11 0 0 0 0)
(-6.23416e-13 4.28782e-12 0 2.1684e-13 4.04116e-12 0 0 0 0)
(2.1684e-13 -9.14186e-13 0 1.35525e-13 -9.38498e-13 0 0 0 0)
(8.13152e-14 2.12553e-13 0 0 2.17318e-13 0 0 0 0)
(0 -3.7172e-14 0 8.13152e-14 -2.99208e-14 0 0 0 0)
(-5.42101e-14 1.10755e-14 0 0 2.83286e-14 0 0 0 0)
(0 -4.54995e-15 0 8.13152e-14 -1.06625e-14 0 0 0 0)
(5.42101e-14 5.81546e-15 0 0 -1.78902e-14 0 0 0 0)
(-5.42101e-14 8.27421e-15 0 0 -7.30507e-15 0 0 0 0)
(5.42101e-14 9.02094e-15 0 0 -2.79437e-14 0 0 0 0)
(8.13152e-14 -3.41523e-15 0 0 -4.4513e-14 0 0 0 0)
(8.13152e-14 -1.53154e-14 0 5.42101e-14 -2.65662e-14 0 0 0 0)
(0 6.31356e-15 0 -5.42101e-14 1.52981e-14 0 0 0 0)
(-2.71051e-14 2.00215e-14 0 -8.13152e-14 2.46387e-14 0 0 0 0)
(0 -2.713e-15 0 0 -1.27272e-14 0 0 0 0)
(0 -1.33034e-14 0 0 -3.1625e-14 0 0 0 0)
(0 -8.9692e-15 0 2.71051e-14 -9.47933e-15 0 0 0 0)
(0 -9.34241e-16 0 2.71051e-14 9.12178e-15 0 0 0 0)
(0 3.86692e-15 0 0 4.06829e-15 0 0 0 0)
(0 6.30764e-15 0 2.71051e-14 -6.58539e-15 0 0 0 0)
(3.25261e-13 -4.69367e-12 0 -6.77626e-13 1.53718e-11 0 0 0 0)
(1.0842e-13 5.70503e-12 0 2.43945e-13 -3.24457e-12 0 0 0 0)
(-2.1684e-13 -1.22075e-12 0 5.42101e-14 7.86679e-13 0 0 0 0)
(-1.6263e-13 2.80107e-13 0 5.42101e-14 -1.31596e-13 0 0 0 0)
(0 -6.27349e-14 0 0 5.70167e-14 0 0 0 0)
(0 6.21875e-15 0 8.13152e-14 3.64862e-15 0 0 0 0)
(0 -1.76412e-14 0 8.13152e-14 1.08018e-14 0 0 0 0)
(-2.71051e-14 -2.62441e-15 0 8.13152e-14 7.74754e-15 0 0 0 0)
(0 -1.17144e-14 0 1.35525e-13 1.50833e-14 0 0 0 0)
(-8.13152e-14 -2.34662e-14 0 1.0842e-13 1.9607e-14 0 0 0 0)
(0 1.45403e-15 0 2.71051e-14 4.57917e-15 0 0 0 0)
(-2.71051e-14 3.29052e-14 0 -5.42101e-14 3.72899e-15 0 0 0 0)
(0 3.0705e-14 0 -2.71051e-14 1.25404e-14 0 0 0 0)
(0 -1.12991e-14 0 -2.71051e-14 -8.0829e-15 0 0 0 0)
(2.71051e-14 -3.70479e-14 0 5.42101e-14 -3.62489e-14 0 0 0 0)
(5.42101e-14 -3.50569e-15 0 -5.42101e-14 -3.38632e-14 0 0 0 0)
(5.42101e-14 2.41825e-14 0 -2.71051e-14 -7.91809e-15 0 0 0 0)
(-2.71051e-14 1.46496e-14 0 -2.71051e-14 1.62755e-14 0 0 0 0)
(2.71051e-14 -7.53419e-15 0 2.71051e-14 1.58687e-15 0 0 0 0)
(-5.42101e-14 -3.2641e-15 0 2.71051e-14 1.51705e-15 0 0 0 0)
(-2.98156e-13 8.55671e-12 0 -6.23416e-13 -4.83726e-12 0 0 0 0)
(1.6263e-13 -1.02973e-11 0 -1.6263e-13 1.07513e-12 0 0 0 0)
(5.42101e-14 2.19879e-12 0 -2.43945e-13 -2.66388e-13 0 0 0 0)
(0 -5.1711e-13 0 0 5.76564e-14 0 0 0 0)
(2.71051e-14 9.80727e-14 0 -5.42101e-14 -1.09095e-14 0 0 0 0)
(0 -3.51393e-14 0 0 -7.65223e-15 0 0 0 0)
(5.42101e-14 -4.51034e-16 0 -8.13152e-14 -1.11756e-14 0 0 0 0)
(2.71051e-14 1.00969e-14 0 -5.42101e-14 -1.02349e-14 0 0 0 0)
(0 2.01337e-14 0 -5.42101e-14 -8.91454e-15 0 0 0 0)
(0 -1.48316e-15 0 -8.13152e-14 1.59153e-14 0 0 0 0)
(-8.13152e-14 -1.92933e-14 0 5.42101e-14 3.68125e-14 0 0 0 0)
(-2.71051e-14 -7.35418e-15 0 5.42101e-14 2.44661e-14 0 0 0 0)
(0 -5.49834e-15 0 2.71051e-14 -3.07874e-15 0 0 0 0)
(2.71051e-14 -2.87678e-14 0 8.13152e-14 -2.2803e-14 0 0 0 0)
(5.42101e-14 -2.84933e-14 0 5.42101e-14 -8.01041e-15 0 0 0 0)
(-5.42101e-14 1.50274e-14 0 5.42101e-14 9.79799e-15 0 0 0 0)
(0 4.11694e-14 0 -8.13152e-14 -8.30898e-15 0 0 0 0)
(0 8.57072e-15 0 -8.13152e-14 -1.59741e-14 0 0 0 0)
(8.13152e-14 -1.08915e-14 0 -2.71051e-14 -2.28798e-14 0 0 0 0)
(-2.71051e-14 3.20373e-15 0 -2.71051e-14 -2.27348e-15 0 0 0 0)
(-4.33681e-13 -8.4558e-12 0 5.69206e-13 -2.95744e-12 0 0 0 0)
(4.33681e-13 1.02759e-11 0 1.35525e-13 5.67873e-13 0 0 0 0)
(-5.42101e-14 -2.23822e-12 0 1.6263e-13 -1.57654e-13 0 0 0 0)
(1.0842e-13 5.35585e-13 0 0 1.59967e-14 0 0 0 0)
(-2.71051e-14 -1.28044e-13 0 1.0842e-13 -2.54743e-17 0 0 0 0)
(-2.71051e-14 5.95267e-15 0 2.71051e-14 1.49796e-14 0 0 0 0)
(-5.42101e-14 -2.02239e-14 0 1.0842e-13 2.70868e-14 0 0 0 0)
(-2.71051e-14 -3.63356e-16 0 -2.71051e-14 1.9531e-14 0 0 0 0)
(0 1.44358e-14 0 -5.42101e-14 -1.11345e-14 0 0 0 0)
(0 2.22608e-14 0 -2.71051e-14 -2.43931e-14 0 0 0 0)
(8.13152e-14 1.00048e-14 0 -5.42101e-14 -2.44151e-14 0 0 0 0)
(2.71051e-14 -6.98606e-15 0 0 -1.62045e-14 0 0 0 0)
(2.71051e-14 -1.65641e-14 0 5.42101e-14 -2.43031e-14 0 0 0 0)
(2.71051e-14 -1.62308e-14 0 2.71051e-14 -1.24754e-14 0 0 0 0)
(-2.71051e-14 -4.44691e-15 0 0 1.77752e-14 0 0 0 0)
(-1.0842e-13 -3.80426e-15 0 5.42101e-14 3.95001e-14 0 0 0 0)
(-2.71051e-14 -1.58964e-15 0 8.13152e-14 -1.20908e-15 0 0 0 0)
(8.13152e-14 7.8747e-17 0 8.13152e-14 -1.76928e-14 0 0 0 0)
(0 6.16646e-15 0 0 2.63584e-15 0 0 0 0)
(0 2.18892e-14 0 -2.71051e-14 -3.22091e-15 0 0 0 0)
(4.60786e-13 6.16715e-12 0 3.79471e-13 1.03587e-11 0 0 0 0)
(-2.98156e-13 -7.49751e-12 0 -2.1684e-13 -2.27787e-12 0 0 0 0)
(-1.0842e-13 1.64692e-12 0 -2.71051e-14 5.35947e-13 0 0 0 0)
(-5.42101e-14 -3.59481e-13 0 -5.42101e-14 -1.296e-13 0 0 0 0)
(5.42101e-14 9.70556e-14 0 -5.42101e-14 2.31242e-14 0 0 0 0)
(0 -8.02705e-15 0 -2.71051e-14 7.83679e-15 0 0 0 0)
(-5.42101e-14 4.10033e-15 0 -5.42101e-14 2.8906e-14 0 0 0 0)
(-5.42101e-14 -2.81244e-14 0 8.13152e-14 3.67026e-14 0 0 0 0)
(-2.71051e-14 -2.37904e-14 0 5.42101e-14 2.90566e-14 0 0 0 0)
(0 -1.47637e-14 0 2.71051e-14 3.64314e-15 0 0 0 0)
(2.71051e-14 -1.11047e-14 0 5.42101e-14 -2.02872e-14 0 0 0 0)
(0 -7.24226e-15 0 0 -2.83784e-14 0 0 0 0)
(0 -1.7692e-15 0 0 -2.43755e-14 0 0 0 0)
(5.42101e-14 1.33106e-14 0 -2.71051e-14 -1.27012e-14 0 0 0 0)
(5.42101e-14 2.34822e-14 0 -2.71051e-14 -3.40777e-15 0 0 0 0)
(0 -3.95685e-15 0 -5.42101e-14 1.04272e-14 0 0 0 0)
(0 -1.60235e-14 0 5.42101e-14 1.71089e-14 0 0 0 0)
(-2.71051e-14 1.24156e-14 0 0 1.0327e-14 0 0 0 0)
(-2.71051e-14 3.5804e-15 0 0 1.08117e-14 0 0 0 0)
(0 3.78881e-15 0 0 2.84115e-15 0 0 0 0)
(-2.98156e-13 -3.75015e-13 0 -1.89735e-13 -1.63058e-11 0 0 0 0)
(2.71051e-14 4.53192e-13 0 -5.42101e-14 3.58729e-12 0 0 0 0)
(1.35525e-13 -8.99513e-14 0 -5.42101e-14 -8.15262e-13 0 0 0 0)
(5.42101e-14 2.27622e-14 0 -2.71051e-14 1.86236e-13 0 0 0 0)
(2.71051e-14 9.39358e-15 0 -8.13152e-14 -6.04156e-14 0 0 0 0)
(-2.71051e-14 1.17345e-14 0 -5.42101e-14 -1.21778e-14 0 0 0 0)
(8.13152e-14 8.64192e-15 0 -5.42101e-14 -4.38303e-14 0 0 0 0)
(5.42101e-14 -2.12714e-16 0 5.42101e-14 -2.38154e-14 0 0 0 0)
(-5.42101e-14 -1.86237e-14 0 2.71051e-14 -9.49118e-16 0 0 0 0)
(2.71051e-14 -2.7083e-14 0 8.13152e-14 -1.02134e-14 0 0 0 0)
(0 -2.20167e-14 0 5.42101e-14 -3.16258e-15 0 0 0 0)
(2.71051e-14 -1.10744e-14 0 5.42101e-14 3.43095e-16 0 0 0 0)
(0 -8.86961e-16 0 5.42101e-14 1.13335e-14 0 0 0 0)
(0 4.73693e-15 0 5.42101e-14 1.33825e-14 0 0 0 0)
(-5.42101e-14 1.86815e-14 0 0 4.05753e-15 0 0 0 0)
(0 1.67124e-14 0 0 -5.28723e-15 0 0 0 0)
(-5.42101e-14 -1.68979e-15 0 -2.71051e-14 2.64145e-14 0 0 0 0)
(0 -6.21844e-15 0 0 9.42954e-15 0 0 0 0)
(5.42101e-14 -1.31942e-15 0 2.71051e-14 -1.84352e-14 0 0 0 0)
(0 8.23635e-15 0 2.71051e-14 -1.42394e-15 0 0 0 0)
(2.1684e-13 -6.55133e-12 0 -1.11131e-12 1.35127e-11 0 0 0 0)
(-8.13152e-14 7.993e-12 0 4.60786e-13 -2.88264e-12 0 0 0 0)
(-1.0842e-13 -1.75414e-12 0 5.42101e-14 6.92007e-13 0 0 0 0)
(-1.0842e-13 3.95366e-13 0 2.71051e-14 -1.32599e-13 0 0 0 0)
(2.71051e-14 -1.01358e-13 0 8.13152e-14 2.82566e-14 0 0 0 0)
(0 8.55819e-15 0 5.42101e-14 -1.72227e-14 0 0 0 0)
(5.42101e-14 -7.53725e-15 0 5.42101e-14 -1.66018e-14 0 0 0 0)
(0 1.47568e-14 0 -1.0842e-13 -2.77353e-14 0 0 0 0)
(2.71051e-14 -1.01884e-14 0 -2.71051e-14 -3.52837e-14 0 0 0 0)
(2.71051e-14 -1.69772e-14 0 0 -2.70724e-14 0 0 0 0)
(0 -5.48165e-16 0 0 -7.37488e-15 0 0 0 0)
(0 7.25384e-15 0 0 7.85921e-15 0 0 0 0)
(0 1.12702e-14 0 -5.42101e-14 1.09062e-14 0 0 0 0)
(0 6.03456e-15 0 -5.42101e-14 1.27757e-14 0 0 0 0)
(-2.71051e-14 4.81252e-15 0 -2.71051e-14 1.42781e-14 0 0 0 0)
(2.71051e-14 1.84002e-14 0 0 -5.24642e-15 0 0 0 0)
(0 -1.3067e-15 0 -2.71051e-14 1.2336e-14 0 0 0 0)
(0 -3.24341e-14 0 5.42101e-14 1.43729e-14 0 0 0 0)
(-2.71051e-14 -7.27308e-15 0 0 -3.63921e-15 0 0 0 0)
(-2.71051e-14 2.36479e-14 0 0 -6.05723e-15 0 0 0 0)
(-9.75782e-13 1.02551e-11 0 1.65341e-12 7.04268e-13 0 0 0 0)
(1.16552e-12 -1.23675e-11 0 -5.14996e-13 -1.88944e-13 0 0 0 0)
(-2.71051e-13 2.66009e-12 0 -8.13152e-14 4.12946e-14 0 0 0 0)
(1.35525e-13 -6.40988e-13 0 8.13152e-14 -2.36683e-14 0 0 0 0)
(-2.71051e-14 1.2477e-13 0 2.71051e-14 -1.59094e-15 0 0 0 0)
(0 -3.31239e-14 0 5.42101e-14 1.76256e-15 0 0 0 0)
(-8.13152e-14 -1.87067e-15 0 2.71051e-14 2.00071e-14 0 0 0 0)
(0 -1.88946e-14 0 8.13152e-14 -6.74705e-15 0 0 0 0)
(5.42101e-14 -1.79608e-14 0 5.42101e-14 -2.44681e-14 0 0 0 0)
(0 8.25848e-16 0 0 -1.23706e-15 0 0 0 0)
(0 1.29149e-14 0 -2.71051e-14 7.10936e-15 0 0 0 0)
(-5.42101e-14 7.20672e-15 0 -5.42101e-14 9.78601e-15 0 0 0 0)
(-2.71051e-14 4.02953e-15 0 0 2.93329e-15 0 0 0 0)
(2.71051e-14 8.10884e-15 0 -5.42101e-14 -1.78238e-15 0 0 0 0)
(0 6.59391e-16 0 0 7.13288e-15 0 0 0 0)
(0 1.47704e-14 0 0 4.83476e-15 0 0 0 0)
(5.42101e-14 1.79295e-14 0 -5.42101e-14 -1.78102e-14 0 0 0 0)
(2.71051e-14 -2.21937e-14 0 -5.42101e-14 -6.6435e-15 0 0 0 0)
(-2.71051e-14 -2.17496e-14 0 0 8.50949e-15 0 0 0 0)
(0 1.79328e-14 0 -2.71051e-14 3.91546e-15 0 0 0 0)
(1.35525e-12 -6.03601e-12 0 -8.13152e-13 -1.66011e-11 0 0 0 0)
(-1.78893e-12 7.33002e-12 0 2.43945e-13 3.51048e-12 0 0 0 0)
(4.60786e-13 -1.58886e-12 0 8.13152e-14 -8.63494e-13 0 0 0 0)
(-2.71051e-14 3.5248e-13 0 2.71051e-14 1.52246e-13 0 0 0 0)
(5.42101e-14 -7.59276e-14 0 0 -5.65863e-14 0 0 0 0)
(0 3.01563e-14 0 -2.71051e-14 -7.82809e-15 0 0 0 0)
(0 -1.60469e-14 0 0 -1.00003e-14 0 0 0 0)
(5.42101e-14 -2.97184e-14 0 2.71051e-14 -7.10929e-15 0 0 0 0)
(-2.71051e-14 -4.67845e-15 0 0 3.78001e-15 0 0 0 0)
(-2.71051e-14 1.46002e-14 0 0 1.19195e-14 0 0 0 0)
(-2.71051e-14 1.04749e-14 0 2.71051e-14 5.17971e-15 0 0 0 0)
(0 3.07778e-15 0 2.71051e-14 2.21231e-15 0 0 0 0)
(2.71051e-14 -2.98202e-16 0 2.71051e-14 7.94629e-15 0 0 0 0)
(-2.71051e-14 1.02341e-14 0 5.42101e-14 1.0194e-14 0 0 0 0)
(2.71051e-14 1.14297e-14 0 0 1.30542e-14 0 0 0 0)
(-5.42101e-14 -6.54295e-15 0 5.42101e-14 2.83167e-14 0 0 0 0)
(0 -1.2785e-14 0 5.42101e-14 -1.09478e-14 0 0 0 0)
(2.71051e-14 -6.11437e-15 0 0 -1.77157e-14 0 0 0 0)
(-2.71051e-14 3.28588e-15 0 2.71051e-14 1.20972e-14 0 0 0 0)
(0 1.1223e-14 0 2.71051e-14 9.98017e-15 0 0 0 0)
(-1.51788e-12 -2.8355e-12 0 -1.87025e-12 1.90035e-11 0 0 0 0)
(2.05998e-12 3.37003e-12 0 5.42101e-13 -4.10238e-12 0 0 0 0)
(-5.14996e-13 -6.9814e-13 0 0 9.72068e-13 0 0 0 0)
(2.71051e-14 1.6592e-13 0 0 -1.82495e-13 0 0 0 0)
(-5.42101e-14 -3.53041e-14 0 -2.71051e-14 6.7123e-14 0 0 0 0)
(0 1.34621e-14 0 -8.13152e-14 -1.30566e-14 0 0 0 0)
(0 -1.15188e-15 0 -2.71051e-14 -1.54672e-14 0 0 0 0)
(0 -5.11428e-15 0 -5.42101e-14 5.73736e-16 0 0 0 0)
(0 1.06805e-15 0 -5.42101e-14 1.26873e-14 0 0 0 0)
(0 2.22555e-15 0 -8.13152e-14 -3.21833e-15 0 0 0 0)
(2.71051e-14 3.20766e-15 0 -1.0842e-13 -1.31105e-14 0 0 0 0)
(0 9.97329e-15 0 -1.0842e-13 -5.64647e-15 0 0 0 0)
(-2.71051e-14 1.20112e-14 0 -8.13152e-14 3.43956e-15 0 0 0 0)
(0 1.32168e-14 0 -5.42101e-14 5.59028e-15 0 0 0 0)
(2.71051e-14 1.87821e-14 0 0 -1.26739e-14 0 0 0 0)
(0 -9.23167e-15 0 -5.42101e-14 -1.60002e-14 0 0 0 0)
(-2.71051e-14 -2.81029e-14 0 2.71051e-14 2.80206e-16 0 0 0 0)
(2.71051e-14 8.51282e-16 0 0 1.15417e-14 0 0 0 0)
(2.71051e-14 5.94632e-15 0 -2.71051e-14 1.84054e-14 0 0 0 0)
(-5.42101e-14 -4.14454e-15 0 0 3.40528e-15 0 0 0 0)
(0 8.86511e-12 0 4.74338e-12 -2.96191e-13 0 0 0 0)
(2.71051e-14 -1.07014e-11 0 -1.27394e-12 1.01546e-13 0 0 0 0)
(-2.71051e-14 2.33102e-12 0 5.42101e-14 4.07342e-15 0 0 0 0)
(0 -5.52465e-13 0 -5.42101e-14 2.9723e-14 0 0 0 0)
(-5.42101e-14 9.35105e-14 0 0 2.19963e-14 0 0 0 0)
(0 -5.24339e-14 0 5.42101e-14 1.54132e-14 0 0 0 0)
(0 -2.41655e-15 0 0 7.80777e-16 0 0 0 0)
(0 -1.56389e-15 0 0 7.06705e-15 0 0 0 0)
(0 -8.47051e-15 0 0 8.97385e-15 0 0 0 0)
(-2.71051e-14 -1.11976e-14 0 5.42101e-14 7.69033e-15 0 0 0 0)
(-5.42101e-14 8.04676e-15 0 -2.71051e-14 1.75262e-15 0 0 0 0)
(0 1.96279e-14 0 0 -7.60954e-15 0 0 0 0)
(5.42101e-14 1.09386e-14 0 0 -1.1376e-14 0 0 0 0)
(0 -5.87935e-15 0 0 -1.24383e-14 0 0 0 0)
(2.71051e-14 -1.01608e-14 0 0 -2.59244e-14 0 0 0 0)
(5.42101e-14 6.41119e-15 0 -5.42101e-14 -4.09973e-14 0 0 0 0)
(2.71051e-14 1.47569e-14 0 -2.71051e-14 -1.15008e-14 0 0 0 0)
(-2.71051e-14 1.20108e-14 0 0 2.35178e-15 0 0 0 0)
(0 -4.85054e-15 0 0 2.76329e-15 0 0 0 0)
(0 -1.05877e-14 0 0 2.93875e-15 0 0 0 0)
(1.97867e-12 -3.03015e-12 0 -1.19262e-12 -1.99987e-11 0 0 0 0)
(-2.6563e-12 3.67029e-12 0 3.79471e-13 4.28955e-12 0 0 0 0)
(7.31836e-13 -7.69963e-13 0 8.13152e-14 -1.04994e-12 0 0 0 0)
(-5.42101e-14 1.83843e-13 0 5.42101e-14 1.86116e-13 0 0 0 0)
(2.71051e-14 -4.96138e-14 0 8.13152e-14 -7.31103e-14 0 0 0 0)
(0 -7.75344e-15 0 8.13152e-14 5.63618e-15 0 0 0 0)
(0 -9.49804e-15 0 5.42101e-14 1.01947e-15 0 0 0 0)
(2.71051e-14 3.0788e-15 0 8.13152e-14 7.51615e-15 0 0 0 0)
(0 1.69133e-15 0 5.42101e-14 1.10917e-14 0 0 0 0)
(-2.71051e-14 -4.99569e-15 0 5.42101e-14 2.37008e-14 0 0 0 0)
(-2.71051e-14 -1.20922e-14 0 1.35525e-13 2.52918e-14 0 0 0 0)
(2.71051e-14 -3.15535e-15 0 1.35525e-13 3.02151e-15 0 0 0 0)
(-2.71051e-14 7.18244e-15 0 1.0842e-13 -4.3881e-15 0 0 0 0)
(2.71051e-14 -1.33156e-15 0 1.0842e-13 -5.56955e-15 0 0 0 0)
(-2.71051e-14 -9.77691e-15 0 2.71051e-14 5.22142e-15 0 0 0 0)
(0 5.1919e-15 0 5.42101e-14 6.51784e-15 0 0 0 0)
(0 1.52462e-14 0 -5.42101e-14 -1.41304e-15 0 0 0 0)
(0 1.51154e-14 0 0 -8.70194e-15 0 0 0 0)
(5.42101e-14 6.53329e-15 0 -2.71051e-14 -8.08642e-15 0 0 0 0)
(-5.42101e-14 -9.84658e-15 0 0 3.63139e-15 0 0 0 0)
(-7.86047e-13 -6.84404e-12 0 -1.46367e-12 1.25554e-11 0 0 0 0)
(1.24683e-12 8.24735e-12 0 2.98156e-13 -2.68126e-12 0 0 0 0)
(-3.25261e-13 -1.77241e-12 0 -1.35525e-13 6.37802e-13 0 0 0 0)
(0 4.24367e-13 0 -5.42101e-14 -1.38881e-13 0 0 0 0)
(0 -8.69689e-14 0 -8.13152e-14 2.95927e-14 0 0 0 0)
(-2.71051e-14 2.16958e-14 0 -8.13152e-14 -2.29786e-15 0 0 0 0)
(0 -5.36572e-16 0 -5.42101e-14 1.56504e-14 0 0 0 0)
(0 8.50839e-15 0 -8.13152e-14 7.73674e-15 0 0 0 0)
(-2.71051e-14 7.71416e-15 0 -5.42101e-14 4.0632e-15 0 0 0 0)
(-2.71051e-14 3.00243e-15 0 -5.42101e-14 -1.66875e-15 0 0 0 0)
(2.71051e-14 -1.26326e-14 0 -5.42101e-14 6.05646e-15 0 0 0 0)
(-2.71051e-14 -1.0052e-14 0 -5.42101e-14 2.3056e-14 0 0 0 0)
(0 2.34749e-15 0 -5.42101e-14 1.92638e-14 0 0 0 0)
(0 3.73018e-15 0 -5.42101e-14 1.35261e-14 0 0 0 0)
(0 1.9266e-15 0 -2.71051e-14 1.68652e-14 0 0 0 0)
(-5.42101e-14 -2.23272e-16 0 0 2.13764e-14 0 0 0 0)
(0 -4.6287e-16 0 5.42101e-14 1.18966e-14 0 0 0 0)
(-5.42101e-14 5.33745e-15 0 0 6.59304e-15 0 0 0 0)
(5.42101e-14 7.48279e-15 0 0 -8.55624e-15 0 0 0 0)
(0 -6.13269e-15 0 -2.71051e-14 -7.42303e-15 0 0 0 0)
)
;

boundaryField
{
    movingWall
    {
        type            extrapolatedCalculated;
        value           nonuniform List<tensor> 
20
(
(-7.86047e-13 -6.84404e-12 0 4.88498e-12 3.4806e-11 0 0 0 0)
(1.24683e-12 8.24735e-12 0 -1.59872e-12 -7.42986e-12 0 0 0 0)
(-3.25261e-13 -1.77241e-12 0 -2.66454e-13 1.81662e-12 0 0 0 0)
(0 4.24367e-13 0 -2.22045e-13 -3.4021e-13 0 0 0 0)
(0 -8.69689e-14 0 -3.10862e-13 1.19156e-13 0 0 0 0)
(-2.71051e-14 2.16958e-14 0 -2.66454e-13 7.66533e-15 0 0 0 0)
(0 -5.36572e-16 0 -1.77636e-13 3.23727e-14 0 0 0 0)
(0 8.50839e-15 0 -2.66454e-13 9.81162e-15 0 0 0 0)
(-2.71051e-14 7.71416e-15 0 -1.77636e-13 -1.66085e-15 0 0 0 0)
(-2.71051e-14 3.00243e-15 0 -1.33227e-13 -2.1045e-14 0 0 0 0)
(2.71051e-14 -1.26326e-14 0 -1.77636e-13 -1.36706e-14 0 0 0 0)
(-2.71051e-14 -1.0052e-14 0 -1.33227e-13 2.94852e-14 0 0 0 0)
(0 2.34749e-15 0 -1.33227e-13 2.65375e-14 0 0 0 0)
(0 3.73018e-15 0 -8.88178e-14 2.00952e-14 0 0 0 0)
(0 1.9266e-15 0 -4.44089e-14 1.16168e-14 0 0 0 0)
(-5.42101e-14 -2.23272e-16 0 -8.88178e-14 1.23888e-14 0 0 0 0)
(0 -4.6287e-16 0 8.88178e-14 1.25099e-14 0 0 0 0)
(-5.42101e-14 5.33745e-15 0 0 1.42403e-14 0 0 0 0)
(5.42101e-14 7.48279e-15 0 8.88178e-14 -8.83993e-15 0 0 0 0)
(0 -6.13269e-15 0 0 -1.56908e-14 0 0 0 0)
)
;
    }
    fixedWalls
    {
        type            extrapolatedCalculated;
        value           nonuniform List<tensor> 
60
(
(-5.77316e-12 5.44539e-11 0 9.75782e-13 1.50723e-11 0 0 0 0)
(9.68114e-12 5.83517e-12 0 1.16552e-12 -2.60569e-11 0 0 0 0)
(-1.06581e-12 -4.97736e-11 0 -4.77049e-12 7.57325e-12 0 0 0 0)
(-9.41469e-12 3.61282e-11 0 2.49366e-12 1.21991e-11 0 0 0 0)
(8.92619e-12 -9.77112e-13 0 1.00289e-12 -1.81963e-11 0 0 0 0)
(-5.41789e-12 -3.66569e-11 0 -2.03288e-12 1.31932e-11 0 0 0 0)
(8.43769e-13 5.17955e-11 0 1.84314e-12 4.64506e-12 0 0 0 0)
(1.90958e-12 -1.80766e-11 0 -8.13152e-14 -1.89397e-11 0 0 0 0)
(4.44089e-13 -2.39633e-11 0 -6.77626e-13 1.53718e-11 0 0 0 0)
(-8.88178e-13 4.34106e-11 0 -6.23416e-13 -4.83726e-12 0 0 0 0)
(-2.04281e-12 -4.33123e-11 0 5.69206e-13 -2.95744e-12 0 0 0 0)
(1.59872e-12 3.15808e-11 0 3.79471e-13 1.03587e-11 0 0 0 0)
(-6.21725e-13 -1.8777e-12 0 -1.89735e-13 -1.63058e-11 0 0 0 0)
(7.54952e-13 -3.36423e-11 0 -1.11131e-12 1.35127e-11 0 0 0 0)
(-4.9738e-12 5.21733e-11 0 1.65341e-12 7.04268e-13 0 0 0 0)
(7.37188e-12 -3.08252e-11 0 -8.13152e-13 -1.66011e-11 0 0 0 0)
(-8.26006e-12 -1.4231e-11 0 -1.87025e-12 1.90035e-11 0 0 0 0)
(-8.88178e-14 4.51888e-11 0 4.74338e-12 -2.96191e-13 0 0 0 0)
(1.0747e-11 -1.54158e-11 0 -1.19262e-12 -1.99987e-11 0 0 0 0)
(-4.88498e-12 -3.4806e-11 0 -1.46367e-12 1.25554e-11 0 0 0 0)
(8.88178e-14 1.253e-14 0 -5.42101e-14 -1.61885e-14 0 0 0 0)
(8.88178e-14 5.22238e-14 0 5.42101e-14 -1.05011e-14 0 0 0 0)
(0 5.45342e-14 0 0 6.31302e-15 0 0 0 0)
(0 2.69717e-14 0 0 5.12978e-15 0 0 0 0)
(-4.44089e-14 3.40151e-14 0 0 2.91629e-15 0 0 0 0)
(0 1.53066e-14 0 0 1.11601e-14 0 0 0 0)
(0 -1.06254e-14 0 0 -7.49792e-17 0 0 0 0)
(0 1.56065e-14 0 2.71051e-14 -6.58539e-15 0 0 0 0)
(-1.33227e-13 1.57161e-14 0 2.71051e-14 1.51705e-15 0 0 0 0)
(-4.44089e-14 9.53831e-15 0 -2.71051e-14 -2.27348e-15 0 0 0 0)
(0 2.481e-14 0 -2.71051e-14 -3.22091e-15 0 0 0 0)
(0 2.2422e-14 0 0 2.84115e-15 0 0 0 0)
(0 1.34455e-14 0 2.71051e-14 -1.42394e-15 0 0 0 0)
(-4.44089e-14 2.81177e-14 0 0 -6.05723e-15 0 0 0 0)
(0 3.76744e-14 0 -2.71051e-14 3.91546e-15 0 0 0 0)
(0 1.24559e-14 0 2.71051e-14 9.98017e-15 0 0 0 0)
(-8.88178e-14 -2.2463e-15 0 0 3.40528e-15 0 0 0 0)
(0 -1.16528e-15 0 0 2.93875e-15 0 0 0 0)
(-8.88178e-14 -1.40013e-14 0 0 3.63139e-15 0 0 0 0)
(0 -1.56908e-14 0 -2.71051e-14 -7.42303e-15 0 0 0 0)
(-9.21572e-13 1.07139e-11 0 -5.77316e-12 5.44539e-11 0 0 0 0)
(1.46367e-12 -1.29077e-11 0 2.08722e-12 -1.15982e-11 0 0 0 0)
(-4.60786e-13 2.76249e-12 0 8.88178e-14 2.8229e-12 0 0 0 0)
(0 -6.75135e-13 0 2.66454e-13 -5.4826e-13 0 0 0 0)
(-2.71051e-14 1.29818e-13 0 8.88178e-14 1.2236e-13 0 0 0 0)
(2.71051e-14 -2.57377e-14 0 1.33227e-13 -2.8989e-14 0 0 0 0)
(-2.71051e-14 1.13122e-14 0 1.77636e-13 1.94093e-14 0 0 0 0)
(0 2.63763e-15 0 1.33227e-13 1.626e-14 0 0 0 0)
(0 1.18804e-14 0 8.88178e-14 2.99598e-14 0 0 0 0)
(-2.71051e-14 9.89412e-15 0 4.44089e-14 6.37815e-14 0 0 0 0)
(-2.71051e-14 -7.88563e-16 0 0 6.95363e-14 0 0 0 0)
(-8.13152e-14 -1.92965e-14 0 -8.88178e-14 6.06273e-14 0 0 0 0)
(2.71051e-14 -2.43268e-14 0 -1.77636e-13 -7.64979e-15 0 0 0 0)
(0 -9.31519e-15 0 0 -3.66799e-14 0 0 0 0)
(0 6.53304e-15 0 -8.88178e-14 -4.49105e-14 0 0 0 0)
(5.42101e-14 1.56498e-14 0 0 -1.05478e-14 0 0 0 0)
(-5.42101e-14 1.07216e-16 0 -8.88178e-14 1.76885e-14 0 0 0 0)
(0 -9.65509e-15 0 -8.88178e-14 -1.01189e-14 0 0 0 0)
(0 -6.0278e-16 0 -8.88178e-14 -2.09319e-14 0 0 0 0)
(5.42101e-14 8.36547e-15 0 -8.88178e-14 -1.253e-14 0 0 0 0)
)
;
    }
    frontAndBack
    {
        type            empty;
    }
}


// ************************************************************************* //
