/*--------------------------------*- C++ -*----------------------------------*\
| =========                 |                                                 |
| \\      /  F ield         | OpenFOAM: The Open Source CFD Toolbox           |
|  \\    /   O peration     | Version:  2506                                  |
|   \\  /    A nd           | Website:  www.openfoam.com                      |
|    \\/     M anipulation  |                                                 |
\*---------------------------------------------------------------------------*/
FoamFile
{
    version     2.0;
    format      ascii;
    arch        "LSB;label=32;scalar=64";
    class       volVectorField;
    location    "6.625";
    object      LambVectorField;
}
// * * * * * * * * * * * * * * * * * * * * * * * * * * * * * * * * * * * * * //

dimensions      [0 1 -2 0 0 0 0];

internalField   nonuniform List<vector> 
400
(
(-1.3257e-24 -9.73813e-12 0)
(-3.67194e-25 1.26638e-11 -0)
(-1.94956e-26 -2.76249e-12 0)
(-9.99677e-28 7.29345e-13 -0)
(-3.14199e-29 -1.02713e-13 0)
(-3.82965e-30 5.28428e-14 -0)
(-5.48906e-31 -1.13122e-14 0)
(-1.0722e-31 -2.63763e-15 0)
(-8.89835e-31 -1.18804e-14 0)
(-1.57765e-30 -9.89412e-15 0)
(1.37084e-31 7.88563e-16 0)
(2.92474e-30 1.92965e-14 0)
(-4.65237e-31 2.43268e-14 -0)
(-3.33973e-30 3.64202e-14 -0)
(7.33506e-31 -6.53304e-15 -0)
(-3.02069e-31 1.14553e-14 -0)
(-4.74122e-33 -1.07216e-16 0)
(-2.44247e-31 9.65509e-15 -0)
(-3.15432e-32 6.0278e-16 -0)
(1.96018e-30 -6.25756e-14 -0)
(2.60705e-29 1.78713e-15 0)
(-2.77508e-27 9.4051e-13 -0)
(-3.37324e-28 -3.01974e-13 0)
(1.45074e-30 2.09886e-14 0)
(2.17483e-31 2.31301e-15 0)
(-3.57975e-30 -7.78366e-14 0)
(-4.61138e-30 -7.78421e-14 0)
(-9.38555e-31 -8.33547e-14 0)
(-7.49893e-30 -9.41658e-14 0)
(-7.76989e-30 -5.55922e-14 0)
(-4.64043e-30 -4.96533e-14 0)
(1.08169e-30 1.14831e-14 0)
(8.36368e-31 -3.91287e-14 -0)
(1.16993e-30 -2.06643e-14 -0)
(5.44089e-30 -6.34264e-14 -0)
(-9.96052e-31 -2.80206e-14 0)
(-4.41322e-31 -2.2699e-15 0)
(1.76711e-30 3.03387e-14 0)
(-2.0573e-30 1.88806e-14 -0)
(-3.95044e-30 3.02578e-14 -0)
(-6.12655e-25 4.92353e-12 -0)
(-2.87481e-25 -1.04562e-11 0)
(-1.60434e-26 2.5388e-12 -0)
(-7.89849e-28 -5.05121e-13 0)
(-4.0803e-29 2.21891e-13 -0)
(1.38758e-29 8.78631e-14 0)
(3.37993e-30 1.55879e-13 0)
(-6.58817e-30 1.44426e-13 -0)
(-5.80901e-30 8.62858e-14 -0)
(-5.36834e-30 5.63173e-14 -0)
(-4.31283e-30 4.87905e-14 -0)
(1.70122e-31 -4.13652e-15 -0)
(-1.3879e-31 2.95111e-15 -0)
(-2.20077e-30 3.11556e-14 -0)
(-4.42752e-30 5.05802e-14 -0)
(-3.56604e-31 1.03849e-14 -0)
(1.63922e-30 2.0576e-14 0)
(1.46465e-30 4.73201e-14 0)
(-2.04899e-30 1.67288e-14 -0)
(3.52862e-30 -2.58819e-14 -0)
(-4.16648e-25 -4.613e-12 0)
(-1.49428e-25 7.76098e-12 -0)
(-8.3818e-27 -1.83043e-12 0)
(-3.47955e-28 3.66475e-13 -0)
(-6.198e-29 -1.66487e-13 0)
(-2.70479e-30 -1.56073e-14 0)
(5.95235e-30 2.31335e-14 0)
(1.44831e-29 6.79897e-14 0)
(1.27479e-29 1.0667e-13 0)
(-4.13075e-30 1.01919e-13 -0)
(-4.93123e-30 5.69885e-14 -0)
(-3.75472e-30 5.49626e-14 -0)
(-8.6891e-30 9.2383e-14 -0)
(-1.12657e-29 6.29397e-14 -0)
(-8.04282e-30 4.43495e-14 -0)
(3.6789e-30 -4.5765e-14 -0)
(6.96161e-32 1.32646e-14 0)
(-1.17956e-30 -2.0331e-14 0)
(-7.83953e-31 1.25447e-14 -0)
(8.76056e-31 -1.29922e-14 -0)
(-3.05166e-27 1.24926e-12 -0)
(9.04298e-30 -4.32607e-13 -0)
(-1.56756e-30 1.11486e-13 -0)
(3.07807e-30 -5.9699e-14 -0)
(-1.51316e-30 -3.70613e-14 0)
(-1.28007e-30 -2.66667e-14 0)
(-1.03742e-30 -2.84655e-14 0)
(-3.75081e-30 -6.08831e-14 0)
(-2.55658e-30 -2.47792e-14 0)
(5.5439e-31 1.44565e-14 0)
(-2.90761e-30 7.02472e-14 -0)
(-3.78104e-30 3.09864e-14 -0)
(-2.11229e-30 2.63361e-14 -0)
(3.26285e-30 -2.85382e-14 -0)
(4.63525e-30 -7.03656e-14 -0)
(-1.83752e-30 -3.89125e-14 0)
(-1.5615e-30 -2.99135e-14 0)
(6.26312e-31 8.31684e-15 0)
(-4.96553e-31 1.60344e-14 -0)
(9.86487e-31 -1.16006e-14 -0)
(-4.69627e-25 5.12457e-12 -0)
(-1.60289e-25 -7.98743e-12 0)
(-9.12148e-27 1.93229e-12 -0)
(-3.07271e-28 -3.02491e-13 0)
(-4.84509e-29 1.42342e-13 -0)
(-8.71419e-30 6.381e-14 -0)
(1.02765e-30 -6.21563e-15 -0)
(1.73182e-31 -2.32746e-15 -0)
(-6.91182e-31 4.86547e-15 -0)
(4.98702e-30 -4.05241e-14 -0)
(5.66216e-31 -7.19666e-14 -0)
(-4.71299e-30 -8.64745e-14 0)
(-2.02622e-30 -4.63398e-14 0)
(6.17361e-31 -2.5509e-14 -0)
(-3.60855e-31 -1.29971e-14 0)
(5.31553e-31 5.02559e-15 0)
(-3.05124e-31 1.35661e-14 -0)
(1.07973e-31 -3.61216e-15 -0)
(7.50294e-31 5.50476e-14 0)
(9.42751e-32 -2.46365e-15 -0)
(-1.08275e-24 -8.36173e-12 0)
(-3.17326e-25 1.15643e-11 -0)
(-1.8052e-26 -2.76572e-12 0)
(-6.9464e-28 4.92945e-13 -0)
(-5.68754e-29 -2.34675e-13 0)
(2.19321e-29 -1.49591e-13 -0)
(-2.44429e-29 -2.18313e-13 0)
(-1.80275e-29 -1.29543e-13 0)
(-6.98023e-30 -1.33864e-13 0)
(-1.82931e-29 -1.49267e-13 0)
(-2.57048e-29 -1.35602e-13 0)
(-3.36713e-30 -2.73043e-14 0)
(-1.6297e-30 2.05e-14 -0)
(1.36621e-30 -1.67262e-14 -0)
(-6.44417e-30 -7.34259e-14 0)
(7.46111e-31 6.75356e-15 0)
(-2.13225e-31 -1.05408e-14 0)
(6.0792e-32 -1.10198e-15 -0)
(-1.94937e-30 -6.23831e-14 0)
(1.53569e-31 5.7812e-15 0)
(-1.57682e-25 3.48919e-12 -0)
(-3.86193e-26 -4.07098e-12 0)
(-2.42839e-27 1.04971e-12 -0)
(-7.32522e-29 -2.12553e-13 0)
(-2.22595e-29 1.18487e-13 -0)
(3.00028e-31 -1.10755e-14 -0)
(-6.62096e-30 8.58651e-14 -0)
(4.22137e-31 -5.81546e-15 -0)
(1.56832e-31 -8.27421e-15 -0)
(-9.15925e-32 -9.02094e-15 0)
(2.43353e-31 3.41523e-15 0)
(-1.66854e-30 6.95255e-14 -0)
(4.95683e-30 -6.05237e-14 -0)
(-3.96597e-30 -1.01337e-13 0)
(3.20992e-31 2.713e-15 0)
(1.59728e-31 1.33034e-14 0)
(-5.30934e-31 3.60743e-14 -0)
(-2.17825e-30 2.80393e-14 -0)
(9.30391e-32 -3.86692e-15 -0)
(-8.11436e-31 2.07974e-14 -0)
(-2.40594e-25 4.01604e-12 -0)
(-7.08388e-26 -5.46109e-12 0)
(-3.64374e-27 1.27496e-12 -0)
(-1.7259e-28 -2.25896e-13 0)
(-3.56648e-30 6.27349e-14 -0)
(1.02636e-29 7.50964e-14 0)
(5.28175e-31 9.89564e-14 0)
(-3.33577e-30 8.39396e-14 -0)
(-3.07829e-30 1.4724e-13 -0)
(-2.06909e-29 1.31886e-13 -0)
(-6.5556e-30 2.5651e-14 -0)
(1.24003e-29 -8.71153e-14 -0)
(-4.24807e-30 -5.781e-14 0)
(-2.60333e-30 -1.58059e-14 0)
(-3.60541e-30 9.1258e-14 -0)
(1.04336e-29 -5.07044e-14 -0)
(3.82424e-30 -5.12875e-14 -0)
(-1.50532e-30 -4.17547e-14 0)
(2.49165e-30 3.46392e-14 0)
(-1.19321e-30 3.03692e-14 -0)
(-9.96286e-25 -9.18013e-12 0)
(-2.32684e-25 1.01347e-11 -0)
(-1.35655e-26 -2.44274e-12 0)
(-5.02284e-28 5.1711e-13 -0)
(-5.82181e-29 -1.52283e-13 0)
(3.302e-31 3.51393e-14 0)
(-2.49947e-30 -8.08641e-14 0)
(-3.14239e-31 -6.4307e-14 0)
(-9.80434e-30 -7.43438e-14 0)
(-1.64633e-29 -7.9832e-14 0)
(8.60333e-30 7.35034e-14 0)
(8.18246e-31 6.15643e-14 0)
(1.41841e-30 3.26034e-14 0)
(-4.58963e-30 1.10083e-13 -0)
(-2.01939e-29 8.27034e-14 -0)
(-1.2798e-29 3.91827e-14 -0)
(1.15011e-29 -1.22485e-13 -0)
(-7.64652e-30 -8.98859e-14 0)
(1.32814e-31 -1.62136e-14 -0)
(7.22736e-31 -3.03088e-14 -0)
(-9.77235e-25 9.02501e-12 -0)
(-2.40558e-25 -1.01404e-11 0)
(-1.3257e-26 2.40085e-12 -0)
(-7.17997e-28 -5.35585e-13 0)
(-3.924e-29 2.36464e-13 -0)
(1.27231e-30 2.11524e-14 0)
(-1.36901e-29 1.28644e-13 -0)
(3.79971e-30 -2.67417e-14 -0)
(7.55463e-30 -6.86459e-14 -0)
(-1.12002e-31 -4.93659e-14 0)
(-7.2278e-30 -6.42149e-14 0)
(7.14791e-31 6.98606e-15 0)
(3.02176e-30 7.07742e-14 0)
(-2.74421e-30 4.33358e-14 -0)
(-5.31903e-31 4.44691e-15 -0)
(-6.25356e-30 5.80144e-14 -0)
(-1.30703e-29 8.29048e-14 -0)
(-1.00481e-29 8.12364e-14 -0)
(9.67314e-31 -6.16646e-15 -0)
(3.03888e-30 -4.89943e-14 -0)
(-4.56949e-25 -5.78768e-12 0)
(-1.25814e-25 7.28067e-12 -0)
(-6.65734e-27 -1.67402e-12 0)
(-2.47685e-28 3.05271e-13 -0)
(-5.77907e-29 -1.51266e-13 0)
(-3.03708e-30 -1.9078e-14 0)
(-1.75968e-29 -5.83104e-14 0)
(2.19094e-29 1.0944e-13 0)
(1.60162e-30 7.80005e-14 0)
(-1.57877e-30 4.18688e-14 -0)
(-8.30176e-30 6.53148e-14 -0)
(-1.07732e-30 7.24226e-15 -0)
(-3.53002e-31 1.7692e-15 -0)
(6.72704e-30 -4.04156e-14 -0)
(3.36006e-30 -5.05873e-14 -0)
(-3.43611e-30 -5.02533e-14 0)
(-7.44402e-30 7.02336e-14 -0)
(1.14049e-30 -1.24156e-14 -0)
(-6.50446e-32 -3.5804e-15 0)
(2.12381e-31 -3.78881e-15 -0)
(-8.69749e-28 1.8528e-13 -0)
(-4.79036e-28 -5.07402e-13 0)
(-5.80168e-30 3.57412e-14 -0)
(-2.22317e-30 -4.98672e-14 0)
(-5.92299e-30 -9.07087e-14 0)
(-9.13448e-30 -6.59446e-14 0)
(-1.14794e-29 -6.2852e-14 0)
(1.22417e-29 5.44228e-14 0)
(8.25468e-30 4.57287e-14 0)
(4.19504e-30 1.08398e-13 0)
(-6.88446e-30 7.62268e-14 -0)
(-1.1847e-29 6.52845e-14 -0)
(-1.10778e-29 5.50971e-14 -0)
(-9.41656e-30 4.94732e-14 -0)
(2.87115e-30 -1.86815e-14 -0)
(5.88526e-32 -1.67124e-14 -0)
(-3.41442e-31 -2.54153e-14 0)
(-1.26977e-31 6.21844e-15 -0)
(-1.38569e-30 2.84245e-14 -0)
(-6.34245e-31 1.88687e-14 -0)
(-4.57537e-25 5.44003e-12 -0)
(-1.40042e-25 -7.53221e-12 0)
(-7.55124e-27 1.80835e-12 -0)
(-3.87041e-28 -3.6826e-13 0)
(-4.05732e-29 1.82674e-13 -0)
(1.70807e-30 4.56519e-14 0)
(-8.43011e-30 6.17474e-14 -0)
(4.67548e-30 -1.23177e-13 -0)
(-1.86798e-31 -1.69166e-14 0)
(-2.37412e-30 1.69772e-14 -0)
(-8.70101e-32 5.48165e-16 -0)
(1.05415e-30 -7.25384e-15 -0)
(5.64383e-30 -6.54803e-14 -0)
(1.96528e-30 -6.02447e-14 -0)
(8.24931e-31 -3.19176e-14 -0)
(-2.85268e-31 -1.84002e-14 0)
(-4.08016e-30 -2.57983e-14 0)
(2.11109e-31 8.66442e-14 0)
(-1.20868e-30 7.27308e-15 -0)
(1.66231e-30 -2.36479e-14 -0)
(-1.12194e-24 -8.60167e-12 0)
(-3.30477e-25 1.18525e-11 -0)
(-1.85258e-26 -2.74141e-12 0)
(-9.25565e-28 7.22304e-13 -0)
(-3.39739e-29 -9.76647e-14 0)
(-2.94397e-30 8.7334e-14 -0)
(4.81677e-31 2.89757e-14 0)
(-5.2526e-30 1.0021e-13 -0)
(-1.24367e-29 7.21709e-14 -0)
(1.91616e-31 -8.25848e-16 -0)
(6.56584e-30 -4.00199e-14 -0)
(6.31825e-30 -6.14168e-14 -0)
(3.70705e-31 -4.02953e-15 -0)
(3.8999e-30 -6.2319e-14 -0)
(7.19306e-33 -6.59391e-16 -0)
(8.26929e-31 -1.47704e-14 -0)
(-9.86834e-30 -7.21397e-14 0)
(-3.94794e-30 -3.20164e-14 0)
(-1.8518e-30 2.17496e-14 -0)
(4.24193e-30 -4.50378e-14 -0)
(-4.02489e-25 5.22286e-12 -0)
(-1.18358e-25 -7.08608e-12 0)
(-6.28458e-27 1.67018e-12 -0)
(-2.64958e-28 -3.25375e-13 0)
(-1.80721e-29 7.59276e-14 -0)
(-3.1517e-30 -5.72613e-14 0)
(1.01971e-30 1.60469e-14 0)
(-5.99078e-30 5.68235e-14 -0)
(-1.09307e-30 4.67845e-15 -0)
(2.22234e-30 -1.46002e-14 -0)
(-1.4574e-30 1.66302e-14 -0)
(-1.14042e-30 2.40273e-14 -0)
(-1.5581e-30 2.74033e-14 -0)
(-2.21839e-30 4.3976e-14 -0)
(-5.19856e-31 -1.14297e-14 0)
(3.87915e-30 6.07531e-14 0)
(-1.33631e-30 6.69951e-14 -0)
(-3.9131e-31 6.11437e-15 -0)
(-1.9315e-30 2.38192e-14 -0)
(-4.94562e-31 1.58821e-14 -0)
(-3.43413e-26 9.65253e-13 -0)
(-2.04245e-26 -2.82793e-12 0)
(-1.31055e-27 6.9814e-13 -0)
(-3.9995e-29 -1.6592e-13 0)
(-1.78739e-30 8.19901e-15 -0)
(1.06141e-29 -9.47772e-14 -0)
(2.16397e-30 -2.59532e-14 -0)
(6.06377e-30 -4.90958e-14 -0)
(7.43616e-30 -5.52782e-14 -0)
(9.42577e-30 -8.35407e-14 -0)
(1.25321e-29 -1.11628e-13 -0)
(9.56049e-30 -1.18394e-13 -0)
(1.16977e-30 -9.33264e-14 -0)
(-2.65395e-30 -6.74269e-14 0)
(-2.24697e-30 -1.87821e-14 0)
(-1.02183e-29 -4.49784e-14 0)
(1.5081e-30 5.52079e-14 0)
(4.58394e-32 -8.51282e-16 -0)
(-1.18422e-30 -3.30514e-14 0)
(2.32747e-32 4.14454e-15 0)
(-4.65639e-25 -4.12172e-12 0)
(-2.29284e-25 9.42747e-12 -0)
(-1.35649e-26 -2.27681e-12 0)
(-5.03552e-28 4.98255e-13 -0)
(-4.051e-29 -9.35105e-14 0)
(-8.05431e-30 1.06644e-13 -0)
(-2.20211e-31 2.41655e-15 -0)
(-1.55905e-31 1.56389e-15 -0)
(-9.04357e-31 8.47051e-15 -0)
(-1.20609e-29 6.54077e-14 -0)
(7.68916e-30 -3.51518e-14 -0)
(2.03989e-30 -1.96279e-14 -0)
(2.4571e-31 -1.09386e-14 -0)
(3.20858e-32 5.87935e-15 0)
(-8.25627e-31 1.01608e-14 -0)
(5.82877e-30 -6.06213e-14 -0)
(7.17695e-31 -4.1862e-14 -0)
(-6.1758e-31 -1.20108e-14 0)
(4.99431e-31 4.85054e-15 0)
(3.08441e-32 1.05877e-14 0)
(-7.08171e-26 1.83753e-12 -0)
(-2.71095e-26 -3.29082e-12 0)
(-1.56334e-27 8.51278e-13 -0)
(-6.97786e-29 -1.29633e-13 0)
(2.5692e-31 1.30929e-13 0)
(3.75353e-30 8.90686e-14 0)
(-4.81456e-30 6.37081e-14 -0)
(-4.13388e-30 7.82364e-14 -0)
(-2.35201e-30 5.25188e-14 -0)
(-2.12697e-30 5.92058e-14 -0)
(-1.39854e-29 1.47617e-13 -0)
(-2.17517e-29 1.38681e-13 -0)
(-1.27858e-29 1.01238e-13 -0)
(-9.33141e-30 1.09752e-13 -0)
(-5.14909e-30 3.6882e-14 -0)
(-8.96013e-30 4.90182e-14 -0)
(6.0907e-30 -6.94563e-14 -0)
(4.58444e-31 -1.51154e-14 -0)
(-2.13477e-30 -3.36383e-14 0)
(3.44662e-31 9.84658e-15 0)
(-4.68173e-25 5.38037e-12 -0)
(-1.47654e-25 -7.94919e-12 0)
(-7.43402e-27 1.63689e-12 -0)
(-4.07042e-28 -4.78577e-13 0)
(-1.68418e-30 5.6537e-15 -0)
(1.97403e-30 -1.03011e-13 -0)
(4.34389e-30 -5.36735e-14 -0)
(2.20329e-30 -8.98236e-14 -0)
(-2.57117e-31 -6.19243e-14 0)
(-3.0101e-30 -5.72125e-14 0)
(-1.42097e-30 -4.15776e-14 0)
(3.25503e-30 -4.41581e-14 -0)
(3.75224e-30 -5.65576e-14 -0)
(2.91081e-30 -5.79403e-14 -0)
(8.43137e-31 -2.90317e-14 -0)
(-6.9152e-33 2.23272e-16 -0)
(-1.70988e-30 5.4673e-14 -0)
(1.90018e-31 -5.33745e-15 -0)
(-1.65368e-31 -7.48279e-15 0)
(-8.22684e-31 -2.09724e-14 0)
)
;

boundaryField
{
    movingWall
    {
        type            calculated;
        value           nonuniform List<vector> 
20
(
(0 1.1729e-11 -0)
(0 -9.84607e-12 -0)
(0 1.50596e-12 -0)
(0 -6.46411e-13 -0)
(0 -2.23894e-13 -0)
(0 -2.88149e-13 -0)
(0 -1.77099e-13 -0)
(0 -2.74962e-13 -0)
(0 -1.8535e-13 -0)
(0 -1.36229e-13 -0)
(0 -1.65003e-13 -0)
(0 -1.23175e-13 -0)
(0 -1.35574e-13 -0)
(0 -9.2548e-14 -0)
(0 -4.63355e-14 -0)
(0 -8.85946e-14 -0)
(0 8.92807e-14 -0)
(0 -5.33745e-15 -0)
(0 8.13351e-14 -0)
(0 6.13269e-15 -0)
)
;
    }
    fixedWalls
    {
        type            calculated;
        value           nonuniform List<vector> 
60
(
(0 -5.34781e-11 -0)
(0 -4.66965e-12 -0)
(0 4.50031e-11 -0)
(0 -3.36345e-11 -0)
(0 1.98e-12 -0)
(0 3.4624e-11 -0)
(0 -4.99524e-11 -0)
(0 1.79953e-11 -0)
(0 2.32857e-11 -0)
(0 -4.4034e-11 -0)
(0 4.38815e-11 -0)
(0 -3.12013e-11 -0)
(0 1.68796e-12 -0)
(0 3.2531e-11 -0)
(0 -5.05198e-11 -0)
(0 3.00121e-11 -0)
(0 1.23607e-11 -0)
(0 -4.04454e-11 -0)
(0 1.42231e-11 -0)
(0 3.33423e-11 -0)
(0 -6.67401e-14 -0)
(0 1.98629e-15 -0)
(0 -5.45342e-14 -0)
(0 -2.69717e-14 -0)
(0 -3.40151e-14 -0)
(0 -1.53066e-14 -0)
(0 1.06254e-14 -0)
(0 1.14986e-14 -0)
(0 1.13889e-14 -0)
(0 -3.66434e-14 -0)
(0 -5.19151e-14 -0)
(0 -2.2422e-14 -0)
(0 1.36596e-14 -0)
(0 -2.81177e-14 -0)
(0 -6.47794e-14 -0)
(0 1.46492e-14 -0)
(0 2.2463e-15 -0)
(0 1.16528e-15 -0)
(0 1.40013e-14 -0)
(0 -1.14142e-14 -0)
(0 -1.64871e-11 -0)
(0 1.4995e-11 -0)
(0 -2.67367e-12 -0)
(0 9.41588e-13 -0)
(0 -4.09999e-14 -0)
(0 1.58964e-13 -0)
(0 1.66323e-13 -0)
(0 1.30589e-13 -0)
(0 7.69375e-14 -0)
(0 3.45148e-14 -0)
(0 7.88563e-16 -0)
(0 -6.95213e-14 -0)
(0 -1.53309e-13 -0)
(0 9.31519e-15 -0)
(0 -9.53509e-14 -0)
(0 -1.56498e-14 -0)
(0 -8.89251e-14 -0)
(0 -7.91628e-14 -0)
(0 -8.82151e-14 -0)
(0 -9.71833e-14 -0)
)
;
    }
    frontAndBack
    {
        type            empty;
    }
}


// ************************************************************************* //
