/*--------------------------------*- C++ -*----------------------------------*\
| =========                 |                                                 |
| \\      /  F ield         | OpenFOAM: The Open Source CFD Toolbox           |
|  \\    /   O peration     | Version:  2506                                  |
|   \\  /    A nd           | Website:  www.openfoam.com                      |
|    \\/     M anipulation  |                                                 |
\*---------------------------------------------------------------------------*/
FoamFile
{
    version     2.0;
    format      ascii;
    arch        "LSB;label=32;scalar=64";
    class       volScalarField;
    location    "6.625";
    object      Lambda2Field;
}
// * * * * * * * * * * * * * * * * * * * * * * * * * * * * * * * * * * * * * //

dimensions      [0 0 -2 0 0 0 0];

internalField   nonuniform List<scalar> 
400
(
1.13037e-23
5.29112e-24
2.12324e-25
-1.96594e-26
4.2534e-27
0
1.16129e-28
0
0
7.34684e-28
7.14479e-28
6.0401e-28
1.64019e-29
-3.2513e-29
0
4.2503e-28
5.69512e-28
0
0
0
4.18047e-24
6.49863e-24
4.96646e-25
9.05353e-27
0
2.82864e-28
2.89618e-28
-9.14254e-29
-3.10265e-28
0
9.34699e-28
3.71314e-28
8.17564e-28
1.74578e-28
-4.93496e-28
0
1.25639e-29
3.16398e-29
4.92153e-29
1.40873e-27
4.62636e-23
1.6081e-23
1.58935e-25
6.65203e-26
-1.06567e-26
2.39089e-27
-2.36621e-27
-7.99189e-28
-3.88294e-28
0
6.17751e-28
0
5.28244e-29
3.99718e-29
1.96779e-28
5.87608e-28
1.76971e-28
-5.47929e-28
0
0
2.08257e-23
1.2156e-23
2.93874e-25
4.88955e-26
-5.58155e-27
4.32478e-28
1.07649e-28
-1.23118e-29
0
0
-1.28526e-28
0
-8.8898e-28
0
5.39236e-28
0
3.82691e-28
2.03285e-28
8.37506e-29
0
2.05689e-24
5.01516e-24
4.22846e-25
6.3146e-27
2.66887e-27
1.1882e-29
1.74935e-27
3.72943e-28
7.47212e-28
6.81173e-29
-1.34689e-28
4.56315e-29
2.10676e-28
2.00758e-28
-1.41106e-28
2.64997e-29
-6.84286e-29
0
5.79463e-29
0
1.53995e-23
8.11223e-24
9.23579e-26
5.93623e-26
-2.71736e-27
1.80219e-27
5.70294e-29
6.01481e-29
2.60409e-29
-2.92821e-28
-2.27895e-28
1.82392e-28
4.26651e-28
5.39239e-29
0
0
0
1.70232e-28
0
1.24549e-28
1.88561e-23
9.02524e-24
-3.65398e-25
8.81124e-26
-1.3456e-26
2.12062e-27
-5.34435e-27
8.10727e-28
3.76637e-28
0
5.22302e-29
1.45857e-27
1.57815e-28
0
0
8.79143e-29
4.48976e-28
0
-4.28853e-28
0
3.26336e-25
1.31842e-24
0
6.61216e-27
-2.1274e-27
8.02511e-28
-2.56291e-28
3.2006e-28
5.3364e-29
7.80852e-28
1.9814e-27
0
-1.08228e-28
-8.93369e-28
0
0
-1.53253e-28
0
0
1.70969e-28
3.28635e-24
1.40347e-24
0
3.25021e-26
0
5.05679e-28
-1.31782e-27
0
-1.36009e-27
0
3.94117e-29
-1.04911e-27
-6.74998e-28
3.06263e-28
-6.94388e-28
1.33676e-27
0
0
0
0
0
1.7011e-24
-4.65423e-25
0
-4.58185e-27
0
1.6157e-28
0
-1.01198e-27
1.20604e-28
3.0927e-28
1.99917e-28
-1.39554e-28
-1.60457e-27
0
9.1064e-28
-3.27866e-27
-4.41757e-28
8.18701e-28
0
0
1.58072e-24
-3.39148e-25
2.55894e-28
-1.31478e-26
3.85736e-28
0
3.91308e-28
-6.5859e-28
-8.3564e-30
5.37337e-29
2.62587e-28
-1.63258e-28
0
3.15958e-28
1.35403e-27
0
3.19439e-28
0
-5.82934e-28
2.55258e-24
1.71466e-24
0
2.24262e-26
-2.32266e-27
2.17574e-28
6.13277e-28
0
-4.45391e-28
-3.86899e-28
0
0
0
0
0
2.14501e-28
-5.7592e-28
1.06647e-28
1.16893e-28
0
1.6005e-25
0
2.32434e-26
2.32177e-27
0
0
1.45262e-27
5.5564e-28
0
-1.46757e-27
-1.18353e-27
0
0
2.56789e-28
1.64635e-29
0
7.4353e-28
0
3.04093e-28
2.23247e-28
7.32756e-24
3.68967e-24
0
2.24713e-26
-7.44354e-27
4.6394e-28
0
-8.30691e-28
1.01084e-27
7.32914e-28
0
0
-4.92013e-28
-1.63915e-28
7.34204e-29
2.75249e-29
3.54183e-29
-1.55167e-27
1.32438e-29
3.66901e-29
1.74518e-23
6.40493e-24
-1.42838e-25
-3.3755e-26
3.38442e-27
-1.79255e-27
3.49581e-28
-1.4909e-27
0
0
-2.99515e-28
0
8.60421e-30
0
0
0
0
1.24726e-27
7.24114e-29
-4.70738e-28
6.7449e-24
4.98841e-24
8.3125e-26
1.02887e-26
2.93874e-27
-7.56108e-28
0
0
1.42885e-29
1.42075e-28
3.10752e-28
8.34233e-29
5.50607e-29
6.58711e-28
1.70413e-28
4.47142e-28
-5.73219e-28
3.13847e-28
2.35405e-28
3.04199e-28
7.60706e-24
6.07043e-24
2.65221e-25
7.34684e-28
3.89565e-27
-9.24197e-28
3.12217e-29
2.77245e-28
0
-1.70613e-28
0
-1.04942e-27
-2.42011e-28
-6.85231e-28
1.60629e-28
5.0045e-28
-2.70462e-29
1.33211e-28
1.77584e-28
1.1596e-29
4.20506e-23
1.36337e-23
1.26382e-25
2.99492e-26
4.83837e-28
-2.60488e-27
0
0
0
0
0
0
1.29414e-28
0
6.72072e-28
1.33323e-27
0
5.53088e-30
0
0
7.52895e-24
8.44867e-24
4.72975e-25
1.29049e-26
0
-5.98705e-28
-5.1385e-28
3.06846e-28
9.16873e-29
2.90912e-28
-9.04117e-28
0
7.97977e-28
0
0
2.81454e-28
-8.24503e-28
0
0
1.3187e-29
1.06353e-23
4.01358e-24
3.46001e-25
-3.71716e-27
7.07189e-27
-1.02951e-27
2.90876e-29
-6.32004e-28
0
0
7.21493e-28
1.0765e-27
0
-1.92582e-29
0
4.56951e-28
0
4.34682e-29
7.32092e-29
1.66227e-28
)
;

boundaryField
{
    movingWall
    {
        type            calculated;
        value           nonuniform List<scalar> 
20
(
0
0
5.7806e-25
0
2.70354e-26
-5.04624e-27
9.53144e-29
-2.17082e-27
-6.35626e-28
4.28891e-29
2.43088e-27
2.07388e-27
0
0
0
1.73314e-28
0
2.02786e-28
7.42749e-28
0
)
;
    }
    fixedWalls
    {
        type            calculated;
        value           nonuniform List<scalar> 
60
(
8.64645e-23
1.00526e-22
2.3858e-22
1.78728e-22
7.8697e-23
1.03872e-22
9.61785e-23
5.11641e-24
1.64354e-23
-3.66378e-24
-1.59072e-23
1.45399e-23
7.42808e-25
3.79569e-23
8.67597e-23
7.94102e-23
9.48441e-23
2.14356e-22
1.33882e-22
7.48077e-23
0
2.94133e-27
0
0
8.50477e-30
0
0
4.23015e-28
4.28288e-28
0
-6.62103e-28
0
3.6444e-28
3.66901e-29
-1.00584e-27
3.37617e-28
1.1596e-29
0
1.3187e-29
4.25301e-28
0
0
4.57682e-25
0
1.22648e-26
-2.58859e-27
2.38618e-27
3.51403e-28
1.05519e-27
1.17407e-27
7.34684e-28
5.38954e-27
4.37983e-27
0
0
1.11255e-28
3.03361e-28
8.57544e-28
5.35376e-29
0
)
;
    }
    frontAndBack
    {
        type            empty;
    }
}


// ************************************************************************* //
