/*--------------------------------*- C++ -*----------------------------------*\
| =========                 |                                                 |
| \\      /  F ield         | OpenFOAM: The Open Source CFD Toolbox           |
|  \\    /   O peration     | Version:  2506                                  |
|   \\  /    A nd           | Website:  www.openfoam.com                      |
|    \\/     M anipulation  |                                                 |
\*---------------------------------------------------------------------------*/
FoamFile
{
    version     2.0;
    format      ascii;
    arch        "LSB;label=32;scalar=64";
    class       volScalarField;
    location    "6.625";
    object      QField;
}
// * * * * * * * * * * * * * * * * * * * * * * * * * * * * * * * * * * * * * //

dimensions      [0 0 -2 0 0 0 0];

internalField   nonuniform List<scalar> 
400
(
-2.43446e-23
-7.82466e-24
-3.76661e-25
3.65991e-26
-4.60272e-27
6.25843e-28
-2.92093e-28
0
0
-8.11036e-28
-7.24511e-28
-1.99845e-27
-1.09773e-28
2.52489e-28
0
-3.74435e-28
-1.29369e-27
0
0
-4.24085e-28
-4.51453e-23
-1.4328e-23
-9.42687e-25
-3.65318e-28
0
-2.82864e-28
-2.09663e-28
1.65844e-28
6.59454e-28
7.49253e-29
-1.66861e-27
-1.0446e-27
-8.17564e-28
-1.74578e-28
4.99617e-28
0
-9.60756e-29
-1.52464e-28
3.80304e-28
-1.86772e-27
-4.72716e-23
-1.64494e-23
-1.87487e-25
-6.65203e-26
1.14309e-26
-3.26404e-27
2.7585e-27
1.20625e-27
4.04192e-28
1.14232e-28
-7.81653e-28
0
1.97001e-28
-2.21914e-28
-1.96779e-28
-1.08168e-27
-1.76971e-28
5.47929e-28
0
0
-3.92144e-23
-1.32367e-23
-3.41808e-25
-4.90741e-26
6.08652e-27
-6.09594e-28
-1.07649e-28
4.56367e-28
1.13746e-27
9.50767e-28
1.50619e-28
4.07928e-29
8.99986e-28
3.54795e-28
-5.93256e-28
7.26848e-28
-3.00699e-28
-3.03835e-28
-2.48053e-28
0
-2.73727e-23
-8.80014e-24
-6.04632e-25
-1.5683e-26
-3.59351e-27
-1.1882e-29
-3.39981e-27
-4.1733e-28
-1.481e-27
-4.47413e-28
6.56158e-28
-2.27687e-28
-3.94297e-28
-3.80717e-28
3.08983e-28
-6.89113e-28
7.61237e-29
0
4.12661e-28
0
-2.67087e-23
-9.99027e-24
-1.96576e-25
-5.93623e-26
3.1235e-27
-2.47845e-27
-2.04691e-28
-2.10214e-28
2.76636e-28
3.63725e-28
1.58858e-27
-2.45468e-28
-4.26651e-28
-1.31765e-28
0
0
0
-3.53647e-28
-1.23237e-28
-3.02496e-28
-1.78018e-23
-8.82671e-24
4.23342e-25
-8.15352e-26
1.36886e-26
-2.12062e-27
5.42219e-27
-8.05762e-28
1.08584e-28
1.14018e-27
-4.18552e-28
-1.45857e-27
-6.81011e-28
0
5.50806e-28
-5.08288e-28
-4.48976e-28
0
4.43059e-28
0
-3.88387e-24
-3.4491e-24
-7.9609e-26
1.76713e-26
3.02265e-27
-1.5357e-27
3.6998e-28
-9.6983e-28
3.96009e-28
-1.51483e-27
-3.61958e-27
-1.32999e-27
3.42259e-28
9.60219e-28
0
0
2.43111e-28
2.53226e-29
0
-1.70969e-28
1.81929e-24
-1.74349e-24
-1.04407e-25
6.21691e-27
0
-5.05679e-28
1.4345e-27
3.40711e-30
1.5876e-27
9.49862e-28
-3.94117e-29
1.68272e-27
8.3226e-28
-3.06263e-28
1.02584e-27
-2.02577e-27
2.26227e-28
-4.40689e-29
2.47227e-28
6.23439e-30
6.77665e-24
-1.4998e-24
5.21945e-25
0
5.02083e-27
0
-6.42506e-28
2.69935e-28
1.09145e-27
-1.20604e-28
-1.94752e-27
-2.64483e-28
1.49033e-28
1.72118e-27
1.11038e-27
-1.34579e-27
3.3477e-27
6.96929e-28
-2.15569e-27
1.4846e-28
6.09568e-24
-1.14637e-24
3.7255e-25
1.73436e-27
1.38832e-26
-5.67371e-28
7.24301e-28
-5.39237e-28
7.82567e-28
6.03381e-28
-1.44295e-27
-4.39225e-28
2.39204e-28
1.0179e-28
-4.81798e-28
-4.07638e-27
1.62034e-28
-1.4451e-27
0
5.93308e-28
2.43287e-24
-9.46604e-25
-1.34678e-26
-1.24618e-26
6.51496e-27
-2.17574e-28
-1.34472e-27
2.97287e-28
5.02097e-28
4.00172e-28
5.21017e-29
0
0
-3.27752e-28
4.51752e-28
-2.14501e-28
8.68634e-28
-2.79915e-28
-2.93052e-28
0
4.7905e-24
1.21801e-25
-1.15365e-25
1.07129e-26
-8.73727e-28
9.66206e-28
-3.09559e-27
-1.2795e-27
5.56247e-28
1.92542e-27
1.19353e-27
6.09641e-28
4.80822e-29
-2.56789e-28
-2.19959e-28
0
-1.47774e-27
0
-9.6361e-28
-2.23247e-28
-4.35044e-24
-3.44866e-24
2.00645e-26
3.65999e-27
9.00787e-27
-4.6394e-28
-4.9139e-28
1.59994e-27
-1.23252e-27
-7.33798e-28
0
0
6.10958e-28
3.27134e-28
-2.56565e-28
-1.42205e-28
-3.54183e-29
1.75826e-27
9.86409e-29
1.64182e-28
-1.7643e-23
-6.58945e-24
2.05113e-25
4.89144e-26
-3.33877e-27
1.79565e-27
-1.57618e-27
1.53642e-27
-3.52762e-28
0
3.50058e-28
-1.39824e-28
-7.95071e-29
3.9127e-28
0
0
6.46799e-30
-1.38319e-27
-2.3065e-28
4.86069e-28
-2.74068e-23
-8.06814e-24
-2.68687e-25
-1.36806e-26
-3.06755e-27
8.17387e-28
0
4.20124e-28
-1.02457e-28
-3.23079e-28
-4.24319e-28
-8.34233e-29
2.23467e-28
-8.31103e-28
3.53835e-28
-1.18036e-27
6.93074e-28
-4.80186e-28
-4.16958e-28
-3.04199e-28
-3.41482e-23
-1.02777e-23
-5.00611e-25
-4.94653e-27
-4.59566e-27
1.09467e-27
-3.12217e-29
-2.77245e-28
5.78991e-29
1.80971e-28
-7.58702e-30
1.08131e-27
8.83466e-28
7.16483e-28
-3.43528e-28
-5.0045e-28
7.54135e-28
3.12839e-28
6.60055e-28
-1.84601e-28
-4.20506e-23
-1.36302e-23
-1.26475e-25
-2.99492e-26
-1.19242e-27
2.84245e-27
0
0
0
3.98577e-28
1.23098e-28
0
-6.16695e-28
0
-7.02681e-28
-1.87492e-27
8.82576e-29
-6.37452e-29
0
0
-4.31846e-23
-1.27871e-23
-7.05776e-25
-2.00555e-26
2.0527e-27
6.30472e-28
5.1489e-28
-4.66273e-29
-9.16873e-29
-3.71595e-28
9.53266e-28
5.09527e-28
-6.59782e-28
-6.59485e-30
1.23477e-28
-2.81454e-28
8.265e-28
0
-2.6128e-28
-1.96858e-28
-1.98866e-23
-5.80207e-24
-4.47659e-25
2.3005e-26
-7.07189e-27
1.82648e-27
-2.90876e-29
6.91861e-28
3.08052e-28
2.07993e-28
-5.20652e-28
-1.16986e-27
1.27258e-28
2.02213e-28
5.22206e-29
-1.15882e-27
2.50922e-29
-3.5741e-28
-4.63835e-28
-1.66227e-28
)
;

boundaryField
{
    movingWall
    {
        type            calculated;
        value           nonuniform List<scalar> 
20
(
6.07385e-24
3.92142e-24
-1.06314e-24
9.42283e-26
-2.70354e-26
5.57315e-27
-9.53144e-29
2.26709e-27
1.41533e-27
9.7043e-28
-2.61453e-27
-2.1384e-27
3.12749e-28
3.31306e-28
8.55582e-29
-6.9143e-28
4.11111e-29
-7.71969e-28
-1.14382e-27
0
)
;
    }
    fixedWalls
    {
        type            calculated;
        value           nonuniform List<scalar> 
60
(
-1.4015e-22
-2.59061e-22
-2.45516e-22
-2.04943e-22
-1.61443e-22
-1.45998e-22
-9.15472e-23
-3.76369e-23
-9.41171e-24
3.13592e-23
3.06951e-23
4.57661e-24
9.78144e-24
-2.71855e-23
-8.97666e-23
-1.47447e-22
-1.83586e-22
-2.14321e-22
-2.3331e-22
-1.12278e-22
-7.58571e-28
-3.76374e-27
0
0
-1.29509e-28
0
0
-4.23015e-28
-6.28098e-28
3.59499e-28
6.72478e-28
0
-3.6444e-28
2.68995e-28
1.02117e-27
-3.37617e-28
-3.0245e-28
0
-3.22532e-28
-4.25301e-28
1.167e-23
9.96528e-24
-1.54611e-24
1.79892e-25
-1.48467e-26
2.64321e-27
-2.53555e-27
-3.51403e-28
-1.05519e-27
-2.16819e-27
-1.88478e-27
-6.64379e-27
-4.52866e-27
0
5.80251e-28
-5.71795e-28
-9.49373e-28
-8.57544e-28
-5.35376e-29
6.37495e-29
)
;
    }
    frontAndBack
    {
        type            empty;
    }
}


// ************************************************************************* //
