/*--------------------------------*- C++ -*----------------------------------*\
| =========                 |                                                 |
| \\      /  F ield         | OpenFOAM: The Open Source CFD Toolbox           |
|  \\    /   O peration     | Version:  2506                                  |
|   \\  /    A nd           | Website:  www.openfoam.com                      |
|    \\/     M anipulation  |                                                 |
\*---------------------------------------------------------------------------*/
FoamFile
{
    version     2.0;
    format      ascii;
    arch        "LSB;label=32;scalar=64";
    class       volVectorField;
    location    "6.625";
    object      U;
}
// * * * * * * * * * * * * * * * * * * * * * * * * * * * * * * * * * * * * * //

dimensions      [0 1 -1 0 0 0 0];

internalField   nonuniform List<vector> 
400
(
(-1 1.36135e-13 0)
(-1 -2.89956e-14 0)
(-1 7.05725e-15 0)
(-1 -1.37065e-15 0)
(-1 3.059e-16 0)
(-1 -7.24725e-17 0)
(-1 4.85232e-17 0)
(-1 4.065e-17 0)
(-1 7.48995e-17 0)
(-1 1.59454e-16 0)
(-1 1.73841e-16 0)
(-1 1.51568e-16 0)
(-1 -1.91245e-17 0)
(-1 -9.16998e-17 0)
(-1 -1.12276e-16 0)
(-1 -2.63694e-17 0)
(-1 4.42213e-17 0)
(-1 -2.52972e-17 0)
(-1 -5.23296e-17 0)
(-1 -3.1325e-17 0)
(-1 1.45879e-14 0)
(-1 -2.95062e-15 0)
(-1 1.11706e-15 0)
(-1 6.91206e-17 0)
(-1 9.40263e-17 0)
(-1 4.59906e-17 0)
(-1 5.92402e-17 0)
(-1 1.12598e-17 0)
(-1 7.96354e-17 0)
(-1 1.39766e-16 0)
(-1 9.34567e-17 0)
(-1 9.41979e-17 0)
(-1 -2.13748e-17 0)
(-1 -5.6616e-17 0)
(-1 -8.57826e-17 0)
(-1 3.55471e-17 0)
(-1 1.94423e-16 0)
(-1 5.82462e-17 0)
(-1 -1.08964e-16 0)
(-1 -1.3056e-16 0)
(-1 -1.24434e-13 0)
(-1 2.74938e-14 0)
(-1 -6.3193e-15 0)
(-1 1.56368e-15 0)
(-1 -1.83888e-16 0)
(-1 1.57925e-16 0)
(-1 2.1683e-17 0)
(-1 -4.56163e-17 0)
(-1 -6.73228e-17 0)
(-1 -9.53231e-17 0)
(-1 -8.83949e-17 0)
(-1 -4.11269e-17 0)
(-1 -4.70297e-17 0)
(-1 -7.06381e-17 0)
(-1 -8.75347e-17 0)
(-1 -3.43387e-17 0)
(-1 7.96669e-17 0)
(-1 3.0952e-17 0)
(-1 -1.22483e-16 0)
(-1 -1.36336e-16 0)
(-1 9.03205e-14 0)
(-1 -1.92538e-14 0)
(-1 4.57914e-15 0)
(-1 -9.49463e-16 0)
(-1 3.72282e-16 0)
(-1 1.73303e-16 0)
(-1 2.57304e-16 0)
(-1 2.13018e-16 0)
(-1 1.19508e-16 0)
(-1 -4.05297e-17 0)
(-1 -8.65302e-17 0)
(-1 -6.83141e-17 0)
(-1 -9.40552e-17 0)
(-1 -1.78993e-16 0)
(-1 -1.81351e-16 0)
(-1 -8.03868e-17 0)
(-1 5.24827e-18 0)
(-1 5.8018e-17 0)
(-1 -6.24926e-17 0)
(-1 -6.74294e-17 0)
(-1 -2.44278e-15 0)
(-1 -2.09034e-17 0)
(-1 -1.40606e-17 0)
(-1 -5.15597e-17 0)
(-1 4.08286e-17 0)
(-1 4.80026e-17 0)
(-1 3.64449e-17 0)
(-1 6.16068e-17 0)
(-1 1.03174e-16 0)
(-1 3.83487e-17 0)
(-1 -4.13911e-17 0)
(-1 -1.22022e-16 0)
(-1 -8.0205e-17 0)
(-1 -1.14333e-16 0)
(-1 -6.58738e-17 0)
(-1 4.72218e-17 0)
(-1 5.22004e-17 0)
(-1 7.53065e-17 0)
(-1 -3.09679e-17 0)
(-1 -8.50378e-17 0)
(-1 -9.16422e-14 0)
(-1 2.00677e-14 0)
(-1 -4.72055e-15 0)
(-1 1.0158e-15 0)
(-1 -3.40384e-16 0)
(-1 -1.36565e-16 0)
(-1 -1.65333e-16 0)
(-1 -7.44083e-17 0)
(-1 -1.42059e-16 0)
(-1 -1.23063e-16 0)
(-1 -7.86776e-18 0)
(-1 5.45015e-17 0)
(-1 4.37253e-17 0)
(-1 -2.42017e-17 0)
(-1 2.77643e-17 0)
(-1 1.05769e-16 0)
(-1 -2.24917e-17 0)
(-1 -2.98916e-17 0)
(-1 1.36299e-17 0)
(-1 -3.82664e-17 0)
(-1 1.29489e-13 0)
(-1 -2.74401e-14 0)
(-1 6.52707e-15 0)
(-1 -1.40916e-15 0)
(-1 2.42358e-16 0)
(-1 -1.46614e-16 0)
(-1 1.11963e-16 0)
(-1 1.39162e-16 0)
(-1 5.2144e-17 0)
(-1 1.22553e-16 0)
(-1 1.89561e-16 0)
(-1 1.23319e-16 0)
(-1 -7.94975e-17 0)
(-1 -8.16811e-17 0)
(-1 8.77643e-17 0)
(-1 1.10477e-16 0)
(-1 2.02286e-17 0)
(-1 -5.51663e-17 0)
(-1 3.12484e-17 0)
(-1 2.65636e-17 0)
(-1 -4.51916e-14 0)
(-1 9.48649e-15 0)
(-1 -2.31339e-15 0)
(-1 3.44631e-16 0)
(-1 -1.87864e-16 0)
(-1 -2.70893e-17 0)
(-1 -7.71089e-17 0)
(-1 -7.25888e-17 0)
(-1 -1.89543e-17 0)
(-1 1.01533e-17 0)
(-1 7.12551e-17 0)
(-1 -2.3999e-17 0)
(-1 -8.18991e-17 0)
(-1 3.91366e-17 0)
(-1 1.18316e-16 0)
(-1 1.20066e-17 0)
(-1 -1.47178e-17 0)
(-1 -7.76855e-17 0)
(-1 -2.40602e-17 0)
(-1 -3.90162e-17 0)
(-1 -5.99082e-14 0)
(-1 1.29716e-14 0)
(-1 -2.85792e-15 0)
(-1 7.64021e-16 0)
(-1 -5.68501e-17 0)
(-1 1.36672e-16 0)
(-1 5.33745e-18 0)
(-1 -3.97401e-17 0)
(-1 -2.09067e-17 0)
(-1 -1.56884e-16 0)
(-1 -2.55569e-16 0)
(-1 -1.42344e-16 0)
(-1 7.34832e-17 0)
(-1 1.64706e-16 0)
(-1 -3.95079e-17 0)
(-1 -2.05773e-16 0)
(-1 -7.45647e-17 0)
(-1 3.60515e-17 0)
(-1 7.19313e-17 0)
(-1 -3.92903e-17 0)
(-1 1.08526e-13 0)
(-1 -2.29593e-14 0)
(-1 5.5534e-15 0)
(-1 -9.7133e-16 0)
(-1 3.82303e-16 0)
(-1 9.39689e-18 0)
(-1 3.09095e-17 0)
(-1 4.88655e-18 0)
(-1 1.31878e-16 0)
(-1 2.06224e-16 0)
(-1 1.17047e-16 0)
(-1 1.32909e-17 0)
(-1 4.35049e-17 0)
(-1 -4.16925e-17 0)
(-1 -2.44173e-16 0)
(-1 -3.26625e-16 0)
(-1 -9.38987e-17 0)
(-1 8.50692e-17 0)
(-1 -8.19151e-18 0)
(-1 -2.38458e-17 0)
(-1 -1.08281e-13 0)
(-1 2.37228e-14 0)
(-1 -5.5218e-15 0)
(-1 1.34058e-15 0)
(-1 -1.65945e-16 0)
(-1 6.01496e-17 0)
(-1 -1.06418e-16 0)
(-1 -1.42089e-16 0)
(-1 -1.10052e-16 0)
(-1 2.26882e-18 0)
(-1 1.12556e-16 0)
(-1 1.02317e-16 0)
(-1 4.26958e-17 0)
(-1 -6.33243e-17 0)
(-1 -1.19612e-16 0)
(-1 -1.07793e-16 0)
(-1 -1.57655e-16 0)
(-1 -1.2369e-16 0)
(-1 -1.56867e-16 0)
(-1 -6.20251e-17 0)
(-1 7.8952e-14 0)
(-1 -1.72805e-14 0)
(-1 3.97686e-15 0)
(-1 -8.11363e-16 0)
(-1 3.82048e-16 0)
(-1 1.59193e-16 0)
(-1 3.01777e-16 0)
(-1 2.00196e-16 0)
(-1 2.05335e-17 0)
(-1 -3.77075e-17 0)
(-1 -1.27104e-16 0)
(-1 -1.48754e-16 0)
(-1 -1.99526e-16 0)
(-1 -1.66446e-16 0)
(-1 -6.6421e-17 0)
(-1 6.83758e-17 0)
(-1 -1.05989e-16 0)
(-1 -9.18589e-17 0)
(-1 1.81668e-17 0)
(-1 -5.60549e-17 0)
(-1 -4.69425e-15 0)
(-1 9.44095e-16 0)
(-1 -1.62325e-16 0)
(-1 4.45817e-17 0)
(-1 6.52968e-17 0)
(-1 1.38518e-16 0)
(-1 1.82641e-16 0)
(-1 2.24937e-16 0)
(-1 1.80514e-16 0)
(-1 3.87003e-17 0)
(-1 -9.03154e-17 0)
(-1 -1.81467e-16 0)
(-1 -2.01059e-16 0)
(-1 -1.90337e-16 0)
(-1 -1.5369e-16 0)
(-1 -3.52149e-18 0)
(-1 1.34345e-17 0)
(-1 -2.04194e-17 0)
(-1 -4.87499e-17 0)
(-1 -3.36136e-17 0)
(-1 -8.41057e-14 0)
(-1 1.85924e-14 0)
(-1 -4.17576e-15 0)
(-1 1.051e-15 0)
(-1 -2.22108e-16 0)
(-1 3.74151e-17 0)
(-1 -1.36526e-16 0)
(-1 -3.79574e-17 0)
(-1 1.10423e-17 0)
(-1 -1.39842e-16 0)
(-1 -1.5873e-16 0)
(-1 -1.45324e-16 0)
(-1 -8.61912e-17 0)
(-1 -3.26217e-17 0)
(-1 -2.58457e-17 0)
(-1 1.55035e-17 0)
(-1 1.58156e-16 0)
(-1 2.4365e-18 0)
(-1 -1.66185e-16 0)
(-1 -7.02943e-17 0)
(-1 1.30433e-13 0)
(-1 -2.78824e-14 0)
(-1 6.75775e-15 0)
(-1 -1.28141e-15 0)
(-1 3.47863e-16 0)
(-1 -3.37093e-17 0)
(-1 1.66235e-17 0)
(-1 -5.2416e-17 0)
(-1 -1.72323e-16 0)
(-1 -2.32024e-16 0)
(-1 -1.64064e-16 0)
(-1 -1.02875e-16 0)
(-1 -9.19971e-17 0)
(-1 -6.25796e-17 0)
(-1 -1.09086e-17 0)
(-1 -5.59857e-17 0)
(-1 1.36795e-16 0)
(-1 1.2331e-16 0)
(-1 -8.5142e-17 0)
(-1 -9.41859e-17 0)
(-1 -7.7063e-14 0)
(-1 1.67029e-14 0)
(-1 -3.76282e-15 0)
(-1 8.14317e-16 0)
(-1 -2.38017e-16 0)
(-1 5.50407e-17 0)
(-1 6.35457e-17 0)
(-1 -1.05428e-16 0)
(-1 -2.33638e-16 0)
(-1 -1.52212e-16 0)
(-1 -8.7636e-17 0)
(-1 -4.74634e-17 0)
(-1 -5.68583e-17 0)
(-1 -5.04455e-17 0)
(-1 4.54831e-17 0)
(-1 6.38512e-17 0)
(-1 -1.99464e-17 0)
(-1 -6.39985e-17 0)
(-1 -8.10901e-17 0)
(-1 -3.11396e-17 0)
(-1 -3.55775e-14 0)
(-1 7.22245e-15 0)
(-1 -1.8772e-15 0)
(-1 2.4105e-16 0)
(-1 -2.18001e-16 0)
(-1 -1.1199e-16 0)
(-1 -8.33798e-17 0)
(-1 -1.23509e-16 0)
(-1 -1.34523e-16 0)
(-1 -1.12828e-16 0)
(-1 -1.12267e-16 0)
(-1 -8.07518e-17 0)
(-1 -1.25342e-17 0)
(-1 3.93604e-17 0)
(-1 1.19634e-16 0)
(-1 2.27181e-16 0)
(-1 2.73168e-17 0)
(-1 -5.38475e-17 0)
(-1 3.58296e-17 0)
(-1 5.61575e-18 0)
(-1 1.12972e-13 0)
(-1 -2.43209e-14 0)
(-1 5.95786e-15 0)
(-1 -1.01063e-15 0)
(-1 4.33213e-16 0)
(-1 -7.55251e-17 0)
(-1 -9.11265e-17 0)
(-1 -9.96906e-17 0)
(-1 -1.06765e-16 0)
(-1 -1.84396e-16 0)
(-1 -2.18741e-16 0)
(-1 -1.03928e-16 0)
(-1 -2.24627e-17 0)
(-1 5.45738e-18 0)
(-1 -8.12562e-17 0)
(-1 -9.61505e-17 0)
(-1 -1.71443e-17 0)
(-1 5.14186e-17 0)
(-1 1.02964e-16 0)
(-1 2.9132e-18 0)
(-1 -3.85394e-14 0)
(-1 8.23791e-15 0)
(-1 -1.83646e-15 0)
(-1 5.3828e-16 0)
(-1 1.96228e-18 0)
(-1 4.2142e-17 0)
(-1 -7.55721e-17 0)
(-1 -5.28384e-17 0)
(-1 -4.47841e-17 0)
(-1 -3.59251e-17 0)
(-1 -9.4741e-17 0)
(-1 -1.56847e-16 0)
(-1 -1.26294e-16 0)
(-1 -8.50228e-17 0)
(-1 -1.3961e-16 0)
(-1 -1.82792e-16 0)
(-1 -8.7691e-17 0)
(-1 -3.03297e-17 0)
(-1 6.34625e-17 0)
(-1 3.50033e-17 0)
(-1 -8.7015e-14 0)
(-1 1.85747e-14 0)
(-1 -4.54156e-15 0)
(-1 8.50525e-16 0)
(-1 -2.9789e-16 0)
(-1 -1.91633e-17 0)
(-1 -8.09318e-17 0)
(-1 -2.45291e-17 0)
(-1 4.15211e-18 0)
(-1 5.26126e-17 0)
(-1 3.41764e-17 0)
(-1 -7.3713e-17 0)
(-1 -6.63438e-17 0)
(-1 -5.02381e-17 0)
(-1 -2.9042e-17 0)
(-1 -3.09721e-17 0)
(-1 -3.12747e-17 0)
(-1 -3.56008e-17 0)
(-1 2.20998e-17 0)
(-1 3.92271e-17 0)
)
;

boundaryField
{
    movingWall
    {
        type            fixedValue;
        value           uniform (-1 -0 -0);
    }
    fixedWalls
    {
        type            noSlip;
    }
    frontAndBack
    {
        type            empty;
    }
}


// ************************************************************************* //
