/*--------------------------------*- C++ -*----------------------------------*\
| =========                 |                                                 |
| \\      /  F ield         | OpenFOAM: The Open Source CFD Toolbox           |
|  \\    /   O peration     | Version:  2506                                  |
|   \\  /    A nd           | Website:  www.openfoam.com                      |
|    \\/     M anipulation  |                                                 |
\*---------------------------------------------------------------------------*/
FoamFile
{
    version     2.0;
    format      ascii;
    arch        "LSB;label=32;scalar=64";
    class       volVectorField;
    location    "6.625";
    object      vorticityField;
}
// * * * * * * * * * * * * * * * * * * * * * * * * * * * * * * * * * * * * * //

dimensions      [0 0 -1 0 0 0 0];

internalField   nonuniform List<vector> 
400
(
(0 -0 9.73813e-12)
(0 -0 -1.26638e-11)
(0 -0 2.76249e-12)
(0 -0 -7.29345e-13)
(0 -0 1.02713e-13)
(0 -0 -5.28428e-14)
(0 -0 1.13122e-14)
(0 -0 2.63763e-15)
(0 -0 1.18804e-14)
(0 -0 9.89412e-15)
(0 -0 -7.88563e-16)
(0 -0 -1.92965e-14)
(0 -0 -2.43268e-14)
(0 -0 -3.64202e-14)
(0 -0 6.53304e-15)
(0 -0 -1.14553e-14)
(0 -0 1.07216e-16)
(0 -0 -9.65509e-15)
(0 -0 -6.0278e-16)
(0 -0 6.25756e-14)
(0 -0 -1.78713e-15)
(0 -0 -9.4051e-13)
(0 -0 3.01974e-13)
(0 -0 -2.09886e-14)
(0 -0 -2.31301e-15)
(0 -0 7.78366e-14)
(0 -0 7.78421e-14)
(0 -0 8.33547e-14)
(0 -0 9.41658e-14)
(0 -0 5.55922e-14)
(0 -0 4.96533e-14)
(0 -0 -1.14831e-14)
(0 -0 3.91287e-14)
(0 -0 2.06643e-14)
(0 -0 6.34264e-14)
(0 -0 2.80206e-14)
(0 -0 2.2699e-15)
(0 -0 -3.03387e-14)
(0 -0 -1.88806e-14)
(0 -0 -3.02578e-14)
(0 -0 -4.92353e-12)
(0 -0 1.04562e-11)
(0 -0 -2.5388e-12)
(0 -0 5.05121e-13)
(0 -0 -2.21891e-13)
(0 -0 -8.78631e-14)
(0 -0 -1.55879e-13)
(0 -0 -1.44426e-13)
(0 -0 -8.62858e-14)
(0 -0 -5.63173e-14)
(0 -0 -4.87905e-14)
(0 -0 4.13652e-15)
(0 -0 -2.95111e-15)
(0 -0 -3.11556e-14)
(0 -0 -5.05802e-14)
(0 -0 -1.03849e-14)
(0 -0 -2.0576e-14)
(0 -0 -4.73201e-14)
(0 -0 -1.67288e-14)
(0 -0 2.58819e-14)
(0 -0 4.613e-12)
(0 -0 -7.76098e-12)
(0 -0 1.83043e-12)
(0 -0 -3.66475e-13)
(0 -0 1.66487e-13)
(0 -0 1.56073e-14)
(0 -0 -2.31335e-14)
(0 -0 -6.79897e-14)
(0 -0 -1.0667e-13)
(0 -0 -1.01919e-13)
(0 -0 -5.69885e-14)
(0 -0 -5.49626e-14)
(0 -0 -9.2383e-14)
(0 -0 -6.29397e-14)
(0 -0 -4.43495e-14)
(0 -0 4.5765e-14)
(0 -0 -1.32646e-14)
(0 -0 2.0331e-14)
(0 -0 -1.25447e-14)
(0 -0 1.29922e-14)
(0 -0 -1.24926e-12)
(0 -0 4.32607e-13)
(0 -0 -1.11486e-13)
(0 -0 5.9699e-14)
(0 -0 3.70613e-14)
(0 -0 2.66667e-14)
(0 -0 2.84655e-14)
(0 -0 6.08831e-14)
(0 -0 2.47792e-14)
(0 -0 -1.44565e-14)
(0 -0 -7.02472e-14)
(0 -0 -3.09864e-14)
(0 -0 -2.63361e-14)
(0 -0 2.85382e-14)
(0 -0 7.03656e-14)
(0 -0 3.89125e-14)
(0 -0 2.99135e-14)
(0 -0 -8.31684e-15)
(0 -0 -1.60344e-14)
(0 -0 1.16006e-14)
(0 -0 -5.12457e-12)
(0 -0 7.98743e-12)
(0 -0 -1.93229e-12)
(0 -0 3.02491e-13)
(0 -0 -1.42342e-13)
(0 -0 -6.381e-14)
(0 -0 6.21563e-15)
(0 -0 2.32746e-15)
(0 -0 -4.86547e-15)
(0 -0 4.05241e-14)
(0 -0 7.19666e-14)
(0 -0 8.64745e-14)
(0 -0 4.63398e-14)
(0 -0 2.5509e-14)
(0 -0 1.29971e-14)
(0 -0 -5.02559e-15)
(0 -0 -1.35661e-14)
(0 -0 3.61216e-15)
(0 -0 -5.50476e-14)
(0 -0 2.46365e-15)
(0 -0 8.36173e-12)
(0 -0 -1.15643e-11)
(0 -0 2.76572e-12)
(0 -0 -4.92945e-13)
(0 -0 2.34675e-13)
(0 -0 1.49591e-13)
(0 -0 2.18313e-13)
(0 -0 1.29543e-13)
(0 -0 1.33864e-13)
(0 -0 1.49267e-13)
(0 -0 1.35602e-13)
(0 -0 2.73043e-14)
(0 -0 -2.05e-14)
(0 -0 1.67262e-14)
(0 -0 7.34259e-14)
(0 -0 -6.75356e-15)
(0 -0 1.05408e-14)
(0 -0 1.10198e-15)
(0 -0 6.23831e-14)
(0 -0 -5.7812e-15)
(0 -0 -3.48919e-12)
(0 -0 4.07098e-12)
(0 -0 -1.04971e-12)
(0 -0 2.12553e-13)
(0 -0 -1.18487e-13)
(0 -0 1.10755e-14)
(0 -0 -8.58651e-14)
(0 -0 5.81546e-15)
(0 -0 8.27421e-15)
(0 -0 9.02094e-15)
(0 -0 -3.41523e-15)
(0 -0 -6.95255e-14)
(0 -0 6.05237e-14)
(0 -0 1.01337e-13)
(0 -0 -2.713e-15)
(0 -0 -1.33034e-14)
(0 -0 -3.60743e-14)
(0 -0 -2.80393e-14)
(0 -0 3.86692e-15)
(0 -0 -2.07974e-14)
(0 -0 -4.01604e-12)
(0 -0 5.46109e-12)
(0 -0 -1.27496e-12)
(0 -0 2.25896e-13)
(0 -0 -6.27349e-14)
(0 -0 -7.50964e-14)
(0 -0 -9.89564e-14)
(0 -0 -8.39396e-14)
(0 -0 -1.4724e-13)
(0 -0 -1.31886e-13)
(0 -0 -2.5651e-14)
(0 -0 8.71153e-14)
(0 -0 5.781e-14)
(0 -0 1.58059e-14)
(0 -0 -9.1258e-14)
(0 -0 5.07044e-14)
(0 -0 5.12875e-14)
(0 -0 4.17547e-14)
(0 -0 -3.46392e-14)
(0 -0 -3.03692e-14)
(0 -0 9.18013e-12)
(0 -0 -1.01347e-11)
(0 -0 2.44274e-12)
(0 -0 -5.1711e-13)
(0 -0 1.52283e-13)
(0 -0 -3.51393e-14)
(0 -0 8.08641e-14)
(0 -0 6.4307e-14)
(0 -0 7.43438e-14)
(0 -0 7.9832e-14)
(0 -0 -7.35034e-14)
(0 -0 -6.15643e-14)
(0 -0 -3.26034e-14)
(0 -0 -1.10083e-13)
(0 -0 -8.27034e-14)
(0 -0 -3.91827e-14)
(0 -0 1.22485e-13)
(0 -0 8.98859e-14)
(0 -0 1.62136e-14)
(0 -0 3.03088e-14)
(0 -0 -9.02501e-12)
(0 -0 1.01404e-11)
(0 -0 -2.40085e-12)
(0 -0 5.35585e-13)
(0 -0 -2.36464e-13)
(0 -0 -2.11524e-14)
(0 -0 -1.28644e-13)
(0 -0 2.67417e-14)
(0 -0 6.86459e-14)
(0 -0 4.93659e-14)
(0 -0 6.42149e-14)
(0 -0 -6.98606e-15)
(0 -0 -7.07742e-14)
(0 -0 -4.33358e-14)
(0 -0 -4.44691e-15)
(0 -0 -5.80144e-14)
(0 -0 -8.29048e-14)
(0 -0 -8.12364e-14)
(0 -0 6.16646e-15)
(0 -0 4.89943e-14)
(0 -0 5.78768e-12)
(0 -0 -7.28067e-12)
(0 -0 1.67402e-12)
(0 -0 -3.05271e-13)
(0 -0 1.51266e-13)
(0 -0 1.9078e-14)
(0 -0 5.83104e-14)
(0 -0 -1.0944e-13)
(0 -0 -7.80005e-14)
(0 -0 -4.18688e-14)
(0 -0 -6.53148e-14)
(0 -0 -7.24226e-15)
(0 -0 -1.7692e-15)
(0 -0 4.04156e-14)
(0 -0 5.05873e-14)
(0 -0 5.02533e-14)
(0 -0 -7.02336e-14)
(0 -0 1.24156e-14)
(0 -0 3.5804e-15)
(0 -0 3.78881e-15)
(0 -0 -1.8528e-13)
(0 -0 5.07402e-13)
(0 -0 -3.57412e-14)
(0 -0 4.98672e-14)
(0 -0 9.07087e-14)
(0 -0 6.59446e-14)
(0 -0 6.2852e-14)
(0 -0 -5.44228e-14)
(0 -0 -4.57287e-14)
(0 -0 -1.08398e-13)
(0 -0 -7.62268e-14)
(0 -0 -6.52845e-14)
(0 -0 -5.50971e-14)
(0 -0 -4.94732e-14)
(0 -0 1.86815e-14)
(0 -0 1.67124e-14)
(0 -0 2.54153e-14)
(0 -0 -6.21844e-15)
(0 -0 -2.84245e-14)
(0 -0 -1.88687e-14)
(0 -0 -5.44003e-12)
(0 -0 7.53221e-12)
(0 -0 -1.80835e-12)
(0 -0 3.6826e-13)
(0 -0 -1.82674e-13)
(0 -0 -4.56519e-14)
(0 -0 -6.17474e-14)
(0 -0 1.23177e-13)
(0 -0 1.69166e-14)
(0 -0 -1.69772e-14)
(0 -0 -5.48165e-16)
(0 -0 7.25384e-15)
(0 -0 6.54803e-14)
(0 -0 6.02447e-14)
(0 -0 3.19176e-14)
(0 -0 1.84002e-14)
(0 -0 2.57983e-14)
(0 -0 -8.66442e-14)
(0 -0 -7.27308e-15)
(0 -0 2.36479e-14)
(0 -0 8.60167e-12)
(0 -0 -1.18525e-11)
(0 -0 2.74141e-12)
(0 -0 -7.22304e-13)
(0 -0 9.76647e-14)
(0 -0 -8.7334e-14)
(0 -0 -2.89757e-14)
(0 -0 -1.0021e-13)
(0 -0 -7.21709e-14)
(0 -0 8.25848e-16)
(0 -0 4.00199e-14)
(0 -0 6.14168e-14)
(0 -0 4.02953e-15)
(0 -0 6.2319e-14)
(0 -0 6.59391e-16)
(0 -0 1.47704e-14)
(0 -0 7.21397e-14)
(0 -0 3.20164e-14)
(0 -0 -2.17496e-14)
(0 -0 4.50378e-14)
(0 -0 -5.22286e-12)
(0 -0 7.08608e-12)
(0 -0 -1.67018e-12)
(0 -0 3.25375e-13)
(0 -0 -7.59276e-14)
(0 -0 5.72613e-14)
(0 -0 -1.60469e-14)
(0 -0 -5.68235e-14)
(0 -0 -4.67845e-15)
(0 -0 1.46002e-14)
(0 -0 -1.66302e-14)
(0 -0 -2.40273e-14)
(0 -0 -2.74033e-14)
(0 -0 -4.3976e-14)
(0 -0 1.14297e-14)
(0 -0 -6.07531e-14)
(0 -0 -6.69951e-14)
(0 -0 -6.11437e-15)
(0 -0 -2.38192e-14)
(0 -0 -1.58821e-14)
(0 -0 -9.65253e-13)
(0 -0 2.82793e-12)
(0 -0 -6.9814e-13)
(0 -0 1.6592e-13)
(0 -0 -8.19901e-15)
(0 -0 9.47772e-14)
(0 -0 2.59532e-14)
(0 -0 4.90958e-14)
(0 -0 5.52782e-14)
(0 -0 8.35407e-14)
(0 -0 1.11628e-13)
(0 -0 1.18394e-13)
(0 -0 9.33264e-14)
(0 -0 6.74269e-14)
(0 -0 1.87821e-14)
(0 -0 4.49784e-14)
(0 -0 -5.52079e-14)
(0 -0 8.51282e-16)
(0 -0 3.30514e-14)
(0 -0 -4.14454e-15)
(0 -0 4.12172e-12)
(0 -0 -9.42747e-12)
(0 -0 2.27681e-12)
(0 -0 -4.98255e-13)
(0 -0 9.35105e-14)
(0 -0 -1.06644e-13)
(0 -0 -2.41655e-15)
(0 -0 -1.56389e-15)
(0 -0 -8.47051e-15)
(0 -0 -6.54077e-14)
(0 -0 3.51518e-14)
(0 -0 1.96279e-14)
(0 -0 1.09386e-14)
(0 -0 -5.87935e-15)
(0 -0 -1.01608e-14)
(0 -0 6.06213e-14)
(0 -0 4.1862e-14)
(0 -0 1.20108e-14)
(0 -0 -4.85054e-15)
(0 -0 -1.05877e-14)
(0 -0 -1.83753e-12)
(0 -0 3.29082e-12)
(0 -0 -8.51278e-13)
(0 -0 1.29633e-13)
(0 -0 -1.30929e-13)
(0 -0 -8.90686e-14)
(0 -0 -6.37081e-14)
(0 -0 -7.82364e-14)
(0 -0 -5.25188e-14)
(0 -0 -5.92058e-14)
(0 -0 -1.47617e-13)
(0 -0 -1.38681e-13)
(0 -0 -1.01238e-13)
(0 -0 -1.09752e-13)
(0 -0 -3.6882e-14)
(0 -0 -4.90182e-14)
(0 -0 6.94563e-14)
(0 -0 1.51154e-14)
(0 -0 3.36383e-14)
(0 -0 -9.84658e-15)
(0 -0 -5.38037e-12)
(0 -0 7.94919e-12)
(0 -0 -1.63689e-12)
(0 -0 4.78577e-13)
(0 -0 -5.6537e-15)
(0 -0 1.03011e-13)
(0 -0 5.36735e-14)
(0 -0 8.98236e-14)
(0 -0 6.19243e-14)
(0 -0 5.72125e-14)
(0 -0 4.15776e-14)
(0 -0 4.41581e-14)
(0 -0 5.65576e-14)
(0 -0 5.79403e-14)
(0 -0 2.90317e-14)
(0 -0 -2.23272e-16)
(0 -0 -5.4673e-14)
(0 -0 5.33745e-15)
(0 -0 7.48279e-15)
(0 -0 2.09724e-14)
)
;

boundaryField
{
    movingWall
    {
        type            calculated;
        value           nonuniform List<vector> 
20
(
(0 -0 -1.1729e-11)
(0 -0 9.84607e-12)
(0 -0 -1.50596e-12)
(0 -0 6.46411e-13)
(0 -0 2.23894e-13)
(0 -0 2.88149e-13)
(0 -0 1.77099e-13)
(0 -0 2.74962e-13)
(0 -0 1.8535e-13)
(0 -0 1.36229e-13)
(0 -0 1.65003e-13)
(0 -0 1.23175e-13)
(0 -0 1.35574e-13)
(0 -0 9.2548e-14)
(0 -0 4.63355e-14)
(0 -0 8.85946e-14)
(0 -0 -8.92807e-14)
(0 -0 5.33745e-15)
(0 -0 -8.13351e-14)
(0 -0 -6.13269e-15)
)
;
    }
    fixedWalls
    {
        type            calculated;
        value           nonuniform List<vector> 
60
(
(0 -0 5.34781e-11)
(0 -0 4.66965e-12)
(0 -0 -4.50031e-11)
(0 -0 3.36345e-11)
(0 -0 -1.98e-12)
(0 -0 -3.4624e-11)
(0 -0 4.99524e-11)
(0 -0 -1.79953e-11)
(0 -0 -2.32857e-11)
(0 -0 4.4034e-11)
(0 -0 -4.38815e-11)
(0 -0 3.12013e-11)
(0 -0 -1.68796e-12)
(0 -0 -3.2531e-11)
(0 -0 5.05198e-11)
(0 -0 -3.00121e-11)
(0 -0 -1.23607e-11)
(0 -0 4.04454e-11)
(0 -0 -1.42231e-11)
(0 -0 -3.33423e-11)
(0 -0 6.67401e-14)
(0 -0 -1.98629e-15)
(0 -0 5.45342e-14)
(0 -0 2.69717e-14)
(0 -0 3.40151e-14)
(0 -0 1.53066e-14)
(0 -0 -1.06254e-14)
(0 -0 -1.14986e-14)
(0 -0 -1.13889e-14)
(0 -0 3.66434e-14)
(0 -0 5.19151e-14)
(0 -0 2.2422e-14)
(0 -0 -1.36596e-14)
(0 -0 2.81177e-14)
(0 -0 6.47794e-14)
(0 -0 -1.46492e-14)
(0 -0 -2.2463e-15)
(0 -0 -1.16528e-15)
(0 -0 -1.40013e-14)
(0 -0 1.14142e-14)
(0 -0 1.64871e-11)
(0 -0 -1.4995e-11)
(0 -0 2.67367e-12)
(0 -0 -9.41588e-13)
(0 -0 4.09999e-14)
(0 -0 -1.58964e-13)
(0 -0 -1.66323e-13)
(0 -0 -1.30589e-13)
(0 -0 -7.69375e-14)
(0 -0 -3.45148e-14)
(0 -0 -7.88563e-16)
(0 -0 6.95213e-14)
(0 -0 1.53309e-13)
(0 -0 -9.31519e-15)
(0 -0 9.53509e-14)
(0 -0 1.56498e-14)
(0 -0 8.89251e-14)
(0 -0 7.91628e-14)
(0 -0 8.82151e-14)
(0 -0 9.71833e-14)
)
;
    }
    frontAndBack
    {
        type            empty;
    }
}


// ************************************************************************* //
