/*--------------------------------*- C++ -*----------------------------------*\
| =========                 |                                                 |
| \\      /  F ield         | OpenFOAM: The Open Source CFD Toolbox           |
|  \\    /   O peration     | Version:  2506                                  |
|   \\  /    A nd           | Website:  www.openfoam.com                      |
|    \\/     M anipulation  |                                                 |
\*---------------------------------------------------------------------------*/
FoamFile
{
    version     2.0;
    format      ascii;
    arch        "LSB;label=32;scalar=64";
    class       volScalarField;
    location    "6.625";
    object      zeroGradient(epsilon);
}
// * * * * * * * * * * * * * * * * * * * * * * * * * * * * * * * * * * * * * //

dimensions      [0 2 -3 0 0 0 0];

internalField   nonuniform List<scalar> 
400
(
2.77628e-06
2.77628e-06
2.77628e-06
2.77627e-06
2.77627e-06
2.77627e-06
2.77627e-06
2.77626e-06
2.77626e-06
2.77626e-06
2.77626e-06
2.77626e-06
2.77626e-06
2.77626e-06
2.77626e-06
2.77626e-06
2.77626e-06
2.77626e-06
2.77626e-06
2.77626e-06
2.93311e-06
2.88722e-06
2.89105e-06
2.89263e-06
2.89581e-06
2.89744e-06
2.90062e-06
2.90231e-06
2.9055e-06
2.90724e-06
2.91043e-06
2.91223e-06
2.91543e-06
2.91728e-06
2.92048e-06
2.92239e-06
2.9256e-06
2.92756e-06
2.92918e-06
2.93178e-06
3.16847e-06
3.11681e-06
3.12118e-06
3.12299e-06
3.1266e-06
3.12846e-06
3.13207e-06
3.13397e-06
3.13758e-06
3.13954e-06
3.14314e-06
3.14514e-06
3.14875e-06
3.1508e-06
3.1544e-06
3.15649e-06
3.1601e-06
3.16223e-06
3.16405e-06
3.16693e-06
3.39818e-06
3.34142e-06
3.34623e-06
3.34821e-06
3.35218e-06
3.35421e-06
3.35818e-06
3.36027e-06
3.36423e-06
3.36637e-06
3.37033e-06
3.37253e-06
3.37648e-06
3.37873e-06
3.38269e-06
3.38499e-06
3.38895e-06
3.39129e-06
3.39329e-06
3.39645e-06
3.57621e-06
3.51536e-06
3.52051e-06
3.52263e-06
3.52688e-06
3.52906e-06
3.53331e-06
3.53554e-06
3.53979e-06
3.54208e-06
3.54633e-06
3.54868e-06
3.55292e-06
3.55533e-06
3.55957e-06
3.56204e-06
3.56628e-06
3.5688e-06
3.57093e-06
3.57432e-06
3.69612e-06
3.63247e-06
3.63784e-06
3.64006e-06
3.64451e-06
3.64679e-06
3.65123e-06
3.65357e-06
3.65801e-06
3.66041e-06
3.66484e-06
3.66731e-06
3.67174e-06
3.67426e-06
3.6787e-06
3.68128e-06
3.68572e-06
3.68835e-06
3.69058e-06
3.69413e-06
3.77085e-06
3.70543e-06
3.71095e-06
3.71322e-06
3.71779e-06
3.72013e-06
3.7247e-06
3.7271e-06
3.73166e-06
3.73413e-06
3.73869e-06
3.74122e-06
3.74577e-06
3.74837e-06
3.75292e-06
3.75557e-06
3.76014e-06
3.76284e-06
3.76513e-06
3.76878e-06
3.81654e-06
3.75003e-06
3.75564e-06
3.75796e-06
3.7626e-06
3.76498e-06
3.76961e-06
3.77206e-06
3.77669e-06
3.7792e-06
3.78383e-06
3.78641e-06
3.79104e-06
3.79367e-06
3.79831e-06
3.801e-06
3.80564e-06
3.80839e-06
3.81072e-06
3.81443e-06
3.84582e-06
3.77862e-06
3.78429e-06
3.78662e-06
3.79131e-06
3.79372e-06
3.7984e-06
3.80087e-06
3.80555e-06
3.80809e-06
3.81277e-06
3.81537e-06
3.82005e-06
3.82271e-06
3.82739e-06
3.83011e-06
3.8348e-06
3.83758e-06
3.83993e-06
3.84368e-06
3.86681e-06
3.79911e-06
3.80482e-06
3.80718e-06
3.8119e-06
3.81433e-06
3.81904e-06
3.82153e-06
3.82625e-06
3.8288e-06
3.83351e-06
3.83613e-06
3.84084e-06
3.84353e-06
3.84824e-06
3.85099e-06
3.85571e-06
3.85851e-06
3.86088e-06
3.86465e-06
3.88425e-06
3.81614e-06
3.82188e-06
3.82425e-06
3.829e-06
3.83144e-06
3.83618e-06
3.83869e-06
3.84343e-06
3.846e-06
3.85074e-06
3.85338e-06
3.85812e-06
3.86082e-06
3.86556e-06
3.86832e-06
3.87307e-06
3.87589e-06
3.87827e-06
3.88207e-06
3.90077e-06
3.83227e-06
3.83805e-06
3.84043e-06
3.84521e-06
3.84766e-06
3.85243e-06
3.85495e-06
3.85972e-06
3.8623e-06
3.86707e-06
3.86972e-06
3.87449e-06
3.8772e-06
3.88197e-06
3.88475e-06
3.88953e-06
3.89236e-06
3.89476e-06
3.89858e-06
3.91789e-06
3.849e-06
3.85481e-06
3.8572e-06
3.86201e-06
3.86447e-06
3.86927e-06
3.87181e-06
3.87661e-06
3.8792e-06
3.884e-06
3.88667e-06
3.89146e-06
3.89419e-06
3.89899e-06
3.90178e-06
3.90659e-06
3.90944e-06
3.91185e-06
3.91569e-06
3.93656e-06
3.86722e-06
3.87307e-06
3.87548e-06
3.88032e-06
3.8828e-06
3.88763e-06
3.89018e-06
3.895e-06
3.89762e-06
3.90244e-06
3.90513e-06
3.90995e-06
3.9127e-06
3.91753e-06
3.92034e-06
3.92517e-06
3.92804e-06
3.93047e-06
3.93434e-06
3.9573e-06
3.88748e-06
3.89336e-06
3.89579e-06
3.90066e-06
3.90316e-06
3.90802e-06
3.91059e-06
3.91545e-06
3.91808e-06
3.92294e-06
3.92564e-06
3.9305e-06
3.93327e-06
3.93813e-06
3.94096e-06
3.94583e-06
3.94872e-06
3.95116e-06
3.95506e-06
3.98017e-06
3.90981e-06
3.91574e-06
3.91818e-06
3.92309e-06
3.92561e-06
3.93051e-06
3.93309e-06
3.93799e-06
3.94065e-06
3.94554e-06
3.94826e-06
3.95316e-06
3.95595e-06
3.96085e-06
3.9637e-06
3.9686e-06
3.97152e-06
3.97398e-06
3.9779e-06
4.00436e-06
3.93342e-06
3.9394e-06
3.94186e-06
3.94681e-06
3.94935e-06
3.95429e-06
3.95689e-06
3.96183e-06
3.96451e-06
3.96944e-06
3.97219e-06
3.97712e-06
3.97993e-06
3.98487e-06
3.98775e-06
3.99269e-06
3.99562e-06
3.99811e-06
4.00206e-06
4.02771e-06
3.95625e-06
3.96227e-06
3.96475e-06
3.96973e-06
3.97229e-06
3.97726e-06
3.97989e-06
3.98486e-06
3.98756e-06
3.99253e-06
3.9953e-06
4.00027e-06
4.0031e-06
4.00808e-06
4.01098e-06
4.01596e-06
4.01891e-06
4.02142e-06
4.0254e-06
4.04671e-06
3.97622e-06
3.98205e-06
3.98446e-06
3.9893e-06
3.99181e-06
3.99666e-06
3.99925e-06
4.00411e-06
4.00679e-06
4.01166e-06
4.01443e-06
4.01931e-06
4.02218e-06
4.02707e-06
4.03002e-06
4.03494e-06
4.03797e-06
4.04045e-06
4.04445e-06
4.05533e-06
4.05532e-06
4.05531e-06
4.05532e-06
4.05531e-06
4.05531e-06
4.0553e-06
4.0553e-06
4.0553e-06
4.0553e-06
4.0553e-06
4.0553e-06
4.0553e-06
4.05529e-06
4.05529e-06
4.05529e-06
4.05529e-06
4.05529e-06
4.05529e-06
4.05529e-06
)
;

boundaryField
{
    movingWall
    {
        type            zeroGradient;
    }
    fixedWalls
    {
        type            zeroGradient;
    }
    frontAndBack
    {
        type            empty;
    }
}


// ************************************************************************* //
