/*--------------------------------*- C++ -*----------------------------------*\
| =========                 |                                                 |
| \\      /  F ield         | OpenFOAM: The Open Source CFD Toolbox           |
|  \\    /   O peration     | Version:  2506                                  |
|   \\  /    A nd           | Website:  www.openfoam.com                      |
|    \\/     M anipulation  |                                                 |
\*---------------------------------------------------------------------------*/
FoamFile
{
    version     2.0;
    format      ascii;
    arch        "LSB;label=32;scalar=64";
    class       volScalarField;
    location    "0.575";
    object      p;
}
// * * * * * * * * * * * * * * * * * * * * * * * * * * * * * * * * * * * * * //

dimensions      [0 2 -2 0 0 0 0];

internalField   nonuniform List<scalar> 
6400
(
4.33029e-06
1.99239e-05
-0.00048627
-0.00151927
-0.00296212
-0.00470454
-0.00664622
-0.00869758
-0.0107814
-0.0128322
-0.0147948
-0.0166231
-0.0182785
-0.0197294
-0.0209499
-0.0219192
-0.0226212
-0.0230436
-0.023178
-0.0230189
-0.0225638
-0.0218128
-0.0207684
-0.019435
-0.0178193
-0.0159293
-0.013775
-0.0113676
-0.00871968
-0.0058452
-0.00275913
0.000522498
0.00398267
0.00760351
0.0113663
0.0152518
0.0192398
0.0233097
0.0274405
0.0316107
0.0357984
0.0399816
0.0441379
0.0482452
0.0522811
0.0562235
0.0600507
0.0637411
0.0672739
0.0706289
0.0737864
0.0767281
0.0794366
0.0818957
0.0840908
0.086009
0.0876388
0.0889713
0.0899993
0.0907183
0.0911263
0.0912243
0.0910162
0.0905095
0.0897152
0.0886483
0.0873283
0.0857793
0.0840307
0.0821177
0.0800822
0.0779734
0.0758488
0.0737755
0.0718312
0.0701043
0.068692
0.0676984
0.0672305
0.0672684
-4.83103e-06
8.95592e-06
-0.000444662
-0.00132823
-0.00254256
-0.00400842
-0.00564994
-0.00739473
-0.00917751
-0.010941
-0.0126355
-0.0142185
-0.0156539
-0.0169113
-0.0179656
-0.0187965
-0.0193876
-0.0197265
-0.019804
-0.0196142
-0.0191536
-0.0184215
-0.0174194
-0.0161507
-0.0146209
-0.0128371
-0.010808
-0.00854383
-0.00605591
-0.00335698
-0.000460835
0.00261769
0.00586283
0.00925794
0.0127856
0.0164277
0.0201656
0.0239798
0.0278508
0.0317582
0.0356817
0.0396007
0.0434942
0.0473414
0.0511216
0.0548142
0.0583987
0.0618553
0.0651646
0.0683078
0.0712671
0.0740253
0.0765666
0.0788763
0.0809412
0.0827497
0.0842918
0.0855596
0.0865472
0.087251
0.0876702
0.0878064
0.0876642
0.0872515
0.0865796
0.0856635
0.0845221
0.083179
0.0816622
0.080005
0.0782462
0.076431
0.0746109
0.0728444
0.0711968
0.0697395
0.0685457
0.0676903
0.0672668
0.0673059
0.000501537
0.000463881
1.00413e-05
-0.000806093
-0.00189723
-0.00320004
-0.00465337
-0.0061971
-0.00777558
-0.00933876
-0.0108423
-0.0122476
-0.0135213
-0.0146348
-0.0155645
-0.0162906
-0.0167973
-0.0170722
-0.0171061
-0.0168927
-0.0164283
-0.0157114
-0.0147429
-0.0135257
-0.0120644
-0.0103652
-0.00843611
-0.00628628
-0.00392627
-0.00136783
0.0013762
0.00429198
0.00736472
0.0105788
0.0139179
0.0173649
0.0209021
0.0245113
0.028174
0.031871
0.035583
0.0392905
0.0429739
0.0466134
0.0501895
0.0536827
0.057074
0.0603445
0.0634761
0.0664513
0.0692532
0.0718661
0.0742752
0.0764669
0.0784291
0.0801512
0.0816242
0.0828409
0.0837965
0.0844881
0.0849152
0.0850801
0.0849877
0.084646
0.0840661
0.0832628
0.0822542
0.0810628
0.0797151
0.078242
0.0766795
0.0750683
0.0734544
0.071889
0.070428
0.0691306
0.068056
0.0672646
0.0668419
0.0668396
0.00153434
0.00134979
0.000826182
6.77158e-06
-0.00104171
-0.00226565
-0.00361332
-0.00503396
-0.00647992
-0.00790763
-0.00927789
-0.010556
-0.0117115
-0.0127183
-0.0135543
-0.0142008
-0.014643
-0.0148688
-0.0148694
-0.0146384
-0.0141719
-0.0134683
-0.0125282
-0.0113537
-0.00994908
-0.00832001
-0.00647367
-0.00441862
-0.00216467
0.000277213
0.00289497
0.00567558
0.00860511
0.0116688
0.0148512
0.018136
0.0215066
0.0249456
0.0284354
0.0319578
0.0354945
0.0390269
0.0425363
0.0460041
0.0494116
0.0527405
0.0559725
0.0590899
0.0620755
0.0649128
0.0675858
0.0700798
0.0723808
0.0744762
0.0763546
0.0780061
0.0794226
0.0805975
0.0815265
0.0822071
0.0826393
0.0828254
0.0827705
0.0824823
0.0819718
0.0812528
0.0803428
0.0792627
0.0780371
0.0766948
0.0752683
0.0737944
0.072314
0.0708717
0.0695157
0.0682964
0.0672643
0.0664711
0.0659847
0.0658493
0.00298336
0.00257236
0.00192092
0.00104862
-7.282e-06
-0.0012019
-0.00249134
-0.00383329
-0.00518747
-0.00651639
-0.00778586
-0.00896515
-0.0100271
-0.010948
-0.0117075
-0.0122888
-0.0126776
-0.0128629
-0.0128362
-0.0125914
-0.0121247
-0.0114343
-0.0105206
-0.00938548
-0.00803271
-0.00646751
-0.00469652
-0.0027277
-0.000570214
0.00176563
0.00426851
0.00692614
0.00972536
0.0126522
0.015692
0.0188294
0.0220484
0.0253327
0.0286654
0.0320292
0.0354068
0.0387804
0.0421323
0.0454446
0.0486997
0.05188
0.0549682
0.0579476
0.0608017
0.0635149
0.0660721
0.0684593
0.0706633
0.0726722
0.0744755
0.0760637
0.0774293
0.0785663
0.0794707
0.0801403
0.0805753
0.080778
0.0807534
0.080509
0.080055
0.0794045
0.0785738
0.0775823
0.0764527
0.0752109
0.0738865
0.0725121
0.0711236
0.0697599
0.068462
0.0672722
0.066234
0.0653911
0.0647846
0.0644369
0.00474646
0.00405859
0.00323614
0.00227062
0.0011659
-4.09209e-05
-0.00131259
-0.00261438
-0.00391273
-0.00517579
-0.00637412
-0.00748093
-0.00847223
-0.00932694
-0.0100268
-0.0105565
-0.0109031
-0.0110564
-0.0110086
-0.010754
-0.0102889
-0.00961183
-0.00872285
-0.00762383
-0.00631817
-0.00481074
-0.00310773
-0.00121661
0.000853993
0.00309438
0.00549385
0.00804079
0.0107227
0.0135265
0.016438
0.0194427
0.0225256
0.0256708
0.0288624
0.032084
0.0353189
0.0385502
0.041761
0.0449343
0.0480531
0.0511009
0.054061
0.0569175
0.0596546
0.0622575
0.0647119
0.0670044
0.0691225
0.0710549
0.0727915
0.0743235
0.0756438
0.0767466
0.0776283
0.0782868
0.0787224
0.0789372
0.078936
0.0787257
0.0783158
0.0777186
0.0769491
0.0760248
0.0749666
0.0737976
0.0725443
0.0712354
0.0699023
0.0685783
0.067298
0.0660968
0.0650117
0.0640795
0.0633098
0.0626989
0.00673296
0.00573993
0.00471661
0.00362625
0.00243876
0.00118473
-0.000104058
-0.00139956
-0.00267421
-0.0039013
-0.0050558
-0.00611464
-0.00705698
-0.00786434
-0.00852061
-0.00901206
-0.00932726
-0.00945702
-0.00939422
-0.00913374
-0.00867237
-0.00800865
-0.00714278
-0.00607654
-0.00481317
-0.00335727
-0.00171472
0.000107427
0.002101
0.0042568
0.00656469
0.00901363
0.0115918
0.0142865
0.0170846
0.0199721
0.0229345
0.025957
0.0290241
0.0321203
0.0352294
0.0383355
0.0414222
0.0444734
0.0474728
0.0504044
0.0532525
0.0560015
0.0586366
0.0611435
0.0635084
0.0657186
0.067762
0.0696279
0.0713066
0.0727897
0.0740703
0.0751429
0.0760039
0.0766514
0.0770854
0.077308
0.0773234
0.0771379
0.0767604
0.0762019
0.075476
0.0745989
0.0735889
0.0724669
0.0712562
0.0699819
0.0686712
0.0673525
0.0660547
0.064807
0.0636413
0.0625883
0.0616255
0.0607219
0.00886356
0.00755184
0.00630853
0.00507013
0.00377379
0.00244479
0.00111058
-0.000206628
-0.00148458
-0.00270117
-0.00383538
-0.00486766
-0.00578017
-0.00655695
-0.00718402
-0.0076494
-0.00794307
-0.00805695
-0.0079848
-0.00772216
-0.00726628
-0.00661599
-0.00577167
-0.00473512
-0.00350952
-0.0020993
-0.000510097
0.00125133
0.0031772
0.00525873
0.00748625
0.00984924
0.0123364
0.0149357
0.0176344
0.0204193
0.0232764
0.0261916
0.02915
0.0321366
0.0351363
0.0381333
0.0411123
0.0440575
0.0469533
0.0497844
0.0525356
0.0551921
0.0577393
0.0601636
0.0624517
0.0645913
0.0665709
0.0683799
0.070009
0.0714501
0.0726964
0.0737426
0.074585
0.0752217
0.0756524
0.0758789
0.0759049
0.075736
0.0753801
0.0748473
0.0741497
0.0733017
0.0723197
0.0712222
0.0700294
0.0687633
0.0674472
0.0661051
0.0647611
0.0634387
0.062166
0.0609687
0.0597931
0.0585823
0.0110712
0.0094368
0.00796238
0.00655972
0.00513503
0.00370956
0.00230735
0.000945618
-0.000357999
-0.00158548
-0.00271945
-0.00374359
-0.00464288
-0.00540379
-0.0060144
-0.00646447
-0.0067454
-0.00685029
-0.00677383
-0.0065123
-0.00606347
-0.00542659
-0.00460227
-0.00359243
-0.00240027
-0.00103014
0.000512459
0.00222102
0.00408805
0.00610513
0.00826298
0.0105515
0.0129599
0.0154766
0.0180894
0.0207856
0.0235518
0.0263744
0.0292391
0.0321316
0.0350371
0.0379407
0.0408273
0.0436818
0.0464894
0.0492349
0.0519038
0.0544817
0.0569547
0.0593092
0.0615327
0.063613
0.0655389
0.0673002
0.0688877
0.0702935
0.0715109
0.0725345
0.0733606
0.0739869
0.074413
0.0746402
0.0746715
0.074512
0.0741685
0.0736499
0.072967
0.0721325
0.071161
0.0700685
0.0688727
0.0675924
0.0662476
0.0648586
0.063445
0.0620259
0.0606261
0.0592678
0.0578675
0.0563445
0.0132999
0.0113447
0.00963367
0.00805587
0.00648865
0.00495024
0.00346219
0.00203751
0.000689822
-0.000566423
-0.00171711
-0.00274886
-0.00364926
-0.00440708
-0.00501237
-0.00545655
-0.00573248
-0.00583442
-0.00575805
-0.0055004
-0.00505988
-0.00443616
-0.00363019
-0.00264408
-0.00148112
-0.000145666
0.00135688
0.00302018
0.00483694
0.00679903
0.0088975
0.0111226
0.013464
0.0159104
0.0184503
0.0210712
0.0237604
0.0265047
0.0292903
0.0321033
0.0349295
0.0377545
0.0405637
0.0433425
0.0460763
0.0487506
0.0513513
0.0538642
0.0562759
0.0585733
0.0607438
0.0627756
0.0646579
0.0663805
0.0679344
0.0693116
0.0705053
0.0715103
0.0723224
0.0729393
0.07336
0.0735853
0.0736177
0.0734614
0.0731222
0.072608
0.0719281
0.0710936
0.0701173
0.0690131
0.0677964
0.0664832
0.0650905
0.0636352
0.0621333
0.0606002
0.0590585
0.0575275
0.0558962
0.0540619
0.0155029
0.013232
0.0112827
0.00952293
0.0078031
0.00613941
0.00455164
0.0030493
0.00164258
0.000342813
-0.000838762
-0.00189142
-0.00280515
-0.00357082
-0.00418035
-0.00462679
-0.00490437
-0.00500853
-0.00493593
-0.00468442
-0.00425303
-0.00364196
-0.00285251
-0.00188708
-0.000749082
0.000557049
0.00202595
0.00365137
0.00542619
0.00734248
0.00939156
0.011564
0.0138497
0.0162379
0.0187173
0.021276
0.0239016
0.0265812
0.0293017
0.0320496
0.0348109
0.0375718
0.040318
0.0430353
0.0457096
0.0483267
0.0508727
0.0533339
0.055697
0.0579492
0.0600782
0.0620724
0.0639208
0.0656136
0.0671416
0.0684968
0.0696724
0.0706629
0.0714638
0.0720726
0.0724877
0.0727094
0.0727394
0.0725812
0.0722397
0.0717214
0.0710345
0.0701886
0.0691946
0.0680647
0.0668119
0.0654501
0.0639935
0.0624562
0.0608513
0.0591909
0.0574962
0.0557849
0.0539201
0.0517786
0.0176407
0.0150611
0.0128743
0.0109285
0.00904922
0.00725118
0.00555308
0.00396149
0.00248371
0.00112839
-9.57797e-05
-0.00118043
-0.00211772
-0.00290046
-0.00352231
-0.00397785
-0.00426265
-0.0043733
-0.00430742
-0.0040637
-0.00364184
-0.00304256
-0.0022676
-0.00131964
-0.000202315
0.00107984
0.00252143
0.00411624
0.00585727
0.00773673
0.00974615
0.0118763
0.0141175
0.0164591
0.0188902
0.0213993
0.0239742
0.0266027
0.0292717
0.0319681
0.0346785
0.0373892
0.0400865
0.0427563
0.0453849
0.0479583
0.0504629
0.0528853
0.0552122
0.0574312
0.0595299
0.0614968
0.0633212
0.0649929
0.0665028
0.0678429
0.0690061
0.0699865
0.0707795
0.0713819
0.0717918
0.0720089
0.0720341
0.07187
0.0715206
0.0709914
0.0702892
0.0694221
0.0683997
0.0672322
0.0659309
0.0645075
0.0629739
0.0613421
0.0596225
0.0578247
0.0559692
0.0540726
0.051974
0.0495313
0.0196798
0.016799
0.0143769
0.0122434
0.0102001
0.00826121
0.00644477
0.00475495
0.00319658
0.00177602
0.00049974
-0.000625986
-0.00159526
-0.00240268
-0.00304352
-0.00351379
-0.00381033
-0.00393084
-0.0038739
-0.00363902
-0.00322657
-0.00263786
-0.00187505
-0.000941181
0.00015988
0.00142345
0.00284405
0.00441546
0.00613073
0.00798218
0.00996146
0.0120596
0.014267
0.0165734
0.0189681
0.0214398
0.0239768
0.026567
0.0291978
0.0318563
0.0345294
0.0372037
0.0398656
0.0425016
0.0450979
0.0476409
0.0501171
0.0525132
0.0548163
0.0570136
0.0590932
0.0610433
0.0628533
0.0645128
0.0660127
0.0673447
0.0685013
0.0694765
0.0702652
0.0708636
0.0712695
0.0714817
0.0715005
0.0713276
0.0709661
0.0704203
0.0696961
0.0688001
0.0677403
0.0665256
0.0651654
0.0636698
0.0620487
0.0603123
0.0584689
0.056526
0.054504
0.0524192
0.050088
0.0473506
0.0215914
0.0184169
0.0157627
0.0134409
0.0112309
0.00914664
0.00720596
0.00541104
0.00376464
0.00227116
0.000935164
-0.00023895
-0.00124702
-0.00208527
-0.00275044
-0.0032399
-0.00355168
-0.00368454
-0.00363802
-0.00341239
-0.00300876
-0.00242897
-0.00167568
-0.000752268
0.000337107
0.00158758
0.00299355
0.00454876
0.00624624
0.00807838
0.0100369
0.012113
0.0142972
0.0165795
0.0189494
0.0213959
0.0239074
0.0264721
0.0290776
0.0317114
0.0343605
0.0370117
0.0396518
0.0422672
0.0448445
0.0473701
0.0498308
0.0522131
0.0545043
0.0566917
0.0587631
0.0607069
0.0625122
0.0641686
0.0656666
0.0669976
0.068154
0.0691292
0.0699177
0.0705153
0.0709189
0.0711268
0.0711386
0.0709551
0.0705784
0.0700119
0.0692602
0.0683289
0.0672247
0.0659548
0.0645275
0.0629511
0.0612341
0.0593851
0.0574107
0.055317
0.0531245
0.0508499
0.0482879
0.0452621
0.0233505
0.0198894
0.0170064
0.0144968
0.0121186
0.00988596
0.00781677
0.00591161
0.0041715
0.00259915
0.00119746
-3.07835e-05
-0.001083
-0.00195688
-0.00265052
-0.00316254
-0.0034921
-0.00363897
-0.00360358
-0.00338703
-0.00299107
-0.00241814
-0.00167136
-0.000754518
0.000327952
0.00157096
0.00296876
0.00451499
0.00620265
0.00802413
0.00997124
0.0120352
0.0142067
0.0164759
0.0188324
0.0212654
0.0237636
0.0263153
0.0289084
0.0315304
0.0341685
0.0368099
0.0394412
0.0420493
0.0446206
0.0471418
0.0495994
0.0519804
0.0542718
0.0564608
0.0585352
0.0604832
0.0622937
0.0639561
0.0654606
0.0667983
0.0679611
0.068942
0.069735
0.0703353
0.0707392
0.0709443
0.0709494
0.0707544
0.0703607
0.0697705
0.0689874
0.068016
0.0668616
0.0655305
0.0640293
0.0623653
0.0605457
0.0585778
0.0564669
0.0542181
0.0518523
0.0493868
0.046596
0.0432875
0.0249349
0.0211937
0.0180853
0.0153887
0.0128418
0.0104588
0.00825814
0.00623899
0.00440091
0.0027452
0.0012733
-1.34509e-05
-0.00111386
-0.00202696
-0.00275209
-0.00328903
-0.00363798
-0.0037997
-0.00377548
-0.00356718
-0.00317723
-0.00260865
-0.00186503
-0.000950542
0.000130045
0.0013714
0.0027676
0.00431215
0.00599799
0.00781746
0.00976238
0.011824
0.0139932
0.0162601
0.0186145
0.0210458
0.0235427
0.0260937
0.0286868
0.0313098
0.03395
0.0365945
0.0392302
0.0418438
0.0444221
0.0469516
0.049419
0.051811
0.0541145
0.0563168
0.0584053
0.0603682
0.062194
0.0638718
0.0653916
0.0667438
0.0679202
0.068913
0.0697158
0.0703232
0.0707307
0.0709352
0.0709348
0.0707286
0.070317
0.0697013
0.0688842
0.0678691
0.0666604
0.0652631
0.063683
0.0619261
0.0599987
0.0579069
0.0556552
0.0532479
0.0507067
0.0480498
0.0450321
0.0414455
0.0263248
0.0223091
0.0189783
0.0160961
0.0133803
0.0108459
0.00851172
0.00637594
0.00443685
0.0026945
0.00114908
-0.000199351
-0.00135085
-0.00230567
-0.00306428
-0.00362754
-0.00399666
-0.0041733
-0.00415959
-0.00395812
-0.00357198
-0.00300476
-0.00226053
-0.00134388
-0.000259883
0.000985847
0.00238718
0.00393748
0.00562954
0.00745567
0.00940766
0.0114768
0.0136539
0.0159293
0.0182928
0.0207339
0.0232414
0.025804
0.0284097
0.0310463
0.0337012
0.0363617
0.0390147
0.041647
0.0442451
0.0467958
0.0492854
0.0517008
0.0540286
0.0562558
0.0583699
0.0603585
0.06221
0.063913
0.065457
0.0668322
0.0680297
0.0690413
0.0698598
0.0704792
0.0708944
0.0711015
0.0710978
0.0708815
0.0704522
0.0698104
0.0689577
0.0678967
0.0666306
0.0651638
0.0635009
0.061647
0.0596076
0.0573881
0.0549924
0.0524239
0.0497057
0.0468569
0.0436137
0.0397525
0.0275019
0.0232162
0.019666
0.0165993
0.013715
0.0110286
0.00855969
0.00630556
0.00426337
0.00243214
0.000810957
-0.000601275
-0.00180574
-0.00280378
-0.00359694
-0.00418706
-0.00457631
-0.0047672
-0.00476266
-0.004566
-0.00418095
-0.00361165
-0.00286265
-0.00193893
-0.000845947
0.000410426
0.00182382
0.00338741
0.00509386
0.00693539
0.00890374
0.0109902
0.0131855
0.0154801
0.0178639
0.0203263
0.0228563
0.0254425
0.0280731
0.0307359
0.0334183
0.0361077
0.0387909
0.0414547
0.0440856
0.0466702
0.0491948
0.051646
0.0540103
0.0562745
0.0584256
0.0604511
0.0623388
0.0640771
0.0656549
0.067062
0.0682887
0.0693264
0.0701673
0.0708045
0.0712323
0.0714459
0.0714419
0.0712177
0.070772
0.0701045
0.0692158
0.0681076
0.0667825
0.0652437
0.0634952
0.0615413
0.0593869
0.0570368
0.0544942
0.0517625
0.0488658
0.0458247
0.0423566
0.0382233
0.0284492
0.0238973
0.0201299
0.01688
0.0138275
0.010989
0.00838472
0.00601118
0.00386463
0.00194316
0.000244854
-0.00123238
-0.00249077
-0.00353266
-0.00436058
-0.00497731
-0.00538588
-0.00558966
-0.00559232
-0.00539786
-0.00501063
-0.00443532
-0.00367695
-0.00274093
-0.00163306
-0.000359516
0.00107308
0.00265768
0.00438682
0.00625259
0.00824664
0.0103602
0.0125841
0.0149086
0.0173238
0.0198189
0.0223832
0.0250052
0.027673
0.0303746
0.0330973
0.0358283
0.0385547
0.0412629
0.0439395
0.0465709
0.0491433
0.0516429
0.0540561
0.0563694
0.0585694
0.0606433
0.0625783
0.0643624
0.065984
0.0674323
0.068697
0.0697688
0.0706392
0.0713007
0.0717468
0.0719718
0.0719715
0.0717425
0.0712827
0.0705908
0.0696667
0.0685113
0.0671263
0.0655143
0.0636784
0.0616224
0.0593507
0.0568676
0.0541761
0.0512793
0.0482027
0.0449684
0.0412757
0.0368712
0.0291505
0.0243351
0.0203523
0.0169202
0.0137002
0.0107096
0.00796975
0.00547633
0.00322481
0.00121244
-0.000563548
-0.0021062
-0.00341866
-0.00450423
-0.00536634
-0.00600865
-0.00643505
-0.00664968
-0.00665694
-0.00646149
-0.00606829
-0.00548256
-0.0047098
-0.00375586
-0.00262687
-0.00132936
0.000129804
0.00174335
0.00350363
0.00540259
0.00743181
0.00958243
0.0118452
0.0142105
0.0166681
0.0192076
0.021818
0.0244878
0.0272052
0.029958
0.0327337
0.0355193
0.0383017
0.0410675
0.0438029
0.0464941
0.0491271
0.051688
0.0541628
0.0565376
0.0587986
0.0609326
0.0629263
0.0647673
0.0664432
0.0679427
0.0692547
0.0703694
0.0712774
0.0719704
0.0724412
0.0726833
0.0726916
0.0724619
0.0719911
0.0712772
0.0703194
0.0691177
0.067673
0.0659873
0.0640632
0.0619038
0.0595132
0.0568954
0.0540531
0.0509894
0.0477316
0.0443029
0.0403847
0.0357088
0.0295902
0.0245132
0.0203163
0.0167027
0.0133157
0.0101734
0.00729795
0.0046846
0.00232803
0.000224741
-0.00162884
-0.00323659
-0.00460256
-0.0057309
-0.00662593
-0.00729212
-0.00773417
-0.00795697
-0.00796561
-0.00776542
-0.00736193
-0.00676089
-0.0059683
-0.00499041
-0.00383375
-0.00250517
-0.00101181
0.000638823
0.00243888
0.00438017
0.00645413
0.00865184
0.010964
0.0133808
0.0158922
0.0184875
0.0211558
0.0238855
0.0266649
0.0294816
0.032323
0.0351762
0.0380277
0.0408641
0.0436714
0.0464357
0.0491425
0.0517778
0.054327
0.056776
0.0591106
0.061317
0.0633814
0.0652906
0.067032
0.0685932
0.0699626
0.0711296
0.0720839
0.0728166
0.0733194
0.0735852
0.0736079
0.0733824
0.0729049
0.0721725
0.0711835
0.0699372
0.068434
0.0666751
0.0646625
0.0623991
0.0598885
0.0571346
0.0541401
0.0509079
0.047467
0.0438424
0.0396972
0.0347484
0.0297529
0.0244153
0.0200051
0.0162106
0.012657
0.00936319
0.00635252
0.00361955
0.00115829
-0.00103542
-0.00296589
-0.00463783
-0.00605608
-0.00722563
-0.00815162
-0.00883934
-0.00929422
-0.00952188
-0.00952811
-0.00931886
-0.00890024
-0.00827853
-0.00746022
-0.00645198
-0.00526073
-0.00389365
-0.00235819
-0.000662087
0.00118661
0.00317953
0.00530798
0.00756294
0.00993497
0.0124143
0.0149907
0.0176535
0.0203916
0.0231935
0.0260472
0.0289405
0.0318605
0.0347942
0.0377281
0.0406484
0.043541
0.0463917
0.0491858
0.0519087
0.0545456
0.057082
0.0595031
0.0617945
0.063942
0.0659316
0.0677501
0.0693842
0.0708219
0.0720513
0.0730616
0.0738428
0.0743859
0.0746828
0.0747266
0.0745113
0.0740322
0.0732855
0.0722688
0.0709808
0.0694209
0.06759
0.0654897
0.0631222
0.060491
0.0576001
0.0544518
0.0510494
0.0474236
0.0436011
0.0392265
0.034002
0.0296234
0.0240254
0.019402
0.0154269
0.011707
0.0082621
0.00511663
0.00226461
-0.000300596
-0.00258377
-0.00458994
-0.00632457
-0.00779329
-0.00900188
-0.00995627
-0.0106625
-0.0111268
-0.0113554
-0.0113548
-0.0111317
-0.0106926
-0.0100443
-0.00919396
-0.00814856
-0.00691545
-0.00550213
-0.00391635
-0.00216613
-0.000259704
0.00179437
0.00398724
0.00630976
0.0087524
0.0113053
0.013958
0.0167
0.0195199
0.0224062
0.0253469
0.0283295
0.0313412
0.0343686
0.0373981
0.0404158
0.0434073
0.046358
0.049253
0.0520772
0.0548155
0.0574527
0.0599737
0.0623634
0.0646069
0.0666897
0.0685976
0.0703167
0.0718339
0.0731368
0.0742135
0.0750531
0.0756456
0.0759821
0.0760547
0.0758565
0.0753818
0.0746261
0.0735862
0.0722599
0.0706463
0.0687454
0.0665584
0.0640874
0.0613356
0.0583068
0.0550036
0.0514292
0.0476163
0.0435933
0.0389862
0.0334819
0.0291863
0.0233273
0.0184904
0.0143347
0.0104485
0.00685296
0.00357324
0.000602974
-0.00206511
-0.0044364
-0.00651661
-0.00831192
-0.00982874
-0.0110736
-0.0120532
-0.0127744
-0.013244
-0.0134691
-0.0134568
-0.0132143
-0.0127488
-0.0120678
-0.0111786
-0.0100888
-0.00880612
-0.00733846
-0.00569385
-0.00388055
-0.00190705
0.00021792
0.00248535
0.00488593
0.00741001
0.0100476
0.0127883
0.0156212
0.0185351
0.0215182
0.0245585
0.0276433
0.0307597
0.0338941
0.0370329
0.0401616
0.0432658
0.0463304
0.0493403
0.0522799
0.0551335
0.0578856
0.0605204
0.0630221
0.0653753
0.0675645
0.0695749
0.0713916
0.0730008
0.0743889
0.0755433
0.076452
0.0771041
0.0774896
0.0775996
0.0774263
0.0769631
0.0762047
0.0751469
0.0737868
0.072123
0.0701548
0.0678831
0.0653096
0.0624373
0.0592703
0.0558108
0.0520626
0.0480601
0.0438335
0.0389899
0.0332007
0.028426
0.0223046
0.0172534
0.0129167
0.00886436
0.00511835
0.00170504
-0.00138248
-0.0041521
-0.0066098
-0.00876196
-0.0106155
-0.0121775
-0.0134553
-0.0144564
-0.0151883
-0.0156587
-0.0158752
-0.0158456
-0.0155778
-0.0150796
-0.0143588
-0.0134236
-0.0122817
-0.0109415
-0.00941101
-0.0076987
-0.00581308
-0.00376287
-0.00155701
0.000795324
0.00328466
0.00590122
0.00863486
0.0114751
0.0144109
0.017431
0.0205235
0.0236761
0.0268762
0.0301106
0.0333656
0.0366273
0.039881
0.0431119
0.0463047
0.0494437
0.0525131
0.0554966
0.058378
0.0611409
0.0637691
0.0662461
0.0685558
0.0706825
0.0726104
0.0743247
0.0758108
0.0770551
0.0780446
0.0787673
0.0792122
0.0793693
0.0792299
0.0787863
0.0780323
0.0769628
0.0755744
0.0738647
0.0718327
0.0694787
0.0668043
0.0638123
0.0605066
0.0568899
0.0529658
0.0487708
0.0443371
0.0392522
0.0331716
0.0273263
0.0209404
0.0156738
0.0111554
0.00693668
0.00304051
-0.000505698
-0.00370933
-0.00657888
-0.00912095
-0.0113426
-0.0132513
-0.0148552
-0.0161621
-0.0171803
-0.0179182
-0.018384
-0.0185863
-0.0185334
-0.0182337
-0.0176958
-0.0169281
-0.0159391
-0.0147371
-0.0133307
-0.0117286
-0.00993936
-0.00797184
-0.00583499
-0.00353797
-0.00109016
0.00149884
0.00421908
0.0070603
0.0100119
0.0130627
0.0162014
0.0194159
0.0226938
0.0260224
0.0293883
0.0327776
0.0361761
0.0395689
0.042941
0.0462764
0.0495593
0.0527732
0.0559015
0.0589272
0.0618333
0.0646028
0.0672186
0.0696636
0.0719212
0.0739746
0.075808
0.0774059
0.0787533
0.0798364
0.0806418
0.0811576
0.0813726
0.0812769
0.080862
0.0801206
0.0790468
0.0776362
0.0758859
0.0737943
0.0713612
0.0685879
0.0654771
0.0620328
0.0582576
0.0541555
0.049765
0.0451201
0.0397883
0.0334088
0.0258707
0.0192176
0.0137337
0.00903277
0.00464727
0.000601111
-0.00307724
-0.00639568
-0.00936333
-0.0119874
-0.0142756
-0.0162362
-0.0178779
-0.0192095
-0.02024
-0.0209785
-0.021434
-0.0216157
-0.0215328
-0.0211943
-0.0206092
-0.0197867
-0.0187356
-0.0174649
-0.0159835
-0.0143004
-0.0124246
-0.0103653
-0.00813158
-0.00573286
-0.00317872
-0.000478935
0.00235641
0.00531691
0.0083918
0.0115699
0.0148397
0.018189
0.0216054
0.0250758
0.0285868
0.0321243
0.0356738
0.0392203
0.042748
0.0462411
0.0496829
0.0530566
0.056345
0.0595305
0.0625955
0.0655221
0.0682922
0.0708881
0.0732919
0.0754861
0.0774537
0.0791779
0.0806428
0.0818331
0.0827346
0.0833338
0.0836186
0.0835778
0.0832018
0.0824822
0.0814123
0.0799868
0.078202
0.0760557
0.0735473
0.0706777
0.0674495
0.0638667
0.059932
0.0556497
0.0510602
0.0461995
0.0406145
0.0339274
0.0240418
0.0171181
0.0114148
0.00653008
0.00197728
-0.00221874
-0.00602844
-0.00946025
-0.0125239
-0.0152273
-0.0175787
-0.0195873
-0.0212625
-0.0226138
-0.0236511
-0.0243842
-0.024823
-0.0249774
-0.0248571
-0.024472
-0.0238318
-0.0229459
-0.0218241
-0.0204755
-0.0189097
-0.017136
-0.0151637
-0.0130022
-0.010661
-0.0081498
-0.00547822
-0.00265629
0.000305785
0.00339746
0.00660785
0.00992568
0.0133392
0.0168364
0.0204045
0.0240303
0.0277003
0.0314001
0.035115
0.0388297
0.0425282
0.046194
0.0498102
0.0533595
0.0568239
0.0601854
0.0634254
0.0665253
0.0694662
0.0722293
0.0747957
0.0771469
0.0792646
0.0811309
0.0827286
0.0840412
0.0850531
0.0857496
0.0861171
0.0861435
0.0858177
0.0851304
0.0840737
0.0826415
0.0808292
0.078634
0.0760547
0.073092
0.0697482
0.0660274
0.0619322
0.0574672
0.052675
0.0475935
0.0417482
0.0347439
0.0218215
0.0146234
0.00869799
0.00362796
-0.00109287
-0.00543868
-0.00937889
-0.0129225
-0.0160798
-0.0188594
-0.0212704
-0.0233226
-0.0250263
-0.0263918
-0.0274299
-0.028151
-0.028566
-0.0286854
-0.0285199
-0.02808
-0.0273758
-0.0264178
-0.0252158
-0.0237798
-0.0221196
-0.0202451
-0.0181658
-0.0158915
-0.013432
-0.0107971
-0.00799669
-0.00504098
-0.00194032
0.00129462
0.00465286
0.00812301
0.0116933
0.0153514
0.0190846
0.0228796
0.0267226
0.0305991
0.034494
0.0383919
0.0422763
0.0461305
0.049937
0.0536779
0.0573349
0.0608889
0.0643209
0.0676112
0.07074
0.0736875
0.0764339
0.0789592
0.081244
0.0832693
0.0850163
0.0864673
0.0876052
0.088414
0.0888787
0.0889857
0.0887227
0.0880793
0.0870463
0.0856166
0.0837849
0.0815474
0.0789025
0.0758504
0.0723933
0.068535
0.0642785
0.0596284
0.0546295
0.0493218
0.0432083
0.035876
0.019191
0.0117137
0.00556326
0.000306168
-0.00458357
-0.00907917
-0.013149
-0.0168025
-0.020051
-0.0229035
-0.0253699
-0.0274609
-0.0291875
-0.0305611
-0.0315931
-0.032295
-0.0326784
-0.0327548
-0.0325354
-0.0320316
-0.0312543
-0.0302143
-0.0289223
-0.0273886
-0.0256237
-0.0236376
-0.0214405
-0.0190424
-0.0164532
-0.0136831
-0.0107422
-0.00764084
-0.00438951
-0.000998983
0.00251965
0.00615491
0.00989492
0.0137273
0.0176393
0.0216173
0.0256475
0.0297152
0.0338051
0.0379013
0.0419873
0.0460458
0.0500589
0.0540082
0.0578745
0.0616384
0.0652798
0.0687783
0.072113
0.0752631
0.0782075
0.0809252
0.0833954
0.0855976
0.0875117
0.0891185
0.0903994
0.0913368
0.0919143
0.0921168
0.0919306
0.0913439
0.0903463
0.0889297
0.0870874
0.0848153
0.0821109
0.0789738
0.075406
0.0714114
0.0669928
0.0621551
0.0569452
0.0514053
0.0450152
0.037343
0.0161304
0.00836875
0.00198971
-0.00345648
-0.00851616
-0.0131616
-0.01736
-0.0211216
-0.0244582
-0.0273798
-0.029897
-0.0320214
-0.0337648
-0.0351397
-0.0361582
-0.036833
-0.0371763
-0.0372007
-0.0369182
-0.0363407
-0.0354802
-0.0343479
-0.0329553
-0.0313132
-0.0294325
-0.0273237
-0.0249974
-0.0224638
-0.0197333
-0.0168162
-0.0137228
-0.0104637
-0.00704931
-0.00349067
0.000201096
0.00401444
0.00793741
0.0119576
0.016062
0.0202372
0.024469
0.0287426
0.0330425
0.0373527
0.0416561
0.0459351
0.0501715
0.0543461
0.0584394
0.062431
0.0663
0.0700252
0.0735847
0.0769564
0.0801181
0.0830475
0.0857223
0.0881207
0.090221
0.0920023
0.0934445
0.0945283
0.0952357
0.09555
0.095456
0.0949402
0.0939911
0.0925991
0.0907567
0.0884585
0.0857014
0.0824845
0.0788094
0.0746799
0.0700986
0.0650708
0.0596455
0.053867
0.0471911
0.0391662
0.0126187
0.0045669
-0.00204464
-0.00768224
-0.012913
-0.0177083
-0.0220343
-0.0259018
-0.0293234
-0.0323099
-0.0348727
-0.0370245
-0.038778
-0.0401465
-0.0411434
-0.0417822
-0.0420763
-0.0420388
-0.0416829
-0.0410214
-0.0400668
-0.0388313
-0.0373267
-0.0355647
-0.0335566
-0.0313133
-0.0288459
-0.0261649
-0.023281
-0.0202047
-0.0169465
-0.0135171
-0.0099271
-0.00618759
-0.00230977
0.00169479
0.00581408
0.0100356
0.0143464
0.0187329
0.0231808
0.0276753
0.0322006
0.0367403
0.0412773
0.0457935
0.0502702
0.0546878
0.059026
0.0632637
0.0673793
0.0713505
0.0751544
0.0787678
0.0821671
0.0853286
0.0882286
0.0908436
0.0931505
0.0951265
0.0967498
0.0979994
0.0988554
0.0992993
0.0993143
0.0988853
0.0979991
0.0966448
0.0948136
0.0924991
0.0896972
0.0864065
0.0826281
0.0783655
0.0736213
0.0684009
0.0627556
0.0567318
0.04976
0.0413686
0.00863399
0.000285457
-0.00656295
-0.0123946
-0.0177978
-0.0227431
-0.0271954
-0.0311663
-0.0346694
-0.037716
-0.0403188
-0.0424913
-0.0442473
-0.0456012
-0.0465675
-0.0471607
-0.0473952
-0.0472853
-0.046845
-0.0460881
-0.0450277
-0.043677
-0.0420485
-0.0401544
-0.0380065
-0.0356164
-0.0329954
-0.0301545
-0.0271046
-0.0238565
-0.0204209
-0.0168084
-0.01303
-0.00909666
-0.00501964
-0.000810577
0.00351853
0.0079552
0.0124864
0.0170985
0.0217773
0.0265076
0.0312737
0.036059
0.040846
0.0456163
0.0503508
0.0550293
0.0596309
0.0641338
0.0685156
0.0727528
0.0768217
0.0806976
0.0843558
0.087771
0.0909181
0.0937717
0.096307
0.0984995
0.100325
0.101762
0.102786
0.103379
0.103522
0.103197
0.10239
0.101088
0.0992807
0.096961
0.0941234
0.0907658
0.0868888
0.0824955
0.0775885
0.0721729
0.0663028
0.0600266
0.0527485
0.0439755
0.00415288
-0.00449958
-0.0115897
-0.0176182
-0.0231954
-0.0282907
-0.0328681
-0.0369397
-0.0405201
-0.0436218
-0.0462582
-0.0484439
-0.0501941
-0.0515242
-0.0524499
-0.0529868
-0.0531506
-0.0529567
-0.0524199
-0.0515551
-0.0503765
-0.0488978
-0.0471324
-0.0450932
-0.0427926
-0.0402426
-0.0374551
-0.0344412
-0.0312123
-0.0277794
-0.0241532
-0.0203447
-0.0163647
-0.0122243
-0.00793484
-0.00350783
0.00104472
0.00571035
0.0104761
0.0153282
0.0202526
0.025234
0.0302566
0.0353035
0.0403571
0.0453987
0.0504087
0.0553665
0.0602506
0.0650384
0.0697065
0.0742307
0.0785859
0.0827464
0.0866859
0.0903777
0.0937949
0.0969105
0.0996976
0.10213
0.104181
0.105827
0.107043
0.107806
0.108097
0.107895
0.107185
0.105951
0.104182
0.10187
0.0990068
0.0955903
0.0916201
0.0870992
0.0820297
0.0764168
0.070317
0.063781
0.0561852
0.0470148
-0.000849271
-0.00981366
-0.0171509
-0.0233795
-0.0291323
-0.0343777
-0.0390785
-0.0432479
-0.0469012
-0.0500519
-0.0527148
-0.0549055
-0.0566405
-0.0579366
-0.0588106
-0.0592796
-0.0593605
-0.0590696
-0.0584233
-0.0574372
-0.0561267
-0.0545063
-0.0525903
-0.0503921
-0.0479249
-0.0452013
-0.0422334
-0.0390331
-0.0356116
-0.0319804
-0.0281503
-0.0241323
-0.0199374
-0.0155766
-0.0110611
-0.00640259
-0.00161289
0.00329562
0.00831001
0.0134167
0.0186015
0.0238492
0.029144
0.0344689
0.0398059
0.0451362
0.0504398
0.0556957
0.0608816
0.0659745
0.0709499
0.0757827
0.0804466
0.0849146
0.089159
0.0931514
0.0968633
0.100266
0.10333
0.106027
0.108328
0.110208
0.111639
0.112596
0.113057
0.113