/*--------------------------------*- C++ -*----------------------------------*\
| =========                 |                                                 |
| \\      /  F ield         | OpenFOAM: The Open Source CFD Toolbox           |
|  \\    /   O peration     | Version:  2506                                  |
|   \\  /    A nd           | Website:  www.openfoam.com                      |
|    \\/     M anipulation  |                                                 |
\*---------------------------------------------------------------------------*/
FoamFile
{
    version     2.0;
    format      ascii;
    arch        "LSB;label=32;scalar=64";
    class       surfaceScalarField;
    location    "0.575";
    object      phi;
}
// * * * * * * * * * * * * * * * * * * * * * * * * * * * * * * * * * * * * * //

dimensions      [0 3 -1 0 0 0 0];

oriented        oriented;

internalField   nonuniform List<scalar> 
12640
(
1.89339e-10
-1.91764e-10
5.56e-10
-3.6666e-10
8.83743e-10
-3.27736e-10
1.04729e-09
-1.6354e-10
9.84441e-10
6.28529e-11
6.68059e-10
3.16386e-10
9.12254e-11
5.76832e-10
-7.4099e-10
8.32208e-10
-1.8164e-09
1.07541e-09
-3.11856e-09
1.30216e-09
-4.62847e-09
1.50991e-09
-6.32569e-09
1.69721e-09
-8.18898e-09
1.86328e-09
-1.01968e-08
2.00781e-09
-1.23276e-08
2.13082e-09
-1.45601e-08
2.23255e-09
-1.68735e-08
2.3134e-09
-1.92474e-08
2.3739e-09
-2.16621e-08
2.41467e-09
-2.40985e-08
2.43639e-09
-2.65383e-08
2.43977e-09
-2.89639e-08
2.42559e-09
-3.13585e-08
2.39463e-09
-3.37062e-08
2.34768e-09
-3.59918e-08
2.28558e-09
-3.82009e-08
2.20913e-09
-4.03201e-08
2.11918e-09
-4.23366e-08
2.01657e-09
-4.42388e-08
1.90212e-09
-4.60155e-08
1.77669e-09
-4.76566e-08
1.64112e-09
-4.91529e-08
1.49628e-09
-5.04959e-08
1.34302e-09
-5.16781e-08
1.18221e-09
-5.26928e-08
1.01473e-09
-5.35343e-08
8.41464e-10
-5.41976e-08
6.63321e-10
-5.46788e-08
4.81213e-10
-5.49749e-08
2.96071e-10
-5.50837e-08
1.08842e-10
-5.50042e-08
-7.95073e-11
-5.47362e-08
-2.67995e-10
-5.42806e-08
-4.55619e-10
-5.36393e-08
-6.4136e-10
-5.28151e-08
-8.24181e-10
-5.18121e-08
-1.00303e-09
-5.06352e-08
-1.17684e-09
-4.92907e-08
-1.34453e-09
-4.77857e-08
-1.50501e-09
-4.61285e-08
-1.65719e-09
-4.43286e-08
-1.79998e-09
-4.23963e-08
-1.93228e-09
-4.03433e-08
-2.05301e-09
-3.81822e-08
-2.1611e-09
-3.59267e-08
-2.25549e-09
-3.35915e-08
-2.33517e-09
-3.11924e-08
-2.39914e-09
-2.8746e-08
-2.44646e-09
-2.62697e-08
-2.47623e-09
-2.37821e-08
-2.4876e-09
-2.13023e-08
-2.47981e-09
-1.88502e-08
-2.45217e-09
-1.64461e-08
-2.40406e-09
-1.41111e-08
-2.33499e-09
-1.18665e-08
-2.24458e-09
-9.73396e-09
-2.13259e-09
-7.73502e-09
-1.99895e-09
-5.8912e-09
-1.84382e-09
-4.2236e-09
-1.66761e-09
-2.75251e-09
-1.47109e-09
-1.49697e-09
-1.25554e-09
-4.74031e-10
-1.02294e-09
3.02325e-10
-7.7636e-10
8.22895e-10
-5.2057e-10
1.08607e-09
-2.63173e-10
1.10262e-09
-1.6544e-11
9.03636e-10
1.98975e-10
5.54964e-10
3.48673e-10
1.84001e-10
3.71027e-10
1.84112e-10
3.65808e-10
-5.57576e-10
8.87339e-10
-8.88176e-10
1.21932e-09
-6.59724e-10
1.13859e-09
-8.28112e-11
5.07339e-10
6.94084e-10
-7.4836e-10
1.57207e-09
-2.65779e-09
2.48624e-09
-5.21995e-09
3.39435e-09
-8.41347e-09
4.26891e-09
-1.22034e-08
5.09202e-09
-1.65455e-08
5.85208e-09
-2.13901e-08
6.54174e-09
-2.66833e-08
7.15653e-09
-3.23695e-08
7.69404e-09
-3.8392e-08
8.15328e-09
-4.46938e-08
8.53435e-09
-5.12185e-08
8.83811e-09
-5.79106e-08
9.06601e-09
-6.47159e-08
9.21993e-09
-7.15816e-08
9.30209e-09
-7.84568e-08
9.31495e-09
-8.52923e-08
9.26117e-09
-9.20413e-08
9.14356e-09
-9.86586e-08
8.96504e-09
-1.05102e-07
8.7286e-09
-1.1133e-07
8.43732e-09
-1.17305e-07
8.09429e-09
-1.22991e-07
7.7027e-09
-1.28355e-07
7.26571e-09
-1.33365e-07
6.78656e-09
-1.37992e-07
6.2685e-09
-1.4221e-07
5.7148e-09
-1.45996e-07
5.1288e-09
-1.49328e-07
4.51383e-09
-1.52186e-07
3.87328e-09
-1.54556e-07
3.21061e-09
-1.56422e-07
2.52929e-09
-1.57773e-07
1.83286e-09
-1.58602e-07
1.12493e-09
-1.58902e-07
4.09155e-10
-1.58671e-07
-3.10738e-10
-1.57908e-07
-1.03096e-09
-1.56616e-07
-1.74766e-09
-1.54801e-07
-2.45691e-09
-1.5247e-07
-3.15474e-09
-1.49636e-07
-3.83712e-09
-1.46313e-07
-4.49996e-09
-1.42518e-07
-5.13916e-09
-1.38273e-07
-5.75057e-09
-1.336e-07
-6.33004e-09
-1.28526e-07
-6.87342e-09
-1.23082e-07
-7.37659e-09
-1.173e-07
-7.83545e-09
-1.11215e-07
-8.24599e-09
-1.04866e-07
-8.60428e-09
-9.82946e-08
-8.90652e-09
-9.15447e-08
-9.14903e-09
-8.46629e-08
-9.32833e-09
-7.7698e-08
-9.44113e-09
-7.07012e-08
-9.48442e-09
-6.37255e-08
-9.45545e-09
-5.68259e-08
-9.35181e-09
-5.00584e-08
-9.1715e-09
-4.34805e-08
-8.91294e-09
-3.715e-08
-8.57511e-09
-3.11249e-08
-8.1576e-09
-2.54631e-08
-7.66077e-09
-2.0221e-08
-7.08592e-09
-1.54531e-08
-6.43556e-09
-1.12104e-08
-5.71373e-09
-7.53934e-09
-4.92661e-09
-4.47898e-09
-4.0833e-09
-2.05825e-09
-3.1971e-09
-2.91347e-10
-2.28748e-09
8.28768e-10
-1.38328e-09
1.33983e-09
-5.27578e-10
1.32397e-09
2.1482e-10
9.25606e-10
7.46904e-10
3.70899e-10
9.25545e-10
5.55048e-10
3.30572e-10
-8.88141e-10
6.67638e-10
-1.22522e-09
6.16139e-10
-6.0822e-10
-8.51211e-11
6.18456e-10
-1.6072e-09
2.21616e-09
-4.04946e-09
4.01434e-09
-7.45647e-09
5.89326e-09
-1.18323e-08
7.77019e-09
-1.71517e-08
9.58829e-09
-2.33683e-08
1.13086e-08
-3.04208e-08
1.29046e-08
-3.82377e-08
1.43586e-08
-4.67405e-08
1.56593e-08
-5.58462e-08
1.67998e-08
-6.54694e-08
1.77765e-08
-7.55236e-08
1.85885e-08
-8.59221e-08
1.92367e-08
-9.65793e-08
1.97232e-08
-1.07411e-07
2.00515e-08
-1.18335e-07
2.02258e-08
-1.29271e-07
2.0251e-08
-1.40142e-07
2.01324e-08
-1.50874e-07
1.98758e-08
-1.61396e-07
1.94873e-08
-1.71641e-07
1.89732e-08
-1.81544e-07
1.834e-08
-1.91044e-07
1.75943e-08
-2.00084e-07
1.67429e-08
-2.08611e-07
1.57928e-08
-2.16575e-07
1.47508e-08
-2.23931e-07
1.3624e-08
-2.30636e-07
1.24197e-08
-2.36652e-07
1.11449e-08
-2.41945e-07
9.80711e-09
-2.46485e-07
8.41368e-09
-2.50247e-07
6.97212e-09
-2.53208e-07
5.49009e-09
-2.5535e-07
3.97532e-09
-2.56661e-07
2.43571e-09
-2.57131e-07
8.79249e-10
-2.56756e-07
-6.85906e-10
-2.55535e-07
-2.25148e-09
-2.53474e-07
-3.80906e-09
-2.50581e-07
-5.35011e-09
-2.4687e-07
-6.86597e-09
-2.42359e-07
-8.34787e-09
-2.37072e-07
-9.78696e-09
-2.31037e-07
-1.11743e-08
-2.24286e-07
-1.2501e-08
-2.16858e-07
-1.37579e-08
-2.08796e-07
-1.49363e-08
-2.00145e-07
-1.60271e-08
-1.90959e-07
-1.70217e-08
-1.81293e-07
-1.79114e-08
-1.7121e-07
-1.86878e-08
-1.60774e-07
-1.93428e-08
-1.50054e-07
-1.98686e-08
-1.39125e-07
-2.02579e-08
-1.28062e-07
-2.05037e-08
-1.16946e-07
-2.06e-08
-1.05861e-07
-2.05409e-08
-9.48912e-08
-2.03217e-08
-8.41242e-08
-1.99385e-08
-7.36487e-08
-1.93884e-08
-6.35539e-08
-1.86699e-08
-5.39288e-08
-1.77828e-08
-4.48608e-08
-1.67287e-08
-3.64352e-08
-1.55115e-08
-2.87329e-08
-1.41379e-08
-2.18286e-08
-1.2618e-08
-1.57885e-08
-1.09667e-08
-1.06668e-08
-9.20498e-09
-6.50127e-09
-7.36269e-09
-3.30701e-09
-5.48174e-09
-1.06891e-09
-3.62134e-09
2.69028e-10
-1.86544e-09
8.17165e-10
-3.33207e-10
7.55682e-10
8.08444e-10
3.51405e-10
1.32972e-09
9.06435e-10
1.72319e-10
-1.06046e-09
1.06361e-10
-1.15927e-09
-5.84861e-10
8.29898e-11
-2.16551e-09
2.19909e-09
-4.81291e-09
4.86355e-09
-8.63358e-09
7.83501e-09
-1.36771e-08
1.09368e-08
-1.99485e-08
1.40415e-08
-2.74184e-08
1.70583e-08
-3.60319e-08
1.99221e-08
-4.57147e-08
2.25874e-08
-5.63784e-08
2.50224e-08
-6.7925e-08
2.72059e-08
-8.02496e-08
2.91244e-08
-9.32432e-08
3.07701e-08
-1.06794e-07
3.21397e-08
-1.20791e-07
3.32333e-08
-1.35121e-07
3.40537e-08
-1.49676e-07
3.46056e-08
-1.64345e-07
3.48955e-08
-1.79025e-07
3.4931e-08
-1.93614e-07
3.47207e-08
-2.08012e-07
3.42741e-08
-2.22126e-07
3.36011e-08
-2.35865e-07
3.27124e-08
-2.49144e-07
3.16189e-08
-2.61881e-07
3.03319e-08
-2.74001e-07
2.88628e-08
-2.85432e-07
2.72235e-08
-2.96107e-07
2.54259e-08
-3.05965e-07
2.34821e-08
-3.1495e-07
2.14045e-08
-3.23011e-07
1.92055e-08
-3.30101e-07
1.68979e-08
-3.36182e-07
1.44943e-08
-3.41218e-07
1.20079e-08
-3.4518e-07
9.45189e-09
-3.48044e-07
6.83966e-09
-3.49793e-07
4.18485e-09
-3.50415e-07
1.50134e-09
-3.49904e-07
-1.19679e-09
-3.48261e-07
-3.89523e-09
-3.4549e-07
-6.57946e-09
-3.41606e-07
-9.23474e-09
-3.36625e-07
-1.18461e-08
-3.30575e-07
-1.43986e-08
-3.23485e-07
-1.68768e-08
-3.15394e-07
-1.92655e-08
-3.06345e-07
-2.15493e-08
-2.96391e-07
-2.37128e-08
-2.85586e-07
-2.57407e-08
-2.73996e-07
-2.76178e-08
-2.61688e-07
-2.93293e-08
-2.48739e-07
-3.08604e-08
-2.3523e-07
-3.2197e-08
-2.21247e-07
-3.33252e-08
-2.06884e-07
-3.42321e-08
-1.92236e-07
-3.49053e-08
-1.77407e-07
-3.53333e-08
-1.62501e-07
-3.55058e-08
-1.47628e-07
-3.54136e-08
-1.32901e-07
-3.50491e-08
-1.18433e-07
-3.44062e-08
-1.04341e-07
-3.34807e-08
-9.07401e-08
-3.22708e-08
-7.77456e-08
-3.07773e-08
-6.547e-08
-2.90043e-08
-5.40219e-08
-2.69596e-08
-4.35037e-08
-2.46561e-08
-3.4009e-08
-2.21127e-08
-2.56195e-08
-1.93562e-08
-1.84007e-08
-1.64237e-08
-1.23974e-08
-1.3366e-08
-7.62657e-09
-1.02526e-08
-4.07002e-09
-7.17793e-09
-1.66445e-09
-4.27107e-09
-2.89886e-10
-1.70779e-09
2.43103e-10
2.75545e-10
2.0829e-10
1.36454e-09
1.11471e-09
-4.68742e-11
-1.01358e-09
-6.5258e-10
-5.5356e-10
-2.15523e-09
1.58563e-09
-4.79547e-09
4.83933e-09
-8.73767e-09
8.80574e-09
-1.40814e-08
1.31787e-08
-2.08716e-08
1.7727e-08
-2.91089e-08
2.22788e-08
-3.87576e-08
2.6707e-08
-4.9754e-08
3.09185e-08
-6.20125e-08
3.48459e-08
-7.54308e-08
3.84407e-08
-8.98946e-08
4.16697e-08
-1.05281e-07
4.45106e-08
-1.21461e-07
4.69498e-08
-1.38302e-07
4.89807e-08
-1.5567e-07
5.06018e-08
-1.73432e-07
5.18157e-08
-1.91455e-07
5.26284e-08
-2.09608e-07
5.30484e-08
-2.27763e-07
5.30863e-08
-2.45797e-07
5.27545e-08
-2.63589e-07
5.20664e-08
-2.81025e-07
5.10369e-08
-2.97994e-07
4.96813e-08
-3.14391e-07
4.8016e-08
-3.30117e-07
4.60576e-08
-3.45077e-07
4.38236e-08
-3.59185e-07
4.13315e-08
-3.72359e-07
3.85994e-08
-3.84523e-07
3.56457e-08
-3.95607e-07
3.24889e-08
-4.0555e-07
2.91481e-08
-4.14294e-07
2.56425e-08
-4.21792e-07
2.19915e-08
-4.27999e-07
1.8215e-08
-4.3288e-07
1.43332e-08
-4.36407e-07
1.03663e-08
-4.38557e-07
6.33525e-09
-4.39317e-07
2.26107e-09
-4.38679e-07
-1.8348e-09
-4.36643e-07
-5.93063e-09
-4.33218e-07
-1.00043e-08
-4.2842e-07
-1.40336e-08
-4.2227e-07
-1.79957e-08
-4.14801e-07
-2.18679e-08
-4.0605e-07
-2.5627e-08
-3.96066e-07
-2.925e-08
-3.84902e-07
-3.27135e-08
-3.7262e-07
-3.59945e-08
-3.59291e-07
-3.90699e-08
-3.44992e-07
-4.19168e-08
-3.29808e-07
-4.45129e-08
-3.13832e-07
-4.68362e-08
-2.97164e-07
-4.88654e-08
-2.79909e-07
-5.05802e-08
-2.6218e-07
-5.1961e-08
-2.44096e-07
-5.29897e-08
-2.25779e-07
-5.36495e-08
-2.0736e-07
-5.39253e-08
-1.8897e-07
-5.38038e-08
-1.70745e-07
-5.32743e-08
-1.52822e-07
-5.23283e-08
-1.35342e-07
-5.09607e-08
-1.18443e-07
-4.91698e-08
-1.02263e-07
-4.69581e-08
-8.6934e-08
-4.43329e-08
-7.25858e-08
-4.13079e-08
-5.93382e-08
-3.79037e-08
-4.73006e-08
-3.41503e-08
-3.65679e-08
-3.0089e-08
-2.72158e-08
-2.57757e-08
-1.92964e-08
-2.12854e-08
-1.28315e-08
-1.67175e-08
-7.80558e-09
-1.22038e-08
-4.15795e-09
-7.91875e-09
-1.77308e-09
-4.09271e-09
-4.71222e-10
-1.02626e-09
2.46627e-12
8.9089e-10
1.11718e-09
-2.93744e-10
-7.19846e-10
-1.51672e-09
6.69416e-10
-3.93796e-09
4.00685e-09
-7.75681e-09
8.65818e-09
-1.31107e-08
1.41596e-08
-2.00813e-08
2.01492e-08
-2.87008e-08
2.63465e-08
-3.89594e-08
3.25374e-08
-5.08121e-08
3.85597e-08
-6.41851e-08
4.42915e-08
-7.89812e-08
4.9642e-08
-9.50856e-08
5.45451e-08
-1.1237e-07
5.89536e-08
-1.30694e-07
6.28351e-08
-1.49913e-07
6.61691e-08
-1.69877e-07
6.89445e-08
-1.90433e-07
7.11574e-08
-2.11427e-07
7.28098e-08
-2.32707e-07
7.39086e-08
-2.54123e-07
7.44643e-08
-2.75528e-07
7.44907e-08
-2.96777e-07
7.40037e-08
-3.17732e-07
7.30217e-08
-3.38259e-07
7.15643e-08
-3.58231e-07
6.96527e-08
-3.77524e-07
6.73091e-08
-3.96023e-07
6.45565e-08
-4.13618e-07
6.14189e-08
-4.30207e-07
5.79208e-08
-4.45695e-07
5.40872e-08
-4.59993e-07
4.99437e-08
-4.73021e-07
4.55163e-08
-4.84704e-07
4.08316e-08
-4.94978e-07
3.59164e-08
-5.03785e-07
3.07981e-08
-5.11074e-07
2.55045e-08
-5.16805e-07
2.00637e-08
-5.20943e-07
1.45044e-08
-5.23463e-07
8.85574e-09
-5.24349e-07
3.14729e-09
-5.23593e-07
-2.59095e-09
-5.21195e-07
-8.32852e-09
-5.17165e-07
-1.40345e-08
-5.11521e-07
-1.96777e-08
-5.0429e-07
-2.52263e-08
-4.9551e-07
-3.06486e-08
-4.85225e-07
-3.59122e-08
-4.7349e-07
-4.0985e-08
-4.60368e-07
-4.58346e-08
-4.45934e-07
-5.04288e-08
-4.30269e-07
-5.47355e-08
-4.13462e-07
-5.87231e-08
-3.95615e-07
-6.23605e-08
-3.76833e-07
-6.56175e-08
-3.57234e-07
-6.84647e-08
-3.3694e-07
-7.08739e-08
-3.16083e-07
-7.28186e-08
-2.94799e-07
-7.42739e-08
-2.73231e-07
-7.52169e-08
-2.51529e-07
-7.56272e-08
-2.29846e-07
-7.54874e-08
-2.08337e-07
-7.4783e-08
-1.87162e-07
-7.35037e-08
-1.66479e-07
-7.16432e-08
-1.46449e-07
-6.92005e-08
-1.27226e-07
-6.61803e-08
-1.08965e-07
-6.25946e-08
-9.1809e-08
-5.84636e-08
-7.58953e-08
-5.38174e-08
-6.13469e-08
-4.86987e-08
-4.82709e-08
-4.3165e-08
-3.67538e-08
-3.72929e-08
-2.68566e-08
-3.11827e-08
-1.86093e-08
-2.49647e-08
-1.20052e-08
-1.88078e-08
-6.99428e-09
-1.29297e-08
-3.47636e-09
-7.61066e-09
-1.29523e-09
-3.20737e-09
-2.32696e-10
-1.71642e-10
8.84485e-10
-5.50129e-10
-1.69725e-10
-2.42843e-09
2.54771e-09
-5.82838e-09
7.40677e-09
-1.08981e-08
1.37279e-08
-1.77388e-08
2.10003e-08
-2.64059e-08
2.88162e-08
-3.6912e-08
3.68526e-08
-4.92321e-08
4.48575e-08
-6.33079e-08
5.26356e-08
-7.90533e-08
6.00369e-08
-9.63591e-08
6.69479e-08
-1.15098e-07
7.32836e-08
-1.35126e-07
7.89824e-08
-1.56292e-07
8.40011e-08
-1.78434e-07
8.83112e-08
-2.01386e-07
9.18965e-08
-2.24979e-07
9.47499e-08
-2.49042e-07
9.68726e-08
-2.73405e-07
9.82719e-08
-2.97901e-07
9.89603e-08
-3.22365e-07
9.89546e-08
-3.46636e-07
9.82749e-08
-3.70559e-07
9.69442e-08
-3.93982e-07
9.49879e-08
-4.16763e-07
9.2433e-08
-4.38762e-07
8.93084e-08
-4.5985e-07
8.56442e-08
-4.79902e-07
8.14716e-08
-4.98804e-07
7.68227e-08
-5.16447e-07
7.17305e-08
-5.32732e-07
6.62286e-08
-5.47568e-07
6.03516e-08
-5.6087e-07
5.41342e-08
-5.72566e-07
4.76123e-08
-5.8259e-07
4.08219e-08
-5.90885e-07
3.37998e-08
-5.97405e-07
2.65835e-08
-6.02112e-07
1.92109e-08
-6.04976e-07
1.17206e-08
-6.05981e-07
4.15177e-09
-6.05116e-07
-3.45585e-09
-6.02383e-07
-1.10619e-08
-5.97792e-07
-1.86255e-08
-5.91364e-07
-2.61054e-08
-5.83131e-07
-3.34596e-08
-5.73133e-07
-4.0646e-08
-5.61423e-07
-4.76222e-08
-5.48063e-07
-5.43456e-08
-5.33124e-07
-6.07737e-08
-5.16688e-07
-6.68639e-08
-4.9885e-07
-7.25743e-08
-4.79709e-07
-7.78632e-08
-4.5938e-07
-8.26901e-08
-4.37982e-07
-8.70151e-08
-4.15647e-07
-9.08e-08
-3.92513e-07
-9.40082e-08
-3.68726e-07
-9.6605e-08
-3.44442e-07
-9.85582e-08
-3.1982e-07
-9.98384e-08
-2.95028e-07
-1.0042e-07
-2.70236e-07
-1.00279e-07
-2.45619e-07
-9.94002e-08
-2.21353e-07
-9.77691e-08
-1.97617e-07
-9.53792e-08
-1.74587e-07
-9.22305e-08
-1.52437e-07
-8.83306e-08
-1.31335e-07
-8.36966e-08
-1.11442e-07
-7.83564e-08
-9.29088e-08
-7.23506e-08
-7.5872e-08
-6.57355e-08
-6.04509e-08
-5.8586e-08
-4.67439e-08
-5.1e-08
-3.48233e-08
-4.31033e-08
-2.47313e-08
-3.50568e-08
-1.64749e-08
-2.70642e-08
-1.00215e-08
-1.93831e-08
-5.29461e-09
-1.23376e-08
-2.17083e-09
-6.33115e-09
-4.78756e-10
-1.86374e-09
4.05728e-10
-8.06161e-10
6.36435e-10
-3.35291e-09
5.09445e-09
-7.75922e-09
1.18131e-08
-1.41179e-08
2.00866e-08
-2.24883e-08
2.93707e-08
-3.28938e-08
3.92217e-08
-4.53225e-08
4.92813e-08
-5.97294e-08
5.92645e-08
-7.60399e-08
6.8946e-08
-9.4153e-08
7.815e-08
-1.13946e-07
8.67408e-08
-1.35278e-07
9.46152e-08
-1.57992e-07
1.01697e-07
-1.81923e-07
1.07932e-07
-2.06895e-07
1.13283e-07
-2.32726e-07
1.17728e-07
-2.59234e-07
1.21257e-07
-2.86232e-07
1.2387e-07
-3.13534e-07
1.25575e-07
-3.40959e-07
1.26385e-07
-3.68324e-07
1.2632e-07
-3.95455e-07
1.25406e-07
-4.22181e-07
1.2367e-07
-4.48335e-07
1.21142e-07
-4.73761e-07
1.17858e-07
-4.98305e-07
1.13853e-07
-5.21824e-07
1.09164e-07
-5.44183e-07
1.0383e-07
-5.65253e-07
9.7893e-08
-5.84916e-07
9.13934e-08
-6.03062e-07
8.43742e-08
-6.19589e-07
7.68789e-08
-6.34407e-07
6.89518e-08
-6.47433e-07
6.06382e-08
-6.58595e-07
5.19842e-08
-6.67831e-07
4.30363e-08
-6.7509e-07
3.38422e-08
-6.80329e-07
2.44501e-08
-6.83518e-07
1.49091e-08
-6.84635e-07
5.26905e-09
-6.83671e-07
-4.41965e-09
-6.80627e-07
-1.41057e-08
-6.75516e-07
-2.37372e-08
-6.68359e-07
-3.32616e-08
-6.59193e-07
-4.2626e-08
-6.48062e-07
-5.17768e-08
-6.35024e-07
-6.06603e-08
-6.20147e-07
-6.92227e-08
-6.03511e-07
-7.741e-08
-5.85206e-07
-8.51687e-08
-5.65335e-07
-9.24456e-08
-5.4401e-07
-9.91884e-08
-5.21354e-07
-1.05346e-07
-4.97501e-07
-1.10868e-07
-4.72595e-07
-1.15706e-07
-4.46788e-07
-1.19816e-07
-4.2024e-07
-1.23152e-07
-3.93122e-07
-1.25676e-07
-3.6561e-07
-1.27351e-07
-3.37885e-07
-1.28144e-07
-3.10136e-07
-1.28029e-07
-2.82552e-07
-1.26984e-07
-2.55328e-07
-1.24993e-07
-2.28658e-07
-1.2205e-07
-2.02733e-07
-1.18155e-07
-1.77743e-07
-1.1332e-07
-1.53872e-07
-1.07568e-07
-1.31296e-07
-1.00933e-07
-1.10178e-07
-9.34685e-08
-9.06687e-08
-8.52445e-08
-7.29014e-08
-7.63533e-08
-5.69872e-08
-6.69142e-08
-4.30125e-08
-5.7078e-08
-3.10349e-08
-4.70344e-08
-2.10798e-08
-3.70193e-08
-1.31371e-08
-2.73257e-08
-7.15966e-09
-1.8315e-08
-3.06252e-09
-1.04283e-08
-7.25471e-10
-4.2008e-09
-3.1975e-10
-1.05674e-09
1.69317e-09
-4.26987e-09
8.30756e-09
-9.68863e-09
1.72318e-08
-1.73501e-08
2.77481e-08
-2.72691e-08
3.92897e-08
-3.94336e-08
5.13862e-08
-5.38031e-08
6.36509e-08
-7.03096e-08
7.57709e-08
-8.88586e-08
8.7495e-08
-1.09332e-07
9.86238e-08
-1.31593e-07
1.09001e-07
-1.55484e-07
1.18507e-07
-1.80838e-07
1.2705e-07
-2.07472e-07
1.34566e-07
-2.35198e-07
1.41009e-07
-2.63822e-07
1.46352e-07
-2.93146e-07
1.50581e-07
-3.2297e-07
1.53694e-07
-3.53094e-07
1.55699e-07
-3.83321e-07
1.56612e-07
-4.13458e-07
1.56457e-07
-4.43314e-07
1.55262e-07
-4.72705e-07
1.5306e-07
-5.01452e-07
1.49889e-07
-5.29384e-07
1.4579e-07
-5.56336e-07
1.40806e-07
-5.82155e-07
1.34982e-07
-6.06691e-07
1.28367e-07
-6.29807e-07
1.21009e-07
-6.51374e-07
1.1296e-07
-6.71272e-07
1.04273e-07
-6.89393e-07
9.49997e-08
-7.05637e-07
8.51958e-08
-7.19916e-07
7.49165e-08
-7.3215e-07
6.42185e-08
-7.42273e-07
5.31594e-08
-7.50228e-07
4.17976e-08
-7.55971e-07
3.01928e-08
-7.59467e-07
1.84052e-08
-7.60694e-07
6.49618e-09
-7.59642e-07
-5.472e-09
-7.56311e-07
-1.74363e-08
-7.50716e-07
-2.93329e-08
-7.4288e-07
-4.10971e-08
-7.32842e-07
-5.26639e-08
-7.20651e-07
-6.39675e-08
-7.0637e-07
-7.49419e-08
-6.90072e-07
-8.5521e-08
-6.71843e-07
-9.56388e-08
-6.51782e-07
-1.0523e-07
-6.29999e-07
-1.14228e-07
-6.06617e-07
-1.22571e-07
-5.81768e-07
-1.30195e-07
-5.55597e-07
-1.37039e-07
-5.28259e-07
-1.43044e-07
-4.99919e-07
-1.48156e-07
-4.70751e-07
-1.5232e-07
-4.40937e-07
-1.5549e-07
-4.10669e-07
-1.5762e-07
-3.80141e-07
-1.58672e-07
-3.49557e-07
-1.58613e-07
-3.19123e-07
-1.57418e-07
-2.89045e-07
-1.55071e-07
-2.59534e-07
-1.51561e-07
-2.30796e-07
-1.46893e-07
-2.03035e-07
-1.41081e-07
-1.7645e-07
-1.34153e-07
-1.51231e-07
-1.26153e-07
-1.27555e-07
-1.17145e-07
-1.05587e-07
-1.07212e-07
-8.54735e-08
-9.64663e-08
-6.7342e-08
-8.50457e-08
-5.12948e-08
-7.31252e-08
-3.74081e-08
-6.09211e-08
-2.57291e-08
-4.86984e-08
-1.62741e-08
-3.67807e-08
-9.0288e-09
-2.55603e-08
-3.9494e-09
-1.55077e-08
-9.6748e-10
-7.18272e-09
-1.28724e-09
-1.29947e-09
2.99263e-09
-5.16814e-09
1.21762e-08
-1.15917e-08
2.36553e-08
-2.05532e-08
3.67097e-08
-3.20227e-08
5.07591e-08
-4.59506e-08
6.53141e-08
-6.22657e-08
7.9966e-08
-8.08737e-08
9.4379e-08
-1.01658e-07
1.0828e-07
-1.24483e-07
1.21448e-07
-1.49193e-07
1.33711e-07
-1.75616e-07
1.4493e-07
-2.03569e-07
1.55003e-07
-2.32857e-07
1.63854e-07
-2.63278e-07
1.7143e-07
-2.94624e-07
1.77698e-07
-3.26684e-07
1.82641e-07
-3.59244e-07
1.86255e-07
-3.92094e-07
1.88548e-07
-4.25022e-07
1.8954e-07
-4.57822e-07
1.89257e-07
-4.90291e-07
1.87731e-07
-5.22232e-07
1.85002e-07
-5.53455e-07
1.81113e-07
-5.83778e-07
1.76113e-07
-6.13025e-07
1.70053e-07
-6.4103e-07
1.62987e-07
-6.67636e-07
1.54972e-07
-6.92694e-07
1.46067e-07
-7.16068e-07
1.36334e-07
-7.37628e-07
1.25834e-07
-7.5726e-07
1.14631e-07
-7.74855e-07
1.02791e-07
-7.9032e-07
9.03815e-08
-8.03571e-07
7.74692e-08
-8.14535e-07
6.41237e-08
-8.23153e-07
5.04153e-08
-8.29376e-07
3.64154e-08
-8.33167e-07
2.21966e-08
-8.34504e-07
7.83259e-09
-8.33374e-07
-6.60201e-09
-8.29778e-07
-2.10315e-08
-8.23732e-07
-3.53791e-08
-8.15262e-07
-4.95675e-08
-8.04407e-07
-6.35184e-08
-7.91222e-07
-7.71531e-08
-7.75771e-07
-9.03926e-08
-7.58134e-07
-1.03158e-07
-7.38404e-07
-1.15369e-07
-7.16685e-07
-1.26949e-07
-6.93095e-07
-1.37818e-07
-6.67764e-07
-1.47902e-07
-6.40835e-07
-1.57124e-07
-6.12461e-07
-1.65412e-07
-5.82809e-07
-1.72697e-07
-5.52054e-07
-1.78911e-07
-5.20381e-07
-1.83993e-07
-4.87986e-07
-1.87885e-07
-4.55071e-07
-1.90534e-07
-4.21846e-07
-1.91896e-07
-3.88527e-07
-1.91932e-07
-3.55332e-07
-1.90613e-07
-3.22484e-07
-1.87918e-07
-2.90206e-07
-1.8384e-07
-2.58718e-07
-1.78381e-07
-2.2824e-07
-1.71559e-07
-1.98983e-07
-1.6341e-07
-1.71151e-07
-1.53985e-07
-1.44937e-07
-1.43358e-07
-1.2052e-07
-1.31629e-07
-9.80639e-08
-1.18923e-07
-7.7711e-08
-1.05399e-07
-5.95828e-08
-9.12534e-08
-4.37767e-08
-7.67272e-08
-3.03642e-08
-6.21109e-08
-1.93908e-08
-4.77542e-08
-1.08766e-08
-3.40745e-08
-4.81989e-09
-2.15645e-08
-1.20222e-09
-1.08004e-08
-2.48946e-09
-1.53346e-09
4.52608e-09
-6.04219e-09
1.66849e-08
-1.34546e-08
3.10677e-08
-2.37031e-08
4.69581e-08
-3.67132e-08
6.37692e-08
-5.23976e-08
8.09985e-08
-7.06525e-08
9.8221e-08
-9.13562e-08
1.15083e-07
-1.14368e-07
1.31292e-07
-1.39531e-07
1.46612e-07
-1.66672e-07
1.60851e-07
-1.95602e-07
1.7386e-07
-2.26122e-07
1.85523e-07
-2.58024e-07
1.95756e-07
-2.9109e-07
2.04497e-07
-3.25101e-07
2.11709e-07
-3.59832e-07
2.17372e-07
-3.95058e-07
2.21481e-07
-4.30555e-07
2.24045e-07
-4.66099e-07
2.25085e-07
-5.01473e-07
2.24631e-07
-5.36463e-07
2.2272e-07
-5.7086e-07
2.19399e-07
-6.04464e-07
2.14717e-07
-6.37081e-07
2.0873e-07
-6.68527e-07
2.01498e-07
-6.98624e-07
1.93085e-07
-7.27208e-07
1.83556e-07
-7.54122e-07
1.72981e-07
-7.7922e-07
1.61432e-07
-8.02367e-07
1.4898e-07
-8.23439e-07
1.35703e-07
-8.42324e-07
1.21676e-07
-8.58921e-07
1.06979e-07
-8.73142e-07
9.16904e-08
-8.84911e-07
7.58924e-08
-8.94163e-07
5.96676e-08
-9.00848e-07
4.31001e-08
-9.04926e-07
2.62753e-08
-9.06374e-07
9.27988e-09
-9.05178e-07
-7.79819e-09
-9.01339e-07
-2.48699e-08
-8.94873e-07
-4.1845e-08
-8.85808e-07
-5.86325e-08
-8.74186e-07
-7.51404e-08
-8.60063e-07
-9.12763e-08
-8.43508e-07
-1.06947e-07
-8.24606e-07
-1.2206e-07
-8.03453e-07
-1.36522e-07
-7.8016e-07
-1.50242e-07
-7.54852e-07
-1.63127e-07
-7.27666e-07
-1.75088e-07
-6.98752e-07
-1.86037e-07
-6.68273e-07
-1.95891e-07
-6.36405e-07
-2.04565e-07
-6.03332e-07
-2.11984e-07
-5.6925e-07
-2.18074e-07
-5.34367e-07
-2.22768e-07
-4.98896e-07
-2.26006e-07
-4.63058e-07
-2.27734e-07
-4.27082e-07
-2.27908e-07
-3.912e-07
-2.26495e-07
-3.55647e-07
-2.23472e-07
-3.20658e-07
-2.18828e-07
-2.86469e-07
-2.12569e-07
-2.53313e-07
-2.04716e-07
-2.21414e-07
-1.95308e-07
-1.90993e-07
-1.84406e-07
-1.62257e-07
-1.72095e-07
-1.35401e-07
-1.58485e-07
-1.10605e-07
-1.43718e-07
-8.80315e-08
-1.27973e-07
-6.78211e-08
-1.11464e-07
-5.00946e-08
-9.44537e-08
-3.49499e-08
-7.72556e-08
-2.24629e-08
-6.02411e-08
-1.26893e-08
-4.3848e-08
-5.66835e-09
-2.85855e-08
-1.42872e-09
-1.504e-08
-3.91818e-09
-1.75868e-09
6.28476e-09
-6.89002e-09
2.18163e-08
-1.52712e-08
3.94489e-08
-2.6787e-08
5.8474e-08
-4.13206e-08
7.83029e-08
-5.87469e-08
9.84248e-08
-7.89292e-08
1.18403e-07
-1.01717e-07
1.3787e-07
-1.26944e-07
1.56519e-07
-1.54431e-07
1.74099e-07
-1.83984e-07
1.90404e-07
-2.15398e-07
2.05274e-07
-2.48458e-07
2.18583e-07
-2.8294e-07
2.30237e-07
-3.18612e-07
2.4017e-07
-3.55242e-07
2.48339e-07
-3.92592e-07
2.54722e-07
-4.30425e-07
2.59313e-07
-4.68504e-07
2.62124e-07
-5.06596e-07
2.63177e-07
-5.44472e-07
2.62506e-07
-5.81906e-07
2.60155e-07
-6.18681e-07
2.56174e-07
-6.54586e-07
2.50622e-07
-6.89417e-07
2.43562e-07
-7.22982e-07
2.35063e-07
-7.55095e-07
2.25198e-07
-7.85582e-07
2.14043e-07
-8.14279e-07
2.01678e-07
-8.41032e-07
1.88185e-07
-8.65702e-07
1.7365e-07
-8.88156e-07
1.58158e-07
-9.08279e-07
1.41799e-07
-9.25964e-07
1.24664e-07
-9.41118e-07
1.06844e-07
-9.53661e-07
8.84355e-08
-9.63526e-07
6.95327e-08
-9.70659e-07
5.02333e-08
-9.7502e-07
3.06362e-08
-9.76582e-07
1.08417e-08
-9.75332e-07
-9.04834e-09
-9.71271e-07
-2.89309e-08
-9.64414e-07
-4.87018e-08
-9.54791e-07
-6.82555e-08
-9.42446e-07
-8.74858e-08
-9.27436e-07
-1.06286e-07
-9.09835e-07
-1.24548e-07
-8.89731e-07
-1.42165e-07
-8.67224e-07
-1.59029e-07
-8.4243e-07
-1.75035e-07
-8.1548e-07
-1.90076e-07
-7.86518e-07
-2.0405e-07
-7.55701e-07
-2.16855e-07
-7.232e-07
-2.28392e-07
-6.89197e-07
-2.38568e-07
-6.53887e-07
-2.47294e-07
-6.17476e-07
-2.54485e-07
-5.8018e-07
-2.60064e-07
-5.42225e-07
-2.63961e-07
-5.03842e-07
-2.66116e-07
-4.65272e-07
-2.66479e-07
-4.26758e-07
-2.65009e-07
-3.88549e-07
-2.61681e-07
-3.50893e-07
-2.56484e-07
-3.1404e-07
-2.49423e-07
-2.78234e-07
-2.40522e-07
-2.43718e-07
-2.29825e-07
-2.10724e-07
-2.174e-07
-1.79477e-07
-2.03341e-07
-1.5019e-07
-1.87772e-07
-1.23059e-07
-1.70849e-07
-9.82675e-08
-1.52764e-07
-7.59782e-08
-1.33753e-07
-5.63364e-08
-1.14096e-07
-3.94675e-08
-9.41245e-08
-2.54787e-08
-7.42299e-08
-1.4461e-08
-5.48658e-08
-6.49286e-09
-3.65536e-08
-1.64697e-09
-1.98859e-08
-5.56516e-09
-1.97562e-09
8.26038e-09
-7.71185e-09
2.75525e-08
-1.70398e-08
4.87768e-08
-2.98006e-08
7.12348e-08
-4.58364e-08
9.43387e-08
-6.49855e-08
1.17574e-07
-8.70778e-08
1.40496e-07
-1.11933e-07
1.62725e-07
-1.3936e-07
1.83946e-07
-1.69155e-07
2.03893e-07
-2.01104e-07
2.22353e-07
-2.34982e-07
2.39153e-07
-2.70558e-07
2.54159e-07
-3.07591e-07
2.6727e-07
-3.45837e-07
2.78416e-07
-3.85047e-07
2.8755e-07
-4.24974e-07
2.94648e-07
-4.65366e-07
2.99705e-07
-5.05976e-07
3.02735e-07
-5.4656e-07
3.03761e-07
-5.86878e-07
3.02824e-07
-6.26695e-07
2.99972e-07
-6.65784e-07
2.95263e-07
-7.03924e-07
2.88762e-07
-7.40904e-07
2.80542e-07
-7.76522e-07
2.70681e-07
-8.10585e-07
2.59261e-07
-8.42912e-07
2.4637e-07
-8.73332e-07
2.32098e-07
-9.01685e-07
2.16538e-07
-9.27824e-07
1.99789e-07
-9.51614e-07
1.81948e-07
-9.72932e-07
1.63117e-07
-9.91667e-07
1.43399e-07
-1.00772e-06
1.22901e-07
-1.02102e-06
1.0173e-07
-1.03148e-06
7.99941e-08
-1.03905e-06
5.78058e-08
-1.04369e-06
3.52775e-08
-1.04538e-06
1.25237e-08
-1.04408e-06
-1.03396e-08
-1.03982e-06
-3.31945e-08
-1.0326e-06
-5.59223e-08
-1.02245e-06
-7.84026e-08
-1.00942e-06
-1.00514e-07
-9.93575e-07
-1.22135e-07
-9.74979e-07
-1.43143e-07
-9.53729e-07
-1.63416e-07
-9.29928e-07
-1.8283e-07
-9.03697e-07
-2.01265e-07
-8.75172e-07
-2.18601e-07
-8.44502e-07
-2.3472e-07
-8.11851e-07
-2.49506e-07
-7.77395e-07
-2.62848e-07
-7.41326e-07
-2.74638e-07
-7.03846e-07
-2.84774e-07
-6.65171e-07
-2.93161e-07
-6.25524e-07
-2.9971e-07
-5.85142e-07
-3.04344e-07
-5.44268e-07
-3.06991e-07
-5.03152e-07
-3.07595e-07
-4.6205e-07
-3.0611e-07
-4.21223e-07
-3.02508e-07
-3.80932e-07
-2.96775e-07
-3.41439e-07
-2.88915e-07
-3.03006e-07
-2.78955e-07
-2.65887e-07
-2.66944e-07
-2.30332e-07
-2.52955e-07
-1.96583e-07
-2.37091e-07
-1.64869e-07
-2.19486e-07
-1.35408e-07
-2.0031e-07
-1.08403e-07
-1.79769e-07
-8.40408e-08
-1.58115e-07
-6.24921e-08
-1.35644e-07
-4.39106e-08
-1.12706e-07
-2.8435e-08
-8.97055e-08
-1.61907e-08
-6.71101e-08
-7.29391e-09
-4.54504e-08
-1.85753e-09
-2.53223e-08
-7.42269e-09
-2.185e-09
1.04454e-08
-8.50918e-09
3.38767e-08
-1.87622e-08
5.90298e-08
-3.27444e-08
8.5217e-08
-5.02596e-08
1.11854e-07
-7.11101e-08
1.38424e-07
-9.50931e-08
1.64479e-07
-1.21999e-07
1.89631e-07
-1.51608e-07
2.13556e-07
-1.83695e-07
2.3598e-07
-2.18022e-07
2.5668e-07
-2.54346e-07
2.75477e-07
-2.92417e-07
2.92229e-07
-3.31978e-07
3.06831e-07
-3.72769e-07
3.19208e-07
-4.1453e-07
3.29311e-07
-4.56998e-07
3.37115e-07
-4.99911e-07
3.42619e-07
-5.43011e-07
3.45834e-07
-5.86042e-07
3.46792e-07
-6.28754e-07
3.45536e-07
-6.70903e-07
3.42121e-07
-7.12252e-07
3.36612e-07
-7.52574e-07
3.29083e-07
-7.91648e-07
3.19616e-07
-8.29264e-07
3.08297e-07
-8.65224e-07
2.95221e-07
-8.99339e-07
2.80485e-07
-9.31432e-07
2.6419e-07
-9.61338e-07
2.46444e-07
-9.88903e-07
2.27355e-07
-1.01399e-06
2.07034e-07
-1.03647e-06
1.85595e-07
-1.05622e-06
1.63157e-07
-1.07316e-06
1.39837e-07
-1.08719e-06
1.15757e-07
-1.09823e-06
9.10402e-08
-1.10624e-06
6.58122e-08
-1.11116e-06
4.02001e-08
-1.11297e-06
1.4333e-08
-1.11165e-06
-1.16581e-08
-1.10721e-06
-3.76407e-08
-1.09965e-06
-6.34805e-08
-1.08901e-06
-8.90422e-08
-1.07534e-06
-1.14189e-07
-1.05869e-06
-1.38783e-07
-1.03914e-06
-1.62687e-07
-1.0168e-06
-1.85763e-07
-9.91755e-07
-2.07872e-07
-9.64144e-07
-2.28877e-07
-9.34101e-07
-2.48644e-07
-9.01781e-07
-2.67039e-07
-8.67355e-07
-2.83933e-07
-8.31004e-07
-2.99199e-07
-7.92926e-07
-3.12715e-07
-7.53332e-07
-3.24368e-07
-7.12444e-07
-3.34049e-07
-6.70497e-07
-3.41658e-07
-6.27734e-07
-3.47106e-07
-5.8441e-07
-3.50315e-07
-5.40785e-07
-3.51219e-07
-4.97127e-07
-3.49768e-07
-4.53709e-07
-3.45926e-07
-4.10806e-07
-3.39678e-07
-3.68692e-07
-3.31029e-07
-3.27644e-07
-3.20004e-07
-2.87932e-07
-3.06655e-07
-2.49823e-07
-2.91064e-07
-2.13576e-07
-2.73338e-07
-1.79439e-07
-2.53623e-07
-1.47651e-07
-2.32098e-07
-1.18437e-07
-2.08983e-07
-9.20088e-08
-1.84544e-07
-6.85625e-08
-1.59091e-07
-4.82811e-08
-1.32987e-07
-3.13343e-08
-1.06652e-07
-1.78812e-08
-8.05633e-08
-8.0735e-09
-5.52581e-08
-2.06123e-09
-3.13346e-08
-9.48392e-09
-2.38772e-09
1.28331e-08
-9.28434e-09
4.07734e-08
-2.04418e-08
7.01873e-08
-3.56228e-08
1.00398e-07
-5.45945e-08
1.30826e-07
-7.71246e-08
1.60954e-07
-1.02978e-07
1.90332e-07
-1.31916e-07
2.18568e-07
-1.63691e-07
2.45331e-07
-1.98053e-07
2.70342e-07
-2.34742e-07
2.9337e-07
-2.73495e-07
3.1423e-07
-3.14042e-07
3.32776e-07
-3.56111e-07
3.489e-07
-3.99426e-07
3.62523e-07
-4.43712e-07
3.73597e-07
-4.88693e-07
3.82097e-07
-5.34096e-07
3.88022e-07
-5.79651e-07
3.91389e-07
-6.25091e-07
3.92232e-07
-6.70158e-07
3.90602e-07
-7.14597e-07
3.8656e-07
-7.58164e-07
3.80179e-07
-8.00622e-07
3.71542e-07
-8.41745e-07
3.60738e-07
-8.81315e-07
3.47868e-07
-9.19128e-07
3.33033e-07
-9.54988e-07
3.16344e-07
-9.88713e-07
2.97915e-07
-1.02013e-06
2.77864e-07
-1.04909e-06
2.56312e-07
-1.07544e-06
2.33383e-07
-1.09905e-06
2.09207e-07
-1.11981e-06
1.83912e-07
-1.1376e-06
1.57633e-07
-1.15235e-06
1.30504e-07
-1.16397e-06
1.02663e-07
-1.17241e-06
7.42503e-08
-1.17762e-06