/*--------------------------------*- C++ -*----------------------------------*\
| =========                 |                                                 |
| \\      /  F ield         | OpenFOAM: The Open Source CFD Toolbox           |
|  \\    /   O peration     | Version:  2506                                  |
|   \\  /    A nd           | Website:  www.openfoam.com                      |
|    \\/     M anipulation  |                                                 |
\*---------------------------------------------------------------------------*/
FoamFile
{
    version     2.0;
    format      ascii;
    arch        "LSB;label=32;scalar=64";
    class       volVectorField;
    location    "0.575";
    object      U;
}
// * * * * * * * * * * * * * * * * * * * * * * * * * * * * * * * * * * * * * //

dimensions      [0 1 -1 0 0 0 0];

internalField   nonuniform List<vector> 
6400
(
(7.19812e-06 -7.29688e-06 0)
(2.97346e-05 -1.44733e-05 0)
(5.92882e-05 -1.41929e-05 0)
(8.0649e-05 -9.74961e-06 0)
(8.55401e-05 -3.44225e-06 0)
(7.07168e-05 3.52868e-06 0)
(3.50533e-05 1.05488e-05 0)
(-2.14215e-05 1.72997e-05 0)
(-9.79547e-05 2.3619e-05 0)
(-0.000193358 2.94248e-05 0)
(-0.000306188 3.46787e-05 0)
(-0.000434848 3.93657e-05 0)
(-0.000577659 4.34846e-05 0)
(-0.000732901 4.70419e-05 0)
(-0.000898845 5.00496e-05 0)
(-0.00107377 5.25224e-05 0)
(-0.001256 5.44778e-05 0)
(-0.00144387 5.59341e-05 0)
(-0.00163578 5.69109e-05 0)
(-0.00183018 5.74282e-05 0)
(-0.00202557 5.75064e-05 0)
(-0.00222052 5.71662e-05 0)
(-0.00241364 5.6428e-05 0)
(-0.00260364 5.53126e-05 0)
(-0.00278925 5.38403e-05 0)
(-0.00296931 5.20316e-05 0)
(-0.00314269 4.99066e-05 0)
(-0.00330836 4.74854e-05 0)
(-0.00346533 4.47882e-05 0)
(-0.00361269 4.18348e-05 0)
(-0.00374959 3.86451e-05 0)
(-0.00387525 3.52392e-05 0)
(-0.00398898 3.16368e-05 0)
(-0.00409013 2.78581e-05 0)
(-0.00417813 2.39235e-05 0)
(-0.00425248 1.98533e-05 0)
(-0.00431275 1.56683e-05 0)
(-0.0043586 1.13895e-05 0)
(-0.00438974 7.03843e-06 0)
(-0.00440597 2.63686e-06 0)
(-0.00440715 -1.79288e-06 0)
(-0.00439324 -6.22803e-06 0)
(-0.00436427 -1.06453e-05 0)
(-0.00432035 -1.5021e-05 0)
(-0.00426166 -1.9331e-05 0)
(-0.00418848 -2.35505e-05 0)
(-0.00410118 -2.76544e-05 0)
(-0.0040002 -3.16174e-05 0)
(-0.00388607 -3.54136e-05 0)
(-0.00375941 -3.9017e-05 0)
(-0.00362093 -4.24016e-05 0)
(-0.00347142 -4.5541e-05 0)
(-0.00331178 -4.84093e-05 0)
(-0.00314296 -5.09803e-05 0)
(-0.00296603 -5.32286e-05 0)
(-0.00278211 -5.5129e-05 0)
(-0.00259242 -5.66569e-05 0)
(-0.00239827 -5.77886e-05 0)
(-0.00220102 -5.85014e-05 0)
(-0.00200211 -5.87733e-05 0)
(-0.00180304 -5.8584e-05 0)
(-0.00160538 -5.79145e-05 0)
(-0.00141074 -5.67474e-05 0)
(-0.00122078 -5.50672e-05 0)
(-0.00103719 -5.28602e-05 0)
(-0.000861699 -5.01155e-05 0)
(-0.000696037 -4.68248e-05 0)
(-0.000541934 -4.29835e-05 0)
(-0.0004011 -3.85913e-05 0)
(-0.000275199 -3.36542e-05 0)
(-0.000165818 -2.81873e-05 0)
(-7.44173e-05 -2.22201e-05 0)
(-2.26583e-06 -1.58068e-05 0)
(4.96677e-05 -9.04503e-06 0)
(8.08902e-05 -2.11457e-06 0)
(9.16678e-05 4.65004e-06 0)
(8.34481e-05 1.06238e-05 0)
(5.97994e-05 1.46108e-05 0)
(2.92409e-05 1.43644e-05 0)
(6.87142e-06 6.87381e-06 0)
(1.44299e-05 -2.98805e-05 0)
(5.15268e-05 -5.15612e-05 0)
(8.98623e-05 -4.41395e-05 0)
(0.00010368 -1.91708e-05 0)
(7.72569e-05 1.52338e-05 0)
(2.73234e-06 5.40453e-05 0)
(-0.000123601 9.4184e-05 0)
(-0.000302665 0.00013376 0)
(-0.000533422 0.000171613 0)
(-0.00081351 0.000207026 0)
(-0.00113969 0.00023956 0)
(-0.00150816 0.000268954 0)
(-0.00191473 0.000295061 0)
(-0.002355 0.000317815 0)
(-0.00282445 0.000337206 0)
(-0.00331852 0.000353261 0)
(-0.00383268 0.000366036 0)
(-0.00436243 0.000375608 0)
(-0.00490337 0.000382069 0)
(-0.00545122 0.000385522 0)
(-0.00600184 0.000386079 0)
(-0.00655122 0.000383857 0)
(-0.0070955 0.00037898 0)
(-0.00763102 0.000371572 0)
(-0.00815425 0.000361761 0)
(-0.00866188 0.000349678 0)
(-0.00915074 0.000335454 0)
(-0.00961787 0.00031922 0)
(-0.0100605 0.00030111 0)
(-0.010476 0.000281258 0)
(-0.0108621 0.000259798 0)
(-0.0112164 0.000236866 0)
(-0.011537 0.000212599 0)
(-0.0118221 0.000187135 0)
(-0.0120701 0.000160613 0)
(-0.0122795 0.000133175 0)
(-0.0124491 0.000104964 0)
(-0.012578 7.61247e-05 0)
(-0.0126654 4.68064e-05 0)
(-0.0127106 1.71592e-05 0)
(-0.0127134 -1.26636e-05 0)
(-0.0126736 -4.25059e-05 0)
(-0.0125913 -7.22086e-05 0)
(-0.0124669 -0.00010161 0)
(-0.0123009 -0.000130546 0)
(-0.012094 -0.000158849 0)
(-0.0118474 -0.00018635 0)
(-0.0115623 -0.000212879 0)
(-0.0112403 -0.000238264 0)
(-0.0108831 -0.000262331 0)
(-0.0104926 -0.000284907 0)
(-0.0100713 -0.00030582 0)
(-0.00962158 -0.000324899 0)
(-0.00914616 -0.000341974 0)
(-0.00864802 -0.000356882 0)
(-0.00813038 -0.00036946 0)
(-0.00759664 -0.000379553 0)
(-0.00705043 -0.000387012 0)
(-0.00649558 -0.000391698 0)
(-0.00593608 -0.000393478 0)
(-0.00537613 -0.000392233 0)
(-0.00482003 -0.000387855 0)
(-0.00427223 -0.000380252 0)
(-0.00373729 -0.000369349 0)
(-0.00321982 -0.000355091 0)
(-0.00272447 -0.000337446 0)
(-0.00225589 -0.000316411 0)
(-0.00181865 -0.000292019 0)
(-0.00141723 -0.000264349 0)
(-0.00105587 -0.000233538 0)
(-0.000738502 -0.000199809 0)
(-0.000468598 -0.000163502 0)
(-0.000248952 -0.000125136 0)
(-8.13902e-05 -8.55023e-05 0)
(3.36617e-05 -4.58312e-05 0)
(9.77978e-05 -8.06182e-06 0)
(0.000115407 2.4718e-05 0)
(9.49647e-05 4.75568e-05 0)
(5.26554e-05 5.26123e-05 0)
(1.43556e-05 2.92239e-05 0)
(1.42882e-05 -5.9468e-05 0)
(4.45953e-05 -9.00015e-05 0)
(6.1385e-05 -6.06095e-05 0)
(3.58338e-05 6.55074e-06 0)
(-5.04404e-05 9.60632e-05 0)
(-0.000207666 0.000197271 0)
(-0.000441187 0.00030294 0)
(-0.000752718 0.000408231 0)
(-0.00114123 0.000509918 0)
(-0.00160373 0.000605855 0)
(-0.0021358 0.000694625 0)
(-0.00273205 0.00077531 0)
(-0.00338642 0.00084734 0)
(-0.00409242 0.000910391 0)
(-0.00484327 0.000964317 0)
(-0.00563208 0.0010091 0)
(-0.00645189 0.00104483 0)
(-0.00729579 0.00107164 0)
(-0.00815699 0.00108976 0)
(-0.00902881 0.00109943 0)
(-0.00990475 0.00110094 0)
(-0.0107785 0.00109458 0)
(-0.0116441 0.00108069 0)
(-0.0124957 0.00105961 0)
(-0.0133277 0.00103168 0)
(-0.0141348 0.000997267 0)
(-0.0149121 0.000956735 0)
(-0.0156548 0.000910457 0)
(-0.0163585 0.000858808 0)
(-0.0170191 0.00080217 0)
(-0.0176327 0.000740927 0)
(-0.018196 0.000675467 0)
(-0.0187055 0.000606184 0)
(-0.0191585 0.000533473 0)
(-0.0195524 0.000457737 0)
(-0.019885 0.000379384 0)
(-0.0201543 0.000298828 0)
(-0.0203587 0.000216487 0)
(-0.020497 0.000132789 0)
(-0.0205684 4.81684e-05 0)
(-0.0205723 -3.69344e-05 0)
(-0.0205084 -0.00012207 0)
(-0.020377 -0.000206782 0)
(-0.0201786 -0.000290606 0)
(-0.0199141 -0.000373073 0)
(-0.0195848 -0.000453705 0)
(-0.0191924 -0.00053202 0)
(-0.0187389 -0.000607531 0)
(-0.0182267 -0.000679751 0)
(-0.0176588 -0.000748189 0)
(-0.0170383 -0.000812355 0)
(-0.0163688 -0.000871764 0)
(-0.0156542 -0.000925934 0)
(-0.014899 -0.000974392 0)
(-0.0141078 -0.00101668 0)
(-0.0132857 -0.00105234 0)
(-0.012438 -0.00108096 0)
(-0.0115706 -0.00110212 0)
(-0.0106893 -0.00111543 0)
(-0.00980059 -0.00112056 0)
(-0.00891088 -0.00111717 0)
(-0.00802696 -0.001105 0)
(-0.00715575 -0.00108381 0)
(-0.00630429 -0.00105343 0)
(-0.00547972 -0.00101375 0)
(-0.00468919 -0.000964746 0)
(-0.00393976 -0.00090647 0)
(-0.00323839 -0.000839101 0)
(-0.00259174 -0.000762961 0)
(-0.00200608 -0.000678564 0)
(-0.00148713 -0.000586675 0)
(-0.00103975 -0.00048841 0)
(-0.00066774 -0.000385379 0)
(-0.000373336 -0.000279903 0)
(-0.000156713 -0.000175351 0)
(-1.52385e-05 -7.66463e-05 0)
(5.73427e-05 9.00628e-06 0)
(7.20664e-05 7.1173e-05 0)
(4.80345e-05 9.50227e-05 0)
(1.46902e-05 5.98388e-05 0)
(1.00641e-05 -8.1257e-05 0)
(2.04656e-05 -0.00010456 0)
(-4.12268e-06 -3.54119e-05 0)
(-9.04974e-05 9.33667e-05 0)
(-0.000256821 0.000259011 0)
(-0.000514053 0.000444971 0)
(-0.000868113 0.00063938 0)
(-0.00132097 0.000833875 0)
(-0.00187147 0.0010226 0)
(-0.00251609 0.00120147 0)
(-0.00324956 0.00136767 0)
(-0.00406527 0.00151929 0)
(-0.00495569 0.00165507 0)
(-0.00591266 0.00177423 0)
(-0.00692757 0.00187637 0)
(-0.00799157 0.00196134 0)
(-0.0090957 0.00202918 0)
(-0.010231 0.00208011 0)
(-0.0113885 0.00211445 0)
(-0.0125596 0.00213264 0)
(-0.0137357 0.00213516 0)
(-0.0149084 0.00212257 0)
(-0.0160698 0.00209547 0)
(-0.0172121 0.00205447 0)
(-0.0183279 0.00200025 0)
(-0.0194103 0.00193348 0)
(-0.0204525 0.00185485 0)
(-0.0214483 0.00176508 0)
(-0.0223917 0.00166489 0)
(-0.0232772 0.00155502 0)
(-0.0240997 0.00143621 0)
(-0.0248545 0.00130921 0)
(-0.0255373 0.00117479 0)
(-0.0261442 0.00103372 0)
(-0.0266718 0.000886786 0)
(-0.0271171 0.000734777 0)
(-0.0274775 0.000578503 0)
(-0.027751 0.000418782 0)
(-0.0279358 0.000256448 0)
(-0.0280308 9.23456e-05 0)
(-0.0280353 -7.26646e-05 0)
(-0.0279491 -0.000237709 0)
(-0.0277723 -0.000401899 0)
(-0.0275058 -0.000564334 0)
(-0.0271508 -0.000724101 0)
(-0.026709 -0.000880276 0)
(-0.0261827 -0.00103193 0)
(-0.0255746 -0.00117811 0)
(-0.0248881 -0.00131789 0)
(-0.0241269 -0.00145031 0)
(-0.0232954 -0.00157444 0)
(-0.0223982 -0.00168935 0)
(-0.0214409 -0.0017941 0)
(-0.020429 -0.00188781 0)
(-0.019369 -0.00196958 0)
(-0.0182676 -0.00203858 0)
(-0.0171319 -0.00209399 0)
(-0.0159695 -0.00213503 0)
(-0.0147883 -0.00216101 0)
(-0.0135968 -0.00217125 0)
(-0.0124034 -0.0021652 0)
(-0.0112172 -0.00214235 0)
(-0.0100471 -0.00210231 0)
(-0.0089024 -0.00204479 0)
(-0.00779238 -0.00196966 0)
(-0.00672631 -0.00187692 0)
(-0.00571331 -0.00176678 0)
(-0.00476227 -0.00163968 0)
(-0.00388168 -0.00149636 0)
(-0.00307942 -0.00133794 0)
(-0.00236259 -0.00116602 0)
(-0.00173716 -0.000982865 0)
(-0.00120765 -0.000791621 0)
(-0.00077668 -0.00059667 0)
(-0.00044436 -0.000404095 0)
(-0.000207633 -0.000222376 0)
(-5.9486e-05 -6.33109e-05 0)
(1.20427e-05 5.6906e-05 0)
(2.61652e-05 0.000116338 0)
(1.09181e-05 8.39155e-05 0)
(4.03335e-06 -8.71398e-05 0)
(-1.29334e-05 -7.97823e-05 0)
(-9.17854e-05 4.95966e-05 0)
(-0.000253634 0.000259251 0)
(-0.000514342 0.000519783 0)
(-0.000884371 0.000809132 0)
(-0.00136931 0.00111089 0)
(-0.00197078 0.00141307 0)
(-0.00268722 0.00170695 0)
(-0.00351452 0.00198623 0)
(-0.0044466 0.00224643 0)
(-0.00547583 0.00248439 0)
(-0.00659348 0.00269795 0)
(-0.00778998 0.00288572 0)
(-0.00905522 0.00304688 0)
(-0.0103787 0.00318104 0)
(-0.0117497 0.00328818 0)
(-0.0131576 0.00336851 0)
(-0.0145916 0.00342248 0)
(-0.0160412 0.00345068 0)
(-0.017496 0.00345383 0)
(-0.018946 0.00343278 0)
(-0.0203814 0.00338843 0)
(-0.0217928 0.00332175 0)
(-0.0231711 0.00323379 0)
(-0.0245078 0.0031256 0)
(-0.0257946 0.0029983 0)
(-0.0270239 0.00285302 0)
(-0.0281883 0.00269091 0)
(-0.0292812 0.00251316 0)
(-0.0302961 0.00232097 0)
(-0.0312273 0.00211555 0)
(-0.0320696 0.00189813 0)
(-0.0328181 0.00166997 0)
(-0.0334687 0.00143234 0)
(-0.0340177 0.00118652 0)
(-0.0344619 0.000933831 0)
(-0.0347987 0.00067559 0)
(-0.0350261 0.000413153 0)
(-0.0351427 0.00014789 0)
(-0.0351477 -0.000118804 0)
(-0.0350406 -0.000385514 0)
(-0.034822 -0.000650803 0)
(-0.0344927 -0.000913215 0)
(-0.0340542 -0.00117127 0)
(-0.0335087 -0.00142349 0)
(-0.0328591 -0.00166835 0)
(-0.0321087 -0.00190436 0)
(-0.0312616 -0.00212999 0)
(-0.0303224 -0.00234373 0)
(-0.0292965 -0.00254406 0)
(-0.0281898 -0.00272951 0)
(-0.0270087 -0.00289858 0)
(-0.0257604 -0.00304985 0)
(-0.0244526 -0.00318193 0)
(-0.0230935 -0.00329345 0)
(-0.0216919 -0.00338314 0)
(-0.0202569 -0.0034498 0)
(-0.0187984 -0.00349231 0)
(-0.0173263 -0.00350966 0)
(-0.0158513 -0.00350097 0)
(-0.0143839 -0.0034655 0)
(-0.0129353 -0.00340267 0)
(-0.0115164 -0.00331212 0)
(-0.0101385 -0.00319367 0)
(-0.00881265 -0.00304747 0)
(-0.00754967 -0.00287394 0)
(-0.00636012 -0.00267391 0)
(-0.005254 -0.00244869 0)
(-0.00424057 -0.00220021 0)
(-0.00332805 -0.00193113 0)
(-0.00252337 -0.00164515 0)
(-0.00183176 -0.00134724 0)
(-0.0012563 -0.00104413 0)
(-0.000797395 -0.00074486 0)
(-0.000452174 -0.000461598 0)
(-0.000213783 -0.000210661 0)
(-7.05511e-05 -1.36733e-05 0)
(-5.19638e-06 0.000100921 0)
(5.272e-06 9.32331e-05 0)
(-2.65103e-06 -7.38991e-05 0)
(-5.08506e-05 -7.71674e-06 0)
(-0.000191693 0.000204967 0)
(-0.000438441 0.000515769 0)
(-0.000803229 0.000889745 0)
(-0.00129507 0.00129997 0)
(-0.00191848 0.00172585 0)
(-0.00267417 0.00215188 0)
(-0.00355983 0.00256646 0)
(-0.00457057 0.00296098 0)
(-0.00569946 0.00332911 0)
(-0.00693792 0.00366631 0)
(-0.00827612 0.00396936 0)
(-0.00970329 0.00423612 0)
(-0.011208 0.00446523 0)
(-0.0127783 0.004656 0)
(-0.0144022 0.00480823 0)
(-0.0160672 0.00492212 0)
(-0.0177612 0.00499818 0)
(-0.019472 0.00503718 0)
(-0.0211877 0.0050401 0)
(-0.0228967 0.00500806 0)
(-0.0245876 0.00494233 0)
(-0.0262495 0.00484427 0)
(-0.0278719 0.00471535 0)
(-0.0294449 0.00455707 0)
(-0.0309588 0.00437104 0)
(-0.0324047 0.00415887 0)
(-0.0337741 0.00392224 0)
(-0.035059 0.00366285 0)
(-0.0362521 0.00338244 0)
(-0.0373466 0.00308277 0)
(-0.0383365 0.00276565 0)
(-0.039216 0.0024329 0)
(-0.0399803 0.00208637 0)
(-0.040625 0.00172795 0)
(-0.0411466 0.00135953 0)
(-0.0415419 0.000983065 0)
(-0.0418087 0.000600525 0)
(-0.0419452 0.000213911 0)
(-0.0419505 -0.000174744 0)
(-0.0418242 -0.000563375 0)
(-0.0415668 -0.000949888 0)
(-0.0411794 -0.00133216 0)
(-0.0406637 -0.00170805 0)
(-0.0400225 -0.00207539 0)
(-0.0392588 -0.00243199 0)
(-0.0383768 -0.00277567 0)
(-0.0373812 -0.00310421 0)
(-0.0362775 -0.00341544 0)
(-0.0350718 -0.00370716 0)
(-0.033771 -0.00397724 0)
(-0.0323828 -0.00422354 0)
(-0.0309154 -0.00444399 0)
(-0.0293778 -0.00463661 0)
(-0.0277796 -0.00479945 0)
(-0.0261308 -0.00493069 0)
(-0.0244424 -0.00502863 0)
(-0.0227254 -0.00509169 0)
(-0.0209916 -0.00511846 0)
(-0.0192531 -0.00510772 0)
(-0.0175223 -0.00505846 0)
(-0.0158118 -0.00496994 0)
(-0.0141343 -0.00484169 0)
(-0.0125026 -0.00467359 0)
(-0.0109294 -0.00446592 0)
(-0.00942709 -0.00421945 0)
(-0.00800759 -0.00393548 0)
(-0.00668222 -0.00361606 0)
(-0.00546144 -0.00326403 0)
(-0.00435452 -0.00288333 0)
(-0.00336932 -0.00247925 0)
(-0.00251181 -0.00205876 0)
(-0.00178578 -0.00163108 0)
(-0.00119226 -0.00120823 0)
(-0.000729155 -0.000805982 0)
(-0.000390504 -0.000444861 0)
(-0.000165865 -0.000151344 0)
(-4.13105e-05 4.06059e-05 0)
(-1.08896e-06 8.44311e-05 0)
(-9.43037e-06 -4.0285e-05 0)
(-9.05236e-05 0.000115832 0)
(-0.000297451 0.00043697 0)
(-0.000634619 0.000870248 0)
(-0.00110956 0.00137638 0)
(-0.00172915 0.00192438 0)
(-0.00249622 0.00248996 0)
(-0.00341013 0.00305438 0)
(-0.00446742 0.0036033 0)
(-0.00566223 0.00412579 0)
(-0.00698665 0.00461369 0)
(-0.00843112 0.00506093 0)
(-0.00998477 0.00546319 0)
(-0.0116357 0.00581745 0)
(-0.0133713 0.00612176 0)
(-0.0151784 0.00637503 0)
(-0.0170436 0.00657684 0)
(-0.0189532 0.00672733 0)
(-0.0208936 0.00682707 0)
(-0.0228513 0.00687698 0)
(-0.0248129 0.00687827 0)
(-0.0267655 0.0068324 0)
(-0.0286963 0.00674101 0)
(-0.0305931 0.00660589 0)
(-0.032444 0.00642896 0)
(-0.0342379 0.00621226 0)
(-0.0359639 0.00595789 0)
(-0.0376119 0.00566805 0)
(-0.0391723 0.00534499 0)
(-0.0406362 0.00499101 0)
(-0.0419952 0.00460847 0)
(-0.0432418 0.00419977 0)
(-0.0443688 0.00376734 0)
(-0.0453702 0.00331367 0)
(-0.0462402 0.00284128 0)
(-0.046974 0.00235274 0)
(-0.0475674 0.00185064 0)
(-0.0480171 0.00133763 0)
(-0.0483205 0.000816401 0)
(-0.0484755 0.000289676 0)
(-0.0484812 -0.000239776 0)
(-0.0483371 -0.000769142 0)
(-0.0480438 -0.00129558 0)
(-0.0476026 -0.00181619 0)
(-0.0470154 -0.00232807 0)
(-0.0462853 -0.00282828 0)
(-0.0454158 -0.00331385 0)
(-0.0444117 -0.00378182 0)
(-0.0432781 -0.00422919 0)
(-0.0420214 -0.00465302 0)
(-0.0406485 -0.00505035 0)
(-0.0391672 -0.00541829 0)
(-0.0375861 -0.00575397 0)
(-0.0359145 -0.00605463 0)
(-0.0341625 -0.00631756 0)
(-0.0323409 -0.00654019 0)
(-0.0304611 -0.0067201 0)
(-0.0285351 -0.00685499 0)
(-0.0265756 -0.00694281 0)
(-0.0245957 -0.0069817 0)
(-0.0226088 -0.00697007 0)
(-0.020629 -0.00690664 0)
(-0.0186701 -0.00679049 0)
(-0.0167465 -0.00662107 0)
(-0.0148724 -0.00639835 0)
(-0.0130618 -0.00612282 0)
(-0.0113284 -0.00579561 0)
(-0.00968549 -0.00541864 0)
(-0.00814557 -0.00499473 0)
(-0.0067202 -0.00452781 0)
(-0.00541971 -0.00402318 0)
(-0.00425287 -0.0034878 0)
(-0.0032266 -0.00293073 0)
(-0.00234558 -0.00236363 0)
(-0.00161188 -0.00180147 0)
(-0.00102461 -0.00126333 0)
(-0.000579315 -0.000773518 0)
(-0.000267471 -0.000362635 0)
(-7.93781e-05 -6.903e-05 0)
(-7.58951e-06 5.61329e-05 0)
(-1.60427e-05 1.39666e-05 0)
(-0.000130389 0.000292701 0)
(-0.000405084 0.000748887 0)
(-0.000835409 0.00132688 0)
(-0.00142385 0.00198423 0)
(-0.0021747 0.00268668 0)
(-0.00308865 0.00340684 0)
(-0.00416329 0.00412311 0)
(-0.00539376 0.00481861 0)
(-0.00677295 0.00548027 0)
(-0.00829183 0.00609807 0)
(-0.00993979 0.00666449 0)
(-0.0117049 0.00717401 0)
(-0.0135741 0.00762271 0)
(-0.0155338 0.008008 0)
(-0.0175695 0.00832834 0)
(-0.0196668 0.00858306 0)
(-0.0218107 0.00877219 0)
(-0.0239864 0.00889634 0)
(-0.0261791 0.00895657 0)
(-0.0283743 0.00895436 0)
(-0.0305576 0.00889147 0)
(-0.0327152 0.00876996 0)
(-0.0348337 0.00859206 0)
(-0.0368999 0.00836021 0)
(-0.0389017 0.00807699 0)
(-0.040827 0.00774509 0)
(-0.0426648 0.00736731 0)
(-0.0444044 0.00694656 0)
(-0.046036 0.00648579 0)
(-0.0475504 0.00598804 0)
(-0.0489393 0.00545642 0)
(-0.0501948 0.00489409 0)
(-0.0513101 0.00430425 0)
(-0.0522789 0.00369018 0)
(-0.053096 0.00305521 0)
(-0.0537568 0.00240271 0)
(-0.0542574 0.00173612 0)
(-0.054595 0.00105891 0)
(-0.0547676 0.000374632 0)
(-0.0547738 -0.000313124 0)
(-0.0546134 -0.00100072 0)
(-0.0542868 -0.00168445 0)
(-0.0537955 -0.0023606 0)
(-0.0531418 -0.00302537 0)
(-0.0523289 -0.00367498 0)
(-0.0513609 -0.0043056 0)
(-0.0502428 -0.00491337 0)
(-0.0489805 -0.00549447 0)
(-0.047581 -0.00604507 0)
(-0.0460518 -0.00656139 0)
(-0.0444016 -0.00703968 0)
(-0.0426398 -0.00747628 0)
(-0.0407767 -0.00786763 0)
(-0.0388234 -0.00821028 0)
(-0.0367917 -0.00850095 0)
(-0.0346942 -0.00873653 0)
(-0.0325442 -0.00891414 0)
(-0.0303554 -0.00903116 0)
(-0.0281422 -0.00908527 0)
(-0.0259195 -0.00907449 0)
(-0.0237023 -0.00899724 0)
(-0.0215062 -0.00885243 0)
(-0.0193465 -0.00863948 0)
(-0.0172389 -0.00835842 0)
(-0.0151986 -0.00801 0)
(-0.0132406 -0.00759581 0)
(-0.0113793 -0.00711837 0)
(-0.00962832 -0.0065814 0)
(-0.00800042 -0.00598995 0)
(-0.00650692 -0.00535072 0)
(-0.00515767 -0.0046724 0)
(-0.00396066 -0.00396607 0)
(-0.00292172 -0.0032458 0)
(-0.00204424 -0.00252924 0)
(-0.00132896 -0.00183849 0)
(-0.00077338 -0.00120112 0)
(-0.000371324 -0.000651083 0)
(-0.000117791 -0.000230024 0)
(-1.3953e-05 7.97902e-06 0)
(-2.23786e-05 8.85623e-05 0)
(-0.000169597 0.000523194 0)
(-0.000512204 0.0011419 0)
(-0.00103651 0.00188759 0)
(-0.00173984 0.00271561 0)
(-0.00262359 0.00358924 0)
(-0.00368604 0.00447855 0)
(-0.00492273 0.00535951 0)
(-0.00632708 0.00621299 0)
(-0.00789056 0.00702393 0)
(-0.00960287 0.0077806 0)
(-0.0114522 0.00847404 0)
(-0.0134255 0.00909759 0)
(-0.0155087 0.00964642 0)
(-0.017687 0.0101173 0)
(-0.0199449 0.0105081 0)
(-0.0222668 0.0108181 0)
(-0.0246367 0.011047 0)
(-0.0270385 0.0111956 0)
(-0.0294565 0.0112649 0)
(-0.0318749 0.0112568 0)
(-0.0342784 0.0111734 0)
(-0.0366519 0.0110171 0)
(-0.0389808 0.0107907 0)
(-0.0412513 0.010497 0)
(-0.0434499 0.0101394 0)
(-0.0455638 0.00972104 0)
(-0.0475808 0.00924547 0)
(-0.0494896 0.00871627 0)
(-0.0512794 0.00813711 0)
(-0.0529403 0.00751179 0)
(-0.0544631 0.00684416 0)
(-0.0558396 0.00613818 0)
(-0.0570622 0.00539785 0)
(-0.0581241 0.00462727 0)
(-0.0590197 0.00383059 0)
(-0.0597438 0.00301204 0)
(-0.0602925 0.00217592 0)
(-0.0606626 0.00132657 0)
(-0.0608519 0.000468445 0)
(-0.060859 -0.000393981 0)
(-0.0606835 -0.00125615 0)
(-0.0603261 -0.00211344 0)
(-0.0597882 -0.0029612 0)
(-0.0590724 -0.00379471 0)
(-0.0581821 -0.00460922 0)
(-0.0571219 -0.00539997 0)
(-0.0558971 -0.00616216 0)
(-0.0545142 -0.00689103 0)
(-0.0529805 -0.00758181 0)
(-0.0513044 -0.00822979 0)
(-0.0494953 -0.00883034 0)
(-0.0475632 -0.00937891 0)
(-0.0455195 -0.00987108 0)
(-0.0433759 -0.0103026 0)
(-0.0411454 -0.0106694 0)
(-0.0388415 -0.0109677 0)
(-0.0364785 -0.0111939 0)
(-0.0340714 -0.0113449 0)
(-0.0316356 -0.0114177 0)
(-0.0291871 -0.01141 0)
(-0.0267422 -0.01132 0)
(-0.0243175 -0.0111464 0)
(-0.0219298 -0.0108884 0)
(-0.0195957 -0.0105464 0)
(-0.0173318 -0.0101212 0)
(-0.0151541 -0.00961501 0)
(-0.0130782 -0.00903095 0)
(-0.0111189 -0.00837363 0)
(-0.00929006 -0.00764927 0)
(-0.00760408 -0.00686597 0)
(-0.00607199 -0.0060341 0)
(-0.00470304 -0.0051667 0)
(-0.00350444 -0.00428005 0)
(-0.00248116 -0.00339427 0)
(-0.00163588 -0.00253412 0)
(-0.000968327 -0.00172986 0)
(-0.000474978 -0.0010181 0)
(-0.000155666 -0.000442846 0)
(-2.00591e-05 -5.98065e-05 0)
(-2.84041e-05 0.00018293 0)
(-0.000207722 0.000806696 0)
(-0.000617446 0.00161581 0)
(-0.0012353 0.00255266 0)
(-0.0020535 0.00357123 0)
(-0.00307046 0.00463297 0)
(-0.00428184 0.00570596 0)
(-0.00568088 0.00676414 0)
(-0.00725914 0.00778647 0)
(-0.00900644 0.00875609 0)
(-0.0109111 0.00965976 0)
(-0.0129599 0.0104872 0)
(-0.0151388 0.0112305 0)
(-0.0174324 0.0118842 0)
(-0.0198249 0.0124443 0)
(-0.0222997 0.0129082 0)
(-0.0248402 0.0132749 0)
(-0.0274293 0.013544 0)
(-0.0300499 0.0137162 0)
(-0.0326852 0.013793 0)
(-0.0353184 0.0137763 0)
(-0.0379331 0.0136684 0)
(-0.0405134 0.0134725 0)
(-0.0430437 0.0131916 0)
(-0.0455091 0.0128293 0)
(-0.0478953 0.0123895 0)
(-0.0501886 0.011876 0)
(-0.0523761 0.0112931 0)
(-0.0544455 0.0106451 0)
(-0.0563854 0.00993652 0)
(-0.0581852 0.00917183 0)
(-0.0598351 0.00835577 0)
(-0.0613262 0.00749313 0)
(-0.0626504 0.00658878 0)
(-0.0638006 0.00564769 0)
(-0.0647705 0.00467491 0)
(-0.0655549 0.00367559 0)
(-0.0661494 0.00265494 0)
(-0.0665505 0.00161828 0)
(-0.066756 0.000570977 0)
(-0.0667644 -0.000481498 0)
(-0.0665752 -0.00153361 0)
(-0.0661891 -0.00257976 0)
(-0.0656078 -0.00361428 0)
(-0.0648339 -0.00463144 0)
(-0.0638711 -0.0056255 0)
(-0.0627242 -0.00659065 0)
(-0.061399 -0.00752111 0)
(-0.0599023 -0.00841109 0)
(-0.0582421 -0.00925483 0)
(-0.0564273 -0.0100466 0)
(-0.0544677 -0.0107809 0)
(-0.0523744 -0.0114521 0)
(-0.0501591 -0.012055 0)
(-0.0478346 -0.0125844 0)
(-0.0454147 -0.0130354 0)
(-0.0429138 -0.0134035 0)
(-0.0403471 -0.0136843 0)
(-0.0377306 -0.0138742 0)
(-0.0350808 -0.0139697 0)
(-0.0324147 -0.0139679 0)
(-0.0297497 -0.0138668 0)
(-0.0271035 -0.0136649 0)
(-0.0244941 -0.0133613 0)
(-0.021939 -0.0129565 0)
(-0.0194561 -0.0124517 0)
(-0.0170625 -0.0118494 0)
(-0.0147749 -0.0111536 0)
(-0.0126094 -0.0103696 0)
(-0.0105807 -0.00950486 0)
(-0.00870276 -0.00856882 0)
(-0.00698773 -0.00757344 0)
(-0.00544629 -0.00653362 0)
(-0.00408721 -0.00546766 0)
(-0.0029173 -0.00439786 0)
(-0.00194133 -0.00335125 0)
(-0.00116149 -0.00236032 0)
(-0.000577028 -0.00146371 0)
(-0.000192551 -0.000707027 0)
(-2.58675e-05 -0.000146704 0)
(-3.41226e-05 0.000296383 0)
(-0.000244584 0.00114209 0)
(-0.000720102 0.00216959 0)
(-0.0014303 0.00332139 0)
(-0.00236245 0.00455069 0)
(-0.00351197 0.00581769 0)
(-0.00487179 0.00708895 0)
(-0.00643277 0.0083368 0)
(-0.00818439 0.00953856 0)
(-0.0101147 0.0106759 0)
(-0.0122105 0.0117341 0)
(-0.0144572 0.0127018 0)
(-0.0168393 0.0135701 0)
(-0.0193404 0.0143326 0)
(-0.0219435 0.0149847 0)
(-0.0246311 0.0155235 0)
(-0.0273852 0.0159477 0)
(-0.030188 0.0162568 0)
(-0.0330214 0.0164515 0)
(-0.0358674 0.0165334 0)
(-0.0387084 0.0165048 0)
(-0.0415272 0.0163685 0)
(-0.0443068 0.0161278 0)
(-0.0470308 0.0157864 0)
(-0.0496834 0.0153487 0)
(-0.0522495 0.0148189 0)
(-0.0547147 0.0142018 0)
(-0.0570652 0.0135024 0)
(-0.0592881 0.0127256 0)
(-0.0613713 0.0118769 0)
(-0.0633037 0.0109615 0)
(-0.0650748 0.00998518 0)
(-0.0666752 0.00895349 0)
(-0.0680964 0.00787226 0)
(-0.0693308 0.0067474 0)
(-0.0703718 0.0055849 0)
(-0.0712138 0.00439088 0)
(-0.0718521 0.00317155 0)
(-0.0722833 0.00193321 0)
(-0.0725047 0.000682274 0)
(-0.0725149 -0.000574781 0)
(-0.0723133 -0.00183137 0)
(-0.0719007 -0.00308084 0)
(-0.0712788 -0.00431646 0)
(-0.0704503 -0.00553143 0)
(-0.0694193 -0.00671893 0)
(-0.0681906 -0.00787209 0)
(-0.0667705 -0.00898403 0)
(-0.0651662 -0.0100479 0)
(-0.063386 -0.0110569 0)
(-0.0614394 -0.0120042 0)
(-0.0593367 -0.0128833 0)
(-0.0570896 -0.0136876 0)
(-0.0547106 -0.0144108 0)
(-0.0522131 -0.015047 0)
(-0.0496116 -0.0155903 0)
(-0.0469214 -0.0160353 0)
(-0.0441586 -0.0163772 0)
(-0.0413401 -0.0166112 0)
(-0.0384832 -0.0167337 0)
(-0.0356061 -0.0167412 0)
(-0.0327271 -0.0166312 0)
(-0.029865 -0.0164021 0)
(-0.0270386 -0.016053 0)
(-0.0242668 -0.0155844 0)
(-0.0215684 -0.0149978 0)
(-0.0189618 -0.0142962 0)
(-0.0164647 -0.0134841 0)
(-0.0140944 -0.0125679 0)
(-0.0118669 -0.0115559 0)
(-0.00979746 -0.010459 0)
(-0.00789963 -0.00929056 0)
(-0.00618563 -0.00806719 0)
(-0.00466595 -0.00680901 0)
(-0.00334937 -0.00554025 0)
(-0.00224294 -0.00428983 0)
(-0.0013514 -0.00309206 0)
(-0.000676757 -0.00198711 0)
(-0.000228257 -0.00102158 0)
(-3.13783e-05 -0.000252067 0)
(-3.95553e-05 0.000428208 0)
(-0.000280149 0.00152802 0)
(-0.000819884 0.00280173 0)
(-0.00162077 0.00419237 0)
(-0.00266539 0.00565282 0)
(-0.00394621 0.00714246 0)
(-0.00545341 0.00862674 0)
(-0.00717537 0.0100767 0)
(-0.00909941 0.0114684 0)
(-0.0112117 0.0127822 0)
(-0.0134973 0.0140022 0)
(-0.0159402 0.015116 0)
(-0.0185236 0.0161138 0)
(-0.0212298 0.0169885 0)
(-0.0240406 0.017735 0)
(-0.0269374 0.01835 0)
(-0.0299013 0.0188319 0)
(-0.0329134 0.0191802 0)
(-0.0359546 0.0193957 0)
(-0.0390061 0.0194801 0)
(-0.0420493 0.0194361 0)
(-0.0450661 0.0192668 0)
(-0.0480388 0.0189761 0)
(-0.0509501 0.0185682 0)
(-0.0537835 0.0180481 0)
(-0.0565232 0.0174208 0)
(-0.0591539 0.0166917 0)
(-0.0616612 0.0158666 0)
(-0.0640317 0.0149514 0)
(-0.0662527 0.0139522 0)
(-0.0683123 0.0128753 0)
(-0.0701998 0.0117273 0)
(-0.0719051 0.0105147 0)
(-0.0734194 0.00924436 0)
(-0.0747347 0.00792308 0)
(-0.075844 0.0065579 0)
(-0.0767415 0.00515595 0)
(-0.0774224 0.00372449 0)
(-0.0778828 0.00227086 0)
(-0.0781202 0.000802548 0)
(-0.0781327 -0.000672883 0)
(-0.0779201 -0.00214776 0)
(-0.077483 -0.0036143 0)
(-0.076823 -0.00506468 0)
(-0.0759433 -0.00649097 0)
(-0.0748478 -0.0078852 0)
(-0.0735418 -0.00923939 0)
(-0.0720317 -0.0105455 0)
(-0.070325 -0.0117956 0)
(-0.0684306 -0.0129817 0)
(-0.0663581 -0.014096 0)
(-0.0641186 -0.0151307 0)
(-0.0617242 -0.0160783 0)
(-0.0591879 -0.0169316 0)
(-0.0565239 -0.0176834 0)
(-0.0537474 -0.0183271 0)
(-0.0508744 -0.0188565 0)
(-0.0479217 -0.0192657 0)
(-0.0449071 -0.0195496 0)
(-0.0418488 -0.0197037 0)
(-0.0387659 -0.0197241 0)
(-0.0356776 -0.019608 0)
(-0.0326037 -0.0193534 0)
(-0.0295642 -0.0189595 0)
(-0.0265789 -0.0184267 0)
(-0.0236676 -0.0177568 0)
(-0.02085 -0.0169532 0)
(-0.018145 -0.016021 0)
(-0.015571 -0.0149674 0)
(-0.0131455 -0.0138018 0)
(-0.010885 -0.0125361 0)
(-0.00880466 -0.0111853 0)
(-0.00691832 -0.00976728 0)
(-0.00523836 -0.00830388 0)
(-0.00377561 -0.00682099 0)
(-0.00253951 -0.00534913 0)
(-0.00153735 -0.00392403 0)
(-0.000773888 -0.00258701 0)
(-0.000262752 -0.00138529 0)
(-3.66121e-05 -0.000375223 0)
(-4.47311e-05 0.000577713 0)
(-0.000314468 0.00196304 0)
(-0.000916768 0.00351052 0)
(-0.0018065 0.00516389 0)
(-0.00296181 0.00687603 0)
(-0.0043723 0.00860587 0)
(-0.00602544 0.0103181 0)
(-0.00790709 0.0119828 0)
(-0.0100023 0.0135749 0)
(-0.0122954 0.0150738 0)
(-0.0147695 0.0164627 0)
(-0.0174072 0.0177281 0)
(-0.0201901 0.0188597 0)
(-0.0230993 0.0198496 0)
(-0.0261153 0.0206923 0)
(-0.0292186 0.0213843 0)
(-0.032389 0.0219237 0)
(-0.0356067 0.02231 0)
(-0.0388518 0.0225442 0)
(-0.0421044 0.0226282 0)
(-0.0453452 0.0225649 0)
(-0.0485553 0.022358 0)
(-0.051716 0.0220118 0)
(-0.0548094 0.0215312 0)
(-0.0578184 0.0209218 0)
(-0.0607262 0.0201893 0)
(-0.0635172 0.0193399 0)
(-0.0661763 0.0183803 0)
(-0.0686895 0.0173171 0)
(-0.0710434 0.0161575 0)
(-0.073226 0.0149086 0)
(-0.0752257 0.013578 0)
(-0.0770323 0.0121731 0)
(-0.0786365 0.0107018 0)
(-0.08003 0.00917205 0)
(-0.0812056 0.0075918 0)
(-0.0821571 0.0059693 0)
(-0.0828794 0.00431287 0)
(-0.0833687 0.00263096 0)
(-0.083622 0.00093217 0)
(-0.0836378 -0.000774803 0)
(-0.0834155 -0.00248114 0)
(-0.0829556 -0.00417792 0)
(-0.0822602 -0.00585614 0)
(-0.0813321 -0.00750669 0)
(-0.0801756 -0.00912044 0)
(-0.0787962 -0.0106882 0)
(-0.0772003 -0.0122008 0)
(-0.075396 -0.013649 0)
(-0.0733922 -0.0150238 0)
(-0.0711992 -0.0163162 0)
(-0.0688282 -0.0175172 0)
(-0.066292 -0.0186183 0)
(-0.063604 -0.0196111 0)
(-0.0607791 -0.0204875 0)
(-0.057833 -0.0212399 0)
(-0.0547824 -0.0218611 0)
(-0.0516449 -0.0223445 0)
(-0.0484389 -0.0226842 0)
(-0.0451837 -0.0228749 0)
(-0.0418991 -0.0229124 0)
(-0.0386052 -0.0227934 0)
(-0.0353228 -0.0225155 0)
(-0.0320729 -0.0220779 0)
(-0.0288763 -0.021481 0)
(-0.0257541 -0.0207267 0)
(-0.0227269 -0.0198188 0)
(-0.0198151 -0.0187631 0)
(-0.0170382 -0.0175674 0)
(-0.0144152 -0.0162419 0)
(-0.011964 -0.0147999 0)
(-0.00970145 -0.0132572 0)
(-0.00764318 -0.0116335 0)
(-0.00580348 -0.00995169 0)
(-0.00419537 -0.00823924 0)
(-0.00283065 -0.006528 0)
(-0.00171921 -0.00485486 0)
(-0.000868433 -0.00326195 0)
(-0.000296098 -0.00179686 0)
(-4.15991e-05 -0.000515523 0)
(-4.9682e-05 0.000744261 0)
(-0.00034764 0.00244576 0)
(-0.0010109 0.00429417 0)
(-0.00198761 0.00623406 0)
(-0.00325172 0.00821853 0)
(-0.0047901 0.0102063 0)
(-0.00658754 0.0121615 0)
(-0.00862739 0.0140536 0)
(-0.0108925 0.0158567 0)
(-0.013365 0.0175494 0)
(-0.0160263 0.019114 0)
(-0.0188573 0.0205365 0)
(-0.0218382 0.0218059 0)
(-0.0249486 0.0229138 0)
(-0.0281679 0.0238543 0)
(-0.0314753 0.0246237 0)
(-0.0348496 0.02522 0)
(-0.0382701 0.0256429 0)
(-0.0417157 0.0258934 0)
(-0.045166 0.0259736 0)
(-0.0486007 0.025887 0)
(-0.0519999 0.0256376 0)
(-0.0553445 0.0252303 0)
(-0.0586158 0.0246707 0)
(-0.0617959 0.0239649 0)
(-0.0648676 0.0231196 0)
(-0.0678146 0.0221418 0)
(-0.0706212 0.0210389 0)
(-0.0732729 0.0198185 0)
(-0.075756 0.0184887 0)
(-0.0780578 0.0170576 0)
(-0.0801666 0.0155337 0)
(-0.0820715 0.0139256 0)
(-0.0837631 0.0122421 0)
(-0.0852327 0.0104922 0)
(-0.0864728 0.00868497 0)
(-0.0874771 0.0068298 0)
(-0.0882402 0.0049361 0)
(-0.0887581 0.00301348 0)
(-0.0890278 0.00107166 0)
(-0.0890476 -0.000879474 0)
(-0.0888168 -0.00282993 0)
(-0.0883362 -0.00476958 0)