/*--------------------------------*- C++ -*----------------------------------*\
| =========                 |                                                 |
| \\      /  F ield         | OpenFOAM: The Open Source CFD Toolbox           |
|  \\    /   O peration     | Version:  2506                                  |
|   \\  /    A nd           | Website:  www.openfoam.com                      |
|    \\/     M anipulation  |                                                 |
\*---------------------------------------------------------------------------*/
FoamFile
{
    version     2.0;
    format      ascii;
    arch        "LSB;label=32;scalar=64";
    class       volScalarField;
    location    "0.575";
    object      Ux;
}
// * * * * * * * * * * * * * * * * * * * * * * * * * * * * * * * * * * * * * //

dimensions      [0 1 -1 0 0 0 0];

internalField   nonuniform List<scalar> 
6400
(
7.19812e-06
2.97346e-05
5.92882e-05
8.0649e-05
8.55401e-05
7.07168e-05
3.50533e-05
-2.14215e-05
-9.79547e-05
-0.000193358
-0.000306188
-0.000434848
-0.000577659
-0.000732901
-0.000898845
-0.00107377
-0.001256
-0.00144387
-0.00163578
-0.00183018
-0.00202557
-0.00222052
-0.00241364
-0.00260364
-0.00278925
-0.00296931
-0.00314269
-0.00330836
-0.00346533
-0.00361269
-0.00374959
-0.00387525
-0.00398898
-0.00409013
-0.00417813
-0.00425248
-0.00431275
-0.0043586
-0.00438974
-0.00440597
-0.00440715
-0.00439324
-0.00436427
-0.00432035
-0.00426166
-0.00418848
-0.00410118
-0.0040002
-0.00388607
-0.00375941
-0.00362093
-0.00347142
-0.00331178
-0.00314296
-0.00296603
-0.00278211
-0.00259242
-0.00239827
-0.00220102
-0.00200211
-0.00180304
-0.00160538
-0.00141074
-0.00122078
-0.00103719
-0.000861699
-0.000696037
-0.000541934
-0.0004011
-0.000275199
-0.000165818
-7.44173e-05
-2.26583e-06
4.96677e-05
8.08902e-05
9.16678e-05
8.34481e-05
5.97994e-05
2.92409e-05
6.87142e-06
1.44299e-05
5.15268e-05
8.98623e-05
0.00010368
7.72569e-05
2.73234e-06
-0.000123601
-0.000302665
-0.000533422
-0.00081351
-0.00113969
-0.00150816
-0.00191473
-0.002355
-0.00282445
-0.00331852
-0.00383268
-0.00436243
-0.00490337
-0.00545122
-0.00600184
-0.00655122
-0.0070955
-0.00763102
-0.00815425
-0.00866188
-0.00915074
-0.00961787
-0.0100605
-0.010476
-0.0108621
-0.0112164
-0.011537
-0.0118221
-0.0120701
-0.0122795
-0.0124491
-0.012578
-0.0126654
-0.0127106
-0.0127134
-0.0126736
-0.0125913
-0.0124669
-0.0123009
-0.012094
-0.0118474
-0.0115623
-0.0112403
-0.0108831
-0.0104926
-0.0100713
-0.00962158
-0.00914616
-0.00864802
-0.00813038
-0.00759664
-0.00705043
-0.00649558
-0.00593608
-0.00537613
-0.00482003
-0.00427223
-0.00373729
-0.00321982
-0.00272447
-0.00225589
-0.00181865
-0.00141723
-0.00105587
-0.000738502
-0.000468598
-0.000248952
-8.13902e-05
3.36617e-05
9.77978e-05
0.000115407
9.49647e-05
5.26554e-05
1.43556e-05
1.42882e-05
4.45953e-05
6.1385e-05
3.58338e-05
-5.04404e-05
-0.000207666
-0.000441187
-0.000752718
-0.00114123
-0.00160373
-0.0021358
-0.00273205
-0.00338642
-0.00409242
-0.00484327
-0.00563208
-0.00645189
-0.00729579
-0.00815699
-0.00902881
-0.00990475
-0.0107785
-0.0116441
-0.0124957
-0.0133277
-0.0141348
-0.0149121
-0.0156548
-0.0163585
-0.0170191
-0.0176327
-0.018196
-0.0187055
-0.0191585
-0.0195524
-0.019885
-0.0201543
-0.0203587
-0.020497
-0.0205684
-0.0205723
-0.0205084
-0.020377
-0.0201786
-0.0199141
-0.0195848
-0.0191924
-0.0187389
-0.0182267
-0.0176588
-0.0170383
-0.0163688
-0.0156542
-0.014899
-0.0141078
-0.0132857
-0.012438
-0.0115706
-0.0106893
-0.00980059
-0.00891088
-0.00802696
-0.00715575
-0.00630429
-0.00547972
-0.00468919
-0.00393976
-0.00323839
-0.00259174
-0.00200608
-0.00148713
-0.00103975
-0.00066774
-0.000373336
-0.000156713
-1.52385e-05
5.73427e-05
7.20664e-05
4.80345e-05
1.46902e-05
1.00641e-05
2.04656e-05
-4.12268e-06
-9.04974e-05
-0.000256821
-0.000514053
-0.000868113
-0.00132097
-0.00187147
-0.00251609
-0.00324956
-0.00406527
-0.00495569
-0.00591266
-0.00692757
-0.00799157
-0.0090957
-0.010231
-0.0113885
-0.0125596
-0.0137357
-0.0149084
-0.0160698
-0.0172121
-0.0183279
-0.0194103
-0.0204525
-0.0214483
-0.0223917
-0.0232772
-0.0240997
-0.0248545
-0.0255373
-0.0261442
-0.0266718
-0.0271171
-0.0274775
-0.027751
-0.0279358
-0.0280308
-0.0280353
-0.0279491
-0.0277723
-0.0275058
-0.0271508
-0.026709
-0.0261827
-0.0255746
-0.0248881
-0.0241269
-0.0232954
-0.0223982
-0.0214409
-0.020429
-0.019369
-0.0182676
-0.0171319
-0.0159695
-0.0147883
-0.0135968
-0.0124034
-0.0112172
-0.0100471
-0.0089024
-0.00779238
-0.00672631
-0.00571331
-0.00476227
-0.00388168
-0.00307942
-0.00236259
-0.00173716
-0.00120765
-0.00077668
-0.00044436
-0.000207633
-5.9486e-05
1.20427e-05
2.61652e-05
1.09181e-05
4.03335e-06
-1.29334e-05
-9.17854e-05
-0.000253634
-0.000514342
-0.000884371
-0.00136931
-0.00197078
-0.00268722
-0.00351452
-0.0044466
-0.00547583
-0.00659348
-0.00778998
-0.00905522
-0.0103787
-0.0117497
-0.0131576
-0.0145916
-0.0160412
-0.017496
-0.018946
-0.0203814
-0.0217928
-0.0231711
-0.0245078
-0.0257946
-0.0270239
-0.0281883
-0.0292812
-0.0302961
-0.0312273
-0.0320696
-0.0328181
-0.0334687
-0.0340177
-0.0344619
-0.0347987
-0.0350261
-0.0351427
-0.0351477
-0.0350406
-0.034822
-0.0344927
-0.0340542
-0.0335087
-0.0328591
-0.0321087
-0.0312616
-0.0303224
-0.0292965
-0.0281898
-0.0270087
-0.0257604
-0.0244526
-0.0230935
-0.0216919
-0.0202569
-0.0187984
-0.0173263
-0.0158513
-0.0143839
-0.0129353
-0.0115164
-0.0101385
-0.00881265
-0.00754967
-0.00636012
-0.005254
-0.00424057
-0.00332805
-0.00252337
-0.00183176
-0.0012563
-0.000797395
-0.000452174
-0.000213783
-7.05511e-05
-5.19638e-06
5.272e-06
-2.65103e-06
-5.08506e-05
-0.000191693
-0.000438441
-0.000803229
-0.00129507
-0.00191848
-0.00267417
-0.00355983
-0.00457057
-0.00569946
-0.00693792
-0.00827612
-0.00970329
-0.011208
-0.0127783
-0.0144022
-0.0160672
-0.0177612
-0.019472
-0.0211877
-0.0228967
-0.0245876
-0.0262495
-0.0278719
-0.0294449
-0.0309588
-0.0324047
-0.0337741
-0.035059
-0.0362521
-0.0373466
-0.0383365
-0.039216
-0.0399803
-0.040625
-0.0411466
-0.0415419
-0.0418087
-0.0419452
-0.0419505
-0.0418242
-0.0415668
-0.0411794
-0.0406637
-0.0400225
-0.0392588
-0.0383768
-0.0373812
-0.0362775
-0.0350718
-0.033771
-0.0323828
-0.0309154
-0.0293778
-0.0277796
-0.0261308
-0.0244424
-0.0227254
-0.0209916
-0.0192531
-0.0175223
-0.0158118
-0.0141343
-0.0125026
-0.0109294
-0.00942709
-0.00800759
-0.00668222
-0.00546144
-0.00435452
-0.00336932
-0.00251181
-0.00178578
-0.00119226
-0.000729155
-0.000390504
-0.000165865
-4.13105e-05
-1.08896e-06
-9.43037e-06
-9.05236e-05
-0.000297451
-0.000634619
-0.00110956
-0.00172915
-0.00249622
-0.00341013
-0.00446742
-0.00566223
-0.00698665
-0.00843112
-0.00998477
-0.0116357
-0.0133713
-0.0151784
-0.0170436
-0.0189532
-0.0208936
-0.0228513
-0.0248129
-0.0267655
-0.0286963
-0.0305931
-0.032444
-0.0342379
-0.0359639
-0.0376119
-0.0391723
-0.0406362
-0.0419952
-0.0432418
-0.0443688
-0.0453702
-0.0462402
-0.046974
-0.0475674
-0.0480171
-0.0483205
-0.0484755
-0.0484812
-0.0483371
-0.0480438
-0.0476026
-0.0470154
-0.0462853
-0.0454158
-0.0444117
-0.0432781
-0.0420214
-0.0406485
-0.0391672
-0.0375861
-0.0359145
-0.0341625
-0.0323409
-0.0304611
-0.0285351
-0.0265756
-0.0245957
-0.0226088
-0.020629
-0.0186701
-0.0167465
-0.0148724
-0.0130618
-0.0113284
-0.00968549
-0.00814557
-0.0067202
-0.00541971
-0.00425287
-0.0032266
-0.00234558
-0.00161188
-0.00102461
-0.000579315
-0.000267471
-7.93781e-05
-7.58951e-06
-1.60427e-05
-0.000130389
-0.000405084
-0.000835409
-0.00142385
-0.0021747
-0.00308865
-0.00416329
-0.00539376
-0.00677295
-0.00829183
-0.00993979
-0.0117049
-0.0135741
-0.0155338
-0.0175695
-0.0196668
-0.0218107
-0.0239864
-0.0261791
-0.0283743
-0.0305576
-0.0327152
-0.0348337
-0.0368999
-0.0389017
-0.040827
-0.0426648
-0.0444044
-0.046036
-0.0475504
-0.0489393
-0.0501948
-0.0513101
-0.0522789
-0.053096
-0.0537568
-0.0542574
-0.054595
-0.0547676
-0.0547738
-0.0546134
-0.0542868
-0.0537955
-0.0531418
-0.0523289
-0.0513609
-0.0502428
-0.0489805
-0.047581
-0.0460518
-0.0444016
-0.0426398
-0.0407767
-0.0388234
-0.0367917
-0.0346942
-0.0325442
-0.0303554
-0.0281422
-0.0259195
-0.0237023
-0.0215062
-0.0193465
-0.0172389
-0.0151986
-0.0132406
-0.0113793
-0.00962832
-0.00800042
-0.00650692
-0.00515767
-0.00396066
-0.00292172
-0.00204424
-0.00132896
-0.00077338
-0.000371324
-0.000117791
-1.3953e-05
-2.23786e-05
-0.000169597
-0.000512204
-0.00103651
-0.00173984
-0.00262359
-0.00368604
-0.00492273
-0.00632708
-0.00789056
-0.00960287
-0.0114522
-0.0134255
-0.0155087
-0.017687
-0.0199449
-0.0222668
-0.0246367
-0.0270385
-0.0294565
-0.0318749
-0.0342784
-0.0366519
-0.0389808
-0.0412513
-0.0434499
-0.0455638
-0.0475808
-0.0494896
-0.0512794
-0.0529403
-0.0544631
-0.0558396
-0.0570622
-0.0581241
-0.0590197
-0.0597438
-0.0602925
-0.0606626
-0.0608519
-0.060859
-0.0606835
-0.0603261
-0.0597882
-0.0590724
-0.0581821
-0.0571219
-0.0558971
-0.0545142
-0.0529805
-0.0513044
-0.0494953
-0.0475632
-0.0455195
-0.0433759
-0.0411454
-0.0388415
-0.0364785
-0.0340714
-0.0316356
-0.0291871
-0.0267422
-0.0243175
-0.0219298
-0.0195957
-0.0173318
-0.0151541
-0.0130782
-0.0111189
-0.00929006
-0.00760408
-0.00607199
-0.00470304
-0.00350444
-0.00248116
-0.00163588
-0.000968327
-0.000474978
-0.000155666
-2.00591e-05
-2.84041e-05
-0.000207722
-0.000617446
-0.0012353
-0.0020535
-0.00307046
-0.00428184
-0.00568088
-0.00725914
-0.00900644
-0.0109111
-0.0129599
-0.0151388
-0.0174324
-0.0198249
-0.0222997
-0.0248402
-0.0274293
-0.0300499
-0.0326852
-0.0353184
-0.0379331
-0.0405134
-0.0430437
-0.0455091
-0.0478953
-0.0501886
-0.0523761
-0.0544455
-0.0563854
-0.0581852
-0.0598351
-0.0613262
-0.0626504
-0.0638006
-0.0647705
-0.0655549
-0.0661494
-0.0665505
-0.066756
-0.0667644
-0.0665752
-0.0661891
-0.0656078
-0.0648339
-0.0638711
-0.0627242
-0.061399
-0.0599023
-0.0582421
-0.0564273
-0.0544677
-0.0523744
-0.0501591
-0.0478346
-0.0454147
-0.0429138
-0.0403471
-0.0377306
-0.0350808
-0.0324147
-0.0297497
-0.0271035
-0.0244941
-0.021939
-0.0194561
-0.0170625
-0.0147749
-0.0126094
-0.0105807
-0.00870276
-0.00698773
-0.00544629
-0.00408721
-0.0029173
-0.00194133
-0.00116149
-0.000577028
-0.000192551
-2.58675e-05
-3.41226e-05
-0.000244584
-0.000720102
-0.0014303
-0.00236245
-0.00351197
-0.00487179
-0.00643277
-0.00818439
-0.0101147
-0.0122105
-0.0144572
-0.0168393
-0.0193404
-0.0219435
-0.0246311
-0.0273852
-0.030188
-0.0330214
-0.0358674
-0.0387084
-0.0415272
-0.0443068
-0.0470308
-0.0496834
-0.0522495
-0.0547147
-0.0570652
-0.0592881
-0.0613713
-0.0633037
-0.0650748
-0.0666752
-0.0680964
-0.0693308
-0.0703718
-0.0712138
-0.0718521
-0.0722833
-0.0725047
-0.0725149
-0.0723133
-0.0719007
-0.0712788
-0.0704503
-0.0694193
-0.0681906
-0.0667705
-0.0651662
-0.063386
-0.0614394
-0.0593367
-0.0570896
-0.0547106
-0.0522131
-0.0496116
-0.0469214
-0.0441586
-0.0413401
-0.0384832
-0.0356061
-0.0327271
-0.029865
-0.0270386
-0.0242668
-0.0215684
-0.0189618
-0.0164647
-0.0140944
-0.0118669
-0.00979746
-0.00789963
-0.00618563
-0.00466595
-0.00334937
-0.00224294
-0.0013514
-0.000676757
-0.000228257
-3.13783e-05
-3.95553e-05
-0.000280149
-0.000819884
-0.00162077
-0.00266539
-0.00394621
-0.00545341
-0.00717537
-0.00909941
-0.0112117
-0.0134973
-0.0159402
-0.0185236
-0.0212298
-0.0240406
-0.0269374
-0.0299013
-0.0329134
-0.0359546
-0.0390061
-0.0420493
-0.0450661
-0.0480388
-0.0509501
-0.0537835
-0.0565232
-0.0591539
-0.0616612
-0.0640317
-0.0662527
-0.0683123
-0.0701998
-0.0719051
-0.0734194
-0.0747347
-0.075844
-0.0767415
-0.0774224
-0.0778828
-0.0781202
-0.0781327
-0.0779201
-0.077483
-0.076823
-0.0759433
-0.0748478
-0.0735418
-0.0720317
-0.070325
-0.0684306
-0.0663581
-0.0641186
-0.0617242
-0.0591879
-0.0565239
-0.0537474
-0.0508744
-0.0479217
-0.0449071
-0.0418488
-0.0387659
-0.0356776
-0.0326037
-0.0295642
-0.0265789
-0.0236676
-0.02085
-0.018145
-0.015571
-0.0131455
-0.010885
-0.00880466
-0.00691832
-0.00523836
-0.00377561
-0.00253951
-0.00153735
-0.000773888
-0.000262752
-3.66121e-05
-4.47311e-05
-0.000314468
-0.000916768
-0.0018065
-0.00296181
-0.0043723
-0.00602544
-0.00790709
-0.0100023
-0.0122954
-0.0147695
-0.0174072
-0.0201901
-0.0230993
-0.0261153
-0.0292186
-0.032389
-0.0356067
-0.0388518
-0.0421044
-0.0453452
-0.0485553
-0.051716
-0.0548094
-0.0578184
-0.0607262
-0.0635172
-0.0661763
-0.0686895
-0.0710434
-0.073226
-0.0752257
-0.0770323
-0.0786365
-0.08003
-0.0812056
-0.0821571
-0.0828794
-0.0833687
-0.083622
-0.0836378
-0.0834155
-0.0829556
-0.0822602
-0.0813321
-0.0801756
-0.0787962
-0.0772003
-0.075396
-0.0733922
-0.0711992
-0.0688282
-0.066292
-0.063604
-0.0607791
-0.057833
-0.0547824
-0.0516449
-0.0484389
-0.0451837
-0.0418991
-0.0386052
-0.0353228
-0.0320729
-0.0288763
-0.0257541
-0.0227269
-0.0198151
-0.0170382
-0.0144152
-0.011964
-0.00970145
-0.00764318
-0.00580348
-0.00419537
-0.00283065
-0.00171921
-0.000868433
-0.000296098
-4.15991e-05
-4.9682e-05
-0.00034764
-0.0010109
-0.00198761
-0.00325172
-0.0047901
-0.00658754
-0.00862739
-0.0108925
-0.013365
-0.0160263
-0.0188573
-0.0218382
-0.0249486
-0.0281679
-0.0314753
-0.0348496
-0.0382701
-0.0417157
-0.045166
-0.0486007
-0.0519999
-0.0553445
-0.0586158
-0.0617959
-0.0648676
-0.0678146
-0.0706212
-0.0732729
-0.075756
-0.0780578
-0.0801666
-0.0820715
-0.0837631
-0.0852327
-0.0864728
-0.0874771
-0.0882402
-0.0887581
-0.0890278
-0.0890476
-0.0888168
-0.0883362
-0.0876075
-0.0866339
-0.0854196
-0.0839702
-0.0822925
-0.0803947
-0.0782859
-0.0759768
-0.0734791
-0.0708057
-0.0679708
-0.0649896
-0.0618784
-0.0586546
-0.0553364
-0.051943
-0.0484944
-0.0450111
-0.0415144
-0.0380259
-0.0345676
-0.0311614
-0.0278294
-0.0245937
-0.0214756
-0.0184963
-0.015676
-0.0130344
-0.0105899
-0.00836016
-0.00636135
-0.00460874
-0.00311656
-0.0018972
-0.000960588
-0.000328413
-4.63739e-05
-5.44402e-05
-0.000379792
-0.00110251
-0.0021644
-0.00353546
-0.00519994
-0.00714001
-0.00933652
-0.01177
-0.0144206
-0.0172679
-0.0202909
-0.0234683
-0.0267784
-0.0301993
-0.0337089
-0.0372851
-0.0409059
-0.0445495
-0.0481946
-0.05182
-0.0554052
-0.0589303
-0.0623759
-0.0657236
-0.0689555
-0.0720548
-0.0750055
-0.0777924
-0.0804015
-0.0828196
-0.0850346
-0.0870355
-0.0888124
-0.0903564
-0.0916598
-0.092716
-0.0935195
-0.094066
-0.0943526
-0.0943774
-0.0941396
-0.09364
-0.0928803
-0.0918637
-0.0905945
-0.0890785
-0.0873225
-0.0853349
-0.0831251
-0.0807039
-0.0780835
-0.0752771
-0.0722993
-0.0691658
-0.0658933
-0.0624998
-0.0590043
-0.0554265
-0.0517872
-0.0481078
-0.0444104
-0.0407174
-0.037052
-0.0334372
-0.0298963
-0.0264523
-0.0231283
-0.0199466
-0.0169292
-0.0140972
-0.011471
-0.00907006
-0.00691269
-0.00501639
-0.0033978
-0.00207177
-0.00105066
-0.000359847
-5.09726e-05
-5.90368e-05
-0.000411061
-0.0011919
-0.00233735
-0.00381362
-0.00560248
-0.00768355
-0.0100352
-0.0126358
-0.0154632
-0.0184952
-0.021709
-0.0250818
-0.0285903
-0.0322113
-0.0359215
-0.0396977
-0.0435169
-0.0473564
-0.0511939
-0.0550075
-0.058776
-0.0624787
-0.0660958
-0.0696081
-0.0729973
-0.076246
-0.0793378
-0.0822571
-0.0849894
-0.0875214
-0.0898405
-0.0919354
-0.093796
-0.0954131
-0.0967788
-0.0978863
-0.09873
-0.0993055
-0.0996096
-0.0996404
-0.0993971
-0.0988802
-0.0980917
-0.0970346
-0.0957134
-0.0941337
-0.0923027
-0.0902286
-0.0879214
-0.0853918
-0.0826524
-0.0797166
-0.0765994
-0.0733169
-0.0698864
-0.0663264
-0.0626562
-0.0588965
-0.0550687
-0.051195
-0.0472983
-0.0434021
-0.0395304
-0.0357075
-0.0319579
-0.0283058
-0.0247757
-0.0213915
-0.0181767
-0.0151542
-0.0123463
-0.00977427
-0.00745872
-0.00541935
-0.0036752
-0.00224353
-0.00113904
-0.000390568
-5.5431e-05
-6.35011e-05
-0.000441586
-0.00127939
-0.00250696
-0.00408691
-0.0059986
-0.00821919
-0.0107246
-0.013491
-0.0164941
-0.0197096
-0.0231132
-0.0266802
-0.030386
-0.0342059
-0.0381154
-0.0420902
-0.0461062
-0.0501398
-0.0541677
-0.0581675
-0.062117
-0.065995
-0.069781
-0.0734554
-0.0769993
-0.0803949
-0.0836253
-0.0866747
-0.0895281
-0.0921718
-0.0945932
-0.0967806
-0.0987235
-0.100413
-0.10184
-0.102999
-0.103883
-0.104488
-0.10481
-0.104848
-0.1046
-0.104068
-0.103253
-0.102158
-0.100787
-0.0991468
-0.0972438
-0.0950866
-0.0926852
-0.0900506
-0.0871954
-0.0841335
-0.0808801
-0.0774517
-0.073866
-0.0701419
-0.0662995
-0.0623599
-0.0583453
-0.0542786
-0.0501837
-0.0460849
-0.0420075
-0.0379766
-0.0340181
-0.0301576
-0.026421
-0.0228338
-0.0194211
-0.0162077
-0.0132177
-0.0104746
-0.00800099
-0.0058189
-0.00394976
-0.0024132
-0.00122613
-0.000420751
-5.97837e-05
-6.78601e-05
-0.000471509
-0.00136533
-0.0026738
-0.00435611
-0.00638929
-0.00874811
-0.0114061
-0.0143371
-0.0175148
-0.020913
-0.0245054
-0.0282657
-0.0321678
-0.0361856
-0.0402933
-0.0444654
-0.0486768
-0.0529029
-0.0571197
-0.0613038
-0.0654324
-0.0694837
-0.0734365
-0.0772708
-0.0809673
-0.0845076
-0.0878745
-0.0910519
-0.0940245
-0.0967783
-0.0993003
-0.101579
-0.103603
-0.105364
-0.106852
-0.108062
-0.108986
-0.109621
-0.109963
-0.110009
-0.109759
-0.109213
-0.108374
-0.107243
-0.105825
-0.104127
-0.102155
-0.0999178
-0.0974253
-0.0946888
-0.0917211
-0.0885362
-0.0851495
-0.0815779
-0.0778395
-0.0739537
-0.069941
-0.0658232
-0.0616231
-0.0573645
-0.053072
-0.0487712
-0.0444879
-0.040249
-0.0360812
-0.0320117
-0.0280679
-0.0242769
-0.0206655
-0.0172605
-0.0140879
-0.0111732
-0.00854127
-0.00621649
-0.00422259
-0.00258153
-0.00131239
-0.000450573
-6.40641e-05
-7.21391e-05
-0.000500961
-0.00145004
-0.00283845
-0.00462205
-0.00677563
-0.00927159
-0.0120812
-0.0151758
-0.0185273
-0.0221073
-0.0258877
-0.0298406
-0.0339381
-0.0381529
-0.0424578
-0.0468261
-0.0512318
-0.0556491
-0.0600532
-0.06442
-0.068726
-0.0729487
-0.0770666
-0.0810588
-0.0849058
-0.0885889
-0.0920905
-0.095394
-0.0984841
-0.101346
-0.103968
-0.106336
-0.108441
-0.110273
-0.111822
-0.113083
-0.114048
-0.114713
-0.115075
-0.115131
-0.11488
-0.114323
-0.113461
-0.112297
-0.110835
-0.109082
-0.107044
-0.10473
-0.102149
-0.0993139
-0.0962366
-0.0929316
-0.0894144
-0.0857023
-0.0818136
-0.0777681
-0.073587
-0.0692925
-0.0649081
-0.0604584
-0.0559689
-0.051466
-0.0469768
-0.0425293
-0.0381515
-0.0338722
-0.0297202
-0.0257243
-0.0219132
-0.0183155
-0.0149593
-0.0118722
-0.00908149
-0.00661364
-0.00449482
-0.0027493
-0.00139824
-0.000480208
-6.83037e-05
-7.63611e-05
-0.000530071
-0.00153384
-0.00300146
-0.00488553
-0.00715868
-0.00979098
-0.0127513
-0.016009
-0.0195335
-0.0232946
-0.0272624
-0.0314071
-0.0356994
-0.0401104
-0.0446117
-0.0491753
-0.053774
-0.0583813
-0.0629714
-0.0675194
-0.0720012
-0.0763937
-0.0806747
-0.0848231
-0.0888188
-0.0926428
-0.0962772
-0.0997052
-0.102911
-0.105881
-0.1086
-0.111058
-0.113242
-0.115144
-0.116754
-0.118066
-0.119072
-0.119769
-0.120152
-0.120219
-0.119969
-0.119402
-0.11852
-0.117325
-0.115822
-0.114017
-0.111916
-0.109528
-0.106863
-0.103932
-0.100748
-0.0973257
-0.0936809
-0.0898307
-0.0857941
-0.0815911
-0.0772432
-0.0727734
-0.0682058
-0.0635657
-0.0588794
-0.0541745
-0.0494791
-0.0448223
-0.0402337
-0.0357435
-0.0313819
-0.0271798
-0.0231675
-0.0193758
-0.0158347
-0.0125742
-0.00962363
-0.00701195
-0.00476765
-0.0029173
-0.00148414
-0.000509827
-7.25323e-05
-8.05471e-05
-0.000558959
-0.00161704
-0.00316338
-0.00514739
-0.00753952
-0.0103076
-0.0134181
-0.0168382
-0.0205353
-0.0244771
-0.0286317
-0.0329678
-0.0374542
-0.0420607
-0.0467575
-0.0515154
-0.0563062
-0.0611023
-0.065877
-0.0706048
-0.0752607
-0.0798213
-0.0842637
-0.0885664
-0.092709
-0.0966721
-0.100438
-0.103988
-0.107309
-0.110384
-0.1132
-0.115746
-0.11801
-0.119981
-0.121652
-0.123015
-0.124063
-0.124792
-0.125197
-0.125277
-0.12503
-0.124455
-0.123555
-0.122333
-0.120791
-0.118936
-0.116775
-0.114317
-0.11157
-0.108546
-0.105259
-0.101723
-0.0979535
-0.0939681
-0.0897859
-0.0854275
-0.0809147
-0.076271
-0.0715212
-0.0666913
-0.0618087
-0.0569016
-0.0519995
-0.0471327
-0.0423322
-0.0376297
-0.0330572
-0.0286471
-0.0244321
-0.0204446
-0.016717
-0.0132815
-0.0101697
-0.007413
-0.00504225
-0.00308631
-0.00157052
-0.000539596
-7.67782e-05
-8.47165e-05
-0.000587736
-0.00169993
-0.00332474
-0.00540839
-0.0079192
-0.0108227
-0.0140832
-0.0176654
-0.0215347
-0.0256568
-0.0299979
-0.0345248
-0.0392049
-0.0440062
-0.0488977
-0.0538491
-0.0588308
-0.0638144
-0.0687724
-0.0736784
-0.0785069
-0.0832337
-0.0878357
-0.0922908
-0.0965784
-0.100679
-0.104573
-0.108245
-0.111678
-0.114858
-0.11777
-0.120403
-0.122744
-0.124785
-0.126516
-0.12793
-0.129021
-0.129783
-0.130212
-0.130306
-0.130063
-0.129483
-0.128568
-0.12732
-0.125743
-0.123842
-0.121625
-0.119099
-0.116274
-0.113162
-0.109775
-0.106127
-0.102236
-0.0981182
-0.0937931
-0.0892814
-0.0846057
-0.0797897
-0.0748589
-0.06984
-0.0647612
-0.059652
-0.0545427
-0.0494651
-0.0444515
-0.0395352
-0.0347501
-0.0301303
-0.0257104
-0.0215251
-0.017609
-0.0139965
-0.0107217
-0.00781837
-0.00531978
-0.00325711
-0.00165781
-0.000569673
-8.10682e-05
-8.8887e-05
-0.000616508
-0.0017828
-0.00348604
-0.00566927
-0.00829873
-0.0113376
-0.014748
-0.0184923
-0.0225337
-0.0268359
-0.0313631
-0.0360805
-0.0409537
-0.0459492
-0.0510347
-0.0561784
-0.0613499
-0.0665197
-0.0716595
-0.076742
-0.0817412
-0.0866324
-0.0913919
-0.0959974
-0.100428
-0.104663
-0.108685
-0.112476
-0.11602
-0.119302
-0.122309
-0.125027
-0.127446
-0.129556
-0.131347
-0.132813
-0.133946
-0.134742
-0.135196
-0.135305
-0.135069
-0.134486
-0.133559
-0.132288
-0.130679
-0.128735
-0.126465
-0.123875
-0.120976
-0.117778
-0.114295
-0.11054
-0.106531
-0.102284
-0.0978185
-0.0931563
-0.0883197
-0.0833332
-0.0782227
-0.0730158
-0.0677414
-0.0624299
-0.057113
-0.0518237
-0.0465958
-0.0414642
-0.0364645
-0.0316329
-0.0270059
-0.0226205
-0.0185135
-0.0147217
-0.0112817
-0.00822964
-0.00560137
-0.00343043
-0.0017464
-0.000600212
-8.54278e-05
-9.30746e-05
-0.000645371
-0.0018659
-0.00364773
-0.00593076
-0.00867905
-0.0118536
-0.0154139
-0.0193203
-0.0235339
-0.0280161
-0.0327294
-0.0376369
-0.0427027
-0.0478918
-0.0531703
-0.0585053
-0.0638653
-0.0692198
-0.0745396
-0.0797968
-0.0849647
-0.090018
-0.0949327
-0.0996862
-0.104257
-0.108625
-0.112772
-0.11668
-0.120333
-0.123715
-0.126814
-0.129617
-0.132113
-0.13429
-0.136142
-0.137659
-0.138835
-0.139666
-0.140146
-0.140273
-0.140045
-0.139462
-0.138525
-0.137235
-0.135596
-0.133614
-0.131294
-0.128645
-0.125675
-0.122396
-0.118821
-0.114963
-0.110839
-0.106466
-0.101864
-0.0970541
-0.0920593
-0.0869044
-0.0816159
-0.0762221
-0.0707527
-0.0652392
-0.0597144
-0.0542126
-0.0487691
-0.0434206
-0.0382043
-0.0331586
-0.028322
-0.0237338
-0.0194332
-0.0154594
-0.0118515
-0.00864832
-0.00588815
-0.00360702
-0.0018367
-0.00063136
-8.9881e-05
-9.72945e-05
-0.000674415
-0.00194947
-0.00381028
-0.00619352
-0.00906108
-0.0123716
-0.0160823
-0.0201513
-0.0245371
-0.0291995
-0.0340987
-0.039196
-0.0444539
-0.0498357
-0.0553063
-0.0608314
-0.0663783
-0.0719158
-0.0774136
-0.0828432
-0.0881773
-0.0933902
-0.0984575
-0.103356
-0.108065
-0.112563
-0.116832
-0.120854
-0.124613
-0.128095
-0.131284
-0.13417
-0.13674
-0.138985
-0.140896
-0.142464
-0.143684
-0.14455
-0.145058
-0.145204
-0.144987
-0.144406
-0.143461
-0.142156
-0.140492
-0.138475
-0.13611
-0.133405
-0.13037
-0.127014
-0.123351
-0.119394
-0.11516
-0.110665
-0.10593
-0.100976
-0.095826
-0.0905052
-0.0850408
-0.0794616
-0.0737983
-0.0680832
-0.0623504
-0.0566354
-0.0509752
-0.045408
-0.0399732
-0.0347108
-0.029662
-0.024868
-0.0203707
-0.0162119
-0.0124331
-0.00907589
-0.00618119
-0.00378757
-0.00192909
-0.00066326
-9.4451e-05
-0.00010156
-0.000703728
-0.00203374
-0.00397409
-0.00645818
-0.00944568
-0.0128929
-0.0167546
-0.0209865
-0.025545
-0.0303877
-0.0354727
-0.0407596
-0.0462089
-0.0517826
-0.057444
-0.0631577
-0.0688899
-0.0746081
-0.0802816
-0.0858811
-0.0913787
-0.0967482
-0.101965
-0.107006
-0.111849
-0.116474
-0.120862
-0.124995
-0.128858
-0.132435
-0.135713
-0.13868
-0.141323
-0.143634
-0.145603
-0.147223
-0.148487
-0.149389
-0.149925
-0.150092
-0.149888
-0.149311
-0.148363
-0.147045
-0.14536
-0.143312
-0.140907
-0.138151
-0.135055
-0.131628
-0.127882
-0.123831
-0.119492
-0.11488
-0.110016
-0.104922
-0.0996203
-0.0941368
-0.0884991
-0.0827365
-0.0768805
-0.0709646
-0.0650239
-0.0590953
-0.0532174
-0.04743
-0.0417744
-0.036293
-0.0310289
-0.0260261
-0.0213288
-0.0169814
-0.0130284
-0.00951379
-0.00648154
-0.00397278
-0.00202394
-0.000696049
-9.916e-05
-0.000105885
-0.000733388
-0.00211893
-0.00413957
-0.00672535
-0.00983367
-0.0134184
-0.0174319
-0.0218273
-0.026559
-0.0315822
-0.036853
-0.042329
-0.0479692
-0.0537338
-0.0595846
-0.0654851
-0.0714003
-0.077297
-0.0831434
-0.0889096
-0.0945673
-0.10009
-0.105452
-0.110631
-0.115605
-0.120353
-0.124856
-0.129097
-0.13306
-0.13673
-0.140094
-0.143139
-0.145854
-0.148229
-0.150256
-0.151926
-0.153233
-0.154172
-0.154738
-0.154927
-0.154738
-0.15417
-0.153221
-0.151895
-0.150192
-0.148118
-0.145678
-0.142877
-0.139725
-0.136232
-0.13241
-0.128271
-0.123831
-0.119108
-0.114121
-0.108891
-0.103442
-0.0977991
-0.0919912
-0.0860478
-0.0800012
-0.0738857
-0.0677376
-0.0615952
-0.0554986
-0.0494895
-0.0436112
-0.0379081
-0.0324258
-0.0272107
-0.0223097
-0.0177701
-0.0136389
-0.00996341
-0.00679022
-0.0041633
-0.00212162
-0.00072986
-0.00010403
-0.000110281
-0.000763472
-0.00220524
-0.0043071
-0.00699561
-0.0102258
-0.0139492
-0.0181153
-0.0226752
-0.0275806
-0.0327844
-0.038241
-0.0439058
-0.0497359
-0.0556901
-0.0617287
-0.0678139
-0.0739097
-0.0799817
-0.0859977
-0.0919271
-0.097741
-0.103413
-0.108917
-0.114229
-0.119329
-0.124195
-0.12881
-0.133154
-0.137213
-0.140972
-0.144418
-0.147538
-0.150322
-0.15276
-0.154842
-0.156562
-0.157913
-0.158889
-0.159486
-0.159699
-0.159528
-0.15897
-0.158025
-0.156694
-0.154979
-0.152884
-0.150413
-0.147574
-0.144373
-0.14082
-0.136927
-0.132706
-0.128173
-0.123344
-0.118239
-0.112879
-0.107288
-0.101491
-0.0955167
-0.0893957
-0.083161
-0.0768477
-0.0704932
-0.0641373
-0.0578215
-0.0515895
-0.0454864
-0.039559
-0.0338554
-0.0284244
-0.0233159
-0.0185799
-0.0142666
-0.0104261
-0.00710822
-0.00435978
-0.00222247
-0.000764823
-0.000109081
-0.000114761
-0.000794055
-0.00229288
-0.00447704
-0.00726952
-0.010623
-0.0144861
-0.0188061
-0.0235312
-0.0286109
-0.0339958
-0.039638
-0.045491
-0.05151
-0.0576523
-0.0638766
-0.070144
-0.0764172
-0.0826613
-0.088843
-0.0949311
-0.100897
-0.106712
-0.112353
-0.117794
-0.123014
-0.127994
-0.132714
-0.137157
-0.141308
-0.145151
-0.148675
-0.151867
-0.154717
-0.157214
-0.159351
-0.161119
-0.162513
-0.163526
-0.164155
-0.164394
-0.164243
-0.163698
-0.16276
-0.161429
-0.159707
-0.157596
-0.155102
-0.15223
-0.148986
-0.145381
-0.141425
-0.137129
-0.13251
-0.127583
-0.122367
-0.116883
-0.111156
-0.10521
-0.0990741
-0.0927796
-0.08636
-0.0798513
-0.073292
-0.0667232
-0.0601881
-0.0537321
-0.0474025
-0.0412483
-0.0353202
-0.0296697
-0.0243496
-0.0194129
-0.0149131
-0.0109032
-0.0074365
-0.00456287
-0.00232684
-0.000801067
-0.000114335
-0.000119335
-0.00082521
-0.00238205
-0.00464976
-0.00754763
-0.0110257
-0.0150301
-0.0195052
-0.0243967
-0.0296514
-0.0352176
-0.0410451
-0.0470855
-0.0532922
-0.0596207
-0.0660283
-0.0724748
-0.078922
-0.0853338
-0.0916766
-0.0979186
-0.10403
-0.109984
-0.115755
-0.121319
-0.126654
-0.13174
-0.13656
-0.141096
-0.145332
-0.149255
-0.152852
-0.156112
-0.159023
-0.161578
-0.163766
-0.165581
-0.167017
-0.168068
-0.168728
-0.168996
-0.168866
-0.168338
-0.167411
-0.166085
-0.164361
-0.162242
-0.15973
-0.156832
-0.153554
-0.149904
-0.145892
-0.141531
-0.136833
-0.131816
-0.126497
-0.120897
-0.11504
-0.108952
-0.10266
-0.0961975
-0.0895971
-0.0828963
-0.0761345
-0.0693541
-0.0626
-0.0559193
-0.0493616
-0.0429783
-0.0368225
-0.0309489
-0.0254129
-0.020271
-0.0155798
-0.011396
-0.00777601
-0.00477318
-0.00243508
-0.000838718
-0.000119811
-0.000124016
-0.000857011
-0.00247295
-0.00482563
-0.0078305
-0.0114349
-0.0155821
-0.0202137
-0.0252726
-0.030703
-0.0364507
-0.0424633
-0.0486903
-0.055083
-0.0615954
-0.0681834
-0.0748054
-0.0814222
-0.087997
-0.0944954
-0.100885
-0.107137
-0.113222
-0.119116
-0.124795
-0.130238
-0.135424
-0.140337
-0.144958
-0.149274
-0.15327
-0.156935
-0.160257
-0.163226
-0.165833
-0.168071
-0.169931
-0.171407
-0.172495
-0.173188
-0.173485
-0.17338
-0.172872
-0.171961
-0.170644
-0.168924
-0.166802
-0.164281
-0.161365
-0.15806
-0.154375
-0.150317
-0.145898
-0.141132
-0.136034
-0.130621
-0.124914
-0.118936
-0.112712
-0.106272
-0.0996464
-0.0928704
-0.0859815
-0.0790202
-0.0720303
-0.065058
-0.0581526
-0.0513657
-0.044751
-0.0383646
-0.032264
-0.0265079
-0.021156
-0.0162685
-0.0119057
-0.00812769
-0.00499134
-0.00254752
-0.000877902
-0.000125532
-0.000128815
-0.000889533
-0.00256578
-0.00500502
-0.00811867
-0.0118513
-0.0161431
-0.0209327
-0.0261601
-0.031767
-0.0376964
-0.0438935
-0.0503058
-0.0568826
-0.0635762
-0.070341
-0.0771343
-0.0839157
-0.0906478
-0.0972954
-0.103826
-0.11021
-0.116419
-0.122429
-0.128215
-0.133757
-0.139035
-0.144031
-0.148731
-0.153118
-0.157181
-0.160906
-0.164285
-0.167306
-0.169962
-0.172245
-0.174147
-0.175662
-0.176786
-0.177513
-0.177839
-0.177762
-0.177278
-0.176386
-0.175085
-0.173375
-0.171257
-0.168734
-0.165809
-0.162488
-0.158776
-0.154682
-0.150217
-0.145393
-0.140224
-0.134727
-0.128923
-0.122833
-0.116483
-0.109902
-0.103122
-0.0961765
-0.0891047
-0.0819481
-0.0747515
-0.0675628
-0.060433
-0.053416
-0.0465682
-0.0399484
-0.033617
-0.0276364
-0.0220696
-0.0169807
-0.0124336
-0.00849246
-0.00521796
-0.0026645
-0.000918747
-0.000131517
-0.000133746
-0.000922856
-0.00266075
-0.00518832
-0.00841274
-0.0122756
-0.0167139
-0.0216632
-0.0270604
-0.0328444
-0.0389555
-0.0453365
-0.0519325
-0.0586911
-0.0655626
-0.0725
-0.0794594
-0.0863996
-0.0932823
-0.100072
-0.106736
-0.113243
-0.119567
-0.125683
-0.131567
-0.137198
-0.142558
-0.147629
-0.152397
-0.156848
-0.160968
-0.164747
-0.168176
-0.171243
-0.173942
-0.176266
-0.178207
-0.179759
-0.180918
-0.181678
-0.182036
-0.181987
-0.18153
-0.180662
-0.179382
-0.177689
-0.175584
-0.173068
-0.170144
-0.166815
-0.163088
-0.15897
-0.15447
-0.149599
-0.144372
-0.138803
-0.132913
-0.126723
-0.120257
-0.113545
-0.106618
-0.099511
-0.0922629
-0.084916
-0.0775165
-0.0701138
-0.0627608
-0.0555137
-0.0484313
-0.0415754
-0.0350098
-0.0288002
-0.0230136
-0.0177177
-0.0129809
-0.00887124
-0.00545366
-0.00278637
-0.000961383
-0.000137788
-0.000138823
-0.000957064