/*--------------------------------*- C++ -*----------------------------------*\
| =========                 |                                                 |
| \\      /  F ield         | OpenFOAM: The Open Source CFD Toolbox           |
|  \\    /   O peration     | Version:  2506                                  |
|   \\  /    A nd           | Website:  www.openfoam.com                      |
|    \\/     M anipulation  |                                                 |
\*---------------------------------------------------------------------------*/
FoamFile
{
    version     2.0;
    format      ascii;
    arch        "LSB;label=32;scalar=64";
    class       volScalarField;
    location    "0.575";
    object      Uy;
}
// * * * * * * * * * * * * * * * * * * * * * * * * * * * * * * * * * * * * * //

dimensions      [0 1 -1 0 0 0 0];

internalField   nonuniform List<scalar> 
6400
(
-7.29688e-06
-1.44733e-05
-1.41929e-05
-9.74961e-06
-3.44225e-06
3.52868e-06
1.05488e-05
1.72997e-05
2.3619e-05
2.94248e-05
3.46787e-05
3.93657e-05
4.34846e-05
4.70419e-05
5.00496e-05
5.25224e-05
5.44778e-05
5.59341e-05
5.69109e-05
5.74282e-05
5.75064e-05
5.71662e-05
5.6428e-05
5.53126e-05
5.38403e-05
5.20316e-05
4.99066e-05
4.74854e-05
4.47882e-05
4.18348e-05
3.86451e-05
3.52392e-05
3.16368e-05
2.78581e-05
2.39235e-05
1.98533e-05
1.56683e-05
1.13895e-05
7.03843e-06
2.63686e-06
-1.79288e-06
-6.22803e-06
-1.06453e-05
-1.5021e-05
-1.9331e-05
-2.35505e-05
-2.76544e-05
-3.16174e-05
-3.54136e-05
-3.9017e-05
-4.24016e-05
-4.5541e-05
-4.84093e-05
-5.09803e-05
-5.32286e-05
-5.5129e-05
-5.66569e-05
-5.77886e-05
-5.85014e-05
-5.87733e-05
-5.8584e-05
-5.79145e-05
-5.67474e-05
-5.50672e-05
-5.28602e-05
-5.01155e-05
-4.68248e-05
-4.29835e-05
-3.85913e-05
-3.36542e-05
-2.81873e-05
-2.22201e-05
-1.58068e-05
-9.04503e-06
-2.11457e-06
4.65004e-06
1.06238e-05
1.46108e-05
1.43644e-05
6.87381e-06
-2.98805e-05
-5.15612e-05
-4.41395e-05
-1.91708e-05
1.52338e-05
5.40453e-05
9.4184e-05
0.00013376
0.000171613
0.000207026
0.00023956
0.000268954
0.000295061
0.000317815
0.000337206
0.000353261
0.000366036
0.000375608
0.000382069
0.000385522
0.000386079
0.000383857
0.00037898
0.000371572
0.000361761
0.000349678
0.000335454
0.00031922
0.00030111
0.000281258
0.000259798
0.000236866
0.000212599
0.000187135
0.000160613
0.000133175
0.000104964
7.61247e-05
4.68064e-05
1.71592e-05
-1.26636e-05
-4.25059e-05
-7.22086e-05
-0.00010161
-0.000130546
-0.000158849
-0.00018635
-0.000212879
-0.000238264
-0.000262331
-0.000284907
-0.00030582
-0.000324899
-0.000341974
-0.000356882
-0.00036946
-0.000379553
-0.000387012
-0.000391698
-0.000393478
-0.000392233
-0.000387855
-0.000380252
-0.000369349
-0.000355091
-0.000337446
-0.000316411
-0.000292019
-0.000264349
-0.000233538
-0.000199809
-0.000163502
-0.000125136
-8.55023e-05
-4.58312e-05
-8.06182e-06
2.4718e-05
4.75568e-05
5.26123e-05
2.92239e-05
-5.9468e-05
-9.00015e-05
-6.06095e-05
6.55074e-06
9.60632e-05
0.000197271
0.00030294
0.000408231
0.000509918
0.000605855
0.000694625
0.00077531
0.00084734
0.000910391
0.000964317
0.0010091
0.00104483
0.00107164
0.00108976
0.00109943
0.00110094
0.00109458
0.00108069
0.00105961
0.00103168
0.000997267
0.000956735
0.000910457
0.000858808
0.00080217
0.000740927
0.000675467
0.000606184
0.000533473
0.000457737
0.000379384
0.000298828
0.000216487
0.000132789
4.81684e-05
-3.69344e-05
-0.00012207
-0.000206782
-0.000290606
-0.000373073
-0.000453705
-0.00053202
-0.000607531
-0.000679751
-0.000748189
-0.000812355
-0.000871764
-0.000925934
-0.000974392
-0.00101668
-0.00105234
-0.00108096
-0.00110212
-0.00111543
-0.00112056
-0.00111717
-0.001105
-0.00108381
-0.00105343
-0.00101375
-0.000964746
-0.00090647
-0.000839101
-0.000762961
-0.000678564
-0.000586675
-0.00048841
-0.000385379
-0.000279903
-0.000175351
-7.66463e-05
9.00628e-06
7.1173e-05
9.50227e-05
5.98388e-05
-8.1257e-05
-0.00010456
-3.54119e-05
9.33667e-05
0.000259011
0.000444971
0.00063938
0.000833875
0.0010226
0.00120147
0.00136767
0.00151929
0.00165507
0.00177423
0.00187637
0.00196134
0.00202918
0.00208011
0.00211445
0.00213264
0.00213516
0.00212257
0.00209547
0.00205447
0.00200025
0.00193348
0.00185485
0.00176508
0.00166489
0.00155502
0.00143621
0.00130921
0.00117479
0.00103372
0.000886786
0.000734777
0.000578503
0.000418782
0.000256448
9.23456e-05
-7.26646e-05
-0.000237709
-0.000401899
-0.000564334
-0.000724101
-0.000880276
-0.00103193
-0.00117811
-0.00131789
-0.00145031
-0.00157444
-0.00168935
-0.0017941
-0.00188781
-0.00196958
-0.00203858
-0.00209399
-0.00213503
-0.00216101
-0.00217125
-0.0021652
-0.00214235
-0.00210231
-0.00204479
-0.00196966
-0.00187692
-0.00176678
-0.00163968
-0.00149636
-0.00133794
-0.00116602
-0.000982865
-0.000791621
-0.00059667
-0.000404095
-0.000222376
-6.33109e-05
5.6906e-05
0.000116338
8.39155e-05
-8.71398e-05
-7.97823e-05
4.95966e-05
0.000259251
0.000519783
0.000809132
0.00111089
0.00141307
0.00170695
0.00198623
0.00224643
0.00248439
0.00269795
0.00288572
0.00304688
0.00318104
0.00328818
0.00336851
0.00342248
0.00345068
0.00345383
0.00343278
0.00338843
0.00332175
0.00323379
0.0031256
0.0029983
0.00285302
0.00269091
0.00251316
0.00232097
0.00211555
0.00189813
0.00166997
0.00143234
0.00118652
0.000933831
0.00067559
0.000413153
0.00014789
-0.000118804
-0.000385514
-0.000650803
-0.000913215
-0.00117127
-0.00142349
-0.00166835
-0.00190436
-0.00212999
-0.00234373
-0.00254406
-0.00272951
-0.00289858
-0.00304985
-0.00318193
-0.00329345
-0.00338314
-0.0034498
-0.00349231
-0.00350966
-0.00350097
-0.0034655
-0.00340267
-0.00331212
-0.00319367
-0.00304747
-0.00287394
-0.00267391
-0.00244869
-0.00220021
-0.00193113
-0.00164515
-0.00134724
-0.00104413
-0.00074486
-0.000461598
-0.000210661
-1.36733e-05
0.000100921
9.32331e-05
-7.38991e-05
-7.71674e-06
0.000204967
0.000515769
0.000889745
0.00129997
0.00172585
0.00215188
0.00256646
0.00296098
0.00332911
0.00366631
0.00396936
0.00423612
0.00446523
0.004656
0.00480823
0.00492212
0.00499818
0.00503718
0.0050401
0.00500806
0.00494233
0.00484427
0.00471535
0.00455707
0.00437104
0.00415887
0.00392224
0.00366285
0.00338244
0.00308277
0.00276565
0.0024329
0.00208637
0.00172795
0.00135953
0.000983065
0.000600525
0.000213911
-0.000174744
-0.000563375
-0.000949888
-0.00133216
-0.00170805
-0.00207539
-0.00243199
-0.00277567
-0.00310421
-0.00341544
-0.00370716
-0.00397724
-0.00422354
-0.00444399
-0.00463661
-0.00479945
-0.00493069
-0.00502863
-0.00509169
-0.00511846
-0.00510772
-0.00505846
-0.00496994
-0.00484169
-0.00467359
-0.00446592
-0.00421945
-0.00393548
-0.00361606
-0.00326403
-0.00288333
-0.00247925
-0.00205876
-0.00163108
-0.00120823
-0.000805982
-0.000444861
-0.000151344
4.06059e-05
8.44311e-05
-4.0285e-05
0.000115832
0.00043697
0.000870248
0.00137638
0.00192438
0.00248996
0.00305438
0.0036033
0.00412579
0.00461369
0.00506093
0.00546319
0.00581745
0.00612176
0.00637503
0.00657684
0.00672733
0.00682707
0.00687698
0.00687827
0.0068324
0.00674101
0.00660589
0.00642896
0.00621226
0.00595789
0.00566805
0.00534499
0.00499101
0.00460847
0.00419977
0.00376734
0.00331367
0.00284128
0.00235274
0.00185064
0.00133763
0.000816401
0.000289676
-0.000239776
-0.000769142
-0.00129558
-0.00181619
-0.00232807
-0.00282828
-0.00331385
-0.00378182
-0.00422919
-0.00465302
-0.00505035
-0.00541829
-0.00575397
-0.00605463
-0.00631756
-0.00654019
-0.0067201
-0.00685499
-0.00694281
-0.0069817
-0.00697007
-0.00690664
-0.00679049
-0.00662107
-0.00639835
-0.00612282
-0.00579561
-0.00541864
-0.00499473
-0.00452781
-0.00402318
-0.0034878
-0.00293073
-0.00236363
-0.00180147
-0.00126333
-0.000773518
-0.000362635
-6.903e-05
5.61329e-05
1.39666e-05
0.000292701
0.000748887
0.00132688
0.00198423
0.00268668
0.00340684
0.00412311
0.00481861
0.00548027
0.00609807
0.00666449
0.00717401
0.00762271
0.008008
0.00832834
0.00858306
0.00877219
0.00889634
0.00895657
0.00895436
0.00889147
0.00876996
0.00859206
0.00836021
0.00807699
0.00774509
0.00736731
0.00694656
0.00648579
0.00598804
0.00545642
0.00489409
0.00430425
0.00369018
0.00305521
0.00240271
0.00173612
0.00105891
0.000374632
-0.000313124
-0.00100072
-0.00168445
-0.0023606
-0.00302537
-0.00367498
-0.0043056
-0.00491337
-0.00549447
-0.00604507
-0.00656139
-0.00703968
-0.00747628
-0.00786763
-0.00821028
-0.00850095
-0.00873653
-0.00891414
-0.00903116
-0.00908527
-0.00907449
-0.00899724
-0.00885243
-0.00863948
-0.00835842
-0.00801
-0.00759581
-0.00711837
-0.0065814
-0.00598995
-0.00535072
-0.0046724
-0.00396607
-0.0032458
-0.00252924
-0.00183849
-0.00120112
-0.000651083
-0.000230024
7.97902e-06
8.85623e-05
0.000523194
0.0011419
0.00188759
0.00271561
0.00358924
0.00447855
0.00535951
0.00621299
0.00702393
0.0077806
0.00847404
0.00909759
0.00964642
0.0101173
0.0105081
0.0108181
0.011047
0.0111956
0.0112649
0.0112568
0.0111734
0.0110171
0.0107907
0.010497
0.0101394
0.00972104
0.00924547
0.00871627
0.00813711
0.00751179
0.00684416
0.00613818
0.00539785
0.00462727
0.00383059
0.00301204
0.00217592
0.00132657
0.000468445
-0.000393981
-0.00125615
-0.00211344
-0.0029612
-0.00379471
-0.00460922
-0.00539997
-0.00616216
-0.00689103
-0.00758181
-0.00822979
-0.00883034
-0.00937891
-0.00987108
-0.0103026
-0.0106694
-0.0109677
-0.0111939
-0.0113449
-0.0114177
-0.01141
-0.01132
-0.0111464
-0.0108884
-0.0105464
-0.0101212
-0.00961501
-0.00903095
-0.00837363
-0.00764927
-0.00686597
-0.0060341
-0.0051667
-0.00428005
-0.00339427
-0.00253412
-0.00172986
-0.0010181
-0.000442846
-5.98065e-05
0.00018293
0.000806696
0.00161581
0.00255266
0.00357123
0.00463297
0.00570596
0.00676414
0.00778647
0.00875609
0.00965976
0.0104872
0.0112305
0.0118842
0.0124443
0.0129082
0.0132749
0.013544
0.0137162
0.013793
0.0137763
0.0136684
0.0134725
0.0131916
0.0128293
0.0123895
0.011876
0.0112931
0.0106451
0.00993652
0.00917183
0.00835577
0.00749313
0.00658878
0.00564769
0.00467491
0.00367559
0.00265494
0.00161828
0.000570977
-0.000481498
-0.00153361
-0.00257976
-0.00361428
-0.00463144
-0.0056255
-0.00659065
-0.00752111
-0.00841109
-0.00925483
-0.0100466
-0.0107809
-0.0114521
-0.012055
-0.0125844
-0.0130354
-0.0134035
-0.0136843
-0.0138742
-0.0139697
-0.0139679
-0.0138668
-0.0136649
-0.0133613
-0.0129565
-0.0124517
-0.0118494
-0.0111536
-0.0103696
-0.00950486
-0.00856882
-0.00757344
-0.00653362
-0.00546766
-0.00439786
-0.00335125
-0.00236032
-0.00146371
-0.000707027
-0.000146704
0.000296383
0.00114209
0.00216959
0.00332139
0.00455069
0.00581769
0.00708895
0.0083368
0.00953856
0.0106759
0.0117341
0.0127018
0.0135701
0.0143326
0.0149847
0.0155235
0.0159477
0.0162568
0.0164515
0.0165334
0.0165048
0.0163685
0.0161278
0.0157864
0.0153487
0.0148189
0.0142018
0.0135024
0.0127256
0.0118769
0.0109615
0.00998518
0.00895349
0.00787226
0.0067474
0.0055849
0.00439088
0.00317155
0.00193321
0.000682274
-0.000574781
-0.00183137
-0.00308084
-0.00431646
-0.00553143
-0.00671893
-0.00787209
-0.00898403
-0.0100479
-0.0110569
-0.0120042
-0.0128833
-0.0136876
-0.0144108
-0.015047
-0.0155903
-0.0160353
-0.0163772
-0.0166112
-0.0167337
-0.0167412
-0.0166312
-0.0164021
-0.016053
-0.0155844
-0.0149978
-0.0142962
-0.0134841
-0.0125679
-0.0115559
-0.010459
-0.00929056
-0.00806719
-0.00680901
-0.00554025
-0.00428983
-0.00309206
-0.00198711
-0.00102158
-0.000252067
0.000428208
0.00152802
0.00280173
0.00419237
0.00565282
0.00714246
0.00862674
0.0100767
0.0114684
0.0127822
0.0140022
0.015116
0.0161138
0.0169885
0.017735
0.01835
0.0188319
0.0191802
0.0193957
0.0194801
0.0194361
0.0192668
0.0189761
0.0185682
0.0180481
0.0174208
0.0166917
0.0158666
0.0149514
0.0139522
0.0128753
0.0117273
0.0105147
0.00924436
0.00792308
0.0065579
0.00515595
0.00372449
0.00227086
0.000802548
-0.000672883
-0.00214776
-0.0036143
-0.00506468
-0.00649097
-0.0078852
-0.00923939
-0.0105455
-0.0117956
-0.0129817
-0.014096
-0.0151307
-0.0160783
-0.0169316
-0.0176834
-0.0183271
-0.0188565
-0.0192657
-0.0195496
-0.0197037
-0.0197241
-0.019608
-0.0193534
-0.0189595
-0.0184267
-0.0177568
-0.0169532
-0.016021
-0.0149674
-0.0138018
-0.0125361
-0.0111853
-0.00976728
-0.00830388
-0.00682099
-0.00534913
-0.00392403
-0.00258701
-0.00138529
-0.000375223
0.000577713
0.00196304
0.00351052
0.00516389
0.00687603
0.00860587
0.0103181
0.0119828
0.0135749
0.0150738
0.0164627
0.0177281
0.0188597
0.0198496
0.0206923
0.0213843
0.0219237
0.02231
0.0225442
0.0226282
0.0225649
0.022358
0.0220118
0.0215312
0.0209218
0.0201893
0.0193399
0.0183803
0.0173171
0.0161575
0.0149086
0.013578
0.0121731
0.0107018
0.00917205
0.0075918
0.0059693
0.00431287
0.00263096
0.00093217
-0.000774803
-0.00248114
-0.00417792
-0.00585614
-0.00750669
-0.00912044
-0.0106882
-0.0122008
-0.013649
-0.0150238
-0.0163162
-0.0175172
-0.0186183
-0.0196111
-0.0204875
-0.0212399
-0.0218611
-0.0223445
-0.0226842
-0.0228749
-0.0229124
-0.0227934
-0.0225155
-0.0220779
-0.021481
-0.0207267
-0.0198188
-0.0187631
-0.0175674
-0.0162419
-0.0147999
-0.0132572
-0.0116335
-0.00995169
-0.00823924
-0.006528
-0.00485486
-0.00326195
-0.00179686
-0.000515523
0.000744261
0.00244576
0.00429417
0.00623406
0.00821853
0.0102063
0.0121615
0.0140536
0.0158567
0.0175494
0.019114
0.0205365
0.0218059
0.0229138
0.0238543
0.0246237
0.02522
0.0256429
0.0258934
0.0259736
0.025887
0.0256376
0.0252303
0.0246707
0.0239649
0.0231196
0.0221418
0.0210389
0.0198185
0.0184887
0.0170576
0.0155337
0.0139256
0.0122421
0.0104922
0.00868497
0.0068298
0.0049361
0.00301348
0.00107166
-0.000879474
-0.00282993
-0.00476958
-0.00668822
-0.00857553
-0.0104212
-0.0122147
-0.0139457
-0.0156037
-0.0171786
-0.01866
-0.0200379
-0.0213026
-0.0224444
-0.0234544
-0.0243239
-0.0250446
-0.0256091
-0.0260108
-0.0262436
-0.0263027
-0.0261843
-0.0258858
-0.0254061
-0.0247455
-0.0239062
-0.0228922
-0.0217097
-0.0203673
-0.018876
-0.0172499
-0.0155061
-0.0136652
-0.0117517
-0.00979399
-0.00782519
-0.00588309
-0.00401046
-0.00225506
-0.000672379
0.000927279
0.00297487
0.00515096
0.00740102
0.00967844
0.0119419
0.0141554
0.0162877
0.0183125
0.0202076
0.021955
0.0235399
0.0249509
0.0261793
0.027219
0.0280661
0.0287185
0.0291761
0.0294402
0.0295132
0.0293988
0.0291018
0.0286277
0.0279827
0.0271736
0.0262079
0.0250935
0.0238387
0.022452
0.0209424
0.0193192
0.0175917
0.0157697
0.013863
0.0118818
0.00983617
0.00773668
0.0055939
0.00341859
0.00122168
-0.000985766
-0.00319252
-0.00538724
-0.00755847
-0.00969464
-0.0117841
-0.0138152
-0.0157763
-0.0176557
-0.0194417
-0.021123
-0.0226883
-0.0241266
-0.0254273
-0.0265799
-0.027575
-0.0284031
-0.0290561
-0.0295262
-0.0298068
-0.0298924
-0.0297786
-0.0294624
-0.0289425
-0.0282191
-0.0272945
-0.0261727
-0.0248605
-0.023367
-0.0217038
-0.019886
-0.0179315
-0.015862
-0.0137031
-0.0114842
-0.00923946
-0.00700734
-0.00483115
-0.00275878
-0.000845282
0.00112627
0.00354919
0.00607933
0.00866299
0.011254
0.0138111
0.0162981
0.0186836
0.0209408
0.0230473
0.0249843
0.026737
0.0282934
0.0296448
0.0307848
0.0317095
0.0324171
0.0329074
0.0331821
0.0332441
0.0330976
0.0327478
0.032201
0.031464
0.0305446
0.0294509
0.0281918
0.0267765
0.0252145
0.0235159
0.0216907
0.0197497
0.0177034
0.015563
0.0133396
0.0110445
0.00868946
0.0062862
0.00384666
0.00138301
-0.00109247
-0.00356732
-0.00602891
-0.00846453
-0.0108613
-0.0132064
-0.0154867
-0.0176893
-0.0198012
-0.0218095
-0.0237015
-0.0254647
-0.0270868
-0.0285558
-0.0298605
-0.0309898
-0.0319336
-0.0326825
-0.0332279
-0.0335623
-0.0336796
-0.0335747
-0.0332442
-0.0326864
-0.0319013
-0.0308911
-0.0296602
-0.0282155
-0.0265664
-0.0247254
-0.022708
-0.0205332
-0.0182235
-0.0158053
-0.0133091
-0.0107697
-0.00822641
-0.00572285
-0.00330709
-0.00103381
0.00134081
0.0041677
0.00707787
0.0100184
0.0129435
0.0158121
0.0185881
0.0212399
0.0237404
0.026067
0.0282008
0.0301266
0.0318322
0.0333089
0.0345503
0.0355525
0.036314
0.0368349
0.0371172
0.0371643
0.036981
0.0365731
0.0359475
0.035112
0.0340751
0.0328459
0.031434
0.0298498
0.0281037
0.0262067
0.0241702
0.0220058
0.0197252
0.0173407
0.0148646
0.0123094
0.00968791
0.00701313
0.00429822
0.00155655
-0.00119832
-0.00395267
-0.00669261
-0.0094041
-0.012073
-0.014685
-0.0172259
-0.0196813
-0.022037
-0.0242785
-0.026392
-0.0283636
-0.0301796
-0.031827
-0.033293
-0.0345656
-0.0356334
-0.0364859
-0.0371137
-0.0375084
-0.0376629
-0.0375715
-0.0372303
-0.0366371
-0.0357917
-0.0346962
-0.0333549
-0.0317749
-0.029966
-0.0279411
-0.0257164
-0.0233114
-0.0207495
-0.018058
-0.015268
-0.0124152
-0.00953937
-0.00668466
-0.00389924
-0.00123763
0.00157056
0.00482954
0.0081454
0.0114658
0.0147455
0.0179437
0.0210241
0.0239553
0.0267102
0.0292659
0.0316035
0.0337076
0.0355662
0.0371705
0.0385142
0.0395938
0.0404079
0.040957
0.0412437
0.0412718
0.0410469
0.0405754
0.0398651
0.0389244
0.0377629
0.0363905
0.0348179
0.0330563
0.0311173
0.029013
0.0267558
0.0243584
0.0218338
0.0191952
0.0164562
0.0136305
0.010732
0.00777502
0.00477392
0.00174332
-0.00130195
-0.0043469
-0.00737634
-0.0103749
-0.0133271
-0.0162174
-0.0190301
-0.0217494
-0.0243598
-0.0268456
-0.0291913
-0.0313818
-0.0334021
-0.0352377
-0.0368746
-0.0382996
-0.0395001
-0.0404645
-0.0411821
-0.0416437
-0.0418412
-0.0417684
-0.0414204
-0.0407947
-0.0398907
-0.0387101
-0.0372573
-0.0355394
-0.0335663
-0.0313515
-0.0289114
-0.0262663
-0.0234402
-0.020461
-0.0173607
-0.0141754
-0.0109456
-0.00771592
-0.00453473
-0.00145651
0.00181523
0.00553403
0.00928093
0.0130042
0.0166589
0.0202045
0.0236049
0.0268288
0.0298491
0.032643
0.0351914
0.0374793
0.0394946
0.0412288
0.0426757
0.0438323
0.0446975
0.0452724
0.0455601
0.0455651
0.0452936
0.044753
0.0439517
0.0428992
0.0416058
0.0400826
0.0383413
0.0363941
0.0342536
0.0319331
0.0294461
0.0268064
0.0240281
0.0211257
0.0181138
0.0150075
0.0118218
0.00857231
0.00527456
0.00194445
-0.00140193
-0.00474827
-0.00807807
-0.0113747
-0.0146212
-0.0178007
-0.0208962
-0.0238906
-0.0267667
-0.0295075
-0.0320963
-0.0345163
-0.0367512
-0.0387852
-0.040603
-0.0421898
-0.0435319
-0.0446164
-0.0454317
-0.0459672
-0.046214
-0.0461649
-0.0458144
-0.0451593
-0.0441985
-0.0429334
-0.0413682
-0.0395098
-0.0373684
-0.0349575
-0.032294
-0.0293987
-0.0262961
-0.0230147
-0.019587
-0.0160501
-0.0124448
-0.00881629
-0.00521323
-0.00169031
0.00207462
0.00628063
0.0104837
0.0146326
0.0186826
0.0225936
0.0263296
0.0298595
0.0331563
0.0361974
0.0389639
0.0414409
0.0436167
0.0454828
0.0470339
0.0482671
0.0491818
0.04978
0.0500651
0.0500427
0.0497197
0.0491042
0.0482056
0.0470345
0.0456021
0.0439206
0.0420025
0.0398614
0.037511
0.0349655
0.0322396
0.0293484
0.0263071
0.0231314
0.0198371
0.0164404
0.0129577
0.00940558
0.00580102
0.00216112
-0.00149674
-0.00515495
-0.00879571
-0.012401
-0.0159526
-0.0194323
-0.0228215
-0.0261017
-0.0292545
-0.0322613
-0.0351039
-0.0377641
-0.0402242
-0.0424669
-0.0444755
-0.0462338
-0.0477268
-0.0489402
-0.0498611
-0.0504778
-0.0507805
-0.0507608
-0.0504125
-0.0497314
-0.048716
-0.0473671
-0.0456886
-0.0436873
-0.0413734
-0.0387603
-0.0358654
-0.0327096
-0.029318
-0.0257196
-0.0219477
-0.0180396
-0.0140371
-0.00998574
-0.00593467
-0.00193896
0.00234859
0.00706896
0.0117532
0.0163503
0.0208161
0.0251103
0.0291976
0.0330468
0.0366313
0.0399286
0.0429204
0.0455918
0.0479317
0.0499321
0.051588
0.0528972
0.0538598
0.0544785
0.0547575
0.0547033
0.0543234
0.0536273
0.0526252
0.0513286
0.04975
0.0479024
0.0457998
0.0434565
0.0408877
0.0381086
0.0351352
0.0319835
0.0286701
0.0252119
0.0216258
0.0179292
0.0141398
0.0102754
0.00635426
0.00239463
-0.00158477
-0.00556505
-0.00952709
-0.0134515
-0.0173188
-0.0211092
-0.0248028
-0.0283797
-0.03182
-0.0351037
-0.038211
-0.0411222
-0.0438182
-0.0462801
-0.0484897
-0.0504295
-0.0520828
-0.0534341
-0.0544691
-0.0551749
-0.0555404
-0.0555561
-0.0552148
-0.0545115
-0.0534439
-0.0520123
-0.05022
-0.0480735
-0.0455828
-0.0427615
-0.0396269
-0.0362003
-0.0325071
-0.0285769
-0.0244434
-0.0201447
-0.015723
-0.0112245
-0.00669919
-0.00220251
0.00263706
0.00789882
0.0130891
0.0181571
0.0230587
0.0277542
0.0322083
0.0363901
0.0402735
0.0438363
0.0470604
0.0499316
0.0524392
0.0545758
0.0563372
0.0577218
0.0587305
0.0593668
0.059636
0.0595453
0.0591034
0.0583207
0.0572086
0.0557797
0.0540475
0.0520263
0.0497312
0.0471777
0.0443822
0.041361
0.0381313
0.0347105
0.0311162
0.0273665
0.0234795
0.019474
0.0153686
0.0111826
0.0069353
0.00264634
-0.00166435
-0.00597658
-0.0102699
-0.0145236
-0.0187169
-0.0228284
-0.0268371
-0.0307215
-0.03446
-0.0380314
-0.0414143
-0.0445875
-0.0475302
-0.050222
-0.0526431
-0.0547745
-0.056598
-0.0580966
-0.0592546
-0.0600575
-0.0604931
-0.0605506
-0.0602217
-0.0595003
-0.0583833
-0.0568702
-0.0549637
-0.0526699
-0.0499985
-0.0469629
-0.0435805
-0.0398727
-0.0358652
-0.0315881
-0.0270755
-0.0223663
-0.0175032
-0.0125333
-0.00750712
-0.00248106
0.00293999
0.0087701
0.0144912
0.0200526
0.0254105
0.0305251
0.0353616
0.0398894
0.0440828
0.04792
0.0513836
0.0544598
0.0571387
0.0594135
0.0612808
0.06274
0.0637929
0.0644438
0.0646992
0.0645673
0.0640579
0.0631826
0.061954
0.0603858
0.0584927
0.0562903
0.0537948
0.0510231
0.0479926
0.0447211
0.0412268
0.0375283
0.0336444
0.0295945
0.025398
0.0210746
0.0166444
0.0121277
0.00754519
0.00291764
-0.00173372
-0.00638744
-0.0110218
-0.0156147
-0.0201439
-0.0245869
-0.028921
-0.0331234
-0.037171
-0.0410409
-0.0447103
-0.0481564
-0.0513567
-0.0542893
-0.0569327
-0.0592663
-0.0612702
-0.0629259
-0.0642159
-0.0651247
-0.065638
-0.0657442
-0.0654333
-0.0646985
-0.0635352
-0.0619422
-0.0599215
-0.0574785
-0.0546225
-0.0513667
-0.0477283
-0.0437289
-0.0393944
-0.0347551
-0.0298458
-0.0247059
-0.019379
-0.0139129
-0.00835903
-0.00277481
0.00325742
0.00968287
0.0159597
0.0220371
0.0278713
0.0334231
0.0386575
0.0435447
0.0480592
0.0521799
0.0558899
0.0591762
0.0620297
0.0644446
0.0664182
0.0679509
0.0690458
0.0697082
0.0699456
0.0697675
0.0691852
0.0682111
0.0668593
0.0651447
0.0630834
0.0606921
0.0579885
0.0549906
0.0517171
0.048187
0.0444198
0.0404353
0.0362537
0.0318952
0.0273807
0.022731
0.0179674
0.0131115
0.00818498
0.00320999
-0.00179106
-0.00679544
-0.0117801
-0.0167218
-0.0215968
-0.0263813
-0.031051
-0.0355818
-0.0399491
-0.0441284
-0.0480952
-0.0518252
-0.0552943
-0.0584787
-0.0613554
-0.063902
-0.0660968
-0.0679197
-0.0693516
-0.070375
-0.0709745
-0.0711365
-0.07085
-0.0701065
-0.0689006
-0.0672297
-0.065095
-0.0625013
-0.0594571
-0.0559753
-0.0520729
-0.0477715
-0.043097
-0.0380802
-0.0327563
-0.0271654
-0.0213519
-0.0153645
-0.00925566
-0.00308403
0.00358941
0.0106373
0.0174947
0.0241107
0.0304417
0.0364484
0.0420964
0.0473562
0.0522028
0.0566158
0.0605791
0.0640806
0.0671119
0.0696684
0.0717484
0.0733535
0.074488
0.0751583
0.0753735
0.0751442
0.074483
0.0734038
0.071922
0.070054
0.067817
0.0652293
0.0623098
0.0590778
0.0555533
0.0517567
0.0477086
0.0434302
0.0389426
0.0342676
0.0294271
0.024443
0.0193379
0.0141345
0.00885572
0.00352485
-0.00183446
-0.00719828
-0.0125423
-0.0178419
-0.0230722
-0.0282078
-0.0332232
-0.0380926
-0.04279
-0.0472894
-0.0515646
-0.0555897
-0.0593387
-0.0627863
-0.0659076
-0.0686782
-0.0710749
-0.0730756
-0.0746593
-0.075807
-0.0765013
-0.0767271
-0.0764716
-0.0757251
-0.0744805
-0.0727342
-0.0704863
-0.0677405
-0.0645049
-0.0607915
-0.0566172
-0.0520033
-0.046976
-0.0415662
-0.0358097
-0.0297471
-0.0234239
-0.0168896
-0.010198
-0.00340908
0.00393607
0.0116337
0.0190967
0.0262741
0.0331221
0.0396017
0.0456788
0.0513243
0.056514
0.0612281
0.0654514
0.0691728
0.0723849
0.0750843
0.0772706
0.0789466
0.0801179
0.0807926
0.0809808
0.080695
0.0799489
0.0787582
0.0771395
0.0751107
0.0726906
0.0698989
0.0667557
0.0632818
0.0594986
0.0554276
0.0510909
0.0465107
0.0417097
0.0367105
0.0315362
0.0262102
0.0207559
0.0151973
0.00955839
0.0038637
-0.001862
-0.00759356
-0.0133055
-0.0189718
-0.0245664
-0.0300625
-0.0354332
-0.0406513
-0.0456892
-0.0505193
-0.0551139
-0.0594451
-0.0634855
-0.0672077
-0.0705849
-0.0735911
-0.076201
-0.0783905
-0.0801367
-0.0814186
-0.082217
-0.082515
-0.082298
-0.0815544
-0.0802758
-0.0784571
-0.0760971
-0.0731985
-0.0697683
-0.0658182
-0.0613642
-0.0564276
-0.0510346
-0.0452162
-0.0390088
-0.0324537
-0.0255971
-0.0184899
-0.0111871
-0.00375036
0.00429758
0.0126724
0.0207663
0.0285278
0.0359132
0.0428837
0.0494054
0.0554498
0.0609933
0.0660171
0.0705068
0.0744525
0.0778482
0.0806915
0.0829835
0.0847286
0.0859338
0.0866088
0.0867653
0.0864172
0.08558
0.084271
0.0825083
0.0803115
0.0777007
0.0746972
0.0713227
0.0675993
0.0635496
0.0591968
0.054564
0.0496747
0.0445528
0.0392222
0.033707
0.0280318
0.0222212
0.0163002
0.0102939
0.00422797
-0.00187168
-0.00797876
-0.0140666
-0.020108
-0.0260755
-0.0319411
-0.0376765
-0.043253
-0.0486415
-0.0538129
-0.0587376
-0.0633862
-0.0677293
-0.0717377
-0.0753828
-0.0786363
-0.081471
-0.0838607
-0.0857806
-0.0872074
-0.0881198
-0.0884989
-0.0883283
-0.0875944
-0.0862871
-0.0843996
-0.0819293
-0.0788775
-0.0752504
-0.0710584
-0.0663174
-0.061048
-0.0552764
-0.0490338
-0.0423571
-0.0352881
-0.0278742
-0.0201674
-0.0122244
-0.00410837
0.00467412
0.013754
0.0225042
0.0308728
0.0388161
0.0462953
0.053277
0.0597333
0.0656412
0.070983
0.0757454
0.0799196
0.0835011
0.086489
0.088886
0.0906979
0.0919337
0.0926044
0.0927239
0.0923076
0.0913729
0.0899386
0.0880246
0.0856522
0.0828432
0.0796203
0.0760068
0.0720263
0.0677028
0.0630607
0.0581245
0.0529192
0.0474695
0.0418007
0.035938
0.029907
0.0237335
0.0174434
0.011063
0.00461909
-0.0018615
-0.00835129
-0.0148225
-0.0212467
-0.0275953
-0.033839
-0.039948
-0.0458923
-0.0516413
-0.0571641
-0.0624297
-0.0674068
-0.0720641
-0.0763706
-0.0802954
-0.0838084
-0.08688
-0.089482
-0.0915871
-0.09317
-0.0942071
-0.0946771
-0.0945616
-0.0938449
-0.0925148
-0.0905628
-0.0879845
-0.08478
-0.0809538
-0.0765156
-0.0714804
-0.0658683
-0.0597054
-0.0530229
-0.0458581
-0.0382538
-0.0302581
-0.0219245
-0.0133112
-0.00448365
0.00506593
0.0148791
0.0243112
0.0333102
0.0418319
0.0498378
0.0572949
0.0641758
0.0704585
0.0761264
0.0811672
0.0855739
0.0893431
0.0924758
0.0949763
0.0968525
0.0981148
0.0987766
0.0988533
0.0983625
0.0973234
0.0957565
0.0936838
0.0911282
0.0881132
0.0846633
0.0808032
0.0765581
0.0719535
0.0670151
0.0617688
0.0562407
0.0504568
0.0444435
0.0382272
0.0318344
0.025292
0.0186269
0.0118665
0.00503837
-0.00182942
-0.00870845
-0.0155698
-0.022384
-0.0291213
-0.035751
-0.0422421
-0.0485632
-0.0546821
-0.0605665
-0.0661836
-0.0715002
-0.0764832
-0.0810996
-0.0853164
-0.0891012
-0.0924223
-0.095249
-0.0975517
-0.0993025
-0.100476
-0.101047
-0.100996
-0.100305
-0.0989588
-0.0969475
-0.0942644
-0.090908
-0.0868814
-0.0821931
-0.0768569
-0.0708926
-0.0643257
-0.0571877
-0.0495161
-0.0413544
-0.032752
-0.0237637
-0.0144494
-0.00487682
0.00547329
0.0160483
0.0261885
0.0358412
0.044962
0.0535125
0.0614602
0.0687784
0.0754461
0.0814476
0.0867725
0.0914148
0.0953732
0.0986503
0.101253
0.10319
0.104474
0.105122
0.10515
0.104577
0.103427
0.10172
0.0994805
0.0967338
0.0935051
0.0898204
0.0857062
0.0811892
0.0762965
0.071055
0.0654921
0.059635
0.0535111
0.0471476
0.0405721
0.0338122
0.0268956
0.0198504
0.0127046
0.00548705
-0.00177345
-0.00904745
-0.016305
-0.0235157
-0.0306484
-0.0376715
-0.0445527
-0.051259
-0.0577571
-0.0640127
-0.0699915
-0.0756586
-0.0809789
-0.0859171
-0.0904383
-0.0945078
-0.0980913
-0.101156
-0.103669
-0.1056
-0.106921
-0.107605
-0.10763
-0.106973
-0.105619
-0.103554
-0.10077
-0.0972638
-0.0930361
-0.0880942
-0.082451
-0.0761252
-0.0691419
-0.0615327
-0.0533353
-0.0445941
-0.0353594
-0.0256877
-0.0156407
-0.00528858
0.00589651
0.0172626
0.0281372
0.0384672
0.0482078
0.0573209
0.0657744
0.0735423
0.0806047
0.0869473
0.092561
0.0974418
0.10159
0.105011
0.107712
0.109707
0.111008
0.111636
0.111608
0.110947
0.109677
0.107822
0.105408
0.102463
0.0990122
0.095085
0.0907093
0.0859133
0.0807256
0.0751747
0.0692891
0.0630974
0.0566279
0.0499092
0.0429698
0.0358382
0.028543
0.0211132
0.0135778
0.00596623
-0.00169163
-0.00936549
-0.0170245
-0.0246372
-0.0321715
-0.0395947
-0.0468731
-0.0539726
-0.0608583
-0.0674945
-0.0738451
-0.0798734
-0.0855423
-0.0908145
-0.0956527
-0.10002
-0.103879
-0.107195
-0.109932
-0.112057
-0.113539
-0.114348
-0.114459
-0.113847
-0.112493
-0.110382
-0.107503
-0.103849
-0.0994206
-0.0942226
-0.0882666
-0.0815705
-0.0741588
-0.0660628
-0.0573206
-0.0479772
-0.0380841
-0.0276995
-0.0168872
-0.00571966
0.00633594
0.0185227
0.0301587
0.0411898
0.0515712
0.0612648
0.070239
0.0784688
0.0859354
0.0926258
0.0985328
0.103654
0.107993
0.111555
0.114353
0.1164
0.117713
0.118313
0.118223
0.117466
0.116068
0.114057
0.11146
0.108307
0.104627
0.100449
0.0958048
0.0907228
0.0852336
0.0793672
0.0731534
0.0666218
0.0598022
0.052724
0.0454166
0.0379095
0.0302322
0.0224144
0.0144858
0.00647682
-0.00158204
-0.00965966
-0.0177244
-0.0257438
-0.0336849
-0.0415139
-0.0491961
-0.056696
-0.0639773
-0.0710029
-0.077735
-0.0841349
-0.0901637
-0.0957818
-0.10095
-0.105628
-0.109776
-0.113357
-0.116333
-0.118666
-0.120323
-0.12127
-0.12148
-0.120924
-0.119581
-0.117432
-0.114463
-0.110665
-0.106037
-0.100581
-0.0943078
-0.0872332
-0.0793813
-0.0707831
-0.0614769
-0.0515084
-0.0409304
-0.0298026
-0.018191
-0.00617087
0.00679196
0.0198297
0.0322543
0.0440108
0.055054
0.0653461
0.0748559
0.0835593
0.091439
0.0984836
0.104688
0.110051
0.114579
0.118281
0.121171
0.123265
0.124583
0.125149
0.124988
0.124126
0.122592
0.120415
0.117627
0.114258
0.11034
0.105905
0.100984
0.0956091
0.0898123
0.0836247
0.0770775
0.0702017
0.0630279
0.0555866
0.0479081
0.0400228
0.0319607
0.0237524
0.0154284
0.00701953
-0.00144289
-0.00992708
-0.0184006
-0.0268304
-0.0351826
-0.0434222
-0.0515137
-0.0594204
-0.0671047
-0.0745278
-0.0816505
-0.0884322
-0.0948319
-0.100808
-0.106318
-0.111321
-0.115773
-0.119634
-0.122862
-0.125419
-0.127265
-0.128365
-0.128687
-0.1282
-0.126879
-0.124701
-0.12165
-0.117714
-0.112888
-0.107174
-0.100579
-0.0931179
-0.0848145
-0.0756989
-0.0658096
-0.0551927
-0.0439025
-0.0320003
-0.0195544
-0.00664311
0.00726501
0.0211848
0.0344258
0.0469321
0.0586584
0.0695667
0.0796267
0.0888154
0.0971165
0.104521
0.111025
0.116631
0.121347
0.125186
0.128162
0.130297
0.131613
0.132136
0.131895
0.130919
0.129239
0.126889
0.1239
0.120306
0.116142
0.111441
0.106236
0.100562
0.094452
0.0879381
0.0810531
0.0738292
0.066298
0.0584909
0.0504391
0.0421737
0.0337254
0.0251254
0.0164047
0.00759479
-0.00127252
-0.0101649
-0.0190492
-0.0278918
-0.036658
-0.0453121