/*--------------------------------*- C++ -*----------------------------------*\
| =========                 |                                                 |
| \\      /  F ield         | OpenFOAM: The Open Source CFD Toolbox           |
|  \\    /   O peration     | Version:  2506                                  |
|   \\  /    A nd           | Website:  www.openfoam.com                      |
|    \\/     M anipulation  |                                                 |
\*---------------------------------------------------------------------------*/
FoamFile
{
    version     2.0;
    format      ascii;
    arch        "LSB;label=32;scalar=64";
    class       volScalarField;
    location    "0.12";
    object      p;
}
// * * * * * * * * * * * * * * * * * * * * * * * * * * * * * * * * * * * * * //

dimensions      [0 2 -2 0 0 0 0];

internalField   nonuniform List<scalar> 
1600
(
3.7457e-07
-0.00117864
-0.00388547
-0.00753
-0.0114448
-0.0151359
-0.0182471
-0.020527
-0.0218092
-0.0219942
-0.0210368
-0.0189349
-0.0157219
-0.0114605
-0.00623761
-0.000160545
0.00664634
0.0140443
0.0218829
0.0300019
0.0382339
0.0464071
0.0543478
0.061884
0.0688489
0.0750847
0.0804475
0.0848116
0.0880757
0.0901685
0.0910552
0.0907442
0.0892955
0.0868292
0.0835376
0.079698
0.0756888
0.0720161
0.0693449
0.0682341
0.00118874
8.55092e-06
-0.00218889
-0.00501706
-0.00803538
-0.0108802
-0.0132683
-0.0149875
-0.0158883
-0.0158755
-0.014899
-0.0129475
-0.0100417
-0.00622973
-0.00158236
0.00381005
0.00984081
0.0163895
0.0233244
0.0305049
0.0377836
0.045009
0.0520287
0.0586921
0.0648542
0.0703788
0.0751428
0.079041
0.0819906
0.0839367
0.0848574
0.0847694
0.0837342
0.0818641
0.0793287
0.0763606
0.0732601
0.0704016
0.0682306
0.0671254
0.00392429
0.00220925
-2.07307e-05
-0.00256022
-0.00516783
-0.00757515
-0.00955973
-0.0109508
-0.0116231
-0.0114936
-0.0105163
-0.00867819
-0.00599451
-0.00250496
0.00172971
0.00663082
0.0121044
0.0180434
0.0243302
0.0308384
0.0374357
0.0439857
0.0503515
0.0563978
0.0619945
0.0670202
0.0713657
0.0749386
0.0776672
0.0795051
0.0804357
0.0804766
0.0796838
0.0781555
0.076035
0.0735122
0.0708259
0.0682565
0.0660615
0.0644519
0.00767158
0.00507671
0.00245318
-0.000156886
-0.00269223
-0.00495425
-0.00676949
-0.0080068
-0.00856838
-0.00838776
-0.00742838
-0.00568091
-0.00316023
9.74487e-05
0.00403732
0.00858834
0.0136653
0.0191709
0.0249977
0.0310302
0.0371471
0.0432232
0.0491324
0.0547503
0.0599568
0.0646401
0.0686995
0.0720497
0.0746244
0.07638
0.0772997
0.0773967
0.076717
0.0753419
0.0733876
0.0710051
0.068386
0.0657443
0.063167
0.0607106
0.0118388
0.008221
0.00503213
0.00217061
-0.000467826
-0.00274013
-0.00451444
-0.00569652
-0.00621556
-0.00602337
-0.0050951
-0.00342791
-0.00103892
0.00203664
0.00574741
0.0100276
0.0147985
0.0199705
0.0254443
0.0311133
0.0368647
0.0425824
0.0481486
0.0534468
0.0583644
0.062796
0.0666463
0.0698338
0.072294
0.0739832
0.074881
0.0749934
0.0743545
0.0730276
0.0711029
0.0686968
0.065962
0.0630612
0.0599241
0.0564715
0.016004
0.0113204
0.00747393
0.004244
0.00138089
-0.00101485
-0.00284471
-0.00404695
-0.00457592
-0.00440165
-0.00351193
-0.00191184
0.000377417
0.00331963
0.00686483
0.0109504
0.0155023
0.0204365
0.0256601
0.031073
0.0365692
0.0420392
0.0473712
0.0524542
0.0571806
0.0614484
0.065165
0.0682497
0.0706373
0.0722809
0.0731543
0.0732546
0.0726031
0.0712453
0.0692481
0.0666979
0.0637181
0.0604333
0.0566367
0.0521376
0.0198602
0.0141155
0.0095649
0.00589087
0.00271876
0.000117992
-0.00183864
-0.00311694
-0.00369384
-0.00355655
-0.00270552
-0.00115448
0.00107006
0.00392938
0.0073732
0.0113404
0.0157599
0.0205514
0.0256264
0.0308897
0.0362399
0.0415717
0.0467775
0.0517496
0.0563824
0.0605754
0.0642357
0.0672811
0.0696431
0.0712693
0.072126
0.0722001
0.0714996
0.0700537
0.0679085
0.0651263
0.0618089
0.0580557
0.0535441
0.0479936
0.0231765
0.016394
0.0111211
0.00695935
0.00342574
0.000567386
-0.00156239
-0.00295244
-0.00359949
-0.00350649
-0.00268602
-0.00116074
0.00103683
0.00386438
0.00727013
0.0111931
0.0155635
0.0203034
0.0253273
0.0305426
0.0358511
0.04115
0.0463337
0.0512957
0.0559306
0.0601369
0.0638194
0.066892
0.0692806
0.0709258
0.0717848
0.0718332
0.0710662
0.0694974
0.0671554
0.0640829
0.0603673
0.0560926
0.0508369
0.0442465
0.025772
0.0179777
0.0119791
0.00730684
0.00338193
0.000235528
-0.00209366
-0.00361383
-0.00433899
-0.00428629
-0.0034798
-0.00195102
0.000261101
0.00310997
0.00654137
0.0104934
0.0148964
0.0196735
0.0247405
0.0300066
0.0353748
0.0407434
0.0460071
0.0510588
0.0557914
0.0601004
0.0638863
0.0670574
0.069532
0.071242
0.0721341
0.0721722
0.0713382
0.0696317
0.0670658
0.0636678
0.0595163
0.0546867
0.0486702
0.0410507
0.0274973
0.0187121
0.0119896
0.00679688
0.00246625
-0.000982466
-0.00352165
-0.00517597
-0.00597467
-0.00594783
-0.00513033
-0.00356235
-0.00128949
0.00163691
0.0051595
0.00921455
0.0137318
0.0186341
0.0238377
0.029252
0.0347804
0.0403207
0.0457666
0.0510086
0.0559366
0.0604413
0.0644171
0.0677646
0.0703932
0.0722243
0.0731928
0.07325
0.0723646
0.0705227
0.0677236
0.0639823
0.0593725
0.0539666
0.0471759
0.0385286
0.02822
0.018456
0.0110127
0.00529677
0.000556572
-0.00319657
-0.00594376
-0.00772413
-0.00858066
-0.00855544
-0.00769367
-0.00604408
-0.00365906
-0.000595047
0.00308695
0.00732079
0.0120347
0.0171506
0.0225843
0.0282446
0.034034
0.0398488
0.0455805
0.0511163
0.0563411
0.0611395
0.0653982
0.0690085
0.071869
0.0738889
0.0749903
0.0751106
0.0742046
0.072245
0.0692187
0.0651299
0.0600504
0.0540531
0.0464733
0.0367859
0.027815
0.0170746
0.00891187
0.00267419
-0.00247203
-0.00652236
-0.00946518
-0.0113529
-0.0122414
-0.0121843
-0.0112368
-0.0094563
-0.00690201
-0.00363582
0.000277229
0.00476807
0.00976287
0.0151822
0.0209406
0.0269456
0.0330981
0.0392924
0.0454164
0.051353
0.0569812
0.062178
0.0668207
0.0707898
0.0739714
0.0762608
0.0775653
0.0778073
0.0769266
0.0748822
0.0716482
0.0672192
0.0616667
0.0550666
0.0466781
0.0359236
0.026157
0.0144329
0.00554927
-0.0012063
-0.0067495
-0.0110821
-0.0141992
-0.016166
-0.017051
-0.0169194
-0.0158366
-0.0138685
-0.0110817
-0.00754372
-0.00332396
0.00150527
0.00686771
0.0126822
0.0188616
0.0253119
0.031932
0.0386132
0.0452398
0.0516893
0.0578336
0.0635412
0.0686787
0.0731137
0.0767183
0.0793718
0.080965
0.081403
0.0806093
0.0785276
0.0751188
0.0703673
0.0643455
0.0571328
0.0479106
0.0360467
0.0231148
0.0103911
0.000781664
-0.00648649
-0.0124131
-0.0170063
-0.0202678
-0.022276
-0.0231127
-0.0228548
-0.0215783
-0.0193584
-0.0162691
-0.012384
-0.00777719
-0.00252449
0.00329534
0.00959918
0.0162982
0.0232968
0.0304915
0.0377708
0.0450146
0.0520946
0.0588752
0.0652149
0.0709683
0.075989
0.0801327
0.0832607
0.0852446
0.0859703
0.085342
0.0832863
0.0797491
0.0747036
0.0682224
0.0603892
0.0503022
0.0372721
0.0185477
0.00479978
-0.0055435
-0.0133177
-0.0196099
-0.0244351
-0.0278025
-0.0298049
-0.0305383
-0.0300923
-0.0285545
-0.0260098
-0.0225406
-0.0182268
-0.0131475
-0.00738198
-0.00101163
0.00587863
0.0131985
0.0208509
0.0287304
0.0367224
0.0447028
0.0525371
0.0600818
0.0671846
0.0736872
0.0794271
0.0842416
0.0879719
0.0904673
0.0915912
0.0912257
0.089277
0.0856728
0.0803734
0.0734501
0.0649902
0.0540021
0.0397349
0.0123017
-0.00250341
-0.0135917
-0.0218639
-0.0284989
-0.03352
-0.0369454
-0.0388841
-0.0394478
-0.0387408
-0.0368633
-0.0339115
-0.0299765
-0.0251452
-0.0195019
-0.0131296
-0.0061119
0.00146485
0.00950938
0.0179236
0.0266007
0.0354238
0.0442648
0.0529837
0.0614284
0.0694359
0.0768333
0.083441
0.0890758
0.0935555
0.0967042
0.0983585
0.0983746
0.0966338
0.093042
0.0875422
0.080203
0.0711133
0.0591829
0.0435946
0.00420606
-0.0116976
-0.0235451
-0.0323051
-0.0392542
-0.0444261
-0.0478503
-0.0496544
-0.0499688
-0.0489146
-0.0466068
-0.0431541
-0.0386576
-0.0332119
-0.0269067
-0.0198284
-0.0120625
-0.00369629
0.00517898
0.0144652
0.0240553
0.0338309
0.0436611
0.0534006
0.0628896
0.0719536
0.080405
0.0880455
0.0946689
0.100067
0.104034
0.106376
0.106918
0.105509
0.10203
0.0964007
0.0886829
0.0789653
0.066048
0.049041
-0.00592979
-0.0229831
-0.0356067
-0.0448412
-0.0520681
-0.0573341
-0.0606834
-0.0622663
-0.0622355
-0.0607319
-0.0578882
-0.0538274
-0.0486622
-0.0424957
-0.0354231
-0.027534
-0.0189152
-0.00965373
0.000160302
0.0104303
0.0210502
0.031902
0.0428532
0.0537547
0.0644395
0.0747225
0.0844008
0.093256
0.101057
0.107566
0.112544
0.11576
0.117
0.116078
0.112837
0.107169
0.0991254
0.088789
0.0748375
0.0563014
-0.0183205
-0.0365857
-0.0500057
-0.0596966
-0.0671542
-0.0724426
-0.0756251
-0.0768799
-0.0763871
-0.074312
-0.0708083
-0.0660162
-0.0600615
-0.0530567
-0.0451026
-0.0362918
-0.0267114
-0.0164465
-0.00558465
0.0057811
0.017548
0.0296005
0.0418066
0.0540152
0.066054
0.077728
0.0888194
0.0990893
0.10828
0.116119
0.122331
0.126639
0.128785
0.128536
0.125691
0.120104
0.111806
0.100871
0.0858374
0.0656478
-0.0332098
-0.0527638
-0.0670035
-0.0771256
-0.0847523
-0.0899708
-0.0928701
-0.0936638
-0.092566
-0.0897722
-0.0854617
-0.0797951
-0.0729137
-0.06494
-0.0559809
-0.0461309
-0.0354761
-0.0240982
-0.0120794
0.000493037
0.0135226
0.0268989
0.0404935
0.0541562
0.0677116
0.0809569
0.0936605
0.105562
0.116377
0.125795
0.133497
0.139156
0.142457
0.143111
0.140859
0.135505
0.127051
0.115552
0.0993888
0.0774062
-0.0508772
-0.0718157
-0.0869022
-0.09742
-0.105134
-0.110162
-0.112629
-0.112794
-0.110914
-0.107223
-0.10193
-0.0952221
-0.0872568
-0.0781686
-0.0680701
-0.0570566
-0.0452113
-0.0326099
-0.0193269
-0.00543986
0.00896405
0.0237835
0.0388973
0.05416
0.0693966
0.0843994
0.0989251
0.112694
0.12539
0.136668
0.146155
0.153467
0.158222
0.160058
0.158646
0.153722
0.145244
0.133238
0.1159
0.0919681
-0.0716482
-0.0940922
-0.110056
-0.120919
-0.128608
-0.133288
-0.135131
-0.134454
-0.13157
-0.126761
-0.120276
-0.11233
-0.1031
-0.0927346
-0.0813502
-0.0690418
-0.055887
-0.0419528
-0.0273017
-0.0119981
0.00388485
0.0202594
0.0370166
0.0540203
0.0711009
0.0880499
0.104616
0.120502
0.135364
0.148812
0.160423
0.169741
0.176307
0.17967
0.179407
0.175166
0.166843
0.154415
0.135863
0.109805
-0.0959073
-0.120012
-0.136888
-0.14802
-0.155533
-0.159653
-0.160618
-0.158825
-0.154661
-0.148464
-0.140532
-0.131115
-0.120414
-0.108588
-0.0957587
-0.0820173
-0.067433
-0.0520593
-0.0359428
-0.0191296
-0.00167365
0.0163566
0.0348702
0.0537464
0.0728271
0.0919093
0.110739
0.129005
0.146337
0.162305
0.176423
0.188162
0.196965
0.202275
0.20355
0.200321
0.192392
0.179669
0.159875
0.131487
-0.124119
-0.150086
-0.167909
-0.1792
-0.186324
-0.189596
-0.189351
-0.18609
-0.180292
-0.172374
-0.162689
-0.151527
-0.139116
-0.125625
-0.111179
-0.0958614
-0.079728
-0.0628143
-0.0451451
-0.0267425
-0.00763492
0.0121349
0.0325012
0.0533662
0.0745908
0.0959854
0.1173
0.138218
0.158347
0.177216
0.194279
0.208919
0.220471
0.228245
0.231549
0.229757
0.222547
0.209713
0.188662
0.15771
-0.156856
-0.184948
-0.203752
-0.215035
-0.221469
-0.223502
-0.221603
-0.216416
-0.20854
-0.198486
-0.186678
-0.17345
-0.159055
-0.143675
-0.127429
-0.110389
-0.0925912
-0.074047
-0.0547524
-0.0346988
-0.0138818
0.00768922
0.0299816
0.0529293
0.0764218
0.100293
0.124308
0.148152
0.17142
0.193607
0.214105
0.232205
0.247116
0.257989
0.263944
0.264148
0.258098
0.245421
0.223126
0.18933
-0.194846
-0.225408
-0.245214
-0.256232
-0.261545
-0.261797
-0.257653
-0.249945
-0.239427
-0.226729
-0.212353
-0.196684
-0.179999
-0.162483
-0.144246
-0.12534
-0.105773
-0.0855236
-0.0645517
-0.0428098
-0.0202529
0.00315144
0.0274129
0.0525071
0.0783635
0.104851
0.131763
0.158803
0.185563
0.211515
0.235995
0.258201
0.277201
0.291958
0.301355
0.304292
0.300004
0.287875
0.264392
0.227415
-0.239034
-0.272522
-0.293316
-0.303671
-0.307237
-0.304957
-0.297771
-0.286767
-0.272899
-0.256934
-0.239466
-0.220927
-0.201612
-0.1817
-0.161281
-0.140374
-0.11895
-0.0969442
-0.0742711
-0.0508355
-0.0265429
-0.00131003
0.024925
0.0521906
0.0804687
0.109678
0.139658
0.170145
0.200751
0.23094
0.260006
0.287058
0.311016
0.330626
0.344481
0.351127
0.349441
0.338433
0.313889
0.273319
-0.290689
-0.327699
-0.349392
-0.358454
-0.359355
-0.353492
-0.342196
-0.326893
-0.308787
-0.288805
-0.267634
-0.245746
-0.223437
-0.200866
-0.178083
-0.155063
-0.131722
-0.107943
-0.0835822
-0.0584881
-0.0325073
-0.00549622
0.0226693
0.0520825
0.0827913
0.114782
0.147958
0.182113
0.216905
0.251817
0.286126
0.318867
0.348814
0.374474
0.394091
0.405758
0.407849
0.39882
0.373471
0.328796
-0.351569
-0.392875
-0.415215
-0.421973
-0.41885
-0.407926
-0.391086
-0.370197
-0.346758
-0.321872
-0.296305
-0.270549
-0.244877
-0.219397
-0.1941
-0.168891
-0.143619
-0.118095
-0.0921097
-0.065443
-0.037874
-0.00918964
0.0208065
0.0522839
0.0853715
0.120141
0.156583
0.19458
0.233866
0.273983
0.31423
0.353606
0.390757
0.423944
0.451007
0.469466
0.477007
0.47126
0.445592
0.39618
-0.424198
-0.470766
-0.493165
-0.495985
-0.486805
-0.468746
-0.444449
-0.416336
-0.386241
-0.355431
-0.324717
-0.294565
-0.265182
-0.236588
-0.20868
-0.181268
-0.15411
-0.126934
-0.099449
-0.0713575
-0.0423627
-0.012174
0.0194861
0.0528742
0.0882146
0.125683
0.165385
0.207322
0.251351
0.297124
0.344023
0.39107
0.436837
0.47936
0.516041
0.543702
0.559101
0.558654
0.533579
0.478681
-0.512341
-0.565289
-0.586481
-0.582677
-0.564395
-0.536291
-0.502013
-0.464639
-0.426337
-0.388478
-0.351848
-0.316811
-0.283439
-0.251611
-0.221084
-0.191543
-0.162633
-0.133977
-0.105193
-0.075898
-0.0457122
-0.0142614
0.0188197
0.0538837
0.0912627
0.131256
0.174109
0.219982
0.268906
0.320713
0.374952
0.430765
0.486752
0.5408
0.589888
0.630033
0.656796
0.664828
0.642072
0.580898
-0.621867
-0.682211
-0.699564
-0.6847
-0.652747
-0.610558
-0.563032
-0.513939
-0.46569
-0.419631
-0.37638
-0.336083
-0.29858
-0.263536
-0.230517
-0.199043
-0.168622
-0.138759
-0.108968
-0.0787761
-0.0477154
-0.0153262
0.0188479
0.0552607
0.0943616
0.136589
0.182354
0.232017
0.285842
0.343925
0.406094
0.471761
0.539718
0.607876
0.672906
0.73
0.773255
0.794852
0.777703
0.709747
-0.762393
-0.830209
-0.838351
-0.805085
-0.752651
-0.69086
-0.625986
-0.562347
-0.502349
-0.447044
-0.396664
-0.350956
-0.309404
-0.271369
-0.236166
-0.203116
-0.171562
-0.140881
-0.11048
-0.0797894
-0.0482579
-0.0153413
0.0195059
0.056839
0.0972284
0.141262
0.189539
0.242657
0.301174
0.365547
0.43603
0.512501
0.594212
0.679406
0.764752
0.844792
0.912041
0.955402
0.95019
0.876217
-0.950605
-1.02255
-1.01057
-0.946804
-0.863916
-0.775224
-0.688115
-0.606949
-0.533586
-0.468338
-0.410709
-0.359815
-0.314629
-0.27411
-0.237268
-0.203188
-0.17104
-0.140062
-0.109555
-0.0788632
-0.0473554
-0.0144123
0.0205928
0.0583093
0.0994247
0.144678
0.194869
0.250859
0.313558
0.383887
0.462686
0.55056
0.647595
0.75288
0.863701
0.97454
1.07662
1.155
1.17407
1.09893
-1.21701
-1.27953
-1.22535
-1.11141
-0.983958
-0.85928
-0.744683
-0.643372
-0.555693
-0.480525
-0.416191
-0.360901
-0.312956
-0.270825
-0.23317
-0.198829
-0.166794
-0.136177
-0.106183
-0.0760822
-0.0451813
-0.0128007
0.021751
0.0592017
0.100341
0.146048
0.197317
0.255285
0.321251
0.39668
0.483168
0.582336
0.695592
0.823627
0.965426
1.11676
1.26888
1.40351
1.47114
1.41123
-1.61759
-1.63081
-1.4914
-1.29661
-1.10581
-0.934943
-0.78827
-0.665519
-0.563965
-0.480124
-0.410621
-0.352486
-0.303223
-0.260769
-0.223435
-0.189826
-0.158779
-0.129307
-0.100544
-0.0717101
-0.0420749
-0.0109222
0.0224795
0.0589101
0.099234
0.14444
0.195691
0.254378
0.322186
0.401163
0.493781
0.602952
0.731947
0.884047
1.06161
1.26427
1.48654
1.71011
1.87241
1.87277
-2.25437
-2.11576
-1.81348
-1.49433
-1.21736
-0.990477
-0.809399
-0.666452
-0.553633
-0.464023
-0.392073
-0.333467
-0.284884
-0.243767
-0.208129
-0.176402
-0.147321
-0.119842
-0.0930703
-0.0662107
-0.038525
-0.0092926
0.0222258
0.0568271
0.095409
0.139024
0.188944
0.246754
0.314462
0.394657
0.490702
0.606973
0.749086
0.924022
1.13984
1.40425
1.72097
2.0794
2.41786
2.58915
-3.35567
-2.78322
-2.17259
-1.67574
-1.29252
-1.00571
-0.794148
-0.637291
-0.519358
-0.429206
-0.359003
-0.303203
-0.257845
-0.220046
-0.187667
-0.159075
-0.132992
-0.10838
-0.0843676
-0.0601879
-0.0351334
-0.00851507
0.0203761
0.0523099
0.0881644
0.128986
0.176072
0.231078
0.296187
0.374343
0.469607
0.587681
0.73664
0.927983
1.17804
1.50838
1.94099
2.49108
3.15813
3.79429
-5.51927
-3.66173
-2.43094
-1.71401
-1.2417
-0.92178
-0.704865
-0.553994
-0.445536
-0.365262
-0.304241
-0.256618
-0.218436
-0.186934
-0.160118
-0.136498
-0.114921
-0.0944614
-0.0743468
-0.0538995
-0.0324958
-0.00952846
0.0156281
0.0436548
0.0753325
0.111599
0.153626
0.202936
0.261575
0.332384
0.419444
0.52882
0.669797
0.857161
1.11547
1.48392
2.01592
2.80552
4.12449
6.09004
-9.20424
-4.5203
-2.30629
-1.42111
-0.958948
-0.682957
-0.512325
-0.400673
-0.323019
-0.266525
-0.223999
-0.191011
-0.164651
-0.142912
-0.124338
-0.107834
-0.0925396
-0.0777598
-0.0629052
-0.0474561
-0.0309304
-0.0128582
0.00724495
0.029904
0.0557173
0.0853976
0.119829
0.16015
0.207882
0.265136
0.334973
0.422059
0.533943
0.683912
0.897599
1.22423
1.75396
2.73346
5.06228
9.86663
)
;

boundaryField
{
    movingWall
    {
        type            zeroGradient;
    }
    fixedWalls
    {
        type            zeroGradient;
    }
    frontAndBack
    {
        type            empty;
    }
}


// ************************************************************************* //
