/*--------------------------------*- C++ -*----------------------------------*\
| =========                 |                                                 |
| \\      /  F ield         | OpenFOAM: The Open Source CFD Toolbox           |
|  \\    /   O peration     | Version:  2506                                  |
|   \\  /    A nd           | Website:  www.openfoam.com                      |
|    \\/     M anipulation  |                                                 |
\*---------------------------------------------------------------------------*/
FoamFile
{
    version     2.0;
    format      ascii;
    arch        "LSB;label=32;scalar=64";
    class       surfaceScalarField;
    location    "0.12";
    object      phi;
}
// * * * * * * * * * * * * * * * * * * * * * * * * * * * * * * * * * * * * * //

dimensions      [0 3 -1 0 0 0 0];

oriented        oriented;

internalField   nonuniform List<scalar> 
3120
(
2.52701e-09
-2.52828e-09
4.07411e-09
-1.54672e-09
2.23789e-09
1.83619e-09
-3.54013e-09
5.77829e-09
-1.3072e-08
9.53189e-09
-2.58517e-08
1.27796e-08
-4.12432e-08
1.53914e-08
-5.85737e-08
1.73306e-08
-7.71794e-08
1.86057e-08
-9.64273e-08
1.92478e-08
-1.15726e-07
1.9299e-08
-1.34533e-07
1.88071e-08
-1.52357e-07
1.78234e-08
-1.68757e-07
1.64002e-08
-1.83347e-07
1.45905e-08
-1.95795e-07
1.24476e-08
-2.05821e-07
1.00255e-08
-2.132e-07
7.3791e-09
-2.17764e-07
4.56406e-09
-2.19402e-07
1.63781e-09
-2.18062e-07
-1.34014e-09
-2.13754e-07
-4.30804e-09
-2.06552e-07
-7.20191e-09
-1.96596e-07
-9.95563e-09
-1.84095e-07
-1.25012e-08
-1.69325e-07
-1.47696e-08
-1.52634e-07
-1.66916e-08
-1.34435e-07
-1.81989e-08
-1.15208e-07
-1.92264e-08
-9.54949e-08
-1.97133e-08
-7.58894e-08
-1.96055e-08
-5.70311e-08
-1.88583e-08
-3.95911e-08
-1.744e-08
-2.42538e-08
-1.53373e-08
-1.16881e-08
-1.25656e-08
-2.49775e-09
-9.19029e-09
2.87497e-09
-5.37263e-09
4.33435e-09
-1.45934e-09
2.54903e-09
1.78529e-09
2.54896e-09
1.60843e-09
-4.1365e-09
-1.16781e-09
1.22909e-09
-1.16577e-08
1.2326e-08
-3.09117e-08
2.50322e-08
-5.87293e-08
3.73495e-08
-9.4172e-08
4.82225e-08
-1.35898e-07
5.71178e-08
-1.82377e-07
6.38098e-08
-2.32019e-07
6.82473e-08
-2.83251e-07
7.04798e-08
-3.34568e-07
7.06162e-08
-3.84562e-07
6.88012e-08
-4.3194e-07
6.52009e-08
-4.75534e-07
5.99946e-08
-5.14314e-07
5.33697e-08
-5.47386e-07
4.55196e-08
-5.74002e-07
3.66423e-08
-5.93564e-07
2.69403e-08
-6.05621e-07
1.66217e-08
-6.09885e-07
5.9011e-09
-6.06225e-07
-5.00038e-09
-5.94679e-07
-1.5854e-08
-5.75457e-07
-2.64238e-08
-5.48945e-07
-3.64672e-08
-5.1571e-07
-4.5737e-08
-4.76495e-07
-5.3984e-08
-4.32226e-07
-6.09612e-08
-3.83996e-07
-6.64287e-08
-3.33062e-07
-7.01603e-08
-2.80825e-07
-7.19504e-08
-2.28806e-07
-7.16245e-08
-1.78615e-07
-6.90497e-08
-1.31903e-07
-6.41517e-08
-9.03026e-08
-5.69376e-08
-5.5334e-08
-4.7534e-08
-2.8269e-08
-3.62551e-08
-9.91637e-09
-2.37251e-08
-2.97729e-10
-1.10779e-08
1.84329e-09
-3.55724e-10
4.39218e-09
-1.6613e-09
-2.47541e-09
-1.20553e-08
1.16236e-08
-3.3909e-08
3.41795e-08
-6.80774e-08
5.92004e-08
-1.14149e-07
8.34209e-08
-1.70845e-07
1.04918e-07
-2.36342e-07
1.22615e-07
-3.08517e-07
1.35985e-07
-3.85114e-07
1.44844e-07
-4.63861e-07
1.49227e-07
-5.42552e-07
1.49308e-07
-6.19099e-07
1.45348e-07
-6.91567e-07
1.37668e-07
-7.58199e-07
1.26627e-07
-8.17435e-07
1.12606e-07
-8.67923e-07
9.60077e-08
-9.08528e-07
7.72466e-08
-9.38339e-07
5.6751e-08
-9.56679e-07
3.4962e-08
-9.63112e-07
1.23343e-08
-9.57449e-07
-1.0663e-08
-9.39757e-07
-3.35462e-08
-9.10363e-07
-5.58176e-08
-8.69863e-07
-7.69681e-08
-8.19118e-07
-9.64811e-08
-7.59263e-07
-1.13839e-07
-6.91692e-07
-1.28533e-07
-6.1805e-07
-1.40071e-07
-5.40214e-07
-1.47996e-07
-4.60263e-07
-1.51901e-07
-3.80438e-07
-1.51449e-07
-3.03086e-07
-1.46402e-07
-2.30586e-07
-1.36652e-07
-1.65252e-07
-1.22272e-07
-1.09196e-07
-1.03589e-07
-6.41572e-08
-8.12943e-08
-3.12478e-08
-5.66345e-08
-1.0649e-08
-3.16767e-08
-1.23571e-09
-9.76909e-09
3.15643e-09
-5.53928e-09
3.06391e-09
-2.48414e-08
3.09259e-08
-5.93553e-08
6.86933e-08
-1.09254e-07
1.09099e-07
-1.73652e-07
1.47819e-07
-2.50851e-07
1.82118e-07
-3.38593e-07
2.10357e-07
-4.34275e-07
2.31666e-07
-5.35123e-07
2.45692e-07
-6.38326e-07
2.5243e-07
-7.4113e-07
2.52112e-07
-8.4091e-07
2.45128e-07
-9.35222e-07
2.3198e-07
-1.02184e-06
2.13241e-07
-1.09876e-06
1.89535e-07
-1.16428e-06
1.61524e-07
-1.21694e-06
1.29901e-07
-1.25557e-06
9.53813e-08
-1.27931e-06
5.87044e-08
-1.28761e-06
2.06341e-08
-1.28023e-06
-1.80421e-08
-1.25726e-06
-5.65134e-08
-1.21913e-06
-9.39476e-08
-1.1666e-06
-1.29496e-07
-1.10078e-06
-1.623e-07
-1.02312e-06
-1.91505e-07
-9.35381e-07
-2.1627e-07
-8.39659e-07
-2.35793e-07
-7.38322e-07
-2.49333e-07
-6.33987e-07
-2.56236e-07
-5.29459e-07
-2.55977e-07
-4.27661e-07
-2.482e-07
-3.31539e-07
-2.32774e-07
-2.43942e-07
-2.09869e-07
-1.67473e-07
-1.80058e-07
-1.043e-07
-1.44467e-07
-5.59356e-08
-1.04999e-07
-2.29952e-08
-6.46172e-08
-4.96443e-09
-2.78e-08
-1.80802e-09
-9.41523e-09
1.24788e-08
-3.79596e-08
5.94702e-08
-8.55926e-08
1.16327e-07
-1.51532e-07
1.75039e-07
-2.34217e-07
2.30504e-07
-3.31422e-07
2.79323e-07
-4.40424e-07
3.19359e-07
-5.58173e-07
3.49415e-07
-6.81451e-07
3.68971e-07
-8.07001e-07
3.77979e-07
-9.31624e-07
3.76735e-07
-1.05227e-06
3.6577e-07
-1.16607e-06
3.45787e-07
-1.27044e-06
3.17603e-07
-1.36302e-06
2.82123e-07
-1.44181e-06
2.40311e-07
-1.50509e-06
1.93183e-07
-1.5515e-06
1.4179e-07
-1.58002e-06
8.72268e-08
-1.59001e-06
3.06187e-08
-1.58118e-06
-2.68717e-08
-1.55364e-06
-8.40488e-08
-1.5079e-06
-1.39688e-07
-1.44486e-06
-1.92542e-07
-1.3658e-06
-2.41354e-07
-1.27244e-06
-2.84872e-07
-1.16683e-06
-3.21875e-07
-1.05143e-06
-3.51197e-07
-9.28989e-07
-3.71769e-07
-8.02567e-07
-3.82659e-07
-6.75422e-07
-3.83122e-07
-5.50949e-07
-3.72672e-07
-4.32571e-07
-3.51152e-07
-3.23607e-07
-3.18832e-07
-2.27125e-07
-2.7654e-07
-1.45763e-07
-2.25829e-07
-8.15514e-08
-1.6921e-07
-3.57442e-08
-1.10424e-07
-8.71418e-09
-5.48301e-08
-1.05222e-08
-1.30873e-08
2.55662e-08
-5.07398e-08
9.71225e-08
-1.11465e-07
1.77052e-07
-1.93416e-07
2.56989e-07
-2.9423e-07
3.31317e-07
-4.11056e-07
3.96149e-07
-5.40654e-07
4.48957e-07
-6.79519e-07
4.88281e-07
-8.24013e-07
5.13464e-07
-9.70477e-07
5.24444e-07
-1.11534e-06
5.21596e-07
-1.25518e-06
5.05615e-07
-1.38682e-06
4.77427e-07
-1.50734e-06
4.38122e-07
-1.61413e-06
3.88915e-07
-1.70493e-06
3.31109e-07
-1.77783e-06
2.66078e-07
-1.83129e-06
1.95253e-07
-1.86418e-06
1.20119e-07
-1.87577e-06
4.22092e-08
-1.86575e-06
-3.68953e-08
-1.83423e-06
-1.1557e-07
-1.78176e-06
-1.92151e-07
-1.70936e-06
-2.64948e-07
-1.61846e-06
-3.32258e-07
-1.51094e-06
-3.92388e-07
-1.38913e-06
-4.43688e-07
-1.25574e-06
-4.84588e-07
-1.11385e-06
-5.13651e-07
-9.66886e-07
-5.29628e-07
-8.18479e-07
-5.31528e-07
-6.72445e-07
-5.18707e-07
-5.32638e-07
-4.90959e-07
-4.02836e-07
-4.48634e-07
-2.86591e-07
-3.92785e-07
-1.87077e-07
-3.25344e-07
-1.06945e-07
-2.49342e-07
-4.82201e-08
-1.69149e-07
-1.22764e-08
-9.07738e-08
-2.27986e-08
-1.65168e-08
4.20831e-08
-6.29603e-08
1.43566e-07
-1.3652e-07
2.50612e-07
-2.34268e-07
3.54737e-07
-3.52978e-07
4.50028e-07
-4.89106e-07
5.32277e-07
-6.38838e-07
5.98689e-07
-7.98187e-07
6.47629e-07
-9.63091e-07
6.78368e-07
-1.12952e-06
6.90869e-07
-1.29355e-06
6.85626e-07
-1.45146e-06
6.63526e-07
-1.59978e-06
6.25748e-07
-1.73534e-06
5.73687e-07
-1.85532e-06
5.08895e-07
-1.95726e-06
4.33042e-07
-2.03907e-06
3.47894e-07
-2.09911e-06
2.55289e-07
-2.13613e-06
1.57139e-07
-2.14933e-06
5.54128e-08
-2.13837e-06
-4.78559e-08
-2.10336e-06
-1.5058e-07
-2.04489e-06
-2.50622e-07
-1.96402e-06
-3.45812e-07
-1.86232e-06
-4.33964e-07
-1.7418e-06
-5.12905e-07
-1.60497e-06
-5.80516e-07
-1.45478e-06
-6.34785e-07
-1.29457e-06
-6.73862e-07
-1.12805e-06
-6.96144e-07
-9.59222e-07
-7.00355e-07
-7.9228e-07
-6.8565e-07
-6.31505e-07
-6.51734e-07
-4.81144e-07
-5.98995e-07
-3.45276e-07
-5.28653e-07
-2.27677e-07
-4.42943e-07
-1.31701e-07
-3.45318e-07
-6.0215e-08
-2.40635e-07
-1.56137e-08
-1.35375e-07
-3.84122e-08
-1.97333e-08
6.18165e-08
-7.4628e-08
1.9846e-07
-1.60697e-07
3.3668e-07
-2.73967e-07
4.68007e-07
-4.10325e-07
5.86386e-07
-5.65485e-07
6.87437e-07
-7.35021e-07
7.68225e-07
-9.14429e-07
8.27037e-07
-1.09921e-06
8.6315e-07
-1.28496e-06
8.76619e-07
-1.46744e-06
8.68105e-07
-1.64264e-06
8.38729e-07
-1.80686e-06
7.89962e-07
-1.9567e-06
7.23533e-07
-2.08917e-06
6.41362e-07
-2.20164e-06
5.45515e-07
-2.29192e-06
4.38173e-07
-2.35824e-06
3.21607e-07
-2.39928e-06
1.98175e-07
-2.41417e-06
7.03083e-08
-2.40254e-06
-5.94859e-08
-2.36449e-06
-1.88634e-07
-2.30061e-06
-3.145e-07
-2.21201e-06
-4.34407e-07
-2.10032e-06
-5.45654e-07
-1.96767e-06
-6.45557e-07
-1.8167e-06
-7.31492e-07
-1.65052e-06
-8.00959e-07
-1.47273e-06
-8.51658e-07
-1.28729e-06
-8.81579e-07
-1.09854e-06
-8.89111e-07
-9.11028e-07
-8.73158e-07
-7.29486e-07
-8.33275e-07
-5.58661e-07
-7.6982e-07
-4.03204e-07
-6.84109e-07
-2.67553e-07
-5.78595e-07
-1.55825e-07
-4.57046e-07
-7.17653e-08
-3.24694e-07
-1.87631e-08
-1.88377e-07
-5.71753e-08
-2.27894e-08
8.46059e-08
-8.58496e-08
2.61521e-07
-1.84134e-07
4.34965e-07
-3.1267e-07
5.96543e-07
-4.66454e-07
7.4017e-07
-6.40436e-07
8.61419e-07
-8.2954e-07
9.57329e-07
-1.02872e-06
1.02622e-06
-1.23302e-06
1.06746e-06
-1.43767e-06
1.08127e-06
-1.6381e-06
1.06854e-06
-1.83006e-06
1.03069e-06
-2.00962e-06
9.69516e-07
-2.17321e-06
8.87123e-07
-2.31768e-06
7.85831e-07
-2.44029e-06
6.68124e-07
-2.53873e-06
5.36621e-07
-2.61117e-06
3.94043e-07
-2.65621e-06
2.43212e-07
-2.67293e-06
8.70328e-08
-2.66092e-06
-7.1499e-08
-2.62024e-06
-2.29308e-07
-2.5515e-06
-3.83245e-07
-2.4558e-06
-5.30104e-07
-2.33481e-06
-6.66648e-07
-2.19072e-06
-7.89649e-07
-2.02626e-06
-8.95943e-07
-1.84472e-06
-9.82502e-07
-1.64985e-06
-1.04652e-06
-1.44589e-06
-1.08554e-06
-1.23747e-06
-1.09754e-06
-1.02952e-06
-1.0811e-06
-8.27235e-07
-1.03556e-06
-6.35889e-07
-9.61166e-07
-4.60762e-07
-8.59237e-07
-3.07004e-07
-7.32352e-07
-1.79543e-07
-5.84507e-07
-8.30204e-08
-4.21217e-07
-2.17892e-08
-2.49608e-07
-7.89644e-08
-2.57409e-08
1.10347e-07
-9.67671e-08
3.32547e-07
-2.07054e-07
5.45251e-07
-3.50665e-07
7.40154e-07
-5.21714e-07
9.11219e-07
-7.14366e-07
1.05407e-06
-9.22874e-07
1.16584e-06
-1.14162e-06
1.24497e-06
-1.36519e-06
1.29103e-06
-1.58842e-06
1.30449e-06
-1.80645e-06
1.28656e-06
-2.01476e-06
1.239e-06
-2.20923e-06
1.16399e-06
-2.38617e-06
1.06405e-06
-2.54227e-06
9.41939e-07
-2.67473e-06
8.00578e-07
-2.78115e-06
6.43042e-07
-2.85962e-06
4.72519e-07
-2.90871e-06
2.92298e-07
-2.92745e-06
1.05769e-07
-2.91536e-06
-8.35829e-08
-2.8725e-06
-2.72174e-07
-2.79941e-06
-4.56333e-07
-2.6972e-06
-6.32313e-07
-2.56753e-06
-7.96322e-07
-2.41262e-06
-9.44561e-07
-2.23527e-06
-1.07329e-06
-2.03885e-06
-1.17892e-06
-1.8273e-06
-1.25807e-06
-1.60508e-06
-1.30777e-06
-1.3771e-06
-1.32551e-06
-1.14872e-06
-1.30949e-06
-9.25576e-07
-1.25871e-06
-7.13529e-07
-1.17321e-06
-5.18527e-07
-1.05424e-06
-3.46485e-07
-9.04394e-07
-2.03181e-07
-7.2781e-07
-9.41747e-08
-5.30223e-07
-2.47631e-08
-3.1902e-07
-1.03728e-07
-2.864e-08
1.38987e-07
-1.07528e-07
4.11434e-07
-2.29703e-07
6.67426e-07
-3.88289e-07
8.9874e-07
-5.76513e-07
1.09944e-06
-7.87746e-07
1.2653e-06
-1.01554e-06
1.39363e-06
-1.25371e-06
1.48313e-06
-1.49634e-06
1.53366e-06
-1.73788e-06
1.54604e-06
-1.97317e-06
1.52186e-06
-2.19748e-06
1.46331e-06
-2.4065e-06
1.37302e-06
-2.59641e-06
1.25396e-06
-2.76384e-06
1.10937e-06
-2.90589e-06
9.42625e-07
-3.02013e-06
7.57281e-07
-3.1046e-06
5.56992e-07
-3.15782e-06
3.4552e-07
-3.17879e-06
1.26733e-07
-3.16697e-06
-9.53947e-08
-3.12237e-06
-3.16776e-07
-3.04549e-06
-5.33216e-07
-2.93738e-06
-7.40423e-07
-2.79967e-06
-9.34037e-07
-2.63456e-06
-1.10967e-06
-2.44488e-06
-1.26297e-06
-2.23408e-06
-1.38972e-06
-2.00622e-06
-1.48594e-06
-1.76595e-06
-1.54804e-06
-1.5185e-06
-1.57296e-06
-1.2696e-06
-1.55838e-06
-1.0254e-06
-1.50291e-06
-7.92366e-07
-1.40625e-06
-5.7716e-07
-1.26945e-06
-3.86514e-07
-1.09504e-06
-2.27104e-07
-8.8722e-07
-1.05434e-07
-6.51894e-07
-2.77541e-08
-3.967e-07
-1.31482e-07
-3.15327e-08
1.7052e-07
-1.18269e-07
4.98171e-07
-2.52323e-07
8.0148e-07
-4.25878e-07
1.07229e-06
-6.31265e-07
1.30483e-06
-8.61038e-07
1.49508e-06
-1.10804e-06
1.64064e-06
-1.36547e-06
1.74056e-06
-1.62694e-06
1.79513e-06
-1.88651e-06
1.8056e-06
-2.13873e-06
1.77407e-06
-2.37864e-06
1.70322e-06
-2.6018e-06
1.59618e-06
-2.8043e-06
1.45646e-06
-2.98269e-06
1.28776e-06
-3.13406e-06
1.09399e-06
-3.25594e-06
8.79165e-07
-3.34636e-06
6.47413e-07
-3.40381e-06
4.02966e-07
-3.42723e-06
1.50159e-07
-3.41607e-06
-1.06559e-07
-3.37024e-06
-3.62609e-07
-3.29017e-06
-6.13285e-07
-3.17684e-06
-8.53754e-07
-3.03179e-06
-1.07908e-06
-2.8572e-06
-1.28426e-06
-2.65585e-06
-1.46432e-06
-2.43122e-06
-1.61435e-06
-2.18746e-06
-1.7297e-06
-1.92941e-06
-1.80608e-06
-1.66258e-06
-1.83979e-06
-1.39308e-06
-1.82788e-06
-1.12758e-06
-1.7684e-06
-8.73191e-07
-1.66064e-06
-6.37339e-07
-1.5053e-06
-4.27626e-07
-1.30475e-06
-2.5168e-07
-1.06317e-06
-1.17001e-07
-7.86573e-07
-3.08271e-08
-4.82873e-07
-1.62309e-07
-3.44592e-08
2.04979e-07
-1.29117e-07
5.92829e-07
-2.7514e-07
9.47503e-07
-4.63747e-07
1.2609e-06
-6.86349e-07
1.52743e-06
-9.3466e-07
1.74339e-06
-1.20079e-06
1.90676e-06
-1.47731e-06
2.01709e-06
-1.75735e-06
2.07516e-06
-2.03458e-06
2.08283e-06
-2.30327e-06
2.04276e-06
-2.55828e-06
1.95823e-06
-2.79506e-06
1.83297e-06
-3.00964e-06
1.67103e-06
-3.19855e-06
1.47667e-06
-3.35886e-06
1.25431e-06
-3.48814e-06
1.00845e-06
-3.58441e-06
7.43684e-07
-3.64615e-06
4.64703e-07
-3.67228e-06
1.76285e-07
-3.66217e-06
-1.16666e-07
-3.61567e-06
-4.09109e-07
-3.53311e-06
-6.95844e-07
-3.41535e-06
-9.7151e-07
-3.26383e-06
-1.2306e-06
-3.08061e-06
-1.46749e-06
-2.8684e-06
-1.67653e-06
-2.63065e-06
-1.8521e-06
-2.37156e-06
-1.98878e-06
-2.09612e-06
-2.08153e-06
-1.81008e-06
-2.12583e-06
-1.51995e-06
-2.11802e-06
-1.23291e-06
-2.05544e-06
-9.56751e-07
-1.93679e-06
-6.99715e-07
-1.76233e-06
-4.70337e-07
-1.53413e-06
-2.77265e-07
-1.25624e-06
-1.29068e-07
-9.3477e-07
-3.40424e-08
-5.77899e-07
-1.96351e-07
-3.74547e-08
2.42433e-07
-1.40183e-07
6.95557e-07
-2.98355e-07
1.10568e-06
-5.0218e-07
1.46473e-06
-7.42105e-07
1.76736e-06
-1.00897e-06
2.01025e-06
-1.29411e-06
2.19191e-06
-1.58948e-06
2.31246e-06
-1.8877e-06
2.37338e-06
-2.18207e-06
2.37721e-06
-2.46662e-06
2.32731e-06
-2.73605e-06
2.22766e-06
-2.98575e-06
2.08266e-06
-3.2117e-06
1.89698e-06
-3.41049e-06
1.67547e-06
-3.57924e-06
1.42306e-06
-3.71555e-06
1.14475e-06
-3.81747e-06
8.45609e-07
-3.88351e-06
5.30737e-07
-3.91256e-06
2.05335e-07
-3.90394e-06
-1.25282e-07
-3.85741e-06
-4.5564e-07
-3.77317e-06
-7.8008e-07
-3.65194e-06
-1.09274e-06
-3.49499e-06
-1.38755e-06
-3.3042e-06
-1.65828e-06
-3.08218e-06
-1.89855e-06
-2.83226e-06
-2.10201e-06
-2.55865e-06
-2.26239e-06
-2.26641e-06
-2.37377e-06
-1.96151e-06
-2.43074e-06
-1.65081e-06
-2.42871e-06
-1.34206e-06
-2.3642e-06
-1.04371e-06
-2.23514e-06
-7.64893e-07
-2.04116e-06
-5.15133e-07
-1.78389e-06
-3.04196e-07
-1.46717e-06
-1.41818e-07
-1.09715e-06
-3.74561e-08
-6.8226e-07
-2.33807e-07
-4.05507e-08
2.82984e-07
-1.51571e-07
8.06577e-07
-3.22154e-07
1.27626e-06
-5.41431e-07
1.684e-06
-7.9882e-07
2.02475e-06
-1.08423e-06
2.29566e-06
-1.38821e-06
2.49589e-06
-1.70207e-06
2.62632e-06
-2.01791e-06
2.68922e-06
-2.32871e-06
2.688e-06
-2.62826e-06
2.62686e-06
-2.91117e-06
2.51057e-06
-3.17279e-06
2.34428e-06
-3.40916e-06
2.13336e-06
-3.61696e-06
1.88326e-06
-3.79339e-06
1.59949e-06
-3.93615e-06
1.28752e-06
-4.04339e-06
9.52849e-07
-4.11364e-06
6.00982e-07
-4.14579e-06
2.37489e-07
-4.13913e-06
-1.31949e-07
-4.09328e-06
-5.01482e-07
-4.00832e-06
-8.65039e-07
-3.88477e-06
-1.2163e-06
-3.72366e-06
-1.54866e-06
-3.52668e-06
-1.85526e-06
-3.29619e-06
-2.12904e-06
-3.03539e-06
-2.36281e-06
-2.74837e-06
-2.54942e-06
-2.44021e-06
-2.68193e-06
-2.11705e-06
-2.7539e-06
-1.78608e-06
-2.75968e-06
-1.45554e-06
-2.69473e-06
-1.13465e-06
-2.55603e-06
-8.33411e-07
-2.34239e-06
-5.62465e-07
-2.05484e-06
-3.32792e-07
-1.69685e-06
-1.55423e-07
-1.27452e-06
-4.11214e-08
-7.96562e-07
-2.74928e-07
-4.37776e-08
3.26762e-07
-1.63376e-07
9.26176e-07
-3.46711e-07
1.45959e-06
-5.81731e-07
1.91902e-06
-8.56743e-07
2.29976e-06
-1.16067e-06
2.59958e-06
-1.48321e-06
2.81843e-06
-1.815e-06
2.95811e-06
-2.14769e-06
3.02191e-06
-2.4739e-06
3.01421e-06
-2.78726e-06
2.94023e-06
-3.08235e-06
2.80565e-06
-3.35455e-06
2.61648e-06
-3.60004e-06
2.37884e-06
-3.81562e-06
2.09885e-06
-3.99869e-06
1.78256e-06
-4.14711e-06
1.43593e-06
-4.25912e-06
1.06487e-06
-4.33336e-06
6.75216e-07
-4.36873e-06
2.72864e-07
-4.36448e-06
-1.36207e-07
-4.32012e-06
-5.45837e-07
-4.23555e-06
-9.49613e-07
-4.11104e-06
-1.34081e-06
-3.94737e-06
-1.71233e-06
-3.7459e-06
-2.05673e-06
-3.5087e-06
-2.36624e-06
-3.2387e-06
-2.63281e-06
-2.93981e-06
-2.84831e-06
-2.61702e-06
-3.00471e-06
-2.27655e-06
-3.09437e-06
-1.92586e-06
-3.11037e-06
-1.5737e-06
-3.0469e-06
-1.23e-06
-2.89974e-06
-9.05738e-07
-2.66665e-06
-6.12745e-07
-2.34783e-06
-3.63352e-07
-1.94624e-06
-1.70051e-07
-1.46782e-06
-4.50904e-08
-9.21523e-07
-3.20019e-07
-4.71666e-08
3.73929e-07
-1.75701e-07
1.05471e-06
-3.72201e-07
1.65609e-06
-6.23304e-07
2.17013e-06
-9.16094e-07
2.59255e-06
-1.23841e-06
2.9219e-06
-1.57907e-06
3.15909e-06
-1.92803e-06
3.30707e-06
-2.27645e-06
3.37033e-06
-2.61669e-06
3.35445e-06
-2.94228e-06
3.26581e-06
-3.24779e-06
3.11117e-06
-3.52879e-06
2.89748e-06
-3.78163e-06
2.63169e-06
-4.00338e-06
2.3206e-06
-4.19167e-06
1.97085e-06
-4.34459e-06
1.58885e-06
-4.46059e-06
1.18087e-06
-4.53841e-06
7.53034e-07
-4.57703e-06
3.11478e-07
-4.57563e-06
-1.37603e-07
-4.53364e-06
-5.87826e-07
-4.45073e-06
-1.03252e-06
-4.32691e-06
-1.46463e-06
-4.1626e-06
-1.87664e-06
-3.95877e-06
-2.26057e-06
-3.71709e-06
-2.60792e-06
-3.4401e-06
-2.90979e-06
-3.1314e-06
-3.15702e-06
-2.79578e-06
-3.34034e-06
-2.43942e-06
-3.45073e-06
-2.06998e-06
-3.4798e-06
-1.69664e-06
-3.42024e-06
-1.33007e-06
-3.26631e-06
-9.82267e-07
-3.01445e-06
-6.6635e-07
-2.66375e-06
-3.96166e-07
-2.21643e-06
-1.85866e-07
-1.67812e-06
-4.94153e-08
-1.05797e-06
-3.69434e-07
-5.07529e-08
4.24682e-07
-1.88656e-07
1.19261e-06
-3.98815e-07
1.86625e-06
-6.66385e-07
2.43769e-06
-9.77081e-07
2.90325e-06
-1.31756e-06
3.26237e-06
-1.67569e-06
3.51722e-06
-2.04072e-06
3.67211e-06
-2.40338e-06
3.73298e-06
-2.75579e-06
3.70687e-06
-3.09146e-06
3.60148e-06
-3.40512e-06
3.42483e-06
-3.69256e-06
3.18492e-06
-3.95046e-06
2.88959e-06
-4.17624e-06
2.54638e-06
-4.36788e-06
2.16249e-06
-4.52378e-06
1.74475e-06
-4.64265e-06
1.29974e-06
-4.72341e-06
8.338e-07
-4.76514e-06
3.53208e-07
-4.76702e-06
-1.35725e-07
-4.72835e-06
-6.26501e-07
-4.64857e-06
-1.1123e-06
-4.52736e-06
-1.58584e-06
-4.36472e-06
-2.03928e-06
-4.16114e-06
-2.46415e-06
-3.91776e-06
-2.85129e-06
-3.63661e-06
-3.19095e-06
-3.3208e-06
-3.47283e-06
-2.97478e-06
-3.68635e-06
-2.60456e-06
-3.82095e-06
-2.21786e-06
-3.86651e-06
-1.82422e-06
-3.81388e-06
-1.43501e-06
-3.65552e-06
-1.06331e-06
-3.38615e-06
-7.23628e-07
-3.00343e-06
-4.31518e-07
-2.50854e-06
-2.03038e-07
-1.9066e-06
-5.41514e-08
-1.20686e-06
-4.23585e-07
-5.45797e-08
4.79261e-07
-2.02377e-07
1.34041e-06
-4.26779e-07
2.09065e-06
-7.1124e-07
2.72216e-06
-1.03992e-06
3.23193e-06
-1.39817e-06
3.62062e-06
-1.77283e-06
3.89188e-06
-2.15244e-06
4.05172e-06
-2.52731e-06
4.10785e-06
-2.88945e-06
4.069e-06
-3.23245e-06
3.94448e-06
-3.55129e-06
3.74367e-06
-3.84215e-06
3.47578e-06
-4.10217e-06
3.14961e-06
-4.32923e-06
2.77345e-06
-4.5218e-06
2.35505e-06
-4.67867e-06
1.90163e-06
-4.79892e-06
1.41999e-06
-4.88172e-06
9.16592e-07
-4.92626e-06
3.97753e-07
-4.93176e-06
-1.30225e-07
-4.8974e-06
-6.60861e-07
-4.82238e-06
-1.18731e-06
-4.70601e-06
-1.70221e-06
-4.54779e-06
-2.1975e-06
-4.34762e-06
-2.66432e-06
-4.10598e-06
-3.09293e-06
-3.82421e-06
-3.47272e-06
-3.50478e-06
-3.79225e-06
-3.1516e-06
-4.03953e-06
-2.7703e-06
-4.20225e-06
-2.3685e-06
-4.2683e-06
-1.956e-06
-4.22638e-06
-1.5448e-06
-4.06671e-06
-1.14909e-06
-3.78187e-06
-7.84899e-07
-3.36762e-06
-4.69697e-07
-2.82374e-06
-2.21746e-07
-2.15455e-06
-5.93591e-08
-1.36925e-06
-4.82944e-07
-5.87026e-08
5.37964e-07
-2.17035e-07
1.49874e-06
-4.56377e-07
2.33e-06
-7.58199e-07
3.02398e-06
-1.10488e-06
3.57861e-06
-1.48028e-06
3.99603e-06
-1.87016e-06
4.28176e-06
-2.26234e-06
4.4439e-06
-2.64678e-06
4.49229e-06
-3.01548e-06
4.4377e-06
-3.36225e-06
4.29125e-06
-3.68251e-06
4.06393e-06
-3.97297e-06
3.76625e-06
-4.23141e-06
3.40804e-06
-4.45632e-06
2.99836e-06
-4.64676e-06
2.54548e-06
-4.80207e-06
2.05694e-06
-4.92175e-06
1.53967e-06
-5.00531e-06
1.00015e-06
-5.05214e-06
4.44586e-07
-5.06151e-06
-1.2086e-07
-5.03249e-06
-6.89875e-07
-4.96405e-06
-1.25576e-06
-4.85505e-06
-1.81121e-06
-4.70444e-06
-2.3481e-06
-4.51143e-06
-2.85733e-06
-4.27569e-06
-3.32867e-06
-3.99769e-06
-3.75071e-06
-3.67905e-06
-4.1109e-06
-3.32288e-06
-4.3957e-06
-2.93422e-06
-4.59091e-06
-2.52037e-06
-4.68216e-06
-2.09118e-06
-4.65558e-06
-1.65921e-06
-4.49868e-06
-1.23975e-06
-4.20133e-06
-8.50468e-07
-3.75689e-06
-5.11011e-07
-3.1632e-06
-2.42193e-07
-2.42337e-06
-6.5108e-08
-1.54633e-06
-5.48052e-07
-6.31964e-08
6.0116e-07
-2.3286e-07
1.66841e-06
-4.87982e-07
2.58512e-06
-8.07685e-07
3.34368e-06
-1.17227e-06
3.94319e-06
-1.56393e-06
4.38769e-06
-1.96723e-06
4.68506e-06
-2.36931e-06
4.84598e-06
-2.75989e-06
4.88287e-06
-3.13108e-06
4.80889e-06
-3.47714e-06
4.63731e-06
-3.79411e-06
4.38089e-06
-4.07945e-06
4.05159e-06
-4.33173e-06
3.66032e-06
-4.55025e-06
3.21688e-06
-4.7348e-06
2.73003e-06
-4.88538e-06
2.20753e-06
-5.00205e-06
1.65634e-06
-5.08471e-06
1.08281e-06
-5.13303e-06
4.92905e-07
-5.14636e-06
-1.07527e-07
-5.12372e-06
-7.12518e-07
-5.06379e-06
-1.31569e-06
-4.96501e-06
-1.90999e-06
-4.82569e-06
-2.48742e-06
-4.64423e-06
-3.0388e-06
-4.41934e-06
-3.55355e-06
-4.15045e-06
-4.0196e-06
-3.83806e-06
-4.42329e-06
-3.48422e-06
-4.74954e-06
-3.09306e-06
-4.98207e-06
-2.67126e-06
-5.10395e-06
-2.22851e-06
-5.09833e-06
-1.77776e-06
-4.94943e-06
-1.33531e-06
-4.64378e-06
-9.20633e-07
-4.17157e-06
-5.55799e-07
-3.52803e-06
-2.64613e-07
-2.71455e-06
-7.14818e-08
-1.73946e-06
-6.19534e-07
-6.8164e-08
6.69324e-07
-2.50162e-07
1.85041e-06
-5.22094e-07
2.85705e-06
-8.60257e-07
3.68184e-06
-1.2425e-06
4.32544e-06
-1.64912e-06
4.79431e-06
-2.06343e-06
5.09936e-06
-2.47192e-06
5.25447e-06
-2.86421e-06
5.27516e-06
-3.23278e-06
5.17746e-06
-3.57254e-06
4.97707e-06
-3.8804e-06
4.68876e-06
-4.15483e-06
4.32602e-06
-4.3954e-06
3.90088e-06
-4.6024e-06
3.42388e-06
-4.77651e-06
2.90414e-06
-4.91855e-06
2.34956e-06
-5.02919e-06
1.76698e-06
-5.10886e-06
1.16247e-06
-5.15754e-06
5.41592e-07
-5.17476e-06
-9.03135e-08
-5.15947e-06
-7.2781e-07
-5.11011e-06
-1.36505e-06
-5.02466e-06
-1.99544e-06
-4.90076e-06
-2.61132e-06
-4.73589e-06
-3.20367e-06
-4.52768e-06
-3.76177e-06
-4.27427e-06
-4.27301e-06
-3.97478e-06
-4.72278e-06
-3.6299e-06
-5.09442e-06
-3.24247e-06
-5.3695e-06
-2.81819e-06
-5.52822e-06
-2.36622e-06
-5.5503e-06
-1.89964e-06
-5.41602e-06
-1.43569e-06
-5.10773e-06
-9.95692e-07
-4.61157e-06
-6.04458e-07
-3.91926e-06
-2.89293e-07
-3.02972e-06
-7.85856e-08
-1.95017e-06
-6.9812e-07
-7.37479e-08
7.43072e-07
-2.69366e-07
2.04602e-06
-5.59386e-07
3.14707e-06
-9.16651e-07
4.03911e-06
-1.31609e-06
4.72488e-06
-1.73586e-06
5.21408e-06
-2.15794e-06
5.52144e-06
-2.56829e-06
5.66483e-06
-2.95667e-06
5.66354e-06
-3.31618e-06
5.53698e-06
-3.64274e-06
5.30362e-06
-3.93443e-06
4.98045e-06
-4.19099e-06
4.58258e-06
-4.41323e-06
4.12313e-06
-4.60263e-06
3.61328e-06
-4.76094e-06
3.06246e-06
-4.88988e-06
2.47851e-06
-4.99091e-06
1.86801e-06
-5.06502e-06
1.23658e-06
-5.11261e-06
5.89179e-07
-5.13339e-06
-6.95352e-08
-5.12633e-06
-7.34869e-07
-5.08965e-06
-1.40172e-06
-5.02088e-06
-2.06421e-06
-4.91694e-06
-2.71527e-06
-4.77434e-06
-3.34627e-06
-4.58948e-06
-3.94663e-06
-4.35903e-06
-4.50347e-06
-4.08044e-06
-5.00137e-06
-3.75265e-06
-5.42221e-06
-3.37681e-06
-5.74534e-06
-2.95714e-06
-5.94789e-06
-2.50182e-06
-6.00563e-06
-2.02365e-06
-5.89418e-06
-1.54064e-06
-5.59074e-06
-1.07595e-06
-5.07625e-06
-6.57466e-07
-4.33775e-06
-3.16598e-07
-3.37059e-06
-8.65553e-08
-2.18021e-06
-7.84675e-07
-8.01476e-08
8.2322e-07
-2.91055e-07
2.25693e-06
-6.00761e-07
3.45678e-06
-9.77824e-07
4.41617e-06
-1.39368e-06
5.14073e-06
-1.82404e-06
5.64444e-06
-2.24956e-06
5.94696e-06
-2.65588e-06
6.07115e-06
-3.03322e-06
6.04088e-06
-3.37572e-06
5.87947e-06
-3.68066e-06
5.60856e-06
-3.94769e-06
5.24748e-06
-4.17812e-06
4.81301e-06
-4.37428e-06
4.31929e-06
-4.53904e-06
3.77804e-06
-4.67535e-06
3.19877e-06
-4.78598e-06
2.58914e-06
-4.87322e-06
1.95525e-06
-4.93874e-06
1.30209e-06
-4.98338e-06
6.33825e-07
-5.00714e-06
-4.57756e-08
-5.00904e-06
-7.32967e-07
-4.98714e-06
-1.42363e-06
-4.93852e-06
-2.11282e-06
-4.85942e-06
-2.79437e-06
-4.74534e-06
-3.46035e-06
-4.59135e-06
-4.10062e-06
-4.39245e-06
-4.70237e-06
-4.14418e-06
-5.24964e-06
-3.84331e-06
-5.72308e-06
-3.48879e-06
-6.09986e-06
-3.08279e-06
-6.35389e-06
-2.63187e-06
-6.45654e-06
-2.14807e-06
-6.37798e-06
-1.6497e-06
-6.08911e-06
-1.16174e-06
-5.56422e-06
-7.15423e-07
-4.78406e-06
-3.47003e-07
-3.73901e-06
-9.5573e-08
-2.43164e-06
-8.80248e-07
-8.76437e-08
9.10863e-07
-3.16032e-07
2.48532e-06
-6.47428e-07
3.78817e-06
-1.045e-06
4.81374e-06
-1.47597e-06
5.5717e-06
-1.91335e-06
6.08182e-06
-2.33654e-06
6.37016e-06
-2.73122e-06
6.46582e-06
-3.08854e-06
6.3982e-06
-3.40421e-06
6.19514e-06
-3.67739e-06
5.88174e-06
-3.90972e-06
5.47982e-06
-4.10444e-06
5.00772e-06
-4.26564e-06
4.48049e-06
-4.39775e-06
3.91015e-06
-4.50509e-06
3.30611e-06
-4.59155e-06
2.67559e-06
-4.66032e-06
2.02402e-06
-4.71376e-06
1.35554e-06
-4.75327e-06
6.7333e-07
-4.77913e-06
-1.99114e-08
-4.79051e-06
-7.21594e-07
-4.78534e-06
-1.42879e-06
-4.76038e-06
-2.13778e-06
-4.71119e-06
-2.84355e-06
-4.63231e-06
-3.53923e-06
-4.51742e-06
-4.21551e-06
-4.35976e-06
-4.86003e-06
-4.15266e-06
-5.45674e-06
-3.89036e-06
-5.98539e-06
-3.56903e-06
-6.42119e-06
-3.1881e-06
-6.73482e-06
-2.75173e-06
-6.89291e-06
-2.27038e-06
-6.85934e-06
-1.76209e-06
-6.5974e-06
-1.25338e-06
-6.07293e-06
-7.79092e-07
-5.25835e-06
-3.81148e-07
-4.13695e-06
-1.05889e-07
-2.7069e-06
-9.86137e-07
-9.66351e-08
1.0075e-06
-3.45405e-07
2.73409e-06
-7.00988e-07
4.14376e-06
-1.11969e-06
5.23244e-06
-1.56367e-06
6.01569e-06
-2.00301e-06
6.52115e-06
-2.41615e-06
6.7833e-06
-2.78934e-06
6.839e-06
-3.1154e-06
6.72426e-06
-3.39228e-06
6.47203e-06
-3.62165e-06
6.11112e-06
-3.80762e-06
5.66578e-06
-3.95568e-06
5.15578e-06
-4.07198e-06
4.59678e-06
-4.16264e-06
4.00082e-06
-4.23342e-06
3.37689e-06
-4.28935e-06
2.73152e-06
-4.33456e-06
2.06923e-06
-4.37213e-06
1.39311e-06
-4.40398e-06
7.0518e-07
-4.43077e-06
6.88284e-09
-4.45185e-06
-7.00517e-07
-4.46515e-06
-1.41549e-06
-4.46718e-06
-2.13575e-06
-4.45298e-06
-2.85775e-06
-4.41619e-06
-3.57602e-06
-4.34917e-06
-4.28253e-06
-4.24333e-06
-4.96586e-06
-4.08964e-06
-5.61042e-06
-3.87943e-06
-6.1956e-06
-3.60552e-06
-6.6951e-06
-3.26379e-06
-7.07655e-06
-2.855e-06
-7.30169e-06
-2.38697e-06
-7.32738e-06
-1.87654e-06
-7.10783e-06
-1.35118e-06
-6.59829e-06
-8.4946e-07
-5.76007e-06
-4.19908e-07
-4.5665e-06
-1.17859e-07
-3.00895e-06
-1.104e-06
-1.07696e-07
1.11519e-06
-3.80705e-07
3.0071e-06
-7.63536e-07
4.52659e-06
-1.20367e-06
5.67258e-06
-1.65726e-06
6.46927e-06
-2.09137e-06
6.95526e-06
-2.48406e-06
7.17599e-06
-2.82308e-06
7.17802e-06
-3.10388e-06
7.00506e-06
-3.32757e-06
6.69571e-06
-3.49902e-06
6.28256e-06
-3.62532e-06
5.79208e-06
-3.7146e-06
5.24507e-06
-3.7752e-06
4.65738e-06
-3.81504e-06
4.04066e-06
-3.84129e-06
3.40314e-06
-3.8601e-06
2.75033e-06
-3.87648e-06
2.08561e-06
-3.89419e-06
1.41081e-06
-3.91565e-06
7.26643e-07
-3.94193e-06
3.31594e-08
-3.97261e-06
-6.69835e-07
-4.00574e-06
-1.38235e-06
-4.03775e-06
-2.10375e-06
-4.06331e-06
-2.83218e-06
-4.07537e-06
-3.56396e-06
-4.06515e-06
-4.29275e-06
-4.02232e-06
-5.0087e-06
-3.93543e-06
-5.69732e-06
-3.79263e-06
-6.3384e-06
-3.58285e-06
-6.90487e-06
-3.29754e-06
-7.36187e-06
-2.93287e-06
-7.66636e-06
-2.49258e-06
-7.76766e-06
-1.99093e-06
-7.60949e-06
-1.45531e-06
-7.1339e-06
-9.278e-07
-6.28758e-06
-4.64503e-07
-5.0298e-06
-1.31994e-07
-3.34146e-06
-1.23599e-06
-1.21666e-07
1.23686e-06
-4.24059e-07
3.30949e-06
-8.37764e-07
4.94029e-06
-1.29887e-06
6.13369e-06
-1.75652e-06
6.92692e-06
-2.1751e-06
7.37384e-06
-2.53336e-06
7.53426e-06
-2.82191e-06
7.46658e-06
-3.04019e-06
7.22334e-06
-3.19356e-06
6.84908e-06
-3.29089e-06
6.3799e-06
-3.34279e-06
5.84398e-06
-3.36027e-06
5.26255e-06
-3.35392e-06
4.65103e-06
-3.33342e-06
4.02016e-06
-3.30724e-06
3.37696e-06
-3.2825e-06
2.72559e-06
-3.26493e-06
2.06804e-06
-3.25884e-06
1.40473e-06
-3.26714e-06
7.34941e-07
-3.29125e-06
5.72631e-08
-3.33106e-06
-6.30021e-07
-3.38487e-06
-1.32855e-06
-3.44918e-06
-2.03943e-06
-3.51863e-06
-2.76274e-06
-3.58575e-06
-3.49684e-06
-3.64092e-06
-4.23759e-06
-3.67235e-06
-4.97726e-06
-3.66632e-06
-5.70334e-06
-3.60774e-06
-6.39698e-06
-3.48123e-06
-7.03138e-06
-3.27292e-06
-7.57018e-06
-2.97304e-06
-7.96624e-06
-2.57945e-06
-8.16126e-06
-2.10177e-06
-8.08717e-06
-1.5656e-06
-7.67007e-06
-1.01571e-06
-6.83747e-06
-5.16648e-07
-5.52886e-06
-1.49058e-07
-3.70905e-06
-1.38505e-06
-1.39806e-07
1.37667e-06
-4.78434e-07
3.64812e-06
-9.27038e-07
5.3889e-06
-1.40702e-06
6.61368e-06
-1.85975e-06
7.37965e-06
-2.24794e-06
7.76203e-06
-2.55292e-06
7.83924e-06
-2.77021e-06
7.68386e-06
-2.90496e-06
7.35809e-06
-2.96808e-06
6.9122e-06
-2.97329e-06
6.3851e-06
-2.93506e-06
5.80575e-06
-2.86739e-06
5.19488e-06
-2.78303e-06
4.56668e-06
-2.69318e-06
3.93031e-06
-2.60732e-06
3.2911e-06
-2.53327e-06
2.65153e-06
-2.47723e-06
2.012e-06
-2.44387e-06
1.37138e-06
-2.43641e-06
7.27479e-07
-2.45659e-06
7.74472e-08
-2.50467e-06
-5.81938e-07
-2.5793e-06
-1.25392e-06
-2.67735e-06
-1.94138e-06
-2.79368e-06
-2.64641e-06
-2.92087e-06
-3.36965e-06
-3.04896e-06
-4.10949e-06
-3.16521e-06
-4.86102e-06
-3.25403e-06
-5.61452e-06
-3.29733e-06
-6.35368e-06
-3.27527e-06
-7.05344e-06
-3.16796e-06
-7.67749e-06
-2.95825e-06
-8.17594e-06
-2.63593e-06
-8.48358e-06
-2.20318e-06
-8.51991e-06
-1.68104e-06
-8.19222e-06
-1.11513e-06
-7.40338e-06
-5.78777e-07
-6.06521e-06
-1.70216e-07
-4.11761e-06
-1.55526e-06
-1.64056e-07
1.54072e-06
-5.47978e-07
4.03204e-06
-1.03534e-06
5.87625e-06
-1.52888e-06
7.10721e-06
-1.96216e-06