/*--------------------------------*- C++ -*----------------------------------*\
| =========                 |                                                 |
| \\      /  F ield         | OpenFOAM: The Open Source CFD Toolbox           |
|  \\    /   O peration     | Version:  2506                                  |
|   \\  /    A nd           | Website:  www.openfoam.com                      |
|    \\/     M anipulation  |                                                 |
\*---------------------------------------------------------------------------*/
FoamFile
{
    version     2.0;
    format      ascii;
    arch        "LSB;label=32;scalar=64";
    class       volVectorField;
    location    "9.125";
    object      diffU;
}
// * * * * * * * * * * * * * * * * * * * * * * * * * * * * * * * * * * * * * //

dimensions      [0 1 -1 0 0 0 0];

internalField   nonuniform List<vector> 
400
(
(0 0 0)
(2.13163e-14 -1.88074e-13 0)
(1.63203e-14 -1.46604e-13 0)
(1.67644e-14 -1.56201e-13 0)
(1.64313e-14 -1.54034e-13 0)
(1.66533e-14 -1.54456e-13 0)
(1.60982e-14 -1.54407e-13 0)
(1.60982e-14 -1.54452e-13 0)
(1.59872e-14 -1.54466e-13 0)
(1.62093e-14 -1.54617e-13 0)
(1.59872e-14 -1.54656e-13 0)
(1.62093e-14 -1.54748e-13 0)
(1.63203e-14 -1.54591e-13 0)
(1.63203e-14 -1.54413e-13 0)
(1.57652e-14 -1.54435e-13 0)
(1.57652e-14 -1.54548e-13 0)
(1.59872e-14 -1.54671e-13 0)
(1.60982e-14 -1.54612e-13 0)
(1.59872e-14 -1.54533e-13 0)
(1.59872e-14 -1.54589e-13 0)
(4.4964e-14 -1.40725e-13 0)
(6.43929e-15 -1.57455e-13 0)
(1.53211e-14 -1.53941e-13 0)
(1.4877e-14 -1.54639e-13 0)
(1.4877e-14 -1.54504e-13 0)
(1.5099e-14 -1.54566e-13 0)
(1.57652e-14 -1.5461e-13 0)
(1.55431e-14 -1.5462e-13 0)
(1.59872e-14 -1.54594e-13 0)
(1.59872e-14 -1.54586e-13 0)
(1.57652e-14 -1.54493e-13 0)
(1.53211e-14 -1.5455e-13 0)
(1.53211e-14 -1.54523e-13 0)
(1.53211e-14 -1.54435e-13 0)
(1.57652e-14 -1.54515e-13 0)
(1.57652e-14 -1.54555e-13 0)
(1.59872e-14 -1.54672e-13 0)
(1.57652e-14 -1.54669e-13 0)
(1.55431e-14 -1.54667e-13 0)
(1.57652e-14 -1.54685e-13 0)
(6.43929e-15 -2.95055e-13 0)
(1.88738e-14 -1.2478e-13 0)
(1.57652e-14 -1.61869e-13 0)
(1.60982e-14 -1.5315e-13 0)
(1.62093e-14 -1.55119e-13 0)
(1.59872e-14 -1.54725e-13 0)
(1.60982e-14 -1.54695e-13 0)
(1.57652e-14 -1.54497e-13 0)
(1.57652e-14 -1.54496e-13 0)
(1.57652e-14 -1.54436e-13 0)
(1.57652e-14 -1.54509e-13 0)
(1.59872e-14 -1.54487e-13 0)
(1.57652e-14 -1.54548e-13 0)
(1.62093e-14 -1.54559e-13 0)
(1.60982e-14 -1.54603e-13 0)
(1.59872e-14 -1.54606e-13 0)
(1.60982e-14 -1.54613e-13 0)
(1.60982e-14 -1.54649e-13 0)
(1.62093e-14 -1.54709e-13 0)
(1.59872e-14 -1.54715e-13 0)
(1.9984e-15 -5.74598e-14 0)
(2.0095e-14 -1.75936e-13 0)
(1.59872e-14 -1.49561e-13 0)
(1.60982e-14 -1.55615e-13 0)
(1.59872e-14 -1.5419e-13 0)
(1.55431e-14 -1.54515e-13 0)
(1.53211e-14 -1.54491e-13 0)
(1.55431e-14 -1.54511e-13 0)
(1.55431e-14 -1.54468e-13 0)
(1.59872e-14 -1.54497e-13 0)
(1.55431e-14 -1.54661e-13 0)
(1.59872e-14 -1.54677e-13 0)
(1.55431e-14 -1.54627e-13 0)
(1.57652e-14 -1.54658e-13 0)
(1.59872e-14 -1.54627e-13 0)
(1.59872e-14 -1.54706e-13 0)
(1.60982e-14 -1.54641e-13 0)
(1.59872e-14 -1.54551e-13 0)
(1.59872e-14 -1.54592e-13 0)
(1.59872e-14 -1.54672e-13 0)
(3.57492e-14 -1.51763e-13 0)
(9.99201e-15 -1.54761e-13 0)
(1.62093e-14 -1.54461e-13 0)
(1.57652e-14 -1.5445e-13 0)
(1.57652e-14 -1.5436e-13 0)
(1.60982e-14 -1.54452e-13 0)
(1.62093e-14 -1.54547e-13 0)
(1.60982e-14 -1.54715e-13 0)
(1.59872e-14 -1.54697e-13 0)
(1.60982e-14 -1.54562e-13 0)
(1.60982e-14 -1.54485e-13 0)
(1.59872e-14 -1.54513e-13 0)
(1.62093e-14 -1.54584e-13 0)
(1.62093e-14 -1.54793e-13 0)
(1.62093e-14 -1.54777e-13 0)
(1.62093e-14 -1.54738e-13 0)
(1.60982e-14 -1.5464e-13 0)
(1.60982e-14 -1.54532e-13 0)
(1.63203e-14 -1.54583e-13 0)
(1.62093e-14 -1.54625e-13 0)
(-2.88658e-15 -2.48293e-13 0)
(1.9984e-14 -1.34343e-13 0)
(1.5099e-14 -1.59447e-13 0)
(1.53211e-14 -1.53604e-13 0)
(1.55431e-14 -1.5491e-13 0)
(1.55431e-14 -1.54607e-13 0)
(1.57652e-14 -1.5458e-13 0)
(1.59872e-14 -1.54523e-13 0)
(1.55431e-14 -1.54591e-13 0)
(1.57652e-14 -1.54604e-13 0)
(1.59872e-14 -1.54602e-13 0)
(1.59872e-14 -1.5467e-13 0)
(1.63203e-14 -1.54727e-13 0)
(1.60982e-14 -1.54733e-13 0)
(1.60982e-14 -1.54706e-13 0)
(1.57652e-14 -1.54611e-13 0)
(1.57652e-14 -1.54556e-13 0)
(1.57652e-14 -1.546e-13 0)
(1.60982e-14 -1.54593e-13 0)
(1.60982e-14 -1.54557e-13 0)
(1.67644e-14 -2.95047e-14 0)
(1.69864e-14 -1.81952e-13 0)
(1.66533e-14 -1.48166e-13 0)
(1.62093e-14 -1.55984e-13 0)
(1.60982e-14 -1.54353e-13 0)
(1.63203e-14 -1.54658e-13 0)
(1.60982e-14 -1.54538e-13 0)
(1.60982e-14 -1.54533e-13 0)
(1.62093e-14 -1.54643e-13 0)
(1.63203e-14 -1.54747e-13 0)
(1.63203e-14 -1.54785e-13 0)
(1.63203e-14 -1.54776e-13 0)
(1.63203e-14 -1.54735e-13 0)
(1.60982e-14 -1.54511e-13 0)
(1.60982e-14 -1.54459e-13 0)
(1.60982e-14 -1.54546e-13 0)
(1.57652e-14 -1.54626e-13 0)
(1.59872e-14 -1.5466e-13 0)
(1.59872e-14 -1.54573e-13 0)
(1.60982e-14 -1.54522e-13 0)
(2.53131e-14 -2.05004e-13 0)
(1.19904e-14 -1.43737e-13 0)
(1.55431e-14 -1.5703e-13 0)
(1.55431e-14 -1.54077e-13 0)
(1.55431e-14 -1.54834e-13 0)
(1.57652e-14 -1.54697e-13 0)
(1.57652e-14 -1.54679e-13 0)
(1.60982e-14 -1.54624e-13 0)
(1.59872e-14 -1.54663e-13 0)
(1.59872e-14 -1.54686e-13 0)
(1.59872e-14 -1.5469e-13 0)
(1.53211e-14 -1.54629e-13 0)
(1.55431e-14 -1.54604e-13 0)
(1.55431e-14 -1.54514e-13 0)
(1.57652e-14 -1.54523e-13 0)
(1.59872e-14 -1.54654e-13 0)
(1.57652e-14 -1.54742e-13 0)
(1.59872e-14 -1.54647e-13 0)
(1.59872e-14 -1.5455e-13 0)
(1.59872e-14 -1.54525e-13 0)
(8.88178e-15 -2.10835e-13 0)
(1.90958e-14 -1.42547e-13 0)
(1.66533e-14 -1.57611e-13 0)
(1.62093e-14 -1.54187e-13 0)
(1.62093e-14 -1.54934e-13 0)
(1.59872e-14 -1.5472e-13 0)
(1.57652e-14 -1.54741e-13 0)
(1.59872e-14 -1.54693e-13 0)
(1.60982e-14 -1.54603e-13 0)
(1.63203e-14 -1.54563e-13 0)
(1.63203e-14 -1.54519e-13 0)
(1.63203e-14 -1.54509e-13 0)
(1.63203e-14 -1.54601e-13 0)
(1.60982e-14 -1.54776e-13 0)
(1.63203e-14 -1.54789e-13 0)
(1.60982e-14 -1.54671e-13 0)
(1.59872e-14 -1.54625e-13 0)
(1.60982e-14 -1.54629e-13 0)
(1.59872e-14 -1.54651e-13 0)
(1.60982e-14 -1.54599e-13 0)
(2.56462e-14 -3.03203e-14 0)
(1.46549e-14 -1.81458e-13 0)
(1.65423e-14 -1.48219e-13 0)
(1.62093e-14 -1.55875e-13 0)
(1.59872e-14 -1.54166e-13 0)
(1.55431e-14 -1.54526e-13 0)
(1.55431e-14 -1.54584e-13 0)
(1.55431e-14 -1.54695e-13 0)
(1.55431e-14 -1.54789e-13 0)
(1.55431e-14 -1.54766e-13 0)
(1.55431e-14 -1.54689e-13 0)
(1.59872e-14 -1.54667e-13 0)
(1.62093e-14 -1.54612e-13 0)
(1.62093e-14 -1.54664e-13 0)
(1.59872e-14 -1.54629e-13 0)
(1.57652e-14 -1.54625e-13 0)
(1.60982e-14 -1.54615e-13 0)
(1.62093e-14 -1.54625e-13 0)
(1.62093e-14 -1.54639e-13 0)
(1.59872e-14 -1.54574e-13 0)
(1.02141e-14 -2.9064e-13 0)
(1.64313e-14 -1.24425e-13 0)
(1.55431e-14 -1.61218e-13 0)
(1.60982e-14 -1.52737e-13 0)
(1.59872e-14 -1.54661e-13 0)
(1.60982e-14 -1.54337e-13 0)
(1.59872e-14 -1.54546e-13 0)
(1.59872e-14 -1.54727e-13 0)
(1.62093e-14 -1.54771e-13 0)
(1.59872e-14 -1.54739e-13 0)
(1.59872e-14 -1.54758e-13 0)
(1.59872e-14 -1.54837e-13 0)
(1.57652e-14 -1.54771e-13 0)
(1.55431e-14 -1.54671e-13 0)
(1.59872e-14 -1.54646e-13 0)
(1.57652e-14 -1.54644e-13 0)
(1.57652e-14 -1.54676e-13 0)
(1.57652e-14 -1.54649e-13 0)
(1.59872e-14 -1.54582e-13 0)
(1.60982e-14 -1.54542e-13 0)
(2.25375e-14 -5.80645e-14 0)
(1.63203e-14 -1.75354e-13 0)
(1.73195e-14 -1.49636e-13 0)
(1.57652e-14 -1.55482e-13 0)
(1.64313e-14 -1.54238e-13 0)
(1.62093e-14 -1.54547e-13 0)
(1.66533e-14 -1.54488e-13 0)
(1.65423e-14 -1.54638e-13 0)
(1.63203e-14 -1.54594e-13 0)
(1.63203e-14 -1.54537e-13 0)
(1.64313e-14 -1.54506e-13 0)
(1.65423e-14 -1.54597e-13 0)
(1.63203e-14 -1.54661e-13 0)
(1.60982e-14 -1.5468e-13 0)
(1.59872e-14 -1.5468e-13 0)
(1.59872e-14 -1.54587e-13 0)
(1.60982e-14 -1.54638e-13 0)
(1.59872e-14 -1.54614e-13 0)
(1.62093e-14 -1.5452e-13 0)
(1.59872e-14 -1.54538e-13 0)
(9.32587e-15 -1.59667e-13 0)
(1.4877e-14 -1.53327e-13 0)
(1.35447e-14 -1.54676e-13 0)
(1.55431e-14 -1.54447e-13 0)
(1.5099e-14 -1.54557e-13 0)
(1.53211e-14 -1.54583e-13 0)
(1.53211e-14 -1.54624e-13 0)
(1.55431e-14 -1.54577e-13 0)
(1.53211e-14 -1.54565e-13 0)
(1.53211e-14 -1.54586e-13 0)
(1.55431e-14 -1.54611e-13 0)
(1.55431e-14 -1.54574e-13 0)
(1.55431e-14 -1.54554e-13 0)
(1.55431e-14 -1.54628e-13 0)
(1.55431e-14 -1.54689e-13 0)
(1.55431e-14 -1.54653e-13 0)
(1.57652e-14 -1.54618e-13 0)
(1.53211e-14 -1.54634e-13 0)
(1.55431e-14 -1.54621e-13 0)
(1.57652e-14 -1.54603e-13 0)
(1.90958e-14 -2.6114e-13 0)
(1.67644e-14 -1.31264e-13 0)
(1.76525e-14 -1.60031e-13 0)
(1.59872e-14 -1.53441e-13 0)
(1.63203e-14 -1.5495e-13 0)
(1.62093e-14 -1.54624e-13 0)
(1.63203e-14 -1.54723e-13 0)
(1.62093e-14 -1.54615e-13 0)
(1.62093e-14 -1.54515e-13 0)
(1.62093e-14 -1.54536e-13 0)
(1.62093e-14 -1.54754e-13 0)
(1.60982e-14 -1.54786e-13 0)
(1.63203e-14 -1.54662e-13 0)
(1.64313e-14 -1.54597e-13 0)
(1.66533e-14 -1.54568e-13 0)
(1.62093e-14 -1.54564e-13 0)
(1.63203e-14 -1.54573e-13 0)
(1.62093e-14 -1.54672e-13 0)
(1.62093e-14 -1.54732e-13 0)
(1.63203e-14 -1.54679e-13 0)
(2.44249e-15 1.09076e-14 0)
(1.87628e-14 -1.90395e-13 0)
(1.46549e-14 -1.46328e-13 0)
(1.63203e-14 -1.56395e-13 0)
(1.57652e-14 -1.54131e-13 0)
(1.57652e-14 -1.54625e-13 0)
(1.57652e-14 -1.54509e-13 0)
(1.55431e-14 -1.54513e-13 0)
(1.55431e-14 -1.5453e-13 0)
(1.57652e-14 -1.5459e-13 0)
(1.57652e-14 -1.54666e-13 0)
(1.57652e-14 -1.547e-13 0)
(1.55431e-14 -1.54655e-13 0)
(1.55431e-14 -1.54614e-13 0)
(1.57652e-14 -1.546e-13 0)
(1.59872e-14 -1.54685e-13 0)
(1.60982e-14 -1.54558e-13 0)
(1.59872e-14 -1.54531e-13 0)
(1.59872e-14 -1.54604e-13 0)
(1.62093e-14 -1.5461e-13 0)
(3.91909e-14 -2.56495e-13 0)
(9.10383e-15 -1.32827e-13 0)
(1.60982e-14 -1.59776e-13 0)
(1.5099e-14 -1.53555e-13 0)
(1.55431e-14 -1.54789e-13 0)
(1.55431e-14 -1.54502e-13 0)
(1.53211e-14 -1.54608e-13 0)
(1.55431e-14 -1.54632e-13 0)
(1.55431e-14 -1.54678e-13 0)
(1.57652e-14 -1.54722e-13 0)
(1.55431e-14 -1.5468e-13 0)
(1.57652e-14 -1.54672e-13 0)
(1.59872e-14 -1.54739e-13 0)
(1.57652e-14 -1.5473e-13 0)
(1.62093e-14 -1.54707e-13 0)
(1.60982e-14 -1.54703e-13 0)
(1.57652e-14 -1.54598e-13 0)
(1.59872e-14 -1.54563e-13 0)
(1.59872e-14 -1.54578e-13 0)
(1.59872e-14 -1.54607e-13 0)
(-4.21885e-15 -1.89831e-13 0)
(2.26485e-14 -1.46722e-13 0)
(1.62093e-14 -1.56652e-13 0)
(1.64313e-14 -1.54349e-13 0)
(1.62093e-14 -1.54747e-13 0)
(1.65423e-14 -1.54523e-13 0)
(1.65423e-14 -1.54457e-13 0)
(1.63203e-14 -1.54411e-13 0)
(1.60982e-14 -1.54457e-13 0)
(1.59872e-14 -1.54606e-13 0)
(1.57652e-14 -1.54745e-13 0)
(1.57652e-14 -1.54792e-13 0)
(1.55431e-14 -1.54843e-13 0)
(1.55431e-14 -1.54847e-13 0)
(1.53211e-14 -1.54786e-13 0)
(1.55431e-14 -1.54643e-13 0)
(1.59872e-14 -1.54676e-13 0)
(1.57652e-14 -1.54647e-13 0)
(1.59872e-14 -1.5462e-13 0)
(1.60982e-14 -1.54591e-13 0)
(5.32907e-15 -2.22166e-14 0)
(1.78746e-14 -1.82905e-13 0)
(1.5099e-14 -1.47864e-13 0)
(1.57652e-14 -1.56044e-13 0)
(1.55431e-14 -1.54226e-13 0)
(1.57652e-14 -1.54604e-13 0)
(1.53211e-14 -1.54467e-13 0)
(1.59872e-14 -1.54472e-13 0)
(1.62093e-14 -1.54474e-13 0)
(1.64313e-14 -1.54611e-13 0)
(1.66533e-14 -1.5466e-13 0)
(1.62093e-14 -1.54645e-13 0)
(1.62093e-14 -1.54691e-13 0)
(1.64313e-14 -1.5479e-13 0)
(1.60982e-14 -1.54812e-13 0)
(1.62093e-14 -1.54719e-13 0)
(1.59872e-14 -1.54642e-13 0)
(1.57652e-14 -1.5465e-13 0)
(1.59872e-14 -1.54639e-13 0)
(1.60982e-14 -1.54506e-13 0)
(4.81837e-14 -2.08123e-13 0)
(7.99361e-15 -1.43664e-13 0)
(1.67644e-14 -1.57181e-13 0)
(1.55431e-14 -1.54135e-13 0)
(1.57652e-14 -1.54744e-13 0)
(1.59872e-14 -1.54672e-13 0)
(1.60982e-14 -1.5483e-13 0)
(1.62093e-14 -1.54856e-13 0)
(1.63203e-14 -1.54764e-13 0)
(1.64313e-14 -1.54683e-13 0)
(1.60982e-14 -1.54596e-13 0)
(1.62093e-14 -1.54509e-13 0)
(1.59872e-14 -1.54497e-13 0)
(1.60982e-14 -1.54536e-13 0)
(1.55431e-14 -1.54615e-13 0)
(1.55431e-14 -1.54652e-13 0)
(1.57652e-14 -1.54657e-13 0)
(1.59872e-14 -1.54693e-13 0)
(1.57652e-14 -1.54684e-13 0)
(1.57652e-14 -1.54614e-13 0)
(2.88658e-15 -2.419e-13 0)
(2.03171e-14 -1.36074e-13 0)
(1.68754e-14 -1.59078e-13 0)
(1.69864e-14 -1.5374e-13 0)
(1.67644e-14 -1.54816e-13 0)
(1.67644e-14 -1.54562e-13 0)
(1.66533e-14 -1.54659e-13 0)
(1.65423e-14 -1.54642e-13 0)
(1.63203e-14 -1.54625e-13 0)
(1.63203e-14 -1.54582e-13 0)
(1.63203e-14 -1.54594e-13 0)
(1.60982e-14 -1.54555e-13 0)
(1.63203e-14 -1.54536e-13 0)
(1.65423e-14 -1.54546e-13 0)
(1.65423e-14 -1.54629e-13 0)
(1.63203e-14 -1.54658e-13 0)
(1.62093e-14 -1.5468e-13 0)
(1.60982e-14 -1.54646e-13 0)
(1.63203e-14 -1.54652e-13 0)
(1.62093e-14 -1.54668e-13 0)
)
;

boundaryField
{
    movingWall
    {
        type            calculated;
        value           uniform (1.59872e-14 -1.54587e-13 0);
    }
    fixedWalls
    {
        type            calculated;
        value           uniform (1.59872e-14 -1.54587e-13 0);
    }
    frontAndBack
    {
        type            empty;
    }
}


// ************************************************************************* //
