/*--------------------------------*- C++ -*----------------------------------*\
| =========                 |                                                 |
| \\      /  F ield         | OpenFOAM: The Open Source CFD Toolbox           |
|  \\    /   O peration     | Version:  2506                                  |
|   \\  /    A nd           | Website:  www.openfoam.com                      |
|    \\/     M anipulation  |                                                 |
\*---------------------------------------------------------------------------*/
FoamFile
{
    version     2.0;
    format      ascii;
    arch        "LSB;label=32;scalar=64";
    class       volScalarField;
    location    "9.125";
    object      divU;
}
// * * * * * * * * * * * * * * * * * * * * * * * * * * * * * * * * * * * * * //

dimensions      [0 0 -1 0 0 0 0];

internalField   nonuniform List<scalar> 
400
(
1.57751e-11
-2.00919e-12
4.02204e-13
-1.39477e-13
3.65544e-14
-1.18491e-14
-3.85372e-14
1.02933e-14
1.14572e-14
-2.82505e-15
2.57519e-15
1.4787e-14
6.08024e-15
-2.15618e-14
-3.17158e-14
7.10293e-15
3.72979e-14
1.65367e-14
-2.96245e-14
0
-2.75116e-11
3.34443e-12
-6.90613e-13
2.74024e-13
-7.19894e-14
1.5452e-14
4.1163e-14
5.79263e-15
6.26853e-14
-3.89719e-14
-9.81395e-15
-4.04628e-14
1.03977e-14
4.51027e-14
5.65342e-15
1.34101e-15
1.59724e-14
-4.1423e-14
7.01317e-15
2.71051e-14
7.64363e-12
-8.8892e-13
1.53933e-13
-6.75197e-14
4.0689e-14
-6.60921e-15
-2.82296e-14
-3.75186e-14
2.10398e-14
-2.93231e-15
-2.6688e-14
2.81636e-14
-2.37352e-17
2.28409e-14
-5.97878e-14
1.33584e-14
-7.98375e-15
5.16405e-14
-1.26165e-14
-2.71051e-14
1.33357e-11
-1.58308e-12
2.98411e-13
-1.16184e-13
-1.88725e-14
-6.40697e-15
-4.06041e-14
2.1955e-14
8.95095e-16
-1.55462e-14
2.83341e-15
-1.5263e-15
-3.07194e-14
-5.66055e-16
3.12701e-14
1.17274e-16
1.64628e-14
-1.79409e-14
-3.58089e-17
2.71051e-14
-1.77267e-11
2.1968e-12
-4.19148e-13
1.39175e-13
-9.49523e-15
1.15569e-14
4.7019e-15
-3.34601e-14
-1.13856e-14
8.17081e-16
8.73231e-15
-7.76029e-16
1.34383e-14
-8.02813e-15
-3.74483e-15
9.66886e-15
-2.92667e-14
3.14113e-14
-1.96208e-16
-5.42101e-14
1.07065e-11
-9.01732e-13
1.28968e-13
-9.54966e-14
4.53389e-14
1.80515e-14
5.65133e-15
1.18833e-14
-3.30387e-14
9.42836e-15
3.28865e-14
1.0882e-17
2.54204e-14
-6.8595e-15
9.32769e-16
-2.53081e-14
-7.33949e-16
4.56569e-14
2.78842e-14
-2.71051e-14
4.49944e-12
-9.46721e-13
1.26742e-13
-6.15158e-14
-1.32356e-15
-1.80328e-14
-3.13811e-14
2.88974e-14
-1.31103e-14
1.30326e-15
-3.00352e-15
4.07172e-15
1.06354e-14
-1.2074e-14
1.9285e-14
-2.96846e-14
-1.93339e-14
-1.3237e-14
3.22169e-14
-2.71051e-14
-1.75912e-11
2.96664e-12
-6.00897e-13
1.72369e-13
-5.93963e-14
3.00132e-14
2.96626e-14
1.28347e-14
-3.6188e-14
1.96711e-14
-5.77042e-14
3.07457e-14
2.40198e-14
-1.14935e-14
1.33878e-14
-1.51413e-14
7.87455e-15
-1.00918e-14
-2.66483e-15
0
1.70762e-11
-2.97385e-12
5.78381e-13
-1.97185e-13
3.4516e-14
-7.18272e-15
1.21417e-14
5.66093e-15
3.24923e-14
-1.54636e-14
-3.36352e-15
-1.64359e-16
-3.85841e-15
-2.64984e-14
2.78792e-15
-1.22092e-14
-6.47849e-15
-7.90288e-15
-1.15096e-14
0
-7.12863e-12
8.9837e-13
-1.88868e-13
8.32954e-14
-4.66078e-14
4.0507e-15
3.16244e-14
2.29203e-15
-1.14979e-14
-5.89199e-15
-1.56257e-16
4.83908e-14
6.29097e-15
-1.60326e-14
-9.99308e-15
-9.43455e-15
1.55461e-14
1.71622e-14
-3.16923e-14
-2.71051e-14
-3.33392e-12
1.15646e-12
-1.95018e-13
1.22645e-13
-2.66949e-14
2.90715e-14
-1.29865e-14
3.51267e-14
8.02054e-15
-1.01323e-14
1.81146e-14
-5.29887e-14
1.34349e-15
9.43897e-15
3.90628e-14
-5.98666e-14
-1.38487e-14
4.53231e-14
7.24208e-15
0
1.37694e-11
-3.41425e-12
5.94685e-13
-2.65208e-13
3.79425e-14
4.44904e-15
3.33512e-14
-3.11259e-14
1.56182e-15
3.22434e-14
5.71804e-15
2.74968e-14
-4.10504e-15
-1.33845e-14
-1.95059e-14
-6.61142e-15
4.61231e-14
-7.40222e-15
3.2962e-15
-2.71051e-14
-2.10877e-11
4.84366e-12
-9.5987e-13
3.45457e-13
-6.03789e-14
-3.2145e-15
-1.72829e-14
5.25283e-14
-4.47939e-14
5.21422e-15
3.51032e-14
-1.85623e-14
-4.22462e-15
-5.09165e-15
1.88676e-14
2.28066e-14
-2.87744e-14
-1.31881e-14
9.19001e-15
5.42101e-14
1.74557e-11
-3.87761e-12
7.69403e-13
-3.37204e-13
3.6376e-14
-7.41276e-15
2.13741e-14
4.66804e-15
1.29228e-14
4.83388e-15
-2.45594e-14
2.30897e-14
1.27855e-14
2.3462e-14
-2.64164e-14
-3.46142e-14
4.2991e-15
-2.87629e-15
1.09277e-14
-5.42101e-14
-5.69206e-13
1.06178e-12
-2.07922e-13
8.50523e-14
-5.59428e-14
4.81127e-15
-2.13778e-14
2.95741e-15
-3.31319e-15
1.34004e-14
9.99746e-15
-1.9746e-14
5.1524e-15
1.02112e-14
-1.32209e-14
3.2802e-14
1.78478e-15
8.02502e-15
5.34895e-14
-2.71051e-14
-1.84314e-11
2.04098e-12
-4.27191e-13
1.54136e-13
-9.07122e-15
1.49395e-14
1.0964e-14
1.31448e-14
3.11255e-14
1.17647e-14
2.09804e-15
-1.90534e-15
4.05934e-14
-1.30623e-14
2.24016e-14
-4.42711e-14
-1.00047e-14
-3.59606e-15
-2.36287e-15
0
2.20906e-11
-2.99385e-12
5.74223e-13
-2.57354e-13
7.43952e-14
4.72092e-15
-1.96895e-15
2.03335e-15
-2.97703e-14
2.28442e-14
-5.01306e-14
8.20357e-16
-8.86387e-15
-1.90843e-14
-1.52295e-14
3.54501e-14
3.98094e-14
-1.2314e-14
1.86647e-14
-2.71051e-14
-2.71051e-12
1.29631e-12
-2.91832e-13
8.92794e-14
-3.36878e-14
-1.01792e-14
-1.21822e-14
3.88584e-14
-6.33176e-15
4.22893e-14
-8.1451e-15
2.08178e-15
2.57555e-14
3.90846e-14
1.8865e-15
7.46682e-15
-1.24843e-14
-1.68757e-14
1.22533e-14
-2.71051e-14
-1.95698e-11
1.56128e-12
-3.56159e-13
1.29942e-13
-1.14368e-14
-5.97224e-15
2.28238e-14
-5.27822e-15
5.64198e-15
-3.61551e-14
-1.57537e-15
-1.59723e-14
-1.28864e-14
-1.7851e-14
-6.91897e-15
4.06634e-14
3.79589e-14
-4.35222e-14
1.09056e-14
5.42101e-14
1.32002e-11
-1.54499e-12
3.79471e-13
-1.35525e-13
0
0
0
-2.71051e-14
0
0
0
0
0
2.71051e-14
-2.71051e-14
-2.71051e-14
0
5.42101e-14
2.71051e-14
-5.42101e-14
)
;

boundaryField
{
    movingWall
    {
        type            extrapolatedCalculated;
        value           nonuniform List<scalar> 
20
(
1.32002e-11
-1.54499e-12
3.79471e-13
-1.35525e-13
0
0
0
-2.71051e-14
0
0
0
0
0
2.71051e-14
-2.71051e-14
-2.71051e-14
0
5.42101e-14
2.71051e-14
-5.42101e-14
)
;
    }
    fixedWalls
    {
        type            extrapolatedCalculated;
        value           nonuniform List<scalar> 
60
(
1.57751e-11
-2.75116e-11
7.64363e-12
1.33357e-11
-1.77267e-11
1.07065e-11
4.49944e-12
-1.75912e-11
1.70762e-11
-7.12863e-12
-3.33392e-12
1.37694e-11
-2.10877e-11
1.74557e-11
-5.69206e-13
-1.84314e-11
2.20906e-11
-2.71051e-12
-1.95698e-11
1.32002e-11
0
2.71051e-14
-2.71051e-14
2.71051e-14
-5.42101e-14
-2.71051e-14
-2.71051e-14
0
0
-2.71051e-14
0
-2.71051e-14
5.42101e-14
-5.42101e-14
-2.71051e-14
0
-2.71051e-14
-2.71051e-14
5.42101e-14
-5.42101e-14
1.57751e-11
-2.00919e-12
4.02204e-13
-1.39477e-13
3.65544e-14
-1.18491e-14
-3.85372e-14
1.02933e-14
1.14572e-14
-2.82505e-15
2.57519e-15
1.4787e-14
6.08024e-15
-2.15618e-14
-3.17158e-14
7.10293e-15
3.72979e-14
1.65367e-14
-2.96245e-14
0
)
;
    }
    frontAndBack
    {
        type            empty;
    }
}


// ************************************************************************* //
