/*--------------------------------*- C++ -*----------------------------------*\
| =========                 |                                                 |
| \\      /  F ield         | OpenFOAM: The Open Source CFD Toolbox           |
|  \\    /   O peration     | Version:  2506                                  |
|   \\  /    A nd           | Website:  www.openfoam.com                      |
|    \\/     M anipulation  |                                                 |
\*---------------------------------------------------------------------------*/
FoamFile
{
    version     2.0;
    format      ascii;
    arch        "LSB;label=32;scalar=64";
    class       volScalarField;
    location    "9.125";
    object      enstrophyField;
}
// * * * * * * * * * * * * * * * * * * * * * * * * * * * * * * * * * * * * * //

dimensions      [0 0 -2 0 0 0 0];

internalField   nonuniform List<scalar> 
400
(
5.84169e-23
1.01199e-22
5.25381e-24
2.56268e-25
2.03213e-26
6.97822e-28
9.26413e-32
1.16834e-27
1.35761e-28
1.06275e-27
8.57701e-29
1.84255e-27
3.84558e-27
2.44012e-27
8.26772e-28
4.66887e-28
2.00806e-29
9.53792e-29
1.59301e-27
1.36561e-29
1.00763e-25
5.51815e-25
4.76423e-26
4.26441e-28
5.93332e-28
2.49832e-27
1.45426e-29
4.13575e-28
5.64338e-30
6.92704e-28
1.67125e-27
2.90773e-28
7.44299e-28
2.92975e-31
2.19183e-27
2.44749e-27
6.42297e-29
1.68865e-31
1.55749e-27
1.5631e-28
2.28246e-23
7.12378e-23
4.25825e-24
1.60469e-25
3.53554e-26
1.1797e-28
2.96826e-27
1.97353e-28
3.81948e-27
1.39973e-27
2.42217e-28
3.63112e-27
5.89346e-28
1.78323e-27
5.0443e-28
5.32513e-31
4.93924e-28
6.71444e-28
5.67107e-28
3.10099e-28
1.08136e-23
3.45753e-23
2.00998e-24
9.49657e-26
1.82979e-26
4.52068e-28
1.06682e-31
3.07716e-28
3.30497e-28
2.70354e-27
1.01809e-27
5.99575e-30
1.81328e-30
9.77408e-34
1.16404e-29
4.0553e-28
1.20157e-28
5.12407e-28
7.29249e-29
1.65126e-28
2.83448e-25
3.63895e-26
9.73531e-27
4.17902e-27
3.61714e-28
1.76115e-28
3.24174e-27
2.39558e-27
1.17253e-28
2.26016e-28
2.91705e-27
4.91105e-29
9.31195e-27
2.7005e-27
2.33209e-28
8.31378e-28
1.14027e-27
1.62379e-29
6.6462e-28
2.81678e-28
1.48445e-23
3.34548e-23
1.90752e-24
9.10152e-26
8.11658e-27
2.25679e-28
3.52639e-29
5.82565e-31
1.94386e-27
6.53351e-31
5.65558e-28
2.22435e-27
1.98954e-29
4.26419e-28
7.71997e-28
1.12745e-28
1.52919e-27
1.27395e-27
1.70894e-27
3.05692e-28
2.39831e-23
6.10846e-23
3.16388e-24
2.26404e-25
8.78307e-27
1.03729e-27
7.86094e-29
7.07279e-28
1.17727e-27
8.54992e-28
2.93174e-28
6.43461e-27
3.2605e-27
5.93389e-27
2.7784e-28
1.39162e-28
6.54673e-29
1.19872e-27
9.59621e-29
3.16277e-29
4.94101e-24
1.04909e-23
5.34566e-25
2.41085e-26
6.74651e-27
4.68561e-27
1.89092e-27
1.39667e-30
2.1902e-28
4.45704e-28
1.60116e-29
3.71222e-29
6.63756e-29
3.30524e-29
9.91018e-29
2.40589e-28
3.08276e-31
1.84309e-28
7.42698e-29
1.46927e-28
9.8919e-24
1.27581e-23
8.09496e-25
2.27905e-26
3.23264e-27
1.87384e-28
3.48494e-30
4.52281e-27
2.25941e-27
1.95627e-27
5.288e-28
4.00717e-27
3.26965e-27
8.08772e-27
1.39017e-28
1.3485e-28
1.2473e-27
4.42198e-28
2.91819e-28
1.90509e-28
4.58592e-23
6.63415e-23
3.62831e-24
1.76853e-25
1.31202e-26
8.70829e-28
1.4283e-28
2.11105e-28
1.87526e-27
2.06238e-27
2.05399e-27
6.0614e-28
1.48687e-27
1.37885e-27
4.7937e-28
1.54714e-27
8.87953e-34
3.05234e-28
1.28561e-29
4.77869e-28
5.23941e-23
8.16582e-23
4.24154e-24
2.5197e-25
2.29255e-26
2.43393e-27
1.08763e-26
8.57981e-27
1.53251e-27
5.73443e-27
6.98929e-27
1.53877e-27
5.54941e-29
2.22627e-27
3.75274e-30
1.63547e-27
1.51512e-31
2.02116e-27
5.73546e-29
1.28055e-29
2.91073e-23
4.04505e-23
2.31085e-24
8.24338e-26
2.03758e-26
1.58898e-27
1.01802e-27
9.49675e-28
7.02396e-27
6.86637e-27
1.16498e-27
7.49022e-28
1.7583e-28
1.81067e-30
2.01486e-27
1.71058e-27
3.59119e-30
6.86985e-29
6.03019e-28
6.7601e-29
4.37055e-28
1.11392e-25
6.28129e-27
7.11266e-29
9.15023e-29
2.28124e-29
1.50304e-27
1.80927e-27
4.45976e-31
1.06275e-29
1.5348e-27
1.79356e-27
1.47087e-29
2.29219e-27
3.51224e-27
1.10788e-27
3.1792e-28
5.72593e-32
4.90287e-30
2.44776e-28
2.90184e-23
4.70866e-23
2.76886e-24
7.98693e-26
1.48804e-26
4.95008e-28
1.42018e-27
2.1538e-28
3.07367e-29
3.05159e-27
3.13477e-27
1.01296e-27
1.78499e-28
4.4983e-29
2.83574e-28
3.82958e-28
7.17595e-28
4.7261e-27
3.86774e-28
5.79666e-30
6.00932e-23
1.1197e-22
6.44301e-24
2.25734e-25
3.33747e-26
9.49067e-28
4.27636e-27
3.12603e-28
1.8877e-28
8.25832e-28
2.47324e-27
1.52629e-27
1.97148e-27
3.77045e-27
1.10703e-27
4.89395e-28
2.4236e-27
2.53932e-28
1.84728e-28
4.82054e-28
2.71159e-23
4.34268e-23
2.55948e-24
1.24317e-25
1.54827e-26
1.99792e-27
4.44953e-27
3.89444e-27
6.51335e-28
1.48159e-27
1.22144e-29
1.73173e-29
1.64204e-29
5.14757e-30
1.61608e-27
2.11479e-27
9.83008e-29
2.12972e-30
9.82305e-30
5.69003e-31
2.29452e-25
2.87113e-24
1.96702e-25
5.96479e-27
6.76115e-28
3.16821e-28
6.29994e-29
1.46959e-27
5.08161e-27
3.44555e-27
1.18792e-26
2.05054e-27
1.47221e-29
2.85848e-27
2.07253e-28
6.02658e-29
1.01941e-31
1.78731e-27
1.58028e-29
6.85483e-30
1.32456e-23
6.13166e-23
3.39243e-24
1.53924e-25
1.03662e-26
3.55606e-27
2.27156e-27
3.48819e-28
8.40775e-28
1.04735e-27
4.65621e-28
1.64301e-27
4.58821e-27
2.19654e-27
2.49919e-29
1.43739e-28
1.86708e-27
1.44871e-27
2.35247e-27
2.91668e-28
8.0695e-24
1.16312e-23
7.6487e-25
9.16085e-27
1.31432e-26
1.03886e-26
1.18411e-26
1.13609e-27
1.50209e-28
9.66001e-28
9.90964e-28
4.90976e-29
4.45032e-28
6.96063e-29
4.315e-27
1.70709e-27
1.70208e-27
4.45655e-28
2.69384e-27
7.66727e-29
1.2413e-23
3.14408e-23
1.24325e-24
1.15399e-25
3.91823e-28
4.71307e-27
2.68419e-27
3.58668e-27
1.81267e-27
1.63868e-27
1.62331e-27
1.80569e-27
1.51582e-27
1.00672e-27
1.26197e-28
1.30627e-29
7.99666e-31
4.47202e-28
3.10403e-28
1.05241e-28
)
;

boundaryField
{
    movingWall
    {
        type            calculated;
        value           nonuniform List<scalar> 
20
(
7.34494e-23
5.01412e-23
9.95925e-25
3.41043e-25
2.61424e-26
5.33454e-26
3.33872e-26
2.54082e-26
9.69214e-27
9.28407e-27
9.24742e-27
1.26472e-27
8.98831e-27
2.26219e-26
2.22239e-26
8.20679e-27
4.05743e-27
1.11441e-27
8.58544e-27
5.33811e-27
)
;
    }
    fixedWalls
    {
        type            calculated;
        value           nonuniform List<scalar> 
60
(
1.83217e-21
1.19773e-23
1.34564e-21
6.45254e-22
1.30833e-24
6.33143e-22
1.11331e-21
1.87284e-22
2.53718e-22
1.22731e-21
1.4617e-21
7.47427e-22
1.41056e-24
8.78489e-22
2.06032e-21
8.04504e-22
5.70555e-23
1.13716e-21
2.24091e-22
5.45416e-22
2.89107e-31
7.59779e-28
1.30001e-27
2.30018e-29
7.11312e-29
1.14108e-28
3.43589e-28
2.20893e-30
2.48003e-28
2.37925e-28
1.63103e-28
1.94518e-28
2.1611e-28
4.64373e-29
6.56452e-28
3.22872e-29
1.26474e-30
1.37646e-29
5.68952e-29
5.152e-28
1.71216e-22
1.40986e-22
4.66379e-24
5.55335e-25
4.93194e-30
4.61508e-26
9.67053e-28
1.26403e-27
1.35761e-28
5.81213e-27
8.57701e-29
3.38854e-27
4.9738e-27
6.91232e-27
2.8329e-27
2.12327e-27
2.00806e-29
4.681e-28
2.49718e-30
1.36561e-29
)
;
    }
    frontAndBack
    {
        type            empty;
    }
}


// ************************************************************************* //
