/*--------------------------------*- C++ -*----------------------------------*\
| =========                 |                                                 |
| \\      /  F ield         | OpenFOAM: The Open Source CFD Toolbox           |
|  \\    /   O peration     | Version:  2506                                  |
|   \\  /    A nd           | Website:  www.openfoam.com                      |
|    \\/     M anipulation  |                                                 |
\*---------------------------------------------------------------------------*/
FoamFile
{
    version     2.0;
    format      ascii;
    arch        "LSB;label=32;scalar=64";
    class       volScalarField;
    location    "9.125";
    object      flowTypeField;
}
// * * * * * * * * * * * * * * * * * * * * * * * * * * * * * * * * * * * * * //

dimensions      [0 0 0 0 0 0 0];

internalField   nonuniform List<scalar> 
400
(
0.433887
0.0620982
0.0275128
0.0592996
-0.0649784
0.21094
0.972136
0.120818
0.161744
-0.655378
0.0176799
0.0233103
-0.585086
0.163525
0.445522
0.434017
0.840462
0.504696
0.0672033
0.451432
0.978745
0.810139
0.778012
0.873184
0.640006
0.277814
0.90534
-0.0447894
0.90036
0.374177
0.0713638
0.57115
-0.384047
0.963907
-0.0341246
-0.276942
0.0987854
0.936691
0.10924
0.631321
0.483172
0.113459
-0.0117827
0.168464
-0.59904
0.629397
-0.189044
0.596442
-0.0608135
0.0361341
0.284539
0.12788
-0.158474
0.231507
0.433457
0.924924
-0.146619
0.104041
0.138688
0.28923
0.661996
0.145065
0.0876569
0.0924694
-0.088864
0.342754
0.97125
0.552169
0.361456
-0.300965
-0.629679
0.158629
0.875741
0.971162
0.872656
0.0541894
0.445225
0.189388
0.269374
0.346533
0.945804
0.920144
0.840276
0.534625
0.651894
0.39871
-0.240215
-0.11446
0.196604
0.0997721
0.0624538
0.00265998
-0.20301
-0.332186
0.224072
-0.354768
-0.0787402
0.724306
-0.336281
0.552459
0.567039
0.130989
0.0611769
0.110703
-0.0911638
0.640864
0.0058229
0.873785
-0.0155158
0.924444
0.450963
0.00802404
0.730542
0.345445
0.212856
0.68284
-0.0195386
0.316158
0.036803
0.336516
0.338896
0.0712393
0.0361434
-0.0829333
0.00160769
-0.484096
0.532427
0.0785395
-0.599137
-0.401723
0.142042
-0.0452599
-0.418378
-0.196839
0.254529
0.423769
0.415065
0.0985512
0.484436
0.644958
0.784934
0.249242
0.260012
0.208768
-0.168287
-0.115129
0.20889
0.900222
0.410658
0.0859846
0.90069
0.617296
0.303105
0.722917
0.721929
0.121979
0.00450272
0.0126114
0.140868
0.376068
0.698886
0.214403
0.139925
0.31667
0.132899
0.42667
0.625242
-0.162793
0.137323
-0.137528
-0.194708
-0.0987415
-0.48509
-0.158781
0.405833
0.42657
0.180154
-0.0908732
0.144386
0.281687
0.222579
0.0367942
-0.0400019
0.031705
0.000856025
0.301819
0.304547
0.0126609
-0.0723945
-0.116472
0.026703
0.560657
0.125206
0.136799
0.223498
-0.0244273
0.96296
0.318446
0.750802
0.188233
0.064524
0.0144979
-0.0271981
-0.0716356
-0.308196
0.179011
-0.292597
-0.161532
0.0381324
0.0592143
-0.0735279
0.253832
0.599788
-0.227214
0.915119
0.232951
0.52085
0.164144
0.286158
0.15562
0.447969
0.0629309
-0.0244566
0.176159
-0.640311
0.351331
0.374667
0.400034
-0.0393761
-0.0362703
0.135676
0.338281
0.517744
0.876215
-0.0329228
-0.0777682
0.843821
0.00745017
-0.256394
0.543289
0.997896
0.860163
0.858339
0.929813
0.755751
0.287299
0.0691774
0.200358
0.958623
0.000117292
0.282564
-0.0381506
0.000214928
-0.227287
-0.0205206
0.209607
0.313684
0.789679
0.856021
0.581092
0.543544
0.0955039
0.00875608
0.274022
-0.323117
0.415397
0.0374305
0.041521
0.0775261
-0.43537
-0.23456
0.254318
0.400255
0.595877
0.352575
0.252414
-0.338172
-0.182363
-0.023345
0.915037
0.157537
0.0510264
-0.0529005
0.146071
-0.260285
0.464289
-0.062212
0.0771996
0.355807
0.334271
0.137068
0.0986004
-0.143178
0.000790373
0.154
0.444076
-0.278742
0.21446
0.48205
0.189718
0.603389
0.134932
0.0553259
0.0766925
-0.201313
0.225548
-0.155912
-0.0755402
0.0931041
-0.00364398
0.391619
0.391361
0.854475
0.792229
0.254065
0.150302
0.208581
0.723484
0.0526808
0.337093
0.960608
0.569096
0.540226
0.604104
0.506881
0.566394
0.583725
0.12661
0.00886748
-0.465203
-0.0484201
-0.177199
0.734108
0.0719014
0.10345
0.553382
0.970587
-0.0863545
0.729069
0.809058
0.511481
0.121368
0.0342946
0.134332
0.0170372
0.226623
0.0661553
0.664826
0.18126
0.2568
0.23534
0.134944
-0.0718844
-0.0420466
0.713908
0.00128431
-0.00125818
0.0103858
-0.0997936
0.331591
0.774245
0.330972
0.25816
0.575115
-0.125221
-0.0627132
-0.0378157
0.15455
0.45289
-0.0477016
-0.523823
0.598877
0.252626
0.745031
-0.051809
0.0417223
0.220348
0.452844
0.0966031
0.723628
0.627944
0.105007
0.17489
-0.0730483
0.683262
-0.188377
0.185154
0.165323
0.0648853
-0.0403923
-0.0499604
-0.0825161
0.109033
0.250635
0.54148
0.765776
0.916788
0.256064
0.193212
0.681023
)
;

boundaryField
{
    movingWall
    {
        type            calculated;
        value           nonuniform List<scalar> 
20
(
0.606187
0.110894
0.406043
-0.264447
0.289588
-0.050034
0.0401571
0.018171
-0.0169437
-0.0225678
-0.0204329
-0.0801048
0.024611
0.0510995
0.0594492
0.0751947
0.0946102
0.160267
0.0339372
0.0574946
)
;
    }
    fixedWalls
    {
        type            calculated;
        value           nonuniform List<scalar> 
60
(
0.058702
0.804796
0.0878348
0.134647
0.895043
0.109244
0.0602163
0.268335
0.197822
0.0185952
0.0086368
0.0523317
0.89069
0.0841572
0.0334543
0.128077
0.571513
0.102434
0.329985
0.125593
0.81934
0.541454
0.000307409
0.787496
0.827943
0.655982
0.438197
0.901037
0.513624
0.204487
0.558515
0.0422072
0.720283
0.901478
0.552068
0.0240268
0.931855
0.872239
0.837722
0.600006
0.651342
0.152335
0.29765
-0.020874
0.983876
-0.109227
0.504686
0.258162
0.611022
-0.199187
0.503522
0.247802
0.250084
0.245153
0.342102
0.272957
0.856466
0.39247
0.888505
0.00914272
)
;
    }
    frontAndBack
    {
        type            empty;
    }
}


// ************************************************************************* //
