/*--------------------------------*- C++ -*----------------------------------*\
| =========                 |                                                 |
| \\      /  F ield         | OpenFOAM: The Open Source CFD Toolbox           |
|  \\    /   O peration     | Version:  2506                                  |
|   \\  /    A nd           | Website:  www.openfoam.com                      |
|    \\/     M anipulation  |                                                 |
\*---------------------------------------------------------------------------*/
FoamFile
{
    version     2.0;
    format      ascii;
    arch        "LSB;label=32;scalar=64";
    class       surfaceScalarField;
    location    "9.125";
    object      fluxField;
}
// * * * * * * * * * * * * * * * * * * * * * * * * * * * * * * * * * * * * * //

dimensions      [0 3 -1 0 0 0 0];

oriented        oriented;

internalField   nonuniform List<scalar> 
760
(
-5e-05
4.21124e-18
-5e-05
-9.08873e-19
-5e-05
2.15747e-19
-5e-05
-4.16455e-20
-5e-05
1.59149e-20
-5e-05
3.81398e-21
-5e-05
3.91823e-21
-5e-05
2.57332e-21
-5e-05
2.86431e-21
-5e-05
-7.06264e-22
-5e-05
6.43798e-22
-5e-05
-3.07952e-21
-5e-05
1.52006e-21
-5e-05
8.16209e-21
-5e-05
5.62357e-21
-5e-05
1.77573e-21
-5e-05
-4.22804e-21
-5e-05
-2.64209e-21
-5e-05
-6.29872e-22
-2.48387e-21
-5e-05
-3.16515e-18
-5e-05
6.73478e-19
-5e-05
-1.65877e-19
-5e-05
3.46247e-20
-5e-05
-1.12211e-20
-5e-05
-2.91326e-21
-5e-05
-3.26179e-21
-5e-05
1.44816e-21
-5e-05
2.1188e-21
-5e-05
3.80956e-21
-5e-05
4.32278e-21
-5e-05
3.43684e-21
-5e-05
2.59942e-21
-5e-05
4.4994e-21
-5e-05
1.41335e-21
-5e-05
3.35252e-22
-5e-05
-2.78316e-21
-5e-05
-3.5795e-21
-5e-05
-5.02297e-21
-5.62324e-21
-5e-05
-1.08352e-18
-5e-05
2.11451e-19
-5e-05
-5.63845e-20
-5e-05
1.02251e-20
-5e-05
-3.38027e-21
-5e-05
-1.6523e-21
-5e-05
-2.81126e-22
-5e-05
4.17287e-21
-5e-05
5.25996e-21
-5e-05
6.04319e-21
-5e-05
1.04254e-22
-5e-05
2.64624e-22
-5e-05
-5.93381e-24
-5e-05
-1.06604e-21
-5e-05
-1.39442e-21
-5e-05
-3.43667e-21
-5e-05
-1.99594e-21
-5e-05
-6.42405e-22
-5e-05
-3.15412e-21
-5.30487e-21
-5e-05
2.49879e-18
-5e-05
-5.38071e-19
-5e-05
1.28813e-19
-5e-05
-2.22696e-20
-5e-05
1.56107e-20
-5e-05
5.17452e-21
-5e-05
3.40151e-21
-5e-05
-1.2875e-21
-5e-05
2.23774e-22
-5e-05
2.88971e-21
-5e-05
7.08353e-22
-5e-05
-3.81576e-22
-5e-05
-9.03591e-22
-5e-05
-6.91778e-21
-5e-05
-5.735e-21
-5e-05
-6.74695e-21
-5e-05
-2.66056e-21
-5e-05
2.29104e-21
-5e-05
-8.95224e-24
-3.06658e-21
-5e-05
-2.27203e-18
-5e-05
5.01766e-19
-5e-05
-1.18339e-19
-5e-05
2.80174e-20
-5e-05
-2.37381e-21
-5e-05
2.88921e-21
-5e-05
1.17547e-21
-5e-05
-1.58877e-21
-5e-05
-2.84641e-21
-5e-05
2.0427e-22
-5e-05
2.18308e-21
-5e-05
-1.94007e-22
-5e-05
-3.4167e-21
-5e-05
-8.7833e-21
-5e-05
-7.71247e-21
-5e-05
-4.35905e-21
-5e-05
-5.40418e-22
-5e-05
1.07656e-21
-5e-05
-4.9052e-23
-1.98715e-22
-5e-05
7.84421e-19
-5e-05
-1.77999e-19
-5e-05
3.90182e-20
-5e-05
-1.03216e-20
-5e-05
-2.2178e-21
-5e-05
-2.26338e-21
-5e-05
1.41283e-21
-5e-05
2.97082e-21
-5e-05
-1.48341e-21
-5e-05
-4.41917e-21
-5e-05
-5.33091e-21
-5e-05
-6.77354e-21
-5e-05
-7.19743e-21
-5e-05
-1.71488e-21
-5e-05
2.33192e-22
-5e-05
4.49233e-22
-5e-05
-1.83487e-22
-5e-05
-2.13829e-21
-5e-05
1.94778e-22
2.38827e-21
-5e-05
1.86663e-18
-5e-05
-4.12863e-19
-5e-05
9.9448e-20
-5e-05
-2.21552e-20
-5e-05
-3.30889e-22
-5e-05
-4.50821e-21
-5e-05
-1.06901e-21
-5e-05
4.48092e-22
-5e-05
-3.27757e-21
-5e-05
-6.45045e-21
-5e-05
-7.52714e-21
-5e-05
-5.75833e-21
-5e-05
-4.11742e-21
-5e-05
3.75777e-21
-5e-05
4.82124e-21
-5e-05
-6.44898e-22
-5e-05
-4.83348e-21
-5e-05
-3.30926e-21
-5e-05
1.27797e-21
3.20108e-21
-5e-05
-2.66663e-18
-5e-05
5.72255e-19
-5e-05
-1.36672e-19
-5e-05
2.27636e-20
-5e-05
-1.48491e-20
-5e-05
-6.04924e-21
-5e-05
-6.13688e-21
-5e-05
-3.56759e-21
-5e-05
-2.27073e-21
-5e-05
-1.8585e-21
-5e-05
-8.73533e-22
-5e-05
9.10156e-22
-5e-05
-7.71315e-22
-5e-05
-2.87337e-21
-5e-05
-3.42932e-21
-5e-05
-3.78531e-21
-5e-05
-4.80763e-21
-5e-05
-2.52296e-21
-5e-05
-6.66209e-22
1.26058e-21
-5e-05
1.70047e-18
-5e-05
-3.70769e-19
-5e-05
8.3609e-20
-5e-05
-2.21911e-20
-5e-05
1.85273e-21
-5e-05
-1.79568e-21
-5e-05
-3.74083e-21
-5e-05
-5.36103e-21
-5e-05
-5.42946e-21
-5e-05
-3.86589e-21
-5e-05
-8.40879e-22
-5e-05
-4.10898e-23
-5e-05
-9.64603e-22
-5e-05
-6.62461e-21
-5e-05
-6.07928e-21
-5e-05
-3.05231e-21
-5e-05
-1.61962e-21
-5e-05
-1.97572e-21
-5e-05
-2.87741e-21
2.85739e-23
-5e-05
-2.94634e-19
-5e-05
8.22909e-20
-5e-05
-6.55934e-21
-5e-05
1.40476e-20
-5e-05
8.67684e-21
-5e-05
7.78894e-21
-5e-05
1.12983e-21
-5e-05
-6.20326e-21
-5e-05
-9.65073e-21
-5e-05
-8.24926e-21
-5e-05
-6.81533e-21
-5e-05
-8.2311e-21
-5e-05
-5.20352e-21
-5e-05
-4.00816e-21
-5e-05
-2.49827e-21
-5e-05
-2.35864e-21
-5e-05
-2.88975e-21
-5e-05
-2.48572e-21
-5e-05
-1.14682e-21
1.45952e-21
-5e-05
-9.88237e-19
-5e-05
2.34904e-19
-5e-05
-4.19781e-20
-5e-05
2.38849e-20
-5e-05
6.87879e-21
-5e-05
7.26788e-21
-5e-05
3.52964e-21
-5e-05
-4.77085e-21
-5e-05
-4.77113e-21
-5e-05
-2.53307e-21
-5e-05
-2.24763e-21
-5e-05
-6.4709e-21
-5e-05
-6.44039e-21
-5e-05
-4.41652e-21
-5e-05
-3.78683e-21
-5e-05
-1.41412e-21
-5e-05
-3.46216e-21
-5e-05
-2.22174e-21
-5e-05
1.81052e-21
2.36157e-21
-5e-05
2.28607e-18
-5e-05
-4.87643e-19
-5e-05
1.21566e-19
-5e-05
-1.88682e-20
-5e-05
9.48563e-21
-5e-05
1.11226e-21
-5e-05
1.56153e-21
-5e-05
-1.00522e-21
-5e-05
3.90455e-22
-5e-05
1.28459e-21
-5e-05
1.42951e-21
-5e-05
9.7942e-23
-5e-05
-1.02626e-21
-5e-05
-3.34611e-21
-5e-05
-4.87648e-21
-5e-05
-1.65286e-21
-5e-05
-2.02176e-21
-5e-05
-1.85055e-21
-5e-05
8.24051e-22
8.38052e-22
-5e-05
-2.79081e-18
-5e-05
6.14603e-19
-5e-05
-1.38324e-19
-5e-05
3.21541e-20
-5e-05
-8.31846e-21
-5e-05
-8.03626e-22
-5e-05
-4.32071e-21
-5e-05
-4.20459e-22
-5e-05
2.35404e-21
-5e-05
1.30356e-21
-5e-05
-4.77672e-21
-5e-05
-4.64057e-21
-5e-05
-1.05616e-21
-5e-05
-1.27291e-21
-5e-05
-2.05937e-21
-5e-05
-1.0746e-21
-5e-05
-4.17344e-22
-5e-05
-3.29702e-21
-5e-05
-4.47876e-21
-2.69108e-21
-5e-05
1.47356e-18
-5e-05
-3.12104e-19
-5e-05
7.0378e-20
-5e-05
-1.65383e-20
-5e-05
2.31775e-21
-5e-05
-1.85319e-21
-5e-05
-1.43275e-21
-5e-05
1.16701e-21
-5e-05
3.2307e-21
-5e-05
1.20847e-21
-5e-05
-6.13984e-21
-5e-05
-7.7801e-21
-5e-05
-3.57988e-21
-5e-05
-9.10771e-22
-5e-05
1.72168e-22
-5e-05
-1.87728e-21
-5e-05
1.07477e-21
-5e-05
-7.19073e-22
-5e-05
-4.04435e-21
-2.86695e-21
-5e-05
1.58969e-18
-5e-05
-3.51194e-19
-5e-05
7.67685e-20
-5e-05
-1.93945e-20
-5e-05
6.34309e-21
-5e-05
1.20282e-21
-5e-05
1.4318e-21
-5e-05
7.39354e-22
-5e-05
-8.28297e-22
-5e-05
-3.42617e-21
-5e-05
-4.2769e-21
-5e-05
-4.93651e-21
-5e-05
-5.48816e-21
-5e-05
-4.22346e-21
-5e-05
-3.30523e-21
-5e-05
-5.35203e-21
-5e-05
4.46196e-22
-5e-05
2.00626e-21
-5e-05
-1.80152e-22
-1.0728e-21
-5e-05
-3.42878e-18
-5e-05
7.40638e-19
-5e-05
-1.81337e-19
-5e-05
3.17578e-20
-5e-05
-9.04407e-21
-5e-05
3.73487e-21
-5e-05
2.74101e-21
-5e-05
3.28619e-21
-5e-05
1.00512e-21
-5e-05
-3.83508e-21
-5e-05
-6.25175e-21
-5e-05
-7.2526e-21
-5e-05
-1.01804e-20
-5e-05
-1.00418e-20
-5e-05
-7.95214e-21
-5e-05
-4.2915e-21
-5e-05
-2.50118e-21
-5e-05
-8.99016e-22
-5e-05
-5.90717e-22
-6.01641e-22
-5e-05
2.42817e-18
-5e-05
-5.11294e-19
-5e-05
1.16451e-19
-5e-05
-3.04573e-20
-5e-05
5.04627e-21
-5e-05
1.18023e-21
-5e-05
6.28402e-21
-5e-05
7.2846e-21
-5e-05
6.10995e-21
-5e-05
-1.06522e-21
-5e-05
-5.75639e-21
-5e-05
-6.57117e-21
-5e-05
-8.99223e-21
-5e-05
-1.15473e-20
-5e-05
-1.05836e-20
-5e-05
-4.69001e-21
-5e-05
-3.60018e-21
-5e-05
-3.0785e-21
-5e-05
-2.11008e-21
1.92259e-21
-5e-05
1.97088e-18
-5e-05
-4.34864e-19
-5e-05
1.03225e-19
-5e-05
-2.5114e-20
-5e-05
5.13057e-21
-5e-05
-2.54481e-21
-5e-05
-3.04556e-21
-5e-05
-3.83793e-21
-5e-05
-1.58294e-21
-5e-05
-2.9802e-21
-5e-05
-2.03627e-21
-5e-05
5.20445e-22
-5e-05
-3.37378e-22
-5e-05
-3.78138e-21
-5e-05
-6.30464e-21
-5e-05
-4.90956e-21
-5e-05
-3.12109e-21
-5e-05
-4.21893e-21
-5e-05
-3.71293e-21
1.35529e-21
-5e-05
-3.52121e-18
-5e-05
7.35908e-19
-5e-05
-1.77131e-19
-5e-05
3.24856e-20
-5e-05
-9.63545e-21
-5e-05
-1.49306e-21
-5e-05
-7.84657e-21
-5e-05
-8.09582e-21
-5e-05
-5.36577e-21
-5e-05
-2.26251e-21
-5e-05
-3.93844e-22
-5e-05
2.78319e-21
-5e-05
3.55467e-21
-5e-05
2.31352e-21
-5e-05
-1.72974e-21
-5e-05
-3.38668e-21
-5e-05
-4.0628e-21
-5e-05
-4.10428e-21
-5e-05
-4.04986e-21
-2.67294e-21
-5e-05
-5e-05
-5e-05
-5e-05
-5e-05
-5e-05
-5e-05
-5e-05
-5e-05
-5e-05
-5e-05
-5e-05
-5e-05
-5e-05
-5e-05
-5e-05
-5e-05
-5e-05
-5e-05
)
;

boundaryField
{
    movingWall
    {
        type            calculated;
        value           uniform -0;
    }
    fixedWalls
    {
        type            calculated;
        value           nonuniform List<scalar> 
60
(
5e-05
5e-05
5e-05
5e-05
5e-05
5e-05
5e-05
5e-05
5e-05
5e-05
5e-05
5e-05
5e-05
5e-05
5e-05
5e-05
5e-05
5e-05
5e-05
5e-05
-5e-05
-5e-05
-5e-05
-5e-05
-5e-05
-5e-05
-5e-05
-5e-05
-5e-05
-5e-05
-5e-05
-5e-05
-5e-05
-5e-05
-5e-05
-5e-05
-5e-05
-5e-05
-5e-05
-5e-05
0
0
0
0
0
0
0
0
0
0
0
0
0
0
0
0
0
0
0
0
)
;
    }
    frontAndBack
    {
        type            empty;
    }
}


// ************************************************************************* //
