/*--------------------------------*- C++ -*----------------------------------*\
| =========                 |                                                 |
| \\      /  F ield         | OpenFOAM: The Open Source CFD Toolbox           |
|  \\    /   O peration     | Version:  2506                                  |
|   \\  /    A nd           | Website:  www.openfoam.com                      |
|    \\/     M anipulation  |                                                 |
\*---------------------------------------------------------------------------*/
FoamFile
{
    version     2.0;
    format      ascii;
    arch        "LSB;label=32;scalar=64";
    class       volTensorField;
    location    "9.125";
    object      gradU;
}
// * * * * * * * * * * * * * * * * * * * * * * * * * * * * * * * * * * * * * //

dimensions      [0 0 -1 0 0 0 0];

internalField   nonuniform List<tensor> 
400
(
(-1.0571e-12 1.211e-11 0 1.30104e-12 1.68449e-11 0 0 0 0)
(1.6263e-12 -1.46604e-11 0 -4.33681e-13 -3.63549e-12 0 0 0 0)
(-4.60786e-13 3.18733e-12 0 -5.42101e-14 8.6299e-13 0 0 0 0)
(2.71051e-14 -7.43021e-13 0 -2.71051e-14 -1.66582e-13 0 0 0 0)
(-2.71051e-14 1.74495e-13 0 -2.71051e-14 6.36594e-14 0 0 0 0)
(-2.71051e-14 -3.73583e-14 0 0 1.52559e-14 0 0 0 0)
(-5.42101e-14 4.30445e-16 0 0 1.56729e-14 0 0 0 0)
(0 -5.87083e-15 0 -5.42101e-14 1.02933e-14 0 0 0 0)
(0 -1.64779e-14 0 0 1.14572e-14 0 0 0 0)
(0 -1.89981e-14 0 2.71051e-14 -2.82505e-15 0 0 0 0)
(0 -1.30973e-14 0 0 2.57519e-15 0 0 0 0)
(2.71051e-14 6.49484e-15 0 -5.42101e-14 -1.23181e-14 0 0 0 0)
(0 3.34891e-14 0 -5.42101e-14 6.08024e-15 0 0 0 0)
(-5.42101e-14 1.56486e-14 0 -5.42101e-14 3.26483e-14 0 0 0 0)
(-5.42101e-14 -1.35463e-14 0 -5.42101e-14 2.24943e-14 0 0 0 0)
(0 -2.36524e-14 0 -5.42101e-14 7.10293e-15 0 0 0 0)
(5.42101e-14 -6.33729e-15 0 0 -1.69122e-14 0 0 0 0)
(2.71051e-14 1.38115e-14 0 0 -1.05684e-14 0 0 0 0)
(-2.71051e-14 2.23481e-15 0 -5.42101e-14 -2.51949e-15 0 0 0 0)
(0 -5.2261e-15 0 0 -9.93548e-15 0 0 0 0)
(1.97867e-12 1.09944e-12 0 6.50521e-13 -2.95055e-11 0 0 0 0)
(-2.98156e-12 -1.32159e-12 0 -2.71051e-13 6.32941e-12 0 0 0 0)
(8.40257e-13 2.81577e-13 0 -2.71051e-14 -1.5265e-12 0 0 0 0)
(-2.71051e-14 -5.63092e-14 0 -2.71051e-14 3.05081e-13 0 0 0 0)
(2.71051e-14 7.34293e-15 0 -2.71051e-14 -1.08544e-13 0 0 0 0)
(5.42101e-14 -1.06282e-14 0 -8.13152e-14 -2.6909e-14 0 0 0 0)
(8.13152e-14 -5.39307e-15 0 0 -2.87201e-14 0 0 0 0)
(0 1.65517e-15 0 -2.71051e-14 -4.50066e-15 0 0 0 0)
(5.42101e-14 3.35958e-15 0 0 -2.98204e-15 0 0 0 0)
(-5.42101e-14 1.0116e-14 0 -2.71051e-14 1.80633e-14 0 0 0 0)
(-2.71051e-14 3.6043e-15 0 -5.42101e-14 1.47159e-14 0 0 0 0)
(-5.42101e-14 -2.9898e-15 0 -2.71051e-14 2.60654e-14 0 0 0 0)
(0 1.14773e-14 0 -2.71051e-14 4.31744e-15 0 0 0 0)
(5.42101e-14 7.65474e-16 0 0 -1.46507e-14 0 0 0 0)
(2.71051e-14 -1.19991e-14 0 5.42101e-14 -1.68409e-14 0 0 0 0)
(0 -1.57541e-14 0 5.42101e-14 -5.76192e-15 0 0 0 0)
(0 -1.1334e-14 0 0 5.77952e-15 0 0 0 0)
(-2.71051e-14 5.81146e-16 0 0 -3.74963e-15 0 0 0 0)
(2.71051e-14 -1.60193e-15 0 5.42101e-14 -1.75724e-14 0 0 0 0)
(5.42101e-14 1.76811e-14 0 0 -1.25575e-14 0 0 0 0)
(-6.77626e-13 -1.10661e-11 0 -4.3097e-12 8.32653e-12 0 0 0 0)
(9.48677e-13 1.33187e-11 0 1.38236e-12 -1.84811e-12 0 0 0 0)
(-2.71051e-13 -2.83699e-12 0 8.13152e-14 4.3797e-13 0 0 0 0)
(2.71051e-14 6.74933e-13 0 1.0842e-13 -9.75983e-14 0 0 0 0)
(0 -1.57495e-13 0 1.0842e-13 3.13633e-14 0 0 0 0)
(0 4.24654e-14 0 2.71051e-14 5.04385e-15 0 0 0 0)
(-2.71051e-14 2.28388e-14 0 -5.42101e-14 1.19226e-14 0 0 0 0)
(-5.42101e-14 1.98672e-14 0 0 1.08988e-14 0 0 0 0)
(0 6.08603e-15 0 -8.13152e-14 1.25646e-14 0 0 0 0)
(0 -1.3001e-15 0 -5.42101e-14 8.93451e-15 0 0 0 0)
(0 -5.09518e-15 0 -2.71051e-14 -1.68741e-14 0 0 0 0)
(5.42101e-14 -3.90363e-15 0 8.13152e-14 -1.26889e-14 0 0 0 0)
(0 -7.22702e-15 0 2.71051e-14 -1.04214e-14 0 0 0 0)
(5.42101e-14 -5.50974e-15 0 5.42101e-14 -2.22618e-14 0 0 0 0)
(-5.42101e-14 -4.65751e-15 0 2.71051e-14 -1.12311e-14 0 0 0 0)
(2.71051e-14 -1.032e-15 0 0 -1.50877e-14 0 0 0 0)
(0 -4.325e-15 0 2.71051e-14 3.14889e-15 0 0 0 0)
(2.71051e-14 -9.54039e-15 0 2.71051e-14 1.17484e-14 0 0 0 0)
(-2.71051e-14 -6.57304e-15 0 2.71051e-14 7.4754e-15 0 0 0 0)
(-2.71051e-14 2.49038e-14 0 0 1.27346e-15 0 0 0 0)
(-1.00289e-12 7.57786e-12 0 2.92735e-12 1.43292e-11 0 0 0 0)
(1.40946e-12 -9.21015e-12 0 -8.94467e-13 -2.99809e-12 0 0 0 0)
(-4.33681e-13 2.03209e-12 0 2.71051e-14 7.4079e-13 0 0 0 0)
(2.71051e-14 -4.62916e-13 0 -2.71051e-14 -1.29979e-13 0 0 0 0)
(-8.13152e-14 1.09985e-13 0 -8.13152e-14 7.59637e-14 0 0 0 0)
(-2.71051e-14 -3.00688e-14 0 0 2.73073e-14 0 0 0 0)
(-5.42101e-14 4.61914e-16 0 0 1.47305e-14 0 0 0 0)
(5.42101e-14 2.29717e-15 0 2.71051e-14 -2.18415e-14 0 0 0 0)
(2.71051e-14 1.39526e-15 0 2.71051e-14 -2.01448e-14 0 0 0 0)
(0 -1.93227e-14 0 5.42101e-14 -1.26139e-14 0 0 0 0)
(0 -1.80191e-14 0 2.71051e-14 2.41639e-15 0 0 0 0)
(0 3.46287e-15 0 0 -2.5848e-15 0 0 0 0)
(-2.71051e-14 1.90435e-15 0 0 -3.59063e-15 0 0 0 0)
(2.71051e-14 -4.42133e-17 0 0 -2.34069e-14 0 0 0 0)
(5.42101e-14 -4.82502e-15 0 0 -1.73623e-14 0 0 0 0)
(0 -1.37406e-15 0 2.71051e-14 -1.32411e-14 0 0 0 0)
(2.71051e-14 1.55021e-14 0 0 -2.65847e-15 0 0 0 0)
(-2.71051e-14 4.90765e-15 0 -2.71051e-14 1.17338e-14 0 0 0 0)
(0 -1.20768e-14 0 0 1.25807e-14 0 0 0 0)
(0 8.93221e-15 0 2.71051e-14 8.95317e-15 0 0 0 0)
(1.35525e-12 2.65034e-13 0 -4.87891e-13 -1.90833e-11 0 0 0 0)
(-1.95156e-12 -2.69776e-13 0 0 4.15935e-12 0 0 0 0)
(5.69206e-13 3.11169e-14 0 -1.0842e-13 -9.8861e-13 0 0 0 0)
(-5.42101e-14 1.01071e-14 0 -8.13152e-14 2.01148e-13 0 0 0 0)
(5.42101e-14 -2.0843e-16 0 -2.71051e-14 -7.19379e-14 0 0 0 0)
(2.71051e-14 -1.87678e-14 0 0 -9.14123e-15 0 0 0 0)
(2.71051e-14 -2.631e-14 0 5.42101e-14 -8.90414e-15 0 0 0 0)
(-2.71051e-14 -1.50081e-14 0 5.42101e-14 -1.20506e-15 0 0 0 0)
(0 1.53136e-14 0 0 -1.22807e-14 0 0 0 0)
(0 2.1261e-14 0 0 -1.07418e-14 0 0 0 0)
(0 4.93392e-15 0 8.13152e-14 5.8989e-15 0 0 0 0)
(0 -9.91065e-15 0 0 7.50274e-16 0 0 0 0)
(2.71051e-14 -2.80492e-14 0 1.0842e-13 -1.00524e-14 0 0 0 0)
(0 -1.92814e-14 0 5.42101e-14 -7.46207e-15 0 0 0 0)
(0 5.50835e-15 0 2.71051e-14 -7.90987e-15 0 0 0 0)
(0 1.36719e-14 0 -2.71051e-14 9.55159e-15 0 0 0 0)
(-2.71051e-14 2.06499e-14 0 -2.71051e-14 8.48055e-15 0 0 0 0)
(2.71051e-14 5.69876e-15 0 0 -4.85793e-15 0 0 0 0)
(0 -9.35368e-15 0 2.71051e-14 -1.60399e-16 0 0 0 0)
(-5.42101e-14 3.36993e-15 0 2.71051e-14 1.14715e-14 0 0 0 0)
(-1.51788e-12 -7.34611e-12 0 -1.89735e-12 1.22258e-11 0 0 0 0)
(1.81604e-12 8.88456e-12 0 7.04731e-13 -2.71906e-12 0 0 0 0)
(-4.87891e-13 -1.92611e-12 0 2.71051e-14 6.29431e-13 0 0 0 0)
(5.42101e-14 4.53755e-13 0 2.71051e-14 -1.53356e-13 0 0 0 0)
(5.42101e-14 -1.00304e-13 0 2.71051e-14 6.24043e-16 0 0 0 0)
(2.71051e-14 3.29649e-14 0 5.42101e-14 -2.06104e-14 0 0 0 0)
(0 8.39809e-15 0 0 9.49429e-16 0 0 0 0)
(0 -1.07941e-15 0 0 1.82383e-14 0 0 0 0)
(-2.71051e-14 -8.14145e-15 0 5.42101e-14 5.45198e-15 0 0 0 0)
(2.71051e-14 -1.14311e-15 0 0 -1.84938e-14 0 0 0 0)
(5.42101e-14 -6.52703e-15 0 2.71051e-14 -3.0056e-14 0 0 0 0)
(2.71051e-14 -1.24885e-14 0 5.42101e-14 -2.63181e-14 0 0 0 0)
(2.71051e-14 -6.30799e-15 0 0 -1.51229e-14 0 0 0 0)
(-2.71051e-14 2.09834e-15 0 -2.71051e-14 2.82737e-14 0 0 0 0)
(-2.71051e-14 1.21886e-14 0 -2.71051e-14 3.17827e-14 0 0 0 0)
(-5.42101e-14 1.50164e-14 0 0 1.92331e-14 0 0 0 0)
(0 1.09256e-15 0 -5.42101e-14 1.42772e-15 0 0 0 0)
(5.42101e-14 -3.7333e-15 0 -5.42101e-14 -1.28594e-14 0 0 0 0)
(2.71051e-14 4.25257e-15 0 -5.42101e-14 9.75319e-16 0 0 0 0)
(-2.71051e-14 -2.37886e-15 0 -2.71051e-14 1.03479e-14 0 0 0 0)
(1.89735e-13 9.7718e-12 0 2.84603e-12 4.32885e-12 0 0 0 0)
(0 -1.18662e-11 0 -8.13152e-13 -9.39456e-13 0 0 0 0)
(-1.0842e-13 2.59682e-12 0 8.13152e-14 2.41719e-13 0 0 0 0)
(-2.71051e-14 -6.18699e-13 0 5.42101e-14 -4.73344e-14 0 0 0 0)
(0 1.32537e-13 0 0 7.54763e-15 0 0 0 0)
(0 -1.84424e-14 0 2.71051e-14 -8.97934e-15 0 0 0 0)
(-2.71051e-14 1.25387e-14 0 0 -9.92737e-15 0 0 0 0)
(2.71051e-14 -1.05056e-14 0 2.71051e-14 -1.00909e-14 0 0 0 0)
(0 -2.14185e-14 0 2.71051e-14 -7.17663e-15 0 0 0 0)
(0 -1.42469e-14 0 2.71051e-14 -8.1251e-15 0 0 0 0)
(0 -2.89045e-15 0 -2.71051e-14 -8.78493e-15 0 0 0 0)
(0 5.02238e-15 0 -1.0842e-13 4.06084e-15 0 0 0 0)
(0 2.65427e-14 0 -5.42101e-14 1.232e-14 0 0 0 0)
(-2.71051e-14 2.76241e-14 0 -8.13152e-14 2.18906e-14 0 0 0 0)
(0 -3.53221e-15 0 -2.71051e-14 1.83522e-14 0 0 0 0)
(-2.71051e-14 -1.66831e-14 0 0 -4.37653e-15 0 0 0 0)
(0 -1.14427e-14 0 0 -1.86e-14 0 0 0 0)
(0 5.24636e-15 0 5.42101e-14 -4.68388e-15 0 0 0 0)
(2.71051e-14 1.38537e-14 0 0 4.33277e-15 0 0 0 0)
(-2.71051e-14 -7.95332e-15 0 0 3.25124e-15 0 0 0 0)
(5.42101e-13 -3.95672e-12 0 -8.13152e-13 -1.81331e-11 0 0 0 0)
(-9.75782e-13 4.79743e-12 0 2.1684e-13 3.94047e-12 0 0 0 0)
(3.52366e-13 -1.03399e-12 0 0 -9.44479e-13 0 0 0 0)
(0 2.19584e-13 0 0 1.79675e-13 0 0 0 0)
(0 -6.19493e-14 0 5.42101e-14 -5.80728e-14 0 0 0 0)
(2.71051e-14 1.54899e-14 0 -8.13152e-14 -6.1641e-15 0 0 0 0)
(5.42101e-14 7.28652e-15 0 -5.42101e-14 -2.02715e-14 0 0 0 0)
(2.71051e-14 1.67133e-15 0 0 -1.60627e-14 0 0 0 0)
(-2.71051e-14 -6.17564e-15 0 -2.71051e-14 4.02735e-15 0 0 0 0)
(0 -2.75141e-15 0 2.71051e-14 1.83678e-14 0 0 0 0)
(-8.13152e-14 5.65891e-15 0 0 2.66144e-14 0 0 0 0)
(0 8.61652e-15 0 0 2.6674e-14 0 0 0 0)
(0 1.15218e-14 0 0 1.33844e-14 0 0 0 0)
(2.71051e-14 8.13048e-15 0 0 -2.65246e-14 0 0 0 0)
(5.42101e-14 -1.40785e-14 0 0 -3.30022e-14 0 0 0 0)
(0 -2.19358e-14 0 0 -1.25617e-14 0 0 0 0)
(0 7.85208e-16 0 0 1.03398e-16 0 0 0 0)
(0 1.91994e-14 0 0 3.14523e-15 0 0 0 0)
(0 1.21877e-14 0 0 -7.77671e-15 0 0 0 0)
(0 -9.96287e-15 0 -2.71051e-14 -7.76199e-15 0 0 0 0)
(-4.06576e-13 -4.42079e-12 0 2.71051e-14 1.74684e-11 0 0 0 0)
(7.86047e-13 5.32241e-12 0 2.71051e-13 -3.77209e-12 0 0 0 0)
(-2.98156e-13 -1.16398e-12 0 1.0842e-13 8.81123e-13 0 0 0 0)
(-2.71051e-14 2.67707e-13 0 5.42101e-14 -1.79819e-13 0 0 0 0)
(-2.71051e-14 -5.33019e-14 0 2.71051e-14 6.68073e-14 0 0 0 0)
(-2.71051e-14 1.93589e-14 0 0 1.70142e-14 0 0 0 0)
(0 2.64005e-15 0 0 9.58418e-15 0 0 0 0)
(0 1.37933e-14 0 -8.13152e-14 -7.17376e-15 0 0 0 0)
(5.42101e-14 1.3012e-14 0 -5.42101e-14 -1.26349e-14 0 0 0 0)
(0 8.3402e-15 0 -5.42101e-14 -8.02957e-15 0 0 0 0)
(0 5.41571e-15 0 -2.71051e-14 1.30616e-16 0 0 0 0)
(0 -8.20765e-15 0 8.13152e-14 -3.80498e-15 0 0 0 0)
(0 -2.66559e-14 0 5.42101e-14 -7.73151e-16 0 0 0 0)
(0 -1.87625e-14 0 1.0842e-13 -1.50049e-14 0 0 0 0)
(0 1.04307e-14 0 2.71051e-14 -1.05998e-14 0 0 0 0)
(-2.71051e-14 1.64226e-14 0 0 2.93201e-15 0 0 0 0)
(-2.71051e-14 4.26422e-15 0 5.42101e-14 1.2752e-14 0 0 0 0)
(0 -2.63375e-15 0 2.71051e-14 2.18894e-15 0 0 0 0)
(0 2.94646e-15 0 2.71051e-14 -8.8448e-15 0 0 0 0)
(0 7.58537e-15 0 2.71051e-14 -4.92803e-15 0 0 0 0)
(8.40257e-13 9.7396e-12 0 1.6263e-13 -7.98042e-12 0 0 0 0)
(-9.21572e-13 -1.17899e-11 0 -2.71051e-13 1.81224e-12 0 0 0 0)
(1.6263e-13 2.55829e-12 0 -1.35525e-13 -3.60673e-13 0 0 0 0)
(-5.42101e-14 -5.94732e-13 0 0 1.44955e-13 0 0 0 0)
(-8.13152e-14 1.34884e-13 0 -2.71051e-14 2.72964e-14 0 0 0 0)
(-2.71051e-14 -4.17332e-14 0 0 3.83385e-14 0 0 0 0)
(0 -1.69015e-14 0 0 1.94827e-14 0 0 0 0)
(0 -2.05478e-14 0 0 -3.3689e-15 0 0 0 0)
(0 -7.03145e-15 0 5.42101e-14 -1.68851e-14 0 0 0 0)
(0 1.00141e-14 0 -5.42101e-14 -1.75335e-14 0 0 0 0)
(2.71051e-14 9.88349e-15 0 -5.42101e-14 -2.38978e-14 0 0 0 0)
(8.13152e-14 7.71276e-15 0 -2.71051e-14 -3.276e-14 0 0 0 0)
(2.71051e-14 3.21818e-16 0 -5.42101e-14 -1.69557e-14 0 0 0 0)
(-2.71051e-14 -1.69621e-15 0 -5.42101e-14 1.04658e-14 0 0 0 0)
(-2.71051e-14 3.85846e-15 0 -2.71051e-14 1.43241e-14 0 0 0 0)
(0 1.41607e-15 0 -5.42101e-14 2.77469e-15 0 0 0 0)
(2.71051e-14 4.21415e-17 0 0 -5.0805e-15 0 0 0 0)
(2.71051e-14 -2.39739e-15 0 -2.71051e-14 -2.04001e-15 0 0 0 0)
(-2.71051e-14 5.07071e-15 0 0 6.92235e-15 0 0 0 0)
(-2.71051e-14 3.80996e-15 0 -2.71051e-14 5.72377e-15 0 0 0 0)
(-5.42101e-13 -1.0589e-11 0 -3.52366e-13 -2.77441e-12 0 0 0 0)
(5.42101e-13 1.29422e-11 0 1.6263e-13 6.10453e-13 0 0 0 0)
(-5.42101e-14 -2.83126e-12 0 8.13152e-14 -1.41675e-13 0 0 0 0)
(8.13152e-14 6.55677e-13 0 -5.42101e-14 3.93494e-14 0 0 0 0)
(-2.71051e-14 -1.59918e-13 0 5.42101e-14 -7.1922e-15 0 0 0 0)
(2.71051e-14 1.15451e-14 0 8.13152e-14 -2.08425e-15 0 0 0 0)
(-2.71051e-14 -3.90673e-14 0 1.0842e-13 9.59922e-15 0 0 0 0)
(2.71051e-14 -2.25745e-14 0 1.0842e-13 5.72962e-15 0 0 0 0)
(0 -1.15257e-15 0 5.42101e-14 1.95184e-14 0 0 0 0)
(-2.71051e-14 1.32749e-15 0 1.0842e-13 2.28648e-14 0 0 0 0)
(0 -9.81085e-15 0 1.0842e-13 1.82708e-14 0 0 0 0)
(-5.42101e-14 -1.26553e-15 0 5.42101e-14 7.04079e-15 0 0 0 0)
(0 1.657e-14 0 2.71051e-14 -4.94747e-15 0 0 0 0)
(0 1.25172e-14 0 -5.42101e-14 -1.63346e-15 0 0 0 0)
(5.42101e-14 2.73961e-15 0 0 -5.15424e-15 0 0 0 0)
(-5.42101e-14 -2.98198e-15 0 5.42101e-14 3.77806e-15 0 0 0 0)
(0 -5.50476e-16 0 0 -2.28966e-15 0 0 0 0)
(5.42101e-14 9.36909e-15 0 -5.42101e-14 1.05592e-15 0 0 0 0)
(0 1.07102e-14 0 0 1.18294e-14 0 0 0 0)
(0 -5.06074e-15 0 0 3.60823e-15 0 0 0 0)
(6.77626e-13 7.57564e-12 0 -5.42101e-14 1.30972e-11 0 0 0 0)
(-5.14996e-13 -9.15712e-12 0 -1.6263e-13 -2.89019e-12 0 0 0 0)
(-5.42101e-14 1.98718e-12 0 -1.6263e-13 6.54177e-13 0 0 0 0)
(-8.13152e-14 -4.60249e-13 0 -5.42101e-14 -1.71013e-13 0 0 0 0)
(2.71051e-14 9.34499e-14 0 -1.0842e-13 1.04273e-14 0 0 0 0)
(2.71051e-14 -2.49418e-14 0 -8.13152e-14 -2.46225e-14 0 0 0 0)
(5.42101e-14 -9.08758e-15 0 -5.42101e-14 -7.87242e-15 0 0 0 0)
(-5.42101e-14 -1.06286e-14 0 -5.42101e-14 1.50625e-14 0 0 0 0)
(-2.71051e-14 1.01037e-14 0 -1.0842e-13 2.06463e-14 0 0 0 0)
(2.71051e-14 8.76652e-15 0 -1.0842e-13 1.52706e-14 0 0 0 0)
(0 -5.94049e-15 0 -5.42101e-14 1.47085e-14 0 0 0 0)
(0 -1.55055e-14 0 -5.42101e-14 2.62754e-14 0 0 0 0)
(-2.71051e-14 -8.35243e-15 0 -2.71051e-14 2.16565e-14 0 0 0 0)
(-2.71051e-14 -1.90298e-15 0 0 4.28164e-15 0 0 0 0)
(-2.71051e-14 9.26999e-15 0 -5.42101e-14 -4.35859e-15 0 0 0 0)
(0 4.28065e-15 0 -5.42101e-14 -9.54933e-16 0 0 0 0)
(2.71051e-14 -2.68e-15 0 0 5.76162e-15 0 0 0 0)
(0 1.17216e-14 0 0 1.48474e-15 0 0 0 0)
(0 7.62302e-15 0 -2.71051e-14 -3.94588e-15 0 0 0 0)
(-2.71051e-14 -1.16276e-14 0 0 -6.09408e-15 0 0 0 0)
(-7.86047e-13 -3.81931e-13 0 -3.52366e-13 -2.03075e-11 0 0 0 0)
(4.33681e-13 4.99105e-13 0 2.71051e-14 4.40898e-12 0 0 0 0)
(8.13152e-14 -1.12083e-13 0 0 -1.03956e-12 0 0 0 0)
(1.35525e-13 1.1927e-14 0 0 2.04089e-13 0 0 0 0)
(0 -1.35279e-14 0 0 -7.12163e-14 0 0 0 0)
(0 -6.75462e-15 0 0 -7.66355e-15 0 0 0 0)
(0 6.1765e-16 0 -5.42101e-14 -2.3529e-14 0 0 0 0)
(5.42101e-14 5.94427e-15 0 -5.42101e-14 2.33905e-15 0 0 0 0)
(-5.42101e-14 -9.44432e-16 0 0 7.85434e-15 0 0 0 0)
(0 -4.6103e-15 0 0 7.58438e-17 0 0 0 0)
(5.42101e-14 1.19388e-15 0 -5.42101e-14 -2.48249e-14 0 0 0 0)
(0 5.68245e-15 0 -5.42101e-14 -1.8954e-14 0 0 0 0)
(0 -5.42379e-15 0 0 -1.19584e-16 0 0 0 0)
(0 -1.34979e-14 0 5.42101e-14 8.2928e-15 0 0 0 0)
(0 -2.49696e-15 0 8.13152e-14 1.12684e-14 0 0 0 0)
(2.71051e-14 7.13823e-15 0 5.42101e-14 2.313e-15 0 0 0 0)
(-2.71051e-14 1.8892e-15 0 2.71051e-14 6.41766e-15 0 0 0 0)
(0 -3.38406e-16 0 0 -5.78585e-15 0 0 0 0)
(2.71051e-14 3.13141e-15 0 0 -2.12113e-14 0 0 0 0)
(5.42101e-14 4.97922e-15 0 2.71051e-14 -1.41165e-14 0 0 0 0)
(4.06576e-13 -8.32292e-12 0 -7.04731e-13 1.70575e-11 0 0 0 0)
(-1.6263e-13 1.01109e-11 0 4.06576e-13 -3.70683e-12 0 0 0 0)
(-5.42101e-14 -2.21771e-12 0 1.35525e-13 8.34806e-13 0 0 0 0)
(-1.35525e-13 5.08093e-13 0 1.0842e-13 -1.9477e-13 0 0 0 0)
(0 -1.18303e-13 0 5.42101e-14 4.25448e-14 0 0 0 0)
(0 2.27456e-14 0 5.42101e-14 -4.19826e-15 0 0 0 0)
(0 9.15017e-16 0 5.42101e-14 1.15518e-14 0 0 0 0)
(0 2.07547e-14 0 0 6.34988e-15 0 0 0 0)
(0 7.84049e-15 0 0 3.50664e-15 0 0 0 0)
(0 -2.39127e-14 0 5.42101e-14 -3.80339e-16 0 0 0 0)
(-2.71051e-14 -2.49704e-14 0 5.42101e-14 -5.45248e-15 0 0 0 0)
(2.71051e-14 9.1998e-15 0 5.42101e-14 -1.25581e-14 0 0 0 0)
(2.71051e-14 1.88944e-14 0 0 -1.00949e-14 0 0 0 0)
(2.71051e-14 9.48504e-15 0 0 1.44857e-15 0 0 0 0)
(-2.71051e-14 3.29019e-15 0 2.71051e-14 8.92615e-15 0 0 0 0)
(-2.71051e-14 -5.70124e-16 0 2.71051e-14 -3.2107e-15 0 0 0 0)
(0 -1.07789e-14 0 2.71051e-14 5.96848e-15 0 0 0 0)
(0 -1.59073e-14 0 8.13152e-14 1.03118e-14 0 0 0 0)
(0 -7.07677e-16 0 2.71051e-14 1.73765e-15 0 0 0 0)
(-5.42101e-14 2.37002e-14 0 2.71051e-14 -7.0346e-16 0 0 0 0)
(-1.0571e-12 1.29687e-11 0 2.00577e-12 4.64523e-13 0 0 0 0)
(1.21973e-12 -1.57236e-11 0 -7.58942e-13 -1.56358e-13 0 0 0 0)
(-2.43945e-13 3.39998e-12 0 -1.89735e-13 2.5562e-14 0 0 0 0)
(1.0842e-13 -7.80334e-13 0 -1.0842e-13 -1.14246e-14 0 0 0 0)
(-8.13152e-14 1.77044e-13 0 -8.13152e-14 1.61014e-14 0 0 0 0)
(0 -3.77476e-14 0 -8.13152e-14 1.2224e-14 0 0 0 0)
(-2.71051e-14 1.11658e-14 0 -8.13152e-14 1.14582e-14 0 0 0 0)
(0 -2.10094e-15 0 -2.71051e-14 -1.71063e-15 0 0 0 0)
(0 -7.67465e-15 0 -2.71051e-14 -1.6236e-14 0 0 0 0)
(2.71051e-14 -1.35694e-14 0 -5.42101e-14 -1.85386e-14 0 0 0 0)
(0 -1.09839e-14 0 -8.13152e-14 7.45177e-15 0 0 0 0)
(-2.71051e-14 1.04005e-15 0 -5.42101e-14 1.13744e-14 0 0 0 0)
(0 8.5829e-15 0 -5.42101e-14 -7.63315e-15 0 0 0 0)
(2.71051e-14 5.52314e-15 0 -8.13152e-14 -1.32507e-14 0 0 0 0)
(0 -7.15623e-15 0 -5.42101e-14 -1.39096e-14 0 0 0 0)
(5.42101e-14 4.18055e-15 0 -2.71051e-14 -1.3899e-14 0 0 0 0)
(0 1.54117e-14 0 -5.42101e-14 -2.51432e-15 0 0 0 0)
(0 -4.56923e-15 0 -2.71051e-14 1.09013e-14 0 0 0 0)
(2.71051e-14 -7.88383e-15 0 -2.71051e-14 1.54568e-14 0 0 0 0)
(-2.71051e-14 3.94503e-15 0 -2.71051e-14 7.1766e-15 0 0 0 0)
(1.65341e-12 -8.01475e-12 0 -6.50521e-13 -2.00739e-11 0 0 0 0)
(-2.33103e-12 9.6719e-12 0 3.52366e-13 4.36733e-12 0 0 0 0)
(5.96311e-13 -2.07278e-12 0 1.89735e-13 -1.03242e-12 0 0 0 0)
(-5.42101e-14 4.98633e-13 0 0 2.04609e-13 0 0 0 0)
(5.42101e-14 -9.46545e-14 0 8.13152e-14 -6.15486e-14 0 0 0 0)
(0 1.81024e-14 0 8.13152e-14 1.01282e-14 0 0 0 0)
(0 -1.30196e-14 0 8.13152e-14 5.23683e-15 0 0 0 0)
(0 -6.93946e-15 0 8.13152e-14 1.01873e-14 0 0 0 0)
(2.71051e-14 -8.98745e-15 0 2.71051e-14 7.33368e-15 0 0 0 0)
(0 -2.24974e-16 0 5.42101e-14 -1.63562e-15 0 0 0 0)
(0 4.94255e-15 0 0 -7.89943e-15 0 0 0 0)
(0 -5.88512e-15 0 0 -9.26436e-15 0 0 0 0)
(5.42101e-14 -5.7307e-15 0 0 -1.87691e-14 0 0 0 0)
(0 3.2086e-15 0 0 -2.32735e-14 0 0 0 0)
(5.42101e-14 2.64193e-15 0 -5.42101e-14 -1.85876e-14 0 0 0 0)
(-5.42101e-14 1.08251e-14 0 -5.42101e-14 4.24213e-15 0 0 0 0)
(0 1.40215e-14 0 0 -1.17895e-14 0 0 0 0)
(0 2.06384e-15 0 0 -1.16211e-14 0 0 0 0)
(0 -4.43239e-15 0 0 -1.64226e-15 0 0 0 0)
(0 1.06677e-15 0 0 1.88464e-15 0 0 0 0)
(-1.32815e-12 -2.73781e-12 0 -3.41524e-12 2.34278e-11 0 0 0 0)
(2.00577e-12 3.31787e-12 0 9.21572e-13 -5.00773e-12 0 0 0 0)
(-6.23416e-13 -7.62745e-13 0 -1.35525e-13 1.19115e-12 0 0 0 0)
(0 1.90538e-13 0 8.13152e-14 -2.4886e-13 0 0 0 0)
(2.71051e-14 -1.74374e-14 0 -5.42101e-14 5.63614e-14 0 0 0 0)
(2.71051e-14 2.90379e-14 0 5.42101e-14 -1.02186e-14 0 0 0 0)
(-2.71051e-14 1.12249e-14 0 0 1.41721e-14 0 0 0 0)
(-2.71051e-14 -4.08678e-18 0 5.42101e-14 1.59937e-14 0 0 0 0)
(-5.42101e-14 -1.94976e-14 0 8.13152e-14 2.04193e-14 0 0 0 0)
(0 -2.88025e-14 0 5.42101e-14 1.10794e-14 0 0 0 0)
(-5.42101e-14 -1.86126e-14 0 1.35525e-13 1.98146e-15 0 0 0 0)
(0 -9.8296e-15 0 5.42101e-14 2.72569e-15 0 0 0 0)
(-2.71051e-14 -5.42625e-15 0 0 4.75281e-15 0 0 0 0)
(0 5.70458e-15 0 8.13152e-14 -6.02203e-15 0 0 0 0)
(0 2.03594e-14 0 0 -1.0526e-14 0 0 0 0)
(2.71051e-14 1.09787e-14 0 0 -1.59403e-15 0 0 0 0)
(5.42101e-14 -4.51532e-16 0 0 -4.396e-15 0 0 0 0)
(0 5.57801e-15 0 -5.42101e-14 -8.71792e-15 0 0 0 0)
(2.71051e-14 5.62189e-15 0 0 -6.07744e-15 0 0 0 0)
(-2.71051e-14 3.70266e-15 0 0 1.00969e-14 0 0 0 0)
(-8.94467e-13 1.04053e-11 0 5.25838e-12 -1.82919e-12 0 0 0 0)
(1.00289e-12 -1.25648e-11 0 -1.49078e-12 3.05719e-13 0 0 0 0)
(-2.43945e-13 2.68609e-12 0 8.13152e-14 -5.2903e-14 0 0 0 0)
(8.13152e-14 -6.36155e-13 0 -8.13152e-14 2.13731e-14 0 0 0 0)
(-2.71051e-14 1.43987e-13 0 0 3.37162e-16 0 0 0 0)
(0 -2.40869e-14 0 -1.0842e-13 -1.49002e-14 0 0 0 0)
(2.71051e-14 1.31926e-14 0 -5.42101e-14 -3.73183e-14 0 0 0 0)
(8.13152e-14 -6.92204e-16 0 -2.71051e-14 -4.44901e-14 0 0 0 0)
(2.71051e-14 -1.39017e-14 0 2.71051e-14 -3.07716e-14 0 0 0 0)
(5.42101e-14 -1.86628e-14 0 2.71051e-14 -7.65996e-15 0 0 0 0)
(-2.71051e-14 -3.4112e-15 0 2.71051e-14 1.48805e-14 0 0 0 0)
(-2.71051e-14 -3.11376e-15 0 5.42101e-14 2.83665e-14 0 0 0 0)
(0 -1.44784e-14 0 8.13152e-14 3.46194e-14 0 0 0 0)
(0 -1.20702e-14 0 5.42101e-14 3.10639e-14 0 0 0 0)
(-2.71051e-14 7.06992e-15 0 0 1.7116e-14 0 0 0 0)
(0 1.69551e-14 0 0 -8.78202e-16 0 0 0 0)
(-2.71051e-14 6.89759e-15 0 -5.42101e-14 1.91638e-15 0 0 0 0)
(0 3.82403e-16 0 5.42101e-14 -4.56173e-15 0 0 0 0)
(2.71051e-14 1.43825e-14 0 -5.42101e-14 -6.41141e-15 0 0 0 0)
(-2.71051e-14 -2.95271e-15 0 -2.71051e-14 -2.26921e-15 0 0 0 0)
(2.41235e-12 -4.26128e-12 0 -2.43945e-13 -2.19683e-11 0 0 0 0)
(-3.11708e-12 5.09416e-12 0 2.71051e-13 4.68309e-12 0 0 0 0)
(7.58942e-13 -1.04709e-12 0 1.89735e-13 -1.12142e-12 0 0 0 0)
(-1.0842e-13 2.43778e-13 0 1.0842e-13 2.30398e-13 0 0 0 0)
(5.42101e-14 -5.37107e-14 0 1.0842e-13 -5.90641e-14 0 0 0 0)
(0 -8.61764e-15 0 1.35525e-13 4.207e-15 0 0 0 0)
(5.42101e-14 -1.8365e-14 0 1.35525e-13 -1.9204e-14 0 0 0 0)
(0 6.54269e-15 0 5.42101e-14 -1.70316e-14 0 0 0 0)
(2.71051e-14 1.73325e-14 0 0 -1.51313e-14 0 0 0 0)
(-2.71051e-14 1.68495e-14 0 -2.71051e-14 2.87079e-15 0 0 0 0)
(0 1.74138e-14 0 -2.71051e-14 6.56973e-15 0 0 0 0)
(-2.71051e-14 9.90935e-15 0 0 9.05099e-15 0 0 0 0)
(-2.71051e-14 -2.72887e-15 0 2.71051e-14 1.55682e-14 0 0 0 0)
(-5.42101e-14 -1.17988e-14 0 0 2.43796e-14 0 0 0 0)
(-2.71051e-14 -1.15826e-14 0 8.13152e-14 1.82996e-14 0 0 0 0)
(2.71051e-14 -4.22093e-15 0 5.42101e-14 6.09153e-15 0 0 0 0)
(5.42101e-14 -4.13506e-15 0 5.42101e-14 -3.76686e-15 0 0 0 0)
(-5.42101e-14 -2.74977e-15 0 2.71051e-14 4.58594e-16 0 0 0 0)
(0 7.91441e-15 0 8.13152e-14 -1.34775e-15 0 0 0 0)
(5.42101e-14 1.23833e-14 0 0 -1.61129e-14 0 0 0 0)
(-8.94467e-13 -6.87993e-12 0 -1.89735e-12 1.40848e-11 0 0 0 0)
(1.40946e-12 8.28216e-12 0 3.52366e-13 -2.94363e-12 0 0 0 0)
(-3.25261e-13 -1.7666e-12 0 -1.89735e-13 7.08525e-13 0 0 0 0)
(0 4.26205e-13 0 -5.42101e-14 -1.29942e-13 0 0 0 0)
(-2.71051e-14 -8.22038e-14 0 -5.42101e-14 3.85418e-14 0 0 0 0)
(0 1.57732e-14 0 -8.13152e-14 5.97224e-15 0 0 0 0)
(-2.71051e-14 -8.046e-15 0 -8.13152e-14 3.13863e-14 0 0 0 0)
(-5.42101e-14 3.38052e-15 0 -8.13152e-14 3.23833e-14 0 0 0 0)
(-2.71051e-14 6.00071e-15 0 -5.42101e-14 2.14631e-14 0 0 0 0)
(0 3.0382e-15 0 -5.42101e-14 9.05003e-15 0 0 0 0)
(0 2.769e-15 0 -5.42101e-14 1.57537e-15 0 0 0 0)
(0 5.8847e-15 0 -5.42101e-14 -1.11328e-14 0 0 0 0)
(2.71051e-14 8.5016e-16 0 -5.42101e-14 -1.42187e-14 0 0 0 0)
(2.71051e-14 -9.33882e-15 0 -5.42101e-14 -9.25406e-15 0 0 0 0)
(-2.71051e-14 -1.12181e-14 0 -2.71051e-14 6.91897e-15 0 0 0 0)
(-2.71051e-14 -5.1113e-15 0 0 1.35467e-14 0 0 0 0)
(-2.71051e-14 1.26465e-15 0 0 1.62512e-14 0 0 0 0)
(2.71051e-14 2.80152e-15 0 -2.71051e-14 1.64171e-14 0 0 0 0)
(0 -2.18907e-15 0 -2.71051e-14 1.61995e-14 0 0 0 0)
(-5.42101e-14 1.4508e-14 0 0 1.06918e-14 0 0 0 0)
)
;

boundaryField
{
    movingWall
    {
        type            extrapolatedCalculated;
        value           nonuniform List<tensor> 
20
(
(-8.94467e-13 -6.87993e-12 0 5.24025e-12 3.49251e-11 0 0 0 0)
(1.40946e-12 8.28216e-12 0 -1.73195e-12 -7.40539e-12 0 0 0 0)
(-3.25261e-13 -1.7666e-12 0 -3.55271e-13 1.79646e-12 0 0 0 0)
(0 4.26205e-13 0 -3.9968e-13 -3.3899e-13 0 0 0 0)
(-2.71051e-14 -8.22038e-14 0 -3.10862e-13 9.1644e-14 0 0 0 0)
(0 1.57732e-14 0 -3.10862e-13 -1.01749e-14 0 0 0 0)
(-2.71051e-14 -8.046e-15 0 -2.66454e-13 2.85513e-14 0 0 0 0)
(-5.42101e-14 3.38052e-15 0 -2.22045e-13 2.20091e-14 0 0 0 0)
(-2.71051e-14 6.00071e-15 0 -1.33227e-13 1.50292e-14 0 0 0 0)
(0 3.0382e-15 0 -1.33227e-13 -1.99369e-15 0 0 0 0)
(0 2.769e-15 0 -1.33227e-13 2.87644e-15 0 0 0 0)
(0 5.8847e-15 0 -4.44089e-14 -1.30697e-14 0 0 0 0)
(2.71051e-14 8.5016e-16 0 -1.33227e-13 -2.06624e-14 0 0 0 0)
(2.71051e-14 -9.33882e-15 0 -2.22045e-13 -1.64703e-14 0 0 0 0)
(-2.71051e-14 -1.12181e-14 0 -2.22045e-13 1.66929e-14 0 0 0 0)
(-2.71051e-14 -5.1113e-15 0 -1.33227e-13 2.84021e-14 0 0 0 0)
(-2.71051e-14 1.26465e-15 0 -8.88178e-14 3.71381e-14 0 0 0 0)
(2.71051e-14 2.80152e-15 0 -4.44089e-14 2.33436e-14 0 0 0 0)
(0 -2.18907e-15 0 -1.33227e-13 2.5932e-14 0 0 0 0)
(-5.42101e-14 1.4508e-14 0 -8.88178e-14 3.20998e-14 0 0 0 0)
)
;
    }
    fixedWalls
    {
        type            extrapolatedCalculated;
        value           nonuniform List<tensor> 
60
(
(-6.39488e-12 6.18349e-11 0 1.30104e-12 1.68449e-11 0 0 0 0)
(1.15907e-11 5.54487e-12 0 6.50521e-13 -2.95055e-11 0 0 0 0)
(-3.81917e-12 -5.61872e-11 0 -4.3097e-12 8.32653e-12 0 0 0 0)
(-5.59552e-12 3.8851e-11 0 2.92735e-12 1.43292e-11 0 0 0 0)
(7.90479e-12 1.12972e-12 0 -4.87891e-13 -1.90833e-11 0 0 0 0)
(-7.54952e-12 -3.74823e-11 0 -1.89735e-12 1.22258e-11 0 0 0 0)
(3.10862e-13 5.0033e-11 0 2.84603e-12 4.32885e-12 0 0 0 0)
(3.73035e-12 -2.01669e-11 0 -8.13152e-13 -1.81331e-11 0 0 0 0)
(-2.84217e-12 -2.24992e-11 0 2.71051e-14 1.74684e-11 0 0 0 0)
(3.86358e-12 4.97068e-11 0 1.6263e-13 -7.98042e-12 0 0 0 0)
(-2.30926e-12 -5.44209e-11 0 -3.52366e-13 -2.77441e-12 0 0 0 0)
(2.62013e-12 3.86091e-11 0 -5.42101e-14 1.30972e-11 0 0 0 0)
(-2.66454e-12 -2.03198e-12 0 -3.52366e-13 -2.03075e-11 0 0 0 0)
(1.24345e-12 -4.2621e-11 0 -7.04731e-13 1.70575e-11 0 0 0 0)
(-5.41789e-12 6.6198e-11 0 2.00577e-12 4.64523e-13 0 0 0 0)
(9.28146e-12 -4.0763e-11 0 -6.50521e-13 -2.00739e-11 0 0 0 0)
(-8.08242e-12 -1.40975e-11 0 -3.41524e-12 2.34278e-11 0 0 0 0)
(-4.26326e-12 5.29483e-11 0 5.25838e-12 -1.82919e-12 0 0 0 0)
(1.28786e-11 -2.14143e-11 0 -2.43945e-13 -2.19683e-11 0 0 0 0)
(-5.24025e-12 -3.49251e-11 0 -1.89735e-12 1.40848e-11 0 0 0 0)
(0 7.60403e-16 0 0 -9.93548e-15 0 0 0 0)
(8.88178e-14 3.89815e-14 0 0 -1.25575e-14 0 0 0 0)
(0 5.09903e-14 0 0 1.27346e-15 0 0 0 0)
(0 3.38877e-14 0 2.71051e-14 8.95317e-15 0 0 0 0)
(-8.88178e-14 1.51777e-14 0 2.71051e-14 1.14715e-14 0 0 0 0)
(-4.44089e-14 -1.19982e-14 0 -2.71051e-14 1.03479e-14 0 0 0 0)
(-4.44089e-14 -2.62141e-14 0 0 3.25124e-15 0 0 0 0)
(0 -2.50032e-14 0 -2.71051e-14 -7.76199e-15 0 0 0 0)
(-4.44089e-14 4.83388e-15 0 2.71051e-14 -4.92803e-15 0 0 0 0)
(0 -5.29107e-15 0 -2.71051e-14 5.72377e-15 0 0 0 0)
(-4.44089e-14 -1.80612e-14 0 0 3.60823e-15 0 0 0 0)
(0 -1.9724e-14 0 0 -6.09408e-15 0 0 0 0)
(8.88178e-14 6.31514e-15 0 2.71051e-14 -1.41165e-14 0 0 0 0)
(-1.33227e-13 3.67422e-14 0 2.71051e-14 -7.0346e-16 0 0 0 0)
(-8.88178e-14 9.12898e-15 0 -2.71051e-14 7.1766e-15 0 0 0 0)
(0 8.03582e-15 0 0 1.88464e-15 0 0 0 0)
(-4.44089e-14 1.59043e-15 0 0 1.00969e-14 0 0 0 0)
(-4.44089e-14 -3.23519e-14 0 -2.71051e-14 -2.26921e-15 0 0 0 0)
(8.88178e-14 1.06673e-14 0 0 -1.61129e-14 0 0 0 0)
(-8.88178e-14 3.20998e-14 0 0 1.06918e-14 0 0 0 0)
(-1.0571e-12 1.211e-11 0 -6.39488e-12 6.18349e-11 0 0 0 0)
(1.6263e-12 -1.46604e-11 0 2.13163e-12 -1.33949e-11 0 0 0 0)
(-4.60786e-13 3.18733e-12 0 1.33227e-13 3.19345e-12 0 0 0 0)
(2.71051e-14 -7.43021e-13 0 3.10862e-13 -6.45523e-13 0 0 0 0)
(-2.71051e-14 1.74495e-13 0 1.77636e-13 2.21363e-13 0 0 0 0)
(-2.71051e-14 -3.73583e-14 0 2.66454e-13 5.24574e-14 0 0 0 0)
(-5.42101e-14 4.30445e-16 0 4.44089e-14 7.19302e-14 0 0 0 0)
(0 -5.87083e-15 0 4.44089e-14 5.41792e-14 0 0 0 0)
(0 -1.64779e-14 0 0 4.84468e-14 0 0 0 0)
(0 -1.89981e-14 0 8.88178e-14 -1.17325e-14 0 0 0 0)
(0 -1.30973e-14 0 0 -2.75454e-14 0 0 0 0)
(2.71051e-14 6.49484e-15 0 8.88178e-14 -6.41218e-14 0 0 0 0)
(0 3.34891e-14 0 1.33227e-13 -1.56603e-15 0 0 0 0)
(-5.42101e-14 1.56486e-14 0 1.33227e-13 6.98348e-14 0 0 0 0)
(-5.42101e-14 -1.35463e-14 0 -8.88178e-14 6.10282e-14 0 0 0 0)
(0 -2.36524e-14 0 -8.88178e-14 1.56495e-14 0 0 0 0)
(5.42101e-14 -6.33729e-15 0 0 -3.35813e-14 0 0 0 0)
(2.71051e-14 1.38115e-14 0 4.44089e-14 -9.69963e-15 0 0 0 0)
(-2.71051e-14 2.23481e-15 0 0 2.16648e-14 0 0 0 0)
(0 -5.2261e-15 0 0 -7.60403e-16 0 0 0 0)
)
;
    }
    frontAndBack
    {
        type            empty;
    }
}


// ************************************************************************* //
