/*--------------------------------*- C++ -*----------------------------------*\
| =========                 |                                                 |
| \\      /  F ield         | OpenFOAM: The Open Source CFD Toolbox           |
|  \\    /   O peration     | Version:  2506                                  |
|   \\  /    A nd           | Website:  www.openfoam.com                      |
|    \\/     M anipulation  |                                                 |
\*---------------------------------------------------------------------------*/
FoamFile
{
    version     2.0;
    format      ascii;
    arch        "LSB;label=32;scalar=64";
    class       volVectorField;
    location    "9.125";
    object      LambVectorField;
}
// * * * * * * * * * * * * * * * * * * * * * * * * * * * * * * * * * * * * * //

dimensions      [0 1 -2 0 0 0 0];

internalField   nonuniform List<vector> 
400
(
(-1.67093e-24 -1.0809e-11 0)
(-4.76411e-25 1.42267e-11 -0)
(-2.58793e-26 -3.24154e-12 0)
(-1.15535e-27 7.15916e-13 -0)
(-1.11567e-28 -2.016e-13 0)
(4.8993e-30 3.73583e-14 0)
(-7.74049e-32 -4.30445e-16 0)
(-6.54746e-30 -4.83393e-14 0)
(1.99576e-30 1.64779e-14 0)
(-1.35226e-30 4.61031e-14 -0)
(-9.01928e-31 1.30973e-14 -0)
(9.73128e-30 -6.0705e-14 -0)
(3.43349e-31 -8.76993e-14 -0)
(-1.21964e-29 -6.98587e-14 0)
(-6.2041e-30 -4.06638e-14 0)
(-1.19553e-30 -3.05577e-14 0)
(-5.32036e-31 6.33729e-15 -0)
(3.34917e-31 -1.38115e-14 -0)
(-3.05717e-30 -5.64449e-14 0)
(-9.93487e-33 5.2261e-15 -0)
(-6.22296e-27 -4.48917e-13 0)
(-3.01272e-27 1.05054e-12 -0)
(-1.99494e-28 -3.08682e-13 0)
(-1.51902e-30 2.92042e-14 -0)
(-2.86558e-30 -3.4448e-14 0)
(-1.5138e-30 -7.0687e-14 0)
(-1.2456e-31 5.39307e-15 -0)
(9.35144e-31 -2.87602e-14 -0)
(2.19873e-32 -3.35958e-15 -0)
(-4.02205e-32 -3.72211e-14 0)
(-5.47013e-30 -5.78144e-14 0)
(-8.95245e-31 -2.41153e-14 0)
(-2.49695e-30 -3.85823e-14 0)
(-1.16273e-31 -7.65474e-16 0)
(4.79171e-30 6.62092e-14 0)
(2.23224e-30 6.99642e-14 0)
(-9.65298e-31 1.1334e-14 -0)
(4.73253e-32 -5.81146e-16 -0)
(-4.42907e-30 5.5812e-14 -0)
(1.72309e-30 -1.76811e-14 -0)
(-9.49061e-25 6.75642e-12 -0)
(-3.55785e-25 -1.19363e-11 0)
(-2.12492e-26 2.91831e-12 -0)
(-8.1408e-28 -5.66513e-13 0)
(-1.41475e-28 2.65915e-13 -0)
(2.1189e-30 -1.53604e-14 -0)
(8.27314e-30 -7.70489e-14 -0)
(-1.79682e-30 -1.98672e-14 0)
(-7.97944e-30 -8.74012e-14 0)
(-8.00538e-30 -5.291e-14 0)
(-1.72328e-30 -2.20099e-14 0)
(8.5517e-30 8.52188e-14 0)
(1.34786e-30 3.43321e-14 0)
(1.67692e-30 5.97198e-14 0)
(-5.03056e-31 3.17626e-14 -0)
(-1.90873e-32 1.032e-15 -0)
(-8.22149e-31 3.14301e-14 -0)
(-2.26269e-30 3.66454e-14 -0)
(-4.09397e-30 3.36781e-14 -0)
(3.17463e-30 -2.49038e-14 -0)
(-4.51693e-25 -4.65052e-12 0)
(-1.7753e-25 8.31568e-12 -0)
(-1.0077e-26 -2.00498e-12 0)
(-4.48013e-28 4.35811e-13 -0)
(-7.59115e-29 -1.913e-13 0)
(2.16057e-30 3.00688e-14 0)
(-4.44039e-32 -4.61914e-16 0)
(1.89714e-30 2.48079e-14 0)
(3.06208e-30 2.57098e-14 0)
(6.64926e-30 7.35328e-14 0)
(-3.34485e-30 4.51241e-14 -0)
(3.10845e-31 -3.46287e-15 -0)
(7.52158e-32 -1.90435e-15 -0)
(-3.12683e-33 4.42133e-17 -0)
(-1.92706e-31 4.82502e-15 -0)
(-3.38821e-30 2.84791e-14 -0)
(8.32144e-31 -1.55021e-14 -0)
(-1.15403e-30 -3.20127e-14 0)
(-5.55893e-32 1.20768e-14 -0)
(-1.53959e-30 1.81728e-14 -0)
(-2.12648e-27 -7.52925e-13 0)
(-4.69297e-29 2.69776e-13 -0)
(-1.76566e-29 -1.39537e-13 0)
(-1.25442e-29 -9.14223e-14 0)
(-6.12189e-30 -2.68966e-14 0)
(2.53603e-30 1.87678e-14 0)
(3.21519e-30 8.05201e-14 0)
(-8.85808e-30 6.92182e-14 -0)
(1.68681e-30 -1.53136e-14 -0)
(-5.34987e-31 -2.1261e-14 0)
(7.82599e-30 7.63812e-14 0)
(7.38363e-31 9.91065e-15 0)
(4.57591e-31 1.36469e-13 0)
(-1.51385e-29 7.34915e-14 -0)
(-4.09174e-30 2.15967e-14 -0)
(6.15349e-30 -4.07769e-14 -0)
(2.51873e-30 -4.77549e-14 -0)
(-3.16809e-31 -5.69876e-15 0)
(1.54763e-31 3.64587e-14 0)
(-9.0061e-31 2.37351e-14 -0)
(-5.1058e-25 5.44876e-12 -0)
(-1.65597e-25 -8.17983e-12 0)
(-9.49285e-27 1.95321e-12 -0)
(-4.19604e-28 -4.2665e-13 0)
(-4.10972e-29 1.27409e-13 -0)
(-4.1552e-31 2.12452e-14 -0)
(-5.9532e-32 -8.39809e-15 0)
(6.95385e-32 1.07941e-15 0)
(-2.31035e-31 6.23516e-14 -0)
(-1.94237e-32 1.14311e-15 -0)
(-5.09071e-31 3.36321e-14 -0)
(-5.48677e-30 6.66986e-14 -0)
(-8.83251e-31 6.30799e-15 -0)
(4.24448e-30 -2.92034e-14 -0)
(4.67743e-30 -3.92937e-14 -0)
(3.52219e-31 -1.50164e-14 -0)
(-1.72135e-30 -5.53027e-14 0)
(6.32479e-31 -5.04768e-14 -0)
(3.62876e-31 -5.84627e-14 -0)
(-7.41676e-31 -2.47262e-14 0)
(-8.66292e-25 -6.92577e-12 0)
(-3.02461e-25 1.1053e-11 -0)
(-1.61517e-26 -2.5155e-12 0)
(-9.39617e-28 6.7291e-13 -0)
(-3.09937e-29 -1.32537e-13 0)
(-3.23281e-30 4.55475e-14 -0)
(-6.19719e-31 -1.25387e-14 0)
(2.0464e-30 3.76106e-14 0)
(-2.69942e-30 4.85236e-14 -0)
(-6.60701e-30 4.13519e-14 -0)
(4.79691e-30 -2.42146e-14 -0)
(2.14043e-29 -1.13443e-13 -0)
(1.19414e-29 -8.07528e-14 -0)
(-8.36078e-30 -1.08939e-13 0)
(-3.02593e-30 -2.35728e-14 0)
(6.91097e-31 1.66831e-14 0)
(-4.40148e-31 1.14427e-14 -0)
(-3.57443e-30 4.89638e-14 -0)
(-1.93925e-31 -1.38537e-14 0)
(5.21222e-31 7.95332e-15 0)
(-1.5849e-25 3.14357e-12 -0)
(-4.96995e-26 -4.58059e-12 0)
(-2.52595e-27 1.03399e-12 -0)
(-1.12019e-28 -2.19584e-13 0)
(-2.87012e-29 1.16159e-13 -0)
(1.05858e-29 -9.68051e-14 -0)
(5.66906e-30 -6.14966e-14 -0)
(6.0981e-32 -1.67133e-15 -0)
(1.57958e-30 -2.09294e-14 -0)
(-2.93319e-30 2.98565e-14 -0)
(5.82787e-31 -5.65891e-15 -0)
(3.58911e-31 -8.61652e-15 -0)
(1.93802e-31 -1.15218e-14 -0)
(-5.9811e-31 -8.13048e-15 0)
(9.07841e-31 1.40785e-14 0)
(-1.47454e-30 2.19358e-14 -0)
(1.21608e-31 -7.85208e-16 -0)
(1.13985e-30 -1.91994e-14 -0)
(-4.52415e-31 -1.21877e-14 0)
(-1.07152e-30 -1.71422e-14 0)
(-2.50186e-25 4.4479e-12 -0)
(-6.08192e-26 -5.05136e-12 0)
(-3.84766e-27 1.2724e-12 -0)
(-8.54845e-29 -2.13497e-13 0)
(-2.78915e-29 8.0407e-14 -0)
(2.56734e-30 -1.93589e-14 -0)
(4.04694e-31 -2.64005e-15 -0)
(1.01021e-29 -9.51084e-14 -0)
(1.03237e-30 -6.72221e-14 -0)
(-1.49514e-30 -6.25503e-14 0)
(-2.21286e-30 -3.25208e-14 0)
(6.98816e-30 8.95228e-14 0)
(-1.13472e-30 8.0866e-14 -0)
(-2.39738e-29 1.27183e-13 -0)
(-3.3625e-30 1.66743e-14 -0)
(1.38264e-30 -1.64226e-14 -0)
(-1.86955e-30 4.99459e-14 -0)
(-1.23563e-30 2.97388e-14 -0)
(-1.54057e-30 2.41586e-14 -0)
(-2.3589e-31 1.95197e-14 -0)
(-1.1901e-24 -9.57697e-12 0)
(-3.09521e-25 1.15188e-11 -0)
(-1.7155e-26 -2.69381e-12 0)
(-7.66042e-28 5.94732e-13 -0)
(-6.81954e-29 -1.61989e-13 0)
(2.53698e-30 4.17332e-14 0)
(6.18057e-32 1.69015e-14 0)
(-2.22376e-30 2.05478e-14 -0)
(-1.23598e-29 6.12416e-14 -0)
(1.14665e-29 -6.42242e-14 -0)
(6.51701e-30 -6.40936e-14 -0)
(2.77511e-30 -3.48178e-14 -0)
(1.33887e-30 -5.45319e-14 -0)
(4.01655e-30 -5.25139e-14 -0)
(1.28542e-30 -3.09635e-14 -0)
(2.10828e-30 -5.56262e-14 -0)
(1.15272e-33 -4.21415e-17 -0)
(9.2603e-31 -2.47077e-14 -0)
(2.60266e-31 -5.07071e-15 -0)
(-4.08933e-31 -3.0915e-14 0)
(-1.39271e-24 1.02366e-11 -0)
(-3.85463e-25 -1.27795e-11 0)
(-1.93124e-26 2.91257e-12 -0)
(-1.31325e-27 -7.09887e-13 0)
(-1.58273e-29 2.14128e-13 -0)
(1.7496e-29 6.977e-14 0)
(6.1261e-30 1.47488e-13 0)
(-1.8327e-29 1.30995e-13 -0)
(-1.01983e-29 5.53627e-14 -0)
(-1.62173e-29 1.07093e-13 -0)
(-2.02097e-29 1.18231e-13 -0)
(-1.38434e-29 5.54756e-14 -0)
(-1.93413e-30 1.05351e-14 -0)
(5.59447e-30 -6.67273e-14 -0)
(1.60039e-31 -2.73961e-15 -0)
(-3.22819e-30 5.71921e-14 -0)
(-4.85721e-32 5.50476e-16 -0)
(3.93869e-30 -6.35792e-14 -0)
(-5.84181e-32 -1.07102e-14 0)
(2.28507e-31 5.06074e-15 0)
(-7.36455e-25 -7.62985e-12 0)
(-1.86783e-25 8.99449e-12 -0)
(-1.06449e-26 -2.14981e-12 0)
(-3.63223e-28 4.06039e-13 -0)
(-7.04661e-29 -2.0187e-13 0)
(-2.252e-30 -5.63734e-14 0)
(-4.49642e-30 -4.51225e-14 0)
(2.21951e-30 -4.35815e-14 -0)
(7.86605e-31 -1.18524e-13 -0)
(-5.87213e-30 -1.17187e-13 0)
(-3.91122e-30 -4.82696e-14 0)
(3.59789e-31 -3.87046e-14 -0)
(1.3882e-30 -1.87526e-14 -0)
(-1.76635e-31 1.90298e-15 -0)
(5.90724e-30 -6.34801e-14 -0)
(7.03306e-33 -5.84908e-14 -0)
(-1.3467e-31 2.68e-15 -0)
(3.15549e-31 -1.17216e-14 -0)
(-2.32561e-30 -3.47281e-14 0)
(5.73358e-31 1.16276e-14 0)
(-1.50191e-28 2.95654e-14 -0)
(-5.95027e-28 -4.72e-13 0)
(-9.96547e-30 1.12083e-13 -0)
(-1.66765e-30 -1.1927e-14 0)
(4.10686e-31 1.35279e-14 0)
(3.06826e-32 6.75462e-15 0)
(2.03892e-30 -5.48278e-14 -0)
(-6.44792e-31 -6.01544e-14 0)
(2.10182e-32 9.44432e-16 0)
(5.87646e-33 4.6103e-15 0)
(1.32128e-30 -5.5404e-14 -0)
(-7.91388e-31 -5.98926e-14 0)
(1.78857e-31 5.42379e-15 0)
(-2.77768e-30 6.7708e-14 -0)
(-8.54905e-30 8.38121e-14 -0)
(-3.10646e-30 4.70719e-14 -0)
(-7.72118e-31 2.52159e-14 -0)
(-1.59396e-32 3.38406e-16 -0)
(1.06482e-31 -3.13141e-15 -0)
(-3.49319e-31 2.21258e-14 -0)
(-8.11737e-25 7.61818e-12 -0)
(-2.26337e-25 -9.70428e-12 0)
(-1.28111e-26 2.35324e-12 -0)
(-4.58163e-28 -3.99673e-13 0)
(-6.2639e-29 1.72513e-13 -0)
(-1.15435e-30 3.14645e-14 -0)
(-7.22898e-30 5.32951e-14 -0)
(5.7153e-31 -2.07547e-14 -0)
(-5.63784e-31 -7.84049e-15 0)
(3.97392e-30 7.81228e-14 0)
(-1.32406e-29 7.91805e-14 -0)
(-8.94968e-30 4.50103e-14 -0)
(1.42129e-30 -1.88944e-14 -0)
(9.38274e-32 -9.48504e-15 -0)
(4.67433e-31 2.38149e-14 0)
(6.368e-31 2.76752e-14 0)
(5.27592e-31 3.78839e-14 0)
(-8.2424e-30 9.72224e-14 -0)
(-4.03691e-30 2.78127e-14 -0)
(-3.12758e-31 3.4049e-15 -0)
(-1.81431e-24 -1.0963e-11 0)
(-5.35848e-25 1.49646e-11 -0)
(-2.9648e-26 -3.58971e-12 0)
(-1.21474e-27 6.71914e-13 -0)
(-1.17762e-28 -2.58359e-13 0)
(1.63117e-30 -4.35676e-14 -0)
(-7.2441e-30 -9.2481e-14 0)
(-1.85575e-30 -2.50041e-14 0)
(-1.11378e-30 -1.94304e-14 0)
(1.0277e-31 -4.06407e-14 -0)
(5.51207e-30 -7.03313e-14 -0)
(6.20833e-30 -5.52502e-14 -0)
(4.2682e-30 -6.2793e-14 -0)
(2.30458e-30 -8.68383e-14 -0)
(5.99517e-31 -4.70539e-14 -0)
(3.06915e-30 -3.12856e-14 -0)
(-2.02352e-30 -6.96218e-14 0)
(-1.26236e-30 -2.25358e-14 0)
(3.19608e-31 -1.92212e-14 -0)
(7.08639e-31 -3.10501e-14 -0)
(-7.50469e-25 7.36423e-12 -0)
(-2.02792e-25 -9.31953e-12 0)
(-1.17388e-26 2.26251e-12 -0)
(-5.14638e-28 -4.98633e-13 0)
(-3.55605e-29 1.7597e-13 -0)
(5.40802e-30 6.32127e-14 0)
(-1.98656e-30 9.43348e-14 -0)
(-3.94001e-30 8.82546e-14 -0)
(-3.26468e-30 3.60925e-14 -0)
(-7.32251e-30 5.44351e-14 -0)
(4.58189e-31 -4.94255e-15 -0)
(-5.0078e-31 5.88512e-15 -0)
(-8.68511e-31 5.7307e-15 -0)
(4.56904e-31 -3.2086e-15 -0)
(6.792e-30 -5.6852e-14 -0)
(7.54281e-30 -6.50353e-14 -0)
(1.57273e-31 -1.40215e-14 -0)
(-5.00159e-32 -2.06384e-15 0)
(4.17612e-32 4.43239e-15 0)
(2.1431e-32 -1.06677e-15 -0)
(2.3875e-26 -6.77425e-13 -0)
(-1.88485e-26 -2.3963e-12 0)
(-1.29524e-27 6.27219e-13 -0)
(-2.60186e-29 -1.09223e-13 0)
(5.87185e-30 -3.67727e-14 -0)
(1.60705e-30 2.51722e-14 0)
(-1.46708e-30 -1.12249e-14 0)
(9.54664e-30 5.42142e-14 0)
(1.3172e-29 1.00813e-13 0)
(-1.56769e-30 8.30126e-14 -0)
(-2.42563e-29 1.54138e-13 -0)
(-1.31289e-29 6.40397e-14 -0)
(-1.38729e-30 5.42625e-15 -0)
(-1.96038e-29 7.56106e-14 -0)
(4.04373e-30 -2.03594e-14 -0)
(6.1129e-31 -1.09787e-14 -0)
(-4.01098e-32 4.51532e-16 -0)
(3.59895e-30 -5.97881e-14 -0)
(1.85806e-31 -5.62189e-15 -0)
(1.47221e-32 -3.70266e-15 -0)
(-6.81306e-25 -5.14695e-12 0)
(-3.13587e-25 1.1074e-11 -0)
(-1.75121e-26 -2.60477e-12 0)
(-8.08128e-28 5.5484e-13 -0)
(-5.20559e-29 -1.43987e-13 0)
(1.4027e-30 -8.43333e-14 -0)
(-8.13295e-30 -6.74027e-14 0)
(-3.04521e-30 -2.64129e-14 0)
(4.6641e-30 4.10067e-14 0)
(-1.08578e-30 4.57679e-14 -0)
(-2.22428e-30 3.05163e-14 -0)
(-3.31537e-30 5.73239e-14 -0)
(-9.96502e-30 9.57936e-14 -0)
(-1.34297e-29 6.62803e-14 -0)
(1.58881e-30 -7.06992e-15 -0)
(2.23673e-30 -1.69551e-14 -0)
(3.37171e-30 -6.11077e-14 -0)
(-3.38818e-30 5.38277e-14 -0)
(3.5224e-30 -6.85926e-14 -0)
(-1.95343e-30 -2.41523e-14 0)
(-2.15071e-25 4.01734e-12 -0)
(-5.26821e-26 -4.82311e-12 0)
(-3.20844e-27 1.23683e-12 -0)
(-6.11745e-29 -1.35358e-13 0)
(-2.53424e-29 1.62131e-13 -0)
(-1.22752e-29 1.44143e-13 -0)
(-3.7316e-29 1.5389e-13 -0)
(-1.28135e-29 4.76674e-14 -0)
(3.06886e-30 -1.73325e-14 -0)
(4.19698e-30 -4.39546e-14 -0)
(3.81199e-31 -4.45189e-14 -0)
(-7.79405e-31 -9.90935e-15 0)
(2.70089e-30 2.98339e-14 0)
(6.06044e-31 1.17988e-14 0)
(-2.55074e-30 9.28978e-14 -0)
(-3.76656e-30 5.8431e-14 -0)
(-4.06472e-30 5.83452e-14 -0)
(-3.15901e-30 2.98548e-14 -0)
(-7.13195e-30 7.34008e-14 -0)
(3.30239e-31 -1.23833e-14 -0)
(-4.35042e-25 4.98257e-12 -0)
(-1.46808e-25 -7.92979e-12 0)
(-7.08196e-27 1.57686e-12 -0)
(-4.0714e-28 -4.80415e-13 0)
(-6.41363e-30 2.79937e-14 -0)
(-2.46965e-30 -9.70883e-14 0)
(5.22983e-30 -7.32692e-14 -0)
(4.6602e-30 -8.46957e-14 -0)
(2.26231e-30 -6.02108e-14 -0)
(-2.85339e-31 -5.72483e-14 0)
(4.09742e-31 -5.69791e-14 -0)
(-1.96355e-30 -6.00948e-14 0)
(-2.84419e-30 -5.50603e-14 0)
(-1.84761e-30 -4.48713e-14 0)
(6.62998e-31 -1.58869e-14 -0)
(-3.6293e-31 5.1113e-15 -0)
(1.17416e-31 -1.26465e-15 -0)
(1.74531e-30 -2.99066e-14 -0)
(1.6153e-30 -2.4916e-14 -0)
(1.16426e-30 -1.4508e-14 -0)
)
;

boundaryField
{
    movingWall
    {
        type            calculated;
        value           nonuniform List<vector> 
20
(
(0 1.21202e-11 -0)
(0 -1.00141e-11 -0)
(0 1.41133e-12 -0)
(0 -8.25886e-13 -0)
(0 -2.28659e-13 -0)
(0 -3.26636e-13 -0)
(0 -2.58408e-13 -0)
(0 -2.25425e-13 -0)
(0 -1.39227e-13 -0)
(0 -1.36265e-13 -0)
(0 -1.35996e-13 -0)
(0 -5.02936e-14 -0)
(0 -1.34077e-13 -0)
(0 -2.12706e-13 -0)
(0 -2.10826e-13 -0)
(0 -1.28115e-13 -0)
(0 -9.00825e-14 -0)
(0 -4.72104e-14 -0)
(0 -1.31038e-13 -0)
(0 -1.03326e-13 -0)
)
;
    }
    fixedWalls
    {
        type            calculated;
        value           nonuniform List<vector> 
60
(
(0 -6.05339e-11 -0)
(0 -4.89435e-12 -0)
(0 5.18775e-11 -0)
(0 -3.59236e-11 -0)
(0 -1.61761e-12 -0)
(0 3.55849e-11 -0)
(0 -4.7187e-11 -0)
(0 1.93537e-11 -0)
(0 2.25263e-11 -0)
(0 -4.95441e-11 -0)
(0 5.40685e-11 -0)
(0 -3.86633e-11 -0)
(0 1.67962e-12 -0)
(0 4.19163e-11 -0)
(0 -6.41922e-11 -0)
(0 4.01124e-11 -0)
(0 1.06823e-11 -0)
(0 -4.76899e-11 -0)
(0 2.11703e-11 -0)
(0 3.30277e-11 -0)
(0 -7.60403e-16 -0)
(0 -3.89815e-14 -0)
(0 -5.09903e-14 -0)
(0 -6.7826e-15 -0)
(0 1.19274e-14 -0)
(0 -1.51068e-14 -0)
(0 2.62141e-14 -0)
(0 -2.10187e-15 -0)
(0 2.22712e-14 -0)
(0 -2.1814e-14 -0)
(0 1.80612e-14 -0)
(0 1.9724e-14 -0)
(0 2.07899e-14 -0)
(0 -9.63715e-15 -0)
(0 -3.6234e-14 -0)
(0 -8.03582e-15 -0)
(0 -1.59043e-15 -0)
(0 5.24682e-15 -0)
(0 -1.06673e-14 -0)
(0 -3.20998e-14 -0)
(0 -1.85049e-11 -0)
(0 1.6792e-11 -0)
(0 -3.05411e-12 -0)
(0 1.05388e-12 -0)
(0 3.14068e-15 -0)
(0 3.03812e-13 -0)
(0 4.39785e-14 -0)
(0 5.02797e-14 -0)
(0 1.64779e-14 -0)
(0 1.07816e-13 -0)
(0 1.30973e-14 -0)
(0 8.2323e-14 -0)
(0 9.97376e-14 -0)
(0 1.17578e-13 -0)
(0 -7.52715e-14 -0)
(0 -6.51655e-14 -0)
(0 6.33729e-15 -0)
(0 3.05974e-14 -0)
(0 -2.23481e-15 -0)
(0 5.2261e-15 -0)
)
;
    }
    frontAndBack
    {
        type            empty;
    }
}


// ************************************************************************* //
