/*--------------------------------*- C++ -*----------------------------------*\
| =========                 |                                                 |
| \\      /  F ield         | OpenFOAM: The Open Source CFD Toolbox           |
|  \\    /   O peration     | Version:  2506                                  |
|   \\  /    A nd           | Website:  www.openfoam.com                      |
|    \\/     M anipulation  |                                                 |
\*---------------------------------------------------------------------------*/
FoamFile
{
    version     2.0;
    format      ascii;
    arch        "LSB;label=32;scalar=64";
    class       volScalarField;
    location    "9.125";
    object      Lambda2Field;
}
// * * * * * * * * * * * * * * * * * * * * * * * * * * * * * * * * * * * * * //

dimensions      [0 0 -2 0 0 0 0];

internalField   nonuniform List<scalar> 
400
(
1.68731e-23
9.00278e-24
3.95379e-26
2.08743e-26
-6.77173e-28
2.32743e-28
2.4564e-28
3.18258e-28
0
-5.06963e-28
0
0
-1.77848e-27
2.17604e-28
1.24034e-27
1.2822e-27
2.86021e-28
1.1169e-28
0
0
4.63034e-24
9.24789e-24
6.98399e-25
2.26095e-27
5.35653e-28
1.58833e-27
8.24842e-28
-2.46074e-29
8.89259e-30
5.20875e-29
2.11686e-29
7.60446e-28
-2.92452e-28
2.14644e-28
0
-8.2083e-28
0
1.40597e-29
2.21948e-28
1.5769e-28
4.81509e-23
1.93112e-23
-3.88723e-26
7.39111e-26
-1.6092e-26
1.15103e-27
-5.03408e-28
1.18785e-28
-3.37016e-28
7.04787e-29
1.38105e-28
0
-8.72829e-29
1.96904e-28
0
2.27639e-28
-1.07314e-28
0
0
1.62171e-30
2.31888e-23
1.02248e-23
2.43159e-25
1.32821e-26
-2.3313e-27
7.34684e-28
2.16989e-28
5.39314e-28
4.4363e-28
-8.88377e-28
-4.82569e-28
0
1.28926e-29
5.47885e-28
3.0145e-28
0
7.06746e-30
4.65987e-30
0
2.42108e-28
1.7074e-24
3.8086e-24
3.20622e-25
2.11687e-27
2.94439e-27
8.35621e-29
-6.91584e-28
-7.89075e-29
0
0
4.01202e-28
0
-2.30641e-27
-9.89566e-28
1.49304e-28
-2.79343e-28
0
2.35995e-29
-2.53506e-28
2.22937e-28
1.62421e-23
9.55922e-24
1.8583e-25
1.52378e-26
0
2.21182e-27
0
0
0
3.4202e-28
7.26445e-28
1.56444e-29
2.28703e-28
6.77808e-28
4.0431e-28
3.69913e-28
-5.71896e-29
3.67747e-28
0
1.71559e-28
2.78468e-23
9.64899e-24
2.22916e-25
-3.12992e-26
0
-4.19254e-28
9.85527e-29
0
-5.29046e-28
-3.20146e-28
7.83457e-29
-5.28037e-28
-1.2871e-27
-1.51158e-27
9.57407e-29
1.9154e-29
0
2.84406e-28
1.87729e-29
1.05706e-29
3.51129e-24
1.99243e-24
1.24162e-25
0
0
-5.24882e-28
1.59292e-29
2.58011e-28
1.83611e-28
0
7.08328e-28
0
0
7.03554e-28
1.08915e-27
0
0
0
0
2.70044e-28
4.54781e-26
2.06051e-24
0
1.52471e-26
0
2.89484e-28
0
-1.07014e-27
0
-3.87649e-28
-1.46776e-28
-6.52929e-28
-1.44442e-27
-1.80909e-27
2.82725e-28
8.59669e-30
3.93778e-28
-6.65965e-29
7.9864e-29
2.05602e-28
2.28999e-24
4.04494e-24
-2.16627e-25
2.93874e-27
0
7.34684e-28
0
0
-9.60693e-29
-2.35444e-28
3.53196e-29
8.64166e-28
2.70049e-28
2.01485e-28
1.00595e-28
-6.90664e-29
2.58115e-29
6.91429e-29
4.79189e-29
0
4.02506e-24
2.39866e-24
-2.10152e-25
-2.89321e-26
-7.9345e-27
9.43139e-28
-3.501e-27
-1.71285e-27
0
6.66725e-28
-7.29872e-28
0
4.4913e-28
-6.75892e-28
2.65662e-29
0
0
0
0
0
4.85011e-26
1.75445e-24
0
3.15623e-26
-9.39717e-27
2.63441e-27
5.54614e-28
8.03055e-28
-3.60761e-28
-2.15784e-28
3.22035e-28
8.40556e-28
6.95398e-28
1.83324e-29
0
-2.31143e-28
3.31962e-29
0
-1.91052e-28
3.71378e-29
7.52449e-25
2.01607e-25
6.61216e-27
1.83671e-26
0
0
0
0
6.16907e-29
0
5.51556e-28
0
0
-6.62952e-28
-7.60626e-29
3.92314e-28
9.23933e-29
0
4.49917e-28
3.34239e-28
6.03072e-24
4.13728e-24
0
7.34547e-26
-4.60316e-27
1.23304e-27
4.96032e-29
0
0
-1.29617e-27
-6.18963e-28
6.56429e-28
1.01907e-28
2.09836e-30
1.68857e-28
0
-2.56539e-28
-1.18717e-27
-1.61622e-29
6.42889e-28
2.62281e-23
1.19577e-23
-5.85586e-25
8.47346e-26
-7.78418e-27
3.06945e-27
-1.73264e-28
5.6946e-29
2.08022e-28
1.07928e-27
8.93157e-28
7.29947e-29
-4.07015e-28
0
3.8794e-28
7.98685e-29
-8.29147e-28
1.23849e-28
4.52604e-28
0
7.94753e-24
8.84177e-24
0
2.93874e-27
-3.90861e-27
1.472e-27
-1.03127e-27
-4.60501e-28
0
-9.52061e-30
0
0
3.52278e-28
0
2.02281e-28
0
0
0
0
0
1.11143e-23
7.08079e-24
4.92019e-25
1.54936e-26
1.67997e-27
1.67857e-27
2.00847e-28
2.55575e-28
0
-1.43863e-27
0
-5.25434e-28
2.25892e-29
4.63869e-28
0
2.54094e-30
1.93248e-29
-2.26382e-28
3.69353e-29
1.01948e-28
5.55153e-23
1.88247e-23
2.21219e-25
5.21859e-26
1.13678e-31
2.6115e-27
1.95131e-29
1.99813e-27
3.57879e-28
0
1.28967e-28
5.65886e-28
0
0
2.92957e-28
0
0
2.07301e-29
-4.49903e-29
8.51827e-29
6.85895e-24
1.1097e-23
3.77322e-25
3.81854e-26
-2.33476e-27
-1.15021e-27
0
3.5468e-28
2.28957e-28
0
-4.28841e-28
8.19205e-29
1.68402e-28
5.94364e-28
-2.07161e-28
0
0
0
6.43562e-28
2.59626e-28
1.38537e-23
4.90493e-24
4.40981e-25
-6.21965e-27
5.19096e-27
-1.24693e-27
1.38895e-27
7.73789e-28
1.35365e-28
-8.27984e-29
-1.47626e-28
-1.95072e-28
1.56084e-28
5.91896e-28
3.5194e-28
1.83513e-28
2.64102e-28
1.93586e-28
5.93349e-29
1.14314e-28
)
;

boundaryField
{
    movingWall
    {
        type            calculated;
        value           nonuniform List<scalar> 
20
(
0
0
7.33417e-25
-5.54316e-26
2.62888e-26
-4.79976e-27
2.87857e-27
0
-6.47707e-29
-4.00795e-28
-3.60631e-28
-9.05161e-29
3.13669e-28
2.34491e-27
2.76958e-27
1.41565e-27
6.22361e-28
4.20509e-28
2.91643e-28
0
)
;
    }
    fixedWalls
    {
        type            calculated;
        value           nonuniform List<scalar> 
60
(
1.21344e-22
1.37952e-22
2.56736e-22
1.4504e-22
6.19345e-23
1.28112e-22
1.42492e-22
3.03142e-23
7.46809e-24
2.3011e-23
2.45088e-23
4.77206e-24
7.81575e-24
3.15826e-23
1.32994e-22
1.12663e-22
1.13472e-22
2.81768e-22
1.71082e-22
9.37255e-23
0
1.5769e-28
0
9.18527e-28
5.42986e-28
4.32292e-28
1.05706e-29
6.77713e-28
1.55308e-28
1.43415e-28
1.30193e-29
0
3.70449e-28
9.96394e-28
0
0
1.01948e-28
8.82049e-28
2.59626e-28
1.14314e-28
0
0
6.36962e-25
0
3.17312e-26
-7.20247e-27
2.95785e-27
0
0
-1.54972e-27
0
1.31154e-27
4.46165e-27
5.02354e-27
4.14189e-27
2.10075e-27
1.1277e-27
7.07438e-28
4.69365e-28
0
)
;
    }
    frontAndBack
    {
        type            empty;
    }
}


// ************************************************************************* //
