/*--------------------------------*- C++ -*----------------------------------*\
| =========                 |                                                 |
| \\      /  F ield         | OpenFOAM: The Open Source CFD Toolbox           |
|  \\    /   O peration     | Version:  2506                                  |
|   \\  /    A nd           | Website:  www.openfoam.com                      |
|    \\/     M anipulation  |                                                 |
\*---------------------------------------------------------------------------*/
FoamFile
{
    version     2.0;
    format      ascii;
    arch        "LSB;label=32;scalar=64";
    class       volScalarField;
    location    "9.125";
    object      pNear;
}
// * * * * * * * * * * * * * * * * * * * * * * * * * * * * * * * * * * * * * //

dimensions      [0 2 -2 0 0 0 0];

internalField   nonuniform List<scalar> 
400
(
5.38312e-16
4.15178e-15
2.86814e-15
3.13117e-15
3.14629e-15
3.4291e-15
3.58563e-15
3.75616e-15
3.88966e-15
4.15592e-15
4.35738e-15
4.15838e-15
3.98907e-15
4.0991e-15
4.07498e-15
3.84112e-15
3.67581e-15
4.08232e-15
4.06515e-15
3.56508e-15
3.56475e-15
0
3.02063e-15
2.9673e-15
3.29986e-15
3.14228e-15
3.46398e-15
3.97769e-15
3.99354e-15
4.39211e-15
4.28232e-15
4.21467e-15
3.96963e-15
3.86696e-15
3.98132e-15
3.90577e-15
3.87288e-15
3.95612e-15
3.88766e-15
3.61022e-15
2.95425e-15
3.69473e-15
3.1823e-15
3.19934e-15
3.27588e-15
3.3902e-15
3.64299e-15
4.01699e-15
4.16037e-15
4.47248e-15
4.16041e-15
3.97588e-15
4.02482e-15
3.79987e-15
4.04938e-15
3.88579e-15
3.84349e-15
3.73922e-15
3.86326e-15
3.92274e-15
2.60901e-15
4.83945e-15
3.38214e-15
3.35038e-15
3.42318e-15
3.49757e-15
3.77093e-15
3.84168e-15
4.08245e-15
4.20933e-15
4.12967e-15
4.0708e-15
4.07465e-15
3.86208e-15
3.88518e-15
3.81782e-15
3.74726e-15
3.68542e-15
3.691e-15
4.02228e-15
3.87459e-15
1.49138e-15
3.32521e-15
3.25277e-15
3.35093e-15
3.41111e-15
3.69132e-15
3.93083e-15
4.05334e-15
4.08572e-15
4.0358e-15
4.03715e-15
4.00724e-15
4.03663e-15
3.85294e-15
3.74725e-15
3.67606e-15
3.53973e-15
3.59934e-15
4.18078e-15
3.50718e-15
4.33304e-15
3.53417e-15
3.52387e-15
3.15736e-15
3.44874e-15
3.65492e-15
3.84482e-15
3.97264e-15
3.95877e-15
3.88947e-15
3.98164e-15
4.03222e-15
4.11283e-15
3.99241e-15
3.73007e-15
3.5954e-15
3.40837e-15
3.53398e-15
4.1035e-15
3.61482e-15
4.45787e-15
3.55252e-15
3.41781e-15
3.38772e-15
3.51632e-15
3.60916e-15
3.67906e-15
3.9346e-15
3.95405e-15
3.97124e-15
3.95963e-15
3.95456e-15
3.91072e-15
3.87724e-15
3.84762e-15
3.53096e-15
3.47384e-15
3.58666e-15
4.05102e-15
4.04761e-15
1.00221e-15
3.71146e-15
3.32333e-15
3.56575e-15
3.53893e-15
3.48401e-15
3.54936e-15
3.89132e-15
3.91745e-15
4.12974e-15
3.94979e-15
4.05689e-15
3.72513e-15
3.59348e-15
3.73978e-15
3.57569e-15
3.50417e-15
3.59228e-15
3.91814e-15
2.93417e-15
6.04482e-15
3.43098e-15
3.63799e-15
3.51832e-15
3.52456e-15
3.46431e-15
3.51657e-15
3.77216e-15
3.89325e-15
4.08839e-15
3.97416e-15
3.9925e-15
3.7176e-15
3.68692e-15
3.71878e-15
3.60207e-15
3.50356e-15
3.67537e-15
3.83877e-15
3.18096e-15
2.5789e-15
3.48107e-15
3.44682e-15
3.61134e-15
3.4852e-15
3.40107e-15
3.49956e-15
3.73554e-15
3.88421e-15
3.94895e-15
3.84091e-15
3.89974e-15
3.84096e-15
3.75192e-15
3.7513e-15
3.59509e-15
3.50485e-15
3.61257e-15
3.92287e-15
3.33237e-15
2.27529e-15
3.20625e-15
3.16122e-15
3.41172e-15
3.32579e-15
3.35127e-15
3.33969e-15
3.67147e-15
3.92845e-15
3.89872e-15
4.02459e-15
3.9051e-15
3.79334e-15
3.72421e-15
3.87715e-15
3.66203e-15
3.466e-15
3.61896e-15
3.77244e-15
3.04554e-15
5.93303e-15
2.93889e-15
3.1357e-15
3.19784e-15
3.20243e-15
3.11088e-15
3.3257e-15
3.60716e-15
3.85809e-15
3.92878e-15
4.051e-15
3.92484e-15
3.77513e-15
3.74658e-15
3.67047e-15
3.61209e-15
3.60514e-15
3.63714e-15
3.77554e-15
3.73881e-15
0
3.05644e-15
2.53966e-15
3.15786e-15
3.08073e-15
2.87873e-15
3.09623e-15
3.55131e-15
3.84571e-15
3.80621e-15
3.97193e-15
3.88415e-15
3.77752e-15
3.64393e-15
3.52864e-15
3.68692e-15
3.67193e-15
3.63081e-15
3.64461e-15
2.75101e-15
6.10264e-15
2.89097e-15
2.84294e-15
2.80277e-15
2.85306e-15
2.85527e-15
3.00061e-15
3.31881e-15
3.47173e-15
3.62969e-15
3.79547e-15
3.69181e-15
3.73659e-15
3.71289e-15
3.50403e-15
3.59495e-15
3.64411e-15
3.63879e-15
3.79997e-15
3.21628e-15
2.03036e-15
3.05377e-15
2.61076e-15
2.86801e-15
2.73779e-15
2.80683e-15
2.93879e-15
3.14412e-15
3.21451e-15
3.34168e-15
3.71086e-15
3.63683e-15
3.65458e-15
3.63891e-15
3.44014e-15
3.56495e-15
3.6746e-15
3.65038e-15
3.84409e-15
3.47711e-15
9.48367e-16
2.90811e-15
2.55075e-15
2.69014e-15
2.6337e-15
2.74161e-15
2.8894e-15
2.99583e-15
3.16506e-15
3.35337e-15
3.58613e-15
3.55715e-15
3.68388e-15
3.69438e-15
3.67259e-15
3.34971e-15
3.58233e-15
3.66213e-15
3.80952e-15
2.07732e-15
5.71352e-15
2.97247e-15
3.00151e-15
2.60679e-15
2.43207e-15
2.72549e-15
2.91055e-15
2.99761e-15
3.16401e-15
3.41554e-15
3.74879e-15
3.73897e-15
3.71154e-15
3.61268e-15
3.56747e-15
3.41643e-15
3.57699e-15
3.58012e-15
3.92239e-15
3.14941e-15
1.78506e-15
3.10182e-15
2.81222e-15
2.80419e-15
2.67701e-15
2.73832e-15
2.75011e-15
2.89237e-15
3.10446e-15
3.54488e-15
3.73978e-15
3.67412e-15
3.68263e-15
3.6833e-15
3.51405e-15
3.46086e-15
3.51931e-15
3.64262e-15
3.83272e-15
3.6033e-15
1.26345e-15
3.07127e-15
2.85769e-15
2.79565e-15
2.70577e-15
2.68836e-15
2.87362e-15
2.89533e-15
3.19608e-15
3.55872e-15
3.70775e-15
3.70059e-15
3.69285e-15
3.60471e-15
3.35651e-15
3.25182e-15
3.47105e-15
3.77479e-15
3.66073e-15
1.84216e-15
4.6078e-15
3.0905e-15
3.2274e-15
2.6442e-15
2.45446e-15
2.55829e-15
2.80448e-15
2.98149e-15
3.24469e-15
3.55651e-15
3.59364e-15
3.51661e-15
3.528e-15
3.64696e-15
3.53569e-15
3.33119e-15
3.47858e-15
3.63352e-15
3.91974e-15
)
;

boundaryField
{
    movingWall
    {
        type            zeroGradient;
    }
    fixedWalls
    {
        type            calculated;
        value           nonuniform List<scalar> 
60
(
9.92278e-16
3.01921e-15
2.99404e-15
2.85063e-15
3.62964e-15
3.57844e-15
3.66359e-15
3.81568e-15
3.1382e-15
3.16665e-15
3.26663e-15
3.19255e-15
3.48665e-15
2.96897e-15
3.18562e-15
3.22802e-15
2.4481e-15
3.05668e-15
3.27105e-15
2.10633e-15
3.57185e-15
3.65032e-15
3.89079e-15
4.03113e-15
4.14541e-15
4.10722e-15
4.03896e-15
3.92617e-15
3.86329e-15
3.88769e-15
3.79547e-15
3.75543e-15
3.68755e-15
3.78328e-15
3.83228e-15
3.83163e-15
3.89201e-15
3.82037e-15
3.72538e-15
3.88089e-15
1.08033e-15
3.41722e-15
3.10014e-15
3.09398e-15
3.18644e-15
3.41016e-15
3.58773e-15
3.75061e-15
3.90957e-15
4.1462e-15
4.29731e-15
4.16284e-15
4.03097e-15
4.07898e-15
4.04352e-15
3.85141e-15
3.76158e-15
4.01877e-15
3.99271e-15
3.64009e-15
)
;
    }
    frontAndBack
    {
        type            empty;
    }
}


// ************************************************************************* //
