/*--------------------------------*- C++ -*----------------------------------*\
| =========                 |                                                 |
| \\      /  F ield         | OpenFOAM: The Open Source CFD Toolbox           |
|  \\    /   O peration     | Version:  2506                                  |
|   \\  /    A nd           | Website:  www.openfoam.com                      |
|    \\/     M anipulation  |                                                 |
\*---------------------------------------------------------------------------*/
FoamFile
{
    version     2.0;
    format      ascii;
    arch        "LSB;label=32;scalar=64";
    class       volScalarField;
    location    "9.125";
    object      QField;
}
// * * * * * * * * * * * * * * * * * * * * * * * * * * * * * * * * * * * * * //

dimensions      [0 0 -2 0 0 0 0];

internalField   nonuniform List<scalar> 
400
(
-3.35624e-23
-1.22703e-23
-2.24868e-25
-2.46548e-26
3.0042e-27
-4.13512e-28
-8.4963e-28
-3.18258e-28
0
5.14943e-28
0
1.82036e-29
1.81545e-27
-9.2156e-28
-1.95376e-27
-1.2822e-27
-9.1681e-28
-2.86456e-28
1.8944e-28
0
-5.90969e-23
-1.92297e-23
-1.27502e-24
-9.7955e-27
-2.74305e-27
-2.32297e-27
-2.33538e-27
4.48633e-29
-1.61657e-28
-7.05018e-28
-2.03486e-28
-1.49405e-27
3.11092e-28
-7.94217e-28
1.94e-28
8.54029e-28
0
1.01634e-28
-3.8946e-28
-6.80743e-28
-5.3334e-23
-2.01644e-23
1.11978e-25
-7.58218e-26
1.70756e-26
-1.15103e-27
9.14927e-28
-5.90827e-28
4.94886e-28
-7.04787e-29
-1.38105e-28
-3.7044e-28
1.95889e-28
-9.0813e-28
7.35082e-28
-4.08953e-28
1.17229e-28
5.77033e-28
-2.44583e-29
-3.45173e-29
-3.65536e-23
-1.24639e-23
-3.76346e-25
-1.60705e-26
2.76645e-27
-7.40166e-28
-7.98544e-28
-1.24629e-27
-5.83843e-28
1.04749e-27
4.88408e-28
0
9.73242e-29
-6.34446e-28
-9.41213e-28
3.72441e-29
-7.20579e-29
-1.85023e-28
0
-2.42108e-28
-2.57334e-23
-8.11723e-24
-5.59349e-25
-1.00824e-26
-3.90541e-27
-2.47774e-28
1.18492e-27
8.46255e-28
0
0
-4.01202e-28
0
2.76862e-27
1.04525e-27
-1.49304e-28
3.70576e-28
3.2985e-28
-1.31674e-28
2.53532e-28
-7.13212e-28
-3.24955e-23
-1.11991e-23
-2.54886e-25
-2.06125e-26
2.75258e-27
-2.34568e-27
0
0
2.93573e-28
-5.01275e-28
-1.45242e-27
-3.63544e-29
-4.09908e-28
-7.09484e-28
-5.31097e-28
-1.04263e-27
5.92279e-29
-8.99493e-28
2.56968e-28
-3.4496e-28
-2.69895e-23
-9.64899e-24
-2.37368e-25
3.48228e-26
0
4.99882e-28
2.69082e-28
1.12393e-29
5.8055e-28
3.86163e-28
-7.83457e-29
5.44528e-28
1.43888e-27
1.65292e-27
-9.57407e-29
1.18626e-28
0
-2.84406e-28
1.1744e-28
-8.8125e-29
-1.30474e-23
-4.88532e-24
-3.32802e-25
0
3.35828e-27
1.09249e-27
-7.03915e-28
-4.35381e-28
-2.76553e-28
7.45771e-29
-2.16416e-27
0
0
-7.1895e-28
-1.78906e-27
0
0
0
0
-2.70044e-28
-6.98241e-24
-4.40768e-24
-1.36513e-25
-9.63843e-27
-3.66064e-28
-4.61171e-28
0
1.1216e-27
2.04424e-29
4.52123e-28
1.46793e-28
6.67407e-28
1.44502e-27
2.03423e-27
-2.82725e-28
-7.94723e-29
-5.76808e-28
7.1388e-29
-7.9864e-29
-2.05602e-28
-8.28955e-24
-4.86576e-24
2.88056e-25
-7.85801e-27
1.43641e-27
-1.03917e-27
0
0
3.81176e-28
5.42867e-28
-1.11966e-28
-2.45483e-27
-4.42139e-28
-3.75628e-28
-2.8367e-28
7.67653e-29
-1.37707e-28
-1.20276e-28
-1.87631e-28
-5.18737e-29
-2.22718e-24
-1.77386e-24
2.37905e-25
3.8744e-26
8.86413e-27
-9.95289e-28
3.9755e-27
2.60283e-27
6.24809e-29
-7.63678e-28
1.06369e-27
-3.13077e-28
-4.4913e-28
6.7856e-28
-2.79412e-28
-4.31555e-29
0
5.65141e-28
0
0
9.28571e-24
-7.90372e-28
2.87713e-25
-1.10442e-26
1.04145e-26
-2.69554e-27
-9.19403e-28
-1.39272e-27
5.35825e-28
1.36438e-27
-3.22035e-28
-8.40556e-28
-8.13394e-28
-1.16054e-28
6.20667e-28
2.32055e-28
1.56169e-28
0
2.06622e-28
1.6518e-28
1.58281e-23
1.89856e-24
-8.45319e-26
2.76593e-26
0
0
3.34829e-29
4.4904e-28
-4.25785e-28
0
-1.28104e-27
3.08046e-28
0
7.31722e-28
2.0304e-28
-3.2427e-28
-2.25158e-28
0
-5.74932e-28
-9.00222e-28
1.06974e-24
-3.50799e-24
2.55301e-25
-2.86913e-26
6.41322e-27
-1.23304e-27
-4.96032e-29
0
0
1.29631e-27
1.50144e-27
-8.39111e-28
-2.73622e-28
3.92636e-29
-3.31125e-28
1.02479e-28
2.92161e-28
1.2935e-27
1.91816e-29
-6.04259e-28
-2.65034e-23
-1.2124e-23
6.3886e-25
-8.58427e-26
1.30871e-26
-3.06945e-27
5.97373e-28
-5.6946e-29
-2.08022e-28
-1.23809e-27
-8.93157e-28
-2.51921e-28
4.6528e-28
8.99527e-29
-3.8794e-28
-6.40153e-28
8.35469e-28
-1.23849e-28
2.05266e-28
-8.75917e-29
-3.84041e-23
-1.35884e-23
-2.22365e-25
-1.10919e-26
4.36029e-27
-1.472e-27
1.05869e-27
5.64283e-28
4.42385e-28
1.21958e-29
0
0
-1.01747e-27
0
-8.64419e-28
3.56866e-28
0
0
0
0
-4.04659e-23
-1.3102e-23
-8.45953e-25
-1.54936e-26
5.82393e-28
-1.85112e-27
-3.84135e-28
-4.33287e-28
4.78518e-28
1.56139e-27
2.41507e-27
5.32864e-28
-1.28825e-28
-4.63869e-28
0
-4.32064e-29
-2.38308e-28
3.02384e-28
-1.64729e-28
-2.73678e-28
-5.3079e-23
-1.84247e-23
-2.05514e-25
-4.99911e-26
-9.1388e-30
-2.6115e-27
-2.96345e-28
-3.63648e-27
-4.5726e-28
9.061e-29
-3.10875e-28
-6.00077e-28
1.17732e-27
6.54327e-28
-4.6393e-28
0
3.21975e-28
-2.07301e-29
6.05893e-28
-1.85265e-29
-5.40349e-23
-1.59783e-23
-6.52425e-25
-5.14103e-26
2.62145e-27
1.16791e-27
1.44787e-27
-3.5468e-28
-4.10135e-28
3.78893e-28
4.72002e-28
-2.45328e-28
-3.4801e-28
-1.32162e-27
4.45834e-28
3.93929e-28
1.99597e-29
4.96723e-29
-6.43562e-28
-8.73484e-28
-2.56521e-23
-7.06729e-24
-5.65642e-25
2.31046e-26
-5.50095e-27
1.2826e-27
-1.50499e-27
-1.48061e-27
-2.56459e-28
1.64701e-28
1.50108e-28
3.1901e-28
-3.39311e-28
-7.5709e-28
-4.91607e-28
-3.67184e-28
-4.4049e-28
5.20922e-28
-5.93349e-29
-5.79602e-28
)
;

boundaryField
{
    movingWall
    {
        type            calculated;
        value           nonuniform List<scalar> 
20
(
4.81321e-24
3.90664e-24
-1.21194e-24
1.70346e-25
-2.80381e-26
4.90328e-27
-2.91777e-27
-4.42492e-28
3.92086e-28
4.0477e-28
3.68905e-28
2.61333e-28
-4.46791e-28
-2.52006e-27
-2.94339e-27
-1.4508e-27
-8.94307e-28
7.57141e-28
-2.91643e-28
-4.51569e-28
)
;
    }
    fixedWalls
    {
        type            calculated;
        value           nonuniform List<scalar> 
60
(
-1.88171e-22
-3.45598e-22
-2.73951e-22
-1.9391e-22
-1.50298e-22
-1.63416e-22
-1.4105e-22
-8.40414e-23
-4.90384e-23
-3.89168e-23
-1.27692e-23
3.64094e-23
5.33942e-23
-8.82627e-24
-1.35295e-22
-2.12832e-22
-2.375e-22
-2.70624e-22
-2.88145e-22
-1.40073e-22
0
-1.11533e-27
0
-9.18527e-28
-1.43026e-27
-7.84753e-28
-1.44384e-28
-6.77713e-28
8.78259e-29
-1.43415e-28
-1.60237e-28
0
-1.42497e-27
-9.0218e-28
-3.89968e-28
0
-4.48393e-28
-7.76126e-28
-1.43112e-27
-9.4962e-28
1.20766e-23
9.46634e-24
-1.89613e-24
2.1348e-25
-3.69966e-26
8.53239e-27
-3.91846e-27
2.60717e-28
0
1.68737e-27
0
-2.31488e-27
-4.46165e-27
-5.87056e-27
-4.5115e-27
-2.10075e-27
-1.82045e-27
-8.76264e-28
-5.87226e-28
0
)
;
    }
    frontAndBack
    {
        type            empty;
    }
}


// ************************************************************************* //
