/*--------------------------------*- C++ -*----------------------------------*\
| =========                 |                                                 |
| \\      /  F ield         | OpenFOAM: The Open Source CFD Toolbox           |
|  \\    /   O peration     | Version:  2506                                  |
|   \\  /    A nd           | Website:  www.openfoam.com                      |
|    \\/     M anipulation  |                                                 |
\*---------------------------------------------------------------------------*/
FoamFile
{
    version     2.0;
    format      ascii;
    arch        "LSB;label=32;scalar=64";
    class       volScalarField;
    location    "9.125";
    object      Uy;
}
// * * * * * * * * * * * * * * * * * * * * * * * * * * * * * * * * * * * * * //

dimensions      [0 1 -1 0 0 0 0];

internalField   nonuniform List<scalar> 
400
(
1.54587e-13
-3.34872e-14
7.98362e-15
-1.61381e-15
5.53409e-16
1.31144e-16
1.79825e-16
1.35448e-16
1.21117e-16
-2.93311e-17
-6.88635e-17
-1.60304e-16
-3.91507e-18
1.74587e-16
1.52571e-16
3.91238e-17
-8.39532e-17
-2.42491e-17
5.41621e-17
-1.90101e-18
1.38622e-14
-2.86779e-15
6.46278e-16
-5.20138e-17
8.31857e-17
2.14155e-17
-2.30963e-17
-3.25152e-17
-6.54465e-18
1.08059e-18
9.46154e-17
3.71236e-17
6.47175e-17
1.51896e-16
7.23722e-17
3.19055e-17
-8.51684e-17
-8.14344e-17
-7.93569e-17
-9.74538e-17
-1.40468e-13
2.98069e-14
-7.28136e-15
1.437e-15
-5.32029e-16
-1.37946e-16
-1.07375e-16
9.04415e-17
9.12967e-17
1.51302e-16
7.82956e-17
1.0035e-16
3.92594e-17
2.80797e-17
-1.5838e-17
-1.84954e-17
-2.6158e-17
-6.17454e-17
-1.21562e-16
-1.27476e-16
9.71275e-14
-2.13489e-14
5.02598e-15
-1.028e-15
3.96819e-16
7.1854e-17
9.61302e-17
7.64731e-17
1.19102e-16
9.04257e-17
-7.41255e-17
-8.9765e-17
-3.94967e-17
-7.07214e-17
-3.99389e-17
-1.18972e-16
-5.36795e-17
3.60492e-17
-4.60297e-18
-8.47191e-17
2.82429e-15
-1.73958e-16
1.26537e-16
1.37211e-16
2.27608e-16
1.35127e-16
3.99302e-17
-1.27973e-16
-1.10151e-16
2.51628e-17
1.0246e-16
7.45019e-17
3.35307e-18
-2.0599e-16
-1.89461e-16
-1.50906e-16
-5.27427e-17
5.55926e-17
4.24488e-18
-3.79442e-17
-9.37057e-14
2.02446e-14
-4.86011e-15
9.83485e-16
-3.2256e-16
-1.95583e-17
7.08875e-18
6.44226e-17
-3.70536e-18
-1.69919e-17
-1.51365e-17
-8.22622e-17
-1.40021e-16
-1.45342e-16
-1.19038e-16
-2.34557e-17
3.1126e-17
-1.25301e-17
-6.20696e-18
2.99956e-17
1.25083e-13
-2.73645e-14
6.42084e-15
-1.39635e-15
2.33849e-16
-7.09767e-17
4.94245e-17
5.44102e-17
-5.56311e-17
-1.59775e-16
-1.981e-16
-1.88679e-16
-1.47876e-16
7.67471e-17
1.28365e-16
4.1425e-17
-3.84655e-17
-7.30016e-17
1.39981e-17
6.55352e-17
-5.04172e-14
1.085e-14
-2.44292e-15
5.10141e-16
-2.47084e-16
-1.09352e-16
-9.21849e-17
-3.64865e-17
-7.54716e-17
-9.82429e-17
-1.02986e-16
-4.16538e-17
-1.68205e-17
7.35639e-17
6.44843e-17
-6.7221e-17
-1.54874e-16
-5.93689e-17
3.71207e-17
6.2508e-17
-5.62481e-14
1.20402e-14
-3.02395e-15
4.00401e-16
-3.46879e-16
-1.32618e-16
-1.5329e-16
-1.06217e-16
-1.53576e-17
2.39029e-17
6.80444e-17
7.80601e-17
-1.40321e-17
-1.88499e-16
-2.01657e-16
-8.41915e-17
-3.74315e-17
-4.15493e-17
-6.3769e-17
-1.20847e-17
1.24267e-13
-2.68709e-14
6.36831e-15
-1.28805e-15
4.20989e-16
6.07905e-17
3.65683e-18
-1.08224e-16
-2.01821e-16
-1.78539e-16
-1.0168e-16
-7.97037e-17
-2.4552e-17
-7.64855e-17
-4.15141e-17
-3.79009e-17
-2.73534e-17
-3.74794e-17
-5.13273e-17
1.32277e-17
-1.36052e-13
3.01625e-14
-6.63068e-15
1.84995e-15
-7.3915e-17
2.50767e-16
4.15364e-17
-1.39906e-16
-1.84208e-16
-1.51432e-16
-1.70934e-16
-2.4954e-16
-1.83589e-16
-8.38408e-17
-5.84166e-17
-5.64446e-17
-8.82365e-17
-6.19494e-17
5.45442e-18
4.5153e-17
9.65228e-14
-2.07664e-14
4.95156e-15
-8.94551e-16
3.49067e-16
3.9948e-17
9.9649e-17
-5.09279e-17
-6.63668e-18
5.01091e-17
8.10285e-17
-9.29578e-18
-7.40268e-17
-9.28201e-17
-9.30566e-17
-1.20242e-19
-5.02501e-17
-2.69202e-17
6.69664e-17
4.93099e-17
-5.07996e-15
1.26065e-15
-8.89115e-17
1.39822e-16
3.03584e-17
4.54246e-18
-3.71878e-17
1.0719e-17
2.22549e-17
1.27464e-18
-2.38482e-17
1.32135e-17
3.29764e-17
-4.10244e-17
-1.02003e-16
-6.5994e-17
-3.06203e-17
-4.7102e-17
-3.40044e-17
-1.57878e-17
-1.06553e-13
2.33235e-14
-5.44403e-15
1.14634e-15
-3.63097e-16
-3.66875e-17
-1.35641e-16
-2.75373e-17
7.19067e-17
5.08676e-17
-1.67221e-16
-1.98836e-16
-7.52226e-17
-9.89214e-18
1.96278e-17
2.30098e-17
1.39266e-17
-8.47787e-17
-1.45146e-16
-9.18555e-17
1.65495e-13
-3.58076e-14
8.25915e-15
-1.80788e-15
4.55807e-16
-3.74401e-17
7.83307e-17
7.42178e-17
5.73213e-17
-2.52876e-18
-7.8373e-17
-1.12368e-16
-6.79725e-17
-2.65387e-17
-1.27411e-17
-9.8101e-17
2.90644e-17
5.60158e-17
-1.66279e-17
-2.28224e-17
-1.01907e-13
2.17599e-14
-5.18841e-15
1.0321e-15
-2.02083e-16
8.55528e-17
-2.10586e-17
-4.46436e-17
-9.04532e-17
-1.34518e-16
-9.27029e-17
-8.50926e-17
-1.51554e-16
-1.424e-16
-1.19468e-16
-1.1598e-16
-1.12166e-17
2.42344e-17
9.42181e-18
-2.00895e-17
-3.52438e-14
7.86566e-15
-2.06506e-15
2.38216e-16
-1.5968e-16
6.3842e-17
1.30699e-16
1.76091e-16
1.30658e-16
-1.88849e-17
-1.57367e-16
-2.05011e-16
-2.55663e-16
-2.59274e-16
-1.98617e-16
-5.56797e-17
-8.88306e-17
-6.0195e-17
-3.30505e-17
-3.97609e-18
1.32371e-13
-2.83174e-14
6.72308e-15
-1.45651e-15
3.61531e-16
-1.66328e-17
1.20662e-16
1.15293e-16
1.1374e-16
-2.37237e-17
-7.28883e-17
-5.78357e-17
-1.04026e-16
-2.0262e-16
-2.24728e-16
-1.31921e-16
-5.51766e-17
-6.29448e-17
-5.13526e-17
8.08797e-17
-5.35357e-14
1.09229e-14
-2.59409e-15
4.51947e-16
-1.56308e-16
-8.51596e-17
-2.42484e-16
-2.6881e-16
-1.77058e-16
-9.54845e-17
-8.56265e-18
7.86535e-17
9.05309e-17
5.13648e-17
-2.74575e-17
-6.44617e-17
-6.96668e-17
-1.05812e-16
-9.71645e-17
-2.66681e-17
-8.73128e-14
1.85135e-14
-4.49116e-15
8.47475e-16
-2.2911e-16
2.54372e-17
-7.13783e-17
-5.50228e-17
-3.75731e-17
4.98423e-18
-7.19109e-18
3.26743e-17
5.16559e-17
4.11759e-17
-4.17323e-17
-7.10054e-17
-9.28452e-17
-5.83589e-17
-6.48301e-17
-8.02496e-17
)
;

boundaryField
{
    movingWall
    {
        type            calculated;
        value           uniform -0;
    }
    fixedWalls
    {
        type            calculated;
        value           uniform -0;
    }
    frontAndBack
    {
        type            empty;
    }
}


// ************************************************************************* //
