/*--------------------------------*- C++ -*----------------------------------*\
| =========                 |                                                 |
| \\      /  F ield         | OpenFOAM: The Open Source CFD Toolbox           |
|  \\    /   O peration     | Version:  2506                                  |
|   \\  /    A nd           | Website:  www.openfoam.com                      |
|    \\/     M anipulation  |                                                 |
\*---------------------------------------------------------------------------*/
FoamFile
{
    version     2.0;
    format      ascii;
    arch        "LSB;label=32;scalar=64";
    class       volVectorField;
    location    "9.125";
    object      vorticityField;
}
// * * * * * * * * * * * * * * * * * * * * * * * * * * * * * * * * * * * * * //

dimensions      [0 0 -1 0 0 0 0];

internalField   nonuniform List<vector> 
400
(
(0 -0 1.0809e-11)
(0 -0 -1.42267e-11)
(0 -0 3.24154e-12)
(0 -0 -7.15916e-13)
(0 -0 2.016e-13)
(0 -0 -3.73583e-14)
(0 -0 4.30445e-16)
(0 -0 4.83393e-14)
(0 -0 -1.64779e-14)
(0 -0 -4.61031e-14)
(0 -0 -1.30973e-14)
(0 -0 6.0705e-14)
(0 -0 8.76993e-14)
(0 -0 6.98587e-14)
(0 -0 4.06638e-14)
(0 -0 3.05577e-14)
(0 -0 -6.33729e-15)
(0 -0 1.38115e-14)
(0 -0 5.64449e-14)
(0 -0 -5.2261e-15)
(0 -0 4.48917e-13)
(0 -0 -1.05054e-12)
(0 -0 3.08682e-13)
(0 -0 -2.92042e-14)
(0 -0 3.4448e-14)
(0 -0 7.0687e-14)
(0 -0 -5.39307e-15)
(0 -0 2.87602e-14)
(0 -0 3.35958e-15)
(0 -0 3.72211e-14)
(0 -0 5.78144e-14)
(0 -0 2.41153e-14)
(0 -0 3.85823e-14)
(0 -0 7.65474e-16)
(0 -0 -6.62092e-14)
(0 -0 -6.99642e-14)
(0 -0 -1.1334e-14)
(0 -0 5.81146e-16)
(0 -0 -5.5812e-14)
(0 -0 1.76811e-14)
(0 -0 -6.75642e-12)
(0 -0 1.19363e-11)
(0 -0 -2.91831e-12)
(0 -0 5.66513e-13)
(0 -0 -2.65915e-13)
(0 -0 1.53604e-14)
(0 -0 7.70489e-14)
(0 -0 1.98672e-14)
(0 -0 8.74012e-14)
(0 -0 5.291e-14)
(0 -0 2.20099e-14)
(0 -0 -8.52188e-14)
(0 -0 -3.43321e-14)
(0 -0 -5.97198e-14)
(0 -0 -3.17626e-14)
(0 -0 -1.032e-15)
(0 -0 -3.14301e-14)
(0 -0 -3.66454e-14)
(0 -0 -3.36781e-14)
(0 -0 2.49038e-14)
(0 -0 4.65052e-12)
(0 -0 -8.31568e-12)
(0 -0 2.00498e-12)
(0 -0 -4.35811e-13)
(0 -0 1.913e-13)
(0 -0 -3.00688e-14)
(0 -0 4.61914e-16)
(0 -0 -2.48079e-14)
(0 -0 -2.57098e-14)
(0 -0 -7.35328e-14)
(0 -0 -4.51241e-14)
(0 -0 3.46287e-15)
(0 -0 1.90435e-15)
(0 -0 -4.42133e-17)
(0 -0 -4.82502e-15)
(0 -0 -2.84791e-14)
(0 -0 1.55021e-14)
(0 -0 3.20127e-14)
(0 -0 -1.20768e-14)
(0 -0 -1.81728e-14)
(0 -0 7.52925e-13)
(0 -0 -2.69776e-13)
(0 -0 1.39537e-13)
(0 -0 9.14223e-14)
(0 -0 2.68966e-14)
(0 -0 -1.87678e-14)
(0 -0 -8.05201e-14)
(0 -0 -6.92182e-14)
(0 -0 1.53136e-14)
(0 -0 2.1261e-14)
(0 -0 -7.63812e-14)
(0 -0 -9.91065e-15)
(0 -0 -1.36469e-13)
(0 -0 -7.34915e-14)
(0 -0 -2.15967e-14)
(0 -0 4.07769e-14)
(0 -0 4.77549e-14)
(0 -0 5.69876e-15)
(0 -0 -3.64587e-14)
(0 -0 -2.37351e-14)
(0 -0 -5.44876e-12)
(0 -0 8.17983e-12)
(0 -0 -1.95321e-12)
(0 -0 4.2665e-13)
(0 -0 -1.27409e-13)
(0 -0 -2.12452e-14)
(0 -0 8.39809e-15)
(0 -0 -1.07941e-15)
(0 -0 -6.23516e-14)
(0 -0 -1.14311e-15)
(0 -0 -3.36321e-14)
(0 -0 -6.66986e-14)
(0 -0 -6.30799e-15)
(0 -0 2.92034e-14)
(0 -0 3.92937e-14)
(0 -0 1.50164e-14)
(0 -0 5.53027e-14)
(0 -0 5.04768e-14)
(0 -0 5.84627e-14)
(0 -0 2.47262e-14)
(0 -0 6.92577e-12)
(0 -0 -1.1053e-11)
(0 -0 2.5155e-12)
(0 -0 -6.7291e-13)
(0 -0 1.32537e-13)
(0 -0 -4.55475e-14)
(0 -0 1.25387e-14)
(0 -0 -3.76106e-14)
(0 -0 -4.85236e-14)
(0 -0 -4.13519e-14)
(0 -0 2.42146e-14)
(0 -0 1.13443e-13)
(0 -0 8.07528e-14)
(0 -0 1.08939e-13)
(0 -0 2.35728e-14)
(0 -0 -1.66831e-14)
(0 -0 -1.14427e-14)
(0 -0 -4.89638e-14)
(0 -0 1.38537e-14)
(0 -0 -7.95332e-15)
(0 -0 -3.14357e-12)
(0 -0 4.58059e-12)
(0 -0 -1.03399e-12)
(0 -0 2.19584e-13)
(0 -0 -1.16159e-13)
(0 -0 9.68051e-14)
(0 -0 6.14966e-14)
(0 -0 1.67133e-15)
(0 -0 2.09294e-14)
(0 -0 -2.98565e-14)
(0 -0 5.65891e-15)
(0 -0 8.61652e-15)
(0 -0 1.15218e-14)
(0 -0 8.13048e-15)
(0 -0 -1.40785e-14)
(0 -0 -2.19358e-14)
(0 -0 7.85208e-16)
(0 -0 1.91994e-14)
(0 -0 1.21877e-14)
(0 -0 1.71422e-14)
(0 -0 -4.4479e-12)
(0 -0 5.05136e-12)
(0 -0 -1.2724e-12)
(0 -0 2.13497e-13)
(0 -0 -8.0407e-14)
(0 -0 1.93589e-14)
(0 -0 2.64005e-15)
(0 -0 9.51084e-14)
(0 -0 6.72221e-14)
(0 -0 6.25503e-14)
(0 -0 3.25208e-14)
(0 -0 -8.95228e-14)
(0 -0 -8.0866e-14)
(0 -0 -1.27183e-13)
(0 -0 -1.66743e-14)
(0 -0 1.64226e-14)
(0 -0 -4.99459e-14)
(0 -0 -2.97388e-14)
(0 -0 -2.41586e-14)
(0 -0 -1.95197e-14)
(0 -0 9.57697e-12)
(0 -0 -1.15188e-11)
(0 -0 2.69381e-12)
(0 -0 -5.94732e-13)
(0 -0 1.61989e-13)
(0 -0 -4.17332e-14)
(0 -0 -1.69015e-14)
(0 -0 -2.05478e-14)
(0 -0 -6.12416e-14)
(0 -0 6.42242e-14)
(0 -0 6.40936e-14)
(0 -0 3.48178e-14)
(0 -0 5.45319e-14)
(0 -0 5.25139e-14)
(0 -0 3.09635e-14)
(0 -0 5.56262e-14)
(0 -0 4.21415e-17)
(0 -0 2.47077e-14)
(0 -0 5.07071e-15)
(0 -0 3.0915e-14)
(0 -0 -1.02366e-11)
(0 -0 1.27795e-11)
(0 -0 -2.91257e-12)
(0 -0 7.09887e-13)
(0 -0 -2.14128e-13)
(0 -0 -6.977e-14)
(0 -0 -1.47488e-13)
(0 -0 -1.30995e-13)
(0 -0 -5.53627e-14)
(0 -0 -1.07093e-13)
(0 -0 -1.18231e-13)
(0 -0 -5.54756e-14)
(0 -0 -1.05351e-14)
(0 -0 6.67273e-14)
(0 -0 2.73961e-15)
(0 -0 -5.71921e-14)
(0 -0 -5.50476e-16)
(0 -0 6.35792e-14)
(0 -0 1.07102e-14)
(0 -0 -5.06074e-15)
(0 -0 7.62985e-12)
(0 -0 -8.99449e-12)
(0 -0 2.14981e-12)
(0 -0 -4.06039e-13)
(0 -0 2.0187e-13)
(0 -0 5.63734e-14)
(0 -0 4.51225e-14)
(0 -0 4.35815e-14)
(0 -0 1.18524e-13)
(0 -0 1.17187e-13)
(0 -0 4.82696e-14)
(0 -0 3.87046e-14)
(0 -0 1.87526e-14)
(0 -0 -1.90298e-15)
(0 -0 6.34801e-14)
(0 -0 5.84908e-14)
(0 -0 -2.68e-15)
(0 -0 1.17216e-14)
(0 -0 3.47281e-14)
(0 -0 -1.16276e-14)
(0 -0 -2.95654e-14)
(0 -0 4.72e-13)
(0 -0 -1.12083e-13)
(0 -0 1.1927e-14)
(0 -0 -1.35279e-14)
(0 -0 -6.75462e-15)
(0 -0 5.48278e-14)
(0 -0 6.01544e-14)
(0 -0 -9.44432e-16)
(0 -0 -4.6103e-15)
(0 -0 5.5404e-14)
(0 -0 5.98926e-14)
(0 -0 -5.42379e-15)
(0 -0 -6.7708e-14)
(0 -0 -8.38121e-14)
(0 -0 -4.70719e-14)
(0 -0 -2.52159e-14)
(0 -0 -3.38406e-16)
(0 -0 3.13141e-15)
(0 -0 -2.21258e-14)
(0 -0 -7.61818e-12)
(0 -0 9.70428e-12)
(0 -0 -2.35324e-12)
(0 -0 3.99673e-13)
(0 -0 -1.72513e-13)
(0 -0 -3.14645e-14)
(0 -0 -5.32951e-14)
(0 -0 2.07547e-14)
(0 -0 7.84049e-15)
(0 -0 -7.81228e-14)
(0 -0 -7.91805e-14)
(0 -0 -4.50103e-14)
(0 -0 1.88944e-14)
(0 -0 9.48504e-15)
(0 -0 -2.38149e-14)
(0 -0 -2.76752e-14)
(0 -0 -3.78839e-14)
(0 -0 -9.72224e-14)
(0 -0 -2.78127e-14)
(0 -0 -3.4049e-15)
(0 -0 1.0963e-11)
(0 -0 -1.49646e-11)
(0 -0 3.58971e-12)
(0 -0 -6.71914e-13)
(0 -0 2.58359e-13)
(0 -0 4.35676e-14)
(0 -0 9.2481e-14)
(0 -0 2.50041e-14)
(0 -0 1.94304e-14)
(0 -0 4.06407e-14)
(0 -0 7.03313e-14)
(0 -0 5.52502e-14)
(0 -0 6.2793e-14)
(0 -0 8.68383e-14)
(0 -0 4.70539e-14)
(0 -0 3.12856e-14)
(0 -0 6.96218e-14)
(0 -0 2.25358e-14)
(0 -0 1.92212e-14)
(0 -0 3.10501e-14)
(0 -0 -7.36423e-12)
(0 -0 9.31953e-12)
(0 -0 -2.26251e-12)
(0 -0 4.98633e-13)
(0 -0 -1.7597e-13)
(0 -0 -6.32127e-14)
(0 -0 -9.43348e-14)
(0 -0 -8.82546e-14)
(0 -0 -3.60925e-14)
(0 -0 -5.44351e-14)
(0 -0 4.94255e-15)
(0 -0 -5.88512e-15)
(0 -0 -5.7307e-15)
(0 -0 3.2086e-15)
(0 -0 5.6852e-14)
(0 -0 6.50353e-14)
(0 -0 1.40215e-14)
(0 -0 2.06384e-15)
(0 -0 -4.43239e-15)
(0 -0 1.06677e-15)
(0 -0 6.77425e-13)
(0 -0 2.3963e-12)
(0 -0 -6.27219e-13)
(0 -0 1.09223e-13)
(0 -0 3.67727e-14)
(0 -0 -2.51722e-14)
(0 -0 1.12249e-14)
(0 -0 -5.42142e-14)
(0 -0 -1.00813e-13)
(0 -0 -8.30126e-14)
(0 -0 -1.54138e-13)
(0 -0 -6.40397e-14)
(0 -0 -5.42625e-15)
(0 -0 -7.56106e-14)
(0 -0 2.03594e-14)
(0 -0 1.09787e-14)
(0 -0 -4.51532e-16)
(0 -0 5.97881e-14)
(0 -0 5.62189e-15)
(0 -0 3.70266e-15)
(0 -0 5.14695e-12)
(0 -0 -1.1074e-11)
(0 -0 2.60477e-12)
(0 -0 -5.5484e-13)
(0 -0 1.43987e-13)
(0 -0 8.43333e-14)
(0 -0 6.74027e-14)
(0 -0 2.64129e-14)
(0 -0 -4.10067e-14)
(0 -0 -4.57679e-14)
(0 -0 -3.05163e-14)
(0 -0 -5.73239e-14)
(0 -0 -9.57936e-14)
(0 -0 -6.62803e-14)
(0 -0 7.06992e-15)
(0 -0 1.69551e-14)
(0 -0 6.11077e-14)
(0 -0 -5.38277e-14)
(0 -0 6.85926e-14)
(0 -0 2.41523e-14)
(0 -0 -4.01734e-12)
(0 -0 4.82311e-12)
(0 -0 -1.23683e-12)
(0 -0 1.35358e-13)
(0 -0 -1.62131e-13)
(0 -0 -1.44143e-13)
(0 -0 -1.5389e-13)
(0 -0 -4.76674e-14)
(0 -0 1.73325e-14)
(0 -0 4.39546e-14)
(0 -0 4.45189e-14)
(0 -0 9.90935e-15)
(0 -0 -2.98339e-14)
(0 -0 -1.17988e-14)
(0 -0 -9.28978e-14)
(0 -0 -5.8431e-14)
(0 -0 -5.83452e-14)
(0 -0 -2.98548e-14)
(0 -0 -7.34008e-14)
(0 -0 1.23833e-14)
(0 -0 -4.98257e-12)
(0 -0 7.92979e-12)
(0 -0 -1.57686e-12)
(0 -0 4.80415e-13)
(0 -0 -2.79937e-14)
(0 -0 9.70883e-14)
(0 -0 7.32692e-14)
(0 -0 8.46957e-14)
(0 -0 6.02108e-14)
(0 -0 5.72483e-14)
(0 -0 5.69791e-14)
(0 -0 6.00948e-14)
(0 -0 5.50603e-14)
(0 -0 4.48713e-14)
(0 -0 1.58869e-14)
(0 -0 -5.1113e-15)
(0 -0 1.26465e-15)
(0 -0 2.99066e-14)
(0 -0 2.4916e-14)
(0 -0 1.4508e-14)
)
;

boundaryField
{
    movingWall
    {
        type            calculated;
        value           nonuniform List<vector> 
20
(
(0 -0 -1.21202e-11)
(0 -0 1.00141e-11)
(0 -0 -1.41133e-12)
(0 -0 8.25886e-13)
(0 -0 2.28659e-13)
(0 -0 3.26636e-13)
(0 -0 2.58408e-13)
(0 -0 2.25425e-13)
(0 -0 1.39227e-13)
(0 -0 1.36265e-13)
(0 -0 1.35996e-13)
(0 -0 5.02936e-14)
(0 -0 1.34077e-13)
(0 -0 2.12706e-13)
(0 -0 2.10826e-13)
(0 -0 1.28115e-13)
(0 -0 9.00825e-14)
(0 -0 4.72104e-14)
(0 -0 1.31038e-13)
(0 -0 1.03326e-13)
)
;
    }
    fixedWalls
    {
        type            calculated;
        value           nonuniform List<vector> 
60
(
(0 -0 6.05339e-11)
(0 -0 4.89435e-12)
(0 -0 -5.18775e-11)
(0 -0 3.59236e-11)
(0 -0 1.61761e-12)
(0 -0 -3.55849e-11)
(0 -0 4.7187e-11)
(0 -0 -1.93537e-11)
(0 -0 -2.25263e-11)
(0 -0 4.95441e-11)
(0 -0 -5.40685e-11)
(0 -0 3.86633e-11)
(0 -0 -1.67962e-12)
(0 -0 -4.19163e-11)
(0 -0 6.41922e-11)
(0 -0 -4.01124e-11)
(0 -0 -1.06823e-11)
(0 -0 4.76899e-11)
(0 -0 -2.11703e-11)
(0 -0 -3.30277e-11)
(0 -0 7.60403e-16)
(0 -0 3.89815e-14)
(0 -0 5.09903e-14)
(0 -0 6.7826e-15)
(0 -0 -1.19274e-14)
(0 -0 1.51068e-14)
(0 -0 -2.62141e-14)
(0 -0 2.10187e-15)
(0 -0 -2.22712e-14)
(0 -0 2.1814e-14)
(0 -0 -1.80612e-14)
(0 -0 -1.9724e-14)
(0 -0 -2.07899e-14)
(0 -0 9.63715e-15)
(0 -0 3.6234e-14)
(0 -0 8.03582e-15)
(0 -0 1.59043e-15)
(0 -0 -5.24682e-15)
(0 -0 1.06673e-14)
(0 -0 3.20998e-14)
(0 -0 1.85049e-11)
(0 -0 -1.6792e-11)
(0 -0 3.05411e-12)
(0 -0 -1.05388e-12)
(0 -0 -3.14068e-15)
(0 -0 -3.03812e-13)
(0 -0 -4.39785e-14)
(0 -0 -5.02797e-14)
(0 -0 -1.64779e-14)
(0 -0 -1.07816e-13)
(0 -0 -1.30973e-14)
(0 -0 -8.2323e-14)
(0 -0 -9.97376e-14)
(0 -0 -1.17578e-13)
(0 -0 7.52715e-14)
(0 -0 6.51655e-14)
(0 -0 -6.33729e-15)
(0 -0 -3.05974e-14)
(0 -0 2.23481e-15)
(0 -0 -5.2261e-15)
)
;
    }
    frontAndBack
    {
        type            empty;
    }
}


// ************************************************************************* //
