/*--------------------------------*- C++ -*----------------------------------*\
| =========                 |                                                 |
| \\      /  F ield         | OpenFOAM: The Open Source CFD Toolbox           |
|  \\    /   O peration     | Version:  2506                                  |
|   \\  /    A nd           | Website:  www.openfoam.com                      |
|    \\/     M anipulation  |                                                 |
\*---------------------------------------------------------------------------*/
FoamFile
{
    version     2.0;
    format      ascii;
    arch        "LSB;label=32;scalar=64";
    class       volScalarField;
    location    "9.125";
    object      zeroGradient(epsilon);
}
// * * * * * * * * * * * * * * * * * * * * * * * * * * * * * * * * * * * * * //

dimensions      [0 2 -3 0 0 0 0];

internalField   nonuniform List<scalar> 
400
(
8.18476e-07
8.18475e-07
8.18476e-07
8.18475e-07
8.18475e-07
8.18474e-07
8.18474e-07
8.18474e-07
8.18474e-07
8.18474e-07
8.18474e-07
8.18474e-07
8.18474e-07
8.18474e-07
8.18473e-07
8.18473e-07
8.18473e-07
8.18473e-07
8.18473e-07
8.18473e-07
8.36398e-07
8.27778e-07
8.28511e-07
8.28818e-07
8.29424e-07
8.29737e-07
8.30345e-07
8.30665e-07
8.31276e-07
8.31601e-07
8.32215e-07
8.32546e-07
8.33162e-07
8.33501e-07
8.34117e-07
8.34466e-07
8.35081e-07
8.35439e-07
8.35747e-07
8.36235e-07
8.65551e-07
8.56371e-07
8.57164e-07
8.57496e-07
8.58149e-07
8.58485e-07
8.59139e-07
8.59479e-07
8.60135e-07
8.60478e-07
8.61136e-07
8.61483e-07
8.62142e-07
8.62495e-07
8.63152e-07
8.63512e-07
8.64167e-07
8.64536e-07
8.64862e-07
8.65373e-07
8.97416e-07
8.87784e-07
8.88617e-07
8.88965e-07
8.8965e-07
8.90003e-07
8.90688e-07
8.91046e-07
8.91733e-07
8.92094e-07
8.92784e-07
8.93148e-07
8.93839e-07
8.94209e-07
8.94898e-07
8.95276e-07
8.95963e-07
8.9635e-07
8.96691e-07
8.97228e-07
9.25415e-07
9.15377e-07
9.16245e-07
9.16607e-07
9.17321e-07
9.17688e-07
9.18402e-07
9.18775e-07
9.19491e-07
9.19866e-07
9.20585e-07
9.20965e-07
9.21685e-07
9.2207e-07
9.22789e-07
9.23183e-07
9.23898e-07
9.24301e-07
9.24658e-07
9.25217e-07
9.46706e-07
9.36355e-07
9.37249e-07
9.37623e-07
9.38359e-07
9.38738e-07
9.39474e-07
9.39858e-07
9.40597e-07
9.40984e-07
9.41725e-07
9.42116e-07
9.42858e-07
9.43256e-07
9.43997e-07
9.44403e-07
9.45141e-07
9.45557e-07
9.45924e-07
9.46501e-07
9.61412e-07
9.50843e-07
9.51756e-07
9.52138e-07
9.52889e-07
9.53276e-07
9.54028e-07
9.5442e-07
9.55174e-07
9.55569e-07
9.56326e-07
9.56725e-07
9.57483e-07
9.57889e-07
9.58646e-07
9.5906e-07
9.59814e-07
9.60239e-07
9.60613e-07
9.61203e-07
9.71056e-07
9.60341e-07
9.61266e-07
9.61652e-07
9.62414e-07
9.62806e-07
9.63568e-07
9.63965e-07
9.64729e-07
9.6513e-07
9.65897e-07
9.66302e-07
9.6707e-07
9.67482e-07
9.68249e-07
9.68669e-07
9.69432e-07
9.69863e-07
9.70243e-07
9.7084e-07
9.77362e-07
9.66553e-07
9.67486e-07
9.67876e-07
9.68644e-07
9.6904e-07
9.69809e-07
9.70209e-07
9.7098e-07
9.71384e-07
9.72158e-07
9.72567e-07
9.73342e-07
9.73757e-07
9.7453e-07
9.74954e-07
9.75725e-07
9.76159e-07
9.76543e-07
9.77145e-07
9.81731e-07
9.70856e-07
9.71795e-07
9.72187e-07
9.7296e-07
9.73358e-07
9.74131e-07
9.74534e-07
9.75309e-07
9.75716e-07
9.76495e-07
9.76906e-07
9.77685e-07
9.78103e-07
9.78881e-07
9.79308e-07
9.80083e-07
9.8052e-07
9.80905e-07
9.81512e-07
9.85111e-07
9.74186e-07
9.75129e-07
9.75523e-07
9.76299e-07
9.76699e-07
9.77476e-07
9.77881e-07
9.7866e-07
9.79069e-07
9.79851e-07
9.80264e-07
9.81047e-07
9.81466e-07
9.82248e-07
9.82677e-07
9.83455e-07
9.83895e-07
9.84282e-07
9.84891e-07
9.88095e-07
9.77125e-07
9.78072e-07
9.78467e-07
9.79247e-07
9.79648e-07
9.80428e-07
9.80835e-07
9.81617e-07
9.82027e-07
9.82812e-07
9.83227e-07
9.84013e-07
9.84435e-07
9.85219e-07
9.8565e-07
9.86432e-07
9.86873e-07
9.87262e-07
9.87873e-07
9.91025e-07
9.80013e-07
9.80963e-07
9.8136e-07
9.82143e-07
9.82546e-07
9.83329e-07
9.83737e-07
9.84523e-07
9.84934e-07
9.85723e-07
9.86139e-07
9.86928e-07
9.87351e-07
9.88139e-07
9.88572e-07
9.89356e-07
9.89799e-07
9.9019e-07
9.90803e-07
9.94096e-07
9.83037e-07
9.83991e-07
9.8439e-07
9.85176e-07
9.8558e-07
9.86367e-07
9.86776e-07
9.87565e-07
9.87979e-07
9.8877e-07
9.89188e-07
9.89981e-07
9.90406e-07
9.91197e-07
9.91631e-07
9.92419e-07
9.92863e-07
9.93256e-07
9.93872e-07
9.97378e-07
9.86271e-07
9.8723e-07
9.8763e-07
9.88419e-07
9.88826e-07
9.89615e-07
9.90027e-07
9.90819e-07
9.91234e-07
9.92029e-07
9.92449e-07
9.93245e-07
9.93672e-07
9.94467e-07
9.94902e-07
9.95694e-07
9.9614e-07
9.96534e-07
9.97153e-07
1.00084e-06
9.89678e-07
9.90641e-07
9.91043e-07
9.91836e-07
9.92244e-07
9.93037e-07
9.93451e-07
9.94247e-07
9.94664e-07
9.95462e-07
9.95884e-07
9.96684e-07
9.97113e-07
9.97911e-07
9.98349e-07
9.99144e-07
9.99593e-07
9.99988e-07
1.00061e-06
1.0043e-06
9.9309e-07
9.94057e-07
9.94461e-07
9.95257e-07
9.95668e-07
9.96465e-07
9.9688e-07
9.97679e-07
9.98098e-07
9.98901e-07
9.99324e-07
1.00013e-06
1.00056e-06
1.00136e-06
1.0018e-06
1.0026e-06
1.00305e-06
1.00345e-06
1.00407e-06
1.00746e-06
9.96205e-07
9.97176e-07
9.97582e-07
9.98381e-07
9.98793e-07
9.99593e-07
1.00001e-06
1.00081e-06
1.00123e-06
1.00204e-06
1.00246e-06
1.00327e-06
1.0037e-06
1.00451e-06
1.00495e-06
1.00575e-06
1.0062e-06
1.0066e-06
1.00723e-06
1.0099e-06
9.98828e-07
9.99766e-07
1.00016e-06
1.00094e-06
1.00134e-06
1.00212e-06
1.00253e-06
1.00331e-06
1.00373e-06
1.00452e-06
1.00494e-06
1.00573e-06
1.00617e-06
1.00696e-06
1.00741e-06
1.0082e-06
1.00866e-06
1.00905e-06
1.00968e-06
1.01103e-06
1.01103e-06
1.01103e-06
1.01103e-06
1.01103e-06
1.01103e-06
1.01103e-06
1.01103e-06
1.01103e-06
1.01103e-06
1.01103e-06
1.01103e-06
1.01103e-06
1.01103e-06
1.01103e-06
1.01103e-06
1.01103e-06
1.01103e-06
1.01103e-06
1.01103e-06
)
;

boundaryField
{
    movingWall
    {
        type            zeroGradient;
    }
    fixedWalls
    {
        type            zeroGradient;
    }
    frontAndBack
    {
        type            empty;
    }
}


// ************************************************************************* //
