/*--------------------------------*- C++ -*----------------------------------*\
| =========                 |                                                 |
| \\      /  F ield         | OpenFOAM: The Open Source CFD Toolbox           |
|  \\    /   O peration     | Version:  2506                                  |
|   \\  /    A nd           | Website:  www.openfoam.com                      |
|    \\/     M anipulation  |                                                 |
\*---------------------------------------------------------------------------*/
FoamFile
{
    version     2.0;
    format      ascii;
    arch        "LSB;label=32;scalar=64";
    class       volScalarField;
    location    "0.25";
    object      Lambda2Field;
}
// * * * * * * * * * * * * * * * * * * * * * * * * * * * * * * * * * * * * * //

dimensions      [0 0 -2 0 0 0 0];

internalField   nonuniform List<scalar> 
400
(
0.00383154
0.0070355
0.0107711
0.0116424
0.0109776
0.0096593
0.00845058
0.00768749
0.00722836
0.00723766
0.00764824
0.00753994
0.00801444
0.00897626
0.0103664
0.0118776
0.012662
0.0117738
0.00785702
0.00441132
0.00723821
0.0102165
0.0108274
0.010344
0.00893334
0.00704894
0.00513357
0.00347212
0.00223468
0.00153314
0.00144204
0.00199824
0.00318717
0.00493961
0.00709137
0.00931953
0.0110982
0.0118864
0.0114405
0.0083159
0.0115972
0.0120044
0.0123536
0.0114863
0.0100532
0.00816411
0.00615364
0.00435058
0.00298811
0.00221717
0.00213185
0.00277106
0.00411148
0.00604694
0.00834828
0.0106404
0.0125092
0.0137445
0.0136266
0.0132183
0.0136576
0.0141792
0.0142295
0.01348
0.0119943
0.010135
0.00817783
0.00640854
0.00506749
0.00432354
0.00427843
0.00497308
0.00637883
0.00836764
0.0107001
0.0130436
0.0150371
0.0162306
0.0164269
0.0156148
0.0145934
0.0169364
0.0173266
0.0165286
0.0149991
0.0131726
0.0112936
0.00960897
0.00834721
0.00767704
0.00770218
0.00846596
0.00993644
0.0119883
0.014392
0.0168507
0.0190358
0.0203867
0.0202082
0.01691
0.0149904
0.0206754
0.0218006
0.0211171
0.0194946
0.0176554
0.0157838
0.0141442
0.012952
0.0123717
0.0125073
0.0134016
0.0150363
0.0172906
0.0199312
0.0226635
0.0252281
0.0266407
0.0256573
0.0178572
0.01561
0.0259433
0.0280704
0.0276014
0.0258438
0.023891
0.0219176
0.0202397
0.0190754
0.0185903
0.0188931
0.0200292
0.0219932
0.0246743
0.0278409
0.0311823
0.0343764
0.0358604
0.0337984
0.0194003
0.0168151
0.033449
0.0368122
0.0365992
0.0345871
0.0323182
0.0300758
0.0282125
0.0269909
0.0265916
0.0271388
0.0286913
0.031265
0.0347644
0.0389444
0.0434365
0.0478084
0.0496685
0.0462294
0.0221396
0.0187216
0.0442076
0.0491581
0.0490882
0.0465215
0.0435902
0.0407456
0.0384316
0.0369878
0.0366315
0.0375205
0.0397508
0.0433773
0.0483406
0.0542877
0.0609503
0.0676935
0.0707877
0.0656278
0.0266473
0.0213144
0.0598453
0.0667982
0.0665615
0.0628011
0.0585312
0.0544714
0.0512189
0.0492371
0.0488049
0.0501424
0.0534234
0.058789
0.0661247
0.0754847
0.0862426
0.097719
0.104218
0.0969245
0.0340273
0.0243852
0.0830564
0.0924707
0.0912967
0.0850535
0.0781553
0.0717333
0.0666712
0.0635737
0.0628101
0.064665
0.0694811
0.0774192
0.0890738
0.104335
0.122867
0.144069
0.159808
0.149872
0.0464634
0.0269542
0.118599
0.130682
0.126771
0.115518
0.10359
0.0927757
0.0843614
0.0791251
0.0775014
0.0798528
0.0867633
0.0988017
0.117222
0.142727
0.176012
0.217847
0.258858
0.245374
0.0655639
0.0293672
0.175218
0.188749
0.178027
0.156819
0.135607
0.116941
0.102526
0.0934625
0.0901765
0.0927396
0.102216
0.120003
0.148689
0.191311
0.252133
0.338493
0.45068
0.431759
0.141077
0.00569556
0.269591
0.278059
0.250731
0.210045
0.172257
0.140425
0.116621
0.101464
0.0948623
0.0970033
0.109169
0.133732
0.176225
0.245103
0.356355
0.548104
0.874342
0.841292
0.159792
0.0951645
0.426804
0.40663
0.338887
0.266096
0.202744
0.151768
0.114991
0.0918317
0.0808223
0.0811799
0.0940385
0.124244
0.180331
0.28379
0.490459
0.967039
2.02309
1.95262
-2.86533
0
0.59429
0.494773
0.38539
0.284129
0.188957
0.116863
0.0688704
0.0405914
0.0271745
0.025486
0.0353301
0.0615877
0.12098
0.257935
0.648199
1.85189
3.27922
0.750679
-15.7911
0.06486
0.772051
0.350083
0.163788
0.0274655
-0.0179229
-0.0957358
-0.12217
-0.127753
-0.1259
-0.12276
-0.118884
-0.107399
-0.0639616
0.0908676
0.662951
3.06579
5.15316
4.32059
43.9165
0
0
0
-1.06178
-1.5735
-1.57535
-1.36722
-1.07803
-0.825108
-0.66582
-0.591553
-0.564893
-0.524411
-0.308029
0.387694
2.50113
1.22383
-32.919
-24.616
279.312
11.4042
0
0
0
0
-2.49404
-2.2735
-1.68239
-1.47329
-1.37384
-1.26414
-1.07044
-0.519317
0.656623
2.90645
14.9127
5.36202
-42.0884
-190.332
620.687
3302.84
-608.418
-750.605
-497.598
-329.094
-220.012
-118.973
-38.7048
0
8.00131
2.9985
-1.68976
-4.53233
-3.44018
0
0
0
0
0
676.164
)
;

boundaryField
{
    movingWall
    {
        type            calculated;
        value           nonuniform List<scalar> 
20
(
1621.75
0
0
0
0
-104.718
-151.135
-71.5265
0
14.8133
0
0
0
0
0
0
0
0
-1733.49
1414.33
)
;
    }
    fixedWalls
    {
        type            calculated;
        value           nonuniform List<scalar> 
60
(
0.00187907
0.00496372
0.00752565
0.0077383
0.00583218
0.00155721
0
0
0
0
0
0
0
0
0
0
0.0381133
0
37.6146
7108.03
0.00224435
0.00575351
0.00864802
0.00877394
0.0063315
0.000967062
0
0
0
0
0
0
0
-0.15553
-6.54078
-19.1213
14.9441
235.793
2780.55
763.658
0.00189731
0.00505028
0.00822151
0.00976114
0.0101792
0.00991382
0.00988206
0.0105686
0.0116852
0.0131061
0.0139252
0.0125787
0.0115673
0.0110886
0.0111375
0.0113397
0.0107588
0.00903155
0.00569562
0.00218997
)
;
    }
    frontAndBack
    {
        type            empty;
    }
}


// ************************************************************************* //
