/*--------------------------------*- C++ -*----------------------------------*\
| =========                 |                                                 |
| \\      /  F ield         | OpenFOAM: The Open Source CFD Toolbox           |
|  \\    /   O peration     | Version:  2506                                  |
|   \\  /    A nd           | Website:  www.openfoam.com                      |
|    \\/     M anipulation  |                                                 |
\*---------------------------------------------------------------------------*/
FoamFile
{
    version     2.0;
    format      ascii;
    arch        "LSB;label=32;scalar=64";
    class       volVectorField;
    location    "5.75";
    object      diffU;
}
// * * * * * * * * * * * * * * * * * * * * * * * * * * * * * * * * * * * * * //

dimensions      [0 1 -1 0 0 0 0];

internalField   nonuniform List<vector> 
400
(
(0 0 0)
(1.31006e-14 -1.08692e-13 0)
(9.99201e-15 -8.55692e-14 0)
(1.0103e-14 -9.09068e-14 0)
(9.88098e-15 -8.97474e-14 0)
(9.76996e-15 -9.00266e-14 0)
(9.76996e-15 -9.00033e-14 0)
(9.65894e-15 -9.0023e-14 0)
(9.88098e-15 -8.99158e-14 0)
(9.54792e-15 -8.97943e-14 0)
(9.10383e-15 -8.99766e-14 0)
(9.21485e-15 -9.00606e-14 0)
(9.4369e-15 -9.00827e-14 0)
(9.21485e-15 -8.99865e-14 0)
(8.99281e-15 -8.98984e-14 0)
(8.65974e-15 -8.99353e-14 0)
(8.88178e-15 -8.99994e-14 0)
(8.65974e-15 -9.00551e-14 0)
(8.99281e-15 -9.01205e-14 0)
(8.88178e-15 -9.00515e-14 0)
(2.62013e-14 -5.77355e-14 0)
(3.77476e-15 -9.64351e-14 0)
(8.65974e-15 -8.8172e-14 0)
(7.99361e-15 -9.02638e-14 0)
(7.99361e-15 -8.98762e-14 0)
(8.21565e-15 -9.00395e-14 0)
(7.99361e-15 -9.00404e-14 0)
(8.21565e-15 -9.00769e-14 0)
(7.77156e-15 -8.99798e-14 0)
(8.21565e-15 -8.9858e-14 0)
(8.43769e-15 -8.99468e-14 0)
(8.65974e-15 -8.99817e-14 0)
(8.21565e-15 -8.99578e-14 0)
(8.43769e-15 -8.9899e-14 0)
(8.21565e-15 -8.99336e-14 0)
(8.43769e-15 -8.99758e-14 0)
(8.65974e-15 -9.00833e-14 0)
(8.88178e-15 -9.0109e-14 0)
(8.65974e-15 -9.01699e-14 0)
(8.65974e-15 -9.00848e-14 0)
(3.55271e-15 -1.97505e-13 0)
(9.65894e-15 -6.64312e-14 0)
(8.43769e-15 -9.52135e-14 0)
(8.65974e-15 -8.86185e-14 0)
(8.65974e-15 -9.01635e-14 0)
(8.65974e-15 -8.98786e-14 0)
(8.65974e-15 -8.99619e-14 0)
(8.65974e-15 -9.00435e-14 0)
(8.43769e-15 -9.01128e-14 0)
(8.43769e-15 -9.01452e-14 0)
(8.43769e-15 -9.00814e-14 0)
(8.65974e-15 -9.00628e-14 0)
(8.21565e-15 -8.99887e-14 0)
(8.65974e-15 -9.00074e-14 0)
(8.65974e-15 -9.01345e-14 0)
(8.65974e-15 -9.01996e-14 0)
(8.88178e-15 -9.0227e-14 0)
(8.88178e-15 -9.01862e-14 0)
(8.65974e-15 -9.02519e-14 0)
(8.65974e-15 -9.01947e-14 0)
(3.55271e-15 -1.90128e-14 0)
(1.13243e-14 -1.05132e-13 0)
(9.54792e-15 -8.63752e-14 0)
(9.54792e-15 -9.07322e-14 0)
(9.65894e-15 -8.979e-14 0)
(9.4369e-15 -9.00073e-14 0)
(9.54792e-15 -8.99956e-14 0)
(9.4369e-15 -8.99763e-14 0)
(9.4369e-15 -8.99017e-14 0)
(8.99281e-15 -9.00319e-14 0)
(9.32587e-15 -9.00949e-14 0)
(9.54792e-15 -9.00091e-14 0)
(9.32587e-15 -8.99156e-14 0)
(9.21485e-15 -8.99687e-14 0)
(8.99281e-15 -9.00716e-14 0)
(9.32587e-15 -9.01702e-14 0)
(8.99281e-15 -9.01768e-14 0)
(9.21485e-15 -9.0194e-14 0)
(8.99281e-15 -9.02933e-14 0)
(8.99281e-15 -9.01927e-14 0)
(1.35447e-14 -1.0087e-13 0)
(7.10543e-15 -8.68197e-14 0)
(8.99281e-15 -9.03734e-14 0)
(9.32587e-15 -8.96789e-14 0)
(8.99281e-15 -8.98116e-14 0)
(8.88178e-15 -8.9806e-14 0)
(8.99281e-15 -8.99424e-14 0)
(8.65974e-15 -8.99518e-14 0)
(8.65974e-15 -8.99321e-14 0)
(8.88178e-15 -8.99938e-14 0)
(8.65974e-15 -9.0025e-14 0)
(8.21565e-15 -8.99995e-14 0)
(8.43769e-15 -8.99866e-14 0)
(8.99281e-15 -9.00744e-14 0)
(9.10383e-15 -9.00931e-14 0)
(8.99281e-15 -9.01087e-14 0)
(8.65974e-15 -9.00893e-14 0)
(9.10383e-15 -9.01093e-14 0)
(8.88178e-15 -9.01565e-14 0)
(8.99281e-15 -9.01384e-14 0)
(6.66134e-15 -1.33228e-13 0)
(9.10383e-15 -8.10881e-14 0)
(9.10383e-15 -9.18557e-14 0)
(8.43769e-15 -8.94011e-14 0)
(8.88178e-15 -8.99532e-14 0)
(8.88178e-15 -8.98787e-14 0)
(9.4369e-15 -8.98573e-14 0)
(9.21485e-15 -8.9866e-14 0)
(9.4369e-15 -8.99581e-14 0)
(9.21485e-15 -8.99752e-14 0)
(9.32587e-15 -8.99993e-14 0)
(9.32587e-15 -9.0142e-14 0)
(9.32587e-15 -9.02043e-14 0)
(9.21485e-15 -9.01624e-14 0)
(8.88178e-15 -9.00858e-14 0)
(8.99281e-15 -9.00883e-14 0)
(8.99281e-15 -9.01034e-14 0)
(8.88178e-15 -9.01164e-14 0)
(9.10383e-15 -9.00392e-14 0)
(9.10383e-15 -9.00674e-14 0)
(7.10543e-15 -3.10194e-14 0)
(9.99201e-15 -1.02173e-13 0)
(8.99281e-15 -8.72099e-14 0)
(9.32587e-15 -9.05985e-14 0)
(9.10383e-15 -9.00407e-14 0)
(9.10383e-15 -9.01829e-14 0)
(8.99281e-15 -9.00342e-14 0)
(9.10383e-15 -8.9951e-14 0)
(9.32587e-15 -8.99844e-14 0)
(9.65894e-15 -8.9956e-14 0)
(9.4369e-15 -8.99513e-14 0)
(9.32587e-15 -8.99684e-14 0)
(9.54792e-15 -8.98887e-14 0)
(9.10383e-15 -8.99251e-14 0)
(9.21485e-15 -8.99467e-14 0)
(8.88178e-15 -8.99887e-14 0)
(8.99281e-15 -9.0059e-14 0)
(8.99281e-15 -9.01008e-14 0)
(8.88178e-15 -8.99946e-14 0)
(8.99281e-15 -9.00026e-14 0)
(8.99281e-15 -1.06551e-13 0)
(7.54952e-15 -8.65824e-14 0)
(7.77156e-15 -9.08579e-14 0)
(8.88178e-15 -8.97975e-14 0)
(8.65974e-15 -8.99066e-14 0)
(8.65974e-15 -8.99284e-14 0)
(8.43769e-15 -9.00095e-14 0)
(8.43769e-15 -9.00659e-14 0)
(8.65974e-15 -9.0107e-14 0)
(8.43769e-15 -9.00019e-14 0)
(8.88178e-15 -8.99529e-14 0)
(8.88178e-15 -8.99504e-14 0)
(8.43769e-15 -8.99595e-14 0)
(8.65974e-15 -9.00831e-14 0)
(8.65974e-15 -9.00817e-14 0)
(8.88178e-15 -9.00276e-14 0)
(8.88178e-15 -8.99823e-14 0)
(8.88178e-15 -8.99954e-14 0)
(8.65974e-15 -9.00695e-14 0)
(8.88178e-15 -9.00973e-14 0)
(1.16573e-14 -1.18345e-13 0)
(8.88178e-15 -8.41418e-14 0)
(9.10383e-15 -9.14458e-14 0)
(8.21565e-15 -8.98688e-14 0)
(8.21565e-15 -9.016e-14 0)
(8.43769e-15 -9.00448e-14 0)
(8.43769e-15 -9.00378e-14 0)
(8.65974e-15 -9.00773e-14 0)
(8.65974e-15 -9.01587e-14 0)
(8.43769e-15 -9.01744e-14 0)
(8.99281e-15 -9.0096e-14 0)
(8.88178e-15 -9.00492e-14 0)
(9.10383e-15 -9.01298e-14 0)
(9.4369e-15 -9.01173e-14 0)
(9.21485e-15 -9.0044e-14 0)
(9.10383e-15 -8.99472e-14 0)
(8.99281e-15 -8.99387e-14 0)
(9.10383e-15 -8.99636e-14 0)
(8.99281e-15 -9.00566e-14 0)
(8.99281e-15 -9.01001e-14 0)
(7.77156e-15 -5.17251e-14 0)
(9.4369e-15 -9.70503e-14 0)
(8.99281e-15 -8.80107e-14 0)
(9.10383e-15 -9.02281e-14 0)
(8.99281e-15 -8.99142e-14 0)
(8.88178e-15 -8.99227e-14 0)
(8.65974e-15 -8.99387e-14 0)
(8.65974e-15 -9.00694e-14 0)
(8.88178e-15 -9.0184e-14 0)
(8.65974e-15 -9.02125e-14 0)
(8.65974e-15 -9.01773e-14 0)
(8.43769e-15 -9.01223e-14 0)
(8.43769e-15 -9.01322e-14 0)
(8.43769e-15 -9.01078e-14 0)
(8.43769e-15 -9.00552e-14 0)
(8.43769e-15 -9.00269e-14 0)
(9.10383e-15 -9.00592e-14 0)
(8.88178e-15 -8.99924e-14 0)
(9.10383e-15 -8.99437e-14 0)
(8.88178e-15 -8.99758e-14 0)
(-3.77476e-15 -1.20765e-13 0)
(1.05471e-14 -8.42212e-14 0)
(7.54952e-15 -9.1381e-14 0)
(8.88178e-15 -8.97562e-14 0)
(8.88178e-15 -9.00743e-14 0)
(9.10383e-15 -9.0087e-14 0)
(9.21485e-15 -9.01457e-14 0)
(9.54792e-15 -9.01346e-14 0)
(9.54792e-15 -9.009e-14 0)
(9.54792e-15 -8.99275e-14 0)
(9.54792e-15 -8.98983e-14 0)
(9.21485e-15 -9.00875e-14 0)
(9.21485e-15 -9.02025e-14 0)
(8.99281e-15 -9.01434e-14 0)
(8.99281e-15 -9.01313e-14 0)
(8.99281e-15 -9.00911e-14 0)
(8.65974e-15 -9.00305e-14 0)
(8.65974e-15 -9.00226e-14 0)
(8.65974e-15 -9.00733e-14 0)
(8.99281e-15 -9.00331e-14 0)
(2.77556e-14 -6.87106e-14 0)
(6.66134e-15 -9.45743e-14 0)
(1.13243e-14 -8.90774e-14 0)
(8.88178e-15 -9.02124e-14 0)
(9.21485e-15 -9.00934e-14 0)
(8.99281e-15 -9.01587e-14 0)
(8.65974e-15 -9.00877e-14 0)
(8.43769e-15 -9.0044e-14 0)
(8.21565e-15 -9.00257e-14 0)
(8.21565e-15 -9.00132e-14 0)
(8.21565e-15 -9.0043e-14 0)
(8.88178e-15 -9.00345e-14 0)
(8.65974e-15 -8.99917e-14 0)
(8.65974e-15 -8.99762e-14 0)
(8.43769e-15 -9.00244e-14 0)
(8.65974e-15 -9.00097e-14 0)
(8.65974e-15 -8.99824e-14 0)
(8.99281e-15 -9.00399e-14 0)
(9.10383e-15 -9.00832e-14 0)
(8.99281e-15 -9.00621e-14 0)
(-5.32907e-15 -8.44698e-14 0)
(1.09912e-14 -9.07961e-14 0)
(7.10543e-15 -8.97238e-14 0)
(8.88178e-15 -8.98878e-14 0)
(8.65974e-15 -8.98422e-14 0)
(8.43769e-15 -8.98314e-14 0)
(7.99361e-15 -8.98269e-14 0)
(8.43769e-15 -8.98793e-14 0)
(8.43769e-15 -8.99133e-14 0)
(8.65974e-15 -9.01874e-14 0)
(8.88178e-15 -9.0381e-14 0)
(8.65974e-15 -9.01804e-14 0)
(8.43769e-15 -9.00151e-14 0)
(8.43769e-15 -9.00712e-14 0)
(8.65974e-15 -9.01094e-14 0)
(8.65974e-15 -9.00949e-14 0)
(8.65974e-15 -9.01106e-14 0)
(8.88178e-15 -9.01204e-14 0)
(8.65974e-15 -9.00854e-14 0)
(8.88178e-15 -9.00366e-14 0)
(1.64313e-14 -1.29068e-13 0)
(7.99361e-15 -8.18737e-14 0)
(9.99201e-15 -9.20595e-14 0)
(8.88178e-15 -8.96966e-14 0)
(9.10383e-15 -9.00291e-14 0)
(9.21485e-15 -8.98849e-14 0)
(9.32587e-15 -8.99172e-14 0)
(9.10383e-15 -9.00078e-14 0)
(9.21485e-15 -9.00965e-14 0)
(9.32587e-15 -9.02058e-14 0)
(9.4369e-15 -9.01559e-14 0)
(9.21485e-15 -9.00248e-14 0)
(8.99281e-15 -8.99781e-14 0)
(9.21485e-15 -8.99769e-14 0)
(9.21485e-15 -8.99851e-14 0)
(8.88178e-15 -9.00562e-14 0)
(8.88178e-15 -9.0109e-14 0)
(8.99281e-15 -9.01487e-14 0)
(8.99281e-15 -9.0166e-14 0)
(9.10383e-15 -9.00807e-14 0)
(3.77476e-15 -3.4968e-14 0)
(1.06581e-14 -1.01469e-13 0)
(8.43769e-15 -8.72763e-14 0)
(8.65974e-15 -9.04449e-14 0)
(8.43769e-15 -8.97551e-14 0)
(8.65974e-15 -8.99189e-14 0)
(8.99281e-15 -8.99257e-14 0)
(8.88178e-15 -9.00822e-14 0)
(8.99281e-15 -9.00933e-14 0)
(8.88178e-15 -9.00429e-14 0)
(8.43769e-15 -8.99872e-14 0)
(8.43769e-15 -9.0013e-14 0)
(8.65974e-15 -9.00291e-14 0)
(8.65974e-15 -9.00177e-14 0)
(8.88178e-15 -9.00106e-14 0)
(8.99281e-15 -9.01014e-14 0)
(9.10383e-15 -9.0163e-14 0)
(8.88178e-15 -9.00844e-14 0)
(8.88178e-15 -9.00555e-14 0)
(8.88178e-15 -9.00482e-14 0)
(1.37668e-14 -1.27308e-13 0)
(7.32747e-15 -8.21219e-14 0)
(8.43769e-15 -9.16758e-14 0)
(8.65974e-15 -8.95302e-14 0)
(8.65974e-15 -9.00935e-14 0)
(8.99281e-15 -9.00242e-14 0)
(8.99281e-15 -9.00252e-14 0)
(9.10383e-15 -9.00155e-14 0)
(8.99281e-15 -9.00091e-14 0)
(8.99281e-15 -8.99357e-14 0)
(9.21485e-15 -9.00238e-14 0)
(8.88178e-15 -9.01882e-14 0)
(9.21485e-15 -9.02317e-14 0)
(9.32587e-15 -9.0161e-14 0)
(9.10383e-15 -9.01223e-14 0)
(9.21485e-15 -9.01256e-14 0)
(8.99281e-15 -9.01408e-14 0)
(8.99281e-15 -9.00456e-14 0)
(8.99281e-15 -8.99553e-14 0)
(9.10383e-15 -8.99627e-14 0)
(4.21885e-15 -9.83457e-14 0)
(1.07692e-14 -8.79034e-14 0)
(9.4369e-15 -9.01779e-14 0)
(9.21485e-15 -8.98205e-14 0)
(9.21485e-15 -9.01472e-14 0)
(8.88178e-15 -9.02273e-14 0)
(8.88178e-15 -9.03148e-14 0)
(9.32587e-15 -9.0195e-14 0)
(9.4369e-15 -9.01051e-14 0)
(9.32587e-15 -8.99965e-14 0)
(9.21485e-15 -9.00107e-14 0)
(9.21485e-15 -9.01004e-14 0)
(8.99281e-15 -9.01104e-14 0)
(9.21485e-15 -9.00803e-14 0)
(9.10383e-15 -8.99973e-14 0)
(9.10383e-15 -9.00359e-14 0)
(8.88178e-15 -9.00733e-14 0)
(8.65974e-15 -9.00659e-14 0)
(8.88178e-15 -8.99626e-14 0)
(8.88178e-15 -8.98833e-14 0)
(3.10862e-15 -3.65927e-14 0)
(9.32587e-15 -1.00446e-13 0)
(7.77156e-15 -8.74748e-14 0)
(8.88178e-15 -9.04697e-14 0)
(8.99281e-15 -8.9857e-14 0)
(8.88178e-15 -9.00498e-14 0)
(8.65974e-15 -9.02021e-14 0)
(8.65974e-15 -9.02139e-14 0)
(8.21565e-15 -9.00677e-14 0)
(8.65974e-15 -8.99566e-14 0)
(8.99281e-15 -8.99299e-14 0)
(8.88178e-15 -9.00384e-14 0)
(8.65974e-15 -9.01899e-14 0)
(8.43769e-15 -9.02915e-14 0)
(8.65974e-15 -9.02005e-14 0)
(8.99281e-15 -9.00144e-14 0)
(8.99281e-15 -8.99445e-14 0)
(8.88178e-15 -8.99026e-14 0)
(8.65974e-15 -8.99871e-14 0)
(8.65974e-15 -8.9996e-14 0)
(1.65423e-14 -1.06786e-13 0)
(6.66134e-15 -8.74921e-14 0)
(8.43769e-15 -9.08218e-14 0)
(8.88178e-15 -9.00616e-14 0)
(8.65974e-15 -9.00027e-14 0)
(8.43769e-15 -8.99611e-14 0)
(8.43769e-15 -9.00004e-14 0)
(8.65974e-15 -9.01402e-14 0)
(8.65974e-15 -9.02306e-14 0)
(8.43769e-15 -9.02562e-14 0)
(8.88178e-15 -9.00992e-14 0)
(8.88178e-15 -9.00367e-14 0)
(9.10383e-15 -9.00955e-14 0)
(8.88178e-15 -9.01735e-14 0)
(8.65974e-15 -9.0188e-14 0)
(8.43769e-15 -9.00473e-14 0)
(8.43769e-15 -9.00085e-14 0)
(8.65974e-15 -8.99912e-14 0)
(8.88178e-15 -9.00508e-14 0)
(8.88178e-15 -9.01249e-14 0)
(7.54952e-15 -1.63123e-13 0)
(1.05471e-14 -7.48577e-14 0)
(1.02141e-14 -9.36211e-14 0)
(9.4369e-15 -8.93098e-14 0)
(9.76996e-15 -9.02265e-14 0)
(9.54792e-15 -9.00685e-14 0)
(9.65894e-15 -9.0117e-14 0)
(9.54792e-15 -9.01383e-14 0)
(9.54792e-15 -9.02015e-14 0)
(9.32587e-15 -9.02797e-14 0)
(8.99281e-15 -9.01809e-14 0)
(8.99281e-15 -9.0067e-14 0)
(8.88178e-15 -8.99686e-14 0)
(8.99281e-15 -8.99698e-14 0)
(8.88178e-15 -8.99932e-14 0)
(9.10383e-15 -9.0056e-14 0)
(8.99281e-15 -9.01164e-14 0)
(8.99281e-15 -9.01533e-14 0)
(8.88178e-15 -9.00992e-14 0)
(8.99281e-15 -9.00938e-14 0)
)
;

boundaryField
{
    movingWall
    {
        type            calculated;
        value           uniform (8.88178e-15 -9.00596e-14 0);
    }
    fixedWalls
    {
        type            calculated;
        value           uniform (8.88178e-15 -9.00596e-14 0);
    }
    frontAndBack
    {
        type            empty;
    }
}


// ************************************************************************* //
