/*--------------------------------*- C++ -*----------------------------------*\
| =========                 |                                                 |
| \\      /  F ield         | OpenFOAM: The Open Source CFD Toolbox           |
|  \\    /   O peration     | Version:  2506                                  |
|   \\  /    A nd           | Website:  www.openfoam.com                      |
|    \\/     M anipulation  |                                                 |
\*---------------------------------------------------------------------------*/
FoamFile
{
    version     2.0;
    format      ascii;
    arch        "LSB;label=32;scalar=64";
    class       volScalarField;
    location    "5.75";
    object      divPhi;
}
// * * * * * * * * * * * * * * * * * * * * * * * * * * * * * * * * * * * * * //

dimensions      [0 0 -1 0 0 0 0];

internalField   nonuniform List<scalar> 
400
(
2.71051e-13
-7.13076e-15
5.47372e-15
1.07256e-14
-1.04165e-15
-1.94521e-14
-1.45041e-15
2.36109e-14
-1.82343e-14
1.60991e-14
-3.74958e-15
-3.54174e-16
-2.16834e-15
-9.08995e-16
-1.07199e-14
8.56109e-16
9.93668e-15
-4.39362e-15
-4.01909e-15
0
0
-2.96049e-14
2.09009e-14
2.00307e-14
8.32906e-15
-4.77548e-15
-3.56835e-15
-1.92251e-16
4.94735e-15
-3.46655e-14
3.64193e-15
-1.85861e-14
2.26139e-14
3.86073e-15
-2.21284e-14
-8.54097e-16
-1.5725e-15
2.52059e-15
5.96576e-15
0
2.71051e-14
5.72401e-15
3.27646e-15
-1.11415e-14
1.72698e-14
-3.43167e-14
-8.48949e-15
1.11089e-14
6.53902e-15
-2.88399e-14
6.94908e-15
-1.64143e-14
1.80328e-14
-2.64005e-14
1.11604e-14
2.39659e-14
-2.32441e-14
-1.90632e-14
1.05767e-14
-2.71051e-14
-2.71051e-14
-9.47603e-15
1.35353e-14
-1.70072e-15
-1.23271e-14
-1.37072e-15
-2.33314e-14
1.80888e-14
1.90648e-14
-1.58105e-14
3.09078e-14
-2.47271e-14
2.85455e-15
-4.8583e-15
2.45354e-14
2.48433e-16
8.33897e-15
1.49492e-14
-5.36111e-15
0
0
-5.46994e-15
8.74444e-15
-1.09419e-14
-2.97824e-14
2.81706e-15
1.71999e-14
-1.89992e-14
-1.68942e-14
1.44874e-14
2.03405e-15
2.56278e-15
1.59668e-14
-1.24033e-15
-8.70984e-15
3.02596e-14
-2.84715e-15
-1.24754e-14
1.93074e-14
0
0
4.9623e-15
-1.14151e-14
2.35165e-14
-2.41297e-14
-7.23251e-15
-8.70182e-15
2.24639e-15
2.81142e-14
-3.42317e-14
8.98672e-15
7.27739e-15
-2.51969e-15
1.29781e-14
-1.68456e-14
2.8118e-14
-3.28589e-14
-1.94071e-14
3.71857e-15
2.71051e-14
0
9.81287e-15
-2.42169e-14
3.13626e-15
-1.76702e-14
4.70048e-15
-2.53135e-14
1.88858e-15
1.97031e-14
-8.67782e-15
1.84419e-15
3.68964e-15
1.71747e-15
9.31059e-15
-7.35205e-15
-8.86955e-15
6.33205e-15
4.45715e-16
1.4519e-14
-2.71051e-14
0
-1.03664e-14
5.82643e-15
-4.41163e-15
5.74585e-16
1.94475e-14
1.66619e-14
-2.77959e-14
5.39631e-15
-3.86586e-14
9.64183e-15
5.82272e-15
-1.62959e-14
1.87055e-14
-1.57331e-14
-2.41494e-14
1.94212e-14
-2.70649e-14
-7.66424e-15
0
0
-2.03204e-15
-4.2762e-15
4.83802e-15
1.46822e-14
-1.85298e-14
-2.47643e-14
3.11968e-14
1.78168e-14
-5.63677e-16
-2.99966e-15
-1.66571e-14
3.44521e-14
-1.20042e-14
5.82775e-15
2.39668e-14
-2.91685e-14
-1.02382e-14
1.16394e-14
0
2.71051e-14
-6.69998e-15
-3.7228e-15
-1.14002e-14
-1.4426e-14
1.82193e-14
-2.80303e-15
2.34257e-14
-1.00412e-14
-2.1622e-14
1.73776e-15
1.06478e-14
9.57323e-15
-1.40297e-14
-7.92884e-15
1.82e-14
8.52986e-15
-2.79545e-14
1.65445e-14
0
-2.71051e-14
-8.33932e-15
-5.78037e-15
-1.63614e-14
3.153e-14
-1.83789e-14
-6.08853e-15
-1.95151e-14
4.11348e-15
7.47626e-15
-1.02853e-14
2.15927e-14
1.02693e-14
9.22543e-16
-2.90606e-15
7.39363e-15
1.26427e-15
-8.04524e-15
-1.11866e-14
-2.71051e-14
0
-1.68208e-14
8.73612e-16
-1.42124e-15
6.89691e-15
-1.73692e-14
4.75419e-15
4.61002e-15
8.45902e-15
-1.65072e-15
-2.49624e-14
-2.81584e-15
1.55222e-14
6.19964e-15
2.34291e-15
2.50104e-14
-1.33897e-14
-1.72011e-14
3.43493e-15
2.71051e-14
2.71051e-14
3.43388e-14
-2.20079e-14
1.21608e-14
-1.69624e-14
2.04356e-14
3.42637e-15
-1.53326e-14
1.20679e-14
8.31571e-15
-8.02159e-15
2.29965e-14
-1.42306e-14
7.05673e-15
2.43713e-14
-3.03455e-15
1.74014e-15
2.10391e-14
5.17771e-15
0
0
-1.07157e-14
2.0702e-14
-1.47032e-14
2.47815e-14
6.52468e-15
-1.29092e-14
1.33878e-14
1.65495e-14
-3.44202e-15
1.45769e-14
-1.51875e-14
1.57256e-14
2.16018e-14
-7.78988e-15
2.34081e-15
-1.61364e-14
-1.59149e-14
2.03643e-14
-2.71051e-14
0
8.66326e-15
-3.8696e-14
1.83687e-14
4.31991e-15
8.61246e-15
-2.23611e-14
2.11078e-14
-2.33252e-14
-1.54857e-15
-6.27744e-15
1.59288e-14
-1.31742e-14
-1.18731e-14
-1.43601e-15
-1.0375e-14
6.76336e-15
1.99766e-15
9.34146e-15
0
2.71051e-14
1.2269e-14
-9.95289e-15
2.9327e-15
9.06788e-15
1.36785e-14
-1.09e-14
5.54203e-15
-8.53214e-16
-9.94609e-15
-1.76352e-14
1.5756e-14
-3.94936e-15
-4.15208e-14
-4.31248e-15
-9.77174e-15
-9.51229e-15
-3.15045e-15
2.68011e-14
0
-2.71051e-14
3.10729e-14
-1.16469e-14
-1.7018e-14
-2.07593e-15
-4.39971e-15
-3.16384e-14
7.42318e-15
-7.02215e-15
-5.89667e-15
-1.08702e-14
-1.89323e-14
5.97225e-15
1.28963e-15
6.59607e-17
-1.67911e-14
-1.28069e-14
1.61042e-14
-2.2511e-14
0
0
7.09893e-15
-2.46323e-14
-1.66101e-14
1.01794e-14
6.06641e-15
5.8521e-15
5.93826e-15
7.5691e-16
-1.98669e-14
1.39241e-14
2.97314e-14
-4.99813e-16
-6.6098e-15
6.88624e-15
2.79554e-14
-4.51572e-14
-2.52642e-14
-7.19246e-15
2.71051e-14
0
7.94634e-15
-1.24322e-14
-9.57556e-17
-2.25897e-15
4.89624e-15
2.55294e-14
1.7885e-14
9.19855e-15
-1.15758e-14
4.35384e-16
-1.32063e-14
-4.23407e-15
-2.3659e-16
1.2258e-14
-2.19936e-14
2.93963e-14
-7.64075e-15
-4.99178e-15
-2.71051e-14
0
0
0
-2.71051e-14
0
-2.71051e-14
0
0
0
-2.71051e-14
0
0
-2.71051e-14
2.71051e-14
0
0
0
0
0
0
)
;

boundaryField
{
    movingWall
    {
        type            extrapolatedCalculated;
        value           nonuniform List<scalar> 
20
(
0
0
0
-2.71051e-14
0
-2.71051e-14
0
0
0
-2.71051e-14
0
0
-2.71051e-14
2.71051e-14
0
0
0
0
0
0
)
;
    }
    fixedWalls
    {
        type            extrapolatedCalculated;
        value           nonuniform List<scalar> 
60
(
2.71051e-13
0
2.71051e-14
-2.71051e-14
0
0
0
0
0
2.71051e-14
-2.71051e-14
0
2.71051e-14
0
0
2.71051e-14
-2.71051e-14
0
0
0
0
0
-2.71051e-14
0
0
2.71051e-14
-2.71051e-14
0
0
0
-2.71051e-14
2.71051e-14
0
-2.71051e-14
0
0
0
2.71051e-14
-2.71051e-14
0
2.71051e-13
-7.13076e-15
5.47372e-15
1.07256e-14
-1.04165e-15
-1.94521e-14
-1.45041e-15
2.36109e-14
-1.82343e-14
1.60991e-14
-3.74958e-15
-3.54174e-16
-2.16834e-15
-9.08995e-16
-1.07199e-14
8.56109e-16
9.93668e-15
-4.39362e-15
-4.01909e-15
0
)
;
    }
    frontAndBack
    {
        type            empty;
    }
}


// ************************************************************************* //
