/*--------------------------------*- C++ -*----------------------------------*\
| =========                 |                                                 |
| \\      /  F ield         | OpenFOAM: The Open Source CFD Toolbox           |
|  \\    /   O peration     | Version:  2506                                  |
|   \\  /    A nd           | Website:  www.openfoam.com                      |
|    \\/     M anipulation  |                                                 |
\*---------------------------------------------------------------------------*/
FoamFile
{
    version     2.0;
    format      ascii;
    arch        "LSB;label=32;scalar=64";
    class       volScalarField;
    location    "5.75";
    object      divU;
}
// * * * * * * * * * * * * * * * * * * * * * * * * * * * * * * * * * * * * * //

dimensions      [0 0 -1 0 0 0 0];

internalField   nonuniform List<scalar> 
400
(
1.17636e-11
-1.47081e-12
3.39648e-13
-1.32234e-13
2.24658e-14
5.31269e-15
-1.95474e-14
2.90392e-14
2.23636e-14
-6.17226e-14
-7.5139e-15
3.48005e-14
7.87069e-15
-3.72975e-15
-2.54859e-14
-3.33943e-14
5.7873e-14
-4.48537e-15
-1.71071e-14
0
-1.85128e-11
2.45714e-12
-5.70575e-13
1.77913e-13
7.95937e-15
2.01109e-14
-4.25147e-14
-1.15899e-16
-2.44427e-14
6.58141e-14
-1.79979e-14
7.47911e-15
-3.69338e-14
-5.81859e-15
3.22214e-14
-3.27139e-14
6.22153e-14
-7.1801e-14
-3.145e-15
2.71051e-14
3.44234e-12
-3.91176e-13
4.27919e-14
-3.15644e-14
1.65763e-14
-3.76895e-15
1.618e-14
9.94596e-15
-1.66281e-14
-5.78303e-15
-5.70097e-15
4.73823e-15
-5.60759e-15
1.43121e-14
-8.68162e-15
2.91564e-14
-1.34288e-15
-5.31924e-14
-1.54875e-14
5.42101e-14
9.32414e-12
-1.45425e-12
3.09964e-13
-1.105e-13
2.46637e-14
-2.36057e-14
1.81279e-14
-7.9867e-15
-2.5659e-14
9.36078e-15
5.41458e-14
1.10671e-14
-3.25049e-14
-4.65919e-14
-4.54155e-15
1.11386e-14
1.24305e-14
8.70351e-15
-5.94937e-15
-2.71051e-14
-1.11402e-11
1.92588e-12
-2.92303e-13
1.31031e-13
-4.58715e-14
-1.07523e-14
4.8463e-15
-5.11683e-14
5.00155e-14
1.50318e-14
-7.18197e-14
-2.22454e-15
-7.16793e-15
9.66664e-14
-5.96207e-15
-3.48786e-14
1.97668e-14
4.35689e-14
-7.64808e-15
2.71051e-14
6.77626e-12
-1.2629e-12
2.67992e-13
-1.50667e-13
3.96398e-14
5.76618e-15
2.27728e-14
3.12285e-15
-9.41999e-15
-3.53987e-14
4.39766e-14
8.79153e-16
2.62211e-15
-2.39346e-14
-1.84293e-14
4.22167e-15
-4.31114e-15
-9.7871e-15
3.56473e-14
-5.42101e-14
2.57498e-12
-3.21547e-13
1.54061e-14
-2.76703e-14
1.7203e-14
7.97812e-16
-1.95504e-14
-1.68637e-14
5.69993e-14
-1.09687e-14
-5.98037e-14
4.71463e-14
3.83327e-18
-1.60025e-14
9.08545e-15
-1.68151e-14
7.8018e-15
-2.47951e-14
3.26194e-14
-2.71051e-14
-8.86335e-12
1.67134e-12
-2.99758e-13
2.07936e-13
-7.60452e-14
1.4606e-14
-1.99067e-14
-2.39173e-15
-1.46487e-14
-5.70049e-15
3.41408e-14
-6.93455e-14
-2.41065e-14
-8.10952e-15
5.35664e-14
1.4448e-14
1.98347e-14
-3.81845e-14
5.35234e-14
0
5.77338e-12
-1.32702e-12
2.01803e-13
-1.33279e-13
5.87183e-14
-1.19308e-14
1.42819e-14
2.43655e-14
-2.23454e-14
3.46086e-16
3.88027e-14
2.18887e-14
1.28352e-14
1.65235e-14
-2.51009e-14
-1.25852e-14
-1.4965e-14
-3.78832e-14
1.1898e-14
-2.71051e-14
-2.98156e-13
1.01614e-13
-8.55711e-15
1.34987e-14
-1.40238e-14
-1.61556e-14
-7.78305e-14
4.57394e-14
1.16339e-14
-2.91754e-14
4.36543e-15
-9.05004e-15
5.57025e-15
-1.31923e-14
-6.72597e-15
5.43329e-14
3.00632e-14
-1.66802e-14
1.02287e-14
-2.71051e-14
-2.81893e-12
1.40631e-12
-3.04957e-13
1.50592e-13
2.22636e-14
1.44619e-14
1.56837e-14
4.82763e-14
2.7462e-14
1.78628e-14
-3.64163e-14
-2.73744e-14
1.96178e-14
-2.71362e-14
-3.64637e-15
-2.52566e-14
-4.35708e-14
5.6729e-15
5.04817e-14
0
5.28549e-12
-2.28694e-12
3.75759e-13
-2.42039e-13
4.5472e-14
-4.12908e-14
-6.08564e-14
1.96006e-14
-3.61795e-14
-3.5237e-14
-3.37267e-15
1.75446e-14
1.12515e-14
7.18024e-15
-1.44964e-15
1.46751e-15
5.68354e-14
5.01004e-14
-3.20402e-14
-2.71051e-14
-7.20994e-12
2.47967e-12
-5.18764e-13
2.43222e-13
-8.36249e-14
-1.39188e-14
1.04119e-14
5.0326e-14
-1.61554e-14
-2.95521e-16
-1.46635e-14
-3.56968e-14
1.26125e-14
7.11352e-15
2.95831e-14
-3.19035e-15
-1.00325e-14
-1.49914e-14
4.09947e-14
0
5.61075e-12
-1.70474e-12
3.22294e-13
-1.37746e-13
3.35064e-14
4.44012e-15
5.35434e-16
-2.4176e-14
2.00506e-14
1.41533e-14
5.18259e-14
-1.89599e-14
1.12061e-14
1.24687e-14
-1.47506e-14
-3.09412e-14
-1.52682e-14
4.28261e-14
1.68763e-14
-5.42101e-14
-1.6263e-13
4.65952e-13
-1.81437e-13
4.15271e-14
-2.71411e-14
7.18251e-14
-1.02659e-14
2.15309e-15
2.87916e-14
-6.72485e-14
-1.62774e-14
-8.19301e-15
1.29442e-14
4.82673e-14
-1.36194e-15
1.63317e-14
8.65369e-15
-2.81734e-14
1.0848e-14
0
-6.01732e-12
8.46768e-13
-1.73441e-13
7.68629e-14
1.49581e-14
-1.32225e-14
-2.20706e-14
-3.62357e-14
5.06589e-16
1.87067e-14
-1.86334e-14
-1.69336e-14
3.19247e-14
-1.22052e-14
-3.15017e-17
-4.2201e-15
-9.48461e-15
7.81667e-16
4.72466e-14
-2.71051e-14
8.80914e-12
-1.3109e-12
2.46656e-13
-1.25515e-13
1.15053e-14
-6.9992e-14
4.1548e-14
2.52472e-14
-3.24534e-14
-1.04961e-14
-9.24532e-15
2.51491e-14
9.00045e-15
-2.52503e-14
-7.85232e-15
-2.02093e-14
-1.69603e-14
1.50771e-14
-1.01468e-14
0
-1.38236e-12
5.19155e-13
-1.4299e-13
1.21422e-13
2.59611e-14
3.79413e-14
-3.54348e-14
-2.34826e-14
-1.78945e-14
4.48508e-14
9.01004e-15
-7.68971e-14
-1.66199e-14
-7.46205e-15
5.43927e-14
3.28527e-14
1.66207e-14
-3.1669e-14
-7.31814e-14
2.71051e-14
-1.2116e-11
1.74984e-12
-4.05257e-13
1.2899e-13
-6.52039e-14
8.9696e-15
2.72925e-14
1.11829e-14
-3.12814e-14
-1.45636e-14
3.81211e-14
2.8662e-14
3.26141e-14
-2.39967e-15
-6.04027e-14
1.5926e-15
-2.76726e-14
5.16842e-14
-3.07387e-15
0
9.02598e-12
-1.54499e-12
3.25261e-13
-1.0842e-13
0
-2.71051e-14
0
2.71051e-14
0
0
0
0
0
-2.71051e-14
2.71051e-14
0
0
-2.71051e-14
2.71051e-14
-2.71051e-14
)
;

boundaryField
{
    movingWall
    {
        type            extrapolatedCalculated;
        value           nonuniform List<scalar> 
20
(
9.02598e-12
-1.54499e-12
3.25261e-13
-1.0842e-13
0
-2.71051e-14
0
2.71051e-14
0
0
0
0
0
-2.71051e-14
2.71051e-14
0
0
-2.71051e-14
2.71051e-14
-2.71051e-14
)
;
    }
    fixedWalls
    {
        type            extrapolatedCalculated;
        value           nonuniform List<scalar> 
60
(
1.17636e-11
-1.85128e-11
3.44234e-12
9.32414e-12
-1.11402e-11
6.77626e-12
2.57498e-12
-8.86335e-12
5.77338e-12
-2.98156e-13
-2.81893e-12
5.28549e-12
-7.20994e-12
5.61075e-12
-1.6263e-13
-6.01732e-12
8.80914e-12
-1.38236e-12
-1.2116e-11
9.02598e-12
0
2.71051e-14
5.42101e-14
-2.71051e-14
2.71051e-14
-5.42101e-14
-2.71051e-14
0
-2.71051e-14
-2.71051e-14
0
-2.71051e-14
0
-5.42101e-14
0
-2.71051e-14
0
2.71051e-14
0
-2.71051e-14
1.17636e-11
-1.47081e-12
3.39648e-13
-1.32234e-13
2.24658e-14
5.31269e-15
-1.95474e-14
2.90392e-14
2.23636e-14
-6.17226e-14
-7.5139e-15
3.48005e-14
7.87069e-15
-3.72975e-15
-2.54859e-14
-3.33943e-14
5.7873e-14
-4.48537e-15
-1.71071e-14
0
)
;
    }
    frontAndBack
    {
        type            empty;
    }
}


// ************************************************************************* //
