/*--------------------------------*- C++ -*----------------------------------*\
| =========                 |                                                 |
| \\      /  F ield         | OpenFOAM: The Open Source CFD Toolbox           |
|  \\    /   O peration     | Version:  2506                                  |
|   \\  /    A nd           | Website:  www.openfoam.com                      |
|    \\/     M anipulation  |                                                 |
\*---------------------------------------------------------------------------*/
FoamFile
{
    version     2.0;
    format      ascii;
    arch        "LSB;label=32;scalar=64";
    class       volScalarField;
    location    "5.75";
    object      enstrophyField;
}
// * * * * * * * * * * * * * * * * * * * * * * * * * * * * * * * * * * * * * //

dimensions      [0 0 -2 0 0 0 0];

internalField   nonuniform List<scalar> 
400
(
1.98604e-23
3.56886e-23
1.44029e-24
1.11406e-25
5.7144e-28
1.38828e-27
6.50356e-32
1.68543e-28
2.61557e-28
1.844e-29
3.54571e-28
5.63715e-29
2.74172e-29
1.6985e-28
1.76021e-27
2.53627e-27
7.17369e-29
7.33297e-29
6.335e-32
1.39025e-29
2.51441e-24
3.62152e-24
2.83247e-25
1.92161e-27
1.71227e-26
4.23154e-27
3.00902e-27
6.55295e-27
2.2393e-26
9.63629e-27
2.37655e-27
1.41021e-27
1.03392e-26
1.60363e-27
1.88617e-28
8.85071e-28
8.87532e-29
3.7495e-29
1.60339e-27
2.29539e-27
1.88006e-23
4.48425e-23
2.64511e-24
6.82568e-26
4.98497e-26
6.65443e-27
1.1554e-26
1.13431e-26
2.57673e-26
3.05534e-27
2.66944e-27
4.91523e-27
2.87151e-27
2.36622e-27
5.05293e-27
4.10086e-27
8.99227e-31
4.37949e-28
1.51605e-27
2.30657e-28
1.06801e-23
2.08993e-23
9.6011e-25
7.82866e-26
1.03022e-27
2.11306e-28
2.88183e-28
4.4094e-29
5.3341e-28
5.06395e-27
3.08297e-28
2.60187e-27
1.25845e-27
2.43648e-27
2.76494e-27
7.07753e-28
2.81966e-30
7.51137e-28
3.63747e-28
4.57387e-29
5.85684e-25
7.68041e-25
3.34922e-26
1.3547e-26
2.35351e-27
8.45706e-28
7.83955e-29
3.95857e-28
8.82184e-30
6.62416e-28
1.60999e-31
7.383e-30
2.80516e-29
5.67137e-29
2.80215e-28
3.77855e-28
1.82163e-33
2.07658e-28
4.24516e-30
4.54837e-29
3.83426e-24
7.47385e-24
3.45533e-25
1.80973e-26
2.80245e-27
1.53372e-28
8.09522e-31
6.91112e-28
7.22748e-28
1.70131e-27
2.51333e-27
5.18378e-27
6.10063e-27
7.02835e-29
2.74686e-29
1.55116e-30
4.47374e-28
5.61829e-28
1.20208e-29
8.03335e-31
1.00164e-23
1.50345e-23
8.35939e-25
5.6881e-26
2.35773e-27
3.85091e-28
8.66053e-27
1.75206e-27
1.44229e-27
3.58056e-27
3.34412e-28
5.56501e-28
3.66758e-27
1.17165e-27
2.15163e-28
1.26079e-28
1.26462e-28
2.07203e-29
4.15269e-27
1.10938e-28
1.60086e-24
1.45328e-24
5.16837e-26
2.66027e-26
2.32693e-27
9.6425e-28
8.92351e-29
2.56072e-27
3.84671e-27
7.66746e-27
1.76171e-27
1.43385e-27
9.5716e-29
2.20655e-27
1.53913e-29
1.47286e-28
5.1889e-30
6.41892e-28
2.07372e-27
5.07597e-28
2.26499e-24
3.12557e-24
2.50786e-25
5.14811e-27
9.99454e-28
7.471e-29
5.28764e-30
7.68365e-28
2.04262e-27
2.17041e-28
7.83982e-29
1.29195e-27
1.12338e-27
1.97122e-27
1.44658e-28
7.08443e-28
4.1325e-28
6.95788e-29
8.30373e-28
2.72922e-28
1.10755e-23
7.18659e-24
3.80159e-25
3.68997e-26
1.28945e-27
3.5083e-27
4.60579e-27
8.83804e-27
2.34776e-27
5.80532e-27
1.02104e-27
1.23477e-27
1.39209e-27
1.91613e-27
1.94078e-27
1.44773e-27
4.66833e-28
7.47279e-28
4.13691e-28
2.53926e-29
1.00913e-23
5.15044e-24
3.17961e-25
1.24463e-26
5.47196e-28
5.8659e-28
1.13205e-29
5.34008e-28
2.80682e-27
2.69225e-27
7.2999e-28
3.58077e-27
1.56077e-29
1.10904e-27
1.36392e-29
9.73526e-28
1.86425e-27
9.17589e-30
5.45379e-31
4.03132e-28
1.70397e-24
2.18589e-24
1.20247e-25
5.16166e-27
1.44286e-29
5.93908e-27
4.30432e-27
6.56922e-27
3.56148e-27
3.16673e-27
3.13501e-27
1.76091e-27
3.79673e-27
1.2973e-27
5.58875e-30
1.70593e-27
4.58069e-30
6.91508e-28
2.46304e-30
3.40386e-30
1.31828e-24
2.18407e-25
2.5617e-26
7.01269e-29
5.3614e-28
1.38786e-27
5.0853e-28
6.38531e-28
6.2866e-27
1.2043e-26
9.08849e-27
6.69579e-28
1.31052e-28
2.02493e-27
3.50156e-27
1.47621e-27
1.61088e-27
3.18365e-30
3.51643e-29
3.61756e-32
8.01514e-24
7.05012e-24
4.2119e-25
2.06118e-26
1.77394e-28
6.26829e-29
7.28476e-27
4.92544e-27
2.73922e-27
5.46053e-28
2.61478e-27
1.58181e-28
1.22118e-27
3.86729e-28
6.13882e-28
7.66882e-29
6.60868e-28
2.28954e-28
2.31814e-29
8.11864e-29
1.08874e-23
1.33987e-23
7.6629e-25
1.87536e-26
5.70435e-27
1.45567e-28
5.80282e-29
1.40424e-28
4.81452e-28
2.10096e-27
4.47399e-30
1.25069e-27
3.8009e-28
1.71942e-30
1.75493e-28
2.41153e-27
3.22637e-28
5.77348e-29
2.75936e-28
1.20424e-30
4.53717e-24
6.34823e-24
3.37959e-25
5.40985e-27
8.54432e-27
2.33437e-29
3.91307e-28
3.25101e-28
1.82733e-28
1.5502e-27
3.15703e-27
8.34793e-27
2.974e-28
9.35955e-28
2.77658e-28
1.71373e-30
1.93519e-27
1.72119e-28
6.26269e-28
2.02548e-28
9.86183e-26
1.79964e-25
9.45281e-27
1.30786e-27
2.29721e-27
1.4039e-28
5.18961e-30
1.15566e-27
2.74241e-27
6.6763e-28
5.39699e-29
4.96478e-29
1.58046e-27
4.28965e-27
1.72022e-27
2.88934e-29
4.50126e-30
2.13091e-27
1.66571e-28
2.63493e-32
4.76887e-24
1.08323e-23
5.82058e-25
1.69292e-26
4.6272e-27
1.93931e-28
2.10681e-27
4.48999e-27
5.72851e-27
7.46546e-27
1.0596e-27
3.97916e-28
3.20202e-28
1.41262e-27
3.3547e-27
8.98056e-27
2.13805e-27
9.06976e-30
4.35987e-29
9.26835e-29
1.71049e-24
1.06715e-24
1.12238e-25
3.83565e-28
9.74821e-28
3.2878e-27
1.17721e-26
8.63726e-27
1.08228e-26
2.32443e-27
1.32731e-29
6.83163e-32
8.31667e-28
4.10061e-27
8.65122e-28
6.57607e-28
1.5746e-29
1.7075e-27
8.93927e-29
2.30179e-28
1.33268e-23
2.37772e-23
9.30115e-25
7.74883e-26
2.34486e-28
7.24324e-28
1.11555e-27
1.0467e-27
8.02502e-28
2.12149e-30
1.17021e-27
2.25321e-28
6.7813e-28
3.03783e-28
3.71663e-29
7.58805e-29
2.04419e-27
1.48185e-30
1.77311e-29
5.94154e-28
)
;

boundaryField
{
    movingWall
    {
        type            calculated;
        value           nonuniform List<scalar> 
20
(
1.99652e-23
2.90041e-23
4.16155e-25
1.57644e-25
3.90337e-26
3.8478e-26
4.61736e-26
3.32812e-26
3.18291e-26
1.61452e-26
2.15705e-27
2.15412e-27
4.72622e-29
8.80015e-28
3.71663e-29
2.92603e-27
6.01302e-28
1.06401e-27
1.77311e-29
1.34036e-27
)
;
    }
    fixedWalls
    {
        type            calculated;
        value           nonuniform List<scalar> 
60
(
6.18943e-22
7.90942e-23
8.29405e-22
3.76558e-22
1.08084e-23
1.38063e-22
2.73762e-22
2.50956e-23
6.27859e-23
1.42905e-22
1.02075e-22
3.78644e-23
5.69307e-24
1.36534e-22
2.49421e-22
1.12209e-22
2.54777e-24
2.03354e-22
2.53779e-23
4.09035e-22
5.24702e-30
2.06688e-27
1.73082e-32
3.4076e-28
9.73949e-30
4.76919e-30
9.14719e-30
8.89589e-28
5.97512e-29
2.06332e-29
7.11962e-28
4.93768e-31
4.25216e-29
3.53354e-29
1.03928e-29
7.51348e-28
9.42231e-28
3.23844e-28
4.83972e-31
8.30358e-28
5.7196e-23
5.24745e-23
8.9038e-25
4.10705e-25
4.85671e-26
7.25269e-26
6.29808e-26
4.56374e-26
7.09924e-26
3.71353e-26
6.66407e-27
1.03457e-26
2.30351e-26
6.58904e-27
7.7169e-28
3.09877e-27
7.17369e-29
2.94202e-27
9.70332e-28
1.39025e-29
)
;
    }
    frontAndBack
    {
        type            empty;
    }
}


// ************************************************************************* //
