/*--------------------------------*- C++ -*----------------------------------*\
| =========                 |                                                 |
| \\      /  F ield         | OpenFOAM: The Open Source CFD Toolbox           |
|  \\    /   O peration     | Version:  2506                                  |
|   \\  /    A nd           | Website:  www.openfoam.com                      |
|    \\/     M anipulation  |                                                 |
\*---------------------------------------------------------------------------*/
FoamFile
{
    version     2.0;
    format      ascii;
    arch        "LSB;label=32;scalar=64";
    class       volScalarField;
    location    "5.75";
    object      epsilonzeroGrad;
}
// * * * * * * * * * * * * * * * * * * * * * * * * * * * * * * * * * * * * * //

dimensions      [0 2 -3 0 0 0 0];

internalField   nonuniform List<scalar> 
400
(
4.90551e-06
4.90549e-06
4.90549e-06
4.90547e-06
4.90548e-06
4.90546e-06
4.90546e-06
4.90545e-06
4.90545e-06
4.90545e-06
4.90545e-06
4.90544e-06
4.90544e-06
4.90544e-06
4.90544e-06
4.90544e-06
4.90544e-06
4.90544e-06
4.90544e-06
4.90544e-06
5.34143e-06
5.23959e-06
5.24788e-06
5.2514e-06
5.25837e-06
5.26195e-06
5.26897e-06
5.27264e-06
5.2797e-06
5.28349e-06
5.29058e-06
5.2945e-06
5.30161e-06
5.30566e-06
5.31278e-06
5.31698e-06
5.3241e-06
5.32846e-06
5.33203e-06
5.33781e-06
5.96975e-06
5.84985e-06
5.85974e-06
5.86394e-06
5.87224e-06
5.87646e-06
5.8848e-06
5.88911e-06
5.89749e-06
5.9019e-06
5.9103e-06
5.91482e-06
5.92323e-06
5.92789e-06
5.93628e-06
5.9411e-06
5.94946e-06
5.95444e-06
5.95862e-06
5.96531e-06
6.55122e-06
6.41523e-06
6.42643e-06
6.43119e-06
6.44057e-06
6.44535e-06
6.4548e-06
6.45968e-06
6.46917e-06
6.47416e-06
6.48368e-06
6.48881e-06
6.49833e-06
6.50362e-06
6.51312e-06
6.5186e-06
6.52807e-06
6.53372e-06
6.53846e-06
6.54605e-06
6.97817e-06
6.82987e-06
6.84204e-06
6.84723e-06
6.85745e-06
6.86265e-06
6.87294e-06
6.87826e-06
6.88859e-06
6.89404e-06
6.9044e-06
6.91e-06
6.92037e-06
6.92614e-06
6.93649e-06
6.94246e-06
6.95278e-06
6.95896e-06
6.96412e-06
6.97239e-06
7.25249e-06
7.0961e-06
7.10893e-06
7.11439e-06
7.12515e-06
7.13064e-06
7.14147e-06
7.14708e-06
7.15796e-06
7.16371e-06
7.17462e-06
7.18053e-06
7.19145e-06
7.19754e-06
7.20845e-06
7.21475e-06
7.22562e-06
7.23214e-06
7.23758e-06
7.24631e-06
7.41762e-06
7.25634e-06
7.26956e-06
7.27519e-06
7.28628e-06
7.29194e-06
7.30311e-06
7.30889e-06
7.32011e-06
7.32603e-06
7.33728e-06
7.34337e-06
7.35463e-06
7.36092e-06
7.37216e-06
7.37866e-06
7.38988e-06
7.3966e-06
7.40221e-06
7.41121e-06
7.51703e-06
7.3528e-06
7.36625e-06
7.37198e-06
7.38328e-06
7.38903e-06
7.4004e-06
7.40629e-06
7.41771e-06
7.42374e-06
7.4352e-06
7.4414e-06
7.45286e-06
7.45926e-06
7.47071e-06
7.47733e-06
7.48875e-06
7.4956e-06
7.50131e-06
7.51047e-06
7.58124e-06
7.41511e-06
7.42871e-06
7.43451e-06
7.44593e-06
7.45175e-06
7.46325e-06
7.46921e-06
7.48076e-06
7.48686e-06
7.49845e-06
7.50472e-06
7.51632e-06
7.52279e-06
7.53437e-06
7.54107e-06
7.55262e-06
7.55955e-06
7.56532e-06
7.57459e-06
7.62858e-06
7.46104e-06
7.47477e-06
7.4806e-06
7.49213e-06
7.498e-06
7.50959e-06
7.51559e-06
7.52724e-06
7.53339e-06
7.54508e-06
7.5514e-06
7.5631e-06
7.56963e-06
7.5813e-06
7.58806e-06
7.5997e-06
7.60669e-06
7.61252e-06
7.62187e-06
7.66925e-06
7.50049e-06
7.5143e-06
7.52018e-06
7.53178e-06
7.53769e-06
7.54937e-06
7.55542e-06
7.56715e-06
7.57334e-06
7.58511e-06
7.59148e-06
7.60326e-06
7.60984e-06
7.62159e-06
7.6284e-06
7.64012e-06
7.64717e-06
7.65303e-06
7.66245e-06
7.70875e-06
7.53883e-06
7.55274e-06
7.55866e-06
7.57034e-06
7.57629e-06
7.58805e-06
7.59414e-06
7.60594e-06
7.61218e-06
7.62403e-06
7.63045e-06
7.6423e-06
7.64893e-06
7.66076e-06
7.66762e-06
7.67942e-06
7.68651e-06
7.69242e-06
7.7019e-06
7.75037e-06
7.57921e-06
7.59322e-06
7.59918e-06
7.61094e-06
7.61694e-06
7.62878e-06
7.63491e-06
7.6468e-06
7.65309e-06
7.66502e-06
7.67148e-06
7.68342e-06
7.69009e-06
7.70201e-06
7.70892e-06
7.72081e-06
7.72795e-06
7.7339e-06
7.74345e-06
7.79617e-06
7.62368e-06
7.63779e-06
7.6438e-06
7.65565e-06
7.66169e-06
7.67362e-06
7.67981e-06
7.69179e-06
7.69812e-06
7.71015e-06
7.71666e-06
7.72869e-06
7.73542e-06
7.74743e-06
7.75439e-06
7.76638e-06
7.77358e-06
7.77957e-06
7.78919e-06
7.84767e-06
7.67366e-06
7.68789e-06
7.69395e-06
7.70591e-06
7.712e-06
7.72404e-06
7.73027e-06
7.74236e-06
7.74875e-06
7.76088e-06
7.76745e-06
7.77959e-06
7.78637e-06
7.79849e-06
7.80551e-06
7.8176e-06
7.82486e-06
7.83091e-06
7.84062e-06
7.90546e-06
7.72973e-06
7.7441e-06
7.75022e-06
7.76229e-06
7.76845e-06
7.7806e-06
7.78689e-06
7.7991e-06
7.80555e-06
7.81779e-06
7.82443e-06
7.83669e-06
7.84354e-06
7.85577e-06
7.86287e-06
7.87507e-06
7.88241e-06
7.88851e-06
7.89832e-06
7.96809e-06
7.79051e-06
7.80504e-06
7.81122e-06
7.82341e-06
7.82963e-06
7.8419e-06
7.84827e-06
7.8606e-06
7.86712e-06
7.87949e-06
7.8862e-06
7.89858e-06
7.9055e-06
7.91787e-06
7.92503e-06
7.93736e-06
7.94478e-06
7.95095e-06
7.96086e-06
8.03042e-06
7.85104e-06
7.86569e-06
7.87194e-06
7.88425e-06
7.89052e-06
7.90292e-06
7.90934e-06
7.92179e-06
7.92838e-06
7.94087e-06
7.94766e-06
7.96016e-06
7.96716e-06
7.97964e-06
7.98689e-06
7.99934e-06
8.00684e-06
8.01307e-06
8.02308e-06
8.08248e-06
7.90526e-06
7.91943e-06
7.92552e-06
7.93752e-06
7.94366e-06
7.95578e-06
7.96211e-06
7.97432e-06
7.98086e-06
7.99315e-06
7.99992e-06
8.01226e-06
8.01931e-06
8.03166e-06
8.03901e-06
8.05135e-06
8.05903e-06
8.06522e-06
8.07529e-06
8.10573e-06
8.10571e-06
8.10569e-06
8.10569e-06
8.10566e-06
8.10567e-06
8.10564e-06
8.10566e-06
8.10563e-06
8.10564e-06
8.10562e-06
8.10563e-06
8.10562e-06
8.10562e-06
8.10562e-06
8.10562e-06
8.10562e-06
8.10562e-06
8.10562e-06
8.10562e-06
)
;

boundaryField
{
    movingWall
    {
        type            zeroGradient;
    }
    fixedWalls
    {
        type            zeroGradient;
    }
    frontAndBack
    {
        type            empty;
    }
}


// ************************************************************************* //
