/*--------------------------------*- C++ -*----------------------------------*\
| =========                 |                                                 |
| \\      /  F ield         | OpenFOAM: The Open Source CFD Toolbox           |
|  \\    /   O peration     | Version:  2506                                  |
|   \\  /    A nd           | Website:  www.openfoam.com                      |
|    \\/     M anipulation  |                                                 |
\*---------------------------------------------------------------------------*/
FoamFile
{
    version     2.0;
    format      ascii;
    arch        "LSB;label=32;scalar=64";
    class       volScalarField;
    location    "5.75";
    object      flowTypeField;
}
// * * * * * * * * * * * * * * * * * * * * * * * * * * * * * * * * * * * * * //

dimensions      [0 0 0 0 0 0 0];

internalField   nonuniform List<scalar> 
400
(
0.503226
0.0571064
0.108287
-0.0890793
0.651999
-0.728939
0.94863
0.472775
0.255206
0.922312
0.335858
0.574802
0.268789
0.48075
0.251521
0.264216
0.721694
0.0573885
0.918119
0.0423398
0.852351
0.461838
0.347909
0.747888
-0.0413913
0.15724
0.191483
-0.0553398
-0.108269
0.199701
0.156835
0.0200818
0.0181895
-0.0433143
0.638617
-0.0336002
0.791984
0.790502
-0.0141706
0.13493
0.322656
0.0782489
-0.0311626
0.271274
-0.656682
0.1482
-0.120331
-0.10739
-0.0376581
0.0584611
0.113606
0.0852285
0.0686148
-0.101286
-0.21212
0.0906198
0.74467
0.460905
0.00953527
0.682628
0.532972
0.0822476
0.0898585
-0.0993287
0.417023
0.362061
0.334738
0.6142
0.433041
-0.209076
0.530253
-0.313428
0.161267
-0.115303
-0.360781
-0.277245
0.736727
-0.336378
0.283915
0.760602
0.874409
0.484939
0.554285
0.0851146
0.203963
0.31471
0.558898
0.484997
0.881471
-0.294073
0.978356
0.627721
0.749352
0.864943
0.124426
0.491549
0.870468
0.430746
0.872833
0.652783
0.588394
0.120815
0.0650882
0.121101
0.067197
0.694416
0.908307
-0.362178
-0.353348
0.0403689
-0.12803
-0.248802
-0.0145152
0.571272
0.693719
0.755968
-0.093579
-0.22991
0.780999
0.951677
0.160911
0.0293246
-0.109311
-0.177001
-0.613808
-0.00667022
-0.197816
-0.0207285
0.409177
-0.039753
0.513735
0.209002
0.0392993
0.194246
0.228774
0.540396
0.439587
0.716031
-0.0569493
0.562842
0.747325
0.264531
0.373905
-0.0204338
0.283573
0.20831
0.602617
0.128108
-0.0526158
-0.0807228
0.220262
0.276225
0.572868
-0.139305
0.852902
0.36278
0.642126
0.382989
0.158012
-0.0941019
0.584216
0.13195
-0.0782118
0.331707
0.263811
0.00101931
0.479019
0.0240604
-0.033414
0.469137
0.729609
0.17912
0.229676
-0.0249497
0.414595
-0.378837
-0.0183185
0.530992
-0.285974
0.373938
-0.492196
-0.0443204
-0.276353
-0.42132
0.397957
-0.0284527
0.033741
-0.0765989
-0.247384
0.121766
0.269496
0.084307
0.0345758
-0.138606
-0.130634
0.407901
0.207001
-0.36399
-0.0575799
0.776155
-0.213643
-0.00854942
-0.292124
0.159368
0.258363
0.225407
0.782156
0.413253
-0.296996
-0.237184
0.464329
-0.2848
0.544531
0.22388
0.117401
0.255483
0.193838
0.269665
0.957087
0.00275075
0.519657
0.205911
0.0508512
0.52035
0.788686
0.113853
0.208039
-0.0276885
0.141058
0.0654017
0.249465
0.0345488
-0.0423235
0.0672194
0.130945
-0.0764682
0.908927
0.359561
0.860864
0.843748
0.686109
0.58427
0.395416
0.913916
0.558366
0.317595
0.0147104
0.372619
-0.367495
-0.331672
0.00855565
0.180382
0.393001
-0.171682
0.0245665
0.00133929
-0.0184967
0.669216
0.792878
0.547877
0.297091
0.0380898
-0.105491
0.0959445
0.395904
0.187312
-0.107444
-0.174336
-0.124615
-0.0568114
-0.0423933
0.453142
0.0874982
-0.00612575
0.123117
0.515953
-0.298199
0.398705
0.682757
0.707268
-0.063627
0.014597
-0.0984987
0.223278
-0.456328
0.739428
0.605713
0.00102643
0.195646
0.327971
0.843134
0.112018
0.356268
0.939196
0.358162
-0.110051
0.0670884
0.580167
0.285201
0.77084
0.515198
0.0714749
-0.0188219
0.38154
-0.133052
0.77395
0.434276
0.322788
0.287717
0.0802957
-0.242606
-0.185819
0.337057
0.203636
0.128184
0.597611
-0.00679975
0.00474236
0.113988
0.599971
0.933552
0.655276
0.663653
0.487242
-0.300913
0.638915
0.907933
0.257226
-0.171765
-0.333352
0.586563
0.386455
-0.0334941
-0.121541
-0.0691232
0.675042
0.856958
-0.154304
0.0142203
0.966718
0.297681
0.0890911
-0.075169
0.311693
-0.596073
0.652713
0.338001
-0.0941727
-0.291845
0.112658
0.232053
0.660035
0.284372
0.032887
0.191527
-0.188535
-0.19314
0.782472
0.774231
0.713729
0.812992
0.481301
0.321084
0.765512
0.344325
0.00300408
-0.104457
-0.207189
-0.0573274
0.240046
0.8876
0.946604
-0.0882666
0.0155827
0.52788
0.328211
0.604738
0.377933
0.207352
0.241271
0.467372
0.0385842
0.0953526
-0.124042
0.709709
0.0653948
0.127025
0.183159
0.379799
0.944767
-0.0361095
0.00258906
-0.310325
0.320114
0.629002
0.00777696
-0.177104
0.883442
0.712866
0.133912
)
;

boundaryField
{
    movingWall
    {
        type            calculated;
        value           nonuniform List<scalar> 
20
(
0.736589
0.166363
0.511931
-0.119183
0.22425
-0.035374
0.0249708
0.0380881
0.076734
0.119121
0.109037
-0.464489
0.6716
0.303052
0.710295
0.137706
0.285419
0.254425
0.744506
0.0447399
)
;
    }
    fixedWalls
    {
        type            calculated;
        value           nonuniform List<scalar> 
60
(
0.0767538
0.441251
0.0570612
0.0852168
0.567408
0.104591
0.015801
0.320818
0.107115
-0.101852
-0.0567678
0.250156
0.554518
0.00875155
-0.00912124
0.0786096
0.718913
0.0628543
0.463703
0.062971
0.0924548
0.351192
0.989374
0.586811
0.890526
0.942321
0.884137
-0.385846
0.742871
0.793926
0.269268
0.947844
0.0180578
0.865699
0.54724
0.545477
0.381061
0.672014
0.941072
0.231647
0.653697
0.105655
0.436331
-0.301651
0.25018
-0.0710858
0.00586921
0.0326574
0.0661726
0.106113
-0.140303
-0.0561977
0.0340497
0.16907
0.528727
0.289803
0.741509
0.135431
0.121741
0.125227
)
;
    }
    frontAndBack
    {
        type            empty;
    }
}


// ************************************************************************* //
