/*--------------------------------*- C++ -*----------------------------------*\
| =========                 |                                                 |
| \\      /  F ield         | OpenFOAM: The Open Source CFD Toolbox           |
|  \\    /   O peration     | Version:  2506                                  |
|   \\  /    A nd           | Website:  www.openfoam.com                      |
|    \\/     M anipulation  |                                                 |
\*---------------------------------------------------------------------------*/
FoamFile
{
    version     2.0;
    format      ascii;
    arch        "LSB;label=32;scalar=64";
    class       surfaceScalarField;
    location    "5.75";
    object      fluxField;
}
// * * * * * * * * * * * * * * * * * * * * * * * * * * * * * * * * * * * * * //

dimensions      [0 3 -1 0 0 0 0];

oriented        oriented;

internalField   nonuniform List<scalar> 
760
(
-5e-05
3.05959e-18
-5e-05
-6.252e-19
-5e-05
1.59451e-19
-5e-05
-2.62822e-20
-5e-05
1.23927e-20
-5e-05
1.32817e-21
-5e-05
1.88941e-21
-5e-05
4.83537e-22
-5e-05
5.59089e-21
-5e-05
1.16744e-20
-5e-05
4.89779e-21
-5e-05
1.92386e-21
-5e-05
1.96767e-21
-5e-05
5.84383e-21
-5e-05
7.18106e-21
-5e-05
5.20396e-21
-5e-05
9.15721e-22
-5e-05
-1.12134e-21
-5e-05
-4.27677e-21
-4.27794e-22
-5e-05
-1.87803e-18
-5e-05
4.31325e-19
-5e-05
-8.16574e-20
-5e-05
3.09257e-20
-5e-05
1.98984e-21
-5e-05
5.02772e-21
-5e-05
2.92385e-21
-5e-05
-2.89747e-23
-5e-05
6.65583e-22
-5e-05
2.90101e-21
-5e-05
2.27679e-21
-5e-05
1.86978e-21
-5e-05
4.31907e-21
-5e-05
5.32162e-21
-5e-05
1.27908e-21
-5e-05
-1.40221e-21
-5e-05
-4.77496e-21
-5e-05
-4.39773e-21
-5e-05
-7.56251e-21
-4.00676e-21
-5e-05
-9.09967e-19
-5e-05
2.13914e-19
-5e-05
-3.67359e-20
-5e-05
1.9214e-20
-5e-05
4.14407e-21
-5e-05
5.83403e-21
-5e-05
4.04499e-21
-5e-05
2.48649e-21
-5e-05
2.61924e-21
-5e-05
-1.44576e-21
-5e-05
-1.42524e-21
-5e-05
1.18456e-21
-5e-05
5.37437e-21
-5e-05
3.57803e-21
-5e-05
-2.17041e-21
-5e-05
-6.26343e-21
-5e-05
-7.11198e-21
-5e-05
-6.52184e-21
-5e-05
-1.06481e-20
-6.70219e-21
-5e-05
1.50591e-18
-5e-05
-2.95799e-19
-5e-05
8.42673e-20
-5e-05
-7.29632e-21
-5e-05
1.29422e-20
-5e-05
7.65109e-21
-5e-05
4.53198e-21
-5e-05
4.77959e-21
-5e-05
7.13778e-21
-5e-05
2.34019e-21
-5e-05
-1.60876e-23
-5e-05
2.76677e-21
-5e-05
5.42629e-21
-5e-05
1.90456e-21
-5e-05
-1.13539e-21
-5e-05
-3.99161e-21
-5e-05
-3.66864e-21
-5e-05
-4.60039e-21
-5e-05
-8.26361e-21
-5.2956e-21
-5e-05
-1.34948e-18
-5e-05
3.05287e-19
-5e-05
-5.27469e-20
-5e-05
2.59815e-20
-5e-05
8.86093e-21
-5e-05
1.08645e-20
-5e-05
7.98784e-21
-5e-05
7.5367e-21
-5e-05
5.72762e-21
-5e-05
3.75794e-21
-5e-05
2.37387e-21
-5e-05
-5.56134e-22
-5e-05
-1.79198e-21
-5e-05
-2.93846e-21
-5e-05
-1.49052e-21
-5e-05
-1.94338e-21
-5e-05
-1.83457e-21
-5e-05
-2.66029e-21
-5e-05
-1.91202e-21
-2.16294e-21
-5e-05
3.96784e-19
-5e-05
-7.85547e-20
-5e-05
2.63405e-20
-5e-05
2.99074e-21
-5e-05
3.13369e-21
-5e-05
1.44154e-21
-5e-05
5.69321e-21
-5e-05
7.55698e-21
-5e-05
4.42127e-21
-5e-05
4.70285e-21
-5e-05
4.21789e-21
-5e-05
2.19788e-22
-5e-05
6.55527e-22
-5e-05
7.92618e-22
-5e-05
2.16894e-21
-5e-05
1.05542e-21
-5e-05
-1.07779e-21
-5e-05
-2.44678e-21
-5e-05
2.13556e-21
1.23371e-21
-5e-05
1.06371e-18
-5e-05
-2.15912e-19
-5e-05
5.12854e-20
-5e-05
-6.91758e-21
-5e-05
4.30075e-21
-5e-05
1.99453e-22
-5e-05
1.88867e-21
-5e-05
2.56033e-21
-5e-05
6.97297e-22
-5e-05
4.0341e-21
-5e-05
5.37787e-21
-5e-05
5.01032e-21
-5e-05
6.77722e-21
-5e-05
2.77564e-21
-5e-05
2.27136e-21
-5e-05
2.5725e-21
-5e-05
1.95045e-21
-5e-05
5.77489e-22
-5e-05
1.37859e-21
4.84538e-22
-5e-05
-1.11944e-18
-5e-05
2.34876e-19
-5e-05
-5.46107e-20
-5e-05
1.13265e-20
-5e-05
1.3175e-21
-5e-05
3.6515e-21
-5e-05
1.79958e-21
-5e-05
-5.97934e-22
-5e-05
-3.66218e-21
-5e-05
-1.42512e-21
-5e-05
1.75893e-21
-5e-05
2.99241e-21
-5e-05
7.4963e-22
-5e-05
-2.02738e-21
-5e-05
-1.60924e-22
-5e-05
3.61199e-21
-5e-05
4.95868e-21
-5e-05
4.0064e-21
-5e-05
-1.71668e-22
-1.95304e-21
-5e-05
2.51221e-19
-5e-05
-2.68223e-20
-5e-05
1.65695e-20
-5e-05
5.61516e-22
-5e-05
1.12704e-21
-5e-05
3.79357e-21
-5e-05
3.57048e-21
-5e-05
-6.84884e-22
-5e-05
-5.58635e-21
-5e-05
-6.68974e-21
-5e-05
-3.85186e-21
-5e-05
-1.3041e-21
-5e-05
-3.56746e-21
-5e-05
-2.64539e-21
-5e-05
5.01034e-22
-5e-05
3.62997e-21
-5e-05
3.03501e-21
-5e-05
4.08172e-21
-5e-05
2.9745e-21
1.08473e-21
-5e-05
1.90719e-19
-5e-05
-2.88066e-20
-5e-05
1.81895e-20
-5e-05
3.37468e-21
-5e-05
3.27032e-21
-5e-05
2.73736e-21
-5e-05
8.71165e-22
-5e-05
-2.11767e-21
-5e-05
-3.86778e-21
-5e-05
-5.17584e-22
-5e-05
1.09136e-21
-5e-05
-2.26251e-21
-5e-05
-5.3837e-21
-5e-05
-3.29806e-21
-5e-05
-1.68149e-21
-5e-05
3.06854e-23
-5e-05
7.39538e-22
-5e-05
2.60622e-21
-5e-05
2.55718e-21
2.75992e-21
-5e-05
-2.3392e-19
-5e-05
3.30943e-20
-5e-05
-8.47657e-21
-5e-05
3.76664e-21
-5e-05
-1.21036e-21
-5e-05
-3.16078e-21
-5e-05
-2.85535e-21
-5e-05
-1.48345e-21
-5e-05
8.92268e-23
-5e-05
4.4657e-21
-5e-05
4.44846e-21
-5e-05
-6.73381e-23
-5e-05
-1.8718e-21
-5e-05
-7.79783e-24
-5e-05
-9.11593e-22
-5e-05
4.62102e-22
-5e-05
2.65983e-21
-5e-05
1.41822e-21
-5e-05
-9.32112e-22
6.02256e-22
-5e-05
6.7347e-19
-5e-05
-1.31277e-19
-5e-05
3.29534e-20
-5e-05
4.76705e-22
-5e-05
4.59175e-21
-5e-05
3.22984e-21
-5e-05
5.11468e-21
-5e-05
4.90016e-21
-5e-05
4.50765e-21
-5e-05
-2.03299e-21
-5e-05
-7.61943e-21
-5e-05
-2.39011e-21
-5e-05
2.81289e-21
-5e-05
1.79506e-21
-5e-05
-3.6241e-22
-5e-05
3.66876e-22
-5e-05
6.56332e-22
-5e-05
-1.02743e-21
-5e-05
-1.23379e-21
5.14258e-22
-5e-05
-8.35456e-19
-5e-05
1.86237e-19
-5e-05
-4.15995e-20
-5e-05
1.33716e-20
-5e-05
6.19882e-21
-5e-05
1.00728e-20
-5e-05
9.37925e-21
-5e-05
5.80523e-21
-5e-05
2.7374e-21
-5e-05
-6.85014e-21
-5e-05
-1.04421e-20
-5e-05
-2.14795e-21
-5e-05
3.15312e-21
-5e-05
1.77838e-21
-5e-05
6.19518e-22
-5e-05
-7.97586e-22
-5e-05
-2.50812e-21
-5e-05
-3.74785e-21
-5e-05
-3.30384e-21
5.0956e-23
-5e-05
4.02089e-19
-5e-05
-8.05955e-20
-5e-05
1.95871e-20
-5e-05
-5.55099e-22
-5e-05
8.37661e-21
-5e-05
7.88629e-21
-5e-05
6.91012e-21
-5e-05
7.32264e-22
-5e-05
-1.76362e-21
-5e-05
-3.23793e-21
-5e-05
-5.96062e-22
-5e-05
2.03629e-21
-5e-05
2.80152e-21
-5e-05
3.11718e-21
-5e-05
3.0886e-21
-5e-05
-9.59035e-22
-5e-05
-3.81705e-21
-5e-05
-2.846e-21
-5e-05
-2.55719e-21
-2.40466e-22
-5e-05
4.46084e-19
-5e-05
-8.67999e-20
-5e-05
2.91797e-20
-5e-05
3.60551e-21
-5e-05
6.76724e-21
-5e-05
4.40375e-21
-5e-05
4.20979e-21
-5e-05
5.38272e-22
-5e-05
4.21648e-22
-5e-05
3.51665e-21
-5e-05
2.70691e-21
-5e-05
-2.04825e-21
-5e-05
-3.54022e-21
-5e-05
-1.48569e-21
-5e-05
-3.40484e-22
-5e-05
-2.69333e-21
-5e-05
-4.61284e-21
-5e-05
-2.67079e-22
-5e-05
2.71199e-21
2.70774e-21
-5e-05
-1.13836e-18
-5e-05
2.52349e-19
-5e-05
-4.33602e-20
-5e-05
1.92157e-20
-5e-05
-3.03673e-21
-5e-05
-3.30563e-21
-5e-05
-5.51765e-21
-5e-05
-2.28267e-21
-5e-05
1.26647e-22
-5e-05
4.67669e-21
-5e-05
2.1179e-21
-5e-05
-4.2334e-21
-5e-05
-5.57135e-21
-5e-05
-3.0513e-21
-5e-05
-7.87542e-24
-5e-05
-1.05503e-21
-5e-05
-2.37115e-21
-5e-05
1.95417e-22
-5e-05
5.0354e-21
6.83001e-21
-5e-05
1.12952e-18
-5e-05
-2.05753e-19
-5e-05
6.1664e-20
-5e-05
-4.27361e-21
-5e-05
2.87631e-21
-5e-05
-3.94546e-21
-5e-05
-9.94179e-21
-5e-05
-7.24071e-21
-5e-05
-1.33709e-21
-5e-05
4.15223e-21
-5e-05
4.46493e-21
-5e-05
-4.8898e-22
-5e-05
-4.52615e-21
-5e-05
-6.31256e-21
-5e-05
-1.96308e-21
-5e-05
1.72394e-21
-5e-05
2.5362e-21
-5e-05
3.76926e-21
-5e-05
4.23957e-21
5.99782e-21
-5e-05
9.18507e-19
-5e-05
-1.95472e-19
-5e-05
4.55677e-20
-5e-05
-1.03022e-20
-5e-05
6.49027e-21
-5e-05
2.70905e-21
-5e-05
-2.08244e-21
-5e-05
-5.87066e-21
-5e-05
-4.47362e-21
-5e-05
-2.33982e-21
-5e-05
2.25251e-21
-5e-05
1.10451e-21
-5e-05
-4.15499e-21
-5e-05
-8.64178e-21
-5e-05
-6.73061e-21
-5e-05
1.43691e-21
-5e-05
4.15517e-21
-5e-05
5.63529e-21
-5e-05
2.03343e-21
-4.19691e-23
-5e-05
-2.24475e-18
-5e-05
4.44237e-19
-5e-05
-1.0809e-19
-5e-05
1.8695e-20
-5e-05
-2.74844e-21
-5e-05
2.2424e-21
-5e-05
4.68535e-23
-5e-05
-3.98054e-21
-5e-05
-7.82034e-21
-5e-05
-1.04172e-20
-5e-05
-4.02224e-21
-5e-05
3.89226e-22
-5e-05
1.37725e-21
-5e-05
-5.99917e-22
-5e-05
-1.54816e-21
-5e-05
3.9815e-22
-5e-05
-1.41883e-22
-5e-05
-6.31489e-22
-5e-05
-7.68467e-22
-2.4855e-21
-5e-05
-5e-05
-5e-05
-5e-05
-5e-05
-5e-05
-5e-05
-5e-05
-5e-05
-5e-05
-5e-05
-5e-05
-5e-05
-5e-05
-5e-05
-5e-05
-5e-05
-5e-05
-5e-05
)
;

boundaryField
{
    movingWall
    {
        type            calculated;
        value           uniform -0;
    }
    fixedWalls
    {
        type            calculated;
        value           nonuniform List<scalar> 
60
(
5e-05
5e-05
5e-05
5e-05
5e-05
5e-05
5e-05
5e-05
5e-05
5e-05
5e-05
5e-05
5e-05
5e-05
5e-05
5e-05
5e-05
5e-05
5e-05
5e-05
-5e-05
-5e-05
-5e-05
-5e-05
-5e-05
-5e-05
-5e-05
-5e-05
-5e-05
-5e-05
-5e-05
-5e-05
-5e-05
-5e-05
-5e-05
-5e-05
-5e-05
-5e-05
-5e-05
-5e-05
0
0
0
0
0
0
0
0
0
0
0
0
0
0
0
0
0
0
0
0
)
;
    }
    frontAndBack
    {
        type            empty;
    }
}


// ************************************************************************* //
