/*--------------------------------*- C++ -*----------------------------------*\
| =========                 |                                                 |
| \\      /  F ield         | OpenFOAM: The Open Source CFD Toolbox           |
|  \\    /   O peration     | Version:  2506                                  |
|   \\  /    A nd           | Website:  www.openfoam.com                      |
|    \\/     M anipulation  |                                                 |
\*---------------------------------------------------------------------------*/
FoamFile
{
    version     2.0;
    format      ascii;
    arch        "LSB;label=32;scalar=64";
    class       volVectorField;
    location    "5.75";
    object      gradPhi;
}
// * * * * * * * * * * * * * * * * * * * * * * * * * * * * * * * * * * * * * //

dimensions      [0 2 -1 0 0 0 0];

internalField   nonuniform List<vector> 
400
(
(-0.02 7.33633e-17 0)
(9.76073e-17 -9.929e-17 0)
(-3.14329e-17 3.14445e-17 0)
(4.96308e-18 -3.52948e-18 0)
(-3.30872e-18 2.65842e-18 0)
(-1.65436e-18 3.8265e-19 0)
(0 -7.25206e-20 0)
(1.65436e-18 -1.74707e-19 0)
(-1.65436e-18 4.43536e-19 0)
(-1.65436e-18 3.51546e-18 0)
(-1.65436e-18 1.16777e-18 0)
(0 -1.77087e-20 0)
(0 -1.08417e-19 0)
(-1.65436e-18 1.3098e-18 0)
(-1.65436e-18 2.17451e-18 0)
(-1.65436e-18 1.39806e-18 0)
(0 4.96834e-19 0)
(0 -2.19681e-19 0)
(1.65436e-18 -1.55621e-18 0)
(0 3.79462e-19 0)
(-0.02 -1.20357e-16 0)
(-1.65436e-16 1.65572e-16 0)
(4.63221e-17 -4.66625e-17 0)
(-8.27181e-18 8.59677e-18 0)
(3.30872e-18 -2.24197e-18 0)
(-1.65436e-18 7.33829e-19 0)
(-1.65436e-18 1.24936e-18 0)
(0 1.65095e-19 0)
(0 -1.96169e-19 0)
(3.30872e-18 -3.89348e-18 0)
(1.65436e-18 -9.85677e-19 0)
(-1.65436e-18 4.43658e-19 0)
(0 1.23911e-18 0)
(0 2.38486e-19 0)
(1.65436e-18 -1.92568e-18 0)
(1.65436e-18 -1.44076e-18 0)
(0 -1.93071e-18 0)
(1.65436e-18 -1.00954e-18 0)
(0 4.99243e-19 0)
(0 -1.05626e-18 0)
(-0.02 2.63637e-17 0)
(2.97785e-17 -2.94044e-17 0)
(-6.61744e-18 7.25029e-18 0)
(0 -1.55861e-18 0)
(0 4.47039e-19 0)
(0 -1.21808e-19 0)
(0 -2.46057e-19 0)
(0 5.65057e-19 0)
(0 7.95835e-20 0)
(-1.65436e-18 2.91281e-19 0)
(0 1.65357e-19 0)
(-1.65436e-18 1.0859e-19 0)
(1.65436e-18 -2.29053e-19 0)
(0 -1.51306e-18 0)
(1.65436e-18 -1.04607e-18 0)
(1.65436e-18 -1.46951e-18 0)
(-1.65436e-18 2.71675e-19 0)
(0 2.76061e-19 0)
(0 -1.1247e-18 0)
(1.65436e-18 -1.61555e-18 0)
(-0.02 4.40847e-17 0)
(7.11375e-17 -7.12331e-17 0)
(-2.48154e-17 2.49075e-17 0)
(3.30872e-18 -3.59372e-18 0)
(0 1.23066e-18 0)
(0 2.92046e-19 0)
(0 -7.42095e-19 0)
(0 3.48997e-19 0)
(-1.65436e-18 1.98154e-18 0)
(-1.65436e-18 6.51467e-19 0)
(3.30872e-18 -1.51257e-18 0)
(-1.65436e-18 -4.15639e-19 0)
(0 5.9634e-19 0)
(-1.65436e-18 1.07711e-18 0)
(0 6.68751e-19 0)
(0 1.6938e-19 0)
(0 2.23899e-19 0)
(0 3.45371e-19 0)
(-1.65436e-18 5.58361e-19 0)
(-1.65436e-18 1.57829e-18 0)
(-0.02 -4.99515e-17 0)
(-7.11375e-17 7.20287e-17 0)
(2.64698e-17 -2.73446e-17 0)
(-3.30872e-18 3.6037e-18 0)
(-1.65436e-18 4.82486e-19 0)
(-1.65436e-18 1.56464e-18 0)
(-1.65436e-18 2.02656e-18 0)
(0 8.56106e-19 0)
(0 -1.79795e-18 0)
(0 1.59645e-19 0)
(-1.65436e-18 2.62207e-18 0)
(0 9.23921e-21 0)
(1.65436e-18 -2.05489e-18 0)
(3.30872e-18 -2.52961e-18 0)
(0 -3.07011e-19 0)
(0 1.50056e-18 0)
(-1.65436e-18 7.95946e-19 0)
(0 -1.59795e-20 0)
(0 1.23343e-18 0)
(0 -3.2538e-20 0)
(-0.02 3.73493e-17 0)
(4.96308e-17 -4.82675e-17 0)
(-1.65436e-17 1.52551e-17 0)
(3.30872e-18 -2.34284e-18 0)
(1.65436e-18 -2.42787e-18 0)
(3.30872e-18 -3.21298e-18 0)
(1.65436e-18 -1.29509e-18 0)
(0 -2.92975e-19 0)
(0 8.95168e-19 0)
(-1.65436e-18 2.7455e-19 0)
(1.65436e-18 -1.00762e-18 0)
(0 2.35731e-19 0)
(0 4.30928e-19 0)
(-1.65436e-18 2.06617e-18 0)
(-1.65436e-18 9.48464e-19 0)
(1.65436e-18 -1.07079e-19 0)
(-1.65436e-18 -1.45334e-19 0)
(0 -3.46583e-19 0)
(0 5.75812e-19 0)
(-1.65436e-18 1.48941e-18 0)
(-0.02 8.69686e-18 0)
(1.65436e-17 -1.73758e-17 0)
(-6.61744e-18 6.13617e-18 0)
(1.65436e-18 -1.01901e-18 0)
(-1.65436e-18 3.22975e-19 0)
(0 5.96649e-19 0)
(0 -8.30584e-19 0)
(1.65436e-18 -1.37314e-18 0)
(3.30872e-18 -1.77581e-18 0)
(0 -7.75591e-20 0)
(-1.65436e-18 9.98127e-19 0)
(0 -1.79388e-19 0)
(-1.65436e-18 1.56711e-18 0)
(0 -1.83375e-19 0)
(-1.65436e-18 4.74678e-19 0)
(0 8.61128e-19 0)
(0 6.04294e-19 0)
(-1.65436e-18 9.9264e-19 0)
(0 5.40021e-19 0)
(0 -2.66773e-19 0)
(-0.02 -3.02393e-17 0)
(-5.45939e-17 5.32011e-17 0)
(2.31611e-17 -2.28924e-17 0)
(0 -3.77394e-19 0)
(-1.65436e-18 9.12238e-19 0)
(0 7.3735e-19 0)
(0 7.43517e-19 0)
(0 -1.28973e-19 0)
(0 -7.15338e-19 0)
(0 -1.49904e-18 0)
(1.65436e-18 -9.65371e-19 0)
(-1.65436e-18 1.46191e-18 0)
(0 -9.00668e-19 0)
(1.65436e-18 -8.85506e-19 0)
(1.65436e-18 -1.77431e-18 0)
(0 -7.63995e-19 0)
(0 6.54457e-19 0)
(-3.30872e-18 1.33497e-18 0)
(1.65436e-18 -1.10916e-18 0)
(1.65436e-18 -1.80769e-18 0)
(-0.02 9.11335e-18 0)
(2.15067e-17 -1.99121e-17 0)
(-1.65436e-17 1.57579e-17 0)
(-1.65436e-18 1.81774e-18 0)
(3.30872e-18 -2.00512e-18 0)
(0 -5.43613e-19 0)
(0 -7.16056e-19 0)
(0 2.39129e-19 0)
(0 6.21025e-19 0)
(1.65436e-18 -8.05762e-19 0)
(1.65436e-18 -1.98733e-18 0)
(1.65436e-18 -2.47925e-18 0)
(3.30872e-18 -1.52836e-18 0)
(0 -1.80235e-19 0)
(-1.65436e-18 1.07805e-18 0)
(0 1.05056e-18 0)
(-1.65436e-18 2.81022e-19 0)
(0 -5.13918e-19 0)
(0 9.65182e-19 0)
(-1.65436e-18 1.85322e-18 0)
(-0.02 1.1618e-18 0)
(1.65436e-18 -1.58865e-18 0)
(0 2.76702e-20 0)
(0 -8.1191e-19 0)
(-1.65436e-18 1.25509e-18 0)
(0 4.82205e-19 0)
(-1.65436e-18 1.09806e-18 0)
(1.65436e-18 -3.88553e-19 0)
(0 -3.76464e-20 0)
(-3.30872e-18 1.65759e-18 0)
(-1.65436e-18 1.59212e-18 0)
(0 9.99647e-21 0)
(0 1.11311e-19 0)
(0 -1.01274e-19 0)
(0 -6.8783e-19 0)
(3.30872e-18 -1.64359e-18 0)
(3.30872e-18 -2.18084e-18 0)
(0 -8.85815e-19 0)
(0 2.45253e-19 0)
(-1.65436e-18 7.82083e-19 0)
(-0.02 3.03333e-17 0)
(2.48154e-17 -2.44765e-17 0)
(4.96308e-18 -5.52389e-18 0)
(1.65436e-18 -1.60332e-18 0)
(1.65436e-18 -4.12704e-19 0)
(1.65436e-18 -1.82991e-18 0)
(1.65436e-18 -2.87478e-18 0)
(0 -7.91789e-19 0)
(1.65436e-18 -6.4752e-19 0)
(0 9.966e-20 0)
(-1.65436e-18 2.10935e-18 0)
(-1.65436e-18 1.9025e-18 0)
(0 3.48035e-20 0)
(-1.65436e-18 7.47613e-19 0)
(0 2.51139e-19 0)
(0 8.14934e-19 0)
(-3.30872e-18 2.34723e-18 0)
(-1.65436e-18 9.95464e-19 0)
(1.65436e-18 -1.38655e-18 0)
(1.65436e-18 -2.19107e-18 0)
(-0.02 -4.28887e-17 0)
(-2.97785e-17 2.93915e-17 0)
(-6.61744e-18 7.10896e-18 0)
(-3.30872e-18 3.45752e-18 0)
(0 1.23598e-19 0)
(-3.30872e-18 1.40574e-18 0)
(-3.30872e-18 3.25264e-18 0)
(-1.65436e-18 2.56151e-18 0)
(-3.30872e-18 2.92778e-18 0)
(0 -4.56349e-19 0)
(4.96308e-18 -4.79961e-18 0)
(1.65436e-18 -2.57568e-18 0)
(-1.65436e-18 1.6179e-18 0)
(0 2.63855e-19 0)
(0 2.62448e-19 0)
(1.65436e-18 -4.74415e-19 0)
(1.65436e-18 -2.08795e-18 0)
(1.65436e-18 -1.81305e-18 0)
(0 7.31076e-19 0)
(-1.65436e-18 1.87344e-18 0)
(-0.02 1.79827e-17 0)
(3.30872e-18 -1.50778e-18 0)
(9.92617e-18 -1.19861e-17 0)
(3.30872e-18 -2.0314e-18 0)
(-3.30872e-18 1.51754e-18 0)
(-1.65436e-18 1.89024e-18 0)
(0 -6.63914e-20 0)
(0 -9.97132e-19 0)
(1.65436e-18 -1.17481e-18 0)
(1.65436e-18 -8.56932e-19 0)
(-1.65436e-18 8.47038e-19 0)
(0 1.29062e-18 0)
(0 -1.32383e-19 0)
(0 4.28541e-20 0)
(1.65436e-18 -2.53832e-19 0)
(0 -4.69939e-20 0)
(0 7.56493e-19 0)
(0 5.56761e-19 0)
(1.65436e-18 -1.26811e-18 0)
(1.65436e-18 -1.55321e-18 0)
(-0.02 -3.27633e-18 0)
(6.61744e-18 -7.67374e-18 0)
(-8.27181e-18 8.91176e-18 0)
(0 1.20497e-20 0)
(0 -6.23312e-19 0)
(1.65436e-18 -6.95545e-19 0)
(-1.65436e-18 5.38475e-19 0)
(0 8.07683e-20 0)
(1.65436e-18 -1.13117e-18 0)
(0 -5.87886e-19 0)
(0 1.12992e-18 0)
(-1.65436e-18 8.01309e-19 0)
(0 1.42553e-19 0)
(0 7.27255e-19 0)
(0 1.10245e-18 0)
(0 2.68768e-19 0)
(0 -8.93827e-19 0)
(0 -4.92449e-19 0)
(0 7.59331e-19 0)
(-1.65436e-18 4.8969e-19 0)
(-0.02 1.21153e-17 0)
(1.48893e-17 -1.39388e-17 0)
(-4.96308e-18 3.80636e-18 0)
(0 2.98343e-19 0)
(0 3.32174e-19 0)
(1.65436e-18 -1.25086e-18 0)
(0 -1.82785e-18 0)
(1.65436e-18 -9.6925e-19 0)
(-1.65436e-18 7.16771e-19 0)
(-1.65436e-18 2.80518e-18 0)
(-1.65436e-18 1.66779e-18 0)
(1.65436e-18 -1.15469e-18 0)
(1.65436e-18 -1.44499e-18 0)
(0 -1.67375e-18 0)
(1.65436e-18 -1.03756e-18 0)
(0 -6.35791e-19 0)
(0 -2.10264e-19 0)
(-1.65436e-18 8.95628e-19 0)
(0 8.04109e-19 0)
(0 4.20695e-19 0)
(-0.02 -3.20744e-17 0)
(-4.79765e-17 4.89694e-17 0)
(1.48893e-17 -1.48259e-17 0)
(-1.65436e-18 1.93871e-18 0)
(3.30872e-18 -2.47311e-18 0)
(1.65436e-18 -1.10195e-18 0)
(0 -7.82198e-19 0)
(0 5.76962e-19 0)
(0 -2.31652e-19 0)
(0 -4.19876e-19 0)
(0 -5.67887e-19 0)
(0 -8.6439e-21 0)
(1.65436e-18 -8.94012e-19 0)
(-1.65436e-18 -1.27129e-19 0)
(0 -1.43824e-19 0)
(0 3.0163e-20 0)
(0 5.4147e-19 0)
(0 -2.57405e-19 0)
(0 8.72983e-19 0)
(-1.65436e-18 1.35046e-18 0)
(-0.02 4.12173e-17 0)
(6.61744e-17 -6.41119e-17 0)
(-2.15067e-17 2.15993e-17 0)
(0 -2.35279e-18 0)
(-1.65436e-18 2.15332e-18 0)
(0 4.51342e-19 0)
(1.65436e-18 -2.39217e-18 0)
(1.65436e-18 -2.61645e-18 0)
(0 -3.08447e-19 0)
(0 2.02471e-19 0)
(-1.65436e-18 3.38247e-19 0)
(0 -3.79162e-19 0)
(0 4.96081e-19 0)
(0 -5.69985e-19 0)
(0 2.18922e-19 0)
(0 1.00428e-18 0)
(-1.65436e-18 1.19052e-18 0)
(0 9.62732e-19 0)
(0 -1.11035e-18 0)
(0 5.85187e-20 0)
(-0.02 7.09987e-18 0)
(0 1.56556e-19 0)
(4.96308e-18 -4.71503e-18 0)
(1.65436e-18 -2.69011e-18 0)
(0 -7.42487e-19 0)
(0 5.23306e-19 0)
(-1.65436e-18 3.22978e-18 0)
(-1.65436e-18 1.28101e-18 0)
(1.65436e-18 -9.663e-19 0)
(1.65436e-18 -2.05376e-18 0)
(0 -1.15537e-19 0)
(0 2.43319e-18 0)
(-1.65436e-18 1.03165e-18 0)
(0 -3.94972e-19 0)
(1.65436e-18 -2.36949e-18 0)
(1.65436e-18 -4.73181e-19 0)
(-1.65436e-18 -2.6226e-19 0)
(0 6.42087e-19 0)
(-1.65436e-18 7.65927e-19 0)
(1.65436e-18 -2.02729e-18 0)
(-0.02 -7.15875e-17 0)
(-9.92617e-17 9.89758e-17 0)
(2.97785e-17 -2.92056e-17 0)
(-6.61744e-18 4.89148e-18 0)
(0 -6.21918e-19 0)
(0 -5.85088e-20 0)
(1.65436e-18 -3.71387e-19 0)
(0 5.97337e-19 0)
(0 4.22082e-19 0)
(0 -9.40696e-19 0)
(3.30872e-18 -2.02969e-18 0)
(1.65436e-18 -2.14689e-18 0)
(0 -1.86713e-19 0)
(-1.65436e-18 1.67391e-18 0)
(-3.30872e-18 2.97909e-18 0)
(-1.65436e-18 2.13057e-19 0)
(1.65436e-18 -3.38086e-19 0)
(1.65436e-18 -1.82933e-18 0)
(1.65436e-18 -1.24522e-18 0)
(0 -7.87622e-19 0)
(-0.02 4.14926e-17 0)
(6.94832e-17 -6.95152e-17 0)
(-1.98523e-17 2.09504e-17 0)
(1.65436e-18 -2.70572e-18 0)
(0 1.12949e-19 0)
(-1.65436e-18 -2.44812e-19 0)
(0 7.87818e-20 0)
(0 4.61003e-19 0)
(-1.65436e-18 8.95325e-19 0)
(-3.30872e-18 1.93404e-18 0)
(0 1.33348e-18 0)
(0 6.60316e-19 0)
(-1.65436e-18 2.11704e-19 0)
(1.65436e-18 1.18295e-20 0)
(0 -6.12898e-19 0)
(0 -2.55574e-19 0)
(0 -1.14561e-19 0)
(0 3.82038e-19 0)
(0 2.49589e-19 0)
(-1.65436e-18 1.06276e-18 0)
)
;

boundaryField
{
    movingWall
    {
        type            extrapolatedCalculated;
        value           nonuniform List<vector> 
20
(
(-0.02 4.14926e-17 0)
(6.94832e-17 -6.95152e-17 0)
(-1.98523e-17 2.09504e-17 0)
(1.65436e-18 -2.70572e-18 0)
(0 1.12949e-19 0)
(-1.65436e-18 -2.44812e-19 0)
(0 7.87818e-20 0)
(0 4.61003e-19 0)
(-1.65436e-18 8.95325e-19 0)
(-3.30872e-18 1.93404e-18 0)
(0 1.33348e-18 0)
(0 6.60316e-19 0)
(-1.65436e-18 2.11704e-19 0)
(1.65436e-18 1.18295e-20 0)
(0 -6.12898e-19 0)
(0 -2.55574e-19 0)
(0 -1.14561e-19 0)
(0 3.82038e-19 0)
(0 2.49589e-19 0)
(-1.65436e-18 1.06276e-18 0)
)
;
    }
    fixedWalls
    {
        type            extrapolatedCalculated;
        value           nonuniform List<vector> 
60
(
(-0.02 7.33633e-17 0)
(-0.02 -1.20357e-16 0)
(-0.02 2.63637e-17 0)
(-0.02 4.40847e-17 0)
(-0.02 -4.99515e-17 0)
(-0.02 3.73493e-17 0)
(-0.02 8.69686e-18 0)
(-0.02 -3.02393e-17 0)
(-0.02 9.11335e-18 0)
(-0.02 1.1618e-18 0)
(-0.02 3.03333e-17 0)
(-0.02 -4.28887e-17 0)
(-0.02 1.79827e-17 0)
(-0.02 -3.27633e-18 0)
(-0.02 1.21153e-17 0)
(-0.02 -3.20744e-17 0)
(-0.02 4.12173e-17 0)
(-0.02 7.09987e-18 0)
(-0.02 -7.15875e-17 0)
(-0.02 4.14926e-17 0)
(0 3.79462e-19 0)
(0 -1.05626e-18 0)
(1.65436e-18 -1.61555e-18 0)
(-1.65436e-18 1.57829e-18 0)
(0 -3.2538e-20 0)
(-1.65436e-18 1.48941e-18 0)
(0 -2.66773e-19 0)
(1.65436e-18 -1.80769e-18 0)
(-1.65436e-18 1.85322e-18 0)
(-1.65436e-18 7.82083e-19 0)
(1.65436e-18 -2.19107e-18 0)
(-1.65436e-18 1.87344e-18 0)
(1.65436e-18 -1.55321e-18 0)
(-1.65436e-18 4.8969e-19 0)
(0 4.20695e-19 0)
(-1.65436e-18 1.35046e-18 0)
(0 5.85187e-20 0)
(1.65436e-18 -2.02729e-18 0)
(0 -7.87622e-19 0)
(-1.65436e-18 1.06276e-18 0)
(-0.02 7.33633e-17 0)
(9.76073e-17 -9.929e-17 0)
(-3.14329e-17 3.14445e-17 0)
(4.96308e-18 -3.52948e-18 0)
(-3.30872e-18 2.65842e-18 0)
(-1.65436e-18 3.8265e-19 0)
(0 -7.25206e-20 0)
(1.65436e-18 -1.74707e-19 0)
(-1.65436e-18 4.43536e-19 0)
(-1.65436e-18 3.51546e-18 0)
(-1.65436e-18 1.16777e-18 0)
(0 -1.77087e-20 0)
(0 -1.08417e-19 0)
(-1.65436e-18 1.3098e-18 0)
(-1.65436e-18 2.17451e-18 0)
(-1.65436e-18 1.39806e-18 0)
(0 4.96834e-19 0)
(0 -2.19681e-19 0)
(1.65436e-18 -1.55621e-18 0)
(0 3.79462e-19 0)
)
;
    }
    frontAndBack
    {
        type            empty;
    }
}


// ************************************************************************* //
