/*--------------------------------*- C++ -*----------------------------------*\
| =========                 |                                                 |
| \\      /  F ield         | OpenFOAM: The Open Source CFD Toolbox           |
|  \\    /   O peration     | Version:  2506                                  |
|   \\  /    A nd           | Website:  www.openfoam.com                      |
|    \\/     M anipulation  |                                                 |
\*---------------------------------------------------------------------------*/
FoamFile
{
    version     2.0;
    format      ascii;
    arch        "LSB;label=32;scalar=64";
    class       volTensorField;
    location    "5.75";
    object      gradU;
}
// * * * * * * * * * * * * * * * * * * * * * * * * * * * * * * * * * * * * * //

dimensions      [0 0 -1 0 0 0 0];

internalField   nonuniform List<tensor> 
400
(
(-4.87891e-13 7.14271e-12 0 8.40257e-13 1.22384e-11 0 0 0 0)
(1.02999e-12 -8.55692e-12 0 -1.0842e-13 -2.5008e-12 0 0 0 0)
(-2.98156e-13 1.77854e-12 0 8.13152e-14 6.37804e-13 0 0 0 0)
(-2.71051e-14 -4.17819e-13 0 5.42101e-14 -1.05129e-13 0 0 0 0)
(-2.71051e-14 8.80166e-14 0 5.42101e-14 4.95709e-14 0 0 0 0)
(0 -2.5588e-14 0 2.71051e-14 5.31269e-15 0 0 0 0)
(-2.71051e-14 3.60654e-16 0 0 7.55766e-15 0 0 0 0)
(2.71051e-14 8.74516e-15 0 2.71051e-14 1.93415e-15 0 0 0 0)
(0 2.28717e-14 0 0 2.23636e-14 0 0 0 0)
(-1.0842e-13 -6.07289e-15 0 0 4.66976e-14 0 0 0 0)
(-2.71051e-14 -2.66297e-14 0 0 1.95912e-14 0 0 0 0)
(2.71051e-14 -1.0618e-14 0 0 7.69544e-15 0 0 0 0)
(0 7.40503e-15 0 0 7.87069e-15 0 0 0 0)
(-2.71051e-14 1.84309e-14 0 0 2.33753e-14 0 0 0 0)
(-5.42101e-14 5.12305e-15 0 -5.42101e-14 2.87242e-14 0 0 0 0)
(-5.42101e-14 -1.00934e-14 0 -8.13152e-14 2.08158e-14 0 0 0 0)
(5.42101e-14 -1.19781e-14 0 0 3.66288e-15 0 0 0 0)
(0 -1.21103e-14 0 0 -4.48537e-15 0 0 0 0)
(0 3.55949e-16 0 0 -1.71071e-14 0 0 0 0)
(0 5.27305e-15 0 0 -1.71118e-15 0 0 0 0)
(1.24683e-12 2.59487e-12 0 3.52366e-13 -1.97505e-11 0 0 0 0)
(-1.76183e-12 -3.04366e-12 0 -3.52366e-13 4.2261e-12 0 0 0 0)
(4.06576e-13 6.17133e-13 0 -1.35525e-13 -9.64433e-13 0 0 0 0)
(-5.42101e-14 -1.70414e-13 0 -1.0842e-13 2.28832e-13 0 0 0 0)
(5.42101e-14 2.24247e-14 0 -1.6263e-13 -4.16115e-14 0 0 0 0)
(0 -1.64252e-14 0 -1.0842e-13 1.47982e-14 0 0 0 0)
(-5.42101e-14 -3.7392e-15 0 -8.13152e-14 4.13775e-15 0 0 0 0)
(0 6.06074e-15 0 -1.0842e-13 -2.05005e-15 0 0 0 0)
(0 2.18918e-14 0 -1.89735e-13 -1.97012e-14 0 0 0 0)
(1.0842e-13 3.30047e-15 0 -1.35525e-13 -3.50936e-14 0 0 0 0)
(0 -1.23724e-14 0 -8.13152e-14 -1.0484e-14 0 0 0 0)
(0 -1.10242e-15 0 -5.42101e-14 -2.16329e-16 0 0 0 0)
(-5.42101e-14 8.27484e-15 0 -1.35525e-13 9.40561e-15 0 0 0 0)
(0 2.42261e-15 0 -5.42101e-14 -2.08885e-15 0 0 0 0)
(5.42101e-14 -7.68253e-15 0 -2.71051e-14 -2.36079e-14 0 0 0 0)
(0 -1.4968e-14 0 2.71051e-14 -2.64247e-14 0 0 0 0)
(8.13152e-14 -1.33232e-14 0 0 -2.27627e-14 0 0 0 0)
(-5.42101e-14 -8.65968e-15 0 0 -1.31056e-14 0 0 0 0)
(0 2.41825e-15 0 -5.42101e-14 -1.3143e-14 0 0 0 0)
(5.42101e-14 1.35452e-14 0 -5.42101e-14 -1.43159e-14 0 0 0 0)
(-4.33681e-13 -8.3817e-12 0 -2.24972e-12 3.87226e-12 0 0 0 0)
(4.87891e-13 1.02292e-11 0 7.58942e-13 -8.69645e-13 0 0 0 0)
(-1.35525e-13 -2.21873e-12 0 8.13152e-14 1.79686e-13 0 0 0 0)
(2.71051e-14 5.05003e-13 0 1.35525e-13 -4.68471e-14 0 0 0 0)
(0 -1.26017e-13 0 1.89735e-13 8.61689e-15 0 0 0 0)
(0 2.01612e-14 0 1.35525e-13 3.22524e-15 0 0 0 0)
(0 -1.64876e-14 0 1.35525e-13 4.48455e-15 0 0 0 0)
(0 -1.50938e-14 0 1.35525e-13 1.00619e-14 0 0 0 0)
(-2.71051e-14 -1.01718e-14 0 2.1684e-13 7.81465e-15 0 0 0 0)
(0 3.14434e-15 0 8.13152e-14 -1.73871e-14 0 0 0 0)
(0 8.24753e-15 0 8.13152e-14 -1.48081e-14 0 0 0 0)
(0 9.27158e-15 0 1.0842e-13 -2.74087e-15 0 0 0 0)
(0 5.53251e-15 0 8.13152e-14 4.22117e-15 0 0 0 0)
(2.71051e-14 -1.45826e-14 0 5.42101e-14 -6.97434e-15 0 0 0 0)
(0 -1.92128e-14 0 8.13152e-14 -1.37979e-14 0 0 0 0)
(5.42101e-14 -9.24816e-15 0 8.13152e-14 -1.94449e-14 0 0 0 0)
(0 1.34106e-15 0 0 -9.34807e-15 0 0 0 0)
(-5.42101e-14 -2.49052e-15 0 2.71051e-14 -8.49643e-15 0 0 0 0)
(0 -8.5437e-16 0 5.42101e-14 -1.23425e-14 0 0 0 0)
(5.42101e-14 3.27319e-14 0 5.42101e-14 -1.07817e-14 0 0 0 0)
(-3.25261e-13 5.59749e-12 0 9.75782e-13 9.66352e-12 0 0 0 0)
(5.96311e-13 -6.73623e-12 0 -2.71051e-13 -2.03885e-12 0 0 0 0)
(-1.6263e-13 1.43993e-12 0 5.42101e-14 4.84013e-13 0 0 0 0)
(0 -3.41483e-13 0 5.42101e-14 -1.06041e-13 0 0 0 0)
(0 7.24971e-14 0 2.71051e-14 3.51925e-14 0 0 0 0)
(-2.71051e-14 -2.05575e-14 0 0 7.26826e-15 0 0 0 0)
(2.71051e-14 3.09743e-15 0 2.71051e-14 1.94797e-15 0 0 0 0)
(-2.71051e-14 9.39084e-15 0 0 9.1724e-15 0 0 0 0)
(-5.42101e-14 -5.55714e-15 0 2.71051e-14 1.80741e-14 0 0 0 0)
(0 -1.93223e-14 0 8.13152e-14 1.51438e-14 0 0 0 0)
(5.42101e-14 2.27374e-15 0 2.71051e-14 5.63662e-15 0 0 0 0)
(0 1.79269e-14 0 -5.42101e-14 6.32883e-15 0 0 0 0)
(-2.71051e-14 4.04138e-15 0 5.42101e-14 2.07697e-16 0 0 0 0)
(-2.71051e-14 -1.55965e-14 0 5.42101e-14 -6.69389e-15 0 0 0 0)
(0 -2.0153e-14 0 5.42101e-14 4.14007e-15 0 0 0 0)
(0 -1.05181e-14 0 2.71051e-14 9.08724e-15 0 0 0 0)
(0 -2.37472e-15 0 0 1.37734e-14 0 0 0 0)
(0 -1.16541e-14 0 2.71051e-14 7.68582e-15 0 0 0 0)
(-2.71051e-14 1.32972e-16 0 2.71051e-14 9.53814e-15 0 0 0 0)
(-2.71051e-14 3.66694e-14 0 2.71051e-14 5.62638e-15 0 0 0 0)
(2.71051e-13 -7.57037e-13 0 3.25261e-13 -1.14216e-11 0 0 0 0)
(-4.87891e-13 1.04965e-12 0 -1.89735e-13 2.40435e-12 0 0 0 0)
(2.43945e-13 -2.85919e-13 0 -2.71051e-14 -5.48057e-13 0 0 0 0)
(0 5.61826e-14 0 -1.0842e-13 1.33111e-13 0 0 0 0)
(-2.71051e-14 -1.27074e-14 0 -8.13152e-14 -1.63251e-14 0 0 0 0)
(-2.71051e-14 -1.30833e-14 0 -5.42101e-14 1.28535e-14 0 0 0 0)
(0 -1.45834e-14 0 -2.71051e-14 1.38234e-14 0 0 0 0)
(-5.42101e-14 1.03234e-15 0 -2.71051e-14 1.10285e-14 0 0 0 0)
(5.42101e-14 -4.20044e-15 0 0 -5.64063e-15 0 0 0 0)
(0 -9.29318e-15 0 2.71051e-14 5.67098e-15 0 0 0 0)
(-8.13152e-14 -5.67449e-16 0 0 9.55985e-15 0 0 0 0)
(0 3.84266e-15 0 0 -1.32916e-14 0 0 0 0)
(2.71051e-14 -7.49021e-15 0 0 -2.88731e-14 0 0 0 0)
(1.0842e-13 -1.06502e-14 0 0 -1.93721e-14 0 0 0 0)
(0 -3.43164e-15 0 -2.71051e-14 -1.42052e-15 0 0 0 0)
(-5.42101e-14 3.85137e-16 0 -2.71051e-14 8.19293e-15 0 0 0 0)
(0 -6.03595e-17 0 0 7.33628e-15 0 0 0 0)
(2.71051e-14 -6.72575e-15 0 -2.71051e-14 7.76038e-15 0 0 0 0)
(-2.71051e-14 -2.91382e-15 0 0 2.54063e-14 0 0 0 0)
(0 1.75674e-14 0 2.71051e-14 1.25306e-14 0 0 0 0)
(-2.1684e-13 -3.41973e-12 0 -6.50521e-13 6.98505e-12 0 0 0 0)
(2.71051e-13 4.13728e-12 0 2.71051e-13 -1.53537e-12 0 0 0 0)
(-5.42101e-14 -8.31304e-13 0 0 3.1635e-13 0 0 0 0)
(-5.42101e-14 1.90249e-13 0 0 -9.19632e-14 0 0 0 0)
(5.42101e-14 -4.77609e-14 0 2.71051e-14 -2.2909e-14 0 0 0 0)
(5.42101e-14 9.59097e-15 0 2.71051e-14 -3.76917e-14 0 0 0 0)
(2.71051e-14 1.27242e-15 0 0 -9.17852e-15 0 0 0 0)
(0 -1.00732e-14 0 2.71051e-14 8.10867e-17 0 0 0 0)
(0 -1.09146e-14 0 2.71051e-14 -5.22542e-15 0 0 0 0)
(-2.71051e-14 -4.12181e-15 0 5.42101e-14 3.77965e-15 0 0 0 0)
(2.71051e-14 -1.66888e-14 0 5.42101e-14 7.37605e-15 0 0 0 0)
(0 -2.05061e-14 0 8.13152e-14 3.10369e-15 0 0 0 0)
(0 -2.0391e-15 0 1.0842e-13 9.79004e-15 0 0 0 0)
(-2.71051e-14 1.18561e-14 0 0 1.49243e-14 0 0 0 0)
(-2.71051e-14 7.41196e-15 0 0 1.46379e-14 0 0 0 0)
(0 -1.76134e-15 0 0 1.19952e-14 0 0 0 0)
(0 -2.80727e-15 0 2.71051e-14 3.02713e-15 0 0 0 0)
(0 6.41594e-15 0 -2.71051e-14 8.54058e-16 0 0 0 0)
(2.71051e-14 4.90323e-15 0 0 1.61903e-14 0 0 0 0)
(-5.42101e-14 -1.26754e-15 0 0 1.35866e-14 0 0 0 0)
(-8.13152e-14 4.69265e-12 0 2.1684e-13 2.66772e-12 0 0 0 0)
(2.1684e-13 -5.61905e-12 0 -1.35525e-13 -5.49429e-13 0 0 0 0)
(-8.13152e-14 1.15749e-12 0 -1.35525e-13 9.97795e-14 0 0 0 0)
(0 -2.83076e-13 0 5.42101e-14 -3.96333e-14 0 0 0 0)
(0 4.15641e-14 0 -2.71051e-14 4.66825e-15 0 0 0 0)
(0 6.47114e-16 0 -2.71051e-14 -4.96837e-15 0 0 0 0)
(0 2.31893e-14 0 -1.0842e-13 -1.52181e-14 0 0 0 0)
(0 4.98545e-15 0 -5.42101e-14 -1.99866e-14 0 0 0 0)
(8.13152e-14 -5.0187e-16 0 -5.42101e-14 -1.48959e-14 0 0 0 0)
(0 3.30829e-15 0 -8.13152e-14 -2.675e-15 0 0 0 0)
(-5.42101e-14 -1.24341e-15 0 -2.71051e-14 4.63993e-15 0 0 0 0)
(2.71051e-14 6.25664e-15 0 -2.71051e-14 1.91621e-14 0 0 0 0)
(-2.71051e-14 4.33042e-15 0 -8.13152e-14 2.44868e-14 0 0 0 0)
(-2.71051e-14 -5.80242e-15 0 -5.42101e-14 7.93208e-15 0 0 0 0)
(0 -6.36077e-15 0 -2.71051e-14 4.09668e-16 0 0 0 0)
(-2.71051e-14 -1.12256e-14 0 -2.71051e-14 6.06833e-15 0 0 0 0)
(0 -1.12015e-14 0 -2.71051e-14 1.21129e-14 0 0 0 0)
(-2.71051e-14 6.43744e-15 0 0 1.20971e-14 0 0 0 0)
(2.71051e-14 9.81873e-15 0 -8.13152e-14 -3.02789e-15 0 0 0 0)
(-2.71051e-14 -1.22096e-14 0 -2.71051e-14 -2.99671e-15 0 0 0 0)
(-1.35525e-13 -1.30144e-12 0 4.87891e-13 -8.73259e-12 0 0 0 0)
(-1.35525e-13 1.56934e-12 0 -1.35525e-13 1.80315e-12 0 0 0 0)
(1.35525e-13 -3.21508e-13 0 0 -4.23584e-13 0 0 0 0)
(1.35525e-13 9.51376e-14 0 -1.35525e-13 7.29764e-14 0 0 0 0)
(-5.42101e-14 -1.3096e-14 0 -8.13152e-14 -1.1933e-14 0 0 0 0)
(0 -1.02954e-14 0 -5.42101e-14 1.38082e-14 0 0 0 0)
(-2.71051e-14 -1.37458e-14 0 -2.71051e-14 -3.56371e-16 0 0 0 0)
(0 -9.75095e-15 0 -8.13152e-14 -1.26331e-14 0 0 0 0)
(0 6.39694e-15 0 -8.13152e-14 -1.74379e-14 0 0 0 0)
(2.71051e-14 1.5414e-14 0 -1.0842e-13 -2.18369e-14 0 0 0 0)
(5.42101e-14 5.1483e-15 0 -5.42101e-14 -1.44758e-14 0 0 0 0)
(-5.42101e-14 -6.5923e-16 0 -5.42101e-14 -8.07164e-15 0 0 0 0)
(0 -1.32692e-14 0 -2.71051e-14 -2.41104e-14 0 0 0 0)
(0 -1.2221e-14 0 5.42101e-14 -1.92121e-14 0 0 0 0)
(5.42101e-14 5.5482e-15 0 0 -9.72914e-15 0 0 0 0)
(0 9.94193e-15 0 2.71051e-14 4.15799e-15 0 0 0 0)
(0 3.22146e-15 0 0 1.20329e-14 0 0 0 0)
(-5.42101e-14 -8.72489e-15 0 2.71051e-14 1.37156e-14 0 0 0 0)
(5.42101e-14 -1.01905e-14 0 5.42101e-14 -6.20102e-15 0 0 0 0)
(0 4.75706e-15 0 -2.71051e-14 -9.7503e-15 0 0 0 0)
(2.98156e-13 -2.23679e-12 0 -1.0842e-13 5.48263e-12 0 0 0 0)
(-2.71051e-13 2.68996e-12 0 1.89735e-13 -1.0468e-12 0 0 0 0)
(-8.13152e-14 -5.72692e-13 0 1.35525e-13 2.84721e-13 0 0 0 0)
(-8.13152e-14 1.28575e-13 0 2.71051e-14 -4.30601e-14 0 0 0 0)
(5.42101e-14 -1.76041e-14 0 2.71051e-14 -7.61838e-16 0 0 0 0)
(0 1.22237e-14 0 0 5.68249e-16 0 0 0 0)
(0 -3.25197e-15 0 0 7.08361e-15 0 0 0 0)
(2.71051e-14 -1.20961e-14 0 2.71051e-14 -3.47804e-16 0 0 0 0)
(-2.71051e-14 -9.7057e-15 0 5.42101e-14 -7.69667e-15 0 0 0 0)
(2.71051e-14 6.27043e-15 0 2.71051e-14 -2.10585e-14 0 0 0 0)
(5.42101e-14 1.25218e-14 0 0 -2.24432e-14 0 0 0 0)
(2.71051e-14 -3.37796e-15 0 -5.42101e-14 -1.7186e-14 0 0 0 0)
(2.71051e-14 -6.81001e-15 0 -5.42101e-14 -1.72684e-14 0 0 0 0)
(2.71051e-14 8.5788e-15 0 -5.42101e-14 -2.47202e-15 0 0 0 0)
(-2.71051e-14 1.70093e-14 0 0 2.64783e-15 0 0 0 0)
(0 1.05365e-14 0 -2.71051e-14 7.18907e-17 0 0 0 0)
(0 -1.64386e-15 0 2.71051e-14 -7.69467e-15 0 0 0 0)
(-2.71051e-14 -1.17965e-14 0 0 3.01313e-16 0 0 0 0)
(0 -1.36472e-14 0 2.71051e-14 1.25847e-14 0 0 0 0)
(-2.71051e-14 3.74177e-15 0 2.71051e-14 1.21511e-14 0 0 0 0)
(-5.42101e-14 3.13439e-12 0 -1.57209e-12 -2.42006e-13 0 0 0 0)
(1.0842e-13 -3.62857e-12 0 1.6263e-13 -7.93693e-15 0 0 0 0)
(-2.71051e-14 6.82227e-13 0 -1.89735e-13 6.47992e-15 0 0 0 0)
(0 -1.90345e-13 0 8.13152e-14 1.12527e-14 0 0 0 0)
(-2.71051e-14 3.05323e-14 0 8.13152e-14 8.57313e-15 0 0 0 0)
(0 -2.44997e-15 0 8.13152e-14 -4.22483e-15 0 0 0 0)
(-5.42101e-14 -1.46618e-14 0 8.13152e-14 -1.07973e-14 0 0 0 0)
(5.42101e-14 -2.45312e-14 0 1.0842e-13 -5.73113e-15 0 0 0 0)
(0 -1.43137e-14 0 5.42101e-14 6.87426e-15 0 0 0 0)
(-5.42101e-14 6.67516e-16 0 1.0842e-13 2.46886e-14 0 0 0 0)
(-2.71051e-14 9.02073e-15 0 5.42101e-14 1.97729e-14 0 0 0 0)
(0 4.51557e-15 0 5.42101e-14 -3.83364e-15 0 0 0 0)
(0 1.44487e-15 0 5.42101e-14 -7.26497e-15 0 0 0 0)
(0 7.69517e-15 0 -5.42101e-14 -2.61071e-15 0 0 0 0)
(0 8.09212e-15 0 -5.42101e-14 -8.73011e-15 0 0 0 0)
(8.13152e-14 -4.00574e-16 0 -5.42101e-14 -1.43971e-14 0 0 0 0)
(2.71051e-14 3.45088e-15 0 -2.71051e-14 -9.1819e-15 0 0 0 0)
(0 1.15545e-14 0 -2.71051e-14 -5.90201e-15 0 0 0 0)
(0 1.6592e-15 0 -2.71051e-14 -1.66929e-15 0 0 0 0)
(-2.71051e-14 -1.99787e-14 0 -2.71051e-14 6.7008e-15 0 0 0 0)
(-1.11131e-12 -2.48674e-12 0 2.00577e-12 -1.69856e-12 0 0 0 0)
(1.16552e-12 2.93845e-12 0 -2.71051e-13 2.47604e-13 0 0 0 0)
(-1.89735e-13 -5.53502e-13 0 2.43945e-13 -1.06664e-13 0 0 0 0)
(1.35525e-13 1.30669e-13 0 -2.71051e-14 1.56785e-15 0 0 0 0)
(2.71051e-14 -3.30816e-14 0 0 -1.79227e-14 0 0 0 0)
(2.71051e-14 -7.14666e-15 0 2.71051e-14 -2.35926e-14 0 0 0 0)
(2.71051e-14 -4.75826e-15 0 0 -1.4906e-14 0 0 0 0)
(5.42101e-14 5.57545e-15 0 -2.71051e-14 2.53689e-15 0 0 0 0)
(0 2.07141e-14 0 -5.42101e-14 1.5828e-14 0 0 0 0)
(0 1.9169e-14 0 -5.42101e-14 1.99331e-14 0 0 0 0)
(-5.42101e-14 -1.60004e-14 0 -5.42101e-14 1.34284e-14 0 0 0 0)
(-2.71051e-14 -3.04158e-14 0 5.42101e-14 8.78069e-15 0 0 0 0)
(0 -5.58708e-15 0 0 1.40476e-14 0 0 0 0)
(-2.71051e-14 7.11366e-15 0 5.42101e-14 1.31611e-14 0 0 0 0)
(0 5.22288e-15 0 0 3.0796e-15 0 0 0 0)
(-2.71051e-14 1.00847e-14 0 5.42101e-14 1.72567e-15 0 0 0 0)
(-5.42101e-14 6.85126e-15 0 -5.42101e-14 7.68115e-15 0 0 0 0)
(0 -4.2839e-15 0 0 -4.75199e-15 0 0 0 0)
(5.42101e-14 -1.04439e-15 0 0 -1.39572e-14 0 0 0 0)
(0 -1.28974e-15 0 2.71051e-14 -8.63067e-15 0 0 0 0)
(1.65341e-12 1.68343e-12 0 -1.6263e-13 3.62956e-12 0 0 0 0)
(-1.6263e-12 -2.03667e-12 0 5.42101e-14 -6.57486e-13 0 0 0 0)
(2.1684e-13 4.36191e-13 0 -5.42101e-14 1.6572e-13 0 0 0 0)
(-2.1684e-13 -1.01604e-13 0 0 -1.31598e-14 0 0 0 0)
(2.71051e-14 5.3719e-15 0 0 2.32084e-14 0 0 0 0)
(-5.42101e-14 5.6672e-16 0 -1.0842e-13 2.55625e-14 0 0 0 0)
(-8.13152e-14 1.14676e-14 0 -8.13152e-14 3.18801e-14 0 0 0 0)
(0 6.20285e-15 0 -1.0842e-13 2.55344e-14 0 0 0 0)
(-5.42101e-14 3.08251e-15 0 -8.13152e-14 1.76737e-14 0 0 0 0)
(0 -1.73212e-15 0 -8.13152e-14 -2.59948e-14 0 0 0 0)
(5.42101e-14 -2.13171e-15 0 -8.13152e-14 -4.82716e-14 0 0 0 0)
(2.71051e-14 5.13476e-15 0 -5.42101e-14 -9.2911e-15 0 0 0 0)
(0 5.82524e-15 0 -8.13152e-14 1.87388e-14 0 0 0 0)
(0 -3.27283e-15 0 -5.42101e-14 7.21143e-15 0 0 0 0)
(0 -3.34328e-15 0 0 2.19674e-15 0 0 0 0)
(0 4.20098e-15 0 -5.42101e-14 -3.80904e-16 0 0 0 0)
(5.42101e-14 -3.02678e-15 0 0 -8.01398e-15 0 0 0 0)
(5.42101e-14 -1.00839e-14 0 2.71051e-14 -9.7826e-15 0 0 0 0)
(-2.71051e-14 -2.21948e-15 0 0 -1.20673e-15 0 0 0 0)
(-2.71051e-14 2.60916e-15 0 0 -3.51992e-16 0 0 0 0)
(-1.19262e-12 4.85338e-13 0 -1.13841e-12 -6.0357e-12 0 0 0 0)
(1.21973e-12 -5.25394e-13 0 1.35525e-13 1.27006e-12 0 0 0 0)
(-2.1684e-13 9.08242e-14 0 -1.35525e-13 -2.98211e-13 0 0 0 0)
(1.89735e-13 -1.18429e-14 0 0 5.15796e-14 0 0 0 0)
(-8.13152e-14 5.64062e-15 0 -2.71051e-14 6.42829e-15 0 0 0 0)
(-5.42101e-14 1.52502e-15 0 5.42101e-14 2.73719e-14 0 0 0 0)
(0 -4.78633e-15 0 2.71051e-14 1.70583e-14 0 0 0 0)
(5.42101e-14 -8.63096e-15 0 2.71051e-14 3.62031e-15 0 0 0 0)
(0 -3.08151e-14 0 8.13152e-14 -7.081e-15 0 0 0 0)
(2.71051e-14 -4.67762e-14 0 1.0842e-13 -1.92686e-14 0 0 0 0)
(0 7.0324e-16 0 1.35525e-13 -1.12908e-14 0 0 0 0)
(-2.71051e-14 3.65945e-14 0 0 9.68664e-16 0 0 0 0)
(0 1.09154e-14 0 2.71051e-14 1.36094e-15 0 0 0 0)
(0 -9.42836e-15 0 5.42101e-14 -6.67154e-17 0 0 0 0)
(2.71051e-14 -2.36946e-15 0 8.13152e-14 3.92771e-15 0 0 0 0)
(0 -1.26017e-16 0 5.42101e-14 -4.65785e-15 0 0 0 0)
(0 -2.55043e-15 0 5.42101e-14 -1.26578e-14 0 0 0 0)
(0 2.52335e-15 0 0 -1.08817e-14 0 0 0 0)
(5.42101e-14 8.38621e-15 0 0 -8.28019e-15 0 0 0 0)
(0 2.68982e-16 0 0 -1.85321e-15 0 0 0 0)
(6.77626e-13 -3.08221e-12 0 9.21572e-13 4.95018e-12 0 0 0 0)
(-6.50521e-13 3.70082e-12 0 -5.42101e-14 -1.06733e-12 0 0 0 0)
(8.13152e-14 -7.82287e-13 0 1.35525e-13 2.44746e-13 0 0 0 0)
(-8.13152e-14 2.03036e-13 0 0 -5.57068e-14 0 0 0 0)
(2.71051e-14 -1.88358e-14 0 0 8.71117e-15 0 0 0 0)
(0 1.11967e-14 0 0 -8.7461e-15 0 0 0 0)
(0 -1.2284e-14 0 1.0842e-13 -9.8765e-15 0 0 0 0)
(0 -1.79364e-14 0 8.13152e-14 -2.02919e-14 0 0 0 0)
(2.71051e-14 -1.98064e-14 0 5.42101e-14 -1.80041e-14 0 0 0 0)
(0 -5.94197e-15 0 2.71051e-14 1.44489e-14 0 0 0 0)
(0 1.81056e-14 0 -5.42101e-14 3.93843e-14 0 0 0 0)
(-2.71051e-14 1.77865e-14 0 0 1.67369e-14 0 0 0 0)
(0 4.78986e-15 0 5.42101e-14 -1.40642e-15 0 0 0 0)
(0 -7.06061e-16 0 2.71051e-14 5.3552e-15 0 0 0 0)
(-2.71051e-14 -7.93441e-15 0 2.71051e-14 9.87634e-15 0 0 0 0)
(-2.71051e-14 -1.23845e-14 0 0 -6.45796e-16 0 0 0 0)
(0 -9.25064e-15 0 2.71051e-14 -5.23573e-15 0 0 0 0)
(2.71051e-14 -5.70625e-15 0 -2.71051e-14 3.60743e-15 0 0 0 0)
(2.71051e-14 6.80903e-15 0 0 2.9866e-15 0 0 0 0)
(-5.42101e-14 1.27426e-14 0 0 -1.16569e-15 0 0 0 0)
(-3.52366e-13 4.36818e-12 0 -2.98156e-13 1.7598e-13 0 0 0 0)
(4.87891e-13 -5.23083e-12 0 -5.42101e-14 -2.48175e-14 0 0 0 0)
(-2.1684e-13 1.10245e-12 0 -1.35525e-13 3.83706e-14 0 0 0 0)
(2.71051e-14 -2.47878e-13 0 -5.42101e-14 1.66424e-14 0 0 0 0)
(-2.71051e-14 5.26014e-14 0 -5.42101e-14 -6.43748e-15 0 0 0 0)
(8.13152e-14 -1.70626e-14 0 0 -1.39302e-14 0 0 0 0)
(0 -1.63321e-14 0 -2.71051e-14 -1.08013e-14 0 0 0 0)
(0 -1.67585e-14 0 0 -7.75971e-16 0 0 0 0)
(2.71051e-14 3.92563e-15 0 -2.71051e-14 8.74105e-15 0 0 0 0)
(-8.13152e-14 1.06122e-14 0 -5.42101e-14 2.70183e-14 0 0 0 0)
(-2.71051e-14 2.99132e-15 0 0 1.32119e-14 0 0 0 0)
(0 -4.19623e-15 0 -5.42101e-14 -1.63382e-14 0 0 0 0)
(2.71051e-14 -4.66303e-16 0 2.71051e-14 -2.53669e-14 0 0 0 0)
(5.42101e-14 1.85441e-15 0 0 -1.84115e-14 0 0 0 0)
(0 -8.37045e-15 0 -2.71051e-14 -1.37163e-14 0 0 0 0)
(2.71051e-14 -1.52381e-14 0 5.42101e-14 -6.93716e-15 0 0 0 0)
(0 1.7028e-15 0 2.71051e-14 -3.18317e-15 0 0 0 0)
(-2.71051e-14 1.07457e-14 0 0 1.03157e-14 0 0 0 0)
(0 3.61309e-15 0 2.71051e-14 2.10767e-14 0 0 0 0)
(0 -1.55193e-15 0 0 1.17928e-14 0 0 0 0)
(3.25261e-13 -2.93105e-12 0 8.13152e-14 -6.33777e-12 0 0 0 0)
(-5.14996e-13 3.56321e-12 0 0 1.3566e-12 0 0 0 0)
(1.0842e-13 -7.40827e-13 0 8.13152e-14 -2.9016e-13 0 0 0 0)
(2.71051e-14 1.58228e-13 0 5.42101e-14 6.24409e-14 0 0 0 0)
(5.42101e-14 -4.94084e-14 0 8.13152e-14 -3.92159e-14 0 0 0 0)
(2.71051e-14 6.83282e-15 0 0 -3.08375e-14 0 0 0 0)
(2.71051e-14 8.7018e-16 0 -2.71051e-14 -3.89098e-14 0 0 0 0)
(-2.71051e-14 1.60599e-15 0 2.71051e-14 -1.12838e-14 0 0 0 0)
(0 7.9879e-15 0 2.71051e-14 -1.18e-15 0 0 0 0)
(2.71051e-14 -1.47113e-15 0 5.42101e-14 4.64013e-15 0 0 0 0)
(-2.71051e-14 -2.52509e-14 0 5.42101e-14 -2.35603e-15 0 0 0 0)
(0 -2.07923e-14 0 1.0842e-13 -8.7406e-15 0 0 0 0)
(2.71051e-14 2.71654e-15 0 2.71051e-14 -8.12451e-15 0 0 0 0)
(0 1.09445e-14 0 5.42101e-14 -6.26241e-15 0 0 0 0)
(0 3.53992e-15 0 2.71051e-14 1.33043e-15 0 0 0 0)
(0 -1.85134e-15 0 0 6.5532e-15 0 0 0 0)
(-2.71051e-14 8.00219e-15 0 -5.42101e-14 8.96676e-15 0 0 0 0)
(0 1.85537e-14 0 0 1.84998e-15 0 0 0 0)
(2.71051e-14 8.28616e-15 0 -2.71051e-14 9.29361e-15 0 0 0 0)
(-5.42101e-14 -2.0127e-14 0 0 1.64891e-14 0 0 0 0)
(-2.71051e-13 -6.12984e-13 0 -1.0571e-12 9.07151e-12 0 0 0 0)
(5.14996e-13 8.16781e-13 0 2.1684e-13 -1.83241e-12 0 0 0 0)
(-1.6263e-13 -1.91708e-13 0 -5.42101e-14 4.20097e-13 0 0 0 0)
(-2.71051e-14 3.06601e-15 0 5.42101e-14 -9.39573e-14 0 0 0 0)
(0 -4.06771e-14 0 2.71051e-14 2.36522e-14 0 0 0 0)
(-5.42101e-14 -1.67565e-14 0 0 -2.55931e-15 0 0 0 0)
(5.42101e-14 3.22168e-15 0 0 -1.76966e-14 0 0 0 0)
(5.42101e-14 2.09712e-14 0 -2.71051e-14 -1.98322e-14 0 0 0 0)
(-2.71051e-14 1.98495e-14 0 -5.42101e-14 -5.85495e-15 0 0 0 0)
(0 9.43615e-15 0 -2.71051e-14 -2.09782e-15 0 0 0 0)
(-2.71051e-14 -1.03894e-14 0 0 9.38813e-15 0 0 0 0)
(0 -9.96471e-15 0 0 1.49777e-14 0 0 0 0)
(0 2.01189e-15 0 -5.42101e-14 4.18078e-15 0 0 0 0)
(0 1.13094e-14 0 -8.13152e-14 -1.30451e-14 0 0 0 0)
(0 4.44516e-15 0 -5.42101e-14 -7.82082e-15 0 0 0 0)
(-2.71051e-14 -7.60176e-15 0 0 1.11159e-14 0 0 0 0)
(-2.71051e-14 -3.00042e-15 0 0 1.96294e-14 0 0 0 0)
(0 1.10725e-14 0 -5.42101e-14 1.42954e-14 0 0 0 0)
(0 1.82522e-14 0 0 -3.1833e-15 0 0 0 0)
(0 -2.73346e-14 0 -2.71051e-14 -3.32873e-15 0 0 0 0)
(-5.42101e-13 4.30805e-12 0 1.21973e-12 -8.44052e-13 0 0 0 0)
(4.87891e-13 -5.08821e-12 0 -4.33681e-13 4.11267e-14 0 0 0 0)
(-8.13152e-14 9.97627e-13 0 -8.13152e-14 -6.43854e-14 0 0 0 0)
(1.35525e-13 -2.38217e-13 0 -5.42101e-14 -2.41144e-14 0 0 0 0)
(0 4.19896e-14 0 -5.42101e-14 1.44558e-14 0 0 0 0)
(0 -3.45159e-14 0 -5.42101e-14 2.66181e-14 0 0 0 0)
(-5.42101e-14 -1.64027e-14 0 -8.13152e-14 3.14374e-14 0 0 0 0)
(-2.71051e-14 1.34476e-14 0 -8.13152e-14 5.48024e-15 0 0 0 0)
(0 2.57223e-14 0 -8.13152e-14 -1.25461e-14 0 0 0 0)
(8.13152e-14 1.3772e-14 0 -1.0842e-13 -2.59682e-14 0 0 0 0)
(2.71051e-14 -8.17544e-15 0 -5.42101e-14 -8.8497e-15 0 0 0 0)
(-8.13152e-14 -2.59996e-14 0 -5.42101e-14 6.37397e-15 0 0 0 0)
(-2.71051e-14 -2.53062e-14 0 0 1.48466e-15 0 0 0 0)
(0 -1.05707e-15 0 -5.42101e-14 -9.31686e-15 0 0 0 0)
(8.13152e-14 2.77009e-14 0 -5.42101e-14 -1.90701e-14 0 0 0 0)
(2.71051e-14 2.55989e-14 0 -1.0842e-13 -1.14811e-15 0 0 0 0)
(0 1.11817e-14 0 -5.42101e-14 6.47586e-15 0 0 0 0)
(-2.71051e-14 -4.25905e-15 0 0 7.46409e-15 0 0 0 0)
(-5.42101e-14 -9.33796e-15 0 0 -8.82455e-15 0 0 0 0)
(5.42101e-14 -1.3615e-14 0 0 -2.41592e-14 0 0 0 0)
(5.42101e-13 -1.41591e-12 0 4.33681e-13 -1.2653e-11 0 0 0 0)
(-8.13152e-13 1.59645e-12 0 1.35525e-13 2.55883e-12 0 0 0 0)
(2.1684e-13 -2.56949e-13 0 2.1684e-13 -6.14632e-13 0 0 0 0)
(0 8.19072e-14 0 5.42101e-14 1.15989e-13 0 0 0 0)
(-2.71051e-14 1.00554e-14 0 5.42101e-14 -3.69548e-14 0 0 0 0)
(0 2.25106e-16 0 8.13152e-14 -1.86661e-15 0 0 0 0)
(2.71051e-14 -1.79161e-14 0 1.35525e-13 8.51716e-15 0 0 0 0)
(0 -2.30123e-14 0 1.0842e-13 7.56046e-15 0 0 0 0)
(-2.71051e-14 -1.15989e-14 0 1.35525e-13 -1.33869e-14 0 0 0 0)
(2.71051e-14 1.31326e-14 0 8.13152e-14 -3.23094e-14 0 0 0 0)
(5.42101e-14 2.19528e-14 0 2.71051e-14 -2.5099e-14 0 0 0 0)
(2.71051e-14 3.69639e-16 0 0 -2.86115e-15 0 0 0 0)
(0 -1.36789e-14 0 2.71051e-14 2.2129e-14 0 0 0 0)
(-2.71051e-14 -9.24543e-15 0 8.13152e-14 3.21674e-14 0 0 0 0)
(-8.13152e-14 1.26139e-14 0 5.42101e-14 2.07298e-14 0 0 0 0)
(0 1.79442e-14 0 5.42101e-14 -4.15504e-15 0 0 0 0)
(0 5.61178e-15 0 0 -1.71882e-14 0 0 0 0)
(8.13152e-14 -4.22788e-15 0 5.42101e-14 -2.50671e-14 0 0 0 0)
(0 -1.33711e-14 0 0 -1.12076e-14 0 0 0 0)
(0 5.6491e-15 0 2.71051e-14 -9.77413e-15 0 0 0 0)
(5.42101e-14 -5.78614e-12 0 -6.23416e-13 8.97899e-12 0 0 0 0)
(2.43945e-13 6.95018e-12 0 5.42101e-14 -1.77695e-12 0 0 0 0)
(-1.0842e-13 -1.44522e-12 0 -8.13152e-14 4.32362e-13 0 0 0 0)
(-2.71051e-14 3.39461e-13 0 -5.42101e-14 -7.47801e-14 0 0 0 0)
(0 -7.58659e-14 0 -5.42101e-14 1.09938e-14 0 0 0 0)
(-2.71051e-14 1.09561e-14 0 -2.71051e-14 -8.9696e-15 0 0 0 0)
(0 -6.97563e-15 0 -5.42101e-14 -1.87414e-16 0 0 0 0)
(0 -8.45646e-15 0 -5.42101e-14 1.59222e-14 0 0 0 0)
(-2.71051e-14 -1.41476e-14 0 -5.42101e-14 3.12814e-14 0 0 0 0)
(-5.42101e-14 2.05985e-15 0 0 4.16687e-14 0 0 0 0)
(-2.71051e-14 2.12728e-14 0 -2.71051e-14 1.6089e-14 0 0 0 0)
(0 2.12283e-14 0 0 -1.5569e-15 0 0 0 0)
(0 9.72237e-15 0 -2.71051e-14 -5.50901e-15 0 0 0 0)
(-2.71051e-14 -2.4562e-15 0 -2.71051e-14 2.39967e-15 0 0 0 0)
(2.71051e-14 -8.62163e-15 0 0 6.19262e-15 0 0 0 0)
(0 -1.23191e-14 0 0 -1.5926e-15 0 0 0 0)
(0 -9.73034e-15 0 5.42101e-14 5.67531e-16 0 0 0 0)
(-2.71051e-14 1.72154e-15 0 0 2.52596e-15 0 0 0 0)
(2.71051e-14 5.95501e-15 0 0 3.07387e-15 0 0 0 0)
(-2.71051e-14 7.36678e-15 0 -2.71051e-14 9.94201e-15 0 0 0 0)
)
;

boundaryField
{
    movingWall
    {
        type            extrapolatedCalculated;
        value           nonuniform List<tensor> 
20
(
(5.42101e-14 -5.78614e-12 0 5.32907e-13 2.92253e-11 0 0 0 0)
(2.43945e-13 6.95018e-12 0 -6.66134e-13 -6.08079e-12 0 0 0 0)
(-1.0842e-13 -1.44522e-12 0 -5.32907e-13 1.4246e-12 0 0 0 0)
(-2.71051e-14 3.39461e-13 0 -2.22045e-13 -2.99917e-13 0 0 0 0)
(0 -7.58659e-14 0 -3.55271e-13 6.67562e-14 0 0 0 0)
(-2.71051e-14 1.09561e-14 0 -2.66454e-13 3.54683e-15 0 0 0 0)
(0 -6.97563e-15 0 -3.10862e-13 2.2932e-14 0 0 0 0)
(0 -8.45646e-15 0 -2.66454e-13 3.14493e-14 0 0 0 0)
(-2.71051e-14 -1.41476e-14 0 -2.66454e-13 5.67578e-14 0 0 0 0)
(-5.42101e-14 2.05985e-15 0 -1.77636e-13 8.80398e-14 0 0 0 0)
(-2.71051e-14 2.12728e-14 0 -4.44089e-14 4.85184e-14 0 0 0 0)
(0 2.12283e-14 0 -4.44089e-14 2.94847e-15 0 0 0 0)
(0 9.72237e-15 0 0 -3.63949e-14 0 0 0 0)
(-2.71051e-14 -2.4562e-15 0 -4.44089e-14 -3.5941e-14 0 0 0 0)
(2.71051e-14 -8.62163e-15 0 0 -2.65701e-14 0 0 0 0)
(0 -1.23191e-14 0 -8.88178e-14 -1.45447e-15 0 0 0 0)
(0 -9.73034e-15 0 -4.44089e-14 2.27065e-14 0 0 0 0)
(-2.71051e-14 1.72154e-15 0 -4.44089e-14 3.74669e-14 0 0 0 0)
(2.71051e-14 5.95501e-15 0 0 1.58203e-14 0 0 0 0)
(-2.71051e-14 7.36678e-15 0 -4.44089e-14 1.36468e-14 0 0 0 0)
)
;
    }
    fixedWalls
    {
        type            extrapolatedCalculated;
        value           nonuniform List<tensor> 
60
(
(-3.55271e-12 3.60239e-11 0 8.40257e-13 1.22384e-11 0 0 0 0)
(6.92779e-12 1.29297e-11 0 3.52366e-13 -1.97505e-11 0 0 0 0)
(-2.13163e-12 -4.29782e-11 0 -2.24972e-12 3.87226e-12 0 0 0 0)
(-2.13163e-12 2.84187e-11 0 9.75782e-13 9.66352e-12 0 0 0 0)
(1.86517e-12 -4.32412e-12 0 3.25261e-13 -1.14216e-11 0 0 0 0)
(-8.88178e-13 -1.72675e-11 0 -6.50521e-13 6.98505e-12 0 0 0 0)
(-7.10543e-13 2.36161e-11 0 2.1684e-13 2.66772e-12 0 0 0 0)
(4.44089e-14 -6.59668e-12 0 4.87891e-13 -8.73259e-12 0 0 0 0)
(1.11022e-12 -1.13143e-11 0 -1.0842e-13 5.48263e-12 0 0 0 0)
(-4.44089e-13 1.53338e-11 0 -1.57209e-12 -2.42006e-13 0 0 0 0)
(-5.06262e-12 -1.22823e-11 0 2.00577e-12 -1.69856e-12 0 0 0 0)
(7.54952e-12 8.53959e-12 0 -1.6263e-13 3.62956e-12 0 0 0 0)
(-5.68434e-12 2.23592e-12 0 -1.13841e-12 -6.0357e-12 0 0 0 0)
(3.01981e-12 -1.56032e-11 0 9.21572e-13 4.95018e-12 0 0 0 0)
(-2.04281e-12 2.20366e-11 0 -2.98156e-13 1.7598e-13 0 0 0 0)
(1.95399e-12 -1.48993e-11 0 8.13152e-14 -6.33777e-12 0 0 0 0)
(-1.86517e-12 -3.31443e-12 0 -1.0571e-12 9.07151e-12 0 0 0 0)
(-2.30926e-12 2.13868e-11 0 1.21973e-12 -8.44052e-13 0 0 0 0)
(3.06422e-12 -6.69064e-12 0 4.33681e-13 -1.2653e-11 0 0 0 0)
(-5.32907e-13 -2.92253e-11 0 -6.23416e-13 8.97899e-12 0 0 0 0)
(0 -3.23945e-15 0 0 -1.71118e-15 0 0 0 0)
(8.88178e-14 1.00842e-14 0 -5.42101e-14 -1.43159e-14 0 0 0 0)
(8.88178e-14 5.40241e-14 0 5.42101e-14 -1.07817e-14 0 0 0 0)
(-4.44089e-14 5.3211e-14 0 2.71051e-14 5.62638e-15 0 0 0 0)
(-4.44089e-14 3.15186e-14 0 2.71051e-14 1.25306e-14 0 0 0 0)
(-8.88178e-14 3.08843e-15 0 0 1.35866e-14 0 0 0 0)
(-4.44089e-14 -2.28279e-14 0 -2.71051e-14 -2.99671e-15 0 0 0 0)
(0 1.50753e-14 0 -2.71051e-14 -9.7503e-15 0 0 0 0)
(-4.44089e-14 1.61733e-14 0 2.71051e-14 1.21511e-14 0 0 0 0)
(0 -3.35289e-14 0 -2.71051e-14 6.7008e-15 0 0 0 0)
(-4.44089e-14 -1.06299e-14 0 2.71051e-14 -8.63067e-15 0 0 0 0)
(-4.44089e-14 9.93748e-16 0 0 -3.51992e-16 0 0 0 0)
(0 -9.22188e-15 0 0 -1.85321e-15 0 0 0 0)
(-8.88178e-14 8.40659e-15 0 0 -1.16569e-15 0 0 0 0)
(0 -4.55913e-15 0 0 1.17928e-14 0 0 0 0)
(-8.88178e-14 -3.87646e-14 0 0 1.64891e-14 0 0 0 0)
(0 -7.05155e-14 0 -2.71051e-14 -3.32873e-15 0 0 0 0)
(8.88178e-14 -2.54497e-14 0 0 -2.41592e-14 0 0 0 0)
(0 2.61212e-14 0 2.71051e-14 -9.77413e-15 0 0 0 0)
(-4.44089e-14 1.36468e-14 0 -2.71051e-14 9.94201e-15 0 0 0 0)
(-4.87891e-13 7.14271e-12 0 -3.55271e-12 3.60239e-11 0 0 0 0)
(1.02999e-12 -8.55692e-12 0 1.68754e-12 -7.45302e-12 0 0 0 0)
(-2.98156e-13 1.77854e-12 0 4.44089e-13 1.79617e-12 0 0 0 0)
(-2.71051e-14 -4.17819e-13 0 4.88498e-13 -3.38861e-13 0 0 0 0)
(-2.71051e-14 8.80166e-14 0 3.9968e-13 1.24894e-13 0 0 0 0)
(0 -2.5588e-14 0 3.55271e-13 1.32051e-14 0 0 0 0)
(-2.71051e-14 3.60654e-16 0 3.55271e-13 2.25423e-14 0 0 0 0)
(2.71051e-14 8.74516e-15 0 3.10862e-13 1.46477e-14 0 0 0 0)
(0 2.28717e-14 0 3.9968e-13 5.7523e-14 0 0 0 0)
(-1.0842e-13 -6.07289e-15 0 2.66454e-13 1.06134e-13 0 0 0 0)
(-2.71051e-14 -2.66297e-14 0 8.88178e-14 3.32314e-14 0 0 0 0)
(2.71051e-14 -1.0618e-14 0 1.33227e-13 -3.84437e-16 0 0 0 0)
(0 7.40503e-15 0 2.22045e-13 -9.24078e-15 0 0 0 0)
(-2.71051e-14 1.84309e-14 0 1.33227e-13 2.92357e-14 0 0 0 0)
(-5.42101e-14 5.12305e-15 0 4.44089e-14 6.4483e-14 0 0 0 0)
(-5.42101e-14 -1.00934e-14 0 -8.88178e-14 4.97279e-14 0 0 0 0)
(5.42101e-14 -1.19781e-14 0 0 2.41095e-14 0 0 0 0)
(0 -1.21103e-14 0 -8.88178e-14 1.81565e-15 0 0 0 0)
(0 3.55949e-16 0 4.44089e-14 -2.43317e-14 0 0 0 0)
(0 5.27305e-15 0 0 3.23945e-15 0 0 0 0)
)
;
    }
    frontAndBack
    {
        type            empty;
    }
}


// ************************************************************************* //
