/*--------------------------------*- C++ -*----------------------------------*\
| =========                 |                                                 |
| \\      /  F ield         | OpenFOAM: The Open Source CFD Toolbox           |
|  \\    /   O peration     | Version:  2506                                  |
|   \\  /    A nd           | Website:  www.openfoam.com                      |
|    \\/     M anipulation  |                                                 |
\*---------------------------------------------------------------------------*/
FoamFile
{
    version     2.0;
    format      ascii;
    arch        "LSB;label=32;scalar=64";
    class       volVectorField;
    location    "5.75";
    object      LambVectorField;
}
// * * * * * * * * * * * * * * * * * * * * * * * * * * * * * * * * * * * * * //

dimensions      [0 1 -2 0 0 0 0];

internalField   nonuniform List<vector> 
400
(
(-5.67596e-25 -6.30245e-12 0)
(-1.57417e-25 8.4485e-12 -0)
(-7.62126e-27 -1.69723e-12 0)
(-3.99881e-28 4.72029e-13 -0)
(-1.05556e-29 -3.38065e-14 0)
(1.73954e-30 5.26931e-14 0)
(-2.03249e-32 -3.60654e-16 0)
(6.72326e-31 1.83599e-14 0)
(-3.28912e-30 -2.28717e-14 0)
(1.61136e-30 6.07289e-15 0)
(2.21236e-30 2.66297e-14 0)
(-1.02049e-32 1.0618e-14 -0)
(1.71071e-31 -7.40503e-15 -0)
(-1.3471e-30 -1.84309e-14 0)
(-9.56495e-30 -5.93332e-14 0)
(-8.85427e-30 -7.12218e-14 0)
(7.21963e-31 1.19781e-14 0)
(5.49703e-32 1.21103e-14 0)
(2.16521e-32 -3.55949e-16 -0)
(-4.27045e-32 -5.27305e-15 0)
(-7.24871e-26 -2.2425e-12 0)
(-1.71582e-26 2.69129e-12 -0)
(-1.42073e-27 -7.52658e-13 0)
(-1.2655e-29 6.19938e-14 -0)
(-3.39526e-29 -1.85055e-13 0)
(-1.8504e-30 -9.1995e-14 0)
(-1.49107e-30 -7.7576e-14 0)
(1.97798e-30 -1.14481e-13 -0)
(-1.68938e-29 -2.11627e-13 0)
(-2.79928e-29 -1.38826e-13 0)
(-7.77901e-30 -6.89427e-14 0)
(-4.13791e-30 -5.31077e-14 0)
(-1.46401e-29 -1.438e-13 0)
(-9.09883e-30 -5.66327e-14 0)
(-2.44792e-30 -1.94225e-14 0)
(3.52735e-30 4.20731e-14 0)
(-3.15026e-31 1.33232e-14 -0)
(-4.27726e-31 8.65968e-15 -0)
(6.24281e-30 -5.66284e-14 -0)
(1.70814e-30 -6.77553e-14 -0)
(-6.58854e-25 6.13198e-12 -0)
(-2.23767e-25 -9.47022e-12 0)
(-1.18542e-26 2.30005e-12 -0)
(-5.32477e-28 -3.69478e-13 0)
(-3.28001e-29 3.15752e-13 -0)
(2.08803e-29 1.15364e-13 0)
(1.48567e-29 1.52013e-13 0)
(2.4278e-30 1.50619e-13 0)
(-1.20782e-29 2.27012e-13 -0)
(-6.6914e-30 7.81708e-14 -0)
(-1.59007e-30 7.30676e-14 -0)
(-3.09778e-31 9.91486e-14 -0)
(5.37709e-30 7.57827e-14 0)
(3.59103e-30 6.87927e-14 0)
(-7.52672e-30 1.00528e-13 -0)
(-1.26723e-29 9.05633e-14 -0)
(2.24432e-31 -1.34106e-15 -0)
(-3.74433e-30 2.95956e-14 -0)
(-1.05866e-29 5.50645e-14 -0)
(-2.90085e-30 2.14782e-14 -0)
(-3.28358e-25 -4.62171e-12 0)
(-9.74426e-26 6.46518e-12 -0)
(-5.10565e-27 -1.38572e-12 0)
(-2.66145e-28 3.95693e-13 -0)
(-1.22396e-29 -4.5392e-14 0)
(1.07653e-30 2.05575e-14 0)
(1.53808e-30 2.40076e-14 0)
(-7.8264e-31 -9.39084e-15 0)
(5.1598e-30 3.26622e-14 0)
(2.79464e-30 1.00637e-13 0)
(-8.75256e-31 2.48313e-14 -0)
(-3.6434e-30 -7.2137e-14 0)
(7.22533e-30 5.01687e-14 0)
(6.34685e-30 6.98066e-14 0)
(-8.88218e-31 7.43632e-14 -0)
(-4.1615e-30 3.76232e-14 -0)
(-2.78141e-31 2.37472e-15 -0)
(-5.20757e-30 3.87592e-14 -0)
(-6.30248e-30 2.69721e-14 -0)
(1.27233e-30 -9.56438e-15 -0)
(-1.17e-26 1.0823e-12 -0)
(-4.01554e-27 -1.23939e-12 0)
(-8.12104e-29 2.58814e-13 -0)
(-6.26727e-29 -1.64603e-13 0)
(-1.70179e-29 -6.86078e-14 0)
(-1.04329e-29 -4.11268e-14 0)
(-1.4677e-30 -1.25216e-14 0)
(-3.03442e-30 -2.81374e-14 0)
(5.35709e-31 4.20044e-15 0)
(2.3964e-30 3.63982e-14 0)
(1.96363e-32 5.67449e-16 0)
(-2.31189e-31 -3.84266e-15 0)
(5.47019e-31 7.49021e-15 0)
(-1.56965e-31 1.06502e-14 -0)
(7.92378e-31 -2.36734e-14 -0)
(1.34852e-30 -2.74902e-14 -0)
(-1.78784e-33 6.03595e-17 -0)
(1.012e-30 -2.03793e-14 -0)
(-2.82283e-31 2.91382e-15 -0)
(-7.51535e-31 9.53768e-15 -0)
(-1.19544e-25 2.76921e-12 -0)
(-3.4686e-26 -3.86623e-12 0)
(-1.4931e-27 8.31304e-13 -0)
(-1.25281e-28 -1.90249e-13 0)
(7.96505e-30 7.48659e-14 0)
(3.16832e-30 1.75141e-14 0)
(-2.57411e-31 -1.27242e-15 0)
(7.19866e-30 3.71783e-14 0)
(3.8616e-30 3.80197e-14 0)
(4.92783e-30 5.83319e-14 0)
(4.27878e-30 7.08989e-14 0)
(-8.39102e-30 1.01821e-13 -0)
(-1.59846e-29 1.10459e-13 -0)
(1.21881e-30 -1.18561e-14 -0)
(1.93819e-31 -7.41196e-15 -0)
(-5.05165e-32 1.76134e-15 -0)
(-1.30905e-30 2.99123e-14 -0)
(1.90243e-30 -3.3521e-14 -0)
(-1.00009e-31 -4.90323e-15 0)
(-9.7868e-33 1.26754e-15 -0)
(-2.64252e-25 -4.47581e-12 0)
(-6.6426e-26 5.48352e-12 -0)
(-3.68472e-27 -1.29301e-12 0)
(-1.81757e-28 3.37286e-13 -0)
(-1.30173e-30 -6.86692e-14 0)
(3.42016e-30 -2.77522e-14 -0)
(-3.34653e-30 -1.3161e-13 0)
(-6.43181e-30 -5.91956e-14 0)
(-4.04327e-30 -5.37082e-14 0)
(-8.76995e-30 -8.46235e-14 0)
(-2.8025e-30 -2.58616e-14 0)
(-3.04261e-30 -3.33617e-14 0)
(-1.46395e-29 -8.56456e-14 0)
(-6.51108e-30 -4.84077e-14 0)
(-2.34218e-30 -2.07443e-14 0)
(-1.12581e-30 -1.58795e-14 0)
(-1.0361e-32 -1.59036e-14 0)
(2.64692e-31 -6.43744e-15 -0)
(-5.92606e-30 -9.11339e-14 0)
(-8.50081e-31 -1.48955e-14 0)
(-2.95092e-26 1.78933e-12 -0)
(-5.92825e-27 -1.70486e-12 0)
(-2.56661e-28 3.21508e-13 -0)
(-6.04746e-29 -2.30663e-13 0)
(-1.04425e-29 -6.82192e-14 0)
(-5.76238e-30 -4.39147e-14 0)
(-6.69556e-31 -1.33593e-14 0)
(4.46582e-31 -7.15642e-14 -0)
(4.1567e-30 -8.77121e-14 -0)
(-7.14883e-30 -1.23834e-13 0)
(-6.33649e-30 -5.93584e-14 0)
(-5.8484e-30 -5.35509e-14 0)
(-1.38577e-30 -1.38359e-14 0)
(-1.55977e-30 6.64311e-14 -0)
(1.22354e-31 -5.5482e-15 -0)
(5.49264e-31 1.71631e-14 0)
(-2.49233e-31 -3.22146e-15 0)
(2.3009e-30 3.58299e-14 0)
(-6.36434e-31 6.44006e-14 -0)
(1.20082e-30 -3.18621e-14 -0)
(-6.02027e-26 2.12837e-12 -0)
(-1.47958e-26 -2.50023e-12 0)
(-9.81678e-28 7.08217e-13 -0)
(-1.9369e-29 -1.0147e-13 0)
(-4.48761e-30 4.47092e-14 -0)
(-1.81432e-31 -1.22237e-14 0)
(7.1101e-32 3.25197e-15 0)
(-6.92961e-31 3.92011e-14 -0)
(-6.33386e-30 6.39158e-14 -0)
(-2.39044e-30 2.08346e-14 -0)
(4.55702e-31 -1.25218e-14 -0)
(-5.32944e-31 -5.08322e-14 0)
(3.32617e-30 -4.74001e-14 -0)
(3.61763e-30 -6.27889e-14 -0)
(-2.65615e-31 -1.70093e-14 0)
(-4.23381e-30 -3.76415e-14 0)
(3.47807e-30 2.87489e-14 0)
(1.13292e-30 1.17965e-14 0)
(1.22896e-31 4.07523e-14 0)
(-9.44656e-31 2.33633e-14 -0)
(-1.80421e-25 -4.70648e-12 0)
(-2.65031e-26 3.7912e-12 -0)
(-1.78657e-27 -8.71962e-13 0)
(-4.57539e-29 2.7166e-13 -0)
(7.38662e-30 5.07829e-14 0)
(1.14675e-29 8.37651e-14 0)
(1.16089e-29 9.5977e-14 0)
(-1.29207e-30 1.32951e-13 -0)
(-8.52142e-30 6.85238e-14 -0)
(-1.64706e-29 1.07753e-13 -0)
(-5.31797e-30 4.51894e-14 -0)
(-3.11328e-30 4.96945e-14 -0)
(-3.82686e-30 5.27652e-14 -0)
(2.98382e-30 -6.19053e-14 -0)
(-2.75719e-31 -6.23022e-14 0)
(-1.76073e-30 -5.38095e-14 0)
(-1.28264e-32 -3.05559e-14 0)
(-2.59909e-30 -3.86595e-14 0)
(-3.33563e-30 -2.87643e-14 0)
(-5.9735e-31 -7.12638e-15 0)
(-1.37946e-25 4.49251e-12 -0)
(-1.87384e-26 -3.2095e-12 0)
(-1.05369e-27 7.97447e-13 -0)
(-4.78701e-29 -1.57774e-13 0)
(-4.84386e-31 3.30816e-14 -0)
(-9.38693e-31 3.42517e-14 -0)
(-4.09728e-31 4.75826e-15 -0)
(2.45066e-30 -3.26805e-14 -0)
(2.27427e-30 -7.49242e-14 -0)
(-9.69722e-30 -7.33792e-14 0)
(-6.1646e-30 -3.82097e-14 0)
(-2.357e-30 8.46259e-14 -0)
(-7.97958e-31 5.58708e-15 -0)
(-3.94305e-30 4.70964e-14 -0)
(3.74403e-31 -5.22288e-15 -0)
(-1.38969e-30 4.41254e-14 -0)
(-1.78066e-30 -6.10614e-14 0)
(1.58584e-31 4.2839e-15 0)
(-1.42844e-32 1.04439e-15 -0)
(7.54581e-31 2.83948e-14 0)
(-3.94116e-26 -1.84606e-12 0)
(-9.43961e-27 2.09088e-12 -0)
(-4.81704e-28 -4.90401e-13 0)
(-1.55194e-29 1.01604e-13 -0)
(1.81422e-31 -5.3719e-15 -0)
(1.07925e-29 -1.08987e-13 -0)
(2.60767e-30 -9.27828e-14 -0)
(-1.79391e-30 -1.14623e-13 0)
(-2.86305e-30 -8.43977e-14 0)
(-3.69867e-30 -7.9583e-14 0)
(-1.31462e-30 -7.91835e-14 0)
(-1.49303e-30 -5.93449e-14 0)
(-5.92117e-30 -8.71404e-14 0)
(-4.24873e-30 -5.09373e-14 0)
(1.17755e-31 3.34328e-15 0)
(-2.91928e-30 -5.84111e-14 0)
(2.33762e-31 3.02678e-15 0)
(7.33009e-31 3.71889e-14 0)
(-5.23958e-32 2.21948e-15 -0)
(6.48212e-33 -2.60916e-15 -0)
(-9.07645e-27 -1.62375e-12 0)
(-4.8672e-28 6.60919e-13 -0)
(-7.60242e-29 -2.26349e-13 0)
(2.03476e-30 1.18429e-14 0)
(-7.12029e-30 -3.27457e-14 0)
(1.20237e-29 5.26851e-14 0)
(7.42088e-30 3.18914e-14 0)
(6.44519e-30 3.5736e-14 0)
(1.64139e-29 1.1213e-13 0)
(-1.98334e-29 1.55196e-13 -0)
(-4.3329e-29 1.34822e-13 -0)
(4.41926e-30 -3.65945e-14 -0)
(7.21501e-31 1.61896e-14 0)
(-7.3875e-31 6.36385e-14 -0)
(-4.16062e-30 8.36846e-14 -0)
(-1.91823e-30 5.43361e-14 -0)
(-2.89354e-30 5.67605e-14 -0)
(1.53439e-31 -2.52335e-15 -0)
(2.15899e-31 -8.38621e-15 -0)
(-6.2013e-33 -2.68982e-16 0)
(-1.5618e-25 4.00378e-12 -0)
(-3.07384e-26 -3.75503e-12 0)
(-1.83549e-27 9.17812e-13 -0)
(-7.37126e-29 -2.03036e-13 0)
(5.74692e-31 1.88358e-14 0)
(-1.95599e-30 -1.11967e-14 0)
(1.71976e-29 1.20704e-13 0)
(5.14655e-30 9.92516e-14 0)
(-2.73022e-30 7.40165e-14 -0)
(-4.83182e-30 3.3047e-14 -0)
(6.96445e-30 -7.23157e-14 -0)
(-6.19775e-31 -1.77865e-14 0)
(4.03068e-30 4.94202e-14 0)
(2.3012e-30 2.78111e-14 0)
(2.61039e-30 3.50395e-14 0)
(4.21032e-32 1.23845e-14 0)
(-1.79403e-30 3.63557e-14 -0)
(1.90678e-30 -2.13988e-14 -0)
(7.24543e-31 -6.80903e-15 -0)
(2.67804e-31 -1.27426e-14 -0)
(-2.57076e-25 -4.66634e-12 0)
(-5.90638e-26 5.17662e-12 -0)
(-3.44569e-27 -1.23797e-12 0)
(-7.46116e-29 1.93668e-13 -0)
(-3.25298e-29 -1.06811e-13 0)
(2.4017e-30 1.70626e-14 0)
(-1.44279e-30 -1.07729e-14 0)
(-3.78123e-31 1.67585e-14 -0)
(1.04443e-30 -3.10307e-14 -0)
(-1.0821e-30 -6.48223e-14 0)
(-2.16762e-31 -2.99132e-15 0)
(-2.33097e-30 -5.00139e-14 0)
(8.40966e-31 2.75714e-14 0)
(-7.77803e-32 -1.85441e-15 0)
(-9.18849e-31 -1.87346e-14 0)
(-2.90023e-30 6.94482e-14 -0)
(-2.62495e-30 2.54023e-14 -0)
(2.65774e-31 -1.07457e-14 -0)
(9.68205e-32 2.3492e-14 0)
(1.76886e-32 1.55193e-15 0)
(-1.12205e-25 3.01236e-12 -0)
(-2.82839e-26 -3.56321e-12 0)
(-1.3287e-27 8.22142e-13 -0)
(-5.50749e-29 -1.04018e-13 0)
(-4.42684e-30 1.30724e-13 -0)
(-2.41828e-31 -6.83282e-15 0)
(-9.64139e-31 -2.79752e-14 0)
(1.12435e-30 2.54991e-14 0)
(9.65874e-31 1.91172e-14 0)
(6.90296e-30 5.56812e-14 0)
(2.84571e-30 7.94611e-14 0)
(-1.66085e-29 1.29212e-13 -0)
(-4.19751e-30 2.43885e-14 -0)
(-4.38588e-30 4.32656e-14 -0)
(-1.47671e-30 2.35651e-14 -0)
(-1.22137e-31 1.85134e-15 -0)
(5.05029e-30 -6.22123e-14 -0)
(-2.60678e-31 -1.85537e-14 0)
(-3.69337e-30 -3.53912e-14 0)
(1.95054e-30 2.0127e-14 0)
(3.67995e-27 -4.44113e-13 -0)
(-1.29361e-27 -5.9994e-13 0)
(-1.62612e-29 1.37498e-13 -0)
(1.22313e-29 5.11441e-14 0)
(-5.93805e-30 6.77821e-14 -0)
(-2.80868e-30 1.67565e-14 -0)
(8.22077e-31 -3.22168e-15 -0)
(6.50956e-30 -4.80763e-14 -0)
(3.3666e-30 -7.40596e-14 -0)
(-2.30555e-30 -3.65412e-14 0)
(5.08078e-31 1.03894e-14 0)
(-4.06556e-31 9.96471e-15 -0)
(2.85291e-30 -5.6222e-14 -0)
(1.91553e-30 -9.26245e-14 -0)
(-3.65715e-30 -5.86553e-14 0)
(1.80701e-31 7.60176e-15 0)
(-4.1009e-32 3.00042e-15 -0)
(4.06925e-31 -6.52826e-14 -0)
(-1.77151e-30 -1.82522e-14 0)
(4.04691e-32 2.29562e-16 0)
(-1.65123e-25 -3.08832e-12 0)
(-4.83436e-26 4.65453e-12 -0)
(-2.78888e-27 -1.07894e-12 0)
(-7.54607e-29 1.84007e-13 -0)
(-1.94956e-29 -9.61998e-14 0)
(-1.92983e-31 -1.96942e-14 0)
(9.25013e-30 -6.49125e-14 -0)
(1.46151e-29 -9.47628e-14 -0)
(8.59041e-31 -1.07037e-13 -0)
(-1.25851e-29 -1.22192e-13 0)
(-5.97042e-30 -4.60347e-14 0)
(-5.992e-31 -2.82105e-14 0)
(-3.29746e-30 2.53062e-14 -0)
(1.2322e-29 -5.3153e-14 -0)
(1.1539e-29 -8.1911e-14 -0)
(-6.05587e-30 -1.34019e-13 0)
(-7.52763e-30 -6.53918e-14 0)
(6.68688e-31 4.25905e-15 0)
(6.77238e-31 9.33796e-15 0)
(8.66242e-31 1.3615e-14 0)
(-3.09373e-26 1.84959e-12 -0)
(-3.75091e-27 -1.46092e-12 0)
(-3.61084e-28 4.73789e-13 -0)
(5.51335e-32 -2.76971e-14 -0)
(2.51475e-30 4.41547e-14 0)
(7.99249e-30 8.10901e-14 0)
(9.08436e-30 1.53441e-13 0)
(-1.05932e-29 1.31433e-13 -0)
(-2.51464e-29 1.47124e-13 -0)
(-1.34038e-29 6.81826e-14 -0)
(-2.03998e-31 5.1523e-15 -0)
(-8.47958e-33 -3.69639e-16 0)
(-1.46403e-30 4.0784e-14 -0)
(-1.03103e-29 9.05606e-14 -0)
(-5.33893e-30 4.15962e-14 -0)
(4.45701e-31 3.62659e-14 0)
(-2.8671e-31 -5.61178e-15 0)
(3.9976e-30 5.8438e-14 0)
(1.17826e-31 1.33711e-14 0)
(-1.40114e-30 2.1456e-14 -0)
(-3.77205e-25 5.16272e-12 -0)
(-1.04832e-25 -6.89597e-12 0)
(-4.85753e-27 1.3639e-12 -0)
(-2.95171e-28 -3.93671e-13 0)
(-3.61414e-30 2.16558e-14 -0)
(3.37491e-31 -3.80611e-14 -0)
(2.70795e-30 -4.72345e-14 -0)
(3.5973e-30 -4.57536e-14 -0)
(5.68465e-30 -4.00625e-14 -0)
(4.53371e-31 -2.05985e-15 -0)
(5.86805e-30 -4.83779e-14 -0)
(1.56478e-31 -2.12283e-14 -0)
(-3.35082e-30 -3.68274e-14 0)
(-2.21476e-30 -2.46489e-14 0)
(5.72694e-31 8.62163e-15 0)
(4.47947e-32 1.23191e-14 0)
(-3.62965e-30 6.39404e-14 -0)
(1.61252e-31 -1.72154e-15 -0)
(2.35525e-31 -5.95501e-15 -0)
(1.17608e-30 -3.44718e-14 -0)
)
;

boundaryField
{
    movingWall
    {
        type            calculated;
        value           nonuniform List<vector> 
20
(
(0 6.31904e-12 -0)
(0 -7.61632e-12 -0)
(0 9.1231e-13 -0)
(0 -5.61505e-13 -0)
(0 -2.79405e-13 -0)
(0 -2.7741e-13 -0)
(0 -3.03887e-13 -0)
(0 -2.57997e-13 -0)
(0 -2.52306e-13 -0)
(0 -1.79696e-13 -0)
(0 -6.56817e-14 -0)
(0 -6.56372e-14 -0)
(0 -9.72237e-15 -0)
(0 -4.19527e-14 -0)
(0 8.62163e-15 -0)
(0 -7.64987e-14 -0)
(0 -3.46786e-14 -0)
(0 -4.61305e-14 -0)
(0 -5.95501e-15 -0)
(0 -5.17757e-14 -0)
)
;
    }
    fixedWalls
    {
        type            calculated;
        value           nonuniform List<vector> 
60
(
(0 -3.51836e-11 -0)
(0 -1.25773e-11 -0)
(0 4.07285e-11 -0)
(0 -2.74429e-11 -0)
(0 4.64938e-12 -0)
(0 1.6617e-11 -0)
(0 -2.33992e-11 -0)
(0 7.08457e-12 -0)
(0 1.12059e-11 -0)
(0 -1.69059e-11 -0)
(0 1.42881e-11 -0)
(0 -8.70222e-12 -0)
(0 -3.37434e-12 -0)
(0 1.65248e-11 -0)
(0 -2.23348e-11 -0)
(0 1.49806e-11 -0)
(0 2.25733e-12 -0)
(0 -2.0167e-11 -0)
(0 7.12432e-12 -0)
(0 2.86019e-11 -0)
(0 3.23945e-15 -0)
(0 -6.42943e-14 -0)
(0 1.86055e-16 -0)
(0 -2.61059e-14 -0)
(0 -4.4135e-15 -0)
(0 -3.08843e-15 -0)
(0 -4.27719e-15 -0)
(0 -4.21803e-14 -0)
(0 1.09317e-14 -0)
(0 6.42389e-15 -0)
(0 3.77349e-14 -0)
(0 -9.93748e-16 -0)
(0 9.22188e-15 -0)
(0 -8.40659e-15 -0)
(0 4.55913e-15 -0)
(0 3.87646e-14 -0)
(0 4.34104e-14 -0)
(0 2.54497e-14 -0)
(0 9.83841e-16 -0)
(0 -4.07519e-14 -0)
(0 -1.06954e-11 -0)
(0 1.02445e-11 -0)
(0 -1.33445e-12 -0)
(0 9.06317e-13 -0)
(0 3.11664e-13 -0)
(0 3.80859e-13 -0)
(0 3.54911e-13 -0)
(0 3.02117e-13 -0)
(0 3.76809e-13 -0)
(0 2.72526e-13 -0)
(0 1.15448e-13 -0)
(0 1.43845e-13 -0)
(0 2.1464e-13 -0)
(0 1.14796e-13 -0)
(0 3.92859e-14 -0)
(0 -7.87245e-14 -0)
(0 1.19781e-14 -0)
(0 -7.67075e-14 -0)
(0 4.4053e-14 -0)
(0 -5.27305e-15 -0)
)
;
    }
    frontAndBack
    {
        type            empty;
    }
}


// ************************************************************************* //
