/*--------------------------------*- C++ -*----------------------------------*\
| =========                 |                                                 |
| \\      /  F ield         | OpenFOAM: The Open Source CFD Toolbox           |
|  \\    /   O peration     | Version:  2506                                  |
|   \\  /    A nd           | Website:  www.openfoam.com                      |
|    \\/     M anipulation  |                                                 |
\*---------------------------------------------------------------------------*/
FoamFile
{
    version     2.0;
    format      ascii;
    arch        "LSB;label=32;scalar=64";
    class       volScalarField;
    location    "5.75";
    object      QField;
}
// * * * * * * * * * * * * * * * * * * * * * * * * * * * * * * * * * * * * * //

dimensions      [0 0 -2 0 0 0 0];

internalField   nonuniform List<scalar> 
400
(
-1.19727e-23
-3.50355e-24
-3.34787e-25
2.54995e-26
-6.11501e-27
6.93565e-28
-2.04851e-28
-1.84613e-28
0
-5.06296e-27
-5.31019e-28
2.08585e-28
0
-6.33589e-28
-1.27942e-27
-1.94917e-27
1.98565e-28
0
0
0
-2.55399e-23
-8.51815e-24
-3.08478e-25
-3.08813e-26
1.39117e-27
-1.78082e-27
-5.28361e-28
6.57107e-28
4.15364e-27
-3.35756e-27
-1.00607e-27
-5.97623e-29
6.11571e-28
1.3133e-28
-1.48802e-27
4.05708e-28
-1.85096e-27
7.10454e-28
1.31093e-28
-4.17774e-29
-2.05358e-23
-8.18763e-24
1.56064e-25
-6.97104e-26
2.39098e-26
-2.73236e-27
2.23448e-27
2.04559e-27
1.99385e-27
-2.55682e-28
-6.70649e-28
-1.00523e-27
-4.49877e-28
6.01485e-28
1.56229e-27
-3.02092e-28
0
5.28098e-28
4.63155e-29
-2.35888e-27
-8.60509e-24
-3.04165e-24
-1.56774e-25
1.85118e-26
-1.96504e-27
-1.97007e-28
-3.1156e-29
-2.48618e-28
-8.29174e-28
1.57119e-27
2.43932e-28
9.71817e-28
-2.24713e-28
1.02693e-27
1.0925e-27
2.85095e-28
0
3.15885e-28
-2.62136e-28
-1.14643e-27
-2.84959e-24
-9.73902e-25
-1.41446e-25
6.09133e-27
-5.90812e-28
-1.05764e-27
-3.95285e-28
-5.69872e-28
-3.05779e-28
2.51892e-28
-7.77361e-28
0
-7.82607e-28
-2.10033e-27
-9.30149e-29
-4.337e-28
0
2.80436e-29
-6.8864e-28
-4.76165e-28
-3.73925e-24
-1.53757e-24
-1.71494e-26
4.98533e-27
5.26639e-29
-2.30323e-27
-2.48784e-28
2.73035e-28
2.95842e-28
1.20996e-28
1.10463e-27
1.66746e-27
2.2108e-28
-4.04524e-28
-3.9676e-28
0
7.60913e-29
1.73905e-28
4.3884e-28
-7.36531e-28
-1.23448e-24
-8.80662e-25
1.48755e-25
1.53456e-26
1.1266e-27
1.75401e-29
2.51419e-27
2.70262e-28
-1.23847e-27
2.69014e-28
-2.85234e-28
6.88977e-28
-3.11587e-28
-5.29549e-28
-1.72409e-28
-4.68752e-28
-3.03617e-28
-3.27891e-28
7.1634e-28
-2.49715e-28
1.81845e-24
-3.16878e-26
-5.74064e-26
2.27837e-26
-4.18014e-28
-5.58116e-28
-3.62921e-28
-7.929e-28
5.20168e-28
1.0793e-27
-5.05643e-28
4.01828e-28
-3.59661e-28
6.62503e-28
-5.27418e-28
-2.69477e-28
0
-5.07037e-28
2.16272e-28
1.2894e-28
1.39216e-24
-2.26647e-25
5.4462e-26
1.63933e-29
4.35861e-28
0
0
3.18438e-28
7.34765e-28
-7.40752e-28
-1.21665e-27
-6.48948e-28
-8.37231e-28
3.98053e-28
-7.17697e-29
2.85592e-28
4.45568e-29
-8.16712e-30
3.69908e-28
-4.30776e-28
4.94067e-24
5.89254e-25
1.29267e-25
1.5478e-26
-2.71511e-27
1.9922e-28
1.77755e-27
2.349e-27
7.75949e-28
-1.41075e-27
-1.02496e-27
-2.44789e-28
-7.83264e-29
4.17156e-28
4.38675e-28
-1.19242e-27
-1.5534e-28
3.13184e-28
4.49728e-29
-7.23149e-28
6.87545e-24
1.08505e-24
1.55262e-25
3.75426e-27
-4.85797e-28
-4.45767e-28
-4.04029e-28
2.88648e-28
1.12291e-27
1.03916e-27
-1.59534e-27
1.41084e-27
0
-7.42364e-28
0
-5.93467e-28
-4.49885e-29
0
-7.56619e-28
3.49585e-29
6.27492e-24
1.17968e-24
5.95807e-26
2.85357e-27
6.29066e-28
-1.3243e-27
-1.65985e-27
6.72514e-28
-7.07439e-28
-1.40848e-28
-2.79015e-27
2.65202e-29
4.73681e-28
-1.7742e-28
0
2.27736e-28
-4.34439e-28
-2.56992e-28
3.27085e-29
9.54076e-30
7.75083e-24
1.62033e-24
7.69733e-26
9.78648e-27
-3.69828e-28
-1.56651e-27
1.29734e-28
4.302e-28
2.50574e-27
4.54921e-27
-9.53068e-29
-2.62557e-29
-2.95864e-28
5.11112e-28
2.99134e-28
6.83138e-30
1.38259e-28
0
-4.4887e-28
0
6.19485e-24
8.94944e-25
1.25921e-25
4.52981e-27
2.36117e-28
0
1.33184e-27
1.4585e-27
5.85705e-28
1.61057e-28
9.81504e-28
-4.53656e-28
-2.59659e-28
1.91378e-29
-5.26361e-29
1.75043e-29
2.50739e-28
-5.68886e-29
8.09518e-29
6.31921e-29
1.24039e-24
-2.95672e-25
1.41089e-25
-1.29864e-26
3.02601e-27
-1.13273e-27
-4.42683e-28
0
3.43331e-28
-1.62171e-27
-3.58109e-28
-2.27478e-28
-6.74933e-28
-9.98089e-28
-2.26882e-28
6.38026e-28
-4.61544e-29
-2.79607e-28
-9.79331e-29
0
-1.82309e-24
-6.98642e-25
2.87813e-26
-6.88509e-27
1.89175e-27
-8.35853e-28
-1.03106e-27
2.62317e-28
-2.16512e-28
2.05521e-28
1.43272e-27
2.2543e-27
-2.93847e-28
-5.93304e-28
-9.59497e-29
0
1.90755e-28
0
4.76501e-28
-8.93875e-28
-3.10682e-24
-1.1208e-24
-7.8713e-26
2.38051e-27
1.10255e-27
1.38741e-28
-9.59332e-28
-5.06679e-28
1.23474e-27
2.55767e-28
-2.54466e-28
0
1.09065e-28
9.19622e-28
2.40972e-28
-3.01296e-28
-5.32056e-28
6.00243e-28
0
-7.40906e-28
-4.79709e-24
-2.18659e-24
8.63577e-26
-1.61819e-26
2.27626e-27
-1.87111e-27
-3.03801e-27
9.44951e-28
2.09161e-27
-6.1845e-28
-6.83063e-28
-1.92774e-27
-4.02417e-29
-5.7304e-29
-4.90245e-29
2.74432e-27
6.06162e-28
-2.02314e-28
4.7838e-28
-1.30967e-27
-6.24516e-24
-2.29708e-24
-7.75602e-26
-4.4402e-27
4.5656e-28
-1.83046e-29
2.65895e-27
2.495e-27
1.9348e-27
-1.94363e-27
-1.95565e-27
-7.75517e-29
3.70768e-28
-1.20107e-28
-2.36945e-27
-9.72758e-28
0
-1.80914e-27
0
-1.53119e-28
-3.12042e-24
-8.10248e-25
-1.64395e-25
2.04291e-26
-4.1127e-27
5.40086e-28
-3.78149e-28
-4.58426e-28
-1.61483e-27
-2.25886e-27
1.40509e-28
0
2.63525e-28
-1.31619e-28
1.67851e-28
0
5.27483e-28
-6.84662e-29
8.33173e-29
-6.98018e-29
)
;

boundaryField
{
    movingWall
    {
        type            calculated;
        value           nonuniform List<scalar> 
20
(
4.66778e-24
3.14637e-24
-9.24622e-25
8.35047e-26
-2.6953e-26
2.82314e-27
-2.16846e-27
-2.25325e-27
-5.3081e-27
-4.40674e-27
-3.70391e-28
9.42727e-28
0
8.65106e-28
-7.20183e-28
-1.09416e-27
-4.32114e-28
-9.3909e-28
4.2881e-28
-4.27474e-29
)
;
    }
    fixedWalls
    {
        type            calculated;
        value           nonuniform List<scalar> 
60
(
-7.37487e-23
-1.41383e-22
-1.04943e-22
-4.83295e-23
-1.98968e-23
-1.74369e-23
-7.01645e-24
2.83065e-24
4.86024e-24
2.42137e-23
3.32347e-23
2.87902e-23
3.68544e-23
2.93281e-23
6.21085e-24
-1.11724e-23
-2.04236e-23
-2.41369e-23
-3.587e-23
-2.30045e-23
0
-7.24842e-28
-3.88626e-27
-1.69215e-27
-1.41078e-27
-1.20673e-27
-4.8567e-28
4.08616e-28
-9.77994e-28
-9.08804e-28
6.71402e-28
1.56316e-29
0
1.03534e-28
0
-1.46452e-27
-1.91133e-27
-2.14577e-27
-7.08017e-28
-7.16159e-29
7.80028e-24
6.76358e-24
-1.32537e-24
2.13288e-25
-3.85638e-26
9.09069e-27
-7.3914e-28
-2.32152e-27
-9.14136e-27
-9.88898e-27
1.46445e-27
1.40419e-27
-1.64425e-27
-3.24793e-27
-3.72314e-27
-3.59222e-27
1.30698e-27
-1.07561e-27
-1.58073e-29
0
)
;
    }
    frontAndBack
    {
        type            empty;
    }
}


// ************************************************************************* //
