/*--------------------------------*- C++ -*----------------------------------*\
| =========                 |                                                 |
| \\      /  F ield         | OpenFOAM: The Open Source CFD Toolbox           |
|  \\    /   O peration     | Version:  2506                                  |
|   \\  /    A nd           | Website:  www.openfoam.com                      |
|    \\/     M anipulation  |                                                 |
\*---------------------------------------------------------------------------*/
FoamFile
{
    version     2.0;
    format      ascii;
    arch        "LSB;label=32;scalar=64";
    class       volVectorField;
    location    "5.75";
    object      UNear;
}
// * * * * * * * * * * * * * * * * * * * * * * * * * * * * * * * * * * * * * //

dimensions      [0 1 -1 0 0 0 0];

internalField   nonuniform List<vector> 
400
(
(-1 9.00596e-14 0)
(-1 -1.86326e-14 0)
(-1 4.49042e-15 0)
(-1 -8.47153e-16 0)
(-1 3.12236e-16 0)
(-1 3.30127e-17 0)
(-1 5.63557e-17 0)
(-1 3.66193e-17 0)
(-1 1.43807e-16 0)
(-1 2.65336e-16 0)
(-1 8.30785e-17 0)
(-1 -9.61091e-19 0)
(-1 -2.31019e-17 0)
(-1 7.30892e-17 0)
(-1 1.61207e-16 0)
(-1 1.2432e-16 0)
(-1 6.02739e-17 0)
(-1 4.53913e-18 0)
(-1 -6.08292e-17 0)
(-1 8.09863e-18 0)
(-1 3.23242e-14 0)
(-1 -6.37546e-15 0)
(-1 1.88761e-15 0)
(-1 -2.04133e-16 0)
(-1 1.83473e-16 0)
(-1 2.01142e-17 0)
(-1 1.92208e-17 0)
(-1 -1.72778e-17 0)
(-1 7.98283e-17 0)
(-1 2.0164e-16 0)
(-1 1.12833e-16 0)
(-1 7.79155e-17 0)
(-1 1.01809e-16 0)
(-1 1.60664e-16 0)
(-1 1.26035e-16 0)
(-1 8.38386e-17 0)
(-1 -2.3645e-17 0)
(-1 -4.93929e-17 0)
(-1 -1.10242e-16 0)
(-1 -2.52104e-17 0)
(-1 -1.07445e-13 0)
(-1 2.36285e-14 0)
(-1 -5.15391e-15 0)
(-1 1.44116e-15 0)
(-1 -1.03879e-16 0)
(-1 1.80994e-16 0)
(-1 9.77332e-17 0)
(-1 1.61188e-17 0)
(-1 -5.3205e-17 0)
(-1 -8.55996e-17 0)
(-1 -2.17616e-17 0)
(-1 -3.12438e-18 0)
(-1 7.09542e-17 0)
(-1 5.22007e-17 0)
(-1 -7.48719e-17 0)
(-1 -1.39927e-16 0)
(-1 -1.67354e-16 0)
(-1 -1.26516e-16 0)
(-1 -1.92259e-16 0)
(-1 -1.3506e-16 0)
(-1 7.10468e-14 0)
(-1 -1.50719e-14 0)
(-1 3.68447e-15 0)
(-1 -6.72604e-16 0)
(-1 2.69642e-16 0)
(-1 5.23665e-17 0)
(-1 6.40663e-17 0)
(-1 8.33408e-17 0)
(-1 1.57975e-16 0)
(-1 2.77694e-17 0)
(-1 -3.52481e-17 0)
(-1 5.05067e-17 0)
(-1 1.44021e-16 0)
(-1 9.09205e-17 0)
(-1 -1.19443e-17 0)
(-1 -1.1061e-16 0)
(-1 -1.17126e-16 0)
(-1 -1.34357e-16 0)
(-1 -2.33667e-16 0)
(-1 -1.33027e-16 0)
(-1 -1.08103e-14 0)
(-1 3.23994e-15 0)
(-1 -3.1378e-16 0)
(-1 3.80751e-16 0)
(-1 2.48046e-16 0)
(-1 2.53677e-16 0)
(-1 1.17213e-16 0)
(-1 1.07843e-16 0)
(-1 1.27536e-16 0)
(-1 6.58384e-17 0)
(-1 3.46046e-17 0)
(-1 6.01639e-17 0)
(-1 7.30311e-17 0)
(-1 -1.47382e-17 0)
(-1 -3.34712e-17 0)
(-1 -4.90546e-17 0)
(-1 -2.96198e-17 0)
(-1 -4.96582e-17 0)
(-1 -9.68774e-17 0)
(-1 -7.87964e-17 0)
(-1 -4.31689e-14 0)
(-1 8.97155e-15 0)
(-1 -1.7961e-15 0)
(-1 6.5851e-16 0)
(-1 1.06391e-16 0)
(-1 1.80901e-16 0)
(-1 2.02301e-16 0)
(-1 1.93625e-16 0)
(-1 1.01568e-16 0)
(-1 8.44791e-17 0)
(-1 6.03504e-17 0)
(-1 -8.24093e-17 0)
(-1 -1.4471e-16 0)
(-1 -1.028e-16 0)
(-1 -2.61495e-17 0)
(-1 -2.86807e-17 0)
(-1 -4.37629e-17 0)
(-1 -5.67534e-17 0)
(-1 2.03965e-17 0)
(-1 -7.72107e-18 0)
(-1 5.90402e-14 0)
(-1 -1.21137e-14 0)
(-1 2.84972e-15 0)
(-1 -5.38881e-16 0)
(-1 1.89566e-17 0)
(-1 -1.23239e-16 0)
(-1 2.54277e-17 0)
(-1 1.08654e-16 0)
(-1 7.52822e-17 0)
(-1 1.03635e-16 0)
(-1 1.08365e-16 0)
(-1 9.12008e-17 0)
(-1 1.70932e-16 0)
(-1 1.34505e-16 0)
(-1 1.12907e-16 0)
(-1 7.08973e-17 0)
(-1 6.5149e-19 0)
(-1 -4.11177e-17 0)
(-1 6.50259e-17 0)
(-1 5.70697e-17 0)
(-1 -1.64917e-14 0)
(-1 3.47726e-15 0)
(-1 -7.98302e-16 0)
(-1 2.62177e-16 0)
(-1 1.53073e-16 0)
(-1 1.31218e-16 0)
(-1 5.01192e-17 0)
(-1 -6.24029e-18 0)
(-1 -4.73903e-17 0)
(-1 5.77291e-17 0)
(-1 1.0675e-16 0)
(-1 1.09212e-16 0)
(-1 1.00157e-16 0)
(-1 -2.34795e-17 0)
(-1 -2.20528e-17 0)
(-1 3.20026e-17 0)
(-1 7.73665e-17 0)
(-1 6.42172e-17 0)
(-1 -9.88241e-18 0)
(-1 -3.76881e-17 0)
(-1 -2.82857e-14 0)
(-1 5.9178e-15 0)
(-1 -1.38613e-15 0)
(-1 1.90884e-16 0)
(-1 -1.00373e-16 0)
(-1 1.48426e-17 0)
(-1 2.1864e-17 0)
(-1 -1.7677e-17 0)
(-1 -9.90969e-17 0)
(-1 -1.14734e-16 0)
(-1 -3.63926e-17 0)
(-1 1.04844e-17 0)
(-1 -7.01721e-17 0)
(-1 -5.76157e-17 0)
(-1 1.56159e-17 0)
(-1 1.12477e-16 0)
(-1 1.20981e-16 0)
(-1 9.60386e-17 0)
(-1 3.01568e-18 0)
(-1 -4.04333e-17 0)
(-1 3.83346e-14 0)
(-1 -6.99069e-15 0)
(-1 2.04891e-15 0)
(-1 -1.68423e-16 0)
(-1 1.45455e-16 0)
(-1 1.369e-16 0)
(-1 1.20955e-16 0)
(-1 -9.71833e-18 0)
(-1 -1.24357e-16 0)
(-1 -1.52856e-16 0)
(-1 -1.17682e-16 0)
(-1 -6.26484e-17 0)
(-1 -7.25262e-17 0)
(-1 -4.81997e-17 0)
(-1 4.42551e-18 0)
(-1 3.27215e-17 0)
(-1 4.19769e-19 0)
(-1 6.72303e-17 0)
(-1 1.15964e-16 0)
(-1 8.38224e-17 0)
(-1 -3.07058e-14 0)
(-1 5.83843e-15 0)
(-1 -1.32133e-15 0)
(-1 3.0341e-16 0)
(-1 -1.46422e-17 0)
(-1 -2.74057e-17 0)
(-1 -8.61087e-17 0)
(-1 -7.49884e-17 0)
(-1 -3.03543e-17 0)
(-1 1.32152e-16 0)
(-1 1.61336e-16 0)
(-1 -2.7852e-17 0)
(-1 -1.42822e-16 0)
(-1 -8.37229e-17 0)
(-1 -7.16852e-17 0)
(-1 -3.14941e-17 0)
(-1 2.91618e-17 0)
(-1 3.70186e-17 0)
(-1 -1.36772e-17 0)
(-1 2.65746e-17 0)
(-1 2.1349e-14 0)
(-1 -4.51466e-15 0)
(-1 9.82265e-16 0)
(-1 -1.52745e-16 0)
(-1 -3.37723e-17 0)
(-1 -9.90256e-17 0)
(-1 -2.81051e-17 0)
(-1 1.56505e-17 0)
(-1 3.39233e-17 0)
(-1 4.64756e-17 0)
(-1 1.66021e-17 0)
(-1 2.51585e-17 0)
(-1 6.79498e-17 0)
(-1 8.34109e-17 0)
(-1 3.52215e-17 0)
(-1 4.99782e-17 0)
(-1 7.72313e-17 0)
(-1 1.97104e-17 0)
(-1 -2.36072e-17 0)
(-1 -2.48437e-18 0)
(-1 5.58981e-15 0)
(-1 -7.36429e-16 0)
(-1 3.35871e-16 0)
(-1 1.71813e-16 0)
(-1 2.17442e-16 0)
(-1 2.28219e-16 0)
(-1 2.32692e-16 0)
(-1 1.80356e-16 0)
(-1 1.46383e-16 0)
(-1 -1.27795e-16 0)
(-1 -3.21379e-16 0)
(-1 -1.20763e-16 0)
(-1 4.45657e-17 0)
(-1 -1.16085e-17 0)
(-1 -4.97179e-17 0)
(-1 -3.53031e-17 0)
(-1 -5.0978e-17 0)
(-1 -6.08074e-17 0)
(-1 -2.57445e-17 0)
(-1 2.30547e-17 0)
(-1 -3.9008e-14 0)
(-1 8.18592e-15 0)
(-1 -1.99985e-15 0)
(-1 3.63052e-16 0)
(-1 3.05106e-17 0)
(-1 1.74694e-16 0)
(-1 1.42477e-16 0)
(-1 5.18536e-17 0)
(-1 -3.68866e-17 0)
(-1 -1.4621e-16 0)
(-1 -9.63063e-17 0)
(-1 3.48451e-17 0)
(-1 8.15592e-17 0)
(-1 8.27438e-17 0)
(-1 7.44986e-17 0)
(-1 3.39967e-18 0)
(-1 -4.93466e-17 0)
(-1 -8.91067e-17 0)
(-1 -1.06409e-16 0)
(-1 -2.10165e-17 0)
(-1 5.50916e-14 0)
(-1 -1.14097e-14 0)
(-1 2.78333e-15 0)
(-1 -3.85256e-16 0)
(-1 3.04554e-16 0)
(-1 1.40758e-16 0)
(-1 1.33927e-16 0)
(-1 -2.2563e-17 0)
(-1 -3.3658e-17 0)
(-1 1.66933e-17 0)
(-1 7.24638e-17 0)
(-1 4.66065e-17 0)
(-1 3.05015e-17 0)
(-1 4.19435e-17 0)
(-1 4.90455e-17 0)
(-1 -4.17611e-17 0)
(-1 -1.03335e-16 0)
(-1 -2.47331e-17 0)
(-1 4.12143e-18 0)
(-1 1.13978e-17 0)
(-1 -3.72482e-14 0)
(-1 7.93775e-15 0)
(-1 -1.61614e-15 0)
(-1 5.29476e-16 0)
(-1 -3.38642e-17 0)
(-1 3.53921e-17 0)
(-1 3.4464e-17 0)
(-1 4.40939e-17 0)
(-1 5.05239e-17 0)
(-1 1.23973e-16 0)
(-1 3.58126e-17 0)
(-1 -1.28537e-16 0)
(-1 -1.7211e-16 0)
(-1 -1.01371e-16 0)
(-1 -6.26649e-17 0)
(-1 -6.5972e-17 0)
(-1 -8.11783e-17 0)
(-1 1.40499e-17 0)
(-1 1.04358e-16 0)
(-1 9.69116e-17 0)
(-1 -8.28607e-15 0)
(-1 2.15623e-15 0)
(-1 -1.18265e-16 0)
(-1 2.39153e-16 0)
(-1 -8.7605e-17 0)
(-1 -1.67617e-16 0)
(-1 -2.5517e-16 0)
(-1 -1.35401e-16 0)
(-1 -4.5458e-17 0)
(-1 6.30946e-17 0)
(-1 4.89035e-17 0)
(-1 -4.07995e-17 0)
(-1 -5.07437e-17 0)
(-1 -2.06806e-17 0)
(-1 6.23499e-17 0)
(-1 2.37709e-17 0)
(-1 -1.36678e-17 0)
(-1 -6.23328e-18 0)
(-1 9.70575e-17 0)
(-1 1.76289e-16 0)
(-1 5.34669e-14 0)
(-1 -1.03864e-14 0)
(-1 2.58483e-15 0)
(-1 -4.10097e-16 0)
(-1 2.02658e-16 0)
(-1 9.79899e-18 0)
(-1 -1.42502e-16 0)
(-1 -1.54228e-16 0)
(-1 -8.02561e-18 0)
(-1 1.02995e-16 0)
(-1 1.29694e-16 0)
(-1 2.12403e-17 0)
(-1 -1.30302e-16 0)
(-1 -2.31822e-16 0)
(-1 -1.40873e-16 0)
(-1 4.51866e-17 0)
(-1 1.15116e-16 0)
(-1 1.57004e-16 0)
(-1 7.25253e-17 0)
(-1 6.36243e-17 0)
(-1 -1.67266e-14 0)
(-1 2.5675e-15 0)
(-1 -7.62119e-16 0)
(-1 -1.99059e-18 0)
(-1 5.6953e-17 0)
(-1 9.85631e-17 0)
(-1 5.92041e-17 0)
(-1 -8.05983e-17 0)
(-1 -1.70919e-16 0)
(-1 -1.96587e-16 0)
(-1 -3.95935e-17 0)
(-1 2.29402e-17 0)
(-1 -3.58971e-17 0)
(-1 -1.13849e-16 0)
(-1 -1.28351e-16 0)
(-1 1.22898e-17 0)
(-1 5.10908e-17 0)
(-1 6.84076e-17 0)
(-1 8.81204e-18 0)
(-1 -6.5303e-17 0)
(-1 -7.30633e-14 0)
(-1 1.5202e-14 0)
(-1 -3.5615e-15 0)
(-1 7.49792e-16 0)
(-1 -1.66891e-16 0)
(-1 -8.86708e-18 0)
(-1 -5.73299e-17 0)
(-1 -7.86233e-17 0)
(-1 -1.41895e-16 0)
(-1 -2.20099e-16 0)
(-1 -1.21296e-16 0)
(-1 -7.37118e-18 0)
(-1 9.09872e-17 0)
(-1 8.98525e-17 0)
(-1 6.64252e-17 0)
(-1 3.63619e-18 0)
(-1 -5.67661e-17 0)
(-1 -9.36672e-17 0)
(-1 -3.95507e-17 0)
(-1 -3.41171e-17 0)
)
;

boundaryField
{
    movingWall
    {
        type            fixedValue;
        value           uniform (-1 -0 -0);
    }
    fixedWalls
    {
        type            calculated;
        value           nonuniform List<vector> 
60
(
(-1 3.60239e-14 0)
(-1 1.29297e-14 0)
(-1 -4.29782e-14 0)
(-1 2.84187e-14 0)
(-1 -4.32412e-15 0)
(-1 -1.72675e-14 0)
(-1 2.36161e-14 0)
(-1 -6.59668e-15 0)
(-1 -1.13143e-14 0)
(-1 1.53338e-14 0)
(-1 -1.22823e-14 0)
(-1 8.53959e-15 0)
(-1 2.23592e-15 0)
(-1 -1.56032e-14 0)
(-1 2.20366e-14 0)
(-1 -1.48993e-14 0)
(-1 -3.31443e-15 0)
(-1 2.13868e-14 0)
(-1 -6.69064e-15 0)
(-1 -2.92253e-14 0)
(-1 3.23945e-18 0)
(-1 -1.00842e-17 0)
(-1 -5.40241e-17 0)
(-1 -5.3211e-17 0)
(-1 -3.15186e-17 0)
(-1 -3.08843e-18 0)
(-1 2.28279e-17 0)
(-1 -1.50753e-17 0)
(-1 -1.61733e-17 0)
(-1 3.35289e-17 0)
(-1 1.06299e-17 0)
(-1 -9.93748e-19 0)
(-1 9.22188e-18 0)
(-1 -8.40659e-18 0)
(-1 4.55913e-18 0)
(-1 3.87646e-17 0)
(-1 7.05155e-17 0)
(-1 2.54497e-17 0)
(-1 -2.61212e-17 0)
(-1 -1.36468e-17 0)
(-1 3.60239e-14 0)
(-1 -7.45302e-15 0)
(-1 1.79617e-15 0)
(-1 -3.38861e-16 0)
(-1 1.24894e-16 0)
(-1 1.32051e-17 0)
(-1 2.25423e-17 0)
(-1 1.46477e-17 0)
(-1 5.7523e-17 0)
(-1 1.06134e-16 0)
(-1 3.32314e-17 0)
(-1 -3.84437e-19 0)
(-1 -9.24078e-18 0)
(-1 2.92357e-17 0)
(-1 6.4483e-17 0)
(-1 4.97279e-17 0)
(-1 2.41095e-17 0)
(-1 1.81565e-18 0)
(-1 -2.43317e-17 0)
(-1 3.23945e-18 0)
)
;
    }
    frontAndBack
    {
        type            empty;
    }
}


// ************************************************************************* //
