/*--------------------------------*- C++ -*----------------------------------*\
| =========                 |                                                 |
| \\      /  F ield         | OpenFOAM: The Open Source CFD Toolbox           |
|  \\    /   O peration     | Version:  2506                                  |
|   \\  /    A nd           | Website:  www.openfoam.com                      |
|    \\/     M anipulation  |                                                 |
\*---------------------------------------------------------------------------*/
FoamFile
{
    version     2.0;
    format      ascii;
    arch        "LSB;label=32;scalar=64";
    class       volVectorField;
    location    "5.75";
    object      vorticityField;
}
// * * * * * * * * * * * * * * * * * * * * * * * * * * * * * * * * * * * * * //

dimensions      [0 0 -1 0 0 0 0];

internalField   nonuniform List<vector> 
400
(
(0 -0 6.30245e-12)
(0 -0 -8.4485e-12)
(0 -0 1.69723e-12)
(0 -0 -4.72029e-13)
(0 -0 3.38065e-14)
(0 -0 -5.26931e-14)
(0 -0 3.60654e-16)
(0 -0 -1.83599e-14)
(0 -0 2.28717e-14)
(0 -0 -6.07289e-15)
(0 -0 -2.66297e-14)
(0 -0 -1.0618e-14)
(0 -0 7.40503e-15)
(0 -0 1.84309e-14)
(0 -0 5.93332e-14)
(0 -0 7.12218e-14)
(0 -0 -1.19781e-14)
(0 -0 -1.21103e-14)
(0 -0 3.55949e-16)
(0 -0 5.27305e-15)
(0 -0 2.2425e-12)
(0 -0 -2.69129e-12)
(0 -0 7.52658e-13)
(0 -0 -6.19938e-14)
(0 -0 1.85055e-13)
(0 -0 9.1995e-14)
(0 -0 7.7576e-14)
(0 -0 1.14481e-13)
(0 -0 2.11627e-13)
(0 -0 1.38826e-13)
(0 -0 6.89427e-14)
(0 -0 5.31077e-14)
(0 -0 1.438e-13)
(0 -0 5.66327e-14)
(0 -0 1.94225e-14)
(0 -0 -4.20731e-14)
(0 -0 -1.33232e-14)
(0 -0 -8.65968e-15)
(0 -0 5.66284e-14)
(0 -0 6.77553e-14)
(0 -0 -6.13198e-12)
(0 -0 9.47022e-12)
(0 -0 -2.30005e-12)
(0 -0 3.69478e-13)
(0 -0 -3.15752e-13)
(0 -0 -1.15364e-13)
(0 -0 -1.52013e-13)
(0 -0 -1.50619e-13)
(0 -0 -2.27012e-13)
(0 -0 -7.81708e-14)
(0 -0 -7.30676e-14)
(0 -0 -9.91486e-14)
(0 -0 -7.57827e-14)
(0 -0 -6.87927e-14)
(0 -0 -1.00528e-13)
(0 -0 -9.05633e-14)
(0 -0 1.34106e-15)
(0 -0 -2.95956e-14)
(0 -0 -5.50645e-14)
(0 -0 -2.14782e-14)
(0 -0 4.62171e-12)
(0 -0 -6.46518e-12)
(0 -0 1.38572e-12)
(0 -0 -3.95693e-13)
(0 -0 4.5392e-14)
(0 -0 -2.05575e-14)
(0 -0 -2.40076e-14)
(0 -0 9.39084e-15)
(0 -0 -3.26622e-14)
(0 -0 -1.00637e-13)
(0 -0 -2.48313e-14)
(0 -0 7.2137e-14)
(0 -0 -5.01687e-14)
(0 -0 -6.98066e-14)
(0 -0 -7.43632e-14)
(0 -0 -3.76232e-14)
(0 -0 -2.37472e-15)
(0 -0 -3.87592e-14)
(0 -0 -2.69721e-14)
(0 -0 9.56438e-15)
(0 -0 -1.0823e-12)
(0 -0 1.23939e-12)
(0 -0 -2.58814e-13)
(0 -0 1.64603e-13)
(0 -0 6.86078e-14)
(0 -0 4.11268e-14)
(0 -0 1.25216e-14)
(0 -0 2.81374e-14)
(0 -0 -4.20044e-15)
(0 -0 -3.63982e-14)
(0 -0 -5.67449e-16)
(0 -0 3.84266e-15)
(0 -0 -7.49021e-15)
(0 -0 -1.06502e-14)
(0 -0 2.36734e-14)
(0 -0 2.74902e-14)
(0 -0 -6.03595e-17)
(0 -0 2.03793e-14)
(0 -0 -2.91382e-15)
(0 -0 -9.53768e-15)
(0 -0 -2.76921e-12)
(0 -0 3.86623e-12)
(0 -0 -8.31304e-13)
(0 -0 1.90249e-13)
(0 -0 -7.48659e-14)
(0 -0 -1.75141e-14)
(0 -0 1.27242e-15)
(0 -0 -3.71783e-14)
(0 -0 -3.80197e-14)
(0 -0 -5.83319e-14)
(0 -0 -7.08989e-14)
(0 -0 -1.01821e-13)
(0 -0 -1.10459e-13)
(0 -0 1.18561e-14)
(0 -0 7.41196e-15)
(0 -0 -1.76134e-15)
(0 -0 -2.99123e-14)
(0 -0 3.3521e-14)
(0 -0 4.90323e-15)
(0 -0 -1.26754e-15)
(0 -0 4.47581e-12)
(0 -0 -5.48352e-12)
(0 -0 1.29301e-12)
(0 -0 -3.37286e-13)
(0 -0 6.86692e-14)
(0 -0 2.77522e-14)
(0 -0 1.3161e-13)
(0 -0 5.91956e-14)
(0 -0 5.37082e-14)
(0 -0 8.46235e-14)
(0 -0 2.58616e-14)
(0 -0 3.33617e-14)
(0 -0 8.56456e-14)
(0 -0 4.84077e-14)
(0 -0 2.07443e-14)
(0 -0 1.58795e-14)
(0 -0 1.59036e-14)
(0 -0 6.43744e-15)
(0 -0 9.11339e-14)
(0 -0 1.48955e-14)
(0 -0 -1.78933e-12)
(0 -0 1.70486e-12)
(0 -0 -3.21508e-13)
(0 -0 2.30663e-13)
(0 -0 6.82192e-14)
(0 -0 4.39147e-14)
(0 -0 1.33593e-14)
(0 -0 7.15642e-14)
(0 -0 8.77121e-14)
(0 -0 1.23834e-13)
(0 -0 5.93584e-14)
(0 -0 5.35509e-14)
(0 -0 1.38359e-14)
(0 -0 -6.64311e-14)
(0 -0 5.5482e-15)
(0 -0 -1.71631e-14)
(0 -0 3.22146e-15)
(0 -0 -3.58299e-14)
(0 -0 -6.44006e-14)
(0 -0 3.18621e-14)
(0 -0 -2.12837e-12)
(0 -0 2.50023e-12)
(0 -0 -7.08217e-13)
(0 -0 1.0147e-13)
(0 -0 -4.47092e-14)
(0 -0 1.22237e-14)
(0 -0 -3.25197e-15)
(0 -0 -3.92011e-14)
(0 -0 -6.39158e-14)
(0 -0 -2.08346e-14)
(0 -0 1.25218e-14)
(0 -0 5.08322e-14)
(0 -0 4.74001e-14)
(0 -0 6.27889e-14)
(0 -0 1.70093e-14)
(0 -0 3.76415e-14)
(0 -0 -2.87489e-14)
(0 -0 -1.17965e-14)
(0 -0 -4.07523e-14)
(0 -0 -2.33633e-14)
(0 -0 4.70648e-12)
(0 -0 -3.7912e-12)
(0 -0 8.71962e-13)
(0 -0 -2.7166e-13)
(0 -0 -5.07829e-14)
(0 -0 -8.37651e-14)
(0 -0 -9.5977e-14)
(0 -0 -1.32951e-13)
(0 -0 -6.85238e-14)
(0 -0 -1.07753e-13)
(0 -0 -4.51894e-14)
(0 -0 -4.96945e-14)
(0 -0 -5.27652e-14)
(0 -0 6.19053e-14)
(0 -0 6.23022e-14)
(0 -0 5.38095e-14)
(0 -0 3.05559e-14)
(0 -0 3.86595e-14)
(0 -0 2.87643e-14)
(0 -0 7.12638e-15)
(0 -0 -4.49251e-12)
(0 -0 3.2095e-12)
(0 -0 -7.97447e-13)
(0 -0 1.57774e-13)
(0 -0 -3.30816e-14)
(0 -0 -3.42517e-14)
(0 -0 -4.75826e-15)
(0 -0 3.26805e-14)
(0 -0 7.49242e-14)
(0 -0 7.33792e-14)
(0 -0 3.82097e-14)
(0 -0 -8.46259e-14)
(0 -0 -5.58708e-15)
(0 -0 -4.70964e-14)
(0 -0 5.22288e-15)
(0 -0 -4.41254e-14)
(0 -0 6.10614e-14)
(0 -0 -4.2839e-15)
(0 -0 -1.04439e-15)
(0 -0 -2.83948e-14)
(0 -0 1.84606e-12)
(0 -0 -2.09088e-12)
(0 -0 4.90401e-13)
(0 -0 -1.01604e-13)
(0 -0 5.3719e-15)
(0 -0 1.08987e-13)
(0 -0 9.27828e-14)
(0 -0 1.14623e-13)
(0 -0 8.43977e-14)
(0 -0 7.9583e-14)
(0 -0 7.91835e-14)
(0 -0 5.93449e-14)
(0 -0 8.71404e-14)
(0 -0 5.09373e-14)
(0 -0 -3.34328e-15)
(0 -0 5.84111e-14)
(0 -0 -3.02678e-15)
(0 -0 -3.71889e-14)
(0 -0 -2.21948e-15)
(0 -0 2.60916e-15)
(0 -0 1.62375e-12)
(0 -0 -6.60919e-13)
(0 -0 2.26349e-13)
(0 -0 -1.18429e-14)
(0 -0 3.27457e-14)
(0 -0 -5.26851e-14)
(0 -0 -3.18914e-14)
(0 -0 -3.5736e-14)
(0 -0 -1.1213e-13)
(0 -0 -1.55196e-13)
(0 -0 -1.34822e-13)
(0 -0 3.65945e-14)
(0 -0 -1.61896e-14)
(0 -0 -6.36385e-14)
(0 -0 -8.36846e-14)
(0 -0 -5.43361e-14)
(0 -0 -5.67605e-14)
(0 -0 2.52335e-15)
(0 -0 8.38621e-15)
(0 -0 2.68982e-16)
(0 -0 -4.00378e-12)
(0 -0 3.75503e-12)
(0 -0 -9.17812e-13)
(0 -0 2.03036e-13)
(0 -0 -1.88358e-14)
(0 -0 1.11967e-14)
(0 -0 -1.20704e-13)
(0 -0 -9.92516e-14)
(0 -0 -7.40165e-14)
(0 -0 -3.3047e-14)
(0 -0 7.23157e-14)
(0 -0 1.77865e-14)
(0 -0 -4.94202e-14)
(0 -0 -2.78111e-14)
(0 -0 -3.50395e-14)
(0 -0 -1.23845e-14)
(0 -0 -3.63557e-14)
(0 -0 2.13988e-14)
(0 -0 6.80903e-15)
(0 -0 1.27426e-14)
(0 -0 4.66634e-12)
(0 -0 -5.17662e-12)
(0 -0 1.23797e-12)
(0 -0 -1.93668e-13)
(0 -0 1.06811e-13)
(0 -0 -1.70626e-14)
(0 -0 1.07729e-14)
(0 -0 -1.67585e-14)
(0 -0 3.10307e-14)
(0 -0 6.48223e-14)
(0 -0 2.99132e-15)
(0 -0 5.00139e-14)
(0 -0 -2.75714e-14)
(0 -0 1.85441e-15)
(0 -0 1.87346e-14)
(0 -0 -6.94482e-14)
(0 -0 -2.54023e-14)
(0 -0 1.07457e-14)
(0 -0 -2.3492e-14)
(0 -0 -1.55193e-15)
(0 -0 -3.01236e-12)
(0 -0 3.56321e-12)
(0 -0 -8.22142e-13)
(0 -0 1.04018e-13)
(0 -0 -1.30724e-13)
(0 -0 6.83282e-15)
(0 -0 2.79752e-14)
(0 -0 -2.54991e-14)
(0 -0 -1.91172e-14)
(0 -0 -5.56812e-14)
(0 -0 -7.94611e-14)
(0 -0 -1.29212e-13)
(0 -0 -2.43885e-14)
(0 -0 -4.32656e-14)
(0 -0 -2.35651e-14)
(0 -0 -1.85134e-15)
(0 -0 6.22123e-14)
(0 -0 1.85537e-14)
(0 -0 3.53912e-14)
(0 -0 -2.0127e-14)
(0 -0 4.44113e-13)
(0 -0 5.9994e-13)
(0 -0 -1.37498e-13)
(0 -0 -5.11441e-14)
(0 -0 -6.77821e-14)
(0 -0 -1.67565e-14)
(0 -0 3.22168e-15)
(0 -0 4.80763e-14)
(0 -0 7.40596e-14)
(0 -0 3.65412e-14)
(0 -0 -1.03894e-14)
(0 -0 -9.96471e-15)
(0 -0 5.6222e-14)
(0 -0 9.26245e-14)
(0 -0 5.86553e-14)
(0 -0 -7.60176e-15)
(0 -0 -3.00042e-15)
(0 -0 6.52826e-14)
(0 -0 1.82522e-14)
(0 -0 -2.29562e-16)
(0 -0 3.08832e-12)
(0 -0 -4.65453e-12)
(0 -0 1.07894e-12)
(0 -0 -1.84007e-13)
(0 -0 9.61998e-14)
(0 -0 1.96942e-14)
(0 -0 6.49125e-14)
(0 -0 9.47628e-14)
(0 -0 1.07037e-13)
(0 -0 1.22192e-13)
(0 -0 4.60347e-14)
(0 -0 2.82105e-14)
(0 -0 -2.53062e-14)
(0 -0 5.3153e-14)
(0 -0 8.1911e-14)
(0 -0 1.34019e-13)
(0 -0 6.53918e-14)
(0 -0 -4.25905e-15)
(0 -0 -9.33796e-15)
(0 -0 -1.3615e-14)
(0 -0 -1.84959e-12)
(0 -0 1.46092e-12)
(0 -0 -4.73789e-13)
(0 -0 2.76971e-14)
(0 -0 -4.41547e-14)
(0 -0 -8.10901e-14)
(0 -0 -1.53441e-13)
(0 -0 -1.31433e-13)
(0 -0 -1.47124e-13)
(0 -0 -6.81826e-14)
(0 -0 -5.1523e-15)
(0 -0 3.69639e-16)
(0 -0 -4.0784e-14)
(0 -0 -9.05606e-14)
(0 -0 -4.15962e-14)
(0 -0 -3.62659e-14)
(0 -0 5.61178e-15)
(0 -0 -5.8438e-14)
(0 -0 -1.33711e-14)
(0 -0 -2.1456e-14)
(0 -0 -5.16272e-12)
(0 -0 6.89597e-12)
(0 -0 -1.3639e-12)
(0 -0 3.93671e-13)
(0 -0 -2.16558e-14)
(0 -0 3.80611e-14)
(0 -0 4.72345e-14)
(0 -0 4.57536e-14)
(0 -0 4.00625e-14)
(0 -0 2.05985e-15)
(0 -0 4.83779e-14)
(0 -0 2.12283e-14)
(0 -0 3.68274e-14)
(0 -0 2.46489e-14)
(0 -0 -8.62163e-15)
(0 -0 -1.23191e-14)
(0 -0 -6.39404e-14)
(0 -0 1.72154e-15)
(0 -0 5.95501e-15)
(0 -0 3.44718e-14)
)
;

boundaryField
{
    movingWall
    {
        type            calculated;
        value           nonuniform List<vector> 
20
(
(0 -0 -6.31904e-12)
(0 -0 7.61632e-12)
(0 -0 -9.1231e-13)
(0 -0 5.61505e-13)
(0 -0 2.79405e-13)
(0 -0 2.7741e-13)
(0 -0 3.03887e-13)
(0 -0 2.57997e-13)
(0 -0 2.52306e-13)
(0 -0 1.79696e-13)
(0 -0 6.56817e-14)
(0 -0 6.56372e-14)
(0 -0 9.72237e-15)
(0 -0 4.19527e-14)
(0 -0 -8.62163e-15)
(0 -0 7.64987e-14)
(0 -0 3.46786e-14)
(0 -0 4.61305e-14)
(0 -0 5.95501e-15)
(0 -0 5.17757e-14)
)
;
    }
    fixedWalls
    {
        type            calculated;
        value           nonuniform List<vector> 
60
(
(0 -0 3.51836e-11)
(0 -0 1.25773e-11)
(0 -0 -4.07285e-11)
(0 -0 2.74429e-11)
(0 -0 -4.64938e-12)
(0 -0 -1.6617e-11)
(0 -0 2.33992e-11)
(0 -0 -7.08457e-12)
(0 -0 -1.12059e-11)
(0 -0 1.69059e-11)
(0 -0 -1.42881e-11)
(0 -0 8.70222e-12)
(0 -0 3.37434e-12)
(0 -0 -1.65248e-11)
(0 -0 2.23348e-11)
(0 -0 -1.49806e-11)
(0 -0 -2.25733e-12)
(0 -0 2.0167e-11)
(0 -0 -7.12432e-12)
(0 -0 -2.86019e-11)
(0 -0 -3.23945e-15)
(0 -0 6.42943e-14)
(0 -0 -1.86055e-16)
(0 -0 2.61059e-14)
(0 -0 4.4135e-15)
(0 -0 3.08843e-15)
(0 -0 4.27719e-15)
(0 -0 4.21803e-14)
(0 -0 -1.09317e-14)
(0 -0 -6.42389e-15)
(0 -0 -3.77349e-14)
(0 -0 9.93748e-16)
(0 -0 -9.22188e-15)
(0 -0 8.40659e-15)
(0 -0 -4.55913e-15)
(0 -0 -3.87646e-14)
(0 -0 -4.34104e-14)
(0 -0 -2.54497e-14)
(0 -0 -9.83841e-16)
(0 -0 4.07519e-14)
(0 -0 1.06954e-11)
(0 -0 -1.02445e-11)
(0 -0 1.33445e-12)
(0 -0 -9.06317e-13)
(0 -0 -3.11664e-13)
(0 -0 -3.80859e-13)
(0 -0 -3.54911e-13)
(0 -0 -3.02117e-13)
(0 -0 -3.76809e-13)
(0 -0 -2.72526e-13)
(0 -0 -1.15448e-13)
(0 -0 -1.43845e-13)
(0 -0 -2.1464e-13)
(0 -0 -1.14796e-13)
(0 -0 -3.92859e-14)
(0 -0 7.87245e-14)
(0 -0 -1.19781e-14)
(0 -0 7.67075e-14)
(0 -0 -4.4053e-14)
(0 -0 5.27305e-15)
)
;
    }
    frontAndBack
    {
        type            empty;
    }
}


// ************************************************************************* //
