/*--------------------------------*- C++ -*----------------------------------*\
| =========                 |                                                 |
| \\      /  F ield         | OpenFOAM: The Open Source CFD Toolbox           |
|  \\    /   O peration     | Version:  2506                                  |
|   \\  /    A nd           | Website:  www.openfoam.com                      |
|    \\/     M anipulation  |                                                 |
\*---------------------------------------------------------------------------*/
FoamFile
{
    version     2.0;
    format      ascii;
    arch        "LSB;label=32;scalar=64";
    class       volVectorField;
    location    "8";
    object      ddtU;
}
// * * * * * * * * * * * * * * * * * * * * * * * * * * * * * * * * * * * * * //

dimensions      [0 1 -2 0 0 0 0];

internalField   nonuniform List<vector> 
400
(
(-2.22045e-14 1.77928e-13 0)
(-6.66134e-14 -4.63488e-14 0)
(-2.22045e-14 2.68709e-15 0)
(-4.44089e-14 -1.43512e-14 0)
(-2.22045e-14 -1.17741e-14 0)
(0 -4.51037e-16 0)
(-2.22045e-14 8.62037e-15 0)
(0 8.9284e-15 0)
(-2.22045e-14 5.44784e-15 0)
(-2.22045e-14 9.52562e-16 0)
(-4.44089e-14 1.18941e-15 0)
(2.22045e-14 -5.00079e-15 0)
(-4.44089e-14 -1.84658e-15 0)
(-2.22045e-14 -1.16386e-15 0)
(0 -1.20043e-14 0)
(0 -5.1811e-15 0)
(2.22045e-14 1.46637e-14 0)
(-8.88178e-14 6.14484e-15 0)
(0 -1.4742e-14 0)
(0 -2.36843e-15 0)
(8.88178e-14 -1.683e-14 0)
(-4.44089e-14 -8.50565e-15 0)
(0 -2.66967e-15 0)
(0 -5.13385e-15 0)
(-1.33227e-13 -4.44398e-15 0)
(-4.44089e-14 4.98931e-15 0)
(-4.44089e-14 7.4526e-15 0)
(-4.44089e-14 7.99313e-15 0)
(-4.44089e-14 -3.06183e-15 0)
(0 -1.39204e-14 0)
(0 -1.0506e-14 0)
(2.22045e-14 -9.75889e-15 0)
(4.44089e-14 -1.06293e-14 0)
(6.66134e-14 1.86529e-15 0)
(0 -8.09748e-15 0)
(-4.44089e-14 1.37139e-14 0)
(-4.44089e-14 1.28591e-14 0)
(0 -1.15198e-14 0)
(4.44089e-14 -2.42857e-14 0)
(0 -3.94757e-15 0)
(4.44089e-14 -1.61075e-13 0)
(0 1.1494e-14 0)
(2.22045e-14 -1.319e-14 0)
(0 1.58031e-14 0)
(2.22045e-14 1.40594e-14 0)
(0 9.04971e-16 0)
(0 -8.88211e-16 0)
(0 1.86282e-15 0)
(0 -2.94552e-15 0)
(-6.66134e-14 -6.18726e-15 0)
(-8.88178e-14 -1.35914e-14 0)
(-4.44089e-14 -2.50575e-14 0)
(-4.44089e-14 -1.68291e-14 0)
(0 5.27849e-15 0)
(0 1.10524e-14 0)
(0 4.35771e-15 0)
(0 -7.68983e-15 0)
(4.44089e-14 -1.56028e-14 0)
(-2.22045e-14 -9.07642e-15 0)
(0 -5.30146e-15 0)
(4.44089e-14 3.29702e-14 0)
(2.22045e-14 -4.40653e-16 0)
(-2.22045e-14 -8.51382e-15 0)
(0 -9.95837e-16 0)
(2.22045e-14 1.97807e-14 0)
(0 2.6811e-14 0)
(-4.44089e-14 1.58345e-14 0)
(-4.44089e-14 -1.08171e-14 0)
(-4.44089e-14 -1.80366e-14 0)
(0 -5.05223e-15 0)
(0 5.8973e-15 0)
(0 -6.9192e-15 0)
(-6.66134e-14 -2.72334e-14 0)
(-4.44089e-14 -2.44496e-14 0)
(2.22045e-14 1.58073e-15 0)
(-2.22045e-14 -6.3136e-15 0)
(0 -5.14382e-15 0)
(-4.44089e-14 -1.03468e-15 0)
(0 -1.09121e-15 0)
(-2.22045e-14 -8.1781e-15 0)
(-8.88178e-14 -4.66267e-14 0)
(0 6.83813e-15 0)
(-4.44089e-14 -1.68891e-14 0)
(4.44089e-14 -1.18241e-14 0)
(0 7.80818e-15 0)
(0 3.16394e-14 0)
(6.66134e-14 2.11443e-14 0)
(4.44089e-14 3.05412e-15 0)
(0 -1.19568e-14 0)
(0 -1.5733e-14 0)
(-4.44089e-14 1.76744e-15 0)
(0 -4.34462e-15 0)
(4.44089e-14 -2.66567e-14 0)
(-2.22045e-14 -3.86706e-14 0)
(-2.22045e-14 -9.52806e-15 0)
(0 1.35249e-14 0)
(6.66134e-14 7.17425e-15 0)
(2.22045e-14 -5.42448e-15 0)
(4.44089e-14 -4.2028e-15 0)
(0 7.81497e-16 0)
(-4.44089e-14 -1.03469e-13 0)
(0 -2.46731e-14 0)
(0 -8.0059e-15 0)
(2.22045e-14 4.00942e-15 0)
(-4.44089e-14 -1.30758e-15 0)
(-2.22045e-14 1.64045e-14 0)
(2.22045e-14 5.21698e-15 0)
(4.44089e-14 6.48869e-15 0)
(2.22045e-14 1.64403e-14 0)
(-6.66134e-14 1.29308e-14 0)
(0 1.56824e-15 0)
(0 -2.20748e-14 0)
(-4.44089e-14 -1.76068e-14 0)
(-4.44089e-14 -7.94945e-15 0)
(-2.22045e-14 -1.07549e-14 0)
(-4.44089e-14 -1.40208e-14 0)
(8.88178e-14 -7.21127e-15 0)
(4.44089e-14 7.83869e-15 0)
(4.44089e-14 -1.39738e-16 0)
(0 5.36761e-15 0)
(6.66134e-14 5.45927e-14 0)
(-6.66134e-14 -4.05072e-14 0)
(-8.88178e-14 -2.51583e-15 0)
(0 5.4558e-15 0)
(-4.44089e-14 1.79184e-14 0)
(-8.88178e-14 1.90342e-14 0)
(4.44089e-14 -5.2403e-17 0)
(-4.44089e-14 -1.24995e-14 0)
(-4.44089e-14 1.22027e-15 0)
(4.44089e-14 1.12707e-14 0)
(0 -1.48139e-15 0)
(8.88178e-14 9.90492e-15 0)
(0 8.27857e-15 0)
(0 3.12043e-15 0)
(2.22045e-14 -8.85026e-15 0)
(0 -2.24086e-14 0)
(2.22045e-14 -3.23437e-14 0)
(-2.22045e-14 8.83491e-15 0)
(4.44089e-14 9.46916e-15 0)
(0 7.17091e-15 0)
(-1.33227e-13 -6.55681e-14 0)
(4.44089e-14 2.06399e-15 0)
(-4.44089e-14 2.63901e-16 0)
(0 8.22797e-15 0)
(-4.44089e-14 3.38405e-15 0)
(4.44089e-14 -1.31459e-14 0)
(0 3.18399e-15 0)
(4.44089e-14 1.31107e-14 0)
(0 5.30256e-15 0)
(0 -7.95957e-15 0)
(0 -8.63368e-15 0)
(-4.44089e-14 1.12772e-14 0)
(4.44089e-14 1.30569e-14 0)
(4.44089e-14 -5.32577e-15 0)
(0 -1.4182e-15 0)
(4.44089e-14 -2.35359e-16 0)
(0 -9.78186e-15 0)
(-4.44089e-14 3.28657e-15 0)
(2.22045e-14 4.22435e-15 0)
(0 1.43972e-15 0)
(6.66134e-14 -3.12786e-14 0)
(-2.22045e-14 5.47079e-15 0)
(2.22045e-14 1.05378e-14 0)
(0 1.61615e-14 0)
(0 -7.55589e-15 0)
(-2.22045e-14 -1.8568e-14 0)
(-6.66134e-14 -7.5102e-15 0)
(0 7.62462e-15 0)
(-4.44089e-14 1.23138e-14 0)
(2.22045e-14 -2.78445e-15 0)
(-2.22045e-14 1.20159e-14 0)
(-2.22045e-14 1.54851e-14 0)
(-2.22045e-14 1.1752e-14 0)
(-4.44089e-14 1.05471e-14 0)
(-4.44089e-14 1.35062e-16 0)
(-4.44089e-14 -1.53136e-14 0)
(-4.44089e-14 -8.06178e-16 0)
(-4.44089e-14 -6.22617e-15 0)
(0 4.99564e-17 0)
(4.44089e-14 -2.37545e-15 0)
(0 4.38908e-14 0)
(2.22045e-14 1.01568e-14 0)
(0 -5.2534e-15 0)
(6.66134e-14 1.26638e-14 0)
(2.22045e-14 1.0663e-14 0)
(4.44089e-14 -4.21763e-15 0)
(-2.22045e-14 -2.00194e-15 0)
(-4.44089e-14 4.93983e-15 0)
(-4.44089e-14 -2.82221e-15 0)
(0 -8.20828e-15 0)
(0 -4.26213e-15 0)
(0 7.54579e-15 0)
(4.44089e-14 2.35158e-14 0)
(4.44089e-14 2.14302e-14 0)
(4.44089e-14 7.17042e-16 0)
(4.44089e-14 -6.45528e-15 0)
(0 3.33299e-15 0)
(-2.22045e-14 1.43953e-15 0)
(0 -1.36613e-16 0)
(0 2.7822e-15 0)
(2.22045e-14 -1.05143e-13 0)
(-4.44089e-14 3.02634e-14 0)
(0 -3.35676e-15 0)
(-8.88178e-14 1.0668e-14 0)
(0 8.11602e-15 0)
(-4.44089e-14 -7.32916e-15 0)
(0 4.6153e-15 0)
(0 1.84961e-15 0)
(4.44089e-14 -1.3726e-14 0)
(0 -2.86606e-15 0)
(0 -9.76331e-15 0)
(0 -1.58521e-14 0)
(-4.44089e-14 2.05231e-15 0)
(0 -1.14877e-15 0)
(0 2.75066e-15 0)
(0 1.83811e-14 0)
(0 2.00565e-14 0)
(0 8.01609e-15 0)
(0 4.82871e-15 0)
(0 1.2306e-14 0)
(-2.22045e-14 9.60793e-14 0)
(8.88178e-14 -1.95227e-14 0)
(-4.44089e-14 8.35845e-15 0)
(0 -1.42815e-14 0)
(8.88178e-14 -1.91156e-14 0)
(4.44089e-14 -1.38189e-14 0)
(4.44089e-14 -1.38993e-14 0)
(4.44089e-14 -1.11337e-14 0)
(0 -1.03173e-14 0)
(0 1.036e-14 0)
(0 2.4046e-15 0)
(-4.44089e-14 -7.42398e-15 0)
(-4.44089e-14 -6.29052e-15 0)
(-2.22045e-14 1.02627e-14 0)
(2.22045e-14 4.22548e-15 0)
(0 3.0377e-15 0)
(2.22045e-14 1.35561e-14 0)
(-2.22045e-14 6.69378e-16 0)
(0 1.77364e-14 0)
(0 2.61779e-14 0)
(-4.44089e-14 -8.4948e-14 0)
(2.22045e-14 2.19648e-14 0)
(0 -7.98325e-15 0)
(0 -2.54606e-14 0)
(-4.44089e-14 -2.24917e-14 0)
(0 6.22187e-15 0)
(-4.44089e-14 -4.12556e-15 0)
(0 -1.57186e-15 0)
(-4.44089e-14 2.78356e-15 0)
(0 1.21196e-15 0)
(4.44089e-14 3.04652e-15 0)
(0 -4.94085e-15 0)
(-4.44089e-14 -1.88214e-14 0)
(0 -1.06758e-14 0)
(0 -4.59163e-15 0)
(4.44089e-14 8.62817e-15 0)
(0 1.87406e-14 0)
(4.44089e-14 1.94884e-14 0)
(-4.44089e-14 1.99206e-14 0)
(4.44089e-14 3.26921e-14 0)
(-2.22045e-14 -6.8089e-14 0)
(0 -1.13824e-15 0)
(2.22045e-14 -2.0528e-14 0)
(0 -1.98972e-14 0)
(0 -7.3723e-15 0)
(0 1.85764e-14 0)
(0 1.69804e-14 0)
(-2.22045e-14 -1.47315e-14 0)
(-6.66134e-14 -1.89375e-14 0)
(0 -1.85527e-14 0)
(-2.22045e-14 3.01602e-15 0)
(2.22045e-14 -1.27319e-15 0)
(2.22045e-14 -1.17177e-14 0)
(4.44089e-14 -1.68546e-14 0)
(-2.22045e-14 -6.98263e-15 0)
(-4.44089e-14 8.52486e-15 0)
(-2.22045e-14 1.01532e-14 0)
(2.22045e-14 4.17308e-14 0)
(2.22045e-14 3.36597e-14 0)
(0 2.29535e-14 0)
(-8.88178e-14 8.77875e-14 0)
(0 -3.78485e-14 0)
(0 4.84503e-15 0)
(-4.44089e-14 -2.43184e-14 0)
(0 -2.52898e-14 0)
(-4.44089e-14 -1.97342e-14 0)
(4.44089e-14 4.77994e-15 0)
(4.44089e-14 9.0266e-15 0)
(-2.22045e-14 -3.84799e-15 0)
(0 -3.71408e-15 0)
(-2.22045e-14 -2.65032e-16 0)
(-2.22045e-14 -8.35443e-15 0)
(-6.66134e-14 -4.13537e-15 0)
(-4.44089e-14 -3.32488e-15 0)
(-4.44089e-14 -2.51079e-15 0)
(4.44089e-14 -2.71767e-15 0)
(-6.66134e-14 1.41029e-14 0)
(4.44089e-14 3.01905e-14 0)
(0 2.4395e-14 0)
(0 8.24573e-15 0)
(8.88178e-14 -7.51334e-14 0)
(4.44089e-14 1.47027e-14 0)
(4.44089e-14 -4.29036e-15 0)
(6.66134e-14 -9.37451e-15 0)
(2.22045e-14 -1.35743e-15 0)
(-2.22045e-14 -2.42593e-14 0)
(-2.22045e-14 -1.43186e-14 0)
(-4.44089e-14 6.21371e-15 0)
(0 7.26542e-16 0)
(0 -3.07403e-15 0)
(0 -6.48523e-15 0)
(4.44089e-14 -8.6645e-16 0)
(-4.44089e-14 1.10226e-14 0)
(-4.44089e-14 -3.6864e-15 0)
(2.22045e-14 -1.01982e-14 0)
(-4.44089e-14 6.58133e-15 0)
(-2.22045e-14 2.15075e-14 0)
(0 1.56973e-16 0)
(4.44089e-14 -2.8999e-15 0)
(0 8.49337e-15 0)
(-1.33227e-13 2.03222e-14 0)
(0 -1.54076e-14 0)
(0 -3.14051e-14 0)
(0 -9.91762e-15 0)
(-4.44089e-14 8.05475e-15 0)
(1.11022e-13 -8.31416e-16 0)
(-2.22045e-14 -7.82019e-15 0)
(8.88178e-14 -2.24635e-14 0)
(2.22045e-14 -8.93149e-15 0)
(4.44089e-14 8.34466e-16 0)
(6.66134e-14 -7.09166e-15 0)
(-2.22045e-14 1.08223e-14 0)
(-2.22045e-14 2.32979e-14 0)
(2.22045e-14 9.98765e-15 0)
(0 -1.07531e-14 0)
(0 -1.54043e-14 0)
(4.44089e-14 1.06333e-15 0)
(6.66134e-14 4.4829e-15 0)
(0 6.22802e-16 0)
(0 9.46478e-15 0)
(4.44089e-14 1.04035e-13 0)
(2.22045e-14 -3.63656e-14 0)
(0 -2.34541e-14 0)
(0 -8.70959e-15 0)
(2.22045e-14 -1.72333e-14 0)
(0 -9.30433e-15 0)
(-4.44089e-14 -1.24121e-14 0)
(4.44089e-14 -1.59161e-14 0)
(-2.22045e-14 -4.34342e-15 0)
(0 4.10081e-15 0)
(2.22045e-14 6.88631e-16 0)
(4.44089e-14 9.97426e-15 0)
(0 1.49464e-14 0)
(6.66134e-14 1.08264e-14 0)
(4.44089e-14 3.29116e-15 0)
(-4.44089e-14 -1.20398e-15 0)
(-6.66134e-14 -1.0723e-14 0)
(0 -8.19279e-15 0)
(2.22045e-14 -5.41363e-15 0)
(-4.44089e-14 7.50087e-16 0)
(2.22045e-14 -2.92276e-14 0)
(0 5.16751e-15 0)
(4.44089e-14 -7.26119e-15 0)
(0 -6.81603e-15 0)
(0 -2.21907e-14 0)
(0 -1.32889e-14 0)
(2.22045e-14 -1.54823e-14 0)
(6.66134e-14 -3.80488e-15 0)
(2.22045e-14 1.75218e-15 0)
(-2.22045e-14 -5.59145e-15 0)
(0 6.44402e-16 0)
(0 1.23941e-14 0)
(0 7.97465e-15 0)
(4.44089e-14 1.053e-14 0)
(4.44089e-14 1.10558e-14 0)
(4.44089e-14 1.47358e-14 0)
(1.11022e-13 -1.22411e-14 0)
(4.44089e-14 -2.42886e-14 0)
(0 -7.00748e-15 0)
(0 -1.33447e-15 0)
(0 -6.27519e-14 0)
(-2.22045e-14 4.52058e-15 0)
(2.22045e-14 -9.08102e-17 0)
(2.22045e-14 -1.1206e-14 0)
(4.44089e-14 -1.64515e-14 0)
(-2.22045e-14 -4.47263e-15 0)
(0 -2.74964e-15 0)
(0 5.76738e-15 0)
(-2.22045e-14 1.698e-14 0)
(4.44089e-14 6.62872e-15 0)
(0 2.91098e-15 0)
(0 4.58629e-15 0)
(6.66134e-14 -4.11935e-15 0)
(2.22045e-14 -1.35465e-15 0)
(2.22045e-14 4.39739e-15 0)
(4.44089e-14 -5.09642e-15 0)
(-2.22045e-14 -5.63607e-15 0)
(-4.44089e-14 -8.53831e-15 0)
(-2.22045e-14 2.68184e-15 0)
(0 3.40676e-15 0)
)
;

boundaryField
{
    movingWall
    {
        type            calculated;
        value           uniform (0 0 0);
    }
    fixedWalls
    {
        type            calculated;
        value           uniform (0 0 0);
    }
    frontAndBack
    {
        type            empty;
    }
}


// ************************************************************************* //
