/*--------------------------------*- C++ -*----------------------------------*\
| =========                 |                                                 |
| \\      /  F ield         | OpenFOAM: The Open Source CFD Toolbox           |
|  \\    /   O peration     | Version:  2506                                  |
|   \\  /    A nd           | Website:  www.openfoam.com                      |
|    \\/     M anipulation  |                                                 |
\*---------------------------------------------------------------------------*/
FoamFile
{
    version     2.0;
    format      ascii;
    arch        "LSB;label=32;scalar=64";
    class       volVectorField;
    location    "8";
    object      diffU;
}
// * * * * * * * * * * * * * * * * * * * * * * * * * * * * * * * * * * * * * //

dimensions      [0 1 -1 0 0 0 0];

internalField   nonuniform List<vector> 
400
(
(0 0 0)
(-5.44009e-15 -6.91015e-14 0)
(-3.88578e-15 -5.51829e-14 0)
(-4.77396e-15 -5.83462e-14 0)
(-4.88498e-15 -5.77368e-14 0)
(-4.77396e-15 -5.78063e-14 0)
(-4.996e-15 -5.77616e-14 0)
(-5.10703e-15 -5.77723e-14 0)
(-5.10703e-15 -5.77645e-14 0)
(-5.32907e-15 -5.77919e-14 0)
(-5.44009e-15 -5.78494e-14 0)
(-5.32907e-15 -5.78556e-14 0)
(-5.44009e-15 -5.78188e-14 0)
(-5.32907e-15 -5.77702e-14 0)
(-5.55112e-15 -5.78477e-14 0)
(-5.55112e-15 -5.791e-14 0)
(-5.44009e-15 -5.78544e-14 0)
(-5.77316e-15 -5.77953e-14 0)
(-5.77316e-15 -5.78857e-14 0)
(-5.55112e-15 -5.79095e-14 0)
(-1.19904e-14 -5.65291e-14 0)
(-5.44009e-15 -5.79409e-14 0)
(-7.32747e-15 -5.77909e-14 0)
(-5.55112e-15 -5.7762e-14 0)
(-6.43929e-15 -5.77636e-14 0)
(-6.21725e-15 -5.77225e-14 0)
(-5.9952e-15 -5.77396e-14 0)
(-5.9952e-15 -5.77779e-14 0)
(-5.9952e-15 -5.78281e-14 0)
(-5.77316e-15 -5.78824e-14 0)
(-5.55112e-15 -5.78893e-14 0)
(-5.44009e-15 -5.78834e-14 0)
(-5.55112e-15 -5.78544e-14 0)
(-5.44009e-15 -5.77106e-14 0)
(-5.55112e-15 -5.77629e-14 0)
(-5.77316e-15 -5.77817e-14 0)
(-5.77316e-15 -5.77854e-14 0)
(-5.9952e-15 -5.78883e-14 0)
(-5.55112e-15 -5.80295e-14 0)
(-5.55112e-15 -5.79567e-14 0)
(-3.33067e-16 -9.85092e-14 0)
(-5.77316e-15 -5.00983e-14 0)
(-5.10703e-15 -5.97247e-14 0)
(-5.32907e-15 -5.74126e-14 0)
(-5.32907e-15 -5.77967e-14 0)
(-5.21805e-15 -5.78212e-14 0)
(-5.32907e-15 -5.78354e-14 0)
(-5.44009e-15 -5.78108e-14 0)
(-5.55112e-15 -5.78894e-14 0)
(-5.77316e-15 -5.79108e-14 0)
(-6.21725e-15 -5.78958e-14 0)
(-5.9952e-15 -5.79943e-14 0)
(-5.9952e-15 -5.79808e-14 0)
(-5.77316e-15 -5.78333e-14 0)
(-5.44009e-15 -5.76683e-14 0)
(-5.55112e-15 -5.77053e-14 0)
(-5.55112e-15 -5.78099e-14 0)
(-5.55112e-15 -5.80255e-14 0)
(-5.44009e-15 -5.80882e-14 0)
(-5.55112e-15 -5.79687e-14 0)
(-8.43769e-15 -3.18549e-14 0)
(-4.21885e-15 -6.33169e-14 0)
(-5.21805e-15 -5.65762e-14 0)
(-5.10703e-15 -5.80733e-14 0)
(-4.996e-15 -5.76682e-14 0)
(-4.88498e-15 -5.77028e-14 0)
(-4.996e-15 -5.7572e-14 0)
(-5.32907e-15 -5.76059e-14 0)
(-5.21805e-15 -5.77398e-14 0)
(-5.32907e-15 -5.78045e-14 0)
(-5.10703e-15 -5.78033e-14 0)
(-5.32907e-15 -5.7835e-14 0)
(-5.77316e-15 -5.78735e-14 0)
(-5.9952e-15 -5.7983e-14 0)
(-5.44009e-15 -5.78634e-14 0)
(-5.44009e-15 -5.7831e-14 0)
(-5.32907e-15 -5.78746e-14 0)
(-5.55112e-15 -5.79703e-14 0)
(-5.44009e-15 -5.7984e-14 0)
(-5.55112e-15 -5.79424e-14 0)
(-2.88658e-15 -6.94412e-14 0)
(-7.10543e-15 -5.53932e-14 0)
(-5.9952e-15 -5.85416e-14 0)
(-5.77316e-15 -5.78683e-14 0)
(-5.55112e-15 -5.79373e-14 0)
(-5.77316e-15 -5.77301e-14 0)
(-5.44009e-15 -5.76772e-14 0)
(-5.21805e-15 -5.76795e-14 0)
(-5.10703e-15 -5.76797e-14 0)
(-5.32907e-15 -5.77554e-14 0)
(-5.55112e-15 -5.77643e-14 0)
(-5.55112e-15 -5.77511e-14 0)
(-5.21805e-15 -5.78556e-14 0)
(-5.32907e-15 -5.80315e-14 0)
(-5.32907e-15 -5.80491e-14 0)
(-5.32907e-15 -5.78564e-14 0)
(-5.10703e-15 -5.77799e-14 0)
(-5.10703e-15 -5.7794e-14 0)
(-5.32907e-15 -5.783e-14 0)
(-5.55112e-15 -5.78471e-14 0)
(-7.54952e-15 -6.9977e-14 0)
(-4.996e-15 -5.57824e-14 0)
(-5.21805e-15 -5.87391e-14 0)
(-5.21805e-15 -5.79588e-14 0)
(-5.32907e-15 -5.79973e-14 0)
(-5.32907e-15 -5.77699e-14 0)
(-5.10703e-15 -5.77465e-14 0)
(-5.32907e-15 -5.77248e-14 0)
(-5.21805e-15 -5.76714e-14 0)
(-5.55112e-15 -5.76448e-14 0)
(-5.21805e-15 -5.76654e-14 0)
(-5.10703e-15 -5.77823e-14 0)
(-5.44009e-15 -5.79078e-14 0)
(-5.44009e-15 -5.79008e-14 0)
(-5.44009e-15 -5.78859e-14 0)
(-5.9952e-15 -5.78789e-14 0)
(-5.55112e-15 -5.78481e-14 0)
(-5.55112e-15 -5.77467e-14 0)
(-5.55112e-15 -5.77707e-14 0)
(-5.55112e-15 -5.7826e-14 0)
(-5.10703e-15 -3.36741e-14 0)
(-5.44009e-15 -6.26838e-14 0)
(-6.21725e-15 -5.69506e-14 0)
(-6.21725e-15 -5.81681e-14 0)
(-6.21725e-15 -5.77866e-14 0)
(-6.43929e-15 -5.76837e-14 0)
(-6.21725e-15 -5.76506e-14 0)
(-6.21725e-15 -5.7737e-14 0)
(-6.21725e-15 -5.78044e-14 0)
(-5.77316e-15 -5.77967e-14 0)
(-5.77316e-15 -5.77833e-14 0)
(-5.55112e-15 -5.7799e-14 0)
(-5.21805e-15 -5.77767e-14 0)
(-5.21805e-15 -5.77334e-14 0)
(-5.32907e-15 -5.77171e-14 0)
(-5.21805e-15 -5.77879e-14 0)
(-5.21805e-15 -5.79038e-14 0)
(-5.55112e-15 -5.78504e-14 0)
(-5.32907e-15 -5.77817e-14 0)
(-5.32907e-15 -5.77935e-14 0)
(-1.06581e-14 -6.39956e-14 0)
(-5.9952e-15 -5.69674e-14 0)
(-6.88338e-15 -5.81527e-14 0)
(-6.21725e-15 -5.78539e-14 0)
(-6.66134e-15 -5.78423e-14 0)
(-6.21725e-15 -5.79207e-14 0)
(-6.21725e-15 -5.79452e-14 0)
(-5.9952e-15 -5.78916e-14 0)
(-5.77316e-15 -5.78468e-14 0)
(-6.21725e-15 -5.79026e-14 0)
(-5.9952e-15 -5.79927e-14 0)
(-5.77316e-15 -5.79926e-14 0)
(-5.77316e-15 -5.78988e-14 0)
(-5.77316e-15 -5.78851e-14 0)
(-5.9952e-15 -5.78737e-14 0)
(-5.77316e-15 -5.78259e-14 0)
(-5.55112e-15 -5.78115e-14 0)
(-5.77316e-15 -5.77783e-14 0)
(-5.44009e-15 -5.77287e-14 0)
(-5.44009e-15 -5.77314e-14 0)
(-1.33227e-15 -8.2438e-14 0)
(-5.21805e-15 -5.29541e-14 0)
(-4.44089e-15 -5.91587e-14 0)
(-5.21805e-15 -5.75633e-14 0)
(-4.996e-15 -5.78751e-14 0)
(-5.21805e-15 -5.79467e-14 0)
(-5.44009e-15 -5.80495e-14 0)
(-5.32907e-15 -5.7976e-14 0)
(-5.44009e-15 -5.78673e-14 0)
(-5.21805e-15 -5.79183e-14 0)
(-5.10703e-15 -5.79848e-14 0)
(-5.21805e-15 -5.78884e-14 0)
(-5.21805e-15 -5.78153e-14 0)
(-5.44009e-15 -5.77238e-14 0)
(-5.44009e-15 -5.77446e-14 0)
(-5.9952e-15 -5.78943e-14 0)
(-5.9952e-15 -5.78859e-14 0)
(-5.9952e-15 -5.78652e-14 0)
(-5.77316e-15 -5.78263e-14 0)
(-5.55112e-15 -5.78125e-14 0)
(-1.08802e-14 -3.36249e-14 0)
(-4.10783e-15 -6.29846e-14 0)
(-5.55112e-15 -5.67035e-14 0)
(-5.10703e-15 -5.80964e-14 0)
(-5.21805e-15 -5.7761e-14 0)
(-5.10703e-15 -5.78934e-14 0)
(-5.32907e-15 -5.79042e-14 0)
(-5.55112e-15 -5.78322e-14 0)
(-5.77316e-15 -5.78585e-14 0)
(-5.55112e-15 -5.78899e-14 0)
(-5.77316e-15 -5.79426e-14 0)
(-5.77316e-15 -5.78643e-14 0)
(-5.55112e-15 -5.77102e-14 0)
(-5.77316e-15 -5.75997e-14 0)
(-5.55112e-15 -5.76181e-14 0)
(-5.21805e-15 -5.77642e-14 0)
(-5.32907e-15 -5.78205e-14 0)
(-5.44009e-15 -5.78389e-14 0)
(-5.55112e-15 -5.7862e-14 0)
(-5.55112e-15 -5.78949e-14 0)
(-2.44249e-15 -6.59797e-14 0)
(-6.21725e-15 -5.64347e-14 0)
(-5.44009e-15 -5.80741e-14 0)
(-5.9952e-15 -5.77894e-14 0)
(-5.9952e-15 -5.78209e-14 0)
(-5.9952e-15 -5.78694e-14 0)
(-6.21725e-15 -5.77871e-14 0)
(-5.9952e-15 -5.77453e-14 0)
(-5.9952e-15 -5.78468e-14 0)
(-5.9952e-15 -5.7832e-14 0)
(-6.21725e-15 -5.78353e-14 0)
(-5.77316e-15 -5.78777e-14 0)
(-5.9952e-15 -5.78138e-14 0)
(-5.9952e-15 -5.78967e-14 0)
(-5.77316e-15 -5.79405e-14 0)
(-5.9952e-15 -5.79088e-14 0)
(-5.77316e-15 -5.78465e-14 0)
(-5.77316e-15 -5.78321e-14 0)
(-5.44009e-15 -5.78259e-14 0)
(-5.32907e-15 -5.78146e-14 0)
(5.55112e-16 -5.77056e-14 0)
(-6.43929e-15 -5.69463e-14 0)
(-5.44009e-15 -5.7764e-14 0)
(-6.21725e-15 -5.76286e-14 0)
(-5.55112e-15 -5.78698e-14 0)
(-5.55112e-15 -5.78239e-14 0)
(-5.55112e-15 -5.77957e-14 0)
(-5.55112e-15 -5.78822e-14 0)
(-5.55112e-15 -5.78923e-14 0)
(-5.55112e-15 -5.78073e-14 0)
(-5.55112e-15 -5.77877e-14 0)
(-5.77316e-15 -5.78863e-14 0)
(-5.77316e-15 -5.7896e-14 0)
(-5.55112e-15 -5.78855e-14 0)
(-5.21805e-15 -5.78729e-14 0)
(-5.21805e-15 -5.79234e-14 0)
(-5.21805e-15 -5.78646e-14 0)
(-5.44009e-15 -5.78529e-14 0)
(-5.55112e-15 -5.78116e-14 0)
(-5.55112e-15 -5.77309e-14 0)
(-2.17604e-14 -5.85184e-14 0)
(-3.21965e-15 -5.80368e-14 0)
(-7.32747e-15 -5.75851e-14 0)
(-5.77316e-15 -5.78442e-14 0)
(-6.43929e-15 -5.7992e-14 0)
(-6.21725e-15 -5.78941e-14 0)
(-6.43929e-15 -5.78719e-14 0)
(-6.21725e-15 -5.7912e-14 0)
(-6.21725e-15 -5.78606e-14 0)
(-6.43929e-15 -5.78443e-14 0)
(-5.77316e-15 -5.78403e-14 0)
(-5.77316e-15 -5.78846e-14 0)
(-5.9952e-15 -5.79719e-14 0)
(-6.21725e-15 -5.79649e-14 0)
(-6.21725e-15 -5.79884e-14 0)
(-5.9952e-15 -5.79373e-14 0)
(-6.21725e-15 -5.78753e-14 0)
(-5.77316e-15 -5.782e-14 0)
(-5.9952e-15 -5.78732e-14 0)
(-5.55112e-15 -5.78195e-14 0)
(2.10942e-15 -6.87004e-14 0)
(-6.66134e-15 -5.58299e-14 0)
(-4.55191e-15 -5.8205e-14 0)
(-5.32907e-15 -5.77443e-14 0)
(-4.996e-15 -5.78086e-14 0)
(-5.44009e-15 -5.77463e-14 0)
(-4.996e-15 -5.77508e-14 0)
(-5.10703e-15 -5.77771e-14 0)
(-5.44009e-15 -5.79206e-14 0)
(-5.32907e-15 -5.80809e-14 0)
(-5.32907e-15 -5.80088e-14 0)
(-5.21805e-15 -5.78664e-14 0)
(-5.21805e-15 -5.79132e-14 0)
(-5.10703e-15 -5.79254e-14 0)
(-5.10703e-15 -5.80161e-14 0)
(-5.32907e-15 -5.79558e-14 0)
(-5.32907e-15 -5.7993e-14 0)
(-5.32907e-15 -5.78555e-14 0)
(-5.32907e-15 -5.78624e-14 0)
(-5.44009e-15 -5.78819e-14 0)
(-4.10783e-15 -2.83882e-14 0)
(-6.88338e-15 -6.39024e-14 0)
(-5.9952e-15 -5.65589e-14 0)
(-6.21725e-15 -5.81233e-14 0)
(-6.21725e-15 -5.78146e-14 0)
(-5.9952e-15 -5.79643e-14 0)
(-5.9952e-15 -5.80224e-14 0)
(-5.77316e-15 -5.79926e-14 0)
(-5.32907e-15 -5.79864e-14 0)
(-5.44009e-15 -5.79542e-14 0)
(-5.55112e-15 -5.78252e-14 0)
(-5.55112e-15 -5.77954e-14 0)
(-5.77316e-15 -5.77981e-14 0)
(-5.77316e-15 -5.78245e-14 0)
(-5.77316e-15 -5.79532e-14 0)
(-5.55112e-15 -5.80175e-14 0)
(-5.77316e-15 -5.79476e-14 0)
(-5.55112e-15 -5.7806e-14 0)
(-5.55112e-15 -5.77808e-14 0)
(-5.44009e-15 -5.78386e-14 0)
(-9.76996e-15 -9.39105e-14 0)
(-4.21885e-15 -5.03357e-14 0)
(-5.9952e-15 -5.96034e-14 0)
(-5.10703e-15 -5.75111e-14 0)
(-5.44009e-15 -5.79269e-14 0)
(-5.44009e-15 -5.79409e-14 0)
(-5.55112e-15 -5.80708e-14 0)
(-5.77316e-15 -5.80485e-14 0)
(-5.77316e-15 -5.79593e-14 0)
(-6.21725e-15 -5.78908e-14 0)
(-5.9952e-15 -5.78592e-14 0)
(-5.9952e-15 -5.79216e-14 0)
(-5.9952e-15 -5.79015e-14 0)
(-5.77316e-15 -5.79693e-14 0)
(-5.32907e-15 -5.80448e-14 0)
(-5.44009e-15 -5.79966e-14 0)
(-5.55112e-15 -5.78657e-14 0)
(-5.77316e-15 -5.79e-14 0)
(-5.55112e-15 -5.79083e-14 0)
(-5.55112e-15 -5.78515e-14 0)
(-6.43929e-15 -4.27082e-14 0)
(-5.55112e-15 -6.10201e-14 0)
(-5.55112e-15 -5.71744e-14 0)
(-6.21725e-15 -5.81537e-14 0)
(-5.9952e-15 -5.79244e-14 0)
(-5.44009e-15 -5.79463e-14 0)
(-5.55112e-15 -5.78478e-14 0)
(-5.55112e-15 -5.78664e-14 0)
(-5.32907e-15 -5.79231e-14 0)
(-5.21805e-15 -5.79029e-14 0)
(-5.10703e-15 -5.79824e-14 0)
(-5.32907e-15 -5.80168e-14 0)
(-5.21805e-15 -5.79802e-14 0)
(-5.32907e-15 -5.79845e-14 0)
(-5.55112e-15 -5.79626e-14 0)
(-5.77316e-15 -5.79214e-14 0)
(-5.55112e-15 -5.7871e-14 0)
(-5.44009e-15 -5.79343e-14 0)
(-5.55112e-15 -5.79457e-14 0)
(-5.44009e-15 -5.78619e-14 0)
(-7.32747e-15 -2.85329e-14 0)
(-5.10703e-15 -6.38437e-14 0)
(-5.77316e-15 -5.66402e-14 0)
(-4.77396e-15 -5.82435e-14 0)
(-5.32907e-15 -5.79209e-14 0)
(-5.44009e-15 -5.79845e-14 0)
(-5.77316e-15 -5.78964e-14 0)
(-5.55112e-15 -5.7983e-14 0)
(-5.55112e-15 -5.80097e-14 0)
(-5.77316e-15 -5.79475e-14 0)
(-5.44009e-15 -5.80078e-14 0)
(-5.55112e-15 -5.79712e-14 0)
(-5.44009e-15 -5.78774e-14 0)
(-5.44009e-15 -5.78495e-14 0)
(-5.21805e-15 -5.78453e-14 0)
(-5.55112e-15 -5.78572e-14 0)
(-5.77316e-15 -5.79131e-14 0)
(-5.77316e-15 -5.79813e-14 0)
(-5.44009e-15 -5.79294e-14 0)
(-5.55112e-15 -5.78735e-14 0)
(-7.77156e-16 -8.96629e-14 0)
(-7.10543e-15 -5.15269e-14 0)
(-5.55112e-15 -5.9453e-14 0)
(-5.77316e-15 -5.76136e-14 0)
(-5.77316e-15 -5.79311e-14 0)
(-5.55112e-15 -5.78605e-14 0)
(-5.44009e-15 -5.79011e-14 0)
(-5.21805e-15 -5.79779e-14 0)
(-5.32907e-15 -5.79722e-14 0)
(-5.44009e-15 -5.79322e-14 0)
(-5.55112e-15 -5.79837e-14 0)
(-5.77316e-15 -5.80082e-14 0)
(-5.9952e-15 -5.79511e-14 0)
(-5.55112e-15 -5.79133e-14 0)
(-5.77316e-15 -5.78355e-14 0)
(-5.55112e-15 -5.77982e-14 0)
(-5.44009e-15 -5.79607e-14 0)
(-5.77316e-15 -5.80834e-14 0)
(-5.55112e-15 -5.79742e-14 0)
(-5.44009e-15 -5.78782e-14 0)
(-3.10862e-15 -6.28062e-14 0)
(-4.996e-15 -5.75799e-14 0)
(-4.10783e-15 -5.81349e-14 0)
(-4.77396e-15 -5.80256e-14 0)
(-4.66294e-15 -5.80488e-14 0)
(-4.88498e-15 -5.80158e-14 0)
(-4.996e-15 -5.79804e-14 0)
(-4.88498e-15 -5.79433e-14 0)
(-4.996e-15 -5.78648e-14 0)
(-4.996e-15 -5.77871e-14 0)
(-4.996e-15 -5.77876e-14 0)
(-4.996e-15 -5.78664e-14 0)
(-4.996e-15 -5.7929e-14 0)
(-5.10703e-15 -5.79654e-14 0)
(-5.21805e-15 -5.79214e-14 0)
(-5.10703e-15 -5.79207e-14 0)
(-5.21805e-15 -5.79572e-14 0)
(-5.44009e-15 -5.79927e-14 0)
(-5.55112e-15 -5.79244e-14 0)
(-5.55112e-15 -5.7855e-14 0)
)
;

boundaryField
{
    movingWall
    {
        type            calculated;
        value           uniform (-5.55112e-15 -5.78692e-14 0);
    }
    fixedWalls
    {
        type            calculated;
        value           uniform (-5.55112e-15 -5.78692e-14 0);
    }
    frontAndBack
    {
        type            empty;
    }
}


// ************************************************************************* //
