/*--------------------------------*- C++ -*----------------------------------*\
| =========                 |                                                 |
| \\      /  F ield         | OpenFOAM: The Open Source CFD Toolbox           |
|  \\    /   O peration     | Version:  2506                                  |
|   \\  /    A nd           | Website:  www.openfoam.com                      |
|    \\/     M anipulation  |                                                 |
\*---------------------------------------------------------------------------*/
FoamFile
{
    version     2.0;
    format      ascii;
    arch        "LSB;label=32;scalar=64";
    class       volScalarField;
    location    "8";
    object      divPhi;
}
// * * * * * * * * * * * * * * * * * * * * * * * * * * * * * * * * * * * * * //

dimensions      [0 0 -1 0 0 0 0];

internalField   nonuniform List<scalar> 
400
(
-1.35525e-13
2.56472e-14
-4.16823e-15
-1.55822e-14
3.29867e-15
-5.52444e-15
1.50519e-14
-4.8381e-15
-1.18134e-14
1.92183e-15
7.1779e-15
-6.87919e-15
-1.29176e-15
3.54696e-15
1.54861e-14
2.58838e-16
1.30239e-15
-1.58658e-14
1.38835e-14
0
0
-6.85604e-15
-4.55778e-15
1.04224e-14
5.59734e-15
-1.03489e-15
-1.29187e-14
1.46501e-14
-6.55025e-15
-1.38679e-14
6.84833e-15
-3.01358e-14
-4.02251e-15
-6.33473e-18
-2.18346e-14
1.74237e-15
-5.93066e-15
7.06884e-15
7.86712e-15
-2.71051e-14
-2.71051e-14
1.31131e-14
-1.5189e-14
6.82136e-16
3.2761e-14
-1.19488e-14
-3.59416e-14
2.49534e-15
-3.60079e-15
-2.13985e-16
1.66377e-14
1.76845e-15
4.50821e-15
2.76069e-15
-1.02219e-16
-4.1286e-15
-1.81384e-14
3.2955e-14
-3.46848e-15
0
2.71051e-14
-1.11685e-14
1.43014e-14
-1.08394e-14
1.25421e-14
5.22333e-15
-1.91007e-14
-3.41412e-15
-4.80707e-15
-1.83688e-14
-1.66809e-14
-5.12549e-16
1.32845e-14
5.40132e-15
-5.15024e-16
-2.27615e-14
1.19533e-14
1.95453e-14
-1.33551e-14
2.71051e-14
0
-6.46046e-15
-1.04054e-14
-2.18419e-14
8.24629e-16
2.84368e-14
-4.11177e-15
2.12674e-14
-1.38336e-14
8.92367e-15
3.48203e-14
-1.34447e-14
1.46799e-14
6.30795e-15
4.67168e-15
2.32768e-14
3.4527e-15
-6.46137e-15
-5.20868e-15
0
0
-2.98351e-14
1.60121e-14
-9.08712e-15
1.90479e-14
1.44803e-14
-1.66035e-14
1.14055e-14
4.41917e-15
-2.31167e-14
2.7892e-14
-5.77252e-15
-1.37256e-14
1.44538e-14
1.95502e-14
-2.1227e-14
2.24575e-14
-9.31575e-15
-8.65012e-15
0
-2.71051e-14
2.67889e-15
-5.71016e-15
1.49358e-14
-3.84128e-14
-7.13684e-16
1.82053e-14
9.92349e-15
2.93844e-14
-4.46342e-15
1.9246e-14
-5.39016e-15
2.95959e-14
-1.96624e-14
-1.41198e-14
2.30014e-14
-1.87382e-14
-2.08153e-14
-2.79021e-15
0
2.71051e-14
-1.17572e-14
1.68015e-15
-1.96416e-14
6.50829e-16
-2.07508e-14
-2.9775e-14
1.76111e-14
4.56148e-15
2.91318e-15
-1.10366e-14
-1.56932e-14
3.29618e-14
-1.32059e-14
2.5406e-14
1.19182e-14
-8.49892e-16
1.24957e-14
1.18711e-14
-2.71051e-14
2.71051e-14
-2.43582e-14
1.15643e-14
2.0854e-14
-1.43115e-14
3.02523e-16
7.26018e-15
-2.66626e-14
6.4504e-15
-7.11934e-15
-6.36237e-15
1.44811e-15
1.38068e-14
-9.63016e-15
-1.42866e-14
1.94543e-14
2.59141e-15
1.85519e-14
2.79365e-15
2.71051e-14
-2.71051e-14
1.94617e-14
1.33142e-14
-1.60442e-14
1.0523e-14
-7.20298e-15
1.18213e-16
1.48405e-14
2.65524e-14
-3.09772e-14
1.35785e-15
2.53136e-14
-2.79141e-14
-9.64391e-15
-7.41703e-15
1.86483e-15
1.48948e-14
-2.31194e-14
2.11499e-14
0
-2.71051e-14
9.47903e-15
-2.42012e-15
-4.6969e-15
2.145e-14
-2.35027e-14
1.99052e-14
-2.95805e-14
1.42656e-15
9.15871e-15
7.21972e-15
-1.10797e-14
-1.89333e-14
-2.09141e-14
7.40744e-15
-1.87313e-15
-3.37811e-15
6.71888e-15
-8.0856e-15
0
2.71051e-14
3.18805e-15
-2.38615e-14
2.42814e-14
-3.59063e-14
1.90176e-14
-2.17092e-14
3.0189e-15
-8.02983e-15
1.59283e-14
-3.57745e-17
3.36027e-15
2.69802e-15
5.44619e-15
1.34097e-14
-2.09924e-14
-2.39088e-14
2.006e-14
1.42535e-14
0
-2.71051e-14
9.56351e-15
1.05437e-14
-4.1743e-16
5.45527e-15
-8.68002e-15
-1.27693e-14
1.76724e-14
6.69712e-16
-2.14191e-14
6.46103e-15
2.94614e-15
-6.62964e-15
-1.09363e-14
2.0214e-14
1.45875e-14
1.42418e-14
-2.35035e-14
-4.98518e-15
2.71051e-14
2.71051e-14
-1.63654e-14
6.0733e-15
-1.88866e-14
1.28523e-14
-1.88678e-14
-6.14095e-15
-1.41213e-14
-9.07364e-15
-2.03261e-15
7.65729e-15
2.05117e-15
2.46521e-14
-2.79075e-14
7.78243e-15
-1.26873e-14
-1.9091e-14
1.6504e-14
-7.36063e-15
-2.71051e-14
-2.71051e-14
4.72205e-14
1.41202e-15
-2.59841e-15
1.56753e-14
5.29464e-15
-6.45648e-15
7.75616e-15
-1.08021e-14
3.99614e-15
1.53676e-14
3.51369e-15
-1.78329e-14
-2.08159e-14
1.33412e-14
1.10182e-14
3.57679e-15
-3.84606e-14
-2.4876e-14
2.71051e-14
0
2.08097e-14
-2.55153e-14
1.4022e-14
-1.67097e-14
-4.78498e-15
9.61854e-15
-4.66915e-15
-2.57331e-14
3.22472e-14
-4.39571e-14
8.38827e-15
1.26354e-14
1.31631e-14
5.85076e-15
2.08768e-14
-3.16896e-15
1.08615e-17
1.03551e-14
0
0
1.04034e-14
-1.55248e-14
-1.16743e-14
2.322e-14
1.38531e-14
1.59565e-14
7.82552e-15
1.08907e-15
-1.10971e-14
1.21793e-14
4.5135e-15
1.43256e-14
2.73484e-14
2.97062e-15
-2.30124e-14
1.00509e-14
-1.30461e-14
-9.8503e-15
0
0
5.00459e-15
2.04183e-14
-2.42755e-14
4.43148e-15
5.96367e-15
-1.95795e-14
9.42882e-15
2.81457e-15
-1.49952e-14
1.57492e-14
-7.73402e-15
-1.07252e-14
-1.95169e-15
3.25606e-15
1.26778e-15
-1.15326e-14
1.28184e-14
-4.34892e-14
2.71051e-14
2.71051e-14
1.27317e-14
-2.14587e-14
2.52106e-14
-1.25276e-14
3.96537e-15
7.72307e-15
7.03372e-15
-1.34636e-14
2.91059e-14
9.83417e-15
-1.72699e-15
-4.05465e-14
8.88691e-15
2.11455e-15
2.27119e-14
-4.41919e-14
1.72638e-14
4.43533e-15
0
0
0
0
0
0
2.71051e-14
2.71051e-14
0
0
0
0
0
-2.71051e-14
2.71051e-14
0
0
0
-2.71051e-14
2.71051e-14
0
)
;

boundaryField
{
    movingWall
    {
        type            extrapolatedCalculated;
        value           nonuniform List<scalar> 
20
(
0
0
0
0
0
2.71051e-14
2.71051e-14
0
0
0
0
0
-2.71051e-14
2.71051e-14
0
0
0
-2.71051e-14
2.71051e-14
0
)
;
    }
    fixedWalls
    {
        type            extrapolatedCalculated;
        value           nonuniform List<scalar> 
60
(
-1.35525e-13
0
-2.71051e-14
2.71051e-14
0
0
-2.71051e-14
2.71051e-14
2.71051e-14
-2.71051e-14
-2.71051e-14
2.71051e-14
-2.71051e-14
2.71051e-14
-2.71051e-14
0
0
0
2.71051e-14
0
0
-2.71051e-14
0
2.71051e-14
0
0
0
-2.71051e-14
2.71051e-14
0
0
0
2.71051e-14
-2.71051e-14
2.71051e-14
0
0
2.71051e-14
0
0
-1.35525e-13
2.56472e-14
-4.16823e-15
-1.55822e-14
3.29867e-15
-5.52444e-15
1.50519e-14
-4.8381e-15
-1.18134e-14
1.92183e-15
7.1779e-15
-6.87919e-15
-1.29176e-15
3.54696e-15
1.54861e-14
2.58838e-16
1.30239e-15
-1.58658e-14
1.38835e-14
0
)
;
    }
    frontAndBack
    {
        type            empty;
    }
}


// ************************************************************************* //
