/*--------------------------------*- C++ -*----------------------------------*\
| =========                 |                                                 |
| \\      /  F ield         | OpenFOAM: The Open Source CFD Toolbox           |
|  \\    /   O peration     | Version:  2506                                  |
|   \\  /    A nd           | Website:  www.openfoam.com                      |
|    \\/     M anipulation  |                                                 |
\*---------------------------------------------------------------------------*/
FoamFile
{
    version     2.0;
    format      ascii;
    arch        "LSB;label=32;scalar=64";
    class       volScalarField;
    location    "8";
    object      divU;
}
// * * * * * * * * * * * * * * * * * * * * * * * * * * * * * * * * * * * * * //

dimensions      [0 0 -1 0 0 0 0];

internalField   nonuniform List<scalar> 
400
(
6.47811e-12
-1.50988e-12
3.3066e-13
-1.18304e-13
2.3793e-14
-6.15342e-15
-3.04922e-14
1.88186e-14
-1.25354e-14
6.41e-15
-2.7146e-14
2.70424e-14
6.51858e-15
-1.34587e-15
-1.43312e-14
4.65901e-15
9.85343e-15
-4.87313e-14
3.65266e-14
0
-1.04354e-11
2.342e-12
-4.48778e-13
1.91906e-13
-6.35149e-14
-7.64131e-15
4.34373e-14
-1.21444e-14
-2.50248e-14
7.58293e-14
-4.67822e-15
-1.39304e-14
-9.68297e-15
-7.65546e-15
3.07118e-14
-2.9083e-14
-1.28013e-14
9.56581e-15
4.338e-14
-2.71051e-14
2.95445e-12
-9.87419e-13
1.60587e-13
-2.89601e-14
2.37145e-16
-5.67123e-15
5.98799e-15
-2.20525e-14
-1.61941e-14
-7.90142e-14
-5.02916e-14
7.22222e-14
-1.15926e-14
4.64135e-14
-6.44499e-15
-6.90726e-15
-2.17175e-14
2.84694e-14
-3.33834e-14
0
2.6834e-12
-1.6165e-13
7.84353e-15
-4.74262e-14
4.03829e-14
3.43257e-15
-3.23957e-14
-8.91927e-15
3.18831e-14
1.78401e-14
1.70707e-14
-3.89871e-14
-5.32829e-14
-2.76154e-14
3.67925e-14
-2.20188e-14
8.38597e-15
2.45072e-14
-7.56559e-15
2.71051e-14
-3.71339e-12
4.29177e-13
-7.29249e-14
4.53328e-14
3.45764e-14
-3.27613e-15
3.14661e-14
-2.08049e-14
1.16131e-14
-2.03945e-14
-2.335e-14
4.75944e-14
-2.50226e-15
7.71023e-15
7.43669e-15
3.03842e-16
3.81411e-14
-7.34861e-15
-1.33466e-14
-2.71051e-14
3.44234e-12
-5.16727e-13
1.40392e-13
-3.88622e-14
2.25465e-14
1.36238e-15
7.02109e-15
5.5497e-16
-8.58747e-16
-2.45251e-14
2.89625e-14
-1.14069e-14
-2.17157e-14
3.75167e-14
-4.06783e-14
7.16298e-15
5.28565e-14
-1.29881e-14
-8.51546e-15
0
6.50521e-13
-2.28652e-13
-1.78049e-14
-1.26031e-15
-4.3263e-14
-1.37206e-14
4.13656e-14
-1.61243e-14
3.5819e-14
3.90603e-15
2.33413e-14
2.17784e-14
6.28727e-15
1.19858e-14
1.47562e-14
1.24598e-14
-2.48059e-14
-1.61473e-14
2.27945e-14
-2.71051e-14
-5.44812e-12
1.34063e-12
-2.38625e-13
8.63214e-14
2.09577e-15
4.12975e-14
1.47028e-15
-1.29248e-14
2.43173e-15
-8.25378e-15
-2.39201e-14
1.28377e-14
2.42699e-15
-1.4153e-14
-1.50979e-14
8.31311e-14
4.08494e-15
9.47896e-15
1.83369e-14
-2.71051e-14
3.49655e-12
-9.145e-13
1.77342e-13
-1.00559e-13
1.02262e-14
-3.72842e-14
5.56664e-15
-6.98895e-15
1.26181e-15
-6.98795e-15
8.1923e-15
2.56706e-14
2.12861e-14
1.43822e-14
-4.37487e-14
-1.91238e-14
3.19242e-15
3.05324e-14
-2.20955e-14
2.71051e-14
1.24683e-12
2.01111e-13
1.47563e-14
-1.47424e-14
4.27498e-14
-2.95482e-14
4.70618e-15
-6.5231e-14
5.75214e-14
1.64413e-15
-3.10687e-14
5.38471e-14
-5.98824e-14
-3.00149e-14
9.92926e-14
6.52654e-15
7.13572e-15
-4.74689e-14
5.04685e-15
0
-2.1684e-12
3.1705e-13
-1.18395e-13
3.20337e-14
-2.23452e-14
4.50547e-15
-3.86573e-14
3.81896e-14
-7.63272e-17
9.90288e-15
1.1527e-14
-2.56194e-15
-2.42494e-14
-3.14911e-14
-3.4602e-14
-9.38925e-15
2.98265e-14
5.95447e-14
3.71918e-14
0
1.27394e-12
-7.91834e-13
6.60306e-14
-2.76578e-14
6.89674e-14
2.03361e-15
-2.00302e-14
-5.59029e-15
-1.45992e-15
8.67663e-15
1.10323e-14
-5.74569e-14
4.12557e-14
1.58955e-14
1.48167e-14
-1.22311e-14
-1.53514e-16
-4.76718e-14
5.35911e-15
0
-2.46656e-12
1.54241e-12
-2.76227e-13
9.62943e-14
-6.04355e-14
-4.44102e-14
1.15644e-14
5.91307e-14
-5.84966e-14
3.55236e-14
7.02381e-14
-2.83699e-14
-6.88851e-14
-1.51989e-14
2.75928e-14
-6.96854e-14
4.12213e-14
6.27794e-15
2.7376e-14
2.71051e-14
3.68629e-12
-1.26676e-12
2.32963e-13
-9.42433e-14
-1.55915e-14
2.78099e-15
2.36161e-14
-3.02417e-14
-1.68685e-14
-2.57696e-15
-9.56995e-15
7.64671e-15
5.69155e-14
2.59467e-14
-2.31003e-14
3.60811e-15
-2.02268e-14
7.67836e-15
-1.75961e-14
-2.71051e-14
-2.49366e-12
3.39765e-13
-4.24044e-14
-4.38092e-14
-3.13942e-16
3.75283e-14
-8.37544e-15
2.39322e-14
6.05759e-14
-1.06667e-14
-2.17094e-14
2.12825e-15
-5.03355e-14
-5.54272e-15
1.13874e-15
5.37385e-14
1.9604e-14
3.228e-15
3.20264e-14
-2.71051e-14
-1.70762e-12
6.27996e-13
-1.31058e-13
6.15698e-14
-3.84014e-14
-1.48883e-14
9.08574e-15
-4.47586e-14
-1.44081e-14
-5.97411e-14
4.38901e-14
-2.00079e-14
-1.43286e-14
5.97747e-14
5.44067e-14
-4.50767e-14
-5.40511e-14
4.46164e-14
-1.15657e-14
0
6.451e-12
-1.26491e-12
2.46585e-13
-1.47195e-13
7.06107e-14
6.2067e-14
2.65263e-14
4.31079e-14
3.47674e-14
-1.12065e-14
-2.51869e-14
2.13638e-15
1.5181e-14
-9.56554e-15
-6.95959e-15
2.30788e-14
-4.57579e-15
-1.77227e-14
1.34292e-14
-2.71051e-14
-4.8247e-12
1.12097e-12
-1.98108e-13
9.65481e-14
-6.55842e-14
-3.77742e-14
-5.9112e-15
-2.22588e-14
2.74938e-15
-1.41393e-14
2.88899e-14
3.00098e-15
-9.01687e-15
2.46574e-14
5.75442e-15
-4.59151e-14
-6.77564e-14
4.86751e-14
1.05736e-14
0
-3.14419e-12
2.02368e-13
-2.23221e-14
-4.42931e-14
3.00462e-14
-1.38024e-14
3.98911e-14
8.81232e-15
-9.86932e-15
2.90131e-14
-3.29993e-15
-4.07222e-14
-1.41767e-14
4.01748e-14
-1.85882e-15
2.90446e-14
-4.50643e-14
-6.67276e-15
3.81763e-14
-2.71051e-14
3.98444e-12
-7.58942e-13
2.1684e-13
-2.71051e-14
0
0
2.71051e-14
0
0
0
0
2.71051e-14
0
2.71051e-14
0
-2.71051e-14
2.71051e-14
-2.71051e-14
2.71051e-14
0
)
;

boundaryField
{
    movingWall
    {
        type            extrapolatedCalculated;
        value           nonuniform List<scalar> 
20
(
3.98444e-12
-7.58942e-13
2.1684e-13
-2.71051e-14
0
0
2.71051e-14
0
0
0
0
2.71051e-14
0
2.71051e-14
0
-2.71051e-14
2.71051e-14
-2.71051e-14
2.71051e-14
0
)
;
    }
    fixedWalls
    {
        type            extrapolatedCalculated;
        value           nonuniform List<scalar> 
60
(
6.47811e-12
-1.04354e-11
2.95445e-12
2.6834e-12
-3.71339e-12
3.44234e-12
6.50521e-13
-5.44812e-12
3.49655e-12
1.24683e-12
-2.1684e-12
1.27394e-12
-2.46656e-12
3.68629e-12
-2.49366e-12
-1.70762e-12
6.451e-12
-4.8247e-12
-3.14419e-12
3.98444e-12
0
-2.71051e-14
0
2.71051e-14
-2.71051e-14
0
-2.71051e-14
-2.71051e-14
2.71051e-14
0
0
0
2.71051e-14
-2.71051e-14
-2.71051e-14
0
-2.71051e-14
0
-2.71051e-14
0
6.47811e-12
-1.50988e-12
3.3066e-13
-1.18304e-13
2.3793e-14
-6.15342e-15
-3.04922e-14
1.88186e-14
-1.25354e-14
6.41e-15
-2.7146e-14
2.70424e-14
6.51858e-15
-1.34587e-15
-1.43312e-14
4.65901e-15
9.85343e-15
-4.87313e-14
3.65266e-14
0
)
;
    }
    frontAndBack
    {
        type            empty;
    }
}


// ************************************************************************* //
