/*--------------------------------*- C++ -*----------------------------------*\
| =========                 |                                                 |
| \\      /  F ield         | OpenFOAM: The Open Source CFD Toolbox           |
|  \\    /   O peration     | Version:  2506                                  |
|   \\  /    A nd           | Website:  www.openfoam.com                      |
|    \\/     M anipulation  |                                                 |
\*---------------------------------------------------------------------------*/
FoamFile
{
    version     2.0;
    format      ascii;
    arch        "LSB;label=32;scalar=64";
    class       volScalarField;
    location    "8";
    object      dpdt2;
}
// * * * * * * * * * * * * * * * * * * * * * * * * * * * * * * * * * * * * * //

dimensions      [0 4 -6 0 0 0 0];

internalField   nonuniform List<scalar> 
400
(
2.14108e-27
2.20048e-26
6.24266e-26
8.09657e-26
1.11099e-25
1.54255e-25
1.9501e-25
2.53728e-25
3.39566e-25
3.33826e-25
3.38184e-25
2.79979e-25
2.6475e-25
3.09563e-25
3.63414e-25
3.9367e-25
4.00668e-25
3.71127e-25
2.99848e-25
3.04271e-25
1.11243e-26
2.82517e-26
7.70794e-26
1.23042e-25
1.57179e-25
1.78892e-25
2.04538e-25
2.58027e-25
2.82992e-25
2.91162e-25
3.23131e-25
2.97655e-25
2.56059e-25
3.25912e-25
3.62034e-25
4.0618e-25
3.43353e-25
3.79417e-25
3.48182e-25
3.08726e-25
3.99e-26
5.59127e-26
8.82135e-26
1.28013e-25
1.60174e-25
1.79456e-25
2.01992e-25
2.23086e-25
2.53372e-25
3.07878e-25
3.39193e-25
3.30311e-25
3.51772e-25
3.5946e-25
3.79224e-25
3.06777e-25
2.83579e-25
4.19589e-25
4.11365e-25
3.36053e-25
5.71429e-26
1.09122e-25
1.03402e-25
1.27356e-25
1.72232e-25
2.18348e-25
2.30653e-25
2.15924e-25
2.29865e-25
2.83565e-25
3.37568e-25
3.83518e-25
3.8519e-25
3.62452e-25
3.91157e-25
3.48543e-25
3.11401e-25
3.83981e-25
4.09629e-25
3.55892e-25
8.52166e-26
1.15484e-25
1.61848e-25
1.68726e-25
1.7179e-25
1.77971e-25
2.2852e-25
2.45669e-25
2.60145e-25
3.06245e-25
3.64559e-25
3.3918e-25
4.02105e-25
3.7021e-25
3.51375e-25
3.29832e-25
2.99601e-25
3.84891e-25
3.95605e-25
3.89948e-25
1.13018e-25
1.43103e-25
1.93227e-25
1.80618e-25
1.96878e-25
1.84337e-25
2.08553e-25
2.31174e-25
2.78728e-25
3.30145e-25
3.32129e-25
3.76602e-25
3.81587e-25
3.88739e-25
3.53358e-25
3.05373e-25
2.91455e-25
4.01818e-25
3.78507e-25
3.52044e-25
1.41523e-25
2.01307e-25
2.0041e-25
1.95387e-25
2.53742e-25
1.64879e-25
1.73838e-25
2.43069e-25
2.24949e-25
2.58542e-25
2.8576e-25
3.57053e-25
3.85392e-25
3.53416e-25
3.49917e-25
3.2773e-25
3.20771e-25
3.41743e-25
3.72443e-25
3.5379e-25
1.97071e-25
2.08731e-25
1.82085e-25
2.11456e-25
1.93193e-25
1.52853e-25
1.85768e-25
2.30877e-25
1.98571e-25
2.01757e-25
2.90251e-25
2.92377e-25
3.14788e-25
3.35013e-25
3.3051e-25
3.01723e-25
3.53097e-25
3.24521e-25
3.4777e-25
3.37313e-25
2.25182e-25
1.76864e-25
1.49266e-25
1.70273e-25
1.74708e-25
1.66251e-25
1.72902e-25
2.03691e-25
1.92701e-25
1.9845e-25
2.47192e-25
2.65143e-25
3.01562e-25
3.12518e-25
2.82735e-25
2.78619e-25
3.24076e-25
3.28891e-25
3.68532e-25
3.74953e-25
1.67061e-25
1.42171e-25
1.47482e-25
1.45522e-25
1.45784e-25
1.39546e-25
1.73725e-25
2.12259e-25
1.5269e-25
1.70102e-25
1.96056e-25
2.09676e-25
2.47357e-25
2.62107e-25
2.62027e-25
2.93114e-25
3.12169e-25
3.54295e-25
3.37107e-25
3.53607e-25
1.77684e-25
1.1045e-25
1.41426e-25
1.00547e-25
1.19741e-25
1.4618e-25
1.63999e-25
1.68217e-25
1.47743e-25
1.45942e-25
1.66907e-25
1.96594e-25
1.93295e-25
1.9558e-25
2.31375e-25
2.48874e-25
2.53661e-25
2.96254e-25
3.38794e-25
3.49292e-25
1.75694e-25
1.26628e-25
1.23115e-25
9.8947e-26
1.19482e-25
1.39764e-25
1.4571e-25
1.63526e-25
1.38679e-25
1.28026e-25
1.55306e-25
1.87241e-25
1.60101e-25
1.60546e-25
1.95487e-25
2.06458e-25
2.18026e-25
2.80982e-25
2.89924e-25
2.93572e-25
2.15644e-25
1.40373e-25
1.41783e-25
1.06757e-25
1.29541e-25
1.49295e-25
1.2037e-25
1.09251e-25
1.43277e-25
1.12362e-25
1.26827e-25
1.54476e-25
1.48367e-25
1.06459e-25
1.58437e-25
2.04499e-25
1.83816e-25
2.60502e-25
2.33042e-25
2.4603e-25
2.72715e-25
1.89806e-25
1.53389e-25
1.14042e-25
1.16107e-25
1.24352e-25
1.15664e-25
9.70197e-26
9.76209e-26
1.01771e-25
1.12281e-25
1.45442e-25
1.65004e-25
1.40718e-25
1.50079e-25
1.49852e-25
1.52343e-25
1.75931e-25
1.97896e-25
1.67264e-25
3.48484e-25
2.28369e-25
1.77175e-25
1.56496e-25
1.21158e-25
9.68486e-26
8.09953e-26
8.36431e-26
8.99501e-26
9.39009e-26
8.71185e-26
1.24683e-25
1.70073e-25
1.44888e-25
1.24103e-25
1.16639e-25
1.39751e-25
1.03375e-25
1.2107e-25
1.5607e-25
3.34734e-25
2.72412e-25
2.01043e-25
1.899e-25
1.50087e-25
9.17094e-26
6.34907e-26
6.30431e-26
8.66553e-26
8.9558e-26
8.39569e-26
1.3701e-25
1.49405e-25
1.31799e-25
1.04629e-25
1.09941e-25
9.24265e-26
8.87454e-26
1.04697e-25
1.39696e-25
4.0546e-25
2.81984e-25
2.21388e-25
2.14725e-25
1.25675e-25
9.60888e-26
6.17914e-26
7.63108e-26
1.13868e-25
8.79327e-26
7.91902e-26
9.17529e-26
1.10085e-25
1.20436e-25
1.31437e-25
8.40848e-26
6.7602e-26
7.58576e-26
8.67269e-26
1.21224e-25
4.06325e-25
3.38733e-25
2.8684e-25
2.18595e-25
1.1681e-25
1.05131e-25
6.22503e-26
9.73733e-26
8.48501e-26
6.04942e-26
8.34998e-26
8.24737e-26
7.62955e-26
1.15903e-25
1.44929e-25
1.26653e-25
6.47835e-26
5.49293e-26
7.60224e-26
1.03546e-25
3.90601e-25
3.6953e-25
3.0891e-25
1.78893e-25
1.48294e-25
1.11688e-25
7.27046e-26
9.44788e-26
1.12616e-25
8.00525e-26
7.60446e-26
6.77671e-26
6.74395e-26
8.94997e-26
1.2118e-25
7.43915e-26
6.70933e-26
7.98869e-26
1.01069e-25
1.16611e-25
3.91089e-25
3.91738e-25
2.86941e-25
1.80891e-25
1.81745e-25
1.29283e-25
1.01235e-25
1.05853e-25
8.762e-26
7.92823e-26
7.0634e-26
3.44003e-26
6.16532e-26
8.98398e-26
1.23716e-25
8.90162e-26
7.3223e-26
9.5431e-26
1.01778e-25
1.09069e-25
)
;

boundaryField
{
    movingWall
    {
        type            calculated;
        value           nonuniform List<scalar> 
20
(
3.91089e-25
3.91738e-25
2.86941e-25
1.80891e-25
1.81745e-25
1.29283e-25
1.01235e-25
1.05853e-25
8.762e-26
7.92823e-26
7.0634e-26
3.44003e-26
6.16532e-26
8.98398e-26
1.23716e-25
8.90162e-26
7.3223e-26
9.5431e-26
1.01778e-25
1.09069e-25
)
;
    }
    fixedWalls
    {
        type            calculated;
        value           nonuniform List<scalar> 
60
(
2.14108e-27
1.11243e-26
3.99e-26
5.71429e-26
8.52166e-26
1.13018e-25
1.41523e-25
1.97071e-25
2.25182e-25
1.67061e-25
1.77684e-25
1.75694e-25
2.15644e-25
2.72715e-25
3.48484e-25
3.34734e-25
4.0546e-25
4.06325e-25
3.90601e-25
3.91089e-25
3.04271e-25
3.08726e-25
3.36053e-25
3.55892e-25
3.89948e-25
3.52044e-25
3.5379e-25
3.37313e-25
3.74953e-25
3.53607e-25
3.49292e-25
2.93572e-25
2.4603e-25
1.67264e-25
1.5607e-25
1.39696e-25
1.21224e-25
1.03546e-25
1.16611e-25
1.09069e-25
2.14108e-27
2.20048e-26
6.24266e-26
8.09657e-26
1.11099e-25
1.54255e-25
1.9501e-25
2.53728e-25
3.39566e-25
3.33826e-25
3.38184e-25
2.79979e-25
2.6475e-25
3.09563e-25
3.63414e-25
3.9367e-25
4.00668e-25
3.71127e-25
2.99848e-25
3.04271e-25
)
;
    }
    frontAndBack
    {
        type            empty;
    }
}


// ************************************************************************* //
