/*--------------------------------*- C++ -*----------------------------------*\
| =========                 |                                                 |
| \\      /  F ield         | OpenFOAM: The Open Source CFD Toolbox           |
|  \\    /   O peration     | Version:  2506                                  |
|   \\  /    A nd           | Website:  www.openfoam.com                      |
|    \\/     M anipulation  |                                                 |
\*---------------------------------------------------------------------------*/
FoamFile
{
    version     2.0;
    format      ascii;
    arch        "LSB;label=32;scalar=64";
    class       volScalarField;
    location    "8";
    object      dUdt2;
}
// * * * * * * * * * * * * * * * * * * * * * * * * * * * * * * * * * * * * * //

dimensions      [0 2 -4 0 0 0 0];

internalField   nonuniform List<scalar> 
400
(
3.21513e-26
6.58555e-27
5.00258e-28
2.17811e-27
6.31668e-28
2.03434e-31
5.67349e-28
7.97164e-29
5.22717e-28
4.93945e-28
1.97357e-27
5.18046e-28
1.97556e-27
4.94393e-28
1.44102e-28
2.68438e-29
7.08063e-28
7.92637e-27
2.17326e-28
5.60944e-30
8.17186e-27
2.0445e-27
7.12714e-30
2.63564e-29
1.77691e-26
1.99705e-27
2.02769e-27
2.03604e-27
1.98153e-27
1.93779e-28
1.10377e-28
5.88274e-28
2.08513e-27
4.44082e-27
6.55692e-29
2.16022e-27
2.13751e-27
1.32705e-28
2.56195e-27
1.55833e-29
2.79173e-26
1.32111e-28
6.67014e-28
2.49737e-28
6.90705e-28
8.18973e-31
7.8892e-31
3.47009e-30
8.67611e-30
4.47562e-27
8.07334e-27
2.60003e-27
2.25537e-27
2.78624e-29
1.22156e-28
1.89896e-29
5.91335e-29
2.2156e-27
5.75419e-28
2.81055e-29
3.05918e-27
4.93232e-28
5.65523e-28
9.91692e-31
8.84313e-28
7.18828e-28
2.22288e-27
2.08916e-27
2.29747e-27
2.5525e-29
3.47781e-29
4.78753e-29
5.179e-27
2.56993e-27
4.95537e-28
5.329e-28
2.64588e-29
1.97322e-27
1.19075e-30
5.59919e-28
1.00627e-26
4.67601e-29
2.25739e-27
2.11196e-27
6.09677e-29
1.00105e-27
4.88442e-27
1.98148e-27
1.42965e-28
2.47527e-28
1.97528e-27
1.88758e-29
2.68273e-27
1.98845e-27
5.83822e-28
1.82923e-28
4.48881e-27
5.22463e-28
1.98982e-27
6.10737e-31
1.26781e-26
6.08763e-28
6.40944e-29
5.09114e-28
1.97386e-27
7.62147e-28
5.20255e-28
2.01426e-27
7.63322e-28
4.60455e-27
2.45937e-30
4.87298e-28
2.28215e-27
2.03535e-27
6.08707e-28
2.16874e-27
7.94061e-27
2.0336e-27
1.97217e-27
2.88113e-29
7.4177e-27
6.07817e-27
7.89494e-27
2.97658e-29
2.29322e-27
8.25091e-27
1.97216e-27
2.12839e-27
1.97364e-27
2.09918e-27
2.19453e-30
7.98672e-27
6.85348e-29
9.73706e-30
5.71365e-28
5.02147e-28
1.53915e-27
5.71094e-28
2.06182e-27
5.1422e-29
2.20485e-26
1.97641e-27
1.97222e-27
6.76995e-29
1.9836e-27
2.14497e-27
1.01378e-29
2.14404e-27
2.81171e-29
6.33548e-29
7.45405e-29
2.09933e-27
2.14264e-27
2.00052e-27
2.01128e-30
1.97221e-27
9.56847e-29
1.98295e-27
5.10883e-28
2.07281e-30
5.4157e-27
5.22968e-28
6.04082e-28
2.61194e-28
5.70915e-29
8.3781e-28
4.49375e-27
5.81349e-29
2.12378e-27
5.00791e-28
6.3742e-28
7.32826e-28
6.31148e-28
2.08339e-27
1.97217e-27
2.20666e-27
1.9728e-27
2.01092e-27
2.49564e-33
1.9778e-27
1.9264e-27
5.96198e-28
2.75982e-29
4.59771e-27
6.06738e-28
1.98994e-27
4.97046e-28
1.99655e-27
1.98012e-27
6.73759e-29
1.81657e-29
5.69389e-29
2.52515e-27
2.43141e-27
1.97267e-27
2.01382e-27
1.11088e-29
4.9511e-28
1.86631e-32
7.74063e-30
1.15481e-26
2.88802e-27
1.12679e-29
8.00241e-27
6.58697e-29
2.02587e-27
2.1301e-29
3.42105e-30
2.16055e-27
8.21429e-30
9.53221e-29
2.5129e-28
1.97636e-27
1.31966e-30
7.56615e-30
3.37864e-28
4.02262e-28
6.42578e-29
2.33164e-29
1.51436e-28
9.72427e-27
8.26974e-27
2.04202e-27
2.03961e-28
8.25402e-27
2.16312e-27
2.16534e-27
2.09611e-27
1.06447e-28
1.07329e-28
5.78209e-30
2.02727e-27
2.01172e-27
5.98361e-28
5.10893e-28
9.22764e-30
6.76807e-28
4.93486e-28
3.1458e-28
6.85282e-28
9.18831e-27
9.75489e-28
6.37323e-29
6.48244e-28
2.47803e-27
3.87116e-29
1.98917e-27
2.47074e-30
1.9799e-27
1.46884e-30
1.98143e-27
2.4412e-29
2.3264e-27
1.13973e-28
2.1083e-29
2.0466e-27
3.51211e-28
2.35195e-27
2.36898e-27
3.04093e-27
5.12914e-27
1.29559e-30
9.14435e-28
3.95897e-28
5.43508e-29
3.45084e-28
2.88333e-28
7.10055e-28
4.79597e-27
3.44202e-28
5.02134e-28
4.94659e-28
6.30342e-28
2.25623e-27
5.41795e-28
2.04483e-27
5.96125e-28
2.2345e-27
1.62601e-27
5.26865e-28
1.55953e-26
1.43251e-27
2.34743e-29
2.56354e-27
6.39573e-28
2.36159e-27
1.995e-27
2.05363e-27
5.07845e-28
1.37944e-29
4.93108e-28
5.62834e-28
4.45444e-27
1.98321e-27
1.97846e-27
1.97954e-27
4.63623e-27
2.88362e-27
5.95117e-28
6.79921e-29
1.35336e-26
2.18832e-27
1.99056e-27
4.52522e-27
4.94881e-28
1.08155e-27
6.9806e-28
2.01076e-27
5.27863e-31
9.44964e-30
4.20583e-29
1.9729e-27
2.09365e-27
1.98574e-27
5.9704e-28
2.01547e-27
9.55613e-28
2.46405e-32
1.98056e-27
7.21374e-29
1.81624e-26
2.37395e-28
9.86282e-28
9.83592e-29
2.03703e-27
1.23266e-26
5.54193e-28
8.39322e-27
5.7281e-28
1.97285e-27
4.48763e-27
6.10161e-28
1.03583e-27
5.92791e-28
1.15629e-28
2.37291e-28
1.97328e-27
4.45744e-27
3.87882e-31
8.95821e-29
1.27955e-26
1.8155e-27
5.50093e-28
7.5857e-29
7.90026e-28
8.65705e-29
2.12621e-27
2.22548e-27
5.11903e-28
1.68167e-29
4.93512e-28
2.07164e-27
2.23394e-28
4.55455e-27
1.98298e-27
1.9736e-27
4.55233e-27
6.71218e-29
5.22345e-28
1.97271e-27
1.34729e-27
2.67031e-29
2.02488e-27
4.64583e-29
4.92427e-28
1.76594e-28
7.32739e-28
4.45182e-27
4.96108e-28
5.24302e-28
4.15254e-31
1.53615e-28
6.3595e-29
2.08303e-27
2.09438e-27
2.1893e-27
1.24758e-26
2.56209e-27
4.91048e-29
1.78082e-30
3.9378e-27
5.13474e-28
4.93046e-28
6.18612e-28
2.24281e-27
5.13042e-28
7.56051e-30
3.32626e-29
7.8136e-28
2.01609e-27
8.47379e-30
2.1034e-29
4.45431e-27
4.94873e-28
5.12375e-28
1.99813e-27
5.24803e-28
2.04505e-27
5.0023e-28
1.1606e-29
)
;

boundaryField
{
    movingWall
    {
        type            calculated;
        value           uniform 0;
    }
    fixedWalls
    {
        type            calculated;
        value           uniform 0;
    }
    frontAndBack
    {
        type            empty;
    }
}


// ************************************************************************* //
