/*--------------------------------*- C++ -*----------------------------------*\
| =========                 |                                                 |
| \\      /  F ield         | OpenFOAM: The Open Source CFD Toolbox           |
|  \\    /   O peration     | Version:  2506                                  |
|   \\  /    A nd           | Website:  www.openfoam.com                      |
|    \\/     M anipulation  |                                                 |
\*---------------------------------------------------------------------------*/
FoamFile
{
    version     2.0;
    format      ascii;
    arch        "LSB;label=32;scalar=64";
    class       volScalarField;
    location    "8";
    object      enstrophyField;
}
// * * * * * * * * * * * * * * * * * * * * * * * * * * * * * * * * * * * * * //

dimensions      [0 0 -2 0 0 0 0];

internalField   nonuniform List<scalar> 
400
(
1.12575e-23
1.52258e-23
5.78373e-25
5.66842e-26
3.61548e-28
4.37636e-28
2.80872e-28
4.37666e-32
1.92123e-30
3.60509e-29
2.03038e-29
1.30789e-27
3.64513e-29
1.63013e-27
9.77411e-29
2.25266e-31
6.58152e-29
3.05653e-27
6.52052e-29
1.6143e-29
1.63874e-26
4.90794e-27
1.17689e-26
4.45064e-28
3.63465e-27
3.50452e-27
2.32592e-28
1.02866e-27
9.57543e-28
1.15636e-27
1.46394e-27
6.26241e-27
2.55567e-27
2.00686e-27
2.53377e-29
2.52945e-30
5.67452e-29
1.32679e-27
5.76315e-28
3.07214e-28
6.62219e-24
7.10657e-24
4.24267e-25
1.3727e-26
2.07045e-26
9.71592e-27
1.41386e-27
6.47748e-27
7.01145e-27
1.50422e-27
1.95653e-27
3.61152e-29
9.33188e-28
3.6518e-27
1.02371e-28
1.00236e-28
1.74748e-27
3.36539e-27
1.61341e-29
5.07263e-28
2.70909e-24
2.79355e-24
1.67375e-25
3.36998e-27
2.05764e-27
6.74501e-28
4.69481e-29
1.40826e-28
1.97181e-28
1.83396e-27
1.63934e-27
3.90087e-27
4.61907e-27
5.01629e-31
7.08874e-29
3.98149e-28
8.41744e-28
2.12225e-27
3.90171e-30
1.76691e-28
5.18182e-25
6.85939e-25
3.06309e-26
3.83089e-27
8.37157e-28
3.21827e-27
1.28181e-29
3.22516e-32
2.88207e-29
1.73837e-28
3.79159e-28
6.56532e-28
3.3824e-27
8.16216e-27
1.53186e-28
1.45921e-27
1.94765e-29
1.25592e-29
1.40868e-29
1.87309e-29
2.87398e-25
4.88327e-25
1.3356e-26
8.24199e-27
5.02083e-27
5.66016e-27
1.7242e-27
6.71945e-27
6.77713e-27
3.83811e-28
8.90622e-29
2.93575e-28
7.01623e-29
2.377e-30
4.29252e-28
7.17101e-30
8.12707e-28
1.91855e-27
3.14022e-29
8.51463e-28
2.5003e-24
2.46248e-24
1.72339e-25
2.62099e-30
1.6921e-26
7.44482e-27
8.47665e-27
6.8669e-29
2.23184e-28
3.48032e-27
3.28756e-27
1.50526e-27
1.84646e-27
1.81034e-27
2.87823e-27
1.74331e-28
5.56527e-28
2.20574e-27
1.62017e-29
9.42544e-28
4.31558e-25
1.40494e-25
2.51275e-26
1.26372e-27
1.01122e-26
1.0631e-26
3.07315e-27
1.49052e-28
3.39589e-27
8.69362e-28
4.07882e-27
4.41141e-29
1.33694e-28
3.14221e-30
1.75105e-29
3.8308e-27
6.40436e-27
3.43324e-29
5.0548e-28
2.57456e-31
1.93135e-24
2.28592e-24
1.9441e-25
2.56435e-29
1.51141e-26
7.92052e-27
3.54853e-27
1.99005e-27
1.66357e-29
4.33139e-27
2.90746e-28
1.43721e-28
1.35572e-28
2.50158e-29
2.53928e-27
4.55562e-27
4.22716e-30
1.77938e-29
1.7691e-27
1.47038e-28
2.09801e-24
2.35954e-24
1.78347e-25
2.98377e-28
5.16247e-27
7.95464e-28
3.82237e-27
3.68839e-27
2.85375e-27
2.65717e-27
6.15859e-27
2.99963e-27
5.80723e-27
4.09714e-27
7.12836e-28
2.04757e-28
1.9017e-27
1.70286e-27
1.78901e-27
3.18822e-28
1.63085e-24
4.80485e-25
1.32145e-26
5.68521e-27
1.06781e-27
1.65861e-27
7.80647e-28
1.78084e-29
6.4003e-28
6.50694e-31
1.04411e-29
2.31463e-30
1.79931e-30
7.90723e-28
3.40575e-27
4.41305e-29
2.94623e-29
2.12091e-30
1.52583e-30
4.78433e-29
2.12223e-24
3.83329e-26
1.10416e-26
5.59891e-29
2.86841e-29
5.95569e-28
1.69887e-29
1.52145e-28
5.98449e-28
7.0566e-28
3.97924e-27
5.85674e-29
3.69321e-28
2.66755e-30
3.00534e-27
3.39233e-31
1.87625e-27
1.40753e-29
2.20511e-27
2.82704e-29
3.68341e-26
4.35505e-27
3.9747e-27
7.44279e-27
5.14975e-28
1.13858e-28
4.17603e-28
3.37447e-28
2.0664e-28
3.14387e-28
8.11375e-30
2.26962e-27
3.99178e-27
1.55983e-27
1.3233e-27
6.39713e-29
6.87011e-29
2.14047e-32
1.4663e-27
5.01585e-28
3.48751e-24
1.06013e-24
5.34532e-26
4.40411e-27
1.47976e-27
1.66749e-29
1.64134e-27
4.83069e-27
9.63315e-27
6.87268e-27
1.59896e-29
9.96551e-28
5.44616e-28
6.99515e-28
4.54402e-28
3.07217e-28
9.75882e-28
9.87322e-29
4.42277e-28
1.79223e-31
6.25659e-24
4.76825e-24
2.54494e-25
7.88347e-27
2.45775e-27
2.15852e-28
1.31979e-27
3.60509e-27
1.68476e-27
7.755e-27
4.72332e-27
6.1749e-27
5.56656e-27
2.16535e-27
3.04806e-29
3.82574e-28
2.23534e-28
9.58693e-28
2.84318e-28
1.15739e-28
3.32751e-24
5.4291e-24
2.77246e-25
6.43509e-27
9.2378e-28
4.57965e-27
2.11075e-27
9.27359e-28
1.24406e-28
5.01597e-29
1.64129e-27
1.70765e-27
3.70484e-27
2.34913e-27
4.45264e-28
1.60366e-28
4.66645e-29
9.07597e-30
1.17682e-29
3.11404e-28
4.32412e-25
9.32034e-25
4.10803e-26
2.81255e-27
5.60282e-28
2.93849e-29
3.19813e-29
2.83686e-29
4.72974e-28
3.80568e-27
2.15189e-27
3.61352e-28
1.29939e-27
1.37583e-27
2.1631e-28
2.00779e-27
8.22765e-31
2.78572e-29
2.61729e-29
2.39709e-29
1.56107e-24
3.57834e-24
1.27926e-25
1.66145e-26
3.35323e-28
3.02466e-30
1.09972e-32
2.14785e-27
6.29024e-30
3.72337e-28
1.34375e-27
8.05851e-28
7.27116e-27
1.64856e-27
1.42812e-27
1.85957e-27
7.70492e-29
1.38203e-27
5.81201e-29
2.08529e-29
4.35636e-24
4.56322e-24
2.97449e-25
1.15797e-26
3.11291e-27
2.90447e-28
2.17458e-27
1.88026e-27
1.23194e-27
1.53227e-27
1.90998e-27
1.29784e-27
2.57978e-27
9.09483e-28
1.2162e-28
2.22686e-27
3.42225e-27
1.54343e-27
2.10493e-28
7.41865e-28
2.87899e-26
7.44265e-26
6.96909e-27
1.97296e-27
1.52267e-27
1.86366e-27
1.88853e-27
7.19794e-27
4.699e-27
1.91752e-27
1.07095e-27
8.02842e-28
1.47953e-28
1.5107e-27
4.98364e-28
1.28199e-27
1.10516e-27
5.36216e-30
9.47368e-29
8.46475e-30
)
;

boundaryField
{
    movingWall
    {
        type            calculated;
        value           nonuniform List<scalar> 
20
(
1.31186e-25
2.37481e-25
1.41909e-25
5.10302e-26
6.34555e-26
3.73451e-26
2.62875e-26
3.86465e-26
2.82442e-26
2.63953e-26
2.29227e-26
2.16123e-26
2.2502e-26
1.5912e-26
9.47964e-27
1.51487e-26
7.94188e-27
1.13687e-27
9.47368e-29
8.46475e-30
)
;
    }
    fixedWalls
    {
        type            calculated;
        value           nonuniform List<scalar> 
60
(
2.69793e-22
1.74184e-25
1.37919e-22
5.69965e-23
1.12206e-23
1.05762e-23
4.97621e-23
4.08167e-24
4.82901e-23
4.83464e-23
9.60361e-24
2.0341e-24
1.00987e-25
1.85703e-23
8.43051e-23
1.00047e-22
1.67814e-23
6.23318e-23
8.61208e-23
8.06557e-25
1.2998e-28
6.13258e-28
7.91807e-28
4.2843e-28
3.89239e-29
9.84637e-28
1.64573e-27
3.91764e-28
9.8264e-30
1.41237e-28
2.38161e-28
3.9744e-28
1.10374e-27
1.29347e-29
1.10811e-28
5.83752e-28
4.22626e-30
1.49985e-30
4.72345e-28
1.59668e-29
2.98471e-24
1.54718e-23
8.37992e-26
1.60319e-25
2.25692e-26
4.90917e-26
2.39019e-26
1.58298e-26
1.61273e-26
4.73453e-27
1.28937e-27
3.67674e-27
6.43351e-28
4.20503e-27
9.77411e-29
2.25266e-31
5.42386e-28
3.67128e-27
2.99523e-27
1.6143e-29
)
;
    }
    frontAndBack
    {
        type            empty;
    }
}


// ************************************************************************* //
