/*--------------------------------*- C++ -*----------------------------------*\
| =========                 |                                                 |
| \\      /  F ield         | OpenFOAM: The Open Source CFD Toolbox           |
|  \\    /   O peration     | Version:  2506                                  |
|   \\  /    A nd           | Website:  www.openfoam.com                      |
|    \\/     M anipulation  |                                                 |
\*---------------------------------------------------------------------------*/
FoamFile
{
    version     2.0;
    format      ascii;
    arch        "LSB;label=32;scalar=64";
    class       volScalarField;
    location    "8";
    object      epsilon;
}
// * * * * * * * * * * * * * * * * * * * * * * * * * * * * * * * * * * * * * //

dimensions      [0 2 -3 0 0 0 0];

internalField   nonuniform List<scalar> 
400
(
1.3386e-06
1.33859e-06
1.33859e-06
1.33859e-06
1.33859e-06
1.33859e-06
1.33859e-06
1.33859e-06
1.33859e-06
1.33859e-06
1.33859e-06
1.33859e-06
1.33859e-06
1.33859e-06
1.33859e-06
1.33859e-06
1.33859e-06
1.33859e-06
1.33859e-06
1.33859e-06
1.3814e-06
1.36457e-06
1.36599e-06
1.36658e-06
1.36777e-06
1.36837e-06
1.36955e-06
1.37017e-06
1.37136e-06
1.37199e-06
1.37318e-06
1.37383e-06
1.37502e-06
1.37569e-06
1.37688e-06
1.37757e-06
1.37877e-06
1.37947e-06
1.38007e-06
1.38102e-06
1.44895e-06
1.43071e-06
1.43228e-06
1.43292e-06
1.43422e-06
1.43488e-06
1.43618e-06
1.43684e-06
1.43814e-06
1.43882e-06
1.44012e-06
1.44081e-06
1.44211e-06
1.44282e-06
1.44411e-06
1.44483e-06
1.44613e-06
1.44686e-06
1.44751e-06
1.44853e-06
1.5196e-06
1.50017e-06
1.50183e-06
1.50252e-06
1.50391e-06
1.5046e-06
1.50599e-06
1.5067e-06
1.50808e-06
1.50881e-06
1.51019e-06
1.51093e-06
1.51231e-06
1.51306e-06
1.51444e-06
1.51521e-06
1.51659e-06
1.51737e-06
1.51806e-06
1.51914e-06
1.57861e-06
1.55815e-06
1.55991e-06
1.56063e-06
1.56209e-06
1.56282e-06
1.56428e-06
1.56503e-06
1.56648e-06
1.56725e-06
1.5687e-06
1.56948e-06
1.57093e-06
1.57172e-06
1.57318e-06
1.57398e-06
1.57544e-06
1.57626e-06
1.57699e-06
1.57813e-06
1.62126e-06
1.60005e-06
1.60186e-06
1.60262e-06
1.60413e-06
1.60489e-06
1.6064e-06
1.60717e-06
1.60868e-06
1.60947e-06
1.61098e-06
1.61179e-06
1.61329e-06
1.61411e-06
1.61562e-06
1.61646e-06
1.61796e-06
1.61881e-06
1.61957e-06
1.62075e-06
1.64941e-06
1.62769e-06
1.62955e-06
1.63033e-06
1.63187e-06
1.63265e-06
1.63419e-06
1.63498e-06
1.63653e-06
1.63734e-06
1.63888e-06
1.63971e-06
1.64125e-06
1.64209e-06
1.64363e-06
1.64449e-06
1.64603e-06
1.6469e-06
1.64768e-06
1.64889e-06
1.66725e-06
1.64521e-06
1.6471e-06
1.64788e-06
1.64945e-06
1.65024e-06
1.65181e-06
1.65261e-06
1.65418e-06
1.655e-06
1.65656e-06
1.6574e-06
1.65897e-06
1.65982e-06
1.66138e-06
1.66225e-06
1.66382e-06
1.6647e-06
1.66549e-06
1.66672e-06
1.67874e-06
1.6565e-06
1.65841e-06
1.6592e-06
1.66078e-06
1.66157e-06
1.66316e-06
1.66397e-06
1.66555e-06
1.66638e-06
1.66796e-06
1.66881e-06
1.67038e-06
1.67125e-06
1.67282e-06
1.6737e-06
1.67528e-06
1.67617e-06
1.67697e-06
1.67821e-06
1.68677e-06
1.66439e-06
1.6663e-06
1.6671e-06
1.66869e-06
1.66949e-06
1.67108e-06
1.6719e-06
1.67349e-06
1.67432e-06
1.67591e-06
1.67677e-06
1.67835e-06
1.67922e-06
1.68081e-06
1.6817e-06
1.68329e-06
1.68418e-06
1.68498e-06
1.68623e-06
1.69315e-06
1.67065e-06
1.67258e-06
1.67338e-06
1.67497e-06
1.67578e-06
1.67738e-06
1.6782e-06
1.6798e-06
1.68064e-06
1.68224e-06
1.6831e-06
1.68469e-06
1.68557e-06
1.68716e-06
1.68805e-06
1.68965e-06
1.69055e-06
1.69135e-06
1.69261e-06
1.69896e-06
1.67636e-06
1.67829e-06
1.6791e-06
1.6807e-06
1.68151e-06
1.68312e-06
1.68394e-06
1.68555e-06
1.68639e-06
1.688e-06
1.68886e-06
1.69046e-06
1.69134e-06
1.69294e-06
1.69384e-06
1.69544e-06
1.69635e-06
1.69715e-06
1.69841e-06
1.70482e-06
1.68211e-06
1.68405e-06
1.68486e-06
1.68647e-06
1.68728e-06
1.6889e-06
1.68973e-06
1.69134e-06
1.69219e-06
1.6938e-06
1.69467e-06
1.69628e-06
1.69716e-06
1.69877e-06
1.69967e-06
1.70128e-06
1.70219e-06
1.703e-06
1.70427e-06
1.71107e-06
1.68825e-06
1.6902e-06
1.69101e-06
1.69263e-06
1.69345e-06
1.69507e-06
1.69591e-06
1.69753e-06
1.69838e-06
1.7e-06
1.70087e-06
1.70249e-06
1.70337e-06
1.70499e-06
1.70589e-06
1.70751e-06
1.70843e-06
1.70924e-06
1.71051e-06
1.71788e-06
1.69494e-06
1.6969e-06
1.69772e-06
1.69934e-06
1.70017e-06
1.7018e-06
1.70263e-06
1.70427e-06
1.70512e-06
1.70675e-06
1.70762e-06
1.70925e-06
1.71014e-06
1.71177e-06
1.71267e-06
1.7143e-06
1.71522e-06
1.71604e-06
1.71732e-06
1.72519e-06
1.70212e-06
1.7041e-06
1.70492e-06
1.70655e-06
1.70738e-06
1.70902e-06
1.70986e-06
1.7115e-06
1.71236e-06
1.714e-06
1.71488e-06
1.71652e-06
1.71741e-06
1.71905e-06
1.71996e-06
1.7216e-06
1.72252e-06
1.72335e-06
1.72463e-06
1.73268e-06
1.70948e-06
1.71147e-06
1.71229e-06
1.71394e-06
1.71477e-06
1.71642e-06
1.71727e-06
1.71891e-06
1.71978e-06
1.72143e-06
1.72231e-06
1.72395e-06
1.72486e-06
1.7265e-06
1.72742e-06
1.72907e-06
1.73e-06
1.73082e-06
1.73212e-06
1.73967e-06
1.71635e-06
1.71834e-06
1.71917e-06
1.72083e-06
1.72166e-06
1.72332e-06
1.72417e-06
1.72583e-06
1.7267e-06
1.72835e-06
1.72924e-06
1.73089e-06
1.7318e-06
1.73345e-06
1.73438e-06
1.73603e-06
1.73697e-06
1.7378e-06
1.7391e-06
1.74518e-06
1.72221e-06
1.72414e-06
1.72494e-06
1.72655e-06
1.72737e-06
1.72898e-06
1.72982e-06
1.73144e-06
1.7323e-06
1.73392e-06
1.73481e-06
1.73643e-06
1.73735e-06
1.73897e-06
1.73991e-06
1.74154e-06
1.7425e-06
1.74332e-06
1.74462e-06
1.74771e-06
1.74771e-06
1.74771e-06
1.74771e-06
1.7477e-06
1.7477e-06
1.7477e-06
1.7477e-06
1.7477e-06
1.7477e-06
1.7477e-06
1.7477e-06
1.7477e-06
1.7477e-06
1.7477e-06
1.7477e-06
1.7477e-06
1.7477e-06
1.7477e-06
1.7477e-06
)
;

boundaryField
{
    movingWall
    {
        type            epsilonWallFunction;
        blending        stepwise;
        value           nonuniform List<scalar> 
20
(
1.74771e-06
1.74771e-06
1.74771e-06
1.74771e-06
1.7477e-06
1.7477e-06
1.7477e-06
1.7477e-06
1.7477e-06
1.7477e-06
1.7477e-06
1.7477e-06
1.7477e-06
1.7477e-06
1.7477e-06
1.7477e-06
1.7477e-06
1.7477e-06
1.7477e-06
1.7477e-06
)
;
    }
    fixedWalls
    {
        type            epsilonWallFunction;
        blending        stepwise;
        value           nonuniform List<scalar> 
60
(
1.3386e-06
1.3814e-06
1.44895e-06
1.5196e-06
1.57861e-06
1.62126e-06
1.64941e-06
1.66725e-06
1.67874e-06
1.68677e-06
1.69315e-06
1.69896e-06
1.70482e-06
1.71107e-06
1.71788e-06
1.72519e-06
1.73268e-06
1.73967e-06
1.74518e-06
1.74771e-06
1.33859e-06
1.38102e-06
1.44853e-06
1.51914e-06
1.57813e-06
1.62075e-06
1.64889e-06
1.66672e-06
1.67821e-06
1.68623e-06
1.69261e-06
1.69841e-06
1.70427e-06
1.71051e-06
1.71732e-06
1.72463e-06
1.73212e-06
1.7391e-06
1.74462e-06
1.7477e-06
1.3386e-06
1.33859e-06
1.33859e-06
1.33859e-06
1.33859e-06
1.33859e-06
1.33859e-06
1.33859e-06
1.33859e-06
1.33859e-06
1.33859e-06
1.33859e-06
1.33859e-06
1.33859e-06
1.33859e-06
1.33859e-06
1.33859e-06
1.33859e-06
1.33859e-06
1.33859e-06
)
;
    }
    frontAndBack
    {
        type            empty;
    }
}


// ************************************************************************* //
