/*--------------------------------*- C++ -*----------------------------------*\
| =========                 |                                                 |
| \\      /  F ield         | OpenFOAM: The Open Source CFD Toolbox           |
|  \\    /   O peration     | Version:  2506                                  |
|   \\  /    A nd           | Website:  www.openfoam.com                      |
|    \\/     M anipulation  |                                                 |
\*---------------------------------------------------------------------------*/
FoamFile
{
    version     2.0;
    format      ascii;
    arch        "LSB;label=32;scalar=64";
    class       volScalarField;
    location    "8";
    object      flowTypeField;
}
// * * * * * * * * * * * * * * * * * * * * * * * * * * * * * * * * * * * * * //

dimensions      [0 0 0 0 0 0 0];

internalField   nonuniform List<scalar> 
400
(
0.33745
0.0223124
0.0321148
-0.219842
0.524625
0.290144
0.572478
0.929182
0.886346
0.176007
0.696452
0.146319
0.178835
0.125505
0.510531
0.683449
0.212596
0.186321
0.742746
0.509477
0.974292
0.930254
0.618412
0.740136
0.122441
-0.029144
0.58348
0.162991
0.207354
0.459158
0.00539712
-0.0234971
-0.240932
-0.157283
0.551286
0.930961
0.565964
-0.0111444
0.420805
0.0262529
0.117791
0.0432198
-0.235629
0.149662
-0.247321
-0.0283171
0.0604864
-0.00544593
-0.0533147
0.394822
0.179111
0.789217
-0.569548
0.18056
0.48293
0.0517656
-0.615515
-0.259382
0.724533
0.000994118
0.317331
0.0737198
-0.0512802
0.293136
0.107805
-0.250912
0.772877
0.453268
0.27797
-0.0689312
-0.0249585
0.118061
0.0344782
0.887811
0.828571
0.085814
-0.482952
-0.0901831
0.877645
0.146086
0.685147
0.135176
0.276967
-0.240592
0.37405
-0.453211
0.867618
0.895981
0.220644
0.497463
0.289969
0.367112
-0.504452
-0.173222
0.00782025
-0.75972
0.702254
0.797076
0.784343
0.725224
0.745884
0.252444
0.36846
-0.461399
-0.204347
-0.302764
-0.08078
-0.0671862
-0.0658255
0.25315
0.60331
0.0182955
0.542733
0.87392
0.618713
0.424361
0.325215
-0.133822
0.128193
-0.455368
-0.0953401
0.0487238
-0.257466
0.964598
-0.217108
-0.112572
0.110714
0.597417
0.601717
0.0655898
0.196584
0.280168
-0.119268
-0.108046
0.0664687
0.0359776
0.134369
-0.219684
0.72364
0.284845
0.763859
0.50406
0.172757
0.485052
-0.0467538
0.0189475
0.235393
0.477217
-0.0103553
-0.317359
-0.0743145
0.613391
0.390918
0.848252
0.080676
0.222967
-0.0434296
0.0142398
0.167235
0.958804
0.416152
0.115556
-0.262531
0.947273
-0.278229
-0.119698
-0.0343612
0.223894
0.0176438
-0.143202
0.120535
0.182426
0.302245
0.759097
0.276013
-0.100848
0.0349924
0.716699
-0.0621252
0.665619
0.185938
0.0910553
-0.167145
0.766845
-0.166079
0.326721
0.0263386
0.244873
0.20987
0.107101
0.0874969
0.0324394
-0.0663479
-0.0855567
0.634115
0.00248377
-0.132451
0.220023
-0.102089
0.0666668
0.313375
0.0691561
0.0643344
-0.0584926
0.159975
-0.0526199
0.332338
0.842203
-0.297552
0.741377
0.627901
0.221842
0.824353
0.0375181
0.030829
0.426019
0.655567
0.930999
0.883668
0.63231
0.0457379
0.547319
0.330227
0.570029
0.877693
-0.259383
0.364644
0.419513
-0.267131
-0.373958
-0.0962334
0.742829
0.50603
0.860715
0.0930496
0.517132
-0.126537
0.85613
-0.216287
0.70424
0.803737
0.911895
0.61238
0.132406
0.423382
0.694061
-0.0497368
0.5167
0.601795
0.559931
0.92404
-0.0891222
0.0849937
-0.0271081
0.306961
0.733978
0.732098
0.105463
0.103556
0.440754
0.255662
-0.0121228
-0.139336
-0.0350441
0.129712
0.305735
0.0797881
-0.128456
-0.266791
-0.0748842
0.771439
0.183358
0.203526
-0.175677
0.199574
0.11684
0.188649
0.469787
0.223956
0.935429
0.0287672
-0.0708205
-0.167751
0.0907557
-0.249797
0.595607
0.228799
0.15247
0.22363
-0.0916971
-0.104084
-0.0234793
0.122537
0.19004
0.694813
0.486135
0.131588
-0.550965
0.341651
0.554508
0.183664
0.0474962
-0.0270826
0.347019
0.160186
-0.106355
-0.128897
0.403592
0.446903
0.759267
0.244283
0.00449158
-0.0315951
0.285179
0.453075
0.624733
0.767281
0.88252
0.63043
0.0803179
0.819188
0.28399
0.283009
0.390428
0.602892
0.806116
0.507381
0.664348
0.189812
-0.069494
-0.156058
0.0235356
0.0597093
0.141043
0.464775
-0.12451
0.581729
0.2764
0.667501
0.678113
0.608017
0.0963567
0.15714
-0.162879
0.508413
0.922321
0.812104
-0.176237
0.333339
-0.000888585
0.1357
-0.467494
-0.111087
0.0580742
0.0390249
0.199953
0.716371
0.295009
0.0308555
0.0272365
0.285789
0.0299184
-0.185684
0.0642171
0.0317091
0.113157
0.144395
-0.12611
0.189022
0.0205539
0.0465651
0.308124
0.117215
0.407681
0.42893
-0.0748879
-0.276699
-0.0243418
0.351075
0.0366232
0.91378
0.479232
0.478354
-0.0128671
0.143858
0.0232014
-0.0904756
-0.0553127
-0.179987
-0.139719
0.14575
0.275028
0.525873
0.0180959
-0.15741
0.154481
0.169196
0.916239
0.305985
0.00634068
)
;

boundaryField
{
    movingWall
    {
        type            calculated;
        value           nonuniform List<scalar> 
20
(
0.721597
-0.349015
0.0920756
-0.00345776
0.0196775
0.00351346
-0.0120223
-0.0311997
-0.0701239
-0.0232208
0.0454124
0.0634861
0.0562603
0.0182845
-0.0205721
0.0370305
0.0830523
0.397698
0.413399
0.335745
)
;
    }
    fixedWalls
    {
        type            calculated;
        value           nonuniform List<scalar> 
60
(
0.0314844
0.921205
-0.00184012
0.0175339
0.20597
0.224496
-0.0286046
0.461282
0.0557205
0.0228299
-0.00108109
0.337705
0.90768
0.0397378
-0.0732229
0.0298963
0.318914
0.113248
0.0142492
0.650762
0.194029
0.0136119
0.000640104
0.0723121
0.340676
-0.549066
0.372608
0.568078
0.830723
0.370286
0.70512
0.483982
-0.344598
0.833449
0.655472
-0.247954
0.892539
0.191638
0.366378
0.00352325
0.86387
0.203402
0.698842
-0.309039
0.214798
-0.000888629
0.0582639
0.0210689
0.0262067
-0.0307475
0.0406226
0.075406
0.249023
0.0877689
0.493242
0.890602
0.259405
0.192204
0.239304
0.582343
)
;
    }
    frontAndBack
    {
        type            empty;
    }
}


// ************************************************************************* //
