/*--------------------------------*- C++ -*----------------------------------*\
| =========                 |                                                 |
| \\      /  F ield         | OpenFOAM: The Open Source CFD Toolbox           |
|  \\    /   O peration     | Version:  2506                                  |
|   \\  /    A nd           | Website:  www.openfoam.com                      |
|    \\/     M anipulation  |                                                 |
\*---------------------------------------------------------------------------*/
FoamFile
{
    version     2.0;
    format      ascii;
    arch        "LSB;label=32;scalar=64";
    class       surfaceScalarField;
    location    "8";
    object      fluxField;
}
// * * * * * * * * * * * * * * * * * * * * * * * * * * * * * * * * * * * * * //

dimensions      [0 3 -1 0 0 0 0];

oriented        oriented;

internalField   nonuniform List<scalar> 
760
(
-5e-05
1.48023e-18
-5e-05
-2.82601e-19
-5e-05
6.91125e-20
-5e-05
-9.24723e-21
-5e-05
5.94825e-21
-5e-05
5.23791e-21
-5e-05
5.92949e-21
-5e-05
4.70466e-21
-5e-05
3.64242e-21
-5e-05
1.6025e-21
-5e-05
-1.02398e-23
-5e-05
-1.56526e-23
-5e-05
1.62964e-21
-5e-05
6.4398e-21
-5e-05
3.19346e-21
-5e-05
1.16475e-21
-5e-05
2.46336e-21
-5e-05
1.36971e-21
-5e-05
-4.42087e-21
-3.19656e-21
-5e-05
-9.825e-19
-5e-05
1.92477e-19
-5e-05
-4.44318e-20
-5e-05
1.40951e-20
-5e-05
4.45006e-21
-5e-05
4.86594e-21
-5e-05
4.08307e-21
-5e-05
3.74016e-21
-5e-05
5.20058e-22
-5e-05
-1.37147e-21
-5e-05
-1.16955e-21
-5e-05
-3.4826e-21
-5e-05
-2.42074e-21
-5e-05
4.8624e-21
-5e-05
7.67796e-21
-5e-05
6.28179e-21
-5e-05
3.57595e-21
-5e-05
-4.38481e-21
-5e-05
-9.4838e-21
-4.67602e-21
-5e-05
-3.65644e-19
-5e-05
5.80772e-20
-5e-05
-1.40633e-20
-5e-05
6.31249e-21
-5e-05
6.83555e-21
-5e-05
5.35846e-21
-5e-05
8.27326e-21
-5e-05
8.03941e-21
-5e-05
2.72773e-21
-5e-05
5.75244e-22
-5e-05
9.7964e-22
-5e-05
-2.27325e-21
-5e-05
-2.89815e-21
-5e-05
-1.94914e-21
-5e-05
5.16502e-21
-5e-05
5.04945e-21
-5e-05
1.34689e-21
-5e-05
-6.43517e-21
-5e-05
-8.34584e-21
-4.31668e-21
-5e-05
3.61056e-19
-5e-05
-7.42938e-20
-5e-05
1.55134e-20
-5e-05
-5.08029e-21
-5e-05
3.31946e-21
-5e-05
7.63441e-21
-5e-05
1.22299e-20
-5e-05
1.13227e-20
-5e-05
7.97077e-21
-5e-05
4.46003e-21
-5e-05
4.26768e-21
-5e-05
3.80574e-21
-5e-05
2.31808e-22
-5e-05
-6.90385e-21
-5e-05
-4.3544e-21
-5e-05
1.27155e-21
-5e-05
2.09649e-21
-5e-05
-6.49459e-22
-5e-05
-1.8914e-21
-1.27806e-21
-5e-05
-5.91995e-19
-5e-05
1.14071e-19
-5e-05
-3.856e-20
-5e-05
-2.21933e-21
-5e-05
-4.90842e-21
-5e-05
5.95723e-21
-5e-05
7.86652e-21
-5e-05
8.35129e-21
-5e-05
9.67955e-21
-5e-05
8.45389e-21
-5e-05
7.71502e-21
-5e-05
5.12234e-21
-5e-05
-6.25565e-22
-5e-05
-4.84871e-21
-5e-05
-4.91709e-21
-5e-05
7.59604e-23
-5e-05
2.759e-21
-5e-05
4.93911e-21
-5e-05
3.43961e-21
1.63091e-21
-5e-05
3.02182e-19
-5e-05
-6.81955e-20
-5e-05
1.21658e-21
-5e-05
-9.71554e-21
-5e-05
-1.13964e-21
-5e-05
7.11686e-21
-5e-05
8.53154e-21
-5e-05
6.91501e-21
-5e-05
6.56158e-21
-5e-05
7.42125e-21
-5e-05
7.24064e-21
-5e-05
3.92454e-21
-5e-05
1.34735e-21
-5e-05
2.60291e-21
-5e-05
3.38295e-21
-5e-05
1.79074e-21
-5e-05
-3.384e-22
-5e-05
3.52923e-21
-5e-05
4.6474e-21
2.9711e-21
-5e-05
4.51716e-19
-5e-05
-9.78206e-20
-5e-05
1.58776e-20
-5e-05
-7.09134e-21
-5e-05
2.73679e-21
-5e-05
3.34611e-21
-5e-05
3.56512e-21
-5e-05
2.7452e-21
-5e-05
2.17848e-21
-5e-05
9.76507e-22
-5e-05
-9.40936e-22
-5e-05
-1.33165e-21
-5e-05
1.57182e-21
-5e-05
2.99644e-21
-5e-05
3.68904e-21
-5e-05
3.11494e-21
-5e-05
5.74777e-22
-5e-05
2.73944e-21
-5e-05
5.69861e-21
5.33518e-21
-5e-05
-7.67381e-19
-5e-05
1.45422e-19
-5e-05
-3.93274e-20
-5e-05
8.02783e-21
-5e-05
5.23943e-22
-5e-05
-3.22816e-21
-5e-05
-6.40869e-21
-5e-05
-3.23119e-21
-5e-05
6.07932e-22
-5e-05
-2.06344e-21
-5e-05
-5.98003e-21
-5e-05
-3.56685e-21
-5e-05
6.06749e-22
-5e-05
3.23801e-21
-5e-05
3.00179e-21
-5e-05
4.53981e-22
-5e-05
1.02124e-21
-5e-05
2.36974e-21
-5e-05
4.58422e-21
4.86053e-21
-5e-05
-8.11237e-21
-5e-05
-5.00826e-21
-5e-05
-3.09845e-21
-5e-05
1.96534e-21
-5e-05
2.55656e-21
-5e-05
-2.54478e-21
-5e-05
-5.3846e-21
-5e-05
-1.74724e-21
-5e-05
3.15452e-22
-5e-05
-1.74699e-21
-5e-05
-4.72819e-21
-5e-05
-3.58617e-22
-5e-05
5.32153e-21
-5e-05
1.03718e-20
-5e-05
9.39162e-21
-5e-05
1.9953e-21
-5e-05
7.98105e-22
-5e-05
8.56827e-22
-5e-05
1.25238e-21
7.73364e-22
-5e-05
4.03346e-19
-5e-05
-9.20239e-20
-5e-05
2.40179e-20
-5e-05
-3.68559e-21
-5e-05
3.91118e-21
-5e-05
-6.10775e-22
-5e-05
1.17654e-21
-5e-05
4.02103e-21
-5e-05
8.27817e-22
-5e-05
4.11033e-22
-5e-05
-9.90906e-22
-5e-05
-9.07547e-23
-5e-05
5.35818e-21
-5e-05
6.04881e-21
-5e-05
4.49436e-21
-5e-05
1.63164e-21
-5e-05
1.78393e-21
-5e-05
1.68531e-21
-5e-05
1.26171e-21
7.2042e-22
-5e-05
-1.98674e-19
-5e-05
5.89337e-20
-5e-05
-2.49379e-21
-5e-05
8.00841e-21
-5e-05
1.18996e-21
-5e-05
1.12637e-21
-5e-05
3.8882e-21
-5e-05
2.77115e-21
-5e-05
-1.90818e-23
-5e-05
2.47572e-21
-5e-05
2.88174e-21
-5e-05
-6.40485e-22
-5e-05
7.1391e-22
-5e-05
-1.09651e-21
-5e-05
-1.87423e-21
-5e-05
-2.34731e-21
-5e-05
6.80374e-22
-5e-05
1.33364e-21
-5e-05
2.5217e-21
4.82022e-21
-5e-05
-1.21417e-20
-5e-05
1.88819e-20
-5e-05
9.73139e-21
-5e-05
6.63807e-21
-5e-05
-3.08693e-21
-5e-05
5.08404e-22
-5e-05
1.76872e-21
-5e-05
-1.39757e-21
-5e-05
-3.6498e-22
-5e-05
2.16916e-21
-5e-05
2.75807e-21
-5e-05
-8.11705e-22
-5e-05
-3.2386e-21
-5e-05
-2.80238e-21
-5e-05
-3.07209e-21
-5e-05
-3.05778e-21
-5e-05
-3.83785e-23
-5e-05
1.63459e-21
-5e-05
1.33978e-21
4.6986e-21
-5e-05
-2.8701e-19
-5e-05
4.67897e-20
-5e-05
-1.29402e-21
-5e-05
3.74478e-21
-5e-05
-1.55634e-21
-5e-05
2.44998e-21
-5e-05
2.89109e-21
-5e-05
1.23014e-21
-5e-05
-1.07161e-21
-5e-05
-4.67164e-21
-5e-05
-2.76928e-21
-5e-05
-3.16209e-22
-5e-05
-3.66875e-21
-5e-05
-3.79973e-21
-5e-05
-6.65432e-21
-5e-05
-3.86881e-21
-5e-05
-3.24721e-21
-5e-05
1.56948e-21
-5e-05
6.77314e-23
9.24541e-22
-5e-05
4.66244e-19
-5e-05
-9.98491e-20
-5e-05
2.43595e-20
-5e-05
-3.23204e-21
-5e-05
2.8784e-21
-5e-05
6.95248e-22
-5e-05
-8.7224e-22
-5e-05
-7.84172e-22
-5e-05
-4.21714e-21
-5e-05
-7.4205e-21
-5e-05
-2.39249e-21
-5e-05
1.91168e-21
-5e-05
6.76359e-22
-5e-05
-2.89586e-22
-5e-05
-5.77507e-21
-5e-05
-5.87424e-21
-5e-05
-5.05669e-21
-5e-05
1.91959e-21
-5e-05
2.37725e-21
4.45744e-22
-5e-05
-1.64009e-19
-5e-05
3.75075e-20
-5e-05
-1.06011e-20
-5e-05
2.60022e-21
-5e-05
-7.84854e-23
-5e-05
-4.17046e-21
-5e-05
-8.87012e-21
-5e-05
-7.56949e-21
-5e-05
-5.18481e-21
-5e-05
-2.66667e-21
-5e-05
1.34892e-21
-5e-05
5.32064e-22
-5e-05
9.68648e-22
-5e-05
-1.38568e-21
-5e-05
-6.49158e-21
-5e-05
-6.89417e-21
-5e-05
-1.87527e-21
-5e-05
8.07e-22
-5e-05
1.23033e-21
1.20511e-21
-5e-05
-5.22008e-19
-5e-05
1.09565e-19
-5e-05
-2.59882e-20
-5e-05
1.83993e-21
-5e-05
-2.82409e-21
-5e-05
-3.72207e-21
-5e-05
-4.50483e-21
-5e-05
-4.41339e-21
-5e-05
-3.60201e-21
-5e-05
-1.38275e-21
-5e-05
-2.58e-21
-5e-05
-5.00197e-21
-5e-05
-3.58215e-21
-5e-05
-5.38512e-21
-5e-05
-6.72711e-21
-5e-05
-4.4929e-21
-5e-05
3.97607e-23
-5e-05
-2.39843e-21
-5e-05
-2.89142e-21
6.23189e-22
-5e-05
1.11243e-18
-5e-05
-2.28136e-19
-5e-05
4.80936e-20
-5e-05
-1.64701e-20
-5e-05
-2.67612e-21
-5e-05
-4.81205e-21
-5e-05
-1.44698e-22
-5e-05
-2.77556e-21
-5e-05
-4.86067e-21
-5e-05
-2.80163e-21
-5e-05
-6.29673e-21
-5e-05
-6.24217e-21
-5e-05
-2.98101e-21
-5e-05
-2.39139e-21
-5e-05
-1.7399e-21
-5e-05
-1.00656e-21
-5e-05
-1.14395e-21
-5e-05
-4.43067e-21
-5e-05
-3.41896e-21
7.34597e-23
-5e-05
-6.14389e-20
-5e-05
9.19163e-21
-5e-05
-8.86945e-21
-5e-05
-2.96804e-21
-5e-05
-2.84351e-21
-5e-05
-2.66728e-21
-5e-05
-1.4778e-21
-5e-05
-5.56471e-21
-5e-05
-6.08892e-21
-5e-05
-3.53483e-21
-5e-05
-6.33005e-21
-5e-05
-6.02602e-21
-5e-05
-2.25422e-21
-5e-05
-6.11918e-22
-5e-05
1.4386e-21
-5e-05
2.07374e-21
-5e-05
-3.38658e-21
-5e-05
-8.16002e-21
-5e-05
-4.13287e-21
-3.3517e-22
-5e-05
-9.1827e-19
-5e-05
1.65788e-19
-5e-05
-4.62381e-20
-5e-05
2.47925e-21
-5e-05
-6.04097e-21
-5e-05
-3.4506e-21
-5e-05
-3.57974e-21
-5e-05
-4.57318e-21
-5e-05
-2.46733e-21
-5e-05
4.7701e-22
-5e-05
-8.24983e-22
-5e-05
-3.40429e-21
-5e-05
-3.54417e-21
-5e-05
-3.50881e-21
-5e-05
-4.64706e-22
-5e-05
4.84897e-22
-5e-05
-4.48981e-21
-5e-05
-8.44445e-21
-5e-05
-4.00844e-21
1.26264e-22
-5e-05
-5e-05
-5e-05
-5e-05
-5e-05
-5e-05
-5e-05
-5e-05
-5e-05
-5e-05
-5e-05
-5e-05
-5e-05
-5e-05
-5e-05
-5e-05
-5e-05
-5e-05
-5e-05
)
;

boundaryField
{
    movingWall
    {
        type            calculated;
        value           uniform -0;
    }
    fixedWalls
    {
        type            calculated;
        value           nonuniform List<scalar> 
60
(
5e-05
5e-05
5e-05
5e-05
5e-05
5e-05
5e-05
5e-05
5e-05
5e-05
5e-05
5e-05
5e-05
5e-05
5e-05
5e-05
5e-05
5e-05
5e-05
5e-05
-5e-05
-5e-05
-5e-05
-5e-05
-5e-05
-5e-05
-5e-05
-5e-05
-5e-05
-5e-05
-5e-05
-5e-05
-5e-05
-5e-05
-5e-05
-5e-05
-5e-05
-5e-05
-5e-05
-5e-05
0
0
0
0
0
0
0
0
0
0
0
0
0
0
0
0
0
0
0
0
)
;
    }
    frontAndBack
    {
        type            empty;
    }
}


// ************************************************************************* //
