/*--------------------------------*- C++ -*----------------------------------*\
| =========                 |                                                 |
| \\      /  F ield         | OpenFOAM: The Open Source CFD Toolbox           |
|  \\    /   O peration     | Version:  2506                                  |
|   \\  /    A nd           | Website:  www.openfoam.com                      |
|    \\/     M anipulation  |                                                 |
\*---------------------------------------------------------------------------*/
FoamFile
{
    version     2.0;
    format      ascii;
    arch        "LSB;label=32;scalar=64";
    class       volTensorField;
    location    "8";
    object      gradU;
}
// * * * * * * * * * * * * * * * * * * * * * * * * * * * * * * * * * * * * * //

dimensions      [0 0 -1 0 0 0 0];

internalField   nonuniform List<tensor> 
400
(
(5.69206e-13 4.66369e-12 0 -8.13152e-14 5.92092e-12 0 0 0 0)
(-3.79471e-13 -5.51829e-12 0 0 -1.13041e-12 0 0 0 0)
(5.42101e-14 1.07552e-12 0 0 2.7645e-13 0 0 0 0)
(-8.13152e-14 -2.55387e-13 0 8.13152e-14 -3.69889e-14 0 0 0 0)
(0 5.39955e-14 0 2.71051e-14 2.3793e-14 0 0 0 0)
(-2.71051e-14 -2.47995e-15 0 2.71051e-14 2.09516e-14 0 0 0 0)
(-5.42101e-14 3.40391e-15 0 2.71051e-14 2.3718e-14 0 0 0 0)
(0 -2.9586e-16 0 0 1.88186e-14 0 0 0 0)
(-2.71051e-14 -1.96022e-15 0 0 1.45697e-14 0 0 0 0)
(0 -8.49128e-15 0 0 6.41e-15 0 0 0 0)
(-2.71051e-14 -6.37241e-15 0 0 -4.09593e-17 0 0 0 0)
(2.71051e-14 3.06544e-15 0 5.42101e-14 -6.26104e-17 0 0 0 0)
(0 8.5383e-15 0 0 6.51858e-15 0 0 0 0)
(-2.71051e-14 -2.8885e-15 0 5.42101e-14 2.57592e-14 0 0 0 0)
(-2.71051e-14 -1.39815e-14 0 0 1.27738e-14 0 0 0 0)
(0 -6.71217e-16 0 0 4.65901e-15 0 0 0 0)
(0 1.1473e-14 0 0 9.85343e-15 0 0 0 0)
(-5.42101e-14 -3.12911e-15 0 -8.13152e-14 5.47885e-15 0 0 0 0)
(5.42101e-14 -1.14197e-14 0 0 -1.76835e-14 0 0 0 0)
(0 5.68208e-15 0 0 -1.27862e-14 0 0 0 0)
(-5.96311e-13 1.26828e-13 0 -5.42101e-14 -9.85092e-12 0 0 0 0)
(4.33681e-13 -1.2618e-13 0 -2.71051e-14 1.90031e-12 0 0 0 0)
(0 1.78949e-14 0 -1.35525e-13 -4.54177e-13 0 0 0 0)
(1.0842e-13 2.72994e-15 0 -2.71051e-14 9.33692e-14 0 0 0 0)
(-5.42101e-14 3.94508e-15 0 -8.13152e-14 -5.99276e-15 0 0 0 0)
(0 2.40489e-15 0 -8.13152e-14 -1.48789e-15 0 0 0 0)
(5.42101e-14 -5.53691e-15 0 -2.71051e-14 -7.38567e-15 0 0 0 0)
(0 -8.8524e-15 0 -5.42101e-14 -3.85797e-15 0 0 0 0)
(0 -1.04484e-14 0 -5.42101e-14 -1.24895e-14 0 0 0 0)
(8.13152e-14 -6.11938e-15 0 -5.42101e-14 -1.18959e-14 0 0 0 0)
(0 -1.00201e-16 0 -5.42101e-14 -4.63726e-15 0 0 0 0)
(0 3.4941e-15 0 -1.0842e-13 -1.38678e-14 0 0 0 0)
(0 1.72835e-14 0 -5.42101e-14 -1.62015e-14 0 0 0 0)
(0 9.14377e-15 0 -5.42101e-14 -6.30958e-15 0 0 0 0)
(0 -7.11867e-15 0 0 1.7938e-14 0 0 0 0)
(-5.42101e-14 -2.2492e-15 0 0 2.04681e-14 0 0 0 0)
(-2.71051e-14 -1.06532e-14 0 0 4.45037e-15 0 0 0 0)
(2.71051e-14 -2.44078e-14 0 2.71051e-14 -2.30181e-14 0 0 0 0)
(5.42101e-14 -6.84535e-15 0 2.71051e-14 -2.02517e-14 0 0 0 0)
(0 2.47876e-14 0 0 -5.91784e-15 0 0 0 0)
(4.87891e-13 -3.28692e-12 0 3.52366e-13 2.46742e-12 0 0 0 0)
(-4.60786e-13 3.87845e-12 0 1.0842e-13 -5.37601e-13 0 0 0 0)
(2.71051e-14 -7.31424e-13 0 1.89735e-13 1.21474e-13 0 0 0 0)
(0 1.92798e-13 0 2.71051e-14 -3.11303e-14 0 0 0 0)
(0 -4.08616e-14 0 1.6263e-13 9.54194e-15 0 0 0 0)
(0 -3.87286e-15 0 1.35525e-13 1.97008e-15 0 0 0 0)
(0 1.03382e-15 0 5.42101e-14 1.67608e-14 0 0 0 0)
(-2.71051e-14 -5.39965e-15 0 1.0842e-13 1.7197e-14 0 0 0 0)
(-2.71051e-14 -9.99813e-15 0 1.0842e-13 8.8307e-15 0 0 0 0)
(-8.13152e-14 -6.39072e-16 0 5.42101e-14 7.78686e-15 0 0 0 0)
(-5.42101e-14 -8.34432e-15 0 5.42101e-14 8.59678e-15 0 0 0 0)
(5.42101e-14 -8.49885e-15 0 0 4.83742e-15 0 0 0 0)
(0 1.60965e-14 0 -2.71051e-14 -1.90962e-15 0 0 0 0)
(8.13152e-14 3.1251e-14 0 -5.42101e-14 -2.72462e-14 0 0 0 0)
(0 1.27962e-14 0 2.71051e-14 -1.00518e-14 0 0 0 0)
(0 -1.41588e-14 0 0 -4.92935e-15 0 0 0 0)
(0 -3.20132e-14 0 2.71051e-14 -8.91625e-15 0 0 0 0)
(2.71051e-14 -2.78312e-14 0 5.42101e-14 -8.20144e-15 0 0 0 0)
(-2.71051e-14 5.68051e-15 0 0 4.55182e-15 0 0 0 0)
(0 3.18516e-14 0 0 1.43737e-15 0 0 0 0)
(-2.1684e-13 2.05665e-12 0 -2.71051e-13 2.9068e-12 0 0 0 0)
(3.79471e-13 -2.47213e-12 0 -1.0842e-13 -5.29484e-13 0 0 0 0)
(-1.0842e-13 5.24365e-13 0 -5.42101e-14 1.18307e-13 0 0 0 0)
(0 -1.09202e-13 0 -2.71051e-14 -4.55711e-14 0 0 0 0)
(5.42101e-14 3.70455e-14 0 -2.71051e-14 -1.40644e-14 0 0 0 0)
(0 9.62371e-15 0 -2.71051e-14 9.1038e-15 0 0 0 0)
(-5.42101e-14 9.69e-15 0 0 1.58265e-14 0 0 0 0)
(-2.71051e-14 -1.67825e-14 0 0 1.31332e-14 0 0 0 0)
(0 -1.98585e-14 0 0 2.09721e-14 0 0 0 0)
(0 -6.3533e-15 0 5.42101e-14 1.55391e-14 0 0 0 0)
(0 -3.04964e-15 0 5.42101e-14 1.31521e-14 0 0 0 0)
(-5.42101e-14 -7.0123e-15 0 8.13152e-14 2.4316e-14 0 0 0 0)
(-5.42101e-14 -1.48001e-14 0 8.13152e-14 1.25198e-14 0 0 0 0)
(0 1.00163e-15 0 0 -1.98188e-14 0 0 0 0)
(8.13152e-14 1.51981e-14 0 2.71051e-14 -3.80777e-14 0 0 0 0)
(0 -1.11369e-15 0 2.71051e-14 -1.51116e-14 0 0 0 0)
(0 -1.39253e-14 0 2.71051e-14 2.99842e-15 0 0 0 0)
(0 -1.09397e-14 0 5.42101e-14 2.31428e-14 0 0 0 0)
(-2.71051e-14 2.79346e-15 0 0 2.58178e-14 0 0 0 0)
(0 1.87985e-14 0 0 1.21544e-14 0 0 0 0)
(8.13152e-14 -9.09599e-13 0 1.0842e-13 -3.8122e-12 0 0 0 0)
(-3.25261e-13 1.08996e-12 0 -8.13152e-14 7.53457e-13 0 0 0 0)
(1.35525e-13 -2.47511e-13 0 0 -2.16294e-13 0 0 0 0)
(2.71051e-14 6.04265e-14 0 -2.71051e-14 1.14439e-14 0 0 0 0)
(5.42101e-14 1.38133e-14 0 -2.71051e-14 -3.29115e-14 0 0 0 0)
(0 2.6018e-14 0 -5.42101e-14 -6.7087e-15 0 0 0 0)
(5.42101e-14 5.06322e-15 0 0 -1.74534e-14 0 0 0 0)
(0 -2.53975e-16 0 0 -1.18857e-14 0 0 0 0)
(0 -7.59219e-15 0 0 6.83514e-15 0 0 0 0)
(-2.71051e-14 -8.45906e-15 0 -2.71051e-14 1.59755e-14 0 0 0 0)
(-2.71051e-14 4.32506e-16 0 -2.71051e-14 1.37894e-14 0 0 0 0)
(5.42101e-14 -9.13118e-15 0 2.71051e-14 5.26637e-15 0 0 0 0)
(0 -2.80383e-14 0 5.42101e-14 -3.42949e-15 0 0 0 0)
(0 -1.93465e-14 0 1.0842e-13 8.22059e-15 0 0 0 0)
(0 1.75035e-14 0 0 -2.25075e-15 0 0 0 0)
(0 2.69173e-14 0 -2.71051e-14 -4.78236e-15 0 0 0 0)
(2.71051e-14 6.24123e-15 0 0 2.65002e-15 0 0 0 0)
(-2.71051e-14 -5.01182e-15 0 0 2.23543e-14 0 0 0 0)
(-2.71051e-14 -5.30788e-15 0 0 2.1324e-14 0 0 0 0)
(-2.71051e-14 -6.12061e-15 0 0 1.16359e-14 0 0 0 0)
(-1.35525e-13 -1.0021e-12 0 -2.43945e-13 3.57671e-12 0 0 0 0)
(2.1684e-13 1.12378e-12 0 1.35525e-13 -7.29064e-13 0 0 0 0)
(-2.71051e-14 -2.17648e-13 0 -5.42101e-14 1.59106e-13 0 0 0 0)
(0 7.41798e-14 0 -5.42101e-14 -2.99849e-14 0 0 0 0)
(0 1.88929e-14 0 -8.13152e-14 1.50751e-14 0 0 0 0)
(0 2.50818e-14 0 -8.13152e-14 4.63852e-15 0 0 0 0)
(0 4.51304e-15 0 -5.42101e-14 2.66006e-15 0 0 0 0)
(0 7.50609e-15 0 -1.0842e-13 -5.74515e-15 0 0 0 0)
(0 8.00258e-15 0 -1.0842e-13 -1.24719e-14 0 0 0 0)
(-2.71051e-14 6.00953e-16 0 -2.71051e-14 -4.13058e-15 0 0 0 0)
(2.71051e-14 -1.37587e-14 0 -2.71051e-14 -1.89755e-15 0 0 0 0)
(0 -2.42312e-14 0 0 -4.79118e-15 0 0 0 0)
(-2.71051e-14 -1.18459e-14 0 0 7.89166e-15 0 0 0 0)
(0 2.18037e-15 0 0 2.98065e-14 0 0 0 0)
(-8.13152e-14 2.19518e-15 0 -2.71051e-14 3.32002e-14 0 0 0 0)
(0 3.78709e-15 0 0 6.85914e-15 0 0 0 0)
(5.42101e-14 1.32114e-14 0 -2.71051e-14 -1.23896e-14 0 0 0 0)
(0 7.73426e-15 0 -5.42101e-14 -5.63951e-15 0 0 0 0)
(0 -7.92492e-15 0 0 4.83116e-15 0 0 0 0)
(0 -1.41615e-14 0 2.71051e-14 5.36077e-15 0 0 0 0)
(5.42101e-14 1.93805e-12 0 -2.98156e-13 5.98134e-13 0 0 0 0)
(-1.0842e-13 -2.32765e-12 0 -1.0842e-13 -1.185e-13 0 0 0 0)
(-8.13152e-14 4.51568e-13 0 -1.35525e-13 5.8644e-14 0 0 0 0)
(0 -8.36047e-14 0 -8.13152e-14 1.04968e-14 0 0 0 0)
(-5.42101e-14 4.84367e-14 0 -1.35525e-13 1.55057e-14 0 0 0 0)
(0 1.36029e-14 0 -1.0842e-13 -1.5083e-14 0 0 0 0)
(5.42101e-14 -5.32046e-15 0 -1.35525e-13 -1.98656e-14 0 0 0 0)
(0 -1.53859e-14 0 -2.71051e-14 -1.66792e-14 0 0 0 0)
(5.42101e-14 -5.97762e-15 0 -2.71051e-14 -1.75324e-14 0 0 0 0)
(2.71051e-14 2.11529e-15 0 -8.13152e-14 -2.5779e-14 0 0 0 0)
(5.42101e-14 -2.28094e-16 0 -8.13152e-14 -3.27263e-14 0 0 0 0)
(5.42101e-14 6.58031e-16 0 -5.42101e-14 -2.10248e-14 0 0 0 0)
(0 6.55935e-15 0 -5.42101e-14 8.97873e-16 0 0 0 0)
(0 5.96203e-15 0 -5.42101e-14 1.57412e-15 0 0 0 0)
(0 -5.44385e-15 0 -8.13152e-14 1.22438e-15 0 0 0 0)
(0 -1.86725e-14 0 0 5.29679e-15 0 0 0 0)
(-2.71051e-14 -6.25742e-15 0 2.71051e-14 3.65271e-15 0 0 0 0)
(0 1.22089e-14 0 -5.42101e-14 -3.15918e-15 0 0 0 0)
(2.71051e-14 5.6924e-15 0 0 4.20486e-15 0 0 0 0)
(-5.42101e-14 -1.63125e-14 0 2.71051e-14 9.45629e-15 0 0 0 0)
(-5.69206e-13 -5.22465e-13 0 4.06576e-13 -4.87639e-12 0 0 0 0)
(3.79471e-13 5.84293e-13 0 5.42101e-14 9.72969e-13 0 0 0 0)
(-2.71051e-14 -8.8651e-14 0 1.35525e-13 -2.2082e-13 0 0 0 0)
(2.71051e-14 3.10416e-14 0 8.13152e-14 6.04767e-14 0 0 0 0)
(0 -6.6869e-15 0 1.35525e-13 -8.85138e-15 0 0 0 0)
(5.42101e-14 -1.02895e-14 0 1.35525e-13 -2.62971e-14 0 0 0 0)
(5.42101e-14 2.91681e-15 0 8.13152e-14 -3.98953e-14 0 0 0 0)
(0 9.83935e-15 0 2.71051e-14 -2.39056e-14 0 0 0 0)
(0 -1.09715e-15 0 8.13152e-14 -6.28219e-15 0 0 0 0)
(0 -1.45929e-14 0 2.71051e-14 -1.21598e-14 0 0 0 0)
(0 -9.00454e-15 0 8.13152e-14 -2.01564e-14 0 0 0 0)
(2.71051e-14 9.39298e-15 0 0 -8.9408e-15 0 0 0 0)
(0 1.0753e-14 0 2.71051e-14 -3.86028e-15 0 0 0 0)
(-2.71051e-14 2.50688e-15 0 0 9.66279e-16 0 0 0 0)
(0 5.91785e-15 0 0 -2.749e-15 0 0 0 0)
(8.13152e-14 6.21541e-15 0 -8.13152e-14 -1.06438e-14 0 0 0 0)
(0 4.75541e-15 0 -1.0842e-13 1.78584e-15 0 0 0 0)
(0 8.28642e-15 0 0 -1.4788e-15 0 0 0 0)
(2.71051e-14 4.69055e-15 0 -2.71051e-14 -4.45757e-15 0 0 0 0)
(-2.71051e-14 -2.78226e-14 0 -2.71051e-14 -1.89858e-15 0 0 0 0)
(4.60786e-13 -1.96537e-12 0 0 3.03708e-12 0 0 0 0)
(-3.25261e-13 2.32792e-12 0 1.89735e-13 -6.01719e-13 0 0 0 0)
(2.71051e-14 -4.60924e-13 0 1.6263e-13 1.44916e-13 0 0 0 0)
(-8.13152e-14 1.28364e-13 0 1.35525e-13 -2.42499e-14 0 0 0 0)
(0 -3.83371e-14 0 1.35525e-13 8.13047e-15 0 0 0 0)
(-2.71051e-14 -1.7441e-14 0 1.0842e-13 2.73352e-15 0 0 0 0)
(0 -2.92894e-15 0 8.13152e-14 4.09636e-15 0 0 0 0)
(0 1.82272e-14 0 8.13152e-14 5.93581e-15 0 0 0 0)
(0 5.76813e-15 0 0 -1.16992e-15 0 0 0 0)
(0 -1.17589e-14 0 8.13152e-14 1.26583e-15 0 0 0 0)
(0 2.99092e-15 0 2.71051e-14 5.00735e-15 0 0 0 0)
(0 1.69541e-14 0 0 1.28329e-14 0 0 0 0)
(0 1.64664e-14 0 0 1.88591e-14 0 0 0 0)
(-2.71051e-14 7.0733e-15 0 0 2.85352e-14 0 0 0 0)
(-8.13152e-14 -1.7054e-14 0 5.42101e-14 2.55593e-14 0 0 0 0)
(-2.71051e-14 -1.41376e-14 0 8.13152e-14 6.16528e-15 0 0 0 0)
(0 2.90763e-15 0 0 -8.92523e-16 0 0 0 0)
(2.71051e-14 5.96553e-15 0 0 -6.05165e-15 0 0 0 0)
(0 5.27262e-15 0 -5.42101e-14 -1.33274e-14 0 0 0 0)
(5.42101e-14 -9.95639e-15 0 -2.71051e-14 -1.63487e-14 0 0 0 0)
(-4.06576e-13 1.91289e-12 0 -1.35525e-13 1.64583e-12 0 0 0 0)
(5.42101e-13 -2.30787e-12 0 -1.35525e-13 -3.48063e-13 0 0 0 0)
(-8.13152e-14 4.88818e-13 0 -1.0842e-13 1.08465e-13 0 0 0 0)
(0 -1.05744e-13 0 -8.13152e-14 -2.26037e-14 0 0 0 0)
(2.71051e-14 2.02966e-14 0 -8.13152e-14 5.41846e-15 0 0 0 0)
(-2.71051e-14 -1.43237e-14 0 -5.42101e-14 7.736e-15 0 0 0 0)
(-2.71051e-14 6.11909e-15 0 -8.13152e-14 2.62446e-14 0 0 0 0)
(-8.13152e-14 4.57307e-15 0 -8.13152e-14 2.30731e-14 0 0 0 0)
(5.42101e-14 -5.76713e-15 0 -8.13152e-14 2.04946e-15 0 0 0 0)
(0 -8.41567e-15 0 -8.13152e-14 8.63208e-15 0 0 0 0)
(-5.42101e-14 2.56256e-15 0 -1.0842e-13 1.49491e-14 0 0 0 0)
(5.42101e-14 2.32448e-14 0 -5.42101e-14 1.07145e-15 0 0 0 0)
(-5.42101e-14 2.64553e-14 0 -8.13152e-14 1.46582e-16 0 0 0 0)
(0 9.20706e-15 0 -8.13152e-14 -1.7292e-14 0 0 0 0)
(1.0842e-13 -1.6452e-14 0 -5.42101e-14 -1.95891e-14 0 0 0 0)
(0 -2.02364e-14 0 0 -1.45466e-15 0 0 0 0)
(0 -7.46153e-15 0 5.42101e-14 3.9433e-15 0 0 0 0)
(-5.42101e-14 -4.14844e-15 0 5.42101e-14 3.31394e-15 0 0 0 0)
(0 -5.60647e-15 0 5.42101e-14 3.73411e-17 0 0 0 0)
(0 1.85342e-15 0 2.71051e-14 -2.11779e-16 0 0 0 0)
(2.43945e-13 -6.67604e-13 0 1.13841e-12 -2.40808e-12 0 0 0 0)
(-2.98156e-13 7.90555e-13 0 -1.89735e-13 6.0383e-13 0 0 0 0)
(0 -1.35465e-13 0 2.71051e-14 -1.06047e-13 0 0 0 0)
(-2.71051e-14 2.5317e-14 0 -8.13152e-14 4.6776e-14 0 0 0 0)
(0 -7.99732e-15 0 -5.42101e-14 -1.08848e-14 0 0 0 0)
(0 3.38514e-15 0 -5.42101e-14 6.94856e-15 0 0 0 0)
(-5.42101e-14 1.24081e-14 0 -2.71051e-14 1.08466e-14 0 0 0 0)
(5.42101e-14 -5.96798e-15 0 0 -4.99955e-15 0 0 0 0)
(0 -8.67288e-15 0 2.71051e-14 -3.38759e-15 0 0 0 0)
(0 1.14078e-15 0 0 8.25875e-15 0 0 0 0)
(0 -4.56971e-15 0 0 1.54906e-14 0 0 0 0)
(0 2.15157e-15 0 0 -2.19892e-15 0 0 0 0)
(0 -1.897e-15 0 0 -1.85771e-14 0 0 0 0)
(0 -1.26624e-14 0 2.71051e-14 -2.85813e-14 0 0 0 0)
(0 -1.21665e-15 0 8.13152e-14 -2.54744e-14 0 0 0 0)
(0 9.39473e-15 0 0 -1.59158e-14 0 0 0 0)
(2.71051e-14 7.67623e-15 0 0 -4.41423e-15 0 0 0 0)
(5.42101e-14 2.05957e-15 0 0 -1.40667e-15 0 0 0 0)
(2.71051e-14 1.7469e-15 0 0 5.03993e-15 0 0 0 0)
(-2.71051e-14 -9.78195e-15 0 0 1.63992e-14 0 0 0 0)
(5.42101e-13 1.08644e-13 0 -1.95156e-12 7.46128e-13 0 0 0 0)
(-6.23416e-13 -5.83538e-15 0 2.71051e-13 -1.60207e-13 0 0 0 0)
(2.71051e-14 -6.8236e-14 0 -2.1684e-13 4.89007e-14 0 0 0 0)
(-2.71051e-14 -1.0582e-14 0 0 -5.48137e-15 0 0 0 0)
(8.13152e-14 -1.95309e-14 0 -2.71051e-14 -1.71076e-14 0 0 0 0)
(0 7.40781e-15 0 -2.71051e-14 -2.47185e-15 0 0 0 0)
(0 -5.82902e-15 0 0 -8.47792e-15 0 0 0 0)
(0 -9.66115e-15 0 -2.71051e-14 -1.66749e-14 0 0 0 0)
(0 7.49117e-15 0 -2.71051e-14 -1.38359e-15 0 0 0 0)
(0 1.04625e-14 0 -2.71051e-14 -1.22626e-15 0 0 0 0)
(0 -7.89511e-15 0 8.13152e-14 -4.94669e-16 0 0 0 0)
(-5.42101e-14 -1.08229e-14 0 0 -6.8488e-16 0 0 0 0)
(5.42101e-14 7.29057e-17 0 -2.71051e-14 -1.58101e-14 0 0 0 0)
(2.71051e-14 2.30978e-15 0 0 -6.8235e-15 0 0 0 0)
(2.71051e-14 -3.78655e-15 0 -8.13152e-14 -4.79145e-15 0 0 0 0)
(0 8.23691e-16 0 0 -2.84186e-15 0 0 0 0)
(0 7.04759e-15 0 -5.42101e-14 -2.87501e-15 0 0 0 0)
(-5.42101e-14 5.30572e-15 0 0 1.20378e-15 0 0 0 0)
(0 1.21994e-14 0 -5.42101e-14 -4.72767e-15 0 0 0 0)
(0 -1.95857e-14 0 -2.71051e-14 -4.86483e-16 0 0 0 0)
(-1.38236e-12 -8.16836e-14 0 1.89735e-13 -1.09947e-12 0 0 0 0)
(1.43657e-12 9.33279e-14 0 0 1.11631e-13 0 0 0 0)
(-2.43945e-13 1.92608e-14 0 1.0842e-13 -4.41016e-14 0 0 0 0)
(1.0842e-13 -4.06913e-14 0 8.13152e-14 -1.15731e-14 0 0 0 0)
(-5.42101e-14 -4.98779e-15 0 2.71051e-14 6.12237e-15 0 0 0 0)
(-5.42101e-14 1.20148e-14 0 2.71051e-14 7.76632e-15 0 0 0 0)
(0 -1.79488e-15 0 2.71051e-14 4.48949e-15 0 0 0 0)
(5.42101e-14 1.12635e-15 0 2.71051e-14 1.05108e-14 0 0 0 0)
(-5.42101e-14 6.77574e-15 0 2.71051e-14 -2.82652e-15 0 0 0 0)
(5.42101e-14 2.02971e-15 0 2.71051e-14 -2.73632e-14 0 0 0 0)
(8.13152e-14 -4.02834e-15 0 0 -2.21094e-14 0 0 0 0)
(-2.71051e-14 -1.31638e-14 0 5.42101e-14 1.98199e-15 0 0 0 0)
(-5.42101e-14 -8.03562e-15 0 8.13152e-14 -1.72057e-15 0 0 0 0)
(0 -1.64374e-15 0 5.42101e-14 -3.98939e-15 0 0 0 0)
(5.42101e-14 2.76499e-15 0 5.42101e-14 -1.43289e-14 0 0 0 0)
(-5.42101e-14 1.13112e-14 0 0 -3.24415e-15 0 0 0 0)
(5.42101e-14 1.17219e-14 0 0 -1.28353e-14 0 0 0 0)
(0 2.06904e-16 0 0 -2.60414e-16 0 0 0 0)
(2.71051e-14 5.66364e-17 0 5.42101e-14 -5.08818e-15 0 0 0 0)
(5.42101e-14 -4.56779e-15 0 2.71051e-14 -1.50962e-14 0 0 0 0)
(6.77626e-13 -8.79197e-13 0 1.76183e-12 3.01301e-12 0 0 0 0)
(-6.77626e-13 1.04954e-12 0 -4.06576e-13 -5.86555e-13 0 0 0 0)
(1.35525e-13 -1.9144e-13 0 1.35525e-13 1.02614e-13 0 0 0 0)
(-5.42101e-14 3.9642e-14 0 -5.42101e-14 -2.79073e-14 0 0 0 0)
(-2.71051e-14 -1.91409e-16 0 5.42101e-14 1.77389e-14 0 0 0 0)
(0 5.77492e-15 0 0 -7.01894e-15 0 0 0 0)
(2.71051e-14 -3.08449e-15 0 5.42101e-14 -1.50533e-14 0 0 0 0)
(-2.71051e-14 -1.69772e-14 0 8.13152e-14 -8.05724e-15 0 0 0 0)
(0 -3.03828e-14 0 1.0842e-13 -1.25821e-14 0 0 0 0)
(0 -8.82037e-15 0 1.0842e-13 -1.09955e-14 0 0 0 0)
(0 2.145e-14 0 2.71051e-14 1.50715e-15 0 0 0 0)
(0 9.56593e-15 0 5.42101e-14 8.91155e-15 0 0 0 0)
(2.71051e-14 -5.89847e-15 0 2.71051e-14 1.73804e-14 0 0 0 0)
(0 -1.02986e-14 0 2.71051e-14 1.40406e-14 0 0 0 0)
(-2.71051e-14 -3.04131e-15 0 2.71051e-14 3.517e-15 0 0 0 0)
(0 2.31729e-15 0 2.71051e-14 -8.02169e-15 0 0 0 0)
(0 1.00313e-14 0 5.42101e-14 -7.23792e-15 0 0 0 0)
(0 1.30529e-14 0 2.71051e-14 1.40042e-15 0 0 0 0)
(-2.71051e-14 -2.63641e-15 0 2.71051e-14 9.23807e-15 0 0 0 0)
(-2.71051e-14 5.98704e-16 0 0 -1.91519e-15 0 0 0 0)
(2.71051e-14 2.34478e-12 0 -1.19262e-12 -2.52101e-12 0 0 0 0)
(-2.1684e-13 -2.81707e-12 0 2.71051e-13 5.49426e-13 0 0 0 0)
(1.0842e-13 5.77908e-13 0 -1.35525e-13 -1.39842e-13 0 0 0 0)
(-5.42101e-14 -1.25567e-13 0 0 2.3329e-14 0 0 0 0)
(0 1.59006e-14 0 -5.42101e-14 -1.18275e-14 0 0 0 0)
(5.42101e-14 -2.07775e-14 0 0 -1.94628e-14 0 0 0 0)
(2.71051e-14 -2.83319e-15 0 -5.42101e-14 -3.19915e-14 0 0 0 0)
(5.42101e-14 3.59757e-15 0 -8.13152e-14 -2.71413e-14 0 0 0 0)
(5.42101e-14 3.83751e-15 0 -5.42101e-14 -3.87071e-15 0 0 0 0)
(-2.71051e-14 1.6119e-14 0 -1.0842e-13 1.90154e-14 0 0 0 0)
(-2.71051e-14 1.58787e-14 0 -8.13152e-14 1.49656e-14 0 0 0 0)
(0 2.70946e-15 0 -1.0842e-13 -5.51846e-15 0 0 0 0)
(-5.42101e-14 -2.90658e-15 0 -1.0842e-13 1.16916e-15 0 0 0 0)
(0 -1.55072e-14 0 -8.13152e-14 -4.38437e-15 0 0 0 0)
(0 -1.92973e-14 0 -2.71051e-14 -2.86602e-15 0 0 0 0)
(5.42101e-14 5.56249e-16 0 -2.71051e-14 -4.07973e-15 0 0 0 0)
(0 2.1144e-14 0 0 1.27257e-14 0 0 0 0)
(0 1.66829e-14 0 -2.71051e-14 -4.45036e-15 0 0 0 0)
(2.71051e-14 -3.25898e-15 0 -2.71051e-14 -4.58769e-15 0 0 0 0)
(-2.71051e-14 -1.18907e-14 0 -2.71051e-14 3.03748e-15 0 0 0 0)
(-2.71051e-13 -2.85078e-12 0 -2.71051e-13 -1.432e-12 0 0 0 0)
(3.52366e-13 3.4307e-12 0 1.35525e-13 2.88231e-13 0 0 0 0)
(-8.13152e-14 -7.17538e-13 0 2.71051e-14 -6.15482e-14 0 0 0 0)
(5.42101e-14 1.67657e-13 0 5.42101e-14 -3.04118e-15 0 0 0 0)
(-2.71051e-14 -4.29833e-14 0 0 -1.09824e-14 0 0 0 0)
(-2.71051e-14 -1.43891e-14 0 8.13152e-14 1.79355e-15 0 0 0 0)
(0 -1.07629e-14 0 5.42101e-14 1.74612e-14 0 0 0 0)
(-5.42101e-14 1.11437e-14 0 5.42101e-14 1.26244e-14 0 0 0 0)
(-2.71051e-14 1.57738e-14 0 0 6.3312e-15 0 0 0 0)
(-5.42101e-14 1.0016e-14 0 0 5.13568e-15 0 0 0 0)
(5.42101e-14 -3.08377e-15 0 5.42101e-14 -1.57157e-14 0 0 0 0)
(0 -4.23053e-15 0 5.42101e-14 -2.21361e-14 0 0 0 0)
(0 -4.76439e-15 0 8.13152e-14 -1.82032e-14 0 0 0 0)
(8.13152e-14 -1.43337e-14 0 5.42101e-14 -1.59978e-14 0 0 0 0)
(5.42101e-14 -2.73667e-15 0 2.71051e-14 -9.42104e-16 0 0 0 0)
(-5.42101e-14 1.7909e-14 0 0 9.60506e-15 0 0 0 0)
(-5.42101e-14 9.66069e-15 0 0 7.66012e-15 0 0 0 0)
(5.42101e-14 -4.26051e-15 0 0 -1.28217e-14 0 0 0 0)
(0 4.85143e-15 0 0 -1.6487e-14 0 0 0 0)
(0 2.14892e-15 0 2.71051e-14 -2.3277e-15 0 0 0 0)
(-8.13152e-14 1.20101e-12 0 2.71051e-13 6.53775e-12 0 0 0 0)
(8.13152e-14 -1.44662e-12 0 -8.13152e-14 -1.35081e-12 0 0 0 0)
(-5.42101e-14 2.86637e-13 0 0 2.96327e-13 0 0 0 0)
(-8.13152e-14 -7.50007e-14 0 0 -7.324e-14 0 0 0 0)
(8.13152e-14 2.07353e-14 0 5.42101e-14 5.91893e-16 0 0 0 0)
(5.42101e-14 7.66614e-15 0 0 -4.35991e-15 0 0 0 0)
(0 7.99766e-15 0 0 1.74405e-14 0 0 0 0)
(2.71051e-14 -7.53241e-15 0 0 6.55133e-15 0 0 0 0)
(2.71051e-14 -3.6512e-15 0 2.71051e-14 -5.03462e-15 0 0 0 0)
(0 -5.9279e-15 0 8.13152e-14 -5.67554e-15 0 0 0 0)
(0 -1.13931e-14 0 5.42101e-14 -1.48669e-14 0 0 0 0)
(0 2.21912e-16 0 2.71051e-14 -4.96079e-15 0 0 0 0)
(0 3.23178e-15 0 5.42101e-14 2.40457e-15 0 0 0 0)
(-2.71051e-14 1.75393e-15 0 5.42101e-14 1.1975e-14 0 0 0 0)
(-2.71051e-14 6.30555e-15 0 2.71051e-14 1.99488e-14 0 0 0 0)
(0 9.15848e-15 0 -5.42101e-14 1.39454e-14 0 0 0 0)
(0 -1.28278e-15 0 0 -4.73484e-15 0 0 0 0)
(0 -7.4642e-15 0 0 -8.12896e-15 0 0 0 0)
(2.71051e-14 7.23504e-15 0 0 -2.11017e-15 0 0 0 0)
(-2.71051e-14 6.924e-15 0 0 -2.19892e-15 0 0 0 0)
(-1.35525e-13 2.33617e-12 0 5.69206e-13 -4.69548e-12 0 0 0 0)
(1.6263e-13 -2.81072e-12 0 -1.35525e-13 9.49311e-13 0 0 0 0)
(2.71051e-14 5.60028e-13 0 5.42101e-14 -2.27852e-13 0 0 0 0)
(5.42101e-14 -1.28078e-13 0 5.42101e-14 5.40082e-14 0 0 0 0)
(-5.42101e-14 2.58969e-14 0 0 -6.69589e-16 0 0 0 0)
(-5.42101e-14 2.45954e-15 0 0 8.57909e-15 0 0 0 0)
(0 1.48305e-16 0 0 -5.33241e-15 0 0 0 0)
(0 -1.13315e-14 0 5.42101e-14 -1.11566e-14 0 0 0 0)
(0 3.5469e-15 0 0 -4.913e-15 0 0 0 0)
(0 1.83664e-16 0 -2.71051e-14 -2.93278e-15 0 0 0 0)
(2.71051e-14 -2.36901e-15 0 -5.42101e-14 -1.33277e-16 0 0 0 0)
(0 1.3041e-14 0 -2.71051e-14 8.646e-16 0 0 0 0)
(0 1.21714e-14 0 -1.0842e-13 2.90717e-15 0 0 0 0)
(2.71051e-14 3.21053e-15 0 -5.42101e-14 7.11787e-15 0 0 0 0)
(0 -7.66253e-16 0 -5.42101e-14 1.2714e-14 0 0 0 0)
(-5.42101e-14 -6.77468e-15 0 5.42101e-14 1.23212e-14 0 0 0 0)
(-5.42101e-14 -1.24136e-14 0 0 -8.97052e-15 0 0 0 0)
(5.42101e-14 -1.63584e-15 0 -5.42101e-14 -1.49174e-14 0 0 0 0)
(0 1.07815e-14 0 0 -2.85564e-15 0 0 0 0)
(0 6.458e-15 0 0 -1.63452e-15 0 0 0 0)
(2.98156e-13 -2.54515e-12 0 4.06576e-13 -3.42733e-12 0 0 0 0)
(-4.33681e-13 3.021e-12 0 0 6.26387e-13 0 0 0 0)
(1.35525e-13 -6.08667e-13 0 1.6263e-13 -1.49475e-13 0 0 0 0)
(-5.42101e-14 1.52182e-13 0 0 2.17892e-14 0 0 0 0)
(5.42101e-14 -2.46938e-14 0 5.42101e-14 -1.27898e-14 0 0 0 0)
(0 3.00332e-15 0 2.71051e-14 -3.13328e-15 0 0 0 0)
(5.42101e-14 -1.1738e-14 0 5.42101e-14 -8.40776e-15 0 0 0 0)
(0 -7.113e-15 0 5.42101e-14 3.96611e-15 0 0 0 0)
(-2.71051e-14 4.57264e-15 0 5.42101e-14 1.44863e-14 0 0 0 0)
(0 -1.14818e-15 0 5.42101e-14 1.60473e-14 0 0 0 0)
(-2.71051e-14 -7.59577e-15 0 5.42101e-14 2.20203e-14 0 0 0 0)
(-5.42101e-14 3.26236e-15 0 5.42101e-14 1.04869e-14 0 0 0 0)
(0 9.48505e-15 0 8.13152e-14 -5.15982e-15 0 0 0 0)
(5.42101e-14 1.15608e-14 0 5.42101e-14 -1.15876e-14 0 0 0 0)
(0 1.15089e-14 0 2.71051e-14 -7.61324e-15 0 0 0 0)
(2.71051e-14 -1.25261e-14 0 5.42101e-14 -6.35539e-15 0 0 0 0)
(-2.71051e-14 -2.85214e-14 0 5.42101e-14 -4.41293e-15 0 0 0 0)
(0 -1.34932e-15 0 5.42101e-14 -1.13773e-15 0 0 0 0)
(2.71051e-14 2.05179e-14 0 0 4.97713e-16 0 0 0 0)
(-2.71051e-14 1.14142e-14 0 -2.71051e-14 1.84574e-15 0 0 0 0)
(2.98156e-13 -4.64773e-13 0 -7.04731e-13 3.67308e-12 0 0 0 0)
(-1.0842e-13 4.6713e-13 0 8.13152e-14 -6.63154e-13 0 0 0 0)
(2.71051e-14 -4.45702e-14 0 -1.6263e-13 1.84952e-13 0 0 0 0)
(-2.71051e-14 8.60644e-15 0 -5.42101e-14 -9.91699e-15 0 0 0 0)
(-2.71051e-14 9.7442e-16 0 -5.42101e-14 2.41639e-14 0 0 0 0)
(-2.71051e-14 6.84161e-15 0 -5.42101e-14 1.38024e-14 0 0 0 0)
(0 7.2477e-15 0 -5.42101e-14 1.4319e-14 0 0 0 0)
(-2.71051e-14 1.15626e-14 0 -1.0842e-13 1.82927e-14 0 0 0 0)
(0 1.56281e-14 0 -8.13152e-14 9.86932e-15 0 0 0 0)
(0 7.71757e-15 0 -5.42101e-14 -1.90804e-15 0 0 0 0)
(0 -7.92945e-15 0 -5.42101e-14 3.29993e-15 0 0 0 0)
(0 -1.41391e-14 0 -5.42101e-14 1.36172e-14 0 0 0 0)
(-2.71051e-14 -9.90314e-15 0 -2.71051e-14 1.41767e-14 0 0 0 0)
(0 7.57107e-16 0 -5.42101e-14 1.40353e-14 0 0 0 0)
(0 4.46595e-15 0 -2.71051e-14 1.85882e-15 0 0 0 0)
(-2.71051e-14 -3.57437e-15 0 -5.42101e-14 -1.93959e-15 0 0 0 0)
(0 -7.19598e-15 0 -5.42101e-14 1.79592e-14 0 0 0 0)
(-5.42101e-14 3.2748e-15 0 0 3.37778e-14 0 0 0 0)
(0 1.37649e-14 0 0 1.60338e-14 0 0 0 0)
(0 4.11455e-15 0 0 -5.05058e-16 0 0 0 0)
)
;

boundaryField
{
    movingWall
    {
        type            extrapolatedCalculated;
        value           nonuniform List<tensor> 
20
(
(2.98156e-13 -4.64773e-13 0 -9.76996e-13 1.97482e-12 0 0 0 0)
(-1.0842e-13 4.6713e-13 0 -2.22045e-13 -1.15722e-13 0 0 0 0)
(2.71051e-14 -4.45702e-14 0 -5.77316e-13 1.06296e-13 0 0 0 0)
(-2.71051e-14 8.60644e-15 0 -3.10862e-13 6.25593e-14 0 0 0 0)
(-2.71051e-14 9.7442e-16 0 -3.55271e-13 7.18701e-14 0 0 0 0)
(-2.71051e-14 6.84161e-15 0 -2.66454e-13 5.86616e-14 0 0 0 0)
(0 7.2477e-15 0 -2.22045e-13 4.45037e-14 0 0 0 0)
(-2.71051e-14 1.15626e-14 0 -2.66454e-13 2.96708e-14 0 0 0 0)
(0 1.56281e-14 0 -2.22045e-13 -1.7469e-15 0 0 0 0)
(0 7.71757e-15 0 -2.22045e-13 -3.28417e-14 0 0 0 0)
(0 -7.92945e-15 0 -2.22045e-13 -3.26172e-14 0 0 0 0)
(0 -1.41391e-14 0 -2.22045e-13 -1.12392e-15 0 0 0 0)
(-2.71051e-14 -9.90314e-15 0 -2.22045e-13 2.39393e-14 0 0 0 0)
(0 7.57107e-16 0 -1.77636e-13 3.84886e-14 0 0 0 0)
(0 4.46595e-15 0 -1.33227e-13 2.09109e-14 0 0 0 0)
(-2.71051e-14 -3.57437e-15 0 -1.77636e-13 2.06249e-14 0 0 0 0)
(0 -7.19598e-15 0 -1.33227e-13 3.52084e-14 0 0 0 0)
(-5.42101e-14 3.2748e-15 0 -4.44089e-14 4.94088e-14 0 0 0 0)
(0 1.37649e-14 0 0 2.21092e-14 0 0 0 0)
(0 4.11455e-15 0 0 -5.65099e-15 0 0 0 0)
)
;
    }
    fixedWalls
    {
        type            extrapolatedCalculated;
        value           nonuniform List<tensor> 
60
(
(2.22045e-12 2.31477e-11 0 -8.13152e-14 5.92092e-12 0 0 0 0)
(-2.57572e-12 5.36016e-13 0 -5.42101e-14 -9.85092e-12 0 0 0 0)
(2.08722e-12 -1.6256e-11 0 3.52366e-13 2.46742e-12 0 0 0 0)
(-1.15463e-12 1.04057e-11 0 -2.71051e-13 2.9068e-12 0 0 0 0)
(1.06581e-12 -4.6288e-12 0 1.0842e-13 -3.8122e-12 0 0 0 0)
(-7.99361e-13 -4.84312e-12 0 -2.43945e-13 3.57671e-12 0 0 0 0)
(1.77636e-13 9.67803e-12 0 -2.98156e-13 5.98134e-13 0 0 0 0)
(-2.04281e-12 -2.45058e-12 0 4.06576e-13 -4.87639e-12 0 0 0 0)
(1.68754e-12 -9.82752e-12 0 0 3.03708e-12 0 0 0 0)
(-2.13163e-12 9.69773e-12 0 -1.35525e-13 1.64583e-12 0 0 0 0)
(1.24345e-12 -3.24419e-12 0 1.13841e-12 -2.40808e-12 0 0 0 0)
(2.44249e-12 6.54117e-14 0 -1.95156e-12 7.46128e-13 0 0 0 0)
(-6.4837e-12 -2.5968e-13 0 1.89735e-13 -1.09947e-12 0 0 0 0)
(3.06422e-12 -4.33248e-12 0 1.76183e-12 3.01301e-12 0 0 0 0)
(5.77316e-13 1.17924e-11 0 -1.19262e-12 -2.52101e-12 0 0 0 0)
(-1.68754e-12 -1.44165e-11 0 -2.71051e-13 -1.432e-12 0 0 0 0)
(-3.55271e-13 6.06439e-12 0 2.71051e-13 6.53775e-12 0 0 0 0)
(-7.10543e-13 1.17345e-11 0 5.69206e-13 -4.69548e-12 0 0 0 0)
(1.90958e-12 -1.27175e-11 0 4.06576e-13 -3.42733e-12 0 0 0 0)
(9.76996e-13 -1.97482e-12 0 -7.04731e-13 3.67308e-12 0 0 0 0)
(0 1.61233e-14 0 0 -1.27862e-14 0 0 0 0)
(0 3.50217e-14 0 0 -5.91784e-15 0 0 0 0)
(0 3.97947e-14 0 0 1.43737e-15 0 0 0 0)
(0 2.92722e-14 0 0 1.21544e-14 0 0 0 0)
(0 -8.82314e-15 0 0 1.16359e-14 0 0 0 0)
(0 -1.72714e-14 0 2.71051e-14 5.36077e-15 0 0 0 0)
(-8.88178e-14 -3.02662e-14 0 2.71051e-14 9.45629e-15 0 0 0 0)
(-4.44089e-14 -5.50966e-14 0 -2.71051e-14 -1.89858e-15 0 0 0 0)
(0 -2.26719e-14 0 -2.71051e-14 -1.63487e-14 0 0 0 0)
(0 1.02981e-14 0 2.71051e-14 -2.11779e-16 0 0 0 0)
(-8.88178e-14 -2.18248e-14 0 0 1.63992e-14 0 0 0 0)
(0 -5.52987e-14 0 -2.71051e-14 -4.86483e-16 0 0 0 0)
(0 -1.98789e-14 0 2.71051e-14 -1.50962e-14 0 0 0 0)
(-4.44089e-14 5.0862e-15 0 0 -1.91519e-15 0 0 0 0)
(-4.44089e-14 -1.22181e-14 0 -2.71051e-14 3.03748e-15 0 0 0 0)
(0 -7.06371e-15 0 2.71051e-14 -2.3277e-15 0 0 0 0)
(-4.44089e-14 -2.90732e-15 0 0 -2.19892e-15 0 0 0 0)
(0 1.73197e-15 0 0 -1.63452e-15 0 0 0 0)
(-4.44089e-14 3.63076e-15 0 -2.71051e-14 1.84574e-15 0 0 0 0)
(0 -5.65099e-15 0 0 -5.05058e-16 0 0 0 0)
(5.69206e-13 4.66369e-12 0 2.22045e-12 2.31477e-11 0 0 0 0)
(-3.79471e-13 -5.51829e-12 0 4.44089e-14 -4.49292e-12 0 0 0 0)
(5.42101e-14 1.07552e-12 0 6.66134e-13 1.0745e-12 0 0 0 0)
(-8.13152e-14 -2.55387e-13 0 3.10862e-13 -1.90831e-13 0 0 0 0)
(0 5.39955e-14 0 2.66454e-13 5.29569e-14 0 0 0 0)
(-2.71051e-14 -2.47995e-15 0 3.10862e-13 2.51512e-14 0 0 0 0)
(-5.42101e-14 3.40391e-15 0 2.22045e-13 4.30371e-14 0 0 0 0)
(0 -2.9586e-16 0 1.77636e-13 3.87668e-14 0 0 0 0)
(-2.71051e-14 -1.96022e-15 0 1.77636e-13 4.18536e-14 0 0 0 0)
(0 -8.49128e-15 0 8.88178e-14 3.0926e-14 0 0 0 0)
(-2.71051e-14 -6.37241e-15 0 4.44089e-14 7.88852e-15 0 0 0 0)
(2.71051e-14 3.06544e-15 0 8.88178e-14 5.43633e-15 0 0 0 0)
(0 8.5383e-15 0 4.44089e-14 2.01503e-14 0 0 0 0)
(-2.71051e-14 -2.8885e-15 0 8.88178e-14 3.95895e-14 0 0 0 0)
(-2.71051e-14 -1.39815e-14 0 0 8.59627e-15 0 0 0 0)
(0 -6.71217e-16 0 0 -1.63364e-14 0 0 0 0)
(0 1.1473e-14 0 4.44089e-14 5.9114e-15 0 0 0 0)
(-5.42101e-14 -3.12911e-15 0 -8.88178e-14 2.95557e-14 0 0 0 0)
(5.42101e-14 -1.14197e-14 0 -8.88178e-14 -6.60504e-15 0 0 0 0)
(0 5.68208e-15 0 0 -1.61233e-14 0 0 0 0)
)
;
    }
    frontAndBack
    {
        type            empty;
    }
}


// ************************************************************************* //
