/*--------------------------------*- C++ -*----------------------------------*\
| =========                 |                                                 |
| \\      /  F ield         | OpenFOAM: The Open Source CFD Toolbox           |
|  \\    /   O peration     | Version:  2506                                  |
|   \\  /    A nd           | Website:  www.openfoam.com                      |
|    \\/     M anipulation  |                                                 |
\*---------------------------------------------------------------------------*/
FoamFile
{
    version     2.0;
    format      ascii;
    arch        "LSB;label=32;scalar=64";
    class       volVectorField;
    location    "8";
    object      gradPhi;
}
// * * * * * * * * * * * * * * * * * * * * * * * * * * * * * * * * * * * * * //

dimensions      [0 2 -1 0 0 0 0];

internalField   nonuniform List<vector> 
400
(
(-0.02 3.88009e-18 0)
(3.30872e-17 -3.12437e-17 0)
(-1.48893e-17 1.33441e-17 0)
(0 -7.79109e-19 0)
(0 1.64934e-19 0)
(0 1.07903e-18 0)
(-1.65436e-18 2.10785e-18 0)
(-1.65436e-18 1.11335e-18 0)
(-1.65436e-18 7.64581e-19 0)
(-1.65436e-18 1.45134e-18 0)
(0 3.58895e-19 0)
(0 -3.43959e-19 0)
(0 -6.45881e-20 0)
(0 1.5326e-18 0)
(0 7.74305e-19 0)
(0 1.29419e-20 0)
(0 6.51194e-20 0)
(-1.65436e-18 5.61964e-19 0)
(1.65436e-18 -6.61078e-19 0)
(0 -5.7536e-19 0)
(-0.02 -2.14991e-17 0)
(-4.46678e-17 4.44534e-17 0)
(2.31611e-17 -2.17035e-17 0)
(-3.30872e-18 2.65548e-18 0)
(-1.65436e-18 1.47019e-18 0)
(0 2.24477e-19 0)
(1.65436e-18 -1.39853e-18 0)
(1.65436e-18 -3.80843e-19 0)
(1.65436e-18 -1.09209e-18 0)
(1.65436e-18 -3.49999e-18 0)
(1.65436e-18 -1.37173e-18 0)
(-1.65436e-18 1.92423e-19 0)
(0 -1.36538e-19 0)
(0 -1.77665e-19 0)
(-1.65436e-18 8.44469e-19 0)
(0 1.42943e-18 0)
(-1.65436e-18 9.936e-19 0)
(1.65436e-18 -1.56377e-18 0)
(1.65436e-18 -1.65607e-18 0)
(0 -6.18352e-19 0)
(-0.02 -1.33537e-17 0)
(-6.61744e-18 6.41947e-18 0)
(-4.96308e-18 4.88945e-18 0)
(0 -4.87013e-19 0)
(1.65436e-18 2.93275e-21 0)
(0 -5.45694e-19 0)
(-1.65436e-18 2.04106e-19 0)
(0 7.47515e-19 0)
(-1.65436e-18 1.50273e-18 0)
(-3.30872e-18 3.3932e-18 0)
(-1.65436e-18 1.84472e-18 0)
(1.65436e-18 -1.11529e-18 0)
(1.65436e-18 -9.28717e-19 0)
(1.65436e-18 -2.57215e-18 0)
(0 -2.68632e-19 0)
(0 -2.93549e-19 0)
(0 -6.10388e-19 0)
(1.65436e-18 -6.09443e-20 0)
(-1.65436e-18 7.88473e-19 0)
(0 1.08445e-19 0)
(-0.02 2.02102e-17 0)
(2.81241e-17 -2.96744e-17 0)
(-6.61744e-18 6.89553e-18 0)
(1.65436e-18 -1.93133e-18 0)
(0 -1.01095e-18 0)
(0 8.58605e-19 0)
(-1.65436e-18 2.1973e-18 0)
(-1.65436e-18 1.05978e-18 0)
(0 -6.0314e-20 0)
(0 -9.07741e-19 0)
(0 -3.10678e-19 0)
(-3.30872e-18 2.59646e-18 0)
(-1.65436e-18 1.79407e-18 0)
(0 1.32031e-19 0)
(3.30872e-18 -2.73115e-18 0)
(0 -9.31647e-19 0)
(0 1.49334e-19 0)
(0 6.8477e-19 0)
(-1.65436e-18 8.60924e-19 0)
(0 5.89326e-19 0)
(-0.02 -1.07333e-17 0)
(-2.64698e-17 2.59852e-17 0)
(1.15805e-17 -1.07221e-17 0)
(0 -5.50127e-19 0)
(0 -1.94113e-18 0)
(1.65436e-18 -1.94579e-19 0)
(1.65436e-18 -1.96106e-18 0)
(3.30872e-18 -1.47643e-18 0)
(-1.65436e-18 9.03925e-19 0)
(-1.65436e-18 1.36462e-18 0)
(0 1.21981e-18 0)
(0 -6.46608e-19 0)
(1.65436e-18 -1.28549e-18 0)
(0 4.53313e-20 0)
(0 2.59335e-19 0)
(1.65436e-18 -4.08588e-19 0)
(0 -4.25031e-19 0)
(-1.65436e-18 1.41017e-18 0)
(-1.65436e-18 1.76257e-18 0)
(-1.65436e-18 1.6539e-18 0)
(-0.02 1.99576e-17 0)
(2.81241e-17 -2.9629e-17 0)
(-4.96308e-18 6.74189e-18 0)
(0 -7.17514e-19 0)
(0 9.11163e-19 0)
(1.65436e-18 -6.97825e-19 0)
(-1.65436e-18 7.30665e-19 0)
(0 8.62156e-19 0)
(0 -4.42613e-19 0)
(-1.65436e-18 -2.46765e-19 0)
(1.65436e-18 -3.46414e-19 0)
(0 3.8361e-19 0)
(-1.65436e-18 1.29023e-18 0)
(-1.65436e-18 1.76254e-18 0)
(-1.65436e-18 2.09918e-18 0)
(-1.65436e-18 4.85315e-19 0)
(1.65436e-18 -4.05012e-19 0)
(0 -1.42719e-19 0)
(0 -1.72072e-19 0)
(1.65436e-18 -1.37402e-18 0)
(-0.02 -3.38913e-18 0)
(-4.96308e-18 5.69146e-18 0)
(-3.30872e-18 4.3349e-18 0)
(0 1.20114e-18 0)
(-3.30872e-18 1.19272e-18 0)
(0 5.95554e-19 0)
(1.65436e-18 -9.70064e-19 0)
(1.65436e-18 -1.42935e-18 0)
(1.65436e-18 -1.46225e-18 0)
(1.65436e-18 -1.77784e-18 0)
(3.30872e-18 -1.78755e-18 0)
(1.65436e-18 -1.33613e-18 0)
(0 -5.44429e-19 0)
(0 -3.50554e-19 0)
(0 -3.28247e-19 0)
(0 8.5617e-19 0)
(0 6.50718e-19 0)
(0 -5.74978e-19 0)
(0 2.92996e-19 0)
(-1.65436e-18 1.71933e-18 0)
(-0.02 -6.44892e-19 0)
(-2.15067e-17 2.09622e-17 0)
(1.15805e-17 -1.18278e-17 0)
(-1.65436e-18 9.81638e-19 0)
(1.65436e-18 -7.57323e-19 0)
(1.65436e-18 -2.35711e-18 0)
(1.65436e-18 -2.39902e-18 0)
(1.65436e-18 -9.70872e-19 0)
(0 1.14109e-19 0)
(0 3.6883e-19 0)
(0 -1.58878e-19 0)
(0 -5.15151e-19 0)
(0 1.68292e-19 0)
(0 3.22826e-19 0)
(0 -7.34216e-19 0)
(3.30872e-18 -1.90942e-18 0)
(0 -4.60836e-19 0)
(0 3.10297e-19 0)
(1.65436e-18 -6.22188e-19 0)
(-1.65436e-18 6.36032e-20 0)
(-0.02 -7.21012e-18 0)
(3.30872e-18 -4.69581e-18 0)
(-6.61744e-18 7.27047e-18 0)
(0 6.69528e-19 0)
(0 6.07134e-19 0)
(-1.65436e-18 1.05267e-18 0)
(0 4.96507e-19 0)
(0 -8.58433e-19 0)
(0 9.44461e-20 0)
(0 -5.01626e-19 0)
(1.65436e-18 -1.12154e-18 0)
(-1.65436e-18 8.57064e-19 0)
(0 3.97503e-19 0)
(-1.65436e-18 1.53404e-18 0)
(-4.96308e-18 3.43638e-18 0)
(0 1.73206e-18 0)
(0 1.72065e-19 0)
(0 -1.05244e-18 0)
(0 -4.53872e-19 0)
(3.30872e-18 -1.98984e-18 0)
(-0.02 1.936e-17 0)
(2.81241e-17 -2.62693e-17 0)
(-4.96308e-18 5.5085e-18 0)
(0 -1.84491e-18 0)
(0 -1.13525e-19 0)
(0 -3.75275e-19 0)
(0 9.98155e-19 0)
(-3.30872e-18 3.43041e-18 0)
(1.65436e-18 -3.50154e-19 0)
(-1.65436e-18 1.62361e-19 0)
(-1.65436e-18 1.74126e-18 0)
(1.65436e-18 -1.61976e-19 0)
(-1.65436e-18 6.24461e-19 0)
(1.65436e-18 -1.35594e-18 0)
(3.30872e-18 -3.72228e-18 0)
(0 -8.79473e-19 0)
(0 6.15168e-19 0)
(-1.65436e-18 1.98219e-18 0)
(0 9.17813e-19 0)
(0 1.24017e-19 0)
(-0.02 -1.55569e-17 0)
(-1.98523e-17 2.11849e-17 0)
(3.30872e-18 -4.85247e-18 0)
(-1.65436e-18 1.92262e-18 0)
(0 5.4635e-19 0)
(-1.65436e-18 5.40266e-19 0)
(0 9.89349e-19 0)
(1.65436e-18 -2.22105e-18 0)
(0 9.89615e-20 0)
(0 6.51542e-19 0)
(0 2.93094e-19 0)
(0 -4.64416e-19 0)
(0 -9.06212e-19 0)
(0 -5.63512e-19 0)
(0 7.41224e-19 0)
(0 -1.86898e-19 0)
(0 -9.13644e-19 0)
(3.30872e-18 -2.57385e-18 0)
(1.65436e-18 -1.46178e-18 0)
(-1.65436e-18 1.73606e-18 0)
(-0.02 -1.7037e-17 0)
(-1.8198e-17 1.73037e-17 0)
(-3.30872e-18 1.63844e-18 0)
(0 1.44891e-18 0)
(1.65436e-18 -2.86782e-18 0)
(1.65436e-18 -5.84488e-19 0)
(0 -7.25469e-19 0)
(0 2.74719e-19 0)
(0 -4.72819e-19 0)
(0 3.38482e-19 0)
(-1.65436e-18 9.92478e-19 0)
(0 7.22e-19 0)
(1.65436e-18 -1.62894e-18 0)
(1.65436e-18 -1.39249e-18 0)
(1.65436e-18 -1.05514e-18 0)
(0 -9.55961e-19 0)
(-1.65436e-18 3.28717e-19 0)
(-1.65436e-18 2.02231e-18 0)
(0 1.11696e-18 0)
(0 1.25148e-19 0)
(-0.02 3.97565e-17 0)
(3.14329e-17 -3.0852e-17 0)
(1.65436e-18 -9.90248e-19 0)
(1.65436e-18 -2.59019e-18 0)
(0 2.06808e-18 0)
(-1.65436e-18 1.32562e-18 0)
(-1.65436e-18 4.46999e-19 0)
(1.65436e-18 -6.22577e-19 0)
(0 4.34977e-19 0)
(1.65436e-18 -1.86737e-18 0)
(1.65436e-18 -2.38566e-18 0)
(0 -2.07064e-20 0)
(-1.65436e-18 8.88869e-19 0)
(0 5.36128e-19 0)
(0 -1.01504e-18 0)
(0 4.23739e-19 0)
(1.65436e-18 -8.02975e-19 0)
(0 -8.2292e-19 0)
(1.65436e-18 -9.61937e-19 0)
(3.30872e-18 -2.22598e-18 0)
(-0.02 -9.29687e-18 0)
(-3.30872e-18 2.76931e-18 0)
(-4.96308e-18 3.84224e-18 0)
(0 -9.23461e-19 0)
(0 3.69854e-19 0)
(0 -5.09391e-19 0)
(1.65436e-18 -1.02384e-18 0)
(-1.65436e-18 1.12082e-18 0)
(0 -4.87168e-19 0)
(0 -3.85929e-19 0)
(0 5.98128e-20 0)
(0 -4.47488e-20 0)
(1.65436e-18 2.08833e-19 0)
(-1.65436e-18 5.06694e-19 0)
(0 7.33675e-19 0)
(0 -8.48745e-21 0)
(0 -3.11385e-19 0)
(0 6.4512e-19 0)
(0 1.23648e-18 0)
(-1.65436e-18 6.87569e-19 0)
(-0.02 -5.25125e-18 0)
(-1.48893e-17 1.67318e-17 0)
(6.61744e-18 -7.00933e-18 0)
(-3.30872e-18 2.16966e-18 0)
(1.65436e-18 -1.2141e-18 0)
(1.65436e-18 -1.50238e-18 0)
(1.65436e-18 -1.37103e-18 0)
(1.65436e-18 -2.97188e-18 0)
(1.65436e-18 -1.44167e-18 0)
(0 3.01437e-19 0)
(-1.65436e-18 1.74077e-18 0)
(0 7.3126e-20 0)
(0 5.86255e-19 0)
(-1.65436e-18 3.54578e-19 0)
(0 2.77939e-19 0)
(1.65436e-18 -1.52523e-18 0)
(0 -2.21863e-19 0)
(0 -1.39298e-18 0)
(0 -8.7577e-19 0)
(0 7.99094e-19 0)
(-0.02 1.87317e-18 0)
(3.30872e-18 -1.32054e-18 0)
(0 -1.34637e-18 0)
(1.65436e-18 -1.87948e-18 0)
(0 1.09126e-18 0)
(-1.65436e-18 8.51272e-19 0)
(0 8.03751e-19 0)
(-3.30872e-18 2.08924e-18 0)
(-3.30872e-18 1.96395e-18 0)
(0 1.41255e-18 0)
(0 -1.61098e-18 0)
(1.65436e-18 -1.11152e-18 0)
(1.65436e-18 -1.18709e-18 0)
(3.30872e-18 -2.36681e-18 0)
(1.65436e-18 -1.72977e-18 0)
(-1.65436e-18 1.84818e-18 0)
(-3.30872e-18 2.37322e-18 0)
(0 5.68321e-19 0)
(1.65436e-18 -9.48949e-19 0)
(1.65436e-18 -1.20357e-18 0)
(-0.02 3.19348e-17 0)
(3.80503e-17 -3.71121e-17 0)
(-1.32349e-17 1.26968e-17 0)
(0 -1.28482e-18 0)
(3.30872e-18 -2.06928e-18 0)
(3.30872e-18 -1.7786e-18 0)
(0 3.16896e-19 0)
(1.65436e-18 -7.30519e-19 0)
(0 -1.3694e-18 0)
(0 -8.11958e-19 0)
(0 9.63122e-20 0)
(0 -1.93739e-19 0)
(0 8.45113e-20 0)
(0 2.06452e-18 0)
(-3.30872e-18 2.5665e-18 0)
(0 -8.39204e-19 0)
(3.30872e-18 -2.04951e-18 0)
(0 -6.52848e-19 0)
(-1.65436e-18 3.44983e-19 0)
(0 7.78827e-19 0)
(-0.02 -2.03734e-17 0)
(-2.64698e-17 2.54799e-17 0)
(1.15805e-17 -1.04001e-17 0)
(-1.65436e-18 7.25195e-19 0)
(-1.65436e-18 1.77108e-18 0)
(-1.65436e-18 2.31603e-18 0)
(-1.65436e-18 9.33705e-19 0)
(0 8.01647e-20 0)
(0 8.6275e-20 0)
(0 -1.9491e-19 0)
(1.65436e-18 -1.17676e-18 0)
(0 -6.12376e-19 0)
(0 1.02714e-19 0)
(0 -1.09749e-19 0)
(0 1.42723e-20 0)
(-1.65436e-18 2.56926e-18 0)
(-1.65436e-18 2.76079e-19 0)
(1.65436e-18 -1.41728e-18 0)
(0 -3.26693e-19 0)
(0 -7.60279e-19 0)
(-0.02 -2.37884e-17 0)
(-3.14329e-17 3.29124e-17 0)
(6.61744e-18 -7.51486e-18 0)
(0 1.11905e-18 0)
(1.65436e-18 -2.20321e-18 0)
(1.65436e-18 -1.45517e-18 0)
(0 -1.34538e-18 0)
(0 -1.19755e-19 0)
(0 5.41346e-19 0)
(0 8.49807e-19 0)
(-1.65436e-18 2.41475e-18 0)
(-1.65436e-18 1.6556e-18 0)
(-1.65436e-18 -1.35812e-19 0)
(1.65436e-18 -8.13323e-19 0)
(0 -5.70755e-20 0)
(3.30872e-18 -1.6383e-18 0)
(-1.65436e-18 -2.77712e-19 0)
(0 2.22266e-19 0)
(0 -3.14278e-19 0)
(0 4.84346e-19 0)
(-0.02 1.11617e-17 0)
(2.81241e-17 -2.90969e-17 0)
(-8.27181e-18 9.20445e-18 0)
(0 9.47239e-20 0)
(-1.65436e-18 1.98163e-18 0)
(0 1.15698e-18 0)
(0 9.69099e-19 0)
(-1.65436e-18 1.00357e-18 0)
(0 6.73178e-19 0)
(0 -1.00045e-19 0)
(0 -4.91709e-19 0)
(0 8.63495e-20 0)
(-1.65436e-18 6.72072e-19 0)
(0 9.10907e-19 0)
(0 -1.05728e-19 0)
(0 2.19657e-19 0)
(-1.65436e-18 8.54341e-19 0)
(-1.65436e-18 1.84732e-18 0)
(0 1.13349e-18 0)
(0 -1.22267e-19 0)
)
;

boundaryField
{
    movingWall
    {
        type            extrapolatedCalculated;
        value           nonuniform List<vector> 
20
(
(-0.02 1.11617e-17 0)
(2.81241e-17 -2.90969e-17 0)
(-8.27181e-18 9.20445e-18 0)
(0 9.47239e-20 0)
(-1.65436e-18 1.98163e-18 0)
(0 1.15698e-18 0)
(0 9.69099e-19 0)
(-1.65436e-18 1.00357e-18 0)
(0 6.73178e-19 0)
(0 -1.00045e-19 0)
(0 -4.91709e-19 0)
(0 8.63495e-20 0)
(-1.65436e-18 6.72072e-19 0)
(0 9.10907e-19 0)
(0 -1.05728e-19 0)
(0 2.19657e-19 0)
(-1.65436e-18 8.54341e-19 0)
(-1.65436e-18 1.84732e-18 0)
(0 1.13349e-18 0)
(0 -1.22267e-19 0)
)
;
    }
    fixedWalls
    {
        type            extrapolatedCalculated;
        value           nonuniform List<vector> 
60
(
(-0.02 3.88009e-18 0)
(-0.02 -2.14991e-17 0)
(-0.02 -1.33537e-17 0)
(-0.02 2.02102e-17 0)
(-0.02 -1.07333e-17 0)
(-0.02 1.99576e-17 0)
(-0.02 -3.38913e-18 0)
(-0.02 -6.44892e-19 0)
(-0.02 -7.21012e-18 0)
(-0.02 1.936e-17 0)
(-0.02 -1.55569e-17 0)
(-0.02 -1.7037e-17 0)
(-0.02 3.97565e-17 0)
(-0.02 -9.29687e-18 0)
(-0.02 -5.25125e-18 0)
(-0.02 1.87317e-18 0)
(-0.02 3.19348e-17 0)
(-0.02 -2.03734e-17 0)
(-0.02 -2.37884e-17 0)
(-0.02 1.11617e-17 0)
(0 -5.7536e-19 0)
(0 -6.18352e-19 0)
(0 1.08445e-19 0)
(0 5.89326e-19 0)
(-1.65436e-18 1.6539e-18 0)
(1.65436e-18 -1.37402e-18 0)
(-1.65436e-18 1.71933e-18 0)
(-1.65436e-18 6.36032e-20 0)
(3.30872e-18 -1.98984e-18 0)
(0 1.24017e-19 0)
(-1.65436e-18 1.73606e-18 0)
(0 1.25148e-19 0)
(3.30872e-18 -2.22598e-18 0)
(-1.65436e-18 6.87569e-19 0)
(0 7.99094e-19 0)
(1.65436e-18 -1.20357e-18 0)
(0 7.78827e-19 0)
(0 -7.60279e-19 0)
(0 4.84346e-19 0)
(0 -1.22267e-19 0)
(-0.02 3.88009e-18 0)
(3.30872e-17 -3.12437e-17 0)
(-1.48893e-17 1.33441e-17 0)
(0 -7.79109e-19 0)
(0 1.64934e-19 0)
(0 1.07903e-18 0)
(-1.65436e-18 2.10785e-18 0)
(-1.65436e-18 1.11335e-18 0)
(-1.65436e-18 7.64581e-19 0)
(-1.65436e-18 1.45134e-18 0)
(0 3.58895e-19 0)
(0 -3.43959e-19 0)
(0 -6.45881e-20 0)
(0 1.5326e-18 0)
(0 7.74305e-19 0)
(0 1.29419e-20 0)
(0 6.51194e-20 0)
(-1.65436e-18 5.61964e-19 0)
(1.65436e-18 -6.61078e-19 0)
(0 -5.7536e-19 0)
)
;
    }
    frontAndBack
    {
        type            empty;
    }
}


// ************************************************************************* //
