/*--------------------------------*- C++ -*----------------------------------*\
| =========                 |                                                 |
| \\      /  F ield         | OpenFOAM: The Open Source CFD Toolbox           |
|  \\    /   O peration     | Version:  2506                                  |
|   \\  /    A nd           | Website:  www.openfoam.com                      |
|    \\/     M anipulation  |                                                 |
\*---------------------------------------------------------------------------*/
FoamFile
{
    version     2.0;
    format      ascii;
    arch        "LSB;label=32;scalar=64";
    class       volScalarField;
    location    "8";
    object      initialResidual:Uy;
}
// * * * * * * * * * * * * * * * * * * * * * * * * * * * * * * * * * * * * * //

dimensions      [0 0 0 0 0 0 0];

internalField   nonuniform List<scalar> 
400
(
6.28241e-20
-2.44365e-20
5.52281e-21
2.54451e-21
2.52163e-21
2.25279e-21
5.44047e-21
3.55599e-21
-3.10253e-21
-3.94009e-21
-9.52249e-22
3.94127e-23
-1.19951e-21
3.80092e-21
-3.42864e-21
-5.13184e-21
-1.51532e-21
7.21667e-21
-1.97135e-21
-6.82099e-22
1.09078e-20
4.4338e-21
3.52574e-21
6.14312e-21
6.40264e-21
6.07297e-21
5.11267e-21
-2.83498e-22
-8.16895e-21
-8.36213e-21
-4.72017e-21
1.92055e-21
5.79147e-21
8.68322e-21
-1.83494e-21
-7.0677e-21
-5.87242e-21
3.23376e-21
-8.32288e-22
1.53573e-21
-3.36608e-20
2.88657e-20
-4.76298e-21
3.50685e-21
7.77946e-21
7.1156e-21
3.07025e-21
-5.65068e-21
-5.94957e-21
-2.16993e-21
-2.53341e-21
-1.31079e-21
3.26409e-21
4.50852e-21
7.10949e-21
-1.23783e-21
-4.17595e-21
-5.9973e-21
1.14662e-21
2.45792e-21
1.51789e-20
1.21406e-20
8.22088e-21
1.27144e-21
3.5989e-21
7.68768e-21
1.22279e-20
1.12523e-21
-5.6686e-21
-3.12394e-21
2.83255e-21
2.72371e-21
-4.99866e-21
-1.14373e-20
-3.31946e-21
1.94315e-21
7.26652e-22
-3.53306e-21
-4.21778e-22
1.489e-21
-3.57885e-21
9.9447e-21
8.05148e-21
1.66557e-21
1.2902e-21
3.85375e-21
5.30587e-21
7.00036e-21
2.96879e-21
-3.42977e-21
1.13845e-21
2.27832e-21
-5.07598e-21
-1.36392e-20
-1.21199e-20
3.51633e-22
1.92768e-21
1.77539e-22
-2.65615e-21
3.397e-25
-1.18697e-20
-4.94423e-22
-5.13229e-22
7.49235e-21
9.11795e-21
2.9334e-21
-2.61882e-21
9.12448e-22
1.71175e-21
-8.48967e-23
-1.97105e-21
-5.64526e-21
-8.00591e-21
-2.67991e-21
-2.63633e-21
-4.30006e-21
-3.31547e-21
5.35883e-22
5.42312e-23
-9.97458e-22
3.32654e-20
-1.12819e-20
-3.92897e-21
4.88232e-21
6.1094e-21
5.8529e-21
3.34668e-21
-2.64631e-21
-1.05325e-20
-6.14325e-21
-6.17824e-21
-4.49045e-21
-1.70654e-21
-1.06555e-21
-2.08291e-21
-2.8045e-21
-8.56759e-21
-4.40102e-21
3.00337e-21
2.04661e-21
-5.65888e-21
-1.53651e-23
-8.91396e-21
-6.80984e-22
-4.41518e-21
-2.49469e-21
-1.773e-21
2.90978e-21
1.26603e-21
-4.60602e-21
-7.50533e-21
-3.96265e-21
5.47035e-22
-4.85116e-21
-7.35094e-21
-2.80613e-21
-1.87046e-21
-2.371e-22
4.63887e-21
2.92759e-21
-1.34849e-20
-8.66274e-21
-2.3854e-21
3.78712e-22
-5.25053e-21
-7.73461e-21
-6.41776e-21
-8.39285e-23
4.28506e-21
-4.7868e-21
-6.77426e-21
-1.70185e-21
-1.68678e-21
-1.63656e-21
-1.86511e-21
-8.06721e-21
-1.08489e-21
1.79828e-21
3.5171e-21
5.58602e-22
3.40813e-21
-4.21018e-21
-2.81015e-21
-6.33241e-21
-2.93238e-21
-3.43719e-21
-1.64067e-21
7.56709e-22
-1.23936e-21
-8.18666e-21
-1.04622e-20
-6.48818e-21
-3.61941e-21
-1.01803e-21
-1.35157e-21
-5.93497e-21
-4.30342e-21
1.07939e-21
1.08134e-21
-1.24305e-21
-2.90842e-20
1.52817e-20
-7.0832e-21
-3.52663e-21
4.48494e-22
-3.73151e-21
-1.84641e-22
4.54036e-22
-5.45359e-21
-3.9006e-21
-2.20112e-21
-8.78225e-21
-7.99606e-21
-9.80973e-21
-7.23247e-21
-1.3324e-21
2.73895e-22
-5.85193e-22
-7.48593e-22
-4.04227e-22
3.60204e-20
-4.11761e-21
7.06195e-21
-1.00226e-21
-4.65205e-21
-1.7307e-21
-8.42129e-21
-9.52212e-21
-5.29709e-21
1.50836e-21
-1.05363e-21
-6.8514e-21
-1.01399e-20
-6.0422e-21
-3.2854e-21
-2.22734e-21
1.78741e-21
-2.74357e-21
-5.45161e-21
1.28116e-21
-1.52725e-20
2.44665e-20
9.05678e-21
-4.62418e-21
-1.11053e-20
2.39656e-21
-4.12097e-21
-1.00155e-20
-3.76274e-21
-3.35972e-21
-4.78064e-21
-2.53663e-21
-3.06053e-21
-4.42984e-21
-5.8412e-21
-3.40017e-21
1.81573e-22
-3.07278e-21
-6.54596e-21
-1.83053e-22
-4.33781e-21
1.82297e-20
1.33387e-21
3.14367e-22
-5.24445e-21
-3.74188e-21
4.75971e-21
-7.2665e-21
-1.38522e-20
-1.39462e-20
-6.02176e-21
-1.23188e-21
5.50559e-21
2.73507e-21
-5.5766e-21
-6.09641e-21
-5.97626e-21
-7.22108e-21
-4.08462e-21
-1.09929e-21
3.48189e-20
-8.87805e-21
1.31633e-20
7.29932e-21
4.0224e-22
-1.3921e-20
-1.15527e-20
-3.1169e-21
-2.69427e-21
-3.9803e-21
-2.51452e-21
-2.14276e-21
6.87766e-22
-4.35532e-22
-6.83107e-21
-7.61978e-21
-7.59157e-21
-3.91652e-21
-1.54592e-21
-2.66742e-22
-1.80813e-20
1.10871e-20
4.61905e-21
6.44965e-21
5.34e-21
-7.09888e-21
-1.46655e-20
8.27464e-22
7.19337e-21
1.88504e-21
-3.40294e-21
-6.54871e-21
-2.36015e-21
-4.7844e-21
-4.98251e-21
-5.36542e-21
-1.02591e-21
-2.46753e-22
-4.24341e-21
-1.56982e-21
1.44896e-20
2.03785e-21
-2.22078e-21
-3.64293e-21
-2.00003e-21
2.44589e-21
1.48299e-21
-5.55266e-22
-2.85214e-21
-2.13529e-21
-4.3834e-21
-9.3389e-21
-6.43053e-21
2.05371e-21
4.75281e-21
-6.13407e-22
-2.45086e-21
-8.87941e-22
-2.98919e-21
-1.71265e-21
3.32687e-20
-4.26771e-21
-1.24544e-21
-6.41935e-21
-2.72451e-21
8.00155e-22
8.10681e-22
-3.91964e-21
-3.34959e-21
-1.39025e-21
-1.31574e-21
-2.38152e-21
-3.06992e-21
-4.88917e-23
-1.24924e-21
1.18387e-21
-3.97362e-21
-1.71639e-22
3.26721e-21
-4.41948e-22
-7.79718e-21
1.10207e-20
-4.92418e-21
-3.64565e-21
1.12168e-21
1.65344e-21
1.76262e-21
-2.79882e-21
9.53027e-22
1.38179e-21
-6.56127e-21
-5.8396e-21
-1.00207e-21
-9.85385e-22
1.08848e-21
1.13163e-21
-8.94275e-22
-1.03197e-21
3.88359e-21
3.98002e-22
-1.54951e-20
5.33339e-21
-5.8132e-22
-2.41474e-21
-3.21474e-21
1.17042e-21
4.36613e-21
6.00211e-22
1.20804e-21
3.73549e-21
-2.05116e-21
-5.32659e-21
-3.98335e-21
-2.05677e-21
5.15332e-21
1.8591e-21
-3.25851e-23
-1.2999e-21
1.13243e-21
3.1428e-22
)
;

boundaryField
{
    movingWall
    {
        type            zeroGradient;
    }
    fixedWalls
    {
        type            zeroGradient;
    }
    frontAndBack
    {
        type            empty;
    }
}


// ************************************************************************* //
