/*--------------------------------*- C++ -*----------------------------------*\
| =========                 |                                                 |
| \\      /  F ield         | OpenFOAM: The Open Source CFD Toolbox           |
|  \\    /   O peration     | Version:  2506                                  |
|   \\  /    A nd           | Website:  www.openfoam.com                      |
|    \\/     M anipulation  |                                                 |
\*---------------------------------------------------------------------------*/
FoamFile
{
    version     2.0;
    format      ascii;
    arch        "LSB;label=32;scalar=64";
    class       volScalarField;
    location    "8";
    object      initialResidual:p;
}
// * * * * * * * * * * * * * * * * * * * * * * * * * * * * * * * * * * * * * //

dimensions      [0 0 0 0 0 0 0];

internalField   nonuniform List<scalar> 
400
(
2.03288e-20
-9.94759e-21
3.85799e-21
1.21298e-20
1.09107e-20
9.7842e-21
2.30209e-21
-8.15785e-23
-2.42952e-20
3.21705e-21
-9.76676e-22
-5.42533e-21
7.29255e-21
2.11163e-21
-3.71638e-21
-3.61305e-21
-9.04428e-21
-2.29413e-21
1.34974e-20
-4.796e-27
2.71049e-20
-1.10489e-20
9.33402e-21
-2.79876e-21
-8.42953e-21
-3.0768e-21
-7.05072e-21
-1.18124e-20
5.31006e-22
9.71332e-21
-1.26507e-21
2.19301e-21
1.93354e-20
-2.58985e-21
5.93787e-22
-2.4374e-20
9.96291e-21
-2.17108e-21
3.11863e-22
6.77625e-21
-2.03286e-20
1.26385e-20
1.5402e-21
-3.12418e-21
-9.63676e-22
-1.03422e-21
2.56168e-21
3.32942e-21
3.60518e-21
-5.66397e-22
3.4824e-22
-1.39305e-20
-9.38972e-21
-1.58919e-20
2.21541e-21
6.72872e-21
3.37298e-20
-2.18126e-20
-5.88367e-21
6.77626e-21
1.35525e-20
-2.58371e-20
1.41235e-20
1.01989e-20
3.2706e-21
-9.88092e-21
-1.42098e-20
9.60645e-21
1.88629e-20
-2.27491e-21
2.39488e-22
-1.54034e-20
-5.203e-21
4.62993e-21
-1.3408e-20
-5.95374e-21
3.60047e-22
-1.45999e-21
-7.90955e-21
1.35525e-20
6.77653e-21
4.17666e-21
-1.01013e-20
-3.41243e-21
3.55704e-21
1.08687e-20
-6.13931e-21
1.11565e-21
1.2346e-21
-7.41342e-21
-8.75301e-21
2.33379e-20
-1.36868e-20
1.68903e-21
3.16929e-21
-1.68209e-21
1.23626e-20
-1.30501e-20
-8.39166e-22
4.85708e-27
1.35525e-20
-2.31435e-20
-4.40225e-21
6.65626e-21
6.40756e-21
2.96081e-22
-1.66611e-21
4.62989e-21
-1.15318e-20
-1.10632e-20
1.76663e-21
-1.78462e-20
2.35929e-21
-2.98914e-21
-1.93709e-21
1.01237e-20
1.01782e-20
-7.77748e-21
1.79557e-21
6.77626e-21
1.35527e-20
-2.21656e-20
9.42838e-21
-5.58641e-21
-3.45125e-20
1.53738e-20
2.80055e-20
-2.95788e-20
1.4422e-20
1.21932e-22
1.57117e-20
-4.12899e-21
-7.84091e-21
-2.76854e-21
-3.65868e-21
-2.10482e-21
4.12777e-21
6.1401e-21
-5.35857e-21
1.10657e-26
-6.77619e-21
-1.34132e-20
3.44522e-21
-1.65975e-20
2.60355e-21
9.14511e-21
-3.39393e-21
-1.30483e-20
7.13991e-21
1.73319e-20
-1.76496e-20
5.52379e-21
4.73065e-21
-4.11305e-21
-5.66477e-21
9.88664e-21
-1.28114e-20
9.42327e-21
3.42982e-21
6.77626e-21
-4.06575e-20
1.01899e-20
1.01875e-20
4.45292e-21
-4.17517e-21
-1.07039e-20
4.87971e-21
-1.83502e-21
-2.95162e-21
7.0446e-21
-1.37455e-20
-3.13584e-21
-9.35977e-21
-1.56918e-21
6.51533e-21
1.0009e-20
-7.34745e-22
-5.70929e-21
-6.17745e-23
-6.77626e-21
2.03288e-20
1.23947e-20
3.14685e-21
-5.04496e-21
4.87103e-21
4.65856e-21
-1.91386e-21
-1.47535e-20
1.6187e-20
2.77308e-22
2.9958e-22
1.27848e-20
-5.67036e-21
-4.44087e-21
2.32646e-21
-8.68342e-21
-2.15511e-21
-1.35914e-20
8.41979e-21
1.17474e-27
-2.03287e-20
3.06709e-20
-2.2496e-21
4.77858e-21
4.57472e-21
-4.8625e-21
-3.85249e-21
2.78159e-21
1.84025e-21
3.68294e-21
2.97377e-21
-6.61099e-21
1.00431e-21
8.40528e-21
-2.86188e-21
5.35873e-21
1.42454e-20
-8.89584e-21
-9.05388e-21
-6.77625e-21
6.77629e-21
-1.01439e-21
1.66091e-20
1.00401e-20
9.18761e-22
5.28676e-21
-6.81013e-22
-1.49488e-20
3.90305e-21
5.2861e-21
-3.83207e-21
-1.28116e-20
1.31935e-20
1.22672e-21
-9.9584e-21
5.50821e-21
-9.41924e-22
-8.40122e-21
-3.69091e-21
4.9677e-27
1.62145e-25
1.13326e-20
-6.0601e-21
9.30486e-21
-5.9581e-21
-2.78316e-21
4.11688e-21
-5.17482e-22
-2.14207e-20
7.04976e-21
3.68613e-21
1.69416e-22
1.36243e-20
3.12683e-20
-1.19013e-20
-1.81969e-20
1.00964e-20
-2.47836e-20
4.89974e-21
-6.77626e-21
-1.35525e-20
-2.22847e-21
9.54087e-21
6.09587e-21
9.58045e-21
-6.74106e-21
2.71587e-21
-5.70194e-21
-5.44871e-22
2.0437e-22
1.88759e-21
-2.63798e-21
-6.75681e-21
-1.26712e-21
-6.11242e-21
1.29901e-21
2.14467e-21
-4.2358e-21
-1.584e-20
1.35525e-20
-5.421e-20
2.26558e-20
-7.79219e-21
-3.92508e-21
1.76523e-20
-2.94501e-21
1.8519e-20
-1.39228e-21
1.91394e-22
4.89723e-21
1.92017e-20
-1.27988e-21
-1.54654e-20
-4.12809e-21
8.89759e-22
-1.24788e-20
-4.93661e-21
1.1809e-20
1.94443e-20
1.43344e-26
6.77635e-21
-2.73421e-21
-1.23889e-20
4.88872e-22
-6.90921e-21
5.82651e-21
1.05317e-20
1.39182e-20
1.11593e-21
-1.37219e-21
8.33747e-21
-2.09407e-20
-9.74397e-21
-8.90408e-21
1.37021e-20
4.84897e-21
6.57141e-21
1.23133e-20
3.68807e-21
-6.77625e-21
-2.7105e-20
1.78511e-20
1.11171e-20
-1.59658e-20
4.4058e-21
5.86657e-21
1.28765e-20
4.89914e-21
-2.4829e-20
-3.8582e-21
4.14709e-21
1.14834e-20
-9.68542e-21
1.53589e-21
6.86385e-21
6.23202e-21
1.1436e-20
-6.78353e-21
-3.13097e-23
-6.77625e-21
-2.71049e-20
8.59536e-21
-3.15914e-21
-1.13672e-20
2.83314e-20
-6.3422e-21
1.96215e-20
-1.67067e-20
7.00912e-21
6.19365e-21
-3.93132e-21
3.31224e-21
1.33195e-20
-7.46098e-21
-8.05704e-21
-1.37693e-20
-7.50311e-21
1.40954e-20
2.64791e-21
1.31656e-26
-1.35524e-20
-4.40236e-21
-2.06089e-21
1.97144e-20
-7.58697e-21
1.90356e-21
1.62022e-20
-2.60642e-23
-1.47603e-20
-9.44661e-22
9.68517e-21
-4.11994e-21
-1.56213e-21
-1.09033e-22
3.32652e-21
2.16429e-20
-6.13514e-23
-2.32962e-22
-1.28466e-20
-6.77625e-21
-6.77629e-21
-2.03287e-20
6.77627e-21
1.35526e-20
-1.35525e-20
1.73199e-26
1.21176e-26
-6.77625e-21
1.35525e-20
1.26925e-26
6.77627e-21
3.38813e-20
-1.35525e-20
1.10269e-26
-6.77626e-21
-6.77625e-21
8.47347e-27
9.87466e-27
-6.77626e-21
1.85686e-27
)
;

boundaryField
{
    movingWall
    {
        type            zeroGradient;
    }
    fixedWalls
    {
        type            zeroGradient;
    }
    frontAndBack
    {
        type            empty;
    }
}


// ************************************************************************* //
