/*--------------------------------*- C++ -*----------------------------------*\
| =========                 |                                                 |
| \\      /  F ield         | OpenFOAM: The Open Source CFD Toolbox           |
|  \\    /   O peration     | Version:  2506                                  |
|   \\  /    A nd           | Website:  www.openfoam.com                      |
|    \\/     M anipulation  |                                                 |
\*---------------------------------------------------------------------------*/
FoamFile
{
    version     2.0;
    format      ascii;
    arch        "LSB;label=32;scalar=64";
    class       volScalarField;
    location    "8";
    object      initialResidual:epsilon;
}
// * * * * * * * * * * * * * * * * * * * * * * * * * * * * * * * * * * * * * //

dimensions      [0 0 0 0 0 0 0];

internalField   nonuniform List<scalar> 
400
(
0
0
0
0
0
0
0
0
0
0
0
0
0
0
0
0
0
0
0
0
0
-1.65698e-13
-1.66275e-13
-1.66084e-13
-1.66232e-13
-1.66355e-13
-1.66507e-13
-1.66655e-13
-1.66803e-13
-1.66932e-13
-1.67127e-13
-1.67202e-13
-1.67456e-13
-1.67485e-13
-1.67775e-13
-1.67787e-13
-1.68075e-13
-1.68096e-13
-3.36274e-13
0
0
-1.78707e-13
-1.79465e-13
-1.79213e-13
-1.79376e-13
-1.7952e-13
-1.79683e-13
-1.79857e-13
-1.80016e-13
-1.80165e-13
-1.80382e-13
-1.80462e-13
-1.80754e-13
-1.80774e-13
-1.81111e-13
-1.81106e-13
-1.81443e-13
-1.81446e-13
-3.63362e-13
0
0
-1.92003e-13
-1.92832e-13
-1.92559e-13
-1.92736e-13
-1.92893e-13
-1.93074e-13
-1.93263e-13
-1.93435e-13
-1.93601e-13
-1.93834e-13
-1.93925e-13
-1.94242e-13
-1.94263e-13
-1.94633e-13
-1.94626e-13
-1.94996e-13
-1.94997e-13
-3.90496e-13
0
0
-2.02389e-13
-2.03261e-13
-2.02977e-13
-2.03167e-13
-2.03334e-13
-2.03528e-13
-2.03729e-13
-2.03914e-13
-2.04091e-13
-2.0434e-13
-2.04438e-13
-2.04776e-13
-2.04799e-13
-2.05193e-13
-2.05187e-13
-2.05581e-13
-2.05583e-13
-4.11697e-13
0
0
-2.09375e-13
-2.10288e-13
-2.09992e-13
-2.10192e-13
-2.10365e-13
-2.10568e-13
-2.10778e-13
-2.10972e-13
-2.11156e-13
-2.11417e-13
-2.11518e-13
-2.11871e-13
-2.11897e-13
-2.12306e-13
-2.12302e-13
-2.12712e-13
-2.12716e-13
-4.25984e-13
0
0
-2.13685e-13
-2.14642e-13
-2.14333e-13
-2.14536e-13
-2.14715e-13
-2.14922e-13
-2.15138e-13
-2.15338e-13
-2.15525e-13
-2.15795e-13
-2.15898e-13
-2.16261e-13
-2.16287e-13
-2.16708e-13
-2.16704e-13
-2.17125e-13
-2.1713e-13
-4.34825e-13
0
0
-2.16298e-13
-2.17266e-13
-2.16954e-13
-2.17161e-13
-2.17343e-13
-2.17554e-13
-2.17772e-13
-2.17977e-13
-2.18165e-13
-2.18441e-13
-2.18544e-13
-2.18914e-13
-2.18941e-13
-2.19368e-13
-2.19364e-13
-2.19791e-13
-2.19797e-13
-4.40168e-13
0
0
-2.17961e-13
-2.18923e-13
-2.18613e-13
-2.18825e-13
-2.19007e-13
-2.19221e-13
-2.19441e-13
-2.19648e-13
-2.19838e-13
-2.20116e-13
-2.20221e-13
-2.20594e-13
-2.20622e-13
-2.21052e-13
-2.2105e-13
-2.2148e-13
-2.21487e-13
-4.43553e-13
0
0
-2.19126e-13
-2.20119e-13
-2.198e-13
-2.2001e-13
-2.20194e-13
-2.20409e-13
-2.20631e-13
-2.2084e-13
-2.2103e-13
-2.21312e-13
-2.21417e-13
-2.21792e-13
-2.2182e-13
-2.22254e-13
-2.22252e-13
-2.22684e-13
-2.22691e-13
-4.45967e-13
0
0
-2.20125e-13
-2.21093e-13
-2.20782e-13
-2.20997e-13
-2.21182e-13
-2.21397e-13
-2.21622e-13
-2.2183e-13
-2.22023e-13
-2.22305e-13
-2.22412e-13
-2.22788e-13
-2.22818e-13
-2.23252e-13
-2.23251e-13
-2.23686e-13
-2.23693e-13
-4.47973e-13
0
0
-2.21049e-13
-2.2204e-13
-2.21722e-13
-2.21936e-13
-2.22122e-13
-2.22339e-13
-2.22563e-13
-2.22775e-13
-2.22967e-13
-2.23252e-13
-2.23358e-13
-2.23738e-13
-2.23766e-13
-2.24204e-13
-2.24203e-13
-2.2464e-13
-2.24647e-13
-4.49884e-13
0
0
-2.22019e-13
-2.23022e-13
-2.22701e-13
-2.22915e-13
-2.23102e-13
-2.2332e-13
-2.23545e-13
-2.23758e-13
-2.23951e-13
-2.24238e-13
-2.24344e-13
-2.24727e-13
-2.24755e-13
-2.25196e-13
-2.25194e-13
-2.25633e-13
-2.25641e-13
-4.51875e-13
0
0
-2.23093e-13
-2.24085e-13
-2.23768e-13
-2.23986e-13
-2.24172e-13
-2.24393e-13
-2.24619e-13
-2.24833e-13
-2.25028e-13
-2.25316e-13
-2.25424e-13
-2.25807e-13
-2.25838e-13
-2.26279e-13
-2.26278e-13
-2.2672e-13
-2.26728e-13
-4.54051e-13
0
0
-2.24272e-13
-2.25282e-13
-2.24959e-13
-2.25176e-13
-2.25366e-13
-2.25587e-13
-2.25815e-13
-2.26031e-13
-2.26226e-13
-2.26517e-13
-2.26625e-13
-2.27011e-13
-2.27041e-13
-2.27486e-13
-2.27485e-13
-2.27929e-13
-2.27938e-13
-4.56474e-13
0
0
-2.25593e-13
-2.26586e-13
-2.26269e-13
-2.26491e-13
-2.26681e-13
-2.26903e-13
-2.27135e-13
-2.2735e-13
-2.27549e-13
-2.27839e-13
-2.2795e-13
-2.28337e-13
-2.28368e-13
-2.28816e-13
-2.28815e-13
-2.29263e-13
-2.29271e-13
-4.59145e-13
0
0
-2.26969e-13
-2.27972e-13
-2.27652e-13
-2.27874e-13
-2.28067e-13
-2.2829e-13
-2.28524e-13
-2.28741e-13
-2.28941e-13
-2.29233e-13
-2.29345e-13
-2.29734e-13
-2.29768e-13
-2.30217e-13
-2.30218e-13
-2.30667e-13
-2.30677e-13
-4.61959e-13
0
0
-2.28297e-13
-2.29298e-13
-2.2898e-13
-2.29205e-13
-2.29397e-13
-2.29624e-13
-2.29856e-13
-2.30078e-13
-2.30277e-13
-2.30574e-13
-2.30684e-13
-2.31078e-13
-2.3111e-13
-2.31562e-13
-2.31564e-13
-2.32015e-13
-2.32028e-13
-4.64661e-13
0
0
-2.29834e-13
-2.31053e-13
-2.30637e-13
-2.30841e-13
-2.31038e-13
-2.31246e-13
-2.31491e-13
-2.31691e-13
-2.319e-13
-2.32189e-13
-2.32295e-13
-2.32697e-13
-2.32711e-13
-2.33185e-13
-2.33161e-13
-2.33637e-13
-2.33622e-13
-4.67363e-13
0
0
0
0
0
0
0
0
0
0
0
0
0
0
0
0
0
0
0
0
0
)
;

boundaryField
{
    movingWall
    {
        type            zeroGradient;
    }
    fixedWalls
    {
        type            zeroGradient;
    }
    frontAndBack
    {
        type            empty;
    }
}


// ************************************************************************* //
