/*--------------------------------*- C++ -*----------------------------------*\
| =========                 |                                                 |
| \\      /  F ield         | OpenFOAM: The Open Source CFD Toolbox           |
|  \\    /   O peration     | Version:  2506                                  |
|   \\  /    A nd           | Website:  www.openfoam.com                      |
|    \\/     M anipulation  |                                                 |
\*---------------------------------------------------------------------------*/
FoamFile
{
    version     2.0;
    format      ascii;
    arch        "LSB;label=32;scalar=64";
    class       volScalarField;
    location    "8";
    object      initialResidual:k;
}
// * * * * * * * * * * * * * * * * * * * * * * * * * * * * * * * * * * * * * //

dimensions      [0 0 0 0 0 0 0];

internalField   nonuniform List<scalar> 
400
(
-3.25036e-13
-3.2497e-13
-3.24992e-13
-3.25029e-13
-3.24975e-13
-3.25064e-13
-3.24894e-13
-3.252e-13
-3.24724e-13
-3.25447e-13
-3.2447e-13
-3.25563e-13
-3.24493e-13
-3.25423e-13
-3.24721e-13
-3.25162e-13
-3.24948e-13
-3.25016e-13
-3.25003e-13
-3.25006e-13
-3.39487e-13
-3.41623e-13
-3.38572e-13
-3.40425e-13
-3.39162e-13
-3.40118e-13
-3.39469e-13
-3.40031e-13
-3.39505e-13
-3.40175e-13
-3.39355e-13
-3.40407e-13
-3.39116e-13
-3.40321e-13
-3.39199e-13
-3.4018e-13
-3.39392e-13
-3.39759e-13
-3.39687e-13
-3.39739e-13
-3.61802e-13
-3.63079e-13
-3.60912e-13
-3.61295e-13
-3.62233e-13
-3.61546e-13
-3.61674e-13
-3.61649e-13
-3.61706e-13
-3.61615e-13
-3.61721e-13
-3.6156e-13
-3.61734e-13
-3.61714e-13
-3.61663e-13
-3.61687e-13
-3.61744e-13
-3.61703e-13
-3.61664e-13
-3.61657e-13
-3.82388e-13
-3.84649e-13
-3.81198e-13
-3.82385e-13
-3.82754e-13
-3.82372e-13
-3.82925e-13
-3.82366e-13
-3.82582e-13
-3.82536e-13
-3.82584e-13
-3.825e-13
-3.82601e-13
-3.82502e-13
-3.82599e-13
-3.82563e-13
-3.82557e-13
-3.82562e-13
-3.82525e-13
-3.82526e-13
-3.98422e-13
-3.98087e-13
-3.98566e-13
-3.98222e-13
-3.98413e-13
-3.98166e-13
-3.98454e-13
-3.98066e-13
-3.98419e-13
-3.98113e-13
-3.98296e-13
-3.9844e-13
-3.97812e-13
-3.9872e-13
-3.97757e-13
-3.98679e-13
-3.97809e-13
-3.98269e-13
-3.9821e-13
-3.98195e-13
-4.0846e-13
-4.09495e-13
-4.07763e-13
-4.0844e-13
-4.08489e-13
-4.0816e-13
-4.08682e-13
-4.08235e-13
-4.08547e-13
-4.0836e-13
-4.08413e-13
-4.08355e-13
-4.08417e-13
-4.08455e-13
-4.0839e-13
-4.08485e-13
-4.08322e-13
-4.0838e-13
-4.08357e-13
-4.08365e-13
-4.14168e-13
-4.16995e-13
-4.1284e-13
-4.14882e-13
-4.14084e-13
-4.14916e-13
-4.14121e-13
-4.14931e-13
-4.14078e-13
-4.15002e-13
-4.13995e-13
-4.15014e-13
-4.13977e-13
-4.14943e-13
-4.14046e-13
-4.14805e-13
-4.1418e-13
-4.14498e-13
-4.14405e-13
-4.14453e-13
-4.17745e-13
-4.20769e-13
-4.1631e-13
-4.18715e-13
-4.17447e-13
-4.19057e-13
-4.17179e-13
-4.19205e-13
-4.16988e-13
-4.19034e-13
-4.17116e-13
-4.18882e-13
-4.17281e-13
-4.18699e-13
-4.17472e-13
-4.18463e-13
-4.17703e-13
-4.18092e-13
-4.17985e-13
-4.18044e-13
-4.20173e-13
-4.22837e-13
-4.18614e-13
-4.2117e-13
-4.19644e-13
-4.20188e-13
-4.2054e-13
-4.20147e-13
-4.20463e-13
-4.20277e-13
-4.20348e-13
-4.20334e-13
-4.20326e-13
-4.20835e-13
-4.19848e-13
-4.20815e-13
-4.19891e-13
-4.2032e-13
-4.20237e-13
-4.20295e-13
-4.21619e-13
-4.24481e-13
-4.20309e-13
-4.22227e-13
-4.21663e-13
-4.22297e-13
-4.21663e-13
-4.22477e-13
-4.21472e-13
-4.22542e-13
-4.2137e-13
-4.22552e-13
-4.2135e-13
-4.22475e-13
-4.21432e-13
-4.22313e-13
-4.21596e-13
-4.21956e-13
-4.2186e-13
-4.2191e-13
-4.23402e-13
-4.24518e-13
-4.22629e-13
-4.2303e-13
-4.23761e-13
-4.23081e-13
-4.23685e-13
-4.23197e-13
-4.23275e-13
-4.23277e-13
-4.23355e-13
-4.23264e-13
-4.2336e-13
-4.23221e-13
-4.23304e-13
-4.23327e-13
-4.23358e-13
-4.23331e-13
-4.23292e-13
-4.23274e-13
-4.24273e-13
-4.27472e-13
-4.22766e-13
-4.25307e-13
-4.23983e-13
-4.2559e-13
-4.23762e-13
-4.25839e-13
-4.23478e-13
-4.25734e-13
-4.23543e-13
-4.25524e-13
-4.23742e-13
-4.25294e-13
-4.2397e-13
-4.25032e-13
-4.24228e-13
-4.24644e-13
-4.24528e-13
-4.24594e-13
-4.25701e-13
-4.28784e-13
-4.24253e-13
-4.2662e-13
-4.25458e-13
-4.2707e-13
-4.25063e-13
-4.2731e-13
-4.24762e-13
-4.27103e-13
-4.24924e-13
-4.269e-13
-4.2514e-13
-4.26694e-13
-4.25359e-13
-4.2643e-13
-4.25617e-13
-4.26033e-13
-4.2592e-13
-4.25983e-13
-4.2737e-13
-4.30015e-13
-4.25848e-13
-4.28395e-13
-4.26864e-13
-4.27386e-13
-4.27794e-13
-4.27364e-13
-4.27679e-13
-4.27497e-13
-4.27561e-13
-4.27593e-13
-4.27512e-13
-4.28068e-13
-4.27054e-13
-4.28045e-13
-4.27098e-13
-4.27533e-13
-4.27457e-13
-4.27512e-13
-4.28859e-13
-4.32136e-13
-4.27361e-13
-4.29885e-13
-4.28632e-13
-4.30117e-13
-4.28476e-13
-4.30238e-13
-4.28313e-13
-4.30172e-13
-4.28349e-13
-4.30134e-13
-4.284e-13
-4.29981e-13
-4.2856e-13
-4.2972e-13
-4.28821e-13
-4.29274e-13
-4.29163e-13
-4.29224e-13
-4.31362e-13
-4.31039e-13
-4.31446e-13
-4.31306e-13
-4.31426e-13
-4.30994e-13
-4.31433e-13
-4.30951e-13
-4.31328e-13
-4.31055e-13
-4.31227e-13
-4.31376e-13
-4.30762e-13
-4.31671e-13
-4.30672e-13
-4.31555e-13
-4.30787e-13
-4.31235e-13
-4.31139e-13
-4.31123e-13
-4.33314e-13
-4.34318e-13
-4.32584e-13
-4.32807e-13
-4.33721e-13
-4.32933e-13
-4.33335e-13
-4.33111e-13
-4.33199e-13
-4.33138e-13
-4.33233e-13
-4.33045e-13
-4.33189e-13
-4.33217e-13
-4.33163e-13
-4.33172e-13
-4.33254e-13
-4.33194e-13
-4.33149e-13
-4.33137e-13
-4.34772e-13
-4.38092e-13
-4.33103e-13
-4.35914e-13
-4.34311e-13
-4.3598e-13
-4.3431e-13
-4.36125e-13
-4.34171e-13
-4.36174e-13
-4.3411e-13
-4.36041e-13
-4.34221e-13
-4.35817e-13
-4.34435e-13
-4.35537e-13
-4.34705e-13
-4.35137e-13
-4.35016e-13
-4.35085e-13
-4.36253e-13
-4.39613e-13
-4.34801e-13
-4.37353e-13
-4.36052e-13
-4.37415e-13
-4.36037e-13
-4.37591e-13
-4.35876e-13
-4.37669e-13
-4.35795e-13
-4.37586e-13
-4.35859e-13
-4.37401e-13
-4.36038e-13
-4.37146e-13
-4.36289e-13
-4.36725e-13
-4.36609e-13
-4.36672e-13
-4.3753e-13
-4.37588e-13
-4.37591e-13
-4.37551e-13
-4.37621e-13
-4.37535e-13
-4.37612e-13
-4.37543e-13
-4.37583e-13
-4.37569e-13
-4.37573e-13
-4.37608e-13
-4.37543e-13
-4.37604e-13
-4.37547e-13
-4.3759e-13
-4.37565e-13
-4.37576e-13
-4.37573e-13
-4.37574e-13
)
;

boundaryField
{
    movingWall
    {
        type            zeroGradient;
    }
    fixedWalls
    {
        type            zeroGradient;
    }
    frontAndBack
    {
        type            empty;
    }
}


// ************************************************************************* //
