/*--------------------------------*- C++ -*----------------------------------*\
| =========                 |                                                 |
| \\      /  F ield         | OpenFOAM: The Open Source CFD Toolbox           |
|  \\    /   O peration     | Version:  2506                                  |
|   \\  /    A nd           | Website:  www.openfoam.com                      |
|    \\/     M anipulation  |                                                 |
\*---------------------------------------------------------------------------*/
FoamFile
{
    version     2.0;
    format      ascii;
    arch        "LSB;label=32;scalar=64";
    class       volScalarField;
    location    "8";
    object      k2;
}
// * * * * * * * * * * * * * * * * * * * * * * * * * * * * * * * * * * * * * //

dimensions      [0 4 -4 0 0 0 0];

internalField   nonuniform List<scalar> 
400
(
1.69136e-11
1.69136e-11
1.69136e-11
1.69136e-11
1.69136e-11
1.69136e-11
1.69135e-11
1.69135e-11
1.69135e-11
1.69135e-11
1.69135e-11
1.69135e-11
1.69135e-11
1.69135e-11
1.69135e-11
1.69135e-11
1.69135e-11
1.69135e-11
1.69135e-11
1.69135e-11
1.76379e-11
1.76379e-11
1.76367e-11
1.76363e-11
1.76356e-11
1.76352e-11
1.76345e-11
1.76342e-11
1.76336e-11
1.76333e-11
1.76329e-11
1.76327e-11
1.76323e-11
1.76321e-11
1.76319e-11
1.76318e-11
1.76316e-11
1.76315e-11
1.76315e-11
1.76315e-11
1.87961e-11
1.87961e-11
1.87948e-11
1.87944e-11
1.87935e-11
1.8793e-11
1.87924e-11
1.87919e-11
1.87913e-11
1.8791e-11
1.87905e-11
1.87902e-11
1.87899e-11
1.87897e-11
1.87894e-11
1.87893e-11
1.8789e-11
1.8789e-11
1.87889e-11
1.87889e-11
2.00271e-11
2.00271e-11
2.00257e-11
2.00252e-11
2.00242e-11
2.00238e-11
2.00229e-11
2.00225e-11
2.00218e-11
2.00215e-11
2.00209e-11
2.00207e-11
2.00202e-11
2.00201e-11
2.00197e-11
2.00196e-11
2.00193e-11
2.00193e-11
2.00192e-11
2.00192e-11
2.10703e-11
2.10702e-11
2.10688e-11
2.10681e-11
2.10672e-11
2.10665e-11
2.10658e-11
2.10651e-11
2.10647e-11
2.1064e-11
2.10637e-11
2.10631e-11
2.10628e-11
2.10626e-11
2.10622e-11
2.10621e-11
2.10619e-11
2.10618e-11
2.10617e-11
2.10617e-11
2.18324e-11
2.18323e-11
2.18307e-11
2.18301e-11
2.18291e-11
2.18285e-11
2.18276e-11
2.1827e-11
2.18264e-11
2.18258e-11
2.18254e-11
2.18249e-11
2.18245e-11
2.18242e-11
2.18239e-11
2.18237e-11
2.18235e-11
2.18234e-11
2.18233e-11
2.18233e-11
2.23391e-11
2.23391e-11
2.23374e-11
2.23368e-11
2.23357e-11
2.23351e-11
2.23342e-11
2.23337e-11
2.23329e-11
2.23325e-11
2.23318e-11
2.23315e-11
2.2331e-11
2.23307e-11
2.23303e-11
2.23302e-11
2.23299e-11
2.23298e-11
2.23298e-11
2.23297e-11
2.26618e-11
2.26618e-11
2.26601e-11
2.26595e-11
2.26583e-11
2.26577e-11
2.26567e-11
2.26562e-11
2.26554e-11
2.2655e-11
2.26543e-11
2.2654e-11
2.26534e-11
2.26532e-11
2.26528e-11
2.26526e-11
2.26524e-11
2.26523e-11
2.26522e-11
2.26522e-11
2.28703e-11
2.28703e-11
2.28686e-11
2.28679e-11
2.28668e-11
2.28661e-11
2.28652e-11
2.28646e-11
2.28639e-11
2.28633e-11
2.28628e-11
2.28623e-11
2.28619e-11
2.28616e-11
2.28612e-11
2.2861e-11
2.28608e-11
2.28607e-11
2.28606e-11
2.28606e-11
2.30162e-11
2.30162e-11
2.30145e-11
2.30138e-11
2.30127e-11
2.30121e-11
2.30111e-11
2.30105e-11
2.30097e-11
2.30093e-11
2.30086e-11
2.30082e-11
2.30077e-11
2.30074e-11
2.3007e-11
2.30069e-11
2.30066e-11
2.30065e-11
2.30064e-11
2.30064e-11
2.31324e-11
2.31324e-11
2.31306e-11
2.313e-11
2.31287e-11
2.31281e-11
2.31272e-11
2.31266e-11
2.31258e-11
2.31253e-11
2.31246e-11
2.31243e-11
2.31237e-11
2.31235e-11
2.31231e-11
2.3123e-11
2.31227e-11
2.31226e-11
2.31225e-11
2.31225e-11
2.32382e-11
2.32382e-11
2.32364e-11
2.32358e-11
2.32346e-11
2.3234e-11
2.3233e-11
2.32324e-11
2.32316e-11
2.32312e-11
2.32304e-11
2.32301e-11
2.32295e-11
2.32293e-11
2.32289e-11
2.32287e-11
2.32285e-11
2.32284e-11
2.32283e-11
2.32283e-11
2.3345e-11
2.3345e-11
2.33432e-11
2.33426e-11
2.33414e-11
2.33407e-11
2.33397e-11
2.33392e-11
2.33383e-11
2.33379e-11
2.33372e-11
2.33369e-11
2.33363e-11
2.3336e-11
2.33356e-11
2.33355e-11
2.33352e-11
2.33351e-11
2.3335e-11
2.3335e-11
2.34592e-11
2.34592e-11
2.34574e-11
2.34567e-11
2.34556e-11
2.34549e-11
2.34539e-11
2.34533e-11
2.34526e-11
2.34519e-11
2.34514e-11
2.34509e-11
2.34504e-11
2.34501e-11
2.34497e-11
2.34496e-11
2.34493e-11
2.34492e-11
2.34491e-11
2.34491e-11
2.35837e-11
2.35837e-11
2.35819e-11
2.35812e-11
2.358e-11
2.35794e-11
2.35783e-11
2.35778e-11
2.35769e-11
2.35765e-11
2.35758e-11
2.35754e-11
2.35748e-11
2.35746e-11
2.35742e-11
2.3574e-11
2.35737e-11
2.35736e-11
2.35735e-11
2.35735e-11
2.37177e-11
2.37176e-11
2.37159e-11
2.37151e-11
2.3714e-11
2.37132e-11
2.37123e-11
2.37115e-11
2.3711e-11
2.37102e-11
2.37098e-11
2.37091e-11
2.37088e-11
2.37084e-11
2.37081e-11
2.37079e-11
2.37076e-11
2.37075e-11
2.37074e-11
2.37074e-11
2.3855e-11
2.38549e-11
2.38531e-11
2.38524e-11
2.38512e-11
2.38505e-11
2.38496e-11
2.38489e-11
2.38481e-11
2.38476e-11
2.38469e-11
2.38465e-11
2.3846e-11
2.38457e-11
2.38452e-11
2.38451e-11
2.38448e-11
2.38447e-11
2.38446e-11
2.38446e-11
2.39832e-11
2.39832e-11
2.39813e-11
2.39807e-11
2.39794e-11
2.39788e-11
2.39777e-11
2.39772e-11
2.39763e-11
2.39758e-11
2.39751e-11
2.39747e-11
2.39741e-11
2.39739e-11
2.39734e-11
2.39733e-11
2.3973e-11
2.39729e-11
2.39728e-11
2.39728e-11
2.40845e-11
2.40845e-11
2.40827e-11
2.40821e-11
2.40808e-11
2.40802e-11
2.40792e-11
2.40786e-11
2.40777e-11
2.40773e-11
2.40766e-11
2.40762e-11
2.40756e-11
2.40754e-11
2.40749e-11
2.40748e-11
2.40745e-11
2.40744e-11
2.40743e-11
2.40743e-11
2.4131e-11
2.4131e-11
2.4131e-11
2.4131e-11
2.41309e-11
2.41309e-11
2.41309e-11
2.41309e-11
2.41309e-11
2.41309e-11
2.41309e-11
2.41309e-11
2.41309e-11
2.41309e-11
2.41309e-11
2.41309e-11
2.41309e-11
2.41309e-11
2.41309e-11
2.41309e-11
)
;

boundaryField
{
    movingWall
    {
        type            calculated;
        value           nonuniform List<scalar> 
20
(
2.4131e-11
2.4131e-11
2.4131e-11
2.4131e-11
2.41309e-11
2.41309e-11
2.41309e-11
2.41309e-11
2.41309e-11
2.41309e-11
2.41309e-11
2.41309e-11
2.41309e-11
2.41309e-11
2.41309e-11
2.41309e-11
2.41309e-11
2.41309e-11
2.41309e-11
2.41309e-11
)
;
    }
    fixedWalls
    {
        type            calculated;
        value           nonuniform List<scalar> 
60
(
1.69136e-11
1.76379e-11
1.87961e-11
2.00271e-11
2.10703e-11
2.18324e-11
2.23391e-11
2.26618e-11
2.28703e-11
2.30162e-11
2.31324e-11
2.32382e-11
2.3345e-11
2.34592e-11
2.35837e-11
2.37177e-11
2.3855e-11
2.39832e-11
2.40845e-11
2.4131e-11
1.69135e-11
1.76315e-11
1.87889e-11
2.00192e-11
2.10617e-11
2.18233e-11
2.23297e-11
2.26522e-11
2.28606e-11
2.30064e-11
2.31225e-11
2.32283e-11
2.3335e-11
2.34491e-11
2.35735e-11
2.37074e-11
2.38446e-11
2.39728e-11
2.40743e-11
2.41309e-11
1.69136e-11
1.69136e-11
1.69136e-11
1.69136e-11
1.69136e-11
1.69136e-11
1.69135e-11
1.69135e-11
1.69135e-11
1.69135e-11
1.69135e-11
1.69135e-11
1.69135e-11
1.69135e-11
1.69135e-11
1.69135e-11
1.69135e-11
1.69135e-11
1.69135e-11
1.69135e-11
)
;
    }
    frontAndBack
    {
        type            empty;
    }
}


// ************************************************************************* //
