/*--------------------------------*- C++ -*----------------------------------*\
| =========                 |                                                 |
| \\      /  F ield         | OpenFOAM: The Open Source CFD Toolbox           |
|  \\    /   O peration     | Version:  2506                                  |
|   \\  /    A nd           | Website:  www.openfoam.com                      |
|    \\/     M anipulation  |                                                 |
\*---------------------------------------------------------------------------*/
FoamFile
{
    version     2.0;
    format      ascii;
    arch        "LSB;label=32;scalar=64";
    class       volScalarField;
    location    "8";
    object      kDiff;
}
// * * * * * * * * * * * * * * * * * * * * * * * * * * * * * * * * * * * * * //

dimensions      [0 2 -2 0 0 0 0];

internalField   nonuniform List<scalar> 
400
(
-6.49033e-09
-6.48966e-09
-6.49028e-09
-6.49038e-09
-6.48989e-09
-6.49076e-09
-6.4897e-09
-6.49142e-09
-6.48875e-09
-6.49289e-09
-6.48675e-09
-6.49398e-09
-6.48663e-09
-6.49328e-09
-6.48802e-09
-6.49151e-09
-6.48968e-09
-6.49031e-09
-6.4902e-09
-6.49023e-09
-6.78853e-09
-6.79856e-09
-6.76816e-09
-6.79736e-09
-6.77354e-09
-6.79303e-09
-6.77834e-09
-6.79021e-09
-6.78015e-09
-6.79042e-09
-6.77865e-09
-6.7917e-09
-6.77573e-09
-6.79154e-09
-6.77707e-09
-6.78972e-09
-6.77913e-09
-6.78567e-09
-6.78317e-09
-6.78394e-09
-7.22703e-09
-7.2343e-09
-7.20713e-09
-7.22481e-09
-7.22879e-09
-7.21505e-09
-7.22646e-09
-7.21528e-09
-7.22927e-09
-7.21122e-09
-7.23269e-09
-7.20842e-09
-7.2348e-09
-7.21064e-09
-7.23083e-09
-7.21481e-09
-7.22734e-09
-7.2188e-09
-7.22163e-09
-7.22104e-09
-7.64358e-09
-7.65224e-09
-7.61776e-09
-7.6429e-09
-7.64207e-09
-7.63044e-09
-7.65293e-09
-7.6199e-09
-7.65669e-09
-7.61769e-09
-7.65973e-09
-7.61503e-09
-7.6605e-09
-7.617e-09
-7.65638e-09
-7.62391e-09
-7.64747e-09
-7.63265e-09
-7.63851e-09
-7.63735e-09
-7.95108e-09
-7.95626e-09
-7.94781e-09
-7.96313e-09
-7.93725e-09
-7.96911e-09
-7.93375e-09
-7.96794e-09
-7.93609e-09
-7.96368e-09
-7.9413e-09
-7.95893e-09
-7.94133e-09
-7.95851e-09
-7.94383e-09
-7.95608e-09
-7.94496e-09
-7.95302e-09
-7.94974e-09
-7.95e-09
-8.15828e-09
-8.16305e-09
-8.14174e-09
-8.16191e-09
-8.14839e-09
-8.15711e-09
-8.15276e-09
-8.15587e-09
-8.15188e-09
-8.15668e-09
-8.15027e-09
-8.15653e-09
-8.15189e-09
-8.15637e-09
-8.15214e-09
-8.15515e-09
-8.15173e-09
-8.15369e-09
-8.15275e-09
-8.15298e-09
-8.28077e-09
-8.29347e-09
-8.25145e-09
-8.28936e-09
-8.26623e-09
-8.28438e-09
-8.26822e-09
-8.28316e-09
-8.26844e-09
-8.28302e-09
-8.26762e-09
-8.28281e-09
-8.26754e-09
-8.28173e-09
-8.26858e-09
-8.27964e-09
-8.2703e-09
-8.27644e-09
-8.27372e-09
-8.27453e-09
-8.3533e-09
-8.36637e-09
-8.32297e-09
-8.36298e-09
-8.33696e-09
-8.36042e-09
-8.33428e-09
-8.36115e-09
-8.33178e-09
-8.36007e-09
-8.3336e-09
-8.35801e-09
-8.33589e-09
-8.35547e-09
-8.33839e-09
-8.3523e-09
-8.3412e-09
-8.34837e-09
-8.34528e-09
-8.34621e-09
-8.39857e-09
-8.41118e-09
-8.36607e-09
-8.41419e-09
-8.36965e-09
-8.40879e-09
-8.37768e-09
-8.40634e-09
-8.37783e-09
-8.40597e-09
-8.37994e-09
-8.40218e-09
-8.38725e-09
-8.39869e-09
-8.38465e-09
-8.39757e-09
-8.38537e-09
-8.39327e-09
-8.39024e-09
-8.39115e-09
-8.42966e-09
-8.44276e-09
-8.39984e-09
-8.43799e-09
-8.41628e-09
-8.4329e-09
-8.41839e-09
-8.43286e-09
-8.41617e-09
-8.43326e-09
-8.4151e-09
-8.43294e-09
-8.41519e-09
-8.43165e-09
-8.41652e-09
-8.42924e-09
-8.41861e-09
-8.42552e-09
-8.42254e-09
-8.42338e-09
-8.45694e-09
-8.46059e-09
-8.43971e-09
-8.45319e-09
-8.46019e-09
-8.442e-09
-8.46697e-09
-8.43449e-09
-8.4681e-09
-8.43224e-09
-8.47271e-09
-8.42885e-09
-8.47343e-09
-8.42981e-09
-8.46947e-09
-8.43794e-09
-8.46153e-09
-8.44606e-09
-8.45201e-09
-8.45063e-09
-8.48437e-09
-8.49824e-09
-8.45259e-09
-8.49477e-09
-8.4673e-09
-8.49162e-09
-8.46556e-09
-8.49267e-09
-8.46202e-09
-8.49213e-09
-8.46301e-09
-8.4897e-09
-8.46566e-09
-8.48663e-09
-8.46858e-09
-8.48322e-09
-8.47168e-09
-8.47917e-09
-8.47596e-09
-8.47696e-09
-8.51238e-09
-8.5257e-09
-8.48138e-09
-8.5217e-09
-8.49661e-09
-8.5193e-09
-8.4923e-09
-8.52088e-09
-8.48837e-09
-8.51999e-09
-8.49054e-09
-8.5175e-09
-8.49343e-09
-8.51461e-09
-8.49625e-09
-8.51113e-09
-8.49935e-09
-8.50695e-09
-8.5037e-09
-8.50468e-09
-8.54223e-09
-8.55509e-09
-8.51006e-09
-8.55876e-09
-8.51308e-09
-8.55353e-09
-8.52148e-09
-8.5508e-09
-8.52153e-09
-8.55022e-09
-8.52418e-09
-8.54631e-09
-8.53111e-09
-8.54287e-09
-8.52855e-09
-8.54175e-09
-8.52925e-09
-8.53732e-09
-8.53429e-09
-8.53519e-09
-8.57634e-09
-8.59068e-09
-8.54428e-09
-8.5866e-09
-8.5596e-09
-8.58293e-09
-8.55857e-09
-8.5832e-09
-8.55656e-09
-8.58276e-09
-8.55742e-09
-8.5816e-09
-8.55842e-09
-8.57952e-09
-8.56057e-09
-8.57625e-09
-8.56363e-09
-8.57177e-09
-8.56837e-09
-8.56934e-09
-8.60841e-09
-8.61461e-09
-8.60436e-09
-8.62488e-09
-8.59187e-09
-8.62825e-09
-8.58816e-09
-8.62837e-09
-8.58901e-09
-8.62572e-09
-8.59443e-09
-8.62001e-09
-8.59635e-09
-8.61737e-09
-8.60015e-09
-8.6137e-09
-8.60258e-09
-8.61071e-09
-8.60692e-09
-8.60723e-09
-8.65337e-09
-8.65883e-09
-8.63658e-09
-8.64977e-09
-8.65695e-09
-8.63883e-09
-8.65904e-09
-8.63642e-09
-8.66158e-09
-8.63254e-09
-8.66555e-09
-8.62829e-09
-8.6674e-09
-8.63175e-09
-8.66253e-09
-8.63737e-09
-8.65699e-09
-8.64376e-09
-8.6484e-09
-8.64742e-09
-8.69398e-09
-8.70803e-09
-8.66e-09
-8.70501e-09
-8.67378e-09
-8.7008e-09
-8.67512e-09
-8.70081e-09
-8.67375e-09
-8.70071e-09
-8.67321e-09
-8.69908e-09
-8.6748e-09
-8.6963e-09
-8.67754e-09
-8.69275e-09
-8.68079e-09
-8.68856e-09
-8.68522e-09
-8.68627e-09
-8.72443e-09
-8.7395e-09
-8.69264e-09
-8.73521e-09
-8.70721e-09
-8.73065e-09
-8.70859e-09
-8.73108e-09
-8.70682e-09
-8.73148e-09
-8.70595e-09
-8.73035e-09
-8.70701e-09
-8.72797e-09
-8.70939e-09
-8.72464e-09
-8.71239e-09
-8.72031e-09
-8.71693e-09
-8.71792e-09
-8.73554e-09
-8.73634e-09
-8.73593e-09
-8.7357e-09
-8.73639e-09
-8.73546e-09
-8.73638e-09
-8.73553e-09
-8.73617e-09
-8.73584e-09
-8.73605e-09
-8.73619e-09
-8.73569e-09
-8.73611e-09
-8.7357e-09
-8.73604e-09
-8.73583e-09
-8.73593e-09
-8.73591e-09
-8.73591e-09
)
;

boundaryField
{
    movingWall
    {
        type            calculated;
        value           nonuniform List<scalar> 
20
(
-8.73554e-09
-8.73634e-09
-8.73593e-09
-8.7357e-09
-8.73639e-09
-8.73546e-09
-8.73638e-09
-8.73553e-09
-8.73617e-09
-8.73584e-09
-8.73605e-09
-8.73619e-09
-8.73569e-09
-8.73611e-09
-8.7357e-09
-8.73604e-09
-8.73583e-09
-8.73593e-09
-8.73591e-09
-8.73591e-09
)
;
    }
    fixedWalls
    {
        type            calculated;
        value           nonuniform List<scalar> 
60
(
-6.49033e-09
-6.78853e-09
-7.22703e-09
-7.64358e-09
-7.95108e-09
-8.15828e-09
-8.28077e-09
-8.3533e-09
-8.39857e-09
-8.42966e-09
-8.45694e-09
-8.48437e-09
-8.51238e-09
-8.54223e-09
-8.57634e-09
-8.60841e-09
-8.65337e-09
-8.69398e-09
-8.72443e-09
-8.73554e-09
-6.49023e-09
-6.78394e-09
-7.22104e-09
-7.63735e-09
-7.95e-09
-8.15298e-09
-8.27453e-09
-8.34621e-09
-8.39115e-09
-8.42338e-09
-8.45063e-09
-8.47696e-09
-8.50468e-09
-8.53519e-09
-8.56934e-09
-8.60723e-09
-8.64742e-09
-8.68627e-09
-8.71792e-09
-8.73591e-09
-6.49033e-09
-6.48966e-09
-6.49028e-09
-6.49038e-09
-6.48989e-09
-6.49076e-09
-6.4897e-09
-6.49142e-09
-6.48875e-09
-6.49289e-09
-6.48675e-09
-6.49398e-09
-6.48663e-09
-6.49328e-09
-6.48802e-09
-6.49151e-09
-6.48968e-09
-6.49031e-09
-6.4902e-09
-6.49023e-09
)
;
    }
    frontAndBack
    {
        type            empty;
    }
}


// ************************************************************************* //
