/*--------------------------------*- C++ -*----------------------------------*\
| =========                 |                                                 |
| \\      /  F ield         | OpenFOAM: The Open Source CFD Toolbox           |
|  \\    /   O peration     | Version:  2506                                  |
|   \\  /    A nd           | Website:  www.openfoam.com                      |
|    \\/     M anipulation  |                                                 |
\*---------------------------------------------------------------------------*/
FoamFile
{
    version     2.0;
    format      ascii;
    arch        "LSB;label=32;scalar=64";
    class       volScalarField;
    location    "8";
    object      kTotal;
}
// * * * * * * * * * * * * * * * * * * * * * * * * * * * * * * * * * * * * * //

dimensions      [0 2 -2 0 0 0 0];

internalField   nonuniform List<scalar> 
400
(
8.22524e-06
8.22523e-06
8.22523e-06
8.22523e-06
8.22522e-06
8.22522e-06
8.22522e-06
8.22522e-06
8.22521e-06
8.22522e-06
8.22521e-06
8.22522e-06
8.2252e-06
8.22522e-06
8.22521e-06
8.22521e-06
8.22521e-06
8.22521e-06
8.22521e-06
8.22521e-06
8.3995e-06
8.3995e-06
8.39923e-06
8.39913e-06
8.39895e-06
8.39886e-06
8.3987e-06
8.39862e-06
8.39848e-06
8.39842e-06
8.39831e-06
8.39825e-06
8.39817e-06
8.39813e-06
8.39807e-06
8.39804e-06
8.398e-06
8.39799e-06
8.39797e-06
8.39797e-06
8.67091e-06
8.6709e-06
8.6706e-06
8.6705e-06
8.6703e-06
8.67017e-06
8.67004e-06
8.66992e-06
8.6698e-06
8.66972e-06
8.66961e-06
8.66955e-06
8.66946e-06
8.66941e-06
8.66934e-06
8.66932e-06
8.66927e-06
8.66926e-06
8.66924e-06
8.66924e-06
8.95034e-06
8.95034e-06
8.95002e-06
8.94991e-06
8.94969e-06
8.94959e-06
8.9494e-06
8.94931e-06
8.94916e-06
8.94908e-06
8.94895e-06
8.9489e-06
8.94879e-06
8.94876e-06
8.94867e-06
8.94865e-06
8.9486e-06
8.94859e-06
8.94857e-06
8.94857e-06
9.18047e-06
9.18046e-06
9.18015e-06
9.18e-06
9.17981e-06
9.17966e-06
9.17951e-06
9.17936e-06
9.17925e-06
9.17911e-06
9.17904e-06
9.17892e-06
9.17885e-06
9.1788e-06
9.17873e-06
9.17869e-06
9.17865e-06
9.17863e-06
9.17861e-06
9.1786e-06
9.34502e-06
9.34502e-06
9.34468e-06
9.34455e-06
9.34432e-06
9.3442e-06
9.34402e-06
9.34389e-06
9.34376e-06
9.34363e-06
9.34353e-06
9.34343e-06
9.34335e-06
9.34328e-06
9.34321e-06
9.34317e-06
9.34313e-06
9.34311e-06
9.34309e-06
9.34309e-06
9.45285e-06
9.45286e-06
9.4525e-06
9.45238e-06
9.45214e-06
9.45201e-06
9.45181e-06
9.45171e-06
9.45154e-06
9.45145e-06
9.45131e-06
9.45124e-06
9.45113e-06
9.45108e-06
9.451e-06
9.45096e-06
9.45092e-06
9.4509e-06
9.45088e-06
9.45087e-06
9.52088e-06
9.52088e-06
9.52052e-06
9.52039e-06
9.52015e-06
9.52003e-06
9.51982e-06
9.51972e-06
9.51954e-06
9.51946e-06
9.51931e-06
9.51925e-06
9.51913e-06
9.51908e-06
9.519e-06
9.51896e-06
9.51891e-06
9.5189e-06
9.51888e-06
9.51887e-06
9.56459e-06
9.56459e-06
9.56423e-06
9.56409e-06
9.56385e-06
9.56372e-06
9.56353e-06
9.56339e-06
9.56326e-06
9.56313e-06
9.56302e-06
9.56292e-06
9.56282e-06
9.56276e-06
9.56269e-06
9.56265e-06
9.5626e-06
9.56258e-06
9.56256e-06
9.56256e-06
9.59505e-06
9.59505e-06
9.59468e-06
9.59455e-06
9.59431e-06
9.59418e-06
9.59397e-06
9.59386e-06
9.59369e-06
9.5936e-06
9.59345e-06
9.59338e-06
9.59327e-06
9.59321e-06
9.59313e-06
9.5931e-06
9.59305e-06
9.59303e-06
9.59301e-06
9.593e-06
9.61923e-06
9.61922e-06
9.61886e-06
9.61873e-06
9.61847e-06
9.61835e-06
9.61815e-06
9.61802e-06
9.61786e-06
9.61777e-06
9.61762e-06
9.61756e-06
9.61743e-06
9.61739e-06
9.6173e-06
9.61727e-06
9.61721e-06
9.6172e-06
9.61717e-06
9.61717e-06
9.64121e-06
9.64121e-06
9.64084e-06
9.64071e-06
9.64046e-06
9.64033e-06
9.64012e-06
9.64001e-06
9.63983e-06
9.63975e-06
9.6396e-06
9.63953e-06
9.63941e-06
9.63936e-06
9.63927e-06
9.63924e-06
9.63919e-06
9.63917e-06
9.63915e-06
9.63914e-06
9.66334e-06
9.66335e-06
9.66297e-06
9.66284e-06
9.66258e-06
9.66246e-06
9.66224e-06
9.66214e-06
9.66196e-06
9.66187e-06
9.66172e-06
9.66165e-06
9.66153e-06
9.66148e-06
9.6614e-06
9.66136e-06
9.66131e-06
9.66129e-06
9.66127e-06
9.66127e-06
9.68694e-06
9.68694e-06
9.68657e-06
9.68643e-06
9.68619e-06
9.68605e-06
9.68586e-06
9.68572e-06
9.68558e-06
9.68544e-06
9.68533e-06
9.68523e-06
9.68513e-06
9.68507e-06
9.68499e-06
9.68495e-06
9.6849e-06
9.68488e-06
9.68487e-06
9.68486e-06
9.71261e-06
9.71261e-06
9.71223e-06
9.7121e-06
9.71185e-06
9.71172e-06
9.71151e-06
9.7114e-06
9.71122e-06
9.71113e-06
9.71098e-06
9.71091e-06
9.71079e-06
9.71073e-06
9.71065e-06
9.71061e-06
9.71056e-06
9.71054e-06
9.71052e-06
9.71052e-06
9.74016e-06
9.74015e-06
9.73979e-06
9.73963e-06
9.7394e-06
9.73923e-06
9.73907e-06
9.7389e-06
9.73879e-06
9.73862e-06
9.73854e-06
9.73841e-06
9.73833e-06
9.73827e-06
9.73819e-06
9.73815e-06
9.7381e-06
9.73808e-06
9.73805e-06
9.73805e-06
9.76831e-06
9.7683e-06
9.76793e-06
9.7678e-06
9.76754e-06
9.7674e-06
9.76721e-06
9.76707e-06
9.76691e-06
9.7668e-06
9.76666e-06
9.76659e-06
9.76647e-06
9.76642e-06
9.76632e-06
9.7663e-06
9.76623e-06
9.76622e-06
9.7662e-06
9.76619e-06
9.79453e-06
9.79454e-06
9.79415e-06
9.79402e-06
9.79376e-06
9.79363e-06
9.79342e-06
9.79331e-06
9.79312e-06
9.79303e-06
9.79288e-06
9.7928e-06
9.79268e-06
9.79263e-06
9.79254e-06
9.79251e-06
9.79245e-06
9.79243e-06
9.79241e-06
9.79241e-06
9.81519e-06
9.8152e-06
9.81483e-06
9.8147e-06
9.81445e-06
9.81432e-06
9.81411e-06
9.814e-06
9.81382e-06
9.81373e-06
9.81358e-06
9.81351e-06
9.81339e-06
9.81333e-06
9.81325e-06
9.81321e-06
9.81316e-06
9.81314e-06
9.81312e-06
9.81311e-06
9.82467e-06
9.82467e-06
9.82466e-06
9.82466e-06
9.82466e-06
9.82465e-06
9.82465e-06
9.82465e-06
9.82465e-06
9.82464e-06
9.82464e-06
9.82464e-06
9.82464e-06
9.82464e-06
9.82464e-06
9.82464e-06
9.82464e-06
9.82464e-06
9.82464e-06
9.82464e-06
)
;

boundaryField
{
    movingWall
    {
        type            calculated;
        value           nonuniform List<scalar> 
20
(
9.82467e-06
9.82467e-06
9.82466e-06
9.82466e-06
9.82466e-06
9.82465e-06
9.82465e-06
9.82465e-06
9.82465e-06
9.82464e-06
9.82464e-06
9.82464e-06
9.82464e-06
9.82464e-06
9.82464e-06
9.82464e-06
9.82464e-06
9.82464e-06
9.82464e-06
9.82464e-06
)
;
    }
    fixedWalls
    {
        type            calculated;
        value           nonuniform List<scalar> 
60
(
8.22524e-06
8.3995e-06
8.67091e-06
8.95034e-06
9.18047e-06
9.34502e-06
9.45285e-06
9.52088e-06
9.56459e-06
9.59505e-06
9.61923e-06
9.64121e-06
9.66334e-06
9.68694e-06
9.71261e-06
9.74016e-06
9.76831e-06
9.79453e-06
9.81519e-06
9.82467e-06
8.22521e-06
8.39797e-06
8.66924e-06
8.94857e-06
9.1786e-06
9.34309e-06
9.45087e-06
9.51887e-06
9.56256e-06
9.593e-06
9.61717e-06
9.63914e-06
9.66127e-06
9.68486e-06
9.71052e-06
9.73805e-06
9.76619e-06
9.79241e-06
9.81311e-06
9.82464e-06
8.22524e-06
8.22523e-06
8.22523e-06
8.22523e-06
8.22522e-06
8.22522e-06
8.22522e-06
8.22522e-06
8.22521e-06
8.22522e-06
8.22521e-06
8.22522e-06
8.2252e-06
8.22522e-06
8.22521e-06
8.22521e-06
8.22521e-06
8.22521e-06
8.22521e-06
8.22521e-06
)
;
    }
    frontAndBack
    {
        type            empty;
    }
}


// ************************************************************************* //
