/*--------------------------------*- C++ -*----------------------------------*\
| =========                 |                                                 |
| \\      /  F ield         | OpenFOAM: The Open Source CFD Toolbox           |
|  \\    /   O peration     | Version:  2506                                  |
|   \\  /    A nd           | Website:  www.openfoam.com                      |
|    \\/     M anipulation  |                                                 |
\*---------------------------------------------------------------------------*/
FoamFile
{
    version     2.0;
    format      ascii;
    arch        "LSB;label=32;scalar=64";
    class       volVectorField;
    location    "8";
    object      kU;
}
// * * * * * * * * * * * * * * * * * * * * * * * * * * * * * * * * * * * * * //

dimensions      [0 3 -3 0 0 0 0];

internalField   nonuniform List<vector> 
400
(
(-4.10937e-06 2.37806e-19 0)
(-4.10937e-06 -4.61577e-20 0)
(-4.10937e-06 1.10388e-20 0)
(-4.10937e-06 -1.96048e-21 0)
(-4.10937e-06 5.44048e-22 0)
(-4.10937e-06 2.58389e-22 0)
(-4.10936e-06 4.42137e-22 0)
(-4.10936e-06 3.98268e-22 0)
(-4.10936e-06 4.29979e-22 0)
(-4.10936e-06 3.17715e-22 0)
(-4.10936e-06 8.10419e-23 0)
(-4.10936e-06 5.58496e-23 0)
(-4.10936e-06 2.07012e-22 0)
(-4.10936e-06 4.06719e-22 0)
(-4.10936e-06 8.83129e-23 0)
(-4.10936e-06 -1.67831e-22 0)
(-4.10936e-06 6.07302e-23 0)
(-4.10936e-06 3.03637e-22 0)
(-4.10936e-06 -6.78562e-23 0)
(-4.10936e-06 -1.65641e-22 0)
(-4.19635e-06 5.62329e-21 0)
(-4.19635e-06 -3.01136e-22 0)
(-4.19623e-06 3.28307e-22 0)
(-4.19617e-06 4.49777e-22 0)
(-4.19609e-06 4.42847e-22 0)
(-4.19603e-06 6.15299e-22 0)
(-4.19596e-06 5.43742e-22 0)
(-4.19591e-06 3.82957e-22 0)
(-4.19585e-06 1.72294e-22 0)
(-4.19581e-06 -5.54473e-23 0)
(-4.19576e-06 -8.44645e-23 0)
(-4.19573e-06 -5.96504e-23 0)
(-4.1957e-06 6.21385e-23 0)
(-4.19567e-06 6.65508e-22 0)
(-4.19564e-06 4.45778e-22 0)
(-4.19563e-06 3.66829e-22 0)
(-4.19561e-06 3.51407e-22 0)
(-4.1956e-06 -8.01386e-23 0)
(-4.19559e-06 -6.72648e-22 0)
(-4.19559e-06 -3.67341e-22 0)
(-4.33184e-06 -1.76046e-19 0)
(-4.33183e-06 3.3662e-20 0)
(-4.3317e-06 -8.03752e-21 0)
(-4.33164e-06 1.97789e-21 0)
(-4.33153e-06 3.13883e-22 0)
(-4.33148e-06 2.07907e-22 0)
(-4.3314e-06 1.46124e-22 0)
(-4.33135e-06 2.5268e-22 0)
(-4.33129e-06 -8.77543e-23 0)
(-4.33125e-06 -1.8037e-22 0)
(-4.33119e-06 -1.15432e-22 0)
(-4.33117e-06 -5.41774e-22 0)
(-4.33111e-06 -4.83524e-22 0)
(-4.3311e-06 1.55391e-22 0)
(-4.33106e-06 8.69981e-22 0)
(-4.33105e-06 7.096e-22 0)
(-4.33102e-06 2.56753e-22 0)
(-4.33102e-06 -6.76903e-22 0)
(-4.33101e-06 -9.48619e-22 0)
(-4.33101e-06 -4.30877e-22 0)
(-4.47135e-06 1.16319e-19 0)
(-4.47134e-06 -2.43588e-20 0)
(-4.4712e-06 5.78118e-21 0)
(-4.47114e-06 -9.12629e-22 0)
(-4.47102e-06 8.98485e-22 0)
(-4.47098e-06 7.43699e-22 0)
(-4.47087e-06 1.32872e-21 0)
(-4.47084e-06 1.1769e-21 0)
(-4.47075e-06 5.78381e-22 0)
(-4.47073e-06 2.89049e-22 0)
(-4.47064e-06 2.94333e-22 0)
(-4.47064e-06 1.52705e-22 0)
(-4.47056e-06 -1.91613e-23 0)
(-4.47057e-06 -5.08946e-22 0)
(-4.47051e-06 2.56167e-23 0)
(-4.47051e-06 1.70495e-22 0)
(-4.47047e-06 -2.41705e-23 0)
(-4.47048e-06 -4.52032e-22 0)
(-4.47047e-06 -5.13228e-22 0)
(-4.47046e-06 -3.2715e-22 0)
(-4.58626e-06 -5.30723e-20 0)
(-4.58625e-06 1.13556e-20 0)
(-4.5861e-06 -3.0839e-21 0)
(-4.58602e-06 4.1454e-24 0)
(-4.58593e-06 -3.12665e-22 0)
(-4.58584e-06 6.37603e-22 0)
(-4.58579e-06 8.80473e-22 0)
(-4.5857e-06 8.69766e-22 0)
(-4.58566e-06 8.68802e-22 0)
(-4.58557e-06 5.21597e-22 0)
(-4.58555e-06 4.80887e-22 0)
(-4.58548e-06 5.41419e-22 0)
(-4.58546e-06 6.21715e-23 0)
(-4.58542e-06 -7.44262e-22 0)
(-4.58539e-06 -8.24941e-22 0)
(-4.58537e-06 5.83458e-23 0)
(-4.58535e-06 4.09318e-22 0)
(-4.58534e-06 3.44527e-22 0)
(-4.58533e-06 1.79508e-22 0)
(-4.58533e-06 1.01142e-22 0)
(-4.66843e-06 -5.65244e-20 0)
(-4.66843e-06 9.7421e-21 0)
(-4.66827e-06 -4.06119e-21 0)
(-4.66819e-06 -4.1863e-22 0)
(-4.66809e-06 -5.98251e-22 0)
(-4.66802e-06 4.6331e-22 0)
(-4.66793e-06 5.7257e-22 0)
(-4.66787e-06 6.73958e-22 0)
(-4.6678e-06 9.22924e-22 0)
(-4.66774e-06 1.04748e-21 0)
(-4.66769e-06 9.50952e-22 0)
(-4.66764e-06 4.05249e-22 0)
(-4.6676e-06 -1.80081e-22 0)
(-4.66756e-06 -1.47671e-22 0)
(-4.66753e-06 -7.83088e-23 0)
(-4.66751e-06 -4.52091e-23 0)
(-4.66749e-06 9.84537e-23 0)
(-4.66748e-06 5.71429e-22 0)
(-4.66747e-06 4.59448e-22 0)
(-4.66747e-06 2.01535e-22 0)
(-4.72229e-06 1.14256e-19 0)
(-4.72228e-06 -2.2736e-20 0)
(-4.72212e-06 4.33783e-21 0)
(-4.72204e-06 -1.41163e-21 0)
(-4.72194e-06 3.899e-22 0)
(-4.72187e-06 8.75539e-22 0)
(-4.72177e-06 1.03218e-21 0)
(-4.72171e-06 6.24295e-22 0)
(-4.72163e-06 3.05687e-22 0)
(-4.72158e-06 3.42039e-22 0)
(-4.72152e-06 4.05554e-22 0)
(-4.72148e-06 3.31262e-22 0)
(-4.72143e-06 4.36614e-22 0)
(-4.7214e-06 6.4095e-22 0)
(-4.72137e-06 7.18097e-22 0)
(-4.72134e-06 3.83919e-22 0)
(-4.72132e-06 -1.63497e-22 0)
(-4.72131e-06 8.84847e-23 0)
(-4.7213e-06 4.12924e-22 0)
(-4.7213e-06 3.5724e-22 0)
(-4.75626e-06 -2.9139e-20 0)
(-4.75626e-06 4.2892e-21 0)
(-4.7561e-06 -1.34843e-21 0)
(-4.75602e-06 7.27243e-23 0)
(-4.75591e-06 1.27931e-22 0)
(-4.75583e-06 -2.45296e-22 0)
(-4.75574e-06 -3.61418e-22 0)
(-4.75568e-06 -1.06574e-22 0)
(-4.75561e-06 1.06513e-22 0)
(-4.75555e-06 -1.58747e-22 0)
(-4.75549e-06 -5.87456e-22 0)
(-4.75544e-06 -5.86949e-22 0)
(-4.7554e-06 -1.40771e-22 0)
(-4.75536e-06 -7.55936e-23 0)
(-4.75533e-06 -2.15584e-23 0)
(-4.75531e-06 2.05819e-22 0)
(-4.75529e-06 2.74002e-22 0)
(-4.75527e-06 4.3195e-22 0)
(-4.75527e-06 6.68042e-22 0)
(-4.75526e-06 6.54997e-22 0)
(-4.77809e-06 -1.17392e-19 0)
(-4.77809e-06 2.34846e-20 0)
(-4.77793e-06 -6.16152e-21 0)
(-4.77784e-06 1.46117e-21 0)
(-4.77774e-06 -2.83876e-23 0)
(-4.77765e-06 -3.70499e-22 0)
(-4.77758e-06 -8.61643e-22 0)
(-4.77749e-06 -5.10417e-22 0)
(-4.77744e-06 9.17231e-24 0)
(-4.77736e-06 -2.34838e-22 0)
(-4.77732e-06 -5.52587e-22 0)
(-4.77726e-06 -9.1949e-23 0)
(-4.77722e-06 2.57359e-22 0)
(-4.77718e-06 6.94683e-22 0)
(-4.77715e-06 5.95258e-22 0)
(-4.77713e-06 -1.20014e-22 0)
(-4.77711e-06 -8.01176e-23 0)
(-4.77709e-06 1.88867e-23 0)
(-4.77709e-06 2.04861e-22 0)
(-4.77708e-06 2.70764e-22 0)
(-4.79331e-06 1.1621e-19 0)
(-4.7933e-06 -2.45196e-20 0)
(-4.79314e-06 5.58708e-21 0)
(-4.79306e-06 -1.08902e-21 0)
(-4.79295e-06 5.18616e-22 0)
(-4.79287e-06 -1.16192e-22 0)
(-4.79278e-06 -1.67903e-22 0)
(-4.79272e-06 1.77082e-22 0)
(-4.79264e-06 5.12724e-23 0)
(-4.79258e-06 -9.9317e-23 0)
(-4.79252e-06 -3.52052e-22 0)
(-4.79247e-06 2.34955e-23 0)
(-4.79243e-06 7.61944e-22 0)
(-4.79239e-06 1.29133e-21 0)
(-4.79236e-06 1.20317e-21 0)
(-4.79233e-06 5.02882e-22 0)
(-4.79231e-06 2.33363e-22 0)
(-4.7923e-06 1.453e-22 0)
(-4.79229e-06 3.4557e-23 0)
(-4.79229e-06 -1.23378e-22 0)
(-4.80539e-06 -3.8974e-20 0)
(-4.80538e-06 6.89302e-21 0)
(-4.80521e-06 -9.84717e-22 0)
(-4.80514e-06 3.83377e-22 0)
(-4.80501e-06 2.31808e-22 0)
(-4.80495e-06 -9.04703e-25 0)
(-4.80484e-06 3.9445e-22 0)
(-4.80479e-06 5.95281e-22 0)
(-4.8047e-06 1.07695e-22 0)
(-4.80467e-06 1.78562e-22 0)
(-4.80457e-06 1.62502e-22 0)
(-4.80456e-06 -4.09962e-23 0)
(-4.80448e-06 2.6587e-22 0)
(-4.80448e-06 -1.32137e-22 0)
(-4.80441e-06 -3.42485e-22 0)
(-4.80442e-06 -1.90588e-22 0)
(-4.80437e-06 1.08876e-22 0)
(-4.80438e-06 1.78209e-22 0)
(-4.80436e-06 2.07825e-22 0)
(-4.80436e-06 2.62135e-22 0)
(-4.81636e-06 7.87616e-22 0)
(-4.81636e-06 4.44507e-21 0)
(-4.81619e-06 5.06545e-22 0)
(-4.81611e-06 1.15852e-21 0)
(-4.81599e-06 -3.1031e-24 0)
(-4.81592e-06 2.17886e-22 0)
(-4.81583e-06 3.53644e-22 0)
(-4.81576e-06 -6.28324e-23 0)
(-4.81568e-06 -1.11617e-22 0)
(-4.81563e-06 2.97916e-22 0)
(-4.81557e-06 3.92214e-22 0)
(-4.81552e-06 -8.22811e-23 0)
(-4.81547e-06 -1.28966e-22 0)
(-4.81544e-06 -7.87689e-23 0)
(-4.8154e-06 -1.7739e-23 0)
(-4.81538e-06 -2.61105e-22 0)
(-4.81536e-06 2.19248e-23 0)
(-4.81534e-06 7.82626e-23 0)
(-4.81534e-06 2.77413e-22 0)
(-4.81533e-06 6.65704e-22 0)
(-4.82741e-06 -3.13395e-21 0)
(-4.82741e-06 -8.09252e-22 0)
(-4.82724e-06 1.37132e-21 0)
(-4.82716e-06 1.2054e-22 0)
(-4.82704e-06 -5.9292e-22 0)
(-4.82697e-06 -1.20224e-22 0)
(-4.82688e-06 -1.29596e-23 0)
(-4.82681e-06 -2.06856e-22 0)
(-4.82673e-06 4.14065e-23 0)
(-4.82668e-06 1.20193e-22 0)
(-4.82662e-06 1.39372e-22 0)
(-4.82657e-06 -7.42401e-23 0)
(-4.82652e-06 -4.95985e-22 0)
(-4.82648e-06 -4.62077e-22 0)
(-4.82645e-06 -5.75313e-22 0)
(-4.82643e-06 -3.28621e-22 0)
(-4.82641e-06 -2.93843e-23 0)
(-4.82639e-06 2.37124e-22 0)
(-4.82638e-06 -1.93982e-23 0)
(-4.82638e-06 2.39857e-22 0)
(-4.8392e-06 -5.24143e-20 0)
(-4.83919e-06 9.8682e-21 0)
(-4.83903e-06 -1.62514e-21 0)
(-4.83894e-06 6.03997e-22 0)
(-4.83884e-06 2.93134e-22 0)
(-4.83875e-06 5.94712e-22 0)
(-4.83867e-06 5.72553e-22 0)
(-4.83858e-06 4.45446e-22 0)
(-4.83853e-06 -2.48908e-22 0)
(-4.83845e-06 -1.02462e-21 0)
(-4.8384e-06 -6.75667e-22 0)
(-4.83834e-06 1.32242e-23 0)
(-4.8383e-06 -2.12824e-22 0)
(-4.83826e-06 -2.7216e-22 0)
(-4.83823e-06 -7.11089e-22 0)
(-4.83821e-06 -4.19301e-22 0)
(-4.83819e-06 -5.98968e-22 0)
(-4.83817e-06 6.60344e-23 0)
(-4.83817e-06 3.25534e-23 0)
(-4.83816e-06 -6.15196e-23 0)
(-4.85202e-06 1.43042e-19 0)
(-4.85201e-06 -2.92731e-20 0)
(-4.85184e-06 6.35699e-21 0)
(-4.85176e-06 -1.23284e-21 0)
(-4.85164e-06 2.64689e-22 0)
(-4.85157e-06 -4.61366e-22 0)
(-4.85147e-06 -7.43334e-22 0)
(-4.85141e-06 -5.988e-22 0)
(-4.85133e-06 -5.68782e-22 0)
(-4.85127e-06 -4.12615e-22 0)
(-4.85121e-06 2.13197e-22 0)
(-4.85116e-06 3.57695e-22 0)
(-4.85111e-06 3.44632e-22 0)
(-4.85108e-06 2.16688e-22 0)
(-4.85104e-06 -4.07633e-22 0)
(-4.85102e-06 -7.1943e-22 0)
(-4.851e-06 -3.80646e-22 0)
(-4.85099e-06 3.06267e-22 0)
(-4.85098e-06 4.2864e-22 0)
(-4.85097e-06 1.48174e-22 0)
(-4.86578e-06 -1.75369e-19 0)
(-4.86577e-06 3.66562e-20 0)
(-4.86559e-06 -8.43823e-21 0)
(-4.8655e-06 1.74239e-21 0)
(-4.8654e-06 -2.80714e-22 0)
(-4.8653e-06 -3.48949e-22 0)
(-4.86524e-06 -9.80768e-22 0)
(-4.86513e-06 -8.72569e-22 0)
(-4.8651e-06 -4.38589e-22 0)
(-4.865e-06 -1.05151e-22 0)
(-4.86497e-06 4.86958e-23 0)
(-4.86489e-06 -2.5517e-22 0)
(-4.86487e-06 -1.57115e-22 0)
(-4.86482e-06 -4.86946e-22 0)
(-4.86479e-06 -8.54419e-22 0)
(-4.86477e-06 -6.20073e-22 0)
(-4.86475e-06 1.68159e-23 0)
(-4.86473e-06 -1.50101e-22 0)
(-4.86472e-06 -1.90446e-22 0)
(-4.86472e-06 8.59074e-23 0)
(-4.87983e-06 7.3983e-20 0)
(-4.87982e-06 -1.53757e-20 0)
(-4.87965e-06 3.39008e-21 0)
(-4.87957e-06 -1.3883e-21 0)
(-4.87944e-06 -2.69676e-22 0)
(-4.87938e-06 -3.76496e-22 0)
(-4.87928e-06 1.04386e-22 0)
(-4.87922e-06 1.37392e-23 0)
(-4.87913e-06 -2.63133e-22 0)
(-4.87909e-06 -1.64406e-22 0)
(-4.879e-06 -5.52349e-22 0)
(-4.87898e-06 -7.20272e-22 0)
(-4.8789e-06 -5.41511e-22 0)
(-4.87889e-06 -5.62584e-22 0)
(-4.87883e-06 -4.55932e-22 0)
(-4.87883e-06 -2.5494e-22 0)
(-4.87879e-06 -9.10506e-24 0)
(-4.87879e-06 -3.17522e-22 0)
(-4.87877e-06 -3.73267e-22 0)
(-4.87877e-06 3.54604e-23 0)
(-4.89292e-06 1.4354e-19 0)
(-4.89291e-06 -2.92331e-20 0)
(-4.89275e-06 6.01322e-21 0)
(-4.89266e-06 -1.83127e-21 0)
(-4.89254e-06 -2.53321e-22 0)
(-4.89247e-06 -5.64205e-22 0)
(-4.89237e-06 -1.32982e-22 0)
(-4.8923e-06 -5.5693e-22 0)
(-4.89222e-06 -6.87339e-22 0)
(-4.89216e-06 -3.83395e-22 0)
(-4.8921e-06 -6.78337e-22 0)
(-4.89205e-06 -4.99279e-22 0)
(-4.892e-06 -4.03595e-23 0)
(-4.89197e-06 9.61481e-23 0)
(-4.89193e-06 1.16698e-22 0)
(-4.89191e-06 5.86625e-23 0)
(-4.89189e-06 -2.14713e-22 0)
(-4.89187e-06 -5.48597e-22 0)
(-4.89186e-06 -2.94735e-22 0)
(-4.89186e-06 -2.11813e-23 0)
(-4.90323e-06 -1.55892e-19 0)
(-4.90323e-06 3.10974e-20 0)
(-4.90307e-06 -7.7654e-21 0)
(-4.90298e-06 1.25305e-21 0)
(-4.90287e-06 -3.038e-22 0)
(-4.90279e-06 4.23117e-23 0)
(-4.9027e-06 -1.56545e-22 0)
(-4.90263e-06 -5.33163e-22 0)
(-4.90256e-06 -5.0526e-22 0)
(-4.9025e-06 -3.08974e-22 0)
(-4.90244e-06 -5.61536e-22 0)
(-4.90239e-06 -6.81341e-22 0)
(-4.90234e-06 -4.01593e-22 0)
(-4.9023e-06 -2.16344e-22 0)
(-4.90227e-06 1.65153e-22 0)
(-4.90224e-06 3.47853e-22 0)
(-4.90222e-06 -4.48904e-22 0)
(-4.90221e-06 -1.05033e-21 0)
(-4.9022e-06 -5.15048e-22 0)
(-4.9022e-06 -4.44968e-23 0)
(-4.90797e-06 -2.42308e-20 0)
(-4.90796e-06 1.41989e-21 0)
(-4.90796e-06 -1.30424e-21 0)
(-4.90796e-06 -7.67596e-22 0)
(-4.90796e-06 -8.81839e-22 0)
(-4.90796e-06 -7.19772e-22 0)
(-4.90796e-06 -5.46055e-22 0)
(-4.90796e-06 -3.64058e-22 0)
(-4.90795e-06 2.14342e-23 0)
(-4.90795e-06 4.02964e-22 0)
(-4.90795e-06 4.00209e-22 0)
(-4.90795e-06 1.37904e-23 0)
(-4.90795e-06 -2.93733e-22 0)
(-4.90795e-06 -4.72251e-22 0)
(-4.90795e-06 -2.56574e-22 0)
(-4.90795e-06 -2.53064e-22 0)
(-4.90795e-06 -4.32003e-22 0)
(-4.90795e-06 -6.0624e-22 0)
(-4.90795e-06 -2.71277e-22 0)
(-4.90795e-06 6.9337e-23 0)
)
;

boundaryField
{
    movingWall
    {
        type            calculated;
        value           nonuniform List<vector> 
20
(
(-4.90797e-06 -0 -0)
(-4.90796e-06 -0 -0)
(-4.90796e-06 -0 -0)
(-4.90796e-06 -0 -0)
(-4.90796e-06 -0 -0)
(-4.90796e-06 -0 -0)
(-4.90796e-06 -0 -0)
(-4.90796e-06 -0 -0)
(-4.90795e-06 -0 -0)
(-4.90795e-06 -0 -0)
(-4.90795e-06 -0 -0)
(-4.90795e-06 -0 -0)
(-4.90795e-06 -0 -0)
(-4.90795e-06 -0 -0)
(-4.90795e-06 -0 -0)
(-4.90795e-06 -0 -0)
(-4.90795e-06 -0 -0)
(-4.90795e-06 -0 -0)
(-4.90795e-06 -0 -0)
(-4.90795e-06 -0 -0)
)
;
    }
    fixedWalls
    {
        type            calculated;
        value           nonuniform List<vector> 
60
(
(-4.10937e-06 -0 -0)
(-4.19635e-06 -0 -0)
(-4.33184e-06 -0 -0)
(-4.47135e-06 -0 -0)
(-4.58626e-06 -0 -0)
(-4.66843e-06 -0 -0)
(-4.72229e-06 -0 -0)
(-4.75626e-06 -0 -0)
(-4.77809e-06 -0 -0)
(-4.79331e-06 -0 -0)
(-4.80539e-06 -0 -0)
(-4.81636e-06 -0 -0)
(-4.82741e-06 -0 -0)
(-4.8392e-06 -0 -0)
(-4.85202e-06 -0 -0)
(-4.86578e-06 -0 -0)
(-4.87983e-06 -0 -0)
(-4.89292e-06 -0 -0)
(-4.90323e-06 -0 -0)
(-4.90797e-06 -0 -0)
(-4.10936e-06 -0 -0)
(-4.19559e-06 -0 -0)
(-4.33101e-06 -0 -0)
(-4.47046e-06 -0 -0)
(-4.58533e-06 -0 -0)
(-4.66747e-06 -0 -0)
(-4.7213e-06 -0 -0)
(-4.75526e-06 -0 -0)
(-4.77708e-06 -0 -0)
(-4.79229e-06 -0 -0)
(-4.80436e-06 -0 -0)
(-4.81533e-06 -0 -0)
(-4.82638e-06 -0 -0)
(-4.83816e-06 -0 -0)
(-4.85097e-06 -0 -0)
(-4.86472e-06 -0 -0)
(-4.87877e-06 -0 -0)
(-4.89186e-06 -0 -0)
(-4.9022e-06 -0 -0)
(-4.90795e-06 -0 -0)
(-4.10937e-06 -0 -0)
(-4.10937e-06 -0 -0)
(-4.10937e-06 -0 -0)
(-4.10937e-06 -0 -0)
(-4.10937e-06 -0 -0)
(-4.10937e-06 -0 -0)
(-4.10936e-06 -0 -0)
(-4.10936e-06 -0 -0)
(-4.10936e-06 -0 -0)
(-4.10936e-06 -0 -0)
(-4.10936e-06 -0 -0)
(-4.10936e-06 -0 -0)
(-4.10936e-06 -0 -0)
(-4.10936e-06 -0 -0)
(-4.10936e-06 -0 -0)
(-4.10936e-06 -0 -0)
(-4.10936e-06 -0 -0)
(-4.10936e-06 -0 -0)
(-4.10936e-06 -0 -0)
(-4.10936e-06 -0 -0)
)
;
    }
    frontAndBack
    {
        type            empty;
    }
}


// ************************************************************************* //
