/*--------------------------------*- C++ -*----------------------------------*\
| =========                 |                                                 |
| \\      /  F ield         | OpenFOAM: The Open Source CFD Toolbox           |
|  \\    /   O peration     | Version:  2506                                  |
|   \\  /    A nd           | Website:  www.openfoam.com                      |
|    \\/     M anipulation  |                                                 |
\*---------------------------------------------------------------------------*/
FoamFile
{
    version     2.0;
    format      ascii;
    arch        "LSB;label=32;scalar=64";
    class       volTensorField;
    location    "8";
    object      kU2;
}
// * * * * * * * * * * * * * * * * * * * * * * * * * * * * * * * * * * * * * //

dimensions      [0 4 -4 0 0 0 0];

internalField   nonuniform List<tensor> 
400
(
(4.10937e-06 -2.3415e-19 -0 -2.37806e-19 1.35501e-32 0 -0 0 0)
(4.10937e-06 4.52053e-20 -0 4.61577e-20 5.0776e-34 -0 -0 -0 0)
(4.10937e-06 -1.09836e-20 -0 -1.10388e-20 2.95049e-35 0 -0 0 0)
(4.10937e-06 1.66561e-21 -0 1.96048e-21 7.94625e-37 -0 -0 -0 0)
(4.10937e-06 -7.85969e-22 -0 -5.44048e-22 1.04056e-37 0 -0 0 0)
(4.10937e-06 -2.67656e-22 -0 -2.58389e-22 1.68297e-38 0 -0 0 0)
(4.10936e-06 -2.65016e-22 -0 -4.42137e-22 2.85138e-38 0 -0 0 0)
(4.10936e-06 -2.14817e-22 -0 -3.98268e-22 2.08195e-38 0 -0 0 0)
(4.10936e-06 -3.18043e-22 -0 -4.29979e-22 3.32782e-38 0 -0 0 0)
(4.10936e-06 -2.98143e-22 -0 -3.17715e-22 2.30509e-38 0 -0 0 0)
(4.10936e-06 -5.66035e-23 -0 -8.10419e-23 1.11629e-39 0 -0 0 0)
(4.10936e-06 -1.586e-22 -0 -5.58496e-23 2.1555e-39 0 -0 0 0)
(4.10936e-06 -2.44953e-22 -0 -2.07012e-22 1.23397e-38 0 -0 0 0)
(4.10936e-06 -4.30633e-22 -0 -4.06719e-22 4.26214e-38 0 -0 0 0)
(4.10936e-06 -3.34962e-22 -0 -8.83129e-23 7.19856e-39 0 -0 0 0)
(4.10936e-06 6.13759e-23 -0 1.67831e-22 2.50666e-39 -0 -0 -0 0)
(4.10936e-06 2.40562e-22 -0 -6.07302e-23 -3.55515e-39 0 -0 -0 0)
(4.10936e-06 -1.7738e-22 -0 -3.03637e-22 1.31065e-38 0 -0 0 0)
(4.10936e-06 -2.35044e-22 -0 6.78562e-23 -3.88119e-39 -0 -0 0 0)
(4.10936e-06 1.16977e-22 -0 1.65641e-22 4.71515e-39 -0 -0 -0 0)
(4.19635e-06 -5.97641e-21 -0 -5.62329e-21 8.00863e-36 0 -0 0 0)
(4.19635e-06 1.22672e-22 -0 3.01136e-22 8.80311e-39 -0 -0 -0 0)
(4.19623e-06 -3.8432e-22 -0 -3.28307e-22 3.00686e-38 0 -0 0 0)
(4.19617e-06 -5.57489e-22 -0 -4.49777e-22 5.97559e-38 0 -0 0 0)
(4.19609e-06 -5.36083e-22 -0 -4.42847e-22 5.65772e-38 0 -0 0 0)
(4.19603e-06 -5.10622e-22 -0 -6.15299e-22 7.48768e-38 0 -0 0 0)
(4.19596e-06 -3.87387e-22 -0 -5.43742e-22 5.02003e-38 0 -0 0 0)
(4.19591e-06 -2.15265e-22 -0 -3.82957e-22 1.96471e-38 0 -0 0 0)
(4.19585e-06 -2.36529e-22 -0 -1.72294e-22 9.71256e-39 0 -0 0 0)
(4.19581e-06 -2.36591e-22 -0 5.54473e-23 -3.12653e-39 -0 -0 0 0)
(4.19576e-06 -1.3594e-22 -0 8.44645e-23 -2.73659e-39 -0 -0 0 0)
(4.19573e-06 -1.45078e-22 -0 5.96504e-23 -2.06256e-39 -0 -0 0 0)
(4.1957e-06 -2.85125e-22 -0 -6.21385e-23 4.22272e-39 0 -0 0 0)
(4.19567e-06 -6.26378e-22 -0 -6.65508e-22 9.93547e-38 0 -0 0 0)
(4.19564e-06 -6.15649e-22 -0 -4.45778e-22 6.54113e-38 0 -0 0 0)
(4.19563e-06 -7.91364e-23 -0 -3.66829e-22 6.91899e-39 0 -0 0 0)
(4.19561e-06 -8.16475e-23 -0 -3.51407e-22 6.83845e-39 0 -0 0 0)
(4.1956e-06 -1.61523e-22 -0 8.01386e-23 -3.0852e-39 -0 -0 0 0)
(4.19559e-06 1.63183e-22 -0 6.72648e-22 2.61618e-38 -0 -0 -0 0)
(4.19559e-06 2.84529e-22 -0 3.67341e-22 2.49117e-38 -0 -0 -0 0)
(4.33184e-06 1.72557e-19 -0 1.76046e-19 7.01273e-33 -0 -0 -0 0)
(4.33183e-06 -3.34131e-20 -0 -3.3662e-20 2.59648e-34 0 -0 0 0)
(4.3317e-06 7.75184e-21 -0 8.03752e-21 1.43836e-35 -0 -0 -0 0)
(4.33164e-06 -1.63563e-21 -0 -1.97789e-21 7.46852e-37 0 -0 0 0)
(4.33153e-06 -9.38884e-24 -0 -3.13883e-22 6.80358e-40 0 -0 0 0)
(4.33148e-06 -1.88308e-22 -0 -2.07907e-22 9.03864e-39 0 -0 0 0)
(4.3314e-06 -1.6536e-22 -0 -1.46124e-22 5.57857e-39 0 -0 0 0)
(4.33135e-06 -2.12337e-22 -0 -2.5268e-22 1.23872e-38 0 -0 0 0)
(4.33129e-06 2.39648e-23 -0 8.77543e-23 4.8554e-40 -0 -0 -0 0)
(4.33125e-06 4.63773e-23 -0 1.8037e-22 1.93133e-39 -0 -0 -0 0)
(4.33119e-06 -1.78903e-22 -0 1.15432e-22 -4.76799e-39 -0 -0 0 0)
(4.33117e-06 -8.68609e-25 -0 5.41774e-22 -1.08652e-40 -0 -0 0 0)
(4.33111e-06 1.1908e-22 -0 4.83524e-22 1.32941e-38 -0 -0 -0 0)
(4.3311e-06 -4.1083e-23 -0 -1.55391e-22 1.47398e-39 0 -0 0 0)
(4.33106e-06 -6.30638e-22 -0 -8.69981e-22 1.26677e-37 0 -0 0 0)
(4.33105e-06 -6.15233e-22 -0 -7.096e-22 1.008e-37 0 -0 0 0)
(4.33102e-06 -4.23277e-22 -0 -2.56753e-22 2.50928e-38 0 -0 0 0)
(4.33102e-06 3.39022e-22 -0 6.76903e-22 5.29864e-38 -0 -0 -0 0)
(4.33101e-06 7.52069e-22 -0 9.48619e-22 1.64725e-37 -0 -0 -0 0)
(4.33101e-06 3.16074e-22 -0 4.30877e-22 3.14451e-38 -0 -0 -0 0)
(4.47135e-06 -1.15582e-19 -0 -1.16319e-19 3.00677e-33 0 -0 0 0)
(4.47134e-06 2.4349e-20 -0 2.43588e-20 1.32648e-34 -0 -0 -0 0)
(4.4712e-06 -5.97151e-21 -0 -5.78118e-21 7.72105e-36 0 -0 0 0)
(4.47114e-06 8.90366e-22 -0 9.12629e-22 1.81738e-37 -0 -0 -0 0)
(4.47102e-06 -4.56286e-22 -0 -8.98485e-22 9.16941e-38 0 -0 0 0)
(4.47098e-06 -1.44342e-22 -0 -7.43699e-22 2.40097e-38 0 -0 0 0)
(4.47087e-06 -9.74749e-22 -0 -1.32872e-21 2.8969e-37 0 -0 0 0)
(4.47084e-06 -1.41871e-21 -0 -1.1769e-21 3.7346e-37 0 -0 0 0)
(4.47075e-06 -9.81567e-22 -0 -5.78381e-22 1.26985e-37 0 -0 0 0)
(4.47073e-06 -4.01985e-22 -0 -2.89049e-22 2.59898e-38 0 -0 0 0)
(4.47064e-06 -1.6251e-22 -0 -2.94333e-22 1.06991e-38 0 -0 0 0)
(4.47064e-06 -3.07371e-22 -0 -1.52705e-22 1.0499e-38 0 -0 0 0)
(4.47056e-06 -5.89582e-22 -0 1.91613e-23 -2.52701e-39 -0 -0 0 0)
(4.47057e-06 -3.75722e-23 -0 5.08946e-22 -4.27736e-39 -0 -0 0 0)
(4.47051e-06 9.71662e-24 -0 -2.56167e-23 -5.56778e-41 0 -0 -0 0)
(4.47051e-06 -3.1162e-22 -0 -1.70495e-22 1.18845e-38 0 -0 0 0)
(4.47047e-06 -9.0806e-23 -0 2.41705e-23 -4.90961e-40 -0 -0 0 0)
(4.47048e-06 4.28905e-22 -0 4.52032e-22 4.33687e-38 -0 -0 -0 0)
(4.47047e-06 4.88837e-22 -0 5.13228e-22 5.61205e-38 -0 -0 -0 0)
(4.47046e-06 1.44351e-22 -0 3.2715e-22 1.05637e-38 -0 -0 -0 0)
(4.58626e-06 5.2003e-20 -0 5.30723e-20 6.0178e-34 -0 -0 -0 0)
(4.58625e-06 -1.11988e-20 -0 -1.13556e-20 2.77285e-35 0 -0 0 0)
(4.5861e-06 2.69662e-21 -0 3.0839e-21 1.81333e-36 -0 -0 -0 0)
(4.58602e-06 -2.75272e-22 -0 -4.1454e-24 2.48824e-40 0 -0 0 0)
(4.58593e-06 4.91704e-22 -0 3.12665e-22 3.35239e-38 -0 -0 -0 0)
(4.58584e-06 8.7864e-23 -0 -6.37603e-22 -1.22164e-38 0 -0 -0 0)
(4.58579e-06 -3.95658e-22 -0 -8.80473e-22 7.59665e-38 0 -0 0 0)
(4.5857e-06 -7.99739e-22 -0 -8.69766e-22 1.51686e-37 0 -0 0 0)
(4.58566e-06 -1.14295e-21 -0 -8.68802e-22 2.16545e-37 0 -0 0 0)
(4.58557e-06 -8.82321e-22 -0 -5.21597e-22 1.00362e-37 0 -0 0 0)
(4.58555e-06 -4.40364e-22 -0 -4.80887e-22 4.61811e-38 0 -0 0 0)
(4.58548e-06 -6.4103e-22 -0 -5.41419e-22 7.5688e-38 0 -0 0 0)
(4.58546e-06 -6.73338e-22 -0 -6.21715e-23 9.1294e-39 0 -0 0 0)
(4.58542e-06 -1.42343e-22 -0 7.44262e-22 -2.31038e-38 -0 -0 0 0)
(4.58539e-06 6.06491e-22 -0 8.24941e-22 1.09112e-37 -0 -0 -0 0)
(4.58537e-06 2.51737e-22 -0 -5.83458e-23 -3.20319e-39 0 -0 -0 0)
(4.58535e-06 -2.44836e-22 -0 -4.09318e-22 2.18556e-38 0 -0 0 0)
(4.58534e-06 -4.68892e-22 -0 -3.44527e-22 3.5231e-38 0 -0 0 0)
(4.58533e-06 -2.75864e-22 -0 -1.79508e-22 1.07996e-38 0 -0 0 0)
(4.58533e-06 -8.32254e-23 -0 -1.01142e-22 1.83577e-39 0 -0 0 0)
(4.66843e-06 5.41092e-20 -0 5.65244e-20 6.55143e-34 -0 -0 -0 0)
(4.66843e-06 -1.0318e-20 -0 -9.7421e-21 2.15317e-35 0 -0 0 0)
(4.66827e-06 3.87432e-21 -0 4.06119e-21 3.37049e-36 -0 -0 -0 0)
(4.66819e-06 5.12214e-22 -0 4.1863e-22 4.59339e-38 -0 -0 -0 0)
(4.66809e-06 5.67732e-22 -0 5.98251e-22 7.27592e-38 -0 -0 -0 0)
(4.66802e-06 -8.04265e-23 -0 -4.6331e-22 7.98249e-39 0 -0 0 0)
(4.66793e-06 -4.50808e-22 -0 -5.7257e-22 5.52962e-38 0 -0 0 0)
(4.66787e-06 -5.22516e-22 -0 -6.73958e-22 7.54421e-38 0 -0 0 0)
(4.6678e-06 -5.39223e-22 -0 -9.22924e-22 1.06616e-37 0 -0 0 0)
(4.66774e-06 -7.45691e-22 -0 -1.04748e-21 1.67339e-37 0 -0 0 0)
(4.66769e-06 -9.14352e-22 -0 -9.50952e-22 1.86282e-37 0 -0 0 0)
(4.66764e-06 -9.20435e-22 -0 -4.05249e-22 7.99131e-38 0 -0 0 0)
(4.6676e-06 -2.30827e-22 -0 1.80081e-22 -8.90556e-39 -0 -0 0 0)
(4.66756e-06 -3.78516e-23 -0 1.47671e-22 -1.19754e-39 -0 -0 0 0)
(4.66753e-06 -1.72686e-22 -0 7.83088e-23 -2.89722e-39 -0 -0 0 0)
(4.66751e-06 -2.82002e-22 -0 4.52091e-23 -2.73145e-39 -0 -0 0 0)
(4.66749e-06 -2.66746e-22 -0 -9.84537e-23 5.62662e-39 0 -0 0 0)
(4.66748e-06 -3.88495e-22 -0 -5.71429e-22 4.75625e-38 0 -0 0 0)
(4.66747e-06 -4.62709e-22 -0 -4.59448e-22 4.55473e-38 0 -0 0 0)
(4.66747e-06 -7.62689e-23 -0 -2.01535e-22 3.29318e-39 0 -0 0 0)
(4.72229e-06 -1.12967e-19 -0 -1.14256e-19 2.73325e-33 0 -0 0 0)
(4.72228e-06 2.17796e-20 -0 2.2736e-20 1.0486e-34 -0 -0 -0 0)
(4.72212e-06 -4.39723e-21 -0 -4.33783e-21 4.03938e-36 0 -0 0 0)
(4.72204e-06 1.54044e-21 -0 1.41163e-21 4.60507e-37 -0 -0 -0 0)
(4.72194e-06 3.3148e-23 -0 -3.899e-22 -2.7371e-39 0 -0 -0 0)
(4.72187e-06 -4.26156e-22 -0 -8.75539e-22 7.90188e-38 0 -0 0 0)
(4.72177e-06 -1.03342e-21 -0 -1.03218e-21 2.25907e-37 0 -0 0 0)
(4.72171e-06 -9.1939e-22 -0 -6.24295e-22 1.2156e-37 0 -0 0 0)
(4.72163e-06 -2.76879e-22 -0 -3.05687e-22 1.79257e-38 0 -0 0 0)
(4.72158e-06 -7.59609e-23 -0 -3.42039e-22 5.50273e-39 0 -0 0 0)
(4.72152e-06 -4.40526e-22 -0 -4.05554e-22 3.78388e-38 0 -0 0 0)
(4.72148e-06 -9.74331e-23 -0 -3.31262e-22 6.83597e-39 0 -0 0 0)
(4.72143e-06 -2.41181e-22 -0 -4.36614e-22 2.23032e-38 0 -0 0 0)
(4.7214e-06 -5.67286e-22 -0 -6.4095e-22 7.70115e-38 0 -0 0 0)
(4.72137e-06 -9.27024e-22 -0 -7.18097e-22 1.40996e-37 0 -0 0 0)
(4.72134e-06 -9.12914e-22 -0 -3.83919e-22 7.42342e-38 0 -0 0 0)
(4.72132e-06 -6.00029e-22 -0 1.63497e-22 -2.07787e-38 -0 -0 0 0)
(4.72131e-06 1.20077e-22 -0 -8.84847e-23 -2.25043e-39 0 -0 -0 0)
(4.7213e-06 -1.8939e-22 -0 -4.12924e-22 1.65641e-38 0 -0 0 0)
(4.7213e-06 -1.8796e-22 -0 -3.5724e-22 1.42221e-38 0 -0 0 0)
(4.75626e-06 2.75797e-20 -0 2.9139e-20 1.68966e-34 -0 -0 -0 0)
(4.75626e-06 -4.24011e-21 -0 -4.2892e-21 3.82374e-36 0 -0 0 0)
(4.7561e-06 1.35471e-21 -0 1.34843e-21 3.84081e-37 -0 -0 -0 0)
(4.75602e-06 1.22938e-22 -0 -7.27243e-23 -1.87984e-39 0 -0 -0 0)
(4.75591e-06 -4.74598e-23 -0 -1.27931e-22 1.27664e-39 0 -0 0 0)
(4.75583e-06 -6.73012e-23 -0 2.45296e-22 -3.47126e-39 -0 -0 0 0)
(4.75574e-06 4.37129e-22 -0 3.61418e-22 3.32201e-38 -0 -0 -0 0)
(4.75568e-06 4.18325e-22 -0 1.06574e-22 9.37462e-39 -0 -0 -0 0)
(4.75561e-06 1.95714e-23 -0 -1.06513e-22 -4.38347e-40 0 -0 -0 0)
(4.75555e-06 -3.05138e-23 -0 1.58747e-22 -1.01859e-39 -0 -0 0 0)
(4.75549e-06 3.82169e-22 -0 5.87456e-22 4.72101e-38 -0 -0 -0 0)
(4.75544e-06 8.5509e-22 -0 5.86949e-22 1.05541e-37 -0 -0 -0 0)
(4.7554e-06 4.51225e-22 -0 1.40771e-22 1.33573e-38 -0 -0 -0 0)
(4.75536e-06 -5.10361e-23 -0 7.55936e-23 -8.11296e-40 -0 -0 0 0)
(4.75533e-06 -1.21615e-23 -0 2.15584e-23 -5.51347e-41 -0 -0 0 0)
(4.75531e-06 -2.11415e-22 -0 -2.05819e-22 9.15046e-39 0 -0 0 0)
(4.75529e-06 -5.0658e-22 -0 -2.74002e-22 2.91894e-38 0 -0 0 0)
(4.75527e-06 -3.53808e-22 -0 -4.3195e-22 3.21385e-38 0 -0 0 0)
(4.75527e-06 -5.67603e-22 -0 -6.68042e-22 7.97395e-38 0 -0 0 0)
(4.75526e-06 -6.20766e-22 -0 -6.54997e-22 8.55052e-38 0 -0 0 0)
(4.77809e-06 1.16645e-19 -0 1.17392e-19 2.86583e-33 -0 -0 -0 0)
(4.77809e-06 -2.33539e-20 -0 -2.34846e-20 1.14786e-34 0 -0 0 0)
(4.77793e-06 6.41326e-21 -0 6.16152e-21 8.27041e-36 -0 -0 -0 0)
(4.77784e-06 -1.07508e-21 -0 -1.46117e-21 3.28784e-37 0 -0 0 0)
(4.77774e-06 -1.52113e-22 -0 2.83876e-23 -9.03799e-40 -0 -0 0 0)
(4.77765e-06 -7.30593e-23 -0 3.70499e-22 -5.66562e-39 -0 -0 0 0)
(4.77758e-06 6.82241e-22 -0 8.61643e-22 1.23043e-37 -0 -0 -0 0)
(4.77749e-06 6.9255e-22 -0 5.10417e-22 7.39904e-38 -0 -0 -0 0)
(4.77744e-06 2.84971e-22 -0 -9.17231e-24 -5.47122e-40 0 -0 -0 0)
(4.77736e-06 1.68326e-22 -0 2.34838e-22 8.27432e-39 -0 -0 -0 0)
(4.77732e-06 8.39607e-22 -0 5.52587e-22 9.71164e-38 -0 -0 -0 0)
(4.77726e-06 4.6183e-22 -0 9.1949e-23 8.88896e-39 -0 -0 -0 0)
(4.77722e-06 2.33506e-23 -0 -2.57359e-22 -1.25795e-39 0 -0 -0 0)
(4.77718e-06 -4.42756e-22 -0 -6.94683e-22 6.43843e-38 0 -0 0 0)
(4.77715e-06 -5.92032e-22 -0 -5.95258e-22 7.37703e-38 0 -0 0 0)
(4.77713e-06 -2.45762e-22 -0 1.20014e-22 -6.1742e-39 -0 -0 0 0)
(4.77711e-06 6.08616e-23 -0 8.01176e-23 1.02072e-39 -0 -0 -0 0)
(4.77709e-06 -1.67602e-22 -0 -1.88867e-23 6.62628e-40 0 -0 0 0)
(4.77709e-06 -2.03668e-22 -0 -2.04861e-22 8.73413e-39 0 -0 0 0)
(4.77708e-06 -3.27503e-22 -0 -2.70764e-22 1.85628e-38 0 -0 0 0)
(4.79331e-06 -1.15159e-19 -0 -1.1621e-19 2.79194e-33 0 -0 0 0)
(4.7933e-06 2.47631e-20 -0 2.45196e-20 1.26673e-34 -0 -0 -0 0)
(4.79314e-06 -5.71299e-21 -0 -5.58708e-21 6.65929e-36 0 -0 0 0)
(4.79306e-06 1.39251e-21 -0 1.08902e-21 3.16391e-37 -0 -0 -0 0)
(4.79295e-06 -2.6308e-22 -0 -5.18616e-22 2.84663e-38 0 -0 0 0)
(4.79287e-06 1.51193e-23 -0 1.16192e-22 3.66532e-40 -0 -0 -0 0)
(4.79278e-06 1.19929e-22 -0 1.67903e-22 4.2014e-39 -0 -0 -0 0)
(4.79272e-06 -5.87062e-23 -0 -1.77082e-22 2.16909e-39 0 -0 0 0)
(4.79264e-06 -1.18901e-22 -0 -5.12724e-23 1.27202e-39 0 -0 0 0)
(4.79258e-06 -9.73774e-23 -0 9.9317e-23 -2.01796e-39 -0 -0 0 0)
(4.79252e-06 2.4992e-22 -0 3.52052e-22 1.83588e-38 -0 -0 -0 0)
(4.79247e-06 1.57319e-22 -0 -2.34955e-23 -7.7127e-40 0 -0 -0 0)
(4.79243e-06 -1.98454e-22 -0 -7.61944e-22 3.15521e-38 0 -0 0 0)
(4.79239e-06 -7.77825e-22 -0 -1.29133e-21 2.09589e-37 0 -0 0 0)
(4.79236e-06 -1.18599e-21 -0 -1.20317e-21 2.97753e-37 0 -0 0 0)
(4.79233e-06 -6.57562e-22 -0 -5.02882e-22 6.90011e-38 0 -0 0 0)
(4.79231e-06 -1.535e-22 -0 -2.33363e-22 7.47473e-39 0 -0 0 0)
(4.7923e-06 -1.10807e-22 -0 -1.453e-22 3.35961e-39 0 -0 0 0)
(4.79229e-06 -3.78304e-23 -0 -3.4557e-23 2.72794e-40 0 -0 0 0)
(4.79229e-06 1.90044e-22 -0 1.23378e-22 4.89272e-39 -0 -0 -0 0)
(4.80539e-06 3.64477e-20 -0 3.8974e-20 2.95609e-34 -0 -0 -0 0)
(4.80538e-06 -6.16588e-21 -0 -6.89302e-21 8.84457e-36 0 -0 0 0)
(4.80521e-06 9.04067e-22 -0 9.84717e-22 1.85268e-37 -0 -0 -0 0)
(4.80514e-06 -1.27072e-22 -0 -3.83377e-22 1.01384e-38 0 -0 0 0)
(4.80501e-06 -3.682e-23 -0 -2.31808e-22 1.7763e-39 0 -0 0 0)
(4.80495e-06 -1.75177e-22 -0 9.04703e-25 -3.29832e-41 -0 -0 0 0)
(4.80484e-06 -2.83571e-22 -0 -3.9445e-22 2.32796e-38 0 -0 0 0)
(4.80479e-06 -5.50846e-22 -0 -5.95281e-22 6.82461e-38 0 -0 0 0)
(4.8047e-06 -4.3744e-22 -0 -1.07695e-22 9.80501e-39 0 -0 0 0)
(4.80467e-06 -2.47415e-22 -0 -1.78562e-22 9.19502e-39 0 -0 0 0)
(4.80457e-06 -3.97045e-22 -0 -1.62502e-22 1.3429e-38 0 -0 0 0)
(4.80456e-06 -3.39816e-22 -0 4.09962e-23 -2.89957e-39 -0 -0 0 0)
(4.80448e-06 -2.16569e-22 -0 -2.6587e-22 1.19845e-38 0 -0 0 0)
(4.80448e-06 1.04541e-22 -0 1.32137e-22 2.87516e-39 -0 -0 -0 0)
(4.80441e-06 4.08562e-22 -0 3.42485e-22 2.91245e-38 -0 -0 -0 0)
(4.80442e-06 6.3214e-22 -0 1.90588e-22 2.50766e-38 -0 -0 -0 0)
(4.80437e-06 3.72918e-22 -0 -1.08876e-22 -8.451e-39 0 -0 -0 0)
(4.80438e-06 1.43531e-23 -0 -1.78209e-22 -5.32399e-40 0 -0 -0 0)
(4.80436e-06 -9.18306e-23 -0 -2.07825e-22 3.97237e-39 0 -0 0 0)
(4.80436e-06 3.34757e-23 -0 -2.62135e-22 -1.8265e-39 0 -0 -0 0)
(4.81636e-06 1.52615e-21 -0 -7.87616e-22 -2.4957e-37 0 -0 -0 0)
(4.81636e-06 -4.91521e-21 -0 -4.44507e-21 4.53631e-36 0 -0 0 0)
(4.81619e-06 -3.05265e-22 -0 -5.06545e-22 3.21064e-38 0 -0 0 0)
(4.81611e-06 -1.50243e-21 -0 -1.15852e-21 3.61412e-37 0 -0 0 0)
(4.81599e-06 -4.572e-22 -0 3.1031e-24 -2.94588e-40 -0 -0 0 0)
(4.81592e-06 -5.50641e-22 -0 -2.17886e-22 2.49126e-38 0 -0 0 0)
(4.81583e-06 -6.88327e-22 -0 -3.53644e-22 5.05464e-38 0 -0 0 0)
(4.81576e-06 -2.05253e-22 -0 6.28324e-23 -2.67799e-39 -0 -0 0 0)
(4.81568e-06 -1.36807e-22 -0 1.11617e-22 -3.17089e-39 -0 -0 0 0)
(4.81563e-06 -4.84678e-23 -0 -2.97916e-22 2.99843e-39 0 -0 0 0)
(4.81557e-06 -3.34317e-22 -0 -3.92214e-22 2.72292e-38 0 -0 0 0)
(4.81552e-06 -9.64705e-23 -0 8.22811e-23 -1.64836e-39 -0 -0 0 0)
(4.81547e-06 -2.24927e-23 -0 1.28966e-22 -6.02392e-40 -0 -0 0 0)
(4.81544e-06 3.25866e-22 -0 7.87689e-23 5.33038e-39 -0 -0 -0 0)
(4.8154e-06 1.19476e-22 -0 1.7739e-23 4.40127e-40 -0 -0 -0 0)
(4.81538e-06 3.34243e-22 -0 2.61105e-22 1.81237e-38 -0 -0 -0 0)
(4.81536e-06 3.04464e-22 -0 -2.19248e-23 -1.38625e-39 0 -0 -0 0)
(4.81534e-06 -6.21462e-23 -0 -7.82626e-23 1.01005e-39 0 -0 0 0)
(4.81534e-06 1.49621e-22 -0 -2.77413e-22 -8.61971e-39 0 -0 -0 0)
(4.81533e-06 -3.54276e-23 -0 -6.65704e-22 4.89774e-39 0 -0 0 0)
(4.82741e-06 1.08356e-21 -0 3.13395e-21 7.03445e-37 -0 -0 -0 0)
(4.82741e-06 1.33942e-21 -0 8.09252e-22 2.24536e-37 -0 -0 -0 0)
(4.82724e-06 -1.56401e-21 -0 -1.37132e-21 4.44304e-37 0 -0 0 0)
(4.82716e-06 -7.35052e-22 -0 -1.2054e-22 1.83551e-38 0 -0 0 0)
(4.82704e-06 5.0078e-23 -0 5.9292e-22 6.15122e-39 -0 -0 -0 0)
(4.82697e-06 2.70388e-22 -0 1.20224e-22 6.7345e-39 -0 -0 -0 0)
(4.82688e-06 -8.66084e-23 -0 1.29596e-23 -2.32533e-40 -0 -0 0 0)
(4.82681e-06 1.68921e-22 -0 2.06856e-22 7.2392e-39 -0 -0 -0 0)
(4.82673e-06 2.57709e-23 -0 -4.14065e-23 -2.21078e-40 0 -0 -0 0)
(4.82668e-06 -9.09444e-23 -0 -1.20193e-22 2.26468e-39 0 -0 0 0)
(4.82662e-06 -6.58499e-23 -0 -1.39372e-22 1.90146e-39 0 -0 0 0)
(4.82657e-06 -4.49965e-23 -0 7.42401e-23 -6.92116e-40 -0 -0 0 0)
(4.82652e-06 4.1776e-23 -0 4.95985e-22 4.29301e-39 -0 -0 -0 0)
(4.82648e-06 2.04444e-22 -0 4.62077e-22 1.9573e-38 -0 -0 -0 0)
(4.82645e-06 4.64506e-22 -0 5.75313e-22 5.53691e-38 -0 -0 -0 0)
(4.82643e-06 5.36837e-22 -0 3.28621e-22 3.65522e-38 -0 -0 -0 0)
(4.82641e-06 4.81633e-22 -0 2.93843e-23 2.9323e-39 -0 -0 -0 0)
(4.82639e-06 2.3317e-22 -0 -2.37124e-22 -1.14558e-38 0 -0 -0 0)
(4.82638e-06 5.0012e-22 -0 1.93982e-23 2.01008e-39 -0 -0 -0 0)
(4.82638e-06 5.49066e-22 -0 -2.39857e-22 -2.7287e-38 0 -0 -0 0)
(4.8392e-06 5.07668e-20 -0 5.24143e-20 5.49865e-34 -0 -0 -0 0)
(4.83919e-06 -9.89574e-21 -0 -9.8682e-21 2.01796e-35 0 -0 0 0)
(4.83903e-06 1.12847e-21 -0 1.62514e-21 3.78985e-37 -0 -0 -0 0)
(4.83894e-06 -1.0854e-21 -0 -6.03997e-22 1.3548e-37 0 -0 0 0)
(4.83884e-06 -4.71501e-22 -0 -2.93134e-22 2.85632e-38 0 -0 0 0)
(4.83875e-06 -1.45278e-22 -0 -5.94712e-22 1.78556e-38 0 -0 0 0)
(4.83867e-06 -1.61741e-22 -0 -5.72553e-22 1.91386e-38 0 -0 0 0)
(4.83858e-06 -8.01843e-22 -0 -4.45446e-22 7.38187e-38 0 -0 0 0)
(4.83853e-06 -2.0924e-22 -0 2.48908e-22 -1.07639e-38 -0 -0 0 0)
(4.83845e-06 5.75794e-22 -0 1.02462e-21 1.21934e-37 -0 -0 -0 0)
(4.8384e-06 7.48631e-22 -0 6.75667e-22 1.04544e-37 -0 -0 -0 0)
(4.83834e-06 -4.4025e-23 -0 -1.32242e-23 1.2033e-40 0 -0 0 0)
(4.8383e-06 -7.06435e-23 -0 2.12824e-22 -3.10743e-39 -0 -0 0 0)
(4.83826e-06 -1.35576e-22 -0 2.7216e-22 -7.62638e-39 -0 -0 0 0)
(4.83823e-06 5.42171e-22 -0 7.11089e-22 7.96845e-38 -0 -0 -0 0)
(4.83821e-06 6.25526e-22 -0 4.19301e-22 5.4211e-38 -0 -0 -0 0)
(4.83819e-06 8.44583e-22 -0 5.98968e-22 1.04559e-37 -0 -0 -0 0)
(4.83817e-06 9.43471e-22 -0 -6.60344e-23 -1.28771e-38 0 -0 -0 0)
(4.83817e-06 7.81703e-22 -0 -3.25534e-23 -5.25966e-39 0 -0 -0 0)
(4.83816e-06 6.16784e-22 -0 6.15196e-23 7.84272e-39 -0 -0 -0 0)
(4.85202e-06 -1.40912e-19 -0 -1.43042e-19 4.15423e-33 0 -0 0 0)
(4.85201e-06 2.83549e-20 -0 2.92731e-20 1.7107e-34 -0 -0 -0 0)
(4.85184e-06 -6.23945e-21 -0 -6.35699e-21 8.17507e-36 0 -0 0 0)
(4.85176e-06 6.42906e-22 -0 1.23284e-21 1.63364e-37 -0 -0 -0 0)
(4.85164e-06 -8.78173e-22 -0 -2.64689e-22 4.791e-38 0 -0 0 0)
(4.85157e-06 -1.73443e-23 -0 4.61366e-22 -1.64938e-39 -0 -0 0 0)
(4.85147e-06 8.59283e-22 -0 7.43334e-22 1.31658e-37 -0 -0 -0 0)
(4.85141e-06 8.17759e-22 -0 5.988e-22 1.00934e-37 -0 -0 -0 0)
(4.85133e-06 4.75442e-22 -0 5.68782e-22 5.5742e-38 -0 -0 -0 0)
(4.85127e-06 3.22525e-22 -0 4.12615e-22 2.74317e-38 -0 -0 -0 0)
(4.85121e-06 -2.19626e-22 -0 -2.13197e-22 9.65194e-39 0 -0 0 0)
(4.85116e-06 -5.60339e-22 -0 -3.57695e-22 4.1316e-38 0 -0 0 0)
(4.85111e-06 -4.44938e-22 -0 -3.44632e-22 3.16092e-38 0 -0 0 0)
(4.85108e-06 -2.97335e-22 -0 -2.16688e-22 1.32814e-38 0 -0 0 0)
(4.85104e-06 3.46733e-22 -0 4.07633e-22 2.9136e-38 -0 -0 -0 0)
(4.85102e-06 6.53512e-22 -0 7.1943e-22 9.6919e-38 -0 -0 -0 0)
(4.851e-06 7.22712e-22 -0 3.80646e-22 5.67094e-38 -0 -0 -0 0)
(4.85099e-06 4.26001e-22 -0 -3.06267e-22 -2.68956e-38 0 -0 -0 0)
(4.85098e-06 1.63059e-22 -0 -4.2864e-22 -1.44081e-38 0 -0 -0 0)
(4.85097e-06 5.18248e-23 -0 -1.48174e-22 -1.583e-39 0 -0 -0 0)
(4.86578e-06 1.73541e-19 -0 1.75369e-19 6.25465e-33 -0 -0 -0 0)
(4.86577e-06 -3.62985e-20 -0 -3.66562e-20 2.73454e-34 0 -0 0 0)
(4.86559e-06 8.33386e-21 -0 8.43823e-21 1.44531e-35 -0 -0 -0 0)
(4.8655e-06 -1.97045e-21 -0 -1.74239e-21 7.05638e-37 0 -0 0 0)
(4.8654e-06 2.47691e-22 -0 2.80714e-22 1.42908e-38 -0 -0 -0 0)
(4.8653e-06 -2.41194e-22 -0 3.48949e-22 -1.7299e-38 -0 -0 0 0)
(4.86524e-06 6.32451e-22 -0 9.80768e-22 1.27494e-37 -0 -0 -0 0)
(4.86513e-06 1.02372e-21 -0 8.72569e-22 1.83606e-37 -0 -0 -0 0)
(4.8651e-06 4.56262e-22 -0 4.38589e-22 4.11321e-38 -0 -0 -0 0)
(4.865e-06 3.0375e-23 -0 1.05151e-22 6.56516e-40 -0 -0 -0 0)
(4.86497e-06 -2.06448e-22 -0 -4.86958e-23 2.06644e-39 0 -0 0 0)
(4.86489e-06 2.34094e-22 -0 2.5517e-22 1.22786e-38 -0 -0 -0 0)
(4.86487e-06 4.25232e-22 -0 1.57115e-22 1.37332e-38 -0 -0 -0 0)
(4.86482e-06 3.97277e-22 -0 4.86946e-22 3.97656e-38 -0 -0 -0 0)
(4.86479e-06 6.0636e-22 -0 8.54419e-22 1.06497e-37 -0 -0 -0 0)
(4.86477e-06 7.80156e-22 -0 6.20073e-22 9.94402e-38 -0 -0 -0 0)
(4.86475e-06 5.06328e-22 -0 -1.68159e-23 -1.75022e-39 0 -0 -0 0)
(4.86473e-06 1.5392e-22 -0 1.50101e-22 4.74919e-39 -0 -0 -0 0)
(4.86472e-06 1.1991e-22 -0 1.90446e-22 4.69429e-39 -0 -0 -0 0)
(4.86472e-06 1.20682e-22 -0 -8.59074e-23 -2.13116e-39 0 -0 -0 0)
(4.87983e-06 -7.34871e-20 -0 -7.3983e-20 1.11414e-33 0 -0 0 0)
(4.87982e-06 1.49998e-20 -0 1.53757e-20 4.72626e-35 -0 -0 -0 0)
(4.87965e-06 -4.15631e-21 -0 -3.39008e-21 2.88755e-36 0 -0 0 0)
(4.87957e-06 1.14634e-21 -0 1.3883e-21 3.26148e-37 -0 -0 -0 0)
(4.87944e-06 4.66189e-22 -0 2.69676e-22 2.57652e-38 -0 -0 -0 0)
(4.87938e-06 3.56213e-22 -0 3.76496e-22 2.74856e-38 -0 -0 -0 0)
(4.87928e-06 -2.9517e-22 -0 -1.04386e-22 6.31476e-39 0 -0 0 0)
(4.87922e-06 -5.61761e-22 -0 -1.37392e-23 1.58184e-39 0 -0 0 0)
(4.87913e-06 4.52442e-23 -0 2.63133e-22 2.44004e-39 -0 -0 -0 0)
(4.87909e-06 1.84763e-22 -0 1.64406e-22 6.22581e-39 -0 -0 -0 0)
(4.879e-06 3.79348e-22 -0 5.52349e-22 4.29458e-38 -0 -0 -0 0)
(4.87898e-06 9.84281e-22 -0 7.20272e-22 1.45307e-37 -0 -0 -0 0)
(4.8789e-06 1.10985e-21 -0 5.41511e-22 1.23183e-37 -0 -0 -0 0)
(4.87889e-06 8.06227e-22 -0 5.62584e-22 9.29658e-38 -0 -0 -0 0)
(4.87883e-06 1.93619e-22 -0 4.55932e-22 1.80939e-38 -0 -0 -0 0)
(4.87883e-06 -1.20834e-22 -0 2.5494e-22 -6.31411e-39 -0 -0 0 0)
(4.87879e-06 3.50438e-23 -0 9.10506e-24 6.54007e-41 -0 -0 -0 0)
(4.87879e-06 4.26877e-22 -0 3.17522e-22 2.7782e-38 -0 -0 -0 0)
(4.87877e-06 3.88459e-22 -0 3.73267e-22 2.97203e-38 -0 -0 -0 0)
(4.87877e-06 1.95422e-22 -0 -3.54604e-23 -1.42039e-39 0 -0 -0 0)
(4.89292e-06 -1.40995e-19 -0 -1.4354e-19 4.13625e-33 0 -0 0 0)
(4.89291e-06 2.83434e-20 -0 2.92331e-20 1.6934e-34 -0 -0 -0 0)
(4.89275e-06 -6.58699e-21 -0 -6.01322e-21 8.09545e-36 0 -0 0 0)
(4.89266e-06 1.61821e-21 -0 1.83127e-21 6.05678e-37 -0 -0 -0 0)
(4.89254e-06 -1.68254e-22 -0 2.53321e-22 -8.71166e-39 -0 -0 0 0)
(4.89247e-06 3.36599e-22 -0 5.64205e-22 3.8817e-38 -0 -0 -0 0)
(4.89237e-06 -1.7064e-22 -0 1.32982e-22 -4.63825e-39 -0 -0 0 0)
(4.8923e-06 1.67598e-22 -0 5.5693e-22 1.9079e-38 -0 -0 -0 0)
(4.89222e-06 5.81094e-22 -0 6.87339e-22 8.16416e-38 -0 -0 -0 0)
(4.89216e-06 4.83704e-22 -0 3.83395e-22 3.79075e-38 -0 -0 -0 0)
(4.8921e-06 6.95181e-22 -0 6.78337e-22 9.63936e-38 -0 -0 -0 0)
(4.89205e-06 7.43252e-22 -0 4.99279e-22 7.58558e-38 -0 -0 -0 0)
(4.892e-06 4.05948e-22 -0 4.03595e-23 3.34911e-39 -0 -0 -0 0)
(4.89197e-06 1.68664e-22 -0 -9.61481e-23 -3.31498e-39 0 -0 -0 0)
(4.89193e-06 -3.61972e-23 -0 -1.16698e-22 8.63491e-40 0 -0 0 0)
(4.89191e-06 -8.81113e-23 -0 -5.86625e-23 1.05661e-39 0 -0 0 0)
(4.89189e-06 -4.75659e-23 -0 2.14713e-22 -2.08775e-39 -0 -0 0 0)
(4.89187e-06 3.48207e-22 -0 5.48597e-22 3.90495e-38 -0 -0 -0 0)
(4.89186e-06 1.62321e-22 -0 2.94735e-22 9.77988e-39 -0 -0 -0 0)
(4.89186e-06 3.95279e-23 -0 2.11813e-23 1.71153e-40 -0 -0 -0 0)
(4.90323e-06 1.55176e-19 -0 1.55892e-19 4.93362e-33 -0 -0 -0 0)
(4.90323e-06 -3.09707e-20 -0 -3.10974e-20 1.96424e-34 0 -0 0 0)
(4.90307e-06 7.58739e-21 -0 7.7654e-21 1.20168e-35 -0 -0 -0 0)
(4.90298e-06 -1.42014e-21 -0 -1.25305e-21 3.62943e-37 0 -0 0 0)
(4.90287e-06 -2.40191e-22 -0 3.038e-22 -1.48831e-38 -0 -0 0 0)
(4.90279e-06 -3.68074e-22 -0 -4.23117e-23 3.17653e-39 0 -0 0 0)
(4.9027e-06 -2.2298e-22 -0 1.56545e-22 -7.11984e-39 -0 -0 0 0)
(4.90263e-06 4.39893e-22 -0 5.33163e-22 4.78385e-38 -0 -0 -0 0)
(4.90256e-06 5.48211e-22 -0 5.0526e-22 5.64988e-38 -0 -0 -0 0)
(4.9025e-06 1.71914e-22 -0 3.08974e-22 1.08347e-38 -0 -0 -0 0)
(4.90244e-06 5.77332e-22 -0 5.61536e-22 6.61289e-38 -0 -0 -0 0)
(4.90239e-06 9.85146e-22 -0 6.81341e-22 1.36917e-37 -0 -0 -0 0)
(4.90234e-06 5.97065e-22 -0 4.01593e-22 4.89108e-38 -0 -0 -0 0)
(4.9023e-06 4.74451e-22 -0 2.16344e-22 2.0938e-38 -0 -0 -0 0)
(4.90227e-06 1.05839e-22 -0 -1.65153e-22 -3.5656e-39 0 -0 -0 0)
(4.90224e-06 1.33382e-23 -0 -3.47853e-22 -9.46455e-40 0 -0 -0 0)
(4.90222e-06 1.48862e-22 -0 4.48904e-22 1.36315e-38 -0 -0 -0 0)
(4.90221e-06 4.54989e-22 -0 1.05033e-21 9.74842e-38 -0 -0 -0 0)
(4.9022e-06 3.43288e-22 -0 5.15048e-22 3.60675e-38 -0 -0 -0 0)
(4.9022e-06 1.17875e-23 -0 4.44968e-23 1.06994e-40 -0 -0 -0 0)
(4.90797e-06 2.26909e-20 -0 2.42308e-20 1.12026e-34 -0 -0 -0 0)
(4.90796e-06 -1.30896e-21 -0 -1.41989e-21 3.78687e-37 0 -0 0 0)
(4.90796e-06 1.30201e-21 -0 1.30424e-21 3.45996e-37 -0 -0 -0 0)
(4.90796e-06 4.92604e-22 -0 7.67596e-22 7.70424e-38 -0 -0 -0 0)
(4.90796e-06 4.78122e-22 -0 8.81839e-22 8.59067e-38 -0 -0 -0 0)
(4.90796e-06 6.10014e-22 -0 7.19772e-22 8.9461e-38 -0 -0 -0 0)
(4.90796e-06 4.7858e-22 -0 5.46055e-22 5.32464e-38 -0 -0 -0 0)
(4.90796e-06 5.05588e-22 -0 3.64058e-22 3.7503e-38 -0 -0 -0 0)
(4.90795e-06 3.95252e-22 -0 -2.14342e-23 -1.72616e-39 0 -0 -0 0)
(4.90795e-06 -2.40297e-22 -0 -4.02964e-22 1.97294e-38 0 -0 0 0)
(4.90795e-06 -3.28774e-22 -0 -4.00209e-22 2.68092e-38 0 -0 0 0)
(4.90795e-06 9.87561e-23 -0 -1.37904e-23 -2.77485e-40 0 -0 -0 0)
(4.90795e-06 1.92645e-22 -0 2.93733e-22 1.15295e-38 -0 -0 -0 0)
(4.90795e-06 4.39008e-22 -0 4.72251e-22 4.22421e-38 -0 -0 -0 0)
(4.90795e-06 3.64485e-22 -0 2.56574e-22 1.90543e-38 -0 -0 -0 0)
(4.90795e-06 1.28e-22 -0 2.53064e-22 6.59993e-39 -0 -0 -0 0)
(4.90795e-06 2.93695e-22 -0 4.32003e-22 2.58513e-38 -0 -0 -0 0)
(4.90795e-06 3.96712e-22 -0 6.0624e-22 4.90026e-38 -0 -0 -0 0)
(4.90795e-06 3.37089e-22 -0 2.71277e-22 1.86319e-38 -0 -0 -0 0)
(4.90795e-06 1.42641e-23 -0 -6.9337e-23 -2.01516e-40 0 -0 -0 0)
)
;

boundaryField
{
    movingWall
    {
        type            calculated;
        value           nonuniform List<tensor> 
20
(
(4.90797e-06 0 0 0 0 0 0 0 0)
(4.90796e-06 0 0 0 0 0 0 0 0)
(4.90796e-06 0 0 0 0 0 0 0 0)
(4.90796e-06 0 0 0 0 0 0 0 0)
(4.90796e-06 0 0 0 0 0 0 0 0)
(4.90796e-06 0 0 0 0 0 0 0 0)
(4.90796e-06 0 0 0 0 0 0 0 0)
(4.90796e-06 0 0 0 0 0 0 0 0)
(4.90795e-06 0 0 0 0 0 0 0 0)
(4.90795e-06 0 0 0 0 0 0 0 0)
(4.90795e-06 0 0 0 0 0 0 0 0)
(4.90795e-06 0 0 0 0 0 0 0 0)
(4.90795e-06 0 0 0 0 0 0 0 0)
(4.90795e-06 0 0 0 0 0 0 0 0)
(4.90795e-06 0 0 0 0 0 0 0 0)
(4.90795e-06 0 0 0 0 0 0 0 0)
(4.90795e-06 0 0 0 0 0 0 0 0)
(4.90795e-06 0 0 0 0 0 0 0 0)
(4.90795e-06 0 0 0 0 0 0 0 0)
(4.90795e-06 0 0 0 0 0 0 0 0)
)
;
    }
    fixedWalls
    {
        type            calculated;
        value           nonuniform List<tensor> 
60
(
(4.10937e-06 0 0 0 0 0 0 0 0)
(4.19635e-06 0 0 0 0 0 0 0 0)
(4.33184e-06 0 0 0 0 0 0 0 0)
(4.47135e-06 0 0 0 0 0 0 0 0)
(4.58626e-06 0 0 0 0 0 0 0 0)
(4.66843e-06 0 0 0 0 0 0 0 0)
(4.72229e-06 0 0 0 0 0 0 0 0)
(4.75626e-06 0 0 0 0 0 0 0 0)
(4.77809e-06 0 0 0 0 0 0 0 0)
(4.79331e-06 0 0 0 0 0 0 0 0)
(4.80539e-06 0 0 0 0 0 0 0 0)
(4.81636e-06 0 0 0 0 0 0 0 0)
(4.82741e-06 0 0 0 0 0 0 0 0)
(4.8392e-06 0 0 0 0 0 0 0 0)
(4.85202e-06 0 0 0 0 0 0 0 0)
(4.86578e-06 0 0 0 0 0 0 0 0)
(4.87983e-06 0 0 0 0 0 0 0 0)
(4.89292e-06 0 0 0 0 0 0 0 0)
(4.90323e-06 0 0 0 0 0 0 0 0)
(4.90797e-06 0 0 0 0 0 0 0 0)
(4.10936e-06 0 0 0 0 0 0 0 0)
(4.19559e-06 0 0 0 0 0 0 0 0)
(4.33101e-06 0 0 0 0 0 0 0 0)
(4.47046e-06 0 0 0 0 0 0 0 0)
(4.58533e-06 0 0 0 0 0 0 0 0)
(4.66747e-06 0 0 0 0 0 0 0 0)
(4.7213e-06 0 0 0 0 0 0 0 0)
(4.75526e-06 0 0 0 0 0 0 0 0)
(4.77708e-06 0 0 0 0 0 0 0 0)
(4.79229e-06 0 0 0 0 0 0 0 0)
(4.80436e-06 0 0 0 0 0 0 0 0)
(4.81533e-06 0 0 0 0 0 0 0 0)
(4.82638e-06 0 0 0 0 0 0 0 0)
(4.83816e-06 0 0 0 0 0 0 0 0)
(4.85097e-06 0 0 0 0 0 0 0 0)
(4.86472e-06 0 0 0 0 0 0 0 0)
(4.87877e-06 0 0 0 0 0 0 0 0)
(4.89186e-06 0 0 0 0 0 0 0 0)
(4.9022e-06 0 0 0 0 0 0 0 0)
(4.90795e-06 0 0 0 0 0 0 0 0)
(4.10937e-06 0 0 0 0 0 0 0 0)
(4.10937e-06 0 0 0 0 0 0 0 0)
(4.10937e-06 0 0 0 0 0 0 0 0)
(4.10937e-06 0 0 0 0 0 0 0 0)
(4.10937e-06 0 0 0 0 0 0 0 0)
(4.10937e-06 0 0 0 0 0 0 0 0)
(4.10936e-06 0 0 0 0 0 0 0 0)
(4.10936e-06 0 0 0 0 0 0 0 0)
(4.10936e-06 0 0 0 0 0 0 0 0)
(4.10936e-06 0 0 0 0 0 0 0 0)
(4.10936e-06 0 0 0 0 0 0 0 0)
(4.10936e-06 0 0 0 0 0 0 0 0)
(4.10936e-06 0 0 0 0 0 0 0 0)
(4.10936e-06 0 0 0 0 0 0 0 0)
(4.10936e-06 0 0 0 0 0 0 0 0)
(4.10936e-06 0 0 0 0 0 0 0 0)
(4.10936e-06 0 0 0 0 0 0 0 0)
(4.10936e-06 0 0 0 0 0 0 0 0)
(4.10936e-06 0 0 0 0 0 0 0 0)
(4.10936e-06 0 0 0 0 0 0 0 0)
)
;
    }
    frontAndBack
    {
        type            empty;
    }
}


// ************************************************************************* //
