/*--------------------------------*- C++ -*----------------------------------*\
| =========                 |                                                 |
| \\      /  F ield         | OpenFOAM: The Open Source CFD Toolbox           |
|  \\    /   O peration     | Version:  2506                                  |
|   \\  /    A nd           | Website:  www.openfoam.com                      |
|    \\/     M anipulation  |                                                 |
\*---------------------------------------------------------------------------*/
FoamFile
{
    version     2.0;
    format      ascii;
    arch        "LSB;label=32;scalar=64";
    class       volVectorField;
    location    "8";
    object      LambVectorField;
}
// * * * * * * * * * * * * * * * * * * * * * * * * * * * * * * * * * * * * * //

dimensions      [0 1 -2 0 0 0 0];

internalField   nonuniform List<vector> 
400
(
(-2.74589e-25 -4.745e-12 0)
(-6.19831e-26 5.51829e-12 -0)
(-2.88913e-27 -1.07552e-12 0)
(-1.60633e-28 3.36702e-13 -0)
(-3.56008e-30 -2.68904e-14 0)
(1.86025e-30 2.9585e-14 0)
(2.55007e-30 2.37011e-14 0)
(2.86739e-32 2.9586e-16 0)
(2.05106e-31 1.96022e-15 0)
(6.56502e-31 8.49128e-15 0)
(1.25672e-31 6.37241e-15 0)
(6.95098e-31 5.11447e-14 0)
(-4.30123e-31 -8.5383e-15 0)
(5.65127e-30 5.70986e-14 0)
(3.00472e-31 1.39815e-14 0)
(-2.74132e-32 6.71217e-16 -0)
(-1.69554e-31 -1.1473e-14 0)
(-5.7771e-30 -7.81861e-14 0)
(-1.88569e-31 1.14197e-14 -0)
(2.29034e-31 -5.68208e-15 -0)
(-2.42598e-28 -1.81038e-13 0)
(-7.10976e-30 9.90752e-14 -0)
(-1.20034e-29 -1.5342e-13 0)
(-3.19794e-30 -2.9835e-14 0)
(-8.9982e-30 -8.52602e-14 0)
(-1.22766e-29 -8.37201e-14 0)
(-2.79495e-30 -2.15681e-14 0)
(-4.13976e-30 -4.53577e-14 0)
(-1.79698e-30 -4.37617e-14 0)
(6.35515e-31 -4.80907e-14 -0)
(1.08928e-30 -5.41099e-14 -0)
(1.59108e-30 -1.11914e-13 -0)
(-1.05882e-30 -7.14936e-14 0)
(-1.00491e-29 -6.33539e-14 0)
(7.56343e-31 7.11867e-15 0)
(1.9665e-31 2.2492e-15 0)
(8.92266e-31 1.06532e-14 0)
(-9.83928e-31 5.15129e-14 -0)
(-5.44301e-30 3.39504e-14 -0)
(2.17026e-30 -2.47876e-14 -0)
(-1.47901e-25 3.63928e-12 -0)
(-2.92964e-26 -3.77003e-12 0)
(-1.70922e-27 9.2116e-13 -0)
(-7.56578e-29 -1.65693e-13 0)
(1.4746e-29 2.03492e-13 0)
(6.691e-30 1.39398e-13 0)
(1.79395e-30 5.31763e-14 0)
(6.63995e-30 1.1382e-13 0)
(-2.39922e-30 1.18418e-13 -0)
(-2.28413e-30 5.48492e-14 -0)
(-1.66716e-30 6.25544e-14 -0)
(-1.0631e-30 8.49885e-15 -0)
(4.82301e-30 -4.32016e-14 -0)
(-3.06618e-30 -8.54611e-14 0)
(2.87422e-30 1.43088e-14 0)
(2.31978e-30 1.41588e-14 0)
(3.50466e-30 5.91183e-14 0)
(-1.28224e-29 8.20413e-14 -0)
(1.2442e-30 -5.68051e-15 -0)
(3.16881e-30 -3.18516e-14 -0)
(-6.05533e-26 -2.3277e-12 0)
(-1.28769e-26 2.36371e-12 -0)
(-7.48087e-28 -5.78575e-13 0)
(-1.67573e-29 8.20973e-14 -0)
(-1.28915e-29 -6.41505e-14 0)
(-6.10943e-30 -3.67288e-14 0)
(-2.87982e-30 -9.69e-15 0)
(4.4178e-30 1.67825e-14 0)
(2.5691e-30 1.98585e-14 0)
(3.91565e-30 6.05634e-14 0)
(3.7698e-30 5.72597e-14 0)
(3.01703e-30 8.83275e-14 0)
(-4.11961e-31 9.61153e-14 -0)
(1.14029e-31 -1.00163e-15 -0)
(6.82286e-32 1.19069e-14 0)
(1.0762e-30 2.82187e-14 0)
(-2.21839e-31 4.10303e-14 -0)
(-6.58763e-30 6.51498e-14 -0)
(3.20701e-31 -2.79346e-15 -0)
(1.37568e-30 -1.87985e-14 -0)
(-1.17805e-26 1.01802e-12 -0)
(-2.90009e-27 -1.17127e-12 0)
(-1.66438e-28 2.47511e-13 -0)
(-7.91217e-32 -8.75316e-14 0)
(2.78978e-30 -4.09184e-14 -0)
(-1.11547e-29 -8.02281e-14 0)
(-9.7214e-31 -5.06322e-15 0)
(4.81712e-32 2.53975e-16 0)
(1.43842e-30 7.59219e-15 0)
(-2.12093e-30 -1.8646e-14 0)
(-2.88787e-30 -2.75376e-14 0)
(4.2785e-30 3.62362e-14 0)
(1.11516e-30 8.22484e-14 0)
(-2.07379e-29 1.27767e-13 -0)
(3.14899e-30 -1.75035e-14 -0)
(-6.87399e-31 -5.40223e-14 0)
(-5.57132e-31 -6.24123e-15 0)
(3.76571e-31 5.01182e-15 0)
(2.07794e-31 5.30788e-15 0)
(1.35007e-31 6.12061e-15 0)
(-9.17956e-27 7.58153e-13 -0)
(-2.0623e-27 -9.88258e-13 0)
(-1.42184e-28 1.63438e-13 -0)
(1.15136e-29 -1.2839e-13 -0)
(1.28424e-29 -1.00208e-13 -0)
(-1.05601e-29 -1.06397e-13 0)
(-7.203e-30 -5.87232e-14 0)
(-1.67377e-29 -1.15926e-13 0)
(-2.30193e-29 -1.16423e-13 0)
(-6.21746e-30 -2.7706e-14 0)
(-2.71906e-30 -1.33463e-14 0)
(2.10377e-30 2.42312e-14 0)
(-4.57026e-31 1.18459e-14 -0)
(6.89818e-32 -2.18037e-15 -0)
(4.91581e-31 -2.93002e-14 -0)
(3.66814e-32 -3.78709e-15 -0)
(-8.50415e-31 -4.03164e-14 0)
(-7.58371e-30 -6.19444e-14 0)
(7.80099e-31 7.92492e-15 0)
(1.78183e-30 4.12665e-14 0)
(-5.4105e-26 -2.2362e-12 0)
(-1.06847e-26 2.21923e-12 -0)
(-5.39315e-28 -5.87093e-13 0)
(-6.84445e-31 2.28954e-15 -0)
(-1.51901e-29 -1.83962e-13 0)
(-2.26258e-29 -1.22023e-13 0)
(-2.84629e-29 -1.30205e-13 0)
(-1.54948e-30 -1.17191e-14 0)
(-1.36783e-30 -2.11274e-14 0)
(-6.04384e-30 -8.34304e-14 0)
(-6.96495e-30 -8.10871e-14 0)
(-3.84959e-30 -5.48681e-14 0)
(-5.61966e-30 -6.07695e-14 0)
(-8.16862e-30 -6.01721e-14 0)
(-1.15397e-29 -7.58713e-14 0)
(1.51837e-30 1.86725e-14 0)
(-1.15533e-30 3.33625e-14 -0)
(-1.2448e-30 -6.6419e-14 0)
(-4.97856e-31 -5.6924e-15 0)
(3.28522e-30 4.34176e-14 0)
(-5.69172e-27 9.2904e-13 -0)
(-4.78029e-28 -5.30083e-13 0)
(-6.35576e-29 2.24176e-13 -0)
(7.68734e-31 5.02736e-14 0)
(3.82542e-30 1.42212e-13 0)
(-7.52083e-30 1.45815e-13 -0)
(-5.95797e-30 7.83984e-14 -0)
(-3.86922e-31 1.72657e-14 -0)
(1.84582e-30 8.24123e-14 0)
(-1.39194e-30 4.1698e-14 -0)
(-1.11574e-29 9.03197e-14 -0)
(1.15935e-30 -9.39298e-15 -0)
(-4.84057e-31 1.6352e-14 -0)
(3.98506e-32 -2.50688e-15 -0)
(2.68287e-32 -5.91785e-15 -0)
(-3.7885e-30 -8.75306e-14 0)
(-6.52125e-30 -1.13176e-13 0)
(-7.52705e-31 -8.28642e-15 0)
(-4.4668e-30 -3.17956e-14 0)
(9.88397e-32 7.17574e-16 0)
(-4.82869e-26 1.96537e-12 -0)
(-1.05093e-26 -2.13819e-12 0)
(-8.04123e-28 6.23554e-13 -0)
(2.19015e-30 7.1615e-15 0)
(-1.03303e-30 1.73862e-13 -0)
(-9.76033e-30 1.25861e-13 -0)
(-1.51936e-29 8.42441e-14 -0)
(-6.74018e-30 6.3088e-14 -0)
(-1.10744e-32 -5.76813e-15 0)
(-4.57519e-30 9.3074e-14 -0)
(-2.78926e-30 2.41141e-14 -0)
(3.2632e-31 -1.69541e-14 -0)
(-8.87083e-31 -1.64664e-14 0)
(-1.02858e-30 -7.0733e-15 0)
(8.87988e-30 7.12641e-14 0)
(-2.39803e-30 9.54528e-14 -0)
(4.87643e-32 -2.90763e-15 -0)
(-2.35853e-32 -5.96553e-15 0)
(-2.55087e-30 -5.94827e-14 0)
(-9.71982e-31 -1.71487e-14 0)
(-4.96625e-26 -2.04842e-12 0)
(-1.11124e-26 2.17234e-12 -0)
(-6.96166e-28 -5.97239e-13 0)
(-5.55038e-30 2.44286e-14 -0)
(-1.09948e-29 -1.01612e-13 0)
(9.66955e-31 -3.98864e-14 -0)
(3.06304e-30 -8.74343e-14 -0)
(-3.17342e-30 -8.58882e-14 0)
(-8.08224e-31 -7.5548e-14 0)
(1.5107e-30 -7.28995e-14 -0)
(8.15264e-30 -1.10983e-13 -0)
(-3.79728e-31 -7.74549e-14 0)
(-1.71343e-29 -1.0777e-13 0)
(-2.43917e-29 -9.05222e-14 0)
(-9.47953e-30 -3.77581e-14 0)
(2.12351e-30 2.02364e-14 0)
(3.00312e-30 6.16716e-14 0)
(1.7694e-30 5.83585e-14 0)
(4.31335e-31 5.98166e-14 0)
(-6.50108e-31 2.52516e-14 -0)
(-1.46477e-26 1.80602e-12 -0)
(-1.40617e-27 -9.80291e-13 0)
(-3.3315e-29 1.6257e-13 -0)
(-8.50763e-30 -1.06632e-13 0)
(-2.22944e-30 -4.62128e-14 0)
(1.08443e-32 -5.75952e-14 -0)
(-3.24381e-30 -3.95132e-14 0)
(7.39392e-31 5.96798e-15 0)
(8.01945e-31 3.57779e-14 0)
(-4.23965e-32 -1.14078e-15 0)
(1.54558e-31 4.56971e-15 0)
(1.83588e-32 -2.15157e-15 -0)
(1.04976e-31 1.897e-15 0)
(-1.09371e-30 3.97674e-14 -0)
(-5.88332e-30 8.25318e-14 -0)
(3.72683e-31 -9.39473e-15 -0)
(-1.73958e-31 -7.67623e-15 0)
(-7.63955e-32 -2.05957e-15 0)
(-7.55667e-32 -1.7469e-15 0)
(5.33723e-31 9.78195e-15 0)
(-3.36904e-28 -2.06021e-12 0)
(2.55541e-28 2.76886e-13 0)
(-1.56295e-29 -1.48604e-13 0)
(2.54551e-30 1.0582e-14 0)
(4.88028e-33 -7.57418e-15 -0)
(-1.56146e-30 -3.45129e-14 0)
(4.28047e-31 5.82902e-15 0)
(2.27595e-31 -1.74439e-14 -0)
(8.01864e-31 -3.45962e-14 -0)
(-2.3241e-30 -3.75676e-14 0)
(7.26592e-30 8.92103e-14 0)
(-1.84927e-31 1.08229e-14 -0)
(7.27871e-31 -2.7178e-14 -0)
(3.77825e-32 -2.30978e-15 -0)
(2.85601e-31 -7.75286e-14 -0)
(4.46631e-32 -8.23691e-16 -0)
(-2.78912e-31 -6.12577e-14 0)
(-8.62326e-32 -5.30572e-15 0)
(-3.82587e-30 -6.64095e-14 0)
(-1.03953e-30 -7.51936e-15 0)
(-1.76205e-28 2.71419e-13 -0)
(1.56452e-29 -9.33279e-14 -0)
(2.53284e-29 8.91594e-14 0)
(3.04664e-30 1.22006e-13 0)
(-3.94206e-30 3.20928e-14 -0)
(-3.7585e-31 1.50903e-14 -0)
(-7.75929e-32 2.88999e-14 -0)
(-1.11333e-30 2.59787e-14 -0)
(1.74397e-31 2.03293e-14 0)
(6.24421e-31 2.50753e-14 0)
(1.16321e-31 4.02834e-15 0)
(-1.03632e-30 6.73739e-14 -0)
(-9.18191e-30 8.93508e-14 -0)
(-5.34732e-30 5.58539e-14 -0)
(-6.13226e-30 5.14451e-14 -0)
(7.70154e-31 -1.13112e-14 -0)
(7.13656e-32 -1.17219e-14 -0)
(-1.01654e-32 -2.06904e-16 0)
(-2.17654e-31 5.41535e-14 -0)
(1.57405e-30 3.16728e-14 0)
(-2.86055e-26 2.64103e-12 -0)
(-2.96934e-27 -1.45611e-12 0)
(-1.09808e-28 3.26966e-13 -0)
(-1.17146e-29 -9.38521e-14 0)
(3.29561e-30 5.44015e-14 0)
(-7.09773e-31 -5.77492e-15 0)
(6.77959e-30 5.72946e-14 0)
(9.04891e-30 9.82923e-14 0)
(-7.14045e-30 1.38803e-13 -0)
(-2.48277e-29 1.17241e-13 -0)
(-7.89703e-31 5.65501e-15 -0)
(1.22022e-31 4.46442e-14 0)
(-1.45174e-30 3.30035e-14 -0)
(-2.10401e-30 3.74036e-14 -0)
(-4.4307e-30 3.01464e-14 -0)
(-2.14822e-30 2.47878e-14 -0)
(-5.46934e-30 4.41788e-14 -0)
(1.91793e-31 1.40522e-14 0)
(2.00114e-31 2.97415e-14 0)
(7.61282e-33 -5.98704e-16 -0)
(-1.04286e-25 -3.5374e-12 0)
(-1.86312e-26 3.08812e-12 -0)
(-9.34756e-28 -7.13434e-13 0)
(-3.19067e-29 1.25567e-13 -0)
(-3.82499e-30 -7.01107e-14 0)
(-1.97586e-30 2.07775e-14 -0)
(7.87188e-30 -5.13769e-14 -0)
(1.04806e-29 -8.49127e-14 -0)
(6.80565e-30 -5.80476e-14 -0)
(1.05924e-29 -1.24539e-13 -0)
(-4.2714e-30 -9.71938e-14 0)
(-8.19403e-30 -1.1113e-13 0)
(-7.49587e-30 -1.05514e-13 0)
(-2.93952e-30 -6.5808e-14 0)
(6.56086e-31 -7.80776e-15 -0)
(4.10231e-30 -2.76613e-14 -0)
(1.65912e-30 -2.1144e-14 -0)
(-2.76455e-30 -4.3788e-14 0)
(-2.10708e-30 -2.38461e-14 0)
(-4.64727e-31 -1.52144e-14 0)
(-9.29769e-26 2.57973e-12 -0)
(-2.48242e-26 -3.29518e-12 0)
(-1.29141e-27 7.44643e-13 -0)
(-4.06265e-29 -1.13447e-13 0)
(-2.47996e-30 4.29833e-14 -0)
(-6.8641e-30 9.57043e-14 -0)
(-1.30977e-29 6.4973e-14 -0)
(-7.72403e-30 4.30664e-14 -0)
(1.42201e-30 -1.57738e-14 -0)
(2.16482e-31 -1.0016e-14 -0)
(5.73481e-31 5.72939e-14 0)
(-3.06529e-30 5.84406e-14 -0)
(-2.78001e-30 8.60795e-14 -0)
(-6.86091e-30 6.85438e-14 -0)
(-5.2412e-30 2.98417e-14 -0)
(2.28271e-30 -1.7909e-14 -0)
(-3.33939e-32 -9.66069e-15 0)
(-1.31458e-31 4.26051e-15 -0)
(1.89926e-31 -4.85143e-15 -0)
(4.40707e-31 2.49561e-14 0)
(-1.40991e-26 -9.29959e-13 0)
(-4.30192e-27 1.36531e-12 -0)
(-1.99138e-28 -2.86637e-13 0)
(-2.13387e-29 7.50007e-14 -0)
(-1.85008e-30 3.34748e-14 -0)
(5.91525e-31 -7.66614e-15 -0)
(-1.71099e-31 -7.99766e-15 0)
(2.12102e-32 7.53241e-15 0)
(-1.6587e-30 3.07563e-14 -0)
(-2.93975e-30 8.72431e-14 -0)
(-7.42691e-30 6.56033e-14 -0)
(-3.96869e-30 2.68831e-14 -0)
(-5.6581e-30 5.09783e-14 -0)
(-6.04871e-30 5.24562e-14 -0)
(-1.94374e-30 2.07995e-14 -0)
(3.31128e-30 -6.33686e-14 -0)
(-2.394e-33 1.28278e-15 -0)
(-4.85786e-31 7.4642e-15 -0)
(5.5354e-31 -7.23504e-15 -0)
(-5.03257e-32 -6.924e-15 0)
(-5.18359e-26 -1.76696e-12 0)
(-1.59831e-26 2.6752e-12 -0)
(-6.21653e-28 -5.05818e-13 0)
(-6.82287e-29 1.82288e-13 -0)
(1.34086e-30 -2.58969e-14 -0)
(2.83637e-31 -2.45954e-15 -0)
(4.03116e-33 -1.48305e-16 -0)
(-7.46113e-30 6.55416e-14 -0)
(4.98326e-31 -3.5469e-15 -0)
(2.13859e-30 -2.72887e-14 -0)
(7.18827e-30 -5.18411e-14 -0)
(4.09727e-30 -4.0146e-14 -0)
(9.94891e-31 -1.20592e-13 -0)
(-1.12856e-30 -5.74206e-14 0)
(-1.27491e-30 -5.34439e-14 0)
(7.31314e-31 6.09848e-14 0)
(-5.44855e-31 1.24136e-14 -0)
(5.89592e-30 -5.25743e-14 -0)
(6.49585e-31 -1.07815e-14 -0)
(2.79626e-32 -6.458e-15 -0)
(-9.38467e-26 2.95173e-12 -0)
(-1.91599e-26 -3.021e-12 0)
(-1.22157e-27 7.71297e-13 -0)
(-3.88929e-29 -1.52182e-13 0)
(-4.88917e-30 7.89039e-14 -0)
(2.08001e-31 2.41017e-14 0)
(-2.10575e-30 6.59482e-14 -0)
(-6.66891e-30 6.13231e-14 -0)
(-5.11566e-30 4.96375e-14 -0)
(-3.48889e-30 5.53583e-14 -0)
(-7.07938e-30 6.18059e-14 -0)
(-7.0808e-30 5.09477e-14 -0)
(-5.88422e-30 7.18301e-14 -0)
(-1.88216e-30 4.26493e-14 -0)
(5.25419e-31 1.55962e-14 0)
(4.73547e-30 6.67362e-14 0)
(-7.57585e-30 8.27315e-14 -0)
(-1.1904e-29 5.55594e-14 -0)
(2.15571e-30 -2.05179e-14 -0)
(3.49635e-31 -3.85192e-14 -0)
(1.18468e-27 -2.39958e-13 -0)
(-1.11618e-28 -3.85815e-13 0)
(3.13733e-29 -1.1806e-13 -0)
(9.82439e-30 -6.28165e-14 -0)
(9.9153e-30 -5.51845e-14 -0)
(8.95348e-30 -6.10517e-14 -0)
(6.83775e-30 -6.14578e-14 -0)
(8.89997e-30 -1.19983e-13 -0)
(-4.23374e-31 -9.69433e-14 0)
(-5.08453e-30 -6.19277e-14 0)
(-3.77386e-30 -4.62807e-14 0)
(-1.12591e-31 -4.0071e-14 0)
(1.02951e-30 -1.72019e-14 -0)
(5.28903e-30 -5.49672e-14 -0)
(1.65045e-30 -3.1571e-14 -0)
(2.61089e-30 -5.06357e-14 -0)
(4.13823e-30 -4.70141e-14 -0)
(4.0451e-31 -3.2748e-15 -0)
(7.60829e-31 -1.37649e-14 -0)
(-5.81282e-32 -4.11455e-15 0)
)
;

boundaryField
{
    movingWall
    {
        type            calculated;
        value           nonuniform List<vector> 
20
(
(0 -5.12223e-13 -0)
(0 -6.89174e-13 -0)
(0 -5.32746e-13 -0)
(0 -3.19469e-13 -0)
(0 -3.56246e-13 -0)
(0 -2.73295e-13 -0)
(0 -2.29292e-13 -0)
(0 -2.78016e-13 -0)
(0 -2.37673e-13 -0)
(0 -2.29762e-13 -0)
(0 -2.14115e-13 -0)
(0 -2.07905e-13 -0)
(0 -2.12141e-13 -0)
(0 -1.78393e-13 -0)
(0 -1.37693e-13 -0)
(0 -1.74061e-13 -0)
(0 -1.26031e-13 -0)
(0 -4.76837e-14 -0)
(0 -1.37649e-14 -0)
(0 -4.11455e-15 -0)
)
;
    }
    fixedWalls
    {
        type            calculated;
        value           nonuniform List<vector> 
60
(
(0 -2.3229e-11 -0)
(0 -5.90226e-13 -0)
(0 1.66084e-11 -0)
(0 -1.06768e-11 -0)
(0 4.73722e-12 -0)
(0 4.59917e-12 -0)
(0 -9.97619e-12 -0)
(0 2.85715e-12 -0)
(0 9.82752e-12 -0)
(0 -9.83325e-12 -0)
(0 4.3826e-12 -0)
(0 -2.01698e-12 -0)
(0 4.49415e-13 -0)
(0 6.09431e-12 -0)
(0 -1.2985e-11 -0)
(0 1.41455e-11 -0)
(0 -5.79334e-12 -0)
(0 -1.11653e-11 -0)
(0 1.31241e-11 -0)
(0 1.27008e-12 -0)
(0 -1.61233e-14 -0)
(0 -3.50217e-14 -0)
(0 -3.97947e-14 -0)
(0 -2.92722e-14 -0)
(0 8.82314e-15 -0)
(0 4.43765e-14 -0)
(0 5.73713e-14 -0)
(0 2.79916e-14 -0)
(0 -4.43315e-15 -0)
(0 1.6807e-14 -0)
(0 2.18248e-14 -0)
(0 2.81936e-14 -0)
(0 4.69839e-14 -0)
(0 -5.0862e-15 -0)
(0 -1.48869e-14 -0)
(0 3.41688e-14 -0)
(0 2.90732e-15 -0)
(0 -1.73197e-15 -0)
(0 -3.07358e-14 -0)
(0 5.65099e-15 -0)
(0 -2.44324e-12 -0)
(0 5.5627e-12 -0)
(0 -4.09388e-13 -0)
(0 5.66249e-13 -0)
(0 2.12458e-13 -0)
(0 3.13342e-13 -0)
(0 2.18641e-13 -0)
(0 1.77932e-13 -0)
(0 1.79596e-13 -0)
(0 9.73091e-14 -0)
(0 5.07813e-14 -0)
(0 8.57524e-14 -0)
(0 3.58706e-14 -0)
(0 9.17063e-14 -0)
(0 1.39815e-14 -0)
(0 6.71217e-16 -0)
(0 3.29359e-14 -0)
(0 -8.56887e-14 -0)
(0 -7.73981e-14 -0)
(0 -5.68208e-15 -0)
)
;
    }
    frontAndBack
    {
        type            empty;
    }
}


// ************************************************************************* //
