/*--------------------------------*- C++ -*----------------------------------*\
| =========                 |                                                 |
| \\      /  F ield         | OpenFOAM: The Open Source CFD Toolbox           |
|  \\    /   O peration     | Version:  2506                                  |
|   \\  /    A nd           | Website:  www.openfoam.com                      |
|    \\/     M anipulation  |                                                 |
\*---------------------------------------------------------------------------*/
FoamFile
{
    version     2.0;
    format      ascii;
    arch        "LSB;label=32;scalar=64";
    class       volScalarField;
    location    "8";
    object      Lambda2Field;
}
// * * * * * * * * * * * * * * * * * * * * * * * * * * * * * * * * * * * * * //

dimensions      [0 0 -2 0 0 0 0];

internalField   nonuniform List<scalar> 
400
(
0
1.43998e-25
2.93874e-27
-1.41547e-26
1.46355e-27
3.71752e-28
6.54805e-28
0
2.12276e-28
0
1.67766e-33
1.66182e-28
0
5.06949e-28
1.63171e-28
0
0
2.84462e-28
3.12706e-28
0
3.48712e-25
1.91499e-25
0
8.64382e-27
0
-1.9334e-28
2.04627e-28
4.7989e-28
5.66409e-28
4.73244e-28
5.4319e-30
-1.86515e-28
-6.7445e-28
-4.55874e-28
0
4.18945e-28
1.98058e-29
0
2.24588e-28
0
0
6.32826e-25
-1.24021e-25
5.22579e-27
-6.55429e-27
-5.2099e-28
5.60435e-29
0
-3.49315e-28
2.5991e-29
0
2.34006e-29
-4.3265e-28
0
3.46842e-28
0
-7.8822e-28
-7.74047e-28
2.07191e-29
0
0
4.12027e-25
-1.44294e-26
2.95994e-27
0
-1.77972e-28
2.50477e-28
1.72481e-28
0
-1.02948e-28
0
2.106e-29
0
0
1.86186e-27
0
-3.68455e-28
-5.74535e-29
6.66558e-28
0
0
1.71645e-26
1.83671e-26
-9.03181e-28
7.08757e-28
-1.36543e-27
3.04622e-28
0
0
4.84498e-28
1.78424e-28
0
-1.5082e-27
-2.02997e-27
0
-7.06723e-28
7.02261e-30
4.99714e-28
4.54714e-28
1.35394e-28
2.62824e-25
1.99321e-25
1.25334e-26
-3.1222e-27
-1.30902e-27
-2.01802e-27
-2.37577e-28
-7.80805e-28
-7.12093e-28
7.72821e-31
3.76532e-28
0
6.22783e-29
0
1.04275e-27
0
0
-3.87471e-28
0
-3.5511e-28
-2.20074e-25
2.64119e-25
-5.45867e-26
6.79833e-27
-3.62566e-27
-1.24733e-27
1.1157e-27
4.17036e-28
4.69408e-28
4.9255e-28
1.08956e-27
4.06369e-28
-3.54777e-28
-3.20724e-28
4.42668e-28
0
0
-6.51867e-28
1.76809e-29
0
1.11574e-25
1.75673e-25
0
3.25883e-27
-8.27896e-28
0
1.82881e-27
2.66696e-28
-4.9749e-29
-2.47682e-28
-3.25927e-28
7.99378e-29
2.91461e-28
9.33695e-31
0
0
-5.12393e-28
0
0
7.57738e-28
2.12324e-25
5.47484e-25
-5.39597e-26
1.79846e-26
-5.12953e-27
-1.15627e-27
-2.21387e-28
1.48214e-27
0
-9.54573e-28
8.1069e-29
0
0
7.34684e-28
0
-4.14921e-28
0
3.66225e-29
-1.0821e-28
5.37148e-28
0
4.33922e-25
-4.12331e-26
8.59857e-27
-9.15735e-28
8.36333e-28
1.91203e-28
1.60508e-28
4.73155e-28
6.84322e-28
0
0
0
-4.49661e-28
1.2756e-27
0
-3.88941e-28
0
-3.03926e-28
5.02372e-29
0
0
0
0
4.33535e-28
-1.35226e-28
0
2.49955e-29
-2.23603e-28
0
0
0
0
0
0
0
1.94854e-29
1.97873e-30
2.54009e-29
2.68933e-28
8.18477e-26
2.40847e-26
1.5531e-26
3.00455e-29
8.22055e-28
-1.94679e-28
0
2.61866e-28
-2.01134e-28
-2.82083e-28
-6.41748e-28
4.69061e-31
2.47982e-28
4.65601e-29
3.30862e-28
0
-3.73785e-28
1.44909e-30
-6.38979e-28
5.30871e-28
1.19334e-24
1.24615e-26
4.03321e-27
0
0
3.85977e-28
-2.84949e-29
1.41008e-28
1.91646e-28
8.03758e-28
4.88825e-28
0
0
-7.31923e-29
3.55208e-28
1.05245e-29
1.64745e-28
0
2.89599e-29
1.04085e-28
0
0
-7.5779e-27
0
3.04293e-28
0
5.93921e-29
-6.45817e-28
-3.13581e-27
-8.35406e-28
5.81405e-28
5.1857e-28
1.42201e-28
-8.20049e-29
0
6.28102e-29
5.43799e-28
3.53798e-28
1.38819e-29
3.66794e-30
0
-4.617e-25
-5.87653e-26
5.44244e-28
-7.2208e-28
3.78801e-28
8.88271e-28
4.44111e-28
0
-1.01294e-27
-5.56494e-28
-2.63306e-28
3.16499e-28
1.26097e-27
5.23054e-28
1.56706e-30
0
-4.32385e-28
1.09382e-28
3.31524e-28
8.46175e-25
5.48024e-25
-1.28367e-26
9.09795e-27
1.20614e-28
-4.35367e-28
-2.78567e-28
7.63475e-28
4.00841e-29
2.63752e-29
7.9811e-29
0
-5.60598e-29
0
0
9.22572e-29
5.86775e-29
1.64396e-28
0
5.82465e-29
3.32146e-25
1.24245e-25
2.93874e-27
5.3641e-27
1.12441e-27
1.90088e-29
0
4.29199e-29
0
-4.49817e-28
-3.96599e-28
6.01494e-30
1.75195e-28
2.3848e-28
5.68868e-28
-3.02009e-28
0
0
4.4528e-30
4.83524e-30
1.34813e-24
4.07372e-25
3.10939e-26
-4.0044e-27
4.4835e-31
7.36007e-29
0
-4.8981e-28
0
0
1.28442e-28
-3.52728e-28
-1.31117e-27
0
4.15387e-29
0
8.04703e-29
3.11208e-28
0
0
0
1.88079e-25
-7.6645e-26
4.74767e-28
0
8.14051e-29
0
-3.69867e-28
4.57738e-28
0
7.31242e-29
2.86828e-28
7.71279e-28
7.60982e-28
3.11949e-28
0
-8.11465e-28
-7.18526e-29
2.47718e-31
0
4.16437e-25
4.97397e-26
7.98315e-27
0
5.31071e-28
0
-1.87866e-28
-5.1894e-28
-1.1734e-27
-4.1473e-28
4.29856e-28
7.66484e-28
4.69404e-28
0
-1.17595e-28
1.97529e-28
3.90095e-28
1.14094e-27
0
0
)
;

boundaryField
{
    movingWall
    {
        type            calculated;
        value           nonuniform List<scalar> 
20
(
5.42979e-25
-9.03322e-26
2.64658e-26
0
3.88501e-28
0
0
-2.20055e-27
-3.46709e-27
-6.35066e-28
1.76069e-27
3.13952e-27
2.77203e-27
0
-1.57718e-28
1.06032e-27
9.58697e-28
2.2958e-27
0
0
)
;
    }
    fixedWalls
    {
        type            calculated;
        value           nonuniform List<scalar> 
60
(
3.04812e-24
6.60526e-24
0
0
6.34104e-25
1.82043e-24
-2.52779e-24
3.17673e-24
2.84779e-24
1.39448e-24
0
4.29052e-25
1.15957e-24
1.44517e-24
-7.70835e-24
5.95822e-24
1.76997e-24
7.18421e-24
0
2.34624e-24
0
0
0
0
0
-4.39405e-28
0
1.497e-27
6.14523e-28
2.7913e-28
2.68933e-28
1.49887e-27
-3.10922e-28
3.66794e-30
3.40399e-28
-1.86044e-28
4.83524e-30
0
0
0
1.06795e-23
0
7.1938e-25
-4.29738e-26
1.43873e-26
-3.62402e-29
2.60801e-27
0
3.86479e-28
0
0
3.01819e-28
3.79177e-28
4.78133e-28
7.38958e-29
0
5.09505e-28
1.15146e-27
1.0579e-27
0
)
;
    }
    frontAndBack
    {
        type            empty;
    }
}


// ************************************************************************* //
