/*--------------------------------*- C++ -*----------------------------------*\
| =========                 |                                                 |
| \\      /  F ield         | OpenFOAM: The Open Source CFD Toolbox           |
|  \\    /   O peration     | Version:  2506                                  |
|   \\  /    A nd           | Website:  www.openfoam.com                      |
|    \\/     M anipulation  |                                                 |
\*---------------------------------------------------------------------------*/
FoamFile
{
    version     2.0;
    format      ascii;
    arch        "LSB;label=32;scalar=64";
    class       volScalarField;
    location    "8";
    object      magSqrP;
}
// * * * * * * * * * * * * * * * * * * * * * * * * * * * * * * * * * * * * * //

dimensions      [0 4 -4 0 0 0 0];

internalField   nonuniform List<scalar> 
400
(
1.62305e-31
6.29345e-30
1.63316e-30
2.69062e-30
3.40779e-30
4.34676e-30
5.14482e-30
5.43065e-30
5.49384e-30
5.01154e-30
4.63421e-30
3.48368e-30
3.18103e-30
3.84214e-30
4.71929e-30
5.14309e-30
5.59742e-30
6.13568e-30
4.64908e-30
5.05095e-30
2.9589e-30
0
2.14354e-30
2.59059e-30
4.41488e-30
4.35668e-30
4.26569e-30
5.08693e-30
5.0421e-30
4.29036e-30
4.55884e-30
3.9122e-30
3.61642e-30
3.62195e-30
4.49363e-30
5.46103e-30
5.60844e-30
5.48636e-30
5.07472e-30
5.46948e-30
1.89299e-30
5.1098e-30
2.31155e-30
3.14369e-30
3.70106e-30
3.81831e-30
4.01325e-30
4.72638e-30
5.2368e-30
5.80601e-30
5.39308e-30
4.18117e-30
4.51209e-30
3.7125e-30
4.21497e-30
4.4584e-30
4.7321e-30
5.80156e-30
6.22398e-30
6.32989e-30
1.41273e-30
3.96678e-30
2.96292e-30
3.22397e-30
3.18048e-30
4.11708e-30
4.53663e-30
4.68976e-30
4.65912e-30
5.04221e-30
5.09022e-30
5.31475e-30
5.46517e-30
4.72057e-30
4.14325e-30
4.6133e-30
4.27643e-30
5.16651e-30
6.44511e-30
7.36747e-30
3.12409e-30
1.54793e-30
3.34187e-30
3.49582e-30
3.11916e-30
3.70868e-30
3.98237e-30
4.67422e-30
5.13553e-30
5.47123e-30
5.39591e-30
4.74695e-30
5.37055e-30
5.34075e-30
4.9907e-30
4.53742e-30
3.88116e-30
5.25022e-30
6.58456e-30
7.92903e-30
2.70254e-30
4.96215e-30
3.52435e-30
4.03775e-30
3.67744e-30
3.59683e-30
3.96643e-30
4.78795e-30
5.0766e-30
5.52002e-30
4.94626e-30
5.1977e-30
5.65864e-30
5.76578e-30
5.69651e-30
4.73874e-30
4.29642e-30
5.27619e-30
5.92093e-30
6.87653e-30
4.16399e-30
4.66919e-30
4.11417e-30
3.95817e-30
4.3298e-30
3.80024e-30
3.47355e-30
4.43258e-30
4.37493e-30
4.89103e-30
4.61718e-30
4.85773e-30
5.76764e-30
5.63927e-30
5.74134e-30
5.22144e-30
5.02183e-30
4.7384e-30
5.41894e-30
6.85326e-30
6.16948e-30
5.39446e-31
4.08898e-30
3.83804e-30
3.76596e-30
3.19856e-30
3.28126e-30
4.11086e-30
4.28664e-30
4.5707e-30
4.67006e-30
4.34954e-30
5.19158e-30
5.79461e-30
5.93276e-30
4.90417e-30
5.35839e-30
4.87604e-30
5.10054e-30
5.56282e-30
3.66028e-30
8.06089e-30
3.99368e-30
4.27222e-30
3.64135e-30
3.40647e-30
3.39791e-30
3.78641e-30
3.88557e-30
3.84967e-30
3.9118e-30
4.07535e-30
5.19695e-30
5.79948e-30
5.95856e-30
5.45506e-30
5.17297e-30
4.83495e-30
5.29147e-30
4.83745e-30
3.03611e-30
3.46338e-30
4.29437e-30
3.78935e-30
3.28248e-30
2.84305e-30
3.50874e-30
4.37311e-30
3.19274e-30
3.37486e-30
3.98293e-30
3.66205e-30
5.07604e-30
5.22259e-30
4.40079e-30
5.33335e-30
5.02327e-30
5.24224e-30
4.82432e-30
4.89223e-30
3.58547e-30
2.77949e-30
4.19119e-30
3.36137e-30
2.99787e-30
3.11382e-30
3.65737e-30
3.07974e-30
3.17126e-30
3.29421e-30
3.68295e-30
4.07678e-30
4.46589e-30
4.62152e-30
4.46449e-30
4.68997e-30
4.2261e-30
3.99472e-30
3.9619e-30
5.01613e-30
4.31707e-30
5.99316e-30
3.64184e-30
3.26478e-30
2.72409e-30
3.49417e-30
3.38272e-30
3.20467e-30
3.26406e-30
3.12719e-30
3.39848e-30
4.47285e-30
3.88622e-30
3.94118e-30
3.56949e-30
3.90743e-30
3.75049e-30
4.33373e-30
3.8689e-30
3.88807e-30
6.40888e-30
4.39143e-31
3.60692e-30
2.55621e-30
3.62144e-30
3.88084e-30
3.16205e-30
2.78706e-30
3.57117e-30
2.74013e-30
2.68057e-30
4.08988e-30
4.29401e-30
3.54961e-30
3.08739e-30
3.89374e-30
3.19674e-30
3.49419e-30
3.14814e-30
2.92012e-30
5.45344e-30
9.90883e-30
3.17398e-30
2.95854e-30
3.46812e-30
3.31476e-30
2.93235e-30
3.05883e-30
2.96923e-30
2.93045e-30
3.01603e-30
3.75518e-30
4.30593e-30
3.67982e-30
3.19579e-30
3.11813e-30
2.82698e-30
2.46748e-30
2.55961e-30
2.73196e-30
6.88591e-30
3.29834e-30
3.72475e-30
3.74073e-30
3.437e-30
2.72432e-30
2.56815e-30
2.7294e-30
2.83141e-30
3.37296e-30
3.54577e-30
3.83348e-30
4.36067e-30
3.16934e-30
2.788e-30
2.48144e-30
2.79949e-30
1.57319e-30
1.4922e-30
2.72218e-30
6.5603e-30
3.06935e-30
4.19896e-30
3.75165e-30
3.87449e-30
2.80283e-30
2.64966e-30
2.90101e-30
3.17888e-30
3.90731e-30
3.30398e-30
3.8754e-30
3.77209e-30
2.63863e-30
2.41864e-30
2.89855e-30
2.69698e-30
1.55492e-30
1.24713e-30
2.34231e-30
6.54777e-30
1.1887e-29
3.7919e-30
4.38862e-30
3.02309e-30
2.75013e-30
2.89454e-30
2.91005e-30
3.21019e-30
3.59939e-30
3.28247e-30
3.39562e-30
3.21535e-30
3.02208e-30
3.24056e-30
2.53496e-30
1.729e-30
1.17412e-30
1.21509e-30
2.40997e-30
8.10675e-30
2.05742e-30
5.1147e-30
3.89878e-30
3.48875e-30
3.74321e-30
3.2163e-30
3.31145e-30
3.17681e-30
3.11141e-30
3.00616e-30
3.18268e-30
2.88246e-30
2.82484e-30
3.45459e-30
3.44292e-30
1.72042e-30
8.48135e-31
1.0835e-30
2.18931e-30
6.52126e-30
4.3056e-30
5.7634e-30
4.433e-30
3.69459e-30
3.76181e-30
2.99049e-30
3.25737e-30
3.74834e-30
3.28877e-30
3.09973e-30
3.36089e-30
2.77419e-30
2.56949e-30
3.32739e-30
2.21242e-30
1.64622e-30
1.32414e-30
1.32088e-30
2.47515e-30
2.31991e-30
1.0589e-29
5.68967e-30
5.37609e-30
4.80806e-30
4.26434e-30
3.2054e-30
3.41987e-30
3.81305e-30
3.24094e-30
2.67184e-30
2.60925e-30
2.72419e-30
2.79097e-30
3.09203e-30
2.274e-30
1.63356e-30
1.73133e-30
1.55287e-30
2.39016e-30
)
;

boundaryField
{
    movingWall
    {
        type            calculated;
        value           nonuniform List<scalar> 
20
(
2.31991e-30
1.0589e-29
5.68967e-30
5.37609e-30
4.80806e-30
4.26434e-30
3.2054e-30
3.41987e-30
3.81305e-30
3.24094e-30
2.67184e-30
2.60925e-30
2.72419e-30
2.79097e-30
3.09203e-30
2.274e-30
1.63356e-30
1.73133e-30
1.55287e-30
2.39016e-30
)
;
    }
    fixedWalls
    {
        type            calculated;
        value           nonuniform List<scalar> 
60
(
1.62305e-31
2.9589e-30
1.89299e-30
1.41273e-30
3.12409e-30
2.70254e-30
4.16399e-30
6.16948e-30
3.66028e-30
3.03611e-30
3.58547e-30
4.31707e-30
6.40888e-30
5.45344e-30
6.88591e-30
6.5603e-30
6.54777e-30
8.10675e-30
6.52126e-30
2.31991e-30
5.05095e-30
5.46948e-30
6.32989e-30
7.36747e-30
7.92903e-30
6.87653e-30
6.85326e-30
5.56282e-30
4.83745e-30
4.89223e-30
5.01613e-30
3.88807e-30
2.92012e-30
2.73196e-30
2.72218e-30
2.34231e-30
2.40997e-30
2.18931e-30
2.47515e-30
2.39016e-30
1.62305e-31
6.29345e-30
1.63316e-30
2.69062e-30
3.40779e-30
4.34676e-30
5.14482e-30
5.43065e-30
5.49384e-30
5.01154e-30
4.63421e-30
3.48368e-30
3.18103e-30
3.84214e-30
4.71929e-30
5.14309e-30
5.59742e-30
6.13568e-30
4.64908e-30
5.05095e-30
)
;
    }
    frontAndBack
    {
        type            empty;
    }
}


// ************************************************************************* //
