/*--------------------------------*- C++ -*----------------------------------*\
| =========                 |                                                 |
| \\      /  F ield         | OpenFOAM: The Open Source CFD Toolbox           |
|  \\    /   O peration     | Version:  2506                                  |
|   \\  /    A nd           | Website:  www.openfoam.com                      |
|    \\/     M anipulation  |                                                 |
\*---------------------------------------------------------------------------*/
FoamFile
{
    version     2.0;
    format      ascii;
    arch        "LSB;label=32;scalar=64";
    class       volVectorField;
    location    "8";
    object      momentum1:momentum;
}
// * * * * * * * * * * * * * * * * * * * * * * * * * * * * * * * * * * * * * //

dimensions      [1 1 -1 0 0 0 0];

internalField   nonuniform List<vector> 
400
(
(-2.5e-07 1.44673e-20 0)
(-2.5e-07 -2.80807e-21 0)
(-2.5e-07 6.71565e-22 0)
(-2.5e-07 -1.19269e-22 0)
(-2.5e-07 3.3098e-23 0)
(-2.5e-07 1.57195e-23 0)
(-2.5e-07 2.68982e-23 0)
(-2.5e-07 2.42293e-23 0)
(-2.5e-07 2.61585e-23 0)
(-2.5e-07 1.93287e-23 0)
(-2.5e-07 4.93033e-24 0)
(-2.5e-07 3.39771e-24 0)
(-2.5e-07 1.25939e-23 0)
(-2.5e-07 2.47435e-23 0)
(-2.5e-07 5.37267e-24 0)
(-2.5e-07 -1.02103e-23 0)
(-2.5e-07 3.69462e-24 0)
(-2.5e-07 1.84723e-23 0)
(-2.5e-07 -4.12815e-24 0)
(-2.5e-07 -1.00771e-23 0)
(-2.5e-07 3.3501e-22 0)
(-2.5e-07 -1.79403e-23 0)
(-2.5e-07 1.95596e-23 0)
(-2.5e-07 2.67969e-23 0)
(-2.5e-07 2.63845e-23 0)
(-2.5e-07 3.66596e-23 0)
(-2.5e-07 3.23967e-23 0)
(-2.5e-07 2.28173e-23 0)
(-2.5e-07 1.02657e-23 0)
(-2.5e-07 -3.30373e-24 0)
(-2.5e-07 -5.03272e-24 0)
(-2.5e-07 -3.55423e-24 0)
(-2.5e-07 3.70252e-24 0)
(-2.5e-07 3.96545e-23 0)
(-2.5e-07 2.65619e-23 0)
(-2.5e-07 2.18578e-23 0)
(-2.5e-07 2.09389e-23 0)
(-2.5e-07 -4.77516e-24 0)
(-2.5e-07 -4.00806e-23 0)
(-2.5e-07 -2.18885e-23 0)
(-2.5e-07 -1.016e-20 0)
(-2.5e-07 1.94271e-21 0)
(-2.5e-07 -4.63878e-22 0)
(-2.5e-07 1.14154e-22 0)
(-2.5e-07 1.81161e-23 0)
(-2.5e-07 1.19998e-23 0)
(-2.5e-07 8.43398e-24 0)
(-2.5e-07 1.45843e-23 0)
(-2.5e-07 -5.06514e-24 0)
(-2.5e-07 -1.0411e-23 0)
(-2.5e-07 -6.66282e-24 0)
(-2.5e-07 -3.12718e-23 0)
(-2.5e-07 -2.791e-23 0)
(-2.5e-07 8.9695e-24 0)
(-2.5e-07 5.02176e-23 0)
(-2.5e-07 4.09601e-23 0)
(-2.5e-07 1.48206e-23 0)
(-2.5e-07 -3.90729e-23 0)
(-2.5e-07 -5.47574e-23 0)
(-2.5e-07 -2.48717e-23 0)
(-2.5e-07 6.50356e-21 0)
(-2.5e-07 -1.36194e-21 0)
(-2.5e-07 3.23245e-22 0)
(-2.5e-07 -5.10289e-23 0)
(-2.5e-07 5.02394e-23 0)
(-2.5e-07 4.15848e-23 0)
(-2.5e-07 7.42986e-23 0)
(-2.5e-07 6.58098e-23 0)
(-2.5e-07 3.23425e-23 0)
(-2.5e-07 1.61634e-23 0)
(-2.5e-07 1.64592e-23 0)
(-2.5e-07 8.53932e-24 0)
(-2.5e-07 -1.07153e-24 0)
(-2.5e-07 -2.84609e-23 0)
(-2.5e-07 1.43254e-24 0)
(-2.5e-07 9.53443e-24 0)
(-2.5e-07 -1.35168e-24 0)
(-2.5e-07 -2.52787e-23 0)
(-2.5e-07 -2.8701e-23 0)
(-2.5e-07 -1.82951e-23 0)
(-2.5e-07 -2.893e-21 0)
(-2.5e-07 6.19004e-22 0)
(-2.5e-07 -1.68111e-22 0)
(-2.5e-07 2.25981e-25 0)
(-2.5e-07 -1.70448e-23 0)
(-2.5e-07 3.47593e-23 0)
(-2.5e-07 4.80001e-23 0)
(-2.5e-07 4.74173e-23 0)
(-2.5e-07 4.73652e-23 0)
(-2.5e-07 2.84369e-23 0)
(-2.5e-07 2.62176e-23 0)
(-2.5e-07 2.95181e-23 0)
(-2.5e-07 3.3896e-24 0)
(-2.5e-07 -4.05776e-23 0)
(-2.5e-07 -4.49766e-23 0)
(-2.5e-07 3.18109e-24 0)
(-2.5e-07 2.23166e-23 0)
(-2.5e-07 1.87842e-23 0)
(-2.5e-07 9.78706e-24 0)
(-2.5e-07 5.51446e-24 0)
(-2.5e-07 -3.02695e-21 0)
(-2.5e-07 5.21701e-22 0)
(-2.5e-07 -2.17489e-22 0)
(-2.5e-07 -2.24193e-23 0)
(-2.5e-07 -3.20394e-23 0)
(-2.5e-07 2.4813e-23 0)
(-2.5e-07 3.06651e-23 0)
(-2.5e-07 3.60956e-23 0)
(-2.5e-07 4.94303e-23 0)
(-2.5e-07 5.61021e-23 0)
(-2.5e-07 5.09327e-23 0)
(-2.5e-07 2.17052e-23 0)
(-2.5e-07 -9.64525e-24 0)
(-2.5e-07 -7.90943e-24 0)
(-2.5e-07 -4.19434e-24 0)
(-2.5e-07 -2.42148e-24 0)
(-2.5e-07 5.27338e-24 0)
(-2.5e-07 3.0607e-23 0)
(-2.5e-07 2.4609e-23 0)
(-2.5e-07 1.07946e-23 0)
(-2.5e-07 6.04877e-21 0)
(-2.5e-07 -1.20366e-21 0)
(-2.5e-07 2.29655e-22 0)
(-2.5e-07 -7.47362e-23 0)
(-2.5e-07 2.0643e-23 0)
(-2.5e-07 4.63556e-23 0)
(-2.5e-07 5.46503e-23 0)
(-2.5e-07 3.30545e-23 0)
(-2.5e-07 1.61855e-23 0)
(-2.5e-07 1.81104e-23 0)
(-2.5e-07 2.14737e-23 0)
(-2.5e-07 1.75402e-23 0)
(-2.5e-07 2.31187e-23 0)
(-2.5e-07 3.39386e-23 0)
(-2.5e-07 3.80238e-23 0)
(-2.5e-07 2.03289e-23 0)
(-2.5e-07 -8.65738e-24 0)
(-2.5e-07 4.68539e-24 0)
(-2.5e-07 2.1865e-23 0)
(-2.5e-07 1.89164e-23 0)
(-2.5e-07 -1.53161e-21 0)
(-2.5e-07 2.2545e-22 0)
(-2.5e-07 -7.0879e-23 0)
(-2.5e-07 3.82275e-24 0)
(-2.5e-07 6.72484e-24 0)
(-2.5e-07 -1.28945e-23 0)
(-2.5e-07 -1.8999e-23 0)
(-2.5e-07 -5.60247e-24 0)
(-2.5e-07 5.59934e-24 0)
(-2.5e-07 -8.34535e-24 0)
(-2.5e-07 -3.0883e-23 0)
(-2.5e-07 -3.08567e-23 0)
(-2.5e-07 -7.40057e-24 0)
(-2.5e-07 -3.97413e-24 0)
(-2.5e-07 -1.13338e-24 0)
(-2.5e-07 1.08205e-23 0)
(-2.5e-07 1.44051e-23 0)
(-2.5e-07 2.2709e-23 0)
(-2.5e-07 3.51212e-23 0)
(-2.5e-07 3.44354e-23 0)
(-2.5e-07 -6.1422e-21 0)
(-2.5e-07 1.22877e-21 0)
(-2.5e-07 -3.22395e-22 0)
(-2.5e-07 7.64556e-23 0)
(-2.5e-07 -1.48541e-24 0)
(-2.5e-07 -1.93871e-23 0)
(-2.5e-07 -4.50879e-23 0)
(-2.5e-07 -2.67094e-23 0)
(-2.5e-07 4.79981e-25 0)
(-2.5e-07 -1.22891e-23 0)
(-2.5e-07 -2.89172e-23 0)
(-2.5e-07 -4.81181e-24 0)
(-2.5e-07 1.34681e-23 0)
(-2.5e-07 3.63543e-23 0)
(-2.5e-07 3.11513e-23 0)
(-2.5e-07 -6.28068e-24 0)
(-2.5e-07 -4.19279e-24 0)
(-2.5e-07 9.88398e-25 0)
(-2.5e-07 1.0721e-23 0)
(-2.5e-07 1.41699e-23 0)
(-2.5e-07 6.06108e-21 0)
(-2.5e-07 -1.27885e-21 0)
(-2.5e-07 2.9141e-22 0)
(-2.5e-07 -5.68021e-23 0)
(-2.5e-07 2.7051e-23 0)
(-2.5e-07 -6.06068e-24 0)
(-2.5e-07 -8.75813e-24 0)
(-2.5e-07 9.23705e-24 0)
(-2.5e-07 2.67454e-24 0)
(-2.5e-07 -5.18077e-24 0)
(-2.5e-07 -1.83646e-23 0)
(-2.5e-07 1.22564e-24 0)
(-2.5e-07 3.97473e-23 0)
(-2.5e-07 6.73638e-23 0)
(-2.5e-07 6.27649e-23 0)
(-2.5e-07 2.62337e-23 0)
(-2.5e-07 1.21738e-23 0)
(-2.5e-07 7.57987e-24 0)
(-2.5e-07 1.80274e-24 0)
(-2.5e-07 -6.4363e-24 0)
(-2.5e-07 -2.02762e-21 0)
(-2.5e-07 3.58609e-22 0)
(-2.5e-07 -5.12317e-23 0)
(-2.5e-07 1.99462e-23 0)
(-2.5e-07 1.20607e-23 0)
(-2.5e-07 -4.70714e-26 0)
(-2.5e-07 2.05236e-23 0)
(-2.5e-07 3.09733e-23 0)
(-2.5e-07 5.60363e-24 0)
(-2.5e-07 9.2911e-24 0)
(-2.5e-07 8.45559e-24 0)
(-2.5e-07 -2.13319e-24 0)
(-2.5e-07 1.38345e-23 0)
(-2.5e-07 -6.8757e-24 0)
(-2.5e-07 -1.78214e-23 0)
(-2.5e-07 -9.91733e-24 0)
(-2.5e-07 5.66546e-24 0)
(-2.5e-07 9.27324e-24 0)
(-2.5e-07 1.08144e-23 0)
(-2.5e-07 1.36405e-23 0)
(-2.5e-07 4.08823e-23 0)
(-2.5e-07 2.30728e-22 0)
(-2.5e-07 2.62938e-23 0)
(-2.5e-07 6.01379e-23 0)
(-2.5e-07 -1.61083e-25 0)
(-2.5e-07 1.13107e-23 0)
(-2.5e-07 1.83584e-23 0)
(-2.5e-07 -3.26181e-24 0)
(-2.5e-07 -5.79445e-24 0)
(-2.5e-07 1.54661e-23 0)
(-2.5e-07 2.03618e-23 0)
(-2.5e-07 -4.27166e-24 0)
(-2.5e-07 -6.69541e-24 0)
(-2.5e-07 -4.0894e-24 0)
(-2.5e-07 -9.20952e-25 0)
(-2.5e-07 -1.35558e-23 0)
(-2.5e-07 1.13828e-24 0)
(-2.5e-07 4.06319e-24 0)
(-2.5e-07 1.44026e-23 0)
(-2.5e-07 3.45617e-23 0)
(-2.5e-07 -1.623e-22 0)
(-2.5e-07 -4.19092e-23 0)
(-2.5e-07 7.102e-23 0)
(-2.5e-07 6.24279e-24 0)
(-2.5e-07 -3.07082e-23 0)
(-2.5e-07 -6.2267e-24 0)
(-2.5e-07 -6.7122e-25 0)
(-2.5e-07 -1.07139e-23 0)
(-2.5e-07 2.14465e-24 0)
(-2.5e-07 6.22545e-24 0)
(-2.5e-07 7.21891e-24 0)
(-2.5e-07 -3.84539e-24 0)
(-2.5e-07 -2.56906e-23 0)
(-2.5e-07 -2.39344e-23 0)
(-2.5e-07 -2.98e-23 0)
(-2.5e-07 -1.7022e-23 0)
(-2.5e-07 -1.52206e-24 0)
(-2.5e-07 1.22827e-23 0)
(-2.5e-07 -1.0048e-24 0)
(-2.5e-07 1.24243e-23 0)
(-2.5e-07 -2.7078e-21 0)
(-2.5e-07 5.09806e-22 0)
(-2.5e-07 -8.39602e-23 0)
(-2.5e-07 3.12051e-23 0)
(-2.5e-07 1.51448e-23 0)
(-2.5e-07 3.07265e-23 0)
(-2.5e-07 2.95821e-23 0)
(-2.5e-07 2.30153e-23 0)
(-2.5e-07 -1.28608e-23 0)
(-2.5e-07 -5.29418e-23 0)
(-2.5e-07 -3.49117e-23 0)
(-2.5e-07 6.83304e-25 0)
(-2.5e-07 -1.09968e-23 0)
(-2.5e-07 -1.40629e-23 0)
(-2.5e-07 -3.67432e-23 0)
(-2.5e-07 -2.16662e-23 0)
(-2.5e-07 -3.095e-23 0)
(-2.5e-07 3.41215e-24 0)
(-2.5e-07 1.68211e-24 0)
(-2.5e-07 -3.17887e-24 0)
(-2.5e-07 7.37023e-21 0)
(-2.5e-07 -1.5083e-21 0)
(-2.5e-07 3.27555e-22 0)
(-2.5e-07 -6.35254e-23 0)
(-2.5e-07 1.36391e-23 0)
(-2.5e-07 -2.3774e-23 0)
(-2.5e-07 -3.83045e-23 0)
(-2.5e-07 -3.0857e-23 0)
(-2.5e-07 -2.93106e-23 0)
(-2.5e-07 -2.12632e-23 0)
(-2.5e-07 1.09868e-23 0)
(-2.5e-07 1.84335e-23 0)
(-2.5e-07 1.77604e-23 0)
(-2.5e-07 1.1167e-23 0)
(-2.5e-07 -2.10075e-23 0)
(-2.5e-07 -3.70762e-23 0)
(-2.5e-07 -1.96169e-23 0)
(-2.5e-07 1.57838e-23 0)
(-2.5e-07 2.20904e-23 0)
(-2.5e-07 7.63632e-24 0)
(-2.5e-07 -9.01033e-21 0)
(-2.5e-07 1.88337e-21 0)
(-2.5e-07 -4.33566e-22 0)
(-2.5e-07 8.95276e-23 0)
(-2.5e-07 -1.4424e-23 0)
(-2.5e-07 -1.79305e-23 0)
(-2.5e-07 -5.03967e-23 0)
(-2.5e-07 -4.48378e-23 0)
(-2.5e-07 -2.25375e-23 0)
(-2.5e-07 -5.40343e-24 0)
(-2.5e-07 2.50237e-24 0)
(-2.5e-07 -1.31128e-23 0)
(-2.5e-07 -8.07396e-24 0)
(-2.5e-07 -2.50238e-23 0)
(-2.5e-07 -4.39083e-23 0)
(-2.5e-07 -3.18655e-23 0)
(-2.5e-07 8.64171e-25 0)
(-2.5e-07 -7.71376e-24 0)
(-2.5e-07 -9.78711e-24 0)
(-2.5e-07 4.41482e-24 0)
(-2.5e-07 3.79024e-21 0)
(-2.5e-07 -7.8772e-22 0)
(-2.5e-07 1.73685e-22 0)
(-2.5e-07 -7.11284e-23 0)
(-2.5e-07 -1.38169e-23 0)
(-2.5e-07 -1.92902e-23 0)
(-2.5e-07 5.34841e-24 0)
(-2.5e-07 7.03965e-25 0)
(-2.5e-07 -1.34826e-23 0)
(-2.5e-07 -8.42403e-24 0)
(-2.5e-07 -2.83024e-23 0)
(-2.5e-07 -3.69069e-23 0)
(-2.5e-07 -2.77476e-23 0)
(-2.5e-07 -2.88274e-23 0)
(-2.5e-07 -2.33628e-23 0)
(-2.5e-07 -1.30636e-23 0)
(-2.5e-07 -4.66564e-25 0)
(-2.5e-07 -1.62705e-23 0)
(-2.5e-07 -1.91271e-23 0)
(-2.5e-07 1.81708e-24 0)
(-2.5e-07 7.33406e-21 0)
(-2.5e-07 -1.49364e-21 0)
(-2.5e-07 3.07252e-22 0)
(-2.5e-07 -9.35724e-23 0)
(-2.5e-07 -1.29442e-23 0)
(-2.5e-07 -2.88303e-23 0)
(-2.5e-07 -6.79539e-24 0)
(-2.5e-07 -2.84595e-23 0)
(-2.5e-07 -3.51241e-23 0)
(-2.5e-07 -1.95923e-23 0)
(-2.5e-07 -3.46649e-23 0)
(-2.5e-07 -2.55148e-23 0)
(-2.5e-07 -2.06252e-24 0)
(-2.5e-07 4.91357e-24 0)
(-2.5e-07 5.96379e-24 0)
(-2.5e-07 2.99794e-24 0)
(-2.5e-07 -1.09729e-23 0)
(-2.5e-07 -2.80362e-23 0)
(-2.5e-07 -1.50625e-23 0)
(-2.5e-07 -1.08248e-24 0)
(-2.5e-07 -7.94844e-21 0)
(-2.5e-07 1.58556e-21 0)
(-2.5e-07 -3.95946e-22 0)
(-2.5e-07 6.3892e-23 0)
(-2.5e-07 -1.54909e-23 0)
(-2.5e-07 2.15753e-24 0)
(-2.5e-07 -7.98261e-24 0)
(-2.5e-07 -2.71876e-23 0)
(-2.5e-07 -2.57651e-23 0)
(-2.5e-07 -1.5756e-23 0)
(-2.5e-07 -2.86356e-23 0)
(-2.5e-07 -3.47454e-23 0)
(-2.5e-07 -2.04797e-23 0)
(-2.5e-07 -1.10328e-23 0)
(-2.5e-07 8.42226e-24 0)
(-2.5e-07 1.77395e-23 0)
(-2.5e-07 -2.28929e-23 0)
(-2.5e-07 -5.3564e-23 0)
(-2.5e-07 -2.62662e-23 0)
(-2.5e-07 -2.26923e-24 0)
(-2.5e-07 -1.23426e-21 0)
(-2.5e-07 7.2326e-23 0)
(-2.5e-07 -6.64349e-23 0)
(-2.5e-07 -3.90995e-23 0)
(-2.5e-07 -4.49188e-23 0)
(-2.5e-07 -3.66635e-23 0)
(-2.5e-07 -2.78148e-23 0)
(-2.5e-07 -1.85443e-23 0)
(-2.5e-07 1.09181e-24 0)
(-2.5e-07 2.05261e-23 0)
(-2.5e-07 2.03857e-23 0)
(-2.5e-07 7.02449e-25 0)
(-2.5e-07 -1.49621e-23 0)
(-2.5e-07 -2.40554e-23 0)
(-2.5e-07 -1.30693e-23 0)
(-2.5e-07 -1.28905e-23 0)
(-2.5e-07 -2.20052e-23 0)
(-2.5e-07 -3.08805e-23 0)
(-2.5e-07 -1.38182e-23 0)
(-2.5e-07 3.53187e-24 0)
)
;

boundaryField
{
    movingWall
    {
        type            calculated;
        value           uniform (0 0 0);
    }
    fixedWalls
    {
        type            calculated;
        value           uniform (0 0 0);
    }
    frontAndBack
    {
        type            empty;
    }
}


// ************************************************************************* //
