/*--------------------------------*- C++ -*----------------------------------*\
| =========                 |                                                 |
| \\      /  F ield         | OpenFOAM: The Open Source CFD Toolbox           |
|  \\    /   O peration     | Version:  2506                                  |
|   \\  /    A nd           | Website:  www.openfoam.com                      |
|    \\/     M anipulation  |                                                 |
\*---------------------------------------------------------------------------*/
FoamFile
{
    version     2.0;
    format      ascii;
    arch        "LSB;label=32;scalar=64";
    class       volScalarField;
    location    "8";
    object      norm_k_field;
}
// * * * * * * * * * * * * * * * * * * * * * * * * * * * * * * * * * * * * * //

dimensions      [0 0 0 0 0 0 0];

internalField   nonuniform List<scalar> 
400
(
2.92926e+09
1.1712e+09
1.80398e+09
1.55639e+09
1.4439e+09
1.33209e+09
1.25737e+09
1.2339e+09
1.22892e+09
1.26885e+09
1.30343e+09
1.4336e+09
1.4763e+09
1.38823e+09
1.29535e+09
1.25752e+09
1.22088e+09
1.18186e+09
1.30201e+09
1.26542e+09
1.54269e+09
4.19635e+09
1.70296e+09
1.60802e+09
1.35307e+09
1.35914e+09
1.36883e+09
1.2889e+09
1.29284e+09
1.36613e+09
1.3383e+09
1.40894e+09
1.44595e+09
1.44522e+09
1.34484e+09
1.25735e+09
1.24565e+09
1.2553e+09
1.28987e+09
1.25666e+09
1.82327e+09
1.32858e+09
1.71867e+09
1.56205e+09
1.48147e+09
1.46628e+09
1.44221e+09
1.36463e+09
1.31714e+09
1.27032e+09
1.30367e+09
1.42249e+09
1.38632e+09
1.47981e+09
1.4186e+09
1.39195e+09
1.36396e+09
1.2706e+09
1.23928e+09
1.23183e+09
2.04303e+09
1.49459e+09
1.64303e+09
1.59938e+09
1.60632e+09
1.47603e+09
1.42842e+09
1.41233e+09
1.41547e+09
1.37752e+09
1.37298e+09
1.35254e+09
1.33939e+09
1.40908e+09
1.47274e+09
1.42018e+09
1.45715e+09
1.36587e+09
1.2633e+09
1.20358e+09
1.65718e+09
2.04364e+09
1.62163e+09
1.59808e+09
1.6579e+09
1.56738e+09
1.53085e+09
1.45025e+09
1.40399e+09
1.37331e+09
1.37998e+09
1.44254e+09
1.38223e+09
1.3849e+09
1.41787e+09
1.46492e+09
1.54385e+09
1.39315e+09
1.28583e+09
1.20165e+09
1.76571e+09
1.44641e+09
1.62243e+09
1.5512e+09
1.59994e+09
1.61159e+09
1.56035e+09
1.46414e+09
1.43486e+09
1.39357e+09
1.44779e+09
1.42313e+09
1.38144e+09
1.37233e+09
1.37818e+09
1.46922e+09
1.51898e+09
1.41568e+09
1.35947e+09
1.28853e+09
1.55308e+09
1.494e+09
1.55931e+09
1.57953e+09
1.53269e+09
1.60095e+09
1.64881e+09
1.5205e+09
1.52723e+09
1.47018e+09
1.49948e+09
1.47361e+09
1.38801e+09
1.39905e+09
1.39023e+09
1.43722e+09
1.45677e+09
1.48619e+09
1.41872e+09
1.30499e+09
1.36523e+09
2.7422e+09
1.57376e+09
1.60726e+09
1.61732e+09
1.70555e+09
1.69158e+09
1.57081e+09
1.54885e+09
1.51551e+09
1.50441e+09
1.5412e+09
1.45048e+09
1.39568e+09
1.38408e+09
1.47931e+09
1.43455e+09
1.48224e+09
1.45937e+09
1.41586e+09
1.64016e+09
1.24456e+09
1.59348e+09
1.55785e+09
1.64283e+09
1.67892e+09
1.68027e+09
1.62176e+09
1.60792e+09
1.61285e+09
1.6043e+09
1.58253e+09
1.45661e+09
1.40167e+09
1.3883e+09
1.43216e+09
1.45892e+09
1.49338e+09
1.44746e+09
1.49311e+09
1.74782e+09
1.67539e+09
1.56012e+09
1.62663e+09
1.70461e+09
1.7843e+09
1.66812e+09
1.55044e+09
1.71975e+09
1.68927e+09
1.59978e+09
1.64484e+09
1.47323e+09
1.45874e+09
1.54702e+09
1.4481e+09
1.47853e+09
1.45681e+09
1.49926e+09
1.49207e+09
1.66073e+09
1.80167e+09
1.57691e+09
1.69589e+09
1.75915e+09
1.73803e+09
1.64977e+09
1.74408e+09
1.72781e+09
1.70681e+09
1.64591e+09
1.59139e+09
1.54323e+09
1.52534e+09
1.54337e+09
1.51768e+09
1.57224e+09
1.60216e+09
1.60657e+09
1.48298e+09
1.56489e+09
1.39682e+09
1.65598e+09
1.71583e+09
1.81703e+09
1.67845e+09
1.69618e+09
1.72598e+09
1.7158e+09
1.73951e+09
1.69354e+09
1.54596e+09
1.62063e+09
1.61308e+09
1.66663e+09
1.61768e+09
1.63976e+09
1.56253e+09
1.62299e+09
1.62033e+09
1.36693e+09
2.90339e+09
1.66503e+09
1.85744e+09
1.66277e+09
1.62525e+09
1.7374e+09
1.80817e+09
1.67029e+09
1.81773e+09
1.83017e+09
1.59696e+09
1.57103e+09
1.67351e+09
1.75056e+09
1.62328e+09
1.73117e+09
1.68209e+09
1.73968e+09
1.78172e+09
1.45092e+09
1.16668e+09
1.73968e+09
1.779e+09
1.69055e+09
1.71547e+09
1.7839e+09
1.76016e+09
1.77682e+09
1.78418e+09
1.76799e+09
1.64691e+09
1.57339e+09
1.65791e+09
1.73558e+09
1.74928e+09
1.80438e+09
1.88196e+09
1.86092e+09
1.82375e+09
1.33882e+09
1.72293e+09
1.65594e+09
1.65358e+09
1.7e+09
1.8304e+09
1.86413e+09
1.82928e+09
1.80839e+09
1.71027e+09
1.68268e+09
1.64006e+09
1.57084e+09
1.74483e+09
1.81705e+09
1.8837e+09
1.8147e+09
2.15191e+09
2.18359e+09
1.83062e+09
1.36629e+09
1.76811e+09
1.59573e+09
1.65667e+09
1.63908e+09
1.81937e+09
1.85147e+09
1.79974e+09
1.74819e+09
1.63436e+09
1.72658e+09
1.63878e+09
1.65349e+09
1.8537e+09
1.90388e+09
1.80009e+09
1.84114e+09
2.16503e+09
2.29821e+09
1.92246e+09
1.37118e+09
1.09714e+09
1.65564e+09
1.57665e+09
1.78166e+09
1.83549e+09
1.80625e+09
1.80318e+09
1.74773e+09
1.68407e+09
1.73521e+09
1.71631e+09
1.74674e+09
1.78165e+09
1.74234e+09
1.88215e+09
2.10755e+09
2.34156e+09
2.32067e+09
1.91144e+09
1.2718e+09
2.00993e+09
1.50012e+09
1.64485e+09
1.70601e+09
1.66709e+09
1.7514e+09
1.73502e+09
1.7583e+09
1.77001e+09
1.78947e+09
1.7572e+09
1.81334e+09
1.82487e+09
1.71127e+09
1.71315e+09
2.11619e+09
2.5466e+09
2.3969e+09
1.97282e+09
1.37976e+09
1.59455e+09
1.44178e+09
1.57882e+09
1.67784e+09
1.66788e+09
1.79632e+09
1.74793e+09
1.66977e+09
1.74249e+09
1.77586e+09
1.73029e+09
1.83912e+09
1.88335e+09
1.73586e+09
1.97081e+09
2.14722e+09
2.27934e+09
2.28084e+09
1.90505e+09
1.94519e+09
1.15371e+09
1.44978e+09
1.47891e+09
1.53723e+09
1.60128e+09
1.7589e+09
1.72252e+09
1.66219e+09
1.75268e+09
1.8629e+09
1.87662e+09
1.8517e+09
1.83776e+09
1.77926e+09
1.95693e+09
2.1544e+09
2.11933e+09
2.18506e+09
1.9277e+09
)
;

boundaryField
{
    movingWall
    {
        type            calculated;
        value           nonuniform List<scalar> 
20
(
1.94519e+09
1.15371e+09
1.44978e+09
1.47891e+09
1.53723e+09
1.60128e+09
1.7589e+09
1.72252e+09
1.66219e+09
1.75268e+09
1.8629e+09
1.87662e+09
1.8517e+09
1.83776e+09
1.77926e+09
1.95693e+09
2.1544e+09
2.11933e+09
2.18506e+09
1.9277e+09
)
;
    }
    fixedWalls
    {
        type            calculated;
        value           nonuniform List<scalar> 
60
(
2.92926e+09
1.54269e+09
1.82327e+09
2.04303e+09
1.65718e+09
1.76571e+09
1.55308e+09
1.36523e+09
1.64016e+09
1.74782e+09
1.66073e+09
1.56489e+09
1.36693e+09
1.45092e+09
1.33882e+09
1.36629e+09
1.37118e+09
1.2718e+09
1.37976e+09
1.94519e+09
1.26542e+09
1.25666e+09
1.23183e+09
1.20358e+09
1.20165e+09
1.28853e+09
1.30499e+09
1.41586e+09
1.49311e+09
1.49207e+09
1.48298e+09
1.62033e+09
1.78172e+09
1.82375e+09
1.83062e+09
1.92246e+09
1.91144e+09
1.97282e+09
1.90505e+09
1.9277e+09
2.92926e+09
1.1712e+09
1.80398e+09
1.55639e+09
1.4439e+09
1.33209e+09
1.25737e+09
1.2339e+09
1.22892e+09
1.26885e+09
1.30343e+09
1.4336e+09
1.4763e+09
1.38823e+09
1.29535e+09
1.25752e+09
1.22088e+09
1.18186e+09
1.30201e+09
1.26542e+09
)
;
    }
    frontAndBack
    {
        type            empty;
    }
}


// ************************************************************************* //
