/*--------------------------------*- C++ -*----------------------------------*\
| =========                 |                                                 |
| \\      /  F ield         | OpenFOAM: The Open Source CFD Toolbox           |
|  \\    /   O peration     | Version:  2506                                  |
|   \\  /    A nd           | Website:  www.openfoam.com                      |
|    \\/     M anipulation  |                                                 |
\*---------------------------------------------------------------------------*/
FoamFile
{
    version     2.0;
    format      ascii;
    arch        "LSB;label=32;scalar=64";
    class       volVectorField;
    location    "8";
    object      norm_U_L1;
}
// * * * * * * * * * * * * * * * * * * * * * * * * * * * * * * * * * * * * * //

dimensions      [0 0 0 0 0 0 0];

internalField   nonuniform List<vector> 
400
(
(-0.0025 1.44673e-16 0)
(-0.0025 -2.80807e-17 0)
(-0.0025 6.71565e-18 0)
(-0.0025 -1.19269e-18 0)
(-0.0025 3.3098e-19 0)
(-0.0025 1.57195e-19 0)
(-0.0025 2.68982e-19 0)
(-0.0025 2.42293e-19 0)
(-0.0025 2.61585e-19 0)
(-0.0025 1.93287e-19 0)
(-0.0025 4.93033e-20 0)
(-0.0025 3.39771e-20 0)
(-0.0025 1.25939e-19 0)
(-0.0025 2.47435e-19 0)
(-0.0025 5.37267e-20 0)
(-0.0025 -1.02103e-19 0)
(-0.0025 3.69462e-20 0)
(-0.0025 1.84723e-19 0)
(-0.0025 -4.12815e-20 0)
(-0.0025 -1.00771e-19 0)
(-0.0025 3.3501e-18 0)
(-0.0025 -1.79403e-19 0)
(-0.0025 1.95596e-19 0)
(-0.0025 2.67969e-19 0)
(-0.0025 2.63845e-19 0)
(-0.0025 3.66596e-19 0)
(-0.0025 3.23967e-19 0)
(-0.0025 2.28173e-19 0)
(-0.0025 1.02657e-19 0)
(-0.0025 -3.30373e-20 0)
(-0.0025 -5.03272e-20 0)
(-0.0025 -3.55423e-20 0)
(-0.0025 3.70252e-20 0)
(-0.0025 3.96545e-19 0)
(-0.0025 2.65619e-19 0)
(-0.0025 2.18578e-19 0)
(-0.0025 2.09389e-19 0)
(-0.0025 -4.77516e-20 0)
(-0.0025 -4.00806e-19 0)
(-0.0025 -2.18885e-19 0)
(-0.0025 -1.016e-16 0)
(-0.0025 1.94271e-17 0)
(-0.0025 -4.63878e-18 0)
(-0.0025 1.14154e-18 0)
(-0.0025 1.81161e-19 0)
(-0.0025 1.19998e-19 0)
(-0.0025 8.43398e-20 0)
(-0.0025 1.45843e-19 0)
(-0.0025 -5.06514e-20 0)
(-0.0025 -1.0411e-19 0)
(-0.0025 -6.66282e-20 0)
(-0.0025 -3.12718e-19 0)
(-0.0025 -2.791e-19 0)
(-0.0025 8.9695e-20 0)
(-0.0025 5.02176e-19 0)
(-0.0025 4.09601e-19 0)
(-0.0025 1.48206e-19 0)
(-0.0025 -3.90729e-19 0)
(-0.0025 -5.47574e-19 0)
(-0.0025 -2.48717e-19 0)
(-0.0025 6.50356e-17 0)
(-0.0025 -1.36194e-17 0)
(-0.0025 3.23245e-18 0)
(-0.0025 -5.10289e-19 0)
(-0.0025 5.02394e-19 0)
(-0.0025 4.15848e-19 0)
(-0.0025 7.42986e-19 0)
(-0.0025 6.58098e-19 0)
(-0.0025 3.23425e-19 0)
(-0.0025 1.61634e-19 0)
(-0.0025 1.64592e-19 0)
(-0.0025 8.53932e-20 0)
(-0.0025 -1.07153e-20 0)
(-0.0025 -2.84609e-19 0)
(-0.0025 1.43254e-20 0)
(-0.0025 9.53443e-20 0)
(-0.0025 -1.35168e-20 0)
(-0.0025 -2.52787e-19 0)
(-0.0025 -2.8701e-19 0)
(-0.0025 -1.82951e-19 0)
(-0.0025 -2.893e-17 0)
(-0.0025 6.19004e-18 0)
(-0.0025 -1.68111e-18 0)
(-0.0025 2.25981e-21 0)
(-0.0025 -1.70448e-19 0)
(-0.0025 3.47593e-19 0)
(-0.0025 4.80001e-19 0)
(-0.0025 4.74173e-19 0)
(-0.0025 4.73652e-19 0)
(-0.0025 2.84369e-19 0)
(-0.0025 2.62176e-19 0)
(-0.0025 2.95181e-19 0)
(-0.0025 3.3896e-20 0)
(-0.0025 -4.05776e-19 0)
(-0.0025 -4.49766e-19 0)
(-0.0025 3.18109e-20 0)
(-0.0025 2.23166e-19 0)
(-0.0025 1.87842e-19 0)
(-0.0025 9.78706e-20 0)
(-0.0025 5.51446e-20 0)
(-0.0025 -3.02695e-17 0)
(-0.0025 5.21701e-18 0)
(-0.0025 -2.17489e-18 0)
(-0.0025 -2.24193e-19 0)
(-0.0025 -3.20394e-19 0)
(-0.0025 2.4813e-19 0)
(-0.0025 3.06651e-19 0)
(-0.0025 3.60956e-19 0)
(-0.0025 4.94303e-19 0)
(-0.0025 5.61021e-19 0)
(-0.0025 5.09327e-19 0)
(-0.0025 2.17052e-19 0)
(-0.0025 -9.64525e-20 0)
(-0.0025 -7.90943e-20 0)
(-0.0025 -4.19434e-20 0)
(-0.0025 -2.42148e-20 0)
(-0.0025 5.27338e-20 0)
(-0.0025 3.0607e-19 0)
(-0.0025 2.4609e-19 0)
(-0.0025 1.07946e-19 0)
(-0.0025 6.04877e-17 0)
(-0.0025 -1.20366e-17 0)
(-0.0025 2.29655e-18 0)
(-0.0025 -7.47362e-19 0)
(-0.0025 2.0643e-19 0)
(-0.0025 4.63556e-19 0)
(-0.0025 5.46503e-19 0)
(-0.0025 3.30545e-19 0)
(-0.0025 1.61855e-19 0)
(-0.0025 1.81104e-19 0)
(-0.0025 2.14737e-19 0)
(-0.0025 1.75402e-19 0)
(-0.0025 2.31187e-19 0)
(-0.0025 3.39386e-19 0)
(-0.0025 3.80238e-19 0)
(-0.0025 2.03289e-19 0)
(-0.0025 -8.65738e-20 0)
(-0.0025 4.68539e-20 0)
(-0.0025 2.1865e-19 0)
(-0.0025 1.89164e-19 0)
(-0.0025 -1.53161e-17 0)
(-0.0025 2.2545e-18 0)
(-0.0025 -7.0879e-19 0)
(-0.0025 3.82275e-20 0)
(-0.0025 6.72484e-20 0)
(-0.0025 -1.28945e-19 0)
(-0.0025 -1.8999e-19 0)
(-0.0025 -5.60247e-20 0)
(-0.0025 5.59934e-20 0)
(-0.0025 -8.34535e-20 0)
(-0.0025 -3.0883e-19 0)
(-0.0025 -3.08567e-19 0)
(-0.0025 -7.40057e-20 0)
(-0.0025 -3.97413e-20 0)
(-0.0025 -1.13338e-20 0)
(-0.0025 1.08205e-19 0)
(-0.0025 1.44051e-19 0)
(-0.0025 2.2709e-19 0)
(-0.0025 3.51212e-19 0)
(-0.0025 3.44354e-19 0)
(-0.0025 -6.1422e-17 0)
(-0.0025 1.22877e-17 0)
(-0.0025 -3.22395e-18 0)
(-0.0025 7.64556e-19 0)
(-0.0025 -1.48541e-20 0)
(-0.0025 -1.93871e-19 0)
(-0.0025 -4.50879e-19 0)
(-0.0025 -2.67094e-19 0)
(-0.0025 4.79981e-21 0)
(-0.0025 -1.22891e-19 0)
(-0.0025 -2.89172e-19 0)
(-0.0025 -4.81181e-20 0)
(-0.0025 1.34681e-19 0)
(-0.0025 3.63543e-19 0)
(-0.0025 3.11513e-19 0)
(-0.0025 -6.28068e-20 0)
(-0.0025 -4.19279e-20 0)
(-0.0025 9.88398e-21 0)
(-0.0025 1.0721e-19 0)
(-0.0025 1.41699e-19 0)
(-0.0025 6.06108e-17 0)
(-0.0025 -1.27885e-17 0)
(-0.0025 2.9141e-18 0)
(-0.0025 -5.68021e-19 0)
(-0.0025 2.7051e-19 0)
(-0.0025 -6.06068e-20 0)
(-0.0025 -8.75813e-20 0)
(-0.0025 9.23705e-20 0)
(-0.0025 2.67454e-20 0)
(-0.0025 -5.18077e-20 0)
(-0.0025 -1.83646e-19 0)
(-0.0025 1.22564e-20 0)
(-0.0025 3.97473e-19 0)
(-0.0025 6.73638e-19 0)
(-0.0025 6.27649e-19 0)
(-0.0025 2.62337e-19 0)
(-0.0025 1.21738e-19 0)
(-0.0025 7.57987e-20 0)
(-0.0025 1.80274e-20 0)
(-0.0025 -6.4363e-20 0)
(-0.0025 -2.02762e-17 0)
(-0.0025 3.58609e-18 0)
(-0.0025 -5.12317e-19 0)
(-0.0025 1.99462e-19 0)
(-0.0025 1.20607e-19 0)
(-0.0025 -4.70714e-22 0)
(-0.0025 2.05236e-19 0)
(-0.0025 3.09733e-19 0)
(-0.0025 5.60363e-20 0)
(-0.0025 9.2911e-20 0)
(-0.0025 8.45559e-20 0)
(-0.0025 -2.13319e-20 0)
(-0.0025 1.38345e-19 0)
(-0.0025 -6.8757e-20 0)
(-0.0025 -1.78214e-19 0)
(-0.0025 -9.91733e-20 0)
(-0.0025 5.66546e-20 0)
(-0.0025 9.27324e-20 0)
(-0.0025 1.08144e-19 0)
(-0.0025 1.36405e-19 0)
(-0.0025 4.08823e-19 0)
(-0.0025 2.30728e-18 0)
(-0.0025 2.62938e-19 0)
(-0.0025 6.01379e-19 0)
(-0.0025 -1.61083e-21 0)
(-0.0025 1.13107e-19 0)
(-0.0025 1.83584e-19 0)
(-0.0025 -3.26181e-20 0)
(-0.0025 -5.79445e-20 0)
(-0.0025 1.54661e-19 0)
(-0.0025 2.03618e-19 0)
(-0.0025 -4.27166e-20 0)
(-0.0025 -6.69541e-20 0)
(-0.0025 -4.0894e-20 0)
(-0.0025 -9.20952e-21 0)
(-0.0025 -1.35558e-19 0)
(-0.0025 1.13828e-20 0)
(-0.0025 4.06319e-20 0)
(-0.0025 1.44026e-19 0)
(-0.0025 3.45617e-19 0)
(-0.0025 -1.623e-18 0)
(-0.0025 -4.19092e-19 0)
(-0.0025 7.102e-19 0)
(-0.0025 6.24279e-20 0)
(-0.0025 -3.07082e-19 0)
(-0.0025 -6.2267e-20 0)
(-0.0025 -6.7122e-21 0)
(-0.0025 -1.07139e-19 0)
(-0.0025 2.14465e-20 0)
(-0.0025 6.22545e-20 0)
(-0.0025 7.21891e-20 0)
(-0.0025 -3.84539e-20 0)
(-0.0025 -2.56906e-19 0)
(-0.0025 -2.39344e-19 0)
(-0.0025 -2.98e-19 0)
(-0.0025 -1.7022e-19 0)
(-0.0025 -1.52206e-20 0)
(-0.0025 1.22827e-19 0)
(-0.0025 -1.0048e-20 0)
(-0.0025 1.24243e-19 0)
(-0.0025 -2.7078e-17 0)
(-0.0025 5.09806e-18 0)
(-0.0025 -8.39602e-19 0)
(-0.0025 3.12051e-19 0)
(-0.0025 1.51448e-19 0)
(-0.0025 3.07265e-19 0)
(-0.0025 2.95821e-19 0)
(-0.0025 2.30153e-19 0)
(-0.0025 -1.28608e-19 0)
(-0.0025 -5.29418e-19 0)
(-0.0025 -3.49117e-19 0)
(-0.0025 6.83304e-21 0)
(-0.0025 -1.09968e-19 0)
(-0.0025 -1.40629e-19 0)
(-0.0025 -3.67432e-19 0)
(-0.0025 -2.16662e-19 0)
(-0.0025 -3.095e-19 0)
(-0.0025 3.41215e-20 0)
(-0.0025 1.68211e-20 0)
(-0.0025 -3.17887e-20 0)
(-0.0025 7.37023e-17 0)
(-0.0025 -1.5083e-17 0)
(-0.0025 3.27555e-18 0)
(-0.0025 -6.35254e-19 0)
(-0.0025 1.36391e-19 0)
(-0.0025 -2.3774e-19 0)
(-0.0025 -3.83045e-19 0)
(-0.0025 -3.0857e-19 0)
(-0.0025 -2.93106e-19 0)
(-0.0025 -2.12632e-19 0)
(-0.0025 1.09868e-19 0)
(-0.0025 1.84335e-19 0)
(-0.0025 1.77604e-19 0)
(-0.0025 1.1167e-19 0)
(-0.0025 -2.10075e-19 0)
(-0.0025 -3.70762e-19 0)
(-0.0025 -1.96169e-19 0)
(-0.0025 1.57838e-19 0)
(-0.0025 2.20904e-19 0)
(-0.0025 7.63632e-20 0)
(-0.0025 -9.01033e-17 0)
(-0.0025 1.88337e-17 0)
(-0.0025 -4.33566e-18 0)
(-0.0025 8.95276e-19 0)
(-0.0025 -1.4424e-19 0)
(-0.0025 -1.79305e-19 0)
(-0.0025 -5.03967e-19 0)
(-0.0025 -4.48378e-19 0)
(-0.0025 -2.25375e-19 0)
(-0.0025 -5.40343e-20 0)
(-0.0025 2.50237e-20 0)
(-0.0025 -1.31128e-19 0)
(-0.0025 -8.07396e-20 0)
(-0.0025 -2.50238e-19 0)
(-0.0025 -4.39083e-19 0)
(-0.0025 -3.18655e-19 0)
(-0.0025 8.64171e-21 0)
(-0.0025 -7.71376e-20 0)
(-0.0025 -9.78711e-20 0)
(-0.0025 4.41482e-20 0)
(-0.0025 3.79024e-17 0)
(-0.0025 -7.8772e-18 0)
(-0.0025 1.73685e-18 0)
(-0.0025 -7.11284e-19 0)
(-0.0025 -1.38169e-19 0)
(-0.0025 -1.92902e-19 0)
(-0.0025 5.34841e-20 0)
(-0.0025 7.03965e-21 0)
(-0.0025 -1.34826e-19 0)
(-0.0025 -8.42403e-20 0)
(-0.0025 -2.83024e-19 0)
(-0.0025 -3.69069e-19 0)
(-0.0025 -2.77476e-19 0)
(-0.0025 -2.88274e-19 0)
(-0.0025 -2.33628e-19 0)
(-0.0025 -1.30636e-19 0)
(-0.0025 -4.66564e-21 0)
(-0.0025 -1.62705e-19 0)
(-0.0025 -1.91271e-19 0)
(-0.0025 1.81708e-20 0)
(-0.0025 7.33406e-17 0)
(-0.0025 -1.49364e-17 0)
(-0.0025 3.07252e-18 0)
(-0.0025 -9.35724e-19 0)
(-0.0025 -1.29442e-19 0)
(-0.0025 -2.88303e-19 0)
(-0.0025 -6.79539e-20 0)
(-0.0025 -2.84595e-19 0)
(-0.0025 -3.51241e-19 0)
(-0.0025 -1.95923e-19 0)
(-0.0025 -3.46649e-19 0)
(-0.0025 -2.55148e-19 0)
(-0.0025 -2.06252e-20 0)
(-0.0025 4.91357e-20 0)
(-0.0025 5.96379e-20 0)
(-0.0025 2.99794e-20 0)
(-0.0025 -1.09729e-19 0)
(-0.0025 -2.80362e-19 0)
(-0.0025 -1.50625e-19 0)
(-0.0025 -1.08248e-20 0)
(-0.0025 -7.94844e-17 0)
(-0.0025 1.58556e-17 0)
(-0.0025 -3.95946e-18 0)
(-0.0025 6.3892e-19 0)
(-0.0025 -1.54909e-19 0)
(-0.0025 2.15753e-20 0)
(-0.0025 -7.98261e-20 0)
(-0.0025 -2.71876e-19 0)
(-0.0025 -2.57651e-19 0)
(-0.0025 -1.5756e-19 0)
(-0.0025 -2.86356e-19 0)
(-0.0025 -3.47454e-19 0)
(-0.0025 -2.04797e-19 0)
(-0.0025 -1.10328e-19 0)
(-0.0025 8.42226e-20 0)
(-0.0025 1.77395e-19 0)
(-0.0025 -2.28929e-19 0)
(-0.0025 -5.3564e-19 0)
(-0.0025 -2.62662e-19 0)
(-0.0025 -2.26923e-20 0)
(-0.0025 -1.23426e-17 0)
(-0.0025 7.2326e-19 0)
(-0.0025 -6.64349e-19 0)
(-0.0025 -3.90995e-19 0)
(-0.0025 -4.49188e-19 0)
(-0.0025 -3.66635e-19 0)
(-0.0025 -2.78148e-19 0)
(-0.0025 -1.85443e-19 0)
(-0.0025 1.09181e-20 0)
(-0.0025 2.05261e-19 0)
(-0.0025 2.03857e-19 0)
(-0.0025 7.02449e-21 0)
(-0.0025 -1.49621e-19 0)
(-0.0025 -2.40554e-19 0)
(-0.0025 -1.30693e-19 0)
(-0.0025 -1.28905e-19 0)
(-0.0025 -2.20052e-19 0)
(-0.0025 -3.08805e-19 0)
(-0.0025 -1.38182e-19 0)
(-0.0025 3.53187e-20 0)
)
;

boundaryField
{
    movingWall
    {
        type            calculated;
        value           uniform (-0.0025 -0 -0);
    }
    fixedWalls
    {
        type            calculated;
        value           uniform (-0.0025 -0 -0);
    }
    frontAndBack
    {
        type            empty;
    }
}


// ************************************************************************* //
