/*--------------------------------*- C++ -*----------------------------------*\
| =========                 |                                                 |
| \\      /  F ield         | OpenFOAM: The Open Source CFD Toolbox           |
|  \\    /   O peration     | Version:  2506                                  |
|   \\  /    A nd           | Website:  www.openfoam.com                      |
|    \\/     M anipulation  |                                                 |
\*---------------------------------------------------------------------------*/
FoamFile
{
    version     2.0;
    format      ascii;
    arch        "LSB;label=32;scalar=64";
    class       volVectorField;
    location    "8";
    object      norm_U_composite;
}
// * * * * * * * * * * * * * * * * * * * * * * * * * * * * * * * * * * * * * //

dimensions      [0 0 0 0 0 0 0];

internalField   nonuniform List<vector> 
400
(
(-0.5 2.89346e-14 0)
(-0.5 -5.61615e-15 0)
(-0.5 1.34313e-15 0)
(-0.5 -2.38538e-16 0)
(-0.5 6.61961e-17 0)
(-0.5 3.1439e-17 0)
(-0.5 5.37963e-17 0)
(-0.5 4.84586e-17 0)
(-0.5 5.2317e-17 0)
(-0.5 3.86575e-17 0)
(-0.5 9.86065e-18 0)
(-0.5 6.79541e-18 0)
(-0.5 2.51878e-17 0)
(-0.5 4.94869e-17 0)
(-0.5 1.07453e-17 0)
(-0.5 -2.04206e-17 0)
(-0.5 7.38925e-18 0)
(-0.5 3.69446e-17 0)
(-0.5 -8.2563e-18 0)
(-0.5 -2.01541e-17 0)
(-0.5 6.7002e-16 0)
(-0.5 -3.58806e-17 0)
(-0.5 3.91193e-17 0)
(-0.5 5.35938e-17 0)
(-0.5 5.2769e-17 0)
(-0.5 7.33191e-17 0)
(-0.5 6.47935e-17 0)
(-0.5 4.56346e-17 0)
(-0.5 2.05314e-17 0)
(-0.5 -6.60746e-18 0)
(-0.5 -1.00654e-17 0)
(-0.5 -7.10846e-18 0)
(-0.5 7.40503e-18 0)
(-0.5 7.9309e-17 0)
(-0.5 5.31239e-17 0)
(-0.5 4.37156e-17 0)
(-0.5 4.18779e-17 0)
(-0.5 -9.55031e-18 0)
(-0.5 -8.01612e-17 0)
(-0.5 -4.37771e-17 0)
(-0.5 -2.032e-14 0)
(-0.5 3.88543e-15 0)
(-0.5 -9.27756e-16 0)
(-0.5 2.28308e-16 0)
(-0.5 3.62323e-17 0)
(-0.5 2.39996e-17 0)
(-0.5 1.6868e-17 0)
(-0.5 2.91687e-17 0)
(-0.5 -1.01303e-17 0)
(-0.5 -2.0822e-17 0)
(-0.5 -1.33256e-17 0)
(-0.5 -6.25436e-17 0)
(-0.5 -5.58199e-17 0)
(-0.5 1.7939e-17 0)
(-0.5 1.00435e-16 0)
(-0.5 8.19201e-17 0)
(-0.5 2.96411e-17 0)
(-0.5 -7.81459e-17 0)
(-0.5 -1.09515e-16 0)
(-0.5 -4.97433e-17 0)
(-0.5 1.30071e-14 0)
(-0.5 -2.72388e-15 0)
(-0.5 6.46491e-16 0)
(-0.5 -1.02058e-16 0)
(-0.5 1.00479e-16 0)
(-0.5 8.31695e-17 0)
(-0.5 1.48597e-16 0)
(-0.5 1.3162e-16 0)
(-0.5 6.46849e-17 0)
(-0.5 3.23268e-17 0)
(-0.5 3.29184e-17 0)
(-0.5 1.70786e-17 0)
(-0.5 -2.14306e-18 0)
(-0.5 -5.69218e-17 0)
(-0.5 2.86508e-18 0)
(-0.5 1.90689e-17 0)
(-0.5 -2.70335e-18 0)
(-0.5 -5.05575e-17 0)
(-0.5 -5.74021e-17 0)
(-0.5 -3.65902e-17 0)
(-0.5 -5.78601e-15 0)
(-0.5 1.23801e-15 0)
(-0.5 -3.36222e-16 0)
(-0.5 4.51961e-19 0)
(-0.5 -3.40896e-17 0)
(-0.5 6.95186e-17 0)
(-0.5 9.60003e-17 0)
(-0.5 9.48347e-17 0)
(-0.5 9.47304e-17 0)
(-0.5 5.68737e-17 0)
(-0.5 5.24351e-17 0)
(-0.5 5.90362e-17 0)
(-0.5 6.77921e-18 0)
(-0.5 -8.11552e-17 0)
(-0.5 -8.99532e-17 0)
(-0.5 6.36217e-18 0)
(-0.5 4.46332e-17 0)
(-0.5 3.75683e-17 0)
(-0.5 1.95741e-17 0)
(-0.5 1.10289e-17 0)
(-0.5 -6.05389e-15 0)
(-0.5 1.0434e-15 0)
(-0.5 -4.34978e-16 0)
(-0.5 -4.48386e-17 0)
(-0.5 -6.40789e-17 0)
(-0.5 4.9626e-17 0)
(-0.5 6.13302e-17 0)
(-0.5 7.21912e-17 0)
(-0.5 9.88606e-17 0)
(-0.5 1.12204e-16 0)
(-0.5 1.01865e-16 0)
(-0.5 4.34105e-17 0)
(-0.5 -1.92905e-17 0)
(-0.5 -1.58189e-17 0)
(-0.5 -8.38868e-18 0)
(-0.5 -4.84296e-18 0)
(-0.5 1.05468e-17 0)
(-0.5 6.12139e-17 0)
(-0.5 4.92181e-17 0)
(-0.5 2.15893e-17 0)
(-0.5 1.20975e-14 0)
(-0.5 -2.40731e-15 0)
(-0.5 4.5931e-16 0)
(-0.5 -1.49472e-16 0)
(-0.5 4.12861e-17 0)
(-0.5 9.27112e-17 0)
(-0.5 1.09301e-16 0)
(-0.5 6.61089e-17 0)
(-0.5 3.23709e-17 0)
(-0.5 3.62208e-17 0)
(-0.5 4.29473e-17 0)
(-0.5 3.50804e-17 0)
(-0.5 4.62375e-17 0)
(-0.5 6.78771e-17 0)
(-0.5 7.60476e-17 0)
(-0.5 4.06579e-17 0)
(-0.5 -1.73148e-17 0)
(-0.5 9.37078e-18 0)
(-0.5 4.37299e-17 0)
(-0.5 3.78328e-17 0)
(-0.5 -3.06322e-15 0)
(-0.5 4.509e-16 0)
(-0.5 -1.41758e-16 0)
(-0.5 7.6455e-18 0)
(-0.5 1.34497e-17 0)
(-0.5 -2.5789e-17 0)
(-0.5 -3.79981e-17 0)
(-0.5 -1.12049e-17 0)
(-0.5 1.11987e-17 0)
(-0.5 -1.66907e-17 0)
(-0.5 -6.17661e-17 0)
(-0.5 -6.17134e-17 0)
(-0.5 -1.48011e-17 0)
(-0.5 -7.94825e-18 0)
(-0.5 -2.26676e-18 0)
(-0.5 2.1641e-17 0)
(-0.5 2.88103e-17 0)
(-0.5 4.5418e-17 0)
(-0.5 7.02424e-17 0)
(-0.5 6.88708e-17 0)
(-0.5 -1.22844e-14 0)
(-0.5 2.45753e-15 0)
(-0.5 -6.4479e-16 0)
(-0.5 1.52911e-16 0)
(-0.5 -2.97082e-18 0)
(-0.5 -3.87742e-17 0)
(-0.5 -9.01758e-17 0)
(-0.5 -5.34189e-17 0)
(-0.5 9.59961e-19 0)
(-0.5 -2.45782e-17 0)
(-0.5 -5.78345e-17 0)
(-0.5 -9.62362e-18 0)
(-0.5 2.69361e-17 0)
(-0.5 7.27085e-17 0)
(-0.5 6.23026e-17 0)
(-0.5 -1.25614e-17 0)
(-0.5 -8.38558e-18 0)
(-0.5 1.9768e-18 0)
(-0.5 2.14421e-17 0)
(-0.5 2.83399e-17 0)
(-0.5 1.21222e-14 0)
(-0.5 -2.5577e-15 0)
(-0.5 5.82821e-16 0)
(-0.5 -1.13604e-16 0)
(-0.5 5.41021e-17 0)
(-0.5 -1.21214e-17 0)
(-0.5 -1.75163e-17 0)
(-0.5 1.84741e-17 0)
(-0.5 5.34908e-18 0)
(-0.5 -1.03615e-17 0)
(-0.5 -3.67293e-17 0)
(-0.5 2.45129e-18 0)
(-0.5 7.94945e-17 0)
(-0.5 1.34728e-16 0)
(-0.5 1.2553e-16 0)
(-0.5 5.24674e-17 0)
(-0.5 2.43477e-17 0)
(-0.5 1.51597e-17 0)
(-0.5 3.60548e-18 0)
(-0.5 -1.28726e-17 0)
(-0.5 -4.05524e-15 0)
(-0.5 7.17218e-16 0)
(-0.5 -1.02463e-16 0)
(-0.5 3.98924e-17 0)
(-0.5 2.41215e-17 0)
(-0.5 -9.41427e-20 0)
(-0.5 4.10471e-17 0)
(-0.5 6.19466e-17 0)
(-0.5 1.12073e-17 0)
(-0.5 1.85822e-17 0)
(-0.5 1.69112e-17 0)
(-0.5 -4.26638e-18 0)
(-0.5 2.7669e-17 0)
(-0.5 -1.37514e-17 0)
(-0.5 -3.56427e-17 0)
(-0.5 -1.98347e-17 0)
(-0.5 1.13309e-17 0)
(-0.5 1.85465e-17 0)
(-0.5 2.16288e-17 0)
(-0.5 2.7281e-17 0)
(-0.5 8.17646e-17 0)
(-0.5 4.61456e-16 0)
(-0.5 5.25877e-17 0)
(-0.5 1.20276e-16 0)
(-0.5 -3.22166e-19 0)
(-0.5 2.26215e-17 0)
(-0.5 3.67169e-17 0)
(-0.5 -6.52362e-18 0)
(-0.5 -1.15889e-17 0)
(-0.5 3.09322e-17 0)
(-0.5 4.07236e-17 0)
(-0.5 -8.54333e-18 0)
(-0.5 -1.33908e-17 0)
(-0.5 -8.1788e-18 0)
(-0.5 -1.8419e-18 0)
(-0.5 -2.71116e-17 0)
(-0.5 2.27655e-18 0)
(-0.5 8.12638e-18 0)
(-0.5 2.88052e-17 0)
(-0.5 6.91233e-17 0)
(-0.5 -3.246e-16 0)
(-0.5 -8.38185e-17 0)
(-0.5 1.4204e-16 0)
(-0.5 1.24856e-17 0)
(-0.5 -6.14164e-17 0)
(-0.5 -1.24534e-17 0)
(-0.5 -1.34244e-18 0)
(-0.5 -2.14278e-17 0)
(-0.5 4.28929e-18 0)
(-0.5 1.24509e-17 0)
(-0.5 1.44378e-17 0)
(-0.5 -7.69078e-18 0)
(-0.5 -5.13813e-17 0)
(-0.5 -4.78689e-17 0)
(-0.5 -5.96e-17 0)
(-0.5 -3.4044e-17 0)
(-0.5 -3.04412e-18 0)
(-0.5 2.45654e-17 0)
(-0.5 -2.0096e-18 0)
(-0.5 2.48486e-17 0)
(-0.5 -5.4156e-15 0)
(-0.5 1.01961e-15 0)
(-0.5 -1.6792e-16 0)
(-0.5 6.24101e-17 0)
(-0.5 3.02897e-17 0)
(-0.5 6.14531e-17 0)
(-0.5 5.91643e-17 0)
(-0.5 4.60306e-17 0)
(-0.5 -2.57215e-17 0)
(-0.5 -1.05884e-16 0)
(-0.5 -6.98233e-17 0)
(-0.5 1.36661e-18 0)
(-0.5 -2.19937e-17 0)
(-0.5 -2.81258e-17 0)
(-0.5 -7.34865e-17 0)
(-0.5 -4.33323e-17 0)
(-0.5 -6.19e-17 0)
(-0.5 6.82431e-18 0)
(-0.5 3.36423e-18 0)
(-0.5 -6.35775e-18 0)
(-0.5 1.47405e-14 0)
(-0.5 -3.01659e-15 0)
(-0.5 6.55111e-16 0)
(-0.5 -1.27051e-16 0)
(-0.5 2.72782e-17 0)
(-0.5 -4.75481e-17 0)
(-0.5 -7.66091e-17 0)
(-0.5 -6.1714e-17 0)
(-0.5 -5.86212e-17 0)
(-0.5 -4.25265e-17 0)
(-0.5 2.19736e-17 0)
(-0.5 3.6867e-17 0)
(-0.5 3.55209e-17 0)
(-0.5 2.2334e-17 0)
(-0.5 -4.2015e-17 0)
(-0.5 -7.41524e-17 0)
(-0.5 -3.92337e-17 0)
(-0.5 3.15675e-17 0)
(-0.5 4.41808e-17 0)
(-0.5 1.52726e-17 0)
(-0.5 -1.80207e-14 0)
(-0.5 3.76674e-15 0)
(-0.5 -8.67133e-16 0)
(-0.5 1.79055e-16 0)
(-0.5 -2.88479e-17 0)
(-0.5 -3.5861e-17 0)
(-0.5 -1.00793e-16 0)
(-0.5 -8.96757e-17 0)
(-0.5 -4.5075e-17 0)
(-0.5 -1.08069e-17 0)
(-0.5 5.00473e-18 0)
(-0.5 -2.62257e-17 0)
(-0.5 -1.61479e-17 0)
(-0.5 -5.00476e-17 0)
(-0.5 -8.78166e-17 0)
(-0.5 -6.3731e-17 0)
(-0.5 1.72834e-18 0)
(-0.5 -1.54275e-17 0)
(-0.5 -1.95742e-17 0)
(-0.5 8.82964e-18 0)
(-0.5 7.58049e-15 0)
(-0.5 -1.57544e-15 0)
(-0.5 3.4737e-16 0)
(-0.5 -1.42257e-16 0)
(-0.5 -2.76339e-17 0)
(-0.5 -3.85804e-17 0)
(-0.5 1.06968e-17 0)
(-0.5 1.40793e-18 0)
(-0.5 -2.69652e-17 0)
(-0.5 -1.68481e-17 0)
(-0.5 -5.66047e-17 0)
(-0.5 -7.38138e-17 0)
(-0.5 -5.54952e-17 0)
(-0.5 -5.76549e-17 0)
(-0.5 -4.67255e-17 0)
(-0.5 -2.61271e-17 0)
(-0.5 -9.33127e-19 0)
(-0.5 -3.2541e-17 0)
(-0.5 -3.82541e-17 0)
(-0.5 3.63415e-18 0)
(-0.5 1.46681e-14 0)
(-0.5 -2.98728e-15 0)
(-0.5 6.14503e-16 0)
(-0.5 -1.87145e-16 0)
(-0.5 -2.58885e-17 0)
(-0.5 -5.76606e-17 0)
(-0.5 -1.35908e-17 0)
(-0.5 -5.69191e-17 0)
(-0.5 -7.02481e-17 0)
(-0.5 -3.91846e-17 0)
(-0.5 -6.93298e-17 0)
(-0.5 -5.10296e-17 0)
(-0.5 -4.12504e-18 0)
(-0.5 9.82714e-18 0)
(-0.5 1.19276e-17 0)
(-0.5 5.99587e-18 0)
(-0.5 -2.19458e-17 0)
(-0.5 -5.60723e-17 0)
(-0.5 -3.0125e-17 0)
(-0.5 -2.16496e-18 0)
(-0.5 -1.58969e-14 0)
(-0.5 3.17112e-15 0)
(-0.5 -7.91892e-16 0)
(-0.5 1.27784e-16 0)
(-0.5 -3.09818e-17 0)
(-0.5 4.31506e-18 0)
(-0.5 -1.59652e-17 0)
(-0.5 -5.43752e-17 0)
(-0.5 -5.15302e-17 0)
(-0.5 -3.15119e-17 0)
(-0.5 -5.72711e-17 0)
(-0.5 -6.94908e-17 0)
(-0.5 -4.09593e-17 0)
(-0.5 -2.20655e-17 0)
(-0.5 1.68445e-17 0)
(-0.5 3.5479e-17 0)
(-0.5 -4.57857e-17 0)
(-0.5 -1.07128e-16 0)
(-0.5 -5.25324e-17 0)
(-0.5 -4.53845e-18 0)
(-0.5 -2.46852e-15 0)
(-0.5 1.44652e-16 0)
(-0.5 -1.3287e-16 0)
(-0.5 -7.81991e-17 0)
(-0.5 -8.98377e-17 0)
(-0.5 -7.3327e-17 0)
(-0.5 -5.56296e-17 0)
(-0.5 -3.70885e-17 0)
(-0.5 2.18362e-18 0)
(-0.5 4.10521e-17 0)
(-0.5 4.07715e-17 0)
(-0.5 1.4049e-18 0)
(-0.5 -2.99242e-17 0)
(-0.5 -4.81108e-17 0)
(-0.5 -2.61386e-17 0)
(-0.5 -2.57811e-17 0)
(-0.5 -4.40105e-17 0)
(-0.5 -6.1761e-17 0)
(-0.5 -2.76365e-17 0)
(-0.5 7.06374e-18 0)
)
;

boundaryField
{
    movingWall
    {
        type            calculated;
        value           uniform (-0.5 -0 -0);
    }
    fixedWalls
    {
        type            calculated;
        value           uniform (-0.5 -0 -0);
    }
    frontAndBack
    {
        type            empty;
    }
}


// ************************************************************************* //
