/*--------------------------------*- C++ -*----------------------------------*\
| =========                 |                                                 |
| \\      /  F ield         | OpenFOAM: The Open Source CFD Toolbox           |
|  \\    /   O peration     | Version:  2506                                  |
|   \\  /    A nd           | Website:  www.openfoam.com                      |
|    \\/     M anipulation  |                                                 |
\*---------------------------------------------------------------------------*/
FoamFile
{
    version     2.0;
    format      ascii;
    arch        "LSB;label=32;scalar=64";
    class       volScalarField;
    location    "8";
    object      P_A;
}
// * * * * * * * * * * * * * * * * * * * * * * * * * * * * * * * * * * * * * //

dimensions      [1 -1 -3 0 0 0 0];

internalField   nonuniform List<scalar> 
400
(
5.70517e-33
5.70516e-33
5.70515e-33
5.70514e-33
5.70514e-33
5.70513e-33
5.70512e-33
5.70512e-33
5.70511e-33
5.70512e-33
5.70509e-33
5.70512e-33
5.70508e-33
5.70512e-33
5.70509e-33
5.70511e-33
5.70509e-33
5.7051e-33
5.7051e-33
5.7051e-33
6.20411e-33
6.12853e-33
6.13447e-33
6.13689e-33
6.14191e-33
6.1444e-33
6.14947e-33
6.15207e-33
6.15718e-33
6.15988e-33
6.16504e-33
6.16785e-33
6.17306e-33
6.17596e-33
6.18123e-33
6.18423e-33
6.18955e-33
6.19265e-33
6.19533e-33
6.1996e-33
7.04553e-33
6.95682e-33
6.96389e-33
6.9668e-33
6.9727e-33
6.97566e-33
6.98168e-33
6.98472e-33
6.99075e-33
6.99393e-33
6.99996e-33
7.00328e-33
7.00933e-33
7.01273e-33
7.01885e-33
7.02233e-33
7.02851e-33
7.03205e-33
7.03518e-33
7.04011e-33
7.99843e-33
7.89614e-33
7.90428e-33
7.90763e-33
7.91441e-33
7.91789e-33
7.9247e-33
7.9283e-33
7.93517e-33
7.93891e-33
7.94578e-33
7.94967e-33
7.95657e-33
7.96057e-33
7.96755e-33
7.97161e-33
7.9787e-33
7.98282e-33
7.98641e-33
7.9921e-33
8.85323e-33
8.73847e-33
8.74758e-33
8.75127e-33
8.75902e-33
8.7627e-33
8.7706e-33
8.77435e-33
8.78233e-33
8.78621e-33
8.79423e-33
8.79828e-33
8.80629e-33
8.81058e-33
8.81857e-33
8.82299e-33
8.83106e-33
8.83559e-33
8.83964e-33
8.84602e-33
9.50518e-33
9.38081e-33
9.39066e-33
9.3947e-33
9.40299e-33
9.40712e-33
9.41552e-33
9.41973e-33
9.42825e-33
9.43256e-33
9.44115e-33
9.44562e-33
9.45425e-33
9.45888e-33
9.46754e-33
9.47235e-33
9.48107e-33
9.486e-33
9.4904e-33
9.49731e-33
9.95151e-33
9.82049e-33
9.83088e-33
9.83512e-33
9.84386e-33
9.84819e-33
9.85703e-33
9.8615e-33
9.8704e-33
9.87503e-33
9.88399e-33
9.88877e-33
9.8978e-33
9.90272e-33
9.91183e-33
9.91688e-33
9.92608e-33
9.93127e-33
9.9359e-33
9.94318e-33
1.02411e-32
1.01057e-32
1.01164e-32
1.01208e-32
1.01298e-32
1.01343e-32
1.01434e-32
1.0148e-32
1.01573e-32
1.0162e-32
1.01713e-32
1.01762e-32
1.01856e-32
1.01906e-32
1.02e-32
1.02053e-32
1.02148e-32
1.02201e-32
1.02249e-32
1.02324e-32
1.04304e-32
1.02922e-32
1.03032e-32
1.03076e-32
1.03169e-32
1.03213e-32
1.03308e-32
1.03354e-32
1.03449e-32
1.03496e-32
1.03592e-32
1.03641e-32
1.03737e-32
1.03789e-32
1.03885e-32
1.03938e-32
1.04035e-32
1.0409e-32
1.04139e-32
1.04216e-32
1.05639e-32
1.04237e-32
1.04348e-32
1.04393e-32
1.04487e-32
1.04533e-32
1.04628e-32
1.04675e-32
1.04771e-32
1.0482e-32
1.04916e-32
1.04967e-32
1.05064e-32
1.05116e-32
1.05214e-32
1.05268e-32
1.05366e-32
1.05422e-32
1.05471e-32
1.05549e-32
1.06708e-32
1.0529e-32
1.05402e-32
1.05448e-32
1.05542e-32
1.05589e-32
1.05684e-32
1.05733e-32
1.05829e-32
1.0588e-32
1.05975e-32
1.06029e-32
1.06125e-32
1.0618e-32
1.06277e-32
1.06333e-32
1.06431e-32
1.06488e-32
1.06538e-32
1.06617e-32
1.07687e-32
1.06254e-32
1.06367e-32
1.06413e-32
1.06509e-32
1.06556e-32
1.06653e-32
1.06701e-32
1.06799e-32
1.06849e-32
1.06947e-32
1.06999e-32
1.07098e-32
1.07152e-32
1.07252e-32
1.07307e-32
1.07407e-32
1.07464e-32
1.07515e-32
1.07594e-32
1.08679e-32
1.07231e-32
1.07346e-32
1.07392e-32
1.07489e-32
1.07536e-32
1.07634e-32
1.07683e-32
1.07782e-32
1.07833e-32
1.07932e-32
1.07984e-32
1.08084e-32
1.08138e-32
1.08239e-32
1.08295e-32
1.08397e-32
1.08454e-32
1.08505e-32
1.08585e-32
1.09744e-32
1.0828e-32
1.08397e-32
1.08443e-32
1.08542e-32
1.08589e-32
1.08689e-32
1.08737e-32
1.08838e-32
1.08888e-32
1.08989e-32
1.09042e-32
1.09143e-32
1.09198e-32
1.093e-32
1.09356e-32
1.09459e-32
1.09517e-32
1.09569e-32
1.0965e-32
1.10912e-32
1.09431e-32
1.09548e-32
1.09596e-32
1.09694e-32
1.09743e-32
1.09843e-32
1.09893e-32
1.09994e-32
1.10046e-32
1.10148e-32
1.10201e-32
1.10304e-32
1.10359e-32
1.10462e-32
1.10519e-32
1.10623e-32
1.10682e-32
1.10734e-32
1.10816e-32
1.12176e-32
1.10675e-32
1.10794e-32
1.10842e-32
1.10942e-32
1.1099e-32
1.11094e-32
1.11142e-32
1.11247e-32
1.11297e-32
1.11402e-32
1.11454e-32
1.11559e-32
1.11615e-32
1.1172e-32
1.11777e-32
1.11883e-32
1.11942e-32
1.11995e-32
1.12078e-32
1.13478e-32
1.11958e-32
1.12078e-32
1.12128e-32
1.12228e-32
1.12279e-32
1.12381e-32
1.12433e-32
1.12535e-32
1.1259e-32
1.12693e-32
1.12749e-32
1.12853e-32
1.12911e-32
1.13015e-32
1.13075e-32
1.13181e-32
1.13242e-32
1.13295e-32
1.13379e-32
1.14701e-32
1.13163e-32
1.13285e-32
1.13334e-32
1.13437e-32
1.13487e-32
1.13591e-32
1.13643e-32
1.13748e-32
1.13802e-32
1.13907e-32
1.13963e-32
1.14069e-32
1.14127e-32
1.14234e-32
1.14293e-32
1.14401e-32
1.14462e-32
1.14516e-32
1.14602e-32
1.15671e-32
1.14149e-32
1.14267e-32
1.14316e-32
1.14416e-32
1.14465e-32
1.14567e-32
1.14619e-32
1.14721e-32
1.14775e-32
1.14879e-32
1.14935e-32
1.1504e-32
1.15098e-32
1.15204e-32
1.15264e-32
1.15371e-32
1.15433e-32
1.15488e-32
1.15574e-32
1.16119e-32
1.16119e-32
1.16119e-32
1.16118e-32
1.16118e-32
1.16118e-32
1.16118e-32
1.16118e-32
1.16118e-32
1.16118e-32
1.16118e-32
1.16118e-32
1.16118e-32
1.16118e-32
1.16118e-32
1.16118e-32
1.16118e-32
1.16118e-32
1.16118e-32
1.16118e-32
)
;

boundaryField
{
    movingWall
    {
        type            calculated;
        value           nonuniform List<scalar> 
20
(
1.16119e-32
1.16119e-32
1.16119e-32
1.16118e-32
1.16118e-32
1.16118e-32
1.16118e-32
1.16118e-32
1.16118e-32
1.16118e-32
1.16118e-32
1.16118e-32
1.16118e-32
1.16118e-32
1.16118e-32
1.16118e-32
1.16118e-32
1.16118e-32
1.16118e-32
1.16118e-32
)
;
    }
    fixedWalls
    {
        type            calculated;
        value           nonuniform List<scalar> 
60
(
5.70517e-33
6.20411e-33
7.04553e-33
7.99843e-33
8.85323e-33
9.50518e-33
9.95151e-33
1.02411e-32
1.04304e-32
1.05639e-32
1.06708e-32
1.07687e-32
1.08679e-32
1.09744e-32
1.10912e-32
1.12176e-32
1.13478e-32
1.14701e-32
1.15671e-32
1.16119e-32
5.7051e-33
6.1996e-33
7.04011e-33
7.9921e-33
8.84602e-33
9.49731e-33
9.94318e-33
1.02324e-32
1.04216e-32
1.05549e-32
1.06617e-32
1.07594e-32
1.08585e-32
1.0965e-32
1.10816e-32
1.12078e-32
1.13379e-32
1.14602e-32
1.15574e-32
1.16118e-32
5.70517e-33
5.70516e-33
5.70515e-33
5.70514e-33
5.70514e-33
5.70513e-33
5.70512e-33
5.70512e-33
5.70511e-33
5.70512e-33
5.70509e-33
5.70512e-33
5.70508e-33
5.70512e-33
5.70509e-33
5.70511e-33
5.70509e-33
5.7051e-33
5.7051e-33
5.7051e-33
)
;
    }
    frontAndBack
    {
        type            empty;
    }
}


// ************************************************************************* //
