/*--------------------------------*- C++ -*----------------------------------*\
| =========                 |                                                 |
| \\      /  F ield         | OpenFOAM: The Open Source CFD Toolbox           |
|  \\    /   O peration     | Version:  2506                                  |
|   \\  /    A nd           | Website:  www.openfoam.com                      |
|    \\/     M anipulation  |                                                 |
\*---------------------------------------------------------------------------*/
FoamFile
{
    version     2.0;
    format      ascii;
    arch        "LSB;label=32;scalar=64";
    class       surfaceScalarField;
    location    "8";
    object      PecletNoField;
}
// * * * * * * * * * * * * * * * * * * * * * * * * * * * * * * * * * * * * * //

dimensions      [0 0 0 0 0 0 0];

oriented        oriented;

internalField   nonuniform List<scalar> 
760
(
449.019
1.74131e-13
449.019
1.40126e-12
449.019
5.98511e-13
449.019
3.49455e-14
449.019
7.39813e-15
449.019
4.84013e-14
449.019
9.45548e-14
449.019
4.99442e-14
449.019
3.43003e-14
449.019
6.51112e-14
449.019
1.61017e-14
449.019
1.54321e-14
449.019
2.89793e-15
449.019
6.87664e-14
449.019
3.47439e-14
449.019
5.80733e-16
449.019
2.92219e-15
449.019
2.52184e-14
449.019
2.96669e-14
2.58211e-14
448.256
7.89637e-13
447.997
5.91255e-13
448.034
3.74203e-13
448.065
8.39988e-14
448.097
7.32058e-14
448.129
5.83622e-14
448.161
3.17614e-14
448.193
3.28013e-14
448.225
1.46673e-14
448.256
9.17512e-14
448.288
4.53654e-14
448.32
6.78776e-15
448.352
9.00982e-15
448.384
6.07002e-14
448.416
7.25267e-14
448.448
6.46267e-14
448.48
4.74412e-14
448.502
4.48935e-14
448.528
1.03842e-13
5.34994e-14
447.508
1.38582e-12
447.238
8.77092e-13
447.277
1.55067e-13
447.31
6.20917e-14
447.344
7.32135e-14
447.378
3.38726e-14
447.411
4.08321e-14
447.445
6.61636e-14
447.478
5.25426e-14
447.511
6.01168e-14
447.545
3.71984e-14
447.578
5.66502e-14
447.611
5.05294e-14
447.645
5.44399e-14
447.678
6.03908e-14
447.711
5.13887e-14
447.744
2.00565e-14
447.766
4.75459e-14
447.794
6.83938e-14
4.8559e-14
446.757
4.80828e-13
446.479
4.48159e-13
446.519
1.52849e-13
446.553
2.41838e-14
446.588
2.79858e-14
446.623
7.21397e-14
446.657
1.38844e-13
446.692
1.13367e-13
446.726
4.97701e-14
446.76
1.95008e-14
446.795
2.32708e-14
446.829
5.93681e-14
446.863
2.96609e-14
446.897
4.84614e-14
446.932
6.1678e-14
446.966
9.69995e-15
447
2.66969e-14
447.023
1.6885e-14
447.051
2.98307e-14
2.2157e-14
446.148
9.59248e-13
445.863
7.10314e-13
445.904
3.25188e-13
445.94
4.86745e-14
445.975
5.8572e-14
446.011
6.33815e-14
446.046
5.1254e-14
446.081
4.74095e-14
446.117
9.0017e-14
446.152
8.03285e-14
446.187
7.76421e-14
446.222
3.04615e-14
446.257
2.771e-14
446.292
4.63833e-14
446.327
5.00377e-14
446.362
8.53941e-15
446.396
7.70246e-15
446.42
4.60556e-14
446.449
4.88528e-14
5.16745e-14
445.717
6.85875e-14
445.428
6.09514e-13
445.47
2.46993e-14
445.506
8.05893e-14
445.542
1.79429e-14
445.578
3.22486e-14
445.614
8.37614e-14
445.65
8.57795e-14
445.686
7.02254e-14
445.721
6.92697e-14
445.757
6.2144e-14
445.793
4.75321e-14
445.829
2.98146e-14
445.864
3.22104e-14
445.9
4.35723e-14
445.935
1.31014e-14
445.97
1.03598e-14
445.995
3.96563e-14
446.023
4.11423e-14
9.63409e-15
445.438
2.19598e-13
445.145
3.55914e-13
445.187
1.68254e-13
445.224
2.70834e-14
445.26
3.51616e-14
445.297
5.87451e-14
445.333
4.0528e-14
445.369
2.20925e-14
445.406
5.07493e-15
445.442
9.93847e-15
445.478
1.75012e-14
445.514
1.2004e-14
445.55
5.54784e-15
445.586
1.65777e-14
445.622
2.89261e-14
445.658
5.12412e-14
445.693
1.8641e-14
445.718
1.40141e-14
445.747
5.41787e-14
6.69977e-14
445.262
2.48259e-13
444.968
5.76774e-13
445.01
3.58066e-13
445.047
1.66049e-14
445.084
1.44814e-15
445.12
4.61747e-14
445.157
6.62625e-14
445.193
2.11294e-14
445.23
1.0153e-14
445.266
6.48453e-15
445.303
2.45693e-14
445.339
3.49377e-14
445.375
1.30402e-14
445.411
3.09488e-14
445.448
3.7836e-15
445.484
3.38216e-14
445.52
1.89293e-15
445.544
2.78327e-14
445.574
2.64429e-14
6.98101e-14
445.15
5.69372e-13
444.854
3.67786e-13
444.897
3.4566e-14
444.934
4.63866e-14
444.97
2.84603e-14
445.007
6.73029e-16
445.044
4.41541e-14
445.081
5.93267e-14
445.117
1.43542e-14
445.154
1.58438e-14
445.19
7.44882e-14
445.227
3.22323e-15
445.263
3.07347e-14
445.3
9.92433e-14
445.336
1.49234e-13
445.372
4.3316e-14
445.408
5.7705e-15
445.433
1.9047e-14
445.463
6.22155e-15
1.88404e-14
445.072
2.92949e-13
444.775
8.00505e-13
444.818
2.10443e-13
444.855
3.56822e-14
444.892
2.34057e-14
444.929
1.60221e-14
444.966
2.62979e-16
445.002
9.33178e-14
445.039
1.22969e-15
445.076
8.61587e-15
445.112
3.02168e-15
445.149
3.98673e-15
445.186
5.85273e-14
445.222
3.88657e-14
445.258
1.65109e-14
445.295
4.15149e-15
445.331
3.31622e-14
445.356
6.92256e-14
445.385
4.70942e-14
1.33141e-14
445.01
3.99852e-13
444.713
1.41598e-13
444.755
5.38132e-15
444.792
4.9829e-14
444.83
4.77036e-14
444.866
8.01186e-15
444.904
4.42754e-14
444.94
5.50656e-15
444.977
3.17364e-15
445.014
2.03764e-14
445.051
1.60642e-14
445.087
2.46544e-14
445.124
1.81856e-14
445.16
1.37781e-14
445.197
1.64873e-14
445.233
4.16942e-15
445.27
7.52017e-15
445.294
4.53852e-14
445.324
1.80017e-14
6.39968e-14
444.954
1.15838e-12
444.656
9.10899e-13
444.699
6.74737e-14
444.736
1.14253e-13
444.773
7.98435e-14
444.81
1.79847e-14
444.847
1.20005e-14
444.884
6.71451e-15
444.921
1.78615e-14
444.958
3.54331e-14
444.995
6.02228e-14
445.031
7.47626e-15
445.068
5.43089e-14
445.105
4.81967e-14
445.141
3.0479e-14
445.178
4.67213e-14
445.214
7.11436e-15
445.239
4.46535e-14
445.269
3.173e-14
6.95612e-14
444.897
6.11711e-13
444.599
4.60713e-13
444.642
2.34385e-14
444.679
9.27996e-16
444.716
1.21291e-14
444.753
4.09679e-14
444.791
3.18791e-14
444.827
2.09769e-14
444.864
1.48951e-15
444.901
4.76411e-14
444.938
4.59221e-14
444.975
6.55401e-15
445.012
1.47499e-14
445.048
2.4333e-14
445.085
7.56485e-14
445.122
2.78559e-14
445.158
2.86282e-14
445.183
8.01606e-15
445.213
1.10961e-14
2.95488e-14
444.837
1.9779e-13
444.538
3.37558e-13
444.581
1.94236e-13
444.618
4.19813e-14
444.656
2.85714e-14
444.693
1.83128e-14
444.73
1.36539e-14
444.767
2.887e-14
444.804
2.01779e-14
444.841
6.47999e-14
444.878
4.3255e-14
444.915
4.5624e-15
444.952
5.45672e-15
444.989
1.78514e-15
445.025
4.29909e-14
445.062
2.82297e-14
445.099
4.24825e-14
445.124
3.67279e-14
445.154
4.39415e-14
1.0617e-15
444.772
3.59557e-14
444.472
4.06067e-13
444.515
1.17335e-13
444.553
5.44651e-14
444.59
2.54051e-14
444.627
4.8481e-14
444.665
7.46101e-14
444.702
1.03277e-13
444.739
8.42848e-14
444.776
5.13847e-14
444.813
3.41748e-14
444.85
7.8143e-15
444.887
2.0623e-14
444.924
1.39891e-14
444.961
3.06186e-14
444.997
9.6089e-14
445.034
5.23488e-14
445.059
2.52669e-14
445.089
4.95997e-15
3.6627e-14
444.702
4.74057e-14
444.402
3.47326e-13
444.445
1.77148e-13
444.482
2.90719e-14
444.52
2.31023e-14
444.557
1.06345e-14
444.595
3.88678e-14
444.632
1.03789e-14
444.669
3.04996e-15
444.706
1.14321e-14
444.743
3.74701e-14
444.781
4.16187e-14
444.817
3.21784e-14
444.854
9.12876e-14
444.891
1.07562e-13
444.928
1.38539e-14
444.965
5.32478e-14
444.99
2.41637e-17
445.02
3.72659e-14
1.6938e-14
444.631
1.46827e-12
444.33
1.30149e-12
444.373
3.87032e-13
444.411
8.61585e-14
444.448
6.88604e-14
444.486
8.96788e-14
444.523
2.47765e-14
444.56
4.2849e-14
444.598
5.78273e-14
444.635
2.46675e-14
444.672
3.3182e-14
444.709
5.02269e-14
444.747
2.84152e-14
444.784
5.41006e-16
444.821
6.60627e-15
444.858
5.11797e-14
444.895
3.79326e-14
444.92
2.90194e-14
444.95
2.19119e-14
1.77173e-14
444.565
5.61727e-13
444.263
1.69491e-13
444.306
7.50638e-14
444.344
5.39277e-14
444.382
9.84557e-15
444.419
1.32504e-14
444.457
1.67225e-14
444.494
3.92807e-14
444.532
5.39849e-14
444.569
3.33285e-14
444.606
8.54925e-14
444.643
7.74463e-14
444.681
2.38444e-14
444.718
4.33927e-15
444.755
7.24012e-15
444.792
6.30931e-14
444.829
2.56479e-14
444.854
9.20585e-14
444.884
3.64417e-14
1.61081e-14
444.519
4.9651e-13
444.222
1.29338e-12
444.264
4.09172e-13
444.3
4.21094e-15
444.337
8.80981e-14
444.373
5.14379e-14
444.41
4.30871e-14
444.447
4.46208e-14
444.483
2.99326e-14
444.52
4.44858e-15
444.557
2.18654e-14
444.593
3.83993e-15
444.63
2.98883e-14
444.667
4.05111e-14
444.704
4.70231e-15
444.74
9.76969e-15
444.777
3.80005e-14
444.803
8.21699e-14
444.833
5.04196e-14
5.43889e-15
444.822
444.822
444.822
444.822
444.822
444.822
444.822
444.822
444.822
444.822
444.822
444.822
444.822
444.822
444.822
444.822
444.822
444.822
444.822
)
;

boundaryField
{
    movingWall
    {
        type            calculated;
        value           uniform 0;
    }
    fixedWalls
    {
        type            calculated;
        value           nonuniform List<scalar> 
60
(
250
250
250
250
250
250
250
250
250
250
250
250
250
250
250
250
250
250
250
250
250
250
250
250
250
250
250
250
250
250
250
250
250
250
250
250
250
250
250
250
0
0
0
0
0
0
0
0
0
0
0
0
0
0
0
0
0
0
0
0
)
;
    }
    frontAndBack
    {
        type            empty;
    }
}


// ************************************************************************* //
