/*--------------------------------*- C++ -*----------------------------------*\
| =========                 |                                                 |
| \\      /  F ield         | OpenFOAM: The Open Source CFD Toolbox           |
|  \\    /   O peration     | Version:  2506                                  |
|   \\  /    A nd           | Website:  www.openfoam.com                      |
|    \\/     M anipulation  |                                                 |
\*---------------------------------------------------------------------------*/
FoamFile
{
    version     2.0;
    format      ascii;
    arch        "LSB;label=32;scalar=64";
    class       surfaceScalarField;
    location    "8";
    object      phi;
}
// * * * * * * * * * * * * * * * * * * * * * * * * * * * * * * * * * * * * * //

dimensions      [0 3 -1 0 0 0 0];

oriented        oriented;

internalField   nonuniform List<scalar> 
760
(
-5e-05
1.94005e-20
-5e-05
-1.56219e-19
-5e-05
6.67206e-20
-5e-05
-3.89555e-21
-5e-05
8.24668e-22
-5e-05
5.39515e-21
-5e-05
1.05392e-20
-5e-05
5.56674e-21
-5e-05
3.82291e-21
-5e-05
7.25672e-21
-5e-05
1.79448e-21
-5e-05
-1.7198e-21
-5e-05
-3.2294e-22
-5e-05
7.663e-21
-5e-05
3.87152e-21
-5e-05
6.47094e-23
-5e-05
3.25597e-22
-5e-05
2.80982e-21
-5e-05
-3.30539e-21
-2.8768e-21
-5e-05
-8.80952e-20
-5e-05
6.60486e-20
-5e-05
-4.1797e-20
-5e-05
9.38186e-21
-5e-05
8.1756e-21
-5e-05
6.51754e-21
-5e-05
3.54659e-21
-5e-05
3.66252e-21
-5e-05
-1.63756e-21
-5e-05
-1.02432e-20
-5e-05
-5.06418e-21
-5e-05
-7.57685e-22
-5e-05
-1.00563e-21
-5e-05
6.77468e-21
-5e-05
8.09387e-21
-5e-05
7.21186e-21
-5e-05
5.2936e-21
-5e-05
-5.00905e-21
-5e-05
-1.15857e-20
-5.96856e-21
-5e-05
-1.54864e-19
-5e-05
9.8146e-20
-5e-05
-1.73498e-20
-5e-05
6.9468e-21
-5e-05
8.19026e-21
-5e-05
3.78907e-21
-5e-05
4.56712e-21
-5e-05
7.4001e-21
-5e-05
5.87607e-21
-5e-05
6.72277e-21
-5e-05
4.15943e-21
-5e-05
-6.33415e-21
-5e-05
-5.64921e-21
-5e-05
-6.08609e-21
-5e-05
6.75071e-21
-5e-05
5.74411e-21
-5e-05
2.24166e-21
-5e-05
-5.31378e-21
-5e-05
-7.64338e-21
-5.42634e-21
-5e-05
-5.38126e-20
-5e-05
-5.0226e-20
-5e-05
1.71279e-20
-5e-05
-2.70984e-21
-5e-05
3.13552e-21
-5e-05
8.08209e-21
-5e-05
1.55536e-20
-5e-05
1.2699e-20
-5e-05
5.5745e-21
-5e-05
2.18406e-21
-5e-05
2.60604e-21
-5e-05
6.64813e-21
-5e-05
3.32114e-21
-5e-05
-5.42593e-21
-5e-05
-6.90502e-21
-5e-05
1.08588e-21
-5e-05
2.98833e-21
-5e-05
-1.88993e-21
-5e-05
-3.33876e-21
-2.47971e-21
-5e-05
-1.07479e-19
-5e-05
7.97e-20
-5e-05
-3.64827e-20
-5e-05
-5.46047e-21
-5e-05
-6.57011e-21
-5e-05
7.1092e-21
-5e-05
5.74832e-21
-5e-05
5.31685e-21
-5e-05
1.00941e-20
-5e-05
9.00718e-21
-5e-05
8.70507e-21
-5e-05
3.41508e-21
-5e-05
-3.10629e-21
-5e-05
-5.19928e-21
-5e-05
-5.60834e-21
-5e-05
-9.57063e-22
-5e-05
8.63174e-22
-5e-05
5.16092e-21
-5e-05
5.47409e-21
5.78981e-21
-5e-05
-7.69094e-21
-5e-05
-6.84452e-20
-5e-05
-2.77323e-21
-5e-05
-9.04804e-21
-5e-05
-2.01429e-21
-5e-05
3.62007e-21
-5e-05
9.40165e-21
-5e-05
9.62763e-21
-5e-05
7.88106e-21
-5e-05
7.77336e-21
-5e-05
6.973e-21
-5e-05
5.33313e-21
-5e-05
3.34487e-21
-5e-05
3.61344e-21
-5e-05
4.88755e-21
-5e-05
1.46951e-21
-5e-05
-1.16188e-21
-5e-05
4.44733e-21
-5e-05
4.61373e-21
-1.08029e-21
-5e-05
-2.46366e-20
-5e-05
-3.99879e-20
-5e-05
1.89012e-20
-5e-05
-3.04232e-21
-5e-05
3.94932e-21
-5e-05
6.59784e-21
-5e-05
4.55133e-21
-5e-05
2.48087e-21
-5e-05
5.69826e-22
-5e-05
-1.11585e-21
-5e-05
-1.96476e-21
-5e-05
-1.34754e-21
-5e-05
6.22723e-22
-5e-05
1.86067e-21
-5e-05
3.24632e-21
-5e-05
5.75036e-21
-5e-05
2.09171e-21
-5e-05
1.57243e-21
-5e-05
6.07871e-21
7.51637e-21
-5e-05
-2.78611e-20
-5e-05
6.48233e-20
-5e-05
-4.02375e-20
-5e-05
1.86587e-21
-5e-05
1.62707e-22
-5e-05
-5.18771e-21
-5e-05
-7.44376e-21
-5e-05
-2.37349e-21
-5e-05
1.14037e-21
-5e-05
7.28294e-22
-5e-05
-2.75915e-21
-5e-05
-3.92329e-21
-5e-05
1.46418e-21
-5e-05
3.4748e-21
-5e-05
-4.24762e-22
-5e-05
-3.79672e-21
-5e-05
-2.12473e-22
-5e-05
3.12392e-21
-5e-05
2.96777e-21
7.83439e-21
-5e-05
-6.39117e-20
-5e-05
4.13443e-20
-5e-05
-3.88518e-21
-5e-05
5.21351e-21
-5e-05
3.19838e-21
-5e-05
7.56308e-23
-5e-05
-4.96122e-21
-5e-05
-6.66565e-21
-5e-05
1.6126e-21
-5e-05
-1.77984e-21
-5e-05
-8.36685e-21
-5e-05
3.62027e-22
-5e-05
3.4517e-21
-5e-05
1.1145e-20
-5e-05
1.67571e-20
-5e-05
4.86357e-21
-5e-05
6.47852e-22
-5e-05
-2.13828e-21
-5e-05
6.98413e-22
-2.11479e-21
-5e-05
3.28884e-20
-5e-05
-9.00023e-20
-5e-05
2.36573e-20
-5e-05
-4.01105e-21
-5e-05
2.63075e-21
-5e-05
-1.80074e-21
-5e-05
2.95533e-23
-5e-05
1.04864e-20
-5e-05
-1.38168e-22
-5e-05
-9.6803e-22
-5e-05
3.39462e-22
-5e-05
-4.47853e-22
-5e-05
6.574e-21
-5e-05
4.36529e-21
-5e-05
-1.85426e-21
-5e-05
4.66207e-22
-5e-05
3.72369e-21
-5e-05
7.77269e-21
-5e-05
5.28748e-21
-1.49471e-21
-5e-05
-4.4896e-20
-5e-05
1.59223e-20
-5e-05
-6.05031e-22
-5e-05
5.60204e-21
-5e-05
5.3625e-21
-5e-05
9.00586e-22
-5e-05
4.9763e-21
-5e-05
-6.1887e-22
-5e-05
3.56639e-22
-5e-05
2.28968e-21
-5e-05
1.80493e-21
-5e-05
-2.76993e-21
-5e-05
2.04294e-21
-5e-05
1.54773e-21
-5e-05
1.85186e-21
-5e-05
-4.68282e-22
-5e-05
-8.44528e-22
-5e-05
-5.09654e-21
-5e-05
-2.0214e-21
7.18558e-21
-5e-05
-1.30081e-19
-5e-05
1.02441e-19
-5e-05
7.58715e-21
-5e-05
1.28466e-20
-5e-05
-8.97659e-21
-5e-05
-2.02185e-21
-5e-05
1.34895e-21
-5e-05
7.54725e-22
-5e-05
-2.00746e-21
-5e-05
3.98209e-21
-5e-05
6.76732e-21
-5e-05
8.40068e-22
-5e-05
-6.10176e-21
-5e-05
-5.41472e-21
-5e-05
-3.42384e-21
-5e-05
-5.24809e-21
-5e-05
7.99055e-22
-5e-05
5.015e-21
-5e-05
3.56339e-21
7.81132e-21
-5e-05
6.87013e-20
-5e-05
-5.18192e-20
-5e-05
2.63591e-21
-5e-05
-1.04357e-22
-5e-05
1.36382e-21
-5e-05
4.60626e-21
-5e-05
3.58395e-21
-5e-05
-2.35816e-21
-5e-05
1.67428e-22
-5e-05
-5.35477e-21
-5e-05
-5.161e-21
-5e-05
7.36536e-22
-5e-05
-1.65741e-21
-5e-05
-2.73408e-21
-5e-05
-8.49903e-21
-5e-05
-3.1294e-21
-5e-05
-3.21582e-21
-5e-05
9.00395e-22
-5e-05
-1.2463e-21
-3.31859e-21
-5e-05
2.22169e-20
-5e-05
-3.79727e-20
-5e-05
2.18471e-20
-5e-05
-4.72166e-21
-5e-05
3.21309e-21
-5e-05
2.0593e-21
-5e-05
-1.53524e-21
-5e-05
3.24593e-21
-5e-05
-2.26841e-21
-5e-05
-7.28442e-21
-5e-05
-4.86194e-21
-5e-05
5.12792e-22
-5e-05
-6.13244e-22
-5e-05
-2.00608e-22
-5e-05
-4.83066e-21
-5e-05
-3.17183e-21
-5e-05
-4.77275e-21
-5e-05
4.126e-21
-5e-05
4.93611e-21
1.19255e-22
-5e-05
-4.03935e-21
-5e-05
4.56864e-20
-5e-05
-1.31995e-20
-5e-05
6.12666e-21
-5e-05
-2.85744e-21
-5e-05
-5.4526e-21
-5e-05
-8.39038e-21
-5e-05
-1.16135e-20
-5e-05
-9.47678e-21
-5e-05
-5.77723e-21
-5e-05
3.8419e-21
-5e-05
8.78422e-22
-5e-05
2.31803e-21
-5e-05
1.57228e-21
-5e-05
-3.44096e-21
-5e-05
-1.0798e-20
-5e-05
-5.88207e-21
-5e-05
-2.83889e-21
-5e-05
5.57255e-22
4.11472e-21
-5e-05
5.32651e-21
-5e-05
3.90837e-20
-5e-05
-1.99313e-20
-5e-05
-3.27076e-21
-5e-05
2.59885e-21
-5e-05
-1.19625e-21
-5e-05
-4.37163e-21
-5e-05
-1.16729e-21
-5e-05
3.42985e-22
-5e-05
1.28553e-21
-5e-05
-4.21301e-21
-5e-05
-4.6792e-21
-5e-05
-3.61742e-21
-5e-05
-1.02618e-20
-5e-05
-1.20898e-20
-5e-05
-1.55707e-21
-5e-05
5.98402e-21
-5e-05
2.71537e-24
-5e-05
-4.18749e-21
-1.90314e-21
-5e-05
1.65e-19
-5e-05
-1.46477e-19
-5e-05
4.35527e-20
-5e-05
-9.69485e-21
-5e-05
-7.74753e-21
-5e-05
-1.00892e-20
-5e-05
-2.78715e-21
-5e-05
-4.81988e-21
-5e-05
-6.504e-21
-5e-05
-2.77426e-21
-5e-05
-3.73145e-21
-5e-05
-5.64789e-21
-5e-05
-3.19487e-21
-5e-05
6.08245e-23
-5e-05
7.42654e-22
-5e-05
-5.7531e-21
-5e-05
-4.26354e-21
-5e-05
-3.26152e-21
-5e-05
-2.46257e-21
1.991e-21
-5e-05
6.31335e-20
-5e-05
-1.90776e-20
-5e-05
-8.44795e-21
-5e-05
-6.06887e-21
-5e-05
1.10787e-21
-5e-05
1.49092e-21
-5e-05
1.88138e-21
-5e-05
-4.41906e-21
-5e-05
-6.07262e-21
-5e-05
-3.74881e-21
-5e-05
-9.61522e-21
-5e-05
-8.70977e-21
-5e-05
-2.6813e-21
-5e-05
-4.87921e-22
-5e-05
8.14016e-22
-5e-05
7.09321e-21
-5e-05
-2.88315e-21
-5e-05
-1.03479e-20
-5e-05
-4.09604e-21
-1.8104e-21
-5e-05
-5.58084e-20
-5e-05
1.45484e-19
-5e-05
-4.60223e-20
-5e-05
-4.7362e-22
-5e-05
-9.90817e-21
-5e-05
-5.78492e-21
-5e-05
-4.8455e-21
-5e-05
-5.01783e-21
-5e-05
-3.36589e-21
-5e-05
5.00223e-22
-5e-05
2.45854e-21
-5e-05
-4.31748e-22
-5e-05
-3.36036e-21
-5e-05
-4.55454e-21
-5e-05
5.28638e-22
-5e-05
-1.09829e-21
-5e-05
-4.2717e-21
-5e-05
-9.23658e-21
-5e-05
-5.66743e-21
6.11335e-22
-5e-05
-5e-05
-5e-05
-5e-05
-5e-05
-5e-05
-5e-05
-5e-05
-5e-05
-5e-05
-5e-05
-5e-05
-5e-05
-5e-05
-5e-05
-5e-05
-5e-05
-5e-05
-5e-05
)
;

boundaryField
{
    movingWall
    {
        type            calculated;
        value           uniform 0;
    }
    fixedWalls
    {
        type            calculated;
        value           nonuniform List<scalar> 
60
(
5e-05
5e-05
5e-05
5e-05
5e-05
5e-05
5e-05
5e-05
5e-05
5e-05
5e-05
5e-05
5e-05
5e-05
5e-05
5e-05
5e-05
5e-05
5e-05
5e-05
-5e-05
-5e-05
-5e-05
-5e-05
-5e-05
-5e-05
-5e-05
-5e-05
-5e-05
-5e-05
-5e-05
-5e-05
-5e-05
-5e-05
-5e-05
-5e-05
-5e-05
-5e-05
-5e-05
-5e-05
0
0
0
0
0
0
0
0
0
0
0
0
0
0
0
0
0
0
0
0
)
;
    }
    frontAndBack
    {
        type            empty;
    }
}


// ************************************************************************* //
