/*--------------------------------*- C++ -*----------------------------------*\
| =========                 |                                                 |
| \\      /  F ield         | OpenFOAM: The Open Source CFD Toolbox           |
|  \\    /   O peration     | Version:  2506                                  |
|   \\  /    A nd           | Website:  www.openfoam.com                      |
|    \\/     M anipulation  |                                                 |
\*---------------------------------------------------------------------------*/
FoamFile
{
    version     2.0;
    format      ascii;
    arch        "LSB;label=32;scalar=64";
    class       volScalarField;
    location    "8";
    object      QField;
}
// * * * * * * * * * * * * * * * * * * * * * * * * * * * * * * * * * * * * * //

dimensions      [0 0 -2 0 0 0 0];

internalField   nonuniform List<scalar> 
400
(
3.74945e-24
4.28956e-25
1.49864e-26
2.37746e-26
-1.46355e-27
-5.00676e-28
-1.37802e-27
0
-3.94912e-28
0
1.1102e-30
-1.67875e-28
0
-5.41618e-28
-3.46236e-28
0
0
-5.51453e-28
-9.58624e-28
0
5.88109e-24
8.2071e-25
2.42521e-27
1.01971e-26
6.45663e-28
1.95554e-28
-5.50456e-28
-4.7989e-28
-5.66409e-28
-1.29905e-27
-5.4319e-30
3.78831e-28
9.3694e-28
4.95685e-28
0
-1.10958e-27
-1.20628e-28
3.76684e-29
-9.12303e-28
0
2.36203e-24
-1.72784e-25
1.4207e-25
-5.22579e-27
6.64534e-27
5.24871e-28
-5.60435e-29
1.19306e-28
8.44643e-28
-5.98546e-28
-1.36854e-29
2.62237e-28
4.36297e-28
-5.21404e-28
-3.46842e-28
0
8.6772e-28
1.28643e-27
-1.23377e-28
0
-7.28564e-26
-4.68952e-25
1.55991e-26
-2.95994e-27
2.41689e-28
2.60851e-28
-8.57954e-28
-3.55976e-28
0
3.44413e-28
1.65321e-28
-7.47965e-28
5.24771e-28
0
-3.50824e-27
3.01865e-29
3.77445e-28
5.93045e-28
-6.99792e-28
0
-2.11371e-25
-1.5644e-25
-2.93133e-26
1.94805e-27
-1.40973e-27
1.41044e-27
-9.46152e-28
0
0
-6.62299e-28
-3.62039e-28
5.32991e-28
1.51996e-27
2.09755e-27
0
7.29594e-28
7.1829e-29
-6.05914e-28
-5.77989e-28
-3.15392e-28
-7.29192e-25
-3.10392e-25
-1.61113e-26
4.0213e-27
1.53628e-27
2.03953e-27
2.44653e-28
8.13812e-28
8.67641e-28
1.28248e-28
-4.24364e-28
0
-2.13904e-28
0
-2.64018e-27
0
-3.13546e-28
4.19275e-28
0
3.83847e-28
6.10264e-25
-2.39516e-25
5.64302e-26
-6.79833e-27
5.72383e-27
1.47483e-27
-1.79798e-27
-4.17036e-28
-1.11246e-27
-5.26735e-28
-1.79264e-27
-1.10408e-27
3.55583e-28
3.23202e-28
-4.42668e-28
0
7.06007e-29
6.61848e-28
1.13973e-28
-7.04745e-29
2.98809e-24
3.37539e-25
1.79998e-26
-8.84925e-28
9.06243e-28
-3.10732e-29
-2.39991e-27
-2.66696e-28
8.9215e-29
3.95543e-28
7.32206e-28
-2.42341e-28
-2.91461e-28
-2.6191e-29
0
-3.60099e-28
5.15582e-28
0
6.31494e-30
-7.02673e-28
1.39944e-24
-2.45974e-25
7.88882e-26
-1.54246e-26
5.19564e-27
1.81686e-27
2.38167e-28
-1.48214e-27
0
9.56176e-28
-8.1069e-29
0
0
-7.73447e-28
-1.15386e-27
9.82494e-28
0
-1.6403e-28
2.85829e-28
-1.15613e-27
-4.09911e-25
-5.01459e-25
4.41779e-26
-8.59857e-27
1.79729e-27
-9.86172e-28
-2.13786e-28
-1.50433e-27
-3.57854e-28
-6.84322e-28
-5.3256e-28
1.31818e-27
2.14327e-27
7.48674e-28
-3.01572e-27
0
4.0449e-28
4.52385e-29
3.03927e-28
-5.02372e-29
1.72569e-25
-3.00391e-26
3.67179e-27
7.90789e-28
-4.33535e-28
1.83509e-28
-2.51673e-28
-2.71026e-28
2.35079e-28
0
0
0
0
3.43214e-28
9.89324e-29
0
-1.19648e-28
-7.62559e-29
1.36608e-28
-4.44501e-28
6.16503e-25
1.01458e-25
-1.34709e-26
1.48573e-28
-1.92049e-27
2.00789e-28
0
-2.61866e-28
2.03049e-28
2.83587e-28
6.41992e-28
3.71274e-29
-8.55089e-28
-1.84951e-28
-4.37777e-28
0
3.82051e-28
-6.52571e-29
6.6133e-28
-5.30871e-28
1.53536e-24
1.60366e-25
8.67013e-27
2.05406e-27
-1.967e-28
-7.46675e-28
4.86504e-29
5.39264e-28
-3.04308e-29
-1.53838e-27
-1.79783e-27
6.5989e-28
7.4669e-28
8.91075e-29
-9.26662e-28
1.75866e-28
-6.95804e-28
0
-1.40986e-28
-6.94557e-28
3.59069e-24
8.24181e-25
3.98518e-26
3.66186e-27
-4.70438e-28
0
-2.40811e-28
1.59889e-27
3.29411e-27
9.56306e-28
-5.81405e-28
-5.1857e-28
6.30976e-28
2.79143e-28
-1.28935e-29
-6.28102e-29
-5.43799e-28
-3.53798e-28
-1.78938e-28
5.19113e-29
2.7281e-24
6.44431e-25
6.31595e-26
-1.26467e-27
8.61971e-28
-1.05508e-27
-1.02072e-27
-1.17879e-27
-1.79928e-30
1.23221e-27
8.85534e-28
2.9376e-28
-3.78512e-28
-1.26097e-27
-5.23054e-28
-2.06086e-28
0
4.52191e-28
-2.12684e-28
-4.04628e-28
-3.84563e-25
-3.63385e-25
2.44537e-26
-9.25356e-27
2.97679e-28
1.12144e-27
5.8346e-28
-1.28847e-27
-1.71607e-28
-2.78406e-28
-6.84777e-28
2.29337e-28
3.87417e-28
-5.23828e-28
2.31061e-29
-5.20691e-28
-4.15256e-28
-6.95066e-28
0
-5.82465e-29
-8.57153e-25
-2.27473e-25
-1.60639e-26
5.95552e-27
-1.07593e-27
-2.36351e-28
0
1.77574e-28
-3.74977e-29
4.82028e-28
6.17624e-28
-6.01494e-30
-1.75195e-28
-4.19663e-28
-7.11627e-28
4.96482e-28
0
0
-5.71962e-29
5.96018e-29
-6.93404e-25
-2.26537e-25
-3.65351e-26
9.87093e-27
3.62985e-29
-4.65073e-28
0
6.1428e-28
0
4.97822e-30
-1.32037e-28
3.53476e-28
1.31962e-27
3.66973e-28
-4.15387e-29
-3.00679e-28
4.86293e-28
-8.97354e-28
0
0
1.29217e-26
-2.71652e-25
7.87301e-26
-1.18119e-27
6.45315e-28
-8.14051e-29
1.80535e-28
3.85597e-28
-6.40537e-28
6.22429e-29
-1.85093e-28
-7.45349e-28
-7.71279e-28
-1.25487e-27
-3.11949e-28
5.06775e-28
1.66576e-27
7.3147e-29
1.34905e-29
2.59353e-28
7.67609e-25
3.39145e-26
-2.23532e-27
7.35357e-28
-6.0214e-28
-3.2298e-30
3.92898e-28
7.57799e-28
1.2708e-27
4.1837e-28
-4.29856e-28
-7.66484e-28
-6.52685e-28
4.10429e-29
1.2105e-28
-1.41194e-28
-3.90095e-28
-1.8311e-27
0
0
)
;

boundaryField
{
    movingWall
    {
        type            calculated;
        value           nonuniform List<scalar> 
20
(
1.3472e-25
1.1627e-25
-2.28499e-26
9.79746e-28
-1.60186e-27
2.32946e-28
1.60931e-27
2.27668e-27
3.47014e-27
1.71364e-27
-1.76069e-27
-3.13952e-27
-2.84782e-27
1.34489e-28
5.94984e-28
-1.19397e-27
-9.58697e-28
-2.53302e-27
0
0
)
;
    }
    fixedWalls
    {
        type            calculated;
        value           nonuniform List<scalar> 
60
(
1.50293e-23
2.54022e-23
1.08781e-23
-5.35815e-25
-3.56124e-24
-4.04054e-24
2.99181e-24
1.09579e-23
5.12518e-24
-2.19402e-24
6.98904e-25
1.95007e-24
7.17792e-24
1.68656e-23
1.26084e-23
-1.49106e-24
-3.96643e-24
-3.34301e-24
-1.37413e-24
2.19687e-24
0
0
0
0
0
4.68143e-28
-1.95201e-29
-1.40908e-27
-6.14523e-28
-2.7913e-28
-1.45654e-27
-1.49887e-27
5.38818e-28
8.50514e-29
-4.66063e-28
1.91462e-28
9.76516e-29
0
1.64447e-29
0
2.82033e-24
1.94999e-24
-6.58192e-25
9.49077e-26
-1.43873e-26
8.91989e-29
-3.08886e-27
5.25553e-29
-7.8624e-28
7.54177e-28
6.91731e-29
-1.24914e-28
-3.79177e-28
-8.16526e-28
-2.33002e-28
0
-5.09505e-28
-1.88014e-27
-1.37234e-27
0
)
;
    }
    frontAndBack
    {
        type            empty;
    }
}


// ************************************************************************* //
