/*--------------------------------*- C++ -*----------------------------------*\
| =========                 |                                                 |
| \\      /  F ield         | OpenFOAM: The Open Source CFD Toolbox           |
|  \\    /   O peration     | Version:  2506                                  |
|   \\  /    A nd           | Website:  www.openfoam.com                      |
|    \\/     M anipulation  |                                                 |
\*---------------------------------------------------------------------------*/
FoamFile
{
    version     2.0;
    format      ascii;
    arch        "LSB;label=32;scalar=64";
    class       surfaceVectorField;
    location    "8";
    object      surfaceU;
}
// * * * * * * * * * * * * * * * * * * * * * * * * * * * * * * * * * * * * * //

dimensions      [0 1 -1 0 0 0 0];

internalField   nonuniform List<vector> 
760
(
(-1 2.33184e-14 0)
(-1 2.96046e-14 0)
(-1 -4.27302e-15 0)
(-1 -5.65203e-15 0)
(-1 1.10459e-15 0)
(-1 1.38225e-15 0)
(-1 -1.72342e-16 0)
(-1 -1.84945e-16 0)
(-1 9.76351e-17 0)
(-1 1.18965e-16 0)
(-1 8.52354e-17 0)
(-1 1.04758e-16 0)
(-1 1.02255e-16 0)
(-1 1.1859e-16 0)
(-1 1.00776e-16 0)
(-1 9.40931e-17 0)
(-1 9.09745e-17 0)
(-1 7.28485e-17 0)
(-1 4.85181e-17 0)
(-1 3.205e-17 0)
(-1 1.66561e-17 0)
(-1 -2.04796e-19 0)
(-1 3.19833e-17 0)
(-1 -3.13052e-19 0)
(-1 7.46748e-17 0)
(-1 3.25929e-17 0)
(-1 6.02323e-17 0)
(-1 1.28796e-16 0)
(-1 -9.67523e-18 0)
(-1 6.38692e-17 0)
(-1 -1.30313e-17 0)
(-1 2.32951e-17 0)
(-1 4.43338e-17 0)
(-1 4.92671e-17 0)
(-1 2.86883e-17 0)
(-1 2.73943e-17 0)
(-1 -2.84104e-17 0)
(-1 -8.84175e-17 0)
(-1 -6.39312e-17 0)
(-1 6.3414e-16 0)
(-1 -1.965e-14 0)
(-1 3.23864e-18 0)
(-1 3.84955e-15 0)
(-1 9.27131e-17 0)
(-1 -8.88637e-16 0)
(-1 1.06363e-16 0)
(-1 2.81901e-16 0)
(-1 1.26088e-16 0)
(-1 8.90013e-17 0)
(-1 1.38113e-16 0)
(-1 9.73187e-17 0)
(-1 1.10428e-16 0)
(-1 8.16614e-17 0)
(-1 6.6166e-17 0)
(-1 7.48033e-17 0)
(-1 1.3924e-17 0)
(-1 1.04012e-17 0)
(-1 -1.66729e-17 0)
(-1 -2.74294e-17 0)
(-1 -1.71739e-17 0)
(-1 -2.33911e-17 0)
(-1 2.96569e-19 0)
(-1 -6.9652e-17 0)
(-1 8.6714e-17 0)
(-1 -4.84149e-17 0)
(-1 1.32433e-16 0)
(-1 9.7248e-17 0)
(-1 9.68395e-17 0)
(-1 1.53559e-16 0)
(-1 8.55935e-17 0)
(-1 1.25636e-16 0)
(-1 3.23276e-17 0)
(-1 7.1519e-17 0)
(-1 -8.97115e-17 0)
(-1 -8.76962e-17 0)
(-1 -1.23938e-16 0)
(-1 -1.89676e-16 0)
(-1 -9.35204e-17 0)
(-1 -1.64346e-14 0)
(-1 -7.31289e-15 0)
(-1 2.95767e-15 0)
(-1 1.16154e-15 0)
(-1 -6.99448e-16 0)
(-1 -2.81265e-16 0)
(-1 2.6454e-16 0)
(-1 1.2625e-16 0)
(-1 6.02319e-17 0)
(-1 1.36711e-16 0)
(-1 4.08676e-17 0)
(-1 1.07169e-16 0)
(-1 4.60366e-17 0)
(-1 1.65465e-16 0)
(-1 1.90384e-17 0)
(-1 1.60788e-16 0)
(-1 -3.09522e-17 0)
(-1 5.45547e-17 0)
(-1 -3.41476e-17 0)
(-1 1.15049e-17 0)
(-1 -7.58692e-17 0)
(-1 1.95928e-17 0)
(-1 -1.18363e-16 0)
(-1 -4.54649e-17 0)
(-1 -3.78809e-17 0)
(-1 -5.7963e-17 0)
(-1 1.18374e-16 0)
(-1 -3.89828e-17 0)
(-1 1.82355e-16 0)
(-1 1.033e-16 0)
(-1 1.11561e-16 0)
(-1 1.00989e-16 0)
(-1 -4.85048e-17 0)
(-1 2.69378e-17 0)
(-1 -1.87661e-16 0)
(-1 -1.28703e-16 0)
(-1 -1.59258e-16 0)
(-1 -1.66917e-16 0)
(-1 -8.63335e-17 0)
(-1 1.02832e-14 0)
(-1 7.22112e-15 0)
(-1 -2.07739e-15 0)
(-1 -1.48588e-15 0)
(-1 5.44433e-16 0)
(-1 3.10268e-16 0)
(-1 -1.57911e-18 0)
(-1 -1.01606e-16 0)
(-1 1.83648e-16 0)
(-1 6.63892e-17 0)
(-1 2.31767e-16 0)
(-1 1.52688e-16 0)
(-1 2.80217e-16 0)
(-1 2.44598e-16 0)
(-1 1.96304e-16 0)
(-1 2.26454e-16 0)
(-1 9.70118e-17 0)
(-1 1.59415e-16 0)
(-1 6.52453e-17 0)
(-1 8.92006e-17 0)
(-1 4.99971e-17 0)
(-1 8.53535e-17 0)
(-1 1.49356e-17 0)
(-1 7.61149e-17 0)
(-1 -5.90649e-17 0)
(-1 4.63615e-18 0)
(-1 -5.40567e-17 0)
(-1 -1.38077e-16 0)
(-1 2.19339e-17 0)
(-1 -8.70881e-17 0)
(-1 1.63655e-17 0)
(-1 2.5431e-17 0)
(-1 -5.32608e-17 0)
(-1 4.19299e-17 0)
(-1 -1.0796e-16 0)
(-1 -1.29892e-17 0)
(-1 -9.39923e-17 0)
(-1 -3.78279e-17 0)
(-1 -2.55613e-17 0)
(-1 -4.548e-15 0)
(-1 -1.18399e-14 0)
(-1 9.01786e-16 0)
(-1 2.28141e-15 0)
(-1 -3.3577e-16 0)
(-1 -7.712e-16 0)
(-1 -3.36376e-17 0)
(-1 -4.43866e-17 0)
(-1 3.5429e-17 0)
(-1 -9.81684e-17 0)
(-1 1.65519e-16 0)
(-1 1.19145e-16 0)
(-1 1.90835e-16 0)
(-1 1.5733e-16 0)
(-1 1.89565e-16 0)
(-1 1.67026e-16 0)
(-1 1.51604e-16 0)
(-1 1.93591e-16 0)
(-1 1.09309e-16 0)
(-1 1.69078e-16 0)
(-1 1.11471e-16 0)
(-1 1.543e-16 0)
(-1 6.58155e-17 0)
(-1 1.02447e-16 0)
(-1 -7.4376e-17 0)
(-1 -1.25113e-17 0)
(-1 -1.71108e-16 0)
(-1 -9.69741e-17 0)
(-1 -8.3591e-17 0)
(-1 -9.83418e-17 0)
(-1 5.09954e-17 0)
(-1 1.51921e-18 0)
(-1 8.22015e-17 0)
(-1 5.518e-17 0)
(-1 5.71424e-17 0)
(-1 9.87822e-17 0)
(-1 3.0603e-17 0)
(-1 6.87922e-17 0)
(-1 3.26182e-17 0)
(-1 -5.01049e-15 0)
(-1 6.04364e-15 0)
(-1 6.08425e-16 0)
(-1 -1.36391e-15 0)
(-1 -4.79817e-16 0)
(-1 2.43316e-17 0)
(-1 -1.08917e-16 0)
(-1 -1.94311e-16 0)
(-1 -1.44529e-17 0)
(-1 -2.27928e-17 0)
(-1 1.10956e-16 0)
(-1 1.42337e-16 0)
(-1 1.33521e-16 0)
(-1 1.70631e-16 0)
(-1 1.71052e-16 0)
(-1 1.383e-16 0)
(-1 2.11065e-16 0)
(-1 1.31232e-16 0)
(-1 2.14069e-16 0)
(-1 1.48425e-16 0)
(-1 1.45276e-16 0)
(-1 1.44813e-16 0)
(-1 2.412e-17 0)
(-1 7.84908e-17 0)
(-1 -3.51094e-17 0)
(-1 2.6947e-17 0)
(-1 -2.42075e-17 0)
(-1 5.20582e-17 0)
(-1 -1.32316e-17 0)
(-1 6.7659e-17 0)
(-1 5.70379e-18 0)
(-1 3.58149e-17 0)
(-1 7.17607e-17 0)
(-1 -6.768e-18 0)
(-1 1.10432e-16 0)
(-1 7.05847e-17 0)
(-1 7.08074e-17 0)
(-1 9.2948e-17 0)
(-1 5.94221e-17 0)
(-1 9.69023e-15 0)
(-1 9.03431e-15 0)
(-1 -1.948e-15 0)
(-1 -1.95641e-15 0)
(-1 3.09837e-16 0)
(-1 3.17552e-16 0)
(-1 -1.08186e-16 0)
(-1 -1.41827e-16 0)
(-1 1.33997e-16 0)
(-1 5.47358e-17 0)
(-1 2.02012e-16 0)
(-1 6.69222e-17 0)
(-1 1.75409e-16 0)
(-1 7.13025e-17 0)
(-1 9.84798e-17 0)
(-1 5.4904e-17 0)
(-1 6.85917e-17 0)
(-1 4.35696e-17 0)
(-1 7.91682e-17 0)
(-1 1.95301e-17 0)
(-1 7.80277e-17 0)
(-1 -1.88187e-17 0)
(-1 8.13179e-17 0)
(-1 -2.6633e-17 0)
(-1 1.14115e-16 0)
(-1 3.14364e-17 0)
(-1 1.43925e-16 0)
(-1 5.99289e-17 0)
(-1 1.16705e-16 0)
(-1 7.37809e-17 0)
(-1 2.33431e-17 0)
(-1 6.22988e-17 0)
(-1 -7.94398e-18 0)
(-1 1.14955e-17 0)
(-1 5.31007e-17 0)
(-1 5.47888e-17 0)
(-1 8.15627e-17 0)
(-1 1.13972e-16 0)
(-1 1.06704e-16 0)
(-1 -2.61232e-15 0)
(-1 -1.53476e-14 0)
(-1 3.09142e-16 0)
(-1 2.90843e-15 0)
(-1 -1.34113e-16 0)
(-1 -7.86548e-16 0)
(-1 2.10952e-17 0)
(-1 1.60557e-16 0)
(-1 -1.23393e-17 0)
(-1 1.04789e-17 0)
(-1 -6.3787e-17 0)
(-1 -6.45631e-17 0)
(-1 -4.9203e-17 0)
(-1 -1.28174e-16 0)
(-1 -6.25694e-21 0)
(-1 -6.46238e-17 0)
(-1 -5.49201e-18 0)
(-1 1.21586e-17 0)
(-1 -7.84567e-17 0)
(-1 -4.12689e-17 0)
(-1 -1.23479e-16 0)
(-1 -1.19601e-16 0)
(-1 -7.65145e-17 0)
(-1 -7.1337e-17 0)
(-1 -2.27494e-17 0)
(-1 1.2135e-17 0)
(-1 -1.0215e-17 0)
(-1 6.47603e-17 0)
(-1 1.93742e-17 0)
(-1 6.00359e-17 0)
(-1 5.04513e-17 0)
(-1 9.07963e-18 0)
(-1 7.42283e-17 0)
(-1 2.04247e-17 0)
(-1 1.1566e-16 0)
(-1 4.73948e-17 0)
(-1 1.39113e-16 0)
(-1 9.16844e-17 0)
(-1 9.72106e-17 0)
(-1 -9.82687e-15 0)
(-1 -1.62247e-16 0)
(-1 1.81274e-15 0)
(-1 -1.00165e-16 0)
(-1 -4.91879e-16 0)
(-1 -6.1969e-17 0)
(-1 1.4994e-16 0)
(-1 3.93069e-17 0)
(-1 -4.1745e-17 0)
(-1 5.11312e-17 0)
(-1 -1.2895e-16 0)
(-1 -5.08955e-17 0)
(-1 -1.43595e-16 0)
(-1 -1.07692e-16 0)
(-1 -5.24589e-17 0)
(-1 -3.49448e-17 0)
(-1 -2.36182e-17 0)
(-1 6.30904e-18 0)
(-1 -8.24127e-17 0)
(-1 -3.49397e-17 0)
(-1 -6.74581e-17 0)
(-1 -9.45638e-17 0)
(-1 1.73125e-17 0)
(-1 -7.17233e-18 0)
(-1 9.96446e-17 0)
(-1 1.06431e-16 0)
(-1 1.35011e-16 0)
(-1 2.07436e-16 0)
(-1 4.97413e-17 0)
(-1 1.87832e-16 0)
(-1 -2.09469e-17 0)
(-1 3.9906e-17 0)
(-1 -6.40878e-18 0)
(-1 1.59621e-17 0)
(-1 2.34189e-17 0)
(-1 1.71365e-17 0)
(-1 4.9782e-17 0)
(-1 2.50475e-17 0)
(-1 1.54673e-17 0)
(-1 9.56446e-15 0)
(-1 8.06692e-15 0)
(-1 -1.97488e-15 0)
(-1 -1.84048e-15 0)
(-1 4.69216e-16 0)
(-1 4.80357e-16 0)
(-1 -5.95022e-17 0)
(-1 -7.37118e-17 0)
(-1 4.19807e-17 0)
(-1 7.82235e-17 0)
(-1 -2.96376e-17 0)
(-1 -1.22155e-17 0)
(-1 9.57849e-19 0)
(-1 2.35309e-17 0)
(-1 2.38232e-17 0)
(-1 8.04207e-17 0)
(-1 -5.01246e-18 0)
(-1 1.65563e-17 0)
(-1 -4.70908e-17 0)
(-1 8.22066e-18 0)
(-1 -3.4278e-17 0)
(-1 -1.98181e-17 0)
(-1 8.19458e-17 0)
(-1 -1.81509e-18 0)
(-1 2.14222e-16 0)
(-1 1.07164e-16 0)
(-1 2.60257e-16 0)
(-1 1.20976e-16 0)
(-1 1.77997e-16 0)
(-1 8.98871e-17 0)
(-1 7.68151e-17 0)
(-1 3.26327e-17 0)
(-1 3.95074e-17 0)
(-1 3.56786e-17 0)
(-1 1.87652e-17 0)
(-1 3.37062e-17 0)
(-1 -9.26712e-18 0)
(-1 2.52343e-17 0)
(-1 1.44084e-17 0)
(-1 -3.33802e-15 0)
(-1 -3.97348e-15 0)
(-1 6.14755e-16 0)
(-1 1.17867e-15 0)
(-1 -6.2571e-17 0)
(-1 -4.98758e-17 0)
(-1 6.40139e-17 0)
(-1 1.60168e-16 0)
(-1 2.40273e-17 0)
(-1 2.37993e-17 0)
(-1 4.0953e-17 0)
(-1 2.25273e-17 0)
(-1 1.02994e-16 0)
(-1 7.7764e-17 0)
(-1 7.31538e-17 0)
(-1 5.5423e-17 0)
(-1 2.97894e-17 0)
(-1 -3.81636e-19 0)
(-1 3.54934e-17 0)
(-1 4.95144e-17 0)
(-1 1.26448e-17 0)
(-1 5.76348e-17 0)
(-1 2.34026e-17 0)
(-1 -1.28097e-17 0)
(-1 1.39176e-17 0)
(-1 1.42782e-17 0)
(-1 -4.93941e-17 0)
(-1 -2.19302e-17 0)
(-1 -5.54774e-17 0)
(-1 -3.74847e-17 0)
(-1 -8.50374e-18 0)
(-1 -4.69462e-17 0)
(-1 2.98774e-17 0)
(-1 1.36075e-17 0)
(-1 4.01753e-17 0)
(-1 2.66729e-17 0)
(-1 4.89098e-17 0)
(-1 5.04339e-17 0)
(-1 9.64043e-17 0)
(-1 5.4322e-16 0)
(-1 -2.42835e-16 0)
(-1 5.14043e-16 0)
(-1 3.77637e-16 0)
(-1 1.72864e-16 0)
(-1 1.94628e-16 0)
(-1 1.19954e-16 0)
(-1 1.32761e-16 0)
(-1 2.22993e-17 0)
(-1 -6.17386e-17 0)
(-1 5.93383e-17 0)
(-1 1.01681e-17 0)
(-1 3.01932e-17 0)
(-1 3.53744e-17 0)
(-1 -1.81125e-17 0)
(-1 -2.79514e-17 0)
(-1 1.93433e-17 0)
(-1 -7.2996e-18 0)
(-1 7.16558e-17 0)
(-1 4.33831e-17 0)
(-1 3.21803e-17 0)
(-1 5.51614e-17 0)
(-1 -2.19342e-17 0)
(-1 -1.62341e-17 0)
(-1 -2.15696e-17 0)
(-1 -6.47721e-17 0)
(-1 -1.00207e-17 0)
(-1 -5.60477e-17 0)
(-1 -2.89535e-17 0)
(-1 -6.14419e-17 0)
(-1 -2.4835e-17 0)
(-1 -6.11555e-17 0)
(-1 1.04029e-17 0)
(-1 -7.6757e-19 0)
(-1 3.69315e-17 0)
(-1 3.26918e-17 0)
(-1 9.79285e-17 0)
(-1 2.67956e-17 0)
(-1 9.39719e-17 0)
(-1 -4.08418e-16 0)
(-1 -5.7402e-15 0)
(-1 5.82215e-17 0)
(-1 9.35793e-16 0)
(-1 1.54526e-16 0)
(-1 -2.58804e-17 0)
(-1 -4.89309e-17 0)
(-1 7.48957e-17 0)
(-1 -7.38698e-17 0)
(-1 -3.11267e-17 0)
(-1 -1.37958e-17 0)
(-1 4.89997e-17 0)
(-1 -2.27703e-17 0)
(-1 5.78219e-17 0)
(-1 -1.71385e-17 0)
(-1 2.46028e-17 0)
(-1 1.67402e-17 0)
(-1 -2.14322e-17 0)
(-1 2.68887e-17 0)
(-1 -9.34327e-17 0)
(-1 6.74705e-18 0)
(-1 -5.53855e-17 0)
(-1 -5.9072e-17 0)
(-1 -6.32417e-18 0)
(-1 -9.92502e-17 0)
(-1 -7.3375e-17 0)
(-1 -1.07469e-16 0)
(-1 -7.59946e-17 0)
(-1 -9.36439e-17 0)
(-1 -1.33086e-16 0)
(-1 -3.70881e-17 0)
(-1 -7.73763e-17 0)
(-1 2.15213e-17 0)
(-1 -6.49442e-17 0)
(-1 2.25558e-17 0)
(-1 3.13897e-17 0)
(-1 2.2839e-17 0)
(-1 1.35463e-18 0)
(-1 1.84908e-17 0)
(-1 -4.39598e-15 0)
(-1 9.32487e-15 0)
(-1 8.51691e-16 0)
(-1 -1.99698e-15 0)
(-1 -1.0551e-16 0)
(-1 4.8719e-16 0)
(-1 9.26998e-17 0)
(-1 -6.46408e-17 0)
(-1 9.17428e-17 0)
(-1 5.75679e-17 0)
(-1 1.20617e-16 0)
(-1 1.3905e-17 0)
(-1 1.05195e-16 0)
(-1 -1.74448e-17 0)
(-1 2.03091e-17 0)
(-1 -1.56834e-17 0)
(-1 -1.31605e-16 0)
(-1 -8.43427e-17 0)
(-1 -1.75707e-16 0)
(-1 -1.4841e-16 0)
(-1 -6.84567e-17 0)
(-1 -4.78497e-17 0)
(-1 -2.06271e-17 0)
(-1 3.82336e-17 0)
(-1 -5.01195e-17 0)
(-1 1.35272e-17 0)
(-1 -1.01612e-16 0)
(-1 -5.79172e-18 0)
(-1 -1.16819e-16 0)
(-1 -1.15501e-16 0)
(-1 -1.05232e-16 0)
(-1 -1.17485e-16 0)
(-1 -5.50757e-17 0)
(-1 -1.01134e-16 0)
(-1 1.01885e-17 0)
(-1 3.83918e-17 0)
(-1 -2.99352e-18 0)
(-1 4.7545e-17 0)
(-1 8.91488e-18 0)
(-1 1.17239e-14 0)
(-1 -3.28019e-15 0)
(-1 -2.36148e-15 0)
(-1 7.5015e-16 0)
(-1 5.2806e-16 0)
(-1 -2.12022e-16 0)
(-1 -9.97726e-17 0)
(-1 5.20044e-17 0)
(-1 -2.02699e-17 0)
(-1 -1.56971e-18 0)
(-1 -1.24157e-16 0)
(-1 -8.34091e-17 0)
(-1 -1.38323e-16 0)
(-1 -1.77402e-16 0)
(-1 -1.20335e-16 0)
(-1 -1.5139e-16 0)
(-1 -1.01148e-16 0)
(-1 -1.03696e-16 0)
(-1 -2.05529e-17 0)
(-1 -5.33333e-17 0)
(-1 5.88406e-17 0)
(-1 2.69783e-17 0)
(-1 7.23878e-17 0)
(-1 1.06413e-17 0)
(-1 5.78549e-17 0)
(-1 1.9373e-17 0)
(-1 -1.9681e-17 0)
(-1 -2.77136e-17 0)
(-1 -1.16167e-16 0)
(-1 -1.29832e-16 0)
(-1 -1.13386e-16 0)
(-1 -1.37883e-16 0)
(-1 -7.66624e-18 0)
(-1 -3.75054e-17 0)
(-1 7.57483e-17 0)
(-1 1.614e-17 0)
(-1 5.94534e-17 0)
(-1 2.46066e-17 0)
(-1 2.41023e-17 0)
(-1 -1.42539e-14 0)
(-1 -1.04402e-14 0)
(-1 2.89961e-15 0)
(-1 2.1913e-15 0)
(-1 -6.88077e-16 0)
(-1 -5.19763e-16 0)
(-1 1.50207e-16 0)
(-1 3.67985e-17 0)
(-1 -6.4709e-17 0)
(-1 -5.64818e-17 0)
(-1 -1.36654e-16 0)
(-1 -7.44414e-17 0)
(-1 -1.90469e-16 0)
(-1 -9.00966e-17 0)
(-1 -1.34751e-16 0)
(-1 -8.82678e-17 0)
(-1 -5.58819e-17 0)
(-1 -7.20403e-17 0)
(-1 -5.80212e-18 0)
(-1 -2.76549e-17 0)
(-1 -2.1221e-17 0)
(-1 -5.16e-17 0)
(-1 -4.23736e-17 0)
(-1 -1.00039e-16 0)
(-1 -6.61955e-17 0)
(-1 -7.16431e-17 0)
(-1 -1.37864e-16 0)
(-1 -1.07702e-16 0)
(-1 -1.51548e-16 0)
(-1 -1.34542e-16 0)
(-1 -6.20026e-17 0)
(-1 -8.98581e-17 0)
(-1 -1.36992e-17 0)
(-1 7.95214e-19 0)
(-1 -3.50017e-17 0)
(-1 -4.79685e-17 0)
(-1 -1.07446e-17 0)
(-1 -5.78284e-17 0)
(-1 1.24638e-17 0)
(-1 6.00505e-15 0)
(-1 2.22486e-14 0)
(-1 -1.22807e-15 0)
(-1 -4.56272e-15 0)
(-1 2.05113e-16 0)
(-1 9.61873e-16 0)
(-1 -1.69891e-16 0)
(-1 -3.29402e-16 0)
(-1 -6.62142e-17 0)
(-1 -5.35223e-17 0)
(-1 -2.78835e-17 0)
(-1 -9.62409e-17 0)
(-1 1.21048e-17 0)
(-1 -2.89396e-18 0)
(-1 -2.55573e-17 0)
(-1 -5.55111e-17 0)
(-1 -4.38133e-17 0)
(-1 -9.72134e-17 0)
(-1 -7.34528e-17 0)
(-1 -5.60326e-17 0)
(-1 -1.30419e-16 0)
(-1 -1.25935e-16 0)
(-1 -1.29309e-16 0)
(-1 -1.24843e-16 0)
(-1 -1.1315e-16 0)
(-1 -5.96202e-17 0)
(-1 -1.0438e-16 0)
(-1 -4.78277e-17 0)
(-1 -7.28526e-17 0)
(-1 -3.47979e-17 0)
(-1 -2.70602e-17 0)
(-1 -2.01312e-17 0)
(-1 -3.34742e-17 0)
(-1 -2.2879e-17 0)
(-1 -7.07952e-17 0)
(-1 -8.86134e-17 0)
(-1 -3.462e-17 0)
(-1 -6.83792e-17 0)
(-1 1.46919e-18 0)
(-1 1.16808e-14 0)
(-1 -1.22878e-15 0)
(-1 -2.37278e-15 0)
(-1 1.83833e-16 0)
(-1 4.27358e-16 0)
(-1 -1.77389e-16 0)
(-1 -2.13033e-16 0)
(-1 -5.93608e-17 0)
(-1 -8.35491e-17 0)
(-1 -5.68703e-17 0)
(-1 -7.12514e-17 0)
(-1 -5.33455e-17 0)
(-1 -7.05098e-17 0)
(-1 -2.9556e-17 0)
(-1 -1.27167e-16 0)
(-1 -1.11294e-16 0)
(-1 -1.09433e-16 0)
(-1 -1.21778e-16 0)
(-1 -1.08514e-16 0)
(-1 -7.06965e-17 0)
(-1 -1.20359e-16 0)
(-1 -1.26601e-16 0)
(-1 -5.51547e-17 0)
(-1 -1.2052e-16 0)
(-1 5.70209e-18 0)
(-1 -4.50844e-17 0)
(-1 2.17547e-17 0)
(-1 -1.22384e-17 0)
(-1 1.79235e-17 0)
(-1 2.87721e-17 0)
(-1 -1.595e-17 0)
(-1 4.14749e-17 0)
(-1 -7.80182e-17 0)
(-1 -6.77316e-17 0)
(-1 -8.61974e-17 0)
(-1 -1.632e-16 0)
(-1 -3.229e-17 0)
(-1 -8.26574e-17 0)
(-1 -6.70341e-18 0)
(-1 -1.27258e-14 0)
(-1 -1.83654e-14 0)
(-1 2.37922e-15 0)
(-1 3.31577e-15 0)
(-1 -6.64108e-16 0)
(-1 -9.24762e-16 0)
(-1 9.68022e-17 0)
(-1 4.9585e-17 0)
(-1 -2.66668e-17 0)
(-1 -1.20819e-16 0)
(-1 -1.16502e-17 0)
(-1 -6.90119e-17 0)
(-1 -7.03404e-17 0)
(-1 -7.15948e-17 0)
(-1 -1.05905e-16 0)
(-1 -9.14637e-17 0)
(-1 -8.30422e-17 0)
(-1 -4.93466e-17 0)
(-1 -8.87831e-17 0)
(-1 9.54021e-18 0)
(-1 -1.26762e-16 0)
(-1 -1.64997e-17 0)
(-1 -1.1045e-16 0)
(-1 -6.80859e-17 0)
(-1 -6.30248e-17 0)
(-1 -7.08835e-17 0)
(-1 -5.22099e-18 0)
(-1 -7.01763e-17 0)
(-1 5.23235e-17 0)
(-1 -9.29412e-18 0)
(-1 -1.03067e-17 0)
(-1 9.69795e-18 0)
(-1 -1.52914e-16 0)
(-1 -8.97962e-17 0)
(-1 -1.5966e-16 0)
(-1 -1.68889e-16 0)
(-1 -5.70708e-17 0)
(-1 -8.01688e-17 0)
(-1 2.52529e-18 0)
(-1 -2.32387e-15 0)
(-1 1.17822e-17 0)
(-1 -2.11069e-16 0)
(-1 -1.68037e-16 0)
(-1 -1.63165e-16 0)
(-1 -1.28957e-16 0)
(-1 -9.27181e-17 0)
(-1 -3.49049e-17 0)
(-1 4.32358e-17 0)
(-1 8.18236e-17 0)
(-1 4.21764e-17 0)
(-1 -2.85193e-17 0)
(-1 -7.8035e-17 0)
(-1 -7.42494e-17 0)
(-1 -5.19197e-17 0)
(-1 -6.97915e-17 0)
(-1 -1.05771e-16 0)
(-1 -8.93974e-17 0)
(-1 -2.05727e-17 0)
)
;

boundaryField
{
    movingWall
    {
        type            calculated;
        value           uniform (-1 -0 -0);
    }
    fixedWalls
    {
        type            calculated;
        value           uniform (-1 -0 -0);
    }
    frontAndBack
    {
        type            empty;
    }
}


// ************************************************************************* //
