/*--------------------------------*- C++ -*----------------------------------*\
| =========                 |                                                 |
| \\      /  F ield         | OpenFOAM: The Open Source CFD Toolbox           |
|  \\    /   O peration     | Version:  2506                                  |
|   \\  /    A nd           | Website:  www.openfoam.com                      |
|    \\/     M anipulation  |                                                 |
\*---------------------------------------------------------------------------*/
FoamFile
{
    version     2.0;
    format      ascii;
    arch        "LSB;label=32;scalar=64";
    class       surfaceScalarField;
    location    "8";
    object      surfaceDivU;
}
// * * * * * * * * * * * * * * * * * * * * * * * * * * * * * * * * * * * * * //

dimensions      [0 0 -1 0 0 0 0];

internalField   nonuniform List<scalar> 
760
(
2.48412e-12
-1.97867e-12
-5.89608e-13
4.16063e-13
1.06178e-13
-5.90589e-14
-4.72555e-14
3.68007e-14
8.8198e-15
-1.98609e-14
-1.83228e-14
-6.89736e-15
-5.83676e-15
6.47259e-15
3.14163e-15
3.33711e-15
-3.06268e-15
-1.87801e-14
-1.0368e-14
4.11196e-14
-5.17849e-17
-1.59121e-14
1.67805e-14
6.55602e-15
2.58635e-15
-1.5822e-15
-7.83854e-15
-4.50067e-15
-4.8361e-15
8.19031e-15
7.25622e-15
-1.2212e-14
-1.94389e-14
-1.47391e-15
-6.10232e-15
-1.95827e-14
1.82633e-14
3.99533e-14
-1.35525e-14
-4.04672e-12
-3.7405e-12
9.46612e-13
6.77292e-13
-1.28436e-13
-1.44095e-13
6.41953e-14
8.14727e-14
-3.55781e-14
-3.16389e-14
1.7898e-14
-6.65627e-15
1.56465e-14
2.47127e-14
-1.85846e-14
-1.70984e-14
2.54022e-14
-2.06095e-14
3.55755e-14
-1.59245e-15
-9.30431e-15
-2.74849e-14
-1.18067e-14
2.91459e-14
-8.66922e-15
-1.06378e-14
1.15282e-14
1.9379e-14
8.14432e-16
1.21334e-14
-2.09421e-14
-1.79951e-14
-1.61772e-15
-1.72594e-14
2.64729e-14
1.90176e-14
8.13746e-15
4.9983e-15
-1.35525e-14
9.83516e-13
2.81893e-12
-4.13416e-13
-5.74534e-13
6.58136e-14
8.42154e-14
-1.43615e-14
-3.81932e-14
-2.71704e-15
2.031e-14
1.58378e-16
-1.11933e-15
-8.03224e-15
-1.32038e-14
-1.91233e-14
-1.54859e-14
-4.76042e-14
7.84447e-15
-6.46529e-14
-3.0587e-14
1.09653e-14
-1.66104e-14
3.03148e-14
1.66175e-14
1.74105e-14
-3.24377e-14
1.99843e-14
9.39907e-15
-6.67613e-15
1.51738e-14
-1.43124e-14
-1.44631e-14
3.37597e-15
-6.66576e-15
-2.45697e-15
2.64883e-14
-1.66917e-14
-2.04745e-14
1.35525e-14
1.26088e-12
-5.14996e-13
-7.69032e-14
1.33764e-13
-1.97913e-14
-3.25407e-14
-3.52167e-15
-1.04672e-15
2.19077e-14
3.74797e-14
-1.44815e-14
7.82172e-17
-2.06575e-14
-4.64787e-16
1.14819e-14
-1.48621e-14
2.48616e-14
2.17481e-14
1.74554e-14
-1.27722e-15
-1.09582e-14
-3.13965e-15
-4.6135e-14
4.30363e-15
-4.04491e-14
-2.78926e-14
4.58854e-15
-9.95259e-15
7.38682e-15
2.21146e-14
-6.81644e-15
-1.08575e-14
1.64466e-14
2.32635e-14
8.47081e-15
8.5793e-15
9.76973e-15
-1.04561e-14
2.52435e-29
-1.64211e-12
-1.35525e-13
1.78126e-13
-4.37751e-14
-1.3796e-14
3.37334e-14
3.99546e-14
3.23531e-15
1.56501e-14
2.85615e-14
1.4095e-14
-9.56875e-16
5.33058e-15
1.92436e-14
-4.59589e-15
-1.0125e-14
-4.3907e-15
5.3772e-15
-2.18723e-14
-2.24598e-14
1.21222e-14
2.80627e-15
2.25461e-14
1.80938e-14
2.60399e-15
-1.2109e-14
7.57346e-15
2.26135e-14
3.87026e-15
-1.66208e-14
1.92224e-14
3.73341e-15
1.53962e-14
4.54988e-14
-1.03476e-14
-1.01684e-14
-2.02258e-14
-1.0931e-14
-1.35525e-14
1.46281e-12
2.04643e-12
-1.88168e-13
-3.7269e-13
5.07647e-14
6.12934e-14
-8.15784e-15
-2.00612e-14
1.19544e-14
-1.03582e-14
4.19174e-15
-6.17911e-15
3.78803e-15
2.41933e-14
-1.51889e-16
-7.78465e-15
-1.26919e-14
1.74801e-14
2.21871e-15
-1.03095e-14
8.77783e-15
2.61519e-14
-1.65613e-14
5.18578e-15
7.90052e-15
-7.71419e-15
-1.58081e-15
2.47512e-14
-1.67577e-14
-1.29611e-14
3.00097e-14
9.81137e-15
1.99342e-14
1.40253e-14
-1.07518e-14
-1.45677e-14
-4.25773e-15
7.1395e-15
-1.35525e-14
2.10935e-13
-2.3988e-12
-1.23228e-13
5.55988e-13
-9.53258e-15
-1.28215e-13
-2.22616e-14
4.25306e-14
-2.84918e-14
-2.05836e-14
1.38225e-14
1.37884e-14
1.26206e-14
2.14179e-14
9.84736e-15
-1.45245e-14
1.98625e-14
1.91254e-14
1.36237e-14
-2.17388e-15
2.25599e-14
-2.89396e-16
1.40329e-14
1.73081e-14
9.13652e-15
4.35713e-15
1.3371e-14
-1.08362e-15
1.3608e-14
-1.70853e-16
-6.17309e-15
4.77954e-14
-2.04766e-14
-1.03605e-14
3.32358e-15
-3.33417e-15
-2.1553e-15
2.05657e-14
-2.71051e-14
-2.05374e-12
-9.75782e-13
5.51002e-13
2.13064e-13
-7.61516e-14
-3.06416e-14
4.42086e-14
-7.11871e-15
2.16966e-14
6.16101e-15
2.13839e-14
2.00666e-15
-5.72724e-15
3.51846e-15
-5.24652e-15
-9.95686e-15
-2.91103e-15
1.84677e-15
-1.60869e-14
-7.62086e-15
-5.54123e-15
-7.8639e-15
7.63232e-15
1.92541e-14
-5.863e-15
1.18566e-14
-1.46254e-14
1.14582e-16
3.40166e-14
-2.94233e-14
4.3608e-14
3.20036e-14
6.78195e-15
3.63868e-15
1.39079e-14
2.00057e-14
-4.38408e-15
-1.87933e-15
-3.78653e-29
1.29103e-12
2.37169e-12
-3.68579e-13
-3.56695e-13
3.83914e-14
9.60489e-14
-4.51663e-14
-5.76506e-14
-1.3529e-14
2.6488e-14
-1.58588e-14
-3.34162e-14
-7.11156e-16
5.13641e-15
-2.86357e-15
-3.611e-14
-2.86307e-15
2.93916e-14
6.02177e-16
-2.67191e-15
1.69314e-14
-1.14382e-14
2.34784e-14
3.97588e-14
1.78341e-14
-1.92982e-14
-1.46832e-14
-7.81635e-15
-3.14363e-14
2.7772e-14
-7.96571e-15
-6.29865e-15
1.68624e-14
5.16407e-15
4.21841e-15
-8.46825e-15
2.50475e-15
-8.52435e-15
1.35525e-14
7.23972e-13
-4.60786e-13
1.07933e-13
2.5908e-13
6.95927e-18
-5.18196e-14
1.40037e-14
8.64565e-15
6.6008e-15
1.02023e-14
-1.2421e-14
-1.25213e-14
-3.02624e-14
-1.69756e-14
-3.85482e-15
-1.35207e-14
2.95828e-14
2.87225e-14
-1.47123e-14
5.77351e-15
1.13892e-14
-9.77086e-15
-3.01768e-15
2.56426e-14
-4.49487e-14
-4.20659e-14
3.46389e-14
-3.0753e-14
5.29096e-14
3.23453e-14
6.83113e-15
-1.43135e-15
-2.01666e-14
1.84811e-14
-2.1211e-14
6.03791e-15
2.52343e-15
2.11193e-14
0
-9.25677e-13
-4.47233e-13
9.93273e-14
-2.37392e-13
-4.31809e-14
-2.61824e-14
4.84423e-15
2.18792e-15
-8.91986e-15
2.33111e-14
-1.70759e-14
3.26954e-15
-2.33831e-16
-2.93437e-14
1.90567e-14
1.62997e-14
4.91328e-15
-7.68123e-16
1.07149e-14
9.28976e-15
4.48251e-15
1.12796e-14
-1.34057e-14
-3.00094e-14
-2.78703e-14
8.50314e-15
-3.30465e-14
-7.79779e-15
-2.19956e-14
-9.89265e-15
1.02187e-14
-1.08102e-14
4.46856e-14
1.48365e-14
4.83683e-14
5.93646e-15
1.85959e-14
2.12755e-14
0
2.41052e-13
-5.96311e-13
-3.62902e-13
3.75289e-13
1.91864e-14
-1.05098e-13
2.06548e-14
3.43182e-14
3.55005e-14
4.26599e-15
-8.99828e-15
-2.11883e-14
-1.28102e-14
-4.2329e-15
-3.5251e-15
2.67702e-14
3.60835e-15
-2.99782e-14
9.85445e-15
2.21001e-14
-2.32123e-14
4.06352e-14
-8.10062e-15
-4.29134e-14
2.85756e-14
-1.38147e-14
1.53561e-14
3.48294e-16
1.29279e-15
2.12047e-14
-6.19231e-15
-4.09582e-14
-2.39126e-14
2.05339e-14
-2.11563e-14
-2.06969e-14
2.67956e-15
1.63675e-14
1.35525e-14
-4.62074e-13
6.09864e-13
6.33092e-13
1.37827e-13
-8.99662e-14
-2.16316e-14
1.79294e-14
1.02549e-15
-5.24228e-14
-3.80135e-14
-1.64229e-14
-2.08146e-14
3.53475e-14
1.75902e-14
3.17057e-16
1.44445e-14
-1.14865e-14
-3.76825e-14
5.28808e-14
1.64733e-14
2.09341e-14
3.03341e-14
-4.86275e-14
-1.03616e-14
-4.2042e-14
-5.98478e-15
6.19694e-15
5.37389e-15
-2.10463e-14
2.24626e-15
-1.4232e-14
-3.30386e-14
2.37496e-14
1.04973e-14
1.6827e-14
6.97815e-15
2.72405e-14
4.88996e-15
-1.32529e-28
1.20976e-12
5.96311e-13
-5.16897e-13
-4.63496e-13
6.936e-14
9.52795e-14
-5.49174e-14
-6.90263e-14
-6.40524e-15
-7.95271e-15
1.31985e-14
2.01546e-14
-3.31282e-15
7.62033e-15
-2.35551e-14
-3.15479e-15
-9.72275e-15
2.18537e-14
-6.07346e-15
-6.62181e-15
-9.61617e-16
-1.56397e-14
3.22811e-14
4.88748e-15
4.14311e-14
3.29002e-15
1.42321e-15
1.0202e-14
-9.74609e-15
-1.09808e-14
-8.30932e-15
2.86733e-14
-6.2742e-15
-3.11391e-16
-4.95885e-15
5.45318e-15
-2.23506e-14
7.21515e-15
-2.71051e-14
-1.07695e-12
-2.10064e-12
1.4868e-13
4.83881e-13
-4.31068e-14
-8.6731e-14
-2.20616e-14
8.88029e-15
1.86072e-14
-1.93577e-14
1.45764e-14
1.132e-14
7.77836e-15
3.5515e-16
4.2254e-14
-1.04132e-14
2.49546e-14
2.30839e-14
-1.6188e-14
-3.52039e-14
-9.79057e-15
1.10904e-14
-2.41036e-14
-8.93982e-15
-2.79391e-14
-3.23321e-14
-2.20199e-15
2.7116e-14
2.74386e-14
2.77727e-14
3.66712e-14
4.3309e-15
1.1416e-14
-1.72235e-14
1.76272e-14
2.39222e-14
2.46066e-15
1.02303e-14
-1.35525e-14
-5.39811e-13
2.37169e-12
2.48469e-13
-3.18457e-13
-3.47439e-14
5.77635e-14
1.15842e-14
-4.28128e-14
-2.66448e-14
1.61046e-14
-2.90127e-15
2.35893e-14
-1.78364e-14
1.7806e-14
-2.95833e-14
-8.25362e-16
-3.70746e-14
1.01797e-14
-7.92549e-15
-3.54738e-14
1.19411e-14
9.3516e-15
-1.71683e-14
-8.93576e-15
2.2723e-14
4.26194e-16
5.70907e-14
2.51046e-14
4.66503e-15
2.37236e-14
-4.95639e-14
-1.09989e-14
-4.71733e-15
-2.93134e-14
1.65254e-14
1.34469e-14
-5.78284e-15
9.31774e-16
-1.35525e-14
2.59305e-12
8.13152e-13
-5.09163e-13
-7.1971e-14
4.96946e-14
2.42383e-14
-3.82924e-14
-2.53237e-14
6.63388e-14
2.51326e-15
4.42966e-14
1.21464e-14
3.48171e-14
1.03075e-14
3.89377e-14
1.04245e-14
1.17805e-14
1.87584e-14
-1.81967e-14
-1.26729e-14
-1.15253e-14
1.85151e-15
8.65869e-15
2.56868e-15
2.80773e-15
3.08207e-15
-8.26256e-15
7.54592e-15
8.05961e-15
-6.02584e-16
9.25151e-15
-1.14182e-14
-1.11492e-14
-3.61661e-14
-2.14673e-15
1.54762e-14
-6.83792e-15
1.20014e-14
-1.35525e-14
-1.85187e-12
-3.98444e-12
4.6143e-13
6.61668e-13
-5.078e-14
-1.10215e-13
1.54819e-14
2.61275e-14
-5.16792e-14
-1.7769e-14
-2.18427e-14
-2.57883e-14
-1.4085e-14
1.699e-14
-9.75473e-15
-6.72326e-15
-5.69496e-15
-3.55997e-15
7.37531e-15
7.4369e-15
1.59454e-14
1.2795e-14
-3.00795e-15
-1.88606e-14
7.82026e-15
-1.15968e-14
1.52059e-14
3.24161e-14
-2.00804e-14
1.9478e-15
-5.68358e-14
-8.43524e-15
-9.54067e-15
-5.64104e-14
2.96243e-14
2.10012e-14
5.28679e-15
2.4375e-14
-1.35525e-14
-1.47091e-12
4.20128e-13
9.00229e-14
-2.78287e-13
-3.33076e-14
9.72592e-14
-7.12345e-15
-3.56991e-14
8.12191e-15
1.50231e-14
1.30444e-14
-6.90119e-15
2.43517e-14
3.34981e-14
-5.28501e-16
4.40616e-15
9.57189e-15
-4.93466e-15
1.28566e-14
1.45065e-14
-2.20111e-14
-1.64997e-15
-2.74495e-14
-6.80859e-15
1.29991e-14
-7.08835e-15
1.9158e-14
3.364e-14
1.35929e-14
-9.29412e-16
-8.00983e-15
9.69795e-16
-2.58685e-14
-8.97962e-15
1.57518e-14
-1.68889e-14
5.53564e-15
3.26407e-14
-1.35525e-14
1.61275e-12
-2.71051e-13
9.48677e-14
-1.35525e-14
0
1.35525e-14
1.35525e-14
0
0
0
1.35525e-14
1.35525e-14
1.35525e-14
1.35525e-14
-1.35525e-14
8.83524e-29
-7.57306e-29
2.1457e-28
1.35525e-14
)
;

boundaryField
{
    movingWall
    {
        type            calculated;
        value           nonuniform List<scalar> 
20
(
3.98444e-12
-7.58942e-13
2.1684e-13
-2.71051e-14
0
0
2.71051e-14
0
0
0
0
2.71051e-14
0
2.71051e-14
0
-2.71051e-14
2.71051e-14
-2.71051e-14
2.71051e-14
0
)
;
    }
    fixedWalls
    {
        type            calculated;
        value           nonuniform List<scalar> 
60
(
6.47811e-12
-1.04354e-11
2.95445e-12
2.6834e-12
-3.71339e-12
3.44234e-12
6.50521e-13
-5.44812e-12
3.49655e-12
1.24683e-12
-2.1684e-12
1.27394e-12
-2.46656e-12
3.68629e-12
-2.49366e-12
-1.70762e-12
6.451e-12
-4.8247e-12
-3.14419e-12
3.98444e-12
0
-2.71051e-14
0
2.71051e-14
-2.71051e-14
0
-2.71051e-14
-2.71051e-14
2.71051e-14
0
0
0
2.71051e-14
-2.71051e-14
-2.71051e-14
0
-2.71051e-14
0
-2.71051e-14
0
6.47811e-12
-1.50988e-12
3.3066e-13
-1.18304e-13
2.3793e-14
-6.15342e-15
-3.04922e-14
1.88186e-14
-1.25354e-14
6.41e-15
-2.7146e-14
2.70424e-14
6.51858e-15
-1.34587e-15
-1.43312e-14
4.65901e-15
9.85343e-15
-4.87313e-14
3.65266e-14
0
)
;
    }
    frontAndBack
    {
        type            empty;
    }
}


// ************************************************************************* //
