/*--------------------------------*- C++ -*----------------------------------*\
| =========                 |                                                 |
| \\      /  F ield         | OpenFOAM: The Open Source CFD Toolbox           |
|  \\    /   O peration     | Version:  2506                                  |
|   \\  /    A nd           | Website:  www.openfoam.com                      |
|    \\/     M anipulation  |                                                 |
\*---------------------------------------------------------------------------*/
FoamFile
{
    version     2.0;
    format      ascii;
    arch        "LSB;label=32;scalar=64";
    class       surfaceScalarField;
    location    "8";
    object      surfaceP;
}
// * * * * * * * * * * * * * * * * * * * * * * * * * * * * * * * * * * * * * //

dimensions      [0 2 -2 0 0 0 0];

internalField   nonuniform List<scalar> 
760
(
1.45577e-15
1.06151e-15
1.89331e-15
1.25434e-15
1.45913e-15
1.37102e-15
1.74317e-15
1.62492e-15
1.96545e-15
1.97359e-15
2.17655e-15
2.08608e-15
2.2993e-15
2.16679e-15
2.33714e-15
2.2929e-15
2.29127e-15
2.29468e-15
2.19568e-15
2.15498e-15
2.00959e-15
2.14393e-15
1.825e-15
1.9222e-15
1.87184e-15
1.84262e-15
2.06626e-15
1.93164e-15
2.22011e-15
2.14611e-15
2.31686e-15
2.30236e-15
2.42146e-15
2.36705e-15
2.3166e-15
2.40966e-15
2.2018e-15
2.20444e-15
2.29306e-15
8.60073e-16
1.548e-15
7.32042e-16
1.13024e-15
1.53681e-15
1.49223e-15
1.85535e-15
1.69129e-15
2.09422e-15
2.01249e-15
2.07631e-15
2.02066e-15
2.16039e-15
2.03433e-15
2.25044e-15
2.21472e-15
2.15839e-15
2.26693e-15
2.10323e-15
2.24044e-15
2.05654e-15
2.22872e-15
1.93981e-15
2.01136e-15
1.90242e-15
2.01293e-15
2.01148e-15
1.91496e-15
2.22835e-15
2.08643e-15
2.35255e-15
2.22419e-15
2.35526e-15
2.27178e-15
2.29751e-15
2.37547e-15
2.2957e-15
2.37375e-15
2.42731e-15
1.81817e-15
1.28222e-15
1.89043e-15
2.12608e-15
1.64671e-15
1.62085e-15
1.84843e-15
1.78429e-15
1.93893e-15
1.8536e-15
1.97868e-15
1.99155e-15
2.08867e-15
2.06662e-15
2.23121e-15
2.1698e-15
2.34899e-15
2.22345e-15
2.36593e-15
2.32753e-15
2.18355e-15
2.28923e-15
2.08448e-15
2.17508e-15
2.02548e-15
2.23097e-15
1.98991e-15
2.04974e-15
2.08227e-15
2.04427e-15
2.14342e-15
2.12967e-15
2.29199e-15
2.12165e-15
2.45172e-15
2.34082e-15
2.50536e-15
2.51676e-15
2.61512e-15
1.59013e-15
1.47805e-15
1.8565e-15
1.61792e-15
1.75843e-15
1.7747e-15
1.78947e-15
1.83263e-15
1.90622e-15
1.77475e-15
2.0795e-15
1.97743e-15
2.14776e-15
2.06276e-15
2.16204e-15
2.16379e-15
2.20199e-15
2.21234e-15
2.25082e-15
2.29228e-15
2.28076e-15
2.28953e-15
2.32157e-15
2.24206e-15
2.25523e-15
2.32761e-15
2.10409e-15
2.24185e-15
2.09168e-15
2.13474e-15
2.10791e-15
2.13899e-15
2.17048e-15
2.01901e-15
2.40586e-15
2.28217e-15
2.62652e-15
2.55238e-15
2.76508e-15
1.50583e-15
1.70573e-15
1.53612e-15
1.73587e-15
1.84889e-15
1.8527e-15
1.81791e-15
1.93956e-15
1.84595e-15
1.84189e-15
1.96069e-15
1.91116e-15
2.07879e-15
1.99359e-15
2.21408e-15
2.17507e-15
2.30262e-15
2.25965e-15
2.33099e-15
2.34427e-15
2.25083e-15
2.27347e-15
2.2481e-15
2.2293e-15
2.31423e-15
2.34812e-15
2.2725e-15
2.35611e-15
2.18206e-15
2.31036e-15
2.05009e-15
2.15349e-15
2.1307e-15
2.02142e-15
2.42869e-15
2.29417e-15
2.69095e-15
2.49967e-15
2.71908e-15
1.93576e-15
1.84226e-15
2.05246e-15
2.19421e-15
1.94337e-15
1.95283e-15
1.96354e-15
1.99947e-15
1.9071e-15
1.99924e-15
1.94406e-15
1.92298e-15
2.08986e-15
1.92767e-15
2.22063e-15
2.14675e-15
2.3013e-15
2.17238e-15
2.28675e-15
2.28052e-15
2.25193e-15
2.18639e-15
2.32932e-15
2.24194e-15
2.39e-15
2.39019e-15
2.39397e-15
2.38796e-15
2.2818e-15
2.39142e-15
2.12482e-15
2.23096e-15
2.18489e-15
2.15686e-15
2.36515e-15
2.23689e-15
2.5278e-15
2.38058e-15
2.62009e-15
2.10071e-15
2.26221e-15
2.09459e-15
1.44765e-15
2.00893e-15
2.02523e-15
2.03517e-15
1.9743e-15
2.01512e-15
2.01071e-15
1.90658e-15
1.86894e-15
1.98456e-15
1.83759e-15
2.0985e-15
2.06645e-15
2.1516e-15
2.08103e-15
2.18017e-15
2.17474e-15
2.17639e-15
2.1549e-15
2.30281e-15
2.14479e-15
2.38815e-15
2.34005e-15
2.38541e-15
2.39096e-15
2.34058e-15
2.41592e-15
2.263e-15
2.24979e-15
2.20887e-15
2.27788e-15
2.25232e-15
2.19248e-15
2.47287e-15
2.29315e-15
2.48822e-15
1.60916e-15
2.19851e-15
1.3783e-15
1.78682e-15
1.99061e-15
2.01027e-15
1.94985e-15
2.01301e-15
1.86453e-15
1.92442e-15
1.79994e-15
1.81706e-15
1.91948e-15
1.82738e-15
2.04897e-15
1.9867e-15
2.10417e-15
2.0208e-15
2.14948e-15
2.04999e-15
2.12329e-15
2.06943e-15
2.18203e-15
2.05215e-15
2.34285e-15
2.27909e-15
2.42146e-15
2.4077e-15
2.32513e-15
2.43837e-15
2.26468e-15
2.27507e-15
2.2615e-15
2.29462e-15
2.23331e-15
2.20351e-15
2.3085e-15
2.27938e-15
2.27899e-15
2.37618e-15
1.82782e-15
2.4188e-15
2.35009e-15
2.03268e-15
2.03535e-15
1.98758e-15
2.00678e-15
1.87695e-15
1.86e-15
1.8445e-15
1.7659e-15
1.89461e-15
1.85825e-15
1.95853e-15
2.01853e-15
1.96662e-15
1.879e-15
1.96994e-15
1.89957e-15
1.99829e-15
1.98678e-15
2.14922e-15
1.9662e-15
2.34395e-15
2.26634e-15
2.42461e-15
2.34675e-15
2.38831e-15
2.26941e-15
2.30501e-15
2.32251e-15
2.23663e-15
2.25784e-15
2.24959e-15
2.24422e-15
2.24987e-15
2.24838e-15
2.20563e-15
1.80173e-15
1.81799e-15
1.96665e-15
1.7641e-15
2.00946e-15
2.05976e-15
1.87919e-15
1.89001e-15
1.74895e-15
1.7716e-15
1.77965e-15
1.72537e-15
1.98218e-15
1.89279e-15
1.93901e-15
1.92306e-15
1.81195e-15
1.78381e-15
1.9164e-15
1.82604e-15
1.95469e-15
1.95741e-15
2.08333e-15
1.96638e-15
2.26915e-15
2.18314e-15
2.19155e-15
2.21753e-15
2.20361e-15
2.10537e-15
2.27534e-15
2.23752e-15
2.26543e-15
2.14851e-15
2.24301e-15
2.14414e-15
2.20414e-15
2.09344e-15
2.22576e-15
1.78036e-15
1.98565e-15
1.85721e-15
2.05764e-15
1.94032e-15
1.9778e-15
1.78242e-15
1.82014e-15
1.74802e-15
1.69096e-15
1.83851e-15
1.81694e-15
1.83367e-15
1.87582e-15
1.76786e-15
1.77254e-15
1.7979e-15
1.79374e-15
1.86705e-15
1.79169e-15
1.9691e-15
1.8813e-15
2.06618e-15
2.06701e-15
2.13152e-15
2.04231e-15
2.13135e-15
2.06751e-15
2.13928e-15
2.00112e-15
2.11069e-15
2.07118e-15
2.02721e-15
1.99618e-15
1.99457e-15
2.04022e-15
2.11506e-15
1.9787e-15
2.10575e-15
2.26293e-15
2.30467e-15
2.17823e-15
1.55539e-15
1.85762e-15
1.90377e-15
1.72868e-15
1.70284e-15
1.75988e-15
1.77674e-15
1.85424e-15
1.91963e-15
1.81469e-15
1.80872e-15
1.79842e-15
1.7298e-15
1.78753e-15
1.84821e-15
1.80594e-15
1.71186e-15
1.9792e-15
1.74037e-15
2.04313e-15
2.06863e-15
1.9783e-15
2.02177e-15
1.93728e-15
1.93464e-15
1.93302e-15
1.8232e-15
1.95667e-15
1.97499e-15
2.00919e-15
1.86228e-15
2.02436e-15
1.97552e-15
1.96939e-15
1.87063e-15
1.84033e-15
1.59713e-15
2.43342e-15
1.28093e-15
1.90525e-15
1.749e-15
1.84038e-15
1.75091e-15
1.65943e-15
1.9365e-15
1.88265e-15
1.8741e-15
1.89532e-15
1.72383e-15
1.74531e-15
1.7796e-15
1.7092e-15
1.77254e-15
1.80645e-15
1.64629e-15
1.6836e-15
1.8298e-15
1.68696e-15
2.04727e-15
1.98009e-15
1.97812e-15
2.07364e-15
1.82057e-15
1.90116e-15
1.86518e-15
1.77239e-15
1.8806e-15
1.86954e-15
1.82861e-15
1.73465e-15
1.82179e-15
1.72005e-15
1.74157e-15
1.68709e-15
1.68085e-15
2.74154e-15
2.47968e-15
2.4647e-15
2.48198e-15
1.7508e-15
1.85576e-15
1.79116e-15
1.82707e-15
1.84147e-15
1.8581e-15
1.76653e-15
1.7356e-15
1.73068e-15
1.65748e-15
1.73605e-15
1.70052e-15
1.7175e-15
1.70291e-15
1.72426e-15
1.77421e-15
1.83725e-15
1.80985e-15
2.00645e-15
1.94788e-15
1.99668e-15
2.08165e-15
1.85298e-15
1.84927e-15
1.77675e-15
1.7287e-15
1.72359e-15
1.67054e-15
1.62609e-15
1.67726e-15
1.58535e-15
1.41255e-15
1.62637e-15
1.41072e-15
1.65138e-15
2.22012e-15
2.5927e-15
1.87305e-15
1.78404e-15
1.93203e-15
1.98955e-15
1.89401e-15
1.93551e-15
1.75223e-15
1.91114e-15
1.62655e-15
1.66236e-15
1.62732e-15
1.61516e-15
1.66738e-15
1.67766e-15
1.75962e-15
1.73281e-15
1.85979e-15
1.90663e-15
1.92047e-15
1.85035e-15
2.02307e-15
1.96326e-15
1.93424e-15
2.0152e-15
1.725e-15
1.70233e-15
1.62249e-15
1.61246e-15
1.62421e-15
1.63889e-15
1.46372e-15
1.65771e-15
1.23791e-15
1.25062e-15
1.43573e-15
1.16915e-15
1.59018e-15
2.15663e-15
2.56008e-15
1.90055e-15
2.59985e-15
1.99303e-15
1.99821e-15
1.95265e-15
2.01591e-15
1.82127e-15
1.85354e-15
1.65097e-15
1.66626e-15
1.66551e-15
1.66456e-15
1.74309e-15
1.70456e-15
1.87982e-15
1.78732e-15
1.89719e-15
1.93695e-15
1.89314e-15
1.81472e-15
1.95539e-15
1.90566e-15
1.78329e-15
1.86766e-15
1.58979e-15
1.6814e-15
1.62885e-15
1.67768e-15
1.67238e-15
1.64733e-15
1.44461e-15
1.47858e-15
1.18186e-15
1.16526e-15
1.32361e-15
1.10953e-15
1.54143e-15
3.0033e-15
2.70305e-15
2.69751e-15
2.44106e-15
2.02109e-15
2.10442e-15
1.9168e-15
2.03472e-15
1.69853e-15
1.80326e-15
1.67984e-15
1.79654e-15
1.70361e-15
1.74737e-15
1.74879e-15
1.76281e-15
1.84445e-15
1.78703e-15
1.85448e-15
1.83056e-15
1.82724e-15
1.77279e-15
1.81793e-15
1.81336e-15
1.76578e-15
1.74546e-15
1.76928e-15
1.70957e-15
1.69616e-15
1.8294e-15
1.45354e-15
1.72383e-15
1.19924e-15
1.31328e-15
1.09294e-15
1.00225e-15
1.32736e-15
1.07161e-15
1.51602e-15
2.1408e-15
2.70046e-15
1.84797e-15
1.75468e-15
2.11805e-15
2.33114e-15
1.92118e-15
2.04e-15
1.90128e-15
1.89498e-15
1.86407e-15
1.93714e-15
1.80657e-15
1.76136e-15
1.80105e-15
1.81228e-15
1.77314e-15
1.85921e-15
1.74887e-15
1.78871e-15
1.75892e-15
1.74722e-15
1.74089e-15
1.80864e-15
1.68925e-15
1.68168e-15
1.76969e-15
1.64185e-15
1.85708e-15
1.84138e-15
1.58358e-15
1.67147e-15
1.1163e-15
1.29735e-15
9.80927e-16
1.03583e-15
1.26027e-15
1.0951e-15
1.52645e-15
2.31433e-15
2.0384e-15
2.23785e-15
2.66454e-15
2.25309e-15
2.39301e-15
2.0138e-15
2.21205e-15
1.93084e-15
2.05743e-15
1.83442e-15
2.00228e-15
1.76706e-15
1.75983e-15
1.87044e-15
1.82705e-15
1.87478e-15
1.94438e-15
1.78705e-15
1.80688e-15
1.79694e-15
1.69759e-15
1.74943e-15
1.72429e-15
1.63428e-15
1.65805e-15
1.71354e-15
1.63679e-15
1.65577e-15
1.79126e-15
1.38524e-15
1.4977e-15
1.21688e-15
1.28058e-15
1.15e-15
1.23326e-15
1.36128e-15
1.19772e-15
1.55964e-15
2.3886e-15
2.81969e-15
2.35197e-15
2.25568e-15
2.12888e-15
1.92769e-15
1.81983e-15
1.901e-15
1.87648e-15
1.71742e-15
1.62495e-15
1.63291e-15
1.66057e-15
1.71452e-15
1.6332e-15
1.39304e-15
1.29695e-15
1.28097e-15
1.39608e-15
)
;

boundaryField
{
    movingWall
    {
        type            calculated;
        value           nonuniform List<scalar> 
20
(
1.52313e-15
3.25408e-15
2.3853e-15
2.31864e-15
2.19273e-15
2.06503e-15
1.79036e-15
1.84929e-15
1.9527e-15
1.80026e-15
1.63458e-15
1.61532e-15
1.65051e-15
1.67062e-15
1.75842e-15
1.50798e-15
1.27811e-15
1.3158e-15
1.24614e-15
1.54601e-15
)
;
    }
    fixedWalls
    {
        type            calculated;
        value           nonuniform List<scalar> 
60
(
4.02871e-16
1.72015e-15
1.37586e-15
1.18858e-15
1.76751e-15
1.64394e-15
2.04059e-15
2.48384e-15
1.91319e-15
1.74245e-15
1.89353e-15
2.07776e-15
2.53158e-15
2.33526e-15
2.6241e-15
2.56131e-15
2.55886e-15
2.84724e-15
2.55368e-15
1.52313e-15
2.24743e-15
2.33869e-15
2.51593e-15
2.71431e-15
2.81585e-15
2.62231e-15
2.61787e-15
2.35856e-15
2.19942e-15
2.21184e-15
2.23967e-15
1.97182e-15
1.70884e-15
1.65286e-15
1.6499e-15
1.53046e-15
1.55241e-15
1.47963e-15
1.57326e-15
1.54601e-15
4.02871e-16
2.50867e-15
1.27795e-15
1.64031e-15
1.84602e-15
2.08489e-15
2.26822e-15
2.33038e-15
2.34389e-15
2.23865e-15
2.15272e-15
1.86646e-15
1.78354e-15
1.96014e-15
2.17239e-15
2.26784e-15
2.36589e-15
2.47703e-15
2.15617e-15
2.24743e-15
)
;
    }
    frontAndBack
    {
        type            empty;
    }
}


// ************************************************************************* //
