/*--------------------------------*- C++ -*----------------------------------*\
| =========                 |                                                 |
| \\      /  F ield         | OpenFOAM: The Open Source CFD Toolbox           |
|  \\    /   O peration     | Version:  2506                                  |
|   \\  /    A nd           | Website:  www.openfoam.com                      |
|    \\/     M anipulation  |                                                 |
\*---------------------------------------------------------------------------*/
FoamFile
{
    version     2.0;
    format      ascii;
    arch        "LSB;label=32;scalar=64";
    class       surfaceScalarField;
    location    "8";
    object      surfaceK;
}
// * * * * * * * * * * * * * * * * * * * * * * * * * * * * * * * * * * * * * //

dimensions      [0 2 -2 0 0 0 0];

internalField   nonuniform List<scalar> 
760
(
4.10937e-06
4.15286e-06
4.10937e-06
4.15286e-06
4.10937e-06
4.1528e-06
4.10937e-06
4.15277e-06
4.10937e-06
4.15273e-06
4.10936e-06
4.1527e-06
4.10936e-06
4.15266e-06
4.10936e-06
4.15264e-06
4.10936e-06
4.15261e-06
4.10936e-06
4.15259e-06
4.10936e-06
4.15256e-06
4.10936e-06
4.15255e-06
4.10936e-06
4.15253e-06
4.10936e-06
4.15252e-06
4.10936e-06
4.1525e-06
4.10936e-06
4.15249e-06
4.10936e-06
4.15248e-06
4.10936e-06
4.15248e-06
4.10936e-06
4.15248e-06
4.15248e-06
4.19635e-06
4.2641e-06
4.19629e-06
4.26409e-06
4.1962e-06
4.26396e-06
4.19613e-06
4.2639e-06
4.19606e-06
4.26381e-06
4.196e-06
4.26376e-06
4.19594e-06
4.26368e-06
4.19588e-06
4.26363e-06
4.19583e-06
4.26357e-06
4.19579e-06
4.26353e-06
4.19575e-06
4.26348e-06
4.19571e-06
4.26345e-06
4.19568e-06
4.2634e-06
4.19566e-06
4.26338e-06
4.19564e-06
4.26335e-06
4.19562e-06
4.26334e-06
4.19561e-06
4.26332e-06
4.1956e-06
4.26331e-06
4.19559e-06
4.2633e-06
4.2633e-06
4.33184e-06
4.40159e-06
4.33176e-06
4.40159e-06
4.33167e-06
4.40145e-06
4.33158e-06
4.40139e-06
4.33151e-06
4.40128e-06
4.33144e-06
4.40123e-06
4.33138e-06
4.40114e-06
4.33132e-06
4.4011e-06
4.33127e-06
4.40102e-06
4.33122e-06
4.40099e-06
4.33118e-06
4.40092e-06
4.33114e-06
4.40091e-06
4.33111e-06
4.40084e-06
4.33108e-06
4.40084e-06
4.33105e-06
4.40078e-06
4.33104e-06
4.40078e-06
4.33102e-06
4.40075e-06
4.33101e-06
4.40075e-06
4.33101e-06
4.40074e-06
4.40074e-06
4.47135e-06
4.5288e-06
4.47127e-06
4.5288e-06
4.47117e-06
4.52865e-06
4.47108e-06
4.52858e-06
4.471e-06
4.52848e-06
4.47093e-06
4.52841e-06
4.47086e-06
4.52833e-06
4.4708e-06
4.52827e-06
4.47074e-06
4.5282e-06
4.47069e-06
4.52815e-06
4.47064e-06
4.5281e-06
4.4706e-06
4.52806e-06
4.47057e-06
4.52801e-06
4.47054e-06
4.528e-06
4.47051e-06
4.52795e-06
4.47049e-06
4.52794e-06
4.47048e-06
4.52791e-06
4.47047e-06
4.52791e-06
4.47047e-06
4.5279e-06
4.5279e-06
4.58626e-06
4.62735e-06
4.58618e-06
4.62734e-06
4.58606e-06
4.62718e-06
4.58598e-06
4.62711e-06
4.58589e-06
4.62701e-06
4.58581e-06
4.62693e-06
4.58574e-06
4.62686e-06
4.58568e-06
4.62678e-06
4.58562e-06
4.62673e-06
4.58556e-06
4.62666e-06
4.58551e-06
4.62662e-06
4.58547e-06
4.62656e-06
4.58544e-06
4.62653e-06
4.58541e-06
4.62649e-06
4.58538e-06
4.62646e-06
4.58536e-06
4.62644e-06
4.58534e-06
4.62642e-06
4.58533e-06
4.62641e-06
4.58533e-06
4.6264e-06
4.6264e-06
4.66843e-06
4.69536e-06
4.66835e-06
4.69536e-06
4.66823e-06
4.6952e-06
4.66814e-06
4.69512e-06
4.66805e-06
4.69501e-06
4.66798e-06
4.69494e-06
4.6679e-06
4.69485e-06
4.66783e-06
4.69479e-06
4.66777e-06
4.69472e-06
4.66771e-06
4.69466e-06
4.66766e-06
4.69461e-06
4.66762e-06
4.69456e-06
4.66758e-06
4.69452e-06
4.66755e-06
4.69448e-06
4.66752e-06
4.69445e-06
4.6675e-06
4.69443e-06
4.66748e-06
4.69441e-06
4.66747e-06
4.69439e-06
4.66747e-06
4.69439e-06
4.69438e-06
4.72228e-06
4.73927e-06
4.7222e-06
4.73927e-06
4.72208e-06
4.73911e-06
4.72199e-06
4.73903e-06
4.7219e-06
4.73892e-06
4.72182e-06
4.73885e-06
4.72174e-06
4.73876e-06
4.72167e-06
4.7387e-06
4.72161e-06
4.73862e-06
4.72155e-06
4.73857e-06
4.7215e-06
4.73851e-06
4.72146e-06
4.73846e-06
4.72142e-06
4.73841e-06
4.72138e-06
4.73838e-06
4.72135e-06
4.73835e-06
4.72133e-06
4.73832e-06
4.72132e-06
4.7383e-06
4.72131e-06
4.73829e-06
4.7213e-06
4.73828e-06
4.73828e-06
4.75626e-06
4.76718e-06
4.75618e-06
4.76717e-06
4.75606e-06
4.76701e-06
4.75596e-06
4.76693e-06
4.75587e-06
4.76682e-06
4.75579e-06
4.76674e-06
4.75571e-06
4.76666e-06
4.75564e-06
4.76659e-06
4.75558e-06
4.76652e-06
4.75552e-06
4.76645e-06
4.75547e-06
4.7664e-06
4.75542e-06
4.76635e-06
4.75538e-06
4.76631e-06
4.75535e-06
4.76627e-06
4.75532e-06
4.76624e-06
4.7553e-06
4.76622e-06
4.75528e-06
4.7662e-06
4.75527e-06
4.76618e-06
4.75526e-06
4.76618e-06
4.76617e-06
4.77809e-06
4.7857e-06
4.77801e-06
4.7857e-06
4.77788e-06
4.78554e-06
4.77779e-06
4.78545e-06
4.7777e-06
4.78534e-06
4.77761e-06
4.78526e-06
4.77753e-06
4.78518e-06
4.77747e-06
4.7851e-06
4.7774e-06
4.78504e-06
4.77734e-06
4.78497e-06
4.77729e-06
4.78492e-06
4.77724e-06
4.78487e-06
4.7772e-06
4.78482e-06
4.77717e-06
4.78479e-06
4.77714e-06
4.78475e-06
4.77712e-06
4.78473e-06
4.7771e-06
4.78471e-06
4.77709e-06
4.7847e-06
4.77708e-06
4.78469e-06
4.78469e-06
4.79331e-06
4.79935e-06
4.79322e-06
4.79934e-06
4.7931e-06
4.79918e-06
4.793e-06
4.7991e-06
4.79291e-06
4.79898e-06
4.79283e-06
4.79891e-06
4.79275e-06
4.79881e-06
4.79268e-06
4.79875e-06
4.79261e-06
4.79867e-06
4.79255e-06
4.79862e-06
4.7925e-06
4.79855e-06
4.79245e-06
4.79852e-06
4.79241e-06
4.79845e-06
4.79237e-06
4.79844e-06
4.79235e-06
4.79839e-06
4.79232e-06
4.79837e-06
4.79231e-06
4.79834e-06
4.7923e-06
4.79834e-06
4.79229e-06
4.79833e-06
4.79832e-06
4.80538e-06
4.81087e-06
4.8053e-06
4.81087e-06
4.80517e-06
4.8107e-06
4.80507e-06
4.81062e-06
4.80498e-06
4.8105e-06
4.8049e-06
4.81044e-06
4.80482e-06
4.81033e-06
4.80475e-06
4.81028e-06
4.80468e-06
4.81019e-06
4.80462e-06
4.81015e-06
4.80457e-06
4.81007e-06
4.80452e-06
4.81004e-06
4.80448e-06
4.80997e-06
4.80445e-06
4.80996e-06
4.80441e-06
4.80991e-06
4.80439e-06
4.8099e-06
4.80437e-06
4.80987e-06
4.80437e-06
4.80986e-06
4.80436e-06
4.80985e-06
4.80985e-06
4.81636e-06
4.82189e-06
4.81627e-06
4.82188e-06
4.81615e-06
4.82172e-06
4.81605e-06
4.82163e-06
4.81596e-06
4.82152e-06
4.81587e-06
4.82144e-06
4.81579e-06
4.82135e-06
4.81572e-06
4.82128e-06
4.81566e-06
4.82121e-06
4.8156e-06
4.82115e-06
4.81554e-06
4.82109e-06
4.8155e-06
4.82104e-06
4.81545e-06
4.821e-06
4.81542e-06
4.82096e-06
4.81539e-06
4.82093e-06
4.81537e-06
4.8209e-06
4.81535e-06
4.82088e-06
4.81534e-06
4.82087e-06
4.81533e-06
4.82086e-06
4.82086e-06
4.82741e-06
4.83331e-06
4.82733e-06
4.8333e-06
4.8272e-06
4.83314e-06
4.8271e-06
4.83305e-06
4.82701e-06
4.83294e-06
4.82692e-06
4.83286e-06
4.82684e-06
4.83277e-06
4.82677e-06
4.8327e-06
4.82671e-06
4.83263e-06
4.82665e-06
4.83256e-06
4.82659e-06
4.83251e-06
4.82654e-06
4.83246e-06
4.8265e-06
4.83241e-06
4.82647e-06
4.83237e-06
4.82644e-06
4.83234e-06
4.82642e-06
4.83232e-06
4.8264e-06
4.8323e-06
4.82639e-06
4.83228e-06
4.82638e-06
4.83228e-06
4.83227e-06
4.8392e-06
4.84561e-06
4.83911e-06
4.8456e-06
4.83898e-06
4.84544e-06
4.83889e-06
4.84535e-06
4.83879e-06
4.84524e-06
4.83871e-06
4.84516e-06
4.83863e-06
4.84507e-06
4.83856e-06
4.845e-06
4.83849e-06
4.84493e-06
4.83843e-06
4.84486e-06
4.83837e-06
4.84481e-06
4.83832e-06
4.84475e-06
4.83828e-06
4.84471e-06
4.83825e-06
4.84467e-06
4.83822e-06
4.84464e-06
4.8382e-06
4.84461e-06
4.83818e-06
4.84459e-06
4.83817e-06
4.84458e-06
4.83816e-06
4.84457e-06
4.84457e-06
4.85201e-06
4.8589e-06
4.85193e-06
4.85889e-06
4.8518e-06
4.85872e-06
4.8517e-06
4.85863e-06
4.85161e-06
4.85852e-06
4.85152e-06
4.85844e-06
4.85144e-06
4.85836e-06
4.85137e-06
4.85827e-06
4.8513e-06
4.85821e-06
4.85124e-06
4.85814e-06
4.85119e-06
4.85809e-06
4.85114e-06
4.85803e-06
4.8511e-06
4.85799e-06
4.85106e-06
4.85795e-06
4.85103e-06
4.85792e-06
4.85101e-06
4.85789e-06
4.85099e-06
4.85787e-06
4.85098e-06
4.85786e-06
4.85098e-06
4.85785e-06
4.85785e-06
4.86577e-06
4.8728e-06
4.86568e-06
4.87279e-06
4.86555e-06
4.87262e-06
4.86545e-06
4.87254e-06
4.86535e-06
4.87242e-06
4.86527e-06
4.87234e-06
4.86519e-06
4.87226e-06
4.86512e-06
4.87218e-06
4.86505e-06
4.87211e-06
4.86499e-06
4.87204e-06
4.86493e-06
4.87199e-06
4.86488e-06
4.87194e-06
4.86485e-06
4.87188e-06
4.86481e-06
4.87186e-06
4.86478e-06
4.87181e-06
4.86476e-06
4.8718e-06
4.86474e-06
4.87177e-06
4.86473e-06
4.87176e-06
4.86472e-06
4.87175e-06
4.87175e-06
4.87983e-06
4.88637e-06
4.87974e-06
4.88637e-06
4.87961e-06
4.8862e-06
4.87951e-06
4.88612e-06
4.87941e-06
4.88599e-06
4.87933e-06
4.88592e-06
4.87925e-06
4.88582e-06
4.87917e-06
4.88576e-06
4.87911e-06
4.88567e-06
4.87904e-06
4.88563e-06
4.87899e-06
4.88555e-06
4.87894e-06
4.88552e-06
4.8789e-06
4.88545e-06
4.87886e-06
4.88543e-06
4.87883e-06
4.88538e-06
4.87881e-06
4.88537e-06
4.87879e-06
4.88534e-06
4.87878e-06
4.88533e-06
4.87877e-06
4.88532e-06
4.88532e-06
4.89292e-06
4.89808e-06
4.89283e-06
4.89807e-06
4.8927e-06
4.89791e-06
4.8926e-06
4.89782e-06
4.89251e-06
4.89771e-06
4.89242e-06
4.89763e-06
4.89234e-06
4.89754e-06
4.89226e-06
4.89747e-06
4.89219e-06
4.89739e-06
4.89213e-06
4.89733e-06
4.89208e-06
4.89727e-06
4.89203e-06
4.89722e-06
4.89199e-06
4.89717e-06
4.89195e-06
4.89713e-06
4.89192e-06
4.8971e-06
4.8919e-06
4.89707e-06
4.89188e-06
4.89705e-06
4.89187e-06
4.89704e-06
4.89186e-06
4.89703e-06
4.89703e-06
4.90323e-06
4.9056e-06
4.90315e-06
4.9056e-06
4.90302e-06
4.90551e-06
4.90293e-06
4.90547e-06
4.90283e-06
4.90541e-06
4.90275e-06
4.90538e-06
4.90267e-06
4.90533e-06
4.9026e-06
4.90529e-06
4.90253e-06
4.90526e-06
4.90247e-06
4.90523e-06
4.90241e-06
4.90519e-06
4.90236e-06
4.90517e-06
4.90232e-06
4.90515e-06
4.90229e-06
4.90513e-06
4.90226e-06
4.90511e-06
4.90223e-06
4.9051e-06
4.90222e-06
4.90509e-06
4.90221e-06
4.90508e-06
4.9022e-06
4.90508e-06
4.90507e-06
4.90797e-06
4.90796e-06
4.90796e-06
4.90796e-06
4.90796e-06
4.90796e-06
4.90796e-06
4.90796e-06
4.90795e-06
4.90795e-06
4.90795e-06
4.90795e-06
4.90795e-06
4.90795e-06
4.90795e-06
4.90795e-06
4.90795e-06
4.90795e-06
4.90795e-06
)
;

boundaryField
{
    movingWall
    {
        type            calculated;
        value           nonuniform List<scalar> 
20
(
4.90797e-06
4.90796e-06
4.90796e-06
4.90796e-06
4.90796e-06
4.90796e-06
4.90796e-06
4.90796e-06
4.90795e-06
4.90795e-06
4.90795e-06
4.90795e-06
4.90795e-06
4.90795e-06
4.90795e-06
4.90795e-06
4.90795e-06
4.90795e-06
4.90795e-06
4.90795e-06
)
;
    }
    fixedWalls
    {
        type            calculated;
        value           nonuniform List<scalar> 
60
(
4.10937e-06
4.19635e-06
4.33184e-06
4.47135e-06
4.58626e-06
4.66843e-06
4.72229e-06
4.75626e-06
4.77809e-06
4.79331e-06
4.80539e-06
4.81636e-06
4.82741e-06
4.8392e-06
4.85202e-06
4.86578e-06
4.87983e-06
4.89292e-06
4.90323e-06
4.90797e-06
4.10936e-06
4.19559e-06
4.33101e-06
4.47046e-06
4.58533e-06
4.66747e-06
4.7213e-06
4.75526e-06
4.77708e-06
4.79229e-06
4.80436e-06
4.81533e-06
4.82638e-06
4.83816e-06
4.85097e-06
4.86472e-06
4.87877e-06
4.89186e-06
4.9022e-06
4.90795e-06
4.10937e-06
4.10937e-06
4.10937e-06
4.10937e-06
4.10937e-06
4.10937e-06
4.10936e-06
4.10936e-06
4.10936e-06
4.10936e-06
4.10936e-06
4.10936e-06
4.10936e-06
4.10936e-06
4.10936e-06
4.10936e-06
4.10936e-06
4.10936e-06
4.10936e-06
4.10936e-06
)
;
    }
    frontAndBack
    {
        type            empty;
    }
}


// ************************************************************************* //
