/*--------------------------------*- C++ -*----------------------------------*\
| =========                 |                                                 |
| \\      /  F ield         | OpenFOAM: The Open Source CFD Toolbox           |
|  \\    /   O peration     | Version:  2506                                  |
|   \\  /    A nd           | Website:  www.openfoam.com                      |
|    \\/     M anipulation  |                                                 |
\*---------------------------------------------------------------------------*/
FoamFile
{
    version     2.0;
    format      ascii;
    arch        "LSB;label=32;scalar=64";
    class       volScalarField;
    location    "8";
    object      turbulenceProperties:nut;
}
// * * * * * * * * * * * * * * * * * * * * * * * * * * * * * * * * * * * * * //

dimensions      [0 2 -1 0 0 0 0];

internalField   nonuniform List<scalar> 
400
(
1.13539e-06
1.13539e-06
1.13539e-06
1.13539e-06
1.13539e-06
1.13539e-06
1.13539e-06
1.13539e-06
1.13539e-06
1.13539e-06
1.13539e-06
1.13538e-06
1.13539e-06
1.13538e-06
1.13539e-06
1.13539e-06
1.13539e-06
1.13539e-06
1.13539e-06
1.13539e-06
1.14728e-06
1.16142e-06
1.16015e-06
1.15961e-06
1.15856e-06
1.15802e-06
1.15698e-06
1.15643e-06
1.1554e-06
1.15484e-06
1.15382e-06
1.15325e-06
1.15223e-06
1.15166e-06
1.15065e-06
1.15007e-06
1.14906e-06
1.14847e-06
1.14797e-06
1.14717e-06
1.16556e-06
1.18041e-06
1.17905e-06
1.17848e-06
1.17736e-06
1.17679e-06
1.17569e-06
1.17512e-06
1.17402e-06
1.17344e-06
1.17235e-06
1.17178e-06
1.17069e-06
1.17011e-06
1.16904e-06
1.16845e-06
1.16739e-06
1.1668e-06
1.16627e-06
1.16545e-06
1.18411e-06
1.19944e-06
1.19803e-06
1.19745e-06
1.19629e-06
1.19571e-06
1.19455e-06
1.19398e-06
1.19283e-06
1.19225e-06
1.19111e-06
1.19053e-06
1.1894e-06
1.18881e-06
1.18769e-06
1.18709e-06
1.18599e-06
1.18539e-06
1.18484e-06
1.18399e-06
1.19918e-06
1.21492e-06
1.21347e-06
1.21287e-06
1.21169e-06
1.21108e-06
1.20992e-06
1.20929e-06
1.20815e-06
1.20752e-06
1.20638e-06
1.20575e-06
1.20462e-06
1.20399e-06
1.20287e-06
1.20224e-06
1.20112e-06
1.20049e-06
1.19993e-06
1.19906e-06
1.20985e-06
1.22589e-06
1.22441e-06
1.2238e-06
1.22259e-06
1.22198e-06
1.22078e-06
1.22016e-06
1.21898e-06
1.21835e-06
1.21719e-06
1.21655e-06
1.21539e-06
1.21475e-06
1.21361e-06
1.21297e-06
1.21183e-06
1.21118e-06
1.21061e-06
1.20973e-06
1.2168e-06
1.23303e-06
1.23154e-06
1.23091e-06
1.2297e-06
1.22907e-06
1.22786e-06
1.22724e-06
1.22604e-06
1.2254e-06
1.22422e-06
1.22358e-06
1.22241e-06
1.22176e-06
1.2206e-06
1.21995e-06
1.2188e-06
1.21815e-06
1.21757e-06
1.21667e-06
1.22116e-06
1.23752e-06
1.23602e-06
1.23539e-06
1.23416e-06
1.23353e-06
1.23231e-06
1.23168e-06
1.23047e-06
1.22983e-06
1.22864e-06
1.22799e-06
1.22681e-06
1.22616e-06
1.22499e-06
1.22434e-06
1.22318e-06
1.22252e-06
1.22194e-06
1.22104e-06
1.22396e-06
1.24039e-06
1.23889e-06
1.23825e-06
1.23702e-06
1.23638e-06
1.23516e-06
1.23452e-06
1.23332e-06
1.23266e-06
1.23148e-06
1.23082e-06
1.22964e-06
1.22898e-06
1.22781e-06
1.22715e-06
1.22598e-06
1.22532e-06
1.22474e-06
1.22383e-06
1.22591e-06
1.24239e-06
1.24088e-06
1.24024e-06
1.239e-06
1.23837e-06
1.23714e-06
1.23651e-06
1.23529e-06
1.23464e-06
1.23344e-06
1.23279e-06
1.2316e-06
1.23094e-06
1.22977e-06
1.22911e-06
1.22793e-06
1.22727e-06
1.22669e-06
1.22578e-06
1.22745e-06
1.24398e-06
1.24246e-06
1.24182e-06
1.24057e-06
1.23995e-06
1.23871e-06
1.23808e-06
1.23685e-06
1.23621e-06
1.23499e-06
1.23436e-06
1.23315e-06
1.23251e-06
1.23131e-06
1.23066e-06
1.22948e-06
1.22882e-06
1.22823e-06
1.22732e-06
1.22885e-06
1.24541e-06
1.24389e-06
1.24325e-06
1.24201e-06
1.24137e-06
1.24014e-06
1.23949e-06
1.23828e-06
1.23763e-06
1.23642e-06
1.23576e-06
1.23457e-06
1.23391e-06
1.23272e-06
1.23206e-06
1.23088e-06
1.23022e-06
1.22963e-06
1.22872e-06
1.23025e-06
1.24686e-06
1.24533e-06
1.24469e-06
1.24344e-06
1.24281e-06
1.24157e-06
1.24093e-06
1.2397e-06
1.23905e-06
1.23784e-06
1.23719e-06
1.23599e-06
1.23533e-06
1.23414e-06
1.23347e-06
1.23229e-06
1.23163e-06
1.23104e-06
1.23012e-06
1.23175e-06
1.24839e-06
1.24687e-06
1.24622e-06
1.24498e-06
1.24433e-06
1.2431e-06
1.24244e-06
1.24123e-06
1.24056e-06
1.23936e-06
1.2387e-06
1.2375e-06
1.23683e-06
1.23564e-06
1.23498e-06
1.2338e-06
1.23313e-06
1.23254e-06
1.23162e-06
1.23337e-06
1.25006e-06
1.24853e-06
1.24789e-06
1.24663e-06
1.24599e-06
1.24475e-06
1.2441e-06
1.24287e-06
1.24222e-06
1.241e-06
1.24034e-06
1.23914e-06
1.23847e-06
1.23728e-06
1.23661e-06
1.23543e-06
1.23476e-06
1.23417e-06
1.23324e-06
1.23512e-06
1.25185e-06
1.25032e-06
1.24967e-06
1.24842e-06
1.24776e-06
1.24653e-06
1.24586e-06
1.24465e-06
1.24397e-06
1.24277e-06
1.2421e-06
1.2409e-06
1.24023e-06
1.23903e-06
1.23836e-06
1.23718e-06
1.2365e-06
1.23591e-06
1.23499e-06
1.23689e-06
1.25368e-06
1.25214e-06
1.25149e-06
1.25022e-06
1.24959e-06
1.24833e-06
1.24769e-06
1.24644e-06
1.24579e-06
1.24456e-06
1.24391e-06
1.24268e-06
1.24203e-06
1.24081e-06
1.24016e-06
1.23895e-06
1.23829e-06
1.23769e-06
1.23676e-06
1.23855e-06
1.25537e-06
1.25383e-06
1.25318e-06
1.25192e-06
1.25127e-06
1.25002e-06
1.24936e-06
1.24812e-06
1.24746e-06
1.24624e-06
1.24557e-06
1.24436e-06
1.24369e-06
1.24248e-06
1.24181e-06
1.24062e-06
1.23994e-06
1.23934e-06
1.23841e-06
1.23985e-06
1.25638e-06
1.25489e-06
1.25426e-06
1.25304e-06
1.25241e-06
1.25119e-06
1.25055e-06
1.24934e-06
1.24869e-06
1.24749e-06
1.24683e-06
1.24564e-06
1.24496e-06
1.24378e-06
1.2431e-06
1.24192e-06
1.24124e-06
1.24064e-06
1.23972e-06
1.24044e-06
1.24044e-06
1.24044e-06
1.24044e-06
1.24044e-06
1.24044e-06
1.24044e-06
1.24044e-06
1.24044e-06
1.24044e-06
1.24044e-06
1.24044e-06
1.24044e-06
1.24044e-06
1.24044e-06
1.24044e-06
1.24044e-06
1.24044e-06
1.24044e-06
1.24044e-06
)
;

boundaryField
{
    movingWall
    {
        type            nutkWallFunction;
        blending        stepwise;
        value           uniform 0;
    }
    fixedWalls
    {
        type            nutkWallFunction;
        blending        stepwise;
        value           uniform 0;
    }
    frontAndBack
    {
        type            empty;
    }
}


// ************************************************************************* //
