/*--------------------------------*- C++ -*----------------------------------*\
| =========                 |                                                 |
| \\      /  F ield         | OpenFOAM: The Open Source CFD Toolbox           |
|  \\    /   O peration     | Version:  2506                                  |
|   \\  /    A nd           | Website:  www.openfoam.com                      |
|    \\/     M anipulation  |                                                 |
\*---------------------------------------------------------------------------*/
FoamFile
{
    version     2.0;
    format      ascii;
    arch        "LSB;label=32;scalar=64";
    class       volSymmTensorField;
    location    "8";
    object      turbulenceProperties:devReff;
}
// * * * * * * * * * * * * * * * * * * * * * * * * * * * * * * * * * * * * * //

dimensions      [0 2 -2 0 0 0 0];

internalField   nonuniform List<symmTensor> 
400
(
(3.55034e-17 -5.10265e-17 -0 -8.36834e-17 -0 4.81801e-17)
(-2.7576e-18 6.14483e-17 -0 1.39663e-17 -0 -1.12087e-17)
(1.24738e-18 -1.19763e-17 -0 -3.70207e-18 -0 2.45469e-18)
(9.3271e-19 1.93836e-18 -0 -5.44691e-20 -0 -8.78241e-19)
(1.7663e-19 -9.03086e-19 -0 -3.53259e-19 -0 1.7663e-19)
(5.5797e-19 -2.7421e-19 -0 -5.1229e-19 -0 -4.56805e-20)
(9.8094e-19 -3.39729e-19 -0 -7.54579e-19 -0 -2.26361e-19)
(1.39702e-19 3.29452e-21 -0 -2.79404e-19 -0 1.39702e-19)
(5.10593e-19 2.18278e-20 -0 -4.17536e-19 -0 -9.30574e-20)
(4.75852e-20 9.45536e-20 -0 -9.51704e-20 -0 4.75852e-20)
(4.0213e-19 7.09593e-20 -0 -2.00609e-19 -0 -2.01521e-19)
(-4.02898e-19 -6.37785e-19 -0 2.02146e-19 -0 2.00752e-19)
(4.83912e-20 -9.50773e-20 -0 -9.67825e-20 -0 4.83912e-20)
(5.93659e-19 -5.71486e-19 -0 -5.83668e-19 -0 -9.99121e-21)
(4.97261e-19 1.55689e-19 -0 -3.90872e-19 -0 -1.06389e-19)
(3.45866e-20 7.47425e-21 -0 -6.91732e-20 -0 3.45866e-20)
(7.31478e-20 -1.27757e-19 -0 -1.46296e-19 -0 7.31478e-20)
(8.4554e-19 9.4032e-19 -0 -4.83779e-19 -0 -3.61761e-19)
(-9.36142e-19 1.27163e-19 -0 6.64984e-19 -0 2.71159e-19)
(-9.49198e-20 -6.32721e-20 -0 1.8984e-19 -0 -9.49198e-20)
(-6.43443e-17 -8.09491e-19 -0 1.41983e-16 -0 -7.76388e-17)
(7.68615e-18 1.71088e-18 -0 -2.50533e-17 -0 1.73671e-17)
(-3.37912e-18 1.31277e-18 -0 6.75825e-18 -0 -3.37912e-18)
(-9.18594e-19 2.72017e-19 -0 -5.82667e-19 -0 1.50126e-18)
(7.61962e-19 8.63339e-19 -0 -3.1411e-19 -0 -4.47852e-19)
(-1.10679e-20 8.80483e-19 -0 2.21358e-20 -0 -1.10679e-20)
(-8.61363e-19 3.64186e-19 -0 5.13083e-19 -0 3.4828e-19)
(-2.86942e-20 7.03553e-19 -0 5.73883e-20 -0 -2.86942e-20)
(-9.28833e-20 7.21292e-19 -0 1.85767e-19 -0 -9.28833e-20)
(-1.29788e-18 6.72966e-19 -0 7.81634e-19 -0 5.16241e-19)
(-3.44821e-20 6.05767e-19 -0 6.89642e-20 -0 -3.44821e-20)
(-1.03114e-19 1.17027e-18 -0 2.06228e-19 -0 -1.03114e-19)
(-1.20456e-19 4.11814e-19 -0 2.40911e-19 -0 -1.20456e-19)
(-4.69082e-20 5.02564e-19 -0 9.38164e-20 -0 -4.69082e-20)
(1.33347e-19 7.93778e-20 -0 -2.66693e-19 -0 1.33347e-19)
(9.58076e-19 2.50787e-20 -0 -7.07259e-19 -0 -2.50817e-19)
(4.36006e-19 1.18773e-19 -0 -2.67621e-19 -0 -1.68386e-19)
(-5.73984e-19 -3.00701e-20 -0 5.43609e-19 -0 3.03756e-20)
(-9.56287e-19 -2.25854e-19 -0 7.03909e-19 -0 2.52378e-19)
(-4.39781e-20 -2.76312e-19 -0 8.79563e-20 -0 -4.39781e-20)
(1.11033e-17 3.27659e-17 -0 -3.31018e-17 -0 2.19985e-17)
(2.86197e-18 -4.45749e-17 -0 4.57961e-18 -0 -7.44158e-18)
(5.01299e-19 6.05557e-18 -0 -1.60862e-18 -0 1.10732e-18)
(-2.31993e-19 -2.45818e-18 -0 4.63986e-19 -0 -2.31993e-19)
(7.11025e-20 -1.36105e-18 -0 -1.42205e-19 -0 7.11025e-20)
(1.46794e-20 -1.47145e-18 -0 -2.93589e-20 -0 1.46794e-20)
(1.24875e-19 -6.17389e-19 -0 -2.49751e-19 -0 1.24875e-19)
(5.31988e-19 -1.15127e-18 -0 -4.58173e-19 -0 -7.38158e-20)
(4.69613e-19 -1.09977e-18 -0 -3.33481e-19 -0 -1.36132e-19)
(1.26943e-18 -5.98573e-19 -0 -7.21722e-19 -0 -5.4771e-19)
(8.7157e-19 -5.12429e-19 -0 -5.31831e-19 -0 -3.39739e-19)
(-7.71469e-19 9.49473e-20 -0 3.31692e-19 -0 4.39777e-19)
(-1.42212e-20 1.22973e-19 -0 2.84423e-20 -0 -1.42212e-20)
(-1.41396e-18 2.56456e-19 -0 1.01132e-18 -0 4.02638e-19)
(-7.48457e-20 -4.45659e-19 -0 1.49691e-19 -0 -7.48457e-20)
(-3.67022e-20 1.58132e-19 -0 7.34044e-20 -0 -3.67022e-20)
(-6.63808e-20 5.48112e-20 -0 1.32762e-19 -0 -6.63808e-20)
(-4.64625e-19 -2.94568e-19 -0 3.23896e-19 -0 1.40729e-19)
(4.37434e-19 -6.34301e-20 -0 -2.69544e-19 -0 -1.6789e-19)
(1.06993e-20 -3.55638e-19 -0 -2.13986e-20 -0 1.06993e-20)
(2.49069e-17 -1.99703e-17 -0 -4.49634e-17 -0 2.00565e-17)
(-9.61976e-18 2.89007e-17 -0 1.07398e-17 -0 -1.12004e-18)
(2.50199e-18 -5.26481e-18 -0 -2.5758e-18 -0 7.38063e-20)
(-3.40187e-19 1.5263e-18 -0 6.80374e-19 -0 -3.40187e-19)
(-9.14248e-19 -1.11296e-19 -0 6.14593e-19 -0 2.99656e-19)
(6.7949e-20 1.95716e-19 -0 -1.35898e-19 -0 6.7949e-20)
(9.27257e-19 -1.08475e-19 -0 -6.40799e-19 -0 -2.86459e-19)
(5.0256e-19 1.87862e-19 -0 -3.98292e-19 -0 -1.04267e-19)
(1.56492e-19 2.22273e-19 -0 -3.12983e-19 -0 1.56492e-19)
(1.15945e-19 -5.35625e-19 -0 -2.3189e-19 -0 1.15945e-19)
(9.81248e-20 -5.72542e-19 -0 -1.9625e-19 -0 9.81248e-20)
(9.90258e-19 -8.31488e-19 -0 -7.67238e-19 -0 -2.23021e-19)
(9.02164e-19 -7.44264e-19 -0 -5.91171e-19 -0 -3.10993e-19)
(-1.47833e-19 -1.1207e-20 -0 2.95666e-19 -0 -1.47833e-19)
(-1.49697e-18 -4.73275e-19 -0 1.17449e-18 -0 3.22485e-19)
(-1.12703e-19 -2.90768e-19 -0 2.25406e-19 -0 -1.12703e-19)
(2.23602e-20 -1.47429e-19 -0 -4.47204e-20 -0 2.23602e-20)
(1.72574e-19 -4.83996e-19 -0 -3.45149e-19 -0 1.72574e-19)
(5.96733e-19 -3.12444e-20 -0 -5.87134e-19 -0 -9.59866e-21)
(9.06235e-20 -2.10242e-19 -0 -1.81247e-19 -0 9.06235e-20)
(-2.96766e-17 8.97255e-18 -0 5.75319e-17 -0 -2.78553e-17)
(1.0497e-17 -1.13118e-17 -0 -1.36985e-17 -0 3.20146e-18)
(-3.64321e-18 2.77546e-18 -0 4.24701e-18 -0 -6.03796e-19)
(-3.19688e-19 -3.73629e-19 -0 3.15257e-20 -0 2.88162e-19)
(-1.05638e-18 1.49023e-19 -0 8.97183e-19 -0 1.59195e-19)
(-5.01412e-20 3.16064e-19 -0 1.00282e-19 -0 -5.01412e-20)
(-9.40689e-19 -5.67582e-20 -0 6.65996e-19 -0 2.74693e-19)
(-8.88199e-20 2.84688e-21 -0 1.7764e-19 -0 -8.88199e-20)
(5.10728e-20 8.50944e-20 -0 -1.02146e-19 -0 5.10728e-20)
(5.24404e-19 3.98585e-19 -0 -4.41247e-19 -0 -8.31568e-20)
(5.08019e-19 2.98903e-19 -0 -4.08539e-19 -0 -9.94803e-20)
(-7.70611e-19 -2.01411e-19 -0 3.26292e-19 -0 4.44319e-19)
(-2.56174e-20 -2.93245e-19 -0 5.12349e-20 -0 -2.56174e-20)
(6.14023e-20 -9.97982e-19 -0 -1.22805e-19 -0 6.14023e-20)
(-1.68099e-20 -1.96089e-19 -0 3.36198e-20 -0 -1.68099e-20)
(-3.57155e-20 2.10354e-21 -0 7.14309e-20 -0 -3.57155e-20)
(-3.8502e-19 -6.99087e-20 -0 1.62827e-19 -0 2.22193e-19)
(5.71706e-19 5.61349e-20 -0 -5.36232e-19 -0 -3.5474e-20)
(5.63985e-19 5.94479e-20 -0 -5.2082e-19 -0 -4.31648e-20)
(4.91609e-19 6.85451e-20 -0 -3.76116e-19 -0 -1.15493e-19)
(2.87552e-17 1.3968e-17 -0 -5.4472e-17 -0 2.57168e-17)
(-8.7019e-18 -1.41369e-17 -0 1.25353e-17 -0 -3.83344e-18)
(1.59624e-18 3.05145e-18 -0 -2.58399e-18 -0 9.87758e-19)
(-2.24363e-19 -2.24136e-19 -0 4.48725e-19 -0 -2.24363e-19)
(1.12788e-19 7.00539e-19 -0 -2.25576e-19 -0 1.12788e-19)
(3.47022e-20 6.3105e-19 -0 -6.94045e-20 -0 3.47022e-20)
(1.98986e-20 5.5764e-19 -0 -3.97972e-20 -0 1.98986e-20)
(-4.29744e-20 1.13227e-18 -0 8.59487e-20 -0 -4.29744e-20)
(-9.32813e-20 1.12658e-18 -0 1.86563e-19 -0 -9.32813e-20)
(3.7454e-19 2.97332e-19 -0 -1.40932e-19 -0 -2.33608e-19)
(-4.1958e-19 4.58377e-19 -0 2.31075e-19 -0 1.88505e-19)
(-3.5827e-20 2.7179e-19 -0 7.1654e-20 -0 -3.5827e-20)
(4.64331e-19 1.32856e-19 -0 -3.20673e-19 -0 -1.43657e-19)
(2.22848e-19 -2.44523e-20 -0 -4.45696e-19 -0 2.22848e-19)
(1.46398e-18 2.7933e-19 -0 -1.10428e-18 -0 -3.59695e-19)
(5.12742e-20 -4.24645e-20 -0 -1.02548e-19 -0 5.12742e-20)
(-9.02999e-19 1.55774e-19 -0 5.9041e-19 -0 3.1259e-19)
(-4.21504e-20 5.21049e-19 -0 8.43007e-20 -0 -4.21504e-20)
(3.61068e-20 8.88432e-20 -0 -7.22137e-20 -0 3.61068e-20)
(4.00618e-20 -1.45094e-19 -0 -8.01237e-20 -0 4.00618e-20)
(3.66202e-18 -1.83943e-17 -0 -8.54016e-18 -0 4.87814e-18)
(7.36437e-19 2.73644e-17 -0 9.62901e-19 -0 -1.69934e-18)
(1.65683e-18 -3.54965e-18 -0 -1.48708e-18 -0 -1.69755e-19)
(7.85925e-20 1.8522e-18 -0 -1.57185e-19 -0 7.85925e-20)
(9.27767e-19 9.77978e-19 -0 -6.38008e-19 -0 -2.89759e-19)
(-1.12912e-19 1.06471e-18 -0 2.25824e-19 -0 -1.12912e-19)
(-9.60251e-19 1.5814e-18 -0 7.03174e-19 -0 2.57077e-19)
(-1.24841e-19 4.77056e-19 -0 2.49682e-19 -0 -1.24841e-19)
(-9.42632e-19 3.71387e-19 -0 6.68135e-19 -0 2.74497e-19)
(-5.98606e-19 8.89051e-19 -0 5.88682e-19 -0 9.92397e-21)
(-1.05617e-18 9.15259e-19 -0 8.95413e-19 -0 1.60759e-19)
(-9.68557e-19 6.01046e-19 -0 7.20252e-19 -0 2.48305e-19)
(6.71753e-21 5.34756e-19 -0 -1.34351e-20 -0 6.71753e-21)
(1.17763e-20 5.41428e-19 -0 -2.35526e-20 -0 1.17763e-20)
(9.15888e-21 9.73488e-19 -0 -1.83178e-20 -0 9.15888e-21)
(3.96198e-20 2.09504e-19 -0 -7.92396e-20 -0 3.96198e-20)
(4.32767e-19 -2.33885e-19 -0 -2.57363e-19 -0 -1.75405e-19)
(-2.36267e-20 4.71175e-19 -0 4.72535e-20 -0 -2.36267e-20)
(-3.73958e-19 -6.38549e-20 -0 1.39811e-19 -0 2.34147e-19)
(8.81455e-19 -1.21056e-19 -0 -5.46796e-19 -0 -3.34659e-19)
(-2.7963e-17 1.30041e-18 -0 6.87002e-17 -0 -4.07373e-17)
(1.60342e-18 -7.17519e-18 -0 -1.17355e-17 -0 1.0132e-17)
(-1.24802e-18 -5.2668e-19 -0 3.10515e-18 -0 -1.85713e-18)
(4.69383e-20 -1.26237e-18 -0 -7.02948e-19 -0 6.5601e-19)
(-6.62919e-20 -1.44739e-18 -0 1.32584e-19 -0 -6.62919e-20)
(-1.0089e-18 -1.40684e-18 -0 7.99859e-19 -0 2.09041e-19)
(-1.11062e-18 -9.4612e-19 -0 1.00342e-18 -0 1.07192e-19)
(-1.79e-19 -4.14948e-19 -0 3.57999e-19 -0 -1.79e-19)
(-4.70346e-20 -9.00886e-19 -0 9.40693e-20 -0 -4.70346e-20)
(-9.10351e-20 -1.40509e-19 -0 1.8207e-19 -0 -9.10351e-20)
(-1.50886e-19 -8.1195e-19 -0 3.01771e-19 -0 -1.50886e-19)
(-4.72705e-19 -1.05464e-19 -0 3.3674e-19 -0 1.35965e-19)
(-2.88924e-20 -4.25026e-19 -0 5.77848e-20 -0 -2.88924e-20)
(4.12946e-19 -2.81426e-20 -0 -2.17321e-19 -0 -1.95625e-19)
(-2.05717e-20 -6.64278e-20 -0 4.11434e-20 -0 -2.05717e-20)
(-1.29659e-18 8.42945e-19 -0 7.67766e-19 -0 5.28826e-19)
(1.33618e-20 1.16345e-18 -0 -2.67237e-20 -0 1.33618e-20)
(-1.10639e-20 -9.29945e-20 -0 2.21278e-20 -0 -1.10639e-20)
(-4.3891e-19 2.51534e-19 -0 2.69478e-19 -0 1.69432e-19)
(3.91326e-19 6.16346e-19 -0 -1.74359e-19 -0 -2.16967e-19)
(1.58296e-17 2.20593e-17 -0 -4.20028e-17 -0 2.61732e-17)
(3.65702e-19 -2.82995e-17 -0 6.58071e-18 -0 -6.94641e-18)
(6.7962e-19 3.35249e-18 -0 -1.9685e-18 -0 1.28888e-18)
(1.03677e-18 -2.96565e-18 -0 -2.45857e-19 -0 -7.90911e-19)
(6.09082e-20 -1.09211e-18 -0 -1.21816e-19 -0 6.09082e-20)
(4.2656e-19 -1.02228e-18 -0 -2.43995e-19 -0 -1.82565e-19)
(3.06822e-20 -8.80682e-19 -0 -6.13644e-20 -0 3.06822e-20)
(4.44573e-20 -1.11831e-18 -0 -8.89146e-20 -0 4.44573e-20)
(-8.7614e-21 -6.47953e-20 -0 1.75228e-20 -0 -8.7614e-21)
(9.47911e-21 -7.81302e-19 -0 -1.89582e-20 -0 9.47911e-21)
(3.74933e-20 -3.38022e-19 -0 -7.49866e-20 -0 3.74933e-20)
(9.60829e-20 -1.90409e-19 -0 -1.92166e-19 -0 9.60829e-20)
(1.41188e-19 -1.84912e-19 -0 -2.82375e-19 -0 1.41188e-19)
(6.1943e-19 -7.9426e-20 -0 -6.30136e-19 -0 1.07058e-20)
(1.40864e-18 -4.17182e-19 -0 -9.91294e-19 -0 -4.17344e-19)
(4.51896e-19 -7.54212e-19 -0 -2.95166e-19 -0 -1.56729e-19)
(-6.67963e-21 -3.2641e-20 -0 1.33593e-20 -0 -6.67963e-21)
(-4.50972e-19 -6.6965e-20 -0 2.93418e-19 -0 1.57554e-19)
(-9.97309e-20 5.49311e-19 -0 1.99462e-19 -0 -9.97309e-20)
(-9.3359e-19 4.15972e-19 -0 6.5029e-19 -0 2.833e-19)
(1.84029e-17 -1.99526e-17 -0 -2.76774e-17 -0 9.27452e-18)
(-1.07347e-17 2.74696e-17 -0 9.28042e-18 -0 1.4543e-18)
(2.03157e-18 -4.27601e-18 -0 -2.23503e-18 -0 2.0346e-19)
(-1.69381e-19 2.10259e-18 -0 3.38762e-19 -0 -1.69381e-19)
(-3.6558e-19 6.85788e-19 -0 1.21892e-19 -0 2.43688e-19)
(4.64116e-19 7.70208e-19 -0 -3.18998e-19 -0 -1.45118e-19)
(6.02721e-19 8.44989e-19 -0 -5.96274e-19 -0 -6.44612e-21)
(1.3911e-18 8.62313e-19 -0 -9.54813e-19 -0 -4.36292e-19)
(-7.96737e-19 9.78395e-19 -0 3.75342e-19 -0 4.21395e-19)
(6.46522e-20 1.00809e-18 -0 -1.29304e-19 -0 6.46522e-20)
(9.23908e-19 1.18915e-18 -0 -6.29884e-19 -0 -2.94024e-19)
(-8.03884e-19 3.47827e-19 -0 3.89907e-19 -0 4.13977e-19)
(8.12919e-19 6.16165e-19 -0 -4.08106e-19 -0 -4.04813e-19)
(-1.2947e-19 8.09842e-19 -0 2.5894e-19 -0 -1.2947e-19)
(-1.77003e-18 7.93519e-19 -0 1.105e-18 -0 6.65035e-19)
(-1.08897e-20 2.27237e-19 -0 2.17794e-20 -0 -1.08897e-20)
(2.95167e-20 -5.2489e-19 -0 -5.90335e-20 -0 2.95167e-20)
(8.36313e-19 -5.62056e-19 -0 -4.55363e-19 -0 -3.8095e-19)
(2.79478e-22 -5.45658e-19 -0 -5.58956e-22 -0 2.79478e-22)
(-1.58492e-21 -3.25081e-19 -0 3.16985e-21 -0 -1.58492e-21)
(-2.16762e-17 -5.28597e-18 -0 3.78747e-17 -0 -1.61985e-17)
(8.99624e-18 -6.75561e-18 -0 -1.12876e-17 -0 2.29133e-18)
(-7.94816e-19 1.21823e-18 -0 1.58963e-18 -0 -7.94816e-19)
(7.56846e-19 6.29522e-19 -0 -9.04271e-19 -0 1.47425e-19)
(-8.15679e-20 6.99247e-19 -0 1.63136e-19 -0 -8.15679e-20)
(5.20677e-20 5.7127e-19 -0 -1.04135e-19 -0 5.20677e-20)
(8.93603e-19 1.65174e-19 -0 -5.68704e-19 -0 -3.249e-19)
(-8.49747e-19 6.70686e-20 -0 4.81059e-19 -0 3.68688e-19)
(-2.53772e-20 -2.0712e-19 -0 5.07545e-20 -0 -2.53772e-20)
(6.18647e-20 -1.28181e-20 -0 -1.23729e-19 -0 6.18647e-20)
(1.16024e-19 5.13407e-20 -0 -2.32049e-19 -0 1.16024e-19)
(-1.6469e-20 -2.41715e-20 -0 3.2938e-20 -0 -1.6469e-20)
(-1.39119e-19 2.13093e-20 -0 2.78239e-19 -0 -1.39119e-19)
(-2.14026e-19 -1.62228e-19 -0 4.28053e-19 -0 -2.14026e-19)
(-1.9074e-19 -8.99611e-19 -0 3.8148e-19 -0 -1.9074e-19)
(-1.19163e-19 -1.05509e-19 -0 2.38326e-19 -0 -1.19163e-19)
(-4.3888e-19 -8.62e-20 -0 2.6901e-19 -0 1.69871e-19)
(-8.22151e-19 -2.31265e-20 -0 4.26871e-19 -0 3.9528e-19)
(-3.68063e-19 -1.96146e-20 -0 1.27442e-19 -0 2.40621e-19)
(5.28502e-19 1.09825e-19 -0 -4.4837e-19 -0 -8.01321e-20)
(-2.53079e-18 2.06939e-17 -0 -7.11277e-18 -0 9.64355e-18)
(8.14636e-18 -2.98245e-18 -0 -2.27158e-18 -0 -5.87478e-18)
(-3.97989e-20 3.20537e-18 -0 -5.29935e-19 -0 5.69734e-19)
(3.65246e-19 1.18976e-19 -0 -1.20995e-19 -0 -2.44252e-19)
(-1.34708e-18 5.24281e-19 -0 8.65862e-19 -0 4.81215e-19)
(-1.85247e-20 2.21424e-19 -0 3.70493e-20 -0 -1.85247e-20)
(-6.35286e-20 6.5519e-20 -0 1.27057e-19 -0 -6.35286e-20)
(-1.24945e-19 4.13234e-19 -0 2.4989e-19 -0 -1.24945e-19)
(-1.03661e-20 2.20426e-19 -0 2.07323e-20 -0 -1.03661e-20)
(-9.18682e-21 1.87023e-19 -0 1.83736e-20 -0 -9.18682e-21)
(-3.70554e-21 -8.24978e-19 -0 7.41108e-21 -0 -3.70554e-21)
(8.06992e-19 1.21603e-19 -0 -3.95801e-19 -0 -4.11191e-19)
(-9.30449e-19 3.03695e-19 -0 6.42844e-19 -0 2.87605e-19)
(-4.57097e-19 -2.59479e-20 -0 3.05203e-19 -0 1.51894e-19)
(-4.41832e-19 9.55924e-19 -0 2.74737e-19 -0 1.67095e-19)
(-2.128e-20 -9.25175e-21 -0 4.25599e-20 -0 -2.128e-20)
(-2.15259e-20 5.29677e-19 -0 4.30519e-20 -0 -2.15259e-20)
(8.20734e-19 -5.95844e-20 -0 -4.23886e-19 -0 -3.96848e-19)
(-3.53934e-20 4.71765e-19 -0 7.07867e-20 -0 -3.53934e-20)
(-3.64172e-21 5.24277e-19 -0 7.28345e-21 -0 -3.64172e-21)
(1.24674e-17 -1.21345e-18 -0 6.11365e-18 -0 -1.85811e-17)
(-2.07055e-17 -1.04965e-18 -0 9.09725e-18 -0 1.16082e-17)
(3.32704e-18 -1.43582e-18 -0 -1.16758e-18 -0 -2.15946e-18)
(-1.71229e-18 -4.56803e-19 -0 9.86283e-19 -0 7.2601e-19)
(8.58569e-19 -2.48674e-19 -0 -4.98121e-19 -0 -3.60448e-19)
(8.70842e-19 -4.39817e-19 -0 -5.22736e-19 -0 -3.48106e-19)
(3.36459e-20 -2.84526e-19 -0 -6.72918e-20 -0 3.36459e-20)
(-7.33728e-19 -3.17347e-19 -0 2.48712e-19 -0 4.85016e-19)
(7.91228e-19 -3.8081e-19 -0 -3.63845e-19 -0 -4.27383e-19)
(-1.01738e-18 -3.27447e-19 -0 8.16228e-19 -0 2.01156e-19)
(-1.38405e-18 4.52698e-20 -0 9.40487e-19 -0 4.43563e-19)
(4.20961e-19 -4.61245e-19 -0 -2.32752e-19 -0 -1.88208e-19)
(7.99251e-19 -8.23368e-19 -0 -3.80293e-19 -0 -4.18958e-19)
(-2.98814e-20 -5.906e-19 -0 5.97628e-20 -0 -2.98814e-20)
(-9.1932e-19 -6.40066e-19 -0 6.20633e-19 -0 2.98687e-19)
(7.87662e-19 -1.27064e-19 -0 -3.57388e-19 -0 -4.30274e-19)
(-9.07985e-19 -1.31664e-19 -0 5.98163e-19 -0 3.09823e-19)
(-1.94991e-21 -2.32387e-21 -0 3.89983e-21 -0 -1.94991e-21)
(-4.43988e-19 -6.09472e-19 -0 2.79139e-19 -0 1.64848e-19)
(-9.24736e-19 -2.53096e-19 -0 6.31901e-19 -0 2.92836e-19)
(1.2413e-17 -9.9135e-18 -0 -4.00479e-17 -0 2.76349e-17)
(5.76441e-18 -7.23226e-18 -0 3.7156e-18 -0 -9.48001e-18)
(-1.26292e-18 6.28869e-19 -0 -5.22627e-19 -0 1.78555e-18)
(6.03644e-19 1.63836e-19 -0 1.20295e-20 -0 -6.15674e-19)
(5.39377e-19 -6.07439e-19 -0 -4.69162e-19 -0 -7.02146e-20)
(-5.26155e-20 -6.49351e-20 -0 1.05231e-19 -0 -5.26155e-20)
(-5.19157e-19 -5.7481e-19 -0 4.28825e-19 -0 9.03325e-20)
(3.45914e-19 -7.23316e-19 -0 -8.23739e-20 -0 -2.6354e-19)
(-9.42922e-20 -8.77236e-19 -0 1.88584e-19 -0 -9.42922e-20)
(-8.23969e-20 -1.11956e-18 -0 1.64794e-19 -0 -8.23969e-20)
(1.1293e-20 -5.45728e-19 -0 -2.25859e-20 -0 1.1293e-20)
(6.67694e-20 -7.1676e-19 -0 -1.33539e-19 -0 6.67694e-20)
(-2.75916e-19 -2.38309e-19 -0 -5.73547e-20 -0 3.3327e-19)
(1.05181e-19 -1.88852e-19 -0 -2.10362e-19 -0 1.05181e-19)
(4.32401e-19 -2.70372e-19 -0 -2.55716e-19 -0 -1.76685e-19)
(-6.00824e-20 -3.30559e-19 -0 1.20165e-19 -0 -6.00824e-20)
(-5.42062e-20 -7.21675e-19 -0 1.08412e-19 -0 -5.42062e-20)
(1.04874e-20 -4.51099e-19 -0 -2.09749e-20 -0 1.04874e-20)
(4.75123e-19 -2.74845e-19 -0 -3.41328e-19 -0 -1.33794e-19)
(3.91571e-19 -6.72442e-21 -0 -1.74275e-19 -0 -2.17296e-19)
(-1.92856e-17 -1.29426e-17 -0 3.79623e-17 -0 -1.86767e-17)
(7.37335e-18 2.86429e-17 -0 -9.86775e-18 -0 2.49441e-18)
(-2.67477e-18 -4.97616e-18 -0 2.91041e-18 -0 -2.35636e-19)
(9.87934e-19 1.41236e-18 -0 -7.56369e-19 -0 -2.31565e-19)
(-8.86799e-20 4.30854e-19 -0 1.7736e-19 -0 -8.86799e-20)
(-9.58781e-19 2.33663e-19 -0 6.98269e-19 -0 2.60512e-19)
(-6.46211e-19 6.41438e-19 -0 6.82842e-19 -0 -3.66315e-20)
(-1.01618e-18 8.73865e-19 -0 8.13268e-19 -0 2.0291e-19)
(-8.41648e-19 5.66333e-19 -0 4.64342e-19 -0 3.77306e-19)
(5.48811e-19 1.03767e-18 -0 -4.8818e-19 -0 -6.06308e-20)
(5.18403e-19 7.35572e-19 -0 -4.2743e-19 -0 -9.0973e-20)
(-4.13529e-20 1.18823e-18 -0 8.27058e-20 -0 -4.13529e-20)
(8.21127e-19 1.25122e-18 -0 -4.23704e-19 -0 -3.97423e-19)
(-3.28491e-20 1.08814e-18 -0 6.56982e-20 -0 -3.28491e-20)
(-2.14709e-20 5.21436e-19 -0 4.29418e-20 -0 -2.14709e-20)
(-8.42746e-19 2.98319e-19 -0 4.67215e-19 -0 3.7553e-19)
(9.53189e-20 -2.37562e-19 -0 -1.90638e-19 -0 9.53189e-20)
(-3.33325e-20 1.1709e-19 -0 6.6665e-20 -0 -3.33325e-20)
(-4.40363e-19 3.41115e-19 -0 2.7172e-19 -0 1.68643e-19)
(4.28717e-19 4.38049e-19 -0 -2.48479e-19 -0 -1.80238e-19)
(-6.66538e-18 3.50742e-17 -0 1.94213e-17 -0 -1.2756e-17)
(-3.12427e-18 -4.01267e-17 -0 -1.68099e-18 -0 4.80526e-18)
(7.58137e-19 7.76758e-18 -0 3.13369e-19 -0 -1.07151e-18)
(-8.35936e-19 -2.49593e-18 -0 4.5218e-19 -0 3.83756e-19)
(3.24162e-19 4.83494e-19 -0 -3.85462e-20 -0 -2.85616e-19)
(4.19944e-19 -7.52769e-19 -0 -2.30145e-19 -0 -1.89799e-19)
(1.30919e-19 -4.8863e-19 -0 -2.61837e-19 -0 1.30919e-19)
(9.07501e-19 -7.3496e-19 -0 -5.95723e-19 -0 -3.11778e-19)
(4.53844e-19 -1.77371e-19 -0 -2.98114e-19 -0 -1.5573e-19)
(8.51213e-19 -1.12619e-19 -0 -4.83352e-19 -0 -3.67861e-19)
(-9.30421e-19 -5.74802e-19 -0 6.41898e-19 -0 2.88523e-19)
(-1.65904e-19 -5.61875e-19 -0 3.31809e-19 -0 -1.65904e-19)
(-1.36414e-19 -8.605e-19 -0 2.72827e-19 -0 -1.36414e-19)
(-1.33855e-18 -4.4822e-19 -0 8.49092e-19 -0 4.89455e-19)
(-8.19418e-19 -2.73877e-19 -0 4.20297e-19 -0 3.99121e-19)
(8.84274e-19 -2.01268e-19 -0 -5.50082e-19 -0 -3.34192e-19)
(8.6961e-19 -1.08559e-19 -0 -5.20883e-19 -0 -3.48727e-19)
(-9.08224e-19 4.78732e-20 -0 5.98183e-19 -0 3.10041e-19)
(-1.23497e-19 -5.45102e-20 -0 2.46995e-19 -0 -1.23497e-19)
(-1.74344e-20 -3.28668e-19 -0 3.48688e-20 -0 -1.74344e-20)
(5.01943e-17 -1.65414e-17 -0 -9.85612e-17 -0 4.83669e-17)
(-1.13545e-17 1.71949e-17 -0 2.08788e-17 -0 -9.52429e-18)
(3.03618e-18 -3.22527e-18 -0 -4.8524e-18 -0 1.81622e-18)
(6.70516e-19 8.4387e-19 -0 4.88802e-19 -0 -1.15932e-18)
(-1.21531e-18 -8.43152e-19 -0 6.00997e-19 -0 6.14315e-19)
(-8.4582e-19 -8.62409e-20 -0 4.71957e-19 -0 3.73863e-19)
(1.30785e-19 -8.99603e-20 -0 -2.61569e-19 -0 1.30785e-19)
(-3.57367e-19 8.47222e-20 -0 1.04996e-19 -0 2.52371e-19)
(-4.44195e-19 -2.63772e-19 -0 2.78719e-19 -0 1.65476e-19)
(-4.25507e-20 -8.4779e-19 -0 8.51013e-20 -0 -4.25507e-20)
(-1.11448e-19 -4.81458e-19 -0 2.22896e-19 -0 -1.11448e-19)
(-3.71858e-20 -3.07262e-19 -0 7.43715e-20 -0 -3.71858e-20)
(1.80226e-20 -6.45801e-19 -0 -3.60452e-20 -0 1.80226e-20)
(4.96036e-19 -6.29149e-19 -0 -3.82641e-19 -0 -1.13395e-19)
(5.55738e-19 -3.75562e-19 -0 -5.0211e-19 -0 -5.36278e-20)
(1.04499e-19 5.06387e-19 -0 -2.08998e-19 -0 1.04499e-19)
(-3.54764e-20 1.44171e-20 -0 7.09528e-20 -0 -3.54764e-20)
(-6.09037e-20 8.38848e-20 -0 1.21807e-19 -0 -6.09037e-20)
(-4.2194e-19 -8.13051e-20 -0 2.34683e-19 -0 1.87256e-19)
(3.89625e-19 -7.78033e-20 -0 -1.70104e-19 -0 -2.19521e-19)
(-3.31494e-17 -3.26522e-17 -0 6.9345e-17 -0 -3.61956e-17)
(4.68262e-18 3.31611e-17 -0 -1.30262e-17 -0 8.34354e-18)
(-2.11619e-18 -6.91253e-18 -0 3.6223e-18 -0 -1.50612e-18)
(-4.08206e-19 8.31252e-19 -0 -4.03661e-19 -0 8.11866e-19)
(8.08267e-19 -2.91389e-19 -0 -3.96599e-19 -0 -4.11668e-19)
(8.77594e-19 -2.76729e-20 -0 -5.35322e-19 -0 -3.42271e-19)
(-3.99931e-20 -1.66843e-21 -0 7.99863e-20 -0 -3.99931e-20)
(-8.36699e-20 -4.82357e-19 -0 1.6734e-19 -0 -8.36699e-20)
(-3.68414e-20 -3.98959e-20 -0 7.36827e-20 -0 -3.68414e-20)
(-2.19909e-20 3.02797e-19 -0 4.39817e-20 -0 -2.19909e-20)
(-4.07439e-19 6.36302e-19 -0 2.05218e-19 -0 2.02221e-19)
(6.48195e-21 1.58159e-19 -0 -1.29639e-20 -0 6.48195e-21)
(2.17929e-20 1.08226e-18 -0 -4.35858e-20 -0 2.17929e-20)
(-3.52994e-19 5.73423e-19 -0 9.64657e-20 -0 2.56528e-19)
(9.52913e-20 6.18071e-19 -0 -1.90583e-19 -0 9.52913e-20)
(9.04902e-19 -5.3326e-19 -0 -5.90964e-19 -0 -3.13938e-19)
(7.45251e-19 1.39537e-19 -0 -2.71791e-19 -0 -4.73459e-19)
(-9.24205e-19 6.27705e-19 -0 6.29773e-19 -0 2.94432e-19)
(-2.1397e-20 -1.21177e-19 -0 4.27941e-20 -0 -2.1397e-20)
(-1.22463e-20 -7.25777e-20 -0 2.44926e-20 -0 -1.22463e-20)
(-3.015e-17 2.40373e-17 -0 5.35976e-17 -0 -2.34476e-17)
(1.12095e-17 -3.40055e-17 -0 -1.26556e-17 -0 1.44612e-18)
(-3.15531e-18 5.02009e-18 -0 3.25998e-18 -0 -1.04665e-19)
(9.7694e-19 -1.7127e-18 -0 -7.33691e-19 -0 -2.43249e-19)
(-9.09321e-19 -3.32148e-19 -0 5.98585e-19 -0 3.10736e-19)
(-2.35046e-20 -3.38792e-19 -0 4.70093e-20 -0 -2.35046e-20)
(-8.76302e-19 -4.77861e-19 -0 5.32748e-19 -0 3.43554e-19)
(2.97473e-20 -5.29868e-19 -0 -5.94945e-20 -0 2.97473e-20)
(5.15193e-19 -6.61267e-19 -0 -4.20558e-19 -0 -9.46347e-20)
(1.20341e-19 -5.96877e-19 -0 -2.40682e-19 -0 1.20341e-19)
(5.716e-19 -5.24294e-19 -0 -5.33473e-19 -0 -3.81275e-20)
(8.91552e-19 -6.46383e-19 -0 -5.6372e-19 -0 -3.27831e-19)
(-3.86837e-20 -1.02111e-18 -0 7.73673e-20 -0 -3.86837e-20)
(-8.99656e-19 -7.39591e-19 -0 5.8013e-19 -0 3.19526e-19)
(-5.70677e-20 -4.34167e-19 -0 1.14135e-19 -0 -5.70677e-20)
(-4.53963e-19 -4.68658e-19 -0 2.98436e-19 -0 1.55527e-19)
(3.73211e-19 -2.8879e-19 -0 -1.36996e-19 -0 -2.36215e-19)
(-8.52629e-21 -5.94221e-19 -0 1.70526e-20 -0 -8.52629e-21)
(-4.02508e-19 -2.30635e-19 -0 1.95659e-19 -0 2.06849e-19)
(4.20035e-19 1.76361e-19 -0 -2.30763e-19 -0 -1.89272e-19)
(2.30562e-17 1.31458e-17 -0 -5.28152e-17 -0 2.9759e-17)
(-3.34451e-18 -6.16476e-18 -0 9.1264e-18 -0 -5.78189e-18)
(9.79734e-19 2.32903e-18 -0 -2.56881e-18 -0 1.58908e-18)
(3.31916e-19 5.12605e-19 -0 -5.44867e-20 -0 -2.77429e-19)
(5.87306e-19 5.98393e-19 -0 -5.65266e-19 -0 -2.20399e-20)
(5.0966e-19 5.32443e-19 -0 -4.09975e-19 -0 -9.96853e-20)
(1.07301e-19 5.27878e-19 -0 -2.14602e-19 -0 1.07301e-19)
(5.43309e-19 1.08872e-18 -0 -4.77273e-19 -0 -6.60363e-20)
(7.3957e-20 7.38351e-19 -0 -1.47914e-19 -0 7.3957e-20)
(-1.42982e-20 5.22597e-19 -0 2.85963e-20 -0 -1.42982e-20)
(2.47285e-20 6.98476e-19 -0 -4.94569e-20 -0 2.47285e-20)
(1.02042e-19 7.68276e-19 -0 -2.04084e-19 -0 1.02042e-19)
(5.12465e-19 4.15988e-19 -0 -4.15585e-19 -0 -9.68803e-20)
(1.05175e-19 6.00835e-19 -0 -2.1035e-19 -0 1.05175e-19)
(1.39293e-20 2.54474e-19 -0 -2.78587e-20 -0 1.39293e-20)
(3.91696e-19 6.49523e-19 -0 -1.74046e-19 -0 -2.1765e-19)
(1.3458e-19 6.90231e-19 -0 -2.6916e-19 -0 1.3458e-19)
(1.06558e-18 -3.68102e-20 -0 -9.12467e-19 -0 -1.53112e-19)
(1.20151e-19 -1.54724e-19 -0 -2.40302e-19 -0 1.20151e-19)
(-3.78471e-21 -4.62493e-20 -0 7.56943e-21 -0 -3.78471e-21)
)
;

boundaryField
{
    movingWall
    {
        type            calculated;
        value           nonuniform List<symmTensor> 
20
(
(9.19003e-18 1.44177e-17 -0 -2.43432e-17 -0 1.51531e-17)
(6.74125e-19 -2.45085e-18 -0 8.20153e-19 -0 -1.49428e-18)
(3.47239e-19 6.21886e-18 -0 -1.23658e-18 -0 8.8934e-19)
(7.78463e-19 3.02256e-18 -0 -1.01482e-18 -0 2.36361e-19)
(8.40535e-19 3.54297e-18 -0 -1.13897e-18 -0 2.98434e-19)
(7.52478e-19 2.59612e-18 -0 -9.62855e-19 -0 2.10377e-19)
(2.96691e-19 2.14797e-18 -0 -5.93382e-19 -0 2.96691e-19)
(5.59206e-19 2.54891e-18 -0 -5.76311e-19 -0 1.7105e-20)
(-1.1646e-20 2.06416e-18 -0 2.32919e-20 -0 -1.1646e-20)
(-2.18945e-19 2.14327e-18 -0 4.3789e-19 -0 -2.18945e-19)
(-2.17448e-19 2.29974e-18 -0 4.34896e-19 -0 -2.17448e-19)
(-7.49279e-21 2.36184e-18 -0 1.49856e-20 -0 -7.49279e-21)
(5.20996e-19 2.31948e-18 -0 -4.99891e-19 -0 -2.11048e-20)
(2.56591e-19 1.76879e-18 -0 -5.13182e-19 -0 2.56591e-19)
(1.39406e-19 1.28761e-18 -0 -2.78812e-19 -0 1.39406e-19)
(4.989e-19 1.8121e-18 -0 -4.55698e-19 -0 -4.32014e-20)
(2.34723e-19 1.40423e-18 -0 -4.69445e-19 -0 2.34723e-19)
(1.05219e-18 4.11341e-19 -0 -1.02018e-18 -0 -3.2009e-20)
(1.47395e-19 -1.37649e-19 -0 -2.94789e-19 -0 1.47395e-19)
(-3.76733e-20 -4.11455e-20 -0 7.53465e-20 -0 -3.76733e-20)
)
;
    }
    fixedWalls
    {
        type            calculated;
        value           nonuniform List<symmTensor> 
60
(
(9.86686e-18 -2.30664e-16 -0 -6.41426e-17 -0 5.42758e-17)
(-3.13299e-17 -4.81806e-18 -0 1.14174e-16 -0 -8.28442e-17)
(-1.13801e-17 1.59036e-16 -0 -1.89842e-17 -0 3.03643e-17)
(3.47738e-17 -1.01346e-16 -0 -4.64549e-17 -0 1.16811e-17)
(-3.96255e-17 4.52038e-17 -0 5.79348e-17 -0 -1.83093e-17)
(3.45029e-17 5.08706e-17 -0 -5.30185e-17 -0 1.85157e-17)
(1.61909e-18 -9.37987e-17 -0 -6.79089e-18 -0 5.1718e-18)
(-5.27179e-18 2.044e-17 -0 5.13998e-17 -0 -4.6128e-17)
(-2.25334e-18 9.82752e-17 -0 -2.92441e-17 -0 3.14974e-17)
(3.93939e-17 -9.5622e-17 -0 -3.61553e-17 -0 -3.23863e-18)
(-3.26332e-17 2.10578e-17 -0 4.03974e-17 -0 -7.76419e-18)
(-2.75924e-17 1.88615e-17 -0 6.33489e-18 -0 2.12575e-17)
(7.91196e-17 6.99443e-19 -0 -2.85651e-17 -0 -5.05545e-17)
(-2.07694e-17 2.57065e-17 -0 -1.97454e-17 -0 4.05149e-17)
(-2.45043e-17 -1.05998e-16 -0 3.74623e-17 -0 -1.2958e-17)
(1.29539e-17 1.46876e-16 -0 7.84302e-18 -0 -2.07969e-17)
(4.8322e-17 -6.33544e-17 -0 -8.95385e-17 -0 4.12165e-17)
(-2.18293e-17 -1.23037e-16 -0 5.78694e-17 -0 -3.60401e-17)
(-4.831e-17 1.23109e-16 -0 5.84282e-17 -0 -1.01183e-17)
(1.14606e-17 2.67955e-17 -0 -4.24611e-17 -0 3.10005e-17)
(-8.52416e-20 -1.61233e-19 -0 1.70483e-19 -0 -8.52416e-20)
(-3.94523e-20 -3.50217e-19 -0 7.89046e-20 -0 -3.94523e-20)
(9.5825e-21 -3.97947e-19 -0 -1.9165e-20 -0 9.5825e-21)
(8.10297e-20 -2.92722e-19 -0 -1.62059e-19 -0 8.10297e-20)
(7.75727e-20 8.82314e-20 -0 -1.55145e-19 -0 7.75727e-20)
(3.57385e-20 -9.83362e-20 -0 -7.14769e-20 -0 3.57385e-20)
(1.24728e-18 3.16116e-20 -0 -7.18203e-19 -0 -5.29077e-19)
(5.79462e-19 8.22017e-19 -0 -2.70745e-19 -0 -3.08717e-19)
(-1.08991e-19 4.9777e-19 -0 2.17982e-19 -0 -1.08991e-19)
(-1.41186e-21 -3.74031e-19 -0 2.82372e-21 -0 -1.41186e-21)
(1.29357e-18 2.18248e-19 -0 -8.10775e-19 -0 -4.82791e-19)
(-3.24322e-21 8.24037e-19 -0 6.48645e-21 -0 -3.24322e-21)
(-1.00641e-19 -7.2262e-20 -0 2.01283e-19 -0 -1.00641e-19)
(5.79351e-19 -5.0862e-20 -0 -2.70524e-19 -0 -3.08827e-19)
(6.12369e-19 3.93232e-19 -0 -3.36559e-19 -0 -2.7581e-19)
(-1.5518e-20 -2.00413e-19 -0 3.10359e-20 -0 -1.5518e-20)
(5.77459e-19 2.90732e-20 -0 -2.66741e-19 -0 -3.10719e-19)
(-1.08968e-20 -1.73197e-20 -0 2.17936e-20 -0 -1.08968e-20)
(6.04424e-19 2.34743e-19 -0 -3.20669e-19 -0 -2.83755e-19)
(-3.36705e-21 5.65099e-20 -0 6.7341e-21 -0 -3.36705e-21)
(1.46728e-16 -6.88413e-17 -0 -3.04841e-16 -0 1.58112e-16)
(-2.48932e-17 5.47388e-17 -0 5.73758e-17 -0 -3.24826e-17)
(6.44056e-18 -1.74166e-17 -0 -1.39653e-17 -0 7.52477e-18)
(-1.88003e-19 -5.54755e-19 -0 2.00231e-18 -0 -1.81431e-18)
(3.53046e-19 -3.20449e-18 -0 -7.06092e-19 -0 3.53046e-19)
(5.29076e-19 -3.08382e-18 -0 -5.1605e-19 -0 -1.30255e-20)
(1.00972e-18 -2.25449e-18 -0 -9.35228e-19 -0 -7.4487e-20)
(2.58446e-19 -1.7734e-18 -0 -5.16891e-19 -0 2.58446e-19)
(6.40425e-19 -1.75675e-18 -0 -7.38749e-19 -0 9.83238e-20)
(2.06173e-19 -8.03266e-19 -0 -4.12346e-19 -0 2.06173e-19)
(4.13991e-19 -3.80365e-19 -0 -2.85881e-19 -0 -1.2811e-19)
(-3.25159e-19 -9.18833e-19 -0 1.08216e-19 -0 2.16943e-19)
(1.34335e-19 -5.29472e-19 -0 -2.6867e-19 -0 1.34335e-19)
(6.25331e-19 -8.59293e-19 -0 -7.08561e-19 -0 8.32299e-20)
(4.18709e-19 1.39815e-19 -0 -2.95317e-19 -0 -1.23392e-19)
(-1.0891e-19 6.71217e-21 -0 2.17819e-19 -0 -1.0891e-19)
(3.94093e-20 -5.5882e-19 -0 -7.88187e-20 -0 3.94093e-20)
(9.19839e-19 9.1947e-19 -0 -7.55476e-19 -0 -1.64363e-19)
(-7.66835e-19 1.00238e-18 -0 4.49468e-19 -0 3.17367e-19)
(-1.07489e-19 -5.68208e-20 -0 2.14977e-19 -0 -1.07489e-19)
)
;
    }
    frontAndBack
    {
        type            empty;
    }
}


// ************************************************************************* //
