/*--------------------------------*- C++ -*----------------------------------*\
| =========                 |                                                 |
| \\      /  F ield         | OpenFOAM: The Open Source CFD Toolbox           |
|  \\    /   O peration     | Version:  2506                                  |
|   \\  /    A nd           | Website:  www.openfoam.com                      |
|    \\/     M anipulation  |                                                 |
\*---------------------------------------------------------------------------*/
FoamFile
{
    version     2.0;
    format      ascii;
    arch        "LSB;label=32;scalar=64";
    class       volScalarField;
    location    "8";
    object      turbulenceProperties:k;
}
// * * * * * * * * * * * * * * * * * * * * * * * * * * * * * * * * * * * * * //

dimensions      [0 2 -2 0 0 0 0];

internalField   nonuniform List<scalar> 
400
(
4.10937e-06
4.10937e-06
4.10937e-06
4.10937e-06
4.10937e-06
4.10937e-06
4.10936e-06
4.10936e-06
4.10936e-06
4.10936e-06
4.10936e-06
4.10936e-06
4.10936e-06
4.10936e-06
4.10936e-06
4.10936e-06
4.10936e-06
4.10936e-06
4.10936e-06
4.10936e-06
4.19635e-06
4.19635e-06
4.19623e-06
4.19617e-06
4.19609e-06
4.19603e-06
4.19596e-06
4.19591e-06
4.19585e-06
4.19581e-06
4.19576e-06
4.19573e-06
4.1957e-06
4.19567e-06
4.19564e-06
4.19563e-06
4.19561e-06
4.1956e-06
4.19559e-06
4.19559e-06
4.33184e-06
4.33183e-06
4.3317e-06
4.33164e-06
4.33153e-06
4.33148e-06
4.3314e-06
4.33135e-06
4.33129e-06
4.33125e-06
4.33119e-06
4.33117e-06
4.33111e-06
4.3311e-06
4.33106e-06
4.33105e-06
4.33102e-06
4.33102e-06
4.33101e-06
4.33101e-06
4.47135e-06
4.47134e-06
4.4712e-06
4.47114e-06
4.47102e-06
4.47098e-06
4.47087e-06
4.47084e-06
4.47075e-06
4.47073e-06
4.47064e-06
4.47064e-06
4.47056e-06
4.47057e-06
4.47051e-06
4.47051e-06
4.47047e-06
4.47048e-06
4.47047e-06
4.47046e-06
4.58626e-06
4.58625e-06
4.5861e-06
4.58602e-06
4.58593e-06
4.58584e-06
4.58579e-06
4.5857e-06
4.58566e-06
4.58557e-06
4.58555e-06
4.58548e-06
4.58546e-06
4.58542e-06
4.58539e-06
4.58537e-06
4.58535e-06
4.58534e-06
4.58533e-06
4.58533e-06
4.66843e-06
4.66843e-06
4.66827e-06
4.66819e-06
4.66809e-06
4.66802e-06
4.66793e-06
4.66787e-06
4.6678e-06
4.66774e-06
4.66769e-06
4.66764e-06
4.6676e-06
4.66756e-06
4.66753e-06
4.66751e-06
4.66749e-06
4.66748e-06
4.66747e-06
4.66747e-06
4.72229e-06
4.72228e-06
4.72212e-06
4.72204e-06
4.72194e-06
4.72187e-06
4.72177e-06
4.72171e-06
4.72163e-06
4.72158e-06
4.72152e-06
4.72148e-06
4.72143e-06
4.7214e-06
4.72137e-06
4.72134e-06
4.72132e-06
4.72131e-06
4.7213e-06
4.7213e-06
4.75626e-06
4.75626e-06
4.7561e-06
4.75602e-06
4.75591e-06
4.75583e-06
4.75574e-06
4.75568e-06
4.75561e-06
4.75555e-06
4.75549e-06
4.75544e-06
4.7554e-06
4.75536e-06
4.75533e-06
4.75531e-06
4.75529e-06
4.75527e-06
4.75527e-06
4.75526e-06
4.77809e-06
4.77809e-06
4.77793e-06
4.77784e-06
4.77774e-06
4.77765e-06
4.77758e-06
4.77749e-06
4.77744e-06
4.77736e-06
4.77732e-06
4.77726e-06
4.77722e-06
4.77718e-06
4.77715e-06
4.77713e-06
4.77711e-06
4.77709e-06
4.77709e-06
4.77708e-06
4.79331e-06
4.7933e-06
4.79314e-06
4.79306e-06
4.79295e-06
4.79287e-06
4.79278e-06
4.79272e-06
4.79264e-06
4.79258e-06
4.79252e-06
4.79247e-06
4.79243e-06
4.79239e-06
4.79236e-06
4.79233e-06
4.79231e-06
4.7923e-06
4.79229e-06
4.79229e-06
4.80539e-06
4.80538e-06
4.80521e-06
4.80514e-06
4.80501e-06
4.80495e-06
4.80484e-06
4.80479e-06
4.8047e-06
4.80467e-06
4.80457e-06
4.80456e-06
4.80448e-06
4.80448e-06
4.80441e-06
4.80442e-06
4.80437e-06
4.80438e-06
4.80436e-06
4.80436e-06
4.81636e-06
4.81636e-06
4.81619e-06
4.81611e-06
4.81599e-06
4.81592e-06
4.81583e-06
4.81576e-06
4.81568e-06
4.81563e-06
4.81557e-06
4.81552e-06
4.81547e-06
4.81544e-06
4.8154e-06
4.81538e-06
4.81536e-06
4.81534e-06
4.81534e-06
4.81533e-06
4.82741e-06
4.82741e-06
4.82724e-06
4.82716e-06
4.82704e-06
4.82697e-06
4.82688e-06
4.82681e-06
4.82673e-06
4.82668e-06
4.82662e-06
4.82657e-06
4.82652e-06
4.82648e-06
4.82645e-06
4.82643e-06
4.82641e-06
4.82639e-06
4.82638e-06
4.82638e-06
4.8392e-06
4.83919e-06
4.83903e-06
4.83894e-06
4.83884e-06
4.83875e-06
4.83867e-06
4.83858e-06
4.83853e-06
4.83845e-06
4.8384e-06
4.83834e-06
4.8383e-06
4.83826e-06
4.83823e-06
4.83821e-06
4.83819e-06
4.83817e-06
4.83817e-06
4.83816e-06
4.85202e-06
4.85201e-06
4.85184e-06
4.85176e-06
4.85164e-06
4.85157e-06
4.85147e-06
4.85141e-06
4.85133e-06
4.85127e-06
4.85121e-06
4.85116e-06
4.85111e-06
4.85108e-06
4.85104e-06
4.85102e-06
4.851e-06
4.85099e-06
4.85098e-06
4.85097e-06
4.86578e-06
4.86577e-06
4.86559e-06
4.8655e-06
4.8654e-06
4.8653e-06
4.86524e-06
4.86513e-06
4.8651e-06
4.865e-06
4.86497e-06
4.86489e-06
4.86487e-06
4.86482e-06
4.86479e-06
4.86477e-06
4.86475e-06
4.86473e-06
4.86472e-06
4.86472e-06
4.87983e-06
4.87982e-06
4.87965e-06
4.87957e-06
4.87944e-06
4.87938e-06
4.87928e-06
4.87922e-06
4.87913e-06
4.87909e-06
4.879e-06
4.87898e-06
4.8789e-06
4.87889e-06
4.87883e-06
4.87883e-06
4.87879e-06
4.87879e-06
4.87877e-06
4.87877e-06
4.89292e-06
4.89291e-06
4.89275e-06
4.89266e-06
4.89254e-06
4.89247e-06
4.89237e-06
4.8923e-06
4.89222e-06
4.89216e-06
4.8921e-06
4.89205e-06
4.892e-06
4.89197e-06
4.89193e-06
4.89191e-06
4.89189e-06
4.89187e-06
4.89186e-06
4.89186e-06
4.90323e-06
4.90323e-06
4.90307e-06
4.90298e-06
4.90287e-06
4.90279e-06
4.9027e-06
4.90263e-06
4.90256e-06
4.9025e-06
4.90244e-06
4.90239e-06
4.90234e-06
4.9023e-06
4.90227e-06
4.90224e-06
4.90222e-06
4.90221e-06
4.9022e-06
4.9022e-06
4.90797e-06
4.90796e-06
4.90796e-06
4.90796e-06
4.90796e-06
4.90796e-06
4.90796e-06
4.90796e-06
4.90795e-06
4.90795e-06
4.90795e-06
4.90795e-06
4.90795e-06
4.90795e-06
4.90795e-06
4.90795e-06
4.90795e-06
4.90795e-06
4.90795e-06
4.90795e-06
)
;

boundaryField
{
    movingWall
    {
        type            kqRWallFunction;
        value           nonuniform List<scalar> 
20
(
4.90797e-06
4.90796e-06
4.90796e-06
4.90796e-06
4.90796e-06
4.90796e-06
4.90796e-06
4.90796e-06
4.90795e-06
4.90795e-06
4.90795e-06
4.90795e-06
4.90795e-06
4.90795e-06
4.90795e-06
4.90795e-06
4.90795e-06
4.90795e-06
4.90795e-06
4.90795e-06
)
;
    }
    fixedWalls
    {
        type            kqRWallFunction;
        value           nonuniform List<scalar> 
60
(
4.10937e-06
4.19635e-06
4.33184e-06
4.47135e-06
4.58626e-06
4.66843e-06
4.72229e-06
4.75626e-06
4.77809e-06
4.79331e-06
4.80539e-06
4.81636e-06
4.82741e-06
4.8392e-06
4.85202e-06
4.86578e-06
4.87983e-06
4.89292e-06
4.90323e-06
4.90797e-06
4.10936e-06
4.19559e-06
4.33101e-06
4.47046e-06
4.58533e-06
4.66747e-06
4.7213e-06
4.75526e-06
4.77708e-06
4.79229e-06
4.80436e-06
4.81533e-06
4.82638e-06
4.83816e-06
4.85097e-06
4.86472e-06
4.87877e-06
4.89186e-06
4.9022e-06
4.90795e-06
4.10937e-06
4.10937e-06
4.10937e-06
4.10937e-06
4.10937e-06
4.10937e-06
4.10936e-06
4.10936e-06
4.10936e-06
4.10936e-06
4.10936e-06
4.10936e-06
4.10936e-06
4.10936e-06
4.10936e-06
4.10936e-06
4.10936e-06
4.10936e-06
4.10936e-06
4.10936e-06
)
;
    }
    frontAndBack
    {
        type            empty;
    }
}


// ************************************************************************* //
