/*--------------------------------*- C++ -*----------------------------------*\
| =========                 |                                                 |
| \\      /  F ield         | OpenFOAM: The Open Source CFD Toolbox           |
|  \\    /   O peration     | Version:  2506                                  |
|   \\  /    A nd           | Website:  www.openfoam.com                      |
|    \\/     M anipulation  |                                                 |
\*---------------------------------------------------------------------------*/
FoamFile
{
    version     2.0;
    format      ascii;
    arch        "LSB;label=32;scalar=64";
    class       volScalarField;
    location    "8";
    object      turbulenceProperties:omega;
}
// * * * * * * * * * * * * * * * * * * * * * * * * * * * * * * * * * * * * * //

dimensions      [0 0 -1 0 0 0 0];

internalField   nonuniform List<scalar> 
400
(
3.61936
3.61935
3.61935
3.61935
3.61935
3.61935
3.61935
3.61935
3.61935
3.61936
3.61935
3.61936
3.61935
3.61936
3.61935
3.61935
3.61935
3.61935
3.61935
3.61935
3.65767
3.61312
3.61698
3.6186
3.6218
3.62344
3.62665
3.62832
3.63152
3.63323
3.63642
3.63818
3.64136
3.64315
3.64633
3.64816
3.65135
3.6532
3.65481
3.65733
3.71653
3.66976
3.67389
3.67561
3.67902
3.68075
3.68414
3.6859
3.68929
3.69106
3.69444
3.69624
3.69961
3.70144
3.7048
3.70665
3.71
3.71188
3.71356
3.71617
3.77613
3.72785
3.73211
3.73389
3.73742
3.73918
3.74271
3.7445
3.74802
3.74984
3.75334
3.75518
3.75868
3.76055
3.76403
3.76593
3.7694
3.77133
3.77306
3.77575
3.82449
3.77494
3.77931
3.78114
3.78473
3.78659
3.79016
3.79205
3.79561
3.79753
3.80107
3.80301
3.80655
3.80851
3.81205
3.81402
3.81756
3.81956
3.82133
3.8241
3.85868
3.8082
3.81265
3.81451
3.81819
3.82005
3.82372
3.82562
3.82926
3.8312
3.83482
3.83679
3.8404
3.84239
3.846
3.84801
3.85162
3.85365
3.85546
3.85827
3.8809
3.82982
3.83432
3.83621
3.83992
3.84181
3.84552
3.84744
3.85113
3.85308
3.85676
3.85875
3.86241
3.86442
3.86807
3.87011
3.87375
3.87581
3.87764
3.88049
3.89486
3.84339
3.84793
3.84982
3.85357
3.85547
3.85921
3.86114
3.86486
3.86683
3.87053
3.87253
3.87622
3.87825
3.88192
3.88398
3.88765
3.88973
3.89157
3.89444
3.90379
3.85208
3.85664
3.85855
3.8623
3.86422
3.86797
3.86992
3.87364
3.87564
3.87934
3.88136
3.88506
3.8871
3.8908
3.89286
3.89655
3.89864
3.90049
3.90337
3.91001
3.85813
3.8627
3.86461
3.86839
3.8703
3.87407
3.87602
3.87977
3.88175
3.88548
3.8875
3.89122
3.89326
3.89697
3.89904
3.90274
3.90483
3.90669
3.90959
3.91494
3.86292
3.86751
3.86942
3.87322
3.87512
3.87892
3.88085
3.88463
3.8866
3.89036
3.89236
3.89611
3.89813
3.90188
3.90393
3.90766
3.90975
3.91161
3.91452
3.91942
3.86728
3.87187
3.8738
3.87759
3.87952
3.8833
3.88526
3.88903
3.89102
3.89477
3.8968
3.90053
3.90259
3.90631
3.90839
3.91211
3.91422
3.91608
3.91899
3.92392
3.87166
3.87627
3.8782
3.882
3.88393
3.88772
3.88969
3.89346
3.89546
3.89922
3.90125
3.90499
3.90705
3.91079
3.91287
3.9166
3.91871
3.92058
3.9235
3.92872
3.87634
3.88095
3.88289
3.88668
3.88863
3.89243
3.89441
3.89818
3.9002
3.90395
3.906
3.90974
3.91181
3.91555
3.91764
3.92138
3.92349
3.92537
3.92829
3.93393
3.88141
3.88604
3.88797
3.89179
3.89374
3.89755
3.89952
3.90332
3.90532
3.9091
3.91114
3.91491
3.91698
3.92073
3.92283
3.92657
3.92869
3.93057
3.93351
3.93952
3.88685
3.89149
3.89344
3.89726
3.89922
3.90302
3.90503
3.9088
3.91085
3.91461
3.91668
3.92043
3.92252
3.92628
3.92838
3.93214
3.93426
3.93615
3.93909
3.94523
3.8924
3.89706
3.899
3.90285
3.9048
3.90864
3.91061
3.91444
3.91644
3.92026
3.92229
3.9261
3.92816
3.93196
3.93405
3.93783
3.93995
3.94185
3.94479
3.95054
3.89759
3.90225
3.9042
3.90805
3.91001
3.91385
3.91584
3.91966
3.92169
3.92549
3.92756
3.93135
3.93344
3.93722
3.93934
3.94311
3.94525
3.94715
3.9501
3.95471
3.90267
3.90717
3.90905
3.91279
3.9147
3.91844
3.92039
3.92412
3.92612
3.92984
3.9319
3.93561
3.93771
3.94143
3.94356
3.94729
3.94946
3.95133
3.95429
3.95662
3.95662
3.95662
3.95662
3.95662
3.95662
3.95662
3.95662
3.95662
3.95662
3.95662
3.95662
3.95662
3.95662
3.95662
3.95662
3.95662
3.95662
3.95662
3.95662
)
;

boundaryField
{
    movingWall
    {
        type            calculated;
        value           nonuniform List<scalar> 
20
(
3.95662
3.95662
3.95662
3.95662
3.95662
3.95662
3.95662
3.95662
3.95662
3.95662
3.95662
3.95662
3.95662
3.95662
3.95662
3.95662
3.95662
3.95662
3.95662
3.95662
)
;
    }
    fixedWalls
    {
        type            calculated;
        value           nonuniform List<scalar> 
60
(
3.61936
3.65767
3.71653
3.77613
3.82449
3.85868
3.8809
3.89486
3.90379
3.91001
3.91494
3.91942
3.92392
3.92872
3.93393
3.93952
3.94523
3.95054
3.95471
3.95662
3.61935
3.65733
3.71617
3.77575
3.8241
3.85827
3.88049
3.89444
3.90337
3.90959
3.91452
3.91899
3.9235
3.92829
3.93351
3.93909
3.94479
3.9501
3.95429
3.95662
3.61936
3.61935
3.61935
3.61935
3.61935
3.61935
3.61935
3.61935
3.61935
3.61936
3.61935
3.61936
3.61935
3.61936
3.61935
3.61935
3.61935
3.61935
3.61935
3.61935
)
;
    }
    frontAndBack
    {
        type            empty;
    }
}


// ************************************************************************* //
