/*--------------------------------*- C++ -*----------------------------------*\
| =========                 |                                                 |
| \\      /  F ield         | OpenFOAM: The Open Source CFD Toolbox           |
|  \\    /   O peration     | Version:  2506                                  |
|   \\  /    A nd           | Website:  www.openfoam.com                      |
|    \\/     M anipulation  |                                                 |
\*---------------------------------------------------------------------------*/
FoamFile
{
    version     2.0;
    format      ascii;
    arch        "LSB;label=32;scalar=64";
    class       volScalarField;
    location    "8";
    object      turbulenceProperties:L;
}
// * * * * * * * * * * * * * * * * * * * * * * * * * * * * * * * * * * * * * //

dimensions      [0 1 0 0 0 0 0];

internalField   nonuniform List<scalar> 
400
(
0.00102258
0.00102258
0.00102258
0.00102258
0.00102258
0.00102258
0.00102258
0.00102258
0.00102258
0.00102258
0.00102258
0.00102258
0.00102258
0.00102258
0.00102258
0.00102258
0.00102258
0.00102258
0.00102258
0.00102258
0.00102252
0.00103513
0.001034
0.00103353
0.00103261
0.00103214
0.00103122
0.00103074
0.00102982
0.00102933
0.00102842
0.00102792
0.00102702
0.00102651
0.00102561
0.00102509
0.0010242
0.00102368
0.00102323
0.00102252
0.00102244
0.00103547
0.00103429
0.0010338
0.00103283
0.00103234
0.00103138
0.00103088
0.00102992
0.00102943
0.00102848
0.00102797
0.00102703
0.00102652
0.00102558
0.00102507
0.00102414
0.00102362
0.00102316
0.00102244
0.00102238
0.00103562
0.00103442
0.00103392
0.00103293
0.00103244
0.00103145
0.00103096
0.00102998
0.00102948
0.00102851
0.001028
0.00102704
0.00102653
0.00102557
0.00102505
0.0010241
0.00102358
0.00102311
0.00102238
0.00102234
0.00103576
0.00103454
0.00103403
0.00103304
0.00103253
0.00103155
0.00103102
0.00103005
0.00102952
0.00102856
0.00102803
0.00102707
0.00102654
0.00102558
0.00102505
0.00102409
0.00102356
0.00102308
0.00102234
0.00102232
0.00103587
0.00103464
0.00103413
0.00103312
0.00103261
0.00103161
0.00103109
0.0010301
0.00102958
0.0010286
0.00102806
0.00102709
0.00102656
0.00102559
0.00102505
0.00102409
0.00102355
0.00102307
0.00102232
0.00102231
0.00103595
0.00103471
0.00103419
0.00103318
0.00103267
0.00103166
0.00103114
0.00103014
0.00102961
0.00102863
0.00102809
0.00102711
0.00102657
0.0010256
0.00102506
0.00102409
0.00102355
0.00102306
0.00102231
0.00102231
0.00103599
0.00103476
0.00103424
0.00103322
0.0010327
0.00103169
0.00103117
0.00103017
0.00102964
0.00102865
0.00102811
0.00102713
0.00102659
0.00102561
0.00102507
0.0010241
0.00102355
0.00102306
0.00102231
0.0010223
0.00103603
0.00103479
0.00103426
0.00103325
0.00103272
0.00103172
0.00103119
0.00103019
0.00102965
0.00102866
0.00102812
0.00102714
0.00102659
0.00102562
0.00102507
0.0010241
0.00102355
0.00102306
0.00102231
0.0010223
0.00103605
0.00103481
0.00103428
0.00103326
0.00103274
0.00103173
0.0010312
0.0010302
0.00102967
0.00102867
0.00102813
0.00102714
0.0010266
0.00102562
0.00102507
0.0010241
0.00102355
0.00102306
0.0010223
0.0010223
0.00103607
0.00103482
0.0010343
0.00103327
0.00103276
0.00103174
0.00103122
0.0010302
0.00102968
0.00102867
0.00102814
0.00102714
0.00102661
0.00102562
0.00102508
0.0010241
0.00102355
0.00102306
0.0010223
0.0010223
0.00103608
0.00103483
0.00103431
0.00103329
0.00103276
0.00103175
0.00103122
0.00103021
0.00102968
0.00102868
0.00102814
0.00102715
0.00102661
0.00102563
0.00102508
0.0010241
0.00102355
0.00102306
0.0010223
0.00102229
0.00103609
0.00103484
0.00103432
0.0010333
0.00103277
0.00103176
0.00103123
0.00103022
0.00102969
0.00102869
0.00102815
0.00102716
0.00102661
0.00102563
0.00102508
0.0010241
0.00102355
0.00102306
0.0010223
0.00102229
0.00103611
0.00103486
0.00103433
0.00103331
0.00103278
0.00103177
0.00103123
0.00103023
0.00102969
0.00102869
0.00102815
0.00102716
0.00102661
0.00102563
0.00102508
0.0010241
0.00102355
0.00102306
0.00102229
0.00102229
0.00103612
0.00103487
0.00103435
0.00103332
0.00103279
0.00103177
0.00103125
0.00103023
0.0010297
0.0010287
0.00102815
0.00102716
0.00102661
0.00102563
0.00102508
0.0010241
0.00102354
0.00102305
0.00102229
0.00102229
0.00103614
0.00103488
0.00103436
0.00103333
0.0010328
0.00103179
0.00103125
0.00103025
0.0010297
0.00102871
0.00102815
0.00102717
0.00102662
0.00102563
0.00102508
0.0010241
0.00102354
0.00102305
0.00102229
0.00102228
0.00103615
0.0010349
0.00103437
0.00103334
0.00103282
0.00103179
0.00103126
0.00103025
0.00102971
0.0010287
0.00102817
0.00102716
0.00102662
0.00102562
0.00102508
0.00102409
0.00102354
0.00102305
0.00102228
0.00102227
0.00103616
0.00103491
0.00103438
0.00103335
0.00103282
0.0010318
0.00103127
0.00103025
0.00102971
0.00102871
0.00102816
0.00102717
0.00102662
0.00102563
0.00102507
0.00102409
0.00102353
0.00102304
0.00102228
0.00102227
0.0010359
0.00103469
0.00103418
0.00103318
0.00103267
0.00103168
0.00103116
0.00103017
0.00102964
0.00102866
0.00102811
0.00102714
0.00102659
0.00102562
0.00102506
0.00102409
0.00102352
0.00102304
0.00102227
0.00102227
0.00102227
0.00102227
0.00102227
0.00102227
0.00102227
0.00102227
0.00102227
0.00102227
0.00102227
0.00102227
0.00102227
0.00102227
0.00102227
0.00102227
0.00102227
0.00102227
0.00102227
0.00102227
0.00102227
)
;

boundaryField
{
    movingWall
    {
        type            calculated;
        value           nonuniform List<scalar> 
20
(
0.00102227
0.00102227
0.00102227
0.00102227
0.00102227
0.00102227
0.00102227
0.00102227
0.00102227
0.00102227
0.00102227
0.00102227
0.00102227
0.00102227
0.00102227
0.00102227
0.00102227
0.00102227
0.00102227
0.00102227
)
;
    }
    fixedWalls
    {
        type            calculated;
        value           nonuniform List<scalar> 
60
(
0.00102258
0.00102252
0.00102244
0.00102238
0.00102234
0.00102232
0.00102231
0.00102231
0.0010223
0.0010223
0.0010223
0.0010223
0.00102229
0.00102229
0.00102229
0.00102229
0.00102228
0.00102227
0.00102227
0.00102227
0.00102258
0.00102252
0.00102244
0.00102238
0.00102234
0.00102232
0.00102231
0.00102231
0.00102231
0.0010223
0.0010223
0.0010223
0.0010223
0.00102229
0.00102229
0.00102229
0.00102228
0.00102228
0.00102227
0.00102227
0.00102258
0.00102258
0.00102258
0.00102258
0.00102258
0.00102258
0.00102258
0.00102258
0.00102258
0.00102258
0.00102258
0.00102258
0.00102258
0.00102258
0.00102258
0.00102258
0.00102258
0.00102258
0.00102258
0.00102258
)
;
    }
    frontAndBack
    {
        type            empty;
    }
}


// ************************************************************************* //
