/*--------------------------------*- C++ -*----------------------------------*\
| =========                 |                                                 |
| \\      /  F ield         | OpenFOAM: The Open Source CFD Toolbox           |
|  \\    /   O peration     | Version:  2506                                  |
|   \\  /    A nd           | Website:  www.openfoam.com                      |
|    \\/     M anipulation  |                                                 |
\*---------------------------------------------------------------------------*/
FoamFile
{
    version     2.0;
    format      ascii;
    arch        "LSB;label=32;scalar=64";
    class       volSymmTensorField;
    location    "8";
    object      turbulenceProperties:R;
}
// * * * * * * * * * * * * * * * * * * * * * * * * * * * * * * * * * * * * * //

dimensions      [0 2 -2 0 0 0 0];

internalField   nonuniform List<symmTensor> 
400
(
(2.73958e-06 -5.20277e-18 -0 2.73958e-06 -0 2.73958e-06)
(2.73958e-06 6.2654e-18 -0 2.73958e-06 -0 2.73958e-06)
(2.73958e-06 -1.22113e-18 -0 2.73958e-06 -0 2.73958e-06)
(2.73958e-06 1.97639e-19 -0 2.73958e-06 -0 2.73958e-06)
(2.73958e-06 -9.20805e-20 -0 2.73958e-06 -0 2.73958e-06)
(2.73958e-06 -2.7959e-20 -0 2.73958e-06 -0 2.73958e-06)
(2.73958e-06 -3.46395e-20 -0 2.73958e-06 -0 2.73958e-06)
(2.73958e-06 3.35915e-22 -0 2.73958e-06 -0 2.73958e-06)
(2.73957e-06 2.22561e-21 -0 2.73957e-06 -0 2.73957e-06)
(2.73958e-06 9.64087e-21 -0 2.73958e-06 -0 2.73958e-06)
(2.73957e-06 7.23515e-21 -0 2.73957e-06 -0 2.73957e-06)
(2.73958e-06 -6.50298e-20 -0 2.73958e-06 -0 2.73958e-06)
(2.73957e-06 -9.69428e-21 -0 2.73957e-06 -0 2.73957e-06)
(2.73957e-06 -5.82698e-20 -0 2.73957e-06 -0 2.73957e-06)
(2.73957e-06 1.58744e-20 -0 2.73957e-06 -0 2.73957e-06)
(2.73957e-06 7.6209e-22 -0 2.73957e-06 -0 2.73957e-06)
(2.73957e-06 -1.30263e-20 -0 2.73957e-06 -0 2.73957e-06)
(2.73957e-06 9.58768e-20 -0 2.73957e-06 -0 2.73957e-06)
(2.73957e-06 1.29658e-20 -0 2.73957e-06 -0 2.73957e-06)
(2.73957e-06 -6.45135e-21 -0 2.73957e-06 -0 2.73957e-06)
(2.79757e-06 -8.33126e-20 -0 2.79757e-06 -0 2.79757e-06)
(2.79757e-06 1.78029e-19 -0 2.79757e-06 -0 2.79757e-06)
(2.79749e-06 1.36468e-19 -0 2.79749e-06 -0 2.79749e-06)
(2.79744e-06 2.82656e-20 -0 2.79744e-06 -0 2.79744e-06)
(2.79739e-06 8.96381e-20 -0 2.79739e-06 -0 2.79739e-06)
(2.79735e-06 9.138e-20 -0 2.79735e-06 -0 2.79735e-06)
(2.79731e-06 3.77661e-20 -0 2.79731e-06 -0 2.79731e-06)
(2.79728e-06 7.29277e-20 -0 2.79728e-06 -0 2.79728e-06)
(2.79723e-06 7.47064e-20 -0 2.79723e-06 -0 2.79723e-06)
(2.79721e-06 6.96711e-20 -0 2.79721e-06 -0 2.79721e-06)
(2.79718e-06 6.26642e-20 -0 2.79718e-06 -0 2.79718e-06)
(2.79715e-06 1.21006e-19 -0 2.79715e-06 -0 2.79715e-06)
(2.79713e-06 4.25481e-20 -0 2.79713e-06 -0 2.79713e-06)
(2.79711e-06 5.1901e-20 -0 2.79711e-06 -0 2.79711e-06)
(2.7971e-06 8.19108e-21 -0 2.7971e-06 -0 2.7971e-06)
(2.79708e-06 2.58673e-21 -0 2.79708e-06 -0 2.79708e-06)
(2.79707e-06 1.22411e-20 -0 2.79707e-06 -0 2.79707e-06)
(2.79707e-06 -3.09771e-21 -0 2.79707e-06 -0 2.79707e-06)
(2.79706e-06 -2.32575e-20 -0 2.79706e-06 -0 2.79706e-06)
(2.79706e-06 -2.84357e-20 -0 2.79706e-06 -0 2.79706e-06)
(2.88789e-06 3.4204e-18 -0 2.88789e-06 -0 2.88789e-06)
(2.88789e-06 -4.70615e-18 -0 2.88789e-06 -0 2.88789e-06)
(2.8878e-06 6.38678e-19 -0 2.8878e-06 -0 2.8878e-06)
(2.88776e-06 -2.59151e-19 -0 2.88776e-06 -0 2.88776e-06)
(2.88769e-06 -1.43366e-19 -0 2.88769e-06 -0 2.88769e-06)
(2.88765e-06 -1.54928e-19 -0 2.88765e-06 -0 2.88765e-06)
(2.8876e-06 -6.49496e-20 -0 2.8876e-06 -0 2.8876e-06)
(2.88757e-06 -1.21061e-19 -0 2.88757e-06 -0 2.88757e-06)
(2.88752e-06 -1.15549e-19 -0 2.88752e-06 -0 2.88752e-06)
(2.8875e-06 -6.28626e-20 -0 2.8875e-06 -0 2.8875e-06)
(2.88746e-06 -5.37708e-20 -0 2.88746e-06 -0 2.88746e-06)
(2.88745e-06 9.95875e-21 -0 2.88745e-06 -0 2.88745e-06)
(2.88741e-06 1.28876e-20 -0 2.88741e-06 -0 2.88741e-06)
(2.8874e-06 2.68647e-20 -0 2.8874e-06 -0 2.8874e-06)
(2.88737e-06 -4.66462e-20 -0 2.88737e-06 -0 2.88737e-06)
(2.88737e-06 1.65439e-20 -0 2.88737e-06 -0 2.88737e-06)
(2.88735e-06 5.72972e-21 -0 2.88735e-06 -0 2.88735e-06)
(2.88735e-06 -3.07789e-20 -0 2.88735e-06 -0 2.88735e-06)
(2.88734e-06 -6.62501e-21 -0 2.88734e-06 -0 2.88734e-06)
(2.88734e-06 -3.71215e-20 -0 2.88734e-06 -0 2.88734e-06)
(2.9809e-06 -2.11434e-18 -0 2.9809e-06 -0 2.9809e-06)
(2.9809e-06 3.09522e-18 -0 2.9809e-06 -0 2.9809e-06)
(2.9808e-06 -5.63262e-19 -0 2.9808e-06 -0 2.9808e-06)
(2.98076e-06 1.63221e-19 -0 2.98076e-06 -0 2.98076e-06)
(2.98068e-06 -1.18916e-20 -0 2.98068e-06 -0 2.98068e-06)
(2.98065e-06 2.09026e-20 -0 2.98065e-06 -0 2.98065e-06)
(2.98058e-06 -1.15752e-20 -0 2.98058e-06 -0 2.98058e-06)
(2.98056e-06 2.00378e-20 -0 2.98056e-06 -0 2.98056e-06)
(2.9805e-06 2.36879e-20 -0 2.9805e-06 -0 2.9805e-06)
(2.98049e-06 -5.70572e-20 -0 2.98049e-06 -0 2.98049e-06)
(2.98043e-06 -6.09378e-20 -0 2.98043e-06 -0 2.98043e-06)
(2.98043e-06 -8.84595e-20 -0 2.98043e-06 -0 2.98043e-06)
(2.98037e-06 -7.91129e-20 -0 2.98037e-06 -0 2.98037e-06)
(2.98038e-06 -1.19074e-21 -0 2.98038e-06 -0 2.98038e-06)
(2.98034e-06 -5.02431e-20 -0 2.98034e-06 -0 2.98034e-06)
(2.98034e-06 -3.08542e-20 -0 2.98034e-06 -0 2.98034e-06)
(2.98032e-06 -1.56311e-20 -0 2.98032e-06 -0 2.98032e-06)
(2.98032e-06 -5.12921e-20 -0 2.98032e-06 -0 2.98032e-06)
(2.98031e-06 -3.3098e-21 -0 2.98031e-06 -0 2.98031e-06)
(2.98031e-06 -2.22572e-20 -0 2.98031e-06 -0 2.98031e-06)
(3.05751e-06 9.6076e-19 -0 3.05751e-06 -0 3.05751e-06)
(3.0575e-06 -1.22542e-18 -0 3.0575e-06 -0 3.0575e-06)
(3.0574e-06 3.00349e-19 -0 3.0574e-06 -0 3.0574e-06)
(3.05735e-06 -4.04145e-20 -0 3.05735e-06 -0 3.05735e-06)
(3.05729e-06 1.61055e-20 -0 3.05729e-06 -0 3.05729e-06)
(3.05723e-06 3.41428e-20 -0 3.05723e-06 -0 3.05723e-06)
(3.05719e-06 -6.12607e-21 -0 3.05719e-06 -0 3.05719e-06)
(3.05713e-06 3.0713e-22 -0 3.05713e-06 -0 3.05713e-06)
(3.05711e-06 9.1725e-21 -0 3.05711e-06 -0 3.05711e-06)
(3.05705e-06 4.29442e-20 -0 3.05705e-06 -0 3.05705e-06)
(3.05703e-06 3.21773e-20 -0 3.05703e-06 -0 3.05703e-06)
(3.05699e-06 -2.1672e-20 -0 3.05699e-06 -0 3.05699e-06)
(3.05697e-06 -3.15272e-20 -0 3.05697e-06 -0 3.05697e-06)
(3.05695e-06 -1.07244e-19 -0 3.05695e-06 -0 3.05695e-06)
(3.05693e-06 -2.10544e-20 -0 3.05693e-06 -0 3.05693e-06)
(3.05691e-06 2.25754e-22 -0 3.05691e-06 -0 3.05691e-06)
(3.0569e-06 -7.49647e-21 -0 3.0569e-06 -0 3.0569e-06)
(3.05689e-06 6.01664e-21 -0 3.05689e-06 -0 3.05689e-06)
(3.05689e-06 6.36908e-21 -0 3.05689e-06 -0 3.05689e-06)
(3.05688e-06 7.33898e-21 -0 3.05688e-06 -0 3.05688e-06)
(3.11229e-06 1.50753e-18 -0 3.11229e-06 -0 3.11229e-06)
(3.11229e-06 -1.54377e-18 -0 3.11229e-06 -0 3.11229e-06)
(3.11218e-06 3.32867e-19 -0 3.11218e-06 -0 3.11218e-06)
(3.11213e-06 -2.44389e-20 -0 3.11213e-06 -0 3.11213e-06)
(3.11206e-06 7.6317e-20 -0 3.11206e-06 -0 3.11206e-06)
(3.11201e-06 6.8716e-20 -0 3.11201e-06 -0 3.11201e-06)
(3.11195e-06 6.06694e-20 -0 3.11195e-06 -0 3.11195e-06)
(3.11191e-06 1.23131e-19 -0 3.11191e-06 -0 3.11191e-06)
(3.11187e-06 1.22407e-19 -0 3.11187e-06 -0 3.11187e-06)
(3.11182e-06 3.22913e-20 -0 3.11182e-06 -0 3.11182e-06)
(3.11179e-06 4.97389e-20 -0 3.11179e-06 -0 3.11179e-06)
(3.11176e-06 2.94784e-20 -0 3.11176e-06 -0 3.11176e-06)
(3.11173e-06 1.43974e-20 -0 3.11173e-06 -0 3.11173e-06)
(3.11171e-06 -2.64861e-21 -0 3.11171e-06 -0 3.11171e-06)
(3.11169e-06 3.02308e-20 -0 3.11169e-06 -0 3.11169e-06)
(3.11167e-06 -4.59361e-21 -0 3.11167e-06 -0 3.11167e-06)
(3.11166e-06 1.68367e-20 -0 3.11166e-06 -0 3.11166e-06)
(3.11165e-06 5.62908e-20 -0 3.11165e-06 -0 3.11165e-06)
(3.11165e-06 9.59402e-21 -0 3.11165e-06 -0 3.11165e-06)
(3.11165e-06 -1.56582e-20 -0 3.11165e-06 -0 3.11165e-06)
(3.14819e-06 -1.99542e-18 -0 3.14819e-06 -0 3.14819e-06)
(3.14819e-06 3.00374e-18 -0 3.14819e-06 -0 3.14819e-06)
(3.14808e-06 -3.89219e-19 -0 3.14808e-06 -0 3.14808e-06)
(3.14803e-06 2.03002e-19 -0 3.14803e-06 -0 3.14803e-06)
(3.14796e-06 1.07092e-19 -0 3.14796e-06 -0 3.14796e-06)
(3.14791e-06 1.16537e-19 -0 3.14791e-06 -0 3.14791e-06)
(3.14785e-06 1.72939e-19 -0 3.14785e-06 -0 3.14785e-06)
(3.14781e-06 5.21465e-20 -0 3.14781e-06 -0 3.14781e-06)
(3.14776e-06 4.05606e-20 -0 3.14776e-06 -0 3.14776e-06)
(3.14772e-06 9.70518e-20 -0 3.14772e-06 -0 3.14772e-06)
(3.14768e-06 9.98268e-20 -0 3.14768e-06 -0 3.14768e-06)
(3.14765e-06 6.55252e-20 -0 3.14765e-06 -0 3.14765e-06)
(3.14762e-06 5.82486e-20 -0 3.14762e-06 -0 3.14762e-06)
(3.1476e-06 5.89476e-20 -0 3.1476e-06 -0 3.1476e-06)
(3.14758e-06 1.05898e-19 -0 3.14758e-06 -0 3.14758e-06)
(3.14756e-06 2.27795e-20 -0 3.14756e-06 -0 3.14756e-06)
(3.14755e-06 -2.54091e-20 -0 3.14755e-06 -0 3.14755e-06)
(3.14754e-06 5.11636e-20 -0 3.14754e-06 -0 3.14754e-06)
(3.14754e-06 -6.9309e-21 -0 3.14754e-06 -0 3.14754e-06)
(3.14753e-06 -1.3131e-20 -0 3.14753e-06 -0 3.14753e-06)
(3.17084e-06 1.41519e-19 -0 3.17084e-06 -0 3.17084e-06)
(3.17084e-06 -7.90158e-19 -0 3.17084e-06 -0 3.17084e-06)
(3.17073e-06 -5.79374e-20 -0 3.17073e-06 -0 3.17073e-06)
(3.17068e-06 -1.38804e-19 -0 3.17068e-06 -0 3.17068e-06)
(3.1706e-06 -1.59007e-19 -0 3.1706e-06 -0 3.1706e-06)
(3.17056e-06 -1.54482e-19 -0 3.17056e-06 -0 3.17056e-06)
(3.1705e-06 -1.038e-19 -0 3.1705e-06 -0 3.1705e-06)
(3.17045e-06 -4.55036e-20 -0 3.17045e-06 -0 3.17045e-06)
(3.1704e-06 -9.87061e-20 -0 3.1704e-06 -0 3.1704e-06)
(3.17037e-06 -1.53878e-20 -0 3.17037e-06 -0 3.17037e-06)
(3.17033e-06 -8.88438e-20 -0 3.17033e-06 -0 3.17033e-06)
(3.1703e-06 -1.15345e-20 -0 3.1703e-06 -0 3.1703e-06)
(3.17027e-06 -4.64448e-20 -0 3.17027e-06 -0 3.17027e-06)
(3.17024e-06 -3.07384e-21 -0 3.17024e-06 -0 3.17024e-06)
(3.17022e-06 -7.24932e-21 -0 3.17022e-06 -0 3.17022e-06)
(3.1702e-06 9.19476e-20 -0 3.1702e-06 -0 3.1702e-06)
(3.17019e-06 1.268e-19 -0 3.17019e-06 -0 3.17019e-06)
(3.17018e-06 -1.01303e-20 -0 3.17018e-06 -0 3.17018e-06)
(3.17018e-06 2.73892e-20 -0 3.17018e-06 -0 3.17018e-06)
(3.17017e-06 6.70688e-20 -0 3.17017e-06 -0 3.17017e-06)
(3.1854e-06 2.40554e-18 -0 3.1854e-06 -0 3.1854e-06)
(3.18539e-06 -3.12288e-18 -0 3.18539e-06 -0 3.18539e-06)
(3.18529e-06 3.69552e-19 -0 3.18529e-06 -0 3.18529e-06)
(3.18523e-06 -3.2676e-19 -0 3.18523e-06 -0 3.18523e-06)
(3.18516e-06 -1.20224e-19 -0 3.18516e-06 -0 3.18516e-06)
(3.1851e-06 -1.12485e-19 -0 3.1851e-06 -0 3.1851e-06)
(3.18505e-06 -9.68199e-20 -0 3.18505e-06 -0 3.18505e-06)
(3.185e-06 -1.22887e-19 -0 3.185e-06 -0 3.185e-06)
(3.18496e-06 -7.11395e-21 -0 3.18496e-06 -0 3.18496e-06)
(3.18491e-06 -8.57395e-20 -0 3.18491e-06 -0 3.18491e-06)
(3.18488e-06 -3.70625e-20 -0 3.18488e-06 -0 3.18488e-06)
(3.18484e-06 -2.08675e-20 -0 3.18484e-06 -0 3.18484e-06)
(3.18481e-06 -2.02477e-20 -0 3.18481e-06 -0 3.18481e-06)
(3.18479e-06 -8.69296e-21 -0 3.18479e-06 -0 3.18479e-06)
(3.18477e-06 -4.56206e-20 -0 3.18477e-06 -0 3.18477e-06)
(3.18475e-06 -8.24369e-20 -0 3.18475e-06 -0 3.18475e-06)
(3.18474e-06 -3.56471e-21 -0 3.18474e-06 -0 3.18474e-06)
(3.18473e-06 -7.30971e-21 -0 3.18473e-06 -0 3.18473e-06)
(3.18472e-06 5.99357e-20 -0 3.18472e-06 -0 3.18472e-06)
(3.18472e-06 4.53571e-20 -0 3.18472e-06 -0 3.18472e-06)
(3.19554e-06 -2.17889e-18 -0 3.19554e-06 -0 3.19554e-06)
(3.19554e-06 3.03565e-18 -0 3.19554e-06 -0 3.19554e-06)
(3.19543e-06 -4.72028e-19 -0 3.19543e-06 -0 3.19543e-06)
(3.19537e-06 2.31999e-19 -0 3.19537e-06 -0 3.19537e-06)
(3.1953e-06 7.56023e-20 -0 3.1953e-06 -0 3.1953e-06)
(3.19525e-06 8.48703e-20 -0 3.19525e-06 -0 3.19525e-06)
(3.19518e-06 9.30282e-20 -0 3.19518e-06 -0 3.19518e-06)
(3.19514e-06 9.4892e-20 -0 3.19514e-06 -0 3.19514e-06)
(3.19509e-06 1.07572e-19 -0 3.19509e-06 -0 3.19509e-06)
(3.19505e-06 1.10786e-19 -0 3.19505e-06 -0 3.19505e-06)
(3.19501e-06 1.30569e-19 -0 3.19501e-06 -0 3.19501e-06)
(3.19498e-06 3.81738e-20 -0 3.19498e-06 -0 3.19498e-06)
(3.19495e-06 6.75655e-20 -0 3.19495e-06 -0 3.19495e-06)
(3.19493e-06 8.87611e-20 -0 3.19493e-06 -0 3.19493e-06)
(3.19491e-06 8.68978e-20 -0 3.19491e-06 -0 3.19491e-06)
(3.19489e-06 2.48727e-20 -0 3.19489e-06 -0 3.19489e-06)
(3.19488e-06 -5.74042e-20 -0 3.19488e-06 -0 3.19488e-06)
(3.19487e-06 -6.14394e-20 -0 3.19487e-06 -0 3.19487e-06)
(3.19486e-06 -5.96215e-20 -0 3.19486e-06 -0 3.19486e-06)
(3.19486e-06 -3.54967e-20 -0 3.19486e-06 -0 3.19486e-06)
(3.20359e-06 -5.77892e-19 -0 3.20359e-06 -0 3.20359e-06)
(3.20359e-06 -7.47406e-19 -0 3.20359e-06 -0 3.20359e-06)
(3.20347e-06 1.34633e-19 -0 3.20347e-06 -0 3.20347e-06)
(3.20343e-06 6.95399e-20 -0 3.20343e-06 -0 3.20343e-06)
(3.20334e-06 7.71729e-20 -0 3.20334e-06 -0 3.20334e-06)
(3.2033e-06 6.30204e-20 -0 3.2033e-06 -0 3.2033e-06)
(3.20323e-06 1.82052e-20 -0 3.20323e-06 -0 3.20323e-06)
(3.20319e-06 7.38881e-21 -0 3.20319e-06 -0 3.20319e-06)
(3.20313e-06 -2.27978e-20 -0 3.20313e-06 -0 3.20313e-06)
(3.20311e-06 -1.41025e-21 -0 3.20311e-06 -0 3.20311e-06)
(3.20305e-06 5.64357e-21 -0 3.20305e-06 -0 3.20305e-06)
(3.20304e-06 -2.65581e-21 -0 3.20304e-06 -0 3.20304e-06)
(3.20299e-06 2.33928e-21 -0 3.20299e-06 -0 3.20299e-06)
(3.20299e-06 -1.78007e-20 -0 3.20299e-06 -0 3.20299e-06)
(3.20294e-06 -9.86259e-20 -0 3.20294e-06 -0 3.20294e-06)
(3.20294e-06 -1.15617e-20 -0 3.20294e-06 -0 3.20294e-06)
(3.20292e-06 -9.43774e-21 -0 3.20292e-06 -0 3.20292e-06)
(3.20292e-06 -2.53084e-21 -0 3.20292e-06 -0 3.20292e-06)
(3.20291e-06 -2.1456e-21 -0 3.20291e-06 -0 3.20291e-06)
(3.20291e-06 1.20056e-20 -0 3.20291e-06 -0 3.20291e-06)
(3.21091e-06 2.26466e-18 -0 3.21091e-06 -0 3.21091e-06)
(3.2109e-06 -3.30302e-19 -0 3.2109e-06 -0 3.2109e-06)
(3.21079e-06 3.54604e-19 -0 3.21079e-06 -0 3.21079e-06)
(3.21074e-06 1.31561e-20 -0 3.21074e-06 -0 3.21074e-06)
(3.21066e-06 5.79222e-20 -0 3.21066e-06 -0 3.21066e-06)
(3.21061e-06 2.44516e-20 -0 3.21061e-06 -0 3.21061e-06)
(3.21055e-06 7.22878e-21 -0 3.21055e-06 -0 3.21055e-06)
(3.21051e-06 4.55715e-20 -0 3.21051e-06 -0 3.21051e-06)
(3.21046e-06 2.42874e-20 -0 3.21046e-06 -0 3.21046e-06)
(3.21042e-06 2.05973e-20 -0 3.21042e-06 -0 3.21042e-06)
(3.21038e-06 -9.07779e-20 -0 3.21038e-06 -0 3.21038e-06)
(3.21035e-06 1.33745e-20 -0 3.21035e-06 -0 3.21035e-06)
(3.21031e-06 3.3373e-20 -0 3.21031e-06 -0 3.21031e-06)
(3.21029e-06 -2.85006e-21 -0 3.21029e-06 -0 3.21029e-06)
(3.21027e-06 1.04907e-19 -0 3.21027e-06 -0 3.21027e-06)
(3.21025e-06 -1.01484e-21 -0 3.21025e-06 -0 3.21025e-06)
(3.21024e-06 5.80516e-20 -0 3.21024e-06 -0 3.21024e-06)
(3.21023e-06 -6.5272e-21 -0 3.21023e-06 -0 3.21023e-06)
(3.21022e-06 5.16577e-20 -0 3.21022e-06 -0 3.21022e-06)
(3.21022e-06 5.73697e-20 -0 3.21022e-06 -0 3.21022e-06)
(3.21828e-06 -1.32931e-19 -0 3.21828e-06 -0 3.21828e-06)
(3.21827e-06 -1.16367e-19 -0 3.21827e-06 -0 3.21827e-06)
(3.21816e-06 -1.59005e-19 -0 3.21816e-06 -0 3.21816e-06)
(3.21811e-06 -5.05642e-20 -0 3.21811e-06 -0 3.21811e-06)
(3.21803e-06 -2.75016e-20 -0 3.21803e-06 -0 3.21803e-06)
(3.21798e-06 -4.86184e-20 -0 3.21798e-06 -0 3.21798e-06)
(3.21792e-06 -3.14243e-20 -0 3.21792e-06 -0 3.21792e-06)
(3.21787e-06 -3.50331e-20 -0 3.21787e-06 -0 3.21787e-06)
(3.21782e-06 -4.20021e-20 -0 3.21782e-06 -0 3.21782e-06)
(3.21778e-06 -3.60995e-20 -0 3.21778e-06 -0 3.21778e-06)
(3.21774e-06 4.98645e-21 -0 3.21774e-06 -0 3.21774e-06)
(3.21771e-06 -5.07819e-20 -0 3.21771e-06 -0 3.21771e-06)
(3.21768e-06 -9.05726e-20 -0 3.21768e-06 -0 3.21768e-06)
(3.21766e-06 -6.49366e-20 -0 3.21766e-06 -0 3.21766e-06)
(3.21763e-06 -7.03151e-20 -0 3.21763e-06 -0 3.21763e-06)
(3.21762e-06 -1.3952e-20 -0 3.21762e-06 -0 3.21762e-06)
(3.2176e-06 -1.44448e-20 -0 3.2176e-06 -0 3.2176e-06)
(3.2176e-06 -2.54829e-22 -0 3.2176e-06 -0 3.2176e-06)
(3.21759e-06 -6.68045e-20 -0 3.21759e-06 -0 3.21759e-06)
(3.21759e-06 -2.77236e-20 -0 3.21759e-06 -0 3.21759e-06)
(3.22613e-06 -1.08718e-18 -0 3.22613e-06 -0 3.22613e-06)
(3.22613e-06 -8.02666e-19 -0 3.22613e-06 -0 3.22613e-06)
(3.22602e-06 6.97187e-20 -0 3.22602e-06 -0 3.22602e-06)
(3.22596e-06 1.81551e-20 -0 3.22596e-06 -0 3.22596e-06)
(3.22589e-06 -6.72521e-20 -0 3.22589e-06 -0 3.22589e-06)
(3.22583e-06 -7.18591e-21 -0 3.22583e-06 -0 3.22583e-06)
(3.22578e-06 -6.35541e-20 -0 3.22578e-06 -0 3.22578e-06)
(3.22572e-06 -7.99364e-20 -0 3.22572e-06 -0 3.22572e-06)
(3.22569e-06 -9.68622e-20 -0 3.22569e-06 -0 3.22569e-06)
(3.22563e-06 -1.2356e-19 -0 3.22563e-06 -0 3.22563e-06)
(3.2256e-06 -6.01773e-20 -0 3.2256e-06 -0 3.2256e-06)
(3.22556e-06 -7.89991e-20 -0 3.22556e-06 -0 3.22556e-06)
(3.22553e-06 -2.62431e-20 -0 3.22553e-06 -0 3.22553e-06)
(3.22551e-06 -2.07868e-20 -0 3.22551e-06 -0 3.22551e-06)
(3.22549e-06 -2.97342e-20 -0 3.22549e-06 -0 3.22549e-06)
(3.22547e-06 -3.6336e-20 -0 3.22547e-06 -0 3.22547e-06)
(3.22546e-06 -7.92609e-20 -0 3.22546e-06 -0 3.22546e-06)
(3.22545e-06 -4.95199e-20 -0 3.22545e-06 -0 3.22545e-06)
(3.22544e-06 -3.01585e-20 -0 3.22544e-06 -0 3.22544e-06)
(3.22544e-06 -7.37376e-22 -0 3.22544e-06 -0 3.22544e-06)
(3.23468e-06 -1.42104e-18 -0 3.23468e-06 -0 3.23468e-06)
(3.23467e-06 3.18269e-18 -0 3.23467e-06 -0 3.23467e-06)
(3.23456e-06 -5.5233e-19 -0 3.23456e-06 -0 3.23456e-06)
(3.23451e-06 1.56693e-19 -0 3.23451e-06 -0 3.23451e-06)
(3.23443e-06 4.7758e-20 -0 3.23443e-06 -0 3.23443e-06)
(3.23438e-06 2.58886e-20 -0 3.23438e-06 -0 3.23438e-06)
(3.23432e-06 7.10046e-20 -0 3.23432e-06 -0 3.23432e-06)
(3.23427e-06 9.66887e-20 -0 3.23427e-06 -0 3.23427e-06)
(3.23422e-06 6.26068e-20 -0 3.23422e-06 -0 3.23422e-06)
(3.23418e-06 1.14658e-19 -0 3.23418e-06 -0 3.23418e-06)
(3.23414e-06 8.12069e-20 -0 3.23414e-06 -0 3.23414e-06)
(3.23411e-06 1.31118e-19 -0 3.23411e-06 -0 3.23411e-06)
(3.23408e-06 1.37949e-19 -0 3.23408e-06 -0 3.23408e-06)
(3.23405e-06 1.19912e-19 -0 3.23405e-06 -0 3.23405e-06)
(3.23403e-06 5.74127e-20 -0 3.23403e-06 -0 3.23403e-06)
(3.23401e-06 3.28306e-20 -0 3.23401e-06 -0 3.23401e-06)
(3.234e-06 -2.61219e-20 -0 3.234e-06 -0 3.234e-06)
(3.23399e-06 1.28688e-20 -0 3.23399e-06 -0 3.23399e-06)
(3.23398e-06 3.74742e-20 -0 3.23398e-06 -0 3.23398e-06)
(3.23398e-06 4.80913e-20 -0 3.23398e-06 -0 3.23398e-06)
(3.24385e-06 3.85584e-18 -0 3.24385e-06 -0 3.24385e-06)
(3.24384e-06 -4.4644e-18 -0 3.24384e-06 -0 3.24384e-06)
(3.24373e-06 8.63259e-19 -0 3.24373e-06 -0 3.24373e-06)
(3.24367e-06 -2.7726e-19 -0 3.24367e-06 -0 3.24367e-06)
(3.2436e-06 5.36611e-20 -0 3.2436e-06 -0 3.2436e-06)
(3.24354e-06 -8.35078e-20 -0 3.24354e-06 -0 3.24354e-06)
(3.24349e-06 -5.41583e-20 -0 3.24349e-06 -0 3.24349e-06)
(3.24342e-06 -8.14219e-20 -0 3.24342e-06 -0 3.24342e-06)
(3.2434e-06 -1.96329e-20 -0 3.2434e-06 -0 3.2434e-06)
(3.24333e-06 -1.24596e-20 -0 3.24333e-06 -0 3.24333e-06)
(3.24332e-06 -6.35385e-20 -0 3.24332e-06 -0 3.24332e-06)
(3.24326e-06 -6.20794e-20 -0 3.24326e-06 -0 3.24326e-06)
(3.24325e-06 -9.49919e-20 -0 3.24325e-06 -0 3.24325e-06)
(3.24322e-06 -4.94559e-20 -0 3.24322e-06 -0 3.24322e-06)
(3.2432e-06 -3.01933e-20 -0 3.2432e-06 -0 3.2432e-06)
(3.24318e-06 -2.21779e-20 -0 3.24318e-06 -0 3.24318e-06)
(3.24316e-06 -1.1952e-20 -0 3.24316e-06 -0 3.24316e-06)
(3.24316e-06 5.26814e-21 -0 3.24316e-06 -0 3.24316e-06)
(3.24315e-06 -5.99593e-21 -0 3.24315e-06 -0 3.24315e-06)
(3.24315e-06 -3.61282e-20 -0 3.24315e-06 -0 3.24315e-06)
(3.25322e-06 -1.82078e-18 -0 3.25322e-06 -0 3.25322e-06)
(3.25322e-06 1.91554e-18 -0 3.25322e-06 -0 3.25322e-06)
(3.2531e-06 -3.58908e-19 -0 3.2531e-06 -0 3.2531e-06)
(3.25305e-06 9.38629e-20 -0 3.25305e-06 -0 3.25305e-06)
(3.25296e-06 -9.36986e-20 -0 3.25296e-06 -0 3.25296e-06)
(3.25292e-06 -9.5795e-21 -0 3.25292e-06 -0 3.25292e-06)
(3.25285e-06 -9.98373e-21 -0 3.25285e-06 -0 3.25285e-06)
(3.25281e-06 9.39808e-21 -0 3.25281e-06 -0 3.25281e-06)
(3.25275e-06 -2.92339e-20 -0 3.25275e-06 -0 3.25275e-06)
(3.25272e-06 -9.39171e-20 -0 3.25272e-06 -0 3.25272e-06)
(3.25267e-06 -5.32882e-20 -0 3.25267e-06 -0 3.25267e-06)
(3.25265e-06 -3.39923e-20 -0 3.25265e-06 -0 3.25265e-06)
(3.2526e-06 -7.13821e-20 -0 3.2526e-06 -0 3.2526e-06)
(3.2526e-06 -6.9509e-20 -0 3.2526e-06 -0 3.2526e-06)
(3.25255e-06 -4.14564e-20 -0 3.25255e-06 -0 3.25255e-06)
(3.25255e-06 5.5871e-20 -0 3.25255e-06 -0 3.25255e-06)
(3.25252e-06 1.58931e-21 -0 3.25252e-06 -0 3.25252e-06)
(3.25253e-06 9.24282e-21 -0 3.25253e-06 -0 3.25253e-06)
(3.25252e-06 -8.95471e-21 -0 3.25252e-06 -0 3.25252e-06)
(3.25251e-06 -8.56334e-21 -0 3.25251e-06 -0 3.25251e-06)
(3.26195e-06 -3.59844e-18 -0 3.26195e-06 -0 3.26195e-06)
(3.26194e-06 3.69863e-18 -0 3.26194e-06 -0 3.26194e-06)
(3.26183e-06 -7.70149e-19 -0 3.26183e-06 -0 3.26183e-06)
(3.26177e-06 9.25701e-20 -0 3.26177e-06 -0 3.26177e-06)
(3.2617e-06 -3.24207e-20 -0 3.2617e-06 -0 3.2617e-06)
(3.26164e-06 -3.07754e-21 -0 3.26164e-06 -0 3.26164e-06)
(3.26158e-06 -1.85384e-22 -0 3.26158e-06 -0 3.26158e-06)
(3.26154e-06 -5.3571e-20 -0 3.26154e-06 -0 3.26154e-06)
(3.26148e-06 -4.42697e-21 -0 3.26148e-06 -0 3.26148e-06)
(3.26144e-06 3.35835e-20 -0 3.26144e-06 -0 3.26144e-06)
(3.2614e-06 7.05111e-20 -0 3.2614e-06 -0 3.2614e-06)
(3.26137e-06 1.75178e-20 -0 3.26137e-06 -0 3.26137e-06)
(3.26134e-06 1.19768e-19 -0 3.26134e-06 -0 3.26134e-06)
(3.26131e-06 6.34275e-20 -0 3.26131e-06 -0 3.26131e-06)
(3.26129e-06 6.83073e-20 -0 3.26129e-06 -0 3.26129e-06)
(3.26127e-06 -5.89058e-20 -0 3.26127e-06 -0 3.26127e-06)
(3.26126e-06 1.54006e-20 -0 3.26126e-06 -0 3.26126e-06)
(3.26125e-06 6.92456e-20 -0 3.26125e-06 -0 3.26125e-06)
(3.26124e-06 -1.33619e-20 -0 3.26124e-06 -0 3.26124e-06)
(3.26124e-06 -7.99768e-21 -0 3.26124e-06 -0 3.26124e-06)
(3.26882e-06 2.65151e-18 -0 3.26882e-06 -0 3.26882e-06)
(3.26882e-06 -3.79552e-18 -0 3.26882e-06 -0 3.26882e-06)
(3.26871e-06 5.59727e-19 -0 3.26871e-06 -0 3.26871e-06)
(3.26865e-06 -1.90876e-19 -0 3.26865e-06 -0 3.26865e-06)
(3.26858e-06 -3.6985e-20 -0 3.26858e-06 -0 3.26858e-06)
(3.26853e-06 -3.7708e-20 -0 3.26853e-06 -0 3.26853e-06)
(3.26847e-06 -5.31405e-20 -0 3.26847e-06 -0 3.26847e-06)
(3.26842e-06 -5.88972e-20 -0 3.26842e-06 -0 3.26842e-06)
(3.26837e-06 -7.34396e-20 -0 3.26837e-06 -0 3.26837e-06)
(3.26833e-06 -6.62578e-20 -0 3.26833e-06 -0 3.26833e-06)
(3.26829e-06 -5.81509e-20 -0 3.26829e-06 -0 3.26829e-06)
(3.26826e-06 -7.16581e-20 -0 3.26826e-06 -0 3.26826e-06)
(3.26823e-06 -1.13104e-19 -0 3.26823e-06 -0 3.26823e-06)
(3.2682e-06 -8.18823e-20 -0 3.2682e-06 -0 3.2682e-06)
(3.26818e-06 -4.80273e-20 -0 3.26818e-06 -0 3.26818e-06)
(3.26816e-06 -5.18175e-20 -0 3.26816e-06 -0 3.26816e-06)
(3.26815e-06 -3.19034e-20 -0 3.26815e-06 -0 3.26815e-06)
(3.26814e-06 -6.56127e-20 -0 3.26814e-06 -0 3.26814e-06)
(3.26813e-06 -2.54555e-20 -0 3.26813e-06 -0 3.26813e-06)
(3.26813e-06 1.94523e-20 -0 3.26813e-06 -0 3.26813e-06)
(3.27198e-06 1.4507e-18 -0 3.27198e-06 -0 3.27198e-06)
(3.27198e-06 -6.80315e-19 -0 3.27198e-06 -0 3.27198e-06)
(3.27198e-06 2.5702e-19 -0 3.27198e-06 -0 3.27198e-06)
(3.27197e-06 5.65687e-20 -0 3.27197e-06 -0 3.27197e-06)
(3.27197e-06 6.60358e-20 -0 3.27197e-06 -0 3.27197e-06)
(3.27197e-06 5.87579e-20 -0 3.27197e-06 -0 3.27197e-06)
(3.27197e-06 5.82541e-20 -0 3.27197e-06 -0 3.27197e-06)
(3.27197e-06 1.20146e-19 -0 3.27197e-06 -0 3.27197e-06)
(3.27197e-06 8.14809e-20 -0 3.27197e-06 -0 3.27197e-06)
(3.27197e-06 5.76713e-20 -0 3.27197e-06 -0 3.27197e-06)
(3.27197e-06 7.70805e-20 -0 3.27197e-06 -0 3.27197e-06)
(3.27197e-06 8.47832e-20 -0 3.27197e-06 -0 3.27197e-06)
(3.27197e-06 4.59065e-20 -0 3.27197e-06 -0 3.27197e-06)
(3.27197e-06 6.63053e-20 -0 3.27197e-06 -0 3.27197e-06)
(3.27197e-06 2.80825e-20 -0 3.27197e-06 -0 3.27197e-06)
(3.27197e-06 7.16782e-20 -0 3.27197e-06 -0 3.27197e-06)
(3.27197e-06 7.61706e-20 -0 3.27197e-06 -0 3.27197e-06)
(3.27197e-06 -4.0622e-21 -0 3.27197e-06 -0 3.27197e-06)
(3.27197e-06 -1.70746e-20 -0 3.27197e-06 -0 3.27197e-06)
(3.27197e-06 -5.10385e-21 -0 3.27197e-06 -0 3.27197e-06)
)
;

boundaryField
{
    movingWall
    {
        type            kqRWallFunction;
        value           nonuniform List<symmTensor> 
20
(
(3.27198e-06 0 -0 3.27198e-06 -0 3.27198e-06)
(3.27198e-06 -0 -0 3.27198e-06 -0 3.27198e-06)
(3.27198e-06 0 -0 3.27198e-06 -0 3.27198e-06)
(3.27197e-06 0 -0 3.27197e-06 -0 3.27197e-06)
(3.27197e-06 0 -0 3.27197e-06 -0 3.27197e-06)
(3.27197e-06 0 -0 3.27197e-06 -0 3.27197e-06)
(3.27197e-06 0 -0 3.27197e-06 -0 3.27197e-06)
(3.27197e-06 0 -0 3.27197e-06 -0 3.27197e-06)
(3.27197e-06 0 -0 3.27197e-06 -0 3.27197e-06)
(3.27197e-06 0 -0 3.27197e-06 -0 3.27197e-06)
(3.27197e-06 0 -0 3.27197e-06 -0 3.27197e-06)
(3.27197e-06 0 -0 3.27197e-06 -0 3.27197e-06)
(3.27197e-06 0 -0 3.27197e-06 -0 3.27197e-06)
(3.27197e-06 0 -0 3.27197e-06 -0 3.27197e-06)
(3.27197e-06 0 -0 3.27197e-06 -0 3.27197e-06)
(3.27197e-06 0 -0 3.27197e-06 -0 3.27197e-06)
(3.27197e-06 0 -0 3.27197e-06 -0 3.27197e-06)
(3.27197e-06 0 -0 3.27197e-06 -0 3.27197e-06)
(3.27197e-06 -0 -0 3.27197e-06 -0 3.27197e-06)
(3.27197e-06 -0 -0 3.27197e-06 -0 3.27197e-06)
)
;
    }
    fixedWalls
    {
        type            kqRWallFunction;
        value           nonuniform List<symmTensor> 
60
(
(2.73958e-06 -0 -0 2.73958e-06 -0 2.73958e-06)
(2.79757e-06 -0 -0 2.79757e-06 -0 2.79757e-06)
(2.88789e-06 0 -0 2.88789e-06 -0 2.88789e-06)
(2.9809e-06 -0 -0 2.9809e-06 -0 2.9809e-06)
(3.05751e-06 0 -0 3.05751e-06 -0 3.05751e-06)
(3.11229e-06 0 -0 3.11229e-06 -0 3.11229e-06)
(3.14819e-06 -0 -0 3.14819e-06 -0 3.14819e-06)
(3.17084e-06 0 -0 3.17084e-06 -0 3.17084e-06)
(3.1854e-06 0 -0 3.1854e-06 -0 3.1854e-06)
(3.19554e-06 -0 -0 3.19554e-06 -0 3.19554e-06)
(3.20359e-06 0 -0 3.20359e-06 -0 3.20359e-06)
(3.21091e-06 0 -0 3.21091e-06 -0 3.21091e-06)
(3.21828e-06 0 -0 3.21828e-06 -0 3.21828e-06)
(3.22613e-06 0 -0 3.22613e-06 -0 3.22613e-06)
(3.23468e-06 -0 -0 3.23468e-06 -0 3.23468e-06)
(3.24385e-06 0 -0 3.24385e-06 -0 3.24385e-06)
(3.25322e-06 -0 -0 3.25322e-06 -0 3.25322e-06)
(3.26195e-06 -0 -0 3.26195e-06 -0 3.26195e-06)
(3.26882e-06 0 -0 3.26882e-06 -0 3.26882e-06)
(3.27198e-06 0 -0 3.27198e-06 -0 3.27198e-06)
(2.73957e-06 -0 -0 2.73957e-06 -0 2.73957e-06)
(2.79706e-06 -0 -0 2.79706e-06 -0 2.79706e-06)
(2.88734e-06 -0 -0 2.88734e-06 -0 2.88734e-06)
(2.98031e-06 -0 -0 2.98031e-06 -0 2.98031e-06)
(3.05688e-06 0 -0 3.05688e-06 -0 3.05688e-06)
(3.11165e-06 -0 -0 3.11165e-06 -0 3.11165e-06)
(3.14753e-06 0 -0 3.14753e-06 -0 3.14753e-06)
(3.17017e-06 0 -0 3.17017e-06 -0 3.17017e-06)
(3.18472e-06 0 -0 3.18472e-06 -0 3.18472e-06)
(3.19486e-06 -0 -0 3.19486e-06 -0 3.19486e-06)
(3.20291e-06 0 -0 3.20291e-06 -0 3.20291e-06)
(3.21022e-06 0 -0 3.21022e-06 -0 3.21022e-06)
(3.21759e-06 -0 -0 3.21759e-06 -0 3.21759e-06)
(3.22544e-06 -0 -0 3.22544e-06 -0 3.22544e-06)
(3.23398e-06 0 -0 3.23398e-06 -0 3.23398e-06)
(3.24315e-06 -0 -0 3.24315e-06 -0 3.24315e-06)
(3.25251e-06 0 -0 3.25251e-06 -0 3.25251e-06)
(3.26124e-06 -0 -0 3.26124e-06 -0 3.26124e-06)
(3.26813e-06 0 -0 3.26813e-06 -0 3.26813e-06)
(3.27197e-06 0 -0 3.27197e-06 -0 3.27197e-06)
(2.73958e-06 -0 -0 2.73958e-06 -0 2.73958e-06)
(2.73958e-06 0 -0 2.73958e-06 -0 2.73958e-06)
(2.73958e-06 -0 -0 2.73958e-06 -0 2.73958e-06)
(2.73958e-06 -0 -0 2.73958e-06 -0 2.73958e-06)
(2.73958e-06 -0 -0 2.73958e-06 -0 2.73958e-06)
(2.73958e-06 -0 -0 2.73958e-06 -0 2.73958e-06)
(2.73958e-06 -0 -0 2.73958e-06 -0 2.73958e-06)
(2.73958e-06 -0 -0 2.73958e-06 -0 2.73958e-06)
(2.73957e-06 -0 -0 2.73957e-06 -0 2.73957e-06)
(2.73958e-06 -0 -0 2.73958e-06 -0 2.73958e-06)
(2.73957e-06 -0 -0 2.73957e-06 -0 2.73957e-06)
(2.73958e-06 -0 -0 2.73958e-06 -0 2.73958e-06)
(2.73957e-06 -0 -0 2.73957e-06 -0 2.73957e-06)
(2.73957e-06 -0 -0 2.73957e-06 -0 2.73957e-06)
(2.73957e-06 0 -0 2.73957e-06 -0 2.73957e-06)
(2.73957e-06 0 -0 2.73957e-06 -0 2.73957e-06)
(2.73957e-06 -0 -0 2.73957e-06 -0 2.73957e-06)
(2.73957e-06 0 -0 2.73957e-06 -0 2.73957e-06)
(2.73957e-06 0 -0 2.73957e-06 -0 2.73957e-06)
(2.73957e-06 -0 -0 2.73957e-06 -0 2.73957e-06)
)
;
    }
    frontAndBack
    {
        type            empty;
    }
}


// ************************************************************************* //
