/*--------------------------------*- C++ -*----------------------------------*\
| =========                 |                                                 |
| \\      /  F ield         | OpenFOAM: The Open Source CFD Toolbox           |
|  \\    /   O peration     | Version:  2506                                  |
|   \\  /    A nd           | Website:  www.openfoam.com                      |
|    \\/     M anipulation  |                                                 |
\*---------------------------------------------------------------------------*/
FoamFile
{
    version     2.0;
    format      ascii;
    arch        "LSB;label=32;scalar=64";
    class       volTensorField;
    location    "8";
    object      U2;
}
// * * * * * * * * * * * * * * * * * * * * * * * * * * * * * * * * * * * * * //

dimensions      [0 2 -2 0 0 0 0];

internalField   nonuniform List<tensor> 
400
(
(1 -5.69795e-14 -0 -5.78692e-14 3.29736e-27 0 -0 0 0)
(1 1.10005e-14 -0 1.12323e-14 1.23561e-28 -0 -0 -0 0)
(1 -2.67283e-15 -0 -2.68626e-15 7.17991e-30 0 -0 0 0)
(1 4.05321e-16 -0 4.77077e-16 1.93369e-31 -0 -0 -0 0)
(1 -1.91263e-16 -0 -1.32392e-16 2.53217e-32 0 -0 0 0)
(1 -6.51332e-17 -0 -6.28781e-17 4.09545e-33 0 -0 0 0)
(1 -6.44908e-17 -0 -1.07593e-16 6.93873e-33 0 -0 0 0)
(1 -5.22751e-17 -0 -9.69171e-17 5.06635e-33 0 -0 0 0)
(1 -7.73948e-17 -0 -1.04634e-16 8.09814e-33 0 -0 0 0)
(1 -7.25521e-17 -0 -7.73149e-17 5.60936e-33 0 -0 0 0)
(1 -1.37743e-17 -0 -1.97213e-17 2.71647e-34 0 -0 0 0)
(1 -3.85948e-17 -0 -1.35908e-17 5.24535e-34 0 -0 0 0)
(1 -5.96086e-17 -0 -5.03757e-17 3.00283e-33 0 -0 0 0)
(1 -1.04793e-16 -0 -9.89738e-17 1.03718e-32 0 -0 0 0)
(1 -8.1512e-17 -0 -2.14907e-17 1.75175e-33 0 -0 0 0)
(1 1.49356e-17 -0 4.08411e-17 6.09988e-34 -0 -0 -0 0)
(1 5.85401e-17 -0 -1.47785e-17 -8.65135e-34 0 -0 -0 0)
(1 -4.31649e-17 -0 -7.38892e-17 3.18942e-33 0 -0 0 0)
(1 -5.71973e-17 -0 1.65126e-17 -9.44476e-34 -0 -0 0 0)
(1 2.84661e-17 -0 4.03082e-17 1.14742e-33 -0 -0 -0 0)
(1 -1.42419e-15 -0 -1.34004e-15 1.90847e-30 0 -0 0 0)
(1 2.9233e-17 -0 7.17613e-17 2.0978e-33 -0 -0 -0 0)
(1 -9.15869e-17 -0 -7.82386e-17 7.16563e-33 0 -0 0 0)
(1 -1.32857e-16 -0 -1.07188e-16 1.42406e-32 0 -0 0 0)
(1 -1.27758e-16 -0 -1.05538e-16 1.34833e-32 0 -0 0 0)
(1 -1.21692e-16 -0 -1.46638e-16 1.78447e-32 0 -0 0 0)
(1 -9.23239e-17 -0 -1.29587e-16 1.1964e-32 0 -0 0 0)
(1 -5.13035e-17 -0 -9.12691e-17 4.68243e-33 0 -0 0 0)
(1 -5.6372e-17 -0 -4.10629e-17 2.3148e-33 0 -0 0 0)
(1 -5.63873e-17 -0 1.32149e-17 -7.45154e-34 -0 -0 0 0)
(1 -3.23993e-17 -0 2.01309e-17 -6.52226e-34 -0 -0 0 0)
(1 -3.45775e-17 -0 1.42169e-17 -4.91586e-34 -0 -0 0 0)
(1 -6.79565e-17 -0 -1.48101e-17 1.00644e-33 0 -0 0 0)
(1 -1.49291e-16 -0 -1.58618e-16 2.36803e-32 0 -0 0 0)
(1 -1.46735e-16 -0 -1.06248e-16 1.55903e-32 0 -0 0 0)
(1 -1.88616e-17 -0 -8.74313e-17 1.6491e-33 0 -0 0 0)
(1 -1.94602e-17 -0 -8.37558e-17 1.62991e-33 0 -0 0 0)
(1 -3.84983e-17 -0 1.91006e-17 -7.35341e-34 -0 -0 0 0)
(1 3.88938e-17 -0 1.60322e-16 6.23554e-33 -0 -0 -0 0)
(1 6.78163e-17 -0 8.75541e-17 5.9376e-33 -0 -0 -0 0)
(1 3.98346e-14 -0 4.064e-14 1.61888e-27 -0 -0 -0 0)
(1 -7.71339e-15 -0 -7.77086e-15 5.99396e-29 0 -0 0 0)
(1 1.78956e-15 -0 1.85551e-15 3.32055e-30 -0 -0 -0 0)
(1 -3.776e-16 -0 -4.56615e-16 1.72418e-31 0 -0 0 0)
(1 -2.16756e-18 -0 -7.24645e-17 1.57071e-34 0 -0 0 0)
(1 -4.34743e-17 -0 -4.79992e-17 2.08673e-33 0 -0 0 0)
(1 -3.8177e-17 -0 -3.37359e-17 1.28794e-33 0 -0 0 0)
(1 -4.90233e-17 -0 -5.83374e-17 2.85989e-33 0 -0 0 0)
(1 5.53295e-18 -0 2.02606e-17 1.12101e-34 -0 -0 -0 0)
(1 1.07076e-17 -0 4.16439e-17 4.45906e-34 -0 -0 -0 0)
(1 -4.13057e-17 -0 2.66513e-17 -1.10085e-33 -0 -0 0 0)
(1 -2.00548e-19 -0 1.25087e-16 -2.5086e-35 -0 -0 0 0)
(1 2.74941e-17 -0 1.1164e-16 3.06944e-33 -0 -0 -0 0)
(1 -9.48557e-18 -0 -3.5878e-17 3.40324e-34 0 -0 0 0)
(1 -1.45608e-16 -0 -2.0087e-16 2.92484e-32 0 -0 0 0)
(1 -1.42052e-16 -0 -1.6384e-16 2.32738e-32 0 -0 0 0)
(1 -9.77314e-17 -0 -5.92822e-17 5.79373e-33 0 -0 0 0)
(1 7.82777e-17 -0 1.56292e-16 1.22342e-32 -0 -0 -0 0)
(1 1.73647e-16 -0 2.1903e-16 3.80339e-32 -0 -0 -0 0)
(1 7.29793e-17 -0 9.94866e-17 7.26047e-33 -0 -0 -0 0)
(1 -2.58494e-14 -0 -2.60143e-14 6.72453e-28 0 -0 0 0)
(1 5.44557e-15 -0 5.44777e-15 2.96662e-29 -0 -0 -0 0)
(1 -1.33555e-15 -0 -1.29298e-15 1.72684e-30 0 -0 0 0)
(1 1.99136e-16 -0 2.04116e-16 4.06469e-32 -0 -0 -0 0)
(1 -1.02054e-16 -0 -2.00957e-16 2.05085e-32 0 -0 0 0)
(1 -3.22842e-17 -0 -1.66339e-16 5.37012e-33 0 -0 0 0)
(1 -2.18022e-16 -0 -2.97195e-16 6.4795e-32 0 -0 0 0)
(1 -3.17325e-16 -0 -2.63239e-16 8.35323e-32 0 -0 0 0)
(1 -2.19553e-16 -0 -1.2937e-16 2.84035e-32 0 -0 0 0)
(1 -8.99148e-17 -0 -6.46537e-17 5.81332e-33 0 -0 0 0)
(1 -3.63504e-17 -0 -6.58369e-17 2.39319e-33 0 -0 0 0)
(1 -6.87532e-17 -0 -3.41573e-17 2.34842e-33 0 -0 0 0)
(1 -1.31881e-16 -0 4.28611e-18 -5.65256e-34 -0 -0 0 0)
(1 -8.40435e-18 -0 1.13844e-16 -9.56781e-34 -0 -0 0 0)
(1 2.17349e-18 -0 -5.73016e-18 -1.24545e-35 0 -0 -0 0)
(1 -6.97057e-17 -0 -3.81377e-17 2.65842e-33 0 -0 0 0)
(1 -2.03124e-17 -0 5.40671e-18 -1.09823e-34 -0 -0 0 0)
(1 9.59416e-17 -0 1.01115e-16 9.70114e-33 -0 -0 -0 0)
(1 1.09348e-16 -0 1.14804e-16 1.25536e-32 -0 -0 -0 0)
(1 3.22899e-17 -0 7.31804e-17 2.36299e-33 -0 -0 -0 0)
(1 1.13389e-14 -0 1.1572e-14 1.31214e-28 -0 -0 -0 0)
(1 -2.44183e-15 -0 -2.47602e-15 6.046e-30 0 -0 0 0)
(1 5.87999e-16 -0 6.72445e-16 3.95397e-31 -0 -0 -0 0)
(1 -6.00242e-17 -0 -9.03922e-19 5.42572e-35 0 -0 0 0)
(1 1.0722e-16 -0 6.81791e-17 7.31017e-33 -0 -0 -0 0)
(1 1.91598e-17 -0 -1.39037e-16 -2.66393e-33 0 -0 -0 0)
(1 -8.62791e-17 -0 -1.92001e-16 1.65656e-32 0 -0 0 0)
(1 -1.74399e-16 -0 -1.89669e-16 3.30781e-32 0 -0 0 0)
(1 -2.49245e-16 -0 -1.89461e-16 4.72221e-32 0 -0 0 0)
(1 -1.92412e-16 -0 -1.13747e-16 2.18864e-32 0 -0 0 0)
(1 -9.6033e-17 -0 -1.0487e-16 1.0071e-32 0 -0 0 0)
(1 -1.39796e-16 -0 -1.18072e-16 1.6506e-32 0 -0 0 0)
(1 -1.46842e-16 -0 -1.35584e-17 1.99095e-33 0 -0 0 0)
(1 -3.10426e-17 -0 1.6231e-16 -5.03854e-33 -0 -0 0 0)
(1 1.32266e-16 -0 1.79906e-16 2.37955e-32 -0 -0 -0 0)
(1 5.49001e-17 -0 -1.27243e-17 -6.98567e-34 0 -0 -0 0)
(1 -5.33952e-17 -0 -8.92665e-17 4.7664e-33 0 -0 0 0)
(1 -1.02259e-16 -0 -7.51366e-17 7.6834e-33 0 -0 0 0)
(1 -6.01622e-17 -0 -3.91482e-17 2.35524e-33 0 -0 0 0)
(1 -1.81504e-17 -0 -2.20578e-17 4.00358e-34 0 -0 0 0)
(1 1.15904e-14 -0 1.21078e-14 1.40335e-28 -0 -0 -0 0)
(1 -2.21017e-15 -0 -2.08681e-15 4.6122e-30 0 -0 0 0)
(1 8.29926e-16 -0 8.69956e-16 7.21999e-31 -0 -0 -0 0)
(1 1.09724e-16 -0 8.96771e-17 9.83975e-33 -0 -0 -0 0)
(1 1.2162e-16 -0 1.28158e-16 1.55865e-32 -0 -0 -0 0)
(1 -1.72293e-17 -0 -9.9252e-17 1.71004e-33 0 -0 0 0)
(1 -9.65754e-17 -0 -1.2266e-16 1.1846e-32 0 -0 0 0)
(1 -1.11939e-16 -0 -1.44382e-16 1.6162e-32 0 -0 0 0)
(1 -1.1552e-16 -0 -1.97721e-16 2.28407e-32 0 -0 0 0)
(1 -1.59754e-16 -0 -2.24408e-16 3.58502e-32 0 -0 0 0)
(1 -1.9589e-16 -0 -2.03731e-16 3.99087e-32 0 -0 0 0)
(1 -1.97195e-16 -0 -8.6821e-17 1.71207e-32 0 -0 0 0)
(1 -4.94531e-17 -0 3.8581e-17 -1.90795e-33 -0 -0 0 0)
(1 -8.10951e-18 -0 3.16377e-17 -2.56566e-34 -0 -0 0 0)
(1 -3.69973e-17 -0 1.67774e-17 -6.20717e-34 -0 -0 0 0)
(1 -6.04181e-17 -0 9.68592e-18 -5.85206e-34 -0 -0 0 0)
(1 -5.71499e-17 -0 -2.10935e-17 1.20549e-33 0 -0 0 0)
(1 -8.32344e-17 -0 -1.22428e-16 1.01902e-32 0 -0 0 0)
(1 -9.91348e-17 -0 -9.84361e-17 9.75845e-33 0 -0 0 0)
(1 -1.63405e-17 -0 -4.31786e-17 7.05561e-34 0 -0 0 0)
(1 -2.39221e-14 -0 -2.41951e-14 5.78797e-28 0 -0 0 0)
(1 4.61209e-15 -0 4.81462e-15 2.22055e-29 -0 -0 -0 0)
(1 -9.31198e-16 -0 -9.18619e-16 8.55417e-31 0 -0 0 0)
(1 3.26224e-16 -0 2.98945e-16 9.75228e-32 -0 -0 -0 0)
(1 7.02e-18 -0 -8.25722e-17 -5.79656e-34 0 -0 -0 0)
(1 -9.02516e-17 -0 -1.85422e-16 1.67347e-32 0 -0 0 0)
(1 -2.18863e-16 -0 -2.18601e-16 4.78437e-32 0 -0 0 0)
(1 -1.94715e-16 -0 -1.32218e-16 2.57448e-32 0 -0 0 0)
(1 -5.86405e-17 -0 -6.47418e-17 3.79649e-33 0 -0 0 0)
(1 -1.6088e-17 -0 -7.24417e-17 1.16544e-33 0 -0 0 0)
(1 -9.33017e-17 -0 -8.58947e-17 8.01412e-33 0 -0 0 0)
(1 -2.06361e-17 -0 -7.01607e-17 1.44785e-33 0 -0 0 0)
(1 -5.10821e-17 -0 -9.2475e-17 4.72382e-33 0 -0 0 0)
(1 -1.20152e-16 -0 -1.35754e-16 1.63112e-32 0 -0 0 0)
(1 -1.96347e-16 -0 -1.52095e-16 2.98634e-32 0 -0 0 0)
(1 -1.93359e-16 -0 -8.13157e-17 1.57231e-32 0 -0 0 0)
(1 -1.27089e-16 -0 3.46295e-17 -4.40103e-33 -0 -0 0 0)
(1 2.5433e-17 -0 -1.87416e-17 -4.76654e-34 0 -0 -0 0)
(1 -4.0114e-17 -0 -8.74598e-17 3.50837e-33 0 -0 0 0)
(1 -3.9811e-17 -0 -7.56655e-17 3.01232e-33 0 -0 0 0)
(1 5.79861e-15 -0 6.12645e-15 3.55249e-29 -0 -0 -0 0)
(1 -8.91481e-16 -0 -9.01801e-16 8.03938e-31 0 -0 0 0)
(1 2.84836e-16 -0 2.83516e-16 8.07555e-32 -0 -0 -0 0)
(1 2.58489e-17 -0 -1.5291e-17 -3.95255e-34 0 -0 -0 0)
(1 -9.97912e-18 -0 -2.68994e-17 2.68432e-34 0 -0 0 0)
(1 -1.41513e-17 -0 5.1578e-17 -7.29895e-34 -0 -0 0 0)
(1 9.19161e-17 -0 7.59961e-17 6.98526e-33 -0 -0 -0 0)
(1 8.79633e-17 -0 2.24099e-17 1.97125e-33 -0 -0 -0 0)
(1 4.11543e-18 -0 -2.23974e-17 -9.21749e-35 0 -0 -0 0)
(1 -6.41647e-18 -0 3.33814e-17 -2.14191e-34 -0 -0 0 0)
(1 8.03637e-17 -0 1.23532e-16 9.9275e-33 -0 -0 -0 0)
(1 1.79813e-16 -0 1.23427e-16 2.21937e-32 -0 -0 -0 0)
(1 9.4887e-17 -0 2.96023e-17 2.80887e-33 -0 -0 -0 0)
(1 -1.07323e-17 -0 1.58965e-17 -1.70607e-34 -0 -0 0 0)
(1 -2.55745e-18 -0 4.53353e-18 -1.15943e-35 -0 -0 0 0)
(1 -4.44588e-17 -0 -4.3282e-17 1.92426e-33 0 -0 0 0)
(1 -1.0653e-16 -0 -5.76206e-17 6.13831e-33 0 -0 0 0)
(1 -7.44032e-17 -0 -9.0836e-17 6.75849e-33 0 -0 0 0)
(1 -1.19363e-16 -0 -1.40485e-16 1.67687e-32 0 -0 0 0)
(1 -1.30543e-16 -0 -1.37742e-16 1.79812e-32 0 -0 0 0)
(1 2.44124e-14 -0 2.45688e-14 5.99784e-28 -0 -0 -0 0)
(1 -4.88771e-15 -0 -4.91506e-15 2.40234e-29 0 -0 0 0)
(1 1.34227e-15 -0 1.28958e-15 1.73096e-30 -0 -0 -0 0)
(1 -2.25015e-16 -0 -3.05822e-16 6.88145e-32 0 -0 0 0)
(1 -3.18378e-17 -0 5.94163e-18 -1.89169e-34 -0 -0 0 0)
(1 -1.52919e-17 -0 7.75483e-17 -1.18586e-33 -0 -0 0 0)
(1 1.42801e-16 -0 1.80352e-16 2.57543e-32 -0 -0 -0 0)
(1 1.44961e-16 -0 1.06838e-16 1.54873e-32 -0 -0 -0 0)
(1 5.96492e-17 -0 -1.91992e-18 -1.14522e-34 0 -0 -0 0)
(1 3.52342e-17 -0 4.91564e-17 1.73198e-33 -0 -0 -0 0)
(1 1.75748e-16 -0 1.15669e-16 2.03286e-32 -0 -0 -0 0)
(1 9.66726e-17 -0 1.92472e-17 1.86068e-33 -0 -0 -0 0)
(1 4.88792e-18 -0 -5.38722e-17 -2.63323e-34 0 -0 -0 0)
(1 -9.26815e-17 -0 -1.45417e-16 1.34775e-32 0 -0 0 0)
(1 -1.2393e-16 -0 -1.24605e-16 1.54423e-32 0 -0 0 0)
(1 -5.14455e-17 -0 2.51227e-17 -1.29245e-33 -0 -0 0 0)
(1 1.27403e-17 -0 1.67712e-17 2.13669e-34 -0 -0 -0 0)
(1 -3.50844e-17 -0 -3.95359e-18 1.38709e-34 0 -0 0 0)
(1 -4.26344e-17 -0 -4.28841e-17 1.82834e-33 0 -0 0 0)
(1 -6.8557e-17 -0 -5.66798e-17 3.8858e-33 0 -0 0 0)
(1 -2.40249e-14 -0 -2.42443e-14 5.82466e-28 0 -0 0 0)
(1 5.16618e-15 -0 5.11539e-15 2.6427e-29 -0 -0 -0 0)
(1 -1.19191e-15 -0 -1.16564e-15 1.38934e-30 0 -0 0 0)
(1 2.90527e-16 -0 2.27208e-16 6.60103e-32 -0 -0 -0 0)
(1 -5.48889e-17 -0 -1.08204e-16 5.93921e-33 0 -0 0 0)
(1 3.15453e-18 -0 2.42427e-17 7.64744e-35 -0 -0 -0 0)
(1 2.50228e-17 -0 3.50325e-17 8.76612e-34 -0 -0 -0 0)
(1 -1.22491e-17 -0 -3.69482e-17 4.52581e-34 0 -0 0 0)
(1 -2.48092e-17 -0 -1.06982e-17 2.65412e-34 0 -0 0 0)
(1 -2.03184e-17 -0 2.07231e-17 -4.21059e-34 -0 -0 0 0)
(1 5.2148e-17 -0 7.34586e-17 3.83072e-33 -0 -0 -0 0)
(1 3.28264e-17 -0 -4.90257e-18 -1.60934e-34 0 -0 -0 0)
(1 -4.141e-17 -0 -1.58989e-16 6.58374e-33 0 -0 0 0)
(1 -1.62304e-16 -0 -2.69455e-16 4.37337e-32 0 -0 0 0)
(1 -2.47475e-16 -0 -2.5106e-16 6.21309e-32 0 -0 0 0)
(1 -1.37211e-16 -0 -1.04935e-16 1.43982e-32 0 -0 0 0)
(1 -3.20304e-17 -0 -4.86954e-17 1.55973e-33 0 -0 0 0)
(1 -2.31219e-17 -0 -3.03195e-17 7.01043e-34 0 -0 0 0)
(1 -7.89402e-18 -0 -7.21095e-18 5.69234e-35 0 -0 0 0)
(1 3.96562e-17 -0 2.57452e-17 1.02096e-33 -0 -0 -0 0)
(1 7.58477e-15 -0 8.11048e-15 6.15161e-29 -0 -0 -0 0)
(1 -1.28312e-15 -0 -1.43444e-15 1.84055e-30 0 -0 0 0)
(1 1.88143e-16 -0 2.04927e-16 3.85556e-32 -0 -0 -0 0)
(1 -2.6445e-17 -0 -7.97849e-17 2.10991e-33 0 -0 0 0)
(1 -7.66284e-18 -0 -4.82429e-17 3.69678e-34 0 -0 0 0)
(1 -3.64575e-17 -0 1.88285e-19 -6.86442e-36 -0 -0 0 0)
(1 -5.90178e-17 -0 -8.20943e-17 4.84502e-33 0 -0 0 0)
(1 -1.14645e-16 -0 -1.23893e-16 1.42038e-32 0 -0 0 0)
(1 -9.10443e-17 -0 -2.24145e-17 2.04071e-33 0 -0 0 0)
(1 -5.14947e-17 -0 -3.71644e-17 1.91377e-33 0 -0 0 0)
(1 -8.26389e-17 -0 -3.38223e-17 2.79504e-33 0 -0 0 0)
(1 -7.07278e-17 -0 8.53276e-18 -6.03504e-34 -0 -0 0 0)
(1 -4.50765e-17 -0 -5.53381e-17 2.49445e-33 0 -0 0 0)
(1 2.1759e-17 -0 2.75028e-17 5.98432e-34 -0 -0 -0 0)
(1 8.50388e-17 -0 7.12855e-17 6.06203e-33 -0 -0 -0 0)
(1 1.31575e-16 -0 3.96693e-17 5.21948e-33 -0 -0 -0 0)
(1 7.76205e-17 -0 -2.26619e-17 -1.75902e-33 0 -0 -0 0)
(1 2.98751e-18 -0 -3.7093e-17 -1.10815e-34 0 -0 -0 0)
(1 -1.9114e-17 -0 -4.32575e-17 8.26825e-34 0 -0 0 0)
(1 6.96778e-18 -0 -5.4562e-17 -3.80176e-34 0 -0 -0 0)
(1 3.16867e-16 -0 -1.63529e-16 -5.18171e-32 0 -0 -0 0)
(1 -1.02052e-15 -0 -9.22911e-16 9.41854e-31 0 -0 0 0)
(1 -6.33832e-17 -0 -1.05175e-16 6.66635e-33 0 -0 0 0)
(1 -3.11959e-16 -0 -2.40552e-16 7.50423e-32 0 -0 0 0)
(1 -9.49337e-17 -0 6.44331e-19 -6.11687e-35 -0 -0 0 0)
(1 -1.14338e-16 -0 -4.52429e-17 5.17297e-33 0 -0 0 0)
(1 -1.4293e-16 -0 -7.34337e-17 1.04959e-32 0 -0 0 0)
(1 -4.26211e-17 -0 1.30472e-17 -5.56088e-34 -0 -0 0 0)
(1 -2.84087e-17 -0 2.31778e-17 -6.58451e-34 -0 -0 0 0)
(1 -1.00647e-17 -0 -6.18645e-17 6.22647e-34 0 -0 0 0)
(1 -6.94242e-17 -0 -8.14472e-17 5.6544e-33 0 -0 0 0)
(1 -2.00332e-17 -0 1.70867e-17 -3.42301e-34 -0 -0 0 0)
(1 -4.67093e-18 -0 2.67817e-17 -1.25095e-34 -0 -0 0 0)
(1 6.7671e-17 -0 1.63576e-17 1.10694e-33 -0 -0 -0 0)
(1 2.48112e-17 -0 3.68381e-18 9.13998e-35 -0 -0 -0 0)
(1 6.94116e-17 -0 5.42231e-17 3.76372e-33 -0 -0 -0 0)
(1 6.32276e-17 -0 -4.5531e-18 -2.87882e-34 0 -0 -0 0)
(1 -1.29059e-17 -0 -1.62528e-17 2.09756e-34 0 -0 0 0)
(1 3.10717e-17 -0 -5.76103e-17 -1.79005e-33 0 -0 -0 0)
(1 -7.35724e-18 -0 -1.38247e-16 1.01711e-33 0 -0 0 0)
(1 2.24459e-16 -0 6.49199e-16 1.45719e-31 -0 -0 -0 0)
(1 2.77461e-16 -0 1.67637e-16 4.65127e-32 -0 -0 -0 0)
(1 -3.23996e-16 -0 -2.8408e-16 9.20409e-32 0 -0 0 0)
(1 -1.52274e-16 -0 -2.49711e-17 3.80246e-33 0 -0 0 0)
(1 1.03745e-17 -0 1.22833e-16 1.27432e-33 -0 -0 -0 0)
(1 5.60161e-17 -0 2.49068e-17 1.39518e-33 -0 -0 -0 0)
(1 -1.79429e-17 -0 2.68488e-18 -4.81747e-35 -0 -0 0 0)
(1 3.49963e-17 -0 4.28556e-17 1.49979e-33 -0 -0 -0 0)
(1 5.3392e-18 -0 -8.57858e-18 -4.58028e-35 0 -0 -0 0)
(1 -1.8842e-17 -0 -2.49018e-17 4.69201e-34 0 -0 0 0)
(1 -1.36431e-17 -0 -2.88757e-17 3.93953e-34 0 -0 0 0)
(1 -9.32267e-18 -0 1.53816e-17 -1.43397e-34 -0 -0 0 0)
(1 8.65551e-18 -0 1.02763e-16 8.89462e-34 -0 -0 -0 0)
(1 4.23588e-17 -0 9.57378e-17 4.05534e-33 -0 -0 -0 0)
(1 9.62418e-17 -0 1.192e-16 1.1472e-32 -0 -0 -0 0)
(1 1.11229e-16 -0 6.80879e-17 7.57334e-33 -0 -0 -0 0)
(1 9.97913e-17 -0 6.08824e-18 6.07554e-34 -0 -0 -0 0)
(1 4.83115e-17 -0 -4.91308e-17 -2.37358e-33 0 -0 -0 0)
(1 1.03622e-16 -0 4.0192e-18 4.16478e-34 -0 -0 -0 0)
(1 1.13763e-16 -0 -4.96971e-17 -5.65372e-33 0 -0 -0 0)
(1 1.04907e-14 -0 1.08312e-14 1.13627e-28 -0 -0 -0 0)
(1 -2.04491e-15 -0 -2.03922e-15 4.17004e-30 0 -0 0 0)
(1 2.33201e-16 -0 3.35841e-16 7.83184e-32 -0 -0 -0 0)
(1 -2.24306e-16 -0 -1.2482e-16 2.79979e-32 0 -0 0 0)
(1 -9.74409e-17 -0 -6.05794e-17 5.90291e-33 0 -0 0 0)
(1 -3.00239e-17 -0 -1.22906e-16 3.69012e-33 0 -0 0 0)
(1 -3.34268e-17 -0 -1.18329e-16 3.95534e-33 0 -0 0 0)
(1 -1.65719e-16 -0 -9.20612e-17 1.52563e-32 0 -0 0 0)
(1 -4.32445e-17 -0 5.1443e-17 -2.22463e-33 -0 -0 0 0)
(1 1.19004e-16 -0 2.11767e-16 2.52011e-32 -0 -0 -0 0)
(1 1.54727e-16 -0 1.39647e-16 2.16071e-32 -0 -0 -0 0)
(1 -9.09919e-18 -0 -2.73322e-18 2.48701e-35 0 -0 0 0)
(1 -1.46009e-17 -0 4.39874e-17 -6.42255e-34 -0 -0 0 0)
(1 -2.80217e-17 -0 5.62515e-17 -1.57626e-33 -0 -0 0 0)
(1 1.1206e-16 -0 1.46973e-16 1.64698e-32 -0 -0 -0 0)
(1 1.29289e-16 -0 8.66646e-17 1.12048e-32 -0 -0 -0 0)
(1 1.74566e-16 -0 1.238e-16 2.16113e-32 -0 -0 -0 0)
(1 1.95006e-16 -0 -1.36486e-17 -2.66156e-33 0 -0 -0 0)
(1 1.6157e-16 -0 -6.72846e-18 -1.08712e-33 0 -0 -0 0)
(1 1.27483e-16 -0 1.27155e-17 1.62101e-33 -0 -0 -0 0)
(1 -2.9042e-14 -0 -2.94809e-14 8.56185e-28 0 -0 0 0)
(1 5.84394e-15 -0 6.03319e-15 3.52576e-29 -0 -0 -0 0)
(1 -1.286e-15 -0 -1.31022e-15 1.68494e-30 0 -0 0 0)
(1 1.3251e-16 -0 2.54102e-16 3.3671e-32 -0 -0 -0 0)
(1 -1.81005e-16 -0 -5.45565e-17 9.87501e-33 0 -0 0 0)
(1 -3.575e-18 -0 9.50962e-17 -3.39969e-34 -0 -0 0 0)
(1 1.77118e-16 -0 1.53218e-16 2.71377e-32 -0 -0 -0 0)
(1 1.68561e-16 -0 1.23428e-16 2.08052e-32 -0 -0 -0 0)
(1 9.80025e-17 -0 1.17242e-16 1.14901e-32 -0 -0 -0 0)
(1 6.64825e-17 -0 8.50529e-17 5.65453e-33 -0 -0 -0 0)
(1 -4.52724e-17 -0 -4.39472e-17 1.98959e-33 0 -0 0 0)
(1 -1.15506e-16 -0 -7.37339e-17 8.51671e-33 0 -0 0 0)
(1 -9.17186e-17 -0 -7.10418e-17 6.51585e-33 0 -0 0 0)
(1 -6.12925e-17 -0 -4.46681e-17 2.73782e-33 0 -0 0 0)
(1 7.1476e-17 -0 8.403e-17 6.00613e-33 -0 -0 -0 0)
(1 1.34716e-16 -0 1.48305e-16 1.99791e-32 -0 -0 -0 0)
(1 1.48982e-16 -0 7.84675e-17 1.16902e-32 -0 -0 -0 0)
(1 8.78175e-17 -0 -6.3135e-17 -5.54436e-33 0 -0 -0 0)
(1 3.36136e-17 -0 -8.83615e-17 -2.97015e-33 0 -0 -0 0)
(1 1.06834e-17 -0 -3.05453e-17 -3.26327e-34 0 -0 -0 0)
(1 3.56656e-14 -0 3.60413e-14 1.28544e-27 -0 -0 -0 0)
(1 -7.45997e-15 -0 -7.53349e-15 5.61996e-29 0 -0 0 0)
(1 1.71281e-15 -0 1.73427e-15 2.97047e-30 -0 -0 -0 0)
(1 -4.04983e-16 -0 -3.58111e-16 1.45029e-31 0 -0 0 0)
(1 5.09087e-17 -0 5.76959e-17 2.93722e-33 -0 -0 -0 0)
(1 -4.95744e-17 -0 7.1722e-17 -3.55558e-33 -0 -0 0 0)
(1 1.29994e-16 -0 2.01587e-16 2.6205e-32 -0 -0 -0 0)
(1 2.1042e-16 -0 1.79351e-16 3.77391e-32 -0 -0 -0 0)
(1 9.37828e-17 -0 9.01501e-17 8.45452e-33 -0 -0 -0 0)
(1 6.24358e-18 -0 2.16137e-17 1.34947e-34 -0 -0 -0 0)
(1 -4.24356e-17 -0 -1.00095e-17 4.24758e-34 0 -0 0 0)
(1 4.81191e-17 -0 5.24514e-17 2.52391e-33 -0 -0 -0 0)
(1 8.74087e-17 -0 3.22958e-17 2.82294e-33 -0 -0 -0 0)
(1 8.16632e-17 -0 1.00095e-16 8.1741e-33 -0 -0 -0 0)
(1 1.24642e-16 -0 1.75633e-16 2.18913e-32 -0 -0 -0 0)
(1 1.60369e-16 -0 1.27462e-16 2.04409e-32 -0 -0 -0 0)
(1 1.04081e-16 -0 -3.45668e-18 -3.59775e-34 0 -0 -0 0)
(1 3.16399e-17 -0 3.0855e-17 9.7625e-34 -0 -0 -0 0)
(1 2.46489e-17 -0 3.91484e-17 9.64966e-34 -0 -0 -0 0)
(1 2.48076e-17 -0 -1.76593e-17 -4.38084e-34 0 -0 -0 0)
(1 -1.50594e-14 -0 -1.5161e-14 2.28315e-28 0 -0 0 0)
(1 3.07384e-15 -0 3.15088e-15 9.68531e-30 -0 -0 -0 0)
(1 -8.51765e-16 -0 -6.94739e-16 5.91754e-31 0 -0 0 0)
(1 2.34925e-16 -0 2.84514e-16 6.68395e-32 -0 -0 -0 0)
(1 9.55415e-17 -0 5.52677e-17 5.28036e-33 -0 -0 -0 0)
(1 7.30037e-17 -0 7.71607e-17 5.63302e-33 -0 -0 -0 0)
(1 -6.04946e-17 -0 -2.13937e-17 1.2942e-33 0 -0 0 0)
(1 -1.15133e-16 -0 -2.81586e-18 3.242e-34 0 -0 0 0)
(1 9.27302e-18 -0 5.39305e-17 5.00098e-34 -0 -0 -0 0)
(1 3.78684e-17 -0 3.36961e-17 1.27602e-33 -0 -0 -0 0)
(1 7.77512e-17 -0 1.13209e-16 8.80217e-33 -0 -0 -0 0)
(1 2.01739e-16 -0 1.47628e-16 2.97823e-32 -0 -0 -0 0)
(1 2.2748e-16 -0 1.1099e-16 2.52481e-32 -0 -0 -0 0)
(1 1.65248e-16 -0 1.1531e-16 1.90547e-32 -0 -0 -0 0)
(1 3.96856e-17 -0 9.3451e-17 3.70866e-33 -0 -0 -0 0)
(1 -2.47671e-17 -0 5.22542e-17 -1.29419e-33 -0 -0 0 0)
(1 7.1829e-18 -0 1.86625e-18 1.34051e-35 -0 -0 -0 0)
(1 8.74965e-17 -0 6.50821e-17 5.69445e-33 -0 -0 -0 0)
(1 7.96223e-17 -0 7.65083e-17 6.09176e-33 -0 -0 -0 0)
(1 4.00556e-17 -0 -7.2683e-18 -2.91136e-34 0 -0 -0 0)
(1 -2.8816e-14 -0 -2.93362e-14 8.45354e-28 0 -0 0 0)
(1 5.79274e-15 -0 5.97457e-15 3.46091e-29 -0 -0 -0 0)
(1 -1.34628e-15 -0 -1.22901e-15 1.65458e-30 0 -0 0 0)
(1 3.30742e-16 -0 3.7429e-16 1.23793e-31 -0 -0 -0 0)
(1 -3.43898e-17 -0 5.17769e-17 -1.7806e-33 -0 -0 0 0)
(1 6.87995e-17 -0 1.15321e-16 7.93404e-33 -0 -0 -0 0)
(1 -3.48787e-17 -0 2.71816e-17 -9.48059e-34 -0 -0 0 0)
(1 3.42575e-17 -0 1.13838e-16 3.8998e-33 -0 -0 -0 0)
(1 1.18779e-16 -0 1.40496e-16 1.6688e-32 -0 -0 -0 0)
(1 9.88732e-17 -0 7.83691e-17 7.74861e-33 -0 -0 -0 0)
(1 1.42103e-16 -0 1.3866e-16 1.97039e-32 -0 -0 -0 0)
(1 1.51931e-16 -0 1.02059e-16 1.55059e-32 -0 -0 -0 0)
(1 8.2982e-17 -0 8.25009e-18 6.84609e-34 -0 -0 -0 0)
(1 3.44778e-17 -0 -1.96543e-17 -6.77637e-34 0 -0 -0 0)
(1 -7.39937e-18 -0 -2.38552e-17 1.76513e-34 0 -0 0 0)
(1 -1.80116e-17 -0 -1.19917e-17 2.15991e-34 0 -0 0 0)
(1 -9.72343e-18 -0 4.38917e-17 -4.26777e-34 -0 -0 0 0)
(1 7.11807e-17 -0 1.12145e-16 7.98253e-33 -0 -0 -0 0)
(1 3.31819e-17 -0 6.02501e-17 1.99921e-33 -0 -0 -0 0)
(1 8.08035e-18 -0 4.32991e-18 3.49872e-35 -0 -0 -0 0)
(1 3.16476e-14 -0 3.17938e-14 1.0062e-27 -0 -0 -0 0)
(1 -6.3164e-15 -0 -6.34223e-15 4.00601e-29 0 -0 0 0)
(1 1.54748e-15 -0 1.58378e-15 2.45087e-30 -0 -0 -0 0)
(1 -2.89648e-16 -0 -2.55568e-16 7.40249e-32 0 -0 0 0)
(1 -4.89899e-17 -0 6.19636e-17 -3.03559e-33 -0 -0 0 0)
(1 -7.50744e-17 -0 -8.63012e-18 6.47902e-34 0 -0 0 0)
(1 -4.5481e-17 -0 3.19304e-17 -1.45223e-33 -0 -0 0 0)
(1 8.97259e-17 -0 1.0875e-16 9.75772e-33 -0 -0 -0 0)
(1 1.11821e-16 -0 1.0306e-16 1.15244e-32 -0 -0 -0 0)
(1 3.50666e-17 -0 6.30239e-17 2.21004e-33 -0 -0 -0 0)
(1 1.17764e-16 -0 1.14542e-16 1.3489e-32 -0 -0 -0 0)
(1 2.00952e-16 -0 1.38982e-16 2.79287e-32 -0 -0 -0 0)
(1 1.21792e-16 -0 8.19186e-17 9.97702e-33 -0 -0 -0 0)
(1 9.67812e-17 -0 4.4131e-17 4.27105e-33 -0 -0 -0 0)
(1 2.15897e-17 -0 -3.3689e-17 -7.27337e-34 0 -0 -0 0)
(1 2.72084e-18 -0 -7.0958e-17 -1.93066e-34 0 -0 -0 0)
(1 3.03662e-17 -0 9.15715e-17 2.78068e-33 -0 -0 -0 0)
(1 9.2813e-17 -0 2.14256e-16 1.98858e-32 -0 -0 -0 0)
(1 7.00273e-17 -0 1.05065e-16 7.3574e-33 -0 -0 -0 0)
(1 2.40453e-18 -0 9.0769e-18 2.18257e-35 -0 -0 -0 0)
(1 4.62328e-15 -0 4.93704e-15 2.28253e-29 -0 -0 -0 0)
(1 -2.66701e-16 -0 -2.89304e-16 7.71577e-32 0 -0 0 0)
(1 2.65286e-16 -0 2.6574e-16 7.04969e-32 -0 -0 -0 0)
(1 1.00368e-16 -0 1.56398e-16 1.56974e-32 -0 -0 -0 0)
(1 9.74176e-17 -0 1.79675e-16 1.75035e-32 -0 -0 -0 0)
(1 1.24291e-16 -0 1.46654e-16 1.82277e-32 -0 -0 -0 0)
(1 9.7511e-17 -0 1.11259e-16 1.0849e-32 -0 -0 -0 0)
(1 1.03014e-16 -0 7.4177e-17 7.64126e-33 -0 -0 -0 0)
(1 8.05329e-17 -0 -4.36724e-18 -3.51707e-34 0 -0 -0 0)
(1 -4.89607e-17 -0 -8.21043e-17 4.01988e-33 0 -0 0 0)
(1 -6.6988e-17 -0 -8.15429e-17 5.4624e-33 0 -0 0 0)
(1 2.01216e-17 -0 -2.8098e-18 -5.65377e-35 0 -0 -0 0)
(1 3.92516e-17 -0 5.98483e-17 2.34914e-33 -0 -0 -0 0)
(1 8.94483e-17 -0 9.62216e-17 8.60686e-33 -0 -0 -0 0)
(1 7.42642e-17 -0 5.22773e-17 3.88233e-33 -0 -0 -0 0)
(1 2.608e-17 -0 5.15621e-17 1.34474e-33 -0 -0 -0 0)
(1 5.98406e-17 -0 8.8021e-17 5.26723e-33 -0 -0 -0 0)
(1 8.08304e-17 -0 1.23522e-16 9.98432e-33 -0 -0 -0 0)
(1 6.86821e-17 -0 5.5273e-17 3.79626e-33 -0 -0 -0 0)
(1 2.90633e-18 -0 -1.41275e-17 -4.10592e-35 0 -0 -0 0)
)
;

boundaryField
{
    movingWall
    {
        type            calculated;
        value           uniform (1 0 0 0 0 0 0 0 0);
    }
    fixedWalls
    {
        type            calculated;
        value           uniform (1 0 0 0 0 0 0 0 0);
    }
    frontAndBack
    {
        type            empty;
    }
}


// ************************************************************************* //
