/*--------------------------------*- C++ -*----------------------------------*\
| =========                 |                                                 |
| \\      /  F ield         | OpenFOAM: The Open Source CFD Toolbox           |
|  \\    /   O peration     | Version:  2506                                  |
|   \\  /    A nd           | Website:  www.openfoam.com                      |
|    \\/     M anipulation  |                                                 |
\*---------------------------------------------------------------------------*/
FoamFile
{
    version     2.0;
    format      ascii;
    arch        "LSB;label=32;scalar=64";
    class       volScalarField;
    location    "8";
    object      Uy;
}
// * * * * * * * * * * * * * * * * * * * * * * * * * * * * * * * * * * * * * //

dimensions      [0 1 -1 0 0 0 0];

internalField   nonuniform List<scalar> 
400
(
5.78692e-14
-1.12323e-14
2.68626e-15
-4.77077e-16
1.32392e-16
6.28781e-17
1.07593e-16
9.69171e-17
1.04634e-16
7.73149e-17
1.97213e-17
1.35908e-17
5.03757e-17
9.89738e-17
2.14907e-17
-4.08411e-17
1.47785e-17
7.38892e-17
-1.65126e-17
-4.03082e-17
1.34004e-15
-7.17613e-17
7.82386e-17
1.07188e-16
1.05538e-16
1.46638e-16
1.29587e-16
9.12691e-17
4.10629e-17
-1.32149e-17
-2.01309e-17
-1.42169e-17
1.48101e-17
1.58618e-16
1.06248e-16
8.74313e-17
8.37558e-17
-1.91006e-17
-1.60322e-16
-8.75541e-17
-4.064e-14
7.77086e-15
-1.85551e-15
4.56615e-16
7.24645e-17
4.79992e-17
3.37359e-17
5.83374e-17
-2.02606e-17
-4.16439e-17
-2.66513e-17
-1.25087e-16
-1.1164e-16
3.5878e-17
2.0087e-16
1.6384e-16
5.92822e-17
-1.56292e-16
-2.1903e-16
-9.94866e-17
2.60143e-14
-5.44777e-15
1.29298e-15
-2.04116e-16
2.00957e-16
1.66339e-16
2.97195e-16
2.63239e-16
1.2937e-16
6.46537e-17
6.58369e-17
3.41573e-17
-4.28611e-18
-1.13844e-16
5.73016e-18
3.81377e-17
-5.40671e-18
-1.01115e-16
-1.14804e-16
-7.31804e-17
-1.1572e-14
2.47602e-15
-6.72445e-16
9.03922e-19
-6.81791e-17
1.39037e-16
1.92001e-16
1.89669e-16
1.89461e-16
1.13747e-16
1.0487e-16
1.18072e-16
1.35584e-17
-1.6231e-16
-1.79906e-16
1.27243e-17
8.92665e-17
7.51366e-17
3.91482e-17
2.20578e-17
-1.21078e-14
2.08681e-15
-8.69956e-16
-8.96771e-17
-1.28158e-16
9.9252e-17
1.2266e-16
1.44382e-16
1.97721e-16
2.24408e-16
2.03731e-16
8.6821e-17
-3.8581e-17
-3.16377e-17
-1.67774e-17
-9.68592e-18
2.10935e-17
1.22428e-16
9.84361e-17
4.31786e-17
2.41951e-14
-4.81462e-15
9.18619e-16
-2.98945e-16
8.25722e-17
1.85422e-16
2.18601e-16
1.32218e-16
6.47418e-17
7.24417e-17
8.58947e-17
7.01607e-17
9.2475e-17
1.35754e-16
1.52095e-16
8.13157e-17
-3.46295e-17
1.87416e-17
8.74598e-17
7.56655e-17
-6.12645e-15
9.01801e-16
-2.83516e-16
1.5291e-17
2.68994e-17
-5.1578e-17
-7.59961e-17
-2.24099e-17
2.23974e-17
-3.33814e-17
-1.23532e-16
-1.23427e-16
-2.96023e-17
-1.58965e-17
-4.53353e-18
4.3282e-17
5.76206e-17
9.0836e-17
1.40485e-16
1.37742e-16
-2.45688e-14
4.91506e-15
-1.28958e-15
3.05822e-16
-5.94163e-18
-7.75483e-17
-1.80352e-16
-1.06838e-16
1.91992e-18
-4.91564e-17
-1.15669e-16
-1.92472e-17
5.38722e-17
1.45417e-16
1.24605e-16
-2.51227e-17
-1.67712e-17
3.95359e-18
4.28841e-17
5.66798e-17
2.42443e-14
-5.11539e-15
1.16564e-15
-2.27208e-16
1.08204e-16
-2.42427e-17
-3.50325e-17
3.69482e-17
1.06982e-17
-2.07231e-17
-7.34586e-17
4.90257e-18
1.58989e-16
2.69455e-16
2.5106e-16
1.04935e-16
4.86954e-17
3.03195e-17
7.21095e-18
-2.57452e-17
-8.11048e-15
1.43444e-15
-2.04927e-16
7.97849e-17
4.82429e-17
-1.88285e-19
8.20943e-17
1.23893e-16
2.24145e-17
3.71644e-17
3.38223e-17
-8.53276e-18
5.53381e-17
-2.75028e-17
-7.12855e-17
-3.96693e-17
2.26619e-17
3.7093e-17
4.32575e-17
5.4562e-17
1.63529e-16
9.22911e-16
1.05175e-16
2.40552e-16
-6.44331e-19
4.52429e-17
7.34337e-17
-1.30472e-17
-2.31778e-17
6.18645e-17
8.14472e-17
-1.70867e-17
-2.67817e-17
-1.63576e-17
-3.68381e-18
-5.42231e-17
4.5531e-18
1.62528e-17
5.76103e-17
1.38247e-16
-6.49199e-16
-1.67637e-16
2.8408e-16
2.49711e-17
-1.22833e-16
-2.49068e-17
-2.68488e-18
-4.28556e-17
8.57858e-18
2.49018e-17
2.88757e-17
-1.53816e-17
-1.02763e-16
-9.57378e-17
-1.192e-16
-6.80879e-17
-6.08824e-18
4.91308e-17
-4.0192e-18
4.96971e-17
-1.08312e-14
2.03922e-15
-3.35841e-16
1.2482e-16
6.05794e-17
1.22906e-16
1.18329e-16
9.20612e-17
-5.1443e-17
-2.11767e-16
-1.39647e-16
2.73322e-18
-4.39874e-17
-5.62515e-17
-1.46973e-16
-8.66646e-17
-1.238e-16
1.36486e-17
6.72846e-18
-1.27155e-17
2.94809e-14
-6.03319e-15
1.31022e-15
-2.54102e-16
5.45565e-17
-9.50962e-17
-1.53218e-16
-1.23428e-16
-1.17242e-16
-8.50529e-17
4.39472e-17
7.37339e-17
7.10418e-17
4.46681e-17
-8.403e-17
-1.48305e-16
-7.84675e-17
6.3135e-17
8.83615e-17
3.05453e-17
-3.60413e-14
7.53349e-15
-1.73427e-15
3.58111e-16
-5.76959e-17
-7.1722e-17
-2.01587e-16
-1.79351e-16
-9.01501e-17
-2.16137e-17
1.00095e-17
-5.24514e-17
-3.22958e-17
-1.00095e-16
-1.75633e-16
-1.27462e-16
3.45668e-18
-3.0855e-17
-3.91484e-17
1.76593e-17
1.5161e-14
-3.15088e-15
6.94739e-16
-2.84514e-16
-5.52677e-17
-7.71607e-17
2.13937e-17
2.81586e-18
-5.39305e-17
-3.36961e-17
-1.13209e-16
-1.47628e-16
-1.1099e-16
-1.1531e-16
-9.3451e-17
-5.22542e-17
-1.86625e-18
-6.50821e-17
-7.65083e-17
7.2683e-18
2.93362e-14
-5.97457e-15
1.22901e-15
-3.7429e-16
-5.17769e-17
-1.15321e-16
-2.71816e-17
-1.13838e-16
-1.40496e-16
-7.83691e-17
-1.3866e-16
-1.02059e-16
-8.25009e-18
1.96543e-17
2.38552e-17
1.19917e-17
-4.38917e-17
-1.12145e-16
-6.02501e-17
-4.32991e-18
-3.17938e-14
6.34223e-15
-1.58378e-15
2.55568e-16
-6.19636e-17
8.63012e-18
-3.19304e-17
-1.0875e-16
-1.0306e-16
-6.30239e-17
-1.14542e-16
-1.38982e-16
-8.19186e-17
-4.4131e-17
3.3689e-17
7.0958e-17
-9.15715e-17
-2.14256e-16
-1.05065e-16
-9.0769e-18
-4.93704e-15
2.89304e-16
-2.6574e-16
-1.56398e-16
-1.79675e-16
-1.46654e-16
-1.11259e-16
-7.4177e-17
4.36724e-18
8.21043e-17
8.15429e-17
2.8098e-18
-5.98483e-17
-9.62216e-17
-5.22773e-17
-5.15621e-17
-8.8021e-17
-1.23522e-16
-5.5273e-17
1.41275e-17
)
;

boundaryField
{
    movingWall
    {
        type            calculated;
        value           uniform -0;
    }
    fixedWalls
    {
        type            calculated;
        value           uniform -0;
    }
    frontAndBack
    {
        type            empty;
    }
}


// ************************************************************************* //
