/*--------------------------------*- C++ -*----------------------------------*\
| =========                 |                                                 |
| \\      /  F ield         | OpenFOAM: The Open Source CFD Toolbox           |
|  \\    /   O peration     | Version:  2506                                  |
|   \\  /    A nd           | Website:  www.openfoam.com                      |
|    \\/     M anipulation  |                                                 |
\*---------------------------------------------------------------------------*/
FoamFile
{
    version     2.0;
    format      ascii;
    arch        "LSB;label=32;scalar=64";
    class       volVectorField;
    location    "8";
    object      vorticityField;
}
// * * * * * * * * * * * * * * * * * * * * * * * * * * * * * * * * * * * * * //

dimensions      [0 0 -1 0 0 0 0];

internalField   nonuniform List<vector> 
400
(
(0 -0 4.745e-12)
(0 -0 -5.51829e-12)
(0 -0 1.07552e-12)
(0 -0 -3.36702e-13)
(0 -0 2.68904e-14)
(0 -0 -2.9585e-14)
(0 -0 -2.37011e-14)
(0 -0 -2.9586e-16)
(0 -0 -1.96022e-15)
(0 -0 -8.49128e-15)
(0 -0 -6.37241e-15)
(0 -0 -5.11447e-14)
(0 -0 8.5383e-15)
(0 -0 -5.70986e-14)
(0 -0 -1.39815e-14)
(0 -0 -6.71217e-16)
(0 -0 1.1473e-14)
(0 -0 7.81861e-14)
(0 -0 -1.14197e-14)
(0 -0 5.68208e-15)
(0 -0 1.81038e-13)
(0 -0 -9.90752e-14)
(0 -0 1.5342e-13)
(0 -0 2.9835e-14)
(0 -0 8.52602e-14)
(0 -0 8.37201e-14)
(0 -0 2.15681e-14)
(0 -0 4.53577e-14)
(0 -0 4.37617e-14)
(0 -0 4.80907e-14)
(0 -0 5.41099e-14)
(0 -0 1.11914e-13)
(0 -0 7.14936e-14)
(0 -0 6.33539e-14)
(0 -0 -7.11867e-15)
(0 -0 -2.2492e-15)
(0 -0 -1.06532e-14)
(0 -0 -5.15129e-14)
(0 -0 -3.39504e-14)
(0 -0 2.47876e-14)
(0 -0 -3.63928e-12)
(0 -0 3.77003e-12)
(0 -0 -9.2116e-13)
(0 -0 1.65693e-13)
(0 -0 -2.03492e-13)
(0 -0 -1.39398e-13)
(0 -0 -5.31763e-14)
(0 -0 -1.1382e-13)
(0 -0 -1.18418e-13)
(0 -0 -5.48492e-14)
(0 -0 -6.25544e-14)
(0 -0 -8.49885e-15)
(0 -0 4.32016e-14)
(0 -0 8.54611e-14)
(0 -0 -1.43088e-14)
(0 -0 -1.41588e-14)
(0 -0 -5.91183e-14)
(0 -0 -8.20413e-14)
(0 -0 5.68051e-15)
(0 -0 3.18516e-14)
(0 -0 2.3277e-12)
(0 -0 -2.36371e-12)
(0 -0 5.78575e-13)
(0 -0 -8.20973e-14)
(0 -0 6.41505e-14)
(0 -0 3.67288e-14)
(0 -0 9.69e-15)
(0 -0 -1.67825e-14)
(0 -0 -1.98585e-14)
(0 -0 -6.05634e-14)
(0 -0 -5.72597e-14)
(0 -0 -8.83275e-14)
(0 -0 -9.61153e-14)
(0 -0 1.00163e-15)
(0 -0 -1.19069e-14)
(0 -0 -2.82187e-14)
(0 -0 -4.10303e-14)
(0 -0 -6.51498e-14)
(0 -0 2.79346e-15)
(0 -0 1.87985e-14)
(0 -0 -1.01802e-12)
(0 -0 1.17127e-12)
(0 -0 -2.47511e-13)
(0 -0 8.75316e-14)
(0 -0 4.09184e-14)
(0 -0 8.02281e-14)
(0 -0 5.06322e-15)
(0 -0 -2.53975e-16)
(0 -0 -7.59219e-15)
(0 -0 1.8646e-14)
(0 -0 2.75376e-14)
(0 -0 -3.62362e-14)
(0 -0 -8.22484e-14)
(0 -0 -1.27767e-13)
(0 -0 1.75035e-14)
(0 -0 5.40223e-14)
(0 -0 6.24123e-15)
(0 -0 -5.01182e-15)
(0 -0 -5.30788e-15)
(0 -0 -6.12061e-15)
(0 -0 -7.58153e-13)
(0 -0 9.88258e-13)
(0 -0 -1.63438e-13)
(0 -0 1.2839e-13)
(0 -0 1.00208e-13)
(0 -0 1.06397e-13)
(0 -0 5.87232e-14)
(0 -0 1.15926e-13)
(0 -0 1.16423e-13)
(0 -0 2.7706e-14)
(0 -0 1.33463e-14)
(0 -0 -2.42312e-14)
(0 -0 -1.18459e-14)
(0 -0 2.18037e-15)
(0 -0 2.93002e-14)
(0 -0 3.78709e-15)
(0 -0 4.03164e-14)
(0 -0 6.19444e-14)
(0 -0 -7.92492e-15)
(0 -0 -4.12665e-14)
(0 -0 2.2362e-12)
(0 -0 -2.21923e-12)
(0 -0 5.87093e-13)
(0 -0 -2.28954e-15)
(0 -0 1.83962e-13)
(0 -0 1.22023e-13)
(0 -0 1.30205e-13)
(0 -0 1.17191e-14)
(0 -0 2.11274e-14)
(0 -0 8.34304e-14)
(0 -0 8.10871e-14)
(0 -0 5.48681e-14)
(0 -0 6.07695e-14)
(0 -0 6.01721e-14)
(0 -0 7.58713e-14)
(0 -0 -1.86725e-14)
(0 -0 -3.33625e-14)
(0 -0 6.6419e-14)
(0 -0 5.6924e-15)
(0 -0 -4.34176e-14)
(0 -0 -9.2904e-13)
(0 -0 5.30083e-13)
(0 -0 -2.24176e-13)
(0 -0 -5.02736e-14)
(0 -0 -1.42212e-13)
(0 -0 -1.45815e-13)
(0 -0 -7.83984e-14)
(0 -0 -1.72657e-14)
(0 -0 -8.24123e-14)
(0 -0 -4.1698e-14)
(0 -0 -9.03197e-14)
(0 -0 9.39298e-15)
(0 -0 -1.6352e-14)
(0 -0 2.50688e-15)
(0 -0 5.91785e-15)
(0 -0 8.75306e-14)
(0 -0 1.13176e-13)
(0 -0 8.28642e-15)
(0 -0 3.17956e-14)
(0 -0 -7.17574e-16)
(0 -0 -1.96537e-12)
(0 -0 2.13819e-12)
(0 -0 -6.23554e-13)
(0 -0 -7.1615e-15)
(0 -0 -1.73862e-13)
(0 -0 -1.25861e-13)
(0 -0 -8.42441e-14)
(0 -0 -6.3088e-14)
(0 -0 5.76813e-15)
(0 -0 -9.3074e-14)
(0 -0 -2.41141e-14)
(0 -0 1.69541e-14)
(0 -0 1.64664e-14)
(0 -0 7.0733e-15)
(0 -0 -7.12641e-14)
(0 -0 -9.54528e-14)
(0 -0 2.90763e-15)
(0 -0 5.96553e-15)
(0 -0 5.94827e-14)
(0 -0 1.71487e-14)
(0 -0 2.04842e-12)
(0 -0 -2.17234e-12)
(0 -0 5.97239e-13)
(0 -0 -2.44286e-14)
(0 -0 1.01612e-13)
(0 -0 3.98864e-14)
(0 -0 8.74343e-14)
(0 -0 8.58882e-14)
(0 -0 7.5548e-14)
(0 -0 7.28995e-14)
(0 -0 1.10983e-13)
(0 -0 7.74549e-14)
(0 -0 1.0777e-13)
(0 -0 9.05222e-14)
(0 -0 3.77581e-14)
(0 -0 -2.02364e-14)
(0 -0 -6.16716e-14)
(0 -0 -5.83585e-14)
(0 -0 -5.98166e-14)
(0 -0 -2.52516e-14)
(0 -0 -1.80602e-12)
(0 -0 9.80291e-13)
(0 -0 -1.6257e-13)
(0 -0 1.06632e-13)
(0 -0 4.62128e-14)
(0 -0 5.75952e-14)
(0 -0 3.95132e-14)
(0 -0 -5.96798e-15)
(0 -0 -3.57779e-14)
(0 -0 1.14078e-15)
(0 -0 -4.56971e-15)
(0 -0 2.15157e-15)
(0 -0 -1.897e-15)
(0 -0 -3.97674e-14)
(0 -0 -8.25318e-14)
(0 -0 9.39473e-15)
(0 -0 7.67623e-15)
(0 -0 2.05957e-15)
(0 -0 1.7469e-15)
(0 -0 -9.78195e-15)
(0 -0 2.06021e-12)
(0 -0 -2.76886e-13)
(0 -0 1.48604e-13)
(0 -0 -1.0582e-14)
(0 -0 7.57418e-15)
(0 -0 3.45129e-14)
(0 -0 -5.82902e-15)
(0 -0 1.74439e-14)
(0 -0 3.45962e-14)
(0 -0 3.75676e-14)
(0 -0 -8.92103e-14)
(0 -0 -1.08229e-14)
(0 -0 2.7178e-14)
(0 -0 2.30978e-15)
(0 -0 7.75286e-14)
(0 -0 8.23691e-16)
(0 -0 6.12577e-14)
(0 -0 5.30572e-15)
(0 -0 6.64095e-14)
(0 -0 7.51936e-15)
(0 -0 -2.71419e-13)
(0 -0 9.33279e-14)
(0 -0 -8.91594e-14)
(0 -0 -1.22006e-13)
(0 -0 -3.20928e-14)
(0 -0 -1.50903e-14)
(0 -0 -2.88999e-14)
(0 -0 -2.59787e-14)
(0 -0 -2.03293e-14)
(0 -0 -2.50753e-14)
(0 -0 -4.02834e-15)
(0 -0 -6.73739e-14)
(0 -0 -8.93508e-14)
(0 -0 -5.58539e-14)
(0 -0 -5.14451e-14)
(0 -0 1.13112e-14)
(0 -0 1.17219e-14)
(0 -0 2.06904e-16)
(0 -0 -5.41535e-14)
(0 -0 -3.16728e-14)
(0 -0 -2.64103e-12)
(0 -0 1.45611e-12)
(0 -0 -3.26966e-13)
(0 -0 9.38521e-14)
(0 -0 -5.44015e-14)
(0 -0 5.77492e-15)
(0 -0 -5.72946e-14)
(0 -0 -9.82923e-14)
(0 -0 -1.38803e-13)
(0 -0 -1.17241e-13)
(0 -0 -5.65501e-15)
(0 -0 -4.46442e-14)
(0 -0 -3.30035e-14)
(0 -0 -3.74036e-14)
(0 -0 -3.01464e-14)
(0 -0 -2.47878e-14)
(0 -0 -4.41788e-14)
(0 -0 -1.40522e-14)
(0 -0 -2.97415e-14)
(0 -0 5.98704e-16)
(0 -0 3.5374e-12)
(0 -0 -3.08812e-12)
(0 -0 7.13434e-13)
(0 -0 -1.25567e-13)
(0 -0 7.01107e-14)
(0 -0 -2.07775e-14)
(0 -0 5.13769e-14)
(0 -0 8.49127e-14)
(0 -0 5.80476e-14)
(0 -0 1.24539e-13)
(0 -0 9.71938e-14)
(0 -0 1.1113e-13)
(0 -0 1.05514e-13)
(0 -0 6.5808e-14)
(0 -0 7.80776e-15)
(0 -0 2.76613e-14)
(0 -0 2.1144e-14)
(0 -0 4.3788e-14)
(0 -0 2.38461e-14)
(0 -0 1.52144e-14)
(0 -0 -2.57973e-12)
(0 -0 3.29518e-12)
(0 -0 -7.44643e-13)
(0 -0 1.13447e-13)
(0 -0 -4.29833e-14)
(0 -0 -9.57043e-14)
(0 -0 -6.4973e-14)
(0 -0 -4.30664e-14)
(0 -0 1.57738e-14)
(0 -0 1.0016e-14)
(0 -0 -5.72939e-14)
(0 -0 -5.84406e-14)
(0 -0 -8.60795e-14)
(0 -0 -6.85438e-14)
(0 -0 -2.98417e-14)
(0 -0 1.7909e-14)
(0 -0 9.66069e-15)
(0 -0 -4.26051e-15)
(0 -0 4.85143e-15)
(0 -0 -2.49561e-14)
(0 -0 9.29959e-13)
(0 -0 -1.36531e-12)
(0 -0 2.86637e-13)
(0 -0 -7.50007e-14)
(0 -0 -3.34748e-14)
(0 -0 7.66614e-15)
(0 -0 7.99766e-15)
(0 -0 -7.53241e-15)
(0 -0 -3.07563e-14)
(0 -0 -8.72431e-14)
(0 -0 -6.56033e-14)
(0 -0 -2.68831e-14)
(0 -0 -5.09783e-14)
(0 -0 -5.24562e-14)
(0 -0 -2.07995e-14)
(0 -0 6.33686e-14)
(0 -0 -1.28278e-15)
(0 -0 -7.4642e-15)
(0 -0 7.23504e-15)
(0 -0 6.924e-15)
(0 -0 1.76696e-12)
(0 -0 -2.6752e-12)
(0 -0 5.05818e-13)
(0 -0 -1.82288e-13)
(0 -0 2.58969e-14)
(0 -0 2.45954e-15)
(0 -0 1.48305e-16)
(0 -0 -6.55416e-14)
(0 -0 3.5469e-15)
(0 -0 2.72887e-14)
(0 -0 5.18411e-14)
(0 -0 4.0146e-14)
(0 -0 1.20592e-13)
(0 -0 5.74206e-14)
(0 -0 5.34439e-14)
(0 -0 -6.09848e-14)
(0 -0 -1.24136e-14)
(0 -0 5.25743e-14)
(0 -0 1.07815e-14)
(0 -0 6.458e-15)
(0 -0 -2.95173e-12)
(0 -0 3.021e-12)
(0 -0 -7.71297e-13)
(0 -0 1.52182e-13)
(0 -0 -7.89039e-14)
(0 -0 -2.41017e-14)
(0 -0 -6.59482e-14)
(0 -0 -6.13231e-14)
(0 -0 -4.96375e-14)
(0 -0 -5.53583e-14)
(0 -0 -6.18059e-14)
(0 -0 -5.09477e-14)
(0 -0 -7.18301e-14)
(0 -0 -4.26493e-14)
(0 -0 -1.55962e-14)
(0 -0 -6.67362e-14)
(0 -0 -8.27315e-14)
(0 -0 -5.55594e-14)
(0 -0 2.05179e-14)
(0 -0 3.85192e-14)
(0 -0 2.39958e-13)
(0 -0 3.85815e-13)
(0 -0 1.1806e-13)
(0 -0 6.28165e-14)
(0 -0 5.51845e-14)
(0 -0 6.10517e-14)
(0 -0 6.14578e-14)
(0 -0 1.19983e-13)
(0 -0 9.69433e-14)
(0 -0 6.19277e-14)
(0 -0 4.62807e-14)
(0 -0 4.0071e-14)
(0 -0 1.72019e-14)
(0 -0 5.49672e-14)
(0 -0 3.1571e-14)
(0 -0 5.06357e-14)
(0 -0 4.70141e-14)
(0 -0 3.2748e-15)
(0 -0 1.37649e-14)
(0 -0 4.11455e-15)
)
;

boundaryField
{
    movingWall
    {
        type            calculated;
        value           nonuniform List<vector> 
20
(
(0 -0 5.12223e-13)
(0 -0 6.89174e-13)
(0 -0 5.32746e-13)
(0 -0 3.19469e-13)
(0 -0 3.56246e-13)
(0 -0 2.73295e-13)
(0 -0 2.29292e-13)
(0 -0 2.78016e-13)
(0 -0 2.37673e-13)
(0 -0 2.29762e-13)
(0 -0 2.14115e-13)
(0 -0 2.07905e-13)
(0 -0 2.12141e-13)
(0 -0 1.78393e-13)
(0 -0 1.37693e-13)
(0 -0 1.74061e-13)
(0 -0 1.26031e-13)
(0 -0 4.76837e-14)
(0 -0 1.37649e-14)
(0 -0 4.11455e-15)
)
;
    }
    fixedWalls
    {
        type            calculated;
        value           nonuniform List<vector> 
60
(
(0 -0 2.3229e-11)
(0 -0 5.90226e-13)
(0 -0 -1.66084e-11)
(0 -0 1.06768e-11)
(0 -0 -4.73722e-12)
(0 -0 -4.59917e-12)
(0 -0 9.97619e-12)
(0 -0 -2.85715e-12)
(0 -0 -9.82752e-12)
(0 -0 9.83325e-12)
(0 -0 -4.3826e-12)
(0 -0 2.01698e-12)
(0 -0 -4.49415e-13)
(0 -0 -6.09431e-12)
(0 -0 1.2985e-11)
(0 -0 -1.41455e-11)
(0 -0 5.79334e-12)
(0 -0 1.11653e-11)
(0 -0 -1.31241e-11)
(0 -0 -1.27008e-12)
(0 -0 1.61233e-14)
(0 -0 3.50217e-14)
(0 -0 3.97947e-14)
(0 -0 2.92722e-14)
(0 -0 -8.82314e-15)
(0 -0 -4.43765e-14)
(0 -0 -5.73713e-14)
(0 -0 -2.79916e-14)
(0 -0 4.43315e-15)
(0 -0 -1.6807e-14)
(0 -0 -2.18248e-14)
(0 -0 -2.81936e-14)
(0 -0 -4.69839e-14)
(0 -0 5.0862e-15)
(0 -0 1.48869e-14)
(0 -0 -3.41688e-14)
(0 -0 -2.90732e-15)
(0 -0 1.73197e-15)
(0 -0 3.07358e-14)
(0 -0 -5.65099e-15)
(0 -0 2.44324e-12)
(0 -0 -5.5627e-12)
(0 -0 4.09388e-13)
(0 -0 -5.66249e-13)
(0 -0 -2.12458e-13)
(0 -0 -3.13342e-13)
(0 -0 -2.18641e-13)
(0 -0 -1.77932e-13)
(0 -0 -1.79596e-13)
(0 -0 -9.73091e-14)
(0 -0 -5.07813e-14)
(0 -0 -8.57524e-14)
(0 -0 -3.58706e-14)
(0 -0 -9.17063e-14)
(0 -0 -1.39815e-14)
(0 -0 -6.71217e-16)
(0 -0 -3.29359e-14)
(0 -0 8.56887e-14)
(0 -0 7.73981e-14)
(0 -0 5.68208e-15)
)
;
    }
    frontAndBack
    {
        type            empty;
    }
}


// ************************************************************************* //
