/*--------------------------------*- C++ -*----------------------------------*\
| =========                 |                                                 |
| \\      /  F ield         | OpenFOAM: The Open Source CFD Toolbox           |
|  \\    /   O peration     | Version:  2506                                  |
|   \\  /    A nd           | Website:  www.openfoam.com                      |
|    \\/     M anipulation  |                                                 |
\*---------------------------------------------------------------------------*/
FoamFile
{
    version     2.0;
    format      ascii;
    arch        "LSB;label=32;scalar=64";
    class       volVectorField;
    location    "8";
    object      wallShearStress;
}
// * * * * * * * * * * * * * * * * * * * * * * * * * * * * * * * * * * * * * //

dimensions      [0 2 -2 0 0 0 0];

internalField   uniform (0 0 0);

boundaryField
{
    movingWall
    {
        type            calculated;
        value           uniform (0 0 0);
    }
    fixedWalls
    {
        type            calculated;
        value           nonuniform List<vector> 
60
(
(9.86686e-18 -2.30664e-16 0)
(-3.13299e-17 -4.81806e-18 0)
(-1.13801e-17 1.59036e-16 0)
(3.47738e-17 -1.01346e-16 0)
(-3.96255e-17 4.52038e-17 0)
(3.45029e-17 5.08706e-17 0)
(1.61909e-18 -9.37987e-17 0)
(-5.27179e-18 2.044e-17 0)
(-2.25334e-18 9.82752e-17 0)
(3.93939e-17 -9.5622e-17 0)
(-3.26332e-17 2.10578e-17 0)
(-2.75924e-17 1.88615e-17 0)
(7.91196e-17 6.99443e-19 0)
(-2.07694e-17 2.57065e-17 0)
(-2.45043e-17 -1.05998e-16 0)
(1.29539e-17 1.46876e-16 0)
(4.8322e-17 -6.33544e-17 0)
(-2.18293e-17 -1.23037e-16 0)
(-4.831e-17 1.23109e-16 0)
(1.14606e-17 2.67955e-17 0)
(8.52416e-20 1.61233e-19 0)
(3.94523e-20 3.50217e-19 0)
(-9.5825e-21 3.97947e-19 0)
(-8.10297e-20 2.92722e-19 0)
(-7.75727e-20 -8.82314e-20 0)
(-3.57385e-20 9.83362e-20 0)
(-1.24728e-18 -3.16116e-20 0)
(-5.79462e-19 -8.22017e-19 0)
(1.08991e-19 -4.9777e-19 0)
(1.41186e-21 3.74031e-19 0)
(-1.29357e-18 -2.18248e-19 0)
(3.24322e-21 -8.24037e-19 0)
(1.00641e-19 7.2262e-20 0)
(-5.79351e-19 5.0862e-20 0)
(-6.12369e-19 -3.93232e-19 0)
(1.5518e-20 2.00413e-19 0)
(-5.77459e-19 -2.90732e-20 0)
(1.08968e-20 1.73197e-20 0)
(-6.04424e-19 -2.34743e-19 0)
(3.36705e-21 -5.65099e-20 0)
(-6.88413e-17 -3.04841e-16 0)
(5.47388e-17 5.73758e-17 0)
(-1.74166e-17 -1.39653e-17 0)
(-5.54755e-19 2.00231e-18 0)
(-3.20449e-18 -7.06092e-19 0)
(-3.08382e-18 -5.1605e-19 0)
(-2.25449e-18 -9.35228e-19 0)
(-1.7734e-18 -5.16891e-19 0)
(-1.75675e-18 -7.38749e-19 0)
(-8.03266e-19 -4.12346e-19 0)
(-3.80365e-19 -2.85881e-19 0)
(-9.18833e-19 1.08216e-19 0)
(-5.29472e-19 -2.6867e-19 0)
(-8.59293e-19 -7.08561e-19 0)
(1.39815e-19 -2.95317e-19 0)
(6.71217e-21 2.17819e-19 0)
(-5.5882e-19 -7.88187e-20 0)
(9.1947e-19 -7.55476e-19 0)
(1.00238e-18 4.49468e-19 0)
(-5.68208e-20 2.14977e-19 0)
)
;
    }
    frontAndBack
    {
        type            empty;
    }
}


// ************************************************************************* //
