/*--------------------------------*- C++ -*----------------------------------*\
| =========                 |                                                 |
| \\      /  F ield         | OpenFOAM: The Open Source CFD Toolbox           |
|  \\    /   O peration     | Version:  2506                                  |
|   \\  /    A nd           | Website:  www.openfoam.com                      |
|    \\/     M anipulation  |                                                 |
\*---------------------------------------------------------------------------*/
FoamFile
{
    version     2.0;
    format      ascii;
    arch        "LSB;label=32;scalar=64";
    class       volScalarField;
    location    "8";
    object      yPlus;
}
// * * * * * * * * * * * * * * * * * * * * * * * * * * * * * * * * * * * * * //

dimensions      [0 0 0 0 0 0 0];

internalField   uniform 0;

boundaryField
{
    movingWall
    {
        type            calculated;
        value           nonuniform List<scalar> 
20
(
1.17348e-06
3.95593e-07
6.05712e-07
4.45179e-07
4.75965e-07
4.12943e-07
3.76215e-07
4.09344e-07
3.72535e-07
3.7455e-07
3.74523e-07
3.72531e-07
3.73607e-07
3.37044e-07
2.90321e-07
3.34317e-07
2.93471e-07
2.03767e-07
1.17551e-07
5.94295e-08
)
;
    }
    fixedWalls
    {
        type            calculated;
        value           nonuniform List<scalar> 
60
(
3.81231e-06
1.28231e-06
3.20053e-06
2.55802e-06
1.72299e-06
1.75154e-06
2.45963e-06
1.41208e-06
2.49642e-06
2.49114e-06
1.47359e-06
1.23576e-06
2.01384e-06
1.82116e-06
2.71644e-06
3.01195e-06
1.94852e-06
2.71063e-06
2.83506e-06
1.17348e-06
1.00385e-07
1.47948e-07
1.57708e-07
1.35259e-07
7.42594e-08
1.03897e-07
2.42169e-07
2.10306e-07
1.19038e-07
8.02265e-08
2.39087e-07
1.85908e-07
1.11464e-07
1.67144e-07
1.69667e-07
6.64441e-08
1.66778e-07
3.2901e-08
1.66878e-07
5.94295e-08
3.81231e-06
1.67577e-06
8.88903e-07
4.77469e-07
4.12057e-07
4.41502e-07
3.75979e-07
3.37099e-07
3.37731e-07
2.42446e-07
1.67899e-07
2.35828e-07
1.74583e-07
2.46528e-07
7.32985e-08
1.01046e-07
1.67333e-07
2.41876e-07
2.35933e-07
1.00385e-07
)
;
    }
    frontAndBack
    {
        type            empty;
    }
}


// ************************************************************************* //
