/*--------------------------------*- C++ -*----------------------------------*\
| =========                 |                                                 |
| \\      /  F ield         | OpenFOAM: The Open Source CFD Toolbox           |
|  \\    /   O peration     | Version:  2506                                  |
|   \\  /    A nd           | Website:  www.openfoam.com                      |
|    \\/     M anipulation  |                                                 |
\*---------------------------------------------------------------------------*/
FoamFile
{
    version     2.0;
    format      ascii;
    arch        "LSB;label=32;scalar=64";
    class       volScalarField;
    location    "8";
    object      zeroGradient(p);
}
// * * * * * * * * * * * * * * * * * * * * * * * * * * * * * * * * * * * * * //

dimensions      [0 2 -2 0 0 0 0];

internalField   nonuniform List<scalar> 
400
(
4.02871e-16
2.50867e-15
1.27795e-15
1.64031e-15
1.84602e-15
2.08489e-15
2.26822e-15
2.33038e-15
2.34389e-15
2.23865e-15
2.15272e-15
1.86646e-15
1.78354e-15
1.96014e-15
2.17239e-15
2.26784e-15
2.36589e-15
2.47703e-15
2.15617e-15
2.24743e-15
1.72015e-15
0
1.46408e-15
1.60953e-15
2.10116e-15
2.08727e-15
2.06535e-15
2.25542e-15
2.24546e-15
2.07132e-15
2.13514e-15
1.97793e-15
1.90169e-15
1.90314e-15
2.11982e-15
2.33689e-15
2.36821e-15
2.3423e-15
2.25271e-15
2.33869e-15
1.37586e-15
2.26049e-15
1.52038e-15
1.77305e-15
1.92382e-15
1.95405e-15
2.00331e-15
2.17402e-15
2.28841e-15
2.40957e-15
2.3223e-15
2.04479e-15
2.12417e-15
1.92678e-15
2.05304e-15
2.11149e-15
2.17534e-15
2.40864e-15
2.49479e-15
2.51593e-15
1.18858e-15
1.99168e-15
1.72131e-15
1.79554e-15
1.78339e-15
2.02906e-15
2.12994e-15
2.16558e-15
2.1585e-15
2.24549e-15
2.25615e-15
2.30537e-15
2.33777e-15
2.17269e-15
2.0355e-15
2.14786e-15
2.06795e-15
2.273e-15
2.53872e-15
2.71431e-15
1.76751e-15
1.24416e-15
1.82808e-15
1.86971e-15
1.76611e-15
1.92579e-15
1.99559e-15
2.16199e-15
2.26617e-15
2.33907e-15
2.32291e-15
2.17875e-15
2.31745e-15
2.31101e-15
2.23399e-15
2.13012e-15
1.97007e-15
2.29134e-15
2.56604e-15
2.81585e-15
1.64394e-15
2.22759e-15
1.87732e-15
2.00942e-15
1.91766e-15
1.89653e-15
1.99159e-15
2.18814e-15
2.25313e-15
2.34947e-15
2.22402e-15
2.27985e-15
2.37879e-15
2.4012e-15
2.38674e-15
2.17686e-15
2.07278e-15
2.297e-15
2.4333e-15
2.62231e-15
2.04059e-15
2.16083e-15
2.02834e-15
1.98952e-15
2.08082e-15
1.94942e-15
1.86375e-15
2.10537e-15
2.09163e-15
2.21157e-15
2.14876e-15
2.20403e-15
2.40159e-15
2.37471e-15
2.39611e-15
2.28505e-15
2.24095e-15
2.17679e-15
2.32786e-15
2.61787e-15
2.48384e-15
7.3447e-16
2.02212e-15
1.95909e-15
1.94061e-15
1.78845e-15
1.81143e-15
2.02753e-15
2.07042e-15
2.13792e-15
2.16103e-15
2.08555e-15
2.2785e-15
2.4072e-15
2.43573e-15
2.21454e-15
2.31482e-15
2.20817e-15
2.25844e-15
2.35856e-15
1.91319e-15
2.83917e-15
1.99842e-15
2.06693e-15
1.90823e-15
1.84566e-15
1.84334e-15
1.94587e-15
1.97118e-15
1.96206e-15
1.97783e-15
2.01875e-15
2.27968e-15
2.40821e-15
2.44102e-15
2.33561e-15
2.27442e-15
2.19885e-15
2.30032e-15
2.19942e-15
1.74245e-15
1.86102e-15
2.07229e-15
1.94663e-15
1.81176e-15
1.68613e-15
1.87316e-15
2.0912e-15
1.78683e-15
1.83708e-15
1.99573e-15
1.91365e-15
2.25301e-15
2.2853e-15
2.09781e-15
2.30941e-15
2.24127e-15
2.28959e-15
2.19643e-15
2.21184e-15
1.89353e-15
1.66718e-15
2.04724e-15
1.8334e-15
1.73143e-15
1.7646e-15
1.91242e-15
1.75492e-15
1.7808e-15
1.81499e-15
1.9191e-15
2.0191e-15
2.11327e-15
2.14977e-15
2.11294e-15
2.16563e-15
2.05575e-15
1.99868e-15
1.99045e-15
2.23967e-15
2.07776e-15
2.44809e-15
1.90836e-15
1.80687e-15
1.65048e-15
1.86927e-15
1.83922e-15
1.79016e-15
1.80667e-15
1.76839e-15
1.8435e-15
2.11491e-15
1.97135e-15
1.98524e-15
1.88931e-15
1.97672e-15
1.93662e-15
2.08176e-15
1.96695e-15
1.97182e-15
2.53158e-15
6.62678e-16
1.89919e-15
1.59882e-15
1.90301e-15
1.96998e-15
1.77822e-15
1.66945e-15
1.88975e-15
1.65533e-15
1.63725e-15
2.02234e-15
2.0722e-15
1.88404e-15
1.7571e-15
1.97326e-15
1.78794e-15
1.86928e-15
1.7743e-15
1.70884e-15
2.33526e-15
3.14783e-15
1.78157e-15
1.72004e-15
1.86229e-15
1.82065e-15
1.71241e-15
1.74895e-15
1.72315e-15
1.71186e-15
1.73667e-15
1.93783e-15
2.07507e-15
1.91828e-15
1.78768e-15
1.76582e-15
1.68136e-15
1.57082e-15
1.59988e-15
1.65286e-15
2.6241e-15
1.81613e-15
1.92996e-15
1.9341e-15
1.85392e-15
1.65055e-15
1.60255e-15
1.65209e-15
1.68268e-15
1.83656e-15
1.88302e-15
1.95793e-15
2.08822e-15
1.78027e-15
1.66973e-15
1.57526e-15
1.67317e-15
1.25427e-15
1.22156e-15
1.6499e-15
2.56131e-15
1.75196e-15
2.04914e-15
1.93692e-15
1.96837e-15
1.67417e-15
1.62778e-15
1.70324e-15
1.78294e-15
1.97669e-15
1.81769e-15
1.9686e-15
1.94219e-15
1.62439e-15
1.5552e-15
1.70251e-15
1.64225e-15
1.24696e-15
1.11675e-15
1.53046e-15
2.55886e-15
3.44775e-15
1.94728e-15
2.0949e-15
1.7387e-15
1.65835e-15
1.70133e-15
1.70589e-15
1.7917e-15
1.89721e-15
1.81176e-15
1.84272e-15
1.79314e-15
1.73841e-15
1.80016e-15
1.59216e-15
1.31491e-15
1.08357e-15
1.10231e-15
1.55241e-15
2.84724e-15
1.43437e-15
2.26157e-15
1.97453e-15
1.86782e-15
1.93474e-15
1.79341e-15
1.81974e-15
1.78236e-15
1.76392e-15
1.73383e-15
1.78401e-15
1.69778e-15
1.68073e-15
1.85865e-15
1.85551e-15
1.31165e-15
9.20943e-16
1.04091e-15
1.47963e-15
2.55368e-15
2.07499e-15
2.40071e-15
2.10547e-15
1.92213e-15
1.93954e-15
1.7293e-15
1.80482e-15
1.93606e-15
1.8135e-15
1.7606e-15
1.83327e-15
1.66559e-15
1.60296e-15
1.82411e-15
1.48742e-15
1.28305e-15
1.15071e-15
1.14929e-15
1.57326e-15
1.52313e-15
3.25408e-15
2.3853e-15
2.31864e-15
2.19273e-15
2.06503e-15
1.79036e-15
1.84929e-15
1.9527e-15
1.80026e-15
1.63458e-15
1.61532e-15
1.65051e-15
1.67062e-15
1.75842e-15
1.50798e-15
1.27811e-15
1.3158e-15
1.24614e-15
1.54601e-15
)
;

boundaryField
{
    movingWall
    {
        type            zeroGradient;
    }
    fixedWalls
    {
        type            zeroGradient;
    }
    frontAndBack
    {
        type            empty;
    }
}


// ************************************************************************* //
