/*--------------------------------*- C++ -*----------------------------------*\
| =========                 |                                                 |
| \\      /  F ield         | OpenFOAM: The Open Source CFD Toolbox           |
|  \\    /   O peration     | Version:  2506                                  |
|   \\  /    A nd           | Website:  www.openfoam.com                      |
|    \\/     M anipulation  |                                                 |
\*---------------------------------------------------------------------------*/
FoamFile
{
    version     2.0;
    format      ascii;
    arch        "LSB;label=32;scalar=64";
    class       volScalarField;
    location    "1.375";
    object      p;
}
// * * * * * * * * * * * * * * * * * * * * * * * * * * * * * * * * * * * * * //

dimensions      [0 2 -2 0 0 0 0];

internalField   nonuniform List<scalar> 
6400
(
7.21191e-09
-3.86324e-06
-6.6463e-05
-0.000185273
-0.000345701
-0.000534702
-0.00074099
-0.000955
-0.00116893
-0.00137654
-0.00157295
-0.00175433
-0.00191777
-0.00206107
-0.0021826
-0.00228117
-0.00235592
-0.00240627
-0.00243179
-0.00243223
-0.00240743
-0.00235727
-0.00228173
-0.00218082
-0.00205457
-0.0019031
-0.00172655
-0.00152518
-0.00129931
-0.00104937
-0.000775954
-0.000479784
-0.000161767
0.000176995
0.000535198
0.000911303
0.00130353
0.00170988
0.00212808
0.00255561
0.00298975
0.00342752
0.00386578
0.00430119
0.00473029
0.00514951
0.0055552
0.00594374
0.00631153
0.00665507
0.00697105
0.00725634
0.00750811
0.00772387
0.0079015
0.00803935
0.00813624
0.00819153
0.00820513
0.00817754
0.00810988
0.00800383
0.00786171
0.00768642
0.00748145
0.00725084
0.00699915
0.00673147
0.00645335
0.00617078
0.00589017
0.00561835
0.00536249
0.00513007
0.00492881
0.00476629
0.00464936
0.00458326
0.00457023
0.00459746
3.85329e-06
-1.89848e-08
-5.52051e-05
-0.000155831
-0.000290092
-0.000448655
-0.000622947
-0.000805244
-0.000988914
-0.00116845
-0.00133936
-0.00149804
-0.00164162
-0.00176787
-0.00187507
-0.00196193
-0.00202745
-0.00207093
-0.00209182
-0.00208975
-0.00206445
-0.00201577
-0.00194358
-0.00184786
-0.00172863
-0.00158595
-0.00141999
-0.00123096
-0.0010192
-0.000785143
-0.000529352
-0.000252544
4.44094e-05
0.000360448
0.000694324
0.00104459
0.00140956
0.00178734
0.00217582
0.00257266
0.00297532
0.00338106
0.00378696
0.00418996
0.00458687
0.00497441
0.00534927
0.00570812
0.0060477
0.00636483
0.00665651
0.00691992
0.00715253
0.0073521
0.00751676
0.00764505
0.00773598
0.00778903
0.00780419
0.00778201
0.00772357
0.00763049
0.00750496
0.00734972
0.007168
0.00696355
0.00674058
0.00650376
0.00625814
0.00600915
0.00576253
0.00552431
0.0053007
0.00509806
0.00492264
0.00478038
0.00467616
0.00461355
0.00459719
0.00462462
6.66315e-05
5.50493e-05
-5.47591e-07
-9.35163e-05
-0.000214132
-0.000355058
-0.000509464
-0.000670981
-0.000833996
-0.000993722
-0.00114615
-0.00128797
-0.00141653
-0.00152968
-0.00162572
-0.00170337
-0.00176159
-0.00179961
-0.00181685
-0.00181288
-0.00178737
-0.00174011
-0.00167094
-0.0015798
-0.00146668
-0.00133161
-0.00117474
-0.000996258
-0.000796484
-0.000575828
-0.000334828
-7.41643e-05
0.000205333
0.000502659
0.000816629
0.00114587
0.0014888
0.00184364
0.00220839
0.00258086
0.00295865
0.00333922
0.00371982
0.00409759
0.00446956
0.00483268
0.00518384
0.00551996
0.00583799
0.00613502
0.00640823
0.00665504
0.0068731
0.00706037
0.00721513
0.00733608
0.00742232
0.00747342
0.00748943
0.0074709
0.00741889
0.00733498
0.00722124
0.00708027
0.00691512
0.0067293
0.00652675
0.00631178
0.00608907
0.00586358
0.00564053
0.00542532
0.00522341
0.0050404
0.00488163
0.00475209
0.00465586
0.00459624
0.00458043
0.00461208
0.000186651
0.000156068
9.14465e-05
-2.44519e-06
-0.000118752
-0.000251399
-0.000394715
-0.000543439
-0.000692855
-0.000838869
-0.000977996
-0.00110733
-0.00122446
-0.00132744
-0.00141471
-0.00148502
-0.0015374
-0.00157109
-0.0015855
-0.00158017
-0.00155477
-0.00150905
-0.00144283
-0.00135601
-0.00124854
-0.00112045
-0.000971833
-0.000802865
-0.000613816
-0.000405066
-0.000177108
6.94257e-05
0.000333758
0.000614951
0.000911892
0.00122329
0.00154764
0.00188329
0.00222833
0.0025807
0.00293815
0.00329825
0.00365842
0.00401595
0.00436803
0.00471176
0.00504422
0.00536248
0.00566368
0.00594503
0.00620389
0.00643782
0.00664461
0.00682232
0.00696936
0.0070845
0.00716692
0.00721624
0.00723253
0.00721634
0.00716871
0.00709115
0.00698567
0.00685473
0.00670124
0.00652852
0.00634028
0.00614055
0.00593369
0.00572429
0.00551715
0.00531715
0.00512928
0.00495846
0.00480948
0.00468686
0.00459431
0.00453523
0.00451781
0.00454769
0.00035036
0.000291928
0.000211631
0.000111095
-6.55178e-06
-0.000136347
-0.000273593
-0.000414045
-0.00055385
-0.000689604
-0.000818369
-0.000937661
-0.0010454
-0.0011399
-0.00121974
-0.00128383
-0.00133125
-0.00136132
-0.00137345
-0.00136722
-0.00134228
-0.00129837
-0.00123529
-0.00115292
-0.00105117
-0.000930042
-0.000789593
-0.000629958
-0.000451362
-0.000254131
-3.87118e-05
0.000194329
0.00044428
0.000710272
0.000991278
0.00128609
0.00159331
0.00191135
0.00223846
0.00257266
0.00291183
0.00325367
0.00359573
0.00393543
0.00427009
0.00459695
0.00491321
0.00521609
0.00550284
0.0057708
0.00601745
0.00624044
0.00643765
0.00660725
0.00674771
0.00685785
0.0069369
0.0069845
0.00700074
0.00698615
0.00694174
0.00686897
0.00676976
0.00664647
0.00650188
0.00633914
0.00616175
0.00597351
0.0057785
0.00558097
0.00538534
0.00519609
0.00501775
0.00485475
0.00471141
0.00459179
0.00449938
0.00443755
0.00441392
0.0044339
0.000545645
0.000453844
0.000353028
0.000241316
0.000117766
-1.36424e-05
-0.000149045
-0.000285127
-0.000418845
-0.000547464
-0.000668593
-0.000780193
-0.000880545
-0.000968225
-0.00104206
-0.00110108
-0.00114452
-0.00117175
-0.00118227
-0.00117566
-0.0011516
-0.00110982
-0.00105013
-0.000972359
-0.000876412
-0.000762243
-0.000629866
-0.00047937
-0.00031093
-0.000124809
7.86103e-05
0.000298825
0.000535207
0.000786965
0.00105315
0.00133266
0.00162418
0.00192624
0.00223717
0.00255512
0.00287807
0.00320382
0.00353005
0.00385429
0.00417395
0.00448638
0.00478891
0.00507883
0.00535348
0.00561029
0.00584682
0.00606078
0.00625013
0.00641306
0.0065481
0.00665409
0.00673029
0.00677633
0.0067923
0.0067787
0.0067365
0.00666712
0.0065724
0.00645461
0.00631639
0.00616077
0.00599105
0.00581085
0.00562398
0.00543443
0.00524629
0.00506369
0.00489076
0.00473155
0.00458994
0.00446963
0.00437388
0.00430587
0.00427172
0.00427543
0.000761847
0.000633545
0.000508904
0.000382541
0.000249425
0.000112712
-2.44355e-05
-0.00015954
-0.000290307
-0.000414632
-0.000530664
-0.000636812
-0.000731726
-0.000814278
-0.000883533
-0.000938723
-0.000979212
-0.00100448
-0.0010141
-0.00100771
-0.000985017
-0.000945756
-0.000889723
-0.000816747
-0.000726694
-0.00061948
-0.000495077
-0.000353513
-0.000194908
-1.94598e-05
0.000172528
0.000380629
0.00060429
0.000842815
0.00109535
0.00136087
0.00163817
0.00192588
0.00222242
0.00252605
0.00283484
0.00314671
0.0034594
0.00377053
0.00407763
0.0043781
0.00466934
0.00494872
0.00521363
0.00546156
0.00569009
0.00589698
0.0060802
0.00623797
0.00636882
0.00647161
0.00654557
0.00659032
0.00660591
0.00659284
0.00655202
0.00648481
0.00639298
0.0062787
0.00614454
0.00599338
0.00582839
0.005653
0.00547082
0.00528561
0.00510118
0.00492139
0.00475005
0.00459085
0.00444734
0.00432286
0.00422047
0.00414312
0.00409488
0.00407785
0.00098958
0.00082324
0.000672666
0.000529164
0.000383746
0.000238878
9.71347e-05
-3.976e-05
-0.000170193
-0.000292653
-0.000405804
-0.000508496
-0.000599748
-0.000678743
-0.000744799
-0.00079735
-0.000835924
-0.000860123
-0.000869607
-0.000864079
-0.000843277
-0.000806966
-0.000754931
-0.00068699
-0.000602981
-0.000502776
-0.000386299
-0.000253521
-0.000104489
6.06688e-05
0.000241726
0.000438346
0.000650064
0.000876271
0.00111621
0.00136896
0.00163341
0.00190828
0.0021921
0.00248321
0.00277977
0.00307978
0.00338107
0.00368132
0.00397812
0.00426895
0.00455122
0.00482235
0.00507977
0.00532096
0.00554354
0.00574525
0.00592406
0.00607818
0.00620612
0.00630669
0.00637911
0.00642297
0.00643827
0.00642545
0.00638539
0.00631937
0.0062291
0.00611668
0.00598458
0.00583558
0.00567273
0.00549931
0.00531877
0.00513467
0.00495062
0.00477023
0.00459704
0.00443448
0.0042858
0.00415404
0.00404206
0.00395262
0.00388752
0.00384676
0.00122073
0.00101583
0.000838113
0.000675782
0.000516081
0.000360911
0.000212355
7.14617e-05
-6.07824e-05
-0.000183416
-0.000295589
-0.000396578
-0.00048577
-0.000562655
-0.000626809
-0.000677876
-0.000715555
-0.000739581
-0.000749712
-0.000745722
-0.000727391
-0.00069451
-0.000646865
-0.000584256
-0.000506496
-0.000413414
-0.000304878
-0.000180796
-4.11422e-05
0.000114035
0.000284594
0.000470288
0.000670751
0.000885469
0.00111378
0.00135487
0.00160772
0.00187115
0.00214377
0.00242402
0.00271015
0.0030002
0.00329209
0.00358354
0.00387219
0.00415555
0.00443105
0.00469613
0.0049482
0.00518476
0.00540337
0.00560177
0.0057779
0.0059299
0.00605624
0.00615569
0.00622739
0.0062709
0.00628615
0.00627352
0.00623381
0.00616826
0.00607851
0.00596659
0.00583488
0.00568608
0.00552313
0.0053492
0.00516761
0.00498177
0.00479513
0.0046111
0.00443303
0.00426411
0.00410736
0.00396556
0.00384145
0.0037376
0.00365351
0.00358712
0.00144827
0.0012049
0.000999473
0.000817243
0.000641884
0.000474838
0.000317775
0.000171136
3.53358e-05
-8.91722e-05
-0.000201997
-0.000302821
-0.000391386
-0.000467484
-0.000530949
-0.000581638
-0.000619423
-0.000644173
-0.00065575
-0.000654004
-0.000638761
-0.000609835
-0.000567019
-0.000510097
-0.000438848
-0.00035306
-0.00025254
-0.00013713
-6.72617e-06
0.000138711
0.00029913
0.000474377
0.000664188
0.000868155
0.00108572
0.00131616
0.00155856
0.00181183
0.00207468
0.00234563
0.00262298
0.00290487
0.00318923
0.00347386
0.0037564
0.00403437
0.00430523
0.00456637
0.00481521
0.00504918
0.00526582
0.0054628
0.00563798
0.00578946
0.0059156
0.00601512
0.00608709
0.00613095
0.00614657
0.00613427
0.00609477
0.00602923
0.00593923
0.00582672
0.00569403
0.00554376
0.00537879
0.0052022
0.00501721
0.00482712
0.00463525
0.00444488
0.0042592
0.00408124
0.00391384
0.00375957
0.00362112
0.00350093
0.00339624
0.00330304
0.00166603
0.00138469
0.0011514
0.000948663
0.000756744
0.000576705
0.000409871
0.000256133
0.00011538
-1.2405e-05
-0.000127261
-0.000229254
-0.000318465
-0.000394983
-0.00045889
-0.000510253
-0.000549111
-0.000575475
-0.00058931
-0.000590535
-0.00057903
-0.00055463
-0.000517132
-0.000466302
-0.000401887
-0.000323627
-0.000231266
-0.000124572
-3.36066e-06
0.000132497
0.000283049
0.000448247
0.000627926
0.000821784
0.00102937
0.00125007
0.00148306
0.00172736
0.00198175
0.00224483
0.00251497
0.00279036
0.00306899
0.00334866
0.00362704
0.00390165
0.00416991
0.0044292
0.00467688
0.00491031
0.00512698
0.00532445
0.00550051
0.00565314
0.00578062
0.00588155
0.00595489
0.006
0.00601665
0.00600504
0.00596583
0.00590009
0.00580934
0.00569545
0.00556068
0.00540759
0.00523898
0.00505787
0.00486743
0.00467088
0.00447144
0.00427231
0.00407658
0.00388719
0.00370683
0.00353795
0.00338323
0.00324508
0.00311858
0.00299784
0.00186847
0.00154989
0.00128891
0.00106541
0.000856395
0.000662618
0.000485105
0.000323245
0.00017644
4.42358e-05
-7.38075e-05
-0.000178121
-0.000269109
-0.000347139
-0.000412534
-0.000465566
-0.000506441
-0.000535295
-0.000552199
-0.000557148
-0.000550062
-0.000530798
-0.000499154
-0.000454882
-0.000397687
-0.000327254
-0.000243265
-0.000145411
-3.34183e-05
9.29404e-05
0.000233814
0.000389259
0.000559223
0.000743515
0.000941796
0.00115355
0.00137807
0.00161445
0.00186158
0.00211811
0.0023825
0.00265297
0.00292754
0.00320405
0.00348014
0.00375334
0.00402102
0.00428051
0.00452909
0.00476406
0.00498278
0.00518274
0.00536158
0.00551716
0.00564763
0.00575146
0.00582749
0.00587494
0.00589346
0.00588316
0.00584458
0.0057787
0.00568696
0.00557118
0.00543353
0.00527654
0.00510296
0.00491578
0.00471811
0.00451314
0.00430406
0.00409402
0.00388608
0.0036831
0.00348771
0.0033023
0.00312961
0.0029721
0.00282281
0.00267404
0.00205061
0.00169565
0.00140737
0.00116309
0.000936737
0.000728767
0.000539949
0.000369211
0.000215505
7.7963e-05
-4.42333e-05
-0.000151856
-0.000245614
-0.000326145
-0.000394001
-0.000449642
-0.000493437
-0.000525651
-0.000546446
-0.000555881
-0.000553924
-0.000540452
-0.000515256
-0.00047806
-0.000428532
-0.000366303
-0.00029098
-0.00020217
-9.95075e-05
1.7335e-05
0.000148615
0.000294502
0.000455062
0.000630219
0.000819746
0.00102324
0.0012401
0.00146951
0.00171045
0.00196166
0.00222163
0.00248864
0.00276075
0.0030358
0.00331142
0.0035851
0.00385418
0.0041159
0.00436747
0.00460608
0.00482896
0.00503347
0.00521709
0.00537755
0.00551283
0.00562125
0.00570147
0.00575258
0.00577408
0.00576594
0.00572859
0.00566292
0.00557024
0.00545232
0.00531129
0.0051496
0.00497
0.00477544
0.00456904
0.00435396
0.00413342
0.00391055
0.00368842
0.0034699
0.00325762
0.00305394
0.00286175
0.00268364
0.00251068
0.00233348
0.00220781
0.00181745
0.0015024
0.00123754
0.000993808
0.000771417
0.000570903
0.000390755
0.0002295
8.58873e-05
-4.1257e-05
-0.000153038
-0.000250448
-0.000334373
-0.000405586
-0.000464735
-0.00051233
-0.000548754
-0.000574261
-0.000588974
-0.000592892
-0.000585905
-0.000567796
-0.000538263
-0.000496925
-0.000443351
-0.00037707
-0.000297602
-0.000204483
-9.72787e-05
2.43846e-05
0.000160798
0.000312144
0.000478471
0.000659672
0.000855458
0.00106534
0.00128861
0.00152431
0.00177127
0.00202806
0.00229299
0.00256414
0.00283935
0.00311625
0.00339227
0.0036647
0.00393071
0.00418737
0.00443176
0.00466098
0.0048722
0.00506276
0.00523018
0.00537228
0.00548716
0.00557332
0.00562964
0.00565548
0.00565064
0.00561541
0.00555055
0.00545728
0.00533729
0.00519263
0.00502573
0.00483932
0.00463636
0.00441996
0.00419333
0.00395971
0.0037223
0.00348421
0.00324838
0.00301748
0.00279392
0.00258082
0.00238094
0.00218348
0.00197743
0.00233579
0.00191105
0.00156987
0.00128477
0.0010238
0.000786937
0.000574511
0.000384598
0.000215323
6.50592e-05
-6.77006e-05
-0.000184361
-0.000286198
-0.000374339
-0.000449752
-0.000513255
-0.000565502
-0.000606986
-0.000638038
-0.000658835
-0.000669406
-0.000669648
-0.000659328
-0.00063811
-0.000605559
-0.000561175
-0.000504408
-0.000434683
-0.000351429
-0.000254096
-0.000142191
-1.52995e-05
0.000126891
0.000284559
0.000457723
0.000646218
0.000849666
0.00106746
0.00129875
0.00154244
0.00179715
0.00206126
0.00233285
0.00260978
0.00288964
0.00316983
0.00344755
0.00371988
0.00398378
0.00423618
0.00447399
0.00469422
0.00489401
0.00507067
0.00522177
0.00534523
0.00543931
0.00550269
0.00553451
0.0055344
0.00550247
0.00543935
0.00534613
0.00522441
0.0050762
0.00490386
0.00471014
0.00449799
0.00427057
0.00403116
0.00378307
0.00352959
0.00327393
0.00301914
0.00276801
0.00252307
0.00228769
0.0020649
0.00184209
0.00160663
0.00243048
0.00197245
0.00160586
0.00130096
0.00102301
0.000771784
0.000547385
0.000347491
0.00016985
1.24896e-05
-0.000126431
-0.000248608
-0.00035557
-0.00044867
-0.000529071
-0.000597749
-0.000655486
-0.000702874
-0.000740314
-0.00076803
-0.000786073
-0.000794339
-0.000792572
-0.000780392
-0.000757309
-0.000722747
-0.000676068
-0.000616595
-0.000543644
-0.000456545
-0.000354678
-0.000237494
-0.000104544
4.44865e-05
0.000209753
0.000391216
0.000588619
0.000801472
0.00102903
0.00127027
0.00152389
0.00178831
0.00206165
0.00234175
0.0026262
0.00291234
0.00319729
0.00347801
0.00375133
0.00401401
0.00426279
0.00449447
0.00470595
0.0048943
0.00505685
0.00519125
0.0052955
0.00536806
0.00540781
0.00541417
0.00538706
0.00532692
0.00523474
0.00511197
0.00496056
0.00478286
0.00458158
0.00435973
0.00412052
0.00386731
0.00360354
0.00333262
0.00305793
0.00278267
0.00250979
0.002242
0.001983
0.00173613
0.00148701
0.00122142
0.00248804
0.00199783
0.00160662
0.00128246
0.000987909
0.000722513
0.000486184
0.000276219
8.9984e-05
-7.48296e-05
-0.000220369
-0.000348609
-0.000461325
-0.00056008
-0.000646221
-0.000720869
-0.000784922
-0.000839062
-0.000883753
-0.000919256
-0.000945636
-0.000962776
-0.000970392
-0.000968058
-0.000955216
-0.000931209
-0.000895303
-0.000846712
-0.000784635
-0.000708274
-0.000616871
-0.000509735
-0.000386271
-0.00024602
-8.86853e-05
8.58331e-05
0.000277414
0.000485689
0.00071002
0.000949484
0.00120286
0.0014686
0.00174488
0.00202953
0.00232013
0.00261394
0.00290802
0.00319921
0.00348418
0.00375952
0.00402177
0.00426748
0.00449329
0.00469601
0.00487268
0.00502065
0.00513765
0.00522183
0.0052718
0.00528673
0.00526629
0.00521075
0.0051209
0.00499811
0.00484421
0.00466152
0.00445274
0.00422093
0.00396939
0.00370159
0.00342111
0.00313155
0.00283647
0.0025393
0.00224321
0.00195113
0.00166714
0.00139497
0.00111845
0.000821777
0.00250479
0.00198356
0.00156859
0.00122576
0.000915051
0.000635787
0.000387667
0.000167617
-2.73579e-05
-0.000199894
-0.000352436
-0.000487226
-0.000606275
-0.000711345
-0.000803948
-0.000885344
-0.000956539
-0.00101829
-0.00107112
-0.00111532
-0.00115095
-0.00117788
-0.00119579
-0.00120419
-0.00120246
-0.00118985
-0.00116553
-0.00112859
-0.0010781
-0.00101313
-0.000932779
-0.0008362
-0.000722647
-0.000591505
-0.000442322
-0.000274846
-8.90545e-05
0.00011482
0.00033626
0.000574446
0.000828242
0.00109618
0.00137646
0.00166693
0.00196514
0.00226832
0.00257342
0.00287716
0.00317606
0.00346652
0.00374484
0.00400731
0.00425029
0.00447029
0.00466403
0.00482852
0.00496115
0.00505974
0.00512258
0.00514854
0.00513703
0.00508807
0.00500227
0.00488083
0.00472549
0.00453851
0.00432261
0.00408087
0.00381671
0.00353373
0.0032357
0.00292643
0.00260974
0.00228931
0.00196857
0.00165075
0.00134036
0.00104157
0.00073641
0.000407445
0.00247719
0.00192616
0.00148833
0.0011275
0.000801144
0.00050837
0.000248668
1.85923e-05
-0.000185203
-0.000365672
-0.000525547
-0.00066733
-0.000793251
-0.000905263
-0.00100504
-0.00109396
-0.00117313
-0.00124338
-0.00130527
-0.0013591
-0.00140495
-0.00144266
-0.00147185
-0.00149198
-0.00150235
-0.0015021
-0.0014903
-0.00146592
-0.00142789
-0.00137514
-0.0013066
-0.00122128
-0.00111826
-0.000996757
-0.00085615
-0.000696024
-0.000516197
-0.000316755
-9.80773e-05
0.000139138
0.000393856
0.000664688
0.000949882
0.00124732
0.00155452
0.00186867
0.00218664
0.00250502
0.00282017
0.00312827
0.00342538
0.00370752
0.00397073
0.00421118
0.00442521
0.00460948
0.00476097
0.00487713
0.00495589
0.00499577
0.00499586
0.00495589
0.00487626
0.00475795
0.00460261
0.00441241
0.00419007
0.00393874
0.00366193
0.00336342
0.00304718
0.0027173
0.00237786
0.00203287
0.00168608
0.00134105
0.00100279
0.000675943
0.000340705
-2.20409e-05
0.00240186
0.0018223
0.00136255
0.000984447
0.000643013
0.000337144
6.61208e-05
-0.000173867
-0.000386513
-0.00057508
-0.000742583
-0.000891766
-0.00102507
-0.00114464
-0.00125229
-0.00134951
-0.0014375
-0.00151716
-0.00158906
-0.00165355
-0.00171065
-0.00176019
-0.00180175
-0.00183471
-0.00185826
-0.00187148
-0.00187328
-0.00186253
-0.00183801
-0.00179848
-0.00174272
-0.00166956
-0.0015779
-0.00146678
-0.0013354
-0.00118316
-0.00100971
-0.000814962
-0.000599143
-0.00036281
-0.000106878
0.000167357
0.00045821
0.000763597
0.00108104
0.00140768
0.00174032
0.00207541
0.00240915
0.0027375
0.00305626
0.00336113
0.00364782
0.00391212
0.00414998
0.00435761
0.00453159
0.0046689
0.00476707
0.00482419
0.004839
0.0048109
0.00473999
0.00462706
0.00447356
0.00428161
0.0040539
0.00379363
0.00350444
0.00319028
0.0028554
0.00250413
0.00214092
0.00177014
0.00139591
0.00102215
0.000654457
0.000297994
-6.89611e-05
-0.000467277
0.00227556
0.00166879
0.00118813
0.000793509
0.000437616
0.000119113
-0.000162928
-0.000412677
-0.000634169
-0.00083097
-0.00100636
-0.00116333
-0.00130453
-0.00143226
-0.00154848
-0.0016548
-0.00175249
-0.00184249
-0.00192542
-0.0020016
-0.00207107
-0.0021336
-0.0021887
-0.00223568
-0.00227365
-0.00230156
-0.00231822
-0.00232233
-0.00231254
-0.00228743
-0.00224562
-0.00218574
-0.00210651
-0.00200676
-0.00188551
-0.00174195
-0.00157554
-0.001386
-0.00117339
-0.000938092
-0.000680893
-0.000402968
-0.000105916
0.000208235
0.000537024
0.000877569
0.00122659
0.00158043
0.0019351
0.00228635
0.0026297
0.00296053
0.00327417
0.003566
0.00383152
0.00406648
0.00426694
0.00442942
0.00455094
0.00462913
0.0046623
0.00464944
0.00459033
0.00448548
0.00433617
0.00414437
0.00391275
0.00364456
0.00334356
0.00301392
0.00266014
0.00228691
0.00189901
0.00150126
0.00109819
0.000694162
0.000295373
-9.24193e-05
-0.000492946
-0.000928935
0.00209518
0.00146259
0.000962089
0.00055175
0.00018205
-0.000148587
-0.000441312
-0.000700643
-0.00093095
-0.0011361
-0.00131963
-0.00148477
-0.00163436
-0.00177086
-0.00189637
-0.0020126
-0.00212088
-0.00222221
-0.00231722
-0.00240623
-0.00248924
-0.00256598
-0.0026359
-0.00269824
-0.00275198
-0.00279598
-0.00282889
-0.00284928
-0.00285562
-0.00284635
-0.00281987
-0.00277463
-0.00270914
-0.00262202
-0.00251207
-0.00237826
-0.00221983
-0.0020363
-0.00182752
-0.0015937
-0.00133544
-0.00105379
-0.000750236
-0.000426718
-8.56642e-05
0.000270037
0.000637046
0.00101159
0.00138953
0.00176637
0.00213734
0.0024975
0.00284176
0.00316505
0.00346239
0.00372899
0.00396038
0.0041525
0.00430181
0.00440543
0.00446112
0.00446744
0.00442376
0.00433026
0.00418797
0.00399872
0.0037651
0.00349042
0.00317855
0.00283388
0.0024612
0.00206557
0.00165222
0.00122639
0.000793092
0.000357184
-7.44596e-05
-0.00049544
-0.000931622
-0.0014077
0.00185777
0.00120082
0.000681591
0.000256384
-0.000126433
-0.000468678
-0.000771724
-0.00104044
-0.00127951
-0.00149311
-0.00168502
-0.0018587
-0.00201718
-0.00216308
-0.00229862
-0.00242559
-0.00254541
-0.00265909
-0.00276729
-0.00287031
-0.00296812
-0.00306041
-0.00314655
-0.00322568
-0.00329669
-0.0033583
-0.00340904
-0.00344731
-0.00347142
-0.00347961
-0.00347009
-0.0034411
-0.00339092
-0.00331796
-0.00322075
-0.00309806
-0.00294886
-0.00277245
-0.00256844
-0.00233684
-0.00207804
-0.00179293
-0.00148283
-0.00114959
-0.000795572
-0.000423648
-3.71961e-05
0.000359923
0.000763396
0.00116851
0.00157021
0.00196317
0.00234191
0.00270085
0.00303448
0.00333742
0.0036046
0.00383131
0.00401341
0.00414735
0.00423034
0.00426038
0.00423635
0.00415806
0.00402622
0.00384245
0.00360927
0.00332996
0.00300855
0.00264964
0.00225835
0.00184012
0.00140065
0.000945702
0.000480817
1.13821e-05
-0.000454982
-0.000911162
-0.00138531
-0.00190423
0.00156054
0.000880779
0.000343982
-9.52079e-05
-0.000490423
-0.000843723
-0.00115671
-0.00143459
-0.00168238
-0.00190451
-0.00210505
-0.00228766
-0.00245554
-0.00261148
-0.00275779
-0.00289638
-0.0030287
-0.00315581
-0.00327836
-0.00339665
-0.00351062
-0.00361987
-0.00372372
-0.00382121
-0.00391113
-0.00399205
-0.00406236
-0.00412031
-0.00416401
-0.00419152
-0.00420083
-0.00418996
-0.00415696
-0.00409996
-0.00401728
-0.00390738
-0.003769
-0.00360115
-0.0034032
-0.00317489
-0.0029164
-0.0026284
-0.00231203
-0.00196902
-0.00160161
-0.00121263
-0.000805471
-0.000384072
4.71126e-05
0.000483149
0.000918688
0.00134804
0.00176526
0.00216427
0.00253896
0.00288333
0.0031916
0.00345838
0.00367879
0.00384858
0.00396426
0.00402321
0.00402375
0.00396518
0.00384785
0.00367312
0.00344334
0.00316181
0.00283264
0.00246067
0.00205134
0.00161055
0.00114449
0.000659483
0.000161663
-0.000342989
-0.000846033
-0.00133958
-0.00185425
-0.00241909
0.00120088
0.000499918
-5.32219e-05
-0.000505469
-0.000912333
-0.00127611
-0.00159864
-0.00188546
-0.0021419
-0.00237268
-0.00258209
-0.002774
-0.00295181
-0.00311844
-0.00327632
-0.00342742
-0.00357326
-0.00371492
-0.00385305
-0.00398794
-0.00411947
-0.00424721
-0.00437038
-0.00448793
-0.00459853
-0.00470061
-0.00479242
-0.00487203
-0.00493737
-0.00498629
-0.00501655
-0.00502594
-0.00501225
-0.00497336
-0.00490728
-0.0048122
-0.00468657
-0.00452909
-0.00433884
-0.00411528
-0.00385833
-0.00356838
-0.00324639
-0.00289387
-0.00251295
-0.00210637
-0.00167749
-0.0012303
-0.000769379
-0.000299859
0.000172616
0.00064198
0.00110183
0.00154553
0.00196634
0.00235757
0.00271269
0.00302551
0.00329034
0.00350213
0.00365659
0.00375035
0.00378107
0.00374747
0.00364943
0.00348796
0.00326522
0.00298443
0.00264979
0.00226637
0.00183997
0.00137692
0.000883983
0.000368102
-0.000163953
-0.000705539
-0.00124732
-0.00178056
-0.00233852
-0.00295268
0.000776354
5.58954e-05
-0.000512312
-0.000976655
-0.00139439
-0.00176805
-0.00209972
-0.00239524
-0.00266027
-0.00289978
-0.00311831
-0.00331994
-0.00350822
-0.00368622
-0.00385646
-0.00402101
-0.00418141
-0.00433878
-0.00449378
-0.00464666
-0.00479727
-0.0049451
-0.0050893
-0.00522872
-0.00536191
-0.00548716
-0.00560257
-0.00570602
-0.00579526
-0.0058679
-0.0059215
-0.00595357
-0.00596164
-0.00594329
-0.00589624
-0.00581836
-0.00570777
-0.00556286
-0.00538236
-0.0051654
-0.0049116
-0.00462107
-0.00429448
-0.00393312
-0.00353894
-0.00311455
-0.00266324
-0.00218901
-0.00169653
-0.00119112
-0.000678692
-0.000165693
0.000340995
0.000834167
0.00130642
0.00175029
0.00215844
0.00252379
0.00283975
0.00310034
0.00330037
0.00343561
0.00350292
0.00350032
0.00342712
0.00328389
0.00307251
0.00279609
0.00245887
0.00206612
0.00162401
0.00113935
0.000619493
7.2066e-05
-0.000495459
-0.00107571
-0.00165836
-0.00223376
-0.00283802
-0.00350525
0.000284755
-0.000453425
-0.00103537
-0.00151081
-0.00193861
-0.00232155
-0.00266193
-0.00296592
-0.00323947
-0.00348782
-0.00371573
-0.00392748
-0.00412679
-0.00431684
-0.00450027
-0.00467922
-0.00485527
-0.00502957
-0.00520276
-0.00537508
-0.00554633
-0.00571595
-0.00588299
-0.00604621
-0.00620403
-0.00635462
-0.00649589
-0.00662555
-0.00674115
-0.00684008
-0.00691964
-0.00697708
-0.00700964
-0.0070146
-0.00698934
-0.00693141
-0.00683855
-0.00670879
-0.0065405
-0.00633245
-0.00608387
-0.00579454
-0.00546483
-0.00509574
-0.00468897
-0.00424695
-0.00377286
-0.00327067
-0.00274509
-0.00220159
-0.00164634
-0.00108616
-0.000528394
1.91412e-05
0.000548341
0.00105094
0.0015187
0.00194358
0.00231797
0.00263484
0.00288798
0.00307216
0.0031833
0.00321859
0.00317663
0.00305747
0.00286258
0.00259488
0.00225861
0.00185924
0.00140327
0.000898026
0.0003515
-0.000227951
-0.000832081
-0.00145271
-0.00207844
-0.00269861
-0.00335241
-0.00407677
-0.000275908
-0.00102995
-0.00162426
-0.00210978
-0.00254681
-0.0029384
-0.00328706
-0.00359928
-0.00388129
-0.00413857
-0.00437613
-0.00459841
-0.0048093
-0.00501211
-0.00520958
-0.00540389
-0.00559671
-0.00578916
-0.00598192
-0.00617518
-0.00636871
-0.00656188
-0.00675367
-0.00694272
-0.00712733
-0.00730554
-0.00747509
-0.00763351
-0.00777813
-0.00790612
-0.00801452
-0.00810029
-0.00816038
-0.00819174
-0.00819139
-0.00815651
-0.00808446
-0.00797287
-0.00781969
-0.00762327
-0.00738245
-0.00709661
-0.00676573
-0.00639048
-0.00597226
-0.00551326
-0.00501648
-0.0044858
-0.00392592
-0.00334243
-0.00274172
-0.00213095
-0.00151794
-0.00091111
-0.000319302
0.000248364
0.000782681
0.00127456
0.00171525
0.00209657
0.00241112
0.00265253
0.00281562
0.00289661
0.00289324
0.00280486
0.00263246
0.00237867
0.00204765
0.00164501
0.00117759
0.000653248
8.06425e-05
-0.000531073
-0.00117281
-0.0018355
-0.00250656
-0.00317423
-0.00388103
-0.00466692
-0.000907377
-0.00167536
-0.00228061
-0.00277513
-0.00322056
-0.00362015
-0.00397666
-0.00429686
-0.00458726
-0.00485358
-0.00510104
-0.00533427
-0.0055573
-0.00577358
-0.00598592
-0.00619659
-0.00640729
-0.00661917
-0.00683289
-0.00704863
-0.00726612
-0.00748466
-0.00770316
-0.00792015
-0.00813382
-0.00834205
-0.00854244
-0.00873233
-0.00890882
-0.00906884
-0.00920918
-0.00932651
-0.00941745
-0.00947859
-0.00950661
-0.00949826
-0.0094505
-0.0093605
-0.00922577
-0.0090442
-0.00881417
-0.00853459
-0.00820503
-0.00782572
-0.00739772
-0.0069229
-0.00640401
-0.00584477
-0.00524984
-0.00462484
-0.00397634
-0.00331181
-0.00263953
-0.00196852
-0.00130839
-0.000669136
-6.1008e-05
0.000505761
0.00102118
0.00147577
0.0018608
0.00216859
0.00239268
0.00252815
0.0025717
0.00252183
0.00237889
0.0021451
0.00182447
0.00142267
0.000946857
0.000405424
-0.00019226
-0.00083619
-0.00151635
-0.00222271
-0.00294139
-0.0036594
-0.00442285
-0.005275
-0.00161113
-0.00239107
-0.00300577
-0.00350824
-0.00396119
-0.00436813
-0.00473204
-0.00505997
-0.00535868
-0.00563414
-0.00589175
-0.00613633
-0.00637207
-0.0066025
-0.00683057
-0.00705857
-0.00728827
-0.00752083
-0.00775692
-0.0079967
-0.00823985
-0.00848562
-0.00873284
-0.00897995
-0.00922502
-0.00946579
-0.00969969
-0.00992387
-0.0101352
-0.0103305
-0.0105061
-0.0106584
-0.0107838
-0.0108784
-0.0109385
-0.0109606
-0.0109409
-0.0108764
-0.0107639
-0.0106009
-0.0103851
-0.0101152
-0.00978992
-0.00940923
-0.00897369
-0.00848477
-0.00794493
-0.00735762
-0.00672738
-0.00605981
-0.0053616
-0.00464048
-0.00390515
-0.00316524
-0.00243108
-0.00171364
-0.00102423
-0.000374315
0.000224758
0.000762068
0.0012274
0.00161157
0.00190668
0.00210643
0.00220628
0.00220372
0.00209827
0.0018916
0.00158742
0.00119141
0.000710997
0.000155099
-0.000466178
-0.00114192
-0.0018611
-0.00261263
-0.00338119
-0.00415246
-0.00497644
-0.00589987
-0.00238835
-0.0031782
-0.00380088
-0.00431017
-0.00476977
-0.0051834
-0.00555425
-0.00588964
-0.00619658
-0.00648126
-0.00674927
-0.00700559
-0.00725455
-0.00749983
-0.00774442
-0.00799072
-0.00824051
-0.00849501
-0.00875486
-0.00902022
-0.00929074
-0.00956561
-0.00984359
-0.010123
-0.0104019
-0.0106778
-0.0109479
-0.0112094
-0.0114587
-0.0116925
-0.0119068
-0.0120978
-0.0122614
-0.0123935
-0.0124898
-0.0125464
-0.0125591
-0.0125243
-0.0124383
-0.012298
-0.0121006
-0.011844
-0.0115267
-0.0111479
-0.0107077
-0.010207
-0.00964799
-0.00903372
-0.00836851
-0.00765788
-0.00690855
-0.00612845
-0.00532667
-0.00451337
-0.00369966
-0.00289743
-0.00211915
-0.00137757
-0.000685506
-5.54499e-05
0.000500727
0.00097214
0.00134923
0.0016241
0.00179078
0.00184546
0.00178667
0.00161532
0.00133471
0.000950393
0.000470013
-9.70176e-05
-0.000739832
-0.00144654
-0.00220505
-0.0030031
-0.00382378
-0.00465131
-0.00553985
-0.00653991
-0.00323992
-0.00403761
-0.00466673
-0.00518174
-0.0056471
-0.00606675
-0.00644407
-0.00678666
-0.00710172
-0.00739567
-0.00767428
-0.0079427
-0.0082054
-0.00846614
-0.00872804
-0.00899355
-0.0092645
-0.00954213
-0.00982711
-0.0101196
-0.0104191
-0.0107249
-0.0110357
-0.0113497
-0.0116647
-0.0119783
-0.0122876
-0.0125893
-0.0128799