/*--------------------------------*- C++ -*----------------------------------*\
| =========                 |                                                 |
| \\      /  F ield         | OpenFOAM: The Open Source CFD Toolbox           |
|  \\    /   O peration     | Version:  2506                                  |
|   \\  /    A nd           | Website:  www.openfoam.com                      |
|    \\/     M anipulation  |                                                 |
\*---------------------------------------------------------------------------*/
FoamFile
{
    version     2.0;
    format      ascii;
    arch        "LSB;label=32;scalar=64";
    class       surfaceScalarField;
    location    "1.375";
    object      phi;
}
// * * * * * * * * * * * * * * * * * * * * * * * * * * * * * * * * * * * * * //

dimensions      [0 3 -1 0 0 0 0];

oriented        oriented;

internalField   nonuniform List<scalar> 
12640
(
2.18141e-10
-2.18176e-10
5.99209e-10
-3.81069e-10
9.04181e-10
-3.04978e-10
1.00406e-09
-9.98821e-11
8.41775e-10
1.62287e-10
3.99001e-10
4.42779e-10
-3.2116e-10
7.20159e-10
-1.30388e-09
9.8272e-10
-2.5282e-09
1.22434e-09
-3.97034e-09
1.44214e-09
-5.60555e-09
1.63522e-09
-7.40934e-09
1.80379e-09
-9.35807e-09
1.94874e-09
-1.14294e-08
2.07134e-09
-1.36024e-08
2.17303e-09
-1.58577e-08
2.25529e-09
-1.81773e-08
2.31952e-09
-2.05443e-08
2.36706e-09
-2.29434e-08
2.39905e-09
-2.53598e-08
2.41648e-09
-2.778e-08
2.42018e-09
-3.01907e-08
2.41075e-09
-3.25794e-08
2.38868e-09
-3.49337e-08
2.35425e-09
-3.72413e-08
2.30766e-09
-3.94903e-08
2.24895e-09
-4.16684e-08
2.1781e-09
-4.37634e-08
2.09504e-09
-4.57631e-08
1.99964e-09
-4.76549e-08
1.89182e-09
-4.94263e-08
1.77146e-09
-5.10649e-08
1.63857e-09
-5.25581e-08
1.49319e-09
-5.38936e-08
1.33548e-09
-5.50593e-08
1.16574e-09
-5.60437e-08
9.84407e-10
-5.68358e-08
7.92092e-10
-5.74254e-08
5.89598e-10
-5.78033e-08
3.77889e-10
-5.79614e-08
1.58155e-10
-5.78932e-08
-6.82224e-11
-5.75935e-08
-2.99689e-10
-5.70591e-08
-5.34458e-10
-5.62885e-08
-7.70566e-10
-5.52826e-08
-1.00593e-09
-5.40443e-08
-1.23828e-09
-5.2579e-08
-1.46524e-09
-5.08947e-08
-1.68437e-09
-4.90015e-08
-1.89317e-09
-4.69124e-08
-2.08912e-09
-4.46427e-08
-2.26971e-09
-4.22101e-08
-2.43257e-09
-3.96347e-08
-2.57539e-09
-3.69387e-08
-2.69602e-09
-3.41461e-08
-2.79256e-09
-3.12828e-08
-2.86336e-09
-2.83758e-08
-2.907e-09
-2.54533e-08
-2.92242e-09
-2.25444e-08
-2.90892e-09
-1.96782e-08
-2.86618e-09
-1.6884e-08
-2.79425e-09
-1.41904e-08
-2.69358e-09
-1.16254e-08
-2.56506e-09
-9.21538e-09
-2.40999e-09
-6.98534e-09
-2.23004e-09
-4.95801e-09
-2.02733e-09
-3.15364e-09
-1.80436e-09
-1.58959e-09
-1.56406e-09
-2.79781e-10
-1.30982e-09
7.65727e-10
-1.0455e-09
1.54137e-09
-7.75638e-10
2.04694e-09
-5.05575e-10
2.28877e-09
-2.41842e-10
2.28156e-09
7.20585e-12
2.05123e-09
2.30337e-10
1.63924e-09
4.12004e-10
1.1093e-09
5.29935e-10
5.5816e-10
5.51137e-10
1.31606e-10
4.26553e-10
1.31619e-10
3.83105e-10
-6.01281e-10
8.71026e-10
-8.68982e-10
1.08555e-09
-5.19499e-10
7.97881e-10
1.878e-10
-1.20359e-10
1.08054e-09
-1.72534e-09
2.04779e-09
-4.02501e-09
3.01985e-09
-6.99642e-09
3.95414e-09
-1.05978e-08
4.82568e-09
-1.47764e-08
5.62075e-09
-1.9474e-08
6.3329e-09
-2.46306e-08
6.9603e-09
-3.01859e-08
7.5041e-09
-3.60818e-08
7.96725e-09
-4.22625e-08
8.35368e-09
-4.8675e-08
8.66777e-09
-5.52694e-08
8.91398e-09
-6.19989e-08
9.09651e-09
-6.88191e-08
9.21923e-09
-7.56881e-08
9.28549e-09
-8.2566e-08
9.2981e-09
-8.94145e-08
9.25929e-09
-9.61966e-08
9.17076e-09
-1.02876e-07
9.03369e-09
-1.09417e-07
8.84883e-09
-1.15785e-07
8.61657e-09
-1.21944e-07
8.33701e-09
-1.27859e-07
8.01006e-09
-1.33495e-07
7.63555e-09
-1.38816e-07
7.21336e-09
-1.43788e-07
6.74344e-09
-1.48376e-07
6.226e-09
-1.52544e-07
5.66153e-09
-1.56259e-07
5.05093e-09
-1.59489e-07
4.39557e-09
-1.62202e-07
3.69738e-09
-1.64369e-07
2.95888e-09
-1.65963e-07
2.18325e-09
-1.66959e-07
1.37437e-09
-1.67338e-07
5.36806e-10
-1.67082e-07
-3.24138e-10
-1.66179e-07
-1.20247e-09
-1.64622e-07
-2.09153e-09
-1.62409e-07
-2.98401e-09
-1.59542e-07
-3.87202e-09
-1.56033e-07
-4.74723e-09
-1.51898e-07
-5.6009e-09
-1.47158e-07
-6.42399e-09
-1.41844e-07
-7.20731e-09
-1.35991e-07
-7.9417e-09
-1.29643e-07
-8.61808e-09
-1.22848e-07
-9.22768e-09
-1.15661e-07
-9.76222e-09
-1.08143e-07
-1.0214e-08
-1.0036e-07
-1.0576e-08
-9.23807e-08
-1.08423e-08
-8.42798e-08
-1.10079e-08
-7.61331e-08
-1.10691e-08
-6.80188e-08
-1.10233e-08
-6.00156e-08
-1.08694e-08
-5.22021e-08
-1.06078e-08
-4.46554e-08
-1.02403e-08
-3.74503e-08
-9.77023e-09
-3.06577e-08
-9.20254e-09
-2.43441e-08
-8.54367e-09
-1.85697e-08
-7.80164e-09
-1.33881e-08
-6.98602e-09
-8.84412e-09
-6.10804e-09
-4.97321e-09
-5.18071e-09
-1.79963e-09
-4.21908e-09
6.65289e-10
-3.24057e-09
2.42539e-09
-2.2657e-09
3.50246e-09
-1.31892e-09
3.94058e-09
-4.30906e-10
3.811e-09
3.59908e-10
3.21943e-09
1.00356e-09
2.31483e-09
1.43456e-09
1.29811e-09
1.56788e-09
4.24645e-10
1.30002e-09
5.56276e-10
3.11018e-10
-9.12307e-10
5.28854e-10
-1.08682e-09
2.33407e-10
-2.24053e-10
-8.37338e-10
1.25855e-09
-2.83979e-09
3.083e-09
-5.84901e-09
5.05702e-09
-9.88043e-09
7.05128e-09
-1.49081e-08
8.98181e-09
-2.08784e-08
1.07959e-08
-2.772e-08
1.24624e-08
-3.53517e-08
1.39646e-08
-4.36869e-08
1.52955e-08
-5.26378e-08
1.64549e-08
-6.21172e-08
1.74467e-08
-7.20408e-08
1.82772e-08
-8.23271e-08
1.89541e-08
-9.28986e-08
1.94855e-08
-1.03682e-07
1.98795e-08
-1.14606e-07
2.01433e-08
-1.25604e-07
2.02837e-08
-1.36612e-07
2.03062e-08
-1.47568e-07
2.02153e-08
-1.58412e-07
2.00146e-08
-1.69085e-07
1.97066e-08
-1.79529e-07
1.9293e-08
-1.89687e-07
1.87749e-08
-1.99503e-07
1.81527e-08
-2.0892e-07
1.74266e-08
-2.17881e-07
1.65965e-08
-2.2633e-07
1.56627e-08
-2.34212e-07
1.46253e-08
-2.41471e-07
1.34854e-08
-2.48054e-07
1.22443e-08
-2.53907e-07
1.09045e-08
-2.58981e-07
9.46935e-09
-2.63227e-07
7.94333e-09
-2.66601e-07
6.33225e-09
-2.6906e-07
4.64323e-09
-2.70571e-07
2.88489e-09
-2.71101e-07
1.06726e-09
-2.70627e-07
-7.98151e-10
-2.69132e-07
-2.69836e-09
-2.66604e-07
-4.61901e-09
-2.63044e-07
-6.5445e-09
-2.58458e-07
-8.45806e-09
-2.52863e-07
-1.03419e-08
-2.46286e-07
-1.21775e-08
-2.38764e-07
-1.39459e-08
-2.30344e-07
-1.56276e-08
-2.21082e-07
-1.72034e-08
-2.11046e-07
-1.86542e-08
-2.00312e-07
-1.99618e-08
-1.88966e-07
-2.11087e-08
-1.77101e-07
-2.20787e-08
-1.64819e-07
-2.28576e-08
-1.52229e-07
-2.34327e-08
-1.39443e-07
-2.37938e-08
-1.26579e-07
-2.39331e-08
-1.13757e-07
-2.38455e-08
-1.01097e-07
-2.35287e-08
-8.87215e-08
-2.29837e-08
-7.67472e-08
-2.22146e-08
-6.52889e-08
-2.12285e-08
-5.44553e-08
-2.00361e-08
-4.43477e-08
-1.86513e-08
-3.50579e-08
-1.70915e-08
-2.66667e-08
-1.53772e-08
-1.92419e-08
-1.35328e-08
-1.28361e-08
-1.15865e-08
-7.48448e-09
-9.57076e-09
-3.20207e-09
-7.52298e-09
1.90982e-11
-5.48685e-09
2.2143e-09
-3.51412e-09
3.44985e-09
-1.66647e-09
3.82976e-09
-2.00146e-11
3.50162e-09
1.33172e-09
2.66444e-09
2.27175e-09
1.57464e-09
2.65767e-09
5.50412e-10
2.32426e-09
1.1067e-09
1.0806e-10
-1.02037e-09
-1.81108e-10
-7.97657e-10
-1.26337e-09
8.58211e-10
-3.39373e-09
3.38891e-09
-6.72692e-09
6.41618e-09
-1.13382e-08
9.66833e-09
-1.72416e-08
1.29547e-08
-2.44058e-08
1.6146e-08
-3.27673e-08
1.91575e-08
-4.22411e-08
2.19363e-08
-5.27285e-08
2.44519e-08
-6.41229e-08
2.66899e-08
-7.63145e-08
2.86465e-08
-8.91933e-08
3.03255e-08
-1.02651e-07
3.17349e-08
-1.16582e-07
3.28856e-08
-1.30886e-07
3.37894e-08
-1.45465e-07
3.44583e-08
-1.60226e-07
3.49037e-08
-1.75078e-07
3.51359e-08
-1.89935e-07
3.51637e-08
-2.04714e-07
3.49944e-08
-2.19333e-07
3.46338e-08
-2.33713e-07
3.40861e-08
-2.47774e-07
3.33544e-08
-2.6144e-07
3.24406e-08
-2.74633e-07
3.13458e-08
-2.87277e-07
3.00709e-08
-2.99297e-07
2.86162e-08
-3.10617e-07
2.69825e-08
-3.21163e-07
2.5171e-08
-3.30861e-07
2.31838e-08
-3.39641e-07
2.10241e-08
-3.47433e-07
1.86965e-08
-3.54171e-07
1.62073e-08
-3.59792e-07
1.35649e-08
-3.64239e-07
1.07795e-08
-3.6746e-07
7.86387e-09
-3.69408e-07
4.83296e-09
-3.70045e-07
1.70423e-09
-3.69341e-07
-1.50248e-09
-3.67274e-07
-4.76497e-09
-3.63834e-07
-8.05875e-09
-3.59022e-07
-1.13573e-08
-3.52847e-07
-1.46321e-08
-3.45336e-07
-1.78534e-08
-3.36524e-07
-2.09899e-08
-3.2646e-07
-2.40095e-08
-3.15208e-07
-2.68798e-08
-3.02843e-07
-2.95686e-08
-2.89453e-07
-3.20439e-08
-2.7514e-07
-3.42753e-08
-2.60015e-07
-3.62337e-08
-2.44201e-07
-3.78923e-08
-2.27831e-07
-3.92271e-08
-2.11047e-07
-4.02174e-08
-1.93995e-07
-4.0846e-08
-1.76828e-07
-4.11001e-08
-1.59702e-07
-4.09712e-08
-1.42775e-07
-4.04561e-08
-1.26202e-07
-3.95562e-08
-1.10138e-07
-3.82786e-08
-9.47309e-08
-3.66357e-08
-8.01213e-08
-3.46457e-08
-6.64404e-08
-3.23323e-08
-5.3807e-08
-2.97248e-08
-4.23255e-08
-2.68587e-08
-3.20828e-08
-2.37755e-08
-2.31464e-08
-2.05229e-08
-1.55609e-08
-1.71562e-08
-9.34533e-09
-1.37386e-08
-4.48925e-09
-1.03429e-08
-9.49265e-10
-7.05412e-09
1.35614e-09
-3.97188e-09
2.55105e-09
-1.21491e-09
2.80831e-09
1.07447e-09
2.35504e-09
2.72501e-09
1.47928e-09
3.53343e-09
5.38935e-10
3.26462e-09
1.64564e-09
-1.58361e-10
-8.62e-10
-1.10098e-09
1.4497e-10
-3.15571e-09
2.91294e-09
-6.5404e-09
6.77362e-09
-1.13867e-08
1.12625e-08
-1.7755e-08
1.60366e-08
-2.5648e-08
2.08478e-08
-3.50245e-08
2.55224e-08
-4.58099e-08
2.99429e-08
-5.79064e-08
3.40328e-08
-7.12007e-08
3.77462e-08
-8.557e-08
4.10592e-08
-1.00887e-07
4.39632e-08
-1.17022e-07
4.64606e-08
-1.33847e-07
4.85604e-08
-1.51238e-07
5.02761e-08
-1.69071e-07
5.1623e-08
-1.8723e-07
5.26172e-08
-2.05601e-07
5.3274e-08
-2.24072e-07
5.36076e-08
-2.42539e-07
5.36301e-08
-2.60896e-07
5.33519e-08
-2.79044e-07
5.27813e-08
-2.96882e-07
5.19245e-08
-3.14314e-07
5.07861e-08
-3.31242e-07
4.93693e-08
-3.47573e-07
4.76763e-08
-3.63211e-07
4.57085e-08
-3.78062e-07
4.34675e-08
-3.92035e-07
4.0955e-08
-4.05037e-07
3.81736e-08
-4.16981e-07
3.51272e-08
-4.27778e-07
3.18214e-08
-4.37345e-07
2.82639e-08
-4.45603e-07
2.44651e-08
-4.52476e-07
2.04381e-08
-4.57896e-07
1.61991e-08
-4.618e-07
1.17678e-08
-4.64134e-07
7.16708e-09
-4.64853e-07
2.42355e-09
-4.63923e-07
-2.43272e-09
-4.6132e-07
-7.36822e-09
-4.57032e-07
-1.23462e-08
-4.51063e-07
-1.7327e-08
-4.43427e-07
-2.22682e-08
-4.34155e-07
-2.71252e-08
-4.23293e-07
-3.18516e-08
-4.10902e-07
-3.64e-08
-3.9706e-07
-4.07225e-08
-3.81857e-07
-4.47711e-08
-3.65402e-07
-4.8499e-08
-3.47816e-07
-5.18611e-08
-3.29235e-07
-5.48147e-08
-3.09807e-07
-5.73202e-08
-2.89692e-07
-5.93425e-08
-2.69059e-07
-6.08508e-08
-2.48084e-07
-6.18202e-08
-2.26953e-07
-6.22318e-08
-2.0585e-07
-6.20734e-08
-1.84967e-07
-6.13399e-08
-1.64489e-07
-6.00341e-08
-1.44601e-07
-5.81665e-08
-1.25481e-07
-5.57557e-08
-1.07298e-07
-5.28288e-08
-9.02086e-08
-4.94214e-08
-7.4356e-08
-4.55775e-08
-5.98647e-08
-4.13499e-08
-4.68394e-08
-3.68008e-08
-3.5361e-08
-3.20014e-08
-2.54835e-08
-2.70337e-08
-1.7231e-08
-2.19911e-08
-1.05938e-08
-1.69801e-08
-5.52463e-09
-1.21233e-08
-1.93454e-09
-7.56197e-09
3.11441e-10
-3.46087e-09
1.39892e-09
-1.30065e-11
1.56913e-09
2.55478e-09
1.12529e-09
3.97728e-09
4.42592e-10
3.94732e-09
2.08823e-09
-4.53369e-10
-4.08639e-10
-2.1327e-09
1.82429e-09
-5.27679e-09
6.05702e-09
-1.00466e-08
1.15435e-08
-1.65351e-08
1.7751e-08
-2.47754e-08
2.42769e-08
-3.47505e-08
3.08229e-08
-4.64031e-08
3.71751e-08
-5.96449e-08
4.31847e-08
-7.43645e-08
4.87524e-08
-9.04349e-08
5.38165e-08
-1.07719e-07
5.83428e-08
-1.26073e-07
6.23173e-08
-1.45352e-07
6.57399e-08
-1.65412e-07
6.86203e-08
-1.8611e-07
7.09739e-08
-2.07306e-07
7.28193e-08
-2.28865e-07
7.41761e-08
-2.50655e-07
7.50637e-08
-2.72547e-07
7.54998e-08
-2.94417e-07
7.55004e-08
-3.16144e-07
7.50787e-08
-3.37608e-07
7.42457e-08
-3.58694e-07
7.30098e-08
-3.79285e-07
7.13774e-08
-3.99269e-07
6.9353e-08
-4.18533e-07
6.69402e-08
-4.36966e-07
6.41417e-08
-4.54458e-07
6.09601e-08
-4.70902e-07
5.73989e-08
-4.86191e-07
5.34624e-08
-5.00221e-07
4.91571e-08
-5.12891e-07
4.44918e-08
-5.24105e-07
3.94781e-08
-5.33772e-07
3.41312e-08
-5.41804e-07
2.84703e-08
-5.48123e-07
2.25187e-08
-5.5266e-07
1.63041e-08
-5.55352e-07
9.85909e-09
-5.56149e-07
3.22094e-09
-5.55013e-07
-3.56841e-09
-5.51919e-07
-1.04624e-08
-5.46855e-07
-1.74102e-08
-5.39825e-07
-2.43568e-08
-5.3085e-07
-3.1244e-08
-5.19964e-07
-3.80103e-08
-5.07224e-07
-4.45922e-08
-4.92699e-07
-5.09246e-08
-4.7648e-07
-5.69419e-08
-4.58672e-07
-6.25788e-08
-4.394e-07
-6.77712e-08
-4.18804e-07
-7.24574e-08
-3.97039e-07
-7.65793e-08
-3.74276e-07
-8.0083e-08
-3.50698e-07
-8.29204e-08
-3.26499e-07
-8.50499e-08
-3.01882e-07
-8.64372e-08
-2.77057e-07
-8.70566e-08
-2.52239e-07
-8.68916e-08
-2.27644e-07
-8.59353e-08
-2.03486e-07
-8.41916e-08
-1.79978e-07
-8.16749e-08
-1.57323e-07
-7.84109e-08
-1.35715e-07
-7.44369e-08
-1.15334e-07
-6.98017e-08
-9.63459e-08
-6.4566e-08
-7.88932e-08
-5.88027e-08
-6.30971e-08
-5.25968e-08
-4.90521e-08
-4.60464e-08
-3.68224e-08
-3.92633e-08
-2.64392e-08
-3.23743e-08
-1.78964e-08
-2.55229e-08
-1.11476e-08
-1.88721e-08
-6.10229e-09
-1.26073e-08
-2.62238e-09
-6.94078e-09
-5.1847e-10
-2.11692e-09
4.54313e-10
1.58199e-09
6.01161e-10
3.83044e-09
2.95668e-10
4.25282e-09
2.3839e-09
-7.58556e-10
3.49931e-10
-3.21671e-09
4.28244e-09
-7.51754e-09
1.03578e-08
-1.37543e-08
1.77803e-08
-2.19705e-08
2.59672e-08
-3.21628e-08
3.44691e-08
-4.4287e-08
4.2947e-08
-5.82644e-08
5.11525e-08
-7.39891e-08
5.89094e-08
-9.13345e-08
6.60979e-08
-1.10159e-07
7.26411e-08
-1.30311e-07
7.84952e-08
-1.51635e-07
8.36405e-08
-1.73969e-07
8.80745e-08
-1.97156e-07
9.18069e-08
-2.21037e-07
9.48548e-08
-2.45457e-07
9.72396e-08
-2.70265e-07
9.89845e-08
-2.95314e-07
1.00112e-07
-3.20459e-07
1.00645e-07
-3.4556e-07
1.00601e-07
-3.70479e-07
9.99976e-08
-3.95081e-07
9.88478e-08
-4.19234e-07
9.71625e-08
-4.42806e-07
9.495e-08
-4.6567e-07
9.22164e-08
-4.87696e-07
8.89669e-08
-5.0876e-07
8.52056e-08
-5.28737e-07
8.09368e-08
-5.47504e-07
7.6166e-08
-5.64941e-07
7.08999e-08
-5.80932e-07
6.51481e-08
-5.95364e-07
5.89231e-08
-6.08127e-07
5.22415e-08
-6.1912e-07
4.51242e-08
-6.28247e-07
3.75973e-08
-6.35421e-07
2.96923e-08
-6.40563e-07
2.14464e-08
-6.43607e-07
1.29028e-08
-6.44497e-07
4.111e-09
-6.43192e-07
-4.87378e-09
-6.39664e-07
-1.39903e-08
-6.33902e-07
-2.3172e-08
-6.25912e-07
-3.2347e-08
-6.15716e-07
-4.14393e-08
-6.03358e-07
-5.03689e-08
-5.88897e-07
-5.90533e-08
-5.72413e-07
-6.74079e-08
-5.54007e-07
-7.53477e-08
-5.33798e-07
-8.27879e-08
-5.11924e-07
-8.96456e-08
-4.88541e-07
-9.58408e-08
-4.63822e-07
-1.01298e-07
-4.37956e-07
-1.05948e-07
-4.11148e-07
-1.09729e-07
-3.83613e-07
-1.12585e-07
-3.55577e-07
-1.14473e-07
-3.27274e-07
-1.1536e-07
-2.98942e-07
-1.15223e-07
-2.70822e-07
-1.14055e-07
-2.43155e-07
-1.11859e-07
-2.16175e-07
-1.08654e-07
-1.90111e-07
-1.04475e-07
-1.65181e-07
-9.93678e-08
-1.41585e-07
-9.33974e-08
-1.19508e-07
-8.66424e-08
-9.91142e-08
-7.91971e-08
-8.0539e-08
-7.1172e-08
-6.38913e-08
-6.26941e-08
-4.92471e-08
-5.39075e-08
-3.66465e-08
-4.49749e-08
-2.60905e-08
-3.60789e-08
-1.75377e-08
-2.7425e-08
-1.0901e-08
-1.92439e-08
-6.04537e-09
-1.17964e-08
-2.78451e-09
-5.37778e-09
-8.78318e-10
-3.24192e-10
-2.96834e-11
2.9818e-09
1.19993e-10
4.10314e-09
2.50391e-09
-1.06424e-09
1.41417e-09
-4.31761e-09
7.5358e-09
-9.80855e-09
1.58488e-08
-1.75578e-08
2.55296e-08
-2.75529e-08
3.59623e-08
-3.97477e-08
4.66639e-08
-5.40646e-08
5.72639e-08
-7.0399e-08
6.74869e-08
-8.86239e-08
7.71344e-08
-1.08595e-07
8.6069e-08
-1.30155e-07
9.42013e-08
-1.53139e-07
1.01479e-07
-1.77376e-07
1.07877e-07
-2.02692e-07
1.13391e-07
-2.28917e-07
1.18031e-07
-2.55878e-07
1.21816e-07
-2.83406e-07
1.24768e-07
-3.11338e-07
1.26916e-07
-3.39511e-07
1.28286e-07
-3.67768e-07
1.28901e-07
-3.95952e-07
1.28786e-07
-4.23914e-07
1.27959e-07
-4.51503e-07
1.26437e-07
-4.78572e-07
1.24232e-07
-5.04977e-07
1.21355e-07
-5.30574e-07
1.17814e-07
-5.55223e-07
1.13616e-07
-5.78783e-07
1.08766e-07
-6.01117e-07
1.03271e-07
-6.2209e-07
9.71387e-08
-6.41569e-07
9.03789e-08
-6.59426e-07
8.30046e-08
-6.75535e-07
7.50328e-08
-6.89779e-07
6.64856e-08
-7.02046e-07
5.73906e-08
-7.1223e-07
4.77816e-08
-7.20237e-07
3.76992e-08
-7.25982e-07
2.71911e-08
-7.29391e-07
1.63126e-08
-7.30407e-07
5.12615e-09
-7.28982e-07
-6.29818e-09
-7.25089e-07
-1.78833e-08
-7.18716e-07
-2.95452e-08
-7.09869e-07
-4.1194e-08
-6.98574e-07
-5.27343e-08
-6.84877e-07
-6.40661e-08
-6.68844e-07
-7.50861e-08
-6.50563e-07
-8.56889e-08
-6.30143e-07
-9.5768e-08
-6.07713e-07
-1.05218e-07
-5.83423e-07
-1.13935e-07
-5.57444e-07
-1.2182e-07
-5.29963e-07
-1.28779e-07
-5.01188e-07
-1.34724e-07
-4.71339e-07
-1.39577e-07
-4.40652e-07
-1.43272e-07
-4.09373e-07
-1.45752e-07
-3.77757e-07
-1.46976e-07
-3.46064e-07
-1.46916e-07
-3.14559e-07
-1.4556e-07
-2.83503e-07
-1.42915e-07
-2.53155e-07
-1.39002e-07
-2.23765e-07
-1.33864e-07
-1.95573e-07
-1.2756e-07
-1.68802e-07
-1.20169e-07
-1.43656e-07
-1.11789e-07
-1.20315e-07
-1.02538e-07
-9.89344e-08
-9.25526e-08
-7.96372e-08
-8.19913e-08
-6.25128e-08
-7.10319e-08
-4.76128e-08
-5.98749e-08
-3.49482e-08
-4.87435e-08
-2.44862e-08
-3.78869e-08
-1.61479e-08
-2.75822e-08
-9.80593e-09
-1.81384e-08
-5.28276e-09
-9.90094e-09
-2.34929e-09
-3.25766e-09
-7.23681e-10
1.35618e-09
-7.05697e-11
3.45005e-09
2.43334e-09
-1.36547e-09
2.77964e-09
-5.41478e-09
1.15851e-08
-1.21062e-08
2.25402e-08
-2.13872e-08
3.48106e-08
-3.31861e-08
4.77611e-08
-4.74094e-08
6.08872e-08
-6.39423e-08
7.37968e-08
-8.26501e-08
8.61947e-08
-1.03382e-07
9.7866e-08
-1.25973e-07
1.0866e-07
-1.50249e-07
1.18478e-07
-1.76031e-07
1.2726e-07
-2.03132e-07
1.34979e-07
-2.31369e-07
1.41628e-07
-2.60556e-07
1.47218e-07
-2.9051e-07
1.51769e-07
-3.2105e-07
1.55309e-07
-3.51999e-07
1.57865e-07
-3.83183e-07
1.59469e-07
-4.14432e-07
1.6015e-07
-4.45577e-07
1.59931e-07
-4.76456e-07
1.58837e-07
-5.06905e-07
1.56886e-07
-5.36765e-07
1.54092e-07
-5.6588e-07
1.50469e-07
-5.94092e-07
1.46027e-07
-6.21249e-07
1.40772e-07
-6.47199e-07
1.34715e-07
-6.71791e-07
1.27863e-07
-6.9488e-07
1.20227e-07
-7.1632e-07
1.1182e-07
-7.35974e-07
1.02658e-07
-7.53707e-07
9.27653e-08
-7.69389e-07
8.21683e-08
-7.82901e-07
7.09023e-08
-7.94129e-07
5.90098e-08
-8.02972e-07
4.65414e-08
-8.09336e-07
3.35561e-08
-8.13146e-07
2.0122e-08
-8.14336e-07
6.31581e-09
-8.12857e-07
-7.77659e-09
-8.08679e-07
-2.2061e-08
-8.01789e-07
-3.64352e-08
-7.92194e-07
-5.07896e-08
-7.7992e-07
-6.50081e-08
-7.65017e-07
-7.89695e-08
-7.47554e-07
-9.25483e-08
-7.27627e-07
-1.05617e-07
-7.05349e-07
-1.18046e-07
-6.8086e-07
-1.29707e-07
-6.54319e-07
-1.40476e-07
-6.25909e-07
-1.5023e-07
-5.9583e-07
-1.58857e-07
-5.64305e-07
-1.66249e-07
-5.31569e-07
-1.72313e-07
-4.97875e-07
-1.76966e-07
-4.63489e-07
-1.80139e-07
-4.28684e-07
-1.81781e-07
-3.93742e-07
-1.81858e-07
-3.58946e-07
-1.80356e-07
-3.24582e-07
-1.77279e-07
-2.90928e-07
-1.72656e-07
-2.58258e-07
-1.66534e-07
-2.26832e-07
-1.58986e-07
-1.96894e-07
-1.50107e-07
-1.68668e-07
-1.40015e-07
-1.42354e-07
-1.28851e-07
-1.18125e-07
-1.16781e-07
-9.61214e-08
-1.03995e-07
-7.64466e-08
-9.07067e-08
-5.9167e-08
-7.71545e-08
-4.43063e-08
-6.36042e-08
-3.18439e-08
-5.03494e-08
-2.17124e-08
-3.77137e-08
-1.37965e-08
-2.60543e-08
-7.93169e-09
-1.57658e-08
-3.90431e-09
-7.28504e-09
-1.45235e-09
-1.09579e-09
-2.67608e-10
2.26532e-09
2.16573e-09
-1.65979e-09
4.43942e-09
-6.49638e-09
1.64217e-08
-1.43836e-08
3.04274e-08
-2.51967e-08
4.56237e-08
-3.8804e-08
6.13685e-08
-5.50626e-08
7.71458e-08
-7.38172e-08
9.25513e-08
-9.49004e-08
1.07278e-07
-1.18134e-07
1.211e-07
-1.43333e-07
1.33858e-07
-1.70303e-07
1.45448e-07
-1.98848e-07
1.55806e-07
-2.28771e-07
1.64902e-07
-2.59873e-07
1.7273e-07
-2.91957e-07
1.79302e-07
-3.24829e-07
1.84641e-07
-3.58297e-07
1.88776e-07
-3.92172e-07
1.91741e-07
-4.26271e-07
1.93568e-07
-4.60411e-07
1.9429e-07
-4.94414e-07
1.93935e-07
-5.28104e-07
1.92528e-07
-5.61309e-07
1.90091e-07
-5.93858e-07
1.86641e-07
-6.25582e-07
1.82193e-07
-6.56315e-07
1.76759e-07
-6.8589e-07
1.70348e-07
-7.14146e-07
1.62971e-07
-7.40922e-07
1.54639e-07
-7.66061e-07
1.45366e-07
-7.89409e-07
1.35168e-07
-8.10817e-07
1.24066e-07
-8.30141e-07
1.12089e-07
-8.47244e-07
9.92712e-08
-8.61997e-07
8.56546e-08
-8.74278e-07
7.12913e-08
-8.83979e-07
5.62423e-08
-8.91002e-07
4.05789e-08
-8.95262e-07
2.43827e-08
-8.96692e-07
7.74557e-09
-8.95239e-07
-9.23005e-09
-8.90868e-07
-2.64319e-08
-8.83565e-07
-4.37384e-08
-8.73335e-07
-6.10192e-08
-8.60206e-07
-7.81368e-08
-8.44228e-07
-9.49471e-08
-8.25475e-07
-1.11302e-07
-8.04044e-07
-1.27048e-07
-7.80055e-07
-1.42035e-07
-7.53653e-07
-1.56109e-07
-7.25008e-07
-1.69121e-07
-6.94311e-07
-1.80928e-07
-6.61773e-07
-1.91394e-07
-6.2763e-07
-2.00393e-07
-5.92131e-07
-2.07812e-07
-5.55545e-07
-2.13551e-07
-5.18154e-07
-2.1753e-07
-4.8025e-07
-2.19685e-07
-4.42133e-07
-2.19975e-07
-4.04108e-07
-2.18381e-07
-3.66479e-07
-2.14908e-07
-3.29549e-07
-2.09586e-07
-2.93611e-07
-2.02472e-07
-2.58947e-07
-1.9365e-07
-2.25823e-07
-1.83231e-07
-1.94485e-07
-1.71353e-07
-1.65152e-07
-1.58184e-07
-1.38016e-07
-1.43917e-07
-1.13237e-07
-1.28775e-07
-9.09358e-08
-1.13008e-07
-7.11955e-08
-9.68948e-08
-5.40553e-08
-8.07444e-08
-3.95098e-08
-6.48949e-08
-2.75064e-08
-4.9717e-08
-1.7945e-08
-3.56157e-08
-1.06774e-08
-2.30334e-08
-5.50834e-09
-1.24541e-08
-2.19804e-09
-4.40607e-09
-4.66304e-10
5.33584e-10
1.69943e-09
-1.94612e-09
6.38555e-09
-7.55571e-09
2.20313e-08
-1.66238e-08
3.94955e-08
-2.89564e-08
5.79563e-08
-4.4362e-08
7.6774e-08
-6.26471e-08
9.5431e-08
-8.36145e-08
1.13519e-07
-1.07062e-07
1.30726e-07
-1.32784e-07
1.46821e-07
-1.60569e-07
1.61643e-07
-1.90205e-07
1.75084e-07
-2.2148e-07
1.87081e-07
-2.54181e-07
1.97603e-07
-2.88096e-07
2.06646e-07
-3.23018e-07
2.14224e-07
-3.58742e-07
2.20364e-07
-3.95064e-07
2.25099e-07
-4.31788e-07
2.28465e-07
-4.68719e-07
2.30499e-07
-5.05665e-07
2.31236e-07
-5.42438e-07
2.30708e-07
-5.78854e-07
2.28944e-07
-6.14729e-07
2.25966e-07
-6.49882e-07
2.21795e-07
-6.84136e-07
2.16447e-07
-7.17313e-07
2.09936e-07
-7.49238e-07
2.02273e-07
-7.7974e-07
1.93473e-07
-8.08648e-07
1.83547e-07
-8.35795e-07
1.72513e-07
-8.61018e-07
1.60391e-07
-8.84159e-07
1.47208e-07
-9.05066e-07
1.32996e-07
-9.23593e-07
1.17798e-07
-9.39602e-07
1.01664e-07
-9.52967e-07
8.46556e-08
-9.63569e-07
6.68448e-08
-9.71306e-07
4.83155e-08
-9.76086e-07
2.91635e-08
-9.77837e-07
9.49646e-09
-9.76501e-07
-1.0566e-08
-9.72041e-07
-3.08927e-08
-9.64437e-07
-5.13419e-08
-9.53694e-07
-7.1762e-08
-9.39839e-07
-9.19924e-08
-9.2292e-07
-1.11866e-07
-9.03013e-07
-1.31209e-07
-8.80216e-07
-1.49845e-07
-8.54655e-07
-1.67596e-07
-8.26479e-07
-1.84285e-07
-7.95863e-07
-1.99737e-07
-7.63005e-07
-2.13785e-07
-7.28129e-07
-2.2627e-07
-6.91478e-07
-2.37044e-07
-6.53317e-07
-2.45973e-07
-6.13927e-07
-2.52941e-07
-5.73605e-07
-2.57851e-07
-5.32663e-07
-2.60628e-07
-4.91417e-07
-2.61221e-07
-4.50193e-07
-2.59605e-07
-4.09315e-07
-2.55785e-07
-3.69108e-07
-2.49794e-07
-3.29886e-07
-2.41694e-07
-2.91955e-07
-2.31582e-07
-2.55602e-07
-2.19584e-07
-2.21095e-07
-2.0586e-07
-1.88678e-07
-1.90601e-07
-1.58562e-07
-1.74032e-07
-1.30928e-07
-1.56409e-07
-1.05918e-07
-1.38018e-07
-8.36322e-08
-1.1918e-07
-6.41297e-08
-1.00247e-07
-4.74225e-08
-8.16021e-08
-3.34759e-08
-6.36637e-08
-2.22073e-08
-4.68843e-08
-1.34873e-08
-3.17534e-08
-7.14076e-09
-1.88006e-08
-2.95084e-09
-8.59599e-09
-6.64181e-10
-1.75308e-09
1.03525e-09
-2.22404e-09
8.60957e-09
-8.5891e-09
2.83963e-08
-1.88168e-08
4.97232e-08
-3.26468e-08
7.17863e-08
-4.98291e-08
9.39563e-08
-7.012e-08
1.15722e-07
-9.32795e-08
1.36678e-07
-1.1907e-07
1.56516e-07
-1.47254e-07
1.75006e-07
-1.77598e-07
1.91987e-07
-2.09868e-07
2.07354e-07
-2.43834e-07
2.21047e-07
-2.79269e-07
2.33037e-07
-3.15948e-07
2.43325e-07
-3.53653e-07
2.51929e-07
-3.92167e-07
2.58879e-07
-4.31279e-07
2.64211e-07
-4.70783e-07
2.67968e-07
-5.10474e-07
2.7019e-07
-5.50153e-07
2.70915e-07
-5.89624e-07
2.70178e-07
-6.28692e-07
2.68012e-07
-6.67166e-07
2.6444e-07
-7.04857e-07
2.59486e-07
-7.41577e-07
2.53168e-07
-7.77142e-07
2.455e-07
-8.11368e-07
2.36499e-07
-8.44073e-07
2.26178e-07
-8.75079e-07
2.14553e-07
-9.04211e-07
2.01645e-07
-9.31297e-07
1.87477e-07
-9.56171e-07
1.72081e-07
-9.78671e-07
1.55497e-07
-9.98645e-07
1.37772e-07
-1.01595e-06
1.18967e-07
-1.03044e-06
9.91513e-08
-1.04201e-06
7.84099e-08
-1.05053e-06
5.68391e-08
-1.05592e-06
3.45492e-08
-1.05809e-06
1.16643e-08
-1.05697e-06
-1.16784e-08
-1.05254e-06
-3.53285e-08
-1.04476e-06
-5.91233e-08
-1.03363e-06
-8.28888e-08
-1.01918e-06
-1.06441e-07
-1.00146e-06
-1.29589e-07
-9.80534e-07
-1.52132e-07
-9.5651e-07
-1.73869e-07
-9.29512e-07
-1.94595e-07
-8.99691e-07
-2.14106e-07
-8.67227e-07
-2.32201e-07
-8.32326e-07
-2.48687e-07
-7.95217e-07
-2.63379e-07
-7.56153e-07
-2.76107e-07
-7.15411e-07
-2.86716e-07
-6.73285e-07
-2.95068e-07
-6.30086e-07
-3.01049e-07
-5.86142e-07
-3.04572e-07
-5.41789e-07
-3.05574e-07
-4.97371e-07
-3.04024e-07
-4.53234e-07
-2.99922e-07
-4.09724e-07
-2.93304e-07
-3.67178e-07
-2.84239e-07
-3.25926e-07
-2.72834e-07
-2.8628e-07
-2.5923e-07
-2.48532e-07
-2.43609e-07
-2.12947e-07
-2.26186e-07
-1.79763e-07
-2.07216e-07
-1.49183e-07
-1.86989e-07
-1.21371e-07
-1.6583e-07
-9.64502e-08
-1.44101e-07
-7.44999e-08
-1.22197e-07
-5.55528e-08
-1.00549e-07
-3.95942e-08
-7.96223e-08
-2.65614e-08
-5.9917e-08
-1.63453e-08
-4.19696e-08
-8.79173e-09
-2.63541e-08
-3.70633e-09
-1.36814e-08
-8.6032e-10
-4.5991e-09
1.74938e-10
-2.49343e-09
1.1103e-08
-9.59451e-09
3.54974e-08
-2.09562e-08
6.10849e-08
-3.62549e-08
8.7085e-08
-5.5184e-08
1.12885e-07
-7.74504e-08
1.37988e-07
-1.02771e-07
1.61999e-07
-1.30872e-07
1.84617e-07
-1.61487e-07
2.0562e-07
-1.94354e-07
2.24854e-07
-2.29219e-07
2.4222e-07
-2.65834e-07
2.57662e-07
-3.03957e-07
2.7116e-07
-3.4335e-07
2.82719e-07
-3.83784e-07
2.92363e-07
-4.25032e-07
3.00127e-07
-4.66874e-07
3.06054e-07
-5.09095e-07
3.10189e-07
-5.51484e-07
3.12578e-07
-5.93832e-07
3.13263e-07
-6.35937e-07
3.12283e-07
-6.77597e-07
3.09671e-07
-7.18613e-07
3.05456e-07
-7.58788e-07
2.99661e-07
-7.97927e-07
2.92307e-07
-8.35839e-07
2.83412e-07
-8.7233e-07
2.72991e-07
-9.07214e-07
2.61061e-07
-9.40303e-07
2.47642e-07
-9.71414e-07
2.32756e-07
-1.00037e-06
2.16431e-07
-1.02699e-06
1.98704e-07
-1.05111e-06
1.7962e-07
-1.07258e-06
1.59234e-07
-1.09122e-06
1.37615e-07
-1.10692e-06
1.14844e-07
-1.11952e-06
9.10148e-08
-1.12892e-06
6.62385e-08
-1.13501e-06
4.06397e-08
-1.13771e-06
1.43588e-08
-1.13694e-06
-1.24488e-08
-1.13265e-06
-3.96129e-08
-1.12483e-06
-6.69495e-08
-1.11345e-06
-9.42621e-08
-1.09855e-06
-1.21343e-07
-1.08017e-06
-1.47974e-07
-1.05837e-06
-1.7393e-07
-1.03325e-06
-1.98982e-07
-1.00495e-06
-2.22897e-07
-9.73613e-07
-2.45444e-07
-9.39421e-07
-2.66393e-07
-9.02585e-07
-2.85523e-07
-8.63339e-07
-3.02625e-07
-8.21946e-07
-3.175e-07
-7.78691e-07
-3.29971e-07
-7.33881e-07
-3.39878e-07
-6.87842e-07
-3.47089e-07
-6.40915e-07
-3.51498e-07
-5.93457e-07
-3.53032e-07
-5.4583e-07
-3.51651e-07
-4.98402e-07
-3.4735e-07
-4.51542e-07
-3.40164e-07
-4.05613e-07
-3.30169e-07
-3.60967e-07
-3.17479e-07
-3.17944e-07
-3.02254e-07
-2.7686e-07
-2.84692e-07
-2.38009e-07
-2.65037e-07
-2.01655e-07
-2.43571e-07
-1.68025e-07
-2.20619e-07
-1.37309e-07
-1.96546e-07
-1.09655e-07
-1.71755e-07
-8.51657e-08
-1.46686e-07
-6.3897e-08
-1.21818e-07
-4.58563e-08
-9.7663e-08
-3.10026e-08
-7.47707e-08
-1.92478e-08
-5.37243e-08
-1.04593e-08
-3.51426e-08
-4.464e-09
-1.96767e-08
-1.05487e-09
-8.00821e-09
-8.79923e-10
-2.75433e-09
1.38573e-08
-1.05708e-08
4.33139e-08
-2.30379e-08
7.3552e-08
-3.97718e-08
1.03819e-07
-6.04115e-08
1.33525e-07
-8.46155e-08
1.62192e-07
-1.12059e-07
1.89443e-07
-1.42431e-07
2.14989e-07
-1.75434e-07
2.38623e-07
-2.10782e-07
2.60202e-07
-2.48198e-07
2.79636e-07
-2.87416e-07
2.9688e-07
-3.28178e-07
3.11922e-07
-3.70234e-07
3.24775e-07
-4.13343e-07
3.35472e-07
-4.5727e-07
3.44053e-07
-5.01785e-07
3.50569e-07
-5.46666e-07
3.5507e-07
-5.91695e-07
3.57607e-07
-6.36657e-07
3.58225e-07
-6.81342e-07
3.56968e-07
-7.25542e-07
3.53871e-07
-7.69052e-07
3.48966e-07
-8.11669e-07
3.42278e-07
-8.53192e-07
3.3383e-07
-8.9342e-07
3.2364e-07
-9.32158e-07
3.11728e-07
-9.69208e-07
2.98111e-07
-1.00438e-06
2.82812e-07
-1.03748e-06
2.65855e-07
-1.06832e-06
2.47273e-07
-1.09672e-06
2.27108e-07
-1.12251e-06
2.05409e-07
-1.14552e-06
1.82241e-07
-1.16558e-06
1.57679e-07
-1.18255e-06
1.31813e-07
-1.19629e-06
1.04752e-07
-1.20667e-06
7.6617e-08
-1.21358e-06
4.75484e-08
-1.21692e-06
1.7703e-08
-1.21662e-06
-1.27458e-08
-1.21263e-06
-4.36078e-08
-1.2049e-06
-7.46775e-08
-1.19343e-06
-1.05735e-07
-1.17822e-06
-1.36548e-07
-1.15932e-06
-1.66873e-07
-1.1368e-06
-1.96457e-07
-1.11074e-06
-2.25042e-07
-1.08127e-06
-2.52367e-07
-1.04854e-06
-2.78171e-07
-1.01274e-06
-3.02196e-07
-9.74068e-07
-3.2419e-07
-9.32778e-07
-3.43915e-07
-8.89131e-07
-3.61147e-07
-8.43423e-07
-3.75679e-07
-7.95971e-07
-3.8733e-07
-7.47115e-07
-3.95945e-07
-6.97212e-07
-4.01401e-07
-6.46635e-07
-4.03609e-07
-5.95768e-07
-4.02517e-07
-5.45002e-07
-3.98116e-07
-4.94729e-07
-3.90438e-07
-4.45337e-07
-3.79561e-07
-3.97206e-07
-3.6561e-07
-3.50704e-07
-3.48756e-07
-3.06176e-07
-3.2922e-07
-2.63945e-07
-3.07268e-07
-2.24302e-07
-2.83213e-07
-1.87505e-07
-2.57416e-07
-1.53772e-07
-2.3028e-07
-1.23277e-07
-2.0225e-07
-9.61502e-08
-1.73813e-07
-7.2472e-08
-1.45496e-07
-5.22742e-08
-1.17861e-07
-3.55392e-08
-9.15057e-08
-2.22008e-08
-6.70627e-08
-1.21475e-08
-4.5196e-08
-5.22616e-09
-2.6598e-08
-1.24871e-09
-1.19856e-08
-2.12863e-09
-3.00678e-09
1.68641e-08
-1.15173e-08
5.18245e-08
-2.5059e-08
8.70936e-08
-4.31909e-08
1.21951e-07
-6.54998e-08
1.55834e-07
-9.15973e-08
1.8829e-07
-1.21117e-07
2.18963e-07
-1.53714e-07
2.47585e-07
-1.89058e-07
2.73967e-07
-2.26837e-07
2.97981e-07
-2.66753e-07
3.19552e-07
-3.08523e-07
3.38649e-07
-3.51871e-07
3.5527e-07
-3.96536e-07
3.69441e-07
-4.42266e-07
3.81201e-07
-4.88816e-07
3.90603e-07
-5.3595e-07
3.97703e-07
-5.83437e-07
4.02557e-07
-6.31052e-07
4.05222e-07
-6.78576e-07
4.0575e-07
-7.25793e-07
4.04185e-07
-7.72489e-07
4.00567e-07
-8.18454e-07
3.94931e-07
-8.6348e-07
3.87304e-07
-9.07359e-07
3.77709e-07
-9.49887e-07
3.66168e-07
-9.9086e-07
3.52701e-07
-1.03008e-06
3.37328e-07
-1.06734e-06
3.20072e-07
-1.10244e-06
3.00963e-07
-1.13521e-06
2.80036e-07
-1.16544e-06
2.57337e-07
-1.19295e-06
2.32922e-07
-1.21757e-06
2.06861e-07
-1.23913e-06
1.79238e-07
-1.25747e-06
1.50154e-07
-1.27245e-06
1.19727e-07
-1.28392e-06
8.8091e-08
-1.29177e-06
5.54018e-08
-1.2959e-06