/*--------------------------------*- C++ -*----------------------------------*\
| =========                 |                                                 |
| \\      /  F ield         | OpenFOAM: The Open Source CFD Toolbox           |
|  \\    /   O peration     | Version:  2506                                  |
|   \\  /    A nd           | Website:  www.openfoam.com                      |
|    \\/     M anipulation  |                                                 |
\*---------------------------------------------------------------------------*/
FoamFile
{
    version     2.0;
    format      ascii;
    arch        "LSB;label=32;scalar=64";
    class       volVectorField;
    location    "1.375";
    object      U;
}
// * * * * * * * * * * * * * * * * * * * * * * * * * * * * * * * * * * * * * //

dimensions      [0 1 -1 0 0 0 0];

internalField   nonuniform List<vector> 
6400
(
(8.52967e-06 -8.5146e-06 0)
(3.30902e-05 -1.55564e-05 0)
(6.24684e-05 -1.41774e-05 0)
(8.03793e-05 -8.50125e-06 0)
(7.86423e-05 -1.14173e-06 0)
(5.4633e-05 6.59401e-06 0)
(8.0143e-06 1.4068e-05 0)
(-6.03735e-05 2.0983e-05 0)
(-0.000149025 2.72149e-05 0)
(-0.000256101 3.27283e-05 0)
(-0.00037963 3.75342e-05 0)
(-0.000517624 4.16674e-05 0)
(-0.000668146 4.5174e-05 0)
(-0.00082935 4.81048e-05 0)
(-0.000999505 5.05105e-05 0)
(-0.00117699 5.24399e-05 0)
(-0.00136032 5.39362e-05 0)
(-0.00154809 5.5039e-05 0)
(-0.00173903 5.57818e-05 0)
(-0.00193193 5.61928e-05 0)
(-0.00212566 5.6294e-05 0)
(-0.00231915 5.61019e-05 0)
(-0.00251137 5.56276e-05 0)
(-0.00270133 5.48784e-05 0)
(-0.00288804 5.38575e-05 0)
(-0.00307055 5.25647e-05 0)
(-0.00324787 5.09973e-05 0)
(-0.00341903 4.91506e-05 0)
(-0.00358306 4.70195e-05 0)
(-0.00373896 4.45985e-05 0)
(-0.00388573 4.18822e-05 0)
(-0.00402237 3.88675e-05 0)
(-0.00414788 3.55521e-05 0)
(-0.00426125 3.19368e-05 0)
(-0.00436152 2.80263e-05 0)
(-0.00444774 2.38277e-05 0)
(-0.004519 1.93536e-05 0)
(-0.00457445 1.46216e-05 0)
(-0.0046133 9.65207e-06 0)
(-0.00463488 4.47236e-06 0)
(-0.00463858 -8.84751e-07 0)
(-0.00462394 -6.38307e-06 0)
(-0.00459061 -1.19799e-05 0)
(-0.00453841 -1.7627e-05 0)
(-0.00446731 -2.32733e-05 0)
(-0.00437745 -2.88636e-05 0)
(-0.00426918 -3.4338e-05 0)
(-0.00414302 -3.96357e-05 0)
(-0.00399969 -4.46945e-05 0)
(-0.00384013 -4.945e-05 0)
(-0.00366546 -5.38389e-05 0)
(-0.00347701 -5.78004e-05 0)
(-0.00327629 -6.12757e-05 0)
(-0.003065 -6.42095e-05 0)
(-0.00284498 -6.65531e-05 0)
(-0.00261825 -6.82636e-05 0)
(-0.00238691 -6.93043e-05 0)
(-0.0021532 -6.96464e-05 0)
(-0.0019194 -6.92716e-05 0)
(-0.00168785 -6.81711e-05 0)
(-0.00146089 -6.63444e-05 0)
(-0.00124084 -6.38011e-05 0)
(-0.00102999 -6.0562e-05 0)
(-0.000830505 -5.66579e-05 0)
(-0.00064446 -5.21286e-05 0)
(-0.000473766 -4.70229e-05 0)
(-0.00032015 -4.13999e-05 0)
(-0.000185127 -3.53278e-05 0)
(-6.9956e-05 -2.88845e-05 0)
(2.43907e-05 -2.21585e-05 0)
(9.72749e-05 -1.52533e-05 0)
(0.000148448 -8.29328e-06 0)
(0.000178127 -1.43455e-06 0)
(0.000187115 5.10834e-06 0)
(0.000176985 1.10311e-05 0)
(0.000150356 1.58644e-05 0)
(0.00011127 1.88709e-05 0)
(6.59379e-05 1.88468e-05 0)
(2.49629e-05 1.39751e-05 0)
(3.63571e-06 3.64847e-06 0)
(1.56692e-05 -3.31374e-05 0)
(5.29226e-05 -5.26988e-05 0)
(8.55247e-05 -3.9803e-05 0)
(8.6322e-05 -8.79957e-06 0)
(3.98831e-05 3.09382e-05 0)
(-6.04657e-05 7.38089e-05 0)
(-0.000216795 0.000116529 0)
(-0.000428243 0.000157222 0)
(-0.000692045 0.000194863 0)
(-0.0010043 0.000228939 0)
(-0.00136048 0.000259254 0)
(-0.00175581 0.0002858 0)
(-0.00218543 0.000308686 0)
(-0.00264459 0.000328088 0)
(-0.00312871 0.000344211 0)
(-0.00363344 0.000357276 0)
(-0.00415467 0.000367495 0)
(-0.00468852 0.000375066 0)
(-0.00523136 0.000380167 0)
(-0.00577973 0.00038295 0)
(-0.00633039 0.000383541 0)
(-0.00688019 0.000382037 0)
(-0.00742614 0.000378511 0)
(-0.00796531 0.000373012 0)
(-0.00849484 0.000365569 0)
(-0.00901189 0.000356195 0)
(-0.00951365 0.000344887 0)
(-0.0099973 0.000331636 0)
(-0.01046 0.000316427 0)
(-0.010899 0.000299248 0)
(-0.0113115 0.000280088 0)
(-0.0116945 0.000258946 0)
(-0.0120454 0.000235836 0)
(-0.0123614 0.000210786 0)
(-0.0126399 0.000183846 0)
(-0.0128782 0.000155088 0)
(-0.0130739 0.000124611 0)
(-0.0132248 9.25437e-05 0)
(-0.0133288 5.90418e-05 0)
(-0.0133842 2.42925e-05 0)
(-0.0133894 -1.1485e-05 0)
(-0.0133432 -4.80418e-05 0)
(-0.0132449 -8.5099e-05 0)
(-0.0130941 -0.000122349 0)
(-0.0128908 -0.000159459 0)
(-0.0126355 -0.000196078 0)
(-0.0123293 -0.000231832 0)
(-0.0119738 -0.000266337 0)
(-0.011571 -0.000299203 0)
(-0.0111236 -0.000330035 0)
(-0.0106346 -0.000358446 0)
(-0.0101079 -0.000384058 0)
(-0.00954745 -0.000406516 0)
(-0.00895803 -0.000425486 0)
(-0.00834465 -0.000440669 0)
(-0.00771275 -0.000451806 0)
(-0.00706809 -0.000458682 0)
(-0.00641668 -0.000461131 0)
(-0.00576471 -0.000459043 0)
(-0.00511847 -0.000452368 0)
(-0.00448428 -0.000441119 0)
(-0.00386839 -0.000425368 0)
(-0.0032769 -0.000405254 0)
(-0.00271565 -0.000380981 0)
(-0.00219017 -0.000352818 0)
(-0.00170554 -0.000321097 0)
(-0.00126635 -0.000286218 0)
(-0.00087654 -0.000248644 0)
(-0.000539367 -0.000208914 0)
(-0.000257245 -0.00016765 0)
(-3.16361e-05 -0.000125575 0)
(0.000137112 -8.35436e-05 0)
(0.00024996 -4.25951e-05 0)
(0.000309455 -4.06034e-06 0)
(0.000320111 3.03321e-05 0)
(0.000288886 5.82295e-05 0)
(0.000225666 7.63892e-05 0)
(0.000143983 8.03166e-05 0)
(6.4098e-05 6.42255e-05 0)
(1.38611e-05 2.48786e-05 0)
(1.44795e-05 -6.28563e-05 0)
(4.0521e-05 -8.55152e-05 0)
(4.30598e-05 -4.23712e-05 0)
(-7.22472e-06 3.94886e-05 0)
(-0.000127894 0.000142094 0)
(-0.000327539 0.000253444 0)
(-0.000609296 0.000365737 0)
(-0.00097245 0.00047407 0)
(-0.00141359 0.000575478 0)
(-0.00192757 0.000668276 0)
(-0.00250815 0.00075162 0)
(-0.00314854 0.000825223 0)
(-0.0038417 0.000889152 0)
(-0.0045806 0.000943697 0)
(-0.00535836 0.000989277 0)
(-0.00616832 0.00102637 0)
(-0.00700413 0.00105547 0)
(-0.00785974 0.00107706 0)
(-0.00872938 0.00109157 0)
(-0.00960758 0.00109938 0)
(-0.0104891 0.00110081 0)
(-0.0113689 0.00109613 0)
(-0.012242 0.00108553 0)
(-0.0131039 0.00106916 0)
(-0.0139497 0.00104709 0)
(-0.0147749 0.00101939 0)
(-0.015575 0.000986072 0)
(-0.0163454 0.000947129 0)
(-0.0170816 0.000902553 0)
(-0.0177792 0.000852333 0)
(-0.0184335 0.000796478 0)
(-0.0190402 0.000735016 0)
(-0.019595 0.000668017 0)
(-0.0200935 0.000595594 0)
(-0.0205315 0.000517918 0)
(-0.0209052 0.000435224 0)
(-0.0212108 0.000347816 0)
(-0.0214449 0.000256074 0)
(-0.0216044 0.000160459 0)
(-0.0216866 6.15166e-05 0)
(-0.0216892 -4.0129e-05 0)
(-0.0216107 -0.00014377 0)
(-0.0214499 -0.000248619 0)
(-0.0212063 -0.00035382 0)
(-0.0208802 -0.000458447 0)
(-0.0204725 -0.000561521 0)
(-0.019985 -0.000662018 0)
(-0.0194203 -0.000758883 0)
(-0.0187816 -0.000851041 0)
(-0.0180731 -0.00093742 0)
(-0.0172997 -0.00101696 0)
(-0.0164673 -0.00108865 0)
(-0.0155823 -0.0011515 0)
(-0.0146519 -0.00120463 0)
(-0.013684 -0.00124723 0)
(-0.0126869 -0.0012786 0)
(-0.0116696 -0.00129816 0)
(-0.0106413 -0.00130548 0)
(-0.00961144 -0.00130026 0)
(-0.0085898 -0.00128238 0)
(-0.00758603 -0.00125189 0)
(-0.00660973 -0.00120899 0)
(-0.00567022 -0.0011541 0)
(-0.00477648 -0.00108778 0)
(-0.00393692 -0.0010108 0)
(-0.00315932 -0.000924108 0)
(-0.00245061 -0.000828832 0)
(-0.00181679 -0.000726301 0)
(-0.0012627 -0.000618057 0)
(-0.0007919 -0.000505877 0)
(-0.000406462 -0.000391821 0)
(-0.000106721 -0.000278308 0)
(0.000108948 -0.000168225 0)
(0.000244507 -6.50958e-05 0)
(0.000306687 2.66749e-05 0)
(0.000305438 0.000101491 0)
(0.000254305 0.000152227 0)
(0.000170882 0.000169933 0)
(8.04895e-05 0.000144108 0)
(1.87034e-05 6.56399e-05 0)
(8.9795e-06 -8.14213e-05 0)
(9.66524e-06 -8.66432e-05 0)
(-3.93845e-05 7.94268e-06 0)
(-0.000163824 0.00016286 0)
(-0.000380122 0.000351592 0)
(-0.000697071 0.000555471 0)
(-0.00111787 0.00076167 0)
(-0.00164153 0.000961681 0)
(-0.00226404 0.00115006 0)
(-0.00297928 0.00132348 0)
(-0.00377976 0.00148013 0)
(-0.00465717 0.00161918 0)
(-0.00560279 0.00174052 0)
(-0.00660777 0.00184446 0)
(-0.00766335 0.00193159 0)
(-0.00876096 0.00200268 0)
(-0.00989235 0.00205851 0)
(-0.0110496 0.00209989 0)
(-0.0122249 0.00212757 0)
(-0.0134112 0.0021422 0)
(-0.0146013 0.00214437 0)
(-0.0157884 0.00213453 0)
(-0.0169659 0.00211306 0)
(-0.0181274 0.00208022 0)
(-0.0192666 0.00203619 0)
(-0.0203772 0.00198109 0)
(-0.0214531 0.00191498 0)
(-0.0224881 0.00183787 0)
(-0.0234762 0.00174979 0)
(-0.0244113 0.00165077 0)
(-0.0252873 0.00154084 0)
(-0.0260985 0.00142013 0)
(-0.0268391 0.00128879 0)
(-0.0275033 0.00114711 0)
(-0.0280857 0.000995433 0)
(-0.0285813 0.000834262 0)
(-0.0289852 0.000664215 0)
(-0.0292928 0.000486051 0)
(-0.0295004 0.000300683 0)
(-0.0296045 0.000109173 0)
(-0.0296023 -8.72657e-05 0)
(-0.0294918 -0.000287267 0)
(-0.0292716 -0.000489325 0)
(-0.0289414 -0.000691802 0)
(-0.0285016 -0.00089294 0)
(-0.0279536 -0.00109088 0)
(-0.0272997 -0.0012837 0)
(-0.0265436 -0.0014694 0)
(-0.0256896 -0.00164596 0)
(-0.0247433 -0.00181137 0)
(-0.0237112 -0.00196365 0)
(-0.022601 -0.00210089 0)
(-0.0214211 -0.00222129 0)
(-0.020181 -0.00232317 0)
(-0.018891 -0.00240503 0)
(-0.0175619 -0.00246556 0)
(-0.0162055 -0.00250371 0)
(-0.0148337 -0.00251867 0)
(-0.0134589 -0.0025099 0)
(-0.0120936 -0.00247719 0)
(-0.0107506 -0.00242063 0)
(-0.0094421 -0.00234064 0)
(-0.00818039 -0.00223801 0)
(-0.00697701 -0.00211384 0)
(-0.00584291 -0.00196959 0)
(-0.00478813 -0.00180708 0)
(-0.00382163 -0.00162848 0)
(-0.00295112 -0.00143636 0)
(-0.00218284 -0.00123368 0)
(-0.00152133 -0.00102383 0)
(-0.000969189 -0.000810754 0)
(-0.000526839 -0.000599007 0)
(-0.000192214 -0.000393947 0)
(3.95852e-05 -0.000201932 0)
(0.000176691 -3.06618e-05 0)
(0.000230898 0.000110476 0)
(0.000217899 0.000210024 0)
(0.000157632 0.0002542 0)
(7.81707e-05 0.00022706 0)
(1.89407e-05 0.000111127 0)
(1.64762e-06 -8.03246e-05 0)
(-3.09336e-05 -3.96116e-05 0)
(-0.000145478 0.00013046 0)
(-0.000359925 0.00038027 0)
(-0.000687315 0.000675732 0)
(-0.00113529 0.000992046 0)
(-0.00170616 0.00131154 0)
(-0.00239812 0.00162204 0)
(-0.00320633 0.00191543 0)
(-0.00412371 0.00218656 0)
(-0.0051417 0.00243239 0)
(-0.00625074 0.00265139 0)
(-0.00744073 0.00284312 0)
(-0.00870135 0.00300781 0)
(-0.0100223 0.00314619 0)
(-0.0113934 0.00325922 0)
(-0.0128047 0.003348 0)
(-0.0142468 0.00341366 0)
(-0.0157102 0.00345727 0)
(-0.017186 0.0034798 0)
(-0.0186656 0.00348209 0)
(-0.0201406 0.00346485 0)
(-0.0216028 0.00342862 0)
(-0.0230442 0.00337384 0)
(-0.0244569 0.00330079 0)
(-0.0258333 0.00320969 0)
(-0.0271655 0.00310065 0)
(-0.0284461 0.00297375 0)
(-0.0296675 0.00282908 0)
(-0.0308223 0.00266671 0)
(-0.0319031 0.00248679 0)
(-0.0329027 0.00228955 0)
(-0.033814 0.00207532 0)
(-0.0346303 0.00184459 0)
(-0.0353448 0.00159799 0)
(-0.0359515 0.00133637 0)
(-0.0364445 0.00106076 0)
(-0.0368186 0.000772416 0)
(-0.0370691 0.000472841 0)
(-0.037192 0.000163756 0)
(-0.0371842 -0.000152877 0)
(-0.0370432 -0.000474868 0)
(-0.0367676 -0.000799808 0)
(-0.0363571 -0.00112509 0)
(-0.0358124 -0.00144792 0)
(-0.0351354 -0.00176537 0)
(-0.034329 -0.00207438 0)
(-0.0333975 -0.00237181 0)
(-0.0323465 -0.0026545 0)
(-0.0311827 -0.00291928 0)
(-0.0299141 -0.00316305 0)
(-0.0285499 -0.00338283 0)
(-0.0271004 -0.00357577 0)
(-0.025577 -0.00373927 0)
(-0.023992 -0.00387099 0)
(-0.0223586 -0.0039689 0)
(-0.0206907 -0.00403134 0)
(-0.0190028 -0.00405705 0)
(-0.0173097 -0.00404522 0)
(-0.0156265 -0.00399553 0)
(-0.0139684 -0.00390813 0)
(-0.0123501 -0.00378373 0)
(-0.0107864 -0.00362354 0)
(-0.009291 -0.00342934 0)
(-0.00787713 -0.00320347 0)
(-0.0065568 -0.00294883 0)
(-0.00534075 -0.00266889 0)
(-0.00423824 -0.00236774 0)
(-0.00325674 -0.00205007 0)
(-0.00240171 -0.0017213 0)
(-0.00167635 -0.0013876 0)
(-0.00108131 -0.0010561 0)
(-0.00061439 -0.000735015 0)
(-0.000270225 -0.000433924 0)
(-3.99377e-05 -0.000164121 0)
(8.92261e-05 6.10078e-05 0)
(0.000134075 0.00022554 0)
(0.000115796 0.00031073 0)
(6.34058e-05 0.000294815 0)
(1.64972e-05 0.000151585 0)
(-6.32467e-06 -5.62648e-05 0)
(-7.62614e-05 6.40881e-05 0)
(-0.000264678 0.000336662 0)
(-0.000579461 0.000704397 0)
(-0.00102862 0.00112701 0)
(-0.0016176 0.00157443 0)
(-0.00234698 0.00202463 0)
(-0.00321357 0.00246199 0)
(-0.00421135 0.00287581 0)
(-0.0053322 0.00325903 0)
(-0.00656644 0.00360732 0)
(-0.0079034 0.00391837 0)
(-0.00933178 0.00419129 0)
(-0.01084 0.00442617 0)
(-0.0124164 0.00462377 0)
(-0.0140496 0.00478526 0)
(-0.0157281 0.004912 0)
(-0.017441 0.00500542 0)
(-0.0191775 0.00506691 0)
(-0.0209273 0.00509776 0)
(-0.0226802 0.00509908 0)
(-0.0244265 0.00507182 0)
(-0.0261565 0.00501675 0)
(-0.0278608 0.00493445 0)
(-0.0295302 0.00482536 0)
(-0.0311554 0.00468978 0)
(-0.0327276 0.00452794 0)
(-0.0342376 0.00433999 0)
(-0.0356768 0.0041261 0)
(-0.0370364 0.00388647 0)
(-0.0383078 0.00362135 0)
(-0.0394826 0.00333116 0)
(-0.0405526 0.00301645 0)
(-0.0415099 0.00267798 0)
(-0.0423468 0.00231677 0)
(-0.0430564 0.00193406 0)
(-0.043632 0.00153144 0)
(-0.0440675 0.00111075 0)
(-0.0443577 0.00067421 0)
(-0.0444982 0.000224327 0)
(-0.0444853 -0.000236044 0)
(-0.0443165 -0.000703736 0)
(-0.0439902 -0.00117528 0)
(-0.0435062 -0.00164692 0)
(-0.0428654 -0.00211468 0)
(-0.0420701 -0.00257435 0)
(-0.0411238 -0.00302157 0)
(-0.0400316 -0.00345189 0)
(-0.0387999 -0.00386079 0)
(-0.0374365 -0.00424379 0)
(-0.0359507 -0.00459649 0)
(-0.034353 -0.00491466 0)
(-0.0326553 -0.00519429 0)
(-0.0308707 -0.00543169 0)
(-0.0290133 -0.00562354 0)
(-0.0270983 -0.00576698 0)
(-0.0251415 -0.00585966 0)
(-0.0231596 -0.00589982 0)
(-0.0211696 -0.00588631 0)
(-0.0191888 -0.00581868 0)
(-0.0172344 -0.00569717 0)
(-0.0153237 -0.00552278 0)
(-0.0134732 -0.00529728 0)
(-0.0116989 -0.00502321 0)
(-0.0100159 -0.00470392 0)
(-0.00843811 -0.00434356 0)
(-0.00697781 -0.00394713 0)
(-0.0056457 -0.00352045 0)
(-0.00445046 -0.00307026 0)
(-0.00339851 -0.00260425 0)
(-0.00249373 -0.00213116 0)
(-0.00173719 -0.00166095 0)
(-0.00112686 -0.00120498 0)
(-0.000657357 -0.000776304 0)
(-0.000319585 -0.00038997 0)
(-0.000100505 -6.34666e-05 0)
(1.7053e-05 0.000182811 0)
(5.46839e-05 0.000325181 0)
(4.08761e-05 0.000336183 0)
(1.26214e-05 0.000181834 0)
(-1.43834e-05 -7.94687e-06 0)
(-0.000123491 0.000229015 0)
(-0.000390342 0.000633491 0)
(-0.000811678 0.00114344 0)
(-0.00138951 0.00171387 0)
(-0.00212627 0.00231046 0)
(-0.00302017 0.00290751 0)
(-0.0040661 0.0034864 0)
(-0.00525653 0.00403404 0)
(-0.00658202 0.0045416 0)
(-0.00803175 0.00500351 0)
(-0.00959391 0.00541663 0)
(-0.0112561 0.0057796 0)
(-0.0130056 0.00609233 0)
(-0.0148296 0.00635558 0)
(-0.0167154 0.00657066 0)
(-0.0186505 0.00673918 0)
(-0.0206227 0.00686285 0)
(-0.0226199 0.00694338 0)
(-0.0246304 0.00698232 0)
(-0.0266431 0.0069811 0)
(-0.0286466 0.0069409 0)
(-0.0306301 0.0068627 0)
(-0.0325829 0.00674726 0)
(-0.0344945 0.00659517 0)
(-0.0363545 0.00640686 0)
(-0.0381526 0.00618266 0)
(-0.0398788 0.00592285 0)
(-0.0415228 0.0056277 0)
(-0.043075 0.00529755 0)
(-0.0445256 0.00493285 0)
(-0.045865 0.0045342 0)
(-0.0470841 0.00410246 0)
(-0.048174 0.00363875 0)
(-0.0491262 0.00314448 0)
(-0.0499328 0.00262146 0)
(-0.0505865 0.00207184 0)
(-0.0510806 0.00149821 0)
(-0.0514092 0.000903575 0)
(-0.0515676 0.000291374 0)
(-0.0515516 -0.000334529 0)
(-0.0513587 -0.000969854 0)
(-0.0509871 -0.00160993 0)
(-0.0504368 -0.00224972 0)
(-0.0497087 -0.00288389 0)
(-0.0488055 -0.0035068 0)
(-0.0477313 -0.00411266 0)
(-0.0464917 -0.00469552 0)
(-0.045094 -0.00524937 0)
(-0.0435468 -0.00576825 0)
(-0.0418606 -0.00624632 0)
(-0.040047 -0.00667794 0)
(-0.0381193 -0.0070578 0)
(-0.036092 -0.007381 0)
(-0.0339809 -0.00764314 0)
(-0.0318027 -0.00784042 0)
(-0.0295753 -0.00796972 0)
(-0.027317 -0.00802869 0)
(-0.0250468 -0.00801582 0)
(-0.022784 -0.00793048 0)
(-0.0205478 -0.00777303 0)
(-0.0183573 -0.00754478 0)
(-0.0162311 -0.00724809 0)
(-0.0141871 -0.00688637 0)
(-0.0122422 -0.00646408 0)
(-0.0104119 -0.00598679 0)
(-0.00871004 -0.00546114 0)
(-0.00714879 -0.00489494 0)
(-0.00573803 -0.00429713 0)
(-0.00448518 -0.00367792 0)
(-0.00339496 -0.00304883 0)
(-0.00246908 -0.00242288 0)
(-0.00170598 -0.00181477 0)
(-0.0011006 -0.00124114 0)
(-0.000644087 -0.0007209 0)
(-0.000323647 -0.000275641 0)
(-0.000122337 6.98506e-05 0)
(-1.88294e-05 0.000287168 0)
(1.37564e-05 0.000343626 0)
(8.04419e-06 0.000198893 0)
(-2.22843e-05 6.49476e-05 0)
(-0.000171062 0.000457284 0)
(-0.000518397 0.00102473 0)
(-0.00104957 0.00170226 0)
(-0.00176007 0.0024416 0)
(-0.0026488 0.00320521 0)
(-0.0037111 0.00396452 0)
(-0.00493949 0.00469842 0)
(-0.00632459 0.00539182 0)
(-0.00785545 0.00603435 0)
(-0.00951994 0.00661931 0)
(-0.0113051 0.00714281 0)
(-0.0131973 0.00760305 0)
(-0.0151829 0.00799975 0)
(-0.017248 0.00833367 0)
(-0.0193788 0.00860625 0)
(-0.0215617 0.0088193 0)
(-0.0237834 0.00897481 0)
(-0.0260308 0.00907475 0)
(-0.0282911 0.00912101 0)
(-0.0305518 0.00911524 0)
(-0.0328006 0.00905888 0)
(-0.0350256 0.00895313 0)
(-0.0372148 0.00879892 0)
(-0.0393567 0.00859702 0)
(-0.0414396 0.00834797 0)
(-0.0434523 0.00805225 0)
(-0.0453834 0.00771026 0)
(-0.0472219 0.00732242 0)
(-0.0489568 0.00688924 0)
(-0.0505775 0.00641139 0)
(-0.0520735 0.00588976 0)
(-0.0534345 0.00532551 0)
(-0.054651 0.00472018 0)
(-0.0557136 0.0040757 0)
(-0.0566136 0.00339444 0)
(-0.057343 0.00267927 0)
(-0.0578947 0.00193357 0)
(-0.0582622 0.00116126 0)
(-0.0584402 0.000366786 0)
(-0.0584246 -0.000444855 0)
(-0.0582123 -0.00126816 0)
(-0.0578017 -0.00209712 0)
(-0.0571925 -0.00292531 0)
(-0.0563861 -0.00374589 0)
(-0.0553853 -0.00455169 0)
(-0.0541946 -0.00533532 0)
(-0.0528201 -0.00608919 0)
(-0.0512696 -0.00680569 0)
(-0.0495528 -0.00747723 0)
(-0.0476808 -0.00809638 0)
(-0.0456665 -0.00865599 0)
(-0.0435242 -0.00914933 0)
(-0.0412697 -0.00957014 0)
(-0.0389202 -0.00991284 0)
(-0.036494 -0.0101726 0)
(-0.0340103 -0.0103454 0)
(-0.0314894 -0.0104284 0)
(-0.0289518 -0.0104194 0)
(-0.0264186 -0.0103178 0)
(-0.023911 -0.010124 0)
(-0.0214497 -0.00983954 0)
(-0.0190554 -0.0094675 0)
(-0.0167475 -0.00901218 0)
(-0.0145447 -0.00847926 0)
(-0.0124641 -0.00787579 0)
(-0.0105213 -0.00721024 0)
(-0.00872965 -0.00649249 0)
(-0.0071004 -0.00573389 0)
(-0.00564212 -0.00494732 0)
(-0.0043605 -0.00414724 0)
(-0.00325811 -0.00334989 0)
(-0.00233414 -0.00257342 0)
(-0.00158417 -0.00183814 0)
(-0.000999976 -0.00116684 0)
(-0.00056942 -0.000585178 0)
(-0.000276249 -0.000122154 0)
(-9.99196e-05 0.000189419 0)
(-1.58705e-05 0.000312272 0)
(3.19088e-06 0.000201113 0)
(-2.99315e-05 0.000162199 0)
(-0.000218134 0.000749443 0)
(-0.000646387 0.00151197 0)
(-0.00128862 0.00238328 0)
(-0.00213363 0.00331308 0)
(-0.00317646 0.00426163 0)
(-0.0044092 0.00519824 0)
(-0.00582171 0.00609995 0)
(-0.00740246 0.00695008 0)
(-0.00913876 0.00773704 0)
(-0.011017 0.00845321 0)
(-0.013023 0.00909409 0)
(-0.015142 0.00965753 0)
(-0.0173593 0.0101431 0)
(-0.0196599 0.0105515 0)
(-0.0220292 0.0108845 0)
(-0.0244525 0.0111439 0)
(-0.0269156 0.011332 0)
(-0.0294043 0.0114511 0)
(-0.031905 0.0115034 0)
(-0.0344041 0.0114907 0)
(-0.0368883 0.0114148 0)
(-0.0393446 0.011277 0)
(-0.0417602 0.0110784 0)
(-0.0441223 0.01082 0)
(-0.0464185 0.0105025 0)
(-0.0486363 0.0101265 0)
(-0.0507636 0.00969255 0)
(-0.0527882 0.00920122 0)
(-0.0546983 0.00865325 0)
(-0.0564823 0.00804954 0)
(-0.0581289 0.0073913 0)
(-0.0596269 0.00668008 0)
(-0.060966 0.00591787 0)
(-0.0621361 0.00510717 0)
(-0.0631279 0.004251 0)
(-0.0639326 0.003353 0)
(-0.0645426 0.00241742 0)
(-0.064951 0.00144919 0)
(-0.0651521 0.000453848 0)
(-0.0651413 -0.000562386 0)
(-0.0649155 -0.00159268 0)
(-0.0644728 -0.00262961 0)
(-0.0638131 -0.00366521 0)
(-0.0629375 -0.00469106 0)
(-0.0618493 -0.00569833 0)
(-0.060553 -0.0066779 0)
(-0.0590553 -0.00762045 0)
(-0.0573645 -0.00851661 0)
(-0.0554909 -0.00935706 0)
(-0.0534463 -0.0101327 0)
(-0.0512444 -0.0108346 0)
(-0.0489007 -0.0114547 0)
(-0.0464319 -0.0119851 0)
(-0.0438566 -0.012419 0)
(-0.0411943 -0.0127504 0)
(-0.0384657 -0.0129744 0)
(-0.0356925 -0.0130873 0)
(-0.032897 -0.0130867 0)
(-0.0301018 -0.0129714 0)
(-0.0273298 -0.012742 0)
(-0.0246036 -0.0124005 0)
(-0.0219453 -0.0119504 0)
(-0.0193764 -0.0113971 0)
(-0.0169171 -0.0107475 0)
(-0.0145863 -0.0100103 0)
(-0.012401 -0.00919566 0)
(-0.0103762 -0.00831585 0)
(-0.00852441 -0.00738469 0)
(-0.00685554 -0.00641783 0)
(-0.00537645 -0.00543282 0)
(-0.00409079 -0.00444921 0)
(-0.00299872 -0.00348867 0)
(-0.00209677 -0.00257525 0)
(-0.00137766 -0.00173559 0)
(-0.000830218 -0.000999308 0)
(-0.000439253 -0.000399459 0)
(-0.000185358 2.71208e-05 0)
(-4.66971e-05 0.000239205 0)
(-1.70309e-06 0.000187706 0)
(-3.72974e-05 0.000283315 0)
(-0.000264267 0.00110508 0)
(-0.000772852 0.0020953 0)
(-0.00152597 0.00318717 0)
(-0.00250574 0.00432939 0)
(-0.00370317 0.00548094 0)
(-0.00510692 0.00660979 0)
(-0.0067039 0.0076917 0)
(-0.00848023 0.00870891 0)
(-0.0104213 0.00964896 0)
(-0.0125119 0.0105036 0)
(-0.0147365 0.0112679 0)
(-0.0170792 0.0119394 0)
(-0.0195242 0.0125177 0)
(-0.0220555 0.0130036 0)
(-0.0246576 0.0133989 0)
(-0.027315 0.0137057 0)
(-0.0300125 0.0139267 0)
(-0.0327351 0.0140642 0)
(-0.0354682 0.0141208 0)
(-0.0381975 0.0140986 0)
(-0.0409087 0.0139995 0)
(-0.043588 0.013825 0)
(-0.0462216 0.0135767 0)
(-0.0487958 0.0132554 0)
(-0.0512974 0.012862 0)
(-0.053713 0.0123974 0)
(-0.0560294 0.0118622 0)
(-0.0582339 0.0112572 0)
(-0.0603136 0.0105834 0)
(-0.0622561 0.00984198 0)
(-0.0640493 0.00903442 0)
(-0.0656814 0.00816275 0)
(-0.0671411 0.00722945 0)
(-0.0684178 0.00623762 0)
(-0.0695015 0.00519101 0)
(-0.0703828 0.00409407 0)
(-0.0710536 0.00295202 0)
(-0.0715064 0.00177081 0)
(-0.0717353 0.00055718 0)
(-0.0717352 -0.000681354 0)
(-0.0715027 -0.00193655 0)
(-0.0710358 -0.00319947 0)
(-0.0703342 -0.00446055 0)
(-0.069399 -0.00570965 0)
(-0.0682335 -0.00693619 0)
(-0.0668426 -0.00812924 0)
(-0.065233 -0.00927762 0)
(-0.0634135 -0.0103701 0)
(-0.0613948 -0.0113955 0)
(-0.0591894 -0.0123429 0)
(-0.0568116 -0.0132016 0)
(-0.0542778 -0.0139618 0)
(-0.0516057 -0.0146143 0)
(-0.0488148 -0.0151506 0)
(-0.045926 -0.0155636 0)
(-0.0429612 -0.0158473 0)
(-0.0399434 -0.0159972 0)
(-0.0368966 -0.0160102 0)
(-0.0338448 -0.0158851 0)
(-0.0308126 -0.0156223 0)
(-0.0278243 -0.0152241 0)
(-0.0249039 -0.0146947 0)
(-0.0220743 -0.0140404 0)
(-0.0193577 -0.0132694 0)
(-0.0167745 -0.0123919 0)
(-0.0143435 -0.0114204 0)
(-0.0120813 -0.0103691 0)
(-0.0100018 -0.00925455 0)
(-0.00811657 -0.00809527 0)
(-0.00643368 -0.00691197 0)
(-0.0049581 -0.00572759 0)
(-0.00369123 -0.00456739 0)
(-0.00263078 -0.00345915 0)
(-0.00177066 -0.00243336 0)
(-0.00110097 -0.00152351 0)
(-0.000607797 -0.000766486 0)
(-0.000273106 -0.000202833 0)
(-7.79508e-05 0.000122801 0)
(-6.51696e-06 0.000158399 0)
(-4.43843e-05 0.000427682 0)
(-0.000309243 0.00152322 0)
(-0.000896936 0.00277386 0)
(-0.00175979 0.00411335 0)
(-0.0028734 0.00549023 0)
(-0.00422472 0.006863 0)
(-0.0057988 0.00819898 0)
(-0.00757951 0.00947327 0)
(-0.00955044 0.0106675 0)
(-0.0116949 0.0117688 0)
(-0.013996 0.0127685 0)
(-0.0164368 0.0136614 0)
(-0.019 0.0144452 0)
(-0.0216689 0.0151194 0)
(-0.0244265 0.015685 0)
(-0.0272564 0.016144 0)
(-0.0301422 0.0164987 0)
(-0.033068 0.0167521 0)
(-0.0360181 0.0169069 0)
(-0.0389769 0.0169658 0)
(-0.0419295 0.0169312 0)
(-0.0448607 0.0168053 0)
(-0.047756 0.0165898 0)
(-0.0506007 0.0162863 0)
(-0.0533805 0.0158959 0)
(-0.0560813 0.0154197 0)
(-0.0586888 0.0148586 0)
(-0.0611893 0.0142135 0)
(-0.0635691 0.0134854 0)
(-0.0658146 0.0126755 0)
(-0.0679126 0.0117853 0)
(-0.0698502 0.0108166 0)
(-0.0716152 0.00977198 0)
(-0.0731953 0.00865438 0)
(-0.0745794 0.00746758 0)
(-0.0757568 0.00621607 0)
(-0.0767177 0.00490519 0)
(-0.0774532 0.00354112 0)
(-0.0779555 0.00213095 0)
(-0.0782181 0.000682659 0)
(-0.0782356 -0.000794889 0)
(-0.0780043 -0.00229197 0)
(-0.0775219 -0.00379807 0)
(-0.0767877 -0.00530192 0)
(-0.075803 -0.00679161 0)
(-0.0745708 -0.00825472 0)
(-0.073096 -0.00967838 0)
(-0.0713856 -0.0110495 0)
(-0.0694486 -0.0123548 0)
(-0.0672958 -0.0135812 0)
(-0.0649404 -0.0147158 0)
(-0.0623973 -0.0157462 0)
(-0.0596833 -0.0166606 0)
(-0.0568171 -0.0174481 0)
(-0.0538192 -0.0180988 0)
(-0.0507113 -0.0186041 0)
(-0.0475168 -0.018957 0)
(-0.04426 -0.019152 0)
(-0.0409661 -0.0191854 0)
(-0.0376608 -0.0190554 0)
(-0.0343702 -0.0187626 0)
(-0.0311204 -0.0183093 0)
(-0.0279371 -0.0177005 0)
(-0.024845 -0.0169434 0)
(-0.0218681 -0.0160474 0)
(-0.0190286 -0.0150245 0)
(-0.0163471 -0.0138889 0)
(-0.0138418 -0.0126575 0)
(-0.0115286 -0.0113494 0)
(-0.00942039 -0.00998598 0)
(-0.00752694 -0.00859126 0)
(-0.00585469 -0.00719161 0)
(-0.00440651 -0.00581594 0)
(-0.00318151 -0.00449576 0)
(-0.00217501 -0.00326537 0)
(-0.00137858 -0.00216209 0)
(-0.000779763 -0.00122645 0)
(-0.000361991 -0.000502459 0)
(-0.00010922 -3.77851e-05 0)
(-1.11984e-05 0.000113193 0)
(-5.12056e-05 0.000594631 0)
(-0.000352963 0.00200255 0)
(-0.00101815 0.00354615 0)
(-0.00198895 0.00516035 0)
(-0.00323465 0.00679425 0)
(-0.00473816 0.00840655 0)
(-0.00648094 0.00996458 0)
(-0.00844369 0.0114433 0)
(-0.0106074 0.0128243 0)
(-0.0129532 0.0140946 0)
(-0.0154624 0.0152454 0)
(-0.0181164 0.0162719 0)
(-0.020897 0.0171715 0)
(-0.023786 0.0179442 0)
(-0.0267657 0.0185912 0)
(-0.0298187 0.0191147 0)
(-0.032928 0.0195174 0)
(-0.0360767 0.0198025 0)
(-0.0392485 0.0199732 0)
(-0.0424273 0.0200322 0)
(-0.0455972 0.0199824 0)
(-0.0487426 0.019826 0)
(-0.0518481 0.0195651 0)
(-0.0548985 0.0192013 0)
(-0.0578787 0.018736 0)
(-0.0607738 0.0181704 0)
(-0.063569 0.0175055 0)
(-0.0662499 0.0167425 0)
(-0.0688019 0.0158825 0)
(-0.0712108 0.014927 0)
(-0.0734629 0.0138777 0)
(-0.0755446 0.0127371 0)
(-0.0774427 0.0115079 0)
(-0.0791447 0.0101938 0)
(-0.0806385 0.00879918 0)
(-0.081913 0.00732935 0)
(-0.0829578 0.00579052 0)
(-0.0837634 0.00418993 0)
(-0.0843215 0.00253579 0)
(-0.0846251 0.000837374 0)
(-0.0846684 -0.000895047 0)
(-0.0844471 -0.00265022 0)
(-0.0839586 -0.00441599 0)
(-0.083202 -0.00617934 0)
(-0.0821783 -0.0079265 0)
(-0.0808902 -0.00964313 0)
(-0.0793426 -0.0113144 0)
(-0.0775425 -0.012925 0)
(-0.0754988 -0.0144599 0)
(-0.0732227 -0.0159036 0)
(-0.0707275 -0.0172414 0)
(-0.0680285 -0.0184588 0)
(-0.0651433 -0.019542 0)
(-0.0620911 -0.0204784 0)
(-0.0588932 -0.0212564 0)
(-0.0555724 -0.0218659 0)
(-0.052153 -0.0222986 0)
(-0.0486607 -0.022548 0)
(-0.0451221 -0.0226095 0)
(-0.0415643 -0.022481 0)
(-0.0380152 -0.0221627 0)
(-0.0345025 -0.0216573 0)
(-0.0310536 -0.0209702 0)
(-0.0276953 -0.0201094 0)
(-0.0244533 -0.0190858 0)
(-0.0213519 -0.017913 0)
(-0.0184136 -0.0166072 0)
(-0.0156584 -0.0151876 0)
(-0.0131042 -0.013676 0)
(-0.0107656 -0.0120969 0)
(-0.00865424 -0.0104776 0)
(-0.00677826 -0.00884796 0)
(-0.00514217 -0.00724051 0)
(-0.00374669 -0.00569058 0)
(-0.00258875 -0.00423629 0)
(-0.00166151 -0.00291867 0)
(-0.000954116 -0.00178187 0)
(-0.000451473 -0.000873155 0)
(-0.000140338 -0.000242983 0)
(-1.57367e-05 5.22162e-05 0)
(-5.77764e-05 0.000783478 0)
(-0.000395387 0.00254157 0)
(-0.0011362 0.00441025 0)
(-0.00221272 0.00632611 0)
(-0.00358813 0.00823937 0)
(-0.00524143 0.0101095 0)
(-0.00715047 0.0119045 0)
(-0.00929278 0.0135997 0)
(-0.0116467 0.015177 0)
(-0.0141911 0.0166238 0)
(-0.0169054 0.0179317 0)
(-0.0197695 0.019096 0)
(-0.0227638 0.0201148 0)
(-0.0258692 0.0209882 0)
(-0.0290668 0.0217178 0)
(-0.0323386 0.0223063 0)
(-0.0356665 0.0227568 0)
(-0.0390333 0.0230727 0)
(-0.0424219 0.0232575 0)
(-0.0458155 0.0233145 0)
(-0.0491977 0.0232465 0)
(-0.0525523 0.0230562 0)
(-0.0558633 0.0227457 0)
(-0.0591148 0.0223169 0)
(-0.0622913 0.0217712 0)
(-0.0653772 0.0211101 0)
(-0.0683571 0.0203348 0)
(-0.0712158 0.0194464 0)
(-0.0739384 0.0184465 0)
(-0.07651 0.0173367 0)
(-0.0789162 0.0161191 0)
(-0.0811427 0.0147964 0)
(-0.0831758 0.0133721 0)
(-0.0850023 0.0118503 0)
(-0.0866097 0.010236 0)
(-0.0879861 0.00853543 0)
(-0.0891205 0.00675565 0)
(-0.0900028 0.00490494 0)
(-0.0906243 0.00299272 0)
(-0.0909773 0.00102956 0)
(-0.0910554 -0.000972833 0)
(-0.090854 -0.00300165 0)
(-0.0903699 -0.00504303 0)
(-0.0896018 -0.00708216 0)
(-0.0885501 -0.00910337 0)
(-0.0872175 -0.0110903 0)
(-0.0856085 -0.013026 0)
(-0.0837298 -0.0148933 0)
(-0.0815904 -0.0166746 0)
(-0.0792014 -0.0183525 0)
(-0.0765763 -0.01991 0)
(-0.0737307 -0.0213304 0)
(-0.0706825 -0.022598 0)
(-0.0674515 -0.0236982 0)
(-0.0640597 -0.0246175 0)
(-0.0605307 -0.0253443 0)
(-0.0568901 -0.0258687 0)
(-0.0531645 -0.026183 0)
(-0.049382 -0.0262818 0)
(-0.0455712 -0.0261623 0)
(-0.0417617 -0.0258245 0)
(-0.0379829 -0.025271 0)
(-0.0342642 -0.0245078 0)
(-0.0306342 -0.0235437 0)
(-0.0271209 -0.0223908 0)
(-0.0237505 -0.0210642 0)
(-0.0205476 -0.0195825 0)
(-0.0175344 -0.0179669 0)
(-0.0147308 -0.0162422 0)
(-0.0121536 -0.0144359 0)
(-0.00981628 -0.0125786 0)
(-0.00772896 -0.0107036 0)
(-0.005898 -0.00884745 0)
(-0.00432593 -0.00704911 0)
(-0.00301144 -0.00535057 0)
(-0.00194942 -0.00379663 0)
(-0.00113063 -0.00243497 0)
(-0.000541464 -0.00131606 0)
(-0.000171309 -0.000493073 0)
(-2.01478e-05 -2.43826e-05 0)
(-6.41113e-05 0.00099354 0)
(-0.000436502 0.00313868 0)
(-0.00125091 0.00536398 0)
(-0.00243061 0.00760811 0)
(-0.00393291 0.00982289 0)
(-0.00573301 0.0119692 0)
(-0.00780523 0.0140159 0)
(-0.010124 0.0159395 0)
(-0.0126648 0.0177226 0)
(-0.0154045 0.0193533 0)
(-0.0183205 0.0208239 0)
(-0.0213911 0.0221303 0)
(-0.0245953 0.0232712 0)
(-0.027913 0.0242472 0)
(-0.0313244 0.0250606 0)
(-0.0348104 0.0257144 0)
(-0.0383526 0.0262122 0)
(-0.0419329 0.0265579 0)
(-0.0455337 0.0267553 0)
(-0.0491375 0.026808 0)
(-0.0527276 0.0267192 0)
(-0.0562871 0.0264916 0)
(-0.0597996 0.0261276 0)
(-0.0632487 0.0256293 0)
(-0.0666183 0.0249983 0)
(-0.0698924 0.0242362 0)
(-0.073055 0.0233442 0)
(-0.0760903 0.0223239 0)
(-0.078983 0.0211767 0)
(-0.0817175 0.0199048 0)
(-0.0842788 0.0185104 0)
(-0.0866522 0.0169967 0)
(-0.0888234 0.0153676 0)
(-0.0907785 0.0136278 0)
(-0.0925044 0.011783 0)
(-0.0939886 0.00984019 0)
(-0.0952195 0.00780737 0)
(-0.0961865 0.00569388 0)
(-0.09688 0.00351031 0)
(-0.0972918 0.00126855 0)
(-0.0974151 -0.00101824 0)
(-0.0972443 -0.00333567 0)
(-0.0967758 -0.00566814 0)
(-0.0960078 -0.00799902 0)
(-0.0949401 -0.0103107 0)
(-0.0935749 -0.0125847 0)
(-0.0919163 -0.014802 0)