/*--------------------------------*- C++ -*----------------------------------*\
| =========                 |                                                 |
| \\      /  F ield         | OpenFOAM: The Open Source CFD Toolbox           |
|  \\    /   O peration     | Version:  2506                                  |
|   \\  /    A nd           | Website:  www.openfoam.com                      |
|    \\/     M anipulation  |                                                 |
\*---------------------------------------------------------------------------*/
FoamFile
{
    version     2.0;
    format      ascii;
    arch        "LSB;label=32;scalar=64";
    class       volScalarField;
    location    "0.8";
    object      p;
}
// * * * * * * * * * * * * * * * * * * * * * * * * * * * * * * * * * * * * * //

dimensions      [0 2 -2 0 0 0 0];

internalField   nonuniform List<scalar> 
400
(
4.37932e-08
-0.00248415
-0.00739834
-0.0128139
-0.018052
-0.0199597
-0.0175387
-0.00912937
0.00301545
0.0236789
0.00249471
-1.48024e-05
-0.00387565
-0.00796029
-0.0118072
-0.0129872
-0.0106686
-0.00320037
0.00724709
0.0250678
0.00753509
0.00380475
-0.000211735
-0.00394026
-0.00721285
-0.00805382
-0.00582696
0.000854977
0.010191
0.0259722
0.0134075
0.00797835
0.00314011
-0.00086353
-0.00412773
-0.00491834
-0.00283974
0.00335335
0.0119139
0.0263862
0.0199562
0.0122306
0.00594825
0.00111382
-0.00263277
-0.00361797
-0.00168548
0.00420771
0.0123578
0.0261348
0.0240346
0.0140184
0.00611551
0.000203433
-0.00426943
-0.00553632
-0.00362835
0.00241136
0.0107151
0.0248449
0.0241842
0.0119474
0.00235063
-0.00466493
-0.00990885
-0.0113447
-0.00919354
-0.00251853
0.00669387
0.0222053
0.0178293
0.00273605
-0.00873933
-0.0170435
-0.0229489
-0.0242692
-0.0212087
-0.0129436
-0.00198588
0.0168575
0.00426769
-0.0132893
-0.0265598
-0.0357914
-0.0419131
-0.0424482
-0.0380796
-0.027048
-0.0134879
0.00944439
-0.0282697
-0.0494771
-0.0649144
-0.0749684
-0.0803732
-0.0787182
-0.0708814
-0.055076
-0.0360486
-0.00522184
0.0438057
0.0647654
0.0771685
0.0856823
0.0879586
0.0857447
0.0801835
0.0746106
0.0696806
0.0672777
0.0424069
0.0604794
0.0711481
0.0787163
0.0809255
0.0795003
0.0753876
0.0711649
0.0672818
0.064866
0.0413405
0.0573929
0.0669787
0.0737981
0.0759434
0.0748727
0.0713308
0.0674531
0.0634124
0.0598183
0.040506
0.0553264
0.0642232
0.070643
0.072681
0.0716591
0.0680879
0.0638965
0.0590132
0.0537492
0.0396406
0.0539407
0.0626283
0.0689583
0.0709566
0.06975
0.0656238
0.0605147
0.0541187
0.0465501
0.0387676
0.053708
0.0628839
0.0697405
0.0719292
0.0705082
0.0655801
0.0592655
0.0511162
0.0411806
0.0376113
0.0543842
0.0650223
0.0731342
0.0759699
0.0745689
0.0688244
0.0612438
0.051186
0.0388362
0.0354455
0.0563445
0.0696819
0.0807336
0.0853221
0.0845557
0.0782303
0.0691566
0.0568435
0.0412233
0.0323679
0.0585501
0.0758949
0.0913046
0.0985752
0.0994669
0.093257
0.0831008
0.0685752
0.0498359
0.025742
0.0618646
0.0874679
0.11143
0.125141
0.130474
0.12613
0.1152
0.0978303
0.0741953
-0.075345
-0.100269
-0.117395
-0.127333
-0.130419
-0.124699
-0.11163
-0.0888545
-0.0634062
-0.0233338
-0.15602
-0.186188
-0.204353
-0.212072
-0.208672
-0.194146
-0.171065
-0.136997
-0.101928
-0.0486534
-0.244362
-0.27889
-0.29694
-0.299414
-0.285679
-0.25864
-0.224177
-0.176608
-0.133038
-0.069041
-0.384263
-0.426012
-0.438825
-0.427836
-0.391099
-0.341279
-0.286247
-0.222207
-0.165476
-0.0896769
-0.559575
-0.608483
-0.606846
-0.568784
-0.494932
-0.413182
-0.334713
-0.2521
-0.185889
-0.101366
-0.826567
-0.877947
-0.833639
-0.73802
-0.600046
-0.473748
-0.367635
-0.268053
-0.193884
-0.104849
-1.29357
-1.30797
-1.13813
-0.921539
-0.683617
-0.504451
-0.373447
-0.262908
-0.186778
-0.0994696
-2.02789
-1.85376
-1.42017
-1.03766
-0.703376
-0.490438
-0.350623
-0.241435
-0.169706
-0.0897925
-3.70956
-2.59472
-1.61836
-1.03949
-0.645232
-0.429595
-0.300166
-0.204752
-0.144468
-0.0774454
-8.04226
-2.87105
-1.38188
-0.808324
-0.482034
-0.317893
-0.22381
-0.155764
-0.112982
-0.0644697
0.0168301
0.0648357
0.100355
0.136086
0.159246
0.172152
0.17233
0.162095
0.142535
0.113695
0.00368229
0.0682064
0.117925
0.172464
0.212342
0.240299
0.251517
0.245346
0.224745
0.188797
-0.00708317
0.0710143
0.132863
0.206441
0.264051
0.310885
0.337862
0.33969
0.320087
0.278655
-0.0173661
0.074379
0.153301
0.249524
0.33509
0.413212
0.471577
0.49203
0.480404
0.431472
-0.0225927
0.0790342
0.169215
0.288294
0.402947
0.520838
0.625376
0.67979
0.687373
0.632713
-0.0234393
0.0832307
0.182639
0.321373
0.468331
0.638256
0.817659
0.939372
0.998162
0.94556
-0.0206469
0.0847976
0.187079
0.338968
0.514568
0.744463
1.03605
1.29276
1.4923
1.48789
-0.0175731
0.0810473
0.179919
0.332252
0.519699
0.788828
1.18765
1.62533
2.11028
2.3153
-0.0158685
0.0706866
0.159197
0.300159
0.480147
0.757242
1.22656
1.87846
2.9408
4.14096
-0.0174197
0.0515345
0.124086
0.239646
0.387016
0.616439
1.02539
1.68566
3.30033
8.69487
)
;

boundaryField
{
    movingWall
    {
        type            zeroGradient;
    }
    fixedWalls
    {
        type            zeroGradient;
    }
    frontAndBack
    {
        type            empty;
    }
}


// ************************************************************************* //
