/*--------------------------------*- C++ -*----------------------------------*\
| =========                 |                                                 |
| \\      /  F ield         | OpenFOAM: The Open Source CFD Toolbox           |
|  \\    /   O peration     | Version:  2506                                  |
|   \\  /    A nd           | Website:  www.openfoam.com                      |
|    \\/     M anipulation  |                                                 |
\*---------------------------------------------------------------------------*/
FoamFile
{
    version     2.0;
    format      ascii;
    arch        "LSB;label=32;scalar=64";
    class       volVectorField;
    location    "0.8";
    object      U;
}
// * * * * * * * * * * * * * * * * * * * * * * * * * * * * * * * * * * * * * //

dimensions      [0 1 -1 0 0 0 0];

internalField   nonuniform List<vector> 
400
(
(4.77252e-05 -4.76214e-05 0)
(6.06417e-05 1.99637e-05 0)
(-0.000311337 0.000144604 0)
(-0.00115749 0.000261644 0)
(-0.00276691 0.000363244 0)
(-0.00476744 0.000416561 0)
(-0.00698505 0.000401372 0)
(-0.00931917 0.000355917 0)
(-0.0110075 0.000257493 0)
(-0.0122792 8.48988e-05 0)
(-1.77421e-05 -6.27685e-05 0)
(-0.000495187 0.000500157 0)
(-0.00192517 0.00137977 0)
(-0.00443898 0.00221974 0)
(-0.00886536 0.00298429 0)
(-0.0142636 0.00335713 0)
(-0.0200739 0.00332787 0)
(-0.0264408 0.00283969 0)
(-0.0309081 0.0020504 0)
(-0.0342504 0.000681599 0)
(-0.000141591 0.000302529 0)
(-0.00139082 0.00193796 0)
(-0.00412111 0.00408102 0)
(-0.00834679 0.0060931 0)
(-0.0153872 0.00794552 0)
(-0.0237076 0.00883242 0)
(-0.0325765 0.00872707 0)
(-0.0421147 0.00740316 0)
(-0.0489002 0.00533877 0)
(-0.0539626 0.00177211 0)
(-0.000268541 0.0011632 0)
(-0.00233853 0.00454537 0)
(-0.00643675 0.00839676 0)
(-0.0124124 0.0119178 0)
(-0.0219458 0.0151109 0)
(-0.0329585 0.0166075 0)
(-0.0444484 0.0162752 0)
(-0.0568176 0.0137601 0)
(-0.0655492 0.00992738 0)
(-0.0720717 0.00328962 0)
(-0.00041027 0.00291675 0)
(-0.00345998 0.00947043 0)
(-0.00925411 0.0161276 0)
(-0.0173851 0.0219168 0)
(-0.0299645 0.0270288 0)
(-0.0441303 0.0292603 0)
(-0.0587389 0.0284989 0)
(-0.0742288 0.0239683 0)
(-0.0850883 0.0172274 0)
(-0.093182 0.00571604 0)
(-0.000546807 0.00537964 0)
(-0.00452022 0.0162612 0)
(-0.0119557 0.0264831 0)
(-0.0222334 0.0350265 0)
(-0.0378068 0.0422746 0)
(-0.0550819 0.0451947 0)
(-0.0726075 0.043637 0)
(-0.0911437 0.0365177 0)
(-0.10393 0.026229 0)
(-0.113536 0.00873995 0)
(-0.000654251 0.00863627 0)
(-0.00556526 0.025018 0)
(-0.0146668 0.0397114 0)
(-0.0270513 0.0514652 0)
(-0.0457262 0.0611369 0)
(-0.0660712 0.0646006 0)
(-0.0865589 0.0619242 0)
(-0.107774 0.0515325 0)
(-0.122625 0.0368798 0)
(-0.133753 0.0124273 0)
(-0.000840684 0.0132529 0)
(-0.00684903 0.0377576 0)
(-0.0178852 0.0586147 0)
(-0.0328365 0.0748855 0)
(-0.0550594 0.0875882 0)
(-0.0790666 0.0915936 0)
(-0.102626 0.0868781 0)
(-0.127548 0.0719375 0)
(-0.144047 0.0517697 0)
(-0.156906 0.017618 0)
(-0.000989662 0.018304 0)
(-0.00803509 0.0513329 0)
(-0.0209231 0.0788613 0)
(-0.0382238 0.0996241 0)
(-0.063572 0.115172 0)
(-0.0905125 0.119129 0)
(-0.116785 0.112392 0)
(-0.143616 0.0920392 0)
(-0.161749 0.066192 0)
(-0.176084 0.0231219 0)
(-0.00120425 0.0263758 0)
(-0.00979234 0.072911 0)
(-0.0253155 0.110562 0)
(-0.0458031 0.137897 0)
(-0.0750338 0.156938 0)
(-0.105234 0.160183 0)
(-0.133867 0.149312 0)
(-0.162324 0.1217 0)
(-0.181408 0.0870446 0)
(-0.196427 0.0315247 0)
(-0.0122918 -8.09751e-05 0)
(-0.0110289 -0.000259 0)
(-0.00931866 -0.000362317 0)
(-0.00693866 -0.00040974 0)
(-0.0046843 -0.000422568 0)
(-0.0026685 -0.000363302 0)
(-0.00107496 -0.000255209 0)
(-0.000258902 -0.000135436 0)
(8.04092e-05 -1.23711e-05 0)
(4.90304e-05 4.89627e-05 0)
(-0.0342727 -0.000658898 0)
(-0.0309389 -0.00206426 0)
(-0.0264176 -0.00288598 0)
(-0.019946 -0.00338774 0)
(-0.0140536 -0.00339793 0)
(-0.00862336 -0.00298346 0)
(-0.00423332 -0.00217429 0)
(-0.00178813 -0.00131475 0)
(-0.000434925 -0.00044365 0)
(-9.53218e-06 8.31544e-05 0)
(-0.0539906 -0.00172462 0)
(-0.0489371 -0.00537582 0)
(-0.0420782 -0.00751501 0)
(-0.0323986 -0.00886983 0)
(-0.0234172 -0.00892944 0)
(-0.0150489 -0.00794424 0)
(-0.00805283 -0.00598514 0)
(-0.00391886 -0.00392356 0)
(-0.00129762 -0.00179415 0)
(-0.000128215 -0.000241419 0)
(-0.07212 -0.00320455 0)
(-0.065637 -0.00998929 0)
(-0.0568309 -0.0139526 0)
(-0.0442934 -0.0165254 0)
(-0.0326564 -0.0167836 0)
(-0.0215658 -0.0151188 0)
(-0.0120646 -0.0117376 0)
(-0.00618884 -0.00812256 0)
(-0.00222036 -0.00428361 0)
(-0.000251003 -0.0010443 0)
(-0.0933025 -0.00552192 0)
(-0.0853774 -0.0172887 0)
(-0.0744842 -0.0242665 0)
(-0.058801 -0.0289236 0)
(-0.0439781 -0.0295882 0)
(-0.0296543 -0.027094 0)
(-0.0170431 -0.0216653 0)
(-0.00898752 -0.0156993 0)
(-0.00332455 -0.00903575 0)
(-0.000389102 -0.00270697 0)
(-0.113813 -0.0082683 0)
(-0.104668 -0.0261859 0)
(-0.0919637 -0.0368927 0)
(-0.0732243 -0.0442941 0)
(-0.0553785 -0.0457822 0)
(-0.0377914 -0.0425143 0)
(-0.0220357 -0.0347912 0)
(-0.0117454 -0.0259457 0)
(-0.00439489 -0.0156585 0)
(-0.000524794 -0.0050707 0)
(-0.134306 -0.011343 0)
(-0.124165 -0.0365072 0)
(-0.109625 -0.0519022 0)
(-0.0882388 -0.0628935 0)
(-0.0672766 -0.0656322 0)
(-0.0463644 -0.0617814 0)
(-0.0272255 -0.0514479 0)
(-0.0146399 -0.0392073 0)
(-0.0054989 -0.0243157 0)
(-0.000637606 -0.00823421 0)
(-0.157965 -0.0150932 0)
(-0.147111 -0.0505055 0)
(-0.131386 -0.0720373 0)
(-0.106391 -0.0883102 0)
(-0.0821451 -0.0934968 0)
(-0.0571114 -0.0891947 0)
(-0.0338805 -0.0756174 0)
(-0.0183248 -0.0585468 0)
(-0.0069532 -0.0371842 0)
(-0.000842763 -0.0128286 0)
(-0.177763 -0.0183677 0)
(-0.166657 -0.0634429 0)
(-0.149904 -0.0915402 0)
(-0.123313 -0.114303 0)
(-0.0961206 -0.122219 0)
(-0.06763 -0.118297 0)
(-0.0405599 -0.101745 0)
(-0.02209 -0.0798096 0)
(-0.00841798 -0.0512926 0)
(-0.00102521 -0.0180025 0)
(-0.199081 -0.0220124 0)
(-0.189301 -0.080843 0)
(-0.172779 -0.119505 0)
(-0.145167 -0.151773 0)
(-0.11546 -0.165527 0)
(-0.0829152 -0.163344 0)
(-0.0507321 -0.143401 0)
(-0.0279956 -0.11429 0)
(-0.0107812 -0.0746124 0)
(-0.0013157 -0.0266266 0)
(-0.0014502 0.0350963 0)
(-0.0116739 0.0959312 0)
(-0.0297921 0.14367 0)
(-0.0530869 0.176884 0)
(-0.0851527 0.198062 0)
(-0.116826 0.199076 0)
(-0.145479 0.183084 0)
(-0.172638 0.147525 0)
(-0.190308 0.105307 0)
(-0.204311 0.0393602 0)
(-0.00185215 0.0470325 0)
(-0.0144696 0.126932 0)
(-0.0359587 0.186638 0)
(-0.0621786 0.225373 0)
(-0.0957375 0.246096 0)
(-0.125811 0.241454 0)
(-0.150109 0.21729 0)
(-0.170598 0.171812 0)
(-0.182435 0.122217 0)
(-0.191904 0.0470166 0)
(-0.00229068 0.0582848 0)
(-0.0174748 0.154755 0)
(-0.0420634 0.223364 0)
(-0.069924 0.263844 0)
(-0.102095 0.28026 0)
(-0.126713 0.26761 0)
(-0.142767 0.235493 0)
(-0.153099 0.182043 0)
(-0.156887 0.128649 0)
(-0.159235 0.050372 0)
(-0.00298369 0.074536 0)
(-0.022564 0.191833 0)
(-0.0513751 0.268429 0)
(-0.0794144 0.305681 0)
(-0.104506 0.310059 0)
(-0.115525 0.283894 0)
(-0.115307 0.240863 0)
(-0.106359 0.181275 0)
(-0.0967319 0.125021 0)
(-0.0883754 0.0499454 0)
(-0.00433524 0.0920362 0)
(-0.0298273 0.230381 0)
(-0.0621312 0.308131 0)
(-0.0862382 0.334399 0)
(-0.0960498 0.319858 0)
(-0.0860526 0.278357 0)
(-0.0641678 0.226611 0)
(-0.0342741 0.164508 0)
(-0.0108224 0.111668 0)
(0.00863038 0.0447011 0)
(-0.00674441 0.117796 0)
(-0.0417512 0.276991 0)
(-0.0744979 0.343716 0)
(-0.0842756 0.345587 0)
(-0.0641058 0.303907 0)
(-0.0224299 0.247276 0)
(0.0258808 0.191316 0)
(0.0783484 0.133307 0)
(0.114844 0.0882629 0)
(0.14354 0.0351499 0)
(-0.0124534 0.157996 0)
(-0.0605125 0.32974 0)
(-0.0776775 0.357768 0)
(-0.0491978 0.31864 0)
(0.0216794 0.248893 0)
(0.101671 0.186057 0)
(0.175173 0.135432 0)
(0.243624 0.0900824 0)
(0.287066 0.0581772 0)
(0.319914 0.0227899 0)
(-0.0240356 0.212348 0)
(-0.0742183 0.360757 0)
(-0.0403442 0.32393 0)
(0.0465772 0.249518 0)
(0.165804 0.172349 0)
(0.26884 0.119157 0)
(0.349547 0.0826066 0)
(0.41899 0.0529502 0)
(0.460785 0.0333792 0)
(0.491173 0.0127936 0)
(-0.0508733 0.292832 0)
(-0.0241408 0.320563 0)
(0.127195 0.210546 0)
(0.275942 0.133485 0)
(0.414656 0.0804226 0)
(0.511176 0.0515366 0)
(0.578582 0.0340797 0)
(0.63152 0.021181 0)
(0.662363 0.0130796 0)
(0.684282 0.00484505 0)
(0.0725385 0.276702 0)
(0.40852 0.105204 0)
(0.603493 0.0408652 0)
(0.708029 0.0207993 0)
(0.78042 0.011012 0)
(0.823865 0.00671722 0)
(0.850808 0.00415499 0)
(0.872359 0.00261347 0)
(0.884081 0.00158301 0)
(0.891922 0.000548558 0)
(-0.207698 -0.0238515 0)
(-0.200589 -0.0944867 0)
(-0.186641 -0.142619 0)
(-0.161302 -0.185592 0)
(-0.131803 -0.20686 0)
(-0.0972804 -0.208699 0)
(-0.0610935 -0.187266 0)
(-0.0343606 -0.151767 0)
(-0.0134541 -0.100646 0)
(-0.00166545 -0.03643 0)
(-0.195385 -0.0236414 0)
(-0.193425 -0.104765 0)
(-0.186248 -0.162181 0)
(-0.169087 -0.218606 0)
(-0.145026 -0.251619 0)
(-0.112401 -0.262411 0)
(-0.0739479 -0.243331 0)
(-0.0430375 -0.202141 0)
(-0.0173778 -0.137181 0)
(-0.00222845 -0.0505078 0)
(-0.161834 -0.0217213 0)
(-0.165606 -0.106214 0)
(-0.166378 -0.168116 0)
(-0.160411 -0.234442 0)
(-0.146179 -0.278231 0)
(-0.120424 -0.300397 0)
(-0.0838686 -0.288305 0)
(-0.0509132 -0.246004 0)
(-0.0212788 -0.17077 0)
(-0.00280383 -0.0641645 0)
(-0.0887533 -0.0181802 0)
(-0.0988892 -0.0984831 0)
(-0.111419 -0.162754 0)
(-0.125094 -0.23546 0)
(-0.129313 -0.292361 0)
(-0.120343 -0.331978 0)
(-0.0935253 -0.336426 0)
(-0.0612812 -0.299514 0)
(-0.0271466 -0.215538 0)
(-0.00361977 -0.0839138 0)
(0.0109348 -0.0142714 0)
(-0.00469798 -0.0848008 0)
(-0.027838 -0.143564 0)
(-0.0608741 -0.216783 0)
(-0.0880207 -0.282093 0)
(-0.103606 -0.339266 0)
(-0.0966226 -0.367186 0)
(-0.0710732 -0.344875 0)
(-0.0345741 -0.260769 0)
(-0.0050782 -0.104753 0)
(0.148422 -0.0101964 0)
(0.12941 -0.0649165 0)
(0.0975556 -0.113116 0)
(0.0457484 -0.178195 0)
(-0.00677388 -0.24468 0)
(-0.0564305 -0.316243 0)
(-0.0852409 -0.374714 0)
(-0.0793014 -0.381917 0)
(-0.0456913 -0.312547 0)
(-0.00750257 -0.134009 0)
(0.326149 -0.00641359 0)
(0.306606 -0.0419426 0)
(0.271562 -0.0745658 0)
(0.209033 -0.122534 0)
(0.135595 -0.178564 0)
(0.0495154 -0.251478 0)
(-0.033489 -0.336871 0)
(-0.0727237 -0.389458 0)
(-0.061625 -0.366033 0)
(-0.0131184 -0.177093 0)
(0.49693 -0.00377738 0)
(0.479343 -0.0240169 0)
(0.446774 -0.0433101 0)
(0.386178 -0.0732155 0)
(0.309998 -0.111437 0)
(0.206324 -0.169136 0)
(0.0782156 -0.256115 0)
(-0.0221532 -0.343078 0)
(-0.0697953 -0.390882 0)
(-0.0244851 -0.232583 0)
(0.688103 -0.00163032 0)
(0.674988 -0.00958669 0)
(0.651111 -0.0173389 0)
(0.606157 -0.0298633 0)
(0.545095 -0.0472366 0)
(0.453116 -0.0767719 0)
(0.314162 -0.132463 0)
(0.158119 -0.215091 0)
(-0.00902918 -0.335557 0)
(-0.0501556 -0.310443 0)
(0.893082 -0.000236752 0)
(0.88799 -0.00122395 0)
(0.878627 -0.00219523 0)
(0.860112 -0.00367538 0)
(0.83604 -0.0061419 0)
(0.795714 -0.0103811 0)
(0.726242 -0.0201444 0)
(0.623252 -0.0402418 0)
(0.426096 -0.105539 0)
(0.0790266 -0.282021 0)
)
;

boundaryField
{
    movingWall
    {
        type            fixedValue;
        value           uniform (1 0 0);
    }
    fixedWalls
    {
        type            noSlip;
    }
    frontAndBack
    {
        type            empty;
    }
}


// ************************************************************************* //
