/*--------------------------------*- C++ -*----------------------------------*\
| =========                 |                                                 |
| \\      /  F ield         | OpenFOAM: The Open Source CFD Toolbox           |
|  \\    /   O peration     | Version:  2506                                  |
|   \\  /    A nd           | Website:  www.openfoam.com                      |
|    \\/     M anipulation  |                                                 |
\*---------------------------------------------------------------------------*/
FoamFile
{
    version     2.0;
    format      ascii;
    arch        "LSB;label=32;scalar=64";
    class       volScalarField;
    location    "0.8";
    object      Ux;
}
// * * * * * * * * * * * * * * * * * * * * * * * * * * * * * * * * * * * * * //

dimensions      [0 1 -1 0 0 0 0];

internalField   nonuniform List<scalar> 
400
(
4.77252e-05
6.06417e-05
-0.000311337
-0.00115749
-0.00276691
-0.00476744
-0.00698505
-0.00931917
-0.0110075
-0.0122792
-1.77421e-05
-0.000495187
-0.00192517
-0.00443898
-0.00886536
-0.0142636
-0.0200739
-0.0264408
-0.0309081
-0.0342504
-0.000141591
-0.00139082
-0.00412111
-0.00834679
-0.0153872
-0.0237076
-0.0325765
-0.0421147
-0.0489002
-0.0539626
-0.000268541
-0.00233853
-0.00643675
-0.0124124
-0.0219458
-0.0329585
-0.0444484
-0.0568176
-0.0655492
-0.0720717
-0.00041027
-0.00345998
-0.00925411
-0.0173851
-0.0299645
-0.0441303
-0.0587389
-0.0742288
-0.0850883
-0.093182
-0.000546807
-0.00452022
-0.0119557
-0.0222334
-0.0378068
-0.0550819
-0.0726075
-0.0911437
-0.10393
-0.113536
-0.000654251
-0.00556526
-0.0146668
-0.0270513
-0.0457262
-0.0660712
-0.0865589
-0.107774
-0.122625
-0.133753
-0.000840684
-0.00684903
-0.0178852
-0.0328365
-0.0550594
-0.0790666
-0.102626
-0.127548
-0.144047
-0.156906
-0.000989662
-0.00803509
-0.0209231
-0.0382238
-0.063572
-0.0905125
-0.116785
-0.143616
-0.161749
-0.176084
-0.00120425
-0.00979234
-0.0253155
-0.0458031
-0.0750338
-0.105234
-0.133867
-0.162324
-0.181408
-0.196427
-0.0122918
-0.0110289
-0.00931866
-0.00693866
-0.0046843
-0.0026685
-0.00107496
-0.000258902
8.04092e-05
4.90304e-05
-0.0342727
-0.0309389
-0.0264176
-0.019946
-0.0140536
-0.00862336
-0.00423332
-0.00178813
-0.000434925
-9.53218e-06
-0.0539906
-0.0489371
-0.0420782
-0.0323986
-0.0234172
-0.0150489
-0.00805283
-0.00391886
-0.00129762
-0.000128215
-0.07212
-0.065637
-0.0568309
-0.0442934
-0.0326564
-0.0215658
-0.0120646
-0.00618884
-0.00222036
-0.000251003
-0.0933025
-0.0853774
-0.0744842
-0.058801
-0.0439781
-0.0296543
-0.0170431
-0.00898752
-0.00332455
-0.000389102
-0.113813
-0.104668
-0.0919637
-0.0732243
-0.0553785
-0.0377914
-0.0220357
-0.0117454
-0.00439489
-0.000524794
-0.134306
-0.124165
-0.109625
-0.0882388
-0.0672766
-0.0463644
-0.0272255
-0.0146399
-0.0054989
-0.000637606
-0.157965
-0.147111
-0.131386
-0.106391
-0.0821451
-0.0571114
-0.0338805
-0.0183248
-0.0069532
-0.000842763
-0.177763
-0.166657
-0.149904
-0.123313
-0.0961206
-0.06763
-0.0405599
-0.02209
-0.00841798
-0.00102521
-0.199081
-0.189301
-0.172779
-0.145167
-0.11546
-0.0829152
-0.0507321
-0.0279956
-0.0107812
-0.0013157
-0.0014502
-0.0116739
-0.0297921
-0.0530869
-0.0851527
-0.116826
-0.145479
-0.172638
-0.190308
-0.204311
-0.00185215
-0.0144696
-0.0359587
-0.0621786
-0.0957375
-0.125811
-0.150109
-0.170598
-0.182435
-0.191904
-0.00229068
-0.0174748
-0.0420634
-0.069924
-0.102095
-0.126713
-0.142767
-0.153099
-0.156887
-0.159235
-0.00298369
-0.022564
-0.0513751
-0.0794144
-0.104506
-0.115525
-0.115307
-0.106359
-0.0967319
-0.0883754
-0.00433524
-0.0298273
-0.0621312
-0.0862382
-0.0960498
-0.0860526
-0.0641678
-0.0342741
-0.0108224
0.00863038
-0.00674441
-0.0417512
-0.0744979
-0.0842756
-0.0641058
-0.0224299
0.0258808
0.0783484
0.114844
0.14354
-0.0124534
-0.0605125
-0.0776775
-0.0491978
0.0216794
0.101671
0.175173
0.243624
0.287066
0.319914
-0.0240356
-0.0742183
-0.0403442
0.0465772
0.165804
0.26884
0.349547
0.41899
0.460785
0.491173
-0.0508733
-0.0241408
0.127195
0.275942
0.414656
0.511176
0.578582
0.63152
0.662363
0.684282
0.0725385
0.40852
0.603493
0.708029
0.78042
0.823865
0.850808
0.872359
0.884081
0.891922
-0.207698
-0.200589
-0.186641
-0.161302
-0.131803
-0.0972804
-0.0610935
-0.0343606
-0.0134541
-0.00166545
-0.195385
-0.193425
-0.186248
-0.169087
-0.145026
-0.112401
-0.0739479
-0.0430375
-0.0173778
-0.00222845
-0.161834
-0.165606
-0.166378
-0.160411
-0.146179
-0.120424
-0.0838686
-0.0509132
-0.0212788
-0.00280383
-0.0887533
-0.0988892
-0.111419
-0.125094
-0.129313
-0.120343
-0.0935253
-0.0612812
-0.0271466
-0.00361977
0.0109348
-0.00469798
-0.027838
-0.0608741
-0.0880207
-0.103606
-0.0966226
-0.0710732
-0.0345741
-0.0050782
0.148422
0.12941
0.0975556
0.0457484
-0.00677388
-0.0564305
-0.0852409
-0.0793014
-0.0456913
-0.00750257
0.326149
0.306606
0.271562
0.209033
0.135595
0.0495154
-0.033489
-0.0727237
-0.061625
-0.0131184
0.49693
0.479343
0.446774
0.386178
0.309998
0.206324
0.0782156
-0.0221532
-0.0697953
-0.0244851
0.688103
0.674988
0.651111
0.606157
0.545095
0.453116
0.314162
0.158119
-0.00902918
-0.0501556
0.893082
0.88799
0.878627
0.860112
0.83604
0.795714
0.726242
0.623252
0.426096
0.0790266
)
;

boundaryField
{
    movingWall
    {
        type            calculated;
        value           uniform 1;
    }
    fixedWalls
    {
        type            calculated;
        value           uniform 0;
    }
    frontAndBack
    {
        type            empty;
    }
}


// ************************************************************************* //
