/*--------------------------------*- C++ -*----------------------------------*\
| =========                 |                                                 |
| \\      /  F ield         | OpenFOAM: The Open Source CFD Toolbox           |
|  \\    /   O peration     | Version:  2506                                  |
|   \\  /    A nd           | Website:  www.openfoam.com                      |
|    \\/     M anipulation  |                                                 |
\*---------------------------------------------------------------------------*/
FoamFile
{
    version     2.0;
    format      ascii;
    arch        "LSB;label=32;scalar=64";
    class       volScalarField;
    location    "0.8";
    object      Uy;
}
// * * * * * * * * * * * * * * * * * * * * * * * * * * * * * * * * * * * * * //

dimensions      [0 1 -1 0 0 0 0];

internalField   nonuniform List<scalar> 
400
(
-4.76214e-05
1.99637e-05
0.000144604
0.000261644
0.000363244
0.000416561
0.000401372
0.000355917
0.000257493
8.48988e-05
-6.27685e-05
0.000500157
0.00137977
0.00221974
0.00298429
0.00335713
0.00332787
0.00283969
0.0020504
0.000681599
0.000302529
0.00193796
0.00408102
0.0060931
0.00794552
0.00883242
0.00872707
0.00740316
0.00533877
0.00177211
0.0011632
0.00454537
0.00839676
0.0119178
0.0151109
0.0166075
0.0162752
0.0137601
0.00992738
0.00328962
0.00291675
0.00947043
0.0161276
0.0219168
0.0270288
0.0292603
0.0284989
0.0239683
0.0172274
0.00571604
0.00537964
0.0162612
0.0264831
0.0350265
0.0422746
0.0451947
0.043637
0.0365177
0.026229
0.00873995
0.00863627
0.025018
0.0397114
0.0514652
0.0611369
0.0646006
0.0619242
0.0515325
0.0368798
0.0124273
0.0132529
0.0377576
0.0586147
0.0748855
0.0875882
0.0915936
0.0868781
0.0719375
0.0517697
0.017618
0.018304
0.0513329
0.0788613
0.0996241
0.115172
0.119129
0.112392
0.0920392
0.066192
0.0231219
0.0263758
0.072911
0.110562
0.137897
0.156938
0.160183
0.149312
0.1217
0.0870446
0.0315247
-8.09751e-05
-0.000259
-0.000362317
-0.00040974
-0.000422568
-0.000363302
-0.000255209
-0.000135436
-1.23711e-05
4.89627e-05
-0.000658898
-0.00206426
-0.00288598
-0.00338774
-0.00339793
-0.00298346
-0.00217429
-0.00131475
-0.00044365
8.31544e-05
-0.00172462
-0.00537582
-0.00751501
-0.00886983
-0.00892944
-0.00794424
-0.00598514
-0.00392356
-0.00179415
-0.000241419
-0.00320455
-0.00998929
-0.0139526
-0.0165254
-0.0167836
-0.0151188
-0.0117376
-0.00812256
-0.00428361
-0.0010443
-0.00552192
-0.0172887
-0.0242665
-0.0289236
-0.0295882
-0.027094
-0.0216653
-0.0156993
-0.00903575
-0.00270697
-0.0082683
-0.0261859
-0.0368927
-0.0442941
-0.0457822
-0.0425143
-0.0347912
-0.0259457
-0.0156585
-0.0050707
-0.011343
-0.0365072
-0.0519022
-0.0628935
-0.0656322
-0.0617814
-0.0514479
-0.0392073
-0.0243157
-0.00823421
-0.0150932
-0.0505055
-0.0720373
-0.0883102
-0.0934968
-0.0891947
-0.0756174
-0.0585468
-0.0371842
-0.0128286
-0.0183677
-0.0634429
-0.0915402
-0.114303
-0.122219
-0.118297
-0.101745
-0.0798096
-0.0512926
-0.0180025
-0.0220124
-0.080843
-0.119505
-0.151773
-0.165527
-0.163344
-0.143401
-0.11429
-0.0746124
-0.0266266
0.0350963
0.0959312
0.14367
0.176884
0.198062
0.199076
0.183084
0.147525
0.105307
0.0393602
0.0470325
0.126932
0.186638
0.225373
0.246096
0.241454
0.21729
0.171812
0.122217
0.0470166
0.0582848
0.154755
0.223364
0.263844
0.28026
0.26761
0.235493
0.182043
0.128649
0.050372
0.074536
0.191833
0.268429
0.305681
0.310059
0.283894
0.240863
0.181275
0.125021
0.0499454
0.0920362
0.230381
0.308131
0.334399
0.319858
0.278357
0.226611
0.164508
0.111668
0.0447011
0.117796
0.276991
0.343716
0.345587
0.303907
0.247276
0.191316
0.133307
0.0882629
0.0351499
0.157996
0.32974
0.357768
0.31864
0.248893
0.186057
0.135432
0.0900824
0.0581772
0.0227899
0.212348
0.360757
0.32393
0.249518
0.172349
0.119157
0.0826066
0.0529502
0.0333792
0.0127936
0.292832
0.320563
0.210546
0.133485
0.0804226
0.0515366
0.0340797
0.021181
0.0130796
0.00484505
0.276702
0.105204
0.0408652
0.0207993
0.011012
0.00671722
0.00415499
0.00261347
0.00158301
0.000548558
-0.0238515
-0.0944867
-0.142619
-0.185592
-0.20686
-0.208699
-0.187266
-0.151767
-0.100646
-0.03643
-0.0236414
-0.104765
-0.162181
-0.218606
-0.251619
-0.262411
-0.243331
-0.202141
-0.137181
-0.0505078
-0.0217213
-0.106214
-0.168116
-0.234442
-0.278231
-0.300397
-0.288305
-0.246004
-0.17077
-0.0641645
-0.0181802
-0.0984831
-0.162754
-0.23546
-0.292361
-0.331978
-0.336426
-0.299514
-0.215538
-0.0839138
-0.0142714
-0.0848008
-0.143564
-0.216783
-0.282093
-0.339266
-0.367186
-0.344875
-0.260769
-0.104753
-0.0101964
-0.0649165
-0.113116
-0.178195
-0.24468
-0.316243
-0.374714
-0.381917
-0.312547
-0.134009
-0.00641359
-0.0419426
-0.0745658
-0.122534
-0.178564
-0.251478
-0.336871
-0.389458
-0.366033
-0.177093
-0.00377738
-0.0240169
-0.0433101
-0.0732155
-0.111437
-0.169136
-0.256115
-0.343078
-0.390882
-0.232583
-0.00163032
-0.00958669
-0.0173389
-0.0298633
-0.0472366
-0.0767719
-0.132463
-0.215091
-0.335557
-0.310443
-0.000236752
-0.00122395
-0.00219523
-0.00367538
-0.0061419
-0.0103811
-0.0201444
-0.0402418
-0.105539
-0.282021
)
;

boundaryField
{
    movingWall
    {
        type            calculated;
        value           uniform 0;
    }
    fixedWalls
    {
        type            calculated;
        value           uniform 0;
    }
    frontAndBack
    {
        type            empty;
    }
}


// ************************************************************************* //
