/*--------------------------------*- C++ -*----------------------------------*\
| =========                 |                                                 |
| \\      /  F ield         | OpenFOAM: The Open Source CFD Toolbox           |
|  \\    /   O peration     | Version:  2506                                  |
|   \\  /    A nd           | Website:  www.openfoam.com                      |
|    \\/     M anipulation  |                                                 |
\*---------------------------------------------------------------------------*/
FoamFile
{
    version     2.0;
    format      ascii;
    arch        "LSB;label=32;scalar=64";
    class       volVectorField;
    location    "9.5";
    object      ddtU;
}
// * * * * * * * * * * * * * * * * * * * * * * * * * * * * * * * * * * * * * //

dimensions      [0 1 -2 0 0 0 0];

internalField   nonuniform List<vector> 
400
(
(4.44089e-14 -5.25939e-14 0)
(-1.33227e-13 -2.56047e-14 0)
(-4.44089e-14 -1.68323e-14 0)
(-1.11022e-13 7.67562e-15 0)
(-2.22045e-14 5.88407e-15 0)
(-6.66134e-14 -2.19586e-15 0)
(-2.22045e-14 -9.71069e-15 0)
(-2.22045e-14 -1.25172e-14 0)
(0 -9.32926e-15 0)
(0 -7.70959e-15 0)
(-2.22045e-14 5.92656e-15 0)
(-6.66134e-14 1.47257e-14 0)
(-4.44089e-14 8.43139e-15 0)
(-6.66134e-14 -1.00913e-14 0)
(-4.44089e-14 -7.45239e-15 0)
(0 -1.03808e-14 0)
(0 -1.13095e-15 0)
(-2.22045e-14 6.69333e-15 0)
(0 -5.44548e-15 0)
(0 -1.48342e-14 0)
(-6.66134e-14 -1.40752e-13 0)
(0 -7.55207e-14 0)
(0 -1.80359e-14 0)
(-4.44089e-14 -2.66285e-15 0)
(4.44089e-14 -1.02842e-14 0)
(-4.44089e-14 -2.07539e-14 0)
(-8.88178e-14 -2.59258e-14 0)
(0 -1.23338e-14 0)
(0 -2.16098e-15 0)
(0 2.0426e-14 0)
(-4.44089e-14 2.41819e-14 0)
(0 -1.82685e-15 0)
(4.44089e-14 6.87543e-15 0)
(4.44089e-14 6.34955e-15 0)
(-4.44089e-14 -1.25922e-14 0)
(-4.44089e-14 -2.49182e-14 0)
(0 -9.60618e-15 0)
(-4.44089e-14 -4.45749e-15 0)
(0 -8.17319e-15 0)
(4.44089e-14 -5.97391e-15 0)
(0 -1.26811e-13 0)
(-6.66134e-14 -8.08249e-14 0)
(-4.44089e-14 -1.59043e-14 0)
(-4.44089e-14 -1.27282e-14 0)
(-4.44089e-14 -4.14723e-15 0)
(-2.22045e-14 -1.52892e-14 0)
(-2.22045e-14 -8.84065e-15 0)
(-1.11022e-13 -5.50267e-17 0)
(-8.88178e-14 -3.23512e-15 0)
(-4.44089e-14 8.84195e-15 0)
(0 -1.17586e-14 0)
(4.44089e-14 -2.92984e-14 0)
(-4.44089e-14 -6.57859e-15 0)
(4.44089e-14 2.81992e-14 0)
(2.22045e-14 2.37346e-14 0)
(0 3.70434e-15 0)
(-2.22045e-14 -2.20941e-14 0)
(2.22045e-14 -2.26088e-14 0)
(-2.22045e-14 -3.85458e-15 0)
(0 8.5983e-15 0)
(4.44089e-14 -4.49861e-14 0)
(-6.66134e-14 -5.1965e-14 0)
(-4.44089e-14 -5.09515e-14 0)
(0 -1.86804e-14 0)
(0 -1.98203e-15 0)
(0 -2.83166e-15 0)
(-2.22045e-14 -2.39744e-15 0)
(4.44089e-14 -9.11888e-15 0)
(2.22045e-14 -8.40334e-15 0)
(4.44089e-14 -2.65273e-14 0)
(4.44089e-14 -3.42983e-14 0)
(0 -1.46888e-14 0)
(0 -6.74973e-15 0)
(0 6.56618e-15 0)
(0 1.20849e-14 0)
(6.66134e-14 1.15058e-14 0)
(2.22045e-14 -2.4981e-15 0)
(-2.22045e-14 -3.48402e-15 0)
(0 -4.51276e-15 0)
(0 -1.63384e-15 0)
(-2.22045e-14 -3.90036e-14 0)
(0 -4.38535e-14 0)
(-6.66134e-14 -5.8588e-14 0)
(-4.44089e-14 -4.17409e-14 0)
(0 -3.36077e-14 0)
(6.66134e-14 -1.6049e-14 0)
(0 -1.41144e-14 0)
(-2.22045e-14 -1.78767e-14 0)
(-2.22045e-14 -9.99383e-15 0)
(-2.22045e-14 -2.93245e-15 0)
(-6.66134e-14 -4.76898e-15 0)
(0 -1.91518e-14 0)
(-4.44089e-14 -9.15551e-15 0)
(0 -1.16181e-15 0)
(-2.22045e-14 -1.45787e-14 0)
(0 -1.20597e-14 0)
(-2.22045e-14 9.66808e-15 0)
(4.44089e-14 1.36089e-14 0)
(-4.44089e-14 4.03895e-15 0)
(2.22045e-14 -2.31923e-15 0)
(1.33227e-13 -9.33953e-14 0)
(0 -1.99652e-14 0)
(-6.66134e-14 -3.54408e-14 0)
(-4.44089e-14 -3.48169e-14 0)
(-6.66134e-14 -2.41433e-14 0)
(-6.66134e-14 -9.83335e-15 0)
(-6.66134e-14 1.46255e-15 0)
(-4.44089e-14 -6.4084e-15 0)
(-6.66134e-14 -2.2801e-14 0)
(-4.44089e-14 -1.58774e-14 0)
(4.44089e-14 -2.34209e-14 0)
(0 -1.5071e-14 0)
(0 -7.6499e-16 0)
(-4.44089e-14 -3.16501e-15 0)
(-6.66134e-14 -7.8736e-15 0)
(-2.22045e-14 -1.03464e-14 0)
(-2.22045e-14 -7.63154e-15 0)
(0 2.23693e-15 0)
(0 1.59189e-15 0)
(0 -4.03069e-15 0)
(0 2.24306e-14 0)
(0 -2.08168e-14 0)
(2.22045e-14 -6.2219e-15 0)
(-2.22045e-14 -1.65214e-14 0)
(-4.44089e-14 -1.42312e-14 0)
(-2.22045e-14 -1.26847e-14 0)
(-4.44089e-14 -1.06547e-14 0)
(2.22045e-14 -7.44512e-16 0)
(4.44089e-14 -1.289e-14 0)
(0 -4.18871e-14 0)
(-2.22045e-14 -5.24314e-14 0)
(-4.44089e-14 -2.31117e-14 0)
(0 5.27042e-15 0)
(2.22045e-14 1.36246e-14 0)
(2.22045e-14 4.46247e-15 0)
(2.22045e-14 -6.24053e-16 0)
(-2.22045e-14 -2.32664e-14 0)
(-2.22045e-14 -2.46595e-14 0)
(0 -1.26052e-14 0)
(0 -7.03803e-15 0)
(-6.66134e-14 -9.53165e-14 0)
(0 -3.76077e-15 0)
(-4.44089e-14 -1.45969e-14 0)
(4.44089e-14 -2.70791e-14 0)
(0 -1.59152e-14 0)
(0 -2.32963e-14 0)
(4.44089e-14 -3.35114e-14 0)
(0 -1.33754e-14 0)
(0 -3.93069e-15 0)
(0 -2.3496e-14 0)
(0 -2.27938e-14 0)
(-6.66134e-14 -1.64756e-14 0)
(-1.11022e-13 -1.36784e-14 0)
(-4.44089e-14 -1.11583e-14 0)
(4.44089e-14 -8.53162e-15 0)
(4.44089e-14 -4.84608e-15 0)
(4.44089e-14 -1.36142e-15 0)
(-2.22045e-14 -1.39143e-14 0)
(-2.22045e-14 -2.25778e-14 0)
(0 -2.10106e-14 0)
(4.44089e-14 -7.9513e-14 0)
(-2.22045e-14 -2.17303e-14 0)
(6.66134e-14 -3.33647e-14 0)
(-2.22045e-14 -2.49366e-14 0)
(0 -3.19489e-14 0)
(2.22045e-14 -3.35547e-14 0)
(-2.22045e-14 -1.90092e-14 0)
(-6.66134e-14 5.6488e-16 0)
(-4.44089e-14 -9.84578e-16 0)
(-4.44089e-14 -2.57572e-14 0)
(-4.44089e-14 -1.39628e-14 0)
(-2.22045e-14 1.71956e-14 0)
(0 7.21129e-16 0)
(0 -3.54697e-14 0)
(-2.22045e-14 -3.17045e-14 0)
(2.22045e-14 -1.9461e-14 0)
(-2.22045e-14 -1.85296e-15 0)
(4.44089e-14 -2.15059e-15 0)
(2.22045e-14 -2.29155e-14 0)
(0 -2.60561e-14 0)
(1.11022e-13 3.44765e-14 0)
(4.44089e-14 -3.76356e-14 0)
(0 -1.26621e-14 0)
(-4.44089e-14 -7.95037e-15 0)
(-2.22045e-14 -3.14273e-14 0)
(-4.44089e-14 -2.34594e-14 0)
(-4.44089e-14 -3.388e-15 0)
(-8.88178e-14 -1.20862e-14 0)
(0 -1.81662e-14 0)
(2.22045e-14 -9.71962e-15 0)
(-8.88178e-14 -1.22672e-14 0)
(-4.44089e-14 -6.09221e-15 0)
(0 -6.09238e-15 0)
(-4.44089e-14 -8.7197e-15 0)
(4.44089e-14 -9.72608e-15 0)
(0 -1.29707e-14 0)
(0 -2.43707e-14 0)
(0 -2.73897e-14 0)
(0 -1.30839e-14 0)
(4.44089e-14 -1.91945e-14 0)
(-4.44089e-14 -1.8625e-13 0)
(2.22045e-14 3.19971e-14 0)
(-4.44089e-14 -2.78668e-14 0)
(6.66134e-14 -1.95238e-14 0)
(6.66134e-14 -1.20645e-14 0)
(0 1.11537e-14 0)
(4.44089e-14 8.38863e-16 0)
(0 -3.19099e-14 0)
(-4.44089e-14 -3.75671e-14 0)
(2.22045e-14 1.0811e-14 0)
(4.44089e-14 1.04427e-14 0)
(2.22045e-14 -9.80433e-15 0)
(2.22045e-14 -2.72651e-14 0)
(0 -1.53486e-14 0)
(-2.22045e-14 -1.15985e-15 0)
(0 -1.69439e-14 0)
(2.22045e-14 -1.94095e-14 0)
(0 -2.34594e-14 0)
(2.22045e-14 -9.21347e-15 0)
(0 -1.41634e-14 0)
(-1.11022e-13 -1.7109e-14 0)
(0 -2.35105e-14 0)
(-2.22045e-14 -2.25012e-14 0)
(4.44089e-14 -1.9271e-14 0)
(-6.66134e-14 -1.52952e-14 0)
(-4.44089e-14 -6.48485e-15 0)
(0 -2.60642e-15 0)
(4.44089e-14 -1.2076e-14 0)
(-2.22045e-14 -2.37288e-14 0)
(-4.44089e-14 -2.86544e-14 0)
(0 -1.70042e-14 0)
(0 -1.34025e-14 0)
(2.22045e-14 -9.67144e-15 0)
(2.22045e-14 4.92185e-15 0)
(0 1.54234e-14 0)
(-2.22045e-14 -2.56436e-14 0)
(0 -2.70356e-14 0)
(0 -1.33555e-14 0)
(0 -1.64999e-14 0)
(0 -2.53493e-15 0)
(4.44089e-14 1.14955e-14 0)
(4.44089e-14 -5.28638e-14 0)
(4.44089e-14 -3.48302e-15 0)
(0 -1.16279e-15 0)
(4.44089e-14 -1.26076e-14 0)
(0 -3.30223e-14 0)
(0 -2.05123e-14 0)
(4.44089e-14 -2.73808e-15 0)
(4.44089e-14 -5.93663e-15 0)
(-4.44089e-14 -2.034e-14 0)
(0 -6.13273e-15 0)
(-8.88178e-14 -2.65937e-14 0)
(0 -2.03337e-14 0)
(0 7.05904e-15 0)
(4.44089e-14 -7.2958e-15 0)
(4.44089e-14 -1.90201e-14 0)
(0 -1.69155e-14 0)
(-4.44089e-14 -3.49556e-15 0)
(0 -1.25019e-14 0)
(-4.44089e-14 -7.88498e-15 0)
(0 -8.66947e-14 0)
(-4.44089e-14 -1.22097e-14 0)
(-2.22045e-14 -2.6337e-14 0)
(-4.44089e-14 -2.01693e-14 0)
(0 -1.38336e-14 0)
(-2.22045e-14 -1.35302e-14 0)
(-6.66134e-14 -1.31979e-14 0)
(-4.44089e-14 -4.96123e-15 0)
(2.22045e-14 -3.04861e-15 0)
(0 -4.48513e-15 0)
(2.22045e-14 3.14656e-15 0)
(2.22045e-14 -7.91962e-15 0)
(0 -2.07613e-14 0)
(0 -2.03934e-14 0)
(0 -3.5023e-14 0)
(2.22045e-14 -1.4023e-14 0)
(-4.44089e-14 -7.22735e-15 0)
(0 6.07953e-15 0)
(2.22045e-14 -9.5419e-16 0)
(2.22045e-14 -1.44201e-14 0)
(0 -1.50761e-14 0)
(-2.22045e-14 -1.23246e-14 0)
(4.44089e-14 -1.35983e-14 0)
(4.44089e-14 -1.8995e-14 0)
(4.44089e-14 -7.78917e-15 0)
(2.22045e-14 -3.31166e-15 0)
(4.44089e-14 1.96342e-15 0)
(0 -9.21646e-15 0)
(-2.22045e-14 -1.56285e-14 0)
(-2.22045e-14 -1.29743e-14 0)
(-4.44089e-14 -7.84304e-15 0)
(0 4.95355e-15 0)
(0 -1.07371e-15 0)
(4.44089e-14 -1.62595e-14 0)
(2.22045e-14 -8.9141e-15 0)
(2.22045e-14 1.99704e-14 0)
(-6.66134e-14 4.82795e-15 0)
(-6.66134e-14 -2.29393e-14 0)
(0 -1.81042e-14 0)
(0 -9.71891e-15 0)
(0 -3.06705e-14 0)
(-4.44089e-14 -2.49868e-14 0)
(-4.44089e-14 -2.40229e-14 0)
(0 -2.03032e-14 0)
(4.44089e-14 -5.59704e-15 0)
(0 -3.49962e-15 0)
(0 2.88732e-16 0)
(4.44089e-14 1.49118e-16 0)
(4.44089e-14 -7.39857e-15 0)
(0 -1.97886e-15 0)
(0 6.6797e-15 0)
(-4.44089e-14 2.77356e-15 0)
(-4.44089e-14 -2.96721e-15 0)
(4.44089e-14 2.44364e-16 0)
(-4.44089e-14 2.11779e-15 0)
(-4.44089e-14 1.38929e-14 0)
(0 1.22353e-14 0)
(-2.22045e-14 -1.52892e-14 0)
(-2.22045e-14 -1.83179e-14 0)
(-2.22045e-14 -1.52135e-14 0)
(4.44089e-14 -6.30743e-14 0)
(0 -2.52818e-15 0)
(0 -3.87856e-14 0)
(0 -1.20151e-14 0)
(0 -9.04078e-15 0)
(-4.44089e-14 -6.20298e-15 0)
(-4.44089e-14 -1.99336e-14 0)
(0 -1.13362e-14 0)
(0 4.60708e-15 0)
(0 5.73553e-15 0)
(0 4.29818e-15 0)
(4.44089e-14 4.33847e-15 0)
(0 8.75878e-19 0)
(0 6.8731e-15 0)
(0 -1.34182e-14 0)
(0 -2.81726e-14 0)
(-2.22045e-14 2.0756e-15 0)
(-4.44089e-14 1.34075e-14 0)
(0 -1.08605e-14 0)
(0 -1.45992e-14 0)
(-8.88178e-14 1.48481e-14 0)
(4.44089e-14 -2.17191e-14 0)
(0 -1.11748e-14 0)
(0 1.78342e-14 0)
(0 -5.72617e-15 0)
(4.44089e-14 -1.32282e-14 0)
(4.44089e-14 -8.49864e-15 0)
(0 -4.58271e-15 0)
(0 2.78084e-15 0)
(0 -4.74391e-15 0)
(0 -1.32519e-14 0)
(4.44089e-14 -1.63633e-15 0)
(4.44089e-14 1.7913e-14 0)
(0 6.6333e-15 0)
(2.22045e-14 -1.15071e-14 0)
(-2.22045e-14 -1.43715e-14 0)
(-6.66134e-14 -1.12574e-14 0)
(0 -1.14521e-14 0)
(0 -1.75671e-14 0)
(0 -3.69705e-15 0)
(0 8.15043e-15 0)
(-4.44089e-14 -9.66547e-15 0)
(-2.22045e-14 3.74132e-15 0)
(-8.88178e-14 -3.91758e-15 0)
(0 -1.267e-14 0)
(0 -1.82645e-14 0)
(4.44089e-14 -2.5804e-15 0)
(-4.44089e-14 1.26251e-14 0)
(0 9.43905e-15 0)
(0 -1.22944e-14 0)
(0 -2.55757e-14 0)
(0 -2.16458e-14 0)
(0 6.61762e-15 0)
(4.44089e-14 7.14684e-15 0)
(0 5.00805e-15 0)
(2.22045e-14 6.90262e-15 0)
(2.22045e-14 -1.45882e-14 0)
(0 -2.69823e-14 0)
(0 -1.51705e-14 0)
(0 6.31556e-15 0)
(0 -5.93393e-14 0)
(2.22045e-14 3.24341e-14 0)
(0 5.08965e-15 0)
(2.22045e-14 -1.06804e-14 0)
(2.22045e-14 -8.08361e-15 0)
(2.22045e-14 -1.25294e-14 0)
(4.44089e-14 -1.46505e-14 0)
(-2.22045e-14 1.72862e-15 0)
(2.22045e-14 5.31032e-15 0)
(-2.22045e-14 -3.68276e-15 0)
(0 -1.29841e-14 0)
(-2.22045e-14 -1.40513e-14 0)
(-6.66134e-14 -7.38318e-15 0)
(-4.44089e-14 3.18376e-15 0)
(-4.44089e-14 4.34651e-15 0)
(-2.22045e-14 5.80668e-15 0)
(0 -4.17406e-15 0)
(0 -1.17217e-14 0)
(0 -6.27683e-15 0)
(0 6.16232e-15 0)
)
;

boundaryField
{
    movingWall
    {
        type            calculated;
        value           uniform (0 0 0);
    }
    fixedWalls
    {
        type            calculated;
        value           uniform (0 0 0);
    }
    frontAndBack
    {
        type            empty;
    }
}


// ************************************************************************* //
