/*--------------------------------*- C++ -*----------------------------------*\
| =========                 |                                                 |
| \\      /  F ield         | OpenFOAM: The Open Source CFD Toolbox           |
|  \\    /   O peration     | Version:  2506                                  |
|   \\  /    A nd           | Website:  www.openfoam.com                      |
|    \\/     M anipulation  |                                                 |
\*---------------------------------------------------------------------------*/
FoamFile
{
    version     2.0;
    format      ascii;
    arch        "LSB;label=32;scalar=64";
    class       volVectorField;
    location    "9.5";
    object      diffU;
}
// * * * * * * * * * * * * * * * * * * * * * * * * * * * * * * * * * * * * * //

dimensions      [0 1 -1 0 0 0 0];

internalField   nonuniform List<vector> 
400
(
(0 0 0)
(2.22045e-14 -2.09888e-13 0)
(1.73195e-14 -1.63769e-13 0)
(1.73195e-14 -1.74466e-13 0)
(1.75415e-14 -1.72099e-13 0)
(1.73195e-14 -1.72492e-13 0)
(1.73195e-14 -1.7239e-13 0)
(1.72085e-14 -1.72494e-13 0)
(1.70974e-14 -1.72586e-13 0)
(1.70974e-14 -1.72656e-13 0)
(1.72085e-14 -1.72603e-13 0)
(1.70974e-14 -1.72515e-13 0)
(1.69864e-14 -1.72489e-13 0)
(1.69864e-14 -1.72537e-13 0)
(1.66533e-14 -1.72576e-13 0)
(1.66533e-14 -1.72659e-13 0)
(1.70974e-14 -1.72636e-13 0)
(1.69864e-14 -1.72528e-13 0)
(1.68754e-14 -1.72517e-13 0)
(1.69864e-14 -1.72583e-13 0)
(5.09592e-14 -1.60425e-13 0)
(6.21725e-15 -1.75043e-13 0)
(1.66533e-14 -1.72028e-13 0)
(1.59872e-14 -1.72595e-13 0)
(1.62093e-14 -1.7248e-13 0)
(1.59872e-14 -1.72552e-13 0)
(1.59872e-14 -1.72656e-13 0)
(1.64313e-14 -1.72729e-13 0)
(1.66533e-14 -1.72694e-13 0)
(1.66533e-14 -1.72556e-13 0)
(1.64313e-14 -1.72461e-13 0)
(1.62093e-14 -1.72461e-13 0)
(1.66533e-14 -1.72464e-13 0)
(1.66533e-14 -1.72443e-13 0)
(1.64313e-14 -1.72506e-13 0)
(1.64313e-14 -1.72694e-13 0)
(1.64313e-14 -1.72713e-13 0)
(1.64313e-14 -1.72638e-13 0)
(1.64313e-14 -1.7261e-13 0)
(1.66533e-14 -1.72607e-13 0)
(5.10703e-15 -3.32355e-13 0)
(1.95399e-14 -1.3821e-13 0)
(1.59872e-14 -1.81137e-13 0)
(1.64313e-14 -1.70985e-13 0)
(1.69864e-14 -1.72966e-13 0)
(1.69864e-14 -1.72498e-13 0)
(1.68754e-14 -1.72636e-13 0)
(1.64313e-14 -1.72577e-13 0)
(1.59872e-14 -1.72595e-13 0)
(1.59872e-14 -1.72544e-13 0)
(1.62093e-14 -1.72659e-13 0)
(1.66533e-14 -1.7272e-13 0)
(1.66533e-14 -1.72745e-13 0)
(1.66533e-14 -1.72643e-13 0)
(1.70974e-14 -1.72557e-13 0)
(1.68754e-14 -1.72542e-13 0)
(1.68754e-14 -1.72613e-13 0)
(1.69864e-14 -1.72731e-13 0)
(1.68754e-14 -1.72759e-13 0)
(1.68754e-14 -1.72688e-13 0)
(-7.54952e-15 -5.5565e-14 0)
(2.34257e-14 -1.98679e-13 0)
(1.62093e-14 -1.66969e-13 0)
(1.73195e-14 -1.74332e-13 0)
(1.68754e-14 -1.72361e-13 0)
(1.70974e-14 -1.72564e-13 0)
(1.68754e-14 -1.72351e-13 0)
(1.72085e-14 -1.72335e-13 0)
(1.72085e-14 -1.72448e-13 0)
(1.74305e-14 -1.72644e-13 0)
(1.73195e-14 -1.72757e-13 0)
(1.69864e-14 -1.72739e-13 0)
(1.70974e-14 -1.72724e-13 0)
(1.69864e-14 -1.72707e-13 0)
(1.66533e-14 -1.72731e-13 0)
(1.69864e-14 -1.72641e-13 0)
(1.72085e-14 -1.72591e-13 0)
(1.68754e-14 -1.72627e-13 0)
(1.68754e-14 -1.72717e-13 0)
(1.69864e-14 -1.7269e-13 0)
(4.89608e-14 -1.68115e-13 0)
(8.65974e-15 -1.73803e-13 0)
(1.80966e-14 -1.72551e-13 0)
(1.62093e-14 -1.72834e-13 0)
(1.69864e-14 -1.72782e-13 0)
(1.69864e-14 -1.72719e-13 0)
(1.72085e-14 -1.72649e-13 0)
(1.70974e-14 -1.72626e-13 0)
(1.74305e-14 -1.72601e-13 0)
(1.72085e-14 -1.7256e-13 0)
(1.70974e-14 -1.72498e-13 0)
(1.73195e-14 -1.72592e-13 0)
(1.69864e-14 -1.72659e-13 0)
(1.70974e-14 -1.72641e-13 0)
(1.70974e-14 -1.72676e-13 0)
(1.70974e-14 -1.72701e-13 0)
(1.69864e-14 -1.72641e-13 0)
(1.72085e-14 -1.72566e-13 0)
(1.69864e-14 -1.72592e-13 0)
(1.69864e-14 -1.72596e-13 0)
(-2.88658e-15 -2.86959e-13 0)
(2.32037e-14 -1.47706e-13 0)
(1.66533e-14 -1.78486e-13 0)
(1.76525e-14 -1.71414e-13 0)
(1.72085e-14 -1.72998e-13 0)
(1.70974e-14 -1.72565e-13 0)
(1.68754e-14 -1.7259e-13 0)
(1.68754e-14 -1.72541e-13 0)
(1.66533e-14 -1.72604e-13 0)
(1.64313e-14 -1.72623e-13 0)
(1.66533e-14 -1.72731e-13 0)
(1.69864e-14 -1.7276e-13 0)
(1.72085e-14 -1.72705e-13 0)
(1.70974e-14 -1.72652e-13 0)
(1.68754e-14 -1.72626e-13 0)
(1.68754e-14 -1.72602e-13 0)
(1.68754e-14 -1.72604e-13 0)
(1.68754e-14 -1.72542e-13 0)
(1.69864e-14 -1.72518e-13 0)
(1.68754e-14 -1.72576e-13 0)
(2.5091e-14 -2.34085e-14 0)
(1.57652e-14 -2.04858e-13 0)
(1.82077e-14 -1.64874e-13 0)
(1.68754e-14 -1.7417e-13 0)
(1.70974e-14 -1.72083e-13 0)
(1.72085e-14 -1.72565e-13 0)
(1.68754e-14 -1.72443e-13 0)
(1.70974e-14 -1.72425e-13 0)
(1.73195e-14 -1.72377e-13 0)
(1.72085e-14 -1.72564e-13 0)
(1.72085e-14 -1.72836e-13 0)
(1.69864e-14 -1.72895e-13 0)
(1.68754e-14 -1.72746e-13 0)
(1.70974e-14 -1.72554e-13 0)
(1.72085e-14 -1.72483e-13 0)
(1.72085e-14 -1.7247e-13 0)
(1.72085e-14 -1.72516e-13 0)
(1.68754e-14 -1.72571e-13 0)
(1.68754e-14 -1.72591e-13 0)
(1.68754e-14 -1.72619e-13 0)
(1.90958e-14 -2.39247e-13 0)
(1.33227e-14 -1.58293e-13 0)
(1.4877e-14 -1.75891e-13 0)
(1.62093e-14 -1.718e-13 0)
(1.57652e-14 -1.7274e-13 0)
(1.62093e-14 -1.72609e-13 0)
(1.64313e-14 -1.72744e-13 0)
(1.64313e-14 -1.72632e-13 0)
(1.66533e-14 -1.72512e-13 0)
(1.66533e-14 -1.72576e-13 0)
(1.68754e-14 -1.72639e-13 0)
(1.66533e-14 -1.72664e-13 0)
(1.64313e-14 -1.7272e-13 0)
(1.59872e-14 -1.72737e-13 0)
(1.64313e-14 -1.7268e-13 0)
(1.66533e-14 -1.72646e-13 0)
(1.68754e-14 -1.72566e-13 0)
(1.68754e-14 -1.72517e-13 0)
(1.68754e-14 -1.72543e-13 0)
(1.68754e-14 -1.72652e-13 0)
(8.88178e-15 -2.37221e-13 0)
(2.10942e-14 -1.5866e-13 0)
(1.83187e-14 -1.75928e-13 0)
(1.74305e-14 -1.71856e-13 0)
(1.73195e-14 -1.72859e-13 0)
(1.73195e-14 -1.72771e-13 0)
(1.72085e-14 -1.72902e-13 0)
(1.69864e-14 -1.72737e-13 0)
(1.70974e-14 -1.72673e-13 0)
(1.70974e-14 -1.72767e-13 0)
(1.69864e-14 -1.72725e-13 0)
(1.70974e-14 -1.72456e-13 0)
(1.73195e-14 -1.72393e-13 0)
(1.74305e-14 -1.72592e-13 0)
(1.70974e-14 -1.72726e-13 0)
(1.70974e-14 -1.72697e-13 0)
(1.68754e-14 -1.72591e-13 0)
(1.66533e-14 -1.72504e-13 0)
(1.69864e-14 -1.72536e-13 0)
(1.69864e-14 -1.72656e-13 0)
(2.23155e-14 -1.51473e-14 0)
(1.55431e-14 -2.06858e-13 0)
(1.68754e-14 -1.64487e-13 0)
(1.72085e-14 -1.74199e-13 0)
(1.70974e-14 -1.72148e-13 0)
(1.72085e-14 -1.72672e-13 0)
(1.68754e-14 -1.72506e-13 0)
(1.64313e-14 -1.72546e-13 0)
(1.64313e-14 -1.72626e-13 0)
(1.69864e-14 -1.72617e-13 0)
(1.64313e-14 -1.72621e-13 0)
(1.62093e-14 -1.72587e-13 0)
(1.62093e-14 -1.72521e-13 0)
(1.62093e-14 -1.72527e-13 0)
(1.66533e-14 -1.72506e-13 0)
(1.64313e-14 -1.72503e-13 0)
(1.64313e-14 -1.72573e-13 0)
(1.64313e-14 -1.72696e-13 0)
(1.66533e-14 -1.72711e-13 0)
(1.70974e-14 -1.72691e-13 0)
(9.32587e-15 -3.50038e-13 0)
(1.74305e-14 -1.34361e-13 0)
(1.55431e-14 -1.81535e-13 0)
(1.69864e-14 -1.70803e-13 0)
(1.69864e-14 -1.73116e-13 0)
(1.69864e-14 -1.72388e-13 0)
(1.70974e-14 -1.72373e-13 0)
(1.72085e-14 -1.72499e-13 0)
(1.69864e-14 -1.72735e-13 0)
(1.69864e-14 -1.7258e-13 0)
(1.73195e-14 -1.72464e-13 0)
(1.73195e-14 -1.72544e-13 0)
(1.74305e-14 -1.72561e-13 0)
(1.73195e-14 -1.72587e-13 0)
(1.70974e-14 -1.72549e-13 0)
(1.69864e-14 -1.72582e-13 0)
(1.72085e-14 -1.72645e-13 0)
(1.68754e-14 -1.72755e-13 0)
(1.69864e-14 -1.72747e-13 0)
(1.70974e-14 -1.72687e-13 0)
(2.25375e-14 -6.07005e-14 0)
(1.69864e-14 -1.973e-13 0)
(1.80966e-14 -1.67102e-13 0)
(1.64313e-14 -1.74061e-13 0)
(1.66533e-14 -1.724e-13 0)
(1.64313e-14 -1.72664e-13 0)
(1.64313e-14 -1.72514e-13 0)
(1.68754e-14 -1.72592e-13 0)
(1.68754e-14 -1.72648e-13 0)
(1.66533e-14 -1.72735e-13 0)
(1.68754e-14 -1.72704e-13 0)
(1.68754e-14 -1.72602e-13 0)
(1.69864e-14 -1.72497e-13 0)
(1.72085e-14 -1.7237e-13 0)
(1.72085e-14 -1.72329e-13 0)
(1.69864e-14 -1.72429e-13 0)
(1.70974e-14 -1.72528e-13 0)
(1.68754e-14 -1.72594e-13 0)
(1.69864e-14 -1.72638e-13 0)
(1.69864e-14 -1.72572e-13 0)
(1.55431e-14 -1.65913e-13 0)
(1.46549e-14 -1.73902e-13 0)
(1.53211e-14 -1.72474e-13 0)
(1.66533e-14 -1.72647e-13 0)
(1.62093e-14 -1.72606e-13 0)
(1.66533e-14 -1.72658e-13 0)
(1.62093e-14 -1.72666e-13 0)
(1.66533e-14 -1.72701e-13 0)
(1.66533e-14 -1.72638e-13 0)
(1.66533e-14 -1.72682e-13 0)
(1.64313e-14 -1.72624e-13 0)
(1.59872e-14 -1.72653e-13 0)
(1.59872e-14 -1.727e-13 0)
(1.59872e-14 -1.72558e-13 0)
(1.62093e-14 -1.72518e-13 0)
(1.64313e-14 -1.72581e-13 0)
(1.64313e-14 -1.72666e-13 0)
(1.64313e-14 -1.72642e-13 0)
(1.66533e-14 -1.72665e-13 0)
(1.66533e-14 -1.72623e-13 0)
(1.39888e-14 -3.0084e-13 0)
(1.96509e-14 -1.44674e-13 0)
(1.82077e-14 -1.79153e-13 0)
(1.69864e-14 -1.71274e-13 0)
(1.73195e-14 -1.73072e-13 0)
(1.70974e-14 -1.72611e-13 0)
(1.72085e-14 -1.72677e-13 0)
(1.72085e-14 -1.72687e-13 0)
(1.72085e-14 -1.72632e-13 0)
(1.72085e-14 -1.72563e-13 0)
(1.70974e-14 -1.72455e-13 0)
(1.74305e-14 -1.72442e-13 0)
(1.73195e-14 -1.72544e-13 0)
(1.73195e-14 -1.72618e-13 0)
(1.73195e-14 -1.72691e-13 0)
(1.73195e-14 -1.72714e-13 0)
(1.69864e-14 -1.72763e-13 0)
(1.70974e-14 -1.72694e-13 0)
(1.70974e-14 -1.72664e-13 0)
(1.69864e-14 -1.727e-13 0)
(4.21885e-15 1.85349e-14 0)
(1.89848e-14 -2.14643e-13 0)
(1.59872e-14 -1.62789e-13 0)
(1.74305e-14 -1.74813e-13 0)
(1.72085e-14 -1.72136e-13 0)
(1.70974e-14 -1.72718e-13 0)
(1.72085e-14 -1.72555e-13 0)
(1.72085e-14 -1.72562e-13 0)
(1.72085e-14 -1.72583e-13 0)
(1.69864e-14 -1.72614e-13 0)
(1.70974e-14 -1.72614e-13 0)
(1.69864e-14 -1.72534e-13 0)
(1.70974e-14 -1.72521e-13 0)
(1.72085e-14 -1.72619e-13 0)
(1.72085e-14 -1.72661e-13 0)
(1.72085e-14 -1.72524e-13 0)
(1.69864e-14 -1.72445e-13 0)
(1.66533e-14 -1.72555e-13 0)
(1.68754e-14 -1.72626e-13 0)
(1.68754e-14 -1.72665e-13 0)
(4.71845e-14 -2.87725e-13 0)
(8.88178e-15 -1.47611e-13 0)
(1.70974e-14 -1.78743e-13 0)
(1.62093e-14 -1.7148e-13 0)
(1.68754e-14 -1.72985e-13 0)
(1.64313e-14 -1.72709e-13 0)
(1.66533e-14 -1.72819e-13 0)
(1.68754e-14 -1.72648e-13 0)
(1.70974e-14 -1.72632e-13 0)
(1.72085e-14 -1.72619e-13 0)
(1.70974e-14 -1.72613e-13 0)
(1.70974e-14 -1.7259e-13 0)
(1.70974e-14 -1.72576e-13 0)
(1.72085e-14 -1.72537e-13 0)
(1.69864e-14 -1.72524e-13 0)
(1.66533e-14 -1.72512e-13 0)
(1.66533e-14 -1.72452e-13 0)
(1.68754e-14 -1.72546e-13 0)
(1.68754e-14 -1.72616e-13 0)
(1.68754e-14 -1.72638e-13 0)
(-1.46549e-14 -2.14848e-13 0)
(2.57572e-14 -1.63719e-13 0)
(1.62093e-14 -1.74806e-13 0)
(1.72085e-14 -1.72296e-13 0)
(1.68754e-14 -1.7277e-13 0)
(1.68754e-14 -1.72675e-13 0)
(1.66533e-14 -1.72762e-13 0)
(1.64313e-14 -1.72728e-13 0)
(1.64313e-14 -1.72679e-13 0)
(1.64313e-14 -1.72634e-13 0)
(1.62093e-14 -1.72592e-13 0)
(1.64313e-14 -1.72538e-13 0)
(1.64313e-14 -1.72478e-13 0)
(1.62093e-14 -1.7243e-13 0)
(1.62093e-14 -1.72468e-13 0)
(1.64313e-14 -1.72681e-13 0)
(1.68754e-14 -1.72726e-13 0)
(1.66533e-14 -1.72615e-13 0)
(1.68754e-14 -1.72604e-13 0)
(1.68754e-14 -1.72651e-13 0)
(1.72085e-14 -2.62762e-14 0)
(1.62093e-14 -2.04271e-13 0)
(1.66533e-14 -1.65196e-13 0)
(1.66533e-14 -1.74243e-13 0)
(1.66533e-14 -1.72233e-13 0)
(1.66533e-14 -1.72538e-13 0)
(1.66533e-14 -1.72409e-13 0)
(1.64313e-14 -1.72545e-13 0)
(1.64313e-14 -1.72588e-13 0)
(1.64313e-14 -1.72632e-13 0)
(1.64313e-14 -1.72656e-13 0)
(1.64313e-14 -1.72648e-13 0)
(1.68754e-14 -1.72542e-13 0)
(1.68754e-14 -1.72559e-13 0)
(1.72085e-14 -1.72652e-13 0)
(1.70974e-14 -1.72705e-13 0)
(1.68754e-14 -1.72664e-13 0)
(1.66533e-14 -1.72634e-13 0)
(1.68754e-14 -1.72653e-13 0)
(1.69864e-14 -1.72642e-13 0)
(4.66294e-14 -2.30065e-13 0)
(8.65974e-15 -1.60288e-13 0)
(1.70974e-14 -1.75636e-13 0)
(1.59872e-14 -1.71989e-13 0)
(1.62093e-14 -1.72715e-13 0)
(1.62093e-14 -1.72552e-13 0)
(1.64313e-14 -1.72588e-13 0)
(1.62093e-14 -1.72604e-13 0)
(1.64313e-14 -1.72574e-13 0)
(1.66533e-14 -1.72621e-13 0)
(1.64313e-14 -1.72712e-13 0)
(1.64313e-14 -1.7283e-13 0)
(1.66533e-14 -1.72812e-13 0)
(1.68754e-14 -1.72741e-13 0)
(1.68754e-14 -1.72765e-13 0)
(1.69864e-14 -1.72639e-13 0)
(1.69864e-14 -1.72502e-13 0)
(1.66533e-14 -1.72631e-13 0)
(1.68754e-14 -1.72701e-13 0)
(1.68754e-14 -1.72613e-13 0)
(1.77636e-15 -2.6737e-13 0)
(2.13163e-14 -1.5267e-13 0)
(1.75415e-14 -1.7725e-13 0)
(1.75415e-14 -1.71501e-13 0)
(1.76525e-14 -1.727e-13 0)
(1.77636e-14 -1.72553e-13 0)
(1.78746e-14 -1.72695e-13 0)
(1.75415e-14 -1.72695e-13 0)
(1.76525e-14 -1.72652e-13 0)
(1.75415e-14 -1.72655e-13 0)
(1.75415e-14 -1.72688e-13 0)
(1.75415e-14 -1.72781e-13 0)
(1.73195e-14 -1.72811e-13 0)
(1.70974e-14 -1.72752e-13 0)
(1.68754e-14 -1.72735e-13 0)
(1.68754e-14 -1.72628e-13 0)
(1.66533e-14 -1.72525e-13 0)
(1.68754e-14 -1.72612e-13 0)
(1.69864e-14 -1.72667e-13 0)
(1.70974e-14 -1.72613e-13 0)
)
;

boundaryField
{
    movingWall
    {
        type            calculated;
        value           uniform (1.68754e-14 -1.72595e-13 0);
    }
    fixedWalls
    {
        type            calculated;
        value           uniform (1.68754e-14 -1.72595e-13 0);
    }
    frontAndBack
    {
        type            empty;
    }
}


// ************************************************************************* //
