/*--------------------------------*- C++ -*----------------------------------*\
| =========                 |                                                 |
| \\      /  F ield         | OpenFOAM: The Open Source CFD Toolbox           |
|  \\    /   O peration     | Version:  2506                                  |
|   \\  /    A nd           | Website:  www.openfoam.com                      |
|    \\/     M anipulation  |                                                 |
\*---------------------------------------------------------------------------*/
FoamFile
{
    version     2.0;
    format      ascii;
    arch        "LSB;label=32;scalar=64";
    class       volScalarField;
    location    "9.5";
    object      divPhi;
}
// * * * * * * * * * * * * * * * * * * * * * * * * * * * * * * * * * * * * * //

dimensions      [0 0 -1 0 0 0 0];

internalField   nonuniform List<scalar> 
400
(
-2.43945e-13
6.01275e-15
1.30338e-14
-5.24605e-17
1.4631e-15
-1.36757e-14
-2.87223e-15
1.2106e-14
6.61156e-15
-1.225e-14
2.08698e-15
-8.49278e-15
-3.562e-15
1.24546e-14
-9.92772e-15
7.79947e-15
-2.88747e-15
-4.25713e-16
8.509e-15
0
0
1.02727e-14
1.46353e-14
-7.2157e-15
1.1958e-14
1.69163e-14
7.24629e-15
-7.40832e-15
1.93482e-14
-1.03461e-14
-2.61803e-14
-1.46678e-14
2.27864e-14
1.63141e-14
-3.79878e-14
2.12589e-14
2.10128e-14
-2.00508e-14
1.38573e-15
0
2.71051e-14
1.01209e-14
-2.26632e-14
2.39023e-14
-1.85015e-15
-1.32009e-14
-6.99912e-16
2.14715e-14
-2.02906e-14
5.4821e-15
-1.52531e-14
1.59022e-14
4.03274e-15
-1.81152e-14
-1.50774e-14
-2.0932e-14
8.28911e-16
1.1338e-14
1.03357e-14
0
-2.71051e-14
3.0393e-14
2.34313e-15
-7.74268e-15
-2.20929e-14
-1.36737e-14
-9.31371e-15
-1.31954e-14
1.37819e-14
-9.25697e-15
2.64611e-14
-1.60113e-14
4.52166e-15
-5.53696e-15
8.26179e-15
6.79848e-15
1.84718e-14
-2.28244e-14
4.93301e-15
2.71051e-14
0
2.72812e-14
-4.44793e-15
-5.12646e-15
1.23937e-14
1.51135e-14
-1.03811e-14
-2.60924e-15
-4.26347e-14
-2.86123e-15
-2.29149e-14
2.54534e-14
-1.3846e-14
5.14174e-15
1.12177e-14
2.09378e-14
3.43172e-15
1.06232e-14
1.32938e-14
-2.71051e-14
2.71051e-14
7.7323e-16
-5.93188e-15
6.37751e-15
-2.20195e-15
9.09907e-15
-9.99059e-15
6.46868e-15
3.44259e-14
-1.44344e-14
7.87855e-15
-4.54653e-15
-6.2828e-16
3.23085e-14
9.8118e-15
4.67547e-15
-3.7209e-15
-1.2385e-16
7.45655e-15
0
0
2.56298e-15
-2.20852e-14
-5.14162e-15
-7.29334e-15
4.15015e-15
1.16284e-14
-2.12124e-14
-2.31897e-16
2.68584e-16
2.18044e-15
-1.17209e-14
1.43593e-14
1.03379e-14
9.62401e-15
2.02028e-14
-3.85525e-15
-9.43113e-15
1.90765e-15
0
-2.71051e-14
1.28238e-14
-3.55784e-15
9.86517e-15
-2.31636e-14
2.72757e-15
2.28004e-14
-1.90348e-14
-5.28199e-15
6.79114e-15
1.16783e-14
-1.04408e-14
-1.50777e-15
1.84379e-14
2.19934e-14
-4.04192e-15
-1.7472e-14
-2.03046e-14
2.01871e-14
0
2.71051e-14
2.73957e-15
-1.9467e-14
1.59632e-14
-1.63371e-14
4.68117e-15
1.00216e-15
-9.0616e-15
2.83328e-14
-1.82742e-14
2.02358e-14
4.49293e-15
-7.06484e-15
7.57263e-15
3.13187e-15
-2.09539e-14
1.54351e-14
7.44808e-15
-8.62268e-15
0
0
6.24855e-15
1.18186e-14
-9.10271e-15
-3.13103e-15
1.70742e-14
-1.33231e-14
-1.19989e-14
2.35543e-14
2.83238e-14
-1.76906e-14
-7.77924e-15
1.43612e-14
2.59197e-14
4.47454e-15
1.04618e-14
-4.69748e-16
-2.76683e-15
-3.12918e-14
0
0
1.43115e-15
2.99125e-14
-1.59833e-14
1.66585e-14
-4.62351e-14
4.80157e-15
-1.15477e-14
-1.52765e-14
-9.4983e-15
1.95617e-14
-4.55115e-15
-1.35158e-14
6.19009e-15
8.43707e-15
1.65721e-14
-1.78725e-16
9.57122e-15
-1.57549e-14
0
0
-9.04034e-15
2.78913e-14
-8.57426e-15
-1.09567e-14
1.65775e-14
-5.23134e-15
-1.24087e-14
-4.24933e-15
5.0996e-16
1.05598e-15
1.08733e-14
-3.92567e-14
2.11959e-14
-7.51809e-15
-4.75417e-15
-2.06707e-15
2.58703e-14
1.30529e-14
0
0
-3.36243e-14
1.85439e-14
-3.54026e-14
-1.16684e-14
-7.4857e-15
-1.06965e-14
-2.36163e-14
1.24653e-14
-4.40431e-15
5.11647e-15
-9.64844e-16
2.18958e-15
1.62839e-15
-1.63772e-14
-1.55296e-14
-2.10658e-14
1.35885e-14
8.57996e-15
0
0
-1.84784e-15
-1.28833e-14
-2.55573e-15
-1.30442e-14
5.05093e-15
-3.49887e-14
1.85381e-14
2.81914e-14
-2.02204e-15
-3.39792e-15
1.19902e-14
-1.32462e-14
-6.20601e-16
1.76137e-14
1.9067e-15
-7.2457e-15
1.73935e-14
-9.98924e-16
-2.71051e-14
0
-7.7027e-15
9.46797e-15
-1.09064e-14
7.41849e-15
8.41965e-15
-7.26378e-15
1.08822e-14
-2.84836e-14
2.54847e-14
3.51399e-15
1.36856e-14
-1.199e-14
2.6962e-15
-1.25064e-14
1.56832e-16
-2.01751e-14
1.38836e-14
-7.81786e-15
2.71051e-14
0
-1.03202e-14
1.07757e-14
2.29003e-16
-1.47462e-14
1.66295e-14
-2.6427e-15
-6.56943e-15
9.54344e-15
-7.03141e-15
-4.36591e-15
-2.61773e-14
-3.13405e-14
-1.11786e-14
-1.43662e-14
1.90231e-14
7.07009e-15
-2.61307e-14
-4.16415e-15
0
2.71051e-14
-2.33347e-14
-2.61101e-15
1.57383e-14
1.27185e-14
-7.67996e-15
-1.96094e-14
2.34433e-14
2.13152e-14
-5.4816e-15
-2.38773e-15
-2.58835e-14
3.43189e-14
-2.95432e-14
2.30461e-14
-2.69319e-14
2.36515e-14
-8.75641e-15
-2.88764e-15
-2.71051e-14
2.71051e-14
-4.40599e-16
1.15481e-14
-1.38876e-14
3.08674e-14
-1.94983e-14
2.83226e-14
-1.47136e-14
8.03785e-15
-6.75168e-15
-2.42823e-14
-1.55121e-15
8.26846e-15
2.23348e-14
-1.41572e-14
-1.25071e-14
2.61203e-15
-8.35872e-15
5.26276e-15
0
0
3.83252e-15
3.26212e-14
3.02549e-15
7.87662e-16
7.34259e-15
-1.65334e-14
3.54731e-14
-7.86032e-15
-1.07217e-14
1.19953e-14
-1.19533e-14
4.49296e-15
-1.34021e-14
3.71708e-14
-1.82242e-14
-3.86611e-15
9.77793e-16
1.16096e-14
0
-2.71051e-14
0
2.71051e-14
0
0
2.71051e-14
2.71051e-14
0
0
-2.71051e-14
2.71051e-14
0
2.71051e-14
-2.71051e-14
2.71051e-14
0
0
0
2.71051e-14
0
)
;

boundaryField
{
    movingWall
    {
        type            extrapolatedCalculated;
        value           nonuniform List<scalar> 
20
(
-2.71051e-14
0
2.71051e-14
0
0
2.71051e-14
2.71051e-14
0
0
-2.71051e-14
2.71051e-14
0
2.71051e-14
-2.71051e-14
2.71051e-14
0
0
0
2.71051e-14
0
)
;
    }
    fixedWalls
    {
        type            extrapolatedCalculated;
        value           nonuniform List<scalar> 
60
(
-2.43945e-13
0
2.71051e-14
-2.71051e-14
0
2.71051e-14
0
-2.71051e-14
2.71051e-14
0
0
0
0
0
0
0
2.71051e-14
2.71051e-14
0
-2.71051e-14
0
0
0
2.71051e-14
-2.71051e-14
0
0
0
0
0
0
0
0
-2.71051e-14
2.71051e-14
0
-2.71051e-14
0
0
0
-2.43945e-13
6.01275e-15
1.30338e-14
-5.24605e-17
1.4631e-15
-1.36757e-14
-2.87223e-15
1.2106e-14
6.61156e-15
-1.225e-14
2.08698e-15
-8.49278e-15
-3.562e-15
1.24546e-14
-9.92772e-15
7.79947e-15
-2.88747e-15
-4.25713e-16
8.509e-15
0
)
;
    }
    frontAndBack
    {
        type            empty;
    }
}


// ************************************************************************* //
