/*--------------------------------*- C++ -*----------------------------------*\
| =========                 |                                                 |
| \\      /  F ield         | OpenFOAM: The Open Source CFD Toolbox           |
|  \\    /   O peration     | Version:  2506                                  |
|   \\  /    A nd           | Website:  www.openfoam.com                      |
|    \\/     M anipulation  |                                                 |
\*---------------------------------------------------------------------------*/
FoamFile
{
    version     2.0;
    format      ascii;
    arch        "LSB;label=32;scalar=64";
    class       volScalarField;
    location    "9.5";
    object      divU;
}
// * * * * * * * * * * * * * * * * * * * * * * * * * * * * * * * * * * * * * //

dimensions      [0 0 -1 0 0 0 0];

internalField   nonuniform List<scalar> 
400
(
1.73201e-11
-2.23926e-12
4.51514e-13
-1.59977e-13
6.1163e-14
-1.24303e-14
-1.26202e-14
-3.28087e-15
-8.94304e-15
-2.17597e-15
1.26144e-14
2.13959e-14
-3.25365e-15
-6.06009e-15
-4.32794e-14
3.79504e-14
3.84388e-14
-2.46629e-14
6.41985e-15
-2.71051e-14
-3.08727e-11
3.70879e-12
-7.70349e-13
3.50749e-13
-1.33958e-13
-1.30706e-14
1.70356e-14
4.26672e-14
1.7328e-14
-1.80774e-14
7.02253e-15
-2.61563e-14
-1.80969e-15
-4.37368e-14
1.2785e-14
2.25173e-14
1.35695e-14
-1.78908e-14
9.25307e-15
5.42101e-14
9.59519e-12
-1.28396e-12
1.69185e-13
-9.39383e-14
9.47955e-14
-4.13527e-14
-3.37791e-14
-5.34369e-14
-3.94634e-14
2.41934e-16
8.58615e-14
2.74515e-16
-2.78481e-14
3.82581e-14
1.73601e-14
-2.63497e-14
2.5762e-14
-1.67505e-14
-1.43526e-15
-2.71051e-14
1.46096e-11
-1.1841e-12
2.68864e-13
-1.43301e-13
4.81014e-15
-9.23628e-15
-8.02436e-15
2.29213e-14
1.41492e-14
2.57359e-14
-3.35184e-14
1.30509e-14
7.88437e-15
-4.28753e-14
-2.16448e-14
3.91425e-14
-4.08952e-15
-2.73642e-14
4.23943e-14
0
-2.07625e-11
2.0158e-12
-3.94873e-13
1.75573e-13
2.24115e-14
1.77757e-14
-3.19729e-14
-2.47379e-14
-1.44376e-15
-2.6379e-14
-3.83135e-15
1.095e-14
-1.73469e-14
4.40017e-14
1.59753e-14
1.59141e-14
-5.44345e-15
8.22992e-15
-1.89929e-14
-2.71051e-14
1.31188e-11
-1.1439e-12
2.10257e-13
-6.64173e-14
1.09672e-14
-2.10211e-14
-1.13812e-14
2.24935e-14
-3.32398e-14
-2.67393e-14
4.36755e-14
3.48417e-14
1.00353e-15
-2.85704e-14
-1.89611e-14
1.18808e-14
7.01625e-15
7.7385e-15
8.21942e-15
0
5.50233e-12
-1.74184e-12
3.61277e-13
-1.59264e-13
6.38344e-14
1.61313e-15
-5.38439e-14
1.33538e-14
3.09802e-15
5.11454e-15
-1.27696e-15
-3.68247e-14
2.66498e-14
1.71086e-14
2.71204e-15
7.4488e-15
-1.62039e-14
-1.6837e-14
5.67358e-15
0
-2.15214e-11
4.17895e-12
-7.98378e-13
3.1607e-13
-6.79978e-14
3.52147e-14
8.66865e-15
-1.78633e-14
5.13887e-16
3.9026e-14
9.81498e-15
-4.71215e-14
-1.93504e-14
-1.38876e-14
3.26837e-14
6.60821e-14
3.37162e-15
1.69841e-14
1.11859e-14
0
2.19822e-11
-3.87589e-12
7.48617e-13
-3.30385e-13
4.54594e-14
1.86774e-15
5.31662e-15
-9.24308e-15
1.62365e-14
7.74001e-15
1.15764e-14
1.47481e-14
5.4711e-14
3.42292e-14
-4.08039e-15
-9.49663e-16
-2.45085e-14
-2.8011e-14
2.14536e-14
-5.42101e-14
-1.08691e-11
1.88801e-12
-4.0844e-13
1.27253e-13
-3.44362e-14
4.01685e-14
-5.01513e-14
-1.25221e-14
1.00844e-14
2.63835e-14
-4.36664e-14
-2.11481e-14
-1.62893e-14
6.1888e-14
1.36465e-14
1.05322e-14
-2.7328e-15
1.12432e-15
2.7443e-14
0
-5.25838e-12
1.56987e-12
-3.17604e-13
1.6815e-13
-3.25509e-14
1.38879e-14
3.03946e-14
-1.71478e-14
-1.92011e-14
1.46247e-14
2.93803e-14
3.16281e-14
1.3281e-14
-3.08024e-14
4.1886e-15
1.79644e-14
1.75827e-15
-1.58609e-14
7.67495e-15
0
1.89735e-11
-4.39003e-12
8.59602e-13
-3.41461e-13
4.55511e-14
-4.02148e-14
1.09404e-15
4.39465e-14
-3.66014e-14
3.15959e-14
-1.36655e-14
2.06712e-14
2.64895e-14
-8.39805e-16
7.27249e-15
-3.61585e-14
-3.30357e-16
-4.61491e-15
4.29926e-14
-2.71051e-14
-2.43403e-11
5.26355e-12
-1.05015e-12
3.9801e-13
-7.58586e-14
-7.90594e-15
-1.5238e-14
7.40626e-15
-7.96002e-15
2.1672e-14
-4.29787e-14
-4.46785e-14
-5.38573e-15
-2.56665e-14
7.94977e-14
-3.75912e-14
-2.378e-14
1.25186e-14
-1.38207e-14
5.42101e-14
1.84314e-11
-3.6624e-12
7.31455e-13
-3.33616e-13
5.24228e-14
-1.38491e-14
2.29691e-14
2.13253e-14
-2.46314e-15
1.31062e-15
3.92888e-14
2.15156e-14
1.25774e-14
-4.59209e-15
-1.61759e-14
-3.19244e-14
-1.75757e-15
4.83163e-14
-9.92704e-15
-5.42101e-14
2.43945e-13
8.95704e-13
-1.49203e-13
1.06629e-13
-2.01609e-14
3.54697e-15
-1.8305e-14
-1.8978e-15
-2.43883e-15
-3.13571e-14
2.34448e-14
-2.03786e-14
9.45685e-15
3.45363e-15
2.76688e-14
1.54565e-14
-2.48713e-14
8.97378e-15
-5.09967e-15
2.71051e-14
-2.11148e-11
2.11206e-12
-4.8349e-13
2.22784e-13
-2.92783e-14
-1.93262e-14
6.93505e-14
8.64627e-15
1.50389e-14
-6.20812e-15
-1.42943e-15
6.30709e-15
1.36596e-14
2.23112e-14
-3.42877e-14
-8.14913e-14
2.83982e-14
3.02425e-15
-2.86001e-15
0
2.38796e-11
-2.57816e-12
4.91765e-13
-1.61914e-13
1.87787e-14
2.4804e-14
-5.23318e-14
1.89576e-14
-7.65025e-15
-7.51504e-15
-5.71664e-15
5.124e-16
-6.42816e-14
-6.99593e-15
3.42513e-14
7.55624e-15
3.42666e-14
-5.80668e-15
-6.59602e-15
0
-1.57209e-12
3.12824e-13
-5.20479e-14
3.1474e-14
-2.82896e-15
1.0079e-14
-7.74036e-15
4.15789e-15
2.83666e-15
-6.23484e-15
-1.77236e-14
-1.56175e-15
1.07751e-14
1.61006e-14
-2.26306e-14
-1.53451e-14
2.45011e-15
-7.38362e-15
1.07514e-14
-2.71051e-14
-2.19822e-11
2.22034e-12
-4.71363e-13
1.97187e-13
-4.95156e-14
6.28503e-14
-9.0468e-14
4.33324e-14
2.35177e-14
-8.51955e-15
-2.09605e-14
-1.49197e-14
1.09445e-14
2.39659e-14
2.32244e-14
1.94505e-14
-1.07231e-14
-5.16743e-15
9.38897e-15
0
1.41759e-11
-1.65341e-12
3.79471e-13
-1.35525e-13
5.42101e-14
0
0
-2.71051e-14
-2.71051e-14
0
2.71051e-14
2.71051e-14
0
0
0
-5.42101e-14
2.71051e-14
2.71051e-14
5.42101e-14
-5.42101e-14
)
;

boundaryField
{
    movingWall
    {
        type            extrapolatedCalculated;
        value           nonuniform List<scalar> 
20
(
1.41759e-11
-1.65341e-12
3.79471e-13
-1.35525e-13
5.42101e-14
0
0
-2.71051e-14
-2.71051e-14
0
2.71051e-14
2.71051e-14
0
0
0
-5.42101e-14
2.71051e-14
2.71051e-14
5.42101e-14
-5.42101e-14
)
;
    }
    fixedWalls
    {
        type            extrapolatedCalculated;
        value           nonuniform List<scalar> 
60
(
1.73201e-11
-3.08727e-11
9.59519e-12
1.46096e-11
-2.07625e-11
1.31188e-11
5.50233e-12
-2.15214e-11
2.19822e-11
-1.08691e-11
-5.25838e-12
1.89735e-11
-2.43403e-11
1.84314e-11
2.43945e-13
-2.11148e-11
2.38796e-11
-1.57209e-12
-2.19822e-11
1.41759e-11
-2.71051e-14
5.42101e-14
-2.71051e-14
0
-2.71051e-14
0
0
0
-5.42101e-14
0
0
-2.71051e-14
5.42101e-14
-5.42101e-14
2.71051e-14
0
0
-2.71051e-14
0
-5.42101e-14
1.73201e-11
-2.23926e-12
4.51514e-13
-1.59977e-13
6.1163e-14
-1.24303e-14
-1.26202e-14
-3.28087e-15
-8.94304e-15
-2.17597e-15
1.26144e-14
2.13959e-14
-3.25365e-15
-6.06009e-15
-4.32794e-14
3.79504e-14
3.84388e-14
-2.46629e-14
6.41985e-15
-2.71051e-14
)
;
    }
    frontAndBack
    {
        type            empty;
    }
}


// ************************************************************************* //
