/*--------------------------------*- C++ -*----------------------------------*\
| =========                 |                                                 |
| \\      /  F ield         | OpenFOAM: The Open Source CFD Toolbox           |
|  \\    /   O peration     | Version:  2506                                  |
|   \\  /    A nd           | Website:  www.openfoam.com                      |
|    \\/     M anipulation  |                                                 |
\*---------------------------------------------------------------------------*/
FoamFile
{
    version     2.0;
    format      ascii;
    arch        "LSB;label=32;scalar=64";
    class       volScalarField;
    location    "9.5";
    object      enstrophyField;
}
// * * * * * * * * * * * * * * * * * * * * * * * * * * * * * * * * * * * * * //

dimensions      [0 0 -2 0 0 0 0];

internalField   nonuniform List<scalar> 
400
(
6.98879e-23
1.24941e-22
6.17779e-24
3.24753e-25
1.45019e-26
3.1475e-28
1.45796e-27
1.92461e-28
1.31499e-28
1.43976e-30
9.94468e-29
2.15761e-27
2.39025e-30
3.79543e-29
2.38757e-27
2.83698e-27
8.62537e-29
2.18539e-27
1.18416e-27
4.12226e-29
1.04553e-25
4.19845e-25
6.23647e-26
6.5152e-28
1.71447e-27
4.55747e-29
4.38075e-29
3.00364e-27
4.86465e-27
5.46739e-27
4.12088e-27
3.60779e-28
1.57055e-27
1.2501e-27
1.36226e-27
1.14326e-27
1.78669e-27
5.29352e-29
4.94067e-30
3.43006e-30
2.23292e-23
8.99693e-23
5.19491e-24
2.32296e-25
2.11226e-26
5.25305e-27
3.97366e-27
2.98102e-27
2.84567e-28
5.63131e-28
4.88695e-27
4.04138e-27
1.0821e-27
6.26836e-28
9.75902e-28
1.78911e-27
5.01861e-27
4.60041e-27
1.24216e-27
3.28015e-28
1.10623e-23
5.02917e-23
2.51989e-24
1.45346e-25
1.12053e-26
5.30129e-31
4.91623e-28
2.0477e-27
1.38462e-26
1.38405e-26
2.03106e-27
1.29594e-27
1.30155e-27
3.86554e-28
2.22874e-29
8.57399e-29
3.31277e-28
7.8791e-28
2.00813e-29
1.48894e-29
8.91475e-27
9.83895e-26
2.43526e-27
2.65685e-28
1.22261e-28
8.76602e-29
6.62819e-28
5.10681e-28
1.84859e-27
4.19558e-27
1.30304e-27
1.29717e-28
1.20322e-29
4.15568e-28
5.47106e-28
6.28451e-30
2.28851e-27
5.1105e-28
4.51801e-28
3.59771e-28
2.15313e-23
5.11619e-23
2.87497e-24
1.09251e-25
6.61883e-27
8.32112e-28
4.35045e-28
1.02184e-30
3.39111e-29
8.03362e-29
9.41288e-29
4.40941e-28
5.8885e-29
3.1534e-29
1.24563e-29
2.29193e-30
2.23191e-28
6.40657e-28
2.81874e-28
4.748e-29
4.48388e-23
8.67339e-23
5.22111e-24
1.55855e-25
4.3801e-26
2.61957e-27
2.32749e-27
5.70582e-28
9.64982e-29
1.05498e-27
1.81344e-27
6.49864e-28
1.0164e-26
1.30944e-26
6.28706e-28
2.84085e-28
6.92838e-28
2.80292e-29
1.14314e-29
1.86241e-30
6.51111e-24
1.70975e-23
9.12205e-25
2.73225e-26
5.83139e-27
5.27824e-32
1.59537e-27
2.99313e-27
5.36546e-28
8.00208e-29
1.67158e-28
3.30074e-29
1.89345e-27
2.67654e-28
2.00347e-27
6.56411e-29
2.2545e-27
2.55299e-30
9.18125e-29
1.06109e-31
1.44034e-23
1.73185e-23
1.13897e-24
2.54403e-26
1.99932e-26
9.77888e-27
1.29039e-27
2.62081e-28
4.42175e-30
5.20298e-28
3.63835e-27
3.81761e-27
8.2262e-28
3.82458e-27
2.08955e-27
9.03197e-29
2.70027e-27
1.78591e-27
1.15697e-28
3.63778e-28
7.52071e-23
1.05917e-22
6.25486e-24
2.73053e-25
1.16659e-26
3.79662e-29
7.87674e-28
2.19021e-27
1.10741e-27
1.2157e-31
1.31023e-27
9.7882e-28
1.16092e-27
1.22162e-30
2.7894e-30
1.1256e-27
2.69706e-27
9.52573e-29
1.30455e-31
1.7872e-29
9.72723e-23
1.39692e-22
7.14337e-24
4.51595e-25
5.44e-27
1.66959e-26
1.28623e-28
4.08789e-27
4.00257e-27
1.46753e-27
1.27771e-27
2.04179e-27
1.71194e-27
1.40145e-27
1.4428e-27
4.13424e-27
2.5553e-27
2.07637e-27
2.06072e-28
1.32159e-27
3.27695e-23
5.37595e-23
2.82759e-24
1.26343e-25
2.44416e-26
1.23819e-28
3.91175e-27
8.3331e-28
2.24677e-27
1.18172e-27
7.41332e-27
1.22029e-26
1.2595e-26
7.83317e-27
5.25153e-27
1.88472e-27
7.09261e-28
9.35426e-28
4.31379e-28
4.21014e-28
9.86998e-25
4.29827e-25
7.87722e-27
4.46806e-27
3.9957e-28
3.81052e-27
4.92801e-28
3.9073e-30
1.36657e-27
3.19116e-27
4.0213e-30
6.03909e-28
1.54782e-28
1.66495e-28
1.59545e-27
2.38041e-27
1.15634e-27
1.46559e-27
1.85227e-30
4.73103e-29
3.9793e-23
6.88564e-23
3.83215e-24
1.53363e-25
3.62414e-26
1.08209e-28
6.71917e-27
1.23642e-27
8.76756e-28
4.36113e-29
4.63603e-27
6.89006e-27
7.94101e-27
1.12808e-26
4.13704e-27
3.91516e-27
3.14391e-27
4.89028e-29
3.83478e-28
4.76388e-29
6.72964e-23
1.45783e-22
8.48128e-24
3.87636e-25
3.47774e-26
7.64154e-29
2.43484e-27
3.94717e-30
1.37539e-29
4.86367e-30
3.26127e-29
4.38252e-29
3.61589e-29
8.4911e-29
6.67021e-28
5.29497e-27
2.88271e-28
1.63066e-28
1.30161e-28
6.8974e-28
2.53272e-23
5.25069e-23
2.91363e-24
1.98491e-25
4.58539e-27
2.50693e-27
1.81789e-27
8.07671e-27
6.19505e-27
1.57403e-27
6.19635e-27
1.67997e-27
1.76663e-27
6.45255e-27
6.1609e-27
3.91595e-27
5.74255e-30
1.34142e-28
4.25061e-29
1.97214e-29
6.34084e-26
5.3542e-24
3.44911e-25
1.11612e-26
1.32593e-28
1.43086e-27
1.36237e-29
6.2774e-28
6.64853e-28
4.0549e-27
4.13396e-27
4.29195e-27
2.1114e-27
3.97267e-28
3.14273e-28
1.40011e-27
2.171e-29
2.20689e-27
6.66213e-30
2.06459e-29
1.42502e-23
7.42295e-23
4.26769e-24
1.93686e-25
1.95107e-26
2.02882e-27
3.50558e-28
1.59424e-28
3.80862e-29
2.31582e-29
1.55658e-27
6.51638e-29
3.89291e-29
4.25826e-27
4.59862e-27
3.41078e-27
1.99047e-28
6.28603e-31
3.44467e-31
5.46754e-29
4.41442e-24
1.22763e-23
7.82905e-25
2.22237e-26
1.35669e-26
4.58079e-27
9.91512e-27
3.19895e-27
9.41059e-27
1.11422e-26
8.35494e-27
7.01433e-27
2.62642e-27
2.51684e-28
6.97567e-28
1.42916e-27
3.8959e-28
2.74801e-27
3.21812e-28
1.08489e-28
1.81278e-23
3.70269e-23
1.62328e-24
1.03498e-25
3.04462e-27
3.82502e-28
7.99473e-28
8.97661e-30
1.69556e-27
1.27976e-27
1.04348e-28
1.09852e-28
4.51411e-28
6.02592e-28
7.61769e-29
2.20698e-28
1.40853e-30
1.00438e-28
3.64227e-28
6.47768e-28
)
;

boundaryField
{
    movingWall
    {
        type            calculated;
        value           nonuniform List<scalar> 
20
(
9.14567e-23
5.81946e-23
1.30683e-24
2.60224e-25
2.11611e-26
6.33057e-26
7.42885e-26
3.66367e-26
4.95765e-26
3.45411e-26
3.22059e-26
3.23014e-26
1.63041e-26
4.64923e-27
7.61769e-29
2.20698e-28
3.79664e-27
1.00438e-28
9.80969e-28
4.77326e-27
)
;
    }
    fixedWalls
    {
        type            calculated;
        value           nonuniform List<scalar> 
60
(
2.2667e-21
9.47497e-24
1.68485e-21
8.99775e-22
8.86164e-25
9.40057e-22
1.65037e-21
3.13356e-22
3.41867e-22
1.97978e-21
2.52081e-21
9.73928e-22
6.26737e-24
1.25935e-21
2.67512e-21
9.74808e-22
9.68757e-23
1.37298e-21
2.29903e-22
6.64162e-22
1.15521e-29
1.0779e-29
6.79994e-28
5.94073e-29
3.72799e-28
3.08422e-29
4.48645e-29
2.59564e-28
3.85284e-30
6.04219e-29
2.02706e-27
1.56574e-28
6.1595e-29
1.09499e-28
1.5133e-27
1.43793e-28
2.51472e-28
1.75244e-28
1.98264e-28
5.81479e-28
2.05649e-22
1.71282e-22
5.66e-24
5.10717e-25
2.3835e-27
2.1374e-26
1.58147e-26
1.1681e-26
5.51618e-27
4.09646e-27
7.09524e-27
2.99056e-27
1.08556e-27
1.41095e-27
2.93417e-27
3.43027e-27
2.86401e-27
5.28355e-28
1.53721e-29
1.43053e-27
)
;
    }
    frontAndBack
    {
        type            empty;
    }
}


// ************************************************************************* //
