/*--------------------------------*- C++ -*----------------------------------*\
| =========                 |                                                 |
| \\      /  F ield         | OpenFOAM: The Open Source CFD Toolbox           |
|  \\    /   O peration     | Version:  2506                                  |
|   \\  /    A nd           | Website:  www.openfoam.com                      |
|    \\/     M anipulation  |                                                 |
\*---------------------------------------------------------------------------*/
FoamFile
{
    version     2.0;
    format      ascii;
    arch        "LSB;label=32;scalar=64";
    class       volScalarField;
    location    "9.5";
    object      flowTypeField;
}
// * * * * * * * * * * * * * * * * * * * * * * * * * * * * * * * * * * * * * //

dimensions      [0 0 0 0 0 0 0];

internalField   nonuniform List<scalar> 
400
(
0.438549
0.0654379
0.0481166
0.0555007
0.170489
0.572001
0.125118
0.0131373
0.113847
0.274288
0.225777
-0.111597
0.894218
0.683013
0.274458
0.2209
0.710022
-0.0714937
0.106544
0.607633
0.980759
0.850482
0.777104
0.865133
0.443357
0.631362
0.810302
0.193976
-0.137599
-0.187298
-0.112501
0.190063
0.138937
0.174587
-0.858984
-0.449946
-0.100355
0.479388
0.862746
0.919015
0.559488
0.124416
0.0323057
0.184574
-0.150883
0.254226
0.124144
0.329257
0.571773
-0.160134
0.26659
0.00663403
0.212599
0.515547
0.292596
0.0205567
-0.140854
-0.108816
0.0953267
0.0468167
0.703059
0.153558
0.145902
0.0567333
0.164931
0.896945
0.416268
-0.0393678
-0.196823
-0.196501
0.177914
0.0832187
0.0689481
0.48303
0.436275
0.735426
0.0535647
0.340607
0.735355
0.824461
0.991874
0.900003
0.930396
0.89787
0.805599
0.494731
0.0243427
0.0664223
0.0328565
-0.0623663
0.0585437
0.00801549
0.750856
0.23167
-0.119997
0.259709
-0.244287
-0.114172
0.274618
0.294615
0.562936
0.1128
0.0602585
0.172215
0.191626
0.188477
0.289506
0.863656
0.807722
0.50859
0.794518
0.502832
0.195322
0.656857
0.78779
0.84288
0.272467
-0.312158
0.120876
0.025028
0.241389
0.0723872
-0.048358
0.233258
-0.667442
0.330665
-0.066451
0.143298
0.150499
0.00520788
-0.602489
0.373916
-0.259138
-0.162539
-0.26598
0.127566
0.0625368
0.659433
0.0988357
0.632386
0.79147
0.236299
0.219
0.38451
0.0615056
0.975357
0.331035
-0.176245
0.295009
0.724295
0.355126
0.874264
0.248981
0.150071
0.200142
0.816803
-0.220588
0.558414
0.0680549
0.673241
0.713125
0.233457
0.149702
0.40075
-0.360252
-0.0306163
0.202297
0.331323
0.840201
-0.168846
-0.564282
-0.566559
0.338722
-0.407989
-0.0111829
0.530146
-0.170501
-0.042445
0.50445
0.268892
0.244392
0.0382741
-0.0647658
0.0445442
0.0136896
0.797733
0.619537
0.000459085
0.212675
0.915114
0.442688
0.19025
0.144829
0.943004
0.788025
0.139797
-0.340448
0.580821
0.971072
0.760445
0.0477561
0.0102889
-0.0343052
-0.105408
0.346556
-0.680831
0.531975
-0.642132
-0.039306
-0.127264
0.162149
-0.0412685
-0.0771763
0.292074
0.0556051
-0.112042
-0.308169
-0.034724
0.265136
-0.0999025
0.547354
0.0842032
0.0460196
0.132537
-0.406702
0.539095
0.0260238
0.440175
0.293462
0.334885
-0.10889
-0.122211
-0.136931
-0.152975
0.0547528
0.2739
0.301697
0.278906
0.227891
0.229697
0.920521
0.778573
0.863624
0.636696
0.547935
-0.0706086
0.016416
0.843963
0.0355234
0.0378738
0.943106
0.401114
0.349169
0.359964
0.4976
-0.0992019
0.175357
0.111672
0.297541
0.76946
0.521465
0.0833385
0.0260234
0.14743
-0.601571
0.720204
-0.0628479
0.107725
0.227795
0.64517
0.134751
-0.0751216
-0.143055
-0.106535
-0.0987169
-0.0267103
0.0989697
0.598274
0.253017
0.701636
0.225828
0.0603293
-0.032752
0.0673358
-0.242681
0.76411
-0.228893
0.323109
9.46349e-06
0.825252
0.678383
0.402259
0.0552277
0.519353
-0.103341
-0.21491
0.583952
0.204655
0.40099
-0.310356
0.661236
0.163313
0.120243
0.00205858
0.30097
-0.132849
0.357115
-0.116822
0.00791588
-0.0338633
-0.0263736
-0.0683401
-0.0916837
-0.0314557
0.0915646
0.102674
0.910161
0.056195
0.0259456
0.0204935
0.981223
0.517119
0.492029
0.53338
0.808978
0.05637
0.912513
-0.192309
-0.311395
-0.106388
-0.115459
-0.134875
0.150419
-0.0354623
0.527634
-0.0569938
0.838937
-0.202721
0.241295
0.00210958
0.53695
0.123154
0.0274732
0.116192
-0.157666
0.222055
0.331042
0.160107
0.310073
0.015509
-0.00443787
0.655091
0.81069
0.100084
-0.0964561
0.036713
0.494558
0.273249
0.928494
0.570342
0.842479
0.349256
0.289585
0.445296
-0.322104
0.198119
0.0522018
0.17708
0.0084356
-0.100792
-0.148249
-0.0829257
0.18231
0.583704
0.074862
-0.647039
0.28283
-0.361047
0.0634759
0.447102
0.590158
0.108361
0.12333
0.0628262
0.286561
0.0269191
0.267092
0.790375
0.0416373
0.0763321
0.536999
0.680419
0.535723
0.267996
0.643784
0.576876
0.942655
0.47884
0.321794
0.369223
)
;

boundaryField
{
    movingWall
    {
        type            calculated;
        value           nonuniform List<scalar> 
20
(
0.597336
0.114456
0.360614
-0.0535064
0.343709
-0.00040577
0.0400652
0.000439136
-0.0063672
0.017372
0.0560716
0.0831234
0.112439
0.132588
0.745313
0.58275
0.177677
0.482323
0.230763
0.0641306
)
;
    }
    fixedWalls
    {
        type            calculated;
        value           nonuniform List<scalar> 
60
(
0.0606086
0.84294
0.104708
0.154273
0.931378
0.104518
0.0415806
0.246625
0.220714
0.0169432
0.00256751
0.0858025
0.811436
0.0770367
0.0453893
0.157657
0.532362
0.104939
0.356968
0.112449
0.840661
0.919311
0.0238983
0.776142
0.43375
0.0369359
0.194539
0.0125601
0.918572
0.848048
0.329959
0.60129
0.83123
0.717335
-0.707032
0.00311622
0.00018714
0.547603
0.261905
0.572425
0.656733
0.160253
0.301125
0.103963
0.77231
-0.114434
0.0952548
-0.0910012
-0.179985
0.0170971
0.105531
0.173313
0.278278
0.0752494
0.246951
0.209731
0.260758
0.406904
0.758936
-0.00853998
)
;
    }
    frontAndBack
    {
        type            empty;
    }
}


// ************************************************************************* //
