/*--------------------------------*- C++ -*----------------------------------*\
| =========                 |                                                 |
| \\      /  F ield         | OpenFOAM: The Open Source CFD Toolbox           |
|  \\    /   O peration     | Version:  2506                                  |
|   \\  /    A nd           | Website:  www.openfoam.com                      |
|    \\/     M anipulation  |                                                 |
\*---------------------------------------------------------------------------*/
FoamFile
{
    version     2.0;
    format      ascii;
    arch        "LSB;label=32;scalar=64";
    class       surfaceScalarField;
    location    "9.5";
    object      fluxField;
}
// * * * * * * * * * * * * * * * * * * * * * * * * * * * * * * * * * * * * * //

dimensions      [0 3 -1 0 0 0 0];

oriented        oriented;

internalField   nonuniform List<scalar> 
760
(
-5e-05
4.61914e-18
-5e-05
-9.93497e-19
-5e-05
2.34851e-19
-5e-05
-4.67706e-20
-5e-05
1.52908e-20
-5e-05
3.66869e-21
-5e-05
3.62122e-21
-5e-05
-8.20216e-22
-5e-05
-2.23576e-21
-5e-05
-5.43994e-22
-5e-05
3.15361e-21
-5e-05
5.34899e-21
-5e-05
5.96285e-21
-5e-05
5.26124e-21
-5e-05
2.73267e-21
-5e-05
-4.06493e-21
-5e-05
-3.94283e-21
-5e-05
6.10548e-22
-5e-05
1.60496e-21
1.02266e-23
-5e-05
-3.68972e-18
-5e-05
7.9845e-19
-5e-05
-1.99364e-19
-5e-05
4.02533e-20
-5e-05
-6.38441e-21
-5e-05
3.5086e-21
-5e-05
-2.51737e-21
-5e-05
-2.88573e-21
-5e-05
-2.44427e-21
-5e-05
2.25692e-21
-5e-05
1.75563e-21
-5e-05
2.37195e-22
-5e-05
-4.52423e-22
-5e-05
2.61833e-21
-5e-05
3.19625e-21
-5e-05
-1.14693e-21
-5e-05
-3.38389e-21
-5e-05
-4.47271e-21
-5e-05
-4.46299e-21
-2.59507e-21
-5e-05
-1.06823e-18
-5e-05
2.07558e-19
-5e-05
-7.29002e-20
-5e-05
-3.15579e-21
-5e-05
-3.40618e-21
-5e-05
3.21436e-21
-5e-05
5.10774e-21
-5e-05
6.96956e-21
-5e-05
3.68668e-21
-5e-05
6.04835e-23
-5e-05
-5.63968e-21
-5e-05
-6.70763e-21
-5e-05
-6.96202e-21
-5e-05
-3.988e-21
-5e-05
-2.43624e-21
-5e-05
1.88827e-22
-5e-05
-3.35753e-22
-5e-05
-4.18764e-21
-5e-05
-7.13508e-21
-4.6802e-21
-5e-05
3.03776e-18
-5e-05
-6.82272e-19
-5e-05
1.41755e-19
-5e-05
-4.93777e-20
-5e-05
1.20254e-21
-5e-05
-2.30907e-21
-5e-05
4.77017e-21
-5e-05
5.73033e-21
-5e-05
3.5373e-21
-5e-05
-3.42279e-22
-5e-05
-1.60334e-21
-5e-05
-3.51354e-21
-5e-05
-4.80517e-21
-5e-05
-3.94257e-21
-5e-05
-5.41121e-21
-5e-05
-3.76691e-21
-5e-05
-1.02238e-21
-5e-05
-6.47877e-23
-5e-05
-2.95396e-21
-2.38787e-21
-5e-05
-2.74709e-18
-5e-05
5.92041e-19
-5e-05
-1.46152e-19
-5e-05
2.35645e-20
-5e-05
-1.47259e-20
-5e-05
-2.33233e-21
-5e-05
-1.21697e-21
-5e-05
5.91791e-22
-5e-05
-3.6094e-22
-5e-05
1.81526e-22
-5e-05
-9.57838e-22
-5e-05
-4.03875e-21
-5e-05
-4.33672e-21
-5e-05
-2.55209e-21
-5e-05
-2.78243e-21
-5e-05
-2.79773e-21
-5e-05
-1.36086e-21
-5e-05
2.05748e-21
-5e-05
2.02805e-21
4.78335e-22
-5e-05
8.70575e-19
-5e-05
-1.84331e-19
-5e-05
4.5788e-20
-5e-05
-9.82806e-21
-5e-05
2.7418e-21
-5e-05
1.52098e-21
-5e-05
3.93096e-21
-5e-05
5.62337e-21
-5e-05
5.24258e-21
-5e-05
9.14317e-23
-5e-05
-9.40992e-21
-5e-05
-1.16184e-20
-5e-05
-6.52538e-21
-5e-05
-3.66345e-22
-5e-05
2.036e-21
-5e-05
2.97021e-21
-5e-05
1.75406e-21
-5e-05
1.93463e-21
-5e-05
2.05485e-21
-1.01163e-22
-5e-05
2.06339e-18
-5e-05
-4.49013e-19
-5e-05
1.10648e-19
-5e-05
-1.94872e-20
-5e-05
9.18235e-21
-5e-05
4.03282e-22
-5e-05
9.15528e-23
-5e-05
3.33846e-21
-5e-05
7.55077e-21
-5e-05
1.27864e-21
-5e-05
-7.0955e-21
-5e-05
-9.20618e-21
-5e-05
-6.89007e-21
-5e-05
-2.4991e-21
-5e-05
6.78011e-22
-5e-05
1.8622e-21
-5e-05
2.72529e-21
-5e-05
2.56703e-21
-5e-05
1.41839e-21
-2.01606e-21
-5e-05
-3.28192e-18
-5e-05
7.05924e-19
-5e-05
-1.65713e-19
-5e-05
3.83599e-20
-5e-05
-1.02232e-20
-5e-05
-4.74884e-21
-5e-05
-1.13854e-20
-5e-05
-4.46583e-21
-5e-05
1.28472e-22
-5e-05
-3.79603e-21
-5e-05
-4.32252e-21
-5e-05
1.77215e-21
-5e-05
1.93866e-21
-5e-05
-3.4719e-21
-5e-05
-5.38161e-21
-5e-05
-3.80828e-21
-5e-05
8.42906e-22
-5e-05
4.24602e-21
-5e-05
2.79648e-21
-2.94459e-21
-5e-05
2.32057e-18
-5e-05
-5.08187e-19
-5e-05
1.19392e-19
-5e-05
-2.16098e-20
-5e-05
4.58858e-21
-5e-05
-6.30933e-21
-5e-05
-5.44711e-21
-5e-05
-2.31077e-21
-5e-05
-2.71713e-21
-5e-05
-4.84126e-21
-5e-05
-3.88216e-21
-5e-05
3.68701e-21
-5e-05
6.90148e-21
-5e-05
1.78104e-21
-5e-05
-1.0201e-21
-5e-05
-2.37416e-22
-5e-05
6.4915e-22
-5e-05
-2.26484e-22
-5e-05
-1.41286e-21
-3.90169e-21
-5e-05
-4.99873e-19
-5e-05
9.93079e-20
-5e-05
-2.07949e-20
-5e-05
4.70829e-21
-5e-05
-1.83279e-21
-5e-05
3.26587e-21
-5e-05
7.79097e-21
-5e-05
3.64573e-21
-5e-05
-4.25516e-21
-5e-05
-1.80384e-22
-5e-05
2.63592e-21
-5e-05
1.48925e-21
-5e-05
2.70394e-21
-5e-05
1.91946e-21
-5e-05
3.41161e-21
-5e-05
2.63305e-21
-5e-05
-6.83201e-22
-5e-05
-6.49518e-21
-5e-05
-6.69178e-21
-4.66655e-21
-5e-05
-1.6387e-18
-5e-05
3.38258e-19
-5e-05
-8.61773e-20
-5e-05
8.15626e-21
-5e-05
-8.13773e-21
-5e-05
3.47198e-21
-5e-05
7.59864e-21
-5e-05
2.48931e-21
-5e-05
-4.80029e-21
-5e-05
-3.12008e-21
-5e-05
5.68806e-22
-5e-05
1.13076e-21
-5e-05
3.32025e-21
-5e-05
5.85193e-21
-5e-05
7.82341e-21
-5e-05
4.4911e-21
-5e-05
4.39568e-22
-5e-05
-3.96522e-21
-5e-05
-4.85753e-21
-1.69736e-21
-5e-05
2.96444e-18
-5e-05
-6.50274e-19
-5e-05
1.40362e-19
-5e-05
-3.79315e-20
-5e-05
4.6115e-21
-5e-05
-3.27744e-21
-5e-05
2.7351e-22
-5e-05
-2.5659e-21
-5e-05
-2.37409e-21
-5e-05
-5.65356e-21
-5e-05
-3.41637e-21
-5e-05
-1.60846e-21
-5e-05
-1.53886e-22
-5e-05
6.56631e-21
-5e-05
8.59439e-21
-5e-05
4.5129e-21
-5e-05
-8.25893e-23
-5e-05
-1.15373e-21
-5e-05
-2.80437e-21
-1.05626e-22
-5e-05
-3.03906e-18
-5e-05
6.65367e-19
-5e-05
-1.60894e-19
-5e-05
3.17398e-20
-5e-05
-1.21884e-20
-5e-05
-1.97648e-21
-5e-05
-3.8095e-21
-5e-05
-4.9247e-21
-5e-05
-1.99001e-21
-5e-05
-1.35827e-21
-5e-05
2.80786e-21
-5e-05
2.3829e-21
-5e-05
-1.34643e-21
-5e-05
3.59635e-22
-5e-05
-4.54371e-22
-5e-05
-2.62154e-21
-5e-05
-5.94499e-21
-5e-05
-3.64662e-21
-5e-05
-3.45516e-21
-3.31267e-21
-5e-05
1.57213e-18
-5e-05
-3.5317e-19
-5e-05
8.12199e-20
-5e-05
-2.24176e-20
-5e-05
-4.46826e-22
-5e-05
-3.46228e-21
-5e-05
-1.03399e-21
-5e-05
-1.44494e-21
-5e-05
-6.15785e-22
-5e-05
3.27655e-22
-5e-05
3.04594e-21
-5e-05
5.37889e-21
-5e-05
3.14434e-21
-5e-05
-1.14802e-21
-5e-05
-4.04397e-21
-5e-05
-1.20485e-21
-5e-05
-4.39393e-22
-5e-05
-1.47346e-21
-5e-05
-2.48176e-21
-4.36332e-21
-5e-05
1.90002e-18
-5e-05
-4.26595e-19
-5e-05
9.14483e-20
-5e-05
-2.75528e-20
-5e-05
1.73603e-21
-5e-05
-5.88952e-21
-5e-05
-4.57625e-21
-5e-05
-4.7445e-22
-5e-05
-6.09708e-22
-5e-05
-1.063e-21
-5e-05
-9.1506e-22
-5e-05
1.68162e-21
-5e-05
2.36421e-21
-5e-05
8.63408e-22
-5e-05
1.40946e-22
-5e-05
3.86413e-21
-5e-05
7.33471e-21
-5e-05
2.24344e-21
-5e-05
-1.27492e-21
-2.80425e-21
-5e-05
-3.93455e-18
-5e-05
8.46499e-19
-5e-05
-2.08964e-19
-5e-05
3.53672e-20
-5e-05
-1.40958e-20
-5e-05
-4.83155e-21
-5e-05
-9.76742e-21
-5e-05
-4.6147e-21
-5e-05
-3.01653e-21
-5e-05
-1.55203e-21
-5e-05
-3.57357e-22
-5e-05
1.57677e-21
-5e-05
3.4149e-21
-5e-05
5.57781e-21
-5e-05
4.98061e-21
-5e-05
-4.40435e-23
-5e-05
3.23286e-22
-5e-05
7.56061e-22
-5e-05
-7.15004e-22
-2.46155e-21
-5e-05
2.60166e-18
-5e-05
-5.7e-19
-5e-05
1.29717e-19
-5e-05
-3.37022e-20
-5e-05
4.69468e-21
-5e-05
-5.75272e-22
-5e-05
4.69586e-22
-5e-05
-2.03686e-21
-5e-05
-1.91256e-21
-5e-05
-1.87876e-21
-5e-05
-1.42916e-21
-5e-05
1.281e-22
-5e-05
4.2584e-21
-5e-05
5.02728e-21
-5e-05
1.78655e-21
-5e-05
-4.8872e-21
-5e-05
-4.98587e-21
-5e-05
-1.45167e-21
-5e-05
-1.64901e-21
-2.57174e-21
-5e-05
2.22122e-18
-5e-05
-4.84224e-19
-5e-05
1.08961e-19
-5e-05
-2.60128e-20
-5e-05
6.06902e-21
-5e-05
2.51975e-21
-5e-05
4.84117e-21
-5e-05
1.03947e-21
-5e-05
7.09166e-22
-5e-05
-1.55871e-21
-5e-05
-4.4309e-21
-5e-05
-7.1667e-21
-5e-05
-4.08249e-21
-5e-05
-2.75111e-21
-5e-05
-5.65765e-21
-5e-05
-3.83628e-21
-5e-05
6.12528e-22
-5e-05
-1.8459e-21
-5e-05
-4.0884e-21
-1.61959e-21
-5e-05
-3.80612e-18
-5e-05
8.05806e-19
-5e-05
-1.9238e-19
-5e-05
4.25205e-20
-5e-05
-5.60264e-21
-5e-05
2.16005e-21
-5e-05
-2.2882e-21
-5e-05
-2.71943e-21
-5e-05
-8.96848e-22
-5e-05
-2.12989e-21
-5e-05
-5.24012e-21
-5e-05
-1.05062e-20
-5e-05
-1.08164e-20
-5e-05
-7.56105e-21
-5e-05
-7.74644e-21
-5e-05
-1.91365e-21
-5e-05
4.09549e-21
-5e-05
-1.29186e-21
-5e-05
-4.42902e-21
-8.86822e-22
-5e-05
-5e-05
-5e-05
-5e-05
-5e-05
-5e-05
-5e-05
-5e-05
-5e-05
-5e-05
-5e-05
-5e-05
-5e-05
-5e-05
-5e-05
-5e-05
-5e-05
-5e-05
-5e-05
)
;

boundaryField
{
    movingWall
    {
        type            calculated;
        value           uniform -0;
    }
    fixedWalls
    {
        type            calculated;
        value           nonuniform List<scalar> 
60
(
5e-05
5e-05
5e-05
5e-05
5e-05
5e-05
5e-05
5e-05
5e-05
5e-05
5e-05
5e-05
5e-05
5e-05
5e-05
5e-05
5e-05
5e-05
5e-05
5e-05
-5e-05
-5e-05
-5e-05
-5e-05
-5e-05
-5e-05
-5e-05
-5e-05
-5e-05
-5e-05
-5e-05
-5e-05
-5e-05
-5e-05
-5e-05
-5e-05
-5e-05
-5e-05
-5e-05
-5e-05
0
0
0
0
0
0
0
0
0
0
0
0
0
0
0
0
0
0
0
0
)
;
    }
    frontAndBack
    {
        type            empty;
    }
}


// ************************************************************************* //
