/*--------------------------------*- C++ -*----------------------------------*\
| =========                 |                                                 |
| \\      /  F ield         | OpenFOAM: The Open Source CFD Toolbox           |
|  \\    /   O peration     | Version:  2506                                  |
|   \\  /    A nd           | Website:  www.openfoam.com                      |
|    \\/     M anipulation  |                                                 |
\*---------------------------------------------------------------------------*/
FoamFile
{
    version     2.0;
    format      ascii;
    arch        "LSB;label=32;scalar=64";
    class       volTensorField;
    location    "9.5";
    object      gradU;
}
// * * * * * * * * * * * * * * * * * * * * * * * * * * * * * * * * * * * * * //

dimensions      [0 0 -1 0 0 0 0];

internalField   nonuniform List<tensor> 
400
(
(-1.16552e-12 1.35303e-11 0 1.70762e-12 1.84766e-11 0 0 0 0)
(1.73472e-12 -1.63769e-11 0 -5.69206e-13 -3.97399e-12 0 0 0 0)
(-4.87891e-13 3.54216e-12 0 2.71051e-14 9.39405e-13 0 0 0 0)
(2.71051e-14 -8.33024e-13 0 -2.71051e-14 -1.87082e-13 0 0 0 0)
(0 1.9741e-13 0 2.71051e-14 6.1163e-14 0 0 0 0)
(-2.71051e-14 -2.91203e-14 0 -5.42101e-14 1.46747e-14 0 0 0 0)
(-2.71051e-14 -2.10847e-16 0 -5.42101e-14 1.44849e-14 0 0 0 0)
(0 -1.96194e-14 0 0 -3.28087e-15 0 0 0 0)
(0 -1.62172e-14 0 0 -8.94304e-15 0 0 0 0)
(0 -1.69692e-15 0 0 -2.17597e-15 0 0 0 0)
(0 1.4103e-14 0 0 1.26144e-14 0 0 0 0)
(0 1.14802e-14 0 -5.42101e-14 2.13959e-14 0 0 0 0)
(-2.71051e-14 -2.18644e-15 0 0 2.38514e-14 0 0 0 0)
(-2.71051e-14 -8.71255e-15 0 0 2.1045e-14 0 0 0 0)
(-5.42101e-14 -1.22127e-14 0 -8.13152e-14 1.09307e-14 0 0 0 0)
(5.42101e-14 -5.98951e-15 0 -8.13152e-14 -1.62597e-14 0 0 0 0)
(5.42101e-14 1.31342e-14 0 0 -1.57713e-14 0 0 0 0)
(-2.71051e-14 1.19018e-14 0 -5.42101e-14 2.44219e-15 0 0 0 0)
(0 -5.54474e-15 0 -5.42101e-14 6.41985e-15 0 0 0 0)
(-2.71051e-14 -9.07994e-15 0 0 4.09065e-17 0 0 0 0)
(2.38524e-12 9.72278e-13 0 5.14996e-13 -3.32355e-11 0 0 0 0)
(-3.46945e-12 -1.16029e-12 0 -2.43945e-13 7.16779e-12 0 0 0 0)
(9.75782e-13 2.4475e-13 0 -1.0842e-13 -1.73686e-12 0 0 0 0)
(0 -4.52175e-14 0 -8.13152e-14 3.48096e-13 0 0 0 0)
(-5.42101e-14 4.3471e-15 0 -5.42101e-14 -8.67007e-14 0 0 0 0)
(0 -1.75578e-14 0 -2.71051e-14 -6.40337e-16 0 0 0 0)
(5.42101e-14 -1.77448e-14 0 -2.71051e-14 -2.45544e-14 0 0 0 0)
(5.42101e-14 -3.80852e-15 0 -8.13152e-14 -8.26206e-15 0 0 0 0)
(2.71051e-14 1.73221e-14 0 -8.13152e-14 -8.3403e-16 0 0 0 0)
(-2.71051e-14 2.32544e-14 0 -8.13152e-14 1.12036e-14 0 0 0 0)
(0 9.46895e-15 0 -8.13152e-14 -5.5919e-15 0 0 0 0)
(0 -2.43208e-16 0 -2.71051e-14 -2.04472e-14 0 0 0 0)
(2.71051e-14 1.83546e-15 0 -5.42101e-14 -2.56611e-14 0 0 0 0)
(-2.71051e-14 -4.20818e-15 0 -5.42101e-14 -1.05716e-14 0 0 0 0)
(0 -2.50919e-14 0 2.71051e-14 1.85433e-15 0 0 0 0)
(0 -2.07125e-14 0 2.71051e-14 1.1672e-14 0 0 0 0)
(0 5.5677e-15 0 -5.42101e-14 2.23576e-15 0 0 0 0)
(0 1.02893e-14 0 0 -2.0333e-14 0 0 0 0)
(2.71051e-14 3.14346e-15 0 0 -2.42718e-14 0 0 0 0)
(5.42101e-14 2.61918e-15 0 0 -1.04212e-14 0 0 0 0)
(-8.94467e-13 -1.25374e-11 0 -5.85469e-12 1.0486e-11 0 0 0 0)
(1.0842e-12 1.51217e-11 0 1.70762e-12 -2.36357e-12 0 0 0 0)
(-3.25261e-13 -3.27754e-12 0 -5.42101e-14 5.05854e-13 0 0 0 0)
(8.13152e-14 8.17134e-13 0 1.35525e-13 -1.73637e-13 0 0 0 0)
(8.13152e-14 -1.51326e-13 0 5.42101e-14 1.19129e-14 0 0 0 0)
(-2.71051e-14 3.3026e-14 0 1.35525e-13 -1.17696e-15 0 0 0 0)
(-5.42101e-14 -7.83257e-15 0 8.13152e-14 3.05004e-14 0 0 0 0)
(-8.13152e-14 4.10092e-15 0 8.13152e-14 3.94212e-14 0 0 0 0)
(-5.42101e-14 3.24851e-15 0 2.71051e-14 2.45238e-14 0 0 0 0)
(0 -6.45478e-15 0 2.71051e-14 -8.78573e-15 0 0 0 0)
(1.0842e-13 -1.75478e-14 0 8.13152e-14 -2.95812e-14 0 0 0 0)
(2.71051e-14 -8.58902e-15 0 8.13152e-14 -2.77793e-14 0 0 0 0)
(0 7.68909e-15 0 5.42101e-14 -2.60384e-14 0 0 0 0)
(5.42101e-14 1.88029e-14 0 5.42101e-14 -2.64253e-14 0 0 0 0)
(2.71051e-14 1.00309e-14 0 5.42101e-14 -2.253e-14 0 0 0 0)
(-2.71051e-14 -5.60808e-15 0 5.42101e-14 5.34305e-15 0 0 0 0)
(2.71051e-14 -1.88708e-14 0 8.13152e-14 1.21926e-14 0 0 0 0)
(-2.71051e-14 -1.46057e-14 0 8.13152e-14 1.1403e-15 0 0 0 0)
(0 4.36712e-15 0 5.42101e-14 -1.06883e-14 0 0 0 0)
(0 2.56131e-14 0 0 -8.34055e-15 0 0 0 0)
(-1.81604e-12 9.0947e-12 0 4.39102e-12 1.6424e-11 0 0 0 0)
(2.38524e-12 -1.11404e-11 0 -1.11131e-12 -3.55932e-12 0 0 0 0)
(-5.96311e-13 2.43468e-12 0 1.89735e-13 8.58621e-13 0 0 0 0)
(5.42101e-14 -5.39158e-13 0 0 -1.84888e-13 0 0 0 0)
(-2.71051e-14 1.76807e-13 0 2.71051e-14 1.84349e-14 0 0 0 0)
(0 1.02969e-15 0 0 -2.20937e-14 0 0 0 0)
(0 2.28534e-14 0 5.42101e-14 -1.35028e-15 0 0 0 0)
(2.71051e-14 -9.78518e-15 0 5.42101e-14 -4.9569e-15 0 0 0 0)
(2.71051e-14 -3.08848e-14 0 1.35525e-13 -5.97519e-16 0 0 0 0)
(2.71051e-14 -3.08506e-14 0 1.35525e-13 -1.61105e-15 0 0 0 0)
(-5.42101e-14 -9.52463e-15 0 5.42101e-14 1.61453e-14 0 0 0 0)
(0 3.29966e-15 0 5.42101e-14 1.27764e-14 0 0 0 0)
(0 3.18944e-15 0 5.42101e-14 8.62738e-15 0 0 0 0)
(-5.42101e-14 -6.99763e-16 0 2.71051e-14 1.81743e-16 0 0 0 0)
(0 6.67644e-15 0 0 -1.18999e-14 0 0 0 0)
(5.42101e-14 1.401e-14 0 2.71051e-14 -1.5823e-14 0 0 0 0)
(0 1.36495e-15 0 2.71051e-14 -2.74651e-15 0 0 0 0)
(-5.42101e-14 -1.25916e-14 0 2.71051e-14 1.64914e-14 0 0 0 0)
(2.71051e-14 -6.33739e-15 0 0 1.67245e-14 0 0 0 0)
(-2.71051e-14 2.16481e-14 0 2.71051e-14 9.16936e-15 0 0 0 0)
(2.35814e-12 3.27259e-13 0 4.60786e-13 -2.31394e-11 0 0 0 0)
(-3.08998e-12 -4.43598e-13 0 0 5.09725e-12 0 0 0 0)
(7.58942e-13 9.68942e-14 0 2.71051e-14 -1.15163e-12 0 0 0 0)
(-1.0842e-13 -2.30515e-14 0 0 2.91769e-13 0 0 0 0)
(8.13152e-14 1.14678e-14 0 2.71051e-14 -6.37138e-14 0 0 0 0)
(2.71051e-14 1.32409e-14 0 0 -9.30373e-17 0 0 0 0)
(0 9.30425e-15 0 -2.71051e-14 -2.39486e-14 0 0 0 0)
(0 4.85369e-15 0 -2.71051e-14 -2.05542e-14 0 0 0 0)
(2.71051e-14 6.59436e-15 0 -5.42101e-14 -1.5593e-14 0 0 0 0)
(-2.71051e-14 1.02881e-14 0 -8.13152e-14 2.09522e-15 0 0 0 0)
(0 -3.16041e-15 0 -5.42101e-14 2.58202e-15 0 0 0 0)
(0 -1.6107e-14 0 0 -2.10085e-15 0 0 0 0)
(-2.71051e-14 -4.90555e-15 0 0 1.8738e-15 0 0 0 0)
(2.71051e-14 -1.72438e-15 0 2.71051e-14 5.5619e-15 0 0 0 0)
(0 -5.97382e-15 0 2.71051e-14 1.05151e-14 0 0 0 0)
(0 3.54528e-15 0 0 3.87671e-15 0 0 0 0)
(0 1.34435e-14 0 -5.42101e-14 -1.35393e-15 0 0 0 0)
(0 4.86525e-15 0 -2.71051e-14 8.48907e-15 0 0 0 0)
(-2.71051e-14 -2.95492e-15 0 2.71051e-14 1.9928e-14 0 0 0 0)
(-2.71051e-14 -2.80783e-16 0 -2.71051e-14 1.14648e-14 0 0 0 0)
(-1.32815e-12 -8.94746e-12 0 -2.38524e-12 1.44707e-11 0 0 0 0)
(1.95156e-12 1.08474e-11 0 7.31836e-13 -3.10549e-12 0 0 0 0)
(-5.69206e-13 -2.3708e-12 0 2.71051e-14 7.6776e-13 0 0 0 0)
(5.42101e-14 5.48756e-13 0 8.13152e-14 -1.3357e-13 0 0 0 0)
(-5.42101e-14 -1.15055e-13 0 0 6.98708e-14 0 0 0 0)
(-2.71051e-14 4.07949e-14 0 0 1.54132e-14 0 0 0 0)
(-2.71051e-14 2.39223e-15 0 -2.71051e-14 2.05917e-14 0 0 0 0)
(0 -1.42958e-15 0 0 2.01263e-14 0 0 0 0)
(-5.42101e-14 -8.23542e-15 0 0 2.24141e-14 0 0 0 0)
(-2.71051e-14 -1.26757e-14 0 0 -3.60377e-16 0 0 0 0)
(8.13152e-14 -1.37207e-14 0 0 -3.38083e-14 0 0 0 0)
(5.42101e-14 2.59143e-15 0 -2.71051e-14 -3.03185e-14 0 0 0 0)
(0 1.08522e-14 0 0 -8.75464e-15 0 0 0 0)
(-2.71051e-14 7.94154e-15 0 0 8.74299e-15 0 0 0 0)
(-2.71051e-14 4.99126e-15 0 0 1.92737e-14 0 0 0 0)
(0 2.14099e-15 0 0 2.30718e-14 0 0 0 0)
(0 5.9773e-15 0 2.71051e-14 1.24597e-14 0 0 0 0)
(0 8.69039e-15 0 -2.71051e-14 -4.91415e-16 0 0 0 0)
(0 -3.36166e-15 0 -2.71051e-14 1.0723e-16 0 0 0 0)
(0 -9.74475e-15 0 0 -2.31799e-15 0 0 0 0)
(7.04731e-13 1.16924e-11 0 2.22261e-12 4.77126e-12 0 0 0 0)
(-6.77626e-13 -1.41465e-11 0 -9.75782e-13 -1.05873e-12 0 0 0 0)
(1.0842e-13 3.06881e-12 0 -1.6263e-13 2.5944e-13 0 0 0 0)
(-1.0842e-13 -7.20941e-13 0 -1.6263e-13 -3.86365e-14 0 0 0 0)
(2.71051e-14 1.60451e-13 0 -1.35525e-13 2.57622e-14 0 0 0 0)
(0 -3.60383e-14 0 -1.0842e-13 -4.47078e-15 0 0 0 0)
(-2.71051e-14 1.40173e-14 0 -5.42101e-14 -1.53576e-14 0 0 0 0)
(2.71051e-14 6.67608e-15 0 -2.71051e-14 -9.13962e-15 0 0 0 0)
(0 -1.38923e-14 0 0 9.23274e-15 0 0 0 0)
(0 -4.59343e-14 0 0 4.74882e-15 0 0 0 0)
(0 -3.31185e-14 0 2.71051e-14 9.25765e-15 0 0 0 0)
(-5.42101e-14 8.9467e-15 0 -2.71051e-14 9.64877e-15 0 0 0 0)
(2.71051e-14 3.41559e-14 0 -1.0842e-13 -1.45874e-15 0 0 0 0)
(2.71051e-14 2.6304e-14 0 -1.35525e-13 -8.53104e-15 0 0 0 0)
(0 8.35495e-15 0 -2.71051e-14 -5.43194e-15 0 0 0 0)
(0 -3.26873e-15 0 -2.71051e-14 -4.43203e-15 0 0 0 0)
(-2.71051e-14 -1.01196e-14 0 2.71051e-14 3.8849e-15 0 0 0 0)
(-2.71051e-14 -7.48722e-15 0 0 2.5296e-15 0 0 0 0)
(0 -4.7815e-15 0 0 -2.54584e-15 0 0 0 0)
(0 1.92998e-15 0 0 -7.65957e-15 0 0 0 0)
(-1.35525e-13 -5.23493e-12 0 -1.6263e-12 -2.13812e-11 0 0 0 0)
(-4.33681e-13 6.33554e-12 0 4.87891e-13 4.61975e-12 0 0 0 0)
(2.98156e-13 -1.35071e-12 0 0 -1.10545e-12 0 0 0 0)
(8.13152e-14 3.15078e-13 0 8.13152e-14 2.31388e-13 0 0 0 0)
(0 -8.08893e-14 0 2.71051e-14 -7.76222e-14 0 0 0 0)
(5.42101e-14 -3.24908e-16 0 0 -2.06085e-14 0 0 0 0)
(5.42101e-14 -2.27661e-15 0 5.42101e-14 -4.59077e-14 0 0 0 0)
(0 2.31608e-14 0 -5.42101e-14 -3.12172e-14 0 0 0 0)
(2.71051e-14 5.65302e-15 0 -2.71051e-14 -2.96892e-14 0 0 0 0)
(5.42101e-14 -1.26508e-14 0 0 -2.02987e-14 0 0 0 0)
(0 -8.82075e-15 0 -2.71051e-14 1.10919e-14 0 0 0 0)
(-8.13152e-14 -8.12495e-15 0 0 4.39133e-14 0 0 0 0)
(-5.42101e-14 -7.32762e-15 0 5.42101e-14 3.53149e-14 0 0 0 0)
(0 3.96834e-15 0 2.71051e-14 -3.89117e-15 0 0 0 0)
(5.42101e-14 9.09027e-15 0 -5.42101e-14 -2.42385e-14 0 0 0 0)
(8.13152e-14 1.14578e-14 0 0 -2.26819e-14 0 0 0 0)
(0 1.29389e-14 0 -5.42101e-14 -7.52953e-15 0 0 0 0)
(0 2.25964e-15 0 0 6.71599e-15 0 0 0 0)
(0 -1.35508e-14 0 0 5.51233e-15 0 0 0 0)
(0 4.60671e-16 0 0 -3.71415e-15 0 0 0 0)
(-4.06576e-13 -5.06904e-12 0 2.98156e-13 2.24099e-11 0 0 0 0)
(9.75782e-13 6.12927e-12 0 2.43945e-13 -4.85644e-12 0 0 0 0)
(-3.79471e-13 -1.31955e-12 0 1.89735e-13 1.14042e-12 0 0 0 0)
(-8.13152e-14 3.06882e-13 0 8.13152e-14 -2.39879e-13 0 0 0 0)
(-2.71051e-14 -9.15458e-14 0 1.0842e-13 5.92471e-14 0 0 0 0)
(0 -4.32378e-15 0 1.35525e-13 -6.24195e-15 0 0 0 0)
(-2.71051e-14 3.40864e-15 0 5.42101e-14 2.3753e-14 0 0 0 0)
(-2.71051e-14 2.28946e-14 0 0 8.62026e-15 0 0 0 0)
(2.71051e-14 -2.9738e-15 0 0 -1.13824e-14 0 0 0 0)
(0 -5.15321e-15 0 2.71051e-14 -4.18092e-15 0 0 0 0)
(0 3.10935e-14 0 -5.42101e-14 1.76145e-15 0 0 0 0)
(0 3.31697e-14 0 -5.42101e-14 7.65947e-15 0 0 0 0)
(2.71051e-14 -1.36486e-14 0 -5.42101e-14 1.98513e-14 0 0 0 0)
(0 -3.32494e-14 0 5.42101e-14 2.10118e-14 0 0 0 0)
(-2.71051e-14 -1.04358e-14 0 5.42101e-14 1.7446e-14 0 0 0 0)
(-2.71051e-14 1.34402e-14 0 0 1.42834e-14 0 0 0 0)
(-2.71051e-14 1.92783e-14 0 -5.42101e-14 -7.7502e-16 0 0 0 0)
(0 5.55465e-15 0 -5.42101e-14 -1.789e-14 0 0 0 0)
(2.71051e-14 -1.52116e-14 0 0 -1.68374e-14 0 0 0 0)
(-2.71051e-14 1.31796e-16 0 2.71051e-14 -3.8284e-15 0 0 0 0)
(4.06576e-13 1.23186e-11 0 5.42101e-14 -1.12818e-11 0 0 0 0)
(-5.42101e-13 -1.4934e-11 0 -3.79471e-13 2.42998e-12 0 0 0 0)
(1.6263e-13 3.26586e-12 0 -2.71051e-13 -5.60746e-13 0 0 0 0)
(2.71051e-14 -7.66095e-13 0 -2.71051e-14 1.05272e-13 0 0 0 0)
(0 1.52748e-13 0 0 -2.56855e-14 0 0 0 0)
(0 -3.5819e-14 0 -2.71051e-14 3.83008e-14 0 0 0 0)
(-1.0842e-13 1.25856e-14 0 -2.71051e-14 5.29523e-14 0 0 0 0)
(-2.71051e-14 -1.19746e-14 0 5.42101e-14 2.3826e-14 0 0 0 0)
(2.71051e-14 -7.14817e-15 0 -5.42101e-14 -6.15213e-15 0 0 0 0)
(0 4.93091e-16 0 0 1.86435e-14 0 0 0 0)
(-8.13152e-14 3.01965e-15 0 5.42101e-14 2.60723e-14 0 0 0 0)
(0 9.96489e-15 0 5.42101e-14 -8.79107e-15 0 0 0 0)
(0 6.02466e-15 0 5.42101e-14 -1.67902e-14 0 0 0 0)
(5.42101e-14 1.56309e-15 0 0 5.53676e-16 0 0 0 0)
(0 2.36195e-15 0 0 1.77268e-14 0 0 0 0)
(0 -6.76323e-15 0 -5.42101e-14 1.14819e-14 0 0 0 0)
(0 -1.92345e-14 0 5.42101e-14 -5.3294e-15 0 0 0 0)
(2.71051e-14 -1.38027e-14 0 0 -2.50748e-14 0 0 0 0)
(5.42101e-14 5.10794e-16 0 0 -2.11157e-14 0 0 0 0)
(0 2.11264e-14 0 2.71051e-14 -3.05943e-15 0 0 0 0)
(-7.04731e-13 -1.39208e-11 0 2.71051e-14 -4.55532e-12 0 0 0 0)
(6.23416e-13 1.68503e-11 0 1.35525e-13 9.55798e-13 0 0 0 0)
(-5.42101e-14 -3.64426e-12 0 1.35525e-13 -2.6153e-13 0 0 0 0)
(1.6263e-13 8.41943e-13 0 -1.0842e-13 1.37919e-14 0 0 0 0)
(0 -1.58517e-13 0 -5.42101e-14 -2.52198e-14 0 0 0 0)
(0 7.4314e-14 0 -1.0842e-13 8.24457e-16 0 0 0 0)
(2.71051e-14 -1.10661e-14 0 -2.71051e-14 -7.69305e-16 0 0 0 0)
(0 -3.62099e-14 0 5.42101e-14 -4.62571e-15 0 0 0 0)
(-2.71051e-14 -8.1563e-15 0 8.13152e-14 -2.1805e-15 0 0 0 0)
(2.71051e-14 2.70712e-14 0 -2.71051e-14 -1.17588e-14 0 0 0 0)
(2.71051e-14 3.65888e-15 0 5.42101e-14 -8.26845e-15 0 0 0 0)
(2.71051e-14 -9.69281e-15 0 5.42101e-14 -1.43397e-15 0 0 0 0)
(0 -4.30381e-15 0 5.42101e-14 2.46523e-15 0 0 0 0)
(-5.42101e-14 1.26761e-15 0 5.42101e-14 1.57299e-14 0 0 0 0)
(0 4.92421e-16 0 5.42101e-14 1.76472e-14 0 0 0 0)
(0 -9.61603e-15 0 8.13152e-14 7.43218e-15 0 0 0 0)
(0 -1.72784e-14 0 5.42101e-14 4.49107e-15 0 0 0 0)
(-2.71051e-14 -1.02316e-14 0 5.42101e-14 1.01199e-14 0 0 0 0)
(0 6.80374e-15 0 2.71051e-14 7.33702e-15 0 0 0 0)
(-2.71051e-14 2.43069e-14 0 -2.71051e-14 1.18768e-14 0 0 0 0)
(5.69206e-13 8.71903e-12 0 6.23416e-13 1.84126e-11 0 0 0 0)
(-4.33681e-13 -1.06402e-11 0 -2.71051e-13 -3.95412e-12 0 0 0 0)
(-5.42101e-14 2.32385e-12 0 -5.42101e-14 9.06156e-13 0 0 0 0)
(-1.6263e-13 -5.29785e-13 0 -2.71051e-14 -1.84351e-13 0 0 0 0)
(0 1.3978e-13 0 -8.13152e-14 5.09969e-14 0 0 0 0)
(0 -1.13685e-14 0 -2.71051e-14 -2.69977e-14 0 0 0 0)
(2.71051e-14 7.13543e-15 0 -8.13152e-14 -2.93005e-14 0 0 0 0)
(5.42101e-14 -1.33858e-14 0 -5.42101e-14 -2.02208e-14 0 0 0 0)
(-5.42101e-14 -1.42812e-14 0 -8.13152e-14 9.7048e-15 0 0 0 0)
(5.42101e-14 -5.59485e-15 0 -5.42101e-14 -1.01339e-14 0 0 0 0)
(0 1.33445e-14 0 -1.0842e-13 -1.59407e-14 0 0 0 0)
(2.71051e-14 2.06986e-14 0 -1.35525e-13 -1.09569e-14 0 0 0 0)
(2.71051e-14 2.31885e-14 0 -1.35525e-13 -1.38965e-14 0 0 0 0)
(0 1.67451e-14 0 -1.0842e-13 2.85754e-15 0 0 0 0)
(0 -5.93574e-15 0 -1.0842e-13 3.08389e-15 0 0 0 0)
(-2.71051e-14 -1.99194e-14 0 -8.13152e-14 8.72227e-17 0 0 0 0)
(0 -1.65468e-14 0 -5.42101e-14 -2.08863e-15 0 0 0 0)
(-2.71051e-14 -1.09568e-14 0 -5.42101e-14 1.1246e-14 0 0 0 0)
(2.71051e-14 2.26769e-15 0 -2.71051e-14 8.21264e-15 0 0 0 0)
(-2.71051e-14 1.91265e-15 0 -2.71051e-14 6.36694e-15 0 0 0 0)
(-3.52366e-13 5.37628e-13 0 -8.67362e-13 -2.4014e-11 0 0 0 0)
(0 -6.56125e-13 0 2.71051e-13 5.26256e-12 0 0 0 0)
(1.6263e-13 1.25517e-13 0 0 -1.20502e-12 0 0 0 0)
(1.0842e-13 -1.32159e-14 0 8.13152e-14 2.78685e-13 0 0 0 0)
(0 -1.16399e-15 0 2.71051e-14 -6.71995e-14 0 0 0 0)
(0 -5.98345e-15 0 8.13152e-14 5.20383e-15 0 0 0 0)
(0 -4.28926e-15 0 2.71051e-14 -1.6332e-14 0 0 0 0)
(2.71051e-14 2.79546e-15 0 0 -9.4352e-15 0 0 0 0)
(0 1.93058e-15 0 5.42101e-14 1.53632e-15 0 0 0 0)
(0 1.42571e-15 0 8.13152e-14 1.71812e-14 0 0 0 0)
(-8.13152e-14 2.83595e-15 0 0 2.48969e-14 0 0 0 0)
(-5.42101e-14 -7.64862e-15 0 2.71051e-14 1.59655e-14 0 0 0 0)
(0 9.51061e-15 0 2.71051e-14 -4.77018e-15 0 0 0 0)
(0 1.8248e-14 0 0 -2.48267e-14 0 0 0 0)
(1.0842e-13 -2.2779e-15 0 5.42101e-14 -3.6195e-14 0 0 0 0)
(0 -1.47885e-14 0 5.42101e-14 -2.85378e-14 0 0 0 0)
(0 -6.11968e-15 0 -5.42101e-14 -2.34496e-14 0 0 0 0)
(2.71051e-14 6.96493e-17 0 5.42101e-14 -9.97157e-15 0 0 0 0)
(0 1.92472e-15 0 0 -2.60319e-15 0 0 0 0)
(5.42101e-14 9.72731e-15 0 0 -1.28282e-14 0 0 0 0)
(0 -1.00324e-11 0 -1.11131e-12 1.84448e-11 0 0 0 0)
(4.06576e-13 1.21688e-11 0 4.33681e-13 -4.07415e-12 0 0 0 0)
(-2.43945e-13 -2.66003e-12 0 1.0842e-13 9.68455e-13 0 0 0 0)
(-1.0842e-13 6.08038e-13 0 5.42101e-14 -2.1663e-13 0 0 0 0)
(0 -1.33701e-13 0 1.35525e-13 4.69662e-14 0 0 0 0)
(0 3.9499e-14 0 5.42101e-14 -5.94319e-15 0 0 0 0)
(0 -7.5036e-15 0 1.0842e-13 1.1102e-14 0 0 0 0)
(0 4.48252e-15 0 5.42101e-14 1.39191e-14 0 0 0 0)
(0 1.23351e-14 0 5.42101e-14 5.49688e-15 0 0 0 0)
(0 1.77658e-14 0 2.71051e-14 6.74369e-15 0 0 0 0)
(2.71051e-14 1.21287e-14 0 1.0842e-13 9.52306e-16 0 0 0 0)
(0 -8.96854e-15 0 1.0842e-13 1.1984e-14 0 0 0 0)
(0 -1.76037e-14 0 1.0842e-13 1.79631e-14 0 0 0 0)
(0 -1.46798e-14 0 1.35525e-13 -6.03063e-15 0 0 0 0)
(0 -9.64678e-15 0 8.13152e-14 -1.43584e-14 0 0 0 0)
(-2.71051e-14 -7.17395e-15 0 8.13152e-14 5.66675e-15 0 0 0 0)
(-2.71051e-14 2.01934e-15 0 8.13152e-14 2.20224e-14 0 0 0 0)
(2.71051e-14 9.88967e-15 0 0 8.69266e-15 0 0 0 0)
(-2.71051e-14 -5.88922e-16 0 2.71051e-14 3.89362e-15 0 0 0 0)
(-2.71051e-14 1.7344e-14 0 2.71051e-14 -4.20261e-15 0 0 0 0)
(-1.0571e-12 1.49082e-11 0 3.30682e-12 1.31156e-12 0 0 0 0)
(1.19262e-12 -1.81324e-11 0 -1.0571e-12 -2.93701e-13 0 0 0 0)
(-1.89735e-13 3.98304e-12 0 -1.35525e-13 4.09138e-14 0 0 0 0)
(1.35525e-13 -9.34705e-13 0 -5.42101e-14 -2.05408e-14 0 0 0 0)
(-2.71051e-14 2.09522e-13 0 -5.42101e-14 8.73143e-15 0 0 0 0)
(0 -4.18476e-14 0 -5.42101e-14 -9.70895e-15 0 0 0 0)
(0 1.5573e-14 0 -5.42101e-14 -1.4169e-14 0 0 0 0)
(0 -2.80969e-15 0 0 3.88194e-15 0 0 0 0)
(0 -5.24479e-15 0 0 2.43073e-17 0 0 0 0)
(-2.71051e-14 -3.11887e-15 0 0 -5.56263e-15 0 0 0 0)
(2.71051e-14 8.07622e-15 0 0 -1.5844e-14 0 0 0 0)
(0 9.36218e-15 0 0 -1.47891e-14 0 0 0 0)
(0 -8.50399e-15 0 0 -3.12053e-15 0 0 0 0)
(0 -1.40735e-14 0 -2.71051e-14 8.04572e-15 0 0 0 0)
(0 9.41948e-15 0 -2.71051e-14 1.67397e-14 0 0 0 0)
(0 2.15923e-14 0 -8.13152e-14 2.02759e-14 0 0 0 0)
(-5.42101e-14 -3.09377e-15 0 -2.71051e-14 3.10964e-14 0 0 0 0)
(0 -1.80591e-14 0 0 1.48676e-14 0 0 0 0)
(0 -1.09706e-14 0 -2.71051e-14 4.82737e-15 0 0 0 0)
(0 1.00363e-14 0 -2.71051e-14 6.23631e-15 0 0 0 0)
(2.22261e-12 -9.01454e-12 0 -1.89735e-12 -2.33383e-11 0 0 0 0)
(-2.98156e-12 1.08981e-11 0 6.50521e-13 5.09238e-12 0 0 0 0)
(7.04731e-13 -2.38687e-12 0 2.71051e-14 -1.20165e-12 0 0 0 0)
(-2.71051e-14 5.75856e-13 0 -5.42101e-14 2.5168e-13 0 0 0 0)
(2.71051e-14 -1.22869e-13 0 -2.71051e-14 -6.33274e-14 0 0 0 0)
(-2.71051e-14 1.65985e-14 0 -5.42101e-14 4.2319e-15 0 0 0 0)
(8.13152e-14 6.0873e-15 0 -5.42101e-14 -2.07647e-14 0 0 0 0)
(2.71051e-14 1.86759e-14 0 -1.0842e-13 -1.6561e-14 0 0 0 0)
(2.71051e-14 2.89057e-15 0 -1.0842e-13 -9.62727e-15 0 0 0 0)
(0 1.89746e-15 0 -5.42101e-14 -1.95611e-15 0 0 0 0)
(0 2.90227e-15 0 -1.0842e-13 2.23081e-15 0 0 0 0)
(0 3.75491e-15 0 -5.42101e-14 -4.19388e-16 0 0 0 0)
(0 5.23114e-15 0 -5.42101e-14 4.20277e-15 0 0 0 0)
(0 5.18041e-15 0 -1.0842e-13 1.88576e-14 0 0 0 0)
(-5.42101e-14 2.5834e-15 0 -1.0842e-13 1.93587e-14 0 0 0 0)
(-5.42101e-14 7.18281e-15 0 -8.13152e-14 -1.56327e-14 0 0 0 0)
(5.42101e-14 -3.38897e-15 0 0 -2.80457e-14 0 0 0 0)
(0 -1.63794e-14 0 0 -5.94953e-15 0 0 0 0)
(0 -9.22021e-15 0 0 2.23966e-15 0 0 0 0)
(0 6.28034e-15 0 0 1.37078e-15 0 0 0 0)
(-2.27682e-12 -3.33767e-12 0 -2.98156e-12 2.61449e-11 0 0 0 0)
(3.08998e-12 4.00421e-12 0 7.31836e-13 -5.666e-12 0 0 0 0)
(-8.67362e-13 -8.5766e-13 0 -2.71051e-14 1.35473e-12 0 0 0 0)
(1.0842e-13 2.03617e-13 0 5.42101e-14 -2.76278e-13 0 0 0 0)
(-5.42101e-14 -3.79256e-14 0 -5.42101e-14 7.5162e-14 0 0 0 0)
(0 7.15143e-16 0 5.42101e-14 1.70251e-14 0 0 0 0)
(-8.13152e-14 -5.2199e-15 0 0 4.0948e-14 0 0 0 0)
(0 8.32771e-15 0 -2.71051e-14 1.03113e-14 0 0 0 0)
(0 9.36009e-15 0 -2.71051e-14 4.41586e-15 0 0 0 0)
(0 8.73922e-15 0 -8.13152e-14 -1.30692e-15 0 0 0 0)
(0 9.61294e-15 0 -8.13152e-14 -4.28722e-15 0 0 0 0)
(0 1.13341e-14 0 -8.13152e-14 -5.79469e-15 0 0 0 0)
(-5.42101e-14 1.0773e-14 0 -5.42101e-14 3.37398e-15 0 0 0 0)
(0 1.08242e-15 0 -2.71051e-14 -2.20211e-15 0 0 0 0)
(5.42101e-14 -2.50708e-14 0 0 -1.27762e-14 0 0 0 0)
(2.71051e-14 -2.58121e-14 0 2.71051e-14 -1.93726e-14 0 0 0 0)
(5.42101e-14 6.58939e-15 0 0 -2.12366e-14 0 0 0 0)
(0 1.22262e-14 0 -5.42101e-14 -8.83092e-15 0 0 0 0)
(0 -3.65024e-15 0 0 -3.73601e-15 0 0 0 0)
(0 6.42587e-15 0 0 -4.40739e-16 0 0 0 0)
(-5.42101e-14 1.14643e-11 0 6.12574e-12 -1.52176e-12 0 0 0 0)
(-2.71051e-14 -1.3892e-11 0 -1.70762e-12 3.43106e-13 0 0 0 0)
(2.71051e-14 3.00285e-12 0 8.13152e-14 -8.30265e-14 0 0 0 0)
(0 -7.03708e-13 0 -8.13152e-14 3.07577e-14 0 0 0 0)
(0 1.70433e-13 0 -2.71051e-14 5.49737e-15 0 0 0 0)
(0 -1.76155e-14 0 -8.13152e-14 1.23801e-14 0 0 0 0)
(-2.71051e-14 -6.2646e-16 0 -2.71051e-14 1.74864e-14 0 0 0 0)
(0 -1.78563e-14 0 0 1.23053e-14 0 0 0 0)
(0 -8.72768e-15 0 0 1.04869e-14 0 0 0 0)
(0 -6.80561e-15 0 0 1.2802e-15 0 0 0 0)
(0 -1.5855e-15 0 5.42101e-14 -1.2007e-14 0 0 0 0)
(2.71051e-14 1.14161e-14 0 0 -2.91792e-14 0 0 0 0)
(5.42101e-14 8.82372e-15 0 0 -3.33636e-14 0 0 0 0)
(5.42101e-14 -1.09698e-14 0 8.13152e-14 -3.11136e-14 0 0 0 0)
(0 -1.45871e-14 0 8.13152e-14 -2.97768e-14 0 0 0 0)
(-2.71051e-14 -1.2776e-15 0 8.13152e-14 4.2037e-15 0 0 0 0)
(-2.71051e-14 7.15275e-15 0 2.71051e-14 2.23936e-14 0 0 0 0)
(0 1.12125e-15 0 0 -1.57694e-15 0 0 0 0)
(2.71051e-14 -8.30021e-16 0 0 -9.7576e-15 0 0 0 0)
(-2.71051e-14 1.04571e-14 0 0 3.8086e-15 0 0 0 0)
(2.1413e-12 -4.51633e-12 0 -1.54499e-12 -2.41094e-11 0 0 0 0)
(-2.92735e-12 5.44294e-12 0 4.87891e-13 5.16012e-12 0 0 0 0)
(7.31836e-13 -1.17001e-12 0 8.13152e-14 -1.20536e-12 0 0 0 0)
(-8.13152e-14 2.9214e-13 0 8.13152e-14 2.74133e-13 0 0 0 0)
(0 -5.63032e-14 0 1.0842e-13 -4.66867e-14 0 0 0 0)
(5.42101e-14 1.27041e-14 0 1.0842e-13 -1.43878e-15 0 0 0 0)
(-5.42101e-14 -5.29464e-15 0 1.35525e-13 -2.85175e-14 0 0 0 0)
(5.42101e-14 1.32827e-15 0 8.13152e-14 -1.50356e-14 0 0 0 0)
(2.71051e-14 -1.66505e-15 0 1.35525e-13 -6.42406e-15 0 0 0 0)
(0 -1.37547e-14 0 1.35525e-13 -2.28471e-15 0 0 0 0)
(-2.71051e-14 -2.08465e-14 0 1.0842e-13 -3.23688e-15 0 0 0 0)
(0 -1.00225e-14 0 1.0842e-13 -1.3358e-14 0 0 0 0)
(2.71051e-14 8.83865e-15 0 8.13152e-14 -2.69357e-14 0 0 0 0)
(5.42101e-14 4.66918e-15 0 2.71051e-14 -1.92398e-14 0 0 0 0)
(2.71051e-14 1.02464e-14 0 -2.71051e-14 -8.35515e-15 0 0 0 0)
(0 2.63583e-14 0 -2.71051e-14 7.69052e-15 0 0 0 0)
(-2.71051e-14 8.08748e-16 0 -2.71051e-14 1.39319e-14 0 0 0 0)
(0 -1.9925e-14 0 5.42101e-14 2.21619e-15 0 0 0 0)
(0 1.7353e-15 0 2.71051e-14 -1.36246e-15 0 0 0 0)
(0 1.23749e-14 0 2.71051e-14 2.93105e-15 0 0 0 0)
(-1.0571e-12 -7.48493e-12 0 -1.46367e-12 1.52245e-11 0 0 0 0)
(1.57209e-12 9.01202e-12 0 4.06576e-13 -3.22322e-12 0 0 0 0)
(-3.79471e-13 -1.88313e-12 0 -8.13152e-14 7.69519e-13 0 0 0 0)
(2.71051e-14 4.54968e-13 0 0 -1.70082e-13 0 0 0 0)
(2.71051e-14 -1.05139e-13 0 -2.71051e-14 2.24106e-14 0 0 0 0)
(0 5.53657e-16 0 -2.71051e-14 -8.64021e-15 0 0 0 0)
(0 -1.42233e-14 0 -5.42101e-14 9.15279e-15 0 0 0 0)
(-2.71051e-14 4.23712e-15 0 0 1.08777e-14 0 0 0 0)
(-2.71051e-14 4.02321e-15 0 -5.42101e-14 3.58739e-15 0 0 0 0)
(0 -3.61844e-15 0 -5.42101e-14 8.51955e-15 0 0 0 0)
(0 -1.26588e-14 0 -2.71051e-14 2.09605e-14 0 0 0 0)
(-2.71051e-14 -1.22827e-14 0 -2.71051e-14 4.20248e-14 0 0 0 0)
(-5.42101e-14 2.94193e-15 0 -2.71051e-14 4.32656e-14 0 0 0 0)
(-2.71051e-14 7.6107e-15 0 -2.71051e-14 3.02442e-14 0 0 0 0)
(-2.71051e-14 1.23432e-14 0 0 3.09857e-14 0 0 0 0)
(-5.42101e-14 2.10094e-14 0 0 7.65459e-15 0 0 0 0)
(5.42101e-14 1.67841e-15 0 0 -1.6382e-14 0 0 0 0)
(2.71051e-14 -1.41731e-14 0 0 5.16743e-15 0 0 0 0)
(2.71051e-14 -1.15152e-16 0 -2.71051e-14 1.77161e-14 0 0 0 0)
(-5.42101e-14 8.8885e-15 0 -2.71051e-14 3.54729e-15 0 0 0 0)
)
;

boundaryField
{
    movingWall
    {
        type            extrapolatedCalculated;
        value           nonuniform List<tensor> 
20
(
(-1.0571e-12 -7.48493e-12 0 6.03961e-12 3.79099e-11 0 0 0 0)
(1.57209e-12 9.01202e-12 0 -1.77636e-12 -7.97014e-12 0 0 0 0)
(-3.79471e-13 -1.88313e-12 0 -2.66454e-13 1.86178e-12 0 0 0 0)
(2.71051e-14 4.54968e-13 0 -2.66454e-13 -4.37599e-13 0 0 0 0)
(2.71051e-14 -1.05139e-13 0 -3.10862e-13 4.19038e-14 0 0 0 0)
(0 5.53657e-16 0 -3.55271e-13 -1.70448e-14 0 0 0 0)
(0 -1.42233e-14 0 -3.9968e-13 3.96891e-14 0 0 0 0)
(-2.71051e-14 4.23712e-15 0 -2.66454e-13 3.98483e-14 0 0 0 0)
(-2.71051e-14 4.02321e-15 0 -3.10862e-13 2.27406e-14 0 0 0 0)
(0 -3.61844e-15 0 -2.66454e-13 2.37555e-14 0 0 0 0)
(0 -1.26588e-14 0 -2.66454e-13 3.72144e-14 0 0 0 0)
(-2.71051e-14 -1.22827e-14 0 -2.66454e-13 7.43905e-14 0 0 0 0)
(-5.42101e-14 2.94193e-15 0 -1.77636e-13 8.63451e-14 0 0 0 0)
(-2.71051e-14 7.6107e-15 0 -8.88178e-14 6.26228e-14 0 0 0 0)
(-2.71051e-14 1.23432e-14 0 0 5.59022e-14 0 0 0 0)
(-5.42101e-14 2.10094e-14 0 0 1.32502e-14 0 0 0 0)
(5.42101e-14 1.67841e-15 0 8.88178e-14 -2.81355e-14 0 0 0 0)
(2.71051e-14 -1.41731e-14 0 0 6.53651e-15 0 0 0 0)
(2.71051e-14 -1.15152e-16 0 -4.44089e-14 2.85569e-14 0 0 0 0)
(-5.42101e-14 8.8885e-15 0 -8.88178e-14 6.99712e-15 0 0 0 0)
)
;
    }
    fixedWalls
    {
        type            extrapolatedCalculated;
        value           nonuniform List<tensor> 
60
(
(-6.75016e-12 6.90381e-11 0 1.70762e-12 1.84766e-11 0 0 0 0)
(1.36335e-11 4.86815e-12 0 5.14996e-13 -3.32355e-11 0 0 0 0)
(-4.70735e-12 -6.39037e-11 0 -5.85469e-12 1.0486e-11 0 0 0 0)
(-9.76996e-12 4.68121e-11 0 4.39102e-12 1.6424e-11 0 0 0 0)
(1.28342e-11 1.79207e-12 0 4.60786e-13 -2.31394e-11 0 0 0 0)
(-7.90479e-12 -4.57455e-11 0 -2.38524e-12 1.44707e-11 0 0 0 0)
(3.28626e-12 5.96747e-11 0 2.22261e-12 4.77126e-12 0 0 0 0)
(8.88178e-13 -2.66605e-11 0 -1.6263e-12 -2.13812e-11 0 0 0 0)
(-3.19744e-12 -2.58501e-11 0 2.98156e-13 2.24099e-11 0 0 0 0)
(2.17604e-12 6.29792e-11 0 5.42101e-14 -1.12818e-11 0 0 0 0)
(-3.01981e-12 -7.09772e-11 0 2.71051e-14 -4.55532e-12 0 0 0 0)
(2.26485e-12 4.47579e-11 0 6.23416e-13 1.84126e-11 0 0 0 0)
(-5.32907e-13 2.67308e-12 0 -8.67362e-13 -2.4014e-11 0 0 0 0)
(-1.15463e-12 -5.12981e-11 0 -1.11131e-12 1.84448e-11 0 0 0 0)
(-5.06262e-12 7.64521e-11 0 3.30682e-12 1.31156e-12 0 0 0 0)
(1.21236e-11 -4.60518e-11 0 -1.89735e-12 -2.33383e-11 0 0 0 0)
(-1.26121e-11 -1.6901e-11 0 -2.98156e-12 2.61449e-11 0 0 0 0)
(1.33227e-13 5.85276e-11 0 6.12574e-12 -1.52176e-12 0 0 0 0)
(1.19016e-11 -2.29881e-11 0 -1.54499e-12 -2.41094e-11 0 0 0 0)
(-6.03961e-12 -3.79099e-11 0 -1.46367e-12 1.52245e-11 0 0 0 0)
(-4.44089e-14 -4.80669e-15 0 0 4.09065e-17 0 0 0 0)
(8.88178e-14 4.64306e-15 0 0 -1.04212e-14 0 0 0 0)
(0 3.6878e-14 0 0 -8.34055e-15 0 0 0 0)
(-4.44089e-14 3.80053e-14 0 2.71051e-14 9.16936e-15 0 0 0 0)
(-4.44089e-14 2.00576e-16 0 -2.71051e-14 1.14648e-14 0 0 0 0)
(0 -7.85394e-15 0 0 -2.31799e-15 0 0 0 0)
(0 9.47254e-15 0 0 -7.65957e-15 0 0 0 0)
(0 2.27844e-14 0 0 -3.71415e-15 0 0 0 0)
(-4.44089e-14 2.43291e-14 0 2.71051e-14 -3.8284e-15 0 0 0 0)
(-8.88178e-14 3.80979e-14 0 2.71051e-14 -3.05943e-15 0 0 0 0)
(-8.88178e-14 3.65668e-14 0 -2.71051e-14 1.18768e-14 0 0 0 0)
(-4.44089e-14 -9.40908e-15 0 -2.71051e-14 6.36694e-15 0 0 0 0)
(8.88178e-14 1.10991e-14 0 0 -1.28282e-14 0 0 0 0)
(-4.44089e-14 4.19036e-14 0 2.71051e-14 -4.20261e-15 0 0 0 0)
(0 2.79095e-14 0 -2.71051e-14 6.23631e-15 0 0 0 0)
(0 1.69584e-14 0 0 1.37078e-15 0 0 0 0)
(0 2.24264e-14 0 0 -4.40739e-16 0 0 0 0)
(-4.44089e-14 1.87213e-14 0 0 3.8086e-15 0 0 0 0)
(0 7.19202e-15 0 2.71051e-14 2.93105e-15 0 0 0 0)
(-8.88178e-14 6.99712e-15 0 -2.71051e-14 3.54729e-15 0 0 0 0)
(-1.16552e-12 1.35303e-11 0 -6.75016e-12 6.90381e-11 0 0 0 0)
(1.73472e-12 -1.63769e-11 0 2.13163e-12 -1.49169e-11 0 0 0 0)
(-4.87891e-13 3.54216e-12 0 1.77636e-13 3.53064e-12 0 0 0 0)
(2.71051e-14 -8.33024e-13 0 1.77636e-13 -7.48295e-13 0 0 0 0)
(0 1.9741e-13 0 2.66454e-13 1.9854e-13 0 0 0 0)
(-2.71051e-14 -2.91203e-14 0 1.77636e-13 4.13458e-14 0 0 0 0)
(-2.71051e-14 -2.10847e-16 0 1.77636e-13 8.20585e-14 0 0 0 0)
(0 -1.96194e-14 0 1.33227e-13 4.05025e-14 0 0 0 0)
(0 -1.62172e-14 0 8.88178e-14 3.58087e-15 0 0 0 0)
(0 -1.69692e-15 0 8.88178e-14 -2.43663e-14 0 0 0 0)
(0 1.4103e-14 0 1.33227e-13 -3.20679e-15 0 0 0 0)
(0 1.14802e-14 0 8.88178e-14 3.20455e-14 0 0 0 0)
(-2.71051e-14 -2.18644e-15 0 4.44089e-14 4.27139e-14 0 0 0 0)
(-2.71051e-14 -8.71255e-15 0 4.44089e-14 2.32998e-14 0 0 0 0)
(-5.42101e-14 -1.22127e-14 0 -8.88178e-14 7.86373e-15 0 0 0 0)
(5.42101e-14 -5.98951e-15 0 -8.88178e-14 -2.55512e-14 0 0 0 0)
(5.42101e-14 1.31342e-14 0 8.88178e-14 -1.60943e-14 0 0 0 0)
(-2.71051e-14 1.19018e-14 0 4.44089e-14 2.69857e-14 0 0 0 0)
(0 -5.54474e-15 0 0 3.15131e-14 0 0 0 0)
(-2.71051e-14 -9.07994e-15 0 4.44089e-14 4.80669e-15 0 0 0 0)
)
;
    }
    frontAndBack
    {
        type            empty;
    }
}


// ************************************************************************* //
