/*--------------------------------*- C++ -*----------------------------------*\
| =========                 |                                                 |
| \\      /  F ield         | OpenFOAM: The Open Source CFD Toolbox           |
|  \\    /   O peration     | Version:  2506                                  |
|   \\  /    A nd           | Website:  www.openfoam.com                      |
|    \\/     M anipulation  |                                                 |
\*---------------------------------------------------------------------------*/
FoamFile
{
    version     2.0;
    format      ascii;
    arch        "LSB;label=32;scalar=64";
    class       volVectorField;
    location    "9.5";
    object      gradPhi;
}
// * * * * * * * * * * * * * * * * * * * * * * * * * * * * * * * * * * * * * //

dimensions      [0 2 -1 0 0 0 0];

internalField   nonuniform List<vector> 
400
(
(-0.02 1.02229e-16 0)
(1.58819e-16 -1.59619e-16 0)
(-4.46678e-17 4.67303e-17 0)
(6.61744e-18 -6.77889e-18 0)
(-1.65436e-18 1.42841e-18 0)
(-1.65436e-18 6.71467e-19 0)
(-1.65436e-18 1.21164e-18 0)
(0 6.05302e-19 0)
(0 3.30578e-19 0)
(0 -6.12502e-19 0)
(0 1.04349e-19 0)
(-1.65436e-18 9.30614e-19 0)
(0 1.17715e-18 0)
(0 6.22732e-19 0)
(-1.65436e-18 8.58867e-19 0)
(1.65436e-18 -9.65279e-19 0)
(0 -1.49963e-18 0)
(0 -2.12857e-20 0)
(0 4.2545e-19 0)
(0 7.56259e-19 0)
(-0.02 -2.00585e-16 0)
(-2.82896e-16 2.82106e-16 0)
(8.76811e-17 -8.66561e-17 0)
(-1.48893e-17 1.31944e-17 0)
(1.65436e-18 -8.30509e-19 0)
(0 1.74348e-19 0)
(3.30872e-18 -2.20458e-18 0)
(1.65436e-18 -2.33097e-18 0)
(1.65436e-18 -2.07367e-18 0)
(0 1.45045e-18 0)
(-3.30872e-18 1.29714e-18 0)
(0 -3.08752e-19 0)
(3.30872e-18 -1.39309e-18 0)
(0 1.92975e-19 0)
(-1.65436e-18 -4.77495e-20 0)
(0 6.72971e-19 0)
(0 1.19501e-18 0)
(0 -9.81255e-19 0)
(1.65436e-18 -1.71142e-18 0)
(1.65436e-18 -1.61346e-18 0)
(-0.02 6.29864e-17 0)
(7.61006e-17 -7.7257e-17 0)
(-2.48154e-17 2.52401e-17 0)
(8.27181e-18 -7.93087e-18 0)
(1.65436e-18 -2.04566e-18 0)
(0 -1.50604e-19 0)
(-1.65436e-18 2.3132e-18 0)
(-3.30872e-18 4.15449e-18 0)
(-4.96308e-18 3.43907e-18 0)
(1.65436e-18 -5.63843e-19 0)
(3.30872e-18 -3.5194e-18 0)
(3.30872e-18 -2.53726e-18 0)
(0 -9.37683e-19 0)
(1.65436e-18 -1.72147e-18 0)
(1.65436e-18 -1.56499e-18 0)
(-1.65436e-18 6.0096e-19 0)
(0 3.46058e-19 0)
(0 2.14189e-19 0)
(0 4.47499e-19 0)
(0 -4.96397e-19 0)
(-0.02 1.21384e-16 0)
(1.60473e-16 -1.58906e-16 0)
(-4.30134e-17 4.32632e-17 0)
(6.61744e-18 -7.00326e-18 0)
(-3.30872e-18 1.69837e-18 0)
(1.65436e-18 -1.37889e-18 0)
(0 -4.3069e-19 0)
(1.65436e-18 -1.73334e-18 0)
(1.65436e-18 -1.00688e-18 0)
(0 -7.36954e-19 0)
(-1.65436e-18 2.08571e-18 0)
(-1.65436e-18 1.11483e-18 0)
(0 2.44456e-20 0)
(-1.65436e-18 6.28911e-19 0)
(0 -1.88291e-19 0)
(1.65436e-18 -1.32398e-18 0)
(1.65436e-18 -4.73107e-19 0)
(-3.30872e-18 1.00238e-18 0)
(0 -2.70135e-19 0)
(0 7.32837e-19 0)
(-0.02 -1.59435e-16 0)
(-2.0845e-16 2.09909e-16 0)
(5.79026e-17 -5.86154e-17 0)
(-1.15805e-17 1.23281e-17 0)
(3.30872e-18 -3.69668e-18 0)
(0 8.41065e-20 0)
(1.65436e-18 -1.40862e-18 0)
(1.65436e-18 -8.25944e-19 0)
(0 -1.46558e-18 0)
(0 3.19787e-19 0)
(-1.65436e-18 2.41707e-19 0)
(0 7.17983e-19 0)
(-1.65436e-18 4.36869e-19 0)
(1.65436e-18 -8.21318e-19 0)
(0 1.47795e-19 0)
(0 7.06966e-19 0)
(0 6.03248e-19 0)
(0 3.17129e-19 0)
(-1.65436e-18 1.77329e-18 0)
(-1.65436e-18 1.20138e-18 0)
(-0.02 9.88111e-17 0)
(1.38966e-16 -1.38206e-16 0)
(-4.1359e-17 4.05834e-17 0)
(6.61744e-18 -6.20107e-18 0)
(-4.96308e-18 4.69123e-18 0)
(0 1.05453e-18 0)
(-1.65436e-18 1.37478e-18 0)
(-1.65436e-18 1.80915e-18 0)
(-1.65436e-18 2.49778e-18 0)
(0 7.76593e-19 0)
(1.65436e-18 -2.52609e-18 0)
(3.30872e-18 -2.85525e-18 0)
(0 -6.94366e-19 0)
(0 1.35834e-18 0)
(-1.65436e-18 1.28496e-18 0)
(0 5.42136e-19 0)
(0 -3.57631e-19 0)
(0 -5.37354e-19 0)
(0 -2.91864e-19 0)
(0 -6.49129e-19 0)
(-0.02 -6.8038e-18 0)
(6.61744e-18 -6.68678e-18 0)
(-1.15805e-17 1.00344e-17 0)
(0 7.79296e-19 0)
(0 -2.5457e-19 0)
(0 -2.47446e-19 0)
(0 -2.74305e-19 0)
(0 -1.38406e-18 0)
(0 -3.77638e-19 0)
(0 -6.20103e-19 0)
(0 1.07035e-18 0)
(-1.65436e-18 9.96535e-19 0)
(1.65436e-18 -6.05872e-19 0)
(0 -1.09853e-18 0)
(0 -9.38964e-21 0)
(0 7.76368e-19 0)
(0 1.34853e-18 0)
(-1.65436e-18 8.89889e-19 0)
(0 -2.77445e-19 0)
(0 -3.58804e-19 0)
(-0.02 -7.54911e-17 0)
(-1.30695e-16 1.31973e-16 0)
(5.12852e-17 -5.19285e-17 0)
(-4.96308e-18 6.17135e-18 0)
(0 -2.14877e-18 0)
(1.65436e-18 -1.42638e-18 0)
(4.96308e-18 -3.50716e-18 0)
(0 -1.24637e-18 0)
(0 -1.60776e-18 0)
(1.65436e-18 -1.02913e-18 0)
(0 4.74895e-19 0)
(-1.65436e-18 2.77451e-18 0)
(-3.30872e-18 3.2724e-18 0)
(0 4.05e-19 0)
(3.30872e-18 -2.09203e-18 0)
(1.65436e-18 -2.56749e-18 0)
(1.65436e-18 -2.03609e-18 0)
(0 -5.43674e-19 0)
(0 9.13971e-19 0)
(0 -2.1362e-19 0)
(-0.02 8.88548e-17 0)
(1.42275e-16 -1.42806e-16 0)
(-5.45939e-17 5.34147e-17 0)
(6.61744e-18 -6.47136e-18 0)
(-1.65436e-18 1.69658e-18 0)
(0 9.768e-20 0)
(-1.65436e-18 1.62059e-18 0)
(-1.65436e-18 4.9866e-19 0)
(1.65436e-18 3.25487e-19 0)
(-1.65436e-18 1.01985e-19 0)
(1.65436e-18 -9.2738e-19 0)
(1.65436e-18 -6.08564e-19 0)
(0 -2.77853e-19 0)
(0 8.11988e-19 0)
(-1.65436e-18 1.76743e-18 0)
(-3.30872e-18 1.86491e-18 0)
(-1.65436e-18 1.64535e-18 0)
(0 3.23814e-20 0)
(1.65436e-18 -1.44049e-18 0)
(0 3.39581e-19 0)
(-0.02 -5.58919e-17 0)
(-7.7755e-17 7.74249e-17 0)
(2.64698e-17 -2.55408e-17 0)
(-3.30872e-18 2.81246e-18 0)
(0 -6.94947e-19 0)
(0 1.9749e-18 0)
(-4.96308e-18 3.34949e-18 0)
(-1.65436e-18 1.20839e-18 0)
(3.30872e-18 -1.59418e-18 0)
(0 9.7465e-19 0)
(-4.96308e-18 3.52469e-18 0)
(0 7.41644e-19 0)
(0 -2.83949e-19 0)
(1.65436e-18 -4.37897e-19 0)
(0 6.71333e-20 0)
(0 2.15533e-19 0)
(1.65436e-18 -7.9524e-19 0)
(1.65436e-18 -1.866e-18 0)
(0 -1.13346e-18 0)
(1.65436e-18 -1.47747e-18 0)
(-0.02 7.0592e-18 0)
(-6.61744e-18 6.53539e-18 0)
(1.32349e-17 -1.26478e-17 0)
(1.65436e-18 -1.69928e-18 0)
(3.30872e-18 -1.72103e-18 0)
(-1.65436e-18 -4.5496e-19 0)
(1.65436e-18 -4.49018e-19 0)
(0 2.25574e-20 0)
(-1.65436e-18 7.68964e-19 0)
(0 -5.35854e-19 0)
(3.30872e-18 -2.20314e-18 0)
(0 -1.19385e-18 0)
(0 -3.86001e-20 0)
(0 1.72402e-18 0)
(-1.65436e-18 1.55338e-18 0)
(0 3.05513e-19 0)
(0 1.45511e-20 0)
(0 6.16902e-19 0)
(-1.65436e-18 7.76847e-19 0)
(-1.65436e-18 1.41628e-18 0)
(-0.02 4.99695e-17 0)
(8.27181e-17 -8.45492e-17 0)
(-3.97047e-17 4.19118e-17 0)
(1.65436e-18 -3.6953e-18 0)
(-1.65436e-18 2.685e-18 0)
(1.65436e-18 -9.25124e-19 0)
(0 -1.8569e-18 0)
(1.65436e-18 -1.3983e-18 0)
(-1.65436e-18 5.51358e-19 0)
(1.65436e-18 -8.5484e-19 0)
(1.65436e-18 -9.25288e-19 0)
(1.65436e-18 -5.84029e-19 0)
(0 -1.28705e-18 0)
(1.65436e-18 -6.04963e-19 0)
(-1.65436e-18 5.57495e-19 0)
(0 2.8894e-19 0)
(0 -9.44172e-20 0)
(0 8.14956e-19 0)
(0 8.51386e-20 0)
(-1.65436e-18 1.52916e-18 0)
(-0.02 -7.4822e-17 0)
(-1.2904e-16 1.2752e-16 0)
(5.62483e-17 -5.60327e-17 0)
(-8.27181e-18 8.14535e-18 0)
(1.65436e-18 -2.74609e-18 0)
(0 1.52091e-19 0)
(0 -2.73259e-19 0)
(0 -5.60383e-19 0)
(1.65436e-18 -5.19523e-19 0)
(-1.65436e-18 1.10954e-18 0)
(-1.65436e-18 2.91353e-18 0)
(-3.30872e-18 2.1186e-18 0)
(0 7.17064e-19 0)
(1.65436e-18 -9.78375e-19 0)
(1.65436e-18 -3.15346e-18 0)
(1.65436e-18 -1.89402e-18 0)
(0 -9.49938e-19 0)
(1.65436e-18 -6.1409e-19 0)
(0 -2.23649e-19 0)
(3.30872e-18 -2.87388e-18 0)
(-0.02 6.06349e-17 0)
(1.04225e-16 -1.04121e-16 0)
(-4.63221e-17 4.58625e-17 0)
(6.61744e-18 -6.48917e-18 0)
(-1.65436e-18 1.28647e-18 0)
(1.65436e-18 -7.28421e-19 0)
(-1.65436e-18 1.40644e-19 0)
(0 7.52472e-19 0)
(0 7.86306e-19 0)
(0 1.19114e-19 0)
(1.65436e-18 -1.78097e-18 0)
(1.65436e-18 -7.07501e-19 0)
(-1.65436e-18 5.83464e-19 0)
(0 -1.1245e-19 0)
(0 3.44292e-19 0)
(-1.65436e-18 8.71813e-19 0)
(0 6.91006e-19 0)
(0 1.90247e-19 0)
(0 8.76308e-19 0)
(-1.65436e-18 9.68681e-19 0)
(-0.02 3.83652e-17 0)
(3.97047e-17 -4.09503e-17 0)
(-1.65436e-18 2.47282e-18 0)
(1.65436e-18 -1.77278e-18 0)
(0 1.02313e-18 0)
(0 1.68436e-19 0)
(0 3.09928e-20 0)
(0 9.72457e-19 0)
(-1.65436e-18 -1.23244e-19 0)
(1.65436e-18 2.00841e-20 0)
(0 3.45595e-19 0)
(0 8.47701e-20 0)
(0 6.28086e-20 0)
(0 1.6584e-19 0)
(0 -1.50752e-19 0)
(0 -8.74933e-20 0)
(-3.30872e-18 2.06404e-18 0)
(0 1.17976e-18 0)
(0 -3.40947e-19 0)
(0 2.26657e-19 0)
(-0.02 -1.59935e-16 0)
(-2.15067e-16 2.15354e-16 0)
(5.9557e-17 -5.95657e-17 0)
(-8.27181e-18 8.68828e-18 0)
(1.65436e-18 -2.46349e-18 0)
(0 4.10494e-19 0)
(3.30872e-18 -2.47945e-18 0)
(1.65436e-18 -2.22784e-18 0)
(0 -8.09154e-19 0)
(0 -2.70553e-19 0)
(0 -3.93995e-19 0)
(0 -6.37891e-19 0)
(0 -9.67526e-19 0)
(0 6.61511e-19 0)
(-3.30872e-18 2.61752e-18 0)
(0 9.43314e-19 0)
(1.65436e-18 -1.34825e-18 0)
(0 -6.45463e-19 0)
(0 1.82686e-19 0)
(0 3.37011e-19 0)
(-0.02 1.71568e-16 0)
(2.33265e-16 -2.32399e-16 0)
(-6.78288e-17 6.70933e-17 0)
(8.27181e-18 -8.71131e-18 0)
(-1.65436e-18 2.72849e-18 0)
(0 1.39778e-19 0)
(-4.96308e-18 3.21742e-18 0)
(0 1.50063e-18 0)
(0 5.88589e-19 0)
(0 7.74907e-20 0)
(0 9.89089e-20 0)
(-1.65436e-18 1.46892e-20 0)
(0 1.92772e-18 0)
(0 4.37025e-19 0)
(1.65436e-18 -2.19514e-18 0)
(1.65436e-18 -2.29775e-18 0)
(3.30872e-18 -1.88144e-18 0)
(0 -4.86538e-19 0)
(0 6.38255e-20 0)
(0 -8.23648e-19 0)
(-0.02 -2.64769e-18 0)
(-1.15805e-17 1.06315e-17 0)
(4.96308e-18 -3.3578e-18 0)
(0 -1.26042e-19 0)
(1.65436e-18 -4.47806e-19 0)
(-1.65436e-18 7.64337e-19 0)
(0 1.04135e-18 0)
(-1.65436e-18 8.02662e-19 0)
(0 6.91385e-19 0)
(0 -6.35043e-20 0)
(0 -1.09473e-18 0)
(1.65436e-18 -1.49389e-18 0)
(1.65436e-18 -2.65778e-18 0)
(3.30872e-18 -1.47186e-18 0)
(0 -5.04917e-19 0)
(-1.65436e-18 7.21239e-19 0)
(-1.65436e-18 1.65853e-18 0)
(0 1.98849e-20 0)
(1.65436e-18 -9.47733e-19 0)
(-1.65436e-18 1.09457e-18 0)
(-0.02 -1.62948e-16 0)
(-2.21684e-16 2.2112e-16 0)
(6.28657e-17 -6.1288e-17 0)
(-1.15805e-17 1.16877e-17 0)
(0 -1.48736e-19 0)
(0 -1.32096e-20 0)
(1.65436e-18 -2.2428e-18 0)
(1.65436e-18 -1.55642e-18 0)
(0 -7.94908e-19 0)
(0 -1.985e-19 0)
(0 4.58628e-19 0)
(0 -5.20105e-19 0)
(1.65436e-18 -1.54403e-18 0)
(1.65436e-18 -1.78684e-18 0)
(3.30872e-18 -1.49935e-18 0)
(0 -2.85855e-19 0)
(-1.65436e-18 1.03135e-18 0)
(0 4.66825e-19 0)
(0 3.1734e-19 0)
(0 -5.95474e-19 0)
(-0.02 9.66962e-17 0)
(1.35658e-16 -1.37072e-16 0)
(-3.63959e-17 3.90265e-17 0)
(6.61744e-18 -6.92754e-18 0)
(0 -3.93831e-20 0)
(0 -3.67129e-19 0)
(0 8.26671e-19 0)
(0 9.36851e-19 0)
(0 3.93016e-19 0)
(-1.65436e-18 5.36084e-19 0)
(0 7.55486e-19 0)
(-1.65436e-18 1.95292e-18 0)
(-1.65436e-18 2.48586e-18 0)
(-1.65436e-18 2.02536e-18 0)
(-1.65436e-18 2.20722e-18 0)
(-1.65436e-18 9.11209e-19 0)
(1.65436e-18 -1.16195e-18 0)
(0 -4.88896e-20 0)
(0 7.74774e-19 0)
(0 4.99473e-19 0)
)
;

boundaryField
{
    movingWall
    {
        type            extrapolatedCalculated;
        value           nonuniform List<vector> 
20
(
(-0.02 9.66962e-17 0)
(1.35658e-16 -1.37072e-16 0)
(-3.63959e-17 3.90265e-17 0)
(6.61744e-18 -6.92754e-18 0)
(0 -3.93831e-20 0)
(0 -3.67129e-19 0)
(0 8.26671e-19 0)
(0 9.36851e-19 0)
(0 3.93016e-19 0)
(-1.65436e-18 5.36084e-19 0)
(0 7.55486e-19 0)
(-1.65436e-18 1.95292e-18 0)
(-1.65436e-18 2.48586e-18 0)
(-1.65436e-18 2.02536e-18 0)
(-1.65436e-18 2.20722e-18 0)
(-1.65436e-18 9.11209e-19 0)
(1.65436e-18 -1.16195e-18 0)
(0 -4.88896e-20 0)
(0 7.74774e-19 0)
(0 4.99473e-19 0)
)
;
    }
    fixedWalls
    {
        type            extrapolatedCalculated;
        value           nonuniform List<vector> 
60
(
(-0.02 1.02229e-16 0)
(-0.02 -2.00585e-16 0)
(-0.02 6.29864e-17 0)
(-0.02 1.21384e-16 0)
(-0.02 -1.59435e-16 0)
(-0.02 9.88111e-17 0)
(-0.02 -6.8038e-18 0)
(-0.02 -7.54911e-17 0)
(-0.02 8.88548e-17 0)
(-0.02 -5.58919e-17 0)
(-0.02 7.0592e-18 0)
(-0.02 4.99695e-17 0)
(-0.02 -7.4822e-17 0)
(-0.02 6.06349e-17 0)
(-0.02 3.83652e-17 0)
(-0.02 -1.59935e-16 0)
(-0.02 1.71568e-16 0)
(-0.02 -2.64769e-18 0)
(-0.02 -1.62948e-16 0)
(-0.02 9.66962e-17 0)
(0 7.56259e-19 0)
(1.65436e-18 -1.61346e-18 0)
(0 -4.96397e-19 0)
(0 7.32837e-19 0)
(-1.65436e-18 1.20138e-18 0)
(0 -6.49129e-19 0)
(0 -3.58804e-19 0)
(0 -2.1362e-19 0)
(0 3.39581e-19 0)
(1.65436e-18 -1.47747e-18 0)
(-1.65436e-18 1.41628e-18 0)
(-1.65436e-18 1.52916e-18 0)
(3.30872e-18 -2.87388e-18 0)
(-1.65436e-18 9.68681e-19 0)
(0 2.26657e-19 0)
(0 3.37011e-19 0)
(0 -8.23648e-19 0)
(-1.65436e-18 1.09457e-18 0)
(0 -5.95474e-19 0)
(0 4.99473e-19 0)
(-0.02 1.02229e-16 0)
(1.58819e-16 -1.59619e-16 0)
(-4.46678e-17 4.67303e-17 0)
(6.61744e-18 -6.77889e-18 0)
(-1.65436e-18 1.42841e-18 0)
(-1.65436e-18 6.71467e-19 0)
(-1.65436e-18 1.21164e-18 0)
(0 6.05302e-19 0)
(0 3.30578e-19 0)
(0 -6.12502e-19 0)
(0 1.04349e-19 0)
(-1.65436e-18 9.30614e-19 0)
(0 1.17715e-18 0)
(0 6.22732e-19 0)
(-1.65436e-18 8.58867e-19 0)
(1.65436e-18 -9.65279e-19 0)
(0 -1.49963e-18 0)
(0 -2.12857e-20 0)
(0 4.2545e-19 0)
(0 7.56259e-19 0)
)
;
    }
    frontAndBack
    {
        type            empty;
    }
}


// ************************************************************************* //
