/*--------------------------------*- C++ -*----------------------------------*\
| =========                 |                                                 |
| \\      /  F ield         | OpenFOAM: The Open Source CFD Toolbox           |
|  \\    /   O peration     | Version:  2506                                  |
|   \\  /    A nd           | Website:  www.openfoam.com                      |
|    \\/     M anipulation  |                                                 |
\*---------------------------------------------------------------------------*/
FoamFile
{
    version     2.0;
    format      ascii;
    arch        "LSB;label=32;scalar=64";
    class       volScalarField;
    location    "9.5";
    object      initialResidual:p;
}
// * * * * * * * * * * * * * * * * * * * * * * * * * * * * * * * * * * * * * //

dimensions      [0 0 0 0 0 0 0];

internalField   nonuniform List<scalar> 
400
(
1.42302e-19
-4.99559e-20
-1.05359e-20
-3.00123e-21
-2.10398e-21
9.02119e-21
2.82881e-22
-7.04215e-21
-6.28152e-21
7.12561e-21
-5.64441e-21
7.35676e-21
-7.80823e-21
-1.40591e-20
-2.30262e-21
1.1121e-20
-5.27042e-21
2.28313e-21
9.19748e-21
6.77624e-21
6.09862e-20
-1.03503e-20
-2.71178e-20
1.07983e-20
8.15777e-21
8.92333e-22
-1.54287e-20
-1.34735e-20
3.90624e-21
-2.87543e-21
1.16858e-20
1.61708e-20
1.04769e-20
-3.03518e-20
7.72219e-21
-7.69033e-22
5.88613e-21
3.04828e-21
-7.3876e-22
-2.03288e-20
2.56795e-25
1.04917e-20
-3.11971e-21
5.90173e-22
-2.5369e-21
1.3842e-20
-1.13375e-20
-5.54023e-21
-2.77386e-20
8.19018e-21
2.00166e-20
-4.5175e-21
-1.77262e-20
1.89581e-20
-1.99003e-20
-5.71936e-21
1.4161e-20
-2.45143e-20
5.21412e-21
6.77625e-21
3.38812e-20
-1.06272e-20
1.6175e-20
7.49795e-22
-1.09323e-20
-5.48501e-21
1.24622e-20
-7.07404e-21
-9.14004e-22
1.5117e-21
7.5796e-21
-1.05113e-20
3.85218e-21
-9.0341e-21
3.28284e-21
1.86239e-20
-2.06887e-20
-5.711e-21
7.77736e-21
-3.90725e-26
6.77661e-21
-3.32919e-21
4.72077e-21
-7.37299e-21
-5.57867e-21
-1.5281e-21
-5.90416e-21
-2.42663e-21
8.38627e-21
-5.83266e-21
-5.99468e-21
1.59419e-20
7.37534e-21
-1.37835e-22
6.11403e-21
5.14055e-21
-7.59242e-21
-4.92667e-21
1.12988e-21
6.77627e-21
2.71049e-20
-1.83226e-20
-9.55222e-21
-1.2619e-20
1.44821e-20
-3.19004e-22
-1.60447e-20
-1.22046e-21
-3.33155e-21
6.00901e-21
1.67118e-20
-1.24304e-20
2.54551e-22
1.23198e-20
-2.5376e-21
6.94914e-21
-1.66824e-20
-1.03322e-20
1.33152e-20
6.77623e-21
2.19344e-25
3.47487e-21
1.32933e-20
-1.1425e-20
-5.25343e-21
2.0214e-21
1.65913e-20
5.46497e-21
-1.19224e-20
-9.38458e-21
-5.27351e-21
-7.20405e-21
1.06626e-20
1.16434e-21
-2.44578e-23
-1.4667e-21
4.43084e-21
8.49416e-22
3.6581e-21
6.77628e-21
6.77631e-21
7.71039e-21
-1.65931e-20
2.21778e-20
-2.32564e-20
2.39845e-20
-3.49007e-20
1.5017e-21
5.74209e-21
9.94059e-22
8.68619e-21
-1.88741e-20
-4.42071e-21
1.78236e-20
-2.73548e-21
1.73752e-20
-1.8359e-20
-8.79301e-21
1.66828e-20
6.77625e-21
1.32253e-25
-5.40248e-21
1.06213e-20
-1.94095e-20
-9.24018e-22
8.31134e-21
-1.2879e-20
-1.53524e-20
8.43982e-21
7.74857e-21
1.95244e-20
1.07737e-20
1.16858e-21
-2.22766e-20
-5.62838e-21
-2.9179e-21
2.68593e-21
1.47524e-20
-5.35834e-21
-6.77624e-21
6.7763e-21
-1.19991e-21
-1.57948e-20
-8.818e-21
-5.6892e-21
6.20778e-21
1.15084e-20
-7.12695e-21
-1.7233e-20
-4.4253e-21
-1.53383e-20
-1.01705e-20
2.86594e-20
-4.59975e-22
-1.50478e-20
-6.59237e-21
2.93387e-21
2.71618e-21
2.78005e-21
-5.08907e-27
6.77651e-21
-2.72718e-20
1.89996e-21
1.87959e-20
-1.60994e-20
-6.38522e-22
-1.10411e-20
-5.95535e-21
1.24998e-20
7.58318e-21
8.34622e-21
2.51112e-22
-3.53325e-21
-3.8972e-21
3.71068e-21
3.46796e-21
6.6451e-22
-2.10524e-20
2.02923e-21
3.43179e-26
6.77622e-21
1.24567e-20
-1.18454e-20
-1.58222e-21
-1.39449e-20
1.46414e-20
1.19207e-20
-1.96177e-20
2.8871e-21
8.85031e-22
-3.75175e-21
3.84812e-20
-1.0392e-20
-1.96665e-21
5.26906e-21
-5.02483e-21
-5.29102e-21
1.60657e-21
1.44887e-20
-6.77625e-21
-6.77596e-21
1.02072e-20
2.13858e-20
-7.73168e-21
-1.10006e-20
2.25484e-21
1.36273e-20
-6.89917e-21
-1.03363e-20
1.12951e-20
-7.14981e-21
-1.48389e-21
1.04199e-20
-2.43551e-21
2.01231e-20
-1.5514e-20
-2.08058e-20
8.3199e-22
-1.42959e-20
1.35526e-20
6.77629e-21
-8.16858e-21
7.91392e-21
4.85092e-21
8.05163e-21
-2.04282e-20
-4.20646e-21
2.27942e-20
-5.78022e-21
-4.87333e-21
4.01255e-21
3.31585e-21
-1.13747e-20
-6.3646e-21
5.40297e-21
-9.25152e-21
-7.70757e-21
-7.62496e-21
1.30632e-20
2.25077e-26
1.35527e-20
-1.57833e-20
1.80494e-22
-1.78236e-20
-1.19892e-20
9.23758e-21
2.64722e-21
2.22148e-21
-3.32372e-21
-1.21082e-20
-8.16864e-21
-4.61286e-21
9.75811e-22
-6.99497e-21
-8.17254e-22
3.33776e-21
-1.00536e-20
1.22591e-21
4.37422e-21
6.7763e-21
-6.77606e-21
-1.86761e-21
-7.78246e-23
1.71492e-21
8.37887e-21
-3.79737e-21
1.61746e-20
-6.8495e-21
-1.3714e-21
6.04748e-21
-1.56048e-21
4.58554e-22
-4.15256e-22
-2.11735e-22
-6.05196e-21
1.18107e-20
-8.48795e-22
-2.92548e-20
5.96739e-21
6.7763e-21
7.51044e-26
2.37397e-21
-7.00576e-21
-1.62127e-20
-8.57943e-21
1.08359e-20
1.50406e-22
4.10044e-21
7.57674e-21
2.01298e-21
1.58886e-20
2.4052e-21
-5.42582e-21
-2.58967e-21
-3.53615e-21
2.50168e-21
-3.73356e-21
1.27781e-21
6.22409e-21
-6.77623e-21
6.77642e-21
-7.25764e-21
2.6991e-21
-9.9993e-21
2.08741e-20
2.47836e-21
-1.14853e-20
-3.20346e-21
1.00081e-21
1.69404e-21
-1.57137e-22
7.24818e-21
-1.12091e-20
2.2997e-21
2.21203e-21
1.06348e-20
8.15436e-22
-5.61391e-21
9.87915e-21
3.67832e-26
-3.38811e-20
3.90067e-21
-9.3012e-21
1.43083e-20
-1.30206e-20
-1.31463e-20
1.37909e-21
1.1137e-20
1.21567e-21
1.24303e-21
4.66173e-23
7.3479e-21
-4.72198e-21
1.35325e-20
-1.87875e-20
1.42313e-20
-1.04138e-20
3.55829e-21
-3.25105e-21
3.36014e-26
6.77627e-21
9.34099e-26
-6.77623e-21
-1.35525e-20
-6.77623e-21
6.7763e-21
1.35526e-20
2.03288e-20
3.40807e-26
-6.77623e-21
-6.77623e-21
3.05596e-26
-2.03288e-20
1.35526e-20
1.35526e-20
-6.77624e-21
-2.7105e-20
6.77629e-21
-6.77623e-21
6.77627e-21
)
;

boundaryField
{
    movingWall
    {
        type            zeroGradient;
    }
    fixedWalls
    {
        type            zeroGradient;
    }
    frontAndBack
    {
        type            empty;
    }
}


// ************************************************************************* //
