/*--------------------------------*- C++ -*----------------------------------*\
| =========                 |                                                 |
| \\      /  F ield         | OpenFOAM: The Open Source CFD Toolbox           |
|  \\    /   O peration     | Version:  2506                                  |
|   \\  /    A nd           | Website:  www.openfoam.com                      |
|    \\/     M anipulation  |                                                 |
\*---------------------------------------------------------------------------*/
FoamFile
{
    version     2.0;
    format      ascii;
    arch        "LSB;label=32;scalar=64";
    class       volScalarField;
    location    "9.5";
    object      initialResidual:Uy;
}
// * * * * * * * * * * * * * * * * * * * * * * * * * * * * * * * * * * * * * //

dimensions      [0 0 0 0 0 0 0];

internalField   nonuniform List<scalar> 
400
(
3.54105e-20
3.30238e-21
-1.47792e-21
6.58598e-24
7.49689e-21
6.46644e-21
2.35314e-21
-2.56836e-21
-3.28886e-21
-2.92852e-21
-1.90982e-21
1.68421e-21
9.78573e-22
-9.01016e-22
-2.30981e-21
-2.70991e-21
-2.11854e-22
3.1142e-21
3.88187e-21
9.80598e-22
5.78635e-20
1.06856e-21
3.1189e-21
8.77576e-21
9.60842e-21
2.40535e-21
-4.18493e-21
-2.28533e-21
3.34233e-21
2.96207e-21
7.99754e-21
5.99318e-21
-2.33896e-21
-2.79486e-21
-9.79405e-22
-6.542e-21
-1.77675e-21
6.90046e-21
2.47435e-21
4.00137e-22
3.91324e-20
1.71803e-21
6.81748e-21
1.73089e-20
1.62707e-20
5.35052e-21
-1.56103e-21
1.02674e-21
2.46174e-21
3.22708e-21
7.306e-21
1.00062e-21
-7.26906e-21
-3.88187e-21
4.24712e-21
2.40061e-21
2.78549e-22
-3.13392e-21
-3.53581e-21
-4.13835e-22
3.78882e-20
1.76945e-20
5.75156e-21
1.29683e-20
1.67779e-20
1.53537e-20
1.07893e-20
1.29874e-22
-5.46038e-21
4.96906e-22
2.076e-22
-4.96506e-21
-4.31897e-21
-4.38919e-21
-3.93393e-21
1.77419e-21
1.58491e-21
-3.74293e-21
-4.40247e-22
-9.92901e-22
3.24262e-20
2.51123e-20
1.61831e-20
6.19083e-21
-6.59043e-22
5.56087e-21
1.10148e-20
3.21884e-21
-7.2758e-22
4.85041e-21
5.62044e-21
-1.31269e-21
-2.39699e-21
-5.53295e-23
-4.34168e-21
-5.79951e-21
-1.73636e-21
4.31996e-21
3.67795e-21
-1.42664e-21
1.1728e-20
2.43379e-20
1.44624e-20
7.37854e-21
3.2389e-21
4.42871e-21
6.30362e-21
7.5431e-21
5.28094e-21
1.76591e-21
-3.51941e-21
2.25669e-21
5.02807e-21
2.97549e-21
4.86617e-21
-8.49844e-22
-3.94252e-21
-1.31368e-21
1.43404e-21
-1.25765e-22
3.6535e-20
1.47712e-20
1.54487e-20
1.17769e-20
9.63008e-21
9.35069e-21
8.05423e-21
9.7652e-21
8.18828e-21
-1.90798e-21
-1.40975e-20
-5.83759e-21
6.43338e-21
9.96791e-21
9.94508e-21
7.4291e-21
9.37394e-22
-4.64124e-21
-4.62549e-21
6.53992e-22
-1.58952e-21
2.4896e-20
1.63501e-20
1.02313e-20
5.6366e-21
6.78123e-21
1.05567e-20
9.34852e-21
6.56044e-21
-3.50415e-22
-3.84436e-21
-5.28283e-21
-7.84468e-22
8.98524e-21
6.40807e-21
5.84306e-21
5.96144e-21
6.99494e-21
-2.75026e-22
-5.37562e-22
3.87543e-21
1.27572e-20
1.33023e-20
1.14191e-20
6.62007e-21
-2.26039e-21
-2.13797e-21
8.47585e-21
1.23432e-20
6.20018e-21
7.4497e-21
7.27938e-21
3.1525e-21
-3.12165e-21
-6.19709e-23
3.65289e-21
1.67117e-21
6.39744e-21
4.77826e-21
6.58274e-22
3.14957e-20
3.28585e-21
1.14276e-20
6.93308e-21
9.35564e-21
4.18221e-21
2.20782e-21
2.13919e-21
2.719e-22
4.92509e-21
7.56818e-21
5.49938e-21
2.78035e-21
-2.27191e-21
-2.16731e-21
2.87547e-21
3.58007e-21
-4.17212e-22
2.8467e-21
3.38236e-21
-4.00591e-20
3.17114e-20
-3.22858e-21
1.67641e-21
7.20851e-21
1.37966e-20
1.05962e-20
-1.15308e-21
-1.01229e-20
1.5687e-21
4.69411e-21
1.2198e-21
3.07169e-21
3.56565e-22
-1.47615e-21
1.17821e-21
3.37861e-21
-4.86719e-22
3.6536e-21
2.47977e-21
1.89059e-20
-4.45216e-21
-1.55886e-21
5.98536e-21
6.43064e-21
4.83078e-21
-8.09417e-23
3.71475e-21
2.00007e-21
-2.90077e-21
1.92342e-22
1.68312e-21
4.01272e-21
2.84234e-21
9.90224e-21
5.92058e-21
-2.40453e-22
-1.1839e-21
3.16231e-21
1.77818e-22
2.83543e-20
-1.03084e-20
5.91743e-21
8.12164e-21
8.21477e-21
3.17944e-21
-4.89111e-21
-3.29224e-21
3.56067e-21
2.63529e-22
6.12737e-21
6.0789e-21
1.51246e-21
8.62485e-21
6.12648e-21
-7.2837e-22
8.36539e-22
2.93676e-21
3.26183e-22
-1.29769e-21
-8.67138e-21
1.69448e-20
8.76629e-21
7.34176e-21
2.95065e-21
2.05047e-21
8.58593e-22
-1.03766e-21
3.01319e-21
4.43619e-21
8.04734e-21
6.20238e-21
3.81562e-21
7.15333e-21
-2.18841e-21
-8.16405e-21
-3.38324e-21
1.48776e-21
3.85055e-22
-8.31424e-22
1.15963e-20
8.67679e-21
1.35463e-20
6.13514e-21
5.52516e-22
-8.32222e-22
4.56798e-21
7.15572e-21
-1.93481e-21
-6.37375e-21
-1.95057e-21
3.99934e-21
3.34383e-21
-1.34539e-21
-2.80848e-21
2.46936e-21
4.23857e-21
1.21827e-21
-3.52123e-21
-1.81547e-21
4.20128e-21
2.3262e-21
5.71716e-21
2.57225e-21
-2.59793e-22
1.601e-21
5.95334e-21
5.9679e-21
-2.44729e-21
-7.38622e-21
-5.22045e-21
1.56987e-21
1.58246e-22
-1.06012e-21
2.52601e-22
3.67574e-21
4.97454e-21
-5.45563e-22
-2.41367e-21
-1.98142e-21
-6.30137e-21
1.27549e-20
-5.29215e-21
1.86929e-21
1.28016e-21
6.24277e-21
3.87034e-21
-3.42649e-21
-7.52363e-22
2.70637e-21
7.0217e-22
3.03347e-21
1.63697e-21
8.05628e-22
-2.79205e-22
-9.29086e-21
-7.08622e-21
1.86333e-21
1.53979e-21
-2.29755e-21
2.35495e-20
-3.27476e-21
-3.47841e-21
1.25986e-21
1.32983e-20
1.14068e-20
-2.21455e-21
-7.97987e-21
-9.17935e-22
3.16783e-21
7.4047e-22
1.91753e-21
4.7383e-21
3.34154e-22
-2.16098e-21
-6.49532e-22
-8.65004e-22
-1.34093e-21
-4.42131e-21
-2.524e-21
4.5985e-21
-3.88171e-21
2.96603e-21
8.60387e-21
1.02922e-20
-4.42937e-22
-8.54853e-21
-6.05815e-21
2.35675e-21
2.55422e-21
-1.70992e-21
-2.65223e-21
3.81063e-21
-7.25776e-22
-8.34559e-22
1.43861e-20
9.62261e-21
-7.75253e-21
-7.24194e-21
9.74968e-23
-2.92054e-20
1.34269e-20
3.74289e-21
9.71563e-21
-1.41267e-22
-6.66071e-21
-6.8405e-21
-4.32358e-21
4.8539e-22
2.97199e-21
-4.05152e-23
-4.10112e-22
1.25261e-21
-2.10651e-21
-1.82323e-21
9.24039e-21
5.96145e-21
-3.15094e-21
-3.71648e-21
7.28445e-22
)
;

boundaryField
{
    movingWall
    {
        type            zeroGradient;
    }
    fixedWalls
    {
        type            zeroGradient;
    }
    frontAndBack
    {
        type            empty;
    }
}


// ************************************************************************* //
