/*--------------------------------*- C++ -*----------------------------------*\
| =========                 |                                                 |
| \\      /  F ield         | OpenFOAM: The Open Source CFD Toolbox           |
|  \\    /   O peration     | Version:  2506                                  |
|   \\  /    A nd           | Website:  www.openfoam.com                      |
|    \\/     M anipulation  |                                                 |
\*---------------------------------------------------------------------------*/
FoamFile
{
    version     2.0;
    format      ascii;
    arch        "LSB;label=32;scalar=64";
    class       volScalarField;
    location    "9.5";
    object      initialResidual:k;
}
// * * * * * * * * * * * * * * * * * * * * * * * * * * * * * * * * * * * * * //

dimensions      [0 0 0 0 0 0 0];

internalField   nonuniform List<scalar> 
400
(
-1.72677e-13
-1.72662e-13
-1.72717e-13
-1.72637e-13
-1.72726e-13
-1.72628e-13
-1.72725e-13
-1.72634e-13
-1.72714e-13
-1.72655e-13
-1.72713e-13
-1.7264e-13
-1.72719e-13
-1.72641e-13
-1.72711e-13
-1.72655e-13
-1.72694e-13
-1.72673e-13
-1.7268e-13
-1.72679e-13
-1.7745e-13
-1.77701e-13
-1.77174e-13
-1.78511e-13
-1.7663e-13
-1.77957e-13
-1.76924e-13
-1.77898e-13
-1.77065e-13
-1.77287e-13
-1.77544e-13
-1.77413e-13
-1.7748e-13
-1.77449e-13
-1.77471e-13
-1.77448e-13
-1.77474e-13
-1.77471e-13
-1.77469e-13
-1.7745e-13
-1.85014e-13
-1.84659e-13
-1.85239e-13
-1.84941e-13
-1.84981e-13
-1.84968e-13
-1.84993e-13
-1.84878e-13
-1.84986e-13
-1.84887e-13
-1.84969e-13
-1.84926e-13
-1.84969e-13
-1.84932e-13
-1.84962e-13
-1.84927e-13
-1.84952e-13
-1.84941e-13
-1.84944e-13
-1.84934e-13
-1.92701e-13
-1.92185e-13
-1.93017e-13
-1.92581e-13
-1.9265e-13
-1.9261e-13
-1.92634e-13
-1.92583e-13
-1.92611e-13
-1.92545e-13
-1.92619e-13
-1.92574e-13
-1.92623e-13
-1.92581e-13
-1.92616e-13
-1.92576e-13
-1.92604e-13
-1.92592e-13
-1.92596e-13
-1.92585e-13
-1.98905e-13
-1.98281e-13
-1.99223e-13
-1.98801e-13
-1.98952e-13
-1.9862e-13
-1.99169e-13
-1.98518e-13
-1.98867e-13
-1.98784e-13
-1.98743e-13
-1.98823e-13
-1.98774e-13
-1.98782e-13
-1.98803e-13
-1.9877e-13
-1.98798e-13
-1.98787e-13
-1.98793e-13
-1.98781e-13
-2.03245e-13
-2.0267e-13
-2.0354e-13
-2.03073e-13
-2.03149e-13
-2.03087e-13
-2.03146e-13
-2.0311e-13
-2.031e-13
-2.03026e-13
-2.03115e-13
-2.03072e-13
-2.03118e-13
-2.03097e-13
-2.03127e-13
-2.03085e-13
-2.03108e-13
-2.03098e-13
-2.03099e-13
-2.03087e-13
-2.05938e-13
-2.0527e-13
-2.06261e-13
-2.05843e-13
-2.06001e-13
-2.05626e-13
-2.06219e-13
-2.05501e-13
-2.05944e-13
-2.05753e-13
-2.05763e-13
-2.05852e-13
-2.05784e-13
-2.05804e-13
-2.05826e-13
-2.05793e-13
-2.05821e-13
-2.05811e-13
-2.05815e-13
-2.05803e-13
-2.07538e-13
-2.07095e-13
-2.07832e-13
-2.07459e-13
-2.07505e-13
-2.07489e-13
-2.07519e-13
-2.07372e-13
-2.07498e-13
-2.07413e-13
-2.07495e-13
-2.07437e-13
-2.07482e-13
-2.07445e-13
-2.07476e-13
-2.07441e-13
-2.07468e-13
-2.07457e-13
-2.07459e-13
-2.07446e-13
-2.08583e-13
-2.07952e-13
-2.08953e-13
-2.08501e-13
-2.08606e-13
-2.08428e-13
-2.0859e-13
-2.08482e-13
-2.08481e-13
-2.08524e-13
-2.08453e-13
-2.0844e-13
-2.08487e-13
-2.08472e-13
-2.08505e-13
-2.08462e-13
-2.08489e-13
-2.08478e-13
-2.08481e-13
-2.08468e-13
-2.09342e-13
-2.08699e-13
-2.09642e-13
-2.09182e-13
-2.09279e-13
-2.09188e-13
-2.09241e-13
-2.09193e-13
-2.09203e-13
-2.09163e-13
-2.09201e-13
-2.09158e-13
-2.09207e-13
-2.0917e-13
-2.09203e-13
-2.09169e-13
-2.09197e-13
-2.09186e-13
-2.09188e-13
-2.09175e-13
-2.09908e-13
-2.09273e-13
-2.10223e-13
-2.09741e-13
-2.09839e-13
-2.09752e-13
-2.09784e-13
-2.09747e-13
-2.09769e-13
-2.09732e-13
-2.09783e-13
-2.09734e-13
-2.09784e-13
-2.09748e-13
-2.09781e-13
-2.09744e-13
-2.09771e-13
-2.09758e-13
-2.0976e-13
-2.09747e-13
-2.10344e-13
-2.10089e-13
-2.1058e-13
-2.10258e-13
-2.1039e-13
-2.10252e-13
-2.10361e-13
-2.10265e-13
-2.10339e-13
-2.10277e-13
-2.10314e-13
-2.10278e-13
-2.10306e-13
-2.10278e-13
-2.10301e-13
-2.10276e-13
-2.10311e-13
-2.10298e-13
-2.10298e-13
-2.10284e-13
-2.11027e-13
-2.1032e-13
-2.11308e-13
-2.10863e-13
-2.10982e-13
-2.10756e-13
-2.10964e-13
-2.10855e-13
-2.10833e-13
-2.10912e-13
-2.10802e-13
-2.10831e-13
-2.10863e-13
-2.1084e-13
-2.10871e-13
-2.10832e-13
-2.10861e-13
-2.1085e-13
-2.10853e-13
-2.1084e-13
-2.11532e-13
-2.11059e-13
-2.11806e-13
-2.11619e-13
-2.11371e-13
-2.11815e-13
-2.11198e-13
-2.1182e-13
-2.11038e-13
-2.12263e-13
-2.10654e-13
-2.12308e-13
-2.10625e-13
-2.12119e-13
-2.10816e-13
-2.11834e-13
-2.11128e-13
-2.11459e-13
-2.1141e-13
-2.11446e-13
-2.12216e-13
-2.11793e-13
-2.12505e-13
-2.12091e-13
-2.12165e-13
-2.12137e-13
-2.12173e-13
-2.12047e-13
-2.12167e-13
-2.12079e-13
-2.1217e-13
-2.12108e-13
-2.12155e-13
-2.1212e-13
-2.12154e-13
-2.12118e-13
-2.12145e-13
-2.12126e-13
-2.12128e-13
-2.12115e-13
-2.12894e-13
-2.12952e-13
-2.12651e-13
-2.14099e-13
-2.11875e-13
-2.13554e-13
-2.12086e-13
-2.13638e-13
-2.12115e-13
-2.13351e-13
-2.12425e-13
-2.12653e-13
-2.12935e-13
-2.12812e-13
-2.12872e-13
-2.12828e-13
-2.12897e-13
-2.12888e-13
-2.12838e-13
-2.12842e-13
-2.13722e-13
-2.13435e-13
-2.13733e-13
-2.13958e-13
-2.13483e-13
-2.13747e-13
-2.13391e-13
-2.14059e-13
-2.13151e-13
-2.1445e-13
-2.1278e-13
-2.14408e-13
-2.12786e-13
-2.14215e-13
-2.13042e-13
-2.13908e-13
-2.13328e-13
-2.13583e-13
-2.13572e-13
-2.13593e-13
-2.14385e-13
-2.14103e-13
-2.1453e-13
-2.14395e-13
-2.14256e-13
-2.14769e-13
-2.13996e-13
-2.14582e-13
-2.13967e-13
-2.14943e-13
-2.13695e-13
-2.15051e-13
-2.13602e-13
-2.14903e-13
-2.13742e-13
-2.14614e-13
-2.14015e-13
-2.14285e-13
-2.14276e-13
-2.14297e-13
-2.1496e-13
-2.14393e-13
-2.15392e-13
-2.14819e-13
-2.1493e-13
-2.14799e-13
-2.14859e-13
-2.14852e-13
-2.14888e-13
-2.14875e-13
-2.1488e-13
-2.14852e-13
-2.1487e-13
-2.14977e-13
-2.14845e-13
-2.14888e-13
-2.14849e-13
-2.14844e-13
-2.14863e-13
-2.14856e-13
-2.15161e-13
-2.15181e-13
-2.15167e-13
-2.15166e-13
-2.15169e-13
-2.15168e-13
-2.15168e-13
-2.15168e-13
-2.15172e-13
-2.15172e-13
-2.15168e-13
-2.15168e-13
-2.15169e-13
-2.15169e-13
-2.15169e-13
-2.15169e-13
-2.15169e-13
-2.15168e-13
-2.15168e-13
-2.15168e-13
)
;

boundaryField
{
    movingWall
    {
        type            zeroGradient;
    }
    fixedWalls
    {
        type            zeroGradient;
    }
    frontAndBack
    {
        type            empty;
    }
}


// ************************************************************************* //
