/*--------------------------------*- C++ -*----------------------------------*\
| =========                 |                                                 |
| \\      /  F ield         | OpenFOAM: The Open Source CFD Toolbox           |
|  \\    /   O peration     | Version:  2506                                  |
|   \\  /    A nd           | Website:  www.openfoam.com                      |
|    \\/     M anipulation  |                                                 |
\*---------------------------------------------------------------------------*/
FoamFile
{
    version     2.0;
    format      ascii;
    arch        "LSB;label=32;scalar=64";
    class       volScalarField;
    location    "9.5";
    object      initialResidual:epsilon;
}
// * * * * * * * * * * * * * * * * * * * * * * * * * * * * * * * * * * * * * //

dimensions      [0 0 0 0 0 0 0];

internalField   nonuniform List<scalar> 
400
(
0
0
0
0
0
0
0
0
0
0
0
0
0
0
0
0
0
0
0
0
0
-6.99401e-14
-6.9893e-14
-6.9967e-14
-6.99835e-14
-7.00447e-14
-7.00798e-14
-7.01509e-14
-7.01762e-14
-7.02487e-14
-7.02837e-14
-7.03393e-14
-7.03976e-14
-7.04275e-14
-7.05126e-14
-7.05164e-14
-7.0624e-14
-7.06157e-14
-1.41278e-13
0
0
-7.34654e-14
-7.34245e-14
-7.35115e-14
-7.35222e-14
-7.35938e-14
-7.36273e-14
-7.37106e-14
-7.37316e-14
-7.38165e-14
-7.38493e-14
-7.39127e-14
-7.39745e-14
-7.40051e-14
-7.41005e-14
-7.40975e-14
-7.42215e-14
-7.42025e-14
-1.48616e-13
0
0
-7.73491e-14
-7.73077e-14
-7.74003e-14
-7.74115e-14
-7.74878e-14
-7.75233e-14
-7.76122e-14
-7.76343e-14
-7.77248e-14
-7.77596e-14
-7.78272e-14
-7.78929e-14
-7.79255e-14
-7.80271e-14
-7.80238e-14
-7.81559e-14
-7.81355e-14
-1.56492e-13
0
0
-8.05973e-14
-8.05544e-14
-8.06516e-14
-8.06641e-14
-8.07441e-14
-8.07814e-14
-8.08751e-14
-8.08983e-14
-8.09937e-14
-8.10302e-14
-8.11014e-14
-8.11704e-14
-8.12049e-14
-8.13116e-14
-8.13085e-14
-8.14471e-14
-8.14262e-14
-1.63082e-13
0
0
-8.2932e-14
-8.28878e-14
-8.29884e-14
-8.30016e-14
-8.30844e-14
-8.31236e-14
-8.32199e-14
-8.3245e-14
-8.33428e-14
-8.33815e-14
-8.34549e-14
-8.35267e-14
-8.35624e-14
-8.3673e-14
-8.36701e-14
-8.38135e-14
-8.37922e-14
-1.67821e-13
0
0
-8.4453e-14
-8.44085e-14
-8.45115e-14
-8.45254e-14
-8.461e-14
-8.46499e-14
-8.47489e-14
-8.47741e-14
-8.48749e-14
-8.4914e-14
-8.49895e-14
-8.50627e-14
-8.50995e-14
-8.52125e-14
-8.52097e-14
-8.53563e-14
-8.53347e-14
-1.70912e-13
0
0
-8.54001e-14
-8.53563e-14
-8.54602e-14
-8.54745e-14
-8.55601e-14
-8.56012e-14
-8.57009e-14
-8.57271e-14
-8.58287e-14
-8.5869e-14
-8.59451e-14
-8.60198e-14
-8.6057e-14
-8.61716e-14
-8.61689e-14
-8.63176e-14
-8.62958e-14
-1.72837e-13
0
0
-8.60014e-14
-8.5956e-14
-8.60614e-14
-8.6076e-14
-8.61626e-14
-8.62038e-14
-8.63048e-14
-8.63309e-14
-8.64337e-14
-8.64741e-14
-8.65511e-14
-8.66262e-14
-8.6664e-14
-8.67795e-14
-8.6777e-14
-8.69268e-14
-8.69051e-14
-1.74058e-13
0
0
-8.64169e-14
-8.63725e-14
-8.64781e-14
-8.64926e-14
-8.65798e-14
-8.66212e-14
-8.67227e-14
-8.67493e-14
-8.68526e-14
-8.68934e-14
-8.69708e-14
-8.70465e-14
-8.70845e-14
-8.72007e-14
-8.71982e-14
-8.73489e-14
-8.73271e-14
-1.74904e-13
0
0
-8.6749e-14
-8.67045e-14
-8.68105e-14
-8.68252e-14
-8.69128e-14
-8.69545e-14
-8.70563e-14
-8.70833e-14
-8.71869e-14
-8.72281e-14
-8.73057e-14
-8.7382e-14
-8.742e-14
-8.75369e-14
-8.75343e-14
-8.76859e-14
-8.76639e-14
-1.75578e-13
0
0
-8.70542e-14
-8.70107e-14
-8.71167e-14
-8.71315e-14
-8.72195e-14
-8.72613e-14
-8.73638e-14
-8.73906e-14
-8.74948e-14
-8.75361e-14
-8.76141e-14
-8.76907e-14
-8.77289e-14
-8.78463e-14
-8.78437e-14
-8.7996e-14
-8.79739e-14
-1.76199e-13
0
0
-8.73667e-14
-8.73219e-14
-8.74288e-14
-8.74439e-14
-8.7532e-14
-8.75743e-14
-8.76771e-14
-8.7704e-14
-8.78088e-14
-8.78502e-14
-8.79286e-14
-8.80055e-14
-8.80439e-14
-8.81618e-14
-8.81594e-14
-8.83121e-14
-8.82901e-14
-1.76833e-13
0
0
-8.77035e-14
-8.76572e-14
-8.77648e-14
-8.77804e-14
-8.78686e-14
-8.79118e-14
-8.8014e-14
-8.80423e-14
-8.81463e-14
-8.81891e-14
-8.82668e-14
-8.83449e-14
-8.8383e-14
-8.85019e-14
-8.84991e-14
-8.86527e-14
-8.86307e-14
-1.77515e-13
0
0
-8.80711e-14
-8.80255e-14
-8.81334e-14
-8.81488e-14
-8.82377e-14
-8.82808e-14
-8.83839e-14
-8.8412e-14
-8.8517e-14
-8.85595e-14
-8.86382e-14
-8.87162e-14
-8.87549e-14
-8.88739e-14
-8.88716e-14
-8.90257e-14
-8.90038e-14
-1.78262e-13
0
0
-8.84668e-14
-8.8423e-14
-8.85306e-14
-8.85469e-14
-8.86351e-14
-8.86793e-14
-8.87824e-14
-8.88111e-14
-8.89163e-14
-8.89594e-14
-8.90383e-14
-8.91167e-14
-8.91557e-14
-8.92753e-14
-8.92731e-14
-8.94278e-14
-8.94061e-14
-1.79067e-13
0
0
-8.88738e-14
-8.88296e-14
-8.89379e-14
-8.89541e-14
-8.90434e-14
-8.90871e-14
-8.91912e-14
-8.92201e-14
-8.93256e-14
-8.93692e-14
-8.94482e-14
-8.95275e-14
-8.95663e-14
-8.9687e-14
-8.96845e-14
-8.98403e-14
-8.98183e-14
-1.79893e-13
0
0
-8.9254e-14
-8.9209e-14
-8.93169e-14
-8.93339e-14
-8.94232e-14
-8.94682e-14
-8.95716e-14
-8.96017e-14
-8.97066e-14
-8.97515e-14
-8.98302e-14
-8.99103e-14
-8.99492e-14
-9.00701e-14
-9.00684e-14
-9.0224e-14
-9.02029e-14
-1.80662e-13
0
0
-8.97605e-14
-8.9722e-14
-8.98401e-14
-8.98392e-14
-8.9937e-14
-8.9969e-14
-9.00846e-14
-9.00989e-14
-9.02169e-14
-9.02485e-14
-9.03355e-14
-9.04094e-14
-9.0449e-14
-9.05724e-14
-9.05627e-14
-9.07286e-14
-9.06952e-14
-1.81465e-13
0
0
0
0
0
0
0
0
0
0
0
0
0
0
0
0
0
0
0
0
0
)
;

boundaryField
{
    movingWall
    {
        type            zeroGradient;
    }
    fixedWalls
    {
        type            zeroGradient;
    }
    frontAndBack
    {
        type            empty;
    }
}


// ************************************************************************* //
