/*--------------------------------*- C++ -*----------------------------------*\
| =========                 |                                                 |
| \\      /  F ield         | OpenFOAM: The Open Source CFD Toolbox           |
|  \\    /   O peration     | Version:  2506                                  |
|   \\  /    A nd           | Website:  www.openfoam.com                      |
|    \\/     M anipulation  |                                                 |
\*---------------------------------------------------------------------------*/
FoamFile
{
    version     2.0;
    format      ascii;
    arch        "LSB;label=32;scalar=64";
    class       volVectorField;
    location    "9.5";
    object      LambVectorField;
}
// * * * * * * * * * * * * * * * * * * * * * * * * * * * * * * * * * * * * * //

dimensions      [0 1 -2 0 0 0 0];

internalField   nonuniform List<vector> 
400
(
(-2.04054e-24 -1.18227e-11 0)
(-5.89504e-25 1.58077e-11 -0)
(-3.10259e-26 -3.51505e-12 0)
(-1.50766e-27 8.05919e-13 -0)
(-8.45308e-29 -1.70305e-13 0)
(-2.5934e-30 -2.50898e-14 0)
(-1.10778e-29 -5.39993e-14 0)
(1.98659e-30 1.96194e-14 0)
(1.45179e-31 1.62172e-14 0)
(-1.03369e-31 1.69692e-15 -0)
(1.13063e-31 -1.4103e-14 -0)
(-5.2627e-30 -6.56903e-14 0)
(2.33478e-31 2.18644e-15 0)
(5.07501e-31 8.71255e-15 0)
(-1.35851e-30 -6.91024e-14 0)
(4.81165e-30 -7.53257e-14 -0)
(5.28464e-31 -1.31342e-14 -0)
(-4.46019e-30 -6.61119e-14 0)
(-3.83399e-30 -4.86654e-14 0)
(1.09111e-31 9.07994e-15 0)
(-5.56529e-27 -4.57282e-13 0)
(-2.24284e-27 9.16346e-13 -0)
(-2.00409e-28 -3.53171e-13 0)
(3.18306e-33 -3.60976e-14 -0)
(-6.75054e-30 -5.85572e-14 0)
(-4.14185e-31 -9.54722e-15 0)
(5.64401e-31 -9.36029e-15 -0)
(1.03909e-29 -7.75066e-14 -0)
(9.70418e-30 -9.86372e-14 -0)
(-4.09453e-30 -1.0457e-13 0)
(-1.21797e-29 -9.07841e-14 0)
(-3.59534e-30 -2.68618e-14 0)
(-7.38284e-30 -5.60456e-14 0)
(-7.6103e-30 -5.00019e-14 0)
(4.67932e-30 5.2197e-14 0)
(-4.72051e-30 4.78175e-14 -0)
(7.02255e-30 -5.97778e-14 -0)
(4.42876e-31 -1.02893e-14 -0)
(4.58448e-32 -3.14346e-15 -0)
(3.04026e-32 -2.61918e-15 -0)
(-1.06762e-24 6.68269e-12 -0)
(-4.61252e-25 -1.34141e-11 0)
(-2.75337e-26 3.22333e-12 -0)
(-1.09754e-27 -6.81609e-13 0)
(-7.61835e-29 2.05536e-13 -0)
(9.93845e-30 1.02499e-13 0)
(-3.60133e-30 8.91477e-14 -0)
(1.43892e-30 7.72142e-14 0)
(1.45972e-32 2.38565e-14 0)
(1.7156e-30 3.35598e-14 0)
(-6.3209e-30 9.8863e-14 -0)
(-1.11803e-29 8.99042e-14 -0)
(-6.97006e-30 4.6521e-14 -0)
(-1.68067e-30 3.54072e-14 -0)
(1.68776e-30 4.41792e-14 0)
(3.1609e-30 5.98182e-14 0)
(-1.79114e-30 1.00186e-13 -0)
(-1.30324e-29 9.59209e-14 -0)
(-8.17104e-30 4.9843e-14 -0)
(2.3614e-30 -2.56131e-14 -0)
(-5.50474e-25 -4.70369e-12 0)
(-2.61592e-25 1.00291e-11 -0)
(-1.26301e-26 -2.24495e-12 0)
(-9.36223e-28 5.39158e-13 -0)
(-3.50916e-29 -1.49702e-13 0)
(-3.25518e-32 -1.02969e-15 0)
(7.67322e-30 3.13568e-14 0)
(1.66482e-29 6.39953e-14 0)
(2.44382e-29 1.6641e-13 0)
(-8.10272e-30 1.66376e-13 -0)
(-1.03028e-29 6.37347e-14 -0)
(-7.32844e-30 5.09105e-14 -0)
(-6.56404e-30 5.10207e-14 -0)
(-3.11562e-30 2.78048e-14 -0)
(9.05674e-31 -6.67644e-15 -0)
(-5.93057e-31 1.3095e-14 -0)
(1.14493e-31 2.57401e-14 0)
(-1.25597e-30 3.96966e-14 -0)
(-7.69787e-31 6.33739e-15 -0)
(-5.18486e-31 5.45699e-15 -0)
(5.98226e-28 1.33527e-13 0)
(-5.35687e-28 4.43598e-13 -0)
(-3.08509e-30 -6.97892e-14 0)
(-5.50133e-30 2.30515e-14 -0)
(-2.91335e-30 1.56372e-14 -0)
(1.64155e-30 -1.32409e-14 -0)
(1.96247e-30 -3.64093e-14 -0)
(9.88596e-31 -3.19587e-14 -0)
(3.26114e-31 -6.08045e-14 -0)
(-3.20704e-30 -9.16032e-14 0)
(-4.97823e-30 -5.10497e-14 0)
(5.486e-32 1.6107e-14 0)
(-3.11759e-31 4.90555e-15 -0)
(-1.31605e-30 2.88294e-14 -0)
(-2.67264e-30 3.30789e-14 -0)
(3.73629e-31 -3.54528e-15 -0)
(3.06764e-30 -6.76537e-14 -0)
(-9.28666e-31 -3.19703e-14 0)
(9.94765e-32 3.006e-14 0)
(1.34508e-32 -2.68243e-14 -0)
(-7.5048e-25 6.56222e-12 -0)
(-2.51767e-25 -1.01155e-11 0)
(-1.41243e-26 2.3979e-12 -0)
(-5.52157e-28 -4.67441e-13 0)
(-4.63358e-29 1.15055e-13 -0)
(-1.2517e-30 -4.07949e-14 0)
(-1.54019e-31 -2.94973e-14 0)
(7.80622e-32 1.42958e-15 0)
(-7.47306e-32 8.23542e-15 -0)
(-3.51738e-31 1.26757e-14 -0)
(-1.8637e-30 1.37207e-14 -0)
(4.89862e-30 -2.96965e-14 -0)
(1.19284e-30 -1.08522e-14 -0)
(4.48174e-31 -7.94154e-15 -0)
(1.52239e-31 -4.99126e-15 -0)
(1.39627e-32 -2.14099e-15 -0)
(-1.92078e-31 2.11278e-14 -0)
(-1.90616e-30 -3.57954e-14 0)
(-1.84754e-30 -2.37434e-14 0)
(1.91337e-31 9.74475e-15 0)
(-1.41277e-24 -9.46982e-12 0)
(-4.2492e-25 1.31707e-11 -0)
(-2.49526e-26 -3.23144e-12 0)
(-8.7898e-28 5.58311e-13 -0)
(-1.51658e-28 -2.95976e-13 0)
(-2.18277e-30 -7.23819e-14 0)
(-1.03717e-29 -6.82274e-14 0)
(-5.75392e-30 -3.37811e-14 0)
(3.03933e-30 1.38923e-14 0)
(1.44263e-30 4.59343e-14 0)
(-1.44877e-29 6.02236e-14 -0)
(1.08075e-29 -3.60518e-14 -0)
(2.15431e-29 -1.42576e-13 -0)
(-6.76129e-30 -1.61829e-13 0)
(-3.96943e-30 -3.546e-14 0)
(-2.9874e-30 -2.38363e-14 0)
(2.9502e-30 3.72247e-14 0)
(1.80694e-31 7.48722e-15 0)
(2.09504e-32 4.7815e-15 0)
(4.57045e-32 -1.92998e-15 -0)
(-2.4052e-25 3.60863e-12 -0)
(-8.36327e-26 -5.84765e-12 0)
(-4.45178e-27 1.35071e-12 -0)
(-1.85811e-28 -2.33763e-13 0)
(-1.56706e-29 1.07994e-13 -0)
(-4.55682e-33 3.24908e-16 -0)
(-8.38007e-30 5.64867e-14 -0)
(2.84656e-30 -7.73709e-14 -0)
(-2.72721e-30 -3.27581e-14 0)
(2.49715e-31 1.26508e-14 0)
(7.90878e-31 -1.82843e-14 -0)
(-5.56302e-31 8.12495e-15 -0)
(-7.66169e-30 6.15377e-14 -0)
(-3.2795e-30 2.31367e-14 -0)
(5.36918e-30 -6.33004e-14 -0)
(5.82539e-31 -1.14578e-14 -0)
(-1.99821e-30 -6.7149e-14 0)
(-1.77489e-31 -2.25964e-15 0)
(7.09443e-31 1.35508e-14 0)
(2.62402e-32 -4.60671e-16 -0)
(-3.46857e-25 5.36719e-12 -0)
(-8.20121e-26 -5.88533e-12 0)
(-5.02991e-27 1.50928e-12 -0)
(-1.66813e-28 -2.25567e-13 0)
(-5.27555e-29 1.99966e-13 -0)
(-2.46035e-29 1.39849e-13 -0)
(-1.55991e-29 5.08015e-14 -0)
(3.24742e-30 -2.28946e-14 -0)
(-2.32296e-31 2.9738e-15 -0)
(-5.53488e-30 3.22583e-14 -0)
(1.10593e-29 -8.53036e-14 -0)
(-1.21767e-29 -8.73798e-14 0)
(-8.19548e-30 -4.05616e-14 0)
(2.50894e-31 8.74595e-14 0)
(-8.43265e-30 6.46459e-14 -0)
(1.36404e-30 -1.34402e-14 -0)
(-2.90899e-31 -7.34884e-14 0)
(-5.45613e-30 -5.97648e-14 0)
(9.05167e-31 1.52116e-14 0)
(-1.64059e-30 2.69733e-14 -0)
(-1.931e-24 -1.22643e-11 0)
(-4.98674e-25 1.45545e-11 -0)
(-2.86784e-26 -3.53691e-12 0)
(-1.18528e-27 7.3899e-13 -0)
(-6.8334e-29 -1.52748e-13 0)
(-6.66131e-31 8.71392e-15 -0)
(-3.53944e-30 -3.96907e-14 0)
(3.27029e-30 6.61848e-14 0)
(1.43873e-30 -4.70619e-14 -0)
(1.08826e-32 -4.93091e-16 -0)
(-1.31252e-30 5.11905e-14 -0)
(3.59552e-31 4.42452e-14 0)
(3.56615e-30 4.81854e-14 0)
(-1.06873e-31 -1.56309e-15 0)
(-2.11725e-31 -2.36195e-15 0)
(-4.36476e-30 -4.74469e-14 0)
(1.61634e-30 7.34446e-14 0)
(-1.38514e-30 1.38027e-14 -0)
(5.9262e-32 -5.10794e-16 -0)
(-5.69433e-31 5.97863e-15 -0)
(-2.47496e-24 1.39479e-11 -0)
(-6.39086e-25 -1.67148e-11 0)
(-3.37917e-26 3.77978e-12 -0)
(-1.70329e-27 -9.50363e-13 0)
(-5.43104e-29 1.04307e-13 -0)
(-3.78405e-29 -1.82734e-13 0)
(-3.56807e-30 -1.60389e-14 0)
(8.71809e-30 9.042e-14 0)
(-1.24934e-29 8.94715e-14 -0)
(-8.04777e-31 -5.41763e-14 0)
(6.62609e-30 5.05512e-14 0)
(3.28739e-30 6.39029e-14 0)
(1.99817e-30 5.85139e-14 0)
(4.45005e-31 5.29425e-14 0)
(2.51531e-30 5.37177e-14 0)
(1.21208e-30 9.09312e-14 0)
(-3.52693e-30 7.14885e-14 -0)
(-1.02755e-29 6.44417e-14 -0)
(-3.07873e-30 2.03013e-14 -0)
(4.69993e-30 -5.14119e-14 -0)
(-9.05858e-25 -8.09562e-12 0)
(-2.56164e-25 1.03691e-11 -0)
(-1.30627e-26 -2.37806e-12 0)
(-7.3693e-28 5.0268e-13 -0)
(-4.31507e-29 -2.21095e-13 0)
(1.07323e-30 -1.57365e-14 -0)
(-7.20718e-30 -8.84506e-14 0)
(-1.28778e-31 -4.08243e-14 0)
(3.51096e-30 -6.70339e-14 -0)
(6.7895e-30 -4.86153e-14 -0)
(1.31901e-29 -1.21765e-13 -0)
(9.70669e-31 -1.56224e-13 -0)
(-1.56589e-29 -1.58714e-13 0)
(-2.82463e-29 -1.25165e-13 0)
(-2.72723e-29 -1.02484e-13 0)
(-1.0211e-29 -6.13958e-14 0)
(-2.52036e-30 -3.76633e-14 0)
(-3.65855e-32 -4.32534e-14 0)
(1.25273e-30 -2.93727e-14 -0)
(-6.82575e-31 -2.90177e-14 0)
(-9.38913e-27 -1.40499e-12 0)
(-1.21129e-27 9.27176e-13 -0)
(-1.52441e-29 -1.25517e-13 0)
(-4.84546e-30 9.4531e-14 -0)
(-3.02695e-31 2.8269e-14 -0)
(-5.4909e-30 8.72986e-14 -0)
(-2.21462e-30 3.13943e-14 -0)
(2.95733e-31 -2.79546e-15 -0)
(-2.22646e-30 5.22795e-14 -0)
(-6.90921e-30 7.98895e-14 -0)
(8.03438e-32 -2.83595e-15 -0)
(-2.02006e-30 3.47537e-14 -0)
(-1.84419e-30 1.75944e-14 -0)
(-6.74828e-31 -1.8248e-14 0)
(4.38706e-30 5.6488e-14 0)
(9.79911e-31 6.89987e-14 0)
(3.377e-30 -4.80904e-14 -0)
(-2.54433e-30 5.41405e-14 -0)
(1.33817e-31 -1.92472e-15 -0)
(2.69911e-31 -9.72731e-15 -0)
(-1.14409e-24 8.92109e-12 -0)
(-3.27657e-25 -1.17351e-11 0)
(-1.81533e-26 2.76845e-12 -0)
(-7.31523e-28 -5.53828e-13 0)
(-1.28375e-28 2.69226e-13 -0)
(-2.37755e-31 1.47111e-14 -0)
(-9.48696e-30 1.15924e-13 -0)
(-4.53503e-30 4.97276e-14 -0)
(-1.5499e-30 4.1875e-14 -0)
(3.00295e-31 9.3393e-15 0)
(1.35429e-29 9.62915e-14 0)
(1.80123e-29 1.17389e-13 0)
(6.42211e-30 1.26024e-13 0)
(-3.39396e-30 1.50205e-13 -0)
(-8.71765e-30 9.09619e-14 -0)
(-1.05358e-29 8.84891e-14 -0)
(-1.32882e-29 7.92958e-14 -0)
(9.7779e-31 -9.88967e-15 -0)
(-1.90205e-30 2.7694e-14 -0)
(-1.02256e-30 9.76103e-15 -0)
(-2.21738e-24 -1.16014e-11 0)
(-7.17982e-25 1.70753e-11 -0)
(-4.03866e-26 -4.11856e-12 0)
(-1.95254e-27 8.80495e-13 -0)
(-1.21041e-28 -2.63733e-13 0)
(1.5123e-30 -1.23625e-14 -0)
(-2.82469e-30 -6.97831e-14 0)
(9.38439e-32 2.80969e-15 0)
(6.49372e-32 5.24479e-15 0)
(-5.94075e-32 3.11887e-15 -0)
(1.51893e-31 -8.07622e-15 -0)
(-5.77782e-31 -9.36218e-15 0)
(6.36221e-31 8.50399e-15 0)
(3.03967e-31 -1.30316e-14 -0)
(2.40771e-30 -3.65245e-14 -0)
(-7.29298e-30 -1.02907e-13 0)
(-3.60174e-30 -2.40113e-14 0)
(7.21131e-31 1.80591e-14 0)
(4.93542e-31 -1.61345e-14 -0)
(2.5915e-30 -3.71414e-14 -0)
(-8.19399e-25 7.11719e-12 -0)
(-2.56028e-25 -1.02476e-11 0)
(-1.48413e-26 2.41397e-12 -0)
(-7.02801e-28 -6.30066e-13 0)
(-3.73014e-29 9.57642e-14 -0)
(8.01915e-30 -7.08086e-14 -0)
(1.34782e-29 -6.02974e-14 -0)
(6.65705e-30 -1.27096e-13 -0)
(4.09285e-30 -1.11311e-13 -0)
(1.31698e-30 -5.61076e-14 -0)
(1.98098e-30 -1.11322e-13 -0)
(-3.21725e-31 -5.7965e-14 0)
(-1.17421e-30 -5.94413e-14 0)
(-6.57313e-30 -1.13601e-13 0)
(-7.94323e-30 -1.11004e-13 0)
(-7.40691e-30 -8.8498e-14 0)
(4.85932e-31 3.38897e-15 0)
(8.15793e-31 1.63794e-14 0)
(-1.88161e-31 9.22021e-15 -0)
(2.66261e-31 -6.28034e-15 -0)
(-1.50467e-26 3.56113e-13 -0)
(-2.9045e-26 -3.27237e-12 0)
(-1.83593e-27 8.30555e-13 -0)
(-4.47092e-29 -1.49407e-13 0)
(2.83872e-30 -1.62845e-14 -0)
(-4.28017e-30 5.3495e-14 -0)
(-8.72602e-31 5.2199e-15 -0)
(4.68456e-30 -3.54328e-14 -0)
(3.05911e-30 -3.64651e-14 -0)
(3.47689e-30 -9.00544e-14 -0)
(-3.18313e-31 -9.09281e-14 0)
(-5.32924e-30 -9.26493e-14 0)
(-7.59276e-30 -6.49831e-14 0)
(-4.658e-30 -2.81875e-14 0)
(3.2007e-30 2.50708e-14 0)
(-4.52217e-30 5.29172e-14 -0)
(8.59618e-31 -6.58939e-15 -0)
(1.29974e-30 -6.64363e-14 -0)
(-2.99052e-32 3.65024e-15 -0)
(3.60273e-31 -6.42587e-15 -0)
(-7.81137e-25 -5.33858e-12 0)
(-3.85951e-25 1.21844e-11 -0)
(-2.1617e-26 -2.92154e-12 0)
(-1.02529e-27 6.22392e-13 -0)
(-7.15301e-29 -1.97539e-13 0)
(-3.63087e-30 -6.36996e-14 0)
(-4.92375e-30 -2.64786e-14 0)
(9.05944e-31 1.78563e-14 0)
(6.44886e-32 8.72768e-15 0)
(-2.48688e-31 6.80561e-15 -0)
(-3.38496e-30 5.57956e-14 -0)
(5.98165e-31 -1.14161e-14 -0)
(-4.72016e-31 -8.82372e-15 0)
(3.30755e-30 9.2285e-14 0)
(-5.3901e-30 9.59023e-14 -0)
(-9.08773e-30 8.25928e-14 -0)
(-1.37631e-30 1.99523e-14 -0)
(4.31717e-32 -1.12125e-15 -0)
(-4.79483e-32 8.30021e-16 -0)
(4.89427e-31 -1.04571e-14 -0)
(-1.70763e-25 2.97134e-12 -0)
(-6.09813e-26 -4.95505e-12 0)
(-3.80496e-27 1.25132e-12 -0)
(-1.27933e-28 -2.10825e-13 0)
(-1.96591e-29 1.64723e-13 -0)
(4.19141e-30 9.57161e-14 0)
(1.08361e-30 1.4082e-13 0)
(-7.3239e-31 7.99869e-14 -0)
(2.87793e-30 1.3719e-13 0)
(-3.85244e-30 1.4928e-13 -0)
(-1.50685e-29 1.29267e-13 -0)
(-2.77477e-29 1.18443e-13 -0)
(-1.57124e-29 7.24765e-14 -0)
(-3.27306e-30 2.24359e-14 -0)
(6.35356e-30 -3.73515e-14 -0)
(2.32141e-30 -5.34634e-14 -0)
(-2.60941e-30 -2.79138e-14 0)
(-2.61942e-30 7.41351e-14 -0)
(-2.68333e-30 2.53698e-14 -0)
(-2.6485e-31 1.47302e-14 -0)
(-5.70663e-25 6.02126e-12 -0)
(-1.71466e-25 -8.60545e-12 0)
(-8.38646e-27 1.80182e-12 -0)
(-4.97734e-28 -4.54968e-13 0)
(-8.17476e-30 7.80336e-14 -0)
(-1.1786e-30 -2.76587e-14 0)
(3.96761e-30 -3.99868e-14 -0)
(4.22106e-31 -4.23712e-15 -0)
(3.31066e-30 -5.82333e-14 -0)
(3.00457e-30 -5.05917e-14 -0)
(1.34402e-30 -1.44463e-14 -0)
(2.75661e-30 -1.48224e-14 -0)
(6.48602e-30 -3.0047e-14 -0)
(5.435e-30 -3.47158e-14 -0)
(1.72503e-30 -1.23432e-14 -0)
(6.95945e-31 -2.10094e-14 -0)
(-1.18057e-31 -1.67841e-15 0)
(-2.31606e-31 1.41731e-14 -0)
(1.92687e-30 -2.69899e-14 -0)
(6.29628e-31 -3.59936e-14 -0)
)
;

boundaryField
{
    movingWall
    {
        type            calculated;
        value           nonuniform List<vector> 
20
(
(0 1.35245e-11 -0)
(0 -1.07884e-11 -0)
(0 1.61668e-12 -0)
(0 -7.21421e-13 -0)
(0 -2.05724e-13 -0)
(0 -3.55825e-13 -0)
(0 -3.85457e-13 -0)
(0 -2.70691e-13 -0)
(0 -3.14886e-13 -0)
(0 -2.62835e-13 -0)
(0 -2.53795e-13 -0)
(0 -2.54171e-13 -0)
(0 -1.80578e-13 -0)
(0 -9.64285e-14 -0)
(0 -1.23432e-14 -0)
(0 -2.10094e-14 -0)
(0 8.71394e-14 -0)
(0 1.41731e-14 -0)
(0 -4.42938e-14 -0)
(0 -9.77063e-14 -0)
)
;
    }
    fixedWalls
    {
        type            calculated;
        value           nonuniform List<vector> 
60
(
(0 -6.73305e-11 -0)
(0 -4.35315e-12 -0)
(0 5.80491e-11 -0)
(0 -4.24211e-11 -0)
(0 -1.33129e-12 -0)
(0 4.33603e-11 -0)
(0 -5.74521e-11 -0)
(0 2.50342e-11 -0)
(0 2.61483e-11 -0)
(0 -6.2925e-11 -0)
(0 7.10043e-11 -0)
(0 -4.41345e-11 -0)
(0 -3.54044e-12 -0)
(0 5.01867e-11 -0)
(0 -7.31453e-11 -0)
(0 4.41545e-11 -0)
(0 1.39195e-11 -0)
(0 -5.24019e-11 -0)
(0 2.14431e-11 -0)
(0 3.64462e-11 -0)
(0 4.80669e-15 -0)
(0 -4.64306e-15 -0)
(0 -3.6878e-14 -0)
(0 -1.09002e-14 -0)
(0 -2.73056e-14 -0)
(0 7.85394e-15 -0)
(0 -9.47254e-15 -0)
(0 -2.27844e-14 -0)
(0 2.77591e-15 -0)
(0 -1.09929e-14 -0)
(0 -6.36719e-14 -0)
(0 -1.7696e-14 -0)
(0 -1.10991e-14 -0)
(0 -1.47986e-14 -0)
(0 -5.50146e-14 -0)
(0 -1.69584e-14 -0)
(0 -2.24264e-14 -0)
(0 -1.87213e-14 -0)
(0 1.9913e-14 -0)
(0 -3.41022e-14 -0)
(0 -2.02805e-11 -0)
(0 1.85085e-11 -0)
(0 -3.36452e-12 -0)
(0 1.01066e-12 -0)
(0 6.90434e-14 -0)
(0 2.06756e-13 -0)
(0 1.77847e-13 -0)
(0 1.52846e-13 -0)
(0 1.05035e-13 -0)
(0 9.05148e-14 -0)
(0 1.19124e-13 -0)
(0 7.73377e-14 -0)
(0 4.65954e-14 -0)
(0 5.31215e-14 -0)
(0 -7.66051e-14 -0)
(0 -8.28283e-14 -0)
(0 7.56836e-14 -0)
(0 3.25071e-14 -0)
(0 5.54474e-15 -0)
(0 5.34889e-14 -0)
)
;
    }
    frontAndBack
    {
        type            empty;
    }
}


// ************************************************************************* //
