/*--------------------------------*- C++ -*----------------------------------*\
| =========                 |                                                 |
| \\      /  F ield         | OpenFOAM: The Open Source CFD Toolbox           |
|  \\    /   O peration     | Version:  2506                                  |
|   \\  /    A nd           | Website:  www.openfoam.com                      |
|    \\/     M anipulation  |                                                 |
\*---------------------------------------------------------------------------*/
FoamFile
{
    version     2.0;
    format      ascii;
    arch        "LSB;label=32;scalar=64";
    class       volScalarField;
    location    "9.5";
    object      Lambda2Field;
}
// * * * * * * * * * * * * * * * * * * * * * * * * * * * * * * * * * * * * * //

dimensions      [0 0 -2 0 0 0 0];

internalField   nonuniform List<scalar> 
400
(
2.4463e-23
1.23311e-23
3.34048e-25
2.33139e-26
5.35081e-27
1.79396e-27
2.21242e-28
0
0
0
0
-1.64555e-28
5.68889e-28
4.42891e-28
1.11256e-27
7.51416e-28
2.48735e-28
0
3.00581e-28
1.67335e-33
6.19011e-24
1.23201e-23
9.25615e-25
3.67687e-27
2.70308e-27
4.75906e-28
1.08389e-27
3.77952e-28
-6.73864e-28
-1.15625e-27
-7.387e-28
6.59217e-30
5.58991e-28
3.39886e-28
-6.7668e-28
-4.25178e-28
-2.96827e-28
0
5.89122e-28
1.08601e-28
7.42026e-23
2.69976e-23
2.8347e-25
1.17355e-25
-1.59125e-27
4.47725e-27
2.9337e-28
1.88749e-27
6.89467e-28
-9.77681e-29
0
3.62668e-29
4.16826e-28
1.7176e-27
1.05137e-27
0
-7.99798e-28
-4.52985e-28
2.36742e-28
0
4.3233e-23
1.80698e-23
8.17532e-25
2.93874e-27
5.1322e-27
0
1.23888e-27
0
-3.45099e-27
-3.44636e-27
0
1.78875e-28
1.729e-28
0
0
6.30108e-28
3.69969e-29
0
2.79709e-28
6.70849e-28
5.71162e-24
9.54795e-24
5.78619e-25
1.17549e-26
4.37028e-27
8.65594e-33
0
0
0
-1.01892e-28
1.71326e-28
0
3.51111e-30
0
-5.13534e-29
0
-7.26943e-28
-5.98086e-29
3.17032e-28
1.39052e-28
2.31059e-23
1.17471e-23
2.59735e-25
4.75609e-26
2.93874e-27
2.37568e-28
3.59176e-28
0
5.02391e-28
1.29871e-31
1.143e-27
8.48968e-28
0
7.64399e-29
3.71476e-28
0
1.62015e-28
-2.35312e-28
9.11179e-29
0
2.64844e-23
1.42631e-23
-4.31772e-25
1.1874e-25
-2.10105e-26
3.90728e-27
-2.51963e-29
0
0
0
-8.11975e-28
0
-2.96851e-27
-2.83017e-27
-1.96955e-28
8.85991e-29
0
6.39888e-30
0
0
8.53196e-24
3.27913e-24
8.88968e-26
3.22328e-26
0
4.2471e-28
1.9841e-27
-2.81036e-28
5.81459e-28
4.12036e-28
2.39087e-28
1.92838e-27
8.49912e-28
1.07562e-28
9.47195e-29
5.14469e-28
-6.44727e-28
0
0
0
0
2.44736e-24
0
3.15663e-26
-6.41519e-27
-5.47019e-28
7.48989e-28
7.43089e-29
1.29559e-28
-1.22198e-28
-1.68248e-27
-1.73946e-27
1.13396e-27
-1.36096e-27
0
2.04017e-28
-3.10393e-28
0
2.83497e-28
1.8229e-29
8.33094e-25
5.96088e-24
-5.70776e-25
2.14997e-26
0
9.70875e-28
2.46281e-27
0
4.25352e-28
0
8.4346e-28
5.40198e-28
3.26598e-28
3.06557e-31
0
3.66635e-28
-1.0143e-27
6.28746e-28
4.45872e-28
5.72633e-28
1.19322e-25
2.67229e-24
-4.25491e-25
-6.4835e-26
8.59324e-27
-8.05646e-27
3.0054e-28
-1.94154e-27
0
0
2.66715e-28
0
-2.27233e-28
3.16146e-28
2.66942e-29
-7.26692e-28
-9.16495e-28
0
1.84416e-28
0
5.75958e-24
3.07211e-24
0
4.08085e-26
-8.76556e-27
3.08144e-28
1.54465e-28
1.13453e-27
1.25546e-27
4.05994e-28
-1.1927e-27
-2.0705e-27
-2.40794e-27
-1.80734e-27
6.43554e-28
1.61975e-27
8.97006e-28
7.20439e-28
5.98174e-30
0
0
0
2.64486e-26
1.06803e-26
0
-4.59465e-28
0
8.90229e-29
1.04657e-28
1.15932e-28
6.19857e-28
4.75794e-29
2.57786e-28
0
1.18659e-27
0
3.31749e-28
1.03208e-28
0
1.64562e-28
1.11491e-23
5.44268e-24
0
4.47168e-26
-1.59141e-26
2.14124e-27
-6.90287e-28
2.42998e-28
6.6869e-28
4.81542e-28
1.31591e-27
-8.28756e-28
-1.58592e-27
-1.95311e-27
-5.78266e-28
0
6.4919e-28
7.55623e-29
0
4.87773e-28
5.04163e-23
1.9254e-23
-5.03803e-25
5.10924e-26
-1.06235e-26
2.26856e-27
-6.43452e-28
0
0
3.09429e-29
2.51032e-28
0
0
3.81462e-28
0
-1.34467e-27
1.05084e-27
0
2.97357e-28
-2.33143e-28
2.20438e-23
1.59792e-23
4.3195e-25
0
4.06506e-27
-1.65122e-28
1.01178e-28
-1.29016e-27
0
-9.90353e-29
-3.09689e-28
-2.03378e-28
-2.65917e-28
-2.06052e-28
9.46647e-29
0
7.86562e-28
0
0
0
1.51354e-23
1.24784e-23
7.75563e-25
2.2793e-26
4.99469e-27
3.8768e-29
1.67674e-27
-1.19399e-28
-2.34206e-28
-7.08923e-28
-7.63298e-28
-8.88058e-28
0
-2.44897e-29
1.63232e-28
0
4.50995e-28
-5.848e-28
0
0
7.02304e-23
2.3723e-23
2.44912e-25
5.72221e-26
-4.58939e-27
1.43241e-27
3.22753e-28
0
0
0
0
7.34684e-28
1.11313e-27
7.60424e-29
-2.99496e-28
0
6.95349e-28
0
9.52108e-29
1.45054e-29
1.15628e-23
1.12249e-23
4.40445e-25
3.03676e-26
-3.92476e-27
1.37945e-27
9.56894e-29
3.34078e-28
0
-1.85888e-27
-1.52549e-27
-9.08202e-28
1.44425e-27
4.96727e-28
0
-6.55299e-28
1.72176e-28
-1.07522e-27
4.70353e-29
3.35422e-28
1.20729e-23
6.13555e-24
2.97125e-25
7.34684e-28
3.35202e-27
0
7.71046e-28
1.18325e-28
0
1.96156e-28
3.43116e-28
1.06761e-27
1.79217e-27
5.28395e-28
7.34684e-28
5.85927e-29
2.68369e-28
2.67023e-29
3.16981e-28
0
)
;

boundaryField
{
    movingWall
    {
        type            calculated;
        value           nonuniform List<scalar> 
20
(
0
0
6.45766e-25
0
3.34183e-26
0
5.68477e-27
0
-5.15981e-28
9.64146e-28
3.37297e-27
4.00744e-27
2.41614e-27
5.87176e-29
7.34684e-28
1.75566e-28
9.40676e-28
4.2726e-29
7.39798e-28
0
)
;
    }
    fixedWalls
    {
        type            calculated;
        value           nonuniform List<scalar> 
60
(
1.63455e-22
1.8838e-22
3.96296e-22
3.01005e-22
1.65542e-22
1.716e-22
1.43433e-22
4.41469e-23
2.51627e-24
8.14925e-24
7.19539e-24
3.30324e-23
0
5.83411e-23
2.54533e-22
2.34359e-22
2.09457e-22
3.58543e-22
1.77164e-22
9.19646e-23
1.67335e-33
1.08601e-28
0
1.11421e-27
1.26005e-28
0
0
0
6.74099e-28
1.04201e-27
0
2.95572e-28
1.64562e-28
1.15346e-27
-7.17598e-28
0
0
1.45054e-29
1.9494e-28
0
0
0
8.67251e-25
0
5.26006e-26
-3.46332e-27
6.9723e-28
-9.73383e-28
-1.42755e-27
0
1.87889e-27
1.01964e-27
6.37587e-28
1.55965e-28
1.14655e-27
1.18484e-27
1.42558e-27
1.25677e-27
0
0
)
;
    }
    frontAndBack
    {
        type            empty;
    }
}


// ************************************************************************* //
