/*--------------------------------*- C++ -*----------------------------------*\
| =========                 |                                                 |
| \\      /  F ield         | OpenFOAM: The Open Source CFD Toolbox           |
|  \\    /   O peration     | Version:  2506                                  |
|   \\  /    A nd           | Website:  www.openfoam.com                      |
|    \\/     M anipulation  |                                                 |
\*---------------------------------------------------------------------------*/
FoamFile
{
    version     2.0;
    format      ascii;
    arch        "LSB;label=32;scalar=64";
    class       volScalarField;
    location    "9.5";
    object      magSqrP;
}
// * * * * * * * * * * * * * * * * * * * * * * * * * * * * * * * * * * * * * //

dimensions      [0 4 -4 0 0 0 0];

internalField   nonuniform List<scalar> 
400
(
3.53157e-31
2.95187e-29
2.06434e-29
2.93741e-29
3.30692e-29
4.05587e-29
4.69097e-29
5.33001e-29
5.77833e-29
5.92339e-29
5.87987e-29
6.29351e-29
7.03149e-29
7.74722e-29
7.74135e-29
7.09449e-29
7.0529e-29
7.42505e-29
7.32537e-29
7.37254e-29
1.73807e-29
7.22786e-32
2.4021e-29
2.63949e-29
3.73135e-29
4.18383e-29
4.65852e-29
5.22942e-29
5.61602e-29
6.15189e-29
5.91573e-29
6.15316e-29
6.89777e-29
7.94794e-29
7.59185e-29
7.37662e-29
7.34684e-29
7.5099e-29
7.41021e-29
7.41986e-29
1.79333e-29
3.33715e-29
2.75699e-29
3.20727e-29
3.62992e-29
4.29883e-29
4.96167e-29
5.58096e-29
6.09577e-29
5.94404e-29
5.67521e-29
6.18201e-29
7.0054e-29
7.58622e-29
7.50437e-29
7.54486e-29
7.39017e-29
7.76673e-29
7.64843e-29
7.477e-29
1.9134e-29
4.19881e-29
3.28707e-29
3.98111e-29
4.05198e-29
4.64089e-29
5.04894e-29
5.42711e-29
5.87403e-29
5.90502e-29
6.17562e-29
6.52706e-29
6.98088e-29
7.50312e-29
7.38442e-29
7.28964e-29
7.52549e-29
7.75037e-29
7.55812e-29
7.83922e-29
3.21538e-29
1.57874e-29
3.94867e-29
4.42234e-29
4.57083e-29
5.06806e-29
5.463e-29
5.7343e-29
5.86909e-29
6.18192e-29
6.30621e-29
6.63337e-29
7.05076e-29
7.31342e-29
7.47926e-29
7.46518e-29
7.52076e-29
7.63189e-29
7.8129e-29
8.00791e-29
2.87932e-29
5.72734e-29
4.67454e-29
5.10412e-29
5.17415e-29
5.44644e-29
5.8476e-29
6.07946e-29
6.34335e-29
6.34334e-29
6.27504e-29
6.7408e-29
7.25731e-29
7.51913e-29
7.60916e-29
7.52711e-29
7.58896e-29
7.6543e-29
7.74029e-29
7.88659e-29
4.12117e-29
6.51985e-29
4.89382e-29
5.60515e-29
5.55323e-29
5.78031e-29
5.99998e-29
6.13499e-29
6.4224e-29
6.35251e-29
6.73587e-29
7.19033e-29
7.44994e-29
7.6866e-29
7.79862e-29
7.79158e-29
7.9295e-29
7.85866e-29
7.82577e-29
7.91282e-29
5.98481e-29
1.35628e-29
5.6566e-29
5.61477e-29
6.15138e-29
6.09477e-29
6.40351e-29
6.62312e-29
6.58781e-29
6.63297e-29
7.0801e-29
7.63268e-29
7.98975e-29
7.89995e-29
7.87051e-29
7.82212e-29
8.21902e-29
8.10157e-29
7.86394e-29
8.02681e-29
4.94415e-29
1.19333e-28
5.88767e-29
6.70793e-29
6.29037e-29
6.62708e-29
7.15504e-29
7.10094e-29
6.922e-29
7.10424e-29
7.46201e-29
7.6224e-29
7.8539e-29
8.31521e-29
8.34942e-29
8.42981e-29
8.74591e-29
8.36657e-29
7.90398e-29
8.30738e-29
6.71579e-29
4.14255e-29
7.00228e-29
6.59111e-29
6.80722e-29
7.05317e-29
7.5741e-29
7.35036e-29
7.1743e-29
7.66267e-29
8.28504e-29
7.95716e-29
7.83204e-29
8.43389e-29
8.64539e-29
8.7343e-29
8.81836e-29
8.45882e-29
8.14731e-29
8.50341e-29
7.20619e-29
5.18641e-29
7.23968e-29
6.97393e-29
7.28895e-29
7.45432e-29
7.6975e-29
7.67347e-29
7.77315e-29
7.73347e-29
8.07962e-29
8.08923e-29
8.14934e-29
8.7885e-29
8.89401e-29
8.89655e-29
8.86256e-29
8.86948e-29
8.45247e-29
9.06979e-29
6.7959e-29
1.51388e-28
7.53422e-29
8.18415e-29
7.98128e-29
7.80566e-29
7.79955e-29
7.80303e-29
8.20237e-29
7.97968e-29
8.51073e-29
8.50202e-29
8.61093e-29
8.96518e-29
8.87288e-29
9.13219e-29
9.01933e-29
9.02483e-29
8.64952e-29
9.23652e-29
8.96194e-29
2.11743e-29
8.40344e-29
8.02991e-29
8.33644e-29
8.29379e-29
8.11489e-29
8.06197e-29
8.33539e-29
8.47674e-29
9.05122e-29
9.24674e-29
9.13819e-29
9.08668e-29
8.67411e-29
9.2943e-29
9.26238e-29
9.06892e-29
9.18091e-29
8.95559e-29
7.86375e-29
1.52139e-28
8.40032e-29
8.84397e-29
8.54518e-29
8.721e-29
8.4109e-29
8.25773e-29
8.64505e-29
8.86471e-29
8.92729e-29
9.32068e-29
9.50013e-29
9.25741e-29
9.17596e-29
9.42262e-29
9.30866e-29
9.10211e-29
9.264e-29
9.49206e-29
9.28388e-29
7.63265e-29
8.90304e-29
8.85684e-29
9.13191e-29
9.10736e-29
8.60275e-29
8.66807e-29
8.84634e-29
9.20549e-29
9.3592e-29
9.49257e-29
9.53651e-29
9.38235e-29
9.40666e-29
9.41947e-29
9.4322e-29
9.17704e-29
9.26611e-29
9.73648e-29
1.08025e-28
5.94409e-29
9.30961e-29
8.94644e-29
9.1978e-29
9.23285e-29
8.67711e-29
8.66226e-29
9.02934e-29
9.25028e-29
9.38204e-29
9.4523e-29
9.50066e-29
9.43045e-29
9.72143e-29
9.51174e-29
9.23933e-29
9.43795e-29
9.39049e-29
9.92201e-29
8.20795e-29
1.49952e-28
9.74518e-29
1.02923e-28
9.27301e-29
9.12655e-29
9.24787e-29
9.04811e-29
9.16995e-29
9.3226e-29
9.44239e-29
9.5769e-29
9.86299e-29
9.5814e-29
9.40627e-29
9.36841e-29
9.192e-29
9.42616e-29
9.4793e-29
1.01055e-28
1.02525e-28
9.25853e-29
1.01078e-28
9.93352e-29
9.67072e-29
9.35309e-29
9.41391e-29
9.13908e-29
9.19555e-29
9.43408e-29
9.65552e-29
9.61329e-29
9.57702e-29
9.42012e-29
9.5391e-29
9.51403e-29
9.3905e-29
9.5182e-29
9.57487e-29
1.03803e-28
1.21476e-28
5.92946e-29
1.02244e-28
9.82809e-29
1.04808e-28
9.76951e-29
9.11076e-29
8.88665e-29
9.08613e-29
9.55195e-29
9.93509e-29
9.75911e-29
9.4949e-29
9.24023e-29
9.5997e-29
9.68813e-29
9.59157e-29
9.62136e-29
9.77449e-29
1.03685e-28
8.22766e-29
1.34176e-28
1.0461e-28
1.07146e-28
1.01901e-28
9.93519e-29
9.31508e-29
8.91489e-29
9.06254e-29
9.71743e-29
1.0015e-28
9.85033e-29
9.7779e-29
9.45465e-29
9.88454e-29
1.00653e-28
9.54121e-29
9.50619e-29
9.89151e-29
1.04048e-28
)
;

boundaryField
{
    movingWall
    {
        type            calculated;
        value           nonuniform List<scalar> 
20
(
8.22766e-29
1.34176e-28
1.0461e-28
1.07146e-28
1.01901e-28
9.93519e-29
9.31508e-29
8.91489e-29
9.06254e-29
9.71743e-29
1.0015e-28
9.85033e-29
9.7779e-29
9.45465e-29
9.88454e-29
1.00653e-28
9.54121e-29
9.50619e-29
9.89151e-29
1.04048e-28
)
;
    }
    fixedWalls
    {
        type            calculated;
        value           nonuniform List<scalar> 
60
(
3.53157e-31
1.73807e-29
1.79333e-29
1.9134e-29
3.21538e-29
2.87932e-29
4.12117e-29
5.98481e-29
4.94415e-29
6.71579e-29
7.20619e-29
6.7959e-29
8.96194e-29
7.86375e-29
9.28388e-29
1.08025e-28
8.20795e-29
1.02525e-28
1.21476e-28
8.22766e-29
7.37254e-29
7.41986e-29
7.477e-29
7.83922e-29
8.00791e-29
7.88659e-29
7.91282e-29
8.02681e-29
8.30738e-29
8.50341e-29
9.06979e-29
9.23652e-29
8.95559e-29
9.49206e-29
9.73648e-29
9.92201e-29
1.01055e-28
1.03803e-28
1.03685e-28
1.04048e-28
3.53157e-31
2.95187e-29
2.06434e-29
2.93741e-29
3.30692e-29
4.05587e-29
4.69097e-29
5.33001e-29
5.77833e-29
5.92339e-29
5.87987e-29
6.29351e-29
7.03149e-29
7.74722e-29
7.74135e-29
7.09449e-29
7.0529e-29
7.42505e-29
7.32537e-29
7.37254e-29
)
;
    }
    frontAndBack
    {
        type            empty;
    }
}


// ************************************************************************* //
