/*--------------------------------*- C++ -*----------------------------------*\
| =========                 |                                                 |
| \\      /  F ield         | OpenFOAM: The Open Source CFD Toolbox           |
|  \\    /   O peration     | Version:  2506                                  |
|   \\  /    A nd           | Website:  www.openfoam.com                      |
|    \\/     M anipulation  |                                                 |
\*---------------------------------------------------------------------------*/
FoamFile
{
    version     2.0;
    format      ascii;
    arch        "LSB;label=32;scalar=64";
    class       volVectorField;
    location    "9.5";
    object      momentum1:momentum;
}
// * * * * * * * * * * * * * * * * * * * * * * * * * * * * * * * * * * * * * //

dimensions      [1 1 -1 0 0 0 0];

internalField   nonuniform List<vector> 
400
(
(-2.5e-07 4.31488e-20 0)
(-2.5e-07 -9.32307e-21 0)
(-2.5e-07 2.20665e-21 0)
(-2.5e-07 -4.67684e-22 0)
(-2.5e-07 1.24087e-22 0)
(-2.5e-07 2.58411e-23 0)
(-2.5e-07 5.12866e-23 0)
(-2.5e-07 2.5314e-23 0)
(-2.5e-07 2.23804e-24 0)
(-2.5e-07 -1.5229e-23 0)
(-2.5e-07 -2.00425e-24 0)
(-2.5e-07 2.00285e-23 0)
(-2.5e-07 2.66962e-23 0)
(-2.5e-07 1.45624e-23 0)
(-2.5e-07 4.91483e-24 0)
(-2.5e-07 -1.59695e-23 0)
(-2.5e-07 -1.00589e-23 0)
(-2.5e-07 1.6866e-23 0)
(-2.5e-07 1.96957e-23 0)
(-2.5e-07 3.00418e-24 0)
(-2.5e-07 3.04259e-21 0)
(-2.5e-07 -6.11898e-22 0)
(-2.5e-07 1.41864e-22 0)
(-2.5e-07 -2.20448e-26 0)
(-2.5e-07 2.88203e-23 0)
(-2.5e-07 1.08457e-23 0)
(-2.5e-07 -1.50743e-23 0)
(-2.5e-07 -3.35162e-23 0)
(-2.5e-07 -2.45956e-23 0)
(-2.5e-07 9.78902e-24 0)
(-2.5e-07 3.35403e-23 0)
(-2.5e-07 3.34614e-23 0)
(-2.5e-07 3.29323e-23 0)
(-2.5e-07 3.80501e-23 0)
(-2.5e-07 2.24118e-23 0)
(-2.5e-07 -2.46798e-23 0)
(-2.5e-07 -2.93694e-23 0)
(-2.5e-07 -1.07606e-23 0)
(-2.5e-07 -3.64604e-24 0)
(-2.5e-07 -2.90191e-24 0)
(-2.5e-07 -3.99398e-20 0)
(-2.5e-07 8.59639e-21 0)
(-2.5e-07 -2.1355e-21 0)
(-2.5e-07 4.02555e-22 0)
(-2.5e-07 -9.26644e-23 0)
(-2.5e-07 2.42403e-23 0)
(-2.5e-07 -1.00993e-23 0)
(-2.5e-07 4.65887e-24 0)
(-2.5e-07 1.52969e-25 0)
(-2.5e-07 1.27802e-23 0)
(-2.5e-07 -1.5984e-23 0)
(-2.5e-07 -3.10895e-23 0)
(-2.5e-07 -3.74565e-23 0)
(-2.5e-07 -1.18667e-23 0)
(-2.5e-07 9.55066e-24 0)
(-2.5e-07 1.32105e-23 0)
(-2.5e-07 -4.46954e-24 0)
(-2.5e-07 -3.39666e-23 0)
(-2.5e-07 -4.09839e-23 0)
(-2.5e-07 -2.30488e-23 0)
(-2.5e-07 2.92576e-20 0)
(-2.5e-07 -6.52082e-21 0)
(-2.5e-07 1.4065e-21 0)
(-2.5e-07 -4.34113e-22 0)
(-2.5e-07 5.86026e-23 0)
(-2.5e-07 7.9033e-24 0)
(-2.5e-07 6.11768e-23 0)
(-2.5e-07 6.50367e-23 0)
(-2.5e-07 3.67138e-23 0)
(-2.5e-07 -1.21753e-23 0)
(-2.5e-07 -4.04128e-23 0)
(-2.5e-07 -3.59869e-23 0)
(-2.5e-07 -3.21636e-23 0)
(-2.5e-07 -2.80133e-23 0)
(-2.5e-07 -3.3913e-23 0)
(-2.5e-07 -1.13222e-23 0)
(-2.5e-07 1.11201e-24 0)
(-2.5e-07 -7.90982e-24 0)
(-2.5e-07 -3.03669e-23 0)
(-2.5e-07 -2.37533e-23 0)
(-2.5e-07 1.12005e-21 0)
(-2.5e-07 -3.01899e-22 0)
(-2.5e-07 1.10515e-23 0)
(-2.5e-07 -5.96636e-23 0)
(-2.5e-07 -4.65772e-23 0)
(-2.5e-07 -3.0994e-23 0)
(-2.5e-07 -1.3475e-23 0)
(-2.5e-07 -7.73338e-24 0)
(-2.5e-07 -1.34083e-24 0)
(-2.5e-07 8.75252e-24 0)
(-2.5e-07 2.43794e-23 0)
(-2.5e-07 8.51496e-25 0)
(-2.5e-07 -1.58881e-23 0)
(-2.5e-07 -1.14124e-23 0)
(-2.5e-07 -2.0199e-23 0)
(-2.5e-07 -2.63469e-23 0)
(-2.5e-07 -1.13358e-23 0)
(-2.5e-07 7.26194e-24 0)
(-2.5e-07 8.27317e-25 0)
(-2.5e-07 -1.2536e-25 0)
(-2.5e-07 -2.8591e-20 0)
(-2.5e-07 6.22231e-21 0)
(-2.5e-07 -1.47257e-21 0)
(-2.5e-07 2.95308e-22 0)
(-2.5e-07 -1.00682e-22 0)
(-2.5e-07 7.67071e-24 0)
(-2.5e-07 1.30537e-24 0)
(-2.5e-07 1.36513e-23 0)
(-2.5e-07 -2.26857e-24 0)
(-2.5e-07 -6.93726e-24 0)
(-2.5e-07 -3.39577e-23 0)
(-2.5e-07 -4.1239e-23 0)
(-2.5e-07 -2.74791e-23 0)
(-2.5e-07 -1.41085e-23 0)
(-2.5e-07 -7.6253e-24 0)
(-2.5e-07 -1.6304e-24 0)
(-2.5e-07 -2.27281e-24 0)
(-2.5e-07 1.33129e-23 0)
(-2.5e-07 1.94532e-23 0)
(-2.5e-07 4.90871e-24 0)
(-2.5e-07 3.72967e-20 0)
(-2.5e-07 -8.06562e-21 0)
(-2.5e-07 1.93045e-21 0)
(-2.5e-07 -3.93589e-22 0)
(-2.5e-07 1.281e-22 0)
(-2.5e-07 7.53907e-24 0)
(-2.5e-07 3.80042e-23 0)
(-2.5e-07 4.25824e-23 0)
(-2.5e-07 5.46944e-23 0)
(-2.5e-07 7.85158e-24 0)
(-2.5e-07 -6.01414e-23 0)
(-2.5e-07 -7.49447e-23 0)
(-2.5e-07 -3.77747e-23 0)
(-2.5e-07 1.04451e-23 0)
(-2.5e-07 2.79853e-23 0)
(-2.5e-07 3.13325e-23 0)
(-2.5e-07 1.98134e-23 0)
(-2.5e-07 6.0334e-24 0)
(-2.5e-07 1.09539e-24 0)
(-2.5e-07 -5.92034e-24 0)
(-2.5e-07 -1.66628e-20 0)
(-2.5e-07 3.57548e-21 0)
(-2.5e-07 -8.23971e-22 0)
(-2.5e-07 1.98717e-22 0)
(-2.5e-07 -3.62764e-23 0)
(-2.5e-07 -3.50625e-24 0)
(-2.5e-07 -3.70887e-23 0)
(-2.5e-07 -9.19777e-24 0)
(-2.5e-07 2.08133e-23 0)
(-2.5e-07 4.93477e-24 0)
(-2.5e-07 -1.08136e-23 0)
(-2.5e-07 -1.71171e-23 0)
(-2.5e-07 -3.1126e-23 0)
(-2.5e-07 -3.54361e-23 0)
(-2.5e-07 -2.12052e-23 0)
(-2.5e-07 -1.27105e-23 0)
(-2.5e-07 7.43945e-24 0)
(-2.5e-07 1.96369e-23 0)
(-2.5e-07 1.30885e-23 0)
(-2.5e-07 -1.42402e-23 0)
(-2.5e-07 -1.61563e-20 0)
(-2.5e-07 3.48375e-21 0)
(-2.5e-07 -8.33161e-22 0)
(-2.5e-07 1.84882e-22 0)
(-2.5e-07 -6.59555e-23 0)
(-2.5e-07 -4.39822e-23 0)
(-2.5e-07 -7.6765e-23 0)
(-2.5e-07 -3.54606e-23 0)
(-2.5e-07 -1.95286e-23 0)
(-2.5e-07 -4.28951e-23 0)
(-2.5e-07 -3.24116e-23 0)
(-2.5e-07 3.48386e-23 0)
(-2.5e-07 5.05126e-23 0)
(-2.5e-07 7.17171e-25 0)
(-2.5e-07 -3.26109e-23 0)
(-2.5e-07 -2.53723e-23 0)
(-2.5e-07 9.89609e-25 0)
(-2.5e-07 2.28234e-23 0)
(-2.5e-07 1.48762e-23 0)
(-2.5e-07 -1.52057e-23 0)
(-2.5e-07 3.9362e-20 0)
(-2.5e-07 -8.56562e-21 0)
(-2.5e-07 2.02708e-21 0)
(-2.5e-07 -4.0098e-22 0)
(-2.5e-07 1.11841e-22 0)
(-2.5e-07 -1.91111e-23 0)
(-2.5e-07 2.22939e-23 0)
(-2.5e-07 1.23529e-23 0)
(-2.5e-07 -7.64272e-24 0)
(-2.5e-07 -5.51753e-24 0)
(-2.5e-07 -6.40999e-24 0)
(-2.5e-07 2.03159e-24 0)
(-2.5e-07 1.85022e-23 0)
(-2.5e-07 1.70932e-23 0)
(-2.5e-07 2.241e-23 0)
(-2.5e-07 2.29981e-23 0)
(-2.5e-07 5.5019e-24 0)
(-2.5e-07 -2.50882e-23 0)
(-2.5e-07 -2.90049e-23 0)
(-2.5e-07 -2.38112e-23 0)
(-2.5e-07 -4.43607e-20 0)
(-2.5e-07 9.5587e-21 0)
(-2.5e-07 -2.23503e-21 0)
(-2.5e-07 4.48063e-22 0)
(-2.5e-07 -1.30169e-22 0)
(-2.5e-07 5.17698e-23 0)
(-2.5e-07 5.56158e-23 0)
(-2.5e-07 2.41044e-23 0)
(-2.5e-07 -3.49089e-23 0)
(-2.5e-07 3.7137e-24 0)
(-2.5e-07 3.27692e-23 0)
(-2.5e-07 1.28609e-23 0)
(-2.5e-07 8.53714e-24 0)
(-2.5e-07 2.10136e-24 0)
(-2.5e-07 1.17062e-23 0)
(-2.5e-07 3.33241e-24 0)
(-2.5e-07 -1.23339e-23 0)
(-2.5e-07 -3.98636e-23 0)
(-2.5e-07 -3.7913e-23 0)
(-2.5e-07 -2.28543e-23 0)
(-2.5e-07 2.79737e-20 0)
(-2.5e-07 -6.17613e-21 0)
(-2.5e-07 1.37325e-21 0)
(-2.5e-07 -3.66501e-22 0)
(-2.5e-07 4.87919e-23 0)
(-2.5e-07 -1.705e-23 0)
(-2.5e-07 2.03706e-23 0)
(-2.5e-07 7.88611e-25 0)
(-2.5e-07 -1.3094e-23 0)
(-2.5e-07 -3.49145e-23 0)
(-2.5e-07 -2.70811e-23 0)
(-2.5e-07 -1.55333e-24 0)
(-2.5e-07 2.46653e-23 0)
(-2.5e-07 5.64179e-23 0)
(-2.5e-07 6.6528e-23 0)
(-2.5e-07 4.15786e-23 0)
(-2.5e-07 1.67296e-23 0)
(-2.5e-07 2.1146e-25 0)
(-2.5e-07 -1.06623e-23 0)
(-2.5e-07 5.88068e-24 0)
(-2.5e-07 1.67068e-21 0)
(-2.5e-07 -3.26606e-22 0)
(-2.5e-07 3.03628e-23 0)
(-2.5e-07 -1.28145e-23 0)
(-2.5e-07 -2.67691e-24 0)
(-2.5e-07 -1.57245e-23 0)
(-2.5e-07 -1.76355e-23 0)
(-2.5e-07 -2.64476e-23 0)
(-2.5e-07 -1.06469e-23 0)
(-2.5e-07 -2.16212e-23 0)
(-2.5e-07 -7.08262e-24 0)
(-2.5e-07 -1.45313e-23 0)
(-2.5e-07 -2.62042e-23 0)
(-2.5e-07 9.24522e-24 0)
(-2.5e-07 1.94159e-23 0)
(-2.5e-07 3.55047e-24 0)
(-2.5e-07 -1.75555e-23 0)
(-2.5e-07 -1.17487e-23 0)
(-2.5e-07 -1.73814e-23 0)
(-2.5e-07 -6.93694e-24 0)
(-2.5e-07 -3.20613e-20 0)
(-2.5e-07 6.98028e-21 0)
(-2.5e-07 -1.6393e-21 0)
(-2.5e-07 3.30212e-22 0)
(-2.5e-07 -1.19207e-22 0)
(-2.5e-07 -4.04038e-24 0)
(-2.5e-07 -2.04595e-23 0)
(-2.5e-07 -2.27994e-23 0)
(-2.5e-07 -9.25317e-24 0)
(-2.5e-07 8.03849e-24 0)
(-2.5e-07 3.51612e-23 0)
(-2.5e-07 3.83603e-23 0)
(-2.5e-07 1.27399e-23 0)
(-2.5e-07 -5.64888e-24 0)
(-2.5e-07 -2.39596e-23 0)
(-2.5e-07 -2.97658e-23 0)
(-2.5e-07 -4.18945e-23 0)
(-2.5e-07 -2.47175e-23 0)
(-2.5e-07 -1.71703e-23 0)
(-2.5e-07 -2.61898e-23 0)
(-2.5e-07 4.77826e-20 0)
(-2.5e-07 -1.0512e-20 0)
(-2.5e-07 2.4515e-21 0)
(-2.5e-07 -5.54388e-22 0)
(-2.5e-07 1.14739e-22 0)
(-2.5e-07 -3.05824e-23 0)
(-2.5e-07 1.01195e-23 0)
(-2.5e-07 8.35003e-24 0)
(-2.5e-07 3.09532e-24 0)
(-2.5e-07 -4.76194e-24 0)
(-2.5e-07 -4.70185e-24 0)
(-2.5e-07 1.54286e-23 0)
(-2.5e-07 1.87036e-23 0)
(-2.5e-07 -5.83135e-24 0)
(-2.5e-07 -1.64801e-23 0)
(-2.5e-07 1.77173e-23 0)
(-2.5e-07 3.75005e-23 0)
(-2.5e-07 9.98291e-24 0)
(-2.5e-07 -7.64731e-24 0)
(-2.5e-07 -1.74435e-23 0)
(-2.5e-07 -2.87824e-20 0)
(-2.5e-07 6.24603e-21 0)
(-2.5e-07 -1.53702e-21 0)
(-2.5e-07 2.7886e-22 0)
(-2.5e-07 -9.73783e-23 0)
(-2.5e-07 -2.83128e-23 0)
(-2.5e-07 -5.58821e-23 0)
(-2.5e-07 -1.30945e-23 0)
(-2.5e-07 -9.1924e-24 0)
(-2.5e-07 -5.8681e-24 0)
(-2.5e-07 -4.44875e-24 0)
(-2.5e-07 1.38758e-24 0)
(-2.5e-07 4.93853e-24 0)
(-2.5e-07 1.44654e-23 0)
(-2.5e-07 1.78896e-23 0)
(-2.5e-07 2.09239e-23 0)
(-2.5e-07 3.58466e-23 0)
(-2.5e-07 1.24515e-23 0)
(-2.5e-07 -5.10187e-24 0)
(-2.5e-07 -1.0599e-23 0)
(-2.5e-07 -1.05631e-20 0)
(-2.5e-07 2.21896e-21 0)
(-2.5e-07 -5.52622e-22 0)
(-2.5e-07 7.48113e-23 0)
(-2.5e-07 -4.358e-23 0)
(-2.5e-07 -2.00027e-23 0)
(-2.5e-07 -4.17921e-23 0)
(-2.5e-07 -3.30524e-23 0)
(-2.5e-07 -2.09729e-23 0)
(-2.5e-07 -9.6522e-24 0)
(-2.5e-07 8.75177e-25 0)
(-2.5e-07 1.43802e-23 0)
(-2.5e-07 2.92105e-23 0)
(-2.5e-07 4.13127e-23 0)
(-2.5e-07 3.19166e-23 0)
(-2.5e-07 -2.13644e-23 0)
(-2.5e-07 -3.26137e-23 0)
(-2.5e-07 -4.89091e-24 0)
(-2.5e-07 -2.04817e-24 0)
(-2.5e-07 -1.40165e-23 0)
(-2.5e-07 3.65798e-20 0)
(-2.5e-07 -7.91896e-21 0)
(-2.5e-07 1.8498e-21 0)
(-2.5e-07 -4.11834e-22 0)
(-2.5e-07 9.05268e-23 0)
(-2.5e-07 1.425e-23 0)
(-2.5e-07 4.6488e-23 0)
(-2.5e-07 1.26838e-23 0)
(-2.5e-07 1.84724e-24 0)
(-2.5e-07 -9.13539e-24 0)
(-2.5e-07 -1.51668e-23 0)
(-2.5e-07 -1.30992e-23 0)
(-2.5e-07 1.33735e-23 0)
(-2.5e-07 8.96016e-24 0)
(-2.5e-07 -1.4051e-23 0)
(-2.5e-07 -2.75076e-23 0)
(-2.5e-07 -1.7245e-23 0)
(-2.5e-07 -9.62579e-24 0)
(-2.5e-07 -1.44419e-23 0)
(-2.5e-07 -1.17008e-23 0)
(-2.5e-07 -1.43675e-20 0)
(-2.5e-07 3.07673e-21 0)
(-2.5e-07 -7.60188e-22 0)
(-2.5e-07 1.51705e-22 0)
(-2.5e-07 -2.98366e-23 0)
(-2.5e-07 1.09475e-23 0)
(-2.5e-07 1.92374e-24 0)
(-2.5e-07 -2.28909e-24 0)
(-2.5e-07 5.24442e-24 0)
(-2.5e-07 -6.45171e-24 0)
(-2.5e-07 -2.91422e-23 0)
(-2.5e-07 -5.85679e-23 0)
(-2.5e-07 -5.41984e-23 0)
(-2.5e-07 -3.64712e-23 0)
(-2.5e-07 -4.25254e-23 0)
(-2.5e-07 -1.08551e-23 0)
(-2.5e-07 2.33703e-23 0)
(-2.5e-07 -8.83325e-24 0)
(-2.5e-07 -2.64422e-23 0)
(-2.5e-07 -4.49501e-24 0)
(-2.5e-07 -2.36937e-20 0)
(-2.5e-07 4.98134e-21 0)
(-2.5e-07 -1.16361e-21 0)
(-2.5e-07 2.735e-22 0)
(-2.5e-07 -2.61899e-23 0)
(-2.5e-07 1.0653e-23 0)
(-2.5e-07 -2.48057e-23 0)
(-2.5e-07 -2.49052e-23 0)
(-2.5e-07 -1.42129e-23 0)
(-2.5e-07 -1.48472e-23 0)
(-2.5e-07 -2.3259e-23 0)
(-2.5e-07 -4.64941e-23 0)
(-2.5e-07 -5.39657e-23 0)
(-2.5e-07 -3.91393e-23 0)
(-2.5e-07 -3.49389e-23 0)
(-2.5e-07 -8.28134e-24 0)
(-2.5e-07 1.75847e-23 0)
(-2.5e-07 -4.08532e-24 0)
(-2.5e-07 -1.7848e-23 0)
(-2.5e-07 -4.3732e-24 0)
)
;

boundaryField
{
    movingWall
    {
        type            calculated;
        value           uniform (0 0 0);
    }
    fixedWalls
    {
        type            calculated;
        value           uniform (0 0 0);
    }
    frontAndBack
    {
        type            empty;
    }
}


// ************************************************************************* //
