/*--------------------------------*- C++ -*----------------------------------*\
| =========                 |                                                 |
| \\      /  F ield         | OpenFOAM: The Open Source CFD Toolbox           |
|  \\    /   O peration     | Version:  2506                                  |
|   \\  /    A nd           | Website:  www.openfoam.com                      |
|    \\/     M anipulation  |                                                 |
\*---------------------------------------------------------------------------*/
FoamFile
{
    version     2.0;
    format      ascii;
    arch        "LSB;label=32;scalar=64";
    class       volVectorField;
    location    "9.5";
    object      norm_U_max;
}
// * * * * * * * * * * * * * * * * * * * * * * * * * * * * * * * * * * * * * //

dimensions      [0 0 0 0 0 0 0];

internalField   nonuniform List<vector> 
400
(
(-1 1.72595e-13 0)
(-1 -3.72923e-14 0)
(-1 8.82659e-15 0)
(-1 -1.87074e-15 0)
(-1 4.96349e-16 0)
(-1 1.03365e-16 0)
(-1 2.05146e-16 0)
(-1 1.01256e-16 0)
(-1 8.95218e-18 0)
(-1 -6.09158e-17 0)
(-1 -8.01699e-18 0)
(-1 8.01138e-17 0)
(-1 1.06785e-16 0)
(-1 5.82495e-17 0)
(-1 1.96593e-17 0)
(-1 -6.38779e-17 0)
(-1 -4.02357e-17 0)
(-1 6.74642e-17 0)
(-1 7.87827e-17 0)
(-1 1.20167e-17 0)
(-1 1.21704e-14 0)
(-1 -2.44759e-15 0)
(-1 5.67456e-16 0)
(-1 -8.81791e-20 0)
(-1 1.15281e-16 0)
(-1 4.33828e-17 0)
(-1 -6.02973e-17 0)
(-1 -1.34065e-16 0)
(-1 -9.83825e-17 0)
(-1 3.91561e-17 0)
(-1 1.34161e-16 0)
(-1 1.33846e-16 0)
(-1 1.31729e-16 0)
(-1 1.522e-16 0)
(-1 8.96474e-17 0)
(-1 -9.87192e-17 0)
(-1 -1.17478e-16 0)
(-1 -4.30422e-17 0)
(-1 -1.45842e-17 0)
(-1 -1.16077e-17 0)
(-1 -1.59759e-13 0)
(-1 3.43856e-14 0)
(-1 -8.542e-15 0)
(-1 1.61022e-15 0)
(-1 -3.70658e-16 0)
(-1 9.69612e-17 0)
(-1 -4.03973e-17 0)
(-1 1.86355e-17 0)
(-1 6.11875e-19 0)
(-1 5.11206e-17 0)
(-1 -6.3936e-17 0)
(-1 -1.24358e-16 0)
(-1 -1.49826e-16 0)
(-1 -4.74669e-17 0)
(-1 3.82026e-17 0)
(-1 5.28418e-17 0)
(-1 -1.78782e-17 0)
(-1 -1.35866e-16 0)
(-1 -1.63936e-16 0)
(-1 -9.2195e-17 0)
(-1 1.1703e-13 0)
(-1 -2.60833e-14 0)
(-1 5.62599e-15 0)
(-1 -1.73645e-15 0)
(-1 2.3441e-16 0)
(-1 3.16132e-17 0)
(-1 2.44707e-16 0)
(-1 2.60147e-16 0)
(-1 1.46855e-16 0)
(-1 -4.87013e-17 0)
(-1 -1.61651e-16 0)
(-1 -1.43948e-16 0)
(-1 -1.28655e-16 0)
(-1 -1.12053e-16 0)
(-1 -1.35652e-16 0)
(-1 -4.52887e-17 0)
(-1 4.44804e-18 0)
(-1 -3.16393e-17 0)
(-1 -1.21467e-16 0)
(-1 -9.50132e-17 0)
(-1 4.48018e-15 0)
(-1 -1.2076e-15 0)
(-1 4.42059e-17 0)
(-1 -2.38654e-16 0)
(-1 -1.86309e-16 0)
(-1 -1.23976e-16 0)
(-1 -5.39002e-17 0)
(-1 -3.09335e-17 0)
(-1 -5.36332e-18 0)
(-1 3.50101e-17 0)
(-1 9.75174e-17 0)
(-1 3.40598e-18 0)
(-1 -6.35523e-17 0)
(-1 -4.56495e-17 0)
(-1 -8.07961e-17 0)
(-1 -1.05388e-16 0)
(-1 -4.53432e-17 0)
(-1 2.90478e-17 0)
(-1 3.30927e-18 0)
(-1 -5.01441e-19 0)
(-1 -1.14364e-13 0)
(-1 2.48892e-14 0)
(-1 -5.89029e-15 0)
(-1 1.18123e-15 0)
(-1 -4.02728e-16 0)
(-1 3.06828e-17 0)
(-1 5.22147e-18 0)
(-1 5.46052e-17 0)
(-1 -9.07429e-18 0)
(-1 -2.77491e-17 0)
(-1 -1.35831e-16 0)
(-1 -1.64956e-16 0)
(-1 -1.09917e-16 0)
(-1 -5.64342e-17 0)
(-1 -3.05012e-17 0)
(-1 -6.52159e-18 0)
(-1 -9.09125e-18 0)
(-1 5.32514e-17 0)
(-1 7.78126e-17 0)
(-1 1.96348e-17 0)
(-1 1.49187e-13 0)
(-1 -3.22625e-14 0)
(-1 7.72181e-15 0)
(-1 -1.57436e-15 0)
(-1 5.124e-16 0)
(-1 3.01563e-17 0)
(-1 1.52017e-16 0)
(-1 1.70329e-16 0)
(-1 2.18778e-16 0)
(-1 3.14063e-17 0)
(-1 -2.40566e-16 0)
(-1 -2.99779e-16 0)
(-1 -1.51099e-16 0)
(-1 4.17804e-17 0)
(-1 1.11941e-16 0)
(-1 1.2533e-16 0)
(-1 7.92538e-17 0)
(-1 2.41336e-17 0)
(-1 4.38157e-18 0)
(-1 -2.36814e-17 0)
(-1 -6.66513e-14 0)
(-1 1.43019e-14 0)
(-1 -3.29589e-15 0)
(-1 7.94868e-16 0)
(-1 -1.45106e-16 0)
(-1 -1.4025e-17 0)
(-1 -1.48355e-16 0)
(-1 -3.67911e-17 0)
(-1 8.32531e-17 0)
(-1 1.97391e-17 0)
(-1 -4.32545e-17 0)
(-1 -6.84684e-17 0)
(-1 -1.24504e-16 0)
(-1 -1.41745e-16 0)
(-1 -8.48206e-17 0)
(-1 -5.08419e-17 0)
(-1 2.97578e-17 0)
(-1 7.85474e-17 0)
(-1 5.23542e-17 0)
(-1 -5.69609e-17 0)
(-1 -6.46254e-14 0)
(-1 1.3935e-14 0)
(-1 -3.33264e-15 0)
(-1 7.39529e-16 0)
(-1 -2.63822e-16 0)
(-1 -1.75929e-16 0)
(-1 -3.0706e-16 0)
(-1 -1.41842e-16 0)
(-1 -7.81142e-17 0)
(-1 -1.7158e-16 0)
(-1 -1.29646e-16 0)
(-1 1.39354e-16 0)
(-1 2.0205e-16 0)
(-1 2.86868e-18 0)
(-1 -1.30444e-16 0)
(-1 -1.01489e-16 0)
(-1 3.95844e-18 0)
(-1 9.12935e-17 0)
(-1 5.95049e-17 0)
(-1 -6.08229e-17 0)
(-1 1.57448e-13 0)
(-1 -3.42625e-14 0)
(-1 8.10831e-15 0)
(-1 -1.60392e-15 0)
(-1 4.47365e-16 0)
(-1 -7.64444e-17 0)
(-1 8.91756e-17 0)
(-1 4.94115e-17 0)
(-1 -3.05709e-17 0)
(-1 -2.20701e-17 0)
(-1 -2.564e-17 0)
(-1 8.12635e-18 0)
(-1 7.4009e-17 0)
(-1 6.8373e-17 0)
(-1 8.96398e-17 0)
(-1 9.19925e-17 0)
(-1 2.20076e-17 0)
(-1 -1.00353e-16 0)
(-1 -1.16019e-16 0)
(-1 -9.52449e-17 0)
(-1 -1.77443e-13 0)
(-1 3.82348e-14 0)
(-1 -8.94011e-15 0)
(-1 1.79225e-15 0)
(-1 -5.20677e-16 0)
(-1 2.07079e-16 0)
(-1 2.22463e-16 0)
(-1 9.64178e-17 0)
(-1 -1.39636e-16 0)
(-1 1.48548e-17 0)
(-1 1.31077e-16 0)
(-1 5.14436e-17 0)
(-1 3.41486e-17 0)
(-1 8.40545e-18 0)
(-1 4.68247e-17 0)
(-1 1.33297e-17 0)
(-1 -4.93356e-17 0)
(-1 -1.59455e-16 0)
(-1 -1.51652e-16 0)
(-1 -9.14171e-17 0)
(-1 1.11895e-13 0)
(-1 -2.47045e-14 0)
(-1 5.49302e-15 0)
(-1 -1.466e-15 0)
(-1 1.95168e-16 0)
(-1 -6.81999e-17 0)
(-1 8.14826e-17 0)
(-1 3.15444e-18 0)
(-1 -5.23759e-17 0)
(-1 -1.39658e-16 0)
(-1 -1.08324e-16 0)
(-1 -6.21332e-18 0)
(-1 9.86613e-17 0)
(-1 2.25672e-16 0)
(-1 2.66112e-16 0)
(-1 1.66314e-16 0)
(-1 6.69183e-17 0)
(-1 8.45842e-19 0)
(-1 -4.26492e-17 0)
(-1 2.35227e-17 0)
(-1 6.6827e-15 0)
(-1 -1.30642e-15 0)
(-1 1.21451e-16 0)
(-1 -5.12579e-17 0)
(-1 -1.07077e-17 0)
(-1 -6.28979e-17 0)
(-1 -7.05422e-17 0)
(-1 -1.0579e-16 0)
(-1 -4.25875e-17 0)
(-1 -8.64847e-17 0)
(-1 -2.83305e-17 0)
(-1 -5.81252e-17 0)
(-1 -1.04817e-16 0)
(-1 3.69809e-17 0)
(-1 7.76636e-17 0)
(-1 1.42019e-17 0)
(-1 -7.02219e-17 0)
(-1 -4.69949e-17 0)
(-1 -6.95254e-17 0)
(-1 -2.77477e-17 0)
(-1 -1.28245e-13 0)
(-1 2.79211e-14 0)
(-1 -6.55721e-15 0)
(-1 1.32085e-15 0)
(-1 -4.76828e-16 0)
(-1 -1.61615e-17 0)
(-1 -8.18379e-17 0)
(-1 -9.11975e-17 0)
(-1 -3.70127e-17 0)
(-1 3.2154e-17 0)
(-1 1.40645e-16 0)
(-1 1.53441e-16 0)
(-1 5.09594e-17 0)
(-1 -2.25955e-17 0)
(-1 -9.58384e-17 0)
(-1 -1.19063e-16 0)
(-1 -1.67578e-16 0)
(-1 -9.88699e-17 0)
(-1 -6.86812e-17 0)
(-1 -1.04759e-16 0)
(-1 1.9113e-13 0)
(-1 -4.20479e-14 0)
(-1 9.806e-15 0)
(-1 -2.21755e-15 0)
(-1 4.58954e-16 0)
(-1 -1.2233e-16 0)
(-1 4.04781e-17 0)
(-1 3.34001e-17 0)
(-1 1.23813e-17 0)
(-1 -1.90478e-17 0)
(-1 -1.88074e-17 0)
(-1 6.17145e-17 0)
(-1 7.48144e-17 0)
(-1 -2.33254e-17 0)
(-1 -6.59204e-17 0)
(-1 7.08694e-17 0)
(-1 1.50002e-16 0)
(-1 3.99317e-17 0)
(-1 -3.05892e-17 0)
(-1 -6.97738e-17 0)
(-1 -1.1513e-13 0)
(-1 2.49841e-14 0)
(-1 -6.14807e-15 0)
(-1 1.11544e-15 0)
(-1 -3.89513e-16 0)
(-1 -1.13251e-16 0)
(-1 -2.23528e-16 0)
(-1 -5.23781e-17 0)
(-1 -3.67696e-17 0)
(-1 -2.34724e-17 0)
(-1 -1.7795e-17 0)
(-1 5.55033e-18 0)
(-1 1.97541e-17 0)
(-1 5.78617e-17 0)
(-1 7.15583e-17 0)
(-1 8.36958e-17 0)
(-1 1.43386e-16 0)
(-1 4.98061e-17 0)
(-1 -2.04075e-17 0)
(-1 -4.2396e-17 0)
(-1 -4.22525e-14 0)
(-1 8.87585e-15 0)
(-1 -2.21049e-15 0)
(-1 2.99245e-16 0)
(-1 -1.7432e-16 0)
(-1 -8.00108e-17 0)
(-1 -1.67169e-16 0)
(-1 -1.3221e-16 0)
(-1 -8.38915e-17 0)
(-1 -3.86088e-17 0)
(-1 3.50071e-18 0)
(-1 5.75206e-17 0)
(-1 1.16842e-16 0)
(-1 1.65251e-16 0)
(-1 1.27666e-16 0)
(-1 -8.54575e-17 0)
(-1 -1.30455e-16 0)
(-1 -1.95636e-17 0)
(-1 -8.19266e-18 0)
(-1 -5.60661e-17 0)
(-1 1.46319e-13 0)
(-1 -3.16759e-14 0)
(-1 7.39918e-15 0)
(-1 -1.64733e-15 0)
(-1 3.62107e-16 0)
(-1 5.69999e-17 0)
(-1 1.85952e-16 0)
(-1 5.07353e-17 0)
(-1 7.38897e-18 0)
(-1 -3.65416e-17 0)
(-1 -6.06671e-17 0)
(-1 -5.23966e-17 0)
(-1 5.34939e-17 0)
(-1 3.58406e-17 0)
(-1 -5.62041e-17 0)
(-1 -1.10031e-16 0)
(-1 -6.89801e-17 0)
(-1 -3.85031e-17 0)
(-1 -5.77675e-17 0)
(-1 -4.68034e-17 0)
(-1 -5.74702e-14 0)
(-1 1.23069e-14 0)
(-1 -3.04075e-15 0)
(-1 6.06822e-16 0)
(-1 -1.19346e-16 0)
(-1 4.379e-17 0)
(-1 7.69497e-18 0)
(-1 -9.15638e-18 0)
(-1 2.09777e-17 0)
(-1 -2.58068e-17 0)
(-1 -1.16569e-16 0)
(-1 -2.34271e-16 0)
(-1 -2.16794e-16 0)
(-1 -1.45885e-16 0)
(-1 -1.70102e-16 0)
(-1 -4.34205e-17 0)
(-1 9.34812e-17 0)
(-1 -3.5333e-17 0)
(-1 -1.05769e-16 0)
(-1 -1.79801e-17 0)
(-1 -9.47747e-14 0)
(-1 1.99253e-14 0)
(-1 -4.65444e-15 0)
(-1 1.094e-15 0)
(-1 -1.04759e-16 0)
(-1 4.26121e-17 0)
(-1 -9.92228e-17 0)
(-1 -9.96208e-17 0)
(-1 -5.68516e-17 0)
(-1 -5.93887e-17 0)
(-1 -9.3036e-17 0)
(-1 -1.85976e-16 0)
(-1 -2.15863e-16 0)
(-1 -1.56557e-16 0)
(-1 -1.39756e-16 0)
(-1 -3.31254e-17 0)
(-1 7.03386e-17 0)
(-1 -1.63413e-17 0)
(-1 -7.13922e-17 0)
(-1 -1.74928e-17 0)
)
;

boundaryField
{
    movingWall
    {
        type            calculated;
        value           uniform (-1 -0 -0);
    }
    fixedWalls
    {
        type            calculated;
        value           uniform (-1 -0 -0);
    }
    frontAndBack
    {
        type            empty;
    }
}


// ************************************************************************* //
