/*--------------------------------*- C++ -*----------------------------------*\
| =========                 |                                                 |
| \\      /  F ield         | OpenFOAM: The Open Source CFD Toolbox           |
|  \\    /   O peration     | Version:  2506                                  |
|   \\  /    A nd           | Website:  www.openfoam.com                      |
|    \\/     M anipulation  |                                                 |
\*---------------------------------------------------------------------------*/
FoamFile
{
    version     2.0;
    format      ascii;
    arch        "LSB;label=32;scalar=64";
    class       volVectorField;
    location    "9.5";
    object      norm_U_L1;
}
// * * * * * * * * * * * * * * * * * * * * * * * * * * * * * * * * * * * * * //

dimensions      [0 0 0 0 0 0 0];

internalField   nonuniform List<vector> 
400
(
(-0.0025 4.31488e-16 0)
(-0.0025 -9.32307e-17 0)
(-0.0025 2.20665e-17 0)
(-0.0025 -4.67684e-18 0)
(-0.0025 1.24087e-18 0)
(-0.0025 2.58411e-19 0)
(-0.0025 5.12866e-19 0)
(-0.0025 2.5314e-19 0)
(-0.0025 2.23804e-20 0)
(-0.0025 -1.5229e-19 0)
(-0.0025 -2.00425e-20 0)
(-0.0025 2.00285e-19 0)
(-0.0025 2.66962e-19 0)
(-0.0025 1.45624e-19 0)
(-0.0025 4.91483e-20 0)
(-0.0025 -1.59695e-19 0)
(-0.0025 -1.00589e-19 0)
(-0.0025 1.6866e-19 0)
(-0.0025 1.96957e-19 0)
(-0.0025 3.00418e-20 0)
(-0.0025 3.04259e-17 0)
(-0.0025 -6.11898e-18 0)
(-0.0025 1.41864e-18 0)
(-0.0025 -2.20448e-22 0)
(-0.0025 2.88203e-19 0)
(-0.0025 1.08457e-19 0)
(-0.0025 -1.50743e-19 0)
(-0.0025 -3.35162e-19 0)
(-0.0025 -2.45956e-19 0)
(-0.0025 9.78902e-20 0)
(-0.0025 3.35403e-19 0)
(-0.0025 3.34614e-19 0)
(-0.0025 3.29323e-19 0)
(-0.0025 3.80501e-19 0)
(-0.0025 2.24118e-19 0)
(-0.0025 -2.46798e-19 0)
(-0.0025 -2.93694e-19 0)
(-0.0025 -1.07606e-19 0)
(-0.0025 -3.64604e-20 0)
(-0.0025 -2.90191e-20 0)
(-0.0025 -3.99398e-16 0)
(-0.0025 8.59639e-17 0)
(-0.0025 -2.1355e-17 0)
(-0.0025 4.02555e-18 0)
(-0.0025 -9.26644e-19 0)
(-0.0025 2.42403e-19 0)
(-0.0025 -1.00993e-19 0)
(-0.0025 4.65887e-20 0)
(-0.0025 1.52969e-21 0)
(-0.0025 1.27802e-19 0)
(-0.0025 -1.5984e-19 0)
(-0.0025 -3.10895e-19 0)
(-0.0025 -3.74565e-19 0)
(-0.0025 -1.18667e-19 0)
(-0.0025 9.55066e-20 0)
(-0.0025 1.32105e-19 0)
(-0.0025 -4.46954e-20 0)
(-0.0025 -3.39666e-19 0)
(-0.0025 -4.09839e-19 0)
(-0.0025 -2.30488e-19 0)
(-0.0025 2.92576e-16 0)
(-0.0025 -6.52082e-17 0)
(-0.0025 1.4065e-17 0)
(-0.0025 -4.34113e-18 0)
(-0.0025 5.86026e-19 0)
(-0.0025 7.9033e-20 0)
(-0.0025 6.11768e-19 0)
(-0.0025 6.50367e-19 0)
(-0.0025 3.67138e-19 0)
(-0.0025 -1.21753e-19 0)
(-0.0025 -4.04128e-19 0)
(-0.0025 -3.59869e-19 0)
(-0.0025 -3.21636e-19 0)
(-0.0025 -2.80133e-19 0)
(-0.0025 -3.3913e-19 0)
(-0.0025 -1.13222e-19 0)
(-0.0025 1.11201e-20 0)
(-0.0025 -7.90982e-20 0)
(-0.0025 -3.03669e-19 0)
(-0.0025 -2.37533e-19 0)
(-0.0025 1.12005e-17 0)
(-0.0025 -3.01899e-18 0)
(-0.0025 1.10515e-19 0)
(-0.0025 -5.96636e-19 0)
(-0.0025 -4.65772e-19 0)
(-0.0025 -3.0994e-19 0)
(-0.0025 -1.3475e-19 0)
(-0.0025 -7.73338e-20 0)
(-0.0025 -1.34083e-20 0)
(-0.0025 8.75252e-20 0)
(-0.0025 2.43794e-19 0)
(-0.0025 8.51496e-21 0)
(-0.0025 -1.58881e-19 0)
(-0.0025 -1.14124e-19 0)
(-0.0025 -2.0199e-19 0)
(-0.0025 -2.63469e-19 0)
(-0.0025 -1.13358e-19 0)
(-0.0025 7.26194e-20 0)
(-0.0025 8.27317e-21 0)
(-0.0025 -1.2536e-21 0)
(-0.0025 -2.8591e-16 0)
(-0.0025 6.22231e-17 0)
(-0.0025 -1.47257e-17 0)
(-0.0025 2.95308e-18 0)
(-0.0025 -1.00682e-18 0)
(-0.0025 7.67071e-20 0)
(-0.0025 1.30537e-20 0)
(-0.0025 1.36513e-19 0)
(-0.0025 -2.26857e-20 0)
(-0.0025 -6.93726e-20 0)
(-0.0025 -3.39577e-19 0)
(-0.0025 -4.1239e-19 0)
(-0.0025 -2.74791e-19 0)
(-0.0025 -1.41085e-19 0)
(-0.0025 -7.6253e-20 0)
(-0.0025 -1.6304e-20 0)
(-0.0025 -2.27281e-20 0)
(-0.0025 1.33129e-19 0)
(-0.0025 1.94532e-19 0)
(-0.0025 4.90871e-20 0)
(-0.0025 3.72967e-16 0)
(-0.0025 -8.06562e-17 0)
(-0.0025 1.93045e-17 0)
(-0.0025 -3.93589e-18 0)
(-0.0025 1.281e-18 0)
(-0.0025 7.53907e-20 0)
(-0.0025 3.80042e-19 0)
(-0.0025 4.25824e-19 0)
(-0.0025 5.46944e-19 0)
(-0.0025 7.85158e-20 0)
(-0.0025 -6.01414e-19 0)
(-0.0025 -7.49447e-19 0)
(-0.0025 -3.77747e-19 0)
(-0.0025 1.04451e-19 0)
(-0.0025 2.79853e-19 0)
(-0.0025 3.13325e-19 0)
(-0.0025 1.98134e-19 0)
(-0.0025 6.0334e-20 0)
(-0.0025 1.09539e-20 0)
(-0.0025 -5.92034e-20 0)
(-0.0025 -1.66628e-16 0)
(-0.0025 3.57548e-17 0)
(-0.0025 -8.23971e-18 0)
(-0.0025 1.98717e-18 0)
(-0.0025 -3.62764e-19 0)
(-0.0025 -3.50625e-20 0)
(-0.0025 -3.70887e-19 0)
(-0.0025 -9.19777e-20 0)
(-0.0025 2.08133e-19 0)
(-0.0025 4.93477e-20 0)
(-0.0025 -1.08136e-19 0)
(-0.0025 -1.71171e-19 0)
(-0.0025 -3.1126e-19 0)
(-0.0025 -3.54361e-19 0)
(-0.0025 -2.12052e-19 0)
(-0.0025 -1.27105e-19 0)
(-0.0025 7.43945e-20 0)
(-0.0025 1.96369e-19 0)
(-0.0025 1.30885e-19 0)
(-0.0025 -1.42402e-19 0)
(-0.0025 -1.61563e-16 0)
(-0.0025 3.48375e-17 0)
(-0.0025 -8.33161e-18 0)
(-0.0025 1.84882e-18 0)
(-0.0025 -6.59555e-19 0)
(-0.0025 -4.39822e-19 0)
(-0.0025 -7.6765e-19 0)
(-0.0025 -3.54606e-19 0)
(-0.0025 -1.95286e-19 0)
(-0.0025 -4.28951e-19 0)
(-0.0025 -3.24116e-19 0)
(-0.0025 3.48386e-19 0)
(-0.0025 5.05126e-19 0)
(-0.0025 7.17171e-21 0)
(-0.0025 -3.26109e-19 0)
(-0.0025 -2.53723e-19 0)
(-0.0025 9.89609e-21 0)
(-0.0025 2.28234e-19 0)
(-0.0025 1.48762e-19 0)
(-0.0025 -1.52057e-19 0)
(-0.0025 3.9362e-16 0)
(-0.0025 -8.56562e-17 0)
(-0.0025 2.02708e-17 0)
(-0.0025 -4.0098e-18 0)
(-0.0025 1.11841e-18 0)
(-0.0025 -1.91111e-19 0)
(-0.0025 2.22939e-19 0)
(-0.0025 1.23529e-19 0)
(-0.0025 -7.64272e-20 0)
(-0.0025 -5.51753e-20 0)
(-0.0025 -6.40999e-20 0)
(-0.0025 2.03159e-20 0)
(-0.0025 1.85022e-19 0)
(-0.0025 1.70932e-19 0)
(-0.0025 2.241e-19 0)
(-0.0025 2.29981e-19 0)
(-0.0025 5.5019e-20 0)
(-0.0025 -2.50882e-19 0)
(-0.0025 -2.90049e-19 0)
(-0.0025 -2.38112e-19 0)
(-0.0025 -4.43607e-16 0)
(-0.0025 9.5587e-17 0)
(-0.0025 -2.23503e-17 0)
(-0.0025 4.48063e-18 0)
(-0.0025 -1.30169e-18 0)
(-0.0025 5.17698e-19 0)
(-0.0025 5.56158e-19 0)
(-0.0025 2.41044e-19 0)
(-0.0025 -3.49089e-19 0)
(-0.0025 3.7137e-20 0)
(-0.0025 3.27692e-19 0)
(-0.0025 1.28609e-19 0)
(-0.0025 8.53714e-20 0)
(-0.0025 2.10136e-20 0)
(-0.0025 1.17062e-19 0)
(-0.0025 3.33241e-20 0)
(-0.0025 -1.23339e-19 0)
(-0.0025 -3.98636e-19 0)
(-0.0025 -3.7913e-19 0)
(-0.0025 -2.28543e-19 0)
(-0.0025 2.79737e-16 0)
(-0.0025 -6.17613e-17 0)
(-0.0025 1.37325e-17 0)
(-0.0025 -3.66501e-18 0)
(-0.0025 4.87919e-19 0)
(-0.0025 -1.705e-19 0)
(-0.0025 2.03706e-19 0)
(-0.0025 7.88611e-21 0)
(-0.0025 -1.3094e-19 0)
(-0.0025 -3.49145e-19 0)
(-0.0025 -2.70811e-19 0)
(-0.0025 -1.55333e-20 0)
(-0.0025 2.46653e-19 0)
(-0.0025 5.64179e-19 0)
(-0.0025 6.6528e-19 0)
(-0.0025 4.15786e-19 0)
(-0.0025 1.67296e-19 0)
(-0.0025 2.1146e-21 0)
(-0.0025 -1.06623e-19 0)
(-0.0025 5.88068e-20 0)
(-0.0025 1.67068e-17 0)
(-0.0025 -3.26606e-18 0)
(-0.0025 3.03628e-19 0)
(-0.0025 -1.28145e-19 0)
(-0.0025 -2.67691e-20 0)
(-0.0025 -1.57245e-19 0)
(-0.0025 -1.76355e-19 0)
(-0.0025 -2.64476e-19 0)
(-0.0025 -1.06469e-19 0)
(-0.0025 -2.16212e-19 0)
(-0.0025 -7.08262e-20 0)
(-0.0025 -1.45313e-19 0)
(-0.0025 -2.62042e-19 0)
(-0.0025 9.24522e-20 0)
(-0.0025 1.94159e-19 0)
(-0.0025 3.55047e-20 0)
(-0.0025 -1.75555e-19 0)
(-0.0025 -1.17487e-19 0)
(-0.0025 -1.73814e-19 0)
(-0.0025 -6.93694e-20 0)
(-0.0025 -3.20613e-16 0)
(-0.0025 6.98028e-17 0)
(-0.0025 -1.6393e-17 0)
(-0.0025 3.30212e-18 0)
(-0.0025 -1.19207e-18 0)
(-0.0025 -4.04038e-20 0)
(-0.0025 -2.04595e-19 0)
(-0.0025 -2.27994e-19 0)
(-0.0025 -9.25317e-20 0)
(-0.0025 8.03849e-20 0)
(-0.0025 3.51612e-19 0)
(-0.0025 3.83603e-19 0)
(-0.0025 1.27399e-19 0)
(-0.0025 -5.64888e-20 0)
(-0.0025 -2.39596e-19 0)
(-0.0025 -2.97658e-19 0)
(-0.0025 -4.18945e-19 0)
(-0.0025 -2.47175e-19 0)
(-0.0025 -1.71703e-19 0)
(-0.0025 -2.61898e-19 0)
(-0.0025 4.77826e-16 0)
(-0.0025 -1.0512e-16 0)
(-0.0025 2.4515e-17 0)
(-0.0025 -5.54388e-18 0)
(-0.0025 1.14739e-18 0)
(-0.0025 -3.05824e-19 0)
(-0.0025 1.01195e-19 0)
(-0.0025 8.35003e-20 0)
(-0.0025 3.09532e-20 0)
(-0.0025 -4.76194e-20 0)
(-0.0025 -4.70185e-20 0)
(-0.0025 1.54286e-19 0)
(-0.0025 1.87036e-19 0)
(-0.0025 -5.83135e-20 0)
(-0.0025 -1.64801e-19 0)
(-0.0025 1.77173e-19 0)
(-0.0025 3.75005e-19 0)
(-0.0025 9.98291e-20 0)
(-0.0025 -7.64731e-20 0)
(-0.0025 -1.74435e-19 0)
(-0.0025 -2.87824e-16 0)
(-0.0025 6.24603e-17 0)
(-0.0025 -1.53702e-17 0)
(-0.0025 2.7886e-18 0)
(-0.0025 -9.73783e-19 0)
(-0.0025 -2.83128e-19 0)
(-0.0025 -5.58821e-19 0)
(-0.0025 -1.30945e-19 0)
(-0.0025 -9.1924e-20 0)
(-0.0025 -5.8681e-20 0)
(-0.0025 -4.44875e-20 0)
(-0.0025 1.38758e-20 0)
(-0.0025 4.93853e-20 0)
(-0.0025 1.44654e-19 0)
(-0.0025 1.78896e-19 0)
(-0.0025 2.09239e-19 0)
(-0.0025 3.58466e-19 0)
(-0.0025 1.24515e-19 0)
(-0.0025 -5.10187e-20 0)
(-0.0025 -1.0599e-19 0)
(-0.0025 -1.05631e-16 0)
(-0.0025 2.21896e-17 0)
(-0.0025 -5.52622e-18 0)
(-0.0025 7.48113e-19 0)
(-0.0025 -4.358e-19 0)
(-0.0025 -2.00027e-19 0)
(-0.0025 -4.17921e-19 0)
(-0.0025 -3.30524e-19 0)
(-0.0025 -2.09729e-19 0)
(-0.0025 -9.6522e-20 0)
(-0.0025 8.75177e-21 0)
(-0.0025 1.43802e-19 0)
(-0.0025 2.92105e-19 0)
(-0.0025 4.13127e-19 0)
(-0.0025 3.19166e-19 0)
(-0.0025 -2.13644e-19 0)
(-0.0025 -3.26137e-19 0)
(-0.0025 -4.89091e-20 0)
(-0.0025 -2.04817e-20 0)
(-0.0025 -1.40165e-19 0)
(-0.0025 3.65798e-16 0)
(-0.0025 -7.91896e-17 0)
(-0.0025 1.8498e-17 0)
(-0.0025 -4.11834e-18 0)
(-0.0025 9.05268e-19 0)
(-0.0025 1.425e-19 0)
(-0.0025 4.6488e-19 0)
(-0.0025 1.26838e-19 0)
(-0.0025 1.84724e-20 0)
(-0.0025 -9.13539e-20 0)
(-0.0025 -1.51668e-19 0)
(-0.0025 -1.30992e-19 0)
(-0.0025 1.33735e-19 0)
(-0.0025 8.96016e-20 0)
(-0.0025 -1.4051e-19 0)
(-0.0025 -2.75076e-19 0)
(-0.0025 -1.7245e-19 0)
(-0.0025 -9.62579e-20 0)
(-0.0025 -1.44419e-19 0)
(-0.0025 -1.17008e-19 0)
(-0.0025 -1.43675e-16 0)
(-0.0025 3.07673e-17 0)
(-0.0025 -7.60188e-18 0)
(-0.0025 1.51705e-18 0)
(-0.0025 -2.98366e-19 0)
(-0.0025 1.09475e-19 0)
(-0.0025 1.92374e-20 0)
(-0.0025 -2.28909e-20 0)
(-0.0025 5.24442e-20 0)
(-0.0025 -6.45171e-20 0)
(-0.0025 -2.91422e-19 0)
(-0.0025 -5.85679e-19 0)
(-0.0025 -5.41984e-19 0)
(-0.0025 -3.64712e-19 0)
(-0.0025 -4.25254e-19 0)
(-0.0025 -1.08551e-19 0)
(-0.0025 2.33703e-19 0)
(-0.0025 -8.83325e-20 0)
(-0.0025 -2.64422e-19 0)
(-0.0025 -4.49501e-20 0)
(-0.0025 -2.36937e-16 0)
(-0.0025 4.98134e-17 0)
(-0.0025 -1.16361e-17 0)
(-0.0025 2.735e-18 0)
(-0.0025 -2.61899e-19 0)
(-0.0025 1.0653e-19 0)
(-0.0025 -2.48057e-19 0)
(-0.0025 -2.49052e-19 0)
(-0.0025 -1.42129e-19 0)
(-0.0025 -1.48472e-19 0)
(-0.0025 -2.3259e-19 0)
(-0.0025 -4.64941e-19 0)
(-0.0025 -5.39657e-19 0)
(-0.0025 -3.91393e-19 0)
(-0.0025 -3.49389e-19 0)
(-0.0025 -8.28134e-20 0)
(-0.0025 1.75847e-19 0)
(-0.0025 -4.08532e-20 0)
(-0.0025 -1.7848e-19 0)
(-0.0025 -4.3732e-20 0)
)
;

boundaryField
{
    movingWall
    {
        type            calculated;
        value           uniform (-0.0025 -0 -0);
    }
    fixedWalls
    {
        type            calculated;
        value           uniform (-0.0025 -0 -0);
    }
    frontAndBack
    {
        type            empty;
    }
}


// ************************************************************************* //
