/*--------------------------------*- C++ -*----------------------------------*\
| =========                 |                                                 |
| \\      /  F ield         | OpenFOAM: The Open Source CFD Toolbox           |
|  \\    /   O peration     | Version:  2506                                  |
|   \\  /    A nd           | Website:  www.openfoam.com                      |
|    \\/     M anipulation  |                                                 |
\*---------------------------------------------------------------------------*/
FoamFile
{
    version     2.0;
    format      ascii;
    arch        "LSB;label=32;scalar=64";
    class       volVectorField;
    location    "9.5";
    object      norm_U_composite;
}
// * * * * * * * * * * * * * * * * * * * * * * * * * * * * * * * * * * * * * //

dimensions      [0 0 0 0 0 0 0];

internalField   nonuniform List<vector> 
400
(
(-0.5 8.62977e-14 0)
(-0.5 -1.86461e-14 0)
(-0.5 4.4133e-15 0)
(-0.5 -9.35368e-16 0)
(-0.5 2.48175e-16 0)
(-0.5 5.16823e-17 0)
(-0.5 1.02573e-16 0)
(-0.5 5.06281e-17 0)
(-0.5 4.47609e-18 0)
(-0.5 -3.04579e-17 0)
(-0.5 -4.00849e-18 0)
(-0.5 4.00569e-17 0)
(-0.5 5.33924e-17 0)
(-0.5 2.91247e-17 0)
(-0.5 9.82966e-18 0)
(-0.5 -3.1939e-17 0)
(-0.5 -2.01179e-17 0)
(-0.5 3.37321e-17 0)
(-0.5 3.93913e-17 0)
(-0.5 6.00836e-18 0)
(-0.5 6.08519e-15 0)
(-0.5 -1.2238e-15 0)
(-0.5 2.83728e-16 0)
(-0.5 -4.40896e-20 0)
(-0.5 5.76405e-17 0)
(-0.5 2.16914e-17 0)
(-0.5 -3.01487e-17 0)
(-0.5 -6.70324e-17 0)
(-0.5 -4.91913e-17 0)
(-0.5 1.9578e-17 0)
(-0.5 6.70806e-17 0)
(-0.5 6.69228e-17 0)
(-0.5 6.58646e-17 0)
(-0.5 7.61001e-17 0)
(-0.5 4.48237e-17 0)
(-0.5 -4.93596e-17 0)
(-0.5 -5.87388e-17 0)
(-0.5 -2.15211e-17 0)
(-0.5 -7.29209e-18 0)
(-0.5 -5.80383e-18 0)
(-0.5 -7.98797e-14 0)
(-0.5 1.71928e-14 0)
(-0.5 -4.271e-15 0)
(-0.5 8.05111e-16 0)
(-0.5 -1.85329e-16 0)
(-0.5 4.84806e-17 0)
(-0.5 -2.01987e-17 0)
(-0.5 9.31774e-18 0)
(-0.5 3.05938e-19 0)
(-0.5 2.55603e-17 0)
(-0.5 -3.1968e-17 0)
(-0.5 -6.21789e-17 0)
(-0.5 -7.49131e-17 0)
(-0.5 -2.37335e-17 0)
(-0.5 1.91013e-17 0)
(-0.5 2.64209e-17 0)
(-0.5 -8.93908e-18 0)
(-0.5 -6.79331e-17 0)
(-0.5 -8.19678e-17 0)
(-0.5 -4.60975e-17 0)
(-0.5 5.85152e-14 0)
(-0.5 -1.30416e-14 0)
(-0.5 2.813e-15 0)
(-0.5 -8.68227e-16 0)
(-0.5 1.17205e-16 0)
(-0.5 1.58066e-17 0)
(-0.5 1.22354e-16 0)
(-0.5 1.30073e-16 0)
(-0.5 7.34277e-17 0)
(-0.5 -2.43506e-17 0)
(-0.5 -8.08256e-17 0)
(-0.5 -7.19738e-17 0)
(-0.5 -6.43273e-17 0)
(-0.5 -5.60266e-17 0)
(-0.5 -6.78261e-17 0)
(-0.5 -2.26444e-17 0)
(-0.5 2.22402e-18 0)
(-0.5 -1.58196e-17 0)
(-0.5 -6.07337e-17 0)
(-0.5 -4.75066e-17 0)
(-0.5 2.24009e-15 0)
(-0.5 -6.03798e-16 0)
(-0.5 2.21029e-17 0)
(-0.5 -1.19327e-16 0)
(-0.5 -9.31544e-17 0)
(-0.5 -6.1988e-17 0)
(-0.5 -2.69501e-17 0)
(-0.5 -1.54668e-17 0)
(-0.5 -2.68166e-18 0)
(-0.5 1.7505e-17 0)
(-0.5 4.87587e-17 0)
(-0.5 1.70299e-18 0)
(-0.5 -3.17761e-17 0)
(-0.5 -2.28248e-17 0)
(-0.5 -4.0398e-17 0)
(-0.5 -5.26939e-17 0)
(-0.5 -2.26716e-17 0)
(-0.5 1.45239e-17 0)
(-0.5 1.65463e-18 0)
(-0.5 -2.5072e-19 0)
(-0.5 -5.71819e-14 0)
(-0.5 1.24446e-14 0)
(-0.5 -2.94514e-15 0)
(-0.5 5.90617e-16 0)
(-0.5 -2.01364e-16 0)
(-0.5 1.53414e-17 0)
(-0.5 2.61073e-18 0)
(-0.5 2.73026e-17 0)
(-0.5 -4.53714e-18 0)
(-0.5 -1.38745e-17 0)
(-0.5 -6.79155e-17 0)
(-0.5 -8.2478e-17 0)
(-0.5 -5.49583e-17 0)
(-0.5 -2.82171e-17 0)
(-0.5 -1.52506e-17 0)
(-0.5 -3.2608e-18 0)
(-0.5 -4.54563e-18 0)
(-0.5 2.66257e-17 0)
(-0.5 3.89063e-17 0)
(-0.5 9.81742e-18 0)
(-0.5 7.45934e-14 0)
(-0.5 -1.61312e-14 0)
(-0.5 3.86091e-15 0)
(-0.5 -7.87178e-16 0)
(-0.5 2.562e-16 0)
(-0.5 1.50781e-17 0)
(-0.5 7.60084e-17 0)
(-0.5 8.51647e-17 0)
(-0.5 1.09389e-16 0)
(-0.5 1.57032e-17 0)
(-0.5 -1.20283e-16 0)
(-0.5 -1.49889e-16 0)
(-0.5 -7.55493e-17 0)
(-0.5 2.08902e-17 0)
(-0.5 5.59705e-17 0)
(-0.5 6.26649e-17 0)
(-0.5 3.96269e-17 0)
(-0.5 1.20668e-17 0)
(-0.5 2.19078e-18 0)
(-0.5 -1.18407e-17 0)
(-0.5 -3.33256e-14 0)
(-0.5 7.15097e-15 0)
(-0.5 -1.64794e-15 0)
(-0.5 3.97434e-16 0)
(-0.5 -7.25528e-17 0)
(-0.5 -7.01249e-18 0)
(-0.5 -7.41773e-17 0)
(-0.5 -1.83955e-17 0)
(-0.5 4.16266e-17 0)
(-0.5 9.86955e-18 0)
(-0.5 -2.16272e-17 0)
(-0.5 -3.42342e-17 0)
(-0.5 -6.2252e-17 0)
(-0.5 -7.08723e-17 0)
(-0.5 -4.24103e-17 0)
(-0.5 -2.5421e-17 0)
(-0.5 1.48789e-17 0)
(-0.5 3.92737e-17 0)
(-0.5 2.61771e-17 0)
(-0.5 -2.84804e-17 0)
(-0.5 -3.23127e-14 0)
(-0.5 6.9675e-15 0)
(-0.5 -1.66632e-15 0)
(-0.5 3.69764e-16 0)
(-0.5 -1.31911e-16 0)
(-0.5 -8.79643e-17 0)
(-0.5 -1.5353e-16 0)
(-0.5 -7.09212e-17 0)
(-0.5 -3.90571e-17 0)
(-0.5 -8.57902e-17 0)
(-0.5 -6.48231e-17 0)
(-0.5 6.96771e-17 0)
(-0.5 1.01025e-16 0)
(-0.5 1.43434e-18 0)
(-0.5 -6.52219e-17 0)
(-0.5 -5.07446e-17 0)
(-0.5 1.97922e-18 0)
(-0.5 4.56467e-17 0)
(-0.5 2.97524e-17 0)
(-0.5 -3.04114e-17 0)
(-0.5 7.8724e-14 0)
(-0.5 -1.71312e-14 0)
(-0.5 4.05416e-15 0)
(-0.5 -8.01961e-16 0)
(-0.5 2.23683e-16 0)
(-0.5 -3.82222e-17 0)
(-0.5 4.45878e-17 0)
(-0.5 2.47058e-17 0)
(-0.5 -1.52854e-17 0)
(-0.5 -1.10351e-17 0)
(-0.5 -1.282e-17 0)
(-0.5 4.06318e-18 0)
(-0.5 3.70045e-17 0)
(-0.5 3.41865e-17 0)
(-0.5 4.48199e-17 0)
(-0.5 4.59962e-17 0)
(-0.5 1.10038e-17 0)
(-0.5 -5.01764e-17 0)
(-0.5 -5.80097e-17 0)
(-0.5 -4.76224e-17 0)
(-0.5 -8.87215e-14 0)
(-0.5 1.91174e-14 0)
(-0.5 -4.47005e-15 0)
(-0.5 8.96126e-16 0)
(-0.5 -2.60339e-16 0)
(-0.5 1.0354e-16 0)
(-0.5 1.11232e-16 0)
(-0.5 4.82089e-17 0)
(-0.5 -6.98178e-17 0)
(-0.5 7.42739e-18 0)
(-0.5 6.55383e-17 0)
(-0.5 2.57218e-17 0)
(-0.5 1.70743e-17 0)
(-0.5 4.20272e-18 0)
(-0.5 2.34123e-17 0)
(-0.5 6.66483e-18 0)
(-0.5 -2.46678e-17 0)
(-0.5 -7.97273e-17 0)
(-0.5 -7.58259e-17 0)
(-0.5 -4.57086e-17 0)
(-0.5 5.59474e-14 0)
(-0.5 -1.23523e-14 0)
(-0.5 2.74651e-15 0)
(-0.5 -7.33001e-16 0)
(-0.5 9.75838e-17 0)
(-0.5 -3.40999e-17 0)
(-0.5 4.07413e-17 0)
(-0.5 1.57722e-18 0)
(-0.5 -2.6188e-17 0)
(-0.5 -6.98289e-17 0)
(-0.5 -5.41622e-17 0)
(-0.5 -3.10666e-18 0)
(-0.5 4.93306e-17 0)
(-0.5 1.12836e-16 0)
(-0.5 1.33056e-16 0)
(-0.5 8.31571e-17 0)
(-0.5 3.34592e-17 0)
(-0.5 4.22921e-19 0)
(-0.5 -2.13246e-17 0)
(-0.5 1.17614e-17 0)
(-0.5 3.34135e-15 0)
(-0.5 -6.53212e-16 0)
(-0.5 6.07256e-17 0)
(-0.5 -2.5629e-17 0)
(-0.5 -5.35383e-18 0)
(-0.5 -3.14489e-17 0)
(-0.5 -3.52711e-17 0)
(-0.5 -5.28952e-17 0)
(-0.5 -2.12938e-17 0)
(-0.5 -4.32423e-17 0)
(-0.5 -1.41652e-17 0)
(-0.5 -2.90626e-17 0)
(-0.5 -5.24084e-17 0)
(-0.5 1.84904e-17 0)
(-0.5 3.88318e-17 0)
(-0.5 7.10094e-18 0)
(-0.5 -3.51109e-17 0)
(-0.5 -2.34975e-17 0)
(-0.5 -3.47627e-17 0)
(-0.5 -1.38739e-17 0)
(-0.5 -6.41226e-14 0)
(-0.5 1.39606e-14 0)
(-0.5 -3.2786e-15 0)
(-0.5 6.60425e-16 0)
(-0.5 -2.38414e-16 0)
(-0.5 -8.08077e-18 0)
(-0.5 -4.0919e-17 0)
(-0.5 -4.55988e-17 0)
(-0.5 -1.85063e-17 0)
(-0.5 1.6077e-17 0)
(-0.5 7.03224e-17 0)
(-0.5 7.67206e-17 0)
(-0.5 2.54797e-17 0)
(-0.5 -1.12978e-17 0)
(-0.5 -4.79192e-17 0)
(-0.5 -5.95317e-17 0)
(-0.5 -8.37889e-17 0)
(-0.5 -4.94349e-17 0)
(-0.5 -3.43406e-17 0)
(-0.5 -5.23795e-17 0)
(-0.5 9.55651e-14 0)
(-0.5 -2.1024e-14 0)
(-0.5 4.903e-15 0)
(-0.5 -1.10878e-15 0)
(-0.5 2.29477e-16 0)
(-0.5 -6.11649e-17 0)
(-0.5 2.02391e-17 0)
(-0.5 1.67001e-17 0)
(-0.5 6.19064e-18 0)
(-0.5 -9.52388e-18 0)
(-0.5 -9.40371e-18 0)
(-0.5 3.08572e-17 0)
(-0.5 3.74072e-17 0)
(-0.5 -1.16627e-17 0)
(-0.5 -3.29602e-17 0)
(-0.5 3.54347e-17 0)
(-0.5 7.50011e-17 0)
(-0.5 1.99658e-17 0)
(-0.5 -1.52946e-17 0)
(-0.5 -3.48869e-17 0)
(-0.5 -5.75648e-14 0)
(-0.5 1.24921e-14 0)
(-0.5 -3.07404e-15 0)
(-0.5 5.57721e-16 0)
(-0.5 -1.94757e-16 0)
(-0.5 -5.66255e-17 0)
(-0.5 -1.11764e-16 0)
(-0.5 -2.61891e-17 0)
(-0.5 -1.83848e-17 0)
(-0.5 -1.17362e-17 0)
(-0.5 -8.89749e-18 0)
(-0.5 2.77517e-18 0)
(-0.5 9.87707e-18 0)
(-0.5 2.89309e-17 0)
(-0.5 3.57791e-17 0)
(-0.5 4.18479e-17 0)
(-0.5 7.16932e-17 0)
(-0.5 2.49031e-17 0)
(-0.5 -1.02037e-17 0)
(-0.5 -2.1198e-17 0)
(-0.5 -2.11263e-14 0)
(-0.5 4.43792e-15 0)
(-0.5 -1.10524e-15 0)
(-0.5 1.49623e-16 0)
(-0.5 -8.716e-17 0)
(-0.5 -4.00054e-17 0)
(-0.5 -8.35843e-17 0)
(-0.5 -6.61049e-17 0)
(-0.5 -4.19457e-17 0)
(-0.5 -1.93044e-17 0)
(-0.5 1.75035e-18 0)
(-0.5 2.87603e-17 0)
(-0.5 5.8421e-17 0)
(-0.5 8.26253e-17 0)
(-0.5 6.38331e-17 0)
(-0.5 -4.27288e-17 0)
(-0.5 -6.52274e-17 0)
(-0.5 -9.78182e-18 0)
(-0.5 -4.09633e-18 0)
(-0.5 -2.8033e-17 0)
(-0.5 7.31596e-14 0)
(-0.5 -1.58379e-14 0)
(-0.5 3.69959e-15 0)
(-0.5 -8.23667e-16 0)
(-0.5 1.81054e-16 0)
(-0.5 2.84999e-17 0)
(-0.5 9.2976e-17 0)
(-0.5 2.53676e-17 0)
(-0.5 3.69449e-18 0)
(-0.5 -1.82708e-17 0)
(-0.5 -3.03336e-17 0)
(-0.5 -2.61983e-17 0)
(-0.5 2.6747e-17 0)
(-0.5 1.79203e-17 0)
(-0.5 -2.8102e-17 0)
(-0.5 -5.50153e-17 0)
(-0.5 -3.449e-17 0)
(-0.5 -1.92516e-17 0)
(-0.5 -2.88838e-17 0)
(-0.5 -2.34017e-17 0)
(-0.5 -2.87351e-14 0)
(-0.5 6.15345e-15 0)
(-0.5 -1.52038e-15 0)
(-0.5 3.03411e-16 0)
(-0.5 -5.96731e-17 0)
(-0.5 2.1895e-17 0)
(-0.5 3.84749e-18 0)
(-0.5 -4.57819e-18 0)
(-0.5 1.04888e-17 0)
(-0.5 -1.29034e-17 0)
(-0.5 -5.82845e-17 0)
(-0.5 -1.17136e-16 0)
(-0.5 -1.08397e-16 0)
(-0.5 -7.29425e-17 0)
(-0.5 -8.50509e-17 0)
(-0.5 -2.17102e-17 0)
(-0.5 4.67406e-17 0)
(-0.5 -1.76665e-17 0)
(-0.5 -5.28843e-17 0)
(-0.5 -8.99003e-18 0)
(-0.5 -4.73873e-14 0)
(-0.5 9.96267e-15 0)
(-0.5 -2.32722e-15 0)
(-0.5 5.46999e-16 0)
(-0.5 -5.23797e-17 0)
(-0.5 2.1306e-17 0)
(-0.5 -4.96114e-17 0)
(-0.5 -4.98104e-17 0)
(-0.5 -2.84258e-17 0)
(-0.5 -2.96943e-17 0)
(-0.5 -4.6518e-17 0)
(-0.5 -9.29882e-17 0)
(-0.5 -1.07931e-16 0)
(-0.5 -7.82785e-17 0)
(-0.5 -6.98778e-17 0)
(-0.5 -1.65627e-17 0)
(-0.5 3.51693e-17 0)
(-0.5 -8.17064e-18 0)
(-0.5 -3.56961e-17 0)
(-0.5 -8.7464e-18 0)
)
;

boundaryField
{
    movingWall
    {
        type            calculated;
        value           uniform (-0.5 -0 -0);
    }
    fixedWalls
    {
        type            calculated;
        value           uniform (-0.5 -0 -0);
    }
    frontAndBack
    {
        type            empty;
    }
}


// ************************************************************************* //
