/*--------------------------------*- C++ -*----------------------------------*\
| =========                 |                                                 |
| \\      /  F ield         | OpenFOAM: The Open Source CFD Toolbox           |
|  \\    /   O peration     | Version:  2506                                  |
|   \\  /    A nd           | Website:  www.openfoam.com                      |
|    \\/     M anipulation  |                                                 |
\*---------------------------------------------------------------------------*/
FoamFile
{
    version     2.0;
    format      ascii;
    arch        "LSB;label=32;scalar=64";
    class       volScalarField;
    location    "9.5";
    object      norm_k_field;
}
// * * * * * * * * * * * * * * * * * * * * * * * * * * * * * * * * * * * * * //

dimensions      [0 0 0 0 0 0 0];

internalField   nonuniform List<scalar> 
400
(
1.68283e+09
4.17043e+08
4.8397e+08
4.17909e+08
3.9743e+08
3.64098e+08
3.41809e+08
3.23212e+08
3.11907e+08
3.08506e+08
3.09515e+08
3.00328e+08
2.85857e+08
2.73712e+08
2.73805e+08
2.8472e+08
2.85469e+08
2.78976e+08
2.8067e+08
2.79865e+08
5.25765e+08
2.14186e+09
4.60529e+08
4.4278e+08
3.82301e+08
3.6388e+08
3.47273e+08
3.30136e+08
3.19929e+08
3.07287e+08
3.12659e+08
3.07255e+08
2.92029e+08
2.74067e+08
2.79765e+08
2.83394e+08
2.83907e+08
2.81128e+08
2.82816e+08
2.82651e+08
5.29977e+08
4.09383e+08
4.43829e+08
4.16346e+08
3.94908e+08
3.67121e+08
3.44873e+08
3.275e+08
3.14966e+08
3.18501e+08
3.2508e+08
3.13005e+08
2.96058e+08
2.85688e+08
2.8708e+08
2.86388e+08
2.89058e+08
2.82686e+08
2.8464e+08
2.87548e+08
5.27763e+08
3.79197e+08
4.21229e+08
3.88016e+08
3.85064e+08
3.63035e+08
3.49899e+08
3.38969e+08
3.27333e+08
3.26571e+08
3.20149e+08
3.12373e+08
3.03149e+08
2.9352e+08
2.95623e+08
2.97337e+08
2.93125e+08
2.89278e+08
2.92557e+08
2.87801e+08
4.33417e+08
5.81316e+08
3.96907e+08
3.77904e+08
3.72506e+08
3.56067e+08
3.44514e+08
3.37224e+08
3.33776e+08
3.26184e+08
3.23313e+08
3.1612e+08
3.07629e+08
3.02637e+08
2.99611e+08
2.99864e+08
2.98868e+08
2.96908e+08
2.93799e+08
2.90562e+08
4.60738e+08
3.42326e+08
3.74241e+08
3.6012e+08
3.57968e+08
3.49984e+08
3.39174e+08
3.33384e+08
3.27153e+08
3.27152e+08
3.28725e+08
3.18419e+08
3.08088e+08
3.03236e+08
3.0162e+08
3.03089e+08
3.01978e+08
3.00819e+08
2.99314e+08
2.96807e+08
3.99244e+08
3.26434e+08
3.70476e+08
3.49032e+08
3.50462e+08
3.44314e+08
3.38676e+08
3.3535e+08
3.28599e+08
3.30198e+08
3.21698e+08
3.12453e+08
3.07529e+08
3.03245e+08
3.0128e+08
3.01402e+08
2.99034e+08
3.00242e+08
3.00808e+08
2.99316e+08
3.41288e+08
6.36707e+08
3.49895e+08
3.51041e+08
3.37145e+08
3.38528e+08
3.31179e+08
3.26247e+08
3.27019e+08
3.26025e+08
3.1667e+08
3.06191e+08
2.99964e+08
3.01491e+08
3.01996e+08
3.02833e+08
2.96165e+08
2.9809e+08
3.02107e+08
2.99335e+08
3.72812e+08
2.5111e+08
3.45222e+08
3.25796e+08
3.35238e+08
3.27553e+08
3.16534e+08
3.17607e+08
3.21245e+08
3.17536e+08
3.10627e+08
3.07678e+08
3.0357e+08
2.95873e+08
2.95324e+08
2.9405e+08
2.89204e+08
2.95049e+08
3.02699e+08
2.95994e+08
3.26589e+08
4.0383e+08
3.2055e+08
3.29316e+08
3.2461e+08
3.19505e+08
3.0947e+08
3.13655e+08
3.17072e+08
3.07853e+08
2.97228e+08
3.02678e+08
3.04839e+08
2.94848e+08
2.9157e+08
2.90226e+08
2.88971e+08
2.94453e+08
2.99472e+08
2.93755e+08
3.1718e+08
3.66962e+08
3.16515e+08
3.21848e+08
3.15548e+08
3.12392e+08
3.07922e+08
3.08353e+08
3.06567e+08
3.07271e+08
3.0128e+08
3.01118e+08
3.00114e+08
2.90066e+08
2.88503e+08
2.88466e+08
2.88964e+08
2.88862e+08
2.95211e+08
2.85959e+08
3.26229e+08
2.26667e+08
3.11518e+08
3.00148e+08
3.03551e+08
3.066e+08
3.06703e+08
3.0664e+08
2.9983e+08
3.03565e+08
2.9488e+08
2.95015e+08
2.93323e+08
2.88028e+08
2.89377e+08
2.8563e+08
2.87241e+08
2.87162e+08
2.92727e+08
2.84163e+08
2.88655e+08
5.39365e+08
2.97156e+08
3.03302e+08
2.98223e+08
2.98911e+08
3.01857e+08
3.02744e+08
2.98229e+08
2.95974e+08
2.87333e+08
2.84566e+08
2.86089e+08
2.86821e+08
2.92907e+08
2.839e+08
2.84341e+08
2.87071e+08
2.85481e+08
2.88708e+08
3.06777e+08
2.27021e+08
2.9779e+08
2.90949e+08
2.95495e+08
2.92788e+08
2.97607e+08
3.0008e+08
2.93938e+08
2.90623e+08
2.89698e+08
2.84097e+08
2.8165e+08
2.84972e+08
2.86113e+08
2.82695e+08
2.84257e+08
2.8716e+08
2.84876e+08
2.81753e+08
2.8523e+08
3.1156e+08
2.9068e+08
2.91363e+08
2.87355e+08
2.87703e+08
2.95207e+08
2.94199e+08
2.91502e+08
2.863e+08
2.84157e+08
2.8234e+08
2.81746e+08
2.83835e+08
2.83501e+08
2.83325e+08
2.83151e+08
2.86691e+08
2.85439e+08
2.79101e+08
2.66826e+08
3.49041e+08
2.85483e+08
2.90668e+08
2.87043e+08
2.86546e+08
2.94701e+08
2.94926e+08
2.89443e+08
2.86291e+08
2.8446e+08
2.83498e+08
2.8284e+08
2.83792e+08
2.79905e+08
2.82688e+08
2.86434e+08
2.83686e+08
2.84335e+08
2.77319e+08
3.02852e+08
2.30011e+08
2.80225e+08
2.7335e+08
2.86601e+08
2.88672e+08
2.86948e+08
2.89796e+08
2.88044e+08
2.85896e+08
2.84244e+08
2.82425e+08
2.78674e+08
2.82362e+08
2.84732e+08
2.85252e+08
2.87718e+08
2.84458e+08
2.83733e+08
2.7561e+08
2.74374e+08
2.87376e+08
2.76147e+08
2.78337e+08
2.81742e+08
2.86039e+08
2.85197e+08
2.89047e+08
2.8824e+08
2.84912e+08
2.81928e+08
2.82487e+08
2.8297e+08
2.85097e+08
2.83477e+08
2.83815e+08
2.85501e+08
2.83758e+08
2.82994e+08
2.72795e+08
2.543e+08
3.51378e+08
2.7512e+08
2.80107e+08
2.72029e+08
2.80861e+08
2.89889e+08
2.9317e+08
2.90239e+08
2.83736e+08
2.78713e+08
2.80983e+08
2.84503e+08
2.88028e+08
2.83087e+08
2.81911e+08
2.83194e+08
2.82796e+08
2.80776e+08
2.73344e+08
3.03774e+08
2.43113e+08
2.72464e+08
2.69505e+08
2.75736e+08
2.78932e+08
2.87208e+08
2.92974e+08
2.90805e+08
2.81753e+08
2.77918e+08
2.80021e+08
2.8096e+08
2.85279e+08
2.7958e+08
2.77287e+08
2.84103e+08
2.84577e+08
2.7949e+08
2.73133e+08
)
;

boundaryField
{
    movingWall
    {
        type            calculated;
        value           nonuniform List<scalar> 
20
(
3.03774e+08
2.43113e+08
2.72464e+08
2.69505e+08
2.75736e+08
2.78932e+08
2.87208e+08
2.92974e+08
2.90805e+08
2.81753e+08
2.77918e+08
2.80021e+08
2.8096e+08
2.85279e+08
2.7958e+08
2.77287e+08
2.84103e+08
2.84577e+08
2.7949e+08
2.73133e+08
)
;
    }
    fixedWalls
    {
        type            calculated;
        value           nonuniform List<scalar> 
60
(
1.68283e+09
5.25765e+08
5.29977e+08
5.27763e+08
4.33417e+08
4.60738e+08
3.99244e+08
3.41288e+08
3.72812e+08
3.26589e+08
3.1718e+08
3.26229e+08
2.88655e+08
3.06777e+08
2.8523e+08
2.66826e+08
3.02852e+08
2.74374e+08
2.543e+08
3.03774e+08
2.79865e+08
2.82651e+08
2.87548e+08
2.87801e+08
2.90562e+08
2.96807e+08
2.99316e+08
2.99335e+08
2.95994e+08
2.93755e+08
2.85959e+08
2.84163e+08
2.88708e+08
2.81753e+08
2.79101e+08
2.77319e+08
2.7561e+08
2.72795e+08
2.73344e+08
2.73133e+08
1.68283e+09
4.17043e+08
4.8397e+08
4.17909e+08
3.9743e+08
3.64098e+08
3.41809e+08
3.23212e+08
3.11907e+08
3.08506e+08
3.09515e+08
3.00328e+08
2.85857e+08
2.73712e+08
2.73805e+08
2.8472e+08
2.85469e+08
2.78976e+08
2.8067e+08
2.79865e+08
)
;
    }
    frontAndBack
    {
        type            empty;
    }
}


// ************************************************************************* //
