/*--------------------------------*- C++ -*----------------------------------*\
| =========                 |                                                 |
| \\      /  F ield         | OpenFOAM: The Open Source CFD Toolbox           |
|  \\    /   O peration     | Version:  2506                                  |
|   \\  /    A nd           | Website:  www.openfoam.com                      |
|    \\/     M anipulation  |                                                 |
\*---------------------------------------------------------------------------*/
FoamFile
{
    version     2.0;
    format      ascii;
    arch        "LSB;label=32;scalar=64";
    class       volScalarField;
    location    "9.5";
    object      P_A;
}
// * * * * * * * * * * * * * * * * * * * * * * * * * * * * * * * * * * * * * //

dimensions      [1 -1 -3 0 0 0 0];

internalField   nonuniform List<scalar> 
400
(
1.03606e-33
1.03606e-33
1.03606e-33
1.03606e-33
1.03606e-33
1.03605e-33
1.03605e-33
1.03605e-33
1.03605e-33
1.03605e-33
1.03605e-33
1.03605e-33
1.03605e-33
1.03605e-33
1.03605e-33
1.03605e-33
1.03605e-33
1.03605e-33
1.03605e-33
1.03605e-33
1.0909e-33
1.08021e-33
1.08107e-33
1.08142e-33
1.08214e-33
1.08251e-33
1.08323e-33
1.08362e-33
1.08434e-33
1.08474e-33
1.08547e-33
1.08588e-33
1.08661e-33
1.08704e-33
1.08778e-33
1.08822e-33
1.08896e-33
1.08941e-33
1.08979e-33
1.09039e-33
1.18474e-33
1.1728e-33
1.17377e-33
1.17418e-33
1.17499e-33
1.17541e-33
1.17621e-33
1.17665e-33
1.17745e-33
1.17791e-33
1.17871e-33
1.17918e-33
1.17999e-33
1.18047e-33
1.18128e-33
1.18176e-33
1.18259e-33
1.18308e-33
1.18349e-33
1.18416e-33
1.29433e-33
1.28115e-33
1.28221e-33
1.28267e-33
1.28355e-33
1.28402e-33
1.28491e-33
1.28539e-33
1.28628e-33
1.28678e-33
1.28767e-33
1.28819e-33
1.28908e-33
1.2896e-33
1.2905e-33
1.29104e-33
1.29195e-33
1.29249e-33
1.29295e-33
1.29368e-33
1.39724e-33
1.38287e-33
1.38403e-33
1.38453e-33
1.3855e-33
1.386e-33
1.38698e-33
1.38749e-33
1.38847e-33
1.389e-33
1.38998e-33
1.39053e-33
1.39151e-33
1.39208e-33
1.39307e-33
1.39365e-33
1.39464e-33
1.39523e-33
1.39573e-33
1.39653e-33
1.48014e-33
1.46479e-33
1.46603e-33
1.46656e-33
1.46759e-33
1.46813e-33
1.46916e-33
1.46973e-33
1.47076e-33
1.47134e-33
1.47237e-33
1.47297e-33
1.47401e-33
1.47462e-33
1.47567e-33
1.47629e-33
1.47735e-33
1.47798e-33
1.47851e-33
1.47937e-33
1.54002e-33
1.52397e-33
1.52527e-33
1.52582e-33
1.5269e-33
1.52746e-33
1.52855e-33
1.52912e-33
1.53022e-33
1.53081e-33
1.5319e-33
1.53252e-33
1.53361e-33
1.53425e-33
1.53534e-33
1.53599e-33
1.5371e-33
1.53776e-33
1.53832e-33
1.53921e-33
1.58056e-33
1.56403e-33
1.56536e-33
1.56594e-33
1.56704e-33
1.56763e-33
1.56873e-33
1.56935e-33
1.57045e-33
1.57108e-33
1.57219e-33
1.57284e-33
1.57395e-33
1.57461e-33
1.57574e-33
1.57641e-33
1.57755e-33
1.57823e-33
1.5788e-33
1.57972e-33
1.60761e-33
1.59077e-33
1.59212e-33
1.5927e-33
1.59383e-33
1.59443e-33
1.59556e-33
1.59617e-33
1.59731e-33
1.59794e-33
1.59908e-33
1.59974e-33
1.60087e-33
1.60155e-33
1.60269e-33
1.60338e-33
1.60454e-33
1.60523e-33
1.60582e-33
1.60676e-33
1.6265e-33
1.60943e-33
1.61081e-33
1.6114e-33
1.61254e-33
1.61314e-33
1.61429e-33
1.61491e-33
1.61606e-33
1.61671e-33
1.61786e-33
1.61852e-33
1.61968e-33
1.62036e-33
1.62152e-33
1.62221e-33
1.62339e-33
1.62409e-33
1.62469e-33
1.62563e-33
1.64111e-33
1.62387e-33
1.62526e-33
1.62585e-33
1.62701e-33
1.62762e-33
1.62878e-33
1.62941e-33
1.63057e-33
1.63122e-33
1.63238e-33
1.63305e-33
1.63422e-33
1.63491e-33
1.63608e-33
1.63678e-33
1.63797e-33
1.63868e-33
1.63928e-33
1.64024e-33
1.65395e-33
1.63655e-33
1.63795e-33
1.63855e-33
1.63972e-33
1.64033e-33
1.6415e-33
1.64214e-33
1.64331e-33
1.64396e-33
1.64514e-33
1.64581e-33
1.64699e-33
1.64768e-33
1.64887e-33
1.64957e-33
1.65078e-33
1.65149e-33
1.65209e-33
1.65306e-33
1.66651e-33
1.64896e-33
1.65038e-33
1.65098e-33
1.65216e-33
1.65277e-33
1.65396e-33
1.65459e-33
1.65578e-33
1.65644e-33
1.65762e-33
1.6583e-33
1.65949e-33
1.66019e-33
1.66138e-33
1.6621e-33
1.66331e-33
1.66403e-33
1.66464e-33
1.66561e-33
1.67963e-33
1.66193e-33
1.66336e-33
1.66396e-33
1.66515e-33
1.66577e-33
1.66697e-33
1.66761e-33
1.66881e-33
1.66946e-33
1.67067e-33
1.67135e-33
1.67256e-33
1.67326e-33
1.67447e-33
1.67518e-33
1.6764e-33
1.67713e-33
1.67774e-33
1.67873e-33
1.69365e-33
1.67578e-33
1.67722e-33
1.67784e-33
1.67903e-33
1.67967e-33
1.68086e-33
1.68152e-33
1.68272e-33
1.6834e-33
1.6846e-33
1.68529e-33
1.6865e-33
1.68721e-33
1.68843e-33
1.68916e-33
1.69039e-33
1.69112e-33
1.69174e-33
1.69274e-33
1.70839e-33
1.69035e-33
1.69182e-33
1.69242e-33
1.69364e-33
1.69427e-33
1.69549e-33
1.69614e-33
1.69737e-33
1.69804e-33
1.69926e-33
1.69996e-33
1.70118e-33
1.7019e-33
1.70313e-33
1.70386e-33
1.70511e-33
1.70584e-33
1.70647e-33
1.70748e-33
1.72315e-33
1.70493e-33
1.7064e-33
1.70702e-33
1.70825e-33
1.70888e-33
1.71012e-33
1.71077e-33
1.71201e-33
1.71268e-33
1.71393e-33
1.71462e-33
1.71586e-33
1.71659e-33
1.71783e-33
1.71856e-33
1.71983e-33
1.72057e-33
1.7212e-33
1.72222e-33
1.73659e-33
1.71821e-33
1.7197e-33
1.72032e-33
1.72156e-33
1.7222e-33
1.72344e-33
1.7241e-33
1.72535e-33
1.72603e-33
1.72728e-33
1.72798e-33
1.72924e-33
1.72996e-33
1.73122e-33
1.73196e-33
1.73324e-33
1.73398e-33
1.73463e-33
1.73565e-33
1.74698e-33
1.72883e-33
1.73027e-33
1.73088e-33
1.73209e-33
1.73271e-33
1.73393e-33
1.73458e-33
1.7358e-33
1.73648e-33
1.73771e-33
1.73841e-33
1.73964e-33
1.74038e-33
1.74162e-33
1.74237e-33
1.74363e-33
1.74439e-33
1.74503e-33
1.74606e-33
1.75179e-33
1.75179e-33
1.75179e-33
1.75179e-33
1.75178e-33
1.75179e-33
1.75178e-33
1.75179e-33
1.75178e-33
1.75179e-33
1.75178e-33
1.75178e-33
1.75178e-33
1.75178e-33
1.75178e-33
1.75178e-33
1.75178e-33
1.75178e-33
1.75178e-33
1.75178e-33
)
;

boundaryField
{
    movingWall
    {
        type            calculated;
        value           nonuniform List<scalar> 
20
(
1.75179e-33
1.75179e-33
1.75179e-33
1.75179e-33
1.75178e-33
1.75179e-33
1.75178e-33
1.75179e-33
1.75178e-33
1.75179e-33
1.75178e-33
1.75178e-33
1.75178e-33
1.75178e-33
1.75178e-33
1.75178e-33
1.75178e-33
1.75178e-33
1.75178e-33
1.75178e-33
)
;
    }
    fixedWalls
    {
        type            calculated;
        value           nonuniform List<scalar> 
60
(
1.03606e-33
1.0909e-33
1.18474e-33
1.29433e-33
1.39724e-33
1.48014e-33
1.54002e-33
1.58056e-33
1.60761e-33
1.6265e-33
1.64111e-33
1.65395e-33
1.66651e-33
1.67963e-33
1.69365e-33
1.70839e-33
1.72315e-33
1.73659e-33
1.74698e-33
1.75179e-33
1.03605e-33
1.09039e-33
1.18416e-33
1.29368e-33
1.39653e-33
1.47937e-33
1.53921e-33
1.57972e-33
1.60676e-33
1.62563e-33
1.64024e-33
1.65306e-33
1.66561e-33
1.67873e-33
1.69274e-33
1.70748e-33
1.72222e-33
1.73565e-33
1.74606e-33
1.75178e-33
1.03606e-33
1.03606e-33
1.03606e-33
1.03606e-33
1.03606e-33
1.03605e-33
1.03605e-33
1.03605e-33
1.03605e-33
1.03605e-33
1.03605e-33
1.03605e-33
1.03605e-33
1.03605e-33
1.03605e-33
1.03605e-33
1.03605e-33
1.03605e-33
1.03605e-33
1.03605e-33
)
;
    }
    frontAndBack
    {
        type            empty;
    }
}


// ************************************************************************* //
