/*--------------------------------*- C++ -*----------------------------------*\
| =========                 |                                                 |
| \\      /  F ield         | OpenFOAM: The Open Source CFD Toolbox           |
|  \\    /   O peration     | Version:  2506                                  |
|   \\  /    A nd           | Website:  www.openfoam.com                      |
|    \\/     M anipulation  |                                                 |
\*---------------------------------------------------------------------------*/
FoamFile
{
    version     2.0;
    format      ascii;
    arch        "LSB;label=32;scalar=64";
    class       surfaceScalarField;
    location    "9.5";
    object      PecletNoField;
}
// * * * * * * * * * * * * * * * * * * * * * * * * * * * * * * * * * * * * * //

dimensions      [0 0 0 0 0 0 0];

oriented        oriented;

internalField   nonuniform List<scalar> 
760
(
457.968
4.6805e-12
457.968
7.30501e-12
457.968
2.1387e-12
457.968
3.10254e-13
457.968
6.53769e-14
457.968
3.07329e-14
457.968
5.54583e-14
457.968
2.77059e-14
457.968
1.51317e-14
457.968
2.80367e-14
457.968
4.77663e-15
457.968
4.26e-14
457.968
5.38873e-14
457.968
2.85077e-14
457.968
3.93187e-14
457.968
4.4191e-14
457.968
6.86558e-14
457.968
9.74516e-16
457.968
1.94785e-14
3.46249e-14
457.529
4.49995e-12
457.354
5.59922e-12
457.379
1.82527e-12
457.4
2.93303e-13
457.422
2.73365e-14
457.443
3.86727e-14
457.464
4.54024e-14
457.486
7.89094e-14
457.507
7.97111e-14
457.528
3.83204e-14
457.55
6.40958e-14
457.571
2.84412e-14
457.593
9.87641e-15
457.614
3.73104e-14
457.636
3.71027e-14
457.657
1.33714e-14
457.679
1.39352e-14
457.694
4.5865e-14
457.711
5.88331e-14
3.92189e-14
457.122
1.61673e-12
456.942
2.06564e-12
456.968
6.70755e-13
456.99
6.92164e-14
457.013
6.61316e-14
457.035
3.17573e-14
457.057
6.03134e-14
457.08
1.1096e-13
457.102
7.7485e-14
457.124
1.25236e-14
457.146
9.67716e-14
457.168
8.75215e-14
457.191
5.27162e-14
457.213
4.13915e-14
457.235
3.44527e-14
457.257
1.41062e-14
457.279
1.89429e-15
457.294
3.60332e-14
457.312
3.83251e-14
6.1874e-14
456.686
3.9283e-12
456.502
5.18698e-12
456.529
1.30407e-12
456.551
3.88744e-13
456.574
1.1437e-14
456.597
3.12027e-14
456.62
4.06017e-14
456.643
3.17443e-14
456.665
3.1455e-14
456.688
2.11283e-14
456.711
1.46992e-15
456.733
3.65481e-14
456.756
5.15532e-14
456.779
1.26402e-14
456.801
4.30195e-14
456.824
4.6362e-14
456.846
1.97118e-14
456.862
9.77414e-15
456.88
5.06277e-14
2.83503e-14
456.305
3.35064e-12
456.118
4.38772e-12
456.145
1.36971e-12
456.168
1.73713e-13
456.192
1.57154e-13
456.215
2.7344e-14
456.238
2.36733e-14
456.261
5.95039e-15
456.284
3.54179e-14
456.307
6.52573e-15
456.331
9.55731e-15
456.354
3.76727e-15
456.377
3.15844e-14
456.4
5.01028e-14
456.423
3.62447e-14
456.446
1.40702e-14
456.468
7.82976e-15
456.484
2.42387e-14
456.503
3.03331e-14
2.6498e-14
456.016
1.15817e-12
455.827
1.91279e-12
455.854
4.80603e-13
455.877
1.09001e-13
455.901
5.67532e-14
455.925
2.07372e-14
455.948
3.90072e-14
455.972
7.65239e-14
455.995
7.84715e-14
456.018
2.88829e-14
456.042
1.05621e-13
456.065
1.33951e-13
456.089
6.32293e-14
456.112
1.18638e-14
456.135
2.23722e-14
456.158
1.06611e-14
456.182
8.48502e-15
456.198
2.82433e-16
456.217
1.70049e-14
3.12474e-15
455.816
8.47527e-13
455.625
2.2167e-12
455.652
9.3757e-13
455.676
7.34569e-14
455.7
4.51336e-14
455.724
9.45491e-15
455.747
2.64937e-14
455.771
1.3426e-14
455.795
6.12332e-14
455.818
6.12018e-16
455.842
5.67992e-14
455.866
8.84814e-14
455.889
9.08229e-14
455.913
3.8215e-14
455.936
2.19361e-14
455.96
4.60503e-14
455.983
5.2999e-14
455.999
4.02901e-14
456.018
4.34888e-15
1.94838e-14
455.685
2.59397e-12
455.492
3.79425e-12
455.52
1.42783e-12
455.543
2.07656e-13
455.568
5.2757e-14
455.591
5.55237e-14
455.615
1.33286e-13
455.639
4.33594e-14
455.663
1.20327e-14
455.687
4.6278e-14
455.711
3.51466e-14
455.734
3.79674e-14
455.758
5.83242e-14
455.782
1.97491e-14
455.805
7.34144e-14
455.829
7.09795e-14
455.853
3.98188e-14
455.869
1.54989e-14
455.888
4.60097e-14
2.92173e-14
455.598
1.45629e-12
455.405
2.7091e-12
455.433
1.00487e-12
455.457
8.70904e-14
455.481
2.45208e-14
455.505
5.10658e-14
455.529
5.94481e-14
455.553
2.06381e-14
455.577
2.79643e-15
455.601
4.16246e-14
455.625
7.73911e-14
455.648
1.0235e-14
455.672
4.5655e-14
455.696
1.72524e-14
455.72
7.13567e-15
455.743
1.40154e-14
455.767
3.5171e-14
455.783
1.69722e-14
455.803
1.96494e-14
1.3735e-14
455.539
1.09104e-12
455.345
8.1639e-13
455.373
1.58223e-13
455.397
4.09876e-14
455.421
7.1292e-15
455.445
3.88784e-14
455.469
9.31075e-14
455.493
3.44009e-14
455.517
6.98164e-14
455.541
2.77579e-15
455.565
8.31795e-14
455.589
4.40195e-14
455.613
3.27136e-14
455.637
2.70013e-15
455.661
1.01936e-14
455.684
2.38345e-14
455.708
1.07027e-15
455.724
6.80622e-14
455.744
7.12999e-14
8.10668e-14
455.494
7.69262e-13
455.299
1.11384e-12
455.327
7.34063e-13
455.351
3.63873e-14
455.375
8.5495e-14
455.399
1.81576e-14
455.424
7.26507e-14
455.448
3.5425e-14
455.472
3.47879e-14
455.496
2.16305e-14
455.52
1.71796e-14
455.544
1.03654e-14
455.568
3.09521e-14
455.591
7.58391e-14
455.615
8.09626e-14
455.639
3.77516e-14
455.663
4.07167e-16
455.679
3.99466e-14
455.699
3.58949e-14
1.6521e-14
455.454
1.50766e-12
455.259
2.7351e-12
455.287
1.17407e-12
455.311
2.04622e-13
455.336
3.67624e-14
455.36
2.39672e-14
455.384
1.19106e-14
455.408
2.82529e-14
455.432
9.67581e-15
455.456
6.05599e-14
455.48
5.93206e-14
455.504
3.69653e-14
455.528
2.76755e-14
455.552
4.82755e-14
455.576
1.06352e-13
455.6
5.09115e-14
455.624
4.70874e-15
455.64
2.81278e-15
455.659
3.20127e-14
5.3157e-14
455.415
1.90144e-12
455.22
3.06958e-12
455.248
1.37675e-12
455.272
1.66201e-13
455.297
8.82617e-14
455.321
1.70406e-14
455.345
2.43515e-14
455.369
5.37666e-14
455.394
3.33322e-14
455.418
1.00282e-14
455.442
7.33705e-14
455.466
5.95252e-14
455.49
4.98634e-15
455.514
3.70848e-15
455.538
3.72999e-14
455.562
3.53706e-14
455.585
4.79834e-14
455.602
3.07889e-14
455.621
4.21992e-14
7.77855e-14
455.375
8.61074e-13
455.18
1.66964e-12
455.208
7.10937e-13
455.232
1.29198e-13
455.257
2.96903e-14
455.281
5.02e-14
455.305
1.79461e-14
455.329
1.95022e-14
455.354
2.47318e-15
455.378
4.60359e-15
455.402
7.73658e-15
455.426
2.7301e-14
455.45
3.1558e-14
455.474
1.41323e-15
455.498
2.16151e-14
455.522
4.34237e-15
455.546
1.65027e-14
455.562
2.21198e-14
455.582
2.27529e-15
3.36481e-14
455.333
2.60863e-12
455.137
3.53311e-12
455.165
8.23416e-13
455.19
2.09874e-13
455.214
1.68839e-14
455.238
4.2528e-14
455.263
1.65335e-14
455.287
2.47706e-14
455.311
3.1381e-15
455.335
3.68873e-15
455.359
8.0001e-15
455.384
3.11584e-14
455.408
3.44152e-14
455.432
6.13918e-15
455.456
2.84787e-14
455.48
3.5714e-16
455.504
7.75102e-14
455.52
3.16193e-14
455.54
1.78054e-14
2.332e-14
455.289
4.67638e-12
455.093
6.26695e-12
455.121
1.88744e-12
455.145
1.85557e-13
455.17
9.52407e-14
455.194
2.384e-14
455.218
1.29393e-13
455.242
7.6644e-14
455.267
3.99734e-14
455.291
1.60054e-14
455.315
9.93866e-15
455.339
2.11211e-15
455.364
9.64279e-15
455.388
3.62605e-14
455.412
9.07208e-14
455.436
4.33155e-14
455.46
1.60996e-14
455.476
2.21882e-15
455.496
9.48306e-15
7.96737e-15
455.245
3.13798e-12
455.048
4.30798e-12
455.077
1.1658e-12
455.101
2.10881e-13
455.126
2.89408e-14
455.15
1.74763e-14
455.174
1.7058e-14
455.199
8.33357e-15
455.223
1.31775e-14
455.247
1.24764e-14
455.271
5.43499e-15
455.296
2.78066e-15
455.32
7.81255e-14
455.344
5.61554e-14
455.368
9.24091e-15
455.392
6.13181e-14
455.416
6.95801e-14
455.433
1.99386e-14
455.452
6.57545e-15
4.54793e-14
455.205
3.01716e-12
455.009
3.82398e-12
455.037
1.01293e-12
455.061
2.16602e-13
455.086
8.56064e-15
455.11
1.73085e-14
455.135
6.44498e-14
455.159
2.81985e-14
455.183
1.82926e-14
455.207
1.53661e-14
455.232
5.52675e-14
455.256
6.52254e-14
455.28
4.28774e-14
455.305
1.08589e-14
455.329
3.22293e-14
455.353
2.84738e-14
455.377
5.94699e-15
455.394
1.90316e-14
455.413
4.97334e-14
4.37198e-15
455.179
4.4034e-12
454.985
6.23914e-12
455.013
1.77645e-12
455.036
3.15341e-13
455.06
1.79278e-15
455.084
1.67126e-14
455.108
3.76332e-14
455.131
4.26499e-14
455.155
1.78925e-14
455.179
2.44064e-14
455.203
3.43963e-14
455.227
8.89154e-14
455.251
1.13184e-13
455.275
9.22184e-14
455.299
1.00502e-13
455.323
4.14913e-14
455.347
5.29102e-14
455.363
2.22627e-15
455.383
3.52813e-14
2.27453e-14
455.378
455.378
455.378
455.378
455.378
455.378
455.378
455.378
455.378
455.378
455.378
455.378
455.378
455.378
455.378
455.378
455.378
455.378
455.378
)
;

boundaryField
{
    movingWall
    {
        type            calculated;
        value           uniform 0;
    }
    fixedWalls
    {
        type            calculated;
        value           nonuniform List<scalar> 
60
(
250
250
250
250
250
250
250
250
250
250
250
250
250
250
250
250
250
250
250
250
250
250
250
250
250
250
250
250
250
250
250
250
250
250
250
250
250
250
250
250
0
0
0
0
0
0
0
0
0
0
0
0
0
0
0
0
0
0
0
0
)
;
    }
    frontAndBack
    {
        type            empty;
    }
}


// ************************************************************************* //
