/*--------------------------------*- C++ -*----------------------------------*\
| =========                 |                                                 |
| \\      /  F ield         | OpenFOAM: The Open Source CFD Toolbox           |
|  \\    /   O peration     | Version:  2506                                  |
|   \\  /    A nd           | Website:  www.openfoam.com                      |
|    \\/     M anipulation  |                                                 |
\*---------------------------------------------------------------------------*/
FoamFile
{
    version     2.0;
    format      ascii;
    arch        "LSB;label=32;scalar=64";
    class       surfaceScalarField;
    location    "9.5";
    object      phi;
}
// * * * * * * * * * * * * * * * * * * * * * * * * * * * * * * * * * * * * * //

dimensions      [0 3 -1 0 0 0 0];

oriented        oriented;

internalField   nonuniform List<scalar> 
760
(
-5e-05
5.11146e-19
-5e-05
-7.98096e-19
-5e-05
2.33651e-19
-5e-05
-3.38944e-20
-5e-05
7.14204e-21
-5e-05
3.35733e-21
-5e-05
6.0582e-21
-5e-05
3.02651e-21
-5e-05
1.65289e-21
-5e-05
-3.06251e-21
-5e-05
5.21746e-22
-5e-05
4.65307e-21
-5e-05
5.88576e-21
-5e-05
3.11366e-21
-5e-05
4.29433e-21
-5e-05
-4.8264e-21
-5e-05
-7.49813e-21
-5e-05
-1.06428e-22
-5e-05
2.12725e-21
3.7813e-21
-5e-05
-4.91776e-19
-5e-05
6.12432e-19
-5e-05
-1.99629e-19
-5e-05
3.20774e-20
-5e-05
2.98949e-21
-5e-05
4.22907e-21
-5e-05
-4.96469e-21
-5e-05
-8.62834e-21
-5e-05
-8.71547e-21
-5e-05
4.18974e-21
-5e-05
7.00745e-21
-5e-05
3.10931e-21
-5e-05
-1.07966e-21
-5e-05
4.07853e-21
-5e-05
4.05559e-21
-5e-05
-1.46154e-21
-5e-05
-1.52306e-21
-5e-05
-5.0127e-21
-5e-05
-6.42983e-21
-4.28601e-21
-5e-05
-1.76844e-19
-5e-05
2.26147e-19
-5e-05
-7.34284e-20
-5e-05
-7.57696e-21
-5e-05
-7.2388e-21
-5e-05
3.47605e-21
-5e-05
6.60129e-21
-5e-05
1.21441e-20
-5e-05
8.47988e-21
-5e-05
1.37053e-21
-5e-05
-1.05895e-20
-5e-05
-9.57698e-21
-5e-05
-5.76808e-21
-5e-05
-4.5288e-21
-5e-05
-3.76936e-21
-5e-05
1.54326e-21
-5e-05
2.07228e-22
-5e-05
-3.94176e-21
-5e-05
-4.19234e-21
-6.76799e-21
-5e-05
4.30074e-19
-5e-05
-5.68384e-19
-5e-05
1.42887e-19
-5e-05
-4.25933e-20
-5e-05
1.25303e-21
-5e-05
-3.41842e-21
-5e-05
4.44784e-21
-5e-05
3.47741e-21
-5e-05
3.44548e-21
-5e-05
-2.31424e-21
-5e-05
-1.60994e-22
-5e-05
-4.00282e-21
-5e-05
-5.64585e-21
-5e-05
-1.38424e-21
-5e-05
-4.71081e-21
-5e-05
-5.07664e-21
-5e-05
-2.15831e-21
-5e-05
1.07016e-21
-5e-05
-5.54301e-21
-3.10381e-21
-5e-05
-3.67098e-19
-5e-05
4.81159e-19
-5e-05
-1.5019e-19
-5e-05
1.90472e-20
-5e-05
-1.72304e-20
-5e-05
-2.99788e-21
-5e-05
-2.59527e-21
-5e-05
-6.5231e-22
-5e-05
-3.88242e-21
-5e-05
-7.15308e-22
-5e-05
1.04754e-21
-5e-05
-4.12902e-22
-5e-05
-3.4615e-21
-5e-05
-5.49083e-21
-5e-05
-3.97184e-21
-5e-05
-1.54181e-21
-5e-05
8.57931e-22
-5e-05
2.65581e-21
-5e-05
3.32346e-21
2.90312e-21
-5e-05
1.26957e-19
-5e-05
-2.09871e-19
-5e-05
5.27271e-20
-5e-05
-1.19581e-20
-5e-05
6.22578e-21
-5e-05
2.27477e-21
-5e-05
4.27862e-21
-5e-05
8.39343e-21
-5e-05
8.60648e-21
-5e-05
3.16766e-21
-5e-05
-1.15829e-20
-5e-05
-1.46892e-20
-5e-05
-6.93333e-21
-5e-05
1.30086e-21
-5e-05
2.45295e-21
-5e-05
1.16887e-21
-5e-05
-9.30224e-22
-5e-05
-3.09624e-23
-5e-05
1.86414e-21
-3.42528e-22
-5e-05
9.29383e-20
-5e-05
-2.43305e-19
-5e-05
1.02899e-19
-5e-05
-8.06167e-21
-5e-05
4.95293e-21
-5e-05
1.03754e-21
-5e-05
2.90709e-21
-5e-05
1.47316e-21
-5e-05
6.71829e-21
-5e-05
6.71459e-23
-5e-05
-6.23115e-21
-5e-05
-9.70648e-21
-5e-05
-9.96269e-21
-5e-05
-4.19178e-21
-5e-05
2.406e-21
-5e-05
5.05071e-21
-5e-05
5.81245e-21
-5e-05
4.41848e-21
-5e-05
4.76912e-22
-2.13655e-21
-5e-05
-2.84517e-19
-5e-05
4.16558e-19
-5e-05
-1.56744e-19
-5e-05
2.27951e-20
-5e-05
-5.7909e-21
-5e-05
-6.09437e-21
-5e-05
-1.46287e-20
-5e-05
-4.7587e-21
-5e-05
-1.3205e-21
-5e-05
-5.07848e-21
-5e-05
-3.85668e-21
-5e-05
4.16605e-21
-5e-05
6.39932e-21
-5e-05
-2.16678e-21
-5e-05
-8.05417e-21
-5e-05
-7.78674e-21
-5e-05
-4.36801e-21
-5e-05
1.70011e-21
-5e-05
5.04677e-21
-3.20465e-21
-5e-05
1.59757e-19
-5e-05
-2.97471e-19
-5e-05
1.1033e-19
-5e-05
-9.56174e-21
-5e-05
2.69198e-21
-5e-05
-5.60597e-21
-5e-05
-6.52572e-21
-5e-05
-2.2654e-21
-5e-05
3.06937e-22
-5e-05
-4.56855e-21
-5e-05
-8.49358e-21
-5e-05
1.12323e-21
-5e-05
5.01005e-21
-5e-05
1.89316e-21
-5e-05
7.82967e-22
-5e-05
1.53779e-21
-5e-05
3.85877e-21
-5e-05
1.86202e-21
-5e-05
-2.15567e-21
-1.50674e-21
-5e-05
-1.19703e-19
-5e-05
8.96536e-20
-5e-05
-1.73741e-20
-5e-05
4.50059e-21
-5e-05
-7.82757e-22
-5e-05
4.26854e-21
-5e-05
1.02217e-20
-5e-05
3.77654e-21
-5e-05
-7.66394e-21
-5e-05
3.04695e-22
-5e-05
9.12989e-21
-5e-05
4.83145e-21
-5e-05
3.59031e-21
-5e-05
-2.96327e-22
-5e-05
1.11863e-21
-5e-05
2.61545e-21
-5e-05
-1.17437e-22
-5e-05
-7.46797e-21
-5e-05
-7.82296e-21
-8.89411e-21
-5e-05
-8.44066e-20
-5e-05
1.22331e-19
-5e-05
-8.06133e-20
-5e-05
-3.99584e-21
-5e-05
-9.38789e-21
-5e-05
1.99374e-21
-5e-05
7.97666e-21
-5e-05
3.88933e-21
-5e-05
-3.81912e-21
-5e-05
-2.37457e-21
-5e-05
-1.88583e-21
-5e-05
-1.13779e-21
-5e-05
3.39731e-21
-5e-05
8.32379e-21
-5e-05
8.88553e-21
-5e-05
4.14302e-21
-5e-05
-4.46813e-23
-5e-05
-4.38346e-21
-5e-05
-3.93872e-21
-1.81274e-21
-5e-05
1.65441e-19
-5e-05
-3.00416e-19
-5e-05
1.28946e-19
-5e-05
-2.24724e-20
-5e-05
4.03709e-21
-5e-05
-2.63188e-21
-5e-05
-1.30783e-21
-5e-05
-3.10217e-21
-5e-05
-1.06233e-21
-5e-05
-6.64877e-21
-5e-05
-6.51227e-21
-5e-05
-4.05793e-21
-5e-05
-3.03792e-21
-5e-05
5.29897e-21
-5e-05
1.1673e-20
-5e-05
5.58772e-21
-5e-05
-5.16767e-22
-5e-05
-3.08681e-22
-5e-05
-3.51303e-21
5.83307e-21
-5e-05
-2.08669e-19
-5e-05
3.37183e-19
-5e-05
-1.51218e-19
-5e-05
1.82544e-20
-5e-05
-9.69337e-21
-5e-05
-1.87143e-21
-5e-05
-2.67413e-21
-5e-05
-5.90409e-21
-5e-05
-3.65995e-21
-5e-05
-1.10108e-21
-5e-05
8.05538e-21
-5e-05
6.53505e-21
-5e-05
5.47394e-22
-5e-05
4.07097e-22
-5e-05
-4.09431e-21
-5e-05
-3.88239e-21
-5e-05
-5.26646e-21
-5e-05
-3.37913e-21
-5e-05
-4.63127e-21
-8.53635e-21
-5e-05
9.45052e-20
-5e-05
-1.83421e-19
-5e-05
7.80943e-20
-5e-05
-1.41915e-20
-5e-05
-3.26104e-21
-5e-05
-5.51353e-21
-5e-05
-1.97091e-21
-5e-05
-2.14173e-21
-5e-05
2.71585e-22
-5e-05
-5.0551e-22
-5e-05
-8.49479e-22
-5e-05
2.99755e-21
-5e-05
3.46472e-21
-5e-05
-1.5515e-22
-5e-05
-2.37285e-21
-5e-05
4.76674e-22
-5e-05
-1.81143e-21
-5e-05
-2.4279e-21
-5e-05
-2.49731e-22
-3.69294e-21
-5e-05
2.86331e-19
-5e-05
-3.88173e-19
-5e-05
9.04584e-20
-5e-05
-2.30554e-20
-5e-05
1.85462e-21
-5e-05
-4.67135e-21
-5e-05
-1.81595e-21
-5e-05
2.72056e-21
-5e-05
-3.44634e-22
-5e-05
-4.0509e-22
-5e-05
8.78497e-22
-5e-05
3.4214e-21
-5e-05
3.77876e-21
-5e-05
6.74051e-22
-5e-05
-3.12661e-21
-5e-05
3.92081e-23
-5e-05
8.50875e-21
-5e-05
3.4709e-21
-5e-05
-1.95447e-21
-2.55966e-21
-5e-05
-5.13343e-19
-5e-05
6.88599e-19
-5e-05
-2.0737e-19
-5e-05
2.0386e-20
-5e-05
-1.04628e-20
-5e-05
-2.61888e-21
-5e-05
-1.42132e-20
-5e-05
-8.41862e-21
-5e-05
-4.3904e-21
-5e-05
-1.75785e-21
-5e-05
-1.09148e-21
-5e-05
2.31946e-22
-5e-05
-1.05887e-21
-5e-05
3.98161e-21
-5e-05
9.96097e-21
-5e-05
4.75578e-21
-5e-05
1.76752e-21
-5e-05
2.43587e-22
-5e-05
-1.04104e-21
-8.746e-22
-5e-05
3.44498e-19
-5e-05
-4.73396e-19
-5e-05
1.28096e-19
-5e-05
-2.31705e-20
-5e-05
3.17962e-21
-5e-05
-1.91999e-21
-5e-05
1.87391e-21
-5e-05
-9.15449e-22
-5e-05
-1.44746e-21
-5e-05
-1.3704e-21
-5e-05
-5.96933e-22
-5e-05
3.05392e-22
-5e-05
8.57973e-21
-5e-05
6.16673e-21
-5e-05
-1.01473e-21
-5e-05
-6.73297e-21
-5e-05
-7.63965e-21
-5e-05
-2.1891e-21
-5e-05
-7.21909e-22
-4.99284e-21
-5e-05
3.3126e-19
-5e-05
-4.20238e-19
-5e-05
1.11307e-19
-5e-05
-2.38007e-20
-5e-05
9.40596e-22
-5e-05
1.90169e-21
-5e-05
7.08065e-21
-5e-05
3.09786e-21
-5e-05
2.00946e-21
-5e-05
-1.68792e-21
-5e-05
-6.07057e-21
-5e-05
-7.16407e-21
-5e-05
-4.70915e-21
-5e-05
-1.19257e-21
-5e-05
-3.53931e-21
-5e-05
-3.12677e-21
-5e-05
6.53009e-22
-5e-05
-2.08968e-21
-5e-05
-5.46057e-21
4.80004e-22
-5e-05
-4.83481e-19
-5e-05
6.85361e-19
-5e-05
-1.95133e-19
-5e-05
3.46377e-20
-5e-05
1.96915e-22
-5e-05
1.83565e-21
-5e-05
-4.13335e-21
-5e-05
-4.68426e-21
-5e-05
-1.96508e-21
-5e-05
-2.68042e-21
-5e-05
-3.77743e-21
-5e-05
-9.76459e-21
-5e-05
-1.24293e-20
-5e-05
-1.01268e-20
-5e-05
-1.10361e-20
-5e-05
-4.55604e-21
-5e-05
5.80974e-21
-5e-05
2.44448e-22
-5e-05
-3.87387e-21
-2.49736e-21
-5e-05
-5e-05
-5e-05
-5e-05
-5e-05
-5e-05
-5e-05
-5e-05
-5e-05
-5e-05
-5e-05
-5e-05
-5e-05
-5e-05
-5e-05
-5e-05
-5e-05
-5e-05
-5e-05
)
;

boundaryField
{
    movingWall
    {
        type            calculated;
        value           uniform 0;
    }
    fixedWalls
    {
        type            calculated;
        value           nonuniform List<scalar> 
60
(
5e-05
5e-05
5e-05
5e-05
5e-05
5e-05
5e-05
5e-05
5e-05
5e-05
5e-05
5e-05
5e-05
5e-05
5e-05
5e-05
5e-05
5e-05
5e-05
5e-05
-5e-05
-5e-05
-5e-05
-5e-05
-5e-05
-5e-05
-5e-05
-5e-05
-5e-05
-5e-05
-5e-05
-5e-05
-5e-05
-5e-05
-5e-05
-5e-05
-5e-05
-5e-05
-5e-05
-5e-05
0
0
0
0
0
0
0
0
0
0
0
0
0
0
0
0
0
0
0
0
)
;
    }
    frontAndBack
    {
        type            empty;
    }
}


// ************************************************************************* //
