/*--------------------------------*- C++ -*----------------------------------*\
| =========                 |                                                 |
| \\      /  F ield         | OpenFOAM: The Open Source CFD Toolbox           |
|  \\    /   O peration     | Version:  2506                                  |
|   \\  /    A nd           | Website:  www.openfoam.com                      |
|    \\/     M anipulation  |                                                 |
\*---------------------------------------------------------------------------*/
FoamFile
{
    version     2.0;
    format      ascii;
    arch        "LSB;label=32;scalar=64";
    class       volScalarField;
    location    "9.5";
    object      pNear;
}
// * * * * * * * * * * * * * * * * * * * * * * * * * * * * * * * * * * * * * //

dimensions      [0 2 -2 0 0 0 0];

internalField   nonuniform List<scalar> 
400
(
5.9427e-16
5.43311e-15
4.5435e-15
5.41979e-15
5.75059e-15
6.36857e-15
6.84907e-15
7.30069e-15
7.60153e-15
7.69636e-15
7.66803e-15
7.93316e-15
8.3854e-15
8.80183e-15
8.7985e-15
8.42288e-15
8.39815e-15
8.61688e-15
8.55884e-15
8.58635e-15
4.16902e-15
2.68847e-16
4.90112e-15
5.1376e-15
6.10848e-15
6.46826e-15
6.82534e-15
7.23147e-15
7.49401e-15
7.8434e-15
7.69138e-15
7.84421e-15
8.30528e-15
8.91512e-15
8.71312e-15
8.58872e-15
8.57137e-15
8.66597e-15
8.60826e-15
8.61386e-15
4.23477e-15
5.77681e-15
5.25071e-15
5.66328e-15
6.02488e-15
6.55655e-15
7.04391e-15
7.47058e-15
7.80754e-15
7.70976e-15
7.5334e-15
7.86257e-15
8.36983e-15
8.70989e-15
8.66278e-15
8.68612e-15
8.59661e-15
8.8129e-15
8.74553e-15
8.64696e-15
4.37424e-15
6.47982e-15
5.73329e-15
6.3096e-15
6.36552e-15
6.81241e-15
7.10559e-15
7.3669e-15
7.66422e-15
7.68441e-15
7.85851e-15
8.07902e-15
8.35516e-15
8.66206e-15
8.59327e-15
8.53794e-15
8.67496e-15
8.80362e-15
8.69374e-15
8.85394e-15
5.67043e-15
3.97334e-15
6.28384e-15
6.65007e-15
6.76079e-15
7.11903e-15
7.39121e-15
7.57252e-15
7.661e-15
7.86252e-15
7.94117e-15
8.14455e-15
8.39688e-15
8.55186e-15
8.64827e-15
8.64013e-15
8.67223e-15
8.73607e-15
8.83906e-15
8.94869e-15
5.36593e-15
7.56792e-15
6.83706e-15
7.14432e-15
7.19315e-15
7.38e-15
7.64696e-15
7.79709e-15
7.96451e-15
7.96451e-15
7.92151e-15
8.21024e-15
8.51899e-15
8.67129e-15
8.72305e-15
8.67589e-15
8.71146e-15
8.74889e-15
8.79789e-15
8.88065e-15
6.41964e-15
8.07456e-15
6.99558e-15
7.48675e-15
7.452e-15
7.60284e-15
7.74595e-15
7.83261e-15
8.01399e-15
7.97026e-15
8.20723e-15
8.47958e-15
8.6313e-15
8.76733e-15
8.83098e-15
8.82699e-15
8.90477e-15
8.86491e-15
8.84634e-15
8.8954e-15
7.73616e-15
3.68277e-15
7.52104e-15
7.49318e-15
7.84307e-15
7.8069e-15
8.0022e-15
8.13826e-15
8.11653e-15
8.14431e-15
8.41433e-15
8.73652e-15
8.93854e-15
8.88817e-15
8.87159e-15
8.84427e-15
9.06588e-15
9.00087e-15
8.86789e-15
8.95925e-15
7.03147e-15
1.0924e-14
7.67312e-15
8.1902e-15
7.93119e-15
8.14069e-15
8.45875e-15
8.42671e-15
8.31986e-15
8.42867e-15
8.63829e-15
8.73064e-15
8.86222e-15
9.11878e-15
9.13752e-15
9.1814e-15
9.35196e-15
9.1469e-15
8.89043e-15
9.11448e-15
8.19499e-15
6.43626e-15
8.36796e-15
8.11856e-15
8.25059e-15
8.39832e-15
8.70293e-15
8.57342e-15
8.47012e-15
8.75367e-15
9.10222e-15
8.92029e-15
8.84988e-15
9.18362e-15
9.29806e-15
9.34575e-15
9.39061e-15
9.19718e-15
9.02624e-15
9.22139e-15
8.48893e-15
7.20167e-15
8.50863e-15
8.35101e-15
8.53753e-15
8.63384e-15
8.77354e-15
8.75983e-15
8.81655e-15
8.79402e-15
8.98867e-15
8.99401e-15
9.02737e-15
9.3747e-15
9.43081e-15
9.43215e-15
9.41412e-15
9.41779e-15
9.19373e-15
9.52354e-15
8.24373e-15
1.2304e-14
8.67999e-15
9.04663e-15
8.9338e-15
8.83496e-15
8.83151e-15
8.83347e-15
9.0567e-15
8.9329e-15
9.22536e-15
9.22064e-15
9.27951e-15
9.46847e-15
9.4196e-15
9.55625e-15
9.49701e-15
9.49991e-15
9.30028e-15
9.61068e-15
9.46675e-15
4.60155e-15
9.16703e-15
8.96098e-15
9.13041e-15
9.10702e-15
9.00827e-15
8.97885e-15
9.12983e-15
9.20692e-15
9.51379e-15
9.61599e-15
9.55939e-15
9.53241e-15
9.31349e-15
9.64069e-15
9.62413e-15
9.52309e-15
9.58171e-15
9.4634e-15
8.86778e-15
1.23345e-14
9.16533e-15
9.40424e-15
9.24402e-15
9.33863e-15
9.1711e-15
9.08721e-15
9.29788e-15
9.41526e-15
9.44843e-15
9.65437e-15
9.74686e-15
9.62154e-15
9.57913e-15
9.70702e-15
9.64814e-15
9.5405e-15
9.62497e-15
9.74272e-15
9.63529e-15
8.7365e-15
9.43559e-15
9.41108e-15
9.55611e-15
9.54325e-15
9.2751e-15
9.31025e-15
9.4055e-15
9.59452e-15
9.6743e-15
9.74298e-15
9.76551e-15
9.68625e-15
9.6988e-15
9.7054e-15
9.71195e-15
9.57969e-15
9.62606e-15
9.86736e-15
1.03935e-14
7.7098e-15
9.64863e-15
9.45856e-15
9.59052e-15
9.60877e-15
9.3151e-15
9.30712e-15
9.50228e-15
9.61784e-15
9.68609e-15
9.7223e-15
9.74713e-15
9.71105e-15
9.85973e-15
9.75281e-15
9.61214e-15
9.71491e-15
9.69045e-15
9.96093e-15
9.05978e-15
1.22455e-14
9.87177e-15
1.01451e-14
9.62965e-15
9.5533e-15
9.61658e-15
9.51216e-15
9.57598e-15
9.65536e-15
9.7172e-15
9.78616e-15
9.93126e-15
9.78846e-15
9.69859e-15
9.67905e-15
9.58749e-15
9.70884e-15
9.73617e-15
1.00526e-14
1.01255e-14
9.62213e-15
1.00538e-14
9.96671e-15
9.83398e-15
9.67114e-15
9.70253e-15
9.55986e-15
9.58934e-15
9.71292e-15
9.82625e-15
9.80474e-15
9.78623e-15
9.70573e-15
9.76683e-15
9.75399e-15
9.69046e-15
9.75613e-15
9.78513e-15
1.01884e-14
1.10216e-14
7.7003e-15
1.01116e-14
9.91367e-15
1.02376e-14
9.88409e-15
9.54503e-15
9.42691e-15
9.53212e-15
9.77341e-15
9.96749e-15
9.87882e-15
9.74418e-15
9.61261e-15
9.79781e-15
9.84283e-15
9.79366e-15
9.80885e-15
9.8866e-15
1.01826e-14
9.07065e-15
1.15835e-14
1.02279e-14
1.03512e-14
1.00946e-14
9.96754e-15
9.65146e-15
9.44187e-15
9.51974e-15
9.8577e-15
1.00075e-14
9.92488e-15
9.88833e-15
9.7235e-15
9.9421e-15
1.00326e-14
9.76791e-15
9.74997e-15
9.94561e-15
1.02004e-14
)
;

boundaryField
{
    movingWall
    {
        type            zeroGradient;
    }
    fixedWalls
    {
        type            calculated;
        value           nonuniform List<scalar> 
60
(
1.13048e-15
3.64267e-15
4.24583e-15
4.54775e-15
5.43032e-15
5.56966e-15
6.45906e-15
7.43297e-15
7.3117e-15
8.06456e-15
8.40806e-15
8.46396e-15
9.19345e-15
9.07275e-15
9.63389e-15
1.00797e-14
9.41969e-15
1.01e-14
1.05945e-14
9.36329e-15
8.59048e-15
8.6147e-15
8.67304e-15
8.8371e-15
8.92427e-15
8.89307e-15
8.90277e-15
8.97295e-15
9.10724e-15
9.25068e-15
9.49129e-15
9.57552e-15
9.52739e-15
9.71952e-15
9.8627e-15
9.96064e-15
1.00592e-14
1.01671e-14
1.01861e-14
1.01977e-14
1.3201e-15
4.57384e-15
4.80838e-15
5.33796e-15
5.79366e-15
6.34795e-15
6.84474e-15
7.27808e-15
7.57063e-15
7.67788e-15
7.71205e-15
7.96123e-15
8.38003e-15
8.73886e-15
8.74265e-15
8.47551e-15
8.43467e-15
8.57536e-15
8.57167e-15
8.58222e-15
)
;
    }
    frontAndBack
    {
        type            empty;
    }
}


// ************************************************************************* //
