/*--------------------------------*- C++ -*----------------------------------*\
| =========                 |                                                 |
| \\      /  F ield         | OpenFOAM: The Open Source CFD Toolbox           |
|  \\    /   O peration     | Version:  2506                                  |
|   \\  /    A nd           | Website:  www.openfoam.com                      |
|    \\/     M anipulation  |                                                 |
\*---------------------------------------------------------------------------*/
FoamFile
{
    version     2.0;
    format      ascii;
    arch        "LSB;label=32;scalar=64";
    class       volScalarField;
    location    "9.5";
    object      QField;
}
// * * * * * * * * * * * * * * * * * * * * * * * * * * * * * * * * * * * * * //

dimensions      [0 0 -2 0 0 0 0];

internalField   nonuniform List<scalar> 
400
(
-4.46394e-23
-1.62156e-23
-5.54337e-25
-2.76501e-26
-5.35081e-27
-1.97637e-27
-4.04044e-28
0
0
0
0
6.22342e-28
-6.46494e-28
-5.70425e-28
-1.58563e-27
-1.36848e-27
-8.54965e-28
5.79004e-28
-3.00581e-28
-1.10877e-30
-7.97754e-23
-2.51513e-23
-1.66826e-24
-3.67687e-27
4.93571e-27
-4.75906e-28
-1.81207e-27
-7.57578e-28
1.38594e-27
1.58726e-27
7.6997e-28
-6.59217e-30
-5.96045e-28
5.84188e-29
6.80118e-28
5.61413e-28
3.01825e-28
0
-6.57889e-28
-5.64933e-28
-8.27819e-23
-2.83847e-23
-3.4221e-25
-1.24862e-25
9.1721e-27
-4.44396e-27
-1.01653e-27
-3.539e-27
-1.41749e-27
1.74957e-28
-1.7803e-27
-5.45428e-29
-4.16826e-28
-2.45183e-27
-1.15445e-27
1.59191e-28
1.86496e-27
1.15676e-27
-2.36742e-28
0
-6.97616e-23
-2.08703e-23
-9.7395e-25
-1.00228e-26
-5.29203e-27
0
-1.23888e-27
3.96099e-28
4.16947e-27
4.13737e-27
-3.58909e-28
-1.78875e-28
-1.729e-28
9.11483e-30
0
-1.23751e-27
-3.69969e-29
-5.52706e-28
4.53318e-28
-8.35308e-28
-5.47168e-23
-1.57504e-23
-8.76645e-25
-3.16336e-26
-5.49173e-27
-2.52178e-30
2.52192e-28
1.31559e-28
-6.5167e-29
7.79785e-28
-1.71326e-28
0
-5.07894e-29
1.97495e-28
1.61921e-28
0
7.28776e-28
1.31873e-28
-4.60057e-28
-3.18365e-28
-4.05611e-23
-1.3999e-23
-3.72753e-25
-5.18631e-26
-3.78771e-27
-4.17776e-28
-4.93298e-28
0
-1.21507e-27
9.76803e-30
-2.74913e-27
-1.57333e-27
0
-2.36979e-28
-5.22415e-28
0
-1.62015e-28
2.35553e-28
-9.11179e-29
0
-2.26253e-23
-1.30865e-23
5.2721e-25
-1.13058e-25
2.24435e-26
-3.90728e-27
1.17615e-27
-6.67745e-29
0
0
8.97679e-28
-2.8056e-28
3.66365e-27
3.33362e-27
2.26461e-28
-8.85991e-29
1.68993e-28
-6.8565e-29
0
0
-5.61589e-24
-5.09455e-24
-3.29595e-25
-6.80522e-27
2.19251e-27
-1.11719e-27
-2.36524e-27
1.25555e-27
-6.51502e-28
-1.10039e-27
-2.39087e-28
-3.57082e-27
-1.51719e-27
-1.07562e-28
-8.21186e-28
-1.84438e-27
7.01421e-28
0
0
0
-7.59998e-24
-6.23404e-24
-1.82391e-25
-5.44839e-27
8.31952e-27
5.85981e-28
-8.2861e-28
-2.33653e-28
-3.08521e-28
1.39678e-28
1.68558e-27
1.79813e-27
-2.01819e-28
1.80245e-27
9.28487e-29
-3.87153e-28
1.06608e-27
3.01118e-28
-4.56378e-28
1.00197e-28
-5.25468e-24
-6.9843e-24
7.94018e-25
-1.79116e-26
0
-9.70875e-28
-5.39997e-27
3.34172e-30
-5.54257e-28
0
-2.28377e-27
-5.40198e-28
-3.26598e-28
3.00148e-29
0
-3.66635e-28
1.04271e-27
-6.79654e-28
-1.14468e-27
-5.72633e-28
3.5876e-24
-1.68778e-24
5.08066e-25
9.35266e-26
-8.59324e-27
8.05714e-27
-3.208e-28
1.96294e-27
7.22334e-28
4.15045e-28
-4.22465e-28
4.8658e-28
2.3331e-28
-9.21435e-28
-2.66942e-29
7.81929e-28
9.36665e-28
2.80358e-28
-1.84416e-28
3.3692e-28
5.04496e-24
-1.1692e-24
7.68534e-26
1.56212e-26
1.13663e-26
-3.08144e-28
-2.13974e-28
-1.82182e-27
-1.68738e-27
-8.5266e-28
1.44681e-27
2.50819e-27
2.76596e-27
1.8155e-27
-6.43554e-28
-1.62211e-27
-8.97006e-28
-8.98789e-28
2.8407e-28
-1.20734e-28
8.92803e-24
1.77843e-25
-1.95973e-25
3.12898e-26
3.15501e-29
4.86545e-28
1.16261e-28
-2.55742e-28
-1.04657e-28
-1.15932e-28
-2.0245e-27
-6.58173e-28
-2.57786e-28
0
-3.80079e-27
8.01689e-28
-3.31749e-28
-2.74056e-28
0
-6.95417e-28
-1.11491e-23
-6.93382e-24
5.21504e-26
-9.47479e-27
1.81199e-26
-2.14124e-27
8.13542e-28
-2.42998e-28
-6.6869e-28
-4.81542e-28
-1.28919e-27
9.72371e-28
1.90859e-27
1.98948e-27
7.8443e-28
4.29753e-28
-7.61122e-28
2.35615e-28
-8.95739e-29
-3.56199e-28
-5.06852e-23
-1.9518e-23
5.32039e-25
-5.34543e-26
1.11216e-26
-2.26856e-27
8.44213e-28
0
0
1.50776e-28
-4.29452e-28
0
0
-3.81462e-28
2.55315e-28
1.75578e-27
-1.7696e-27
0
-2.97357e-28
2.72035e-28
-6.89758e-23
-2.22727e-23
-7.82144e-25
2.43954e-26
-5.04687e-27
7.851e-28
-1.35849e-27
1.57595e-27
5.24485e-29
1.02862e-28
3.14665e-28
2.03554e-28
2.83581e-28
5.61662e-28
-7.69342e-28
1.43152e-27
-1.52036e-27
0
0
0
-6.94787e-23
-2.04382e-23
-1.19828e-24
-4.09922e-26
-6.13049e-27
-3.8768e-29
-3.32969e-27
2.25723e-28
2.53706e-28
7.10631e-28
7.81678e-28
9.21637e-28
4.01102e-28
2.9339e-29
-6.92601e-28
1.74542e-28
-1.15124e-27
6.62785e-28
0
0
-7.0145e-23
-2.37315e-23
-2.46428e-25
-5.72221e-26
4.61961e-27
-1.43241e-27
-4.90949e-28
0
0
0
8.59503e-29
-7.90904e-28
-1.80864e-27
-7.94658e-28
1.18615e-27
-1.00535e-29
-8.00855e-28
0
-2.6448e-28
-1.03232e-28
-5.86031e-23
-1.7761e-23
-7.86988e-25
-4.60467e-26
6.1044e-27
-1.45538e-27
2.26349e-27
-9.2309e-28
5.15315e-29
1.8641e-27
2.34791e-27
1.08664e-27
-1.44881e-27
-1.16955e-27
5.12636e-29
7.14443e-28
-3.55703e-28
1.08014e-27
-4.70353e-29
-3.35422e-28
-2.70492e-23
-8.73128e-24
-4.45137e-25
-4.61008e-27
-2.24235e-27
1.50069e-29
-7.71046e-28
-2.94841e-28
1.20862e-28
-1.96156e-28
-3.43116e-28
-1.47201e-27
-2.26569e-27
-6.13482e-28
-8.3987e-28
-4.14956e-28
-8.88069e-28
1.40063e-28
4.77074e-28
4.86244e-29
)
;

boundaryField
{
    movingWall
    {
        type            calculated;
        value           nonuniform List<scalar> 
20
(
5.13169e-24
3.47877e-24
-1.20826e-24
1.09367e-25
-3.15479e-26
1.96699e-28
-5.68477e-27
4.8906e-29
6.34279e-28
-9.64146e-28
-3.37297e-27
-5.28912e-27
-4.15818e-27
-1.02143e-27
-1.51523e-27
-7.18292e-28
-1.6743e-27
1.77173e-28
7.68922e-28
4.10142e-28
)
;
    }
    fixedWalls
    {
        type            calculated;
        value           nonuniform List<scalar> 
60
(
-2.42611e-22
-4.55624e-22
-4.23498e-22
-3.66014e-22
-2.97801e-22
-2.23502e-22
-1.16954e-22
-6.23484e-23
-6.39471e-23
-2.79636e-23
1.568e-23
1.3799e-23
1.51158e-23
-7.83048e-23
-2.59453e-22
-3.70321e-22
-3.80134e-22
-3.58728e-22
-3.22456e-22
-1.47438e-22
-1.81662e-30
-9.25586e-28
0
-1.43734e-27
-5.03703e-28
0
0
0
-4.89428e-28
-7.60915e-28
-6.37216e-29
-5.37783e-28
-1.13937e-27
-9.49167e-28
7.5649e-28
0
0
-1.69136e-28
-1.9494e-28
-1.25405e-28
1.08665e-23
9.03268e-24
-2.35178e-24
1.27692e-25
-5.26006e-26
4.05212e-27
-2.18675e-27
2.61383e-27
1.44038e-27
1.50716e-28
-1.87889e-27
-1.01964e-27
-1.06067e-27
-2.44627e-28
-1.511e-27
-1.91711e-27
-2.03903e-27
-1.26e-27
0
2.72945e-28
)
;
    }
    frontAndBack
    {
        type            empty;
    }
}


// ************************************************************************* //
