/*--------------------------------*- C++ -*----------------------------------*\
| =========                 |                                                 |
| \\      /  F ield         | OpenFOAM: The Open Source CFD Toolbox           |
|  \\    /   O peration     | Version:  2506                                  |
|   \\  /    A nd           | Website:  www.openfoam.com                      |
|    \\/     M anipulation  |                                                 |
\*---------------------------------------------------------------------------*/
FoamFile
{
    version     2.0;
    format      ascii;
    arch        "LSB;label=32;scalar=64";
    class       surfaceScalarField;
    location    "9.5";
    object      surfaceDivU;
}
// * * * * * * * * * * * * * * * * * * * * * * * * * * * * * * * * * * * * * //

dimensions      [0 0 -1 0 0 0 0];

internalField   nonuniform List<scalar> 
760
(
7.54043e-12
-6.77626e-12
-8.93875e-13
7.34765e-13
1.45768e-13
-1.59418e-13
-4.94072e-14
9.53857e-14
2.43664e-14
-3.63974e-14
-1.25252e-14
-1.27505e-14
-7.95051e-15
2.20771e-15
-6.11195e-15
1.96932e-14
-5.55951e-15
4.19248e-15
5.21923e-15
-1.01267e-14
1.70052e-14
9.81848e-15
9.07115e-15
-2.38016e-15
-4.65687e-15
-2.53167e-15
-2.46698e-14
-2.48984e-14
-2.66452e-15
-1.52472e-14
3.81946e-14
3.02339e-14
6.88796e-15
2.60041e-14
-9.12151e-15
-2.12769e-14
-1.03426e-14
7.83646e-15
1.35525e-14
-1.35819e-11
-1.06387e-11
1.46922e-12
1.21242e-12
-2.098e-13
-3.00582e-13
1.08395e-13
1.28405e-13
-7.35143e-14
-1.95812e-14
1.98247e-15
-2.72117e-14
2.98514e-14
-8.37177e-15
2.99976e-14
-5.38488e-15
-3.74699e-16
-1.10677e-14
-5.52743e-15
-8.91773e-15
-9.56687e-15
4.6442e-14
-1.3983e-14
-1.29409e-14
-2.27732e-14
-1.48289e-14
-1.54759e-14
-2.73934e-15
1.76512e-14
1.50725e-14
1.80434e-14
-1.91621e-15
-2.16068e-15
1.96658e-14
-4.31889e-15
-1.73207e-14
3.17316e-14
3.90891e-15
1.35525e-14
4.15561e-12
1.21024e-11
-5.57389e-13
-1.23403e-12
3.76234e-14
2.19025e-13
4.28586e-16
-1.18619e-13
2.67214e-14
4.98028e-14
-3.75659e-14
-2.52945e-14
-4.3608e-14
-2.09017e-14
-4.64502e-14
-1.52578e-14
-1.96107e-14
-1.26571e-14
4.30517e-14
1.29889e-14
4.3068e-14
2.61715e-14
-1.37868e-14
6.6627e-15
5.20502e-15
-9.98185e-15
2.78091e-14
-2.30861e-15
-4.49482e-15
-2.14236e-15
-2.93852e-16
6.39636e-15
4.50575e-15
1.08363e-14
-9.0929e-15
-2.20574e-14
-1.42702e-14
2.04795e-14
-1.35525e-14
6.71276e-12
-3.07642e-12
-4.57617e-13
4.15849e-13
6.27818e-14
-6.30044e-14
-6.92453e-14
1.61362e-14
-2.21307e-15
1.36108e-14
-8.63032e-15
4.26973e-15
7.44848e-15
-1.99986e-14
1.85353e-14
-9.08285e-16
1.99426e-14
6.35272e-15
-3.89124e-15
-3.21507e-16
-1.02338e-14
-1.86749e-14
1.04676e-14
1.20005e-14
-1.74955e-14
-4.73126e-15
-3.22601e-14
5.63209e-16
8.74882e-15
-2.83475e-15
1.75265e-14
2.75283e-14
-1.57269e-14
-4.76648e-15
7.51504e-15
-9.56714e-15
2.11971e-14
1.17007e-14
-1.35525e-14
-9.37334e-12
-3.82181e-12
8.10462e-13
4.35949e-13
-1.0965e-13
-9.23079e-14
9.89923e-14
5.45779e-14
2.00936e-14
1.66894e-14
-7.09859e-15
-1.6227e-15
-2.83554e-14
-2.16771e-14
-1.30908e-14
-1.12221e-15
-1.39114e-14
-1.73418e-14
-1.51052e-14
-2.65591e-14
3.55935e-15
1.99221e-14
-3.19842e-15
2.28959e-14
1.33274e-14
-8.17168e-15
2.99885e-14
7.71565e-15
1.59447e-14
-1.49287e-15
5.23534e-15
1.38975e-14
1.39323e-15
7.86402e-16
-5.38147e-15
7.98421e-15
-2.3049e-14
-5.38672e-15
-1.35525e-14
5.98747e-12
9.31059e-12
-4.66821e-13
-1.44287e-12
7.19199e-14
2.85767e-13
-2.77251e-14
-1.12841e-13
-5.02697e-15
3.74008e-14
-1.62012e-14
-9.70401e-15
5.55612e-15
-3.26126e-14
-5.37316e-15
1.79236e-14
-2.99896e-14
-1.50709e-14
8.46809e-15
-1.08124e-14
3.92586e-14
2.11993e-14
1.79226e-14
-9.91509e-16
-1.37835e-14
1.38267e-14
-2.37657e-14
-5.7309e-15
-3.54012e-15
-8.12451e-15
9.44854e-15
9.66481e-15
7.37738e-15
-4.59382e-15
7.97896e-15
-4.54922e-15
4.10971e-15
6.9465e-15
0
1.88024e-12
-8.00954e-12
-6.90282e-13
1.21855e-12
1.01007e-13
-2.1855e-13
-4.77147e-14
7.8403e-14
3.27238e-14
-2.08169e-15
-2.61154e-14
1.84139e-14
-2.0245e-14
-2.25876e-14
8.22593e-15
-2.25475e-15
4.10628e-15
1.80595e-15
1.91879e-15
2.20703e-14
-1.90508e-14
4.26901e-15
-5.08743e-15
-4.19731e-14
2.18792e-14
3.64971e-15
9.91034e-15
1.61052e-15
5.08042e-15
1.76979e-14
-4.37755e-15
3.67654e-14
-1.65204e-14
-6.41614e-15
-5.58169e-15
7.35694e-17
2.83679e-15
8.42974e-15
0
-8.67123e-12
2.30393e-13
1.69028e-12
1.51527e-13
-2.41154e-13
-2.48805e-14
1.24036e-13
-7.15734e-15
-1.63915e-14
-1.12692e-14
2.19417e-14
1.85412e-14
-4.59735e-15
6.99263e-15
-8.67473e-15
-1.35532e-14
1.97699e-14
8.37522e-15
2.44205e-14
2.3383e-14
-1.86533e-14
1.06957e-14
-3.3236e-14
-1.61867e-14
-1.6619e-14
1.76803e-14
9.39804e-15
1.01708e-14
4.93829e-14
1.43016e-14
3.47268e-14
3.25662e-14
1.01779e-14
-1.05684e-14
1.4085e-14
-5.51345e-15
5.59295e-15
1.63198e-14
-2.71051e-14
9.05315e-12
5.55654e-12
-1.56364e-12
-9.93942e-13
2.09116e-13
1.70089e-13
-1.42463e-13
-1.01566e-13
2.36636e-14
5.51158e-15
3.59218e-15
2.10181e-14
-1.96323e-15
-2.24173e-14
3.49673e-15
-1.08826e-14
1.19883e-14
1.31605e-14
9.65822e-15
1.70618e-14
1.31622e-14
-1.6045e-14
3.47295e-14
-3.2e-15
4.44701e-14
1.92108e-14
1.50744e-14
4.80586e-14
-2.51503e-15
4.78303e-15
-1.27291e-14
4.79128e-15
-2.62597e-14
-1.36206e-14
-3.27869e-15
-1.34433e-14
-1.63783e-14
2.44483e-14
-2.71051e-14
-4.49056e-12
-8.06375e-12
7.39785e-13
1.72894e-12
-1.40593e-13
-3.63022e-13
4.64086e-14
1.47702e-13
2.86616e-15
-3.34936e-14
-4.99138e-15
2.70282e-14
-3.13367e-14
-9.87836e-15
-1.21886e-15
-1.4835e-14
1.8234e-14
-4.55837e-15
-8.64146e-15
2.05041e-14
-3.24073e-14
-7.14308e-15
-1.87187e-14
5.24001e-15
2.27993e-14
-1.50416e-15
3.77672e-14
1.55428e-14
1.20893e-14
8.91753e-15
3.89971e-15
1.42483e-14
-8.04242e-16
-4.87265e-16
1.42837e-14
-7.36828e-15
1.37215e-14
1.7559e-14
0
-1.84426e-12
6.85758e-12
6.26133e-13
-1.41008e-12
-7.47269e-14
2.70999e-13
6.77997e-14
-8.66555e-14
-9.3315e-15
6.50006e-15
2.21413e-14
-1.31634e-14
6.62337e-15
1.57443e-14
-1.81745e-14
1.33993e-14
-2.2882e-15
-2.79013e-14
2.20025e-14
2.31103e-14
3.05042e-14
7.85739e-15
2.24545e-14
2.61496e-14
-8.76071e-15
1.98852e-14
-1.33069e-14
-1.58211e-14
1.10765e-14
5.73055e-15
9.86133e-15
-9.09705e-15
-7.0513e-15
7.13957e-16
-4.09296e-15
-1.02379e-14
3.83747e-15
2.53338e-14
-1.35525e-14
7.29176e-12
-2.6834e-12
-1.76521e-12
4.36764e-13
2.5907e-13
-9.52747e-14
-1.47955e-13
2.82742e-14
2.66811e-15
-1.51538e-14
-1.95604e-14
-2.40604e-14
2.25203e-14
-7.07198e-15
3.67255e-15
2.56764e-14
-2.50277e-15
-2.22807e-14
8.96518e-15
2.66339e-14
3.50286e-15
-2.83221e-14
2.35804e-14
-1.20037e-14
1.28249e-14
1.05519e-14
3.21634e-15
-1.32532e-14
-1.4443e-14
4.33851e-14
-1.82444e-14
-3.68748e-14
-2.47263e-15
-1.20552e-14
1.91889e-14
3.95183e-15
7.94379e-15
1.4586e-14
1.35525e-14
-9.53839e-12
-2.95445e-12
2.1067e-12
8.00578e-13
-3.26071e-13
-1.59348e-13
1.61076e-13
3.21969e-14
-4.18823e-14
-1.17179e-14
-1.1572e-14
-1.08775e-14
-3.91588e-15
3.86553e-15
-2.76883e-16
1.43658e-14
6.85598e-15
-5.21158e-15
-1.06533e-14
1.14913e-14
-4.38286e-14
-1.84494e-15
-2.50321e-14
-1.15815e-14
-1.55261e-14
3.59583e-15
2.69156e-14
-1.51293e-14
2.09532e-14
3.16609e-14
-3.06856e-14
-3.47578e-14
-5.6307e-15
-1.27688e-14
-6.51042e-16
3.04174e-14
2.01947e-14
-1.18738e-14
-2.65057e-28
7.38452e-12
9.33769e-12
-1.46547e-12
-1.38335e-12
1.9892e-13
2.91126e-13
-1.40597e-13
-1.13493e-13
1.92868e-14
1.61309e-14
4.55997e-15
-5.15108e-15
2.21472e-14
2.33204e-15
9.43109e-15
9.71376e-15
-5.7626e-16
-2.45099e-15
2.02997e-14
-1.50232e-14
3.04022e-14
3.13668e-14
1.70465e-14
5.68499e-16
3.99264e-15
1.10171e-14
-1.0384e-14
-5.69229e-16
-2.40502e-14
5.74648e-15
-1.6841e-14
-8.23397e-15
2.32794e-14
-1.33144e-14
1.91946e-14
2.8645e-14
-3.20686e-14
-7.51336e-15
-1.35525e-14
5.69825e-13
-1.04354e-11
3.73251e-13
1.50388e-12
-2.12867e-14
-3.16346e-13
4.32341e-14
1.64706e-13
-8.30698e-15
-2.47196e-14
-7.37902e-15
-7.88961e-15
-1.01014e-14
2.55228e-14
-2.16832e-15
3.37424e-15
-1.6898e-14
6.30006e-15
-3.95613e-15
-1.87826e-14
1.53312e-15
1.10077e-14
-5.46086e-15
-7.03574e-15
6.45524e-15
1.15582e-14
1.55612e-14
1.28824e-14
2.15627e-14
-3.30941e-15
-4.70737e-15
-3.30174e-14
-7.94874e-15
1.76347e-15
1.93705e-15
5.99901e-15
1.10027e-14
-3.97984e-15
1.35525e-14
-9.50139e-12
1.38236e-12
8.14284e-13
-2.33049e-13
-1.30353e-13
4.13729e-15
9.67528e-14
3.04349e-14
-2.43022e-14
-5.24977e-15
2.50122e-14
2.73889e-15
3.89984e-14
8.50939e-15
1.18426e-14
1.38019e-14
4.41541e-15
3.69435e-15
-3.81877e-15
-6.86158e-15
2.43883e-15
-3.57304e-15
9.98336e-15
3.40975e-15
1.79854e-14
-2.5311e-14
-5.98821e-15
7.65766e-15
-5.78895e-14
-1.81938e-17
-2.65466e-14
-3.69675e-14
1.57112e-14
3.13324e-14
8.21157e-17
-1.39122e-15
-1.43001e-15
-4.72802e-15
0
1.06507e-11
1.11537e-11
-1.0432e-12
-1.13267e-12
1.64925e-13
2.19858e-13
-7.15677e-14
-6.522e-14
2.17913e-14
7.97488e-15
-1.37639e-14
1.74415e-14
-1.66871e-14
-3.00361e-14
5.65368e-15
1.15577e-14
-7.58264e-15
-2.40679e-15
-6.61584e-15
-6.87494e-15
-2.60212e-15
-1.17201e-14
-3.18846e-14
-5.24677e-16
-3.56387e-14
-2.67532e-14
1.36277e-14
4.55235e-15
2.09038e-14
5.81034e-15
2.09114e-14
-3.89443e-15
1.423e-14
1.83584e-14
-6.20135e-15
-6.59515e-15
-3.29801e-15
2.07771e-15
-1.35525e-14
-6.29634e-13
-1.17771e-11
1.30388e-13
1.26658e-12
-1.0287e-14
-2.61706e-13
1.43225e-14
1.14331e-13
3.62501e-15
-2.61723e-14
1.16931e-15
3.64647e-14
-1.79124e-15
-4.91042e-14
3.49728e-15
2.37451e-14
-1.69909e-15
1.31772e-14
-1.19792e-14
-7.3772e-15
-9.64268e-15
-1.93421e-14
4.60667e-15
-8.24074e-15
1.34379e-14
1.08598e-14
-3.26498e-15
2.00333e-14
-1.89878e-14
2.9689e-16
-6.4475e-15
2.05268e-15
-2.46675e-15
-4.13648e-15
1.68391e-15
-6.27552e-15
-8.17681e-15
1.00702e-14
-1.35525e-14
-9.88093e-12
-3.90313e-12
8.74487e-13
2.83465e-13
-1.37088e-13
-4.59463e-14
7.38357e-14
3.08309e-14
6.66735e-15
2.34724e-15
-1.38088e-14
3.14252e-14
-2.35678e-14
-4.5234e-14
3.3425e-14
8.11367e-15
7.49905e-15
-1.7937e-15
-1.474e-14
-4.25978e-15
-1.79401e-14
3.07228e-15
-1.98762e-15
6.09266e-15
1.74552e-14
5.47224e-15
2.35951e-14
1.1983e-14
2.13374e-14
1.16122e-14
4.3637e-15
-1.73798e-14
-7.94525e-15
8.19099e-15
2.11077e-15
1.09688e-14
4.69449e-15
3.17995e-14
-2.71051e-14
6.26127e-12
-6.36969e-13
1.21973e-13
-4.06576e-14
2.71051e-14
0
-1.35525e-14
-2.71051e-14
-1.35525e-14
1.35525e-14
2.71051e-14
1.35525e-14
0
0
-2.71051e-14
-1.35525e-14
2.71051e-14
4.06576e-14
-3.34477e-28
)
;

boundaryField
{
    movingWall
    {
        type            calculated;
        value           nonuniform List<scalar> 
20
(
1.41759e-11
-1.65341e-12
3.79471e-13
-1.35525e-13
5.42101e-14
0
0
-2.71051e-14
-2.71051e-14
0
2.71051e-14
2.71051e-14
0
0
0
-5.42101e-14
2.71051e-14
2.71051e-14
5.42101e-14
-5.42101e-14
)
;
    }
    fixedWalls
    {
        type            calculated;
        value           nonuniform List<scalar> 
60
(
1.73201e-11
-3.08727e-11
9.59519e-12
1.46096e-11
-2.07625e-11
1.31188e-11
5.50233e-12
-2.15214e-11
2.19822e-11
-1.08691e-11
-5.25838e-12
1.89735e-11
-2.43403e-11
1.84314e-11
2.43945e-13
-2.11148e-11
2.38796e-11
-1.57209e-12
-2.19822e-11
1.41759e-11
-2.71051e-14
5.42101e-14
-2.71051e-14
0
-2.71051e-14
0
0
0
-5.42101e-14
0
0
-2.71051e-14
5.42101e-14
-5.42101e-14
2.71051e-14
0
0
-2.71051e-14
0
-5.42101e-14
1.73201e-11
-2.23926e-12
4.51514e-13
-1.59977e-13
6.1163e-14
-1.24303e-14
-1.26202e-14
-3.28087e-15
-8.94304e-15
-2.17597e-15
1.26144e-14
2.13959e-14
-3.25365e-15
-6.06009e-15
-4.32794e-14
3.79504e-14
3.84388e-14
-2.46629e-14
6.41985e-15
-2.71051e-14
)
;
    }
    frontAndBack
    {
        type            empty;
    }
}


// ************************************************************************* //
