/*--------------------------------*- C++ -*----------------------------------*\
| =========                 |                                                 |
| \\      /  F ield         | OpenFOAM: The Open Source CFD Toolbox           |
|  \\    /   O peration     | Version:  2506                                  |
|   \\  /    A nd           | Website:  www.openfoam.com                      |
|    \\/     M anipulation  |                                                 |
\*---------------------------------------------------------------------------*/
FoamFile
{
    version     2.0;
    format      ascii;
    arch        "LSB;label=32;scalar=64";
    class       surfaceScalarField;
    location    "9.5";
    object      surfaceP;
}
// * * * * * * * * * * * * * * * * * * * * * * * * * * * * * * * * * * * * * //

dimensions      [0 2 -2 0 0 0 0];

internalField   nonuniform List<scalar> 
760
(
3.01369e-15
2.38164e-15
4.9883e-15
2.85098e-15
4.98164e-15
4.72231e-15
5.58519e-15
5.27869e-15
6.05958e-15
5.92953e-15
6.60882e-15
6.41841e-15
7.07488e-15
6.8372e-15
7.45111e-15
7.26608e-15
7.64895e-15
7.54777e-15
7.68219e-15
7.76988e-15
7.8006e-15
7.6797e-15
8.15928e-15
7.88869e-15
8.59361e-15
8.34534e-15
8.80016e-15
8.85848e-15
8.61069e-15
8.75581e-15
8.41052e-15
8.5058e-15
8.50751e-15
8.48476e-15
8.58786e-15
8.64142e-15
8.57259e-15
8.58355e-15
8.6001e-15
2.21893e-15
4.2019e-15
2.58498e-15
3.02283e-15
5.01936e-15
5.07591e-15
5.62304e-15
5.40044e-15
6.28837e-15
6.06668e-15
6.6468e-15
6.5124e-15
7.0284e-15
6.93462e-15
7.36274e-15
7.35103e-15
7.6687e-15
7.65078e-15
7.76739e-15
7.77658e-15
7.76779e-15
7.61239e-15
8.07475e-15
7.85339e-15
8.6102e-15
8.33755e-15
8.81412e-15
8.81251e-15
8.65092e-15
8.68795e-15
8.58005e-15
8.63742e-15
8.61867e-15
8.58399e-15
8.63711e-15
8.73944e-15
8.61106e-15
8.67689e-15
8.63041e-15
5.00579e-15
4.30451e-15
5.51376e-15
6.12832e-15
5.45699e-15
5.492e-15
5.84408e-15
5.98644e-15
6.29072e-15
6.1952e-15
6.80023e-15
6.68448e-15
7.25725e-15
7.07475e-15
7.63906e-15
7.41874e-15
7.75865e-15
7.73588e-15
7.62158e-15
7.69709e-15
7.69799e-15
7.69596e-15
8.1162e-15
7.9708e-15
8.53986e-15
8.36249e-15
8.68633e-15
8.68597e-15
8.67445e-15
8.62802e-15
8.64136e-15
8.61203e-15
8.70476e-15
8.63578e-15
8.77922e-15
8.80826e-15
8.69625e-15
8.71964e-15
8.75045e-15
5.42703e-15
5.02233e-15
6.10656e-15
5.22658e-15
6.02145e-15
6.00857e-15
6.33756e-15
6.47984e-15
6.58896e-15
6.56316e-15
6.959e-15
6.96572e-15
7.23624e-15
7.2484e-15
7.51556e-15
7.46971e-15
7.67432e-15
7.66261e-15
7.77146e-15
7.77346e-15
7.96877e-15
7.89984e-15
8.21709e-15
8.11179e-15
8.50861e-15
8.37602e-15
8.62766e-15
8.60696e-15
8.5656e-15
8.62077e-15
8.60645e-15
8.58903e-15
8.73929e-15
8.67359e-15
8.74868e-15
8.76984e-15
8.77384e-15
8.7664e-15
8.90132e-15
4.82188e-15
5.51818e-15
5.12859e-15
5.77063e-15
6.46696e-15
6.56045e-15
6.70543e-15
6.89719e-15
6.93991e-15
6.97697e-15
7.25512e-15
7.24952e-15
7.48187e-15
7.51909e-15
7.61676e-15
7.6848e-15
7.76176e-15
7.81276e-15
7.90184e-15
7.91351e-15
8.04286e-15
7.93134e-15
8.27072e-15
8.1774e-15
8.47437e-15
8.45793e-15
8.60007e-15
8.61157e-15
8.6442e-15
8.68566e-15
8.65618e-15
8.65801e-15
8.70415e-15
8.69185e-15
8.78756e-15
8.74248e-15
8.89388e-15
8.81847e-15
8.91467e-15
6.46692e-15
5.89278e-15
7.20249e-15
7.82124e-15
6.99069e-15
6.91632e-15
7.16874e-15
7.31553e-15
7.28658e-15
7.32258e-15
7.51348e-15
7.49142e-15
7.72202e-15
7.69646e-15
7.8808e-15
7.81485e-15
7.96451e-15
7.98925e-15
7.94301e-15
7.96739e-15
8.06588e-15
8.06437e-15
8.36461e-15
8.34491e-15
8.59514e-15
8.57514e-15
8.69717e-15
8.71931e-15
8.69947e-15
8.77702e-15
8.69368e-15
8.75144e-15
8.73018e-15
8.80812e-15
8.77339e-15
8.8069e-15
8.83927e-15
8.82212e-15
8.88803e-15
7.2471e-15
7.0779e-15
7.53507e-15
5.87866e-15
7.24117e-15
7.25831e-15
7.46938e-15
7.48997e-15
7.52742e-15
7.64754e-15
7.67439e-15
7.70487e-15
7.78928e-15
7.87407e-15
7.9233e-15
7.98544e-15
7.99213e-15
8.06526e-15
8.08875e-15
8.05729e-15
8.34341e-15
8.31078e-15
8.55544e-15
8.60805e-15
8.69932e-15
8.78492e-15
8.79915e-15
8.82775e-15
8.82899e-15
8.85129e-15
8.86588e-15
8.83563e-15
8.88484e-15
8.98533e-15
8.85563e-15
8.93289e-15
8.87087e-15
8.85711e-15
8.92732e-15
5.70946e-15
7.38381e-15
5.6019e-15
7.30336e-15
7.50711e-15
7.59708e-15
7.66813e-15
7.84169e-15
7.82499e-15
7.88713e-15
7.90455e-15
7.97379e-15
8.07023e-15
8.23047e-15
8.1274e-15
8.28248e-15
8.13042e-15
8.2182e-15
8.27932e-15
8.28649e-15
8.57543e-15
8.52631e-15
8.83753e-15
8.73358e-15
8.91335e-15
8.90038e-15
8.87988e-15
9.00347e-15
8.85793e-15
9.00455e-15
8.95508e-15
9.01284e-15
9.03338e-15
9.20892e-15
8.93438e-15
9.07388e-15
8.91357e-15
8.87916e-15
9.03686e-15
8.97771e-15
7.61323e-15
9.29854e-15
8.68011e-15
7.93166e-15
8.02054e-15
8.06069e-15
8.15438e-15
8.03594e-15
8.09089e-15
8.29972e-15
8.2695e-15
8.44273e-15
8.58084e-15
8.37328e-15
8.50007e-15
8.37426e-15
8.39499e-15
8.53348e-15
8.59117e-15
8.68446e-15
8.87025e-15
8.79643e-15
8.82546e-15
8.9905e-15
8.85605e-15
9.12815e-15
9.1512e-15
9.15946e-15
9.21779e-15
9.26668e-15
9.26357e-15
9.24943e-15
9.37129e-15
9.01866e-15
9.17204e-15
9.00246e-15
8.95834e-15
9.16794e-15
7.31563e-15
8.34196e-15
7.40211e-15
6.81897e-15
8.24326e-15
8.4383e-15
8.18457e-15
8.23478e-15
8.32445e-15
8.39406e-15
8.55062e-15
8.51608e-15
8.63818e-15
8.73823e-15
8.52177e-15
8.66663e-15
8.6119e-15
8.64334e-15
8.92794e-15
8.77384e-15
9.01125e-15
9.04544e-15
8.88509e-15
8.95715e-15
9.01675e-15
8.93863e-15
9.24084e-15
9.27916e-15
9.3219e-15
9.36443e-15
9.36818e-15
9.38895e-15
9.2939e-15
9.40237e-15
9.11171e-15
9.30749e-15
9.12382e-15
9.10999e-15
9.37247e-15
7.8453e-15
8.36633e-15
7.85515e-15
9.75283e-15
8.42982e-15
8.59431e-15
8.44427e-15
8.69882e-15
8.58569e-15
8.73567e-15
8.70369e-15
8.7344e-15
8.76669e-15
8.80252e-15
8.78819e-15
8.79665e-15
8.80528e-15
8.93662e-15
8.89134e-15
8.86346e-15
8.99134e-15
9.10702e-15
9.01069e-15
9.10733e-15
9.20104e-15
9.15344e-15
9.40275e-15
9.42158e-15
9.43148e-15
9.4252e-15
9.42314e-15
9.4942e-15
9.41596e-15
9.45557e-15
9.30576e-15
9.45885e-15
9.35864e-15
9.24701e-15
9.56711e-15
1.02739e-14
8.85524e-15
1.0492e-14
8.45277e-15
8.86331e-15
8.92351e-15
8.99022e-15
9.0038e-15
8.88438e-15
9.03211e-15
8.83323e-15
8.97099e-15
8.83249e-15
8.91989e-15
8.94509e-15
8.90616e-15
8.9948e-15
9.09327e-15
9.07913e-15
9.06991e-15
9.223e-15
9.36958e-15
9.25007e-15
9.41832e-15
9.37399e-15
9.41945e-15
9.44403e-15
9.50044e-15
9.48792e-15
9.36654e-15
9.52663e-15
9.59847e-15
9.49846e-15
9.56057e-15
9.40009e-15
9.5115e-15
9.45548e-15
9.44099e-15
9.53704e-15
7.03415e-15
9.16726e-15
6.88429e-15
8.468e-15
9.064e-15
9.16618e-15
9.04569e-15
9.18261e-15
9.11872e-15
9.18722e-15
9.05765e-15
9.22283e-15
8.99356e-15
9.08968e-15
9.05434e-15
9.03303e-15
9.16838e-15
9.21386e-15
9.36036e-15
9.31109e-15
9.56489e-15
9.48111e-15
9.58769e-15
9.63518e-15
9.5459e-15
9.65312e-15
9.42295e-15
9.57698e-15
9.47709e-15
9.44631e-15
9.63241e-15
9.67386e-15
9.57361e-15
9.63613e-15
9.5524e-15
9.53179e-15
9.52255e-15
9.60334e-15
9.60306e-15
1.06011e-14
9.25153e-15
1.07499e-14
1.05355e-14
9.28478e-15
9.30046e-15
9.32413e-15
9.40766e-15
9.29132e-15
9.40006e-15
9.25486e-15
9.44094e-15
9.12915e-15
9.2231e-15
9.19254e-15
9.19873e-15
9.35657e-15
9.35169e-15
9.43185e-15
9.50489e-15
9.5514e-15
9.56136e-15
9.70061e-15
9.69868e-15
9.6842e-15
9.75618e-15
9.60033e-15
9.6539e-15
9.64307e-15
9.63896e-15
9.67758e-15
9.70621e-15
9.59432e-15
9.68005e-15
9.58273e-15
9.56009e-15
9.68384e-15
9.62552e-15
9.80504e-15
9.1859e-15
1.00144e-14
9.08605e-15
8.22315e-15
9.42334e-15
9.54211e-15
9.48359e-15
9.43482e-15
9.54968e-15
9.57331e-15
9.40918e-15
9.57601e-15
9.29268e-15
9.2951e-15
9.35787e-15
9.30869e-15
9.50001e-15
9.45389e-15
9.63441e-15
9.60618e-15
9.70864e-15
9.68019e-15
9.75425e-15
9.73264e-15
9.72588e-15
9.75632e-15
9.69253e-15
9.69865e-15
9.7021e-15
9.77926e-15
9.70867e-15
9.72911e-15
9.64582e-15
9.66205e-15
9.60288e-15
9.6473e-15
9.74671e-15
9.65826e-15
9.91414e-15
9.05164e-15
9.72663e-15
8.67921e-15
9.97765e-15
9.5536e-15
9.7602e-15
9.52454e-15
9.80184e-15
9.59965e-15
9.61008e-15
9.46194e-15
9.58104e-15
9.31111e-15
9.46584e-15
9.4047e-15
9.40964e-15
9.56006e-15
9.53913e-15
9.65197e-15
9.6366e-15
9.7042e-15
9.70165e-15
9.73471e-15
9.75423e-15
9.72909e-15
9.8392e-15
9.78539e-15
9.74976e-15
9.80627e-15
9.77916e-15
9.68248e-15
9.71593e-15
9.66353e-15
9.59982e-15
9.70268e-15
9.71188e-15
9.82569e-15
9.71331e-15
1.00068e-14
1.06526e-14
9.59262e-15
1.10586e-14
1.09338e-14
1.00084e-14
9.96277e-15
9.88738e-15
1.00559e-14
9.59147e-15
9.73181e-15
9.58494e-15
9.61222e-15
9.56437e-15
9.65956e-15
9.54407e-15
9.53601e-15
9.61567e-15
9.58266e-15
9.68628e-15
9.68414e-15
9.75168e-15
9.77172e-15
9.85871e-15
9.79545e-15
9.85986e-15
9.85874e-15
9.74353e-15
9.7471e-15
9.68882e-15
9.73271e-15
9.63327e-15
9.71652e-15
9.64817e-15
9.63898e-15
9.72251e-15
9.73248e-15
9.89439e-15
9.76065e-15
1.01205e-14
9.8738e-15
1.05735e-14
9.83795e-15
8.66121e-15
1.00102e-14
1.00827e-14
9.90034e-15
9.94019e-15
9.75256e-15
1.00358e-14
9.68683e-15
9.77761e-15
9.63119e-15
9.62378e-15
9.5746e-15
9.49338e-15
9.65113e-15
9.56073e-15
9.76958e-15
9.74316e-15
9.81549e-15
9.89687e-15
9.79548e-15
9.84178e-15
9.74598e-15
9.7652e-15
9.73628e-15
9.65917e-15
9.76041e-15
9.78232e-15
9.72222e-15
9.79841e-15
9.72329e-15
9.74206e-15
9.77063e-15
9.78249e-15
9.98674e-15
9.83586e-15
1.01855e-14
9.36095e-15
1.00461e-14
8.90594e-15
9.64187e-15
1.00126e-14
1.01697e-14
1.00756e-14
1.01324e-14
1.00608e-14
1.01661e-14
9.71456e-15
9.92581e-15
9.48597e-15
9.59825e-15
9.47951e-15
9.43439e-15
9.65276e-15
9.52593e-15
9.87045e-15
9.81555e-15
9.92316e-15
9.9875e-15
9.8115e-15
9.90185e-15
9.6784e-15
9.81625e-15
9.70521e-15
9.66806e-15
9.82032e-15
9.86995e-15
9.81824e-15
9.9377e-15
9.80126e-15
9.78078e-15
9.84773e-15
9.77941e-15
1.00346e-14
9.9161e-15
1.01915e-14
1.0327e-14
1.09057e-14
1.02895e-14
1.02229e-14
1.00311e-14
9.8095e-15
9.54667e-15
9.4808e-15
9.68872e-15
9.93261e-15
9.9662e-15
9.9066e-15
9.80591e-15
9.8328e-15
9.98734e-15
9.90024e-15
9.75894e-15
9.84779e-15
1.0073e-14
)
;

boundaryField
{
    movingWall
    {
        type            calculated;
        value           nonuniform List<scalar> 
20
(
9.07065e-15
1.15835e-14
1.02279e-14
1.03512e-14
1.00946e-14
9.96754e-15
9.65146e-15
9.44187e-15
9.51974e-15
9.8577e-15
1.00075e-14
9.92488e-15
9.88833e-15
9.7235e-15
9.9421e-15
1.00326e-14
9.76791e-15
9.74997e-15
9.94561e-15
1.02004e-14
)
;
    }
    fixedWalls
    {
        type            calculated;
        value           nonuniform List<scalar> 
60
(
5.9427e-16
4.16902e-15
4.23477e-15
4.37424e-15
5.67043e-15
5.36593e-15
6.41964e-15
7.73616e-15
7.03147e-15
8.19499e-15
8.48893e-15
8.24373e-15
9.46675e-15
8.86778e-15
9.63529e-15
1.03935e-14
9.05978e-15
1.01255e-14
1.10216e-14
9.07065e-15
8.58635e-15
8.61386e-15
8.64696e-15
8.85394e-15
8.94869e-15
8.88065e-15
8.8954e-15
8.95925e-15
9.11448e-15
9.22139e-15
9.52354e-15
9.61068e-15
9.4634e-15
9.74272e-15
9.86736e-15
9.96093e-15
1.00526e-14
1.01884e-14
1.01826e-14
1.02004e-14
5.9427e-16
5.43311e-15
4.5435e-15
5.41979e-15
5.75059e-15
6.36857e-15
6.84907e-15
7.30069e-15
7.60153e-15
7.69636e-15
7.66803e-15
7.93316e-15
8.3854e-15
8.80183e-15
8.7985e-15
8.42288e-15
8.39815e-15
8.61688e-15
8.55884e-15
8.58635e-15
)
;
    }
    frontAndBack
    {
        type            empty;
    }
}


// ************************************************************************* //
