/*--------------------------------*- C++ -*----------------------------------*\
| =========                 |                                                 |
| \\      /  F ield         | OpenFOAM: The Open Source CFD Toolbox           |
|  \\    /   O peration     | Version:  2506                                  |
|   \\  /    A nd           | Website:  www.openfoam.com                      |
|    \\/     M anipulation  |                                                 |
\*---------------------------------------------------------------------------*/
FoamFile
{
    version     2.0;
    format      ascii;
    arch        "LSB;label=32;scalar=64";
    class       surfaceVectorField;
    location    "9.5";
    object      surfaceU;
}
// * * * * * * * * * * * * * * * * * * * * * * * * * * * * * * * * * * * * * //

dimensions      [0 1 -1 0 0 0 0];

internalField   nonuniform List<vector> 
760
(
(-1 6.76515e-14 0)
(-1 9.23829e-14 0)
(-1 -1.42328e-14 0)
(-1 -1.98699e-14 0)
(-1 3.47793e-15 0)
(-1 4.69702e-15 0)
(-1 -6.87194e-16 0)
(-1 -9.35412e-16 0)
(-1 2.99857e-16 0)
(-1 3.05815e-16 0)
(-1 1.54255e-16 0)
(-1 7.33737e-17 0)
(-1 1.53201e-16 0)
(-1 7.24245e-17 0)
(-1 5.51042e-17 0)
(-1 -1.64043e-17 0)
(-1 -2.59818e-17 0)
(-1 -4.47152e-17 0)
(-1 -3.44664e-17 0)
(-1 -1.08799e-17 0)
(-1 3.60484e-17 0)
(-1 6.30721e-17 0)
(-1 9.34493e-17 0)
(-1 1.0698e-16 0)
(-1 8.25171e-17 0)
(-1 1.19257e-16 0)
(-1 3.89544e-17 0)
(-1 1.05225e-16 0)
(-1 -2.21093e-17 0)
(-1 5.46533e-17 0)
(-1 -5.20568e-17 0)
(-1 -8.12986e-17 0)
(-1 1.36142e-17 0)
(-1 -7.88566e-17 0)
(-1 7.31234e-17 0)
(-1 1.2211e-17 0)
(-1 4.53997e-17 0)
(-1 3.20992e-17 0)
(-1 2.04533e-19 0)
(-1 4.86139e-15 0)
(-1 -7.37945e-14 0)
(-1 -9.40067e-16 0)
(-1 1.5969e-14 0)
(-1 2.83684e-16 0)
(-1 -3.98727e-15 0)
(-1 5.75964e-17 0)
(-1 8.05067e-16 0)
(-1 7.93319e-17 0)
(-1 -1.27688e-16 0)
(-1 -8.45725e-18 0)
(-1 7.0172e-17 0)
(-1 -9.71811e-17 0)
(-1 -5.03473e-17 0)
(-1 -1.16224e-16 0)
(-1 -5.77146e-17 0)
(-1 -2.96132e-17 0)
(-1 -4.88853e-17 0)
(-1 8.66587e-17 0)
(-1 4.51383e-17 0)
(-1 1.34003e-16 0)
(-1 3.51127e-17 0)
(-1 1.32787e-16 0)
(-1 4.74391e-18 0)
(-1 1.41965e-16 0)
(-1 -9.04846e-18 0)
(-1 1.20924e-16 0)
(-1 5.23666e-17 0)
(-1 -4.53592e-18 0)
(-1 6.3925e-17 0)
(-1 -1.08098e-16 0)
(-1 -2.29387e-17 0)
(-1 -8.02599e-17 0)
(-1 -6.76778e-17 0)
(-1 -2.88132e-17 0)
(-1 -8.94542e-17 0)
(-1 -1.30959e-17 0)
(-1 -8.92599e-17 0)
(-1 -5.19013e-17 0)
(-1 -6.26869e-14 0)
(-1 -2.13645e-14 0)
(-1 1.29218e-14 0)
(-1 4.15115e-15 0)
(-1 -3.46589e-15 0)
(-1 -1.458e-15 0)
(-1 6.19782e-16 0)
(-1 -6.31157e-17 0)
(-1 -1.36848e-16 0)
(-1 -6.81237e-17 0)
(-1 2.82819e-17 0)
(-1 6.42872e-17 0)
(-1 -1.08809e-17 0)
(-1 1.02155e-16 0)
(-1 9.62368e-18 0)
(-1 1.39391e-16 0)
(-1 2.58662e-17 0)
(-1 7.37336e-17 0)
(-1 -6.40768e-18 0)
(-1 1.20967e-18 0)
(-1 -9.41469e-17 0)
(-1 -1.12794e-16 0)
(-1 -1.37092e-16 0)
(-1 -1.34153e-16 0)
(-1 -9.86465e-17 0)
(-1 -1.3924e-16 0)
(-1 -4.63216e-18 0)
(-1 -7.976e-17 0)
(-1 4.55222e-17 0)
(-1 -4.87248e-17 0)
(-1 1.74818e-17 0)
(-1 3.77654e-18 0)
(-1 -7.68722e-17 0)
(-1 -6.71506e-18 0)
(-1 -1.49901e-16 0)
(-1 -8.37527e-17 0)
(-1 -1.28065e-16 0)
(-1 -1.42702e-16 0)
(-1 -9.36041e-17 0)
(-1 4.54735e-14 0)
(-1 6.07552e-14 0)
(-1 -1.02286e-14 0)
(-1 -1.36454e-14 0)
(-1 1.94477e-15 0)
(-1 2.8351e-15 0)
(-1 -7.51022e-16 0)
(-1 -9.87554e-16 0)
(-1 1.33012e-16 0)
(-1 2.40507e-17 0)
(-1 1.3816e-16 0)
(-1 -4.61814e-17 0)
(-1 2.52427e-16 0)
(-1 9.54035e-17 0)
(-1 2.03501e-16 0)
(-1 1.14607e-16 0)
(-1 4.9077e-17 0)
(-1 7.0746e-17 0)
(-1 -1.05176e-16 0)
(-1 -6.84559e-18 0)
(-1 -1.52799e-16 0)
(-1 -3.20669e-17 0)
(-1 -1.36301e-16 0)
(-1 -7.02708e-17 0)
(-1 -1.20354e-16 0)
(-1 -9.61034e-17 0)
(-1 -1.23853e-16 0)
(-1 -7.88513e-17 0)
(-1 -9.04705e-17 0)
(-1 -1.08224e-16 0)
(-1 -2.04203e-17 0)
(-1 -7.53382e-17 0)
(-1 -1.35956e-17 0)
(-1 -2.04476e-17 0)
(-1 -7.65534e-17 0)
(-1 -1.29575e-18 0)
(-1 -1.0824e-16 0)
(-1 -5.90791e-17 0)
(-1 -4.77573e-17 0)
(-1 1.63629e-15 0)
(-1 -5.49418e-14 0)
(-1 -5.81695e-16 0)
(-1 1.18408e-14 0)
(-1 -9.72242e-17 0)
(-1 -2.92304e-15 0)
(-1 -2.12482e-16 0)
(-1 4.71289e-16 0)
(-1 -1.55142e-16 0)
(-1 -2.94518e-16 0)
(-1 -8.89381e-17 0)
(-1 -4.66466e-17 0)
(-1 -4.24169e-17 0)
(-1 -2.43394e-17 0)
(-1 -1.81484e-17 0)
(-1 1.18358e-17 0)
(-1 1.48234e-17 0)
(-1 -7.2188e-18 0)
(-1 6.62638e-17 0)
(-1 3.63052e-18 0)
(-1 5.04617e-17 0)
(-1 -1.91568e-17 0)
(-1 -3.00731e-17 0)
(-1 -8.0775e-17 0)
(-1 -5.46009e-17 0)
(-1 -8.67344e-17 0)
(-1 -6.32228e-17 0)
(-1 -5.10418e-17 0)
(-1 -9.30919e-17 0)
(-1 -5.56486e-17 0)
(-1 -7.53655e-17 0)
(-1 -5.59547e-17 0)
(-1 -8.14774e-18 0)
(-1 -2.72172e-17 0)
(-1 1.61785e-17 0)
(-1 4.11496e-17 0)
(-1 1.40391e-18 0)
(-1 4.05609e-17 0)
(-1 9.5667e-18 0)
(-1 -4.47373e-14 0)
(-1 1.74115e-14 0)
(-1 9.49947e-15 0)
(-1 -3.68662e-15 0)
(-1 -2.35453e-15 0)
(-1 9.15761e-16 0)
(-1 3.89253e-16 0)
(-1 -1.96561e-16 0)
(-1 -1.86022e-16 0)
(-1 5.4836e-17 0)
(-1 1.79522e-17 0)
(-1 3.04196e-17 0)
(-1 2.99133e-17 0)
(-1 7.86191e-17 0)
(-1 2.27654e-17 0)
(-1 1.12467e-16 0)
(-1 -1.84117e-17 0)
(-1 1.04852e-16 0)
(-1 -8.179e-17 0)
(-1 1.82863e-18 0)
(-1 -1.50394e-16 0)
(-1 -1.88198e-16 0)
(-1 -1.37436e-16 0)
(-1 -2.32367e-16 0)
(-1 -8.31754e-17 0)
(-1 -1.30508e-16 0)
(-1 -4.34677e-17 0)
(-1 -7.32689e-18 0)
(-1 -1.85114e-17 0)
(-1 4.07199e-17 0)
(-1 -7.80642e-18 0)
(-1 5.94041e-17 0)
(-1 2.20801e-17 0)
(-1 3.50813e-17 0)
(-1 6.5532e-17 0)
(-1 3.86925e-17 0)
(-1 4.87237e-17 0)
(-1 4.10971e-17 0)
(-1 -2.02326e-18 0)
(-1 5.84622e-14 0)
(-1 4.12678e-14 0)
(-1 -1.22703e-14 0)
(-1 -8.98026e-15 0)
(-1 3.07373e-15 0)
(-1 2.21296e-15 0)
(-1 -5.30978e-16 0)
(-1 -3.89744e-16 0)
(-1 2.71278e-16 0)
(-1 1.83647e-16 0)
(-1 9.10865e-17 0)
(-1 8.06565e-18 0)
(-1 1.61173e-16 0)
(-1 1.83106e-18 0)
(-1 1.94554e-16 0)
(-1 6.67692e-17 0)
(-1 1.25092e-16 0)
(-1 1.51015e-16 0)
(-1 -1.0458e-16 0)
(-1 2.55727e-17 0)
(-1 -2.70172e-16 0)
(-1 -1.4191e-16 0)
(-1 -2.25439e-16 0)
(-1 -1.84124e-16 0)
(-1 -5.46592e-17 0)
(-1 -1.37801e-16 0)
(-1 7.68607e-17 0)
(-1 -4.99821e-17 0)
(-1 1.18635e-16 0)
(-1 1.35602e-17 0)
(-1 1.02292e-16 0)
(-1 3.7244e-17 0)
(-1 5.16937e-17 0)
(-1 5.45058e-17 0)
(-1 1.42576e-17 0)
(-1 5.13405e-17 0)
(-1 -9.6499e-18 0)
(-1 2.83679e-17 0)
(-1 -4.03211e-17 0)
(-1 -2.61747e-14 0)
(-1 -6.56383e-14 0)
(-1 5.50303e-15 0)
(-1 1.41185e-14 0)
(-1 -1.25051e-15 0)
(-1 -3.31426e-15 0)
(-1 3.24881e-16 0)
(-1 7.67198e-16 0)
(-1 -7.95653e-17 0)
(-1 -2.04464e-16 0)
(-1 -8.11898e-17 0)
(-1 -9.49768e-17 0)
(-1 -9.25729e-17 0)
(-1 -2.27707e-16 0)
(-1 2.3231e-17 0)
(-1 -8.93167e-17 0)
(-1 5.14961e-17 0)
(-1 2.56944e-18 0)
(-1 -1.17577e-17 0)
(-1 -7.59206e-17 0)
(-1 -5.58614e-17 0)
(-1 -8.64504e-17 0)
(-1 -9.64862e-17 0)
(-1 3.54429e-17 0)
(-1 -1.33124e-16 0)
(-1 3.87732e-17 0)
(-1 -1.13283e-16 0)
(-1 -6.94379e-17 0)
(-1 -6.78313e-17 0)
(-1 -1.07632e-16 0)
(-1 -1.05421e-17 0)
(-1 -7.61655e-17 0)
(-1 5.41526e-17 0)
(-1 1.68581e-17 0)
(-1 6.54508e-17 0)
(-1 8.49205e-17 0)
(-1 -2.30335e-18 0)
(-1 5.59295e-17 0)
(-1 -5.88919e-17 0)
(-1 -2.53452e-14 0)
(-1 4.64114e-14 0)
(-1 5.30118e-15 0)
(-1 -1.01637e-14 0)
(-1 -1.29656e-15 0)
(-1 2.38783e-15 0)
(-1 2.37853e-16 0)
(-1 -4.32196e-16 0)
(-1 -2.19875e-16 0)
(-1 9.17716e-17 0)
(-1 -2.41494e-16 0)
(-1 -1.26187e-16 0)
(-1 -2.24451e-16 0)
(-1 -1.08942e-16 0)
(-1 -1.09978e-16 0)
(-1 -4.62154e-17 0)
(-1 -1.24847e-16 0)
(-1 -5.43426e-17 0)
(-1 -1.50613e-16 0)
(-1 -9.68252e-17 0)
(-1 4.85397e-18 0)
(-1 -7.76431e-17 0)
(-1 1.70702e-16 0)
(-1 7.37403e-17 0)
(-1 1.0246e-16 0)
(-1 1.3803e-16 0)
(-1 -6.37875e-17 0)
(-1 3.56208e-17 0)
(-1 -1.15966e-16 0)
(-1 -2.04019e-17 0)
(-1 -4.87653e-17 0)
(-1 -4.74831e-18 0)
(-1 4.7626e-17 0)
(-1 1.2983e-17 0)
(-1 7.53992e-17 0)
(-1 -4.52967e-18 0)
(-1 -6.58979e-19 0)
(-1 -2.82573e-17 0)
(-1 -7.80339e-17 0)
(-1 6.15928e-14 0)
(-1 -9.99746e-15 0)
(-1 -1.30771e-14 0)
(-1 1.98616e-15 0)
(-1 3.2522e-15 0)
(-1 -4.15897e-16 0)
(-1 -5.78278e-16 0)
(-1 9.41658e-17 0)
(-1 1.8546e-16 0)
(-1 -3.66558e-17 0)
(-1 6.36558e-18 0)
(-1 6.53174e-17 0)
(-1 6.92936e-17 0)
(-1 1.55819e-16 0)
(-1 9.42032e-18 0)
(-1 7.29147e-17 0)
(-1 -2.63205e-17 0)
(-1 -8.51032e-17 0)
(-1 -2.38551e-17 0)
(-1 -3.60767e-18 0)
(-1 -8.75681e-18 0)
(-1 5.27183e-17 0)
(-1 4.10677e-17 0)
(-1 2.9785e-17 0)
(-1 7.1191e-17 0)
(-1 5.40788e-17 0)
(-1 7.90064e-17 0)
(-1 3.83892e-17 0)
(-1 9.08162e-17 0)
(-1 6.82323e-17 0)
(-1 5.7e-17 0)
(-1 5.26611e-17 0)
(-1 -3.91726e-17 0)
(-1 -1.3664e-17 0)
(-1 -1.08186e-16 0)
(-1 -1.29904e-16 0)
(-1 -1.05632e-16 0)
(-1 -1.33836e-16 0)
(-1 -9.3331e-17 0)
(-1 -6.96041e-14 0)
(-1 -3.27741e-14 0)
(-1 1.46474e-14 0)
(-1 6.76515e-15 0)
(-1 -3.57393e-15 0)
(-1 -1.72355e-15 0)
(-1 6.35788e-16 0)
(-1 1.63125e-16 0)
(-1 -1.56799e-16 0)
(-1 -1.62755e-16 0)
(-1 2.14771e-16 0)
(-1 6.94397e-17 0)
(-1 1.5944e-16 0)
(-1 1.51973e-16 0)
(-1 -2.16089e-17 0)
(-1 4.97861e-17 0)
(-1 -6.23904e-17 0)
(-1 -9.60057e-17 0)
(-1 7.29657e-17 0)
(-1 -6.24015e-17 0)
(-1 9.12601e-17 0)
(-1 1.13761e-17 0)
(-1 4.27961e-17 0)
(-1 2.26151e-17 0)
(-1 2.1277e-17 0)
(-1 6.64049e-17 0)
(-1 2.76151e-17 0)
(-1 1.17039e-16 0)
(-1 3.00772e-17 0)
(-1 1.56468e-16 0)
(-1 -1.8003e-17 0)
(-1 8.9822e-17 0)
(-1 -1.04395e-16 0)
(-1 8.79136e-18 0)
(-1 -1.55553e-16 0)
(-1 -7.93044e-17 0)
(-1 -1.21534e-16 0)
(-1 -9.71505e-17 0)
(-1 -3.39472e-17 0)
(-1 4.35952e-14 0)
(-1 5.92888e-14 0)
(-1 -9.60575e-15 0)
(-1 -1.30055e-14 0)
(-1 2.01351e-15 0)
(-1 2.80723e-15 0)
(-1 -6.35417e-16 0)
(-1 -7.5863e-16 0)
(-1 6.34839e-17 0)
(-1 9.223e-17 0)
(-1 6.64134e-18 0)
(-1 -6.55489e-17 0)
(-1 4.23185e-17 0)
(-1 5.4702e-18 0)
(-1 -2.46107e-17 0)
(-1 -5.1318e-17 0)
(-1 -9.60169e-17 0)
(-1 -4.74817e-17 0)
(-1 -1.23991e-16 0)
(-1 -1.13071e-16 0)
(-1 -5.72689e-17 0)
(-1 -6.83274e-17 0)
(-1 4.6224e-17 0)
(-1 -3.21693e-17 0)
(-1 1.62166e-16 0)
(-1 -3.07773e-18 0)
(-1 2.45892e-16 0)
(-1 1.31326e-16 0)
(-1 2.16213e-16 0)
(-1 1.71888e-16 0)
(-1 1.16616e-16 0)
(-1 9.02581e-17 0)
(-1 3.38821e-17 0)
(-1 -1.65179e-18 0)
(-1 -2.09017e-17 0)
(-1 -2.30746e-17 0)
(-1 -9.56327e-18 0)
(-1 -5.60873e-17 0)
(-1 -2.11252e-18 0)
(-1 2.68814e-15 0)
(-1 -6.07812e-14 0)
(-1 -5.92487e-16 0)
(-1 1.33073e-14 0)
(-1 3.50966e-17 0)
(-1 -3.21788e-15 0)
(-1 -3.09828e-17 0)
(-1 6.34796e-16 0)
(-1 -3.68028e-17 0)
(-1 -2.43768e-16 0)
(-1 -6.672e-17 0)
(-1 -3.95297e-17 0)
(-1 -8.81663e-17 0)
(-1 -7.619e-17 0)
(-1 -7.4189e-17 0)
(-1 -9.8494e-17 0)
(-1 -6.45361e-17 0)
(-1 -3.98001e-17 0)
(-1 -5.74076e-17 0)
(-1 -2.71654e-17 0)
(-1 -4.32278e-17 0)
(-1 5.61572e-17 0)
(-1 -8.1471e-17 0)
(-1 4.7658e-17 0)
(-1 -3.39179e-17 0)
(-1 -2.69286e-17 0)
(-1 5.73222e-17 0)
(-1 7.19269e-18 0)
(-1 4.59327e-17 0)
(-1 -9.08742e-18 0)
(-1 -2.801e-17 0)
(-1 -5.24307e-17 0)
(-1 -5.86084e-17 0)
(-1 -1.189e-16 0)
(-1 -5.82602e-17 0)
(-1 -7.29324e-17 0)
(-1 -4.86366e-17 0)
(-1 -6.91033e-17 0)
(-1 -6.62534e-17 0)
(-1 -5.0162e-14 0)
(-1 3.14426e-14 0)
(-1 1.0682e-14 0)
(-1 -7.0634e-15 0)
(-1 -2.61818e-15 0)
(-1 1.6244e-15 0)
(-1 4.22011e-16 0)
(-1 -4.48352e-16 0)
(-1 -2.46495e-16 0)
(-1 -8.93653e-18 0)
(-1 -4.89997e-17 0)
(-1 -6.92456e-17 0)
(-1 -8.65177e-17 0)
(-1 -2.06799e-17 0)
(-1 -6.41051e-17 0)
(-1 -2.88987e-17 0)
(-1 -2.42937e-18 0)
(-1 -1.23157e-17 0)
(-1 8.63994e-17 0)
(-1 6.5531e-18 0)
(-1 1.47043e-16 0)
(-1 6.09187e-17 0)
(-1 1.022e-16 0)
(-1 1.07578e-16 0)
(-1 1.4182e-17 0)
(-1 6.28869e-17 0)
(-1 -5.9217e-17 0)
(-1 -2.29605e-17 0)
(-1 -1.07451e-16 0)
(-1 -8.08794e-17 0)
(-1 -1.43321e-16 0)
(-1 -2.4097e-17 0)
(-1 -1.33224e-16 0)
(-1 -8.78785e-18 0)
(-1 -8.37755e-17 0)
(-1 -2.94691e-17 0)
(-1 -8.67201e-17 0)
(-1 -4.96352e-17 0)
(-1 -8.72665e-17 0)
(-1 7.45412e-14 0)
(-1 3.80004e-14 0)
(-1 -1.6121e-14 0)
(-1 -8.53191e-15 0)
(-1 3.79423e-15 0)
(-1 1.82897e-15 0)
(-1 -8.793e-16 0)
(-1 -5.51056e-16 0)
(-1 1.68312e-16 0)
(-1 3.47206e-17 0)
(-1 -4.09258e-17 0)
(-1 -1.1779e-16 0)
(-1 3.69391e-17 0)
(-1 -9.1525e-17 0)
(-1 2.28907e-17 0)
(-1 -9.48899e-18 0)
(-1 -3.33324e-18 0)
(-1 -1.21942e-17 0)
(-1 -1.89276e-17 0)
(-1 -2.12601e-17 0)
(-1 2.14535e-17 0)
(-1 -1.83012e-17 0)
(-1 6.82644e-17 0)
(-1 3.36324e-17 0)
(-1 2.57445e-17 0)
(-1 4.72843e-17 0)
(-1 -4.46229e-17 0)
(-1 1.72682e-17 0)
(-1 2.47446e-18 0)
(-1 2.81892e-18 0)
(-1 1.10436e-16 0)
(-1 7.72826e-17 0)
(-1 9.49669e-17 0)
(-1 1.46694e-16 0)
(-1 4.67121e-18 0)
(-1 4.48689e-17 0)
(-1 -5.01815e-17 0)
(-1 -2.54984e-17 0)
(-1 -5.60849e-17 0)
(-1 -4.50727e-14 0)
(-1 -7.8691e-14 0)
(-1 9.41802e-15 0)
(-1 1.693e-14 0)
(-1 -2.51631e-15 0)
(-1 -4.17928e-15 0)
(-1 3.62964e-16 0)
(-1 7.07343e-16 0)
(-1 -2.51382e-16 0)
(-1 -2.81917e-16 0)
(-1 -1.6839e-16 0)
(-1 -9.66309e-17 0)
(-1 -1.37953e-16 0)
(-1 -1.95348e-16 0)
(-1 -4.45739e-17 0)
(-1 -9.22939e-17 0)
(-1 -3.0121e-17 0)
(-1 -6.03305e-17 0)
(-1 -2.06337e-17 0)
(-1 -3.10406e-17 0)
(-1 -6.12233e-18 0)
(-1 -7.14714e-18 0)
(-1 1.26522e-17 0)
(-1 3.15355e-17 0)
(-1 3.88079e-17 0)
(-1 6.82981e-17 0)
(-1 6.471e-17 0)
(-1 1.11556e-16 0)
(-1 7.7627e-17 0)
(-1 9.96123e-17 0)
(-1 1.13541e-16 0)
(-1 -8.8087e-19 0)
(-1 9.65962e-17 0)
(-1 6.46572e-18 0)
(-1 1.46993e-17 0)
(-1 1.51212e-17 0)
(-1 -3.14017e-17 0)
(-1 -1.43001e-17 0)
(-1 -4.9231e-17 0)
(-1 -1.66883e-14 0)
(-1 5.20333e-14 0)
(-1 3.33268e-15 0)
(-1 -1.14e-14 0)
(-1 -9.55621e-16 0)
(-1 2.59435e-15 0)
(-1 6.24625e-17 0)
(-1 -6.74045e-16 0)
(-1 -1.27165e-16 0)
(-1 9.38936e-17 0)
(-1 -1.2359e-16 0)
(-1 -1.15054e-17 0)
(-1 -1.49689e-16 0)
(-1 9.39171e-18 0)
(-1 -1.08051e-16 0)
(-1 -4.07372e-17 0)
(-1 -6.12501e-17 0)
(-1 -3.82512e-17 0)
(-1 -1.7554e-17 0)
(-1 -3.75752e-17 0)
(-1 3.05107e-17 0)
(-1 -2.85832e-17 0)
(-1 8.71813e-17 0)
(-1 2.562e-18 0)
(-1 1.41046e-16 0)
(-1 8.5168e-17 0)
(-1 1.46458e-16 0)
(-1 1.00546e-16 0)
(-1 2.11044e-17 0)
(-1 3.57311e-17 0)
(-1 -1.07956e-16 0)
(-1 -9.77441e-17 0)
(-1 -7.50093e-17 0)
(-1 -9.97175e-17 0)
(-1 -1.38782e-17 0)
(-1 -2.90334e-17 0)
(-1 -3.21294e-17 0)
(-1 -3.29801e-17 0)
(-1 -5.14347e-17 0)
(-1 5.73216e-14 0)
(-1 4.44245e-14 0)
(-1 -1.21383e-14 0)
(-1 -9.68448e-15 0)
(-1 2.87592e-15 0)
(-1 2.17922e-15 0)
(-1 -6.42614e-16 0)
(-1 -5.20257e-16 0)
(-1 2.09554e-16 0)
(-1 1.2138e-16 0)
(-1 1.21476e-16 0)
(-1 5.03949e-17 0)
(-1 1.18344e-16 0)
(-1 9.68235e-17 0)
(-1 2.90621e-17 0)
(-1 2.07894e-17 0)
(-1 -1.45763e-17 0)
(-1 1.41833e-17 0)
(-1 -4.86044e-17 0)
(-1 -3.11742e-17 0)
(-1 -5.65319e-17 0)
(-1 -8.86181e-17 0)
(-1 5.48662e-19 0)
(-1 -1.43334e-16 0)
(-1 4.46673e-17 0)
(-1 -8.16498e-17 0)
(-1 -1.01817e-17 0)
(-1 -5.50222e-17 0)
(-1 -8.31173e-17 0)
(-1 -1.13153e-16 0)
(-1 -8.95053e-17 0)
(-1 -7.67255e-17 0)
(-1 -5.37416e-17 0)
(-1 1.22506e-17 0)
(-1 -4.81353e-17 0)
(-1 -3.69181e-17 0)
(-1 -5.22854e-17 0)
(-1 -8.17681e-17 0)
(-1 -3.23917e-17 0)
(-1 -2.25816e-14 0)
(-1 -7.61224e-14 0)
(-1 4.63308e-15 0)
(-1 1.61161e-14 0)
(-1 -1.21696e-15 0)
(-1 -3.84759e-15 0)
(-1 2.43738e-16 0)
(-1 8.5041e-16 0)
(-1 -3.77781e-17 0)
(-1 -1.12053e-16 0)
(-1 2.57425e-17 0)
(-1 4.3201e-17 0)
(-1 -7.30703e-19 0)
(-1 -4.57639e-17 0)
(-1 5.91064e-18 0)
(-1 -5.43886e-17 0)
(-1 -2.41459e-18 0)
(-1 -1.7937e-17 0)
(-1 -7.11879e-17 0)
(-1 -4.25978e-17 0)
(-1 -1.7542e-16 0)
(-1 -1.04802e-16 0)
(-1 -2.25533e-16 0)
(-1 -2.10124e-16 0)
(-1 -1.81339e-16 0)
(-1 -2.16328e-16 0)
(-1 -1.57993e-16 0)
(-1 -1.51221e-16 0)
(-1 -1.06761e-16 0)
(-1 -1.54929e-16 0)
(-1 2.50303e-17 0)
(-1 -3.82729e-17 0)
(-1 2.90741e-17 0)
(-1 8.19099e-17 0)
(-1 -7.05508e-17 0)
(-1 -2.58372e-17 0)
(-1 -6.18744e-17 0)
(-1 -8.85804e-17 0)
(-1 -1.77364e-17 0)
(-1 -3.74247e-14 0)
(-1 7.63545e-15 0)
(-1 -1.78022e-15 0)
(-1 4.9462e-16 0)
(-1 -3.10737e-17 0)
(-1 -2.83054e-17 0)
(-1 -9.94218e-17 0)
(-1 -7.82362e-17 0)
(-1 -5.81201e-17 0)
(-1 -7.62123e-17 0)
(-1 -1.39506e-16 0)
(-1 -2.00919e-16 0)
(-1 -1.8621e-16 0)
(-1 -1.48156e-16 0)
(-1 -8.64405e-17 0)
(-1 1.86066e-17 0)
(-1 2.69987e-17 0)
(-1 -4.38667e-17 0)
(-1 -4.44425e-17 0)
)
;

boundaryField
{
    movingWall
    {
        type            calculated;
        value           uniform (-1 -0 -0);
    }
    fixedWalls
    {
        type            calculated;
        value           uniform (-1 -0 -0);
    }
    frontAndBack
    {
        type            empty;
    }
}


// ************************************************************************* //
