/*--------------------------------*- C++ -*----------------------------------*\
| =========                 |                                                 |
| \\      /  F ield         | OpenFOAM: The Open Source CFD Toolbox           |
|  \\    /   O peration     | Version:  2506                                  |
|   \\  /    A nd           | Website:  www.openfoam.com                      |
|    \\/     M anipulation  |                                                 |
\*---------------------------------------------------------------------------*/
FoamFile
{
    version     2.0;
    format      ascii;
    arch        "LSB;label=32;scalar=64";
    class       volSymmTensorField;
    location    "9.5";
    object      turbulenceProperties:devReff;
}
// * * * * * * * * * * * * * * * * * * * * * * * * * * * * * * * * * * * * * //

dimensions      [0 2 -2 0 0 0 0];

internalField   nonuniform List<symmTensor> 
400
(
(1.51449e-16 -1.66365e-16 -0 -2.77448e-16 -0 1.25999e-16)
(-5.41773e-17 1.85014e-16 -0 7.04759e-17 -0 -1.62986e-17)
(1.39398e-17 -3.89685e-17 -0 -1.72261e-17 -0 3.28636e-18)
(-1.75626e-18 9.39072e-18 -0 2.92066e-18 -0 -1.1644e-18)
(4.45177e-19 -2.45121e-18 -0 -8.90354e-19 -0 4.45177e-19)
(5.01381e-19 9.09785e-19 -0 -4.10906e-19 -0 -9.04744e-20)
(4.99999e-19 5.94157e-19 -0 -4.08143e-19 -0 -9.18562e-20)
(-2.38799e-20 2.14201e-19 -0 4.77598e-20 -0 -2.38799e-20)
(-6.50922e-20 1.77056e-19 -0 1.30184e-19 -0 -6.50922e-20)
(-1.58379e-20 1.85266e-20 -0 3.16758e-20 -0 -1.58379e-20)
(9.18146e-20 -1.53973e-19 -0 -1.83629e-19 -0 9.18146e-20)
(1.55731e-19 4.66517e-19 -0 -3.11462e-19 -0 1.55731e-19)
(5.68173e-19 2.38711e-20 -0 -5.44492e-19 -0 -2.36818e-20)
(5.47747e-19 9.51219e-20 -0 -5.03638e-19 -0 -4.41085e-20)
(8.68699e-19 1.02112e-18 -0 -5.53689e-19 -0 -3.15011e-19)
(-9.07487e-19 9.53175e-19 -0 6.31264e-19 -0 2.76223e-19)
(-9.03932e-19 -1.43397e-19 -0 6.24154e-19 -0 2.79778e-19)
(4.12346e-19 4.61913e-19 -0 -2.32836e-19 -0 -1.79509e-19)
(4.67271e-20 6.52392e-19 -0 -9.34542e-20 -0 4.67271e-20)
(3.94868e-19 9.9133e-20 -0 -1.97881e-19 -0 -1.96987e-19)
(-2.76777e-16 -1.62465e-17 -0 5.01443e-16 -0 -2.24666e-16)
(1.02818e-16 1.53523e-17 -0 -1.29773e-16 -0 2.69556e-17)
(-2.68813e-17 -1.49036e-18 -0 3.2428e-17 -0 -5.54675e-18)
(2.53685e-18 1.38322e-18 -0 -5.0737e-18 -0 2.53685e-18)
(1.58278e-19 5.45053e-19 -0 8.68587e-19 -0 -1.02687e-18)
(-4.6662e-21 4.88195e-19 -0 9.33241e-21 -0 -4.6662e-21)
(-9.68941e-19 4.90208e-19 -0 7.5285e-19 -0 2.16091e-19)
(-8.50196e-19 9.30371e-19 -0 5.154e-19 -0 3.34797e-19)
(-4.01051e-19 6.99379e-19 -0 2.0964e-19 -0 1.9141e-19)
(4.76588e-19 6.34524e-19 -0 -3.60734e-19 -0 -1.15854e-19)
(-4.07387e-20 7.85132e-19 -0 8.14773e-20 -0 -4.07387e-20)
(-1.48959e-19 2.9885e-19 -0 2.97917e-19 -0 -1.48959e-19)
(-5.81831e-19 5.72294e-19 -0 5.71313e-19 -0 1.05187e-20)
(3.17879e-19 6.38311e-19 -0 -4.34277e-20 -0 -2.74451e-19)
(1.35068e-20 -2.19951e-20 -0 -2.70137e-20 -0 1.35068e-20)
(8.5015e-20 -6.98421e-20 -0 -1.7003e-19 -0 8.5015e-20)
(1.62836e-20 5.31412e-19 -0 -3.25672e-20 -0 1.62836e-20)
(-1.48085e-19 -1.12406e-19 -0 2.96171e-19 -0 -1.48085e-19)
(-5.71567e-19 -3.43397e-20 -0 5.50933e-19 -0 2.06338e-20)
(-8.65455e-19 -2.86111e-20 -0 5.46565e-19 -0 3.1889e-19)
(8.94698e-17 2.01085e-16 -0 -1.59381e-16 -0 6.9911e-17)
(-3.30615e-17 -1.84159e-16 -0 4.23947e-17 -0 -9.33318e-18)
(8.43527e-18 3.64555e-17 -0 -9.75262e-18 -0 1.31735e-18)
(-2.45285e-18 -1.04235e-17 -0 3.12627e-18 -0 -6.73423e-19)
(-1.09931e-18 1.06253e-18 -0 4.19319e-19 -0 6.79993e-19)
(3.86804e-19 -1.84402e-18 -0 -1.80525e-19 -0 -2.06278e-19)
(1.01317e-18 -8.0388e-19 -0 -8.40252e-19 -0 -1.72918e-19)
(1.47354e-18 -9.34398e-19 -0 -1.16801e-18 -0 -3.05529e-19)
(9.69487e-19 -3.32028e-19 -0 -7.53001e-19 -0 -2.16486e-19)
(-6.40673e-20 -2.25879e-19 -0 1.28135e-19 -0 -6.40673e-20)
(-1.79684e-18 -6.97462e-19 -0 1.22197e-18 -0 5.74873e-19)
(-5.97825e-19 -7.95422e-19 -0 6.02741e-19 -0 -4.9164e-21)
(-1.89847e-19 -6.76963e-19 -0 3.79693e-19 -0 -1.89847e-19)
(-9.83129e-19 -7.98482e-19 -0 7.80556e-19 -0 2.02573e-19)
(-5.5946e-19 -7.02507e-19 -0 5.26106e-19 -0 3.3354e-20)
(4.34147e-19 -5.31468e-19 -0 -2.755e-19 -0 -1.58647e-19)
(-3.06292e-19 -6.82794e-19 -0 1.98274e-20 -0 2.86465e-19)
(4.03469e-19 -7.29404e-19 -0 -2.14203e-19 -0 -1.89267e-19)
(-7.79087e-20 -6.40466e-19 -0 1.55817e-19 -0 -7.79087e-20)
(-6.07925e-20 -2.80032e-19 -0 1.21585e-19 -0 -6.07925e-20)
(1.46323e-16 -1.47582e-16 -0 -2.52898e-16 -0 1.06575e-16)
(-6.08259e-17 1.34197e-16 -0 6.93992e-17 -0 -8.57331e-18)
(1.49774e-17 -2.87437e-17 -0 -1.68926e-17 -0 1.91528e-18)
(-2.14154e-18 5.90488e-18 -0 3.09567e-18 -0 -9.54123e-19)
(5.30372e-19 -2.2331e-18 -0 -4.67072e-19 -0 -6.32998e-20)
(-1.61298e-19 -1.1276e-20 -0 3.22596e-19 -0 -1.61298e-19)
(-9.85727e-21 -8.43861e-19 -0 1.97145e-20 -0 -9.85727e-21)
(-4.31913e-19 -4.86446e-19 -0 2.70234e-19 -0 1.61679e-19)
(-4.00064e-19 -1.14572e-18 -0 2.06574e-19 -0 1.9349e-19)
(-4.07448e-19 -1.14606e-18 -0 2.21363e-19 -0 1.86085e-19)
(9.09166e-19 -4.89218e-19 -0 -6.31343e-19 -0 -2.77823e-19)
(9.32476e-20 -6.29597e-19 -0 -1.86495e-19 -0 9.32476e-20)
(6.29624e-20 -6.2835e-19 -0 -1.25925e-19 -0 6.29624e-20)
(7.92546e-19 -2.89047e-19 -0 -3.98262e-19 -0 -3.94283e-19)
(-8.68363e-20 -7.30795e-20 -0 1.73673e-19 -0 -8.68363e-20)
(-9.06601e-19 -4.50024e-19 -0 6.2649e-19 -0 2.80111e-19)
(-2.004e-20 -3.11598e-19 -0 4.008e-20 -0 -2.004e-20)
(9.11389e-19 -1.58842e-19 -0 -6.36183e-19 -0 -2.75206e-19)
(-2.73497e-19 6.93568e-20 -0 -4.62855e-20 -0 3.19782e-19)
(4.62396e-19 -5.33531e-19 -0 -3.31543e-19 -0 -1.30853e-19)
(-2.03395e-16 -8.63116e-18 -0 3.55135e-16 -0 -1.5174e-16)
(8.24177e-17 4.86295e-18 -0 -9.70876e-17 -0 1.46699e-17)
(-1.95081e-17 -1.35923e-18 -0 2.23777e-17 -0 -2.86965e-18)
(3.71666e-18 2.52673e-19 -0 -5.05647e-18 -0 1.33982e-18)
(-1.6539e-18 -4.22778e-19 -0 1.52528e-18 -0 1.28613e-19)
(-3.96779e-19 -1.45121e-19 -0 1.99409e-19 -0 1.9737e-19)
(-1.74974e-19 1.95086e-19 -0 3.49949e-19 -0 -1.74974e-19)
(-1.50169e-19 2.43853e-19 -0 3.00337e-19 -0 -1.50169e-19)
(-5.09948e-19 5.21787e-19 -0 4.25846e-19 -0 8.41018e-20)
(4.11325e-19 7.78306e-19 -0 -2.28621e-19 -0 -1.82703e-19)
(1.88611e-20 6.28619e-19 -0 -3.77222e-20 -0 1.88611e-20)
(-1.53457e-20 1.7648e-19 -0 3.06914e-20 -0 -1.53457e-20)
(4.09639e-19 5.37455e-20 -0 -2.25349e-19 -0 -1.8429e-19)
(-3.55316e-19 -2.78062e-19 -0 1.16724e-19 -0 2.38592e-19)
(7.6795e-20 -2.31492e-19 -0 -1.5359e-19 -0 7.6795e-20)
(2.83118e-20 -3.8837e-20 -0 -5.66236e-20 -0 2.83118e-20)
(-9.88717e-21 4.46551e-19 -0 1.97743e-20 -0 -9.88717e-21)
(6.19898e-20 2.43603e-19 -0 -1.2398e-19 -0 6.19898e-20)
(5.41362e-19 -2.64519e-19 -0 -4.88955e-19 -0 -5.24073e-20)
(4.79539e-19 2.99945e-19 -0 -3.65338e-19 -0 -1.14201e-19)
(1.25135e-16 1.24201e-16 -0 -2.21159e-16 -0 9.60235e-17)
(-5.12542e-17 -1.27018e-16 -0 5.96929e-17 -0 -8.43867e-18)
(1.39387e-17 2.57071e-17 -0 -1.53906e-17 -0 1.45191e-18)
(-1.76947e-18 -6.91077e-18 -0 2.34977e-18 -0 -5.80293e-19)
(1.3036e-18 1.26186e-18 -0 -1.41811e-18 -0 1.14506e-19)
(5.09044e-19 -4.47402e-19 -0 -4.2356e-19 -0 -8.54836e-20)
(5.46869e-19 2.7101e-19 -0 -4.9925e-19 -0 -4.76185e-20)
(1.47136e-19 1.56767e-20 -0 -2.94272e-19 -0 1.47136e-19)
(9.56419e-19 9.03033e-20 -0 -7.23985e-19 -0 -2.32434e-19)
(3.93636e-19 1.38987e-19 -0 -1.92866e-19 -0 -2.00769e-19)
(-1.43585e-18 1.50435e-19 -0 1.0886e-18 -0 3.47247e-19)
(-1.01406e-18 2.6876e-19 -0 8.39433e-19 -0 1.74627e-19)
(-6.39847e-20 -1.18972e-19 -0 1.27969e-19 -0 -6.39847e-20)
(4.60086e-19 -8.70598e-20 -0 -3.25888e-19 -0 -1.34197e-19)
(5.37013e-19 -5.47135e-20 -0 -4.79783e-19 -0 -5.72308e-20)
(1.686e-19 -2.34684e-20 -0 -3.372e-19 -0 1.686e-19)
(9.10451e-20 -3.62607e-19 -0 -1.8209e-19 -0 9.10451e-20)
(-3.59072e-21 2.01831e-19 -0 7.18144e-21 -0 -3.59072e-21)
(7.83494e-22 3.33915e-19 -0 -1.56699e-21 -0 7.83494e-22)
(-1.69359e-20 1.06797e-19 -0 3.38718e-20 -0 -1.69359e-20)
(2.4573e-17 -1.52568e-16 -0 -6.45998e-17 -0 4.00268e-17)
(2.16945e-18 1.65958e-16 -0 1.05342e-17 -0 -1.27036e-17)
(3.11647e-19 -3.18909e-17 -0 -3.00279e-18 -0 2.69114e-18)
(1.30363e-18 9.69551e-18 -0 -2.27854e-19 -0 -1.07578e-18)
(-2.08093e-19 -2.73495e-19 -0 -1.78625e-19 -0 3.86718e-19)
(-3.27021e-20 1.58499e-18 -0 6.54042e-20 -0 -3.27021e-20)
(2.84172e-19 4.40963e-19 -0 2.64053e-20 -0 -3.10577e-19)
(-4.63331e-19 2.24122e-19 -0 3.31934e-19 -0 1.31397e-19)
(6.75224e-20 1.52399e-19 -0 -1.35045e-19 -0 6.75224e-20)
(3.47285e-20 5.03883e-19 -0 -6.94571e-20 -0 3.47285e-20)
(6.76976e-20 6.5961e-20 -0 -1.35395e-19 -0 6.76976e-20)
(8.6336e-19 1.9917e-19 -0 -5.37513e-19 -0 -3.25847e-19)
(-4.07043e-19 8.14515e-19 -0 2.1952e-19 -0 1.87522e-19)
(-4.58737e-19 1.19787e-18 -0 3.22932e-19 -0 1.35805e-19)
(-3.97135e-20 2.05626e-19 -0 7.9427e-20 -0 -3.97135e-20)
(-3.24018e-20 3.33086e-19 -0 6.48036e-20 -0 -3.24018e-20)
(4.24695e-19 -1.86254e-19 -0 -2.54947e-19 -0 -1.69747e-19)
(4.14771e-19 8.20982e-20 -0 -2.35123e-19 -0 -1.79648e-19)
(-1.86097e-20 5.24279e-20 -0 3.72194e-20 -0 -1.86097e-20)
(-5.59874e-20 -2.11607e-20 -0 1.11975e-19 -0 -5.59874e-20)
(-1.54349e-16 7.52498e-17 -0 3.11671e-16 -0 -1.57322e-16)
(4.01569e-17 -7.4905e-17 -0 -7.07923e-17 -0 3.06353e-17)
(-1.24531e-17 1.48263e-17 -0 1.83606e-17 -0 -5.90757e-18)
(5.03139e-19 -4.35092e-18 -0 -2.79136e-18 -0 2.28822e-18)
(-5.67962e-19 5.9031e-19 -0 1.13592e-18 -0 -5.67962e-19)
(-9.44071e-19 3.5659e-21 -0 6.98216e-19 -0 2.45855e-19)
(-1.1291e-18 -5.69937e-19 -0 1.06836e-18 -0 6.07427e-20)
(-2.28384e-19 3.40734e-19 -0 4.56768e-19 -0 -2.28384e-19)
(-6.13764e-19 2.35398e-19 -0 6.32668e-19 -0 -1.89041e-20)
(-9.41606e-19 1.38814e-19 -0 6.93537e-19 -0 2.48069e-19)
(8.11344e-20 3.94181e-19 -0 -1.62269e-19 -0 8.11344e-20)
(1.51075e-18 8.91443e-20 -0 -1.23718e-18 -0 -2.73574e-19)
(1.05127e-18 -5.14345e-19 -0 -9.13074e-19 -0 -1.38199e-19)
(-2.84588e-20 -3.40891e-19 -0 5.69176e-20 -0 -2.84588e-20)
(-9.7016e-19 4.94956e-19 -0 7.50971e-19 -0 2.19189e-19)
(-1.35517e-18 -1.25685e-19 -0 9.26394e-19 -0 4.28781e-19)
(-5.50593e-20 4.5269e-19 -0 1.10119e-19 -0 -5.50593e-20)
(4.91084e-20 -2.47843e-20 -0 -9.82168e-20 -0 4.91084e-20)
(4.03058e-20 1.48624e-19 -0 -8.06115e-20 -0 4.03058e-20)
(-2.71562e-20 -5.05233e-21 -0 5.43124e-20 -0 -2.71562e-20)
(1.6983e-16 5.23339e-17 -0 -3.30739e-16 -0 1.6091e-16)
(-4.98333e-17 -6.99761e-17 -0 7.8239e-17 -0 -2.84057e-17)
(1.39018e-17 1.24039e-17 -0 -1.94713e-17 -0 5.56952e-18)
(-5.65376e-19 -4.26178e-18 -0 2.91617e-18 -0 -2.35079e-18)
(8.30326e-19 -1.85241e-19 -0 -1.06555e-18 -0 2.35228e-19)
(-4.56794e-20 -1.44023e-18 -0 9.13589e-20 -0 -4.56794e-20)
(5.70506e-19 -6.3245e-19 -0 -5.45977e-19 -0 -2.45289e-20)
(4.59753e-19 -2.51292e-19 -0 -3.24493e-19 -0 -1.3526e-19)
(-4.79932e-19 3.26384e-20 -0 3.64891e-19 -0 1.15041e-19)
(-3.05901e-20 -2.40919e-19 -0 6.11802e-20 -0 -3.05901e-20)
(1.28869e-20 2.53686e-19 -0 -2.57739e-20 -0 1.28869e-20)
(5.60354e-20 2.30892e-19 -0 -1.12071e-19 -0 5.60354e-20)
(-2.51346e-19 7.44614e-19 -0 -9.21552e-20 -0 3.43502e-19)
(1.53702e-19 -2.29993e-19 -0 -3.07405e-19 -0 1.53702e-19)
(5.24134e-19 -4.80286e-19 -0 -4.53483e-19 -0 -7.06516e-20)
(5.00982e-19 -1.47459e-19 -0 -4.07201e-19 -0 -9.37811e-20)
(3.90814e-19 3.83228e-19 -0 -1.86905e-19 -0 -2.0391e-19)
(-1.30839e-19 5.33765e-19 -0 2.61679e-19 -0 -1.30839e-19)
(-5.19591e-19 1.66871e-19 -0 4.445e-19 -0 7.50907e-20)
(3.68437e-19 -2.98771e-19 -0 -1.42224e-19 -0 -2.26214e-19)
(-8.8461e-17 -1.3574e-16 -0 1.68001e-16 -0 -7.95401e-17)
(2.57265e-17 1.68159e-16 -0 -3.95473e-17 -0 1.38207e-17)
(-6.48569e-18 -3.28836e-17 -0 9.39995e-18 -0 -2.91426e-18)
(3.7377e-19 8.70919e-18 -0 -1.34276e-18 -0 9.68987e-19)
(-1.88001e-19 -1.67702e-18 -0 3.76003e-19 -0 -1.88001e-19)
(2.80327e-19 6.90821e-19 -0 -5.60655e-19 -0 2.80327e-19)
(1.9745e-18 1.59393e-19 -0 -1.56856e-18 -0 -4.05947e-19)
(5.71094e-19 -4.63639e-19 -0 -5.47096e-19 -0 -2.39971e-20)
(-4.4172e-19 6.73514e-19 -0 2.8839e-19 -0 1.5333e-19)
(1.36425e-19 -5.41233e-21 -0 -2.7285e-19 -0 1.36425e-19)
(1.38075e-18 -6.2813e-19 -0 -9.76532e-19 -0 -4.04215e-19)
(-6.43223e-20 -7.04332e-19 -0 1.28645e-19 -0 -6.43223e-20)
(-1.22842e-19 -6.61043e-19 -0 2.45684e-19 -0 -1.22842e-19)
(-7.89153e-19 -1.71534e-20 -0 3.885e-19 -0 4.00652e-19)
(1.29681e-19 -2.59184e-20 -0 -2.59362e-19 -0 1.29681e-19)
(8.39927e-20 6.69052e-19 -0 -1.67985e-19 -0 8.39927e-20)
(-3.89833e-20 -3.83757e-19 -0 7.79667e-20 -0 -3.89833e-20)
(-5.79928e-19 1.51439e-19 -0 5.65078e-19 -0 1.48502e-20)
(-9.47457e-19 -5.60411e-21 -0 7.05396e-19 -0 2.42061e-19)
(-2.23762e-20 -5.29138e-19 -0 4.47524e-20 -0 -2.23762e-20)
(-2.30108e-17 1.52441e-16 -0 6.14861e-17 -0 -3.84753e-17)
(-2.13081e-18 -1.86543e-16 -0 -9.43143e-18 -0 1.15622e-17)
(-1.1209e-18 3.85305e-17 -0 3.43239e-18 -0 -2.31149e-18)
(-2.28014e-18 -8.05476e-18 -0 9.88624e-19 -0 1.29152e-18)
(-1.84611e-19 2.33578e-18 -0 3.69222e-19 -0 -1.84611e-19)
(6.03489e-21 3.74478e-19 -0 -1.20698e-20 -0 6.03489e-21)
(-4.02412e-19 4.19081e-19 -0 2.09652e-19 -0 1.9276e-19)
(-3.38558e-20 -1.97617e-19 -0 6.77116e-20 -0 -3.38558e-20)
(3.80782e-19 -8.03126e-19 -0 -1.66454e-19 -0 -2.14328e-19)
(-4.82779e-19 3.71417e-22 -0 3.7047e-19 -0 1.12308e-19)
(-4.57205e-19 -6.35209e-19 -0 3.19362e-19 -0 1.37842e-19)
(-4.07176e-19 -4.88634e-19 -0 2.19328e-19 -0 1.87848e-19)
(1.80381e-20 -5.47748e-19 -0 -3.60763e-20 -0 1.80381e-20)
(9.08374e-19 -6.08874e-19 -0 -6.26824e-19 -0 -2.8155e-19)
(1.29111e-19 -6.00326e-19 -0 -2.58223e-19 -0 1.29111e-19)
(5.43736e-20 -7.86823e-19 -0 -1.08747e-19 -0 5.43736e-20)
(3.28544e-20 -4.0526e-19 -0 -6.57088e-20 -0 3.28544e-20)
(4.70587e-19 -4.82568e-19 -0 -3.46337e-19 -0 -1.2425e-19)
(5.367e-20 -3.72062e-19 -0 -1.0734e-19 -0 5.367e-20)
(4.83398e-19 3.07011e-20 -0 -3.72009e-19 -0 -1.11389e-19)
(1.26365e-16 -1.02514e-16 -0 -2.65221e-16 -0 1.38857e-16)
(-2.26018e-17 1.19841e-16 -0 5.47299e-17 -0 -3.21282e-17)
(7.42824e-18 -2.49258e-17 -0 -1.36658e-17 -0 6.23753e-18)
(1.03164e-18 6.1157e-18 -0 1.5087e-18 -0 -2.54034e-18)
(3.73335e-19 -6.42011e-19 -0 -7.46671e-19 -0 3.73335e-19)
(-1.97636e-19 4.22467e-19 -0 3.95272e-19 -0 -1.97636e-19)
(-6.11295e-19 8.1449e-19 -0 6.27366e-19 -0 -1.60708e-20)
(-9.41613e-19 7.42173e-19 -0 6.92822e-19 -0 2.48791e-19)
(8.6458e-19 1.04953e-18 -0 -5.38837e-19 -0 -3.25743e-19)
(-8.67688e-19 6.56562e-19 -0 5.45099e-19 -0 3.2259e-19)
(-1.16661e-19 1.04371e-18 -0 2.33322e-19 -0 -1.16661e-19)
(-4.76901e-19 1.26048e-18 -0 3.58727e-19 -0 1.18175e-19)
(-4.98381e-19 1.23306e-18 -0 4.01725e-19 -0 9.66554e-20)
(2.09097e-20 1.00623e-18 -0 -4.18194e-20 -0 2.09097e-20)
(2.25645e-20 1.25509e-18 -0 -4.51289e-20 -0 2.25645e-20)
(3.97272e-19 1.11104e-18 -0 -1.99593e-19 -0 -1.97679e-19)
(-1.52807e-20 7.765e-19 -0 3.05613e-20 -0 -1.52807e-20)
(4.78866e-19 7.15125e-19 -0 -3.62843e-19 -0 -1.16023e-19)
(-3.36499e-19 2.7255e-19 -0 7.81289e-20 -0 2.5837e-19)
(4.43134e-19 2.76432e-19 -0 -2.9143e-19 -0 -1.51704e-19)
(-1.70528e-16 3.61844e-18 -0 3.48789e-16 -0 -1.78261e-16)
(3.85366e-17 4.22973e-18 -0 -7.70732e-17 -0 3.85366e-17)
(-1.12049e-17 -1.37858e-18 -0 1.88375e-17 -0 -7.63254e-18)
(4.5282e-19 -7.47922e-19 -0 -3.28716e-18 -0 2.83434e-18)
(-4.91992e-19 -2.84886e-19 -0 9.83984e-19 -0 -4.91992e-19)
(3.80978e-20 -8.27266e-19 -0 -7.61956e-20 -0 3.80978e-20)
(-1.1956e-19 -2.50538e-19 -0 2.3912e-19 -0 -1.1956e-19)
(-4.65904e-19 -3.06955e-20 -0 3.36555e-19 -0 1.29349e-19)
(1.12456e-20 -6.16409e-19 -0 -2.24912e-20 -0 1.12456e-20)
(1.25758e-19 -9.08437e-19 -0 -2.51517e-19 -0 1.25758e-19)
(1.37252e-18 -3.11346e-20 -0 -9.59592e-19 -0 -4.12927e-19)
(9.10349e-19 -2.13596e-19 -0 -6.30446e-19 -0 -2.79904e-19)
(-3.49095e-20 -4.01945e-19 -0 6.9819e-20 -0 -3.49095e-20)
(-1.81682e-19 -2.00308e-19 -0 3.63363e-19 -0 -1.81682e-19)
(-1.85159e-18 -5.70021e-19 -0 1.32308e-18 -0 5.28508e-19)
(-2.08817e-19 -4.32684e-19 -0 4.17634e-19 -0 -2.08817e-19)
(-1.71575e-19 6.62126e-19 -0 3.43149e-19 -0 -1.71575e-19)
(-4.69582e-19 -5.95703e-19 -0 3.44226e-19 -0 1.25356e-19)
(-1.90455e-20 -2.11225e-20 -0 3.8091e-20 -0 -1.90455e-20)
(-8.87032e-19 -1.06745e-19 -0 5.84289e-19 -0 3.02743e-19)
(1.34951e-16 1.223e-16 -0 -2.69902e-16 -0 1.34951e-16)
(-3.57918e-17 -1.3844e-16 -0 6.2651e-17 -0 -2.68592e-17)
(1.06645e-17 2.80273e-17 -0 -1.597e-17 -0 5.30543e-18)
(1.54396e-21 -7.274e-18 -0 2.37864e-18 -0 -2.38019e-18)
(3.43887e-19 -2.00349e-20 -0 -6.87774e-19 -0 3.43887e-19)
(-4.35145e-20 -1.02917e-18 -0 8.7029e-20 -0 -4.35145e-20)
(8.12806e-20 -1.10825e-18 -0 -1.62561e-19 -0 8.12806e-20)
(1.01901e-19 -6.4453e-19 -0 -2.03802e-19 -0 1.01901e-19)
(4.02397e-20 -7.30713e-19 -0 -8.04794e-20 -0 4.02397e-20)
(4.9365e-20 -4.92694e-19 -0 -9.87301e-20 -0 4.9365e-20)
(-3.8983e-19 -1.32357e-18 -0 1.84459e-19 -0 2.05371e-19)
(8.77155e-20 -1.09189e-18 -0 -1.75431e-19 -0 8.77155e-20)
(1.3147e-19 -9.97018e-19 -0 -2.62941e-19 -0 1.3147e-19)
(-4.41359e-20 -1.32664e-18 -0 8.82719e-20 -0 -4.41359e-20)
(-1.05077e-19 -7.86719e-19 -0 2.10154e-19 -0 -1.05077e-19)
(4.3817e-19 -8.13832e-19 -0 -2.81288e-19 -0 -1.56882e-19)
(5.57822e-19 -9.14684e-19 -0 -5.2063e-19 -0 -3.71916e-20)
(-3.33055e-19 -1.08545e-19 -0 7.11202e-20 -0 2.61935e-19)
(4.25136e-19 -2.91022e-19 -0 -2.55301e-19 -0 -1.69834e-19)
(3.65878e-19 -4.87815e-19 -0 -1.36817e-19 -0 -2.29061e-19)
(2.50669e-17 -1.99924e-16 -0 -2.69288e-17 -0 1.86195e-18)
(-1.96209e-17 2.1082e-16 -0 1.30371e-17 -0 6.58381e-18)
(3.07868e-18 -4.22657e-17 -0 -1.98878e-18 -0 -1.08989e-18)
(-2.13539e-18 1.08631e-17 -0 1.29333e-18 -0 8.42056e-19)
(4.60902e-19 -1.70596e-18 -0 -3.26357e-19 -0 -1.34544e-19)
(-7.10931e-20 1.05506e-18 -0 1.42186e-19 -0 -7.10931e-20)
(-1.03744e-19 4.24347e-19 -0 2.07489e-19 -0 -1.03744e-19)
(2.84222e-20 3.08573e-20 -0 -5.68444e-20 -0 2.84222e-20)
(1.77957e-22 5.75967e-20 -0 -3.55914e-22 -0 1.77957e-22)
(3.56142e-19 3.42492e-20 -0 -1.16986e-19 -0 -2.39156e-19)
(-5.12821e-19 -8.86813e-20 -0 4.30386e-19 -0 8.24351e-20)
(-1.08257e-19 -1.02798e-19 -0 2.16515e-19 -0 -1.08257e-19)
(-2.2841e-20 9.33686e-20 -0 4.5682e-20 -0 -2.2841e-20)
(5.88891e-20 4.52098e-19 -0 -1.17778e-19 -0 5.88891e-20)
(1.22515e-19 1.94156e-19 -0 -2.45029e-19 -0 1.22515e-19)
(1.4839e-19 6.55626e-19 -0 -2.9678e-19 -0 1.4839e-19)
(1.02099e-18 3.31495e-19 -0 -8.51842e-19 -0 -1.69147e-19)
(1.08798e-19 1.98229e-19 -0 -2.17595e-19 -0 1.08798e-19)
(3.53244e-20 4.17928e-19 -0 -7.06487e-20 -0 3.53244e-20)
(4.56319e-20 1.87341e-19 -0 -9.12639e-20 -0 4.56319e-20)
(-2.03316e-16 1.19778e-16 -0 3.57838e-16 -0 -1.54522e-16)
(8.09796e-17 -1.26888e-16 -0 -9.6441e-17 -0 1.54614e-17)
(-1.91243e-17 2.5925e-17 -0 2.27638e-17 -0 -3.63952e-18)
(2.24032e-18 -5.73074e-18 -0 -3.88509e-18 -0 1.64477e-18)
(-8.60776e-19 1.64749e-18 -0 1.12605e-18 -0 -2.65272e-19)
(4.27979e-19 4.13153e-19 -0 -2.60476e-19 -0 -1.67503e-19)
(-1.34293e-18 5.28579e-19 -0 8.99545e-19 -0 4.43389e-19)
(-5.18211e-19 9.8571e-19 -0 4.41004e-19 -0 7.72074e-20)
(-4.67408e-19 1.15901e-18 -0 3.39438e-19 -0 1.2797e-19)
(-1.43218e-20 5.74516e-19 -0 2.86435e-20 -0 -1.43218e-20)
(1.63319e-20 1.15876e-18 -0 -3.26639e-20 -0 1.63319e-20)
(-3.07025e-21 5.54058e-19 -0 6.1405e-21 -0 -3.07025e-21)
(3.07655e-20 5.37811e-19 -0 -6.1531e-20 -0 3.07655e-20)
(1.38038e-19 1.13358e-18 -0 -2.76076e-19 -0 1.38038e-19)
(9.35281e-19 1.16201e-18 -0 -6.80185e-19 -0 -2.55096e-19)
(6.79134e-19 8.13889e-19 -0 -1.67938e-19 -0 -5.11196e-19)
(-9.9876e-19 3.72045e-20 -0 8.0727e-19 -0 1.91491e-19)
(-4.35414e-20 1.79808e-19 -0 8.70829e-20 -0 -4.35414e-20)
(1.63903e-20 1.01213e-19 -0 -3.27806e-20 -0 1.63903e-20)
(1.00311e-20 -6.89378e-20 -0 -2.00623e-20 -0 1.00311e-20)
(2.2467e-16 6.93716e-17 -0 -3.9935e-16 -0 1.7468e-16)
(-8.67781e-17 -5.20412e-17 -0 1.05649e-16 -0 -1.88708e-17)
(2.26299e-17 9.72123e-18 -0 -2.61998e-17 -0 3.56989e-18)
(-3.61191e-18 -2.83273e-18 -0 4.84141e-18 -0 -1.2295e-18)
(1.34458e-18 1.01222e-18 -0 -1.49803e-18 -0 1.53454e-19)
(1.24689e-19 -6.03397e-19 -0 -2.49379e-19 -0 1.24689e-19)
(1.49087e-18 5.73406e-20 -0 -1.19525e-18 -0 -2.95622e-19)
(7.55106e-20 2.06262e-19 -0 -1.51021e-19 -0 7.55106e-20)
(3.23354e-20 1.94908e-19 -0 -6.46708e-20 -0 3.23354e-20)
(-9.56961e-21 7.97132e-19 -0 1.91392e-20 -0 -9.56961e-21)
(-3.13901e-20 7.87482e-19 -0 6.27801e-20 -0 -3.13901e-20)
(-4.24258e-20 7.68549e-19 -0 8.48517e-20 -0 -4.24258e-20)
(8.18446e-19 4.77005e-19 -0 -4.46274e-19 -0 -3.72171e-19)
(-1.6121e-20 2.85757e-19 -0 3.22421e-20 -0 -1.6121e-20)
(-8.87186e-19 2.75286e-19 -0 5.8388e-19 -0 3.03305e-19)
(-5.38621e-19 -1.41964e-20 -0 4.82021e-19 -0 5.66008e-20)
(-9.49017e-19 -7.23461e-20 -0 7.0767e-19 -0 2.41348e-19)
(-6.4635e-20 4.60931e-19 -0 1.2927e-19 -0 -6.4635e-20)
(-2.73435e-20 4.00737e-20 -0 5.46871e-20 -0 -2.73435e-20)
(-3.22557e-21 -7.0542e-20 -0 6.45113e-21 -0 -3.22557e-21)
(-1.03446e-17 -1.93118e-16 -0 2.18794e-17 -0 -1.15349e-17)
(2.91081e-18 1.71429e-16 -0 -5.2259e-18 -0 2.31508e-18)
(-1.00533e-18 -3.38898e-17 -0 1.41499e-18 -0 -4.09655e-19)
(2.25309e-19 8.62577e-18 -0 -4.50618e-19 -0 2.25309e-19)
(4.0267e-20 -1.57477e-18 -0 -8.05339e-20 -0 4.0267e-20)
(9.06778e-20 1.08693e-18 -0 -1.81356e-19 -0 9.06778e-20)
(5.25103e-19 3.04658e-19 -0 -4.54656e-19 -0 -7.04472e-20)
(9.01206e-20 1.96161e-19 -0 -1.80241e-19 -0 9.01206e-20)
(7.67977e-20 9.58718e-20 -0 -1.53595e-19 -0 7.67977e-20)
(9.37477e-21 7.47554e-20 -0 -1.87495e-20 -0 9.37477e-21)
(-8.79201e-20 -5.78009e-19 -0 1.7584e-19 -0 -8.79201e-20)
(-6.10588e-19 -1.25385e-19 -0 6.25775e-19 -0 -1.51872e-20)
(-1.03809e-18 -9.69062e-20 -0 8.85459e-19 -0 1.52631e-19)
(-1.02158e-18 -7.72535e-19 -0 8.52478e-19 -0 1.69098e-19)
(-2.17992e-19 -7.3276e-19 -0 4.35984e-19 -0 -2.17992e-19)
(4.27623e-19 -8.78882e-19 -0 -2.59972e-19 -0 -1.67651e-19)
(5.60746e-19 -3.76155e-19 -0 -5.26258e-19 -0 -3.44882e-20)
(-1.15429e-20 -1.2311e-20 -0 2.30857e-20 -0 -1.15429e-20)
(-4.68215e-19 9.11307e-21 -0 3.41239e-19 -0 1.26976e-19)
(4.24649e-19 -1.14806e-19 -0 -2.54138e-19 -0 -1.70511e-19)
(-2.07821e-16 6.65505e-17 -0 3.6862e-16 -0 -1.608e-16)
(8.07006e-17 -6.51789e-17 -0 -9.70592e-17 -0 1.63585e-17)
(-1.95532e-17 1.19635e-17 -0 2.30222e-17 -0 -3.46902e-18)
(3.19959e-18 -4.10372e-18 -0 -4.61211e-18 -0 1.41252e-18)
(-3.41988e-19 -5.7265e-19 -0 6.83976e-19 -0 -3.41988e-19)
(-8.04707e-19 -1.33084e-18 -0 4.18162e-19 -0 3.86545e-19)
(5.85241e-19 -1.43079e-18 -0 2.06904e-20 -0 -6.05931e-19)
(-9.04207e-19 -9.07938e-19 -0 6.17288e-19 -0 2.86919e-19)
(-4.44063e-19 -1.47052e-18 -0 2.92603e-19 -0 1.5146e-19)
(-1.67318e-20 -1.33766e-18 -0 3.34636e-20 -0 -1.67318e-20)
(3.73271e-19 -9.61939e-19 -0 -1.51081e-19 -0 -2.2219e-19)
(-9.7815e-20 -1.08079e-18 -0 1.9563e-19 -0 -9.7815e-20)
(-5.94159e-19 -9.90175e-19 -0 5.92918e-19 -0 1.24033e-21)
(-9.34704e-19 -3.48968e-19 -0 6.78657e-19 -0 2.56047e-19)
(-4.58062e-19 1.85142e-19 -0 3.20787e-19 -0 1.37275e-19)
(5.63027e-20 8.20058e-21 -0 -1.12605e-19 -0 5.63027e-20)
(4.98838e-19 2.88756e-19 -0 -4.02403e-19 -0 -9.64353e-20)
(1.62231e-20 -3.76465e-19 -0 -3.24462e-20 -0 1.62231e-20)
(-9.97327e-21 -3.16669e-19 -0 1.99465e-20 -0 -9.97327e-21)
(2.14543e-20 -4.33469e-19 -0 -4.29086e-20 -0 2.14543e-20)
(1.26918e-16 9.82546e-17 -0 -2.30622e-16 -0 1.03704e-16)
(-4.6609e-17 -1.03415e-16 -0 5.86951e-17 -0 -1.20862e-17)
(1.11882e-17 2.15694e-17 -0 -1.40433e-17 -0 2.85512e-18)
(-1.6418e-18 -4.99549e-18 -0 2.68838e-18 -0 -1.04658e-18)
(-2.3277e-19 1.45202e-18 -0 -1.2968e-19 -0 3.6245e-19)
(-6.32457e-20 2.91531e-19 -0 1.26491e-19 -0 -6.32457e-20)
(6.69977e-20 7.5139e-19 -0 -1.33995e-19 -0 6.69977e-20)
(4.76438e-19 -4.65231e-20 -0 -3.57655e-19 -0 -1.18783e-19)
(4.23073e-19 5.51046e-19 -0 -2.50926e-19 -0 -1.72147e-19)
(6.23625e-20 6.34951e-19 -0 -1.24725e-19 -0 6.23625e-20)
(1.53429e-19 4.36602e-19 -0 -3.06858e-19 -0 1.53429e-19)
(7.04432e-19 4.32473e-19 -0 -8.13643e-19 -0 1.09211e-19)
(1.11033e-18 2.65308e-19 -0 -1.03022e-18 -0 -8.01127e-20)
(6.18199e-19 2.14046e-19 -0 -6.41177e-19 -0 2.29783e-20)
(6.23627e-19 -1.35526e-19 -0 -6.52033e-19 -0 2.84063e-20)
(8.49658e-19 -2.30681e-19 -0 -5.08876e-19 -0 -3.40783e-19)
(-9.13542e-19 -1.84287e-20 -0 6.36643e-19 -0 2.76899e-19)
(-3.58989e-19 1.55619e-19 -0 1.22756e-19 -0 2.36232e-19)
(-2.67133e-19 2.98875e-19 -0 -6.09538e-20 -0 3.28087e-19)
(8.19593e-19 2.00016e-19 -0 -4.48745e-19 -0 -3.70848e-19)
)
;

boundaryField
{
    movingWall
    {
        type            calculated;
        value           nonuniform List<symmTensor> 
20
(
(2.66827e-16 1.44532e-17 -0 -5.12512e-16 -0 2.45685e-16)
(-7.40955e-17 -7.23567e-17 -0 1.16749e-16 -0 -4.26536e-17)
(1.74714e-17 2.14959e-17 -0 -2.73535e-17 -0 9.88203e-18)
(-3.27873e-18 -1.88514e-18 -0 6.01536e-18 -0 -2.73663e-18)
(-8.20423e-20 4.16001e-18 -0 -3.78017e-19 -0 4.60059e-19)
(-1.13632e-19 3.54718e-18 -0 2.27264e-19 -0 -1.13632e-19)
(2.64594e-19 4.13904e-18 -0 -5.29189e-19 -0 2.64594e-19)
(6.27056e-19 2.62216e-18 -0 -7.12011e-19 -0 8.49551e-20)
(5.13005e-19 3.06839e-18 -0 -4.83909e-19 -0 -2.90961e-20)
(1.5837e-19 2.70072e-18 -0 -3.1674e-19 -0 1.5837e-19)
(2.48096e-19 2.79112e-18 -0 -4.96192e-19 -0 2.48096e-19)
(8.57338e-19 2.78736e-18 -0 -1.17257e-18 -0 3.15237e-19)
(1.29844e-18 1.74694e-18 -0 -1.51267e-18 -0 2.14233e-19)
(7.78886e-19 8.12071e-19 -0 -1.01567e-18 -0 2.36785e-19)
(7.34082e-19 -1.23432e-19 -0 -9.26064e-19 -0 1.91981e-19)
(8.11136e-19 -2.10094e-19 -0 -5.38069e-19 -0 -2.73066e-19)
(-9.10371e-19 -9.04963e-19 -0 7.3654e-19 -0 1.73831e-19)
(-3.17824e-19 1.41731e-19 -0 9.35468e-20 -0 2.24277e-19)
(-1.71022e-19 4.45241e-19 -0 -2.00058e-19 -0 3.71079e-19)
(7.69449e-19 7.99293e-19 -0 -4.54696e-19 -0 -3.14753e-19)
)
;
    }
    fixedWalls
    {
        type            calculated;
        value           nonuniform List<symmTensor> 
60
(
(2.13179e-16 -7.07458e-16 -0 -2.91355e-16 -0 7.81761e-17)
(-4.0335e-16 -5.38314e-17 -0 5.3403e-16 -0 -1.3068e-16)
(1.32671e-16 6.97584e-16 -0 -1.71196e-16 -0 3.85243e-17)
(2.39759e-16 -5.12031e-16 -0 -2.84119e-16 -0 4.43599e-17)
(-3.25385e-16 -2.25286e-17 -0 3.94087e-16 -0 -6.87016e-17)
(2.01868e-16 4.81308e-16 -0 -2.45641e-16 -0 4.37725e-17)
(-1.20084e-17 -6.18973e-16 -0 -4.17084e-17 -0 5.37168e-17)
(-1.54384e-16 2.82868e-16 -0 2.91004e-16 -0 -1.3662e-16)
(1.92032e-16 2.5552e-16 -0 -3.20115e-16 -0 1.28083e-16)
(-1.04226e-16 -6.30334e-16 -0 1.6493e-16 -0 -6.07048e-17)
(9.89528e-18 7.09501e-16 -0 4.06056e-17 -0 -5.05009e-17)
(9.25524e-17 -4.53814e-16 -0 -2.30402e-16 -0 1.37849e-16)
(-1.52988e-16 -1.80572e-17 -0 3.16634e-16 -0 -1.63646e-16)
(1.3836e-16 5.24094e-16 -0 -2.53628e-16 -0 1.15267e-16)
(7.62453e-17 -7.97589e-16 -0 -5.12383e-17 -0 -2.5007e-17)
(-3.17237e-16 4.79492e-16 -0 3.92001e-16 -0 -7.47643e-17)
(3.42461e-16 1.98826e-16 -0 -4.32679e-16 -0 9.02182e-17)
(-1.19214e-17 -6.46534e-16 -0 2.11783e-17 -0 -9.2569e-18)
(-3.19417e-16 2.45331e-16 -0 4.00802e-16 -0 -8.13852e-17)
(1.82025e-16 3.93735e-16 -0 -2.43257e-16 -0 6.12325e-17)
(5.92392e-19 4.80669e-20 -0 -2.96605e-19 -0 -2.95787e-19)
(-1.25371e-18 -4.64306e-20 -0 7.31068e-19 -0 5.22644e-19)
(-5.56037e-20 -3.6878e-19 -0 1.11207e-19 -0 -5.56037e-20)
(6.53248e-19 -6.51103e-19 -0 -4.18318e-19 -0 -2.3493e-19)
(6.68551e-19 2.69045e-19 -0 -4.48923e-19 -0 -2.19627e-19)
(-1.54533e-20 7.85394e-20 -0 3.09066e-20 -0 -1.54533e-20)
(-5.10638e-20 -9.47254e-20 -0 1.02128e-19 -0 -5.10638e-20)
(-2.4761e-20 -2.27844e-19 -0 4.9522e-20 -0 -2.4761e-20)
(5.66596e-19 -5.14342e-19 -0 -2.45014e-19 -0 -3.21582e-19)
(1.16384e-18 -6.5203e-19 -0 -5.51327e-19 -0 -6.12515e-19)
(1.26342e-18 -9.46179e-20 -0 -7.50476e-19 -0 -5.12941e-19)
(6.34565e-19 3.65141e-19 -0 -3.80952e-19 -0 -2.53613e-19)
(-1.26976e-18 -1.10991e-19 -0 7.63161e-19 -0 5.06598e-19)
(5.64102e-19 -6.90087e-19 -0 -2.40025e-19 -0 -3.24077e-19)
(4.15754e-20 -8.04484e-21 -0 -8.31508e-20 -0 4.15754e-20)
(9.13853e-21 -1.69584e-19 -0 -1.82771e-20 -0 9.13853e-21)
(-2.93826e-21 -2.24264e-19 -0 5.87652e-21 -0 -2.93826e-21)
(6.1751e-19 -1.87213e-19 -0 -3.46841e-19 -0 -2.70669e-19)
(1.95404e-20 -3.42971e-19 -0 -3.90807e-20 -0 1.95404e-20)
(1.20789e-18 2.01079e-19 -0 -6.39416e-19 -0 -5.6847e-19)
(4.75794e-16 -6.78015e-17 -0 -9.28279e-16 -0 4.52484e-16)
(-1.22576e-16 1.42452e-16 -0 2.10457e-16 -0 -8.78813e-17)
(3.00428e-17 -3.71979e-17 -0 -5.03278e-17 -0 2.0285e-17)
(-5.35003e-18 6.55389e-18 -0 1.0158e-17 -0 -4.80793e-18)
(1.3236e-18 -4.63864e-18 -0 -2.6472e-18 -0 1.3236e-18)
(6.3704e-19 -1.48515e-18 -0 -7.31978e-19 -0 9.49386e-20)
(9.08458e-19 -1.77425e-18 -0 -1.27481e-18 -0 3.66357e-19)
(2.70016e-19 -1.13607e-18 -0 -5.40033e-19 -0 2.70016e-19)
(2.38725e-20 -7.26006e-19 -0 -4.77449e-20 -0 2.38725e-20)
(-1.62442e-19 -8.71209e-19 -0 3.24884e-19 -0 -1.62442e-19)
(-2.13786e-20 -1.4733e-18 -0 4.27573e-20 -0 -2.13786e-20)
(2.13637e-19 -1.00298e-18 -0 -4.27274e-19 -0 2.13637e-19)
(6.4616e-19 -4.22225e-19 -0 -7.50219e-19 -0 1.04059e-19)
(5.16733e-19 -3.56964e-19 -0 -4.91364e-19 -0 -2.53684e-20)
(7.75226e-19 1.01031e-18 -0 -4.6625e-19 -0 -3.08976e-19)
(-8.93143e-19 9.48073e-19 -0 7.02083e-19 -0 1.9106e-19)
(-8.30097e-19 -1.01952e-18 -0 5.75991e-19 -0 2.54105e-19)
(5.41305e-19 -5.63108e-19 -0 -5.40509e-19 -0 -7.95946e-22)
(2.10087e-19 5.54474e-20 -0 -4.20174e-19 -0 2.10087e-19)
(3.93445e-19 -3.5329e-19 -0 -2.4479e-19 -0 -1.48656e-19)
)
;
    }
    frontAndBack
    {
        type            empty;
    }
}


// ************************************************************************* //
