/*--------------------------------*- C++ -*----------------------------------*\
| =========                 |                                                 |
| \\      /  F ield         | OpenFOAM: The Open Source CFD Toolbox           |
|  \\    /   O peration     | Version:  2506                                  |
|   \\  /    A nd           | Website:  www.openfoam.com                      |
|    \\/     M anipulation  |                                                 |
\*---------------------------------------------------------------------------*/
FoamFile
{
    version     2.0;
    format      ascii;
    arch        "LSB;label=32;scalar=64";
    class       volSymmTensorField;
    location    "9.5";
    object      turbulenceProperties:R;
}
// * * * * * * * * * * * * * * * * * * * * * * * * * * * * * * * * * * * * * //

dimensions      [0 2 -2 0 0 0 0];

internalField   nonuniform List<symmTensor> 
400
(
(1.78859e-06 -1.39854e-17 -0 1.78859e-06 -0 1.78859e-06)
(1.78859e-06 1.55531e-17 -0 1.78859e-06 -0 1.78859e-06)
(1.78859e-06 -3.27587e-18 -0 1.78859e-06 -0 1.78859e-06)
(1.78859e-06 7.89428e-19 -0 1.78859e-06 -0 1.78859e-06)
(1.78859e-06 -2.0606e-19 -0 1.78859e-06 -0 1.78859e-06)
(1.78859e-06 7.64807e-20 -0 1.78859e-06 -0 1.78859e-06)
(1.78859e-06 4.99476e-20 -0 1.78859e-06 -0 1.78859e-06)
(1.78859e-06 1.80067e-20 -0 1.78859e-06 -0 1.78859e-06)
(1.78859e-06 1.48841e-20 -0 1.78859e-06 -0 1.78859e-06)
(1.78859e-06 1.55743e-21 -0 1.78859e-06 -0 1.78859e-06)
(1.78859e-06 -1.29437e-20 -0 1.78859e-06 -0 1.78859e-06)
(1.78859e-06 3.92176e-20 -0 1.78859e-06 -0 1.78859e-06)
(1.78859e-06 2.00671e-21 -0 1.78859e-06 -0 1.78859e-06)
(1.78859e-06 7.99638e-21 -0 1.78859e-06 -0 1.78859e-06)
(1.78859e-06 8.58399e-20 -0 1.78859e-06 -0 1.78859e-06)
(1.78859e-06 8.01283e-20 -0 1.78859e-06 -0 1.78859e-06)
(1.78859e-06 -1.20546e-20 -0 1.78859e-06 -0 1.78859e-06)
(1.78859e-06 3.88305e-20 -0 1.78859e-06 -0 1.78859e-06)
(1.78859e-06 5.4843e-20 -0 1.78859e-06 -0 1.78859e-06)
(1.78859e-06 8.33357e-21 -0 1.78859e-06 -0 1.78859e-06)
(1.81179e-06 -1.37381e-18 -0 1.81179e-06 -0 1.81179e-06)
(1.81179e-06 1.30995e-18 -0 1.81179e-06 -0 1.81179e-06)
(1.81176e-06 -1.27063e-19 -0 1.81176e-06 -0 1.81176e-06)
(1.81174e-06 1.17888e-19 -0 1.81174e-06 -0 1.81174e-06)
(1.81172e-06 4.64232e-20 -0 1.81172e-06 -0 1.81172e-06)
(1.8117e-06 4.15659e-20 -0 1.8117e-06 -0 1.8117e-06)
(1.81168e-06 4.17102e-20 -0 1.81168e-06 -0 1.81168e-06)
(1.81167e-06 7.91339e-20 -0 1.81167e-06 -0 1.81167e-06)
(1.81165e-06 5.94481e-20 -0 1.81165e-06 -0 1.81165e-06)
(1.81164e-06 5.39158e-20 -0 1.81164e-06 -0 1.81164e-06)
(1.81163e-06 6.667e-20 -0 1.81163e-06 -0 1.81163e-06)
(1.81162e-06 2.53678e-20 -0 1.81162e-06 -0 1.81162e-06)
(1.81161e-06 4.85478e-20 -0 1.81161e-06 -0 1.81161e-06)
(1.8116e-06 5.41276e-20 -0 1.8116e-06 -0 1.8116e-06)
(1.81159e-06 -1.86396e-21 -0 1.81159e-06 -0 1.81159e-06)
(1.81159e-06 -5.91647e-21 -0 1.81159e-06 -0 1.81159e-06)
(1.81158e-06 4.49883e-20 -0 1.81158e-06 -0 1.81158e-06)
(1.81158e-06 -9.51241e-21 -0 1.81158e-06 -0 1.81158e-06)
(1.81158e-06 -2.90509e-21 -0 1.81158e-06 -0 1.81158e-06)
(1.81158e-06 -2.41922e-21 -0 1.81158e-06 -0 1.81158e-06)
(1.84954e-06 1.71643e-17 -0 1.84954e-06 -0 1.84954e-06)
(1.84954e-06 -1.58658e-17 -0 1.84954e-06 -0 1.84954e-06)
(1.84949e-06 3.13806e-18 -0 1.84949e-06 -0 1.84949e-06)
(1.84948e-06 -8.9694e-19 -0 1.84948e-06 -0 1.84948e-06)
(1.84945e-06 9.13666e-20 -0 1.84945e-06 -0 1.84945e-06)
(1.84944e-06 -1.58511e-19 -0 1.84944e-06 -0 1.84944e-06)
(1.84942e-06 -6.90539e-20 -0 1.84942e-06 -0 1.84942e-06)
(1.84941e-06 -8.02367e-20 -0 1.84941e-06 -0 1.84941e-06)
(1.84938e-06 -2.84919e-20 -0 1.84938e-06 -0 1.84938e-06)
(1.84938e-06 -1.9376e-20 -0 1.84938e-06 -0 1.84938e-06)
(1.84936e-06 -5.97887e-20 -0 1.84936e-06 -0 1.84936e-06)
(1.84935e-06 -6.81608e-20 -0 1.84935e-06 -0 1.84935e-06)
(1.84934e-06 -5.79715e-20 -0 1.84934e-06 -0 1.84934e-06)
(1.84934e-06 -6.8352e-20 -0 1.84934e-06 -0 1.84934e-06)
(1.84932e-06 -6.00968e-20 -0 1.84932e-06 -0 1.84932e-06)
(1.84932e-06 -4.54479e-20 -0 1.84932e-06 -0 1.84932e-06)
(1.84931e-06 -5.83501e-20 -0 1.84931e-06 -0 1.84931e-06)
(1.84931e-06 -6.23096e-20 -0 1.84931e-06 -0 1.84931e-06)
(1.84931e-06 -5.46942e-20 -0 1.84931e-06 -0 1.84931e-06)
(1.84931e-06 -2.39018e-20 -0 1.84931e-06 -0 1.84931e-06)
(1.89088e-06 -1.27249e-17 -0 1.89088e-06 -0 1.89088e-06)
(1.89089e-06 1.16795e-17 -0 1.89089e-06 -0 1.89089e-06)
(1.89084e-06 -2.49948e-18 -0 1.89084e-06 -0 1.89084e-06)
(1.89083e-06 5.13297e-19 -0 1.89083e-06 -0 1.89083e-06)
(1.8908e-06 -1.93982e-19 -0 1.8908e-06 -0 1.8908e-06)
(1.89078e-06 -9.79163e-22 -0 1.89078e-06 -0 1.89078e-06)
(1.89076e-06 -7.32268e-20 -0 1.89076e-06 -0 1.89076e-06)
(1.89075e-06 -4.21964e-20 -0 1.89075e-06 -0 1.89075e-06)
(1.89072e-06 -9.9317e-20 -0 1.89072e-06 -0 1.89072e-06)
(1.89072e-06 -9.93092e-20 -0 1.89072e-06 -0 1.89072e-06)
(1.8907e-06 -4.23637e-20 -0 1.8907e-06 -0 1.8907e-06)
(1.89069e-06 -5.44992e-20 -0 1.89069e-06 -0 1.89069e-06)
(1.89067e-06 -5.4355e-20 -0 1.89067e-06 -0 1.89067e-06)
(1.89067e-06 -2.49943e-20 -0 1.89067e-06 -0 1.89067e-06)
(1.89066e-06 -6.31509e-21 -0 1.89066e-06 -0 1.89066e-06)
(1.89066e-06 -3.88735e-20 -0 1.89066e-06 -0 1.89066e-06)
(1.89065e-06 -2.68984e-20 -0 1.89065e-06 -0 1.89065e-06)
(1.89065e-06 -1.37066e-20 -0 1.89065e-06 -0 1.89065e-06)
(1.89065e-06 5.98287e-21 -0 1.89065e-06 -0 1.89065e-06)
(1.89065e-06 -4.59997e-20 -0 1.89065e-06 -0 1.89065e-06)
(1.92739e-06 -7.50708e-19 -0 1.92739e-06 -0 1.92739e-06)
(1.92739e-06 4.26975e-19 -0 1.92739e-06 -0 1.92739e-06)
(1.92734e-06 -1.19239e-19 -0 1.92734e-06 -0 1.92734e-06)
(1.92733e-06 2.21579e-20 -0 1.92733e-06 -0 1.92733e-06)
(1.9273e-06 -3.70492e-20 -0 1.9273e-06 -0 1.9273e-06)
(1.92728e-06 -1.27127e-20 -0 1.92728e-06 -0 1.92728e-06)
(1.92726e-06 1.70779e-20 -0 1.92726e-06 -0 1.92726e-06)
(1.92724e-06 2.13389e-20 -0 1.92724e-06 -0 1.92724e-06)
(1.92722e-06 4.56292e-20 -0 1.92722e-06 -0 1.92722e-06)
(1.92721e-06 6.80353e-20 -0 1.92721e-06 -0 1.92721e-06)
(1.92719e-06 5.49134e-20 -0 1.92719e-06 -0 1.92719e-06)
(1.92718e-06 1.54106e-20 -0 1.92718e-06 -0 1.92718e-06)
(1.92717e-06 4.69002e-21 -0 1.92717e-06 -0 1.92717e-06)
(1.92717e-06 -2.42553e-20 -0 1.92717e-06 -0 1.92717e-06)
(1.92715e-06 -2.01795e-20 -0 1.92715e-06 -0 1.92715e-06)
(1.92715e-06 -3.38417e-21 -0 1.92715e-06 -0 1.92715e-06)
(1.92714e-06 3.88856e-20 -0 1.92714e-06 -0 1.92714e-06)
(1.92714e-06 2.12047e-20 -0 1.92714e-06 -0 1.92714e-06)
(1.92714e-06 -2.30177e-20 -0 1.92714e-06 -0 1.92714e-06)
(1.92714e-06 2.60867e-20 -0 1.92714e-06 -0 1.92714e-06)
(1.95535e-06 1.08737e-17 -0 1.95535e-06 -0 1.95535e-06)
(1.95535e-06 -1.12266e-17 -0 1.95535e-06 -0 1.95535e-06)
(1.9553e-06 2.27013e-18 -0 1.9553e-06 -0 1.9553e-06)
(1.95529e-06 -6.1006e-19 -0 1.95529e-06 -0 1.95529e-06)
(1.95526e-06 1.11314e-19 -0 1.95526e-06 -0 1.95526e-06)
(1.95524e-06 -3.94527e-20 -0 1.95524e-06 -0 1.95524e-06)
(1.95521e-06 2.38814e-20 -0 1.95521e-06 -0 1.95521e-06)
(1.9552e-06 1.38092e-21 -0 1.9552e-06 -0 1.9552e-06)
(1.95518e-06 7.94908e-21 -0 1.95518e-06 -0 1.95518e-06)
(1.95517e-06 1.22299e-20 -0 1.95517e-06 -0 1.95517e-06)
(1.95515e-06 1.32282e-20 -0 1.95515e-06 -0 1.95515e-06)
(1.95514e-06 2.36239e-20 -0 1.95514e-06 -0 1.95514e-06)
(1.95513e-06 -1.04505e-20 -0 1.95513e-06 -0 1.95513e-06)
(1.95512e-06 -7.64436e-21 -0 1.95512e-06 -0 1.95512e-06)
(1.95511e-06 -4.80093e-21 -0 1.95511e-06 -0 1.95511e-06)
(1.95511e-06 -2.05847e-21 -0 1.95511e-06 -0 1.95511e-06)
(1.9551e-06 -3.17839e-20 -0 1.9551e-06 -0 1.9551e-06)
(1.9551e-06 1.76843e-20 -0 1.9551e-06 -0 1.9551e-06)
(1.9551e-06 2.92476e-20 -0 1.9551e-06 -0 1.9551e-06)
(1.9551e-06 9.34941e-21 -0 1.9551e-06 -0 1.9551e-06)
(1.97483e-06 -1.34177e-17 -0 1.97483e-06 -0 1.97483e-06)
(1.97483e-06 1.47353e-17 -0 1.97483e-06 -0 1.97483e-06)
(1.97478e-06 -2.82908e-18 -0 1.97478e-06 -0 1.97478e-06)
(1.97477e-06 8.59794e-19 -0 1.97477e-06 -0 1.97477e-06)
(1.97474e-06 -2.42362e-20 -0 1.97474e-06 -0 1.97474e-06)
(1.97472e-06 1.40404e-19 -0 1.97472e-06 -0 1.97472e-06)
(1.9747e-06 3.9035e-20 -0 1.9747e-06 -0 1.9747e-06)
(1.97468e-06 1.98322e-20 -0 1.97468e-06 -0 1.97468e-06)
(1.97466e-06 1.34763e-20 -0 1.97466e-06 -0 1.97466e-06)
(1.97464e-06 4.45399e-20 -0 1.97464e-06 -0 1.97464e-06)
(1.97463e-06 5.82654e-21 -0 1.97463e-06 -0 1.97463e-06)
(1.97462e-06 1.75864e-20 -0 1.97462e-06 -0 1.97462e-06)
(1.9746e-06 7.18719e-20 -0 1.9746e-06 -0 1.9746e-06)
(1.9746e-06 1.05657e-19 -0 1.9746e-06 -0 1.9746e-06)
(1.97459e-06 1.81249e-20 -0 1.97459e-06 -0 1.97459e-06)
(1.97458e-06 2.93483e-20 -0 1.97458e-06 -0 1.97458e-06)
(1.97458e-06 -1.63999e-20 -0 1.97458e-06 -0 1.97458e-06)
(1.97457e-06 7.22599e-21 -0 1.97457e-06 -0 1.97457e-06)
(1.97457e-06 4.61296e-21 -0 1.97457e-06 -0 1.97457e-06)
(1.97457e-06 -1.86087e-21 -0 1.97457e-06 -0 1.97457e-06)
(1.9877e-06 6.63748e-18 -0 1.9877e-06 -0 1.9877e-06)
(1.9877e-06 -6.67068e-18 -0 1.9877e-06 -0 1.9877e-06)
(1.98765e-06 1.31919e-18 -0 1.98765e-06 -0 1.98765e-06)
(1.98764e-06 -3.86992e-19 -0 1.98764e-06 -0 1.98764e-06)
(1.9876e-06 5.24675e-20 -0 1.9876e-06 -0 1.9876e-06)
(1.98759e-06 3.16825e-22 -0 1.98759e-06 -0 1.98759e-06)
(1.98756e-06 -5.06023e-20 -0 1.98756e-06 -0 1.98756e-06)
(1.98755e-06 3.02411e-20 -0 1.98755e-06 -0 1.98755e-06)
(1.98752e-06 2.08776e-20 -0 1.98752e-06 -0 1.98752e-06)
(1.98752e-06 1.23069e-20 -0 1.98752e-06 -0 1.98752e-06)
(1.98749e-06 3.49228e-20 -0 1.98749e-06 -0 1.98749e-06)
(1.98749e-06 7.89477e-21 -0 1.98749e-06 -0 1.98749e-06)
(1.98747e-06 -4.55201e-20 -0 1.98747e-06 -0 1.98747e-06)
(1.98746e-06 -3.01575e-20 -0 1.98746e-06 -0 1.98746e-06)
(1.98745e-06 4.37573e-20 -0 1.98745e-06 -0 1.98745e-06)
(1.98745e-06 -1.11071e-20 -0 1.98745e-06 -0 1.98745e-06)
(1.98744e-06 3.9978e-20 -0 1.98744e-06 -0 1.98744e-06)
(1.98744e-06 -2.18789e-21 -0 1.98744e-06 -0 1.98744e-06)
(1.98744e-06 1.31157e-20 -0 1.98744e-06 -0 1.98744e-06)
(1.98744e-06 -4.45618e-22 -0 1.98744e-06 -0 1.98744e-06)
(1.99615e-06 4.62509e-18 -0 1.99615e-06 -0 1.99615e-06)
(1.99615e-06 -6.24393e-18 -0 1.99615e-06 -0 1.99615e-06)
(1.9961e-06 1.10582e-18 -0 1.9961e-06 -0 1.9961e-06)
(1.99609e-06 -3.79803e-19 -0 1.99609e-06 -0 1.99609e-06)
(1.99605e-06 -1.64966e-20 -0 1.99605e-06 -0 1.99605e-06)
(1.99604e-06 -1.28212e-19 -0 1.99604e-06 -0 1.99604e-06)
(1.99601e-06 -5.62621e-20 -0 1.99601e-06 -0 1.99601e-06)
(1.99599e-06 -2.23462e-20 -0 1.99599e-06 -0 1.99599e-06)
(1.99597e-06 2.90036e-21 -0 1.99597e-06 -0 1.99597e-06)
(1.99596e-06 -2.14007e-20 -0 1.99596e-06 -0 1.99596e-06)
(1.99594e-06 2.25192e-20 -0 1.99594e-06 -0 1.99594e-06)
(1.99593e-06 2.04879e-20 -0 1.99593e-06 -0 1.99593e-06)
(1.99592e-06 6.60271e-20 -0 1.99592e-06 -0 1.99592e-06)
(1.99591e-06 -2.03862e-20 -0 1.99591e-06 -0 1.99591e-06)
(1.9959e-06 -4.25428e-20 -0 1.9959e-06 -0 1.9959e-06)
(1.9959e-06 -1.30565e-20 -0 1.9959e-06 -0 1.9959e-06)
(1.99589e-06 3.39092e-20 -0 1.99589e-06 -0 1.99589e-06)
(1.99589e-06 4.72106e-20 -0 1.99589e-06 -0 1.99589e-06)
(1.99588e-06 1.47544e-20 -0 1.99588e-06 -0 1.99588e-06)
(1.99588e-06 -2.64028e-20 -0 1.99588e-06 -0 1.99588e-06)
(2.00199e-06 -1.20122e-17 -0 2.00199e-06 -0 2.00199e-06)
(2.00199e-06 1.50249e-17 -0 2.00199e-06 -0 2.00199e-06)
(2.00194e-06 -2.93552e-18 -0 2.00194e-06 -0 2.00194e-06)
(2.00192e-06 7.77192e-19 -0 2.00192e-06 -0 2.00192e-06)
(2.00189e-06 -1.49547e-19 -0 2.00189e-06 -0 2.00189e-06)
(2.00187e-06 6.15806e-20 -0 2.00187e-06 -0 2.00187e-06)
(2.00185e-06 1.41984e-20 -0 2.00185e-06 -0 2.00185e-06)
(2.00183e-06 -4.12846e-20 -0 2.00183e-06 -0 2.00183e-06)
(2.00181e-06 5.99308e-20 -0 2.00181e-06 -0 2.00181e-06)
(2.0018e-06 -4.81418e-22 -0 2.0018e-06 -0 2.0018e-06)
(2.00178e-06 -5.58324e-20 -0 2.00178e-06 -0 2.00178e-06)
(2.00177e-06 -6.25815e-20 -0 2.00177e-06 -0 2.00177e-06)
(2.00175e-06 -5.86949e-20 -0 2.00175e-06 -0 2.00175e-06)
(2.00175e-06 -1.52248e-21 -0 2.00175e-06 -0 2.00175e-06)
(2.00174e-06 -2.29886e-21 -0 2.00174e-06 -0 2.00174e-06)
(2.00173e-06 5.9319e-20 -0 2.00173e-06 -0 2.00173e-06)
(2.00173e-06 -3.40013e-20 -0 2.00173e-06 -0 2.00173e-06)
(2.00172e-06 1.34124e-20 -0 2.00172e-06 -0 2.00172e-06)
(2.00172e-06 -4.96165e-22 -0 2.00172e-06 -0 2.00172e-06)
(2.00172e-06 -4.68227e-20 -0 2.00172e-06 -0 2.00172e-06)
(2.00647e-06 1.35039e-17 -0 2.00647e-06 -0 2.00647e-06)
(2.00647e-06 -1.66846e-17 -0 2.00647e-06 -0 2.00647e-06)
(2.00642e-06 3.44315e-18 -0 2.00642e-06 -0 2.00642e-06)
(2.0064e-06 -7.1953e-19 -0 2.0064e-06 -0 2.0064e-06)
(2.00637e-06 2.08505e-19 -0 2.00637e-06 -0 2.00637e-06)
(2.00635e-06 3.34156e-20 -0 2.00635e-06 -0 2.00635e-06)
(2.00633e-06 3.73693e-20 -0 2.00633e-06 -0 2.00633e-06)
(2.00631e-06 -1.76148e-20 -0 2.00631e-06 -0 2.00631e-06)
(2.00629e-06 -7.15372e-20 -0 2.00629e-06 -0 2.00629e-06)
(2.00628e-06 3.30708e-23 -0 2.00628e-06 -0 2.00628e-06)
(2.00626e-06 -5.65195e-20 -0 2.00626e-06 -0 2.00626e-06)
(2.00625e-06 -4.34607e-20 -0 2.00625e-06 -0 2.00625e-06)
(2.00623e-06 -4.8685e-20 -0 2.00623e-06 -0 2.00623e-06)
(2.00623e-06 -5.40968e-20 -0 2.00623e-06 -0 2.00623e-06)
(2.00622e-06 -5.3301e-20 -0 2.00622e-06 -0 2.00622e-06)
(2.00621e-06 -6.98319e-20 -0 2.00621e-06 -0 2.00621e-06)
(2.0062e-06 -3.59431e-20 -0 2.0062e-06 -0 2.0062e-06)
(2.0062e-06 -4.27827e-20 -0 2.0062e-06 -0 2.0062e-06)
(2.0062e-06 -3.29745e-20 -0 2.0062e-06 -0 2.0062e-06)
(2.0062e-06 2.71946e-21 -0 2.0062e-06 -0 2.0062e-06)
(2.01038e-06 -9.08915e-18 -0 2.01038e-06 -0 2.01038e-06)
(2.01038e-06 1.07283e-17 -0 2.01038e-06 -0 2.01038e-06)
(2.01033e-06 -2.22941e-18 -0 2.01033e-06 -0 2.01033e-06)
(2.01031e-06 5.46803e-19 -0 2.01031e-06 -0 2.01031e-06)
(2.01028e-06 -5.73608e-20 -0 2.01028e-06 -0 2.01028e-06)
(2.01027e-06 3.77316e-20 -0 2.01027e-06 -0 2.01027e-06)
(2.01024e-06 7.26925e-20 -0 2.01024e-06 -0 2.01024e-06)
(2.01022e-06 6.62133e-20 -0 2.01022e-06 -0 2.01022e-06)
(2.0102e-06 9.35689e-20 -0 2.0102e-06 -0 2.0102e-06)
(2.01019e-06 5.85119e-20 -0 2.01019e-06 -0 2.01019e-06)
(2.01017e-06 9.29494e-20 -0 2.01017e-06 -0 2.01017e-06)
(2.01016e-06 1.12211e-19 -0 2.01016e-06 -0 2.01016e-06)
(2.01014e-06 1.09695e-19 -0 2.01014e-06 -0 2.01014e-06)
(2.01014e-06 8.94805e-20 -0 2.01014e-06 -0 2.01014e-06)
(2.01013e-06 1.11535e-19 -0 2.01013e-06 -0 2.01013e-06)
(2.01012e-06 9.86942e-20 -0 2.01012e-06 -0 2.01012e-06)
(2.01011e-06 6.893e-20 -0 2.01011e-06 -0 2.01011e-06)
(2.01011e-06 6.34567e-20 -0 2.01011e-06 -0 2.01011e-06)
(2.01011e-06 2.41765e-20 -0 2.01011e-06 -0 2.01011e-06)
(2.01011e-06 2.45077e-20 -0 2.01011e-06 -0 2.01011e-06)
(2.01418e-06 3.21097e-19 -0 2.01418e-06 -0 2.01418e-06)
(2.01419e-06 3.7898e-19 -0 2.01419e-06 -0 2.01419e-06)
(2.01413e-06 -1.23409e-19 -0 2.01413e-06 -0 2.01413e-06)
(2.01412e-06 -6.69296e-20 -0 2.01412e-06 -0 2.01412e-06)
(2.01408e-06 -2.54753e-20 -0 2.01408e-06 -0 2.01408e-06)
(2.01407e-06 -7.39492e-20 -0 2.01407e-06 -0 2.01407e-06)
(2.01404e-06 -2.23796e-20 -0 2.01404e-06 -0 2.01404e-06)
(2.01403e-06 -2.74088e-21 -0 2.01403e-06 -0 2.01403e-06)
(2.014e-06 -5.50023e-20 -0 2.014e-06 -0 2.014e-06)
(2.01399e-06 -8.10288e-20 -0 2.01399e-06 -0 2.01399e-06)
(2.01397e-06 -2.77515e-21 -0 2.01397e-06 -0 2.01397e-06)
(2.01397e-06 -1.90312e-20 -0 2.01397e-06 -0 2.01397e-06)
(2.01395e-06 -3.57884e-20 -0 2.01395e-06 -0 2.01395e-06)
(2.01394e-06 -1.78281e-20 -0 2.01394e-06 -0 2.01394e-06)
(2.01393e-06 -5.06989e-20 -0 2.01393e-06 -0 2.01393e-06)
(2.01393e-06 -3.84687e-20 -0 2.01393e-06 -0 2.01393e-06)
(2.01392e-06 5.88276e-20 -0 2.01392e-06 -0 2.01392e-06)
(2.01392e-06 -5.29053e-20 -0 2.01392e-06 -0 2.01392e-06)
(2.01391e-06 -1.87528e-21 -0 2.01391e-06 -0 2.01391e-06)
(2.01391e-06 -9.47188e-21 -0 2.01391e-06 -0 2.01391e-06)
(2.01814e-06 1.08624e-17 -0 2.01814e-06 -0 2.01814e-06)
(2.01814e-06 -1.24153e-17 -0 2.01814e-06 -0 2.01814e-06)
(2.01809e-06 2.51125e-18 -0 2.01809e-06 -0 2.01809e-06)
(2.01807e-06 -6.51515e-19 -0 2.01807e-06 -0 2.01807e-06)
(2.01804e-06 -1.7932e-21 -0 2.01804e-06 -0 2.01804e-06)
(2.01802e-06 -9.20799e-20 -0 2.01802e-06 -0 2.01802e-06)
(2.01799e-06 -9.90852e-20 -0 2.01799e-06 -0 2.01799e-06)
(2.01798e-06 -5.76033e-20 -0 2.01798e-06 -0 2.01798e-06)
(2.01796e-06 -6.52602e-20 -0 2.01796e-06 -0 2.01796e-06)
(2.01794e-06 -4.39855e-20 -0 2.01794e-06 -0 2.01794e-06)
(2.01793e-06 -1.18081e-19 -0 2.01793e-06 -0 2.01793e-06)
(2.01791e-06 -9.73735e-20 -0 2.01791e-06 -0 2.01791e-06)
(2.0179e-06 -8.88521e-20 -0 2.0179e-06 -0 2.0179e-06)
(2.01789e-06 -1.1818e-19 -0 2.01789e-06 -0 2.01789e-06)
(2.01788e-06 -7.00352e-20 -0 2.01788e-06 -0 2.01788e-06)
(2.01788e-06 -7.24202e-20 -0 2.01788e-06 -0 2.01788e-06)
(2.01787e-06 -8.13393e-20 -0 2.01787e-06 -0 2.01787e-06)
(2.01787e-06 -9.64869e-21 -0 2.01787e-06 -0 2.01787e-06)
(2.01787e-06 -2.58603e-20 -0 2.01787e-06 -0 2.01787e-06)
(2.01787e-06 -4.33242e-20 -0 2.01787e-06 -0 2.01787e-06)
(2.02233e-06 -1.77737e-17 -0 2.02233e-06 -0 2.02233e-06)
(2.02233e-06 1.89243e-17 -0 2.02233e-06 -0 2.02233e-06)
(2.02228e-06 -3.79062e-18 -0 2.02228e-06 -0 2.02228e-06)
(2.02227e-06 9.73908e-19 -0 2.02227e-06 -0 2.02227e-06)
(2.02223e-06 -1.52834e-19 -0 2.02223e-06 -0 2.02223e-06)
(2.02222e-06 9.44866e-20 -0 2.02222e-06 -0 2.02222e-06)
(2.02219e-06 3.79755e-20 -0 2.02219e-06 -0 2.02219e-06)
(2.02218e-06 2.76043e-21 -0 2.02218e-06 -0 2.02218e-06)
(2.02215e-06 5.14886e-21 -0 2.02215e-06 -0 2.02215e-06)
(2.02214e-06 3.06054e-21 -0 2.02214e-06 -0 2.02214e-06)
(2.02212e-06 -7.91911e-21 -0 2.02212e-06 -0 2.02212e-06)
(2.02211e-06 -9.17613e-21 -0 2.02211e-06 -0 2.02211e-06)
(2.02209e-06 8.32868e-21 -0 2.02209e-06 -0 2.02209e-06)
(2.02209e-06 4.03122e-20 -0 2.02209e-06 -0 2.02209e-06)
(2.02208e-06 1.73005e-20 -0 2.02208e-06 -0 2.02208e-06)
(2.02207e-06 5.83972e-20 -0 2.02207e-06 -0 2.02207e-06)
(2.02207e-06 2.95064e-20 -0 2.02207e-06 -0 2.02207e-06)
(2.02206e-06 1.76374e-20 -0 2.02206e-06 -0 2.02206e-06)
(2.02206e-06 3.71724e-20 -0 2.02206e-06 -0 2.02206e-06)
(2.02206e-06 1.6654e-20 -0 2.02206e-06 -0 2.02206e-06)
(2.02672e-06 1.0659e-17 -0 2.02672e-06 -0 2.02672e-06)
(2.02672e-06 -1.14014e-17 -0 2.02672e-06 -0 2.02672e-06)
(2.02667e-06 2.32742e-18 -0 2.02667e-06 -0 2.02667e-06)
(2.02665e-06 -5.14287e-19 -0 2.02665e-06 -0 2.02665e-06)
(2.02662e-06 1.47743e-19 -0 2.02662e-06 -0 2.02662e-06)
(2.0266e-06 3.70366e-20 -0 2.0266e-06 -0 2.0266e-06)
(2.02658e-06 4.73504e-20 -0 2.02658e-06 -0 2.02658e-06)
(2.02656e-06 8.82666e-20 -0 2.02656e-06 -0 2.02656e-06)
(2.02654e-06 1.03713e-19 -0 2.02654e-06 -0 2.02654e-06)
(2.02652e-06 5.13898e-20 -0 2.02652e-06 -0 2.02652e-06)
(2.02651e-06 1.03578e-19 -0 2.02651e-06 -0 2.02651e-06)
(2.0265e-06 4.95062e-20 -0 2.0265e-06 -0 2.0265e-06)
(2.02648e-06 4.80214e-20 -0 2.02648e-06 -0 2.02648e-06)
(2.02648e-06 1.01177e-19 -0 2.02648e-06 -0 2.02648e-06)
(2.02646e-06 1.03645e-19 -0 2.02646e-06 -0 2.02646e-06)
(2.02646e-06 7.25652e-20 -0 2.02646e-06 -0 2.02646e-06)
(2.02645e-06 3.31485e-21 -0 2.02645e-06 -0 2.02645e-06)
(2.02645e-06 1.60141e-20 -0 2.02645e-06 -0 2.02645e-06)
(2.02645e-06 9.01123e-21 -0 2.02645e-06 -0 2.02645e-06)
(2.02645e-06 -6.13438e-21 -0 2.02645e-06 -0 2.02645e-06)
(2.03108e-06 6.17939e-18 -0 2.03108e-06 -0 2.03108e-06)
(2.03108e-06 -4.68074e-18 -0 2.03108e-06 -0 2.03108e-06)
(2.03103e-06 8.73581e-19 -0 2.03103e-06 -0 2.03103e-06)
(2.03101e-06 -2.54465e-19 -0 2.03101e-06 -0 2.03101e-06)
(2.03098e-06 9.08627e-20 -0 2.03098e-06 -0 2.03098e-06)
(2.03096e-06 -5.41441e-20 -0 2.03096e-06 -0 2.03096e-06)
(2.03094e-06 5.14165e-21 -0 2.03094e-06 -0 2.03094e-06)
(2.03092e-06 1.84881e-20 -0 2.03092e-06 -0 2.03092e-06)
(2.0309e-06 1.74582e-20 -0 2.0309e-06 -0 2.0309e-06)
(2.03088e-06 7.13725e-20 -0 2.03088e-06 -0 2.03088e-06)
(2.03087e-06 7.04598e-20 -0 2.03087e-06 -0 2.03087e-06)
(2.03085e-06 6.87385e-20 -0 2.03085e-06 -0 2.03085e-06)
(2.03084e-06 4.26338e-20 -0 2.03084e-06 -0 2.03084e-06)
(2.03084e-06 2.55303e-20 -0 2.03084e-06 -0 2.03084e-06)
(2.03082e-06 2.4578e-20 -0 2.03082e-06 -0 2.03082e-06)
(2.03082e-06 -1.26697e-21 -0 2.03082e-06 -0 2.03082e-06)
(2.03081e-06 -6.45219e-21 -0 2.03081e-06 -0 2.03081e-06)
(2.03081e-06 4.10918e-20 -0 2.03081e-06 -0 2.03081e-06)
(2.03081e-06 3.57133e-21 -0 2.03081e-06 -0 2.03081e-06)
(2.0308e-06 -6.28325e-21 -0 2.0308e-06 -0 2.0308e-06)
(2.03503e-06 -1.72175e-17 -0 2.03503e-06 -0 2.03503e-06)
(2.03503e-06 1.54325e-17 -0 2.03503e-06 -0 2.03503e-06)
(2.03498e-06 -3.04815e-18 -0 2.03498e-06 -0 2.03498e-06)
(2.03496e-06 7.75545e-19 -0 2.03496e-06 -0 2.03496e-06)
(2.03493e-06 -1.41486e-19 -0 2.03493e-06 -0 2.03493e-06)
(2.03491e-06 9.76187e-20 -0 2.03491e-06 -0 2.03491e-06)
(2.03488e-06 2.73425e-20 -0 2.03488e-06 -0 2.03488e-06)
(2.03487e-06 1.75984e-20 -0 2.03487e-06 -0 2.03487e-06)
(2.03485e-06 8.59501e-21 -0 2.03485e-06 -0 2.03485e-06)
(2.03483e-06 6.69928e-21 -0 2.03483e-06 -0 2.03483e-06)
(2.03481e-06 -5.17631e-20 -0 2.03481e-06 -0 2.03481e-06)
(2.0348e-06 -1.12243e-20 -0 2.0348e-06 -0 2.0348e-06)
(2.03479e-06 -8.66896e-21 -0 2.03479e-06 -0 2.03479e-06)
(2.03478e-06 -6.90811e-20 -0 2.03478e-06 -0 2.03478e-06)
(2.03477e-06 -6.54797e-20 -0 2.03477e-06 -0 2.03477e-06)
(2.03476e-06 -7.85059e-20 -0 2.03476e-06 -0 2.03476e-06)
(2.03476e-06 -3.35771e-20 -0 2.03476e-06 -0 2.03476e-06)
(2.03475e-06 -1.09849e-21 -0 2.03475e-06 -0 2.03475e-06)
(2.03475e-06 8.12865e-22 -0 2.03475e-06 -0 2.03475e-06)
(2.03475e-06 -1.02349e-20 -0 2.03475e-06 -0 2.03475e-06)
(2.03806e-06 5.93734e-18 -0 2.03806e-06 -0 2.03806e-06)
(2.03806e-06 -5.87053e-18 -0 2.03806e-06 -0 2.03806e-06)
(2.03801e-06 1.07661e-18 -0 2.03801e-06 -0 2.03801e-06)
(2.038e-06 -3.69167e-19 -0 2.038e-06 -0 2.038e-06)
(2.03797e-06 -5.14792e-20 -0 2.03797e-06 -0 2.03797e-06)
(2.03795e-06 -1.19593e-19 -0 2.03795e-06 -0 2.03795e-06)
(2.03793e-06 -1.28488e-19 -0 2.03793e-06 -0 2.03793e-06)
(2.03791e-06 -8.15035e-20 -0 2.03791e-06 -0 2.03791e-06)
(2.03789e-06 -1.31916e-19 -0 2.03789e-06 -0 2.03789e-06)
(2.03787e-06 -1.1995e-19 -0 2.03787e-06 -0 2.03787e-06)
(2.03786e-06 -8.62011e-20 -0 2.03786e-06 -0 2.03786e-06)
(2.03784e-06 -9.68131e-20 -0 2.03784e-06 -0 2.03784e-06)
(2.03783e-06 -8.86369e-20 -0 2.03783e-06 -0 2.03783e-06)
(2.03782e-06 -3.12258e-20 -0 2.03782e-06 -0 2.03782e-06)
(2.03781e-06 1.65555e-20 -0 2.03781e-06 -0 2.03781e-06)
(2.03781e-06 7.33003e-22 -0 2.03781e-06 -0 2.03781e-06)
(2.0378e-06 2.5793e-20 -0 2.0378e-06 -0 2.0378e-06)
(2.0378e-06 -3.36139e-20 -0 2.0378e-06 -0 2.0378e-06)
(2.03779e-06 -2.82653e-20 -0 2.03779e-06 -0 2.03779e-06)
(2.03779e-06 -3.86699e-20 -0 2.03779e-06 -0 2.03779e-06)
(2.03947e-06 8.76858e-18 -0 2.03947e-06 -0 2.03947e-06)
(2.03946e-06 -9.22912e-18 -0 2.03946e-06 -0 2.03946e-06)
(2.03946e-06 1.92493e-18 -0 2.03946e-06 -0 2.03946e-06)
(2.03946e-06 -4.45815e-19 -0 2.03946e-06 -0 2.03946e-06)
(2.03946e-06 1.29583e-19 -0 2.03946e-06 -0 2.03946e-06)
(2.03946e-06 2.60173e-20 -0 2.03946e-06 -0 2.03946e-06)
(2.03946e-06 6.70565e-20 -0 2.03946e-06 -0 2.03946e-06)
(2.03946e-06 -4.15189e-21 -0 2.03946e-06 -0 2.03946e-06)
(2.03946e-06 4.91771e-20 -0 2.03946e-06 -0 2.03946e-06)
(2.03946e-06 5.66652e-20 -0 2.03946e-06 -0 2.03946e-06)
(2.03946e-06 3.89637e-20 -0 2.03946e-06 -0 2.03946e-06)
(2.03946e-06 3.85954e-20 -0 2.03946e-06 -0 2.03946e-06)
(2.03946e-06 2.3677e-20 -0 2.03946e-06 -0 2.03946e-06)
(2.03946e-06 1.91022e-20 -0 2.03946e-06 -0 2.03946e-06)
(2.03946e-06 -1.20948e-20 -0 2.03946e-06 -0 2.03946e-06)
(2.03946e-06 -2.05868e-20 -0 2.03946e-06 -0 2.03946e-06)
(2.03946e-06 -1.64464e-21 -0 2.03946e-06 -0 2.03946e-06)
(2.03946e-06 1.38879e-20 -0 2.03946e-06 -0 2.03946e-06)
(2.03946e-06 2.66726e-20 -0 2.03946e-06 -0 2.03946e-06)
(2.03946e-06 1.78501e-20 -0 2.03946e-06 -0 2.03946e-06)
)
;

boundaryField
{
    movingWall
    {
        type            kqRWallFunction;
        value           nonuniform List<symmTensor> 
20
(
(2.03947e-06 0 -0 2.03947e-06 -0 2.03947e-06)
(2.03946e-06 -0 -0 2.03946e-06 -0 2.03946e-06)
(2.03946e-06 0 -0 2.03946e-06 -0 2.03946e-06)
(2.03946e-06 -0 -0 2.03946e-06 -0 2.03946e-06)
(2.03946e-06 0 -0 2.03946e-06 -0 2.03946e-06)
(2.03946e-06 0 -0 2.03946e-06 -0 2.03946e-06)
(2.03946e-06 0 -0 2.03946e-06 -0 2.03946e-06)
(2.03946e-06 0 -0 2.03946e-06 -0 2.03946e-06)
(2.03946e-06 0 -0 2.03946e-06 -0 2.03946e-06)
(2.03946e-06 0 -0 2.03946e-06 -0 2.03946e-06)
(2.03946e-06 0 -0 2.03946e-06 -0 2.03946e-06)
(2.03946e-06 0 -0 2.03946e-06 -0 2.03946e-06)
(2.03946e-06 0 -0 2.03946e-06 -0 2.03946e-06)
(2.03946e-06 0 -0 2.03946e-06 -0 2.03946e-06)
(2.03946e-06 -0 -0 2.03946e-06 -0 2.03946e-06)
(2.03946e-06 -0 -0 2.03946e-06 -0 2.03946e-06)
(2.03946e-06 -0 -0 2.03946e-06 -0 2.03946e-06)
(2.03946e-06 0 -0 2.03946e-06 -0 2.03946e-06)
(2.03946e-06 0 -0 2.03946e-06 -0 2.03946e-06)
(2.03946e-06 0 -0 2.03946e-06 -0 2.03946e-06)
)
;
    }
    fixedWalls
    {
        type            kqRWallFunction;
        value           nonuniform List<symmTensor> 
60
(
(1.78859e-06 -0 -0 1.78859e-06 -0 1.78859e-06)
(1.81179e-06 -0 -0 1.81179e-06 -0 1.81179e-06)
(1.84954e-06 0 -0 1.84954e-06 -0 1.84954e-06)
(1.89088e-06 -0 -0 1.89088e-06 -0 1.89088e-06)
(1.92739e-06 -0 -0 1.92739e-06 -0 1.92739e-06)
(1.95535e-06 0 -0 1.95535e-06 -0 1.95535e-06)
(1.97483e-06 -0 -0 1.97483e-06 -0 1.97483e-06)
(1.9877e-06 0 -0 1.9877e-06 -0 1.9877e-06)
(1.99615e-06 0 -0 1.99615e-06 -0 1.99615e-06)
(2.00199e-06 -0 -0 2.00199e-06 -0 2.00199e-06)
(2.00647e-06 0 -0 2.00647e-06 -0 2.00647e-06)
(2.01038e-06 -0 -0 2.01038e-06 -0 2.01038e-06)
(2.01418e-06 -0 -0 2.01418e-06 -0 2.01418e-06)
(2.01814e-06 0 -0 2.01814e-06 -0 2.01814e-06)
(2.02233e-06 -0 -0 2.02233e-06 -0 2.02233e-06)
(2.02672e-06 0 -0 2.02672e-06 -0 2.02672e-06)
(2.03108e-06 0 -0 2.03108e-06 -0 2.03108e-06)
(2.03503e-06 -0 -0 2.03503e-06 -0 2.03503e-06)
(2.03806e-06 0 -0 2.03806e-06 -0 2.03806e-06)
(2.03947e-06 0 -0 2.03947e-06 -0 2.03947e-06)
(1.78859e-06 0 -0 1.78859e-06 -0 1.78859e-06)
(1.81158e-06 -0 -0 1.81158e-06 -0 1.81158e-06)
(1.84931e-06 -0 -0 1.84931e-06 -0 1.84931e-06)
(1.89065e-06 -0 -0 1.89065e-06 -0 1.89065e-06)
(1.92714e-06 0 -0 1.92714e-06 -0 1.92714e-06)
(1.9551e-06 0 -0 1.9551e-06 -0 1.9551e-06)
(1.97457e-06 -0 -0 1.97457e-06 -0 1.97457e-06)
(1.98744e-06 -0 -0 1.98744e-06 -0 1.98744e-06)
(1.99588e-06 -0 -0 1.99588e-06 -0 1.99588e-06)
(2.00172e-06 -0 -0 2.00172e-06 -0 2.00172e-06)
(2.0062e-06 -0 -0 2.0062e-06 -0 2.0062e-06)
(2.01011e-06 0 -0 2.01011e-06 -0 2.01011e-06)
(2.01391e-06 -0 -0 2.01391e-06 -0 2.01391e-06)
(2.01787e-06 -0 -0 2.01787e-06 -0 2.01787e-06)
(2.02206e-06 -0 -0 2.02206e-06 -0 2.02206e-06)
(2.02645e-06 -0 -0 2.02645e-06 -0 2.02645e-06)
(2.0308e-06 -0 -0 2.0308e-06 -0 2.0308e-06)
(2.03475e-06 -0 -0 2.03475e-06 -0 2.03475e-06)
(2.03779e-06 -0 -0 2.03779e-06 -0 2.03779e-06)
(2.03946e-06 0 -0 2.03946e-06 -0 2.03946e-06)
(1.78859e-06 -0 -0 1.78859e-06 -0 1.78859e-06)
(1.78859e-06 0 -0 1.78859e-06 -0 1.78859e-06)
(1.78859e-06 -0 -0 1.78859e-06 -0 1.78859e-06)
(1.78859e-06 0 -0 1.78859e-06 -0 1.78859e-06)
(1.78859e-06 -0 -0 1.78859e-06 -0 1.78859e-06)
(1.78859e-06 -0 -0 1.78859e-06 -0 1.78859e-06)
(1.78859e-06 -0 -0 1.78859e-06 -0 1.78859e-06)
(1.78859e-06 -0 -0 1.78859e-06 -0 1.78859e-06)
(1.78859e-06 -0 -0 1.78859e-06 -0 1.78859e-06)
(1.78859e-06 -0 -0 1.78859e-06 -0 1.78859e-06)
(1.78859e-06 -0 -0 1.78859e-06 -0 1.78859e-06)
(1.78859e-06 -0 -0 1.78859e-06 -0 1.78859e-06)
(1.78859e-06 -0 -0 1.78859e-06 -0 1.78859e-06)
(1.78859e-06 -0 -0 1.78859e-06 -0 1.78859e-06)
(1.78859e-06 0 -0 1.78859e-06 -0 1.78859e-06)
(1.78859e-06 0 -0 1.78859e-06 -0 1.78859e-06)
(1.78859e-06 -0 -0 1.78859e-06 -0 1.78859e-06)
(1.78859e-06 -0 -0 1.78859e-06 -0 1.78859e-06)
(1.78859e-06 0 -0 1.78859e-06 -0 1.78859e-06)
(1.78859e-06 -0 -0 1.78859e-06 -0 1.78859e-06)
)
;
    }
    frontAndBack
    {
        type            empty;
    }
}


// ************************************************************************* //
