/*--------------------------------*- C++ -*----------------------------------*\
| =========                 |                                                 |
| \\      /  F ield         | OpenFOAM: The Open Source CFD Toolbox           |
|  \\    /   O peration     | Version:  2506                                  |
|   \\  /    A nd           | Website:  www.openfoam.com                      |
|    \\/     M anipulation  |                                                 |
\*---------------------------------------------------------------------------*/
FoamFile
{
    version     2.0;
    format      ascii;
    arch        "LSB;label=32;scalar=64";
    class       volScalarField;
    location    "9.5";
    object      turbulenceProperties:epsilon;
}
// * * * * * * * * * * * * * * * * * * * * * * * * * * * * * * * * * * * * * //

dimensions      [0 2 -3 0 0 0 0];

internalField   nonuniform List<scalar> 
400
(
7.05827e-07
7.05827e-07
7.05827e-07
7.05826e-07
7.05826e-07
7.05826e-07
7.05826e-07
7.05826e-07
7.05826e-07
7.05825e-07
7.05826e-07
7.05825e-07
7.05825e-07
7.05825e-07
7.05825e-07
7.05825e-07
7.05825e-07
7.05825e-07
7.05825e-07
7.05825e-07
7.19626e-07
7.12571e-07
7.13175e-07
7.13425e-07
7.13921e-07
7.1418e-07
7.14674e-07
7.14942e-07
7.15435e-07
7.1571e-07
7.16202e-07
7.16485e-07
7.16978e-07
7.17267e-07
7.1776e-07
7.18055e-07
7.18551e-07
7.18849e-07
7.191e-07
7.19499e-07
7.42261e-07
7.34781e-07
7.35431e-07
7.357e-07
7.36233e-07
7.3651e-07
7.37039e-07
7.37323e-07
7.37849e-07
7.3814e-07
7.38664e-07
7.38961e-07
7.39483e-07
7.39785e-07
7.40307e-07
7.40612e-07
7.41137e-07
7.41444e-07
7.41707e-07
7.42124e-07
7.67318e-07
7.595e-07
7.60179e-07
7.6046e-07
7.61017e-07
7.61306e-07
7.61859e-07
7.62156e-07
7.62706e-07
7.6301e-07
7.63557e-07
7.63867e-07
7.64413e-07
7.64728e-07
7.65274e-07
7.65593e-07
7.66141e-07
7.66462e-07
7.66737e-07
7.67173e-07
7.89664e-07
7.81539e-07
7.82245e-07
7.82537e-07
7.83115e-07
7.83416e-07
7.8399e-07
7.84299e-07
7.8487e-07
7.85186e-07
7.85754e-07
7.86077e-07
7.86644e-07
7.86972e-07
7.87539e-07
7.8787e-07
7.88439e-07
7.88773e-07
7.89059e-07
7.89512e-07
8.06923e-07
7.98557e-07
7.99284e-07
7.99585e-07
8.00179e-07
8.00489e-07
8.0108e-07
8.01398e-07
8.01986e-07
8.02311e-07
8.02896e-07
8.03229e-07
8.03812e-07
8.0415e-07
8.04734e-07
8.05075e-07
8.05661e-07
8.06004e-07
8.06299e-07
8.06765e-07
8.19017e-07
8.10482e-07
8.11223e-07
8.1153e-07
8.12136e-07
8.12452e-07
8.13056e-07
8.1338e-07
8.13979e-07
8.14311e-07
8.14908e-07
8.15247e-07
8.15843e-07
8.16187e-07
8.16783e-07
8.17131e-07
8.17729e-07
8.1808e-07
8.1838e-07
8.18856e-07
8.27038e-07
8.18389e-07
8.1914e-07
8.19451e-07
8.20065e-07
8.20386e-07
8.20997e-07
8.21325e-07
8.21933e-07
8.22269e-07
8.22874e-07
8.23218e-07
8.23821e-07
8.2417e-07
8.24773e-07
8.25127e-07
8.25732e-07
8.26087e-07
8.26392e-07
8.26874e-07
8.32319e-07
8.23594e-07
8.24352e-07
8.24665e-07
8.25285e-07
8.25608e-07
8.26225e-07
8.26556e-07
8.27169e-07
8.27508e-07
8.28118e-07
8.28465e-07
8.29073e-07
8.29425e-07
8.30034e-07
8.3039e-07
8.31001e-07
8.31359e-07
8.31667e-07
8.32153e-07
8.35974e-07
8.27197e-07
8.27959e-07
8.28275e-07
8.28899e-07
8.29223e-07
8.29843e-07
8.30176e-07
8.30793e-07
8.31134e-07
8.31748e-07
8.32097e-07
8.32709e-07
8.33063e-07
8.33675e-07
8.34034e-07
8.34648e-07
8.35008e-07
8.35318e-07
8.35807e-07
8.38783e-07
8.29967e-07
8.30732e-07
8.31049e-07
8.31675e-07
8.32002e-07
8.32624e-07
8.32959e-07
8.33578e-07
8.33921e-07
8.34538e-07
8.34888e-07
8.35503e-07
8.35859e-07
8.36474e-07
8.36833e-07
8.3745e-07
8.37813e-07
8.38123e-07
8.38615e-07
8.41237e-07
8.32386e-07
8.33155e-07
8.33473e-07
8.34102e-07
8.34429e-07
8.35054e-07
8.3539e-07
8.36012e-07
8.36356e-07
8.36975e-07
8.37327e-07
8.37944e-07
8.38301e-07
8.38919e-07
8.3928e-07
8.399e-07
8.40263e-07
8.40575e-07
8.41068e-07
8.43629e-07
8.34744e-07
8.35515e-07
8.35834e-07
8.36466e-07
8.36794e-07
8.37422e-07
8.37759e-07
8.38383e-07
8.38729e-07
8.3935e-07
8.39703e-07
8.40322e-07
8.40681e-07
8.41301e-07
8.41664e-07
8.42285e-07
8.4265e-07
8.42963e-07
8.43459e-07
8.46114e-07
8.37195e-07
8.37969e-07
8.3829e-07
8.38923e-07
8.39254e-07
8.39883e-07
8.40222e-07
8.40849e-07
8.41195e-07
8.41819e-07
8.42173e-07
8.42795e-07
8.43155e-07
8.43778e-07
8.44142e-07
8.44766e-07
8.45133e-07
8.45447e-07
8.45944e-07
8.48757e-07
8.398e-07
8.40577e-07
8.40899e-07
8.41536e-07
8.41867e-07
8.425e-07
8.4284e-07
8.43469e-07
8.43817e-07
8.44443e-07
8.44799e-07
8.45424e-07
8.45785e-07
8.4641e-07
8.46776e-07
8.47402e-07
8.47771e-07
8.48086e-07
8.48585e-07
8.51522e-07
8.42527e-07
8.43307e-07
8.43631e-07
8.4427e-07
8.44603e-07
8.45238e-07
8.45579e-07
8.46211e-07
8.46561e-07
8.4719e-07
8.47547e-07
8.48175e-07
8.48538e-07
8.49165e-07
8.49532e-07
8.50162e-07
8.50532e-07
8.50849e-07
8.5135e-07
8.54274e-07
8.45239e-07
8.46023e-07
8.46348e-07
8.4699e-07
8.47324e-07
8.47962e-07
8.48305e-07
8.4894e-07
8.49291e-07
8.49923e-07
8.50281e-07
8.50911e-07
8.51276e-07
8.51906e-07
8.52275e-07
8.52907e-07
8.53279e-07
8.53597e-07
8.541e-07
8.56768e-07
8.47701e-07
8.48487e-07
8.48813e-07
8.49457e-07
8.49792e-07
8.50433e-07
8.50777e-07
8.51414e-07
8.51766e-07
8.524e-07
8.5276e-07
8.53392e-07
8.53759e-07
8.54391e-07
8.54761e-07
8.55396e-07
8.55769e-07
8.56088e-07
8.56594e-07
8.58687e-07
8.49765e-07
8.50525e-07
8.50841e-07
8.51466e-07
8.51795e-07
8.52417e-07
8.52757e-07
8.53377e-07
8.53728e-07
8.54346e-07
8.54708e-07
8.55325e-07
8.55696e-07
8.56315e-07
8.56692e-07
8.57315e-07
8.57697e-07
8.58012e-07
8.58518e-07
8.59575e-07
8.59574e-07
8.59574e-07
8.59574e-07
8.59574e-07
8.59573e-07
8.59573e-07
8.59573e-07
8.59573e-07
8.59573e-07
8.59573e-07
8.59573e-07
8.59573e-07
8.59572e-07
8.59572e-07
8.59572e-07
8.59572e-07
8.59572e-07
8.59572e-07
8.59572e-07
)
;

boundaryField
{
    movingWall
    {
        type            epsilonWallFunction;
        blending        stepwise;
        value           nonuniform List<scalar> 
20
(
8.59575e-07
8.59574e-07
8.59574e-07
8.59574e-07
8.59574e-07
8.59573e-07
8.59573e-07
8.59573e-07
8.59573e-07
8.59573e-07
8.59573e-07
8.59573e-07
8.59573e-07
8.59572e-07
8.59572e-07
8.59572e-07
8.59572e-07
8.59572e-07
8.59572e-07
8.59572e-07
)
;
    }
    fixedWalls
    {
        type            epsilonWallFunction;
        blending        stepwise;
        value           nonuniform List<scalar> 
60
(
7.05827e-07
7.19626e-07
7.42261e-07
7.67318e-07
7.89664e-07
8.06923e-07
8.19017e-07
8.27038e-07
8.32319e-07
8.35974e-07
8.38783e-07
8.41237e-07
8.43629e-07
8.46114e-07
8.48757e-07
8.51522e-07
8.54274e-07
8.56768e-07
8.58687e-07
8.59575e-07
7.05825e-07
7.19499e-07
7.42124e-07
7.67173e-07
7.89512e-07
8.06765e-07
8.18856e-07
8.26874e-07
8.32153e-07
8.35807e-07
8.38615e-07
8.41068e-07
8.43459e-07
8.45944e-07
8.48585e-07
8.5135e-07
8.541e-07
8.56594e-07
8.58518e-07
8.59572e-07
7.05827e-07
7.05827e-07
7.05827e-07
7.05826e-07
7.05826e-07
7.05826e-07
7.05826e-07
7.05826e-07
7.05826e-07
7.05825e-07
7.05826e-07
7.05825e-07
7.05825e-07
7.05825e-07
7.05825e-07
7.05825e-07
7.05825e-07
7.05825e-07
7.05825e-07
7.05825e-07
)
;
    }
    frontAndBack
    {
        type            empty;
    }
}


// ************************************************************************* //
