/*--------------------------------*- C++ -*----------------------------------*\
| =========                 |                                                 |
| \\      /  F ield         | OpenFOAM: The Open Source CFD Toolbox           |
|  \\    /   O peration     | Version:  2506                                  |
|   \\  /    A nd           | Website:  www.openfoam.com                      |
|    \\/     M anipulation  |                                                 |
\*---------------------------------------------------------------------------*/
FoamFile
{
    version     2.0;
    format      ascii;
    arch        "LSB;label=32;scalar=64";
    class       volScalarField;
    location    "9.5";
    object      turbulenceProperties:k;
}
// * * * * * * * * * * * * * * * * * * * * * * * * * * * * * * * * * * * * * //

dimensions      [0 2 -2 0 0 0 0];

internalField   nonuniform List<scalar> 
400
(
2.68289e-06
2.68289e-06
2.68288e-06
2.68288e-06
2.68288e-06
2.68288e-06
2.68288e-06
2.68288e-06
2.68288e-06
2.68288e-06
2.68288e-06
2.68288e-06
2.68288e-06
2.68288e-06
2.68288e-06
2.68288e-06
2.68288e-06
2.68288e-06
2.68288e-06
2.68288e-06
2.71769e-06
2.71769e-06
2.71764e-06
2.71761e-06
2.71758e-06
2.71755e-06
2.71753e-06
2.7175e-06
2.71748e-06
2.71747e-06
2.71744e-06
2.71743e-06
2.71741e-06
2.7174e-06
2.71739e-06
2.71739e-06
2.71738e-06
2.71737e-06
2.71737e-06
2.71737e-06
2.77431e-06
2.77431e-06
2.77424e-06
2.77423e-06
2.77418e-06
2.77416e-06
2.77412e-06
2.77411e-06
2.77408e-06
2.77407e-06
2.77404e-06
2.77403e-06
2.77401e-06
2.774e-06
2.77399e-06
2.77398e-06
2.77397e-06
2.77397e-06
2.77397e-06
2.77397e-06
2.83633e-06
2.83633e-06
2.83626e-06
2.83624e-06
2.83619e-06
2.83618e-06
2.83613e-06
2.83612e-06
2.83608e-06
2.83608e-06
2.83604e-06
2.83604e-06
2.83601e-06
2.83601e-06
2.83599e-06
2.83599e-06
2.83598e-06
2.83597e-06
2.83597e-06
2.83597e-06
2.89108e-06
2.89108e-06
2.89101e-06
2.89099e-06
2.89094e-06
2.89092e-06
2.89089e-06
2.89086e-06
2.89084e-06
2.89081e-06
2.89079e-06
2.89078e-06
2.89076e-06
2.89075e-06
2.89073e-06
2.89073e-06
2.89072e-06
2.89071e-06
2.89071e-06
2.89071e-06
2.93302e-06
2.93303e-06
2.93295e-06
2.93293e-06
2.93288e-06
2.93286e-06
2.93282e-06
2.9328e-06
2.93277e-06
2.93276e-06
2.93272e-06
2.93272e-06
2.93269e-06
2.93268e-06
2.93266e-06
2.93266e-06
2.93265e-06
2.93265e-06
2.93264e-06
2.93264e-06
2.96225e-06
2.96225e-06
2.96217e-06
2.96215e-06
2.9621e-06
2.96208e-06
2.96205e-06
2.96202e-06
2.96199e-06
2.96197e-06
2.96194e-06
2.96193e-06
2.96191e-06
2.9619e-06
2.96188e-06
2.96188e-06
2.96186e-06
2.96186e-06
2.96186e-06
2.96186e-06
2.98155e-06
2.98155e-06
2.98147e-06
2.98146e-06
2.9814e-06
2.98138e-06
2.98134e-06
2.98132e-06
2.98128e-06
2.98127e-06
2.98124e-06
2.98123e-06
2.9812e-06
2.9812e-06
2.98118e-06
2.98117e-06
2.98116e-06
2.98116e-06
2.98115e-06
2.98115e-06
2.99423e-06
2.99423e-06
2.99415e-06
2.99413e-06
2.99408e-06
2.99406e-06
2.99401e-06
2.99399e-06
2.99396e-06
2.99394e-06
2.99391e-06
2.9939e-06
2.99387e-06
2.99387e-06
2.99385e-06
2.99385e-06
2.99383e-06
2.99383e-06
2.99383e-06
2.99383e-06
3.00298e-06
3.00298e-06
3.0029e-06
3.00289e-06
3.00283e-06
3.00281e-06
3.00277e-06
3.00275e-06
3.00271e-06
3.0027e-06
3.00267e-06
3.00266e-06
3.00263e-06
3.00262e-06
3.0026e-06
3.0026e-06
3.00259e-06
3.00259e-06
3.00258e-06
3.00258e-06
3.0097e-06
3.0097e-06
3.00962e-06
3.00961e-06
3.00955e-06
3.00953e-06
3.00949e-06
3.00947e-06
3.00943e-06
3.00942e-06
3.00939e-06
3.00938e-06
3.00935e-06
3.00934e-06
3.00932e-06
3.00932e-06
3.00931e-06
3.00931e-06
3.0093e-06
3.0093e-06
3.01557e-06
3.01557e-06
3.01549e-06
3.01547e-06
3.01542e-06
3.0154e-06
3.01535e-06
3.01534e-06
3.0153e-06
3.01528e-06
3.01525e-06
3.01524e-06
3.01521e-06
3.01521e-06
3.01519e-06
3.01518e-06
3.01517e-06
3.01517e-06
3.01517e-06
3.01516e-06
3.02128e-06
3.02128e-06
3.0212e-06
3.02118e-06
3.02113e-06
3.0211e-06
3.02106e-06
3.02104e-06
3.02101e-06
3.02099e-06
3.02096e-06
3.02095e-06
3.02092e-06
3.02092e-06
3.02089e-06
3.02089e-06
3.02088e-06
3.02088e-06
3.02087e-06
3.02087e-06
3.02721e-06
3.02721e-06
3.02713e-06
3.02711e-06
3.02706e-06
3.02703e-06
3.02699e-06
3.02697e-06
3.02694e-06
3.02691e-06
3.02689e-06
3.02687e-06
3.02685e-06
3.02684e-06
3.02682e-06
3.02682e-06
3.02681e-06
3.0268e-06
3.0268e-06
3.0268e-06
3.0335e-06
3.0335e-06
3.03342e-06
3.0334e-06
3.03335e-06
3.03333e-06
3.03328e-06
3.03327e-06
3.03323e-06
3.03321e-06
3.03318e-06
3.03317e-06
3.03314e-06
3.03314e-06
3.03312e-06
3.03311e-06
3.0331e-06
3.0331e-06
3.03309e-06
3.03309e-06
3.04008e-06
3.04008e-06
3.04001e-06
3.03997e-06
3.03993e-06
3.0399e-06
3.03987e-06
3.03984e-06
3.03981e-06
3.03979e-06
3.03976e-06
3.03975e-06
3.03972e-06
3.03971e-06
3.0397e-06
3.03969e-06
3.03968e-06
3.03967e-06
3.03967e-06
3.03967e-06
3.04662e-06
3.04662e-06
3.04655e-06
3.04652e-06
3.04647e-06
3.04644e-06
3.0464e-06
3.04638e-06
3.04635e-06
3.04632e-06
3.0463e-06
3.04628e-06
3.04626e-06
3.04625e-06
3.04624e-06
3.04623e-06
3.04622e-06
3.04621e-06
3.04621e-06
3.04621e-06
3.05254e-06
3.05254e-06
3.05247e-06
3.05244e-06
3.05239e-06
3.05236e-06
3.05232e-06
3.0523e-06
3.05227e-06
3.05224e-06
3.05222e-06
3.0522e-06
3.05218e-06
3.05217e-06
3.05215e-06
3.05215e-06
3.05214e-06
3.05213e-06
3.05213e-06
3.05213e-06
3.05709e-06
3.0571e-06
3.05702e-06
3.057e-06
3.05695e-06
3.05692e-06
3.05689e-06
3.05686e-06
3.05683e-06
3.05681e-06
3.05679e-06
3.05676e-06
3.05675e-06
3.05673e-06
3.05672e-06
3.05671e-06
3.0567e-06
3.0567e-06
3.05669e-06
3.05669e-06
3.0592e-06
3.0592e-06
3.05919e-06
3.0592e-06
3.05919e-06
3.0592e-06
3.05919e-06
3.0592e-06
3.05919e-06
3.0592e-06
3.05919e-06
3.05919e-06
3.05919e-06
3.05919e-06
3.05919e-06
3.05919e-06
3.05919e-06
3.05919e-06
3.05919e-06
3.05919e-06
)
;

boundaryField
{
    movingWall
    {
        type            kqRWallFunction;
        value           nonuniform List<scalar> 
20
(
3.0592e-06
3.0592e-06
3.05919e-06
3.0592e-06
3.05919e-06
3.0592e-06
3.05919e-06
3.0592e-06
3.05919e-06
3.0592e-06
3.05919e-06
3.05919e-06
3.05919e-06
3.05919e-06
3.05919e-06
3.05919e-06
3.05919e-06
3.05919e-06
3.05919e-06
3.05919e-06
)
;
    }
    fixedWalls
    {
        type            kqRWallFunction;
        value           nonuniform List<scalar> 
60
(
2.68289e-06
2.71769e-06
2.77431e-06
2.83633e-06
2.89108e-06
2.93302e-06
2.96225e-06
2.98155e-06
2.99423e-06
3.00298e-06
3.0097e-06
3.01557e-06
3.02128e-06
3.02721e-06
3.0335e-06
3.04008e-06
3.04662e-06
3.05254e-06
3.05709e-06
3.0592e-06
2.68288e-06
2.71737e-06
2.77397e-06
2.83597e-06
2.89071e-06
2.93264e-06
2.96186e-06
2.98115e-06
2.99383e-06
3.00258e-06
3.0093e-06
3.01516e-06
3.02087e-06
3.0268e-06
3.03309e-06
3.03967e-06
3.04621e-06
3.05213e-06
3.05669e-06
3.05919e-06
2.68289e-06
2.68289e-06
2.68288e-06
2.68288e-06
2.68288e-06
2.68288e-06
2.68288e-06
2.68288e-06
2.68288e-06
2.68288e-06
2.68288e-06
2.68288e-06
2.68288e-06
2.68288e-06
2.68288e-06
2.68288e-06
2.68288e-06
2.68288e-06
2.68288e-06
2.68288e-06
)
;
    }
    frontAndBack
    {
        type            empty;
    }
}


// ************************************************************************* //
