/*--------------------------------*- C++ -*----------------------------------*\
| =========                 |                                                 |
| \\      /  F ield         | OpenFOAM: The Open Source CFD Toolbox           |
|  \\    /   O peration     | Version:  2506                                  |
|   \\  /    A nd           | Website:  www.openfoam.com                      |
|    \\/     M anipulation  |                                                 |
\*---------------------------------------------------------------------------*/
FoamFile
{
    version     2.0;
    format      ascii;
    arch        "LSB;label=32;scalar=64";
    class       volScalarField;
    location    "9.5";
    object      turbulenceProperties:nut;
}
// * * * * * * * * * * * * * * * * * * * * * * * * * * * * * * * * * * * * * //

dimensions      [0 2 -1 0 0 0 0];

internalField   nonuniform List<scalar> 
400
(
9.17801e-07
9.17801e-07
9.17801e-07
9.17801e-07
9.17801e-07
9.17801e-07
9.17801e-07
9.17801e-07
9.178e-07
9.17801e-07
9.178e-07
9.17801e-07
9.178e-07
9.178e-07
9.178e-07
9.178e-07
9.178e-07
9.178e-07
9.178e-07
9.178e-07
9.23708e-07
9.32853e-07
9.32028e-07
9.31682e-07
9.31014e-07
9.30659e-07
9.29997e-07
9.29634e-07
9.28977e-07
9.2861e-07
9.27955e-07
9.27582e-07
9.26932e-07
9.26553e-07
9.25907e-07
9.25523e-07
9.24879e-07
9.24493e-07
9.24169e-07
9.23655e-07
9.33243e-07
9.42745e-07
9.41866e-07
9.41511e-07
9.40799e-07
9.40435e-07
9.39732e-07
9.39363e-07
9.38668e-07
9.38293e-07
9.37607e-07
9.37226e-07
9.36548e-07
9.36162e-07
9.3549e-07
9.35102e-07
9.34434e-07
9.34046e-07
9.33711e-07
9.33186e-07
9.43582e-07
9.53296e-07
9.52395e-07
9.52034e-07
9.51306e-07
9.50932e-07
9.50215e-07
9.49835e-07
9.49126e-07
9.48742e-07
9.48041e-07
9.47651e-07
9.46958e-07
9.46564e-07
9.45877e-07
9.45481e-07
9.44798e-07
9.44401e-07
9.44059e-07
9.43523e-07
9.52622e-07
9.62526e-07
9.61609e-07
9.61237e-07
9.60498e-07
9.60112e-07
9.59389e-07
9.58994e-07
9.58279e-07
9.57878e-07
9.57171e-07
9.56767e-07
9.56065e-07
9.55661e-07
9.54962e-07
9.54557e-07
9.53861e-07
9.53456e-07
9.53108e-07
9.52561e-07
9.59493e-07
9.69546e-07
9.68614e-07
9.68239e-07
9.67486e-07
9.67099e-07
9.66357e-07
9.65963e-07
9.6523e-07
9.64833e-07
9.64108e-07
9.63704e-07
9.62987e-07
9.62579e-07
9.61868e-07
9.61457e-07
9.60751e-07
9.6034e-07
9.59986e-07
9.59431e-07
9.64255e-07
9.74411e-07
9.73471e-07
9.73089e-07
9.72331e-07
9.71935e-07
9.71193e-07
9.70788e-07
9.70056e-07
9.69644e-07
9.68919e-07
9.68504e-07
9.67785e-07
9.6737e-07
9.66654e-07
9.66238e-07
9.65525e-07
9.65109e-07
9.64752e-07
9.64191e-07
9.67388e-07
9.77614e-07
9.76666e-07
9.76285e-07
9.75517e-07
9.75125e-07
9.74368e-07
9.73971e-07
9.73223e-07
9.72819e-07
9.72081e-07
9.7167e-07
9.70941e-07
9.70526e-07
9.69802e-07
9.69385e-07
9.68667e-07
9.68249e-07
9.67889e-07
9.67324e-07
9.69441e-07
9.79713e-07
9.78761e-07
9.78377e-07
9.77607e-07
9.77211e-07
9.76454e-07
9.76049e-07
9.75304e-07
9.74893e-07
9.74155e-07
9.73741e-07
9.73009e-07
9.72592e-07
9.71866e-07
9.71447e-07
9.70725e-07
9.70305e-07
9.69944e-07
9.69376e-07
9.70856e-07
9.81159e-07
9.80204e-07
9.79819e-07
9.79048e-07
9.7865e-07
9.7789e-07
9.77486e-07
9.76736e-07
9.76326e-07
9.75584e-07
9.7517e-07
9.74435e-07
9.74017e-07
9.73289e-07
9.72868e-07
9.72144e-07
9.71723e-07
9.71361e-07
9.70792e-07
9.71941e-07
9.82267e-07
9.8131e-07
9.80924e-07
9.80151e-07
9.79752e-07
9.78991e-07
9.78587e-07
9.77834e-07
9.77424e-07
9.7668e-07
9.76265e-07
9.75528e-07
9.75109e-07
9.74379e-07
9.73958e-07
9.73232e-07
9.7281e-07
9.72447e-07
9.71876e-07
9.72887e-07
9.83233e-07
9.82276e-07
9.81887e-07
9.81112e-07
9.80714e-07
9.79951e-07
9.79545e-07
9.78791e-07
9.78379e-07
9.77635e-07
9.77218e-07
9.76481e-07
9.7606e-07
9.7533e-07
9.74907e-07
9.7418e-07
9.73757e-07
9.73393e-07
9.72822e-07
9.73805e-07
9.84172e-07
9.83211e-07
9.82824e-07
9.82047e-07
9.81647e-07
9.80884e-07
9.80474e-07
9.79723e-07
9.79308e-07
9.78563e-07
9.78146e-07
9.77406e-07
9.76986e-07
9.76252e-07
9.7583e-07
9.75101e-07
9.74678e-07
9.74313e-07
9.7374e-07
9.74759e-07
9.85145e-07
9.84184e-07
9.83793e-07
9.83018e-07
9.82614e-07
9.81852e-07
9.8144e-07
9.80689e-07
9.8027e-07
9.79529e-07
9.79104e-07
9.78369e-07
9.77945e-07
9.77212e-07
9.76787e-07
9.76058e-07
9.75633e-07
9.75267e-07
9.74693e-07
9.75769e-07
9.86177e-07
9.85213e-07
9.84824e-07
9.84044e-07
9.83644e-07
9.82875e-07
9.82469e-07
9.81709e-07
9.81297e-07
9.80546e-07
9.80127e-07
9.79386e-07
9.78962e-07
9.78227e-07
9.77802e-07
9.7707e-07
9.76645e-07
9.76279e-07
9.75704e-07
9.76824e-07
9.87252e-07
9.86293e-07
9.85893e-07
9.85121e-07
9.84712e-07
9.8395e-07
9.83534e-07
9.82781e-07
9.8236e-07
9.81615e-07
9.81191e-07
9.8045e-07
9.80024e-07
9.79289e-07
9.78861e-07
9.78129e-07
9.77701e-07
9.77335e-07
9.76759e-07
9.77872e-07
9.88323e-07
9.8736e-07
9.86963e-07
9.86184e-07
9.85777e-07
9.8501e-07
9.84596e-07
9.8384e-07
9.83417e-07
9.82673e-07
9.82244e-07
9.81506e-07
9.81079e-07
9.80342e-07
9.79911e-07
9.7918e-07
9.78751e-07
9.78383e-07
9.77806e-07
9.78819e-07
9.89289e-07
9.88322e-07
9.87927e-07
9.87145e-07
9.86739e-07
9.85971e-07
9.85555e-07
9.84798e-07
9.84375e-07
9.83628e-07
9.832e-07
9.8246e-07
9.82028e-07
9.81293e-07
9.80864e-07
9.80129e-07
9.79699e-07
9.79331e-07
9.78753e-07
9.79547e-07
9.89833e-07
9.88897e-07
9.88516e-07
9.87762e-07
9.8736e-07
9.86621e-07
9.86206e-07
9.85475e-07
9.85051e-07
9.84326e-07
9.83895e-07
9.83174e-07
9.82738e-07
9.82018e-07
9.81581e-07
9.80861e-07
9.80422e-07
9.8006e-07
9.79482e-07
9.79882e-07
9.79882e-07
9.79881e-07
9.79883e-07
9.7988e-07
9.79883e-07
9.79879e-07
9.79883e-07
9.79879e-07
9.79883e-07
9.79879e-07
9.79883e-07
9.7988e-07
9.79882e-07
9.7988e-07
9.79882e-07
9.79881e-07
9.79881e-07
9.79881e-07
9.79881e-07
)
;

boundaryField
{
    movingWall
    {
        type            nutkWallFunction;
        blending        stepwise;
        value           uniform 0;
    }
    fixedWalls
    {
        type            nutkWallFunction;
        blending        stepwise;
        value           uniform 0;
    }
    frontAndBack
    {
        type            empty;
    }
}


// ************************************************************************* //
