/*--------------------------------*- C++ -*----------------------------------*\
| =========                 |                                                 |
| \\      /  F ield         | OpenFOAM: The Open Source CFD Toolbox           |
|  \\    /   O peration     | Version:  2506                                  |
|   \\  /    A nd           | Website:  www.openfoam.com                      |
|    \\/     M anipulation  |                                                 |
\*---------------------------------------------------------------------------*/
FoamFile
{
    version     2.0;
    format      ascii;
    arch        "LSB;label=32;scalar=64";
    class       volScalarField;
    location    "9.5";
    object      turbulenceProperties:omega;
}
// * * * * * * * * * * * * * * * * * * * * * * * * * * * * * * * * * * * * * //

dimensions      [0 0 -1 0 0 0 0];

internalField   nonuniform List<scalar> 
400
(
2.92317
2.92317
2.92317
2.92317
2.92317
2.92316
2.92317
2.92316
2.92317
2.92316
2.92316
2.92316
2.92316
2.92316
2.92316
2.92316
2.92316
2.92316
2.92316
2.92316
2.94215
2.91331
2.91583
2.91688
2.91894
2.92003
2.92208
2.9232
2.92524
2.92638
2.92842
2.92959
2.93162
2.93281
2.93484
2.93605
2.93809
2.93931
2.94034
2.94198
2.97276
2.9428
2.94547
2.94657
2.94875
2.94988
2.95204
2.95319
2.95533
2.95651
2.95864
2.95983
2.96195
2.96317
2.96528
2.9665
2.96861
2.96984
2.97091
2.97258
3.00591
2.97529
2.97802
2.97914
2.98137
2.98252
2.98473
2.98591
2.9881
2.9893
2.99148
2.9927
2.99487
2.99611
2.99826
2.99952
3.00167
3.00293
3.00402
3.00572
3.03487
3.00364
3.00643
3.00757
3.00984
3.01102
3.01326
3.01447
3.0167
3.01794
3.02014
3.0214
3.0236
3.02487
3.02707
3.02834
3.03054
3.03183
3.03293
3.03467
3.05685
3.02516
3.02799
3.02914
3.03145
3.03264
3.03493
3.03615
3.03841
3.03965
3.04191
3.04317
3.04541
3.0467
3.04893
3.05023
3.05246
3.05376
3.05488
3.05665
3.07206
3.04004
3.0429
3.04407
3.04639
3.04761
3.0499
3.05115
3.05342
3.0547
3.05696
3.05825
3.0605
3.0618
3.06406
3.06537
3.06762
3.06894
3.07007
3.07186
3.08206
3.04982
3.0527
3.05388
3.05623
3.05744
3.05976
3.061
3.06331
3.06457
3.06686
3.06815
3.07043
3.07173
3.074
3.07532
3.07759
3.07892
3.08006
3.08186
3.08861
3.05623
3.05912
3.0603
3.06266
3.06388
3.06621
3.06746
3.06977
3.07105
3.07334
3.07464
3.07692
3.07824
3.08052
3.08184
3.08412
3.08545
3.0866
3.0884
3.09313
3.06065
3.06355
3.06474
3.0671
3.06832
3.07066
3.07191
3.07423
3.07551
3.07781
3.07911
3.0814
3.08272
3.08501
3.08634
3.08862
3.08996
3.09111
3.09292
3.09659
3.06404
3.06695
3.06813
3.0705
3.07173
3.07407
3.07532
3.07765
3.07893
3.08124
3.08254
3.08484
3.08616
3.08845
3.08978
3.09208
3.09341
3.09457
3.09638
3.09961
3.067
3.0699
3.0711
3.07347
3.0747
3.07705
3.0783
3.08063
3.08192
3.08423
3.08554
3.08784
3.08916
3.09146
3.09279
3.09509
3.09643
3.09758
3.0994
3.10255
3.06987
3.07279
3.07398
3.07636
3.07759
3.07994
3.0812
3.08353
3.08482
3.08714
3.08844
3.09075
3.09208
3.09438
3.09571
3.09802
3.09936
3.10052
3.10234
3.10559
3.07285
3.07577
3.07697
3.07935
3.08059
3.08294
3.08421
3.08654
3.08784
3.09015
3.09147
3.09377
3.0951
3.09741
3.09875
3.10105
3.1024
3.10356
3.10539
3.10883
3.07602
3.07895
3.08015
3.08253
3.08377
3.08613
3.08739
3.08974
3.09103
3.09336
3.09467
3.09698
3.09832
3.10063
3.10197
3.10428
3.10563
3.10679
3.10862
3.11221
3.07933
3.08226
3.08347
3.08585
3.0871
3.08945
3.09073
3.09307
3.09437
3.0967
3.09802
3.10034
3.10167
3.10398
3.10533
3.10765
3.109
3.11016
3.112
3.11556
3.08261
3.08555
3.08676
3.08915
3.0904
3.09276
3.09404
3.09638
3.09769
3.10002
3.10135
3.10366
3.105
3.10732
3.10867
3.11099
3.11235
3.11351
3.11535
3.1186
3.08559
3.08853
3.08974
3.09214
3.09339
3.09576
3.09703
3.09938
3.10069
3.10302
3.10435
3.10667
3.10802
3.11034
3.11169
3.11401
3.11538
3.11654
3.11838
3.12093
3.0885
3.09134
3.09251
3.09483
3.09605
3.09834
3.09961
3.10189
3.1032
3.10546
3.1068
3.10906
3.11042
3.11269
3.11407
3.11634
3.11773
3.11888
3.12072
3.12201
3.122
3.12201
3.122
3.12201
3.122
3.12201
3.122
3.12201
3.122
3.12201
3.122
3.12201
3.122
3.122
3.122
3.122
3.122
3.122
3.122
)
;

boundaryField
{
    movingWall
    {
        type            calculated;
        value           nonuniform List<scalar> 
20
(
3.12201
3.122
3.12201
3.122
3.12201
3.122
3.12201
3.122
3.12201
3.122
3.12201
3.122
3.12201
3.122
3.122
3.122
3.122
3.122
3.122
3.122
)
;
    }
    fixedWalls
    {
        type            calculated;
        value           nonuniform List<scalar> 
60
(
2.92317
2.94215
2.97276
3.00591
3.03487
3.05685
3.07206
3.08206
3.08861
3.09313
3.09659
3.09961
3.10255
3.10559
3.10883
3.11221
3.11556
3.1186
3.12093
3.12201
2.92316
2.94198
2.97258
3.00572
3.03467
3.05665
3.07186
3.08186
3.0884
3.09292
3.09638
3.0994
3.10234
3.10539
3.10862
3.112
3.11535
3.11838
3.12072
3.122
2.92317
2.92317
2.92317
2.92317
2.92317
2.92316
2.92317
2.92316
2.92317
2.92316
2.92316
2.92316
2.92316
2.92316
2.92316
2.92316
2.92316
2.92316
2.92316
2.92316
)
;
    }
    frontAndBack
    {
        type            empty;
    }
}


// ************************************************************************* //
