/*--------------------------------*- C++ -*----------------------------------*\
| =========                 |                                                 |
| \\      /  F ield         | OpenFOAM: The Open Source CFD Toolbox           |
|  \\    /   O peration     | Version:  2506                                  |
|   \\  /    A nd           | Website:  www.openfoam.com                      |
|    \\/     M anipulation  |                                                 |
\*---------------------------------------------------------------------------*/
FoamFile
{
    version     2.0;
    format      ascii;
    arch        "LSB;label=32;scalar=64";
    class       volVectorField;
    location    "9.5";
    object      vorticityField;
}
// * * * * * * * * * * * * * * * * * * * * * * * * * * * * * * * * * * * * * //

dimensions      [0 0 -1 0 0 0 0];

internalField   nonuniform List<vector> 
400
(
(0 -0 1.18227e-11)
(0 -0 -1.58077e-11)
(0 -0 3.51505e-12)
(0 -0 -8.05919e-13)
(0 -0 1.70305e-13)
(0 -0 2.50898e-14)
(0 -0 5.39993e-14)
(0 -0 -1.96194e-14)
(0 -0 -1.62172e-14)
(0 -0 -1.69692e-15)
(0 -0 1.4103e-14)
(0 -0 6.56903e-14)
(0 -0 -2.18644e-15)
(0 -0 -8.71255e-15)
(0 -0 6.91024e-14)
(0 -0 7.53257e-14)
(0 -0 1.31342e-14)
(0 -0 6.61119e-14)
(0 -0 4.86654e-14)
(0 -0 -9.07994e-15)
(0 -0 4.57282e-13)
(0 -0 -9.16346e-13)
(0 -0 3.53171e-13)
(0 -0 3.60976e-14)
(0 -0 5.85572e-14)
(0 -0 9.54722e-15)
(0 -0 9.36029e-15)
(0 -0 7.75066e-14)
(0 -0 9.86372e-14)
(0 -0 1.0457e-13)
(0 -0 9.07841e-14)
(0 -0 2.68618e-14)
(0 -0 5.60456e-14)
(0 -0 5.00019e-14)
(0 -0 -5.2197e-14)
(0 -0 -4.78175e-14)
(0 -0 5.97778e-14)
(0 -0 1.02893e-14)
(0 -0 3.14346e-15)
(0 -0 2.61918e-15)
(0 -0 -6.68269e-12)
(0 -0 1.34141e-11)
(0 -0 -3.22333e-12)
(0 -0 6.81609e-13)
(0 -0 -2.05536e-13)
(0 -0 -1.02499e-13)
(0 -0 -8.91477e-14)
(0 -0 -7.72142e-14)
(0 -0 -2.38565e-14)
(0 -0 -3.35598e-14)
(0 -0 -9.8863e-14)
(0 -0 -8.99042e-14)
(0 -0 -4.6521e-14)
(0 -0 -3.54072e-14)
(0 -0 -4.41792e-14)
(0 -0 -5.98182e-14)
(0 -0 -1.00186e-13)
(0 -0 -9.59209e-14)
(0 -0 -4.9843e-14)
(0 -0 2.56131e-14)
(0 -0 4.70369e-12)
(0 -0 -1.00291e-11)
(0 -0 2.24495e-12)
(0 -0 -5.39158e-13)
(0 -0 1.49702e-13)
(0 -0 1.02969e-15)
(0 -0 -3.13568e-14)
(0 -0 -6.39953e-14)
(0 -0 -1.6641e-13)
(0 -0 -1.66376e-13)
(0 -0 -6.37347e-14)
(0 -0 -5.09105e-14)
(0 -0 -5.10207e-14)
(0 -0 -2.78048e-14)
(0 -0 6.67644e-15)
(0 -0 -1.3095e-14)
(0 -0 -2.57401e-14)
(0 -0 -3.96966e-14)
(0 -0 -6.33739e-15)
(0 -0 -5.45699e-15)
(0 -0 -1.33527e-13)
(0 -0 -4.43598e-13)
(0 -0 6.97892e-14)
(0 -0 -2.30515e-14)
(0 -0 -1.56372e-14)
(0 -0 1.32409e-14)
(0 -0 3.64093e-14)
(0 -0 3.19587e-14)
(0 -0 6.08045e-14)
(0 -0 9.16032e-14)
(0 -0 5.10497e-14)
(0 -0 -1.6107e-14)
(0 -0 -4.90555e-15)
(0 -0 -2.88294e-14)
(0 -0 -3.30789e-14)
(0 -0 3.54528e-15)
(0 -0 6.76537e-14)
(0 -0 3.19703e-14)
(0 -0 -3.006e-14)
(0 -0 2.68243e-14)
(0 -0 -6.56222e-12)
(0 -0 1.01155e-11)
(0 -0 -2.3979e-12)
(0 -0 4.67441e-13)
(0 -0 -1.15055e-13)
(0 -0 4.07949e-14)
(0 -0 2.94973e-14)
(0 -0 -1.42958e-15)
(0 -0 -8.23542e-15)
(0 -0 -1.26757e-14)
(0 -0 -1.37207e-14)
(0 -0 2.96965e-14)
(0 -0 1.08522e-14)
(0 -0 7.94154e-15)
(0 -0 4.99126e-15)
(0 -0 2.14099e-15)
(0 -0 -2.11278e-14)
(0 -0 3.57954e-14)
(0 -0 2.37434e-14)
(0 -0 -9.74475e-15)
(0 -0 9.46982e-12)
(0 -0 -1.31707e-11)
(0 -0 3.23144e-12)
(0 -0 -5.58311e-13)
(0 -0 2.95976e-13)
(0 -0 7.23819e-14)
(0 -0 6.82274e-14)
(0 -0 3.37811e-14)
(0 -0 -1.38923e-14)
(0 -0 -4.59343e-14)
(0 -0 -6.02236e-14)
(0 -0 3.60518e-14)
(0 -0 1.42576e-13)
(0 -0 1.61829e-13)
(0 -0 3.546e-14)
(0 -0 2.38363e-14)
(0 -0 -3.72247e-14)
(0 -0 -7.48722e-15)
(0 -0 -4.7815e-15)
(0 -0 1.92998e-15)
(0 -0 -3.60863e-12)
(0 -0 5.84765e-12)
(0 -0 -1.35071e-12)
(0 -0 2.33763e-13)
(0 -0 -1.07994e-13)
(0 -0 -3.24908e-16)
(0 -0 -5.64867e-14)
(0 -0 7.73709e-14)
(0 -0 3.27581e-14)
(0 -0 -1.26508e-14)
(0 -0 1.82843e-14)
(0 -0 -8.12495e-15)
(0 -0 -6.15377e-14)
(0 -0 -2.31367e-14)
(0 -0 6.33004e-14)
(0 -0 1.14578e-14)
(0 -0 6.7149e-14)
(0 -0 2.25964e-15)
(0 -0 -1.35508e-14)
(0 -0 4.60671e-16)
(0 -0 -5.36719e-12)
(0 -0 5.88533e-12)
(0 -0 -1.50928e-12)
(0 -0 2.25567e-13)
(0 -0 -1.99966e-13)
(0 -0 -1.39849e-13)
(0 -0 -5.08015e-14)
(0 -0 2.28946e-14)
(0 -0 -2.9738e-15)
(0 -0 -3.22583e-14)
(0 -0 8.53036e-14)
(0 -0 8.73798e-14)
(0 -0 4.05616e-14)
(0 -0 -8.74595e-14)
(0 -0 -6.46459e-14)
(0 -0 1.34402e-14)
(0 -0 7.34884e-14)
(0 -0 5.97648e-14)
(0 -0 -1.52116e-14)
(0 -0 -2.69733e-14)
(0 -0 1.22643e-11)
(0 -0 -1.45545e-11)
(0 -0 3.53691e-12)
(0 -0 -7.3899e-13)
(0 -0 1.52748e-13)
(0 -0 -8.71392e-15)
(0 -0 3.96907e-14)
(0 -0 -6.61848e-14)
(0 -0 4.70619e-14)
(0 -0 4.93091e-16)
(0 -0 -5.11905e-14)
(0 -0 -4.42452e-14)
(0 -0 -4.81854e-14)
(0 -0 1.56309e-15)
(0 -0 2.36195e-15)
(0 -0 4.74469e-14)
(0 -0 -7.34446e-14)
(0 -0 -1.38027e-14)
(0 -0 5.10794e-16)
(0 -0 -5.97863e-15)
(0 -0 -1.39479e-11)
(0 -0 1.67148e-11)
(0 -0 -3.77978e-12)
(0 -0 9.50363e-13)
(0 -0 -1.04307e-13)
(0 -0 1.82734e-13)
(0 -0 1.60389e-14)
(0 -0 -9.042e-14)
(0 -0 -8.94715e-14)
(0 -0 5.41763e-14)
(0 -0 -5.05512e-14)
(0 -0 -6.39029e-14)
(0 -0 -5.85139e-14)
(0 -0 -5.29425e-14)
(0 -0 -5.37177e-14)
(0 -0 -9.09312e-14)
(0 -0 -7.14885e-14)
(0 -0 -6.44417e-14)
(0 -0 -2.03013e-14)
(0 -0 5.14119e-14)
(0 -0 8.09562e-12)
(0 -0 -1.03691e-11)
(0 -0 2.37806e-12)
(0 -0 -5.0268e-13)
(0 -0 2.21095e-13)
(0 -0 1.57365e-14)
(0 -0 8.84506e-14)
(0 -0 4.08243e-14)
(0 -0 6.70339e-14)
(0 -0 4.86153e-14)
(0 -0 1.21765e-13)
(0 -0 1.56224e-13)
(0 -0 1.58714e-13)
(0 -0 1.25165e-13)
(0 -0 1.02484e-13)
(0 -0 6.13958e-14)
(0 -0 3.76633e-14)
(0 -0 4.32534e-14)
(0 -0 2.93727e-14)
(0 -0 2.90177e-14)
(0 -0 1.40499e-12)
(0 -0 -9.27176e-13)
(0 -0 1.25517e-13)
(0 -0 -9.4531e-14)
(0 -0 -2.8269e-14)
(0 -0 -8.72986e-14)
(0 -0 -3.13943e-14)
(0 -0 2.79546e-15)
(0 -0 -5.22795e-14)
(0 -0 -7.98895e-14)
(0 -0 2.83595e-15)
(0 -0 -3.47537e-14)
(0 -0 -1.75944e-14)
(0 -0 1.8248e-14)
(0 -0 -5.6488e-14)
(0 -0 -6.89987e-14)
(0 -0 4.80904e-14)
(0 -0 -5.41405e-14)
(0 -0 1.92472e-15)
(0 -0 9.72731e-15)
(0 -0 -8.92109e-12)
(0 -0 1.17351e-11)
(0 -0 -2.76845e-12)
(0 -0 5.53828e-13)
(0 -0 -2.69226e-13)
(0 -0 -1.47111e-14)
(0 -0 -1.15924e-13)
(0 -0 -4.97276e-14)
(0 -0 -4.1875e-14)
(0 -0 -9.3393e-15)
(0 -0 -9.62915e-14)
(0 -0 -1.17389e-13)
(0 -0 -1.26024e-13)
(0 -0 -1.50205e-13)
(0 -0 -9.09619e-14)
(0 -0 -8.84891e-14)
(0 -0 -7.92958e-14)
(0 -0 9.88967e-15)
(0 -0 -2.7694e-14)
(0 -0 -9.76103e-15)
(0 -0 1.16014e-11)
(0 -0 -1.70753e-11)
(0 -0 4.11856e-12)
(0 -0 -8.80495e-13)
(0 -0 2.63733e-13)
(0 -0 1.23625e-14)
(0 -0 6.97831e-14)
(0 -0 -2.80969e-15)
(0 -0 -5.24479e-15)
(0 -0 -3.11887e-15)
(0 -0 8.07622e-15)
(0 -0 9.36218e-15)
(0 -0 -8.50399e-15)
(0 -0 1.30316e-14)
(0 -0 3.65245e-14)
(0 -0 1.02907e-13)
(0 -0 2.40113e-14)
(0 -0 -1.80591e-14)
(0 -0 1.61345e-14)
(0 -0 3.71414e-14)
(0 -0 -7.11719e-12)
(0 -0 1.02476e-11)
(0 -0 -2.41397e-12)
(0 -0 6.30066e-13)
(0 -0 -9.57642e-14)
(0 -0 7.08086e-14)
(0 -0 6.02974e-14)
(0 -0 1.27096e-13)
(0 -0 1.11311e-13)
(0 -0 5.61076e-14)
(0 -0 1.11322e-13)
(0 -0 5.7965e-14)
(0 -0 5.94413e-14)
(0 -0 1.13601e-13)
(0 -0 1.11004e-13)
(0 -0 8.8498e-14)
(0 -0 -3.38897e-15)
(0 -0 -1.63794e-14)
(0 -0 -9.22021e-15)
(0 -0 6.28034e-15)
(0 -0 -3.56113e-13)
(0 -0 3.27237e-12)
(0 -0 -8.30555e-13)
(0 -0 1.49407e-13)
(0 -0 1.62845e-14)
(0 -0 -5.3495e-14)
(0 -0 -5.2199e-15)
(0 -0 3.54328e-14)
(0 -0 3.64651e-14)
(0 -0 9.00544e-14)
(0 -0 9.09281e-14)
(0 -0 9.26493e-14)
(0 -0 6.49831e-14)
(0 -0 2.81875e-14)
(0 -0 -2.50708e-14)
(0 -0 -5.29172e-14)
(0 -0 6.58939e-15)
(0 -0 6.64363e-14)
(0 -0 -3.65024e-15)
(0 -0 6.42587e-15)
(0 -0 5.33858e-12)
(0 -0 -1.21844e-11)
(0 -0 2.92154e-12)
(0 -0 -6.22392e-13)
(0 -0 1.97539e-13)
(0 -0 6.36996e-14)
(0 -0 2.64786e-14)
(0 -0 -1.78563e-14)
(0 -0 -8.72768e-15)
(0 -0 -6.80561e-15)
(0 -0 -5.57956e-14)
(0 -0 1.14161e-14)
(0 -0 8.82372e-15)
(0 -0 -9.2285e-14)
(0 -0 -9.59023e-14)
(0 -0 -8.25928e-14)
(0 -0 -1.99523e-14)
(0 -0 1.12125e-15)
(0 -0 -8.30021e-16)
(0 -0 1.04571e-14)
(0 -0 -2.97134e-12)
(0 -0 4.95505e-12)
(0 -0 -1.25132e-12)
(0 -0 2.10825e-13)
(0 -0 -1.64723e-13)
(0 -0 -9.57161e-14)
(0 -0 -1.4082e-13)
(0 -0 -7.99869e-14)
(0 -0 -1.3719e-13)
(0 -0 -1.4928e-13)
(0 -0 -1.29267e-13)
(0 -0 -1.18443e-13)
(0 -0 -7.24765e-14)
(0 -0 -2.24359e-14)
(0 -0 3.73515e-14)
(0 -0 5.34634e-14)
(0 -0 2.79138e-14)
(0 -0 -7.41351e-14)
(0 -0 -2.53698e-14)
(0 -0 -1.47302e-14)
(0 -0 -6.02126e-12)
(0 -0 8.60545e-12)
(0 -0 -1.80182e-12)
(0 -0 4.54968e-13)
(0 -0 -7.80336e-14)
(0 -0 2.76587e-14)
(0 -0 3.99868e-14)
(0 -0 4.23712e-15)
(0 -0 5.82333e-14)
(0 -0 5.05917e-14)
(0 -0 1.44463e-14)
(0 -0 1.48224e-14)
(0 -0 3.0047e-14)
(0 -0 3.47158e-14)
(0 -0 1.23432e-14)
(0 -0 2.10094e-14)
(0 -0 1.67841e-15)
(0 -0 -1.41731e-14)
(0 -0 2.69899e-14)
(0 -0 3.59936e-14)
)
;

boundaryField
{
    movingWall
    {
        type            calculated;
        value           nonuniform List<vector> 
20
(
(0 -0 -1.35245e-11)
(0 -0 1.07884e-11)
(0 -0 -1.61668e-12)
(0 -0 7.21421e-13)
(0 -0 2.05724e-13)
(0 -0 3.55825e-13)
(0 -0 3.85457e-13)
(0 -0 2.70691e-13)
(0 -0 3.14886e-13)
(0 -0 2.62835e-13)
(0 -0 2.53795e-13)
(0 -0 2.54171e-13)
(0 -0 1.80578e-13)
(0 -0 9.64285e-14)
(0 -0 1.23432e-14)
(0 -0 2.10094e-14)
(0 -0 -8.71394e-14)
(0 -0 -1.41731e-14)
(0 -0 4.42938e-14)
(0 -0 9.77063e-14)
)
;
    }
    fixedWalls
    {
        type            calculated;
        value           nonuniform List<vector> 
60
(
(0 -0 6.73305e-11)
(0 -0 4.35315e-12)
(0 -0 -5.80491e-11)
(0 -0 4.24211e-11)
(0 -0 1.33129e-12)
(0 -0 -4.33603e-11)
(0 -0 5.74521e-11)
(0 -0 -2.50342e-11)
(0 -0 -2.61483e-11)
(0 -0 6.2925e-11)
(0 -0 -7.10043e-11)
(0 -0 4.41345e-11)
(0 -0 3.54044e-12)
(0 -0 -5.01867e-11)
(0 -0 7.31453e-11)
(0 -0 -4.41545e-11)
(0 -0 -1.39195e-11)
(0 -0 5.24019e-11)
(0 -0 -2.14431e-11)
(0 -0 -3.64462e-11)
(0 -0 -4.80669e-15)
(0 -0 4.64306e-15)
(0 -0 3.6878e-14)
(0 -0 1.09002e-14)
(0 -0 2.73056e-14)
(0 -0 -7.85394e-15)
(0 -0 9.47254e-15)
(0 -0 2.27844e-14)
(0 -0 -2.77591e-15)
(0 -0 1.09929e-14)
(0 -0 6.36719e-14)
(0 -0 1.7696e-14)
(0 -0 1.10991e-14)
(0 -0 1.47986e-14)
(0 -0 5.50146e-14)
(0 -0 1.69584e-14)
(0 -0 2.24264e-14)
(0 -0 1.87213e-14)
(0 -0 -1.9913e-14)
(0 -0 3.41022e-14)
(0 -0 2.02805e-11)
(0 -0 -1.85085e-11)
(0 -0 3.36452e-12)
(0 -0 -1.01066e-12)
(0 -0 -6.90434e-14)
(0 -0 -2.06756e-13)
(0 -0 -1.77847e-13)
(0 -0 -1.52846e-13)
(0 -0 -1.05035e-13)
(0 -0 -9.05148e-14)
(0 -0 -1.19124e-13)
(0 -0 -7.73377e-14)
(0 -0 -4.65954e-14)
(0 -0 -5.31215e-14)
(0 -0 7.66051e-14)
(0 -0 8.28283e-14)
(0 -0 -7.56836e-14)
(0 -0 -3.25071e-14)
(0 -0 -5.54474e-15)
(0 -0 -5.34889e-14)
)
;
    }
    frontAndBack
    {
        type            empty;
    }
}


// ************************************************************************* //
