/*--------------------------------*- C++ -*----------------------------------*\
| =========                 |                                                 |
| \\      /  F ield         | OpenFOAM: The Open Source CFD Toolbox           |
|  \\    /   O peration     | Version:  2506                                  |
|   \\  /    A nd           | Website:  www.openfoam.com                      |
|    \\/     M anipulation  |                                                 |
\*---------------------------------------------------------------------------*/
FoamFile
{
    version     2.0;
    format      ascii;
    arch        "LSB;label=32;scalar=64";
    class       volVectorField;
    location    "9.5";
    object      wallShearStress;
}
// * * * * * * * * * * * * * * * * * * * * * * * * * * * * * * * * * * * * * //

dimensions      [0 2 -2 0 0 0 0];

internalField   uniform (0 0 0);

boundaryField
{
    movingWall
    {
        type            calculated;
        value           uniform (0 0 0);
    }
    fixedWalls
    {
        type            calculated;
        value           nonuniform List<vector> 
60
(
(2.13179e-16 -7.07458e-16 0)
(-4.0335e-16 -5.38314e-17 0)
(1.32671e-16 6.97584e-16 0)
(2.39759e-16 -5.12031e-16 0)
(-3.25385e-16 -2.25286e-17 0)
(2.01868e-16 4.81308e-16 0)
(-1.20084e-17 -6.18973e-16 0)
(-1.54384e-16 2.82868e-16 0)
(1.92032e-16 2.5552e-16 0)
(-1.04226e-16 -6.30334e-16 0)
(9.89528e-18 7.09501e-16 0)
(9.25524e-17 -4.53814e-16 0)
(-1.52988e-16 -1.80572e-17 0)
(1.3836e-16 5.24094e-16 0)
(7.62453e-17 -7.97589e-16 0)
(-3.17237e-16 4.79492e-16 0)
(3.42461e-16 1.98826e-16 0)
(-1.19214e-17 -6.46534e-16 0)
(-3.19417e-16 2.45331e-16 0)
(1.82025e-16 3.93735e-16 0)
(-5.92392e-19 -4.80669e-20 0)
(1.25371e-18 4.64306e-20 0)
(5.56037e-20 3.6878e-19 0)
(-6.53248e-19 6.51103e-19 0)
(-6.68551e-19 -2.69045e-19 0)
(1.54533e-20 -7.85394e-20 0)
(5.10638e-20 9.47254e-20 0)
(2.4761e-20 2.27844e-19 0)
(-5.66596e-19 5.14342e-19 0)
(-1.16384e-18 6.5203e-19 0)
(-1.26342e-18 9.46179e-20 0)
(-6.34565e-19 -3.65141e-19 0)
(1.26976e-18 1.10991e-19 0)
(-5.64102e-19 6.90087e-19 0)
(-4.15754e-20 8.04484e-21 0)
(-9.13853e-21 1.69584e-19 0)
(2.93826e-21 2.24264e-19 0)
(-6.1751e-19 1.87213e-19 0)
(-1.95404e-20 3.42971e-19 0)
(-1.20789e-18 -2.01079e-19 0)
(-6.78015e-17 -9.28279e-16 0)
(1.42452e-16 2.10457e-16 0)
(-3.71979e-17 -5.03278e-17 0)
(6.55389e-18 1.0158e-17 0)
(-4.63864e-18 -2.6472e-18 0)
(-1.48515e-18 -7.31978e-19 0)
(-1.77425e-18 -1.27481e-18 0)
(-1.13607e-18 -5.40033e-19 0)
(-7.26006e-19 -4.77449e-20 0)
(-8.71209e-19 3.24884e-19 0)
(-1.4733e-18 4.27573e-20 0)
(-1.00298e-18 -4.27274e-19 0)
(-4.22225e-19 -7.50219e-19 0)
(-3.56964e-19 -4.91364e-19 0)
(1.01031e-18 -4.6625e-19 0)
(9.48073e-19 7.02083e-19 0)
(-1.01952e-18 5.75991e-19 0)
(-5.63108e-19 -5.40509e-19 0)
(5.54474e-20 -4.20174e-19 0)
(-3.5329e-19 -2.4479e-19 0)
)
;
    }
    frontAndBack
    {
        type            empty;
    }
}


// ************************************************************************* //
