/*--------------------------------*- C++ -*----------------------------------*\
| =========                 |                                                 |
| \\      /  F ield         | OpenFOAM: The Open Source CFD Toolbox           |
|  \\    /   O peration     | Version:  2506                                  |
|   \\  /    A nd           | Website:  www.openfoam.com                      |
|    \\/     M anipulation  |                                                 |
\*---------------------------------------------------------------------------*/
FoamFile
{
    version     2.0;
    format      ascii;
    arch        "LSB;label=32;scalar=64";
    class       volScalarField;
    location    "9.5";
    object      yPlus;
}
// * * * * * * * * * * * * * * * * * * * * * * * * * * * * * * * * * * * * * //

dimensions      [0 0 0 0 0 0 0];

internalField   uniform 0;

boundaryField
{
    movingWall
    {
        type            calculated;
        value           nonuniform List<scalar> 
20
(
4.89821e-06
2.25911e-06
1.08419e-06
5.65872e-07
4.42771e-07
4.71487e-07
5.01028e-07
4.10348e-07
4.41371e-07
4.08894e-07
4.10061e-07
4.15815e-07
3.51345e-07
2.60618e-07
1.8692e-07
9.10019e-08
2.41308e-07
6.39165e-08
1.81656e-07
2.35973e-07
)
;
    }
    fixedWalls
    {
        type            calculated;
        value           nonuniform List<scalar> 
60
(
6.58442e-06
3.00797e-06
6.32835e-06
5.46699e-06
2.84591e-06
5.38653e-06
6.11173e-06
4.08314e-06
4.03478e-06
6.27579e-06
6.6634e-06
5.2924e-06
1.3052e-06
5.66299e-06
6.92006e-06
5.45555e-06
3.63044e-06
6.04813e-06
4.0223e-06
4.89821e-06
1.67086e-07
2.35769e-07
1.51818e-07
1.91134e-07
1.66601e-07
7.00622e-08
7.69437e-08
1.19332e-07
1.77898e-07
2.45769e-07
2.45014e-07
1.68439e-07
2.36523e-07
1.95349e-07
1.32074e-07
1.02951e-07
1.18391e-07
1.73554e-07
6.70449e-08
2.35973e-07
6.58442e-06
3.06884e-06
1.48642e-06
6.93312e-07
4.55719e-07
3.37624e-07
3.49708e-07
2.95008e-07
2.35704e-07
2.39921e-07
2.88602e-07
2.42928e-07
1.96241e-07
1.77042e-07
2.36068e-07
2.40338e-07
2.37519e-07
1.80217e-07
1.40341e-07
1.67086e-07
)
;
    }
    frontAndBack
    {
        type            empty;
    }
}


// ************************************************************************* //
