/*--------------------------------*- C++ -*----------------------------------*\
| =========                 |                                                 |
| \\      /  F ield         | OpenFOAM: The Open Source CFD Toolbox           |
|  \\    /   O peration     | Version:  2506                                  |
|   \\  /    A nd           | Website:  www.openfoam.com                      |
|    \\/     M anipulation  |                                                 |
\*---------------------------------------------------------------------------*/
FoamFile
{
    version     2.0;
    format      ascii;
    arch        "LSB;label=32;scalar=64";
    class       volVectorField;
    location    "7.25";
    object      diffU;
}
// * * * * * * * * * * * * * * * * * * * * * * * * * * * * * * * * * * * * * //

dimensions      [0 1 -1 0 0 0 0];

internalField   nonuniform List<vector> 
400
(
(0 0 0)
(1.94289e-14 -2.06116e-13 0)
(1.43219e-14 -1.60713e-13 0)
(1.46549e-14 -1.71336e-13 0)
(1.44329e-14 -1.69016e-13 0)
(1.42109e-14 -1.69605e-13 0)
(1.43219e-14 -1.6952e-13 0)
(1.40998e-14 -1.69512e-13 0)
(1.39888e-14 -1.69489e-13 0)
(1.37668e-14 -1.69428e-13 0)
(1.35447e-14 -1.69417e-13 0)
(1.35447e-14 -1.69484e-13 0)
(1.35447e-14 -1.69658e-13 0)
(1.37668e-14 -1.697e-13 0)
(1.38778e-14 -1.6961e-13 0)
(1.35447e-14 -1.69607e-13 0)
(1.38778e-14 -1.69626e-13 0)
(1.35447e-14 -1.69572e-13 0)
(1.38778e-14 -1.69591e-13 0)
(1.37668e-14 -1.69552e-13 0)
(4.64073e-14 -1.69825e-13 0)
(3.9968e-15 -1.68978e-13 0)
(1.38778e-14 -1.69339e-13 0)
(1.28786e-14 -1.69339e-13 0)
(1.31006e-14 -1.69367e-13 0)
(1.33227e-14 -1.69496e-13 0)
(1.35447e-14 -1.69571e-13 0)
(1.37668e-14 -1.69505e-13 0)
(1.33227e-14 -1.69404e-13 0)
(1.37668e-14 -1.69392e-13 0)
(1.37668e-14 -1.69472e-13 0)
(1.37668e-14 -1.69612e-13 0)
(1.38778e-14 -1.69791e-13 0)
(1.39888e-14 -1.69724e-13 0)
(1.37668e-14 -1.69548e-13 0)
(1.37668e-14 -1.69494e-13 0)
(1.37668e-14 -1.69533e-13 0)
(1.35447e-14 -1.69569e-13 0)
(1.37668e-14 -1.69685e-13 0)
(1.35447e-14 -1.69622e-13 0)
(8.88178e-16 -3.13883e-13 0)
(1.69864e-14 -1.37946e-13 0)
(1.31006e-14 -1.76865e-13 0)
(1.33227e-14 -1.67848e-13 0)
(1.33227e-14 -1.6991e-13 0)
(1.35447e-14 -1.69473e-13 0)
(1.33227e-14 -1.69605e-13 0)
(1.33227e-14 -1.69634e-13 0)
(1.35447e-14 -1.69686e-13 0)
(1.37668e-14 -1.69737e-13 0)
(1.38778e-14 -1.69742e-13 0)
(1.39888e-14 -1.69667e-13 0)
(1.38778e-14 -1.69607e-13 0)
(1.38778e-14 -1.69522e-13 0)
(1.35447e-14 -1.69511e-13 0)
(1.37668e-14 -1.69499e-13 0)
(1.39888e-14 -1.69499e-13 0)
(1.38778e-14 -1.6959e-13 0)
(1.38778e-14 -1.69734e-13 0)
(1.37668e-14 -1.69717e-13 0)
(-5.10703e-15 -4.25415e-14 0)
(1.96509e-14 -1.97202e-13 0)
(1.37668e-14 -1.6294e-13 0)
(1.4877e-14 -1.70908e-13 0)
(1.43219e-14 -1.69196e-13 0)
(1.43219e-14 -1.69562e-13 0)
(1.39888e-14 -1.69482e-13 0)
(1.39888e-14 -1.69588e-13 0)
(1.38778e-14 -1.6965e-13 0)
(1.35447e-14 -1.69667e-13 0)
(1.37668e-14 -1.69645e-13 0)
(1.33227e-14 -1.69633e-13 0)
(1.35447e-14 -1.69647e-13 0)
(1.38778e-14 -1.69638e-13 0)
(1.37668e-14 -1.69662e-13 0)
(1.39888e-14 -1.69633e-13 0)
(1.37668e-14 -1.69578e-13 0)
(1.35447e-14 -1.6959e-13 0)
(1.37668e-14 -1.6965e-13 0)
(1.39888e-14 -1.69671e-13 0)
(4.39648e-14 -1.89688e-13 0)
(5.77316e-15 -1.65107e-13 0)
(1.4766e-14 -1.70477e-13 0)
(1.35447e-14 -1.69218e-13 0)
(1.38778e-14 -1.69382e-13 0)
(1.38778e-14 -1.69305e-13 0)
(1.40998e-14 -1.69388e-13 0)
(1.39888e-14 -1.69454e-13 0)
(1.39888e-14 -1.69533e-13 0)
(1.40998e-14 -1.69545e-13 0)
(1.39888e-14 -1.6956e-13 0)
(1.40998e-14 -1.69721e-13 0)
(1.40998e-14 -1.69837e-13 0)
(1.38778e-14 -1.69822e-13 0)
(1.42109e-14 -1.69707e-13 0)
(1.39888e-14 -1.69555e-13 0)
(1.38778e-14 -1.69474e-13 0)
(1.38778e-14 -1.69598e-13 0)
(1.38778e-14 -1.69663e-13 0)
(1.37668e-14 -1.69633e-13 0)
(-1.31006e-14 -2.82199e-13 0)
(2.04281e-14 -1.44772e-13 0)
(1.26565e-14 -1.75303e-13 0)
(1.38778e-14 -1.68155e-13 0)
(1.35447e-14 -1.69768e-13 0)
(1.35447e-14 -1.69474e-13 0)
(1.37668e-14 -1.69636e-13 0)
(1.39888e-14 -1.69594e-13 0)
(1.42109e-14 -1.69634e-13 0)
(1.39888e-14 -1.69597e-13 0)
(1.40998e-14 -1.69594e-13 0)
(1.38778e-14 -1.69676e-13 0)
(1.39888e-14 -1.69762e-13 0)
(1.37668e-14 -1.69723e-13 0)
(1.37668e-14 -1.69625e-13 0)
(1.33227e-14 -1.69486e-13 0)
(1.37668e-14 -1.69468e-13 0)
(1.37668e-14 -1.69622e-13 0)
(1.37668e-14 -1.69685e-13 0)
(1.38778e-14 -1.69628e-13 0)
(1.43219e-14 -5.27213e-15 0)
(1.42109e-14 -2.05833e-13 0)
(1.39888e-14 -1.61017e-13 0)
(1.37668e-14 -1.7129e-13 0)
(1.40998e-14 -1.6902e-13 0)
(1.38778e-14 -1.69701e-13 0)
(1.37668e-14 -1.69686e-13 0)
(1.37668e-14 -1.697e-13 0)
(1.39888e-14 -1.69543e-13 0)
(1.38778e-14 -1.69491e-13 0)
(1.40998e-14 -1.69525e-13 0)
(1.39888e-14 -1.69559e-13 0)
(1.38778e-14 -1.69581e-13 0)
(1.37668e-14 -1.69546e-13 0)
(1.35447e-14 -1.6954e-13 0)
(1.37668e-14 -1.69575e-13 0)
(1.38778e-14 -1.69639e-13 0)
(1.39888e-14 -1.69627e-13 0)
(1.38778e-14 -1.69618e-13 0)
(1.38778e-14 -1.69599e-13 0)
(3.10862e-14 -2.36535e-13 0)
(7.32747e-15 -1.5505e-13 0)
(1.31006e-14 -1.73145e-13 0)
(1.33227e-14 -1.68802e-13 0)
(1.33227e-14 -1.69642e-13 0)
(1.35447e-14 -1.69437e-13 0)
(1.35447e-14 -1.69454e-13 0)
(1.33227e-14 -1.69562e-13 0)
(1.28786e-14 -1.69638e-13 0)
(1.31006e-14 -1.6966e-13 0)
(1.31006e-14 -1.69669e-13 0)
(1.31006e-14 -1.69634e-13 0)
(1.33227e-14 -1.69534e-13 0)
(1.33227e-14 -1.69512e-13 0)
(1.33227e-14 -1.69522e-13 0)
(1.35447e-14 -1.6963e-13 0)
(1.35447e-14 -1.69711e-13 0)
(1.35447e-14 -1.69726e-13 0)
(1.37668e-14 -1.69606e-13 0)
(1.37668e-14 -1.69565e-13 0)
(-5.55112e-15 -2.39802e-13 0)
(1.92069e-14 -1.54166e-13 0)
(1.31006e-14 -1.7345e-13 0)
(1.31006e-14 -1.68868e-13 0)
(1.33227e-14 -1.69879e-13 0)
(1.33227e-14 -1.69545e-13 0)
(1.35447e-14 -1.6955e-13 0)
(1.39888e-14 -1.69524e-13 0)
(1.40998e-14 -1.69603e-13 0)
(1.38778e-14 -1.69632e-13 0)
(1.39888e-14 -1.69593e-13 0)
(1.37668e-14 -1.69443e-13 0)
(1.35447e-14 -1.69468e-13 0)
(1.33227e-14 -1.69568e-13 0)
(1.35447e-14 -1.69659e-13 0)
(1.33227e-14 -1.69777e-13 0)
(1.37668e-14 -1.69802e-13 0)
(1.37668e-14 -1.69755e-13 0)
(1.35447e-14 -1.69676e-13 0)
(1.35447e-14 -1.69666e-13 0)
(1.42109e-14 -1.50034e-14 0)
(1.22125e-14 -2.04018e-13 0)
(1.28786e-14 -1.61711e-13 0)
(1.33227e-14 -1.71519e-13 0)
(1.33227e-14 -1.69355e-13 0)
(1.31006e-14 -1.6983e-13 0)
(1.33227e-14 -1.69776e-13 0)
(1.33227e-14 -1.69738e-13 0)
(1.35447e-14 -1.69552e-13 0)
(1.35447e-14 -1.69423e-13 0)
(1.31006e-14 -1.69381e-13 0)
(1.35447e-14 -1.69359e-13 0)
(1.35447e-14 -1.69479e-13 0)
(1.40998e-14 -1.69574e-13 0)
(1.39888e-14 -1.69743e-13 0)
(1.38778e-14 -1.69914e-13 0)
(1.40998e-14 -1.69812e-13 0)
(1.37668e-14 -1.69635e-13 0)
(1.38778e-14 -1.69707e-13 0)
(1.38778e-14 -1.69741e-13 0)
(1.9762e-14 -3.17552e-13 0)
(1.24345e-14 -1.37547e-13 0)
(1.38778e-14 -1.77219e-13 0)
(1.42109e-14 -1.68065e-13 0)
(1.40998e-14 -1.70027e-13 0)
(1.39888e-14 -1.69631e-13 0)
(1.37668e-14 -1.69671e-13 0)
(1.35447e-14 -1.69625e-13 0)
(1.33227e-14 -1.69676e-13 0)
(1.35447e-14 -1.6965e-13 0)
(1.37668e-14 -1.69689e-13 0)
(1.38778e-14 -1.69732e-13 0)
(1.39888e-14 -1.69708e-13 0)
(1.39888e-14 -1.69702e-13 0)
(1.38778e-14 -1.69753e-13 0)
(1.37668e-14 -1.69738e-13 0)
(1.35447e-14 -1.69695e-13 0)
(1.37668e-14 -1.69664e-13 0)
(1.37668e-14 -1.69722e-13 0)
(1.39888e-14 -1.69702e-13 0)
(1.80966e-14 -8.94504e-14 0)
(1.5099e-14 -1.87154e-13 0)
(1.57652e-14 -1.6552e-13 0)
(1.43219e-14 -1.70542e-13 0)
(1.44329e-14 -1.69322e-13 0)
(1.43219e-14 -1.69495e-13 0)
(1.40998e-14 -1.69366e-13 0)
(1.39888e-14 -1.6944e-13 0)
(1.40998e-14 -1.69664e-13 0)
(1.40998e-14 -1.69752e-13 0)
(1.42109e-14 -1.69724e-13 0)
(1.38778e-14 -1.69635e-13 0)
(1.38778e-14 -1.69569e-13 0)
(1.40998e-14 -1.69593e-13 0)
(1.40998e-14 -1.69549e-13 0)
(1.38778e-14 -1.69541e-13 0)
(1.38778e-14 -1.69686e-13 0)
(1.38778e-14 -1.69718e-13 0)
(1.39888e-14 -1.69601e-13 0)
(1.38778e-14 -1.69617e-13 0)
(1.13243e-14 -1.60028e-13 0)
(1.19904e-14 -1.71206e-13 0)
(1.19904e-14 -1.69265e-13 0)
(1.35447e-14 -1.69618e-13 0)
(1.31006e-14 -1.69436e-13 0)
(1.31006e-14 -1.69395e-13 0)
(1.31006e-14 -1.69512e-13 0)
(1.35447e-14 -1.69624e-13 0)
(1.35447e-14 -1.69661e-13 0)
(1.33227e-14 -1.697e-13 0)
(1.31006e-14 -1.69636e-13 0)
(1.31006e-14 -1.6967e-13 0)
(1.31006e-14 -1.69671e-13 0)
(1.31006e-14 -1.69671e-13 0)
(1.31006e-14 -1.69654e-13 0)
(1.33227e-14 -1.69675e-13 0)
(1.37668e-14 -1.6966e-13 0)
(1.33227e-14 -1.69676e-13 0)
(1.37668e-14 -1.69584e-13 0)
(1.37668e-14 -1.6963e-13 0)
(8.65974e-15 -2.60247e-13 0)
(1.57652e-14 -1.49746e-13 0)
(1.37668e-14 -1.7428e-13 0)
(1.33227e-14 -1.68579e-13 0)
(1.33227e-14 -1.69783e-13 0)
(1.39888e-14 -1.69501e-13 0)
(1.39888e-14 -1.69677e-13 0)
(1.39888e-14 -1.69649e-13 0)
(1.42109e-14 -1.69536e-13 0)
(1.39888e-14 -1.6954e-13 0)
(1.39888e-14 -1.69543e-13 0)
(1.40998e-14 -1.69583e-13 0)
(1.39888e-14 -1.69592e-13 0)
(1.40998e-14 -1.69707e-13 0)
(1.40998e-14 -1.69785e-13 0)
(1.39888e-14 -1.69788e-13 0)
(1.37668e-14 -1.69699e-13 0)
(1.35447e-14 -1.69742e-13 0)
(1.37668e-14 -1.69744e-13 0)
(1.38778e-14 -1.69669e-13 0)
(7.10543e-15 -2.08779e-14 0)
(1.43219e-14 -2.0232e-13 0)
(1.24345e-14 -1.61938e-13 0)
(1.33227e-14 -1.71475e-13 0)
(1.28786e-14 -1.69481e-13 0)
(1.33227e-14 -1.69906e-13 0)
(1.31006e-14 -1.69679e-13 0)
(1.33227e-14 -1.69636e-13 0)
(1.33227e-14 -1.69537e-13 0)
(1.33227e-14 -1.69549e-13 0)
(1.33227e-14 -1.6966e-13 0)
(1.31006e-14 -1.69712e-13 0)
(1.37668e-14 -1.69738e-13 0)
(1.37668e-14 -1.69674e-13 0)
(1.40998e-14 -1.69618e-13 0)
(1.40998e-14 -1.69581e-13 0)
(1.40998e-14 -1.69575e-13 0)
(1.37668e-14 -1.69656e-13 0)
(1.38778e-14 -1.69691e-13 0)
(1.37668e-14 -1.69598e-13 0)
(3.45279e-14 -2.76573e-13 0)
(8.43769e-15 -1.46284e-13 0)
(1.45439e-14 -1.75349e-13 0)
(1.38778e-14 -1.68565e-13 0)
(1.40998e-14 -1.70059e-13 0)
(1.39888e-14 -1.6971e-13 0)
(1.39888e-14 -1.69692e-13 0)
(1.40998e-14 -1.69672e-13 0)
(1.37668e-14 -1.69658e-13 0)
(1.37668e-14 -1.69679e-13 0)
(1.38778e-14 -1.69734e-13 0)
(1.37668e-14 -1.69717e-13 0)
(1.37668e-14 -1.69761e-13 0)
(1.33227e-14 -1.69767e-13 0)
(1.33227e-14 -1.69756e-13 0)
(1.35447e-14 -1.69626e-13 0)
(1.35447e-14 -1.69563e-13 0)
(1.37668e-14 -1.69608e-13 0)
(1.37668e-14 -1.69605e-13 0)
(1.38778e-14 -1.69551e-13 0)
(-1.26565e-14 -1.86868e-13 0)
(2.14273e-14 -1.65926e-13 0)
(1.35447e-14 -1.70576e-13 0)
(1.39888e-14 -1.69519e-13 0)
(1.38778e-14 -1.69817e-13 0)
(1.37668e-14 -1.69822e-13 0)
(1.38778e-14 -1.6979e-13 0)
(1.39888e-14 -1.69562e-13 0)
(1.38778e-14 -1.69401e-13 0)
(1.37668e-14 -1.69445e-13 0)
(1.37668e-14 -1.69514e-13 0)
(1.37668e-14 -1.69553e-13 0)
(1.37668e-14 -1.69586e-13 0)
(1.37668e-14 -1.69706e-13 0)
(1.38778e-14 -1.69798e-13 0)
(1.33227e-14 -1.69876e-13 0)
(1.37668e-14 -1.69882e-13 0)
(1.37668e-14 -1.69681e-13 0)
(1.37668e-14 -1.69537e-13 0)
(1.37668e-14 -1.69546e-13 0)
(1.02141e-14 -4.55594e-14 0)
(1.38778e-14 -1.96785e-13 0)
(1.33227e-14 -1.6323e-13 0)
(1.40998e-14 -1.71176e-13 0)
(1.37668e-14 -1.69482e-13 0)
(1.39888e-14 -1.69882e-13 0)
(1.35447e-14 -1.69798e-13 0)
(1.31006e-14 -1.69644e-13 0)
(1.35447e-14 -1.69527e-13 0)
(1.38778e-14 -1.6953e-13 0)
(1.37668e-14 -1.69655e-13 0)
(1.40998e-14 -1.69808e-13 0)
(1.43219e-14 -1.69772e-13 0)
(1.44329e-14 -1.69626e-13 0)
(1.42109e-14 -1.69442e-13 0)
(1.40998e-14 -1.69506e-13 0)
(1.35447e-14 -1.697e-13 0)
(1.31006e-14 -1.69646e-13 0)
(1.37668e-14 -1.69622e-13 0)
(1.37668e-14 -1.69601e-13 0)
(4.92939e-14 -2.26401e-13 0)
(5.55112e-15 -1.57756e-13 0)
(1.56541e-14 -1.72699e-13 0)
(1.35447e-14 -1.69173e-13 0)
(1.39888e-14 -1.69804e-13 0)
(1.38778e-14 -1.69517e-13 0)
(1.35447e-14 -1.69497e-13 0)
(1.35447e-14 -1.69626e-13 0)
(1.33227e-14 -1.69784e-13 0)
(1.37668e-14 -1.69799e-13 0)
(1.37668e-14 -1.69771e-13 0)
(1.35447e-14 -1.69776e-13 0)
(1.35447e-14 -1.69656e-13 0)
(1.33227e-14 -1.69526e-13 0)
(1.28786e-14 -1.6947e-13 0)
(1.35447e-14 -1.69477e-13 0)
(1.37668e-14 -1.69554e-13 0)
(1.37668e-14 -1.69656e-13 0)
(1.37668e-14 -1.69731e-13 0)
(1.37668e-14 -1.69646e-13 0)
(0 -2.42711e-13 0)
(1.82077e-14 -1.53891e-13 0)
(1.42109e-14 -1.73396e-13 0)
(1.44329e-14 -1.68824e-13 0)
(1.44329e-14 -1.69793e-13 0)
(1.43219e-14 -1.69511e-13 0)
(1.44329e-14 -1.69446e-13 0)
(1.45439e-14 -1.69504e-13 0)
(1.44329e-14 -1.69645e-13 0)
(1.42109e-14 -1.69733e-13 0)
(1.39888e-14 -1.69687e-13 0)
(1.38778e-14 -1.69658e-13 0)
(1.39888e-14 -1.69601e-13 0)
(1.38778e-14 -1.69575e-13 0)
(1.39888e-14 -1.69687e-13 0)
(1.39888e-14 -1.69742e-13 0)
(1.38778e-14 -1.69655e-13 0)
(1.37668e-14 -1.69618e-13 0)
(1.38778e-14 -1.69642e-13 0)
(1.38778e-14 -1.69628e-13 0)
)
;

boundaryField
{
    movingWall
    {
        type            calculated;
        value           uniform (1.37668e-14 -1.69591e-13 0);
    }
    fixedWalls
    {
        type            calculated;
        value           uniform (1.37668e-14 -1.69591e-13 0);
    }
    frontAndBack
    {
        type            empty;
    }
}


// ************************************************************************* //
