/*--------------------------------*- C++ -*----------------------------------*\
| =========                 |                                                 |
| \\      /  F ield         | OpenFOAM: The Open Source CFD Toolbox           |
|  \\    /   O peration     | Version:  2506                                  |
|   \\  /    A nd           | Website:  www.openfoam.com                      |
|    \\/     M anipulation  |                                                 |
\*---------------------------------------------------------------------------*/
FoamFile
{
    version     2.0;
    format      ascii;
    arch        "LSB;label=32;scalar=64";
    class       volScalarField;
    location    "7.25";
    object      divPhi;
}
// * * * * * * * * * * * * * * * * * * * * * * * * * * * * * * * * * * * * * //

dimensions      [0 0 -1 0 0 0 0];

internalField   nonuniform List<scalar> 
400
(
-2.71051e-14
-1.77143e-14
2.22497e-14
-2.06333e-14
1.7081e-14
-1.19726e-14
9.3998e-15
-1.47961e-15
-1.37181e-15
-3.80935e-16
-3.34194e-15
-9.58758e-15
4.42234e-15
1.53712e-15
3.49086e-15
8.82752e-15
-2.81423e-15
7.37747e-15
-1.87104e-14
2.71051e-14
-2.71051e-14
1.30847e-14
2.62789e-15
-5.88775e-15
1.0999e-14
-1.91878e-14
1.98364e-14
-6.36722e-15
-5.15437e-15
-9.8308e-15
1.52707e-15
-1.23717e-14
-7.37319e-15
1.52515e-14
-1.10397e-14
-3.39901e-15
-3.2815e-15
3.16165e-14
5.74556e-15
-2.71051e-14
2.71051e-14
1.22558e-14
1.63034e-14
-2.27217e-15
1.80971e-14
2.03443e-14
-1.07101e-14
4.48928e-15
-2.64384e-14
6.28931e-16
2.84722e-14
8.85032e-15
-2.01612e-14
-1.39645e-14
-2.53265e-14
4.21657e-15
-1.98386e-14
3.81258e-15
-1.13961e-14
0
0
7.31329e-15
-2.25408e-14
-1.32549e-14
1.30325e-14
-1.77282e-14
-1.85093e-14
-2.39209e-14
3.46594e-15
-3.88094e-15
-1.29056e-15
1.43838e-14
1.34668e-14
-6.02477e-15
-1.7041e-14
2.31075e-15
-1.80674e-14
-6.22464e-15
-1.66239e-14
2.71051e-14
0
-2.2282e-15
2.40677e-14
-2.83818e-14
2.14431e-14
-1.72441e-14
1.06579e-14
-3.08324e-15
2.76147e-14
-3.44758e-17
5.71595e-15
-2.04992e-14
2.42407e-14
-1.16738e-14
4.68876e-16
1.84391e-16
5.86151e-15
-2.12605e-14
1.10002e-14
0
0
3.01007e-14
-1.06612e-14
-3.95419e-15
-3.65201e-15
2.66533e-15
1.18309e-14
1.36972e-14
9.65162e-16
1.50915e-14
5.28509e-15
-1.10269e-14
-6.13892e-15
-6.28517e-15
4.80737e-15
-4.22773e-15
5.89468e-15
1.1942e-14
9.87105e-15
0
0
3.60558e-15
-1.26412e-14
-3.79381e-14
1.48183e-14
-2.37249e-14
2.57827e-14
-2.14754e-14
-9.7508e-15
-2.30327e-15
5.47911e-16
-1.49263e-14
2.04898e-14
-1.48939e-14
2.10114e-14
2.60419e-14
-2.36891e-14
1.55513e-14
2.79409e-14
-2.71051e-14
0
-1.6004e-14
-1.33256e-14
-3.49782e-15
-1.81104e-14
-1.56803e-14
3.08052e-14
1.92167e-15
-2.01029e-14
1.94783e-14
-6.96369e-15
1.76477e-14
-1.68123e-14
3.44687e-14
-7.55113e-15
-2.40067e-14
3.21869e-14
-1.52429e-14
-1.36341e-14
0
0
-7.65617e-15
-8.10148e-15
-6.53817e-15
5.9739e-15
2.3008e-14
5.6148e-15
1.35686e-14
8.23199e-16
1.21262e-14
1.58708e-14
-2.31376e-14
6.44561e-15
7.87674e-15
-1.80598e-14
3.07076e-14
-1.15697e-16
-1.51704e-14
3.43199e-14
0
0
-7.14584e-16
-7.41129e-15
-1.13887e-14
1.15031e-14
-3.22558e-14
3.04644e-14
-2.94309e-14
-9.27148e-15
1.4311e-14
-1.11915e-14
5.19723e-15
2.11232e-14
1.59654e-14
-5.60513e-15
-1.92416e-16
2.54635e-14
-4.14076e-15
-1.94105e-14
0
-2.71051e-14
-2.12604e-14
1.67041e-14
-1.31435e-14
2.04111e-14
-2.7549e-14
-1.61272e-14
2.4759e-14
-8.07894e-15
-1.93674e-14
4.63151e-15
-2.43742e-14
-7.55616e-15
-6.25976e-15
-1.50331e-14
2.02192e-14
3.9147e-15
6.87361e-15
5.96912e-15
0
2.71051e-14
-3.21657e-15
-1.04764e-14
-1.21932e-14
-9.00961e-15
5.07978e-15
1.25511e-14
-1.38965e-14
-2.49298e-14
-7.444e-15
2.8409e-15
-1.15633e-14
-5.33872e-15
1.31011e-14
3.00967e-14
-2.02741e-14
1.92444e-14
2.37895e-14
3.8776e-15
2.71051e-14
-2.71051e-14
1.29349e-14
-1.39898e-14
-2.69056e-14
1.17065e-16
4.55216e-15
-1.10183e-14
4.21392e-14
1.31354e-14
-2.71212e-14
7.74371e-15
-3.61523e-14
8.6691e-15
7.86368e-15
2.10326e-16
1.64854e-14
-3.01981e-14
3.24037e-15
1.32994e-14
-2.71051e-14
0
2.48522e-14
5.83764e-15
1.67278e-14
-3.43582e-15
3.84548e-15
-1.44806e-14
-1.28925e-14
3.17984e-15
2.63975e-15
-8.94021e-15
-1.12002e-14
3.32773e-14
1.73319e-14
-1.90488e-14
1.20387e-14
-1.3276e-15
7.58222e-15
2.65699e-14
0
0
2.2469e-15
1.16866e-14
5.55058e-15
-7.39888e-16
7.78621e-15
6.44785e-15
-1.43045e-14
-5.13381e-15
-1.54684e-15
-1.49136e-14
-1.85438e-14
2.50043e-14
8.80096e-15
2.17943e-15
2.60312e-14
8.64192e-15
2.26711e-15
-1.1006e-14
0
0
-1.64463e-14
2.76608e-14
-1.31033e-14
-1.49429e-14
1.68933e-14
7.5156e-15
-2.17207e-15
-1.69954e-14
7.90873e-15
2.07806e-14
-1.33902e-14
2.63557e-14
1.20608e-14
-1.24328e-14
-8.7811e-15
3.33501e-14
8.53977e-15
-2.63799e-14
0
0
1.4746e-14
-2.15042e-15
-1.85742e-15
1.61731e-14
-2.19426e-14
2.02679e-14
-3.34377e-14
1.03427e-14
1.90392e-14
-8.31743e-15
-1.6277e-14
-1.62287e-14
1.52359e-14
-2.65931e-14
-2.05683e-15
1.4174e-14
7.07551e-15
1.4304e-14
0
2.71051e-14
-4.60965e-14
1.72722e-15
-1.12192e-14
-1.6529e-14
1.05684e-14
-2.75837e-14
1.87938e-14
9.67838e-15
-6.05401e-15
1.17684e-14
7.3247e-15
2.09728e-14
1.69702e-14
-2.72134e-14
1.80214e-14
-1.11558e-14
1.79996e-14
-3.14512e-14
2.71051e-14
2.71051e-14
1.01877e-14
5.05224e-15
-1.4683e-14
2.03654e-14
1.02616e-14
-2.10004e-14
1.47671e-14
-1.1588e-15
-2.19238e-14
3.87059e-16
1.39633e-14
-3.08538e-15
-9.81295e-15
6.18468e-16
-2.30598e-14
-7.85909e-15
-1.67773e-15
1.5505e-14
-2.71051e-14
-2.71051e-14
2.71051e-14
0
2.71051e-14
0
0
0
0
-2.71051e-14
0
2.71051e-14
-2.71051e-14
0
0
0
0
-2.71051e-14
2.71051e-14
-2.71051e-14
2.71051e-14
)
;

boundaryField
{
    movingWall
    {
        type            extrapolatedCalculated;
        value           nonuniform List<scalar> 
20
(
-2.71051e-14
2.71051e-14
0
2.71051e-14
0
0
0
0
-2.71051e-14
0
2.71051e-14
-2.71051e-14
0
0
0
0
-2.71051e-14
2.71051e-14
-2.71051e-14
2.71051e-14
)
;
    }
    fixedWalls
    {
        type            extrapolatedCalculated;
        value           nonuniform List<scalar> 
60
(
-2.71051e-14
-2.71051e-14
2.71051e-14
0
0
0
0
0
0
0
-2.71051e-14
2.71051e-14
-2.71051e-14
0
0
0
0
2.71051e-14
2.71051e-14
-2.71051e-14
2.71051e-14
-2.71051e-14
0
2.71051e-14
0
0
-2.71051e-14
0
0
0
0
2.71051e-14
-2.71051e-14
0
0
0
0
2.71051e-14
-2.71051e-14
2.71051e-14
-2.71051e-14
-1.77143e-14
2.22497e-14
-2.06333e-14
1.7081e-14
-1.19726e-14
9.3998e-15
-1.47961e-15
-1.37181e-15
-3.80935e-16
-3.34194e-15
-9.58758e-15
4.42234e-15
1.53712e-15
3.49086e-15
8.82752e-15
-2.81423e-15
7.37747e-15
-1.87104e-14
2.71051e-14
)
;
    }
    frontAndBack
    {
        type            empty;
    }
}


// ************************************************************************* //
