/*--------------------------------*- C++ -*----------------------------------*\
| =========                 |                                                 |
| \\      /  F ield         | OpenFOAM: The Open Source CFD Toolbox           |
|  \\    /   O peration     | Version:  2506                                  |
|   \\  /    A nd           | Website:  www.openfoam.com                      |
|    \\/     M anipulation  |                                                 |
\*---------------------------------------------------------------------------*/
FoamFile
{
    version     2.0;
    format      ascii;
    arch        "LSB;label=32;scalar=64";
    class       volScalarField;
    location    "7.25";
    object      divU;
}
// * * * * * * * * * * * * * * * * * * * * * * * * * * * * * * * * * * * * * //

dimensions      [0 0 -1 0 0 0 0];

internalField   nonuniform List<scalar> 
400
(
1.61546e-11
-2.18159e-12
4.523e-13
-1.49257e-13
2.57182e-14
-1.89141e-14
9.22478e-15
-1.0526e-14
1.96725e-15
9.14525e-15
-2.47347e-14
8.6801e-15
2.76865e-14
3.03978e-15
-2.45825e-14
8.24222e-15
2.47463e-15
4.22738e-15
-9.2278e-15
0
-2.90837e-11
3.55122e-12
-7.29204e-13
3.0797e-13
-3.6552e-14
2.13323e-14
2.78838e-14
-2.27181e-14
-1.7713e-14
3.25048e-14
-3.01398e-14
-9.66437e-15
3.27218e-14
2.08494e-14
-1.46857e-14
1.90293e-14
-3.91141e-14
5.65671e-14
-7.77444e-14
2.71051e-14
1.17365e-11
-1.57517e-12
2.35914e-13
-9.28909e-14
3.47475e-14
-3.94596e-14
9.66847e-15
-3.93772e-15
6.6057e-14
-2.2047e-14
6.73187e-15
1.53356e-14
-7.0883e-15
-2.48336e-14
9.48256e-16
5.10067e-15
-1.65204e-14
2.42122e-16
-2.00369e-14
0
1.11131e-11
-8.21833e-13
1.42851e-13
-6.72367e-14
-2.08325e-14
-2.25839e-14
4.25409e-15
1.40274e-14
-2.71467e-14
-2.99909e-14
2.48908e-14
-4.42138e-14
5.12754e-14
-6.37525e-16
-1.86171e-14
-4.9356e-16
-1.39745e-14
-5.17633e-16
4.1205e-14
0
-2.17925e-11
2.30699e-12
-4.42877e-13
1.80986e-13
-2.38233e-14
4.04811e-14
-1.11708e-14
-1.36289e-14
1.52392e-15
4.09415e-15
2.91995e-15
5.73532e-15
-1.44349e-14
-9.12647e-15
1.21949e-14
1.41496e-14
-3.02101e-15
-3.74883e-15
-1.65008e-14
-2.71051e-14
1.64257e-11
-1.49459e-12
3.13456e-13
-1.34681e-13
-1.47652e-14
2.79411e-14
-1.39213e-14
1.59896e-14
5.3048e-16
9.47025e-15
6.4e-15
-5.23194e-15
3.82571e-14
-8.61664e-15
-2.52995e-14
-1.49851e-14
3.46578e-14
-6.63932e-15
4.22962e-14
-2.71051e-14
4.66207e-12
-1.08578e-12
1.76901e-13
-6.38659e-14
5.20313e-14
-4.97417e-14
3.1428e-14
1.92111e-14
1.33661e-16
3.02401e-14
-1.17157e-15
-1.0366e-15
-2.02844e-14
1.24602e-14
1.2089e-14
2.48736e-14
1.03652e-14
-4.4082e-14
-4.08231e-15
-2.71051e-14
-2.23617e-11
3.37618e-12
-6.87006e-13
2.86811e-13
-8.80206e-14
4.71526e-14
-9.20538e-15
-4.45058e-14
-5.79035e-15
-1.09335e-14
-7.97985e-15
6.47708e-14
1.81479e-14
1.02878e-14
1.86482e-16
4.73521e-15
-5.88557e-15
5.1492e-14
-9.96085e-15
0
2.07625e-11
-3.03849e-12
5.10549e-13
-2.82996e-13
7.62619e-14
-4.63032e-14
3.98161e-14
4.6264e-14
2.88396e-15
-1.43552e-14
2.08595e-14
-4.32927e-14
-3.43417e-15
-2.29772e-14
-2.18836e-14
3.44769e-15
3.82871e-14
-4.78264e-14
-2.00498e-14
2.71051e-14
-7.86047e-12
1.52369e-12
-2.99992e-13
1.22588e-13
-7.4115e-14
5.35645e-14
6.08698e-16
9.07095e-15
-4.46667e-15
-1.60979e-14
-1.58347e-14
9.16542e-15
5.38578e-14
1.77808e-14
-4.2254e-15
7.36471e-15
2.18478e-14
-1.15643e-14
2.46016e-15
-2.71051e-14
-6.966e-12
1.09584e-12
-1.93004e-13
1.11849e-13
-1.66052e-14
5.68898e-15
1.45616e-14
-1.53108e-14
-1.57059e-14
3.23196e-14
-2.29861e-14
3.57885e-14
-9.37933e-15
-1.12187e-14
-3.90535e-14
4.4609e-14
7.34223e-15
-1.98503e-14
4.01416e-14
-2.71051e-14
1.63172e-11
-3.59819e-12
7.37933e-13
-3.14559e-13
6.96554e-14
2.17771e-15
-2.37448e-14
1.1935e-14
1.29339e-14
2.72814e-14
-1.76396e-14
-1.2249e-14
2.14479e-14
-8.12152e-15
-2.02653e-15
-3.04652e-14
1.08231e-14
3.31075e-14
-2.66943e-16
0
-1.75099e-11
3.8289e-12
-7.07289e-13
3.15426e-13
-1.12028e-13
1.59878e-15
2.64464e-14
1.81498e-14
-1.40811e-15
2.1387e-14
-2.66611e-14
-7.01599e-15
-7.93392e-15
-1.95215e-14
2.85661e-14
-9.24846e-16
9.45247e-15
3.53545e-15
3.96629e-14
0
1.36067e-11
-2.61646e-12
4.86192e-13
-2.22612e-13
7.31213e-14
4.64699e-15
-1.73424e-14
-1.02047e-14
1.09217e-14
9.36069e-15
-1.99119e-15
-1.12368e-14
-1.46743e-14
7.31233e-15
5.10513e-15
-1.86072e-14
-9.15207e-15
5.56047e-15
2.89397e-14
-2.71051e-14
-2.24972e-12
9.01022e-13
-2.17005e-13
4.98369e-14
-3.57746e-14
3.79423e-14
8.27855e-15
-1.25052e-14
-1.24918e-15
-4.53325e-15
-2.11335e-14
-2.4664e-14
7.68022e-14
5.54701e-14
8.05969e-15
2.4687e-14
4.42439e-15
-8.08982e-15
-1.13207e-14
0
-1.50433e-11
1.66731e-12
-3.48964e-13
1.64131e-13
-4.21756e-14
1.93237e-14
-2.83433e-15
-3.21365e-14
-1.47583e-14
5.86526e-15
2.06123e-14
1.83714e-14
-4.35436e-14
-2.90802e-14
-9.94348e-15
-4.8689e-15
2.79792e-14
-1.05586e-14
3.12541e-14
-2.71051e-14
2.12233e-11
-2.4612e-12
4.83468e-13
-2.05379e-13
1.55067e-14
-2.49154e-14
4.07909e-14
-2.9398e-14
-1.69688e-15
2.08133e-14
1.44327e-15
-1.78279e-14
9.55158e-15
1.21949e-14
-3.27786e-14
7.17467e-15
4.14225e-14
-1.4402e-14
2.4161e-15
0
-4.3097e-12
1.12052e-12
-1.62541e-13
1.0025e-13
-3.74417e-14
5.5014e-15
-6.54063e-14
-8.788e-15
4.1408e-14
-1.45564e-14
-2.42903e-14
4.11757e-14
5.68156e-14
3.10458e-15
4.02336e-18
-3.41905e-14
-6.13285e-14
1.5128e-14
6.43348e-14
0
-1.69678e-11
9.37605e-13
-2.03326e-13
3.72801e-14
-1.42484e-14
1.54418e-14
-3.02406e-14
-2.18525e-14
2.56577e-15
4.64662e-14
-4.48115e-16
-5.22513e-14
1.96971e-14
-7.3155e-14
2.96777e-14
5.05869e-14
-2.6396e-15
-9.20162e-15
8.08701e-15
0
1.20617e-11
-1.35525e-12
3.25261e-13
-8.13152e-14
2.71051e-14
-2.71051e-14
0
0
0
-2.71051e-14
2.71051e-14
0
0
2.71051e-14
0
-2.71051e-14
-2.71051e-14
2.71051e-14
2.71051e-14
-2.71051e-14
)
;

boundaryField
{
    movingWall
    {
        type            extrapolatedCalculated;
        value           nonuniform List<scalar> 
20
(
1.20617e-11
-1.35525e-12
3.25261e-13
-8.13152e-14
2.71051e-14
-2.71051e-14
0
0
0
-2.71051e-14
2.71051e-14
0
0
2.71051e-14
0
-2.71051e-14
-2.71051e-14
2.71051e-14
2.71051e-14
-2.71051e-14
)
;
    }
    fixedWalls
    {
        type            extrapolatedCalculated;
        value           nonuniform List<scalar> 
60
(
1.61546e-11
-2.90837e-11
1.17365e-11
1.11131e-11
-2.17925e-11
1.64257e-11
4.66207e-12
-2.23617e-11
2.07625e-11
-7.86047e-12
-6.966e-12
1.63172e-11
-1.75099e-11
1.36067e-11
-2.24972e-12
-1.50433e-11
2.12233e-11
-4.3097e-12
-1.69678e-11
1.20617e-11
0
2.71051e-14
0
0
-2.71051e-14
-2.71051e-14
-2.71051e-14
0
2.71051e-14
-2.71051e-14
-2.71051e-14
0
0
-2.71051e-14
0
-2.71051e-14
0
0
0
-2.71051e-14
1.61546e-11
-2.18159e-12
4.523e-13
-1.49257e-13
2.57182e-14
-1.89141e-14
9.22478e-15
-1.0526e-14
1.96725e-15
9.14525e-15
-2.47347e-14
8.6801e-15
2.76865e-14
3.03978e-15
-2.45825e-14
8.24222e-15
2.47463e-15
4.22738e-15
-9.2278e-15
0
)
;
    }
    frontAndBack
    {
        type            empty;
    }
}


// ************************************************************************* //
