/*--------------------------------*- C++ -*----------------------------------*\
| =========                 |                                                 |
| \\      /  F ield         | OpenFOAM: The Open Source CFD Toolbox           |
|  \\    /   O peration     | Version:  2506                                  |
|   \\  /    A nd           | Website:  www.openfoam.com                      |
|    \\/     M anipulation  |                                                 |
\*---------------------------------------------------------------------------*/
FoamFile
{
    version     2.0;
    format      ascii;
    arch        "LSB;label=32;scalar=64";
    class       volScalarField;
    location    "7.25";
    object      enstrophyField;
}
// * * * * * * * * * * * * * * * * * * * * * * * * * * * * * * * * * * * * * //

dimensions      [0 0 -2 0 0 0 0];

internalField   nonuniform List<scalar> 
400
(
6.50869e-23
1.22268e-22
5.86098e-24
3.67596e-25
1.06643e-26
1.26795e-27
1.00988e-27
1.30427e-27
3.5063e-29
2.60018e-29
1.54631e-29
2.90256e-28
2.33427e-28
2.50185e-28
4.33087e-29
1.17963e-30
2.779e-28
1.66454e-27
1.84383e-30
7.93137e-30
9.356e-28
5.1079e-26
2.61171e-27
8.80409e-27
7.17901e-27
1.85862e-27
9.06461e-27
7.82895e-27
4.28852e-27
2.31762e-29
2.422e-28
1.7411e-27
7.31288e-28
2.95489e-28
2.64515e-28
1.10721e-30
2.84596e-29
2.40822e-27
5.24498e-28
7.62126e-29
1.85289e-23
7.32366e-23
4.47083e-24
1.2789e-25
5.28605e-26
5.50763e-27
9.31823e-28
1.94115e-27
4.19523e-27
1.57838e-29
2.41161e-29
8.22419e-28
8.67457e-28
4.60573e-29
1.59581e-27
3.35832e-28
4.16591e-29
2.74712e-28
8.04515e-29
4.67805e-32
1.57198e-23
5.9421e-23
3.10969e-24
2.1301e-25
5.78118e-27
4.07426e-28
6.16534e-27
2.52325e-27
6.10052e-28
1.2673e-31
2.82565e-28
1.38893e-32
1.282e-31
1.21848e-30
5.81855e-27
1.74047e-28
9.1136e-30
2.57885e-29
1.80938e-28
9.47008e-29
2.79751e-25
1.6923e-24
5.4387e-26
1.82143e-26
1.03716e-27
1.43821e-27
7.35625e-29
1.06175e-28
6.5498e-28
1.61802e-27
9.97282e-28
3.35126e-27
2.06966e-27
8.03557e-28
3.56556e-28
3.0039e-27
2.60186e-28
1.79626e-28
6.3026e-30
7.41043e-28
1.69619e-23
4.85054e-23
2.54697e-24
1.3852e-25
8.69078e-27
8.75223e-29
1.13639e-28
3.71742e-28
4.31396e-32
8.29097e-30
3.12713e-29
1.41138e-28
1.12071e-29
9.31076e-29
3.0332e-27
2.44331e-27
9.25489e-29
1.18759e-27
1.58329e-31
9.99015e-29
3.51932e-23
1.02252e-22
5.87268e-24
2.58511e-25
1.26303e-26
2.21756e-27
1.47359e-27
4.57016e-27
1.22312e-26
6.07396e-27
5.16396e-27
5.29094e-27
6.02471e-27
1.70077e-27
3.0713e-27
2.05807e-27
1.32829e-29
4.28345e-28
3.8461e-30
5.68707e-30
5.3186e-24
1.71176e-23
8.37122e-25
7.11896e-26
1.58757e-28
2.6717e-27
7.73805e-29
1.70741e-28
6.82853e-28
4.81323e-30
3.43792e-30
8.26182e-28
7.37761e-29
3.99338e-28
6.90459e-29
1.94896e-27
9.9542e-28
2.09327e-27
1.28616e-28
3.37476e-28
7.10969e-24
1.88942e-23
1.00249e-24
6.37885e-26
2.29447e-27
1.79561e-27
2.19891e-30
1.76542e-27
2.11234e-27
1.42028e-27
1.78075e-28
1.05438e-28
7.71282e-29
5.04333e-27
5.22462e-27
8.56996e-28
3.13452e-27
8.68346e-28
3.9697e-29
1.27368e-28
4.48244e-23
9.79041e-23
4.93442e-24
3.57584e-25
3.83633e-27
2.399e-27
4.19069e-29
5.38763e-27
6.36176e-27
2.53989e-27
5.61316e-28
2.04687e-27
2.86409e-27
3.252e-27
1.86593e-27
1.86412e-27
1.51295e-27
5.45154e-29
5.61195e-29
1.86263e-31
7.19776e-23
9.46995e-23
5.52065e-24
2.03441e-25
2.83059e-26
2.6535e-27
5.81674e-27
3.34351e-27
3.50764e-27
3.41473e-27
1.03346e-26
4.19212e-28
2.90889e-28
1.03099e-29
4.69476e-28
1.69202e-29
2.72175e-29
3.71102e-30
4.79848e-28
2.92402e-28
2.53842e-23
2.85222e-23
1.66323e-24
6.23234e-26
1.72947e-26
1.24031e-27
6.49389e-27
4.44269e-28
4.88049e-28
2.23666e-28
2.17281e-27
4.68245e-27
3.65795e-27
6.0932e-27
6.44966e-27
8.23307e-28
1.00049e-27
1.96118e-27
5.11468e-29
6.11103e-30
1.52002e-24
5.04971e-25
7.05273e-26
4.17253e-27
1.24598e-26
1.08249e-27
2.62008e-28
1.09937e-28
6.02955e-28
3.09114e-30
1.6347e-27
6.03716e-30
4.08998e-33
1.37584e-30
7.74375e-32
1.50338e-27
3.64228e-28
2.88524e-29
5.02542e-28
4.99742e-30
2.20936e-23
3.4884e-23
1.87692e-24
1.13671e-25
4.2519e-27
9.49609e-28
1.09043e-28
2.33168e-27
7.20611e-28
2.01216e-31
1.70975e-27
1.20199e-29
4.39268e-27
8.16503e-27
6.79021e-27
1.03945e-27
2.53792e-28
1.72291e-27
2.7179e-29
2.64144e-28
4.04678e-23
8.9072e-23
4.50955e-24
3.05336e-25
2.85237e-27
1.95597e-28
3.65069e-28
8.00985e-28
1.97928e-27
8.79128e-28
7.17409e-28
1.86727e-28
4.79392e-28
7.25573e-27
2.01679e-27
1.70778e-27
1.91929e-28
6.7598e-29
1.6694e-29
7.13835e-28
2.04081e-23
4.43459e-23
2.72958e-24
8.84454e-26
2.48532e-26
4.62881e-29
3.00069e-27
1.29125e-27
3.36612e-27
1.9106e-27
1.68257e-27
3.52964e-27
1.2702e-29
1.40116e-31
2.33496e-27
5.05538e-27
1.69465e-30
8.47785e-30
1.58618e-29
3.58987e-30
5.81487e-25
5.6177e-25
2.5041e-26
2.88341e-27
2.86368e-28
3.41795e-30
1.41052e-27
1.08508e-26
7.50272e-28
6.30986e-29
5.8312e-29
5.89838e-28
2.41627e-27
8.39285e-27
7.86768e-27
4.02616e-27
1.91577e-28
3.93454e-27
9.09656e-29
5.0315e-29
6.04402e-24
5.19689e-23
2.6842e-24
1.78868e-25
5.23481e-27
1.71965e-27
3.03648e-27
1.46574e-27
2.15723e-27
8.10411e-29
3.87584e-28
6.90947e-29
1.02736e-27
1.80747e-27
7.25054e-27
3.32808e-28
9.86438e-29
3.05062e-29
1.04005e-29
7.87383e-30
6.01133e-24
1.24536e-23
7.15152e-25
3.44332e-26
3.92935e-27
4.70663e-28
7.11907e-27
1.34758e-26
4.85684e-27
1.40276e-27
3.08669e-28
7.46957e-28
1.35852e-27
4.99046e-27
1.20774e-29
3.55151e-29
1.01501e-27
2.58359e-27
3.40779e-28
2.9454e-29
6.38507e-24
2.12877e-23
8.14681e-25
8.59234e-26
7.93906e-29
3.94735e-27
1.50834e-27
5.89798e-28
9.01573e-30
1.24767e-27
5.96817e-28
3.69722e-29
3.43314e-29
1.97311e-27
2.51399e-27
5.17038e-30
7.79232e-28
8.37908e-31
3.43268e-28
6.40809e-28
)
;

boundaryField
{
    movingWall
    {
        type            calculated;
        value           nonuniform List<scalar> 
20
(
6.3266e-23
3.79138e-23
8.65493e-25
1.96431e-25
1.95504e-26
3.2944e-26
3.56893e-26
4.23398e-26
2.96692e-26
1.50301e-26
4.63317e-27
1.40492e-27
4.71461e-27
6.40825e-28
2.60063e-27
4.23509e-27
1.61205e-27
8.37908e-31
9.46372e-28
1.40999e-27
)
;
    }
    fixedWalls
    {
        type            calculated;
        value           nonuniform List<scalar> 
60
(
2.17399e-21
1.52357e-26
1.3802e-21
1.08034e-21
2.61029e-23
8.8573e-22
1.87943e-21
3.07484e-22
3.47859e-22
1.75749e-21
1.77553e-21
5.41988e-22
1.1395e-23
6.41844e-22
1.61786e-21
8.32887e-22
9.99506e-24
9.4203e-22
2.35311e-22
3.66652e-22
1.21715e-28
7.37393e-29
2.68997e-28
5.0558e-28
9.63883e-28
7.76082e-29
4.70569e-30
1.39402e-28
4.47161e-28
5.31744e-28
9.86299e-28
5.02702e-29
1.2067e-28
4.76173e-28
4.44592e-28
1.27956e-28
1.66539e-28
6.70643e-30
1.29836e-29
8.62028e-28
1.76973e-22
1.68108e-22
5.30044e-24
7.02823e-25
4.35293e-27
2.59905e-26
2.26368e-26
8.46177e-27
3.2356e-27
2.60018e-29
3.46584e-27
2.0946e-27
2.25866e-27
1.12153e-29
6.16078e-28
3.80906e-27
8.35558e-28
4.26019e-27
9.0264e-28
7.93137e-30
)
;
    }
    frontAndBack
    {
        type            empty;
    }
}


// ************************************************************************* //
