/*--------------------------------*- C++ -*----------------------------------*\
| =========                 |                                                 |
| \\      /  F ield         | OpenFOAM: The Open Source CFD Toolbox           |
|  \\    /   O peration     | Version:  2506                                  |
|   \\  /    A nd           | Website:  www.openfoam.com                      |
|    \\/     M anipulation  |                                                 |
\*---------------------------------------------------------------------------*/
FoamFile
{
    version     2.0;
    format      ascii;
    arch        "LSB;label=32;scalar=64";
    class       volScalarField;
    location    "7.25";
    object      flowTypeField;
}
// * * * * * * * * * * * * * * * * * * * * * * * * * * * * * * * * * * * * * //

dimensions      [0 0 0 0 0 0 0];

internalField   nonuniform List<scalar> 
400
(
0.426654
0.0528634
0.0542806
-0.0159457
0.247152
0.12041
0.178692
0.173765
0.727374
0.783182
0.867222
0.0560792
0.598174
0.451406
0.602053
0.694967
0.130026
-0.0601264
0.682008
0.0191819
0.998026
0.941786
0.945715
0.590875
0.275467
0.255698
0.0271236
-0.144709
-0.101938
0.844555
0.389317
-0.375852
0.047527
0.176107
0.334595
0.759166
0.812538
0.106218
0.429588
0.724712
0.600867
0.135943
0.0302171
0.288181
-0.752486
0.23734
-0.431189
-0.132211
0.206314
0.726476
0.718623
0.00294188
0.0400423
0.606137
-0.0186413
0.325008
0.0926585
0.00391964
0.511044
0.963867
0.604013
0.123949
0.0903595
-0.0102168
0.325633
0.298334
0.0243995
-0.219638
0.397374
0.970911
0.246905
0.95701
0.980011
0.924632
0.0205125
0.314462
0.77594
0.0050405
0.462486
0.497516
0.957053
0.651637
0.731369
0.360641
0.408359
0.116973
0.578729
0.000681231
-0.32355
-0.0398591
-0.562483
-0.494458
-0.153899
-0.359009
0.00921207
-0.347057
0.382232
0.0136225
0.229482
0.0412219
0.662977
0.152453
0.125003
0.112849
0.0986595
0.747829
0.631472
0.357154
0.363185
0.322632
0.075458
0.468531
0.744786
0.598279
0.0481603
-0.284532
0.702808
-0.735386
0.937842
0.583185
0.373582
0.0836389
0.00978885
0.104157
0.0170047
0.206752
0.0490947
-0.104713
-0.153257
0.0152692
0.0643842
0.0515467
0.104553
-0.000239723
0.0431163
-0.0171342
0.798927
0.238168
0.553919
0.815707
0.824809
0.276097
0.303286
0.116613
0.822035
-0.125922
0.550478
0.625953
-0.308849
0.690932
0.524911
0.319947
0.236348
-0.0381752
0.260507
0.277745
0.203743
0.162592
0.0570589
0.0665019
0.79032
0.251584
0.255967
0.189528
0.236269
-0.0352701
0.955931
0.225069
-0.178199
0.167521
0.399653
0.787957
0.078996
-0.153077
-0.199415
0.156044
0.179829
0.417642
0.291434
0.665021
0.316779
0.0520051
0.0398479
-0.09653
0.497655
0.0653953
0.34207
-0.181809
-0.374849
-0.141423
-0.14673
0.0547856
0.241383
-0.222664
-0.59412
-0.121421
-0.557879
0.584325
0.0750608
0.96132
0.123342
0.0270076
-0.0774348
0.120732
-0.473209
0.362028
0.0898649
0.184684
-0.0199158
0.183757
-0.026928
0.505709
0.147132
0.0651497
0.46327
0.783327
0.424091
0.575559
0.204321
0.329165
0.525901
0.0888625
0.0139212
0.187896
-0.361439
0.215626
-0.00834409
1.08944e-05
0.00117695
0.406718
-0.0655005
-0.114776
0.004206
-0.0176486
-0.0427041
0.314268
-0.599235
-0.0233032
0.611566
0.812079
0.865346
0.683979
0.540665
0.575606
-0.0204797
0.139902
0.591803
0.535284
0.143864
0.812145
0.249632
0.359818
0.66247
0.754574
0.974234
0.150752
0.00537247
0.0439209
0.438932
0.385508
0.520305
0.0847241
0.0473842
0.0227158
0.229421
0.475132
0.296868
-0.255917
-0.223548
0.885258
-0.0765257
0.200944
-0.146774
-0.177485
-0.0737105
0.239717
0.381226
-0.0809661
0.681041
0.316487
0.231405
0.0547317
0.0275091
-0.0331393
0.52094
0.612424
0.0014655
0.258829
-0.126282
0.24317
0.328065
0.337318
0.58361
0.0121627
-0.167291
-0.0302246
0.329968
0.570139
0.744112
-0.231182
0.602353
0.133128
0.0441852
0.246294
-0.643684
0.728141
0.0551789
0.156882
0.0528236
-0.115491
-0.0308351
-0.0134217
0.866693
0.939017
-0.177853
-0.088514
0.944211
0.117189
0.754001
0.843314
0.936665
0.774105
0.803726
0.668221
0.702421
0.766085
0.188519
-0.297207
0.0765553
0.347264
0.171865
-0.179767
-0.278344
-0.18142
0.00723722
-0.0896086
0.604023
-0.617345
0.0077185
0.0918714
0.657917
0.135671
0.0982348
0.0481003
0.22214
-0.00728049
0.234074
-0.694399
0.339891
0.657351
0.23948
0.742784
0.26072
-0.127099
-0.0287653
0.664285
0.789603
0.0405296
0.915229
0.536151
0.784292
0.316582
0.282488
0.33862
-0.178996
0.395781
0.0562882
-0.174108
-0.125081
0.299545
0.0871285
0.350071
-0.35815
0.134544
0.875931
0.85935
-0.588935
-0.319286
0.0384445
0.69945
0.697387
0.133927
0.2305
-0.0826312
0.851755
-0.497786
0.146543
0.363875
0.872274
0.36535
0.114263
0.704582
0.219926
-0.0171255
-0.301973
0.819378
0.0214059
0.907354
0.190062
0.105724
)
;

boundaryField
{
    movingWall
    {
        type            calculated;
        value           nonuniform List<scalar> 
20
(
0.572546
0.0914468
0.356936
-0.168444
0.285101
-0.141582
0.0247967
0.0692632
0.0924983
0.101954
0.00788099
0.0973078
-0.0913685
0.293047
0.242202
0.157691
0.0405972
0.909004
0.10326
0.0281327
)
;
    }
    fixedWalls
    {
        type            calculated;
        value           nonuniform List<scalar> 
60
(
0.0585602
0.992735
0.112228
0.117507
0.687181
0.147907
0.069323
0.28919
0.25667
0.0483804
0.00183054
0.0768572
0.672294
0.076203
0.0450036
0.119556
0.784994
0.127879
0.316435
0.157692
0.00146426
0.81885
0.532826
0.601944
-0.557829
0.705612
0.888943
0.387227
0.623919
0.528415
0.499239
0.716983
0.0485524
0.383435
-0.00550322
0.595747
0.0326274
0.558063
0.791903
0.220079
0.673006
0.152386
0.316508
-0.0395291
0.709352
-0.261637
0.0490799
0.0660628
0.194213
0.854445
0.304427
0.326791
0.347415
0.86167
0.307025
0.0194797
0.114795
-0.0347311
0.042589
0.662821
)
;
    }
    frontAndBack
    {
        type            empty;
    }
}


// ************************************************************************* //
