/*--------------------------------*- C++ -*----------------------------------*\
| =========                 |                                                 |
| \\      /  F ield         | OpenFOAM: The Open Source CFD Toolbox           |
|  \\    /   O peration     | Version:  2506                                  |
|   \\  /    A nd           | Website:  www.openfoam.com                      |
|    \\/     M anipulation  |                                                 |
\*---------------------------------------------------------------------------*/
FoamFile
{
    version     2.0;
    format      ascii;
    arch        "LSB;label=32;scalar=64";
    class       surfaceScalarField;
    location    "7.25";
    object      fluxField;
}
// * * * * * * * * * * * * * * * * * * * * * * * * * * * * * * * * * * * * * //

dimensions      [0 3 -1 0 0 0 0];

oriented        oriented;

internalField   nonuniform List<scalar> 
760
(
-5e-05
4.23396e-18
-5e-05
-8.97763e-19
-5e-05
2.28272e-19
-5e-05
-3.73142e-20
-5e-05
1.99821e-20
-5e-05
2.04775e-21
-5e-05
2.30619e-21
-5e-05
4.14475e-21
-5e-05
7.26808e-21
-5e-05
9.06258e-21
-5e-05
7.36885e-21
-5e-05
2.17002e-21
-5e-05
-6.6309e-21
-5e-05
-6.01632e-21
-5e-05
6.30631e-22
-5e-05
2.06056e-21
-5e-05
6.18657e-22
-5e-05
1.05684e-21
-5e-05
-2.30695e-21
2.16136e-22
-5e-05
-3.61312e-18
-5e-05
8.06489e-19
-5e-05
-1.75525e-19
-5e-05
4.98875e-20
-5e-05
-2.36175e-21
-5e-05
5.33307e-21
-5e-05
1.94688e-22
-5e-05
1.09673e-21
-5e-05
2.34801e-21
-5e-05
1.34994e-21
-5e-05
-7.58679e-22
-5e-05
-2.41609e-21
-5e-05
-5.37208e-21
-5e-05
-1.56392e-21
-5e-05
3.10484e-21
-5e-05
4.75733e-21
-5e-05
3.774e-21
-5e-05
5.8924e-22
-5e-05
-5.88357e-21
-3.90274e-21
-5e-05
-4.31043e-19
-5e-05
1.00875e-19
-5e-05
-1.55605e-20
-5e-05
1.06586e-20
-5e-05
1.9106e-21
-5e-05
3.68763e-21
-5e-05
2.41712e-21
-5e-05
-9.8443e-22
-5e-05
-3.81453e-21
-5e-05
-5.51174e-21
-5e-05
-5.0933e-21
-5e-05
-2.94236e-21
-5e-05
-1.77208e-21
-5e-05
5.67865e-22
-5e-05
2.37064e-22
-5e-05
1.27517e-21
-5e-05
2.64615e-21
-5e-05
6.05306e-23
-5e-05
-5.00922e-21
-5.13116e-21
-5e-05
2.67384e-18
-5e-05
-5.78153e-19
-5e-05
1.44133e-19
-5e-05
-2.35854e-20
-5e-05
1.51207e-20
-5e-05
7.90656e-21
-5e-05
7.83979e-21
-5e-05
3.50684e-21
-5e-05
-1.04189e-23
-5e-05
-7.21468e-22
-5e-05
-5.53573e-22
-5e-05
-4.2772e-21
-5e-05
-7.50994e-21
-5e-05
-6.93564e-21
-5e-05
-4.65427e-21
-5e-05
-1.2339e-22
-5e-05
3.28263e-21
-5e-05
-1.29408e-22
-5e-05
-3.25129e-21
-3.0375e-21
-5e-05
-3.31761e-18
-5e-05
7.326e-19
-5e-05
-1.64929e-19
-5e-05
4.52464e-20
-5e-05
8.2043e-22
-5e-05
1.01203e-20
-5e-05
3.98358e-21
-5e-05
3.36905e-21
-5e-05
3.80981e-22
-5e-05
1.02354e-21
-5e-05
7.29988e-22
-5e-05
-5.34243e-21
-5e-05
-1.0385e-20
-5e-05
-9.05788e-21
-5e-05
-3.72753e-21
-5e-05
3.53741e-21
-5e-05
6.02101e-21
-5e-05
-9.37207e-22
-5e-05
-4.12519e-21
-1.96548e-21
-5e-05
1.29278e-18
-5e-05
-2.85556e-19
-5e-05
7.15877e-20
-5e-05
-6.56511e-21
-5e-05
9.86124e-21
-5e-05
2.09011e-22
-5e-05
-3.48032e-21
-5e-05
-2.77886e-21
-5e-05
1.3262e-22
-5e-05
2.36756e-21
-5e-05
1.6e-21
-5e-05
-1.30798e-21
-5e-05
-3.98826e-21
-5e-05
-2.15416e-21
-5e-05
4.51388e-22
-5e-05
3.02999e-21
-5e-05
1.8882e-21
-5e-05
-1.65983e-21
-5e-05
-2.97847e-21
-1.10714e-21
-5e-05
2.43441e-18
-5e-05
-5.42496e-19
-5e-05
1.2554e-19
-5e-05
-2.27428e-20
-5e-05
1.30078e-20
-5e-05
1.11711e-21
-5e-05
1.08075e-21
-5e-05
-1.9735e-21
-5e-05
3.34152e-23
-5e-05
7.83755e-22
-5e-05
-2.92892e-22
-5e-05
-2.59149e-22
-5e-05
1.70517e-21
-5e-05
3.11504e-21
-5e-05
3.02226e-21
-5e-05
-5.57871e-22
-5e-05
-4.18496e-21
-5e-05
-4.24424e-21
-5e-05
-1.02058e-21
4.5874e-22
-5e-05
-3.42883e-18
-5e-05
7.49177e-19
-5e-05
-1.85304e-19
-5e-05
3.78214e-20
-5e-05
-8.45263e-21
-5e-05
5.01189e-21
-5e-05
4.47492e-21
-5e-05
2.42609e-21
-5e-05
-1.44759e-21
-5e-05
-2.73337e-21
-5e-05
-1.99496e-21
-5e-05
2.64016e-21
-5e-05
4.53697e-21
-5e-05
2.57194e-21
-5e-05
4.66206e-23
-5e-05
-5.59246e-21
-5e-05
-8.24766e-21
-5e-05
-7.45579e-21
-5e-05
-2.49021e-21
-1.2186e-21
-5e-05
2.10945e-18
-5e-05
-4.7502e-19
-5e-05
1.00532e-19
-5e-05
-3.00913e-20
-5e-05
-1.26331e-21
-5e-05
-4.79954e-21
-5e-05
-3.59851e-21
-5e-05
-1.98652e-21
-5e-05
7.20991e-22
-5e-05
3.18748e-21
-5e-05
5.21489e-21
-5e-05
9.50562e-21
-5e-05
5.91772e-21
-5e-05
1.03196e-21
-5e-05
-5.4709e-21
-5e-05
-1.26906e-20
-5e-05
-1.0757e-20
-5e-05
-5.18035e-21
-5e-05
-5.01245e-21
-5.60134e-21
-5e-05
1.6569e-19
-5e-05
-5.95349e-20
-5e-05
6.31715e-21
-5e-05
-1.00106e-20
-5e-05
-4.97622e-21
-5e-05
-6.93767e-21
-5e-05
-6.62409e-21
-5e-05
-4.50853e-21
-5e-05
-1.11667e-21
-5e-05
2.75179e-21
-5e-05
2.81759e-21
-5e-05
2.29136e-21
-5e-05
-8.80761e-23
-5e-05
-2.33106e-21
-5e-05
-7.83261e-21
-5e-05
-1.17114e-20
-5e-05
-8.09058e-21
-5e-05
-2.89108e-21
-5e-05
-6.16122e-21
-6.50813e-21
-5e-05
-1.69548e-18
-5e-05
3.62052e-19
-5e-05
-8.89086e-20
-5e-05
1.44097e-20
-5e-05
-4.15131e-21
-5e-05
1.42224e-21
-5e-05
3.64039e-21
-5e-05
2.94856e-21
-5e-05
-3.92647e-21
-5e-05
-5.47262e-21
-5e-05
-5.74653e-21
-5e-05
-4.60541e-21
-5e-05
-2.34483e-21
-5e-05
-2.80468e-21
-5e-05
-2.98711e-21
-5e-05
-2.40027e-21
-5e-05
-4.94071e-21
-5e-05
-4.96259e-21
-5e-05
-3.51713e-21
-3.40256e-21
-5e-05
2.2426e-18
-5e-05
-4.79419e-19
-5e-05
1.09944e-19
-5e-05
-2.44298e-20
-5e-05
1.06376e-20
-5e-05
7.32069e-21
-5e-05
7.61632e-21
-5e-05
2.98376e-21
-5e-05
-3.5428e-21
-5e-05
-6.73217e-21
-5e-05
-4.4099e-21
-5e-05
-3.06225e-21
-5e-05
-1.41428e-21
-5e-05
-2.03038e-21
-5e-05
-5.06633e-22
-5e-05
-8.40036e-22
-5e-05
-4.07049e-21
-5e-05
-5.27564e-21
-5e-05
-6.67358e-23
-1.59763e-21
-5e-05
-2.02732e-18
-5e-05
4.55782e-19
-5e-05
-1.0906e-19
-5e-05
2.46464e-20
-5e-05
-9.02002e-22
-5e-05
7.17596e-21
-5e-05
-1.64656e-22
-5e-05
-2.23882e-21
-5e-05
-3.52027e-22
-5e-05
-1.42952e-21
-5e-05
1.10984e-22
-5e-05
-1.754e-21
-5e-05
-1.98348e-21
-5e-05
-4.88038e-21
-5e-05
-6.411e-21
-5e-05
-7.00748e-21
-5e-05
-4.41315e-21
-5e-05
-5.8924e-21
-5e-05
-3.6368e-21
-2.8997e-21
-5e-05
1.45145e-18
-5e-05
-3.22077e-19
-5e-05
7.41142e-20
-5e-05
-2.17717e-20
-5e-05
-2.04846e-21
-5e-05
-5.61452e-21
-5e-05
-4.3356e-21
-5e-05
-2.55118e-21
-5e-05
2.73044e-21
-5e-05
2.34017e-21
-5e-05
-4.97797e-22
-5e-05
-2.80921e-21
-5e-05
-3.66858e-21
-5e-05
-4.94818e-21
-5e-05
-5.49998e-21
-5e-05
-4.65181e-21
-5e-05
-2.28802e-21
-5e-05
-5.38615e-21
-5e-05
-6.31761e-21
-2.09839e-21
-5e-05
1.0433e-18
-5e-05
-2.3553e-19
-5e-05
4.73927e-20
-5e-05
-2.14221e-20
-5e-05
-8.94364e-21
-5e-05
-1.08432e-20
-5e-05
-4.70663e-21
-5e-05
-3.1263e-21
-5e-05
-3.12296e-22
-5e-05
-1.13331e-21
-5e-05
-5.28339e-21
-5e-05
-6.166e-21
-5e-05
-7.90451e-21
-5e-05
-6.46126e-21
-5e-05
-4.76134e-21
-5e-05
-6.04513e-22
-5e-05
1.1061e-21
-5e-05
-2.02246e-21
-5e-05
-2.83018e-21
8.30193e-22
-5e-05
-3.10644e-18
-5e-05
6.74325e-19
-5e-05
-1.68556e-19
-5e-05
2.74803e-20
-5e-05
-1.73202e-20
-5e-05
-8.72161e-21
-5e-05
-7.48485e-21
-5e-05
-1.25786e-21
-5e-05
3.0867e-21
-5e-05
1.46631e-21
-5e-05
-1.62319e-21
-5e-05
-2.18341e-21
-5e-05
-4.10963e-21
-5e-05
-7.27005e-21
-5e-05
-9.26213e-21
-5e-05
-7.99349e-21
-5e-05
-6.55774e-21
-5e-05
-2.63966e-21
-5e-05
1.03726e-21
2.14048e-21
-5e-05
2.6689e-18
-5e-05
-5.88195e-19
-5e-05
1.34419e-19
-5e-05
-3.77921e-20
-5e-05
-2.89958e-21
-5e-05
-1.30051e-20
-5e-05
-1.01311e-20
-5e-05
-5.7323e-22
-5e-05
6.35204e-21
-5e-05
5.20331e-21
-5e-05
3.60817e-22
-5e-05
-4.45696e-21
-5e-05
-4.38837e-21
-5e-05
-3.72755e-21
-5e-05
-1.4184e-21
-5e-05
-4.9826e-21
-5e-05
-9.97317e-21
-5e-05
-3.6005e-21
-5e-05
6.04024e-22
9.11756e-22
-5e-05
1.68056e-18
-5e-05
-3.83944e-19
-5e-05
8.13375e-20
-5e-05
-2.91477e-20
-5e-05
-2.58417e-21
-5e-05
-5.40091e-21
-5e-05
-2.79905e-21
-5e-05
-2.197e-21
-5e-05
-3.20052e-21
-5e-05
-3.6391e-21
-5e-05
-6.07258e-21
-5e-05
-1.00349e-20
-5e-05
-6.12489e-21
-5e-05
7.76144e-22
-5e-05
6.77727e-21
-5e-05
5.00489e-21
-5e-05
-1.7796e-21
-5e-05
-2.99427e-21
-5e-05
-4.24508e-21
-1.60448e-21
-5e-05
-3.24824e-18
-5e-05
6.88411e-19
-5e-05
-1.72804e-19
-5e-05
2.96488e-20
-5e-05
-1.03384e-20
-5e-05
3.86044e-21
-5e-05
5.99239e-21
-5e-05
1.31314e-21
-5e-05
-6.13482e-21
-5e-05
-8.71224e-21
-5e-05
-6.88829e-21
-5e-05
-6.28656e-21
-5e-05
-1.85199e-21
-5e-05
2.04005e-21
-5e-05
6.4316e-22
-5e-05
-9.058e-22
-5e-05
-6.599e-22
-5e-05
-2.30041e-21
-5e-05
-4.75451e-21
-2.27662e-21
-5e-05
-5e-05
-5e-05
-5e-05
-5e-05
-5e-05
-5e-05
-5e-05
-5e-05
-5e-05
-5e-05
-5e-05
-5e-05
-5e-05
-5e-05
-5e-05
-5e-05
-5e-05
-5e-05
)
;

boundaryField
{
    movingWall
    {
        type            calculated;
        value           uniform -0;
    }
    fixedWalls
    {
        type            calculated;
        value           nonuniform List<scalar> 
60
(
5e-05
5e-05
5e-05
5e-05
5e-05
5e-05
5e-05
5e-05
5e-05
5e-05
5e-05
5e-05
5e-05
5e-05
5e-05
5e-05
5e-05
5e-05
5e-05
5e-05
-5e-05
-5e-05
-5e-05
-5e-05
-5e-05
-5e-05
-5e-05
-5e-05
-5e-05
-5e-05
-5e-05
-5e-05
-5e-05
-5e-05
-5e-05
-5e-05
-5e-05
-5e-05
-5e-05
-5e-05
0
0
0
0
0
0
0
0
0
0
0
0
0
0
0
0
0
0
0
0
)
;
    }
    frontAndBack
    {
        type            empty;
    }
}


// ************************************************************************* //
