/*--------------------------------*- C++ -*----------------------------------*\
| =========                 |                                                 |
| \\      /  F ield         | OpenFOAM: The Open Source CFD Toolbox           |
|  \\    /   O peration     | Version:  2506                                  |
|   \\  /    A nd           | Website:  www.openfoam.com                      |
|    \\/     M anipulation  |                                                 |
\*---------------------------------------------------------------------------*/
FoamFile
{
    version     2.0;
    format      ascii;
    arch        "LSB;label=32;scalar=64";
    class       volVectorField;
    location    "7.25";
    object      gradPhi;
}
// * * * * * * * * * * * * * * * * * * * * * * * * * * * * * * * * * * * * * //

dimensions      [0 2 -1 0 0 0 0];

internalField   nonuniform List<vector> 
400
(
(-0.02 9.03299e-17 0)
(1.40621e-16 -1.41832e-16 0)
(-4.46678e-17 4.58358e-17 0)
(3.30872e-18 -5.09742e-18 0)
(-1.65436e-18 3.56456e-18 0)
(-1.65436e-18 7.56622e-19 0)
(0 4.6999e-19 0)
(-1.65436e-18 1.28127e-18 0)
(-1.65436e-18 1.28666e-18 0)
(0 1.33621e-18 0)
(-1.65436e-18 1.18816e-18 0)
(-1.65436e-18 8.75874e-19 0)
(1.65436e-18 -1.13414e-18 0)
(1.65436e-18 -1.2784e-18 0)
(0 1.74543e-19 0)
(0 4.41376e-19 0)
(0 -1.40712e-19 0)
(0 3.68874e-19 0)
(0 -9.35518e-19 0)
(0 8.24978e-19 0)
(-0.02 -1.91601e-16 0)
(-2.66352e-16 2.65814e-16 0)
(8.10637e-17 -8.0941e-17 0)
(-1.32349e-17 1.29346e-17 0)
(4.96308e-18 -3.01461e-18 0)
(0 -3.60759e-19 0)
(1.65436e-18 -8.33425e-19 0)
(0 -1.59963e-18 0)
(0 -1.89128e-19 0)
(0 -4.72493e-19 0)
(1.65436e-18 -1.1118e-18 0)
(1.65436e-18 -1.49446e-18 0)
(0 -5.89776e-19 0)
(0 6.85721e-19 0)
(-1.65436e-18 6.28723e-19 0)
(-1.65436e-18 7.43926e-19 0)
(0 1.33189e-18 0)
(0 -1.43299e-19 0)
(0 -1.32457e-19 0)
(1.65436e-18 -2.30782e-18 0)
(-0.02 7.63648e-17 0)
(9.76073e-17 -9.76196e-17 0)
(-3.14329e-17 3.18546e-17 0)
(6.61744e-18 -5.24023e-18 0)
(1.65436e-18 -1.00035e-18 0)
(0 6.2135e-19 0)
(-1.65436e-18 1.18318e-18 0)
(0 5.42825e-19 0)
(1.65436e-18 -2.41946e-18 0)
(1.65436e-18 -2.18752e-18 0)
(3.30872e-18 -1.36325e-18 0)
(1.65436e-18 -2.94154e-19 0)
(-3.30872e-18 2.0711e-18 0)
(-1.65436e-18 1.2497e-18 0)
(0 -7.14338e-19 0)
(1.65436e-18 -9.74474e-19 0)
(0 -8.27857e-19 0)
(0 -3.49456e-20 0)
(-1.65436e-18 4.98171e-19 0)
(0 2.42062e-19 0)
(-0.02 8.59895e-17 0)
(1.20768e-16 -1.19509e-16 0)
(-3.30872e-17 3.19391e-17 0)
(4.96308e-18 -5.97015e-18 0)
(-1.65436e-18 3.81253e-18 0)
(-1.65436e-18 8.06883e-19 0)
(-1.65436e-18 9.65295e-19 0)
(-1.65436e-18 -6.52563e-20 0)
(-1.65436e-18 1.49522e-18 0)
(-1.65436e-18 1.12976e-18 0)
(0 1.22237e-18 0)
(0 2.76675e-19 0)
(1.65436e-18 -2.38436e-18 0)
(1.65436e-18 -2.31352e-18 0)
(0 -9.40978e-19 0)
(0 -9.52914e-20 0)
(-1.65436e-18 8.85622e-20 0)
(0 -5.01861e-19 0)
(0 -2.61393e-19 0)
(0 9.00941e-19 0)
(-0.02 -1.60213e-16 0)
(-2.15067e-16 2.13653e-16 0)
(6.28657e-17 -6.13665e-17 0)
(-1.15805e-17 1.00857e-17 0)
(4.96308e-18 -3.64523e-18 0)
(-1.65436e-18 2.42025e-20 0)
(1.65436e-18 -1.25215e-18 0)
(-1.65436e-18 1.04188e-18 0)
(1.65436e-18 -1.47815e-19 0)
(0 1.92323e-19 0)
(0 3.50325e-19 0)
(0 -3.889e-19 0)
(0 5.38698e-19 0)
(0 -2.82453e-19 0)
(0 -4.79759e-19 0)
(0 -1.06318e-19 0)
(-1.65436e-18 1.19645e-18 0)
(-1.65436e-18 6.0346e-19 0)
(0 2.59565e-20 0)
(0 -1.27616e-19 0)
(-0.02 1.37073e-16 0)
(1.78671e-16 -1.75922e-16 0)
(-4.79765e-17 4.70527e-17 0)
(6.61744e-18 -6.91014e-18 0)
(-3.30872e-18 2.811e-18 0)
(1.65436e-18 -1.71503e-18 0)
(1.65436e-18 -1.2966e-18 0)
(3.30872e-18 -1.87148e-18 0)
(0 2.27764e-20 0)
(0 7.563e-19 0)
(0 -2.15429e-20 0)
(-1.65436e-18 4.73618e-19 0)
(0 -1.6373e-19 0)
(-1.65436e-18 1.62469e-18 0)
(-1.65436e-18 1.57218e-18 0)
(-1.65436e-18 1.13465e-18 0)
(1.65436e-18 -1.35359e-18 0)
(1.65436e-18 -1.05038e-18 0)
(0 -5.64599e-20 0)
(0 2.20702e-19 0)
(-0.02 1.07681e-17 0)
(2.15067e-17 -2.16535e-17 0)
(-9.92617e-18 1.0743e-17 0)
(1.65436e-18 -3.05445e-18 0)
(0 -4.31736e-19 0)
(0 3.57395e-20 0)
(0 6.97591e-19 0)
(0 -4.03382e-19 0)
(0 -5.35798e-19 0)
(0 -8.6974e-19 0)
(0 -2.36859e-19 0)
(0 1.16028e-18 0)
(-1.65436e-18 2.68669e-18 0)
(-1.65436e-18 9.24817e-19 0)
(0 8.10199e-19 0)
(3.30872e-18 -1.19702e-18 0)
(0 -1.47919e-18 0)
(0 1.80466e-19 0)
(0 9.0349e-19 0)
(-1.65436e-18 4.57243e-19 0)
(-0.02 -1.21536e-16 0)
(-1.8198e-16 1.80623e-16 0)
(6.28657e-17 -6.23758e-17 0)
(-8.27181e-18 8.49828e-18 0)
(1.65436e-18 -3.00169e-18 0)
(0 4.02231e-19 0)
(0 1.60638e-18 0)
(-3.30872e-18 2.52511e-18 0)
(-1.65436e-18 8.37645e-19 0)
(1.65436e-18 -2.66175e-19 0)
(0 -3.7558e-19 0)
(1.65436e-18 -1.0818e-18 0)
(0 -5.09852e-19 0)
(1.65436e-18 -2.42377e-19 0)
(0 -1.42812e-18 0)
(0 -1.14718e-18 0)
(1.65436e-18 8.32937e-20 0)
(1.65436e-18 -1.53971e-18 0)
(0 -7.23496e-19 0)
(0 1.06026e-19 0)
(-0.02 1.21899e-16 0)
(1.63782e-16 -1.64923e-16 0)
(-5.62483e-17 5.71818e-17 0)
(9.92617e-18 -9.63879e-18 0)
(0 -1.51035e-19 0)
(1.65436e-18 -7.76092e-19 0)
(1.65436e-18 -2.61477e-18 0)
(3.30872e-18 -2.12816e-18 0)
(0 -3.08946e-19 0)
(0 9.87651e-19 0)
(0 1.14172e-18 0)
(-4.96308e-18 3.38175e-18 0)
(0 1.1629e-18 0)
(0 2.56559e-20 0)
(0 -5.25434e-19 0)
(1.65436e-18 -1.33004e-18 0)
(1.65436e-18 -1.61513e-18 0)
(-3.30872e-18 1.35888e-18 0)
(1.65436e-18 -3.12803e-19 0)
(1.65436e-18 -2.17174e-18 0)
(-0.02 -2.62381e-17 0)
(-4.63221e-17 4.77809e-17 0)
(1.8198e-17 -1.8939e-17 0)
(-3.30872e-18 2.46798e-18 0)
(0 2.76458e-19 0)
(0 -1.40794e-18 0)
(1.65436e-18 -1.12773e-19 0)
(0 -7.94722e-19 0)
(0 -5.04734e-19 0)
(0 1.09236e-19 0)
(0 2.13575e-21 0)
(3.30872e-18 -2.64902e-18 0)
(3.30872e-18 -1.97662e-18 0)
(0 -9.50818e-19 0)
(0 -7.32518e-19 0)
(0 -1.89749e-19 0)
(0 1.27896e-18 0)
(0 5.51481e-19 0)
(-1.65436e-18 2.39852e-20 0)
(0 6.67544e-19 0)
(-0.02 -4.13297e-17 0)
(-5.29396e-17 5.18276e-17 0)
(1.8198e-17 -1.77678e-17 0)
(-1.65436e-18 2.62277e-18 0)
(0 4.45403e-19 0)
(-3.30872e-18 1.5906e-18 0)
(-3.30872e-18 1.73618e-18 0)
(-1.65436e-18 2.7095e-18 0)
(0 5.96268e-20 0)
(1.65436e-18 -1.68392e-18 0)
(3.30872e-18 -1.91935e-18 0)
(0 -1.47857e-18 0)
(0 -7.87172e-20 0)
(0 2.43992e-19 0)
(-1.65436e-18 8.83856e-19 0)
(-1.65436e-18 2.37584e-18 0)
(0 2.77811e-19 0)
(1.65436e-18 -8.04534e-19 0)
(0 -8.62724e-20 0)
(0 4.77031e-20 0)
(-0.02 3.82193e-17 0)
(7.94093e-17 -8.0413e-17 0)
(-3.63959e-17 3.79433e-17 0)
(1.65436e-18 -2.66299e-18 0)
(-1.65436e-18 1.23947e-18 0)
(0 1.63144e-18 0)
(-1.65436e-18 1.43391e-18 0)
(0 -5.77522e-19 0)
(0 -8.42545e-19 0)
(0 -7.59082e-19 0)
(0 -8.95307e-20 0)
(-1.65436e-18 6.40547e-19 0)
(0 1.10872e-19 0)
(1.65436e-18 -3.87212e-19 0)
(0 9.01238e-19 0)
(-1.65436e-18 6.85839e-19 0)
(0 7.66486e-19 0)
(1.65436e-18 -5.09459e-19 0)
(-1.65436e-18 1.25068e-18 0)
(-1.65436e-18 1.89706e-18 0)
(-0.02 -4.25288e-17 0)
(-8.43724e-17 8.48332e-17 0)
(4.30134e-17 -4.21885e-17 0)
(-6.61744e-18 4.68539e-18 0)
(0 4.56334e-19 0)
(0 -2.6381e-20 0)
(1.65436e-18 -2.53372e-18 0)
(3.30872e-18 -1.26398e-18 0)
(-1.65436e-18 1.90326e-18 0)
(-3.30872e-18 1.72664e-18 0)
(0 1.60039e-18 0)
(-1.65436e-18 1.25798e-19 0)
(1.65436e-18 -6.54862e-19 0)
(0 -2.61869e-19 0)
(0 -1.49432e-18 0)
(3.30872e-18 -2.22778e-18 0)
(0 -1.11687e-18 0)
(0 3.27797e-19 0)
(1.65436e-18 -8.84164e-19 0)
(1.65436e-18 -1.99688e-18 0)
(-0.02 5.65772e-17 0)
(8.27181e-17 -8.20746e-17 0)
(-3.47416e-17 3.48727e-17 0)
(6.61744e-18 -5.94985e-18 0)
(3.30872e-18 -2.88815e-18 0)
(1.65436e-18 -2.74584e-18 0)
(0 -1.73118e-19 0)
(0 -4.1075e-20 0)
(0 -4.9778e-19 0)
(0 1.32796e-19 0)
(0 -8.34196e-19 0)
(0 -1.07644e-19 0)
(0 1.23041e-18 0)
(0 4.73411e-19 0)
(0 3.92299e-19 0)
(0 1.13292e-18 0)
(-1.65436e-18 1.44353e-18 0)
(0 2.17093e-19 0)
(1.65436e-18 -6.91729e-19 0)
(-1.65436e-18 6.18801e-19 0)
(-0.02 1.25474e-17 0)
(1.65436e-18 -1.13026e-18 0)
(3.30872e-18 -3.77331e-18 0)
(1.65436e-18 -5.58861e-19 0)
(0 1.34797e-19 0)
(1.65436e-18 -1.15822e-18 0)
(0 -3.08829e-19 0)
(0 -7.06007e-20 0)
(0 -4.15683e-19 0)
(0 -2.0933e-19 0)
(0 -2.98672e-19 0)
(0 -3.67183e-19 0)
(3.30872e-18 -3.12416e-18 0)
(3.30872e-18 -1.7818e-18 0)
(0 -2.93843e-19 0)
(0 6.99621e-19 0)
(0 4.98476e-19 0)
(-1.65436e-18 1.0895e-18 0)
(-1.65436e-18 8.31713e-19 0)
(0 1.01358e-18 0)
(-0.02 -1.12763e-16 0)
(-1.48893e-16 1.46788e-16 0)
(4.46678e-17 -4.39246e-17 0)
(-6.61744e-18 7.19882e-18 0)
(0 -2.0654e-18 0)
(0 4.55353e-19 0)
(0 5.33875e-20 0)
(0 6.0662e-19 0)
(-1.65436e-18 7.62173e-19 0)
(0 4.72779e-19 0)
(0 4.29459e-19 0)
(-1.65436e-18 2.57682e-19 0)
(-1.65436e-18 2.77808e-18 0)
(-1.65436e-18 1.51824e-18 0)
(0 -7.30612e-19 0)
(1.65436e-18 -1.74061e-18 0)
(3.30872e-18 -1.47509e-18 0)
(1.65436e-18 -1.04162e-18 0)
(-1.65436e-18 5.86556e-19 0)
(0 1.80674e-19 0)
(-0.02 1.45255e-16 0)
(1.98523e-16 -1.99018e-16 0)
(-5.9557e-17 6.08511e-17 0)
(8.27181e-18 -8.92448e-18 0)
(-1.65436e-18 2.91105e-18 0)
(0 -5.86542e-19 0)
(1.65436e-18 -2.07289e-18 0)
(0 -2.0803e-19 0)
(-1.65436e-18 1.3669e-18 0)
(0 5.56525e-19 0)
(0 -9.96478e-20 0)
(0 -1.44342e-19 0)
(0 -7.7397e-19 0)
(0 1.58758e-19 0)
(-3.30872e-18 2.00249e-18 0)
(0 3.36214e-19 0)
(3.30872e-18 -2.31406e-18 0)
(0 -7.32129e-20 0)
(0 6.78941e-19 0)
(0 -2.96977e-19 0)
(-0.02 -5.28061e-18 0)
(-1.65436e-17 1.45762e-17 0)
(9.92617e-18 -1.06481e-17 0)
(0 -4.68089e-19 0)
(0 -2.79854e-19 0)
(-1.65436e-18 1.62555e-18 0)
(-3.30872e-18 3.02843e-18 0)
(1.65436e-18 -9.89292e-20 0)
(1.65436e-18 -2.74372e-18 0)
(1.65436e-18 -1.25466e-18 0)
(1.65436e-18 -3.50963e-19 0)
(1.65436e-18 -1.53042e-18 0)
(1.65436e-18 -8.50431e-19 0)
(1.65436e-18 8.67155e-20 0)
(-3.30872e-18 1.32424e-18 0)
(-3.30872e-18 3.71441e-18 0)
(-3.30872e-18 4.15452e-18 0)
(0 5.46205e-19 0)
(1.65436e-18 -2.28776e-18 0)
(0 -5.78131e-19 0)
(-0.02 -1.62243e-16 0)
(-2.03486e-16 2.03392e-16 0)
(5.12852e-17 -5.13334e-17 0)
(-9.92617e-18 1.06688e-17 0)
(1.65436e-18 -8.65785e-19 0)
(-1.65436e-18 1.33991e-18 0)
(-3.30872e-18 1.68442e-18 0)
(0 1.15392e-18 0)
(0 -5.41859e-19 0)
(1.65436e-18 -2.14874e-18 0)
(0 -5.69065e-19 0)
(-1.65436e-18 1.68718e-18 0)
(-1.65436e-18 1.5076e-18 0)
(-1.65436e-18 1.37135e-18 0)
(1.65436e-18 -1.31891e-18 0)
(3.30872e-18 -3.40931e-18 0)
(1.65436e-18 -1.19042e-18 0)
(0 3.71385e-19 0)
(0 9.92557e-19 0)
(0 -6.44741e-19 0)
(-0.02 8.87108e-17 0)
(1.25731e-16 -1.25193e-16 0)
(-3.47416e-17 3.4984e-17 0)
(4.96308e-18 -4.68686e-18 0)
(-1.65436e-18 1.69224e-18 0)
(0 -5.13082e-19 0)
(1.65436e-18 -1.66048e-18 0)
(1.65436e-18 -7.38356e-19 0)
(-3.30872e-18 1.41319e-18 0)
(-3.30872e-18 2.45144e-18 0)
(0 1.3359e-18 0)
(0 6.5709e-19 0)
(0 1.54269e-19 0)
(0 -8.64605e-19 0)
(0 -3.09234e-20 0)
(0 1.15299e-18 0)
(-1.65436e-18 3.92955e-19 0)
(1.65436e-18 8.38866e-20 0)
(-1.65436e-18 5.80005e-19 0)
(0 9.46578e-19 0)
)
;

boundaryField
{
    movingWall
    {
        type            extrapolatedCalculated;
        value           nonuniform List<vector> 
20
(
(-0.02 8.87108e-17 0)
(1.25731e-16 -1.25193e-16 0)
(-3.47416e-17 3.4984e-17 0)
(4.96308e-18 -4.68686e-18 0)
(-1.65436e-18 1.69224e-18 0)
(0 -5.13082e-19 0)
(1.65436e-18 -1.66048e-18 0)
(1.65436e-18 -7.38356e-19 0)
(-3.30872e-18 1.41319e-18 0)
(-3.30872e-18 2.45144e-18 0)
(0 1.3359e-18 0)
(0 6.5709e-19 0)
(0 1.54269e-19 0)
(0 -8.64605e-19 0)
(0 -3.09234e-20 0)
(0 1.15299e-18 0)
(-1.65436e-18 3.92955e-19 0)
(1.65436e-18 8.38866e-20 0)
(-1.65436e-18 5.80005e-19 0)
(0 9.46578e-19 0)
)
;
    }
    fixedWalls
    {
        type            extrapolatedCalculated;
        value           nonuniform List<vector> 
60
(
(-0.02 9.03299e-17 0)
(-0.02 -1.91601e-16 0)
(-0.02 7.63648e-17 0)
(-0.02 8.59895e-17 0)
(-0.02 -1.60213e-16 0)
(-0.02 1.37073e-16 0)
(-0.02 1.07681e-17 0)
(-0.02 -1.21536e-16 0)
(-0.02 1.21899e-16 0)
(-0.02 -2.62381e-17 0)
(-0.02 -4.13297e-17 0)
(-0.02 3.82193e-17 0)
(-0.02 -4.25288e-17 0)
(-0.02 5.65772e-17 0)
(-0.02 1.25474e-17 0)
(-0.02 -1.12763e-16 0)
(-0.02 1.45255e-16 0)
(-0.02 -5.28061e-18 0)
(-0.02 -1.62243e-16 0)
(-0.02 8.87108e-17 0)
(0 8.24978e-19 0)
(1.65436e-18 -2.30782e-18 0)
(0 2.42062e-19 0)
(0 9.00941e-19 0)
(0 -1.27616e-19 0)
(0 2.20702e-19 0)
(-1.65436e-18 4.57243e-19 0)
(0 1.06026e-19 0)
(1.65436e-18 -2.17174e-18 0)
(0 6.67544e-19 0)
(0 4.77031e-20 0)
(-1.65436e-18 1.89706e-18 0)
(1.65436e-18 -1.99688e-18 0)
(-1.65436e-18 6.18801e-19 0)
(0 1.01358e-18 0)
(0 1.80674e-19 0)
(0 -2.96977e-19 0)
(0 -5.78131e-19 0)
(0 -6.44741e-19 0)
(0 9.46578e-19 0)
(-0.02 9.03299e-17 0)
(1.40621e-16 -1.41832e-16 0)
(-4.46678e-17 4.58358e-17 0)
(3.30872e-18 -5.09742e-18 0)
(-1.65436e-18 3.56456e-18 0)
(-1.65436e-18 7.56622e-19 0)
(0 4.6999e-19 0)
(-1.65436e-18 1.28127e-18 0)
(-1.65436e-18 1.28666e-18 0)
(0 1.33621e-18 0)
(-1.65436e-18 1.18816e-18 0)
(-1.65436e-18 8.75874e-19 0)
(1.65436e-18 -1.13414e-18 0)
(1.65436e-18 -1.2784e-18 0)
(0 1.74543e-19 0)
(0 4.41376e-19 0)
(0 -1.40712e-19 0)
(0 3.68874e-19 0)
(0 -9.35518e-19 0)
(0 8.24978e-19 0)
)
;
    }
    frontAndBack
    {
        type            empty;
    }
}


// ************************************************************************* //
