/*--------------------------------*- C++ -*----------------------------------*\
| =========                 |                                                 |
| \\      /  F ield         | OpenFOAM: The Open Source CFD Toolbox           |
|  \\    /   O peration     | Version:  2506                                  |
|   \\  /    A nd           | Website:  www.openfoam.com                      |
|    \\/     M anipulation  |                                                 |
\*---------------------------------------------------------------------------*/
FoamFile
{
    version     2.0;
    format      ascii;
    arch        "LSB;label=32;scalar=64";
    class       volTensorField;
    location    "7.25";
    object      gradU;
}
// * * * * * * * * * * * * * * * * * * * * * * * * * * * * * * * * * * * * * //

dimensions      [0 0 -1 0 0 0 0];

internalField   nonuniform List<tensor> 
400
(
(-7.86047e-13 1.33067e-11 0 1.89735e-12 1.69358e-11 0 0 0 0)
(1.40946e-12 -1.60713e-11 0 -4.33681e-13 -3.59105e-12 0 0 0 0)
(-4.60786e-13 3.47794e-12 0 5.42101e-14 9.13086e-13 0 0 0 0)
(0 -8.30328e-13 0 2.71051e-14 -1.49257e-13 0 0 0 0)
(-5.42101e-14 1.73148e-13 0 2.71051e-14 7.99284e-14 0 0 0 0)
(-2.71051e-14 -5.03576e-14 0 0 8.191e-15 0 0 0 0)
(0 9.26846e-15 0 5.42101e-14 9.22478e-15 0 0 0 0)
(-2.71051e-14 3.13622e-15 0 5.42101e-14 1.6579e-14 0 0 0 0)
(-2.71051e-14 8.37412e-15 0 0 2.90723e-14 0 0 0 0)
(-2.71051e-14 7.21135e-15 0 0 3.62503e-14 0 0 0 0)
(-5.42101e-14 -5.56113e-15 0 0 2.94754e-14 0 0 0 0)
(0 -2.40938e-14 0 0 8.6801e-15 0 0 0 0)
(5.42101e-14 -2.16068e-14 0 0 -2.65236e-14 0 0 0 0)
(2.71051e-14 4.73609e-15 0 2.71051e-14 -2.40653e-14 0 0 0 0)
(-2.71051e-14 9.30685e-15 0 0 2.52253e-15 0 0 0 0)
(0 -1.53599e-15 0 0 8.24222e-15 0 0 0 0)
(0 3.52963e-15 0 2.71051e-14 2.47463e-15 0 0 0 0)
(0 3.48809e-15 0 -5.42101e-14 4.22738e-15 0 0 0 0)
(0 1.92033e-15 0 0 -9.2278e-15 0 0 0 0)
(0 -3.98281e-15 0 0 8.64544e-16 0 0 0 0)
(2.30393e-12 3.80578e-14 0 8.13152e-14 -3.13883e-11 0 0 0 0)
(-3.25261e-12 4.85712e-14 0 -2.71051e-13 6.81701e-12 0 0 0 0)
(8.94467e-13 -3.61469e-14 0 -1.0842e-13 -1.61519e-12 0 0 0 0)
(-5.42101e-14 -2.82945e-15 0 -1.35525e-13 3.48807e-13 0 0 0 0)
(5.42101e-14 -1.57004e-14 0 -1.35525e-13 -8.93753e-14 0 0 0 0)
(0 -2.0346e-14 0 -8.13152e-14 1.31413e-14 0 0 0 0)
(2.71051e-14 -8.80449e-16 0 -1.35525e-13 -8.44602e-15 0 0 0 0)
(0 1.67113e-14 0 -1.0842e-13 -1.21921e-14 0 0 0 0)
(0 1.12972e-14 0 -8.13152e-14 -1.96803e-14 0 0 0 0)
(5.42101e-14 -6.80826e-15 0 0 -3.08505e-14 0 0 0 0)
(0 -2.20091e-14 0 0 -3.25101e-14 0 0 0 0)
(0 -3.19052e-14 0 2.71051e-14 -1.83445e-14 0 0 0 0)
(2.71051e-14 -1.11386e-14 0 2.71051e-14 5.03527e-15 0 0 0 0)
(0 2.431e-14 0 0 1.78096e-14 0 0 0 0)
(-2.71051e-14 2.30006e-14 0 0 9.89682e-15 0 0 0 0)
(0 1.48809e-15 0 0 1.07871e-14 0 0 0 0)
(-5.42101e-14 -7.54448e-15 0 0 1.26214e-14 0 0 0 0)
(5.42101e-14 -1.51905e-14 0 5.42101e-14 -1.87042e-15 0 0 0 0)
(-5.42101e-14 -5.28316e-15 0 2.71051e-14 -1.43065e-14 0 0 0 0)
(5.42101e-14 1.23461e-14 0 0 -1.64755e-14 0 0 0 0)
(-9.75782e-13 -1.12646e-11 0 -5.17707e-12 1.27283e-11 0 0 0 0)
(1.24683e-12 1.37018e-11 0 1.5992e-12 -2.82246e-12 0 0 0 0)
(-4.06576e-13 -2.99026e-12 0 0 6.39857e-13 0 0 0 0)
(5.42101e-14 6.95482e-13 0 1.89735e-13 -1.56916e-13 0 0 0 0)
(2.71051e-14 -1.62517e-13 0 1.6263e-13 1.70894e-14 0 0 0 0)
(-2.71051e-14 3.05717e-14 0 1.35525e-13 -6.58175e-15 0 0 0 0)
(0 -1.60649e-14 0 2.71051e-14 8.88971e-15 0 0 0 0)
(0 -8.09801e-15 0 5.42101e-14 -8.32463e-15 0 0 0 0)
(8.13152e-14 -1.02843e-14 0 8.13152e-14 -2.46502e-14 0 0 0 0)
(0 -5.61851e-15 0 0 -2.74467e-14 0 0 0 0)
(2.71051e-14 6.94495e-15 0 0 -1.73385e-14 0 0 0 0)
(2.71051e-14 1.34515e-14 0 -2.71051e-14 -2.10506e-15 0 0 0 0)
(-2.71051e-14 1.45472e-14 0 -2.71051e-14 1.44e-14 0 0 0 0)
(-2.71051e-14 9.59764e-15 0 0 8.52716e-15 0 0 0 0)
(0 2.28436e-15 0 -5.42101e-14 -1.14711e-14 0 0 0 0)
(2.71051e-14 1.18857e-15 0 2.71051e-14 -1.39286e-14 0 0 0 0)
(0 -9.12788e-15 0 0 -4.5114e-15 0 0 0 0)
(0 -2.34398e-14 0 0 -2.11484e-15 0 0 0 0)
(-2.71051e-14 -1.26848e-14 0 0 3.4974e-15 0 0 0 0)
(0 2.67992e-14 0 2.71051e-14 -4.91367e-15 0 0 0 0)
(-1.32815e-12 9.94391e-12 0 4.33681e-12 1.24195e-11 0 0 0 0)
(1.89735e-12 -1.20399e-11 0 -1.13841e-12 -2.71611e-12 0 0 0 0)
(-4.87891e-13 2.62939e-12 0 1.35525e-13 6.38774e-13 0 0 0 0)
(8.13152e-14 -6.25597e-13 0 2.71051e-14 -1.36976e-13 0 0 0 0)
(-8.13152e-14 1.34633e-13 0 2.71051e-14 5.28402e-14 0 0 0 0)
(-2.71051e-14 -2.85456e-14 0 0 1.68757e-14 0 0 0 0)
(-2.71051e-14 -2.62333e-15 0 1.0842e-13 2.16907e-14 0 0 0 0)
(0 -1.68286e-14 0 5.42101e-14 1.79651e-14 0 0 0 0)
(-5.42101e-14 -7.82492e-15 0 2.71051e-14 1.52164e-14 0 0 0 0)
(-5.42101e-14 5.03448e-16 0 0 1.91611e-14 0 0 0 0)
(0 3.33258e-15 0 2.71051e-14 1.81589e-14 0 0 0 0)
(-2.71051e-14 -1.66669e-16 0 0 -5.33936e-15 0 0 0 0)
(8.13152e-14 -5.06359e-16 0 0 -2.29515e-14 0 0 0 0)
(2.71051e-14 -1.56108e-15 0 0 -3.0014e-14 0 0 0 0)
(0 5.44844e-16 0 1.0842e-13 -1.95653e-14 0 0 0 0)
(0 8.44778e-15 0 2.71051e-14 -5.59423e-15 0 0 0 0)
(-2.71051e-14 4.26933e-15 0 0 2.54592e-15 0 0 0 0)
(0 -7.18171e-15 0 0 -7.59755e-16 0 0 0 0)
(2.71051e-14 -8.08199e-15 0 -2.71051e-14 7.03174e-15 0 0 0 0)
(-2.71051e-14 1.37623e-14 0 0 8.37462e-15 0 0 0 0)
(2.19551e-12 -1.56115e-12 0 -8.13152e-13 -2.39658e-11 0 0 0 0)
(-2.92735e-12 1.92104e-12 0 8.13152e-14 5.24301e-12 0 0 0 0)
(7.86047e-13 -4.11124e-13 0 -8.13152e-14 -1.23625e-12 0 0 0 0)
(-8.13152e-14 1.09548e-13 0 -8.13152e-14 2.75327e-13 0 0 0 0)
(2.71051e-14 -8.66545e-15 0 -5.42101e-14 -5.72009e-14 0 0 0 0)
(2.71051e-14 -5.77859e-16 0 -5.42101e-14 8.85484e-15 0 0 0 0)
(0 -1.49755e-14 0 -2.71051e-14 -1.54248e-14 0 0 0 0)
(0 -1.45722e-14 0 0 -5.51164e-16 0 0 0 0)
(0 -9.08831e-15 0 2.71051e-14 1.5656e-15 0 0 0 0)
(0 -2.67607e-15 0 5.42101e-14 6.98002e-15 0 0 0 0)
(0 -1.75555e-14 0 2.71051e-14 5.13425e-15 0 0 0 0)
(0 -2.76588e-14 0 5.42101e-14 -4.26095e-15 0 0 0 0)
(0 -1.01274e-14 0 5.42101e-14 -1.15002e-14 0 0 0 0)
(0 1.29838e-14 0 -2.71051e-14 -8.48895e-15 0 0 0 0)
(0 2.67042e-14 0 0 3.70698e-15 0 0 0 0)
(0 2.32998e-14 0 -5.42101e-14 1.46432e-14 0 0 0 0)
(-2.71051e-14 -4.29341e-15 0 -2.71051e-14 1.09535e-14 0 0 0 0)
(0 -1.8954e-14 0 0 -3.2312e-15 0 0 0 0)
(0 -3.55038e-15 0 0 -3.49563e-15 0 0 0 0)
(-2.71051e-14 1.13928e-14 0 -2.71051e-14 4.28807e-15 0 0 0 0)
(-2.03288e-12 -8.77887e-12 0 -2.95445e-12 1.84416e-11 0 0 0 0)
(2.57498e-12 1.06897e-11 0 8.40257e-13 -4.07262e-12 0 0 0 0)
(-6.23416e-13 -2.33829e-12 0 -8.13152e-14 9.46068e-13 0 0 0 0)
(8.13152e-14 5.53451e-13 0 2.71051e-14 -2.07246e-13 0 0 0 0)
(-5.42101e-14 -1.31839e-13 0 0 3.61632e-14 0 0 0 0)
(5.42101e-14 1.32304e-14 0 0 -3.9645e-14 0 0 0 0)
(2.71051e-14 -1.20293e-14 0 -2.71051e-14 -2.98556e-14 0 0 0 0)
(2.71051e-14 1.61863e-16 0 -2.71051e-14 -2.45916e-14 0 0 0 0)
(0 -2.93733e-16 0 0 -9.93444e-16 0 0 0 0)
(0 4.07209e-15 0 0 5.3761e-15 0 0 0 0)
(0 -7.90839e-15 0 0 3.48005e-15 0 0 0 0)
(-2.71051e-14 -1.68011e-14 0 0 1.61378e-14 0 0 0 0)
(0 -4.73436e-15 0 0 2.55869e-14 0 0 0 0)
(-2.71051e-14 1.36461e-14 0 0 2.76149e-14 0 0 0 0)
(-5.42101e-14 2.3677e-14 0 -5.42101e-14 1.67157e-14 0 0 0 0)
(0 1.56943e-14 0 -5.42101e-14 -2.02969e-15 0 0 0 0)
(5.42101e-14 -1.36051e-14 0 0 -1.65313e-14 0 0 0 0)
(0 -2.16309e-14 0 2.71051e-14 -2.89049e-15 0 0 0 0)
(2.71051e-14 -5.62724e-16 0 0 4.5869e-15 0 0 0 0)
(-2.71051e-14 1.29699e-14 0 2.71051e-14 3.43337e-15 0 0 0 0)
(1.0842e-13 1.28078e-11 0 4.41812e-12 4.56649e-12 0 0 0 0)
(-5.42101e-14 -1.55745e-11 0 -1.27394e-12 -1.02776e-12 0 0 0 0)
(-2.71051e-14 3.45425e-12 0 2.71051e-14 2.15811e-13 0 0 0 0)
(0 -8.00357e-13 0 -8.13152e-14 -6.47105e-14 0 0 0 0)
(2.71051e-14 1.58936e-13 0 0 1.25863e-14 0 0 0 0)
(-5.42101e-14 -6.65967e-14 0 0 3.63239e-15 0 0 0 0)
(0 7.78723e-17 0 -5.42101e-14 1.82443e-14 0 0 0 0)
(2.71051e-14 1.42899e-14 0 -8.13152e-14 3.22143e-15 0 0 0 0)
(0 2.08794e-14 0 -1.35525e-13 -3.9682e-16 0 0 0 0)
(2.71051e-14 1.79743e-15 0 -1.0842e-13 -6.33523e-15 0 0 0 0)
(0 -6.7938e-15 0 -1.0842e-13 -7.57157e-15 0 0 0 0)
(0 -5.55197e-15 0 -1.0842e-13 4.19534e-15 0 0 0 0)
(-5.42101e-14 1.34966e-15 0 -1.0842e-13 2.27737e-14 0 0 0 0)
(0 4.11253e-15 0 -5.42101e-14 2.10768e-14 0 0 0 0)
(0 -2.94041e-15 0 -8.13152e-14 1.02835e-14 0 0 0 0)
(2.71051e-14 -9.94709e-15 0 5.42101e-14 -1.43514e-14 0 0 0 0)
(2.71051e-14 -5.15421e-15 0 0 -2.42926e-14 0 0 0 0)
(-2.71051e-14 2.1642e-15 0 -2.71051e-14 -1.03376e-14 0 0 0 0)
(0 2.77348e-15 0 0 7.83157e-15 0 0 0 0)
(-2.71051e-14 3.37256e-15 0 0 6.26353e-15 0 0 0 0)
(1.0842e-12 -5.24014e-12 0 -1.97867e-12 -2.3453e-11 0 0 0 0)
(-1.78893e-12 6.33898e-12 0 4.87891e-13 5.16669e-12 0 0 0 0)
(5.69206e-13 -1.37524e-12 0 -8.13152e-14 -1.24338e-12 0 0 0 0)
(5.42101e-14 3.50227e-13 0 -2.71051e-14 2.42257e-13 0 0 0 0)
(0 -6.34962e-14 0 -8.13152e-14 -8.58418e-14 0 0 0 0)
(2.71051e-14 1.88884e-14 0 -5.42101e-14 1.55791e-14 0 0 0 0)
(-2.71051e-14 -1.24403e-14 0 0 1.35767e-14 0 0 0 0)
(-5.42101e-14 -1.84792e-14 0 0 1.75983e-14 0 0 0 0)
(0 -9.8504e-15 0 2.71051e-14 -5.92401e-15 0 0 0 0)
(0 -3.10265e-15 0 0 -1.40685e-14 0 0 0 0)
(0 2.62218e-15 0 0 -6.80829e-15 0 0 0 0)
(5.42101e-14 1.35442e-14 0 -2.71051e-14 1.15972e-14 0 0 0 0)
(0 1.21471e-14 0 0 1.13272e-14 0 0 0 0)
(0 1.15581e-15 0 -2.71051e-14 -2.17241e-15 0 0 0 0)
(0 -1.17512e-14 0 0 -1.19026e-14 0 0 0 0)
(2.71051e-14 -1.88818e-14 0 -8.13152e-14 -2.01384e-14 0 0 0 0)
(0 -9.59128e-15 0 -5.42101e-14 -1.62508e-14 0 0 0 0)
(5.42101e-14 1.04933e-14 0 -5.42101e-14 -1.28462e-14 0 0 0 0)
(0 1.60384e-14 0 0 -5.87853e-15 0 0 0 0)
(0 -1.1252e-15 0 -2.71051e-14 -6.70935e-15 0 0 0 0)
(-1.38236e-12 -5.47848e-12 0 -1.70762e-12 2.21531e-11 0 0 0 0)
(1.87025e-12 6.63512e-12 0 4.87891e-13 -4.89678e-12 0 0 0 0)
(-6.23416e-13 -1.47018e-12 0 -5.42101e-14 1.14335e-12 0 0 0 0)
(0 3.57179e-13 0 0 -2.71651e-13 0 0 0 0)
(5.42101e-14 -6.77418e-14 0 0 2.87573e-14 0 0 0 0)
(0 3.28218e-14 0 -2.71051e-14 -3.92457e-14 0 0 0 0)
(8.13152e-14 2.0971e-15 0 0 -3.22937e-14 0 0 0 0)
(5.42101e-14 -5.21079e-15 0 5.42101e-14 -1.76504e-14 0 0 0 0)
(0 -1.07874e-14 0 5.42101e-14 8.67431e-15 0 0 0 0)
(-2.71051e-14 9.13149e-16 0 5.42101e-14 2.36834e-14 0 0 0 0)
(0 1.88719e-14 0 0 2.88394e-14 0 0 0 0)
(-8.13152e-14 1.25835e-14 0 2.71051e-14 2.74618e-14 0 0 0 0)
(0 -1.242e-14 0 0 5.52301e-15 0 0 0 0)
(-2.71051e-14 -1.91172e-14 0 8.13152e-14 -6.15992e-15 0 0 0 0)
(0 -2.09064e-14 0 8.13152e-14 -2.20701e-14 0 0 0 0)
(2.71051e-14 -1.42953e-14 0 2.71051e-14 -2.83926e-14 0 0 0 0)
(5.42101e-14 2.13795e-15 0 8.13152e-14 -1.00374e-14 0 0 0 0)
(-5.42101e-14 1.25365e-14 0 5.42101e-14 9.10177e-15 0 0 0 0)
(0 8.91033e-15 0 0 -1.00889e-14 0 0 0 0)
(5.42101e-14 1.59604e-14 0 0 -1.7531e-14 0 0 0 0)
(-8.13152e-14 1.20162e-11 0 2.54788e-12 -7.77502e-12 0 0 0 0)
(-1.35525e-13 -1.46708e-11 0 -6.77626e-13 1.66194e-12 0 0 0 0)
(8.13152e-14 3.24989e-12 0 1.0842e-13 -3.7686e-13 0 0 0 0)
(5.42101e-14 -7.64361e-13 0 8.13152e-14 8.03227e-14 0 0 0 0)
(-5.42101e-14 1.68909e-13 0 8.13152e-14 -1.48516e-14 0 0 0 0)
(5.42101e-14 -4.21626e-14 0 2.71051e-14 -8.55253e-15 0 0 0 0)
(0 9.15499e-15 0 0 -1.21023e-14 0 0 0 0)
(2.71051e-14 2.24888e-14 0 -8.13152e-14 -1.0088e-14 0 0 0 0)
(0 3.14834e-14 0 -8.13152e-14 -7.35063e-15 0 0 0 0)
(-2.71051e-14 1.70624e-14 0 -5.42101e-14 -1.74276e-15 0 0 0 0)
(0 6.40065e-15 0 -2.71051e-14 -9.5892e-15 0 0 0 0)
(2.71051e-14 -9.77216e-15 0 5.42101e-14 -2.88571e-14 0 0 0 0)
(8.13152e-14 -2.14747e-14 0 5.42101e-14 -2.40232e-14 0 0 0 0)
(2.71051e-14 -2.64373e-14 0 5.42101e-14 -1.34521e-14 0 0 0 0)
(0 -3.39839e-14 0 2.71051e-14 -9.44688e-15 0 0 0 0)
(0 -6.84913e-15 0 5.42101e-14 3.91701e-15 0 0 0 0)
(0 2.79031e-14 0 -2.71051e-14 1.06657e-14 0 0 0 0)
(-2.71051e-14 1.04418e-14 0 0 9.15706e-15 0 0 0 0)
(0 -1.05943e-14 0 0 -4.59511e-15 0 0 0 0)
(-2.71051e-14 2.64947e-14 0 2.71051e-14 -3.62718e-15 0 0 0 0)
(4.60786e-13 -1.15916e-11 0 4.06576e-13 -7.4447e-12 0 0 0 0)
(-5.96311e-13 1.40333e-11 0 2.71051e-13 1.68635e-12 0 0 0 0)
(1.89735e-13 -3.0518e-12 0 2.71051e-13 -3.80903e-13 0 0 0 0)
(2.71051e-14 7.19188e-13 0 8.13152e-14 9.76812e-14 0 0 0 0)
(-2.71051e-14 -1.56617e-13 0 8.13152e-14 3.29963e-15 0 0 0 0)
(-2.71051e-14 3.55711e-14 0 1.0842e-13 3.34397e-14 0 0 0 0)
(-2.71051e-14 5.61592e-16 0 1.0842e-13 4.10579e-14 0 0 0 0)
(-5.42101e-14 -4.59091e-16 0 8.13152e-14 2.98284e-14 0 0 0 0)
(0 -2.44214e-15 0 8.13152e-14 -1.12392e-14 0 0 0 0)
(5.42101e-14 -1.32542e-15 0 8.13152e-14 -3.28976e-14 0 0 0 0)
(0 -8.24237e-15 0 1.35525e-13 -3.42565e-14 0 0 0 0)
(5.42101e-14 -1.85049e-15 0 2.71051e-14 -2.7587e-14 0 0 0 0)
(0 2.985e-15 0 2.71051e-14 -9.02703e-15 0 0 0 0)
(0 -4.5409e-15 0 0 -1.89447e-15 0 0 0 0)
(-5.42101e-14 -3.53727e-15 0 2.71051e-14 1.9382e-14 0 0 0 0)
(0 5.81725e-15 0 0 3.72443e-14 0 0 0 0)
(0 7.378e-15 0 0 1.25995e-14 0 0 0 0)
(0 -2.72434e-15 0 0 -8.28601e-15 0 0 0 0)
(2.71051e-14 -3.87392e-15 0 2.71051e-14 1.05764e-14 0 0 0 0)
(-2.71051e-14 2.41827e-14 0 0 1.24223e-14 0 0 0 0)
(5.69206e-13 6.25783e-12 0 -8.67362e-13 1.57523e-11 0 0 0 0)
(-2.43945e-13 -7.60698e-12 0 -5.42101e-14 -3.36589e-12 0 0 0 0)
(-5.42101e-14 1.66123e-12 0 -1.6263e-13 7.95412e-13 0 0 0 0)
(-1.6263e-13 -3.80159e-13 0 -2.71051e-14 -1.55358e-13 0 0 0 0)
(0 1.04667e-13 0 -8.13152e-14 5.91555e-14 0 0 0 0)
(-2.71051e-14 -4.40431e-15 0 -5.42101e-14 2.35938e-14 0 0 0 0)
(-2.71051e-14 5.54368e-15 0 -1.0842e-13 1.59037e-14 0 0 0 0)
(0 -2.98084e-14 0 0 1.40783e-16 0 0 0 0)
(0 -3.12426e-14 0 0 1.53468e-15 0 0 0 0)
(2.71051e-14 -5.95481e-15 0 -2.71051e-14 -5.03823e-15 0 0 0 0)
(-2.71051e-14 1.17112e-14 0 -5.42101e-14 5.34653e-15 0 0 0 0)
(-2.71051e-14 1.54573e-14 0 -8.13152e-14 6.17263e-15 0 0 0 0)
(2.71051e-14 4.21792e-15 0 -8.13152e-14 3.7222e-15 0 0 0 0)
(0 1.97178e-15 0 -1.0842e-13 3.09719e-15 0 0 0 0)
(0 5.15492e-15 0 -1.0842e-13 9.92192e-15 0 0 0 0)
(-2.71051e-14 -1.36316e-14 0 -5.42101e-14 6.24092e-15 0 0 0 0)
(0 -1.76273e-14 0 2.71051e-14 3.48085e-15 0 0 0 0)
(2.71051e-14 8.41866e-15 0 -5.42101e-14 -1.25222e-15 0 0 0 0)
(-2.71051e-14 1.0114e-14 0 0 1.38016e-14 0 0 0 0)
(-2.71051e-14 3.49601e-15 0 0 7.21971e-15 0 0 0 0)
(-4.33681e-13 7.94895e-13 0 -9.48677e-13 -1.70797e-11 0 0 0 0)
(8.13152e-14 -9.23643e-13 0 8.13152e-14 3.7408e-12 0 0 0 0)
(1.6263e-13 1.58732e-13 0 -2.1684e-13 -8.76016e-13 0 0 0 0)
(1.0842e-13 -1.70689e-14 0 -1.0842e-13 1.96304e-13 0 0 0 0)
(-5.42101e-14 2.23344e-14 0 -1.35525e-13 -4.61583e-14 0 0 0 0)
(0 -7.68071e-15 0 -5.42101e-14 -5.7893e-16 0 0 0 0)
(5.42101e-14 -2.28914e-14 0 0 -3.11239e-14 0 0 0 0)
(2.71051e-14 -1.48281e-14 0 0 -2.08903e-14 0 0 0 0)
(-2.71051e-14 -7.62115e-15 0 2.71051e-14 1.27631e-14 0 0 0 0)
(0 2.48642e-15 0 0 2.12106e-14 0 0 0 0)
(-5.42101e-14 2.96849e-15 0 -5.42101e-14 1.80835e-14 0 0 0 0)
(0 -3.47481e-15 0 0 5.233e-15 0 0 0 0)
(0 -9.04431e-17 0 0 -2.27679e-15 0 0 0 0)
(0 1.65882e-15 0 0 -1.14e-14 0 0 0 0)
(5.42101e-14 -3.93542e-16 0 0 -2.36175e-14 0 0 0 0)
(2.71051e-14 -6.23817e-16 0 5.42101e-14 -2.46698e-14 0 0 0 0)
(0 -1.15142e-16 0 -2.71051e-14 -1.37061e-15 0 0 0 0)
(0 7.59637e-15 0 0 -2.46704e-15 0 0 0 0)
(5.42101e-14 4.59801e-15 0 -2.71051e-14 -1.42802e-14 0 0 0 0)
(0 3.16146e-15 0 0 -5.20828e-15 0 0 0 0)
(-2.98156e-13 -7.08103e-12 0 -4.33681e-13 1.39151e-11 0 0 0 0)
(4.87891e-13 8.59667e-12 0 2.43945e-13 -3.11144e-12 0 0 0 0)
(-2.43945e-13 -1.88327e-12 0 5.42101e-14 7.32695e-13 0 0 0 0)
(-2.71051e-14 4.49699e-13 0 -2.71051e-14 -1.85672e-13 0 0 0 0)
(8.13152e-14 -9.22161e-14 0 0 -4.58585e-15 0 0 0 0)
(5.42101e-14 1.06301e-14 0 5.42101e-14 -5.11619e-14 0 0 0 0)
(0 -1.47677e-14 0 0 -1.66838e-14 0 0 0 0)
(0 1.40787e-14 0 -5.42101e-14 -1.24943e-15 0 0 0 0)
(0 1.08584e-14 0 -2.71051e-14 1.23299e-14 0 0 0 0)
(0 -6.34375e-16 0 0 1.50788e-14 0 0 0 0)
(0 -4.26641e-15 0 5.42101e-14 -2.43512e-15 0 0 0 0)
(0 -4.90304e-15 0 0 -4.22085e-15 0 0 0 0)
(0 -1.24151e-14 0 8.13152e-14 -6.74041e-15 0 0 0 0)
(0 -1.93689e-14 0 1.0842e-13 -2.7122e-16 0 0 0 0)
(0 -8.11485e-15 0 1.0842e-13 3.64408e-15 0 0 0 0)
(-2.71051e-14 8.61524e-15 0 5.42101e-14 9.42266e-15 0 0 0 0)
(-2.71051e-14 4.57544e-15 0 2.71051e-14 8.50052e-15 0 0 0 0)
(0 -4.49098e-15 0 5.42101e-14 2.02502e-15 0 0 0 0)
(2.71051e-14 7.37279e-15 0 0 -1.07232e-14 0 0 0 0)
(-2.71051e-14 2.29845e-14 0 0 3.20524e-15 0 0 0 0)
(-6.23416e-13 1.15985e-11 0 2.60209e-12 -1.63258e-12 0 0 0 0)
(5.42101e-13 -1.4106e-11 0 -7.58942e-13 3.46188e-13 0 0 0 0)
(-1.0842e-13 3.0845e-12 0 8.13152e-14 -1.06886e-13 0 0 0 0)
(5.42101e-14 -7.5435e-13 0 2.71051e-14 1.39849e-15 0 0 0 0)
(0 1.56845e-13 0 8.13152e-14 -2.75807e-14 0 0 0 0)
(5.42101e-14 -1.97786e-14 0 0 -2.09148e-14 0 0 0 0)
(0 2.70211e-14 0 0 -1.48411e-15 0 0 0 0)
(0 1.41855e-14 0 5.42101e-14 -2.30046e-15 0 0 0 0)
(0 8.70705e-15 0 -5.42101e-14 -1.21709e-14 0 0 0 0)
(0 -1.22786e-14 0 -5.42101e-14 -1.38939e-14 0 0 0 0)
(0 -1.63311e-14 0 -5.42101e-14 -1.91424e-14 0 0 0 0)
(0 -7.7801e-15 0 -2.71051e-14 -1.34272e-14 0 0 0 0)
(8.13152e-14 3.85918e-15 0 -2.71051e-14 -1.69437e-14 0 0 0 0)
(5.42101e-14 1.20433e-14 0 -1.0842e-13 -6.05233e-15 0 0 0 0)
(0 9.30034e-15 0 -5.42101e-14 2.95456e-15 0 0 0 0)
(0 4.23262e-15 0 -5.42101e-14 1.61892e-14 0 0 0 0)
(0 -7.51278e-15 0 -2.71051e-14 1.35765e-14 0 0 0 0)
(-2.71051e-14 -1.16274e-14 0 0 1.34548e-14 0 0 0 0)
(-2.71051e-14 5.77823e-15 0 0 1.39497e-14 0 0 0 0)
(0 1.06795e-14 0 -2.71051e-14 1.17143e-14 0 0 0 0)
(1.54499e-12 -8.36742e-12 0 -1.97867e-12 -1.6599e-11 0 0 0 0)
(-1.97867e-12 1.01224e-11 0 7.04731e-13 3.63942e-12 0 0 0 0)
(5.14996e-13 -2.22806e-12 0 1.0842e-13 -8.63795e-13 0 0 0 0)
(-2.71051e-14 5.29004e-13 0 1.0842e-13 1.95609e-13 0 0 0 0)
(0 -1.14529e-13 0 1.0842e-13 -3.35061e-14 0 0 0 0)
(0 3.67267e-14 0 2.71051e-14 8.48637e-15 0 0 0 0)
(0 3.84657e-15 0 8.13152e-14 -1.11129e-14 0 0 0 0)
(-2.71051e-14 3.39183e-15 0 5.42101e-14 7.47375e-15 0 0 0 0)
(-2.71051e-14 -7.35108e-16 0 8.13152e-14 1.3596e-14 0 0 0 0)
(0 -7.6058e-15 0 5.42101e-14 1.03985e-14 0 0 0 0)
(0 -3.79963e-15 0 5.42101e-14 1.46408e-14 0 0 0 0)
(0 -2.7044e-15 0 8.13152e-14 1.59304e-14 0 0 0 0)
(-5.42101e-14 -5.04023e-15 0 0 1.51795e-14 0 0 0 0)
(-2.71051e-14 5.2937e-16 0 0 -3.23513e-15 0 0 0 0)
(0 1.41267e-14 0 -5.42101e-14 -1.80032e-14 0 0 0 0)
(2.71051e-14 1.92371e-14 0 -8.13152e-14 -2.95559e-14 0 0 0 0)
(5.42101e-14 1.84101e-15 0 0 -3.06553e-14 0 0 0 0)
(0 -4.11773e-15 0 0 -2.46881e-15 0 0 0 0)
(2.71051e-14 5.63237e-15 0 0 1.54698e-14 0 0 0 0)
(-2.71051e-14 -2.6795e-15 0 0 5.24115e-15 0 0 0 0)
(-1.87025e-12 -1.36104e-12 0 -2.43945e-12 2.31013e-11 0 0 0 0)
(2.60209e-12 1.62918e-12 0 5.69206e-13 -5.05008e-12 0 0 0 0)
(-7.31836e-13 -3.59315e-13 0 -1.35525e-13 1.2119e-12 0 0 0 0)
(5.42101e-14 7.59396e-14 0 0 -2.61089e-13 0 0 0 0)
(-5.42101e-14 -3.02782e-14 0 -5.42101e-14 5.76823e-14 0 0 0 0)
(0 2.61455e-15 0 0 -1.7134e-14 0 0 0 0)
(5.42101e-14 2.60084e-14 0 -2.71051e-14 -1.05849e-14 0 0 0 0)
(-2.71051e-14 3.88943e-14 0 -1.0842e-13 2.73852e-15 0 0 0 0)
(-2.71051e-14 1.16318e-14 0 -2.71051e-14 1.30614e-14 0 0 0 0)
(0 -1.12338e-14 0 0 1.4948e-14 0 0 0 0)
(0 -1.07993e-14 0 0 7.93604e-15 0 0 0 0)
(0 -7.24135e-15 0 2.71051e-14 -9.09422e-15 0 0 0 0)
(0 -1.53063e-14 0 5.42101e-14 -1.11496e-15 0 0 0 0)
(0 -2.11394e-14 0 1.0842e-13 1.417e-14 0 0 0 0)
(-5.42101e-14 -1.70204e-14 0 1.0842e-13 3.13749e-14 0 0 0 0)
(0 -8.41955e-15 0 8.13152e-14 1.20436e-14 0 0 0 0)
(5.42101e-14 1.95743e-14 0 0 -1.36617e-14 0 0 0 0)
(0 3.44977e-14 0 -5.42101e-14 -3.84335e-15 0 0 0 0)
(0 1.34882e-14 0 0 -1.73294e-15 0 0 0 0)
(0 -1.00315e-14 0 0 -4.9149e-15 0 0 0 0)
(-3.52366e-13 9.68384e-12 0 6.20706e-12 -3.95333e-12 0 0 0 0)
(2.98156e-13 -1.17671e-11 0 -1.57209e-12 8.17006e-13 0 0 0 0)
(5.42101e-14 2.56093e-12 0 2.43945e-13 -2.12328e-13 0 0 0 0)
(5.42101e-14 -6.25216e-13 0 -2.71051e-14 3.45778e-14 0 0 0 0)
(-2.71051e-14 1.29426e-13 0 2.71051e-14 1.26161e-15 0 0 0 0)
(-2.71051e-14 -3.15405e-14 0 2.71051e-14 3.04168e-14 0 0 0 0)
(-8.13152e-14 2.37191e-14 0 -5.42101e-14 2.93281e-14 0 0 0 0)
(0 2.70381e-14 0 -2.71051e-14 -6.49508e-15 0 0 0 0)
(8.13152e-14 1.14744e-14 0 -5.42101e-14 -3.82102e-14 0 0 0 0)
(2.71051e-14 -1.27312e-14 0 0 -3.53697e-14 0 0 0 0)
(0 -2.78419e-14 0 0 -2.57336e-14 0 0 0 0)
(5.42101e-14 -1.17554e-14 0 0 -2.23117e-14 0 0 0 0)
(5.42101e-14 1.8224e-14 0 -2.71051e-14 -6.94609e-15 0 0 0 0)
(-2.71051e-14 3.30193e-14 0 -2.71051e-14 1.80148e-14 0 0 0 0)
(-2.71051e-14 1.20002e-14 0 -1.0842e-13 3.27827e-14 0 0 0 0)
(-8.13152e-14 -2.57995e-14 0 0 3.99499e-14 0 0 0 0)
(-8.13152e-14 -1.40459e-14 0 0 3.27743e-14 0 0 0 0)
(0 7.81105e-15 0 0 2.42489e-15 0 0 0 0)
(8.13152e-14 4.56081e-15 0 0 -1.93964e-14 0 0 0 0)
(0 3.96833e-15 0 0 -1.00649e-14 0 0 0 0)
(2.73761e-12 -4.49736e-12 0 -1.02999e-12 -1.97152e-11 0 0 0 0)
(-3.36103e-12 5.37018e-12 0 3.79471e-13 4.28942e-12 0 0 0 0)
(8.13152e-13 -1.14174e-12 0 5.42101e-14 -1.01657e-12 0 0 0 0)
(-1.89735e-13 2.89529e-13 0 2.71051e-14 2.35186e-13 0 0 0 0)
(2.71051e-14 -3.44392e-14 0 5.42101e-14 -3.10168e-14 0 0 0 0)
(-2.71051e-14 3.0681e-14 0 0 3.70454e-14 0 0 0 0)
(-5.42101e-14 -1.09034e-14 0 1.0842e-13 3.51657e-14 0 0 0 0)
(-2.71051e-14 -2.8644e-14 0 1.35525e-13 1.40405e-14 0 0 0 0)
(2.71051e-14 -1.72428e-14 0 8.13152e-14 -1.17372e-14 0 0 0 0)
(5.42101e-14 1.24292e-15 0 5.42101e-14 -2.02925e-14 0 0 0 0)
(0 2.25875e-15 0 2.71051e-14 -3.26287e-15 0 0 0 0)
(-5.42101e-14 1.15461e-14 0 -2.71051e-14 1.49933e-14 0 0 0 0)
(0 2.50201e-14 0 -2.71051e-14 1.70916e-14 0 0 0 0)
(-8.13152e-14 1.85894e-14 0 -8.13152e-14 5.05561e-15 0 0 0 0)
(5.42101e-14 4.91474e-15 0 0 -2.45364e-14 0 0 0 0)
(8.13152e-14 -8.42795e-15 0 0 -2.36428e-14 0 0 0 0)
(0 -1.79507e-14 0 2.71051e-14 4.4788e-15 0 0 0 0)
(0 -1.7673e-14 0 5.42101e-14 2.77547e-15 0 0 0 0)
(0 9.98375e-16 0 2.71051e-14 -2.03771e-15 0 0 0 0)
(0 1.94299e-14 0 2.71051e-14 -2.68859e-15 0 0 0 0)
(-9.21572e-13 -5.74194e-12 0 -2.1684e-12 1.29929e-11 0 0 0 0)
(1.40946e-12 6.93155e-12 0 4.06576e-13 -2.75364e-12 0 0 0 0)
(-3.79471e-13 -1.49331e-12 0 -2.1684e-13 6.91217e-13 0 0 0 0)
(2.71051e-14 3.60334e-13 0 -5.42101e-14 -1.18595e-13 0 0 0 0)
(-2.71051e-14 -6.87143e-14 0 -8.13152e-14 4.13535e-14 0 0 0 0)
(0 3.4642e-14 0 -5.42101e-14 -1.54418e-14 0 0 0 0)
(2.71051e-14 7.14224e-16 0 -5.42101e-14 -2.39695e-14 0 0 0 0)
(0 -1.98649e-14 0 -5.42101e-14 -5.25255e-15 0 0 0 0)
(-2.71051e-14 -2.28587e-14 0 -2.71051e-14 2.45393e-14 0 0 0 0)
(-5.42101e-14 -4.2568e-15 0 -5.42101e-14 3.48489e-14 0 0 0 0)
(0 7.44397e-15 0 -2.71051e-14 2.75532e-14 0 0 0 0)
(-2.71051e-14 8.5991e-15 0 0 2.51462e-14 0 0 0 0)
(0 8.2863e-15 0 0 7.40794e-15 0 0 0 0)
(2.71051e-14 -8.60879e-15 0 5.42101e-14 -8.16018e-15 0 0 0 0)
(0 -1.66981e-14 0 5.42101e-14 -2.57264e-15 0 0 0 0)
(-2.71051e-14 3.21571e-15 0 0 3.6232e-15 0 0 0 0)
(-2.71051e-14 1.23723e-14 0 -2.71051e-14 2.6396e-15 0 0 0 0)
(2.71051e-14 1.29453e-15 0 0 9.20162e-15 0 0 0 0)
(0 -9.03238e-16 0 -2.71051e-14 1.9018e-14 0 0 0 0)
(-2.71051e-14 8.69463e-15 0 -2.71051e-14 9.10649e-15 0 0 0 0)
)
;

boundaryField
{
    movingWall
    {
        type            extrapolatedCalculated;
        value           nonuniform List<tensor> 
20
(
(-9.21572e-13 -5.74194e-12 0 5.50671e-12 2.9248e-11 0 0 0 0)
(1.40946e-12 6.93155e-12 0 -1.77636e-12 -6.28023e-12 0 0 0 0)
(-3.79471e-13 -1.49331e-12 0 -1.77636e-13 1.52178e-12 0 0 0 0)
(2.71051e-14 3.60334e-13 0 -2.66454e-13 -3.07014e-13 0 0 0 0)
(-2.71051e-14 -6.87143e-14 0 -2.66454e-13 8.04454e-14 0 0 0 0)
(0 3.4642e-14 0 -2.22045e-13 -3.21563e-14 0 0 0 0)
(2.71051e-14 7.14224e-16 0 -2.66454e-13 -5.81226e-14 0 0 0 0)
(0 -1.98649e-14 0 -3.10862e-13 -3.50132e-14 0 0 0 0)
(-2.71051e-14 -2.28587e-14 0 -2.66454e-13 2.13368e-14 0 0 0 0)
(-5.42101e-14 -4.2568e-15 0 -1.77636e-13 5.64216e-14 0 0 0 0)
(0 7.44397e-15 0 -8.88178e-14 3.8364e-14 0 0 0 0)
(-2.71051e-14 8.5991e-15 0 -4.44089e-14 2.66457e-14 0 0 0 0)
(0 8.2863e-15 0 -8.88178e-14 3.96763e-15 0 0 0 0)
(2.71051e-14 -8.60879e-15 0 -4.44089e-14 -6.49949e-15 0 0 0 0)
(0 -1.66981e-14 0 -8.88178e-14 3.84028e-14 0 0 0 0)
(-2.71051e-14 3.21571e-15 0 -8.88178e-14 6.0293e-14 0 0 0 0)
(-2.71051e-14 1.23723e-14 0 -4.44089e-14 2.554e-14 0 0 0 0)
(2.71051e-14 1.29453e-15 0 0 1.08037e-14 0 0 0 0)
(0 -9.03238e-16 0 -4.44089e-14 2.03618e-14 0 0 0 0)
(-2.71051e-14 8.69463e-15 0 -4.44089e-14 1.44167e-14 0 0 0 0)
)
;
    }
    fixedWalls
    {
        type            extrapolatedCalculated;
        value           nonuniform List<tensor> 
60
(
(-5.50671e-12 6.78366e-11 0 1.89735e-12 1.69358e-11 0 0 0 0)
(1.30562e-11 -9.32456e-14 0 8.13152e-14 -3.13883e-11 0 0 0 0)
(-5.15143e-12 -5.77167e-11 0 -5.17707e-12 1.27283e-11 0 0 0 0)
(-7.54952e-12 5.082e-11 0 4.33681e-12 1.24195e-11 0 0 0 0)
(1.20792e-11 -8.0385e-12 0 -8.13152e-13 -2.39658e-11 0 0 0 0)
(-1.0747e-11 -4.50432e-11 0 -2.95445e-12 1.84416e-11 0 0 0 0)
(2.22045e-13 6.57277e-11 0 4.41812e-12 4.56649e-12 0 0 0 0)
(6.92779e-12 -2.67772e-11 0 -1.97867e-12 -2.3453e-11 0 0 0 0)
(-7.72715e-12 -2.80841e-11 0 -1.70762e-12 2.21531e-11 0 0 0 0)
(1.77636e-13 6.18352e-11 0 2.54788e-12 -7.77502e-12 0 0 0 0)
(2.39808e-12 -5.91842e-11 0 4.06576e-13 -7.4447e-12 0 0 0 0)
(1.73195e-12 3.20564e-11 0 -8.67362e-13 1.57523e-11 0 0 0 0)
(-9.76996e-13 3.8252e-12 0 -9.48677e-13 -1.70797e-11 0 0 0 0)
(-2.04281e-12 -3.62623e-11 0 -4.33681e-13 1.39151e-11 0 0 0 0)
(-2.66454e-12 5.94854e-11 0 2.60209e-12 -1.63258e-12 0 0 0 0)
(8.30447e-12 -4.27926e-11 0 -1.97867e-12 -1.6599e-11 0 0 0 0)
(-1.05693e-11 -6.91049e-12 0 -2.43945e-12 2.31013e-11 0 0 0 0)
(-1.42109e-12 4.96128e-11 0 6.20706e-12 -3.95333e-12 0 0 0 0)
(1.42109e-11 -2.27238e-11 0 -1.02999e-12 -1.97152e-11 0 0 0 0)
(-5.50671e-12 -2.9248e-11 0 -2.1684e-12 1.29929e-11 0 0 0 0)
(0 -1.56023e-14 0 0 8.64544e-16 0 0 0 0)
(8.88178e-14 1.21441e-14 0 0 -1.64755e-14 0 0 0 0)
(0 5.02997e-14 0 2.71051e-14 -4.91367e-15 0 0 0 0)
(-8.88178e-14 3.17988e-14 0 0 8.37462e-15 0 0 0 0)
(0 1.68013e-14 0 -2.71051e-14 4.28807e-15 0 0 0 0)
(-4.44089e-14 1.46465e-14 0 2.71051e-14 3.43337e-15 0 0 0 0)
(-4.44089e-14 3.0678e-15 0 0 6.26353e-15 0 0 0 0)
(0 -1.04076e-14 0 -2.71051e-14 -6.70935e-15 0 0 0 0)
(8.88178e-14 2.99052e-14 0 0 -1.7531e-14 0 0 0 0)
(-4.44089e-14 5.97162e-14 0 2.71051e-14 -3.62718e-15 0 0 0 0)
(-8.88178e-14 4.44139e-14 0 0 1.24223e-14 0 0 0 0)
(-4.44089e-14 1.0027e-14 0 0 7.21971e-15 0 0 0 0)
(0 1.55351e-14 0 0 -5.20828e-15 0 0 0 0)
(-4.44089e-14 3.08601e-14 0 0 3.20524e-15 0 0 0 0)
(0 2.71414e-15 0 -2.71051e-14 1.17143e-14 0 0 0 0)
(-4.44089e-14 -1.59972e-14 0 0 5.24115e-15 0 0 0 0)
(0 -1.82505e-14 0 0 -4.9149e-15 0 0 0 0)
(0 3.66236e-15 0 0 -1.00649e-14 0 0 0 0)
(0 2.20092e-14 0 2.71051e-14 -2.68859e-15 0 0 0 0)
(-4.44089e-14 1.44167e-14 0 -2.71051e-14 9.10649e-15 0 0 0 0)
(-7.86047e-13 1.33067e-11 0 -5.50671e-12 6.78366e-11 0 0 0 0)
(1.40946e-12 -1.60713e-11 0 2.26485e-12 -1.46097e-11 0 0 0 0)
(-4.60786e-13 3.47794e-12 0 2.22045e-13 3.55131e-12 0 0 0 0)
(0 -8.30328e-13 0 3.55271e-13 -6.97917e-13 0 0 0 0)
(-5.42101e-14 1.73148e-13 0 2.66454e-13 2.29992e-13 0 0 0 0)
(-2.71051e-14 -5.03576e-14 0 1.77636e-13 -5.32362e-15 0 0 0 0)
(0 9.26846e-15 0 2.22045e-13 2.85613e-14 0 0 0 0)
(-2.71051e-14 3.13622e-15 0 1.33227e-13 3.17502e-14 0 0 0 0)
(-2.71051e-14 8.37412e-15 0 8.88178e-14 4.11062e-14 0 0 0 0)
(-2.71051e-14 7.21135e-15 0 0 6.52467e-14 0 0 0 0)
(-5.42101e-14 -5.56113e-15 0 -8.88178e-14 6.99516e-14 0 0 0 0)
(0 -2.40938e-14 0 -8.88178e-14 4.30022e-14 0 0 0 0)
(5.42101e-14 -2.16068e-14 0 -8.88178e-14 -2.64238e-14 0 0 0 0)
(2.71051e-14 4.73609e-15 0 0 -4.3425e-14 0 0 0 0)
(-2.71051e-14 9.30685e-15 0 4.44089e-14 -7.47941e-15 0 0 0 0)
(0 -1.53599e-15 0 -8.88178e-14 -6.19758e-15 0 0 0 0)
(0 3.52963e-15 0 4.44089e-14 -1.36234e-14 0 0 0 0)
(0 3.48809e-15 0 -8.88178e-14 7.92095e-15 0 0 0 0)
(0 1.92033e-15 0 4.44089e-14 3.28972e-16 0 0 0 0)
(0 -3.98281e-15 0 0 1.56023e-14 0 0 0 0)
)
;
    }
    frontAndBack
    {
        type            empty;
    }
}


// ************************************************************************* //
