/*--------------------------------*- C++ -*----------------------------------*\
| =========                 |                                                 |
| \\      /  F ield         | OpenFOAM: The Open Source CFD Toolbox           |
|  \\    /   O peration     | Version:  2506                                  |
|   \\  /    A nd           | Website:  www.openfoam.com                      |
|    \\/     M anipulation  |                                                 |
\*---------------------------------------------------------------------------*/
FoamFile
{
    version     2.0;
    format      ascii;
    arch        "LSB;label=32;scalar=64";
    class       volVectorField;
    location    "7.25";
    object      LambVectorField;
}
// * * * * * * * * * * * * * * * * * * * * * * * * * * * * * * * * * * * * * //

dimensions      [0 1 -2 0 0 0 0];

internalField   nonuniform List<vector> 
400
(
(-1.93493e-24 -1.14094e-11 0)
(-5.71153e-25 1.56376e-11 -0)
(-3.03968e-26 -3.42373e-12 0)
(-1.49604e-27 8.57433e-13 -0)
(-8.39719e-29 -1.46043e-13 0)
(-6.70212e-31 5.03576e-14 -0)
(3.20898e-30 4.49416e-14 0)
(4.05402e-30 5.10739e-14 0)
(-8.6057e-31 -8.37412e-15 0)
(-1.17629e-30 -7.21135e-15 0)
(9.72524e-31 5.56113e-15 0)
(2.59022e-30 2.40938e-14 0)
(-1.42733e-30 2.16068e-14 -0)
(-2.42843e-30 2.2369e-14 -0)
(1.74024e-31 -9.30685e-15 -0)
(-2.37986e-32 1.53599e-15 -0)
(-8.02942e-31 2.35754e-14 -0)
(-1.14256e-30 -5.76982e-14 0)
(-1.57934e-33 -1.92033e-15 0)
(1.55352e-31 3.98281e-15 0)
(-1.00839e-29 4.32574e-14 -0)
(-1.96149e-28 -3.19622e-13 0)
(-1.82561e-29 -7.22733e-14 0)
(-3.34689e-29 -1.32696e-13 0)
(-2.68772e-29 -1.19825e-13 0)
(-5.80543e-30 -6.09692e-14 0)
(-2.80661e-30 -1.34645e-13 0)
(-1.08132e-29 -1.25132e-13 0)
(-1.74072e-29 -9.26123e-14 0)
(1.35747e-30 6.80826e-15 0)
(2.63834e-30 2.20091e-14 0)
(-1.22178e-30 5.90102e-14 -0)
(-7.61723e-30 3.82436e-14 -0)
(3.21112e-30 -2.431e-14 -0)
(-1.01028e-30 -2.30006e-14 0)
(-1.45709e-31 -1.48809e-15 0)
(4.43651e-31 7.54448e-15 0)
(1.55953e-30 6.94006e-14 0)
(-3.01536e-30 3.23882e-14 -0)
(3.74829e-31 -1.23461e-14 -0)
(-8.78378e-25 6.08751e-12 -0)
(-3.82998e-25 -1.21026e-11 0)
(-2.17499e-26 2.99026e-12 -0)
(-8.81655e-28 -5.05746e-13 0)
(-1.03649e-28 3.25148e-13 -0)
(1.23954e-29 1.04954e-13 0)
(-5.63671e-31 4.317e-14 -0)
(-2.65093e-30 6.23081e-14 -0)
(-8.61375e-30 9.15995e-14 -0)
(-8.16867e-31 5.61851e-15 -0)
(1.04329e-30 -6.94495e-15 -0)
(3.07983e-30 -4.05566e-14 -0)
(6.5422e-31 -4.16523e-14 -0)
(-6.67356e-31 -9.59764e-15 0)
(-4.53479e-30 -5.64945e-14 0)
(2.39409e-30 2.59165e-14 0)
(8.41183e-31 9.12788e-15 0)
(2.57413e-32 2.34398e-14 0)
(-1.80431e-30 1.26848e-14 -0)
(-3.84639e-32 3.05878e-16 -0)
(-7.12382e-25 -5.6071e-12 0)
(-3.00999e-25 1.09015e-11 -0)
(-1.65871e-26 -2.49387e-12 0)
(-8.59565e-28 6.52702e-13 -0)
(-4.2495e-29 -1.07528e-13 0)
(8.39286e-31 2.85456e-14 0)
(1.21861e-29 1.11044e-13 0)
(2.25067e-31 7.10387e-14 0)
(-2.04494e-30 3.493e-14 -0)
(3.77994e-32 -5.03448e-16 -0)
(-1.27206e-30 2.37725e-14 -0)
(-6.95929e-33 1.66669e-16 -0)
(-2.7939e-32 5.06359e-16 -0)
(-7.30877e-32 1.56108e-15 -0)
(-7.63619e-30 1.07875e-13 -0)
(-7.71857e-31 1.86573e-14 -0)
(-5.84501e-32 -4.26933e-15 0)
(9.50167e-33 7.18171e-15 0)
(1.10574e-30 -1.90231e-14 -0)
(1.09406e-30 -1.37623e-14 -0)
(-1.5032e-26 7.47999e-13 -0)
(-8.25073e-27 -1.83973e-12 0)
(-2.9216e-28 3.29809e-13 -0)
(-7.12901e-29 -1.90863e-13 0)
(-9.54745e-30 -4.55447e-14 0)
(-1.5385e-29 -5.36322e-14 0)
(-2.4726e-30 -1.21295e-14 0)
(1.99793e-30 1.45722e-14 0)
(2.10383e-30 3.61934e-14 0)
(2.62941e-30 5.68862e-14 0)
(1.40085e-30 4.46605e-14 0)
(-1.05883e-29 8.18689e-14 -0)
(-1.57769e-29 6.43375e-14 -0)
(9.24476e-30 -4.00888e-14 -0)
(3.08123e-30 -2.67042e-14 -0)
(-2.82405e-30 -7.75099e-14 0)
(-2.68298e-30 -2.28116e-14 0)
(-1.23189e-31 1.8954e-14 -0)
(-2.55361e-31 3.55038e-15 -0)
(1.61703e-30 -3.84979e-14 -0)
(-6.55876e-25 5.82442e-12 -0)
(-2.44455e-25 -9.84941e-12 0)
(-1.28903e-26 2.25698e-12 -0)
(-7.56013e-28 -5.26346e-13 0)
(-2.33106e-29 1.31839e-13 -0)
(-1.56053e-30 -1.32304e-14 0)
(6.70971e-31 -1.50757e-14 -0)
(6.38976e-32 -2.72669e-14 -0)
(-1.25977e-32 2.93733e-16 -0)
(2.15037e-32 -4.07209e-15 -0)
(-1.7139e-32 7.90839e-15 -0)
(-1.41742e-30 1.68011e-14 -0)
(-8.05684e-31 4.73436e-15 -0)
(1.7973e-30 -1.36461e-14 -0)
(2.62614e-30 -7.78871e-14 -0)
(-7.34428e-30 -6.99044e-14 0)
(1.6765e-30 1.36051e-14 0)
(-1.51027e-30 4.87359e-14 -0)
(-5.23799e-32 5.62724e-16 -0)
(-5.17575e-31 1.41352e-14 -0)
(-1.37858e-24 -8.38966e-12 0)
(-5.18272e-25 1.43005e-11 -0)
(-2.93872e-26 -3.42715e-12 0)
(-1.22161e-27 7.19042e-13 -0)
(-9.07937e-29 -1.58936e-13 0)
(-7.2983e-30 6.65967e-14 -0)
(5.1414e-30 -5.4288e-14 -0)
(1.04029e-29 -9.56051e-14 -0)
(-7.5376e-30 -1.56405e-13 0)
(-1.10199e-29 -1.10218e-13 0)
(-6.72433e-30 -1.01626e-13 0)
(-3.29644e-30 -1.02868e-13 0)
(-1.16878e-30 -1.0977e-13 0)
(-2.65612e-30 -5.83226e-14 0)
(-4.05768e-30 -7.83748e-14 0)
(1.03535e-30 6.41572e-14 0)
(-2.45846e-31 5.15421e-15 -0)
(1.03626e-30 -2.92693e-14 -0)
(7.2266e-32 -2.77348e-15 -0)
(2.58658e-32 -3.37256e-15 -0)
(-2.18333e-25 3.26147e-12 -0)
(-8.50845e-26 -5.85109e-12 0)
(-4.5976e-27 1.29393e-12 -0)
(-2.97804e-28 -3.77332e-13 0)
(9.07837e-31 -1.78189e-14 -0)
(-1.12772e-29 -7.30985e-14 0)
(1.71597e-30 1.24403e-14 0)
(5.51992e-31 1.84792e-14 0)
(-1.7316e-30 3.69555e-14 -0)
(-2.12945e-31 3.10265e-15 -0)
(2.04223e-31 -2.62218e-15 -0)
(1.72399e-30 -4.06493e-14 -0)
(-6.99181e-31 -1.21471e-14 0)
(-2.2343e-30 -2.82609e-14 0)
(8.12217e-31 1.17512e-14 0)
(2.40073e-30 -6.24334e-14 -0)
(5.34088e-30 -4.46188e-14 -0)
(8.6939e-30 -6.47034e-14 -0)
(2.36841e-31 -1.60384e-14 -0)
(-6.75972e-31 -2.59799e-14 0)
(-2.64753e-25 3.77086e-12 -0)
(-9.48236e-26 -6.14723e-12 0)
(-5.46416e-27 1.41597e-12 -0)
(-2.58462e-28 -3.57179e-13 0)
(-1.94525e-29 6.77418e-14 -0)
(-2.76872e-30 -5.99269e-14 0)
(-8.61084e-32 -2.0971e-15 0)
(3.99145e-30 5.94209e-14 0)
(-7.18038e-31 6.49975e-14 -0)
(-2.16927e-30 5.3297e-14 -0)
(3.61525e-32 -1.88719e-14 -0)
(2.14945e-30 1.45216e-14 0)
(1.53908e-30 1.242e-14 0)
(2.39207e-30 1.00432e-13 0)
(-6.87468e-30 1.02222e-13 -0)
(-7.66925e-30 4.14004e-14 -0)
(-1.66435e-29 7.91772e-14 -0)
(-6.82891e-30 4.16736e-14 -0)
(7.55964e-31 -8.91033e-15 -0)
(1.19325e-30 -1.59604e-14 -0)
(-1.46369e-24 -9.46831e-12 0)
(-4.81731e-25 1.39932e-11 -0)
(-2.47555e-26 -3.14147e-12 0)
(-1.62985e-27 8.45676e-13 -0)
(-2.07269e-29 -8.75937e-14 0)
(-1.64984e-29 6.92676e-14 -0)
(1.69368e-30 -9.15499e-15 -0)
(1.52211e-29 -1.03804e-13 -0)
(-4.49917e-30 -1.12799e-13 0)
(-1.19881e-29 -7.12725e-14 0)
(-7.05332e-30 -3.35057e-14 0)
(1.48571e-29 6.39823e-14 0)
(8.53645e-30 7.56848e-14 0)
(1.40815e-30 8.06474e-14 0)
(-9.26005e-30 6.10889e-14 -0)
(-1.96842e-29 6.10592e-14 -0)
(1.21059e-29 -5.50081e-14 -0)
(4.52627e-31 -1.04418e-14 -0)
(-1.2253e-30 1.05943e-14 -0)
(-9.11193e-32 6.10349e-16 -0)
(-1.77525e-24 1.19981e-11 -0)
(-4.41008e-25 -1.37622e-11 0)
(-2.53452e-26 3.32285e-12 -0)
(-9.73933e-28 -6.37873e-13 0)
(-1.03661e-28 2.37932e-13 -0)
(-2.8647e-30 7.28491e-14 -0)
(-8.62465e-30 1.07859e-13 -0)
(-2.75643e-30 8.17743e-14 -0)
(-7.08197e-30 8.37573e-14 -0)
(-4.80383e-30 8.26406e-14 -0)
(-1.40616e-29 1.43768e-13 -0)
(-4.06979e-30 2.89555e-14 -0)
(-2.80547e-30 2.41201e-14 -0)
(-5.02691e-31 4.5409e-15 -0)
(-4.95552e-30 3.06423e-14 -0)
(8.49759e-31 -5.81725e-15 -0)
(7.63985e-31 -7.378e-15 -0)
(-1.96958e-31 2.72434e-15 -0)
(-4.05182e-30 3.0979e-14 -0)
(2.68513e-30 -2.41827e-14 -0)
(-5.7102e-25 -7.12519e-12 0)
(-1.32647e-25 7.55277e-12 -0)
(-7.4253e-27 -1.82386e-12 0)
(-3.35563e-28 3.53053e-13 -0)
(-5.01448e-29 -1.85983e-13 0)
(-4.79199e-30 -4.98058e-14 0)
(-2.57078e-29 -1.13964e-13 0)
(4.52045e-30 2.98084e-14 0)
(-2.26525e-30 3.12426e-14 -0)
(3.40044e-30 -2.11502e-14 -0)
(8.70514e-30 -6.59213e-14 -0)
(4.22541e-30 -9.67724e-14 -0)
(-1.92614e-30 -8.55331e-14 0)
(1.63838e-31 -1.10392e-13 -0)
(-4.79708e-30 -1.13575e-13 0)
(-2.03156e-30 -4.05785e-14 0)
(-4.20838e-30 4.47323e-14 -0)
(7.90424e-30 -6.26288e-14 -0)
(1.00054e-31 -1.0114e-14 -0)
(8.7636e-32 -3.49601e-15 -0)
(-1.66738e-26 -1.74357e-12 0)
(-1.62205e-27 1.00496e-12 -0)
(-1.22651e-28 -3.75572e-13 0)
(2.44185e-30 -9.13513e-14 -0)
(-2.46075e-29 -1.5786e-13 0)
(-9.14834e-30 -4.65294e-14 0)
(1.81013e-30 2.28914e-14 0)
(-4.78949e-31 1.48281e-14 -0)
(-2.40328e-30 3.47262e-14 -0)
(2.69805e-31 -2.48642e-15 -0)
(2.53544e-30 -5.71786e-14 -0)
(-2.73908e-31 3.47481e-15 -0)
(-7.1532e-33 9.04431e-17 -0)
(1.32259e-31 -1.65882e-15 -0)
(-2.45973e-32 3.93542e-16 -0)
(-4.58776e-30 5.48339e-14 -0)
(1.8553e-30 -2.69899e-14 -0)
(6.44308e-31 -7.59637e-15 -0)
(-2.28997e-31 -3.17031e-14 0)
(1.22784e-31 -3.16146e-15 -0)
(-6.0262e-25 6.64735e-12 -0)
(-1.65763e-25 -8.35272e-12 0)
(-9.08477e-27 1.93748e-12 -0)
(-4.82805e-28 -4.76804e-13 0)
(-1.7702e-29 9.22161e-14 -0)
(3.94069e-30 4.358e-14 0)
(-1.26502e-30 1.47677e-14 -0)
(3.90973e-30 -6.82888e-14 -0)
(-2.09275e-30 -3.79634e-14 0)
(3.2563e-32 6.34375e-16 0)
(2.85259e-30 5.84765e-14 0)
(4.24931e-32 4.90304e-15 0)
(-2.33064e-32 9.37302e-14 -0)
(-1.47576e-29 1.27789e-13 -0)
(-2.26005e-29 1.16535e-13 -0)
(-8.96544e-30 4.55949e-14 -0)
(-2.42836e-30 2.25296e-14 -0)
(-8.85671e-30 5.87011e-14 -0)
(1.12579e-30 -7.37279e-15 -0)
(1.77326e-30 -2.29845e-14 -0)
(-1.33789e-24 -8.99643e-12 0)
(-4.36828e-25 1.33471e-11 -0)
(-2.29849e-26 -3.00318e-12 0)
(-1.47183e-27 7.81455e-13 -0)
(-8.31003e-30 -7.55297e-14 0)
(-6.23037e-30 1.97786e-14 -0)
(2.37145e-30 -2.70211e-14 -0)
(-1.79288e-30 4.00246e-14 -0)
(-3.40331e-30 -6.29172e-14 0)
(-1.7727e-30 -4.19316e-14 0)
(2.60205e-30 -3.7879e-14 -0)
(2.339e-30 -1.9325e-14 -0)
(4.53609e-30 -3.09642e-14 -0)
(9.9314e-30 -1.20464e-13 -0)
(1.65518e-30 -6.35104e-14 -0)
(-6.17162e-31 -5.84427e-14 0)
(-3.18661e-31 -1.95923e-14 0)
(-7.50753e-31 1.16274e-14 -0)
(5.77876e-31 -5.77823e-15 -0)
(2.56381e-31 -3.77845e-14 -0)
(-6.83478e-25 6.38875e-12 -0)
(-2.19499e-25 -9.41763e-12 0)
(-1.3453e-26 2.33648e-12 -0)
(-4.31759e-28 -4.20584e-13 0)
(-1.04289e-28 2.2295e-13 -0)
(1.14231e-30 -9.62165e-15 -0)
(-7.78575e-30 7.74686e-14 -0)
(-4.07855e-30 5.08183e-14 -0)
(-5.46321e-30 8.20503e-14 -0)
(-5.41561e-30 6.18159e-14 -0)
(-8.27461e-30 5.80097e-14 -0)
(-1.05533e-29 8.40196e-14 -0)
(-8.55256e-31 5.04023e-15 -0)
(9.3173e-32 -5.2937e-16 -0)
(1.1234e-29 -6.83368e-14 -0)
(3.49325e-30 -1.00552e-13 -0)
(-5.151e-32 -1.84101e-15 0)
(-6.72449e-32 4.11773e-15 -0)
(7.43362e-32 -5.63237e-15 -0)
(1.07162e-31 2.6795e-15 0)
(1.86309e-26 -1.07841e-12 -0)
(-3.88564e-27 -1.05997e-12 0)
(-2.20306e-28 2.2379e-13 -0)
(-5.5163e-30 -7.59396e-14 0)
(5.38558e-30 -2.39319e-14 -0)
(6.01717e-31 -2.61455e-15 -0)
(1.05638e-29 -5.31135e-14 -0)
(-4.41107e-30 -1.47315e-13 0)
(-7.362e-30 -3.87369e-14 0)
(1.64306e-30 1.12338e-14 0)
(8.39255e-31 1.07993e-14 0)
(1.31439e-30 3.43464e-14 0)
(3.68478e-31 6.95164e-14 0)
(-1.48727e-29 1.2956e-13 -0)
(-2.58525e-29 1.25441e-13 -0)
(-2.55743e-29 8.97347e-14 -0)
(5.6822e-30 -1.95743e-14 -0)
(7.91768e-30 -8.87078e-14 -0)
(-7.37648e-31 -1.34882e-14 0)
(4.57696e-31 1.00315e-14 0)
(-4.31233e-25 -3.47679e-12 0)
(-2.77238e-25 1.0195e-11 -0)
(-1.47388e-26 -2.31698e-12 0)
(-9.47602e-28 5.98111e-13 -0)
(-1.11586e-29 -1.02321e-13 0)
(-1.70109e-29 5.86456e-14 -0)
(1.60808e-29 -7.79292e-14 -0)
(2.86268e-30 -5.41431e-14 -0)
(-4.20579e-30 -6.56845e-14 0)
(7.87694e-31 1.27312e-14 0)
(-1.76187e-30 2.78419e-14 -0)
(-2.5456e-30 1.17554e-14 -0)
(8.19709e-30 -4.5329e-14 -0)
(2.06271e-30 -6.01243e-14 -0)
(-1.79857e-29 -1.2042e-13 0)
(2.21089e-30 2.57995e-14 0)
(-1.52592e-30 1.40459e-14 -0)
(4.27764e-31 -7.81105e-15 -0)
(1.3923e-31 -4.56081e-15 -0)
(3.63336e-32 -3.96833e-15 -0)
(-1.9698e-25 3.46737e-12 -0)
(-5.90693e-26 -4.99071e-12 0)
(-3.71668e-27 1.19595e-12 -0)
(-1.09803e-28 -2.62424e-13 0)
(-1.8831e-29 8.86493e-14 -0)
(-2.27122e-30 -3.0681e-14 0)
(1.12628e-29 1.19324e-13 0)
(-5.74717e-30 1.64169e-13 -0)
(-1.89281e-29 9.8558e-14 -0)
(-1.09873e-29 5.29672e-14 -0)
(-4.46293e-30 2.48463e-14 -0)
(7.14459e-30 -3.86512e-14 -0)
(3.34437e-30 -5.21252e-14 -0)
(-6.52907e-30 -9.99045e-14 0)
(-5.98288e-31 -4.91474e-15 0)
(9.65005e-31 8.42795e-15 0)
(1.68751e-30 4.50558e-14 0)
(-4.67289e-30 7.18831e-14 -0)
(-3.63603e-30 2.61067e-14 -0)
(-4.22311e-31 7.67515e-15 -0)
(-2.61297e-25 3.57353e-12 -0)
(-1.02446e-25 -6.52498e-12 0)
(-4.85625e-27 1.27646e-12 -0)
(-3.18177e-28 -4.14544e-13 0)
(2.5342e-30 -1.26008e-14 -0)
(-7.1429e-30 -8.88521e-14 0)
(-7.98086e-30 -5.49243e-14 0)
(-3.00635e-30 -3.43453e-14 0)
(2.26509e-31 -4.24635e-15 -0)
(7.04611e-30 -4.99533e-14 -0)
(3.3136e-30 -3.4549e-14 -0)
(5.72823e-31 -8.5991e-15 -0)
(8.21925e-32 -8.2863e-15 -0)
(1.02073e-30 6.28189e-14 0)
(-6.80768e-30 7.09082e-14 -0)
(4.84712e-31 -3.21571e-15 -0)
(2.52063e-30 -3.94774e-14 -0)
(3.49645e-32 -1.29453e-15 -0)
(1.33379e-30 -2.62018e-14 -0)
(1.29028e-30 -3.57997e-14 -0)
)
;

boundaryField
{
    movingWall
    {
        type            calculated;
        value           nonuniform List<vector> 
20
(
(0 1.12486e-11 -0)
(0 -8.70791e-12 -0)
(0 1.31567e-12 -0)
(0 -6.26788e-13 -0)
(0 -1.97739e-13 -0)
(0 -2.56687e-13 -0)
(0 -2.67168e-13 -0)
(0 -2.90998e-13 -0)
(0 -2.43595e-13 -0)
(0 -1.73379e-13 -0)
(0 -9.62618e-14 -0)
(0 -5.3008e-14 -0)
(0 -9.71041e-14 -0)
(0 -3.58001e-14 -0)
(0 -7.21197e-14 -0)
(0 -9.20335e-14 -0)
(0 -5.67812e-14 -0)
(0 -1.29453e-15 -0)
(0 -4.35057e-14 -0)
(0 -5.31036e-14 -0)
)
;
    }
    fixedWalls
    {
        type            calculated;
        value           nonuniform List<vector> 
60
(
(0 -6.59392e-11 -0)
(0 1.74561e-13 -0)
(0 5.25396e-11 -0)
(0 -4.64832e-11 -0)
(0 7.22535e-12 -0)
(0 4.20887e-11 -0)
(0 -6.13096e-11 -0)
(0 2.47985e-11 -0)
(0 2.63765e-11 -0)
(0 -5.92873e-11 -0)
(0 5.95907e-11 -0)
(0 -3.29238e-11 -0)
(0 -4.77388e-12 -0)
(0 3.58286e-11 -0)
(0 -5.68833e-11 -0)
(0 4.08139e-11 -0)
(0 4.47103e-12 -0)
(0 -4.34058e-11 -0)
(0 2.16938e-11 -0)
(0 2.70796e-11 -0)
(0 1.56023e-14 -0)
(0 -1.21441e-14 -0)
(0 -2.31947e-14 -0)
(0 -3.17988e-14 -0)
(0 -4.39063e-14 -0)
(0 1.24586e-14 -0)
(0 -3.0678e-15 -0)
(0 -1.66974e-14 -0)
(0 -2.99052e-14 -0)
(0 -3.26111e-14 -0)
(0 -4.44139e-14 -0)
(0 -1.0027e-14 -0)
(0 -1.55351e-14 -0)
(0 -3.08601e-14 -0)
(0 -2.98192e-14 -0)
(0 1.59972e-14 -0)
(0 1.82505e-14 -0)
(0 -3.66236e-15 -0)
(0 5.09581e-15 -0)
(0 -4.15218e-14 -0)
(0 -1.88134e-11 -0)
(0 1.83362e-11 -0)
(0 -3.2559e-12 -0)
(0 1.1856e-12 -0)
(0 9.33052e-14 -0)
(0 2.27993e-13 -0)
(0 2.12776e-13 -0)
(0 1.30091e-13 -0)
(0 8.04437e-14 -0)
(0 -7.21135e-15 -0)
(0 -8.32567e-14 -0)
(0 -6.4724e-14 -0)
(0 -6.7211e-14 -0)
(0 -4.73609e-15 -0)
(0 3.51021e-14 -0)
(0 -8.72819e-14 -0)
(0 4.08793e-14 -0)
(0 -9.23059e-14 -0)
(0 4.24886e-14 -0)
(0 3.98281e-15 -0)
)
;
    }
    frontAndBack
    {
        type            empty;
    }
}


// ************************************************************************* //
