/*--------------------------------*- C++ -*----------------------------------*\
| =========                 |                                                 |
| \\      /  F ield         | OpenFOAM: The Open Source CFD Toolbox           |
|  \\    /   O peration     | Version:  2506                                  |
|   \\  /    A nd           | Website:  www.openfoam.com                      |
|    \\/     M anipulation  |                                                 |
\*---------------------------------------------------------------------------*/
FoamFile
{
    version     2.0;
    format      ascii;
    arch        "LSB;label=32;scalar=64";
    class       volScalarField;
    location    "7.25";
    object      magP;
}
// * * * * * * * * * * * * * * * * * * * * * * * * * * * * * * * * * * * * * //

dimensions      [0 2 -2 0 0 0 0];

internalField   nonuniform List<scalar> 
400
(
1.51004e-16
4.39396e-15
2.92012e-15
3.30502e-15
3.48248e-15
3.55915e-15
3.51545e-15
3.56625e-15
3.87468e-15
4.16932e-15
4.46012e-15
4.71732e-15
4.33311e-15
4.53838e-15
4.7591e-15
4.7424e-15
4.81445e-15
4.85821e-15
4.43112e-15
4.3609e-15
2.9868e-15
0
2.85702e-15
2.95397e-15
3.45769e-15
3.50256e-15
3.5704e-15
3.62014e-15
3.93207e-15
4.24957e-15
4.54855e-15
4.67897e-15
4.3745e-15
4.58189e-15
4.71371e-15
4.68927e-15
4.84985e-15
4.74058e-15
4.55904e-15
4.29068e-15
2.65092e-15
4.1387e-15
2.99851e-15
3.25271e-15
3.23826e-15
3.73072e-15
3.83887e-15
3.83561e-15
3.82063e-15
4.24547e-15
4.67252e-15
4.69271e-15
4.54327e-15
4.63236e-15
4.63164e-15
4.5667e-15
4.69383e-15
4.73793e-15
4.54541e-15
4.49705e-15
2.70377e-15
4.00668e-15
3.17159e-15
3.37227e-15
3.55935e-15
3.65388e-15
3.76577e-15
3.8909e-15
4.10331e-15
4.36094e-15
4.69505e-15
4.76645e-15
4.51152e-15
4.63239e-15
4.69278e-15
4.64312e-15
4.69309e-15
4.56083e-15
4.46121e-15
4.65503e-15
3.83227e-15
1.16363e-15
3.29721e-15
3.34763e-15
3.63286e-15
3.66244e-15
3.79962e-15
4.07773e-15
4.2394e-15
4.54227e-15
4.75384e-15
4.80932e-15
4.70174e-15
4.75559e-15
4.81538e-15
4.73019e-15
4.73393e-15
4.56511e-15
4.45927e-15
4.73441e-15
2.99363e-15
4.91508e-15
3.39825e-15
3.78137e-15
3.74166e-15
3.77406e-15
3.94487e-15
4.10748e-15
4.43745e-15
4.70287e-15
4.73592e-15
4.80415e-15
4.75643e-15
4.97404e-15
5.07465e-15
4.93826e-15
4.69519e-15
4.47258e-15
4.5497e-15
4.81652e-15
3.58777e-15
4.57151e-15
3.55535e-15
3.65845e-15
3.8021e-15
3.88276e-15
4.10606e-15
4.20498e-15
4.45796e-15
4.6335e-15
4.71654e-15
4.78569e-15
4.95872e-15
4.9953e-15
5.17582e-15
4.85172e-15
4.70269e-15
4.59546e-15
4.76735e-15
4.89304e-15
4.67553e-15
8.30666e-16
3.71093e-15
3.61773e-15
3.99324e-15
4.10568e-15
4.28352e-15
4.40369e-15
4.46959e-15
4.61745e-15
4.67265e-15
4.61402e-15
4.83328e-15
5.03049e-15
5.06458e-15
4.91157e-15
4.84952e-15
4.71307e-15
4.81339e-15
4.8228e-15
3.99511e-15
6.56117e-15
4.06718e-15
4.02637e-15
4.05623e-15
4.2091e-15
4.15195e-15
4.29191e-15
4.45641e-15
4.616e-15
4.62366e-15
4.74177e-15
4.7552e-15
5.02759e-15
5.10392e-15
5.03816e-15
4.8629e-15
4.97215e-15
4.91579e-15
4.76196e-15
4.67404e-15
2.94434e-15
4.36064e-15
4.08993e-15
4.31294e-15
4.09135e-15
4.24484e-15
4.25268e-15
4.47021e-15
4.60841e-15
4.6105e-15
4.487e-15
4.70552e-15
5.08656e-15
5.14237e-15
5.18033e-15
5.08625e-15
4.92673e-15
4.95247e-15
5.09226e-15
4.32401e-15
3.59533e-15
4.57799e-15
4.31205e-15
4.4085e-15
4.26098e-15
4.27864e-15
4.44038e-15
4.49397e-15
4.49015e-15
4.7181e-15
4.55559e-15
4.76139e-15
4.94715e-15
5.20291e-15
5.36819e-15
5.10759e-15
4.90765e-15
5.02998e-15
5.28989e-15
3.97365e-15
7.87162e-15
4.59612e-15
4.77329e-15
4.47233e-15
4.41699e-15
4.2964e-15
4.31966e-15
4.62718e-15
4.54517e-15
4.71571e-15
4.64009e-15
4.80512e-15
4.96024e-15
5.26005e-15
5.37478e-15
5.29242e-15
5.04365e-15
5.16985e-15
5.47501e-15
5.35159e-15
1.8135e-15
4.75926e-15
4.46015e-15
4.66678e-15
4.52446e-15
4.26304e-15
4.40215e-15
4.77478e-15
4.6101e-15
4.78249e-15
4.82716e-15
4.968e-15
5.08653e-15
5.13806e-15
5.34201e-15
5.40651e-15
5.28174e-15
5.15533e-15
5.42039e-15
5.14175e-15
7.2657e-15
4.97638e-15
4.86885e-15
4.52119e-15
4.538e-15
4.607e-15
4.60219e-15
4.66792e-15
4.65874e-15
4.72471e-15
4.91539e-15
5.08179e-15
5.1517e-15
5.1886e-15
5.35696e-15
5.38892e-15
5.38994e-15
5.30305e-15
5.63094e-15
5.66456e-15
4.51019e-15
5.22641e-15
4.94861e-15
4.80632e-15
4.66946e-15
4.74226e-15
4.74282e-15
4.7403e-15
4.75859e-15
4.8612e-15
4.95049e-15
4.88859e-15
5.15696e-15
5.24671e-15
5.41646e-15
5.36265e-15
5.3694e-15
5.37837e-15
5.62449e-15
5.82199e-15
3.70153e-15
5.27826e-15
5.00637e-15
4.93292e-15
4.83595e-15
4.8029e-15
4.906e-15
4.87816e-15
4.81744e-15
4.89503e-15
4.9429e-15
5.12097e-15
5.2516e-15
5.32576e-15
5.35407e-15
5.23177e-15
5.31361e-15
5.42545e-15
5.59174e-15
4.83314e-15
7.60499e-15
5.45008e-15
5.35144e-15
5.03461e-15
4.98196e-15
4.85488e-15
4.9834e-15
4.85341e-15
4.80258e-15
4.92815e-15
5.0033e-15
4.97532e-15
5.18325e-15
5.47589e-15
5.37922e-15
5.28704e-15
5.39251e-15
5.37569e-15
5.45282e-15
5.73397e-15
4.54508e-15
5.50887e-15
5.18733e-15
5.13357e-15
5.01273e-15
5.02883e-15
4.94177e-15
4.7296e-15
4.76313e-15
4.96869e-15
5.06072e-15
5.01148e-15
5.20908e-15
5.33071e-15
5.57836e-15
5.66162e-15
5.46282e-15
5.24287e-15
5.39107e-15
6.02137e-15
4.61382e-15
5.67753e-15
5.3269e-15
5.24064e-15
4.92145e-15
4.88636e-15
4.77014e-15
4.63063e-15
4.65281e-15
4.88901e-15
5.04942e-15
5.0665e-15
5.37991e-15
5.22099e-15
5.23086e-15
5.47845e-15
5.46392e-15
5.43363e-15
5.4776e-15
4.62551e-15
7.14814e-15
5.81908e-15
5.72171e-15
5.20175e-15
4.9154e-15
4.623e-15
4.61217e-15
4.71582e-15
4.9047e-15
4.80054e-15
4.8804e-15
5.06369e-15
5.24418e-15
5.28886e-15
5.40145e-15
5.41216e-15
5.35657e-15
5.4661e-15
5.60817e-15
)
;

boundaryField
{
    movingWall
    {
        type            calculated;
        value           nonuniform List<scalar> 
20
(
4.62551e-15
7.14814e-15
5.81908e-15
5.72171e-15
5.20175e-15
4.9154e-15
4.623e-15
4.61217e-15
4.71582e-15
4.9047e-15
4.80054e-15
4.8804e-15
5.06369e-15
5.24418e-15
5.28886e-15
5.40145e-15
5.41216e-15
5.35657e-15
5.4661e-15
5.60817e-15
)
;
    }
    fixedWalls
    {
        type            calculated;
        value           nonuniform List<scalar> 
60
(
1.51004e-16
2.9868e-15
2.65092e-15
2.70377e-15
3.83227e-15
2.99363e-15
3.58777e-15
4.67553e-15
3.99511e-15
4.67404e-15
4.32401e-15
3.97365e-15
5.35159e-15
5.14175e-15
5.66456e-15
5.82199e-15
4.83314e-15
5.73397e-15
6.02137e-15
4.62551e-15
4.3609e-15
4.29068e-15
4.49705e-15
4.65503e-15
4.73441e-15
4.81652e-15
4.89304e-15
4.8228e-15
4.76196e-15
5.09226e-15
5.28989e-15
5.47501e-15
5.42039e-15
5.63094e-15
5.62449e-15
5.59174e-15
5.45282e-15
5.39107e-15
5.4776e-15
5.60817e-15
1.51004e-16
4.39396e-15
2.92012e-15
3.30502e-15
3.48248e-15
3.55915e-15
3.51545e-15
3.56625e-15
3.87468e-15
4.16932e-15
4.46012e-15
4.71732e-15
4.33311e-15
4.53838e-15
4.7591e-15
4.7424e-15
4.81445e-15
4.85821e-15
4.43112e-15
4.3609e-15
)
;
    }
    frontAndBack
    {
        type            empty;
    }
}


// ************************************************************************* //
