/*--------------------------------*- C++ -*----------------------------------*\
| =========                 |                                                 |
| \\      /  F ield         | OpenFOAM: The Open Source CFD Toolbox           |
|  \\    /   O peration     | Version:  2506                                  |
|   \\  /    A nd           | Website:  www.openfoam.com                      |
|    \\/     M anipulation  |                                                 |
\*---------------------------------------------------------------------------*/
FoamFile
{
    version     2.0;
    format      ascii;
    arch        "LSB;label=32;scalar=64";
    class       volScalarField;
    location    "7.25";
    object      magSqrP;
}
// * * * * * * * * * * * * * * * * * * * * * * * * * * * * * * * * * * * * * //

dimensions      [0 4 -4 0 0 0 0];

internalField   nonuniform List<scalar> 
400
(
2.28023e-32
1.93069e-29
8.52708e-30
1.09232e-29
1.21277e-29
1.26676e-29
1.23584e-29
1.27181e-29
1.50131e-29
1.73832e-29
1.98927e-29
2.22531e-29
1.87758e-29
2.05969e-29
2.2649e-29
2.24903e-29
2.31789e-29
2.36022e-29
1.96348e-29
1.90174e-29
8.92098e-30
0
8.16256e-30
8.72592e-30
1.19556e-29
1.2268e-29
1.27478e-29
1.31054e-29
1.54611e-29
1.80589e-29
2.06893e-29
2.18928e-29
1.91363e-29
2.09937e-29
2.22191e-29
2.19892e-29
2.35211e-29
2.24731e-29
2.07848e-29
1.841e-29
7.02738e-30
1.71289e-29
8.99107e-30
1.05801e-29
1.04863e-29
1.39183e-29
1.47369e-29
1.47119e-29
1.45972e-29
1.8024e-29
2.18324e-29
2.20216e-29
2.06413e-29
2.14588e-29
2.14521e-29
2.08548e-29
2.20321e-29
2.2448e-29
2.06608e-29
2.02235e-29
7.31036e-30
1.60535e-29
1.0059e-29
1.13722e-29
1.2669e-29
1.33509e-29
1.4181e-29
1.51391e-29
1.68372e-29
1.90178e-29
2.20435e-29
2.27191e-29
2.03538e-29
2.14591e-29
2.20222e-29
2.15586e-29
2.20251e-29
2.08012e-29
1.99024e-29
2.16693e-29
1.46863e-29
1.35403e-30
1.08716e-29
1.12066e-29
1.31977e-29
1.34134e-29
1.44371e-29
1.66279e-29
1.79725e-29
2.06322e-29
2.2599e-29
2.31295e-29
2.21063e-29
2.26157e-29
2.31879e-29
2.23747e-29
2.24101e-29
2.08402e-29
1.98851e-29
2.24146e-29
8.9618e-30
2.4158e-29
1.15481e-29
1.42988e-29
1.4e-29
1.42436e-29
1.5562e-29
1.68714e-29
1.96909e-29
2.2117e-29
2.24289e-29
2.30798e-29
2.26237e-29
2.4741e-29
2.57521e-29
2.43864e-29
2.20448e-29
2.0004e-29
2.06998e-29
2.31989e-29
1.28721e-29
2.08987e-29
1.26405e-29
1.33843e-29
1.4456e-29
1.50758e-29
1.68597e-29
1.76819e-29
1.98734e-29
2.14693e-29
2.22457e-29
2.29028e-29
2.45889e-29
2.49531e-29
2.67891e-29
2.35392e-29
2.21153e-29
2.11183e-29
2.27276e-29
2.39419e-29
2.18606e-29
6.90006e-31
1.3771e-29
1.3088e-29
1.5946e-29
1.68566e-29
1.83485e-29
1.93925e-29
1.99772e-29
2.13209e-29
2.18337e-29
2.12891e-29
2.33606e-29
2.53059e-29
2.565e-29
2.41235e-29
2.35178e-29
2.2213e-29
2.31687e-29
2.32594e-29
1.59609e-29
4.3049e-29
1.65419e-29
1.62117e-29
1.6453e-29
1.77165e-29
1.72386e-29
1.84205e-29
1.98596e-29
2.13075e-29
2.13783e-29
2.24844e-29
2.26119e-29
2.52767e-29
2.605e-29
2.53831e-29
2.36478e-29
2.47223e-29
2.4165e-29
2.26762e-29
2.18466e-29
8.66914e-30
1.90152e-29
1.67275e-29
1.86014e-29
1.67391e-29
1.80186e-29
1.80853e-29
1.99828e-29
2.12375e-29
2.12567e-29
2.01332e-29
2.21419e-29
2.58731e-29
2.6444e-29
2.68359e-29
2.58699e-29
2.42726e-29
2.4527e-29
2.59311e-29
1.86971e-29
1.29264e-29
2.0958e-29
1.85938e-29
1.94349e-29
1.8156e-29
1.83068e-29
1.9717e-29
2.01958e-29
2.01615e-29
2.22604e-29
2.07534e-29
2.26708e-29
2.44743e-29
2.70703e-29
2.88175e-29
2.60875e-29
2.4085e-29
2.53007e-29
2.79829e-29
1.57899e-29
6.19624e-29
2.11243e-29
2.27843e-29
2.00018e-29
1.95098e-29
1.84591e-29
1.86595e-29
2.14108e-29
2.06586e-29
2.22379e-29
2.15305e-29
2.30891e-29
2.46039e-29
2.76682e-29
2.88882e-29
2.80097e-29
2.54384e-29
2.67274e-29
2.99758e-29
2.86395e-29
3.28877e-30
2.26506e-29
1.9893e-29
2.17789e-29
2.04707e-29
1.81735e-29
1.93789e-29
2.27985e-29
2.12531e-29
2.28722e-29
2.33014e-29
2.4681e-29
2.58728e-29
2.63997e-29
2.85371e-29
2.92304e-29
2.78968e-29
2.65774e-29
2.93806e-29
2.64376e-29
5.27904e-29
2.47643e-29
2.37057e-29
2.04411e-29
2.05935e-29
2.12244e-29
2.11802e-29
2.17895e-29
2.17039e-29
2.23229e-29
2.41611e-29
2.58246e-29
2.654e-29
2.69215e-29
2.8697e-29
2.90404e-29
2.90515e-29
2.81224e-29
3.17075e-29
3.20872e-29
2.03418e-29
2.73154e-29
2.44887e-29
2.31007e-29
2.18038e-29
2.24891e-29
2.24943e-29
2.24705e-29
2.26442e-29
2.36313e-29
2.45073e-29
2.38983e-29
2.65942e-29
2.75279e-29
2.93381e-29
2.8758e-29
2.88304e-29
2.89268e-29
3.16349e-29
3.38955e-29
1.37013e-29
2.786e-29
2.50638e-29
2.43337e-29
2.33865e-29
2.30679e-29
2.40688e-29
2.37964e-29
2.32077e-29
2.39613e-29
2.44323e-29
2.62243e-29
2.75793e-29
2.83637e-29
2.8666e-29
2.73714e-29
2.82344e-29
2.94355e-29
3.12675e-29
2.33592e-29
5.78359e-29
2.97034e-29
2.86379e-29
2.53473e-29
2.48199e-29
2.35699e-29
2.48343e-29
2.35556e-29
2.30648e-29
2.42867e-29
2.5033e-29
2.47538e-29
2.68661e-29
2.99853e-29
2.8936e-29
2.79527e-29
2.90792e-29
2.8898e-29
2.97333e-29
3.28784e-29
2.06578e-29
3.03476e-29
2.69084e-29
2.63536e-29
2.51275e-29
2.52891e-29
2.44211e-29
2.23691e-29
2.26874e-29
2.46879e-29
2.56109e-29
2.51149e-29
2.71346e-29
2.84165e-29
3.11181e-29
3.2054e-29
2.98424e-29
2.74877e-29
2.90637e-29
3.62569e-29
2.12873e-29
3.22343e-29
2.83759e-29
2.74643e-29
2.42207e-29
2.38766e-29
2.27542e-29
2.14428e-29
2.16486e-29
2.39024e-29
2.54966e-29
2.56695e-29
2.89435e-29
2.72588e-29
2.73619e-29
3.00134e-29
2.98544e-29
2.95244e-29
3.00041e-29
2.13953e-29
5.1096e-29
3.38617e-29
3.2738e-29
2.70582e-29
2.41612e-29
2.13721e-29
2.12721e-29
2.2239e-29
2.40561e-29
2.30452e-29
2.38183e-29
2.5641e-29
2.75014e-29
2.79721e-29
2.91756e-29
2.92915e-29
2.86928e-29
2.98782e-29
3.14515e-29
)
;

boundaryField
{
    movingWall
    {
        type            calculated;
        value           nonuniform List<scalar> 
20
(
2.13953e-29
5.1096e-29
3.38617e-29
3.2738e-29
2.70582e-29
2.41612e-29
2.13721e-29
2.12721e-29
2.2239e-29
2.40561e-29
2.30452e-29
2.38183e-29
2.5641e-29
2.75014e-29
2.79721e-29
2.91756e-29
2.92915e-29
2.86928e-29
2.98782e-29
3.14515e-29
)
;
    }
    fixedWalls
    {
        type            calculated;
        value           nonuniform List<scalar> 
60
(
2.28023e-32
8.92098e-30
7.02738e-30
7.31036e-30
1.46863e-29
8.9618e-30
1.28721e-29
2.18606e-29
1.59609e-29
2.18466e-29
1.86971e-29
1.57899e-29
2.86395e-29
2.64376e-29
3.20872e-29
3.38955e-29
2.33592e-29
3.28784e-29
3.62569e-29
2.13953e-29
1.90174e-29
1.841e-29
2.02235e-29
2.16693e-29
2.24146e-29
2.31989e-29
2.39419e-29
2.32594e-29
2.26762e-29
2.59311e-29
2.79829e-29
2.99758e-29
2.93806e-29
3.17075e-29
3.16349e-29
3.12675e-29
2.97333e-29
2.90637e-29
3.00041e-29
3.14515e-29
2.28023e-32
1.93069e-29
8.52708e-30
1.09232e-29
1.21277e-29
1.26676e-29
1.23584e-29
1.27181e-29
1.50131e-29
1.73832e-29
1.98927e-29
2.22531e-29
1.87758e-29
2.05969e-29
2.2649e-29
2.24903e-29
2.31789e-29
2.36022e-29
1.96348e-29
1.90174e-29
)
;
    }
    frontAndBack
    {
        type            empty;
    }
}


// ************************************************************************* //
