/*--------------------------------*- C++ -*----------------------------------*\
| =========                 |                                                 |
| \\      /  F ield         | OpenFOAM: The Open Source CFD Toolbox           |
|  \\    /   O peration     | Version:  2506                                  |
|   \\  /    A nd           | Website:  www.openfoam.com                      |
|    \\/     M anipulation  |                                                 |
\*---------------------------------------------------------------------------*/
FoamFile
{
    version     2.0;
    format      ascii;
    arch        "LSB;label=32;scalar=64";
    class       volScalarField;
    location    "7.25";
    object      QField;
}
// * * * * * * * * * * * * * * * * * * * * * * * * * * * * * * * * * * * * * //

dimensions      [0 0 -2 0 0 0 0];

internalField   nonuniform List<scalar> 
400
(
-3.85599e-23
-1.20313e-23
-6.09277e-25
2.25061e-26
-9.02612e-27
-2.22017e-28
-5.02444e-28
-6.1939e-28
-7.88006e-28
-9.82567e-28
-1.59786e-27
0
-1.43785e-27
-7.80662e-28
-6.83732e-29
0
-9.56709e-29
1.8909e-28
0
0
-7.23196e-23
-2.21599e-23
-1.44865e-24
-1.92923e-26
-6.97284e-27
-1.65443e-27
-3.48253e-28
1.81184e-27
9.18632e-28
-1.67241e-27
0
8.64791e-28
4.38393e-28
0
-2.68254e-28
0
-6.84207e-28
7.22084e-28
9.18756e-28
-8.93138e-28
-7.07375e-23
-2.5431e-23
-2.6015e-25
-1.40464e-25
2.68934e-26
-3.96484e-27
4.35441e-28
4.38994e-28
-1.16816e-27
0
-4.6996e-28
3.07547e-28
3.99078e-30
-2.31129e-28
1.23836e-28
-4.09753e-28
0
0
-9.47973e-29
-7.26393e-28
-5.96198e-23
-1.88598e-23
-6.68001e-25
5.81861e-27
-7.94596e-27
-4.57417e-28
-3.03505e-28
9.12279e-28
-6.1279e-28
-1.03872e-27
-9.03299e-29
1.44724e-28
-1.8663e-27
-8.13532e-28
-5.90721e-29
-2.28978e-28
-6.90072e-29
0
-2.84672e-29
-2.26994e-28
-5.38866e-23
-1.55043e-23
-1.00518e-24
-1.34804e-26
-2.02019e-27
2.08685e-28
-4.05913e-28
0
2.46339e-28
1.4507e-28
4.75843e-28
1.49939e-27
5.49009e-28
3.51926e-28
0
1.26309e-27
-4.13269e-28
0
0
1.92575e-28
-6.34262e-23
-1.9469e-23
-7.79933e-25
-3.18536e-26
-1.96041e-27
-2.14916e-27
-1.13529e-27
-6.6217e-28
0
0
0
-4.37416e-28
0
-7.48503e-28
3.77375e-28
8.50791e-28
-8.96162e-28
5.86306e-28
1.24328e-28
-4.44611e-28
-5.60913e-23
-1.97852e-23
-9.94773e-26
-6.50812e-26
3.41153e-28
-1.96912e-28
4.22147e-30
1.2493e-27
2.82969e-27
2.31605e-29
-7.36585e-28
-6.01946e-28
-1.08824e-27
2.22941e-28
-2.391e-28
1.50236e-28
-6.58452e-28
3.38863e-28
0
-1.69773e-28
-3.57962e-23
-1.23356e-23
-8.19566e-25
2.26257e-26
-5.16321e-27
1.44621e-27
-3.67997e-28
-9.54008e-28
2.66996e-28
0
0
9.95805e-28
0
3.13283e-29
0
-2.08123e-27
-5.19944e-28
-1.27551e-28
0
-3.04987e-29
-3.99787e-23
-1.23954e-23
-7.92479e-25
0
1.55894e-27
8.89637e-28
-2.62597e-27
-6.74354e-28
5.84787e-28
-6.91441e-28
0
-2.57414e-27
0
1.72148e-27
1.7e-27
-3.82107e-28
-7.17978e-28
-1.17301e-27
0
-9.50355e-28
-2.99835e-23
-1.01665e-23
-3.82999e-25
6.65085e-26
-1.29297e-26
6.79186e-28
0
1.55524e-27
2.56008e-27
9.72194e-28
1.7349e-28
-2.52423e-28
-7.89306e-28
1.06855e-27
9.21135e-28
3.71292e-28
7.56314e-28
-2.48203e-28
0
-6.19825e-28
1.28244e-24
-4.80932e-24
7.5492e-25
-5.58332e-26
1.26459e-26
-4.76301e-27
-1.17376e-27
-1.57967e-27
1.98583e-28
-1.67561e-27
1.11705e-27
-1.44534e-27
-8.09085e-29
0
-9.54823e-28
0
0
0
3.91677e-28
-3.36707e-28
1.43941e-23
4.08717e-25
2.27046e-25
1.49617e-26
8.51104e-27
-8.78269e-28
1.69976e-28
0
0
-2.97967e-28
4.89948e-28
1.0896e-27
4.43871e-28
2.13781e-28
5.58897e-28
-9.08132e-28
4.77788e-28
4.22435e-28
-3.74092e-28
-1.95691e-28
8.16122e-24
3.7929e-25
-1.08047e-25
1.94328e-26
5.52913e-27
-4.16372e-28
-1.68723e-27
-5.66233e-28
-1.39373e-28
0
-8.19388e-28
0
0
0
-1.28031e-27
-6.34858e-28
-3.12093e-30
0
-6.49504e-28
0
-7.21976e-24
-3.61516e-24
-7.66451e-26
1.72218e-26
-3.72899e-28
-3.34975e-27
0
7.63205e-28
2.94317e-28
0
2.31283e-28
0
1.00953e-27
2.09998e-27
8.79814e-28
-7.22435e-28
-3.54424e-28
2.43456e-28
-2.90654e-28
-8.68783e-29
-2.91625e-23
-1.0518e-23
-2.39228e-25
2.05225e-26
-1.27539e-26
-1.13379e-27
0
-7.68997e-28
4.7201e-28
-6.65622e-28
-8.85312e-28
-2.1088e-28
-1.27318e-27
9.7764e-28
5.04172e-28
2.29451e-28
-2.03634e-28
-3.64692e-28
-3.78107e-28
2.89467e-28
-4.22016e-23
-1.43348e-23
-2.03284e-25
-6.26567e-26
1.24173e-26
-9.95479e-28
-3.12785e-28
-3.86448e-28
-3.08744e-28
4.12311e-28
2.05979e-28
2.19909e-28
-8.22883e-28
8.76885e-29
7.65808e-28
7.63156e-28
-1.66183e-27
0
4.19309e-28
-1.42062e-28
-4.65255e-23
-1.40681e-23
-9.35611e-25
-1.41537e-26
-4.76835e-27
0
1.31153e-28
4.14271e-27
-3.87491e-29
0
0
1.96277e-28
8.29757e-28
2.29194e-27
1.4452e-28
6.84637e-28
-7.40603e-28
1.87012e-27
0
0
-5.87152e-23
-1.82554e-23
-6.36237e-25
-1.5072e-26
-3.5423e-27
3.04583e-29
-1.099e-27
7.32869e-28
-2.48504e-27
-9.58697e-28
0
-1.20952e-27
1.17414e-28
4.06698e-28
4.12493e-28
-3.24854e-27
-2.66504e-27
0
-1.57722e-27
0
-5.86048e-23
-1.64547e-23
-7.64729e-25
-5.24708e-26
1.02624e-27
-1.00412e-27
-7.24186e-28
3.50141e-27
1.08396e-27
-1.16744e-27
-6.12237e-29
-4.99829e-28
6.78171e-28
1.1005e-27
-1.33012e-27
-1.92252e-27
4.86556e-28
9.58054e-28
-2.7061e-29
-5.26649e-28
-2.44248e-23
-6.69936e-24
-5.86105e-25
1.63192e-26
-6.7084e-27
1.87795e-27
-6.10978e-28
-1.07688e-27
-1.28473e-27
-2.11993e-27
2.01769e-28
-6.8159e-28
0
2.45501e-28
9.05207e-28
-9.8207e-29
2.63806e-28
2.49411e-28
-2.44823e-29
-1.11634e-29
)
;

boundaryField
{
    movingWall
    {
        type            calculated;
        value           nonuniform List<scalar> 
20
(
4.66505e-24
3.46115e-24
-8.42736e-25
8.76906e-26
-2.04897e-26
7.69207e-27
-1.38511e-27
-6.17524e-27
-6.66912e-27
-3.81478e-27
6.61157e-28
-3.40357e-28
7.35972e-28
-5.58476e-28
-1.48309e-27
-1.34863e-27
-1.4282e-28
2.92836e-28
-4.01118e-29
-4.64633e-30
)
;
    }
    fixedWalls
    {
        type            calculated;
        value           nonuniform List<scalar> 
60
(
-2.21971e-22
-4.09805e-22
-3.64372e-22
-3.14158e-22
-2.96025e-22
-3.31269e-22
-2.89379e-22
-2.1546e-22
-2.19137e-22
-1.5893e-22
6.20986e-24
5.50867e-23
2.03157e-23
-4.41521e-23
-1.50436e-22
-2.22518e-22
-2.61023e-22
-3.02332e-22
-3.03575e-22
-1.3497e-22
0
-1.46332e-27
-1.36338e-27
-7.43815e-28
4.55399e-28
-5.49465e-28
-2.78156e-28
-2.821e-28
-1.55706e-27
-1.45753e-27
-1.10332e-27
-3.20619e-28
0
-1.42341e-28
7.35669e-29
-2.32754e-28
0
0
-5.96562e-28
-1.36438e-29
1.99535e-23
1.58074e-23
-2.40865e-24
2.94992e-25
-5.86039e-26
9.08961e-27
-2.05801e-27
-1.27842e-27
-1.85796e-27
-1.76852e-27
-4.28601e-27
-2.13996e-27
-3.3515e-27
-1.17704e-27
-2.10577e-28
-1.36423e-28
-1.56747e-28
3.09804e-28
-8.52796e-29
0
)
;
    }
    frontAndBack
    {
        type            empty;
    }
}


// ************************************************************************* //
