/*--------------------------------*- C++ -*----------------------------------*\
| =========                 |                                                 |
| \\      /  F ield         | OpenFOAM: The Open Source CFD Toolbox           |
|  \\    /   O peration     | Version:  2506                                  |
|   \\  /    A nd           | Website:  www.openfoam.com                      |
|    \\/     M anipulation  |                                                 |
\*---------------------------------------------------------------------------*/
FoamFile
{
    version     2.0;
    format      ascii;
    arch        "LSB;label=32;scalar=64";
    class       volScalarField;
    location    "7.25";
    object      Uy;
}
// * * * * * * * * * * * * * * * * * * * * * * * * * * * * * * * * * * * * * //

dimensions      [0 1 -1 0 0 0 0];

internalField   nonuniform List<scalar> 
400
(
1.69591e-13
-3.65242e-14
8.87826e-15
-1.74479e-15
5.74979e-16
-1.33091e-17
7.14032e-17
7.93756e-17
1.02765e-16
1.63117e-16
1.74879e-16
1.07506e-16
-6.60594e-17
-1.08562e-16
-1.86985e-17
-1.5494e-17
-3.40584e-17
1.98024e-17
8.22431e-19
3.90056e-17
-2.33114e-16
6.13692e-16
2.52599e-16
2.52223e-16
2.24304e-16
9.5219e-17
2.08446e-17
8.64145e-17
1.87958e-16
1.99386e-16
1.19875e-16
-2.07045e-17
-1.99176e-16
-1.3209e-16
4.39238e-17
9.79162e-17
5.88047e-17
2.24714e-17
-9.31004e-17
-3.03602e-17
-1.44292e-13
3.16459e-14
-7.27359e-15
1.74328e-15
-3.18774e-16
1.18104e-16
-1.3057e-17
-4.25454e-17
-9.40371e-17
-1.45389e-16
-1.50222e-16
-7.59391e-17
-1.57067e-17
6.95333e-17
8.02697e-17
9.2377e-17
9.21554e-17
1.09819e-18
-1.42242e-16
-1.25749e-16
1.2705e-13
-2.76109e-14
6.65117e-15
-1.31693e-15
3.95198e-16
2.94016e-17
1.09742e-16
3.16823e-18
-5.85441e-17
-7.5081e-17
-5.35096e-17
-4.17551e-17
-5.51763e-17
-4.68187e-17
-7.07871e-17
-4.13703e-17
1.36907e-17
1.32304e-18
-5.81264e-17
-7.94969e-17
-2.00963e-14
4.48476e-15
-8.85847e-16
3.73515e-16
2.09628e-16
2.86861e-16
2.0385e-16
1.37105e-16
5.81274e-17
4.62222e-17
3.13667e-17
-1.29333e-16
-2.45221e-16
-2.30607e-16
-1.15384e-16
3.64347e-17
1.17615e-16
-6.49937e-18
-7.1925e-17
-4.20032e-17
-1.12608e-13
2.48193e-14
-5.71133e-15
1.43634e-15
-1.76811e-16
1.1795e-16
-4.45068e-17
-2.34341e-18
-4.28881e-17
-5.28074e-18
-2.16719e-18
-8.43646e-17
-1.70178e-16
-1.31708e-16
-3.37173e-17
1.05062e-16
1.23226e-16
-3.09889e-17
-9.30827e-17
-3.66162e-17
1.64319e-13
-3.62415e-14
8.57483e-15
-1.69895e-15
5.71261e-16
-1.0959e-16
-9.47061e-17
-1.08811e-16
4.81929e-17
9.99833e-17
6.61672e-17
3.20453e-17
1.06475e-17
4.55418e-17
5.17728e-17
1.61378e-17
-4.76981e-17
-3.54043e-17
-2.60561e-17
-7.66949e-18
-6.6943e-14
1.45416e-14
-3.55321e-15
7.89236e-16
-5.09479e-17
1.54274e-16
1.37936e-16
2.98709e-17
-4.68563e-17
-6.8633e-17
-7.78829e-17
-4.24112e-17
5.75595e-17
7.90598e-17
6.91176e-17
-3.84526e-17
-1.197e-16
-1.34365e-16
-1.47671e-17
2.60191e-17
-7.02102e-14
1.54254e-14
-3.85895e-15
7.23619e-16
-2.87157e-16
4.62016e-17
4.10607e-17
6.71726e-17
-1.10472e-17
-4.07016e-17
-1.91567e-18
1.48018e-16
1.23919e-16
2.38177e-17
-6.72528e-17
-1.85246e-16
-2.10206e-16
-1.63866e-16
-8.48414e-17
-7.4763e-17
1.54588e-13
-3.44262e-14
7.88024e-15
-1.92727e-15
2.36625e-16
-2.38183e-16
-1.85001e-16
-1.46633e-16
3.98868e-17
1.68201e-16
2.10511e-16
2.32207e-16
1.1279e-16
1.74606e-17
-1.51583e-16
-3.22378e-16
-2.20074e-16
-4.33476e-17
-1.15657e-16
-1.49291e-16
-1.4796e-13
3.20448e-14
-7.62755e-15
1.52685e-15
-4.35674e-16
-3.93238e-17
-7.99626e-17
-3.37078e-17
-8.45535e-17
-5.81292e-17
-9.78077e-17
-1.40553e-16
-1.16313e-16
-1.10703e-16
-1.61722e-16
-1.46076e-16
-1.03549e-16
-7.22957e-17
-1.30792e-16
-1.11035e-16
8.0141e-14
-1.75627e-14
4.07121e-15
-9.5046e-16
2.69621e-16
9.62135e-17
2.25578e-16
1.5165e-16
-7.25054e-17
-1.60775e-16
-1.32053e-16
-4.36633e-17
2.25193e-17
-1.48415e-18
4.2237e-17
5.0065e-17
-9.40792e-17
-1.26208e-16
-9.8926e-18
-2.50675e-17
9.563e-15
-1.61405e-15
3.26571e-16
-2.67303e-17
1.55882e-16
1.96614e-16
7.90747e-17
-3.23e-17
-6.92066e-17
-1.08511e-16
-4.43424e-17
-7.88266e-17
-7.90906e-17
-7.97311e-17
-6.25024e-17
-8.36665e-17
-6.87406e-17
-8.48179e-17
7.22317e-18
-3.88378e-17
-9.06557e-14
1.98453e-14
-4.68895e-15
1.01258e-15
-1.91962e-16
9.04242e-17
-8.5661e-17
-5.72529e-17
5.51255e-17
5.13308e-17
4.87818e-17
8.66668e-18
-2.48654e-19
-1.15484e-16
-1.93938e-16
-1.96633e-16
-1.07785e-16
-1.50878e-16
-1.52695e-16
-7.71503e-17
1.48714e-13
-3.27284e-14
7.65352e-15
-1.88345e-15
1.10023e-16
-3.15005e-16
-8.77631e-17
-4.47943e-17
5.40919e-17
4.22761e-17
-6.86937e-17
-1.21035e-16
-1.46495e-16
-8.24433e-17
-2.60616e-17
1.05601e-17
1.62646e-17
-6.45676e-17
-1.00009e-16
-6.78535e-18
-1.06981e-13
2.33072e-14
-5.75781e-15
1.02657e-15
-4.67769e-16
-1.18723e-16
-1.00502e-16
-8.02576e-17
-6.65837e-17
-8.76086e-17
-1.42642e-16
-1.25605e-16
-1.69686e-16
-1.76007e-16
-1.64392e-16
-3.47407e-17
2.79793e-17
-1.63306e-17
-1.3198e-17
3.99931e-17
-1.72762e-14
3.66579e-15
-9.84433e-16
7.26407e-17
-2.25037e-16
-2.30141e-16
-1.98892e-16
2.99432e-17
1.90052e-16
1.46261e-16
7.77141e-17
3.82686e-17
5.30058e-18
-1.14795e-16
-2.06093e-16
-2.84999e-16
-2.90289e-16
-8.92558e-17
5.46884e-17
4.56261e-17
1.24032e-13
-2.71936e-14
6.36121e-15
-1.58433e-15
1.09054e-16
-2.90063e-16
-2.06351e-16
-5.28724e-17
6.40302e-17
6.18714e-17
-6.32814e-17
-2.16547e-16
-1.80835e-16
-3.43074e-17
1.49357e-16
8.56951e-17
-1.08638e-16
-5.4764e-17
-3.05274e-17
-9.15589e-18
-5.68095e-14
1.18359e-14
-3.10771e-15
4.18419e-16
-2.12421e-16
7.40267e-17
9.4389e-17
-3.50076e-17
-1.92051e-16
-2.07435e-16
-1.79622e-16
-1.84848e-16
-6.41603e-17
6.53531e-17
1.21733e-16
1.14501e-16
3.74539e-17
-6.50069e-17
-1.39276e-16
-5.50231e-17
-7.312e-14
1.57006e-14
-3.80445e-15
7.67534e-16
-2.01114e-16
8.03909e-17
1.45306e-16
8.75331e-17
-5.33421e-17
-1.41054e-16
-9.591e-17
-6.66143e-17
-9.91908e-18
1.62487e-17
-9.60069e-17
-1.50733e-16
-6.38499e-17
-2.70094e-17
-5.09045e-17
-3.60418e-17
)
;

boundaryField
{
    movingWall
    {
        type            calculated;
        value           uniform -0;
    }
    fixedWalls
    {
        type            calculated;
        value           uniform -0;
    }
    frontAndBack
    {
        type            empty;
    }
}


// ************************************************************************* //
