/*--------------------------------*- C++ -*----------------------------------*\
| =========                 |                                                 |
| \\      /  F ield         | OpenFOAM: The Open Source CFD Toolbox           |
|  \\    /   O peration     | Version:  2506                                  |
|   \\  /    A nd           | Website:  www.openfoam.com                      |
|    \\/     M anipulation  |                                                 |
\*---------------------------------------------------------------------------*/
FoamFile
{
    version     2.0;
    format      ascii;
    arch        "LSB;label=32;scalar=64";
    class       volVectorField;
    location    "7.25";
    object      vorticityField;
}
// * * * * * * * * * * * * * * * * * * * * * * * * * * * * * * * * * * * * * //

dimensions      [0 0 -1 0 0 0 0];

internalField   nonuniform List<vector> 
400
(
(0 -0 1.14094e-11)
(0 -0 -1.56376e-11)
(0 -0 3.42373e-12)
(0 -0 -8.57433e-13)
(0 -0 1.46043e-13)
(0 -0 -5.03576e-14)
(0 -0 -4.49416e-14)
(0 -0 -5.10739e-14)
(0 -0 8.37412e-15)
(0 -0 7.21135e-15)
(0 -0 -5.56113e-15)
(0 -0 -2.40938e-14)
(0 -0 -2.16068e-14)
(0 -0 -2.2369e-14)
(0 -0 9.30685e-15)
(0 -0 -1.53599e-15)
(0 -0 -2.35754e-14)
(0 -0 5.76982e-14)
(0 -0 1.92033e-15)
(0 -0 -3.98281e-15)
(0 -0 -4.32574e-14)
(0 -0 3.19622e-13)
(0 -0 7.22733e-14)
(0 -0 1.32696e-13)
(0 -0 1.19825e-13)
(0 -0 6.09692e-14)
(0 -0 1.34645e-13)
(0 -0 1.25132e-13)
(0 -0 9.26123e-14)
(0 -0 -6.80826e-15)
(0 -0 -2.20091e-14)
(0 -0 -5.90102e-14)
(0 -0 -3.82436e-14)
(0 -0 2.431e-14)
(0 -0 2.30006e-14)
(0 -0 1.48809e-15)
(0 -0 -7.54448e-15)
(0 -0 -6.94006e-14)
(0 -0 -3.23882e-14)
(0 -0 1.23461e-14)
(0 -0 -6.08751e-12)
(0 -0 1.21026e-11)
(0 -0 -2.99026e-12)
(0 -0 5.05746e-13)
(0 -0 -3.25148e-13)
(0 -0 -1.04954e-13)
(0 -0 -4.317e-14)
(0 -0 -6.23081e-14)
(0 -0 -9.15995e-14)
(0 -0 -5.61851e-15)
(0 -0 6.94495e-15)
(0 -0 4.05566e-14)
(0 -0 4.16523e-14)
(0 -0 9.59764e-15)
(0 -0 5.64945e-14)
(0 -0 -2.59165e-14)
(0 -0 -9.12788e-15)
(0 -0 -2.34398e-14)
(0 -0 -1.26848e-14)
(0 -0 -3.05878e-16)
(0 -0 5.6071e-12)
(0 -0 -1.09015e-11)
(0 -0 2.49387e-12)
(0 -0 -6.52702e-13)
(0 -0 1.07528e-13)
(0 -0 -2.85456e-14)
(0 -0 -1.11044e-13)
(0 -0 -7.10387e-14)
(0 -0 -3.493e-14)
(0 -0 5.03448e-16)
(0 -0 -2.37725e-14)
(0 -0 -1.66669e-16)
(0 -0 -5.06359e-16)
(0 -0 -1.56108e-15)
(0 -0 -1.07875e-13)
(0 -0 -1.86573e-14)
(0 -0 4.26933e-15)
(0 -0 -7.18171e-15)
(0 -0 1.90231e-14)
(0 -0 1.37623e-14)
(0 -0 -7.47999e-13)
(0 -0 1.83973e-12)
(0 -0 -3.29809e-13)
(0 -0 1.90863e-13)
(0 -0 4.55447e-14)
(0 -0 5.36322e-14)
(0 -0 1.21295e-14)
(0 -0 -1.45722e-14)
(0 -0 -3.61934e-14)
(0 -0 -5.68862e-14)
(0 -0 -4.46605e-14)
(0 -0 -8.18689e-14)
(0 -0 -6.43375e-14)
(0 -0 4.00888e-14)
(0 -0 2.67042e-14)
(0 -0 7.75099e-14)
(0 -0 2.28116e-14)
(0 -0 -1.8954e-14)
(0 -0 -3.55038e-15)
(0 -0 3.84979e-14)
(0 -0 -5.82442e-12)
(0 -0 9.84941e-12)
(0 -0 -2.25698e-12)
(0 -0 5.26346e-13)
(0 -0 -1.31839e-13)
(0 -0 1.32304e-14)
(0 -0 1.50757e-14)
(0 -0 2.72669e-14)
(0 -0 -2.93733e-16)
(0 -0 4.07209e-15)
(0 -0 -7.90839e-15)
(0 -0 -1.68011e-14)
(0 -0 -4.73436e-15)
(0 -0 1.36461e-14)
(0 -0 7.78871e-14)
(0 -0 6.99044e-14)
(0 -0 -1.36051e-14)
(0 -0 -4.87359e-14)
(0 -0 -5.62724e-16)
(0 -0 -1.41352e-14)
(0 -0 8.38966e-12)
(0 -0 -1.43005e-11)
(0 -0 3.42715e-12)
(0 -0 -7.19042e-13)
(0 -0 1.58936e-13)
(0 -0 -6.65967e-14)
(0 -0 5.4288e-14)
(0 -0 9.56051e-14)
(0 -0 1.56405e-13)
(0 -0 1.10218e-13)
(0 -0 1.01626e-13)
(0 -0 1.02868e-13)
(0 -0 1.0977e-13)
(0 -0 5.83226e-14)
(0 -0 7.83748e-14)
(0 -0 -6.41572e-14)
(0 -0 -5.15421e-15)
(0 -0 2.92693e-14)
(0 -0 2.77348e-15)
(0 -0 3.37256e-15)
(0 -0 -3.26147e-12)
(0 -0 5.85109e-12)
(0 -0 -1.29393e-12)
(0 -0 3.77332e-13)
(0 -0 1.78189e-14)
(0 -0 7.30985e-14)
(0 -0 -1.24403e-14)
(0 -0 -1.84792e-14)
(0 -0 -3.69555e-14)
(0 -0 -3.10265e-15)
(0 -0 2.62218e-15)
(0 -0 4.06493e-14)
(0 -0 1.21471e-14)
(0 -0 2.82609e-14)
(0 -0 -1.17512e-14)
(0 -0 6.24334e-14)
(0 -0 4.46188e-14)
(0 -0 6.47034e-14)
(0 -0 1.60384e-14)
(0 -0 2.59799e-14)
(0 -0 -3.77086e-12)
(0 -0 6.14723e-12)
(0 -0 -1.41597e-12)
(0 -0 3.57179e-13)
(0 -0 -6.77418e-14)
(0 -0 5.99269e-14)
(0 -0 2.0971e-15)
(0 -0 -5.94209e-14)
(0 -0 -6.49975e-14)
(0 -0 -5.3297e-14)
(0 -0 1.88719e-14)
(0 -0 -1.45216e-14)
(0 -0 -1.242e-14)
(0 -0 -1.00432e-13)
(0 -0 -1.02222e-13)
(0 -0 -4.14004e-14)
(0 -0 -7.91772e-14)
(0 -0 -4.16736e-14)
(0 -0 8.91033e-15)
(0 -0 1.59604e-14)
(0 -0 9.46831e-12)
(0 -0 -1.39932e-11)
(0 -0 3.14147e-12)
(0 -0 -8.45676e-13)
(0 -0 8.75937e-14)
(0 -0 -6.92676e-14)
(0 -0 9.15499e-15)
(0 -0 1.03804e-13)
(0 -0 1.12799e-13)
(0 -0 7.12725e-14)
(0 -0 3.35057e-14)
(0 -0 -6.39823e-14)
(0 -0 -7.56848e-14)
(0 -0 -8.06474e-14)
(0 -0 -6.10889e-14)
(0 -0 -6.10592e-14)
(0 -0 5.50081e-14)
(0 -0 1.04418e-14)
(0 -0 -1.05943e-14)
(0 -0 -6.10349e-16)
(0 -0 -1.19981e-11)
(0 -0 1.37622e-11)
(0 -0 -3.32285e-12)
(0 -0 6.37873e-13)
(0 -0 -2.37932e-13)
(0 -0 -7.28491e-14)
(0 -0 -1.07859e-13)
(0 -0 -8.17743e-14)
(0 -0 -8.37573e-14)
(0 -0 -8.26406e-14)
(0 -0 -1.43768e-13)
(0 -0 -2.89555e-14)
(0 -0 -2.41201e-14)
(0 -0 -4.5409e-15)
(0 -0 -3.06423e-14)
(0 -0 5.81725e-15)
(0 -0 7.378e-15)
(0 -0 -2.72434e-15)
(0 -0 -3.0979e-14)
(0 -0 2.41827e-14)
(0 -0 7.12519e-12)
(0 -0 -7.55277e-12)
(0 -0 1.82386e-12)
(0 -0 -3.53053e-13)
(0 -0 1.85983e-13)
(0 -0 4.98058e-14)
(0 -0 1.13964e-13)
(0 -0 -2.98084e-14)
(0 -0 -3.12426e-14)
(0 -0 2.11502e-14)
(0 -0 6.59213e-14)
(0 -0 9.67724e-14)
(0 -0 8.55331e-14)
(0 -0 1.10392e-13)
(0 -0 1.13575e-13)
(0 -0 4.05785e-14)
(0 -0 -4.47323e-14)
(0 -0 6.26288e-14)
(0 -0 1.0114e-14)
(0 -0 3.49601e-15)
(0 -0 1.74357e-12)
(0 -0 -1.00496e-12)
(0 -0 3.75572e-13)
(0 -0 9.13513e-14)
(0 -0 1.5786e-13)
(0 -0 4.65294e-14)
(0 -0 -2.28914e-14)
(0 -0 -1.48281e-14)
(0 -0 -3.47262e-14)
(0 -0 2.48642e-15)
(0 -0 5.71786e-14)
(0 -0 -3.47481e-15)
(0 -0 -9.04431e-17)
(0 -0 1.65882e-15)
(0 -0 -3.93542e-16)
(0 -0 -5.48339e-14)
(0 -0 2.69899e-14)
(0 -0 7.59637e-15)
(0 -0 3.17031e-14)
(0 -0 3.16146e-15)
(0 -0 -6.64735e-12)
(0 -0 8.35272e-12)
(0 -0 -1.93748e-12)
(0 -0 4.76804e-13)
(0 -0 -9.22161e-14)
(0 -0 -4.358e-14)
(0 -0 -1.47677e-14)
(0 -0 6.82888e-14)
(0 -0 3.79634e-14)
(0 -0 -6.34375e-16)
(0 -0 -5.84765e-14)
(0 -0 -4.90304e-15)
(0 -0 -9.37302e-14)
(0 -0 -1.27789e-13)
(0 -0 -1.16535e-13)
(0 -0 -4.55949e-14)
(0 -0 -2.25296e-14)
(0 -0 -5.87011e-14)
(0 -0 7.37279e-15)
(0 -0 2.29845e-14)
(0 -0 8.99643e-12)
(0 -0 -1.33471e-11)
(0 -0 3.00318e-12)
(0 -0 -7.81455e-13)
(0 -0 7.55297e-14)
(0 -0 -1.97786e-14)
(0 -0 2.70211e-14)
(0 -0 -4.00246e-14)
(0 -0 6.29172e-14)
(0 -0 4.19316e-14)
(0 -0 3.7879e-14)
(0 -0 1.9325e-14)
(0 -0 3.09642e-14)
(0 -0 1.20464e-13)
(0 -0 6.35104e-14)
(0 -0 5.84427e-14)
(0 -0 1.95923e-14)
(0 -0 -1.16274e-14)
(0 -0 5.77823e-15)
(0 -0 3.77845e-14)
(0 -0 -6.38875e-12)
(0 -0 9.41763e-12)
(0 -0 -2.33648e-12)
(0 -0 4.20584e-13)
(0 -0 -2.2295e-13)
(0 -0 9.62165e-15)
(0 -0 -7.74686e-14)
(0 -0 -5.08183e-14)
(0 -0 -8.20503e-14)
(0 -0 -6.18159e-14)
(0 -0 -5.80097e-14)
(0 -0 -8.40196e-14)
(0 -0 -5.04023e-15)
(0 -0 5.2937e-16)
(0 -0 6.83368e-14)
(0 -0 1.00552e-13)
(0 -0 1.84101e-15)
(0 -0 -4.11773e-15)
(0 -0 5.63237e-15)
(0 -0 -2.6795e-15)
(0 -0 1.07841e-12)
(0 -0 1.05997e-12)
(0 -0 -2.2379e-13)
(0 -0 7.59396e-14)
(0 -0 2.39319e-14)
(0 -0 2.61455e-15)
(0 -0 5.31135e-14)
(0 -0 1.47315e-13)
(0 -0 3.87369e-14)
(0 -0 -1.12338e-14)
(0 -0 -1.07993e-14)
(0 -0 -3.43464e-14)
(0 -0 -6.95164e-14)
(0 -0 -1.2956e-13)
(0 -0 -1.25441e-13)
(0 -0 -8.97347e-14)
(0 -0 1.95743e-14)
(0 -0 8.87078e-14)
(0 -0 1.34882e-14)
(0 -0 -1.00315e-14)
(0 -0 3.47679e-12)
(0 -0 -1.0195e-11)
(0 -0 2.31698e-12)
(0 -0 -5.98111e-13)
(0 -0 1.02321e-13)
(0 -0 -5.86456e-14)
(0 -0 7.79292e-14)
(0 -0 5.41431e-14)
(0 -0 6.56845e-14)
(0 -0 -1.27312e-14)
(0 -0 -2.78419e-14)
(0 -0 -1.17554e-14)
(0 -0 4.5329e-14)
(0 -0 6.01243e-14)
(0 -0 1.2042e-13)
(0 -0 -2.57995e-14)
(0 -0 -1.40459e-14)
(0 -0 7.81105e-15)
(0 -0 4.56081e-15)
(0 -0 3.96833e-15)
(0 -0 -3.46737e-12)
(0 -0 4.99071e-12)
(0 -0 -1.19595e-12)
(0 -0 2.62424e-13)
(0 -0 -8.86493e-14)
(0 -0 3.0681e-14)
(0 -0 -1.19324e-13)
(0 -0 -1.64169e-13)
(0 -0 -9.8558e-14)
(0 -0 -5.29672e-14)
(0 -0 -2.48463e-14)
(0 -0 3.86512e-14)
(0 -0 5.21252e-14)
(0 -0 9.99045e-14)
(0 -0 4.91474e-15)
(0 -0 -8.42795e-15)
(0 -0 -4.50558e-14)
(0 -0 -7.18831e-14)
(0 -0 -2.61067e-14)
(0 -0 -7.67515e-15)
(0 -0 -3.57353e-12)
(0 -0 6.52498e-12)
(0 -0 -1.27646e-12)
(0 -0 4.14544e-13)
(0 -0 1.26008e-14)
(0 -0 8.88521e-14)
(0 -0 5.49243e-14)
(0 -0 3.43453e-14)
(0 -0 4.24635e-15)
(0 -0 4.99533e-14)
(0 -0 3.4549e-14)
(0 -0 8.5991e-15)
(0 -0 8.2863e-15)
(0 -0 -6.28189e-14)
(0 -0 -7.09082e-14)
(0 -0 3.21571e-15)
(0 -0 3.94774e-14)
(0 -0 1.29453e-15)
(0 -0 2.62018e-14)
(0 -0 3.57997e-14)
)
;

boundaryField
{
    movingWall
    {
        type            calculated;
        value           nonuniform List<vector> 
20
(
(0 -0 -1.12486e-11)
(0 -0 8.70791e-12)
(0 -0 -1.31567e-12)
(0 -0 6.26788e-13)
(0 -0 1.97739e-13)
(0 -0 2.56687e-13)
(0 -0 2.67168e-13)
(0 -0 2.90998e-13)
(0 -0 2.43595e-13)
(0 -0 1.73379e-13)
(0 -0 9.62618e-14)
(0 -0 5.3008e-14)
(0 -0 9.71041e-14)
(0 -0 3.58001e-14)
(0 -0 7.21197e-14)
(0 -0 9.20335e-14)
(0 -0 5.67812e-14)
(0 -0 1.29453e-15)
(0 -0 4.35057e-14)
(0 -0 5.31036e-14)
)
;
    }
    fixedWalls
    {
        type            calculated;
        value           nonuniform List<vector> 
60
(
(0 -0 6.59392e-11)
(0 -0 -1.74561e-13)
(0 -0 -5.25396e-11)
(0 -0 4.64832e-11)
(0 -0 -7.22535e-12)
(0 -0 -4.20887e-11)
(0 -0 6.13096e-11)
(0 -0 -2.47985e-11)
(0 -0 -2.63765e-11)
(0 -0 5.92873e-11)
(0 -0 -5.95907e-11)
(0 -0 3.29238e-11)
(0 -0 4.77388e-12)
(0 -0 -3.58286e-11)
(0 -0 5.68833e-11)
(0 -0 -4.08139e-11)
(0 -0 -4.47103e-12)
(0 -0 4.34058e-11)
(0 -0 -2.16938e-11)
(0 -0 -2.70796e-11)
(0 -0 -1.56023e-14)
(0 -0 1.21441e-14)
(0 -0 2.31947e-14)
(0 -0 3.17988e-14)
(0 -0 4.39063e-14)
(0 -0 -1.24586e-14)
(0 -0 3.0678e-15)
(0 -0 1.66974e-14)
(0 -0 2.99052e-14)
(0 -0 3.26111e-14)
(0 -0 4.44139e-14)
(0 -0 1.0027e-14)
(0 -0 1.55351e-14)
(0 -0 3.08601e-14)
(0 -0 2.98192e-14)
(0 -0 -1.59972e-14)
(0 -0 -1.82505e-14)
(0 -0 3.66236e-15)
(0 -0 -5.09581e-15)
(0 -0 4.15218e-14)
(0 -0 1.88134e-11)
(0 -0 -1.83362e-11)
(0 -0 3.2559e-12)
(0 -0 -1.1856e-12)
(0 -0 -9.33052e-14)
(0 -0 -2.27993e-13)
(0 -0 -2.12776e-13)
(0 -0 -1.30091e-13)
(0 -0 -8.04437e-14)
(0 -0 7.21135e-15)
(0 -0 8.32567e-14)
(0 -0 6.4724e-14)
(0 -0 6.7211e-14)
(0 -0 4.73609e-15)
(0 -0 -3.51021e-14)
(0 -0 8.72819e-14)
(0 -0 -4.08793e-14)
(0 -0 9.23059e-14)
(0 -0 -4.24886e-14)
(0 -0 -3.98281e-15)
)
;
    }
    frontAndBack
    {
        type            empty;
    }
}


// ************************************************************************* //
