/*--------------------------------*- C++ -*----------------------------------*\
| =========                 |                                                 |
| \\      /  F ield         | OpenFOAM: The Open Source CFD Toolbox           |
|  \\    /   O peration     | Version:  2506                                  |
|   \\  /    A nd           | Website:  www.openfoam.com                      |
|    \\/     M anipulation  |                                                 |
\*---------------------------------------------------------------------------*/
FoamFile
{
    version     2.0;
    format      ascii;
    arch        "LSB;label=32;scalar=64";
    class       volScalarField;
    location    "7.25";
    object      zeroGradient(epsilon);
}
// * * * * * * * * * * * * * * * * * * * * * * * * * * * * * * * * * * * * * //

dimensions      [0 2 -3 0 0 0 0];

internalField   nonuniform List<scalar> 
400
(
1.95145e-06
1.95144e-06
1.95145e-06
1.95144e-06
1.95145e-06
1.95143e-06
1.95145e-06
1.95143e-06
1.95144e-06
1.95143e-06
1.95144e-06
1.95143e-06
1.95144e-06
1.95143e-06
1.95144e-06
1.95143e-06
1.95143e-06
1.95143e-06
1.95143e-06
1.95143e-06
2.03506e-06
2.00686e-06
2.00923e-06
2.01022e-06
2.01217e-06
2.01319e-06
2.01515e-06
2.0162e-06
2.01816e-06
2.01924e-06
2.02121e-06
2.02232e-06
2.02429e-06
2.02542e-06
2.02741e-06
2.02857e-06
2.03056e-06
2.03174e-06
2.03274e-06
2.03434e-06
2.16372e-06
2.13262e-06
2.13527e-06
2.13637e-06
2.13855e-06
2.13969e-06
2.14187e-06
2.14303e-06
2.1452e-06
2.14639e-06
2.14857e-06
2.14977e-06
2.15196e-06
2.15318e-06
2.15537e-06
2.15661e-06
2.15881e-06
2.16007e-06
2.16117e-06
2.1629e-06
2.2936e-06
2.25997e-06
2.26284e-06
2.26403e-06
2.26639e-06
2.26761e-06
2.26996e-06
2.27122e-06
2.27357e-06
2.27485e-06
2.27721e-06
2.27851e-06
2.28087e-06
2.28219e-06
2.28456e-06
2.2859e-06
2.28827e-06
2.28964e-06
2.29082e-06
2.2927e-06
2.39792e-06
2.36221e-06
2.36525e-06
2.36651e-06
2.36902e-06
2.37032e-06
2.37281e-06
2.37415e-06
2.37664e-06
2.378e-06
2.3805e-06
2.38188e-06
2.38439e-06
2.38579e-06
2.38831e-06
2.38973e-06
2.39225e-06
2.3937e-06
2.39496e-06
2.39695e-06
2.47055e-06
2.43335e-06
2.43652e-06
2.43783e-06
2.44044e-06
2.44179e-06
2.44439e-06
2.44578e-06
2.44837e-06
2.44979e-06
2.45239e-06
2.45383e-06
2.45644e-06
2.45791e-06
2.46052e-06
2.46201e-06
2.46463e-06
2.46614e-06
2.46745e-06
2.46953e-06
2.517e-06
2.47884e-06
2.48209e-06
2.48344e-06
2.48611e-06
2.4875e-06
2.49016e-06
2.49159e-06
2.49425e-06
2.4957e-06
2.49837e-06
2.49985e-06
2.50252e-06
2.50402e-06
2.50671e-06
2.50823e-06
2.51092e-06
2.51248e-06
2.51382e-06
2.51595e-06
2.54583e-06
2.50708e-06
2.51038e-06
2.51175e-06
2.51446e-06
2.51587e-06
2.51857e-06
2.52002e-06
2.52272e-06
2.5242e-06
2.52691e-06
2.52841e-06
2.53113e-06
2.53265e-06
2.53538e-06
2.53693e-06
2.53965e-06
2.54123e-06
2.5426e-06
2.54476e-06
2.56431e-06
2.52518e-06
2.52851e-06
2.52989e-06
2.53263e-06
2.53405e-06
2.53678e-06
2.53825e-06
2.54098e-06
2.54247e-06
2.5452e-06
2.54672e-06
2.54946e-06
2.551e-06
2.55375e-06
2.55532e-06
2.55807e-06
2.55967e-06
2.56105e-06
2.56323e-06
2.57737e-06
2.53797e-06
2.54132e-06
2.54271e-06
2.54547e-06
2.5469e-06
2.54965e-06
2.55112e-06
2.55387e-06
2.55537e-06
2.55813e-06
2.55965e-06
2.56242e-06
2.56397e-06
2.56674e-06
2.56831e-06
2.57109e-06
2.57269e-06
2.57408e-06
2.57628e-06
2.588e-06
2.54837e-06
2.55174e-06
2.55314e-06
2.55591e-06
2.55735e-06
2.56012e-06
2.5616e-06
2.56436e-06
2.56587e-06
2.56864e-06
2.57017e-06
2.57295e-06
2.57451e-06
2.57729e-06
2.57888e-06
2.58167e-06
2.58329e-06
2.58468e-06
2.58689e-06
2.59787e-06
2.55805e-06
2.56143e-06
2.56284e-06
2.56562e-06
2.56708e-06
2.56985e-06
2.57134e-06
2.57412e-06
2.57563e-06
2.57842e-06
2.57996e-06
2.58275e-06
2.58432e-06
2.58712e-06
2.58871e-06
2.59151e-06
2.59314e-06
2.59454e-06
2.59676e-06
2.60799e-06
2.56796e-06
2.57136e-06
2.57277e-06
2.57557e-06
2.57703e-06
2.57982e-06
2.58132e-06
2.58411e-06
2.58564e-06
2.58843e-06
2.58998e-06
2.59279e-06
2.59437e-06
2.59718e-06
2.59878e-06
2.6016e-06
2.60323e-06
2.60464e-06
2.60687e-06
2.61892e-06
2.57866e-06
2.58208e-06
2.58351e-06
2.58632e-06
2.58779e-06
2.5906e-06
2.5921e-06
2.59491e-06
2.59644e-06
2.59925e-06
2.60081e-06
2.60363e-06
2.60522e-06
2.60805e-06
2.60966e-06
2.61249e-06
2.61413e-06
2.61555e-06
2.6178e-06
2.63096e-06
2.59045e-06
2.59389e-06
2.59532e-06
2.59816e-06
2.59963e-06
2.60246e-06
2.60397e-06
2.60679e-06
2.60834e-06
2.61117e-06
2.61274e-06
2.61557e-06
2.61717e-06
2.62001e-06
2.62164e-06
2.62449e-06
2.62614e-06
2.62757e-06
2.62982e-06
2.64407e-06
2.6033e-06
2.60676e-06
2.6082e-06
2.61105e-06
2.61254e-06
2.61538e-06
2.6169e-06
2.61975e-06
2.6213e-06
2.62415e-06
2.62573e-06
2.62859e-06
2.63019e-06
2.63305e-06
2.63469e-06
2.63755e-06
2.63922e-06
2.64066e-06
2.64293e-06
2.65773e-06
2.61667e-06
2.62016e-06
2.62161e-06
2.62448e-06
2.62598e-06
2.62884e-06
2.63037e-06
2.63323e-06
2.6348e-06
2.63766e-06
2.63925e-06
2.64213e-06
2.64375e-06
2.64663e-06
2.64827e-06
2.65116e-06
2.65284e-06
2.65428e-06
2.65657e-06
2.67069e-06
2.62938e-06
2.63289e-06
2.63435e-06
2.63723e-06
2.63874e-06
2.64162e-06
2.64316e-06
2.64604e-06
2.64761e-06
2.6505e-06
2.6521e-06
2.65499e-06
2.65662e-06
2.65952e-06
2.66118e-06
2.66408e-06
2.66577e-06
2.66722e-06
2.66953e-06
2.68107e-06
2.64036e-06
2.64375e-06
2.64517e-06
2.64797e-06
2.64945e-06
2.65225e-06
2.65377e-06
2.65658e-06
2.65815e-06
2.66097e-06
2.66258e-06
2.66542e-06
2.66706e-06
2.66991e-06
2.67159e-06
2.67446e-06
2.67618e-06
2.67762e-06
2.67994e-06
2.68581e-06
2.68581e-06
2.6858e-06
2.68581e-06
2.6858e-06
2.68581e-06
2.6858e-06
2.6858e-06
2.6858e-06
2.6858e-06
2.6858e-06
2.6858e-06
2.6858e-06
2.6858e-06
2.6858e-06
2.6858e-06
2.6858e-06
2.6858e-06
2.6858e-06
2.6858e-06
)
;

boundaryField
{
    movingWall
    {
        type            zeroGradient;
    }
    fixedWalls
    {
        type            zeroGradient;
    }
    frontAndBack
    {
        type            empty;
    }
}


// ************************************************************************* //
