/*--------------------------------*- C++ -*----------------------------------*\
| =========                 |                                                 |
| \\      /  F ield         | OpenFOAM: The Open Source CFD Toolbox           |
|  \\    /   O peration     | Version:  2506                                  |
|   \\  /    A nd           | Website:  www.openfoam.com                      |
|    \\/     M anipulation  |                                                 |
\*---------------------------------------------------------------------------*/
FoamFile
{
    version     2.0;
    format      ascii;
    arch        "LSB;label=32;scalar=64";
    class       volVectorField;
    location    "4.875";
    object      diffU;
}
// * * * * * * * * * * * * * * * * * * * * * * * * * * * * * * * * * * * * * //

dimensions      [0 1 -1 0 0 0 0];

internalField   nonuniform List<vector> 
400
(
(0 0 0)
(5.58631e-12 -5.30172e-09 0)
(7.93143e-13 -4.04306e-09 0)
(2.87148e-12 -4.34212e-09 0)
(1.94711e-12 -4.27115e-09 0)
(2.20202e-12 -4.28803e-09 0)
(2.086e-12 -4.28403e-09 0)
(2.10587e-12 -4.28499e-09 0)
(2.08977e-12 -4.28476e-09 0)
(2.08855e-12 -4.28482e-09 0)
(2.08522e-12 -4.2848e-09 0)
(2.08311e-12 -4.28481e-09 0)
(2.08189e-12 -4.28481e-09 0)
(2.08067e-12 -4.28481e-09 0)
(2.07989e-12 -4.28481e-09 0)
(2.07911e-12 -4.28481e-09 0)
(2.07867e-12 -4.28481e-09 0)
(2.07845e-12 -4.28481e-09 0)
(2.07834e-12 -4.28481e-09 0)
(2.07834e-12 -4.28481e-09 0)
(5.83666e-12 -8.57473e-09 0)
(1.12776e-12 -3.26512e-09 0)
(2.37987e-12 -4.52643e-09 0)
(2.03659e-12 -4.22727e-09 0)
(2.13185e-12 -4.29837e-09 0)
(2.10432e-12 -4.28154e-09 0)
(2.10088e-12 -4.28555e-09 0)
(2.09388e-12 -4.28461e-09 0)
(2.08922e-12 -4.28484e-09 0)
(2.08566e-12 -4.28479e-09 0)
(2.08333e-12 -4.28481e-09 0)
(2.08189e-12 -4.2848e-09 0)
(2.08067e-12 -4.2848e-09 0)
(2.07967e-12 -4.28481e-09 0)
(2.07945e-12 -4.28481e-09 0)
(2.07889e-12 -4.28481e-09 0)
(2.07878e-12 -4.28481e-09 0)
(2.07867e-12 -4.28481e-09 0)
(2.07812e-12 -4.28481e-09 0)
(2.07812e-12 -4.28481e-09 0)
(-1.97766e-11 2.66192e-12 0)
(6.48082e-12 -5.30306e-09 0)
(2.86438e-13 -4.04299e-09 0)
(2.45737e-12 -4.34212e-09 0)
(1.96243e-12 -4.27112e-09 0)
(2.12197e-12 -4.28801e-09 0)
(2.07923e-12 -4.28401e-09 0)
(2.08966e-12 -4.28497e-09 0)
(2.08433e-12 -4.28475e-09 0)
(2.08378e-12 -4.28481e-09 0)
(2.082e-12 -4.2848e-09 0)
(2.08078e-12 -4.2848e-09 0)
(2.08011e-12 -4.2848e-09 0)
(2.07945e-12 -4.2848e-09 0)
(2.079e-12 -4.28481e-09 0)
(2.07856e-12 -4.28481e-09 0)
(2.07867e-12 -4.28481e-09 0)
(2.07867e-12 -4.28481e-09 0)
(2.07856e-12 -4.28481e-09 0)
(2.07834e-12 -4.28481e-09 0)
(2.93101e-11 -8.56647e-09 0)
(-3.49454e-12 -3.26847e-09 0)
(4.13347e-12 -4.52593e-09 0)
(1.57563e-12 -4.22752e-09 0)
(2.20202e-12 -4.29835e-09 0)
(2.03637e-12 -4.28155e-09 0)
(2.08977e-12 -4.28555e-09 0)
(2.07856e-12 -4.28461e-09 0)
(2.08233e-12 -4.28484e-09 0)
(2.08089e-12 -4.28479e-09 0)
(2.08056e-12 -4.2848e-09 0)
(2.07989e-12 -4.2848e-09 0)
(2.07956e-12 -4.2848e-09 0)
(2.07945e-12 -4.2848e-09 0)
(2.079e-12 -4.2848e-09 0)
(2.079e-12 -4.28481e-09 0)
(2.07856e-12 -4.28481e-09 0)
(2.07845e-12 -4.28481e-09 0)
(2.07845e-12 -4.28481e-09 0)
(2.07845e-12 -4.28481e-09 0)
(-2.93143e-11 -1.43491e-11 0)
(8.3934e-12 -5.29815e-09 0)
(-3.40394e-13 -4.04433e-09 0)
(2.60081e-12 -4.34183e-09 0)
(1.90981e-12 -4.27124e-09 0)
(2.11542e-12 -4.288e-09 0)
(2.06324e-12 -4.28403e-09 0)
(2.07989e-12 -4.28497e-09 0)
(2.07723e-12 -4.28475e-09 0)
(2.07856e-12 -4.28481e-09 0)
(2.07867e-12 -4.2848e-09 0)
(2.07867e-12 -4.2848e-09 0)
(2.07845e-12 -4.2848e-09 0)
(2.07845e-12 -4.2848e-09 0)
(2.07834e-12 -4.2848e-09 0)
(2.07812e-12 -4.28481e-09 0)
(2.07812e-12 -4.28481e-09 0)
(2.07834e-12 -4.28481e-09 0)
(2.07834e-12 -4.28481e-09 0)
(2.07856e-12 -4.28481e-09 0)
(3.28627e-11 -8.54356e-09 0)
(-4.16733e-12 -3.2744e-09 0)
(4.3604e-12 -4.52451e-09 0)
(1.52212e-12 -4.22791e-09 0)
(2.20857e-12 -4.29828e-09 0)
(2.02327e-12 -4.28159e-09 0)
(2.08178e-12 -4.28555e-09 0)
(2.07057e-12 -4.28461e-09 0)
(2.07634e-12 -4.28484e-09 0)
(2.07634e-12 -4.28479e-09 0)
(2.07723e-12 -4.2848e-09 0)
(2.07767e-12 -4.2848e-09 0)
(2.07789e-12 -4.2848e-09 0)
(2.07812e-12 -4.2848e-09 0)
(2.07834e-12 -4.2848e-09 0)
(2.07834e-12 -4.28481e-09 0)
(2.07834e-12 -4.28481e-09 0)
(2.07812e-12 -4.28481e-09 0)
(2.07812e-12 -4.28481e-09 0)
(2.07834e-12 -4.28481e-09 0)
(-2.80684e-11 -3.9072e-11 0)
(8.13227e-12 -5.29201e-09 0)
(-1.97398e-13 -4.04583e-09 0)
(2.57239e-12 -4.34148e-09 0)
(1.91669e-12 -4.27134e-09 0)
(2.10743e-12 -4.28798e-09 0)
(2.05858e-12 -4.28404e-09 0)
(2.07478e-12 -4.28498e-09 0)
(2.07323e-12 -4.28476e-09 0)
(2.07545e-12 -4.28481e-09 0)
(2.0759e-12 -4.2848e-09 0)
(2.07701e-12 -4.2848e-09 0)
(2.07745e-12 -4.2848e-09 0)
(2.07767e-12 -4.2848e-09 0)
(2.07812e-12 -4.2848e-09 0)
(2.07789e-12 -4.28481e-09 0)
(2.07767e-12 -4.28481e-09 0)
(2.07834e-12 -4.28481e-09 0)
(2.07834e-12 -4.28481e-09 0)
(2.07856e-12 -4.28481e-09 0)
(2.97329e-11 -8.51814e-09 0)
(-3.51208e-12 -3.28058e-09 0)
(4.10005e-12 -4.52305e-09 0)
(1.58606e-12 -4.22828e-09 0)
(2.1898e-12 -4.2982e-09 0)
(2.02638e-12 -4.28162e-09 0)
(2.07701e-12 -4.28555e-09 0)
(2.06724e-12 -4.28462e-09 0)
(2.07323e-12 -4.28484e-09 0)
(2.07412e-12 -4.28479e-09 0)
(2.0759e-12 -4.2848e-09 0)
(2.07612e-12 -4.2848e-09 0)
(2.07701e-12 -4.2848e-09 0)
(2.07767e-12 -4.2848e-09 0)
(2.07789e-12 -4.28481e-09 0)
(2.07834e-12 -4.28481e-09 0)
(2.07834e-12 -4.28481e-09 0)
(2.07834e-12 -4.28481e-09 0)
(2.07812e-12 -4.28481e-09 0)
(2.07834e-12 -4.28481e-09 0)
(-2.37299e-11 -6.40507e-11 0)
(7.25175e-12 -5.28603e-09 0)
(1.5965e-13 -4.04727e-09 0)
(2.49345e-12 -4.34115e-09 0)
(1.94134e-12 -4.27143e-09 0)
(2.0991e-12 -4.28797e-09 0)
(2.05813e-12 -4.28405e-09 0)
(2.07212e-12 -4.28498e-09 0)
(2.07101e-12 -4.28476e-09 0)
(2.0739e-12 -4.28481e-09 0)
(2.07501e-12 -4.2848e-09 0)
(2.0759e-12 -4.2848e-09 0)
(2.07656e-12 -4.2848e-09 0)
(2.07701e-12 -4.28481e-09 0)
(2.07745e-12 -4.28481e-09 0)
(2.07767e-12 -4.28481e-09 0)
(2.07834e-12 -4.28481e-09 0)
(2.07834e-12 -4.28481e-09 0)
(2.07834e-12 -4.28481e-09 0)
(2.07856e-12 -4.28481e-09 0)
(2.5093e-11 -8.49375e-09 0)
(-2.56439e-12 -3.28638e-09 0)
(3.73401e-12 -4.52167e-09 0)
(1.67466e-12 -4.22861e-09 0)
(2.16693e-12 -4.29813e-09 0)
(2.03459e-12 -4.28164e-09 0)
(2.07523e-12 -4.28555e-09 0)
(2.0679e-12 -4.28463e-09 0)
(2.07234e-12 -4.28485e-09 0)
(2.07301e-12 -4.28479e-09 0)
(2.07478e-12 -4.28481e-09 0)
(2.07567e-12 -4.2848e-09 0)
(2.07634e-12 -4.28481e-09 0)
(2.07701e-12 -4.28481e-09 0)
(2.07723e-12 -4.28481e-09 0)
(2.07789e-12 -4.28481e-09 0)
(2.07745e-12 -4.28481e-09 0)
(2.07812e-12 -4.28481e-09 0)
(2.07834e-12 -4.28481e-09 0)
(2.07834e-12 -4.28481e-09 0)
(-1.90676e-11 -8.73163e-11 0)
(6.31162e-12 -5.28053e-09 0)
(5.26912e-13 -4.04858e-09 0)
(2.41029e-12 -4.34085e-09 0)
(1.96554e-12 -4.27151e-09 0)
(2.0921e-12 -4.28796e-09 0)
(2.05969e-12 -4.28406e-09 0)
(2.07123e-12 -4.28498e-09 0)
(2.07101e-12 -4.28476e-09 0)
(2.07323e-12 -4.28482e-09 0)
(2.07434e-12 -4.2848e-09 0)
(2.07523e-12 -4.28481e-09 0)
(2.07634e-12 -4.28481e-09 0)
(2.07678e-12 -4.28481e-09 0)
(2.07723e-12 -4.28481e-09 0)
(2.07767e-12 -4.28481e-09 0)
(2.07767e-12 -4.28481e-09 0)
(2.07834e-12 -4.28481e-09 0)
(2.07812e-12 -4.28481e-09 0)
(2.07845e-12 -4.28481e-09 0)
(2.07071e-11 -8.47149e-09 0)
(-1.68088e-12 -3.29163e-09 0)
(3.39317e-12 -4.52043e-09 0)
(1.7526e-12 -4.22891e-09 0)
(2.14473e-12 -4.29807e-09 0)
(2.04081e-12 -4.28166e-09 0)
(2.07345e-12 -4.28555e-09 0)
(2.06812e-12 -4.28463e-09 0)
(2.07212e-12 -4.28485e-09 0)
(2.07301e-12 -4.2848e-09 0)
(2.07478e-12 -4.28481e-09 0)
(2.0759e-12 -4.28481e-09 0)
(2.07656e-12 -4.28481e-09 0)
(2.07701e-12 -4.28481e-09 0)
(2.07745e-12 -4.28481e-09 0)
(2.07767e-12 -4.28481e-09 0)
(2.07834e-12 -4.28481e-09 0)
(2.07812e-12 -4.28481e-09 0)
(2.07812e-12 -4.28481e-09 0)
(2.07834e-12 -4.28481e-09 0)
(-1.51794e-11 -1.08256e-10 0)
(5.52969e-12 -5.27561e-09 0)
(8.23341e-13 -4.04975e-09 0)
(2.34113e-12 -4.34058e-09 0)
(1.98486e-12 -4.27158e-09 0)
(2.08711e-12 -4.28795e-09 0)
(2.06235e-12 -4.28407e-09 0)
(2.07212e-12 -4.28499e-09 0)
(2.07168e-12 -4.28477e-09 0)
(2.0739e-12 -4.28482e-09 0)
(2.07501e-12 -4.28481e-09 0)
(2.07545e-12 -4.28481e-09 0)
(2.07656e-12 -4.28481e-09 0)
(2.07701e-12 -4.28481e-09 0)
(2.07745e-12 -4.28481e-09 0)
(2.07789e-12 -4.28481e-09 0)
(2.07812e-12 -4.28481e-09 0)
(2.07789e-12 -4.28481e-09 0)
(2.07834e-12 -4.28481e-09 0)
(2.07834e-12 -4.28481e-09 0)
(1.72827e-11 -8.45156e-09 0)
(-9.97646e-13 -3.29631e-09 0)
(3.12927e-12 -4.51933e-09 0)
(1.81122e-12 -4.22918e-09 0)
(2.12763e-12 -4.29802e-09 0)
(2.04636e-12 -4.28168e-09 0)
(2.07345e-12 -4.28556e-09 0)
(2.07034e-12 -4.28464e-09 0)
(2.0739e-12 -4.28485e-09 0)
(2.07478e-12 -4.2848e-09 0)
(2.0759e-12 -4.28481e-09 0)
(2.07656e-12 -4.28481e-09 0)
(2.07701e-12 -4.28481e-09 0)
(2.07767e-12 -4.28481e-09 0)
(2.07767e-12 -4.28481e-09 0)
(2.07767e-12 -4.28481e-09 0)
(2.07812e-12 -4.28481e-09 0)
(2.07834e-12 -4.28481e-09 0)
(2.07834e-12 -4.28481e-09 0)
(2.07845e-12 -4.28481e-09 0)
(-1.25233e-11 -1.27014e-10 0)
(4.99378e-12 -5.27121e-09 0)
(1.01807e-12 -4.0508e-09 0)
(2.2935e-12 -4.34034e-09 0)
(1.99818e-12 -4.27165e-09 0)
(2.08544e-12 -4.28794e-09 0)
(2.06568e-12 -4.28408e-09 0)
(2.07434e-12 -4.28499e-09 0)
(2.07434e-12 -4.28477e-09 0)
(2.07612e-12 -4.28482e-09 0)
(2.07678e-12 -4.28481e-09 0)
(2.07723e-12 -4.28481e-09 0)
(2.07789e-12 -4.28481e-09 0)
(2.07789e-12 -4.28481e-09 0)
(2.07845e-12 -4.28481e-09 0)
(2.07845e-12 -4.28481e-09 0)
(2.07834e-12 -4.28481e-09 0)
(2.07834e-12 -4.28481e-09 0)
(2.07856e-12 -4.28481e-09 0)
(2.07834e-12 -4.28481e-09 0)
(1.49789e-11 -8.43345e-09 0)
(-5.44009e-13 -3.30056e-09 0)
(2.94698e-12 -4.51835e-09 0)
(1.85052e-12 -4.22943e-09 0)
(2.11853e-12 -4.29797e-09 0)
(2.05436e-12 -4.28171e-09 0)
(2.07701e-12 -4.28556e-09 0)
(2.07434e-12 -4.28464e-09 0)
(2.07701e-12 -4.28486e-09 0)
(2.07701e-12 -4.2848e-09 0)
(2.07767e-12 -4.28481e-09 0)
(2.07789e-12 -4.28481e-09 0)
(2.07845e-12 -4.28481e-09 0)
(2.07789e-12 -4.28481e-09 0)
(2.07812e-12 -4.28481e-09 0)
(2.07856e-12 -4.28481e-09 0)
(2.07812e-12 -4.28481e-09 0)
(2.07834e-12 -4.28481e-09 0)
(2.07834e-12 -4.28481e-09 0)
(2.07834e-12 -4.28481e-09 0)
(-1.13451e-11 -1.44328e-10 0)
(4.74354e-12 -5.26716e-09 0)
(1.09912e-12 -4.05179e-09 0)
(2.27562e-12 -4.34013e-09 0)
(2.00995e-12 -4.27172e-09 0)
(2.09244e-12 -4.28794e-09 0)
(2.07412e-12 -4.28408e-09 0)
(2.08034e-12 -4.28499e-09 0)
(2.07923e-12 -4.28477e-09 0)
(2.07956e-12 -4.28482e-09 0)
(2.079e-12 -4.28481e-09 0)
(2.07878e-12 -4.28481e-09 0)
(2.07867e-12 -4.28481e-09 0)
(2.07867e-12 -4.28481e-09 0)
(2.07889e-12 -4.28481e-09 0)
(2.07889e-12 -4.28481e-09 0)
(2.07845e-12 -4.28481e-09 0)
(2.07845e-12 -4.28481e-09 0)
(2.07834e-12 -4.28481e-09 0)
(2.07834e-12 -4.28481e-09 0)
(1.32609e-11 -8.41612e-09 0)
(-2.02727e-13 -3.30463e-09 0)
(2.8072e-12 -4.51747e-09 0)
(1.89204e-12 -4.22968e-09 0)
(2.12275e-12 -4.29794e-09 0)
(2.0719e-12 -4.28173e-09 0)
(2.08766e-12 -4.28556e-09 0)
(2.08311e-12 -4.28464e-09 0)
(2.083e-12 -4.28486e-09 0)
(2.08167e-12 -4.2848e-09 0)
(2.08078e-12 -4.28481e-09 0)
(2.07989e-12 -4.28481e-09 0)
(2.07956e-12 -4.28481e-09 0)
(2.07911e-12 -4.28481e-09 0)
(2.07856e-12 -4.28481e-09 0)
(2.07867e-12 -4.28481e-09 0)
(2.07856e-12 -4.28481e-09 0)
(2.07834e-12 -4.28481e-09 0)
(2.07845e-12 -4.28481e-09 0)
(2.07845e-12 -4.28481e-09 0)
(-1.20954e-11 -1.60616e-10 0)
(4.8076e-12 -5.26349e-09 0)
(1.02962e-12 -4.05295e-09 0)
(2.34512e-12 -4.33991e-09 0)
(2.03415e-12 -4.27181e-09 0)
(2.12141e-12 -4.28792e-09 0)
(2.08766e-12 -4.28409e-09 0)
(2.09088e-12 -4.28499e-09 0)
(2.085e-12 -4.28477e-09 0)
(2.08333e-12 -4.28482e-09 0)
(2.08156e-12 -4.28481e-09 0)
(2.08045e-12 -4.28481e-09 0)
(2.07945e-12 -4.28481e-09 0)
(2.079e-12 -4.28481e-09 0)
(2.07845e-12 -4.28481e-09 0)
(2.07834e-12 -4.28481e-09 0)
(2.07812e-12 -4.28481e-09 0)
(2.07812e-12 -4.28481e-09 0)
(2.07834e-12 -4.28481e-09 0)
(2.07834e-12 -4.28481e-09 0)
(3.43947e-12 -8.40044e-09 0)
(4.70135e-12 -3.3091e-09 0)
(1.01097e-12 -4.51655e-09 0)
(2.74336e-12 -4.22988e-09 0)
(1.94444e-12 -4.29787e-09 0)
(2.18003e-12 -4.28172e-09 0)
(2.07867e-12 -4.28555e-09 0)
(2.09888e-12 -4.28463e-09 0)
(2.08533e-12 -4.28485e-09 0)
(2.08489e-12 -4.2848e-09 0)
(2.08222e-12 -4.28481e-09 0)
(2.08145e-12 -4.28481e-09 0)
(2.08045e-12 -4.28481e-09 0)
(2.07989e-12 -4.28481e-09 0)
(2.07945e-12 -4.28481e-09 0)
(2.07923e-12 -4.28481e-09 0)
(2.079e-12 -4.28481e-09 0)
(2.07845e-12 -4.28481e-09 0)
(2.07845e-12 -4.28481e-09 0)
(2.07845e-12 -4.28481e-09 0)
)
;

boundaryField
{
    movingWall
    {
        type            calculated;
        value           uniform (2.07834e-12 -4.28481e-09 0);
    }
    fixedWalls
    {
        type            calculated;
        value           uniform (2.07834e-12 -4.28481e-09 0);
    }
    frontAndBack
    {
        type            empty;
    }
}


// ************************************************************************* //
