/*--------------------------------*- C++ -*----------------------------------*\
| =========                 |                                                 |
| \\      /  F ield         | OpenFOAM: The Open Source CFD Toolbox           |
|  \\    /   O peration     | Version:  2506                                  |
|   \\  /    A nd           | Website:  www.openfoam.com                      |
|    \\/     M anipulation  |                                                 |
\*---------------------------------------------------------------------------*/
FoamFile
{
    version     2.0;
    format      ascii;
    arch        "LSB;label=32;scalar=64";
    class       volScalarField;
    location    "4.875";
    object      divU;
}
// * * * * * * * * * * * * * * * * * * * * * * * * * * * * * * * * * * * * * //

dimensions      [0 0 -1 0 0 0 0];

internalField   nonuniform List<scalar> 
400
(
-3.69144e-10
3.57184e-10
-2.59755e-10
1.36816e-10
-5.73777e-11
1.74859e-11
-6.72234e-12
1.75984e-12
-7.03637e-13
1.70883e-13
-8.16004e-14
1.81604e-15
-2.1496e-14
1.0199e-15
2.75733e-15
-2.48605e-14
2.36121e-14
1.14089e-14
-1.43516e-14
0
5.47007e-10
-4.80393e-10
9.82558e-11
-2.38589e-11
9.33918e-12
-3.84741e-13
4.24598e-13
-2.96099e-14
-5.4391e-14
-4.01914e-14
-1.10574e-14
-6.85608e-15
1.57108e-14
8.49849e-15
4.7164e-14
-1.61039e-14
-1.32712e-14
-8.4361e-15
-3.42805e-14
5.42101e-14
-9.18753e-10
1.67102e-09
-3.52217e-10
1.42518e-10
-3.13641e-11
1.07645e-11
-2.69739e-12
9.4716e-13
-1.71576e-13
6.75724e-14
-4.6824e-14
3.187e-16
-1.87868e-14
-7.133e-15
-4.39646e-14
2.40125e-14
1.82394e-14
2.2428e-14
-8.12128e-15
-2.71051e-14
4.6477e-10
-2.02617e-09
3.73025e-10
-1.64572e-10
3.40903e-11
-1.00472e-11
3.17759e-12
-6.18923e-13
2.51362e-13
-5.63322e-14
1.60503e-14
-8.8267e-15
4.54349e-14
-6.93616e-15
3.8895e-15
-2.18012e-14
-1.37217e-14
-1.24923e-14
1.48255e-14
-2.71051e-14
-2.16868e-10
2.30444e-09
-4.3728e-10
1.86437e-10
-4.14447e-11
1.19299e-11
-3.6731e-12
9.76113e-13
-2.46229e-13
7.2182e-14
-2.59707e-14
-6.14489e-15
-1.75133e-14
-2.54589e-14
1.13158e-14
-3.60716e-14
7.49921e-14
-1.35635e-14
1.21912e-14
0
-1.84043e-11
-2.23689e-09
4.18496e-10
-1.80466e-10
3.96967e-11
-1.14773e-11
3.49137e-12
-8.59087e-13
2.65031e-13
-4.67851e-14
-3.40243e-15
-1.65823e-14
3.10841e-14
5.22452e-14
-7.54195e-15
-1.76875e-14
-1.5017e-14
-5.8733e-14
5.77617e-14
0
1.32679e-10
2.16958e-09
-4.09305e-10
1.74673e-10
-3.8943e-11
1.11815e-11
-3.40775e-12
8.11365e-13
-2.0001e-13
1.43101e-14
2.4086e-14
2.07566e-14
-2.11997e-15
-3.52519e-16
-3.92574e-14
-5.49834e-14
7.64516e-14
2.50471e-14
2.06297e-14
-2.71051e-14
-2.91461e-10
-1.96475e-09
3.66245e-10
-1.57769e-10
3.50719e-11
-1.00975e-11
3.01159e-12
-8.05832e-13
2.90275e-13
-6.00388e-14
3.59247e-14
-7.64218e-14
3.83645e-14
2.86316e-14
-3.62196e-14
1.83612e-14
-2.63513e-14
-6.15326e-14
3.86961e-14
0
3.76001e-10
1.80868e-09
-3.38511e-10
1.44784e-10
-3.23351e-11
9.21181e-12
-2.82663e-12
7.59198e-13
-2.12029e-13
6.02124e-14
-8.82526e-15
1.68693e-14
5.35016e-15
-1.35893e-15
-4.5096e-14
2.97112e-14
3.68494e-14
-2.14381e-14
3.1043e-14
-2.71051e-14
-4.89355e-10
-1.58573e-09
2.92861e-10
-1.26325e-10
2.80628e-11
-8.04882e-12
2.45273e-12
-6.54866e-13
1.2191e-13
-1.15124e-14
2.82288e-14
3.3434e-15
1.66357e-14
-5.77712e-14
2.5468e-14
8.12132e-15
-4.06241e-14
9.07136e-14
-1.10532e-14
0
5.34132e-10
1.43473e-09
-2.66273e-10
1.14022e-10
-2.54566e-11
7.21123e-12
-2.20712e-12
6.22298e-13
-1.69427e-13
3.53916e-14
-4.14682e-14
2.16462e-14
-1.54414e-14
-2.299e-14
3.06744e-15
7.76764e-15
-1.31274e-15
7.56125e-15
2.71773e-14
-2.71051e-14
-6.07045e-10
-1.23934e-09
2.26291e-10
-9.79829e-11
2.17173e-11
-6.14355e-12
1.82535e-12
-4.91489e-13
9.84859e-14
-1.14331e-14
4.22357e-14
4.0094e-14
-5.08948e-15
-2.23528e-14
-5.9657e-15
-1.32008e-14
5.004e-14
-4.51444e-14
3.62953e-14
0
6.12764e-10
1.13219e-09
-2.08801e-10
8.93292e-11
-1.99997e-11
5.68358e-12
-1.73574e-12
3.89708e-13
-1.53534e-13
4.1934e-14
-4.73023e-14
6.72926e-14
1.42381e-14
-1.22916e-14
-7.99916e-15
1.23967e-14
-3.53048e-14
-1.7703e-14
4.26793e-14
0
-6.62908e-10
-9.75807e-10
1.75802e-10
-7.66022e-11
1.68286e-11
-4.83137e-12
1.46452e-12
-3.14365e-13
1.14228e-13
-7.58374e-14
7.36931e-14
-4.52038e-17
-7.82103e-15
-3.62846e-14
-5.75573e-14
3.24887e-14
-1.02616e-14
3.30242e-14
1.23714e-14
-2.71051e-14
6.42065e-10
9.29059e-10
-1.71286e-10
7.30426e-11
-1.6474e-11
4.59949e-12
-1.4143e-12
3.92202e-13
-9.80966e-14
3.06302e-14
-5.76566e-15
-2.75154e-14
3.3549e-14
-2.92235e-14
5.55643e-14
-6.3795e-15
-4.64502e-14
3.62786e-14
2.26774e-14
-2.71051e-14
-7.03593e-10
-7.98259e-10
1.40419e-10
-6.21703e-11
1.33961e-11
-3.82469e-12
1.08939e-12
-2.21773e-13
1.02663e-13
-3.08596e-14
5.35211e-14
-1.98689e-14
-1.69297e-14
-5.13458e-14
5.65741e-14
-3.37701e-15
1.08113e-14
2.02309e-14
-3.73385e-15
0
6.5746e-10
8.37614e-10
-1.59121e-10
6.56339e-11
-1.5496e-11
4.42257e-12
-1.26651e-12
3.94417e-13
-5.48879e-14
1.74573e-14
-3.53889e-14
1.34252e-14
2.05043e-15
4.01003e-14
3.28557e-14
-3.35052e-14
9.32653e-15
-2.03364e-14
-1.60124e-15
0
-7.3864e-10
-6.77675e-10
9.38808e-11
-4.59552e-11
9.10149e-12
-1.37801e-12
7.63379e-13
2.1535e-14
4.42466e-14
-1.69208e-15
-7.02852e-15
6.29815e-15
9.44837e-15
-1.38823e-14
3.82753e-14
1.59785e-14
-1.58836e-15
-8.92437e-15
3.15847e-14
-2.71051e-14
4.23571e-10
8.65506e-10
-1.54596e-10
8.06443e-11
-1.52404e-11
6.11486e-12
-1.68295e-12
4.6358e-13
-2.00486e-13
1.61464e-14
-1.59333e-14
-1.32205e-14
1.45131e-14
1.6552e-14
4.64313e-15
-4.4328e-14
3.59667e-15
5.4508e-14
9.91021e-15
0
-4.5756e-10
5.39662e-11
-2.07164e-10
1.11077e-10
-4.94396e-11
1.58294e-11
-5.8818e-12
1.65341e-12
-6.50521e-13
1.35525e-13
-2.71051e-14
2.71051e-14
-5.42101e-14
0
0
5.42101e-14
-5.42101e-14
0
2.71051e-14
-2.71051e-14
)
;

boundaryField
{
    movingWall
    {
        type            extrapolatedCalculated;
        value           nonuniform List<scalar> 
20
(
-4.5756e-10
5.39662e-11
-2.07164e-10
1.11077e-10
-4.94396e-11
1.58294e-11
-5.8818e-12
1.65341e-12
-6.50521e-13
1.35525e-13
-2.71051e-14
2.71051e-14
-5.42101e-14
0
0
5.42101e-14
-5.42101e-14
0
2.71051e-14
-2.71051e-14
)
;
    }
    fixedWalls
    {
        type            extrapolatedCalculated;
        value           nonuniform List<scalar> 
60
(
-3.69144e-10
5.47007e-10
-9.18753e-10
4.6477e-10
-2.16868e-10
-1.84043e-11
1.32679e-10
-2.91461e-10
3.76001e-10
-4.89355e-10
5.34132e-10
-6.07045e-10
6.12764e-10
-6.62908e-10
6.42065e-10
-7.03593e-10
6.5746e-10
-7.3864e-10
4.23571e-10
-4.5756e-10
0
5.42101e-14
-2.71051e-14
-2.71051e-14
0
0
-2.71051e-14
0
-2.71051e-14
0
-2.71051e-14
0
0
-2.71051e-14
-2.71051e-14
0
0
-2.71051e-14
0
-2.71051e-14
-3.69144e-10
3.57184e-10
-2.59755e-10
1.36816e-10
-5.73777e-11
1.74859e-11
-6.72234e-12
1.75984e-12
-7.03637e-13
1.70883e-13
-8.16004e-14
1.81604e-15
-2.1496e-14
1.0199e-15
2.75733e-15
-2.48605e-14
2.36121e-14
1.14089e-14
-1.43516e-14
0
)
;
    }
    frontAndBack
    {
        type            empty;
    }
}


// ************************************************************************* //
