/*--------------------------------*- C++ -*----------------------------------*\
| =========                 |                                                 |
| \\      /  F ield         | OpenFOAM: The Open Source CFD Toolbox           |
|  \\    /   O peration     | Version:  2506                                  |
|   \\  /    A nd           | Website:  www.openfoam.com                      |
|    \\/     M anipulation  |                                                 |
\*---------------------------------------------------------------------------*/
FoamFile
{
    version     2.0;
    format      ascii;
    arch        "LSB;label=32;scalar=64";
    class       volScalarField;
    location    "4.875";
    object      enstrophyField;
}
// * * * * * * * * * * * * * * * * * * * * * * * * * * * * * * * * * * * * * //

dimensions      [0 0 -2 0 0 0 0];

internalField   nonuniform List<scalar> 
400
(
5.33409e-14
8.18351e-14
4.61352e-15
2.61829e-16
1.46711e-17
8.4939e-19
4.55474e-20
2.99771e-21
1.09384e-22
1.80227e-23
4.11687e-26
6.3807e-25
1.52863e-25
8.84191e-26
4.13436e-26
1.147e-26
2.98979e-27
2.59252e-27
3.51591e-29
2.5115e-29
5.28276e-14
8.19074e-14
4.62384e-15
2.61008e-16
1.47343e-17
8.31742e-19
4.69337e-20
2.65559e-21
1.48265e-22
8.53738e-24
3.91621e-25
5.19728e-26
5.02701e-29
2.1323e-27
1.57138e-28
6.76725e-28
2.89851e-27
1.1173e-27
5.56238e-28
2.97845e-30
5.26741e-14
8.16495e-14
4.60026e-15
2.59171e-16
1.46007e-17
8.22744e-19
4.63385e-20
2.61363e-21
1.46223e-22
8.47045e-24
4.21678e-25
3.60549e-26
1.41917e-29
6.6316e-27
8.95924e-28
4.7263e-27
3.0293e-28
1.51541e-27
5.08531e-27
5.38183e-29
5.30008e-14
8.15524e-14
4.59291e-15
2.58644e-16
1.45665e-17
8.20159e-19
4.62412e-20
2.59834e-21
1.47827e-22
8.09566e-24
5.40601e-25
1.29677e-26
4.42688e-27
1.03681e-27
6.1056e-28
1.64807e-27
8.30408e-30
1.25953e-30
4.034e-28
2.07456e-27
5.29284e-14
8.11765e-14
4.57055e-15
2.57324e-16
1.4487e-17
8.15704e-19
4.5919e-20
2.58654e-21
1.44931e-22
8.17016e-24
4.52951e-25
3.5694e-26
8.7257e-28
2.67113e-28
1.87491e-27
8.61722e-28
2.30731e-27
1.05146e-32
3.73192e-28
1.00467e-27
5.27993e-14
8.07742e-14
4.54728e-15
2.55974e-16
1.44091e-17
8.11055e-19
4.56739e-20
2.56598e-21
1.46017e-22
7.75122e-24
5.03015e-25
9.81647e-27
1.43667e-26
1.59487e-27
6.27282e-27
4.60093e-28
1.61662e-28
1.96288e-27
1.03005e-27
9.55897e-28
5.25417e-14
8.02969e-14
4.52003e-15
2.54421e-16
1.43207e-17
8.06117e-19
4.53528e-20
2.55634e-21
1.43237e-22
8.50546e-24
3.33232e-25
4.36207e-26
5.35102e-28
4.10132e-27
7.36345e-29
3.66031e-27
1.25848e-27
5.88731e-27
3.13875e-28
9.41413e-28
5.22757e-14
7.98391e-14
4.49408e-15
2.52949e-16
1.42378e-17
8.01375e-19
4.50887e-20
2.53766e-21
1.42964e-22
7.8767e-24
5.84255e-25
8.92918e-27
4.6866e-27
3.03521e-31
1.18432e-28
9.10614e-28
1.41046e-26
1.55298e-27
2.96652e-27
5.00203e-28
5.19765e-14
7.93678e-14
4.46745e-15
2.51451e-16
1.41517e-17
7.96743e-19
4.47945e-20
2.5365e-21
1.40916e-22
8.13525e-24
4.31584e-25
2.87078e-26
2.20073e-27
1.9198e-28
5.19229e-28
1.38768e-30
5.72974e-28
8.75787e-28
4.32755e-28
4.15411e-28
5.16867e-14
7.89241e-14
4.44248e-15
2.50038e-16
1.40734e-17
7.92085e-19
4.45988e-20
2.51043e-21
1.42188e-22
7.97174e-24
4.21547e-25
1.99163e-26
6.23584e-27
4.75901e-28
1.53265e-27
5.63115e-27
3.01315e-27
1.64978e-28
4.49352e-29
7.63811e-30
5.13971e-14
7.8493e-14
4.41821e-15
2.48673e-16
1.39966e-17
7.87753e-19
4.43545e-20
2.49507e-21
1.41155e-22
7.913e-24
4.35298e-25
2.83885e-26
6.65395e-30
1.05509e-28
8.5585e-28
8.35508e-29
1.24295e-26
2.09594e-29
2.35043e-27
2.53924e-29
5.11166e-14
7.80851e-14
4.39529e-15
2.47386e-16
1.39242e-17
7.83702e-19
4.41295e-20
2.48012e-21
1.39634e-22
7.77567e-24
4.48218e-25
2.81321e-26
9.63706e-29
5.45667e-28
4.21811e-29
2.55735e-27
3.73979e-27
1.92632e-27
4.73912e-29
3.14895e-30
5.08542e-14
7.77037e-14
4.37388e-15
2.46183e-16
1.38568e-17
7.79868e-19
4.39085e-20
2.47384e-21
1.38149e-22
8.10786e-24
4.20458e-25
1.55066e-26
1.79141e-27
1.86151e-27
6.43445e-28
2.68738e-27
3.33304e-27
1.51297e-29
1.26272e-27
2.70295e-29
5.05909e-14
7.7333e-14
4.35307e-15
2.45016e-16
1.3791e-17
7.76278e-19
4.36704e-20
2.46313e-21
1.38523e-22
7.77508e-24
4.22061e-25
8.34968e-27
3.63214e-27
6.81442e-29
1.14522e-27
1.07686e-27
2.82732e-28
6.45733e-28
3.69041e-30
4.474e-28
5.03616e-14
7.69983e-14
4.3343e-15
2.43962e-16
1.37317e-17
7.72999e-19
4.34995e-20
2.44569e-21
1.38884e-22
7.40501e-24
4.67978e-25
1.22508e-26
2.39506e-28
1.98097e-28
3.37156e-29
2.37542e-27
2.70142e-28
4.9502e-28
8.4405e-28
9.46921e-28
5.01043e-14
7.665e-14
4.31476e-15
2.42866e-16
1.36705e-17
7.69384e-19
4.33255e-20
2.43917e-21
1.37236e-22
7.7646e-24
3.96111e-25
2.48533e-26
2.7835e-28
4.26779e-28
1.07053e-28
2.23068e-28
7.52607e-28
7.09243e-28
1.77963e-27
9.27518e-29
4.9923e-14
7.63546e-14
4.2982e-15
2.41939e-16
1.36182e-17
7.66564e-19
4.31337e-20
2.42859e-21
1.36358e-22
7.85168e-24
4.05954e-25
2.24901e-26
2.69619e-27
6.855e-28
1.82659e-27
2.35576e-27
7.09943e-29
2.00427e-30
2.7425e-28
2.49282e-28
4.96245e-14
7.59948e-14
4.27801e-15
2.40807e-16
1.35545e-17
7.6311e-19
4.29397e-20
2.41482e-21
1.36317e-22
7.60863e-24
4.60129e-25
2.47353e-26
2.77688e-29
2.30061e-27
9.38499e-27
7.7714e-27
1.53807e-27
4.5592e-27
1.58055e-28
7.96274e-29
4.97806e-14
7.59422e-14
4.28157e-15
2.41373e-16
1.36073e-17
7.67188e-19
4.32471e-20
2.43848e-21
1.37727e-22
7.59719e-24
4.67826e-25
4.12586e-26
3.53177e-28
7.60708e-28
3.20302e-27
4.20765e-28
3.42063e-28
6.19951e-28
6.0138e-29
1.1231e-28
4.96986e-14
7.56308e-14
4.25873e-15
2.41148e-16
1.35275e-17
7.77502e-19
4.22761e-20
2.66833e-21
1.11453e-22
1.34881e-23
1.22307e-26
3.24492e-25
4.54061e-26
3.0252e-26
8.13806e-27
3.37618e-27
2.50503e-27
1.03979e-28
5.85724e-28
6.38313e-28
)
;

boundaryField
{
    movingWall
    {
        type            calculated;
        value           nonuniform List<scalar> 
20
(
4.91247e-14
7.58308e-14
4.27863e-15
2.44959e-16
1.37141e-17
8.10523e-19
4.25136e-20
3.03898e-21
9.1323e-23
2.2101e-23
2.40249e-25
1.13544e-24
3.36085e-25
2.1181e-25
9.51099e-26
6.34139e-26
4.00516e-26
1.73046e-27
1.32769e-27
1.40629e-27
)
;
    }
    fixedWalls
    {
        type            calculated;
        value           nonuniform List<scalar> 
60
(
1.46848e-12
1.46889e-12
1.46657e-12
1.46498e-12
1.45834e-12
1.45117e-12
1.44263e-12
1.43442e-12
1.42597e-12
1.418e-12
1.41025e-12
1.40292e-12
1.39606e-12
1.38939e-12
1.38336e-12
1.3771e-12
1.37177e-12
1.36529e-12
1.36234e-12
1.35718e-12
1.01611e-29
1.51552e-28
6.10121e-29
9.91447e-28
6.11437e-28
1.43775e-27
2.0347e-27
1.0284e-27
8.68465e-28
1.14436e-28
1.10271e-28
5.53556e-30
2.04048e-29
2.73846e-28
2.34431e-28
1.49027e-31
2.20173e-28
7.93259e-30
2.56297e-28
6.78282e-28
5.36678e-14
8.23e-14
4.65354e-15
2.67398e-16
1.49144e-17
8.94964e-19
4.55306e-20
3.53925e-21
7.7706e-23
3.46743e-23
1.70695e-24
2.41778e-24
9.86736e-25
4.73985e-25
2.03668e-25
5.33981e-26
1.22218e-26
1.9348e-27
3.51591e-29
2.5115e-29
)
;
    }
    frontAndBack
    {
        type            empty;
    }
}


// ************************************************************************* //
