/*--------------------------------*- C++ -*----------------------------------*\
| =========                 |                                                 |
| \\      /  F ield         | OpenFOAM: The Open Source CFD Toolbox           |
|  \\    /   O peration     | Version:  2506                                  |
|   \\  /    A nd           | Website:  www.openfoam.com                      |
|    \\/     M anipulation  |                                                 |
\*---------------------------------------------------------------------------*/
FoamFile
{
    version     2.0;
    format      ascii;
    arch        "LSB;label=32;scalar=64";
    class       volScalarField;
    location    "4.875";
    object      epsilonzeroGrad;
}
// * * * * * * * * * * * * * * * * * * * * * * * * * * * * * * * * * * * * * //

dimensions      [0 2 -3 0 0 0 0];

internalField   nonuniform List<scalar> 
400
(
9.76249e-06
9.76244e-06
9.76241e-06
9.76237e-06
9.76236e-06
9.76232e-06
9.7623e-06
9.76228e-06
9.76227e-06
9.76225e-06
9.76224e-06
9.76223e-06
9.76223e-06
9.76221e-06
9.76222e-06
9.76221e-06
9.76221e-06
9.7622e-06
9.7622e-06
9.7622e-06
1.12875e-05
1.10126e-05
1.10346e-05
1.10438e-05
1.10623e-05
1.10717e-05
1.10904e-05
1.11001e-05
1.1119e-05
1.1129e-05
1.1148e-05
1.11584e-05
1.11775e-05
1.11883e-05
1.12074e-05
1.12187e-05
1.12379e-05
1.12496e-05
1.12593e-05
1.12749e-05
1.33983e-05
1.30476e-05
1.3076e-05
1.30878e-05
1.31116e-05
1.31237e-05
1.31477e-05
1.316e-05
1.31842e-05
1.31968e-05
1.32212e-05
1.32342e-05
1.32586e-05
1.32721e-05
1.32965e-05
1.33105e-05
1.33349e-05
1.33495e-05
1.33617e-05
1.33813e-05
1.52477e-05
1.48289e-05
1.48626e-05
1.48767e-05
1.4905e-05
1.49193e-05
1.49479e-05
1.49626e-05
1.49914e-05
1.50065e-05
1.50355e-05
1.5051e-05
1.50801e-05
1.50962e-05
1.51253e-05
1.51421e-05
1.51711e-05
1.51885e-05
1.52031e-05
1.52265e-05
1.65342e-05
1.60657e-05
1.61033e-05
1.6119e-05
1.61506e-05
1.61666e-05
1.61985e-05
1.62148e-05
1.62471e-05
1.62638e-05
1.62962e-05
1.63136e-05
1.63461e-05
1.63641e-05
1.63966e-05
1.64154e-05
1.64479e-05
1.64674e-05
1.64837e-05
1.65098e-05
1.73247e-05
1.6825e-05
1.6865e-05
1.68818e-05
1.69153e-05
1.69324e-05
1.69664e-05
1.69838e-05
1.70181e-05
1.7036e-05
1.70705e-05
1.70891e-05
1.71236e-05
1.71429e-05
1.71775e-05
1.71976e-05
1.72322e-05
1.7253e-05
1.72704e-05
1.72983e-05
1.77872e-05
1.72691e-05
1.73105e-05
1.73279e-05
1.73627e-05
1.73803e-05
1.74156e-05
1.74336e-05
1.74692e-05
1.74877e-05
1.75235e-05
1.75427e-05
1.75785e-05
1.75985e-05
1.76344e-05
1.76552e-05
1.7691e-05
1.77126e-05
1.77306e-05
1.77596e-05
1.80641e-05
1.7535e-05
1.75772e-05
1.75949e-05
1.76304e-05
1.76485e-05
1.76844e-05
1.77028e-05
1.77392e-05
1.77581e-05
1.77946e-05
1.78142e-05
1.78508e-05
1.78712e-05
1.79078e-05
1.79291e-05
1.79657e-05
1.79878e-05
1.80062e-05
1.80357e-05
1.82467e-05
1.77102e-05
1.7753e-05
1.7771e-05
1.7807e-05
1.78252e-05
1.78617e-05
1.78803e-05
1.79172e-05
1.79364e-05
1.79733e-05
1.79933e-05
1.80303e-05
1.8051e-05
1.80881e-05
1.81097e-05
1.81468e-05
1.81692e-05
1.81878e-05
1.82177e-05
1.83864e-05
1.78443e-05
1.78876e-05
1.79057e-05
1.79421e-05
1.79605e-05
1.79973e-05
1.80162e-05
1.80533e-05
1.80727e-05
1.81101e-05
1.81302e-05
1.81677e-05
1.81886e-05
1.8226e-05
1.82478e-05
1.82853e-05
1.8308e-05
1.83268e-05
1.8357e-05
1.85107e-05
1.79637e-05
1.80074e-05
1.80256e-05
1.80623e-05
1.80809e-05
1.81181e-05
1.81371e-05
1.81746e-05
1.81942e-05
1.82319e-05
1.82522e-05
1.82899e-05
1.83111e-05
1.83488e-05
1.83708e-05
1.84087e-05
1.84315e-05
1.84505e-05
1.8481e-05
1.86346e-05
1.80827e-05
1.81267e-05
1.81452e-05
1.81822e-05
1.8201e-05
1.82384e-05
1.82576e-05
1.82954e-05
1.83152e-05
1.83532e-05
1.83737e-05
1.84118e-05
1.84331e-05
1.84712e-05
1.84934e-05
1.85316e-05
1.85546e-05
1.85738e-05
1.86046e-05
1.8767e-05
1.82098e-05
1.82543e-05
1.82729e-05
1.83102e-05
1.83292e-05
1.8367e-05
1.83863e-05
1.84245e-05
1.84445e-05
1.84829e-05
1.85035e-05
1.8542e-05
1.85635e-05
1.8602e-05
1.86244e-05
1.86629e-05
1.86862e-05
1.87055e-05
1.87366e-05
1.89141e-05
1.83511e-05
1.8396e-05
1.84148e-05
1.84525e-05
1.84716e-05
1.85098e-05
1.85294e-05
1.8568e-05
1.85881e-05
1.86269e-05
1.86478e-05
1.86866e-05
1.87084e-05
1.87473e-05
1.87699e-05
1.88088e-05
1.88323e-05
1.88519e-05
1.88833e-05
1.90811e-05
1.85115e-05
1.85569e-05
1.85759e-05
1.8614e-05
1.86334e-05
1.8672e-05
1.86919e-05
1.87309e-05
1.87513e-05
1.87905e-05
1.88116e-05
1.88509e-05
1.88729e-05
1.89122e-05
1.89352e-05
1.89745e-05
1.89983e-05
1.90181e-05
1.90499e-05
1.92719e-05
1.86947e-05
1.87406e-05
1.87599e-05
1.87985e-05
1.88182e-05
1.88573e-05
1.88774e-05
1.89169e-05
1.89375e-05
1.89773e-05
1.89987e-05
1.90385e-05
1.90608e-05
1.91006e-05
1.91239e-05
1.91637e-05
1.91879e-05
1.92079e-05
1.92401e-05
1.94848e-05
1.88991e-05
1.89458e-05
1.89653e-05
1.90045e-05
1.90244e-05
1.90641e-05
1.90844e-05
1.91245e-05
1.91455e-05
1.91858e-05
1.92075e-05
1.92479e-05
1.92706e-05
1.9311e-05
1.93346e-05
1.9375e-05
1.93995e-05
1.94198e-05
1.94525e-05
1.9705e-05
1.91108e-05
1.9158e-05
1.91778e-05
1.92176e-05
1.92378e-05
1.9278e-05
1.92987e-05
1.93393e-05
1.93606e-05
1.94015e-05
1.94236e-05
1.94645e-05
1.94875e-05
1.95285e-05
1.95525e-05
1.95935e-05
1.96184e-05
1.9639e-05
1.96721e-05
1.98961e-05
1.93071e-05
1.9353e-05
1.93723e-05
1.94111e-05
1.94309e-05
1.94704e-05
1.94907e-05
1.95308e-05
1.95519e-05
1.95923e-05
1.96144e-05
1.9655e-05
1.96782e-05
1.97189e-05
1.97433e-05
1.97841e-05
1.98096e-05
1.98302e-05
1.98637e-05
1.99788e-05
1.99787e-05
1.99786e-05
1.99786e-05
1.99785e-05
1.99785e-05
1.99784e-05
1.99784e-05
1.99783e-05
1.99783e-05
1.99783e-05
1.99783e-05
1.99783e-05
1.99783e-05
1.99783e-05
1.99782e-05
1.99782e-05
1.99782e-05
1.99782e-05
1.99782e-05
)
;

boundaryField
{
    movingWall
    {
        type            zeroGradient;
    }
    fixedWalls
    {
        type            zeroGradient;
    }
    frontAndBack
    {
        type            empty;
    }
}


// ************************************************************************* //
