/*--------------------------------*- C++ -*----------------------------------*\
| =========                 |                                                 |
| \\      /  F ield         | OpenFOAM: The Open Source CFD Toolbox           |
|  \\    /   O peration     | Version:  2506                                  |
|   \\  /    A nd           | Website:  www.openfoam.com                      |
|    \\/     M anipulation  |                                                 |
\*---------------------------------------------------------------------------*/
FoamFile
{
    version     2.0;
    format      ascii;
    arch        "LSB;label=32;scalar=64";
    class       volScalarField;
    location    "4.875";
    object      flowTypeField;
}
// * * * * * * * * * * * * * * * * * * * * * * * * * * * * * * * * * * * * * //

dimensions      [0 0 0 0 0 0 0];

internalField   nonuniform List<scalar> 
400
(
0.000515405
-0.000632275
-0.00102105
-0.00328205
-0.00135478
-0.0115492
0.0104023
-0.0587237
0.137331
-0.377073
0.780025
-0.13898
0.172514
0.095254
0.130212
0.288442
0.278876
0.026117
0.656784
0.0792119
0.00604816
0.000221302
0.000526968
-0.00181542
-0.000288792
-0.00625435
0.00213554
-0.0225382
0.0338198
-0.0959178
0.317251
0.267646
0.958126
0.680395
0.842688
0.674696
0.141749
0.36464
0.427488
0.922041
0.00719737
0.00115519
0.00183384
0.00204849
0.00131169
0.00527473
-0.00369498
0.0206024
-0.040289
0.114245
-0.17285
0.474433
0.965
0.390226
0.694075
-0.0911711
0.565588
0.119976
-0.301409
0.584686
0.00295618
0.000493536
0.000668921
0.000667993
0.00101203
-0.000490486
0.00524357
-0.0136658
0.0394566
-0.135305
0.227196
0.3598
0.63974
0.671738
0.724517
0.428097
0.925526
0.961678
0.508992
-0.198155
0.00114482
0.000193853
0.000256669
0.000287105
0.000162355
0.00111415
-0.00261996
0.0113898
-0.0362303
0.108114
-0.585961
0.476612
0.778765
0.851783
0.467458
0.60225
0.203315
0.984526
0.528571
0.145671
-0.000326135
-3.87002e-05
-0.000131326
-7.81947e-05
-8.08198e-05
-0.000546319
0.00174093
-0.00758526
0.0238843
-0.0804461
0.217472
0.221513
0.338866
0.630025
0.0136995
0.637047
0.744684
0.238078
0.325743
0.0130145
-0.000907935
-0.000138186
-0.000255727
-0.000238375
-0.000310867
-0.000170026
-0.00138419
0.00437882
-0.0193982
0.0527019
-0.113628
0.356674
0.771344
0.425633
0.867588
0.149058
0.512507
-0.12516
0.568165
0.141863
-0.00129022
-0.00019865
-0.000361044
-0.000314785
-0.000421763
-0.00062373
0.000370036
-0.00378684
0.0138571
-0.04467
0.100518
0.29256
0.598335
0.988245
0.805172
0.51042
-0.684764
0.258456
0.0418931
0.0145086
-0.00139185
-0.000218841
-0.000373516
-0.000363874
-0.000399735
-0.000599711
-0.000593118
-0.000935511
-0.00457604
0.0265378
-0.0483113
0.39525
0.601657
0.823671
0.664345
0.978047
0.684939
0.0503945
0.250129
0.244837
-0.00140946
-0.000221298
-0.000378695
-0.000347952
-0.000441
-0.000533109
-0.000566353
-0.00189474
0.000659364
-0.0155017
0.130315
0.326697
0.432505
0.606053
0.476048
-0.0144608
0.334499
0.832182
0.40283
0.836647
-0.00133153
-0.00020995
-0.000353376
-0.000328423
-0.000411677
-0.000488869
-0.000612727
-0.000602326
-0.00297517
0.00677659
0.0469037
0.335145
0.970999
0.847366
0.581927
0.828596
-0.161558
0.776756
0.130266
0.348092
-0.00118504
-0.000187468
-0.000308875
-0.00029554
-0.000354119
-0.000395115
-0.000867093
0.0011677
-0.00418861
0.0248393
0.0188033
0.344694
0.883232
0.704309
0.89174
0.309202
0.24894
0.179905
0.774233
0.615845
-0.0010459
-0.000164347
-0.000276127
-0.000250707
-0.000317452
-0.000435119
1.34114e-05
-0.00336454
0.0115396
-0.0427885
0.150459
0.312102
0.66785
0.542025
0.66322
0.32242
-0.223738
0.725125
0.330624
0.715047
-0.00081095
-0.000129241
-0.00020403
-0.000204738
-0.000242125
-0.000142712
-0.000972324
0.00309459
-0.0159011
0.0541249
-0.134366
0.648284
0.488543
0.871997
0.471398
0.517202
0.432646
0.515866
0.906079
0.242283
-0.000703354
-0.000109095
-0.000191484
-0.000168696
-0.000157299
-0.000637995
0.00138411
-0.00574386
0.017738
-0.0561451
0.173372
0.1018
0.876965
0.758824
0.89891
0.364621
0.597263
0.221814
0.0291369
-0.0330769
-0.000352262
-5.86434e-05
-8.36505e-05
-7.4896e-05
-0.000209238
0.000573404
-0.00274263
0.00847071
-0.030125
0.0823122
-0.274277
0.462094
0.780137
0.738384
0.837217
0.554454
0.0030192
0.039036
-0.812517
0.0918652
-0.000523169
-8.17191e-05
-0.000146879
-0.000180542
9.45918e-05
-0.00141023
0.00368594
-0.0125719
0.0348614
-0.122706
0.250308
-0.0869059
0.598014
0.661353
0.331126
0.222765
0.742167
0.926913
0.00399184
0.0012431
0.000255521
2.04471e-05
7.83544e-05
0.00032147
-0.000456086
0.00232569
-0.00463802
0.0150275
-0.0373182
0.0965373
-0.288171
0.463528
0.924012
0.537878
-0.170213
-0.551116
-0.106313
-0.0938789
0.406671
0.513716
-0.00310306
-0.00125365
-0.00194082
-0.00387893
-0.00342031
-0.00879802
-0.0030788
-0.0229535
0.0158998
-0.0790244
0.164434
0.192724
0.862241
0.728874
0.441443
0.58936
0.512296
0.499137
0.585295
0.436232
-0.00407589
-0.00137763
-0.00229586
-0.00425181
-0.00337511
-0.0116808
0.00366714
-0.0472532
0.088793
-0.273722
0.831069
-0.271348
0.235692
0.0191558
0.250789
0.240686
0.417713
0.57769
-0.0409959
0.0889993
)
;

boundaryField
{
    movingWall
    {
        type            calculated;
        value           nonuniform List<scalar> 
20
(
0.764569
0.267791
0.267174
0.261907
0.264167
0.248511
0.273231
0.192056
0.395319
-0.129928
0.628371
-0.198706
0.0746593
-0.0304603
0.0498595
0.040044
0.0541515
0.104503
-0.00351826
0.0108547
)
;
    }
    fixedWalls
    {
        type            calculated;
        value           nonuniform List<scalar> 
60
(
9.81813e-05
0.0011529
0.0013818
0.000577573
0.000235853
-4.59793e-05
-0.000157971
-0.000233787
-0.000255091
-0.000261018
-0.000247629
-0.000221476
-0.000195728
-0.000152065
-0.00013177
-6.56554e-05
-9.79393e-05
4.95664e-05
-0.000588963
-0.00077808
0.15445
0.751399
0.189541
0.18886
0.573742
0.00875421
0.374144
0.007211
0.516821
0.633973
0.621697
0.545398
0.749055
0.478563
0.211378
0.778666
0.00140422
0.863254
0.161508
0.275332
0.763731
0.267688
0.267031
0.261008
0.265178
0.245064
0.280431
0.17104
0.463051
-0.251272
0.397333
-0.129546
0.0510875
-0.0010254
0.0267725
0.0970845
0.0965244
0.0668941
0.704469
0.135603
)
;
    }
    frontAndBack
    {
        type            empty;
    }
}


// ************************************************************************* //
