/*--------------------------------*- C++ -*----------------------------------*\
| =========                 |                                                 |
| \\      /  F ield         | OpenFOAM: The Open Source CFD Toolbox           |
|  \\    /   O peration     | Version:  2506                                  |
|   \\  /    A nd           | Website:  www.openfoam.com                      |
|    \\/     M anipulation  |                                                 |
\*---------------------------------------------------------------------------*/
FoamFile
{
    version     2.0;
    format      ascii;
    arch        "LSB;label=32;scalar=64";
    class       surfaceScalarField;
    location    "4.875";
    object      fluxField;
}
// * * * * * * * * * * * * * * * * * * * * * * * * * * * * * * * * * * * * * //

dimensions      [0 3 -1 0 0 0 0];

oriented        oriented;

internalField   nonuniform List<scalar> 
760
(
-5e-05
-1.28025e-16
-5e-05
6.94619e-17
-5e-05
2.93225e-18
-5e-05
5.35739e-18
-5e-05
2.39294e-18
-5e-05
8.95259e-19
-5e-05
7.24988e-19
-5e-05
3.45091e-19
-5e-05
2.57772e-19
-5e-05
1.57917e-19
-5e-05
1.15125e-19
-5e-05
8.17692e-20
-5e-05
6.23886e-20
-5e-05
4.76888e-20
-5e-05
3.45707e-20
-5e-05
2.76662e-20
-5e-05
1.94556e-20
-5e-05
9.62848e-21
-5e-05
3.18836e-21
-8.06366e-22
-5e-05
-6.14775e-17
-5e-05
3.57896e-17
-5e-05
4.77727e-18
-5e-05
5.59558e-18
-5e-05
3.03275e-18
-5e-05
1.57078e-18
-5e-05
1.08871e-18
-5e-05
6.36343e-19
-5e-05
4.47188e-19
-5e-05
2.94884e-19
-5e-05
2.073e-19
-5e-05
1.47364e-19
-5e-05
1.12348e-19
-5e-05
8.34398e-20
-5e-05
5.92248e-20
-5e-05
4.34079e-20
-5e-05
3.05635e-20
-5e-05
1.82198e-20
-5e-05
4.98239e-21
-1.77852e-21
-5e-05
1.45142e-16
-5e-05
-4.80178e-17
-5e-05
1.73098e-17
-5e-05
-6.77599e-19
-5e-05
3.58377e-18
-5e-05
1.34266e-18
-5e-05
1.22301e-18
-5e-05
7.4501e-19
-5e-05
5.46641e-19
-5e-05
3.76035e-19
-5e-05
2.72897e-19
-5e-05
1.96591e-19
-5e-05
1.44381e-19
-5e-05
1.06637e-19
-5e-05
7.71003e-20
-5e-05
5.3437e-20
-5e-05
3.84412e-20
-5e-05
2.59358e-20
-5e-05
1.15222e-20
3.98637e-22
-5e-05
-2.80132e-16
-5e-05
7.48544e-17
-5e-05
-1.61939e-17
-5e-05
6.47368e-18
-5e-05
5.87581e-19
-5e-05
1.63527e-18
-5e-05
9.57027e-19
-5e-05
7.73617e-19
-5e-05
5.50731e-19
-5e-05
4.06045e-19
-5e-05
3.02168e-19
-5e-05
2.2141e-19
-5e-05
1.60437e-19
-5e-05
1.20239e-19
-5e-05
8.90638e-20
-5e-05
6.23123e-20
-5e-05
4.40034e-20
-5e-05
3.07582e-20
-5e-05
1.72589e-20
3.27464e-21
-5e-05
2.92602e-16
-5e-05
-7.33808e-17
-5e-05
1.93002e-17
-5e-05
-3.17587e-18
-5e-05
2.36465e-18
-5e-05
7.80197e-19
-5e-05
9.31645e-19
-5e-05
6.5738e-19
-5e-05
5.21202e-19
-5e-05
3.9074e-19
-5e-05
2.98439e-19
-5e-05
2.2208e-19
-5e-05
1.65028e-19
-5e-05
1.22384e-19
-5e-05
9.09204e-20
-5e-05
6.5521e-20
-5e-05
4.58531e-20
-5e-05
3.04904e-20
-5e-05
1.66003e-20
5.53708e-21
-5e-05
-3.25471e-16
-5e-05
7.99546e-17
-5e-05
-1.83109e-17
-5e-05
5.49551e-18
-5e-05
-2.33442e-19
-5e-05
1.07447e-18
-5e-05
6.2212e-19
-5e-05
5.78051e-19
-5e-05
4.45728e-19
-5e-05
3.54222e-19
-5e-05
2.702e-19
-5e-05
2.05919e-19
-5e-05
1.56849e-19
-5e-05
1.14705e-19
-5e-05
8.62059e-20
-5e-05
6.33408e-20
-5e-05
4.36796e-20
-5e-05
2.59743e-20
-5e-05
1.44404e-20
7.33847e-21
-5e-05
3.10013e-16
-5e-05
-7.44276e-17
-5e-05
1.83657e-17
-5e-05
-3.68423e-18
-5e-05
1.64838e-18
-5e-05
3.35587e-19
-5e-05
5.77853e-19
-5e-05
4.26458e-19
-5e-05
3.70126e-19
-5e-05
2.94957e-19
-5e-05
2.29638e-19
-5e-05
1.74596e-19
-5e-05
1.34995e-19
-5e-05
1.01556e-19
-5e-05
7.82771e-20
-5e-05
6.0793e-20
-5e-05
3.94417e-20
-5e-05
1.98143e-20
-5e-05
1.19337e-20
6.82149e-21
-5e-05
-3.14456e-16
-5e-05
7.52004e-17
-5e-05
-1.75297e-17
-5e-05
4.63742e-18
-5e-05
-6.03586e-19
-5e-05
6.40149e-19
-5e-05
3.05664e-19
-5e-05
3.2709e-19
-5e-05
2.62304e-19
-5e-05
2.2216e-19
-5e-05
1.78388e-19
-5e-05
1.36749e-19
-5e-05
1.04459e-19
-5e-05
8.16968e-20
-5e-05
6.5484e-20
-5e-05
5.20241e-20
-5e-05
3.40698e-20
-5e-05
1.84982e-20
-5e-05
9.67402e-21
5.43927e-21
-5e-05
2.95426e-16
-5e-05
-6.98744e-17
-5e-05
1.68061e-17
-5e-05
-3.71614e-18
-5e-05
1.17261e-18
-5e-05
1.93526e-20
-5e-05
2.75901e-19
-5e-05
1.83023e-19
-5e-05
1.70609e-19
-5e-05
1.43802e-19
-5e-05
1.19766e-19
-5e-05
9.9085e-20
-5e-05
7.58764e-20
-5e-05
6.06466e-20
-5e-05
4.97124e-20
-5e-05
3.45328e-20
-5e-05
2.27649e-20
-5e-05
1.49693e-20
-5e-05
7.76076e-21
5.24438e-21
-5e-05
-2.86215e-16
-5e-05
6.76674e-17
-5e-05
-1.59536e-17
-5e-05
3.87901e-18
-5e-05
-8.04105e-19
-5e-05
3.05276e-19
-5e-05
4.39776e-20
-5e-05
1.00558e-19
-5e-05
7.79112e-20
-5e-05
7.16608e-20
-5e-05
6.12673e-20
-5e-05
5.5046e-20
-5e-05
4.48165e-20
-5e-05
3.97673e-20
-5e-05
3.34721e-20
-5e-05
2.23591e-20
-5e-05
1.01728e-20
-5e-05
2.3496e-21
-5e-05
4.01296e-21
3.56776e-21
-5e-05
2.70138e-16
-5e-05
-6.35119e-17
-5e-05
1.50112e-17
-5e-05
-3.58683e-18
-5e-05
7.84803e-19
-5e-05
-2.43624e-19
-5e-05
1.06504e-20
-5e-05
-3.41608e-20
-5e-05
-8.47551e-21
-5e-05
-4.70464e-21
-5e-05
3.18547e-21
-5e-05
5.41156e-21
-5e-05
9.69217e-21
-5e-05
1.45813e-20
-5e-05
1.43194e-20
-5e-05
8.71817e-21
-5e-05
-3.28184e-22
-5e-05
-4.88595e-21
-5e-05
1.80709e-23
1.13612e-21
-5e-05
-2.53364e-16
-5e-05
5.94989e-17
-5e-05
-1.42596e-17
-5e-05
3.13787e-18
-5e-05
-9.87796e-19
-5e-05
-4.4524e-21
-5e-05
-2.07736e-19
-5e-05
-1.22872e-19
-5e-05
-1.04128e-19
-5e-05
-7.73972e-20
-5e-05
-5.72037e-20
-5e-05
-3.74103e-20
-5e-05
-2.16012e-20
-5e-05
-1.23645e-20
-5e-05
-8.26769e-21
-5e-05
-1.00765e-20
-5e-05
-7.81878e-21
-5e-05
-4.50983e-21
-5e-05
-4.47869e-21
-1.08684e-21
-5e-05
2.44983e-16
-5e-05
-5.75213e-17
-5e-05
1.32516e-17
-5e-05
-3.55981e-18
-5e-05
3.60103e-19
-5e-05
-5.30669e-19
-5e-05
-2.64529e-19
-5e-05
-2.54939e-19
-5e-05
-1.87461e-19
-5e-05
-1.45371e-19
-5e-05
-1.06693e-19
-5e-05
-7.12683e-20
-5e-05
-5.06506e-20
-5e-05
-3.69542e-20
-5e-05
-2.91048e-20
-5e-05
-2.40059e-20
-5e-05
-1.56025e-20
-5e-05
-1.1202e-20
-5e-05
-9.65897e-21
-2.75748e-21
-5e-05
-2.23957e-16
-5e-05
5.23606e-17
-5e-05
-1.30176e-17
-5e-05
2.33021e-18
-5e-05
-1.30873e-18
-5e-05
-3.81138e-19
-5e-05
-4.94454e-19
-5e-05
-3.49642e-19
-5e-05
-2.76375e-19
-5e-05
-2.01918e-19
-5e-05
-1.44207e-19
-5e-05
-1.01655e-19
-5e-05
-7.64942e-20
-5e-05
-5.6505e-20
-5e-05
-4.14944e-20
-5e-05
-3.25354e-20
-5e-05
-2.28942e-20
-5e-05
-1.8849e-20
-5e-05
-1.04597e-20
-1.12194e-21
-5e-05
2.28709e-16
-5e-05
-5.39037e-17
-5e-05
1.16664e-17
-5e-05
-3.91128e-18
-5e-05
-2.22159e-19
-5e-05
-9.23665e-19
-5e-05
-5.70416e-19
-5e-05
-4.71156e-19
-5e-05
-3.43009e-19
-5e-05
-2.4984e-19
-5e-05
-1.77624e-19
-5e-05
-1.28852e-19
-5e-05
-9.32567e-20
-5e-05
-6.82923e-20
-5e-05
-4.70953e-20
-5e-05
-3.54762e-20
-5e-05
-2.51651e-20
-5e-05
-1.80354e-20
-5e-05
-7.88317e-21
3.74861e-22
-5e-05
-2.04138e-16
-5e-05
4.73284e-17
-5e-05
-1.30881e-17
-5e-05
1.26255e-18
-5e-05
-1.97712e-18
-5e-05
-8.40975e-19
-5e-05
-7.91525e-19
-5e-05
-5.29782e-19
-5e-05
-3.87686e-19
-5e-05
-2.71989e-19
-5e-05
-1.96684e-19
-5e-05
-1.40493e-19
-5e-05
-9.91001e-20
-5e-05
-7.38228e-20
-5e-05
-5.36191e-20
-5e-05
-3.47256e-20
-5e-05
-2.44022e-20
-5e-05
-1.52711e-20
-5e-05
-7.70973e-21
-1.27741e-21
-5e-05
2.29185e-16
-5e-05
-5.43828e-17
-5e-05
8.83266e-18
-5e-05
-5.10617e-18
-5e-05
-1.27192e-18
-5e-05
-1.33381e-18
-5e-05
-8.11296e-19
-5e-05
-5.58693e-19
-5e-05
-3.7964e-19
-5e-05
-2.5991e-19
-5e-05
-1.8503e-19
-5e-05
-1.32169e-19
-5e-05
-9.43551e-20
-5e-05
-7.12901e-20
-5e-05
-5.27725e-20
-5e-05
-2.87051e-20
-5e-05
-1.79972e-20
-5e-05
-1.18604e-20
-5e-05
-7.17657e-21
-1.56047e-21
-5e-05
-1.78013e-16
-5e-05
3.75418e-17
-5e-05
-2.00673e-17
-5e-05
5.18751e-19
-5e-05
-3.498e-18
-5e-05
-8.05289e-19
-5e-05
-9.00134e-19
-5e-05
-4.35073e-19
-5e-05
-3.27752e-19
-5e-05
-2.03711e-19
-5e-05
-1.44059e-19
-5e-05
-1.00069e-19
-5e-05
-7.21768e-20
-5e-05
-5.09044e-20
-5e-05
-3.7865e-20
-5e-05
-2.31104e-20
-5e-05
-1.39496e-20
-5e-05
-9.00736e-21
-5e-05
-5.65636e-21
-5.27978e-22
-5e-05
2.13997e-16
-5e-05
-7.42101e-17
-5e-05
2.84872e-18
-5e-05
-4.42998e-18
-5e-05
-1.72301e-18
-5e-05
-6.05807e-19
-5e-05
-5.63038e-19
-5e-05
-2.43247e-19
-5e-05
-1.92423e-19
-5e-05
-1.1116e-19
-5e-05
-7.85222e-20
-5e-05
-5.0739e-20
-5e-05
-3.70293e-20
-5e-05
-2.29671e-20
-5e-05
-1.9168e-20
-5e-05
-1.78583e-20
-5e-05
-1.26534e-20
-5e-05
-6.70178e-21
-5e-05
-4.29871e-21
-8.86939e-22
-5e-05
-5e-05
-5e-05
-5e-05
-5e-05
-5e-05
-5e-05
-5e-05
-5e-05
-5e-05
-5e-05
-5e-05
-5e-05
-5e-05
-5e-05
-5e-05
-5e-05
-5e-05
-5e-05
)
;

boundaryField
{
    movingWall
    {
        type            calculated;
        value           uniform -0;
    }
    fixedWalls
    {
        type            calculated;
        value           nonuniform List<scalar> 
60
(
5e-05
5e-05
5e-05
5e-05
5e-05
5e-05
5e-05
5e-05
5e-05
5e-05
5e-05
5e-05
5e-05
5e-05
5e-05
5e-05
5e-05
5e-05
5e-05
5e-05
-5e-05
-5e-05
-5e-05
-5e-05
-5e-05
-5e-05
-5e-05
-5e-05
-5e-05
-5e-05
-5e-05
-5e-05
-5e-05
-5e-05
-5e-05
-5e-05
-5e-05
-5e-05
-5e-05
-5e-05
0
0
0
0
0
0
0
0
0
0
0
0
0
0
0
0
0
0
0
0
)
;
    }
    frontAndBack
    {
        type            empty;
    }
}


// ************************************************************************* //
