/*--------------------------------*- C++ -*----------------------------------*\
| =========                 |                                                 |
| \\      /  F ield         | OpenFOAM: The Open Source CFD Toolbox           |
|  \\    /   O peration     | Version:  2506                                  |
|   \\  /    A nd           | Website:  www.openfoam.com                      |
|    \\/     M anipulation  |                                                 |
\*---------------------------------------------------------------------------*/
FoamFile
{
    version     2.0;
    format      ascii;
    arch        "LSB;label=32;scalar=64";
    class       volTensorField;
    location    "4.875";
    object      gradU;
}
// * * * * * * * * * * * * * * * * * * * * * * * * * * * * * * * * * * * * * //

dimensions      [0 0 -1 0 0 0 0];

internalField   nonuniform List<tensor> 
400
(
(1.42952e-10 3.2679e-07 0 1.67997e-10 -5.12102e-10 0 0 0 0)
(7.93365e-11 -4.04306e-07 0 2.55736e-10 2.77848e-10 0 0 0 0)
(-2.71484e-10 9.59591e-08 0 -9.83642e-11 1.1729e-11 0 0 0 0)
(1.15386e-10 -2.28084e-08 0 7.51623e-11 2.14296e-11 0 0 0 0)
(-6.69495e-11 5.40908e-09 0 -7.75205e-12 9.57176e-12 0 0 0 0)
(1.39049e-11 -1.28841e-09 0 1.4962e-11 3.58104e-12 0 0 0 0)
(-9.62229e-12 3.04828e-10 0 3.00866e-12 2.89995e-12 0 0 0 0)
(3.79471e-13 -7.31204e-11 0 4.3097e-12 1.38036e-12 0 0 0 0)
(-1.73472e-12 1.70406e-11 0 2.24972e-12 1.03109e-12 0 0 0 0)
(-4.60786e-13 -4.24196e-12 0 1.76183e-12 6.31669e-13 0 0 0 0)
(-5.42101e-13 9.05677e-13 0 1.19262e-12 4.60501e-13 0 0 0 0)
(-3.25261e-13 -2.89407e-13 0 8.40257e-13 3.27077e-13 0 0 0 0)
(-2.71051e-13 1.62819e-14 0 5.69206e-13 2.49555e-13 0 0 0 0)
(-1.89735e-13 -4.10506e-14 0 3.79471e-13 1.90755e-13 0 0 0 0)
(-1.35525e-13 -1.65032e-14 0 2.71051e-13 1.38283e-13 0 0 0 0)
(-1.35525e-13 -1.59345e-14 0 1.35525e-13 1.10665e-13 0 0 0 0)
(-5.42101e-14 -2.31177e-14 0 5.42101e-14 7.78222e-14 0 0 0 0)
(-2.71051e-14 -1.77972e-14 0 5.42101e-14 3.85139e-14 0 0 0 0)
(-2.71051e-14 -8.3856e-15 0 0 1.27535e-14 0 0 0 0)
(0 -7.08731e-15 0 0 -3.22547e-15 0 0 0 0)
(2.80808e-10 -3.27024e-07 0 -1.97767e-09 2.66192e-10 0 0 0 0)
(-3.45698e-10 4.0483e-07 0 8.94196e-11 -1.34689e-10 0 0 0 0)
(9.08832e-11 -9.62155e-08 0 -5.06593e-11 7.38007e-12 0 0 0 0)
(-2.48011e-11 2.28063e-08 0 -4.14165e-11 9.52781e-13 0 0 0 0)
(6.77626e-12 -5.42693e-09 0 1.57209e-12 2.55925e-12 0 0 0 0)
(-3.08998e-12 1.28174e-09 0 -8.0231e-12 2.70206e-12 0 0 0 0)
(-1.02999e-12 -3.07028e-10 0 -6.50521e-13 1.45488e-12 0 0 0 0)
(-1.19262e-12 7.12515e-11 0 -1.6263e-12 1.16501e-12 0 0 0 0)
(-8.13152e-13 -1.77892e-11 0 -5.69206e-13 7.57667e-13 0 0 0 0)
(-5.96311e-13 3.67138e-12 0 -4.60786e-13 5.47867e-13 0 0 0 0)
(-3.79471e-13 -1.21027e-12 0 -3.25261e-13 3.68699e-13 0 0 0 0)
(-2.71051e-13 7.84605e-14 0 -2.43945e-13 2.62378e-13 0 0 0 0)
(-1.89735e-13 -1.52603e-13 0 -1.6263e-13 1.99837e-13 0 0 0 0)
(-1.35525e-13 -7.02213e-14 0 -1.35525e-13 1.43004e-13 0 0 0 0)
(-5.42101e-14 -6.35873e-14 0 -8.13152e-14 9.86168e-14 0 0 0 0)
(-8.13152e-14 -4.45259e-14 0 -8.13152e-14 6.29667e-14 0 0 0 0)
(-5.42101e-14 -4.90332e-14 0 2.71051e-14 4.44319e-14 0 0 0 0)
(-5.42101e-14 -4.72716e-14 0 0 3.43651e-14 0 0 0 0)
(-5.42101e-14 -3.33538e-14 0 0 7.17612e-15 0 0 0 0)
(5.42101e-14 -2.44068e-15 0 0 -3.88862e-15 0 0 0 0)
(-1.74521e-09 3.26921e-07 0 2.34735e-09 8.26479e-10 0 0 0 0)
(2.00626e-09 -4.04565e-07 0 -4.6225e-10 -3.3523e-10 0 0 0 0)
(-4.02347e-10 9.60947e-08 0 1.7537e-10 5.01299e-11 0 0 0 0)
(1.67618e-10 -2.28132e-08 0 -4.61057e-11 -2.50927e-11 0 0 0 0)
(-3.35561e-11 5.41083e-09 0 6.9931e-12 2.20406e-12 0 0 0 0)
(1.16823e-11 -1.28951e-09 0 -6.74916e-12 -9.12477e-13 0 0 0 0)
(-3.2255e-12 3.03291e-10 0 -1.13841e-12 5.37198e-13 0 0 0 0)
(5.14996e-13 -7.38176e-11 0 -1.51788e-12 4.34669e-13 0 0 0 0)
(-5.69206e-13 1.64234e-11 0 -6.77626e-13 3.97811e-13 0 0 0 0)
(-2.43945e-13 -4.63093e-12 0 -5.14996e-13 3.24604e-13 0 0 0 0)
(-2.98156e-13 6.20189e-13 0 -2.98156e-13 2.62389e-13 0 0 0 0)
(-1.89735e-13 -4.58268e-13 0 -1.89735e-13 1.9691e-13 0 0 0 0)
(-1.35525e-13 -1.03093e-13 0 -1.0842e-13 1.28133e-13 0 0 0 0)
(-1.0842e-13 -1.42271e-13 0 -2.71051e-14 9.27887e-14 0 0 0 0)
(-1.0842e-13 -9.65403e-14 0 -5.42101e-14 7.15018e-14 0 0 0 0)
(-2.71051e-14 -7.01194e-14 0 2.71051e-14 4.01164e-14 0 0 0 0)
(0 -5.17193e-14 0 -2.71051e-14 3.15106e-14 0 0 0 0)
(0 -5.50529e-14 0 0 3.08641e-14 0 0 0 0)
(-2.71051e-14 -4.66393e-14 0 5.42101e-14 2.61593e-14 0 0 0 0)
(-2.71051e-14 -1.03748e-14 0 0 8.70863e-15 0 0 0 0)
(2.16586e-09 -3.26533e-07 0 -9.53746e-10 -1.7011e-09 0 0 0 0)
(-2.51765e-09 4.04054e-07 0 1.9128e-10 4.91489e-10 0 0 0 0)
(5.07027e-10 -9.59054e-08 0 -6.27211e-11 -1.34015e-10 0 0 0 0)
(-1.93178e-10 2.27583e-08 0 1.43657e-11 2.86051e-11 0 0 0 0)
(4.60786e-11 -5.40275e-09 0 -5.25838e-12 -1.19847e-11 0 0 0 0)
(-1.12215e-11 1.28007e-09 0 -6.77626e-13 1.17046e-12 0 0 0 0)
(4.22839e-12 -3.05681e-10 0 -1.57209e-12 -1.06392e-12 0 0 0 0)
(-7.31836e-13 7.11122e-11 0 -9.75782e-13 1.1443e-13 0 0 0 0)
(2.43945e-13 -1.78993e-11 0 -7.04731e-13 1.63613e-14 0 0 0 0)
(-1.89735e-13 3.53595e-12 0 -4.87891e-13 1.20041e-13 0 0 0 0)
(-1.0842e-13 -1.33796e-12 0 -2.98156e-13 1.17084e-13 0 0 0 0)
(-1.0842e-13 -5.57958e-14 0 -2.1684e-13 9.92748e-14 0 0 0 0)
(-2.71051e-14 -2.56725e-13 0 -1.6263e-13 6.42216e-14 0 0 0 0)
(-5.42101e-14 -1.26852e-13 0 -8.13152e-14 5.44069e-14 0 0 0 0)
(-5.42101e-14 -1.1626e-13 0 -8.13152e-14 4.78541e-14 0 0 0 0)
(-5.42101e-14 -8.4517e-14 0 -2.71051e-14 3.55015e-14 0 0 0 0)
(-2.71051e-14 -5.82854e-14 0 -5.42101e-14 2.22489e-14 0 0 0 0)
(-2.71051e-14 -5.2623e-14 0 -5.42101e-14 1.92898e-14 0 0 0 0)
(0 -5.55093e-14 0 -2.71051e-14 2.29468e-14 0 0 0 0)
(-2.71051e-14 -3.73086e-14 0 2.71051e-14 1.1504e-14 0 0 0 0)
(-2.50779e-09 3.25712e-07 0 3.55212e-10 2.29094e-09 0 0 0 0)
(2.89739e-09 -4.02998e-07 0 -6.72747e-11 -5.92941e-10 0 0 0 0)
(-5.79262e-10 9.56318e-08 0 2.26869e-11 1.41977e-10 0 0 0 0)
(2.25026e-10 -2.26912e-08 0 -5.3668e-12 -3.85982e-11 0 0 0 0)
(-4.85452e-11 5.3834e-09 0 6.50521e-13 7.10828e-12 0 0 0 0)
(1.53415e-11 -1.27859e-09 0 -1.32815e-12 -3.42029e-12 0 0 0 0)
(-3.57787e-12 3.02235e-10 0 -8.13152e-13 -1.01527e-13 0 0 0 0)
(1.43657e-12 -7.27373e-11 0 -8.13152e-13 -4.64948e-13 0 0 0 0)
(-1.35525e-13 1.6429e-11 0 -5.96311e-13 -1.18119e-13 0 0 0 0)
(1.35525e-13 -4.53021e-12 0 -4.87891e-13 -6.12211e-14 0 0 0 0)
(0 5.99423e-13 0 -3.52366e-13 -1.4916e-14 0 0 0 0)
(0 -5.11131e-13 0 -2.43945e-13 2.68181e-15 0 0 0 0)
(-2.71051e-14 -1.4796e-13 0 -1.89735e-13 1.8367e-14 0 0 0 0)
(-2.71051e-14 -1.58639e-13 0 -1.35525e-13 8.5823e-15 0 0 0 0)
(0 -1.15446e-13 0 -5.42101e-14 7.4263e-15 0 0 0 0)
(-5.42101e-14 -9.57245e-14 0 -5.42101e-14 1.28347e-14 0 0 0 0)
(5.42101e-14 -6.79309e-14 0 0 7.39868e-15 0 0 0 0)
(0 -5.43551e-14 0 -5.42101e-14 -1.07121e-15 0 0 0 0)
(2.71051e-14 -5.44251e-14 0 -2.71051e-14 -2.63426e-15 0 0 0 0)
(-2.71051e-14 -4.48256e-14 0 0 9.04975e-15 0 0 0 0)
(2.45387e-09 -3.24835e-07 0 1.24629e-10 -2.47229e-09 0 0 0 0)
(-2.85023e-09 4.01905e-07 0 -2.61293e-11 6.13342e-10 0 0 0 0)
(5.68935e-10 -9.5351e-08 0 1.43386e-11 -1.50444e-10 0 0 0 0)
(-2.1516e-10 2.26235e-08 0 -2.81893e-12 3.46855e-11 0 0 0 0)
(5.00901e-11 -5.36757e-09 0 6.77626e-13 -1.03924e-11 0 0 0 0)
(-1.26581e-11 1.27286e-09 0 -7.58942e-13 1.17708e-12 0 0 0 0)
(4.71628e-12 -3.02726e-10 0 -4.87891e-13 -1.2381e-12 0 0 0 0)
(-5.42101e-13 7.10956e-11 0 -5.42101e-13 -3.17317e-13 0 0 0 0)
(5.69206e-13 -1.74956e-11 0 -4.06576e-13 -3.01892e-13 0 0 0 0)
(1.0842e-13 3.63916e-12 0 -2.98156e-13 -1.46072e-13 0 0 0 0)
(1.0842e-13 -1.27406e-12 0 -2.71051e-13 -1.12957e-13 0 0 0 0)
(5.42101e-14 -2.25127e-14 0 -1.6263e-13 -6.46475e-14 0 0 0 0)
(5.42101e-14 -2.50824e-13 0 -8.13152e-14 -3.27178e-14 0 0 0 0)
(8.13152e-14 -1.37793e-13 0 -8.13152e-14 -3.07161e-14 0 0 0 0)
(0 -1.12007e-13 0 0 -1.88577e-14 0 0 0 0)
(0 -8.45447e-14 0 -5.42101e-14 -8.7209e-15 0 0 0 0)
(0 -7.21913e-14 0 -5.42101e-14 -8.69392e-15 0 0 0 0)
(-5.42101e-14 -6.26559e-14 0 0 -1.80644e-14 0 0 0 0)
(5.42101e-14 -4.53883e-14 0 0 -8.6396e-15 0 0 0 0)
(0 -4.37241e-14 0 0 7.20557e-15 0 0 0 0)
(-2.40926e-09 3.23853e-07 0 -3.13009e-10 2.54194e-09 0 0 0 0)
(2.7871e-09 -4.00676e-07 0 6.554e-11 -6.17529e-10 0 0 0 0)
(-5.56006e-10 9.50532e-08 0 -2.6048e-11 1.46706e-10 0 0 0 0)
(2.11392e-10 -2.25512e-08 0 6.39679e-12 -3.67189e-11 0 0 0 0)
(-4.64581e-11 5.34989e-09 0 -1.87025e-12 7.52728e-12 0 0 0 0)
(1.41488e-11 -1.26944e-09 0 2.98156e-13 -2.95552e-12 0 0 0 0)
(-3.2255e-12 3.0074e-10 0 -4.33681e-13 -1.77066e-13 0 0 0 0)
(1.40946e-12 -7.18011e-11 0 -2.98156e-13 -6.06372e-13 0 0 0 0)
(1.0842e-13 1.66003e-11 0 -3.25261e-13 -3.0241e-13 0 0 0 0)
(2.43945e-13 -4.34127e-12 0 -2.1684e-13 -2.3706e-13 0 0 0 0)
(1.89735e-13 6.80847e-13 0 -1.35525e-13 -1.62247e-13 0 0 0 0)
(1.35525e-13 -4.30892e-13 0 -1.35525e-13 -1.25292e-13 0 0 0 0)
(8.13152e-14 -1.14029e-13 0 -8.13152e-14 -8.74141e-14 0 0 0 0)
(5.42101e-14 -1.44779e-13 0 -5.42101e-14 -5.25977e-14 0 0 0 0)
(0 -9.34506e-14 0 -8.13152e-14 -3.17154e-14 0 0 0 0)
(-5.42101e-14 -8.55607e-14 0 0 -1.01909e-14 0 0 0 0)
(8.13152e-14 -7.72744e-14 0 -2.71051e-14 -1.69517e-14 0 0 0 0)
(5.42101e-14 -5.43008e-14 0 5.42101e-14 -2.46402e-14 0 0 0 0)
(2.71051e-14 -2.91552e-14 0 -5.42101e-14 -1.00269e-14 0 0 0 0)
(-2.71051e-14 -4.33915e-14 0 0 -2.06795e-15 0 0 0 0)
(2.20641e-09 -3.2291e-07 0 4.33871e-10 -2.49787e-09 0 0 0 0)
(-2.56327e-09 3.99509e-07 0 -8.80372e-11 5.98512e-10 0 0 0 0)
(5.09819e-10 -9.47702e-08 0 3.56974e-11 -1.43582e-10 0 0 0 0)
(-1.91064e-10 2.24843e-08 0 -7.91468e-12 3.32866e-11 0 0 0 0)
(4.40728e-11 -5.33381e-09 0 2.43945e-12 -9.00786e-12 0 0 0 0)
(-1.13028e-11 1.26516e-09 0 -8.40257e-13 1.21825e-12 0 0 0 0)
(4.09286e-12 -3.00377e-10 0 -8.13152e-14 -1.08876e-12 0 0 0 0)
(-4.06576e-13 7.09702e-11 0 -2.71051e-13 -3.9747e-13 0 0 0 0)
(7.31836e-13 -1.71263e-11 0 -2.1684e-13 -4.31287e-13 0 0 0 0)
(2.43945e-13 3.77932e-12 0 -1.89735e-13 -2.91189e-13 0 0 0 0)
(2.43945e-13 -1.16229e-12 0 -8.13152e-14 -2.05002e-13 0 0 0 0)
(8.13152e-14 5.232e-14 0 -8.13152e-14 -1.51389e-13 0 0 0 0)
(1.6263e-13 -1.7813e-13 0 -8.13152e-14 -1.22146e-13 0 0 0 0)
(1.0842e-13 -8.20943e-14 0 -8.13152e-14 -7.94361e-14 0 0 0 0)
(2.71051e-14 -6.96005e-14 0 -5.42101e-14 -5.11723e-14 0 0 0 0)
(5.42101e-14 -6.97809e-14 0 -2.71051e-14 -3.50756e-14 0 0 0 0)
(0 -8.66406e-14 0 8.13152e-14 -2.14877e-14 0 0 0 0)
(-5.42101e-14 -5.57311e-14 0 0 -5.26448e-15 0 0 0 0)
(5.42101e-14 -2.28161e-14 0 5.42101e-14 -9.03872e-15 0 0 0 0)
(0 -3.16292e-14 0 0 -5.52885e-15 0 0 0 0)
(-2.06351e-09 3.21953e-07 0 -4.64011e-10 2.43953e-09 0 0 0 0)
(2.38899e-09 -3.98322e-07 0 9.47593e-11 -5.80299e-10 0 0 0 0)
(-4.75856e-10 9.4488e-08 0 -3.65918e-11 1.37343e-10 0 0 0 0)
(1.78189e-10 -2.24166e-08 0 8.89046e-12 -3.34142e-11 0 0 0 0)
(-3.94379e-11 5.31782e-09 0 -2.27682e-12 7.10478e-12 0 0 0 0)
(1.16823e-11 -1.26152e-09 0 8.13152e-13 -2.48319e-12 0 0 0 0)
(-2.71051e-12 2.99124e-10 0 -1.89735e-13 -1.19051e-13 0 0 0 0)
(1.32815e-12 -7.11437e-11 0 8.13152e-14 -5.76269e-13 0 0 0 0)
(1.6263e-13 1.67065e-11 0 -8.13152e-14 -3.66779e-13 0 0 0 0)
(3.79471e-13 -4.11499e-12 0 -8.13152e-14 -3.1343e-13 0 0 0 0)
(2.1684e-13 8.20648e-13 0 -1.0842e-13 -2.34485e-13 0 0 0 0)
(1.6263e-13 -3.48036e-13 0 -1.0842e-13 -1.50654e-13 0 0 0 0)
(1.0842e-13 -4.20768e-14 0 -1.0842e-13 -1.1433e-13 0 0 0 0)
(8.13152e-14 -7.3805e-14 0 -5.42101e-14 -8.42006e-14 0 0 0 0)
(2.71051e-14 -4.909e-14 0 -8.13152e-14 -6.30865e-14 0 0 0 0)
(1.0842e-13 -5.5876e-14 0 -5.42101e-14 -6.99652e-14 0 0 0 0)
(8.13152e-14 -4.74633e-14 0 -8.13152e-14 -4.52195e-14 0 0 0 0)
(0 -4.18518e-14 0 0 -1.41156e-14 0 0 0 0)
(2.71051e-14 -2.94195e-14 0 0 -7.65305e-15 0 0 0 0)
(-2.71051e-14 -2.8824e-14 0 0 -7.79571e-16 0 0 0 0)
(1.83721e-09 -3.21051e-07 0 4.66234e-10 -2.32656e-09 0 0 0 0)
(-2.13591e-09 3.97207e-07 0 -9.40274e-11 5.50167e-10 0 0 0 0)
(4.23896e-10 -9.42233e-08 0 3.67273e-11 -1.31039e-10 0 0 0 0)
(-1.56694e-10 2.2354e-08 0 -8.34836e-12 3.03806e-11 0 0 0 0)
(3.59684e-11 -5.30288e-09 0 2.46656e-12 -7.90686e-12 0 0 0 0)
(-9.18861e-12 1.25793e-09 0 -7.04731e-13 1.14369e-12 0 0 0 0)
(3.38813e-12 -2.9847e-10 0 1.89735e-13 -9.27694e-13 0 0 0 0)
(-3.25261e-13 7.07225e-11 0 -1.35525e-13 -3.29862e-13 0 0 0 0)
(4.87891e-13 -1.68634e-11 0 0 -3.70792e-13 0 0 0 0)
(2.71051e-13 3.91161e-12 0 -8.13152e-14 -2.88565e-13 0 0 0 0)
(2.71051e-13 -9.99517e-13 0 -8.13152e-14 -2.33997e-13 0 0 0 0)
(1.89735e-13 1.72476e-13 0 -2.71051e-14 -1.76156e-13 0 0 0 0)
(1.35525e-13 -1.11677e-13 0 0 -1.2424e-13 0 0 0 0)
(2.71051e-14 -3.08513e-14 0 0 -8.35173e-14 0 0 0 0)
(8.13152e-14 -5.53651e-14 0 0 -6.49612e-14 0 0 0 0)
(5.42101e-14 -5.19139e-14 0 5.42101e-14 -4.86949e-14 0 0 0 0)
(0 -3.0791e-14 0 -1.0842e-13 -5.03685e-14 0 0 0 0)
(1.35525e-13 -1.81647e-14 0 0 -5.04787e-14 0 0 0 0)
(0 -9.48e-15 0 0 -1.49912e-14 0 0 0 0)
(0 -2.31966e-14 0 -2.71051e-14 -6.70646e-15 0 0 0 0)
(-1.69127e-09 3.20177e-07 0 -4.3856e-10 2.22541e-09 0 0 0 0)
(1.95945e-09 -3.96126e-07 0 8.83625e-11 -5.24717e-10 0 0 0 0)
(-3.90123e-10 9.39682e-08 0 -3.40982e-11 1.23859e-10 0 0 0 0)
(1.43874e-10 -2.22934e-08 0 7.80626e-12 -2.98634e-11 0 0 0 0)
(-3.18213e-11 5.28859e-09 0 -2.27682e-12 6.35563e-12 0 0 0 0)
(9.40545e-12 -1.25454e-09 0 6.50521e-13 -2.1956e-12 0 0 0 0)
(-2.08709e-12 2.97651e-10 0 -1.89735e-13 -1.33309e-13 0 0 0 0)
(1.16552e-12 -7.05868e-11 0 5.42101e-14 -5.38874e-13 0 0 0 0)
(1.6263e-13 1.67478e-11 0 -5.42101e-14 -3.45547e-13 0 0 0 0)
(3.52366e-13 -3.97819e-12 0 0 -3.05462e-13 0 0 0 0)
(1.89735e-13 9.33057e-13 0 0 -2.32327e-13 0 0 0 0)
(2.1684e-13 -2.38279e-13 0 0 -1.98538e-13 0 0 0 0)
(1.35525e-13 5.05621e-14 0 5.42101e-14 -1.40497e-13 0 0 0 0)
(8.13152e-14 -1.45265e-14 0 0 -1.00744e-13 0 0 0 0)
(8.13152e-14 -1.42676e-14 0 2.71051e-14 -7.66107e-14 0 0 0 0)
(5.42101e-14 -4.12833e-14 0 -5.42101e-14 -5.45638e-14 0 0 0 0)
(5.42101e-14 -4.92471e-14 0 1.0842e-13 -4.20038e-14 0 0 0 0)
(2.71051e-14 -6.47448e-15 0 0 -2.89422e-14 0 0 0 0)
(5.42101e-14 1.43527e-14 0 -5.42101e-14 -1.59796e-14 0 0 0 0)
(0 -7.12634e-15 0 0 -9.72656e-15 0 0 0 0)
(1.48696e-09 -3.1935e-07 0 3.88795e-10 -2.09401e-09 0 0 0 0)
(-1.73139e-09 3.95106e-07 0 -7.8171e-11 4.92043e-10 0 0 0 0)
(3.43367e-10 -9.37285e-08 0 2.96529e-11 -1.17083e-10 0 0 0 0)
(-1.24873e-10 2.22365e-08 0 -6.93889e-12 2.68988e-11 0 0 0 0)
(2.88127e-11 -5.27521e-09 0 1.95156e-12 -7.0904e-12 0 0 0 0)
(-7.10152e-12 1.25144e-09 0 -5.14996e-13 9.56686e-13 0 0 0 0)
(2.71051e-12 -2.96813e-10 0 2.71051e-13 -8.73547e-13 0 0 0 0)
(-1.35525e-13 7.05103e-11 0 8.13152e-14 -3.54846e-13 0 0 0 0)
(4.87891e-13 -1.663e-11 0 8.13152e-14 -3.82608e-13 0 0 0 0)
(2.71051e-13 4.02483e-12 0 8.13152e-14 -2.9077e-13 0 0 0 0)
(2.71051e-13 -8.92593e-13 0 5.42101e-14 -2.41557e-13 0 0 0 0)
(2.1684e-13 2.64306e-13 0 2.71051e-14 -1.71288e-13 0 0 0 0)
(1.0842e-13 -1.38831e-14 0 0 -1.25173e-13 0 0 0 0)
(8.13152e-14 3.30353e-14 0 0 -1.07783e-13 0 0 0 0)
(8.13152e-14 -9.18489e-15 0 0 -9.03483e-14 0 0 0 0)
(5.42101e-14 -1.7307e-14 0 5.42101e-14 -7.51785e-14 0 0 0 0)
(8.13152e-14 -5.16943e-15 0 8.13152e-14 -2.99624e-14 0 0 0 0)
(-5.42101e-14 7.8595e-15 0 -5.42101e-14 1.50448e-15 0 0 0 0)
(5.42101e-14 9.73563e-15 0 0 -1.7987e-14 0 0 0 0)
(0 2.50956e-15 0 0 -8.89186e-15 0 0 0 0)
(-1.38062e-09 3.18575e-07 0 -3.42445e-10 1.99339e-09 0 0 0 0)
(1.60026e-09 -3.94149e-07 0 6.83047e-11 -4.68081e-10 0 0 0 0)
(-3.18837e-10 9.3503e-08 0 -2.64274e-11 1.10045e-10 0 0 0 0)
(1.16118e-10 -2.21835e-08 0 5.8818e-12 -2.67908e-11 0 0 0 0)
(-2.53974e-11 5.26264e-09 0 -1.73472e-12 5.3916e-12 0 0 0 0)
(7.77915e-12 -1.24832e-09 0 5.69206e-13 -2.10487e-12 0 0 0 0)
(-1.51788e-12 2.96339e-10 0 0 -2.27172e-13 0 0 0 0)
(9.21572e-13 -7.00958e-11 0 2.43945e-13 -5.28266e-13 0 0 0 0)
(1.89735e-13 1.68119e-11 0 1.89735e-13 -3.33335e-13 0 0 0 0)
(3.25261e-13 -3.83714e-12 0 1.89735e-13 -2.71894e-13 0 0 0 0)
(1.6263e-13 1.05254e-12 0 1.35525e-13 -1.97958e-13 0 0 0 0)
(1.89735e-13 -1.21896e-13 0 5.42101e-14 -1.35432e-13 0 0 0 0)
(1.35525e-13 1.14067e-13 0 5.42101e-14 -1.16198e-13 0 0 0 0)
(8.13152e-14 2.02985e-14 0 8.13152e-14 -9.83591e-14 0 0 0 0)
(8.13152e-14 1.83369e-14 0 5.42101e-14 -8.33486e-14 0 0 0 0)
(8.13152e-14 1.91026e-14 0 -5.42101e-14 -5.57176e-14 0 0 0 0)
(0 2.74359e-14 0 -5.42101e-14 -3.11348e-14 0 0 0 0)
(0 5.50086e-15 0 0 -2.67687e-14 0 0 0 0)
(5.42101e-14 3.95633e-15 0 5.42101e-14 -2.07211e-14 0 0 0 0)
(0 1.97526e-14 0 2.71051e-14 -6.68254e-15 0 0 0 0)
(1.21284e-09 -3.17825e-07 0 2.65602e-10 -1.87576e-09 0 0 0 0)
(-1.41534e-09 3.93222e-07 0 -5.36138e-11 4.39528e-10 0 0 0 0)
(2.8089e-10 -9.32872e-08 0 1.95156e-11 -1.05077e-10 0 0 0 0)
(-1.00153e-10 2.21319e-08 0 -4.77049e-12 2.35601e-11 0 0 0 0)
(2.35001e-11 -5.25053e-09 0 1.32815e-12 -6.67535e-12 0 0 0 0)
(-5.42101e-12 1.24583e-09 0 -1.89735e-13 5.98125e-13 0 0 0 0)
(2.38524e-12 -2.95236e-10 0 2.98156e-13 -9.19699e-13 0 0 0 0)
(5.42101e-14 7.04041e-11 0 2.1684e-13 -3.78812e-13 0 0 0 0)
(4.60786e-13 -1.63736e-11 0 2.71051e-13 -3.55654e-13 0 0 0 0)
(1.6263e-13 4.16021e-12 0 2.1684e-13 -2.26192e-13 0 0 0 0)
(2.1684e-13 -7.56131e-13 0 1.6263e-13 -1.50055e-13 0 0 0 0)
(1.0842e-13 3.46066e-13 0 2.1684e-13 -1.21548e-13 0 0 0 0)
(1.0842e-13 2.31895e-14 0 1.0842e-13 -1.03374e-13 0 0 0 0)
(5.42101e-14 6.58844e-14 0 5.42101e-14 -7.82031e-14 0 0 0 0)
(0 3.34565e-14 0 8.13152e-14 -4.95581e-14 0 0 0 0)
(5.42101e-14 3.49069e-14 0 8.13152e-14 -3.41182e-14 0 0 0 0)
(2.71051e-14 2.37795e-14 0 0 -2.91669e-14 0 0 0 0)
(5.42101e-14 1.82731e-14 0 5.42101e-14 -3.0588e-14 0 0 0 0)
(2.71051e-14 2.98218e-14 0 2.71051e-14 -3.20284e-15 0 0 0 0)
(-2.71051e-14 2.99132e-14 0 0 6.54216e-15 0 0 0 0)
(-1.16861e-09 3.17139e-07 0 -2.30393e-10 1.81066e-09 0 0 0 0)
(1.35411e-09 -3.92379e-07 0 4.53739e-11 -4.25057e-10 0 0 0 0)
(-2.70021e-10 9.30871e-08 0 -1.82688e-11 9.87358e-11 0 0 0 0)
(9.80119e-11 -2.20851e-08 0 3.95734e-12 -2.49659e-11 0 0 0 0)
(-2.08167e-11 5.23968e-09 0 -8.67362e-13 4.3463e-12 0 0 0 0)
(6.77626e-12 -1.24257e-09 0 8.13152e-13 -2.17011e-12 0 0 0 0)
(-1.11131e-12 2.95362e-10 0 4.06576e-13 -3.03845e-13 0 0 0 0)
(8.67362e-13 -6.95318e-11 0 4.06576e-13 -4.86055e-13 0 0 0 0)
(1.6263e-13 1.69645e-11 0 2.98156e-13 -2.66535e-13 0 0 0 0)
(2.1684e-13 -3.63154e-12 0 2.1684e-13 -1.91688e-13 0 0 0 0)
(1.35525e-13 1.15718e-12 0 1.89735e-13 -1.33669e-13 0 0 0 0)
(8.13152e-14 -7.52148e-14 0 8.13152e-14 -1.08785e-13 0 0 0 0)
(1.0842e-13 1.57412e-13 0 1.35525e-13 -6.70502e-14 0 0 0 0)
(2.71051e-14 7.41147e-14 0 5.42101e-14 -4.71491e-14 0 0 0 0)
(8.13152e-14 6.24218e-14 0 5.42101e-14 -2.24037e-14 0 0 0 0)
(0 3.94938e-14 0 1.0842e-13 -1.17631e-14 0 0 0 0)
(-2.71051e-14 3.09661e-14 0 5.42101e-14 -9.08361e-15 0 0 0 0)
(2.71051e-14 3.14649e-14 0 0 3.25447e-15 0 0 0 0)
(0 4.10865e-14 0 0 1.0306e-14 0 0 0 0)
(-2.71051e-14 1.64133e-14 0 -2.71051e-14 5.98719e-15 0 0 0 0)
(1.02782e-09 -3.1644e-07 0 1.1788e-10 -1.73139e-09 0 0 0 0)
(-1.20319e-09 3.9151e-07 0 -2.5018e-11 4.04928e-10 0 0 0 0)
(2.39446e-10 -9.28871e-08 0 8.13152e-12 -9.90179e-11 0 0 0 0)
(-8.28602e-11 2.20375e-08 0 -1.81604e-12 2.06953e-11 0 0 0 0)
(2.04101e-11 -5.22773e-09 0 1.13841e-12 -7.01986e-12 0 0 0 0)
(-4.14707e-12 1.24118e-09 0 7.04731e-13 3.30758e-13 0 0 0 0)
(1.97867e-12 -2.93552e-10 0 8.13152e-13 -8.84437e-13 0 0 0 0)
(0 7.04414e-11 0 5.96311e-13 -2.34505e-13 0 0 0 0)
(2.71051e-13 -1.60793e-11 0 4.87891e-13 -1.78711e-13 0 0 0 0)
(5.42101e-14 4.29308e-12 0 3.52366e-13 -8.85948e-14 0 0 0 0)
(1.35525e-13 -6.73228e-13 0 2.1684e-13 -7.62385e-14 0 0 0 0)
(2.71051e-14 4.12685e-13 0 1.89735e-13 -4.65637e-14 0 0 0 0)
(0 8.48257e-14 0 1.0842e-13 -2.33737e-14 0 0 0 0)
(-2.71051e-14 1.10531e-13 0 8.13152e-14 -2.21223e-14 0 0 0 0)
(8.13152e-14 6.88425e-14 0 5.42101e-14 -2.60952e-14 0 0 0 0)
(0 4.8227e-14 0 2.71051e-14 3.00249e-15 0 0 0 0)
(0 3.87971e-14 0 0 3.05146e-15 0 0 0 0)
(0 3.76628e-14 0 0 1.10573e-14 0 0 0 0)
(0 3.25545e-14 0 -2.71051e-14 6.93762e-16 0 0 0 0)
(0 1.362e-14 0 0 -6.60907e-15 0 0 0 0)
(-1.07585e-09 3.15812e-07 0 -1.71819e-10 1.7333e-09 0 0 0 0)
(1.24445e-09 -3.90746e-07 0 3.41253e-11 -4.06845e-10 0 0 0 0)
(-2.46792e-10 9.27028e-08 0 -1.39862e-11 8.76831e-11 0 0 0 0)
(9.11001e-11 -2.19931e-08 0 4.17418e-12 -2.54749e-11 0 0 0 0)
(-1.8323e-11 5.21932e-09 0 4.60786e-13 2.82082e-12 0 0 0 0)
(6.39679e-12 -1.23643e-09 0 1.76183e-12 -1.97135e-12 0 0 0 0)
(-1.19262e-12 2.94797e-10 0 1.0842e-12 -7.9083e-14 0 0 0 0)
(5.14996e-13 -6.88261e-11 0 8.67362e-13 -1.15646e-13 0 0 0 0)
(-8.13152e-14 1.71105e-11 0 5.96311e-13 3.21844e-14 0 0 0 0)
(-2.71051e-14 -3.52907e-12 0 4.33681e-13 4.83168e-14 0 0 0 0)
(-8.13152e-14 1.19921e-12 0 2.98156e-13 4.66152e-14 0 0 0 0)
(-2.71051e-14 -2.235e-14 0 1.89735e-13 3.32942e-14 0 0 0 0)
(-2.71051e-14 1.81853e-13 0 1.0842e-13 1.89802e-14 0 0 0 0)
(2.71051e-14 7.13932e-14 0 1.0842e-13 1.01309e-14 0 0 0 0)
(2.71051e-14 8.75465e-14 0 2.71051e-14 3.38659e-15 0 0 0 0)
(-5.42101e-14 6.86405e-14 0 0 2.40819e-14 0 0 0 0)
(-2.71051e-14 3.90209e-14 0 2.71051e-14 2.56203e-14 0 0 0 0)
(-2.71051e-14 2.91072e-14 0 2.71051e-14 1.36428e-14 0 0 0 0)
(0 2.34201e-14 0 0 2.13261e-15 0 0 0 0)
(0 2.23286e-14 0 0 -1.13226e-15 0 0 0 0)
(8.90157e-10 -3.15113e-07 0 -7.50539e-11 -1.62879e-09 0 0 0 0)
(-1.04536e-09 3.89865e-07 0 6.39679e-12 3.67699e-10 0 0 0 0)
(2.09468e-10 -9.25057e-08 0 -6.93889e-12 -1.156e-10 0 0 0 0)
(-6.84674e-11 2.19526e-08 0 6.93889e-12 2.24997e-11 0 0 0 0)
(1.79978e-11 -5.20423e-09 0 2.41235e-12 -8.90433e-12 0 0 0 0)
(-3.49655e-12 1.23828e-09 0 2.87314e-12 2.1141e-12 0 0 0 0)
(1.11131e-12 -2.91697e-10 0 1.35525e-12 -3.55352e-13 0 0 0 0)
(-4.60786e-13 7.05527e-11 0 1.0571e-12 4.9448e-13 0 0 0 0)
(-1.6263e-13 -1.59153e-11 0 5.96311e-13 2.07555e-13 0 0 0 0)
(-2.1684e-13 4.30751e-12 0 4.06576e-13 2.24796e-13 0 0 0 0)
(-1.6263e-13 -6.88251e-13 0 2.71051e-13 1.63886e-13 0 0 0 0)
(-1.35525e-13 3.8505e-13 0 1.6263e-13 1.28398e-13 0 0 0 0)
(-8.13152e-14 6.16625e-14 0 5.42101e-14 8.87131e-14 0 0 0 0)
(-1.0842e-13 9.49373e-14 0 2.71051e-14 8.15427e-14 0 0 0 0)
(-2.71051e-14 8.27935e-14 0 -5.42101e-14 5.96297e-14 0 0 0 0)
(0 7.04607e-14 0 -5.42101e-14 2.23787e-14 0 0 0 0)
(-2.71051e-14 2.83579e-14 0 -2.71051e-14 1.61902e-14 0 0 0 0)
(-2.71051e-14 1.41752e-14 0 -8.13152e-14 1.14121e-14 0 0 0 0)
(2.71051e-14 1.77795e-14 0 0 6.08083e-15 0 0 0 0)
(-2.71051e-14 1.26196e-14 0 0 4.12998e-15 0 0 0 0)
(-1.14446e-09 3.14551e-07 0 -9.82097e-10 1.56804e-09 0 0 0 0)
(1.31251e-09 -3.89233e-07 0 4.90439e-10 -4.47008e-10 0 0 0 0)
(-2.46249e-10 9.23576e-08 0 -1.79625e-10 9.1664e-11 0 0 0 0)
(1.00451e-10 -2.18864e-08 0 8.5137e-11 -1.97949e-11 0 0 0 0)
(-2.23346e-11 5.19893e-09 0 -1.78351e-11 7.09998e-12 0 0 0 0)
(5.31259e-12 -1.22788e-09 0 1.08149e-11 7.97928e-13 0 0 0 0)
(-3.03577e-12 2.93178e-10 0 -9.21572e-13 1.34838e-12 0 0 0 0)
(-2.98156e-13 -6.82631e-11 0 1.57209e-12 7.67306e-13 0 0 0 0)
(-7.31836e-13 1.68408e-11 0 2.43945e-13 5.41314e-13 0 0 0 0)
(-3.52366e-13 -3.57274e-12 0 3.25261e-13 3.70204e-13 0 0 0 0)
(-2.71051e-13 1.10282e-12 0 1.35525e-13 2.62146e-13 0 0 0 0)
(-2.1684e-13 -9.75226e-14 0 1.89735e-13 1.97322e-13 0 0 0 0)
(-1.35525e-13 1.34998e-13 0 1.0842e-13 1.4059e-13 0 0 0 0)
(-1.0842e-13 4.23098e-14 0 8.13152e-14 1.11749e-13 0 0 0 0)
(-8.13152e-14 2.83825e-14 0 1.0842e-13 7.47881e-14 0 0 0 0)
(-5.42101e-14 2.5201e-14 0 5.42101e-14 2.10086e-14 0 0 0 0)
(0 2.80543e-14 0 5.42101e-14 5.18503e-15 0 0 0 0)
(5.42101e-14 1.89979e-14 0 5.42101e-14 9.22229e-15 0 0 0 0)
(0 1.6138e-14 0 2.71051e-14 5.43061e-15 0 0 0 0)
(0 1.21177e-14 0 2.71051e-14 -1.43585e-15 0 0 0 0)
(3.98417e-10 -3.13992e-07 0 1.28123e-09 -8.55989e-10 0 0 0 0)
(-2.42861e-10 3.88388e-07 0 -5.35244e-10 2.9684e-10 0 0 0 0)
(-1.9578e-10 -9.20785e-08 0 2.11609e-10 -1.13949e-11 0 0 0 0)
(9.33498e-11 2.18681e-08 0 -9.31872e-11 1.77199e-11 0 0 0 0)
(-5.63243e-11 -5.18363e-09 0 1.7808e-11 6.89203e-12 0 0 0 0)
(1.3417e-11 1.23252e-09 0 -1.44741e-11 2.42323e-12 0 0 0 0)
(-8.13152e-12 -2.91727e-10 0 -9.48677e-13 2.25215e-12 0 0 0 0)
(6.77626e-13 6.97456e-11 0 -3.30682e-12 9.72988e-13 0 0 0 0)
(-1.40946e-12 -1.63124e-11 0 -1.38236e-12 7.69692e-13 0 0 0 0)
(-2.98156e-13 4.02834e-12 0 -1.16552e-12 4.4464e-13 0 0 0 0)
(-3.52366e-13 -8.61133e-13 0 -7.04731e-13 3.14089e-13 0 0 0 0)
(-1.6263e-13 2.63494e-13 0 -5.42101e-13 2.02956e-13 0 0 0 0)
(-1.89735e-13 -2.39099e-14 0 -3.25261e-13 1.48117e-13 0 0 0 0)
(-8.13152e-14 2.91353e-14 0 -2.1684e-13 9.18683e-14 0 0 0 0)
(-8.13152e-14 -7.94735e-15 0 -1.35525e-13 7.6672e-14 0 0 0 0)
(-2.71051e-14 8.57631e-16 0 -8.13152e-14 7.14331e-14 0 0 0 0)
(-1.0842e-13 1.65717e-14 0 -5.42101e-14 5.06134e-14 0 0 0 0)
(-2.71051e-14 1.44207e-14 0 0 2.68071e-14 0 0 0 0)
(0 7.12137e-15 0 -2.71051e-14 1.71948e-14 0 0 0 0)
(-2.71051e-14 8.62485e-15 0 -2.71051e-14 3.54776e-15 0 0 0 0)
)
;

boundaryField
{
    movingWall
    {
        type            extrapolatedCalculated;
        value           nonuniform List<tensor> 
20
(
(3.98417e-10 -3.13992e-07 0 -5.44453e-10 1.64625e-06 0 0 0 0)
(-2.42861e-10 3.88388e-07 0 -1.04921e-09 -3.90284e-07 0 0 0 0)
(-1.9578e-10 -9.20785e-08 0 4.26947e-10 9.26987e-08 0 0 0 0)
(9.33498e-11 2.18681e-08 0 -2.66009e-10 -2.19702e-08 0 0 0 0)
(-5.63243e-11 -5.18363e-09 0 5.35572e-11 5.22645e-09 0 0 0 0)
(1.3417e-11 1.23252e-09 0 -4.06786e-11 -1.23563e-09 0 0 0 0)
(-8.13152e-12 -2.91727e-10 0 -1.33227e-13 2.96352e-10 0 0 0 0)
(6.77626e-13 6.97456e-11 0 -8.21565e-12 -6.87171e-11 0 0 0 0)
(-1.40946e-12 -1.63124e-11 0 -2.79776e-12 1.73698e-11 0 0 0 0)
(-2.98156e-13 4.02834e-12 0 -2.62013e-12 -3.46746e-12 0 0 0 0)
(-3.52366e-13 -8.61133e-13 0 -1.55431e-12 1.2564e-12 0 0 0 0)
(-1.6263e-13 2.63494e-13 0 -1.24345e-12 -2.29304e-14 0 0 0 0)
(-1.89735e-13 -2.39099e-14 0 -8.43769e-13 2.02428e-13 0 0 0 0)
(-8.13152e-14 2.91353e-14 0 -6.21725e-13 7.27092e-14 0 0 0 0)
(-8.13152e-14 -7.94735e-15 0 -4.44089e-13 8.58864e-14 0 0 0 0)
(-2.71051e-14 8.57631e-16 0 -3.55271e-13 1.04499e-13 0 0 0 0)
(-1.0842e-13 1.65717e-14 0 -2.66454e-13 8.24558e-14 0 0 0 0)
(-2.71051e-14 1.44207e-14 0 -4.44089e-14 3.8212e-14 0 0 0 0)
(0 7.12137e-15 0 -4.44089e-14 2.47729e-14 0 0 0 0)
(-2.71051e-14 8.62485e-15 0 -4.44089e-14 9.7265e-15 0 0 0 0)
)
;
    }
    fixedWalls
    {
        type            extrapolatedCalculated;
        value           nonuniform List<tensor> 
60
(
(-8.31335e-10 1.71392e-06 0 1.67997e-10 -5.12102e-10 0 0 0 0)
(1.50333e-09 -1.71597e-06 0 -1.97767e-09 2.66192e-10 0 0 0 0)
(-8.74198e-09 1.71499e-06 0 2.34735e-09 8.26479e-10 0 0 0 0)
(1.08927e-08 -1.71267e-06 0 -9.53746e-10 -1.7011e-09 0 0 0 0)
(-1.25571e-08 1.70818e-06 0 3.55212e-10 2.29094e-09 0 0 0 0)
(1.23138e-08 -1.7035e-06 0 1.24629e-10 -2.47229e-09 0 0 0 0)
(-1.20587e-08 1.69829e-06 0 -3.13009e-10 2.54194e-09 0 0 0 0)
(1.10618e-08 -1.69333e-06 0 4.33871e-10 -2.49787e-09 0 0 0 0)
(-1.03233e-08 1.6883e-06 0 -4.64011e-10 2.43953e-09 0 0 0 0)
(9.20588e-09 -1.68358e-06 0 4.66234e-10 -2.32656e-09 0 0 0 0)
(-8.45839e-09 1.679e-06 0 -4.3856e-10 2.22541e-09 0 0 0 0)
(7.45151e-09 -1.67467e-06 0 3.88795e-10 -2.09401e-09 0 0 0 0)
(-6.9031e-09 1.67062e-06 0 -3.42445e-10 1.99339e-09 0 0 0 0)
(6.08176e-09 -1.6667e-06 0 2.65602e-10 -1.87576e-09 0 0 0 0)
(-5.84066e-09 1.66312e-06 0 -2.30393e-10 1.81066e-09 0 0 0 0)
(5.16023e-09 -1.65946e-06 0 1.1788e-10 -1.73139e-09 0 0 0 0)
(-5.36939e-09 1.65619e-06 0 -1.71819e-10 1.7333e-09 0 0 0 0)
(4.47304e-09 -1.65252e-06 0 -7.50539e-11 -1.62879e-09 0 0 0 0)
(-5.66951e-09 1.64968e-06 0 -9.82097e-10 1.56804e-09 0 0 0 0)
(5.44453e-10 -1.64625e-06 0 1.28123e-09 -8.55989e-10 0 0 0 0)
(0 -4.50802e-15 0 0 -3.22547e-15 0 0 0 0)
(8.88178e-14 1.74099e-14 0 0 -3.88862e-15 0 0 0 0)
(0 1.10465e-14 0 0 8.70863e-15 0 0 0 0)
(-4.44089e-14 -1.74247e-14 0 2.71051e-14 1.1504e-14 0 0 0 0)
(-8.88178e-14 -3.49696e-14 0 0 9.04975e-15 0 0 0 0)
(0 -5.36237e-14 0 0 7.20557e-15 0 0 0 0)
(-8.88178e-14 -6.37919e-14 0 0 -2.06795e-15 0 0 0 0)
(0 -4.53519e-14 0 0 -5.52885e-15 0 0 0 0)
(-8.88178e-14 -4.16765e-14 0 0 -7.79571e-16 0 0 0 0)
(0 -4.22336e-14 0 -2.71051e-14 -6.70646e-15 0 0 0 0)
(-4.44089e-14 -1.48506e-14 0 0 -9.72656e-15 0 0 0 0)
(0 -3.32733e-15 0 0 -8.89186e-15 0 0 0 0)
(0 2.07168e-14 0 2.71051e-14 -6.68254e-15 0 0 0 0)
(-4.44089e-14 2.34028e-14 0 0 6.54216e-15 0 0 0 0)
(0 -5.45184e-15 0 -2.71051e-14 5.98719e-15 0 0 0 0)
(0 -5.45943e-16 0 0 -6.60907e-15 0 0 0 0)
(0 2.09844e-14 0 0 -1.13226e-15 0 0 0 0)
(-4.44089e-14 3.98311e-15 0 0 4.12998e-15 0 0 0 0)
(0 4.46453e-15 0 2.71051e-14 -1.43585e-15 0 0 0 0)
(-4.44089e-14 9.7265e-15 0 -2.71051e-14 3.54776e-15 0 0 0 0)
(1.42952e-10 3.2679e-07 0 -8.31335e-10 1.71392e-06 0 0 0 0)
(7.93365e-11 -4.04306e-07 0 1.40319e-09 -4.06764e-07 0 0 0 0)
(-2.71484e-10 9.59591e-08 0 -5.14078e-10 9.66982e-08 0 0 0 0)
(1.15386e-10 -2.28084e-08 0 3.17257e-10 -2.29273e-08 0 0 0 0)
(-6.69495e-11 5.40908e-09 0 -5.24913e-11 5.46457e-09 0 0 0 0)
(1.39049e-11 -1.28841e-09 0 4.94715e-11 -1.29096e-09 0 0 0 0)
(-9.62229e-12 3.04828e-10 0 3.06422e-12 3.1093e-10 0 0 0 0)
(3.79471e-13 -7.31204e-11 0 1.10134e-11 -7.16535e-11 0 0 0 0)
(-1.73472e-12 1.70406e-11 0 4.57412e-12 1.84484e-11 0 0 0 0)
(-4.60786e-13 -4.24196e-12 0 4.08562e-12 -3.4913e-12 0 0 0 0)
(-5.42101e-13 9.05677e-13 0 2.75335e-12 1.4806e-12 0 0 0 0)
(-3.25261e-13 -2.89407e-13 0 1.90958e-12 1.31406e-13 0 0 0 0)
(-2.71051e-13 1.62819e-14 0 1.42109e-12 3.2297e-13 0 0 0 0)
(-1.89735e-13 -4.10506e-14 0 9.32587e-13 1.96534e-13 0 0 0 0)
(-1.35525e-13 -1.65032e-14 0 6.21725e-13 1.58768e-13 0 0 0 0)
(-1.35525e-13 -1.59345e-14 0 3.10862e-13 1.30521e-13 0 0 0 0)
(-5.42101e-14 -2.31177e-14 0 1.33227e-13 9.50298e-14 0 0 0 0)
(-2.71051e-14 -1.77972e-14 0 4.44089e-14 3.80504e-14 0 0 0 0)
(-2.71051e-14 -8.3856e-15 0 0 2.38412e-14 0 0 0 0)
(0 -7.08731e-15 0 0 4.50802e-15 0 0 0 0)
)
;
    }
    frontAndBack
    {
        type            empty;
    }
}


// ************************************************************************* //
