/*--------------------------------*- C++ -*----------------------------------*\
| =========                 |                                                 |
| \\      /  F ield         | OpenFOAM: The Open Source CFD Toolbox           |
|  \\    /   O peration     | Version:  2506                                  |
|   \\  /    A nd           | Website:  www.openfoam.com                      |
|    \\/     M anipulation  |                                                 |
\*---------------------------------------------------------------------------*/
FoamFile
{
    version     2.0;
    format      ascii;
    arch        "LSB;label=32;scalar=64";
    class       volVectorField;
    location    "4.875";
    object      LambVectorField;
}
// * * * * * * * * * * * * * * * * * * * * * * * * * * * * * * * * * * * * * //

dimensions      [0 1 -2 0 0 0 0];

internalField   nonuniform List<vector> 
400
(
(-1.39951e-15 -3.26622e-07 0)
(-4.11403e-16 4.04562e-07 -0)
(-2.32215e-17 -9.60574e-08 0)
(-1.31165e-18 2.28836e-08 -0)
(-7.40017e-20 -5.41684e-09 0)
(-4.20652e-21 1.30337e-09 -0)
(-2.34612e-22 -3.01819e-10 0)
(-1.38703e-23 7.74301e-11 -0)
(-6.8217e-25 -1.47908e-11 0)
(-5.24026e-26 6.00379e-12 -0)
(1.06212e-27 2.86945e-13 0)
(3.71112e-28 1.12966e-12 0)
(4.46445e-28 5.52924e-13 0)
(2.06617e-28 4.20521e-13 0)
(1.14136e-28 2.87554e-13 0)
(4.94217e-29 1.5146e-13 0)
(1.83711e-29 7.73278e-14 0)
(6.84976e-30 7.20073e-14 0)
(4.99807e-31 8.3856e-15 0)
(7.98743e-32 7.08731e-15 0)
(-1.39443e-15 3.25046e-07 -0)
(-4.12709e-16 -4.04741e-07 0)
(-2.32361e-17 9.61648e-08 -0)
(-1.31448e-18 -2.28477e-08 0)
(-7.36415e-20 5.4285e-09 -0)
(-4.20878e-21 -1.28976e-09 0)
(-2.2927e-22 3.06378e-10 -0)
(-1.40609e-23 -7.28779e-11 0)
(-6.16654e-25 1.722e-11 -0)
(-6.21682e-26 -4.13216e-12 0)
(7.99619e-28 8.85009e-13 0)
(-9.48599e-28 -3.22406e-13 0)
(-1.69267e-29 -1.0027e-14 0)
(-9.24847e-29 -6.5304e-14 0)
(-1.7478e-29 -1.77279e-14 0)
(-2.87083e-29 -3.67893e-14 0)
(4.11639e-29 7.61382e-14 0)
(1.37094e-29 4.72716e-14 0)
(2.26577e-30 3.33538e-14 0)
(-1.0623e-31 2.44068e-15 -0)
(-1.3916e-15 -3.24574e-07 0)
(-4.1148e-16 4.04103e-07 -0)
(-2.31952e-17 -9.59194e-08 0)
(-1.30476e-18 2.27671e-08 -0)
(-7.39625e-20 -5.40384e-09 0)
(-4.10535e-21 1.28277e-09 -0)
(-2.41069e-22 -3.04429e-10 0)
(-1.2109e-23 7.22997e-11 -0)
(-9.18288e-25 -1.7101e-11 0)
(-1.33751e-26 4.11593e-12 -0)
(-6.78517e-27 -9.18344e-13 0)
(7.92789e-28 2.68533e-13 0)
(-1.49482e-29 -5.3276e-15 0)
(2.21277e-28 1.15166e-13 0)
(5.85464e-29 4.23302e-14 0)
(9.29436e-29 9.72244e-14 0)
(1.67843e-29 2.46142e-14 0)
(2.4156e-29 5.50529e-14 0)
(1.3248e-29 1.00849e-13 0)
(-2.86512e-31 1.03748e-14 -0)
(-1.39402e-15 3.25579e-07 -0)
(-4.10459e-16 -4.03862e-07 0)
(-2.31102e-17 9.58426e-08 -0)
(-1.30281e-18 -2.2744e-08 0)
(-7.31019e-20 5.39749e-09 -0)
(-4.16768e-21 -1.28075e-09 0)
(-2.25939e-22 3.04109e-10 -0)
(-1.42218e-23 -7.20879e-11 0)
(-5.4734e-25 1.71946e-11 -0)
(-7.36001e-26 -4.02384e-12 0)
(3.66782e-27 1.03981e-12 0)
(-7.90947e-28 -1.61045e-13 0)
(2.79408e-28 9.40945e-14 0)
(1.06744e-28 4.55371e-14 0)
(5.9438e-29 3.49445e-14 0)
(6.78328e-29 5.7412e-14 0)
(3.48746e-30 4.07531e-15 0)
(-9.50157e-31 -1.58715e-15 0)
(9.35987e-30 2.84042e-14 0)
(2.80596e-30 6.44136e-14 0)
(-1.38942e-15 -3.25356e-07 0)
(-4.08306e-16 4.02931e-07 -0)
(-2.2992e-17 -9.56092e-08 0)
(-1.29361e-18 2.26858e-08 -0)
(-7.30287e-20 -5.38275e-09 0)
(-4.0728e-21 1.27727e-09 -0)
(-2.36751e-22 -3.03048e-10 0)
(-1.19638e-23 7.19242e-11 -0)
(-9.17008e-25 -1.70253e-11 0)
(-8.28343e-27 4.04232e-12 -0)
(-8.14666e-27 -9.51788e-13 0)
(1.05406e-27 2.67185e-13 0)
(-1.4404e-28 -4.17749e-14 0)
(5.69846e-29 2.31133e-14 0)
(1.13998e-28 6.12357e-14 0)
(5.44247e-29 4.15144e-14 0)
(6.14356e-29 6.79309e-14 0)
(9.1602e-32 1.45014e-16 0)
(9.85794e-30 2.732e-14 0)
(3.91883e-30 4.48256e-14 0)
(-1.38392e-15 3.24959e-07 -0)
(-4.06113e-16 -4.01931e-07 0)
(-2.28598e-17 9.53654e-08 -0)
(-1.28734e-18 -2.26263e-08 0)
(-7.23242e-20 5.36825e-09 -0)
(-4.10092e-21 -1.27362e-09 0)
(-2.24856e-22 3.02238e-10 -0)
(-1.37999e-23 -7.16377e-11 0)
(-5.64165e-25 1.7089e-11 -0)
(-6.96069e-26 -3.93731e-12 0)
(3.38841e-27 1.00301e-12 0)
(-6.91925e-28 -1.40118e-13 0)
(5.34482e-28 1.69509e-13 0)
(1.37237e-28 5.64778e-14 0)
(1.98834e-28 1.12007e-13 0)
(3.97339e-29 3.03346e-14 0)
(1.67179e-29 1.79812e-14 0)
(3.6838e-29 6.26559e-14 0)
(1.37609e-29 4.53883e-14 0)
(5.86161e-30 4.37241e-14 0)
(-1.37632e-15 -3.24166e-07 0)
(-4.0363e-16 4.00742e-07 -0)
(-2.27215e-17 -9.50792e-08 0)
(-1.27847e-18 2.25575e-08 -0)
(-7.20521e-20 -5.35176e-09 0)
(-4.03385e-21 1.26974e-09 -0)
(-2.31559e-22 -3.01174e-10 0)
(-1.21207e-23 7.1503e-11 -0)
(-8.60536e-25 -1.69255e-11 0)
(-1.44763e-26 4.12443e-12 -0)
(-6.06545e-27 -8.16373e-13 0)
(9.74288e-28 2.95366e-13 0)
(1.02095e-28 3.2714e-14 0)
(1.95472e-28 9.05684e-14 0)
(2.03032e-29 1.21354e-14 0)
(1.04707e-28 8.55607e-14 0)
(4.10106e-29 5.01694e-14 0)
(4.89418e-29 1.08511e-13 0)
(-6.87597e-30 -2.50549e-14 0)
(6.92007e-30 4.33915e-14 0)
(-1.36882e-15 3.23344e-07 -0)
(-4.01288e-16 -3.99597e-07 0)
(-2.25866e-17 9.48059e-08 -0)
(-1.27145e-18 -2.24922e-08 0)
(-7.14914e-20 5.33625e-09 -0)
(-4.03896e-21 -1.266e-09 0)
(-2.23942e-22 3.00295e-10 -0)
(-1.32915e-23 -7.12413e-11 0)
(-6.09372e-25 1.69094e-11 -0)
(-6.0759e-26 -3.96906e-12 0)
(1.89795e-27 1.08098e-12 0)
(-4.9248e-28 -1.33635e-13 0)
(2.2064e-28 9.68153e-14 0)
(1.48342e-30 7.79129e-16 0)
(2.24397e-29 1.53904e-14 0)
(5.15501e-29 4.26758e-14 0)
(1.27684e-28 1.67956e-13 0)
(1.90344e-29 5.57311e-14 0)
(1.56296e-29 7.70262e-14 0)
(3.58611e-30 3.16292e-14 0)
(-1.36084e-15 -3.22417e-07 0)
(-3.98904e-16 3.98416e-07 -0)
(-2.24533e-17 -9.45245e-08 0)
(-1.26352e-18 2.24255e-08 -0)
(-7.11466e-20 -5.3201e-09 0)
(-3.99495e-21 1.26233e-09 -0)
(-2.2687e-22 -2.99314e-10 0)
(-1.23566e-23 7.1225e-11 -0)
(-7.81132e-25 -1.67879e-11 0)
(-2.59034e-26 4.03367e-12 -0)
(-4.99814e-27 -9.29068e-13 0)
(4.27639e-28 2.39616e-13 0)
(-1.26011e-28 -6.63435e-14 0)
(2.67259e-29 1.95949e-14 0)
(-3.74239e-29 -3.22251e-14 0)
(1.4544e-30 1.66594e-15 0)
(-2.0398e-29 -3.38519e-14 0)
(1.66732e-29 4.18518e-14 0)
(5.41462e-30 2.94195e-14 0)
(3.00321e-30 2.8824e-14 0)
(-1.35325e-15 3.21517e-07 -0)
(-3.96676e-16 -3.97301e-07 0)
(-2.23271e-17 9.42601e-08 -0)
(-1.25664e-18 -2.23624e-08 0)
(-7.07005e-20 5.30535e-09 -0)
(-3.98423e-21 -1.25864e-09 0)
(-2.23078e-22 2.9866e-10 -0)
(-1.28117e-23 -7.0858e-11 0)
(-6.69566e-25 1.68634e-11 -0)
(-4.86094e-26 -3.99293e-12 0)
(-5.40893e-28 9.18201e-13 -0)
(-4.3483e-28 -1.99581e-13 0)
(1.26829e-28 1.11677e-13 0)
(3.27624e-29 3.08513e-14 0)
(4.57962e-29 5.53651e-14 0)
(5.39422e-29 1.06124e-13 0)
(-2.3912e-29 -7.76292e-14 0)
(3.63992e-30 1.81647e-14 0)
(1.1981e-30 9.48e-15 0)
(-4.12673e-31 -3.90848e-15 0)
(-1.34578e-15 -3.20615e-07 0)
(-3.94519e-16 3.96215e-07 -0)
(-2.2206e-17 -9.40023e-08 0)
(-1.24974e-18 2.23013e-08 -0)
(-7.03373e-20 -5.29086e-09 0)
(-3.95799e-21 1.25519e-09 -0)
(-2.2299e-22 -2.97841e-10 0)
(-1.24883e-23 7.0641e-11 -0)
(-7.19492e-25 -1.68021e-11 0)
(-3.70268e-26 3.97819e-12 -0)
(-2.83628e-27 -9.33057e-13 0)
(5.51039e-30 2.38279e-13 0)
(2.39666e-30 3.648e-15 0)
(7.68083e-30 1.45265e-14 0)
(2.1171e-29 4.13727e-14 0)
(-4.99065e-30 -1.29268e-14 0)
(1.55904e-29 1.57667e-13 0)
(-6.88885e-31 6.47448e-15 -0)
(-2.34051e-30 -6.85628e-14 0)
(2.64577e-31 7.12634e-15 0)
(-1.33865e-15 3.19739e-07 -0)
(-3.92489e-16 -3.95184e-07 0)
(-2.2092e-17 9.37581e-08 -0)
(-1.24331e-18 -2.22435e-08 0)
(-6.99895e-20 5.27716e-09 -0)
(-3.9356e-21 -1.25196e-09 0)
(-2.22297e-22 2.97084e-10 -0)
(-1.23546e-23 -7.04289e-11 0)
(-7.21273e-25 1.67113e-11 -0)
(-3.5962e-26 -3.94352e-12 0)
(-2.75742e-27 9.46803e-13 -0)
(-4.58596e-29 -2.37201e-13 0)
(-3.73863e-30 1.38831e-14 -0)
(-1.8006e-30 -3.30353e-14 0)
(5.60835e-31 9.18489e-15 0)
(-2.67071e-30 7.15171e-14 -0)
(-9.68705e-30 8.64846e-14 -0)
(5.52655e-30 -6.20696e-14 -0)
(3.25306e-31 -9.73563e-15 -0)
(-2.08753e-32 -2.50956e-15 0)
(-1.33197e-15 -3.18917e-07 0)
(-3.90591e-16 3.94218e-07 -0)
(-2.19848e-17 -9.35295e-08 0)
(-1.2375e-18 2.21893e-08 -0)
(-6.96119e-20 -5.26438e-09 0)
(-3.92618e-21 1.24889e-09 -0)
(-2.19277e-22 -2.96339e-10 0)
(-1.26847e-23 7.03398e-11 -0)
(-6.48192e-25 -1.66222e-11 0)
(-4.91889e-26 4.02687e-12 -0)
(-5.72403e-28 -9.17015e-13 0)
(-2.97575e-28 1.76106e-13 -0)
(3.55999e-29 -5.98566e-14 -0)
(-3.35032e-29 6.10166e-14 -0)
(-1.4054e-29 3.58732e-14 -0)
(2.68115e-29 -7.33127e-14 -0)
(1.63898e-29 -8.1646e-14 -0)
(5.02533e-31 -5.50086e-15 -0)
(-7.32367e-30 5.02538e-14 -0)
(-3.808e-31 7.35248e-15 -0)
(-1.3254e-15 3.18091e-07 -0)
(-3.88753e-16 -3.93276e-07 0)
(-2.1883e-17 9.33067e-08 -0)
(-1.23141e-18 -2.21367e-08 0)
(-6.93707e-20 5.25185e-09 -0)
(-3.89069e-21 -1.24602e-09 0)
(-2.21809e-22 2.95535e-10 -0)
(-1.19414e-23 -7.01873e-11 0)
(-7.73879e-25 1.66447e-11 -0)
(-2.52389e-26 -3.94337e-12 0)
(-4.49452e-27 9.18761e-13 -0)
(1.50029e-28 -1.29226e-13 -0)
(-1.21988e-28 8.52307e-14 -0)
(1.08464e-29 -1.16743e-14 -0)
(-3.69672e-29 4.78586e-14 -0)
(-2.75906e-29 4.64082e-14 -0)
(1.00672e-29 -2.37795e-14 -0)
(-1.28196e-29 3.5937e-14 -0)
(6.53721e-31 -2.71676e-15 -0)
(1.75013e-30 -2.99132e-14 -0)
(-1.31955e-15 -3.17369e-07 0)
(-3.87089e-16 3.92424e-07 -0)
(-2.17873e-17 -9.31053e-08 0)
(-1.2267e-18 2.2089e-08 -0)
(-6.8947e-20 -5.24055e-09 0)
(-3.90142e-21 1.24338e-09 -0)
(-2.15541e-22 -2.94956e-10 0)
(-1.28772e-23 6.99384e-11 -0)
(-5.90641e-25 -1.66664e-11 0)
(-5.57132e-26 3.84838e-12 -0)
(8.47822e-28 -9.67448e-13 -0)
(-4.54756e-28 1.5653e-13 -0)
(3.56418e-29 -2.18863e-14 -0)
(2.64953e-29 -1.99046e-14 -0)
(7.2866e-30 -8.21165e-15 -0)
(-4.87238e-29 6.89264e-14 -0)
(-1.14456e-29 2.3244e-14 -0)
(1.2499e-29 -3.14649e-14 -0)
(7.30362e-30 -4.10865e-14 -0)
(-5.93137e-31 -4.35183e-14 0)
(-1.31328e-15 3.16557e-07 -0)
(-3.85368e-16 -3.91535e-07 0)
(-2.16948e-17 9.28952e-08 -0)
(-1.2205e-18 -2.20393e-08 0)
(-6.88398e-20 5.22887e-09 -0)
(-3.84645e-21 -1.24047e-09 0)
(-2.21826e-22 2.94366e-10 -0)
(-1.15437e-23 -6.98451e-11 0)
(-8.14432e-25 1.65672e-11 -0)
(-1.7668e-26 -3.94071e-12 0)
(-5.5439e-27 8.90068e-13 -0)
(5.01377e-28 -2.2295e-13 -0)
(-4.95902e-29 2.35945e-14 -0)
(4.09188e-29 -2.92157e-14 -0)
(1.45806e-29 -1.46324e-14 -0)
(1.5042e-29 -2.11219e-14 -0)
(1.99492e-29 -3.87971e-14 -0)
(1.22095e-29 -3.76628e-14 -0)
(8.20704e-30 -5.96596e-14 -0)
(-1.85893e-32 -1.362e-14 0)
(-1.30833e-15 -3.15984e-07 0)
(-3.83885e-16 3.9078e-07 -0)
(-2.16046e-17 -9.27168e-08 0)
(-1.21705e-18 2.19972e-08 -0)
(-6.82952e-20 -5.21886e-09 0)
(-3.88105e-21 1.2382e-09 -0)
(-2.12035e-22 -2.93713e-10 0)
(-1.29956e-23 6.96934e-11 -0)
(-5.55733e-25 -1.65141e-11 0)
(-6.08797e-26 3.96275e-12 -0)
(1.4766e-27 -9.01059e-13 -0)
(-7.14912e-28 2.12085e-13 -0)
(1.36749e-28 -7.34328e-14 -0)
(-5.74784e-29 3.7027e-14 -0)
(6.9405e-29 -6.04415e-14 -0)
(4.64608e-29 -6.86405e-14 -0)
(5.50391e-30 -1.19159e-14 -0)
(5.73936e-31 -2.00213e-15 -0)
(4.00072e-30 -2.34201e-14 -0)
(1.17138e-30 -2.23286e-14 -0)
(-1.30152e-15 3.15038e-07 -0)
(-3.82132e-16 -3.89858e-07 0)
(-2.15211e-17 9.24988e-08 -0)
(-1.20972e-18 -2.19457e-08 0)
(-6.84003e-20 5.20664e-09 -0)
(-3.80638e-21 -1.2354e-09 0)
(-2.21068e-22 2.93052e-10 -0)
(-1.14056e-23 -6.94956e-11 0)
(-8.06387e-25 1.65116e-11 -0)
(-1.93744e-26 -3.90093e-12 0)
(-5.52794e-27 9.59301e-13 -0)
(4.26132e-28 -2.2242e-13 -0)
(1.42487e-29 -7.45236e-15 -0)
(8.81322e-29 -6.78322e-14 -0)
(1.31879e-28 -1.37004e-13 -0)
(5.87613e-29 -1.24671e-13 -0)
(1.43089e-29 -5.5463e-14 -0)
(1.79286e-29 -9.54903e-14 -0)
(2.06666e-30 -1.77795e-14 -0)
(1.25663e-31 -1.26196e-14 -0)
(-1.30132e-15 -3.15533e-07 0)
(-3.81414e-16 3.89723e-07 -0)
(-2.14558e-17 -9.25373e-08 0)
(-1.21069e-18 2.19715e-08 -0)
(-6.78034e-20 -5.21677e-09 0)
(-3.85644e-21 1.2387e-09 -0)
(-2.11269e-22 -2.94099e-10 0)
(-1.26767e-23 6.98352e-11 -0)
(-5.92963e-25 -1.65968e-11 0)
(-5.11224e-26 3.898e-12 -0)
(-1.19225e-31 -9.67291e-13 0)
(-5.99474e-28 2.87258e-13 -0)
(2.59156e-29 -2.65773e-14 -0)
(-2.87434e-29 3.90053e-14 -0)
(-4.41812e-29 8.00377e-14 -0)
(-1.31436e-29 2.90091e-14 -0)
(-7.8466e-30 2.61558e-14 -0)
(-6.07557e-30 3.52122e-14 -0)
(-1.20655e-30 1.0967e-14 -0)
(-1.67278e-31 1.49873e-14 -0)
(-1.29755e-15 3.15273e-07 -0)
(-3.79477e-16 -3.88924e-07 0)
(-2.13879e-17 9.22901e-08 -0)
(-1.20623e-18 -2.19613e-08 0)
(-6.79627e-20 5.20144e-09 -0)
(-3.85206e-21 -1.247e-09 0)
(-2.15432e-22 2.90779e-10 -0)
(-1.25499e-23 -7.30524e-11 0)
(-6.48329e-25 1.49301e-11 -0)
(-4.50238e-26 -5.19386e-12 0)
(-4.9126e-28 1.56402e-13 -0)
(-4.61816e-29 -8.05595e-13 0)
(1.52504e-28 -3.01351e-13 -0)
(4.47117e-29 -2.45976e-13 -0)
(2.7393e-29 -1.27578e-13 -0)
(2.14673e-29 -8.21728e-14 -0)
(1.45909e-29 -7.07818e-14 -0)
(1.37761e-30 -1.44207e-14 -0)
(2.11972e-30 -3.42264e-14 -0)
(8.68817e-31 -3.57299e-14 -0)
)
;

boundaryField
{
    movingWall
    {
        type            calculated;
        value           nonuniform List<vector> 
20
(
(0 3.13448e-07 -0)
(0 -3.89438e-07 -0)
(0 9.25055e-08 -0)
(0 -2.21341e-08 -0)
(0 5.23719e-09 -0)
(0 -1.2732e-09 -0)
(0 2.91594e-10 -0)
(0 -7.79613e-11 -0)
(0 1.35147e-11 -0)
(0 -6.64847e-12 -0)
(0 -6.93179e-13 -0)
(0 -1.50694e-12 -0)
(0 -8.1986e-13 -0)
(0 -6.5086e-13 -0)
(0 -4.36142e-13 -0)
(0 -3.56129e-13 -0)
(0 -2.83025e-13 -0)
(0 -5.88297e-14 -0)
(0 -5.15303e-14 -0)
(0 -5.30338e-14 -0)
)
;
    }
    fixedWalls
    {
        type            calculated;
        value           nonuniform List<vector> 
60
(
(0 -1.71375e-06 -0)
(0 1.71399e-06 -0)
(0 -1.71264e-06 -0)
(0 1.71171e-06 -0)
(0 -1.70783e-06 -0)
(0 1.70363e-06 -0)
(0 -1.69861e-06 -0)
(0 1.69377e-06 -0)
(0 -1.68877e-06 -0)
(0 1.68404e-06 -0)
(0 -1.67943e-06 -0)
(0 1.67506e-06 -0)
(0 -1.67096e-06 -0)
(0 1.66697e-06 -0)
(0 -1.66335e-06 -0)
(0 1.65958e-06 -0)
(0 -1.65636e-06 -0)
(0 1.65245e-06 -0)
(0 -1.65066e-06 -0)
(0 1.64753e-06 -0)
(0 4.50802e-15 -0)
(0 -1.74099e-14 -0)
(0 -1.10465e-14 -0)
(0 4.45297e-14 -0)
(0 3.49696e-14 -0)
(0 5.36237e-14 -0)
(0 6.37919e-14 -0)
(0 4.53519e-14 -0)
(0 4.16765e-14 -0)
(0 1.51285e-14 -0)
(0 1.48506e-14 -0)
(0 3.32733e-15 -0)
(0 6.38825e-15 -0)
(0 -2.34028e-14 -0)
(0 -2.16532e-14 -0)
(0 5.45943e-16 -0)
(0 -2.09844e-14 -0)
(0 -3.98311e-15 -0)
(0 2.26405e-14 -0)
(0 -3.68316e-14 -0)
(0 -3.27621e-07 -0)
(0 4.05709e-07 -0)
(0 -9.64732e-08 -0)
(0 2.31257e-08 -0)
(0 -5.46158e-09 -0)
(0 1.33788e-09 -0)
(0 -3.01763e-10 -0)
(0 8.41338e-11 -0)
(0 -1.24664e-11 -0)
(0 8.32758e-12 -0)
(0 1.84768e-12 -0)
(0 2.19899e-12 -0)
(0 1.4048e-12 -0)
(0 9.73638e-13 -0)
(0 6.38228e-13 -0)
(0 3.26797e-13 -0)
(0 1.56344e-13 -0)
(0 6.22061e-14 -0)
(0 8.3856e-15 -0)
(0 7.08731e-15 -0)
)
;
    }
    frontAndBack
    {
        type            empty;
    }
}


// ************************************************************************* //
