/*--------------------------------*- C++ -*----------------------------------*\
| =========                 |                                                 |
| \\      /  F ield         | OpenFOAM: The Open Source CFD Toolbox           |
|  \\    /   O peration     | Version:  2506                                  |
|   \\  /    A nd           | Website:  www.openfoam.com                      |
|    \\/     M anipulation  |                                                 |
\*---------------------------------------------------------------------------*/
FoamFile
{
    version     2.0;
    format      ascii;
    arch        "LSB;label=32;scalar=64";
    class       volScalarField;
    location    "4.875";
    object      Lambda2Field;
}
// * * * * * * * * * * * * * * * * * * * * * * * * * * * * * * * * * * * * * //

dimensions      [0 0 -2 0 0 0 0];

internalField   nonuniform List<scalar> 
400
(
5.49202e-17
-1.03318e-16
-9.36524e-18
-1.70102e-18
-3.74492e-20
-1.90838e-20
9.25533e-22
-3.13222e-22
3.93996e-23
-7.0746e-24
1.29219e-24
-1.36197e-25
7.15452e-26
2.0422e-26
1.38939e-26
1.00872e-26
1.68552e-27
0
1.62651e-28
0
6.46815e-16
3.62179e-17
4.87427e-18
-9.43941e-19
-8.48573e-21
-1.0274e-20
2.00789e-22
-1.14454e-22
1.06998e-23
-1.33613e-24
5.29592e-25
4.97024e-26
6.08174e-26
2.78839e-26
8.10935e-27
7.58544e-27
6.45146e-28
1.18096e-27
5.14966e-29
1.51214e-29
7.68082e-16
1.87122e-16
1.68546e-17
1.05245e-18
3.78434e-20
8.70397e-21
-3.34866e-22
1.12235e-22
-1.08049e-23
2.44442e-24
-9.6016e-26
1.22949e-25
2.75953e-26
1.2466e-26
1.0346e-26
-2.91268e-28
1.40185e-27
0
-1.79364e-27
7.58403e-29
3.14323e-16
7.75291e-17
6.03325e-18
3.27757e-19
2.85534e-20
-7.41488e-22
4.81691e-22
-6.88544e-23
1.26145e-23
-1.68916e-24
4.10676e-25
2.19543e-26
4.24859e-26
1.32537e-26
1.17437e-26
3.55119e-27
3.65467e-27
3.22479e-27
1.50458e-27
-2.76567e-28
1.20945e-16
2.74632e-17
2.18975e-18
1.23269e-19
3.55254e-21
1.70986e-21
-2.32961e-22
5.93627e-23
-9.77844e-24
2.21399e-24
-2.10994e-25
1.24688e-25
2.84107e-26
2.15732e-26
6.25833e-27
5.35396e-27
5.47404e-29
2.9466e-27
1.48213e-27
8.1898e-29
-3.43716e-17
-2.37765e-18
-1.04351e-18
-1.74801e-20
-1.12819e-21
-8.05801e-22
1.4923e-22
-3.82471e-23
7.20442e-24
-1.0637e-24
3.5709e-25
6.59999e-27
2.14663e-26
1.21481e-26
0
4.58318e-27
3.9135e-27
3.26321e-28
7.46427e-29
0
-9.49074e-17
-1.84924e-17
-2.1668e-18
-9.95683e-20
-7.84727e-21
-1.78301e-22
-1.20021e-22
2.17756e-23
-5.30796e-24
9.97561e-25
-5.62725e-26
7.40947e-26
1.58845e-26
1.0615e-26
7.59895e-27
1.03855e-28
2.38189e-27
-4.91688e-30
1.68104e-27
4.27642e-30
-1.33862e-16
-2.86013e-17
-3.12313e-18
-1.41451e-19
-1.10692e-20
-9.35304e-22
2.56106e-23
-1.90712e-23
3.89968e-24
-6.3228e-25
1.36538e-25
2.35774e-27
2.94043e-26
1.29856e-26
4.50774e-27
3.12171e-27
-6.58347e-27
2.77148e-29
0
0
-1.43439e-16
-3.20374e-17
-3.23105e-18
-1.67542e-19
-1.05524e-20
-8.89332e-22
-4.94077e-23
-4.02108e-24
-1.22397e-24
4.32849e-25
-3.39915e-26
6.04309e-26
1.63169e-26
1.06131e-26
4.72645e-27
7.92417e-27
5.90429e-27
0
5.85692e-29
6.07731e-31
-1.44272e-16
-3.27863e-17
-3.28089e-18
-1.62066e-19
-1.17861e-20
-8.02075e-22
-4.51508e-23
-9.47588e-24
1.37487e-25
-2.34804e-25
1.3603e-25
2.6356e-26
1.54355e-26
7.34684e-28
4.21996e-27
0
3.33837e-27
2.5481e-27
0
6.28744e-28
-1.35464e-16
-3.11632e-17
-3.05195e-18
-1.53329e-19
-1.10286e-20
-7.27643e-22
-5.2119e-23
-2.46809e-24
-7.885e-25
9.33069e-26
3.59995e-26
3.94172e-26
2.11081e-26
6.61216e-27
5.48247e-27
5.17671e-27
-2.40064e-27
7.34684e-28
0
0
-1.19777e-16
-2.78881e-17
-2.66142e-18
-1.38704e-19
-9.46474e-21
-5.94057e-22
-7.31045e-23
5.75192e-24
-1.11424e-24
4.00748e-25
9.96212e-27
3.65035e-26
1.17549e-26
6.61216e-27
6.61216e-27
2.00052e-27
4.77392e-28
0
3.23534e-28
0
-1.05121e-16
-2.43614e-17
-2.36939e-18
-1.16995e-19
-8.4842e-21
-6.50039e-22
5.1607e-26
-1.62503e-23
3.22582e-24
-6.22246e-25
1.69094e-25
1.17338e-26
1.96855e-26
8.26273e-27
7.6062e-27
2.0689e-27
-5.17932e-28
0
6.43837e-28
5.35395e-28
-8.08967e-17
-1.90789e-17
-1.74166e-18
-9.55493e-20
-6.42122e-21
-2.0699e-22
-8.2337e-23
1.52694e-23
-4.22576e-24
9.2855e-25
-7.595e-26
8.67961e-26
1.32005e-26
6.51033e-27
2.72052e-27
4.00251e-27
7.34684e-28
1.92622e-27
8.1858e-28
4.27999e-29
-6.9788e-17
-1.59701e-17
-1.62768e-18
-7.77917e-20
-4.11136e-21
-9.64479e-22
1.2018e-22
-2.75176e-23
5.08452e-24
-7.40445e-25
2.37426e-25
4.96049e-28
2.5829e-26
4.75245e-27
3.88582e-27
4.28193e-27
1.76119e-27
1.05916e-29
0
0
-3.43041e-17
-8.34712e-18
-6.97978e-19
-3.31551e-20
-5.53474e-21
8.74805e-22
-2.34787e-22
4.2005e-23
-7.77147e-24
1.51567e-24
-1.27616e-25
7.90356e-26
9.19682e-27
9.47723e-27
4.41292e-27
1.3072e-27
0
0
-8.81911e-28
0
-5.12582e-17
-1.17857e-17
-1.23565e-18
-8.35037e-20
2.41294e-21
-2.13746e-21
3.19626e-22
-5.94319e-23
1.02042e-23
-1.52815e-24
3.59726e-25
-3.13209e-27
2.00768e-26
7.8431e-27
2.38442e-27
5.79939e-28
1.71406e-27
9.75077e-28
0
0
2.44428e-17
2.62909e-18
6.55251e-19
1.52833e-19
-1.22305e-20
3.5622e-21
-3.94088e-22
7.47934e-23
-9.4474e-24
1.79835e-24
-1.59692e-25
7.91069e-26
9.95488e-27
9.22249e-27
-9.32539e-28
-3.31887e-27
-3.39593e-29
-4.17971e-28
3.69765e-29
1.70567e-29
-3.06461e-16
-1.89172e-16
-1.65291e-17
-1.85325e-18
-9.22248e-20
-1.32512e-20
-2.60968e-22
-1.06727e-22
4.40125e-24
-1.02502e-24
2.1818e-25
2.04324e-26
3.30036e-26
1.51954e-26
8.67049e-27
1.80751e-27
1.52083e-27
1.11493e-27
4.37422e-28
3.28452e-28
-4.01563e-16
-2.07794e-16
-1.94463e-17
-2.02911e-18
-8.91378e-20
-1.76597e-20
2.81827e-22
-2.29689e-22
2.3142e-23
-4.49739e-24
7.05519e-25
-1.01649e-25
2.97157e-26
2.94438e-28
6.95567e-27
6.64946e-28
1.66337e-27
7.18622e-28
0
0
)
;

boundaryField
{
    movingWall
    {
        type            calculated;
        value           nonuniform List<scalar> 
20
(
1.71113e-16
0
0
0
0
0
1.04987e-22
0
4.76249e-23
0
1.46263e-24
-3.01193e-25
5.6174e-26
-1.1502e-26
1.01415e-26
4.29992e-28
2.38339e-27
9.42747e-29
0
0
)
;
    }
    fixedWalls
    {
        type            calculated;
        value           nonuniform List<scalar> 
60
(
2.88196e-16
3.39369e-15
4.02636e-15
1.63634e-15
6.12015e-16
-6.06773e-17
-3.86169e-16
-6.12324e-16
-6.76821e-16
-7.00192e-16
-6.64796e-16
-5.9558e-16
-5.24443e-16
-4.05692e-16
-3.49057e-16
-1.68989e-16
-2.55735e-16
1.26681e-16
-1.588e-15
-2.10849e-15
0
1.51214e-29
0
0
8.1898e-29
0
4.27642e-30
0
6.07731e-31
1.14474e-27
9.4606e-29
0
5.6153e-28
4.27999e-29
1.47772e-28
0
0
1.70567e-29
1.21011e-28
0
0
0
0
0
0
0
1.02665e-21
0
8.09548e-23
-5.14185e-24
2.78752e-24
-4.46852e-25
9.66064e-26
0
8.10664e-27
1.20823e-26
0
0
5.68403e-28
0
)
;
    }
    frontAndBack
    {
        type            empty;
    }
}


// ************************************************************************* //
