/*--------------------------------*- C++ -*----------------------------------*\
| =========                 |                                                 |
| \\      /  F ield         | OpenFOAM: The Open Source CFD Toolbox           |
|  \\    /   O peration     | Version:  2506                                  |
|   \\  /    A nd           | Website:  www.openfoam.com                      |
|    \\/     M anipulation  |                                                 |
\*---------------------------------------------------------------------------*/
FoamFile
{
    version     2.0;
    format      ascii;
    arch        "LSB;label=32;scalar=64";
    class       volScalarField;
    location    "4.875";
    object      QField;
}
// * * * * * * * * * * * * * * * * * * * * * * * * * * * * * * * * * * * * * //

dimensions      [0 0 -2 0 0 0 0];

internalField   nonuniform List<scalar> 
400
(
-5.49729e-17
1.03418e-16
9.43576e-18
1.71681e-18
4.12906e-20
1.9327e-20
-9.45027e-22
3.15651e-22
-4.01251e-23
7.18254e-24
-1.32977e-24
1.36791e-25
-7.69097e-26
-2.06155e-26
-1.42676e-26
-1.28383e-26
-2.96554e-27
-7.91364e-29
-3.45683e-28
0
-6.4667e-16
-3.61532e-17
-4.87354e-18
9.44532e-19
8.54899e-21
1.02752e-20
-2.01227e-22
1.14487e-22
-1.07418e-23
1.36502e-24
-5.33563e-25
-5.19777e-26
-6.27341e-26
-2.88974e-26
-1.05166e-26
-8.74078e-27
-1.07961e-27
-1.86294e-27
-3.89018e-28
-2.10802e-28
-7.68842e-16
-1.87683e-16
-1.68723e-17
-1.05603e-18
-3.79125e-20
-8.7138e-21
3.43537e-22
-1.11823e-22
1.09025e-23
-2.4641e-24
1.0668e-25
-1.2431e-25
-2.85425e-26
-1.39164e-26
-1.29857e-26
8.13234e-28
-1.40185e-27
0
1.81928e-27
-2.36048e-28
-3.15113e-16
-7.85249e-17
-6.08324e-18
-3.32465e-19
-2.8962e-20
8.54276e-22
-4.85058e-22
6.93062e-23
-1.26102e-23
1.70238e-24
-4.11616e-25
-2.28622e-26
-4.3492e-26
-1.32644e-26
-1.20478e-26
-4.21538e-27
-3.76272e-27
-3.37555e-27
-1.50458e-27
6.99434e-28
-1.21442e-16
-2.88296e-17
-2.25183e-18
-1.30465e-19
-3.84709e-21
-1.75063e-21
2.46126e-22
-5.98144e-23
9.81282e-24
-2.21854e-24
2.11216e-25
-1.24688e-25
-2.85712e-26
-2.17322e-26
-6.25833e-27
-5.88501e-27
4.01083e-28
-2.9466e-27
-1.5466e-27
-2.45294e-28
3.44171e-17
8.75331e-18
1.2816e-18
5.63109e-20
3.11665e-21
9.51128e-22
-1.53536e-22
3.8713e-23
-7.28512e-24
1.0692e-24
-3.57582e-25
-7.1658e-27
-2.21695e-26
-1.37023e-26
0
-4.58318e-27
-3.9135e-27
9.79271e-28
-4.68354e-28
0
9.52447e-17
2.45392e-17
2.39437e-18
1.36493e-19
9.65592e-21
3.36673e-22
1.30996e-22
-2.22626e-23
5.36663e-24
-9.99193e-25
6.1488e-26
-7.53769e-26
-1.63804e-26
-1.06998e-26
-7.59895e-27
5.52451e-28
-3.47295e-27
1.60791e-27
-1.85228e-27
5.60519e-29
1.3459e-16
3.36375e-17
3.30985e-18
1.71596e-19
1.26146e-20
1.04929e-21
-2.88813e-23
1.93981e-23
-4.0293e-24
6.46036e-25
-1.44521e-25
-8.05577e-27
-3.43493e-26
-1.5288e-26
-5.16008e-27
-3.79287e-27
7.04519e-27
2.85388e-28
7.46872e-28
0
1.44356e-16
3.63583e-17
3.39213e-18
1.9334e-19
1.18276e-20
9.96798e-22
5.70772e-23
5.01969e-24
1.29885e-24
-4.53548e-25
3.8129e-26
-6.22351e-26
-1.69576e-26
-1.08478e-26
-5.70173e-27
-1.06147e-26
-7.53652e-27
0
-2.07436e-28
2.11303e-29
1.45411e-16
3.61733e-17
3.40503e-18
1.81859e-19
1.27955e-20
8.75996e-22
5.34871e-23
9.69198e-24
-1.80906e-25
2.39858e-25
-1.44701e-25
-2.87481e-26
-1.68376e-26
-2.26374e-27
-5.28233e-27
1.745e-28
-3.33837e-27
-6.84114e-27
0
-6.28744e-28
1.36653e-16
3.39745e-17
3.15582e-18
1.69732e-19
1.18389e-20
7.95455e-22
5.67531e-23
3.19845e-24
8.51706e-25
-1.07634e-25
-4.40807e-26
-4.3051e-26
-2.17819e-26
-8.19202e-27
-5.84289e-27
-5.19588e-27
3.06235e-27
-7.8448e-28
-8.81946e-29
0
1.21048e-16
3.00339e-17
2.73912e-18
1.50938e-19
1.00906e-20
6.37695e-22
7.80836e-23
-5.68546e-24
1.1656e-24
-4.06093e-25
-1.70865e-26
-4.43061e-26
-1.35713e-26
-8.76439e-27
-7.34669e-27
-3.13722e-27
-2.01604e-27
3.44506e-28
-9.7508e-28
0
1.06342e-16
2.61732e-17
2.43596e-18
1.27368e-19
8.9923e-21
6.9418e-22
3.4482e-25
1.66127e-23
-3.25306e-24
6.39605e-25
-1.7484e-25
-1.90882e-26
-2.19313e-26
-9.64866e-27
-7.77155e-27
-3.49514e-27
1.48731e-27
0
-1.33777e-27
-5.35395e-28
8.21401e-17
2.04601e-17
1.79104e-18
1.0322e-19
6.8166e-21
2.33135e-22
8.58327e-23
-1.5287e-23
4.27421e-24
-9.38887e-25
9.04318e-26
-8.82194e-26
-1.37221e-26
-7.811e-27
-2.72052e-27
-4.68801e-27
-7.9057e-28
-2.64877e-27
-8.95135e-28
-1.77326e-28
7.09506e-17
1.72282e-17
1.67393e-18
8.49511e-20
4.45422e-21
9.95692e-22
-1.1975e-22
2.78484e-23
-5.10142e-24
7.45899e-25
-2.37674e-25
-2.72979e-27
-2.86028e-26
-5.29575e-27
-5.20565e-27
-4.28193e-27
-1.43246e-27
8.82127e-29
0
2.82599e-28
3.55223e-17
9.30759e-18
7.31603e-19
3.83061e-20
5.80804e-21
-8.76067e-22
2.36953e-22
-4.2005e-23
7.7965e-24
-1.51754e-24
1.35651e-25
-7.95631e-26
-9.19682e-27
-8.38821e-27
-5.8539e-27
-1.3072e-27
0
0
8.82392e-28
0
5.23978e-17
1.2828e-17
1.27492e-18
8.94822e-20
-2.45667e-21
2.16577e-21
-3.19525e-22
5.96375e-23
-1.02058e-23
1.52918e-24
-3.61343e-25
3.33815e-27
-2.0231e-26
-7.46587e-27
-2.28116e-27
-1.30548e-27
-1.7521e-27
-1.15874e-27
0
0
-2.51003e-17
-2.87826e-18
-6.66102e-19
-1.53867e-19
1.23942e-20
-3.56513e-21
3.94928e-22
-7.48089e-23
9.45673e-24
-1.80007e-24
1.59898e-25
-8.0022e-26
-1.05564e-26
-1.14142e-26
2.87198e-27
3.81968e-27
3.29808e-28
8.43331e-28
1.64821e-28
-1.11943e-28
3.07125e-16
1.90308e-16
1.65672e-17
1.86135e-18
9.2565e-20
1.32837e-20
2.66091e-22
1.07087e-22
-4.50438e-24
1.03162e-24
-2.20514e-25
-2.42839e-26
-3.369e-26
-1.55563e-26
-9.15864e-27
-2.50502e-27
-1.52083e-27
-5.29935e-28
-4.37422e-28
-3.28452e-28
4.01955e-16
2.0781e-16
1.94869e-17
2.03948e-18
9.19221e-20
1.78722e-20
-2.95068e-22
2.31295e-22
-2.36345e-23
4.56253e-24
-7.17542e-25
1.09834e-25
-3.588e-26
-1.15256e-27
-7.31167e-27
-1.86646e-27
-4.58917e-27
-7.26609e-28
1.93025e-28
1.37615e-28
)
;

boundaryField
{
    movingWall
    {
        type            calculated;
        value           nonuniform List<scalar> 
20
(
4.84941e-16
5.02284e-16
2.11641e-17
3.7662e-18
-1.67554e-20
3.35589e-20
-2.44866e-21
5.26441e-22
-7.01203e-23
1.15886e-23
-1.78118e-24
3.31371e-25
-5.85821e-26
1.22018e-26
-1.05132e-26
-2.52775e-27
-4.52431e-27
-3.95328e-28
3.16252e-28
1.19383e-28
)
;
    }
    fixedWalls
    {
        type            calculated;
        value           nonuniform List<scalar> 
60
(
-2.87508e-16
-3.39322e-15
-4.0329e-15
-1.65198e-15
-6.35534e-16
1.81863e-16
5.00929e-16
7.07057e-16
7.58208e-16
7.63522e-16
7.17517e-16
6.35501e-16
5.58335e-16
4.31272e-16
3.72595e-16
1.86682e-16
2.75258e-16
-1.31314e-16
1.61125e-15
2.10876e-15
0
-3.45379e-28
0
-3.85849e-29
-8.03779e-28
0
1.83671e-28
0
6.92398e-29
-1.14474e-27
4.31946e-28
0
-5.6153e-28
-2.9053e-28
-1.47772e-28
0
0
-1.83408e-28
-1.21011e-28
1.06085e-28
5.16681e-16
5.35047e-16
2.30784e-17
4.59064e-18
-8.19201e-20
4.57889e-20
-3.92592e-21
7.78115e-22
-1.09948e-22
1.89398e-23
-3.29628e-24
5.09905e-25
-1.10679e-25
9.93871e-28
-1.12566e-26
-1.27355e-26
-2.07169e-27
-2.41006e-28
-6.46217e-28
0
)
;
    }
    frontAndBack
    {
        type            empty;
    }
}


// ************************************************************************* //
