/*--------------------------------*- C++ -*----------------------------------*\
| =========                 |                                                 |
| \\      /  F ield         | OpenFOAM: The Open Source CFD Toolbox           |
|  \\    /   O peration     | Version:  2506                                  |
|   \\  /    A nd           | Website:  www.openfoam.com                      |
|    \\/     M anipulation  |                                                 |
\*---------------------------------------------------------------------------*/
FoamFile
{
    version     2.0;
    format      ascii;
    arch        "LSB;label=32;scalar=64";
    class       volScalarField;
    location    "4.875";
    object      Uy;
}
// * * * * * * * * * * * * * * * * * * * * * * * * * * * * * * * * * * * * * //

dimensions      [0 1 -1 0 0 0 0];

internalField   nonuniform List<scalar> 
400
(
4.28481e-09
-1.01691e-09
2.41746e-10
-5.73183e-11
1.36614e-11
-3.22741e-12
7.77325e-13
-1.79134e-13
4.61211e-14
-8.72826e-15
3.70149e-15
3.28515e-16
8.07426e-16
4.91335e-16
3.9692e-16
3.26303e-16
2.37575e-16
9.5126e-17
5.9603e-17
1.12701e-17
-4.28993e-09
1.01969e-09
-2.41628e-10
5.75325e-11
-1.35657e-11
3.26322e-12
-7.48326e-13
1.92937e-13
-3.58102e-14
1.50449e-14
9.03515e-16
2.94225e-15
1.68812e-15
1.41622e-15
9.85906e-16
7.80345e-16
5.40647e-16
2.90013e-16
6.79315e-17
-4.35247e-17
4.28747e-09
-1.01826e-09
2.41819e-10
-5.73087e-11
1.3687e-11
-3.20039e-12
7.91874e-13
-1.67484e-13
5.36978e-14
-3.24959e-15
7.38848e-15
2.9523e-15
2.8058e-15
1.92137e-15
1.38309e-15
9.5597e-16
6.81893e-16
4.38777e-16
1.31364e-16
-2.76161e-17
-4.28166e-09
1.01634e-09
-2.41127e-10
5.72816e-11
-1.35437e-11
3.2541e-12
-7.42954e-13
1.97284e-13
-3.18321e-14
1.8291e-14
3.5274e-15
4.91135e-15
2.96945e-15
2.34411e-15
1.70092e-15
1.18151e-15
8.55754e-16
5.98654e-16
3.29524e-16
4.35616e-17
4.27046e-09
-1.01334e-09
2.40479e-10
-5.70227e-11
1.35672e-11
-3.18869e-12
7.81235e-13
-1.66339e-13
5.38614e-14
-2.04918e-15
8.55932e-15
3.94505e-15
3.44801e-15
2.46544e-15
1.86163e-15
1.31098e-15
9.04383e-16
6.31675e-16
3.60832e-16
8.74241e-17
-4.25875e-09
1.01041e-09
-2.39707e-10
5.68956e-11
-1.34726e-11
3.21989e-12
-7.43969e-13
1.92635e-13
-3.30133e-14
1.76788e-14
3.37824e-15
4.93817e-15
3.15312e-15
2.42993e-15
1.77519e-15
1.30986e-15
9.2974e-16
5.87942e-16
3.03181e-16
1.34059e-16
4.24573e-09
-1.00721e-09
2.38975e-10
-5.66758e-11
1.34632e-11
-3.17691e-12
7.68854e-13
-1.69513e-13
5.08425e-14
-3.5099e-15
7.42975e-15
3.29857e-15
3.12084e-15
2.15828e-15
1.67305e-15
1.22378e-15
8.17444e-16
4.51031e-16
2.74436e-16
1.5948e-16
-4.23333e-09
1.00423e-09
-2.3824e-10
5.65284e-11
-1.33973e-11
3.19034e-12
-7.4574e-13
1.86571e-13
-3.60374e-14
1.53082e-14
1.75578e-15
3.68526e-15
2.27898e-15
1.90395e-15
1.45803e-15
1.20795e-15
7.60224e-16
3.4154e-16
2.02912e-16
1.1338e-16
4.22076e-09
-1.00122e-09
2.37539e-10
-5.6343e-11
1.33732e-11
-3.16473e-12
7.57966e-13
-1.73487e-13
4.65296e-14
-6.42179e-15
5.37974e-15
1.78469e-15
1.89938e-15
1.36392e-15
1.16133e-15
8.7302e-16
6.02567e-16
3.98387e-16
1.84049e-16
1.04191e-16
-4.20894e-09
9.98428e-10
-2.36867e-10
5.61943e-11
-1.33263e-11
3.16551e-12
-7.4693e-13
1.80808e-13
-3.97052e-14
1.21739e-14
-5.89078e-16
2.17871e-15
1.13568e-15
1.06195e-15
8.27168e-16
5.08294e-16
3.08029e-16
2.00384e-16
1.26382e-16
1.05584e-16
4.19749e-09
-9.95721e-10
2.36229e-10
-5.60391e-11
1.32941e-11
-3.15329e-12
7.48689e-13
-1.76786e-13
4.28217e-14
-9.30745e-15
3.03977e-15
2.31258e-17
6.5698e-16
5.28747e-16
5.11715e-16
3.86071e-16
9.88816e-17
-1.064e-16
3.41368e-17
3.71266e-17
-4.18668e-09
9.9318e-10
-2.35628e-10
5.58957e-11
-1.32627e-11
3.14355e-12
-7.48263e-13
1.75419e-13
-4.31607e-14
9.11926e-15
-2.91235e-15
1.93336e-16
-2.69293e-16
5.45052e-17
6.10606e-17
-3.73437e-17
-1.12009e-16
-8.90379e-17
-3.34139e-17
8.31832e-18
4.17655e-09
-9.908e-10
2.35058e-10
-5.57702e-11
1.32232e-11
-3.14373e-12
7.39954e-13
-1.80334e-13
3.89956e-14
-1.22151e-14
6.24203e-16
-1.68975e-15
-5.94754e-16
-5.49083e-16
-3.91768e-16
-3.65715e-16
-2.00742e-16
-9.13553e-17
-1.45734e-16
-5.1792e-17
-4.16675e-09
9.885e-10
-2.34528e-10
5.56278e-11
-1.32088e-11
3.1225e-12
-7.50535e-13
1.70137e-13
-4.6494e-14
6.40033e-15
-4.89193e-15
-1.16098e-15
-1.43127e-15
-9.29085e-16
-7.72426e-16
-5.9452e-16
-4.23356e-16
-3.56725e-16
-2.40625e-16
-5.8507e-17
4.15779e-09
-9.86405e-10
2.34007e-10
-5.55346e-11
1.31564e-11
-3.13775e-12
7.30757e-13
-1.84122e-13
3.5439e-14
-1.44771e-14
-8.76349e-16
-2.90523e-15
-1.6285e-15
-1.33111e-15
-8.87349e-16
-7.06896e-16
-4.92411e-16
-3.97235e-16
-1.77762e-16
1.36296e-17
-4.14864e-09
9.84249e-10
-2.3354e-10
5.53781e-11
-1.31653e-11
3.1008e-12
-7.53573e-13
1.65276e-13
-4.91594e-14
4.48345e-15
-6.22862e-15
-2.24883e-15
-2.10177e-15
-1.40058e-15
-9.96462e-16
-7.12151e-16
-5.14193e-16
-3.2418e-16
-1.37565e-16
1.36486e-18
4.14048e-09
-9.82356e-10
2.33017e-10
-5.53276e-11
1.30862e-11
-3.13444e-12
7.21912e-13
-1.86468e-13
3.36519e-14
-1.5363e-14
-1.63873e-15
-3.37087e-15
-1.86223e-15
-1.55234e-15
-1.1483e-15
-6.76871e-16
-4.61896e-16
-2.86662e-16
-1.70824e-16
-5.24611e-17
-4.13131e-09
9.80181e-10
-2.32663e-10
5.51234e-11
-1.31371e-11
3.08109e-12
-7.54364e-13
1.6412e-13
-4.88375e-14
4.96662e-15
-5.76247e-15
-1.91589e-15
-1.91197e-15
-1.29927e-15
-9.62597e-16
-4.71332e-16
-2.5799e-16
-1.87753e-16
-1.16238e-16
-9.95778e-18
4.12419e-09
-9.78679e-10
2.31861e-10
-5.51026e-11
1.29972e-11
-3.1133e-12
7.18359e-13
-1.81523e-13
3.57275e-14
-1.31151e-14
1.23257e-19
-2.08688e-15
-9.75103e-16
-7.3691e-16
-5.52004e-16
-4.53085e-16
-2.99995e-16
-1.72541e-16
-1.10016e-16
-1.11613e-17
-4.11563e-09
9.7571e-10
-2.31747e-10
5.49254e-11
-1.30661e-11
3.08907e-12
-7.4088e-13
1.71793e-13
-4.34244e-14
8.66866e-15
-3.14101e-15
5.7326e-17
-5.06069e-16
-1.81773e-16
-2.14716e-16
-2.61246e-16
-2.0614e-16
-9.55299e-17
-6.19323e-17
-2.43162e-17
)
;

boundaryField
{
    movingWall
    {
        type            calculated;
        value           uniform -0;
    }
    fixedWalls
    {
        type            calculated;
        value           uniform -0;
    }
    frontAndBack
    {
        type            empty;
    }
}


// ************************************************************************* //
