/*--------------------------------*- C++ -*----------------------------------*\
| =========                 |                                                 |
| \\      /  F ield         | OpenFOAM: The Open Source CFD Toolbox           |
|  \\    /   O peration     | Version:  2506                                  |
|   \\  /    A nd           | Website:  www.openfoam.com                      |
|    \\/     M anipulation  |                                                 |
\*---------------------------------------------------------------------------*/
FoamFile
{
    version     2.0;
    format      ascii;
    arch        "LSB;label=32;scalar=64";
    class       volVectorField;
    location    "4.875";
    object      vorticityField;
}
// * * * * * * * * * * * * * * * * * * * * * * * * * * * * * * * * * * * * * //

dimensions      [0 0 -1 0 0 0 0];

internalField   nonuniform List<vector> 
400
(
(0 -0 3.26622e-07)
(0 -0 -4.04562e-07)
(0 -0 9.60574e-08)
(0 -0 -2.28836e-08)
(0 -0 5.41684e-09)
(0 -0 -1.30337e-09)
(0 -0 3.01819e-10)
(0 -0 -7.74301e-11)
(0 -0 1.47908e-11)
(0 -0 -6.00379e-12)
(0 -0 -2.86945e-13)
(0 -0 -1.12966e-12)
(0 -0 -5.52924e-13)
(0 -0 -4.20521e-13)
(0 -0 -2.87554e-13)
(0 -0 -1.5146e-13)
(0 -0 -7.73278e-14)
(0 -0 -7.20073e-14)
(0 -0 -8.3856e-15)
(0 -0 -7.08731e-15)
(0 -0 -3.25046e-07)
(0 -0 4.04741e-07)
(0 -0 -9.61648e-08)
(0 -0 2.28477e-08)
(0 -0 -5.4285e-09)
(0 -0 1.28976e-09)
(0 -0 -3.06378e-10)
(0 -0 7.28779e-11)
(0 -0 -1.722e-11)
(0 -0 4.13216e-12)
(0 -0 -8.85009e-13)
(0 -0 3.22406e-13)
(0 -0 1.0027e-14)
(0 -0 6.5304e-14)
(0 -0 1.77279e-14)
(0 -0 3.67893e-14)
(0 -0 -7.61382e-14)
(0 -0 -4.72716e-14)
(0 -0 -3.33538e-14)
(0 -0 -2.44068e-15)
(0 -0 3.24574e-07)
(0 -0 -4.04103e-07)
(0 -0 9.59194e-08)
(0 -0 -2.27671e-08)
(0 -0 5.40384e-09)
(0 -0 -1.28277e-09)
(0 -0 3.04429e-10)
(0 -0 -7.22997e-11)
(0 -0 1.7101e-11)
(0 -0 -4.11593e-12)
(0 -0 9.18344e-13)
(0 -0 -2.68533e-13)
(0 -0 5.3276e-15)
(0 -0 -1.15166e-13)
(0 -0 -4.23302e-14)
(0 -0 -9.72244e-14)
(0 -0 -2.46142e-14)
(0 -0 -5.50529e-14)
(0 -0 -1.00849e-13)
(0 -0 -1.03748e-14)
(0 -0 -3.25579e-07)
(0 -0 4.03862e-07)
(0 -0 -9.58426e-08)
(0 -0 2.2744e-08)
(0 -0 -5.39749e-09)
(0 -0 1.28075e-09)
(0 -0 -3.04109e-10)
(0 -0 7.20879e-11)
(0 -0 -1.71946e-11)
(0 -0 4.02384e-12)
(0 -0 -1.03981e-12)
(0 -0 1.61045e-13)
(0 -0 -9.40945e-14)
(0 -0 -4.55371e-14)
(0 -0 -3.49445e-14)
(0 -0 -5.7412e-14)
(0 -0 -4.07531e-15)
(0 -0 1.58715e-15)
(0 -0 -2.84042e-14)
(0 -0 -6.44136e-14)
(0 -0 3.25356e-07)
(0 -0 -4.02931e-07)
(0 -0 9.56092e-08)
(0 -0 -2.26858e-08)
(0 -0 5.38275e-09)
(0 -0 -1.27727e-09)
(0 -0 3.03048e-10)
(0 -0 -7.19242e-11)
(0 -0 1.70253e-11)
(0 -0 -4.04232e-12)
(0 -0 9.51788e-13)
(0 -0 -2.67185e-13)
(0 -0 4.17749e-14)
(0 -0 -2.31133e-14)
(0 -0 -6.12357e-14)
(0 -0 -4.15144e-14)
(0 -0 -6.79309e-14)
(0 -0 -1.45014e-16)
(0 -0 -2.732e-14)
(0 -0 -4.48256e-14)
(0 -0 -3.24959e-07)
(0 -0 4.01931e-07)
(0 -0 -9.53654e-08)
(0 -0 2.26263e-08)
(0 -0 -5.36825e-09)
(0 -0 1.27362e-09)
(0 -0 -3.02238e-10)
(0 -0 7.16377e-11)
(0 -0 -1.7089e-11)
(0 -0 3.93731e-12)
(0 -0 -1.00301e-12)
(0 -0 1.40118e-13)
(0 -0 -1.69509e-13)
(0 -0 -5.64778e-14)
(0 -0 -1.12007e-13)
(0 -0 -3.03346e-14)
(0 -0 -1.79812e-14)
(0 -0 -6.26559e-14)
(0 -0 -4.53883e-14)
(0 -0 -4.37241e-14)
(0 -0 3.24166e-07)
(0 -0 -4.00742e-07)
(0 -0 9.50792e-08)
(0 -0 -2.25575e-08)
(0 -0 5.35176e-09)
(0 -0 -1.26974e-09)
(0 -0 3.01174e-10)
(0 -0 -7.1503e-11)
(0 -0 1.69255e-11)
(0 -0 -4.12443e-12)
(0 -0 8.16373e-13)
(0 -0 -2.95366e-13)
(0 -0 -3.2714e-14)
(0 -0 -9.05684e-14)
(0 -0 -1.21354e-14)
(0 -0 -8.55607e-14)
(0 -0 -5.01694e-14)
(0 -0 -1.08511e-13)
(0 -0 2.50549e-14)
(0 -0 -4.33915e-14)
(0 -0 -3.23344e-07)
(0 -0 3.99597e-07)
(0 -0 -9.48059e-08)
(0 -0 2.24922e-08)
(0 -0 -5.33625e-09)
(0 -0 1.266e-09)
(0 -0 -3.00295e-10)
(0 -0 7.12413e-11)
(0 -0 -1.69094e-11)
(0 -0 3.96906e-12)
(0 -0 -1.08098e-12)
(0 -0 1.33635e-13)
(0 -0 -9.68153e-14)
(0 -0 -7.79129e-16)
(0 -0 -1.53904e-14)
(0 -0 -4.26758e-14)
(0 -0 -1.67956e-13)
(0 -0 -5.57311e-14)
(0 -0 -7.70262e-14)
(0 -0 -3.16292e-14)
(0 -0 3.22417e-07)
(0 -0 -3.98416e-07)
(0 -0 9.45245e-08)
(0 -0 -2.24255e-08)
(0 -0 5.3201e-09)
(0 -0 -1.26233e-09)
(0 -0 2.99314e-10)
(0 -0 -7.1225e-11)
(0 -0 1.67879e-11)
(0 -0 -4.03367e-12)
(0 -0 9.29068e-13)
(0 -0 -2.39616e-13)
(0 -0 6.63435e-14)
(0 -0 -1.95949e-14)
(0 -0 3.22251e-14)
(0 -0 -1.66594e-15)
(0 -0 3.38519e-14)
(0 -0 -4.18518e-14)
(0 -0 -2.94195e-14)
(0 -0 -2.8824e-14)
(0 -0 -3.21517e-07)
(0 -0 3.97301e-07)
(0 -0 -9.42601e-08)
(0 -0 2.23624e-08)
(0 -0 -5.30535e-09)
(0 -0 1.25864e-09)
(0 -0 -2.9866e-10)
(0 -0 7.0858e-11)
(0 -0 -1.68634e-11)
(0 -0 3.99293e-12)
(0 -0 -9.18201e-13)
(0 -0 1.99581e-13)
(0 -0 -1.11677e-13)
(0 -0 -3.08513e-14)
(0 -0 -5.53651e-14)
(0 -0 -1.06124e-13)
(0 -0 7.76292e-14)
(0 -0 -1.81647e-14)
(0 -0 -9.48e-15)
(0 -0 3.90848e-15)
(0 -0 3.20615e-07)
(0 -0 -3.96215e-07)
(0 -0 9.40023e-08)
(0 -0 -2.23013e-08)
(0 -0 5.29086e-09)
(0 -0 -1.25519e-09)
(0 -0 2.97841e-10)
(0 -0 -7.0641e-11)
(0 -0 1.68021e-11)
(0 -0 -3.97819e-12)
(0 -0 9.33057e-13)
(0 -0 -2.38279e-13)
(0 -0 -3.648e-15)
(0 -0 -1.45265e-14)
(0 -0 -4.13727e-14)
(0 -0 1.29268e-14)
(0 -0 -1.57667e-13)
(0 -0 -6.47448e-15)
(0 -0 6.85628e-14)
(0 -0 -7.12634e-15)
(0 -0 -3.19739e-07)
(0 -0 3.95184e-07)
(0 -0 -9.37581e-08)
(0 -0 2.22435e-08)
(0 -0 -5.27716e-09)
(0 -0 1.25196e-09)
(0 -0 -2.97084e-10)
(0 -0 7.04289e-11)
(0 -0 -1.67113e-11)
(0 -0 3.94352e-12)
(0 -0 -9.46803e-13)
(0 -0 2.37201e-13)
(0 -0 -1.38831e-14)
(0 -0 3.30353e-14)
(0 -0 -9.18489e-15)
(0 -0 -7.15171e-14)
(0 -0 -8.64846e-14)
(0 -0 6.20696e-14)
(0 -0 9.73563e-15)
(0 -0 2.50956e-15)
(0 -0 3.18917e-07)
(0 -0 -3.94218e-07)
(0 -0 9.35295e-08)
(0 -0 -2.21893e-08)
(0 -0 5.26438e-09)
(0 -0 -1.24889e-09)
(0 -0 2.96339e-10)
(0 -0 -7.03398e-11)
(0 -0 1.66222e-11)
(0 -0 -4.02687e-12)
(0 -0 9.17015e-13)
(0 -0 -1.76106e-13)
(0 -0 5.98566e-14)
(0 -0 -6.10166e-14)
(0 -0 -3.58732e-14)
(0 -0 7.33127e-14)
(0 -0 8.1646e-14)
(0 -0 5.50086e-15)
(0 -0 -5.02538e-14)
(0 -0 -7.35248e-15)
(0 -0 -3.18091e-07)
(0 -0 3.93276e-07)
(0 -0 -9.33067e-08)
(0 -0 2.21367e-08)
(0 -0 -5.25185e-09)
(0 -0 1.24602e-09)
(0 -0 -2.95535e-10)
(0 -0 7.01873e-11)
(0 -0 -1.66447e-11)
(0 -0 3.94337e-12)
(0 -0 -9.18761e-13)
(0 -0 1.29226e-13)
(0 -0 -8.52307e-14)
(0 -0 1.16743e-14)
(0 -0 -4.78586e-14)
(0 -0 -4.64082e-14)
(0 -0 2.37795e-14)
(0 -0 -3.5937e-14)
(0 -0 2.71676e-15)
(0 -0 2.99132e-14)
(0 -0 3.17369e-07)
(0 -0 -3.92424e-07)
(0 -0 9.31053e-08)
(0 -0 -2.2089e-08)
(0 -0 5.24055e-09)
(0 -0 -1.24338e-09)
(0 -0 2.94956e-10)
(0 -0 -6.99384e-11)
(0 -0 1.66664e-11)
(0 -0 -3.84838e-12)
(0 -0 9.67448e-13)
(0 -0 -1.5653e-13)
(0 -0 2.18863e-14)
(0 -0 1.99046e-14)
(0 -0 8.21165e-15)
(0 -0 -6.89264e-14)
(0 -0 -2.3244e-14)
(0 -0 3.14649e-14)
(0 -0 4.10865e-14)
(0 -0 4.35183e-14)
(0 -0 -3.16557e-07)
(0 -0 3.91535e-07)
(0 -0 -9.28952e-08)
(0 -0 2.20393e-08)
(0 -0 -5.22887e-09)
(0 -0 1.24047e-09)
(0 -0 -2.94366e-10)
(0 -0 6.98451e-11)
(0 -0 -1.65672e-11)
(0 -0 3.94071e-12)
(0 -0 -8.90068e-13)
(0 -0 2.2295e-13)
(0 -0 -2.35945e-14)
(0 -0 2.92157e-14)
(0 -0 1.46324e-14)
(0 -0 2.11219e-14)
(0 -0 3.87971e-14)
(0 -0 3.76628e-14)
(0 -0 5.96596e-14)
(0 -0 1.362e-14)
(0 -0 3.15984e-07)
(0 -0 -3.9078e-07)
(0 -0 9.27168e-08)
(0 -0 -2.19972e-08)
(0 -0 5.21886e-09)
(0 -0 -1.2382e-09)
(0 -0 2.93713e-10)
(0 -0 -6.96934e-11)
(0 -0 1.65141e-11)
(0 -0 -3.96275e-12)
(0 -0 9.01059e-13)
(0 -0 -2.12085e-13)
(0 -0 7.34328e-14)
(0 -0 -3.7027e-14)
(0 -0 6.04415e-14)
(0 -0 6.86405e-14)
(0 -0 1.19159e-14)
(0 -0 2.00213e-15)
(0 -0 2.34201e-14)
(0 -0 2.23286e-14)
(0 -0 -3.15038e-07)
(0 -0 3.89858e-07)
(0 -0 -9.24988e-08)
(0 -0 2.19457e-08)
(0 -0 -5.20664e-09)
(0 -0 1.2354e-09)
(0 -0 -2.93052e-10)
(0 -0 6.94956e-11)
(0 -0 -1.65116e-11)
(0 -0 3.90093e-12)
(0 -0 -9.59301e-13)
(0 -0 2.2242e-13)
(0 -0 7.45236e-15)
(0 -0 6.78322e-14)
(0 -0 1.37004e-13)
(0 -0 1.24671e-13)
(0 -0 5.5463e-14)
(0 -0 9.54903e-14)
(0 -0 1.77795e-14)
(0 -0 1.26196e-14)
(0 -0 3.15533e-07)
(0 -0 -3.89723e-07)
(0 -0 9.25373e-08)
(0 -0 -2.19715e-08)
(0 -0 5.21677e-09)
(0 -0 -1.2387e-09)
(0 -0 2.94099e-10)
(0 -0 -6.98352e-11)
(0 -0 1.65968e-11)
(0 -0 -3.898e-12)
(0 -0 9.67291e-13)
(0 -0 -2.87258e-13)
(0 -0 2.65773e-14)
(0 -0 -3.90053e-14)
(0 -0 -8.00377e-14)
(0 -0 -2.90091e-14)
(0 -0 -2.61558e-14)
(0 -0 -3.52122e-14)
(0 -0 -1.0967e-14)
(0 -0 -1.49873e-14)
(0 -0 -3.15273e-07)
(0 -0 3.88924e-07)
(0 -0 -9.22901e-08)
(0 -0 2.19613e-08)
(0 -0 -5.20144e-09)
(0 -0 1.247e-09)
(0 -0 -2.90779e-10)
(0 -0 7.30524e-11)
(0 -0 -1.49301e-11)
(0 -0 5.19386e-12)
(0 -0 -1.56402e-13)
(0 -0 8.05595e-13)
(0 -0 3.01351e-13)
(0 -0 2.45976e-13)
(0 -0 1.27578e-13)
(0 -0 8.21728e-14)
(0 -0 7.07818e-14)
(0 -0 1.44207e-14)
(0 -0 3.42264e-14)
(0 -0 3.57299e-14)
)
;

boundaryField
{
    movingWall
    {
        type            calculated;
        value           nonuniform List<vector> 
20
(
(0 -0 -3.13448e-07)
(0 -0 3.89438e-07)
(0 -0 -9.25055e-08)
(0 -0 2.21341e-08)
(0 -0 -5.23719e-09)
(0 -0 1.2732e-09)
(0 -0 -2.91594e-10)
(0 -0 7.79613e-11)
(0 -0 -1.35147e-11)
(0 -0 6.64847e-12)
(0 -0 6.93179e-13)
(0 -0 1.50694e-12)
(0 -0 8.1986e-13)
(0 -0 6.5086e-13)
(0 -0 4.36142e-13)
(0 -0 3.56129e-13)
(0 -0 2.83025e-13)
(0 -0 5.88297e-14)
(0 -0 5.15303e-14)
(0 -0 5.30338e-14)
)
;
    }
    fixedWalls
    {
        type            calculated;
        value           nonuniform List<vector> 
60
(
(0 -0 1.71375e-06)
(0 -0 -1.71399e-06)
(0 -0 1.71264e-06)
(0 -0 -1.71171e-06)
(0 -0 1.70783e-06)
(0 -0 -1.70363e-06)
(0 -0 1.69861e-06)
(0 -0 -1.69377e-06)
(0 -0 1.68877e-06)
(0 -0 -1.68404e-06)
(0 -0 1.67943e-06)
(0 -0 -1.67506e-06)
(0 -0 1.67096e-06)
(0 -0 -1.66697e-06)
(0 -0 1.66335e-06)
(0 -0 -1.65958e-06)
(0 -0 1.65636e-06)
(0 -0 -1.65245e-06)
(0 -0 1.65066e-06)
(0 -0 -1.64753e-06)
(0 -0 -4.50802e-15)
(0 -0 1.74099e-14)
(0 -0 1.10465e-14)
(0 -0 -4.45297e-14)
(0 -0 -3.49696e-14)
(0 -0 -5.36237e-14)
(0 -0 -6.37919e-14)
(0 -0 -4.53519e-14)
(0 -0 -4.16765e-14)
(0 -0 -1.51285e-14)
(0 -0 -1.48506e-14)
(0 -0 -3.32733e-15)
(0 -0 -6.38825e-15)
(0 -0 2.34028e-14)
(0 -0 2.16532e-14)
(0 -0 -5.45943e-16)
(0 -0 2.09844e-14)
(0 -0 3.98311e-15)
(0 -0 -2.26405e-14)
(0 -0 3.68316e-14)
(0 -0 3.27621e-07)
(0 -0 -4.05709e-07)
(0 -0 9.64732e-08)
(0 -0 -2.31257e-08)
(0 -0 5.46158e-09)
(0 -0 -1.33788e-09)
(0 -0 3.01763e-10)
(0 -0 -8.41338e-11)
(0 -0 1.24664e-11)
(0 -0 -8.32758e-12)
(0 -0 -1.84768e-12)
(0 -0 -2.19899e-12)
(0 -0 -1.4048e-12)
(0 -0 -9.73638e-13)
(0 -0 -6.38228e-13)
(0 -0 -3.26797e-13)
(0 -0 -1.56344e-13)
(0 -0 -6.22061e-14)
(0 -0 -8.3856e-15)
(0 -0 -7.08731e-15)
)
;
    }
    frontAndBack
    {
        type            empty;
    }
}


// ************************************************************************* //
