/*--------------------------------*- C++ -*----------------------------------*\
| =========                 |                                                 |
| \\      /  F ield         | OpenFOAM: The Open Source CFD Toolbox           |
|  \\    /   O peration     | Version:  2506                                  |
|   \\  /    A nd           | Website:  www.openfoam.com                      |
|    \\/     M anipulation  |                                                 |
\*---------------------------------------------------------------------------*/
FoamFile
{
    version     2.0;
    format      ascii;
    arch        "LSB;label=32;scalar=64";
    class       volScalarField;
    location    "1.875";
    object      p;
}
// * * * * * * * * * * * * * * * * * * * * * * * * * * * * * * * * * * * * * //

dimensions      [0 2 -2 0 0 0 0];

internalField   nonuniform List<scalar> 
6400
(
-2.72549e-08
-3.59725e-06
-6.76325e-05
-0.000189779
-0.000355102
-0.000550219
-0.000763516
-0.000985147
-0.00120706
-0.00142285
-0.00162745
-0.00181694
-0.00198831
-0.00213932
-0.00226827
-0.00237394
-0.00245547
-0.00251223
-0.00254381
-0.00254994
-0.00253041
-0.00248514
-0.00241405
-0.00231714
-0.00219444
-0.00204602
-0.00187203
-0.00167268
-0.00144831
-0.00119932
-0.0009263
-0.000629977
-0.000311263
2.87291e-05
0.000388666
0.000766978
0.00116185
0.00157122
0.00199277
0.00242392
0.00286188
0.00330358
0.00374581
0.00418512
0.00461796
0.00504065
0.00544949
0.00584075
0.00621073
0.00655588
0.00687276
0.00715823
0.00740937
0.00762367
0.00779899
0.00793365
0.00802649
0.00807689
0.00808479
0.00805074
0.00797591
0.00786208
0.00771166
0.00752766
0.00731368
0.00707389
0.006813
0.00653622
0.00624925
0.00595824
0.00566976
0.00539077
0.00512861
0.00489089
0.00468543
0.00451995
0.00440135
0.00433481
0.00432238
0.00435074
3.50635e-06
-5.06251e-08
-5.65976e-05
-0.000160175
-0.000298678
-0.000462539
-0.000642932
-0.000831929
-0.0010227
-0.00120958
-0.00138794
-0.00155405
-0.00170499
-0.00183845
-0.00195268
-0.00204632
-0.00211837
-0.00216809
-0.00219493
-0.00219851
-0.00217853
-0.0021348
-0.00206722
-0.0019757
-0.00186025
-0.00172093
-0.00155788
-0.00137129
-0.00116149
-0.000928893
-0.000674066
-0.000397715
-0.000100724
0.000215839
0.000550706
0.00090239
0.00126918
0.00164915
0.00204013
0.00243973
0.00284533
0.00325413
0.00366313
0.00406918
0.00446902
0.00485927
0.00523655
0.00559745
0.00593862
0.00625682
0.00654896
0.00681218
0.00704389
0.00724182
0.00740408
0.00752921
0.00761622
0.0076646
0.00767439
0.00764615
0.00758104
0.00748077
0.0073476
0.00718437
0.00699442
0.0067816
0.00655028
0.00630521
0.0060516
0.00579501
0.00554131
0.00529665
0.00506738
0.00485994
0.00468071
0.00453569
0.00442978
0.00436651
0.00435048
0.00437904
6.77737e-05
5.63951e-05
-5.8785e-07
-9.63476e-05
-0.000220861
-0.000366602
-0.000526552
-0.000694167
-0.00086368
-0.00103016
-0.00118949
-0.00133826
-0.00147373
-0.00159371
-0.00169647
-0.00178065
-0.00184521
-0.00188936
-0.00191248
-0.00191414
-0.00189399
-0.00185179
-0.00178737
-0.00170062
-0.00159153
-0.00146011
-0.00130647
-0.00113081
-0.000933408
-0.000714676
-0.000475138
-0.000215466
6.3501e-05
0.000360751
0.000675083
0.0010051
0.00134918
0.00170551
0.00207206
0.00244658
0.00282663
0.00320956
0.00359258
0.00397276
0.00434703
0.00471226
0.00506529
0.00540295
0.00572213
0.00601982
0.00629316
0.0065395
0.00675646
0.00694196
0.00709427
0.00721208
0.00729448
0.00734108
0.00735194
0.00732766
0.00726936
0.00717868
0.00705778
0.00690935
0.00673653
0.00654294
0.00633264
0.00611005
0.00587996
0.00564746
0.00541789
0.00519674
0.00498964
0.0048022
0.00463987
0.00450773
0.00440985
0.00434953
0.00433406
0.00436713
0.000191219
0.000160407
9.41597e-05
-2.56676e-06
-0.000122668
-0.000259906
-0.000408455
-0.000562906
-0.000718417
-0.000870779
-0.00101641
-0.00115232
-0.00127604
-0.00138556
-0.00147929
-0.00155595
-0.00161454
-0.00165427
-0.00167452
-0.00167484
-0.00165487
-0.00161432
-0.001553
-0.00147078
-0.00136759
-0.00124344
-0.00109839
-0.0009326
-0.000746331
-0.000539942
-0.000313914
-6.88713e-05
0.000194411
0.000474984
0.000771723
0.00108331
0.00140824
0.00174479
0.00209104
0.00244487
0.00280398
0.00316589
0.00352793
0.00388733
0.0042412
0.00458659
0.00492049
0.0052399
0.00554189
0.0058236
0.00608233
0.0063156
0.00652113
0.00669698
0.00684153
0.00695355
0.00703221
0.00707715
0.00708847
0.00706675
0.0070131
0.00692909
0.00681681
0.00667879
0.00651804
0.00633799
0.00614244
0.00593553
0.00572174
0.00550577
0.00529249
0.00508694
0.00489416
0.00471917
0.00456683
0.00444171
0.00434756
0.00428781
0.00427081
0.00430235
0.000359997
0.000300582
0.000218217
0.000114636
-6.85736e-06
-0.000141167
-0.000283476
-0.000429413
-0.000575028
-0.000716821
-0.00085178
-0.000977353
-0.00109141
-0.0011922
-0.00127831
-0.00134859
-0.00140211
-0.00143816
-0.00145614
-0.00145561
-0.00143618
-0.00139758
-0.00133959
-0.00126205
-0.00116485
-0.00104798
-0.000911448
-0.000755382
-0.000579985
-0.000385566
-0.000172552
5.84963e-05
0.000306875
0.000571712
0.000851966
0.00114641
0.00145364
0.00177203
0.00209979
0.00243491
0.00277521
0.00311833
0.00346177
0.00380286
0.00413887
0.00446698
0.00478431
0.00508801
0.00537525
0.00564332
0.00588964
0.0061118
0.00630765
0.00647532
0.00661326
0.0067203
0.00679566
0.00683899
0.00685041
0.00683049
0.00678028
0.00670132
0.0065956
0.00646555
0.00631405
0.00614432
0.00595998
0.00576493
0.00556333
0.00535956
0.00515812
0.0049636
0.00478058
0.00461358
0.004467
0.00434497
0.004251
0.00418848
0.00416528
0.00418699
0.000561693
0.000467931
0.000364429
0.00024933
0.00012174
-1.42398e-05
-0.000154653
-0.000296089
-0.000435433
-0.000569871
-0.000696962
-0.000814616
-0.000921071
-0.00101487
-0.00109481
-0.00115991
-0.00120938
-0.00124258
-0.00125897
-0.00125813
-0.00123971
-0.00120342
-0.00114903
-0.00107635
-0.000985251
-0.000875668
-0.000747587
-0.000601071
-0.000436267
-0.000253422
-5.28958e-05
0.000164825
0.000399112
0.000649183
0.000914085
0.00119269
0.00148368
0.00178556
0.00209662
0.00241498
0.00273856
0.00306513
0.00339229
0.00371751
0.00403814
0.00435147
0.00465475
0.0049452
0.00522011
0.00547684
0.00571287
0.00592589
0.00611379
0.00627476
0.00640728
0.0065102
0.00658278
0.00662465
0.00663593
0.00661716
0.00656936
0.00649401
0.00639302
0.00626872
0.00612386
0.00596153
0.00578515
0.00559841
0.00540524
0.0052097
0.00501598
0.0048283
0.00465087
0.00448778
0.00434301
0.00422032
0.00412298
0.00405423
0.00402041
0.00402572
0.000785328
0.000653932
0.000525869
0.000395662
0.000258212
0.000116759
-2.54498e-05
-0.000165878
-0.000302177
-0.00043219
-0.00055403
-0.000666069
-0.000766933
-0.000855474
-0.000930738
-0.000991944
-0.00103844
-0.00106969
-0.00108525
-0.00108475
-0.00106784
-0.00103427
-0.000983787
-0.000916189
-0.000831316
-0.000729054
-0.000609344
-0.000472191
-0.000317677
-0.000145981
4.26159e-05
0.00024771
0.00046876
0.000705074
0.000955795
0.00121989
0.00149615
0.00178317
0.00207936
0.00238294
0.00269192
0.00300418
0.00331741
0.00362916
0.0039369
0.00423798
0.00452972
0.00480941
0.0050744
0.00532208
0.00555001
0.00575588
0.00593762
0.00609341
0.00622177
0.00632154
0.00639194
0.00643262
0.00644366
0.00642556
0.00637931
0.00630631
0.0062084
0.00608783
0.00594724
0.00578959
0.00561815
0.00543644
0.00524815
0.00505714
0.0048673
0.00468256
0.0045068
0.00434379
0.00419713
0.00407024
0.00396619
0.00388797
0.00383989
0.0038242
0.00102122
0.000850557
0.000695738
0.000547851
0.000397713
0.000247856
0.000100916
-4.13504e-05
-0.000177296
-0.000305382
-0.000424254
-0.000532737
-0.000629847
-0.000714752
-0.000786771
-0.000845319
-0.00088992
-0.000920165
-0.000935697
-0.0009362
-0.00092139
-0.000891004
-0.0008448
-0.00078256
-0.000704091
-0.000609234
-0.000497875
-0.000369959
-0.000225496
-6.45858e-05
0.000112575
0.00030567
0.000514252
0.000737727
0.000975341
0.00122616
0.00148908
0.00176279
0.0020458
0.00233641
0.00263276
0.00293279
0.00323427
0.00353484
0.00383201
0.0041232
0.00440576
0.00467704
0.0049344
0.00517526
0.00539717
0.00559783
0.00577516
0.00592733
0.00605281
0.00615044
0.0062194
0.00625929
0.00627015
0.00625245
0.00620711
0.00613546
0.00603928
0.00592074
0.00578238
0.00562706
0.00545793
0.00527834
0.00509183
0.00490205
0.00471268
0.00452741
0.00434985
0.00418348
0.00403161
0.00389735
0.00378358
0.0036931
0.00362789
0.00358809
0.00126097
0.00105047
0.000867624
0.000700311
0.000535446
0.000374973
0.000221022
7.46455e-05
-6.3157e-05
-0.000191415
-0.00030928
-0.000416023
-0.000511035
-0.000593807
-0.00066392
-0.000721015
-0.00076479
-0.00079497
-0.000811298
-0.000813532
-0.000801432
-0.000774755
-0.00073326
-0.000676713
-0.000604887
-0.000517579
-0.000414619
-0.000295877
-0.000161291
-1.0876e-05
0.000155262
0.000336904
0.000533703
0.000745167
0.000970643
0.00120931
0.00146015
0.00172196
0.00199334
0.0022727
0.00255824
0.00284797
0.00313975
0.00343125
0.00372005
0.00400357
0.00427922
0.00454433
0.00479627
0.00503245
0.00525038
0.00544775
0.00562242
0.00577253
0.00589651
0.0059931
0.00606147
0.00610113
0.00611208
0.00609471
0.00604987
0.00597884
0.00588333
0.00576544
0.00562761
0.00547262
0.00530351
0.00512352
0.00493606
0.00474461
0.00455269
0.00436381
0.00418134
0.00400857
0.00384854
0.00370409
0.00357801
0.00347288
0.00338835
0.00332246
0.00149731
0.00124704
0.00103556
0.000847711
0.000666701
0.000493993
0.000331288
0.000179006
3.75505e-05
-9.26349e-05
-0.000211172
-0.000317764
-0.00041216
-0.000494178
-0.000563649
-0.000620447
-0.000664444
-0.000695501
-0.000713472
-0.000718189
-0.000709458
-0.00068706
-0.000650755
-0.000600292
-0.000535412
-0.000455861
-0.000361405
-0.000251844
-0.000127033
1.31048e-05
0.000168559
0.000339215
0.000524829
0.000725014
0.000939227
0.00116675
0.00140667
0.00165789
0.0019191
0.00218877
0.0024652
0.00274646
0.00303046
0.00331491
0.00359741
0.00387542
0.00414631
0.00440743
0.0046561
0.0048897
0.00510569
0.0053017
0.00547552
0.00562521
0.00574912
0.00584592
0.00591469
0.00595486
0.00596635
0.00594946
0.00590498
0.00583411
0.0057385
0.00562015
0.00548146
0.00532512
0.00515408
0.00497151
0.00478069
0.00458502
0.00438788
0.00419262
0.00400249
0.00382058
0.00364976
0.00349266
0.003352
0.00323025
0.00312476
0.00303154
0.00172379
0.00143425
0.00119399
0.000984983
0.000786899
0.000600813
0.000428056
0.000268479
0.000121936
-1.16202e-05
-0.00013226
-0.000240079
-0.000335187
-0.000417698
-0.000487713
-0.000545315
-0.00059055
-0.000623424
-0.000643898
-0.000651876
-0.000647209
-0.000629705
-0.000599125
-0.000555198
-0.000497625
-0.0004261
-0.000340325
-0.000240024
-0.00012496
5.04022e-06
0.000150067
0.000310111
0.000485043
0.000674588
0.000878313
0.00109561
0.00132567
0.00156748
0.00181983
0.00208128
0.00235019
0.00262469
0.00290272
0.00318204
0.00346024
0.00373478
0.00400303
0.00426228
0.00450981
0.00474293
0.00495904
0.00515566
0.00533049
0.0054815
0.00560691
0.0057053
0.00577563
0.00581725
0.00582993
0.00581393
0.00576991
0.00569901
0.00560278
0.00548319
0.00534254
0.00518348
0.00500888
0.00482184
0.0046256
0.00442345
0.00421872
0.00401464
0.00381436
0.00362087
0.00343691
0.00326498
0.00310778
0.00296776
0.00284004
0.00271873
0.00193467
0.00160661
0.00133775
0.00110732
0.000891621
0.00069139
0.00050765
0.000339726
0.000186964
4.88593e-05
-7.50776e-05
-0.000185317
-0.00028231
-0.000366454
-0.000438108
-0.000497558
-0.000545021
-0.000580644
-0.000604485
-0.00061652
-0.00061665
-0.000604701
-0.000580431
-0.000543544
-0.000493706
-0.000430551
-0.00035371
-0.000262822
-0.000157559
-3.76471e-05
9.7114e-05
0.000246828
0.000411482
0.000590919
0.000784818
0.00099268
0.00121381
0.00144729
0.001692
0.00194657
0.00220944
0.00247877
0.00275255
0.00302855
0.00330437
0.00357745
0.00384511
0.00410459
0.0043531
0.00458787
0.00480619
0.00500546
0.00518326
0.00533743
0.00546606
0.00556759
0.00564084
0.00568503
0.00569982
0.00568533
0.00564214
0.00557129
0.00547425
0.0053529
0.00520951
0.00504664
0.00486714
0.00467406
0.0044706
0.00426002
0.00404558
0.0038305
0.00361787
0.00341062
0.00321142
0.00302269
0.00284723
0.00268751
0.00253655
0.00238664
0.00212473
0.00175906
0.001462
0.00121015
0.000976593
0.000761759
0.0005664
0.000389357
0.000229503
8.5901e-05
-4.23292e-05
-0.000156019
-0.00025593
-0.000342744
-0.000417053
-0.00047934
-0.000529992
-0.000569278
-0.000597355
-0.000614269
-0.000619959
-0.000614267
-0.000596944
-0.000567668
-0.000526058
-0.000471689
-0.000404113
-0.000322881
-0.000227567
-0.00011779
6.76723e-06
0.000146328
0.000300996
0.000470739
0.000655356
0.000854462
0.00106747
0.00129357
0.00153172
0.00178065
0.00203883
0.00230449
0.00257565
0.00285008
0.00312536
0.00339892
0.00366801
0.00392981
0.00418144
0.00442002
0.00464269
0.00484673
0.00502958
0.0051889
0.00532262
0.00542903
0.00550677
0.0055549
0.00557295
0.00556088
0.00551917
0.00544873
0.00535096
0.00522764
0.00508099
0.00491353
0.00472809
0.00452767
0.00431547
0.00409475
0.00386877
0.00364075
0.00341377
0.00319078
0.00297444
0.00276717
0.00257188
0.00239119
0.00221611
0.00203718
0.00228914
0.00188688
0.00156219
0.00128913
0.0010377
0.000808042
0.000600668
0.000413963
0.000246353
9.64979e-05
-3.68529e-05
-0.000154873
-0.00025862
-0.000349043
-0.00042695
-0.000493017
-0.000547786
-0.000591643
-0.000624832
-0.000647463
-0.000659509
-0.000660823
-0.00065114
-0.000630108
-0.000597294
-0.000552205
-0.000494313
-0.000423076
-0.000337959
-0.000238467
-0.000124165
5.29735e-06
0.000150151
0.000310489
0.000486239
0.000677135
0.000882704
0.00110224
0.0013348
0.00157918
0.00183392
0.0020973
0.00236736
0.00264187
0.00291841
0.00319434
0.00346687
0.00373308
0.00398999
0.00423457
0.00446384
0.00467489
0.00486499
0.00503161
0.0051725
0.00528573
0.00536975
0.00542345
0.00544617
0.00543772
0.00539842
0.00532907
0.00523093
0.00510574
0.00495563
0.00478309
0.00459092
0.00438214
0.00415995
0.00392764
0.0036885
0.00344579
0.00320268
0.00296216
0.00272694
0.0024995
0.00228295
0.0020801
0.00188006
0.00167168
0.00242341
0.00198565
0.00163401
0.00134012
0.00107096
0.000826453
0.00060686
0.000410133
0.000234281
7.75788e-05
-6.15818e-05
-0.000184689
-0.000293089
-0.000387973
-0.000470361
-0.00054111
-0.000600898
-0.000650222
-0.000689408
-0.000718618
-0.000737853
-0.000746965
-0.000745676
-0.000733589
-0.000710216
-0.000674992
-0.000627298
-0.000566493
-0.000491931
-0.000402995
-0.000299123
-0.000179834
-4.47603e-05
0.000106326
0.000273482
0.00045657
0.000655237
0.000868889
0.00109668
0.00133748
0.00158991
0.00185229
0.00212267
0.00239885
0.00267836
0.00295852
0.00323648
0.0035092
0.00377358
0.00402644
0.00426462
0.00448505
0.00468476
0.00486102
0.00501134
0.00513357
0.00522595
0.00528712
0.00531622
0.00531288
0.00527724
0.00520994
0.00511215
0.00498548
0.00483201
0.0046542
0.00445481
0.00423691
0.00400372
0.00375858
0.00350488
0.00324596
0.0029851
0.0027254
0.00246969
0.00222054
0.00198135
0.0017552
0.00152932
0.00129093
0.0025233
0.00205119
0.00167338
0.00135914
0.00107255
0.000813308
0.00058144
0.000374484
0.000190044
2.60287e-05
-0.00011951
-0.00024836
-0.000362143
-0.000462274
-0.000549978
-0.000626274
-0.000691963
-0.000747648
-0.000793728
-0.000830407
-0.000857701
-0.000875458
-0.000883375
-0.00088101
-0.000867809
-0.000843127
-0.000806251
-0.000756431
-0.000692904
-0.000614923
-0.000521793
-0.000412892
-0.000287711
-0.000145879
1.28009e-05
0.000188326
0.00038047
0.000588759
0.000812448
0.00105051
0.00130162
0.00156415
0.00183618
0.00211551
0.00239966
0.00268587
0.00297122
0.00325257
0.00352665
0.00379014
0.00403968
0.00427197
0.00448383
0.00467227
0.00483453
0.00496821
0.00507127
0.00514212
0.00517963
0.00518322
0.00515282
0.0050889
0.00499248
0.00486506
0.00470865
0.00452566
0.00431887
0.00409135
0.00384639
0.00358743
0.00331796
0.00304148
0.0027614
0.00248099
0.00220324
0.00193091
0.00166774
0.00141711
0.00116444
0.000895329
0.00258478
0.00207952
0.0016764
0.00134239
0.00103878
0.000765028
0.000520949
0.000303672
0.000110412
-6.12802e-05
-0.000213669
-0.000348839
-0.00046866
-0.000574772
-0.000668585
-0.000751262
-0.000823727
-0.000886675
-0.000940563
-0.000985627
-0.00102189
-0.0010492
-0.00106721
-0.00107542
-0.00107322
-0.00105986
-0.00103453
-0.000996371
-0.000944491
-0.000878007
-0.00079608
-0.000697939
-0.000582926
-0.00045052
-0.000300371
-0.000132337
5.34938e-05
0.000256773
0.000476872
0.000712859
0.000963489
0.0012272
0.00150209
0.00178597
0.00207633
0.00237038
0.00266507
0.00295716
0.00324324
0.00351978
0.00378323
0.00403004
0.00425677
0.00446013
0.0046371
0.00478495
0.00490134
0.00498439
0.00503269
0.00504539
0.00502217
0.00496331
0.00486964
0.00474256
0.00458396
0.00439622
0.00418212
0.00394476
0.00368753
0.00341397
0.00312773
0.00283248
0.00253183
0.00222928
0.00192804
0.00163109
0.00134256
0.00106622
0.00078568
0.000484895
0.00260402
0.00206687
0.00163936
0.00128622
0.00096608
0.000678146
0.000422013
0.000194415
-7.8105e-06
-0.000187456
-0.000347096
-0.000489095
-0.000615562
-0.000728347
-0.000829029
-0.000918909
-0.000999023
-0.00107014
-0.00113278
-0.00118718
-0.00123339
-0.00127121
-0.00130027
-0.00132
-0.00132971
-0.00132857
-0.00131565
-0.00128996
-0.00125049
-0.00119619
-0.00112609
-0.00103926
-0.000934872
-0.000812246
-0.000670871
-0.000510448
-0.000330916
-0.000132482
8.43506e-05
0.00031876
0.000569592
0.00083535
0.00111418
0.0014039
0.00170197
0.00200556
0.00231152
0.00261649
0.00291689
0.003209
0.00348903
0.00375317
0.00399768
0.00421897
0.00441367
0.00457871
0.00471141
0.00480955
0.00487138
0.00489574
0.00488205
0.00483032
0.0047412
0.0046159
0.00445623
0.00426451
0.00404351
0.0037964
0.00352664
0.00323792
0.0029341
0.00261903
0.0022966
0.00197056
0.0016444
0.00132138
0.00100609
0.000702722
0.000393057
5.9397e-05
0.00257733
0.00200961
0.00155868
0.00118715
0.000851033
0.000549311
0.000281353
4.3508e-05
-0.000167762
-0.000355575
-0.000522811
-0.000672099
-0.00080578
-0.0009259
-0.00103419
-0.00113209
-0.00122074
-0.00130096
-0.0013733
-0.00143804
-0.00149521
-0.00154459
-0.00158574
-0.00161804
-0.00164069
-0.00165278
-0.00165325
-0.00164099
-0.00161483
-0.0015736
-0.00151613
-0.00144134
-0.00134823
-0.00123594
-0.00110379
-0.000951311
-0.000778273
-0.000584732
-0.000371047
-0.000137917
0.000113612
0.000382121
0.000665816
0.000962525
0.00126971
0.00158447
0.00190359
0.00222357
0.00254066
0.00285093
0.00315033
0.00343477
0.00370019
0.00394264
0.00415839
0.00434398
0.00449633
0.00461282
0.00469133
0.00473034
0.00472894
0.00468685
0.00460447
0.00448283
0.00432361
0.00412905
0.00390191
0.00364542
0.00336315
0.00305897
0.00273693
0.00240116
0.00205584
0.00170503
0.00135255
0.001002
0.000658465
0.000326639
-1.35769e-05
-0.000381594
0.0025012
0.00190429
0.00143098
0.00104183
0.000690353
0.000375294
9.57991e-05
-0.000152166
-0.000372503
-0.000568653
-0.000743789
-0.000900791
-0.00104223
-0.00117033
-0.00128697
-0.00139371
-0.00149177
-0.00158204
-0.0016651
-0.00174123
-0.00181045
-0.00187249
-0.00192686
-0.00197286
-0.00200961
-0.00203607
-0.00205107
-0.00205335
-0.0020416
-0.00201446
-0.00197063
-0.00190882
-0.00182785
-0.00172668
-0.00160444
-0.00146047
-0.00129436
-0.00110599
-0.000895567
-0.000663638
-0.000411132
-0.000139364
0.000149938
0.000454639
0.0007722
0.00109968
0.00143379
0.00177089
0.00210706
0.00243814
0.00275983
0.00306771
0.00335737
0.00362449
0.00386491
0.00407473
0.00425044
0.00438897
0.00448775
0.00454485
0.00455897
0.00452949
0.00445653
0.00434088
0.00418405
0.00398819
0.00375605
0.0034909
0.00319644
0.00287673
0.00253606
0.00217886
0.00180964
0.00143284
0.00105266
0.000673081
0.000299753
-6.20874e-05
-0.000434487
-0.000838639
0.00237226
0.00174761
0.00125301
0.000847062
0.000480898
0.000153005
-0.000137696
-0.000395613
-0.000625002
-0.000829626
-0.00101294
-0.00117806
-0.00132778
-0.00146449
-0.00159022
-0.00170663
-0.00181502
-0.00191632
-0.00201115
-0.00209978
-0.00218219
-0.00225809
-0.00232691
-0.00238787
-0.00243999
-0.0024821
-0.00251291
-0.00253101
-0.00253493
-0.00252314
-0.00249414
-0.00244647
-0.00237875
-0.00228972
-0.00217832
-0.00204368
-0.00188518
-0.00170253
-0.00149573
-0.00126518
-0.00101165
-0.000736343
-0.000440894
-0.00012738
0.000201673
0.000543306
0.000894143
0.00125043
0.00160806
0.00196267
0.00230965
0.00264426
0.00296172
0.00325726
0.00352628
0.00376439
0.00396758
0.00413226
0.00425537
0.00433449
0.00436788
0.00435451
0.00429414
0.00418729
0.00403528
0.00384012
0.00360452
0.00333181
0.00302581
0.00269077
0.00233127
0.00195209
0.00155809
0.00115416
0.000744908
0.000334752
-7.00185e-05
-0.00046357
-0.00087
-0.00131238
0.00218731
0.00153643
0.0010217
0.000599828
0.000219682
-0.000120503
-0.000422042
-0.000689711
-0.000928115
-0.00114133
-0.00133306
-0.00150671
-0.00166522
-0.00181118
-0.00194675
-0.00207368
-0.00219334
-0.0023067
-0.00241439
-0.00251668
-0.00261351
-0.00270454
-0.00278914
-0.00286643
-0.00293531
-0.0029945
-0.00304257
-0.00307795
-0.003099
-0.00310401
-0.00309128
-0.00305914
-0.00300601
-0.00293042
-0.00283105
-0.00270683
-0.00255693
-0.00238081
-0.00217829
-0.00194957
-0.00169525
-0.00141638
-0.00111448
-0.000791553
-0.000450079
-9.30293e-05
0.000276164
0.000653631
0.0010351
0.00141596
0.00179133
0.00215611
0.0025051
0.00283308
0.00313495
0.00340578
0.00364098
0.00383639
0.0039884
0.00409401
0.00415095
0.00415773
0.0041137
0.00401904
0.00387479
0.00368282
0.00344578
0.003167
0.00285046
0.00250062
0.00212236
0.00172081
0.00130129
0.000869146
0.000429456
-1.28561e-05
-0.000450812
-0.000877923
-0.00132046
-0.00180349
0.00194332
0.0012678
0.000734146
0.000297268
-9.61126e-05
-0.000448018
-0.000760003
-0.0010372
-0.00128457
-0.00150646
-0.00170688
-0.00188943
-0.00205726
-0.00221313
-0.00235929
-0.00249761
-0.0026295
-0.00275598
-0.00287768
-0.00299486
-0.00310742
-0.00321495
-0.00331676
-0.00341185
-0.00349904
-0.0035769
-0.00364384
-0.00369814
-0.00373797
-0.00376145
-0.00376665
-0.0037517
-0.00371477
-0.00365417
-0.00356833
-0.00345593
-0.0033159
-0.00314745
-0.00295018
-0.00272404
-0.00246946
-0.0021873
-0.00187893
-0.00154624
-0.00119165
-0.00081811
-0.000429089
-2.85571e-05
0.000379054
0.000788903
0.0011958
0.00159429
0.00197874
0.00234343
0.0026827
0.00299104
0.00326323
0.00349445
0.00368044
0.00381757
0.00390296
0.00393456
0.00391122
0.00383272
0.00369978
0.00351405
0.00327808
0.00299522
0.00266955
0.00230577
0.00190908
0.00148502
0.00103937
0.000578006
0.00010654
-0.000369552
-0.000842535
-0.00130521
-0.00178615
-0.00231257
0.00163743
0.000938942
0.000387629
-6.32926e-05
-0.000469128
-0.000832156
-0.00115417
-0.00144067
-0.00169692
-0.00192759
-0.00213694
-0.00232878
-0.00250647
-0.0026729
-0.00283044
-0.00298103
-0.00312616
-0.00326687
-0.00340379
-0.00353715
-0.00366681
-0.00379232
-0.00391286
-0.00402738
-0.00413454
-0.00423279
-0.00432039
-0.00439544
-0.00445593
-0.00449976
-0.0045248
-0.00452894
-0.00451011
-0.00446635
-0.00439584
-0.00429698
-0.00416842
-0.00400912
-0.00381839
-0.00359596
-0.00334199
-0.00305713
-0.00274259
-0.00240009
-0.00203195
-0.00164109
-0.00123097
-0.00080565
-0.000369697
7.18201e-05
0.000513414
0.00094925
0.00137323
0.00177913
0.00216066
0.00251168
0.00282626
0.00309886
0.00332449
0.00349877
0.00361814
0.00367988
0.00368226
0.00362457
0.00350712
0.0033313
0.00309949
0.00281504
0.00248211
0.00210566
0.0016912
0.00124472
0.00077252
0.000281033
-0.000223516
-0.000735047
-0.001245
-0.00174538
-0.00226727
-0.00284015
0.00126698
0.000547279
-2.03687e-05
-0.000484336
-0.000901819
-0.00127535
-0.00160696
-0.0019025
-0.00216757
-0.00240712
-0.00262564
-0.00282718
-0.00301527
-0.00319292
-0.00336264
-0.00352644
-0.00368585
-0.00384194
-0.00399533
-0.00414622
-0.00429445
-0.00443947
-0.00458039
-0.00471606
-0.004845
-0.00496553
-0.00507575
-0.00517357
-0.00525679
-0.0053231
-0.00537014
-0.00539554
-0.00539698
-0.00537222
-0.00531915
-0.00523589
-0.00512077
-0.00497245
-0.00478996
-0.0045727
-0.00432058
-0.004034
-0.00371393
-0.00336192
-0.00298014
-0.00257141
-0.00213918
-0.00168755
-0.00122121
-0.000745443
-0.000266021
0.00021083
0.000678546
0.00113032
0.00155926
0.00195848
0.0023213
0.00264137
0.00291286
0.00313058
0.00329012
0.00338804
0.00342189
0.00339037
0.00329332
0.00313176
0.00290786
0.00262489
0.00228712
0.00189969
0.00146849
0.000999975
0.000500997
-2.13768e-05
-0.000560265
-0.00110892
-0.00165787
-0.00219827
-0.00276387
-0.0033866
0.000829511
9.04423e-05
-0.000492164
-0.000968138
-0.00139643
-0.00177982
-0.00212059
-0.00242492
-0.00269873
-0.00294724
-0.00317519
-0.00338683
-0.00358586
-0.00377543
-0.00395816
-0.00413612
-0.00431088
-0.00448354
-0.0046547
-0.00482455
-0.00499287
-0.00515904
-0.00532209
-0.00548073
-0.0056334
-0.00577825
-0.0059132
-0.00603601
-0.00614425
-0.00623539
-0.00630683
-0.00635594
-0.00638012
-0.00637683
-0.00634367
-0.0062784
-0.00617905
-0.00604394
-0.00587174
-0.00566155
-0.00541294
-0.00512602
-0.00480147
-0.00444063
-0.00404547
-0.00361867
-0.00316363
-0.00268444
-0.0021859
-0.00167345
-0.00115317
-0.000631642
-0.000115937
0.000386566
0.000868279
0.00132156
0.00173889
0.00211303
0.0024372
0.00270526
0.00291191
0.00305279
0.00312465
0.00312548
0.00305451
0.00291232
0.00270078
0.00242304
0.0020834
0.00168722
0.00124075
0.00075091
0.00022518
-0.000328689
-0.000903103
-0.00149058
-0.00208063
-0.0026635
-0.00327579
-0.00395212
0.000322821
-0.000433701
-0.00102984
-0.00151675
-0.00195497
-0.00234757
-0.00269704
-0.00300991
-0.00329238
-0.00354994
-0.00378758
-0.00400974
-0.00422027
-0.00442246
-0.00461903
-0.00481212
-0.00500334
-0.00519379
-0.00538408
-0.00557436
-0.00576436
-0.00595339
-0.00614039
-0.00632398
-0.00650243
-0.00667377
-0.00683575
-0.00698593
-0.00712167
-0.00724021
-0.00733871
-0.00741425
-0.00746393
-0.00748491
-0.00747444
-0.00742994
-0.00734908
-0.00722979
-0.00707038
-0.00686956
-0.00662655
-0.00634111
-0.00601359
-0.00564504
-0.00523719
-0.00479253
-0.00431435
-0.00380669
-0.0032744
-0.00272308
-0.00215905
-0.00158928
-0.00102132
-0.000463164
7.6899e-05
0.000590401
0.0010689
0.00150418
0.00188842
0.00221444
0.00247584
0.00266727
0.00278452
0.00282471
0.00278637
0.0026695
0.00247558
0.00220755
0.00186971
0.00146759
0.00100778
0.000497739
-5.44189e-05
-0.000640198
-0.00125122
-0.00187919
-0.00251253
-0.00314044
-0.00380265
-0.00453662
-0.000255065
-0.00102704
-0.00163523
-0.00213197
-0.00257925
-0.00298037
-0.00333809
-0.00365922
-0.00395027
-0.00421699
-0.00446457
-0.00469765
-0.00492025
-0.00513578
-0.00534704
-0.00555624
-0.00576504
-0.00597453
-0.00618533
-0.00639756
-0.00661089
-0.00682456
-0.00703743
-0.00724799
-0.00745441
-0.00765455
-0.00784599
-0.00802609
-0.00819201
-0.00834075
-0.00846919
-0.00857414
-0.00865238
-0.00870072
-0.00871608
-0.00869548
-0.0086362
-0.00853577
-0.00839207
-0.0082034
-0.00796855
-0.00768689
-0.00735838
-0.00698372
-0.00656435
-0.00610251
-0.00560129
-0.00506465
-0.00449743
-0.00390534
-0.00329493
-0.00267351
-0.00204912
-0.00143034
-0.000826232
-0.000246125
0.000300562
0.000804527
0.00125681
0.00164903
0.00197361
0.00222399
0.00239488
0.00248238
0.00248414
0.00239946
0.0022293
0.00197629
0.00164466
0.00124006
0.000769437
0.000240775
-0.000337134
-0.000954995
-0.00160357
-0.00227366
-0.0029525
-0.00362815
-0.00434372
-0.00513972
-0.000905848
-0.00169122
-0.00230992
-0.00281537
-0.0032708
-0.00367976
-0.00404525
-0.00437437
-0.00467392
-0.00494987
-0.00520765
-0.00545207
-0.00568731
-0.00591688
-0.00614368
-0.00636998
-0.00659747
-0.00682728
-0.00706
-0.00729572
-0.00753406
-0.0077742
-0.00801491
-0.00825457
-0.00849122
-0.00872256
-0.00894603
-0.00915877
-0.00935773
-0.00953965
-0.00970114
-0.00983872
-0.00994884
-0.010028
-0.0100726
-0.0100794
-0.0100452
-0.00996706
-0.00984243
-0.00966914
-0.00944551
-0.00917043
-0.00884344
-0.00846481
-0.00803561
-0.00755777
-0.00703412
-0.00646847
-0.00586559
-0.00523124
-0.00457213
-0.00389591
-0.00321104
-0.00252676
-0.00185287
-0.00119961
-0.00057744
3.16565e-06
0.00053199
0.000999325
0.00139624
0.00171485
0.00194855
0.00209227
0.00214259
0.00209795
0.00195865
0.0017269
0.00140673
0.00100389
0.000525626
-1.95458e-05
-0.000622118
-0.00127193
-0.00195882
-0.00267259
-0.00339915
-0.00412536
-0.00489792
-0.00576065
-0.00163094
-0.00242758
-0.00305523
-0.00356823
-0.00403089
-0.00444699
-0.00481977
-0.0051566
-0.00546454
-0.00574982
-0.00601804
-0.0062742
-0.00652262
-0.00676693
-0.0070101
-0.00725449
-0.0075018
-0.00775319
-0.00800923
-0.00826999
-0.00853504
-0.00880351
-0.00907406
-0.009345
-0.00961421
-0.00987927
-0.0101374
-0.0103856
-0.0106206
-0.0108389
-0.0110368
-0.0112104
-0.011356
-0.0114696
-0.0115473
-0.0115853
-0.01158
-0.0115281
-0.0114263
-0.0112721
-0.0110632
-0.0107981
-0.0104756
-0.0100957
-0.00965899
-0.00916691
-0.00862202
-0.00802788
-0.00738913
-0.00671148
-0.00600179
-0.00526795
-0.00451887
-0.00376436
-0.003015
-0.00228197
-0.00157682
-0.00091129
-0.000296952
0.000255019
0.000734178
0.00113111
0.00143775
0.00164759
0.001756
0.00176034
0.00166006
0.0014568
0.00115431
0.000758301
0.000276305
-0.000282647
-0.000908302
-0.00158958
-0.0023153
-0.00307418
-0.0038507
-0.00463035
-0.00546373
-0.0063982
-0.00243144
-0.00323718
-0.00387218
-0.00439156
-0.00486051
-0.00528305
-0.00566262
-0.00600687
-0.0063231
-0.00661776
-0.00689666
-0.00716494
-0.00742706
-0.00768677
-0.00794713
-0.00821054
-0.00847877
-0.00875297
-0.00903371
-0.00932105
-0.00961452
-0.00991317
-0.0102156
-0.01052
-0.0108242
-0.0111255
-0.0114211
-0.0117077
-0.0119818
-0.0122397
-0.0124774
-0.0126908
-0.0128757
-0.0130276
-0.0131425
-0.0132159
-0.0132438
-0.0132222
-0.0131476
-0.0130166
-0.0128266
-0.0125752
-0.0122609
-0.0118831
-0.0114416
-0.0109377
-0.0103734
-0.00975189
-0.00907764
-0.00835627
-0.00759463
-0.00680084
-0.00598417
-0.00515499
-0.00432465
-0.00350527
-0.00270957
-0.00195057
-0.00124135
-0.000594674
-2.26706e-05
0.000463531
0.00085415
0.00114109
0.00131821
0.00138158
0.00132962
0.00116321
0.00088563
0.000502494
2.15158e-05
-0.000547774
-0.00119436
-0.00190618
-0.00267095
-0.00347623
-0.00430488
-0.00514091
-0.00603912
-0.00705065
-0.00330814
-0.00412076
-0.00476152
-0.00528608
-0.00576038
-0.00618863
-0.00657449
-0.00692585
-0.00725025
-0.00755433
-0.00784409
-0.00812483
-0.00840113
-0.00867687
-0.00895518
-0.00923852
-0.0095287
-0.0098269
-0.0101337
-0.0104491
-0.0107726
-0.0111033
-0.0114396
-0.0117797
-0.0121212
-0.0124613
-0.0127971
-0.0131251