/*--------------------------------*- C++ -*----------------------------------*\
| =========                 |                                                 |
| \\      /  F ield         | OpenFOAM: The Open Source CFD Toolbox           |
|  \\    /   O peration     | Version:  2506                                  |
|   \\  /    A nd           | Website:  www.openfoam.com                      |
|    \\/     M anipulation  |                                                 |
\*---------------------------------------------------------------------------*/
FoamFile
{
    version     2.0;
    format      ascii;
    arch        "LSB;label=32;scalar=64";
    class       surfaceScalarField;
    location    "1.875";
    object      phi;
}
// * * * * * * * * * * * * * * * * * * * * * * * * * * * * * * * * * * * * * //

dimensions      [0 3 -1 0 0 0 0];

oriented        oriented;

internalField   nonuniform List<scalar> 
12640
(
2.24512e-10
-2.24388e-10
6.19407e-10
-3.94935e-10
9.38618e-10
-3.19197e-10
1.0484e-09
-1.09791e-10
8.89336e-10
1.59083e-10
4.42008e-10
4.47336e-10
-2.90664e-10
7.32676e-10
-1.29361e-09
1.00294e-09
-2.54533e-09
1.25172e-09
-4.02134e-09
1.47601e-09
-5.69614e-09
1.67481e-09
-7.54447e-09
1.84833e-09
-9.54196e-09
1.9975e-09
-1.16656e-08
2.12361e-09
-1.38937e-08
2.22815e-09
-1.62064e-08
2.31267e-09
-1.8585e-08
2.3786e-09
-2.10123e-08
2.42733e-09
-2.34724e-08
2.46008e-09
-2.59503e-08
2.47785e-09
-2.84318e-08
2.48149e-09
-3.09034e-08
2.47163e-09
-3.33521e-08
2.44876e-09
-3.57653e-08
2.41318e-09
-3.81304e-08
2.36507e-09
-4.04349e-08
2.30449e-09
-4.26663e-08
2.23141e-09
-4.4812e-08
2.14576e-09
-4.68594e-08
2.0474e-09
-4.87957e-08
1.93624e-09
-5.06079e-08
1.81219e-09
-5.22831e-08
1.67522e-09
-5.38085e-08
1.5254e-09
-5.51714e-08
1.36292e-09
-5.63595e-08
1.18809e-09
-5.73609e-08
1.00137e-09
-5.81643e-08
8.03398e-10
-5.87593e-08
5.95006e-10
-5.91365e-08
3.7722e-10
-5.92877e-08
1.51269e-10
-5.92063e-08
-8.14111e-11
-5.88872e-08
-3.19177e-10
-5.8327e-08
-5.60195e-10
-5.75245e-08
-8.02454e-10
-5.64808e-08
-1.04378e-09
-5.51989e-08
-1.28183e-09
-5.36848e-08
-1.51417e-09
-5.19465e-08
-1.73829e-09
-4.99949e-08
-1.9516e-09
-4.78433e-08
-2.15154e-09
-4.55078e-08
-2.33555e-09
-4.30066e-08
-2.50117e-09
-4.03606e-08
-2.64606e-09
-3.75925e-08
-2.76806e-09
-3.47273e-08
-2.86521e-09
-3.17915e-08
-2.93583e-09
-2.88129e-08
-2.97854e-09
-2.58207e-08
-2.99226e-09
-2.28444e-08
-2.97632e-09
-1.9914e-08
-2.9304e-09
-1.70594e-08
-2.85459e-09
-1.431e-08
-2.74943e-09
-1.16941e-08
-2.61585e-09
-9.23889e-09
-2.45521e-09
-6.96958e-09
-2.2693e-09
-4.90928e-09
-2.06029e-09
-3.07848e-09
-1.83081e-09
-1.4946e-09
-1.58387e-09
-1.71621e-10
-1.32298e-09
8.8054e-10
-1.05217e-09
1.65659e-09
-7.76055e-10
2.15676e-09
-5.0017e-10
2.38803e-09
-2.3126e-10
2.36593e-09
2.21011e-11
2.11752e-09
2.48402e-10
1.68581e-09
4.31693e-10
1.13657e-09
5.49229e-10
5.69201e-10
5.67378e-10
1.32801e-10
4.36404e-10
1.32798e-10
3.97125e-10
-6.21514e-10
9.07769e-10
-9.05547e-10
1.14177e-09
-5.53224e-10
8.62313e-10
1.69697e-10
-6.41103e-11
1.08548e-09
-1.69618e-09
2.07942e-09
-4.04287e-09
3.07936e-09
-7.08094e-09
4.041e-09
-1.07675e-08
4.93833e-09
-1.50485e-08
5.75699e-09
-1.9864e-08
6.49021e-09
-2.51517e-08
7.13606e-09
-3.08499e-08
7.69565e-09
-3.68983e-08
8.17204e-09
-4.32394e-08
8.5693e-09
-4.98188e-08
8.89196e-09
-5.65848e-08
9.14466e-09
-6.34892e-08
9.33174e-09
-7.04863e-08
9.4572e-09
-7.7533e-08
9.52453e-09
-8.45882e-08
9.53663e-09
-9.16123e-08
9.4958e-09
-9.85674e-08
9.4038e-09
-1.05416e-07
9.26184e-09
-1.12122e-07
9.07067e-09
-1.18648e-07
8.83068e-09
-1.24958e-07
8.54198e-09
-1.31017e-07
8.20447e-09
-1.36788e-07
7.818e-09
-1.42234e-07
7.38243e-09
-1.47319e-07
6.89774e-09
-1.52008e-07
6.36416e-09
-1.56265e-07
5.78223e-09
-1.60055e-07
5.15291e-09
-1.63345e-07
4.47766e-09
-1.66102e-07
3.75852e-09
-1.68297e-07
2.99814e-09
-1.69901e-07
2.19984e-09
-1.70892e-07
1.36768e-09
-1.71247e-07
5.06414e-10
-1.7095e-07
-3.78457e-10
-1.69989e-07
-1.28071e-09
-1.68355e-07
-2.19342e-09
-1.66049e-07
-3.10905e-09
-1.63073e-07
-4.01948e-09
-1.59439e-07
-4.91608e-09
-1.55163e-07
-5.78986e-09
-1.5027e-07
-6.63153e-09
-1.4479e-07
-7.43168e-09
-1.3876e-07
-8.18089e-09
-1.32226e-07
-8.8699e-09
-1.25237e-07
-9.48976e-09
-1.17852e-07
-1.0032e-08
-1.10131e-07
-1.04887e-08
-1.02143e-07
-1.0853e-08
-9.39602e-08
-1.11187e-08
-8.56579e-08
-1.12809e-08
-7.73144e-08
-1.13357e-08
-6.90098e-08
-1.12809e-08
-6.08249e-08
-1.11153e-08
-5.284e-08
-1.08395e-08
-4.51339e-08
-1.04555e-08
-3.77829e-08
-9.96684e-09
-3.08593e-08
-9.37875e-09
-2.44307e-08
-8.69796e-09
-1.85581e-08
-7.93282e-09
-1.32957e-08
-7.09328e-09
-8.68858e-09
-6.19098e-09
-4.7722e-09
-5.23937e-09
-1.57041e-09
-4.25395e-09
9.06229e-10
-3.2527e-09
2.66274e-09
-2.2567e-09
3.72273e-09
-1.29127e-09
4.13241e-09
-3.8761e-10
3.96604e-09
4.14767e-10
3.33301e-09
1.06472e-09
2.38677e-09
1.49548e-09
1.33355e-09
1.62061e-09
4.3443e-10
1.33553e-09
5.67241e-10
3.25473e-10
-9.46955e-10
5.62824e-10
-1.14292e-09
2.77762e-10
-2.68166e-10
-8.01185e-10
1.24862e-09
-2.83651e-09
3.1208e-09
-5.90671e-09
5.14962e-09
-1.00285e-08
7.20113e-09
-1.51756e-08
9.18815e-09
-2.12932e-08
1.10559e-08
-2.83079e-08
1.27717e-08
-3.61359e-08
1.43183e-08
-4.46881e-08
1.56882e-08
-5.38737e-08
1.68812e-08
-6.36029e-08
1.79013e-08
-7.37885e-08
1.87549e-08
-8.43467e-08
1.94501e-08
-9.51973e-08
1.99953e-08
-1.06264e-07
2.03988e-08
-1.17476e-07
2.06683e-08
-1.28762e-07
2.08105e-08
-1.40056e-07
2.08314e-08
-1.51296e-07
2.07354e-08
-1.62418e-07
2.05264e-08
-1.73364e-07
2.02069e-08
-1.84072e-07
1.97787e-08
-1.94484e-07
1.92428e-08
-2.04541e-07
1.85997e-08
-2.14187e-07
1.78496e-08
-2.23361e-07
1.69925e-08
-2.32007e-07
1.60285e-08
-2.40067e-07
1.49581e-08
-2.47485e-07
1.37821e-08
-2.54205e-07
1.25023e-08
-2.60174e-07
1.11211e-08
-2.65338e-07
9.64206e-09
-2.6965e-07
8.07001e-09
-2.73062e-07
6.41099e-09
-2.75535e-07
4.6725e-09
-2.77031e-07
2.86348e-09
-2.77519e-07
9.94405e-10
-2.76975e-07
-9.22765e-10
-2.75381e-07
-2.87459e-09
-2.72728e-07
-4.8462e-09
-2.69015e-07
-6.82146e-09
-2.64252e-07
-8.78304e-09
-2.58455e-07
-1.07127e-08
-2.51654e-07
-1.25913e-08
-2.43886e-07
-1.43993e-08
-2.35201e-07
-1.61168e-08
-2.25658e-07
-1.77242e-08
-2.15326e-07
-1.92018e-08
-2.04284e-07
-2.05311e-08
-1.92622e-07
-2.16943e-08
-1.80436e-07
-2.2675e-08
-1.6783e-07
-2.34586e-08
-1.54917e-07
-2.40325e-08
-1.41811e-07
-2.43864e-08
-1.28634e-07
-2.45124e-08
-1.1551e-07
-2.44057e-08
-1.02561e-07
-2.40643e-08
-8.99106e-08
-2.34895e-08
-7.76806e-08
-2.26855e-08
-6.59871e-08
-2.16603e-08
-5.49409e-08
-2.04249e-08
-4.46449e-08
-1.8994e-08
-3.51923e-08
-1.73854e-08
-2.66648e-08
-1.56208e-08
-1.91305e-08
-1.37253e-08
-1.2642e-08
-1.17279e-08
-7.23384e-09
-9.66213e-09
-2.9199e-09
-7.56662e-09
3.09665e-10
-5.48626e-09
2.49241e-09
-3.47403e-09
3.69824e-09
-1.59345e-09
4.03518e-09
7.78221e-11
3.65598e-09
1.44393e-09
2.76557e-09
2.3859e-09
1.62721e-09
2.75898e-09
5.66515e-10
2.39624e-09
1.13377e-09
1.18146e-10
-1.0651e-09
-1.63268e-10
-8.61475e-10
-1.25457e-09
8.23156e-10
-3.42037e-09
3.41444e-09
-6.8216e-09
6.52204e-09
-1.1537e-08
9.86503e-09
-1.75818e-08
1.32459e-08
-2.49243e-08
1.65306e-08
-3.34995e-08
1.9631e-08
-4.32197e-08
2.2492e-08
-5.39832e-08
2.50817e-08
-6.56801e-08
2.73851e-08
-7.81971e-08
2.93982e-08
-9.14205e-08
3.11247e-08
-1.05239e-07
3.25731e-08
-1.19543e-07
3.37545e-08
-1.34229e-07
3.46813e-08
-1.49196e-07
3.53659e-08
-1.64348e-07
3.58202e-08
-1.79592e-07
3.60547e-08
-1.9484e-07
3.60786e-08
-2.10004e-07
3.58995e-08
-2.25e-07
3.55232e-08
-2.39748e-07
3.49544e-08
-2.54165e-07
3.41959e-08
-2.68172e-07
3.32499e-08
-2.8169e-07
3.21176e-08
-2.9464e-07
3.07997e-08
-3.06944e-07
2.92968e-08
-3.18525e-07
2.76096e-08
-3.29307e-07
2.57396e-08
-3.39214e-07
2.3689e-08
-3.48173e-07
2.14613e-08
-3.56113e-07
1.90612e-08
-3.62967e-07
1.64956e-08
-3.6867e-07
1.37732e-08
-3.73164e-07
1.09048e-08
-3.76395e-07
7.90365e-09
-3.78317e-07
4.78543e-09
-3.78891e-07
1.56826e-09
-3.78086e-07
-1.72724e-09
-3.75883e-07
-5.07803e-09
-3.7227e-07
-8.45882e-09
-3.67249e-07
-1.18422e-08
-3.60834e-07
-1.51988e-08
-3.53049e-07
-1.84978e-08
-3.43933e-07
-2.17071e-08
-3.33538e-07
-2.47938e-08
-3.2193e-07
-2.77248e-08
-3.09187e-07
-3.04668e-08
-2.95402e-07
-3.29875e-08
-2.80677e-07
-3.52555e-08
-2.6513e-07
-3.72414e-08
-2.48887e-07
-3.8918e-08
-2.32085e-07
-4.02609e-08
-2.14868e-07
-4.12492e-08
-1.97389e-07
-4.18658e-08
-1.79803e-07
-4.20978e-08
-1.62272e-07
-4.19372e-08
-1.44955e-07
-4.13809e-08
-1.28014e-07
-4.0431e-08
-1.11604e-07
-3.90953e-08
-9.58772e-08
-3.7387e-08
-8.0977e-08
-3.5325e-08
-6.70367e-08
-3.29343e-08
-5.41766e-08
-3.02455e-08
-4.25022e-08
-2.72952e-08
-3.21011e-08
-2.41263e-08
-2.30407e-08
-2.07883e-08
-1.53649e-08
-1.73379e-08
-9.09122e-09
-1.38404e-08
-4.207e-09
-1.03705e-08
-6.65635e-10
-7.01539e-09
1.61823e-09
-3.87732e-09
2.77373e-09
-1.07767e-09
2.97952e-09
1.23814e-09
2.46975e-09
2.89568e-09
1.54032e-09
3.68841e-09
5.58124e-10
3.37845e-09
1.69189e-09
-1.55367e-10
-9.09758e-10
-1.10803e-09
9.12108e-11
-3.19884e-09
2.91397e-09
-6.65449e-09
6.87006e-09
-1.16122e-08
1.14797e-08
-1.81352e-08
1.63881e-08
-2.62273e-08
2.13381e-08
-3.58463e-08
2.61496e-08
-4.69156e-08
3.07004e-08
-5.93345e-08
3.49109e-08
-7.29862e-08
3.87334e-08
-8.77438e-08
4.21427e-08
-1.03476e-07
4.513e-08
-1.20048e-07
4.76975e-08
-1.3733e-07
4.98547e-08
-1.55191e-07
5.16156e-08
-1.73506e-07
5.2996e-08
-1.92152e-07
5.40126e-08
-2.11013e-07
5.46813e-08
-2.29976e-07
5.50168e-08
-2.48929e-07
5.50317e-08
-2.67766e-07
5.47368e-08
-2.86383e-07
5.41406e-08
-3.04679e-07
5.32496e-08
-3.22551e-07
5.20685e-08
-3.39902e-07
5.06006e-08
-3.56632e-07
4.88483e-08
-3.72646e-07
4.68131e-08
-3.87846e-07
4.44967e-08
-4.02137e-07
4.19009e-08
-4.15426e-07
3.90287e-08
-4.27621e-07
3.58842e-08
-4.38634e-07
3.24735e-08
-4.48377e-07
2.88048e-08
-4.5677e-07
2.48889e-08
-4.63737e-07
2.07397e-08
-4.69206e-07
1.63742e-08
-4.73116e-07
1.18129e-08
-4.7541e-07
7.07985e-09
-4.76044e-07
2.20258e-09
-4.74984e-07
-2.78767e-09
-4.72206e-07
-7.85619e-09
-4.677e-07
-1.2965e-08
-4.61469e-07
-1.8073e-08
-4.53531e-07
-2.31366e-08
-4.43919e-07
-2.81099e-08
-4.32681e-07
-3.29452e-08
-4.19881e-07
-3.75939e-08
-4.05599e-07
-4.20066e-08
-3.89931e-07
-4.61347e-08
-3.72988e-07
-4.99301e-08
-3.54897e-07
-5.33467e-08
-3.35797e-07
-5.63413e-08
-3.15842e-07
-5.88737e-08
-2.95194e-07
-6.09081e-08
-2.7403e-07
-6.24138e-08
-2.5253e-07
-6.33657e-08
-2.30883e-07
-6.3745e-08
-2.0928e-07
-6.35399e-08
-1.87915e-07
-6.2746e-08
-1.66979e-07
-6.13666e-08
-1.46661e-07
-5.94134e-08
-1.27142e-07
-5.69062e-08
-1.08594e-07
-5.38734e-08
-9.11759e-08
-5.03521e-08
-7.50333e-08
-4.63882e-08
-6.0292e-08
-4.20364e-08
-4.70574e-08
-3.73609e-08
-3.54104e-08
-3.24353e-08
-2.54043e-08
-2.73441e-08
-1.70614e-08
-2.21832e-08
-1.03697e-08
-1.70622e-08
-5.27839e-09
-1.21067e-08
-1.69407e-09
-7.46164e-09
5.23618e-10
-3.29535e-09
1.56671e-09
1.95045e-10
1.68406e-09
2.77832e-09
1.18753e-09
4.18495e-09
4.62392e-10
4.10359e-09
2.15427e-09
-4.59036e-10
-4.50736e-10
-2.17019e-09
1.80235e-09
-5.38288e-09
6.12667e-09
-1.02653e-08
1.17525e-08
-1.69147e-08
1.81291e-08
-2.53664e-08
2.48397e-08
-3.56034e-08
3.15751e-08
-4.75672e-08
3.81134e-08
-6.11666e-08
4.42998e-08
-7.6287e-08
5.00313e-08
-9.27971e-08
5.52434e-08
-1.10555e-07
5.99006e-08
-1.29413e-07
6.39881e-08
-1.49222e-07
6.75059e-08
-1.69831e-07
7.0464e-08
-1.91094e-07
7.28783e-08
-2.12866e-07
7.47682e-08
-2.35007e-07
7.61541e-08
-2.57382e-07
7.70561e-08
-2.79858e-07
7.74926e-08
-3.02306e-07
7.748e-08
-3.24602e-07
7.70323e-08
-3.46622e-07
7.61607e-08
-3.68246e-07
7.4874e-08
-3.89357e-07
7.31788e-08
-4.09836e-07
7.10799e-08
-4.29569e-07
6.8581e-08
-4.48441e-07
6.5685e-08
-4.66339e-07
6.2395e-08
-4.83153e-07
5.87144e-08
-4.98772e-07
5.46483e-08
-5.13091e-07
5.02034e-08
-5.26007e-07
4.53891e-08
-5.3742e-07
4.02178e-08
-5.47237e-07
3.47058e-08
-5.5537e-07
2.88729e-08
-5.61739e-07
2.27436e-08
-5.66273e-07
1.63471e-08
-5.68911e-07
9.71711e-09
-5.69601e-07
2.89245e-09
-5.68305e-07
-4.08338e-09
-5.64999e-07
-1.11622e-08
-5.59673e-07
-1.82913e-08
-5.52331e-07
-2.54141e-08
-5.42998e-07
-3.24705e-08
-5.3171e-07
-3.93974e-08
-5.18526e-07
-4.61294e-08
-5.0352e-07
-5.25999e-08
-4.86785e-07
-5.87416e-08
-4.68432e-07
-6.44878e-08
-4.48589e-07
-6.9773e-08
-4.27401e-07
-7.45344e-08
-4.0503e-07
-7.87128e-08
-3.8165e-07
-8.22536e-08
-3.5745e-07
-8.51082e-08
-3.32629e-07
-8.72345e-08
-3.07396e-07
-8.85984e-08
-2.81967e-07
-8.91744e-08
-2.56561e-07
-8.89462e-08
-2.31399e-07
-8.7908e-08
-2.06701e-07
-8.60645e-08
-1.82683e-07
-8.34316e-08
-1.59552e-07
-8.00365e-08
-1.37507e-07
-7.59185e-08
-1.16731e-07
-7.11284e-08
-9.73895e-08
-6.57294e-08
-7.9629e-08
-5.97969e-08
-6.35712e-08
-5.34187e-08
-4.93103e-08
-4.66962e-08
-3.69101e-08
-3.97443e-08
-2.63998e-08
-3.26935e-08
-1.77709e-08
-2.56911e-08
-1.09734e-08
-1.89043e-08
-5.91205e-09
-1.2523e-08
-2.44313e-09
-6.76429e-09
-3.70419e-10
-1.87767e-09
5.58821e-10
1.84908e-09
6.5897e-10
4.08481e-09
3.14307e-10
4.44824e-09
2.46858e-09
-7.73751e-10
3.2304e-10
-3.2881e-09
4.31668e-09
-7.69376e-09
1.05323e-08
-1.40892e-08
1.81479e-08
-2.25204e-08
2.65604e-08
-3.29852e-08
3.53044e-08
-4.54382e-08
4.40281e-08
-5.97987e-08
5.24739e-08
-7.59575e-08
6.04586e-08
-9.37838e-08
6.78576e-08
-1.13131e-07
7.45911e-08
-1.33844e-07
8.06132e-08
-1.55759e-07
8.59034e-08
-1.78713e-07
9.04592e-08
-2.02539e-07
9.42906e-08
-2.27076e-07
9.74153e-08
-2.52164e-07
9.98557e-08
-2.77645e-07
1.01636e-07
-3.03369e-07
1.02779e-07
-3.29185e-07
1.03309e-07
-3.5495e-07
1.03244e-07
-3.8052e-07
1.02603e-07
-4.05757e-07
1.01398e-07
-4.30525e-07
9.96418e-08
-4.54689e-07
9.73422e-08
-4.78115e-07
9.45061e-08
-5.00672e-07
9.11386e-08
-5.22232e-07
8.72444e-08
-5.42665e-07
8.28283e-08
-5.61847e-07
7.7896e-08
-5.79654e-07
7.24551e-08
-5.95966e-07
6.65155e-08
-6.10668e-07
6.00909e-08
-6.23648e-07
5.31987e-08
-6.34804e-07
4.58611e-08
-6.44036e-07
3.81055e-08
-6.51258e-07
2.99648e-08
-6.56388e-07
2.14779e-08
-6.59361e-07
1.269e-08
-6.60121e-07
3.6523e-09
-6.58627e-07
-5.57786e-09
-6.54852e-07
-1.49371e-08
-6.48786e-07
-2.43566e-08
-6.40438e-07
-3.37624e-08
-6.29832e-07
-4.30761e-08
-6.17014e-07
-5.22155e-08
-6.02048e-07
-6.10959e-08
-5.85017e-07
-6.96306e-08
-5.66026e-07
-7.77326e-08
-5.45199e-07
-8.53152e-08
-5.22678e-07
-9.22938e-08
-4.98625e-07
-9.85872e-08
-4.73219e-07
-1.04119e-07
-4.46656e-07
-1.08817e-07
-4.19143e-07
-1.12621e-07
-3.90903e-07
-1.15474e-07
-3.62169e-07
-1.17333e-07
-3.33179e-07
-1.18164e-07
-3.04178e-07
-1.17947e-07
-2.75412e-07
-1.16674e-07
-2.47127e-07
-1.1435e-07
-2.19562e-07
-1.10996e-07
-1.92951e-07
-1.06648e-07
-1.67513e-07
-1.01356e-07
-1.43456e-07
-9.5186e-08
-1.20965e-07
-8.82204e-08
-1.00205e-07
-8.05569e-08
-8.13141e-08
-7.23095e-08
-6.44012e-08
-6.3609e-08
-4.95416e-08
-5.4604e-08
-3.67736e-08
-4.54614e-08
-2.60958e-08
-3.6369e-08
-1.7463e-08
-2.75371e-08
-1.07836e-08
-1.92024e-08
-5.9166e-09
-1.16313e-08
-2.66894e-09
-5.12533e-09
-7.92379e-10
-2.74556e-11
1.95112e-11
3.27294e-09
1.36238e-10
4.33152e-09
2.60483e-09
-1.08945e-09
1.4125e-09
-4.42491e-09
7.65211e-09
-1.00593e-08
1.61667e-08
-1.80161e-08
2.61047e-08
-2.82836e-08
3.68279e-08
-4.08149e-08
4.78357e-08
-5.55305e-08
5.87437e-08
-7.23224e-08
6.92658e-08
-9.10595e-08
7.91958e-08
-1.11593e-07
8.83908e-08
-1.3376e-07
9.6758e-08
-1.57389e-07
1.04243e-07
-1.82305e-07
1.10819e-07
-2.08328e-07
1.16483e-07
-2.35281e-07
1.21243e-07
-2.62985e-07
1.2512e-07
-2.91269e-07
1.28139e-07
-3.1996e-07
1.30327e-07
-3.48893e-07
1.31712e-07
-3.77903e-07
1.32319e-07
-4.06831e-07
1.32173e-07
-4.35521e-07
1.31293e-07
-4.63819e-07
1.29696e-07
-4.91574e-07
1.27396e-07
-5.18635e-07
1.24404e-07
-5.44856e-07
1.20727e-07
-5.70092e-07
1.16374e-07
-5.94198e-07
1.11351e-07
-6.17034e-07
1.05664e-07
-6.38461e-07
9.93227e-08
-6.58342e-07
9.23367e-08
-6.76547e-07
8.47204e-08
-6.92949e-07
7.64921e-08
-7.07425e-07
6.76749e-08
-7.19862e-07
5.82982e-08
-7.30154e-07
4.83973e-08
-7.38204e-07
3.8015e-08
-7.43927e-07
2.72009e-08
-7.47249e-07
1.60126e-08
-7.48112e-07
4.51502e-09
-7.46471e-07
-7.21925e-09
-7.42297e-07
-1.91104e-08
-7.35582e-07
-3.10719e-08
-7.26334e-07
-4.3011e-08
-7.1458e-07
-5.48293e-08
-7.00371e-07
-6.64244e-08
-6.83777e-07
-7.76902e-08
-6.64889e-07
-8.85187e-08
-6.43821e-07
-9.88011e-08
-6.20706e-07
-1.0843e-07
-5.95702e-07
-1.17298e-07
-5.68982e-07
-1.25307e-07
-5.40743e-07
-1.32358e-07
-5.11195e-07
-1.38365e-07
-4.80567e-07
-1.43249e-07
-4.49099e-07
-1.46941e-07
-4.17046e-07
-1.49386e-07
-3.84667e-07
-1.50543e-07
-3.5223e-07
-1.50384e-07
-3.20004e-07
-1.489e-07
-2.88257e-07
-1.46097e-07
-2.57253e-07
-1.42001e-07
-2.27246e-07
-1.36654e-07
-1.98481e-07
-1.30121e-07
-1.71183e-07
-1.22484e-07
-1.45561e-07
-1.13843e-07
-1.21796e-07
-1.04321e-07
-1.00046e-07
-9.40603e-08
-8.04322e-08
-8.32224e-08
-6.30451e-08
-7.1991e-08
-4.79347e-08
-6.05719e-08
-3.51091e-08
-4.91945e-08
-2.45323e-08
-3.81139e-08
-1.61207e-08
-2.7614e-08
-9.74108e-09
-1.80108e-08
-5.20921e-09
-9.65718e-09
-2.28793e-09
-2.94872e-09
-6.86051e-10
1.67107e-09
-5.754e-11
3.70303e-09
2.54731e-09
-1.40089e-09
2.81338e-09
-5.55898e-09
1.18102e-08
-1.24339e-08
2.30416e-08
-2.1973e-08
3.56438e-08
-3.41035e-08
4.89584e-08
-4.87294e-08
6.24616e-08
-6.57323e-08
7.57465e-08
-8.49733e-08
8.85067e-08
-1.06296e-07
1.00519e-07
-1.29531e-07
1.11625e-07
-1.54497e-07
1.21724e-07
-1.81009e-07
1.30754e-07
-2.08875e-07
1.38685e-07
-2.37904e-07
1.45511e-07
-2.67904e-07
1.51243e-07
-2.98687e-07
1.55903e-07
-3.30065e-07
1.59517e-07
-3.61855e-07
1.62117e-07
-3.93878e-07
1.63735e-07
-4.25958e-07
1.64399e-07
-4.57922e-07
1.64137e-07
-4.89601e-07
1.62971e-07
-5.20827e-07
1.60922e-07
-5.51436e-07
1.58005e-07
-5.81267e-07
1.54234e-07
-6.10158e-07
1.49619e-07
-6.37952e-07
1.44168e-07
-6.64493e-07
1.37892e-07
-6.89627e-07
1.30798e-07
-7.13204e-07
1.22899e-07
-7.35076e-07
1.14209e-07
-7.55101e-07
1.04746e-07
-7.73143e-07
9.45333e-08
-7.89069e-07
8.36012e-08
-8.02757e-07
7.19863e-08
-8.14093e-07
5.97333e-08
-8.22973e-07
4.6895e-08
-8.29305e-07
3.35332e-08
-8.33011e-07
1.97185e-08
-8.34027e-07
5.53093e-09
-8.32305e-07
-8.94089e-09
-8.27816e-07
-2.35995e-08
-8.20549e-07
-3.83393e-08
-8.10512e-07
-5.30475e-08
-7.97737e-07
-6.76049e-08
-7.82274e-07
-8.18867e-08
-7.642e-07
-9.57646e-08
-7.43611e-07
-1.09108e-07
-7.20629e-07
-1.21784e-07
-6.95396e-07
-1.33662e-07
-6.68078e-07
-1.44616e-07
-6.38864e-07
-1.54521e-07
-6.07961e-07
-1.63261e-07
-5.75596e-07
-1.7073e-07
-5.42013e-07
-1.76832e-07
-5.0747e-07
-1.81484e-07
-4.7224e-07
-1.84617e-07
-4.36602e-07
-1.8618e-07
-4.00846e-07
-1.86141e-07
-3.6526e-07
-1.84485e-07
-3.30136e-07
-1.81221e-07
-2.95758e-07
-1.76378e-07
-2.62404e-07
-1.70008e-07
-2.3034e-07
-1.62186e-07
-1.99812e-07
-1.53011e-07
-1.71049e-07
-1.42606e-07
-1.44254e-07
-1.31117e-07
-1.196e-07
-1.18715e-07
-9.7227e-08
-1.05595e-07
-7.72407e-08
-9.19773e-08
-5.97051e-08
-7.81074e-08
-4.46419e-08
-6.42577e-08
-3.20269e-08
-5.07289e-08
-2.17884e-08
-3.78525e-08
-1.38056e-08
-2.59937e-08
-7.90717e-09
-1.55556e-08
-3.87178e-09
-6.9841e-09
-1.42834e-09
-7.72378e-10
-2.58323e-10
2.53303e-09
2.28899e-09
-1.70545e-09
4.51883e-09
-6.67776e-09
1.67825e-08
-1.47889e-08
3.11528e-08
-2.59116e-08
4.67665e-08
-3.99105e-08
6.29573e-08
-5.66385e-08
7.91895e-08
-7.5935e-08
9.50431e-08
-9.76273e-08
1.10199e-07
-1.21531e-07
1.24422e-07
-1.47454e-07
1.37548e-07
-1.75196e-07
1.49467e-07
-2.04555e-07
1.60113e-07
-2.35325e-07
1.69456e-07
-2.67302e-07
1.77488e-07
-3.00282e-07
1.84223e-07
-3.34063e-07
1.89684e-07
-3.68448e-07
1.93902e-07
-4.03242e-07
1.96912e-07
-4.38255e-07
1.98748e-07
-4.73298e-07
1.99443e-07
-5.08189e-07
1.99028e-07
-5.42746e-07
1.97528e-07
-5.7679e-07
1.94967e-07
-6.10146e-07
1.91361e-07
-6.4264e-07
1.86728e-07
-6.741e-07
1.81079e-07
-7.04358e-07
1.74426e-07
-7.33245e-07
1.66779e-07
-7.60598e-07
1.58151e-07
-7.86255e-07
1.48556e-07
-8.10059e-07
1.38013e-07
-8.31857e-07
1.26545e-07
-8.51504e-07
1.1418e-07
-8.6886e-07
1.00957e-07
-8.83792e-07
8.69188e-08
-8.9618e-07
7.21211e-08
-9.05912e-07
5.66275e-08
-9.12892e-07
4.05123e-08
-9.17033e-07
2.38603e-08
-9.18269e-07
6.767e-09
-9.16549e-07
-1.06617e-08
-9.11838e-07
-2.83098e-08
-9.04126e-07
-4.60518e-08
-8.9342e-07
-6.37538e-08
-8.7975e-07
-8.12742e-08
-8.63171e-07
-9.84654e-08
-8.43761e-07
-1.15175e-07
-8.21621e-07
-1.31248e-07
-7.96876e-07
-1.46528e-07
-7.69679e-07
-1.6086e-07
-7.40202e-07
-1.74092e-07
-7.08643e-07
-1.86079e-07
-6.75222e-07
-1.96682e-07
-6.40179e-07
-2.05774e-07
-6.03771e-07
-2.1324e-07
-5.66273e-07
-2.18982e-07
-5.27974e-07
-2.22916e-07
-4.89173e-07
-2.24981e-07
-4.50177e-07
-2.25137e-07
-4.11296e-07
-2.23366e-07
-3.72843e-07
-2.19675e-07
-3.35124e-07
-2.14097e-07
-2.98438e-07
-2.06694e-07
-2.63073e-07
-1.97551e-07
-2.29298e-07
-1.86786e-07
-1.97363e-07
-1.74541e-07
-1.6749e-07
-1.6099e-07
-1.39873e-07
-1.46332e-07
-1.14672e-07
-1.30796e-07
-9.20093e-08
-1.1464e-07
-7.19659e-08
-9.81509e-08
-5.45795e-08
-8.16442e-08
-3.98414e-08
-6.5467e-08
-2.76951e-08
-4.99988e-08
-1.8035e-08
-3.56537e-08
-1.07068e-08
-2.28839e-08
-5.50756e-09
-1.21833e-08
-2.18897e-09
-4.09096e-09
-4.61087e-10
8.05149e-10
1.82789e-09
-2.00189e-09
6.52071e-09
-7.774e-09
2.25546e-08
-1.71065e-08
4.04852e-08
-2.97999e-08
5.94599e-08
-4.56568e-08
7.88142e-08
-6.44778e-08
9.80105e-08
-8.60588e-08
1.16624e-07
-1.10191e-07
1.34331e-07
-1.3666e-07
1.50892e-07
-1.65249e-07
1.66137e-07
-1.95738e-07
1.79956e-07
-2.27907e-07
1.92282e-07
-2.61535e-07
2.03084e-07
-2.96405e-07
2.12358e-07
-3.32301e-07
2.20119e-07
-3.69011e-07
2.26394e-07
-4.06325e-07
2.31217e-07
-4.4404e-07
2.34627e-07
-4.81955e-07
2.36662e-07
-5.19872e-07
2.3736e-07
-5.57597e-07
2.36752e-07
-5.94939e-07
2.3487e-07
-6.31709e-07
2.31737e-07
-6.67723e-07
2.27375e-07
-7.02795e-07
2.218e-07
-7.36744e-07
2.15028e-07
-7.69391e-07
2.07073e-07
-8.00558e-07
1.97947e-07
-8.30073e-07
1.87665e-07
-8.57763e-07
1.76247e-07
-8.83463e-07
1.63713e-07
-9.07011e-07
1.50093e-07
-9.28252e-07
1.35421e-07
-9.47038e-07
1.19743e-07
-9.6323e-07
1.03111e-07
-9.76698e-07
8.55897e-08
-9.87326e-07
6.72553e-08
-9.95009e-07
4.81948e-08
-9.99656e-07
2.85079e-08
-1.0012e-06
8.30615e-09
-9.9957e-07
-1.22865e-08
-9.94745e-07
-3.31349e-08
-9.86704e-07
-5.40929e-08
-9.75454e-07
-7.50043e-08
-9.61023e-07
-9.57045e-08
-9.43467e-07
-1.16022e-07
-9.22863e-07
-1.35779e-07
-8.99316e-07
-1.54795e-07
-8.72955e-07
-1.72889e-07
-8.43936e-07
-1.89879e-07
-8.1244e-07
-2.05589e-07
-7.78671e-07
-2.19848e-07
-7.42859e-07
-2.32494e-07
-7.05254e-07
-2.43379e-07
-6.66128e-07
-2.52367e-07
-6.25769e-07
-2.59341e-07
-5.84481e-07
-2.64203e-07
-5.42582e-07
-2.6688e-07
-5.00397e-07
-2.67322e-07
-4.58256e-07
-2.65506e-07
-4.16492e-07
-2.61439e-07
-3.75434e-07
-2.55155e-07
-3.35403e-07
-2.46724e-07
-2.9671e-07
-2.36245e-07
-2.59646e-07
-2.2385e-07
-2.24484e-07
-2.09704e-07
-1.91469e-07
-1.94005e-07
-1.60816e-07
-1.76984e-07
-1.32707e-07
-1.58905e-07
-1.07283e-07
-1.40064e-07
-8.46462e-08
-1.20788e-07
-6.48523e-08
-1.01438e-07
-4.7911e-08
-8.24083e-08
-3.37837e-08
-6.41261e-08
-2.23832e-08
-4.70543e-08
-1.35738e-08
-3.16932e-08
-7.17361e-09
-1.85835e-08
-2.95752e-09
-8.30703e-09
-6.63213e-10
-1.48917e-09
1.16468e-09
-2.28968e-09
8.8104e-09
-8.84355e-09
2.91085e-08
-1.93753e-08
5.1017e-08
-3.36165e-08
7.37011e-08
-5.13091e-08
9.65068e-08
-7.22012e-08
1.18903e-07
-9.60445e-08
1.40467e-07
-1.22593e-07
1.60879e-07
-1.51601e-07
1.799e-07
-1.82826e-07
1.97362e-07
-2.16026e-07
2.13157e-07
-2.50964e-07
2.27219e-07
-2.87403e-07
2.39523e-07
-3.25113e-07
2.50068e-07
-3.63865e-07
2.58872e-07
-4.03438e-07
2.65966e-07
-4.43613e-07
2.71391e-07
-4.84175e-07
2.75189e-07
-5.24915e-07
2.77402e-07
-5.65626e-07
2.78071e-07
-6.06106e-07
2.77233e-07
-6.46155e-07
2.74919e-07
-6.85576e-07
2.71158e-07
-7.24174e-07
2.65972e-07
-7.61756e-07
2.59382e-07
-7.98132e-07
2.51404e-07
-8.33113e-07
2.42054e-07
-8.66515e-07
2.31348e-07
-8.98154e-07
2.19304e-07
-9.27851e-07
2.05944e-07
-9.55431e-07
1.91293e-07
-9.80724e-07
1.75386e-07
-1.00357e-06
1.58265e-07
-1.02381e-06
1.39981e-07
-1.04129e-06
1.20597e-07
-1.05589e-06
1.00187e-07
-1.06747e-06
7.88394e-08
-1.07593e-06
5.66547e-08
-1.08117e-06
3.37476e-08
-1.08311e-06
1.02464e-08
-1.08169e-06
-1.37067e-08
-1.07687e-06
-3.79566e-08
-1.06863e-06
-6.23358e-08
-1.05697e-06
-8.66655e-08
-1.04192e-06
-1.10757e-07
-1.02352e-06
-1.34414e-07
-1.00187e-06
-1.57432e-07
-9.7706e-07
-1.79606e-07
-9.49224e-07
-2.00725e-07
-9.1852e-07
-2.20582e-07
-8.85134e-07
-2.38975e-07
-8.49278e-07
-2.55704e-07
-8.11187e-07
-2.70585e-07
-7.71122e-07
-2.83444e-07
-7.29364e-07
-2.94124e-07
-6.86218e-07
-3.02488e-07
-6.42e-07
-3.08421e-07
-5.97045e-07
-3.11835e-07
-5.51696e-07
-3.12671e-07
-5.06305e-07
-3.10898e-07
-4.61224e-07
-3.0652e-07
-4.16804e-07
-2.99575e-07
-3.73391e-07
-2.90137e-07
-3.31318e-07
-2.78318e-07
-2.90902e-07
-2.64265e-07
-2.52439e-07
-2.48166e-07
-2.162e-07
-2.30244e-07
-1.82423e-07
-2.10761e-07
-1.51314e-07
-1.90015e-07
-1.23037e-07
-1.68341e-07
-9.77156e-08
-1.46109e-07
-7.54277e-08
-1.23726e-07
-5.62037e-08
-1.01632e-07
-4.00255e-08
-8.03042e-08
-2.68262e-08
-6.02535e-08
-1.6491e-08
-4.20285e-08
-8.85928e-09
-2.62152e-08
-3.7292e-09
-1.34371e-08
-8.63682e-10
-4.35469e-09
3.01002e-10
-2.56863e-09
1.1379e-08
-9.88399e-09
3.64239e-08
-2.15882e-08
6.27212e-08
-3.7347e-08
8.94599e-08
-5.68437e-08
1.16003e-07
-7.97747e-08
1.41834e-07
-1.05847e-07
1.6654e-07
-1.34777e-07
1.89809e-07
-1.66289e-07
2.11411e-07
-2.00111e-07
2.31184e-07
-2.35981e-07
2.49027e-07
-2.73642e-07
2.6488e-07
-3.12842e-07
2.78724e-07
-3.53337e-07
2.90563e-07
-3.94889e-07
3.00423e-07
-4.37263e-07
3.0834e-07
-4.80232e-07
3.14361e-07
-5.23574e-07
3.18531e-07
-5.6707e-07
3.20898e-07
-6.10507e-07
3.21508e-07
-6.53674e-07
3.204e-07
-6.96364e-07
3.17609e-07
-7.38372e-07
3.13166e-07
-7.79495e-07
3.07096e-07
-8.19534e-07
2.99421e-07
-8.5829e-07
2.9016e-07
-8.95568e-07
2.79332e-07
-9.31174e-07
2.66954e-07
-9.64917e-07
2.53048e-07
-9.96611e-07
2.37638e-07
-1.02607e-06
2.20755e-07
-1.05313e-06
2.02439e-07
-1.0776e-06
1.82738e-07
-1.09933e-06
1.61711e-07
-1.11816e-06
1.39429e-07
-1.13395e-06
1.15978e-07
-1.14657e-06
9.1458e-08
-1.1559e-06
6.59822e-08
-1.16183e-06
3.96811e-08
-1.16429e-06
1.27001e-08
-1.16319e-06
-1.48002e-08
-1.15851e-06
-4.26445e-08
-1.1502e-06
-7.06434e-08
-1.13827e-06
-9.8595e-08
-1.12274e-06
-1.26286e-07
-1.10366e-06
-1.53494e-07
-1.0811e-06
-1.79988e-07
-1.05518e-06
-2.05535e-07
-1.026e-06
-2.29896e-07
-9.9375e-07
-2.52837e-07
-9.586e-07
-2.74124e-07
-9.20771e-07
-2.93534e-07
-8.80503e-07
-3.10852e-07
-8.38067e-07
-3.25881e-07
-7.93754e-07
-3.38437e-07
-7.47877e-07
-3.48364e-07
-7.0077e-07
-3.55527e-07
-6.52784e-07
-3.59822e-07
-6.04278e-07
-3.61176e-07
-5.55625e-07
-3.59551e-07
-5.07198e-07
-3.54946e-07
-4.59374e-07
-3.474e-07
-4.1252e-07
-3.36991e-07
-3.66996e-07
-3.23842e-07
-3.23146e-07
-3.08116e-07
-2.81291e-07
-2.90021e-07
-2.4173e-07
-2.69806e-07
-2.04727e-07
-2.47764e-07
-1.70513e-07
-2.24228e-07
-1.3928e-07
-1.99574e-07
-1.11176e-07
-1.74213e-07
-8.63026e-08
-1.486e-07
-6.47136e-08
-1.23221e-07
-4.64136e-08
-9.86041e-08
-3.1358e-08
-7.53091e-08
-1.94537e-08
-5.39328e-08
-1.05621e-08
-3.51069e-08
-4.50323e-09
-1.9496e-08
-1.06257e-09
-7.79536e-09
-7.61566e-10
-2.83867e-09
1.42177e-08
-1.08939e-08
4.44791e-08
-2.37403e-08
7.55676e-08
-4.09813e-08
1.06701e-07
-6.22432e-08
1.37265e-07
-8.71725e-08
1.66763e-07
-1.15433e-07
1.948e-07
-1.46702e-07
2.21078e-07
-1.80671e-07
2.45381e-07
-2.17045e-07
2.67558e-07
-2.55536e-07
2.87518e-07
-2.95869e-07
3.05213e-07
-3.37777e-07
3.20632e-07
-3.81001e-07
3.33788e-07
-4.25293e-07
3.44714e-07
-4.70407e-07
3.53455e-07
-5.16109e-07
3.60062e-07
-5.62168e-07
3.64589e-07
-6.08358e-07
3.67088e-07
-6.54459e-07
3.67608e-07
-7.00253e-07
3.66194e-07
-7.45526e-07
3.62882e-07
-7.90068e-07
3.57708e-07
-8.3367e-07
3.50697e-07
-8.76124e-07
3.41876e-07
-9.17227e-07
3.31263e-07
-9.56775e-07
3.1888e-07
-9.94569e-07
3.04748e-07
-1.03041e-06
2.8889e-07
-1.06411e-06
2.71335e-07
-1.09547e-06
2.52117e-07
-1.12431e-06
2.31282e-07
-1.15046e-06
2.08883e-07
-1.17374e-06
1.84988e-07
-1.19398e-06
1.59677e-07
-1.21105e-06
1.33045e-07
-1.2248e-06
1.05204e-07
-1.2351e-06
7.62823e-08
-1.24184e-06
4.64245e-08
-1.24493e-06
1.57932e-08
-1.2443e-06
-1.54325e-08
-1.23989e-06
-4.70566e-08
-1.23166e-06
-7.88679e-08
-1.21962e-06
-1.10641e-07
-1.20377e-06
-1.42137e-07
-1.18415e-06
-1.73107e-07
-1.16085e-06
-2.03294e-07
-1.13395e-06
-2.32434e-07
-1.10358e-06
-2.6026e-07
-1.06991e-06
-2.86508e-07
-1.03312e-06
-3.10914e-07
-9.93432e-07
-3.33225e-07
-9.51086e-07
-3.53198e-07
-9.06361e-07
-3.70606e-07
-8.59556e-07
-3.85242e-07
-8.10998e-07
-3.96923e-07
-7.61032e-07
-4.05494e-07
-7.10023e-07
-4.10831e-07
-6.58352e-07
-4.12847e-07
-6.0641e-07
-4.11493e-07
-5.54595e-07
-4.06762e-07
-5.03304e-07
-3.9869e-07
-4.52934e-07
-3.87361e-07
-4.03871e-07
-3.72905e-07
-3.56486e-07
-3.55501e-07
-3.11132e-07
-3.35375e-07
-2.68134e-07
-3.12803e-07
-2.27788e-07
-2.88109e-07
-1.90354e-07
-2.61662e-07
-1.56052e-07
-2.33876e-07
-1.25057e-07
-2.05208e-07
-9.74984e-08
-1.76158e-07
-7.34559e-08
-1.47264e-07
-5.29588e-08
-1.19101e-07
-3.59861e-08
-9.22819e-08
-2.24673e-08
-6.74515e-08
-1.22856e-08
-4.52886e-08
-5.28174e-09
-2.64998e-08
-1.26071e-09
-1.18164e-08
-2.02228e-09
-3.09978e-09
1.73175e-08
-1.18721e-08
5.32514e-08
-2.58281e-08
8.95236e-08
-4.45114e-08
1.25384e-07
-6.74943e-08
1.60248e-07
-9.43744e-08
1.93643e-07
-1.24772e-07
2.25198e-07
-1.58329e-07
2.54635e-07
-1.94705e-07
2.81756e-07
-2.33576e-07
3.06429e-07
-2.74633e-07
3.28575e-07
-3.17582e-07
3.48162e-07
-3.62139e-07
3.65189e-07
-4.08034e-07
3.79683e-07
-4.55005e-07
3.91685e-07
-5.028e-07
4.0125e-07
-5.51174e-07
4.08436e-07
-5.99889e-07
4.13305e-07
-6.48713e-07
4.15913e-07
-6.97421e-07
4.16316e-07
-7.45787e-07
4.1456e-07
-7.93595e-07
4.1069e-07
-8.40626e-07
4.04739e-07
-8.86667e-07
3.96738e-07
-9.31505e-07
3.86714e-07
-9.74931e-07
3.74689e-07
-1.01674e-06
3.60685e-07
-1.05671e-06
3.44726e-07
-1.09466e-06
3.26838e-07
-1.13038e-06
3.07052e-07
-1.16367e-06
2.85409e-07
-1.19435e-06
2.61957e-07
-1.22222e-06
2.36756e-07
-1.24711e-06
2.09881e-07
-1.26886e-06
1.8142e-07
-1.28729e-06
1.51481e-07
-1.30227e-06
1.20184e-07
-1.31366e-06
8.76729e-08
-1.32134e-06
5.41064e-08
-1.32521e-06
1.9664e-08
-1.32519e-06
-1.54566e-08