/*--------------------------------*- C++ -*----------------------------------*\
| =========                 |                                                 |
| \\      /  F ield         | OpenFOAM: The Open Source CFD Toolbox           |
|  \\    /   O peration     | Version:  2506                                  |
|   \\  /    A nd           | Website:  www.openfoam.com                      |
|    \\/     M anipulation  |                                                 |
\*---------------------------------------------------------------------------*/
FoamFile
{
    version     2.0;
    format      ascii;
    arch        "LSB;label=32;scalar=64";
    class       volVectorField;
    location    "1.875";
    object      U;
}
// * * * * * * * * * * * * * * * * * * * * * * * * * * * * * * * * * * * * * //

dimensions      [0 1 -1 0 0 0 0];

internalField   nonuniform List<vector> 
6400
(
(8.75699e-06 -8.7326e-06 0)
(3.41227e-05 -1.60685e-05 0)
(6.46882e-05 -1.47348e-05 0)
(8.36268e-05 -8.94734e-06 0)
(8.24472e-05 -1.4018e-06 0)
(5.83966e-05 6.54765e-06 0)
(1.10968e-05 1.42366e-05 0)
(-5.86065e-05 2.13549e-05 0)
(-0.000149173 2.7772e-05 0)
(-0.000258711 3.34494e-05 0)
(-0.000385192 3.83974e-05 0)
(-0.000526565 4.26516e-05 0)
(-0.000680833 4.62604e-05 0)
(-0.000846091 4.92747e-05 0)
(-0.00102055 5.17483e-05 0)
(-0.00120255 5.37309e-05 0)
(-0.00139054 5.52668e-05 0)
(-0.0015831 5.63985e-05 0)
(-0.0017789 5.71606e-05 0)
(-0.00197671 5.75815e-05 0)
(-0.00217535 5.76842e-05 0)
(-0.00237374 5.74854e-05 0)
(-0.00257081 5.6997e-05 0)
(-0.00276553 5.62257e-05 0)
(-0.00295691 5.51751e-05 0)
(-0.00314393 5.38448e-05 0)
(-0.00332562 5.22318e-05 0)
(-0.00350095 5.03317e-05 0)
(-0.00366892 4.81383e-05 0)
(-0.00382852 4.56462e-05 0)
(-0.0039787 4.285e-05 0)
(-0.00411844 3.97461e-05 0)
(-0.00424671 3.63327e-05 0)
(-0.00436248 3.2611e-05 0)
(-0.00446475 2.85855e-05 0)
(-0.00455254 2.42647e-05 0)
(-0.00462494 1.96613e-05 0)
(-0.00468105 1.47927e-05 0)
(-0.0047201 9.68185e-06 0)
(-0.00474138 4.35674e-06 0)
(-0.00474428 -1.14919e-06 0)
(-0.00472833 -6.79697e-06 0)
(-0.00469319 -1.25425e-05 0)
(-0.00463868 -1.83369e-05 0)
(-0.00456479 -2.41269e-05 0)
(-0.00447167 -2.98548e-05 0)
(-0.00435969 -3.54601e-05 0)
(-0.00422941 -4.08796e-05 0)
(-0.00408158 -4.60486e-05 0)
(-0.00391717 -5.0902e-05 0)
(-0.00373736 -5.53751e-05 0)
(-0.00354352 -5.94048e-05 0)
(-0.00333722 -6.29315e-05 0)
(-0.0031202 -6.58994e-05 0)
(-0.00289439 -6.82583e-05 0)
(-0.00266183 -6.99645e-05 0)
(-0.00242472 -7.09817e-05 0)
(-0.00218534 -7.12821e-05 0)
(-0.00194604 -7.0847e-05 0)
(-0.00170921 -6.96671e-05 0)
(-0.00147725 -6.77436e-05 0)
(-0.00125255 -6.50883e-05 0)
(-0.00103742 -6.17229e-05 0)
(-0.000834088 -5.76798e-05 0)
(-0.000644655 -5.3001e-05 0)
(-0.000471066 -4.77382e-05 0)
(-0.000315071 -4.19523e-05 0)
(-0.000178197 -3.57137e-05 0)
(-6.17073e-05 -2.9103e-05 0)
(3.34287e-05 -2.22128e-05 0)
(0.000106588 -1.51491e-05 0)
(0.000157551 -8.04054e-06 0)
(0.000186578 -1.04962e-06 0)
(0.00019453 5.60511e-06 0)
(0.000183056 1.16085e-05 0)
(0.000154884 1.6479e-05 0)
(0.000114198 1.94624e-05 0)
(6.73952e-05 1.93301e-05 0)
(2.53397e-05 1.42387e-05 0)
(3.62084e-06 3.6337e-06 0)
(1.61911e-05 -3.41628e-05 0)
(5.49371e-05 -5.46965e-05 0)
(8.93756e-05 -4.17879e-05 0)
(9.14189e-05 -1.01246e-05 0)
(4.5059e-05 3.0629e-05 0)
(-5.66676e-05 7.46811e-05 0)
(-0.000215959 0.000118626 0)
(-0.000431966 0.000160512 0)
(-0.000701869 0.000199268 0)
(-0.00102166 0.000234357 0)
(-0.00138669 0.000265569 0)
(-0.00179201 0.000292896 0)
(-0.00223262 0.000316447 0)
(-0.00270363 0.000336404 0)
(-0.00320031 0.000352981 0)
(-0.00371816 0.000366405 0)
(-0.00425296 0.000376895 0)
(-0.0048007 0.000384658 0)
(-0.00535764 0.000389879 0)
(-0.00592022 0.000392713 0)
(-0.00648509 0.000393292 0)
(-0.00704903 0.000391716 0)
(-0.00760895 0.00038806 0)
(-0.00816183 0.000382374 0)
(-0.00870473 0.000374686 0)
(-0.00923472 0.00036501 0)
(-0.0097489 0.000353343 0)
(-0.0102444 0.000339675 0)
(-0.0107183 0.000323991 0)
(-0.0111677 0.000306277 0)
(-0.0115896 0.000286524 0)
(-0.0119813 0.000264731 0)
(-0.0123398 0.000240914 0)
(-0.0126624 0.000215103 0)
(-0.0129462 0.000187352 0)
(-0.0131887 0.000157737 0)
(-0.0133873 0.000126362 0)
(-0.0135398 9.33602e-05 0)
(-0.0136441 5.88957e-05 0)
(-0.0136982 2.31638e-05 0)
(-0.0137008 -1.36082e-05 0)
(-0.0136507 -5.11611e-05 0)
(-0.013547 -8.92055e-05 0)
(-0.0133894 -0.000127424 0)
(-0.0131779 -0.000165474 0)
(-0.0129132 -0.000202991 0)
(-0.0125964 -0.000239592 0)
(-0.0122291 -0.000274881 0)
(-0.0118135 -0.000308456 0)
(-0.0113523 -0.000339915 0)
(-0.0108489 -0.000368861 0)
(-0.0103069 -0.000394908 0)
(-0.00973074 -0.000417691 0)
(-0.00912521 -0.000436874 0)
(-0.0084955 -0.000452153 0)
(-0.00784723 -0.000463264 0)
(-0.00718632 -0.000469993 0)
(-0.00651894 -0.000472174 0)
(-0.00585145 -0.000469702 0)
(-0.0051903 -0.00046253 0)
(-0.00454195 -0.000450676 0)
(-0.0039128 -0.00043422 0)
(-0.00330907 -0.000413313 0)
(-0.00273672 -0.00038817 0)
(-0.00220138 -0.000359072 0)
(-0.00170821 -0.000326366 0)
(-0.00126184 -0.000290466 0)
(-0.000866277 -0.000251854 0)
(-0.000524764 -0.000211086 0)
(-0.000239706 -0.000168805 0)
(-1.25193e-05 -0.000125755 0)
(0.000156525 -8.28174e-05 0)
(0.000268507 -4.10675e-05 0)
(0.000326133 -1.86185e-06 0)
(0.000334116 3.30208e-05 0)
(0.000299684 6.11713e-05 0)
(0.000233046 7.92802e-05 0)
(0.000148119 8.27722e-05 0)
(6.5664e-05 6.57977e-05 0)
(1.41212e-05 2.52524e-05 0)
(1.50502e-05 -6.50855e-05 0)
(4.25302e-05 -8.93586e-05 0)
(4.64567e-05 -4.5755e-05 0)
(-3.57261e-06 3.79411e-05 0)
(-0.000125791 0.000143206 0)
(-0.000329147 0.000257634 0)
(-0.000616948 0.000373146 0)
(-0.000988511 0.000484649 0)
(-0.00144036 0.000589056 0)
(-0.00196719 0.000684606 0)
(-0.0025626 0.000770416 0)
(-0.00321958 0.000846181 0)
(-0.00393086 0.000911966 0)
(-0.0046892 0.000968071 0)
(-0.00548748 0.00101493 0)
(-0.00631885 0.00105303 0)
(-0.00717674 0.0010829 0)
(-0.00805492 0.00110502 0)
(-0.00894745 0.00111985 0)
(-0.00984868 0.00112778 0)
(-0.0107532 0.00112914 0)
(-0.0116558 0.00112421 0)
(-0.0125515 0.00111319 0)
(-0.0134354 0.00109622 0)
(-0.0143027 0.00107339 0)
(-0.0151487 0.00104476 0)
(-0.0159687 0.00101034 0)
(-0.0167579 0.000970131 0)
(-0.0175119 0.00092412 0)
(-0.0182258 0.0008723 0)
(-0.0188952 0.000814678 0)
(-0.0195155 0.000751291 0)
(-0.0200821 0.000682212 0)
(-0.0205906 0.000607563 0)
(-0.0210369 0.000527524 0)
(-0.0214169 0.000442343 0)
(-0.0217267 0.00035234 0)
(-0.0219629 0.000257914 0)
(-0.0221223 0.000159546 0)
(-0.0222022 5.7802e-05 0)
(-0.0222004 -4.66675e-05 0)
(-0.0221151 -0.000153128 0)
(-0.0219453 -0.000260766 0)
(-0.0216906 -0.000368693 0)
(-0.0213513 -0.000475957 0)
(-0.0209285 -0.000581546 0)
(-0.0204239 -0.000684407 0)
(-0.0198403 -0.000783455 0)
(-0.0191811 -0.000877587 0)
(-0.0184507 -0.000965706 0)
(-0.0176542 -0.00104673 0)
(-0.0167976 -0.00111961 0)
(-0.0158876 -0.00118337 0)
(-0.0149317 -0.00123709 0)
(-0.0139379 -0.00127995 0)
(-0.0129148 -0.00131125 0)
(-0.0118717 -0.00133041 0)
(-0.010818 -0.00133699 0)
(-0.00976355 -0.00133071 0)
(-0.00871816 -0.00131147 0)
(-0.00769179 -0.00127931 0)
(-0.00669424 -0.00123449 0)
(-0.00573506 -0.00117742 0)
(-0.00482337 -0.00110871 0)
(-0.00396775 -0.00102917 0)
(-0.00317607 -0.000939775 0)
(-0.00245539 -0.000841704 0)
(-0.00181173 -0.000736331 0)
(-0.00124995 -0.000625249 0)
(-0.000773603 -0.000510292 0)
(-0.000384672 -0.000393584 0)
(-8.33884e-05 -0.000277612 0)
(0.000132061 -0.000165342 0)
(0.000265871 -6.0392e-05 0)
(0.000325055 3.27291e-05 0)
(0.000319938 0.000108302 0)
(0.000264505 0.000159059 0)
(0.000176847 0.000175907 0)
(8.2931e-05 0.000148246 0)
(1.91793e-05 6.70861e-05 0)
(9.44092e-06 -8.46991e-05 0)
(1.10012e-05 -9.173e-05 0)
(-3.78947e-05 4.31365e-06 0)
(-0.000163946 0.000162858 0)
(-0.000384287 0.000356554 0)
(-0.000708079 0.000566105 0)
(-0.00113869 0.000778227 0)
(-0.00167516 0.00098409 0)
(-0.00231339 0.00117803 0)
(-0.00304709 0.00135659 0)
(-0.00386854 0.00151786 0)
(-0.00476916 0.00166098 0)
(-0.00573997 0.00178583 0)
(-0.00677182 0.00189273 0)
(-0.00785567 0.00198229 0)
(-0.00898269 0.00205529 0)
(-0.0101443 0.00211257 0)
(-0.0113324 0.00215494 0)
(-0.0125391 0.00218319 0)
(-0.0137567 0.002198 0)
(-0.0149781 0.00219997 0)
(-0.0161963 0.00218958 0)
(-0.0174043 0.00216721 0)
(-0.0185957 0.00213312 0)
(-0.0197639 0.00208752 0)
(-0.0209025 0.00203051 0)
(-0.022005 0.00196215 0)
(-0.0230653 0.00188248 0)
(-0.024077 0.00179151 0)
(-0.025034 0.00168927 0)
(-0.02593 0.00157582 0)
(-0.026759 0.00145128 0)
(-0.0275151 0.00131583 0)
(-0.0281924 0.00116975 0)
(-0.0287855 0.00101343 0)
(-0.029289 0.000847394 0)
(-0.029698 0.000672283 0)
(-0.0300079 0.000488896 0)
(-0.0302149 0.000298185 0)
(-0.0303154 0.000101255 0)
(-0.0303067 -0.000100631 0)
(-0.0301867 -0.00030606 0)
(-0.0299541 -0.000513471 0)
(-0.0296086 -0.000721172 0)
(-0.0291508 -0.000927351 0)
(-0.0285821 -0.00113009 0)
(-0.0279052 -0.00132741 0)
(-0.0271236 -0.00151726 0)
(-0.0262421 -0.00169757 0)
(-0.0252663 -0.00186628 0)
(-0.0242033 -0.00202137 0)
(-0.0230607 -0.00216089 0)
(-0.0218474 -0.00228299 0)
(-0.0205732 -0.00238598 0)
(-0.0192486 -0.00246833 0)
(-0.0178849 -0.00252874 0)
(-0.016494 -0.00256614 0)
(-0.0150882 -0.00257972 0)
(-0.0136804 -0.00256896 0)
(-0.0122833 -0.00253368 0)
(-0.0109098 -0.00247401 0)
(-0.0095727 -0.0023904 0)
(-0.00828432 -0.00228369 0)
(-0.0070565 -0.00215503 0)
(-0.00590036 -0.00200597 0)
(-0.0048261 -0.00183839 0)
(-0.0038428 -0.00165455 0)
(-0.00295824 -0.00145709 0)
(-0.00217868 -0.00124908 0)
(-0.00150861 -0.00103403 0)
(-0.000950566 -0.00081598 0)
(-0.000504819 -0.000599621 0)
(-0.000169084 -0.000390446 0)
(6.18214e-05 -0.000194986 0)
(0.000196382 -2.11146e-05 0)
(0.000246829 0.000121582 0)
(0.000229361 0.000221425 0)
(0.000164492 0.000264416 0)
(8.10549e-05 0.000234442 0)
(1.95234e-05 0.000114032 0)
(1.9177e-06 -8.41662e-05 0)
(-3.06822e-05 -4.47035e-05 0)
(-0.000146873 0.000128508 0)
(-0.000365458 0.00038438 0)
(-0.000700056 0.000687727 0)
(-0.00115864 0.0010129 0)
(-0.00174367 0.0013416 0)
(-0.00245332 0.00166119 0)
(-0.00328263 0.00196324 0)
(-0.00422434 0.00224238 0)
(-0.00526959 0.00249543 0)
(-0.00640853 0.00272083 0)
(-0.00763074 0.00291807 0)
(-0.00892556 0.00308742 0)
(-0.0102823 0.00322961 0)
(-0.0116906 0.00334564 0)
(-0.0131401 0.00343667 0)
(-0.0146209 0.00350385 0)
(-0.0161235 0.00354829 0)
(-0.0176387 0.00357101 0)
(-0.0191575 0.00357288 0)
(-0.0206712 0.00355462 0)
(-0.0221714 0.00351681 0)
(-0.0236499 0.00345987 0)
(-0.0250986 0.00338413 0)
(-0.0265095 0.00328979 0)
(-0.0278747 0.00317697 0)
(-0.0291864 0.00304577 0)
(-0.0304369 0.00289627 0)
(-0.0316184 0.00272856 0)
(-0.0327235 0.00254281 0)
(-0.0337446 0.00233925 0)
(-0.0346747 0.00211825 0)
(-0.0355066 0.00188032 0)
(-0.0362336 0.00162614 0)
(-0.0368494 0.00135658 0)
(-0.0373482 0.00107275 0)
(-0.0377245 0.000775952 0)
(-0.0379737 0.000467748 0)
(-0.0380916 0.000149934 0)
(-0.0380751 -0.000175456 0)
(-0.0379219 -0.00050615 0)
(-0.0376306 -0.000839658 0)
(-0.0372009 -0.00117328 0)
(-0.0366337 -0.00150415 0)
(-0.0359308 -0.00182924 0)
(-0.0350957 -0.00214541 0)
(-0.0341327 -0.00244943 0)
(-0.0330477 -0.00273807 0)
(-0.0318477 -0.00300808 0)
(-0.0305409 -0.00325629 0)
(-0.0291369 -0.00347965 0)
(-0.0276463 -0.0036753 0)
(-0.026081 -0.00384056 0)
(-0.0244535 -0.00397307 0)
(-0.0227775 -0.0040708 0)
(-0.0210672 -0.00413206 0)
(-0.0193376 -0.00415563 0)
(-0.0176038 -0.0041407 0)
(-0.0158812 -0.00408699 0)
(-0.0141854 -0.00399472 0)
(-0.0125316 -0.00386463 0)
(-0.0109346 -0.00369805 0)
(-0.00940859 -0.00349683 0)
(-0.00796691 -0.00326342 0)
(-0.0066218 -0.00300083 0)
(-0.00538413 -0.00271266 0)
(-0.00426324 -0.00240314 0)
(-0.00326663 -0.00207712 0)
(-0.00239974 -0.00174017 0)
(-0.00166566 -0.00139867 0)
(-0.00106489 -0.00105991 0)
(-0.000594976 -0.000732326 0)
(-0.000250252 -0.000425749 0)
(-2.1445e-05 -0.000151722 0)
(0.000104675 7.60823e-05 0)
(0.000145469 0.000241443 0)
(0.000122753 0.000325311 0)
(6.63775e-05 0.000305651 0)
(1.71058e-05 0.000156084 0)
(-6.28579e-06 -6.00244e-05 0)
(-7.73418e-05 6.06103e-05 0)
(-0.000269598 0.000338811 0)
(-0.000591524 0.000715744 0)
(-0.00105157 0.00114979 0)
(-0.00165541 0.00160983 0)
(-0.00240374 0.00207303 0)
(-0.00329329 0.00252321 0)
(-0.00431789 0.00294922 0)
(-0.00546915 0.00334372 0)
(-0.0067371 0.00370223 0)
(-0.00811071 0.00402231 0)
(-0.00957832 0.00430302 0)
(-0.011128 0.00454448 0)
(-0.0127476 0.00474745 0)
(-0.0144254 0.00491316 0)
(-0.0161497 0.00504302 0)
(-0.017909 0.0051385 0)
(-0.0196923 0.00520107 0)
(-0.0214889 0.00523203 0)
(-0.0232884 0.00523257 0)
(-0.0250806 0.00520365 0)
(-0.0268557 0.00514607 0)
(-0.0286039 0.00506045 0)
(-0.0303156 0.00494722 0)
(-0.0319815 0.00480671 0)
(-0.0335923 0.00463915 0)
(-0.0351387 0.00444472 0)
(-0.0366118 0.00422359 0)
(-0.0380024 0.00397597 0)
(-0.0393019 0.00370217 0)
(-0.0405015 0.00340261 0)
(-0.0415929 0.00307788 0)
(-0.042568 0.00272881 0)
(-0.043419 0.00235644 0)
(-0.0441387 0.00196212 0)
(-0.0447203 0.00154747 0)
(-0.0451577 0.00111446 0)
(-0.0454457 0.000665365 0)
(-0.0455797 0.000202813 0)
(-0.0455561 -0.000270239 0)
(-0.0453723 -0.00075051 0)
(-0.0450271 -0.00123441 0)
(-0.0445201 -0.00171807 0)
(-0.0438525 -0.00219738 0)
(-0.0430267 -0.00266802 0)
(-0.0420465 -0.0031255 0)
(-0.0409172 -0.00356526 0)
(-0.0396456 -0.00398267 0)
(-0.0382396 -0.00437315 0)
(-0.0367091 -0.0047322 0)
(-0.0350648 -0.00505551 0)
(-0.0333191 -0.005339 0)
(-0.0314854 -0.00557893 0)
(-0.0295784 -0.00577194 0)
(-0.0276135 -0.00591514 0)
(-0.0256071 -0.0060062 0)
(-0.0235763 -0.00604334 0)
(-0.0215385 -0.00602547 0)
(-0.0195114 -0.00595217 0)
(-0.0175126 -0.00582378 0)
(-0.0155598 -0.00564138 0)
(-0.0136698 -0.00540684 0)
(-0.011859 -0.00512284 0)
(-0.0101426 -0.00479288 0)
(-0.00853482 -0.00442128 0)
(-0.00704808 -0.00401319 0)
(-0.00569318 -0.00357467 0)
(-0.00447884 -0.00311264 0)
(-0.00341146 -0.00263503 0)
(-0.00249482 -0.00215083 0)
(-0.00172981 -0.00167028 0)
(-0.00111418 -0.00120503 0)
(-0.000642183 -0.000768432 0)
(-0.000304331 -0.000375891 0)
(-8.70825e-05 -4.52626e-05 0)
(2.73129e-05 0.00020267 0)
(6.11079e-05 0.000343824 0)
(4.36707e-05 0.000350346 0)
(1.32022e-05 0.000187895 0)
(-1.45951e-05 -1.08856e-05 0)
(-0.000126047 0.000229019 0)
(-0.000399193 0.000642519 0)
(-0.000831012 0.00116556 0)
(-0.00142376 0.00175162 0)
(-0.00218002 0.00236514 0)
(-0.00309801 0.00297949 0)
(-0.00417247 0.00357533 0)
(-0.00539566 0.00413907 0)
(-0.00675784 0.00466154 0)
(-0.00824783 0.00513692 0)
(-0.00985342 0.00556195 0)
(-0.0115618 0.0059352 0)
(-0.0133598 0.00625658 0)
(-0.0152343 0.00652689 0)
(-0.0171721 0.00674747 0)
(-0.0191602 0.00692 0)
(-0.0211861 0.00704626 0)
(-0.0232373 0.00712802 0)
(-0.0253018 0.0071669 0)
(-0.0273679 0.00716437 0)
(-0.0294241 0.00712166 0)
(-0.0314591 0.00703979 0)
(-0.0334621 0.00691955 0)
(-0.035422 0.00676155 0)
(-0.0373282 0.00656625 0)
(-0.0391702 0.00633399 0)
(-0.0409374 0.00606508 0)
(-0.0426196 0.00575981 0)
(-0.0442067 0.00541854 0)
(-0.0456887 0.00504177 0)
(-0.0470558 0.00463017 0)
(-0.0482986 0.00418462 0)
(-0.0494081 0.00370631 0)
(-0.0503755 0.00319675 0)
(-0.0511929 0.00265783 0)
(-0.0518527 0.00209181 0)
(-0.0523482 0.0015014 0)
(-0.0526736 0.000889721 0)
(-0.0528239 0.000260349 0)
(-0.0527952 -0.000382707 0)
(-0.0525847 -0.00103502 0)
(-0.0521911 -0.00169175 0)
(-0.0516143 -0.00234771 0)
(-0.0508554 -0.0029974 0)
(-0.0499174 -0.00363504 0)
(-0.0488045 -0.00425466 0)
(-0.0475227 -0.00485017 0)
(-0.0460796 -0.00541541 0)
(-0.0444842 -0.0059443 0)
(-0.0427473 -0.00643086 0)
(-0.0408809 -0.00686937 0)
(-0.0388988 -0.00725442 0)
(-0.036816 -0.00758103 0)
(-0.0346487 -0.00784476 0)
(-0.0324141 -0.00804178 0)
(-0.0301304 -0.00816897 0)
(-0.0278166 -0.00822399 0)
(-0.0254921 -0.00820538 0)
(-0.0231765 -0.0081126 0)
(-0.0208896 -0.00794607 0)
(-0.0186509 -0.00770724 0)
(-0.0164794 -0.00739862 0)
(-0.0143932 -0.00702378 0)
(-0.0124094 -0.00658739 0)
(-0.010544 -0.00609521 0)
(-0.00881092 -0.00555414 0)
(-0.00722242 -0.00497223 0)
(-0.00578843 -0.00435871 0)
(-0.00451638 -0.00372409 0)
(-0.00341089 -0.00308022 0)
(-0.0024735 -0.00244046 0)
(-0.00170242 -0.00181989 0)
(-0.00109223 -0.00123554 0)
(-0.000633678 -0.000706747 0)
(-0.000313459 -0.000255573 0)
(-0.000114038 9.27196e-05 0)
(-1.34123e-05 0.000309217 0)
(1.6185e-05 0.000360722 0)
(8.56261e-06 0.000206368 0)
(-2.27556e-05 6.36184e-05 0)
(-0.000175173 0.000462795 0)
(-0.00053142 0.00104366 0)
(-0.00107663 0.00173898 0)
(-0.00180634 0.00249879 0)
(-0.00271945 0.0032842 0)
(-0.00381121 0.00406555 0)
(-0.00507392 0.00482093 0)
(-0.0064979 0.00553468 0)
(-0.00807183 0.00619599 0)
(-0.00978318 0.00679791 0)
(-0.0116185 0.00733638 0)
(-0.0135639 0.00780953 0)
(-0.015605 0.00821706 0)
(-0.0177276 0.00855977 0)
(-0.0199174 0.00883914 0)
(-0.0221604 0.00905707 0)
(-0.0244427 0.00921561 0)
(-0.026751 0.00931685 0)
(-0.0290719 0.0093627 0)
(-0.0313926 0.00935491 0)
(-0.0337005 0.00929496 0)
(-0.035983 0.00918411 0)
(-0.0382281 0.00902333 0)
(-0.0404237 0.00881341 0)
(-0.0425579 0.00855494 0)
(-0.0446191 0.00824841 0)
(-0.0465956 0.00789427 0)
(-0.0484761 0.00749297 0)
(-0.0502493 0.00704508 0)
(-0.0519043 0.0065513 0)
(-0.0534304 0.0060126 0)
(-0.0548171 0.00543022 0)
(-0.0560545 0.00480579 0)
(-0.0571333 0.00414135 0)
(-0.0580445 0.00343939 0)
(-0.0587799 0.00270291 0)
(-0.0593325 0.00193545 0)
(-0.0596956 0.00114109 0)
(-0.059864 0.000324442 0)
(-0.0598336 -0.000509306 0)
(-0.0596014 -0.00135446 0)
(-0.0591658 -0.00220483 0)
(-0.0585269 -0.00305376 0)
(-0.0576861 -0.00389423 0)
(-0.0566464 -0.00471888 0)
(-0.0554126 -0.0055201 0)
(-0.0539913 -0.00629014 0)
(-0.0523906 -0.00702119 0)
(-0.0506203 -0.00770551 0)
(-0.0486923 -0.00833552 0)
(-0.0466196 -0.00890395 0)
(-0.0444172 -0.00940393 0)
(-0.0421013 -0.00982915 0)
(-0.0396896 -0.010174 0)
(-0.0372009 -0.0104335 0)
(-0.034655 -0.0106037 0)
(-0.0320724 -0.0106817 0)
(-0.0294744 -0.0106656 0)
(-0.0268826 -0.0105547 0)
(-0.0243183 -0.0103495 0)
(-0.0218031 -0.0100517 0)
(-0.0193577 -0.00966468 0)
(-0.0170021 -0.00919283 0)
(-0.0147553 -0.00864212 0)
(-0.0126346 -0.00801985 0)
(-0.0106557 -0.00733481 0)
(-0.00883228 -0.00659719 0)
(-0.00717557 -0.0058187 0)
(-0.00569415 -0.00501257 0)
(-0.00439365 -0.0041937 0)
(-0.00327646 -0.00337872 0)
(-0.00234155 -0.00258626 0)
(-0.00158415 -0.00183711 0)
(-0.000995644 -0.00115458 0)
(-0.000563383 -0.000564861 0)
(-0.000270526 -9.75494e-05 0)
(-9.58534e-05 0.000213941 0)
(-1.39381e-05 0.000331705 0)
(3.62601e-06 0.000209772 0)
(-3.0665e-05 0.000163292 0)
(-0.000223836 0.000762578 0)
(-0.000663707 0.00154395 0)
(-0.00132367 0.0024386 0)
(-0.00219232 0.00339441 0)
(-0.00326457 0.00437016 0)
(-0.0045323 0.005334 0)
(-0.00598503 0.00626207 0)
(-0.00761085 0.00713706 0)
(-0.00939665 0.00794691 0)
(-0.0113284 0.00868369 0)
(-0.0133913 0.00934273 0)
(-0.0155702 0.00992178 0)
(-0.0178499 0.0104204 0)
(-0.0202148 0.0108394 0)
(-0.0226499 0.0111803 0)
(-0.02514 0.0114454 0)
(-0.0276704 0.0116369 0)
(-0.0302265 0.0117573 0)
(-0.0327941 0.0118086 0)
(-0.0353593 0.011793 0)
(-0.0379083 0.0117121 0)
(-0.0404278 0.0115675 0)
(-0.0429045 0.0113603 0)
(-0.0453253 0.0110914 0)
(-0.0476774 0.0107617 0)
(-0.049948 0.0103718 0)
(-0.0521244 0.00992217 0)
(-0.0541945 0.00941362 0)
(-0.0561459 0.00884687 0)
(-0.0579667 0.0082229 0)
(-0.0596454 0.00754302 0)
(-0.0611707 0.00680887 0)
(-0.062532 0.00602257 0)
(-0.0637189 0.00518675 0)
(-0.064722 0.00430459 0)
(-0.0655326 0.0033799 0)
(-0.0661428 0.00241713 0)
(-0.0665458 0.00142138 0)
(-0.0667357 0.000398434 0)
(-0.0667083 -0.000645282 0)
(-0.0664602 -0.0017027 0)
(-0.06599 -0.00276616 0)
(-0.0652974 -0.00382745 0)
(-0.0643841 -0.0048779 0)
(-0.0632533 -0.00590845 0)
(-0.0619102 -0.00690974 0)
(-0.0603614 -0.00787225 0)
(-0.0586159 -0.00878637 0)
(-0.0566842 -0.00964259 0)
(-0.0545787 -0.0104316 0)
(-0.0523135 -0.0111445 0)
(-0.0499045 -0.0117728 0)
(-0.047369 -0.0123087 0)
(-0.0447261 -0.0127453 0)
(-0.0419958 -0.0130766 0)
(-0.0391993 -0.0132976 0)
(-0.036359 -0.0134046 0)
(-0.0334975 -0.0133953 0)
(-0.030638 -0.0132688 0)
(-0.0278038 -0.0130256 0)
(-0.0250181 -0.012668 0)
(-0.0223035 -0.0121997 0)
(-0.0196816 -0.0116263 0)
(-0.0171732 -0.010955 0)
(-0.0147973 -0.0101949 0)
(-0.0125712 -0.00935647 0)
(-0.01051 -0.00845238 0)
(-0.00862646 -0.00749686 0)
(-0.0069304 -0.00650602 0)
(-0.00542865 -0.00549789 0)
(-0.0041247 -0.00449253 0)
(-0.00301851 -0.00351215 0)
(-0.00210627 -0.00258138 0)
(-0.00138032 -0.00172745 0)
(-0.000829005 -0.000980631 0)
(-0.000436548 -0.000374641 0)
(-0.000182881 5.29711e-05 0)
(-4.53463e-05 0.000260236 0)
(-1.36322e-06 0.000197267 0)
(-3.82908e-05 0.000287652 0)
(-0.000271567 0.00112799 0)
(-0.000794508 0.00214358 0)
(-0.0015691 0.0032652 0)
(-0.00257699 0.00443964 0)
(-0.00380896 0.00562434 0)
(-0.00525326 0.00678602 0)
(-0.00689641 0.00789951 0)
(-0.00872403 0.00894635 0)
(-0.010721 0.00991357 0)
(-0.0128717 0.0107926 0)
(-0.0151598 0.0115783 0)
(-0.0175691 0.0122682 0)
(-0.020083 0.0128617 0)
(-0.0226853 0.0133599 0)
(-0.0253598 0.0137644 0)
(-0.0280903 0.0140776 0)
(-0.0308614 0.0143021 0)
(-0.0336574 0.0144406 0)
(-0.0364634 0.0144955 0)
(-0.0392644 0.0144692 0)
(-0.0420459 0.0143636 0)
(-0.0447935 0.0141803 0)
(-0.047493 0.0139209 0)
(-0.0501304 0.0135863 0)
(-0.052692 0.0131776 0)
(-0.0551641 0.0126955 0)
(-0.0575332 0.0121408 0)
(-0.059786 0.0115145 0)
(-0.0619096 0.0108174 0)
(-0.0638911 0.0100509 0)
(-0.0657182 0.0092167 0)
(-0.0673789 0.00831686 0)
(-0.0688617 0.00735404 0)
(-0.0701557 0.0063315 0)
(-0.0712509 0.00525319 0)
(-0.0721378 0.00412377 0)
(-0.072808 0.00294866 0)
(-0.0732544 0.00173409 0)
(-0.0734707 0.000487036 0)
(-0.0734521 -0.00078472 0)
(-0.0731953 -0.00207266 0)
(-0.0726984 -0.00336756 0)
(-0.0719613 -0.00465957 0)
(-0.0709854 -0.00593828 0)
(-0.0697742 -0.00719281 0)
(-0.0683328 -0.00841197 0)
(-0.0666685 -0.00958433 0)
(-0.0647904 -0.0106984 0)
(-0.0627094 -0.0117428 0)
(-0.0604388 -0.0127063 0)
(-0.0579932 -0.0135782 0)
(-0.0553894 -0.0143484 0)
(-0.0526459 -0.0150076 0)
(-0.0497825 -0.0155473 0)
(-0.0468207 -0.0159603 0)
(-0.0437829 -0.0162406 0)
(-0.0406929 -0.0163837 0)
(-0.0375748 -0.0163867 0)
(-0.0344535 -0.0162484 0)
(-0.031354 -0.0159694 0)
(-0.0283011 -0.0155522 0)
(-0.025319 -0.0150013 0)
(-0.0224314 -0.0143232 0)
(-0.0196607 -0.0135265 0)
(-0.0170275 -0.0126219 0)
(-0.014551 -0.0116221 0)
(-0.0122479 -0.0105419 0)
(-0.0101323 -0.00939831 0)
(-0.00821573 -0.00821037 0)
(-0.00650627 -0.00699937 0)
(-0.00500877 -0.00578883 0)
(-0.00372442 -0.00460464 0)
(-0.00265065 -0.00347524 0)
(-0.00178098 -0.0024318 0)
(-0.00110505 -0.00150856 0)
(-0.000608416 -0.000743162 0)
(-0.000272378 -0.000176948 0)
(-7.72351e-05 0.000144592 0)
(-6.27896e-06 0.000168546 0)
(-4.56325e-05 0.000436079 0)
(-0.000318125 0.00155807 0)
(-0.0009229 0.00284168 0)
(-0.00181096 0.00421819 0)
(-0.00295719 0.00563421 0)
(-0.00434812 0.00704662 0)
(-0.00596831 0.00842145 0)
(-0.00780108 0.00973285 0)
(-0.00982945 0.0109617 0)
(-0.0120362 0.0120946 0)
(-0.0144037 0.0131225 0)
(-0.0169144 0.0140402 0)
(-0.0195507 0.0148451 0)
(-0.022295 0.0155367 0)
(-0.0251299 0.0161161 0)
(-0.0280383 0.0165854 0)
(-0.0310034 0.016947 0)
(-0.0340087 0.0172041 0)
(-0.0370378 0.0173593 0)
(-0.040075 0.0174156 0)
(-0.0431045 0.0173755 0)
(-0.046111 0.0172412 0)
(-0.0490792 0.0170146 0)
(-0.0519943 0.0166973 0)
(-0.0548414 0.0162905 0)
(-0.0576058 0.0157954 0)
(-0.0602732 0.015213 0)
(-0.0628293 0.0145442 0)
(-0.0652601 0.0137901 0)
(-0.0675516 0.012952 0)
(-0.0696905 0.0120316 0)
(-0.0716636 0.0110309 0)
(-0.0734582 0.00995241 0)
(-0.0750621 0.00879947 0)
(-0.0764639 0.00757599 0)
(-0.0776528 0.00628669 0)
(-0.0786188 0.00493715 0)
(-0.0793532 0.00353384 0)
(-0.079848 0.00208412 0)
(-0.0800967 0.000596257 0)
(-0.0800942 -0.000920561 0)
(-0.0798367 -0.0024563 0)
(-0.0793222 -0.00400011 0)
(-0.0785501 -0.0055404 0)
(-0.0775221 -0.00706495 0)
(-0.0762413 -0.00856099 0)
(-0.074713 -0.0100154 0)
(-0.0729447 -0.0114147 0)
(-0.0709455 -0.0127454 0)
(-0.0687269 -0.0139942 0)
(-0.0663025 -0.0151479 0)
(-0.0636875 -0.0161938 0)
(-0.0608995 -0.0171201 0)
(-0.0579576 -0.0179157 0)
(-0.0548828 -0.0185706 0)
(-0.0516975 -0.0190762 0)
(-0.0484254 -0.0194254 0)
(-0.0450915 -0.0196128 0)
(-0.0417216 -0.0196347 0)
(-0.038342 -0.0194897 0)
(-0.0349792 -0.0191782 0)
(-0.0316598 -0.018703 0)
(-0.02841 -0.0180694 0)
(-0.025255 -0.0172847 0)
(-0.022219 -0.016359 0)
(-0.0193248 -0.0153045 0)
(-0.0165931 -0.0141361 0)
(-0.0140424 -0.0128711 0)
(-0.0116887 -0.011529 0)
(-0.00954491 -0.0101321 0)
(-0.0076209 -0.00870482 0)
(-0.00592299 -0.00727434 0)
(-0.00445385 -0.00587022 0)
(-0.00321234 -0.00452476 0)
(-0.00219345 -0.00327301 0)
(-0.00138829 -0.00215311 0)
(-0.000783904 -0.00120646 0)
(-0.000363112 -0.000477936 0)
(-0.00010917 -1.61363e-05 0)
(-1.10653e-05 0.00012359 0)
(-5.27015e-05 0.000607889 0)
(-0.000363391 0.00205146 0)
(-0.00104833 0.00363672 0)
(-0.00204801 0.0052961 0)
(-0.00333074 0.00697673 0)
(-0.00487887 0.00863569 0)
(-0.00667321 0.010239 0)
(-0.0086938 0.0117606 0)
(-0.0109209 0.0131814 0)
(-0.0133351 0.0144878 0)
(-0.0159169 0.0156709 0)
(-0.0186472 0.0167253 0)
(-0.021507 0.0176487 0)
(-0.0244775 0.018441 0)
(-0.0275405 0.0191032 0)
(-0.0306779 0.0196379 0)
(-0.0338722 0.020048 0)
(-0.0371059 0.0203366 0)
(-0.0403621 0.020507 0)
(-0.0436243 0.0205622 0)
(-0.0468759 0.0205052 0)
(-0.0501011 0.0203383 0)
(-0.0532838 0.0200637 0)
(-0.0564084 0.019683 0)
(-0.0594594 0.0191979 0)
(-0.0624215 0.0186095 0)
(-0.0652796 0.0179191 0)
(-0.0680186 0.0171277 0)
(-0.0706239 0.0162368 0)
(-0.0730808 0.0152479 0)
(-0.0753753 0.0141629 0)
(-0.0774936 0.0129844 0)
(-0.0794223 0.0117155 0)
(-0.0811486 0.0103598 0)
(-0.0826604 0.00892224 0)
(-0.0839463 0.0074082 0)
(-0.0849959 0.00582425 0)
(-0.0857997 0.00417791 0)
(-0.0863495 0.00247775 0)
(-0.0866381 0.000733351 0)
(-0.0866599 -0.00104464 0)
(-0.0864108 -0.00284463 0)
(-0.0858884 -0.00465408 0)
(-0.0850919 -0.0064596 0)
(-0.0840226 -0.00824708 0)
(-0.0826835 -0.0100018 0)
(-0.0810798 -0.0117085 0)
(-0.0792189 -0.0133518 0)
(-0.0771102 -0.0149161 0)
(-0.0747652 -0.0163858 0)
(-0.0721976 -0.0177457 0)
(-0.0694235 -0.0189812 0)
(-0.0664606 -0.0200783 0)
(-0.063329 -0.0210243 0)
(-0.0600502 -0.0218075 0)
(-0.0566479 -0.0224177 0)
(-0.0531468 -0.0228466 0)
(-0.0495731 -0.0230876 0)
(-0.0459541 -0.0231364 0)
(-0.0423174 -0.0229909 0)
(-0.0386915 -0.0226516 0)
(-0.0351045 -0.0221215 0)
(-0.0315844 -0.0214062 0)
(-0.0281585 -0.0205142 0)
(-0.0248528 -0.0194567 0)
(-0.021692 -0.0182479 0)
(-0.0186988 -0.0169045 0)
(-0.0158937 -0.0154463 0)
(-0.0132946 -0.0138958 0)
(-0.0109162 -0.0122781 0)
(-0.00877023 -0.0106213 0)
(-0.00686475 -0.00895584 0)
(-0.00520413 -0.00731522 0)
(-0.00378887 -0.00573557 0)
(-0.00261559 -0.00425585 0)
(-0.00167705 -0.00291802 0)
(-0.000961899 -0.00176714 0)
(-0.000454497 -0.000851454 0)
(-0.000140968 -0.000222415 0)
(-1.57089e-05 6.25184e-05 0)
(-5.95117e-05 0.000802377 0)
(-0.000407311 0.00260663 0)
(-0.00117047 0.00452671 0)
(-0.00227943 0.00649675 0)
(-0.00369616 0.008465 0)
(-0.00539894 0.0103893 0)
(-0.00736482 0.0122364 0)
(-0.00957056 0.0139805 0)
(-0.0119937 0.015603 0)
(-0.0146124 0.0170906 0)
(-0.0174053 0.0184346 0)
(-0.0203516 0.0196302 0)
(-0.023431 0.0206754 0)
(-0.0266237 0.0215703 0)
(-0.0299102 0.0223166 0)
(-0.0332719 0.022917 0)
(-0.0366901 0.023375 0)
(-0.040147 0.023694 0)
(-0.0436248 0.0238777 0)
(-0.0471064 0.0239295 0)
(-0.0505748 0.0238524 0)
(-0.0540131 0.0236491 0)
(-0.0574051 0.023322 0)
(-0.0607344 0.022873 0)
(-0.0639849 0.0223037 0)
(-0.0671406 0.0216156 0)
(-0.0701859 0.0208101 0)
(-0.073105 0.0198885 0)
(-0.0758828 0.0188523 0)
(-0.078504 0.0177036 0)
(-0.0809538 0.0164444 0)
(-0.0832179 0.0150779 0)
(-0.0852823 0.0136074 0)
(-0.0871336 0.0120376 0)
(-0.0887591 0.0103738 0)
(-0.0901468 0.00862231 0)
(-0.0912857 0.00679067 0)
(-0.0921657 0.00488748 0)
(-0.0927781 0.00292252 0)
(-0.0931151 0.00090675 0)
(-0.0931706 -0.00114773 0)
(-0.0929401 -0.00322771 0)
(-0.0924205 -0.00531892 0)
(-0.0916108 -0.00740614 0)
(-0.0905118 -0.0094733 0)
(-0.0891262 -0.0115036 0)
(-0.087459 -0.0134799 0)
(-0.0855172 -0.0153843 0)
(-0.0833103 -0.0171992 0)
(-0.0808498 -0.0189067 0)
(-0.0781497 -0.0204895 0)
(-0.0752259 -0.0219308 0)
(-0.072097 -0.0232146 0)
(-0.0687833 -0.0243261 0)
(-0.0653072 -0.0252517 0)
(-0.0616931 -0.0259797 0)
(-0.057967 -0.0265002 0)
(-0.0541562 -0.0268056 0)
(-0.0502892 -0.0268905 0)
(-0.0463954 -0.0267523 0)
(-0.0425047 -0.0263912 0)
(-0.0386472 -0.0258102 0)
(-0.0348528 -0.0250155 0)
(-0.0311507 -0.0240164 0)
(-0.0275691 -0.0228255 0)
(-0.0241347 -0.0214585 0)
(-0.0208724 -0.0199344 0)
(-0.0178048 -0.0182753 0)
(-0.0149519 -0.0165065 0)
(-0.0123307 -0.0146564 0)
(-0.00995469 -0.0127562 0)
(-0.00783399 -0.0108404 0)
(-0.00597488 -0.00894604 0)
(-0.0043797 -0.00711323 0)
(-0.00304686 -0.00538486 0)
(-0.00197089 -0.00380671 0)
(-0.00114212 -0.00242748 0)
(-0.000546415 -0.00129868 0)
(-0.000172623 -0.000474545 0)
(-2.02238e-05 -1.45228e-05 0)
(-6.60756e-05 0.00101883 0)
(-0.000449859 0.00322188 0)
(-0.00128911 0.00550935 0)
(-0.00250465 0.00781749 0)
(-0.00405238 0.0100962 0)
(-0.00590661 0.0123046 0)
(-0.00804074 0.0144106 0)
(-0.0104282 0.0163895 0)
(-0.0130438 0.0182232 0)
(-0.0158634 0.0198994 0)
(-0.0188636 0.0214101 0)
(-0.022022 0.022751 0)
(-0.0253169 0.0239208 0)
(-0.0287273 0.0249202 0)
(-0.0322328 0.0257515 0)
(-0.0358139 0.0264178 0)
(-0.0394512 0.0269231 0)
(-0.0431262 0.0272713 0)
(-0.0468206 0.0274664 0)
(-0.0505167 0.0275122 0)
(-0.0541967 0.027412 0)
(-0.0578437 0.0271687 0)
(-0.0614405 0.0267849 0)
(-0.0649704 0.0262628 0)
(-0.0684168 0.0256041 0)
(-0.0717631 0.0248105 0)
(-0.0749932 0.0238835 0)
(-0.0780909 0.0228247 0)
(-0.0810402 0.0216358 0)
(-0.0838257 0.020319 0)
(-0.0864317 0.0188769 0)
(-0.0888435 0.017313 0)
(-0.0910465 0.0156312 0)
(-0.0930267 0.0138367 0)
(-0.0947708 0.0119355 0)
(-0.0962663 0.00993489 0)
(-0.0975014 0.00784327 0)
(-0.0984656 0.00567037 0)
(-0.0991494 0.00342717 0)
(-0.0995445 0.001126 0)
(-0.0996442 -0.00121955 0)
(-0.0994433 -0.00359464 0)
(-0.0989383 -0.00598324 0)
(-0.0981274 -0.00836826 0)
(-0.0970109 -0.0107316 0)
(-0.0955912 -0.0130545 0)