/*--------------------------------*- C++ -*----------------------------------*\
| =========                 |                                                 |
| \\      /  F ield         | OpenFOAM: The Open Source CFD Toolbox           |
|  \\    /   O peration     | Version:  2506                                  |
|   \\  /    A nd           | Website:  www.openfoam.com                      |
|    \\/     M anipulation  |                                                 |
\*---------------------------------------------------------------------------*/
FoamFile
{
    version     2.0;
    format      ascii;
    arch        "LSB;label=32;scalar=64";
    class       volVectorField;
    location    "3.875";
    object      diffU;
}
// * * * * * * * * * * * * * * * * * * * * * * * * * * * * * * * * * * * * * //

dimensions      [0 1 -1 0 0 0 0];

internalField   nonuniform List<vector> 
400
(
(0 0 0)
(-1.43804e-10 -1.12255e-07 0)
(-1.76089e-10 -8.5676e-08 0)
(-1.56738e-10 -9.19809e-08 0)
(-1.68652e-10 -9.04882e-08 0)
(-1.65068e-10 -9.08419e-08 0)
(-1.6664e-10 -9.07582e-08 0)
(-1.6631e-10 -9.07781e-08 0)
(-1.66524e-10 -9.07734e-08 0)
(-1.66529e-10 -9.07745e-08 0)
(-1.66575e-10 -9.07743e-08 0)
(-1.66593e-10 -9.07743e-08 0)
(-1.66611e-10 -9.07743e-08 0)
(-1.66623e-10 -9.07743e-08 0)
(-1.66632e-10 -9.07743e-08 0)
(-1.66639e-10 -9.07743e-08 0)
(-1.66644e-10 -9.07743e-08 0)
(-1.6665e-10 -9.07743e-08 0)
(-1.66654e-10 -9.07743e-08 0)
(-1.66653e-10 -9.07743e-08 0)
(-1.16134e-09 -1.81536e-07 0)
(5.53558e-11 -6.93096e-08 0)
(-2.58147e-10 -9.5857e-08 0)
(-1.43579e-10 -8.95712e-08 0)
(-1.73474e-10 -9.10576e-08 0)
(-1.6402e-10 -9.07069e-08 0)
(-1.67026e-10 -9.07899e-08 0)
(-1.66264e-10 -9.07705e-08 0)
(-1.66576e-10 -9.07751e-08 0)
(-1.66535e-10 -9.07741e-08 0)
(-1.66585e-10 -9.07744e-08 0)
(-1.66598e-10 -9.07743e-08 0)
(-1.66615e-10 -9.07743e-08 0)
(-1.66625e-10 -9.07743e-08 0)
(-1.66634e-10 -9.07743e-08 0)
(-1.6664e-10 -9.07743e-08 0)
(-1.66645e-10 -9.07743e-08 0)
(-1.6665e-10 -9.07743e-08 0)
(-1.66654e-10 -9.07743e-08 0)
(-1.66653e-10 -9.07743e-08 0)
(1.53289e-09 -5.09461e-11 0)
(-5.48308e-10 -1.12202e-07 0)
(-1.02546e-11 -8.56929e-08 0)
(-2.04247e-10 -9.19731e-08 0)
(-1.54348e-10 -9.049e-08 0)
(-1.7021e-10 -9.0841e-08 0)
(-1.65517e-10 -9.07583e-08 0)
(-1.66851e-10 -9.07779e-08 0)
(-1.6647e-10 -9.07733e-08 0)
(-1.66605e-10 -9.07745e-08 0)
(-1.66588e-10 -9.07742e-08 0)
(-1.66612e-10 -9.07743e-08 0)
(-1.6662e-10 -9.07743e-08 0)
(-1.6663e-10 -9.07743e-08 0)
(-1.66636e-10 -9.07743e-08 0)
(-1.66642e-10 -9.07743e-08 0)
(-1.66646e-10 -9.07743e-08 0)
(-1.66651e-10 -9.07743e-08 0)
(-1.66654e-10 -9.07743e-08 0)
(-1.66653e-10 -9.07743e-08 0)
(-2.81446e-09 -1.81506e-07 0)
(4.14525e-10 -6.93626e-08 0)
(-4.10003e-10 -9.58488e-08 0)
(-1.11148e-10 -8.95765e-08 0)
(-1.85668e-10 -9.10569e-08 0)
(-1.61198e-10 -9.07071e-08 0)
(-1.68135e-10 -9.07899e-08 0)
(-1.66135e-10 -9.07705e-08 0)
(-1.66735e-10 -9.07751e-08 0)
(-1.66568e-10 -9.0774e-08 0)
(-1.66625e-10 -9.07743e-08 0)
(-1.66618e-10 -9.07743e-08 0)
(-1.66629e-10 -9.07743e-08 0)
(-1.66634e-10 -9.07743e-08 0)
(-1.66639e-10 -9.07743e-08 0)
(-1.66643e-10 -9.07743e-08 0)
(-1.66647e-10 -9.07743e-08 0)
(-1.66651e-10 -9.07743e-08 0)
(-1.66654e-10 -9.07743e-08 0)
(-1.66653e-10 -9.07743e-08 0)
(3.42712e-09 1.54197e-11 0)
(-9.46583e-10 -1.12195e-07 0)
(1.61444e-10 -8.56968e-08 0)
(-2.40746e-10 -9.19717e-08 0)
(-1.41412e-10 -9.04909e-08 0)
(-1.73979e-10 -9.0841e-08 0)
(-1.64687e-10 -9.07584e-08 0)
(-1.67268e-10 -9.07779e-08 0)
(-1.66463e-10 -9.07733e-08 0)
(-1.66681e-10 -9.07745e-08 0)
(-1.66616e-10 -9.07742e-08 0)
(-1.66637e-10 -9.07743e-08 0)
(-1.66635e-10 -9.07743e-08 0)
(-1.6664e-10 -9.07743e-08 0)
(-1.66643e-10 -9.07743e-08 0)
(-1.66646e-10 -9.07743e-08 0)
(-1.66648e-10 -9.07743e-08 0)
(-1.66652e-10 -9.07743e-08 0)
(-1.66655e-10 -9.07743e-08 0)
(-1.66653e-10 -9.07743e-08 0)
(-4.68135e-09 -1.81699e-07 0)
(7.98969e-10 -6.93192e-08 0)
(-5.7783e-10 -9.58596e-08 0)
(-7.66021e-11 -8.95744e-08 0)
(-1.98302e-10 -9.10578e-08 0)
(-1.57905e-10 -9.07071e-08 0)
(-1.69133e-10 -9.079e-08 0)
(-1.65923e-10 -9.07705e-08 0)
(-1.66867e-10 -9.07751e-08 0)
(-1.66588e-10 -9.0774e-08 0)
(-1.66663e-10 -9.07743e-08 0)
(-1.66639e-10 -9.07743e-08 0)
(-1.66646e-10 -9.07743e-08 0)
(-1.66646e-10 -9.07743e-08 0)
(-1.66647e-10 -9.07743e-08 0)
(-1.66648e-10 -9.07743e-08 0)
(-1.66651e-10 -9.07743e-08 0)
(-1.66653e-10 -9.07743e-08 0)
(-1.66654e-10 -9.07743e-08 0)
(-1.66653e-10 -9.07744e-08 0)
(5.18646e-09 3.62762e-10 0)
(-1.30213e-09 -1.12292e-07 0)
(3.19183e-10 -8.56742e-08 0)
(-2.72502e-10 -9.19784e-08 0)
(-1.29693e-10 -9.04895e-08 0)
(-1.77113e-10 -9.08416e-08 0)
(-1.63879e-10 -9.07583e-08 0)
(-1.67568e-10 -9.0778e-08 0)
(-1.6643e-10 -9.07734e-08 0)
(-1.66732e-10 -9.07745e-08 0)
(-1.66635e-10 -9.07742e-08 0)
(-1.66658e-10 -9.07743e-08 0)
(-1.66649e-10 -9.07743e-08 0)
(-1.66651e-10 -9.07743e-08 0)
(-1.6665e-10 -9.07743e-08 0)
(-1.66651e-10 -9.07743e-08 0)
(-1.66651e-10 -9.07743e-08 0)
(-1.66653e-10 -9.07743e-08 0)
(-1.66654e-10 -9.07743e-08 0)
(-1.66653e-10 -9.07744e-08 0)
(-6.19646e-09 -1.82207e-07 0)
(1.09896e-09 -6.91722e-08 0)
(-7.1221e-10 -9.58949e-08 0)
(-4.98284e-11 -8.95644e-08 0)
(-2.08001e-10 -9.10605e-08 0)
(-1.55291e-10 -9.07065e-08 0)
(-1.69827e-10 -9.07902e-08 0)
(-1.65726e-10 -9.07705e-08 0)
(-1.66943e-10 -9.07752e-08 0)
(-1.66592e-10 -9.07741e-08 0)
(-1.66684e-10 -9.07743e-08 0)
(-1.66652e-10 -9.07743e-08 0)
(-1.66657e-10 -9.07743e-08 0)
(-1.66654e-10 -9.07743e-08 0)
(-1.66654e-10 -9.07743e-08 0)
(-1.66652e-10 -9.07743e-08 0)
(-1.66653e-10 -9.07743e-08 0)
(-1.66654e-10 -9.07743e-08 0)
(-1.66654e-10 -9.07743e-08 0)
(-1.66653e-10 -9.07744e-08 0)
(6.41151e-09 1.02979e-09 0)
(-1.53888e-09 -1.12485e-07 0)
(4.27328e-10 -8.56276e-08 0)
(-2.93298e-10 -9.19916e-08 0)
(-1.21948e-10 -9.04861e-08 0)
(-1.79109e-10 -9.08425e-08 0)
(-1.63337e-10 -9.07581e-08 0)
(-1.67735e-10 -9.07781e-08 0)
(-1.66397e-10 -9.07734e-08 0)
(-1.66755e-10 -9.07745e-08 0)
(-1.66643e-10 -9.07742e-08 0)
(-1.66669e-10 -9.07743e-08 0)
(-1.66657e-10 -9.07743e-08 0)
(-1.66657e-10 -9.07743e-08 0)
(-1.66655e-10 -9.07743e-08 0)
(-1.66654e-10 -9.07743e-08 0)
(-1.66654e-10 -9.07743e-08 0)
(-1.66654e-10 -9.07743e-08 0)
(-1.66654e-10 -9.07743e-08 0)
(-1.66653e-10 -9.07744e-08 0)
(-7.06173e-09 -1.83022e-07 0)
(1.25952e-09 -6.89372e-08 0)
(-7.87345e-10 -9.59518e-08 0)
(-3.59994e-11 -8.95486e-08 0)
(-2.13074e-10 -9.10647e-08 0)
(-1.53935e-10 -9.07055e-08 0)
(-1.70146e-10 -9.07906e-08 0)
(-1.65617e-10 -9.07704e-08 0)
(-1.66971e-10 -9.07752e-08 0)
(-1.6659e-10 -9.07741e-08 0)
(-1.66693e-10 -9.07743e-08 0)
(-1.66658e-10 -9.07743e-08 0)
(-1.66663e-10 -9.07743e-08 0)
(-1.66659e-10 -9.07743e-08 0)
(-1.66657e-10 -9.07743e-08 0)
(-1.66656e-10 -9.07743e-08 0)
(-1.66655e-10 -9.07743e-08 0)
(-1.66654e-10 -9.07743e-08 0)
(-1.66653e-10 -9.07743e-08 0)
(-1.66653e-10 -9.07744e-08 0)
(6.90013e-09 1.97409e-09 0)
(-1.62151e-09 -1.12754e-07 0)
(4.68777e-10 -8.55626e-08 0)
(-2.99803e-10 -9.20095e-08 0)
(-1.19319e-10 -9.04814e-08 0)
(-1.79698e-10 -9.08437e-08 0)
(-1.63173e-10 -9.07578e-08 0)
(-1.67774e-10 -9.07782e-08 0)
(-1.66386e-10 -9.07734e-08 0)
(-1.6676e-10 -9.07745e-08 0)
(-1.66646e-10 -9.07742e-08 0)
(-1.66673e-10 -9.07743e-08 0)
(-1.66661e-10 -9.07743e-08 0)
(-1.66661e-10 -9.07743e-08 0)
(-1.66658e-10 -9.07743e-08 0)
(-1.66656e-10 -9.07743e-08 0)
(-1.66655e-10 -9.07743e-08 0)
(-1.66654e-10 -9.07743e-08 0)
(-1.66654e-10 -9.07743e-08 0)
(-1.66653e-10 -9.07744e-08 0)
(-7.15113e-09 -1.84069e-07 0)
(1.2607e-09 -6.86408e-08 0)
(-7.92791e-10 -9.60229e-08 0)
(-3.68124e-11 -8.95289e-08 0)
(-2.12931e-10 -9.10697e-08 0)
(-1.54023e-10 -9.07042e-08 0)
(-1.70084e-10 -9.07909e-08 0)
(-1.65628e-10 -9.07703e-08 0)
(-1.66964e-10 -9.07752e-08 0)
(-1.66594e-10 -9.07741e-08 0)
(-1.66696e-10 -9.07744e-08 0)
(-1.66662e-10 -9.07743e-08 0)
(-1.66667e-10 -9.07743e-08 0)
(-1.66662e-10 -9.07743e-08 0)
(-1.6666e-10 -9.07743e-08 0)
(-1.66657e-10 -9.07743e-08 0)
(-1.66656e-10 -9.07743e-08 0)
(-1.66655e-10 -9.07743e-08 0)
(-1.66653e-10 -9.07743e-08 0)
(-1.66653e-10 -9.07744e-08 0)
(6.59516e-09 3.08879e-09 0)
(-1.5437e-09 -1.13066e-07 0)
(4.39017e-10 -8.54877e-08 0)
(-2.91889e-10 -9.20299e-08 0)
(-1.22034e-10 -9.04762e-08 0)
(-1.78888e-10 -9.0845e-08 0)
(-1.63405e-10 -9.07575e-08 0)
(-1.67697e-10 -9.07783e-08 0)
(-1.66407e-10 -9.07733e-08 0)
(-1.66755e-10 -9.07745e-08 0)
(-1.6665e-10 -9.07742e-08 0)
(-1.66675e-10 -9.07743e-08 0)
(-1.66663e-10 -9.07743e-08 0)
(-1.66663e-10 -9.07743e-08 0)
(-1.66659e-10 -9.07743e-08 0)
(-1.66658e-10 -9.07743e-08 0)
(-1.66656e-10 -9.07743e-08 0)
(-1.66655e-10 -9.07743e-08 0)
(-1.66653e-10 -9.07743e-08 0)
(-1.66653e-10 -9.07744e-08 0)
(-6.46824e-09 -1.85214e-07 0)
(1.10826e-09 -6.83225e-08 0)
(-7.29406e-10 -9.60989e-08 0)
(-5.12718e-11 -8.95082e-08 0)
(-2.07771e-10 -9.10749e-08 0)
(-1.55466e-10 -9.07028e-08 0)
(-1.69679e-10 -9.07913e-08 0)
(-1.65756e-10 -9.07702e-08 0)
(-1.6693e-10 -9.07753e-08 0)
(-1.66606e-10 -9.07741e-08 0)
(-1.66695e-10 -9.07744e-08 0)
(-1.66664e-10 -9.07743e-08 0)
(-1.66668e-10 -9.07743e-08 0)
(-1.66663e-10 -9.07743e-08 0)
(-1.6666e-10 -9.07743e-08 0)
(-1.66658e-10 -9.07743e-08 0)
(-1.66657e-10 -9.07743e-08 0)
(-1.66655e-10 -9.07743e-08 0)
(-1.66652e-10 -9.07743e-08 0)
(-1.66653e-10 -9.07744e-08 0)
(5.55643e-09 4.21976e-09 0)
(-1.32202e-09 -1.13377e-07 0)
(3.43946e-10 -8.54134e-08 0)
(-2.7145e-10 -9.20499e-08 0)
(-1.29523e-10 -9.04711e-08 0)
(-1.76871e-10 -9.08463e-08 0)
(-1.63982e-10 -9.07571e-08 0)
(-1.67528e-10 -9.07784e-08 0)
(-1.66459e-10 -9.07733e-08 0)
(-1.66745e-10 -9.07745e-08 0)
(-1.66657e-10 -9.07743e-08 0)
(-1.66676e-10 -9.07743e-08 0)
(-1.66666e-10 -9.07743e-08 0)
(-1.66664e-10 -9.07743e-08 0)
(-1.6666e-10 -9.07743e-08 0)
(-1.66658e-10 -9.07743e-08 0)
(-1.66656e-10 -9.07743e-08 0)
(-1.66654e-10 -9.07743e-08 0)
(-1.66652e-10 -9.07743e-08 0)
(-1.66653e-10 -9.07744e-08 0)
(-5.1241e-09 -1.86288e-07 0)
(8.28268e-10 -6.80296e-08 0)
(-6.07633e-10 -9.61688e-08 0)
(-7.6735e-11 -8.94896e-08 0)
(-1.98477e-10 -9.10796e-08 0)
(-1.57997e-10 -9.07017e-08 0)
(-1.69004e-10 -9.07916e-08 0)
(-1.65979e-10 -9.07702e-08 0)
(-1.66879e-10 -9.07753e-08 0)
(-1.66627e-10 -9.07741e-08 0)
(-1.66692e-10 -9.07744e-08 0)
(-1.66668e-10 -9.07743e-08 0)
(-1.66669e-10 -9.07743e-08 0)
(-1.66664e-10 -9.07743e-08 0)
(-1.66661e-10 -9.07743e-08 0)
(-1.66658e-10 -9.07743e-08 0)
(-1.66657e-10 -9.07743e-08 0)
(-1.66655e-10 -9.07743e-08 0)
(-1.66652e-10 -9.07743e-08 0)
(-1.66652e-10 -9.07744e-08 0)
(3.93785e-09 5.19194e-09 0)
(-9.9001e-10 -1.13639e-07 0)
(1.97908e-10 -8.5351e-08 0)
(-2.41563e-10 -9.20663e-08 0)
(-1.40593e-10 -9.04671e-08 0)
(-1.73935e-10 -9.08474e-08 0)
(-1.64802e-10 -9.07569e-08 0)
(-1.67284e-10 -9.07785e-08 0)
(-1.66532e-10 -9.07733e-08 0)
(-1.66728e-10 -9.07746e-08 0)
(-1.66665e-10 -9.07743e-08 0)
(-1.66677e-10 -9.07743e-08 0)
(-1.66668e-10 -9.07743e-08 0)
(-1.66665e-10 -9.07743e-08 0)
(-1.66661e-10 -9.07743e-08 0)
(-1.66659e-10 -9.07743e-08 0)
(-1.66657e-10 -9.07743e-08 0)
(-1.66654e-10 -9.07743e-08 0)
(-1.66651e-10 -9.07743e-08 0)
(-1.66652e-10 -9.07744e-08 0)
(-3.31012e-09 -1.87117e-07 0)
(4.60414e-10 -6.7809e-08 0)
(-4.44751e-10 -9.62223e-08 0)
(-1.09699e-10 -8.94759e-08 0)
(-1.8641e-10 -9.10832e-08 0)
(-1.61228e-10 -9.07008e-08 0)
(-1.68146e-10 -9.07918e-08 0)
(-1.66255e-10 -9.07701e-08 0)
(-1.66813e-10 -9.07753e-08 0)
(-1.66651e-10 -9.07741e-08 0)
(-1.66688e-10 -9.07744e-08 0)
(-1.6667e-10 -9.07743e-08 0)
(-1.66669e-10 -9.07743e-08 0)
(-1.66664e-10 -9.07743e-08 0)
(-1.6666e-10 -9.07743e-08 0)
(-1.66658e-10 -9.07743e-08 0)
(-1.66656e-10 -9.07743e-08 0)
(-1.66654e-10 -9.07743e-08 0)
(-1.66651e-10 -9.07743e-08 0)
(-1.66652e-10 -9.07744e-08 0)
(2.00976e-09 5.85058e-09 0)
(-6.05946e-10 -1.13814e-07 0)
(2.43722e-11 -8.53107e-08 0)
(-2.06131e-10 -9.20756e-08 0)
(-1.53529e-10 -9.04648e-08 0)
(-1.70411e-10 -9.08478e-08 0)
(-1.65781e-10 -9.07568e-08 0)
(-1.66992e-10 -9.07785e-08 0)
(-1.6662e-10 -9.07733e-08 0)
(-1.66708e-10 -9.07746e-08 0)
(-1.66675e-10 -9.07743e-08 0)
(-1.66677e-10 -9.07744e-08 0)
(-1.66669e-10 -9.07743e-08 0)
(-1.66666e-10 -9.07743e-08 0)
(-1.66662e-10 -9.07743e-08 0)
(-1.66659e-10 -9.07743e-08 0)
(-1.66657e-10 -9.07743e-08 0)
(-1.66654e-10 -9.07743e-08 0)
(-1.6665e-10 -9.07743e-08 0)
(-1.66652e-10 -9.07743e-08 0)
(-1.22847e-09 -1.87614e-07 0)
(1.09008e-10 -6.76285e-08 0)
(-2.89346e-10 -9.62691e-08 0)
(-1.34468e-10 -8.9462e-08 0)
(-1.77766e-10 -9.10874e-08 0)
(-1.63414e-10 -9.06997e-08 0)
(-1.67686e-10 -9.07922e-08 0)
(-1.66409e-10 -9.07701e-08 0)
(-1.66784e-10 -9.07754e-08 0)
(-1.66664e-10 -9.07741e-08 0)
(-1.6669e-10 -9.07744e-08 0)
(-1.66675e-10 -9.07743e-08 0)
(-1.66672e-10 -9.07743e-08 0)
(-1.66667e-10 -9.07743e-08 0)
(-1.66664e-10 -9.07743e-08 0)
(-1.66661e-10 -9.07743e-08 0)
(-1.66658e-10 -9.07743e-08 0)
(-1.66654e-10 -9.07743e-08 0)
(-1.6665e-10 -9.07743e-08 0)
(-1.66652e-10 -9.07743e-08 0)
)
;

boundaryField
{
    movingWall
    {
        type            calculated;
        value           uniform (-1.66653e-10 -9.07743e-08 0);
    }
    fixedWalls
    {
        type            calculated;
        value           uniform (-1.66653e-10 -9.07743e-08 0);
    }
    frontAndBack
    {
        type            empty;
    }
}


// ************************************************************************* //
