/*--------------------------------*- C++ -*----------------------------------*\
| =========                 |                                                 |
| \\      /  F ield         | OpenFOAM: The Open Source CFD Toolbox           |
|  \\    /   O peration     | Version:  2506                                  |
|   \\  /    A nd           | Website:  www.openfoam.com                      |
|    \\/     M anipulation  |                                                 |
\*---------------------------------------------------------------------------*/
FoamFile
{
    version     2.0;
    format      ascii;
    arch        "LSB;label=32;scalar=64";
    class       volScalarField;
    location    "3.875";
    object      divU;
}
// * * * * * * * * * * * * * * * * * * * * * * * * * * * * * * * * * * * * * //

dimensions      [0 0 -1 0 0 0 0];

internalField   nonuniform List<scalar> 
400
(
2.02516e-08
-1.9249e-08
2.73168e-10
4.08671e-10
-5.46969e-10
1.87309e-10
-7.33012e-11
2.23291e-11
-8.43512e-12
1.94656e-12
-9.17449e-13
1.27141e-13
-5.5642e-14
1.81895e-14
4.15628e-14
4.36785e-14
-1.90627e-14
-6.62715e-14
1.83598e-13
-2.71051e-14
-8.23624e-08
9.56241e-08
-2.15849e-08
9.23941e-09
-2.22002e-09
7.36557e-10
-2.26331e-10
6.29247e-11
-2.0127e-11
5.73585e-12
-1.79848e-12
4.9782e-13
-1.98347e-13
4.97201e-14
3.22898e-14
-1.25731e-14
-9.46935e-14
-2.1559e-14
1.67833e-13
0
1.34765e-07
-1.59619e-07
3.52233e-08
-1.49407e-08
3.47582e-09
-1.1426e-09
3.45003e-10
-9.09383e-11
2.93246e-11
-7.91298e-12
2.40105e-12
-6.25495e-13
2.15399e-13
-1.0113e-14
5.2773e-14
2.92021e-14
-4.20658e-14
-7.62456e-14
1.61012e-13
5.42101e-14
-2.00026e-07
2.41198e-07
-5.2957e-08
2.2575e-08
-5.10331e-09
1.75656e-09
-5.05649e-10
1.40595e-10
-4.28383e-11
1.26349e-11
-3.40067e-12
1.22771e-12
-2.12201e-13
1.42694e-13
5.12686e-14
2.31335e-14
-7.81843e-14
5.59418e-14
1.45964e-13
-8.13152e-14
2.6204e-07
-3.22219e-07
6.95107e-08
-3.00744e-08
6.58701e-09
-2.32621e-09
6.57796e-10
-1.80156e-10
5.66781e-11
-1.53606e-11
4.80219e-12
-1.16145e-12
4.76418e-13
-8.39957e-14
7.5698e-14
5.94659e-14
-5.31946e-14
-6.97731e-14
1.34449e-13
1.0842e-13
-3.20173e-07
4.00679e-07
-8.52962e-08
3.72867e-08
-7.98264e-09
2.86063e-09
-7.97436e-10
2.18804e-10
-6.80266e-11
1.89765e-11
-5.34421e-12
1.71181e-12
-3.96593e-13
2.22632e-13
5.95153e-14
1.87146e-14
-7.70903e-14
6.52839e-14
1.08616e-13
-2.71051e-14
3.71045e-07
-4.72034e-07
9.94301e-08
-4.38917e-08
9.26609e-09
-3.35742e-09
9.2893e-10
-2.5416e-10
7.95413e-11
-2.15834e-11
6.49465e-12
-1.77232e-12
5.99222e-13
-3.13955e-14
5.84143e-14
2.64243e-14
-2.01113e-14
-7.03531e-14
1.79778e-13
2.71051e-14
-4.09716e-07
5.29113e-07
-1.10218e-07
4.91026e-08
-1.02084e-08
3.7223e-09
-1.02307e-09
2.78564e-10
-8.71536e-11
2.3761e-11
-6.82552e-12
2.05258e-12
-5.20095e-13
1.88037e-13
6.84138e-14
-2.24478e-14
-7.03825e-14
1.29199e-13
7.91582e-14
-5.42101e-14
4.39031e-07
-5.74919e-07
1.18872e-07
-5.33438e-08
1.10022e-08
-4.03425e-09
1.10518e-09
-3.00585e-10
9.40788e-11
-2.54393e-11
7.47427e-12
-2.11866e-12
6.68131e-13
-1.84035e-13
1.27069e-13
1.07861e-14
-9.35525e-14
-1.82229e-14
7.16124e-14
0
-4.52461e-07
6.00527e-07
-1.2305e-07
5.56328e-08
-1.13278e-08
4.1718e-09
-1.13699e-09
3.07616e-10
-9.6435e-11
2.59409e-11
-7.53619e-12
2.21126e-12
-5.86438e-13
1.5648e-13
8.03097e-15
-4.20402e-15
-1.05713e-13
1.05051e-13
2.56162e-14
0
4.56484e-07
-6.13496e-07
1.25053e-07
-5.68436e-08
1.15082e-08
-4.25542e-09
1.15697e-09
-3.13125e-10
9.79428e-11
-2.63982e-11
7.65989e-12
-2.15324e-12
6.02551e-13
-1.65932e-13
4.7517e-14
-5.69021e-14
1.23509e-14
-4.84226e-14
1.20384e-14
0
-4.44244e-07
6.0462e-07
-1.22261e-07
5.59454e-08
-1.1197e-08
4.15233e-09
-1.12476e-09
3.02394e-10
-9.50035e-11
2.5321e-11
-7.46456e-12
2.10254e-12
-6.18092e-13
1.76779e-13
3.45941e-14
-7.85249e-14
-7.179e-14
9.14195e-14
7.40431e-14
-5.42101e-14
4.23974e-07
-5.83775e-07
1.17579e-07
-5.40335e-08
1.0778e-08
-4.00291e-09
1.08373e-09
-2.91644e-10
9.1179e-11
-2.44813e-11
7.01789e-12
-2.10312e-12
5.47944e-13
-1.91223e-13
6.3632e-14
-8.69816e-14
-5.14953e-14
-2.48582e-14
-6.95262e-15
0
-3.89571e-07
5.42775e-07
-1.08526e-07
5.01683e-08
-9.91463e-09
3.68228e-09
-9.95783e-10
2.65864e-10
-8.36658e-11
2.21098e-11
-6.54678e-12
1.8305e-12
-5.52643e-13
1.10755e-13
1.19972e-15
-8.75782e-14
-1.20993e-13
7.15893e-14
-9.2179e-15
0
3.49411e-07
-4.91967e-07
9.80764e-08
-4.54847e-08
8.98945e-09
-3.32908e-09
9.02655e-10
-2.41044e-10
7.52902e-11
-2.02829e-11
5.7378e-12
-1.7618e-12
4.24231e-13
-2.02511e-13
-1.7587e-14
-2.38948e-14
-6.69861e-14
2.17978e-14
-1.04451e-13
-5.42101e-14
-2.99035e-07
4.25439e-07
-8.42615e-08
3.92733e-08
-7.71918e-09
2.84378e-09
-7.7371e-10
2.04549e-10
-6.46183e-11
1.68793e-11
-5.15351e-12
1.26362e-12
-5.88141e-13
4.63707e-14
-3.6969e-15
-1.91237e-13
-1.72412e-13
6.00641e-14
-9.39127e-15
0
2.45198e-07
-3.51929e-07
6.9492e-08
-3.24798e-08
6.4072e-09
-2.3347e-09
6.39961e-10
-1.68976e-10
5.23296e-11
-1.43329e-11
3.84573e-12
-1.37169e-12
2.72599e-13
-2.1465e-13
4.23609e-14
-1.04846e-13
-3.06826e-14
4.75324e-14
-6.63209e-14
-8.13152e-14
-1.85776e-07
2.69056e-07
-5.29739e-08
2.49028e-08
-4.92999e-09
1.77864e-09
-4.9537e-10
1.29684e-10
-4.09942e-11
1.09586e-11
-3.1928e-12
9.09899e-13
-3.64208e-13
1.15745e-13
-6.92187e-14
-5.44011e-14
-1.22657e-13
3.91647e-14
-4.29487e-14
-5.42101e-14
1.23971e-07
-1.80491e-07
3.52953e-08
-1.64016e-08
3.15365e-09
-1.11798e-09
3.06447e-10
-7.71573e-11
2.39557e-11
-6.37717e-12
1.56533e-12
-7.49497e-13
-2.82879e-14
-1.29614e-13
-5.50846e-14
-2.10876e-13
-7.55802e-14
1.00365e-13
-2.67552e-14
-5.42101e-14
-5.70974e-08
8.32923e-08
-2.12348e-08
1.00495e-08
-2.54248e-09
8.94087e-10
-2.68205e-10
7.68428e-11
-2.4774e-11
6.4239e-12
-2.41235e-12
4.33681e-13
-2.71051e-13
-5.42101e-14
-1.35525e-13
-2.71051e-14
2.71051e-14
5.42101e-14
-1.35525e-13
-5.42101e-14
)
;

boundaryField
{
    movingWall
    {
        type            extrapolatedCalculated;
        value           nonuniform List<scalar> 
20
(
-5.70974e-08
8.32923e-08
-2.12348e-08
1.00495e-08
-2.54248e-09
8.94087e-10
-2.68205e-10
7.68428e-11
-2.4774e-11
6.4239e-12
-2.41235e-12
4.33681e-13
-2.71051e-13
-5.42101e-14
-1.35525e-13
-2.71051e-14
2.71051e-14
5.42101e-14
-1.35525e-13
-5.42101e-14
)
;
    }
    fixedWalls
    {
        type            extrapolatedCalculated;
        value           nonuniform List<scalar> 
60
(
2.02516e-08
-8.23624e-08
1.34765e-07
-2.00026e-07
2.6204e-07
-3.20173e-07
3.71045e-07
-4.09716e-07
4.39031e-07
-4.52461e-07
4.56484e-07
-4.44244e-07
4.23974e-07
-3.89571e-07
3.49411e-07
-2.99035e-07
2.45198e-07
-1.85776e-07
1.23971e-07
-5.70974e-08
-2.71051e-14
0
5.42101e-14
-8.13152e-14
1.0842e-13
-2.71051e-14
2.71051e-14
-5.42101e-14
0
0
0
-5.42101e-14
0
0
-5.42101e-14
0
-8.13152e-14
-5.42101e-14
-5.42101e-14
-5.42101e-14
2.02516e-08
-1.9249e-08
2.73168e-10
4.08671e-10
-5.46969e-10
1.87309e-10
-7.33012e-11
2.23291e-11
-8.43512e-12
1.94656e-12
-9.17449e-13
1.27141e-13
-5.5642e-14
1.81895e-14
4.15628e-14
4.36785e-14
-1.90627e-14
-6.62715e-14
1.83598e-13
-2.71051e-14
)
;
    }
    frontAndBack
    {
        type            empty;
    }
}


// ************************************************************************* //
