/*--------------------------------*- C++ -*----------------------------------*\
| =========                 |                                                 |
| \\      /  F ield         | OpenFOAM: The Open Source CFD Toolbox           |
|  \\    /   O peration     | Version:  2506                                  |
|   \\  /    A nd           | Website:  www.openfoam.com                      |
|    \\/     M anipulation  |                                                 |
\*---------------------------------------------------------------------------*/
FoamFile
{
    version     2.0;
    format      ascii;
    arch        "LSB;label=32;scalar=64";
    class       volScalarField;
    location    "3.875";
    object      enstrophyField;
}
// * * * * * * * * * * * * * * * * * * * * * * * * * * * * * * * * * * * * * //

dimensions      [0 0 -2 0 0 0 0];

internalField   nonuniform List<scalar> 
400
(
2.45849e-11
3.6912e-11
2.07582e-12
1.17378e-13
6.58636e-15
3.76076e-16
2.06188e-17
1.26637e-18
5.60491e-20
6.10694e-21
9.38599e-24
1.42279e-22
2.68932e-23
2.02449e-23
8.72786e-24
4.11327e-24
1.47842e-24
2.3616e-25
8.00563e-28
1.97722e-27
2.50841e-11
3.70516e-11
2.0864e-12
1.17461e-13
6.61247e-15
3.72171e-16
2.09515e-17
1.17795e-18
6.64661e-20
3.69765e-21
2.16651e-22
1.05097e-23
9.72236e-25
4.37743e-29
7.11629e-26
1.07873e-26
1.39569e-28
5.43878e-26
2.56324e-25
3.75973e-26
2.51684e-11
3.6981e-11
2.07696e-12
1.16618e-13
6.54705e-15
3.67528e-16
2.06249e-17
1.15829e-18
6.48075e-20
3.67856e-21
1.97758e-22
1.35573e-23
1.60672e-25
3.72318e-25
9.85563e-26
6.46456e-26
2.18654e-26
2.14182e-25
9.16002e-25
8.18641e-26
2.53572e-11
3.70276e-11
2.07785e-12
1.16568e-13
6.53881e-15
3.66723e-16
2.05696e-17
1.15233e-18
6.48749e-20
3.57627e-21
2.15462e-22
8.76561e-24
1.56208e-24
1.08215e-25
2.14593e-25
6.43272e-26
6.40364e-27
2.75004e-25
1.51451e-24
1.78656e-25
2.53729e-11
3.70632e-11
2.07897e-12
1.16579e-13
6.5363e-15
3.66459e-16
2.0536e-17
1.15235e-18
6.42622e-20
3.67554e-21
1.89379e-22
1.42331e-23
1.6479e-25
3.78892e-25
1.50502e-25
5.77914e-26
1.38658e-28
3.61475e-25
2.14454e-24
1.74242e-25
2.5368e-11
3.71482e-11
2.08345e-12
1.16814e-13
6.5489e-15
3.67075e-16
2.058e-17
1.152e-18
6.4887e-20
3.55368e-21
2.17885e-22
8.51473e-24
1.77075e-24
1.88752e-25
3.63709e-25
8.50097e-26
3.65351e-27
5.22319e-25
2.94209e-24
2.24228e-25
2.53009e-11
3.72704e-11
2.09053e-12
1.17225e-13
6.57252e-15
3.68506e-16
2.06513e-17
1.15907e-18
6.4601e-20
3.70942e-21
1.85283e-22
1.5545e-23
2.05979e-26
7.94446e-25
2.89175e-25
1.04017e-25
3.59467e-27
6.00769e-25
3.63339e-24
2.6309e-25
2.52441e-11
3.74531e-11
2.10133e-12
1.17862e-13
6.61054e-15
3.707e-16
2.07958e-17
1.16424e-18
6.57012e-20
3.57767e-21
2.23665e-22
7.63941e-24
2.19267e-24
2.97277e-25
4.71052e-25
1.33585e-25
7.6411e-28
6.85062e-25
3.9858e-24
2.23321e-25
2.51759e-11
3.76868e-11
2.11528e-12
1.18696e-13
6.66001e-15
3.7372e-16
2.09602e-17
1.17784e-18
6.56267e-20
3.79034e-21
1.88534e-22
1.62895e-23
2.04973e-26
8.76249e-25
3.52013e-25
9.46401e-26
1.41544e-27
7.20848e-25
4.13414e-24
1.43717e-25
2.51336e-11
3.79783e-11
2.13269e-12
1.19734e-13
6.72227e-15
3.77368e-16
2.11939e-17
1.18801e-18
6.7117e-20
3.67061e-21
2.29855e-22
7.98963e-24
2.24035e-24
2.90498e-25
4.98996e-25
9.50828e-26
2.92749e-28
8.32597e-25
4.508e-24
1.10265e-25
2.51045e-11
3.83144e-11
2.15277e-12
1.20934e-13
6.79357e-15
3.81692e-16
2.14351e-17
1.2061e-18
6.73459e-20
3.88072e-21
1.95521e-22
1.60578e-23
3.88714e-26
8.80067e-25
3.54652e-25
1.2045e-25
2.72897e-28
6.96592e-25
4.08237e-24
7.50866e-26
2.51032e-11
3.86923e-11
2.17535e-12
1.22279e-13
6.87403e-15
3.86408e-16
2.17337e-17
1.21998e-18
6.90742e-20
3.77436e-21
2.37503e-22
8.34338e-24
2.34911e-24
3.20341e-25
5.00332e-25
7.39613e-26
1.73736e-27
5.72129e-25
3.85789e-24
4.82518e-26
2.51259e-11
3.90941e-11
2.19928e-12
1.23705e-13
6.95851e-15
3.9151e-16
2.20185e-17
1.24097e-18
6.93848e-20
4.00718e-21
2.03594e-22
1.68413e-23
4.38037e-26
7.23825e-25
3.19968e-25
1.02883e-25
4.40524e-28
5.6317e-25
3.42002e-24
2.76391e-26
2.5169e-11
3.95104e-11
2.22409e-12
1.25178e-13
7.04628e-15
3.96646e-16
2.23392e-17
1.25619e-18
7.1147e-20
3.91551e-21
2.42719e-22
9.21902e-24
1.81975e-24
2.02491e-25
3.44884e-25
4.86829e-26
1.42358e-29
5.64528e-25
3.27386e-24
6.66004e-27
2.52385e-11
3.992e-11
2.24836e-12
1.26617e-13
7.13121e-15
4.01731e-16
2.26252e-17
1.27637e-18
7.15573e-20
4.12896e-21
2.12002e-22
1.59347e-23
1.3172e-25
5.9035e-25
1.72601e-25
2.97286e-26
8.02982e-27
3.6854e-25
2.49913e-24
3.65921e-27
2.53118e-11
4.03086e-11
2.27142e-12
1.27979e-13
7.21192e-15
4.06424e-16
2.29168e-17
1.29012e-18
7.31384e-20
4.03825e-21
2.47229e-22
1.02741e-23
1.66916e-24
6.41196e-26
1.73518e-25
8.5571e-27
3.32898e-27
2.6203e-25
1.84679e-24
2.13001e-27
2.54095e-11
4.06578e-11
2.29194e-12
1.29187e-13
7.28265e-15
4.10637e-16
2.31489e-17
1.3069e-18
7.34105e-20
4.21588e-21
2.21354e-22
1.63244e-23
1.85964e-25
4.30313e-25
1.19446e-25
3.24449e-26
5.84108e-28
1.99044e-25
1.35312e-24
4.73301e-28
2.5525e-11
4.09609e-11
2.30983e-12
1.30237e-13
7.34431e-15
4.14202e-16
2.33668e-17
1.31754e-18
7.4481e-20
4.17432e-21
2.43445e-22
1.18993e-23
1.18566e-24
1.01953e-26
8.17366e-26
1.9378e-27
1.05567e-26
9.44768e-26
7.42291e-25
1.78189e-27
2.55638e-11
4.12321e-11
2.32913e-12
1.31554e-13
7.43134e-15
4.19865e-16
2.37225e-17
1.34094e-18
7.57081e-20
4.29247e-21
2.43605e-22
1.34888e-23
7.94743e-25
6.06431e-26
7.90679e-27
1.04172e-26
6.29546e-26
1.33221e-26
3.94332e-25
6.94032e-27
2.6339e-11
4.15705e-11
2.36862e-12
1.33876e-13
7.63484e-15
4.34111e-16
2.48561e-17
1.4013e-18
8.5002e-20
3.99625e-21
4.28246e-22
3.95928e-25
1.27967e-23
2.98474e-24
2.21418e-24
9.5851e-25
4.39981e-25
4.58865e-26
2.6477e-26
1.28089e-26
)
;

boundaryField
{
    movingWall
    {
        type            calculated;
        value           nonuniform List<scalar> 
20
(
3.03744e-11
4.27331e-11
2.49187e-12
1.41008e-13
8.21978e-15
4.74727e-16
2.77345e-17
1.58638e-18
1.03429e-19
4.18969e-21
7.33942e-22
5.40462e-24
4.21469e-23
1.40114e-23
9.7508e-24
4.75468e-24
2.26529e-24
1.59498e-25
3.55028e-25
1.05257e-25
)
;
    }
    fixedWalls
    {
        type            calculated;
        value           nonuniform List<scalar> 
60
(
6.62209e-10
6.64586e-10
6.64472e-10
6.6547e-10
6.6622e-10
6.67803e-10
6.70013e-10
6.73276e-10
6.77421e-10
6.82577e-10
6.88514e-10
6.95178e-10
7.02261e-10
7.09594e-10
7.16812e-10
7.23656e-10
7.29815e-10
7.35142e-10
7.38886e-10
7.45929e-10
1.42632e-26
6.31922e-26
2.0237e-25
3.38662e-25
7.06251e-25
9.95258e-25
1.32703e-24
1.78731e-24
2.36183e-24
2.77808e-24
2.99712e-24
3.13747e-24
3.17501e-24
3.19608e-24
2.76168e-24
2.15668e-24
1.64407e-24
1.05785e-24
3.86142e-25
1.59894e-25
2.3548e-11
3.67803e-11
2.06297e-12
1.17702e-13
6.57693e-15
3.81916e-16
2.03562e-17
1.37017e-18
4.61952e-20
9.25004e-21
7.57901e-23
4.25721e-22
1.28849e-22
7.91306e-23
3.53574e-23
1.65497e-23
6.8734e-24
1.05171e-24
4.84294e-27
3.99785e-28
)
;
    }
    frontAndBack
    {
        type            empty;
    }
}


// ************************************************************************* //
