/*--------------------------------*- C++ -*----------------------------------*\
| =========                 |                                                 |
| \\      /  F ield         | OpenFOAM: The Open Source CFD Toolbox           |
|  \\    /   O peration     | Version:  2506                                  |
|   \\  /    A nd           | Website:  www.openfoam.com                      |
|    \\/     M anipulation  |                                                 |
\*---------------------------------------------------------------------------*/
FoamFile
{
    version     2.0;
    format      ascii;
    arch        "LSB;label=32;scalar=64";
    class       volScalarField;
    location    "3.875";
    object      flowTypeField;
}
// * * * * * * * * * * * * * * * * * * * * * * * * * * * * * * * * * * * * * //

dimensions      [0 0 0 0 0 0 0];

internalField   nonuniform List<scalar> 
400
(
-0.0119459
-0.0028558
-0.00497765
-0.00685398
-0.00771414
-0.0155897
-0.00542228
-0.0481796
0.0602079
-0.271006
0.783743
-0.272853
0.177336
0.0284223
0.0847538
0.0973258
0.208993
0.486798
0.920004
0.613731
-0.0220555
-0.0046649
-0.00813532
-0.00973915
-0.0124276
-0.0189022
-0.017006
-0.0359411
-0.0120363
-0.0920321
0.108712
0.172577
0.636857
0.995104
0.784662
0.885459
0.983602
0.696433
0.21719
0.163898
-0.0236664
-0.00403
-0.00735988
-0.00630326
-0.0103091
-0.0096361
-0.0161004
-0.00647456
-0.043259
0.0452242
-0.223912
0.352983
0.77353
0.650802
0.73202
0.714441
0.793815
0.477119
0.00336396
0.123987
-0.0268565
-0.00425229
-0.00815038
-0.0065065
-0.0104409
-0.0119041
-0.0100132
-0.0235358
0.00520501
-0.0873681
0.137485
-0.266704
0.523997
0.756547
0.62091
0.69122
0.872546
0.400527
0.0280309
-0.0640773
-0.0260416
-0.00375386
-0.00768009
-0.00518954
-0.00939656
-0.00845933
-0.0100436
-0.00703878
-0.023124
0.0375657
-0.181729
0.303522
0.694779
0.620695
0.644554
0.683028
0.975111
0.333682
0.0343535
0.14206
-0.0239431
-0.00299187
-0.00683978
-0.00346712
-0.00772845
-0.00570199
-0.00466823
-0.00840342
0.00796572
-0.0291305
0.103459
-0.276226
0.43344
0.631209
0.466109
0.576922
0.847828
0.18077
0.00251898
0.0383244
-0.0198257
-0.0018791
-0.00531551
-0.00120257
-0.00497365
-0.00161227
0.00035594
0.00126573
0.00621443
0.03097
-0.0232231
0.204342
0.834577
0.392433
0.451668
0.493877
0.795291
0.149959
-0.0193057
-0.0393184
-0.0150974
-0.000718902
-0.00370203
0.00112864
-0.0024922
0.00254523
0.00472125
0.00699106
0.0186211
0.0201934
0.069425
0.0511637
0.277851
0.470598
0.337079
0.365665
0.868921
0.0688028
-0.00925618
-0.0215012
-0.00946459
0.000532679
-0.00180862
0.00350489
0.000524137
0.00644914
0.0103193
0.0124913
0.0275685
0.0349359
0.0517844
0.12292
0.821434
0.279402
0.352067
0.43914
0.75892
0.0634302
0.00133741
0.0880685
-0.00380941
0.00164362
-3.05366e-05
0.00550397
0.00290143
0.00988155
0.013247
0.0180927
0.0304522
0.0420972
0.0602434
0.140017
0.176224
0.409392
0.250294
0.383189
0.894794
-0.00208031
-0.0356308
0.018829
0.00197746
0.00267675
0.00176589
0.00721771
0.00538237
0.0126057
0.0169611
0.02119
0.0371513
0.0441756
0.0747604
0.0959445
0.74768
0.212521
0.287201
0.326782
0.918252
0.0442422
-0.0074682
0.0139107
0.00741071
0.00347944
0.00334753
0.00834488
0.0072218
0.014387
0.0183431
0.0237184
0.0366144
0.0490473
0.0581826
0.165879
0.101584
0.354845
0.210796
0.419729
0.803841
0.109756
-0.0149692
0.00685113
0.0124269
0.0041227
0.00477338
0.0091171
0.00883236
0.0156235
0.0195836
0.0250798
0.0379878
0.0463812
0.0710612
0.0724308
0.744522
0.218412
0.275695
0.30813
0.904704
0.0757382
-0.00505154
-0.12936
0.0169052
0.00454832
0.00597351
0.00936588
0.0100059
0.0158556
0.0197601
0.0246169
0.0366467
0.0433184
0.059231
0.144202
0.165291
0.435843
0.279808
0.482712
0.98233
0.0626885
-0.0606835
0.132854
0.0205835
0.00480377
0.00691161
0.00934166
0.0107513
0.015888
0.0190516
0.0248993
0.0329674
0.0425905
0.0593672
0.0847746
0.609574
0.249831
0.402238
0.614522
0.74452
0.180499
-0.0190336
0.471837
0.0237417
0.00493188
0.00768497
0.00905165
0.0113355
0.0152748
0.0185026
0.0230475
0.0315482
0.0365563
0.0493904
0.1194
0.177766
0.658222
0.434597
0.764222
0.828966
0.28304
-0.0142662
0.647299
0.0258323
0.00491044
0.00814544
0.0085984
0.0114078
0.0145425
0.0169535
0.0220968
0.0265094
0.0341384
0.0475008
0.0516611
0.58138
0.279254
0.472062
0.589073
0.93366
0.316367
-0.0529397
0.862746
0.0268717
0.00471941
0.00835139
0.00813948
0.0114274
0.0140101
0.016665
0.0208418
0.0271457
0.0296029
0.0469262
0.0901178
0.239124
0.843589
0.525751
0.881167
0.731271
0.460096
-0.0285528
0.77754
0.0285736
0.00409195
0.00731784
0.00539847
0.00746335
0.00835785
0.00784272
0.0105994
0.0100171
0.0157944
0.00231348
0.0995025
0.295856
0.6941
0.844541
0.767187
0.52149
0.775949
-0.0445816
0.656487
0.0151839
0.00184469
0.00319247
0.00164077
0.00190116
0.00234352
-0.00137378
0.00709707
-0.0222718
0.0738582
-0.251387
0.843268
-0.268656
0.157435
0.0239768
0.135403
0.289202
0.687181
0.644294
0.659081
)
;

boundaryField
{
    movingWall
    {
        type            calculated;
        value           nonuniform List<scalar> 
20
(
0.752621
0.264748
0.256242
0.256861
0.24972
0.24487
0.237336
0.238177
0.194049
0.3111
-0.0862443
0.681898
-0.178351
0.0667657
-0.018783
0.034459
0.107149
0.518866
0.326686
0.343122
)
;
    }
    fixedWalls
    {
        type            calculated;
        value           nonuniform List<scalar> 
60
(
-0.00227878
-0.00416175
-0.00437836
-0.00478939
-0.00435029
-0.00359528
-0.00242176
-0.00116824
0.000212251
0.0014643
0.00265029
0.00360384
0.00439553
0.00495832
0.00533692
0.00557177
0.00563229
0.00553107
0.00563754
0.00293733
0.124096
0.0826717
0.0289701
0.0704843
-0.0370148
0.00662242
0.0348321
0.0161504
-0.0112855
0.000512362
0.000278208
4.8509e-05
0.0107902
0.000294864
0.012928
0.0307515
0.011909
0.00341937
0.147842
0.207836
0.766126
0.268188
0.268609
0.263757
0.265171
0.253948
0.271305
0.208838
0.372379
-0.0843365
0.67131
-0.206928
0.0792322
-0.0188559
0.0146464
0.0143755
0.0566153
0.220203
0.838177
0.816515
)
;
    }
    frontAndBack
    {
        type            empty;
    }
}


// ************************************************************************* //
