/*--------------------------------*- C++ -*----------------------------------*\
| =========                 |                                                 |
| \\      /  F ield         | OpenFOAM: The Open Source CFD Toolbox           |
|  \\    /   O peration     | Version:  2506                                  |
|   \\  /    A nd           | Website:  www.openfoam.com                      |
|    \\/     M anipulation  |                                                 |
\*---------------------------------------------------------------------------*/
FoamFile
{
    version     2.0;
    format      ascii;
    arch        "LSB;label=32;scalar=64";
    class       surfaceScalarField;
    location    "3.875";
    object      fluxField;
}
// * * * * * * * * * * * * * * * * * * * * * * * * * * * * * * * * * * * * * //

dimensions      [0 3 -1 0 0 0 0];

oriented        oriented;

internalField   nonuniform List<scalar> 
760
(
-5e-05
3.25353e-16
-5e-05
-4.10017e-16
-5e-05
3.91642e-16
-5e-05
-8.37593e-17
-5e-05
7.15193e-17
-5e-05
-3.4729e-18
-5e-05
1.27168e-17
-5e-05
2.68204e-18
-5e-05
3.36644e-18
-5e-05
1.74025e-18
-5e-05
1.38339e-18
-5e-05
9.46581e-19
-5e-05
7.24702e-19
-5e-05
5.39872e-19
-5e-05
4.03414e-19
-5e-05
3.02299e-19
-5e-05
2.59509e-19
-5e-05
2.34154e-19
-5e-05
1.27215e-19
-2.93871e-20
-5e-05
-9.48301e-16
-5e-05
9.1617e-16
-5e-05
-3.1231e-17
-5e-05
1.09268e-16
-5e-05
2.75424e-17
-5e-05
1.94625e-17
-5e-05
1.22302e-17
-5e-05
7.15242e-18
-5e-05
5.13265e-18
-5e-05
3.39908e-18
-5e-05
2.49128e-18
-5e-05
1.81174e-18
-5e-05
1.37343e-18
-5e-05
1.02887e-18
-5e-05
7.7379e-19
-5e-05
5.93168e-19
-5e-05
5.04875e-19
-5e-05
4.55396e-19
-5e-05
2.31694e-19
-6.19812e-20
-5e-05
-2.04332e-16
-5e-05
-4.10039e-16
-5e-05
1.73055e-16
-5e-05
-2.35483e-17
-5e-05
4.55836e-17
-5e-05
1.30265e-17
-5e-05
1.45037e-17
-5e-05
8.22616e-18
-5e-05
6.30117e-18
-5e-05
4.38467e-18
-5e-05
3.27689e-18
-5e-05
2.45249e-18
-5e-05
1.88344e-18
-5e-05
1.42726e-18
-5e-05
1.08384e-18
-5e-05
8.40781e-19
-5e-05
7.2132e-19
-5e-05
6.58565e-19
-5e-05
3.31632e-19
-9.45875e-20
-5e-05
1.45481e-15
-5e-05
-2.21745e-16
-5e-05
7.5621e-17
-5e-05
1.17979e-17
-5e-05
2.10009e-17
-5e-05
1.38553e-17
-5e-05
1.15321e-17
-5e-05
8.35545e-18
-5e-05
6.40727e-18
-5e-05
4.80536e-18
-5e-05
3.68315e-18
-5e-05
2.84125e-18
-5e-05
2.23055e-18
-5e-05
1.72296e-18
-5e-05
1.32741e-18
-5e-05
1.03578e-18
-5e-05
9.02026e-19
-5e-05
8.4069e-19
-5e-05
4.22738e-19
-1.25718e-19
-5e-05
-3.3813e-15
-5e-05
8.65525e-16
-5e-05
-1.92611e-16
-5e-05
6.46062e-17
-5e-05
-1.43105e-18
-5e-05
1.41815e-17
-5e-05
8.20204e-18
-5e-05
7.71433e-18
-5e-05
5.92958e-18
-5e-05
4.79282e-18
-5e-05
3.7823e-18
-5e-05
3.02323e-18
-5e-05
2.42981e-18
-5e-05
1.91024e-18
-5e-05
1.48937e-18
-5e-05
1.17361e-18
-5e-05
1.03702e-18
-5e-05
9.78667e-19
-5e-05
4.87622e-19
-1.59071e-19
-5e-05
5.30227e-15
-5e-05
-1.55267e-15
-5e-05
3.72595e-16
-5e-05
-1.01917e-16
-5e-05
3.54923e-17
-5e-05
1.132e-19
-5e-05
9.30255e-18
-5e-05
5.74242e-18
-5e-05
5.54475e-18
-5e-05
4.44596e-18
-5e-05
3.71226e-18
-5e-05
3.03682e-18
-5e-05
2.50294e-18
-5e-05
1.99367e-18
-5e-05
1.57342e-18
-5e-05
1.25829e-18
-5e-05
1.12592e-18
-5e-05
1.07342e-18
-5e-05
5.28598e-19
-1.93387e-19
-5e-05
-7.37756e-15
-5e-05
2.12094e-15
-5e-05
-5.10582e-16
-5e-05
1.47055e-16
-5e-05
-3.27207e-17
-5e-05
1.54037e-17
-5e-05
2.91698e-18
-5e-05
5.99129e-18
-5e-05
4.53031e-18
-5e-05
4.15869e-18
-5e-05
3.48036e-18
-5e-05
2.95183e-18
-5e-05
2.47406e-18
-5e-05
2.0047e-18
-5e-05
1.60025e-18
-5e-05
1.2941e-18
-5e-05
1.17404e-18
-5e-05
1.13438e-18
-5e-05
5.53164e-19
-2.25069e-19
-5e-05
9.29824e-15
-5e-05
-2.70701e-15
-5e-05
6.54647e-16
-5e-05
-1.8253e-16
-5e-05
5.17242e-17
-5e-05
-8.38411e-18
-5e-05
8.03989e-18
-5e-05
3.53859e-18
-5e-05
4.38832e-18
-5e-05
3.64308e-18
-5e-05
3.26062e-18
-5e-05
2.78997e-18
-5e-05
2.39075e-18
-5e-05
1.96469e-18
-5e-05
1.58242e-18
-5e-05
1.28865e-18
-5e-05
1.18858e-18
-5e-05
1.16394e-18
-5e-05
5.55114e-19
-2.54004e-19
-5e-05
-1.10922e-14
-5e-05
3.16756e-15
-5e-05
-7.66922e-16
-5e-05
2.13433e-16
-5e-05
-5.24651e-17
-5e-05
1.77771e-17
-5e-05
-2.03924e-20
-5e-05
4.88142e-18
-5e-05
3.40774e-18
-5e-05
3.43866e-18
-5e-05
2.9731e-18
-5e-05
2.6213e-18
-5e-05
2.26767e-18
-5e-05
1.88523e-18
-5e-05
1.52932e-18
-5e-05
1.25631e-18
-5e-05
1.17601e-18
-5e-05
1.16096e-18
-5e-05
5.39675e-19
-2.81465e-19
-5e-05
1.25153e-14
-5e-05
-3.56029e-15
-5e-05
8.5855e-16
-5e-05
-2.35124e-16
-5e-05
6.39644e-17
-5e-05
-1.24798e-17
-5e-05
7.78357e-18
-5e-05
2.39896e-18
-5e-05
3.62649e-18
-5e-05
2.99544e-18
-5e-05
2.77802e-18
-5e-05
2.42984e-18
-5e-05
2.13699e-18
-5e-05
1.78062e-18
-5e-05
1.45213e-18
-5e-05
1.19835e-18
-5e-05
1.13231e-18
-5e-05
1.13079e-18
-5e-05
5.14624e-19
-3.00342e-19
-5e-05
-1.36617e-14
-5e-05
3.84944e-15
-5e-05
-9.20816e-16
-5e-05
2.5637e-16
-5e-05
-6.16346e-17
-5e-05
2.00275e-17
-5e-05
-1.07915e-18
-5e-05
4.423e-18
-5e-05
2.78133e-18
-5e-05
2.90755e-18
-5e-05
2.51806e-18
-5e-05
2.26029e-18
-5e-05
1.98701e-18
-5e-05
1.65936e-18
-5e-05
1.35358e-18
-5e-05
1.11741e-18
-5e-05
1.06696e-18
-5e-05
1.07887e-18
-5e-05
4.84124e-19
-3.09581e-19
-5e-05
1.42056e-14
-5e-05
-3.9541e-15
-5e-05
9.5162e-16
-5e-05
-2.53769e-16
-5e-05
6.93953e-17
-5e-05
-1.3065e-17
-5e-05
7.83048e-18
-5e-05
2.02191e-18
-5e-05
3.18478e-18
-5e-05
2.54232e-18
-5e-05
2.35547e-18
-5e-05
2.06385e-18
-5e-05
1.82415e-18
-5e-05
1.52142e-18
-5e-05
1.24193e-18
-5e-05
1.02391e-18
-5e-05
9.91716e-19
-5e-05
1.01219e-18
-5e-05
4.45415e-19
-3.15751e-19
-5e-05
-1.44199e-14
-5e-05
4.00556e-15
-5e-05
-9.48934e-16
-5e-05
2.6411e-16
-5e-05
-6.11139e-17
-5e-05
2.04823e-17
-5e-05
-1.0134e-18
-5e-05
4.1486e-18
-5e-05
2.42531e-18
-5e-05
2.49909e-18
-5e-05
2.11361e-18
-5e-05
1.87979e-18
-5e-05
1.64809e-18
-5e-05
1.37521e-18
-5e-05
1.12044e-18
-5e-05
9.26932e-19
-5e-05
9.08698e-19
-5e-05
9.2891e-19
-5e-05
3.98061e-19
-3.17206e-19
-5e-05
1.38543e-14
-5e-05
-3.77154e-15
-5e-05
9.07762e-16
-5e-05
-2.34688e-16
-5e-05
6.50982e-17
-5e-05
-1.12417e-17
-5e-05
7.27833e-18
-5e-05
1.88811e-18
-5e-05
2.77336e-18
-5e-05
2.13932e-18
-5e-05
1.92762e-18
-5e-05
1.6638e-18
-5e-05
1.46781e-18
-5e-05
1.21353e-18
-5e-05
9.82858e-19
-5e-05
8.18362e-19
-5e-05
8.10008e-19
-5e-05
8.37825e-19
-5e-05
3.50061e-19
-3.06597e-19
-5e-05
-1.29858e-14
-5e-05
3.54894e-15
-5e-05
-8.37527e-16
-5e-05
2.30855e-16
-5e-05
-5.20261e-17
-5e-05
1.79685e-17
-5e-05
-6.36445e-19
-5e-05
3.56466e-18
-5e-05
2.01741e-18
-5e-05
2.0037e-18
-5e-05
1.65129e-18
-5e-05
1.45013e-18
-5e-05
1.2648e-18
-5e-05
1.04035e-18
-5e-05
8.3586e-19
-5e-05
6.98758e-19
-5e-05
6.94761e-19
-5e-05
7.3051e-19
-5e-05
2.99148e-19
-2.81772e-19
-5e-05
1.13188e-14
-5e-05
-3.00318e-15
-5e-05
7.22187e-16
-5e-05
-1.79718e-16
-5e-05
4.97334e-17
-5e-05
-7.92728e-18
-5e-05
5.48966e-18
-5e-05
1.56881e-18
-5e-05
2.0668e-18
-5e-05
1.57708e-18
-5e-05
1.38825e-18
-5e-05
1.18327e-18
-5e-05
1.03203e-18
-5e-05
8.45073e-19
-5e-05
6.76702e-19
-5e-05
5.62055e-19
-5e-05
5.66761e-19
-5e-05
6.04551e-19
-5e-05
2.41598e-19
-2.46525e-19
-5e-05
-9.4102e-15
-5e-05
2.51305e-15
-5e-05
-6.15967e-16
-5e-05
1.62828e-16
-5e-05
-3.91748e-17
-5e-05
1.36247e-17
-5e-05
-8.03781e-19
-5e-05
2.58788e-18
-5e-05
1.25105e-18
-5e-05
1.32278e-18
-5e-05
1.04952e-18
-5e-05
9.24238e-19
-5e-05
7.9321e-19
-5e-05
6.51069e-19
-5e-05
5.1881e-19
-5e-05
4.27798e-19
-5e-05
4.39563e-19
-5e-05
4.72669e-19
-5e-05
1.86708e-19
-2.02547e-19
-5e-05
7.05568e-15
-5e-05
-1.85708e-15
-5e-05
3.93377e-16
-5e-05
-7.00072e-17
-5e-05
1.65653e-17
-5e-05
1.68235e-18
-5e-05
1.02375e-18
-5e-05
1.65665e-18
-5e-05
8.98396e-19
-5e-05
9.64269e-19
-5e-05
7.40013e-19
-5e-05
6.61156e-19
-5e-05
5.59469e-19
-5e-05
4.55841e-19
-5e-05
3.62166e-19
-5e-05
2.98108e-19
-5e-05
3.08149e-19
-5e-05
3.41828e-19
-5e-05
1.45117e-19
-1.50916e-19
-5e-05
-5.37958e-15
-5e-05
2.65505e-15
-5e-05
-7.78189e-16
-5e-05
2.77124e-16
-5e-05
-8.80229e-17
-5e-05
2.84786e-17
-5e-05
-7.82719e-18
-5e-05
3.34339e-18
-5e-05
-1.9104e-19
-5e-05
7.2319e-19
-5e-05
3.30346e-19
-5e-05
3.54727e-19
-5e-05
2.77531e-19
-5e-05
2.25095e-19
-5e-05
1.75964e-19
-5e-05
1.43793e-19
-5e-05
1.57288e-19
-5e-05
1.94498e-19
-5e-05
9.49552e-20
-8.51862e-20
-5e-05
-5e-05
-5e-05
-5e-05
-5e-05
-5e-05
-5e-05
-5e-05
-5e-05
-5e-05
-5e-05
-5e-05
-5e-05
-5e-05
-5e-05
-5e-05
-5e-05
-5e-05
-5e-05
)
;

boundaryField
{
    movingWall
    {
        type            calculated;
        value           uniform -0;
    }
    fixedWalls
    {
        type            calculated;
        value           nonuniform List<scalar> 
60
(
5e-05
5e-05
5e-05
5e-05
5e-05
5e-05
5e-05
5e-05
5e-05
5e-05
5e-05
5e-05
5e-05
5e-05
5e-05
5e-05
5e-05
5e-05
5e-05
5e-05
-5e-05
-5e-05
-5e-05
-5e-05
-5e-05
-5e-05
-5e-05
-5e-05
-5e-05
-5e-05
-5e-05
-5e-05
-5e-05
-5e-05
-5e-05
-5e-05
-5e-05
-5e-05
-5e-05
-5e-05
0
0
0
0
0
0
0
0
0
0
0
0
0
0
0
0
0
0
0
0
)
;
    }
    frontAndBack
    {
        type            empty;
    }
}


// ************************************************************************* //
