/*--------------------------------*- C++ -*----------------------------------*\
| =========                 |                                                 |
| \\      /  F ield         | OpenFOAM: The Open Source CFD Toolbox           |
|  \\    /   O peration     | Version:  2506                                  |
|   \\  /    A nd           | Website:  www.openfoam.com                      |
|    \\/     M anipulation  |                                                 |
\*---------------------------------------------------------------------------*/
FoamFile
{
    version     2.0;
    format      ascii;
    arch        "LSB;label=32;scalar=64";
    class       volTensorField;
    location    "3.875";
    object      gradU;
}
// * * * * * * * * * * * * * * * * * * * * * * * * * * * * * * * * * * * * * //

dimensions      [0 0 -1 0 0 0 0];

internalField   nonuniform List<tensor> 
400
(
(1.89502e-08 6.92932e-06 0 -8.28034e-08 1.30141e-09 0 0 0 0)
(-1.76089e-08 -8.5676e-06 0 2.44857e-08 -1.64007e-09 0 0 0 0)
(-1.2934e-09 2.02746e-06 0 -1.0093e-08 1.56657e-09 0 0 0 0)
(7.43708e-10 -4.81218e-07 0 3.29896e-09 -3.35037e-10 0 0 0 0)
(-8.33047e-10 1.1389e-07 0 -8.82026e-10 2.86077e-10 0 0 0 0)
(2.01201e-10 -2.70036e-08 0 4.21755e-10 -1.38916e-11 0 0 0 0)
(-1.24168e-10 6.3856e-09 0 -3.60497e-11 5.0867e-11 0 0 0 0)
(1.1601e-11 -1.51822e-09 0 7.32379e-11 1.07282e-11 0 0 0 0)
(-2.19009e-11 3.55384e-10 0 2.05727e-11 1.34658e-11 0 0 0 0)
(-5.01444e-12 -8.63658e-11 0 2.41506e-11 6.961e-12 0 0 0 0)
(-6.451e-12 1.89965e-11 0 1.46638e-11 5.53355e-12 0 0 0 0)
(-3.65918e-12 -5.37629e-12 0 1.14925e-11 3.78632e-12 0 0 0 0)
(-2.95445e-12 6.8918e-13 0 8.0231e-12 2.89881e-12 0 0 0 0)
(-2.1413e-12 -5.89778e-13 0 5.77338e-12 2.15949e-12 0 0 0 0)
(-1.57209e-12 -1.93561e-13 0 3.98444e-12 1.61366e-12 0 0 0 0)
(-1.16552e-12 -1.57688e-13 0 2.71051e-12 1.2092e-12 0 0 0 0)
(-1.0571e-12 -6.61375e-14 0 1.65341e-12 1.03803e-12 0 0 0 0)
(-1.00289e-12 -1.18049e-13 0 5.69206e-13 9.36616e-13 0 0 0 0)
(-3.25261e-13 -2.56855e-13 0 -2.1684e-13 5.08859e-13 0 0 0 0)
(8.13152e-14 -1.17095e-13 0 -5.42101e-14 -1.17548e-13 0 0 0 0)
(-7.72678e-08 -6.92966e-06 0 1.53289e-07 -5.09461e-09 0 0 0 0)
(9.03193e-08 8.56787e-06 0 -4.04504e-08 5.30475e-09 0 0 0 0)
(-1.98935e-08 -2.02616e-06 0 1.65834e-08 -1.69149e-09 0 0 0 0)
(8.46729e-09 4.79937e-07 0 -4.75097e-09 7.72108e-10 0 0 0 0)
(-2.04413e-09 -1.13569e-07 0 1.43039e-09 -1.75908e-10 0 0 0 0)
(6.44802e-10 2.67684e-08 0 -5.1421e-10 9.17415e-11 0 0 0 0)
(-2.24376e-10 -6.36098e-09 0 1.12269e-10 -1.94606e-12 0 0 0 0)
(4.50486e-11 1.48082e-09 0 -5.40746e-11 1.78815e-11 0 0 0 0)
(-2.71864e-11 -3.59151e-10 0 5.44812e-12 7.06485e-12 0 0 0 0)
(-8.94467e-13 7.84336e-11 0 -7.56231e-12 6.63532e-12 0 0 0 0)
(-6.23416e-12 -2.21712e-11 0 -1.35525e-12 4.43156e-12 0 0 0 0)
(-2.95445e-12 2.74154e-12 0 -1.84314e-12 3.46065e-12 0 0 0 0)
(-2.79182e-12 -2.31602e-12 0 -9.21572e-13 2.59491e-12 0 0 0 0)
(-1.89735e-12 -6.95375e-13 0 -7.04731e-13 1.95599e-12 0 0 0 0)
(-1.43657e-12 -7.56732e-13 0 -3.79471e-13 1.48151e-12 0 0 0 0)
(-1.16552e-12 -4.17934e-13 0 -2.71051e-13 1.16348e-12 0 0 0 0)
(-1.0842e-12 -2.06443e-13 0 -1.89735e-13 9.81466e-13 0 0 0 0)
(-8.94467e-13 -4.11127e-13 0 -8.13152e-14 8.84969e-13 0 0 0 0)
(-2.43945e-13 -7.97309e-13 0 -8.13152e-14 4.17915e-13 0 0 0 0)
(1.35525e-13 -2.74216e-13 0 0 -1.30376e-13 0 0 0 0)
(1.31789e-07 6.92953e-06 0 -1.65312e-07 2.97588e-09 0 0 0 0)
(-1.54314e-07 -8.5642e-06 0 3.59169e-08 -5.30484e-09 0 0 0 0)
(3.44061e-08 2.02293e-06 0 -1.51856e-08 8.17145e-10 0 0 0 0)
(-1.44094e-08 -4.79702e-07 0 3.24315e-09 -5.31263e-10 0 0 0 0)
(3.40366e-09 1.1321e-07 0 -1.21935e-09 7.21651e-11 0 0 0 0)
(-1.11686e-09 -2.68297e-08 0 2.82245e-10 -2.5744e-11 0 0 0 0)
(3.35913e-10 6.31174e-09 0 -1.1086e-10 9.09372e-12 0 0 0 0)
(-9.52201e-11 -1.50921e-09 0 1.28207e-11 4.29498e-12 0 0 0 0)
(2.46385e-11 3.44137e-10 0 -1.58836e-11 4.67405e-12 0 0 0 0)
(-1.18449e-11 -8.89991e-11 0 -3.2255e-12 3.94235e-12 0 0 0 0)
(-7.31836e-13 1.58218e-11 0 -4.06576e-12 3.14244e-12 0 0 0 0)
(-3.1984e-12 -7.21294e-12 0 -2.00577e-12 2.56297e-12 0 0 0 0)
(-1.81604e-12 -8.15485e-13 0 -1.38236e-12 2.04005e-12 0 0 0 0)
(-1.5992e-12 -1.70318e-12 0 -8.40257e-13 1.59358e-12 0 0 0 0)
(-1.19262e-12 -9.86075e-13 0 -5.42101e-13 1.24021e-12 0 0 0 0)
(-9.48677e-13 -6.57726e-13 0 -2.98156e-13 9.90452e-13 0 0 0 0)
(-8.94467e-13 -3.44644e-13 0 -1.35525e-13 8.65779e-13 0 0 0 0)
(-8.94467e-13 -6.816e-13 0 -2.71051e-14 8.12675e-13 0 0 0 0)
(-2.43945e-13 -1.2722e-12 0 8.13152e-14 3.99755e-13 0 0 0 0)
(1.89735e-13 -4.04633e-13 0 0 -1.30425e-13 0 0 0 0)
(-2.06663e-07 -6.93199e-06 0 1.89423e-07 6.63658e-09 0 0 0 0)
(2.40445e-07 8.56571e-06 0 -3.98275e-08 7.53178e-10 0 0 0 0)
(-5.25672e-08 -2.02139e-06 0 1.71699e-08 -3.89737e-10 0 0 0 0)
(2.24336e-08 4.79192e-07 0 -3.64989e-09 1.41385e-10 0 0 0 0)
(-5.00498e-09 -1.13064e-07 0 1.29364e-09 -9.83309e-11 0 0 0 0)
(1.75324e-09 2.67054e-08 0 -3.76842e-10 3.31538e-12 0 0 0 0)
(-4.93773e-10 -6.33094e-09 0 8.30499e-11 -1.18864e-11 0 0 0 0)
(1.40079e-10 1.4764e-09 0 -4.17147e-11 5.17125e-13 0 0 0 0)
(-4.32597e-11 -3.59503e-10 0 7.04731e-13 4.2441e-13 0 0 0 0)
(1.09504e-11 7.6902e-11 0 -7.67073e-12 1.68277e-12 0 0 0 0)
(-5.01444e-12 -2.35505e-11 0 -2.79182e-12 1.62506e-12 0 0 0 0)
(-3.25261e-13 1.63916e-12 0 -2.54788e-12 1.55505e-12 0 0 0 0)
(-1.5992e-12 -3.28541e-12 0 -1.51788e-12 1.38844e-12 0 0 0 0)
(-1.02999e-12 -1.49521e-12 0 -1.02999e-12 1.1828e-12 0 0 0 0)
(-9.21572e-13 -1.35985e-12 0 -7.04731e-13 9.74277e-13 0 0 0 0)
(-7.58942e-13 -7.92365e-13 0 -4.33681e-13 7.79978e-13 0 0 0 0)
(-8.13152e-13 -3.8422e-13 0 -2.71051e-13 7.22823e-13 0 0 0 0)
(-6.77626e-13 -8.77151e-13 0 -1.35525e-13 7.28499e-13 0 0 0 0)
(-2.1684e-13 -1.74041e-12 0 0 3.64423e-13 0 0 0 0)
(5.42101e-14 -5.43546e-13 0 5.42101e-14 -1.24521e-13 0 0 0 0)
(2.81384e-07 6.93692e-06 0 -1.8669e-07 -1.93445e-08 0 0 0 0)
(-3.26568e-07 -8.57123e-06 0 3.84444e-08 4.34908e-09 0 0 0 0)
(7.05837e-08 2.02232e-06 0 -1.67827e-08 -1.07293e-09 0 0 0 0)
(-3.02856e-08 -4.79411e-07 0 3.45457e-09 2.11233e-10 0 0 0 0)
(6.67673e-09 1.13072e-07 0 -1.26339e-09 -8.97278e-11 0 0 0 0)
(-2.32751e-09 -2.67432e-08 0 3.29245e-10 1.30468e-12 0 0 0 0)
(6.71121e-10 6.30894e-09 0 -9.98008e-11 -1.33201e-11 0 0 0 0)
(-1.77592e-10 -1.4969e-09 0 2.12233e-11 -2.56447e-12 0 0 0 0)
(5.86011e-11 3.45303e-10 0 -1.32002e-11 -1.91076e-12 0 0 0 0)
(-1.53144e-11 -8.77985e-11 0 -2.05998e-12 -5.01551e-14 0 0 0 0)
(4.41812e-12 1.56941e-11 0 -3.7676e-12 3.96605e-13 0 0 0 0)
(-1.89735e-12 -7.44956e-12 0 -2.11419e-12 7.27923e-13 0 0 0 0)
(-3.25261e-13 -1.18774e-12 0 -1.76183e-12 7.97038e-13 0 0 0 0)
(-8.40257e-13 -2.11734e-12 0 -1.24683e-12 7.49092e-13 0 0 0 0)
(-5.69206e-13 -1.3889e-12 0 -8.40257e-13 6.47846e-13 0 0 0 0)
(-4.87891e-13 -9.09181e-13 0 -5.69206e-13 5.51328e-13 0 0 0 0)
(-5.96311e-13 -3.96124e-13 0 -3.79471e-13 5.39986e-13 0 0 0 0)
(-6.23416e-13 -1.04e-12 0 -1.89735e-13 5.51911e-13 0 0 0 0)
(-1.35525e-13 -2.12522e-12 0 -5.42101e-14 2.59535e-13 0 0 0 0)
(2.1684e-13 -6.44535e-13 0 -5.42101e-14 -1.33413e-13 0 0 0 0)
(-3.54908e-07 -6.94698e-06 0 1.75934e-07 3.47343e-08 0 0 0 0)
(4.10352e-07 8.58398e-06 0 -3.55548e-08 -9.6728e-09 0 0 0 0)
(-8.75571e-08 -2.02552e-06 0 1.57739e-08 2.26083e-09 0 0 0 0)
(3.79528e-08 4.80175e-07 0 -3.17563e-09 -6.66093e-10 0 0 0 0)
(-8.13032e-09 -1.13274e-07 0 1.17186e-09 1.47693e-10 0 0 0 0)
(2.91691e-09 2.67818e-08 0 -3.13443e-10 -5.62731e-11 0 0 0 0)
(-8.01849e-10 -6.33481e-09 0 8.08002e-11 4.40204e-12 0 0 0 0)
(2.2668e-10 1.48781e-09 0 -3.00866e-11 -7.88763e-12 0 0 0 0)
(-6.64887e-11 -3.56989e-10 0 3.25261e-12 -1.53931e-12 0 0 0 0)
(2.03559e-11 7.92094e-11 0 -5.09575e-12 -1.38744e-12 0 0 0 0)
(-5.06865e-12 -2.27725e-11 0 -1.89735e-12 -2.80162e-13 0 0 0 0)
(1.65341e-12 2.03959e-12 0 -2.08709e-12 5.43355e-14 0 0 0 0)
(-6.77626e-13 -3.26424e-12 0 -1.38236e-12 2.92506e-13 0 0 0 0)
(-1.0842e-13 -1.64441e-12 0 -1.02999e-12 3.33733e-13 0 0 0 0)
(-2.71051e-13 -1.55762e-12 0 -7.04731e-13 3.36183e-13 0 0 0 0)
(-3.25261e-13 -9.00225e-13 0 -4.87891e-13 3.38719e-13 0 0 0 0)
(-4.33681e-13 -3.83637e-13 0 -2.98156e-13 3.55575e-13 0 0 0 0)
(-3.25261e-13 -1.1576e-12 0 -1.35525e-13 3.79002e-13 0 0 0 0)
(-5.42101e-14 -2.42573e-12 0 0 1.63903e-13 0 0 0 0)
(1.35525e-13 -6.69669e-13 0 0 -1.37265e-13 0 0 0 0)
(4.21764e-07 6.96198e-06 0 -1.51511e-07 -5.07193e-08 0 0 0 0)
(-4.86728e-07 -8.6037e-06 0 2.99993e-08 1.46945e-08 0 0 0 0)
(1.02963e-07 2.03133e-06 0 -1.3438e-08 -3.53271e-09 0 0 0 0)
(-4.48876e-08 -4.81524e-07 0 2.67736e-09 9.95887e-10 0 0 0 0)
(9.53895e-09 1.13682e-07 0 -9.69954e-10 -2.72852e-10 0 0 0 0)
(-3.41857e-09 -2.68865e-08 0 2.61455e-10 6.11619e-11 0 0 0 0)
(9.54477e-10 6.35732e-09 0 -6.93889e-11 -2.55423e-11 0 0 0 0)
(-2.55167e-10 -1.50284e-09 0 1.97054e-11 9.95488e-13 0 0 0 0)
(8.3592e-11 3.51803e-10 0 -7.64363e-12 -4.05775e-12 0 0 0 0)
(-2.04372e-11 -8.65393e-11 0 -4.06576e-13 -1.14907e-12 0 0 0 0)
(7.42678e-12 1.71359e-11 0 -2.11419e-12 -9.27619e-13 0 0 0 0)
(-1.43657e-12 -6.87689e-12 0 -1.30104e-12 -3.3995e-13 0 0 0 0)
(7.04731e-13 -9.0834e-13 0 -1.11131e-12 -1.15492e-13 0 0 0 0)
(-8.13152e-14 -2.07366e-12 0 -8.13152e-13 4.41279e-14 0 0 0 0)
(-5.42101e-14 -1.38391e-12 0 -6.23416e-13 1.07319e-13 0 0 0 0)
(-1.0842e-13 -8.89789e-13 0 -4.33681e-13 1.43235e-13 0 0 0 0)
(-2.1684e-13 -3.55841e-13 0 -2.71051e-13 1.92504e-13 0 0 0 0)
(-3.25261e-13 -1.23167e-12 0 -1.35525e-13 2.43834e-13 0 0 0 0)
(8.13152e-14 -2.64149e-12 0 5.42101e-14 9.8267e-14 0 0 0 0)
(1.35525e-13 -6.71173e-13 0 5.42101e-14 -1.26728e-13 0 0 0 0)
(-4.76419e-07 -6.98301e-06 0 1.22504e-07 6.67032e-08 0 0 0 0)
(5.48425e-07 8.63117e-06 0 -2.36752e-08 -1.93118e-08 0 0 0 0)
(-1.14879e-07 -2.03922e-06 0 1.08145e-08 4.66092e-09 0 0 0 0)
(5.0421e-08 4.83435e-07 0 -2.07961e-09 -1.31834e-09 0 0 0 0)
(-1.05462e-08 -1.14208e-07 0 7.745e-10 3.3778e-10 0 0 0 0)
(3.81745e-09 2.70291e-08 0 -1.99575e-10 -9.51511e-11 0 0 0 0)
(-1.04357e-09 -6.39497e-09 0 5.4183e-11 2.04916e-11 0 0 0 0)
(2.88371e-10 1.50929e-09 0 -1.66425e-11 -9.81081e-12 0 0 0 0)
(-8.65735e-11 -3.59134e-10 0 3.36103e-12 -5.67986e-13 0 0 0 0)
(2.58311e-11 8.23395e-11 0 -2.24972e-12 -2.06244e-12 0 0 0 0)
(-5.93601e-12 -2.19633e-11 0 -8.13152e-13 -8.7895e-13 0 0 0 0)
(2.71051e-12 2.85172e-12 0 -1.0571e-12 -6.47433e-13 0 0 0 0)
(-1.89735e-13 -2.88017e-12 0 -7.86047e-13 -3.3327e-13 0 0 0 0)
(3.52366e-13 -1.42159e-12 0 -6.50521e-13 -1.60038e-13 0 0 0 0)
(1.35525e-13 -1.45851e-12 0 -4.87891e-13 -7.13157e-14 0 0 0 0)
(0 -8.1504e-13 0 -2.98156e-13 -2.17671e-14 0 0 0 0)
(-1.35525e-13 -2.83038e-13 0 -2.43945e-13 5.81491e-14 0 0 0 0)
(0 -1.25184e-12 0 -8.13152e-14 1.18237e-13 0 0 0 0)
(8.13152e-14 -2.7963e-12 0 2.71051e-14 7.80004e-15 0 0 0 0)
(5.42101e-14 -6.41208e-13 0 2.71051e-14 -1.15739e-13 0 0 0 0)
(5.20593e-07 7.00937e-06 0 -8.65269e-08 -8.15617e-08 0 0 0 0)
(-5.98418e-07 -8.66574e-06 0 1.60558e-08 2.34983e-08 0 0 0 0)
(1.24558e-07 2.04932e-06 0 -7.51344e-09 -5.68628e-09 0 0 0 0)
(-5.49276e-08 -4.85847e-07 0 1.3829e-09 1.58385e-09 0 0 0 0)
(1.1419e-08 1.14905e-07 0 -5.07325e-10 -4.16757e-10 0 0 0 0)
(-4.13889e-09 -2.72038e-08 0 1.35552e-10 1.04645e-10 0 0 0 0)
(1.13741e-09 6.44266e-09 0 -3.19298e-11 -3.22411e-11 0 0 0 0)
(-3.05962e-10 -1.5239e-09 0 1.09233e-11 5.3713e-12 0 0 0 0)
(9.80119e-11 3.59552e-10 0 -2.73761e-12 -3.92231e-12 0 0 0 0)
(-2.46114e-11 -8.68503e-11 0 2.1684e-13 -8.17701e-13 0 0 0 0)
(8.61941e-12 1.85509e-11 0 -8.67362e-13 -1.15009e-12 0 0 0 0)
(-1.43657e-12 -6.33121e-12 0 -6.23416e-13 -6.74686e-13 0 0 0 0)
(1.16552e-12 -4.20945e-13 0 -6.23416e-13 -4.92287e-13 0 0 0 0)
(1.35525e-13 -1.81171e-12 0 -4.87891e-13 -3.17862e-13 0 0 0 0)
(3.52366e-13 -1.24564e-12 0 -4.06576e-13 -2.12395e-13 0 0 0 0)
(1.35525e-13 -7.60324e-13 0 -3.25261e-13 -1.29396e-13 0 0 0 0)
(-5.42101e-14 -2.15836e-13 0 -1.6263e-13 -5.02751e-14 0 0 0 0)
(0 -1.28202e-12 0 -8.13152e-14 -1.18968e-14 0 0 0 0)
(1.35525e-13 -2.87546e-12 0 0 -6.17558e-14 0 0 0 0)
(1.35525e-13 -5.63234e-13 0 -2.71051e-14 -1.09845e-13 0 0 0 0)
(-5.46891e-07 -7.04107e-06 0 4.8862e-08 9.443e-08 0 0 0 0)
(6.27439e-07 8.70704e-06 0 -8.263e-09 -2.69114e-08 0 0 0 0)
(-1.29552e-07 -2.06114e-06 0 4.1449e-09 6.50189e-09 0 0 0 0)
(5.7427e-08 4.88705e-07 0 -6.50467e-10 -1.79423e-09 0 0 0 0)
(-1.17935e-08 -1.15688e-07 0 2.62919e-10 4.65718e-10 0 0 0 0)
(4.29282e-09 2.74136e-08 0 -5.88722e-11 -1.21028e-10 0 0 0 0)
(-1.1682e-09 -6.49425e-09 0 1.63443e-11 3.12158e-11 0 0 0 0)
(3.17536e-10 1.53761e-09 0 -3.82181e-12 -9.92984e-12 0 0 0 0)
(-9.73071e-11 -3.65323e-10 0 1.0571e-12 8.75001e-13 0 0 0 0)
(2.77014e-11 8.51117e-11 0 -5.69206e-13 -1.77288e-12 0 0 0 0)
(-6.74916e-12 -2.18203e-11 0 -3.79471e-13 -7.80307e-13 0 0 0 0)
(2.98156e-12 3.50952e-12 0 -4.87891e-13 -7.6583e-13 0 0 0 0)
(-5.42101e-14 -2.52334e-12 0 -4.06576e-13 -5.22733e-13 0 0 0 0)
(5.69206e-13 -1.1417e-12 0 -3.79471e-13 -4.18426e-13 0 0 0 0)
(3.25261e-13 -1.27005e-12 0 -2.71051e-13 -3.08774e-13 0 0 0 0)
(2.1684e-13 -6.5292e-13 0 -2.1684e-13 -2.31831e-13 0 0 0 0)
(8.13152e-14 -1.65538e-13 0 -1.89735e-13 -1.74791e-13 0 0 0 0)
(2.1684e-13 -1.26332e-12 0 2.71051e-14 -1.20672e-13 0 0 0 0)
(1.35525e-13 -2.89424e-12 0 1.0842e-13 -1.00206e-13 0 0 0 0)
(5.42101e-14 -4.69607e-13 0 0 -7.55054e-14 0 0 0 0)
(5.61192e-07 7.07689e-06 0 -8.94039e-09 -1.04708e-07 0 0 0 0)
(-6.43135e-07 -8.75367e-06 0 1.17853e-10 2.96389e-08 0 0 0 0)
(1.32171e-07 2.07444e-06 0 -5.44649e-10 -7.11746e-09 0 0 0 0)
(-5.88096e-08 -4.91883e-07 0 -8.13152e-11 1.96598e-09 0 0 0 0)
(1.20106e-08 1.16578e-07 0 1.43386e-11 -5.02396e-10 0 0 0 0)
(-4.38546e-09 -2.76383e-08 0 -8.89046e-12 1.30029e-10 0 0 0 0)
(1.19243e-09 6.55376e-09 0 6.23416e-12 -3.54509e-11 0 0 0 0)
(-3.21222e-10 -1.55424e-09 0 -1.11131e-12 8.09617e-12 0 0 0 0)
(1.01319e-10 3.67708e-10 0 7.04731e-13 -3.38066e-12 0 0 0 0)
(-2.6048e-11 -8.85056e-11 0 -4.06576e-13 -3.51571e-13 0 0 0 0)
(8.70072e-12 1.95579e-11 0 -2.1684e-13 -1.03985e-12 0 0 0 0)
(-1.46367e-12 -6.07364e-12 0 -4.06576e-13 -6.78217e-13 0 0 0 0)
(1.19262e-12 -7.35418e-14 0 -3.52366e-13 -5.99945e-13 0 0 0 0)
(3.25261e-13 -1.59775e-12 0 -2.71051e-13 -4.85042e-13 0 0 0 0)
(4.33681e-13 -1.05904e-12 0 -2.1684e-13 -3.94195e-13 0 0 0 0)
(2.71051e-13 -6.26341e-13 0 -1.35525e-13 -3.23749e-13 0 0 0 0)
(2.71051e-13 -1.04677e-13 0 -8.13152e-14 -2.61407e-13 0 0 0 0)
(1.6263e-13 -1.20744e-12 0 -2.71051e-14 -2.07684e-13 0 0 0 0)
(1.35525e-13 -2.8303e-12 0 2.71051e-14 -1.21998e-13 0 0 0 0)
(5.42101e-14 -3.87522e-13 0 0 -3.69589e-14 0 0 0 0)
(-5.55713e-07 -7.11614e-06 0 -3.04969e-08 1.11469e-07 0 0 0 0)
(6.35834e-07 8.80463e-06 0 7.78099e-09 -3.12142e-08 0 0 0 0)
(-1.29751e-07 -2.08881e-06 0 -2.97605e-09 7.48974e-09 0 0 0 0)
(5.7986e-08 4.9532e-07 0 7.91468e-10 -2.04056e-09 0 0 0 0)
(-1.17211e-08 -1.17524e-07 0 -2.71484e-10 5.24119e-10 0 0 0 0)
(4.28471e-09 2.78805e-08 0 8.09628e-11 -1.3237e-10 0 0 0 0)
(-1.16039e-09 -6.61618e-09 0 -2.32019e-11 3.56385e-11 0 0 0 0)
(3.12006e-10 1.56968e-09 0 7.64363e-12 -9.60436e-12 0 0 0 0)
(-9.66295e-11 -3.7377e-10 0 -2.08709e-12 1.61383e-12 0 0 0 0)
(2.67798e-11 8.74525e-11 0 5.69206e-13 -1.46091e-12 0 0 0 0)
(-6.80337e-12 -2.2147e-11 0 -3.52366e-13 -6.50351e-13 0 0 0 0)
(2.90024e-12 3.94942e-12 0 -1.35525e-13 -7.85758e-13 0 0 0 0)
(2.71051e-14 -2.33017e-12 0 -1.6263e-13 -6.51436e-13 0 0 0 0)
(7.31836e-13 -9.35951e-13 0 -1.35525e-13 -5.51756e-13 0 0 0 0)
(4.87891e-13 -1.10875e-12 0 -1.0842e-13 -4.46604e-13 0 0 0 0)
(2.98156e-13 -5.20132e-13 0 -1.35525e-13 -3.73989e-13 0 0 0 0)
(2.1684e-13 -4.94734e-14 0 -1.0842e-13 -3.00981e-13 0 0 0 0)
(3.52366e-13 -1.12391e-12 0 -5.42101e-14 -2.66734e-13 0 0 0 0)
(2.1684e-13 -2.72352e-12 0 5.42101e-14 -1.54836e-13 0 0 0 0)
(-2.71051e-14 -3.1065e-13 0 0 -2.46782e-14 0 0 0 0)
(5.38476e-07 7.15715e-06 0 6.82892e-08 -1.14502e-07 0 0 0 0)
(-6.15614e-07 -8.85765e-06 0 -1.52437e-08 3.18387e-08 0 0 0 0)
(1.25181e-07 2.10361e-06 0 6.33852e-09 -7.60222e-09 0 0 0 0)
(-5.61051e-08 -4.98849e-07 0 -1.44597e-09 2.07151e-09 0 0 0 0)
(1.13e-08 1.18486e-07 0 5.15999e-10 -5.22037e-10 0 0 0 0)
(-4.1371e-09 -2.81268e-08 0 -1.4428e-10 1.34189e-10 0 0 0 0)
(1.11911e-09 6.67653e-09 0 4.0495e-11 -3.53755e-11 0 0 0 0)
(-3.00161e-10 -1.58826e-09 0 -1.28478e-11 8.50677e-12 0 0 0 0)
(9.42172e-11 3.75852e-10 0 3.33392e-12 -3.0379e-12 0 0 0 0)
(-2.43132e-11 -9.07698e-11 0 -1.24683e-12 -1.72911e-13 0 0 0 0)
(7.99599e-12 2.02331e-11 0 5.42101e-14 -9.67434e-13 0 0 0 0)
(-1.35525e-12 -6.07472e-12 0 -2.71051e-13 -7.3621e-13 0 0 0 0)
(1.24683e-12 1.6046e-13 0 -1.35525e-13 -7.04213e-13 0 0 0 0)
(4.06576e-13 -1.39292e-12 0 -1.89735e-13 -5.84842e-13 0 0 0 0)
(5.42101e-13 -8.81275e-13 0 -8.13152e-14 -4.85958e-13 0 0 0 0)
(2.98156e-13 -4.80719e-13 0 -2.71051e-14 -3.87927e-13 0 0 0 0)
(2.71051e-13 2.5774e-15 0 -2.71051e-14 -3.32071e-13 0 0 0 0)
(2.98156e-13 -1.06129e-12 0 0 -3.33118e-13 0 0 0 0)
(1.89735e-13 -2.58824e-12 0 2.71051e-14 -1.89416e-13 0 0 0 0)
(0 -2.08008e-13 0 2.71051e-14 -5.82187e-15 0 0 0 0)
(-5.02668e-07 -7.1988e-06 0 -1.03872e-07 1.13097e-07 0 0 0 0)
(5.73884e-07 8.91153e-06 0 2.21677e-08 -3.11084e-08 0 0 0 0)
(-1.15953e-07 -2.11858e-06 0 -9.50704e-09 7.42678e-09 0 0 0 0)
(5.21635e-08 5.024e-07 0 2.04388e-09 -1.99519e-09 0 0 0 0)
(-1.04195e-08 -1.19461e-07 0 -7.48886e-10 5.04848e-10 0 0 0 0)
(3.80918e-09 2.83672e-08 0 2.0177e-10 -1.26896e-10 0 0 0 0)
(-1.02896e-09 -6.74186e-09 0 -5.76796e-11 3.31669e-11 0 0 0 0)
(2.74899e-10 1.60202e-09 0 1.69678e-11 -9.04195e-12 0 0 0 0)
(-8.50557e-11 -3.8245e-10 0 -5.23128e-12 1.39219e-12 0 0 0 0)
(2.35543e-11 8.9523e-11 0 1.02999e-12 -1.43907e-12 0 0 0 0)
(-5.80048e-12 -2.27103e-11 0 -6.77626e-13 -7.43972e-13 0 0 0 0)
(2.6834e-12 4.21264e-12 0 -8.13152e-14 -8.63976e-13 0 0 0 0)
(1.6263e-13 -2.1788e-12 0 -2.71051e-13 -7.21117e-13 0 0 0 0)
(7.58942e-13 -7.17697e-13 0 -8.13152e-14 -6.46698e-13 0 0 0 0)
(5.42101e-13 -9.11837e-13 0 -8.13152e-14 -5.50323e-13 0 0 0 0)
(3.52366e-13 -3.66245e-13 0 -5.42101e-14 -4.34278e-13 0 0 0 0)
(2.71051e-13 5.33588e-15 0 0 -3.94758e-13 0 0 0 0)
(4.33681e-13 -9.81255e-13 0 8.13152e-14 -3.64338e-13 0 0 0 0)
(1.89735e-13 -2.39622e-12 0 1.6263e-13 -1.92001e-13 0 0 0 0)
(-5.42101e-14 -1.15413e-13 0 0 4.24354e-14 0 0 0 0)
(4.56771e-07 7.23913e-06 0 1.34414e-07 -1.0736e-07 0 0 0 0)
(-5.21249e-07 -8.96332e-06 0 -2.79992e-08 2.92819e-08 0 0 0 0)
(1.05058e-07 2.13272e-06 0 1.21773e-08 -6.98116e-09 0 0 0 0)
(-4.73469e-08 -5.05771e-07 0 -2.54633e-09 1.86217e-09 0 0 0 0)
(9.45796e-09 1.20355e-07 0 9.29378e-10 -4.68497e-10 0 0 0 0)
(-3.44592e-09 -2.85985e-08 0 -2.53053e-10 1.16841e-10 0 0 0 0)
(9.34311e-10 6.79438e-09 0 6.75458e-11 -3.16591e-11 0 0 0 0)
(-2.4774e-10 -1.62004e-09 0 -2.23075e-11 6.70617e-12 0 0 0 0)
(7.83065e-11 3.83455e-10 0 5.14996e-12 -3.02377e-12 0 0 0 0)
(-1.97325e-11 -9.29059e-11 0 -2.03288e-12 -5.42511e-13 0 0 0 0)
(6.83047e-12 2.08082e-11 0 2.1684e-13 -1.10532e-12 0 0 0 0)
(-8.94467e-13 -6.05187e-12 0 -4.06576e-13 -8.54694e-13 0 0 0 0)
(1.24683e-12 3.77738e-13 0 -1.35525e-13 -8.12059e-13 0 0 0 0)
(4.87891e-13 -1.22213e-12 0 -1.35525e-13 -6.92737e-13 0 0 0 0)
(5.69206e-13 -6.68854e-13 0 -8.13152e-14 -5.87993e-13 0 0 0 0)
(4.60786e-13 -3.25154e-13 0 -8.13152e-14 -4.78418e-13 0 0 0 0)
(4.06576e-13 7.25165e-14 0 -5.42101e-14 -4.60989e-13 0 0 0 0)
(4.60786e-13 -8.58534e-13 0 0 -4.29262e-13 0 0 0 0)
(1.0842e-13 -2.18147e-12 0 5.42101e-14 -2.03654e-13 0 0 0 0)
(-1.35525e-13 -5.84427e-14 0 2.71051e-14 9.92997e-14 0 0 0 0)
(-3.96253e-07 -7.27688e-06 0 -1.61859e-07 9.72184e-08 0 0 0 0)
(4.51647e-07 9.01191e-06 0 3.32016e-08 -2.62085e-08 0 0 0 0)
(-9.05003e-08 -2.146e-06 0 -1.46038e-08 6.23886e-09 0 0 0 0)
(4.09156e-08 5.08913e-07 0 2.98868e-09 -1.64229e-09 0 0 0 0)
(-8.12623e-09 -1.21206e-07 0 -1.10697e-09 4.07038e-10 0 0 0 0)
(2.94738e-09 2.8804e-08 0 2.93548e-10 -1.03583e-10 0 0 0 0)
(-7.98217e-10 -6.852e-09 0 -8.19386e-11 2.45044e-11 0 0 0 0)
(2.12531e-10 1.63065e-09 0 2.43403e-11 -7.98338e-12 0 0 0 0)
(-6.48082e-11 -3.89699e-10 0 -7.23705e-12 1.97546e-13 0 0 0 0)
(1.85941e-11 9.14414e-11 0 1.57209e-12 -1.70645e-12 0 0 0 0)
(-4.09286e-12 -2.30225e-11 0 -7.86047e-13 -1.05217e-12 0 0 0 0)
(2.33103e-12 4.5059e-12 0 -2.71051e-14 -1.06744e-12 0 0 0 0)
(3.52366e-13 -2.01684e-12 0 -1.89735e-13 -9.31057e-13 0 0 0 0)
(8.40257e-13 -4.9363e-13 0 -1.35525e-13 -7.81111e-13 0 0 0 0)
(6.23416e-13 -6.97519e-13 0 -1.0842e-13 -6.36631e-13 0 0 0 0)
(3.52366e-13 -2.39241e-13 0 -1.0842e-13 -5.46813e-13 0 0 0 0)
(3.52366e-13 5.44913e-14 0 -2.71051e-14 -5.12002e-13 0 0 0 0)
(5.69206e-13 -7.23919e-13 0 0 -5.03835e-13 0 0 0 0)
(2.1684e-13 -1.86766e-12 0 5.42101e-14 -2.30201e-13 0 0 0 0)
(-1.6263e-13 -1.10588e-14 0 5.42101e-14 1.40991e-13 0 0 0 0)
(3.28114e-07 7.31014e-06 0 1.81399e-07 -8.29162e-08 0 0 0 0)
(-3.73994e-07 -9.0543e-06 0 -3.67855e-08 2.20649e-08 0 0 0 0)
(7.48446e-08 2.15729e-06 0 1.62882e-08 -5.35262e-09 0 0 0 0)
(-3.385e-08 -5.11602e-07 0 -3.29644e-09 1.37019e-09 0 0 0 0)
(6.76282e-09 1.21893e-07 0 1.20666e-09 -3.55633e-10 0 0 0 0)
(-2.42092e-09 -2.8981e-08 0 -3.23119e-10 8.62079e-11 0 0 0 0)
(6.65131e-10 6.88998e-09 0 8.57333e-11 -2.51738e-11 0 0 0 0)
(-1.73039e-10 -1.64435e-09 0 -2.76201e-11 4.07626e-12 0 0 0 0)
(5.55925e-11 3.89732e-10 0 6.55942e-12 -3.26299e-12 0 0 0 0)
(-1.33086e-11 -9.41556e-11 0 -2.33103e-12 -1.01722e-12 0 0 0 0)
(5.20417e-12 2.14472e-11 0 4.06576e-13 -1.35489e-12 0 0 0 0)
(-3.25261e-13 -5.93075e-12 0 -2.1684e-13 -1.03611e-12 0 0 0 0)
(1.21973e-12 6.64069e-13 0 5.42101e-14 -9.55298e-13 0 0 0 0)
(5.69206e-13 -9.27699e-13 0 0 -7.76016e-13 0 0 0 0)
(6.77626e-13 -4.34556e-13 0 5.42101e-14 -6.31569e-13 0 0 0 0)
(4.33681e-13 -2.00525e-13 0 5.42101e-14 -5.37026e-13 0 0 0 0)
(4.87891e-13 1.15494e-13 0 8.13152e-14 -5.08791e-13 0 0 0 0)
(5.69206e-13 -5.76732e-13 0 5.42101e-14 -5.27528e-13 0 0 0 0)
(1.6263e-13 -1.53664e-12 0 1.0842e-13 -2.1956e-13 0 0 0 0)
(-2.43945e-13 3.07669e-14 0 0 1.75909e-13 0 0 0 0)
(-2.5164e-07 -7.33773e-06 0 -1.92808e-07 6.58635e-08 0 0 0 0)
(2.86537e-07 9.08948e-06 0 3.84064e-08 -1.74805e-08 0 0 0 0)
(-5.70113e-08 -2.16669e-06 0 -1.73536e-08 4.03738e-09 0 0 0 0)
(2.58341e-08 5.1391e-07 0 3.54328e-09 -9.31341e-10 0 0 0 0)
(-5.15294e-09 -1.2249e-07 0 -1.29362e-09 2.22961e-10 0 0 0 0)
(1.82642e-09 2.91345e-08 0 3.52474e-10 -4.77694e-11 0 0 0 0)
(-5.0269e-10 -6.93413e-09 0 -9.79306e-11 7.31012e-12 0 0 0 0)
(1.33411e-10 1.65257e-09 0 2.92735e-11 -3.72489e-12 0 0 0 0)
(-3.95734e-11 -3.94792e-10 0 -8.83625e-12 -1.41062e-12 0 0 0 0)
(1.2387e-11 9.33495e-11 0 1.97867e-12 -1.43404e-12 0 0 0 0)
(-1.95156e-12 -2.30414e-11 0 -9.75782e-13 -1.23805e-12 0 0 0 0)
(1.95156e-12 4.90549e-12 0 2.71051e-14 -1.05233e-12 0 0 0 0)
(5.69206e-13 -1.75675e-12 0 -2.1684e-13 -9.34963e-13 0 0 0 0)
(8.94467e-13 -1.69901e-13 0 -2.71051e-14 -7.80913e-13 0 0 0 0)
(5.69206e-13 -4.58528e-13 0 -5.42101e-14 -6.26576e-13 0 0 0 0)
(4.60786e-13 -1.16464e-13 0 -5.42101e-14 -5.18761e-13 0 0 0 0)
(4.06576e-13 6.39895e-14 0 -8.13152e-14 -5.25655e-13 0 0 0 0)
(5.69206e-13 -4.34688e-13 0 0 -5.23364e-13 0 0 0 0)
(1.35525e-13 -1.16422e-12 0 5.42101e-14 -1.66363e-13 0 0 0 0)
(-2.71051e-13 3.25923e-14 0 -2.71051e-14 2.06526e-13 0 0 0 0)
(1.73712e-07 7.35853e-06 0 2.08165e-07 -4.97411e-08 0 0 0 0)
(-1.98539e-07 -9.11612e-06 0 -3.51406e-08 1.80485e-08 0 0 0 0)
(3.99816e-08 2.17384e-06 0 1.55405e-08 -4.68627e-09 0 0 0 0)
(-1.77901e-08 -5.15417e-07 0 -2.47689e-09 1.38853e-09 0 0 0 0)
(3.57201e-09 1.22777e-07 0 8.64434e-10 -4.18353e-10 0 0 0 0)
(-1.22518e-09 -2.91967e-08 0 -2.18548e-10 1.07185e-10 0 0 0 0)
(3.41849e-10 6.93403e-09 0 4.59973e-11 -3.54038e-11 0 0 0 0)
(-8.39172e-11 -1.65307e-09 0 -1.54228e-11 6.74694e-12 0 0 0 0)
(2.83248e-11 3.92023e-10 0 2.90024e-12 -4.35774e-12 0 0 0 0)
(-5.42101e-12 -9.39831e-11 0 -1.32815e-12 -9.64314e-13 0 0 0 0)
(3.1984e-12 2.18289e-11 0 -2.43945e-13 -1.63867e-12 0 0 0 0)
(4.87891e-13 -5.62767e-12 0 -4.33681e-13 -1.22572e-12 0 0 0 0)
(1.11131e-12 9.35488e-13 0 -3.25261e-13 -1.12775e-12 0 0 0 0)
(7.86047e-13 -6.19312e-13 0 -2.71051e-13 -9.22985e-13 0 0 0 0)
(6.77626e-13 -1.72404e-13 0 -2.98156e-13 -7.44807e-13 0 0 0 0)
(4.06576e-13 -9.96039e-14 0 -2.43945e-13 -6.17261e-13 0 0 0 0)
(5.14996e-13 1.10891e-13 0 -2.43945e-13 -6.03445e-13 0 0 0 0)
(6.77626e-13 -2.17441e-13 0 -5.42101e-14 -5.89321e-13 0 0 0 0)
(1.6263e-13 -8.06752e-13 0 8.13152e-14 -2.00647e-13 0 0 0 0)
(-2.98156e-13 -9.39595e-15 0 1.0842e-13 2.62919e-13 0 0 0 0)
(-7.86157e-08 -7.36943e-06 0 -1.1146e-07 2.15183e-08 0 0 0 0)
(9.39125e-08 9.13453e-06 0 1.63633e-08 -1.06202e-08 0 0 0 0)
(-2.43475e-08 -2.18335e-06 0 -6.83318e-09 3.11276e-09 0 0 0 0)
(1.1158e-08 5.18177e-07 0 7.29289e-10 -1.1085e-09 0 0 0 0)
(-2.89458e-09 -1.23772e-07 0 -2.01092e-10 3.52092e-10 0 0 0 0)
(1.00801e-09 2.95174e-08 0 5.18249e-11 -1.13914e-10 0 0 0 0)
(-2.99511e-10 -7.03457e-09 0 1.61275e-11 3.13088e-11 0 0 0 0)
(9.02056e-11 1.68361e-09 0 9.51387e-12 -1.33736e-11 0 0 0 0)
(-2.5533e-11 -4.02503e-10 0 9.81203e-12 7.64159e-13 0 0 0 0)
(9.32414e-12 9.60686e-11 0 6.66784e-12 -2.89276e-12 0 0 0 0)
(-1.0842e-12 -2.33028e-11 0 5.96311e-12 -1.32138e-12 0 0 0 0)
(1.84314e-12 5.41641e-12 0 4.52654e-12 -1.41891e-12 0 0 0 0)
(8.40257e-13 -1.45402e-12 0 3.60497e-12 -1.11012e-12 0 0 0 0)
(8.40257e-13 2.13045e-13 0 2.6563e-12 -9.00378e-13 0 0 0 0)
(5.69206e-13 -1.52805e-13 0 1.95156e-12 -7.03857e-13 0 0 0 0)
(5.42101e-13 2.48982e-14 0 1.40946e-12 -5.7517e-13 0 0 0 0)
(6.50521e-13 9.19294e-14 0 1.02999e-12 -6.29151e-13 0 0 0 0)
(8.40257e-13 -3.189e-14 0 2.71051e-13 -7.77991e-13 0 0 0 0)
(2.43945e-13 -3.11984e-13 0 -5.42101e-13 -3.79821e-13 0 0 0 0)
(-4.06576e-13 -2.96798e-14 0 -1.89735e-13 3.40745e-13 0 0 0 0)
)
;

boundaryField
{
    movingWall
    {
        type            extrapolatedCalculated;
        value           nonuniform List<tensor> 
20
(
(-7.86157e-08 -7.36943e-06 0 4.24727e-07 3.8736e-05 0 0 0 0)
(9.39125e-08 9.13453e-06 0 -1.10264e-07 -9.25834e-06 0 0 0 0)
(-2.43475e-08 -2.18335e-06 0 4.90773e-08 2.19792e-06 0 0 0 0)
(1.1158e-08 5.18177e-07 0 -1.28741e-08 -5.24935e-07 0 0 0 0)
(-2.89458e-09 -1.23772e-07 0 4.44524e-09 1.2521e-07 0 0 0 0)
(1.00801e-09 2.95174e-08 0 -1.29576e-09 -2.98484e-08 0 0 0 0)
(-2.99511e-10 -7.03457e-09 0 4.13181e-10 7.14071e-09 0 0 0 0)
(9.02056e-11 1.68361e-09 0 -9.76108e-11 -1.71016e-09 0 0 0 0)
(-2.5533e-11 -4.02503e-10 0 5.23137e-11 4.0627e-10 0 0 0 0)
(9.32414e-12 9.60686e-11 0 4.52971e-12 -1.00143e-10 0 0 0 0)
(-1.0842e-12 -2.33028e-11 0 1.50102e-11 2.19954e-11 0 0 0 0)
(1.84314e-12 5.41641e-12 0 8.70415e-12 -6.93174e-12 0 0 0 0)
(8.40257e-13 -1.45402e-12 0 7.72715e-12 3.29731e-13 0 0 0 0)
(8.40257e-13 2.13045e-13 0 5.50671e-12 -1.11567e-12 0 0 0 0)
(5.69206e-13 -1.52805e-13 0 4.26326e-12 -5.22448e-13 0 0 0 0)
(5.42101e-13 2.48982e-14 0 3.10862e-12 -5.04455e-13 0 0 0 0)
(6.50521e-13 9.19294e-14 0 2.22045e-12 -6.22041e-13 0 0 0 0)
(8.40257e-13 -3.189e-14 0 5.32907e-13 -8.72173e-13 0 0 0 0)
(2.43945e-13 -3.11984e-13 0 -1.15463e-12 -4.94481e-13 0 0 0 0)
(-4.06576e-13 -2.96798e-14 0 -4.88498e-13 3.75762e-13 0 0 0 0)
)
;
    }
    fixedWalls
    {
        type            extrapolatedCalculated;
        value           nonuniform List<tensor> 
60
(
(6.66612e-08 3.63097e-05 0 -8.28034e-08 1.30141e-09 0 0 0 0)
(-3.97875e-07 -3.63045e-05 0 1.53289e-07 -5.09461e-09 0 0 0 0)
(6.79817e-07 3.62894e-05 0 -1.65312e-07 2.97588e-09 0 0 0 0)
(-1.05912e-06 -3.62926e-05 0 1.89423e-07 6.63658e-09 0 0 0 0)
(1.43751e-06 3.63159e-05 0 -1.8669e-07 -1.93445e-08 0 0 0 0)
(-1.80588e-06 -3.637e-05 0 1.75934e-07 3.47343e-08 0 0 0 0)
(2.14125e-06 3.64548e-05 0 -1.51511e-07 -5.07193e-08 0 0 0 0)
(-2.41192e-06 -3.65729e-05 0 1.22504e-07 6.67032e-08 0 0 0 0)
(2.63126e-06 3.67217e-05 0 -8.65269e-08 -8.15617e-08 0 0 0 0)
(-2.75803e-06 -3.68991e-05 0 4.8862e-08 9.443e-08 0 0 0 0)
(2.82671e-06 3.70994e-05 0 -8.94039e-09 -1.04708e-07 0 0 0 0)
(-2.79379e-06 -3.7318e-05 0 -3.04969e-08 1.11469e-07 0 0 0 0)
(2.70472e-06 3.75453e-05 0 6.82892e-08 -1.14502e-07 0 0 0 0)
(-2.52064e-06 -3.7776e-05 0 -1.03872e-07 1.13097e-07 0 0 0 0)
(2.28923e-06 3.79976e-05 0 1.34414e-07 -1.0736e-07 0 0 0 0)
(-1.98298e-06 -3.82054e-05 0 -1.61859e-07 9.72184e-08 0 0 0 0)
(1.6418e-06 3.83865e-05 0 1.81399e-07 -8.29162e-08 0 0 0 0)
(-1.25739e-06 -3.85371e-05 0 -1.92808e-07 6.58635e-08 0 0 0 0)
(8.70566e-07 3.865e-05 0 2.08165e-07 -4.97411e-08 0 0 0 0)
(-4.24727e-07 -3.8736e-05 0 -1.1146e-07 2.15183e-08 0 0 0 0)
(8.88178e-14 1.14687e-13 0 -5.42101e-14 -1.17548e-13 0 0 0 0)
(8.88178e-14 3.55506e-13 0 0 -1.30376e-13 0 0 0 0)
(8.88178e-14 6.36193e-13 0 0 -1.30425e-13 0 0 0 0)
(0 8.77207e-13 0 5.42101e-14 -1.24521e-13 0 0 0 0)
(8.88178e-14 1.13428e-12 0 -5.42101e-14 -1.33413e-13 0 0 0 0)
(8.88178e-14 1.41086e-12 0 0 -1.37265e-13 0 0 0 0)
(0 1.68334e-12 0 5.42101e-14 -1.26728e-13 0 0 0 0)
(-4.44089e-14 1.91777e-12 0 2.71051e-14 -1.15739e-13 0 0 0 0)
(0 2.14629e-12 0 -2.71051e-14 -1.09845e-13 0 0 0 0)
(0 2.35715e-12 0 0 -7.55054e-14 0 0 0 0)
(-4.44089e-14 2.44832e-12 0 0 -3.69589e-14 0 0 0 0)
(0 2.50498e-12 0 0 -2.46782e-14 0 0 0 0)
(-4.44089e-14 2.54703e-12 0 2.71051e-14 -5.82187e-15 0 0 0 0)
(-4.44089e-14 2.52827e-12 0 0 4.24354e-14 0 0 0 0)
(-8.88178e-14 2.37729e-12 0 2.71051e-14 9.92997e-14 0 0 0 0)
(-1.77636e-13 2.13107e-12 0 5.42101e-14 1.40991e-13 0 0 0 0)
(-2.22045e-13 1.81332e-12 0 0 1.75909e-13 0 0 0 0)
(-2.22045e-13 1.42744e-12 0 -2.71051e-14 2.06526e-13 0 0 0 0)
(-1.77636e-13 9.87218e-13 0 1.0842e-13 2.62919e-13 0 0 0 0)
(-4.88498e-13 3.75762e-13 0 -1.89735e-13 3.40745e-13 0 0 0 0)
(1.89502e-08 6.92932e-06 0 6.66612e-08 3.63097e-05 0 0 0 0)
(-1.76089e-08 -8.5676e-06 0 9.13958e-09 -8.59246e-06 0 0 0 0)
(-1.2934e-09 2.02746e-06 0 -3.77458e-09 2.03933e-06 0 0 0 0)
(7.43708e-10 -4.81218e-07 0 3.96607e-09 -4.82603e-07 0 0 0 0)
(-8.33047e-10 1.1389e-07 0 -7.99805e-10 1.14458e-07 0 0 0 0)
(2.01201e-10 -2.70036e-08 0 6.33893e-10 -2.70407e-08 0 0 0 0)
(-1.24168e-10 6.3856e-09 0 4.9738e-12 6.44389e-09 0 0 0 0)
(1.1601e-11 -1.51822e-09 0 1.37179e-10 -1.49833e-09 0 0 0 0)
(-2.19009e-11 3.55384e-10 0 5.14255e-11 3.71014e-10 0 0 0 0)
(-5.01444e-12 -8.63658e-11 0 4.96492e-11 -7.67912e-11 0 0 0 0)
(-6.451e-12 1.89965e-11 0 3.13083e-11 2.55503e-11 0 0 0 0)