/*--------------------------------*- C++ -*----------------------------------*\
| =========                 |                                                 |
| \\      /  F ield         | OpenFOAM: The Open Source CFD Toolbox           |
|  \\    /   O peration     | Version:  2506                                  |
|   \\  /    A nd           | Website:  www.openfoam.com                      |
|    \\/     M anipulation  |                                                 |
\*---------------------------------------------------------------------------*/
FoamFile
{
    version     2.0;
    format      ascii;
    arch        "LSB;label=32;scalar=64";
    class       volVectorField;
    location    "3.875";
    object      LambVectorField;
}
// * * * * * * * * * * * * * * * * * * * * * * * * * * * * * * * * * * * * * //

dimensions      [0 1 -2 0 0 0 0];

internalField   nonuniform List<vector> 
400
(
(-6.36521e-13 -7.01212e-06 0)
(-1.84568e-13 8.59209e-06 -0)
(-1.03881e-14 -2.03756e-06 0)
(-5.84572e-16 4.84517e-07 -0)
(-3.28417e-17 -1.14773e-07 0)
(-1.85401e-18 2.74254e-08 -0)
(-1.03451e-19 -6.42165e-09 0)
(-5.9613e-21 1.59146e-09 -0)
(-3.10548e-22 -3.34811e-10 0)
(-2.12167e-23 1.10516e-10 -0)
(-2.76752e-25 -4.33266e-12 0)
(-3.39567e-26 1.68688e-11 -0)
(7.41665e-26 7.33392e-12 0)
(3.10446e-26 6.36315e-12 0)
(1.76104e-26 4.178e-12 0)
(8.44167e-27 2.86819e-12 0)
(4.53642e-27 1.71955e-12 0)
(1.5682e-27 6.87255e-13 0)
(5.83271e-29 4.00141e-14 0)
(-1.80301e-29 6.28844e-14 -0)
(-6.42858e-13 7.08295e-06 -0)
(-1.84775e-13 -8.60832e-06 0)
(-1.03826e-14 2.04274e-06 -0)
(-5.83155e-16 -4.84688e-07 0)
(-3.25777e-17 1.15e-07 -0)
(-1.84056e-18 -2.72826e-08 0)
(-1.0099e-19 6.47325e-09 -0)
(-5.91409e-21 -1.53489e-09 0)
(-2.89082e-22 3.64599e-10 -0)
(-2.24955e-23 -8.59959e-11 0)
(-1.77771e-25 2.08159e-11 -0)
(-1.8282e-25 -4.58469e-12 0)
(2.63205e-26 1.39444e-12 0)
(-1.56408e-28 -9.35674e-15 0)
(4.49753e-27 3.77261e-13 0)
(1.3438e-27 1.46883e-13 0)
(1.29352e-28 1.67074e-14 0)
(2.33649e-27 3.29811e-13 0)
(2.59972e-27 7.15994e-13 0)
(-2.43714e-28 2.74216e-13 -0)
(-6.43668e-13 -7.09484e-06 0)
(-1.84284e-13 8.60012e-06 -0)
(-1.03565e-14 -2.03812e-06 0)
(-5.78948e-16 4.82945e-07 -0)
(-3.25423e-17 -1.14429e-07 0)
(-1.80794e-18 2.71119e-08 -0)
(-1.03341e-19 -6.4226e-09 0)
(-5.42908e-21 1.52203e-09 -0)
(-3.59367e-22 -3.60021e-10 0)
(-1.07753e-23 8.57736e-11 -0)
(-2.15166e-24 -1.98876e-11 0)
(1.6972e-25 5.20716e-12 0)
(-2.04425e-26 -5.66873e-13 0)
(2.10887e-26 8.62922e-13 0)
(8.44886e-27 4.43974e-13 0)
(5.24181e-27 3.59571e-13 0)
(2.60412e-27 2.09119e-13 0)
(7.28552e-27 6.54495e-13 0)
(7.62951e-27 1.35352e-12 0)
(-6.43562e-28 4.04633e-13 -0)
(-6.46137e-13 7.12141e-06 -0)
(-1.84259e-13 -8.60554e-06 0)
(-1.03446e-14 2.03856e-06 -0)
(-5.78369e-16 -4.82842e-07 0)
(-3.23133e-17 1.14357e-07 -0)
(-1.82007e-18 -2.70822e-08 0)
(-9.94817e-20 6.41399e-09 -0)
(-5.91464e-21 -1.51811e-09 0)
(-2.68764e-22 3.60208e-10 -0)
(-2.54574e-23 -8.45727e-11 0)
(4.75047e-25 2.07587e-11 0)
(-2.74275e-25 -4.18703e-12 0)
(6.94211e-26 1.76753e-12 0)
(1.51903e-26 4.65221e-13 0)
(1.5935e-26 6.55123e-13 0)
(6.83411e-27 3.58684e-13 0)
(1.85597e-27 1.13169e-13 0)
(1.12809e-26 7.41625e-13 0)
(1.32767e-26 1.74041e-12 0)
(-1.31089e-27 5.97756e-13 -0)
(-6.46751e-13 -7.12361e-06 0)
(-1.84424e-13 8.60967e-06 -0)
(-1.03536e-14 -2.0391e-06 0)
(-5.78169e-16 4.82865e-07 -0)
(-3.24031e-17 -1.14335e-07 0)
(-1.80441e-18 2.70725e-08 -0)
(-1.02357e-19 -6.40874e-09 0)
(-5.40728e-21 1.51812e-09 -0)
(-3.59373e-22 -3.58503e-10 0)
(-9.32809e-24 8.57385e-11 -0)
(-2.42185e-24 -1.94617e-11 0)
(2.56866e-25 5.33537e-12 0)
(-2.86737e-26 -5.74091e-13 0)
(3.15705e-26 8.70508e-13 0)
(1.57859e-26 5.48639e-13 0)
(7.60787e-27 3.39975e-13 0)
(3.27744e-28 1.66528e-14 0)
(1.56589e-26 8.50265e-13 0)
(1.92211e-26 2.07101e-12 0)
(-1.67398e-27 5.90325e-13 -0)
(-6.47651e-13 7.12292e-06 -0)
(-1.84934e-13 -8.61954e-06 0)
(-1.03804e-14 2.0413e-06 -0)
(-5.8e-16 -4.83351e-07 0)
(-3.24409e-17 1.14446e-07 -0)
(-1.8213e-18 -2.70952e-08 0)
(-1.00361e-19 6.41561e-09 -0)
(-5.87486e-21 -1.51789e-09 0)
(-2.75672e-22 3.60242e-10 -0)
(-2.53345e-23 -8.43051e-11 0)
(5.60502e-25 2.08751e-11 0)
(-3.00361e-25 -4.12668e-12 0)
(8.89118e-26 1.88189e-12 0)
(2.46642e-26 6.14414e-13 0)
(2.62707e-26 8.52887e-13 0)
(1.01296e-26 4.12334e-13 0)
(1.86348e-27 8.54811e-14 0)
(2.11878e-26 1.02208e-12 0)
(2.48003e-26 2.42573e-12 0)
(-2.36202e-27 6.69669e-13 -0)
(-6.48303e-13 -7.11349e-06 0)
(-1.85774e-13 8.6337e-06 -0)
(-1.04285e-14 -2.04476e-06 0)
(-5.82994e-16 4.84201e-07 -0)
(-3.26621e-17 -1.14652e-07 0)
(-1.82472e-18 2.7148e-08 -0)
(-1.02927e-19 -6.42671e-09 0)
(-5.54313e-21 1.52254e-09 -0)
(-3.54786e-22 -3.59447e-10 0)
(-1.0566e-23 8.61327e-11 -0)
(-2.34158e-24 -1.92501e-11 0)
(2.71474e-25 5.57585e-12 0)
(-1.07312e-26 -2.02967e-13 0)
(4.99214e-26 1.26051e-12 0)
(2.44382e-26 7.60493e-13 0)
(1.17516e-26 4.56108e-13 0)
(1.97025e-27 8.479e-14 0)
(2.43416e-26 1.09615e-12 0)
(2.94372e-26 2.6957e-12 0)
(-3.05266e-27 7.25383e-13 -0)
(-6.49673e-13 7.10551e-06 -0)
(-1.86963e-13 -8.65484e-06 0)
(-1.04973e-14 2.05004e-06 -0)
(-5.87432e-16 -4.85515e-07 0)
(-3.29069e-17 1.14983e-07 -0)
(-1.84692e-18 -2.72286e-08 0)
(-1.02534e-19 6.44916e-09 -0)
(-5.92117e-21 -1.52594e-09 0)
(-2.92106e-22 3.62495e-10 -0)
(-2.44479e-23 -8.45892e-11 0)
(3.71695e-25 2.11502e-11 0)
(-2.71216e-25 -3.90881e-12 0)
(9.65205e-26 2.09412e-12 0)
(3.12932e-26 7.71073e-13 0)
(3.09388e-26 9.70621e-13 0)
(1.34384e-26 5.16884e-13 0)
(9.27464e-28 3.90924e-14 0)
(2.71193e-26 1.17052e-12 0)
(3.16404e-26 2.8234e-12 0)
(-3.20418e-27 6.68313e-13 -0)
(-6.51433e-13 -7.0959e-06 0)
(-1.88485e-13 8.6818e-06 -0)
(-1.0586e-14 -2.05683e-06 0)
(-5.93064e-16 4.8723e-07 -0)
(-3.32686e-17 -1.15412e-07 0)
(-1.8636e-18 2.73394e-08 -0)
(-1.0502e-19 -6.47459e-09 0)
(-5.73841e-21 1.53482e-09 -0)
(-3.55534e-22 -3.62289e-10 0)
(-1.24764e-23 8.70671e-11 -0)
(-2.19136e-24 -1.94183e-11 0)
(2.40944e-25 5.7078e-12 0)
(-1.00301e-26 -2.02471e-13 0)
(5.031e-26 1.32382e-12 0)
(2.63646e-26 8.39062e-13 0)
(1.11147e-26 4.35063e-13 0)
(1.26728e-27 5.32061e-14 0)
(2.80832e-26 1.20071e-12 0)
(3.16246e-26 2.87546e-12 0)
(-2.87672e-27 5.36129e-13 -0)
(-6.54031e-13 7.08993e-06 -0)
(-1.90317e-13 -8.71531e-06 0)
(-1.06928e-14 2.06528e-06 -0)
(-5.99829e-16 -4.89355e-07 0)
(-3.36671e-17 1.15951e-07 -0)
(-1.89221e-18 -2.74725e-08 0)
(-1.05609e-19 6.51059e-09 -0)
(-6.0641e-21 -1.54143e-09 0)
(-3.09607e-22 3.6638e-10 -0)
(-2.40628e-23 -8.56809e-11 0)
(1.30214e-25 2.14409e-11 0)
(-2.50393e-25 -3.99741e-12 0)
(8.71438e-26 2.11677e-12 0)
(2.85116e-26 7.62231e-13 0)
(2.97215e-26 9.98996e-13 0)
(1.07733e-26 4.3608e-13 0)
(-5.61908e-28 -2.41971e-14 0)
(2.97437e-26 1.29042e-12 0)
(3.1795e-26 3.00266e-12 0)
(-2.76734e-27 4.69607e-13 -0)
(-6.572e-13 -7.08583e-06 0)
(-1.92404e-13 8.75379e-06 -0)
(-1.08143e-14 -2.07498e-06 0)
(-6.07453e-16 4.91802e-07 -0)
(-3.41434e-17 -1.16564e-07 0)
(-1.91681e-18 2.76294e-08 -0)
(-1.08247e-19 -6.54753e-09 0)
(-5.96108e-21 1.55313e-09 -0)
(-3.63372e-22 -3.67004e-10 0)
(-1.41861e-23 8.8099e-11 -0)
(-2.0773e-24 -1.97748e-11 0)
(1.95824e-25 5.66706e-12 0)
(-1.23551e-26 -2.78824e-13 0)
(4.48682e-26 1.3267e-12 0)
(2.38628e-26 8.42202e-13 0)
(1.14011e-26 4.90816e-13 0)
(5.15613e-28 2.33622e-14 0)
(2.61823e-26 1.18033e-12 0)
(2.85626e-26 2.8574e-12 0)
(-2.37194e-27 3.87522e-13 -0)
(-6.61054e-13 7.08564e-06 -0)
(-1.94705e-13 -8.79685e-06 0)
(-1.09477e-14 2.08583e-06 -0)
(-6.15892e-16 -4.94528e-07 0)
(-3.46341e-17 1.17252e-07 -0)
(-1.95089e-18 -2.77996e-08 0)
(-1.09283e-19 6.59298e-09 -0)
(-6.27163e-21 -1.56204e-09 0)
(-3.26654e-22 3.71683e-10 -0)
(-2.4095e-23 -8.68833e-11 0)
(-9.42677e-26 2.17946e-11 -0)
(-2.28171e-25 -4.08494e-12 0)
(7.62299e-26 2.16754e-12 0)
(2.60579e-26 8.00426e-13 0)
(2.5818e-26 1.00033e-12 0)
(8.25654e-27 3.84607e-13 0)
(-1.21478e-27 -5.89468e-14 0)
(2.24345e-26 1.0697e-12 0)
(2.60244e-26 2.77773e-12 0)
(-1.94544e-27 3.1065e-13 -0)
(-6.65382e-13 -7.08886e-06 0)
(-1.97112e-13 8.84241e-06 -0)
(-1.10875e-14 -2.09727e-06 0)
(-6.24521e-16 4.97403e-07 -0)
(-3.51737e-17 -1.1797e-07 0)
(-1.97835e-18 2.79825e-08 -0)
(-1.12075e-19 -6.63603e-09 0)
(-6.19793e-21 1.57542e-09 -0)
(-3.74843e-22 -3.72518e-10 0)
(-1.57232e-23 8.95229e-11 -0)
(-1.98851e-24 -2.01789e-11 0)
(1.54942e-25 5.80367e-12 0)
(-1.11873e-26 -2.95986e-13 0)
(3.40523e-26 1.20318e-12 0)
(1.90932e-26 7.9996e-13 0)
(8.84051e-27 4.53614e-13 0)
(-5.65764e-28 -2.96825e-14 0)
(2.07109e-26 1.06129e-12 0)
(2.20935e-26 2.61535e-12 0)
(-1.4971e-27 2.35113e-13 -0)
(-6.70045e-13 7.09493e-06 -0)
(-1.99583e-13 -8.88937e-06 0)
(-1.123e-14 2.10907e-06 -0)
(-6.33515e-16 -5.00356e-07 0)
(-3.5685e-17 1.18712e-07 -0)
(-2.01436e-18 -2.81654e-08 0)
(-1.13159e-19 6.68418e-09 -0)
(-6.49886e-21 -1.58505e-09 0)
(-3.42978e-22 3.77219e-10 -0)
(-2.43884e-23 -8.8493e-11 0)
(-3.08449e-25 2.20327e-11 -0)
(-2.08233e-25 -4.29395e-12 0)
(5.36588e-26 1.90775e-12 0)
(1.69956e-26 6.36381e-13 0)
(1.73993e-26 8.30522e-13 0)
(5.48813e-27 3.12035e-13 0)
(-9.22433e-29 -5.33588e-15 0)
(1.87454e-26 1.06257e-12 0)
(1.91269e-26 2.55885e-12 0)
(-7.29486e-28 1.15413e-13 -0)
(-6.74907e-13 -7.10472e-06 0)
(-2.01963e-13 8.93532e-06 -0)
(-1.13681e-14 -2.12055e-06 0)
(-6.4187e-16 5.03224e-07 -0)
(-3.62104e-17 -1.19425e-07 0)
(-2.03997e-18 2.83454e-08 -0)
(-1.1584e-19 -6.72684e-09 0)
(-6.43019e-21 1.59773e-09 -0)
(-3.85933e-22 -3.78305e-10 0)
(-1.72681e-23 9.0873e-11 -0)
(-1.87596e-24 -2.05913e-11 0)
(1.0194e-25 5.64529e-12 0)
(-1.56986e-26 -5.13263e-13 0)
(2.37257e-26 1.0866e-12 0)
(1.07899e-26 5.87539e-13 0)
(3.69325e-27 2.43839e-13 0)
(-1.91522e-27 -1.26727e-13 0)
(1.36262e-26 8.58534e-13 0)
(1.45937e-26 2.23568e-12 0)
(-5.08429e-28 8.55478e-14 -0)
(-6.79581e-13 7.11502e-06 -0)
(-2.04218e-13 -8.97871e-06 0)
(-1.14976e-14 2.13139e-06 -0)
(-6.49986e-16 -5.05924e-07 0)
(-3.66647e-17 1.20099e-07 -0)
(-2.07235e-18 -2.85105e-08 0)
(-1.16757e-19 6.77006e-09 -0)
(-6.69377e-21 -1.60631e-09 0)
(-3.5931e-22 3.82462e-10 -0)
(-2.42802e-23 -8.98693e-11 0)
(-5.57085e-25 2.22364e-11 -0)
(-1.81083e-25 -4.53301e-12 0)
(3.65534e-26 1.82711e-12 0)
(7.08303e-27 3.58105e-13 0)
(8.87764e-27 5.89098e-13 0)
(1.67504e-27 1.30821e-13 0)
(-1.03443e-27 -8.15963e-14 0)
(9.66354e-27 7.23919e-13 0)
(1.04517e-26 1.92187e-12 0)
(-3.47732e-28 6.52689e-14 -0)
(-6.84119e-13 -7.12875e-06 0)
(-2.06184e-13 9.01751e-06 -0)
(-1.16113e-14 -2.141e-06 0)
(-6.567e-16 5.08306e-07 -0)
(-3.70841e-17 -1.20687e-07 0)
(-2.09215e-18 2.86579e-08 -0)
(-1.1884e-19 -6.80425e-09 0)
(-6.6357e-21 1.61673e-09 -0)
(-3.91655e-22 -3.83172e-10 0)
(-1.90159e-23 9.18246e-11 -0)
(-1.69551e-24 -2.10406e-11 0)
(4.2186e-26 5.71391e-12 0)
(-1.29749e-26 -6.09859e-13 0)
(1.30098e-26 9.27699e-13 0)
(5.86431e-27 4.88766e-13 0)
(2.46537e-27 2.54735e-13 0)
(-3.41551e-28 -3.41792e-14 0)
(6.83507e-27 6.30942e-13 0)
(6.95143e-27 1.64506e-12 0)
(1.39476e-28 -3.07669e-14 -0)
(-6.88361e-13 7.14492e-06 -0)
(-2.07861e-13 -9.05107e-06 0)
(-1.17095e-14 2.14934e-06 -0)
(-6.62686e-16 -5.10366e-07 0)
(-3.74307e-17 1.21197e-07 -0)
(-2.11689e-18 -2.8782e-08 0)
(-1.19618e-19 6.8362e-09 -0)
(-6.83068e-21 -1.62329e-09 0)
(-3.75187e-22 3.85956e-10 -0)
(-2.37564e-23 -9.13709e-11 0)
(-8.5177e-25 2.20656e-11 -0)
(-1.44335e-25 -4.87839e-12 0)
(1.6097e-26 1.53991e-12 0)
(1.71627e-27 1.42796e-13 0)
(3.53948e-27 4.04318e-13 0)
(4.62783e-28 6.22543e-14 0)
(-1.1028e-27 -1.45305e-13 0)
(3.50952e-27 4.34688e-13 0)
(3.95098e-27 1.21843e-12 0)
(2.13036e-28 -5.96974e-14 -0)
(-6.90903e-13 -7.15036e-06 0)
(-2.09223e-13 9.08098e-06 -0)
(-1.17922e-14 -2.1583e-06 0)
(-6.67464e-16 5.1294e-07 -0)
(-3.77326e-17 -1.21913e-07 0)
(-2.12937e-18 2.89781e-08 -0)
(-1.20807e-19 -6.88803e-09 0)
(-6.78256e-21 1.63764e-09 -0)
(-3.92248e-22 -3.89122e-10 0)
(-2.05165e-23 9.26549e-11 -0)
(-1.50542e-24 -2.20728e-11 0)
(-1.63106e-26 5.19399e-12 -0)
(-1.50351e-26 -1.26075e-12 0)
(2.16431e-27 3.48262e-13 0)
(-7.20867e-28 -1.25752e-13 0)
(-6.48175e-28 -1.44342e-13 0)
(-1.68065e-27 -3.54837e-13 0)
(9.14006e-28 1.63231e-13 0)
(2.27523e-27 8.88068e-13 0)
(-2.90775e-28 1.17816e-13 -0)
(-7.02862e-13 7.25797e-06 -0)
(-2.11048e-13 -9.11817e-06 0)
(-1.19595e-14 2.17652e-06 -0)
(-6.79066e-16 -5.17448e-07 0)
(-3.86808e-17 1.23571e-07 -0)
(-2.19876e-18 -2.94656e-08 0)
(-1.25868e-19 7.05069e-09 -0)
(-7.15742e-21 -1.6741e-09 0)
(-4.18778e-22 4.12315e-10 -0)
(-2.23821e-23 -8.94008e-11 0)
(-1.60928e-24 2.92659e-11 -0)
(-1.54208e-26 -8.89863e-13 0)
(-4.17026e-27 5.05899e-12 -0)
(6.81467e-27 2.44325e-12 0)
(2.74856e-27 2.10437e-12 0)
(1.74613e-27 1.38456e-12 0)
(1.45878e-27 9.38063e-13 0)
(6.60541e-28 3.02941e-13 0)
(-2.84472e-28 -2.30117e-13 0)
(1.50357e-28 -1.60056e-13 -0)
)
;

boundaryField
{
    movingWall
    {
        type            calculated;
        value           nonuniform List<vector> 
20
(
(0 7.79415e-06 -0)
(0 -9.24479e-06 -0)
(0 2.23243e-06 -0)
(0 -5.31052e-07 -0)
(0 1.28217e-07 -0)
(0 -3.08132e-08 -0)
(0 7.44775e-09 -0)
(0 -1.78122e-09 -0)
(0 4.54817e-10 -0)
(0 -9.15389e-11 -0)
(0 3.8313e-11 -0)
(0 3.28774e-12 -0)
(0 9.18117e-12 -0)
(0 5.29366e-12 -0)
(0 4.41606e-12 -0)
(0 3.08373e-12 -0)
(0 2.12852e-12 -0)
(0 5.64797e-13 -0)
(0 -8.42648e-13 -0)
(0 -4.58818e-13 -0)
)
;
    }
    fixedWalls
    {
        type            calculated;
        value           nonuniform List<vector> 
60
(
(0 -3.63925e-05 -0)
(0 3.64578e-05 -0)
(0 -3.64547e-05 -0)
(0 3.64821e-05 -0)
(0 -3.65026e-05 -0)
(0 3.65459e-05 -0)
(0 -3.66064e-05 -0)
(0 3.66954e-05 -0)
(0 -3.68082e-05 -0)
(0 3.6948e-05 -0)
(0 -3.71083e-05 -0)
(0 3.72875e-05 -0)
(0 -3.7477e-05 -0)
(0 3.76721e-05 -0)
(0 -3.78632e-05 -0)
(0 3.80436e-05 -0)
(0 -3.82051e-05 -0)
(0 3.83443e-05 -0)
(0 -3.84418e-05 -0)
(0 3.86246e-05 -0)
(0 -1.68898e-13 -0)
(0 -3.55506e-13 -0)
(0 -6.36193e-13 -0)
(0 -8.22997e-13 -0)
(0 -1.18849e-12 -0)
(0 -1.41086e-12 -0)
(0 -1.62913e-12 -0)
(0 -1.89066e-12 -0)
(0 -2.1734e-12 -0)
(0 -2.35715e-12 -0)
(0 -2.44832e-12 -0)
(0 -2.50498e-12 -0)
(0 -2.51992e-12 -0)
(0 -2.52827e-12 -0)
(0 -2.35018e-12 -0)
(0 -2.07686e-12 -0)
(0 -1.81332e-12 -0)
(0 -1.45454e-12 -0)
(0 -8.78797e-13 -0)
(0 -5.65497e-13 -0)
(0 -6.86266e-06 -0)
(0 8.57674e-06 -0)
(0 -2.03124e-06 -0)
(0 4.85184e-07 -0)
(0 -1.1469e-07 -0)
(0 2.76375e-08 -0)
(0 -6.38062e-09 -0)
(0 1.6554e-09 -0)
(0 -3.03958e-10 -0)
(0 1.36015e-10 -0)
(0 1.23118e-11 -0)
(0 2.91795e-11 -0)
(0 1.6053e-11 -0)
(0 1.25802e-11 -0)
(0 8.40921e-12 -0)
(0 5.75321e-12 -0)
(0 3.70767e-12 -0)
(0 1.45032e-12 -0)
(0 -9.84169e-14 -0)
(0 2.82767e-14 -0)
)
;
    }
    frontAndBack
    {
        type            empty;
    }
}


// ************************************************************************* //
