/*--------------------------------*- C++ -*----------------------------------*\
| =========                 |                                                 |
| \\      /  F ield         | OpenFOAM: The Open Source CFD Toolbox           |
|  \\    /   O peration     | Version:  2506                                  |
|   \\  /    A nd           | Website:  www.openfoam.com                      |
|    \\/     M anipulation  |                                                 |
\*---------------------------------------------------------------------------*/
FoamFile
{
    version     2.0;
    format      ascii;
    arch        "LSB;label=32;scalar=64";
    class       volScalarField;
    location    "3.875";
    object      Lambda2Field;
}
// * * * * * * * * * * * * * * * * * * * * * * * * * * * * * * * * * * * * * //

dimensions      [0 0 -2 0 0 0 0];

internalField   nonuniform List<scalar> 
400
(
-5.73412e-13
-2.09474e-13
-2.04608e-14
-1.58696e-15
-9.97604e-17
-1.13484e-17
-2.14781e-19
-1.11057e-19
7.49254e-21
-2.03733e-21
3.09182e-22
-4.7451e-23
1.39325e-23
1.18015e-24
1.70024e-24
9.31017e-25
9.68163e-25
8.10055e-25
1.61491e-25
1.29599e-26
-1.05627e-12
-3.38416e-13
-3.32049e-14
-2.20847e-15
-1.5827e-16
-1.33488e-17
-6.63797e-19
-7.80453e-20
-1.2176e-21
-5.49112e-22
4.96862e-23
3.67573e-24
8.86791e-24
4.09e-24
2.35088e-24
1.46696e-24
1.00245e-24
8.16601e-25
1.24343e-25
1.6998e-26
-1.12816e-12
-2.83787e-13
-2.95357e-14
-1.34811e-15
-1.26458e-16
-6.32515e-18
-5.8688e-19
-1.02822e-20
-4.85907e-21
3.02609e-22
-5.44528e-23
2.10364e-23
4.42529e-24
3.97059e-24
1.9569e-24
1.09609e-24
7.96282e-25
6.78916e-25
0
1.70107e-26
-1.27037e-12
-2.83337e-13
-3.19436e-14
-1.24573e-15
-1.21214e-16
-6.98985e-18
-2.81972e-19
-4.19654e-20
0
-4.69982e-22
6.83897e-23
-1.75818e-24
6.91464e-24
2.60094e-24
1.80763e-24
9.19626e-25
6.26616e-25
5.78054e-25
4.70198e-26
-1.39602e-26
-1.21587e-12
-2.22869e-13
-2.8958e-14
-7.38939e-16
-9.82757e-17
-3.38777e-18
-1.79234e-19
-2.30018e-22
-1.12396e-21
1.80866e-22
-3.96094e-23
1.62797e-23
2.19838e-24
3.20111e-24
1.49102e-24
7.55549e-25
4.41902e-25
5.01931e-25
1.33575e-25
5.27392e-26
-1.09625e-12
-1.36813e-13
-2.42842e-14
-8.44415e-17
-6.66388e-17
0
0
0
0
0
4.32859e-23
-1.52304e-24
4.59791e-24
1.70548e-24
1.17117e-24
5.45006e-25
2.40817e-25
2.62679e-25
2.93874e-27
1.83671e-26
-8.76933e-13
-2.12003e-14
-1.66956e-14
0
-1.92747e-17
0
0
0
0
3.65051e-23
0
9.0627e-24
1.02278e-24
1.68815e-24
8.6569e-25
3.97639e-25
1.33509e-25
2.26378e-25
-1.33539e-25
-1.80173e-26
-6.28472e-13
0
-8.85607e-15
0
0
0
0
0
0
0
1.86321e-23
0
2.29994e-24
9.50389e-25
7.16681e-25
2.43009e-25
7.24271e-26
1.01793e-25
-6.91816e-26
-3.98442e-27
-3.35482e-13
0
0
0
0
0
0
0
0
0
0
4.40218e-24
5.04771e-25
9.02284e-25
5.51558e-25
2.64047e-25
3.76291e-26
1.04248e-25
3.81378e-27
2.73324e-26
-4.49516e-14
0
0
0
0
0
0
0
0
0
8.88906e-24
0
1.02887e-24
6.08323e-25
4.39588e-25
1.88599e-25
3.80206e-26
0
-2.95427e-25
2.93874e-27
0
0
0
4.38626e-17
1.92397e-18
2.62625e-19
4.2114e-20
1.79279e-21
2.70565e-22
3.61078e-23
0
2.92937e-24
3.85848e-25
5.38866e-25
3.85033e-25
1.58353e-25
7.68454e-26
5.91763e-26
-5.83483e-26
1.36596e-27
2.29445e-13
6.94831e-14
6.27251e-15
3.96193e-16
3.21805e-17
2.27481e-18
1.54778e-19
1.20903e-20
7.82696e-22
5.19128e-23
8.22679e-24
8.217e-26
3.79691e-25
4.3128e-25
3.19666e-25
1.59388e-25
5.23837e-26
1.32074e-25
-1.00622e-25
6.09014e-28
5.01866e-13
1.36037e-13
1.33916e-14
7.25613e-16
6.14114e-17
4.07615e-18
2.71617e-19
2.04781e-20
1.26229e-21
1.13205e-22
2.03277e-24
2.18856e-24
4.74169e-25
4.2959e-25
3.07816e-25
1.01927e-25
7.33985e-26
8.88968e-26
-3.41549e-26
-5.60417e-27
7.60548e-13
1.98516e-13
2.01966e-14
1.03083e-15
8.97175e-17
5.73975e-18
3.89968e-19
2.72644e-20
2.00264e-21
9.42789e-23
1.59426e-23
4.03903e-25
6.17014e-25
4.76578e-25
3.6802e-25
1.44016e-25
7.34684e-26
5.29516e-26
-3.52834e-25
1.80076e-27
9.84565e-13
2.51823e-13
2.60195e-14
1.29133e-15
1.12075e-16
7.25057e-18
4.59934e-19
3.61839e-20
1.98392e-21
1.89161e-22
5.73379e-24
3.19104e-24
6.08247e-25
4.03666e-25
3.78384e-25
2.38764e-25
1.61373e-25
1.84266e-25
-7.67829e-26
8.27633e-27
1.18728e-12
2.99896e-13
3.13787e-14
1.52368e-15
1.34337e-16
8.46609e-18
5.62043e-19
3.97544e-20
2.82031e-21
1.46666e-22
1.92038e-23
1.0173e-24
5.06828e-25
6.77034e-25
4.64273e-25
1.501e-25
1.22685e-25
2.53849e-25
-4.82537e-26
1.9279e-26
1.33293e-12
3.33554e-13
3.51671e-14
1.68834e-15
1.47211e-16
9.37176e-18
5.91335e-19
4.54335e-20
2.56706e-21
2.20515e-22
1.05556e-23
1.39182e-24
9.48594e-25
3.23996e-25
3.75322e-25
1.77209e-25
2.47429e-25
2.47021e-25
-1.18397e-25
3.09439e-26
1.41911e-12
3.49399e-13
3.76161e-14
1.82179e-15
1.58505e-16
1.02714e-17
6.79117e-19
4.83902e-20
3.49047e-21
1.86764e-22
2.40161e-23
1.24036e-24
7.04929e-25
6.1443e-25
3.48853e-25
2.18637e-25
1.60101e-25
2.7391e-25
-3.5436e-26
4.17696e-26
1.53426e-12
3.20672e-13
3.38045e-14
1.27856e-15
1.06308e-16
6.39236e-18
3.202e-19
2.55404e-20
1.15595e-21
1.25753e-22
0
2.67865e-24
9.30726e-25
7.85734e-25
5.10581e-25
1.89602e-25
2.38169e-25
3.59087e-25
-2.5342e-26
6.81077e-26
8.21857e-13
1.49584e-13
1.49289e-14
3.7913e-16
2.50135e-17
1.54271e-18
-2.37433e-20
1.61965e-20
-3.29744e-21
6.48939e-22
-1.37211e-22
2.65309e-23
-4.00931e-24
1.27194e-24
2.57879e-26
3.28967e-25
4.90518e-25
5.96626e-25
2.28636e-25
1.21738e-25
)
;

boundaryField
{
    movingWall
    {
        type            calculated;
        value           nonuniform List<scalar> 
20
(
0
0
0
0
0
0
0
0
0
5.22103e-22
0
5.05424e-23
-1.05294e-23
1.87921e-24
-3.27449e-25
3.31874e-25
5.91059e-25
6.89037e-25
4.19736e-25
1.55695e-25
)
;
    }
    fixedWalls
    {
        type            calculated;
        value           nonuniform List<scalar> 
60
(
-3.00213e-12
-5.40678e-12
-5.5369e-12
-5.75292e-12
-4.71337e-12
-3.13753e-12
-9.38377e-13
0
0
0
0
1.15051e-12
2.57705e-12
3.93667e-12
5.11893e-12
6.19332e-12
6.97014e-12
7.43461e-12
8.04803e-12
4.31797e-12
1.67139e-27
7.88861e-27
7.88861e-27
4.75535e-26
-4.36904e-26
7.88861e-27
9.12539e-26
5.39534e-26
-4.61095e-26
0
1.36596e-27
0
6.90712e-26
1.80076e-27
7.23251e-26
1.35404e-25
3.09439e-26
3.96225e-27
1.38589e-25
4.48117e-26
4.62276e-13
0
0
0
0
0
4.71784e-20
0
1.87554e-20
0
6.36363e-22
-1.14583e-22
2.02671e-23
-2.48652e-24
8.81245e-25
4.76085e-25
8.72732e-25
6.75805e-25
1.97048e-25
1.70122e-26
)
;
    }
    frontAndBack
    {
        type            empty;
    }
}


// ************************************************************************* //
