/*--------------------------------*- C++ -*----------------------------------*\
| =========                 |                                                 |
| \\      /  F ield         | OpenFOAM: The Open Source CFD Toolbox           |
|  \\    /   O peration     | Version:  2506                                  |
|   \\  /    A nd           | Website:  www.openfoam.com                      |
|    \\/     M anipulation  |                                                 |
\*---------------------------------------------------------------------------*/
FoamFile
{
    version     2.0;
    format      ascii;
    arch        "LSB;label=32;scalar=64";
    class       volScalarField;
    location    "3.875";
    object      pNear;
}
// * * * * * * * * * * * * * * * * * * * * * * * * * * * * * * * * * * * * * //

dimensions      [0 2 -2 0 0 0 0];

internalField   nonuniform List<scalar> 
400
(
0
1.98232e-11
1.85344e-11
1.05953e-11
1.18253e-11
1.08561e-11
1.10249e-11
1.09053e-11
1.09121e-11
1.08969e-11
1.08975e-11
1.08975e-11
1.08996e-11
1.09015e-11
1.09031e-11
1.0904e-11
1.09037e-11
1.09018e-11
1.08995e-11
1.0898e-11
4.94706e-11
0
1.44356e-11
6.084e-12
1.1956e-11
1.05924e-11
1.09753e-11
1.08396e-11
1.08812e-11
1.08747e-11
1.08837e-11
1.08879e-11
1.08925e-11
1.08959e-11
1.08985e-11
1.09002e-11
1.09004e-11
1.08987e-11
1.08967e-11
1.0895e-11
0
1.35213e-10
4.97946e-12
1.74037e-11
8.81777e-12
1.09196e-11
1.05523e-11
1.08104e-11
1.08062e-11
1.08446e-11
1.08572e-11
1.08704e-11
1.08788e-11
1.08851e-11
1.08896e-11
1.08925e-11
1.08937e-11
1.08928e-11
1.08909e-11
1.08892e-11
9.47149e-11
0
1.35494e-11
0
1.22005e-11
9.8306e-12
1.08136e-11
1.0636e-11
1.07718e-11
1.0793e-11
1.08283e-11
1.08464e-11
1.08609e-11
1.08703e-11
1.08773e-11
1.08818e-11
1.08839e-11
1.08837e-11
1.08826e-11
1.0881e-11
0
2.8168e-10
5.30086e-12
2.68577e-11
7.34145e-12
1.10217e-11
1.01626e-11
1.06749e-11
1.06765e-11
1.07622e-11
1.07929e-11
1.0822e-11
1.084e-11
1.08534e-11
1.08624e-11
1.08684e-11
1.08717e-11
1.08724e-11
1.08717e-11
1.08703e-11
1.27584e-10
0
1.14138e-11
0
1.30194e-11
9.29397e-12
1.08098e-11
1.04859e-11
1.06824e-11
1.0712e-11
1.07669e-11
1.07959e-11
1.08192e-11
1.08348e-11
1.08459e-11
1.08536e-11
1.08578e-11
1.0859e-11
1.08589e-11
1.0858e-11
0
4.22972e-10
7.83654e-12
3.6133e-11
6.3573e-12
1.12918e-11
9.93589e-12
1.06168e-11
1.05936e-11
1.07014e-11
1.07376e-11
1.07749e-11
1.07983e-11
1.08164e-11
1.0829e-11
1.08374e-11
1.08424e-11
1.08445e-11
1.08447e-11
1.08441e-11
1.44873e-10
0
8.97068e-12
0
1.38994e-11
9.03346e-12
1.09098e-11
1.04308e-11
1.06466e-11
1.06653e-11
1.0724e-11
1.07545e-11
1.07805e-11
1.07987e-11
1.08118e-11
1.08209e-11
1.08263e-11
1.08287e-11
1.08296e-11
1.08296e-11
0
5.25319e-10
1.10705e-11
4.27941e-11
5.89567e-12
1.15999e-11
9.87869e-12
1.06367e-11
1.0574e-11
1.06789e-11
1.07072e-11
1.07418e-11
1.07645e-11
1.07825e-11
1.07952e-11
1.08044e-11
1.08102e-11
1.08129e-11
1.0814e-11
1.08141e-11
1.45717e-10
0
6.59481e-12
0
1.45725e-11
9.06371e-12
1.10682e-11
1.04695e-11
1.06665e-11
1.06608e-11
1.07085e-11
1.07309e-11
1.07527e-11
1.07679e-11
1.07799e-11
1.07886e-11
1.07939e-11
1.07967e-11
1.07985e-11
1.07991e-11
0
5.70076e-10
1.47659e-11
4.59052e-11
6.09463e-12
1.18965e-11
9.99047e-12
1.07236e-11
1.06159e-11
1.06957e-11
1.07055e-11
1.07286e-11
1.07435e-11
1.07563e-11
1.07662e-11
1.07736e-11
1.07785e-11
1.07812e-11
1.07831e-11
1.07842e-11
1.32565e-10
0
4.78642e-12
0
1.49261e-11
9.36787e-12
1.12533e-11
1.05886e-11
1.07344e-11
1.06963e-11
1.07208e-11
1.07277e-11
1.07386e-11
1.07469e-11
1.07544e-11
1.07604e-11
1.07644e-11
1.07666e-11
1.07686e-11
1.07699e-11
0
5.51037e-10
1.77833e-11
4.49479e-11
6.85547e-12
1.2128e-11
1.02442e-11
1.08596e-11
1.07084e-11
1.07468e-11
1.0731e-11
1.0735e-11
1.07367e-11
1.07407e-11
1.07448e-11
1.0749e-11
1.07518e-11
1.07537e-11
1.07553e-11
1.07564e-11
1.09809e-10
0
4.48547e-12
0
1.49675e-11
9.8921e-12
1.14351e-11
1.07655e-11
1.0837e-11
1.07633e-11
1.07565e-11
1.07431e-11
1.07393e-11
1.07371e-11
1.07376e-11
1.07396e-11
1.07408e-11
1.07421e-11
1.07435e-11
1.07447e-11
0
4.71716e-10
1.90769e-11
4.00521e-11
8.00828e-12
1.22624e-11
1.05953e-11
1.10214e-11
1.08341e-11
1.0821e-11
1.07763e-11
1.07576e-11
1.07435e-11
1.07365e-11
1.07331e-11
1.07322e-11
1.07316e-11
1.07323e-11
1.07335e-11
1.07346e-11
8.25008e-11
0
6.13471e-12
0
1.47216e-11
1.0546e-11
1.1583e-11
1.09668e-11
1.09525e-11
1.08464e-11
1.08061e-11
1.07708e-11
1.07505e-11
1.07374e-11
1.07305e-11
1.07267e-11
1.07246e-11
1.0724e-11
1.07249e-11
1.07261e-11
0
3.43856e-10
1.83773e-11
3.20182e-11
9.38694e-12
1.22773e-11
1.09823e-11
1.11733e-11
1.09631e-11
1.08979e-11
1.08271e-11
1.07863e-11
1.07573e-11
1.07396e-11
1.0729e-11
1.07224e-11
1.07189e-11
1.07174e-11
1.0718e-11
1.07193e-11
5.43823e-11
0
9.52112e-12
0
1.42277e-11
1.12087e-11
1.16652e-11
1.11452e-11
1.10503e-11
1.09205e-11
1.08516e-11
1.07986e-11
1.07645e-11
1.07419e-11
1.07285e-11
1.07202e-11
1.07151e-11
1.07123e-11
1.07128e-11
1.07144e-11
0
1.83107e-10
1.75601e-11
2.20954e-11
1.10561e-11
1.21135e-11
1.13464e-11
1.12715e-11
1.10678e-11
1.09566e-11
1.0869e-11
1.08113e-11
1.07714e-11
1.07454e-11
1.07294e-11
1.07194e-11
1.0713e-11
1.07096e-11
1.071e-11
1.07113e-11
2.40552e-11
0
1.94759e-11
6.51604e-12
1.38536e-11
1.14874e-11
1.17105e-11
1.12509e-11
1.1117e-11
1.09696e-11
1.08833e-11
1.0819e-11
1.07766e-11
1.07483e-11
1.07306e-11
1.07193e-11
1.07122e-11
1.0709e-11
1.07093e-11
1.07101e-11
)
;

boundaryField
{
    movingWall
    {
        type            zeroGradient;
    }
    fixedWalls
    {
        type            calculated;
        value           nonuniform List<scalar> 
60
(
7.42059e-12
3.46294e-11
2.16278e-11
6.63004e-11
3.33449e-11
8.93091e-11
4.08686e-11
1.01411e-10
4.35885e-11
1.02002e-10
4.17424e-11
9.27956e-11
3.63562e-11
7.68664e-11
2.88465e-11
5.77505e-11
2.05325e-11
3.80676e-11
1.17656e-11
2.04469e-11
1.08975e-11
1.08946e-11
1.08888e-11
1.08807e-11
1.08701e-11
1.08578e-11
1.0844e-11
1.08294e-11
1.08142e-11
1.07991e-11
1.07843e-11
1.077e-11
1.07567e-11
1.07449e-11
1.07348e-11
1.07263e-11
1.07196e-11
1.07146e-11
1.07116e-11
1.07103e-11
2.97347e-12
1.66564e-11
1.75368e-11
1.19707e-11
1.14954e-11
1.10268e-11
1.09816e-11
1.09243e-11
1.09088e-11
1.08993e-11
1.08974e-11
1.08978e-11
1.08996e-11
1.09015e-11
1.0903e-11
1.09038e-11
1.09035e-11
1.09017e-11
1.08996e-11
1.08982e-11
)
;
    }
    frontAndBack
    {
        type            empty;
    }
}


// ************************************************************************* //
