/*--------------------------------*- C++ -*----------------------------------*\
| =========                 |                                                 |
| \\      /  F ield         | OpenFOAM: The Open Source CFD Toolbox           |
|  \\    /   O peration     | Version:  2506                                  |
|   \\  /    A nd           | Website:  www.openfoam.com                      |
|    \\/     M anipulation  |                                                 |
\*---------------------------------------------------------------------------*/
FoamFile
{
    version     2.0;
    format      ascii;
    arch        "LSB;label=32;scalar=64";
    class       volScalarField;
    location    "3.875";
    object      QField;
}
// * * * * * * * * * * * * * * * * * * * * * * * * * * * * * * * * * * * * * //

dimensions      [0 0 -2 0 0 0 0];

internalField   nonuniform List<scalar> 
400
(
5.73796e-13
2.09813e-13
2.04612e-14
1.58727e-15
1.00216e-16
1.13861e-17
2.23883e-19
1.11316e-19
-7.60612e-21
2.05088e-21
-3.14258e-22
4.79323e-23
-1.40937e-23
-1.2191e-24
-1.76558e-24
-9.81925e-25
-9.87951e-25
-8.72126e-25
-2.21208e-25
-1.59062e-26
1.06263e-12
3.47053e-13
3.36343e-14
2.28671e-15
1.62808e-16
1.38237e-17
7.14578e-19
8.08802e-20
1.76463e-21
5.87204e-22
-5.76746e-23
-5.17128e-24
-9.37889e-24
-4.20126e-24
-2.41544e-24
-1.46933e-24
-1.10328e-24
-8.25006e-25
-1.66782e-25
-1.76693e-26
1.14592e-12
3.08418e-13
3.07476e-14
1.5634e-15
1.38288e-16
7.60129e-18
7.02772e-19
1.89401e-20
5.58129e-21
-3.33763e-22
6.2028e-23
-2.26649e-23
-4.8321e-24
-3.97955e-24
-2.01366e-24
-1.13572e-24
-8.21119e-25
-7.45386e-25
5.93064e-27
-2.47463e-26
1.31171e-12
3.41332e-13
3.47274e-14
1.75217e-15
1.46756e-16
1.00695e-17
5.31653e-19
6.16599e-20
2.34993e-22
6.08322e-22
-7.38977e-23
3.67057e-24
-7.20726e-24
-2.75833e-24
-1.8562e-24
-9.35591e-25
-6.91908e-25
-6.12526e-25
-7.90216e-26
2.27154e-26
1.28961e-12
3.28095e-13
3.38643e-14
1.64976e-15
1.42255e-16
8.80204e-18
6.20698e-19
3.22245e-20
4.44608e-21
-1.80095e-22
6.08814e-23
-1.71309e-23
-2.35183e-24
-3.2694e-24
-1.53579e-24
-7.865e-25
-4.72317e-25
-5.41395e-25
-1.50382e-25
-6.38695e-26
1.20989e-12
3.01233e-13
3.17524e-14
1.49958e-15
1.3154e-16
8.23041e-18
5.08324e-19
4.29751e-20
1.26349e-21
3.75389e-22
-4.17874e-23
4.34664e-24
-4.71056e-24
-1.72991e-24
-1.18883e-24
-5.49384e-25
-2.6859e-25
-2.80159e-25
-8.88519e-27
-1.86029e-26
1.03343e-12
2.50952e-13
2.69332e-14
1.24451e-15
1.07664e-16
6.82054e-18
4.16748e-19
2.936e-20
2.34986e-21
-1.17011e-23
2.93394e-23
-8.45877e-24
-1.09084e-24
-1.68979e-24
-8.68569e-25
-4.01414e-25
-1.38193e-25
-2.46232e-25
1.51186e-25
1.92095e-26
8.23669e-13
1.93753e-13
2.15178e-14
9.38884e-16
8.48921e-17
5.03108e-18
3.25114e-19
2.22893e-20
1.25623e-21
1.31966e-22
-1.26421e-23
1.25967e-24
-2.20071e-24
-9.81169e-25
-7.2126e-25
-2.43009e-25
-7.69265e-26
-1.01793e-25
7.6428e-26
1.11057e-26
5.64039e-13
1.25074e-13
1.46892e-14
5.8488e-16
5.35353e-17
3.25443e-18
1.69041e-19
1.50026e-20
5.9988e-22
3.89574e-23
6.17725e-24
-2.97775e-24
-8.36194e-25
-9.26995e-25
-5.81287e-25
-2.6484e-25
-3.23761e-26
-1.04248e-25
-8.36947e-27
-3.01532e-26
2.92398e-13
5.50611e-14
7.70088e-15
2.14849e-16
2.4924e-17
1.09435e-18
6.96779e-20
2.72338e-21
3.01038e-22
-6.65164e-25
-3.01376e-24
-5.71103e-25
-9.97593e-25
-6.71413e-25
-4.44679e-25
-1.9185e-25
-4.56216e-26
8.07586e-27
3.00214e-25
-4.09316e-27
4.50878e-15
-1.80302e-14
1.89119e-16
-1.55616e-16
-7.70563e-18
-8.15955e-19
-8.313e-20
-4.32791e-21
-6.01659e-22
-2.68265e-23
-4.80646e-24
-1.47671e-24
-7.41421e-25
-5.90837e-25
-4.00598e-25
-1.72637e-25
-7.93663e-26
-6.65033e-26
6.01816e-26
-2.00354e-27
-2.78965e-13
-8.83558e-14
-7.18821e-15
-5.10353e-16
-3.80491e-17
-2.82445e-18
-1.94863e-19
-1.49947e-20
-9.36035e-22
-8.89014e-23
-3.37926e-24
-1.74364e-24
-3.96613e-25
-5.3064e-25
-3.38105e-25
-1.81998e-25
-7.06288e-26
-1.54915e-25
1.14068e-25
6.68904e-28
-5.50412e-13
-1.54624e-13
-1.42854e-14
-8.37544e-16
-6.70379e-17
-4.61329e-18
-3.09955e-19
-2.29591e-20
-1.53928e-21
-1.08971e-22
-8.83243e-24
-6.48806e-25
-8.56289e-25
-5.02069e-25
-3.35099e-25
-1.28693e-25
-8.99382e-26
-9.9321e-26
3.42155e-26
5.63807e-27
-8.04608e-13
-2.15401e-13
-2.10026e-14
-1.13092e-15
-9.47228e-17
-6.20702e-18
-4.22995e-19
-2.96683e-20
-2.11911e-21
-1.26104e-22
-1.10737e-23
-1.97584e-24
-7.0784e-25
-5.49166e-25
-3.72477e-25
-1.72879e-25
-1.06999e-25
-7.82157e-26
3.53269e-25
-2.30043e-27
-1.02208e-12
-2.66229e-13
-2.67042e-14
-1.37603e-15
-1.16286e-16
-7.63955e-18
-4.88511e-19
-3.78003e-20
-2.21156e-21
-1.78161e-22
-1.20619e-23
-1.69605e-24
-9.61309e-25
-5.03609e-25
-3.89077e-25
-2.46888e-25
-1.83496e-25
-1.97798e-25
9.61775e-26
-1.18735e-26
-1.21635e-12
-3.11046e-13
-3.19044e-14
-1.58817e-15
-1.37479e-16
-8.76066e-18
-5.81003e-19
-4.13874e-20
-2.83307e-21
-1.75484e-22
-1.37903e-23
-2.36611e-24
-7.10739e-25
-7.23233e-25
-4.72511e-25
-2.18617e-25
-1.78935e-25
-2.86786e-25
5.13293e-26
-2.23299e-26
-1.35326e-12
-3.41319e-13
-3.5539e-14
-1.73285e-15
-1.49489e-16
-9.57303e-18
-6.07445e-19
-4.61223e-20
-2.73781e-21
-2.05942e-22
-1.5771e-23
-9.49021e-25
-1.2012e-24
-4.41713e-25
-4.0441e-25
-2.22027e-25
-2.57626e-25
-2.69007e-25
1.30896e-25
-4.29122e-26
-1.43135e-12
-3.54103e-13
-3.783e-14
-1.84499e-15
-1.59604e-16
-1.03564e-17
-6.82738e-19
-4.88732e-20
-3.43266e-21
-2.02471e-22
-2.00672e-23
-2.18666e-24
-9.1312e-25
-7.03106e-25
-3.81508e-25
-2.45351e-25
-2.08515e-25
-2.97902e-25
4.05663e-26
-5.50956e-26
-1.54043e-12
-3.2393e-13
-3.39699e-14
-1.30133e-15
-1.07627e-16
-6.51219e-18
-3.31049e-19
-2.60611e-20
-1.26039e-21
-1.19596e-22
8.39604e-26
-3.03863e-24
-9.49003e-25
-8.93374e-25
-5.56104e-25
-2.75261e-25
-2.8372e-25
-4.11127e-25
3.29699e-26
-7.73721e-26
-8.23086e-13
-1.50468e-13
-1.4995e-14
-3.9027e-16
-2.59087e-17
-1.64456e-18
1.04073e-19
-1.7224e-20
3.92986e-21
-6.67543e-22
1.4039e-22
-2.71329e-23
4.3089e-24
-1.32246e-24
-1.02432e-25
-3.46894e-25
-5.03963e-25
-6.45068e-25
-2.61782e-25
-1.4417e-25
)
;

boundaryField
{
    movingWall
    {
        type            calculated;
        value           nonuniform List<scalar> 
20
(
8.47334e-14
1.37738e-13
5.36389e-14
8.1384e-16
1.87764e-16
8.16011e-18
7.67825e-19
1.00729e-20
1.06832e-20
-1.36891e-21
3.25932e-22
-5.99214e-23
1.15125e-23
-2.11063e-24
3.54064e-25
-3.50865e-25
-6.08775e-25
-7.15855e-25
-4.80853e-25
-1.67274e-25
)
;
    }
    fixedWalls
    {
        type            calculated;
        value           nonuniform List<scalar> 
60
(
3.00666e-12
5.56711e-12
6.00107e-12
6.86763e-12
6.75199e-12
6.33601e-12
5.41471e-12
4.31945e-12
2.9628e-12
1.54252e-12
3.57031e-14
-1.4495e-12
-2.87363e-12
-4.20896e-12
-5.35318e-12
-6.37665e-12
-7.09939e-12
-7.51309e-12
-8.08886e-12
-4.32665e-12
-4.22317e-27
-1.15797e-26
-1.15841e-26
-4.75535e-26
4.96399e-26
-1.21916e-26
-9.12539e-26
-4.68414e-26
5.81754e-26
0
1.6413e-27
0
-6.87788e-26
-1.88451e-27
-7.32561e-26
-1.40571e-25
-3.90596e-26
-7.16722e-27
-1.53738e-25
-9.51579e-26
2.2616e-13
2.29608e-13
5.01516e-15
1.54963e-15
-4.25908e-18
1.16768e-17
-8.31887e-19
1.90886e-19
-2.64013e-20
4.67306e-21
-7.59573e-22
1.30919e-22
-2.34895e-23
2.89288e-24
-1.06034e-24
-4.89795e-25
-8.74671e-25
-7.58093e-25
-2.80901e-25
-1.97259e-26
)
;
    }
    frontAndBack
    {
        type            empty;
    }
}


// ************************************************************************* //
