/*--------------------------------*- C++ -*----------------------------------*\
| =========                 |                                                 |
| \\      /  F ield         | OpenFOAM: The Open Source CFD Toolbox           |
|  \\    /   O peration     | Version:  2506                                  |
|   \\  /    A nd           | Website:  www.openfoam.com                      |
|    \\/     M anipulation  |                                                 |
\*---------------------------------------------------------------------------*/
FoamFile
{
    version     2.0;
    format      ascii;
    arch        "LSB;label=32;scalar=64";
    class       volVectorField;
    location    "3.875";
    object      vorticityField;
}
// * * * * * * * * * * * * * * * * * * * * * * * * * * * * * * * * * * * * * //

dimensions      [0 0 -1 0 0 0 0];

internalField   nonuniform List<vector> 
400
(
(0 -0 7.01212e-06)
(0 -0 -8.59209e-06)
(0 -0 2.03756e-06)
(0 -0 -4.84517e-07)
(0 -0 1.14773e-07)
(0 -0 -2.74254e-08)
(0 -0 6.42165e-09)
(0 -0 -1.59146e-09)
(0 -0 3.34811e-10)
(0 -0 -1.10516e-10)
(0 -0 4.33266e-12)
(0 -0 -1.68688e-11)
(0 -0 -7.33392e-12)
(0 -0 -6.36315e-12)
(0 -0 -4.178e-12)
(0 -0 -2.86819e-12)
(0 -0 -1.71955e-12)
(0 -0 -6.87255e-13)
(0 -0 -4.00141e-14)
(0 -0 -6.28844e-14)
(0 -0 -7.08295e-06)
(0 -0 8.60832e-06)
(0 -0 -2.04274e-06)
(0 -0 4.84688e-07)
(0 -0 -1.15e-07)
(0 -0 2.72826e-08)
(0 -0 -6.47325e-09)
(0 -0 1.53489e-09)
(0 -0 -3.64599e-10)
(0 -0 8.59959e-11)
(0 -0 -2.08159e-11)
(0 -0 4.58469e-12)
(0 -0 -1.39444e-12)
(0 -0 9.35674e-15)
(0 -0 -3.77261e-13)
(0 -0 -1.46883e-13)
(0 -0 -1.67074e-14)
(0 -0 -3.29811e-13)
(0 -0 -7.15994e-13)
(0 -0 -2.74216e-13)
(0 -0 7.09484e-06)
(0 -0 -8.60012e-06)
(0 -0 2.03812e-06)
(0 -0 -4.82945e-07)
(0 -0 1.14429e-07)
(0 -0 -2.71119e-08)
(0 -0 6.4226e-09)
(0 -0 -1.52203e-09)
(0 -0 3.60021e-10)
(0 -0 -8.57736e-11)
(0 -0 1.98876e-11)
(0 -0 -5.20716e-12)
(0 -0 5.66873e-13)
(0 -0 -8.62922e-13)
(0 -0 -4.43974e-13)
(0 -0 -3.59571e-13)
(0 -0 -2.09119e-13)
(0 -0 -6.54495e-13)
(0 -0 -1.35352e-12)
(0 -0 -4.04633e-13)
(0 -0 -7.12141e-06)
(0 -0 8.60554e-06)
(0 -0 -2.03856e-06)
(0 -0 4.82842e-07)
(0 -0 -1.14357e-07)
(0 -0 2.70822e-08)
(0 -0 -6.41399e-09)
(0 -0 1.51811e-09)
(0 -0 -3.60208e-10)
(0 -0 8.45727e-11)
(0 -0 -2.07587e-11)
(0 -0 4.18703e-12)
(0 -0 -1.76753e-12)
(0 -0 -4.65221e-13)
(0 -0 -6.55123e-13)
(0 -0 -3.58684e-13)
(0 -0 -1.13169e-13)
(0 -0 -7.41625e-13)
(0 -0 -1.74041e-12)
(0 -0 -5.97756e-13)
(0 -0 7.12361e-06)
(0 -0 -8.60967e-06)
(0 -0 2.0391e-06)
(0 -0 -4.82865e-07)
(0 -0 1.14335e-07)
(0 -0 -2.70725e-08)
(0 -0 6.40874e-09)
(0 -0 -1.51812e-09)
(0 -0 3.58503e-10)
(0 -0 -8.57385e-11)
(0 -0 1.94617e-11)
(0 -0 -5.33537e-12)
(0 -0 5.74091e-13)
(0 -0 -8.70508e-13)
(0 -0 -5.48639e-13)
(0 -0 -3.39975e-13)
(0 -0 -1.66528e-14)
(0 -0 -8.50265e-13)
(0 -0 -2.07101e-12)
(0 -0 -5.90325e-13)
(0 -0 -7.12292e-06)
(0 -0 8.61954e-06)
(0 -0 -2.0413e-06)
(0 -0 4.83351e-07)
(0 -0 -1.14446e-07)
(0 -0 2.70952e-08)
(0 -0 -6.41561e-09)
(0 -0 1.51789e-09)
(0 -0 -3.60242e-10)
(0 -0 8.43051e-11)
(0 -0 -2.08751e-11)
(0 -0 4.12668e-12)
(0 -0 -1.88189e-12)
(0 -0 -6.14414e-13)
(0 -0 -8.52887e-13)
(0 -0 -4.12334e-13)
(0 -0 -8.54811e-14)
(0 -0 -1.02208e-12)
(0 -0 -2.42573e-12)
(0 -0 -6.69669e-13)
(0 -0 7.11349e-06)
(0 -0 -8.6337e-06)
(0 -0 2.04476e-06)
(0 -0 -4.84201e-07)
(0 -0 1.14652e-07)
(0 -0 -2.7148e-08)
(0 -0 6.42671e-09)
(0 -0 -1.52254e-09)
(0 -0 3.59447e-10)
(0 -0 -8.61327e-11)
(0 -0 1.92501e-11)
(0 -0 -5.57585e-12)
(0 -0 2.02967e-13)
(0 -0 -1.26051e-12)
(0 -0 -7.60493e-13)
(0 -0 -4.56108e-13)
(0 -0 -8.479e-14)
(0 -0 -1.09615e-12)
(0 -0 -2.6957e-12)
(0 -0 -7.25383e-13)
(0 -0 -7.10551e-06)
(0 -0 8.65484e-06)
(0 -0 -2.05004e-06)
(0 -0 4.85515e-07)
(0 -0 -1.14983e-07)
(0 -0 2.72286e-08)
(0 -0 -6.44916e-09)
(0 -0 1.52594e-09)
(0 -0 -3.62495e-10)
(0 -0 8.45892e-11)
(0 -0 -2.11502e-11)
(0 -0 3.90881e-12)
(0 -0 -2.09412e-12)
(0 -0 -7.71073e-13)
(0 -0 -9.70621e-13)
(0 -0 -5.16884e-13)
(0 -0 -3.90924e-14)
(0 -0 -1.17052e-12)
(0 -0 -2.8234e-12)
(0 -0 -6.68313e-13)
(0 -0 7.0959e-06)
(0 -0 -8.6818e-06)
(0 -0 2.05683e-06)
(0 -0 -4.8723e-07)
(0 -0 1.15412e-07)
(0 -0 -2.73394e-08)
(0 -0 6.47459e-09)
(0 -0 -1.53482e-09)
(0 -0 3.62289e-10)
(0 -0 -8.70671e-11)
(0 -0 1.94183e-11)
(0 -0 -5.7078e-12)
(0 -0 2.02471e-13)
(0 -0 -1.32382e-12)
(0 -0 -8.39062e-13)
(0 -0 -4.35063e-13)
(0 -0 -5.32061e-14)
(0 -0 -1.20071e-12)
(0 -0 -2.87546e-12)
(0 -0 -5.36129e-13)
(0 -0 -7.08993e-06)
(0 -0 8.71531e-06)
(0 -0 -2.06528e-06)
(0 -0 4.89355e-07)
(0 -0 -1.15951e-07)
(0 -0 2.74725e-08)
(0 -0 -6.51059e-09)
(0 -0 1.54143e-09)
(0 -0 -3.6638e-10)
(0 -0 8.56809e-11)
(0 -0 -2.14409e-11)
(0 -0 3.99741e-12)
(0 -0 -2.11677e-12)
(0 -0 -7.62231e-13)
(0 -0 -9.98996e-13)
(0 -0 -4.3608e-13)
(0 -0 2.41971e-14)
(0 -0 -1.29042e-12)
(0 -0 -3.00266e-12)
(0 -0 -4.69607e-13)
(0 -0 7.08583e-06)
(0 -0 -8.75379e-06)
(0 -0 2.07498e-06)
(0 -0 -4.91802e-07)
(0 -0 1.16564e-07)
(0 -0 -2.76294e-08)
(0 -0 6.54753e-09)
(0 -0 -1.55313e-09)
(0 -0 3.67004e-10)
(0 -0 -8.8099e-11)
(0 -0 1.97748e-11)
(0 -0 -5.66706e-12)
(0 -0 2.78824e-13)
(0 -0 -1.3267e-12)
(0 -0 -8.42202e-13)
(0 -0 -4.90816e-13)
(0 -0 -2.33622e-14)
(0 -0 -1.18033e-12)
(0 -0 -2.8574e-12)
(0 -0 -3.87522e-13)
(0 -0 -7.08564e-06)
(0 -0 8.79685e-06)
(0 -0 -2.08583e-06)
(0 -0 4.94528e-07)
(0 -0 -1.17252e-07)
(0 -0 2.77996e-08)
(0 -0 -6.59298e-09)
(0 -0 1.56204e-09)
(0 -0 -3.71683e-10)
(0 -0 8.68833e-11)
(0 -0 -2.17946e-11)
(0 -0 4.08494e-12)
(0 -0 -2.16754e-12)
(0 -0 -8.00426e-13)
(0 -0 -1.00033e-12)
(0 -0 -3.84607e-13)
(0 -0 5.89468e-14)
(0 -0 -1.0697e-12)
(0 -0 -2.77773e-12)
(0 -0 -3.1065e-13)
(0 -0 7.08886e-06)
(0 -0 -8.84241e-06)
(0 -0 2.09727e-06)
(0 -0 -4.97403e-07)
(0 -0 1.1797e-07)
(0 -0 -2.79825e-08)
(0 -0 6.63603e-09)
(0 -0 -1.57542e-09)
(0 -0 3.72518e-10)
(0 -0 -8.95229e-11)
(0 -0 2.01789e-11)
(0 -0 -5.80367e-12)
(0 -0 2.95986e-13)
(0 -0 -1.20318e-12)
(0 -0 -7.9996e-13)
(0 -0 -4.53614e-13)
(0 -0 2.96825e-14)
(0 -0 -1.06129e-12)
(0 -0 -2.61535e-12)
(0 -0 -2.35113e-13)
(0 -0 -7.09493e-06)
(0 -0 8.88937e-06)
(0 -0 -2.10907e-06)
(0 -0 5.00356e-07)
(0 -0 -1.18712e-07)
(0 -0 2.81654e-08)
(0 -0 -6.68418e-09)
(0 -0 1.58505e-09)
(0 -0 -3.77219e-10)
(0 -0 8.8493e-11)
(0 -0 -2.20327e-11)
(0 -0 4.29395e-12)
(0 -0 -1.90775e-12)
(0 -0 -6.36381e-13)
(0 -0 -8.30522e-13)
(0 -0 -3.12035e-13)
(0 -0 5.33588e-15)
(0 -0 -1.06257e-12)
(0 -0 -2.55885e-12)
(0 -0 -1.15413e-13)
(0 -0 7.10472e-06)
(0 -0 -8.93532e-06)
(0 -0 2.12055e-06)
(0 -0 -5.03224e-07)
(0 -0 1.19425e-07)
(0 -0 -2.83454e-08)
(0 -0 6.72684e-09)
(0 -0 -1.59773e-09)
(0 -0 3.78305e-10)
(0 -0 -9.0873e-11)
(0 -0 2.05913e-11)
(0 -0 -5.64529e-12)
(0 -0 5.13263e-13)
(0 -0 -1.0866e-12)
(0 -0 -5.87539e-13)
(0 -0 -2.43839e-13)
(0 -0 1.26727e-13)
(0 -0 -8.58534e-13)
(0 -0 -2.23568e-12)
(0 -0 -8.55478e-14)
(0 -0 -7.11502e-06)
(0 -0 8.97871e-06)
(0 -0 -2.13139e-06)
(0 -0 5.05924e-07)
(0 -0 -1.20099e-07)
(0 -0 2.85105e-08)
(0 -0 -6.77006e-09)
(0 -0 1.60631e-09)
(0 -0 -3.82462e-10)
(0 -0 8.98693e-11)
(0 -0 -2.22364e-11)
(0 -0 4.53301e-12)
(0 -0 -1.82711e-12)
(0 -0 -3.58105e-13)
(0 -0 -5.89098e-13)
(0 -0 -1.30821e-13)
(0 -0 8.15963e-14)
(0 -0 -7.23919e-13)
(0 -0 -1.92187e-12)
(0 -0 -6.52689e-14)
(0 -0 7.12875e-06)
(0 -0 -9.01751e-06)
(0 -0 2.141e-06)
(0 -0 -5.08306e-07)
(0 -0 1.20687e-07)
(0 -0 -2.86579e-08)
(0 -0 6.80425e-09)
(0 -0 -1.61673e-09)
(0 -0 3.83172e-10)
(0 -0 -9.18246e-11)
(0 -0 2.10406e-11)
(0 -0 -5.71391e-12)
(0 -0 6.09859e-13)
(0 -0 -9.27699e-13)
(0 -0 -4.88766e-13)
(0 -0 -2.54735e-13)
(0 -0 3.41792e-14)
(0 -0 -6.30942e-13)
(0 -0 -1.64506e-12)
(0 -0 3.07669e-14)
(0 -0 -7.14492e-06)
(0 -0 9.05107e-06)
(0 -0 -2.14934e-06)
(0 -0 5.10366e-07)
(0 -0 -1.21197e-07)
(0 -0 2.8782e-08)
(0 -0 -6.8362e-09)
(0 -0 1.62329e-09)
(0 -0 -3.85956e-10)
(0 -0 9.13709e-11)
(0 -0 -2.20656e-11)
(0 -0 4.87839e-12)
(0 -0 -1.53991e-12)
(0 -0 -1.42796e-13)
(0 -0 -4.04318e-13)
(0 -0 -6.22543e-14)
(0 -0 1.45305e-13)
(0 -0 -4.34688e-13)
(0 -0 -1.21843e-12)
(0 -0 5.96974e-14)
(0 -0 7.15036e-06)
(0 -0 -9.08098e-06)
(0 -0 2.1583e-06)
(0 -0 -5.1294e-07)
(0 -0 1.21913e-07)
(0 -0 -2.89781e-08)
(0 -0 6.88803e-09)
(0 -0 -1.63764e-09)
(0 -0 3.89122e-10)
(0 -0 -9.26549e-11)
(0 -0 2.20728e-11)
(0 -0 -5.19399e-12)
(0 -0 1.26075e-12)
(0 -0 -3.48262e-13)
(0 -0 1.25752e-13)
(0 -0 1.44342e-13)
(0 -0 3.54837e-13)
(0 -0 -1.63231e-13)
(0 -0 -8.88068e-13)
(0 -0 -1.17816e-13)
(0 -0 -7.25797e-06)
(0 -0 9.11817e-06)
(0 -0 -2.17652e-06)
(0 -0 5.17448e-07)
(0 -0 -1.23571e-07)
(0 -0 2.94656e-08)
(0 -0 -7.05069e-09)
(0 -0 1.6741e-09)
(0 -0 -4.12315e-10)
(0 -0 8.94008e-11)
(0 -0 -2.92659e-11)
(0 -0 8.89863e-13)
(0 -0 -5.05899e-12)
(0 -0 -2.44325e-12)
(0 -0 -2.10437e-12)
(0 -0 -1.38456e-12)
(0 -0 -9.38063e-13)
(0 -0 -3.02941e-13)
(0 -0 2.30117e-13)
(0 -0 1.60056e-13)
)
;

boundaryField
{
    movingWall
    {
        type            calculated;
        value           nonuniform List<vector> 
20
(
(0 -0 -7.79415e-06)
(0 -0 9.24479e-06)
(0 -0 -2.23243e-06)
(0 -0 5.31052e-07)
(0 -0 -1.28217e-07)
(0 -0 3.08132e-08)
(0 -0 -7.44775e-09)
(0 -0 1.78122e-09)
(0 -0 -4.54817e-10)
(0 -0 9.15389e-11)
(0 -0 -3.8313e-11)
(0 -0 -3.28774e-12)
(0 -0 -9.18117e-12)
(0 -0 -5.29366e-12)
(0 -0 -4.41606e-12)
(0 -0 -3.08373e-12)
(0 -0 -2.12852e-12)
(0 -0 -5.64797e-13)
(0 -0 8.42648e-13)
(0 -0 4.58818e-13)
)
;
    }
    fixedWalls
    {
        type            calculated;
        value           nonuniform List<vector> 
60
(
(0 -0 3.63925e-05)
(0 -0 -3.64578e-05)
(0 -0 3.64547e-05)
(0 -0 -3.64821e-05)
(0 -0 3.65026e-05)
(0 -0 -3.65459e-05)
(0 -0 3.66064e-05)
(0 -0 -3.66954e-05)
(0 -0 3.68082e-05)
(0 -0 -3.6948e-05)
(0 -0 3.71083e-05)
(0 -0 -3.72875e-05)
(0 -0 3.7477e-05)
(0 -0 -3.76721e-05)
(0 -0 3.78632e-05)
(0 -0 -3.80436e-05)
(0 -0 3.82051e-05)
(0 -0 -3.83443e-05)
(0 -0 3.84418e-05)
(0 -0 -3.86246e-05)
(0 -0 1.68898e-13)
(0 -0 3.55506e-13)
(0 -0 6.36193e-13)
(0 -0 8.22997e-13)
(0 -0 1.18849e-12)
(0 -0 1.41086e-12)
(0 -0 1.62913e-12)
(0 -0 1.89066e-12)
(0 -0 2.1734e-12)
(0 -0 2.35715e-12)
(0 -0 2.44832e-12)
(0 -0 2.50498e-12)
(0 -0 2.51992e-12)
(0 -0 2.52827e-12)
(0 -0 2.35018e-12)
(0 -0 2.07686e-12)
(0 -0 1.81332e-12)
(0 -0 1.45454e-12)
(0 -0 8.78797e-13)
(0 -0 5.65497e-13)
(0 -0 6.86266e-06)
(0 -0 -8.57674e-06)
(0 -0 2.03124e-06)
(0 -0 -4.85184e-07)
(0 -0 1.1469e-07)
(0 -0 -2.76375e-08)
(0 -0 6.38062e-09)
(0 -0 -1.6554e-09)
(0 -0 3.03958e-10)
(0 -0 -1.36015e-10)
(0 -0 -1.23118e-11)
(0 -0 -2.91795e-11)
(0 -0 -1.6053e-11)
(0 -0 -1.25802e-11)
(0 -0 -8.40921e-12)
(0 -0 -5.75321e-12)
(0 -0 -3.70767e-12)
(0 -0 -1.45032e-12)
(0 -0 9.84169e-14)
(0 -0 -2.82767e-14)
)
;
    }
    frontAndBack
    {
        type            empty;
    }
}


// ************************************************************************* //
