/*--------------------------------*- C++ -*----------------------------------*\
| =========                 |                                                 |
| \\      /  F ield         | OpenFOAM: The Open Source CFD Toolbox           |
|  \\    /   O peration     | Version:  2506                                  |
|   \\  /    A nd           | Website:  www.openfoam.com                      |
|    \\/     M anipulation  |                                                 |
\*---------------------------------------------------------------------------*/
FoamFile
{
    version     2.0;
    format      ascii;
    arch        "LSB;label=32;scalar=64";
    class       volVectorField;
    location    "3.875";
    object      zeroGradient(U);
}
// * * * * * * * * * * * * * * * * * * * * * * * * * * * * * * * * * * * * * //

dimensions      [0 1 -1 0 0 0 0];

internalField   nonuniform List<vector> 
400
(
(-1 9.07743e-08 0)
(-1 -2.14811e-08 0)
(-1 5.09832e-09 0)
(-1 -1.20651e-09 0)
(-1 2.86146e-10 0)
(-1 -6.76018e-11 0)
(-1 1.61097e-11 0)
(-1 -3.74581e-12 0)
(-1 9.27534e-13 0)
(-1 -1.91978e-13 0)
(-1 6.38757e-14 0)
(-1 -2.01299e-15 0)
(-1 1.01128e-14 0)
(-1 4.87881e-15 0)
(-1 4.21503e-15 0)
(-1 2.9432e-15 0)
(-1 2.63815e-15 0)
(-1 2.28183e-15 0)
(-1 1.45766e-15 0)
(-1 -2.86719e-16 0)
(-1 -9.07613e-08 0)
(-1 2.14647e-08 0)
(-1 -5.08266e-09 0)
(-1 1.20316e-09 0)
(-1 -2.83285e-10 0)
(-1 6.74629e-11 0)
(-1 -1.56011e-11 0)
(-1 3.85309e-12 0)
(-1 -7.92876e-13 0)
(-1 2.61588e-13 0)
(-1 -8.54014e-15 0)
(-1 3.98762e-14 0)
(-1 1.88753e-14 0)
(-1 1.67161e-14 0)
(-1 1.19215e-14 0)
(-1 9.14876e-15 0)
(-1 7.74219e-15 0)
(-1 7.08433e-15 0)
(-1 3.63093e-15 0)
(-1 -8.88765e-16 0)
(-1 9.07234e-08 0)
(-1 -2.14281e-08 0)
(-1 5.08141e-09 0)
(-1 -1.19879e-09 0)
(-1 2.84387e-10 0)
(-1 -6.66844e-11 0)
(-1 1.60903e-11 0)
(-1 -3.567e-12 0)
(-1 9.98182e-13 0)
(-1 -1.25625e-13 0)
(-1 1.08191e-13 0)
(-1 3.25936e-14 0)
(-1 3.60619e-14 0)
(-1 2.44387e-14 0)
(-1 1.90301e-14 0)
(-1 1.4578e-14 0)
(-1 1.24528e-14 0)
(-1 1.11315e-14 0)
(-1 5.63682e-15 0)
(-1 -1.59048e-15 0)
(-1 -9.07316e-08 0)
(-1 2.14117e-08 0)
(-1 -5.07448e-09 0)
(-1 1.19784e-09 0)
(-1 -2.82564e-10 0)
(-1 6.72054e-11 0)
(-1 -1.55101e-11 0)
(-1 3.89604e-12 0)
(-1 -7.46136e-13 0)
(-1 3.01011e-13 0)
(-1 2.28842e-14 0)
(-1 6.55059e-14 0)
(-1 3.92758e-14 0)
(-1 3.26518e-14 0)
(-1 2.43236e-14 0)
(-1 1.90533e-14 0)
(-1 1.64e-14 0)
(-1 1.52111e-14 0)
(-1 7.62848e-15 0)
(-1 -2.19302e-15 0)
(-1 9.07898e-08 0)
(-1 -2.14206e-08 0)
(-1 5.07751e-09 0)
(-1 -1.19737e-09 0)
(-1 2.83404e-10 0)
(-1 -6.66512e-11 0)
(-1 1.59714e-11 0)
(-1 -3.56183e-12 0)
(-1 1.00243e-12 0)
(-1 -1.08797e-13 0)
(-1 1.24442e-13 0)
(-1 4.81441e-14 0)
(-1 4.99463e-14 0)
(-1 3.62667e-14 0)
(-1 2.87729e-14 0)
(-1 2.23777e-14 0)
(-1 1.9681e-14 0)
(-1 1.84165e-14 0)
(-1 9.28104e-15 0)
(-1 -2.83569e-15 0)
(-1 -9.0925e-08 0)
(-1 2.14552e-08 0)
(-1 -5.08521e-09 0)
(-1 1.19996e-09 0)
(-1 -2.83461e-10 0)
(-1 6.72185e-11 0)
(-1 -1.56433e-11 0)
(-1 3.8704e-12 0)
(-1 -7.65243e-13 0)
(-1 3.0051e-13 0)
(-1 2.68503e-14 0)
(-1 7.27852e-14 0)
(-1 4.72462e-14 0)
(-1 4.01428e-14 0)
(-1 3.08021e-14 0)
(-1 2.45666e-14 0)
(-1 2.17998e-14 0)
(-1 2.07302e-14 0)
(-1 1.02238e-14 0)
(-1 -3.52714e-15 0)
(-1 9.11371e-08 0)
(-1 -2.15173e-08 0)
(-1 5.10012e-09 0)
(-1 -1.20403e-09 0)
(-1 2.84881e-10 0)
(-1 -6.72139e-11 0)
(-1 1.60154e-11 0)
(-1 -3.6407e-12 0)
(-1 9.87033e-13 0)
(-1 -1.22671e-13 0)
(-1 1.2164e-13 0)
(-1 4.86874e-14 0)
(-1 5.28713e-14 0)
(-1 3.9604e-14 0)
(-1 3.21347e-14 0)
(-1 2.57649e-14 0)
(-1 2.32368e-14 0)
(-1 2.22065e-14 0)
(-1 1.09201e-14 0)
(-1 -4.20834e-15 0)
(-1 -9.14322e-08 0)
(-1 2.16021e-08 0)
(-1 -5.12054e-09 0)
(-1 1.20991e-09 0)
(-1 -2.86189e-10 0)
(-1 6.78301e-11 0)
(-1 -1.58987e-11 0)
(-1 3.88035e-12 0)
(-1 -8.05821e-13 0)
(-1 2.89019e-13 0)
(-1 1.75741e-14 0)
(-1 6.93857e-14 0)
(-1 4.60912e-14 0)
(-1 4.0584e-14 0)
(-1 3.18753e-14 0)
(-1 2.59989e-14 0)
(-1 2.37249e-14 0)
(-1 2.31685e-14 0)
(-1 1.12065e-14 0)
(-1 -4.79442e-15 0)
(-1 9.18041e-08 0)
(-1 -2.17104e-08 0)
(-1 5.14673e-09 0)
(-1 -1.21722e-09 0)
(-1 2.88258e-10 0)
(-1 -6.81655e-11 0)
(-1 1.62203e-11 0)
(-1 -3.73881e-12 0)
(-1 9.81354e-13 0)
(-1 -1.43296e-13 0)
(-1 1.12851e-13 0)
(-1 4.22131e-14 0)
(-1 4.95386e-14 0)
(-1 3.80036e-14 0)
(-1 3.14215e-14 0)
(-1 2.55473e-14 0)
(-1 2.38183e-14 0)
(-1 2.33889e-14 0)
(-1 1.09981e-14 0)
(-1 -5.36573e-15 0)
(-1 -9.22478e-08 0)
(-1 2.18371e-08 0)
(-1 -5.1774e-09 0)
(-1 1.22575e-09 0)
(-1 -2.90357e-10 0)
(-1 6.88765e-11 0)
(-1 -1.62212e-11 0)
(-1 3.93407e-12 0)
(-1 -8.45044e-13 0)
(-1 2.80842e-13 0)
(-1 6.07319e-15 0)
(-1 6.26388e-14 0)
(-1 4.11684e-14 0)
(-1 3.74054e-14 0)
(-1 2.97513e-14 0)
(-1 2.47049e-14 0)
(-1 2.32221e-14 0)
(-1 2.30496e-14 0)
(-1 1.05889e-14 0)
(-1 -5.89287e-15 0)
(-1 9.27484e-08 0)
(-1 -2.19795e-08 0)
(-1 5.21175e-09 0)
(-1 -1.23516e-09 0)
(-1 2.92916e-10 0)
(-1 -6.93757e-11 0)
(-1 1.65325e-11 0)
(-1 -3.83811e-12 0)
(-1 9.90104e-13 0)
(-1 -1.61025e-13 0)
(-1 1.05048e-13 0)
(-1 3.45548e-14 0)
(-1 4.43113e-14 0)
(-1 3.38194e-14 0)
(-1 2.83338e-14 0)
(-1 2.3229e-14 0)
(-1 2.20704e-14 0)
(-1 2.21822e-14 0)
(-1 9.99601e-15 0)
(-1 -6.12079e-15 0)
(-1 -9.32949e-08 0)
(-1 2.21335e-08 0)
(-1 -5.24858e-09 0)
(-1 1.24541e-09 0)
(-1 -2.95381e-10 0)
(-1 7.01768e-11 0)
(-1 -1.65757e-11 0)
(-1 4.01503e-12 0)
(-1 -8.7885e-13 0)
(-1 2.77326e-13 0)
(-1 -4.32527e-15 0)
(-1 5.58567e-14 0)
(-1 3.51689e-14 0)
(-1 3.2555e-14 0)
(-1 2.58094e-14 0)
(-1 2.14675e-14 0)
(-1 2.06081e-14 0)
(-1 2.09727e-14 0)
(-1 9.36897e-15 0)
(-1 -6.26246e-15 0)
(-1 9.38631e-08 0)
(-1 -2.22917e-08 0)
(-1 5.28664e-09 0)
(-1 -1.25556e-09 0)
(-1 2.98157e-10 0)
(-1 -7.06994e-11 0)
(-1 1.68889e-11 0)
(-1 -3.93415e-12 0)
(-1 1.00624e-12 0)
(-1 -1.75634e-13 0)
(-1 9.85442e-14 0)
(-1 2.66972e-14 0)
(-1 3.77969e-14 0)
(-1 2.83018e-14 0)
(-1 2.38678e-14 0)
(-1 1.94891e-14 0)
(-1 1.90606e-14 0)
(-1 1.95148e-14 0)
(-1 8.44765e-15 0)
(-1 -6.36757e-15 0)
(-1 -9.44399e-08 0)
(-1 2.24519e-08 0)
(-1 -5.3246e-09 0)
(-1 1.26613e-09 0)
(-1 -3.00601e-10 0)
(-1 7.15187e-11 0)
(-1 -1.69294e-11 0)
(-1 4.1001e-12 0)
(-1 -9.09229e-13 0)
(-1 2.75597e-13 0)
(-1 -1.39996e-14 0)
(-1 4.84946e-14 0)
(-1 2.81268e-14 0)
(-1 2.67066e-14 0)
(-1 2.09498e-14 0)
(-1 1.75882e-14 0)
(-1 1.72874e-14 0)
(-1 1.76415e-14 0)
(-1 7.47481e-15 0)
(-1 -6.32068e-15 0)
(-1 9.49941e-08 0)
(-1 -2.26028e-08 0)
(-1 5.36091e-09 0)
(-1 -1.27552e-09 0)
(-1 3.03205e-10 0)
(-1 -7.19684e-11 0)
(-1 1.72206e-11 0)
(-1 -4.02457e-12 0)
(-1 1.02016e-12 0)
(-1 -1.90024e-13 0)
(-1 9.11044e-14 0)
(-1 1.80575e-14 0)
(-1 3.05858e-14 0)
(-1 2.18348e-14 0)
(-1 1.83645e-14 0)
(-1 1.51463e-14 0)
(-1 1.5113e-14 0)
(-1 1.58715e-14 0)
(-1 6.52764e-15 0)
(-1 -5.94322e-15 0)
(-1 -9.55135e-08 0)
(-1 2.27447e-08 0)
(-1 -5.39441e-09 0)
(-1 1.28475e-09 0)
(-1 -3.05286e-10 0)
(-1 7.26871e-11 0)
(-1 -1.7246e-11 0)
(-1 4.16716e-12 0)
(-1 -9.39467e-13 0)
(-1 2.70172e-13 0)
(-1 -2.50528e-14 0)
(-1 3.99476e-14 0)
(-1 2.00062e-14 0)
(-1 1.97792e-14 0)
(-1 1.50699e-14 0)
(-1 1.2804e-14 0)
(-1 1.26775e-14 0)
(-1 1.33489e-14 0)
(-1 5.43827e-15 0)
(-1 -5.32768e-15 0)
(-1 9.59663e-08 0)
(-1 -2.28648e-08 0)
(-1 5.4233e-09 0)
(-1 -1.29194e-09 0)
(-1 3.07276e-10 0)
(-1 -7.30042e-11 0)
(-1 1.74656e-11 0)
(-1 -4.10441e-12 0)
(-1 1.02214e-12 0)
(-1 -2.07089e-13 0)
(-1 8.05827e-14 0)
(-1 7.38303e-15 0)
(-1 2.12752e-14 0)
(-1 1.40237e-14 0)
(-1 1.19982e-14 0)
(-1 9.67817e-15 0)
(-1 9.99296e-15 0)
(-1 1.08331e-14 0)
(-1 4.22564e-15 0)
(-1 -4.5333e-15 0)
(-1 -9.63427e-08 0)
(-1 2.29654e-08 0)
(-1 -5.44794e-09 0)
(-1 1.29845e-09 0)
(-1 -3.08843e-10 0)
(-1 7.35492e-11 0)
(-1 -1.74977e-11 0)
(-1 4.20792e-12 0)
(-1 -9.72097e-13 0)
(-1 2.6e-13 0)
(-1 -3.86017e-14 0)
(-1 2.95865e-14 0)
(-1 1.04532e-14 0)
(-1 1.2019e-14 0)
(-1 8.75419e-15 0)
(-1 7.43375e-15 0)
(-1 7.58955e-15 0)
(-1 8.07364e-15 0)
(-1 3.24267e-15 0)
(-1 -3.56859e-15 0)
(-1 9.66249e-08 0)
(-1 -2.30396e-08 0)
(-1 5.46367e-09 0)
(-1 -1.30125e-09 0)
(-1 3.09505e-10 0)
(-1 -7.34819e-11 0)
(-1 1.75387e-11 0)
(-1 -4.14166e-12 0)
(-1 1.00803e-12 0)
(-1 -2.21429e-13 0)
(-1 6.82022e-14 0)
(-1 -3.14028e-15 0)
(-1 1.19256e-14 0)
(-1 6.2146e-15 0)
(-1 5.73245e-15 0)
(-1 4.49057e-15 0)
(-1 4.73641e-15 0)
(-1 5.59948e-15 0)
(-1 2.562e-15 0)
(-1 -2.46804e-15 0)
(-1 -9.68401e-08 0)
(-1 2.31458e-08 0)
(-1 -5.4948e-09 0)
(-1 1.31234e-09 0)
(-1 -3.13026e-10 0)
(-1 7.46211e-11 0)
(-1 -1.78518e-11 0)
(-1 4.27539e-12 0)
(-1 -1.01567e-12 0)
(-1 2.50357e-13 0)
(-1 -5.49884e-14 0)
(-1 1.73294e-14 0)
(-1 -8.24328e-16 0)
(-1 2.78918e-15 0)
(-1 1.30612e-15 0)
(-1 1.26114e-15 0)
(-1 1.5551e-15 0)
(-1 2.18043e-15 0)
(-1 1.2362e-15 0)
(-1 -9.39405e-16 0)
)
;

boundaryField
{
    movingWall
    {
        type            zeroGradient;
    }
    fixedWalls
    {
        type            zeroGradient;
    }
    frontAndBack
    {
        type            empty;
    }
}


// ************************************************************************* //
