/*--------------------------------*- C++ -*----------------------------------*\
| =========                 |                                                 |
| \\      /  F ield         | OpenFOAM: The Open Source CFD Toolbox           |
|  \\    /   O peration     | Version:  2506                                  |
|   \\  /    A nd           | Website:  www.openfoam.com                      |
|    \\/     M anipulation  |                                                 |
\*---------------------------------------------------------------------------*/
FoamFile
{
    version     2.0;
    format      ascii;
    arch        "LSB;label=32;scalar=64";
    class       volScalarField;
    location    "3.875";
    object      zeroGradient(epsilon);
}
// * * * * * * * * * * * * * * * * * * * * * * * * * * * * * * * * * * * * * //

dimensions      [0 2 -3 0 0 0 0];

internalField   nonuniform List<scalar> 
400
(
2.64069e-05
2.64065e-05
2.64062e-05
2.64059e-05
2.64057e-05
2.64055e-05
2.64053e-05
2.64051e-05
2.6405e-05
2.64048e-05
2.64048e-05
2.64046e-05
2.64046e-05
2.64044e-05
2.64044e-05
2.64043e-05
2.64044e-05
2.64043e-05
2.64043e-05
2.64043e-05
3.62936e-05
3.50143e-05
3.51112e-05
3.51521e-05
3.52344e-05
3.52769e-05
3.53601e-05
3.54047e-05
3.54887e-05
3.55355e-05
3.56201e-05
3.56692e-05
3.57546e-05
3.58058e-05
3.5892e-05
3.59456e-05
3.60324e-05
3.60884e-05
3.61323e-05
3.62046e-05
5.01307e-05
4.81202e-05
4.82722e-05
4.83364e-05
4.84654e-05
4.85319e-05
4.86623e-05
4.87319e-05
4.88634e-05
4.89362e-05
4.90687e-05
4.91449e-05
4.92783e-05
4.93579e-05
4.94923e-05
4.95753e-05
4.97107e-05
4.97972e-05
4.98656e-05
4.99778e-05
6.19047e-05
5.92022e-05
5.94036e-05
5.94889e-05
5.96604e-05
5.9749e-05
5.99226e-05
6.00156e-05
6.01906e-05
6.02883e-05
6.04648e-05
6.05672e-05
6.07452e-05
6.08523e-05
6.10318e-05
6.11438e-05
6.13248e-05
6.14418e-05
6.15333e-05
6.16841e-05
6.97712e-05
6.65769e-05
6.68129e-05
6.69129e-05
6.71142e-05
6.72184e-05
6.74222e-05
6.75317e-05
6.77374e-05
6.78527e-05
6.80601e-05
6.81812e-05
6.83906e-05
6.85174e-05
6.87287e-05
6.88614e-05
6.90746e-05
6.92134e-05
6.93213e-05
6.94996e-05
7.44346e-05
7.09401e-05
7.11969e-05
7.13059e-05
7.15252e-05
7.16388e-05
7.18608e-05
7.19805e-05
7.22046e-05
7.23306e-05
7.25568e-05
7.26893e-05
7.29176e-05
7.30565e-05
7.3287e-05
7.34325e-05
7.36651e-05
7.38173e-05
7.39351e-05
7.41301e-05
7.71181e-05
7.34489e-05
7.37178e-05
7.3832e-05
7.40617e-05
7.41808e-05
7.44134e-05
7.45389e-05
7.47737e-05
7.4906e-05
7.5143e-05
7.52821e-05
7.55214e-05
7.56674e-05
7.5909e-05
7.60619e-05
7.63058e-05
7.64659e-05
7.65894e-05
7.67942e-05
7.87473e-05
7.49718e-05
7.5248e-05
7.53652e-05
7.56013e-05
7.57237e-05
7.59628e-05
7.60918e-05
7.63332e-05
7.64692e-05
7.67129e-05
7.6856e-05
7.7102e-05
7.72522e-05
7.75006e-05
7.7658e-05
7.79088e-05
7.80737e-05
7.82007e-05
7.84114e-05
7.98697e-05
7.60213e-05
7.63027e-05
7.6422e-05
7.66624e-05
7.67871e-05
7.70306e-05
7.71621e-05
7.74079e-05
7.75466e-05
7.77948e-05
7.79406e-05
7.81913e-05
7.83444e-05
7.85975e-05
7.8758e-05
7.90136e-05
7.91817e-05
7.93111e-05
7.95259e-05
8.07781e-05
7.68702e-05
7.71556e-05
7.72767e-05
7.75206e-05
7.76471e-05
7.78942e-05
7.80276e-05
7.82771e-05
7.84179e-05
7.86697e-05
7.88178e-05
7.90722e-05
7.92277e-05
7.94846e-05
7.96476e-05
7.9907e-05
8.00777e-05
8.02091e-05
8.04272e-05
8.16231e-05
7.76608e-05
7.79501e-05
7.80727e-05
7.83199e-05
7.84482e-05
7.86986e-05
7.88338e-05
7.90867e-05
7.92294e-05
7.94847e-05
7.96349e-05
7.98927e-05
8.00504e-05
8.03108e-05
8.04761e-05
8.07391e-05
8.09122e-05
8.10455e-05
8.12666e-05
8.24911e-05
7.84721e-05
7.87651e-05
7.88895e-05
7.914e-05
7.92701e-05
7.95239e-05
7.9661e-05
7.99173e-05
8.0062e-05
8.03208e-05
8.04731e-05
8.07345e-05
8.08944e-05
8.11585e-05
8.13262e-05
8.15929e-05
8.17685e-05
8.19036e-05
8.21279e-05
8.34343e-05
7.93534e-05
7.96505e-05
7.97768e-05
8.0031e-05
8.01629e-05
8.04204e-05
8.05596e-05
8.08197e-05
8.09666e-05
8.12292e-05
8.13839e-05
8.1649e-05
8.18115e-05
8.20794e-05
8.22498e-05
8.25204e-05
8.26989e-05
8.2836e-05
8.30637e-05
8.44929e-05
8.0343e-05
8.06451e-05
8.07732e-05
8.10316e-05
8.11657e-05
8.14273e-05
8.15689e-05
8.18332e-05
8.19826e-05
8.22494e-05
8.24067e-05
8.26763e-05
8.28415e-05
8.31139e-05
8.32872e-05
8.35623e-05
8.37438e-05
8.38832e-05
8.41148e-05
8.57095e-05
8.14792e-05
8.17866e-05
8.19172e-05
8.21802e-05
8.23168e-05
8.25833e-05
8.27275e-05
8.29967e-05
8.31489e-05
8.34207e-05
8.35811e-05
8.38556e-05
8.40241e-05
8.43015e-05
8.44782e-05
8.47585e-05
8.49436e-05
8.50857e-05
8.53217e-05
8.71274e-05
8.28036e-05
8.31175e-05
8.32508e-05
8.35193e-05
8.36589e-05
8.3931e-05
8.40783e-05
8.43531e-05
8.45088e-05
8.47863e-05
8.49502e-05
8.52307e-05
8.54029e-05
8.56863e-05
8.5867e-05
8.61533e-05
8.63427e-05
8.64878e-05
8.6729e-05
8.87791e-05
8.43458e-05
8.4667e-05
8.48036e-05
8.50786e-05
8.52215e-05
8.55002e-05
8.56512e-05
8.59327e-05
8.60922e-05
8.63765e-05
8.65446e-05
8.68318e-05
8.70085e-05
8.72988e-05
8.74842e-05
8.77775e-05
8.79718e-05
8.81205e-05
8.83679e-05
9.06027e-05
8.60506e-05
8.63799e-05
8.65197e-05
8.68017e-05
8.69483e-05
8.7234e-05
8.7389e-05
8.76776e-05
8.78415e-05
8.8133e-05
8.83058e-05
8.86005e-05
8.87821e-05
8.90799e-05
8.92706e-05
8.95716e-05
8.97715e-05
8.99241e-05
9.01782e-05
9.22995e-05
8.77469e-05
8.8068e-05
8.82052e-05
8.84824e-05
8.86272e-05
8.89093e-05
8.90636e-05
8.93496e-05
8.95143e-05
8.98042e-05
8.99792e-05
9.02733e-05
9.04587e-05
9.07572e-05
9.09533e-05
9.12561e-05
9.14632e-05
9.16174e-05
9.18772e-05
9.29596e-05
9.29575e-05
9.29567e-05
9.29558e-05
9.29548e-05
9.29542e-05
9.29532e-05
9.29528e-05
9.29526e-05
9.29518e-05
9.2952e-05
9.29511e-05
9.29516e-05
9.29509e-05
9.29512e-05
9.29508e-05
9.2951e-05
9.29509e-05
9.29509e-05
9.29509e-05
)
;

boundaryField
{
    movingWall
    {
        type            zeroGradient;
    }
    fixedWalls
    {
        type            zeroGradient;
    }
    frontAndBack
    {
        type            empty;
    }
}


// ************************************************************************* //
