/*--------------------------------*- C++ -*----------------------------------*\
| =========                 |                                                 |
| \\      /  F ield         | OpenFOAM: The Open Source CFD Toolbox           |
|  \\    /   O peration     | Version:  2506                                  |
|   \\  /    A nd           | Website:  www.openfoam.com                      |
|    \\/     M anipulation  |                                                 |
\*---------------------------------------------------------------------------*/
FoamFile
{
    version     2.0;
    format      ascii;
    arch        "LSB;label=32;scalar=64";
    class       volScalarField;
    location    "2.75";
    object      divPhi;
}
// * * * * * * * * * * * * * * * * * * * * * * * * * * * * * * * * * * * * * //

dimensions      [0 0 -1 0 0 0 0];

internalField   nonuniform List<scalar> 
400
(
3.75511e-08
1.20366e-09
1.47039e-09
1.2216e-09
8.53688e-10
5.54997e-10
3.28519e-10
1.78574e-10
6.77045e-11
-4.34811e-12
-6.12884e-11
-9.78767e-11
-1.28574e-10
-1.45604e-10
-1.60731e-10
-1.68711e-10
-1.57047e-10
-1.59536e-10
-1.98306e-10
-7.65989e-11
1.39033e-09
7.8451e-10
9.99589e-10
8.6422e-10
6.5587e-10
4.27853e-10
2.68707e-10
1.34844e-10
5.12427e-11
-2.06535e-11
-6.48533e-11
-1.04291e-10
-1.28191e-10
-1.49495e-10
-1.59458e-10
-1.6329e-10
-1.71338e-10
-1.67121e-10
-1.44435e-10
-1.02918e-10
-2.28653e-09
-1.14945e-10
2.85308e-10
3.82518e-10
3.19401e-10
2.32392e-10
1.39413e-10
6.99987e-11
9.42348e-12
-3.39303e-11
-7.15196e-11
-9.84443e-11
-1.2115e-10
-1.36233e-10
-1.48379e-10
-1.55512e-10
-1.4306e-10
-1.42674e-10
-1.93388e-10
-5.64869e-11
-6.34719e-10
-3.81475e-10
-9.4818e-11
3.3735e-11
7.57395e-11
6.1895e-11
3.91025e-11
7.25627e-12
-1.9507e-11
-4.69931e-11
-6.93358e-11
-9.00751e-11
-1.06193e-10
-1.20589e-10
-1.29018e-10
-1.29891e-10
-1.40874e-10
-1.46829e-10
-9.96868e-11
-8.45949e-11
-2.05923e-09
-6.05017e-10
-3.4542e-10
-1.90296e-10
-1.15182e-10
-7.16725e-11
-5.57022e-11
-4.77865e-11
-5.12327e-11
-5.73667e-11
-6.81238e-11
-7.89077e-11
-9.01935e-11
-9.92201e-11
-1.07829e-10
-1.1562e-10
-1.03009e-10
-9.70749e-11
-1.5562e-10
-3.17671e-11
-8.8704e-10
-5.72476e-10
-4.16435e-10
-2.95577e-10
-2.02044e-10
-1.4184e-10
-9.77287e-11
-7.31967e-11
-5.83911e-11
-5.45888e-11
-5.5938e-11
-6.17856e-11
-6.87986e-11
-7.73218e-11
-8.3415e-11
-8.38362e-11
-9.73227e-11
-1.06504e-10
-5.07858e-11
-5.50233e-11
-1.37767e-09
-5.42342e-10
-4.07095e-10
-2.98951e-10
-2.191e-10
-1.531e-10
-1.07091e-10
-7.28749e-11
-5.33695e-11
-4.24122e-11
-4.00623e-11
-4.2108e-11
-4.7353e-11
-5.3009e-11
-6.00101e-11
-6.9294e-11
-6.00973e-11
-5.13673e-11
-9.9374e-11
-1.03541e-11
-6.04931e-10
-4.04146e-10
-3.23537e-10
-2.47739e-10
-1.78578e-10
-1.24086e-10
-7.98905e-11
-4.99258e-11
-2.99727e-11
-2.04405e-11
-1.75568e-11
-1.98377e-11
-2.47901e-11
-3.1793e-11
-3.80485e-11
-4.06855e-11
-5.57136e-11
-6.24959e-11
-1.35689e-11
-2.43132e-11
-8.46003e-10
-2.97061e-10
-2.07415e-10
-1.42311e-10
-9.28695e-11
-5.359e-11
-2.48495e-11
-5.18053e-12
5.68103e-12
9.49933e-12
7.99043e-12
2.81826e-12
-4.17186e-12
-1.14562e-11
-1.95666e-11
-3.11565e-11
-2.75702e-11
-2.0079e-11
-4.3617e-11
1.51788e-12
6.71392e-11
-9.33326e-11
-6.82814e-11
-3.6618e-11
-9.88668e-12
1.083e-11
2.47007e-11
3.24692e-11
3.42957e-11
3.18246e-11
2.5691e-11
1.78893e-11
9.06057e-12
6.3626e-14
-8.08837e-12
-1.41242e-11
-2.90913e-11
-2.87675e-11
1.39505e-12
-2.71051e-12
-4.91306e-10
-2.87031e-11
2.7112e-11
5.06458e-11
6.24767e-11
6.64212e-11
6.66549e-11
6.23601e-11
5.57148e-11
4.6355e-11
3.61991e-11
2.53061e-11
1.49918e-11
5.84057e-12
-3.13274e-12
-1.5039e-11
-1.57354e-11
-1.24059e-11
-6.7828e-12
1.13841e-12
6.83264e-10
1.32729e-10
1.00522e-10
8.99412e-11
8.3012e-11
7.60616e-11
6.79921e-11
5.8585e-11
4.83354e-11
3.75643e-11
2.68332e-11
1.66376e-11
7.40465e-12
-9.24302e-13
-7.8731e-12
-1.4472e-11
-2.59917e-11
-1.57969e-11
-7.79981e-12
3.11708e-12
-4.25739e-10
3.47065e-11
5.06341e-11
4.72932e-11
3.9466e-11
3.32559e-11
2.60039e-11
1.98956e-11
1.26571e-11
6.13428e-12
-6.61799e-13
-6.62323e-12
-1.21562e-11
-1.64246e-11
-2.0927e-11
-2.78614e-11
-2.77746e-11
-2.76132e-11
7.75388e-14
-9.1344e-12
5.47576e-10
2.94971e-11
-1.8989e-11
-3.87111e-11
-4.60723e-11
-4.82373e-11
-4.83068e-11
-4.68478e-11
-4.61627e-11
-4.44151e-11
-4.40885e-11
-4.25851e-11
-4.24113e-11
-4.11515e-11
-4.0824e-11
-4.10466e-11
-4.47903e-11
-2.48044e-11
-3.23011e-11
-6.39679e-12
-6.45534e-10
-1.78888e-10
-1.77428e-10
-1.80749e-10
-1.75196e-10
-1.67e-10
-1.52862e-10
-1.40789e-10
-1.25494e-10
-1.14076e-10
-1.00611e-10
-9.13407e-11
-8.07179e-11
-7.33038e-11
-6.58042e-11
-6.2757e-11
-5.46849e-11
-5.4019e-11
-2.06242e-11
-2.37711e-11
-2.44515e-10
-2.95355e-10
-3.09514e-10
-3.07969e-10
-2.93003e-10
-2.74902e-10
-2.49691e-10
-2.26788e-10
-2.00376e-10
-1.7863e-10
-1.55222e-10
-1.36907e-10
-1.18401e-10
-1.04253e-10
-9.02739e-11
-7.98979e-11
-7.14822e-11
-4.77927e-11
-5.95887e-11
-2.54788e-11
-8.94738e-10
-4.48912e-10
-4.44653e-10
-4.24124e-10
-4.10802e-10
-3.76347e-10
-3.53212e-10
-3.12766e-10
-2.86394e-10
-2.47144e-10
-2.21727e-10
-1.87935e-10
-1.66093e-10
-1.3955e-10
-1.21485e-10
-1.02295e-10
-8.55858e-11
-8.03181e-11
-6.00212e-11
-4.10099e-11
-8.73623e-10
-5.34423e-10
-5.14772e-10
-4.99401e-10
-4.70474e-10
-4.4511e-10
-4.07053e-10
-3.74326e-10
-3.33073e-10
-2.98598e-10
-2.59633e-10
-2.27666e-10
-1.94786e-10
-1.68026e-10
-1.41645e-10
-1.18645e-10
-1.00409e-10
-8.16689e-11
-8.88198e-11
-4.83012e-11
-9.05959e-10
-5.12911e-10
-4.92768e-10
-4.77275e-10
-4.52419e-10
-4.29576e-10
-3.96609e-10
-3.67028e-10
-3.30138e-10
-2.98163e-10
-2.6206e-10
-2.31531e-10
-2.00366e-10
-1.73941e-10
-1.46945e-10
-1.24095e-10
-1.04215e-10
-9.81571e-11
-9.96053e-11
-4.98462e-11
-3.69333e-10
-2.37278e-10
-2.32019e-10
-2.20879e-10
-2.12992e-10
-1.98057e-10
-1.86266e-10
-1.6881e-10
-1.54797e-10
-1.37097e-10
-1.22759e-10
-1.06929e-10
-9.40003e-11
-8.03123e-11
-6.81963e-11
-5.71103e-11
-5.03341e-11
-5.13912e-11
-4.98191e-11
0
)
;

boundaryField
{
    movingWall
    {
        type            extrapolatedCalculated;
        value           nonuniform List<scalar> 
20
(
-3.69333e-10
-2.37278e-10
-2.32019e-10
-2.20879e-10
-2.12992e-10
-1.98057e-10
-1.86266e-10
-1.6881e-10
-1.54797e-10
-1.37097e-10
-1.22759e-10
-1.06929e-10
-9.40003e-11
-8.03123e-11
-6.81963e-11
-5.71103e-11
-5.03341e-11
-5.13912e-11
-4.98191e-11
0
)
;
    }
    fixedWalls
    {
        type            extrapolatedCalculated;
        value           nonuniform List<scalar> 
60
(
3.75511e-08
1.39033e-09
-2.28653e-09
-6.34719e-10
-2.05923e-09
-8.8704e-10
-1.37767e-09
-6.04931e-10
-8.46003e-10
6.71392e-11
-4.91306e-10
6.83264e-10
-4.25739e-10
5.47576e-10
-6.45534e-10
-2.44515e-10
-8.94738e-10
-8.73623e-10
-9.05959e-10
-3.69333e-10
-7.65989e-11
-1.02918e-10
-5.64869e-11
-8.45949e-11
-3.17671e-11
-5.50233e-11
-1.03541e-11
-2.43132e-11
1.51788e-12
-2.71051e-12
1.13841e-12
3.11708e-12
-9.1344e-12
-6.39679e-12
-2.37711e-11
-2.54788e-11
-4.10099e-11
-4.83012e-11
-4.98462e-11
0
3.75511e-08
1.20366e-09
1.47039e-09
1.2216e-09
8.53688e-10
5.54997e-10
3.28519e-10
1.78574e-10
6.77045e-11
-4.34811e-12
-6.12884e-11
-9.78767e-11
-1.28574e-10
-1.45604e-10
-1.60731e-10
-1.68711e-10
-1.57047e-10
-1.59536e-10
-1.98306e-10
-7.65989e-11
)
;
    }
    frontAndBack
    {
        type            empty;
    }
}


// ************************************************************************* //
