/*--------------------------------*- C++ -*----------------------------------*\
| =========                 |                                                 |
| \\      /  F ield         | OpenFOAM: The Open Source CFD Toolbox           |
|  \\    /   O peration     | Version:  2506                                  |
|   \\  /    A nd           | Website:  www.openfoam.com                      |
|    \\/     M anipulation  |                                                 |
\*---------------------------------------------------------------------------*/
FoamFile
{
    version     2.0;
    format      ascii;
    arch        "LSB;label=32;scalar=64";
    class       volScalarField;
    location    "2.75";
    object      divU;
}
// * * * * * * * * * * * * * * * * * * * * * * * * * * * * * * * * * * * * * //

dimensions      [0 0 -1 0 0 0 0];

internalField   nonuniform List<scalar> 
400
(
-0.000470862
0.000607714
-0.000165853
6.05668e-05
-1.87315e-05
6.21756e-06
-2.05561e-06
6.48973e-07
-2.18766e-07
7.08839e-08
-2.10404e-08
9.19851e-09
-9.45525e-10
2.01237e-09
7.93014e-10
9.17893e-10
6.65325e-10
3.36843e-10
-4.55869e-10
1.49934e-09
-0.000553847
0.000657741
-0.000185039
6.43723e-05
-2.07366e-05
6.76258e-06
-2.19078e-06
7.29051e-07
-2.23489e-07
8.17587e-08
-1.99936e-08
1.09966e-08
-3.54097e-10
2.46213e-09
9.95844e-10
1.08133e-09
7.66323e-10
3.0114e-10
-4.36687e-10
1.40529e-09
-0.000584908
0.000799772
-0.000216913
7.67653e-05
-2.25197e-05
7.64442e-06
-2.2731e-06
7.83939e-07
-2.21626e-07
8.43949e-08
-1.9391e-08
1.05055e-08
-6.55433e-10
2.09262e-09
7.49228e-10
7.6578e-10
5.31191e-10
3.63346e-10
-3.15553e-10
1.17663e-09
-0.000629769
0.000759815
-0.000209208
7.1791e-05
-2.0771e-05
7.07836e-06
-2.01945e-06
7.0685e-07
-1.92746e-07
7.3174e-08
-1.68212e-08
8.58585e-09
-7.39382e-10
1.57081e-09
4.92268e-10
5.65044e-10
3.65861e-10
1.77795e-10
-2.78588e-10
8.98858e-10
-0.000445542
0.000452432
-0.000116303
4.05312e-05
-1.12788e-05
3.64343e-06
-1.06719e-06
3.40314e-07
-9.76477e-08
3.26175e-08
-8.60006e-09
3.44792e-09
-4.56603e-10
7.16662e-10
3.03183e-10
1.78166e-10
5.66916e-11
2.2309e-10
-5.80926e-11
5.14589e-10
0.000397576
-0.000510438
0.000133739
-4.76461e-05
1.33024e-05
-4.52379e-06
1.29913e-06
-4.49487e-07
1.20982e-07
-4.73873e-08
1.04031e-08
-5.32233e-09
8.27734e-10
-4.95415e-10
1.50744e-10
-1.15733e-10
-9.82868e-11
6.12074e-11
3.0024e-11
1.1086e-10
0.0010052
-0.00109269
0.000298044
-0.000102196
3.02099e-05
-9.99573e-06
2.94391e-06
-1.00578e-06
2.78754e-07
-1.04771e-07
2.4954e-08
-1.15066e-08
2.03011e-09
-1.23148e-09
1.60995e-10
-4.59299e-10
-4.59603e-10
4.19049e-11
2.94748e-10
-3.3163e-10
0.000588543
-0.000836433
0.00022599
-8.09979e-05
2.36205e-05
-8.17246e-06
2.42398e-06
-8.49271e-07
2.40946e-07
-9.1619e-08
2.29914e-08
-1.01892e-08
2.05507e-09
-1.21635e-09
-3.68951e-11
-6.70998e-10
-6.10753e-10
-5.28491e-11
3.76719e-10
-7.82089e-10
0.000569818
-0.000647151
0.000185461
-6.45475e-05
2.11147e-05
-6.95361e-06
2.2547e-06
-7.57594e-07
2.37186e-07
-8.16131e-08
2.49302e-08
-8.80388e-09
2.38427e-09
-1.18405e-09
-7.21804e-11
-8.44269e-10
-9.73178e-10
-1.97672e-10
5.90366e-10
-1.16484e-09
0.000436036
-0.000583729
0.00015708
-5.87171e-05
1.818e-05
-6.10828e-06
2.04644e-06
-6.50109e-07
2.28405e-07
-6.70095e-08
2.70159e-08
-6.14425e-09
3.2253e-09
-7.72056e-10
-3.36321e-11
-9.9987e-10
-1.10958e-09
-2.36605e-10
6.20034e-10
-1.5323e-09
0.00043481
-0.000590912
0.00016126
-5.97424e-05
1.89507e-05
-6.39067e-06
2.14559e-06
-6.73386e-07
2.51892e-07
-6.31558e-08
3.2816e-08
-4.59744e-09
4.2638e-09
-5.79137e-10
-1.554e-10
-1.23905e-09
-1.47884e-09
-5.69728e-10
6.61379e-10
-1.75259e-09
0.000726131
-0.000729526
0.000209526
-7.40973e-05
2.34935e-05
-7.88373e-06
2.61918e-06
-8.02716e-07
3.09535e-07
-7.43698e-08
3.85458e-08
-6.52377e-09
3.88685e-09
-1.62699e-09
-8.21524e-10
-1.91011e-09
-1.83509e-09
-6.57458e-10
4.8086e-10
-1.94213e-09
0.000514757
-0.000930805
0.000236363
-9.35527e-05
2.7852e-05
-9.48942e-06
3.24061e-06
-9.70055e-07
3.82598e-07
-9.68298e-08
4.32013e-08
-1.27704e-08
1.74557e-09
-4.06035e-09
-2.03096e-09
-2.54478e-09
-2.25246e-09
-1.20869e-09
2.61428e-10
-1.78568e-09
0.00133201
-0.00113761
0.00035439
-0.000117173
4.13947e-05
-1.34037e-05
4.6813e-06
-1.42817e-06
5.31807e-07
-1.58291e-07
4.82204e-08
-2.59065e-08
-1.63214e-09
-7.41354e-09
-3.33059e-09
-3.43914e-09
-2.5152e-09
-1.15673e-09
3.36253e-13
-1.53152e-09
0.00127698
-0.00222757
0.00054557
-0.000219488
6.32488e-05
-2.0699e-05
7.13602e-06
-2.12278e-06
7.04157e-07
-2.65222e-07
4.55181e-08
-4.53554e-08
-5.72248e-09
-1.09645e-08
-4.33886e-09
-3.73351e-09
-2.40396e-09
-1.40297e-09
-2.76734e-10
-8.66657e-10
0.00242411
-0.00222019
0.000726607
-0.000224025
8.62289e-05
-2.64093e-05
8.92028e-06
-3.19909e-06
8.09113e-07
-4.18764e-07
4.4579e-08
-6.52023e-08
-6.90612e-09
-1.28171e-08
-3.98914e-09
-3.49289e-09
-1.83723e-09
-8.69439e-10
-3.14483e-10
-8.22909e-11
0.00363308
-0.00590176
0.00153802
-0.000541882
0.000147783
-5.08137e-05
1.34695e-05
-5.13841e-06
1.08578e-06
-5.61937e-07
6.77782e-08
-6.80846e-08
-6.52732e-10
-9.38916e-09
-1.21218e-09
-1.34884e-09
-2.54177e-10
-2.40986e-10
-2.43756e-10
9.46698e-10
0.00612659
-0.00620436
0.00174806
-0.000550672
0.000150073
-5.25493e-05
1.19422e-05
-4.89153e-06
9.85858e-07
-4.34252e-07
8.18722e-08
-3.73567e-08
7.88045e-09
-1.58338e-09
2.24855e-09
9.47669e-10
9.52716e-10
5.74146e-10
1.60369e-11
1.93411e-09
0.0020226
-0.00171118
0.000228838
-0.000109339
-5.44166e-06
1.67078e-06
-1.85886e-06
1.39505e-06
-2.38068e-07
2.74122e-07
-9.8977e-09
5.45193e-08
1.03223e-08
1.42987e-08
6.02187e-09
4.42621e-09
2.76155e-09
1.78477e-09
3.69102e-10
2.78697e-09
-0.018134
0.0211919
-0.00560477
0.00194461
-0.000539074
0.000181608
-5.08257e-05
1.743e-05
-4.67606e-06
1.75555e-06
-3.85695e-07
1.99316e-07
-1.87274e-08
2.98899e-08
4.85755e-09
7.00704e-09
3.77891e-09
2.37476e-09
3.51851e-10
3.2422e-09
)
;

boundaryField
{
    movingWall
    {
        type            extrapolatedCalculated;
        value           nonuniform List<scalar> 
20
(
-0.018134
0.0211919
-0.00560477
0.00194461
-0.000539074
0.000181608
-5.08257e-05
1.743e-05
-4.67606e-06
1.75555e-06
-3.85695e-07
1.99316e-07
-1.87274e-08
2.98899e-08
4.85755e-09
7.00704e-09
3.77891e-09
2.37476e-09
3.51851e-10
3.2422e-09
)
;
    }
    fixedWalls
    {
        type            extrapolatedCalculated;
        value           nonuniform List<scalar> 
60
(
-0.000470862
-0.000553847
-0.000584908
-0.000629769
-0.000445542
0.000397576
0.0010052
0.000588543
0.000569818
0.000436036
0.00043481
0.000726131
0.000514757
0.00133201
0.00127698
0.00242411
0.00363308
0.00612659
0.0020226
-0.018134
1.49934e-09
1.40529e-09
1.17663e-09
8.98858e-10
5.14589e-10
1.1086e-10
-3.3163e-10
-7.82089e-10
-1.16484e-09
-1.5323e-09
-1.75259e-09
-1.94213e-09
-1.78568e-09
-1.53152e-09
-8.66657e-10
-8.22909e-11
9.46698e-10
1.93411e-09
2.78697e-09
3.2422e-09
-0.000470862
0.000607714
-0.000165853
6.05668e-05
-1.87315e-05
6.21756e-06
-2.05561e-06
6.48973e-07
-2.18766e-07
7.08839e-08
-2.10404e-08
9.19851e-09
-9.45525e-10
2.01237e-09
7.93014e-10
9.17893e-10
6.65325e-10
3.36843e-10
-4.55869e-10
1.49934e-09
)
;
    }
    frontAndBack
    {
        type            empty;
    }
}


// ************************************************************************* //
