/*--------------------------------*- C++ -*----------------------------------*\
| =========                 |                                                 |
| \\      /  F ield         | OpenFOAM: The Open Source CFD Toolbox           |
|  \\    /   O peration     | Version:  2506                                  |
|   \\  /    A nd           | Website:  www.openfoam.com                      |
|    \\/     M anipulation  |                                                 |
\*---------------------------------------------------------------------------*/
FoamFile
{
    version     2.0;
    format      ascii;
    arch        "LSB;label=32;scalar=64";
    class       volScalarField;
    location    "2.75";
    object      flowTypeField;
}
// * * * * * * * * * * * * * * * * * * * * * * * * * * * * * * * * * * * * * //

dimensions      [0 0 0 0 0 0 0];

internalField   nonuniform List<scalar> 
400
(
-0.0161703
0.261487
0.159082
0.380853
0.113958
0.764357
-0.00519599
0.132596
0.0282322
0.0675844
0.0530862
0.0676755
0.0725151
0.0871798
0.105166
0.135189
0.182445
0.257752
0.342708
0.278892
0.605485
0.917123
0.942209
0.963446
0.993392
0.973657
0.906045
0.940216
0.893745
0.904137
0.886042
0.876367
0.852624
0.823388
0.781829
0.726716
0.646688
0.518191
0.311192
0.0680553
0.539995
0.747961
0.760083
0.846652
0.836269
0.936598
0.829344
0.951348
0.864005
0.877973
0.84923
0.830677
0.791924
0.744509
0.680868
0.600195
0.492344
0.343548
0.161021
0.0241979
0.396141
0.851689
0.875164
0.917186
0.948307
0.947583
0.950765
0.901991
0.854511
0.839462
0.817783
0.79109
0.7445
0.683307
0.605558
0.509339
0.388114
0.239969
0.0949186
0.0115323
0.079938
0.59106
0.657705
0.658442
0.772014
0.672661
0.934671
0.77704
0.87728
0.800946
0.810669
0.772903
0.726888
0.654392
0.568637
0.462482
0.334419
0.190993
0.0685917
0.00738611
-0.0168741
0.274776
0.375987
0.441279
0.590639
0.503806
0.84377
0.682808
0.899502
0.792547
0.821706
0.782661
0.740456
0.666292
0.578083
0.467467
0.334947
0.188651
0.0661863
0.00778287
0.629124
0.974999
0.978907
0.992132
0.984648
0.98702
0.942421
0.905541
0.858099
0.849763
0.842219
0.824618
0.784327
0.722782
0.637852
0.528493
0.392842
0.236638
0.0891677
0.0131845
0.324239
0.746288
0.743516
0.815492
0.801469
0.894462
0.776941
0.967617
0.859437
0.905583
0.891677
0.890596
0.863026
0.818646
0.74573
0.644927
0.513131
0.348323
0.152665
0.0310682
0.388095
0.868684
0.879153
0.908709
0.918182
0.962815
0.886916
0.963798
0.930002
0.958148
0.967618
0.977474
0.971222
0.946268
0.893995
0.811705
0.696924
0.545822
0.305433
0.102174
0.677598
0.743241
0.751136
0.814205
0.846312
0.899362
0.900343
0.985984
0.996489
0.972475
0.94812
0.925682
0.911231
0.91098
0.93001
0.975909
0.947816
0.860947
0.669079
0.631287
0.556883
0.746253
0.735667
0.805253
0.823684
0.91185
0.875598
0.980444
0.923604
0.913209
0.873713
0.843955
0.813667
0.79344
0.782176
0.783154
0.788476
0.751757
0.675296
0.215533
0.411592
0.959619
0.996584
0.970613
0.991291
0.955674
0.933179
0.930299
0.880978
0.86645
0.819263
0.782561
0.739846
0.704243
0.670724
0.641082
0.601643
0.500865
0.328083
0.0605158
0.6515
0.955839
0.857227
0.857488
0.810825
0.898406
0.792213
0.952187
0.83943
0.844797
0.784578
0.744143
0.690061
0.642202
0.591255
0.539369
0.471954
0.347005
0.176778
0.0250322
0.0357061
0.441223
0.584985
0.699072
0.778261
0.9014
0.813494
0.944682
0.833703
0.838507
0.77212
0.728195
0.664634
0.606872
0.541982
0.473597
0.386947
0.253426
0.106782
0.0126628
0.703149
0.83791
0.922623
0.997622
0.926138
0.950827
0.816095
0.967359
0.828471
0.854234
0.777633
0.734464
0.663357
0.598792
0.523874
0.443316
0.343435
0.207204
0.0771546
0.00785314
-0.0920962
0.128014
0.31881
0.447459
0.561371
0.757234
0.606901
0.972787
0.823243
0.881765
0.802012
0.759888
0.685977
0.617916
0.539583
0.452717
0.345054
0.203376
0.0739151
0.0079808
0.387055
0.978502
0.93804
0.935972
0.894655
0.932174
0.850266
0.990631
0.868682
0.901667
0.84524
0.802109
0.731453
0.661414
0.588958
0.504698
0.396297
0.246513
0.0984887
0.0135961
0.542964
0.774986
0.824355
0.894741
0.925711
0.955676
0.980568
0.976599
0.937889
0.882411
0.901068
0.859062
0.805628
0.727295
0.668304
0.601736
0.507923
0.350855
0.16268
0.0293263
-0.0692639
-0.154834
0.178601
0.151148
0.454555
0.304845
0.671046
0.472183
0.910273
0.793431
0.955608
0.910514
0.893292
0.813672
0.768833
0.735855
0.678753
0.538367
0.312167
0.078372
0.171444
0.583701
0.38478
0.563996
0.315771
0.656917
0.0939869
0.843299
-0.17646
0.287895
-0.0153155
0.133251
0.0739495
0.111715
0.104233
0.137628
0.181459
0.258568
0.32985
0.254261
)
;

boundaryField
{
    movingWall
    {
        type            calculated;
        value           nonuniform List<scalar> 
20
(
0.0102926
0.176917
0.0331488
0.169035
0.0100219
0.254146
-0.0571436
0.970904
-0.0904119
0.118949
-0.0376261
0.0246423
-0.00313868
0.0116716
0.00526647
0.0175877
0.0338395
0.0724215
0.139913
0.165837
)
;
    }
    fixedWalls
    {
        type            calculated;
        value           nonuniform List<scalar> 
60
(
0.320379
0.911492
0.763152
0.869578
0.659676
0.336719
0.966756
0.778601
0.893017
0.772158
0.789275
0.948246
0.979942
0.473304
0.801604
0.18389
0.987571
0.75914
-0.141543
0.613482
0.200462
0.0535258
0.0213842
0.0125339
0.0100659
0.0115875
0.0191334
0.0488875
0.256877
0.321465
0.0656625
0.0269239
0.0148622
0.00985406
0.00814236
0.00927935
0.0140376
0.0255378
0.0608765
0.165789
4.08484e-05
0.100987
0.0301603
0.197366
0.0205976
0.513263
-0.0115828
0.0308369
-0.00329553
0.00668253
0.00217022
0.00562711
0.00637305
0.00973774
0.0140782
0.0225133
0.0385278
0.0737843
0.151557
0.228028
)
;
    }
    frontAndBack
    {
        type            empty;
    }
}


// ************************************************************************* //
