/*--------------------------------*- C++ -*----------------------------------*\
| =========                 |                                                 |
| \\      /  F ield         | OpenFOAM: The Open Source CFD Toolbox           |
|  \\    /   O peration     | Version:  2506                                  |
|   \\  /    A nd           | Website:  www.openfoam.com                      |
|    \\/     M anipulation  |                                                 |
\*---------------------------------------------------------------------------*/
FoamFile
{
    version     2.0;
    format      ascii;
    arch        "LSB;label=32;scalar=64";
    class       volScalarField;
    location    "2.75";
    object      Lambda2Field;
}
// * * * * * * * * * * * * * * * * * * * * * * * * * * * * * * * * * * * * * //

dimensions      [0 0 -2 0 0 0 0];

internalField   nonuniform List<scalar> 
400
(
0
0
0
0
0
3.51517e-12
0
8.92832e-13
8.59379e-14
2.44066e-13
1.13854e-13
7.53569e-14
4.14878e-14
2.31788e-14
1.25433e-14
6.56353e-15
3.21759e-15
1.357e-15
3.65147e-16
2.25798e-17
2.52482e-08
7.90016e-09
1.02189e-09
5.8321e-11
1.14949e-11
5.15805e-12
5.85854e-13
1.48401e-12
4.62821e-13
4.4283e-13
2.20748e-13
1.30089e-13
6.96075e-14
3.69535e-14
1.90529e-14
9.44006e-15
4.36827e-15
1.74608e-15
4.51627e-16
2.50484e-17
0
0
0
9.54039e-11
5.00661e-13
8.03054e-12
2.17112e-12
1.64844e-12
5.46791e-13
4.51503e-13
2.23238e-13
1.27647e-13
6.7241e-14
3.52047e-14
1.78334e-14
8.66126e-15
3.91954e-15
1.52904e-15
3.92456e-16
2.10472e-17
0
9.03662e-09
1.52736e-09
2.1966e-10
4.5127e-11
7.28048e-12
3.91193e-12
1.50878e-12
7.46561e-13
4.41936e-13
2.30294e-13
1.23769e-13
6.48457e-14
3.32433e-14
1.65309e-14
7.82961e-15
3.44409e-15
1.30072e-15
3.26544e-16
1.71848e-17
1.32927e-07
7.37105e-08
1.52508e-08
8.03173e-10
2.50455e-10
2.86359e-12
8.94181e-12
8.64723e-13
1.0686e-12
4.06732e-13
2.47399e-13
1.21027e-13
6.44857e-14
3.22244e-14
1.58576e-14
7.34538e-15
3.15521e-15
1.15769e-15
2.87461e-16
1.52617e-17
0
0
8.07418e-09
4.93572e-10
2.25661e-10
1.38531e-12
9.35584e-12
6.71805e-13
1.14622e-12
4.00329e-13
2.57698e-13
1.2396e-13
6.66874e-14
3.31907e-14
1.63194e-14
7.53673e-15
3.23166e-15
1.1791e-15
2.90429e-16
1.67775e-17
3.20199e-08
1.63126e-08
2.17688e-09
2.52043e-10
4.68671e-11
5.65758e-12
3.69189e-12
1.30564e-12
8.42442e-13
4.55345e-13
2.50712e-13
1.3582e-13
7.17014e-14
3.68273e-14
1.82018e-14
8.57222e-15
3.75039e-15
1.41069e-15
3.52681e-16
2.28798e-17
7.59475e-09
4.29664e-10
4.5369e-10
1.43137e-10
1.28013e-13
8.32502e-12
1.10968e-12
1.60284e-12
5.96768e-13
5.01483e-13
2.60172e-13
1.53541e-13
8.13694e-14
4.29824e-14
2.16349e-14
1.0448e-14
4.72108e-15
1.84459e-15
4.69501e-16
3.2558e-17
1.18106e-08
3.71194e-09
8.93087e-10
3.76082e-11
9.50541e-12
3.23385e-12
1.44631e-12
1.35451e-12
5.73702e-13
5.3232e-13
2.89666e-13
1.76488e-13
9.54453e-14
5.13145e-14
2.63253e-14
1.29533e-14
5.98322e-15
2.40687e-15
6.20921e-16
4.41552e-17
0
0
0
0
1.78735e-12
9.9911e-13
1.60057e-12
1.29085e-12
6.40688e-13
5.983e-13
3.3527e-13
2.07912e-13
1.13285e-13
6.16233e-14
3.18444e-14
1.57585e-14
7.34538e-15
2.99615e-15
7.83024e-16
5.56914e-17
0
0
0
0
4.85371e-12
1.08668e-12
1.92044e-12
1.52927e-12
7.60144e-13
7.19794e-13
3.98135e-13
2.49207e-13
1.34616e-13
7.31488e-14
3.75177e-14
1.84018e-14
8.51154e-15
3.47067e-15
9.09678e-16
6.36725e-17
4.20182e-08
7.52753e-09
1.67117e-09
6.09748e-11
3.51986e-11
1.29378e-12
2.9004e-12
2.12528e-12
9.40585e-13
9.14719e-13
4.86474e-13
3.00725e-13
1.59831e-13
8.494e-14
4.2684e-14
2.04653e-14
9.24194e-15
3.71029e-15
9.74527e-16
6.6013e-17
1.02626e-07
1.28283e-08
9.72588e-10
3.91815e-11
5.92293e-11
2.88874e-12
3.0861e-12
3.25071e-12
1.24887e-12
1.21274e-12
6.1126e-13
3.65212e-13
1.89897e-13
9.70051e-14
4.72217e-14
2.18719e-14
9.49494e-15
3.68593e-15
9.54356e-16
6.18029e-17
0
0
4.41419e-09
1.32198e-10
2.14633e-10
8.99123e-12
4.41362e-12
5.61712e-12
1.58765e-12
1.6756e-12
7.82749e-13
4.4842e-13
2.24869e-13
1.10483e-13
5.17083e-14
2.29583e-14
9.4624e-15
3.49868e-15
8.73907e-16
5.33964e-17
9.24078e-07
2.11765e-07
2.26674e-08
1.13174e-09
4.45829e-10
3.60336e-11
6.33531e-12
1.01857e-11
2.31567e-12
2.37553e-12
1.03869e-12
5.59962e-13
2.67508e-13
1.27532e-13
5.73552e-14
2.44434e-14
9.58142e-15
3.37576e-15
8.02014e-16
4.77303e-17
-2.16733e-06
0
4.02085e-09
0
1.10353e-09
1.52712e-10
9.09899e-12
2.11331e-11
4.05316e-12
3.54784e-12
1.3995e-12
7.13363e-13
3.24107e-13
1.50494e-13
6.5738e-14
2.72372e-14
1.03931e-14
3.57802e-15
8.38925e-16
5.43173e-17
1.17015e-05
3.42935e-06
3.11365e-07
3.86866e-08
1.03383e-09
7.93641e-10
1.40759e-11
4.01563e-11
9.16831e-12
4.96861e-12
1.96964e-12
8.78226e-13
3.97191e-13
1.76089e-13
7.71014e-14
3.15242e-14
1.21223e-14
4.24144e-15
1.03667e-15
7.64159e-17
1.05557e-05
5.70387e-06
6.62028e-07
6.43278e-08
1.22848e-08
5.37112e-10
3.73937e-10
1.92693e-11
2.38829e-11
4.37792e-12
2.89655e-12
9.82703e-13
4.89078e-13
2.04582e-13
9.11733e-14
3.76299e-14
1.49745e-14
5.38798e-15
1.3499e-15
1.02941e-16
-8.0915e-05
-1.12167e-05
2.06247e-06
1.06256e-07
5.74951e-08
1.65219e-09
1.1286e-09
1.53924e-11
3.86213e-11
4.67802e-12
3.45466e-12
1.12079e-12
5.5517e-13
2.29192e-13
1.01824e-13
4.28215e-14
1.77425e-14
6.64415e-15
1.68963e-15
1.21141e-16
0
0
0
0
0
1.83151e-09
0
1.33918e-10
-1.96828e-11
7.749e-12
0
8.45349e-13
2.39898e-13
1.43747e-13
5.659e-14
2.73804e-14
1.27137e-14
5.41671e-15
1.45352e-15
9.20664e-17
)
;

boundaryField
{
    movingWall
    {
        type            calculated;
        value           nonuniform List<scalar> 
20
(
0
0
0
0
0
6.79325e-10
-5.92597e-11
2.13019e-10
-6.8513e-11
9.1729e-12
-2.48585e-12
5.05558e-13
-3.50514e-15
5.28132e-14
7.70491e-15
1.12987e-14
6.89914e-15
3.50249e-15
9.34818e-16
5.54508e-17
)
;
    }
    fixedWalls
    {
        type            calculated;
        value           nonuniform List<scalar> 
60
(
0
1.4238e-07
0
3.70166e-08
1.24095e-06
0
2.05869e-07
0
6.2384e-08
0
0
1.54267e-07
2.13532e-07
0
3.23165e-06
0
1.13115e-05
0
-0.000138083
0
0
3.6485e-18
6.16689e-18
8.92802e-18
1.09499e-17
1.17582e-17
1.09713e-17
9.32734e-18
7.71584e-18
7.40979e-18
9.80531e-18
1.47192e-17
2.20121e-17
3.02174e-17
3.90651e-17
4.77227e-17
5.49946e-17
5.19294e-17
3.96291e-17
0
0
0
0
0
0
5.69225e-12
-1.11825e-12
4.8911e-13
0
5.84176e-14
6.31976e-15
2.14448e-14
1.18326e-14
8.911e-15
5.3974e-15
3.33718e-15
1.84994e-15
8.52861e-16
2.37957e-16
1.88175e-17
)
;
    }
    frontAndBack
    {
        type            empty;
    }
}


// ************************************************************************* //
