/*--------------------------------*- C++ -*----------------------------------*\
| =========                 |                                                 |
| \\      /  F ield         | OpenFOAM: The Open Source CFD Toolbox           |
|  \\    /   O peration     | Version:  2506                                  |
|   \\  /    A nd           | Website:  www.openfoam.com                      |
|    \\/     M anipulation  |                                                 |
\*---------------------------------------------------------------------------*/
FoamFile
{
    version     2.0;
    format      ascii;
    arch        "LSB;label=32;scalar=64";
    class       volVectorField;
    location    "2.75";
    object      LambVectorField;
}
// * * * * * * * * * * * * * * * * * * * * * * * * * * * * * * * * * * * * * //

dimensions      [0 1 -2 0 0 0 0];

internalField   nonuniform List<vector> 
400
(
(-2.35726e-09 -0.00152783 0)
(-1.9941e-10 0.000522059 -0)
(-1.54208e-11 -0.000187965 0)
(-1.00893e-12 4.08402e-05 -0)
(1.31733e-14 -2.50744e-05 -0)
(8.20213e-15 -1.56123e-06 -0)
(2.32258e-14 -6.66913e-06 -0)
(9.30236e-15 -3.23282e-06 -0)
(6.37339e-15 -2.91312e-06 -0)
(3.17318e-15 -1.94022e-06 -0)
(1.76642e-15 -1.44613e-06 -0)
(9.08767e-16 -1.00534e-06 -0)
(4.69611e-16 -7.03641e-07 -0)
(2.31647e-16 -4.74617e-07 -0)
(1.09544e-16 -3.10397e-07 -0)
(4.80256e-17 -1.91869e-07 -0)
(1.87841e-17 -1.09331e-07 -0)
(5.9183e-18 -5.41441e-08 -0)
(1.24199e-18 -2.17501e-08 -0)
(1.02055e-19 -7.66207e-09 -0)
(2.51569e-10 -0.000206951 -0)
(-1.48566e-11 -4.05246e-05 0)
(-8.1474e-13 7.80098e-06 -0)
(-1.76675e-14 -1.78728e-06 0)
(-2.04021e-15 8.69445e-08 -0)
(2.05886e-15 -1.72023e-07 -0)
(1.38242e-15 -1.17891e-07 -0)
(8.4042e-16 -9.88642e-08 -0)
(5.83e-16 -8.86699e-08 -0)
(3.45355e-16 -7.10262e-08 -0)
(2.09868e-16 -5.80053e-08 -0)
(1.29164e-16 -4.83102e-08 -0)
(8.29745e-17 -4.21354e-08 -0)
(5.41415e-17 -3.76381e-08 -0)
(3.54857e-17 -3.41729e-08 -0)
(2.30161e-17 -3.13098e-08 -0)
(1.47003e-17 -2.91967e-08 -0)
(8.99158e-18 -2.80634e-08 -0)
(4.42376e-18 -2.64972e-08 -0)
(7.87185e-19 -2.03991e-08 -0)
(-4.15815e-10 -0.000313576 0)
(-5.4968e-11 0.000179068 -0)
(-1.29524e-12 -4.39931e-05 0)
(-5.36198e-13 1.03952e-05 -0)
(7.34727e-14 -2.74044e-06 -0)
(-1.25009e-14 4.95905e-07 -0)
(5.08826e-15 -2.78448e-07 -0)
(1.17601e-15 -8.31397e-08 -0)
(1.25519e-15 -1.20169e-07 -0)
(7.14944e-16 -9.20059e-08 -0)
(4.49804e-16 -7.85158e-08 -0)
(2.84252e-16 -6.71415e-08 -0)
(1.8883e-16 -6.06909e-08 -0)
(1.26733e-16 -5.58019e-08 -0)
(8.47783e-17 -5.17634e-08 -0)
(5.58387e-17 -4.81872e-08 -0)
(3.60457e-17 -4.54526e-08 -0)
(2.21581e-17 -4.39634e-08 -0)
(1.09456e-17 -4.16963e-08 -0)
(1.92395e-18 -3.20246e-08 -0)
(8.54768e-11 0.000465076 0)
(3.55415e-11 -9.65898e-05 -0)
(1.16789e-13 2.1761e-05 0)
(5.34841e-13 -5.31254e-06 -0)
(-2.84757e-14 8.82812e-07 -0)
(1.46608e-14 -3.83838e-07 -0)
(2.52447e-15 -1.08562e-07 -0)
(3.00526e-15 -1.58237e-07 -0)
(1.91637e-15 -1.42479e-07 -0)
(1.21421e-15 -1.20432e-07 -0)
(7.1829e-16 -9.75896e-08 -0)
(4.52902e-16 -8.3204e-08 -0)
(3.01234e-16 -7.54657e-08 -0)
(2.03913e-16 -7.00238e-08 -0)
(1.36852e-16 -6.52426e-08 -0)
(9.03962e-17 -6.09487e-08 -0)
(5.85698e-17 -5.77491e-08 -0)
(3.60876e-17 -5.60413e-08 -0)
(1.78833e-17 -5.33436e-08 -0)
(3.07081e-18 -4.07629e-08 -0)
(2.9318e-09 0.00148629 0)
(2.6249e-10 -0.000229586 -0)
(1.15533e-11 6.36459e-05 0)
(3.41353e-12 -1.81778e-05 -0)
(-8.96724e-14 4.66158e-06 -0)
(7.73239e-14 -1.50685e-06 -0)
(-5.10534e-15 2.05426e-07 -0)
(5.89096e-15 -2.61489e-07 -0)
(2.07494e-15 -1.36559e-07 -0)
(1.65492e-15 -1.43025e-07 -0)
(8.75674e-16 -1.04818e-07 -0)
(5.57138e-16 -8.99894e-08 -0)
(3.68472e-16 -8.13658e-08 -0)
(2.53394e-16 -7.67352e-08 -0)
(1.71147e-16 -7.2059e-08 -0)
(1.13702e-16 -6.7761e-08 -0)
(7.41176e-17 -6.46594e-08 -0)
(4.5814e-17 -6.30459e-08 -0)
(2.27901e-17 -6.0327e-08 -0)
(3.77507e-18 -4.57106e-08 -0)
(-6.58148e-10 0.00190566 -0)
(3.10071e-10 -0.000521762 -0)
(9.4107e-12 0.000139014 0)
(6.02061e-12 -3.76317e-05 -0)
(-2.38306e-13 9.70773e-06 -0)
(1.44154e-13 -2.81324e-06 -0)
(-1.41025e-14 5.47044e-07 -0)
(8.15049e-15 -3.49995e-07 -0)
(1.79228e-15 -1.13795e-07 -0)
(1.77402e-15 -1.47869e-07 -0)
(8.6338e-16 -9.98627e-08 -0)
(5.53541e-16 -8.65296e-08 -0)
(3.63726e-16 -7.78969e-08 -0)
(2.53202e-16 -7.44872e-08 -0)
(1.73068e-16 -7.08929e-08 -0)
(1.16466e-16 -6.76218e-08 -0)
(7.67208e-17 -6.53307e-08 -0)
(4.76223e-17 -6.41503e-08 -0)
(2.38409e-17 -6.18652e-08 -0)
(3.72776e-18 -4.62676e-08 -0)
(4.12806e-10 0.000320664 0)
(-1.21577e-11 2.08866e-05 -0)
(-2.81192e-13 -4.78952e-06 0)
(-7.1422e-14 6.52508e-07 -0)
(1.19311e-14 -3.63932e-07 -0)
(4.77098e-15 -1.15808e-07 -0)
(4.22645e-15 -1.62726e-07 -0)
(3.24113e-15 -1.52691e-07 -0)
(2.16747e-15 -1.42848e-07 -0)
(1.28373e-15 -1.13445e-07 -0)
(7.12951e-16 -8.67001e-08 -0)
(4.31741e-16 -7.15793e-08 -0)
(2.86697e-16 -6.52987e-08 -0)
(1.99378e-16 -6.26536e-08 -0)
(1.39569e-16 -6.1191e-08 -0)
(9.6489e-17 -6.01142e-08 -0)
(6.48327e-17 -5.94258e-08 -0)
(4.04793e-17 -5.89551e-08 -0)
(2.04268e-17 -5.75126e-08 -0)
(2.90203e-18 -4.21196e-08 -0)
(-2.00766e-10 -0.000626776 0)
(3.94795e-12 0.000189467 0)
(3.16755e-12 -5.0691e-05 -0)
(-3.73495e-13 1.33563e-05 -0)
(1.53087e-13 -3.7202e-06 -0)
(-2.4031e-14 8.4978e-07 -0)
(9.58e-15 -3.97716e-07 -0)
(9.38272e-16 -5.27953e-08 -0)
(1.67377e-15 -1.25073e-07 -0)
(7.10606e-16 -7.29907e-08 -0)
(4.19482e-16 -5.92423e-08 -0)
(2.34317e-16 -4.57836e-08 -0)
(1.55725e-16 -4.21529e-08 -0)
(1.10545e-16 -4.16344e-08 -0)
(8.2028e-17 -4.33129e-08 -0)
(6.00856e-17 -4.52969e-08 -0)
(4.19969e-17 -4.68497e-08 -0)
(2.65245e-17 -4.7445e-08 -0)
(1.36118e-17 -4.73047e-08 -0)
(1.59622e-18 -3.33432e-08 -0)
(1.36139e-10 -0.000357873 -0)
(1.27977e-11 6.20041e-05 0)
(1.25373e-12 -1.64139e-05 -0)
(-1.97082e-14 4.34479e-06 -0)
(3.93707e-14 -1.16583e-06 -0)
(-4.69737e-15 2.20656e-07 -0)
(3.04039e-15 -1.56199e-07 -0)
(7.73996e-16 -5.50424e-08 -0)
(6.37876e-16 -6.07768e-08 -0)
(2.41888e-16 -3.25208e-08 -0)
(9.49519e-17 -1.80262e-08 -0)
(3.57099e-17 -9.65109e-09 -0)
(2.35887e-17 -9.04974e-09 -0)
(2.30514e-17 -1.25399e-08 -0)
(2.35452e-17 -1.81939e-08 -0)
(2.13997e-17 -2.38633e-08 -0)
(1.68963e-17 -2.82386e-08 -0)
(1.10599e-17 -3.02145e-08 -0)
(5.87889e-18 -3.16567e-08 -0)
(3.79787e-19 -2.03264e-08 -0)
(-1.34926e-10 -0.000128871 0)
(-3.37981e-11 0.000120889 -0)
(-1.20731e-12 -3.13869e-05 0)
(-3.10254e-13 8.24141e-06 -0)
(3.84571e-14 -1.98592e-06 -0)
(-9.76778e-15 5.15639e-07 -0)
(1.91639e-15 -1.37827e-07 -0)
(-2.03915e-16 2.03306e-08 -0)
(2.14533e-17 -3.14344e-09 -0)
(-1.00443e-16 2.24107e-08 -0)
(-9.04746e-17 3.14901e-08 -0)
(-6.47719e-17 3.54386e-08 -0)
(-3.68194e-17 3.14393e-08 -0)
(-1.77323e-17 2.31872e-08 -0)
(-6.59455e-18 1.29524e-08 -0)
(-1.0385e-18 3.0732e-09 -0)
(9.86477e-19 -4.62292e-09 -0)
(9.64747e-19 -8.22042e-09 -0)
(6.31031e-19 -1.14447e-08 -0)
(-6.45021e-20 -3.83523e-09 0)
(-1.40417e-10 0.000188596 -0)
(-1.69731e-11 -0.000117675 0)
(-2.12672e-12 3.39921e-05 -0)
(2.02659e-13 -8.63418e-06 -0)
(-4.78512e-14 2.43945e-06 -0)
(6.90713e-15 -4.66308e-07 -0)
(-1.73602e-15 2.00956e-07 -0)
(-1.63172e-16 3.10391e-08 -0)
(-1.90529e-16 7.85155e-08 -0)
(-6.82779e-17 7.98105e-08 -0)
(5.85291e-18 8.74142e-08 0)
(3.90293e-17 8.5181e-08 0)
(4.31811e-17 7.62315e-08 0)
(3.27719e-17 6.27855e-08 0)
(2.01663e-17 4.7725e-08 0)
(1.06692e-17 3.3393e-08 0)
(5.22808e-18 2.2155e-08 0)
(2.88515e-18 1.69495e-08 0)
(1.15128e-18 1.20494e-08 0)
(8.40136e-19 1.50156e-08 0)
(2.88799e-10 0.000387895 0)
(9.50826e-12 -2.03606e-05 -0)
(3.69808e-14 5.05278e-07 0)
(-1.05672e-13 1.50843e-06 -0)
(7.54777e-16 -1.43687e-07 -0)
(-3.65208e-15 2.88268e-07 -0)
(-1.98036e-16 1.33974e-07 -0)
(7.78578e-17 1.36038e-07 0)
(4.26443e-16 1.42767e-07 0)
(4.99723e-16 1.42624e-07 0)
(5.05861e-16 1.43189e-07 0)
(4.19856e-16 1.356e-07 0)
(3.07822e-16 1.21509e-07 0)
(2.01128e-16 1.03e-07 0)
(1.20027e-16 8.32293e-08 0)
(6.64044e-17 6.45513e-08 0)
(3.56353e-17 4.98381e-08 0)
(2.05237e-17 4.3188e-08 0)
(9.38157e-18 3.68973e-08 0)
(3.30775e-18 3.46979e-08 0)
(2.65985e-10 0.000265611 0)
(8.05442e-12 -3.06917e-05 -0)
(6.4449e-13 2.6493e-05 0)
(5.6809e-13 -9.95756e-06 -0)
(-8.04089e-15 3.95766e-06 -0)
(3.93756e-15 -8.55579e-07 -0)
(4.28747e-15 5.56395e-07 0)
(9.61186e-16 1.14425e-07 0)
(2.24427e-15 2.31744e-07 0)
(1.68096e-15 1.94283e-07 0)
(1.45701e-15 1.95388e-07 0)
(1.08178e-15 1.81069e-07 0)
(7.515e-16 1.62895e-07 0)
(4.79116e-16 1.39891e-07 0)
(2.86285e-16 1.16001e-07 0)
(1.61633e-16 9.34733e-08 0)
(8.93967e-17 7.56746e-08 0)
(5.21705e-17 6.79021e-08 0)
(2.46396e-17 6.07162e-08 0)
(7.00812e-18 5.33463e-08 0)
(-3.4626e-09 0.0016973 -0)
(1.63501e-10 -0.000547169 -0)
(5.96315e-12 0.000125897 0)
(2.63273e-12 -2.78527e-05 -0)
(1.96027e-13 7.03685e-06 0)
(-4.84404e-15 -1.21548e-06 0)
(1.47533e-14 6.49065e-07 0)
(3.3135e-15 1.79789e-07 0)
(5.05637e-15 2.81547e-07 0)
(3.5009e-15 2.41651e-07 0)
(2.73997e-15 2.35025e-07 0)
(1.92718e-15 2.16745e-07 0)
(1.29513e-15 1.95333e-07 0)
(8.11617e-16 1.69138e-07 0)
(4.8283e-16 1.42218e-07 0)
(2.74056e-16 1.16834e-07 0)
(1.53154e-16 9.67503e-08 0)
(8.98542e-17 8.83335e-08 0)
(4.31015e-17 8.08058e-08 0)
(1.10185e-17 6.88731e-08 0)
(3.79085e-09 0.00056621 0)
(-5.38434e-10 0.000295011 -0)
(-1.34465e-11 -3.34653e-05 0)
(5.43496e-14 -3.79781e-07 -0)
(2.18009e-13 3.23225e-06 0)
(-2.28028e-14 -9.55397e-07 0)
(3.4507e-14 8.07547e-07 0)
(4.53494e-15 1.42611e-07 0)
(9.54753e-15 3.48133e-07 0)
(5.35546e-15 2.59798e-07 0)
(4.09339e-15 2.60851e-07 0)
(2.71392e-15 2.36126e-07 0)
(1.78358e-15 2.14403e-07 0)
(1.09773e-15 1.86524e-07 0)
(6.47472e-16 1.58167e-07 0)
(3.66777e-16 1.31369e-07 0)
(2.05496e-16 1.10216e-07 0)
(1.2071e-16 1.01686e-07 0)
(5.83089e-17 9.42731e-08 0)
(1.40206e-17 7.90402e-08 0)
(-5.10849e-08 0.00604369 -0)
(-1.55258e-10 -0.00213321 0)
(1.43381e-11 0.000523729 0)
(1.06777e-11 -0.000127175 -0)
(4.28566e-12 3.1939e-05 0)
(-4.22019e-13 -7.47131e-06 0)
(1.62259e-13 2.26671e-06 0)
(-7.71402e-15 -1.64751e-07 0)
(1.61458e-14 4.35683e-07 0)
(6.50534e-15 2.51114e-07 0)
(4.94242e-15 2.63139e-07 0)
(3.11732e-15 2.35188e-07 0)
(2.01745e-15 2.16087e-07 0)
(1.22201e-15 1.88977e-07 0)
(7.11455e-16 1.608e-07 0)
(4.0036e-16 1.343e-07 0)
(2.24179e-16 1.1368e-07 0)
(1.31617e-16 1.05676e-07 0)
(6.37046e-17 9.86842e-08 0)
(1.47445e-17 8.19116e-08 0)
(8.14739e-08 0.00505362 0)
(5.6901e-10 -0.000113149 -0)
(1.27311e-10 8.50701e-05 0)
(5.06559e-12 -3.38608e-05 -0)
(3.58377e-12 1.2736e-05 0)
(-4.12377e-13 -3.90615e-06 0)
(1.53593e-13 1.53972e-06 0)
(-4.73796e-15 -7.74159e-08 0)
(1.87431e-14 4.33933e-07 0)
(6.81807e-15 2.36914e-07 0)
(4.68372e-15 2.36919e-07 0)
(2.8203e-15 2.07802e-07 0)
(1.84436e-15 1.97913e-07 0)
(1.1104e-15 1.75177e-07 0)
(6.3519e-16 1.48821e-07 0)
(3.52679e-16 1.23949e-07 0)
(1.97333e-16 1.05633e-07 0)
(1.16026e-16 9.89139e-08 0)
(5.60025e-17 9.26532e-08 0)
(1.26185e-17 7.62788e-08 0)
(1.01858e-07 -0.00333821 -0)
(-1.56651e-08 -0.00146674 0)
(-5.57487e-10 0.000317612 -0)
(-8.46215e-11 -6.3943e-05 0)
(7.88268e-13 1.35418e-05 0)
(-6.46622e-13 -2.53906e-06 0)
(3.75466e-14 4.54383e-07 0)
(1.07339e-14 1.43843e-07 0)
(1.29931e-14 3.28383e-07 0)
(7.46668e-15 2.68416e-07 0)
(3.13445e-15 1.79532e-07 0)
(1.82576e-15 1.52176e-07 0)
(1.21854e-15 1.51928e-07 0)
(7.81869e-16 1.44784e-07 0)
(4.3873e-16 1.22803e-07 0)
(2.35602e-16 9.97569e-08 0)
(1.3071e-16 8.47217e-08 0)
(7.78631e-17 8.06734e-08 0)
(3.7741e-17 7.62862e-08 0)
(8.27397e-18 6.21608e-08 0)
(-6.17072e-07 -0.0369612 0)
(8.47741e-08 0.0108306 0)
(3.96321e-09 -0.00283896 -0)
(1.44092e-09 0.000748549 0)
(3.87307e-11 -0.00019436 -0)
(1.73036e-11 5.12882e-05 0)
(-3.21213e-13 -1.35926e-05 0)
(2.60961e-13 3.58514e-06 0)
(-1.44297e-14 -5.90145e-07 0)
(1.14388e-14 5.30986e-07 0)
(9.75562e-16 8.45677e-08 0)
(8.47034e-16 1.01492e-07 0)
(4.56363e-16 8.46041e-08 0)
(3.66181e-16 1.00168e-07 0)
(2.00715e-16 8.48152e-08 0)
(9.99566e-17 6.43248e-08 0)
(5.31356e-17 5.2423e-08 0)
(3.3065e-17 5.17968e-08 0)
(1.65755e-17 5.08146e-08 0)
(3.49374e-18 4.08523e-08 0)
(-7.42117e-07 0.0251236 -0)
(-1.43319e-07 -0.00886793 0)
(-1.44247e-08 0.00388223 -0)
(-1.67914e-09 -0.000928461 0)
(-1.67151e-10 0.000445708 -0)
(-1.56984e-11 -7.13889e-05 0)
(-1.18931e-12 6.27751e-05 -0)
(1.33052e-13 3.71921e-06 0)
(8.96546e-14 1.35144e-05 0)
(4.35477e-14 5.06771e-06 0)
(1.69009e-14 4.38791e-06 0)
(7.49358e-15 2.48097e-06 0)
(3.25321e-15 1.71416e-06 0)
(1.38115e-15 1.05978e-06 0)
(5.52201e-16 6.69077e-07 0)
(2.12939e-16 3.9498e-07 0)
(7.80157e-17 2.2108e-07 0)
(2.45964e-17 1.09352e-07 0)
(5.13957e-18 4.47239e-08 0)
(5.00641e-19 1.71526e-08 0)
)
;

boundaryField
{
    movingWall
    {
        type            calculated;
        value           nonuniform List<vector> 
20
(
(0 0.106063 -0)
(0 -0.029631 -0)
(0 0.0117973 -0)
(0 -0.00291828 -0)
(0 0.00124915 -0)
(0 -0.000233811 -0)
(0 0.000159355 -0)
(0 6.67299e-07 -0)
(0 3.05148e-05 -0)
(0 9.77368e-06 -0)
(0 9.27748e-06 -0)
(0 5.07858e-06 -0)
(0 3.54815e-06 -0)
(0 2.14858e-06 -0)
(0 1.34972e-06 -0)
(0 7.92414e-07 -0)
(0 4.39474e-07 -0)
(0 2.0726e-07 -0)
(0 7.28156e-08 -0)
(0 2.00213e-08 -0)
)
;
    }
    fixedWalls
    {
        type            calculated;
        value           nonuniform List<vector> 
60
(
(0 -0.00202888 -0)
(0 0.000194392 -0)
(0 -0.000742086 -0)
(0 0.000373138 -0)
(0 0.000780183 -0)
(0 0.00194986 -0)
(0 -0.000123739 -0)
(0 -0.000720792 -0)
(0 -0.000223112 -0)
(0 -0.000470924 -0)
(0 0.000426381 -0)
(0 0.000117843 -0)
(0 -6.10485e-05 -0)
(0 0.00227945 -0)
(0 -0.00162478 -0)
(0 0.00858683 -0)
(0 -0.000285066 -0)
(0 0.00688266 -0)
(0 -0.0411877 -0)
(0 0.035597 -0)
(0 -5.94766e-09 -0)
(0 -1.52807e-08 -0)
(0 -2.37969e-08 -0)
(0 -2.98382e-08 -0)
(0 -3.27089e-08 -0)
(0 -3.19017e-08 -0)
(0 -2.72725e-08 -0)
(0 -1.89302e-08 -0)
(0 -7.36093e-09 -0)
(0 6.72403e-09 -0)
(0 2.22462e-08 -0)
(0 3.78707e-08 -0)
(0 5.21758e-08 -0)
(0 6.35283e-08 -0)
(0 7.04049e-08 -0)
(0 7.13589e-08 -0)
(0 6.54634e-08 -0)
(0 5.26197e-08 -0)
(0 3.38892e-08 -0)
(0 1.44171e-08 -0)
(0 -0.00284592 -0)
(0 0.00086155 -0)
(0 -0.000328553 -0)
(0 6.92709e-05 -0)
(0 -4.6577e-05 -0)
(0 -4.01962e-06 -0)
(0 -1.31104e-05 -0)
(0 -6.5837e-06 -0)
(0 -5.84983e-06 -0)
(0 -3.92082e-06 -0)
(0 -2.91612e-06 -0)
(0 -2.02793e-06 -0)
(0 -1.41673e-06 -0)
(0 -9.53094e-07 -0)
(0 -6.20247e-07 -0)
(0 -3.8005e-07 -0)
(0 -2.12733e-07 -0)
(0 -1.00628e-07 -0)
(0 -3.50009e-08 -0)
(0 -8.40085e-09 -0)
)
;
    }
    frontAndBack
    {
        type            empty;
    }
}


// ************************************************************************* //
