/*--------------------------------*- C++ -*----------------------------------*\
| =========                 |                                                 |
| \\      /  F ield         | OpenFOAM: The Open Source CFD Toolbox           |
|  \\    /   O peration     | Version:  2506                                  |
|   \\  /    A nd           | Website:  www.openfoam.com                      |
|    \\/     M anipulation  |                                                 |
\*---------------------------------------------------------------------------*/
FoamFile
{
    version     2.0;
    format      ascii;
    arch        "LSB;label=32;scalar=64";
    class       volVectorField;
    location    "8.75";
    object      diffU;
}
// * * * * * * * * * * * * * * * * * * * * * * * * * * * * * * * * * * * * * //

dimensions      [0 1 -1 0 0 0 0];

internalField   nonuniform List<vector> 
400
(
(0 0 0)
(1.82077e-14 -1.58428e-13 0)
(1.36557e-14 -1.2372e-13 0)
(1.42109e-14 -1.31772e-13 0)
(1.38778e-14 -1.30037e-13 0)
(1.37668e-14 -1.30465e-13 0)
(1.38778e-14 -1.30375e-13 0)
(1.38778e-14 -1.30318e-13 0)
(1.34337e-14 -1.30339e-13 0)
(1.34337e-14 -1.30413e-13 0)
(1.34337e-14 -1.30485e-13 0)
(1.35447e-14 -1.3052e-13 0)
(1.35447e-14 -1.30489e-13 0)
(1.35447e-14 -1.30387e-13 0)
(1.33227e-14 -1.30351e-13 0)
(1.33227e-14 -1.30406e-13 0)
(1.31006e-14 -1.30475e-13 0)
(1.28786e-14 -1.30541e-13 0)
(1.34337e-14 -1.30504e-13 0)
(1.33227e-14 -1.30447e-13 0)
(3.17524e-14 -1.18503e-13 0)
(7.10543e-15 -1.3293e-13 0)
(1.24345e-14 -1.29766e-13 0)
(1.24345e-14 -1.30556e-13 0)
(1.24345e-14 -1.30388e-13 0)
(1.26565e-14 -1.30496e-13 0)
(1.26565e-14 -1.30437e-13 0)
(1.26565e-14 -1.30364e-13 0)
(1.26565e-14 -1.30373e-13 0)
(1.26565e-14 -1.30486e-13 0)
(1.26565e-14 -1.30662e-13 0)
(1.28786e-14 -1.3063e-13 0)
(1.26565e-14 -1.30536e-13 0)
(1.26565e-14 -1.30419e-13 0)
(1.31006e-14 -1.30344e-13 0)
(1.33227e-14 -1.30333e-13 0)
(1.33227e-14 -1.30425e-13 0)
(1.31006e-14 -1.30518e-13 0)
(1.33227e-14 -1.30632e-13 0)
(1.31006e-14 -1.3049e-13 0)
(7.54952e-15 -2.40675e-13 0)
(1.4988e-14 -1.07324e-13 0)
(1.34337e-14 -1.36008e-13 0)
(1.36557e-14 -1.2932e-13 0)
(1.36557e-14 -1.30668e-13 0)
(1.38778e-14 -1.30332e-13 0)
(1.35447e-14 -1.3036e-13 0)
(1.37668e-14 -1.30431e-13 0)
(1.35447e-14 -1.30414e-13 0)
(1.36557e-14 -1.30416e-13 0)
(1.34337e-14 -1.30514e-13 0)
(1.31006e-14 -1.30384e-13 0)
(1.33227e-14 -1.30374e-13 0)
(1.28786e-14 -1.30536e-13 0)
(1.26565e-14 -1.30664e-13 0)
(1.31006e-14 -1.30569e-13 0)
(1.33227e-14 -1.30442e-13 0)
(1.31006e-14 -1.3048e-13 0)
(1.33227e-14 -1.3069e-13 0)
(1.31006e-14 -1.30621e-13 0)
(8.88178e-16 -5.55009e-14 0)
(1.55431e-14 -1.47066e-13 0)
(1.26565e-14 -1.26813e-13 0)
(1.28786e-14 -1.31393e-13 0)
(1.31006e-14 -1.30338e-13 0)
(1.28786e-14 -1.3054e-13 0)
(1.31006e-14 -1.30524e-13 0)
(1.36557e-14 -1.30471e-13 0)
(1.33227e-14 -1.30436e-13 0)
(1.36557e-14 -1.30434e-13 0)
(1.33227e-14 -1.30354e-13 0)
(1.35447e-14 -1.30347e-13 0)
(1.34337e-14 -1.30384e-13 0)
(1.37668e-14 -1.30527e-13 0)
(1.35447e-14 -1.30622e-13 0)
(1.36557e-14 -1.30626e-13 0)
(1.33227e-14 -1.3044e-13 0)
(1.36557e-14 -1.3045e-13 0)
(1.34337e-14 -1.30535e-13 0)
(1.34337e-14 -1.30598e-13 0)
(3.03091e-14 -1.3465e-13 0)
(9.32587e-15 -1.29685e-13 0)
(1.37668e-14 -1.30886e-13 0)
(1.35447e-14 -1.30685e-13 0)
(1.35447e-14 -1.30749e-13 0)
(1.38778e-14 -1.30679e-13 0)
(1.34337e-14 -1.30674e-13 0)
(1.35447e-14 -1.30493e-13 0)
(1.33227e-14 -1.30451e-13 0)
(1.35447e-14 -1.30447e-13 0)
(1.35447e-14 -1.30244e-13 0)
(1.36557e-14 -1.30313e-13 0)
(1.35447e-14 -1.30424e-13 0)
(1.34337e-14 -1.3054e-13 0)
(1.33227e-14 -1.30551e-13 0)
(1.31006e-14 -1.30545e-13 0)
(1.31006e-14 -1.30496e-13 0)
(1.31006e-14 -1.30473e-13 0)
(1.33227e-14 -1.30442e-13 0)
(1.33227e-14 -1.30522e-13 0)
(-4.44089e-16 -2.06749e-13 0)
(1.63203e-14 -1.1446e-13 0)
(1.26565e-14 -1.34219e-13 0)
(1.31006e-14 -1.2968e-13 0)
(1.26565e-14 -1.30697e-13 0)
(1.24345e-14 -1.30551e-13 0)
(1.26565e-14 -1.30631e-13 0)
(1.28786e-14 -1.30637e-13 0)
(1.31006e-14 -1.30591e-13 0)
(1.28786e-14 -1.30431e-13 0)
(1.31006e-14 -1.30291e-13 0)
(1.34337e-14 -1.30338e-13 0)
(1.34337e-14 -1.30481e-13 0)
(1.35447e-14 -1.3058e-13 0)
(1.36557e-14 -1.30584e-13 0)
(1.37668e-14 -1.30495e-13 0)
(1.35447e-14 -1.30441e-13 0)
(1.33227e-14 -1.30469e-13 0)
(1.34337e-14 -1.30447e-13 0)
(1.34337e-14 -1.30486e-13 0)
(2.66454e-14 -1.87049e-14 0)
(1.13243e-14 -1.54008e-13 0)
(1.45439e-14 -1.24814e-13 0)
(1.33227e-14 -1.31398e-13 0)
(1.35447e-14 -1.3004e-13 0)
(1.36557e-14 -1.30636e-13 0)
(1.34337e-14 -1.3073e-13 0)
(1.34337e-14 -1.3069e-13 0)
(1.33227e-14 -1.30626e-13 0)
(1.31006e-14 -1.30628e-13 0)
(1.28786e-14 -1.30756e-13 0)
(1.36557e-14 -1.30674e-13 0)
(1.35447e-14 -1.30534e-13 0)
(1.33227e-14 -1.30529e-13 0)
(1.33227e-14 -1.30502e-13 0)
(1.31006e-14 -1.30347e-13 0)
(1.33227e-14 -1.30344e-13 0)
(1.31006e-14 -1.30446e-13 0)
(1.33227e-14 -1.30488e-13 0)
(1.33227e-14 -1.30472e-13 0)
(9.54792e-15 -1.73504e-13 0)
(1.19904e-14 -1.20729e-13 0)
(1.17684e-14 -1.3276e-13 0)
(1.31006e-14 -1.30062e-13 0)
(1.33227e-14 -1.30787e-13 0)
(1.37668e-14 -1.30654e-13 0)
(1.34337e-14 -1.30584e-13 0)
(1.34337e-14 -1.30384e-13 0)
(1.35447e-14 -1.3032e-13 0)
(1.36557e-14 -1.30528e-13 0)
(1.36557e-14 -1.30745e-13 0)
(1.31006e-14 -1.30581e-13 0)
(1.31006e-14 -1.30462e-13 0)
(1.35447e-14 -1.30443e-13 0)
(1.33227e-14 -1.30509e-13 0)
(1.28786e-14 -1.30471e-13 0)
(1.31006e-14 -1.30532e-13 0)
(1.33227e-14 -1.30532e-13 0)
(1.33227e-14 -1.30514e-13 0)
(1.33227e-14 -1.30488e-13 0)
(1.13243e-14 -1.88045e-13 0)
(1.58762e-14 -1.18665e-13 0)
(1.43219e-14 -1.33345e-13 0)
(1.35447e-14 -1.30087e-13 0)
(1.34337e-14 -1.30838e-13 0)
(1.33227e-14 -1.306e-13 0)
(1.28786e-14 -1.30528e-13 0)
(1.28786e-14 -1.30558e-13 0)
(1.31006e-14 -1.30556e-13 0)
(1.33227e-14 -1.30598e-13 0)
(1.31006e-14 -1.30621e-13 0)
(1.31006e-14 -1.30614e-13 0)
(1.33227e-14 -1.30606e-13 0)
(1.31006e-14 -1.30463e-13 0)
(1.34337e-14 -1.30381e-13 0)
(1.34337e-14 -1.30443e-13 0)
(1.31006e-14 -1.3058e-13 0)
(1.33227e-14 -1.30543e-13 0)
(1.33227e-14 -1.30504e-13 0)
(1.34337e-14 -1.30474e-13 0)
(1.5099e-14 -2.68014e-14 0)
(1.26565e-14 -1.52579e-13 0)
(1.34337e-14 -1.25201e-13 0)
(1.34337e-14 -1.31509e-13 0)
(1.34337e-14 -1.30095e-13 0)
(1.35447e-14 -1.30443e-13 0)
(1.36557e-14 -1.30451e-13 0)
(1.38778e-14 -1.30654e-13 0)
(1.35447e-14 -1.30689e-13 0)
(1.36557e-14 -1.3058e-13 0)
(1.34337e-14 -1.30422e-13 0)
(1.34337e-14 -1.30399e-13 0)
(1.33227e-14 -1.304e-13 0)
(1.31006e-14 -1.30467e-13 0)
(1.28786e-14 -1.30518e-13 0)
(1.31006e-14 -1.30513e-13 0)
(1.33227e-14 -1.30562e-13 0)
(1.33227e-14 -1.3059e-13 0)
(1.34337e-14 -1.30477e-13 0)
(1.33227e-14 -1.30475e-13 0)
(7.32747e-15 -2.2746e-13 0)
(1.36557e-14 -1.09487e-13 0)
(1.24345e-14 -1.35326e-13 0)
(1.33227e-14 -1.29429e-13 0)
(1.28786e-14 -1.30726e-13 0)
(1.26565e-14 -1.30466e-13 0)
(1.31006e-14 -1.30551e-13 0)
(1.28786e-14 -1.30575e-13 0)
(1.31006e-14 -1.30581e-13 0)
(1.28786e-14 -1.30553e-13 0)
(1.28786e-14 -1.30527e-13 0)
(1.31006e-14 -1.305e-13 0)
(1.33227e-14 -1.30511e-13 0)
(1.39888e-14 -1.30509e-13 0)
(1.35447e-14 -1.30533e-13 0)
(1.34337e-14 -1.30652e-13 0)
(1.35447e-14 -1.30621e-13 0)
(1.34337e-14 -1.3053e-13 0)
(1.33227e-14 -1.30402e-13 0)
(1.35447e-14 -1.30478e-13 0)
(2.44249e-14 -6.70874e-14 0)
(1.28786e-14 -1.44017e-13 0)
(1.52101e-14 -1.27108e-13 0)
(1.35447e-14 -1.30944e-13 0)
(1.40998e-14 -1.30185e-13 0)
(1.39888e-14 -1.30381e-13 0)
(1.37668e-14 -1.30541e-13 0)
(1.36557e-14 -1.30518e-13 0)
(1.35447e-14 -1.30524e-13 0)
(1.38778e-14 -1.30553e-13 0)
(1.37668e-14 -1.30582e-13 0)
(1.34337e-14 -1.30661e-13 0)
(1.36557e-14 -1.3066e-13 0)
(1.35447e-14 -1.30455e-13 0)
(1.33227e-14 -1.30321e-13 0)
(1.34337e-14 -1.30487e-13 0)
(1.31006e-14 -1.30519e-13 0)
(1.28786e-14 -1.30444e-13 0)
(1.31006e-14 -1.30484e-13 0)
(1.33227e-14 -1.30518e-13 0)
(3.33067e-15 -1.31421e-13 0)
(1.28786e-14 -1.30241e-13 0)
(1.11022e-14 -1.30578e-13 0)
(1.31006e-14 -1.30383e-13 0)
(1.24345e-14 -1.30404e-13 0)
(1.28786e-14 -1.30425e-13 0)
(1.26565e-14 -1.30506e-13 0)
(1.28786e-14 -1.30578e-13 0)
(1.26565e-14 -1.30712e-13 0)
(1.31006e-14 -1.30678e-13 0)
(1.28786e-14 -1.30455e-13 0)
(1.31006e-14 -1.30405e-13 0)
(1.31006e-14 -1.30456e-13 0)
(1.28786e-14 -1.30453e-13 0)
(1.33227e-14 -1.30512e-13 0)
(1.33227e-14 -1.30472e-13 0)
(1.33227e-14 -1.304e-13 0)
(1.31006e-14 -1.30522e-13 0)
(1.33227e-14 -1.30651e-13 0)
(1.33227e-14 -1.30597e-13 0)
(1.70974e-14 -2.09552e-13 0)
(1.46549e-14 -1.13677e-13 0)
(1.4877e-14 -1.34474e-13 0)
(1.38778e-14 -1.29644e-13 0)
(1.40998e-14 -1.30459e-13 0)
(1.39888e-14 -1.30255e-13 0)
(1.34337e-14 -1.30333e-13 0)
(1.38778e-14 -1.30501e-13 0)
(1.35447e-14 -1.30613e-13 0)
(1.31006e-14 -1.30604e-13 0)
(1.26565e-14 -1.3059e-13 0)
(1.33227e-14 -1.30597e-13 0)
(1.33227e-14 -1.3065e-13 0)
(1.33227e-14 -1.3074e-13 0)
(1.37668e-14 -1.30677e-13 0)
(1.33227e-14 -1.3047e-13 0)
(1.35447e-14 -1.3034e-13 0)
(1.35447e-14 -1.30412e-13 0)
(1.33227e-14 -1.30625e-13 0)
(1.34337e-14 -1.30595e-13 0)
(7.10543e-15 -9.58476e-15 0)
(1.33227e-14 -1.56351e-13 0)
(1.24345e-14 -1.24518e-13 0)
(1.26565e-14 -1.31731e-13 0)
(1.26565e-14 -1.30114e-13 0)
(1.33227e-14 -1.30465e-13 0)
(1.34337e-14 -1.30515e-13 0)
(1.36557e-14 -1.30565e-13 0)
(1.38778e-14 -1.30453e-13 0)
(1.36557e-14 -1.30405e-13 0)
(1.37668e-14 -1.30482e-13 0)
(1.36557e-14 -1.30574e-13 0)
(1.34337e-14 -1.30585e-13 0)
(1.33227e-14 -1.30603e-13 0)
(1.31006e-14 -1.30488e-13 0)
(1.28786e-14 -1.30422e-13 0)
(1.28786e-14 -1.30417e-13 0)
(1.31006e-14 -1.30416e-13 0)
(1.34337e-14 -1.3055e-13 0)
(1.34337e-14 -1.3051e-13 0)
(2.56462e-14 -2.0507e-13 0)
(9.76996e-15 -1.14501e-13 0)
(1.26565e-14 -1.34441e-13 0)
(1.33227e-14 -1.2973e-13 0)
(1.28786e-14 -1.3076e-13 0)
(1.28786e-14 -1.30611e-13 0)
(1.28786e-14 -1.30682e-13 0)
(1.28786e-14 -1.3056e-13 0)
(1.28786e-14 -1.30444e-13 0)
(1.28786e-14 -1.30501e-13 0)
(1.26565e-14 -1.30573e-13 0)
(1.31006e-14 -1.3054e-13 0)
(1.31006e-14 -1.30465e-13 0)
(1.28786e-14 -1.30432e-13 0)
(1.28786e-14 -1.30463e-13 0)
(1.31006e-14 -1.30558e-13 0)
(1.31006e-14 -1.30644e-13 0)
(1.33227e-14 -1.30654e-13 0)
(1.33227e-14 -1.30564e-13 0)
(1.33227e-14 -1.30484e-13 0)
(-6.88338e-15 -1.61611e-13 0)
(1.82077e-14 -1.24257e-13 0)
(1.26565e-14 -1.32016e-13 0)
(1.31006e-14 -1.30325e-13 0)
(1.31006e-14 -1.3064e-13 0)
(1.33227e-14 -1.30579e-13 0)
(1.31006e-14 -1.30579e-13 0)
(1.31006e-14 -1.30581e-13 0)
(1.31006e-14 -1.30546e-13 0)
(1.35447e-14 -1.30536e-13 0)
(1.33227e-14 -1.30614e-13 0)
(1.33227e-14 -1.30636e-13 0)
(1.37668e-14 -1.30597e-13 0)
(1.35447e-14 -1.30536e-13 0)
(1.36557e-14 -1.30482e-13 0)
(1.35447e-14 -1.30569e-13 0)
(1.34337e-14 -1.30674e-13 0)
(1.31006e-14 -1.30707e-13 0)
(1.33227e-14 -1.30575e-13 0)
(1.36557e-14 -1.30459e-13 0)
(1.76525e-14 -2.09091e-14 0)
(1.28786e-14 -1.53979e-13 0)
(1.39888e-14 -1.25136e-13 0)
(1.37668e-14 -1.31861e-13 0)
(1.38778e-14 -1.30479e-13 0)
(1.36557e-14 -1.30652e-13 0)
(1.36557e-14 -1.30524e-13 0)
(1.35447e-14 -1.30581e-13 0)
(1.34337e-14 -1.30622e-13 0)
(1.34337e-14 -1.30571e-13 0)
(1.33227e-14 -1.3055e-13 0)
(1.33227e-14 -1.30573e-13 0)
(1.33227e-14 -1.30533e-13 0)
(1.34337e-14 -1.30455e-13 0)
(1.33227e-14 -1.30466e-13 0)
(1.37668e-14 -1.30516e-13 0)
(1.34337e-14 -1.30517e-13 0)
(1.33227e-14 -1.3056e-13 0)
(1.34337e-14 -1.30518e-13 0)
(1.33227e-14 -1.30422e-13 0)
(3.44169e-14 -1.77513e-13 0)
(7.54952e-15 -1.20319e-13 0)
(1.35447e-14 -1.33008e-13 0)
(1.28786e-14 -1.30005e-13 0)
(1.31006e-14 -1.307e-13 0)
(1.28786e-14 -1.30456e-13 0)
(1.31006e-14 -1.30397e-13 0)
(1.28786e-14 -1.3045e-13 0)
(1.28786e-14 -1.30571e-13 0)
(1.31006e-14 -1.30591e-13 0)
(1.28786e-14 -1.30613e-13 0)
(1.28786e-14 -1.30584e-13 0)
(1.28786e-14 -1.30517e-13 0)
(1.28786e-14 -1.30516e-13 0)
(1.31006e-14 -1.30598e-13 0)
(1.31006e-14 -1.30546e-13 0)
(1.28786e-14 -1.3051e-13 0)
(1.33227e-14 -1.30555e-13 0)
(1.33227e-14 -1.30518e-13 0)
(1.33227e-14 -1.30458e-13 0)
(4.44089e-15 -2.03598e-13 0)
(1.66533e-14 -1.15409e-13 0)
(1.42109e-14 -1.34154e-13 0)
(1.39888e-14 -1.29786e-13 0)
(1.40998e-14 -1.30715e-13 0)
(1.38778e-14 -1.30515e-13 0)
(1.39888e-14 -1.30506e-13 0)
(1.40998e-14 -1.30567e-13 0)
(1.39888e-14 -1.30637e-13 0)
(1.37668e-14 -1.30575e-13 0)
(1.36557e-14 -1.30542e-13 0)
(1.36557e-14 -1.30536e-13 0)
(1.37668e-14 -1.30523e-13 0)
(1.35447e-14 -1.30552e-13 0)
(1.34337e-14 -1.30553e-13 0)
(1.36557e-14 -1.30501e-13 0)
(1.34337e-14 -1.3054e-13 0)
(1.34337e-14 -1.30583e-13 0)
(1.33227e-14 -1.30529e-13 0)
(1.33227e-14 -1.30482e-13 0)
)
;

boundaryField
{
    movingWall
    {
        type            calculated;
        value           uniform (1.33227e-14 -1.30485e-13 0);
    }
    fixedWalls
    {
        type            calculated;
        value           uniform (1.33227e-14 -1.30485e-13 0);
    }
    frontAndBack
    {
        type            empty;
    }
}


// ************************************************************************* //
