/*--------------------------------*- C++ -*----------------------------------*\
| =========                 |                                                 |
| \\      /  F ield         | OpenFOAM: The Open Source CFD Toolbox           |
|  \\    /   O peration     | Version:  2506                                  |
|   \\  /    A nd           | Website:  www.openfoam.com                      |
|    \\/     M anipulation  |                                                 |
\*---------------------------------------------------------------------------*/
FoamFile
{
    version     2.0;
    format      ascii;
    arch        "LSB;label=32;scalar=64";
    class       volScalarField;
    location    "8.75";
    object      divPhi;
}
// * * * * * * * * * * * * * * * * * * * * * * * * * * * * * * * * * * * * * //

dimensions      [0 0 -1 0 0 0 0];

internalField   nonuniform List<scalar> 
400
(
-2.1684e-13
-5.31338e-15
1.23049e-14
-1.02702e-14
1.72919e-14
3.61154e-15
-1.67311e-14
-1.41437e-15
-1.14671e-16
7.75733e-15
-8.72786e-15
1.22341e-14
-1.13525e-14
-1.98881e-15
1.43202e-14
-7.52596e-15
1.35174e-14
-2.33244e-14
1.40597e-15
2.71051e-14
0
-4.70787e-15
2.20703e-14
-7.9581e-15
9.64643e-15
-2.13235e-14
3.99779e-14
-8.79823e-15
-1.11967e-14
6.46595e-15
-5.84927e-15
4.05776e-14
-2.02796e-14
-1.31528e-14
-1.82856e-14
2.08276e-14
7.28794e-15
1.31218e-14
-7.25383e-15
-2.71051e-14
0
-1.52232e-14
-1.28728e-14
-5.49228e-15
1.1288e-14
9.99431e-15
3.76375e-15
-9.45594e-15
-1.25641e-14
-8.64252e-15
1.52877e-14
1.12488e-14
2.91345e-14
-2.13425e-14
-1.49915e-16
-8.36929e-15
6.38527e-15
2.7898e-14
-2.2658e-14
0
0
2.54148e-14
4.99838e-15
-6.89398e-15
1.2377e-14
7.25745e-15
8.8359e-15
-3.63972e-14
-1.64064e-14
7.99205e-15
-1.07769e-14
-3.36308e-15
-1.669e-14
3.16868e-14
-2.51357e-14
-5.10813e-17
6.67161e-15
8.07774e-15
2.92839e-15
2.71051e-14
0
9.98261e-15
3.7536e-15
-1.79298e-14
3.17811e-15
6.59406e-15
6.37828e-15
-1.07855e-14
2.10748e-14
-4.68738e-15
-2.16554e-14
6.92711e-15
-1.16108e-14
2.20454e-14
-6.92125e-15
1.15749e-14
2.85835e-15
2.07767e-14
4.57298e-15
0
0
-2.29537e-14
2.20588e-14
1.61316e-14
8.08939e-15
2.42767e-14
-1.42947e-14
-1.76539e-14
-1.53261e-14
1.95009e-14
2.2492e-15
-1.17595e-15
-1.77616e-14
9.39652e-15
-1.04551e-14
2.53448e-14
-8.12827e-15
-3.72184e-14
3.37001e-14
-2.71051e-14
0
1.27413e-14
3.98313e-15
-6.6622e-15
-1.04657e-14
2.67605e-15
1.66935e-14
1.58393e-15
2.10193e-14
-5.73819e-15
-7.39114e-15
1.06899e-14
1.02453e-14
3.23798e-15
-2.11123e-14
-6.9664e-15
-8.90709e-15
-3.4493e-14
2.2992e-14
0
0
2.13737e-14
-9.22403e-15
3.24693e-15
-2.14787e-14
1.31449e-14
-2.08449e-14
-9.62399e-15
8.68777e-15
-1.73694e-14
-3.63396e-14
2.33007e-14
1.01571e-14
8.65202e-16
-2.04345e-15
-2.26639e-14
-1.74032e-15
-9.35025e-15
-8.6844e-15
0
0
9.52292e-15
-9.22649e-15
-5.67814e-15
1.09264e-14
3.08047e-14
3.07733e-14
-2.21242e-14
1.71039e-14
7.34111e-16
-8.25609e-15
4.97645e-15
-1.33099e-14
2.73254e-14
8.44053e-16
1.49718e-14
-1.05173e-14
1.29758e-14
-2.91903e-14
0
0
2.72276e-14
-8.38273e-15
-1.8008e-15
2.64861e-14
-3.55622e-15
3.54626e-14
1.02228e-14
-2.47889e-14
9.16467e-15
-1.93953e-14
2.52214e-14
-2.81219e-14
1.68539e-14
-8.34373e-15
-7.32632e-15
-1.88115e-14
3.22002e-14
-1.40889e-14
0
0
-1.20709e-14
3.00518e-15
5.11911e-15
3.53264e-16
-1.69549e-14
2.7117e-14
5.97776e-15
-1.60081e-14
2.05637e-14
6.92308e-15
-6.51308e-15
-4.31962e-15
-4.05733e-14
1.22225e-14
-1.79232e-14
2.69235e-14
1.27021e-16
-1.13092e-14
0
0
-4.68574e-15
2.28721e-15
2.48104e-14
-1.23748e-14
3.49187e-14
-3.01891e-15
1.93925e-14
-1.60016e-14
4.97672e-15
-4.99912e-15
2.05287e-14
8.9181e-15
-2.09998e-14
2.0198e-14
1.30395e-14
-1.6765e-14
-1.65697e-15
-3.03376e-14
2.71051e-14
0
1.05334e-14
-1.20249e-15
4.10792e-15
8.80442e-16
6.90697e-15
-1.61781e-14
-9.70694e-15
4.63133e-15
7.22599e-15
-4.85957e-15
4.64218e-15
-6.83024e-15
1.49484e-14
-1.19811e-15
1.99635e-14
9.54865e-17
-2.25527e-14
2.59977e-14
-2.71051e-14
0
-4.66996e-16
1.8831e-14
-1.05383e-14
2.41214e-14
-4.72062e-15
2.16785e-14
-3.86102e-14
1.1783e-15
7.10822e-15
-1.43877e-14
1.24793e-15
-3.2585e-15
3.1662e-15
2.89324e-15
-2.126e-14
1.4824e-14
-1.19924e-15
1.72481e-14
0
0
-2.66496e-14
8.16786e-15
-9.41051e-15
-2.33455e-14
1.69466e-15
-2.02631e-15
-2.08462e-14
2.10858e-14
2.81882e-15
1.88025e-15
-1.03092e-14
-3.26718e-15
2.46408e-14
6.25129e-15
-2.22167e-14
-1.11117e-16
-6.0852e-15
2.50887e-15
0
0
-2.70244e-14
3.05792e-14
-1.71114e-14
1.96177e-14
-1.73933e-14
-7.12298e-15
1.13119e-14
-1.37668e-14
-1.3929e-15
-3.89709e-15
-2.06832e-14
-1.25584e-14
6.51324e-15
1.94647e-15
8.27113e-15
-1.6216e-14
-5.94936e-16
-9.24968e-15
0
2.71051e-14
-5.07819e-15
2.9622e-14
2.297e-14
-3.53766e-14
2.06852e-14
-3.13298e-14
1.39127e-14
2.07718e-14
5.45398e-15
5.47278e-15
2.20013e-14
-1.27465e-14
-5.43927e-15
7.25276e-15
-5.67657e-15
3.3266e-14
-5.37534e-15
6.74932e-15
0
0
1.67921e-15
9.92116e-15
1.02766e-14
-2.7037e-14
-7.16305e-15
-5.42929e-16
-6.54095e-15
-1.1096e-14
1.18182e-14
1.07455e-14
-1.46412e-14
1.34666e-14
-3.54751e-15
1.00901e-14
-1.63258e-14
1.16888e-15
-4.95902e-16
2.50365e-14
-2.71051e-14
0
1.60455e-14
7.97212e-16
3.64421e-14
-4.71907e-15
-2.87929e-14
1.27066e-14
-5.78145e-15
-2.9404e-14
3.44921e-14
8.85104e-15
-1.40629e-14
2.32043e-14
-4.55622e-15
4.09133e-14
2.35141e-14
-1.51344e-14
2.73753e-14
-1.06787e-14
0
0
0
0
0
0
0
0
0
0
0
0
2.71051e-14
0
0
0
0
0
0
0
0
)
;

boundaryField
{
    movingWall
    {
        type            extrapolatedCalculated;
        value           nonuniform List<scalar> 
20
(
0
0
0
0
0
0
0
0
0
0
0
2.71051e-14
0
0
0
0
0
0
0
0
)
;
    }
    fixedWalls
    {
        type            extrapolatedCalculated;
        value           nonuniform List<scalar> 
60
(
-2.1684e-13
0
0
0
0
0
0
0
0
0
0
0
0
0
0
0
2.71051e-14
0
0
0
2.71051e-14
-2.71051e-14
0
2.71051e-14
0
-2.71051e-14
0
0
0
0
0
2.71051e-14
-2.71051e-14
0
0
0
0
-2.71051e-14
0
0
-2.1684e-13
-5.31338e-15
1.23049e-14
-1.02702e-14
1.72919e-14
3.61154e-15
-1.67311e-14
-1.41437e-15
-1.14671e-16
7.75733e-15
-8.72786e-15
1.22341e-14
-1.13525e-14
-1.98881e-15
1.43202e-14
-7.52596e-15
1.35174e-14
-2.33244e-14
1.40597e-15
2.71051e-14
)
;
    }
    frontAndBack
    {
        type            empty;
    }
}


// ************************************************************************* //
