/*--------------------------------*- C++ -*----------------------------------*\
| =========                 |                                                 |
| \\      /  F ield         | OpenFOAM: The Open Source CFD Toolbox           |
|  \\    /   O peration     | Version:  2506                                  |
|   \\  /    A nd           | Website:  www.openfoam.com                      |
|    \\/     M anipulation  |                                                 |
\*---------------------------------------------------------------------------*/
FoamFile
{
    version     2.0;
    format      ascii;
    arch        "LSB;label=32;scalar=64";
    class       volScalarField;
    location    "8.75";
    object      divU;
}
// * * * * * * * * * * * * * * * * * * * * * * * * * * * * * * * * * * * * * //

dimensions      [0 0 -1 0 0 0 0];

internalField   nonuniform List<scalar> 
400
(
1.3417e-11
-1.65639e-12
3.41806e-13
-1.08604e-13
-2.68342e-14
9.35368e-16
4.29093e-14
-2.53787e-14
-1.23314e-15
7.10937e-15
-1.76029e-14
9.08087e-15
-5.53576e-15
-1.06535e-14
4.88182e-16
2.31498e-14
-4.71384e-14
-8.79442e-15
3.76061e-14
0
-2.28225e-11
3.18296e-12
-7.24323e-13
2.44961e-13
-8.58126e-15
1.42297e-14
-9.84372e-15
-9.5744e-15
-8.77025e-15
6.80003e-15
6.0754e-14
2.27087e-14
-4.81885e-14
2.86467e-14
5.04883e-14
-2.02912e-14
-4.3892e-14
5.14667e-14
-6.23413e-14
2.71051e-14
5.8818e-12
-8.05593e-13
1.67276e-13
-8.2671e-14
2.35677e-14
-4.43374e-14
-1.8536e-14
-2.02664e-14
-1.50214e-14
1.1959e-14
-1.68886e-14
-3.03058e-14
2.12823e-14
-3.63728e-14
-3.15286e-14
5.88317e-14
-4.53488e-14
5.82072e-14
-5.26254e-14
5.42101e-14
9.54098e-12
-1.036e-12
2.72857e-13
-1.37811e-13
-1.16554e-14
-2.48061e-14
5.84792e-14
5.48741e-14
-1.87171e-14
3.59846e-14
1.01606e-14
3.10433e-14
-1.08667e-14
-9.63432e-15
6.86192e-15
6.99649e-15
-2.36203e-14
3.18444e-14
-6.75629e-16
-2.71051e-14
-1.38507e-11
1.60121e-12
-3.32188e-13
1.69029e-13
-4.7534e-14
1.13728e-15
-3.34701e-14
-1.59699e-14
-7.19817e-15
3.62996e-14
1.64867e-14
4.83533e-15
-2.05556e-14
-6.91951e-14
1.06326e-14
-3.40811e-14
3.35408e-15
5.70859e-14
8.1633e-15
2.71051e-14
1.05439e-11
-1.12917e-12
2.75023e-13
-6.49402e-14
-3.08568e-14
5.95806e-14
-1.19261e-14
4.56541e-14
2.37722e-15
-3.60067e-14
1.94318e-14
-4.24795e-15
2.26419e-14
1.31696e-14
4.26105e-14
-1.4217e-14
-8.60801e-15
-2.15558e-14
3.06771e-14
-2.71051e-14
4.47233e-12
-1.83741e-12
3.66686e-13
-1.57391e-13
1.43301e-14
-4.91434e-15
-3.43232e-14
-1.03664e-14
-2.46876e-14
-4.56937e-14
2.81886e-14
2.57167e-14
-2.97094e-14
-2.08716e-16
-4.10663e-15
1.52913e-14
-7.19156e-14
5.34947e-14
-3.13514e-15
0
-1.74828e-11
3.81102e-12
-7.84555e-13
2.71883e-13
1.58485e-14
-1.23921e-15
-1.41702e-14
2.81383e-15
3.64882e-14
1.15194e-14
-3.96085e-14
-4.95379e-14
4.44484e-14
3.35754e-14
-7.32598e-14
-4.85423e-14
6.71796e-14
-1.04519e-14
-4.80875e-15
0
1.4718e-11
-2.89764e-12
5.40601e-13
-2.25131e-13
3.70883e-15
-3.42916e-14
-8.74256e-16
-2.41739e-14
5.38418e-14
6.36025e-15
-3.43316e-14
7.70434e-14
-3.51526e-15
4.07477e-15
3.42905e-14
-2.5697e-14
9.93961e-15
-1.63106e-14
-1.08505e-15
0
-3.82181e-12
7.57818e-13
-1.1824e-13
5.74824e-14
4.20562e-14
6.17758e-15
2.4004e-14
-2.58428e-14
-2.81735e-15
1.08862e-14
-2.48776e-14
-1.9976e-14
-4.8231e-14
-5.63641e-16
-3.52108e-14
6.17583e-14
5.80971e-15
3.91981e-14
-1.79183e-14
0
-4.60786e-12
1.3701e-12
-2.27609e-13
8.67908e-14
-4.81911e-14
1.2381e-14
1.49687e-14
-1.22091e-14
1.36156e-14
1.35631e-14
-1.38358e-14
6.23081e-14
3.41419e-14
2.77645e-14
-1.55372e-14
-1.68665e-14
3.72272e-14
-2.75475e-14
3.55189e-14
-2.71051e-14
1.06523e-11
-3.0093e-12
5.45275e-13
-2.25447e-13
9.23441e-14
-1.06236e-14
-3.47928e-14
-3.96415e-14
4.896e-16
-2.6072e-14
-6.70308e-15
1.75385e-14
1.25754e-14
-2.07997e-14
1.37079e-14
1.18794e-15
-2.20082e-14
-2.67262e-14
6.47717e-14
-2.71051e-14
-1.52873e-11
3.81942e-12
-7.33486e-13
3.11128e-13
-7.05833e-14
5.6188e-14
-4.11015e-14
4.33976e-14
-8.34113e-15
2.30148e-14
-7.47442e-15
-3.22995e-15
-1.35393e-14
4.91308e-15
5.18573e-15
2.85672e-15
2.30447e-14
3.63699e-15
-3.45461e-15
0
1.26852e-11
-2.83022e-12
5.23061e-13
-2.031e-13
3.97875e-14
-5.62252e-14
-1.48205e-14
-9.55671e-15
-3.66392e-14
-5.81041e-14
1.69418e-14
3.41582e-14
-2.64376e-14
4.4088e-14
7.5484e-15
-1.92463e-14
2.13947e-14
-1.28247e-14
6.65266e-15
0
-1.6263e-13
4.48334e-13
-9.70449e-14
3.224e-14
3.67883e-14
4.36098e-14
3.15609e-14
1.15908e-14
7.32556e-15
-2.06418e-14
1.8637e-14
-1.43684e-14
-3.50776e-14
-3.3584e-14
2.89546e-14
-2.80493e-14
-3.61393e-14
4.42661e-14
3.98664e-14
-2.71051e-14
-1.43115e-11
1.89589e-12
-4.13204e-13
1.72757e-13
-7.00743e-14
-2.20034e-14
-2.01497e-15
1.00082e-14
-2.0072e-15
-6.66541e-15
-2.169e-14
3.36397e-14
-9.24497e-15
-2.69451e-14
2.47304e-15
1.14038e-14
1.94228e-14
-3.90253e-14
1.02445e-14
0
1.68864e-11
-1.99767e-12
4.08902e-13
-1.7582e-13
9.35149e-14
1.01912e-15
-4.03579e-14
7.89432e-15
3.4417e-14
1.33957e-14
-1.93777e-14
5.74482e-14
-1.59577e-14
-2.0748e-15
2.17456e-15
-1.14924e-14
-2.20712e-14
-2.50838e-15
6.90177e-14
-5.42101e-14
-1.19262e-12
4.95625e-14
-1.54667e-14
-8.26369e-15
6.20252e-15
-1.37647e-14
4.9287e-15
2.09705e-14
-2.22895e-14
7.95051e-15
-1.92882e-14
8.38375e-15
4.62527e-14
-2.7133e-14
4.47924e-14
-9.18072e-15
-5.66198e-15
-1.44446e-14
-6.54645e-15
0
-1.67238e-11
1.76532e-12
-3.48028e-13
1.45009e-13
-4.44853e-14
2.70434e-14
6.70319e-15
-4.70881e-15
3.03542e-14
7.56702e-15
-1.84746e-14
1.21536e-14
-7.00555e-15
-9.78279e-15
8.98698e-15
-3.47753e-14
1.91107e-14
6.46152e-14
-7.61824e-15
0
1.14654e-11
-1.54499e-12
3.52366e-13
-1.0842e-13
2.71051e-14
-2.71051e-14
2.71051e-14
0
0
0
0
2.71051e-14
0
0
2.71051e-14
0
-2.71051e-14
0
0
0
)
;

boundaryField
{
    movingWall
    {
        type            extrapolatedCalculated;
        value           nonuniform List<scalar> 
20
(
1.14654e-11
-1.54499e-12
3.52366e-13
-1.0842e-13
2.71051e-14
-2.71051e-14
2.71051e-14
0
0
0
0
2.71051e-14
0
0
2.71051e-14
0
-2.71051e-14
0
0
0
)
;
    }
    fixedWalls
    {
        type            extrapolatedCalculated;
        value           nonuniform List<scalar> 
60
(
1.3417e-11
-2.28225e-11
5.8818e-12
9.54098e-12
-1.38507e-11
1.05439e-11
4.47233e-12
-1.74828e-11
1.4718e-11
-3.82181e-12
-4.60786e-12
1.06523e-11
-1.52873e-11
1.26852e-11
-1.6263e-13
-1.43115e-11
1.68864e-11
-1.19262e-12
-1.67238e-11
1.14654e-11
0
2.71051e-14
5.42101e-14
-2.71051e-14
2.71051e-14
-2.71051e-14
0
0
0
0
-2.71051e-14
-2.71051e-14
0
0
-2.71051e-14
0
-5.42101e-14
0
0
0
1.3417e-11
-1.65639e-12
3.41806e-13
-1.08604e-13
-2.68342e-14
9.35368e-16
4.29093e-14
-2.53787e-14
-1.23314e-15
7.10937e-15
-1.76029e-14
9.08087e-15
-5.53576e-15
-1.06535e-14
4.88182e-16
2.31498e-14
-4.71384e-14
-8.79442e-15
3.76061e-14
0
)
;
    }
    frontAndBack
    {
        type            empty;
    }
}


// ************************************************************************* //
