/*--------------------------------*- C++ -*----------------------------------*\
| =========                 |                                                 |
| \\      /  F ield         | OpenFOAM: The Open Source CFD Toolbox           |
|  \\    /   O peration     | Version:  2506                                  |
|   \\  /    A nd           | Website:  www.openfoam.com                      |
|    \\/     M anipulation  |                                                 |
\*---------------------------------------------------------------------------*/
FoamFile
{
    version     2.0;
    format      ascii;
    arch        "LSB;label=32;scalar=64";
    class       volScalarField;
    location    "8.75";
    object      enstrophyField;
}
// * * * * * * * * * * * * * * * * * * * * * * * * * * * * * * * * * * * * * //

dimensions      [0 0 -2 0 0 0 0];

internalField   nonuniform List<scalar> 
400
(
4.74267e-23
7.45347e-23
3.69871e-24
2.16996e-25
1.24469e-26
5.70761e-28
1.07624e-28
6.62866e-30
9.99074e-28
7.84488e-28
9.46546e-28
1.18199e-31
2.27928e-27
2.31803e-27
1.70576e-30
7.68155e-29
8.28442e-28
3.07127e-27
4.3555e-29
1.82001e-30
1.8963e-26
3.42901e-25
3.49875e-26
3.21185e-29
1.78297e-29
1.19573e-29
2.27372e-27
1.8384e-27
7.45731e-29
4.16883e-28
1.04158e-28
4.40565e-27
2.24057e-28
1.07442e-27
4.03744e-27
1.06184e-27
2.63894e-27
1.14433e-27
3.91655e-30
2.40709e-27
1.57518e-23
4.63339e-23
2.47921e-24
1.15109e-25
1.20727e-26
4.72254e-28
2.05657e-27
6.47218e-27
3.18667e-27
7.01415e-27
1.29914e-27
2.26369e-27
2.41101e-27
6.08405e-27
4.61413e-28
5.13393e-28
3.94421e-29
3.12284e-27
9.93961e-29
2.02088e-28
6.44633e-24
2.13527e-23
1.14474e-24
4.44793e-26
3.63813e-27
1.73472e-28
2.37333e-29
3.93179e-29
4.72581e-28
3.32422e-29
1.69215e-28
1.63442e-27
1.01459e-27
3.04412e-27
4.164e-27
3.94422e-29
2.57827e-27
4.57185e-29
8.78064e-28
5.81819e-29
2.01959e-26
3.58962e-26
1.04482e-27
8.1862e-28
1.50201e-27
1.90073e-27
2.64924e-27
8.55124e-27
1.72796e-27
2.80756e-27
8.2257e-28
1.63149e-28
1.24208e-27
8.01947e-29
3.81889e-28
1.51497e-29
1.10267e-27
1.45904e-29
2.46947e-28
3.48636e-28
1.60829e-23
2.4945e-23
1.32912e-24
8.25935e-26
3.79977e-27
2.18994e-29
3.68309e-29
7.66644e-30
5.65245e-28
6.20287e-27
4.1047e-27
1.80093e-28
4.25132e-30
1.40242e-28
3.64696e-29
1.02561e-28
3.00181e-28
1.75649e-31
1.54181e-30
4.74555e-28
3.05988e-23
5.15127e-23
2.80697e-24
1.66341e-25
1.32316e-29
1.57394e-26
3.7549e-27
2.51536e-27
2.19096e-28
7.37281e-27
3.69388e-27
1.21493e-27
8.65557e-28
5.18723e-30
2.62763e-27
7.71218e-27
1.47293e-28
1.02708e-28
3.40488e-30
3.3935e-28
1.63507e-24
6.5289e-24
4.3553e-25
1.94688e-26
1.75345e-27
2.07048e-28
5.86575e-27
5.79621e-27
8.07818e-29
9.04514e-28
5.24004e-28
6.01143e-27
9.49869e-29
2.50472e-28
3.87267e-30
4.31402e-28
1.15896e-27
1.61577e-30
9.59681e-30
4.90548e-30
1.29488e-23
1.45188e-23
8.51238e-25
1.93065e-26
1.31444e-27
1.68503e-27
1.25245e-27
1.62505e-27
8.02083e-30
5.63271e-28
3.25783e-28
1.38849e-27
1.14309e-28
2.94532e-27
1.57869e-27
2.74782e-27
5.05459e-29
2.83446e-29
2.38812e-29
3.45023e-28
3.62216e-23
4.60415e-23
2.6376e-24
9.47163e-26
1.76537e-26
1.04813e-27
1.1642e-27
2.8321e-28
2.76341e-29
3.2737e-27
2.61093e-27
2.41594e-30
2.29404e-29
7.23122e-27
1.73209e-27
9.8053e-30
3.95866e-27
3.65613e-29
6.66487e-29
1.7996e-30
3.62887e-23
4.19459e-23
2.32602e-24
9.3703e-26
1.7112e-26
6.74622e-28
5.90994e-29
4.56575e-30
2.3974e-30
2.34599e-28
1.19631e-27
1.20656e-30
1.51962e-27
4.30717e-28
8.59097e-28
6.43194e-28
7.72799e-28
2.89873e-27
1.76709e-27
4.10586e-29
1.45433e-23
1.75274e-23
1.04077e-24
3.93658e-26
3.48465e-27
1.96806e-27
8.96034e-29
1.39246e-30
1.28461e-27
5.41058e-28
5.78961e-29
3.03093e-29
2.7972e-27
6.6351e-27
2.86206e-28
2.67584e-29
1.70675e-27
4.67289e-28
2.70291e-29
4.59321e-28
2.1955e-25
3.07263e-27
8.38223e-29
4.71355e-29
8.75213e-30
5.19015e-29
7.57011e-28
2.12108e-28
5.01304e-29
8.9945e-27
5.89495e-27
1.46716e-27
1.11097e-29
1.17935e-27
1.57627e-27
6.24793e-29
3.72723e-27
5.66275e-27
1.90075e-27
2.14006e-31
2.16363e-23
2.77778e-23
1.50044e-24
9.18775e-26
1.86175e-27
1.05705e-28
5.60856e-27
5.97034e-27
1.06427e-26
1.34894e-27
3.24946e-27
6.54875e-27
1.01507e-28
1.62145e-27
1.46293e-27
3.87162e-27
5.41515e-28
4.06074e-28
1.66918e-28
3.09528e-28
3.72908e-23
6.05599e-23
3.66126e-24
1.14366e-25
2.16103e-26
2.33601e-27
2.5393e-27
3.82417e-27
4.73828e-27
4.1993e-30
1.42082e-28
9.66239e-28
4.2836e-30
2.03697e-27
8.00365e-27
5.87244e-28
3.35646e-27
8.90961e-29
4.42234e-29
6.50596e-28
1.00251e-23
2.16153e-23
1.24365e-24
4.11362e-26
6.63673e-27
2.99199e-29
1.31944e-29
5.5283e-27
1.80932e-27
8.3148e-29
2.99079e-27
5.77344e-29
1.3266e-28
1.45828e-27
4.40675e-27
4.93667e-27
4.13433e-27
3.23157e-29
1.43778e-28
1.07844e-27
1.40567e-24
3.54136e-24
2.75525e-25
6.10607e-27
8.94585e-27
2.82763e-27
1.48189e-27
3.04493e-27
1.23622e-27
1.86034e-27
4.16288e-27
1.44398e-30
1.47768e-28
9.11514e-28
1.65349e-27
2.69532e-27
8.32811e-28
2.05425e-27
3.05298e-28
2.08028e-29
1.00721e-23
4.3857e-23
2.26952e-24
1.28631e-25
1.09473e-26
2.56371e-28
2.52458e-29
4.81948e-29
1.5249e-27
1.88576e-27
1.45708e-27
1.56412e-27
7.23586e-27
6.61702e-27
5.23252e-27
2.43547e-28
2.95689e-27
1.47554e-27
9.44813e-29
1.31144e-27
2.8445e-24
8.39761e-24
4.95714e-25
2.07303e-26
2.6031e-27
4.58817e-28
1.44108e-27
2.56403e-27
4.54581e-27
4.90046e-28
1.43379e-27
9.94575e-28
1.12314e-27
1.93999e-27
1.63829e-27
3.86368e-29
3.61117e-31
3.88531e-28
4.72368e-29
1.35692e-31
1.05063e-23
2.22674e-23
8.83568e-25
6.8811e-26
1.74967e-28
2.18321e-28
1.20239e-27
8.42608e-28
3.46125e-28
6.72995e-28
7.70765e-30
1.72765e-30
1.35543e-30
4.6001e-30
1.323e-29
4.04366e-28
1.94625e-27
3.99087e-28
5.10085e-29
7.90876e-30
)
;

boundaryField
{
    movingWall
    {
        type            calculated;
        value           nonuniform List<scalar> 
20
(
4.37709e-23
3.42524e-23
5.85887e-25
1.86247e-25
2.83091e-26
2.95101e-26
3.41341e-26
4.43138e-26
3.52874e-26
1.75254e-26
9.40547e-27
9.12406e-27
1.54861e-26
3.6795e-27
1.22774e-27
9.05319e-27
6.56272e-28
1.03767e-27
5.10085e-29
7.90876e-30
)
;
    }
    fixedWalls
    {
        type            calculated;
        value           nonuniform List<scalar> 
60
(
1.33536e-21
8.13574e-24
8.39918e-22
3.84865e-22
1.17105e-24
4.5461e-22
9.55247e-22
1.23081e-22
2.77039e-22
8.74701e-22
7.88504e-22
3.31935e-22
6.39423e-26
5.11332e-22
1.12778e-21
4.04746e-22
6.77141e-23
7.8846e-22
1.53303e-22
3.92717e-22
1.14701e-28
1.56831e-27
1.44937e-32
1.64318e-28
8.6711e-28
3.53718e-28
2.3899e-28
5.18191e-31
4.95615e-28
8.84017e-30
4.1591e-30
8.08565e-28
1.52527e-28
9.57074e-28
6.82124e-28
1.48382e-27
5.3082e-29
4.24601e-28
6.06863e-29
1.07131e-30
1.2142e-22
1.02617e-22
3.20649e-24
4.87032e-25
4.17441e-27
2.23497e-26
2.15018e-26
2.38501e-26
1.4536e-27
1.74102e-27
1.51852e-27
3.98761e-27
2.85094e-27
2.80795e-27
1.70576e-30
7.68155e-29
2.83599e-27
1.52591e-26
6.15151e-28
1.82001e-30
)
;
    }
    frontAndBack
    {
        type            empty;
    }
}


// ************************************************************************* //
