/*--------------------------------*- C++ -*----------------------------------*\
| =========                 |                                                 |
| \\      /  F ield         | OpenFOAM: The Open Source CFD Toolbox           |
|  \\    /   O peration     | Version:  2506                                  |
|   \\  /    A nd           | Website:  www.openfoam.com                      |
|    \\/     M anipulation  |                                                 |
\*---------------------------------------------------------------------------*/
FoamFile
{
    version     2.0;
    format      ascii;
    arch        "LSB;label=32;scalar=64";
    class       volScalarField;
    location    "8.75";
    object      epsilonzeroGrad;
}
// * * * * * * * * * * * * * * * * * * * * * * * * * * * * * * * * * * * * * //

dimensions      [0 2 -3 0 0 0 0];

internalField   nonuniform List<scalar> 
400
(
9.56177e-07
9.56178e-07
9.56175e-07
9.56178e-07
9.56174e-07
9.56177e-07
9.56174e-07
9.56175e-07
9.56174e-07
9.56174e-07
9.56174e-07
9.56174e-07
9.56174e-07
9.56174e-07
9.56174e-07
9.56174e-07
9.56174e-07
9.56174e-07
9.56174e-07
9.56174e-07
9.7977e-07
9.69123e-07
9.7003e-07
9.70405e-07
9.71151e-07
9.71541e-07
9.72285e-07
9.72687e-07
9.73429e-07
9.73843e-07
9.74585e-07
9.75011e-07
9.75752e-07
9.76189e-07
9.76931e-07
9.77379e-07
9.78122e-07
9.78579e-07
9.78953e-07
9.79556e-07
1.01779e-06
1.0064e-06
1.00738e-06
1.00779e-06
1.0086e-06
1.00902e-06
1.00982e-06
1.01025e-06
1.01105e-06
1.0115e-06
1.01229e-06
1.01274e-06
1.01354e-06
1.014e-06
1.01479e-06
1.01526e-06
1.01605e-06
1.01653e-06
1.01692e-06
1.01756e-06
1.05879e-06
1.04678e-06
1.04782e-06
1.04825e-06
1.0491e-06
1.04955e-06
1.05039e-06
1.05085e-06
1.05169e-06
1.05215e-06
1.05299e-06
1.05347e-06
1.05431e-06
1.05479e-06
1.05563e-06
1.05612e-06
1.05695e-06
1.05746e-06
1.05787e-06
1.05854e-06
1.09425e-06
1.0817e-06
1.08278e-06
1.08323e-06
1.08412e-06
1.08458e-06
1.08547e-06
1.08594e-06
1.08682e-06
1.08731e-06
1.08819e-06
1.08868e-06
1.08956e-06
1.09007e-06
1.09094e-06
1.09145e-06
1.09233e-06
1.09285e-06
1.09329e-06
1.09399e-06
1.12078e-06
1.10781e-06
1.10893e-06
1.1094e-06
1.11032e-06
1.11079e-06
1.11171e-06
1.1122e-06
1.11311e-06
1.11361e-06
1.11451e-06
1.11503e-06
1.11593e-06
1.11646e-06
1.11736e-06
1.11789e-06
1.11879e-06
1.11933e-06
1.11978e-06
1.12051e-06
1.13883e-06
1.12558e-06
1.12673e-06
1.1272e-06
1.12814e-06
1.12863e-06
1.12956e-06
1.13006e-06
1.13099e-06
1.13151e-06
1.13243e-06
1.13296e-06
1.13388e-06
1.13441e-06
1.13533e-06
1.13588e-06
1.1368e-06
1.13735e-06
1.13782e-06
1.13855e-06
1.15053e-06
1.1371e-06
1.13826e-06
1.13874e-06
1.13969e-06
1.14019e-06
1.14113e-06
1.14164e-06
1.14258e-06
1.1431e-06
1.14404e-06
1.14457e-06
1.14551e-06
1.14605e-06
1.14699e-06
1.14754e-06
1.14847e-06
1.14903e-06
1.1495e-06
1.15025e-06
1.15815e-06
1.14459e-06
1.14576e-06
1.14625e-06
1.14721e-06
1.14771e-06
1.14866e-06
1.14917e-06
1.15012e-06
1.15065e-06
1.15159e-06
1.15213e-06
1.15307e-06
1.15362e-06
1.15456e-06
1.15512e-06
1.15606e-06
1.15663e-06
1.1571e-06
1.15786e-06
1.16343e-06
1.14979e-06
1.15096e-06
1.15145e-06
1.15242e-06
1.15292e-06
1.15388e-06
1.1544e-06
1.15535e-06
1.15588e-06
1.15683e-06
1.15737e-06
1.15832e-06
1.15887e-06
1.15982e-06
1.16038e-06
1.16133e-06
1.1619e-06
1.16237e-06
1.16313e-06
1.16754e-06
1.15384e-06
1.15502e-06
1.15551e-06
1.15648e-06
1.15699e-06
1.15795e-06
1.15847e-06
1.15943e-06
1.15996e-06
1.16092e-06
1.16146e-06
1.16242e-06
1.16297e-06
1.16392e-06
1.16449e-06
1.16544e-06
1.16601e-06
1.16649e-06
1.16725e-06
1.17122e-06
1.15745e-06
1.15864e-06
1.15913e-06
1.16011e-06
1.16061e-06
1.16158e-06
1.1621e-06
1.16307e-06
1.1636e-06
1.16456e-06
1.16511e-06
1.16607e-06
1.16662e-06
1.16758e-06
1.16814e-06
1.1691e-06
1.16967e-06
1.17015e-06
1.17092e-06
1.17485e-06
1.16103e-06
1.16223e-06
1.16272e-06
1.1637e-06
1.16421e-06
1.16518e-06
1.1657e-06
1.16667e-06
1.16721e-06
1.16817e-06
1.16872e-06
1.16968e-06
1.17024e-06
1.1712e-06
1.17177e-06
1.17273e-06
1.17331e-06
1.17379e-06
1.17456e-06
1.17869e-06
1.16481e-06
1.16601e-06
1.16651e-06
1.16749e-06
1.168e-06
1.16898e-06
1.1695e-06
1.17047e-06
1.17101e-06
1.17198e-06
1.17253e-06
1.1735e-06
1.17406e-06
1.17502e-06
1.17559e-06
1.17656e-06
1.17714e-06
1.17762e-06
1.17839e-06
1.18282e-06
1.16887e-06
1.17008e-06
1.17058e-06
1.17156e-06
1.17208e-06
1.17306e-06
1.17359e-06
1.17456e-06
1.1751e-06
1.17608e-06
1.17663e-06
1.1776e-06
1.17816e-06
1.17913e-06
1.17971e-06
1.18067e-06
1.18126e-06
1.18174e-06
1.18252e-06
1.1872e-06
1.17318e-06
1.17439e-06
1.17489e-06
1.17588e-06
1.1764e-06
1.17739e-06
1.17792e-06
1.1789e-06
1.17944e-06
1.18042e-06
1.18098e-06
1.18195e-06
1.18252e-06
1.18349e-06
1.18407e-06
1.18504e-06
1.18563e-06
1.18611e-06
1.18689e-06
1.19161e-06
1.17753e-06
1.17874e-06
1.17925e-06
1.18024e-06
1.18076e-06
1.18175e-06
1.18229e-06
1.18327e-06
1.18382e-06
1.1848e-06
1.18536e-06
1.18634e-06
1.18691e-06
1.18789e-06
1.18847e-06
1.18944e-06
1.19003e-06
1.19052e-06
1.19131e-06
1.19566e-06
1.18152e-06
1.18274e-06
1.18325e-06
1.18425e-06
1.18477e-06
1.18576e-06
1.1863e-06
1.18729e-06
1.18784e-06
1.18882e-06
1.18939e-06
1.19037e-06
1.19094e-06
1.19192e-06
1.19251e-06
1.19349e-06
1.19408e-06
1.19457e-06
1.19536e-06
1.19882e-06
1.1849e-06
1.18608e-06
1.18657e-06
1.18754e-06
1.18805e-06
1.18902e-06
1.18955e-06
1.19051e-06
1.19106e-06
1.19202e-06
1.19258e-06
1.19354e-06
1.19412e-06
1.19509e-06
1.19568e-06
1.19664e-06
1.19725e-06
1.19773e-06
1.19852e-06
1.20028e-06
1.20027e-06
1.20027e-06
1.20027e-06
1.20027e-06
1.20027e-06
1.20027e-06
1.20027e-06
1.20027e-06
1.20027e-06
1.20027e-06
1.20027e-06
1.20027e-06
1.20027e-06
1.20027e-06
1.20027e-06
1.20027e-06
1.20027e-06
1.20027e-06
1.20027e-06
)
;

boundaryField
{
    movingWall
    {
        type            zeroGradient;
    }
    fixedWalls
    {
        type            zeroGradient;
    }
    frontAndBack
    {
        type            empty;
    }
}


// ************************************************************************* //
