/*--------------------------------*- C++ -*----------------------------------*\
| =========                 |                                                 |
| \\      /  F ield         | OpenFOAM: The Open Source CFD Toolbox           |
|  \\    /   O peration     | Version:  2506                                  |
|   \\  /    A nd           | Website:  www.openfoam.com                      |
|    \\/     M anipulation  |                                                 |
\*---------------------------------------------------------------------------*/
FoamFile
{
    version     2.0;
    format      ascii;
    arch        "LSB;label=32;scalar=64";
    class       volScalarField;
    location    "8.75";
    object      flowTypeField;
}
// * * * * * * * * * * * * * * * * * * * * * * * * * * * * * * * * * * * * * //

dimensions      [0 0 0 0 0 0 0];

internalField   nonuniform List<scalar> 
400
(
0.402767
0.0462762
0.0278665
-0.0179995
0.045474
0.000375082
0.510401
0.905438
0.295948
0.270703
0.227279
0.950213
-0.23397
-0.0599212
0.911916
0.463207
0.428386
0.0411906
0.780464
0.378361
0.98861
0.809078
0.754619
0.953501
0.893264
0.564933
-0.240226
-0.091175
0.133976
5.60074e-05
0.677768
-0.134719
0.578414
0.262736
0.227196
0.178954
0.076044
0.233413
0.917826
0.125344
0.449807
0.0892484
-0.00138292
0.111176
-0.433085
0.230009
-0.162973
-0.0437775
0.0208762
-0.0904782
0.344206
0.3112
-0.215627
-0.244849
0.200638
0.631168
0.78083
0.0222392
0.687184
0.701571
0.652926
0.131742
0.0890678
0.202561
0.00445124
0.466675
0.884699
0.782268
0.187382
0.638325
0.549104
0.0617174
-0.575715
-0.433632
-0.109301
0.655999
-0.144032
0.593272
0.119152
0.679875
0.981388
0.901634
0.925836
0.719458
0.14616
-0.135285
-0.14254
-0.187684
-0.0391213
-0.188868
-0.415816
0.00118373
-0.540233
0.709786
-0.00949538
0.855532
0.132002
0.854054
0.209009
0.0933081
0.513732
0.0866172
0.0257795
-0.127072
0.396966
0.828077
0.141343
0.893715
0.440265
-0.233627
0.257209
0.547932
0.896826
0.372737
0.628813
0.540192
0.36123
0.935859
0.882954
0.188545
0.169378
0.0509614
-0.0406912
-0.0754225
0.930812
-0.613111
-0.00752406
0.195004
0.621403
-0.0781266
0.277237
0.25834
-0.0140186
0.835382
-0.314607
-0.144226
0.658602
0.68083
0.521459
0.0378772
0.862194
0.303264
0.241983
0.253392
0.53905
0.0152749
-0.19762
-0.296981
0.624524
0.00243966
0.42848
-0.0784997
0.690863
0.380224
0.942075
0.233102
0.467825
0.707015
0.0555427
0.0019294
0.611929
0.141225
0.0635701
0.323104
0.444474
0.171546
0.179918
0.0573224
0.928461
-0.205125
0.565446
0.298726
0.0702426
-0.408127
0.070323
-0.175542
0.0390636
0.182047
0.104485
0.0311319
0.0597742
0.0290226
-0.0839085
0.117708
-0.585587
0.438377
-0.105359
0.30374
0.0449952
-0.476413
-0.139781
0.871607
0.826664
-0.107365
0.0586797
0.917623
-0.0919016
0.62428
0.558841
0.0136761
0.0169747
0.0116278
-0.0760891
0.0669096
-0.59708
0.321565
0.572171
0.842829
0.784996
0.198904
0.129623
0.963472
0.28832
0.214034
0.0827092
0.0850473
0.0274665
0.0585342
0.0223494
0.611863
0.455321
0.0748606
-0.0312382
0.185463
0.0577005
-0.221891
0.603839
0.885372
0.170013
-0.0834626
0.56926
0.311066
-0.363671
-0.301427
0.116731
0.78451
0.244534
0.187958
0.875319
-0.0181724
0.936469
0.964993
0.974162
0.938622
0.893214
0.760455
0.464293
0.57994
0.218485
-0.187971
-0.332334
0.00738661
0.757859
0.25166
0.303031
0.0102594
-0.0353043
-0.304591
-0.0954228
0.953051
0.4694
0.0609331
-0.0100121
0.00802705
0.092246
0.702377
-0.212996
-0.34062
0.0180192
0.437412
0.0578905
0.0636864
0.229275
0.246944
-0.862341
-0.329714
0.140667
0.269804
0.11489
0.304828
0.0939637
0.0434904
-0.0978721
0.148691
-0.354581
0.477302
0.286619
-0.0152628
-0.165498
0.841358
0.416617
0.260481
0.914877
0.213083
-0.140063
0.132609
0.0544753
0.792524
0.605183
0.110096
0.670718
0.155684
0.0846654
0.263827
-0.0526744
0.375436
0.314295
-0.290252
-0.0906563
0.263037
0.060063
0.567205
0.389378
0.107751
-0.153151
-0.126688
0.0991573
0.659399
0.0103513
0.144621
0.880265
0.450627
0.359428
0.513749
-0.0546984
0.0756096
0.275632
0.040269
0.331667
0.00635141
-0.0584406
0.939791
0.370025
0.210192
-0.0600036
-0.166617
0.0415335
-0.159401
0.524603
0.83218
0.484802
0.102462
0.0383074
0.053428
-0.221035
0.390978
0.556043
0.34565
0.0853429
-0.124738
0.103267
-0.0266387
-0.0698958
-0.0276197
0.15052
0.183465
0.113297
0.122474
0.0714937
0.0545594
0.834259
0.313644
0.277426
0.322406
-0.143335
0.0837676
0.0100665
-0.316186
-0.102648
-0.150929
0.109869
0.176661
0.124217
-0.126417
0.0636175
0.616954
0.92358
0.48226
0.00560181
0.761477
0.601097
0.100677
0.155118
-0.0178059
0.767572
0.345045
0.182922
0.241876
0.37105
0.15491
0.821437
0.790528
0.640783
0.598055
0.642053
-0.00824241
-0.0114714
0.29054
0.177593
0.173255
)
;

boundaryField
{
    movingWall
    {
        type            calculated;
        value           nonuniform List<scalar> 
20
(
0.631503
0.109018
0.437746
-0.204377
0.261532
-0.0832852
0.0247271
0.0472646
0.032226
-0.0204229
0.00520933
-0.00238085
0.0127675
0.0727677
0.0519334
-0.00885095
0.326906
0.270316
0.43235
0.05129
)
;
    }
    fixedWalls
    {
        type            calculated;
        value           nonuniform List<scalar> 
60
(
0.048343
0.798592
0.0799693
0.132893
0.877756
0.0856325
0.0316875
0.320265
0.130947
-0.00379766
-0.0162119
0.0606924
0.966377
0.0559602
0.0192488
0.150583
0.458966
0.095185
0.331133
0.114068
0.0221575
0.42049
0.989576
0.676284
-0.339033
0.43686
0.188497
0.0128164
0.354326
0.00335553
0.944788
-0.289301
0.602213
0.275248
0.285167
-0.000582417
0.89023
0.45649
0.106818
0.423178
0.652033
0.141062
0.306914
-0.117442
0.660291
-0.187912
0.0884906
0.0798028
0.286655
-0.0770261
-0.237148
0.0476264
0.148773
0.24052
0.942287
0.566909
0.257349
0.0238946
0.452513
0.78934
)
;
    }
    frontAndBack
    {
        type            empty;
    }
}


// ************************************************************************* //
