/*--------------------------------*- C++ -*----------------------------------*\
| =========                 |                                                 |
| \\      /  F ield         | OpenFOAM: The Open Source CFD Toolbox           |
|  \\    /   O peration     | Version:  2506                                  |
|   \\  /    A nd           | Website:  www.openfoam.com                      |
|    \\/     M anipulation  |                                                 |
\*---------------------------------------------------------------------------*/
FoamFile
{
    version     2.0;
    format      ascii;
    arch        "LSB;label=32;scalar=64";
    class       surfaceScalarField;
    location    "8.75";
    object      fluxField;
}
// * * * * * * * * * * * * * * * * * * * * * * * * * * * * * * * * * * * * * //

dimensions      [0 3 -1 0 0 0 0];

oriented        oriented;

internalField   nonuniform List<scalar> 
760
(
-5e-05
3.56167e-18
-5e-05
-7.59686e-19
-5e-05
1.87095e-19
-5e-05
-3.39272e-20
-5e-05
1.36202e-20
-5e-05
2.33842e-22
-5e-05
3.95107e-21
-5e-05
7.20784e-21
-5e-05
6.46798e-21
-5e-05
1.77734e-21
-5e-05
-4.40073e-21
-5e-05
-4.50604e-21
-5e-05
-1.38394e-21
-5e-05
4.11289e-21
-5e-05
6.89831e-21
-5e-05
5.78744e-21
-5e-05
1.76793e-21
-5e-05
-2.1986e-21
-5e-05
-4.151e-21
8.34406e-22
-5e-05
-2.45519e-18
-5e-05
5.17914e-19
-5e-05
-1.20094e-19
-5e-05
2.73589e-20
-5e-05
-2.14531e-21
-5e-05
3.55742e-21
-5e-05
4.31533e-21
-5e-05
4.38266e-21
-5e-05
4.5837e-21
-5e-05
1.70001e-21
-5e-05
-5.14028e-21
-5e-05
-1.09909e-21
-5e-05
1.50541e-21
-5e-05
3.8541e-22
-5e-05
-9.30459e-22
-5e-05
1.70347e-21
-5e-05
2.57951e-21
-5e-05
-6.85842e-22
-5e-05
-8.80906e-21
-3.51099e-21
-5e-05
-8.80129e-19
-5e-05
1.6452e-19
-5e-05
-4.62723e-20
-5e-05
6.43731e-21
-5e-05
-8.84345e-22
-5e-05
2.46818e-21
-5e-05
2.14226e-21
-5e-05
1.70967e-21
-5e-05
3.0209e-21
-5e-05
2.98975e-21
-5e-05
2.55412e-21
-5e-05
5.97608e-21
-5e-05
5.32057e-21
-5e-05
-2.31694e-21
-5e-05
-7.88216e-21
-5e-05
-5.62088e-21
-5e-05
2.21534e-21
-5e-05
9.99265e-22
-5e-05
-6.3801e-21
-6.22586e-21
-5e-05
1.77049e-18
-5e-05
-3.94524e-19
-5e-05
8.17667e-20
-5e-05
-2.76765e-20
-5e-05
-2.91384e-21
-5e-05
-6.20152e-21
-5e-05
-5.70899e-21
-5e-05
1.6601e-22
-5e-05
2.09698e-21
-5e-05
2.21987e-21
-5e-05
9.31642e-21
-5e-05
7.76084e-21
-5e-05
4.0596e-21
-5e-05
-2.40858e-21
-5e-05
-5.06078e-21
-5e-05
-5.02714e-21
-5e-05
8.71179e-22
-5e-05
1.18484e-21
-5e-05
-1.68907e-22
-3.73577e-21
-5e-05
-2.01072e-18
-5e-05
4.20631e-19
-5e-05
-1.03376e-19
-5e-05
1.51522e-20
-5e-05
-1.18835e-20
-5e-05
-6.49194e-21
-5e-05
-8.36752e-21
-5e-05
-3.99247e-21
-5e-05
-1.79954e-21
-5e-05
2.29863e-21
-5e-05
1.08979e-20
-5e-05
7.9851e-21
-5e-05
1.63736e-21
-5e-05
-3.74626e-21
-5e-05
-4.11811e-21
-5e-05
-1.74402e-21
-5e-05
8.3852e-22
-5e-05
7.18941e-22
-5e-05
2.04082e-21
-9.40394e-22
-5e-05
8.87903e-19
-5e-05
-1.87424e-19
-5e-05
4.84269e-20
-5e-05
-2.68253e-21
-5e-05
5.83833e-21
-5e-05
-5.43363e-21
-5e-05
-9.75779e-21
-5e-05
-8.91526e-21
-5e-05
-6.18196e-21
-5e-05
-2.22542e-21
-5e-05
-1.91831e-21
-5e-05
-1.06199e-21
-5e-05
-1.11579e-21
-5e-05
-3.48387e-21
-5e-05
-2.89991e-21
-5e-05
3.22202e-21
-5e-05
4.62426e-21
-5e-05
1.38732e-21
-5e-05
8.93005e-22
2.95931e-22
-5e-05
1.71904e-18
-5e-05
-3.44155e-19
-5e-05
8.48951e-20
-5e-05
-1.22428e-20
-5e-05
3.58252e-21
-5e-05
-8.00485e-21
-5e-05
-8.58079e-21
-5e-05
-2.59159e-21
-5e-05
6.04356e-22
-5e-05
-4.64716e-21
-5e-05
-1.32816e-20
-5e-05
-7.12335e-21
-5e-05
-6.51076e-22
-5e-05
-5.21789e-23
-5e-05
-1.02666e-21
-5e-05
3.82283e-21
-5e-05
2.34988e-21
-5e-05
-1.78859e-22
-5e-05
-7.83785e-22
2.64016e-22
-5e-05
-2.51446e-18
-5e-05
5.39403e-19
-5e-05
-1.28376e-19
-5e-05
2.05369e-20
-5e-05
-1.63667e-20
-5e-05
-7.08607e-21
-5e-05
-3.54256e-21
-5e-05
7.03458e-22
-5e-05
2.34578e-21
-5e-05
-3.89642e-21
-5e-05
-9.90212e-21
-5e-05
-5.60821e-21
-5e-05
-2.44044e-21
-5e-05
1.61759e-21
-5e-05
2.01384e-21
-5e-05
1.41694e-21
-5e-05
-3.5339e-21
-5e-05
-2.61298e-21
-5e-05
-1.20219e-21
2.10046e-22
-5e-05
1.1531e-18
-5e-05
-2.56847e-19
-5e-05
6.06114e-20
-5e-05
-1.56253e-20
-5e-05
9.27206e-22
-5e-05
-1.79664e-21
-5e-05
-2.18564e-22
-5e-05
-6.04347e-21
-5e-05
-6.86835e-21
-5e-05
-5.1862e-21
-5e-05
-1.80663e-21
-5e-05
-1.06795e-21
-5e-05
-8.78814e-22
-5e-05
1.01869e-21
-5e-05
1.79637e-21
-5e-05
3.52016e-22
-5e-05
-4.29136e-21
-5e-05
-4.07765e-21
-5e-05
-2.71264e-22
5.36473e-22
-5e-05
1.67718e-19
-5e-05
-2.73861e-20
-5e-05
1.10977e-20
-5e-05
8.18076e-22
-5e-05
3.73779e-21
-5e-05
1.5444e-21
-5e-05
-7.75251e-22
-5e-05
-6.46071e-21
-5e-05
-7.4806e-21
-5e-05
-4.05472e-21
-5e-05
5.56875e-22
-5e-05
1.78226e-21
-5e-05
1.49477e-21
-5e-05
-1.4091e-22
-5e-05
-2.02644e-21
-5e-05
-4.88921e-21
-5e-05
-5.32384e-21
-5e-05
-3.753e-21
-5e-05
2.2967e-21
4.43058e-22
-5e-05
-8.39431e-19
-5e-05
1.86672e-19
-5e-05
-3.65734e-20
-5e-05
1.49214e-20
-5e-05
1.50474e-21
-5e-05
3.09526e-21
-5e-05
-3.03409e-21
-5e-05
-3.05228e-21
-5e-05
-3.37235e-21
-5e-05
-3.38549e-21
-5e-05
-3.45896e-21
-5e-05
-4.75176e-21
-5e-05
-5.01705e-21
-5e-05
1.64863e-22
-5e-05
2.89196e-21
-5e-05
-4.21663e-21
-5e-05
-4.24572e-21
-5e-05
-1.10618e-22
-5e-05
2.10347e-21
-6.39023e-22
-5e-05
1.56155e-18
-5e-05
-3.32196e-19
-5e-05
8.21087e-20
-5e-05
-8.92799e-21
-5e-05
9.53351e-21
-5e-05
4.12037e-21
-5e-05
-1.92194e-21
-5e-05
-3.13411e-21
-5e-05
-6.65386e-21
-5e-05
-6.518e-21
-5e-05
-1.67577e-21
-5e-05
-2.39164e-21
-5e-05
-3.63242e-21
-5e-05
1.57633e-21
-5e-05
3.42698e-21
-5e-05
2.96985e-22
-5e-05
1.27421e-21
-5e-05
9.47164e-23
-5e-05
-4.13588e-21
-3.60496e-21
-5e-05
-2.00006e-18
-5e-05
4.26306e-19
-5e-05
-1.02056e-19
-5e-05
2.35718e-20
-5e-05
2.68297e-21
-5e-05
7.27073e-21
-5e-05
3.27715e-21
-5e-05
-2.70312e-21
-5e-05
-8.86155e-21
-5e-05
-7.79883e-21
-5e-05
-1.86861e-21
-5e-05
-8.07488e-22
-5e-05
-3.38483e-21
-5e-05
-5.54799e-21
-5e-05
-5.47983e-21
-5e-05
7.14179e-22
-5e-05
5.76119e-21
-5e-05
9.09248e-22
-5e-05
-7.63992e-21
-5.52011e-21
-5e-05
1.04584e-18
-5e-05
-2.2644e-19
-5e-05
4.945e-20
-5e-05
-1.01175e-20
-5e-05
9.94687e-21
-5e-05
6.27249e-21
-5e-05
3.07113e-21
-5e-05
-2.38918e-21
-5e-05
-2.38354e-21
-5e-05
-9.7351e-22
-5e-05
-2.54082e-21
-5e-05
-5.01298e-21
-5e-05
-6.60939e-21
-5e-05
-9.30679e-21
-5e-05
-4.88916e-21
-5e-05
1.96468e-21
-5e-05
5.34867e-21
-5e-05
3.57009e-21
-5e-05
-5.1131e-21
-3.34885e-21
-5e-05
1.15789e-18
-5e-05
-2.47059e-19
-5e-05
5.02777e-20
-5e-05
-1.22688e-20
-5e-05
2.4208e-21
-5e-05
-2.65007e-21
-5e-05
-5.66231e-21
-5e-05
-3.87855e-21
-5e-05
1.83139e-21
-5e-05
1.61581e-21
-5e-05
-2.11702e-21
-5e-05
-3.5921e-21
-5e-05
-1.99314e-21
-5e-05
-1.61974e-21
-5e-05
4.62385e-22
-5e-05
-2.36065e-22
-5e-05
-2.25855e-21
-5e-05
-2.486e-21
-5e-05
-3.58593e-21
-5.97796e-22
-5e-05
-2.64278e-18
-5e-05
5.55289e-19
-5e-05
-1.37182e-19
-5e-05
2.28604e-20
-5e-05
-1.07423e-20
-5e-05
-5.50084e-21
-5e-05
-7.28001e-21
-5e-05
-4.27422e-21
-5e-05
-5.01799e-22
-5e-05
-1.66635e-21
-5e-05
-5.4225e-21
-5e-05
-5.1426e-21
-5e-05
-2.31124e-21
-5e-05
3.99795e-23
-5e-05
6.18261e-22
-5e-05
-3.92532e-21
-5e-05
-8.69684e-21
-5e-05
-9.75632e-21
-5e-05
-4.21514e-21
6.60597e-22
-5e-05
1.96124e-18
-5e-05
-4.31656e-19
-5e-05
9.54491e-20
-5e-05
-3.04024e-20
-5e-05
-3.72633e-21
-5e-05
-6.52148e-21
-5e-05
-3.31322e-21
-5e-05
-4.80268e-21
-5e-05
-4.94827e-21
-5e-05
-3.42734e-21
-5e-05
-4.84443e-21
-5e-05
-5.96673e-21
-5e-05
-3.98942e-21
-5e-05
-5.18701e-22
-5e-05
5.43639e-22
-5e-05
-2.8731e-21
-5e-05
-5.51779e-21
-5e-05
-7.40336e-21
-5e-05
-3.07435e-21
2.21079e-21
-5e-05
1.5637e-18
-5e-05
-3.33199e-19
-5e-05
7.06722e-20
-5e-05
-2.23947e-20
-5e-05
-5.22563e-21
-5e-05
-3.44118e-21
-5e-05
1.23218e-21
-5e-05
-1.53365e-21
-5e-05
-5.57238e-21
-5e-05
-4.78864e-21
-5e-05
-4.82206e-21
-5e-05
-4.68033e-21
-5e-05
-1.98935e-21
-5e-05
-6.98058e-24
-5e-05
-2.35442e-21
-5e-05
-2.29518e-21
-5e-05
-1.41549e-21
-5e-05
-3.61116e-21
-5e-05
-1.63661e-21
2.25537e-21
-5e-05
-3.00353e-18
-5e-05
6.31065e-19
-5e-05
-1.5477e-19
-5e-05
2.9476e-20
-5e-05
-1.11213e-20
-5e-05
-1.54148e-23
-5e-05
1.6758e-21
-5e-05
-1.1772e-21
-5e-05
-5.96398e-21
-5e-05
-4.88451e-21
-5e-05
-4.61865e-21
-5e-05
-3.73787e-21
-5e-05
-1.75139e-21
-5e-05
-2.4457e-21
-5e-05
-4.52952e-21
-5e-05
-1.91756e-21
-5e-05
-1.9986e-21
-5e-05
-4.17498e-21
-5e-05
-1.90456e-21
7.80043e-22
-5e-05
-5e-05
-5e-05
-5e-05
-5e-05
-5e-05
-5e-05
-5e-05
-5e-05
-5e-05
-5e-05
-5e-05
-5e-05
-5e-05
-5e-05
-5e-05
-5e-05
-5e-05
-5e-05
)
;

boundaryField
{
    movingWall
    {
        type            calculated;
        value           uniform -0;
    }
    fixedWalls
    {
        type            calculated;
        value           nonuniform List<scalar> 
60
(
5e-05
5e-05
5e-05
5e-05
5e-05
5e-05
5e-05
5e-05
5e-05
5e-05
5e-05
5e-05
5e-05
5e-05
5e-05
5e-05
5e-05
5e-05
5e-05
5e-05
-5e-05
-5e-05
-5e-05
-5e-05
-5e-05
-5e-05
-5e-05
-5e-05
-5e-05
-5e-05
-5e-05
-5e-05
-5e-05
-5e-05
-5e-05
-5e-05
-5e-05
-5e-05
-5e-05
-5e-05
0
0
0
0
0
0
0
0
0
0
0
0
0
0
0
0
0
0
0
0
)
;
    }
    frontAndBack
    {
        type            empty;
    }
}


// ************************************************************************* //
