/*--------------------------------*- C++ -*----------------------------------*\
| =========                 |                                                 |
| \\      /  F ield         | OpenFOAM: The Open Source CFD Toolbox           |
|  \\    /   O peration     | Version:  2506                                  |
|   \\  /    A nd           | Website:  www.openfoam.com                      |
|    \\/     M anipulation  |                                                 |
\*---------------------------------------------------------------------------*/
FoamFile
{
    version     2.0;
    format      ascii;
    arch        "LSB;label=32;scalar=64";
    class       volVectorField;
    location    "8.75";
    object      gradPhi;
}
// * * * * * * * * * * * * * * * * * * * * * * * * * * * * * * * * * * * * * //

dimensions      [0 2 -1 0 0 0 0];

internalField   nonuniform List<vector> 
400
(
(-0.02 7.06248e-17 0)
(1.20768e-16 -1.20883e-16 0)
(-3.63959e-17 3.72071e-17 0)
(4.96308e-18 -4.57927e-18 0)
(-1.65436e-18 2.21985e-18 0)
(0 1.80577e-19 0)
(-1.65436e-18 5.187e-19 0)
(-1.65436e-18 1.28453e-18 0)
(-1.65436e-18 1.34952e-18 0)
(0 3.87867e-19 0)
(0 -4.36393e-19 0)
(1.65436e-18 -7.43546e-19 0)
(0 -5.67625e-19 0)
(-1.65436e-18 1.25581e-18 0)
(0 2.07126e-18 0)
(-1.65436e-18 9.78955e-19 0)
(0 6.75869e-19 0)
(0 -1.16622e-18 0)
(1.65436e-18 -1.28495e-18 0)
(0 9.20983e-19 0)
(-0.02 -1.35822e-16 0)
(-1.95215e-16 1.96542e-16 0)
(5.9557e-17 -6.04981e-17 0)
(-8.27181e-18 8.24712e-18 0)
(3.30872e-18 -1.73753e-18 0)
(-1.65436e-18 1.08499e-19 0)
(1.65436e-18 1.2494e-19 0)
(0 -3.69193e-19 0)
(0 -5.541e-19 0)
(0 -6.45691e-20 0)
(1.65436e-18 -1.21132e-18 0)
(1.65436e-18 6.19196e-20 0)
(-1.65436e-18 9.08899e-19 0)
(1.65436e-18 -1.91345e-18 0)
(1.65436e-18 -2.98554e-18 0)
(1.65436e-18 6.24267e-20 0)
(0 -3.11472e-19 0)
(-1.65436e-18 1.82231e-18 0)
(0 -4.3299e-19 0)
(1.65436e-18 -1.90493e-18 0)
(-0.02 2.81545e-17 0)
(4.1359e-17 -4.25386e-17 0)
(-1.32349e-17 1.31606e-17 0)
(3.30872e-18 -2.58721e-18 0)
(1.65436e-18 -1.27317e-18 0)
(0 2.1064e-19 0)
(-1.65436e-18 8.998e-19 0)
(0 -3.28856e-20 0)
(0 -6.83708e-20 0)
(-1.65436e-18 5.99829e-19 0)
(-1.65436e-18 2.4121e-18 0)
(-1.65436e-18 2.59932e-18 0)
(0 1.11545e-18 0)
(-1.65436e-18 9.45768e-19 0)
(0 -4.48467e-19 0)
(1.65436e-18 -2.8151e-18 0)
(0 -4.51336e-20 0)
(1.65436e-18 -6.16442e-19 0)
(-1.65436e-18 5.85046e-19 0)
(1.65436e-18 -1.05384e-18 0)
(-0.02 7.8053e-17 0)
(9.26442e-17 -9.14805e-17 0)
(-2.48154e-17 2.66434e-17 0)
(4.96308e-18 -5.4911e-18 0)
(0 5.44498e-20 0)
(1.65436e-18 -1.4921e-18 0)
(3.30872e-18 -3.81215e-18 0)
(0 -1.34706e-18 0)
(0 -1.92117e-19 0)
(1.65436e-18 -5.23524e-19 0)
(-1.65436e-18 1.40727e-18 0)
(0 -7.30592e-19 0)
(0 -9.35976e-19 0)
(3.30872e-18 -1.41429e-18 0)
(-1.65436e-18 1.05966e-19 0)
(0 4.15911e-19 0)
(0 1.43172e-20 0)
(0 3.64241e-19 0)
(-1.65436e-18 1.27932e-18 0)
(-1.65436e-18 1.86603e-18 0)
(-0.02 -9.38594e-17 0)
(-1.24077e-16 1.23912e-16 0)
(3.63959e-17 -3.66541e-17 0)
(-6.61744e-18 6.22447e-18 0)
(1.65436e-18 -1.8152e-18 0)
(0 -3.31692e-20 0)
(-1.65436e-18 1.23237e-18 0)
(0 -7.46654e-20 0)
(1.65436e-18 -8.36442e-19 0)
(0 -6.33972e-19 0)
(0 -5.43921e-19 0)
(0 5.1451e-19 0)
(-1.65436e-18 2.53962e-19 0)
(0 8.73182e-19 0)
(-1.65436e-18 9.1072e-19 0)
(-1.65436e-18 1.93655e-18 0)
(0 -1.90663e-19 0)
(1.65436e-18 -7.20305e-19 0)
(0 8.22295e-20 0)
(0 -3.01074e-19 0)
(-0.02 8.67508e-17 0)
(1.07533e-16 -1.10067e-16 0)
(-2.81241e-17 2.93756e-17 0)
(3.30872e-18 -2.36269e-18 0)
(-4.96308e-18 4.31132e-18 0)
(1.65436e-18 -4.71119e-19 0)
(0 -1.03365e-18 0)
(1.65436e-18 -1.69867e-18 0)
(1.65436e-18 -1.82005e-18 0)
(0 -1.45839e-19 0)
(1.65436e-18 -1.51528e-18 0)
(1.65436e-18 -1.76041e-18 0)
(1.65436e-18 -1.66279e-18 0)
(1.65436e-18 -6.32444e-19 0)
(0 -1.7669e-19 0)
(1.65436e-18 -6.66754e-19 0)
(-1.65436e-18 8.05922e-19 0)
(-3.30872e-18 1.166e-18 0)
(1.65436e-18 1.01105e-19 0)
(-1.65436e-18 8.73039e-19 0)
(-0.02 -2.25566e-17 0)
(-1.48893e-17 1.3982e-17 0)
(-6.61744e-18 7.22773e-18 0)
(0 2.15563e-19 0)
(0 -9.27753e-19 0)
(0 2.75218e-19 0)
(0 1.94154e-19 0)
(-1.65436e-18 2.31714e-18 0)
(-3.30872e-18 3.17253e-18 0)
(0 9.32981e-20 0)
(3.30872e-18 -3.19252e-18 0)
(1.65436e-18 -2.11721e-18 0)
(0 1.40034e-18 0)
(-1.65436e-18 1.04733e-18 0)
(0 -5.32864e-19 0)
(-1.65436e-18 1.09494e-18 0)
(0 -3.89407e-20 0)
(0 -1.21898e-18 0)
(1.65436e-18 -5.35408e-19 0)
(0 -4.70802e-19 0)
(-0.02 -4.95426e-17 0)
(-9.09899e-17 9.12336e-17 0)
(3.97047e-17 -4.13179e-17 0)
(-1.65436e-18 1.85071e-18 0)
(4.96308e-18 -4.61641e-18 0)
(1.65436e-18 -8.31811e-19 0)
(-1.65436e-18 8.33585e-19 0)
(0 -5.60396e-19 0)
(1.65436e-18 -6.16579e-19 0)
(0 -5.81559e-19 0)
(-3.30872e-18 1.26308e-18 0)
(-1.65436e-18 1.9858e-18 0)
(1.65436e-18 -1.35966e-18 0)
(0 -1.18639e-19 0)
(-3.30872e-18 2.3087e-18 0)
(0 -7.84874e-19 0)
(3.30872e-18 -2.35217e-18 0)
(0 -9.8115e-20 0)
(0 -2.28567e-19 0)
(0 3.26072e-20 0)
(-0.02 4.89485e-17 0)
(8.43724e-17 -8.46182e-17 0)
(-3.63959e-17 3.65917e-17 0)
(3.30872e-18 -3.15676e-18 0)
(-4.96308e-18 4.33076e-18 0)
(-1.65436e-18 2.23825e-18 0)
(0 1.22566e-18 0)
(0 -6.25012e-19 0)
(3.30872e-18 -2.2897e-18 0)
(0 -4.50079e-19 0)
(-1.65436e-18 1.40418e-18 0)
(1.65436e-18 -9.16215e-19 0)
(-1.65436e-18 1.819e-19 0)
(1.65436e-18 -3.22415e-20 0)
(1.65436e-18 -1.21088e-18 0)
(0 5.26529e-19 0)
(-1.65436e-18 9.16404e-19 0)
(1.65436e-18 -2.38948e-19 0)
(-1.65436e-18 3.2996e-19 0)
(0 3.51677e-19 0)
(-0.02 -1.4569e-17 0)
(-2.15067e-17 2.25693e-17 0)
(8.27181e-18 -9.44458e-18 0)
(0 1.54912e-18 0)
(0 -5.77269e-19 0)
(0 -3.62795e-19 0)
(1.65436e-18 2.34466e-19 0)
(0 2.621e-19 0)
(-1.65436e-18 6.15868e-19 0)
(0 4.21528e-19 0)
(0 7.98291e-19 0)
(-1.65436e-18 2.3675e-18 0)
(-3.30872e-18 1.9699e-18 0)
(0 8.31676e-19 0)
(0 -4.59389e-19 0)
(3.30872e-18 -2.47016e-18 0)
(0 -4.14711e-19 0)
(1.65436e-18 -3.94035e-19 0)
(-1.65436e-18 7.5507e-19 0)
(0 -4.96126e-19 0)
(-0.02 3.77489e-18 0)
(-6.61744e-18 6.16659e-18 0)
(8.27181e-18 -8.91737e-18 0)
(-1.65436e-18 1.70125e-18 0)
(0 1.40386e-18 0)
(-1.65436e-18 6.85318e-19 0)
(1.65436e-18 -1.77253e-18 0)
(0 -2.12254e-19 0)
(0 4.39039e-19 0)
(0 5.69952e-19 0)
(0 -1.39459e-18 0)
(3.30872e-18 -2.94198e-18 0)
(3.30872e-18 -2.87564e-18 0)
(0 -1.51611e-18 0)
(0 1.02831e-18 0)
(-1.65436e-18 8.25407e-19 0)
(1.65436e-18 -4.23755e-19 0)
(-1.65436e-18 1.10685e-18 0)
(-1.65436e-18 1.38983e-19 0)
(0 5.07744e-19 0)
(-0.02 -4.49072e-18 0)
(2.15067e-17 -2.13148e-17 0)
(-2.15067e-17 2.16481e-17 0)
(0 -3.70687e-19 0)
(0 -6.36405e-19 0)
(0 1.23843e-18 0)
(0 1.20371e-18 0)
(0 6.70738e-19 0)
(-1.65436e-18 3.269e-22 0)
(1.65436e-18 -7.7935e-19 0)
(-1.65436e-18 7.59143e-19 0)
(0 1.35209e-18 0)
(0 6.61886e-19 0)
(-1.65436e-18 9.78674e-19 0)
(0 3.98776e-19 0)
(-1.65436e-18 1.54814e-18 0)
(-3.30872e-18 1.88133e-18 0)
(0 -8.91996e-20 0)
(1.65436e-18 -2.30667e-18 0)
(1.65436e-18 -9.61699e-19 0)
(-0.02 -1.29651e-17 0)
(-5.29396e-17 5.36158e-17 0)
(3.30872e-17 -3.40558e-17 0)
(0 3.20127e-19 0)
(0 6.62764e-19 0)
(1.65436e-18 -1.40059e-18 0)
(-1.65436e-18 6.97292e-19 0)
(0 -9.97198e-20 0)
(1.65436e-18 -1.67886e-18 0)
(1.65436e-18 -1.24279e-18 0)
(0 6.9775e-21 0)
(0 5.60926e-19 0)
(-1.65436e-18 5.67836e-19 0)
(1.65436e-18 -9.13094e-19 0)
(3.30872e-18 -2.42506e-18 0)
(1.65436e-18 -1.00905e-18 0)
(-1.65436e-18 8.43025e-19 0)
(-1.65436e-18 3.10467e-19 0)
(1.65436e-18 1.06259e-19 0)
(0 -1.14649e-18 0)
(-0.02 2.62113e-17 0)
(5.79026e-17 -5.88259e-17 0)
(-2.64698e-17 2.81067e-17 0)
(1.65436e-18 -2.08756e-18 0)
(0 1.16205e-18 0)
(-3.30872e-18 2.12913e-18 0)
(0 5.3758e-19 0)
(-1.65436e-18 -8.99128e-20 0)
(-1.65436e-18 2.53785e-18 0)
(-3.30872e-18 2.70462e-18 0)
(0 -4.76405e-19 0)
(1.65436e-18 -1.52497e-18 0)
(1.65436e-18 -1.17667e-18 0)
(1.65436e-18 -1.94436e-18 0)
(0 2.04567e-19 0)
(0 6.49331e-19 0)
(0 -6.18828e-19 0)
(0 1.06767e-18 0)
(0 9.17771e-19 0)
(-1.65436e-18 1.18919e-18 0)
(-0.02 2.38123e-17 0)
(1.65436e-17 -1.75722e-17 0)
(0 8.22096e-19 0)
(0 -1.29886e-18 0)
(3.30872e-18 -3.7286e-18 0)
(3.30872e-18 -3.74499e-18 0)
(3.30872e-18 -2.5405e-18 0)
(0 -4.67048e-19 0)
(1.65436e-18 -3.59879e-19 0)
(0 -2.1447e-19 0)
(-1.65436e-18 8.13397e-19 0)
(-1.65436e-18 7.77395e-19 0)
(-1.65436e-18 1.35482e-18 0)
(0 2.42898e-18 0)
(-1.65436e-18 1.52316e-18 0)
(-1.65436e-18 -4.78328e-20 0)
(1.65436e-18 -7.46755e-19 0)
(1.65436e-18 -1.59955e-18 0)
(0 -7.36959e-19 0)
(0 8.70239e-19 0)
(-0.02 -8.88137e-17 0)
(-1.25731e-16 1.23309e-16 0)
(3.80503e-17 -3.68265e-17 0)
(-4.96308e-18 5.03597e-18 0)
(0 7.92906e-19 0)
(-1.65436e-18 4.00855e-19 0)
(0 -2.54833e-19 0)
(0 2.52649e-19 0)
(-1.65436e-18 9.67876e-19 0)
(0 -2.10586e-19 0)
(1.65436e-18 -1.64412e-18 0)
(0 -5.18698e-19 0)
(0 -4.64559e-19 0)
(0 4.48874e-19 0)
(0 -2.15241e-19 0)
(1.65436e-18 -1.18612e-18 0)
(1.65436e-18 -2.1605e-18 0)
(3.30872e-18 -2.43599e-18 0)
(-1.65436e-18 7.67325e-19 0)
(0 -6.26695e-19 0)
(-0.02 1.22378e-16 0)
(1.5551e-16 -1.56112e-16 0)
(-4.46678e-17 4.60307e-17 0)
(9.92617e-18 -8.83795e-18 0)
(0 -1.39446e-18 0)
(1.65436e-18 -8.06582e-19 0)
(-3.30872e-18 1.50017e-18 0)
(0 1.30043e-19 0)
(3.30872e-18 -2.33883e-18 0)
(1.65436e-18 -1.01291e-18 0)
(0 4.68494e-19 0)
(0 -5.76283e-19 0)
(0 -9.40498e-21 0)
(0 -5.97625e-19 0)
(0 2.65315e-19 0)
(0 6.57867e-19 0)
(0 1.11885e-18 0)
(-1.65436e-18 1.11623e-18 0)
(1.65436e-18 -5.55303e-19 0)
(-1.65436e-18 1.12364e-18 0)
(-0.02 -1.83307e-17 0)
(-1.8198e-17 1.79562e-17 0)
(6.61744e-18 -5.0508e-18 0)
(-1.65436e-18 2.07583e-18 0)
(-1.65436e-18 4.16982e-19 0)
(-1.65436e-18 1.31809e-18 0)
(0 1.84089e-19 0)
(0 3.32569e-19 0)
(-1.65436e-18 1.11711e-18 0)
(0 3.18212e-19 0)
(0 2.63635e-19 0)
(-1.65436e-18 8.78381e-19 0)
(1.65436e-18 -4.46001e-20 0)
(0 9.45878e-20 0)
(1.65436e-18 -1.21339e-18 0)
(0 -5.32461e-19 0)
(-1.65436e-18 1.10565e-18 0)
(-1.65436e-18 1.59922e-18 0)
(0 9.14362e-19 0)
(0 -1.54757e-19 0)
(-0.02 -1.17898e-16 0)
(-1.58819e-16 1.59283e-16 0)
(4.46678e-17 -4.51795e-17 0)
(-6.61744e-18 8.08454e-18 0)
(0 -2.39356e-19 0)
(-1.65436e-18 2.73762e-19 0)
(0 6.62478e-19 0)
(0 3.7975e-20 0)
(0 -9.15397e-19 0)
(1.65436e-18 -2.21558e-19 0)
(0 -9.47217e-20 0)
(-1.65436e-18 2.89142e-20 0)
(0 4.86886e-19 0)
(0 -5.04354e-20 0)
(1.65436e-18 1.85908e-19 0)
(0 6.36741e-19 0)
(0 -8.15162e-19 0)
(3.30872e-18 -1.31695e-18 0)
(0 -4.30512e-19 0)
(0 -7.06308e-19 0)
(-0.02 7.014e-17 0)
(1.05879e-16 -1.05157e-16 0)
(-3.14329e-17 3.1131e-17 0)
(4.96308e-18 -4.53261e-18 0)
(-1.65436e-18 1.59121e-18 0)
(0 8.43906e-20 0)
(0 -6.35332e-19 0)
(0 2.89073e-19 0)
(-1.65436e-18 1.4702e-18 0)
(-1.65436e-18 9.859e-19 0)
(-1.65436e-18 9.12701e-19 0)
(0 7.03147e-19 0)
(0 1.95037e-19 0)
(0 2.27811e-19 0)
(0 6.64839e-19 0)
(0 1.79549e-19 0)
(0 7.56718e-19 0)
(-1.65436e-18 1.34174e-18 0)
(0 5.33937e-19 0)
(0 8.75752e-20 0)
)
;

boundaryField
{
    movingWall
    {
        type            extrapolatedCalculated;
        value           nonuniform List<vector> 
20
(
(-0.02 7.014e-17 0)
(1.05879e-16 -1.05157e-16 0)
(-3.14329e-17 3.1131e-17 0)
(4.96308e-18 -4.53261e-18 0)
(-1.65436e-18 1.59121e-18 0)
(0 8.43906e-20 0)
(0 -6.35332e-19 0)
(0 2.89073e-19 0)
(-1.65436e-18 1.4702e-18 0)
(-1.65436e-18 9.859e-19 0)
(-1.65436e-18 9.12701e-19 0)
(0 7.03147e-19 0)
(0 1.95037e-19 0)
(0 2.27811e-19 0)
(0 6.64839e-19 0)
(0 1.79549e-19 0)
(0 7.56718e-19 0)
(-1.65436e-18 1.34174e-18 0)
(0 5.33937e-19 0)
(0 8.75752e-20 0)
)
;
    }
    fixedWalls
    {
        type            extrapolatedCalculated;
        value           nonuniform List<vector> 
60
(
(-0.02 7.06248e-17 0)
(-0.02 -1.35822e-16 0)
(-0.02 2.81545e-17 0)
(-0.02 7.8053e-17 0)
(-0.02 -9.38594e-17 0)
(-0.02 8.67508e-17 0)
(-0.02 -2.25566e-17 0)
(-0.02 -4.95426e-17 0)
(-0.02 4.89485e-17 0)
(-0.02 -1.4569e-17 0)
(-0.02 3.77489e-18 0)
(-0.02 -4.49072e-18 0)
(-0.02 -1.29651e-17 0)
(-0.02 2.62113e-17 0)
(-0.02 2.38123e-17 0)
(-0.02 -8.88137e-17 0)
(-0.02 1.22378e-16 0)
(-0.02 -1.83307e-17 0)
(-0.02 -1.17898e-16 0)
(-0.02 7.014e-17 0)
(0 9.20983e-19 0)
(1.65436e-18 -1.90493e-18 0)
(1.65436e-18 -1.05384e-18 0)
(-1.65436e-18 1.86603e-18 0)
(0 -3.01074e-19 0)
(-1.65436e-18 8.73039e-19 0)
(0 -4.70802e-19 0)
(0 3.26072e-20 0)
(0 3.51677e-19 0)
(0 -4.96126e-19 0)
(0 5.07744e-19 0)
(1.65436e-18 -9.61699e-19 0)
(0 -1.14649e-18 0)
(-1.65436e-18 1.18919e-18 0)
(0 8.70239e-19 0)
(0 -6.26695e-19 0)
(-1.65436e-18 1.12364e-18 0)
(0 -1.54757e-19 0)
(0 -7.06308e-19 0)
(0 8.75752e-20 0)
(-0.02 7.06248e-17 0)
(1.20768e-16 -1.20883e-16 0)
(-3.63959e-17 3.72071e-17 0)
(4.96308e-18 -4.57927e-18 0)
(-1.65436e-18 2.21985e-18 0)
(0 1.80577e-19 0)
(-1.65436e-18 5.187e-19 0)
(-1.65436e-18 1.28453e-18 0)
(-1.65436e-18 1.34952e-18 0)
(0 3.87867e-19 0)
(0 -4.36393e-19 0)
(1.65436e-18 -7.43546e-19 0)
(0 -5.67625e-19 0)
(-1.65436e-18 1.25581e-18 0)
(0 2.07126e-18 0)
(-1.65436e-18 9.78955e-19 0)
(0 6.75869e-19 0)
(0 -1.16622e-18 0)
(1.65436e-18 -1.28495e-18 0)
(0 9.20983e-19 0)
)
;
    }
    frontAndBack
    {
        type            empty;
    }
}


// ************************************************************************* //
