/*--------------------------------*- C++ -*----------------------------------*\
| =========                 |                                                 |
| \\      /  F ield         | OpenFOAM: The Open Source CFD Toolbox           |
|  \\    /   O peration     | Version:  2506                                  |
|   \\  /    A nd           | Website:  www.openfoam.com                      |
|    \\/     M anipulation  |                                                 |
\*---------------------------------------------------------------------------*/
FoamFile
{
    version     2.0;
    format      ascii;
    arch        "LSB;label=32;scalar=64";
    class       volTensorField;
    location    "8.75";
    object      gradU;
}
// * * * * * * * * * * * * * * * * * * * * * * * * * * * * * * * * * * * * * //

dimensions      [0 0 -1 0 0 0 0];

internalField   nonuniform List<tensor> 
400
(
(-8.40257e-13 1.02543e-11 0 5.14996e-13 1.42467e-11 0 0 0 0)
(1.38236e-12 -1.2372e-11 0 -1.6263e-13 -3.03874e-12 0 0 0 0)
(-4.06576e-13 2.66561e-12 0 -5.42101e-14 7.48381e-13 0 0 0 0)
(2.71051e-14 -6.31676e-13 0 2.71051e-14 -1.35709e-13 0 0 0 0)
(-8.13152e-14 1.30673e-13 0 -2.71051e-14 5.4481e-14 0 0 0 0)
(0 -3.37864e-14 0 0 9.35368e-16 0 0 0 0)
(2.71051e-14 1.46713e-14 0 0 1.58043e-14 0 0 0 0)
(-5.42101e-14 3.64106e-15 0 0 2.88314e-14 0 0 0 0)
(-2.71051e-14 -9.50946e-15 0 -5.42101e-14 2.58719e-14 0 0 0 0)
(0 -1.45998e-14 0 -5.42101e-14 7.10937e-15 0 0 0 0)
(0 -1.07004e-14 0 -5.42101e-14 -1.76029e-14 0 0 0 0)
(2.71051e-14 -4.86207e-16 0 0 -1.80242e-14 0 0 0 0)
(0 1.33071e-14 0 -5.42101e-14 -5.53576e-15 0 0 0 0)
(-2.71051e-14 1.38786e-14 0 -5.42101e-14 1.64516e-14 0 0 0 0)
(-2.71051e-14 -1.84703e-15 0 0 2.75932e-14 0 0 0 0)
(0 -1.23948e-14 0 0 2.31498e-14 0 0 0 0)
(-5.42101e-14 -1.35053e-14 0 -5.42101e-14 7.07171e-15 0 0 0 0)
(0 -2.94085e-15 0 -8.13152e-14 -8.79442e-15 0 0 0 0)
(5.42101e-14 9.33327e-15 0 0 -1.6604e-14 0 0 0 0)
(0 -1.90788e-15 0 0 3.33762e-15 0 0 0 0)
(1.24683e-12 9.53688e-13 0 7.58942e-13 -2.40675e-11 0 0 0 0)
(-1.92446e-12 -1.12629e-12 0 -2.98156e-13 5.1104e-12 0 0 0 0)
(5.14996e-13 2.37423e-13 0 -2.71051e-14 -1.22876e-12 0 0 0 0)
(0 -6.22249e-14 0 -5.42101e-14 2.45145e-13 0 0 0 0)
(5.42101e-14 5.97155e-15 0 0 -6.30622e-14 0 0 0 0)
(0 -4.89026e-15 0 0 1.32943e-14 0 0 0 0)
(0 1.32247e-14 0 -5.42101e-14 1.45706e-15 0 0 0 0)
(0 6.42657e-15 0 -5.42101e-14 -1.13007e-14 0 0 0 0)
(0 -1.22125e-14 0 0 -7.53711e-15 0 0 0 0)
(0 -2.8875e-14 0 0 -3.09341e-16 0 0 0 0)
(5.42101e-14 -1.44331e-14 0 0 -2.95821e-15 0 0 0 0)
(0 1.25533e-14 0 -8.13152e-14 1.36278e-14 0 0 0 0)
(-5.42101e-14 2.11687e-14 0 0 1.15574e-14 0 0 0 0)
(5.42101e-14 1.92504e-14 0 -2.71051e-14 -1.49099e-14 0 0 0 0)
(8.13152e-14 8.54521e-15 0 -8.13152e-14 -3.13151e-14 0 0 0 0)
(0 -8.12672e-15 0 -5.42101e-14 -1.63359e-14 0 0 0 0)
(-5.42101e-14 -1.84389e-14 0 5.42101e-14 3.24635e-15 0 0 0 0)
(5.42101e-14 -2.07348e-14 0 2.71051e-14 6.05105e-15 0 0 0 0)
(-5.42101e-14 2.79877e-15 0 0 -1.86323e-14 0 0 0 0)
(5.42101e-14 1.51742e-14 0 -5.42101e-14 -1.73816e-14 0 0 0 0)
(-4.06576e-13 -8.70279e-12 0 -3.08998e-12 6.30024e-12 0 0 0 0)
(5.96311e-13 1.04667e-11 0 8.40257e-13 -1.41358e-12 0 0 0 0)
(-1.35525e-13 -2.19964e-12 0 2.71051e-14 2.95288e-13 0 0 0 0)
(0 5.34021e-13 0 5.42101e-14 -8.36864e-14 0 0 0 0)
(2.71051e-14 -1.01178e-13 0 5.42101e-14 5.04388e-15 0 0 0 0)
(-2.71051e-14 3.07329e-14 0 0 -4.35694e-15 0 0 0 0)
(0 -9.92366e-15 0 5.42101e-14 -8.69231e-15 0 0 0 0)
(0 -5.3531e-15 0 1.0842e-13 -1.0692e-14 0 0 0 0)
(0 1.48191e-15 0 8.13152e-14 -6.25119e-15 0 0 0 0)
(0 -1.00209e-14 0 1.0842e-13 5.15897e-15 0 0 0 0)
(-5.42101e-14 3.23675e-15 0 5.42101e-14 3.07776e-14 0 0 0 0)
(-5.42101e-14 1.40294e-14 0 8.13152e-14 2.83007e-14 0 0 0 0)
(0 -1.52307e-14 0 5.42101e-14 1.52607e-14 0 0 0 0)
(-2.71051e-14 -2.89939e-14 0 8.13152e-14 -1.08094e-14 0 0 0 0)
(0 -3.27298e-15 0 2.71051e-14 -2.78068e-14 0 0 0 0)
(8.13152e-14 2.21666e-14 0 5.42101e-14 -2.92974e-14 0 0 0 0)
(-5.42101e-14 8.88168e-15 0 0 -1.45672e-15 0 0 0 0)
(5.42101e-14 -2.48195e-14 0 5.42101e-14 6.74043e-15 0 0 0 0)
(-5.42101e-14 -1.40994e-14 0 0 9.71586e-15 0 0 0 0)
(5.42101e-14 3.4106e-14 0 5.42101e-14 -1.08595e-14 0 0 0 0)
(-1.0571e-12 5.84035e-12 0 2.24972e-12 1.06025e-11 0 0 0 0)
(1.19262e-12 -7.13124e-12 0 -5.96311e-13 -2.23618e-12 0 0 0 0)
(-2.43945e-13 1.56731e-12 0 5.42101e-14 5.12156e-13 0 0 0 0)
(0 -3.52469e-13 0 -5.42101e-14 -1.36455e-13 0 0 0 0)
(0 8.5301e-14 0 0 -8.11798e-15 0 0 0 0)
(0 -1.86264e-14 0 0 -3.46788e-14 0 0 0 0)
(8.13152e-14 6.8896e-15 0 0 -3.1405e-14 0 0 0 0)
(5.42101e-14 8.86769e-15 0 0 -6.17462e-15 0 0 0 0)
(-2.71051e-14 3.63842e-15 0 -2.71051e-14 -3.69568e-15 0 0 0 0)
(2.71051e-14 8.15379e-15 0 0 -3.0795e-15 0 0 0 0)
(-2.71051e-14 8.70858e-15 0 2.71051e-14 2.70492e-14 0 0 0 0)
(2.71051e-14 -2.9636e-15 0 5.42101e-14 7.13902e-15 0 0 0 0)
(0 -1.79414e-14 0 2.71051e-14 -5.04391e-15 0 0 0 0)
(0 -2.3817e-14 0 5.42101e-14 -3.66557e-16 0 0 0 0)
(0 -9.94277e-15 0 8.13152e-14 1.12855e-14 0 0 0 0)
(0 1.82234e-14 0 2.71051e-14 2.37494e-15 0 0 0 0)
(-2.71051e-14 1.75989e-14 0 -5.42101e-14 -5.37663e-15 0 0 0 0)
(2.71051e-14 -9.56227e-15 0 0 7.42313e-16 0 0 0 0)
(-2.71051e-14 -1.48011e-14 0 2.71051e-14 2.48448e-14 0 0 0 0)
(-2.71051e-14 1.63179e-14 0 2.71051e-14 9.96036e-15 0 0 0 0)
(1.27394e-12 -3.36503e-13 0 -1.35525e-13 -1.51248e-11 0 0 0 0)
(-1.65341e-12 3.76361e-13 0 1.0842e-13 3.26062e-12 0 0 0 0)
(4.06576e-13 -9.99227e-14 0 -5.42101e-14 -7.4057e-13 0 0 0 0)
(0 1.37473e-14 0 5.42101e-14 1.71315e-13 0 0 0 0)
(0 5.98883e-16 0 -5.42101e-14 -3.58786e-14 0 0 0 0)
(0 7.44585e-15 0 -5.42101e-14 -1.16168e-15 0 0 0 0)
(-2.71051e-14 1.85805e-14 0 -5.42101e-14 -1.06341e-14 0 0 0 0)
(0 2.23562e-14 0 -1.0842e-13 -1.66339e-14 0 0 0 0)
(0 4.57704e-15 0 -5.42101e-14 -1.55861e-14 0 0 0 0)
(2.71051e-14 2.0724e-14 0 -5.42101e-14 3.15011e-16 0 0 0 0)
(0 1.34553e-14 0 -2.71051e-14 6.32604e-15 0 0 0 0)
(0 -1.80637e-14 0 0 8.97039e-16 0 0 0 0)
(0 -2.27363e-14 0 2.71051e-14 -9.68894e-15 0 0 0 0)
(-5.42101e-14 -1.26645e-14 0 0 -5.35072e-15 0 0 0 0)
(0 -5.31485e-16 0 2.71051e-14 3.77068e-15 0 0 0 0)
(-5.42101e-14 5.50449e-15 0 0 1.31325e-14 0 0 0 0)
(0 7.24905e-15 0 5.42101e-14 -1.30636e-16 0 0 0 0)
(5.42101e-14 5.40192e-15 0 0 -1.86361e-15 0 0 0 0)
(0 -4.88132e-15 0 -2.71051e-14 8.83893e-15 0 0 0 0)
(0 -6.99148e-16 0 -2.71051e-14 1.11815e-14 0 0 0 0)
(-1.0571e-12 -6.02386e-12 0 -3.52366e-13 1.15945e-11 0 0 0 0)
(1.30104e-12 7.25302e-12 0 1.89735e-13 -2.43222e-12 0 0 0 0)
(-3.25261e-13 -1.52199e-12 0 1.0842e-13 6.07211e-13 0 0 0 0)
(0 3.52222e-13 0 -5.42101e-14 -7.13388e-14 0 0 0 0)
(-1.0842e-13 -8.71753e-14 0 0 7.08873e-14 0 0 0 0)
(5.42101e-14 6.61806e-15 0 0 4.23325e-15 0 0 0 0)
(0 -8.58265e-15 0 0 -5.56109e-15 0 0 0 0)
(5.42101e-14 3.91572e-15 0 0 -1.96912e-14 0 0 0 0)
(2.71051e-14 2.05874e-14 0 5.42101e-14 -1.75297e-14 0 0 0 0)
(-2.71051e-14 3.00659e-14 0 -8.13152e-14 -1.80962e-14 0 0 0 0)
(8.13152e-14 9.29061e-15 0 -8.13152e-14 -5.12649e-14 0 0 0 0)
(2.71051e-14 -1.89786e-14 0 0 -3.61883e-14 0 0 0 0)
(2.71051e-14 -2.41891e-14 0 -2.71051e-14 -1.10126e-14 0 0 0 0)
(0 -1.03574e-14 0 -2.71051e-14 1.04955e-15 0 0 0 0)
(2.71051e-14 8.54044e-15 0 0 4.87282e-15 0 0 0 0)
(-2.71051e-14 1.4322e-14 0 0 1.98641e-14 0 0 0 0)
(-2.71051e-14 2.60278e-15 0 2.71051e-14 1.5143e-14 0 0 0 0)
(-2.71051e-14 -5.92704e-16 0 0 2.67354e-15 0 0 0 0)
(2.71051e-14 -1.75602e-15 0 0 -4.59128e-15 0 0 0 0)
(-2.71051e-14 -3.70257e-15 0 2.71051e-14 4.9453e-15 0 0 0 0)
(1.13841e-12 8.82578e-12 0 1.00289e-12 3.32455e-12 0 0 0 0)
(-1.21973e-12 -1.06109e-11 0 -4.60786e-13 -6.26927e-13 0 0 0 0)
(2.1684e-13 2.26096e-12 0 -1.0842e-13 1.45873e-13 0 0 0 0)
(-1.0842e-13 -5.22576e-13 0 5.42101e-14 -3.82411e-14 0 0 0 0)
(2.71051e-14 7.61709e-14 0 8.13152e-14 -9.02326e-15 0 0 0 0)
(0 -6.90026e-14 0 1.0842e-13 -1.02849e-14 0 0 0 0)
(-2.71051e-14 -5.34388e-15 0 8.13152e-14 4.70803e-15 0 0 0 0)
(-2.71051e-14 1.03876e-14 0 8.13152e-14 2.52947e-14 0 0 0 0)
(-5.42101e-14 6.17201e-15 0 2.71051e-14 2.71453e-14 0 0 0 0)
(-2.71051e-14 -1.30113e-14 0 1.0842e-13 -9.68695e-15 0 0 0 0)
(8.13152e-14 -4.63687e-15 0 8.13152e-14 -4.54533e-14 0 0 0 0)
(5.42101e-14 2.21886e-14 0 -2.71051e-14 -2.42455e-14 0 0 0 0)
(-2.71051e-14 1.45016e-14 0 -2.71051e-14 1.85886e-15 0 0 0 0)
(-2.71051e-14 3.22094e-15 0 0 1.37268e-14 0 0 0 0)
(0 1.82831e-14 0 -5.42101e-14 7.493e-15 0 0 0 0)
(0 1.57746e-14 0 -1.0842e-13 2.40328e-15 0 0 0 0)
(-5.42101e-14 -9.94155e-15 0 -2.71051e-14 -9.09751e-15 0 0 0 0)
(5.42101e-14 -1.43323e-14 0 0 -6.26473e-15 0 0 0 0)
(0 -2.60955e-15 0 0 -6.70716e-15 0 0 0 0)
(0 -1.05317e-15 0 -2.71051e-14 -1.27658e-16 0 0 0 0)
(-5.42101e-13 -3.32624e-12 0 -1.51788e-12 -1.6934e-11 0 0 0 0)
(2.71051e-13 4.07434e-12 0 4.60786e-13 3.53423e-12 0 0 0 0)
(8.13152e-14 -9.33306e-13 0 0 -8.53085e-13 0 0 0 0)
(1.35525e-13 1.97326e-13 0 0 1.31119e-13 0 0 0 0)
(1.0842e-13 -5.92191e-14 0 0 -7.97968e-14 0 0 0 0)
(0 2.03493e-14 0 0 3.67512e-15 0 0 0 0)
(-2.71051e-14 2.69969e-14 0 -8.13152e-14 2.01529e-14 0 0 0 0)
(0 2.6353e-14 0 -8.13152e-14 1.31802e-14 0 0 0 0)
(2.71051e-14 -1.43943e-14 0 -2.71051e-14 6.96571e-15 0 0 0 0)
(0 -4.25327e-14 0 0 3.00298e-15 0 0 0 0)
(-5.42101e-14 -5.2679e-15 0 2.71051e-14 1.35181e-14 0 0 0 0)
(-5.42101e-14 2.83336e-14 0 -8.13152e-14 6.06059e-15 0 0 0 0)
(5.42101e-14 1.37831e-14 0 0 -7.15745e-15 0 0 0 0)
(2.71051e-14 -4.72327e-15 0 -2.71051e-14 6.67908e-15 0 0 0 0)
(-8.13152e-14 -2.78305e-15 0 0 1.2162e-14 0 0 0 0)
(-2.71051e-14 -2.26846e-15 0 2.71051e-14 -9.62358e-15 0 0 0 0)
(8.13152e-14 -6.06523e-15 0 -5.42101e-14 -2.35351e-14 0 0 0 0)
(0 1.79765e-15 0 0 -9.73646e-15 0 0 0 0)
(0 4.38105e-15 0 0 -1.67361e-15 0 0 0 0)
(0 3.13224e-15 0 0 -2.15882e-16 0 0 0 0)
(5.42101e-14 -4.57398e-12 0 5.14996e-13 1.46702e-11 0 0 0 0)
(2.98156e-13 5.46998e-12 0 8.13152e-14 -3.185e-12 0 0 0 0)
(-2.1684e-13 -1.14216e-12 0 1.6263e-13 7.5595e-13 0 0 0 0)
(-8.13152e-14 2.50712e-13 0 5.42101e-14 -1.44649e-13 0 0 0 0)
(-5.42101e-14 -5.12727e-14 0 0 6.91755e-14 0 0 0 0)
(-5.42101e-14 3.09471e-14 0 -2.71051e-14 2.11577e-14 0 0 0 0)
(-2.71051e-14 4.16118e-15 0 5.42101e-14 1.3296e-14 0 0 0 0)
(0 -2.79959e-15 0 5.42101e-14 -2.69877e-14 0 0 0 0)
(8.13152e-14 -4.0052e-15 0 0 -3.68565e-14 0 0 0 0)
(0 -6.45894e-15 0 2.71051e-14 -5.15914e-15 0 0 0 0)
(-5.42101e-14 -1.57926e-15 0 -2.71051e-14 3.2382e-14 0 0 0 0)
(5.42101e-14 1.5131e-15 0 5.42101e-14 1.8161e-14 0 0 0 0)
(0 1.51201e-14 0 0 6.2465e-15 0 0 0 0)
(0 2.25404e-14 0 -5.42101e-14 -2.3956e-15 0 0 0 0)
(2.71051e-14 1.98044e-15 0 -5.42101e-14 -8.69905e-16 0 0 0 0)
(-2.71051e-14 -1.99225e-14 0 5.42101e-14 -4.2597e-15 0 0 0 0)
(0 -1.00544e-14 0 0 -3.02983e-15 0 0 0 0)
(0 7.52922e-15 0 0 -5.85869e-15 0 0 0 0)
(0 6.91103e-15 0 0 3.72369e-15 0 0 0 0)
(0 8.3632e-16 0 2.71051e-14 1.30571e-15 0 0 0 0)
(1.0842e-13 8.15899e-12 0 -3.52366e-13 -3.94153e-12 0 0 0 0)
(-1.6263e-13 -9.83993e-12 0 -2.43945e-13 9.17844e-13 0 0 0 0)
(8.13152e-14 2.10705e-12 0 -1.89735e-13 -1.98055e-13 0 0 0 0)
(0 -4.89449e-13 0 -5.42101e-14 6.57735e-14 0 0 0 0)
(2.71051e-14 1.06587e-13 0 -8.13152e-14 1.12423e-14 0 0 0 0)
(0 -3.55302e-14 0 -8.13152e-14 1.33642e-14 0 0 0 0)
(2.71051e-14 -2.11485e-14 0 2.71051e-14 -2.22675e-15 0 0 0 0)
(-2.71051e-14 -2.37996e-14 0 0 -1.66896e-15 0 0 0 0)
(0 7.43426e-15 0 0 -2.44899e-15 0 0 0 0)
(0 2.67058e-14 0 -5.42101e-14 4.52594e-15 0 0 0 0)
(-2.71051e-14 1.80523e-14 0 -5.42101e-14 9.45401e-15 0 0 0 0)
(-2.71051e-14 2.19815e-15 0 0 1.14008e-14 0 0 0 0)
(-5.42101e-14 -6.77353e-15 0 0 9.49433e-15 0 0 0 0)
(0 -1.18397e-14 0 1.0842e-13 -4.63841e-15 0 0 0 0)
(-2.71051e-14 -4.64715e-15 0 5.42101e-14 -1.52912e-14 0 0 0 0)
(8.13152e-14 -4.42838e-15 0 0 -2.09649e-14 0 0 0 0)
(0 -7.66421e-15 0 8.13152e-14 -4.1299e-15 0 0 0 0)
(2.71051e-14 8.55117e-15 0 0 1.29857e-15 0 0 0 0)
(-2.71051e-14 1.15454e-14 0 0 1.02718e-14 0 0 0 0)
(0 -1.89716e-15 0 0 -3.73659e-16 0 0 0 0)
(-5.69206e-13 -7.59766e-12 0 9.21572e-13 -4.0286e-12 0 0 0 0)
(5.14996e-13 9.21345e-12 0 5.42101e-14 8.56231e-13 0 0 0 0)
(-2.71051e-14 -1.99423e-12 0 1.6263e-13 -1.90684e-13 0 0 0 0)
(2.71051e-14 4.60009e-13 0 2.71051e-14 5.64135e-14 0 0 0 0)
(-2.71051e-14 -1.03682e-13 0 8.13152e-14 -8.93219e-15 0 0 0 0)
(0 1.7478e-14 0 5.42101e-14 6.20346e-15 0 0 0 0)
(2.71051e-14 -1.08719e-14 0 0 -9.03537e-15 0 0 0 0)
(-2.71051e-14 -3.02184e-15 0 0 1.36337e-14 0 0 0 0)
(0 2.1897e-15 0 0 1.6433e-14 0 0 0 0)
(0 5.44406e-15 0 2.71051e-14 2.67689e-15 0 0 0 0)
(0 5.29563e-15 0 5.42101e-14 -1.60633e-14 0 0 0 0)
(8.13152e-14 1.55342e-15 0 0 -2.61361e-14 0 0 0 0)
(5.42101e-14 -9.1916e-16 0 5.42101e-14 -2.60473e-14 0 0 0 0)
(2.71051e-14 -2.24515e-15 0 2.71051e-14 1.22309e-15 0 0 0 0)
(-2.71051e-14 -1.43461e-14 0 2.71051e-14 1.96736e-14 0 0 0 0)
(-2.71051e-14 -8.76121e-15 0 2.71051e-14 2.69032e-15 0 0 0 0)
(2.71051e-14 1.2209e-14 0 -2.71051e-14 4.31245e-15 0 0 0 0)
(-5.42101e-14 2.1931e-14 0 -5.42101e-14 1.45695e-14 0 0 0 0)
(2.71051e-14 5.2388e-15 0 -5.42101e-14 -7.72893e-16 0 0 0 0)
(-2.71051e-14 -9.06186e-15 0 0 -4.32832e-15 0 0 0 0)
(1.0571e-12 4.98663e-12 0 -4.06576e-13 9.60394e-12 0 0 0 0)
(-9.21572e-13 -6.00202e-12 0 -8.13152e-14 -2.07547e-12 0 0 0 0)
(8.13152e-14 1.30723e-12 0 -1.35525e-13 4.74729e-13 0 0 0 0)
(-1.35525e-13 -3.07697e-13 0 -2.71051e-14 -9.53977e-14 0 0 0 0)
(5.42101e-14 5.63773e-14 0 -2.71051e-14 3.21151e-14 0 0 0 0)
(-2.71051e-14 -3.56334e-14 0 2.71051e-14 4.10045e-15 0 0 0 0)
(-2.71051e-14 -1.37182e-14 0 -2.71051e-14 4.44863e-15 0 0 0 0)
(-2.71051e-14 1.66881e-15 0 0 -3.27305e-16 0 0 0 0)
(2.71051e-14 -3.52254e-15 0 -5.42101e-14 -1.3126e-14 0 0 0 0)
(0 -5.79048e-15 0 2.71051e-14 -1.253e-14 0 0 0 0)
(-2.71051e-14 -1.07607e-14 0 0 7.13274e-15 0 0 0 0)
(0 -7.78579e-15 0 0 9.44045e-15 0 0 0 0)
(0 2.05856e-14 0 -5.42101e-14 5.53853e-15 0 0 0 0)
(-2.71051e-14 3.38812e-14 0 -8.13152e-14 5.64586e-15 0 0 0 0)
(0 -3.17993e-15 0 -2.71051e-14 2.14005e-15 0 0 0 0)
(-2.71051e-14 -1.97895e-14 0 -2.71051e-14 1.80545e-14 0 0 0 0)
(-5.42101e-14 4.21502e-15 0 -5.42101e-14 2.20797e-14 0 0 0 0)
(-2.71051e-14 3.46583e-15 0 -2.71051e-14 8.21336e-16 0 0 0 0)
(8.13152e-14 -7.35243e-15 0 0 -2.49574e-14 0 0 0 0)
(0 3.20406e-15 0 -2.71051e-14 -1.18637e-14 0 0 0 0)
(-1.0571e-12 -6.91902e-14 0 -7.31836e-13 -1.42465e-11 0 0 0 0)
(7.86047e-13 8.42386e-14 0 1.6263e-13 3.03401e-12 0 0 0 0)
(0 -1.41573e-14 0 -2.71051e-14 -7.3666e-13 0 0 0 0)
(1.89735e-13 1.73957e-14 0 2.71051e-14 1.29999e-13 0 0 0 0)
(-5.42101e-14 -4.18381e-15 0 0 -2.74021e-14 0 0 0 0)
(5.42101e-14 -1.01884e-14 0 0 1.26014e-14 0 0 0 0)
(-5.42101e-14 -1.52997e-14 0 -5.42101e-14 2.07963e-14 0 0 0 0)
(5.42101e-14 -2.05965e-14 0 0 1.72394e-15 0 0 0 0)
(0 -1.0013e-14 0 0 -8.83073e-15 0 0 0 0)
(2.71051e-14 2.57028e-14 0 -1.0842e-13 -5.12333e-15 0 0 0 0)
(0 2.72661e-14 0 -8.13152e-14 -7.7134e-16 0 0 0 0)
(0 -4.07922e-17 0 -5.42101e-14 6.33662e-15 0 0 0 0)
(-2.71051e-14 -4.71374e-15 0 0 9.90329e-16 0 0 0 0)
(2.71051e-14 -5.64363e-15 0 -5.42101e-14 -2.84973e-14 0 0 0 0)
(5.42101e-14 -1.93745e-15 0 5.42101e-14 -3.56272e-14 0 0 0 0)
(0 1.11785e-14 0 0 1.66878e-15 0 0 0 0)
(0 -5.02409e-15 0 8.13152e-14 1.79479e-14 0 0 0 0)
(0 -2.51062e-14 0 8.13152e-14 3.25813e-15 0 0 0 0)
(0 -7.44627e-15 0 5.42101e-14 -1.40162e-14 0 0 0 0)
(0 2.77593e-14 0 2.71051e-14 -7.66062e-15 0 0 0 0)
(5.14996e-13 -6.22583e-12 0 3.52366e-13 1.21836e-11 0 0 0 0)
(-2.1684e-13 7.50778e-12 0 5.42101e-14 -2.61098e-12 0 0 0 0)
(-8.13152e-14 -1.59678e-12 0 1.35525e-13 6.06026e-13 0 0 0 0)
(-8.13152e-14 4.01562e-13 0 -2.71051e-14 -1.34757e-13 0 0 0 0)
(0 -6.10205e-14 0 0 2.90556e-14 0 0 0 0)
(-5.42101e-14 1.25651e-14 0 2.71051e-14 -3.99297e-15 0 0 0 0)
(-2.71051e-14 -2.45957e-14 0 8.13152e-14 -8.24084e-16 0 0 0 0)
(0 -2.79583e-14 0 8.13152e-14 1.25579e-15 0 0 0 0)
(-5.42101e-14 -1.03698e-14 0 1.35525e-13 2.5912e-14 0 0 0 0)
(-8.13152e-14 2.26891e-15 0 5.42101e-14 2.73013e-14 0 0 0 0)
(2.71051e-14 6.99268e-16 0 8.13152e-14 -2.68887e-15 0 0 0 0)
(5.42101e-14 -6.02412e-15 0 1.0842e-13 -1.6822e-14 0 0 0 0)
(0 -1.42483e-14 0 0 -1.28982e-14 0 0 0 0)
(5.42101e-14 -2.73636e-15 0 5.42101e-14 -1.50352e-14 0 0 0 0)
(0 2.69861e-14 0 -2.71051e-14 2.36267e-15 0 0 0 0)
(-2.71051e-14 3.37856e-14 0 -5.42101e-14 5.00201e-15 0 0 0 0)
(2.71051e-14 5.80437e-15 0 -2.71051e-14 -1.65006e-15 0 0 0 0)
(-2.71051e-14 -2.84982e-14 0 0 1.06434e-14 0 0 0 0)
(0 -1.82712e-14 0 0 1.01073e-14 0 0 0 0)
(-2.71051e-14 2.48808e-14 0 0 8.68504e-15 0 0 0 0)
(-6.23416e-13 9.50342e-12 0 8.67362e-13 4.48198e-13 0 0 0 0)
(5.42101e-13 -1.14933e-11 0 -4.87891e-13 -8.24737e-14 0 0 0 0)
(-1.0842e-13 2.46207e-12 0 -2.43945e-13 3.3105e-15 0 0 0 0)
(5.42101e-14 -5.59574e-13 0 -8.13152e-14 -8.60523e-15 0 0 0 0)
(5.42101e-14 1.2658e-13 0 -8.13152e-14 -3.01043e-14 0 0 0 0)
(8.13152e-14 -4.00681e-14 0 -1.0842e-13 -3.56902e-14 0 0 0 0)
(5.42101e-14 -1.00509e-14 0 -8.13152e-14 -3.49337e-14 0 0 0 0)
(2.71051e-14 6.13958e-15 0 -8.13152e-14 -5.9575e-15 0 0 0 0)
(0 1.60325e-14 0 -8.13152e-14 1.68597e-14 0 0 0 0)
(-2.71051e-14 -2.89804e-15 0 0 1.03573e-14 0 0 0 0)
(2.71051e-14 -1.68571e-14 0 0 1.69523e-15 0 0 0 0)
(-2.71051e-14 -1.02502e-14 0 -5.42101e-14 5.6835e-15 0 0 0 0)
(-5.42101e-14 -2.92698e-15 0 0 1.8465e-14 0 0 0 0)
(-5.42101e-14 9.61727e-15 0 -5.42101e-14 3.07482e-14 0 0 0 0)
(0 1.80998e-14 0 -1.0842e-13 2.14062e-14 0 0 0 0)
(-2.71051e-14 7.16576e-15 0 -2.71051e-14 -8.80298e-15 0 0 0 0)
(0 6.17284e-16 0 -8.13152e-14 -3.04289e-14 0 0 0 0)
(8.13152e-14 -1.33489e-14 0 0 -2.42244e-14 0 0 0 0)
(2.71051e-14 -9.40462e-15 0 0 6.10869e-15 0 0 0 0)
(-2.71051e-14 8.96698e-15 0 -2.71051e-14 1.10042e-14 0 0 0 0)
(8.94467e-13 -5.8601e-12 0 -1.38236e-12 -1.52027e-11 0 0 0 0)
(-1.30104e-12 7.06289e-12 0 4.87891e-13 3.20939e-12 0 0 0 0)
(3.25261e-13 -1.52291e-12 0 5.42101e-14 -7.4984e-13 0 0 0 0)
(2.71051e-14 3.68147e-13 0 8.13152e-14 1.40517e-13 0 0 0 0)
(-2.71051e-14 -8.81055e-14 0 2.71051e-14 -5.26525e-14 0 0 0 0)
(0 7.73562e-15 0 0 -1.14031e-14 0 0 0 0)
(0 5.137e-15 0 0 -6.47079e-15 0 0 0 0)
(0 2.38352e-14 0 -8.13152e-14 -1.58269e-15 0 0 0 0)
(0 5.94496e-15 0 -5.42101e-14 -9.33275e-15 0 0 0 0)
(0 -1.28956e-14 0 0 -1.31286e-14 0 0 0 0)
(0 -3.9745e-15 0 -8.13152e-14 -1.3222e-14 0 0 0 0)
(2.71051e-14 1.07456e-14 0 0 -6.20199e-15 0 0 0 0)
(0 1.08164e-14 0 2.71051e-14 -1.27239e-15 0 0 0 0)
(-2.71051e-14 2.04841e-16 0 5.42101e-14 6.63889e-15 0 0 0 0)
(0 -1.2565e-14 0 8.13152e-14 6.23502e-16 0 0 0 0)
(2.71051e-14 -1.80495e-14 0 8.13152e-14 -1.4757e-14 0 0 0 0)
(5.42101e-14 -9.61704e-15 0 8.13152e-14 -2.57531e-14 0 0 0 0)
(0 8.03937e-15 0 0 -2.90813e-14 0 0 0 0)
(0 1.69575e-14 0 0 -2.51684e-15 0 0 0 0)
(0 7.76791e-15 0 5.42101e-14 5.03357e-15 0 0 0 0)
(-1.51788e-12 -2.48986e-12 0 -8.13152e-13 1.84161e-11 0 0 0 0)
(1.95156e-12 2.95949e-12 0 2.98156e-13 -3.94778e-12 0 0 0 0)
(-5.14996e-13 -6.06803e-13 0 1.35525e-13 9.30526e-13 0 0 0 0)
(2.71051e-14 1.37614e-13 0 2.71051e-14 -2.13051e-13 0 0 0 0)
(5.42101e-14 -2.53396e-14 0 1.0842e-13 2.8064e-14 0 0 0 0)
(0 6.11365e-15 0 8.13152e-14 -4.08258e-15 0 0 0 0)
(-5.42101e-14 -2.30543e-16 0 5.42101e-14 1.58671e-14 0 0 0 0)
(0 3.27762e-15 0 8.13152e-14 -2.11384e-15 0 0 0 0)
(5.42101e-14 4.48652e-15 0 5.42101e-14 -1.77859e-14 0 0 0 0)
(2.71051e-14 -6.78724e-15 0 5.42101e-14 -7.04395e-15 0 0 0 0)
(-2.71051e-14 -9.93048e-15 0 8.13152e-14 2.3123e-15 0 0 0 0)
(5.42101e-14 1.6994e-15 0 0 -3.29652e-15 0 0 0 0)
(0 9.9139e-15 0 2.71051e-14 -6.71271e-15 0 0 0 0)
(0 1.15132e-14 0 5.42101e-14 -2.23472e-15 0 0 0 0)
(0 -3.29616e-15 0 5.42101e-14 -2.98486e-16 0 0 0 0)
(-2.71051e-14 -1.92109e-14 0 5.42101e-14 4.20889e-15 0 0 0 0)
(-2.71051e-14 -1.3707e-14 0 2.71051e-14 1.27162e-14 0 0 0 0)
(0 9.88744e-15 0 -5.42101e-14 9.41186e-15 0 0 0 0)
(5.42101e-14 2.47102e-14 0 0 4.56313e-15 0 0 0 0)
(-5.42101e-14 6.45025e-15 0 0 6.20077e-15 0 0 0 0)
(3.79471e-13 8.60821e-12 0 4.11997e-12 -1.59018e-12 0 0 0 0)
(-3.52366e-13 -1.04227e-11 0 -1.0571e-12 3.93828e-13 0 0 0 0)
(8.13152e-14 2.21182e-12 0 8.13152e-14 -9.91076e-14 0 0 0 0)
(-2.71051e-14 -5.34315e-13 0 -2.71051e-14 3.20306e-14 0 0 0 0)
(0 1.20863e-13 0 -2.71051e-14 -5.99723e-15 0 0 0 0)
(-2.71051e-14 -4.46125e-15 0 -2.71051e-14 1.23212e-14 0 0 0 0)
(0 7.10575e-15 0 0 1.81816e-14 0 0 0 0)
(0 -9.81782e-15 0 0 1.30761e-14 0 0 0 0)
(-2.71051e-14 1.01485e-15 0 -5.42101e-14 -2.49641e-15 0 0 0 0)
(0 7.20262e-15 0 -5.42101e-14 -5.44518e-15 0 0 0 0)
(-2.71051e-14 -2.27076e-16 0 -5.42101e-14 8.94636e-17 0 0 0 0)
(0 1.72063e-15 0 -5.42101e-14 5.14562e-15 0 0 0 0)
(2.71051e-14 1.18782e-14 0 -1.0842e-13 8.00029e-15 0 0 0 0)
(-2.71051e-14 6.61907e-15 0 -1.0842e-13 2.04688e-15 0 0 0 0)
(5.42101e-14 -6.12143e-15 0 -1.0842e-13 -1.15922e-14 0 0 0 0)
(0 -5.03485e-15 0 -2.71051e-14 2.31168e-15 0 0 0 0)
(-2.71051e-14 -4.41407e-15 0 -8.13152e-14 1.64092e-14 0 0 0 0)
(-2.71051e-14 -1.13685e-16 0 5.42101e-14 1.51688e-14 0 0 0 0)
(0 1.37464e-14 0 0 5.75097e-15 0 0 0 0)
(0 -2.99599e-15 0 -5.42101e-14 1.78331e-16 0 0 0 0)
(1.54499e-12 -3.6862e-12 0 -1.30104e-12 -1.82689e-11 0 0 0 0)
(-2.08709e-12 4.45056e-12 0 3.52366e-13 3.85706e-12 0 0 0 0)
(5.42101e-13 -9.686e-13 0 2.71051e-14 -9.01768e-13 0 0 0 0)
(-5.42101e-14 2.30724e-13 0 2.71051e-14 2.07483e-13 0 0 0 0)
(-2.71051e-14 -4.5049e-14 0 2.71051e-14 -2.35827e-14 0 0 0 0)
(0 3.02925e-14 0 0 1.3703e-14 0 0 0 0)
(0 5.24366e-16 0 5.42101e-14 1.77448e-15 0 0 0 0)
(0 -1.74004e-14 0 5.42101e-14 1.42579e-15 0 0 0 0)
(2.71051e-14 -1.40348e-14 0 8.13152e-14 -1.56642e-15 0 0 0 0)
(0 -4.20136e-15 0 2.71051e-14 -3.83487e-16 0 0 0 0)
(-2.71051e-14 6.60313e-16 0 5.42101e-14 8.13634e-16 0 0 0 0)
(0 9.61023e-15 0 5.42101e-14 3.76982e-15 0 0 0 0)
(0 6.81516e-15 0 5.42101e-14 9.51849e-16 0 0 0 0)
(0 -8.07934e-15 0 5.42101e-14 -9.75487e-15 0 0 0 0)
(2.71051e-14 -3.03136e-15 0 5.42101e-14 -8.7004e-15 0 0 0 0)
(-2.71051e-14 8.79054e-15 0 0 1.51049e-15 0 0 0 0)
(2.71051e-14 -8.49843e-16 0 0 -2.3324e-15 0 0 0 0)
(5.42101e-14 -7.70784e-16 0 2.71051e-14 -2.2553e-15 0 0 0 0)
(0 9.71976e-15 0 0 -1.0718e-15 0 0 0 0)
(0 5.20945e-16 0 0 -5.90132e-15 0 0 0 0)
(-5.42101e-13 -5.80367e-12 0 -1.21973e-12 1.20141e-11 0 0 0 0)
(9.75782e-13 6.94449e-12 0 2.71051e-13 -2.52426e-12 0 0 0 0)
(-2.71051e-13 -1.43776e-12 0 -1.0842e-13 6.19079e-13 0 0 0 0)
(0 3.43869e-13 0 -2.71051e-14 -1.17904e-13 0 0 0 0)
(-2.71051e-14 -7.29166e-14 0 -5.42101e-14 4.44853e-14 0 0 0 0)
(-2.71051e-14 2.0896e-14 0 0 6.16592e-17 0 0 0 0)
(2.71051e-14 -5.17151e-15 0 -5.42101e-14 -6.70319e-15 0 0 0 0)
(0 -1.31587e-14 0 -5.42101e-14 4.70881e-15 0 0 0 0)
(-2.71051e-14 -7.94427e-16 0 -2.71051e-14 2.38559e-14 0 0 0 0)
(-2.71051e-14 9.58267e-15 0 -2.71051e-14 1.9538e-14 0 0 0 0)
(-2.71051e-14 3.92623e-15 0 0 1.84746e-14 0 0 0 0)
(0 1.85884e-15 0 0 1.49515e-14 0 0 0 0)
(0 -1.64647e-15 0 0 7.00555e-15 0 0 0 0)
(0 -3.03318e-15 0 0 9.78279e-15 0 0 0 0)
(0 5.14393e-15 0 0 1.81181e-14 0 0 0 0)
(0 1.33315e-15 0 -2.71051e-14 7.67022e-15 0 0 0 0)
(-2.71051e-14 -8.17986e-15 0 5.42101e-14 7.99438e-15 0 0 0 0)
(-2.71051e-14 1.14692e-15 0 -2.71051e-14 1.66999e-14 0 0 0 0)
(0 1.01003e-14 0 0 7.61824e-15 0 0 0 0)
(0 3.97713e-15 0 0 -3.12017e-15 0 0 0 0)
)
;

boundaryField
{
    movingWall
    {
        type            extrapolatedCalculated;
        value           nonuniform List<tensor> 
20
(
(-5.42101e-13 -5.80367e-12 0 3.55271e-12 2.92453e-11 0 0 0 0)
(9.75782e-13 6.94449e-12 0 -1.33227e-12 -6.03064e-12 0 0 0 0)
(-2.71051e-13 -1.43776e-12 0 -3.55271e-13 1.46735e-12 0 0 0 0)
(0 3.43869e-13 0 -2.66454e-13 -2.79617e-13 0 0 0 0)
(-2.71051e-14 -7.29166e-14 0 -3.10862e-13 9.18749e-14 0 0 0 0)
(-2.71051e-14 2.0896e-14 0 -2.22045e-13 1.20492e-14 0 0 0 0)
(2.71051e-14 -5.17151e-15 0 -2.66454e-13 8.29102e-15 0 0 0 0)
(0 -1.31587e-14 0 -3.10862e-13 3.27352e-14 0 0 0 0)
(-2.71051e-14 -7.94427e-16 0 -2.66454e-13 6.09259e-14 0 0 0 0)
(-2.71051e-14 9.58267e-15 0 -1.77636e-13 3.59129e-14 0 0 0 0)
(-2.71051e-14 3.92623e-15 0 -1.33227e-13 2.25952e-14 0 0 0 0)
(0 1.85884e-15 0 -1.33227e-13 2.0208e-14 0 0 0 0)
(0 -1.64647e-15 0 -1.77636e-13 1.51598e-14 0 0 0 0)
(0 -3.03318e-15 0 -8.88178e-14 2.67939e-14 0 0 0 0)
(0 5.14393e-15 0 -4.44089e-14 2.72926e-14 0 0 0 0)
(0 1.33315e-15 0 -1.33227e-13 6.21817e-15 0 0 0 0)
(-2.71051e-14 -8.17986e-15 0 -4.44089e-14 2.196e-14 0 0 0 0)
(-2.71051e-14 1.14692e-15 0 -4.44089e-14 3.89376e-14 0 0 0 0)
(0 1.01003e-14 0 0 1.73723e-14 0 0 0 0)
(0 3.97713e-15 0 0 -1.46377e-15 0 0 0 0)
)
;
    }
    fixedWalls
    {
        type            extrapolatedCalculated;
        value           nonuniform List<tensor> 
60
(
(-5.32907e-12 5.21941e-11 0 5.14996e-13 1.42467e-11 0 0 0 0)
(7.37188e-12 4.79273e-12 0 7.58942e-13 -2.40675e-11 0 0 0 0)
(-2.30926e-12 -4.40758e-11 0 -3.08998e-12 6.30024e-12 0 0 0 0)
(-4.9738e-12 2.99937e-11 0 2.24972e-12 1.06025e-11 0 0 0 0)
(6.79456e-12 -1.66592e-12 0 -1.35525e-13 -1.51248e-11 0 0 0 0)
(-5.50671e-12 -3.05056e-11 0 -3.52366e-13 1.15945e-11 0 0 0 0)
(5.32907e-12 4.47121e-11 0 1.00289e-12 3.32455e-12 0 0 0 0)
(-1.5099e-12 -1.72074e-11 0 -1.51788e-12 -1.6934e-11 0 0 0 0)
(-7.99361e-13 -2.30239e-11 0 5.14996e-13 1.46702e-11 0 0 0 0)
(7.10543e-13 4.14735e-11 0 -3.52366e-13 -3.94153e-12 0 0 0 0)
(-2.39808e-12 -3.879e-11 0 9.21572e-13 -4.0286e-12 0 0 0 0)
(4.44089e-12 2.53591e-11 0 -4.06576e-13 9.60394e-12 0 0 0 0)
(-3.9968e-12 -3.74227e-13 0 -7.31836e-13 -1.42465e-11 0 0 0 0)
(1.5099e-12 -3.16267e-11 0 3.52366e-13 1.21836e-11 0 0 0 0)
(-2.4869e-12 4.83602e-11 0 8.67362e-13 4.48198e-13 0 0 0 0)
(4.92939e-12 -2.98339e-11 0 -1.38236e-12 -1.52027e-11 0 0 0 0)
(-8.08242e-12 -1.24505e-11 0 -8.13152e-13 1.84161e-11 0 0 0 0)
(1.73195e-12 4.38304e-11 0 4.11997e-12 -1.59018e-12 0 0 0 0)
(8.43769e-12 -1.88112e-11 0 -1.30104e-12 -1.82689e-11 0 0 0 0)
(-3.55271e-12 -2.92453e-11 0 -1.21973e-12 1.20141e-11 0 0 0 0)
(0 -1.5146e-14 0 0 3.33762e-15 0 0 0 0)
(8.88178e-14 1.79551e-15 0 -5.42101e-14 -1.73816e-14 0 0 0 0)
(8.88178e-14 5.43804e-14 0 5.42101e-14 -1.08595e-14 0 0 0 0)
(-4.44089e-14 4.52334e-14 0 2.71051e-14 9.96036e-15 0 0 0 0)
(0 1.45389e-14 0 -2.71051e-14 1.11815e-14 0 0 0 0)
(-4.44089e-14 5.07395e-16 0 2.71051e-14 4.9453e-15 0 0 0 0)
(0 -5.24229e-15 0 -2.71051e-14 -1.27658e-16 0 0 0 0)
(0 1.01803e-15 0 0 -2.15882e-16 0 0 0 0)
(-4.44089e-14 -4.37877e-15 0 2.71051e-14 1.30571e-15 0 0 0 0)
(0 -4.2048e-15 0 0 -3.73659e-16 0 0 0 0)
(-8.88178e-14 -2.88413e-15 0 0 -4.32832e-15 0 0 0 0)
(0 1.31085e-14 0 -2.71051e-14 -1.18637e-14 0 0 0 0)
(0 4.45708e-14 0 2.71051e-14 -7.66062e-15 0 0 0 0)
(-4.44089e-14 4.3751e-14 0 0 8.68504e-15 0 0 0 0)
(-4.44089e-14 9.83068e-15 0 -2.71051e-14 1.10042e-14 0 0 0 0)
(0 -2.6595e-16 0 5.42101e-14 5.03357e-15 0 0 0 0)
(-1.33227e-13 -1.03036e-14 0 0 6.20077e-15 0 0 0 0)
(0 -2.5069e-14 0 -5.42101e-14 1.78331e-16 0 0 0 0)
(0 -1.10169e-14 0 0 -5.90132e-15 0 0 0 0)
(0 -1.46377e-15 0 0 -3.12017e-15 0 0 0 0)
(-8.40257e-13 1.02543e-11 0 -5.32907e-12 5.21941e-11 0 0 0 0)
(1.38236e-12 -1.2372e-11 0 1.95399e-12 -1.1177e-11 0 0 0 0)
(-4.06576e-13 2.66561e-12 0 1.33227e-13 2.70594e-12 0 0 0 0)
(2.71051e-14 -6.31676e-13 0 3.55271e-13 -5.14543e-13 0 0 0 0)
(-8.13152e-14 1.30673e-13 0 2.22045e-13 1.79239e-13 0 0 0 0)
(0 -3.37864e-14 0 1.77636e-13 8.14798e-15 0 0 0 0)
(2.71051e-14 1.46713e-14 0 2.22045e-13 4.40937e-14 0 0 0 0)
(-5.42101e-14 3.64106e-15 0 2.22045e-13 6.68334e-14 0 0 0 0)
(-2.71051e-14 -9.50946e-15 0 4.44089e-14 5.8658e-14 0 0 0 0)
(0 -1.45998e-14 0 4.44089e-14 2.87955e-14 0 0 0 0)
(0 -1.07004e-14 0 4.44089e-14 2.58706e-16 0 0 0 0)
(2.71051e-14 -4.86207e-16 0 8.88178e-14 -1.40062e-14 0 0 0 0)
(0 1.33071e-14 0 8.88178e-14 -1.68612e-15 0 0 0 0)
(-2.71051e-14 1.38786e-14 0 8.88178e-14 3.92221e-14 0 0 0 0)
(-2.71051e-14 -1.84703e-15 0 0 5.38281e-14 0 0 0 0)
(0 -1.23948e-14 0 0 3.18339e-14 0 0 0 0)
(-5.42101e-14 -1.35053e-14 0 -8.88178e-14 4.24894e-15 0 0 0 0)
(0 -2.94085e-15 0 -1.77636e-13 -2.21871e-14 0 0 0 0)
(5.42101e-14 9.33327e-15 0 4.44089e-14 -7.51447e-15 0 0 0 0)
(0 -1.90788e-15 0 0 1.5146e-14 0 0 0 0)
)
;
    }
    frontAndBack
    {
        type            empty;
    }
}


// ************************************************************************* //
