/*--------------------------------*- C++ -*----------------------------------*\
| =========                 |                                                 |
| \\      /  F ield         | OpenFOAM: The Open Source CFD Toolbox           |
|  \\    /   O peration     | Version:  2506                                  |
|   \\  /    A nd           | Website:  www.openfoam.com                      |
|    \\/     M anipulation  |                                                 |
\*---------------------------------------------------------------------------*/
FoamFile
{
    version     2.0;
    format      ascii;
    arch        "LSB;label=32;scalar=64";
    class       volVectorField;
    location    "8.75";
    object      LambVectorField;
}
// * * * * * * * * * * * * * * * * * * * * * * * * * * * * * * * * * * * * * //

dimensions      [0 1 -2 0 0 0 0];

internalField   nonuniform List<vector> 
400
(
(-1.27083e-24 -9.73927e-12 0)
(-3.41161e-25 1.22094e-11 -0)
(-1.83992e-26 -2.71982e-12 0)
(-8.47427e-28 6.58781e-13 -0)
(-7.07e-29 -1.57778e-13 0)
(6.88228e-31 3.37864e-14 0)
(-1.61729e-30 -1.46713e-14 0)
(-6.08361e-31 -3.64106e-15 0)
(-6.55512e-30 -4.47006e-14 0)
(-2.8515e-30 -3.96103e-14 0)
(-2.81405e-32 -4.35097e-14 0)
(-1.70248e-32 4.86207e-16 -0)
(2.84606e-31 -6.75172e-14 -0)
(-6.67644e-30 -6.80887e-14 0)
(2.48555e-31 1.84703e-15 0)
(9.86438e-31 1.23948e-14 0)
(-4.32381e-31 -4.07049e-14 0)
(4.34724e-30 -7.83743e-14 -0)
(1.75337e-31 -9.33327e-15 -0)
(7.2242e-32 1.90788e-15 0)
(-2.33342e-27 -1.94746e-13 0)
(-2.02475e-27 8.28132e-13 -0)
(-1.90185e-28 -2.64528e-13 0)
(-5.669e-31 8.0148e-15 -0)
(-5.77515e-31 -5.97155e-15 0)
(-5.38724e-32 4.89026e-15 -0)
(-3.22396e-30 -6.74348e-14 0)
(-7.351e-30 -6.06367e-14 0)
(1.36871e-30 1.22125e-14 0)
(-2.58474e-32 2.8875e-14 -0)
(-2.54998e-30 1.44331e-14 -0)
(1.36322e-29 -9.38685e-14 -0)
(1.08262e-30 -2.11687e-14 -0)
(-3.08082e-30 -4.63555e-14 0)
(-1.27028e-29 -8.98604e-14 0)
(-7.00065e-30 -4.60834e-14 0)
(4.36583e-30 7.2649e-14 0)
(-1.55367e-30 4.78399e-14 -0)
(4.12129e-31 -2.79877e-15 -0)
(3.1145e-31 -6.93844e-14 -0)
(-6.18473e-25 5.61281e-12 -0)
(-2.22962e-25 -9.62641e-12 0)
(-1.22978e-26 2.22675e-12 -0)
(-5.59022e-28 -4.79811e-13 0)
(-2.83619e-29 1.55388e-13 -0)
(-4.71174e-30 -3.07329e-14 0)
(8.00421e-30 6.41338e-14 0)
(6.15244e-30 1.13773e-13 0)
(5.69002e-30 7.98333e-14 0)
(8.16005e-30 1.18441e-13 0)
(-1.47493e-30 5.09734e-14 -0)
(6.81355e-30 6.72858e-14 0)
(7.73284e-30 6.94408e-14 0)
(-5.63064e-30 1.10309e-13 -0)
(-5.42492e-30 3.0378e-14 -0)
(-2.68441e-30 3.20435e-14 -0)
(-3.82674e-31 -8.88168e-15 0)
(3.98526e-31 7.90296e-14 0)
(-2.8919e-30 1.40994e-14 -0)
(-2.73317e-30 2.01041e-14 -0)
(-2.69241e-25 -3.59063e-12 0)
(-1.08354e-25 6.53493e-12 -0)
(-5.55588e-27 -1.5131e-12 0)
(-2.70699e-28 2.98259e-13 -0)
(-1.2552e-29 -8.5301e-14 0)
(-1.01674e-30 1.86264e-14 -0)
(2.69484e-31 -6.8896e-15 -0)
(-1.26899e-31 -8.86769e-15 0)
(-1.52372e-30 -3.07435e-14 0)
(-4.13353e-31 -8.15379e-15 0)
(2.41178e-30 1.83965e-14 0)
(7.87741e-30 5.71737e-14 0)
(4.5706e-30 4.50464e-14 0)
(-3.24853e-30 7.80271e-14 -0)
(-1.24755e-29 9.12579e-14 -0)
(-1.25286e-30 8.88169e-15 -0)
(-3.26929e-30 -7.1809e-14 0)
(3.33989e-31 9.56227e-15 0)
(-2.09929e-30 4.19062e-14 -0)
(-1.21985e-30 1.07872e-14 -0)
(-8.37028e-28 2.00977e-13 -0)
(-2.14289e-28 -2.67941e-13 0)
(-1.83388e-29 4.57126e-14 -0)
(-8.07088e-30 4.04628e-14 -0)
(1.44533e-29 -5.4809e-14 -0)
(1.19289e-29 -6.1656e-14 -0)
(1.37753e-29 -7.27906e-14 -0)
(1.00304e-30 -1.30776e-13 -0)
(-2.0174e-30 -5.87871e-14 0)
(-2.85502e-30 -7.49341e-14 0)
(-9.79762e-30 -4.05603e-14 0)
(3.11876e-30 1.80637e-14 0)
(3.03631e-30 4.98413e-14 0)
(-6.92872e-31 1.26645e-14 -0)
(-1.81642e-30 2.76365e-14 -0)
(3.30405e-31 -5.50449e-15 -0)
(-5.01566e-31 4.69611e-14 -0)
(-6.73397e-32 -5.40192e-15 0)
(-9.63149e-31 -2.22237e-14 0)
(9.59783e-31 -2.64059e-14 -0)
(-4.32532e-25 5.6715e-12 -0)
(-1.13193e-25 -7.06329e-12 0)
(-6.08773e-27 1.63041e-12 -0)
(-3.27402e-28 -4.06432e-13 0)
(-1.84495e-29 8.71753e-14 -0)
(4.38132e-31 -6.61806e-15 -0)
(-1.2484e-30 8.58265e-15 -0)
(5.95303e-31 -3.91572e-15 -0)
(-3.57406e-30 3.36228e-14 -0)
(-5.99727e-30 -1.11381e-13 0)
(-1.76102e-29 -9.06058e-14 0)
(2.78512e-30 1.89786e-14 0)
(-1.33399e-32 -2.91593e-15 0)
(1.59338e-30 -1.67477e-14 -0)
(8.45497e-31 -8.54044e-15 -0)
(1.39441e-31 -1.4322e-14 -0)
(1.08352e-30 2.45023e-14 0)
(9.65618e-33 5.92704e-16 0)
(6.72456e-32 1.75602e-15 0)
(-3.90791e-32 3.08076e-14 -0)
(-8.74445e-25 -7.82289e-12 0)
(-2.38756e-25 1.01501e-11 -0)
(-1.34366e-26 -2.36938e-12 0)
(-5.26521e-28 5.76787e-13 -0)
(2.29006e-30 5.14424e-15 0)
(-2.68162e-29 1.77423e-13 -0)
(-2.1219e-29 8.6659e-14 -0)
(-1.45105e-29 7.09275e-14 -0)
(-2.95113e-30 2.0933e-14 -0)
(-1.73479e-29 1.21432e-13 -0)
(-2.3301e-29 8.5952e-14 -0)
(9.32786e-30 -4.92937e-14 -0)
(2.04732e-30 -4.16067e-14 -0)
(1.42412e-31 -3.22094e-15 -0)
(1.23217e-30 -7.24932e-14 -0)
(-1.72155e-29 -1.24195e-13 0)
(-2.41575e-30 -1.71635e-14 0)
(5.61845e-31 1.43323e-14 0)
(-6.7171e-33 2.60955e-15 -0)
(-3.41429e-31 -2.60519e-14 0)
(-7.77928e-26 1.80835e-12 -0)
(-3.52546e-26 -3.61356e-12 0)
(-2.12339e-27 9.33306e-13 -0)
(-8.34965e-29 -1.97326e-13 0)
(-1.78764e-29 5.92191e-14 -0)
(3.44008e-30 -2.03493e-14 -0)
(1.06553e-29 -1.08312e-13 -0)
(-1.08657e-29 -1.07668e-13 0)
(-2.09923e-30 -1.27108e-14 0)
(-1.82996e-30 4.25327e-14 -0)
(-8.42256e-30 3.2373e-14 -0)
(1.04938e-29 -1.09649e-13 -0)
(-3.19264e-31 -1.37831e-14 0)
(-9.4288e-31 -2.23818e-14 0)
(-6.69859e-32 2.78305e-15 -0)
(4.19943e-31 2.93735e-14 0)
(2.25096e-30 -4.81449e-14 -0)
(8.3331e-32 -1.79765e-15 -0)
(1.26075e-31 -4.38105e-15 -0)
(7.97179e-33 -3.13224e-15 -0)
(-2.9292e-25 5.08897e-12 -0)
(-6.36936e-26 -5.38866e-12 0)
(-3.73159e-27 1.30479e-12 -0)
(-7.82737e-29 -1.96502e-13 0)
(-1.80889e-29 5.12727e-14 -0)
(6.64068e-30 -5.80522e-14 -0)
(-2.16845e-30 5.00489e-14 -0)
(-4.14915e-30 5.70097e-14 -0)
(-2.85661e-31 4.0052e-15 -0)
(-3.78708e-30 3.3564e-14 -0)
(3.46926e-30 -2.55258e-14 -0)
(-6.77812e-30 5.2697e-14 -0)
(1.82622e-30 -1.51201e-14 -0)
(-1.73276e-30 -7.67505e-14 0)
(-5.87882e-30 -5.61906e-14 0)
(3.14181e-30 7.41326e-14 0)
(-9.51173e-31 1.00544e-14 -0)
(4.37925e-31 -7.52922e-15 -0)
(1.33453e-31 -6.91103e-15 -0)
(2.87562e-31 2.62687e-14 0)
(-8.82489e-25 -8.51136e-12 0)
(-2.12012e-25 9.59599e-12 -0)
(-1.21371e-26 -2.29678e-12 0)
(-4.454e-28 4.35239e-13 -0)
(-7.32606e-29 -1.87902e-13 0)
(-1.94704e-30 -4.5785e-14 0)
(1.66881e-30 4.82535e-14 0)
(-4.02115e-30 2.37996e-14 -0)
(1.51221e-30 -7.43426e-15 -0)
(7.65597e-30 -8.09159e-14 -0)
(-4.59928e-30 -7.22624e-14 0)
(-1.88836e-31 -2.19815e-15 0)
(5.80007e-31 6.77353e-15 0)
(2.18526e-30 1.2026e-13 0)
(-1.92865e-30 5.88573e-14 -0)
(-1.25325e-31 4.42838e-15 -0)
(-6.85605e-30 8.89794e-14 -0)
(8.97381e-31 -8.55117e-15 -0)
(-9.76695e-32 -1.15454e-14 0)
(1.99429e-32 1.89716e-15 0)
(-8.26153e-25 8.51923e-12 -0)
(-1.92329e-25 -9.15924e-12 0)
(-1.04402e-26 2.15686e-12 -0)
(-4.57177e-28 -4.32904e-13 0)
(-4.44686e-29 1.84997e-13 -0)
(7.07091e-31 3.67321e-14 0)
(-7.13135e-31 1.08719e-14 -0)
(-2.70362e-31 3.02184e-15 -0)
(2.09801e-31 -2.1897e-15 -0)
(-1.46368e-30 2.1661e-14 -0)
(-2.02369e-30 4.89145e-14 -0)
(2.27048e-32 -1.55342e-15 -0)
(-1.42441e-30 5.51293e-14 -0)
(-6.98757e-31 2.93502e-14 -0)
(-2.00164e-30 4.14511e-14 -0)
(-5.99928e-30 3.58663e-14 -0)
(5.34284e-30 -3.93141e-14 -0)
(3.43988e-30 -7.61411e-14 -0)
(-4.95853e-30 -5.94489e-14 0)
(6.53389e-32 9.06186e-15 0)
(-3.41917e-25 -5.3932e-12 0)
(-8.0116e-26 5.92071e-12 -0)
(-4.87294e-27 -1.44275e-12 0)
(-1.28851e-28 2.80592e-13 -0)
(-2.50918e-29 -8.34823e-14 0)
(6.55996e-30 6.27384e-14 0)
(7.46578e-31 -1.33868e-14 -0)
(5.44398e-32 -1.66881e-15 -0)
(1.98095e-30 -5.06876e-14 -0)
(-2.23188e-30 3.28955e-14 -0)
(-1.04364e-30 1.07607e-14 -0)
(-1.36605e-30 7.78579e-15 -0)
(1.30776e-29 -7.47957e-14 -0)
(-3.50221e-30 -1.15196e-13 0)
(-3.92295e-30 -2.39251e-14 0)
(1.02209e-32 -7.31551e-15 -0)
(1.98223e-30 -5.84251e-14 -0)
(-1.24586e-30 -3.05709e-14 0)
(5.37196e-33 7.35243e-15 0)
(9.93267e-31 -3.03091e-14 -0)
(6.1995e-28 -6.62646e-13 -0)
(1.91014e-29 7.83918e-14 0)
(1.20649e-30 -1.29478e-14 -0)
(9.9125e-31 9.70933e-15 0)
(3.37951e-31 4.18381e-15 0)
(6.13895e-31 1.01884e-14 0)
(8.21315e-31 -3.89104e-14 -0)
(-1.91017e-30 2.05965e-14 -0)
(-2.27369e-30 1.0013e-14 -0)
(2.58687e-29 -1.34123e-13 -0)
(-3.2526e-30 -1.08581e-13 0)
(-4.32209e-30 -5.41693e-14 0)
(1.3928e-31 4.71374e-15 0)
(-1.58575e-30 -4.85665e-14 0)
(-1.50973e-30 5.61476e-14 -0)
(-1.48412e-31 -1.11785e-14 0)
(7.32987e-30 8.63393e-14 0)
(-3.9338e-30 1.06421e-13 -0)
(-1.02452e-29 6.16564e-14 -0)
(7.28986e-32 -6.54227e-16 -0)
(-5.20117e-25 6.57819e-12 -0)
(-1.25284e-25 -7.45357e-12 0)
(-6.91029e-27 1.7323e-12 -0)
(-3.60414e-28 -4.28667e-13 0)
(1.61966e-30 6.10205e-14 0)
(3.35255e-30 1.454e-14 0)
(1.6119e-29 1.05911e-13 0)
(-1.6809e-30 1.09273e-13 -0)
(-1.85854e-29 1.45895e-13 -0)
(-6.18519e-30 5.19412e-14 -0)
(-8.44046e-30 8.06159e-14 -0)
(-1.28278e-29 1.14444e-13 -0)
(-2.35012e-30 1.42483e-14 -0)
(-1.44969e-29 5.69465e-14 -0)
(1.0402e-29 -5.40912e-14 -0)
(-1.34551e-30 -8.79957e-14 0)
(-4.79001e-30 -3.29094e-14 0)
(2.0899e-30 2.84982e-14 0)
(-2.54757e-30 1.82712e-14 -0)
(2.7214e-30 -2.48808e-14 -0)
(-1.0441e-24 -8.63606e-12 0)
(-2.84669e-25 1.10054e-11 -0)
(-1.6147e-26 -2.70601e-12 0)
(-5.95662e-28 4.78259e-13 -0)
(-7.71983e-29 -2.07896e-13 0)
(-1.38924e-30 -6.83522e-14 0)
(2.09151e-30 -7.12642e-14 -0)
(7.01252e-30 -8.74547e-14 -0)
(-3.11971e-30 -9.73476e-14 0)
(2.32249e-31 2.89804e-15 0)
(5.1697e-32 1.68571e-14 0)
(3.88743e-30 -4.396e-14 -0)
(-2.91043e-31 2.92698e-15 -0)
(7.51254e-30 -6.38274e-14 -0)
(4.12712e-31 -1.2652e-13 -0)
(-2.16923e-30 -3.42708e-14 0)
(-5.60382e-30 -8.19324e-14 0)
(9.27339e-31 1.33489e-14 0)
(-6.12175e-31 9.40462e-15 -0)
(8.86532e-31 -3.6072e-14 -0)
(-3.33972e-25 4.47775e-12 -0)
(-1.05094e-25 -6.575e-12 0)
(-6.23904e-27 1.57712e-12 -0)
(-2.1648e-28 -2.86832e-13 0)
(-3.16253e-29 1.15211e-13 -0)
(9.77221e-31 -7.73562e-15 -0)
(1.01273e-30 -5.137e-15 -0)
(7.88182e-30 -1.0515e-13 -0)
(-2.4789e-30 -6.01551e-14 0)
(-1.99984e-31 1.28956e-14 -0)
(6.78644e-30 -7.73407e-14 -0)
(5.93729e-31 -1.07456e-14 -0)
(3.21033e-31 1.62886e-14 0)
(2.85748e-30 5.40053e-14 0)
(2.04259e-30 9.38802e-14 0)
(-7.22771e-30 9.93647e-14 -0)
(-1.44344e-29 9.09322e-14 -0)
(1.35793e-30 -8.03937e-15 -0)
(1.32851e-30 -1.69575e-14 -0)
(3.08783e-32 4.64422e-14 0)
(-5.21896e-26 1.6767e-12 -0)
(-1.65741e-26 -2.66134e-12 0)
(-1.13675e-27 7.42328e-13 -0)
(-1.76472e-29 -1.10509e-13 0)
(-2.07586e-29 1.3376e-13 -0)
(-7.04683e-30 7.52015e-14 -0)
(-5.1205e-30 5.44407e-14 -0)
(-7.4925e-30 7.80375e-14 -0)
(-3.04708e-30 4.97236e-14 -0)
(-3.11978e-30 6.09973e-14 -0)
(-1.17846e-29 9.12456e-14 -0)
(2.55677e-31 -1.6994e-15 -0)
(-1.92814e-30 1.71912e-14 -0)
(-2.19087e-30 4.26969e-14 -0)
(1.70966e-31 5.75063e-14 0)
(-6.18745e-30 7.3421e-14 -0)
(-7.71902e-30 4.0812e-14 -0)
(1.41876e-29 -6.40975e-14 -0)
(2.23038e-30 -2.47102e-14 -0)
(-1.66152e-31 -6.45025e-15 0)
(-4.91803e-25 -4.48824e-12 0)
(-2.20034e-25 9.36558e-12 -0)
(-1.13967e-26 -2.1305e-12 0)
(-6.97812e-28 5.0721e-13 -0)
(-9.08539e-31 -1.47968e-13 0)
(3.78499e-30 -2.26438e-14 -0)
(2.73375e-31 -7.10575e-15 -0)
(-9.43452e-31 9.81782e-15 -0)
(7.54652e-30 -5.5225e-14 -0)
(5.27827e-30 -6.14127e-14 -0)
(3.48862e-30 -5.3983e-14 -0)
(4.93411e-30 -5.59307e-14 -0)
(5.70432e-30 -1.20298e-13 -0)
(-3.51606e-30 -1.15039e-13 0)
(-1.92041e-30 -1.02299e-13 0)
(6.7646e-31 -2.20702e-14 -0)
(2.42822e-30 -7.69011e-14 -0)
(-4.06293e-30 5.43238e-14 -0)
(4.49681e-31 -1.37464e-14 -0)
(-3.20972e-30 -5.12141e-14 0)
(-1.12169e-25 2.38516e-12 -0)
(-4.16623e-26 -4.0982e-12 0)
(-2.51157e-27 9.95705e-13 -0)
(-9.77363e-29 -2.03619e-13 0)
(-1.55251e-29 7.2154e-14 -0)
(-8.93821e-31 -3.02925e-14 0)
(4.71143e-30 5.36857e-14 0)
(2.48847e-30 7.16105e-14 0)
(-8.22341e-30 9.535e-14 -0)
(-3.30589e-30 3.13064e-14 -0)
(-6.8682e-30 5.35498e-14 -0)
(-4.41516e-30 4.45999e-14 -0)
(-1.52402e-30 4.73949e-14 -0)
(-1.92121e-30 6.22895e-14 -0)
(-6.46538e-30 5.72415e-14 -0)
(5.37601e-31 -8.79054e-15 -0)
(-2.12834e-32 8.49843e-16 -0)
(-1.9417e-30 2.78758e-14 -0)
(3.18339e-31 -9.71976e-15 -0)
(-1.4348e-32 -5.20945e-16 0)
(-3.35147e-25 4.58394e-12 -0)
(-1.00613e-25 -6.67344e-12 0)
(-4.87651e-27 1.32934e-12 -0)
(-2.59327e-28 -3.70974e-13 0)
(-4.29665e-30 1.87065e-14 -0)
(6.29448e-31 -2.0896e-14 -0)
(1.01645e-30 -4.90386e-14 -0)
(3.35957e-30 -4.10514e-14 -0)
(4.0075e-30 -2.63106e-14 -0)
(3.29391e-30 -3.66877e-14 -0)
(2.21785e-31 -3.92623e-15 -0)
(9.39087e-32 -1.85884e-15 -0)
(-6.24005e-32 1.64647e-15 -0)
(-2.03177e-31 3.03318e-15 -0)
(3.50978e-31 -5.14393e-15 -0)
(4.42084e-31 -2.84382e-14 -0)
(-3.4252e-30 6.239e-14 -0)
(2.75016e-30 -2.8252e-14 -0)
(4.38665e-31 -1.01003e-14 -0)
(-1.4554e-32 -3.97713e-15 0)
)
;

boundaryField
{
    movingWall
    {
        type            calculated;
        value           nonuniform List<vector> 
20
(
(0 9.35638e-12 -0)
(0 -8.27676e-12 -0)
(0 1.08249e-12 -0)
(0 -6.10323e-13 -0)
(0 -2.37946e-13 -0)
(0 -2.42941e-13 -0)
(0 -2.61282e-13 -0)
(0 -2.97704e-13 -0)
(0 -2.65659e-13 -0)
(0 -1.87218e-13 -0)
(0 -1.37153e-13 -0)
(0 -1.35086e-13 -0)
(0 -1.75989e-13 -0)
(0 -8.57847e-14 -0)
(0 -4.95528e-14 -0)
(0 -1.3456e-13 -0)
(0 -3.62291e-14 -0)
(0 -4.55558e-14 -0)
(0 -1.01003e-14 -0)
(0 -3.97713e-15 -0)
)
;
    }
    fixedWalls
    {
        type            calculated;
        value           nonuniform List<vector> 
60
(
(0 -5.16791e-11 -0)
(0 -4.03379e-12 -0)
(0 4.09858e-11 -0)
(0 -2.7744e-11 -0)
(0 1.53039e-12 -0)
(0 3.01533e-11 -0)
(0 -4.37092e-11 -0)
(0 1.56895e-11 -0)
(0 2.35389e-11 -0)
(0 -4.18259e-11 -0)
(0 3.97116e-11 -0)
(0 -2.57657e-11 -0)
(0 -3.5761e-13 -0)
(0 3.19791e-11 -0)
(0 -4.74928e-11 -0)
(0 2.84516e-11 -0)
(0 1.16374e-11 -0)
(0 -3.97104e-11 -0)
(0 1.75102e-11 -0)
(0 2.80256e-11 -0)
(0 1.5146e-14 -0)
(0 -5.60056e-14 -0)
(0 -1.70257e-16 -0)
(0 -1.81283e-14 -0)
(0 -4.1644e-14 -0)
(0 2.65977e-14 -0)
(0 -2.18628e-14 -0)
(0 -1.01803e-15 -0)
(0 3.14838e-14 -0)
(0 4.2048e-15 -0)
(0 2.88413e-15 -0)
(0 -4.02135e-14 -0)
(0 -1.74658e-14 -0)
(0 -4.3751e-14 -0)
(0 -3.69357e-14 -0)
(0 5.44761e-14 -0)
(0 1.03036e-14 -0)
(0 -2.91411e-14 -0)
(0 1.10169e-14 -0)
(0 1.46377e-15 -0)
(0 -1.55833e-11 -0)
(0 1.4326e-11 -0)
(0 -2.53238e-12 -0)
(0 9.86947e-13 -0)
(0 9.13719e-14 -0)
(0 2.11422e-13 -0)
(0 2.07373e-13 -0)
(0 2.18404e-13 -0)
(0 5.39184e-14 -0)
(0 5.90087e-14 -0)
(0 5.51093e-14 -0)
(0 8.9304e-14 -0)
(0 7.55108e-14 -0)
(0 7.49393e-14 -0)
(0 1.84703e-15 -0)
(0 1.23948e-14 -0)
(0 -7.53126e-14 -0)
(0 -1.74695e-13 -0)
(0 3.50756e-14 -0)
(0 1.90788e-15 -0)
)
;
    }
    frontAndBack
    {
        type            empty;
    }
}


// ************************************************************************* //
