/*--------------------------------*- C++ -*----------------------------------*\
| =========                 |                                                 |
| \\      /  F ield         | OpenFOAM: The Open Source CFD Toolbox           |
|  \\    /   O peration     | Version:  2506                                  |
|   \\  /    A nd           | Website:  www.openfoam.com                      |
|    \\/     M anipulation  |                                                 |
\*---------------------------------------------------------------------------*/
FoamFile
{
    version     2.0;
    format      ascii;
    arch        "LSB;label=32;scalar=64";
    class       volScalarField;
    location    "8.75";
    object      Lambda2Field;
}
// * * * * * * * * * * * * * * * * * * * * * * * * * * * * * * * * * * * * * //

dimensions      [0 0 -2 0 0 0 0];

internalField   nonuniform List<scalar> 
400
(
5.98694e-24
3.92298e-24
2.08008e-26
0
0
0
2.49775e-28
8.31248e-28
1.18486e-27
7.91457e-28
5.80071e-28
3.24871e-28
-6.90732e-28
-1.76745e-29
7.34684e-28
0
7.82131e-28
2.39136e-28
2.75692e-28
0
2.27838e-24
4.03935e-24
2.58786e-25
3.37322e-27
2.93874e-27
0
-7.14787e-28
-2.20679e-28
0
0
8.75103e-30
-8.3506e-28
1.33574e-28
0
2.85778e-28
4.40551e-28
0
0
3.47161e-28
0
2.70567e-23
9.15028e-24
0
2.89494e-26
-4.75016e-27
1.89829e-29
-4.62407e-28
-4.66066e-28
1.20502e-28
-1.05986e-27
1.12273e-27
1.94173e-27
-5.92771e-28
-1.62296e-27
0
2.05999e-27
2.12202e-30
0
9.4398e-29
1.96682e-27
1.42566e-23
5.67479e-24
1.44474e-25
1.91074e-26
0
0
9.86273e-28
3.81259e-29
0
9.4833e-30
9.67706e-28
0
-4.60861e-28
-1.29099e-27
-6.81135e-28
4.93945e-28
-2.19354e-28
5.51028e-31
2.16077e-28
5.41505e-28
1.66852e-24
2.77456e-24
1.70721e-25
7.45242e-28
0
-4.02291e-28
-2.72569e-28
-2.14718e-27
-5.19514e-30
-3.88765e-28
-3.24687e-28
0
-5.22393e-28
2.86302e-29
-1.87861e-31
1.72462e-28
3.92972e-28
3.47304e-30
1.32308e-28
1.89504e-29
3.24006e-24
3.06887e-24
0
-1.40048e-26
5.02501e-27
1.79204e-29
0
3.87742e-28
1.42333e-27
-1.71013e-27
1.87263e-27
7.34684e-28
7.76925e-28
2.80738e-28
2.37444e-29
3.94584e-28
2.99858e-28
7.14779e-30
2.10799e-29
0
1.01472e-23
5.2824e-24
-1.98114e-25
-1.6574e-26
6.27527e-27
-7.37549e-27
0
1.48449e-27
9.04158e-28
-6.76006e-28
1.68896e-27
0
0
1.88424e-28
-9.34984e-28
-1.70451e-27
3.52231e-28
3.92469e-29
0
2.85462e-29
5.34271e-24
1.95087e-24
6.61216e-27
1.71921e-26
6.36753e-27
0
-1.46057e-27
-1.96918e-27
4.38679e-28
0
3.99518e-29
0
5.12291e-29
1.72635e-28
1.47914e-28
3.11266e-29
8.827e-28
0
0
0
0
5.33689e-25
0
2.02033e-26
2.93874e-27
0
4.02361e-28
0
1.3584e-27
-1.48453e-28
1.0914e-27
4.11848e-28
0
-1.21618e-27
0
-3.45318e-28
0
0
0
2.26685e-29
0
2.42686e-24
-3.60555e-25
2.65331e-26
-7.93248e-27
2.88914e-27
0
2.78544e-30
0
-1.42724e-27
-2.43932e-28
1.29979e-28
9.01423e-29
-1.26215e-27
0
4.39528e-28
-6.06161e-28
1.68628e-30
1.05511e-28
0
0
7.64683e-25
-2.87962e-25
1.32033e-26
-7.69623e-27
9.47487e-28
8.1638e-29
1.85878e-28
0
1.47561e-28
2.87077e-28
6.83094e-28
6.28632e-28
0
0
0
0
0
0
1.87344e-29
0
1.33735e-24
0
1.74409e-26
0
-2.31161e-28
3.91624e-28
1.07129e-31
3.6325e-28
0
5.0876e-29
0
-1.08527e-27
-2.02037e-27
8.61921e-29
8.62361e-28
2.59019e-28
0
6.22872e-28
0
1.16809e-24
6.31569e-25
3.83734e-28
1.73713e-26
7.50877e-28
1.58796e-28
1.26189e-27
2.97198e-30
0
-2.05202e-27
-2.21655e-27
2.21135e-30
9.80751e-31
1.04063e-27
1.16427e-27
0
-8.64078e-29
-2.0309e-27
-2.0721e-28
7.52417e-28
0
4.54017e-25
0
0
0
3.56521e-28
-1.26532e-27
-2.27185e-27
0
8.68359e-28
6.40911e-29
0
0
7.77186e-29
-7.25879e-28
-1.09684e-27
0
1.13282e-28
0
7.54298e-29
8.44379e-24
5.6143e-24
-5.88856e-25
4.55759e-26
-7.35417e-27
5.61798e-27
2.03766e-27
0
-1.01943e-27
1.07273e-28
2.87382e-30
5.87964e-28
3.40956e-28
4.24098e-28
-1.50415e-27
0
0
5.86821e-28
3.73161e-29
0
8.90083e-24
5.13863e-24
2.32374e-26
3.06706e-26
0
0
0
-1.93566e-27
-2.35177e-28
0
3.23187e-28
3.84647e-29
2.9318e-28
5.51793e-29
-1.02134e-27
-7.33015e-28
0
0
0
4.21099e-28
4.3286e-24
4.69099e-24
1.82984e-25
4.46471e-27
0
4.97133e-28
2.39268e-28
2.6652e-28
5.59553e-28
0
-7.28149e-29
1.08671e-29
2.68717e-28
6.2413e-28
-1.78596e-28
-3.0674e-28
0
-4.47416e-28
2.08221e-29
3.84496e-29
3.56095e-23
1.11419e-23
1.86466e-25
1.52173e-26
-3.24004e-27
2.72735e-28
0
0
0
-3.60805e-28
1.23178e-29
-6.6798e-29
-5.53155e-28
0
7.98067e-28
1.3647e-28
6.28193e-28
2.2393e-28
0
1.62413e-28
7.1829e-24
5.92417e-24
2.6762e-25
9.19252e-27
-4.86371e-28
0
2.84259e-29
-9.41244e-28
-4.06558e-28
-1.13731e-28
3.64576e-29
5.20971e-28
3.69451e-28
-3.42825e-28
0
2.28159e-30
5.44011e-30
0
0
0
7.37277e-24
2.83446e-24
2.2935e-25
0
4.6875e-27
3.80185e-33
3.25281e-28
7.13336e-28
5.90638e-28
1.21996e-28
3.41311e-28
0
0
0
0
0
0
2.478e-28
0
0
)
;

boundaryField
{
    movingWall
    {
        type            calculated;
        value           nonuniform List<scalar> 
20
(
0
0
5.84262e-25
-1.34394e-26
2.34017e-26
-3.90515e-27
1.44671e-27
4.09055e-27
9.46362e-28
-4.12486e-28
0
0
2.92471e-28
2.69401e-28
0
-1.38946e-28
8.45499e-28
6.8375e-28
0
0
)
;
    }
    fixedWalls
    {
        type            calculated;
        value           nonuniform List<scalar> 
60
(
5.52787e-23
5.7982e-23
1.41526e-22
9.22161e-23
4.63919e-23
4.1073e-23
5.58938e-23
2.83987e-23
0
0
-1.95182e-23
9.41113e-24
1.62483e-23
0
4.21466e-23
6.55401e-23
7.54497e-23
1.83109e-22
9.56689e-23
4.82931e-23
0
2.04785e-28
3.06589e-27
1.32526e-27
-2.69052e-28
3.8209e-29
1.42093e-28
0
0
0
1.87344e-29
-2.14558e-28
1.20809e-27
7.54298e-29
0
0
3.84496e-29
1.359e-27
0
0
0
0
5.20435e-25
0
3.56273e-26
-5.93528e-27
3.99238e-27
3.74721e-27
3.12379e-28
0
-4.75127e-28
1.52989e-28
1.1819e-27
1.96735e-27
7.34684e-28
0
1.21756e-27
5.22401e-28
4.70948e-28
0
)
;
    }
    frontAndBack
    {
        type            empty;
    }
}


// ************************************************************************* //
