/*--------------------------------*- C++ -*----------------------------------*\
| =========                 |                                                 |
| \\      /  F ield         | OpenFOAM: The Open Source CFD Toolbox           |
|  \\    /   O peration     | Version:  2506                                  |
|   \\  /    A nd           | Website:  www.openfoam.com                      |
|    \\/     M anipulation  |                                                 |
\*---------------------------------------------------------------------------*/
FoamFile
{
    version     2.0;
    format      ascii;
    arch        "LSB;label=32;scalar=64";
    class       volScalarField;
    location    "8.75";
    object      magSqrP;
}
// * * * * * * * * * * * * * * * * * * * * * * * * * * * * * * * * * * * * * //

dimensions      [0 4 -4 0 0 0 0];

internalField   nonuniform List<scalar> 
400
(
3.49781e-31
1.0779e-29
4.28957e-30
4.29645e-30
5.03418e-30
5.36368e-30
5.87838e-30
6.9559e-30
6.57188e-30
6.19303e-30
6.20796e-30
7.17877e-30
7.38518e-30
6.97851e-30
6.48116e-30
6.72832e-30
8.05888e-30
7.15373e-30
6.49475e-30
5.93604e-30
8.38312e-30
0
4.05873e-30
3.18297e-30
5.17125e-30
5.50708e-30
6.29113e-30
6.81417e-30
6.74554e-30
6.2761e-30
6.22396e-30
7.29574e-30
7.79607e-30
6.15949e-30
5.87635e-30
6.7891e-30
7.48404e-30
8.04251e-30
7.20754e-30
5.40245e-30
4.81893e-30
6.58201e-30
4.12915e-30
4.85486e-30
4.81515e-30
6.20634e-30
6.19305e-30
6.27049e-30
6.71107e-30
6.47301e-30
7.41084e-30
7.49073e-30
6.90715e-30
7.01192e-30
6.86264e-30
6.31577e-30
7.69805e-30
6.73106e-30
7.42712e-30
5.74434e-30
3.61586e-30
9.98143e-30
5.51373e-30
5.99141e-30
6.0035e-30
6.55667e-30
5.14719e-30
5.71349e-30
6.64069e-30
6.68329e-30
7.36975e-30
6.03291e-30
5.89355e-30
6.63323e-30
7.2731e-30
6.98527e-30
7.38969e-30
6.41332e-30
6.95859e-30
7.21164e-30
5.96896e-30
5.84588e-31
6.23292e-30
6.29494e-30
7.15432e-30
6.51533e-30
6.19223e-30
5.9332e-30
6.72186e-30
7.31501e-30
6.84706e-30
6.17746e-30
6.0174e-30
6.7685e-30
7.42856e-30
7.88819e-30
6.9118e-30
5.70642e-30
6.17963e-30
7.55826e-30
3.17144e-30
1.23049e-29
6.8166e-30
8.21675e-30
7.98006e-30
6.10191e-30
6.4989e-30
6.48048e-30
7.54522e-30
8.69245e-30
7.68689e-30
6.26463e-30
6.30633e-30
7.13748e-30
7.42058e-30
7.12924e-30
6.05084e-30
5.15767e-30
5.79564e-30
7.86227e-30
5.22611e-30
1.73724e-29
8.21955e-30
8.70879e-30
7.73152e-30
7.46847e-30
7.30303e-30
7.4012e-30
8.58115e-30
8.92414e-30
7.58696e-30
7.29804e-30
7.19428e-30
7.09995e-30
7.14184e-30
7.22969e-30
5.67256e-30
4.74924e-30
5.5477e-30
7.34666e-30
1.27335e-29
0
9.94111e-30
7.57317e-30
7.447e-30
8.89842e-30
9.45452e-30
7.75704e-30
7.484e-30
8.13434e-30
8.59076e-30
7.96071e-30
6.35779e-30
7.32912e-30
8.66922e-30
6.84409e-30
5.10675e-30
5.32972e-30
5.72576e-30
7.28865e-30
6.65977e-30
3.18458e-29
1.04033e-29
1.04827e-29
9.82326e-30
1.07158e-29
1.02138e-29
9.02405e-30
7.88901e-30
8.16996e-30
8.53517e-30
6.86444e-30
7.35243e-30
8.17645e-30
8.34941e-30
6.76535e-30
5.99176e-30
5.64986e-30
6.27371e-30
7.4178e-30
9.77419e-30
7.40775e-30
1.07635e-29
1.06698e-29
1.06461e-29
1.14354e-29
1.08937e-29
9.83356e-30
8.60489e-30
8.28807e-30
8.62617e-30
7.92921e-30
8.24664e-30
7.86913e-30
8.14378e-30
6.30211e-30
6.48905e-30
6.22465e-30
6.82071e-30
7.25659e-30
1.17534e-29
4.93801e-30
1.11478e-29
1.19351e-29
1.25177e-29
1.31612e-29
1.05562e-29
9.55478e-30
8.69306e-30
8.59762e-30
8.43033e-30
6.96216e-30
7.15814e-30
7.53494e-30
8.35939e-30
7.04015e-30
7.0254e-30
7.55769e-30
6.54682e-30
7.54186e-30
1.06738e-29
3.37162e-29
1.11315e-29
1.3027e-29
1.20355e-29
1.35463e-29
1.20999e-29
1.02614e-29
8.77935e-30
8.11549e-30
8.84101e-30
8.09636e-30
8.16932e-30
8.24291e-30
7.83454e-30
8.05221e-30
8.52227e-30
8.00348e-30
6.39995e-30
7.36492e-30
1.54973e-29
8.29685e-32
1.28309e-29
1.08769e-29
1.26788e-29
1.14197e-29
1.23238e-29
1.04913e-29
8.44322e-30
8.03104e-30
7.95135e-30
8.26902e-30
9.0491e-30
8.7017e-30
8.11261e-30
7.74994e-30
8.21526e-30
8.38959e-30
7.65982e-30
8.21133e-30
9.6243e-30
3.61056e-29
1.2553e-29
1.35252e-29
1.06887e-29
1.12658e-29
1.13791e-29
1.02297e-29
9.85662e-30
9.32721e-30
7.37448e-30
7.14454e-30
8.90802e-30
8.80791e-30
9.00446e-30
8.661e-30
8.01296e-30
8.01944e-30
7.59744e-30
9.70442e-30
1.32845e-29
9.92329e-30
1.32561e-29
1.22136e-29
9.43302e-30
9.19354e-30
1.04329e-29
1.06556e-29
9.9545e-30
9.00572e-30
7.96396e-30
7.66447e-30
8.87541e-30
9.93233e-30
8.63448e-30
8.98851e-30
8.35034e-30
6.58905e-30
7.47926e-30
1.01052e-29
1.7207e-29
2.71144e-30
1.41225e-29
1.08819e-29
1.08138e-29
9.90835e-30
1.03702e-29
1.0314e-29
1.06517e-29
9.08378e-30
7.63501e-30
7.21775e-30
8.20757e-30
9.45574e-30
9.01068e-30
9.06866e-30
8.09531e-30
6.1092e-30
7.91679e-30
9.87074e-30
9.65482e-30
2.85246e-29
1.30218e-29
1.1463e-29
8.61984e-30
9.85749e-30
1.06981e-29
9.84549e-30
9.42893e-30
9.11532e-30
9.16678e-30
7.90262e-30
8.64486e-30
9.09967e-30
8.87937e-30
8.96396e-30
8.60656e-30
7.57075e-30
7.81277e-30
9.98832e-30
1.15666e-29
1.18082e-29
1.23005e-29
1.09174e-29
9.75168e-30
9.78986e-30
9.31618e-30
9.1437e-30
9.5365e-30
9.35384e-30
1.01547e-29
9.22496e-30
8.80265e-30
9.35481e-30
8.31927e-30
8.92906e-30
8.53912e-30
8.15916e-30
8.35565e-30
8.99735e-30
1.55401e-29
2.36047e-30
1.2636e-29
1.01015e-29
1.09844e-29
9.30157e-30
8.77166e-30
8.47181e-30
8.76479e-30
9.80955e-30
1.01064e-29
9.21225e-30
9.12153e-30
9.11609e-30
8.60449e-30
9.21195e-30
8.26874e-30
7.78168e-30
8.478e-30
8.6888e-30
6.02589e-30
2.35712e-29
1.28434e-29
1.17757e-29
1.06295e-29
9.21134e-30
7.81149e-30
8.60197e-30
9.56789e-30
9.69522e-30
9.70894e-30
9.33271e-30
9.08281e-30
8.79815e-30
8.21067e-30
8.81636e-30
9.04283e-30
8.43424e-30
8.50237e-30
8.59533e-30
)
;

boundaryField
{
    movingWall
    {
        type            calculated;
        value           nonuniform List<scalar> 
20
(
6.02589e-30
2.35712e-29
1.28434e-29
1.17757e-29
1.06295e-29
9.21134e-30
7.81149e-30
8.60197e-30
9.56789e-30
9.69522e-30
9.70894e-30
9.33271e-30
9.08281e-30
8.79815e-30
8.21067e-30
8.81636e-30
9.04283e-30
8.43424e-30
8.50237e-30
8.59533e-30
)
;
    }
    fixedWalls
    {
        type            calculated;
        value           nonuniform List<scalar> 
60
(
3.49781e-31
8.38312e-30
4.81893e-30
3.61586e-30
5.96896e-30
3.17144e-30
5.22611e-30
1.27335e-29
6.65977e-30
9.77419e-30
1.17534e-29
1.06738e-29
1.54973e-29
9.6243e-30
1.32845e-29
1.7207e-29
9.65482e-30
1.15666e-29
1.55401e-29
6.02589e-30
5.93604e-30
5.40245e-30
5.74434e-30
7.21164e-30
7.55826e-30
7.86227e-30
7.34666e-30
7.28865e-30
7.4178e-30
7.25659e-30
7.54186e-30
7.36492e-30
8.21133e-30
9.70442e-30
1.01052e-29
9.87074e-30
9.98832e-30
8.99735e-30
8.6888e-30
8.59533e-30
3.49781e-31
1.0779e-29
4.28957e-30
4.29645e-30
5.03418e-30
5.36368e-30
5.87838e-30
6.9559e-30
6.57188e-30
6.19303e-30
6.20796e-30
7.17877e-30
7.38518e-30
6.97851e-30
6.48116e-30
6.72832e-30
8.05888e-30
7.15373e-30
6.49475e-30
5.93604e-30
)
;
    }
    frontAndBack
    {
        type            empty;
    }
}


// ************************************************************************* //
