/*--------------------------------*- C++ -*----------------------------------*\
| =========                 |                                                 |
| \\      /  F ield         | OpenFOAM: The Open Source CFD Toolbox           |
|  \\    /   O peration     | Version:  2506                                  |
|   \\  /    A nd           | Website:  www.openfoam.com                      |
|    \\/     M anipulation  |                                                 |
\*---------------------------------------------------------------------------*/
FoamFile
{
    version     2.0;
    format      ascii;
    arch        "LSB;label=32;scalar=64";
    class       volScalarField;
    location    "8.75";
    object      p;
}
// * * * * * * * * * * * * * * * * * * * * * * * * * * * * * * * * * * * * * //

dimensions      [0 2 -2 0 0 0 0];

internalField   nonuniform List<scalar> 
400
(
5.91423e-16
3.28313e-15
2.07113e-15
2.07279e-15
2.2437e-15
2.31596e-15
2.42454e-15
2.6374e-15
2.56357e-15
2.48858e-15
2.49158e-15
2.67932e-15
2.71757e-15
2.64169e-15
2.54581e-15
2.5939e-15
2.83882e-15
2.67465e-15
2.54848e-15
2.4364e-15
2.89536e-15
0
2.01463e-15
1.78409e-15
2.27404e-15
2.34672e-15
2.50821e-15
2.6104e-15
2.59722e-15
2.50522e-15
2.49479e-15
2.70106e-15
2.79214e-15
2.48183e-15
2.42412e-15
2.60559e-15
2.7357e-15
2.83593e-15
2.68469e-15
2.32432e-15
2.19521e-15
2.56554e-15
2.03203e-15
2.20337e-15
2.19435e-15
2.49125e-15
2.48858e-15
2.50409e-15
2.59057e-15
2.54421e-15
2.72229e-15
2.73692e-15
2.62815e-15
2.648e-15
2.61966e-15
2.51312e-15
2.77454e-15
2.59443e-15
2.72527e-15
2.39674e-15
1.90154e-15
3.15934e-15
2.34813e-15
2.44774e-15
2.4502e-15
2.5606e-15
2.26874e-15
2.39029e-15
2.57695e-15
2.58521e-15
2.71473e-15
2.4562e-15
2.42766e-15
2.5755e-15
2.69687e-15
2.64297e-15
2.7184e-15
2.53245e-15
2.63791e-15
2.68545e-15
2.44315e-15
7.64584e-16
2.49658e-15
2.50897e-15
2.67476e-15
2.55251e-15
2.48842e-15
2.43582e-15
2.59265e-15
2.70463e-15
2.61669e-15
2.48545e-15
2.45304e-15
2.60163e-15
2.72554e-15
2.80859e-15
2.62903e-15
2.38881e-15
2.48589e-15
2.74923e-15
1.78085e-15
3.50784e-15
2.61086e-15
2.86649e-15
2.8249e-15
2.4702e-15
2.54929e-15
2.54568e-15
2.74686e-15
2.9483e-15
2.77252e-15
2.50293e-15
2.51124e-15
2.67161e-15
2.72407e-15
2.67006e-15
2.45985e-15
2.27105e-15
2.40741e-15
2.80397e-15
2.28607e-15
4.16802e-15
2.86698e-15
2.95107e-15
2.78056e-15
2.73285e-15
2.70241e-15
2.72051e-15
2.92936e-15
2.98733e-15
2.75444e-15
2.70149e-15
2.68222e-15
2.66457e-15
2.67242e-15
2.68881e-15
2.38171e-15
2.17927e-15
2.35535e-15
2.71047e-15
3.5684e-15
0
3.15295e-15
2.75194e-15
2.72892e-15
2.98302e-15
3.07482e-15
2.78515e-15
2.73569e-15
2.85208e-15
2.931e-15
2.82147e-15
2.52147e-15
2.70723e-15
2.94435e-15
2.61612e-15
2.25981e-15
2.30862e-15
2.39286e-15
2.69975e-15
2.58065e-15
5.64321e-15
3.22542e-15
3.2377e-15
3.13421e-15
3.2735e-15
3.19591e-15
3.00401e-15
2.80874e-15
2.85831e-15
2.9215e-15
2.62001e-15
2.71154e-15
2.85945e-15
2.88954e-15
2.60103e-15
2.44781e-15
2.37694e-15
2.50474e-15
2.72356e-15
3.12637e-15
2.72172e-15
3.28077e-15
3.26647e-15
3.26284e-15
3.38162e-15
3.30056e-15
3.13585e-15
2.93341e-15
2.8789e-15
2.93703e-15
2.81589e-15
2.8717e-15
2.8052e-15
2.85373e-15
2.5104e-15
2.54736e-15
2.49493e-15
2.61165e-15
2.69381e-15
3.42833e-15
2.22216e-15
3.33883e-15
3.45472e-15
3.53803e-15
3.62783e-15
3.24904e-15
3.09108e-15
2.9484e-15
2.93217e-15
2.9035e-15
2.63859e-15
2.67547e-15
2.74499e-15
2.89126e-15
2.65333e-15
2.65055e-15
2.74913e-15
2.55867e-15
2.74624e-15
3.26708e-15
5.80657e-15
3.33639e-15
3.6093e-15
3.46922e-15
3.68052e-15
3.47849e-15
3.20335e-15
2.963e-15
2.84877e-15
2.97338e-15
2.84541e-15
2.8582e-15
2.87105e-15
2.79903e-15
2.83764e-15
2.91929e-15
2.82904e-15
2.52981e-15
2.71384e-15
3.93666e-15
2.88043e-16
3.58203e-15
3.29801e-15
3.56073e-15
3.3793e-15
3.51053e-15
3.23903e-15
2.90572e-15
2.83391e-15
2.81981e-15
2.87559e-15
3.00817e-15
2.94986e-15
2.84827e-15
2.78387e-15
2.86623e-15
2.89648e-15
2.76764e-15
2.86554e-15
3.10231e-15
6.00879e-15
3.54302e-15
3.67767e-15
3.26935e-15
3.35645e-15
3.37329e-15
3.19839e-15
3.13953e-15
3.05405e-15
2.7156e-15
2.67293e-15
2.98463e-15
2.96781e-15
3.00074e-15
2.94296e-15
2.83072e-15
2.83186e-15
2.75635e-15
3.11519e-15
3.64479e-15
3.15013e-15
3.64089e-15
3.4948e-15
3.07132e-15
3.03208e-15
3.23001e-15
3.26428e-15
3.15507e-15
3.00095e-15
2.82205e-15
2.76848e-15
2.97916e-15
3.15156e-15
2.93845e-15
2.99809e-15
2.8897e-15
2.56691e-15
2.73482e-15
3.17886e-15
4.14813e-15
1.64664e-15
3.75799e-15
3.29878e-15
3.28844e-15
3.14775e-15
3.22028e-15
3.21155e-15
3.2637e-15
3.01393e-15
2.76315e-15
2.68659e-15
2.86489e-15
3.07502e-15
3.00178e-15
3.01142e-15
2.84523e-15
2.47168e-15
2.81368e-15
3.14177e-15
3.10722e-15
5.34084e-15
3.60857e-15
3.3857e-15
2.93596e-15
3.13966e-15
3.2708e-15
3.13775e-15
3.07066e-15
3.01916e-15
3.02767e-15
2.81116e-15
2.94021e-15
3.01657e-15
2.97983e-15
2.99399e-15
2.93369e-15
2.7515e-15
2.79513e-15
3.16043e-15
3.40097e-15
3.43631e-15
3.50721e-15
3.30415e-15
3.12277e-15
3.12887e-15
3.05224e-15
3.02386e-15
3.08812e-15
3.0584e-15
3.18664e-15
3.03726e-15
2.96693e-15
3.05856e-15
2.88431e-15
2.98815e-15
2.92218e-15
2.85642e-15
2.89061e-15
2.99956e-15
3.9421e-15
1.53638e-15
3.55472e-15
3.17828e-15
3.31427e-15
3.04985e-15
2.9617e-15
2.91064e-15
2.96054e-15
3.13202e-15
3.17906e-15
3.03517e-15
3.02019e-15
3.01929e-15
2.93334e-15
3.03512e-15
2.87554e-15
2.78957e-15
2.9117e-15
2.94768e-15
2.45477e-15
4.85501e-15
3.58377e-15
3.43158e-15
3.2603e-15
3.03502e-15
2.7949e-15
2.93291e-15
3.0932e-15
3.11372e-15
3.11592e-15
3.05495e-15
3.01377e-15
2.96617e-15
2.86543e-15
2.96924e-15
3.00713e-15
2.90418e-15
2.91588e-15
2.93178e-15
)
;

boundaryField
{
    movingWall
    {
        type            zeroGradient;
    }
    fixedWalls
    {
        type            zeroGradient;
    }
    frontAndBack
    {
        type            empty;
    }
}


// ************************************************************************* //
