/*--------------------------------*- C++ -*----------------------------------*\
| =========                 |                                                 |
| \\      /  F ield         | OpenFOAM: The Open Source CFD Toolbox           |
|  \\    /   O peration     | Version:  2506                                  |
|   \\  /    A nd           | Website:  www.openfoam.com                      |
|    \\/     M anipulation  |                                                 |
\*---------------------------------------------------------------------------*/
FoamFile
{
    version     2.0;
    format      ascii;
    arch        "LSB;label=32;scalar=64";
    class       volScalarField;
    location    "8.75";
    object      QField;
}
// * * * * * * * * * * * * * * * * * * * * * * * * * * * * * * * * * * * * * //

dimensions      [0 0 -2 0 0 0 0];

internalField   nonuniform List<scalar> 
400
(
-1.72518e-23
-6.2127e-24
-1.59771e-25
1.34432e-26
-8.88236e-28
0
4.28376e-28
-1.56295e-27
-1.21677e-27
-7.91457e-28
-5.80071e-28
-4.88546e-28
7.21377e-28
3.06438e-28
-7.47916e-28
0
-1.11548e-27
-2.39136e-28
-9.00104e-28
0
-3.07319e-23
-1.01706e-23
-6.26371e-25
-3.37322e-27
-3.41861e-27
0
7.1691e-28
3.48385e-28
0
0
-1.60365e-28
1.02078e-27
-6.26528e-28
-2.86485e-28
-1.85153e-27
-4.40551e-28
8.23591e-28
8.90047e-28
1.01006e-27
-1.19661e-28
-2.94529e-23
-9.63762e-24
1.96025e-26
-2.89494e-26
5.62156e-27
1.18095e-28
5.37963e-28
5.80385e-28
-1.20502e-28
1.08647e-27
-1.84392e-27
-2.67499e-27
8.25659e-28
2.65063e-27
8.87144e-29
-3.58398e-27
7.89687e-29
1.71087e-27
-5.26698e-28
-2.43758e-27
-2.4347e-23
-6.91936e-24
-2.09902e-25
-1.91074e-26
0
0
-2.5537e-27
-3.34727e-28
1.98791e-28
-8.34699e-29
-9.69217e-28
3.5416e-28
4.86302e-28
1.29112e-27
8.08498e-28
-4.93945e-28
1.09977e-27
2.01204e-29
-2.72233e-28
-7.12272e-28
-1.93137e-23
-5.43194e-24
-3.06515e-25
-7.45242e-28
3.24655e-29
4.0364e-28
1.29549e-27
2.42386e-27
2.48122e-28
1.13199e-27
3.64706e-28
0
6.16268e-28
2.90063e-28
1.44059e-29
-7.11914e-28
-3.92972e-28
-1.01026e-28
-1.32308e-28
-1.89504e-29
-1.43791e-23
-4.54057e-24
-3.24872e-26
1.9094e-26
-7.68562e-27
2.29485e-28
0
-1.06746e-27
-1.59119e-27
2.93531e-27
-3.41315e-27
-9.80887e-28
-9.54145e-28
-2.80738e-28
1.32078e-28
-5.38419e-28
-4.81e-28
-7.24663e-29
-1.24447e-28
-3.36842e-29
-5.06655e-24
-4.12469e-24
2.76765e-25
3.2475e-26
-6.43843e-27
7.48127e-27
3.06928e-28
-1.53029e-27
-1.63884e-27
1.67326e-27
-3.319e-27
-7.12925e-28
3.42682e-28
-3.72065e-28
9.91129e-28
1.71029e-27
2.23711e-28
-3.39612e-28
0
-2.85462e-29
4.1311e-24
-9.19444e-25
-6.93688e-26
1.77699e-26
-8.65158e-27
0
1.64901e-27
2.1429e-27
-2.01352e-28
0
-5.9003e-28
1.97541e-27
-3.88006e-28
5.30124e-29
-9.88956e-28
3.22334e-28
-2.24256e-27
0
0
0
3.15086e-24
-1.39442e-24
2.18292e-26
-1.829e-27
-3.75001e-27
-3.08138e-28
-5.85966e-28
1.51766e-28
-2.997e-27
1.7507e-28
-1.79824e-27
9.02487e-28
0
1.22192e-27
8.37812e-29
1.19546e-27
0
0
0
-2.26685e-29
2.44761e-24
-2.54968e-24
3.83676e-25
-2.65331e-26
8.97189e-27
-2.88914e-27
5.12875e-28
4.52373e-29
0
1.44773e-27
7.22365e-28
-3.0902e-28
-5.14689e-28
1.28366e-27
6.66392e-28
-1.70477e-27
6.23217e-28
3.51978e-29
-2.78419e-28
0
9.29489e-24
-5.85065e-26
3.29491e-25
-1.09395e-26
8.67303e-27
-9.47487e-28
-2.44904e-28
-3.69542e-28
0
-1.47561e-28
-2.87077e-28
-2.12526e-27
-1.3622e-27
9.4007e-29
-1.44403e-28
1.64552e-28
4.47816e-28
3.99063e-28
2.63047e-28
1.17319e-28
1.21797e-23
1.42464e-24
2.15765e-25
4.58867e-27
3.26907e-27
8.54702e-28
-4.92414e-28
8.87162e-30
-5.4674e-28
1.56951e-28
-1.93333e-28
0
1.11595e-27
2.60202e-27
-8.61921e-29
-1.02576e-27
-9.68449e-28
7.16791e-29
-2.02941e-27
8.68462e-29
1.50093e-23
2.37117e-24
-3.83734e-28
2.41939e-26
1.48547e-27
6.83124e-28
-1.95677e-27
9.34551e-29
0
2.64784e-27
2.21715e-27
-2.21135e-30
-2.68429e-29
-1.07836e-27
-1.82633e-27
0
4.08535e-28
2.04151e-27
4.03663e-28
-7.52417e-28
8.46827e-24
1.59169e-25
1.67125e-25
2.18421e-26
0
-1.24118e-28
2.02234e-27
2.27343e-27
6.78892e-31
-2.34301e-27
-1.29743e-28
-2.58784e-28
0
-6.66721e-28
7.31461e-28
1.69594e-27
1.12603e-28
-2.8849e-28
0
-2.35408e-28
-8.52232e-24
-5.6522e-24
6.00252e-25
-4.59684e-26
8.66095e-27
-7.24634e-27
-2.71106e-27
3.37763e-28
1.30368e-27
-2.80734e-28
4.59494e-29
-7.09714e-28
-1.00099e-27
-1.14551e-27
1.96238e-27
4.32834e-28
5.01946e-29
-1.96981e-27
1.65576e-28
-5.522e-29
-2.1699e-23
-7.62147e-24
-1.61336e-25
-2.61272e-26
3.81525e-27
0
0
1.93816e-27
3.22277e-28
0
-3.23187e-28
-1.68105e-28
-2.9318e-28
-1.91052e-28
1.02173e-27
1.06771e-27
-6.14069e-28
0
0
-4.21099e-28
-2.99781e-23
-8.58673e-24
-3.9698e-25
-9.50479e-27
4.26868e-27
-4.97133e-28
-8.47661e-28
-2.6652e-28
-1.20739e-27
1.7701e-28
7.44824e-28
-1.78705e-28
-2.68717e-28
-6.2413e-28
1.78685e-28
9.27342e-28
2.68554e-29
5.35999e-28
2.47368e-28
-3.36144e-28
-3.6069e-23
-1.11565e-23
-1.87913e-25
-1.53508e-26
3.276e-27
-4.5489e-28
0
0
1.2268e-28
3.90455e-28
-1.47347e-29
9.32754e-29
1.50469e-27
6.6216e-28
-1.2921e-27
-1.3647e-28
-8.03703e-28
-4.04988e-28
0
-1.62413e-28
-3.30212e-23
-9.61825e-24
-4.62595e-25
-1.75015e-26
1.86027e-27
0
-2.84259e-29
9.43277e-28
1.09878e-27
1.13878e-28
-5.78492e-29
-5.20971e-28
-3.69451e-28
4.37982e-28
-7.14944e-29
-4.0942e-29
-6.322e-29
-1.01368e-28
0
0
-1.35918e-23
-4.34544e-24
-3.23684e-25
9.3206e-27
-5.15859e-27
-1.67128e-30
-4.62038e-28
-7.13336e-28
-6.68149e-28
-2.6984e-28
-5.00755e-28
0
0
0
0
3.61352e-29
2.26743e-28
-4.21565e-28
0
0
)
;

boundaryField
{
    movingWall
    {
        type            calculated;
        value           nonuniform List<scalar> 
20
(
4.76485e-24
3.36733e-24
-9.08521e-25
9.16252e-26
-2.51573e-26
4.31324e-27
-1.15324e-27
-4.09055e-27
-1.86308e-27
7.28803e-28
-8.93653e-29
2.47647e-28
-2.92471e-28
-2.69401e-28
2.28436e-28
1.77612e-28
-9.58485e-28
-1.00447e-27
0
0
)
;
    }
    fixedWalls
    {
        type            calculated;
        value           nonuniform List<scalar> 
60
(
-1.02801e-22
-1.8106e-22
-1.50742e-22
-1.20212e-22
-1.02992e-22
-7.45966e-23
-2.71244e-23
-5.50167e-25
1.30407e-25
1.18132e-23
4.54087e-23
5.29605e-23
5.66664e-23
2.95402e-23
-4.30604e-23
-1.16181e-22
-1.58971e-22
-1.83334e-22
-1.78622e-22
-7.83541e-23
0
-1.44646e-27
-3.91248e-27
-1.66838e-27
3.94078e-28
-2.33368e-28
-1.42093e-28
0
6.07016e-29
0
3.84432e-28
3.55306e-28
-1.20809e-27
-3.85693e-28
-2.22225e-28
1.44172e-29
-8.26109e-28
-1.359e-27
0
0
1.07893e-23
8.72426e-24
-1.4553e-24
2.1047e-25
-4.35901e-26
6.00167e-27
-2.06253e-27
-4.43152e-27
-1.16762e-27
6.48362e-28
4.75194e-28
-3.36454e-28
-1.1819e-27
-2.29578e-27
-1.45901e-27
0
-1.42984e-27
-5.22401e-28
-8.21841e-28
0
)
;
    }
    frontAndBack
    {
        type            empty;
    }
}


// ************************************************************************* //
