/*--------------------------------*- C++ -*----------------------------------*\
| =========                 |                                                 |
| \\      /  F ield         | OpenFOAM: The Open Source CFD Toolbox           |
|  \\    /   O peration     | Version:  2506                                  |
|   \\  /    A nd           | Website:  www.openfoam.com                      |
|    \\/     M anipulation  |                                                 |
\*---------------------------------------------------------------------------*/
FoamFile
{
    version     2.0;
    format      ascii;
    arch        "LSB;label=32;scalar=64";
    class       volVectorField;
    location    "8.75";
    object      U;
}
// * * * * * * * * * * * * * * * * * * * * * * * * * * * * * * * * * * * * * //

dimensions      [0 1 -1 0 0 0 0];

internalField   nonuniform List<vector> 
400
(
(-1 1.30485e-13 0)
(-1 -2.79425e-14 0)
(-1 6.76485e-15 0)
(-1 -1.28636e-15 0)
(-1 4.48098e-16 0)
(-1 2.037e-17 0)
(-1 1.10234e-16 0)
(-1 1.67083e-16 0)
(-1 1.46645e-16 0)
(-1 7.19888e-17 0)
(-1 6.46765e-19 0)
(-1 -3.50154e-17 0)
(-1 -4.21531e-18 0)
(-1 9.80551e-17 0)
(-1 1.3457e-16 0)
(-1 7.95849e-17 0)
(-1 1.06224e-17 0)
(-1 -5.54677e-17 0)
(-1 -1.87862e-17 0)
(-1 3.7865e-17 0)
(-1 1.19818e-14 0)
(-1 -2.44496e-15 0)
(-1 7.1896e-16 0)
(-1 -7.07317e-17 0)
(-1 9.67111e-17 0)
(-1 -1.10163e-17 0)
(-1 4.78085e-17 0)
(-1 1.2123e-16 0)
(-1 1.12074e-16 0)
(-1 -8.95147e-19 0)
(-1 -1.76676e-16 0)
(-1 -1.45226e-16 0)
(-1 -5.11423e-17 0)
(-1 6.64607e-17 0)
(-1 1.41362e-16 0)
(-1 1.51913e-16 0)
(-1 6.00948e-17 0)
(-1 -3.24764e-17 0)
(-1 -1.47254e-16 0)
(-1 -4.48877e-18 0)
(-1 -1.10189e-13 0)
(-1 2.31615e-14 0)
(-1 -5.52274e-15 0)
(-1 1.16509e-15 0)
(-1 -1.82524e-16 0)
(-1 1.53313e-16 0)
(-1 1.24805e-16 0)
(-1 5.40763e-17 0)
(-1 7.12738e-17 0)
(-1 6.88954e-17 0)
(-1 -2.89354e-17 0)
(-1 1.01263e-16 0)
(-1 1.11359e-16 0)
(-1 -5.10442e-17 0)
(-1 -1.7858e-16 0)
(-1 -8.37741e-17 0)
(-1 4.30858e-17 0)
(-1 5.04275e-18 0)
(-1 -2.05109e-16 0)
(-1 -1.35951e-16 0)
(-1 7.49843e-14 0)
(-1 -1.65807e-14 0)
(-1 3.67184e-15 0)
(-1 -9.07596e-16 0)
(-1 1.4715e-16 0)
(-1 -5.45857e-17 0)
(-1 -3.91146e-17 0)
(-1 1.43103e-17 0)
(-1 4.95623e-17 0)
(-1 5.06945e-17 0)
(-1 1.311e-16 0)
(-1 1.3778e-16 0)
(-1 1.01464e-16 0)
(-1 -4.16333e-17 0)
(-1 -1.36706e-16 0)
(-1 -1.41061e-16 0)
(-1 4.55276e-17 0)
(-1 3.49278e-17 0)
(-1 -5.00951e-17 0)
(-1 -1.13083e-16 0)
(-1 -4.16479e-15 0)
(-1 7.99763e-16 0)
(-1 -4.01176e-16 0)
(-1 -1.99464e-16 0)
(-1 -2.63703e-16 0)
(-1 -1.93475e-16 0)
(-1 -1.89245e-16 0)
(-1 -7.66992e-18 0)
(-1 3.4317e-17 0)
(-1 3.81004e-17 0)
(-1 2.41557e-16 0)
(-1 1.72653e-16 0)
(-1 6.09196e-17 0)
(-1 -5.47098e-17 0)
(-1 -6.57253e-17 0)
(-1 -6.00247e-17 0)
(-1 -1.06805e-17 0)
(-1 1.24659e-17 0)
(-1 4.33388e-17 0)
(-1 -3.63473e-17 0)
(-1 -7.62641e-14 0)
(-1 1.60255e-14 0)
(-1 -3.73386e-15 0)
(-1 8.05551e-16 0)
(-1 -2.11637e-16 0)
(-1 -6.62025e-17 0)
(-1 -1.45456e-16 0)
(-1 -1.52029e-16 0)
(-1 -1.06299e-16 0)
(-1 5.38446e-17 0)
(-1 1.94361e-16 0)
(-1 1.46751e-16 0)
(-1 4.57482e-18 0)
(-1 -9.51405e-17 0)
(-1 -9.89992e-17 0)
(-1 -9.7361e-18 0)
(-1 4.42213e-17 0)
(-1 1.62917e-17 0)
(-1 3.82942e-17 0)
(-1 -1.26849e-18 0)
(-1 1.1178e-13 0)
(-1 -2.35224e-14 0)
(-1 5.67093e-15 0)
(-1 -9.12852e-16 0)
(-1 4.4517e-16 0)
(-1 -1.51143e-16 0)
(-1 -2.44856e-16 0)
(-1 -2.04582e-16 0)
(-1 -1.4098e-16 0)
(-1 -1.42862e-16 0)
(-1 -2.71093e-16 0)
(-1 -1.8923e-16 0)
(-1 -4.92065e-17 0)
(-1 -4.42143e-17 0)
(-1 -1.69971e-17 0)
(-1 1.38617e-16 0)
(-1 1.40749e-16 0)
(-1 3.92012e-17 0)
(-1 -2.57404e-18 0)
(-1 1.31057e-17 0)
(-1 -4.30186e-14 0)
(-1 9.7562e-15 0)
(-1 -2.27513e-15 0)
(-1 4.2314e-16 0)
(-1 -3.01869e-16 0)
(-1 -1.69051e-16 0)
(-1 -9.83757e-17 0)
(-1 1.00918e-16 0)
(-1 1.65154e-16 0)
(-1 -4.30249e-17 0)
(-1 -2.60173e-16 0)
(-1 -9.57039e-17 0)
(-1 2.31634e-17 0)
(-1 4.21271e-17 0)
(-1 -2.40693e-17 0)
(-1 1.42967e-17 0)
(-1 -4.67538e-17 0)
(-1 -4.63556e-17 0)
(-1 -2.87774e-17 0)
(-1 -2.54507e-18 0)
(-1 -5.75597e-14 0)
(-1 1.18199e-14 0)
(-1 -2.85992e-15 0)
(-1 3.98335e-16 0)
(-1 -3.52798e-16 0)
(-1 -1.14392e-16 0)
(-1 -4.33267e-17 0)
(-1 -7.27797e-17 0)
(-1 -7.13226e-17 0)
(-1 -1.12832e-16 0)
(-1 -1.35912e-16 0)
(-1 -1.28624e-16 0)
(-1 -1.20781e-16 0)
(-1 2.25766e-17 0)
(-1 1.04623e-16 0)
(-1 4.2381e-17 0)
(-1 -9.46023e-17 0)
(-1 -5.81634e-17 0)
(-1 -1.93101e-17 0)
(-1 1.09469e-17 0)
(-1 1.03684e-13 0)
(-1 -2.20938e-14 0)
(-1 5.28437e-15 0)
(-1 -1.02335e-15 0)
(-1 3.89886e-16 0)
(-1 4.25259e-17 0)
(-1 3.45841e-17 0)
(-1 -1.68959e-16 0)
(-1 -2.03411e-16 0)
(-1 -9.46163e-17 0)
(-1 6.36469e-17 0)
(-1 8.59065e-17 0)
(-1 8.56285e-17 0)
(-1 1.81712e-17 0)
(-1 -3.27683e-17 0)
(-1 -2.83004e-17 0)
(-1 -7.70522e-17 0)
(-1 -1.04942e-16 0)
(-1 8.45957e-18 0)
(-1 1.0512e-17 0)
(-1 -9.6975e-14 0)
(-1 2.09984e-14 0)
(-1 -4.84047e-15 0)
(-1 1.05607e-15 0)
(-1 -2.40375e-16 0)
(-1 1.925e-17 0)
(-1 -6.55942e-17 0)
(-1 -8.94693e-17 0)
(-1 -9.58125e-17 0)
(-1 -6.75723e-17 0)
(-1 -4.1372e-17 0)
(-1 -1.4616e-17 0)
(-1 -2.58377e-17 0)
(-1 -2.38076e-17 0)
(-1 -4.82892e-17 0)
(-1 -1.67268e-16 0)
(-1 -1.35901e-16 0)
(-1 -4.51777e-17 0)
(-1 8.34082e-17 0)
(-1 7.21032e-18 0)
(-1 6.33977e-14 0)
(-1 -1.35315e-14 0)
(-1 3.37753e-15 0)
(-1 -4.59212e-16 0)
(-1 3.00564e-16 0)
(-1 1.0456e-16 0)
(-1 -5.57696e-17 0)
(-1 -3.2622e-17 0)
(-1 -3.90816e-17 0)
(-1 -6.78474e-17 0)
(-1 -9.69863e-17 0)
(-1 -1.75454e-16 0)
(-1 -1.74844e-16 0)
(-1 3.04021e-17 0)
(-1 1.63968e-16 0)
(-1 -1.39716e-18 0)
(-1 -3.39277e-17 0)
(-1 4.0753e-17 0)
(-1 7.30638e-19 0)
(-1 -3.27712e-17 0)
(-1 -9.35567e-16 0)
(-1 2.43665e-16 0)
(-1 -9.31814e-17 0)
(-1 1.02093e-16 0)
(-1 8.07759e-17 0)
(-1 6.02545e-17 0)
(-1 -2.11078e-17 0)
(-1 -9.27424e-17 0)
(-1 -2.27073e-16 0)
(-1 -1.92873e-16 0)
(-1 2.99555e-17 0)
(-1 7.97885e-17 0)
(-1 2.95476e-17 0)
(-1 3.2651e-17 0)
(-1 -2.68887e-17 0)
(-1 1.32765e-17 0)
(-1 8.48962e-17 0)
(-1 -3.69644e-17 0)
(-1 -1.66166e-16 0)
(-1 -1.11427e-16 0)
(-1 -7.90668e-14 0)
(-1 1.68086e-14 0)
(-1 -3.98907e-15 0)
(-1 8.40779e-16 0)
(-1 2.65429e-17 0)
(-1 2.30575e-16 0)
(-1 1.52194e-16 0)
(-1 -1.53826e-17 0)
(-1 -1.27389e-16 0)
(-1 -1.19081e-16 0)
(-1 -1.047e-16 0)
(-1 -1.12088e-16 0)
(-1 -1.64941e-16 0)
(-1 -2.54571e-16 0)
(-1 -1.92305e-16 0)
(-1 1.52906e-17 0)
(-1 1.45551e-16 0)
(-1 7.33343e-17 0)
(-1 -1.39431e-16 0)
(-1 -1.09377e-16 0)
(-1 1.209e-13 0)
(-1 -2.58662e-14 0)
(-1 5.96707e-15 0)
(-1 -1.24548e-15 0)
(-1 3.71332e-16 0)
(-1 2.03248e-17 0)
(-1 -2.93487e-17 0)
(-1 -8.01845e-17 0)
(-1 3.20471e-17 0)
(-1 8.01403e-17 0)
(-1 3.06677e-18 0)
(-1 -8.84311e-17 0)
(-1 -9.94348e-17 0)
(-1 -1.17701e-16 0)
(-1 -3.26203e-18 0)
(-1 6.32966e-17 0)
(-1 6.83956e-17 0)
(-1 6.94695e-17 0)
(-1 -6.50931e-17 0)
(-1 -2.45767e-17 0)
(-1 -7.45849e-14 0)
(-1 1.59838e-14 0)
(-1 -3.95597e-15 0)
(-1 7.54727e-16 0)
(-1 -2.745e-16 0)
(-1 -1.26328e-16 0)
(-1 -1.97144e-16 0)
(-1 -7.49576e-17 0)
(-1 4.12084e-17 0)
(-1 -1.5508e-17 0)
(-1 -8.77474e-17 0)
(-1 -5.5253e-17 0)
(-1 1.9709e-17 0)
(-1 5.29112e-17 0)
(-1 2.17574e-17 0)
(-1 -7.27392e-17 0)
(-1 -1.58738e-16 0)
(-1 -1.6891e-16 0)
(-1 -7.8344e-17 0)
(-1 6.64876e-19 0)
(-1 -3.11263e-14 0)
(-1 6.22772e-15 0)
(-1 -1.53133e-15 0)
(-1 1.5969e-16 0)
(-1 -1.55193e-16 0)
(-1 -9.3706e-17 0)
(-1 -9.40566e-17 0)
(-1 -9.60114e-17 0)
(-1 -6.12804e-17 0)
(-1 -5.11462e-17 0)
(-1 -1.29153e-16 0)
(-1 -1.50451e-16 0)
(-1 -1.12159e-16 0)
(-1 -5.1312e-17 0)
(-1 2.97299e-18 0)
(-1 -8.42736e-17 0)
(-1 -1.89136e-16 0)
(-1 -2.21343e-16 0)
(-1 -9.02615e-17 0)
(-1 2.5759e-17 0)
(-1 1.09576e-13 0)
(-1 -2.34939e-14 0)
(-1 5.34929e-15 0)
(-1 -1.37578e-15 0)
(-1 6.14009e-18 0)
(-1 -1.67153e-16 0)
(-1 -3.84724e-17 0)
(-1 -9.60959e-17 0)
(-1 -1.36651e-16 0)
(-1 -8.59475e-17 0)
(-1 -6.46244e-17 0)
(-1 -8.82182e-17 0)
(-1 -4.74181e-17 0)
(-1 3.0564e-17 0)
(-1 1.87726e-17 0)
(-1 -3.06504e-17 0)
(-1 -3.15759e-17 0)
(-1 -7.47911e-17 0)
(-1 -3.27127e-17 0)
(-1 6.26726e-17 0)
(-1 -4.7028e-14 0)
(-1 1.0166e-14 0)
(-1 -2.52241e-15 0)
(-1 4.79996e-16 0)
(-1 -2.15165e-16 0)
(-1 2.95064e-17 0)
(-1 8.77594e-17 0)
(-1 3.475e-17 0)
(-1 -8.62445e-17 0)
(-1 -1.05598e-16 0)
(-1 -1.28258e-16 0)
(-1 -9.89948e-17 0)
(-1 -3.21558e-17 0)
(-1 -3.08432e-17 0)
(-1 -1.12949e-16 0)
(-1 -6.11568e-17 0)
(-1 -2.50439e-17 0)
(-1 -6.96553e-17 0)
(-1 -3.27517e-17 0)
(-1 2.75423e-17 0)
(-1 -7.31133e-14 0)
(-1 1.50766e-14 0)
(-1 -3.66838e-15 0)
(-1 6.99043e-16 0)
(-1 -2.29687e-16 0)
(-1 -3.0123e-17 0)
(-1 -2.07275e-17 0)
(-1 -8.18381e-17 0)
(-1 -1.52315e-16 0)
(-1 -8.97823e-17 0)
(-1 -5.6488e-17 0)
(-1 -5.052e-17 0)
(-1 -3.78996e-17 0)
(-1 -6.69847e-17 0)
(-1 -6.82315e-17 0)
(-1 -1.55454e-17 0)
(-1 -5.48999e-17 0)
(-1 -9.73441e-17 0)
(-1 -4.34307e-17 0)
(-1 3.65943e-18 0)
)
;

boundaryField
{
    movingWall
    {
        type            fixedValue;
        value           uniform (-1 -0 -0);
    }
    fixedWalls
    {
        type            noSlip;
    }
    frontAndBack
    {
        type            empty;
    }
}


// ************************************************************************* //
