/*--------------------------------*- C++ -*----------------------------------*\
| =========                 |                                                 |
| \\      /  F ield         | OpenFOAM: The Open Source CFD Toolbox           |
|  \\    /   O peration     | Version:  2506                                  |
|   \\  /    A nd           | Website:  www.openfoam.com                      |
|    \\/     M anipulation  |                                                 |
\*---------------------------------------------------------------------------*/
FoamFile
{
    version     2.0;
    format      ascii;
    arch        "LSB;label=32;scalar=64";
    class       volVectorField;
    location    "8.75";
    object      vorticityField;
}
// * * * * * * * * * * * * * * * * * * * * * * * * * * * * * * * * * * * * * //

dimensions      [0 0 -1 0 0 0 0];

internalField   nonuniform List<vector> 
400
(
(0 -0 9.73927e-12)
(0 -0 -1.22094e-11)
(0 -0 2.71982e-12)
(0 -0 -6.58781e-13)
(0 -0 1.57778e-13)
(0 -0 -3.37864e-14)
(0 -0 1.46713e-14)
(0 -0 3.64106e-15)
(0 -0 4.47006e-14)
(0 -0 3.96103e-14)
(0 -0 4.35097e-14)
(0 -0 -4.86207e-16)
(0 -0 6.75172e-14)
(0 -0 6.80887e-14)
(0 -0 -1.84703e-15)
(0 -0 -1.23948e-14)
(0 -0 4.07049e-14)
(0 -0 7.83743e-14)
(0 -0 9.33327e-15)
(0 -0 -1.90788e-15)
(0 -0 1.94746e-13)
(0 -0 -8.28132e-13)
(0 -0 2.64528e-13)
(0 -0 -8.0148e-15)
(0 -0 5.97155e-15)
(0 -0 -4.89026e-15)
(0 -0 6.74348e-14)
(0 -0 6.06367e-14)
(0 -0 -1.22125e-14)
(0 -0 -2.8875e-14)
(0 -0 -1.44331e-14)
(0 -0 9.38685e-14)
(0 -0 2.11687e-14)
(0 -0 4.63555e-14)
(0 -0 8.98604e-14)
(0 -0 4.60834e-14)
(0 -0 -7.2649e-14)
(0 -0 -4.78399e-14)
(0 -0 2.79877e-15)
(0 -0 6.93844e-14)
(0 -0 -5.61281e-12)
(0 -0 9.62641e-12)
(0 -0 -2.22675e-12)
(0 -0 4.79811e-13)
(0 -0 -1.55388e-13)
(0 -0 3.07329e-14)
(0 -0 -6.41338e-14)
(0 -0 -1.13773e-13)
(0 -0 -7.98333e-14)
(0 -0 -1.18441e-13)
(0 -0 -5.09734e-14)
(0 -0 -6.72858e-14)
(0 -0 -6.94408e-14)
(0 -0 -1.10309e-13)
(0 -0 -3.0378e-14)
(0 -0 -3.20435e-14)
(0 -0 8.88168e-15)
(0 -0 -7.90296e-14)
(0 -0 -1.40994e-14)
(0 -0 -2.01041e-14)
(0 -0 3.59063e-12)
(0 -0 -6.53493e-12)
(0 -0 1.5131e-12)
(0 -0 -2.98259e-13)
(0 -0 8.5301e-14)
(0 -0 -1.86264e-14)
(0 -0 6.8896e-15)
(0 -0 8.86769e-15)
(0 -0 3.07435e-14)
(0 -0 8.15379e-15)
(0 -0 -1.83965e-14)
(0 -0 -5.71737e-14)
(0 -0 -4.50464e-14)
(0 -0 -7.80271e-14)
(0 -0 -9.12579e-14)
(0 -0 -8.88169e-15)
(0 -0 7.1809e-14)
(0 -0 -9.56227e-15)
(0 -0 -4.19062e-14)
(0 -0 -1.07872e-14)
(0 -0 -2.00977e-13)
(0 -0 2.67941e-13)
(0 -0 -4.57126e-14)
(0 -0 -4.04628e-14)
(0 -0 5.4809e-14)
(0 -0 6.1656e-14)
(0 -0 7.27906e-14)
(0 -0 1.30776e-13)
(0 -0 5.87871e-14)
(0 -0 7.49341e-14)
(0 -0 4.05603e-14)
(0 -0 -1.80637e-14)
(0 -0 -4.98413e-14)
(0 -0 -1.26645e-14)
(0 -0 -2.76365e-14)
(0 -0 5.50449e-15)
(0 -0 -4.69611e-14)
(0 -0 5.40192e-15)
(0 -0 2.22237e-14)
(0 -0 2.64059e-14)
(0 -0 -5.6715e-12)
(0 -0 7.06329e-12)
(0 -0 -1.63041e-12)
(0 -0 4.06432e-13)
(0 -0 -8.71753e-14)
(0 -0 6.61806e-15)
(0 -0 -8.58265e-15)
(0 -0 3.91572e-15)
(0 -0 -3.36228e-14)
(0 -0 1.11381e-13)
(0 -0 9.06058e-14)
(0 -0 -1.89786e-14)
(0 -0 2.91593e-15)
(0 -0 1.67477e-14)
(0 -0 8.54044e-15)
(0 -0 1.4322e-14)
(0 -0 -2.45023e-14)
(0 -0 -5.92704e-16)
(0 -0 -1.75602e-15)
(0 -0 -3.08076e-14)
(0 -0 7.82289e-12)
(0 -0 -1.01501e-11)
(0 -0 2.36938e-12)
(0 -0 -5.76787e-13)
(0 -0 -5.14424e-15)
(0 -0 -1.77423e-13)
(0 -0 -8.6659e-14)
(0 -0 -7.09275e-14)
(0 -0 -2.0933e-14)
(0 -0 -1.21432e-13)
(0 -0 -8.5952e-14)
(0 -0 4.92937e-14)
(0 -0 4.16067e-14)
(0 -0 3.22094e-15)
(0 -0 7.24932e-14)
(0 -0 1.24195e-13)
(0 -0 1.71635e-14)
(0 -0 -1.43323e-14)
(0 -0 -2.60955e-15)
(0 -0 2.60519e-14)
(0 -0 -1.80835e-12)
(0 -0 3.61356e-12)
(0 -0 -9.33306e-13)
(0 -0 1.97326e-13)
(0 -0 -5.92191e-14)
(0 -0 2.03493e-14)
(0 -0 1.08312e-13)
(0 -0 1.07668e-13)
(0 -0 1.27108e-14)
(0 -0 -4.25327e-14)
(0 -0 -3.2373e-14)
(0 -0 1.09649e-13)
(0 -0 1.37831e-14)
(0 -0 2.23818e-14)
(0 -0 -2.78305e-15)
(0 -0 -2.93735e-14)
(0 -0 4.81449e-14)
(0 -0 1.79765e-15)
(0 -0 4.38105e-15)
(0 -0 3.13224e-15)
(0 -0 -5.08897e-12)
(0 -0 5.38866e-12)
(0 -0 -1.30479e-12)
(0 -0 1.96502e-13)
(0 -0 -5.12727e-14)
(0 -0 5.80522e-14)
(0 -0 -5.00489e-14)
(0 -0 -5.70097e-14)
(0 -0 -4.0052e-15)
(0 -0 -3.3564e-14)
(0 -0 2.55258e-14)
(0 -0 -5.2697e-14)
(0 -0 1.51201e-14)
(0 -0 7.67505e-14)
(0 -0 5.61906e-14)
(0 -0 -7.41326e-14)
(0 -0 -1.00544e-14)
(0 -0 7.52922e-15)
(0 -0 6.91103e-15)
(0 -0 -2.62687e-14)
(0 -0 8.51136e-12)
(0 -0 -9.59599e-12)
(0 -0 2.29678e-12)
(0 -0 -4.35239e-13)
(0 -0 1.87902e-13)
(0 -0 4.5785e-14)
(0 -0 -4.82535e-14)
(0 -0 -2.37996e-14)
(0 -0 7.43426e-15)
(0 -0 8.09159e-14)
(0 -0 7.22624e-14)
(0 -0 2.19815e-15)
(0 -0 -6.77353e-15)
(0 -0 -1.2026e-13)
(0 -0 -5.88573e-14)
(0 -0 -4.42838e-15)
(0 -0 -8.89794e-14)
(0 -0 8.55117e-15)
(0 -0 1.15454e-14)
(0 -0 -1.89716e-15)
(0 -0 -8.51923e-12)
(0 -0 9.15924e-12)
(0 -0 -2.15686e-12)
(0 -0 4.32904e-13)
(0 -0 -1.84997e-13)
(0 -0 -3.67321e-14)
(0 -0 -1.08719e-14)
(0 -0 -3.02184e-15)
(0 -0 2.1897e-15)
(0 -0 -2.1661e-14)
(0 -0 -4.89145e-14)
(0 -0 1.55342e-15)
(0 -0 -5.51293e-14)
(0 -0 -2.93502e-14)
(0 -0 -4.14511e-14)
(0 -0 -3.58663e-14)
(0 -0 3.93141e-14)
(0 -0 7.61411e-14)
(0 -0 5.94489e-14)
(0 -0 -9.06186e-15)
(0 -0 5.3932e-12)
(0 -0 -5.92071e-12)
(0 -0 1.44275e-12)
(0 -0 -2.80592e-13)
(0 -0 8.34823e-14)
(0 -0 -6.27384e-14)
(0 -0 1.33868e-14)
(0 -0 1.66881e-15)
(0 -0 5.06876e-14)
(0 -0 -3.28955e-14)
(0 -0 -1.07607e-14)
(0 -0 -7.78579e-15)
(0 -0 7.47957e-14)
(0 -0 1.15196e-13)
(0 -0 2.39251e-14)
(0 -0 7.31551e-15)
(0 -0 5.84251e-14)
(0 -0 3.05709e-14)
(0 -0 -7.35243e-15)
(0 -0 3.03091e-14)
(0 -0 6.62646e-13)
(0 -0 -7.83918e-14)
(0 -0 1.29478e-14)
(0 -0 -9.70933e-15)
(0 -0 -4.18381e-15)
(0 -0 -1.01884e-14)
(0 -0 3.89104e-14)
(0 -0 -2.05965e-14)
(0 -0 -1.0013e-14)
(0 -0 1.34123e-13)
(0 -0 1.08581e-13)
(0 -0 5.41693e-14)
(0 -0 -4.71374e-15)
(0 -0 4.85665e-14)
(0 -0 -5.61476e-14)
(0 -0 1.11785e-14)
(0 -0 -8.63393e-14)
(0 -0 -1.06421e-13)
(0 -0 -6.16564e-14)
(0 -0 6.54227e-16)
(0 -0 -6.57819e-12)
(0 -0 7.45357e-12)
(0 -0 -1.7323e-12)
(0 -0 4.28667e-13)
(0 -0 -6.10205e-14)
(0 -0 -1.454e-14)
(0 -0 -1.05911e-13)
(0 -0 -1.09273e-13)
(0 -0 -1.45895e-13)
(0 -0 -5.19412e-14)
(0 -0 -8.06159e-14)
(0 -0 -1.14444e-13)
(0 -0 -1.42483e-14)
(0 -0 -5.69465e-14)
(0 -0 5.40912e-14)
(0 -0 8.79957e-14)
(0 -0 3.29094e-14)
(0 -0 -2.84982e-14)
(0 -0 -1.82712e-14)
(0 -0 2.48808e-14)
(0 -0 8.63606e-12)
(0 -0 -1.10054e-11)
(0 -0 2.70601e-12)
(0 -0 -4.78259e-13)
(0 -0 2.07896e-13)
(0 -0 6.83522e-14)
(0 -0 7.12642e-14)
(0 -0 8.74547e-14)
(0 -0 9.73476e-14)
(0 -0 -2.89804e-15)
(0 -0 -1.68571e-14)
(0 -0 4.396e-14)
(0 -0 -2.92698e-15)
(0 -0 6.38274e-14)
(0 -0 1.2652e-13)
(0 -0 3.42708e-14)
(0 -0 8.19324e-14)
(0 -0 -1.33489e-14)
(0 -0 -9.40462e-15)
(0 -0 3.6072e-14)
(0 -0 -4.47775e-12)
(0 -0 6.575e-12)
(0 -0 -1.57712e-12)
(0 -0 2.86832e-13)
(0 -0 -1.15211e-13)
(0 -0 7.73562e-15)
(0 -0 5.137e-15)
(0 -0 1.0515e-13)
(0 -0 6.01551e-14)
(0 -0 -1.28956e-14)
(0 -0 7.73407e-14)
(0 -0 1.07456e-14)
(0 -0 -1.62886e-14)
(0 -0 -5.40053e-14)
(0 -0 -9.38802e-14)
(0 -0 -9.93647e-14)
(0 -0 -9.09322e-14)
(0 -0 8.03937e-15)
(0 -0 1.69575e-14)
(0 -0 -4.64422e-14)
(0 -0 -1.6767e-12)
(0 -0 2.66134e-12)
(0 -0 -7.42328e-13)
(0 -0 1.10509e-13)
(0 -0 -1.3376e-13)
(0 -0 -7.52015e-14)
(0 -0 -5.44407e-14)
(0 -0 -7.80375e-14)
(0 -0 -4.97236e-14)
(0 -0 -6.09973e-14)
(0 -0 -9.12456e-14)
(0 -0 1.6994e-15)
(0 -0 -1.71912e-14)
(0 -0 -4.26969e-14)
(0 -0 -5.75063e-14)
(0 -0 -7.3421e-14)
(0 -0 -4.0812e-14)
(0 -0 6.40975e-14)
(0 -0 2.47102e-14)
(0 -0 6.45025e-15)
(0 -0 4.48824e-12)
(0 -0 -9.36558e-12)
(0 -0 2.1305e-12)
(0 -0 -5.0721e-13)
(0 -0 1.47968e-13)
(0 -0 2.26438e-14)
(0 -0 7.10575e-15)
(0 -0 -9.81782e-15)
(0 -0 5.5225e-14)
(0 -0 6.14127e-14)
(0 -0 5.3983e-14)
(0 -0 5.59307e-14)
(0 -0 1.20298e-13)
(0 -0 1.15039e-13)
(0 -0 1.02299e-13)
(0 -0 2.20702e-14)
(0 -0 7.69011e-14)
(0 -0 -5.43238e-14)
(0 -0 1.37464e-14)
(0 -0 5.12141e-14)
(0 -0 -2.38516e-12)
(0 -0 4.0982e-12)
(0 -0 -9.95705e-13)
(0 -0 2.03619e-13)
(0 -0 -7.2154e-14)
(0 -0 3.02925e-14)
(0 -0 -5.36857e-14)
(0 -0 -7.16105e-14)
(0 -0 -9.535e-14)
(0 -0 -3.13064e-14)
(0 -0 -5.35498e-14)
(0 -0 -4.45999e-14)
(0 -0 -4.73949e-14)
(0 -0 -6.22895e-14)
(0 -0 -5.72415e-14)
(0 -0 8.79054e-15)
(0 -0 -8.49843e-16)
(0 -0 -2.78758e-14)
(0 -0 9.71976e-15)
(0 -0 5.20945e-16)
(0 -0 -4.58394e-12)
(0 -0 6.67344e-12)
(0 -0 -1.32934e-12)
(0 -0 3.70974e-13)
(0 -0 -1.87065e-14)
(0 -0 2.0896e-14)
(0 -0 4.90386e-14)
(0 -0 4.10514e-14)
(0 -0 2.63106e-14)
(0 -0 3.66877e-14)
(0 -0 3.92623e-15)
(0 -0 1.85884e-15)
(0 -0 -1.64647e-15)
(0 -0 -3.03318e-15)
(0 -0 5.14393e-15)
(0 -0 2.84382e-14)
(0 -0 -6.239e-14)
(0 -0 2.8252e-14)
(0 -0 1.01003e-14)
(0 -0 3.97713e-15)
)
;

boundaryField
{
    movingWall
    {
        type            calculated;
        value           nonuniform List<vector> 
20
(
(0 -0 -9.35638e-12)
(0 -0 8.27676e-12)
(0 -0 -1.08249e-12)
(0 -0 6.10323e-13)
(0 -0 2.37946e-13)
(0 -0 2.42941e-13)
(0 -0 2.61282e-13)
(0 -0 2.97704e-13)
(0 -0 2.65659e-13)
(0 -0 1.87218e-13)
(0 -0 1.37153e-13)
(0 -0 1.35086e-13)
(0 -0 1.75989e-13)
(0 -0 8.57847e-14)
(0 -0 4.95528e-14)
(0 -0 1.3456e-13)
(0 -0 3.62291e-14)
(0 -0 4.55558e-14)
(0 -0 1.01003e-14)
(0 -0 3.97713e-15)
)
;
    }
    fixedWalls
    {
        type            calculated;
        value           nonuniform List<vector> 
60
(
(0 -0 5.16791e-11)
(0 -0 4.03379e-12)
(0 -0 -4.09858e-11)
(0 -0 2.7744e-11)
(0 -0 -1.53039e-12)
(0 -0 -3.01533e-11)
(0 -0 4.37092e-11)
(0 -0 -1.56895e-11)
(0 -0 -2.35389e-11)
(0 -0 4.18259e-11)
(0 -0 -3.97116e-11)
(0 -0 2.57657e-11)
(0 -0 3.5761e-13)
(0 -0 -3.19791e-11)
(0 -0 4.74928e-11)
(0 -0 -2.84516e-11)
(0 -0 -1.16374e-11)
(0 -0 3.97104e-11)
(0 -0 -1.75102e-11)
(0 -0 -2.80256e-11)
(0 -0 -1.5146e-14)
(0 -0 5.60056e-14)
(0 -0 1.70257e-16)
(0 -0 1.81283e-14)
(0 -0 4.1644e-14)
(0 -0 -2.65977e-14)
(0 -0 2.18628e-14)
(0 -0 1.01803e-15)
(0 -0 -3.14838e-14)
(0 -0 -4.2048e-15)
(0 -0 -2.88413e-15)
(0 -0 4.02135e-14)
(0 -0 1.74658e-14)
(0 -0 4.3751e-14)
(0 -0 3.69357e-14)
(0 -0 -5.44761e-14)
(0 -0 -1.03036e-14)
(0 -0 2.91411e-14)
(0 -0 -1.10169e-14)
(0 -0 -1.46377e-15)
(0 -0 1.55833e-11)
(0 -0 -1.4326e-11)
(0 -0 2.53238e-12)
(0 -0 -9.86947e-13)
(0 -0 -9.13719e-14)
(0 -0 -2.11422e-13)
(0 -0 -2.07373e-13)
(0 -0 -2.18404e-13)
(0 -0 -5.39184e-14)
(0 -0 -5.90087e-14)
(0 -0 -5.51093e-14)
(0 -0 -8.9304e-14)
(0 -0 -7.55108e-14)
(0 -0 -7.49393e-14)
(0 -0 -1.84703e-15)
(0 -0 -1.23948e-14)
(0 -0 7.53126e-14)
(0 -0 1.74695e-13)
(0 -0 -3.50756e-14)
(0 -0 -1.90788e-15)
)
;
    }
    frontAndBack
    {
        type            empty;
    }
}


// ************************************************************************* //
