/*--------------------------------*- C++ -*----------------------------------*\
| =========                 |                                                 |
| \\      /  F ield         | OpenFOAM: The Open Source CFD Toolbox           |
|  \\    /   O peration     | Version:  2506                                  |
|   \\  /    A nd           | Website:  www.openfoam.com                      |
|    \\/     M anipulation  |                                                 |
\*---------------------------------------------------------------------------*/
FoamFile
{
    version     2.0;
    format      ascii;
    arch        "LSB;label=32;scalar=64";
    class       volScalarField;
    location    "0.875";
    object      Lambda2Field;
}
// * * * * * * * * * * * * * * * * * * * * * * * * * * * * * * * * * * * * * //

dimensions      [0 0 -2 0 0 0 0];

internalField   nonuniform List<scalar> 
400
(
0.00753212
0.0315847
0.0712319
0.0933113
0.103222
0.102559
0.0973389
0.0921489
0.0922417
0.100965
0.104867
0.130558
0.171446
0.200366
0.231806
0.254753
0.248229
0.204322
0.112076
0.0409285
0.0303085
0.0667272
0.0933955
0.109542
0.114915
0.111706
0.102465
0.089241
0.0740692
0.0595596
0.0494266
0.0479278
0.0618845
0.0978805
0.154001
0.218437
0.266797
0.273758
0.231867
0.121265
0.0679425
0.0911991
0.111415
0.119342
0.122662
0.120179
0.112203
0.0997724
0.0846986
0.0700062
0.0596504
0.0605054
0.0803153
0.124297
0.191431
0.269592
0.336132
0.365402
0.336051
0.242253
0.0919642
0.109897
0.121772
0.126935
0.129365
0.129014
0.125201
0.118322
0.109877
0.10276
0.101853
0.114101
0.147329
0.207247
0.292789
0.391356
0.470016
0.509243
0.474362
0.332905
0.106284
0.122831
0.132475
0.136184
0.138803
0.141354
0.143461
0.145388
0.148605
0.156217
0.173643
0.208526
0.26998
0.364092
0.491023
0.635447
0.744413
0.786914
0.693685
0.44209
0.110946
0.131748
0.142962
0.147086
0.151147
0.157936
0.167575
0.181177
0.201129
0.231804
0.280561
0.358044
0.475891
0.645761
0.873721
1.13385
1.30927
1.33896
1.09045
0.658617
0.110057
0.138171
0.152538
0.158604
0.165036
0.176556
0.194887
0.222972
0.265817
0.331787
0.432505
0.585679
0.817185
1.16386
1.63826
2.21273
2.62236
2.60405
1.90623
1.24806
0.106253
0.142797
0.160429
0.168539
0.177366
0.193689
0.221477
0.26674
0.33924
0.455237
0.640742
0.930454
1.39868
2.14029
3.25699
4.76283
6.14529
5.9967
3.3257
2.99917
0.10056
0.145738
0.165649
0.17456
0.184454
0.204364
0.241115
0.30523
0.414331
0.598894
0.911332
1.44114
2.37535
4.07066
6.96019
11.1861
15.5515
14.2326
4.67607
2.33929
0.0920844
0.146839
0.167193
0.174262
0.182273
0.202798
0.24606
0.328523
0.47912
0.750427
1.2414
2.15637
4.0076
8.04467
15.5142
26.4657
34.4343
33.3339
9.31584
-6.40315
0.078619
0.145947
0.164216
0.165516
0.167174
0.183709
0.228917
0.326139
0.518167
0.886157
1.59883
3.08222
6.44509
13.3327
22.2644
26.7403
31.9854
45.371
39.1234
-4.24002
0.049058
0.142955
0.156612
0.147181
0.137496
0.145018
0.186766
0.292811
0.519991
0.979873
1.92586
3.89523
8.52124
13.8675
4.96341
-23.2625
-42.4311
-0.0540115
51.2638
57.6061
0.0164235
0.138999
0.145228
0.12029
0.0959236
0.0914571
0.126368
0.235507
0.486536
1.0189
2.09845
4.21367
8.2188
6.42603
-23.8392
-93.3978
-140.104
-116.302
5.20243
135.479
0
0.136228
0.133955
0.0891547
0.0497069
0.0369286
0.0696934
0.185019
0.453423
1.01175
2.13583
4.22869
6.83833
3.1141
-31.734
-99.2347
-139.141
-142.817
-63.4216
142.755
-0.0122415
0.141712
0.121838
0.0574685
0.010287
0.000704547
0.044182
0.179049
0.475761
1.05473
2.14964
4.0938
6.66338
4.58878
-15.8965
-57.3087
-73.3761
-67.23
-59.2504
101.407
0
0.062235
0.0665053
0.00852192
-0.0197602
-0.00880286
0.0610264
0.234367
0.570549
1.18381
2.21552
3.90247
6.09504
5.50759
-1.66005
-18.6792
-24.3883
-13.701
-44.3028
47.6638
0
0.143392
0
0
-0.0935931
-0.040499
0
0.206648
0.646207
1.37161
2.45164
3.86448
5.32671
4.86991
0.229796
-7.10082
-7.27668
-12.239
-0.489807
37.6291
0
0
0
0
0
0
0
0
0.306156
1.42819
2.84733
4.18088
4.55691
2.4097
-2.94454
-13.434
-20.7595
-32.6699
15.0399
277.82
9.905
0
0
0
0
0
0
0
0
0
1.11588
2.71465
2.84887
0
-7.8844
-21.3923
-34.4765
-18.9987
-126.142
983.564
3223.57
-583.764
-678.823
-363.257
-168.618
-91.6939
-60.3049
-42.5315
-30.953
-23.0749
-17.906
-14.2487
-13.0857
-10.7412
-32.5866
0
0
0
-219.924
1635.07
)
;

boundaryField
{
    movingWall
    {
        type            calculated;
        value           nonuniform List<scalar> 
20
(
1607.36
0
0
0
0
0
0
0
0
0
0
0
0
0
0
0
-96.1731
0
-1345.48
2890.32
)
;
    }
    fixedWalls
    {
        type            calculated;
        value           nonuniform List<scalar> 
60
(
0
0.0234096
0.0497092
0.0666006
0.0781773
0.0816922
0.0806066
0.0771491
0.0712854
0.059214
0.0328382
0
0
0
-0.140833
0
0
0
32.7196
6853.7
0.00697077
0.0943349
0.190523
0.279825
0.462132
0.712797
1.54885
1.80801
0
0
-10.0478
19.2409
74.258
82.2845
7.09959
0
88.1603
774.375
3182.63
2212.38
0
0.0252847
0.0557395
0.0766445
0.0913362
0.097154
0.0992774
0.103121
0.117698
0.151322
0.180596
0.221321
0.304376
0.313553
0.305238
0.276673
0.223149
0.161607
0.0878937
0.00539927
)
;
    }
    frontAndBack
    {
        type            empty;
    }
}


// ************************************************************************* //
