/*--------------------------------*- C++ -*----------------------------------*\
| =========                 |                                                 |
| \\      /  F ield         | OpenFOAM: The Open Source CFD Toolbox           |
|  \\    /   O peration     | Version:  2506                                  |
|   \\  /    A nd           | Website:  www.openfoam.com                      |
|    \\/     M anipulation  |                                                 |
\*---------------------------------------------------------------------------*/
FoamFile
{
    version     2.0;
    format      ascii;
    arch        "LSB;label=32;scalar=64";
    class       volVectorField;
    location    "6.125";
    object      diffU;
}
// * * * * * * * * * * * * * * * * * * * * * * * * * * * * * * * * * * * * * //

dimensions      [0 1 -1 0 0 0 0];

internalField   nonuniform List<vector> 
400
(
(0 0 0)
(2.19824e-14 -1.43523e-13 0)
(1.68754e-14 -1.11797e-13 0)
(1.74305e-14 -1.19143e-13 0)
(1.72085e-14 -1.17497e-13 0)
(1.73195e-14 -1.17835e-13 0)
(1.72085e-14 -1.1777e-13 0)
(1.70974e-14 -1.17823e-13 0)
(1.70974e-14 -1.17856e-13 0)
(1.70974e-14 -1.17859e-13 0)
(1.70974e-14 -1.17817e-13 0)
(1.69864e-14 -1.17824e-13 0)
(1.70974e-14 -1.17799e-13 0)
(1.72085e-14 -1.17724e-13 0)
(1.70974e-14 -1.17777e-13 0)
(1.68754e-14 -1.17845e-13 0)
(1.70974e-14 -1.17914e-13 0)
(1.68754e-14 -1.17859e-13 0)
(1.72085e-14 -1.17791e-13 0)
(1.70974e-14 -1.17761e-13 0)
(4.75175e-14 -9.49408e-14 0)
(8.65974e-15 -1.22763e-13 0)
(1.75415e-14 -1.16534e-13 0)
(1.64313e-14 -1.18019e-13 0)
(1.64313e-14 -1.17782e-13 0)
(1.64313e-14 -1.17857e-13 0)
(1.64313e-14 -1.17822e-13 0)
(1.64313e-14 -1.17849e-13 0)
(1.66533e-14 -1.17853e-13 0)
(1.64313e-14 -1.17797e-13 0)
(1.64313e-14 -1.17754e-13 0)
(1.64313e-14 -1.17804e-13 0)
(1.62093e-14 -1.17852e-13 0)
(1.64313e-14 -1.1783e-13 0)
(1.64313e-14 -1.17848e-13 0)
(1.69864e-14 -1.1783e-13 0)
(1.68754e-14 -1.17822e-13 0)
(1.69864e-14 -1.1784e-13 0)
(1.66533e-14 -1.17814e-13 0)
(1.66533e-14 -1.1776e-13 0)
(7.99361e-15 -2.40734e-13 0)
(1.83187e-14 -9.05948e-14 0)
(1.59872e-14 -1.24302e-13 0)
(1.66533e-14 -1.16343e-13 0)
(1.68754e-14 -1.18097e-13 0)
(1.64313e-14 -1.17721e-13 0)
(1.64313e-14 -1.17812e-13 0)
(1.64313e-14 -1.17793e-13 0)
(1.62093e-14 -1.178e-13 0)
(1.64313e-14 -1.17807e-13 0)
(1.62093e-14 -1.1778e-13 0)
(1.68754e-14 -1.17779e-13 0)
(1.64313e-14 -1.17857e-13 0)
(1.66533e-14 -1.17983e-13 0)
(1.64313e-14 -1.17959e-13 0)
(1.66533e-14 -1.17886e-13 0)
(1.64313e-14 -1.17827e-13 0)
(1.66533e-14 -1.17896e-13 0)
(1.66533e-14 -1.17962e-13 0)
(1.66533e-14 -1.17902e-13 0)
(-8.88178e-16 -2.87372e-14 0)
(2.24265e-14 -1.37415e-13 0)
(1.66533e-14 -1.13445e-13 0)
(1.74305e-14 -1.18873e-13 0)
(1.68754e-14 -1.17567e-13 0)
(1.69864e-14 -1.17855e-13 0)
(1.73195e-14 -1.1785e-13 0)
(1.69864e-14 -1.17843e-13 0)
(1.74305e-14 -1.17814e-13 0)
(1.69864e-14 -1.17855e-13 0)
(1.70974e-14 -1.17923e-13 0)
(1.73195e-14 -1.17836e-13 0)
(1.72085e-14 -1.17747e-13 0)
(1.72085e-14 -1.1784e-13 0)
(1.68754e-14 -1.17875e-13 0)
(1.70974e-14 -1.17897e-13 0)
(1.69864e-14 -1.17878e-13 0)
(1.69864e-14 -1.17928e-13 0)
(1.69864e-14 -1.17978e-13 0)
(1.68754e-14 -1.17959e-13 0)
(3.26406e-14 -1.26617e-13 0)
(1.28786e-14 -1.16327e-13 0)
(1.74305e-14 -1.18042e-13 0)
(1.74305e-14 -1.17666e-13 0)
(1.73195e-14 -1.17756e-13 0)
(1.73195e-14 -1.17827e-13 0)
(1.74305e-14 -1.17817e-13 0)
(1.74305e-14 -1.17742e-13 0)
(1.74305e-14 -1.17694e-13 0)
(1.73195e-14 -1.17762e-13 0)
(1.75415e-14 -1.17902e-13 0)
(1.70974e-14 -1.17882e-13 0)
(1.72085e-14 -1.17766e-13 0)
(1.70974e-14 -1.17851e-13 0)
(1.69864e-14 -1.17907e-13 0)
(1.72085e-14 -1.17808e-13 0)
(1.72085e-14 -1.17705e-13 0)
(1.69864e-14 -1.17771e-13 0)
(1.69864e-14 -1.17858e-13 0)
(1.69864e-14 -1.17908e-13 0)
(8.65974e-15 -1.95827e-13 0)
(1.79856e-14 -1.01239e-13 0)
(1.59872e-14 -1.2178e-13 0)
(1.59872e-14 -1.1704e-13 0)
(1.64313e-14 -1.18113e-13 0)
(1.64313e-14 -1.17833e-13 0)
(1.66533e-14 -1.17812e-13 0)
(1.62093e-14 -1.17833e-13 0)
(1.66533e-14 -1.17861e-13 0)
(1.64313e-14 -1.17855e-13 0)
(1.66533e-14 -1.17819e-13 0)
(1.66533e-14 -1.17793e-13 0)
(1.66533e-14 -1.17796e-13 0)
(1.70974e-14 -1.17838e-13 0)
(1.68754e-14 -1.17874e-13 0)
(1.66533e-14 -1.17839e-13 0)
(1.66533e-14 -1.17804e-13 0)
(1.68754e-14 -1.17791e-13 0)
(1.68754e-14 -1.17835e-13 0)
(1.68754e-14 -1.17872e-13 0)
(1.69864e-14 -1.17172e-14 0)
(1.79856e-14 -1.39918e-13 0)
(1.72085e-14 -1.12713e-13 0)
(1.70974e-14 -1.19128e-13 0)
(1.70974e-14 -1.17819e-13 0)
(1.69864e-14 -1.17942e-13 0)
(1.69864e-14 -1.17826e-13 0)
(1.70974e-14 -1.17817e-13 0)
(1.70974e-14 -1.17796e-13 0)
(1.69864e-14 -1.17729e-13 0)
(1.69864e-14 -1.17733e-13 0)
(1.68754e-14 -1.17871e-13 0)
(1.68754e-14 -1.1806e-13 0)
(1.73195e-14 -1.17962e-13 0)
(1.72085e-14 -1.17675e-13 0)
(1.70974e-14 -1.17694e-13 0)
(1.73195e-14 -1.17825e-13 0)
(1.72085e-14 -1.17865e-13 0)
(1.69864e-14 -1.1782e-13 0)
(1.69864e-14 -1.17868e-13 0)
(1.84297e-14 -1.53322e-13 0)
(1.46549e-14 -1.10205e-13 0)
(1.55431e-14 -1.19579e-13 0)
(1.64313e-14 -1.17581e-13 0)
(1.59872e-14 -1.17919e-13 0)
(1.64313e-14 -1.17855e-13 0)
(1.62093e-14 -1.17874e-13 0)
(1.62093e-14 -1.17777e-13 0)
(1.59872e-14 -1.1776e-13 0)
(1.62093e-14 -1.17828e-13 0)
(1.64313e-14 -1.17916e-13 0)
(1.68754e-14 -1.1804e-13 0)
(1.68754e-14 -1.18089e-13 0)
(1.64313e-14 -1.17843e-13 0)
(1.62093e-14 -1.17592e-13 0)
(1.64313e-14 -1.17602e-13 0)
(1.68754e-14 -1.17807e-13 0)
(1.64313e-14 -1.17894e-13 0)
(1.68754e-14 -1.17836e-13 0)
(1.68754e-14 -1.1785e-13 0)
(1.95399e-14 -1.68615e-13 0)
(1.80966e-14 -1.06952e-13 0)
(1.87628e-14 -1.20553e-13 0)
(1.74305e-14 -1.17385e-13 0)
(1.76525e-14 -1.17993e-13 0)
(1.74305e-14 -1.17854e-13 0)
(1.73195e-14 -1.1784e-13 0)
(1.72085e-14 -1.17846e-13 0)
(1.72085e-14 -1.17886e-13 0)
(1.70974e-14 -1.17894e-13 0)
(1.69864e-14 -1.17812e-13 0)
(1.66533e-14 -1.17756e-13 0)
(1.64313e-14 -1.17723e-13 0)
(1.59872e-14 -1.17722e-13 0)
(1.64313e-14 -1.17936e-13 0)
(1.68754e-14 -1.18031e-13 0)
(1.70974e-14 -1.17968e-13 0)
(1.69864e-14 -1.17839e-13 0)
(1.68754e-14 -1.17837e-13 0)
(1.69864e-14 -1.17877e-13 0)
(1.02141e-14 -3.45596e-14 0)
(1.72085e-14 -1.3593e-13 0)
(1.62093e-14 -1.13738e-13 0)
(1.68754e-14 -1.18697e-13 0)
(1.66533e-14 -1.1758e-13 0)
(1.64313e-14 -1.17755e-13 0)
(1.66533e-14 -1.17631e-13 0)
(1.66533e-14 -1.17597e-13 0)
(1.66533e-14 -1.1764e-13 0)
(1.64313e-14 -1.17702e-13 0)
(1.64313e-14 -1.17669e-13 0)
(1.66533e-14 -1.17668e-13 0)
(1.69864e-14 -1.17684e-13 0)
(1.69864e-14 -1.17906e-13 0)
(1.72085e-14 -1.18133e-13 0)
(1.70974e-14 -1.18138e-13 0)
(1.69864e-14 -1.17964e-13 0)
(1.66533e-14 -1.17806e-13 0)
(1.68754e-14 -1.17847e-13 0)
(1.70974e-14 -1.17868e-13 0)
(1.9984e-14 -1.92825e-13 0)
(1.59872e-14 -1.01968e-13 0)
(1.66533e-14 -1.2145e-13 0)
(1.64313e-14 -1.17028e-13 0)
(1.64313e-14 -1.18061e-13 0)
(1.66533e-14 -1.1786e-13 0)
(1.66533e-14 -1.17878e-13 0)
(1.66533e-14 -1.17881e-13 0)
(1.70974e-14 -1.17927e-13 0)
(1.68754e-14 -1.17985e-13 0)
(1.72085e-14 -1.17936e-13 0)
(1.72085e-14 -1.17879e-13 0)
(1.70974e-14 -1.17868e-13 0)
(1.72085e-14 -1.17958e-13 0)
(1.73195e-14 -1.17935e-13 0)
(1.70974e-14 -1.17891e-13 0)
(1.69864e-14 -1.17801e-13 0)
(1.68754e-14 -1.17807e-13 0)
(1.69864e-14 -1.17837e-13 0)
(1.69864e-14 -1.17798e-13 0)
(2.12053e-14 -7.34986e-14 0)
(1.75415e-14 -1.26815e-13 0)
(1.85407e-14 -1.15653e-13 0)
(1.74305e-14 -1.18145e-13 0)
(1.76525e-14 -1.17699e-13 0)
(1.72085e-14 -1.17798e-13 0)
(1.73195e-14 -1.17761e-13 0)
(1.70974e-14 -1.17892e-13 0)
(1.72085e-14 -1.17961e-13 0)
(1.73195e-14 -1.17933e-13 0)
(1.72085e-14 -1.17826e-13 0)
(1.69864e-14 -1.17745e-13 0)
(1.70974e-14 -1.17724e-13 0)
(1.69864e-14 -1.17786e-13 0)
(1.64313e-14 -1.17851e-13 0)
(1.68754e-14 -1.17902e-13 0)
(1.64313e-14 -1.17829e-13 0)
(1.68754e-14 -1.17826e-13 0)
(1.68754e-14 -1.17779e-13 0)
(1.68754e-14 -1.17764e-13 0)
(6.21725e-15 -1.04985e-13 0)
(1.70974e-14 -1.20951e-13 0)
(1.44329e-14 -1.17017e-13 0)
(1.64313e-14 -1.17822e-13 0)
(1.59872e-14 -1.17619e-13 0)
(1.62093e-14 -1.1776e-13 0)
(1.59872e-14 -1.17826e-13 0)
(1.64313e-14 -1.17963e-13 0)
(1.64313e-14 -1.17961e-13 0)
(1.62093e-14 -1.17885e-13 0)
(1.64313e-14 -1.17896e-13 0)
(1.64313e-14 -1.17827e-13 0)
(1.66533e-14 -1.17759e-13 0)
(1.66533e-14 -1.17679e-13 0)
(1.66533e-14 -1.17743e-13 0)
(1.68754e-14 -1.17844e-13 0)
(1.64313e-14 -1.18008e-13 0)
(1.66533e-14 -1.18051e-13 0)
(1.66533e-14 -1.17897e-13 0)
(1.66533e-14 -1.17846e-13 0)
(2.16493e-14 -1.85032e-13 0)
(1.59872e-14 -1.03841e-13 0)
(1.75415e-14 -1.21197e-13 0)
(1.66533e-14 -1.17114e-13 0)
(1.72085e-14 -1.17941e-13 0)
(1.69864e-14 -1.17871e-13 0)
(1.73195e-14 -1.1805e-13 0)
(1.73195e-14 -1.18082e-13 0)
(1.70974e-14 -1.18077e-13 0)
(1.70974e-14 -1.17997e-13 0)
(1.70974e-14 -1.17948e-13 0)
(1.69864e-14 -1.17839e-13 0)
(1.70974e-14 -1.17841e-13 0)
(1.69864e-14 -1.17702e-13 0)
(1.70974e-14 -1.1766e-13 0)
(1.69864e-14 -1.17797e-13 0)
(1.73195e-14 -1.17974e-13 0)
(1.68754e-14 -1.17977e-13 0)
(1.68754e-14 -1.1793e-13 0)
(1.68754e-14 -1.17935e-13 0)
(1.44329e-14 -3.07049e-14 0)
(1.73195e-14 -1.36673e-13 0)
(1.64313e-14 -1.13624e-13 0)
(1.66533e-14 -1.18883e-13 0)
(1.66533e-14 -1.17703e-13 0)
(1.66533e-14 -1.17941e-13 0)
(1.64313e-14 -1.17982e-13 0)
(1.64313e-14 -1.17972e-13 0)
(1.64313e-14 -1.17939e-13 0)
(1.64313e-14 -1.17839e-13 0)
(1.62093e-14 -1.17708e-13 0)
(1.62093e-14 -1.17695e-13 0)
(1.64313e-14 -1.17779e-13 0)
(1.62093e-14 -1.17901e-13 0)
(1.66533e-14 -1.17897e-13 0)
(1.70974e-14 -1.17871e-13 0)
(1.68754e-14 -1.17841e-13 0)
(1.68754e-14 -1.17826e-13 0)
(1.68754e-14 -1.17891e-13 0)
(1.69864e-14 -1.17881e-13 0)
(2.40918e-14 -1.76874e-13 0)
(1.37668e-14 -1.04773e-13 0)
(1.66533e-14 -1.20902e-13 0)
(1.64313e-14 -1.17271e-13 0)
(1.62093e-14 -1.18106e-13 0)
(1.66533e-14 -1.17831e-13 0)
(1.66533e-14 -1.17789e-13 0)
(1.66533e-14 -1.17789e-13 0)
(1.64313e-14 -1.17857e-13 0)
(1.62093e-14 -1.17926e-13 0)
(1.62093e-14 -1.17957e-13 0)
(1.64313e-14 -1.1797e-13 0)
(1.72085e-14 -1.17952e-13 0)
(1.69864e-14 -1.18061e-13 0)
(1.70974e-14 -1.18067e-13 0)
(1.68754e-14 -1.17955e-13 0)
(1.68754e-14 -1.1781e-13 0)
(1.68754e-14 -1.17829e-13 0)
(1.68754e-14 -1.1791e-13 0)
(1.68754e-14 -1.17853e-13 0)
(8.88178e-16 -1.28957e-13 0)
(2.15383e-14 -1.15559e-13 0)
(1.70974e-14 -1.18366e-13 0)
(1.69864e-14 -1.17767e-13 0)
(1.66533e-14 -1.17929e-13 0)
(1.68754e-14 -1.17946e-13 0)
(1.66533e-14 -1.17917e-13 0)
(1.68754e-14 -1.17937e-13 0)
(1.72085e-14 -1.17961e-13 0)
(1.72085e-14 -1.18072e-13 0)
(1.69864e-14 -1.18124e-13 0)
(1.69864e-14 -1.18119e-13 0)
(1.72085e-14 -1.18011e-13 0)
(1.69864e-14 -1.17995e-13 0)
(1.72085e-14 -1.1795e-13 0)
(1.69864e-14 -1.17877e-13 0)
(1.66533e-14 -1.17805e-13 0)
(1.70974e-14 -1.17796e-13 0)
(1.68754e-14 -1.17851e-13 0)
(1.68754e-14 -1.17895e-13 0)
(1.84297e-14 -2.54654e-14 0)
(1.72085e-14 -1.37613e-13 0)
(1.74305e-14 -1.13126e-13 0)
(1.76525e-14 -1.18861e-13 0)
(1.77636e-14 -1.17604e-13 0)
(1.76525e-14 -1.17962e-13 0)
(1.77636e-14 -1.17968e-13 0)
(1.76525e-14 -1.17953e-13 0)
(1.74305e-14 -1.17802e-13 0)
(1.73195e-14 -1.17763e-13 0)
(1.69864e-14 -1.17821e-13 0)
(1.68754e-14 -1.17983e-13 0)
(1.68754e-14 -1.18095e-13 0)
(1.70974e-14 -1.18023e-13 0)
(1.69864e-14 -1.17868e-13 0)
(1.68754e-14 -1.17759e-13 0)
(1.68754e-14 -1.17771e-13 0)
(1.68754e-14 -1.17804e-13 0)
(1.69864e-14 -1.17824e-13 0)
(1.69864e-14 -1.17857e-13 0)
(4.06342e-14 -1.61718e-13 0)
(1.08802e-14 -1.08601e-13 0)
(1.75415e-14 -1.20046e-13 0)
(1.62093e-14 -1.17439e-13 0)
(1.66533e-14 -1.17935e-13 0)
(1.68754e-14 -1.17815e-13 0)
(1.62093e-14 -1.17883e-13 0)
(1.64313e-14 -1.17825e-13 0)
(1.64313e-14 -1.17796e-13 0)
(1.68754e-14 -1.17738e-13 0)
(1.68754e-14 -1.17773e-13 0)
(1.68754e-14 -1.17914e-13 0)
(1.68754e-14 -1.18023e-13 0)
(1.66533e-14 -1.1794e-13 0)
(1.66533e-14 -1.17966e-13 0)
(1.66533e-14 -1.17983e-13 0)
(1.68754e-14 -1.17875e-13 0)
(1.68754e-14 -1.1782e-13 0)
(1.68754e-14 -1.17848e-13 0)
(1.68754e-14 -1.17847e-13 0)
(4.88498e-15 -1.99864e-13 0)
(2.06501e-14 -1.00218e-13 0)
(1.74305e-14 -1.22004e-13 0)
(1.78746e-14 -1.16991e-13 0)
(1.76525e-14 -1.18099e-13 0)
(1.77636e-14 -1.1788e-13 0)
(1.76525e-14 -1.17992e-13 0)
(1.76525e-14 -1.17981e-13 0)
(1.75415e-14 -1.17987e-13 0)
(1.73195e-14 -1.17914e-13 0)
(1.74305e-14 -1.17847e-13 0)
(1.73195e-14 -1.17867e-13 0)
(1.73195e-14 -1.1786e-13 0)
(1.72085e-14 -1.17886e-13 0)
(1.73195e-14 -1.17981e-13 0)
(1.68754e-14 -1.18014e-13 0)
(1.68754e-14 -1.17911e-13 0)
(1.68754e-14 -1.17835e-13 0)
(1.68754e-14 -1.17838e-13 0)
(1.68754e-14 -1.17867e-13 0)
)
;

boundaryField
{
    movingWall
    {
        type            calculated;
        value           uniform (1.68754e-14 -1.17845e-13 0);
    }
    fixedWalls
    {
        type            calculated;
        value           uniform (1.68754e-14 -1.17845e-13 0);
    }
    frontAndBack
    {
        type            empty;
    }
}


// ************************************************************************* //
