/*--------------------------------*- C++ -*----------------------------------*\
| =========                 |                                                 |
| \\      /  F ield         | OpenFOAM: The Open Source CFD Toolbox           |
|  \\    /   O peration     | Version:  2506                                  |
|   \\  /    A nd           | Website:  www.openfoam.com                      |
|    \\/     M anipulation  |                                                 |
\*---------------------------------------------------------------------------*/
FoamFile
{
    version     2.0;
    format      ascii;
    arch        "LSB;label=32;scalar=64";
    class       volScalarField;
    location    "6.125";
    object      divU;
}
// * * * * * * * * * * * * * * * * * * * * * * * * * * * * * * * * * * * * * //

dimensions      [0 0 -1 0 0 0 0];

internalField   nonuniform List<scalar> 
400
(
1.28749e-11
-1.35194e-12
2.75072e-13
-1.20047e-13
4.11862e-14
-1.9962e-16
-1.72271e-14
1.74653e-15
-1.81628e-15
3.39887e-15
1.19424e-14
6.2771e-15
3.88542e-15
1.36882e-14
-2.05665e-14
1.51647e-15
-4.50204e-15
-8.34702e-16
3.56103e-14
-2.71051e-14
-2.17925e-11
2.2875e-12
-4.60424e-13
1.59953e-13
-7.29983e-14
1.12665e-14
5.61264e-15
4.81643e-15
3.76991e-15
8.62029e-15
1.56167e-14
1.07273e-14
-5.60796e-14
1.4835e-14
1.54937e-14
7.8741e-14
4.16393e-15
-3.16358e-14
-6.28082e-14
2.71051e-14
5.85469e-12
-6.41405e-13
1.19586e-13
-6.74615e-15
2.97277e-14
-1.56261e-14
2.81751e-15
5.47561e-15
7.61304e-15
2.8768e-15
-2.8312e-14
3.45509e-14
-1.83865e-14
1.38167e-14
-4.14382e-14
-9.22719e-15
2.55809e-14
-1.33711e-14
-2.49417e-14
2.71051e-14
1.01373e-11
-7.75138e-13
1.49253e-13
-1.39014e-13
9.62158e-15
2.79584e-14
2.33563e-15
1.05628e-14
1.82305e-14
-1.97262e-14
1.36754e-14
2.42777e-14
-9.28326e-15
-5.15505e-17
-9.1207e-15
2.57158e-14
-1.63753e-14
-8.49246e-16
-1.45486e-14
0
-1.55583e-11
2.11065e-12
-3.86109e-13
1.79743e-13
-7.20368e-14
3.0469e-15
3.32006e-14
1.15659e-14
-4.07002e-14
3.44885e-14
-3.01666e-14
-2.55673e-14
-1.426e-14
-2.69235e-14
1.81081e-14
4.36833e-15
1.81309e-14
-1.42481e-14
2.68338e-14
0
1.07878e-11
-1.63089e-12
3.09514e-13
-1.01987e-13
5.71064e-14
1.86918e-14
-2.19355e-14
4.06279e-15
3.03577e-14
-1.6469e-14
4.09922e-14
2.69346e-15
3.76473e-14
1.62253e-14
-6.71664e-14
1.56991e-14
-2.10244e-14
5.76208e-14
3.54207e-15
0
4.36391e-12
-8.7408e-13
1.50193e-13
-4.75984e-14
2.23297e-14
-3.77434e-14
2.61295e-14
9.64383e-15
-1.3747e-14
1.33656e-14
-5.0023e-14
-2.19941e-14
3.55031e-14
1.56933e-14
-1.18719e-14
1.22959e-14
5.78125e-15
-6.91994e-15
-2.36253e-14
-2.71051e-14
-1.5748e-11
2.99176e-12
-6.33888e-13
2.35139e-13
-2.21664e-14
5.23138e-14
-5.65537e-14
6.69921e-15
4.4048e-15
5.1112e-14
2.33411e-14
7.0783e-14
-1.21607e-14
-6.87766e-14
1.6231e-14
5.78499e-15
-8.46995e-15
-4.33662e-15
5.59436e-14
0
1.22786e-11
-2.6707e-12
5.19341e-13
-2.28831e-13
3.87804e-14
-1.90199e-14
-5.19213e-15
-2.43985e-15
1.64138e-14
9.48428e-15
-3.32879e-14
-5.46686e-14
-2.59067e-14
6.18397e-15
1.63059e-14
3.35428e-14
2.9409e-15
-4.96741e-14
5.51184e-16
0
-3.03577e-12
1.08028e-12
-1.12472e-13
5.07285e-14
-2.2205e-14
7.55405e-15
1.81469e-14
-5.91086e-15
-4.18652e-14
3.80944e-16
8.50961e-15
4.14949e-14
1.38239e-14
9.68779e-15
-1.06342e-14
-6.73135e-15
-7.5295e-15
7.75719e-15
2.76712e-14
-2.71051e-14
-3.68629e-12
5.55148e-13
-1.41338e-13
5.17455e-14
-6.95104e-15
3.03881e-14
-2.19072e-14
1.88721e-14
7.32712e-15
4.35739e-15
-7.22559e-15
-2.03975e-14
-1.72643e-14
4.87963e-14
-9.56155e-15
1.68432e-14
-4.81729e-14
3.28718e-14
7.39943e-15
-2.71051e-14
9.29703e-12
-2.18336e-12
4.37582e-13
-1.63104e-13
1.01323e-14
-1.38404e-14
-1.67338e-14
-1.64739e-14
3.10022e-14
1.42955e-14
-3.02888e-14
1.18172e-14
-6.32361e-15
-5.88342e-14
9.63035e-15
-5.51165e-15
-1.4642e-14
3.55766e-14
1.45488e-15
0
-1.21973e-11
3.14983e-12
-6.0471e-13
2.38065e-13
-1.40589e-14
-4.82668e-14
3.56995e-14
4.57905e-14
-7.70386e-15
-7.33836e-14
3.88941e-14
2.39441e-15
9.10641e-15
3.84293e-15
8.30039e-14
-4.92126e-14
-2.92163e-14
2.04455e-14
-1.36784e-14
5.42101e-14
7.83336e-12
-1.97313e-12
3.85073e-13
-1.66271e-13
5.88537e-14
-1.21457e-14
2.0102e-14
-3.63482e-14
-5.47366e-15
1.26221e-14
3.4761e-15
4.27225e-14
-2.00497e-14
-1.83351e-14
-1.37577e-14
2.93649e-14
1.46217e-14
-3.83791e-14
1.40336e-14
0
5.96311e-13
1.29215e-13
-4.61906e-14
7.75625e-15
-1.19244e-14
-8.126e-15
-8.03317e-15
2.00313e-14
1.65772e-14
1.96692e-14
-5.1654e-14
2.95889e-14
-5.82996e-14
2.70654e-14
5.39277e-14
1.35577e-14
-2.3129e-14
3.47055e-15
1.60457e-14
-2.71051e-14
-9.43256e-12
1.40032e-12
-2.22247e-13
9.22709e-14
-3.44995e-14
1.83922e-14
-1.50882e-15
-3.06749e-14
-6.69389e-14
-3.08191e-14
1.51413e-14
4.1413e-14
2.69503e-14
-3.6586e-14
-5.6012e-15
-4.12689e-14
7.5817e-15
6.47036e-15
-7.04685e-15
0
1.39862e-11
-1.63979e-12
3.38556e-13
-2.02239e-13
4.28167e-14
-2.1777e-14
-1.94139e-14
3.43269e-14
-7.20578e-15
1.2621e-14
-2.55211e-14
1.30294e-14
-1.44765e-14
-5.66835e-15
1.43104e-14
-2.17357e-14
1.14575e-14
3.61656e-14
-2.55639e-14
0
-3.08998e-12
5.73957e-13
-1.00492e-13
4.74177e-14
1.51162e-14
-8.67821e-15
1.10799e-14
-8.6849e-15
-1.78056e-14
-8.14245e-15
9.63447e-15
6.38877e-15
3.85344e-14
2.70098e-14
-4.14829e-14
-3.22825e-14
4.44717e-15
6.71687e-15
2.8916e-14
-2.71051e-14
-1.56396e-11
1.41326e-12
-3.37809e-13
9.89461e-14
1.98786e-14
-8.18729e-14
8.71456e-15
-1.15549e-14
1.78452e-14
3.09246e-14
7.05016e-15
1.79625e-14
3.50112e-14
-4.06605e-14
1.37196e-15
2.3533e-14
-9.54862e-15
3.52338e-15
4.93928e-16
0
1.17907e-11
-1.46367e-12
3.52366e-13
-1.0842e-13
2.71051e-14
0
0
-2.71051e-14
-2.71051e-14
-2.71051e-14
0
0
0
5.42101e-14
0
-2.71051e-14
0
0
0
0
)
;

boundaryField
{
    movingWall
    {
        type            extrapolatedCalculated;
        value           nonuniform List<scalar> 
20
(
1.17907e-11
-1.46367e-12
3.52366e-13
-1.0842e-13
2.71051e-14
0
0
-2.71051e-14
-2.71051e-14
-2.71051e-14
0
0
0
5.42101e-14
0
-2.71051e-14
0
0
0
0
)
;
    }
    fixedWalls
    {
        type            extrapolatedCalculated;
        value           nonuniform List<scalar> 
60
(
1.28749e-11
-2.17925e-11
5.85469e-12
1.01373e-11
-1.55583e-11
1.07878e-11
4.36391e-12
-1.5748e-11
1.22786e-11
-3.03577e-12
-3.68629e-12
9.29703e-12
-1.21973e-11
7.83336e-12
5.96311e-13
-9.43256e-12
1.39862e-11
-3.08998e-12
-1.56396e-11
1.17907e-11
-2.71051e-14
2.71051e-14
2.71051e-14
0
0
0
-2.71051e-14
0
0
-2.71051e-14
-2.71051e-14
0
5.42101e-14
0
-2.71051e-14
0
0
-2.71051e-14
0
0
1.28749e-11
-1.35194e-12
2.75072e-13
-1.20047e-13
4.11862e-14
-1.9962e-16
-1.72271e-14
1.74653e-15
-1.81628e-15
3.39887e-15
1.19424e-14
6.2771e-15
3.88542e-15
1.36882e-14
-2.05665e-14
1.51647e-15
-4.50204e-15
-8.34702e-16
3.56103e-14
-2.71051e-14
)
;
    }
    frontAndBack
    {
        type            empty;
    }
}


// ************************************************************************* //
