/*--------------------------------*- C++ -*----------------------------------*\
| =========                 |                                                 |
| \\      /  F ield         | OpenFOAM: The Open Source CFD Toolbox           |
|  \\    /   O peration     | Version:  2506                                  |
|   \\  /    A nd           | Website:  www.openfoam.com                      |
|    \\/     M anipulation  |                                                 |
\*---------------------------------------------------------------------------*/
FoamFile
{
    version     2.0;
    format      ascii;
    arch        "LSB;label=32;scalar=64";
    class       volScalarField;
    location    "6.125";
    object      enstrophyField;
}
// * * * * * * * * * * * * * * * * * * * * * * * * * * * * * * * * * * * * * //

dimensions      [0 0 -2 0 0 0 0];

internalField   nonuniform List<scalar> 
400
(
3.06886e-23
5.89098e-23
2.84129e-24
1.78245e-25
5.37138e-27
3.71705e-28
7.19177e-31
3.72891e-29
6.29984e-30
7.72264e-30
6.11449e-30
1.56608e-27
2.06263e-27
2.35184e-30
7.36559e-29
9.31427e-29
4.05721e-28
7.55201e-29
4.79968e-29
9.57663e-29
5.12717e-25
1.58402e-24
1.39705e-25
2.48502e-27
2.47881e-27
2.98552e-27
3.36709e-27
3.06206e-27
3.7426e-27
4.15359e-27
3.25595e-27
4.81425e-29
3.00078e-28
1.49574e-27
3.30327e-27
3.40103e-30
3.22764e-27
2.57334e-31
1.93606e-27
9.05903e-28
1.12297e-23
5.26421e-23
3.10878e-24
1.31141e-25
1.84304e-26
8.95765e-31
3.91719e-27
3.3513e-28
3.42074e-27
3.14676e-28
2.97175e-28
6.7389e-27
5.17201e-27
2.07601e-27
1.5094e-28
8.66873e-29
4.86235e-31
9.08481e-29
1.50385e-27
1.51204e-28
1.01897e-23
3.14319e-23
1.47697e-24
1.08796e-25
1.13223e-27
9.33919e-27
3.20974e-27
5.49575e-27
6.00838e-27
7.11128e-27
8.93543e-27
1.54866e-28
1.48807e-27
2.24689e-27
1.79277e-27
1.48885e-27
6.22482e-27
6.86095e-28
4.56692e-28
4.36235e-28
1.44696e-24
8.33575e-25
3.24599e-28
1.83e-26
7.24689e-28
1.15525e-27
1.96728e-27
2.21279e-27
3.14679e-27
5.57382e-28
1.13334e-28
2.30265e-27
4.56767e-28
9.96439e-29
9.38108e-30
2.76908e-27
1.67666e-27
6.92046e-29
8.90627e-29
2.8889e-29
1.05456e-23
2.39208e-23
1.24846e-24
7.75438e-26
3.13279e-28
3.55111e-27
3.67426e-28
1.21571e-27
3.10146e-28
1.70882e-27
1.82493e-27
2.54091e-30
2.95214e-27
2.98377e-29
3.71277e-28
2.39373e-29
2.48963e-28
4.55022e-28
3.26828e-29
1.37242e-30
2.76001e-23
4.80335e-23
2.21801e-24
1.75237e-25
1.06157e-26
2.35447e-31
2.22331e-27
4.45101e-30
4.05791e-27
2.03779e-29
8.02546e-28
5.34785e-28
2.00392e-27
4.2917e-27
5.83619e-27
1.12308e-28
9.76125e-28
3.81662e-28
2.75756e-32
3.75239e-28
4.58325e-24
5.69324e-24
3.81177e-25
1.37764e-26
5.91329e-27
1.23624e-27
1.07652e-27
6.44116e-29
5.17004e-28
1.20979e-28
2.24999e-28
1.49557e-28
2.72985e-27
1.71567e-26
5.55503e-27
5.32697e-28
2.28261e-30
1.32023e-27
9.84112e-30
3.54668e-28
4.953e-24
1.04067e-23
6.32306e-25
2.03587e-26
5.11868e-27
6.92467e-29
3.46338e-28
3.69085e-27
1.73793e-27
2.7278e-29
9.49311e-29
1.99133e-27
5.74971e-30
2.85255e-27
1.38391e-26
3.5656e-27
3.18799e-29
8.47976e-28
6.99753e-30
3.05681e-28
2.0904e-23
2.9653e-23
1.88202e-24
3.80248e-26
2.05174e-26
5.33762e-27
4.71507e-27
3.2335e-27
5.44399e-29
4.14082e-30
1.29169e-27
3.43059e-27
8.74819e-27
1.6274e-26
5.45269e-27
5.23651e-29
1.81765e-27
6.82951e-29
1.91593e-29
3.03575e-28
2.44617e-23
2.54717e-23
1.48408e-24
4.05334e-26
1.35186e-26
1.98256e-27
3.48352e-27
1.74727e-27
2.08586e-27
5.98174e-27
9.498e-28
2.05513e-28
3.1629e-29
2.22946e-29
3.87285e-27
8.17841e-28
4.02488e-27
6.44961e-30
3.95363e-31
1.18697e-27
1.19703e-23
9.46557e-24
5.87426e-25
2.68309e-26
1.90697e-27
1.15262e-27
2.5886e-27
2.01427e-28
1.25371e-27
2.293e-27
2.66739e-27
7.03953e-27
1.25211e-27
8.60517e-28
9.1026e-28
4.31159e-28
6.03028e-28
1.22701e-29
1.92546e-29
1.09135e-28
4.24367e-25
5.69949e-25
8.87693e-26
1.15903e-27
1.82417e-27
2.13603e-28
2.07595e-28
9.12317e-29
1.92265e-27
1.84373e-27
1.80044e-27
9.42587e-29
1.09989e-28
1.23821e-30
2.49643e-27
1.43849e-27
5.20815e-27
6.20833e-29
2.09539e-28
1.39162e-29
1.86314e-23
2.03745e-23
1.19225e-24
4.45689e-26
8.4361e-27
2.11887e-27
2.83518e-27
3.89327e-30
3.6557e-29
8.5002e-28
1.24359e-28
5.71622e-29
9.4146e-29
2.61537e-27
4.51293e-29
4.95418e-28
2.60838e-27
9.6576e-30
8.67082e-30
1.53679e-28
2.16963e-23
3.26033e-23
1.78108e-24
8.32067e-26
1.54174e-26
3.4706e-28
1.30557e-27
3.66668e-27
8.16875e-28
5.44878e-27
4.57396e-27
1.9984e-28
2.11551e-28
6.98761e-29
4.47116e-30
1.59435e-29
1.72245e-27
1.24153e-29
1.49889e-29
3.3006e-29
5.24992e-24
1.33308e-23
8.86049e-25
3.90808e-26
1.56549e-27
2.52112e-28
8.66539e-30
3.88343e-27
4.51172e-27
6.88106e-28
3.67439e-27
3.54781e-28
2.0015e-27
4.30512e-27
9.50617e-28
3.30672e-28
2.22744e-27
6.90337e-28
2.86622e-30
2.68899e-29
4.91008e-26
2.49727e-25
4.56347e-26
4.21608e-27
1.17733e-26
1.40315e-27
5.7717e-27
1.71789e-27
4.50184e-27
7.78352e-27
3.69701e-27
2.44815e-27
7.65737e-29
1.81791e-29
6.97993e-29
1.06162e-28
3.28005e-29
1.04707e-29
4.86853e-29
1.5152e-29
5.3685e-24
2.95052e-23
1.65797e-24
7.74792e-26
4.04689e-27
2.01397e-27
3.92527e-28
1.38004e-28
2.6778e-27
1.93567e-30
1.29118e-29
4.40857e-32
1.26214e-27
1.24311e-27
3.24316e-27
4.14014e-27
1.71805e-27
2.36856e-28
1.41148e-29
4.28618e-31
2.22101e-24
7.2766e-24
3.66994e-25
1.69271e-26
7.08428e-28
1.36226e-29
4.23602e-31
3.79424e-29
3.76338e-29
2.65088e-30
2.58233e-27
3.13817e-27
1.60893e-27
2.30249e-28
4.93286e-28
1.01547e-27
1.32886e-28
3.65557e-30
3.78474e-30
1.06946e-31
1.39053e-23
2.86458e-23
1.23072e-24
9.88983e-26
6.04047e-28
4.23535e-27
1.44983e-28
1.49219e-27
5.71348e-28
2.32682e-27
1.73481e-27
1.40314e-27
1.36834e-27
1.11378e-28
1.02075e-28
2.47829e-29
1.60168e-28
2.69278e-29
4.85281e-30
9.61691e-31
)
;

boundaryField
{
    movingWall
    {
        type            calculated;
        value           nonuniform List<scalar> 
20
(
6.31155e-23
4.32066e-23
1.05891e-24
3.12219e-25
2.46186e-26
6.69753e-26
4.5236e-26
4.84482e-26
3.73061e-26
1.83635e-26
2.57051e-26
1.55585e-26
1.54421e-26
7.32615e-27
1.35826e-26
2.47829e-29
1.60168e-28
2.69278e-29
4.85281e-30
9.61691e-31
)
;
    }
    fixedWalls
    {
        type            calculated;
        value           nonuniform List<scalar> 
60
(
1.04679e-21
3.50763e-23
9.82609e-22
5.51244e-22
1.00562e-23
4.39489e-22
8.60105e-22
1.04182e-22
1.89492e-22
5.53115e-22
4.82865e-22
1.82288e-22
1.29541e-23
3.82562e-22
5.99001e-22
2.47668e-22
7.5096e-24
5.43427e-22
1.31123e-22
5.00604e-22
5.6719e-28
1.99484e-28
2.60459e-28
3.6559e-29
3.18562e-28
5.73018e-29
1.65151e-28
4.21879e-28
1.04877e-28
1.6465e-28
6.27528e-28
5.33429e-28
1.19525e-31
6.4896e-28
1.02431e-28
5.38753e-30
1.97679e-28
1.05672e-29
3.14406e-31
3.68092e-29
1.27471e-22
8.74178e-23
2.97198e-24
3.13638e-25
3.0614e-30
2.09923e-26
8.71562e-27
4.74861e-27
4.26587e-27
3.60297e-27
3.63982e-27
9.09656e-28
3.1047e-27
8.5881e-27
5.09596e-27
9.31427e-29
4.06789e-27
7.55201e-29
7.61737e-27
5.26927e-27
)
;
    }
    frontAndBack
    {
        type            empty;
    }
}


// ************************************************************************* //
