/*--------------------------------*- C++ -*----------------------------------*\
| =========                 |                                                 |
| \\      /  F ield         | OpenFOAM: The Open Source CFD Toolbox           |
|  \\    /   O peration     | Version:  2506                                  |
|   \\  /    A nd           | Website:  www.openfoam.com                      |
|    \\/     M anipulation  |                                                 |
\*---------------------------------------------------------------------------*/
FoamFile
{
    version     2.0;
    format      ascii;
    arch        "LSB;label=32;scalar=64";
    class       volScalarField;
    location    "6.125";
    object      flowTypeField;
}
// * * * * * * * * * * * * * * * * * * * * * * * * * * * * * * * * * * * * * //

dimensions      [0 0 0 0 0 0 0];

internalField   nonuniform List<scalar> 
400
(
0.485378
0.0715166
0.0763953
-0.0122139
0.236399
2.61221e-05
0.912206
0.0181943
0.0890161
0.197246
0.620543
-0.0250062
-0.178769
0.750595
0.531306
0.00579887
-0.0352004
0.00217121
0.60031
0.69937
0.9426
0.668966
0.602132
0.73266
0.13676
0.0580531
-0.00772009
0.0379419
-0.060777
-0.117238
0.00853867
0.0806175
0.535538
0.292739
0.0694564
0.944373
0.0172686
0.930214
0.195005
0.411264
0.567938
0.126738
0.0407049
0.186838
-0.365237
0.941758
-0.0870449
0.0439736
-0.0159019
0.090733
0.215442
-0.0363868
-0.159555
-0.0489082
0.498356
0.0980395
0.918555
0.147403
0.0306096
0.646327
0.612034
0.117671
0.141284
-0.0716904
0.554347
-0.203949
0.0145679
0.0338263
-0.00617955
-0.063021
0.0357959
0.424555
0.1038
-0.189813
0.0194986
0.101263
0.00786069
-0.19612
0.218803
0.44929
0.865935
0.623188
0.962468
0.207234
0.485391
0.112492
-0.0229495
-0.223979
0.0729983
0.427255
0.569283
-0.093412
-0.0923101
0.474154
0.772637
-0.356115
-0.0570073
0.660938
0.534194
0.667679
0.593439
0.110249
0.0587165
0.0138799
0.714993
-0.270245
0.263037
0.0970039
0.332164
0.0380284
0.0432731
0.0821572
0.226832
0.670976
0.630274
0.408532
0.231231
0.453704
0.0850044
0.478802
0.199913
0.0332096
-0.00657915
-0.15141
-0.206756
0.931309
-0.0745577
0.424928
-0.038934
0.0705348
0.326328
0.18466
0.213686
-0.377727
-0.162043
0.409087
-0.613832
0.0455378
0.952882
0.257467
0.761198
0.261985
0.189806
0.297124
-0.29235
0.320704
0.356641
0.0297669
-0.113992
0.670098
0.353937
0.636156
0.132191
-0.113177
-0.0136574
0.492346
0.910283
0.0524441
0.875584
0.0175052
0.694864
0.1542
0.0607731
0.305969
-0.349513
0.653886
0.373302
0.0199427
-0.0590966
0.42328
0.711868
0.358133
0.91847
-0.373182
0.0204158
0.302614
0.763225
0.423564
0.0385465
0.0872592
0.0716919
0.0316674
-0.123882
0.285444
-0.652701
0.0467377
-0.120328
0.0118238
0.571397
0.589918
0.166231
0.148661
-0.162584
-0.267698
-0.281794
0.70117
-0.13921
0.033395
0.702916
0.330526
0.0233317
0.00919939
-0.132504
0.16901
-0.807735
0.256696
-0.0133427
0.255628
0.0662432
0.0405822
0.219856
0.267951
0.0937921
0.70779
0.0266832
-0.0561242
0.0896193
0.802854
0.734122
0.19358
0.441626
0.0595486
-0.0908077
0.0163229
0.0872503
0.203592
0.155536
0.0702154
0.163876
-0.219812
-0.162
-0.0924605
0.174727
0.535537
0.247072
-0.064198
0.00576952
0.875016
0.234855
0.0460773
0.890241
0.552852
0.31742
0.715576
-0.0119386
0.581507
0.620171
0.707805
-0.113506
0.196325
0.209972
0.157635
0.486661
0.697211
0.117441
0.183682
-0.154304
0.590316
0.177559
0.86291
0.304702
0.030416
-0.120403
0.133769
-0.233216
-0.126571
-0.151931
0.836012
0.0295168
0.238594
0.503849
0.593437
0.48425
-0.201588
0.412274
0.221117
-0.247977
0.885253
0.00890324
0.0179977
0.0427135
0.0265327
-0.0595901
0.00292644
-0.730245
0.508261
0.207315
0.0102308
-0.0832585
-0.274763
0.0310247
0.614508
0.5865
0.763509
0.944423
0.754642
0.0650762
0.591173
0.72953
0.64951
0.647104
0.136989
0.0218845
0.0724213
0.0695226
0.607413
0.379591
-0.0242091
0.0367039
0.0018088
0.179413
0.659537
0.197779
-0.0686527
0.196328
0.279013
-0.224783
-0.348834
0.377702
0.0159026
0.971238
0.767907
0.614355
0.526458
-0.0549945
0.0484639
0.0219412
0.231163
-0.162295
-0.134964
0.0103906
0.176585
0.302736
0.132566
0.427773
0.690619
0.0870941
0.763973
0.598569
0.00157417
0.575564
0.126175
0.0330438
0.124362
0.0413879
-0.183477
-0.0248429
0.447565
-0.122447
0.942779
0.865709
0.972995
0.160279
-0.115686
-0.255665
-0.0479542
-0.0707432
0.194453
0.734954
0.92087
0.845917
0.337258
0.337498
0.33976
0.571072
0.903094
0.439169
0.0455585
0.672789
0.927782
-0.319304
-0.400945
0.0400468
0.591196
-0.0580071
0.398795
0.215409
0.272855
0.076277
0.30358
0.572356
0.087763
0.129489
-0.0750217
0.621422
-0.130682
0.544319
0.108096
0.143387
-0.0989076
-0.0757297
0.0355657
0.16439
0.580225
0.633998
0.83997
0.108375
0.0869171
0.0100163
0.344966
)
;

boundaryField
{
    movingWall
    {
        type            calculated;
        value           nonuniform List<scalar> 
20
(
0.610375
0.123179
0.353547
-0.239158
0.313046
-0.0292823
0.0516851
0.0170892
0.0026378
-0.05225
-0.021063
0.00814711
0.0222243
0.113301
0.117729
0.882009
0.386136
0.101901
0.222322
0.721068
)
;
    }
    fixedWalls
    {
        type            calculated;
        value           nonuniform List<scalar> 
60
(
0.0762205
0.649922
0.107553
0.123539
0.699669
0.108211
0.0277274
0.289919
0.162965
0.00738052
-0.0263562
0.0405013
0.552656
0.0106007
0.0076551
0.129239
0.719681
0.111082
0.352893
0.10353
0.589003
0.765391
0.696357
0.831424
0.456354
0.0599016
0.589815
-0.0691915
0.663388
0.749807
0.4617
0.0104257
0.981576
0.004472
0.629925
0.0639916
0.000131889
0.847014
0.215289
0.0321862
0.613836
0.134418
0.271008
0.0132532
0.980907
-0.152556
0.0506121
-0.090746
-0.0383906
0.0456333
0.0465222
0.0549949
0.128365
0.0730216
-0.0358817
4.34883e-07
0.0292958
0.0800584
0.100644
0.0663012
)
;
    }
    frontAndBack
    {
        type            empty;
    }
}


// ************************************************************************* //
