/*--------------------------------*- C++ -*----------------------------------*\
| =========                 |                                                 |
| \\      /  F ield         | OpenFOAM: The Open Source CFD Toolbox           |
|  \\    /   O peration     | Version:  2506                                  |
|   \\  /    A nd           | Website:  www.openfoam.com                      |
|    \\/     M anipulation  |                                                 |
\*---------------------------------------------------------------------------*/
FoamFile
{
    version     2.0;
    format      ascii;
    arch        "LSB;label=32;scalar=64";
    class       surfaceScalarField;
    location    "6.125";
    object      fluxField;
}
// * * * * * * * * * * * * * * * * * * * * * * * * * * * * * * * * * * * * * //

dimensions      [0 3 -1 0 0 0 0];

oriented        oriented;

internalField   nonuniform List<scalar> 
760
(
-5e-05
3.51874e-18
-5e-05
-7.6489e-19
-5e-05
1.83964e-19
-5e-05
-3.6788e-20
-5e-05
1.02966e-20
-5e-05
-4.9905e-23
-5e-05
2.46949e-21
-5e-05
4.36633e-22
-5e-05
-4.5407e-22
-5e-05
8.49717e-22
-5e-05
2.9856e-21
-5e-05
1.56928e-21
-5e-05
9.71354e-22
-5e-05
3.42205e-21
-5e-05
1.63463e-21
-5e-05
3.79119e-22
-5e-05
-1.12551e-21
-5e-05
-2.08675e-22
-5e-05
2.1263e-21
4.24478e-21
-5e-05
-2.49961e-18
-5e-05
5.58322e-19
-5e-05
-1.28659e-19
-5e-05
3.32119e-20
-5e-05
-4.69706e-21
-5e-05
2.81662e-21
-5e-05
1.40316e-21
-5e-05
1.20411e-21
-5e-05
9.42478e-22
-5e-05
2.15507e-21
-5e-05
3.90417e-21
-5e-05
2.68183e-21
-5e-05
-4.67383e-22
-5e-05
-3.0675e-21
-5e-05
-2.90283e-21
-5e-05
-6.43538e-22
-5e-05
1.04098e-21
-5e-05
-1.13268e-21
-5e-05
-2.14953e-21
7.13268e-22
-5e-05
-8.44518e-19
-5e-05
1.92015e-19
-5e-05
-5.14185e-20
-5e-05
1.1866e-20
-5e-05
6.55651e-22
-5e-05
2.86975e-21
-5e-05
7.04377e-22
-5e-05
1.3689e-21
-5e-05
1.90326e-21
-5e-05
7.192e-22
-5e-05
-3.01738e-22
-5e-05
1.86147e-21
-5e-05
2.17963e-21
-5e-05
-3.32208e-21
-5e-05
-3.58328e-21
-5e-05
-2.3068e-21
-5e-05
-3.81043e-22
-5e-05
-3.34278e-21
-5e-05
-6.23542e-21
-4.28018e-21
-5e-05
2.00839e-18
-5e-05
-4.51283e-19
-5e-05
1.05076e-19
-5e-05
-2.12009e-20
-5e-05
9.18166e-21
-5e-05
2.13324e-22
-5e-05
5.83909e-22
-5e-05
2.64069e-21
-5e-05
4.55762e-21
-5e-05
1.84473e-21
-5e-05
-3.35742e-21
-5e-05
-7.06845e-22
-5e-05
4.45545e-21
-5e-05
-1.28876e-23
-5e-05
-2.28017e-21
-5e-05
-3.47313e-22
-5e-05
2.68244e-21
-5e-05
-2.12311e-22
-5e-05
-3.63714e-21
-4.43128e-21
-5e-05
-2.16884e-18
-5e-05
4.53123e-19
-5e-05
-1.03304e-19
-5e-05
2.46069e-20
-5e-05
-4.45667e-21
-5e-05
7.61724e-22
-5e-05
1.52389e-21
-5e-05
2.89149e-21
-5e-05
3.37749e-21
-5e-05
1.84586e-21
-5e-05
-7.65388e-22
-5e-05
3.84438e-22
-5e-05
3.21125e-21
-5e-05
4.54002e-23
-5e-05
-2.24923e-21
-5e-05
1.09208e-21
-5e-05
4.53273e-21
-5e-05
3.21423e-21
-5e-05
-6.78201e-23
-2.24666e-21
-5e-05
7.03665e-19
-5e-05
-1.36673e-19
-5e-05
2.99446e-20
-5e-05
-1.19443e-20
-5e-05
-6.0522e-21
-5e-05
-2.10331e-21
-5e-05
1.2924e-21
-5e-05
1.0157e-21
-5e-05
8.1316e-22
-5e-05
2.65902e-21
-5e-05
3.4718e-21
-5e-05
6.73364e-22
-5e-05
-4.1407e-21
-5e-05
-2.71994e-21
-5e-05
3.53719e-21
-5e-05
3.92478e-21
-5e-05
1.52018e-21
-5e-05
8.52675e-22
-5e-05
8.85517e-22
-1.22726e-21
-5e-05
1.76627e-18
-5e-05
-3.60822e-19
-5e-05
8.4982e-20
-5e-05
-2.54521e-20
-5e-05
-1.19385e-21
-5e-05
-2.65959e-21
-5e-05
-2.43895e-22
-5e-05
2.41096e-21
-5e-05
3.33952e-21
-5e-05
3.34139e-21
-5e-05
1.04678e-21
-5e-05
-5.49852e-21
-5e-05
-1.1453e-20
-5e-05
-2.85295e-21
-5e-05
1.05845e-20
-5e-05
9.85024e-21
-5e-05
1.44531e-21
-5e-05
-1.72999e-21
-5e-05
8.6995e-22
-6.7958e-22
-5e-05
-2.15617e-18
-5e-05
4.63337e-19
-5e-05
-1.11038e-19
-5e-05
1.81271e-20
-5e-05
-5.5416e-21
-5e-05
-4.74082e-22
-5e-05
-5.85905e-22
-5e-05
1.6748e-21
-5e-05
1.1012e-21
-5e-05
-7.74528e-22
-5e-05
-9.40998e-22
-5e-05
-2.63305e-21
-5e-05
-3.04018e-21
-5e-05
3.13464e-21
-5e-05
4.05776e-21
-5e-05
1.44625e-21
-5e-05
-2.11749e-21
-5e-05
-1.08415e-21
-5e-05
4.33377e-22
-9.10286e-22
-5e-05
8.12905e-19
-5e-05
-1.79784e-19
-5e-05
3.49677e-20
-5e-05
-9.77381e-21
-5e-05
2.91884e-21
-5e-05
2.02128e-21
-5e-05
5.47823e-21
-5e-05
6.1663e-21
-5e-05
4.10346e-21
-5e-05
2.37107e-21
-5e-05
5.23056e-21
-5e-05
6.66164e-21
-5e-05
7.07585e-21
-5e-05
1.54599e-21
-5e-05
-9.47604e-21
-5e-05
-1.19431e-20
-5e-05
-6.04104e-21
-5e-05
1.13401e-21
-5e-05
1.37796e-22
-1.34879e-21
-5e-05
2.07641e-19
-5e-05
-5.51909e-20
-5e-05
1.25397e-20
-5e-05
-8.704e-22
-5e-05
1.22501e-21
-5e-05
1.88851e-21
-5e-05
4.53672e-21
-5e-05
5.29855e-21
-5e-05
3.08623e-21
-5e-05
9.52359e-23
-5e-05
2.1274e-21
-5e-05
3.59747e-21
-5e-05
3.45596e-21
-5e-05
-4.35432e-21
-5e-05
-9.43482e-21
-5e-05
-8.4591e-21
-5e-05
-1.88237e-21
-5e-05
1.9393e-21
-5e-05
1.41533e-22
6.14057e-22
-5e-05
-7.65835e-19
-5e-05
1.72668e-19
-5e-05
-3.53346e-20
-5e-05
1.29364e-20
-5e-05
-1.73776e-21
-5e-05
8.20762e-22
-5e-05
1.29945e-21
-5e-05
-2.05824e-21
-5e-05
-4.94448e-21
-5e-05
-5.68692e-21
-5e-05
-1.8064e-21
-5e-05
1.67689e-21
-5e-05
2.46018e-21
-5e-05
-1.35345e-21
-5e-05
-2.39039e-21
-5e-05
-2.56546e-21
-5e-05
1.50929e-21
-5e-05
1.44168e-21
-5e-05
1.84986e-21
3.21538e-21
-5e-05
1.43018e-18
-5e-05
-3.01894e-19
-5e-05
7.55141e-20
-5e-05
-6.89466e-21
-5e-05
9.30933e-21
-5e-05
3.31617e-21
-5e-05
2.5928e-21
-5e-05
-4.11848e-21
-5e-05
-5.80198e-21
-5e-05
-3.20238e-21
-5e-05
-7.95934e-22
-5e-05
2.95429e-21
-5e-05
5.19536e-21
-5e-05
5.62023e-21
-5e-05
2.40759e-21
-5e-05
-1.37791e-21
-5e-05
-3.66049e-21
-5e-05
-4.65838e-21
-5e-05
3.63719e-22
2.01087e-21
-5e-05
-1.35816e-18
-5e-05
2.7246e-19
-5e-05
-6.30861e-20
-5e-05
1.88587e-20
-5e-05
3.26155e-21
-5e-05
1.48583e-21
-5e-05
-4.62764e-21
-5e-05
-8.88115e-21
-5e-05
-8.70223e-21
-5e-05
-4.79338e-21
-5e-05
-3.829e-21
-5e-05
5.98602e-22
-5e-05
2.2766e-21
-5e-05
7.737e-21
-5e-05
7.19844e-21
-5e-05
1.24938e-21
-5e-05
-7.30407e-21
-5e-05
-8.44116e-21
-5e-05
-3.41959e-21
-2.28222e-21
-5e-05
4.98831e-19
-5e-05
-1.20589e-19
-5e-05
2.17293e-20
-5e-05
-7.68644e-21
-5e-05
1.1609e-21
-5e-05
-3.03641e-21
-5e-05
-8.52704e-21
-5e-05
-9.08705e-21
-5e-05
-8.14468e-21
-5e-05
-3.62073e-21
-5e-05
8.69024e-22
-5e-05
3.90436e-21
-5e-05
1.76383e-21
-5e-05
2.19249e-21
-5e-05
3.33683e-21
-5e-05
5.64965e-22
-5e-05
-3.12084e-21
-5e-05
-2.81851e-21
-5e-05
-3.26787e-21
-3.14623e-21
-5e-05
7.02794e-19
-5e-05
-1.43879e-19
-5e-05
2.91099e-20
-5e-05
-1.16135e-20
-5e-05
-2.9811e-21
-5e-05
-2.0315e-21
-5e-05
-2.00829e-21
-5e-05
-1.76845e-21
-5e-05
-2.63197e-21
-5e-05
-1.85896e-21
-5e-05
6.39018e-22
-5e-05
6.20971e-22
-5e-05
-1.02238e-21
-5e-05
-6.78617e-21
-5e-05
-6.84686e-21
-5e-05
-3.38683e-21
-5e-05
9.9401e-22
-5e-05
8.67638e-22
-5e-05
-2.76484e-21
-1.09972e-21
-5e-05
-1.75351e-18
-5e-05
3.83961e-19
-5e-05
-8.9443e-20
-5e-05
1.62915e-20
-5e-05
-8.62488e-21
-5e-05
-2.17821e-21
-5e-05
-3.77205e-22
-5e-05
-8.92453e-22
-5e-05
-3.1822e-21
-5e-05
-7.70476e-21
-5e-05
-9.7672e-21
-5e-05
-9.97555e-21
-5e-05
-6.81495e-21
-5e-05
-9.14651e-21
-5e-05
-8.17656e-21
-5e-05
-3.54097e-21
-5e-05
1.89542e-21
-5e-05
1.61759e-21
-5e-05
-1.76171e-21
-1.44788e-21
-5e-05
2.0317e-18
-5e-05
-4.37051e-19
-5e-05
1.04968e-19
-5e-05
-2.34547e-20
-5e-05
3.92791e-21
-5e-05
-5.44425e-21
-5e-05
-4.85346e-21
-5e-05
-4.97081e-21
-5e-05
-1.80144e-21
-5e-05
-3.621e-21
-5e-05
-6.38028e-21
-5e-05
-1.02952e-20
-5e-05
-1.03954e-20
-5e-05
-8.19335e-21
-5e-05
-3.19868e-21
-5e-05
1.34233e-21
-5e-05
2.86437e-21
-5e-05
2.26515e-21
-5e-05
3.85291e-22
-1.53005e-21
-5e-05
1.21267e-18
-5e-05
-2.63087e-19
-5e-05
6.29684e-20
-5e-05
-1.52506e-20
-5e-05
3.77904e-21
-5e-05
-2.16955e-21
-5e-05
-4.00629e-21
-5e-05
-2.17122e-21
-5e-05
2.32487e-21
-5e-05
4.74065e-21
-5e-05
2.40862e-21
-5e-05
-5.17907e-21
-5e-05
-1.06952e-20
-5e-05
-6.80009e-21
-5e-05
-3.59446e-21
-5e-05
-1.29437e-21
-5e-05
1.11179e-21
-5e-05
1.67922e-21
-5e-05
4.52734e-22
-3.36887e-22
-5e-05
-3.14729e-18
-5e-05
6.718e-19
-5e-05
-1.58991e-19
-5e-05
3.15128e-20
-5e-05
-8.58287e-21
-5e-05
-1.39444e-22
-5e-05
-4.59762e-21
-5e-05
-2.88872e-21
-5e-05
-2.31496e-21
-5e-05
9.54888e-22
-5e-05
1.76254e-21
-5e-05
-2.28564e-21
-5e-05
-4.79972e-21
-5e-05
-3.38886e-21
-5e-05
-6.43327e-21
-5e-05
-7.66927e-21
-5e-05
-2.38716e-21
-5e-05
8.80845e-22
-5e-05
1.23482e-22
-5.85818e-22
-5e-05
-5e-05
-5e-05
-5e-05
-5e-05
-5e-05
-5e-05
-5e-05
-5e-05
-5e-05
-5e-05
-5e-05
-5e-05
-5e-05
-5e-05
-5e-05
-5e-05
-5e-05
-5e-05
)
;

boundaryField
{
    movingWall
    {
        type            calculated;
        value           uniform -0;
    }
    fixedWalls
    {
        type            calculated;
        value           nonuniform List<scalar> 
60
(
5e-05
5e-05
5e-05
5e-05
5e-05
5e-05
5e-05
5e-05
5e-05
5e-05
5e-05
5e-05
5e-05
5e-05
5e-05
5e-05
5e-05
5e-05
5e-05
5e-05
-5e-05
-5e-05
-5e-05
-5e-05
-5e-05
-5e-05
-5e-05
-5e-05
-5e-05
-5e-05
-5e-05
-5e-05
-5e-05
-5e-05
-5e-05
-5e-05
-5e-05
-5e-05
-5e-05
-5e-05
0
0
0
0
0
0
0
0
0
0
0
0
0
0
0
0
0
0
0
0
)
;
    }
    frontAndBack
    {
        type            empty;
    }
}


// ************************************************************************* //
