/*--------------------------------*- C++ -*----------------------------------*\
| =========                 |                                                 |
| \\      /  F ield         | OpenFOAM: The Open Source CFD Toolbox           |
|  \\    /   O peration     | Version:  2506                                  |
|   \\  /    A nd           | Website:  www.openfoam.com                      |
|    \\/     M anipulation  |                                                 |
\*---------------------------------------------------------------------------*/
FoamFile
{
    version     2.0;
    format      ascii;
    arch        "LSB;label=32;scalar=64";
    class       volTensorField;
    location    "6.125";
    object      gradU;
}
// * * * * * * * * * * * * * * * * * * * * * * * * * * * * * * * * * * * * * //

dimensions      [0 0 -1 0 0 0 0];

internalField   nonuniform List<tensor> 
400
(
(-1.19262e-12 9.21672e-12 0 1.38236e-12 1.4075e-11 0 0 0 0)
(1.70762e-12 -1.11797e-11 0 -3.25261e-13 -3.05956e-12 0 0 0 0)
(-4.60786e-13 2.43802e-12 0 5.42101e-14 7.35858e-13 0 0 0 0)
(2.71051e-14 -5.69963e-13 0 2.71051e-14 -1.47152e-13 0 0 0 0)
(0 1.30752e-13 0 2.71051e-14 4.11862e-14 0 0 0 0)
(0 -2.72656e-14 0 0 -1.9962e-16 0 0 0 0)
(-2.71051e-14 1.19931e-15 0 0 9.87798e-15 0 0 0 0)
(0 -8.63587e-15 0 0 1.74653e-15 0 0 0 0)
(0 -3.5496e-15 0 0 -1.81628e-15 0 0 0 0)
(0 3.93005e-15 0 0 3.39887e-15 0 0 0 0)
(0 3.497e-15 0 0 1.19424e-14 0 0 0 0)
(0 1.75553e-15 0 -5.42101e-14 6.2771e-15 0 0 0 0)
(0 1.00181e-14 0 -5.42101e-14 3.88542e-15 0 0 0 0)
(0 2.1688e-15 0 0 1.36882e-14 0 0 0 0)
(-2.71051e-14 -1.21372e-14 0 0 6.53853e-15 0 0 0 0)
(0 -1.36486e-14 0 0 1.51647e-15 0 0 0 0)
(0 -1.38076e-15 0 2.71051e-14 -4.50204e-15 0 0 0 0)
(0 1.22898e-14 0 0 -8.34702e-16 0 0 0 0)
(2.71051e-14 9.79764e-15 0 0 8.50521e-15 0 0 0 0)
(-5.42101e-14 -1.38395e-14 0 0 1.69791e-14 0 0 0 0)
(2.27682e-12 1.79868e-12 0 7.86047e-13 -2.40734e-11 0 0 0 0)
(-3.00866e-12 -2.15937e-12 0 -3.79471e-13 5.29285e-12 0 0 0 0)
(7.86047e-13 4.74382e-13 0 -5.42101e-14 -1.25049e-12 0 0 0 0)
(-1.0842e-13 -1.24709e-13 0 -5.42101e-14 2.8e-13 0 0 0 0)
(0 1.62002e-14 0 -5.42101e-14 -5.99744e-14 0 0 0 0)
(0 -4.04267e-15 0 -8.13152e-14 1.14661e-14 0 0 0 0)
(0 7.46837e-16 0 -8.13152e-14 -4.26534e-15 0 0 0 0)
(0 -3.05839e-15 0 -8.13152e-14 3.0699e-15 0 0 0 0)
(0 5.20194e-15 0 -8.13152e-14 5.58619e-15 0 0 0 0)
(0 9.82862e-15 0 -8.13152e-14 5.22143e-15 0 0 0 0)
(0 -6.1876e-16 0 -8.13152e-14 3.67431e-15 0 0 0 0)
(0 -9.8125e-15 0 0 4.45021e-15 0 0 0 0)
(-5.42101e-14 -2.60698e-15 0 -2.71051e-14 -5.75495e-15 0 0 0 0)
(5.42101e-14 4.8431e-16 0 -5.42101e-14 -2.59582e-14 0 0 0 0)
(2.71051e-14 -3.45043e-17 0 -8.13152e-14 -1.81499e-14 0 0 0 0)
(8.13152e-14 2.60808e-15 0 0 -4.09063e-15 0 0 0 0)
(0 -9.70417e-16 0 -8.13152e-14 8.66597e-15 0 0 0 0)
(-2.71051e-14 7.17404e-16 0 0 -3.69601e-15 0 0 0 0)
(-5.42101e-14 8.01619e-15 0 -5.42101e-14 -1.71033e-14 0 0 0 0)
(5.42101e-14 -1.16448e-14 0 -5.42101e-14 -1.41261e-14 0 0 0 0)
(-7.58942e-13 -9.56383e-12 0 -4.8247e-12 6.62036e-12 0 0 0 0)
(8.13152e-13 1.16432e-11 0 1.38236e-12 -1.46523e-12 0 0 0 0)
(-1.89735e-13 -2.57482e-12 0 -8.13152e-14 3.0896e-13 0 0 0 0)
(8.13152e-14 6.20555e-13 0 1.0842e-13 -8.53837e-14 0 0 0 0)
(0 -1.37781e-13 0 5.42101e-14 2.14108e-14 0 0 0 0)
(-2.71051e-14 2.84435e-14 0 2.71051e-14 2.12516e-16 0 0 0 0)
(0 -7.19687e-15 0 8.13152e-14 -2.79513e-15 0 0 0 0)
(0 1.21567e-15 0 2.71051e-14 6.59184e-16 0 0 0 0)
(0 -1.39808e-15 0 8.13152e-14 3.84312e-15 0 0 0 0)
(0 2.01816e-15 0 2.71051e-14 -5.74349e-15 0 0 0 0)
(0 2.72578e-15 0 2.71051e-14 -1.68236e-14 0 0 0 0)
(2.71051e-14 -7.67373e-15 0 1.0842e-13 -3.28143e-15 0 0 0 0)
(-2.71051e-14 -2.03903e-14 0 8.13152e-14 1.05881e-14 0 0 0 0)
(2.71051e-14 -1.02261e-14 0 5.42101e-14 -1.01831e-15 0 0 0 0)
(-2.71051e-14 9.73036e-15 0 2.71051e-14 -2.7218e-15 0 0 0 0)
(0 1.31672e-14 0 0 -6.65304e-15 0 0 0 0)
(2.71051e-14 -9.86139e-16 0 0 -5.6881e-15 0 0 0 0)
(0 -1.34795e-14 0 0 -8.8404e-15 0 0 0 0)
(0 -6.32405e-16 0 5.42101e-14 -1.63435e-14 0 0 0 0)
(5.42101e-14 1.73899e-14 0 0 -1.99738e-14 0 0 0 0)
(-1.27394e-12 6.95381e-12 0 2.43945e-12 1.14116e-11 0 0 0 0)
(1.78893e-12 -8.47077e-12 0 -5.42101e-13 -2.57319e-12 0 0 0 0)
(-4.87891e-13 1.85423e-12 0 1.35525e-13 6.25978e-13 0 0 0 0)
(0 -4.12258e-13 0 5.42101e-14 -1.32268e-13 0 0 0 0)
(-2.71051e-14 1.01796e-13 0 5.42101e-14 3.4104e-14 0 0 0 0)
(2.71051e-14 -2.82486e-14 0 1.0842e-13 -1.06257e-14 0 0 0 0)
(0 1.1935e-15 0 8.13152e-14 -4.81875e-16 0 0 0 0)
(0 3.57986e-15 0 1.0842e-13 5.08714e-15 0 0 0 0)
(0 -1.20074e-15 0 1.0842e-13 1.06174e-14 0 0 0 0)
(-2.71051e-14 -1.08382e-14 0 1.0842e-13 4.5021e-15 0 0 0 0)
(2.71051e-14 1.8433e-15 0 1.35525e-13 -1.22227e-14 0 0 0 0)
(2.71051e-14 1.75992e-14 0 0 -1.02733e-14 0 0 0 0)
(-2.71051e-14 -3.43854e-16 0 5.42101e-14 9.10326e-15 0 0 0 0)
(0 -1.28256e-14 0 5.42101e-14 1.32368e-14 0 0 0 0)
(-2.71051e-14 -5.66923e-15 0 5.42101e-14 5.21243e-15 0 0 0 0)
(2.71051e-14 -3.58221e-16 0 5.42101e-14 7.83794e-15 0 0 0 0)
(-2.71051e-14 -3.15778e-15 0 1.0842e-13 1.22539e-14 0 0 0 0)
(0 -9.93802e-15 0 2.71051e-14 1.25219e-14 0 0 0 0)
(-2.71051e-14 -3.1172e-15 0 2.71051e-14 1.03931e-14 0 0 0 0)
(0 2.46725e-14 0 5.42101e-14 -6.04422e-16 0 0 0 0)
(1.13841e-12 -7.25372e-13 0 9.75782e-13 -1.67089e-11 0 0 0 0)
(-1.51788e-12 8.57501e-13 0 -4.33681e-13 3.61762e-12 0 0 0 0)
(4.60786e-13 -1.339e-13 0 -1.0842e-13 -8.33518e-13 0 0 0 0)
(0 2.86812e-14 0 -1.6263e-13 1.83231e-13 0 0 0 0)
(-2.71051e-14 -1.61394e-14 0 -5.42101e-14 -5.45533e-14 0 0 0 0)
(0 -6.14237e-15 0 -5.42101e-14 2.1936e-15 0 0 0 0)
(2.71051e-14 8.51595e-15 0 -5.42101e-14 3.75991e-15 0 0 0 0)
(0 1.2315e-14 0 -5.42101e-14 1.00319e-15 0 0 0 0)
(-2.71051e-14 -1.98312e-15 0 -8.13152e-14 -4.72054e-15 0 0 0 0)
(2.71051e-14 -2.0822e-14 0 -5.42101e-14 4.54618e-18 0 0 0 0)
(-2.71051e-14 -1.20496e-14 0 -2.71051e-14 1.03681e-14 0 0 0 0)
(-2.71051e-14 1.36523e-14 0 -5.42101e-14 4.36513e-15 0 0 0 0)
(0 3.11968e-15 0 -2.71051e-14 -4.97678e-15 0 0 0 0)
(-2.71051e-14 -1.41169e-14 0 0 2.33151e-16 0 0 0 0)
(2.71051e-14 4.33153e-15 0 0 1.23791e-16 0 0 0 0)
(0 2.02087e-14 0 -5.42101e-14 5.75758e-15 0 0 0 0)
(0 3.69778e-15 0 -5.42101e-14 7.40115e-15 0 0 0 0)
(-2.71051e-14 -1.53403e-14 0 -2.71051e-14 1.37062e-14 0 0 0 0)
(0 -1.37587e-14 0 -2.71051e-14 1.42773e-14 0 0 0 0)
(-2.71051e-14 7.60118e-15 0 0 8.73847e-15 0 0 0 0)
(-7.04731e-13 -6.1375e-12 0 -1.54499e-12 1.149e-11 0 0 0 0)
(7.31836e-13 7.40465e-12 0 4.87891e-13 -2.35919e-12 0 0 0 0)
(-2.1684e-13 -1.58017e-12 0 0 5.32993e-13 0 0 0 0)
(5.42101e-14 3.66707e-13 0 -2.71051e-14 -1.46205e-13 0 0 0 0)
(5.42101e-14 -7.92412e-14 0 -5.42101e-14 -6.38209e-15 0 0 0 0)
(2.71051e-14 3.00646e-14 0 -5.42101e-14 -1.14601e-14 0 0 0 0)
(-2.71051e-14 3.09249e-18 0 -2.71051e-14 -9.25943e-16 0 0 0 0)
(0 -4.90058e-15 0 -5.42101e-14 -7.50316e-15 0 0 0 0)
(2.71051e-14 -2.19938e-15 0 -2.71051e-14 -1.02573e-14 0 0 0 0)
(-2.71051e-14 4.25052e-15 0 -5.42101e-14 3.25264e-15 0 0 0 0)
(2.71051e-14 6.20388e-15 0 -5.42101e-14 1.69487e-14 0 0 0 0)
(0 2.25429e-15 0 0 1.15571e-15 0 0 0 0)
(5.42101e-14 -4.47583e-15 0 -8.13152e-14 -2.94078e-14 0 0 0 0)
(2.71051e-14 -7.72498e-15 0 0 -1.10614e-14 0 0 0 0)
(-8.13152e-14 -1.448e-16 0 2.71051e-14 2.31457e-14 0 0 0 0)
(0 6.91914e-15 0 0 1.13308e-14 0 0 0 0)
(0 4.79081e-15 0 2.71051e-14 -1.20502e-14 0 0 0 0)
(5.42101e-14 -3.0619e-15 0 2.71051e-14 -9.44622e-15 0 0 0 0)
(0 -8.0849e-15 0 0 3.81335e-15 0 0 0 0)
(0 1.65676e-15 0 0 4.07762e-15 0 0 0 0)
(1.0842e-13 8.40547e-12 0 9.75782e-13 4.25042e-12 0 0 0 0)
(2.71051e-14 -1.00995e-11 0 -2.98156e-13 -8.96594e-13 0 0 0 0)
(-8.13152e-14 2.07908e-12 0 -2.71051e-14 2.2015e-13 0 0 0 0)
(0 -5.10694e-13 0 8.13152e-14 -5.40314e-14 0 0 0 0)
(0 1.18605e-13 0 -2.71051e-14 1.94334e-14 0 0 0 0)
(-2.71051e-14 -6.86216e-16 0 0 -2.2251e-15 0 0 0 0)
(2.71051e-14 1.24729e-14 0 -5.42101e-14 -6.14518e-15 0 0 0 0)
(0 2.98363e-15 0 0 5.58104e-15 0 0 0 0)
(-2.71051e-14 8.77268e-15 0 -8.13152e-14 1.01054e-14 0 0 0 0)
(0 6.38403e-15 0 0 2.72947e-15 0 0 0 0)
(-2.71051e-14 -1.41465e-14 0 -5.42101e-14 -9.70008e-15 0 0 0 0)
(0 -3.27043e-14 0 0 -2.46875e-14 0 0 0 0)
(5.42101e-14 -9.09739e-15 0 5.42101e-14 -2.92493e-14 0 0 0 0)
(2.71051e-14 3.84365e-14 0 -5.42101e-14 -5.32039e-16 0 0 0 0)
(-2.71051e-14 2.67237e-14 0 -8.13152e-14 2.81894e-14 0 0 0 0)
(0 -1.49872e-14 0 0 2.37019e-14 0 0 0 0)
(0 -1.70792e-14 0 2.71051e-14 -2.99459e-16 0 0 0 0)
(0 5.23258e-16 0 -2.71051e-14 -1.03306e-14 0 0 0 0)
(-2.71051e-14 -2.34843e-16 0 0 -6.22653e-17 0 0 0 0)
(-2.71051e-14 -2.89785e-16 0 2.71051e-14 2.19072e-15 0 0 0 0)
(-5.42101e-14 -2.78368e-12 0 2.43945e-13 -1.56897e-11 0 0 0 0)
(-2.98156e-13 3.37438e-12 0 0 3.29663e-12 0 0 0 0)
(1.6263e-13 -7.37604e-13 0 1.35525e-13 -7.84081e-13 0 0 0 0)
(5.42101e-14 1.6599e-13 0 0 1.74317e-13 0 0 0 0)
(0 -2.74349e-14 0 8.13152e-14 -1.7391e-14 0 0 0 0)
(5.42101e-14 4.48604e-15 0 5.42101e-14 8.74201e-15 0 0 0 0)
(-5.42101e-14 7.80924e-15 0 5.42101e-14 -1.36804e-15 0 0 0 0)
(0 1.135e-14 0 0 -2.94461e-15 0 0 0 0)
(0 -5.05095e-15 0 2.71051e-14 -8.95328e-15 0 0 0 0)
(5.42101e-14 -1.5555e-14 0 0 -1.64637e-14 0 0 0 0)
(2.71051e-14 -2.12131e-14 0 0 -7.95111e-15 0 0 0 0)
(5.42101e-14 -1.72949e-14 0 0 1.14619e-14 0 0 0 0)
(-5.42101e-14 1.96797e-14 0 -5.42101e-14 3.36514e-14 0 0 0 0)
(-8.13152e-14 4.97137e-14 0 -1.35525e-13 2.39504e-14 0 0 0 0)
(5.42101e-14 2.40891e-14 0 -8.13152e-14 -2.61071e-14 0 0 0 0)
(2.71051e-14 -2.15697e-14 0 -5.42101e-14 -3.3616e-14 0 0 0 0)
(0 -2.92417e-14 0 -2.71051e-14 -1.42512e-14 0 0 0 0)
(0 -2.8247e-15 0 -5.42101e-14 2.58333e-15 0 0 0 0)
(5.42101e-14 4.43647e-15 0 0 -1.74629e-15 0 0 0 0)
(0 -4.71695e-16 0 -2.71051e-14 -9.22825e-16 0 0 0 0)
(4.06576e-13 -3.98764e-12 0 -8.40257e-13 1.18763e-11 0 0 0 0)
(-1.0842e-13 4.80613e-12 0 2.43945e-13 -2.57248e-12 0 0 0 0)
(-5.42101e-14 -1.04323e-12 0 8.13152e-14 5.84023e-13 0 0 0 0)
(-1.0842e-13 2.55996e-13 0 5.42101e-14 -1.11604e-13 0 0 0 0)
(0 -4.69697e-14 0 5.42101e-14 3.38418e-14 0 0 0 0)
(-2.71051e-14 1.53367e-14 0 2.71051e-14 9.98146e-15 0 0 0 0)
(-2.71051e-14 7.86302e-16 0 2.71051e-14 2.42565e-14 0 0 0 0)
(-2.71051e-14 -4.60161e-15 0 8.13152e-14 1.7966e-14 0 0 0 0)
(0 -4.74638e-15 0 5.42101e-14 1.2009e-14 0 0 0 0)
(0 7.3862e-15 0 0 1.25824e-14 0 0 0 0)
(-5.42101e-14 1.3779e-14 0 0 2.46862e-14 0 0 0 0)
(-8.13152e-14 8.89818e-15 0 -5.42101e-14 3.71788e-14 0 0 0 0)
(-5.42101e-14 3.39108e-15 0 0 4.04641e-14 0 0 0 0)
(0 -2.13219e-14 0 5.42101e-14 -6.35458e-15 0 0 0 0)
(8.13152e-14 -3.08427e-14 0 1.35525e-13 -5.41352e-14 0 0 0 0)
(8.13152e-14 -3.13127e-15 0 8.13152e-14 -5.35573e-14 0 0 0 0)
(2.71051e-14 1.91201e-14 0 2.71051e-14 -1.56942e-14 0 0 0 0)
(-5.42101e-14 1.30282e-14 0 5.42101e-14 8.87266e-15 0 0 0 0)
(0 -3.741e-15 0 0 -1.18232e-15 0 0 0 0)
(0 2.37933e-15 0 2.71051e-14 -1.754e-15 0 0 0 0)
(-6.23416e-13 6.52012e-12 0 5.42101e-14 -2.42105e-12 0 0 0 0)
(5.69206e-13 -7.91788e-12 0 -2.1684e-13 4.98372e-13 0 0 0 0)
(-2.71051e-14 1.72328e-12 0 -2.1684e-13 -8.9712e-14 0 0 0 0)
(2.71051e-14 -3.84191e-13 0 -1.0842e-13 3.56137e-14 0 0 0 0)
(-2.71051e-14 9.41501e-14 0 -1.0842e-13 -6.77533e-15 0 0 0 0)
(0 -5.09918e-15 0 -1.0842e-13 -5.31081e-16 0 0 0 0)
(2.71051e-14 1.57938e-14 0 -8.13152e-14 -3.76603e-15 0 0 0 0)
(0 -8.97473e-16 0 -8.13152e-14 -3.47101e-15 0 0 0 0)
(-2.71051e-14 -1.04346e-14 0 0 -4.06894e-15 0 0 0 0)
(0 -2.87779e-15 0 0 -9.10333e-15 0 0 0 0)
(2.71051e-14 3.38324e-15 0 5.42101e-14 -1.24126e-14 0 0 0 0)
(5.42101e-14 -1.51703e-15 0 8.13152e-14 -1.22567e-14 0 0 0 0)
(2.71051e-14 -2.38537e-14 0 1.0842e-13 -1.44795e-14 0 0 0 0)
(2.71051e-14 -4.48856e-14 0 1.35525e-13 -2.36012e-14 0 0 0 0)
(0 -2.31137e-14 0 8.13152e-14 1.64886e-16 0 0 0 0)
(-2.71051e-14 1.68713e-14 0 2.71051e-14 1.39359e-14 0 0 0 0)
(-2.71051e-14 3.31883e-14 0 -2.71051e-14 1.66347e-14 0 0 0 0)
(0 1.16872e-14 0 0 3.22115e-15 0 0 0 0)
(2.71051e-14 -6.1902e-15 0 0 1.49473e-17 0 0 0 0)
(-2.71051e-14 2.46463e-15 0 2.71051e-14 7.85137e-15 0 0 0 0)
(2.1684e-13 -5.91032e-12 0 1.0842e-12 -3.89391e-12 0 0 0 0)
(-3.52366e-13 7.13747e-12 0 0 9.11437e-13 0 0 0 0)
(5.42101e-14 -1.50599e-12 0 2.1684e-13 -1.91497e-13 0 0 0 0)
(0 3.38933e-13 0 5.42101e-14 5.52271e-14 0 0 0 0)
(0 -8.31145e-14 0 8.13152e-14 -1.18511e-14 0 0 0 0)
(2.71051e-14 1.8346e-14 0 8.13152e-14 -4.271e-15 0 0 0 0)
(0 -2.15363e-15 0 8.13152e-14 -1.29491e-14 0 0 0 0)
(5.42101e-14 -4.90451e-15 0 5.42101e-14 -2.94271e-14 0 0 0 0)
(2.71051e-14 -1.03787e-14 0 5.42101e-14 -3.21228e-14 0 0 0 0)
(2.71051e-14 -9.5751e-16 0 1.0842e-13 -2.31286e-14 0 0 0 0)
(0 1.06257e-14 0 5.42101e-14 -1.57352e-14 0 0 0 0)
(0 6.83128e-15 0 2.71051e-14 -7.68232e-15 0 0 0 0)
(0 -7.95348e-15 0 0 -3.98314e-15 0 0 0 0)
(2.71051e-14 -6.67751e-15 0 0 1.20035e-14 0 0 0 0)
(-2.71051e-14 6.69452e-15 0 -8.13152e-14 2.81777e-14 0 0 0 0)
(0 1.33385e-14 0 -2.71051e-14 2.35746e-14 0 0 0 0)
(-5.42101e-14 8.40528e-15 0 -8.13152e-14 1.35667e-14 0 0 0 0)
(2.71051e-14 -3.59155e-15 0 0 -1.99046e-15 0 0 0 0)
(0 8.89228e-16 0 0 6.8333e-15 0 0 0 0)
(-2.71051e-14 -5.48699e-15 0 -5.42101e-14 1.04053e-14 0 0 0 0)
(5.14996e-13 3.53765e-12 0 -1.35525e-12 8.78405e-12 0 0 0 0)
(-2.98156e-13 -4.21547e-12 0 1.35525e-13 -1.89825e-12 0 0 0 0)
(0 8.67066e-13 0 -2.1684e-13 4.43395e-13 0 0 0 0)
(-8.13152e-14 -2.04545e-13 0 2.71051e-14 -7.93242e-14 0 0 0 0)
(-2.71051e-14 3.4652e-14 0 -2.71051e-14 4.41884e-14 0 0 0 0)
(-2.71051e-14 -6.19717e-15 0 -5.42101e-14 9.98163e-15 0 0 0 0)
(-2.71051e-14 -9.36237e-15 0 -8.13152e-14 5.17339e-15 0 0 0 0)
(0 -2.00712e-14 0 0 -8.24096e-15 0 0 0 0)
(2.71051e-14 -4.13601e-15 0 -5.42101e-14 -3.43e-15 0 0 0 0)
(0 1.35099e-14 0 -5.42101e-14 9.93815e-15 0 0 0 0)
(-2.71051e-14 1.88295e-14 0 -5.42101e-14 4.04185e-15 0 0 0 0)
(0 1.0235e-14 0 -1.0842e-13 5.10959e-15 0 0 0 0)
(-2.71051e-14 -4.16787e-15 0 -5.42101e-14 1.09407e-14 0 0 0 0)
(-8.13152e-14 -1.27248e-14 0 -5.42101e-14 2.78947e-14 0 0 0 0)
(0 -1.15426e-14 0 -5.42101e-14 1.91919e-14 0 0 0 0)
(0 2.26021e-15 0 -2.71051e-14 4.75017e-15 0 0 0 0)
(0 7.62328e-15 0 -2.71051e-14 -2.06791e-14 0 0 0 0)
(5.42101e-14 4.95381e-15 0 0 -2.44003e-14 0 0 0 0)
(0 6.20557e-15 0 0 -5.94455e-15 0 0 0 0)
(0 -1.4774e-14 0 0 -4.81807e-15 0 0 0 0)
(-1.0571e-12 9.75478e-13 0 5.42101e-14 -1.11534e-11 0 0 0 0)
(8.40257e-13 -1.20319e-12 0 -1.35525e-13 2.29742e-12 0 0 0 0)
(-5.42101e-14 3.12933e-13 0 -1.0842e-13 -5.54401e-13 0 0 0 0)
(1.35525e-13 -6.02739e-14 0 -1.0842e-13 1.03014e-13 0 0 0 0)
(0 6.19131e-15 0 -5.42101e-14 -2.41911e-14 0 0 0 0)
(-5.42101e-14 -2.06689e-14 0 0 -7.32136e-15 0 0 0 0)
(5.42101e-14 -2.03762e-14 0 0 -2.88818e-14 0 0 0 0)
(5.42101e-14 -1.35079e-14 0 0 -1.90507e-14 0 0 0 0)
(0 7.80041e-15 0 -5.42101e-14 -1.1601e-14 0 0 0 0)
(-5.42101e-14 6.51434e-15 0 -5.42101e-14 -6.36402e-15 0 0 0 0)
(5.42101e-14 5.79715e-15 0 -5.42101e-14 -1.21323e-14 0 0 0 0)
(0 1.37302e-14 0 0 -9.42276e-15 0 0 0 0)
(2.71051e-14 1.48316e-14 0 0 -1.1675e-14 0 0 0 0)
(0 1.57367e-15 0 0 8.46707e-15 0 0 0 0)
(5.42101e-14 -1.645e-14 0 5.42101e-14 1.91634e-14 0 0 0 0)
(-5.42101e-14 -2.65325e-14 0 2.71051e-14 1.05092e-14 0 0 0 0)
(-2.71051e-14 -2.07451e-14 0 8.13152e-14 -1.45743e-14 0 0 0 0)
(2.71051e-14 1.1143e-14 0 0 -1.51311e-14 0 0 0 0)
(0 2.04714e-14 0 0 -1.51332e-14 0 0 0 0)
(5.42101e-14 5.27564e-15 0 0 -1.71724e-14 0 0 0 0)
(4.06576e-13 -5.31829e-12 0 7.86047e-13 7.42798e-12 0 0 0 0)
(-4.06576e-13 6.38349e-12 0 0 -1.5722e-12 0 0 0 0)
(5.42101e-14 -1.32734e-12 0 2.1684e-13 3.39262e-13 0 0 0 0)
(-5.42101e-14 3.25665e-13 0 2.71051e-14 -1.06181e-13 0 0 0 0)
(5.42101e-14 -7.56829e-14 0 5.42101e-14 -8.40258e-15 0 0 0 0)
(0 -1.08878e-14 0 5.42101e-14 -1.8089e-14 0 0 0 0)
(2.71051e-14 -2.10917e-14 0 5.42101e-14 -1.55976e-14 0 0 0 0)
(-2.71051e-14 -2.79044e-15 0 0 -8.23572e-16 0 0 0 0)
(0 8.55067e-15 0 0 2.2302e-15 0 0 0 0)
(0 1.29786e-14 0 5.42101e-14 4.69062e-15 0 0 0 0)
(-2.71051e-14 1.57708e-14 0 0 1.87921e-14 0 0 0 0)
(2.71051e-14 1.06923e-14 0 0 1.3223e-14 0 0 0 0)
(-2.71051e-14 1.3722e-14 0 0 -2.0511e-15 0 0 0 0)
(0 1.81137e-14 0 -5.42101e-14 -2.2178e-14 0 0 0 0)
(0 -9.50045e-15 0 0 -1.54465e-14 0 0 0 0)
(2.71051e-14 -3.14775e-14 0 0 -2.73766e-15 0 0 0 0)
(0 -1.8017e-14 0 5.42101e-14 1.67329e-14 0 0 0 0)
(-5.42101e-14 4.39491e-15 0 0 2.24906e-14 0 0 0 0)
(0 4.16433e-15 0 0 6.06879e-16 0 0 0 0)
(0 1.75316e-14 0 0 -3.45602e-15 0 0 0 0)
(-2.1684e-13 6.83126e-12 0 2.43945e-13 8.1585e-13 0 0 0 0)
(2.1684e-13 -8.2919e-12 0 -2.1684e-13 -9.31609e-14 0 0 0 0)
(-8.13152e-14 1.77895e-12 0 -1.0842e-13 2.95226e-14 0 0 0 0)
(2.71051e-14 -4.07938e-13 0 0 -1.57081e-14 0 0 0 0)
(0 9.4283e-14 0 -8.13152e-14 -1.6568e-14 0 0 0 0)
(0 -2.78639e-14 0 -5.42101e-14 4.01965e-15 0 0 0 0)
(-2.71051e-14 -3.11083e-15 0 -5.42101e-14 2.6075e-14 0 0 0 0)
(0 4.31987e-15 0 -8.13152e-14 2.92744e-14 0 0 0 0)
(0 1.33146e-14 0 -2.71051e-14 2.20508e-14 0 0 0 0)
(0 2.30762e-14 0 -8.13152e-14 7.04706e-15 0 0 0 0)
(-5.42101e-14 1.43296e-14 0 -8.13152e-14 -9.20024e-16 0 0 0 0)
(5.42101e-14 -7.11304e-15 0 -2.71051e-14 -1.31336e-14 0 0 0 0)
(-5.42101e-14 -2.05694e-14 0 0 -1.11448e-14 0 0 0 0)
(5.42101e-14 -1.18217e-14 0 0 -3.59146e-14 0 0 0 0)
(8.13152e-14 2.99037e-15 0 0 -4.07347e-14 0 0 0 0)
(2.71051e-14 5.64685e-15 0 0 -1.58072e-14 0 0 0 0)
(-2.71051e-14 4.4831e-15 0 -5.42101e-14 1.64594e-14 0 0 0 0)
(0 -4.98303e-15 0 0 1.47446e-14 0 0 0 0)
(2.71051e-14 -5.47519e-15 0 0 2.01212e-15 0 0 0 0)
(-2.71051e-14 8.12478e-15 0 0 8.18603e-15 0 0 0 0)
(4.06576e-13 -4.5956e-12 0 -1.35525e-12 -9.8252e-12 0 0 0 0)
(-7.04731e-13 5.59716e-12 0 4.33681e-13 2.11136e-12 0 0 0 0)
(2.43945e-13 -1.24989e-12 0 8.13152e-14 -4.74212e-13 0 0 0 0)
(-2.71051e-14 2.79574e-13 0 0 1.1162e-13 0 0 0 0)
(0 -5.59552e-14 0 0 -2.25751e-14 0 0 0 0)
(2.71051e-14 3.17552e-14 0 5.42101e-14 -5.86847e-16 0 0 0 0)
(0 4.16302e-15 0 0 6.52435e-15 0 0 0 0)
(-2.71051e-14 -6.81458e-15 0 8.13152e-14 3.50399e-15 0 0 0 0)
(-5.42101e-14 -1.36767e-14 0 8.13152e-14 -2.2009e-15 0 0 0 0)
(0 -9.99227e-15 0 2.71051e-14 -2.33832e-14 0 0 0 0)
(5.42101e-14 -4.40982e-15 0 8.13152e-14 -4.16249e-14 0 0 0 0)
(8.13152e-14 4.67434e-16 0 2.71051e-14 -4.23861e-14 0 0 0 0)
(5.42101e-14 -9.05911e-15 0 5.42101e-14 -2.31703e-14 0 0 0 0)
(-2.71051e-14 -1.14762e-14 0 8.13152e-14 -9.44134e-15 0 0 0 0)
(0 1.0607e-14 0 5.42101e-14 -5.31883e-15 0 0 0 0)
(-2.71051e-14 2.57166e-14 0 0 -6.16533e-16 0 0 0 0)
(0 1.25348e-14 0 -5.42101e-14 3.60566e-15 0 0 0 0)
(0 -1.00524e-14 0 2.71051e-14 2.99981e-15 0 0 0 0)
(0 -2.39425e-15 0 0 4.01251e-15 0 0 0 0)
(0 7.33347e-15 0 0 -1.39265e-15 0 0 0 0)
(-1.16552e-12 -8.82578e-13 0 -5.69206e-13 1.51408e-11 0 0 0 0)
(1.65341e-12 1.05909e-12 0 3.52366e-13 -3.28405e-12 0 0 0 0)
(-4.33681e-13 -2.20793e-13 0 8.13152e-14 7.77643e-13 0 0 0 0)
(-5.42101e-14 4.36984e-14 0 1.35525e-13 -1.58985e-13 0 0 0 0)
(0 -1.79235e-14 0 1.35525e-13 5.02112e-14 0 0 0 0)
(0 1.23554e-15 0 5.42101e-14 -1.30642e-14 0 0 0 0)
(0 9.8001e-16 0 1.0842e-13 -1.7905e-14 0 0 0 0)
(5.42101e-14 -4.40539e-15 0 5.42101e-14 -1.63134e-14 0 0 0 0)
(0 -1.35726e-14 0 8.13152e-14 5.52301e-15 0 0 0 0)
(0 -1.63478e-14 0 1.0842e-13 1.6335e-14 0 0 0 0)
(-2.71051e-14 -4.6733e-15 0 8.13152e-14 1.35477e-14 0 0 0 0)
(2.71051e-14 1.13416e-14 0 8.13152e-14 -1.2785e-15 0 0 0 0)
(0 1.23753e-14 0 0 -1.43217e-14 0 0 0 0)
(0 6.02977e-15 0 0 3.81262e-15 0 0 0 0)
(0 1.18152e-14 0 0 1.99115e-14 0 0 0 0)
(-5.42101e-14 1.45713e-14 0 0 1.95332e-14 0 0 0 0)
(0 8.09945e-15 0 0 3.87578e-15 0 0 0 0)
(2.71051e-14 -4.57617e-15 0 0 2.59023e-15 0 0 0 0)
(-2.71051e-14 -9.86765e-15 0 0 8.58801e-15 0 0 0 0)
(0 5.50491e-15 0 0 -3.2867e-16 0 0 0 0)
(1.89735e-13 7.26118e-12 0 3.98444e-12 -3.27614e-12 0 0 0 0)
(-1.0842e-13 -8.76602e-12 0 -1.0842e-12 6.95859e-13 0 0 0 0)
(5.42101e-14 1.87518e-12 0 5.42101e-14 -1.67997e-13 0 0 0 0)
(2.71051e-14 -4.47858e-13 0 -5.42101e-14 3.28164e-14 0 0 0 0)
(2.71051e-14 8.99655e-14 0 0 -5.9548e-16 0 0 0 0)
(-2.71051e-14 -3.6361e-14 0 2.71051e-14 1.30988e-14 0 0 0 0)
(0 9.13747e-16 0 -2.71051e-14 3.38868e-15 0 0 0 0)
(-2.71051e-14 1.66135e-14 0 0 1.11983e-14 0 0 0 0)
(-2.71051e-14 1.89718e-14 0 -5.42101e-14 1.65053e-14 0 0 0 0)
(-5.42101e-14 -1.96757e-15 0 0 3.34466e-14 0 0 0 0)
(-2.71051e-14 -2.20234e-14 0 -2.71051e-14 3.51556e-14 0 0 0 0)
(-2.71051e-14 -2.7402e-14 0 -2.71051e-14 2.04644e-14 0 0 0 0)
(2.71051e-14 -3.96799e-15 0 -5.42101e-14 -1.19922e-15 0 0 0 0)
(2.71051e-14 2.27571e-14 0 -2.71051e-14 5.57305e-15 0 0 0 0)
(-2.71051e-14 2.63276e-14 0 -5.42101e-14 -1.58314e-15 0 0 0 0)
(-2.71051e-14 9.68084e-15 0 -8.13152e-14 -1.05468e-14 0 0 0 0)
(0 -4.40819e-15 0 5.42101e-14 -7.01031e-15 0 0 0 0)
(0 -5.34014e-15 0 -2.71051e-14 -2.34373e-15 0 0 0 0)
(2.71051e-14 -5.31315e-15 0 0 2.69772e-16 0 0 0 0)
(-2.71051e-14 -9.2587e-16 0 0 4.77266e-15 0 0 0 0)
(1.78893e-12 -3.46286e-12 0 -1.35525e-12 -1.74398e-11 0 0 0 0)
(-2.33103e-12 4.16723e-12 0 3.52366e-13 3.73955e-12 0 0 0 0)
(5.42101e-13 -8.83836e-13 0 -2.71051e-14 -8.87838e-13 0 0 0 0)
(-8.13152e-14 2.111e-13 0 2.71051e-14 1.87054e-13 0 0 0 0)
(8.13152e-14 -3.76411e-14 0 0 -4.94476e-14 0 0 0 0)
(-8.13152e-14 5.2197e-15 0 0 8.12043e-15 0 0 0 0)
(0 -9.20436e-16 0 0 -2.36532e-15 0 0 0 0)
(0 8.71119e-15 0 0 -2.86997e-15 0 0 0 0)
(2.71051e-14 8.67569e-15 0 0 -1.85593e-14 0 0 0 0)
(5.42101e-14 2.30256e-15 0 0 -1.5143e-14 0 0 0 0)
(0 -1.76555e-14 0 5.42101e-14 -2.58431e-15 0 0 0 0)
(0 -2.50132e-14 0 5.42101e-14 1.15737e-14 0 0 0 0)
(0 -2.51608e-15 0 5.42101e-14 2.35818e-14 0 0 0 0)
(-5.42101e-14 5.64586e-15 0 2.71051e-14 1.36449e-14 0 0 0 0)
(0 -4.30468e-15 0 2.71051e-14 -1.13553e-14 0 0 0 0)
(5.42101e-14 9.14417e-15 0 5.42101e-14 -2.54996e-14 0 0 0 0)
(0 1.63025e-14 0 0 -1.39958e-14 0 0 0 0)
(0 2.70391e-15 0 0 -3.19349e-15 0 0 0 0)
(0 -2.75127e-15 0 0 -1.31701e-15 0 0 0 0)
(0 4.62485e-16 0 0 -9.95723e-16 0 0 0 0)
(-7.86047e-13 -6.4391e-12 0 -1.16552e-12 1.25892e-11 0 0 0 0)
(1.21973e-12 7.78596e-12 0 2.1684e-13 -2.6872e-12 0 0 0 0)
(-2.71051e-13 -1.67731e-12 0 -1.0842e-13 6.35965e-13 0 0 0 0)
(2.71051e-14 3.90533e-13 0 -5.42101e-14 -1.26051e-13 0 0 0 0)
(0 -8.89678e-14 0 -5.42101e-14 3.43315e-14 0 0 0 0)
(0 1.07213e-14 0 -8.13152e-14 5.57775e-16 0 0 0 0)
(-2.71051e-14 -1.00767e-14 0 -2.71051e-14 1.83905e-14 0 0 0 0)
(-2.71051e-14 4.19447e-16 0 -5.42101e-14 1.15549e-14 0 0 0 0)
(-2.71051e-14 6.69873e-15 0 -2.71051e-14 9.25985e-15 0 0 0 0)
(-2.71051e-14 1.40075e-14 0 -5.42101e-14 -3.81955e-15 0 0 0 0)
(0 4.69341e-15 0 -5.42101e-14 -7.05016e-15 0 0 0 0)
(0 -1.23584e-15 0 -5.42101e-14 9.14255e-15 0 0 0 0)
(-2.71051e-14 -1.89681e-15 0 -5.42101e-14 1.91989e-14 0 0 0 0)
(2.71051e-14 -1.21801e-14 0 -2.71051e-14 1.35554e-14 0 0 0 0)
(-2.71051e-14 -1.2817e-14 0 -2.71051e-14 2.57331e-14 0 0 0 0)
(-5.42101e-14 7.0403e-15 0 0 3.06771e-14 0 0 0 0)
(0 1.78979e-14 0 0 9.54862e-15 0 0 0 0)
(0 7.33864e-15 0 0 -3.52338e-15 0 0 0 0)
(0 -3.11539e-15 0 0 -4.93928e-16 0 0 0 0)
(0 1.38686e-15 0 0 2.34327e-15 0 0 0 0)
)
;

boundaryField
{
    movingWall
    {
        type            extrapolatedCalculated;
        value           nonuniform List<tensor> 
20
(
(-7.86047e-13 -6.4391e-12 0 4.79616e-12 3.28074e-11 0 0 0 0)
(1.21973e-12 7.78596e-12 0 -1.5099e-12 -7.05101e-12 0 0 0 0)
(-2.71051e-13 -1.67731e-12 0 -2.22045e-13 1.66355e-12 0 0 0 0)
(2.71051e-14 3.90533e-13 0 -3.9968e-13 -3.41754e-13 0 0 0 0)
(0 -8.89678e-14 0 -3.10862e-13 1.01412e-13 0 0 0 0)
(0 1.07213e-14 0 -3.55271e-13 1.41172e-14 0 0 0 0)
(-2.71051e-14 -1.00767e-14 0 -3.10862e-13 5.85272e-14 0 0 0 0)
(-2.71051e-14 4.19447e-16 0 -3.10862e-13 5.44238e-14 0 0 0 0)
(-2.71051e-14 6.69873e-15 0 -2.66454e-13 5.68494e-14 0 0 0 0)
(-2.71051e-14 1.40075e-14 0 -1.77636e-13 2.76288e-14 0 0 0 0)
(0 4.69341e-15 0 -2.22045e-13 8.19553e-16 0 0 0 0)
(0 -1.23584e-15 0 -1.77636e-13 8.85522e-15 0 0 0 0)
(-2.71051e-14 -1.89681e-15 0 -1.77636e-13 5.7629e-15 0 0 0 0)
(2.71051e-14 -1.21801e-14 0 -1.33227e-13 1.64425e-14 0 0 0 0)
(-2.71051e-14 -1.2817e-14 0 -1.77636e-13 5.44831e-14 0 0 0 0)
(-5.42101e-14 7.0403e-15 0 0 6.77103e-14 0 0 0 0)
(0 1.78979e-14 0 0 2.63219e-14 0 0 0 0)
(0 7.33864e-15 0 0 -3.88143e-15 0 0 0 0)
(0 -3.11539e-15 0 0 -3.03267e-15 0 0 0 0)
(0 1.38686e-15 0 0 8.58011e-15 0 0 0 0)
)
;
    }
    fixedWalls
    {
        type            extrapolatedCalculated;
        value           nonuniform List<tensor> 
60
(
(-6.75016e-12 4.71381e-11 0 1.38236e-12 1.4075e-11 0 0 0 0)
(1.22569e-11 9.16176e-12 0 7.86047e-13 -2.40734e-11 0 0 0 0)
(-3.55271e-12 -4.91555e-11 0 -4.8247e-12 6.62036e-12 0 0 0 0)
(-7.10543e-12 3.56432e-11 0 2.43945e-12 1.14116e-11 0 0 0 0)
(6.30607e-12 -3.50891e-12 0 9.75782e-13 -1.67089e-11 0 0 0 0)
(-3.28626e-12 -3.11926e-11 0 -1.54499e-12 1.149e-11 0 0 0 0)
(4.44089e-14 4.24512e-11 0 9.75782e-13 4.25042e-12 0 0 0 0)
(6.21725e-13 -1.41909e-11 0 2.43945e-13 -1.56897e-11 0 0 0 0)
(1.06581e-12 -2.03078e-11 0 -8.40257e-13 1.18763e-11 0 0 0 0)
(-2.66454e-12 3.33142e-11 0 5.42101e-14 -2.42105e-12 0 0 0 0)
(1.24345e-12 -2.9992e-11 0 1.0842e-12 -3.89391e-12 0 0 0 0)
(1.73195e-12 1.77386e-11 0 -1.35525e-12 8.78405e-12 0 0 0 0)
(-4.26326e-12 5.14422e-12 0 5.42101e-14 -1.11534e-11 0 0 0 0)
(1.90958e-12 -2.68748e-11 0 7.86047e-13 7.42798e-12 0 0 0 0)
(-9.76996e-13 3.48561e-11 0 2.43945e-13 8.1585e-13 0 0 0 0)
(2.88658e-12 -2.36114e-11 0 -1.35525e-12 -9.8252e-12 0 0 0 0)
(-6.39488e-12 -4.44467e-12 0 -5.69206e-13 1.51408e-11 0 0 0 0)
(6.21725e-13 3.69519e-11 0 3.98444e-12 -3.27614e-12 0 0 0 0)
(9.50351e-12 -1.75492e-11 0 -1.35525e-12 -1.74398e-11 0 0 0 0)
(-4.79616e-12 -3.28074e-11 0 -1.16552e-12 1.25892e-11 0 0 0 0)
(-8.88178e-14 -3.36806e-14 0 0 1.69791e-14 0 0 0 0)
(8.88178e-14 -3.42359e-14 0 -5.42101e-14 -1.41261e-14 0 0 0 0)
(8.88178e-14 2.28236e-14 0 0 -1.99738e-14 0 0 0 0)
(0 4.56592e-14 0 5.42101e-14 -6.04422e-16 0 0 0 0)
(-4.44089e-14 2.52413e-14 0 0 8.73847e-15 0 0 0 0)
(0 1.07053e-14 0 0 4.07762e-15 0 0 0 0)
(-4.44089e-14 8.93084e-15 0 2.71051e-14 2.19072e-15 0 0 0 0)
(0 1.94245e-15 0 -2.71051e-14 -9.22825e-16 0 0 0 0)
(-4.44089e-14 1.26221e-14 0 2.71051e-14 -1.754e-15 0 0 0 0)
(-8.88178e-14 8.95844e-15 0 2.71051e-14 7.85137e-15 0 0 0 0)
(-4.44089e-14 -1.87833e-14 0 -5.42101e-14 1.04053e-14 0 0 0 0)
(0 -3.26628e-14 0 0 -4.81807e-15 0 0 0 0)
(8.88178e-14 4.88927e-16 0 0 -1.71724e-14 0 0 0 0)
(0 3.60267e-14 0 0 -3.45602e-15 0 0 0 0)
(-4.44089e-14 1.4313e-14 0 0 8.18603e-15 0 0 0 0)
(0 3.28254e-15 0 0 -1.39265e-15 0 0 0 0)
(0 1.98836e-14 0 0 -3.2867e-16 0 0 0 0)
(-4.44089e-14 4.59722e-15 0 0 4.77266e-15 0 0 0 0)
(0 7.92977e-16 0 0 -9.95723e-16 0 0 0 0)
(0 8.58011e-15 0 0 2.34327e-15 0 0 0 0)
(-1.19262e-12 9.21672e-12 0 -6.75016e-12 4.71381e-11 0 0 0 0)
(1.70762e-12 -1.11797e-11 0 2.04281e-12 -1.02712e-11 0 0 0 0)
(-4.60786e-13 2.43802e-12 0 0 2.41915e-12 0 0 0 0)
(2.71051e-14 -5.69963e-13 0 2.22045e-13 -5.19107e-13 0 0 0 0)
(0 1.30752e-13 0 1.33227e-13 1.39301e-13 0 0 0 0)
(0 -2.72656e-14 0 1.77636e-13 3.90282e-15 0 0 0 0)
(-2.71051e-14 1.19931e-15 0 1.33227e-13 3.02387e-14 0 0 0 0)
(0 -8.63587e-15 0 8.88178e-14 8.70008e-15 0 0 0 0)
(0 -3.5496e-15 0 8.88178e-14 -4.30474e-15 0 0 0 0)
(0 3.93005e-15 0 8.88178e-14 -5.49834e-15 0 0 0 0)
(0 3.497e-15 0 8.88178e-14 1.14154e-14 0 0 0 0)
(0 1.75553e-15 0 4.44089e-14 8.48965e-15 0 0 0 0)
(0 1.00181e-14 0 8.88178e-14 1.84376e-14 0 0 0 0)
(0 2.1688e-15 0 1.33227e-13 4.85619e-14 0 0 0 0)
(-2.71051e-14 -1.21372e-14 0 8.88178e-14 2.71127e-14 0 0 0 0)
(0 -1.36486e-14 0 0 1.30545e-17 0 0 0 0)
(0 -1.38076e-15 0 8.88178e-14 -2.74818e-14 0 0 0 0)
(0 1.22898e-14 0 0 -5.50998e-15 0 0 0 0)
(2.71051e-14 9.79764e-15 0 1.33227e-13 2.16776e-14 0 0 0 0)
(-5.42101e-14 -1.38395e-14 0 8.88178e-14 3.36806e-14 0 0 0 0)
)
;
    }
    frontAndBack
    {
        type            empty;
    }
}


// ************************************************************************* //
