/*--------------------------------*- C++ -*----------------------------------*\
| =========                 |                                                 |
| \\      /  F ield         | OpenFOAM: The Open Source CFD Toolbox           |
|  \\    /   O peration     | Version:  2506                                  |
|   \\  /    A nd           | Website:  www.openfoam.com                      |
|    \\/     M anipulation  |                                                 |
\*---------------------------------------------------------------------------*/
FoamFile
{
    version     2.0;
    format      ascii;
    arch        "LSB;label=32;scalar=64";
    class       volVectorField;
    location    "6.125";
    object      LambVectorField;
}
// * * * * * * * * * * * * * * * * * * * * * * * * * * * * * * * * * * * * * //

dimensions      [0 1 -2 0 0 0 0];

internalField   nonuniform List<vector> 
400
(
(-9.23242e-25 -7.83436e-12 0)
(-2.78721e-25 1.08545e-11 -0)
(-1.4417e-26 -2.38381e-12 0)
(-7.74854e-28 5.97068e-13 -0)
(-3.60954e-29 -1.03647e-13 0)
(2.66032e-31 2.72656e-14 0)
(-9.06643e-32 -1.19931e-15 0)
(1.87832e-31 8.63587e-15 0)
(-3.82003e-32 3.5496e-15 -0)
(5.40218e-32 -3.93005e-15 -0)
(-9.97994e-32 -3.497e-15 0)
(-1.18782e-30 -5.59656e-14 0)
(-2.96053e-30 -6.42282e-14 0)
(-2.63302e-31 -2.1688e-15 0)
(8.22682e-31 1.21372e-14 0)
(4.45439e-34 1.36486e-14 0)
(-1.9571e-30 2.84858e-14 -0)
(1.69292e-31 -1.22898e-14 -0)
(-5.30972e-31 -9.79764e-15 0)
(1.16531e-30 1.38395e-14 0)
(-2.31939e-26 -1.01264e-12 0)
(-8.75279e-27 1.7799e-12 -0)
(-6.92824e-28 -5.28592e-13 0)
(-1.22495e-29 7.04986e-14 -0)
(-4.47878e-30 -7.04103e-14 0)
(9.08203e-31 -7.72725e-14 -0)
(-1.90244e-30 -8.2062e-14 0)
(3.35322e-31 -7.82568e-14 -0)
(6.40306e-31 -8.65171e-14 -0)
(-4.3507e-30 -9.11438e-14 0)
(-7.33411e-30 -8.06964e-14 0)
(4.07679e-31 9.8125e-15 0)
(1.77359e-31 -2.44981e-14 -0)
(-8.46514e-31 -5.46944e-14 0)
(1.94798e-31 -8.12807e-14 -0)
(-3.94657e-32 -2.60808e-15 0)
(-1.9029e-30 -8.03447e-14 0)
(-3.89402e-33 -7.17404e-16 0)
(-1.92019e-30 -6.22263e-14 0)
(-3.64316e-30 -4.25653e-14 0)
(-5.82385e-25 4.73913e-12 -0)
(-2.79611e-25 -1.02608e-11 0)
(-1.61007e-26 2.49351e-12 -0)
(-7.69345e-28 -5.12135e-13 0)
(-4.82843e-29 1.91991e-13 -0)
(-1.66531e-31 -1.33848e-15 0)
(2.91589e-30 8.8512e-14 0)
(1.35788e-30 2.58894e-14 0)
(3.73037e-30 8.27132e-14 0)
(9.65053e-31 2.50869e-14 0)
(1.59152e-30 2.43793e-14 0)
(7.63042e-30 1.16094e-13 0)
(-1.1651e-30 1.01706e-13 -0)
(-8.90362e-30 6.44362e-14 -0)
(-1.97579e-30 1.73747e-14 -0)
(5.38191e-31 -1.31672e-14 -0)
(1.77063e-32 9.86139e-16 0)
(-6.83881e-31 1.34795e-14 -0)
(-6.40777e-30 5.48425e-14 -0)
(9.9225e-31 -1.73899e-14 -0)
(-4.02265e-25 -4.51436e-12 0)
(-1.55163e-25 7.92867e-12 -0)
(-7.5628e-27 -1.7187e-12 0)
(-4.79339e-28 4.66468e-13 -0)
(-1.32156e-29 -4.75863e-14 0)
(-1.31586e-30 1.36669e-13 -0)
(-3.82043e-31 8.01217e-14 -0)
(2.41862e-31 1.0484e-13 0)
(3.40157e-30 1.09621e-13 0)
(-1.15686e-30 1.19258e-13 -0)
(-1.03405e-29 1.33682e-13 -0)
(-1.53687e-31 -1.75992e-14 0)
(5.38125e-30 5.4554e-14 0)
(3.5489e-31 6.70357e-14 0)
(-1.77331e-30 5.98793e-14 -0)
(-2.80472e-30 5.45683e-14 -0)
(-3.70404e-30 1.11578e-13 -0)
(-3.07369e-30 3.70431e-14 -0)
(-4.00678e-30 3.02222e-14 -0)
(-3.37166e-30 2.95376e-14 -0)
(-1.4923e-26 1.70115e-12 -0)
(-1.96073e-27 -1.29118e-12 0)
(-5.02615e-30 2.54794e-14 -0)
(-3.4351e-29 -1.91312e-13 0)
(-3.40917e-30 -3.80707e-14 0)
(-8.72961e-31 -4.80677e-14 0)
(-1.76415e-30 -6.27261e-14 0)
(-6.87341e-30 -6.65251e-14 0)
(-1.20009e-29 -7.9332e-14 0)
(-2.78755e-30 -3.33881e-14 0)
(8.57345e-31 -1.50555e-14 -0)
(2.51134e-30 -6.78624e-14 -0)
(-2.40519e-30 -3.02247e-14 0)
(-8.20131e-32 1.41169e-14 -0)
(2.66789e-31 -4.33153e-15 -0)
(-2.79113e-30 -7.44188e-14 0)
(-8.13574e-30 -5.79079e-14 0)
(-8.7628e-31 -1.17647e-14 0)
(1.72282e-31 -1.33464e-14 -0)
(4.7966e-31 -7.60118e-15 -0)
(-3.58131e-25 4.59251e-12 -0)
(-1.14862e-25 -6.91676e-12 0)
(-6.21777e-27 1.58017e-12 -0)
(-3.16908e-28 -3.93812e-13 0)
(-6.70372e-30 2.50311e-14 -0)
(-1.03724e-30 -8.42747e-14 0)
(-8.89982e-31 -2.71081e-14 0)
(-6.08422e-31 -4.93095e-14 0)
(4.02851e-31 -2.49057e-14 -0)
(5.64435e-31 -5.84606e-14 -0)
(-1.59071e-30 -6.0414e-14 0)
(-1.18088e-31 -2.25429e-15 0)
(-3.75537e-30 -7.68393e-14 0)
(5.89073e-32 7.72498e-15 0)
(-7.73262e-31 2.72499e-14 -0)
(-4.27434e-32 -6.91914e-15 0)
(9.10749e-31 2.23142e-14 0)
(1.6316e-30 3.01669e-14 0)
(8.24313e-32 8.0849e-15 0)
(4.43402e-32 -1.65676e-15 -0)
(-7.88498e-25 -7.42969e-12 0)
(-2.16349e-25 9.80138e-12 -0)
(-1.08104e-26 -2.10619e-12 0)
(-7.59246e-28 5.92009e-13 -0)
(-3.74874e-30 -1.4571e-13 0)
(-6.61789e-32 6.86216e-16 -0)
(-1.25799e-30 -6.6683e-14 0)
(-8.44039e-32 -2.98363e-15 0)
(-4.38741e-30 -9.00878e-14 0)
(-7.40648e-31 -6.38403e-15 0)
(-4.50883e-30 -4.00636e-14 0)
(-8.32301e-31 3.27043e-14 -0)
(-1.35795e-29 6.33075e-14 -0)
(1.07862e-29 -9.26467e-14 -0)
(-1.83519e-29 -1.08039e-13 0)
(2.26027e-30 1.49872e-14 0)
(8.83348e-31 4.41843e-14 0)
(5.51977e-31 -2.76283e-14 -0)
(5.9239e-33 2.34843e-16 0)
(-6.11647e-31 2.73948e-14 -0)
(-1.07412e-25 3.02762e-12 -0)
(-2.57818e-26 -3.37438e-12 0)
(-1.51347e-27 8.73129e-13 -0)
(-4.38888e-29 -1.6599e-13 0)
(-7.99111e-30 1.0875e-13 -0)
(-4.94414e-31 4.97241e-14 -0)
(-1.32804e-30 4.64009e-14 -0)
(-7.73496e-31 -1.135e-14 0)
(2.72938e-30 3.2156e-14 0)
(2.74386e-31 1.5555e-14 0)
(-1.49915e-30 2.12131e-14 -0)
(-3.36371e-30 1.72949e-14 -0)
(1.8001e-29 -7.38898e-14 -0)
(-4.27008e-31 -1.85239e-13 0)
(-2.67218e-29 -1.05404e-13 0)
(-7.93801e-30 -3.26404e-14 0)
(8.08078e-32 2.13664e-15 0)
(2.52923e-30 -5.13854e-14 -0)
(-4.24706e-32 -4.43647e-15 0)
(1.29335e-31 -2.66334e-14 -0)
(-1.59791e-25 3.14738e-12 -0)
(-4.96959e-26 -4.56218e-12 0)
(-3.04544e-27 1.12455e-12 -0)
(-9.29581e-29 -2.01786e-13 0)
(-1.49931e-29 1.0118e-13 -0)
(-1.06152e-31 1.17683e-14 -0)
(1.36457e-31 2.63188e-14 0)
(-9.94156e-32 8.59168e-14 -0)
(-2.40727e-30 5.89565e-14 -0)
(3.59123e-31 -7.3862e-15 -0)
(-4.55131e-31 -1.3779e-14 0)
(-5.62734e-30 -6.31083e-14 0)
(-4.13754e-31 -3.39108e-15 0)
(9.29651e-30 7.5532e-14 0)
(-1.51739e-29 1.66368e-13 -0)
(-1.56518e-29 8.44464e-14 -0)
(-9.78315e-31 7.98497e-15 -0)
(2.41105e-31 4.11819e-14 0)
(2.90377e-32 3.741e-15 0)
(-7.80229e-31 2.47257e-14 -0)
(-5.38517e-25 -6.46591e-12 0)
(-1.39268e-25 7.70104e-12 -0)
(-7.96776e-27 -1.94012e-12 0)
(-2.34855e-28 2.75771e-13 -0)
(-5.36682e-29 -2.0257e-13 0)
(-9.28561e-30 -1.03321e-13 0)
(-2.07759e-29 -9.71089e-14 0)
(-1.99282e-29 -8.04177e-14 0)
(2.13877e-30 1.04346e-14 0)
(4.12858e-31 2.87779e-15 0)
(8.95528e-30 5.08269e-14 0)
(1.46858e-29 8.28322e-14 0)
(2.12989e-29 1.32274e-13 0)
(-1.10485e-29 1.80411e-13 -0)
(-3.00582e-29 1.04429e-13 -0)
(-2.99213e-30 1.02338e-14 -0)
(7.18227e-30 -6.02934e-14 -0)
(-4.61712e-31 -1.16872e-14 0)
(-1.39291e-32 6.1902e-15 -0)
(-5.51849e-31 2.46404e-14 -0)
(-5.24449e-25 6.99452e-12 -0)
(-1.1332e-25 -7.13747e-12 0)
(-6.21127e-27 1.72283e-12 -0)
(-2.32565e-28 -2.84722e-13 0)
(-3.55062e-29 1.6443e-13 -0)
(-9.02407e-31 6.29691e-14 -0)
(-2.71069e-30 8.34688e-14 -0)
(-2.12028e-30 5.91146e-14 -0)
(-5.26532e-30 6.45888e-14 -0)
(-1.52751e-29 1.09378e-13 -0)
(-3.97036e-30 4.35844e-14 -0)
(-6.77086e-31 2.02738e-14 -0)
(-1.81204e-31 7.95348e-15 -0)
(-7.54104e-31 6.67751e-15 -0)
(7.88198e-30 -8.80097e-14 -0)
(1.85987e-30 -4.04436e-14 -0)
(-3.93218e-30 -8.97204e-14 0)
(1.36716e-31 3.59155e-15 0)
(-7.03512e-33 -8.89228e-16 0)
(-2.28796e-30 -4.87231e-14 0)
(-2.16983e-25 -4.89291e-12 0)
(-3.90285e-26 4.35099e-12 -0)
(-2.37579e-27 -1.08391e-12 0)
(-6.93464e-29 2.3165e-13 -0)
(-9.0428e-30 -6.1757e-14 0)
(-2.26436e-30 -4.80129e-14 0)
(-6.07668e-30 -7.19528e-14 0)
(-9.32556e-31 2.00712e-14 -0)
(5.82155e-30 -5.00741e-14 -0)
(5.94733e-30 -6.772e-14 -0)
(-1.37606e-30 -7.30396e-14 0)
(-1.19216e-29 -1.18655e-13 0)
(-6.06462e-30 -5.00422e-14 0)
(-2.4391e-30 -4.14854e-14 0)
(2.58458e-31 -4.26675e-14 -0)
(1.663e-30 -2.93653e-14 -0)
(-5.74568e-31 -3.47283e-14 0)
(-9.71009e-32 -4.95381e-15 0)
(-4.10082e-31 -6.20557e-15 0)
(1.2064e-30 1.4774e-14 0)
(-1.1848e-26 -9.21268e-13 0)
(-3.31589e-27 1.06766e-12 -0)
(-3.4917e-28 -4.21353e-13 0)
(-1.13492e-30 -4.81463e-14 0)
(-1.36476e-29 -6.04014e-14 0)
(1.76689e-30 2.06689e-14 0)
(3.92412e-31 2.03762e-14 0)
(-1.59767e-30 1.35079e-14 -0)
(7.1821e-30 -6.20105e-14 -0)
(2.44554e-30 -6.07244e-14 -0)
(3.04101e-30 -6.00073e-14 -0)
(-2.43007e-31 -1.37302e-14 0)
(-1.28478e-30 -1.48316e-14 0)
(-2.61252e-31 -1.57367e-15 0)
(7.23284e-30 7.06601e-14 0)
(8.12598e-32 5.36376e-14 0)
(-1.66322e-29 1.0206e-13 -0)
(2.29475e-30 -1.1143e-14 -0)
(1.05497e-30 -2.04714e-14 -0)
(6.4485e-33 -5.27564e-15 -0)
(-4.10132e-25 6.10433e-12 -0)
(-8.93955e-26 -6.38349e-12 0)
(-5.1763e-27 1.54418e-12 -0)
(-2.18181e-28 -2.9856e-13 0)
(-1.2403e-29 1.29893e-13 -0)
(-1.69595e-30 6.50979e-14 -0)
(-1.5389e-29 7.53018e-14 -0)
(-6.61248e-31 2.79044e-15 -0)
(1.98605e-30 -8.55067e-15 -0)
(-6.24504e-30 4.12315e-14 -0)
(1.61623e-30 -1.57708e-14 -0)
(-6.67763e-32 -1.06923e-14 0)
(-6.09231e-32 -1.3722e-14 0)
(-1.03759e-29 -7.23238e-14 0)
(1.76306e-30 9.50045e-15 0)
(1.52541e-30 3.14775e-14 0)
(-9.33165e-30 7.22271e-14 -0)
(5.78853e-31 -4.39491e-15 -0)
(3.55007e-31 -4.16433e-15 -0)
(1.57901e-30 -1.75316e-14 -0)
(-5.7402e-25 -6.58731e-12 0)
(-1.52035e-25 8.07506e-12 -0)
(-7.96716e-27 -1.88737e-12 0)
(-4.23535e-28 4.07938e-13 -0)
(-2.49213e-29 -1.75598e-13 0)
(2.51354e-30 -2.63462e-14 -0)
(6.98616e-30 -5.10993e-14 -0)
(1.08339e-29 -8.5635e-14 -0)
(3.77999e-30 -4.04197e-14 -0)
(-6.92481e-31 -1.04391e-13 0)
(-1.31266e-29 -9.56447e-14 0)
(-2.99739e-30 -1.9992e-14 0)
(1.35991e-30 2.05694e-14 0)
(-6.59241e-31 1.18217e-14 -0)
(1.55809e-31 -2.99037e-15 -0)
(1.46037e-31 -5.64685e-15 -0)
(-2.56196e-31 -5.86932e-14 0)
(9.45249e-32 4.98303e-15 0)
(-2.48931e-31 5.47519e-15 -0)
(2.90725e-31 -8.12478e-15 -0)
(-1.91273e-25 3.24035e-12 -0)
(-6.75e-26 -5.16348e-12 0)
(-4.06936e-27 1.3312e-12 -0)
(-1.6039e-28 -2.79574e-13 0)
(-1.46136e-29 5.59552e-14 -0)
(3.1761e-31 2.24549e-14 0)
(-2.34735e-31 -4.16302e-15 0)
(4.9154e-30 8.81297e-14 0)
(-1.11713e-30 9.49918e-14 -0)
(-3.00459e-30 3.70973e-14 -0)
(-9.57402e-30 8.5725e-14 -0)
(-3.33211e-30 2.66376e-14 -0)
(-6.77035e-30 6.32692e-14 -0)
(-2.00134e-29 9.27914e-14 -0)
(-9.6699e-30 4.36031e-14 -0)
(2.81884e-30 -2.57166e-14 -0)
(-2.36246e-30 -6.67449e-14 0)
(5.84715e-31 3.71574e-14 0)
(-1.55934e-31 2.39425e-15 -0)
(6.0181e-32 -7.33347e-15 -0)
(-3.48208e-27 3.13371e-13 -0)
(-1.61549e-27 -7.0672e-13 0)
(-1.57342e-28 3.02108e-13 -0)
(7.15906e-30 9.18268e-14 0)
(-1.28635e-29 1.53449e-13 -0)
(-5.36488e-30 5.29746e-14 -0)
(-7.67916e-30 1.0744e-13 -0)
(-5.36172e-30 5.86155e-14 -0)
(-1.09622e-29 9.48877e-14 -0)
(-2.83471e-29 1.24768e-13 -0)
(-2.39912e-29 8.59885e-14 -0)
(-1.9168e-29 6.99736e-14 -0)
(2.04922e-30 -1.23753e-14 -0)
(9.05544e-31 -6.02977e-15 -0)
(1.24404e-30 -1.18152e-14 -0)
(4.66676e-31 -1.45713e-14 -0)
(-3.27392e-31 -8.09945e-15 0)
(2.24083e-31 4.57617e-15 0)
(-5.26944e-32 9.86765e-15 -0)
(2.73644e-31 -5.50491e-15 -0)
(-3.02704e-25 -3.27674e-12 0)
(-1.51854e-25 7.68182e-12 -0)
(-8.59411e-27 -1.82097e-12 0)
(-4.00006e-28 3.93647e-13 -0)
(-2.16768e-29 -8.99655e-14 0)
(-7.39362e-30 6.34661e-14 -0)
(3.43692e-30 -2.80188e-14 -0)
(1.78362e-30 -1.66135e-14 -0)
(-3.18121e-30 -7.31819e-14 0)
(1.62046e-31 1.96757e-15 0)
(-1.20915e-31 -5.08169e-15 0)
(-4.09402e-32 2.96937e-16 -0)
(1.25719e-29 -5.02421e-14 -0)
(8.85328e-30 -4.98621e-14 -0)
(1.8246e-30 -8.05377e-14 -0)
(-7.80021e-30 -9.0996e-14 0)
(4.34673e-30 5.86183e-14 0)
(-9.06257e-31 -2.17649e-14 0)
(1.10257e-31 5.31315e-15 0)
(-1.06411e-32 9.2587e-16 -0)
(-9.24673e-26 2.10761e-12 -0)
(-3.52665e-26 -3.81487e-12 0)
(-1.88548e-27 8.56731e-13 -0)
(-7.47253e-29 -1.83995e-13 0)
(-3.37957e-30 3.76411e-14 -0)
(-1.55104e-31 -5.2197e-15 0)
(-3.45964e-32 9.20436e-16 -0)
(-1.78673e-31 -8.71119e-15 0)
(-4.29663e-31 -8.67569e-15 0)
(-2.4699e-31 -2.30256e-15 0)
(5.21389e-30 7.18656e-14 0)
(-5.48919e-30 7.92233e-14 -0)
(-1.00735e-29 5.67262e-14 -0)
(-2.02678e-30 2.14592e-14 -0)
(-3.80445e-30 3.14097e-14 -0)
(-6.19634e-30 4.50659e-14 -0)
(4.83884e-31 -1.63025e-14 -0)
(-6.90315e-32 -2.70391e-15 0)
(-7.26996e-33 2.75127e-15 -0)
(9.16849e-34 -4.62485e-16 -0)
(-4.32531e-25 5.27358e-12 -0)
(-1.33425e-25 -7.56912e-12 0)
(-6.52482e-27 1.56889e-12 -0)
(-3.79982e-28 -4.44743e-13 0)
(-8.81214e-30 3.47577e-14 -0)
(3.24823e-30 -9.20364e-14 -0)
(2.49156e-30 -1.70284e-14 -0)
(7.43287e-30 -5.46296e-14 -0)
(4.80431e-30 -3.38038e-14 -0)
(4.71193e-30 -6.82176e-14 -0)
(1.20686e-31 -5.89035e-14 -0)
(1.17275e-30 -5.29743e-14 -0)
(7.5369e-31 -5.23133e-14 -0)
(6.13509e-31 -1.4925e-14 -0)
(1.94615e-30 -1.42881e-14 -0)
(1.19175e-30 -7.0403e-15 -0)
(1.17777e-30 -1.78979e-14 -0)
(-7.1211e-32 -7.33864e-15 0)
(2.36199e-32 3.11539e-15 0)
(2.97485e-32 -1.38686e-15 -0)
)
;

boundaryField
{
    movingWall
    {
        type            calculated;
        value           nonuniform List<vector> 
20
(
(0 1.12353e-11 -0)
(0 -9.29587e-12 -0)
(0 1.45527e-12 -0)
(0 -7.90213e-13 -0)
(0 -2.21895e-13 -0)
(0 -3.65993e-13 -0)
(0 -3.00786e-13 -0)
(0 -3.11282e-13 -0)
(0 -2.73152e-13 -0)
(0 -1.91643e-13 -0)
(0 -2.26738e-13 -0)
(0 -1.764e-13 -0)
(0 -1.75739e-13 -0)
(0 -1.21047e-13 -0)
(0 -1.64819e-13 -0)
(0 -7.0403e-15 -0)
(0 -1.78979e-14 -0)
(0 -7.33864e-15 -0)
(0 3.11539e-15 -0)
(0 -1.38686e-15 -0)
)
;
    }
    fixedWalls
    {
        type            calculated;
        value           nonuniform List<vector> 
60
(
(0 -4.57557e-11 -0)
(0 -8.37572e-12 -0)
(0 4.43308e-11 -0)
(0 -3.32037e-11 -0)
(0 4.48469e-12 -0)
(0 2.96476e-11 -0)
(0 -4.14754e-11 -0)
(0 1.44348e-11 -0)
(0 1.94675e-11 -0)
(0 -3.326e-11 -0)
(0 3.10762e-11 -0)
(0 -1.90939e-11 -0)
(0 -5.09001e-12 -0)
(0 2.76609e-11 -0)
(0 -3.46122e-11 -0)
(0 2.22562e-11 -0)
(0 3.87546e-12 -0)
(0 -3.29675e-11 -0)
(0 1.6194e-11 -0)
(0 3.16419e-11 -0)
(0 3.36806e-14 -0)
(0 -1.99742e-14 -0)
(0 -2.28236e-14 -0)
(0 8.55091e-15 -0)
(0 -2.52413e-14 -0)
(0 -1.07053e-14 -0)
(0 1.81742e-14 -0)
(0 -2.90475e-14 -0)
(0 1.44829e-14 -0)
(0 1.81466e-14 -0)
(0 -3.54268e-14 -0)
(0 3.26628e-14 -0)
(0 -4.88927e-16 -0)
(0 -3.60267e-14 -0)
(0 -1.4313e-14 -0)
(0 -3.28254e-15 -0)
(0 -1.98836e-14 -0)
(0 -4.59722e-15 -0)
(0 -7.92977e-16 -0)
(0 -8.58011e-15 -0)
(0 -1.59669e-11 -0)
(0 1.32225e-11 -0)
(0 -2.43802e-12 -0)
(0 7.92007e-13 -0)
(0 2.47443e-15 -0)
(0 2.04901e-13 -0)
(0 1.32027e-13 -0)
(0 9.74537e-14 -0)
(0 9.23674e-14 -0)
(0 8.48878e-14 -0)
(0 8.53208e-14 -0)
(0 4.26534e-14 -0)
(0 7.87998e-14 -0)
(0 1.31058e-13 -0)
(0 1.00955e-13 -0)
(0 1.36486e-14 -0)
(0 9.01986e-14 -0)
(0 -1.22898e-14 -0)
(0 1.23429e-13 -0)
(0 1.02657e-13 -0)
)
;
    }
    frontAndBack
    {
        type            empty;
    }
}


// ************************************************************************* //
