/*--------------------------------*- C++ -*----------------------------------*\
| =========                 |                                                 |
| \\      /  F ield         | OpenFOAM: The Open Source CFD Toolbox           |
|  \\    /   O peration     | Version:  2506                                  |
|   \\  /    A nd           | Website:  www.openfoam.com                      |
|    \\/     M anipulation  |                                                 |
\*---------------------------------------------------------------------------*/
FoamFile
{
    version     2.0;
    format      ascii;
    arch        "LSB;label=32;scalar=64";
    class       volScalarField;
    location    "6.125";
    object      Lambda2Field;
}
// * * * * * * * * * * * * * * * * * * * * * * * * * * * * * * * * * * * * * //

dimensions      [0 0 -2 0 0 0 0];

internalField   nonuniform List<scalar> 
400
(
1.41631e-23
6.55229e-24
3.44489e-25
0
3.54405e-27
0
9.75744e-29
0
0
0
0
-5.57653e-29
-5.27983e-28
0
4.27523e-29
0
-1.71572e-29
0
7.23386e-29
2.88291e-28
6.59778e-24
9.87146e-24
5.92153e-25
1.85154e-26
0
3.2873e-28
-4.2536e-29
2.48693e-28
-3.91791e-28
-7.71952e-28
5.03146e-29
0
1.03782e-28
6.47573e-28
3.32223e-28
1.67332e-29
7.89096e-29
1.36605e-29
0
8.30811e-28
4.67186e-23
1.67562e-23
2.45371e-25
7.38929e-26
-7.01072e-27
7.71009e-28
-5.77402e-28
3.29508e-29
-9.89152e-29
5.47024e-29
7.38824e-29
-9.73037e-29
-9.2336e-28
0
2.7115e-28
0
3.23545e-29
0
0
3.98952e-28
1.85864e-23
7.7923e-24
4.89332e-25
-4.85382e-27
6.25308e-27
-2.32804e-27
9.705e-29
3.88129e-28
-1.74539e-29
-4.40391e-28
3.99209e-28
1.0554e-28
6.4229e-29
-5.20063e-28
0
4.20141e-29
0
-1.12574e-28
2.35248e-29
1.3375e-27
5.88177e-25
1.93209e-24
2.26841e-25
0
1.6096e-27
3.32978e-28
0
-6.66591e-28
1.83541e-28
1.12876e-27
4.34103e-28
-5.40721e-30
-5.97908e-29
5.43596e-32
1.53243e-32
-1.06237e-27
-1.4568e-28
6.03659e-28
3.7293e-28
7.63609e-29
9.97901e-24
4.14825e-24
4.70198e-26
0
4.33641e-27
-8.95121e-28
7.73548e-31
2.65661e-28
1.64827e-28
0
0
0
1.22877e-27
1.22354e-28
5.31797e-28
0
1.29855e-28
6.23831e-30
0
0
8.21366e-24
3.01197e-24
-7.88772e-27
-3.86078e-26
-2.83714e-27
4.95109e-30
0
0
0
0
8.60975e-28
0
3.62349e-28
-1.34897e-27
-1.3784e-27
0
-4.62843e-28
0
3.87697e-33
0
0
8.88968e-26
0
2.93874e-27
-1.92843e-27
3.19612e-28
4.25211e-28
0
-5.67451e-29
2.71052e-28
6.32201e-29
1.31375e-28
6.55763e-29
-1.25306e-28
0
1.90398e-27
7.92598e-28
1.53127e-28
3.04954e-30
1.27853e-29
3.51594e-24
1.18419e-24
0
2.56325e-26
-1.40097e-27
5.15332e-28
6.09693e-28
0
-1.13085e-28
0
6.09411e-28
8.99889e-28
1.63734e-27
-1.11548e-27
0
2.61377e-27
7.64559e-28
7.84982e-28
0
6.44919e-29
7.42104e-25
1.96529e-24
-3.65628e-25
4.23888e-26
-9.47309e-27
5.52854e-28
-5.49589e-28
7.29782e-29
1.65563e-29
0
3.37479e-28
2.68681e-29
-1.85154e-27
-5.34845e-27
-1.87946e-27
6.51507e-28
-1.64887e-28
0
2.23421e-34
1.28448e-28
0
1.24162e-25
-2.89889e-25
1.83736e-26
-6.61802e-27
1.51005e-27
-7.44443e-30
6.00083e-28
1.72054e-28
4.31119e-28
5.76021e-28
1.85162e-28
0
1.44084e-28
1.90318e-28
0
0
3.96194e-30
0
4.0572e-28
0
0
0
7.48115e-28
0
4.35582e-28
7.88067e-28
0
2.35979e-28
-6.33604e-28
-2.86067e-28
-1.08357e-27
3.4564e-28
1.46792e-27
6.25724e-28
-3.86991e-29
0
5.95372e-28
0
0
1.17034e-24
8.69093e-25
0
1.71467e-26
0
5.36024e-29
8.34158e-28
3.62929e-28
-2.88279e-28
0
0
0
1.36306e-28
0
0
0
-9.52211e-28
2.28951e-28
0
2.9489e-28
0
1.65304e-25
-1.72723e-25
1.17659e-26
-1.16404e-27
-2.6302e-28
-4.087e-28
6.7827e-31
0
7.0357e-28
3.53143e-28
1.74849e-28
4.20701e-30
-4.9008e-28
0
7.4948e-30
-6.96714e-28
5.05826e-28
0
0
1.71347e-24
1.8067e-24
-1.86262e-25
2.46745e-28
-7.39214e-27
1.51051e-27
8.48543e-28
0
0
-1.82679e-27
0
3.6529e-28
1.24208e-28
1.28986e-27
1.65932e-27
2.49867e-28
2.78825e-29
0
4.04863e-30
6.70111e-29
6.3935e-24
2.92403e-24
0
7.34684e-28
0
1.7218e-27
0
0
0
0
1.37405e-27
1.80925e-27
4.57668e-29
-1.98506e-28
5.75005e-28
3.80112e-31
-6.66511e-28
-2.63471e-28
0
0
1.8608e-24
3.10694e-24
1.70125e-25
8.86098e-27
0
6.69788e-29
1.06253e-28
2.73114e-29
-1.07315e-27
-1.50559e-27
0
9.23876e-28
0
0
0
3.81546e-28
0
6.70929e-30
7.37539e-29
0
2.89678e-23
9.5159e-24
1.04592e-25
2.50131e-26
3.54597e-31
-2.50884e-28
-1.3284e-29
1.25403e-28
-2.9378e-28
1.11868e-27
1.33163e-27
1.16152e-27
2.16543e-28
0
-6.92536e-28
-5.25149e-29
-1.89824e-28
1.44745e-28
7.27767e-32
2.27782e-29
7.89334e-24
6.90211e-24
3.1783e-25
1.2334e-26
2.44507e-27
6.59414e-29
0
0
3.44449e-28
2.29312e-28
-9.50429e-28
-1.22202e-27
0
3.39215e-28
0
1.14594e-27
0
0
0
0
8.12275e-24
3.17605e-24
2.55323e-25
-5.28196e-27
4.82295e-27
-8.71492e-28
6.11339e-28
1.10777e-28
0
-2.46619e-29
-2.04725e-28
6.69948e-29
4.71424e-28
5.13891e-28
1.0096e-27
9.41083e-28
0
0
0
0
)
;

boundaryField
{
    movingWall
    {
        type            calculated;
        value           nonuniform List<scalar> 
20
(
0
0
4.45907e-25
-3.92927e-26
2.76567e-26
-3.60967e-27
3.86714e-27
6.04294e-28
0
-1.72487e-27
-1.04147e-27
2.19529e-28
3.70152e-28
1.89306e-27
3.01143e-27
2.93874e-27
0
0
0
0
)
;
    }
    fixedWalls
    {
        type            calculated;
        value           nonuniform List<scalar> 
60
(
1.10726e-22
1.57432e-22
2.49782e-22
1.37437e-22
3.63425e-23
5.89916e-23
4.14251e-23
0
1.81997e-23
7.66748e-24
-1.73549e-23
0
1.84542e-23
0
9.1686e-24
4.03318e-23
4.34245e-23
1.47619e-22
1.141e-22
6.12408e-23
2.88291e-28
2.05548e-27
3.98952e-28
2.47519e-27
7.63609e-29
0
2.4687e-28
-5.17985e-29
3.452e-28
3.04463e-28
1.12652e-27
0
2.9489e-28
0
6.70111e-29
0
0
2.27782e-29
0
0
0
0
2.12324e-25
0
1.74197e-26
-4.8281e-27
8.94465e-28
-6.91328e-28
-2.96737e-28
3.49058e-28
3.10596e-28
7.79611e-29
8.89782e-28
2.88942e-28
-3.42899e-28
0
0
0
1.77522e-27
0
)
;
    }
    frontAndBack
    {
        type            empty;
    }
}


// ************************************************************************* //
