/*--------------------------------*- C++ -*----------------------------------*\
| =========                 |                                                 |
| \\      /  F ield         | OpenFOAM: The Open Source CFD Toolbox           |
|  \\    /   O peration     | Version:  2506                                  |
|   \\  /    A nd           | Website:  www.openfoam.com                      |
|    \\/     M anipulation  |                                                 |
\*---------------------------------------------------------------------------*/
FoamFile
{
    version     2.0;
    format      ascii;
    arch        "LSB;label=32;scalar=64";
    class       volScalarField;
    location    "6.125";
    object      p;
}
// * * * * * * * * * * * * * * * * * * * * * * * * * * * * * * * * * * * * * //

dimensions      [0 2 -2 0 0 0 0];

internalField   nonuniform List<scalar> 
400
(
1.70906e-16
2.5819e-15
1.66173e-15
2.09805e-15
2.09825e-15
2.11028e-15
2.13832e-15
2.02144e-15
1.9563e-15
1.69842e-15
1.47444e-15
1.33963e-15
1.47265e-15
1.50481e-15
1.64928e-15
1.6672e-15
1.89487e-15
1.75179e-15
1.42892e-15
1.64954e-15
1.95018e-15
0
1.81366e-15
1.95449e-15
2.12678e-15
2.06379e-15
2.04358e-15
1.97679e-15
1.90006e-15
1.66371e-15
1.46941e-15
1.45104e-15
1.72898e-15
1.4953e-15
1.66629e-15
1.62248e-15
1.86944e-15
1.90316e-15
1.55989e-15
1.32485e-15
1.79999e-15
2.33121e-15
1.9609e-15
2.04011e-15
1.96486e-15
1.98666e-15
2.08492e-15
1.97932e-15
1.96089e-15
1.69193e-15
1.46014e-15
1.48996e-15
1.65362e-15
1.5853e-15
1.77191e-15
1.71596e-15
1.74124e-15
1.86242e-15
1.59585e-15
1.31023e-15
1.66162e-15
2.75977e-15
2.26049e-15
2.23372e-15
2.09956e-15
2.02163e-15
1.97036e-15
1.89151e-15
1.83778e-15
1.73101e-15
1.54137e-15
1.52613e-15
1.66744e-15
1.66125e-15
1.68936e-15
1.62299e-15
1.71655e-15
1.66203e-15
1.62772e-15
1.55497e-15
2.34216e-15
2.43313e-16
2.27517e-15
2.1528e-15
2.36796e-15
2.08672e-15
1.92132e-15
1.90399e-15
1.9268e-15
1.70714e-15
1.75479e-15
1.73765e-15
1.71658e-15
1.7028e-15
1.55892e-15
1.58478e-15
1.57191e-15
1.60823e-15
1.55521e-15
1.72694e-15
1.72263e-15
3.76054e-15
2.25762e-15
2.44249e-15
2.24703e-15
2.08136e-15
2.03198e-15
2.01735e-15
1.96574e-15
1.92039e-15
1.89935e-15
1.83768e-15
1.61946e-15
1.64684e-15
1.785e-15
1.54642e-15
1.47819e-15
1.37235e-15
1.51121e-15
1.79816e-15
2.17496e-15
3.24048e-15
2.47235e-15
2.50268e-15
2.42122e-15
2.14368e-15
1.9112e-15
2.03525e-15
2.01132e-15
1.89085e-15
1.92132e-15
1.85287e-15
1.7177e-15
1.707e-15
1.72193e-15
1.56807e-15
1.51829e-15
1.52656e-15
1.66957e-15
1.88388e-15
3.19675e-15
0
2.69098e-15
2.50129e-15
2.51757e-15
2.06974e-15
2.03134e-15
2.03573e-15
2.03157e-15
1.87385e-15
1.93224e-15
1.84609e-15
1.97207e-15
1.9588e-15
1.61372e-15
1.57742e-15
1.71097e-15
1.75563e-15
1.63138e-15
1.91146e-15
2.33053e-15
4.88417e-15
2.62097e-15
2.84217e-15
2.31773e-15
2.14422e-15
2.1132e-15
2.19022e-15
2.14945e-15
2.01887e-15
2.08132e-15
2.05134e-15
1.90448e-15
1.80142e-15
1.65428e-15
1.70821e-15
1.81645e-15
1.97164e-15
1.83982e-15
1.94667e-15
2.55969e-15
1.89658e-15
2.96007e-15
2.6779e-15
2.39686e-15
2.18695e-15
2.13578e-15
2.22472e-15
2.3014e-15
2.18916e-15
2.03962e-15
1.88826e-15
1.83298e-15
1.78053e-15
1.82547e-15
1.93336e-15
2.01141e-15
1.93396e-15
1.95428e-15
2.08876e-15
2.7391e-15
2.52741e-15
2.92172e-15
2.64315e-15
2.55079e-15
2.35907e-15
2.31425e-15
2.22424e-15
2.28479e-15
2.18684e-15
2.11472e-15
2.04344e-15
1.98135e-15
1.86384e-15
1.91936e-15
1.93826e-15
2.11092e-15
1.96408e-15
1.95995e-15
2.09285e-15
2.80357e-15
4.69811e-15
2.75538e-15
2.86644e-15
2.63419e-15
2.46387e-15
2.28379e-15
2.24705e-15
2.21079e-15
2.30611e-15
2.04624e-15
2.04069e-15
2.13115e-15
2.11326e-15
1.85827e-15
2.02526e-15
2.11123e-15
1.91661e-15
1.95073e-15
1.95733e-15
3.63662e-15
3.71935e-16
2.95904e-15
2.3567e-15
2.68619e-15
2.53504e-15
2.19335e-15
2.13109e-15
2.27654e-15
2.43255e-15
2.07509e-15
2.04845e-15
2.07022e-15
2.03767e-15
1.88776e-15
2.17821e-15
2.2785e-15
2.11811e-15
2.02575e-15
1.8284e-15
2.94947e-15
4.66164e-15
2.95932e-15
2.67709e-15
2.53878e-15
2.53947e-15
2.22877e-15
2.31448e-15
2.2751e-15
2.27132e-15
2.22995e-15
2.04143e-15
2.23566e-15
2.11341e-15
1.99415e-15
1.9864e-15
2.11129e-15
2.20065e-15
2.10426e-15
2.04716e-15
2.89391e-15
3.08536e-15
3.14256e-15
2.6205e-15
2.52272e-15
2.50399e-15
2.36059e-15
2.28768e-15
2.27754e-15
2.25589e-15
2.32463e-15
2.07796e-15
2.24978e-15
2.00501e-15
1.82573e-15
1.9122e-15
1.99544e-15
2.01429e-15
2.09023e-15
2.20879e-15
3.24258e-15
1.62898e-15
2.90559e-15
2.60974e-15
2.65792e-15
2.47331e-15
2.38276e-15
2.39498e-15
2.38244e-15
2.23699e-15
2.1415e-15
1.98394e-15
2.08433e-15
2.11362e-15
1.94902e-15
1.95703e-15
1.83635e-15
1.87151e-15
2.17367e-15
2.21649e-15
2.33744e-15
4.56189e-15
3.08504e-15
2.86543e-15
2.68497e-15
2.48521e-15
2.15269e-15
2.17757e-15
2.20107e-15
2.17328e-15
2.12694e-15
2.05909e-15
2.16593e-15
2.08876e-15
1.89322e-15
1.95909e-15
1.8145e-15
1.7629e-15
2.20744e-15
2.26702e-15
3.0492e-15
2.49548e-15
2.96167e-15
2.8258e-15
2.69367e-15
2.39216e-15
2.11527e-15
2.14609e-15
2.09828e-15
2.0971e-15
2.0624e-15
2.15371e-15
2.1804e-15
2.17011e-15
1.93264e-15
1.89174e-15
1.8001e-15
1.76435e-15
2.05e-15
2.37714e-15
3.49197e-15
1.44166e-15
2.96762e-15
2.72329e-15
2.58555e-15
2.34189e-15
2.1135e-15
2.02006e-15
1.99206e-15
1.97122e-15
1.99532e-15
2.21085e-15
2.40109e-15
2.17627e-15
1.8829e-15
1.83078e-15
1.86412e-15
1.81076e-15
2.11511e-15
2.26944e-15
2.04877e-15
4.32661e-15
2.98169e-15
3.01364e-15
2.51839e-15
2.22851e-15
2.09776e-15
1.95127e-15
2.00851e-15
2.08222e-15
1.99442e-15
2.17828e-15
2.32955e-15
2.1367e-15
1.90427e-15
1.96577e-15
1.88975e-15
1.83937e-15
2.09018e-15
2.31614e-15
)
;

boundaryField
{
    movingWall
    {
        type            zeroGradient;
    }
    fixedWalls
    {
        type            zeroGradient;
    }
    frontAndBack
    {
        type            empty;
    }
}


// ************************************************************************* //
