/*--------------------------------*- C++ -*----------------------------------*\
| =========                 |                                                 |
| \\      /  F ield         | OpenFOAM: The Open Source CFD Toolbox           |
|  \\    /   O peration     | Version:  2506                                  |
|   \\  /    A nd           | Website:  www.openfoam.com                      |
|    \\/     M anipulation  |                                                 |
\*---------------------------------------------------------------------------*/
FoamFile
{
    version     2.0;
    format      ascii;
    arch        "LSB;label=32;scalar=64";
    class       volScalarField;
    location    "6.125";
    object      QField;
}
// * * * * * * * * * * * * * * * * * * * * * * * * * * * * * * * * * * * * * //

dimensions      [0 0 -2 0 0 0 0];

internalField   nonuniform List<scalar> 
400
(
-2.95269e-23
-8.86089e-24
-4.71238e-25
1.14603e-26
-3.54405e-27
0
-2.67743e-28
0
0
0
0
9.51673e-29
5.4308e-28
0
-1.77227e-28
0
3.74255e-29
0
2.30534e-28
-9.2044e-28
-5.62247e-23
-1.67438e-23
-9.57229e-25
-3.71181e-26
8.78215e-28
-3.2873e-28
6.07292e-29
-2.48693e-28
4.22997e-28
7.99216e-28
-5.03146e-29
0
2.41314e-28
-1.38094e-27
-4.94758e-28
-3.3263e-28
-7.89096e-29
1.00181e-28
1.36173e-27
-1.39704e-27
-5.11671e-23
-1.72865e-23
-2.67993e-25
-7.42237e-26
7.46914e-27
-7.76724e-28
5.85215e-28
-3.29508e-29
1.13685e-28
-5.47024e-29
-7.38824e-29
7.43044e-28
1.37105e-27
5.26757e-28
-1.89967e-28
0
-1.54176e-28
0
3.42827e-29
-1.08278e-27
-3.15012e-23
-9.19528e-24
-5.56703e-25
2.23486e-26
-6.44279e-27
2.77471e-27
-9.705e-29
-3.88129e-28
1.30184e-28
1.05305e-27
-5.81112e-28
-2.78457e-28
-2.28104e-28
6.95275e-28
1.66046e-28
2.31867e-28
1.02231e-29
2.69371e-28
-1.97214e-28
-1.3375e-27
-1.83139e-23
-5.11925e-24
-3.98591e-25
4.66443e-27
6.03752e-28
-3.32978e-28
5.63563e-28
6.67597e-28
-3.33071e-29
-1.12864e-27
-6.07633e-28
6.21774e-28
8.45591e-29
-6.31958e-30
3.35537e-30
1.09552e-27
2.00457e-28
-7.87306e-28
-3.7293e-28
-2.36857e-28
-1.75798e-23
-5.3392e-24
-1.15574e-25
2.01384e-27
-4.64165e-27
1.31918e-27
2.51816e-29
-2.65661e-28
-3.37639e-28
1.42258e-28
7.9571e-28
0
-1.95815e-27
-2.99819e-28
-1.87817e-27
0
-1.29855e-28
-4.29088e-28
0
0
-7.74107e-24
-3.03553e-24
3.84521e-26
4.15272e-26
3.2148e-27
6.03116e-29
5.09594e-28
0
4.39443e-28
0
-5.03963e-28
0
-1.09244e-27
2.06923e-27
1.40896e-27
0
4.62933e-28
1.41829e-29
1.68771e-30
-5.15248e-29
1.52961e-24
-9.8291e-25
-2.75514e-26
9.44973e-27
2.23087e-27
2.30717e-28
-3.49178e-28
0
1.36906e-28
-8.92497e-28
-2.15515e-28
6.2135e-28
-7.57406e-28
4.78993e-27
5.43539e-28
-2.08046e-27
-7.92598e-28
-1.53127e-28
-9.46667e-29
-1.27853e-29
1.47797e-24
-8.93524e-25
5.31708e-26
-1.77748e-27
2.54623e-27
-6.86251e-28
-6.78788e-28
-1.12789e-28
2.57302e-28
0
-1.33824e-27
-2.54083e-27
-2.19356e-27
1.15586e-27
-2.22054e-28
-4.10041e-27
-9.43643e-28
-1.18725e-27
0
-6.44919e-29
1.15587e-24
-1.43324e-24
3.76107e-25
-4.06888e-26
1.03914e-26
-5.52854e-28
1.18219e-27
-7.29782e-29
1.10289e-28
0
-5.19851e-28
-5.41078e-28
2.19375e-27
5.44342e-27
1.87949e-27
-8.35031e-28
4.48688e-28
0
4.05146e-31
-2.79616e-28
5.56363e-24
-3.21159e-25
3.16179e-25
-1.83736e-26
6.75847e-27
-1.60758e-27
1.75123e-28
-1.32937e-27
-3.08061e-28
-5.23089e-28
-5.76021e-28
-1.85162e-28
0
3.25355e-28
-2.19393e-28
3.61541e-28
-5.19733e-29
-5.39516e-29
0
-5.79486e-28
9.31816e-24
1.13728e-24
1.88015e-25
1.19945e-26
-2.58484e-28
-6.06502e-28
-9.01528e-28
0
-3.17184e-28
7.32371e-28
9.11196e-28
1.10968e-27
-5.2249e-28
-2.95807e-27
-6.25724e-28
6.12632e-29
2.06629e-28
-1.32274e-27
0
0
1.17373e-23
1.76736e-24
6.39824e-26
7.42603e-27
3.35631e-28
3.96892e-28
-1.56568e-27
-1.03274e-27
4.22861e-28
6.98137e-28
-3.43427e-28
0
-3.16452e-28
0
1.93061e-27
1.49461e-28
2.08193e-27
-4.1013e-28
0
-9.30915e-28
7.20046e-24
6.39217e-25
3.06212e-25
-3.07109e-27
3.64728e-27
5.9023e-28
7.20611e-28
2.2323e-29
0
-7.0357e-28
-5.09361e-28
3.58411e-28
5.55952e-29
9.81946e-28
0
-7.42045e-29
9.76705e-28
-1.21922e-27
0
0
-1.84336e-24
-1.81822e-24
1.90473e-25
-4.25769e-28
7.66664e-27
-1.51051e-27
-8.75402e-28
3.51271e-28
3.60893e-28
1.87645e-27
1.21509e-27
-9.04771e-28
6.04163e-28
-1.94694e-27
-3.31235e-27
-4.28455e-28
-2.03104e-28
0
5.45387e-29
-2.21883e-28
-1.02229e-23
-3.91533e-24
-1.4047e-26
-3.02546e-27
0
-1.73736e-27
0
4.59153e-28
1.23143e-27
2.70841e-28
-1.8979e-27
-3.4593e-27
-7.64968e-28
1.1891e-27
-5.75005e-28
1.67111e-29
6.79512e-28
2.7247e-28
0
0
-1.81493e-23
-5.80306e-24
-3.19295e-25
2.69634e-27
2.42909e-27
-6.69788e-29
-1.06253e-28
-6.45536e-28
1.10366e-27
1.77243e-27
1.27989e-29
-9.56895e-28
0
0
0
-1.0589e-27
0
7.02083e-29
-2.32779e-28
0
-2.95534e-23
-9.57959e-24
-1.10761e-25
-2.33889e-26
-1.61405e-29
6.30525e-28
2.47672e-29
-3.03532e-28
5.81088e-28
-1.81314e-27
-1.54984e-27
-1.29742e-27
-2.4761e-28
7.67889e-28
1.47013e-27
1.07307e-27
2.38969e-28
-1.44745e-28
7.31217e-30
-1.29363e-28
-3.58917e-23
-1.01854e-23
-5.05255e-25
-2.09322e-26
-4.02084e-27
-6.60314e-28
0
0
-5.03052e-28
-8.20906e-28
9.57107e-28
1.35597e-27
1.36397e-28
-8.92723e-28
1.16679e-28
-1.87804e-27
0
0
0
0
-1.74005e-23
-4.96597e-24
-3.54233e-25
1.77542e-26
-4.82295e-27
8.71803e-28
-7.71604e-28
-2.90457e-28
-6.94194e-29
8.62875e-28
2.5443e-28
-6.69948e-29
-6.23213e-28
3.728e-29
-1.0449e-27
-1.66301e-27
0
0
0
0
)
;

boundaryField
{
    movingWall
    {
        type            calculated;
        value           nonuniform List<scalar> 
20
(
5.09482e-24
3.15574e-24
-8.23344e-25
1.46825e-25
-2.76567e-26
3.80897e-27
-4.71884e-27
-1.34477e-27
2.43995e-28
1.73934e-27
1.04215e-27
-2.19529e-28
-4.93144e-28
-1.17704e-27
-3.75352e-27
-3.67058e-27
0
0
0
0
)
;
    }
    fixedWalls
    {
        type            calculated;
        value           nonuniform List<scalar> 
60
(
-1.6017e-22
-3.02266e-22
-2.60681e-22
-1.68035e-22
-1.01944e-22
-8.59514e-23
-4.12344e-23
-6.2929e-24
-4.40582e-24
4.64502e-24
2.76755e-23
3.92538e-23
4.72708e-23
3.53092e-23
-9.30007e-24
-6.03607e-23
-9.93538e-23
-1.4927e-22
-1.89523e-22
-9.86173e-23
-1.50805e-27
-3.11058e-27
-1.77403e-27
-2.47519e-27
-3.88066e-28
0
-3.39358e-28
5.26501e-29
-2.64231e-28
-9.40161e-28
-1.48034e-27
0
-1.52521e-27
0
-3.63533e-28
0
0
-2.11949e-28
0
0
5.99636e-24
5.29877e-24
-1.11471e-24
1.12487e-25
-1.74197e-26
4.84334e-27
-9.79403e-28
7.67019e-28
3.15268e-28
-3.49058e-28
-3.10596e-28
-7.79611e-29
-8.89782e-28
-2.88942e-28
3.43108e-28
0
1.22636e-28
0
-7.17736e-28
-5.9663e-28
)
;
    }
    frontAndBack
    {
        type            empty;
    }
}


// ************************************************************************* //
