/*--------------------------------*- C++ -*----------------------------------*\
| =========                 |                                                 |
| \\      /  F ield         | OpenFOAM: The Open Source CFD Toolbox           |
|  \\    /   O peration     | Version:  2506                                  |
|   \\  /    A nd           | Website:  www.openfoam.com                      |
|    \\/     M anipulation  |                                                 |
\*---------------------------------------------------------------------------*/
FoamFile
{
    version     2.0;
    format      ascii;
    arch        "LSB;label=32;scalar=64";
    class       volVectorField;
    location    "6.125";
    object      UzeroGrad;
}
// * * * * * * * * * * * * * * * * * * * * * * * * * * * * * * * * * * * * * //

dimensions      [0 1 -1 0 0 0 0];

internalField   nonuniform List<vector> 
400
(
(-1 1.17845e-13 0)
(-1 -2.5678e-14 0)
(-1 6.04788e-15 0)
(-1 -1.29777e-15 0)
(-1 3.48252e-16 0)
(-1 9.75706e-18 0)
(-1 7.55968e-17 0)
(-1 2.17502e-17 0)
(-1 -1.07619e-17 0)
(-1 -1.37458e-17 0)
(-1 2.85386e-17 0)
(-1 2.12241e-17 0)
(-1 4.60939e-17 0)
(-1 1.21405e-16 0)
(-1 6.77819e-17 0)
(-1 3.26362e-20 0)
(-1 -6.87045e-17 0)
(-1 -1.3775e-17 0)
(-1 5.41939e-17 0)
(-1 8.42014e-17 0)
(-1 2.29044e-14 0)
(-1 -4.91757e-15 0)
(-1 1.3107e-15 0)
(-1 -1.73755e-16 0)
(-1 6.36097e-17 0)
(-1 -1.17533e-17 0)
(-1 2.3183e-17 0)
(-1 -4.28489e-18 0)
(-1 -7.40092e-18 0)
(-1 4.77345e-17 0)
(-1 9.08852e-17 0)
(-1 4.15469e-17 0)
(-1 -7.23971e-18 0)
(-1 1.54772e-17 0)
(-1 -2.39661e-18 0)
(-1 1.51321e-17 0)
(-1 2.36842e-17 0)
(-1 5.42794e-18 0)
(-1 3.08582e-17 0)
(-1 8.55898e-17 0)
(-1 -1.22889e-13 0)
(-1 2.72504e-14 0)
(-1 -6.45704e-15 0)
(-1 1.50223e-15 0)
(-1 -2.51492e-16 0)
(-1 1.24418e-16 0)
(-1 3.29434e-17 0)
(-1 5.24492e-17 0)
(-1 4.51001e-17 0)
(-1 3.84684e-17 0)
(-1 6.52817e-17 0)
(-1 6.57262e-17 0)
(-1 -1.14556e-17 0)
(-1 -1.38177e-16 0)
(-1 -1.13717e-16 0)
(-1 -4.08736e-17 0)
(-1 1.79551e-17 0)
(-1 -5.0735e-17 0)
(-1 -1.1684e-16 0)
(-1 -5.70591e-17 0)
(-1 8.9108e-14 0)
(-1 -1.95699e-14 0)
(-1 4.4003e-15 0)
(-1 -1.02759e-15 0)
(-1 2.77718e-16 0)
(-1 -9.6281e-18 0)
(-1 -4.76828e-18 0)
(-1 2.30695e-18 0)
(-1 3.10303e-17 0)
(-1 -9.70042e-18 0)
(-1 -7.73512e-17 0)
(-1 8.73259e-18 0)
(-1 9.86409e-17 0)
(-1 5.29405e-18 0)
(-1 -2.96146e-17 0)
(-1 -5.13983e-17 0)
(-1 -3.31969e-17 0)
(-1 -8.2976e-17 0)
(-1 -1.32577e-16 0)
(-1 -1.14148e-16 0)
(-1 -8.77227e-15 0)
(-1 1.51855e-15 0)
(-1 -1.97264e-16 0)
(-1 1.79555e-16 0)
(-1 8.95483e-17 0)
(-1 1.81611e-17 0)
(-1 2.81246e-17 0)
(-1 1.03321e-16 0)
(-1 1.51275e-16 0)
(-1 8.34894e-17 0)
(-1 -5.69457e-17 0)
(-1 -3.70064e-17 0)
(-1 7.9577e-17 0)
(-1 -5.80955e-18 0)
(-1 -6.15923e-17 0)
(-1 3.75057e-17 0)
(-1 1.40495e-16 0)
(-1 7.44836e-17 0)
(-1 -1.29085e-17 0)
(-1 -6.31033e-17 0)
(-1 -7.79814e-14 0)
(-1 1.66064e-14 0)
(-1 -3.93488e-15 0)
(-1 8.0472e-16 0)
(-1 -2.67815e-16 0)
(-1 1.23079e-17 0)
(-1 3.28308e-17 0)
(-1 1.23388e-17 0)
(-1 -1.61751e-17 0)
(-1 -9.65496e-18 0)
(-1 2.63302e-17 0)
(-1 5.23839e-17 0)
(-1 4.88731e-17 0)
(-1 7.62556e-18 0)
(-1 -2.83767e-17 0)
(-1 6.17756e-18 0)
(-1 4.08147e-17 0)
(-1 5.40857e-17 0)
(-1 1.01957e-17 0)
(-1 -2.67633e-17 0)
(-1 1.06128e-13 0)
(-1 -2.20733e-14 0)
(-1 5.13267e-15 0)
(-1 -1.28249e-15 0)
(-1 2.57274e-17 0)
(-1 -9.64403e-17 0)
(-1 1.88652e-17 0)
(-1 2.8289e-17 0)
(-1 4.87015e-17 0)
(-1 1.16016e-16 0)
(-1 1.12542e-16 0)
(-1 -2.54493e-17 0)
(-1 -2.14501e-16 0)
(-1 -1.16423e-16 0)
(-1 1.69864e-16 0)
(-1 1.50813e-16 0)
(-1 1.99924e-17 0)
(-1 -1.99787e-17 0)
(-1 2.52249e-17 0)
(-1 -2.23271e-17 0)
(-1 -3.54772e-14 0)
(-1 7.64044e-15 0)
(-1 -1.73338e-15 0)
(-1 2.64406e-16 0)
(-1 -7.34814e-17 0)
(-1 -9.94315e-18 0)
(-1 -2.8621e-17 0)
(-1 6.81492e-17 0)
(-1 8.48793e-17 0)
(-1 1.76398e-17 0)
(-1 -7.06706e-17 0)
(-1 -1.94492e-16 0)
(-1 -2.4362e-16 0)
(-1 2.30517e-18 0)
(-1 2.53517e-16 0)
(-1 2.43196e-16 0)
(-1 3.78201e-17 0)
(-1 -4.92208e-17 0)
(-1 9.57307e-18 0)
(-1 -4.85611e-18 0)
(-1 -5.07694e-14 0)
(-1 1.0893e-14 0)
(-1 -2.70814e-15 0)
(-1 4.60677e-16 0)
(-1 -1.48183e-16 0)
(-1 -9.02013e-18 0)
(-1 5.18479e-18 0)
(-1 -1.15711e-18 0)
(-1 -4.08313e-17 0)
(-1 -4.86209e-17 0)
(-1 3.30307e-17 0)
(-1 8.91696e-17 0)
(-1 1.22012e-16 0)
(-1 1.2308e-16 0)
(-1 -9.12069e-17 0)
(-1 -1.85346e-16 0)
(-1 -1.2252e-16 0)
(-1 5.85462e-18 0)
(-1 7.76202e-18 0)
(-1 -3.15553e-17 0)
(-1 8.32856e-14 0)
(-1 -1.80844e-14 0)
(-1 4.10685e-15 0)
(-1 -8.5163e-16 0)
(-1 2.64936e-16 0)
(-1 8.98714e-17 0)
(-1 2.13944e-16 0)
(-1 2.47809e-16 0)
(-1 2.0497e-16 0)
(-1 1.43464e-16 0)
(-1 1.76192e-16 0)
(-1 1.77296e-16 0)
(-1 1.61022e-16 0)
(-1 -6.12407e-17 0)
(-1 -2.87835e-16 0)
(-1 -2.92377e-16 0)
(-1 -1.19122e-16 0)
(-1 3.95059e-17 0)
(-1 -2.25018e-18 0)
(-1 -2.23961e-17 0)
(-1 -7.49799e-14 0)
(-1 1.58767e-14 0)
(-1 -3.60526e-15 0)
(-1 8.16814e-16 0)
(-1 -2.15936e-16 0)
(-1 -1.43309e-17 0)
(-1 -3.24755e-17 0)
(-1 -3.58673e-17 0)
(-1 -8.15207e-17 0)
(-1 -1.39654e-16 0)
(-1 -9.10958e-17 0)
(-1 -3.33971e-17 0)
(-1 -2.2783e-17 0)
(-1 -1.12932e-16 0)
(-1 -8.9558e-17 0)
(-1 -4.59867e-17 0)
(-1 4.3827e-17 0)
(-1 3.80661e-17 0)
(-1 7.91149e-18 0)
(-1 4.69584e-17 0)
(-1 4.43465e-14 0)
(-1 -8.97002e-15 0)
(-1 2.19188e-15 0)
(-1 -2.99359e-16 0)
(-1 1.46425e-16 0)
(-1 4.71614e-17 0)
(-1 8.44537e-17 0)
(-1 -4.64623e-17 0)
(-1 -1.16259e-16 0)
(-1 -8.78224e-17 0)
(-1 1.88399e-17 0)
(-1 1.00473e-16 0)
(-1 1.2119e-16 0)
(-1 5.87941e-17 0)
(-1 -6.05748e-18 0)
(-1 -5.66315e-17 0)
(-1 1.65447e-17 0)
(-1 1.96012e-17 0)
(-1 6.60828e-17 0)
(-1 8.1657e-17 0)
(-1 1.28605e-14 0)
(-1 -3.10576e-15 0)
(-1 8.28687e-16 0)
(-1 2.35722e-17 0)
(-1 2.25948e-16 0)
(-1 8.54853e-17 0)
(-1 1.92583e-17 0)
(-1 -1.18277e-16 0)
(-1 -1.15821e-16 0)
(-1 -4.02727e-17 0)
(-1 -5.06773e-17 0)
(-1 1.76988e-17 0)
(-1 8.66243e-17 0)
(-1 1.66015e-16 0)
(-1 1.02361e-16 0)
(-1 1.51498e-18 0)
(-1 -1.62964e-16 0)
(-1 -2.05936e-16 0)
(-1 -5.15341e-17 0)
(-1 -1.22232e-18 0)
(-1 -6.7187e-14 0)
(-1 1.40042e-14 0)
(-1 -3.35213e-15 0)
(-1 7.30777e-16 0)
(-1 -9.54859e-17 0)
(-1 -2.60522e-17 0)
(-1 -2.04364e-16 0)
(-1 -2.36969e-16 0)
(-1 -2.32269e-16 0)
(-1 -1.51463e-16 0)
(-1 -1.02483e-16 0)
(-1 6.24529e-18 0)
(-1 4.43983e-18 0)
(-1 1.43465e-16 0)
(-1 1.85577e-16 0)
(-1 4.84603e-17 0)
(-1 -1.29199e-16 0)
(-1 -1.3171e-16 0)
(-1 -8.52496e-17 0)
(-1 -9.00666e-17 0)
(-1 8.71403e-14 0)
(-1 -1.88277e-14 0)
(-1 4.2213e-15 0)
(-1 -1.03823e-15 0)
(-1 1.41922e-16 0)
(-1 -9.54043e-17 0)
(-1 -1.36717e-16 0)
(-1 -1.26513e-16 0)
(-1 -9.35186e-17 0)
(-1 6.63351e-18 0)
(-1 1.37244e-16 0)
(-1 1.49929e-16 0)
(-1 6.61133e-17 0)
(-1 -5.57654e-17 0)
(-1 -5.21035e-17 0)
(-1 -2.58617e-17 0)
(-1 4.365e-18 0)
(-1 1.89694e-17 0)
(-1 -4.54653e-17 0)
(-1 -3.57825e-17 0)
(-1 -5.90285e-14 0)
(-1 1.30726e-14 0)
(-1 -3.05691e-15 0)
(-1 5.73696e-16 0)
(-1 -2.61166e-16 0)
(-1 1.41443e-17 0)
(-1 5.63856e-17 0)
(-1 5.57746e-17 0)
(-1 -1.17602e-17 0)
(-1 -8.09921e-17 0)
(-1 -1.11683e-16 0)
(-1 -1.2509e-16 0)
(-1 -1.07009e-16 0)
(-1 -2.15681e-16 0)
(-1 -2.21771e-16 0)
(-1 -1.09612e-16 0)
(-1 3.53954e-17 0)
(-1 1.57362e-17 0)
(-1 -6.51284e-17 0)
(-1 -8.20635e-18 0)
(-1 -1.11117e-14 0)
(-1 2.28589e-15 0)
(-1 -5.20814e-16 0)
(-1 7.79626e-17 0)
(-1 -8.38292e-17 0)
(-1 -1.01273e-16 0)
(-1 -7.14738e-17 0)
(-1 -9.14727e-17 0)
(-1 -1.15528e-16 0)
(-1 -2.27199e-16 0)
(-1 -2.79005e-16 0)
(-1 -2.73932e-16 0)
(-1 -1.6559e-16 0)
(-1 -1.50179e-16 0)
(-1 -1.05292e-16 0)
(-1 -3.2027e-17 0)
(-1 4.04216e-17 0)
(-1 4.89675e-17 0)
(-1 -5.34012e-18 0)
(-1 -4.9709e-17 0)
(-1 9.23797e-14 0)
(-1 -1.9768e-14 0)
(-1 4.71952e-15 0)
(-1 -1.01615e-15 0)
(-1 2.40946e-16 0)
(-1 -1.16497e-16 0)
(-1 -1.22665e-16 0)
(-1 -1.0736e-16 0)
(-1 4.34699e-17 0)
(-1 8.23584e-17 0)
(-1 2.37942e-17 0)
(-1 -1.37875e-16 0)
(-1 -2.50226e-16 0)
(-1 -1.77555e-16 0)
(-1 -2.26552e-17 0)
(-1 8.57204e-17 0)
(-1 7.41532e-17 0)
(-1 4.16384e-17 0)
(-1 2.07518e-17 0)
(-1 -1.1493e-17 0)
(-1 -4.38731e-14 0)
(-1 9.24449e-15 0)
(-1 -2.20078e-15 0)
(-1 4.06127e-16 0)
(-1 -8.9784e-17 0)
(-1 2.97151e-17 0)
(-1 -3.7587e-17 0)
(-1 2.05108e-17 0)
(-1 4.95249e-17 0)
(-1 1.07268e-16 0)
(-1 7.25505e-17 0)
(-1 -6.92875e-17 0)
(-1 -1.77582e-16 0)
(-1 -9.44483e-17 0)
(-1 -1.21123e-16 0)
(-1 -1.37495e-16 0)
(-1 -2.96815e-17 0)
(-1 2.55302e-17 0)
(-1 -2.6424e-18 0)
(-1 -1.98244e-18 0)
(-1 -8.20185e-14 0)
(-1 1.76275e-14 0)
(-1 -4.15886e-15 0)
(-1 8.54385e-16 0)
(-1 -2.53531e-16 0)
(-1 -3.52929e-17 0)
(-1 -1.46318e-16 0)
(-1 -1.36059e-16 0)
(-1 -1.42123e-16 0)
(-1 -6.90721e-17 0)
(-1 -2.04888e-18 0)
(-1 -2.21381e-17 0)
(-1 -1.44072e-17 0)
(-1 -4.11061e-17 0)
(-1 -1.36208e-16 0)
(-1 -1.69276e-16 0)
(-1 -6.58047e-17 0)
(-1 9.70357e-18 0)
(-1 7.58168e-18 0)
(-1 -2.14503e-17 0)
)
;

boundaryField
{
    movingWall
    {
        type            zeroGradient;
    }
    fixedWalls
    {
        type            zeroGradient;
    }
    frontAndBack
    {
        type            empty;
    }
}


// ************************************************************************* //
