/*--------------------------------*- C++ -*----------------------------------*\
| =========                 |                                                 |
| \\      /  F ield         | OpenFOAM: The Open Source CFD Toolbox           |
|  \\    /   O peration     | Version:  2506                                  |
|   \\  /    A nd           | Website:  www.openfoam.com                      |
|    \\/     M anipulation  |                                                 |
\*---------------------------------------------------------------------------*/
FoamFile
{
    version     2.0;
    format      ascii;
    arch        "LSB;label=32;scalar=64";
    class       volVectorField;
    location    "6.125";
    object      vorticityField;
}
// * * * * * * * * * * * * * * * * * * * * * * * * * * * * * * * * * * * * * //

dimensions      [0 0 -1 0 0 0 0];

internalField   nonuniform List<vector> 
400
(
(0 -0 7.83436e-12)
(0 -0 -1.08545e-11)
(0 -0 2.38381e-12)
(0 -0 -5.97068e-13)
(0 -0 1.03647e-13)
(0 -0 -2.72656e-14)
(0 -0 1.19931e-15)
(0 -0 -8.63587e-15)
(0 -0 -3.5496e-15)
(0 -0 3.93005e-15)
(0 -0 3.497e-15)
(0 -0 5.59656e-14)
(0 -0 6.42282e-14)
(0 -0 2.1688e-15)
(0 -0 -1.21372e-14)
(0 -0 -1.36486e-14)
(0 -0 -2.84858e-14)
(0 -0 1.22898e-14)
(0 -0 9.79764e-15)
(0 -0 -1.38395e-14)
(0 -0 1.01264e-12)
(0 -0 -1.7799e-12)
(0 -0 5.28592e-13)
(0 -0 -7.04986e-14)
(0 -0 7.04103e-14)
(0 -0 7.72725e-14)
(0 -0 8.2062e-14)
(0 -0 7.82568e-14)
(0 -0 8.65171e-14)
(0 -0 9.11438e-14)
(0 -0 8.06964e-14)
(0 -0 -9.8125e-15)
(0 -0 2.44981e-14)
(0 -0 5.46944e-14)
(0 -0 8.12807e-14)
(0 -0 2.60808e-15)
(0 -0 8.03447e-14)
(0 -0 7.17404e-16)
(0 -0 6.22263e-14)
(0 -0 4.25653e-14)
(0 -0 -4.73913e-12)
(0 -0 1.02608e-11)
(0 -0 -2.49351e-12)
(0 -0 5.12135e-13)
(0 -0 -1.91991e-13)
(0 -0 1.33848e-15)
(0 -0 -8.8512e-14)
(0 -0 -2.58894e-14)
(0 -0 -8.27132e-14)
(0 -0 -2.50869e-14)
(0 -0 -2.43793e-14)
(0 -0 -1.16094e-13)
(0 -0 -1.01706e-13)
(0 -0 -6.44362e-14)
(0 -0 -1.73747e-14)
(0 -0 1.31672e-14)
(0 -0 -9.86139e-16)
(0 -0 -1.34795e-14)
(0 -0 -5.48425e-14)
(0 -0 1.73899e-14)
(0 -0 4.51436e-12)
(0 -0 -7.92867e-12)
(0 -0 1.7187e-12)
(0 -0 -4.66468e-13)
(0 -0 4.75863e-14)
(0 -0 -1.36669e-13)
(0 -0 -8.01217e-14)
(0 -0 -1.0484e-13)
(0 -0 -1.09621e-13)
(0 -0 -1.19258e-13)
(0 -0 -1.33682e-13)
(0 -0 1.75992e-14)
(0 -0 -5.4554e-14)
(0 -0 -6.70357e-14)
(0 -0 -5.98793e-14)
(0 -0 -5.45683e-14)
(0 -0 -1.11578e-13)
(0 -0 -3.70431e-14)
(0 -0 -3.02222e-14)
(0 -0 -2.95376e-14)
(0 -0 -1.70115e-12)
(0 -0 1.29118e-12)
(0 -0 -2.54794e-14)
(0 -0 1.91312e-13)
(0 -0 3.80707e-14)
(0 -0 4.80677e-14)
(0 -0 6.27261e-14)
(0 -0 6.65251e-14)
(0 -0 7.9332e-14)
(0 -0 3.33881e-14)
(0 -0 1.50555e-14)
(0 -0 6.78624e-14)
(0 -0 3.02247e-14)
(0 -0 -1.41169e-14)
(0 -0 4.33153e-15)
(0 -0 7.44188e-14)
(0 -0 5.79079e-14)
(0 -0 1.17647e-14)
(0 -0 1.33464e-14)
(0 -0 7.60118e-15)
(0 -0 -4.59251e-12)
(0 -0 6.91676e-12)
(0 -0 -1.58017e-12)
(0 -0 3.93812e-13)
(0 -0 -2.50311e-14)
(0 -0 8.42747e-14)
(0 -0 2.71081e-14)
(0 -0 4.93095e-14)
(0 -0 2.49057e-14)
(0 -0 5.84606e-14)
(0 -0 6.0414e-14)
(0 -0 2.25429e-15)
(0 -0 7.68393e-14)
(0 -0 -7.72498e-15)
(0 -0 -2.72499e-14)
(0 -0 6.91914e-15)
(0 -0 -2.23142e-14)
(0 -0 -3.01669e-14)
(0 -0 -8.0849e-15)
(0 -0 1.65676e-15)
(0 -0 7.42969e-12)
(0 -0 -9.80138e-12)
(0 -0 2.10619e-12)
(0 -0 -5.92009e-13)
(0 -0 1.4571e-13)
(0 -0 -6.86216e-16)
(0 -0 6.6683e-14)
(0 -0 2.98363e-15)
(0 -0 9.00878e-14)
(0 -0 6.38403e-15)
(0 -0 4.00636e-14)
(0 -0 -3.27043e-14)
(0 -0 -6.33075e-14)
(0 -0 9.26467e-14)
(0 -0 1.08039e-13)
(0 -0 -1.49872e-14)
(0 -0 -4.41843e-14)
(0 -0 2.76283e-14)
(0 -0 -2.34843e-16)
(0 -0 -2.73948e-14)
(0 -0 -3.02762e-12)
(0 -0 3.37438e-12)
(0 -0 -8.73129e-13)
(0 -0 1.6599e-13)
(0 -0 -1.0875e-13)
(0 -0 -4.97241e-14)
(0 -0 -4.64009e-14)
(0 -0 1.135e-14)
(0 -0 -3.2156e-14)
(0 -0 -1.5555e-14)
(0 -0 -2.12131e-14)
(0 -0 -1.72949e-14)
(0 -0 7.38898e-14)
(0 -0 1.85239e-13)
(0 -0 1.05404e-13)
(0 -0 3.26404e-14)
(0 -0 -2.13664e-15)
(0 -0 5.13854e-14)
(0 -0 4.43647e-15)
(0 -0 2.66334e-14)
(0 -0 -3.14738e-12)
(0 -0 4.56218e-12)
(0 -0 -1.12455e-12)
(0 -0 2.01786e-13)
(0 -0 -1.0118e-13)
(0 -0 -1.17683e-14)
(0 -0 -2.63188e-14)
(0 -0 -8.59168e-14)
(0 -0 -5.89565e-14)
(0 -0 7.3862e-15)
(0 -0 1.3779e-14)
(0 -0 6.31083e-14)
(0 -0 3.39108e-15)
(0 -0 -7.5532e-14)
(0 -0 -1.66368e-13)
(0 -0 -8.44464e-14)
(0 -0 -7.98497e-15)
(0 -0 -4.11819e-14)
(0 -0 -3.741e-15)
(0 -0 -2.47257e-14)
(0 -0 6.46591e-12)
(0 -0 -7.70104e-12)
(0 -0 1.94012e-12)
(0 -0 -2.75771e-13)
(0 -0 2.0257e-13)
(0 -0 1.03321e-13)
(0 -0 9.71089e-14)
(0 -0 8.04177e-14)
(0 -0 -1.04346e-14)
(0 -0 -2.87779e-15)
(0 -0 -5.08269e-14)
(0 -0 -8.28322e-14)
(0 -0 -1.32274e-13)
(0 -0 -1.80411e-13)
(0 -0 -1.04429e-13)
(0 -0 -1.02338e-14)
(0 -0 6.02934e-14)
(0 -0 1.16872e-14)
(0 -0 -6.1902e-15)
(0 -0 -2.46404e-14)
(0 -0 -6.99452e-12)
(0 -0 7.13747e-12)
(0 -0 -1.72283e-12)
(0 -0 2.84722e-13)
(0 -0 -1.6443e-13)
(0 -0 -6.29691e-14)
(0 -0 -8.34688e-14)
(0 -0 -5.91146e-14)
(0 -0 -6.45888e-14)
(0 -0 -1.09378e-13)
(0 -0 -4.35844e-14)
(0 -0 -2.02738e-14)
(0 -0 -7.95348e-15)
(0 -0 -6.67751e-15)
(0 -0 8.80097e-14)
(0 -0 4.04436e-14)
(0 -0 8.97204e-14)
(0 -0 -3.59155e-15)
(0 -0 8.89228e-16)
(0 -0 4.87231e-14)
(0 -0 4.89291e-12)
(0 -0 -4.35099e-12)
(0 -0 1.08391e-12)
(0 -0 -2.3165e-13)
(0 -0 6.1757e-14)
(0 -0 4.80129e-14)
(0 -0 7.19528e-14)
(0 -0 -2.00712e-14)
(0 -0 5.00741e-14)
(0 -0 6.772e-14)
(0 -0 7.30396e-14)
(0 -0 1.18655e-13)
(0 -0 5.00422e-14)
(0 -0 4.14854e-14)
(0 -0 4.26675e-14)
(0 -0 2.93653e-14)
(0 -0 3.47283e-14)
(0 -0 4.95381e-15)
(0 -0 6.20557e-15)
(0 -0 -1.4774e-14)
(0 -0 9.21268e-13)
(0 -0 -1.06766e-12)
(0 -0 4.21353e-13)
(0 -0 4.81463e-14)
(0 -0 6.04014e-14)
(0 -0 -2.06689e-14)
(0 -0 -2.03762e-14)
(0 -0 -1.35079e-14)
(0 -0 6.20105e-14)
(0 -0 6.07244e-14)
(0 -0 6.00073e-14)
(0 -0 1.37302e-14)
(0 -0 1.48316e-14)
(0 -0 1.57367e-15)
(0 -0 -7.06601e-14)
(0 -0 -5.36376e-14)
(0 -0 -1.0206e-13)
(0 -0 1.1143e-14)
(0 -0 2.04714e-14)
(0 -0 5.27564e-15)
(0 -0 -6.10433e-12)
(0 -0 6.38349e-12)
(0 -0 -1.54418e-12)
(0 -0 2.9856e-13)
(0 -0 -1.29893e-13)
(0 -0 -6.50979e-14)
(0 -0 -7.53018e-14)
(0 -0 -2.79044e-15)
(0 -0 8.55067e-15)
(0 -0 -4.12315e-14)
(0 -0 1.57708e-14)
(0 -0 1.06923e-14)
(0 -0 1.3722e-14)
(0 -0 7.23238e-14)
(0 -0 -9.50045e-15)
(0 -0 -3.14775e-14)
(0 -0 -7.22271e-14)
(0 -0 4.39491e-15)
(0 -0 4.16433e-15)
(0 -0 1.75316e-14)
(0 -0 6.58731e-12)
(0 -0 -8.07506e-12)
(0 -0 1.88737e-12)
(0 -0 -4.07938e-13)
(0 -0 1.75598e-13)
(0 -0 2.63462e-14)
(0 -0 5.10993e-14)
(0 -0 8.5635e-14)
(0 -0 4.04197e-14)
(0 -0 1.04391e-13)
(0 -0 9.56447e-14)
(0 -0 1.9992e-14)
(0 -0 -2.05694e-14)
(0 -0 -1.18217e-14)
(0 -0 2.99037e-15)
(0 -0 5.64685e-15)
(0 -0 5.86932e-14)
(0 -0 -4.98303e-15)
(0 -0 -5.47519e-15)
(0 -0 8.12478e-15)
(0 -0 -3.24035e-12)
(0 -0 5.16348e-12)
(0 -0 -1.3312e-12)
(0 -0 2.79574e-13)
(0 -0 -5.59552e-14)
(0 -0 -2.24549e-14)
(0 -0 4.16302e-15)
(0 -0 -8.81297e-14)
(0 -0 -9.49918e-14)
(0 -0 -3.70973e-14)
(0 -0 -8.5725e-14)
(0 -0 -2.66376e-14)
(0 -0 -6.32692e-14)
(0 -0 -9.27914e-14)
(0 -0 -4.36031e-14)
(0 -0 2.57166e-14)
(0 -0 6.67449e-14)
(0 -0 -3.71574e-14)
(0 -0 -2.39425e-15)
(0 -0 7.33347e-15)
(0 -0 -3.13371e-13)
(0 -0 7.0672e-13)
(0 -0 -3.02108e-13)
(0 -0 -9.18268e-14)
(0 -0 -1.53449e-13)
(0 -0 -5.29746e-14)
(0 -0 -1.0744e-13)
(0 -0 -5.86155e-14)
(0 -0 -9.48877e-14)
(0 -0 -1.24768e-13)
(0 -0 -8.59885e-14)
(0 -0 -6.99736e-14)
(0 -0 1.23753e-14)
(0 -0 6.02977e-15)
(0 -0 1.18152e-14)
(0 -0 1.45713e-14)
(0 -0 8.09945e-15)
(0 -0 -4.57617e-15)
(0 -0 -9.86765e-15)
(0 -0 5.50491e-15)
(0 -0 3.27674e-12)
(0 -0 -7.68182e-12)
(0 -0 1.82097e-12)
(0 -0 -3.93647e-13)
(0 -0 8.99655e-14)
(0 -0 -6.34661e-14)
(0 -0 2.80188e-14)
(0 -0 1.66135e-14)
(0 -0 7.31819e-14)
(0 -0 -1.96757e-15)
(0 -0 5.08169e-15)
(0 -0 -2.96937e-16)
(0 -0 5.02421e-14)
(0 -0 4.98621e-14)
(0 -0 8.05377e-14)
(0 -0 9.0996e-14)
(0 -0 -5.86183e-14)
(0 -0 2.17649e-14)
(0 -0 -5.31315e-15)
(0 -0 -9.2587e-16)
(0 -0 -2.10761e-12)
(0 -0 3.81487e-12)
(0 -0 -8.56731e-13)
(0 -0 1.83995e-13)
(0 -0 -3.76411e-14)
(0 -0 5.2197e-15)
(0 -0 -9.20436e-16)
(0 -0 8.71119e-15)
(0 -0 8.67569e-15)
(0 -0 2.30256e-15)
(0 -0 -7.18656e-14)
(0 -0 -7.92233e-14)
(0 -0 -5.67262e-14)
(0 -0 -2.14592e-14)
(0 -0 -3.14097e-14)
(0 -0 -4.50659e-14)
(0 -0 1.63025e-14)
(0 -0 2.70391e-15)
(0 -0 -2.75127e-15)
(0 -0 4.62485e-16)
(0 -0 -5.27358e-12)
(0 -0 7.56912e-12)
(0 -0 -1.56889e-12)
(0 -0 4.44743e-13)
(0 -0 -3.47577e-14)
(0 -0 9.20364e-14)
(0 -0 1.70284e-14)
(0 -0 5.46296e-14)
(0 -0 3.38038e-14)
(0 -0 6.82176e-14)
(0 -0 5.89035e-14)
(0 -0 5.29743e-14)
(0 -0 5.23133e-14)
(0 -0 1.4925e-14)
(0 -0 1.42881e-14)
(0 -0 7.0403e-15)
(0 -0 1.78979e-14)
(0 -0 7.33864e-15)
(0 -0 -3.11539e-15)
(0 -0 1.38686e-15)
)
;

boundaryField
{
    movingWall
    {
        type            calculated;
        value           nonuniform List<vector> 
20
(
(0 -0 -1.12353e-11)
(0 -0 9.29587e-12)
(0 -0 -1.45527e-12)
(0 -0 7.90213e-13)
(0 -0 2.21895e-13)
(0 -0 3.65993e-13)
(0 -0 3.00786e-13)
(0 -0 3.11282e-13)
(0 -0 2.73152e-13)
(0 -0 1.91643e-13)
(0 -0 2.26738e-13)
(0 -0 1.764e-13)
(0 -0 1.75739e-13)
(0 -0 1.21047e-13)
(0 -0 1.64819e-13)
(0 -0 7.0403e-15)
(0 -0 1.78979e-14)
(0 -0 7.33864e-15)
(0 -0 -3.11539e-15)
(0 -0 1.38686e-15)
)
;
    }
    fixedWalls
    {
        type            calculated;
        value           nonuniform List<vector> 
60
(
(0 -0 4.57557e-11)
(0 -0 8.37572e-12)
(0 -0 -4.43308e-11)
(0 -0 3.32037e-11)
(0 -0 -4.48469e-12)
(0 -0 -2.96476e-11)
(0 -0 4.14754e-11)
(0 -0 -1.44348e-11)
(0 -0 -1.94675e-11)
(0 -0 3.326e-11)
(0 -0 -3.10762e-11)
(0 -0 1.90939e-11)
(0 -0 5.09001e-12)
(0 -0 -2.76609e-11)
(0 -0 3.46122e-11)
(0 -0 -2.22562e-11)
(0 -0 -3.87546e-12)
(0 -0 3.29675e-11)
(0 -0 -1.6194e-11)
(0 -0 -3.16419e-11)
(0 -0 -3.36806e-14)
(0 -0 1.99742e-14)
(0 -0 2.28236e-14)
(0 -0 -8.55091e-15)
(0 -0 2.52413e-14)
(0 -0 1.07053e-14)
(0 -0 -1.81742e-14)
(0 -0 2.90475e-14)
(0 -0 -1.44829e-14)
(0 -0 -1.81466e-14)
(0 -0 3.54268e-14)
(0 -0 -3.26628e-14)
(0 -0 4.88927e-16)
(0 -0 3.60267e-14)
(0 -0 1.4313e-14)
(0 -0 3.28254e-15)
(0 -0 1.98836e-14)
(0 -0 4.59722e-15)
(0 -0 7.92977e-16)
(0 -0 8.58011e-15)
(0 -0 1.59669e-11)
(0 -0 -1.32225e-11)
(0 -0 2.43802e-12)
(0 -0 -7.92007e-13)
(0 -0 -2.47443e-15)
(0 -0 -2.04901e-13)
(0 -0 -1.32027e-13)
(0 -0 -9.74537e-14)
(0 -0 -9.23674e-14)
(0 -0 -8.48878e-14)
(0 -0 -8.53208e-14)
(0 -0 -4.26534e-14)
(0 -0 -7.87998e-14)
(0 -0 -1.31058e-13)
(0 -0 -1.00955e-13)
(0 -0 -1.36486e-14)
(0 -0 -9.01986e-14)
(0 -0 1.22898e-14)
(0 -0 -1.23429e-13)
(0 -0 -1.02657e-13)
)
;
    }
    frontAndBack
    {
        type            empty;
    }
}


// ************************************************************************* //
