/*--------------------------------*- C++ -*----------------------------------*\
| =========                 |                                                 |
| \\      /  F ield         | OpenFOAM: The Open Source CFD Toolbox           |
|  \\    /   O peration     | Version:  2506                                  |
|   \\  /    A nd           | Website:  www.openfoam.com                      |
|    \\/     M anipulation  |                                                 |
\*---------------------------------------------------------------------------*/
FoamFile
{
    version     2.0;
    format      ascii;
    arch        "LSB;label=32;scalar=64";
    class       volScalarField;
    location    "6.125";
    object      zeroGradient(epsilon);
}
// * * * * * * * * * * * * * * * * * * * * * * * * * * * * * * * * * * * * * //

dimensions      [0 2 -3 0 0 0 0];

internalField   nonuniform List<scalar> 
400
(
3.79649e-06
3.79648e-06
3.79648e-06
3.79647e-06
3.79647e-06
3.79646e-06
3.79646e-06
3.79646e-06
3.79645e-06
3.79645e-06
3.79645e-06
3.79645e-06
3.79645e-06
3.79645e-06
3.79644e-06
3.79645e-06
3.79644e-06
3.79644e-06
3.79644e-06
3.79644e-06
4.07128e-06
4.00027e-06
4.00616e-06
4.00858e-06
4.01347e-06
4.01599e-06
4.02088e-06
4.02349e-06
4.02838e-06
4.03109e-06
4.03598e-06
4.03879e-06
4.04367e-06
4.0466e-06
4.05147e-06
4.0545e-06
4.05937e-06
4.0625e-06
4.06495e-06
4.06897e-06
4.47452e-06
4.39276e-06
4.39965e-06
4.40246e-06
4.40815e-06
4.41107e-06
4.41675e-06
4.41975e-06
4.42543e-06
4.42852e-06
4.43417e-06
4.43738e-06
4.443e-06
4.44632e-06
4.45191e-06
4.45534e-06
4.46091e-06
4.46443e-06
4.46722e-06
4.47178e-06
4.85658e-06
4.76526e-06
4.77294e-06
4.77608e-06
4.78243e-06
4.78568e-06
4.79202e-06
4.79537e-06
4.8017e-06
4.80516e-06
4.81146e-06
4.81504e-06
4.82131e-06
4.82502e-06
4.83125e-06
4.83508e-06
4.8413e-06
4.84524e-06
4.84835e-06
4.85345e-06
5.14379e-06
5.045e-06
5.05331e-06
5.05669e-06
5.06355e-06
5.06707e-06
5.07392e-06
5.07754e-06
5.08437e-06
5.08811e-06
5.09492e-06
5.0988e-06
5.10557e-06
5.10959e-06
5.11633e-06
5.12047e-06
5.1272e-06
5.13145e-06
5.13482e-06
5.14033e-06
5.33211e-06
5.22831e-06
5.23702e-06
5.24058e-06
5.24778e-06
5.25147e-06
5.25866e-06
5.26246e-06
5.26964e-06
5.27357e-06
5.28072e-06
5.28479e-06
5.2919e-06
5.29612e-06
5.3032e-06
5.30755e-06
5.31461e-06
5.31909e-06
5.32263e-06
5.32842e-06
5.4471e-06
5.34023e-06
5.3492e-06
5.35286e-06
5.36027e-06
5.36407e-06
5.37146e-06
5.37538e-06
5.38276e-06
5.38681e-06
5.39417e-06
5.39836e-06
5.40568e-06
5.41002e-06
5.41731e-06
5.4218e-06
5.42906e-06
5.43368e-06
5.43732e-06
5.44328e-06
5.51673e-06
5.40799e-06
5.41711e-06
5.42083e-06
5.42837e-06
5.43223e-06
5.43976e-06
5.44374e-06
5.45125e-06
5.45537e-06
5.46285e-06
5.46712e-06
5.47457e-06
5.47899e-06
5.4864e-06
5.49096e-06
5.49836e-06
5.50305e-06
5.50675e-06
5.51282e-06
5.56149e-06
5.45155e-06
5.46077e-06
5.46453e-06
5.47215e-06
5.47605e-06
5.48366e-06
5.48769e-06
5.49528e-06
5.49944e-06
5.50701e-06
5.51132e-06
5.51885e-06
5.52332e-06
5.53081e-06
5.53543e-06
5.5429e-06
5.54765e-06
5.5514e-06
5.55753e-06
5.59406e-06
5.48325e-06
5.49254e-06
5.49633e-06
5.50401e-06
5.50794e-06
5.51561e-06
5.51967e-06
5.52732e-06
5.53152e-06
5.53914e-06
5.54349e-06
5.55108e-06
5.55558e-06
5.56314e-06
5.56779e-06
5.57532e-06
5.5801e-06
5.58388e-06
5.59006e-06
5.62162e-06
5.51007e-06
5.51942e-06
5.52324e-06
5.53096e-06
5.53493e-06
5.54264e-06
5.54673e-06
5.55443e-06
5.55865e-06
5.56633e-06
5.5707e-06
5.57834e-06
5.58288e-06
5.59048e-06
5.59516e-06
5.60274e-06
5.60756e-06
5.61136e-06
5.61758e-06
5.64811e-06
5.53587e-06
5.54527e-06
5.54911e-06
5.55689e-06
5.56087e-06
5.56864e-06
5.57275e-06
5.5805e-06
5.58475e-06
5.59247e-06
5.59688e-06
5.60456e-06
5.60912e-06
5.61678e-06
5.62149e-06
5.62912e-06
5.63396e-06
5.63779e-06
5.64405e-06
5.67585e-06
5.56285e-06
5.57232e-06
5.57619e-06
5.58401e-06
5.58802e-06
5.59584e-06
5.59998e-06
5.60778e-06
5.61205e-06
5.61983e-06
5.62426e-06
5.632e-06
5.63659e-06
5.64429e-06
5.64903e-06
5.65671e-06
5.66159e-06
5.66544e-06
5.67174e-06
5.70624e-06
5.59244e-06
5.60198e-06
5.60587e-06
5.61375e-06
5.61779e-06
5.62566e-06
5.62983e-06
5.63768e-06
5.64199e-06
5.64982e-06
5.65428e-06
5.66207e-06
5.6667e-06
5.67445e-06
5.67923e-06
5.68697e-06
5.69188e-06
5.69576e-06
5.7021e-06
5.74025e-06
5.62555e-06
5.63515e-06
5.63908e-06
5.64702e-06
5.65109e-06
5.65902e-06
5.66322e-06
5.67114e-06
5.67548e-06
5.68337e-06
5.68787e-06
5.69572e-06
5.70038e-06
5.7082e-06
5.71302e-06
5.72081e-06
5.72576e-06
5.72967e-06
5.73607e-06
5.77812e-06
5.66241e-06
5.67209e-06
5.67605e-06
5.68406e-06
5.68817e-06
5.69617e-06
5.70041e-06
5.70839e-06
5.71277e-06
5.72073e-06
5.72527e-06
5.73319e-06
5.73789e-06
5.74578e-06
5.75064e-06
5.7585e-06
5.7635e-06
5.76744e-06
5.77389e-06
5.81873e-06
5.70192e-06
5.7117e-06
5.71569e-06
5.72378e-06
5.72792e-06
5.736e-06
5.74027e-06
5.74833e-06
5.75275e-06
5.76078e-06
5.76536e-06
5.77336e-06
5.7781e-06
5.78606e-06
5.79097e-06
5.7989e-06
5.80395e-06
5.80793e-06
5.81444e-06
5.85856e-06
5.74074e-06
5.7506e-06
5.75462e-06
5.76277e-06
5.76696e-06
5.7751e-06
5.77941e-06
5.78754e-06
5.792e-06
5.8001e-06
5.80472e-06
5.81279e-06
5.81758e-06
5.8256e-06
5.83055e-06
5.83856e-06
5.84365e-06
5.84767e-06
5.85424e-06
5.89143e-06
5.77512e-06
5.78468e-06
5.78858e-06
5.79652e-06
5.80061e-06
5.80856e-06
5.81282e-06
5.82077e-06
5.82521e-06
5.83315e-06
5.83779e-06
5.8457e-06
5.85056e-06
5.85845e-06
5.86351e-06
5.87139e-06
5.87663e-06
5.8806e-06
5.8872e-06
5.90624e-06
5.90623e-06
5.90622e-06
5.90621e-06
5.90621e-06
5.9062e-06
5.9062e-06
5.90619e-06
5.90619e-06
5.90618e-06
5.90618e-06
5.90618e-06
5.90618e-06
5.90617e-06
5.90617e-06
5.90617e-06
5.90617e-06
5.90617e-06
5.90617e-06
5.90617e-06
)
;

boundaryField
{
    movingWall
    {
        type            zeroGradient;
    }
    fixedWalls
    {
        type            zeroGradient;
    }
    frontAndBack
    {
        type            empty;
    }
}


// ************************************************************************* //
