/*--------------------------------*- C++ -*----------------------------------*\
| =========                 |                                                 |
| \\      /  F ield         | OpenFOAM: The Open Source CFD Toolbox           |
|  \\    /   O peration     | Version:  2506                                  |
|   \\  /    A nd           | Website:  www.openfoam.com                      |
|    \\/     M anipulation  |                                                 |
\*---------------------------------------------------------------------------*/
FoamFile
{
    version     2.0;
    format      ascii;
    arch        "LSB;label=32;scalar=64";
    class       volScalarField;
    location    "0.3";
    object      p;
}
// * * * * * * * * * * * * * * * * * * * * * * * * * * * * * * * * * * * * * //

dimensions      [0 2 -2 0 0 0 0];

internalField   nonuniform List<scalar> 
400
(
3.95583e-06
-0.00582231
-0.0129589
-0.0184101
-0.020427
-0.0182331
-0.0117688
-0.00147929
0.0118407
0.0271511
0.043245
0.0588224
0.0725771
0.0833063
0.0900505
0.092265
0.0900247
0.0842439
0.0768819
0.0710693
0.00578186
-0.00021639
-0.00580132
-0.00953923
-0.0105952
-0.00842879
-0.00296616
0.00547749
0.0163056
0.0287136
0.0417507
0.0543861
0.065586
0.0744092
0.0801196
0.0823154
0.0810775
0.0770559
0.0712761
0.0653207
0.0133348
0.00503441
-0.000993698
-0.00442086
-0.00527025
-0.00326107
0.00160517
0.0090302
0.0185043
0.0293511
0.0407667
0.0518704
0.0617689
0.0696366
0.0748073
0.0768788
0.0758429
0.0720879
0.0658084
0.0575394
0.0201379
0.00869579
0.00122672
-0.00266699
-0.00372011
-0.00188305
0.0027336
0.00978681
0.0187824
0.0290969
0.0399935
0.0506553
0.0602339
0.0679169
0.0730042
0.0750029
0.0737678
0.0694589
0.0616067
0.0501076
0.0244997
0.00977241
0.000590183
-0.00398578
-0.00530058
-0.00350535
0.00117689
0.00833674
0.0174641
0.0279511
0.0390869
0.0500717
0.0600505
0.0681666
0.073628
0.0757997
0.0743716
0.0692932
0.05953
0.0445431
0.0251754
0.00714927
-0.00380168
-0.00905613
-0.0105105
-0.00849794
-0.0033545
0.00443188
0.0143158
0.0256814
0.0378162
0.0499056
0.0610504
0.0703053
0.0767369
0.0795194
0.078142
0.0723374
0.0605442
0.0418965
0.0210916
-0.0002627
-0.0129338
-0.018708
-0.0200279
-0.0174116
-0.0113156
-0.00231671
0.00899354
0.0219793
0.0359127
0.0499473
0.0631151
0.0743482
0.0825248
0.0865726
0.0857242
0.0794513
0.0656256
0.0430784
0.0111421
-0.0136177
-0.0278737
-0.0338523
-0.034601
-0.0308545
-0.0232095
-0.0123415
0.00110876
0.0164879
0.0330565
0.0499374
0.066087
0.0802935
0.0912043
0.0974336
0.0978742
0.0916404
0.0759015
0.0491229
-0.00596615
-0.0342647
-0.0498677
-0.0555458
-0.0550869
-0.0495109
-0.0395894
-0.0261088
-0.00975233
0.00882792
0.0289059
0.0495982
0.069802
0.0881588
0.103052
0.112705
0.115555
0.110196
0.0928392
0.0614172
-0.0318541
-0.0638728
-0.0804134
-0.0850034
-0.082416
-0.0740738
-0.060976
-0.0440313
-0.0239459
-0.00133108
0.0231514
0.0486667
0.074101
0.0979773
0.118401
0.13313
0.139993
0.136822
0.118445
0.0819388
-0.0686621
-0.104598
-0.12134
-0.123585
-0.117511
-0.105121
-0.0877126
-0.0663195
-0.0416306
-0.014149
0.0156122
0.0469597
0.0788619
0.109799
0.137629
0.15959
0.172731
0.173782
0.155525
0.113575
-0.119395
-0.159351
-0.174909
-0.172751
-0.161142
-0.142923
-0.119753
-0.0927704
-0.0625705
-0.0294405
0.00638035
0.0444806
0.0840618
0.123709
0.161142
0.193091
0.215673
0.224081
0.208054
0.160635
-0.18862
-0.232235
-0.243932
-0.233942
-0.213688
-0.187148
-0.156366
-0.122494
-0.0858906
-0.0464646
-0.00400682
0.0415463
0.0898492
0.139836
0.189325
0.234694
0.271079
0.291668
0.281746
0.229778
-0.283965
-0.329297
-0.331825
-0.308274
-0.274702
-0.236434
-0.195758
-0.153603
-0.109833
-0.0637374
-0.01443
0.0388711
0.0965615
0.158283
0.22238
0.285293
0.341402
0.381579
0.384917
0.331835
-0.419308
-0.459663
-0.442344
-0.395786
-0.342123
-0.287734
-0.23461
-0.182923
-0.131602
-0.0789771
-0.023206
0.0374831
0.10456
0.178844
0.259867
0.344975
0.42862
0.499703
0.529677
0.485392
-0.620522
-0.636736
-0.578671
-0.494188
-0.411235
-0.335653
-0.267775
-0.205971
-0.147529
-0.0893753
-0.0284181
0.0383561
0.113814
0.200478
0.299981
0.41203
0.533034
0.651778
0.732774
0.722396
-0.935916
-0.878508
-0.741736
-0.597944
-0.474389
-0.372655
-0.288864
-0.217757
-0.153947
-0.0924567
-0.0287097
0.0417034
0.123271
0.220725
0.338932
0.482159
0.652001
0.841345
1.01527
1.0975
-1.47642
-1.20663
-0.920499
-0.691385
-0.517302
-0.387541
-0.290058
-0.213333
-0.148118
-0.0872089
-0.0245704
0.045465
0.128945
0.233078
0.367109
0.542683
0.771297
1.05932
1.40329
1.73014
-2.53964
-1.63054
-1.04444
-0.710957
-0.495749
-0.352092
-0.254529
-0.18358
-0.126164
-0.0735892
-0.0192621
0.0427944
0.11922
0.21879
0.354819
0.54799
0.826398
1.23658
1.91168
2.92419
-4.36666
-2.04463
-0.973541
-0.56318
-0.357847
-0.240147
-0.170119
-0.123781
-0.0874776
-0.0535049
-0.0166476
0.0276686
0.084616
0.161738
0.272419
0.442106
0.718225
1.22571
2.41104
4.84853
)
;

boundaryField
{
    movingWall
    {
        type            zeroGradient;
    }
    fixedWalls
    {
        type            zeroGradient;
    }
    frontAndBack
    {
        type            empty;
    }
}


// ************************************************************************* //
