/*--------------------------------*- C++ -*----------------------------------*\
| =========                 |                                                 |
| \\      /  F ield         | OpenFOAM: The Open Source CFD Toolbox           |
|  \\    /   O peration     | Version:  2506                                  |
|   \\  /    A nd           | Website:  www.openfoam.com                      |
|    \\/     M anipulation  |                                                 |
\*---------------------------------------------------------------------------*/
FoamFile
{
    version     2.0;
    format      ascii;
    arch        "LSB;label=32;scalar=64";
    class       volVectorField;
    location    "5.25";
    object      diffU;
}
// * * * * * * * * * * * * * * * * * * * * * * * * * * * * * * * * * * * * * //

dimensions      [0 1 -1 0 0 0 0];

internalField   nonuniform List<vector> 
400
(
(0 0 0)
(1.31006e-14 -3.86399e-14 0)
(9.88098e-15 -3.07744e-14 0)
(1.03251e-14 -3.26139e-14 0)
(1.0103e-14 -3.23365e-14 0)
(1.02141e-14 -3.23362e-14 0)
(1.0103e-14 -3.23021e-14 0)
(9.88098e-15 -3.24055e-14 0)
(9.99201e-15 -3.24265e-14 0)
(9.99201e-15 -3.23704e-14 0)
(9.76996e-15 -3.2351e-14 0)
(9.76996e-15 -3.24079e-14 0)
(9.76996e-15 -3.23421e-14 0)
(9.76996e-15 -3.23064e-14 0)
(9.54792e-15 -3.23397e-14 0)
(9.32587e-15 -3.23431e-14 0)
(9.4369e-15 -3.24141e-14 0)
(9.32587e-15 -3.23996e-14 0)
(9.10383e-15 -3.24253e-14 0)
(9.32587e-15 -3.24159e-14 0)
(2.09832e-14 1.7103e-14 0)
(5.32907e-15 -4.30666e-14 0)
(8.65974e-15 -2.98596e-14 0)
(8.43769e-15 -3.28689e-14 0)
(8.65974e-15 -3.23025e-14 0)
(8.65974e-15 -3.2451e-14 0)
(9.10383e-15 -3.23298e-14 0)
(9.10383e-15 -3.23783e-14 0)
(8.88178e-15 -3.23858e-14 0)
(8.88178e-15 -3.23044e-14 0)
(8.88178e-15 -3.2269e-14 0)
(8.65974e-15 -3.23837e-14 0)
(8.65974e-15 -3.24641e-14 0)
(9.10383e-15 -3.24158e-14 0)
(9.32587e-15 -3.23577e-14 0)
(9.54792e-15 -3.22583e-14 0)
(9.4369e-15 -3.22643e-14 0)
(9.32587e-15 -3.23175e-14 0)
(9.10383e-15 -3.24834e-14 0)
(9.10383e-15 -3.24919e-14 0)
(-3.10862e-15 -1.16236e-13 0)
(1.15463e-14 -1.49281e-14 0)
(7.77156e-15 -3.64139e-14 0)
(9.10383e-15 -3.15047e-14 0)
(8.65974e-15 -3.26126e-14 0)
(8.65974e-15 -3.25746e-14 0)
(8.65974e-15 -3.25546e-14 0)
(8.88178e-15 -3.24664e-14 0)
(8.88178e-15 -3.24246e-14 0)
(8.88178e-15 -3.23412e-14 0)
(9.10383e-15 -3.23333e-14 0)
(9.32587e-15 -3.23863e-14 0)
(9.10383e-15 -3.2567e-14 0)
(9.10383e-15 -3.26279e-14 0)
(8.88178e-15 -3.25385e-14 0)
(9.10383e-15 -3.24023e-14 0)
(9.10383e-15 -3.22428e-14 0)
(9.32587e-15 -3.22417e-14 0)
(9.4369e-15 -3.25249e-14 0)
(9.32587e-15 -3.25912e-14 0)
(2.62013e-14 1.27681e-14 0)
(6.43929e-15 -4.16823e-14 0)
(1.11022e-14 -3.02286e-14 0)
(8.88178e-15 -3.28401e-14 0)
(9.65894e-15 -3.23298e-14 0)
(9.54792e-15 -3.25235e-14 0)
(9.32587e-15 -3.25332e-14 0)
(9.76996e-15 -3.25036e-14 0)
(9.32587e-15 -3.24847e-14 0)
(9.54792e-15 -3.24167e-14 0)
(9.4369e-15 -3.24421e-14 0)
(9.32587e-15 -3.2471e-14 0)
(9.32587e-15 -3.25006e-14 0)
(9.32587e-15 -3.25351e-14 0)
(9.32587e-15 -3.24448e-14 0)
(9.32587e-15 -3.23717e-14 0)
(9.10383e-15 -3.22868e-14 0)
(9.32587e-15 -3.23764e-14 0)
(9.4369e-15 -3.2518e-14 0)
(9.32587e-15 -3.25499e-14 0)
(-1.64313e-14 -4.03376e-14 0)
(1.44329e-14 -3.04941e-14 0)
(7.54952e-15 -3.26905e-14 0)
(1.03251e-14 -3.22966e-14 0)
(9.4369e-15 -3.24124e-14 0)
(9.4369e-15 -3.24868e-14 0)
(9.4369e-15 -3.2591e-14 0)
(9.65894e-15 -3.25483e-14 0)
(9.54792e-15 -3.23866e-14 0)
(9.54792e-15 -3.22295e-14 0)
(9.65894e-15 -3.21831e-14 0)
(9.4369e-15 -3.22628e-14 0)
(9.10383e-15 -3.24018e-14 0)
(8.88178e-15 -3.24248e-14 0)
(8.88178e-15 -3.23737e-14 0)
(8.65974e-15 -3.237e-14 0)
(8.65974e-15 -3.24802e-14 0)
(9.32587e-15 -3.26231e-14 0)
(9.32587e-15 -3.25059e-14 0)
(9.54792e-15 -3.24585e-14 0)
(4.21885e-14 -3.80144e-14 0)
(2.44249e-15 -3.1322e-14 0)
(1.18794e-14 -3.27359e-14 0)
(8.65974e-15 -3.24606e-14 0)
(9.65894e-15 -3.24446e-14 0)
(9.32587e-15 -3.24752e-14 0)
(9.32587e-15 -3.25393e-14 0)
(9.10383e-15 -3.25258e-14 0)
(8.88178e-15 -3.24073e-14 0)
(9.10383e-15 -3.23888e-14 0)
(9.10383e-15 -3.23707e-14 0)
(9.4369e-15 -3.23101e-14 0)
(9.54792e-15 -3.23121e-14 0)
(9.65894e-15 -3.23569e-14 0)
(9.65894e-15 -3.24018e-14 0)
(9.65894e-15 -3.24851e-14 0)
(9.99201e-15 -3.26223e-14 0)
(9.54792e-15 -3.25783e-14 0)
(9.65894e-15 -3.24653e-14 0)
(9.54792e-15 -3.2354e-14 0)
(-2.22045e-14 -2.29768e-14 0)
(1.63203e-14 -3.37077e-14 0)
(7.10543e-15 -3.22959e-14 0)
(1.03251e-14 -3.24867e-14 0)
(9.32587e-15 -3.23606e-14 0)
(9.65894e-15 -3.23853e-14 0)
(9.4369e-15 -3.24252e-14 0)
(9.54792e-15 -3.23976e-14 0)
(9.54792e-15 -3.23796e-14 0)
(9.65894e-15 -3.24414e-14 0)
(9.76996e-15 -3.24763e-14 0)
(9.54792e-15 -3.24285e-14 0)
(9.76996e-15 -3.23372e-14 0)
(9.54792e-15 -3.23668e-14 0)
(9.54792e-15 -3.23744e-14 0)
(9.54792e-15 -3.24305e-14 0)
(9.4369e-15 -3.24814e-14 0)
(9.32587e-15 -3.24384e-14 0)
(9.32587e-15 -3.23971e-14 0)
(9.32587e-15 -3.23668e-14 0)
(3.13083e-14 -4.29681e-14 0)
(3.9968e-15 -3.05532e-14 0)
(1.06581e-14 -3.29858e-14 0)
(7.99361e-15 -3.24391e-14 0)
(8.88178e-15 -3.25486e-14 0)
(8.88178e-15 -3.24772e-14 0)
(8.88178e-15 -3.24819e-14 0)
(8.88178e-15 -3.24124e-14 0)
(8.65974e-15 -3.23494e-14 0)
(8.65974e-15 -3.2393e-14 0)
(9.10383e-15 -3.24446e-14 0)
(9.10383e-15 -3.25307e-14 0)
(9.54792e-15 -3.25015e-14 0)
(9.65894e-15 -3.2463e-14 0)
(9.54792e-15 -3.23884e-14 0)
(9.88098e-15 -3.2324e-14 0)
(9.54792e-15 -3.23895e-14 0)
(9.32587e-15 -3.2393e-14 0)
(9.4369e-15 -3.23292e-14 0)
(9.54792e-15 -3.23931e-14 0)
(-1.15463e-14 -2.3298e-14 0)
(1.46549e-14 -3.46874e-14 0)
(7.99361e-15 -3.17809e-14 0)
(1.0103e-14 -3.26046e-14 0)
(8.88178e-15 -3.24949e-14 0)
(9.10383e-15 -3.24132e-14 0)
(8.88178e-15 -3.24015e-14 0)
(8.65974e-15 -3.24762e-14 0)
(9.10383e-15 -3.25571e-14 0)
(9.10383e-15 -3.26748e-14 0)
(9.4369e-15 -3.26621e-14 0)
(9.4369e-15 -3.26506e-14 0)
(9.32587e-15 -3.25874e-14 0)
(9.32587e-15 -3.24666e-14 0)
(9.10383e-15 -3.24497e-14 0)
(9.32587e-15 -3.23606e-14 0)
(9.4369e-15 -3.22817e-14 0)
(9.32587e-15 -3.22409e-14 0)
(9.32587e-15 -3.22908e-14 0)
(9.32587e-15 -3.23576e-14 0)
(3.55271e-14 -4.02853e-14 0)
(4.21885e-15 -2.98491e-14 0)
(1.14353e-14 -3.25738e-14 0)
(9.32587e-15 -3.20511e-14 0)
(9.99201e-15 -3.21782e-14 0)
(9.76996e-15 -3.21525e-14 0)
(9.88098e-15 -3.23027e-14 0)
(9.54792e-15 -3.24178e-14 0)
(9.54792e-15 -3.25324e-14 0)
(9.54792e-15 -3.25953e-14 0)
(9.32587e-15 -3.26122e-14 0)
(9.4369e-15 -3.25398e-14 0)
(9.4369e-15 -3.25085e-14 0)
(9.32587e-15 -3.23563e-14 0)
(9.10383e-15 -3.24071e-14 0)
(9.10383e-15 -3.24588e-14 0)
(9.10383e-15 -3.23136e-14 0)
(9.10383e-15 -3.22988e-14 0)
(9.10383e-15 -3.23621e-14 0)
(9.32587e-15 -3.23583e-14 0)
(-1.66533e-14 -2.29679e-14 0)
(1.40998e-14 -3.46078e-14 0)
(7.32747e-15 -3.18237e-14 0)
(9.76996e-15 -3.24539e-14 0)
(9.10383e-15 -3.23264e-14 0)
(9.65894e-15 -3.24058e-14 0)
(9.54792e-15 -3.23811e-14 0)
(9.4369e-15 -3.24154e-14 0)
(9.54792e-15 -3.25733e-14 0)
(9.4369e-15 -3.26006e-14 0)
(9.54792e-15 -3.26129e-14 0)
(9.76996e-15 -3.24975e-14 0)
(9.32587e-15 -3.23961e-14 0)
(9.32587e-15 -3.22664e-14 0)
(9.65894e-15 -3.22882e-14 0)
(9.32587e-15 -3.23536e-14 0)
(9.32587e-15 -3.23313e-14 0)
(9.4369e-15 -3.24021e-14 0)
(9.32587e-15 -3.23655e-14 0)
(9.4369e-15 -3.23696e-14 0)
(3.4861e-14 -4.17631e-14 0)
(5.10703e-15 -3.01276e-14 0)
(1.19904e-14 -3.27509e-14 0)
(9.4369e-15 -3.20101e-14 0)
(1.0103e-14 -3.23309e-14 0)
(9.88098e-15 -3.24345e-14 0)
(9.65894e-15 -3.22769e-14 0)
(9.65894e-15 -3.22251e-14 0)
(9.32587e-15 -3.23962e-14 0)
(9.10383e-15 -3.24611e-14 0)
(8.65974e-15 -3.25057e-14 0)
(8.88178e-15 -3.24411e-14 0)
(8.88178e-15 -3.23558e-14 0)
(8.65974e-15 -3.23847e-14 0)
(9.10383e-15 -3.23709e-14 0)
(9.10383e-15 -3.23756e-14 0)
(9.32587e-15 -3.24097e-14 0)
(9.10383e-15 -3.24126e-14 0)
(9.54792e-15 -3.23379e-14 0)
(9.32587e-15 -3.23298e-14 0)
(-1.88738e-14 -2.49045e-14 0)
(1.39888e-14 -3.43362e-14 0)
(6.43929e-15 -3.19229e-14 0)
(9.10383e-15 -3.23725e-14 0)
(8.88178e-15 -3.21962e-14 0)
(8.88178e-15 -3.22493e-14 0)
(8.65974e-15 -3.22217e-14 0)
(9.10383e-15 -3.21754e-14 0)
(8.88178e-15 -3.22005e-14 0)
(9.10383e-15 -3.23025e-14 0)
(9.10383e-15 -3.24082e-14 0)
(8.88178e-15 -3.24534e-14 0)
(8.88178e-15 -3.25018e-14 0)
(9.10383e-15 -3.25854e-14 0)
(9.10383e-15 -3.2464e-14 0)
(9.10383e-15 -3.24304e-14 0)
(9.10383e-15 -3.25269e-14 0)
(8.88178e-15 -3.25184e-14 0)
(9.32587e-15 -3.248e-14 0)
(9.10383e-15 -3.2385e-14 0)
(3.4972e-14 -4.03115e-14 0)
(4.44089e-15 -3.08502e-14 0)
(1.15463e-14 -3.28722e-14 0)
(9.10383e-15 -3.23961e-14 0)
(9.76996e-15 -3.23764e-14 0)
(9.54792e-15 -3.22955e-14 0)
(9.76996e-15 -3.2311e-14 0)
(9.65894e-15 -3.22894e-14 0)
(9.65894e-15 -3.22706e-14 0)
(9.54792e-15 -3.23279e-14 0)
(9.76996e-15 -3.22754e-14 0)
(9.54792e-15 -3.23459e-14 0)
(9.4369e-15 -3.25053e-14 0)
(9.32587e-15 -3.25685e-14 0)
(9.32587e-15 -3.24811e-14 0)
(9.4369e-15 -3.24913e-14 0)
(9.54792e-15 -3.25498e-14 0)
(9.4369e-15 -3.24901e-14 0)
(9.4369e-15 -3.24712e-14 0)
(9.4369e-15 -3.24427e-14 0)
(-8.65974e-15 -2.12864e-14 0)
(1.28786e-14 -3.41189e-14 0)
(8.21565e-15 -3.19609e-14 0)
(9.4369e-15 -3.23837e-14 0)
(9.10383e-15 -3.22992e-14 0)
(9.10383e-15 -3.2382e-14 0)
(9.10383e-15 -3.24306e-14 0)
(9.10383e-15 -3.24233e-14 0)
(9.54792e-15 -3.23744e-14 0)
(9.54792e-15 -3.22931e-14 0)
(9.4369e-15 -3.22397e-14 0)
(9.88098e-15 -3.22799e-14 0)
(9.99201e-15 -3.23143e-14 0)
(9.54792e-15 -3.24625e-14 0)
(9.4369e-15 -3.25963e-14 0)
(9.65894e-15 -3.25693e-14 0)
(9.4369e-15 -3.24586e-14 0)
(9.32587e-15 -3.23609e-14 0)
(9.32587e-15 -3.23979e-14 0)
(9.32587e-15 -3.23833e-14 0)
(1.9984e-14 -4.50184e-14 0)
(7.10543e-15 -2.99823e-14 0)
(9.99201e-15 -3.27796e-14 0)
(8.88178e-15 -3.21622e-14 0)
(9.10383e-15 -3.23495e-14 0)
(9.32587e-15 -3.23745e-14 0)
(8.88178e-15 -3.24913e-14 0)
(8.88178e-15 -3.25956e-14 0)
(9.10383e-15 -3.25427e-14 0)
(8.88178e-15 -3.24772e-14 0)
(9.32587e-15 -3.24478e-14 0)
(9.32587e-15 -3.23988e-14 0)
(9.4369e-15 -3.23342e-14 0)
(9.4369e-15 -3.24171e-14 0)
(9.4369e-15 -3.25462e-14 0)
(9.4369e-15 -3.25006e-14 0)
(9.10383e-15 -3.24204e-14 0)
(9.10383e-15 -3.2432e-14 0)
(9.32587e-15 -3.24629e-14 0)
(9.32587e-15 -3.24338e-14 0)
(0 -2.4916e-14 0)
(1.15463e-14 -3.37123e-14 0)
(8.65974e-15 -3.18655e-14 0)
(9.76996e-15 -3.22906e-14 0)
(9.32587e-15 -3.22892e-14 0)
(9.4369e-15 -3.23185e-14 0)
(9.4369e-15 -3.23888e-14 0)
(9.4369e-15 -3.24984e-14 0)
(9.32587e-15 -3.25121e-14 0)
(9.54792e-15 -3.25549e-14 0)
(9.4369e-15 -3.25367e-14 0)
(9.32587e-15 -3.25341e-14 0)
(9.65894e-15 -3.24507e-14 0)
(9.4369e-15 -3.24677e-14 0)
(9.4369e-15 -3.24772e-14 0)
(9.4369e-15 -3.24107e-14 0)
(9.32587e-15 -3.23341e-14 0)
(9.32587e-15 -3.24735e-14 0)
(9.4369e-15 -3.24985e-14 0)
(9.4369e-15 -3.24701e-14 0)
(1.14353e-14 -3.22535e-14 0)
(8.65974e-15 -3.20349e-14 0)
(9.4369e-15 -3.23998e-14 0)
(9.4369e-15 -3.23207e-14 0)
(9.54792e-15 -3.23115e-14 0)
(9.54792e-15 -3.22702e-14 0)
(9.65894e-15 -3.24518e-14 0)
(9.32587e-15 -3.26126e-14 0)
(9.54792e-15 -3.25594e-14 0)
(9.32587e-15 -3.24596e-14 0)
(9.4369e-15 -3.24004e-14 0)
(9.32587e-15 -3.23872e-14 0)
(9.10383e-15 -3.24616e-14 0)
(9.32587e-15 -3.24731e-14 0)
(9.32587e-15 -3.23998e-14 0)
(9.10383e-15 -3.23722e-14 0)
(9.4369e-15 -3.23463e-14 0)
(9.32587e-15 -3.24369e-14 0)
(9.32587e-15 -3.24536e-14 0)
(9.32587e-15 -3.2426e-14 0)
(4.88498e-15 -2.26208e-14 0)
(9.54792e-15 -3.55195e-14 0)
(8.43769e-15 -3.19418e-14 0)
(9.54792e-15 -3.27313e-14 0)
(9.10383e-15 -3.23822e-14 0)
(9.32587e-15 -3.23458e-14 0)
(9.4369e-15 -3.2326e-14 0)
(9.4369e-15 -3.24322e-14 0)
(8.88178e-15 -3.2535e-14 0)
(9.32587e-15 -3.2511e-14 0)
(8.88178e-15 -3.24389e-14 0)
(9.10383e-15 -3.23665e-14 0)
(9.10383e-15 -3.24691e-14 0)
(8.88178e-15 -3.24258e-14 0)
(8.65974e-15 -3.237e-14 0)
(8.88178e-15 -3.24699e-14 0)
(9.10383e-15 -3.25977e-14 0)
(9.32587e-15 -3.25182e-14 0)
(9.32587e-15 -3.2461e-14 0)
(9.32587e-15 -3.24524e-14 0)
(1.67644e-14 -6.8499e-14 0)
(8.43769e-15 -2.53605e-14 0)
(1.05471e-14 -3.42587e-14 0)
(9.65894e-15 -3.21916e-14 0)
(9.54792e-15 -3.25351e-14 0)
(9.65894e-15 -3.24421e-14 0)
(9.4369e-15 -3.23043e-14 0)
(9.65894e-15 -3.22785e-14 0)
(9.88098e-15 -3.24415e-14 0)
(9.54792e-15 -3.24952e-14 0)
(9.65894e-15 -3.24732e-14 0)
(9.54792e-15 -3.24573e-14 0)
(9.76996e-15 -3.24234e-14 0)
(9.54792e-15 -3.24314e-14 0)
(9.4369e-15 -3.24743e-14 0)
(9.65894e-15 -3.25017e-14 0)
(9.54792e-15 -3.25442e-14 0)
(9.4369e-15 -3.24807e-14 0)
(9.32587e-15 -3.24648e-14 0)
(9.54792e-15 -3.24717e-14 0)
)
;

boundaryField
{
    movingWall
    {
        type            calculated;
        value           uniform (9.32587e-15 -3.24195e-14 0);
    }
    fixedWalls
    {
        type            calculated;
        value           uniform (9.32587e-15 -3.24195e-14 0);
    }
    frontAndBack
    {
        type            empty;
    }
}


// ************************************************************************* //
