/*--------------------------------*- C++ -*----------------------------------*\
| =========                 |                                                 |
| \\      /  F ield         | OpenFOAM: The Open Source CFD Toolbox           |
|  \\    /   O peration     | Version:  2506                                  |
|   \\  /    A nd           | Website:  www.openfoam.com                      |
|    \\/     M anipulation  |                                                 |
\*---------------------------------------------------------------------------*/
FoamFile
{
    version     2.0;
    format      ascii;
    arch        "LSB;label=32;scalar=64";
    class       volScalarField;
    location    "5.25";
    object      divPhi;
}
// * * * * * * * * * * * * * * * * * * * * * * * * * * * * * * * * * * * * * //

dimensions      [0 0 -1 0 0 0 0];

internalField   nonuniform List<scalar> 
400
(
2.71051e-14
2.33119e-14
-2.55038e-14
1.62761e-14
7.97926e-15
-2.00499e-14
1.24661e-14
-1.35446e-14
2.1124e-14
-1.61682e-14
-1.08782e-15
-4.47814e-15
8.82467e-15
1.70528e-16
-4.67469e-15
-4.07458e-16
1.23794e-15
2.84496e-15
-6.66331e-15
0
0
-5.23008e-15
2.24468e-14
-1.44946e-14
-5.37211e-15
2.82414e-15
1.1979e-14
-7.26293e-15
-1.94151e-14
1.94237e-14
-1.65474e-15
-4.51588e-15
-6.58933e-15
-9.41684e-15
6.98756e-15
-8.05215e-15
2.7767e-14
-1.62993e-14
9.04472e-15
0
-2.71051e-14
-1.18678e-14
-8.27774e-15
1.28961e-17
-1.84287e-14
2.72285e-14
-7.12928e-16
-1.17131e-14
1.85849e-14
-1.19815e-14
6.8108e-15
-7.51782e-15
-8.82728e-15
2.93427e-15
-1.72645e-15
-2.47549e-15
2.47215e-15
1.87341e-15
1.2708e-14
0
2.71051e-14
-2.74005e-14
1.17687e-15
8.81976e-15
6.2193e-15
1.2589e-14
-1.55964e-16
-1.46359e-14
-2.45108e-14
-6.42195e-15
-7.71799e-15
-8.26886e-16
-1.72324e-14
1.07461e-14
-4.79432e-15
6.33503e-15
5.73385e-15
1.03289e-14
8.35347e-15
0
0
9.98142e-15
1.41324e-14
2.21021e-14
4.09656e-15
1.6012e-14
-2.47168e-14
2.26906e-14
-2.68391e-15
-1.19236e-14
-2.04692e-14
1.95139e-14
-6.48707e-15
8.16195e-15
-1.81908e-14
1.1962e-14
-5.70133e-15
3.08303e-14
7.74186e-15
0
0
-6.25557e-15
-3.27424e-14
1.98023e-14
-2.98075e-14
-4.80322e-15
9.52207e-15
-3.3641e-14
1.53253e-14
-2.30939e-14
1.41593e-14
-3.16824e-14
1.65051e-14
1.01105e-14
4.24112e-15
1.56934e-14
-1.62143e-15
2.0868e-14
-5.61407e-15
0
0
-1.38527e-14
6.17721e-15
2.23015e-14
1.83357e-15
4.51588e-16
2.09745e-14
1.3071e-15
-5.35579e-15
6.02403e-16
-2.55421e-14
-2.35697e-15
-2.00328e-14
3.98755e-15
1.42697e-14
-1.79246e-14
-5.62533e-15
-8.36713e-15
-5.48129e-15
0
-2.71051e-14
3.48316e-14
9.99528e-15
-3.9343e-15
-2.84528e-14
2.02928e-14
-7.61306e-15
-5.66998e-15
-2.24738e-14
3.78043e-15
-1.64511e-15
9.46091e-15
2.28209e-14
-9.78131e-15
-4.00964e-15
-1.04921e-14
1.93043e-14
-5.43814e-15
-1.28002e-14
0
2.71051e-14
2.21555e-14
-9.76113e-15
1.96929e-15
1.22256e-14
-3.87707e-15
-9.59194e-15
-7.4388e-15
2.33502e-14
2.30183e-15
8.5077e-15
-1.53847e-15
1.00081e-15
-1.02047e-15
-8.33468e-15
-2.99452e-14
2.47748e-14
-1.80031e-14
-7.09185e-15
-2.71051e-14
-2.71051e-14
-6.84379e-15
8.12428e-15
-4.65035e-15
4.17904e-14
-7.22017e-15
-8.88222e-15
-2.43914e-14
6.57494e-15
3.33041e-14
-7.21847e-15
3.61117e-15
1.98433e-14
-2.78141e-14
-5.90096e-15
-1.58042e-15
-1.20194e-14
1.59183e-14
1.13411e-14
0
0
1.43598e-14
1.71748e-15
-9.52515e-15
1.06027e-14
-1.92646e-14
-8.25071e-15
-4.80456e-15
3.28293e-14
-1.13519e-14
-1.09928e-14
-5.44908e-15
2.7674e-15
-1.14128e-14
2.08405e-14
-6.24871e-15
-3.47156e-14
-3.02206e-14
2.18783e-14
0
0
6.92003e-15
-1.76286e-14
-2.42861e-14
2.25962e-14
1.68716e-14
-2.14004e-14
1.68609e-15
6.02316e-15
-2.19827e-15
-7.50801e-16
-1.33696e-14
4.92623e-15
-1.92137e-14
-7.83909e-15
-3.19787e-15
-2.00848e-14
-1.37414e-14
-7.12615e-15
0
0
9.37091e-15
1.63382e-14
-1.07096e-14
2.88551e-14
-2.18607e-14
-2.67691e-15
-9.34241e-15
3.16834e-14
-1.35181e-14
-6.94184e-15
7.89645e-15
1.01129e-14
5.38445e-15
-2.3615e-15
1.85015e-16
1.28579e-14
1.73852e-14
-1.02823e-14
0
-2.71051e-14
1.20272e-14
2.05806e-14
-1.93257e-14
5.49828e-15
-7.96818e-15
1.58158e-14
-3.15778e-14
1.69677e-15
-8.61681e-15
3.08572e-16
6.55594e-15
-5.01411e-16
2.54795e-14
-2.57202e-14
5.70062e-16
7.81231e-16
-4.56359e-15
-2.5704e-14
0
0
1.88881e-14
-1.71715e-14
-1.44652e-14
1.26272e-14
-2.23565e-14
-1.4806e-14
-2.14016e-14
4.77157e-15
-1.81369e-14
-8.82519e-15
2.68203e-14
-6.4246e-16
4.40372e-15
-7.06605e-15
-5.22855e-15
3.46242e-16
-1.5353e-14
-7.48376e-15
0
2.71051e-14
-1.39636e-14
-6.14971e-15
5.72579e-15
3.24368e-14
-1.22727e-14
2.77864e-14
1.87933e-15
-6.93709e-15
1.50861e-14
7.35281e-15
1.0762e-16
2.87335e-15
-5.46659e-15
-1.84318e-14
3.67012e-15
-2.02884e-14
1.59484e-14
-1.01166e-14
0
0
-3.07218e-15
-2.56229e-14
3.97034e-16
3.11018e-14
-4.68302e-15
-2.89834e-14
3.08875e-15
-6.05011e-15
-2.67039e-14
-4.32079e-16
7.07161e-15
1.86541e-14
-3.91622e-14
2.17646e-14
-4.54911e-16
-5.83033e-15
-1.00586e-14
-8.6502e-15
2.71051e-14
0
-1.03972e-14
3.68637e-15
2.76522e-14
1.84072e-15
9.07881e-15
-1.17661e-14
-4.48699e-15
1.52072e-15
-1.21229e-14
-1.31389e-14
2.14861e-14
-1.22103e-14
1.75139e-14
-1.62481e-14
5.34015e-15
-1.24366e-14
-9.77947e-15
-1.40529e-14
0
0
7.28589e-15
5.53372e-15
-4.79358e-15
-2.244e-14
1.78868e-14
-4.31205e-14
-4.4747e-16
1.56594e-14
-1.66383e-14
-2.77762e-14
-5.27071e-15
-4.69283e-15
-2.35077e-14
2.81684e-14
-1.64868e-14
-9.02192e-15
-1.76154e-14
2.30553e-14
0
0
0
0
0
0
0
0
0
0
0
0
0
0
0
0
2.71051e-14
0
2.71051e-14
0
0
)
;

boundaryField
{
    movingWall
    {
        type            extrapolatedCalculated;
        value           nonuniform List<scalar> 
20
(
0
0
0
0
0
0
0
0
0
0
0
0
0
0
0
2.71051e-14
0
2.71051e-14
0
0
)
;
    }
    fixedWalls
    {
        type            extrapolatedCalculated;
        value           nonuniform List<scalar> 
60
(
2.71051e-14
0
-2.71051e-14
2.71051e-14
0
0
0
-2.71051e-14
2.71051e-14
-2.71051e-14
0
0
0
-2.71051e-14
0
2.71051e-14
0
0
0
0
0
0
0
0
0
0
0
0
-2.71051e-14
0
0
0
0
0
0
0
2.71051e-14
0
0
0
2.71051e-14
2.33119e-14
-2.55038e-14
1.62761e-14
7.97926e-15
-2.00499e-14
1.24661e-14
-1.35446e-14
2.1124e-14
-1.61682e-14
-1.08782e-15
-4.47814e-15
8.82467e-15
1.70528e-16
-4.67469e-15
-4.07458e-16
1.23794e-15
2.84496e-15
-6.66331e-15
0
)
;
    }
    frontAndBack
    {
        type            empty;
    }
}


// ************************************************************************* //
