/*--------------------------------*- C++ -*----------------------------------*\
| =========                 |                                                 |
| \\      /  F ield         | OpenFOAM: The Open Source CFD Toolbox           |
|  \\    /   O peration     | Version:  2506                                  |
|   \\  /    A nd           | Website:  www.openfoam.com                      |
|    \\/     M anipulation  |                                                 |
\*---------------------------------------------------------------------------*/
FoamFile
{
    version     2.0;
    format      ascii;
    arch        "LSB;label=32;scalar=64";
    class       volScalarField;
    location    "5.25";
    object      divU;
}
// * * * * * * * * * * * * * * * * * * * * * * * * * * * * * * * * * * * * * //

dimensions      [0 0 -1 0 0 0 0];

internalField   nonuniform List<scalar> 
400
(
7.61652e-12
-6.83874e-13
1.4944e-13
-3.72856e-14
1.99915e-14
5.16828e-15
-3.35055e-14
-2.16028e-14
2.97635e-14
-1.06968e-14
-5.21165e-15
4.72687e-15
3.2734e-15
-1.54359e-14
-1.29459e-14
-3.35023e-15
4.31621e-14
-1.49252e-14
-6.97945e-15
0
-1.0842e-11
1.1181e-12
-2.78989e-13
1.54952e-13
-3.47288e-14
3.55328e-14
-4.54341e-15
-5.87008e-16
-2.42554e-14
-7.77371e-15
-3.44308e-15
-4.73247e-14
3.4991e-14
6.08374e-14
-5.72637e-15
1.78325e-14
-4.81295e-14
-2.62463e-14
-1.69413e-14
2.71051e-14
-1.46367e-12
1.22942e-12
-2.88783e-13
1.03621e-13
-6.45607e-14
1.18569e-15
2.93183e-14
-1.31179e-14
-7.04005e-15
-1.90037e-14
6.35127e-15
5.23713e-14
-4.99811e-14
-5.3071e-15
-4.15477e-14
6.4912e-15
5.80373e-14
2.20799e-14
-2.04032e-14
0
8.97177e-12
-3.09189e-12
6.5276e-13
-2.19515e-13
6.38856e-14
-1.71325e-14
2.56792e-14
-2.13043e-14
-3.03403e-14
4.63773e-14
-5.72951e-15
-1.65954e-14
2.0749e-14
1.50002e-14
2.9144e-14
9.71866e-15
-7.41213e-14
3.8148e-14
-1.84969e-14
0
-7.18284e-12
3.44646e-12
-6.55064e-13
2.25015e-13
-8.31257e-14
1.47962e-14
2.50745e-14
3.5833e-15
4.50488e-15
-5.04276e-15
1.41052e-15
-2.76096e-14
-4.17106e-14
-2.13906e-14
6.34219e-15
-5.58282e-14
5.49633e-14
4.50568e-14
4.09802e-14
0
4.33681e-12
-3.353e-12
6.58332e-13
-2.54781e-13
8.46857e-14
-2.92635e-14
1.45478e-14
-3.55599e-14
-2.1904e-14
8.69007e-16
2.62975e-14
1.00305e-14
4.60715e-14
1.15177e-14
6.27328e-15
1.94358e-14
6.28379e-16
-1.77786e-14
-2.35505e-15
-5.42101e-14
-2.92735e-12
3.01225e-12
-6.40592e-13
2.35261e-13
-6.12334e-14
-2.35608e-15
-6.81742e-15
2.88948e-15
1.09907e-14
2.75509e-14
-3.53032e-14
-1.20329e-14
-2.70791e-14
9.05849e-16
7.60974e-15
-1.86702e-14
-3.2003e-15
2.78572e-14
1.12561e-14
0
1.6263e-12
-2.15436e-12
4.68011e-13
-2.10207e-13
8.79637e-14
-5.15256e-15
-4.44427e-15
-4.96421e-15
-6.09722e-14
3.13141e-14
3.32988e-16
1.99643e-14
2.92148e-14
-9.07797e-15
2.71861e-14
1.54239e-14
-3.74362e-14
2.05008e-14
4.89979e-14
-5.42101e-14
-1.27394e-12
2.00891e-12
-4.12366e-13
1.53852e-13
-6.47397e-14
2.73156e-14
-1.36329e-14
-5.5067e-15
2.04239e-15
3.81895e-14
1.06716e-14
-3.51504e-14
1.40842e-15
1.60055e-15
-1.78598e-15
-2.51549e-14
-2.74214e-15
2.81696e-15
-8.49858e-15
0
2.1413e-12
-2.40126e-12
5.04927e-13
-1.56344e-13
6.0526e-14
-2.61504e-14
1.55041e-14
-2.65381e-14
4.23528e-16
-8.60096e-15
1.55825e-14
7.27171e-15
-6.57128e-15
2.16244e-14
-3.9847e-14
2.65617e-15
-7.70887e-15
-1.33059e-14
3.82329e-14
0
-2.30393e-12
2.4227e-12
-5.15672e-13
2.27222e-13
-3.60525e-14
2.69701e-14
-9.01565e-15
-7.27095e-15
1.40412e-14
3.19227e-14
-8.74152e-16
1.71342e-14
-4.55139e-14
4.58879e-14
-9.1214e-15
-4.32355e-14
-1.73195e-14
-2.46854e-14
1.35462e-14
2.71051e-14
1.95156e-12
-2.29352e-12
4.77296e-13
-1.98318e-13
5.82883e-14
-3.86972e-14
-2.01719e-14
1.6735e-14
-8.42031e-14
7.52856e-15
-3.46073e-14
4.8647e-14
-5.60842e-14
1.39871e-14
4.05432e-16
3.29339e-15
4.44404e-14
-9.21214e-15
2.9206e-14
-5.42101e-14
-2.19551e-12
2.48602e-12
-5.1061e-13
1.69658e-13
-4.69677e-16
2.30624e-15
3.52278e-15
1.03042e-14
-1.74314e-14
4.79541e-14
-1.15767e-14
3.96446e-15
1.02825e-14
-3.15027e-14
-1.06164e-14
-8.28257e-15
-2.37728e-14
-1.69628e-14
-1.12312e-14
5.42101e-14
2.43945e-12
-2.34405e-12
4.61367e-13
-1.56724e-13
1.63323e-14
-1.09679e-14
-1.73759e-14
-1.44926e-14
-7.71308e-15
-5.31966e-15
5.26992e-15
2.13155e-14
-2.51734e-14
7.89712e-15
3.25341e-15
4.93043e-15
1.0156e-14
-1.20694e-15
-3.02374e-15
-2.71051e-14
-1.92446e-12
1.78139e-12
-3.1542e-13
1.10612e-13
-6.22958e-14
-1.88672e-14
-8.30423e-15
3.62018e-14
1.92866e-14
-2.02433e-14
-1.19648e-14
7.023e-14
-3.51628e-14
-3.11691e-14
2.38471e-14
3.9999e-15
-3.11217e-14
4.60894e-15
-2.187e-15
0
4.60786e-13
-9.42668e-13
1.82015e-13
-9.69141e-14
7.42325e-14
-3.96189e-14
-3.12238e-14
2.86976e-14
-4.86927e-14
7.78286e-15
1.25459e-14
-3.65022e-14
5.40166e-15
-4.58598e-15
8.65511e-15
-7.24754e-15
-4.57779e-14
4.75553e-14
-1.22433e-14
0
5.69206e-13
6.68109e-13
-1.86586e-13
1.04075e-13
-5.74951e-14
2.50188e-14
-1.66171e-16
-2.72059e-14
3.09536e-14
3.66489e-14
-3.69232e-14
1.88681e-14
1.97654e-14
-3.72884e-14
2.32921e-14
-2.15053e-14
1.58436e-14
1.99562e-14
-1.13159e-14
-2.71051e-14
3.79471e-13
-3.79974e-13
7.68271e-14
-4.84135e-14
1.4516e-14
-4.81536e-15
-2.09961e-14
6.51987e-15
1.55593e-15
-1.31666e-14
2.70633e-14
-7.27959e-14
4.50373e-14
-5.99693e-15
6.91078e-15
-3.18722e-16
-1.05084e-14
-3.87265e-14
-7.56393e-15
0
-4.06576e-12
1.0193e-12
-1.90374e-13
1.00028e-13
-3.49511e-14
-2.2001e-14
4.79646e-14
-4.13902e-14
1.33498e-14
-1.67312e-14
-3.44263e-14
2.86158e-14
-5.35222e-15
-2.89368e-14
-5.33409e-16
1.383e-14
2.39117e-14
-1.60062e-14
-8.68818e-15
0
3.27971e-12
-1.00289e-12
2.43945e-13
-1.0842e-13
0
0
-2.71051e-14
2.71051e-14
2.71051e-14
0
0
0
0
0
0
0
0
0
2.71051e-14
-2.71051e-14
)
;

boundaryField
{
    movingWall
    {
        type            extrapolatedCalculated;
        value           nonuniform List<scalar> 
20
(
3.27971e-12
-1.00289e-12
2.43945e-13
-1.0842e-13
0
0
-2.71051e-14
2.71051e-14
2.71051e-14
0
0
0
0
0
0
0
0
0
2.71051e-14
-2.71051e-14
)
;
    }
    fixedWalls
    {
        type            extrapolatedCalculated;
        value           nonuniform List<scalar> 
60
(
7.61652e-12
-1.0842e-11
-1.46367e-12
8.97177e-12
-7.18284e-12
4.33681e-12
-2.92735e-12
1.6263e-12
-1.27394e-12
2.1413e-12
-2.30393e-12
1.95156e-12
-2.19551e-12
2.43945e-12
-1.92446e-12
4.60786e-13
5.69206e-13
3.79471e-13
-4.06576e-12
3.27971e-12
0
2.71051e-14
0
0
0
-5.42101e-14
0
-5.42101e-14
0
0
2.71051e-14
-5.42101e-14
5.42101e-14
-2.71051e-14
0
0
-2.71051e-14
0
0
-2.71051e-14
7.61652e-12
-6.83874e-13
1.4944e-13
-3.72856e-14
1.99915e-14
5.16828e-15
-3.35055e-14
-2.16028e-14
2.97635e-14
-1.06968e-14
-5.21165e-15
4.72687e-15
3.2734e-15
-1.54359e-14
-1.29459e-14
-3.35023e-15
4.31621e-14
-1.49252e-14
-6.97945e-15
0
)
;
    }
    frontAndBack
    {
        type            empty;
    }
}


// ************************************************************************* //
