/*--------------------------------*- C++ -*----------------------------------*\
| =========                 |                                                 |
| \\      /  F ield         | OpenFOAM: The Open Source CFD Toolbox           |
|  \\    /   O peration     | Version:  2506                                  |
|   \\  /    A nd           | Website:  www.openfoam.com                      |
|    \\/     M anipulation  |                                                 |
\*---------------------------------------------------------------------------*/
FoamFile
{
    version     2.0;
    format      ascii;
    arch        "LSB;label=32;scalar=64";
    class       volScalarField;
    location    "5.25";
    object      enstrophyField;
}
// * * * * * * * * * * * * * * * * * * * * * * * * * * * * * * * * * * * * * //

dimensions      [0 0 -2 0 0 0 0];

internalField   nonuniform List<scalar> 
400
(
2.88734e-24
4.65226e-24
1.81565e-25
1.68027e-26
3.49485e-28
2.80053e-28
1.86952e-27
2.22126e-27
2.7829e-28
1.91187e-28
7.02089e-30
3.97458e-31
5.14589e-29
3.60763e-28
4.73359e-28
5.96657e-28
5.36411e-28
6.3434e-31
1.38224e-27
2.64534e-32
8.76e-24
1.01544e-23
7.64599e-25
1.32797e-26
2.08932e-26
1.27848e-26
1.01955e-26
5.28557e-27
6.70634e-27
7.21255e-27
2.69238e-27
1.90984e-27
3.05079e-27
4.22806e-27
4.71076e-27
6.64018e-28
2.24274e-28
2.40027e-28
2.56648e-27
9.29698e-29
2.55438e-23
3.09986e-23
1.80804e-24
7.22481e-26
1.77305e-26
2.85084e-27
5.85214e-29
8.4925e-28
1.06282e-28
1.61587e-28
3.68313e-27
5.47944e-27
1.31409e-27
4.06355e-30
2.54496e-28
3.50996e-27
2.46876e-27
3.98095e-28
1.92503e-27
3.84194e-28
1.21063e-23
1.057e-23
4.15254e-25
5.97333e-26
2.94563e-27
8.29049e-27
3.14681e-27
2.92311e-27
2.63693e-27
5.42433e-27
1.77838e-27
1.71572e-29
1.83756e-27
1.55829e-29
1.33538e-28
1.2482e-28
3.54748e-28
2.67235e-28
1.50565e-28
8.83963e-30
2.41666e-24
6.85954e-25
3.42069e-26
3.86847e-28
1.80855e-28
6.60684e-28
1.89398e-29
5.17717e-27
6.40689e-27
2.77942e-27
2.82527e-28
1.19946e-27
1.31249e-28
1.32086e-27
1.18726e-27
5.66587e-29
5.68468e-27
4.40371e-28
5.65934e-29
1.05989e-28
7.13491e-27
5.71606e-26
3.76307e-27
1.58104e-27
1.07281e-30
2.0273e-27
1.27928e-29
8.71107e-29
8.20483e-28
6.70961e-30
3.09876e-29
2.25724e-28
1.73427e-27
1.99585e-27
2.24609e-27
8.51111e-27
4.10811e-27
1.23155e-28
2.51634e-28
3.16208e-28
1.7532e-24
6.29052e-25
3.31861e-26
2.80143e-27
7.02854e-27
1.13993e-27
1.40301e-27
1.03921e-29
1.24165e-27
9.91831e-28
8.30829e-31
2.3206e-27
1.90438e-29
6.93204e-30
2.03105e-29
7.14646e-28
3.46475e-28
6.31277e-28
5.87004e-28
2.81369e-29
1.80164e-24
7.05638e-25
3.64242e-26
9.55758e-28
2.71234e-28
3.87052e-27
5.64103e-28
4.47121e-27
4.21627e-28
1.54667e-28
8.89412e-29
1.62003e-29
5.73666e-28
7.37754e-28
2.31966e-27
3.6439e-28
2.38165e-29
1.81747e-29
3.67286e-28
6.80165e-29
3.16689e-26
3.83159e-25
8.06095e-27
2.14095e-26
3.98607e-27
4.90803e-27
3.8378e-27
9.1045e-28
5.11878e-27
4.21436e-27
3.04725e-28
1.92789e-28
1.69292e-28
8.3535e-28
2.10013e-27
2.52136e-27
2.19047e-27
4.14157e-31
6.81772e-29
3.24326e-29
1.05855e-28
3.63344e-25
9.64425e-27
2.22195e-27
6.93777e-28
2.22162e-27
5.81496e-27
8.63142e-27
2.58937e-27
1.93399e-27
1.54415e-29
1.3998e-28
1.03309e-27
5.14251e-29
4.19207e-27
4.36824e-29
1.27894e-28
1.17435e-29
1.76742e-29
7.02681e-29
3.26133e-25
4.94011e-25
1.29896e-26
1.26393e-27
1.15841e-29
1.49568e-29
3.41629e-28
1.84661e-28
3.68544e-29
1.26238e-27
4.19808e-27
2.87991e-27
2.989e-27
4.24195e-27
1.69034e-28
9.30465e-30
1.17632e-29
5.85526e-30
2.84565e-28
5.38234e-29
1.19237e-25
4.06094e-25
8.98376e-27
4.62876e-27
9.00365e-28
3.75986e-27
8.36637e-27
8.93572e-28
1.66541e-27
9.35619e-28
4.23585e-28
4.63754e-27
5.36327e-28
1.13314e-30
1.51912e-27
1.26635e-27
6.8619e-30
1.88454e-27
3.43227e-29
1.46624e-28
1.56701e-25
2.09712e-25
3.85547e-26
3.61208e-28
2.21318e-27
1.33458e-27
1.09596e-27
2.23521e-30
2.23913e-27
2.81079e-27
7.62773e-27
6.64992e-28
8.12299e-28
3.00547e-27
7.49191e-28
1.83018e-27
3.87285e-29
1.0988e-29
8.90039e-29
3.40204e-30
1.38158e-24
3.86725e-25
5.92812e-26
1.07102e-29
1.45218e-28
1.13629e-27
3.51109e-28
8.14666e-30
1.68552e-27
1.49568e-27
4.17515e-28
1.25631e-26
8.53943e-27
3.04647e-28
2.9791e-29
1.86511e-27
1.46283e-27
1.07446e-27
5.06978e-28
1.92063e-28
3.02886e-24
8.95795e-25
5.64981e-26
2.07671e-28
3.31975e-27
8.63535e-29
5.43818e-27
3.77941e-27
2.26018e-27
2.29005e-27
1.5419e-27
1.93036e-28
1.66669e-28
1.52957e-27
7.14068e-28
9.47795e-29
2.81678e-27
1.84323e-29
2.50951e-30
2.27538e-28
1.82529e-24
9.23996e-25
3.70467e-26
6.27302e-29
2.84534e-27
1.00561e-28
1.21135e-27
5.19889e-28
7.01703e-29
4.50531e-29
3.07028e-29
2.14995e-27
1.66772e-30
1.73996e-29
3.49071e-29
7.87385e-28
2.35789e-29
8.99708e-30
3.72239e-28
2.27571e-28
1.06773e-24
3.67721e-25
1.92832e-26
4.66403e-27
4.4696e-28
6.86888e-28
7.98951e-27
4.38455e-27
5.36651e-28
4.37164e-28
3.12905e-28
3.69576e-29
5.6928e-28
3.49969e-30
5.37887e-28
8.57348e-28
1.96839e-29
1.35031e-28
3.76594e-28
8.40835e-29
9.36771e-26
2.04441e-26
1.08887e-30
6.45737e-28
5.1704e-28
9.83757e-29
5.86078e-28
1.33548e-28
8.99136e-28
9.24819e-28
3.9206e-27
1.87209e-29
2.64492e-27
3.82703e-27
4.17738e-27
3.75566e-27
2.09577e-29
5.75234e-29
5.92446e-31
4.85915e-28
1.19905e-26
4.34406e-25
1.02675e-26
2.53067e-27
7.42898e-28
2.30807e-28
1.70514e-28
2.82047e-27
6.12062e-28
1.53126e-28
7.90411e-28
4.53626e-30
3.80606e-27
9.81196e-28
4.96629e-28
5.41706e-27
1.16575e-29
9.02443e-29
2.16476e-29
1.93203e-28
3.39017e-24
5.67786e-24
1.97755e-25
2.56661e-26
3.13758e-28
2.98732e-27
9.44346e-28
8.19774e-28
1.4777e-29
2.86421e-28
7.1873e-30
1.24056e-29
4.40893e-28
1.29663e-29
1.87532e-27
2.44514e-29
2.1995e-30
6.14069e-28
4.09523e-31
6.79577e-28
)
;

boundaryField
{
    movingWall
    {
        type            calculated;
        value           nonuniform List<scalar> 
20
(
2.68895e-27
4.70865e-24
1.89362e-26
4.66904e-26
2.03315e-27
1.22168e-26
1.84607e-27
7.14108e-27
2.00753e-26
3.6677e-27
9.38699e-27
4.39912e-27
1.62406e-26
3.50497e-27
6.98503e-28
7.96747e-27
4.13279e-27
1.37019e-27
4.09523e-31
4.85896e-27
)
;
    }
    fixedWalls
    {
        type            calculated;
        value           nonuniform List<scalar> 
60
(
8.12932e-23
2.02149e-22
5.79421e-22
1.88242e-22
1.13596e-23
1.3924e-24
1.16846e-23
1.37784e-23
5.16783e-24
3.46195e-24
7.45722e-24
6.19737e-24
4.518e-24
8.76474e-24
1.78271e-23
1.76065e-23
7.37911e-24
8.8838e-26
5.79513e-24
9.98804e-23
1.017e-30
4.19698e-28
2.35886e-27
3.14432e-28
6.60228e-29
4.28052e-31
2.22087e-28
5.57535e-29
2.82825e-30
2.9942e-28
1.98761e-28
6.4355e-28
9.50005e-29
1.58209e-28
7.97155e-29
2.28571e-28
2.052e-28
4.41972e-28
9.68697e-29
1.15221e-27
2.01628e-23
1.05218e-23
7.24125e-26
1.54509e-25
4.00701e-26
6.18932e-26
5.04985e-26
2.7492e-26
3.45688e-26
3.35153e-26
1.64499e-26
1.56192e-26
1.40266e-26
1.57339e-26
4.27642e-27
2.76717e-29
1.25289e-27
6.3434e-31
3.8007e-27
2.64534e-32
)
;
    }
    frontAndBack
    {
        type            empty;
    }
}


// ************************************************************************* //
