/*--------------------------------*- C++ -*----------------------------------*\
| =========                 |                                                 |
| \\      /  F ield         | OpenFOAM: The Open Source CFD Toolbox           |
|  \\    /   O peration     | Version:  2506                                  |
|   \\  /    A nd           | Website:  www.openfoam.com                      |
|    \\/     M anipulation  |                                                 |
\*---------------------------------------------------------------------------*/
FoamFile
{
    version     2.0;
    format      ascii;
    arch        "LSB;label=32;scalar=64";
    class       volScalarField;
    location    "5.25";
    object      flowTypeField;
}
// * * * * * * * * * * * * * * * * * * * * * * * * * * * * * * * * * * * * * //

dimensions      [0 0 0 0 0 0 0];

internalField   nonuniform List<scalar> 
400
(
0.665263
0.154355
0.213091
-0.0597263
0.526149
0.137012
0.21339
-0.0752578
0.345124
0.4779
0.836773
0.646691
0.0443108
0.294675
0.226396
0.221744
0.199678
0.917745
0.037302
0.83539
0.602231
0.156797
-0.0118135
0.386797
-0.232611
0.0734174
-0.015056
0.0527639
-0.0344356
-0.106623
0.096925
0.341707
0.203784
0.214043
-0.0895776
0.0819238
0.600307
0.573759
-0.286933
0.703559
-0.0615677
0.0225403
-0.132614
0.0376262
-0.396675
0.074168
0.756923
0.252307
0.473053
0.366124
0.0194543
-0.0384069
0.197797
0.667202
0.336436
-0.265746
0.0980165
0.257892
-0.21982
0.0204866
0.387316
0.0481251
0.0830349
-0.191766
0.355433
-0.140565
0.0724673
0.0636052
0.147417
0.0705191
0.0469038
0.736349
-0.0643981
0.653012
0.262299
0.0191936
0.529245
0.689848
0.40719
0.83358
0.562052
0.521912
0.445352
0.812526
0.714364
0.32718
0.704245
-0.2486
-0.378646
-0.367659
0.144956
0.238732
0.663126
0.172917
0.102334
0.750783
0.121883
0.478393
0.67841
0.606996
0.948433
0.856309
0.822009
0.717904
0.963225
-0.024125
0.621414
0.708068
0.312564
0.837757
0.822742
0.439827
0.0355755
-0.155564
-0.233324
-0.156934
-0.113726
0.503627
0.0933548
0.528065
0.306534
0.578881
0.547374
0.650401
0.0282902
0.117676
0.0277772
0.535037
0.0844558
0.248758
0.905966
-0.142435
0.60776
0.569852
0.0190045
0.111882
0.36732
-0.0484788
-0.103222
0.0994778
0.105107
0.436101
0.371214
0.720148
0.736676
-0.0806062
-0.22714
-0.155192
0.482498
0.667823
0.633488
0.858035
0.433766
-0.282303
-0.0909824
0.0341252
0.831497
0.625929
0.285242
0.727028
0.815586
0.533744
0.697395
-0.0832285
0.393799
0.120426
0.00205065
-0.559004
-0.135206
0.0814761
0.365009
0.440252
0.00069843
-0.331975
-0.19214
-0.253746
-0.203411
0.793709
0.0347218
0.686467
0.990415
0.606338
0.699347
0.549955
0.37114
-0.0798298
-0.322804
-0.164596
-0.32241
-0.00987993
0.210354
0.432264
0.0239821
0.478869
0.0771908
0.00263768
0.0422776
0.624401
0.84343
0.00476509
0.586769
0.561031
0.641762
0.718703
0.781292
0.867842
0.0388247
0.442169
0.687765
0.177274
-0.115028
-0.359386
0.0498495
0.0613697
0.317939
0.879608
0.46293
0.612086
0.119845
0.0329834
0.733279
0.582481
0.689135
0.521069
0.353143
0.118126
-0.136356
0.271731
0.53681
0.329992
0.486999
0.0263742
0.418962
0.951842
0.118996
0.079171
0.898235
-0.10274
0.654976
0.41129
0.716118
0.700687
0.431166
0.842493
-0.218903
0.0742375
0.13609
0.868714
-0.0603481
-0.158688
-0.0757452
-0.235888
0.0641642
0.0682024
0.293339
-0.0876238
0.403623
0.401343
0.257719
0.919504
0.290172
0.587837
0.308796
0.958701
0.519003
0.141224
0.204811
0.767186
-0.017477
-0.00864986
0.0901272
-0.157501
-0.0493132
0.15873
0.67891
0.0231715
0.00986448
0.241187
-0.113639
0.441059
-0.0450539
0.310706
0.155608
0.752431
0.155277
0.129118
0.0502655
0.142657
0.170461
-0.189524
0.0234606
0.71203
0.628559
0.178228
0.0600027
0.00216274
0.0649741
0.234432
0.0473994
0.207905
-0.19006
0.127926
0.0188233
0.877644
0.224973
0.683476
-0.112709
0.166765
0.566051
0.686372
0.823881
-0.0784772
0.890317
0.762495
0.365708
0.0801908
0.82636
0.882268
0.0535096
0.237901
0.173162
0.229303
0.243867
0.232152
0.453076
0.0896764
-0.163914
-0.0843948
0.143637
0.209711
0.52688
0.622769
0.161798
0.845104
-0.0471574
0.0332913
0.298497
0.424425
-0.0116124
0.501488
0.208284
0.366426
0.966704
0.283575
0.175412
0.0173827
0.204078
0.39927
-0.538066
-0.0305399
-0.0229362
0.890875
0.236304
-0.0737279
-0.11218
-0.0622824
0.767374
0.563991
0.546522
-0.143526
0.942943
0.206319
0.546734
0.24456
0.125952
0.302811
0.497346
0.261184
-0.154201
0.349382
0.328248
0.831459
-0.0710629
0.253944
-0.112152
-0.178544
0.874188
0.495777
0.0128265
0.275589
0.314166
0.0361347
0.105442
-0.077351
0.0435827
-0.409771
-0.158136
0.324522
0.793012
0.381062
0.445717
0.0371448
-0.0711289
0.0508187
-0.127992
0.45852
0.908113
0.158049
0.924283
0.08408
)
;

boundaryField
{
    movingWall
    {
        type            calculated;
        value           nonuniform List<scalar> 
20
(
0.993059
0.288858
0.779355
-0.198542
0.343818
-0.169135
0.0764263
0.177842
0.0979211
0.11677
-0.0149714
-0.0400118
-0.0144818
0.0581603
0.229551
0.0780998
0.129598
0.0932369
0.933464
-0.0305261
)
;
    }
    fixedWalls
    {
        type            calculated;
        value           nonuniform List<scalar> 
60
(
0.179468
0.134394
-0.00417916
0.0641543
0.54787
0.838154
0.577586
0.419505
0.590757
0.705918
0.59382
0.619334
0.687479
0.555933
0.279749
0.105541
0.217687
0.525082
0.359589
0.0545161
0.663606
0.632802
0.00350711
0.522375
0.835648
0.97658
0.0160704
0.83675
0.889524
0.00116035
0.527399
0.000900058
0.796709
0.597069
0.520747
0.236322
0.521729
-0.0919243
0.478931
0.44569
0.486627
-0.055483
0.546956
-0.34574
0.0938429
0.0139256
0.00406087
-0.0473425
0.0181793
0.0355822
0.00230222
0.00533325
0.0700011
0.0416342
0.0568717
0.757141
0.0428107
0.91373
0.0185615
0.489895
)
;
    }
    frontAndBack
    {
        type            empty;
    }
}


// ************************************************************************* //
