/*--------------------------------*- C++ -*----------------------------------*\
| =========                 |                                                 |
| \\      /  F ield         | OpenFOAM: The Open Source CFD Toolbox           |
|  \\    /   O peration     | Version:  2506                                  |
|   \\  /    A nd           | Website:  www.openfoam.com                      |
|    \\/     M anipulation  |                                                 |
\*---------------------------------------------------------------------------*/
FoamFile
{
    version     2.0;
    format      ascii;
    arch        "LSB;label=32;scalar=64";
    class       surfaceScalarField;
    location    "5.25";
    object      fluxField;
}
// * * * * * * * * * * * * * * * * * * * * * * * * * * * * * * * * * * * * * //

dimensions      [0 3 -1 0 0 0 0];

oriented        oriented;

internalField   nonuniform List<scalar> 
760
(
-5e-05
2.04855e-18
-5e-05
-4.2169e-19
-5e-05
1.05123e-19
-5e-05
-1.60977e-20
-5e-05
4.99789e-21
-5e-05
1.29207e-21
-5e-05
5.17616e-21
-5e-05
1.37557e-21
-5e-05
6.646e-22
-5e-05
4.10207e-21
-5e-05
5.47335e-21
-5e-05
1.18172e-21
-5e-05
8.18351e-22
-5e-05
2.91729e-21
-5e-05
3.5398e-21
-5e-05
5.93871e-21
-5e-05
4.01426e-21
-5e-05
3.04496e-21
-5e-05
-1.74486e-21
-1.72163e-21
-5e-05
-8.57362e-19
-5e-05
1.71105e-19
-5e-05
-3.58661e-20
-5e-05
1.16328e-20
-5e-05
-1.90593e-21
-5e-05
-4.66932e-21
-5e-05
-1.13585e-21
-5e-05
-1.46752e-22
-5e-05
7.12408e-22
-5e-05
4.83284e-21
-5e-05
5.91549e-21
-5e-05
1.72136e-21
-5e-05
-4.80478e-21
-5e-05
-5.11945e-21
-5e-05
-1.43159e-21
-5e-05
4.45812e-21
-5e-05
8.29642e-21
-5e-05
6.99095e-21
-5e-05
-4.23532e-21
-6.10362e-21
-5e-05
-9.65734e-19
-5e-05
2.05712e-19
-5e-05
-4.50908e-20
-5e-05
1.23526e-20
-5e-05
-2.58765e-21
-5e-05
-6.47984e-21
-5e-05
-6.22296e-21
-5e-05
-3.27946e-21
-5e-05
-1.76001e-21
-5e-05
2.02535e-21
-5e-05
1.58782e-21
-5e-05
-4.59697e-22
-5e-05
-5.71902e-21
-5e-05
-8.10304e-21
-5e-05
-3.61066e-21
-5e-05
1.6228e-21
-5e-05
7.73305e-21
-5e-05
5.51998e-21
-5e-05
-5.10081e-21
-7.55424e-21
-5e-05
9.31736e-19
-5e-05
-1.83438e-19
-5e-05
4.79935e-20
-5e-05
-7.44489e-21
-5e-05
2.41887e-21
-5e-05
-4.28313e-21
-5e-05
-7.13273e-21
-5e-05
-5.32607e-21
-5e-05
-8.08811e-22
-5e-05
4.81807e-21
-5e-05
5.34389e-21
-5e-05
2.62741e-21
-5e-05
-1.58902e-21
-5e-05
-3.02621e-21
-5e-05
5.0974e-22
-5e-05
2.42967e-21
-5e-05
1.79847e-21
-5e-05
-4.01551e-21
-5e-05
-4.62424e-21
-4.23726e-21
-5e-05
-3.37828e-19
-5e-05
7.55695e-20
-5e-05
-1.46883e-20
-5e-05
2.04364e-21
-5e-05
-4.52623e-22
-5e-05
-3.07722e-21
-5e-05
-7.28389e-21
-5e-05
-5.88044e-21
-5e-05
1.12622e-21
-5e-05
5.51557e-21
-5e-05
7.12889e-21
-5e-05
6.65013e-21
-5e-05
3.12489e-21
-5e-05
1.42862e-21
-5e-05
1.58555e-21
-5e-05
-4.04523e-22
-5e-05
-6.58798e-21
-5e-05
-9.06458e-21
-5e-05
-3.30747e-21
6.60366e-22
-5e-05
9.61933e-20
-5e-05
-4.77011e-21
-5e-05
-4.82348e-21
-5e-05
-2.70899e-21
-5e-05
8.42635e-22
-5e-05
-5.39613e-22
-5e-05
-3.13931e-21
-5e-05
-2.11371e-21
-5e-05
1.30026e-21
-5e-05
2.17252e-22
-5e-05
-2.01878e-22
-5e-05
2.50762e-21
-5e-05
4.74162e-21
-5e-05
2.87943e-21
-5e-05
1.56832e-21
-5e-05
-1.91732e-21
-5e-05
-6.61917e-21
-5e-05
-4.44464e-21
-5e-05
-5.88762e-22
2.95345e-21
-5e-05
-2.76501e-20
-5e-05
1.44505e-20
-5e-05
-1.10703e-20
-5e-05
-2.17107e-21
-5e-05
-1.75583e-21
-5e-05
-5.89021e-22
-5e-05
-1.70435e-21
-5e-05
7.2237e-22
-5e-05
2.74769e-21
-5e-05
1.11461e-22
-5e-05
-2.04955e-21
-5e-05
-3.00823e-21
-5e-05
6.47731e-24
-5e-05
2.26462e-22
-5e-05
1.90244e-21
-5e-05
2.10873e-21
-5e-05
-8.00075e-22
-5e-05
1.88032e-22
-5e-05
2.81403e-21
1.9772e-21
-5e-05
-3.568e-20
-5e-05
-1.00424e-20
-5e-05
1.80623e-21
-5e-05
-5.11796e-21
-5e-05
-5.11414e-21
-5e-05
-1.28814e-21
-5e-05
-1.11107e-21
-5e-05
-1.24105e-21
-5e-05
-1.69051e-21
-5e-05
-5.72401e-21
-5e-05
-6.69302e-21
-5e-05
-8.56146e-21
-5e-05
-6.24883e-21
-5e-05
-2.26949e-21
-5e-05
2.02728e-23
-5e-05
3.85598e-21
-5e-05
4.19349e-21
-5e-05
5.12519e-21
-5e-05
5.47322e-21
2.2054e-21
-5e-05
3.13917e-20
-5e-05
7.5595e-21
-5e-05
1.21051e-20
-5e-05
4.58175e-21
-5e-05
4.14387e-21
-5e-05
6.8289e-21
-5e-05
3.36804e-21
-5e-05
-1.37668e-21
-5e-05
-6.26567e-21
-5e-05
-1.07814e-20
-5e-05
-1.08846e-20
-5e-05
-8.78759e-21
-5e-05
-6.42416e-21
-5e-05
4.00137e-22
-5e-05
-4.46495e-22
-5e-05
4.87537e-22
-5e-05
6.09073e-21
-5e-05
7.4805e-21
-5e-05
4.65162e-21
3.07487e-21
-5e-05
3.96425e-20
-5e-05
9.54964e-21
-5e-05
1.10353e-20
-5e-05
8.34781e-21
-5e-05
8.35523e-21
-5e-05
7.01494e-21
-5e-05
3.87602e-21
-5e-05
1.41744e-22
-5e-05
-6.67038e-21
-5e-05
-8.9265e-21
-5e-05
-9.65691e-21
-5e-05
-4.95834e-21
-5e-05
-1.64282e-21
-5e-05
5.40609e-21
-5e-05
3.59078e-21
-5e-05
6.64043e-22
-5e-05
4.84905e-21
-5e-05
3.44979e-21
-5e-05
2.78195e-21
2.77557e-21
-5e-05
2.69691e-21
-5e-05
2.58723e-21
-5e-05
6.60738e-21
-5e-05
9.3717e-21
-5e-05
4.5394e-21
-5e-05
-3.37277e-23
-5e-05
4.52235e-21
-5e-05
4.95853e-21
-5e-05
-3.26595e-21
-5e-05
-5.57186e-21
-5e-05
-6.9948e-21
-5e-05
-2.49272e-21
-5e-05
2.17405e-21
-5e-05
4.69572e-21
-5e-05
4.49591e-21
-5e-05
2.74366e-21
-5e-05
2.44639e-21
-5e-05
6.04921e-22
-5e-05
3.38656e-21
3.48838e-21
-5e-05
-4.57163e-20
-5e-05
9.37743e-21
-5e-05
4.12741e-21
-5e-05
1.14068e-20
-5e-05
7.79581e-21
-5e-05
3.87824e-21
-5e-05
8.50956e-21
-5e-05
1.096e-20
-5e-05
6.05427e-21
-5e-05
1.88214e-21
-5e-05
-1.87557e-21
-5e-05
-1.39077e-21
-5e-05
-4.68526e-22
-5e-05
-3.27949e-21
-5e-05
1.01358e-22
-5e-05
8.23349e-22
-5e-05
-2.44242e-21
-5e-05
-2.30303e-21
-5e-05
5.25239e-22
3.10377e-21
-5e-05
-9.4272e-21
-5e-05
-8.68738e-21
-5e-05
1.09645e-21
-5e-05
1.75692e-21
-5e-05
6.65884e-21
-5e-05
7.35282e-21
-5e-05
7.65696e-21
-5e-05
9.3523e-21
-5e-05
9.19467e-21
-5e-05
5.21226e-21
-5e-05
3.88209e-21
-5e-05
9.91116e-22
-5e-05
-4.20564e-21
-5e-05
-7.87567e-21
-5e-05
-2.65411e-21
-5e-05
-2.07064e-21
-5e-05
-5.94319e-21
-5e-05
-4.2407e-21
-5e-05
-2.80779e-21
2.79197e-22
-5e-05
8.10245e-20
-5e-05
-3.25472e-21
-5e-05
1.45157e-22
-5e-05
1.47659e-21
-5e-05
4.08309e-21
-5e-05
4.0343e-21
-5e-05
2.43228e-21
-5e-05
3.15311e-21
-5e-05
4.84799e-21
-5e-05
5.44635e-21
-5e-05
8.09374e-21
-5e-05
5.32888e-21
-5e-05
4.82903e-22
-5e-05
-4.80198e-21
-5e-05
-5.96291e-21
-5e-05
-5.54366e-21
-5e-05
-4.23727e-21
-5e-05
-3.01734e-22
-5e-05
-7.55934e-22
3.22595e-22
-5e-05
-3.66478e-20
-5e-05
1.84422e-20
-5e-05
2.46008e-21
-5e-05
7.32412e-21
-5e-05
4.75483e-21
-5e-05
2.05948e-21
-5e-05
-2.07606e-21
-5e-05
-4.50208e-21
-5e-05
-1.95461e-21
-5e-05
1.71543e-21
-5e-05
3.78506e-21
-5e-05
4.00496e-21
-5e-05
4.76184e-21
-5e-05
-1.01601e-21
-5e-05
-7.59076e-21
-5e-05
-5.77629e-21
-5e-05
-1.00417e-21
-5e-05
1.15224e-21
-5e-05
-5.46749e-22
5.47142e-22
-5e-05
-1.27388e-19
-5e-05
2.86073e-20
-5e-05
4.84624e-21
-5e-05
9.6528e-21
-5e-05
5.00561e-21
-5e-05
3.64781e-21
-5e-05
-1.02969e-21
-5e-05
-6.37813e-21
-5e-05
-5.3969e-21
-5e-05
-4.83055e-21
-5e-05
-3.6398e-21
-5e-05
-2.34929e-21
-5e-05
1.35041e-21
-5e-05
-1.1465e-21
-5e-05
-4.61249e-21
-5e-05
-1.81189e-21
-5e-05
2.10805e-21
-5e-05
-1.66369e-21
-5e-05
-3.06082e-21
-1.62391e-21
-5e-05
1.91735e-19
-5e-05
-2.2708e-20
-5e-05
1.43399e-20
-5e-05
5.69004e-21
-5e-05
5.95502e-21
-5e-05
6.2547e-21
-5e-05
-4.15428e-23
-5e-05
-6.80148e-21
-5e-05
-5.81412e-21
-5e-05
-4.39029e-21
-5e-05
-2.45453e-21
-5e-05
-2.05924e-21
-5e-05
-1.83492e-21
-5e-05
-2.54584e-21
-5e-05
-9.53241e-22
-5e-05
1.39993e-21
-5e-05
3.9609e-21
-5e-05
-1.78721e-21
-5e-05
-2.82899e-21
-1.43028e-21
-5e-05
2.49114e-19
-5e-05
-6.78884e-20
-5e-05
1.24305e-20
-5e-05
-5.3271e-21
-5e-05
3.62899e-21
-5e-05
5.57242e-21
-5e-05
1.52725e-21
-5e-05
-5.1463e-21
-5e-05
-6.38728e-21
-5e-05
-3.29165e-21
-5e-05
-1.04401e-23
-5e-05
2.12982e-21
-5e-05
-2.2932e-21
-5e-05
-1.49923e-21
-5e-05
1.7277e-21
-5e-05
-7.96804e-23
-5e-05
-2.6271e-21
-5e-05
-2.90537e-21
-5e-05
-1.89098e-21
-9.88261e-22
-5e-05
-6.57024e-19
-5e-05
9.89721e-20
-5e-05
-3.4041e-20
-5e-05
-2.09794e-21
-5e-05
-1.9615e-21
-5e-05
1.276e-21
-5e-05
5.21489e-21
-5e-05
3.20499e-21
-5e-05
-3.43882e-21
-5e-05
-4.18279e-21
-5e-05
-1.83031e-21
-5e-05
3.77689e-22
-5e-05
-1.33806e-21
-5e-05
-4.57932e-22
-5e-05
-1.33352e-22
-5e-05
-3.31876e-21
-5e-05
-7.57459e-21
-5e-05
-4.00156e-21
-5e-05
-2.17204e-21
-2.13033e-21
-5e-05
-5e-05
-5e-05
-5e-05
-5e-05
-5e-05
-5e-05
-5e-05
-5e-05
-5e-05
-5e-05
-5e-05
-5e-05
-5e-05
-5e-05
-5e-05
-5e-05
-5e-05
-5e-05
)
;

boundaryField
{
    movingWall
    {
        type            calculated;
        value           uniform -0;
    }
    fixedWalls
    {
        type            calculated;
        value           nonuniform List<scalar> 
60
(
5e-05
5e-05
5e-05
5e-05
5e-05
5e-05
5e-05
5e-05
5e-05
5e-05
5e-05
5e-05
5e-05
5e-05
5e-05
5e-05
5e-05
5e-05
5e-05
5e-05
-5e-05
-5e-05
-5e-05
-5e-05
-5e-05
-5e-05
-5e-05
-5e-05
-5e-05
-5e-05
-5e-05
-5e-05
-5e-05
-5e-05
-5e-05
-5e-05
-5e-05
-5e-05
-5e-05
-5e-05
0
0
0
0
0
0
0
0
0
0
0
0
0
0
0
0
0
0
0
0
)
;
    }
    frontAndBack
    {
        type            empty;
    }
}


// ************************************************************************* //
