/*--------------------------------*- C++ -*----------------------------------*\
| =========                 |                                                 |
| \\      /  F ield         | OpenFOAM: The Open Source CFD Toolbox           |
|  \\    /   O peration     | Version:  2506                                  |
|   \\  /    A nd           | Website:  www.openfoam.com                      |
|    \\/     M anipulation  |                                                 |
\*---------------------------------------------------------------------------*/
FoamFile
{
    version     2.0;
    format      ascii;
    arch        "LSB;label=32;scalar=64";
    class       volVectorField;
    location    "5.25";
    object      gradPhi;
}
// * * * * * * * * * * * * * * * * * * * * * * * * * * * * * * * * * * * * * //

dimensions      [0 2 -1 0 0 0 0];

internalField   nonuniform List<vector> 
400
(
(-0.02 4.59609e-17 0)
(7.44463e-17 -7.33733e-17 0)
(-2.31611e-17 2.17641e-17 0)
(1.65436e-18 -1.8967e-18 0)
(0 3.98963e-19 0)
(-1.65436e-18 3.5276e-19 0)
(0 1.97856e-18 0)
(-1.65436e-18 6.78022e-19 0)
(1.65436e-18 -2.99053e-19 0)
(-1.65436e-18 5.4684e-19 0)
(-1.65436e-18 1.30086e-18 0)
(0 -2.23907e-19 0)
(0 4.41233e-19 0)
(-1.65436e-18 1.36378e-18 0)
(-1.65436e-18 1.12152e-18 0)
(0 1.33488e-18 0)
(0 6.1897e-20 0)
(0 1.42248e-19 0)
(0 -3.33165e-19 0)
(0 1.52894e-19 0)
(-0.02 -7.6351e-17 0)
(-1.09188e-16 1.09704e-16 0)
(3.14329e-17 -3.01285e-17 0)
(-4.96308e-18 3.88247e-18 0)
(0 -6.67568e-19 0)
(1.65436e-18 -1.56681e-18 0)
(3.30872e-18 -2.73486e-18 0)
(1.65436e-18 -1.04117e-18 0)
(-1.65436e-18 6.83553e-19 0)
(0 4.24346e-19 0)
(0 -2.83462e-20 0)
(-1.65436e-18 1.35337e-18 0)
(1.65436e-18 -2.12595e-18 0)
(1.65436e-18 -3.18987e-18 0)
(3.30872e-18 -2.12739e-18 0)
(0 -3.82235e-19 0)
(-1.65436e-18 2.68171e-18 0)
(-1.65436e-18 1.75329e-18 0)
(0 -5.69851e-19 0)
(1.65436e-18 -1.70408e-18 0)
(-0.02 2.80436e-17 0)
(2.48154e-17 -2.47264e-17 0)
(-1.65436e-18 1.17428e-18 0)
(0 -6.29876e-19 0)
(-1.65436e-18 7.02423e-19 0)
(1.65436e-18 -1.35035e-19 0)
(0 -6.34594e-19 0)
(0 -2.2251e-19 0)
(1.65436e-18 -8.10505e-19 0)
(0 -2.15007e-19 0)
(1.65436e-18 -9.31976e-19 0)
(0 -1.50535e-18 0)
(0 1.24336e-18 0)
(0 6.17556e-19 0)
(-1.65436e-18 9.19552e-19 0)
(1.65436e-18 -1.07642e-18 0)
(1.65436e-18 -2.61999e-18 0)
(0 -4.46619e-19 0)
(0 1.83162e-19 0)
(0 -3.90828e-19 0)
(-0.02 -1.1154e-17 0)
(0 -7.76634e-19 0)
(-1.32349e-17 1.40253e-17 0)
(1.65436e-18 -9.1491e-19 0)
(1.65436e-18 -1.47811e-18 0)
(0 6.23279e-19 0)
(0 2.78482e-20 0)
(0 -1.46136e-19 0)
(-1.65436e-18 5.55717e-19 0)
(0 2.77977e-19 0)
(-1.65436e-18 6.28813e-19 0)
(0 3.34547e-19 0)
(0 -4.20257e-19 0)
(0 3.90591e-19 0)
(0 -1.53393e-19 0)
(0 4.40526e-19 0)
(-1.65436e-18 1.51834e-18 0)
(3.30872e-18 -2.28773e-18 0)
(0 -2.17725e-19 0)
(-1.65436e-18 1.28673e-18 0)
(-0.02 5.21426e-17 0)
(4.79765e-17 -4.692e-17 0)
(6.61744e-18 -6.12849e-18 0)
(3.30872e-18 -2.04639e-18 0)
(-3.30872e-18 2.60437e-18 0)
(0 1.71151e-19 0)
(-1.65436e-18 1.27211e-19 0)
(1.65436e-18 -8.44185e-19 0)
(0 -2.63907e-19 0)
(0 -2.75081e-19 0)
(-1.65436e-18 7.17693e-19 0)
(-1.65436e-18 2.37229e-18 0)
(-1.65436e-18 1.89252e-18 0)
(-1.65436e-18 1.22605e-18 0)
(-1.65436e-18 6.85426e-19 0)
(0 2.81349e-19 0)
(3.30872e-18 -3.28226e-18 0)
(1.65436e-18 -1.68543e-18 0)
(0 -3.05802e-20 0)
(0 4.48558e-19 0)
(-0.02 -7.84336e-17 0)
(-8.27181e-17 8.18586e-17 0)
(3.30872e-18 -5.05424e-18 0)
(-1.65436e-18 2.59552e-18 0)
(1.65436e-18 -3.05046e-18 0)
(0 3.1449e-19 0)
(0 3.56691e-19 0)
(-3.30872e-18 1.24918e-18 0)
(0 9.00458e-19 0)
(0 -5.58517e-19 0)
(3.30872e-18 -2.33433e-18 0)
(1.65436e-18 -2.55982e-18 0)
(1.65436e-18 -2.05644e-19 0)
(0 9.743e-20 0)
(0 -2.33654e-19 0)
(1.65436e-18 -1.16868e-18 0)
(0 2.03995e-19 0)
(-1.65436e-18 2.21239e-18 0)
(-1.65436e-18 6.87456e-19 0)
(-1.65436e-18 1.65097e-18 0)
(-0.02 7.4715e-17 0)
(7.94093e-17 -8.03398e-17 0)
(-3.30872e-18 4.65648e-18 0)
(3.30872e-18 -2.58555e-18 0)
(-3.30872e-18 2.93731e-18 0)
(0 2.6274e-19 0)
(0 5.72622e-19 0)
(0 3.92153e-19 0)
(1.65436e-18 -1.03405e-18 0)
(0 -1.70437e-19 0)
(-1.65436e-18 7.25434e-19 0)
(0 1.11018e-19 0)
(0 -4.71643e-19 0)
(0 -3.0615e-19 0)
(0 5.01431e-19 0)
(0 1.02961e-18 0)
(-1.65436e-18 1.15506e-18 0)
(0 -1.06502e-19 0)
(-1.65436e-18 1.36189e-18 0)
(1.65436e-18 -1.85138e-18 0)
(-0.02 -5.41935e-17 0)
(-6.28657e-17 6.34206e-17 0)
(3.30872e-18 -2.5196e-18 0)
(-1.65436e-18 1.39872e-18 0)
(3.30872e-18 -4.22482e-18 0)
(1.65436e-18 -3.6319e-19 0)
(0 -7.41253e-20 0)
(0 -3.48854e-19 0)
(-1.65436e-18 4.9935e-19 0)
(1.65436e-18 -1.19635e-18 0)
(0 -1.51566e-18 0)
(3.30872e-18 -2.11961e-18 0)
(3.30872e-18 -1.92307e-18 0)
(0 -6.88443e-19 0)
(1.65436e-18 -9.13969e-19 0)
(-1.65436e-18 3.71623e-19 0)
(0 1.24648e-18 0)
(-1.65436e-18 1.5017e-18 0)
(0 -3.65945e-19 0)
(-1.65436e-18 1.4019e-18 0)
(-0.02 4.99375e-17 0)
(5.9557e-17 -5.89097e-17 0)
(-8.27181e-18 7.1437e-18 0)
(0 2.9518e-19 0)
(-4.96308e-18 4.74443e-18 0)
(-1.65436e-18 1.50201e-18 0)
(0 1.25631e-18 0)
(0 -8.84408e-20 0)
(1.65436e-18 -1.77456e-18 0)
(1.65436e-18 -1.42918e-18 0)
(1.65436e-18 -8.47612e-19 0)
(-1.65436e-18 8.05284e-19 0)
(0 2.64248e-19 0)
(0 4.38042e-19 0)
(0 -2.16252e-19 0)
(0 -9.72654e-19 0)
(1.65436e-18 2.73525e-19 0)
(-1.65436e-18 7.27003e-19 0)
(0 2.85418e-19 0)
(0 -4.56474e-19 0)
(-0.02 -6.74097e-17 0)
(-6.61744e-17 6.63127e-17 0)
(4.96308e-18 -4.52674e-18 0)
(-3.30872e-18 2.37952e-18 0)
(3.30872e-18 -1.23227e-18 0)
(-1.65436e-18 1.1881e-18 0)
(0 3.54861e-20 0)
(-1.65436e-18 5.07621e-19 0)
(0 5.16491e-19 0)
(0 1.55011e-18 0)
(0 5.68944e-19 0)
(0 2.57482e-19 0)
(0 9.42123e-19 0)
(-3.30872e-18 1.37083e-18 0)
(-1.65436e-18 1.47694e-18 0)
(0 6.29856e-20 0)
(0 -4.84454e-19 0)
(1.65436e-18 -1.01443e-18 0)
(1.65436e-18 -4.33604e-19 0)
(0 -6.54074e-20 0)
(-0.02 7.09373e-17 0)
(7.11375e-17 -7.07682e-17 0)
(-3.30872e-18 2.39017e-18 0)
(1.65436e-18 -1.59899e-18 0)
(0 1.15112e-18 0)
(3.30872e-18 -3.31272e-18 0)
(0 3.15753e-20 0)
(-1.65436e-18 9.79344e-19 0)
(1.65436e-18 -4.25359e-20 0)
(0 -8.77546e-19 0)
(0 -1.88718e-19 0)
(-1.65436e-18 9.0224e-19 0)
(0 5.01459e-19 0)
(0 -5.35189e-19 0)
(1.65436e-18 -1.81778e-20 0)
(-1.65436e-18 1.12184e-18 0)
(-1.65436e-18 2.20444e-19 0)
(0 -9.51691e-19 0)
(0 5.26859e-19 0)
(0 -6.0081e-20 0)
(-0.02 -7.63535e-17 0)
(-7.11375e-17 7.14564e-17 0)
(3.30872e-18 -3.67781e-18 0)
(-3.30872e-18 3.32771e-18 0)
(0 -7.55576e-19 0)
(0 1.80681e-18 0)
(-1.65436e-18 6.97766e-19 0)
(-1.65436e-18 1.67979e-18 0)
(-3.30872e-18 2.72545e-18 0)
(-1.65436e-18 3.16819e-18 0)
(-1.65436e-18 1.86735e-18 0)
(0 -3.96027e-19 0)
(0 1.07942e-19 0)
(1.65436e-18 -1.7453e-18 0)
(0 -1.43398e-18 0)
(1.65436e-18 -1.20271e-18 0)
(1.65436e-18 -1.97897e-18 0)
(0 -5.31291e-19 0)
(1.65436e-18 -1.45022e-18 0)
(-1.65436e-18 1.32989e-18 0)
(-0.02 8.07852e-17 0)
(7.27919e-17 -7.30611e-17 0)
(-3.30872e-18 3.05359e-18 0)
(4.96308e-18 -6.09744e-18 0)
(1.65436e-18 3.12947e-19 0)
(-1.65436e-18 7.7389e-19 0)
(0 -4.19076e-19 0)
(1.65436e-18 -1.90668e-18 0)
(1.65436e-18 -7.22399e-20 0)
(0 -5.6599e-19 0)
(-1.65436e-18 1.0457e-18 0)
(0 1.0633e-18 0)
(1.65436e-18 -1.09592e-18 0)
(0 -1.25344e-19 0)
(0 2.73879e-19 0)
(0 1.69144e-19 0)
(0 2.91884e-19 0)
(0 2.01073e-19 0)
(0 -1.57808e-19 0)
(3.30872e-18 -3.03762e-18 0)
(-0.02 -6.53651e-17 0)
(-6.45201e-17 6.51849e-17 0)
(4.96308e-18 -3.85363e-18 0)
(-3.30872e-18 3.63496e-18 0)
(0 -1.16784e-18 0)
(0 -6.60626e-19 0)
(1.65436e-18 -4.30615e-19 0)
(-1.65436e-18 2.43482e-19 0)
(0 -1.4408e-19 0)
(0 2.45063e-19 0)
(0 3.62521e-19 0)
(0 1.28823e-18 0)
(-1.65436e-18 8.24539e-19 0)
(1.65436e-18 -3.505e-19 0)
(0 -1.16794e-18 0)
(0 -1.336e-18 0)
(0 -6.03833e-19 0)
(0 2.57815e-19 0)
(0 5.84171e-19 0)
(-1.65436e-18 1.88379e-18 0)
(-0.02 4.32312e-17 0)
(4.63221e-17 -4.57355e-17 0)
(-3.30872e-18 3.5334e-18 0)
(0 -1.11223e-18 0)
(-1.65436e-18 1.7117e-18 0)
(0 -7.19418e-19 0)
(1.65436e-18 -1.53109e-18 0)
(0 -2.20169e-18 0)
(3.30872e-18 -2.55677e-18 0)
(0 -4.76003e-19 0)
(0 -4.56688e-19 0)
(3.30872e-18 -1.69729e-18 0)
(-1.65436e-18 1.3482e-18 0)
(-1.65436e-18 1.65672e-18 0)
(0 -4.22545e-19 0)
(0 -2.89931e-19 0)
(-1.65436e-18 1.3335e-18 0)
(-1.65436e-18 8.15782e-19 0)
(0 -4.44243e-19 0)
(0 -2.01424e-19 0)
(-0.02 -3.07008e-17 0)
(-3.47416e-17 3.3594e-17 0)
(1.65436e-18 -2.15942e-18 0)
(-3.30872e-18 2.3648e-18 0)
(3.30872e-18 -1.72003e-18 0)
(-1.65436e-18 5.0419e-19 0)
(0 7.74363e-19 0)
(0 -1.91206e-19 0)
(-1.65436e-18 7.6982e-19 0)
(1.65436e-18 -1.04936e-18 0)
(3.30872e-18 -1.90161e-18 0)
(0 1.96171e-20 0)
(1.65436e-18 -1.17946e-18 0)
(0 -4.93516e-19 0)
(-1.65436e-18 7.86966e-19 0)
(-1.65436e-18 1.80019e-18 0)
(-1.65436e-18 3.23523e-19 0)
(1.65436e-18 -1.14543e-18 0)
(0 -1.31644e-19 0)
(1.65436e-18 -1.1052e-18 0)
(-0.02 2.48944e-17 0)
(2.81241e-17 -2.9271e-17 0)
(-4.96308e-18 4.44735e-18 0)
(3.30872e-18 -2.97694e-18 0)
(0 1.2885e-18 0)
(0 3.79485e-19 0)
(-1.65436e-18 -1.27985e-19 0)
(0 6.04707e-20 0)
(1.65436e-18 -1.3109e-18 0)
(0 -7.34247e-19 0)
(-1.65436e-18 9.66008e-19 0)
(1.65436e-18 -1.00705e-18 0)
(0 -5.66217e-19 0)
(0 -3.29527e-19 0)
(0 6.54569e-19 0)
(0 -2.06251e-19 0)
(-1.65436e-18 7.22902e-19 0)
(0 5.49038e-20 0)
(0 7.3322e-20 0)
(0 3.44653e-19 0)
(-0.02 -8.5461e-18 0)
(-9.92617e-18 1.04758e-17 0)
(1.65436e-18 -2.60029e-18 0)
(1.65436e-18 7.50772e-21 0)
(1.65436e-18 -1.46305e-18 0)
(0 6.88091e-19 0)
(-1.65436e-18 8.60866e-19 0)
(0 -3.78787e-19 0)
(0 3.78541e-19 0)
(-1.65436e-18 7.29047e-19 0)
(0 -6.35343e-19 0)
(0 2.07598e-18 0)
(0 -1.87963e-19 0)
(0 1.23298e-19 0)
(0 8.0987e-19 0)
(0 2.89753e-19 0)
(0 -1.68557e-18 0)
(0 1.39547e-20 0)
(0 -2.70134e-19 0)
(0 8.35631e-19 0)
(-0.02 1.42006e-18 0)
(-8.27181e-18 9.01567e-18 0)
(8.27181e-18 -8.03915e-18 0)
(1.65436e-18 -1.62229e-18 0)
(-1.65436e-18 1.41218e-19 0)
(3.30872e-18 -2.2701e-18 0)
(-1.65436e-18 -2.12466e-19 0)
(-3.30872e-18 2.91248e-18 0)
(0 7.06936e-19 0)
(0 -2.25767e-19 0)
(-1.65436e-18 6.23387e-19 0)
(1.65436e-18 -1.33784e-18 0)
(0 3.75871e-19 0)
(-1.65436e-18 6.59427e-19 0)
(1.65436e-18 -4.89682e-19 0)
(0 -1.09135e-18 0)
(1.65436e-18 -1.18452e-18 0)
(0 -3.91795e-19 0)
(0 5.00155e-19 0)
(1.65436e-18 -1.70369e-18 0)
(-0.02 -3.56048e-18 0)
(6.61744e-18 -7.14056e-18 0)
(-6.61744e-18 6.49958e-18 0)
(-1.65436e-18 1.59493e-18 0)
(0 -2.33254e-19 0)
(0 4.60912e-19 0)
(0 -5.54481e-19 0)
(1.65436e-18 -1.33288e-18 0)
(0 5.72281e-19 0)
(-1.65436e-18 8.31914e-19 0)
(0 3.35591e-20 0)
(0 2.63536e-19 0)
(0 2.34642e-19 0)
(0 -1.79868e-19 0)
(0 -5.31675e-20 0)
(0 8.24342e-19 0)
(0 1.80635e-18 0)
(0 8.80769e-19 0)
(0 2.02489e-19 0)
(-1.65436e-18 1.24117e-18 0)
)
;

boundaryField
{
    movingWall
    {
        type            extrapolatedCalculated;
        value           nonuniform List<vector> 
20
(
(-0.02 -3.56048e-18 0)
(6.61744e-18 -7.14056e-18 0)
(-6.61744e-18 6.49958e-18 0)
(-1.65436e-18 1.59493e-18 0)
(0 -2.33254e-19 0)
(0 4.60912e-19 0)
(0 -5.54481e-19 0)
(1.65436e-18 -1.33288e-18 0)
(0 5.72281e-19 0)
(-1.65436e-18 8.31914e-19 0)
(0 3.35591e-20 0)
(0 2.63536e-19 0)
(0 2.34642e-19 0)
(0 -1.79868e-19 0)
(0 -5.31675e-20 0)
(0 8.24342e-19 0)
(0 1.80635e-18 0)
(0 8.80769e-19 0)
(0 2.02489e-19 0)
(-1.65436e-18 1.24117e-18 0)
)
;
    }
    fixedWalls
    {
        type            extrapolatedCalculated;
        value           nonuniform List<vector> 
60
(
(-0.02 4.59609e-17 0)
(-0.02 -7.6351e-17 0)
(-0.02 2.80436e-17 0)
(-0.02 -1.1154e-17 0)
(-0.02 5.21426e-17 0)
(-0.02 -7.84336e-17 0)
(-0.02 7.4715e-17 0)
(-0.02 -5.41935e-17 0)
(-0.02 4.99375e-17 0)
(-0.02 -6.74097e-17 0)
(-0.02 7.09373e-17 0)
(-0.02 -7.63535e-17 0)
(-0.02 8.07852e-17 0)
(-0.02 -6.53651e-17 0)
(-0.02 4.32312e-17 0)
(-0.02 -3.07008e-17 0)
(-0.02 2.48944e-17 0)
(-0.02 -8.5461e-18 0)
(-0.02 1.42006e-18 0)
(-0.02 -3.56048e-18 0)
(0 1.52894e-19 0)
(1.65436e-18 -1.70408e-18 0)
(0 -3.90828e-19 0)
(-1.65436e-18 1.28673e-18 0)
(0 4.48558e-19 0)
(-1.65436e-18 1.65097e-18 0)
(1.65436e-18 -1.85138e-18 0)
(-1.65436e-18 1.4019e-18 0)
(0 -4.56474e-19 0)
(0 -6.54074e-20 0)
(0 -6.0081e-20 0)
(-1.65436e-18 1.32989e-18 0)
(3.30872e-18 -3.03762e-18 0)
(-1.65436e-18 1.88379e-18 0)
(0 -2.01424e-19 0)
(1.65436e-18 -1.1052e-18 0)
(0 3.44653e-19 0)
(0 8.35631e-19 0)
(1.65436e-18 -1.70369e-18 0)
(-1.65436e-18 1.24117e-18 0)
(-0.02 4.59609e-17 0)
(7.44463e-17 -7.33733e-17 0)
(-2.31611e-17 2.17641e-17 0)
(1.65436e-18 -1.8967e-18 0)
(0 3.98963e-19 0)
(-1.65436e-18 3.5276e-19 0)
(0 1.97856e-18 0)
(-1.65436e-18 6.78022e-19 0)
(1.65436e-18 -2.99053e-19 0)
(-1.65436e-18 5.4684e-19 0)
(-1.65436e-18 1.30086e-18 0)
(0 -2.23907e-19 0)
(0 4.41233e-19 0)
(-1.65436e-18 1.36378e-18 0)
(-1.65436e-18 1.12152e-18 0)
(0 1.33488e-18 0)
(0 6.1897e-20 0)
(0 1.42248e-19 0)
(0 -3.33165e-19 0)
(0 1.52894e-19 0)
)
;
    }
    frontAndBack
    {
        type            empty;
    }
}


// ************************************************************************* //
