/*--------------------------------*- C++ -*----------------------------------*\
| =========                 |                                                 |
| \\      /  F ield         | OpenFOAM: The Open Source CFD Toolbox           |
|  \\    /   O peration     | Version:  2506                                  |
|   \\  /    A nd           | Website:  www.openfoam.com                      |
|    \\/     M anipulation  |                                                 |
\*---------------------------------------------------------------------------*/
FoamFile
{
    version     2.0;
    format      ascii;
    arch        "LSB;label=32;scalar=64";
    class       volTensorField;
    location    "5.25";
    object      gradU;
}
// * * * * * * * * * * * * * * * * * * * * * * * * * * * * * * * * * * * * * //

dimensions      [0 0 -1 0 0 0 0];

internalField   nonuniform List<tensor> 
400
(
(-5.69206e-13 2.6199e-12 0 2.1684e-13 8.19419e-12 0 0 0 0)
(1.00289e-12 -3.07744e-12 0 -2.71051e-14 -1.68676e-12 0 0 0 0)
(-2.71051e-13 6.02603e-13 0 0 4.2049e-13 0 0 0 0)
(2.71051e-14 -1.56213e-13 0 2.71051e-14 -6.43906e-14 0 0 0 0)
(0 2.77721e-14 0 5.42101e-14 1.99915e-14 0 0 0 0)
(0 3.4385e-15 0 2.71051e-14 5.16828e-15 0 0 0 0)
(-5.42101e-14 -6.93766e-15 0 5.42101e-14 2.07046e-14 0 0 0 0)
(-2.71051e-14 -1.24421e-14 0 5.42101e-14 5.50228e-15 0 0 0 0)
(2.71051e-14 3.51312e-15 0 2.71051e-14 2.6584e-15 0 0 0 0)
(-2.71051e-14 7.55067e-15 0 2.71051e-14 1.64083e-14 0 0 0 0)
(-2.71051e-14 -3.74724e-15 0 0 2.18934e-14 0 0 0 0)
(0 8.91581e-16 0 0 4.72687e-15 0 0 0 0)
(0 1.01448e-14 0 0 3.2734e-15 0 0 0 0)
(-2.71051e-14 2.43828e-16 0 2.71051e-14 1.16692e-14 0 0 0 0)
(-2.71051e-14 -3.66374e-15 0 2.71051e-14 1.41592e-14 0 0 0 0)
(-2.71051e-14 -7.43932e-15 0 2.71051e-14 2.37548e-14 0 0 0 0)
(2.71051e-14 -5.64892e-15 0 2.71051e-14 1.6057e-14 0 0 0 0)
(-2.71051e-14 -1.12636e-15 0 0 1.21798e-14 0 0 0 0)
(0 -1.63186e-15 0 -5.42101e-14 -6.97945e-15 0 0 0 0)
(0 2.30015e-16 0 0 -6.88654e-15 0 0 0 0)
(7.86047e-13 3.88754e-12 0 -2.98156e-13 -1.16236e-11 0 0 0 0)
(-1.24683e-12 -4.69627e-12 0 -1.89735e-13 2.37118e-12 0 0 0 0)
(2.98156e-13 1.01977e-12 0 -2.1684e-13 -5.63955e-13 0 0 0 0)
(5.42101e-14 -2.44286e-13 0 -8.13152e-14 1.10922e-13 0 0 0 0)
(0 4.17869e-14 0 -1.6263e-13 -2.76153e-14 0 0 0 0)
(5.42101e-14 -2.7254e-15 0 -1.6263e-13 -2.38456e-14 0 0 0 0)
(2.71051e-14 7.27166e-15 0 -1.35525e-13 -2.52481e-14 0 0 0 0)
(0 -5.60419e-15 0 -1.0842e-13 -6.08929e-15 0 0 0 0)
(-2.71051e-14 7.39289e-15 0 -1.0842e-13 1.91232e-16 0 0 0 0)
(0 1.16843e-14 0 -1.0842e-13 2.92306e-15 0 0 0 0)
(0 -7.93419e-15 0 -8.13152e-14 1.76857e-15 0 0 0 0)
(-5.42101e-14 -1.95116e-14 0 -8.13152e-14 2.15857e-15 0 0 0 0)
(5.42101e-14 -3.20254e-15 0 -8.13152e-14 -2.24925e-14 0 0 0 0)
(8.13152e-14 1.0642e-14 0 -8.13152e-14 -3.2147e-14 0 0 0 0)
(2.71051e-14 1.57494e-14 0 -8.13152e-14 -1.98856e-14 0 0 0 0)
(2.71051e-14 9.33716e-15 0 -2.71051e-14 -5.92235e-15 0 0 0 0)
(-5.42101e-14 -5.92609e-15 0 -2.71051e-14 1.71286e-14 0 0 0 0)
(-5.42101e-14 -2.19101e-14 0 0 1.5784e-14 0 0 0 0)
(0 -1.74345e-14 0 5.42101e-14 -9.96185e-15 0 0 0 0)
(5.42101e-14 1.3636e-14 0 0 -1.7528e-14 0 0 0 0)
(-1.02999e-12 -6.63256e-12 0 5.14996e-13 -4.33489e-13 0 0 0 0)
(1.0842e-12 7.98225e-12 0 1.0842e-13 1.38429e-13 0 0 0 0)
(-2.43945e-13 -1.65765e-12 0 2.43945e-13 -3.68988e-14 0 0 0 0)
(1.0842e-13 3.80126e-13 0 0 2.8791e-15 0 0 0 0)
(-5.42101e-14 -1.06996e-13 0 8.13152e-14 -2.72689e-15 0 0 0 0)
(0 5.8057e-15 0 8.13152e-14 -7.24207e-15 0 0 0 0)
(5.42101e-14 1.08186e-14 0 0 -2.03484e-14 0 0 0 0)
(0 1.29972e-14 0 5.42101e-14 -1.25308e-14 0 0 0 0)
(0 1.25255e-14 0 2.71051e-14 -9.88968e-15 0 0 0 0)
(0 9.128e-15 0 2.71051e-14 -1.123e-14 0 0 0 0)
(2.71051e-14 -4.51173e-15 0 8.13152e-14 -1.73107e-14 0 0 0 0)
(5.42101e-14 -2.33695e-14 0 8.13152e-14 -8.72422e-15 0 0 0 0)
(-5.42101e-14 -2.41607e-14 0 2.71051e-14 -3.65696e-15 0 0 0 0)
(0 2.85081e-15 0 0 -1.19344e-14 0 0 0 0)
(-2.71051e-14 2.25609e-14 0 0 -8.71629e-15 0 0 0 0)
(2.71051e-14 2.95749e-14 0 -5.42101e-14 -1.13413e-14 0 0 0 0)
(5.42101e-14 1.60574e-14 0 -5.42101e-14 -2.25345e-15 0 0 0 0)
(2.71051e-14 -2.82168e-14 0 0 -5.88387e-15 0 0 0 0)
(-2.71051e-14 -3.49438e-14 0 2.71051e-14 -3.46194e-15 0 0 0 0)
(0 2.77198e-14 0 0 -5.80247e-15 0 0 0 0)
(1.38236e-12 3.59247e-12 0 -1.32815e-12 7.58988e-12 0 0 0 0)
(-1.54499e-12 -4.29968e-12 0 2.98156e-13 -1.5566e-12 0 0 0 0)
(2.71051e-13 8.84217e-13 0 -2.71051e-14 3.72337e-13 0 0 0 0)
(-1.35525e-13 -2.10114e-13 0 1.35525e-13 -7.919e-14 0 0 0 0)
(5.42101e-14 3.16657e-14 0 1.0842e-13 2.00261e-14 0 0 0 0)
(-2.71051e-14 -2.03469e-14 0 1.0842e-13 8.78685e-15 0 0 0 0)
(2.71051e-14 1.98288e-15 0 8.13152e-14 -3.63911e-15 0 0 0 0)
(0 4.85454e-15 0 8.13152e-14 -8.18643e-15 0 0 0 0)
(-2.71051e-14 8.69377e-15 0 8.13152e-14 3.8048e-15 0 0 0 0)
(2.71051e-14 4.26332e-15 0 1.0842e-13 1.11709e-14 0 0 0 0)
(-2.71051e-14 -5.42845e-15 0 5.42101e-14 1.50243e-14 0 0 0 0)
(-2.71051e-14 -5.85784e-15 0 0 1.23484e-14 0 0 0 0)
(0 -6.41269e-15 0 5.42101e-14 1.652e-14 0 0 0 0)
(0 5.58263e-15 0 0 2.03073e-14 0 0 0 0)
(0 1.63425e-14 0 0 1.64816e-14 0 0 0 0)
(0 1.58e-14 0 0 3.22746e-15 0 0 0 0)
(-5.42101e-14 -4.68683e-16 0 -2.71051e-14 -2.37383e-14 0 0 0 0)
(8.13152e-14 -2.31186e-14 0 0 -3.8142e-14 0 0 0 0)
(-2.71051e-14 -1.73531e-14 0 0 1.90629e-15 0 0 0 0)
(0 2.29004e-14 0 2.71051e-14 1.32679e-14 0 0 0 0)
(-2.11419e-12 -5.99284e-13 0 1.5992e-12 -5.07825e-12 0 0 0 0)
(2.41235e-12 7.64709e-13 0 -4.06576e-13 1.03603e-12 0 0 0 0)
(-4.06576e-13 -1.80245e-13 0 8.13152e-14 -2.50727e-13 0 0 0 0)
(1.89735e-13 2.78154e-14 0 0 3.79541e-14 0 0 0 0)
(-8.13152e-14 -1.90187e-14 0 0 -1.1486e-14 0 0 0 0)
(0 -1.78595e-14 0 -5.42101e-14 4.82363e-15 0 0 0 0)
(2.71051e-14 -6.15464e-15 0 0 -6.04629e-16 0 0 0 0)
(0 2.04411e-14 0 -8.13152e-14 -2.21748e-15 0 0 0 0)
(0 3.18828e-14 0 -8.13152e-14 7.74013e-15 0 0 0 0)
(0 2.03475e-14 0 -5.42101e-14 2.79001e-15 0 0 0 0)
(0 -3.33421e-15 0 -2.71051e-14 7.14003e-15 0 0 0 0)
(-5.42101e-14 -2.18738e-14 0 2.71051e-14 1.60909e-14 0 0 0 0)
(-5.42101e-14 -1.62018e-14 0 0 1.88556e-14 0 0 0 0)
(-2.71051e-14 2.81241e-15 0 5.42101e-14 1.78193e-14 0 0 0 0)
(0 5.48099e-15 0 5.42101e-14 4.30323e-15 0 0 0 0)
(-5.42101e-14 -1.06451e-14 0 0 -1.13368e-14 0 0 0 0)
(8.13152e-14 -2.5312e-14 0 8.13152e-14 -3.35458e-14 0 0 0 0)
(5.42101e-14 -2.57223e-15 0 2.71051e-14 -2.01963e-14 0 0 0 0)
(2.71051e-14 1.64661e-14 0 2.71051e-14 5.26705e-15 0 0 0 0)
(-2.71051e-14 1.25456e-14 0 2.71051e-14 1.95905e-14 0 0 0 0)
(2.60209e-12 -4.4975e-13 0 -5.69206e-13 1.73608e-12 0 0 0 0)
(-3.03577e-12 5.2785e-13 0 1.89735e-13 -3.21358e-13 0 0 0 0)
(6.23416e-13 -1.13858e-13 0 -2.71051e-14 3.94593e-14 0 0 0 0)
(-2.43945e-13 2.91274e-14 0 -2.71051e-14 -1.90105e-14 0 0 0 0)
(8.13152e-14 -1.46479e-15 0 0 5.18104e-15 0 0 0 0)
(-2.71051e-14 -9.4656e-15 0 5.42101e-14 1.01504e-14 0 0 0 0)
(0 -5.05822e-15 0 0 1.65783e-14 0 0 0 0)
(-5.42101e-14 1.31993e-14 0 0 1.50669e-14 0 0 0 0)
(-2.71051e-14 1.37013e-14 0 5.42101e-14 6.9617e-16 0 0 0 0)
(2.71051e-14 3.66322e-15 0 0 -2.11933e-14 0 0 0 0)
(5.42101e-14 7.87244e-15 0 0 -2.93231e-14 0 0 0 0)
(2.71051e-14 5.85775e-15 0 2.71051e-14 -1.657e-14 0 0 0 0)
(2.71051e-14 -4.68428e-15 0 5.42101e-14 6.46695e-15 0 0 0 0)
(0 -8.96976e-15 0 5.42101e-14 5.80326e-15 0 0 0 0)
(0 -1.28136e-14 0 5.42101e-14 -6.89101e-17 0 0 0 0)
(2.71051e-14 -2.2049e-14 0 1.0842e-13 -6.05119e-15 0 0 0 0)
(0 -9.32818e-15 0 8.13152e-14 -1.24766e-16 0 0 0 0)
(-2.71051e-14 1.56942e-14 0 0 1.84797e-14 0 0 0 0)
(0 2.24337e-14 0 0 1.08748e-14 0 0 0 0)
(-5.42101e-14 -1.95717e-15 0 -2.71051e-14 9.17235e-15 0 0 0 0)
(-2.43945e-12 8.15442e-13 0 -1.0571e-12 -4.95374e-13 0 0 0 0)
(2.92735e-12 -9.31917e-13 0 1.89735e-13 7.68826e-14 0 0 0 0)
(-6.23416e-13 1.22103e-13 0 -1.35525e-13 -2.49874e-14 0 0 0 0)
(2.43945e-13 -6.46293e-15 0 -8.13152e-14 2.1517e-15 0 0 0 0)
(-5.42101e-14 1.01423e-14 0 -1.0842e-13 -1.03939e-14 0 0 0 0)
(0 -6.46216e-15 0 -5.42101e-14 -1.97633e-16 0 0 0 0)
(0 -1.23815e-15 0 -5.42101e-14 5.73981e-15 0 0 0 0)
(0 4.55898e-15 0 0 1.13443e-14 0 0 0 0)
(0 -4.37743e-15 0 -5.42101e-14 5.78969e-15 0 0 0 0)
(2.71051e-14 -9.67178e-15 0 -5.42101e-14 -4.23165e-16 0 0 0 0)
(-2.71051e-14 1.28905e-15 0 0 -7.39068e-15 0 0 0 0)
(0 1.39163e-14 0 -5.42101e-14 -2.20634e-14 0 0 0 0)
(0 6.17152e-15 0 0 -1.89406e-14 0 0 0 0)
(0 -3.72345e-15 0 0 -1.06119e-14 0 0 0 0)
(0 -6.37346e-15 0 0 1.33646e-15 0 0 0 0)
(-2.71051e-14 -1.07009e-14 0 2.71051e-14 1.61042e-14 0 0 0 0)
(-2.71051e-14 -7.81107e-16 0 -2.71051e-14 2.32764e-14 0 0 0 0)
(0 8.42738e-15 0 -2.71051e-14 1.85307e-14 0 0 0 0)
(0 7.15873e-15 0 -2.71051e-14 1.36112e-14 0 0 0 0)
(0 -7.50159e-15 0 0 -3.90503e-15 0 0 0 0)
(1.65341e-12 -8.68241e-13 0 1.02999e-12 -3.21195e-14 0 0 0 0)
(-2.05998e-12 9.98236e-13 0 -1.89735e-13 -9.79719e-14 0 0 0 0)
(4.06576e-13 -1.88589e-13 0 8.13152e-14 5.15062e-14 0 0 0 0)
(-1.89735e-13 4.37209e-14 0 0 -1.17876e-14 0 0 0 0)
(1.0842e-13 -3.81412e-15 0 -2.71051e-14 -1.34332e-14 0 0 0 0)
(0 6.66807e-15 0 -8.13152e-14 -2.79647e-15 0 0 0 0)
(0 6.48372e-15 0 -2.71051e-14 2.37314e-15 0 0 0 0)
(0 1.32492e-14 0 -8.13152e-14 -7.85369e-15 0 0 0 0)
(-5.42101e-14 1.93379e-15 0 -2.71051e-14 -1.77528e-14 0 0 0 0)
(5.42101e-14 -9.51715e-15 0 -2.71051e-14 -2.33419e-14 0 0 0 0)
(2.71051e-14 -1.37678e-14 0 -2.71051e-14 -1.85739e-14 0 0 0 0)
(5.42101e-14 -5.69215e-15 0 0 -2.22129e-14 0 0 0 0)
(5.42101e-14 6.76723e-15 0 -2.71051e-14 -2.50212e-14 0 0 0 0)
(0 1.13073e-14 0 -2.71051e-14 -9.98382e-15 0 0 0 0)
(2.71051e-14 1.39025e-14 0 -5.42101e-14 -7.52865e-15 0 0 0 0)
(0 -1.0912e-16 0 -2.71051e-14 6.98902e-15 0 0 0 0)
(-5.42101e-14 -6.90167e-15 0 0 1.99743e-14 0 0 0 0)
(0 6.02904e-15 0 0 1.97486e-14 0 0 0 0)
(2.71051e-14 -2.074e-18 0 -2.71051e-14 1.06368e-14 0 0 0 0)
(-5.42101e-14 -1.16633e-14 0 0 9.12814e-16 0 0 0 0)
(-1.54499e-12 6.85351e-13 0 4.33681e-13 2.68287e-13 0 0 0 0)
(1.95156e-12 -8.48291e-13 0 2.71051e-14 7.04078e-14 0 0 0 0)
(-4.60786e-13 2.08287e-13 0 8.13152e-14 4.11954e-14 0 0 0 0)
(1.0842e-13 -7.14024e-14 0 1.35525e-13 3.87989e-14 0 0 0 0)
(-1.0842e-13 1.91334e-14 0 1.0842e-13 3.7032e-14 0 0 0 0)
(0 9.34422e-15 0 1.0842e-13 3.24681e-14 0 0 0 0)
(-2.71051e-14 -6.29537e-15 0 8.13152e-14 1.79164e-14 0 0 0 0)
(0 -1.5567e-14 0 2.71051e-14 -5.42492e-16 0 0 0 0)
(2.71051e-14 -1.98656e-14 0 8.13152e-14 -1.83006e-14 0 0 0 0)
(5.42101e-14 -1.04929e-14 0 8.13152e-14 -2.02296e-14 0 0 0 0)
(2.71051e-14 2.41802e-15 0 2.71051e-14 -1.67665e-14 0 0 0 0)
(-2.71051e-14 7.46889e-15 0 2.71051e-14 -9.04554e-16 0 0 0 0)
(0 1.84006e-14 0 0 -7.01304e-16 0 0 0 0)
(0 1.37691e-14 0 -2.71051e-14 1.06785e-14 0 0 0 0)
(0 1.05994e-14 0 -5.42101e-14 -1.86707e-15 0 0 0 0)
(0 1.6802e-14 0 -5.42101e-14 -1.34738e-14 0 0 0 0)
(0 1.19785e-14 0 -5.42101e-14 7.58897e-15 0 0 0 0)
(0 -9.10118e-16 0 0 9.42126e-15 0 0 0 0)
(0 -1.16771e-14 0 0 -3.2864e-15 0 0 0 0)
(0 -1.90512e-14 0 -2.71051e-14 3.47788e-15 0 0 0 0)
(2.11419e-12 -5.29546e-13 0 -5.14996e-13 3.30032e-14 0 0 0 0)
(-2.41235e-12 7.71144e-13 0 -8.13152e-14 7.96057e-15 0 0 0 0)
(5.14996e-13 -2.20198e-13 0 -8.13152e-14 -4.27911e-15 0 0 0 0)
(-1.6263e-13 3.95576e-14 0 -2.71051e-14 1.50642e-14 0 0 0 0)
(5.42101e-14 -1.01448e-14 0 2.71051e-14 1.68455e-14 0 0 0 0)
(-2.71051e-14 -1.24475e-14 0 5.42101e-14 7.44159e-16 0 0 0 0)
(0 -2.65269e-14 0 8.13152e-14 2.03191e-15 0 0 0 0)
(-2.71051e-14 -2.29679e-14 0 1.0842e-13 6.07368e-15 0 0 0 0)
(0 -1.77533e-14 0 5.42101e-14 -1.61886e-15 0 0 0 0)
(-2.71051e-14 -7.98302e-15 0 5.42101e-14 7.41963e-15 0 0 0 0)
(0 5.55725e-15 0 0 4.91091e-15 0 0 0 0)
(0 1.0373e-14 0 2.71051e-14 1.5317e-14 0 0 0 0)
(-2.71051e-14 1.83503e-14 0 -2.71051e-14 1.91253e-14 0 0 0 0)
(0 1.01415e-14 0 0 2.00238e-14 0 0 0 0)
(-5.42101e-14 -1.02498e-14 0 8.13152e-14 1.61491e-14 0 0 0 0)
(0 9.34692e-15 0 0 7.06025e-16 0 0 0 0)
(0 1.59934e-14 0 0 -4.96673e-15 0 0 0 0)
(0 -4.84633e-15 0 0 -1.61229e-14 0 0 0 0)
(5.42101e-14 -5.94545e-15 0 0 -7.47867e-15 0 0 0 0)
(0 -1.18548e-14 0 0 -1.19719e-15 0 0 0 0)
(-2.1413e-12 7.26315e-13 0 -8.13152e-14 -1.47782e-13 0 0 0 0)
(2.43945e-12 -8.85573e-13 0 1.0842e-13 -2.78496e-14 0 0 0 0)
(-4.87891e-13 2.15391e-13 0 5.42101e-14 -1.77117e-14 0 0 0 0)
(2.1684e-13 -5.02778e-14 0 0 4.09553e-15 0 0 0 0)
(-2.71051e-14 4.81333e-15 0 0 -1.52633e-14 0 0 0 0)
(5.42101e-14 -5.46933e-15 0 0 -2.81947e-14 0 0 0 0)
(0 -9.65848e-16 0 -2.71051e-14 2.58532e-15 0 0 0 0)
(-2.71051e-14 -1.92177e-14 0 0 1.92671e-14 0 0 0 0)
(0 -1.85197e-14 0 -2.71051e-14 1.36177e-14 0 0 0 0)
(2.71051e-14 -3.96309e-15 0 -5.42101e-14 1.34186e-14 0 0 0 0)
(0 1.03154e-14 0 -8.13152e-14 1.06484e-14 0 0 0 0)
(0 2.16833e-14 0 -5.42101e-14 9.86246e-15 0 0 0 0)
(-5.42101e-14 2.31074e-14 0 -5.42101e-14 1.52675e-14 0 0 0 0)
(5.42101e-14 1.07929e-14 0 -8.13152e-14 -2.8415e-15 0 0 0 0)
(0 -8.71842e-15 0 -2.71051e-14 3.62054e-15 0 0 0 0)
(-5.42101e-14 -4.31385e-15 0 0 8.31847e-15 0 0 0 0)
(0 -4.8504e-15 0 0 -9.61064e-15 0 0 0 0)
(0 -3.42206e-15 0 0 -1.13795e-14 0 0 0 0)
(0 3.2486e-15 0 2.71051e-14 2.41845e-15 0 0 0 0)
(0 -1.03753e-14 0 0 2.85124e-15 0 0 0 0)
(2.1413e-12 -7.05178e-13 0 -2.1684e-13 -1.93653e-13 0 0 0 0)
(-2.33103e-12 9.01215e-13 0 0 2.71608e-14 0 0 0 0)
(4.87891e-13 -1.88253e-13 0 -5.42101e-14 -9.91988e-15 0 0 0 0)
(-2.1684e-13 4.20059e-14 0 -5.42101e-14 8.14045e-15 0 0 0 0)
(5.42101e-14 -4.2435e-14 0 0 1.30256e-14 0 0 0 0)
(-5.42101e-14 5.40112e-15 0 -8.13152e-14 1.56479e-14 0 0 0 0)
(-2.71051e-14 2.09349e-14 0 -1.0842e-13 1.59488e-14 0 0 0 0)
(0 -1.19355e-14 0 -5.42101e-14 2.4006e-14 0 0 0 0)
(-1.0842e-13 -2.36019e-14 0 -8.13152e-14 3.72809e-14 0 0 0 0)
(-2.71051e-14 -1.09523e-14 0 -5.42101e-14 2.9816e-14 0 0 0 0)
(-5.42101e-14 2.00112e-15 0 -2.71051e-14 2.04769e-14 0 0 0 0)
(5.42101e-14 1.49921e-14 0 -8.13152e-14 4.40782e-15 0 0 0 0)
(-5.42101e-14 5.64634e-15 0 -2.71051e-14 -1.05703e-14 0 0 0 0)
(5.42101e-14 -1.50541e-15 0 0 -3.19008e-14 0 0 0 0)
(2.71051e-14 9.10193e-16 0 -5.42101e-14 -1.75782e-14 0 0 0 0)
(0 -3.88426e-15 0 -5.42101e-14 -7.68125e-15 0 0 0 0)
(5.42101e-14 -3.70456e-15 0 0 -1.95552e-14 0 0 0 0)
(0 7.18276e-15 0 -5.42101e-14 -1.16318e-14 0 0 0 0)
(2.71051e-14 8.28525e-15 0 0 -1.14453e-14 0 0 0 0)
(-2.71051e-14 -1.71245e-14 0 0 -1.53847e-15 0 0 0 0)
(-2.35814e-12 5.59823e-13 0 0 1.45156e-13 0 0 0 0)
(2.54788e-12 -7.0184e-13 0 -5.42101e-14 -7.22592e-14 0 0 0 0)
(-4.87891e-13 1.96371e-13 0 -8.13152e-14 -1.21238e-14 0 0 0 0)
(2.1684e-13 -2.73323e-14 0 -5.42101e-14 -3.85996e-14 0 0 0 0)
(0 1.23207e-14 0 -5.42101e-14 -4.54787e-15 0 0 0 0)
(0 -2.54615e-15 0 -5.42101e-14 1.38984e-14 0 0 0 0)
(0 7.39226e-15 0 5.42101e-14 -3.41039e-15 0 0 0 0)
(2.71051e-14 2.11434e-15 0 0 -6.43084e-15 0 0 0 0)
(-2.71051e-14 -1.27096e-14 0 5.42101e-14 1.25616e-14 0 0 0 0)
(2.71051e-14 -2.0767e-14 0 5.42101e-14 1.33205e-14 0 0 0 0)
(-2.71051e-14 -1.50927e-14 0 1.0842e-13 2.30306e-14 0 0 0 0)
(0 -9.3639e-15 0 2.71051e-14 9.52753e-15 0 0 0 0)
(2.71051e-14 -1.32012e-14 0 2.71051e-14 -1.49484e-14 0 0 0 0)
(0 3.78495e-15 0 8.13152e-14 -1.83847e-14 0 0 0 0)
(0 1.55012e-14 0 5.42101e-14 -1.10219e-14 0 0 0 0)
(0 -6.29083e-15 0 5.42101e-14 -1.1576e-14 0 0 0 0)
(0 -8.80097e-15 0 0 -1.40031e-14 0 0 0 0)
(0 4.68785e-15 0 0 -7.75066e-15 0 0 0 0)
(0 1.3342e-14 0 0 -1.33321e-14 0 0 0 0)
(5.42101e-14 2.60846e-15 0 0 -1.12983e-14 0 0 0 0)
(2.08709e-12 -6.32281e-13 0 1.02999e-12 3.61807e-13 0 0 0 0)
(-2.35814e-12 7.43935e-13 0 -1.35525e-13 2.17306e-14 0 0 0 0)
(4.60786e-13 -1.54593e-13 0 1.89735e-13 -3.80516e-15 0 0 0 0)
(-1.6263e-13 4.95819e-14 0 5.42101e-14 -1.12129e-15 0 0 0 0)
(2.71051e-14 1.00629e-14 0 2.71051e-14 -1.0303e-14 0 0 0 0)
(0 6.5386e-15 0 5.42101e-14 -1.32741e-14 0 0 0 0)
(0 6.05664e-16 0 2.71051e-14 -2.08987e-14 0 0 0 0)
(0 4.0365e-15 0 0 -2.47968e-14 0 0 0 0)
(0 -3.85055e-15 0 5.42101e-14 -1.73867e-14 0 0 0 0)
(0 -4.83255e-16 0 5.42101e-14 9.36366e-16 0 0 0 0)
(0 -1.79182e-15 0 2.71051e-14 1.68466e-14 0 0 0 0)
(0 -2.2987e-14 0 1.35525e-13 1.73511e-14 0 0 0 0)
(-5.42101e-14 -2.22659e-14 0 1.0842e-13 1.87542e-14 0 0 0 0)
(0 2.42116e-15 0 2.71051e-14 1.22947e-14 0 0 0 0)
(2.71051e-14 7.71894e-15 0 0 -1.32352e-14 0 0 0 0)
(2.71051e-14 -6.86548e-15 0 5.42101e-14 -1.3892e-14 0 0 0 0)
(0 1.20743e-16 0 5.42101e-14 6.82367e-15 0 0 0 0)
(-2.71051e-14 7.85373e-15 0 5.42101e-14 1.57559e-14 0 0 0 0)
(0 4.73763e-15 0 -2.71051e-14 8.20743e-15 0 0 0 0)
(-2.71051e-14 7.50592e-15 0 2.71051e-14 1.73592e-16 0 0 0 0)
(-1.46367e-12 9.4336e-13 0 -1.51788e-12 -4.70689e-13 0 0 0 0)
(1.70762e-12 -1.06745e-12 0 2.71051e-13 8.67877e-14 0 0 0 0)
(-3.25261e-13 1.73519e-13 0 -1.6263e-13 9.25968e-15 0 0 0 0)
(8.13152e-14 -3.38302e-14 0 -5.42101e-14 2.33901e-14 0 0 0 0)
(-5.42101e-14 1.67923e-16 0 -8.13152e-14 2.68699e-15 0 0 0 0)
(0 -1.31418e-14 0 0 -7.89929e-15 0 0 0 0)
(0 -4.13044e-15 0 -1.0842e-13 -1.80334e-14 0 0 0 0)
(5.42101e-14 5.62633e-15 0 -8.13152e-14 -3.06208e-14 0 0 0 0)
(5.42101e-14 1.30235e-14 0 -5.42101e-14 -2.72104e-14 0 0 0 0)
(0 1.34663e-14 0 -5.42101e-14 -1.49237e-14 0 0 0 0)
(0 1.32195e-15 0 -5.42101e-14 -1.72347e-14 0 0 0 0)
(8.13152e-14 -7.45633e-15 0 -2.71051e-14 -5.29568e-15 0 0 0 0)
(-5.42101e-14 -1.82576e-14 0 0 1.71157e-14 0 0 0 0)
(-5.42101e-14 -2.82044e-14 0 2.71051e-14 1.51439e-14 0 0 0 0)
(2.71051e-14 -1.06856e-14 0 2.71051e-14 -6.51139e-15 0 0 0 0)
(0 1.3768e-14 0 0 -9.30528e-16 0 0 0 0)
(-5.42101e-14 2.08469e-14 0 -5.42101e-14 1.29324e-14 0 0 0 0)
(0 6.07162e-15 0 0 5.81588e-15 0 0 0 0)
(0 -2.24032e-15 0 0 8.36741e-16 0 0 0 0)
(0 -5.77256e-15 0 -2.71051e-14 8.9819e-16 0 0 0 0)
(8.40257e-13 -1.01618e-12 0 8.94467e-13 -3.62959e-13 0 0 0 0)
(-9.75782e-13 1.22388e-12 0 -1.35525e-13 4.06604e-14 0 0 0 0)
(1.6263e-13 -2.17991e-13 0 5.42101e-14 9.54466e-15 0 0 0 0)
(-1.0842e-13 4.30092e-14 0 5.42101e-14 9.31469e-15 0 0 0 0)
(8.13152e-14 -2.12265e-14 0 5.42101e-14 1.00311e-15 0 0 0 0)
(-5.42101e-14 -1.41818e-14 0 0 6.35332e-15 0 0 0 0)
(-2.71051e-14 -2.21158e-14 0 2.71051e-14 4.18548e-15 0 0 0 0)
(2.71051e-14 -5.14055e-15 0 2.71051e-14 -7.50417e-15 0 0 0 0)
(-2.71051e-14 1.18465e-14 0 0 -1.37692e-14 0 0 0 0)
(2.71051e-14 9.49243e-15 0 0 -2.61839e-14 0 0 0 0)
(5.42101e-14 7.83617e-15 0 0 -2.96994e-14 0 0 0 0)
(0 1.13634e-14 0 -5.42101e-14 -2.5417e-14 0 0 0 0)
(2.71051e-14 -1.82632e-15 0 0 -1.36457e-14 0 0 0 0)
(0 -2.1206e-14 0 -2.71051e-14 -5.2195e-16 0 0 0 0)
(0 -8.35549e-15 0 0 1.19131e-14 0 0 0 0)
(-2.71051e-14 1.25783e-14 0 -2.71051e-14 1.58576e-14 0 0 0 0)
(-5.42101e-14 6.86715e-15 0 0 1.24489e-14 0 0 0 0)
(5.42101e-14 -4.24195e-15 0 0 -1.12637e-14 0 0 0 0)
(0 -1.80057e-16 0 2.71051e-14 -1.00563e-14 0 0 0 0)
(0 5.77099e-15 0 2.71051e-14 -8.68419e-15 0 0 0 0)
(-7.04731e-13 6.21061e-13 0 -8.40257e-13 1.27649e-12 0 0 0 0)
(8.67362e-13 -6.94948e-13 0 1.6263e-13 -2.05261e-13 0 0 0 0)
(-2.1684e-13 1.42173e-13 0 -5.42101e-14 3.79748e-14 0 0 0 0)
(1.0842e-13 -4.23717e-14 0 5.42101e-14 -1.5851e-14 0 0 0 0)
(-5.42101e-14 -2.79345e-15 0 2.71051e-14 3.79763e-15 0 0 0 0)
(2.71051e-14 -9.95943e-15 0 2.71051e-14 1.04276e-14 0 0 0 0)
(0 -1.79879e-14 0 1.0842e-13 3.95258e-15 0 0 0 0)
(-2.71051e-14 -1.23283e-14 0 8.13152e-14 -1.69341e-15 0 0 0 0)
(2.71051e-14 -5.65623e-15 0 2.71051e-14 -1.66888e-15 0 0 0 0)
(2.71051e-14 -2.464e-15 0 2.71051e-14 1.76104e-15 0 0 0 0)
(-5.42101e-14 2.08885e-15 0 2.71051e-14 4.74106e-15 0 0 0 0)
(2.71051e-14 8.5974e-15 0 0 1.16022e-15 0 0 0 0)
(2.71051e-14 6.63751e-15 0 -2.71051e-14 -1.27413e-14 0 0 0 0)
(-2.71051e-14 -2.64563e-15 0 0 -5.59737e-15 0 0 0 0)
(0 5.69393e-15 0 -2.71051e-14 1.4637e-14 0 0 0 0)
(-2.71051e-14 1.43038e-14 0 -2.71051e-14 1.28473e-14 0 0 0 0)
(0 -6.27438e-15 0 0 7.41138e-15 0 0 0 0)
(2.71051e-14 -1.64335e-14 0 0 -4.94078e-16 0 0 0 0)
(0 3.39209e-16 0 -2.71051e-14 9.27343e-16 0 0 0 0)
(-2.71051e-14 1.29679e-14 0 0 7.74506e-16 0 0 0 0)
(1.35525e-13 5.50467e-14 0 4.87891e-13 2.29514e-13 0 0 0 0)
(-1.89735e-13 -1.4632e-14 0 -2.1684e-13 -1.80721e-13 0 0 0 0)
(8.13152e-14 -2.85808e-14 0 -2.71051e-14 -7.63776e-15 0 0 0 0)
(0 8.83202e-15 0 -2.71051e-14 -4.40686e-14 0 0 0 0)
(2.71051e-14 5.05208e-15 0 -2.71051e-14 -9.3041e-15 0 0 0 0)
(0 -1.40268e-14 0 0 -2.72909e-15 0 0 0 0)
(-2.71051e-14 -3.42368e-14 0 0 6.27515e-15 0 0 0 0)
(0 -1.0762e-14 0 -2.71051e-14 6.62073e-15 0 0 0 0)
(0 1.5301e-14 0 -2.71051e-14 -2.29262e-15 0 0 0 0)
(-2.71051e-14 1.59024e-14 0 -2.71051e-14 4.39454e-15 0 0 0 0)
(2.71051e-14 7.23535e-15 0 -8.13152e-14 9.77636e-15 0 0 0 0)
(-8.13152e-14 -6.11896e-15 0 0 1.67562e-14 0 0 0 0)
(5.42101e-14 -8.58391e-15 0 -8.13152e-14 -1.8331e-15 0 0 0 0)
(0 6.17236e-15 0 -8.13152e-14 4.18643e-15 0 0 0 0)
(0 1.00892e-14 0 -8.13152e-14 1.07237e-14 0 0 0 0)
(0 5.35273e-15 0 -8.13152e-14 -5.91845e-15 0 0 0 0)
(2.71051e-14 -6.4742e-15 0 0 -2.6352e-14 0 0 0 0)
(-2.71051e-14 -1.0726e-14 0 0 -4.47263e-15 0 0 0 0)
(0 1.08853e-15 0 0 3.75201e-15 0 0 0 0)
(0 4.06914e-15 0 -2.71051e-14 1.76807e-15 0 0 0 0)
(-4.33681e-13 6.69854e-13 0 5.14996e-13 -3.62455e-12 0 0 0 0)
(3.52366e-13 -9.321e-13 0 0 6.67442e-13 0 0 0 0)
(0 2.78826e-13 0 1.35525e-13 -1.85886e-13 0 0 0 0)
(8.13152e-14 -4.40381e-14 0 2.71051e-14 1.29166e-14 0 0 0 0)
(0 3.8546e-14 0 0 -2.2362e-14 0 0 0 0)
(0 5.61983e-15 0 2.71051e-14 -1.71857e-14 0 0 0 0)
(2.71051e-14 -8.63811e-15 0 -2.71051e-14 1.47506e-14 0 0 0 0)
(-8.13152e-14 -2.08961e-14 0 5.42101e-14 3.34051e-14 0 0 0 0)
(0 -7.88242e-15 0 2.71051e-14 1.17938e-14 0 0 0 0)
(0 9.60499e-15 0 2.71051e-14 -3.56456e-15 0 0 0 0)
(-2.71051e-14 1.44506e-14 0 5.42101e-14 -7.27949e-15 0 0 0 0)
(2.71051e-14 -3.01206e-15 0 0 -7.00853e-15 0 0 0 0)
(0 -5.93231e-15 0 8.13152e-14 3.82056e-15 0 0 0 0)
(-2.71051e-14 9.91122e-15 0 5.42101e-14 4.1652e-15 0 0 0 0)
(0 -4.41095e-15 0 2.71051e-14 -7.44419e-15 0 0 0 0)
(2.71051e-14 -2.27719e-14 0 8.13152e-14 -1.29563e-14 0 0 0 0)
(5.42101e-14 -4.82856e-15 0 0 -1.979e-14 0 0 0 0)
(0 1.36704e-14 0 2.71051e-14 -4.38476e-15 0 0 0 0)
(0 6.57991e-15 0 0 -1.12424e-15 0 0 0 0)
(0 7.44784e-15 0 2.71051e-14 -4.56827e-15 0 0 0 0)
(6.50521e-13 -2.90206e-12 0 -2.98156e-13 2.6281e-12 0 0 0 0)
(-5.96311e-13 3.42403e-12 0 5.42101e-14 -3.95889e-13 0 0 0 0)
(1.0842e-13 -6.83106e-13 0 -5.42101e-14 1.36164e-13 0 0 0 0)
(-1.0842e-13 1.72356e-13 0 -5.42101e-14 8.39177e-15 0 0 0 0)
(0 -2.50503e-14 0 0 7.846e-15 0 0 0 0)
(0 2.30857e-14 0 -5.42101e-14 -5.10401e-15 0 0 0 0)
(0 1.6354e-14 0 -2.71051e-14 -2.08596e-14 0 0 0 0)
(2.71051e-14 -1.37188e-14 0 -5.42101e-14 -1.28199e-14 0 0 0 0)
(0 -2.16687e-14 0 -2.71051e-14 1.37553e-14 0 0 0 0)
(-2.71051e-14 -3.17094e-15 0 -2.71051e-14 1.67312e-14 0 0 0 0)
(0 3.79138e-15 0 0 7.32125e-15 0 0 0 0)
(0 4.98109e-15 0 0 -1.51076e-15 0 0 0 0)
(0 2.58982e-15 0 -2.71051e-14 5.35222e-15 0 0 0 0)
(0 -5.0924e-15 0 0 1.83173e-15 0 0 0 0)
(0 -7.03238e-15 0 5.42101e-14 5.33409e-16 0 0 0 0)
(0 -6.99305e-15 0 0 1.32751e-14 0 0 0 0)
(-2.71051e-14 2.09738e-15 0 0 3.02984e-14 0 0 0 0)
(-2.71051e-14 7.93974e-15 0 -2.71051e-14 1.60062e-14 0 0 0 0)
(2.71051e-14 9.05011e-16 0 0 8.68818e-15 0 0 0 0)
(-2.71051e-14 9.76165e-15 0 -2.71051e-14 8.52132e-15 0 0 0 0)
)
;

boundaryField
{
    movingWall
    {
        type            extrapolatedCalculated;
        value           nonuniform List<tensor> 
20
(
(6.50521e-13 -2.90206e-12 0 -2.9754e-12 1.44318e-11 0 0 0 0)
(-5.96311e-13 3.42403e-12 0 3.55271e-13 -2.82358e-12 0 0 0 0)
(1.0842e-13 -6.83106e-13 0 -4.88498e-13 7.35697e-13 0 0 0 0)
(-1.0842e-13 1.72356e-13 0 -1.33227e-13 -9.11556e-14 0 0 0 0)
(0 -2.50503e-14 0 -8.88178e-14 4.6273e-14 0 0 0 0)
(0 2.30857e-14 0 -1.33227e-13 9.04543e-15 0 0 0 0)
(0 1.6354e-14 0 -4.44089e-14 -4.607e-14 0 0 0 0)
(2.71051e-14 -1.37188e-14 0 -1.33227e-13 -5.63707e-14 0 0 0 0)
(0 -2.16687e-14 0 -2.22045e-13 8.8051e-15 0 0 0 0)
(-2.71051e-14 -3.17094e-15 0 -8.88178e-14 3.03041e-14 0 0 0 0)
(0 3.79138e-15 0 -1.33227e-13 2.14889e-14 0 0 0 0)
(0 4.98109e-15 0 -8.88178e-14 1.51386e-14 0 0 0 0)
(0 2.58982e-15 0 -1.77636e-13 1.56451e-15 0 0 0 0)
(0 -5.0924e-15 0 -8.88178e-14 4.77929e-15 0 0 0 0)
(0 -7.03238e-15 0 -4.44089e-14 2.19341e-14 0 0 0 0)
(0 -6.99305e-15 0 -1.33227e-13 3.29088e-14 0 0 0 0)
(-2.71051e-14 2.09738e-15 0 -8.88178e-14 4.99063e-14 0 0 0 0)
(-2.71051e-14 7.93974e-15 0 -4.44089e-14 2.45193e-14 0 0 0 0)
(2.71051e-14 9.05011e-16 0 0 1.81474e-14 0 0 0 0)
(-2.71051e-14 9.76165e-15 0 -8.88178e-14 2.08992e-14 0 0 0 0)
)
;
    }
    fixedWalls
    {
        type            extrapolatedCalculated;
        value           nonuniform List<tensor> 
60
(
(-3.73035e-12 1.29678e-11 0 2.1684e-13 8.19419e-12 0 0 0 0)
(4.66294e-12 1.9809e-11 0 -2.98156e-13 -1.16236e-11 0 0 0 0)
(-4.9738e-12 -3.35268e-11 0 5.14996e-13 -4.33489e-13 0 0 0 0)
(6.75016e-12 1.8075e-11 0 -1.32815e-12 7.58988e-12 0 0 0 0)
(-1.03029e-11 -3.16727e-12 0 1.5992e-12 -5.07825e-12 0 0 0 0)
(1.3145e-11 -2.23798e-12 0 -5.69206e-13 1.73608e-12 0 0 0 0)
(-1.26121e-11 3.77707e-12 0 -1.0571e-12 -4.95374e-13 0 0 0 0)
(8.79297e-12 -4.21947e-12 0 1.02999e-12 -3.21195e-14 0 0 0 0)
(-8.34888e-12 3.64859e-12 0 4.33681e-13 2.68287e-13 0 0 0 0)
(1.04805e-11 -3.14633e-12 0 -5.14996e-13 3.30032e-14 0 0 0 0)
(-1.03917e-11 3.78061e-12 0 -8.13152e-14 -1.47782e-13 0 0 0 0)
(1.02141e-11 -3.73746e-12 0 -2.1684e-13 -1.93653e-13 0 0 0 0)
(-1.12799e-11 3.006e-12 0 0 1.45156e-13 0 0 0 0)
(1.02585e-11 -3.15683e-12 0 1.02999e-12 3.61807e-13 0 0 0 0)
(-7.19425e-12 4.45322e-12 0 -1.51788e-12 -4.70689e-13 0 0 0 0)
(4.26326e-12 -5.03959e-12 0 8.94467e-13 -3.62959e-13 0 0 0 0)
(-3.73035e-12 3.00139e-12 0 -8.40257e-13 1.27649e-12 0 0 0 0)
(8.43769e-13 6.63747e-14 0 4.87891e-13 2.29514e-13 0 0 0 0)
(-1.77636e-12 3.91944e-12 0 5.14996e-13 -3.62455e-12 0 0 0 0)
(2.9754e-12 -1.44318e-11 0 -2.98156e-13 2.6281e-12 0 0 0 0)
(0 -1.42618e-15 0 0 -6.88654e-15 0 0 0 0)
(8.88178e-14 2.89723e-14 0 0 -1.7528e-14 0 0 0 0)
(0 6.86856e-14 0 0 -5.80247e-15 0 0 0 0)
(0 5.21822e-14 0 2.71051e-14 1.32679e-14 0 0 0 0)
(-8.88178e-14 1.56139e-14 0 2.71051e-14 1.95905e-14 0 0 0 0)
(-8.88178e-14 -2.61798e-14 0 -2.71051e-14 9.17235e-15 0 0 0 0)
(0 -2.10755e-14 0 0 -3.90503e-15 0 0 0 0)
(-8.88178e-14 -1.05597e-14 0 0 9.12814e-16 0 0 0 0)
(0 -2.47267e-14 0 -2.71051e-14 3.47788e-15 0 0 0 0)
(0 -2.44712e-14 0 0 -1.19719e-15 0 0 0 0)
(-4.44089e-14 -1.9938e-14 0 0 2.85124e-15 0 0 0 0)
(0 -3.58762e-14 0 0 -1.53847e-15 0 0 0 0)
(8.88178e-14 -1.37841e-14 0 0 -1.12983e-14 0 0 0 0)
(-4.44089e-14 9.31694e-15 0 2.71051e-14 1.73592e-16 0 0 0 0)
(0 -1.44785e-14 0 -2.71051e-14 8.9819e-16 0 0 0 0)
(0 5.72418e-15 0 2.71051e-14 -8.68419e-15 0 0 0 0)
(-4.44089e-14 2.02583e-14 0 0 7.74506e-16 0 0 0 0)
(0 2.62616e-15 0 -2.71051e-14 1.76807e-15 0 0 0 0)
(0 1.3186e-14 0 2.71051e-14 -4.56827e-15 0 0 0 0)
(-8.88178e-14 2.08992e-14 0 -2.71051e-14 8.52132e-15 0 0 0 0)
(-5.69206e-13 2.6199e-12 0 -3.73035e-12 1.29678e-11 0 0 0 0)
(1.00289e-12 -3.07744e-12 0 1.5099e-12 -2.48819e-12 0 0 0 0)
(-2.71051e-13 6.02603e-13 0 2.22045e-13 6.58038e-13 0 0 0 0)
(2.71051e-14 -1.56213e-13 0 3.9968e-13 -7.77762e-14 0 0 0 0)
(0 2.77721e-14 0 3.10862e-13 3.31864e-14 0 0 0 0)
(0 3.4385e-15 0 3.55271e-13 3.3312e-14 0 0 0 0)
(-5.42101e-14 -6.93766e-15 0 3.10862e-13 4.69404e-14 0 0 0 0)
(-2.71051e-14 -1.24421e-14 0 2.22045e-13 5.56135e-15 0 0 0 0)
(2.71051e-14 3.51312e-15 0 2.66454e-13 -2.82783e-15 0 0 0 0)
(-2.71051e-14 7.55067e-15 0 2.66454e-13 1.96138e-14 0 0 0 0)
(-2.71051e-14 -3.74724e-15 0 1.77636e-13 2.73748e-14 0 0 0 0)
(0 8.91581e-16 0 1.77636e-13 4.62488e-15 0 0 0 0)
(0 1.01448e-14 0 1.77636e-13 3.09412e-14 0 0 0 0)
(-2.71051e-14 2.43828e-16 0 1.77636e-13 4.52043e-14 0 0 0 0)
(-2.71051e-14 -3.66374e-15 0 8.88178e-14 3.19165e-14 0 0 0 0)
(-2.71051e-14 -7.43932e-15 0 0 3.05493e-14 0 0 0 0)
(2.71051e-14 -5.64892e-15 0 4.44089e-14 2.15919e-15 0 0 0 0)
(-2.71051e-14 -1.12636e-15 0 0 7.95361e-15 0 0 0 0)
(0 -1.63186e-15 0 -8.88178e-14 -2.34624e-15 0 0 0 0)
(0 2.30015e-16 0 0 1.42618e-15 0 0 0 0)
)
;
    }
    frontAndBack
    {
        type            empty;
    }
}


// ************************************************************************* //
