/*--------------------------------*- C++ -*----------------------------------*\
| =========                 |                                                 |
| \\      /  F ield         | OpenFOAM: The Open Source CFD Toolbox           |
|  \\    /   O peration     | Version:  2506                                  |
|   \\  /    A nd           | Website:  www.openfoam.com                      |
|    \\/     M anipulation  |                                                 |
\*---------------------------------------------------------------------------*/
FoamFile
{
    version     2.0;
    format      ascii;
    arch        "LSB;label=32;scalar=64";
    class       volVectorField;
    location    "5.25";
    object      LambVectorField;
}
// * * * * * * * * * * * * * * * * * * * * * * * * * * * * * * * * * * * * * //

dimensions      [0 1 -2 0 0 0 0];

internalField   nonuniform List<vector> 
400
(
(-7.79058e-26 -2.40306e-12 0)
(-1.89745e-26 3.05033e-12 -0)
(-9.9134e-28 -6.02603e-13 0)
(-3.56445e-29 1.83318e-13 -0)
(2.19346e-30 2.64381e-14 0)
(1.97095e-30 2.36665e-14 0)
(7.17575e-30 6.11478e-14 0)
(9.2669e-31 6.66522e-14 0)
(-1.66785e-31 2.35919e-14 -0)
(9.58841e-31 1.95544e-14 0)
(2.5645e-31 3.74724e-15 0)
(-1.03086e-32 -8.91581e-16 0)
(-7.84733e-31 -1.01448e-14 0)
(3.0356e-30 2.68612e-14 0)
(2.45508e-30 3.07688e-14 0)
(2.63826e-30 3.45444e-14 0)
(1.76805e-31 3.2754e-14 0)
(2.23965e-32 1.12636e-15 0)
(3.08403e-31 -5.25783e-14 -0)
(-8.20107e-34 -2.30015e-16 0)
(-2.07286e-25 -4.18569e-12 0)
(-4.79816e-26 4.50653e-12 -0)
(-3.16548e-27 -1.23661e-12 0)
(-7.32498e-29 1.62971e-13 -0)
(-2.39065e-29 -2.04417e-13 0)
(5.05253e-30 -1.59905e-13 -0)
(-1.28082e-29 -1.42797e-13 0)
(-4.22774e-30 -1.02816e-13 0)
(-3.89753e-30 -1.15813e-13 0)
(-1.38178e-29 -1.20105e-13 0)
(-1.10436e-29 -7.3381e-14 0)
(-2.20679e-30 -6.18036e-14 0)
(3.48529e-30 -7.81126e-14 -0)
(-3.38504e-31 -9.19571e-14 0)
(-5.99866e-30 -9.70646e-14 0)
(-5.87358e-30 -3.64422e-14 0)
(-3.28639e-30 -2.1179e-14 0)
(2.23295e-30 2.19101e-14 0)
(-4.58016e-30 7.16446e-14 -0)
(9.87664e-31 -1.3636e-14 -0)
(-5.99087e-25 7.14756e-12 -0)
(-1.37724e-25 -7.87383e-12 0)
(-7.59584e-27 1.9016e-12 -0)
(-3.47732e-28 -3.80126e-13 0)
(-3.63791e-29 1.88311e-13 -0)
(-1.17172e-29 7.55095e-14 -0)
(1.46192e-30 -1.08186e-14 -0)
(-1.93657e-30 4.12129e-14 -0)
(-7.51907e-32 1.45796e-14 -0)
(1.40698e-30 1.79771e-14 0)
(7.39165e-30 8.58269e-14 0)
(3.47007e-30 1.04685e-13 0)
(-7.56541e-30 5.12657e-14 -0)
(5.94277e-31 -2.85081e-15 -0)
(2.6862e-30 -2.25609e-14 -0)
(-1.43689e-30 -8.3785e-14 0)
(-1.24152e-29 -7.02675e-14 0)
(5.0148e-30 2.82168e-14 0)
(-6.54516e-30 6.20488e-14 -0)
(4.75988e-30 -2.77198e-14 -0)
(-2.22351e-25 -4.92062e-12 0)
(-4.2589e-26 4.59783e-12 -0)
(-1.99654e-27 -9.11322e-13 0)
(-1.45402e-28 3.45639e-13 -0)
(6.8834e-30 7.67545e-14 0)
(-1.33941e-29 1.28767e-13 -0)
(-9.02711e-30 7.93323e-14 -0)
(-6.43714e-30 7.64606e-14 -0)
(-4.73805e-30 7.26214e-14 -0)
(2.86301e-31 1.04157e-13 0)
(-1.34843e-30 5.96386e-14 -0)
(-3.01888e-31 5.85784e-15 -0)
(-4.92187e-30 6.06228e-14 -0)
(6.45702e-31 -5.58263e-15 -0)
(4.14481e-31 -1.63425e-14 -0)
(-7.54644e-31 -1.58e-14 0)
(-3.53299e-30 -2.66364e-14 0)
(9.95845e-31 2.31186e-14 0)
(-1.71012e-30 1.73531e-14 -0)
(-5.48523e-31 4.20467e-15 -0)
(-1.7408e-26 2.19848e-12 -0)
(-2.25511e-27 -1.17128e-12 0)
(-7.09036e-29 2.6156e-13 -0)
(-3.41793e-30 -2.78154e-14 0)
(1.34537e-31 1.90187e-14 0)
(2.44667e-30 -3.63506e-14 -0)
(-1.05565e-30 6.15464e-15 -0)
(1.31117e-29 -1.01756e-13 -0)
(-3.72317e-30 -1.13198e-13 0)
(-1.4164e-29 -7.45576e-14 0)
(-5.61861e-30 -2.37708e-14 0)
(7.67165e-30 4.89788e-14 0)
(2.856e-31 1.62018e-14 0)
(-2.76809e-31 5.13977e-14 -0)
(2.22944e-30 4.87291e-14 0)
(5.26125e-31 1.06451e-14 0)
(-6.47215e-30 1.06627e-13 -0)
(-6.04515e-30 2.96773e-14 -0)
(-9.19429e-31 1.06389e-14 -0)
(-5.68326e-31 1.45595e-14 -0)
(6.68352e-28 -1.19456e-13 -0)
(-3.71064e-28 -3.38114e-13 0)
(-2.74533e-29 8.67533e-14 -0)
(2.31305e-30 -5.62324e-14 -0)
(-3.68818e-32 1.46479e-15 -0)
(-3.55193e-30 6.36757e-14 -0)
(-6.06151e-31 5.05822e-15 -0)
(1.40393e-30 -1.31993e-14 -0)
(4.92508e-31 4.05088e-14 0)
(-1.12274e-31 -3.66322e-15 0)
(-3.84099e-31 -7.87244e-15 0)
(2.32389e-30 2.12473e-14 0)
(6.32336e-30 5.88944e-14 0)
(3.95066e-30 6.31799e-14 0)
(1.18432e-30 6.70237e-14 0)
(-8.55946e-30 1.30469e-13 -0)
(-1.83843e-29 9.06433e-14 -0)
(2.49361e-30 -1.56942e-14 -0)
(1.02921e-30 -2.24337e-14 -0)
(-1.64592e-30 -2.51479e-14 0)
(-1.76818e-26 -1.87254e-12 0)
(-1.44497e-27 1.12165e-12 -0)
(-3.18206e-29 -2.57628e-13 0)
(5.03202e-30 -7.48522e-14 -0)
(-6.98147e-30 -1.18563e-13 0)
(-1.63284e-30 -4.77479e-14 0)
(3.03917e-31 -5.2972e-14 -0)
(-9.94566e-32 -4.55898e-15 0)
(-1.98595e-30 -4.98327e-14 0)
(9.78006e-31 -4.45383e-14 -0)
(7.33025e-32 -1.28905e-15 -0)
(6.17785e-31 -6.81264e-14 -0)
(-5.07898e-31 -6.17152e-15 0)
(1.96028e-31 3.72345e-15 0)
(2.87205e-31 6.37346e-15 0)
(-4.19178e-31 3.7806e-14 -0)
(1.63068e-30 -2.63239e-14 -0)
(6.71516e-31 -3.55324e-14 -0)
(-7.65016e-31 -3.42638e-14 0)
(3.95249e-31 7.50159e-15 0)
(-2.00239e-26 1.89823e-12 -0)
(-2.21708e-27 -1.18797e-12 0)
(-1.52854e-28 2.69904e-13 -0)
(8.57659e-31 -4.37209e-14 -0)
(3.00727e-30 -2.32909e-14 -0)
(5.08173e-30 -8.79832e-14 -0)
(2.09718e-30 -3.35888e-14 -0)
(-6.69447e-31 -9.45643e-14 0)
(-2.03432e-30 -2.90388e-14 0)
(-4.64623e-31 -1.75879e-14 0)
(3.34986e-31 -1.33373e-14 -0)
(-6.33313e-31 5.69215e-15 -0)
(2.77882e-30 -3.38723e-14 -0)
(1.67433e-30 -3.84123e-14 -0)
(-2.11386e-30 -6.81126e-14 0)
(-2.5764e-30 -2.69959e-14 0)
(2.0666e-31 6.90167e-15 0)
(-1.59287e-31 -6.02904e-15 0)
(-2.44561e-30 -2.7103e-14 0)
(3.07902e-31 1.16633e-14 0)
(-2.29561e-27 -2.5167e-13 0)
(-1.98538e-27 8.75396e-13 -0)
(-8.10813e-29 -1.26972e-13 0)
(-3.83027e-29 2.06928e-13 -0)
(-6.73652e-30 8.92868e-14 -0)
(6.17474e-31 9.9076e-14 0)
(1.57647e-30 8.76105e-14 0)
(-2.42041e-30 4.2672e-14 -0)
(-1.39301e-29 1.01181e-13 -0)
(-2.34457e-29 9.1808e-14 -0)
(-5.98918e-30 2.4687e-14 -0)
(-4.53983e-30 1.96362e-14 -0)
(3.08974e-30 -1.84006e-14 -0)
(1.9289e-30 -4.08742e-14 -0)
(1.95879e-30 -6.48095e-14 -0)
(-4.1757e-30 -7.10121e-14 0)
(-9.12052e-30 -6.61886e-14 0)
(1.62536e-31 9.10118e-16 0)
(1.50278e-30 1.16771e-14 0)
(-4.97866e-31 -8.0539e-15 0)
(-1.14449e-28 1.45502e-14 -0)
(-2.19112e-27 -8.5246e-13 0)
(-2.14398e-29 1.38883e-13 -0)
(-2.45566e-29 -6.66626e-14 0)
(8.98478e-30 3.72499e-14 0)
(1.77925e-29 6.66576e-14 0)
(1.25882e-29 1.07842e-13 0)
(2.17362e-31 1.31388e-13 0)
(-8.12835e-30 7.19634e-14 -0)
(-1.09385e-29 6.21931e-14 -0)
(1.07133e-30 -5.55725e-15 -0)
(-2.01297e-30 1.6732e-14 -0)
(4.04785e-30 -4.54554e-14 -0)
(-6.4091e-31 -1.01415e-14 0)
(1.13211e-30 9.15649e-14 0)
(3.67344e-31 -9.34692e-15 -0)
(-1.69263e-30 -1.59934e-14 0)
(5.84625e-31 4.84633e-15 0)
(3.4109e-31 5.94545e-15 0)
(7.25253e-31 1.18548e-14 0)
(-7.63333e-27 -8.0763e-13 0)
(-2.17522e-27 9.93993e-13 -0)
(-9.6029e-29 -1.61181e-13 0)
(-1.73254e-30 5.02778e-14 -0)
(-4.47671e-31 -4.81333e-15 0)
(7.47872e-32 5.46933e-15 0)
(-1.00148e-30 -2.61392e-14 0)
(7.71674e-32 1.92177e-14 0)
(1.32098e-30 -8.58538e-15 -0)
(9.10382e-30 -5.0247e-14 -0)
(1.77301e-29 -9.16306e-14 -0)
(5.92174e-30 -7.58934e-14 -0)
(-1.80446e-30 -7.73175e-14 0)
(-1.40969e-29 -9.21081e-14 0)
(-2.41356e-30 -1.83866e-14 0)
(2.84122e-31 4.31385e-15 0)
(4.27459e-31 4.8504e-15 0)
(5.94032e-32 3.42206e-15 0)
(1.28605e-30 2.38565e-14 0)
(5.17156e-31 1.03753e-14 0)
(-4.56285e-27 4.88338e-13 -0)
(-2.06546e-27 -9.01215e-13 0)
(-4.44338e-29 1.34043e-13 -0)
(-3.93838e-29 -9.6216e-14 0)
(3.75845e-30 4.2435e-14 0)
(1.30274e-30 -8.67163e-14 -0)
(-1.84436e-29 -1.29355e-13 0)
(-8.21504e-30 -4.22746e-14 0)
(-1.34045e-30 -5.77133e-14 0)
(1.80355e-30 -4.32578e-14 -0)
(2.51178e-30 -2.91062e-14 -0)
(2.08811e-30 -9.63072e-14 -0)
(-2.08376e-30 -3.27514e-14 0)
(5.23608e-32 1.50541e-15 0)
(-2.67716e-30 -5.51203e-14 0)
(-2.20848e-30 -5.03258e-14 0)
(3.60335e-32 3.70456e-15 0)
(-4.19801e-31 -6.13929e-14 0)
(-6.75699e-31 -8.28525e-15 0)
(1.5359e-30 1.71245e-14 0)
(-4.20706e-27 -5.59823e-13 0)
(-1.24135e-27 6.4763e-13 -0)
(-1.37895e-28 -2.77686e-13 0)
(-1.26178e-30 -2.68778e-14 0)
(-1.48539e-29 -6.65308e-14 0)
(-8.79075e-30 -5.1664e-14 0)
(9.26063e-30 4.68178e-14 0)
(-5.16057e-31 -2.11434e-15 0)
(1.46517e-29 6.69198e-14 0)
(8.77072e-30 7.49771e-14 0)
(1.39253e-30 1.23513e-13 0)
(-1.23808e-30 3.6469e-14 -0)
(-3.31981e-30 4.03063e-14 -0)
(-1.2867e-29 7.75302e-14 -0)
(-1.72313e-30 3.87089e-14 -0)
(-6.62464e-31 6.05009e-14 -0)
(-9.4543e-31 8.80097e-15 -0)
(4.63907e-31 -4.68785e-15 -0)
(8.07787e-31 -1.3342e-14 -0)
(-8.98882e-32 -2.60846e-15 0)
(-1.31188e-26 1.66227e-12 -0)
(-1.38011e-27 -8.7946e-13 0)
(-1.55887e-28 3.44329e-13 -0)
(1.07983e-31 4.62822e-15 0)
(7.34363e-31 1.70422e-14 0)
(5.90938e-30 4.76715e-14 0)
(2.87457e-30 2.64994e-14 0)
(-5.24814e-31 -4.0365e-15 0)
(8.64186e-30 5.80607e-14 0)
(5.00508e-30 5.46934e-14 0)
(4.16142e-30 2.88969e-14 0)
(1.16655e-29 1.58512e-13 0)
(-1.12208e-29 1.30686e-13 -0)
(-3.67952e-30 2.46839e-14 -0)
(4.75867e-31 -7.71894e-15 -0)
(-4.38987e-30 6.10756e-14 -0)
(-7.04807e-30 5.40894e-14 -0)
(-3.27594e-30 4.63564e-14 -0)
(1.64839e-30 -3.18427e-14 -0)
(-4.5651e-31 1.95991e-14 -0)
(-2.74012e-26 -2.46124e-12 0)
(-2.27472e-27 1.3385e-12 -0)
(-1.54136e-28 -3.36149e-13 0)
(-7.28219e-31 -2.03799e-14 0)
(-9.79691e-30 -8.14831e-14 0)
(4.91653e-31 1.31418e-14 0)
(1.16654e-30 -1.0429e-13 -0)
(3.38459e-31 -8.69415e-14 -0)
(-3.03074e-30 -6.72336e-14 0)
(-8.55038e-30 -6.76764e-14 0)
(-9.98135e-30 -5.55321e-14 0)
(-2.74221e-30 -1.96487e-14 0)
(1.92028e-30 1.82576e-14 0)
(-2.37908e-30 5.53095e-14 -0)
(-6.68393e-30 3.77907e-14 -0)
(2.06342e-30 -1.3768e-14 -0)
(2.94124e-30 -7.50571e-14 -0)
(-3.55793e-31 -6.07162e-15 0)
(4.82328e-32 2.24032e-15 0)
(-7.72154e-31 -2.13325e-14 0)
(-2.40722e-26 1.91065e-12 -0)
(-3.31307e-27 -1.35941e-12 0)
(-9.80281e-29 2.72201e-13 -0)
(2.88124e-30 1.12009e-14 0)
(5.27761e-30 7.54366e-14 0)
(6.3772e-31 1.41818e-14 0)
(-3.53685e-30 4.92209e-14 -0)
(-5.68137e-30 3.22456e-14 -0)
(1.46023e-30 -1.18465e-14 -0)
(5.4795e-31 -9.49243e-15 -0)
(2.22061e-31 -7.83617e-15 -0)
(-1.35322e-30 -6.55736e-14 0)
(1.55778e-31 1.82632e-15 0)
(-1.40017e-32 -5.89909e-15 0)
(-1.05917e-30 8.35549e-15 -0)
(3.22155e-30 -3.96834e-14 -0)
(6.72914e-33 -6.86715e-15 -0)
(-5.30663e-32 4.24195e-15 -0)
(-1.18416e-30 2.72851e-14 -0)
(-3.053e-31 2.13341e-14 -0)
(-1.09649e-26 -1.46132e-12 0)
(-1.10872e-27 8.57579e-13 -0)
(-1.08792e-28 -1.96383e-13 0)
(1.24474e-29 9.65818e-14 0)
(3.89468e-30 2.98985e-14 0)
(3.74146e-30 3.70645e-14 0)
(3.87684e-30 1.26408e-13 0)
(-7.39172e-30 9.36435e-14 -0)
(-3.03415e-30 3.27613e-14 -0)
(-4.00652e-30 2.95691e-14 -0)
(-2.93325e-30 2.50162e-14 -0)
(9.85335e-31 -8.5974e-15 -0)
(1.05547e-30 -3.37426e-14 -0)
(-1.27608e-31 2.64563e-15 -0)
(1.89369e-30 -3.2799e-14 -0)
(-3.60503e-31 -4.14089e-14 0)
(5.35217e-31 6.27438e-15 0)
(-8.88034e-31 1.64335e-14 -0)
(2.16901e-30 -2.74443e-14 -0)
(6.56771e-31 -1.29679e-14 -0)
(7.18248e-29 4.32844e-13 0)
(-7.77553e-29 -2.02208e-13 0)
(2.8949e-32 1.47572e-15 0)
(-3.5478e-30 -3.59371e-14 0)
(-3.47095e-30 -3.21571e-14 0)
(2.09341e-30 1.40268e-14 0)
(-1.10691e-30 3.42368e-14 -0)
(3.15624e-30 -1.6343e-14 -0)
(5.93477e-30 -4.2406e-14 -0)
(1.72523e-30 -4.30074e-14 -0)
(-1.6889e-30 -8.85505e-14 0)
(1.97269e-31 6.11896e-15 0)
(3.06322e-30 -7.27312e-14 -0)
(4.68935e-30 -8.74875e-14 -0)
(-1.79213e-30 -9.14043e-14 0)
(-4.09864e-30 -8.66679e-14 0)
(4.73484e-31 6.4742e-15 0)
(-1.87176e-31 1.0726e-14 -0)
(3.71471e-32 -1.08853e-15 -0)
(2.04671e-31 -3.11742e-14 -0)
(-1.51739e-27 -1.54858e-13 0)
(-2.88957e-27 9.321e-13 -0)
(-6.84408e-29 -1.43301e-13 0)
(-2.21829e-29 7.11431e-14 -0)
(-1.43478e-30 -3.8546e-14 0)
(1.58247e-30 2.14852e-14 0)
(-1.7252e-30 -1.84669e-14 0)
(-9.55902e-31 7.51062e-14 -0)
(-4.04246e-30 3.49875e-14 -0)
(-1.60216e-30 1.75001e-14 -0)
(-7.74926e-31 3.97596e-14 -0)
(1.59501e-31 3.01206e-15 0)
(-4.32843e-30 8.72475e-14 -0)
(-2.82143e-31 4.42989e-14 -0)
(1.56008e-30 3.1516e-14 0)
(-5.25417e-30 1.04087e-13 -0)
(-8.60536e-31 4.82856e-15 -0)
(-1.32686e-30 1.34346e-14 -0)
(2.73154e-31 -6.57991e-15 -0)
(-6.48001e-31 1.96572e-14 -0)
(-9.39479e-26 2.60391e-12 -0)
(-2.37874e-26 -3.36982e-12 0)
(-1.15669e-27 6.28896e-13 -0)
(-5.16319e-29 -2.26566e-13 0)
(-2.89787e-30 2.50503e-14 -0)
(1.74794e-30 -7.72958e-14 -0)
(-5.0054e-30 -4.34591e-14 0)
(-5.70631e-30 -4.04913e-14 0)
(1.19669e-31 -5.43635e-15 -0)
(1.81325e-30 -2.39341e-14 -0)
(2.03681e-31 -3.79138e-15 -0)
(1.88516e-31 -4.98109e-15 -0)
(1.16145e-31 -2.96949e-14 -0)
(-6.08452e-32 5.0924e-15 -0)
(-3.35825e-30 6.12425e-14 -0)
(-5.75332e-31 6.99305e-15 -0)
(2.61681e-31 -2.09738e-15 -0)
(2.14818e-30 -3.50448e-14 -0)
(4.10589e-32 -9.05011e-16 -0)
(1.92622e-30 -3.68667e-14 -0)
)
;

boundaryField
{
    movingWall
    {
        type            calculated;
        value           nonuniform List<vector> 
20
(
(0 -7.33342e-14 -0)
(0 -3.06876e-12 -0)
(0 1.94608e-13 -0)
(0 -3.05583e-13 -0)
(0 -6.37676e-14 -0)
(0 -1.56313e-13 -0)
(0 -6.0763e-14 -0)
(0 -1.19508e-13 -0)
(0 -2.00376e-13 -0)
(0 -8.56469e-14 -0)
(0 -1.37018e-13 -0)
(0 -9.37989e-14 -0)
(0 -1.80226e-13 -0)
(0 -8.37254e-14 -0)
(0 -3.73765e-14 -0)
(0 -1.26234e-13 -0)
(0 -9.09152e-14 -0)
(0 -5.23487e-14 -0)
(0 -9.05011e-16 -0)
(0 -9.85795e-14 -0)
)
;
    }
    fixedWalls
    {
        type            calculated;
        value           nonuniform List<vector> 
60
(
(0 -1.27509e-11 -0)
(0 -2.01071e-11 -0)
(0 3.40418e-11 -0)
(0 -1.94032e-11 -0)
(0 4.76647e-12 -0)
(0 1.66877e-12 -0)
(0 -4.83417e-12 -0)
(0 5.24947e-12 -0)
(0 -3.21491e-12 -0)
(0 2.63133e-12 -0)
(0 -3.86192e-12 -0)
(0 3.52062e-12 -0)
(0 -3.006e-12 -0)
(0 4.18682e-12 -0)
(0 -5.97111e-12 -0)
(0 5.93405e-12 -0)
(0 -3.84164e-12 -0)
(0 4.21516e-13 -0)
(0 -3.40445e-12 -0)
(0 1.41337e-11 -0)
(0 1.42618e-15 -0)
(0 -2.89723e-14 -0)
(0 -6.86856e-14 -0)
(0 -2.50772e-14 -0)
(0 1.14911e-14 -0)
(0 -9.25259e-16 -0)
(0 2.10755e-14 -0)
(0 1.05597e-14 -0)
(0 -2.37834e-15 -0)
(0 2.44712e-14 -0)
(0 1.9938e-14 -0)
(0 3.58762e-14 -0)
(0 1.37841e-14 -0)
(0 1.77881e-14 -0)
(0 -1.26266e-14 -0)
(0 2.13809e-14 -0)
(0 -2.02583e-14 -0)
(0 -2.97312e-14 -0)
(0 1.3919e-14 -0)
(0 -4.80043e-14 -0)
(0 -6.35025e-12 -0)
(0 4.58734e-12 -0)
(0 -3.80559e-13 -0)
(0 5.55893e-13 -0)
(0 2.8309e-13 -0)
(0 3.51833e-13 -0)
(0 3.178e-13 -0)
(0 2.34487e-13 -0)
(0 2.6294e-13 -0)
(0 2.58903e-13 -0)
(0 1.81383e-13 -0)
(0 1.76744e-13 -0)
(0 1.67491e-13 -0)
(0 1.77392e-13 -0)
(0 9.24816e-14 -0)
(0 7.43932e-15 -0)
(0 5.00578e-14 -0)
(0 1.12636e-15 -0)
(0 -8.7186e-14 -0)
(0 -2.30015e-16 -0)
)
;
    }
    frontAndBack
    {
        type            empty;
    }
}


// ************************************************************************* //
