/*--------------------------------*- C++ -*----------------------------------*\
| =========                 |                                                 |
| \\      /  F ield         | OpenFOAM: The Open Source CFD Toolbox           |
|  \\    /   O peration     | Version:  2506                                  |
|   \\  /    A nd           | Website:  www.openfoam.com                      |
|    \\/     M anipulation  |                                                 |
\*---------------------------------------------------------------------------*/
FoamFile
{
    version     2.0;
    format      ascii;
    arch        "LSB;label=32;scalar=64";
    class       volScalarField;
    location    "5.25";
    object      Lambda2Field;
}
// * * * * * * * * * * * * * * * * * * * * * * * * * * * * * * * * * * * * * //

dimensions      [0 0 -2 0 0 0 0];

internalField   nonuniform List<scalar> 
400
(
8.92095e-25
1.0892e-24
7.34684e-26
-8.80082e-29
1.50553e-27
9.32009e-29
5.25911e-29
0
1.0229e-28
4.73893e-28
4.79321e-28
0
0
1.42779e-28
1.01177e-28
3.62649e-28
1.04714e-28
1.48348e-28
8.84632e-29
0
0
2.44564e-24
0
2.28029e-26
-6.03321e-27
1.01185e-27
-2.50809e-28
6.07608e-28
-6.6855e-29
-1.25827e-27
6.4517e-28
1.59125e-27
7.66329e-28
1.68075e-28
-5.45981e-28
0
4.54017e-28
2.49134e-28
-8.45888e-28
3.07229e-28
-2.35486e-24
8.846e-25
-3.44868e-25
8.2892e-30
-5.76162e-27
4.72092e-28
4.14058e-28
7.04582e-28
3.39503e-28
2.47415e-28
0
0
0
0
7.59736e-29
-8.68573e-28
0
3.462e-29
-2.12469e-28
0
0
1.10502e-24
4.95016e-26
-1.01087e-26
3.83424e-27
-1.47133e-27
1.74482e-28
3.94748e-28
7.21412e-28
5.87019e-28
0
1.52483e-28
-7.47216e-29
0
0
0
5.76211e-28
1.45481e-27
3.63396e-30
6.20716e-28
3.51144e-24
7.62445e-25
4.82076e-26
1.44051e-27
1.31927e-28
9.68164e-28
3.65577e-31
-1.65726e-27
-2.53265e-27
-1.09525e-27
9.0374e-29
0
3.55535e-28
4.69988e-28
2.97125e-28
1.28522e-28
0
3.38168e-28
4.74057e-28
7.23837e-28
3.26999e-24
2.03423e-25
4.64318e-27
0
2.68431e-29
0
0
2.27013e-28
7.43231e-28
4.49156e-28
8.59843e-28
4.3334e-28
0
-4.52574e-28
-6.9462e-28
-1.65588e-27
-7.58507e-28
3.41501e-28
0
1.37181e-28
0
0
0
5.30164e-28
0
3.50315e-28
6.71202e-29
0
2.37301e-28
5.24488e-28
5.46222e-29
-2.67608e-28
0
0
0
0
5.62962e-28
0
-8.7739e-30
0
0
0
0
1.38947e-28
2.83834e-28
-5.34395e-28
-1.7011e-28
-1.01568e-27
2.62746e-28
8.02806e-28
7.18166e-28
4.93414e-28
4.42636e-28
-2.06808e-28
-1.89726e-29
2.9577e-30
3.98971e-28
0
1.13197e-28
8.3323e-31
3.69201e-25
0
1.8634e-26
0
3.44582e-27
1.0131e-27
0
-4.21649e-28
-8.80692e-28
0
3.46655e-28
2.03263e-28
0
-2.59183e-28
-5.71108e-28
-7.29295e-28
-5.91764e-28
0
0
5.16383e-28
2.73803e-25
0
1.79238e-26
0
8.79305e-30
0
-2.15291e-27
-1.7555e-27
-9.59789e-28
0
0
2.81161e-28
0
0
0
0
0
0
5.59306e-29
0
0
0
1.19901e-26
1.67734e-29
2.32969e-28
7.94939e-28
2.61794e-29
3.71222e-28
5.01977e-28
3.94898e-28
-7.25412e-28
-1.07819e-27
0
0
2.36313e-28
6.9197e-29
0
0
8.80536e-29
0
1.90413e-25
7.37707e-28
1.03036e-26
0
1.69667e-28
0
-1.53508e-27
6.47024e-28
3.30905e-27
1.32841e-27
3.65065e-28
0
0
1.01766e-27
2.59652e-28
2.10566e-28
3.82406e-28
-2.54079e-28
1.30995e-28
2.36689e-30
2.10704e-26
4.32682e-26
0
2.97161e-27
-6.47225e-28
1.38027e-28
4.00735e-28
4.13558e-29
0
-3.91099e-28
-9.01675e-28
-1.63035e-28
0
3.07774e-28
8.4032e-28
-2.07024e-28
0
0
0
1.27651e-28
0
0
0
2.6891e-27
3.78908e-28
3.54458e-28
1.64166e-29
0
0
-2.53205e-29
0
-2.81426e-27
0
6.56258e-29
1.75171e-28
0
6.54549e-30
6.73999e-28
-6.10518e-29
2.03478e-28
0
0
0
2.38104e-27
0
0
4.47823e-28
4.80124e-28
3.44002e-29
-5.07291e-28
0
2.30148e-28
2.92949e-28
0
0
0
0
0
0
1.56466e-28
-2.0291e-25
0
0
2.4183e-27
0
4.03647e-29
0
0
1.8959e-28
6.85598e-28
8.82056e-28
0
1.86205e-28
5.74789e-28
0
0
1.54974e-28
1.26871e-28
0
1.56423e-28
0
0
0
0
0
0
-1.93463e-27
-2.67795e-28
0
0
7.90962e-29
1.34612e-30
0
3.13306e-29
0
0
0
2.44113e-31
-8.3343e-30
5.9986e-31
4.52239e-26
3.5833e-26
8.33019e-28
0
0
0
3.93776e-29
2.91705e-28
-4.09478e-28
0
0
2.80772e-28
7.01363e-28
-4.8438e-28
-7.05403e-28
-4.0023e-28
6.94427e-28
2.00044e-29
0
-1.07168e-28
5.33051e-25
1.24162e-25
3.7788e-26
0
0
1.52326e-28
4.51716e-28
0
-7.4559e-29
2.60344e-28
8.36357e-28
4.91195e-29
-4.6779e-28
5.54637e-28
-6.41431e-29
-1.11702e-27
3.91643e-28
3.70538e-28
0
2.01874e-28
1.28844e-24
3.42345e-25
4.87862e-26
0
0
-1.22543e-27
-8.15535e-30
9.08047e-28
5.87331e-28
3.65881e-28
0
0
-4.15509e-29
0
-3.80941e-28
0
7.34684e-28
4.09927e-29
7.54844e-29
0
)
;

boundaryField
{
    movingWall
    {
        type            calculated;
        value           nonuniform List<scalar> 
20
(
9.05797e-24
1.57205e-24
3.45451e-25
-1.12075e-26
2.22491e-27
-2.99382e-27
0
2.56239e-27
4.81142e-27
1.01632e-27
-4.33421e-29
-2.13234e-28
-4.57596e-28
4.52296e-28
3.123e-28
9.31662e-28
5.48399e-28
2.486e-28
3.29327e-28
-1.32325e-28
)
;
    }
    fixedWalls
    {
        type            calculated;
        value           nonuniform List<scalar> 
60
(
1.67274e-23
1.58368e-23
0
2.15583e-23
2.07236e-23
4.28786e-24
0
0
1.6543e-24
1.62143e-24
0
8.47933e-25
2.10704e-26
0
0
0
0
8.50604e-26
5.17394e-24
1.12098e-23
0
3.07229e-28
0
1.4144e-27
8.07005e-28
7.93737e-28
0
8.3323e-31
6.70219e-28
0
8.12955e-30
0
1.27651e-28
2.52566e-28
3.92439e-28
1.55154e-28
5.9986e-31
-6.8056e-29
3.57408e-28
0
0
0
2.07273e-25
-5.63861e-26
8.63329e-27
1.2216e-27
4.67418e-29
-2.02801e-27
9.44079e-28
2.3966e-27
6.90412e-29
1.58377e-28
1.80209e-27
7.77997e-28
4.09278e-28
7.34684e-28
0
6.326e-29
1.44938e-28
0
)
;
    }
    frontAndBack
    {
        type            empty;
    }
}


// ************************************************************************* //
