/*--------------------------------*- C++ -*----------------------------------*\
| =========                 |                                                 |
| \\      /  F ield         | OpenFOAM: The Open Source CFD Toolbox           |
|  \\    /   O peration     | Version:  2506                                  |
|   \\  /    A nd           | Website:  www.openfoam.com                      |
|    \\/     M anipulation  |                                                 |
\*---------------------------------------------------------------------------*/
FoamFile
{
    version     2.0;
    format      ascii;
    arch        "LSB;label=32;scalar=64";
    class       volScalarField;
    location    "5.25";
    object      QField;
}
// * * * * * * * * * * * * * * * * * * * * * * * * * * * * * * * * * * * * * //

dimensions      [0 0 -2 0 0 0 0];

internalField   nonuniform List<scalar> 
400
(
-5.23229e-24
-1.77504e-24
-1.13974e-25
2.48885e-27
-1.50553e-27
-9.32009e-29
-7.4631e-28
5.25345e-28
-2.31671e-29
-6.49409e-28
-5.93422e-28
0
0
-3.22903e-28
-2.8448e-28
-4.42233e-28
5.88341e-28
-3.30135e-28
-8.84632e-29
0
-7.97763e-24
-3.84751e-24
5.29804e-26
-1.38511e-26
6.79581e-27
-1.7359e-27
3.01143e-28
-6.07608e-28
7.96356e-28
1.26682e-27
-6.4517e-28
-1.7036e-27
-1.47974e-27
-1.74868e-27
7.41666e-28
9.25587e-29
-1.08917e-27
-8.55651e-28
9.45126e-28
-9.50193e-28
3.86223e-24
-7.15353e-25
4.13378e-25
3.12152e-28
8.84818e-27
-4.72092e-28
-1.10309e-27
-7.04582e-28
-3.39503e-28
-2.47415e-28
-1.02336e-28
1.42736e-27
8.53121e-28
0
2.36255e-28
1.29585e-27
7.48314e-28
-1.59483e-28
1.04099e-27
0
1.52633e-23
3.6869e-24
1.24889e-25
3.9208e-26
-2.34759e-27
1.96785e-27
-2.59877e-28
-3.94748e-28
-8.10065e-28
-1.59442e-28
-1.12957e-28
-3.34705e-28
3.47632e-28
0
0
0
1.27415e-27
-3.10152e-27
-5.16702e-29
-6.20716e-28
1.16948e-23
2.81018e-24
1.16596e-25
7.20124e-27
9.33982e-28
-9.68164e-28
-1.63885e-29
1.66218e-27
2.59255e-27
1.10304e-27
-9.0374e-29
-2.79399e-28
-1.02217e-27
-6.35454e-28
-2.97125e-28
6.14567e-28
-6.6953e-28
-1.02512e-27
-3.03551e-28
-8.71051e-28
4.26144e-24
8.75417e-25
2.15134e-26
5.42703e-27
4.21297e-28
2.38003e-28
0
-8.1678e-28
-7.61616e-28
-5.74445e-28
-1.58961e-27
-6.07906e-28
4.29222e-28
4.86252e-28
6.94625e-28
2.22654e-27
7.58523e-28
-5.00894e-28
0
-5.50283e-28
2.07044e-24
4.01879e-25
3.21256e-26
-6.3732e-31
1.66308e-27
-3.50315e-28
-6.71202e-29
0
-2.37301e-28
-5.35778e-28
2.00325e-28
7.54402e-28
0
0
0
-1.46456e-28
-6.52079e-28
2.28425e-28
1.94038e-28
0
8.41174e-25
3.91221e-25
3.62763e-26
2.23652e-27
-1.55982e-27
5.42215e-28
1.75741e-28
1.07736e-27
1.0148e-27
-1.52333e-27
-8.76623e-28
-1.20416e-27
-1.17298e-27
3.06484e-28
5.49592e-28
-2.9577e-30
-1.08281e-27
0
2.88254e-28
-4.94838e-29
-7.11723e-25
1.60398e-25
-3.59192e-26
1.38834e-26
-6.08947e-27
-1.0131e-27
2.62827e-29
4.21943e-28
1.11934e-27
-2.4342e-28
-5.19997e-28
-1.77927e-28
0
3.73213e-28
5.74594e-28
9.10837e-28
6.49356e-28
0
0
-5.16383e-28
-2.02939e-25
4.35021e-26
-2.01092e-26
-1.37769e-27
1.18817e-27
6.54611e-28
2.15704e-27
2.32555e-27
9.62409e-28
2.31651e-28
0
-2.81161e-28
-2.10077e-29
0
-4.19819e-29
0
0
0
-4.0542e-28
0
3.75507e-25
2.80762e-26
-3.035e-27
8.88076e-28
4.13713e-28
-1.52844e-27
-2.61794e-29
-5.22236e-28
-5.01977e-28
1.48872e-28
8.38801e-28
1.17546e-27
4.25004e-28
7.23587e-28
-2.36313e-28
-4.50945e-28
0
0
-8.80536e-29
0
-5.6758e-25
-6.33127e-26
-1.5045e-26
5.11966e-28
7.06121e-28
-4.09078e-28
1.83747e-27
-6.47024e-28
-5.96119e-27
-1.40189e-27
-1.05582e-27
1.45803e-27
7.26061e-28
-1.72935e-27
-4.27117e-28
-2.10566e-28
-1.06009e-27
3.89378e-28
-3.10225e-28
4.17004e-29
-3.42299e-25
-2.22154e-25
2.1883e-26
-9.85163e-27
6.67908e-28
-1.38027e-28
-4.00735e-28
-1.74308e-28
3.48509e-28
1.48684e-27
1.01211e-27
2.53809e-28
-4.73581e-29
-3.07774e-28
-8.4032e-28
3.41027e-28
0
0
0
-6.12481e-28
1.40637e-24
4.95781e-26
2.75785e-26
-2.50548e-27
-5.5202e-28
-3.54458e-28
-1.64166e-29
0
2.08739e-28
2.61973e-29
4.85673e-29
3.11532e-27
1.39741e-27
-6.56258e-29
-3.58741e-28
-4.36605e-30
-6.54549e-30
-8.52815e-28
1.28414e-28
-2.08154e-28
2.12085e-24
4.37534e-25
2.52076e-26
6.80335e-29
-1.32007e-28
0
-4.47823e-28
-1.20245e-27
-7.69073e-28
7.30007e-28
7.1663e-29
-6.32723e-28
-9.27846e-28
-5.64701e-29
1.13143e-28
0
4.29047e-28
0
0
-1.56466e-28
6.03962e-25
1.26192e-25
1.33696e-26
-3.34143e-27
1.23226e-27
-3.44414e-28
4.86002e-28
-6.40661e-29
3.73214e-28
-7.09717e-28
-1.61001e-27
6.16014e-28
-3.69867e-28
-5.74789e-28
0
-8.88851e-29
-6.74855e-28
-6.10607e-28
4.88046e-30
-1.56423e-28
-3.77732e-25
-6.50161e-26
-5.2726e-28
5.78405e-28
-1.30153e-28
5.5259e-28
1.95026e-27
1.04838e-27
1.08077e-28
1.1452e-28
-3.13632e-28
3.14479e-29
-1.65445e-28
1.51717e-28
1.54334e-28
3.94799e-29
0
-1.3392e-29
9.19427e-30
-2.0993e-29
4.24818e-27
3.11164e-26
-1.39575e-27
2.39392e-28
-1.15251e-28
0
-1.70088e-28
-2.91705e-28
4.14734e-28
3.1192e-28
8.53333e-28
-1.36254e-27
-7.97375e-28
5.01906e-28
8.20402e-28
4.35258e-28
-7.14272e-28
1.21231e-28
0
1.10294e-28
1.22693e-24
2.35184e-25
-3.7788e-26
2.24397e-27
0
-1.52326e-28
1.65679e-28
-1.58356e-27
2.13653e-28
-2.60344e-28
-5.86055e-28
-1.89967e-28
4.82386e-28
-6.50186e-28
1.19559e-28
1.50052e-27
-1.07282e-27
-3.70538e-28
0
-2.01874e-28
8.44367e-25
5.04555e-26
-2.22683e-26
8.4336e-27
0
1.25148e-27
4.43277e-28
-1.09118e-27
-5.87331e-28
-5.39448e-28
0
0
7.01971e-29
0
3.81226e-28
0
-8.21239e-28
-2.18643e-28
2.35493e-28
3.36193e-29
)
;

boundaryField
{
    movingWall
    {
        type            calculated;
        value           nonuniform List<scalar> 
20
(
7.53423e-25
4.67271e-25
-2.53932e-25
3.28455e-26
-2.22491e-27
3.07564e-27
7.26265e-28
-3.35564e-27
-4.81142e-27
-1.10303e-27
5.05114e-28
4.4241e-28
4.60044e-28
-4.52296e-28
-3.123e-28
-9.31662e-28
-1.16643e-27
-3.12001e-28
4.91885e-28
3.00534e-28
)
;
    }
    fixedWalls
    {
        type            calculated;
        value           nonuniform List<scalar> 
60
(
-3.33791e-23
-4.82941e-23
1.94222e-23
7.52392e-23
5.73857e-23
2.1547e-23
1.02404e-23
4.0636e-24
-3.82222e-24
-1.27446e-24
1.84313e-24
-2.78841e-24
-1.63734e-24
6.96309e-24
1.01457e-23
2.96035e-24
-2.23982e-24
1.61273e-25
4.42e-24
3.5167e-24
0
-1.5568e-27
0
-1.4144e-27
-2.1632e-27
-1.52427e-27
0
-8.10742e-29
-6.70219e-28
0
-1.2662e-28
0
-1.00349e-27
-2.60245e-28
-3.92439e-28
-1.55154e-28
-3.4395e-29
7.11821e-29
-3.57408e-28
-1.9037e-28
2.39179e-24
2.15126e-24
-3.12166e-25
6.03271e-26
-8.63329e-27
-1.2216e-27
-3.87986e-28
2.61195e-27
-1.01273e-27
-2.54353e-27
-7.63534e-29
-1.58377e-28
-1.80209e-27
-1.26858e-27
-5.39692e-28
-8.2804e-28
3.09387e-28
-2.15583e-28
-1.44938e-28
0
)
;
    }
    frontAndBack
    {
        type            empty;
    }
}


// ************************************************************************* //
