/*--------------------------------*- C++ -*----------------------------------*\
| =========                 |                                                 |
| \\      /  F ield         | OpenFOAM: The Open Source CFD Toolbox           |
|  \\    /   O peration     | Version:  2506                                  |
|   \\  /    A nd           | Website:  www.openfoam.com                      |
|    \\/     M anipulation  |                                                 |
\*---------------------------------------------------------------------------*/
FoamFile
{
    version     2.0;
    format      ascii;
    arch        "LSB;label=32;scalar=64";
    class       volVectorField;
    location    "5.25";
    object      UzeroGrad;
}
// * * * * * * * * * * * * * * * * * * * * * * * * * * * * * * * * * * * * * //

dimensions      [0 1 -1 0 0 0 0];

internalField   nonuniform List<vector> 
400
(
(-1 3.24195e-14 0)
(-1 -6.22047e-15 0)
(-1 1.6451e-15 0)
(-1 -1.94441e-16 0)
(-1 8.29659e-17 0)
(-1 8.32799e-17 0)
(-1 1.17351e-16 0)
(-1 1.39034e-17 0)
(-1 -7.06958e-18 0)
(-1 4.90345e-17 0)
(-1 6.84371e-17 0)
(-1 1.15622e-17 0)
(-1 7.73529e-17 0)
(-1 1.13011e-16 0)
(-1 7.97912e-17 0)
(-1 7.63732e-17 0)
(-1 5.39796e-18 0)
(-1 1.9884e-17 0)
(-1 -5.8656e-18 0)
(-1 3.56546e-18 0)
(-1 4.95225e-14 0)
(-1 -1.06471e-14 0)
(-1 2.55981e-15 0)
(-1 -4.49466e-16 0)
(-1 1.1695e-16 0)
(-1 -3.15971e-17 0)
(-1 8.96955e-17 0)
(-1 4.11195e-17 0)
(-1 3.36536e-17 0)
(-1 1.15048e-16 0)
(-1 1.50497e-16 0)
(-1 3.57065e-17 0)
(-1 -4.46188e-17 0)
(-1 3.68111e-18 0)
(-1 6.18007e-17 0)
(-1 1.61175e-16 0)
(-1 1.55172e-16 0)
(-1 1.01914e-16 0)
(-1 -6.39289e-17 0)
(-1 -7.24308e-17 0)
(-1 -8.38169e-14 0)
(-1 1.74913e-14 0)
(-1 -3.99445e-15 0)
(-1 9.14779e-16 0)
(-1 -1.93187e-16 0)
(-1 -1.55176e-16 0)
(-1 -1.3513e-16 0)
(-1 -4.69895e-17 0)
(-1 -5.15726e-18 0)
(-1 7.82651e-17 0)
(-1 8.61228e-17 0)
(-1 3.31478e-17 0)
(-1 -1.47572e-16 0)
(-1 -2.08459e-16 0)
(-1 -1.19064e-16 0)
(-1 1.71497e-17 0)
(-1 1.76684e-16 0)
(-1 1.77724e-16 0)
(-1 -1.05484e-16 0)
(-1 -1.71714e-16 0)
(-1 4.51876e-14 0)
(-1 -9.26284e-15 0)
(-1 2.19082e-15 0)
(-1 -4.20675e-16 0)
(-1 8.96806e-17 0)
(-1 -1.04018e-16 0)
(-1 -1.13789e-16 0)
(-1 -8.4189e-17 0)
(-1 -6.52432e-17 0)
(-1 2.74874e-18 0)
(-1 -2.261e-17 0)
(-1 -5.15357e-17 0)
(-1 -8.11885e-17 0)
(-1 -1.15663e-16 0)
(-1 -2.53622e-17 0)
(-1 4.77623e-17 0)
(-1 1.32638e-16 0)
(-1 4.30755e-17 0)
(-1 -9.85483e-17 0)
(-1 -1.30456e-16 0)
(-1 -7.91817e-15 0)
(-1 1.92533e-15 0)
(-1 -2.7108e-16 0)
(-1 1.22879e-16 0)
(-1 7.07397e-18 0)
(-1 -6.73074e-17 0)
(-1 -1.71521e-16 0)
(-1 -1.28854e-16 0)
(-1 3.28908e-17 0)
(-1 1.89974e-16 0)
(-1 2.36365e-16 0)
(-1 1.56632e-16 0)
(-1 1.76277e-17 0)
(-1 -5.38562e-18 0)
(-1 4.57518e-17 0)
(-1 4.94243e-17 0)
(-1 -6.06989e-17 0)
(-1 -2.03696e-16 0)
(-1 -8.64211e-17 0)
(-1 -3.90349e-17 0)
(-1 -5.59495e-15 0)
(-1 1.09745e-15 0)
(-1 -3.16453e-16 0)
(-1 -4.11336e-17 0)
(-1 -2.51789e-17 0)
(-1 -5.57816e-17 0)
(-1 -1.19835e-16 0)
(-1 -1.06364e-16 0)
(-1 1.2158e-17 0)
(-1 3.06488e-17 0)
(-1 4.87903e-17 0)
(-1 1.09373e-16 0)
(-1 1.07368e-16 0)
(-1 6.25304e-17 0)
(-1 1.76701e-17 0)
(-1 -6.56052e-17 0)
(-1 -2.0282e-16 0)
(-1 -1.58887e-16 0)
(-1 -4.58778e-17 0)
(-1 6.54495e-17 0)
(-1 9.44268e-15 0)
(-1 -1.28825e-15 0)
(-1 1.23514e-16 0)
(-1 -6.7226e-17 0)
(-1 5.88843e-17 0)
(-1 3.4197e-17 0)
(-1 -5.73733e-18 0)
(-1 2.18155e-17 0)
(-1 3.98524e-17 0)
(-1 -2.19588e-17 0)
(-1 -5.68654e-17 0)
(-1 -9.06823e-18 0)
(-1 8.22972e-17 0)
(-1 5.2647e-17 0)
(-1 4.50627e-17 0)
(-1 -1.10876e-17 0)
(-1 -6.19465e-17 0)
(-1 -1.88987e-17 0)
(-1 2.23273e-17 0)
(-1 5.26886e-17 0)
(-1 -1.05487e-14 0)
(-1 1.86628e-15 0)
(-1 -5.66326e-16 0)
(-1 -1.96167e-17 0)
(-1 -1.29118e-16 0)
(-1 -5.77579e-17 0)
(-1 -6.24368e-17 0)
(-1 7.07927e-18 0)
(-1 7.0055e-17 0)
(-1 2.64172e-17 0)
(-1 -2.51166e-17 0)
(-1 -1.11261e-16 0)
(-1 -8.20381e-17 0)
(-1 -4.35885e-17 0)
(-1 3.10347e-17 0)
(-1 9.54366e-17 0)
(-1 2.99435e-17 0)
(-1 2.642e-17 0)
(-1 9.02339e-17 0)
(-1 2.63992e-17 0)
(-1 9.12148e-15 0)
(-1 -2.26797e-15 0)
(-1 6.38576e-16 0)
(-1 -1.85102e-16 0)
(-1 -7.54481e-17 0)
(-1 6.23232e-18 0)
(-1 1.79941e-17 0)
(-1 -5.67214e-17 0)
(-1 -1.37675e-16 0)
(-1 -2.55378e-16 0)
(-1 -2.42604e-16 0)
(-1 -2.31197e-16 0)
(-1 -1.67915e-16 0)
(-1 -4.71912e-17 0)
(-1 -3.02238e-17 0)
(-1 5.88026e-17 0)
(-1 1.37796e-16 0)
(-1 1.78588e-16 0)
(-1 1.28695e-16 0)
(-1 6.18168e-17 0)
(-1 -7.86582e-15 0)
(-1 2.57035e-15 0)
(-1 -1.54373e-16 0)
(-1 3.68372e-16 0)
(-1 2.41203e-16 0)
(-1 2.66924e-16 0)
(-1 1.16728e-16 0)
(-1 1.65435e-18 0)
(-1 -1.12951e-16 0)
(-1 -1.75879e-16 0)
(-1 -1.92781e-16 0)
(-1 -1.20306e-16 0)
(-1 -8.90511e-17 0)
(-1 6.31967e-17 0)
(-1 1.2364e-17 0)
(-1 -3.93011e-17 0)
(-1 1.05833e-16 0)
(-1 1.20633e-16 0)
(-1 5.73699e-17 0)
(-1 6.1178e-17 0)
(-1 9.45152e-15 0)
(-1 -2.18837e-15 0)
(-1 5.95785e-16 0)
(-1 -3.44594e-17 0)
(-1 9.30065e-17 0)
(-1 1.36739e-17 0)
(-1 3.83131e-17 0)
(-1 4.01543e-18 0)
(-1 -1.53864e-16 0)
(-1 -1.81181e-16 0)
(-1 -1.93495e-16 0)
(-1 -7.8027e-17 0)
(-1 2.33383e-17 0)
(-1 1.53047e-16 0)
(-1 1.31267e-16 0)
(-1 6.58629e-17 0)
(-1 8.81287e-17 0)
(-1 1.73589e-17 0)
(-1 5.39081e-17 0)
(-1 4.98449e-17 0)
(-1 -9.34364e-15 0)
(-1 2.29186e-15 0)
(-1 -3.31489e-16 0)
(-1 4.09327e-16 0)
(-1 8.85696e-17 0)
(-1 -1.5023e-17 0)
(-1 1.42581e-16 0)
(-1 1.94326e-16 0)
(-1 2.32261e-17 0)
(-1 -4.1693e-17 0)
(-1 -8.6297e-17 0)
(-1 -2.16818e-17 0)
(-1 6.36235e-17 0)
(-1 3.47817e-17 0)
(-1 4.85694e-17 0)
(-1 4.38836e-17 0)
(-1 9.7268e-18 0)
(-1 6.83794e-18 0)
(-1 8.15544e-17 0)
(-1 8.96904e-17 0)
(-1 7.51499e-15 0)
(-1 -1.91676e-15 0)
(-1 4.96586e-16 0)
(-1 4.69451e-17 0)
(-1 2.23263e-16 0)
(-1 1.70152e-16 0)
(-1 1.97801e-16 0)
(-1 2.44075e-16 0)
(-1 2.18945e-16 0)
(-1 1.16979e-16 0)
(-1 1.12744e-17 0)
(-1 -3.39489e-17 0)
(-1 -8.23646e-17 0)
(-1 -1.65961e-16 0)
(-1 -4.45151e-17 0)
(-1 -1.09496e-17 0)
(-1 -1.07423e-16 0)
(-1 -9.89593e-17 0)
(-1 -6.05449e-17 0)
(-1 3.44602e-17 0)
(-1 -7.89208e-15 0)
(-1 1.56927e-15 0)
(-1 -4.52728e-16 0)
(-1 2.33315e-17 0)
(-1 4.3091e-17 0)
(-1 1.23961e-16 0)
(-1 1.08477e-16 0)
(-1 1.30017e-16 0)
(-1 1.48842e-16 0)
(-1 9.15117e-17 0)
(-1 1.44009e-16 0)
(-1 7.35935e-17 0)
(-1 -8.58609e-17 0)
(-1 -1.49065e-16 0)
(-1 -6.16493e-17 0)
(-1 -7.18761e-17 0)
(-1 -1.30304e-16 0)
(-1 -7.06687e-17 0)
(-1 -5.17668e-17 0)
(-1 -2.32923e-17 0)
(-1 1.11331e-14 0)
(-1 -1.69945e-15 0)
(-1 4.58534e-16 0)
(-1 3.57322e-17 0)
(-1 1.20232e-16 0)
(-1 3.74114e-17 0)
(-1 -1.11856e-17 0)
(-1 -3.89295e-18 0)
(-1 4.50778e-17 0)
(-1 1.26342e-16 0)
(-1 1.7974e-16 0)
(-1 1.39562e-16 0)
(-1 1.05177e-16 0)
(-1 -4.30139e-17 0)
(-1 -1.76867e-16 0)
(-1 -1.4987e-16 0)
(-1 -3.91867e-17 0)
(-1 5.85993e-17 0)
(-1 2.15295e-17 0)
(-1 3.61961e-17 0)
(-1 -1.2599e-14 0)
(-1 2.43714e-15 0)
(-1 -3.60131e-16 0)
(-1 2.57233e-16 0)
(-1 6.99608e-17 0)
(-1 4.49676e-17 0)
(-1 -7.18567e-17 0)
(-1 -1.7619e-16 0)
(-1 -1.23262e-16 0)
(-1 -5.7725e-17 0)
(-1 -2.83379e-17 0)
(-1 2.06367e-17 0)
(-1 8.52965e-17 0)
(-1 2.37353e-18 0)
(-1 -1.26763e-16 0)
(-1 -8.11814e-17 0)
(-1 -9.79904e-19 0)
(-1 -1.25099e-17 0)
(-1 -4.33994e-17 0)
(-1 -1.43104e-17 0)
(-1 7.50346e-15 0)
(-1 -1.29285e-15 0)
(-1 5.53981e-16 0)
(-1 1.28879e-16 0)
(-1 1.30263e-16 0)
(-1 1.00945e-16 0)
(-1 3.06692e-17 0)
(-1 -7.89347e-17 0)
(-1 -9.26139e-17 0)
(-1 -1.35497e-16 0)
(-1 -1.17254e-16 0)
(-1 -1.14608e-16 0)
(-1 -3.12799e-17 0)
(-1 -4.82334e-17 0)
(-1 -5.77363e-17 0)
(-1 8.70593e-18 0)
(-1 8.5302e-17 0)
(-1 -5.40379e-17 0)
(-1 -7.90334e-17 0)
(-1 -5.06458e-17 0)
(-1 1.65937e-16 0)
(-1 3.8453e-16 0)
(-1 1.96169e-17 0)
(-1 9.87225e-17 0)
(-1 1.07937e-16 0)
(-1 1.49243e-16 0)
(-1 -3.23309e-17 0)
(-1 -1.93124e-16 0)
(-1 -1.39951e-16 0)
(-1 -4.01146e-17 0)
(-1 1.90727e-17 0)
(-1 3.22389e-17 0)
(-1 -4.21169e-17 0)
(-1 -5.36002e-17 0)
(-1 1.96066e-17 0)
(-1 4.72914e-17 0)
(-1 7.31339e-17 0)
(-1 -1.74507e-17 0)
(-1 -3.4126e-17 0)
(-1 -6.56539e-18 0)
(-1 9.79861e-15 0)
(-1 -3.10007e-15 0)
(-1 4.77603e-16 0)
(-1 -3.11807e-16 0)
(-1 3.72225e-17 0)
(-1 7.36537e-17 0)
(-1 9.34208e-17 0)
(-1 -1.27273e-17 0)
(-1 -1.1554e-16 0)
(-1 -9.15516e-17 0)
(-1 -1.94903e-17 0)
(-1 5.2954e-17 0)
(-1 -4.96109e-17 0)
(-1 -6.36907e-18 0)
(-1 4.95012e-17 0)
(-1 -5.04786e-17 0)
(-1 -1.78218e-16 0)
(-1 -9.87642e-17 0)
(-1 -4.15134e-17 0)
(-1 -3.29651e-17 0)
(-1 -3.60796e-14 0)
(-1 7.05895e-15 0)
(-1 -1.83924e-15 0)
(-1 2.27889e-16 0)
(-1 -1.15682e-16 0)
(-1 -2.26136e-17 0)
(-1 1.15175e-16 0)
(-1 1.40927e-16 0)
(-1 -2.20128e-17 0)
(-1 -7.57602e-17 0)
(-1 -5.37222e-17 0)
(-1 -3.78464e-17 0)
(-1 -3.91128e-18 0)
(-1 -1.19482e-17 0)
(-1 -5.48353e-17 0)
(-1 -8.2272e-17 0)
(-1 -1.24766e-16 0)
(-1 -6.12982e-17 0)
(-1 -4.53684e-17 0)
(-1 -5.22481e-17 0)
)
;

boundaryField
{
    movingWall
    {
        type            zeroGradient;
    }
    fixedWalls
    {
        type            zeroGradient;
    }
    frontAndBack
    {
        type            empty;
    }
}


// ************************************************************************* //
