/*--------------------------------*- C++ -*----------------------------------*\
| =========                 |                                                 |
| \\      /  F ield         | OpenFOAM: The Open Source CFD Toolbox           |
|  \\    /   O peration     | Version:  2506                                  |
|   \\  /    A nd           | Website:  www.openfoam.com                      |
|    \\/     M anipulation  |                                                 |
\*---------------------------------------------------------------------------*/
FoamFile
{
    version     2.0;
    format      ascii;
    arch        "LSB;label=32;scalar=64";
    class       volVectorField;
    location    "5.25";
    object      vorticityField;
}
// * * * * * * * * * * * * * * * * * * * * * * * * * * * * * * * * * * * * * //

dimensions      [0 0 -1 0 0 0 0];

internalField   nonuniform List<vector> 
400
(
(0 -0 2.40306e-12)
(0 -0 -3.05033e-12)
(0 -0 6.02603e-13)
(0 -0 -1.83318e-13)
(0 -0 -2.64381e-14)
(0 -0 -2.36665e-14)
(0 -0 -6.11478e-14)
(0 -0 -6.66522e-14)
(0 -0 -2.35919e-14)
(0 -0 -1.95544e-14)
(0 -0 -3.74724e-15)
(0 -0 8.91581e-16)
(0 -0 1.01448e-14)
(0 -0 -2.68612e-14)
(0 -0 -3.07688e-14)
(0 -0 -3.45444e-14)
(0 -0 -3.2754e-14)
(0 -0 -1.12636e-15)
(0 -0 5.25783e-14)
(0 -0 2.30015e-16)
(0 -0 4.18569e-12)
(0 -0 -4.50653e-12)
(0 -0 1.23661e-12)
(0 -0 -1.62971e-13)
(0 -0 2.04417e-13)
(0 -0 1.59905e-13)
(0 -0 1.42797e-13)
(0 -0 1.02816e-13)
(0 -0 1.15813e-13)
(0 -0 1.20105e-13)
(0 -0 7.3381e-14)
(0 -0 6.18036e-14)
(0 -0 7.81126e-14)
(0 -0 9.19571e-14)
(0 -0 9.70646e-14)
(0 -0 3.64422e-14)
(0 -0 2.1179e-14)
(0 -0 -2.19101e-14)
(0 -0 -7.16446e-14)
(0 -0 1.3636e-14)
(0 -0 -7.14756e-12)
(0 -0 7.87383e-12)
(0 -0 -1.9016e-12)
(0 -0 3.80126e-13)
(0 -0 -1.88311e-13)
(0 -0 -7.55095e-14)
(0 -0 1.08186e-14)
(0 -0 -4.12129e-14)
(0 -0 -1.45796e-14)
(0 -0 -1.79771e-14)
(0 -0 -8.58269e-14)
(0 -0 -1.04685e-13)
(0 -0 -5.12657e-14)
(0 -0 2.85081e-15)
(0 -0 2.25609e-14)
(0 -0 8.3785e-14)
(0 -0 7.02675e-14)
(0 -0 -2.82168e-14)
(0 -0 -6.20488e-14)
(0 -0 2.77198e-14)
(0 -0 4.92062e-12)
(0 -0 -4.59783e-12)
(0 -0 9.11322e-13)
(0 -0 -3.45639e-13)
(0 -0 -7.67545e-14)
(0 -0 -1.28767e-13)
(0 -0 -7.93323e-14)
(0 -0 -7.64606e-14)
(0 -0 -7.26214e-14)
(0 -0 -1.04157e-13)
(0 -0 -5.96386e-14)
(0 -0 -5.85784e-15)
(0 -0 -6.06228e-14)
(0 -0 5.58263e-15)
(0 -0 1.63425e-14)
(0 -0 1.58e-14)
(0 -0 2.66364e-14)
(0 -0 -2.31186e-14)
(0 -0 -1.73531e-14)
(0 -0 -4.20467e-15)
(0 -0 -2.19848e-12)
(0 -0 1.17128e-12)
(0 -0 -2.6156e-13)
(0 -0 2.78154e-14)
(0 -0 -1.90187e-14)
(0 -0 3.63506e-14)
(0 -0 -6.15464e-15)
(0 -0 1.01756e-13)
(0 -0 1.13198e-13)
(0 -0 7.45576e-14)
(0 -0 2.37708e-14)
(0 -0 -4.89788e-14)
(0 -0 -1.62018e-14)
(0 -0 -5.13977e-14)
(0 -0 -4.87291e-14)
(0 -0 -1.06451e-14)
(0 -0 -1.06627e-13)
(0 -0 -2.96773e-14)
(0 -0 -1.06389e-14)
(0 -0 -1.45595e-14)
(0 -0 1.19456e-13)
(0 -0 3.38114e-13)
(0 -0 -8.67533e-14)
(0 -0 5.62324e-14)
(0 -0 -1.46479e-15)
(0 -0 -6.36757e-14)
(0 -0 -5.05822e-15)
(0 -0 1.31993e-14)
(0 -0 -4.05088e-14)
(0 -0 3.66322e-15)
(0 -0 7.87244e-15)
(0 -0 -2.12473e-14)
(0 -0 -5.88944e-14)
(0 -0 -6.31799e-14)
(0 -0 -6.70237e-14)
(0 -0 -1.30469e-13)
(0 -0 -9.06433e-14)
(0 -0 1.56942e-14)
(0 -0 2.24337e-14)
(0 -0 2.51479e-14)
(0 -0 1.87254e-12)
(0 -0 -1.12165e-12)
(0 -0 2.57628e-13)
(0 -0 7.48522e-14)
(0 -0 1.18563e-13)
(0 -0 4.77479e-14)
(0 -0 5.2972e-14)
(0 -0 4.55898e-15)
(0 -0 4.98327e-14)
(0 -0 4.45383e-14)
(0 -0 1.28905e-15)
(0 -0 6.81264e-14)
(0 -0 6.17152e-15)
(0 -0 -3.72345e-15)
(0 -0 -6.37346e-15)
(0 -0 -3.7806e-14)
(0 -0 2.63239e-14)
(0 -0 3.55324e-14)
(0 -0 3.42638e-14)
(0 -0 -7.50159e-15)
(0 -0 -1.89823e-12)
(0 -0 1.18797e-12)
(0 -0 -2.69904e-13)
(0 -0 4.37209e-14)
(0 -0 2.32909e-14)
(0 -0 8.79832e-14)
(0 -0 3.35888e-14)
(0 -0 9.45643e-14)
(0 -0 2.90388e-14)
(0 -0 1.75879e-14)
(0 -0 1.33373e-14)
(0 -0 -5.69215e-15)
(0 -0 3.38723e-14)
(0 -0 3.84123e-14)
(0 -0 6.81126e-14)
(0 -0 2.69959e-14)
(0 -0 -6.90167e-15)
(0 -0 6.02904e-15)
(0 -0 2.7103e-14)
(0 -0 -1.16633e-14)
(0 -0 2.5167e-13)
(0 -0 -8.75396e-13)
(0 -0 1.26972e-13)
(0 -0 -2.06928e-13)
(0 -0 -8.92868e-14)
(0 -0 -9.9076e-14)
(0 -0 -8.76105e-14)
(0 -0 -4.2672e-14)
(0 -0 -1.01181e-13)
(0 -0 -9.1808e-14)
(0 -0 -2.4687e-14)
(0 -0 -1.96362e-14)
(0 -0 1.84006e-14)
(0 -0 4.08742e-14)
(0 -0 6.48095e-14)
(0 -0 7.10121e-14)
(0 -0 6.61886e-14)
(0 -0 -9.10118e-16)
(0 -0 -1.16771e-14)
(0 -0 8.0539e-15)
(0 -0 -1.45502e-14)
(0 -0 8.5246e-13)
(0 -0 -1.38883e-13)
(0 -0 6.66626e-14)
(0 -0 -3.72499e-14)
(0 -0 -6.66576e-14)
(0 -0 -1.07842e-13)
(0 -0 -1.31388e-13)
(0 -0 -7.19634e-14)
(0 -0 -6.21931e-14)
(0 -0 5.55725e-15)
(0 -0 -1.6732e-14)
(0 -0 4.54554e-14)
(0 -0 1.01415e-14)
(0 -0 -9.15649e-14)
(0 -0 9.34692e-15)
(0 -0 1.59934e-14)
(0 -0 -4.84633e-15)
(0 -0 -5.94545e-15)
(0 -0 -1.18548e-14)
(0 -0 8.0763e-13)
(0 -0 -9.93993e-13)
(0 -0 1.61181e-13)
(0 -0 -5.02778e-14)
(0 -0 4.81333e-15)
(0 -0 -5.46933e-15)
(0 -0 2.61392e-14)
(0 -0 -1.92177e-14)
(0 -0 8.58538e-15)
(0 -0 5.0247e-14)
(0 -0 9.16306e-14)
(0 -0 7.58934e-14)
(0 -0 7.73175e-14)
(0 -0 9.21081e-14)
(0 -0 1.83866e-14)
(0 -0 -4.31385e-15)
(0 -0 -4.8504e-15)
(0 -0 -3.42206e-15)
(0 -0 -2.38565e-14)
(0 -0 -1.03753e-14)
(0 -0 -4.88338e-13)
(0 -0 9.01215e-13)
(0 -0 -1.34043e-13)
(0 -0 9.6216e-14)
(0 -0 -4.2435e-14)
(0 -0 8.67163e-14)
(0 -0 1.29355e-13)
(0 -0 4.22746e-14)
(0 -0 5.77133e-14)
(0 -0 4.32578e-14)
(0 -0 2.91062e-14)
(0 -0 9.63072e-14)
(0 -0 3.27514e-14)
(0 -0 -1.50541e-15)
(0 -0 5.51203e-14)
(0 -0 5.03258e-14)
(0 -0 -3.70456e-15)
(0 -0 6.13929e-14)
(0 -0 8.28525e-15)
(0 -0 -1.71245e-14)
(0 -0 5.59823e-13)
(0 -0 -6.4763e-13)
(0 -0 2.77686e-13)
(0 -0 2.68778e-14)
(0 -0 6.65308e-14)
(0 -0 5.1664e-14)
(0 -0 -4.68178e-14)
(0 -0 2.11434e-15)
(0 -0 -6.69198e-14)
(0 -0 -7.49771e-14)
(0 -0 -1.23513e-13)
(0 -0 -3.6469e-14)
(0 -0 -4.03063e-14)
(0 -0 -7.75302e-14)
(0 -0 -3.87089e-14)
(0 -0 -6.05009e-14)
(0 -0 -8.80097e-15)
(0 -0 4.68785e-15)
(0 -0 1.3342e-14)
(0 -0 2.60846e-15)
(0 -0 -1.66227e-12)
(0 -0 8.7946e-13)
(0 -0 -3.44329e-13)
(0 -0 -4.62822e-15)
(0 -0 -1.70422e-14)
(0 -0 -4.76715e-14)
(0 -0 -2.64994e-14)
(0 -0 4.0365e-15)
(0 -0 -5.80607e-14)
(0 -0 -5.46934e-14)
(0 -0 -2.88969e-14)
(0 -0 -1.58512e-13)
(0 -0 -1.30686e-13)
(0 -0 -2.46839e-14)
(0 -0 7.71894e-15)
(0 -0 -6.10756e-14)
(0 -0 -5.40894e-14)
(0 -0 -4.63564e-14)
(0 -0 3.18427e-14)
(0 -0 -1.95991e-14)
(0 -0 2.46124e-12)
(0 -0 -1.3385e-12)
(0 -0 3.36149e-13)
(0 -0 2.03799e-14)
(0 -0 8.14831e-14)
(0 -0 -1.31418e-14)
(0 -0 1.0429e-13)
(0 -0 8.69415e-14)
(0 -0 6.72336e-14)
(0 -0 6.76764e-14)
(0 -0 5.55321e-14)
(0 -0 1.96487e-14)
(0 -0 -1.82576e-14)
(0 -0 -5.53095e-14)
(0 -0 -3.77907e-14)
(0 -0 1.3768e-14)
(0 -0 7.50571e-14)
(0 -0 6.07162e-15)
(0 -0 -2.24032e-15)
(0 -0 2.13325e-14)
(0 -0 -1.91065e-12)
(0 -0 1.35941e-12)
(0 -0 -2.72201e-13)
(0 -0 -1.12009e-14)
(0 -0 -7.54366e-14)
(0 -0 -1.41818e-14)
(0 -0 -4.92209e-14)
(0 -0 -3.22456e-14)
(0 -0 1.18465e-14)
(0 -0 9.49243e-15)
(0 -0 7.83617e-15)
(0 -0 6.55736e-14)
(0 -0 -1.82632e-15)
(0 -0 5.89909e-15)
(0 -0 -8.35549e-15)
(0 -0 3.96834e-14)
(0 -0 6.86715e-15)
(0 -0 -4.24195e-15)
(0 -0 -2.72851e-14)
(0 -0 -2.13341e-14)
(0 -0 1.46132e-12)
(0 -0 -8.57579e-13)
(0 -0 1.96383e-13)
(0 -0 -9.65818e-14)
(0 -0 -2.98985e-14)
(0 -0 -3.70645e-14)
(0 -0 -1.26408e-13)
(0 -0 -9.36435e-14)
(0 -0 -3.27613e-14)
(0 -0 -2.95691e-14)
(0 -0 -2.50162e-14)
(0 -0 8.5974e-15)
(0 -0 3.37426e-14)
(0 -0 -2.64563e-15)
(0 -0 3.2799e-14)
(0 -0 4.14089e-14)
(0 -0 -6.27438e-15)
(0 -0 -1.64335e-14)
(0 -0 2.74443e-14)
(0 -0 1.29679e-14)
(0 -0 -4.32844e-13)
(0 -0 2.02208e-13)
(0 -0 -1.47572e-15)
(0 -0 3.59371e-14)
(0 -0 3.21571e-14)
(0 -0 -1.40268e-14)
(0 -0 -3.42368e-14)
(0 -0 1.6343e-14)
(0 -0 4.2406e-14)
(0 -0 4.30074e-14)
(0 -0 8.85505e-14)
(0 -0 -6.11896e-15)
(0 -0 7.27312e-14)
(0 -0 8.74875e-14)
(0 -0 9.14043e-14)
(0 -0 8.66679e-14)
(0 -0 -6.4742e-15)
(0 -0 -1.0726e-14)
(0 -0 1.08853e-15)
(0 -0 3.11742e-14)
(0 -0 1.54858e-13)
(0 -0 -9.321e-13)
(0 -0 1.43301e-13)
(0 -0 -7.11431e-14)
(0 -0 3.8546e-14)
(0 -0 -2.14852e-14)
(0 -0 1.84669e-14)
(0 -0 -7.51062e-14)
(0 -0 -3.49875e-14)
(0 -0 -1.75001e-14)
(0 -0 -3.97596e-14)
(0 -0 -3.01206e-15)
(0 -0 -8.72475e-14)
(0 -0 -4.42989e-14)
(0 -0 -3.1516e-14)
(0 -0 -1.04087e-13)
(0 -0 -4.82856e-15)
(0 -0 -1.34346e-14)
(0 -0 6.57991e-15)
(0 -0 -1.96572e-14)
(0 -0 -2.60391e-12)
(0 -0 3.36982e-12)
(0 -0 -6.28896e-13)
(0 -0 2.26566e-13)
(0 -0 -2.50503e-14)
(0 -0 7.72958e-14)
(0 -0 4.34591e-14)
(0 -0 4.04913e-14)
(0 -0 5.43635e-15)
(0 -0 2.39341e-14)
(0 -0 3.79138e-15)
(0 -0 4.98109e-15)
(0 -0 2.96949e-14)
(0 -0 -5.0924e-15)
(0 -0 -6.12425e-14)
(0 -0 -6.99305e-15)
(0 -0 2.09738e-15)
(0 -0 3.50448e-14)
(0 -0 9.05011e-16)
(0 -0 3.68667e-14)
)
;

boundaryField
{
    movingWall
    {
        type            calculated;
        value           nonuniform List<vector> 
20
(
(0 -0 7.33342e-14)
(0 -0 3.06876e-12)
(0 -0 -1.94608e-13)
(0 -0 3.05583e-13)
(0 -0 6.37676e-14)
(0 -0 1.56313e-13)
(0 -0 6.0763e-14)
(0 -0 1.19508e-13)
(0 -0 2.00376e-13)
(0 -0 8.56469e-14)
(0 -0 1.37018e-13)
(0 -0 9.37989e-14)
(0 -0 1.80226e-13)
(0 -0 8.37254e-14)
(0 -0 3.73765e-14)
(0 -0 1.26234e-13)
(0 -0 9.09152e-14)
(0 -0 5.23487e-14)
(0 -0 9.05011e-16)
(0 -0 9.85795e-14)
)
;
    }
    fixedWalls
    {
        type            calculated;
        value           nonuniform List<vector> 
60
(
(0 -0 1.27509e-11)
(0 -0 2.01071e-11)
(0 -0 -3.40418e-11)
(0 -0 1.94032e-11)
(0 -0 -4.76647e-12)
(0 -0 -1.66877e-12)
(0 -0 4.83417e-12)
(0 -0 -5.24947e-12)
(0 -0 3.21491e-12)
(0 -0 -2.63133e-12)
(0 -0 3.86192e-12)
(0 -0 -3.52062e-12)
(0 -0 3.006e-12)
(0 -0 -4.18682e-12)
(0 -0 5.97111e-12)
(0 -0 -5.93405e-12)
(0 -0 3.84164e-12)
(0 -0 -4.21516e-13)
(0 -0 3.40445e-12)
(0 -0 -1.41337e-11)
(0 -0 -1.42618e-15)
(0 -0 2.89723e-14)
(0 -0 6.86856e-14)
(0 -0 2.50772e-14)
(0 -0 -1.14911e-14)
(0 -0 9.25259e-16)
(0 -0 -2.10755e-14)
(0 -0 -1.05597e-14)
(0 -0 2.37834e-15)
(0 -0 -2.44712e-14)
(0 -0 -1.9938e-14)
(0 -0 -3.58762e-14)
(0 -0 -1.37841e-14)
(0 -0 -1.77881e-14)
(0 -0 1.26266e-14)
(0 -0 -2.13809e-14)
(0 -0 2.02583e-14)
(0 -0 2.97312e-14)
(0 -0 -1.3919e-14)
(0 -0 4.80043e-14)
(0 -0 6.35025e-12)
(0 -0 -4.58734e-12)
(0 -0 3.80559e-13)
(0 -0 -5.55893e-13)
(0 -0 -2.8309e-13)
(0 -0 -3.51833e-13)
(0 -0 -3.178e-13)
(0 -0 -2.34487e-13)
(0 -0 -2.6294e-13)
(0 -0 -2.58903e-13)
(0 -0 -1.81383e-13)
(0 -0 -1.76744e-13)
(0 -0 -1.67491e-13)
(0 -0 -1.77392e-13)
(0 -0 -9.24816e-14)
(0 -0 -7.43932e-15)
(0 -0 -5.00578e-14)
(0 -0 -1.12636e-15)
(0 -0 8.7186e-14)
(0 -0 2.30015e-16)
)
;
    }
    frontAndBack
    {
        type            empty;
    }
}


// ************************************************************************* //
