/*--------------------------------*- C++ -*----------------------------------*\
| =========                 |                                                 |
| \\      /  F ield         | OpenFOAM: The Open Source CFD Toolbox           |
|  \\    /   O peration     | Version:  2506                                  |
|   \\  /    A nd           | Website:  www.openfoam.com                      |
|    \\/     M anipulation  |                                                 |
\*---------------------------------------------------------------------------*/
FoamFile
{
    version     2.0;
    format      ascii;
    arch        "LSB;label=32;scalar=64";
    class       volScalarField;
    location    "5.25";
    object      zeroGradient(epsilon);
}
// * * * * * * * * * * * * * * * * * * * * * * * * * * * * * * * * * * * * * //

dimensions      [0 2 -3 0 0 0 0];

internalField   nonuniform List<scalar> 
400
(
7.1442e-06
7.14418e-06
7.14416e-06
7.14414e-06
7.14413e-06
7.14411e-06
7.14411e-06
7.14409e-06
7.14409e-06
7.14407e-06
7.14407e-06
7.14406e-06
7.14406e-06
7.14406e-06
7.14405e-06
7.14405e-06
7.14405e-06
7.14405e-06
7.14405e-06
7.14405e-06
8.00583e-06
7.83148e-06
7.84558e-06
7.85152e-06
7.86329e-06
7.86942e-06
7.88125e-06
7.8876e-06
7.89948e-06
7.90606e-06
7.91799e-06
7.92479e-06
7.93679e-06
7.94381e-06
7.95588e-06
7.96311e-06
7.97525e-06
7.9827e-06
7.98883e-06
7.99871e-06
9.21792e-06
9.00443e-06
9.02191e-06
9.02926e-06
9.04381e-06
9.05134e-06
9.06594e-06
9.0737e-06
9.08832e-06
9.09632e-06
9.11098e-06
9.1192e-06
9.13391e-06
9.14235e-06
9.1571e-06
9.16576e-06
9.18057e-06
9.18944e-06
9.19689e-06
9.20881e-06
1.03045e-05
1.00559e-05
1.00762e-05
1.00847e-05
1.01016e-05
1.01104e-05
1.01273e-05
1.01363e-05
1.01533e-05
1.01626e-05
1.01796e-05
1.01892e-05
1.02063e-05
1.02161e-05
1.02333e-05
1.02434e-05
1.02606e-05
1.02709e-05
1.02796e-05
1.02935e-05
1.10775e-05
1.08029e-05
1.08252e-05
1.08347e-05
1.08533e-05
1.08629e-05
1.08816e-05
1.08916e-05
1.09103e-05
1.09206e-05
1.09394e-05
1.09499e-05
1.09688e-05
1.09796e-05
1.09986e-05
1.10097e-05
1.10287e-05
1.10402e-05
1.10497e-05
1.10651e-05
1.15614e-05
1.12701e-05
1.12937e-05
1.13037e-05
1.13234e-05
1.13337e-05
1.13534e-05
1.1364e-05
1.13838e-05
1.13947e-05
1.14146e-05
1.14259e-05
1.14458e-05
1.14574e-05
1.14774e-05
1.14893e-05
1.15094e-05
1.15216e-05
1.15317e-05
1.1548e-05
1.18477e-05
1.15464e-05
1.15708e-05
1.15811e-05
1.16015e-05
1.16121e-05
1.16325e-05
1.16435e-05
1.1664e-05
1.16752e-05
1.16958e-05
1.17074e-05
1.1728e-05
1.174e-05
1.17607e-05
1.1773e-05
1.17938e-05
1.18064e-05
1.18168e-05
1.18337e-05
1.20192e-05
1.17119e-05
1.17369e-05
1.17474e-05
1.17681e-05
1.17789e-05
1.17998e-05
1.18109e-05
1.18318e-05
1.18433e-05
1.18643e-05
1.18761e-05
1.18971e-05
1.19093e-05
1.19304e-05
1.19429e-05
1.19642e-05
1.1977e-05
1.19877e-05
1.20048e-05
1.21311e-05
1.182e-05
1.18452e-05
1.18558e-05
1.18768e-05
1.18877e-05
1.19089e-05
1.19201e-05
1.19413e-05
1.19529e-05
1.19741e-05
1.19861e-05
1.20074e-05
1.20198e-05
1.20412e-05
1.20538e-05
1.20753e-05
1.20883e-05
1.20991e-05
1.21165e-05
1.22153e-05
1.19012e-05
1.19266e-05
1.19374e-05
1.19586e-05
1.19696e-05
1.19909e-05
1.20023e-05
1.20236e-05
1.20354e-05
1.20568e-05
1.20689e-05
1.20904e-05
1.21028e-05
1.21244e-05
1.21372e-05
1.21589e-05
1.2172e-05
1.2183e-05
1.22005e-05
1.2289e-05
1.19724e-05
1.1998e-05
1.20088e-05
1.20302e-05
1.20413e-05
1.20628e-05
1.20743e-05
1.20958e-05
1.21076e-05
1.21292e-05
1.21414e-05
1.21631e-05
1.21756e-05
1.21974e-05
1.22103e-05
1.22322e-05
1.22454e-05
1.22564e-05
1.22741e-05
1.23617e-05
1.20426e-05
1.20684e-05
1.20793e-05
1.21009e-05
1.21121e-05
1.21337e-05
1.21453e-05
1.2167e-05
1.21789e-05
1.22007e-05
1.22129e-05
1.22348e-05
1.22474e-05
1.22694e-05
1.22824e-05
1.23044e-05
1.23177e-05
1.23288e-05
1.23466e-05
1.24389e-05
1.21171e-05
1.21432e-05
1.21542e-05
1.21759e-05
1.21872e-05
1.2209e-05
1.22207e-05
1.22425e-05
1.22546e-05
1.22765e-05
1.22889e-05
1.23109e-05
1.23237e-05
1.23458e-05
1.23589e-05
1.23811e-05
1.23945e-05
1.24057e-05
1.24237e-05
1.25244e-05
1.21997e-05
1.2226e-05
1.2237e-05
1.2259e-05
1.22703e-05
1.22924e-05
1.23041e-05
1.23262e-05
1.23383e-05
1.23605e-05
1.2373e-05
1.23952e-05
1.24081e-05
1.24304e-05
1.24436e-05
1.2466e-05
1.24796e-05
1.24909e-05
1.2509e-05
1.26211e-05
1.2293e-05
1.23195e-05
1.23307e-05
1.23529e-05
1.23644e-05
1.23866e-05
1.23985e-05
1.24208e-05
1.2433e-05
1.24554e-05
1.2468e-05
1.24905e-05
1.25035e-05
1.2526e-05
1.25394e-05
1.2562e-05
1.25758e-05
1.25872e-05
1.26055e-05
1.27306e-05
1.23987e-05
1.24256e-05
1.24369e-05
1.24593e-05
1.24709e-05
1.24934e-05
1.25054e-05
1.2528e-05
1.25404e-05
1.2563e-05
1.25758e-05
1.25985e-05
1.26116e-05
1.26345e-05
1.2648e-05
1.26709e-05
1.26847e-05
1.26963e-05
1.27148e-05
1.28513e-05
1.25152e-05
1.25424e-05
1.25539e-05
1.25766e-05
1.25883e-05
1.26111e-05
1.26233e-05
1.26461e-05
1.26586e-05
1.26815e-05
1.26945e-05
1.27175e-05
1.27308e-05
1.27539e-05
1.27676e-05
1.27908e-05
1.28048e-05
1.28165e-05
1.28352e-05
1.29739e-05
1.26337e-05
1.26612e-05
1.26728e-05
1.26957e-05
1.27076e-05
1.27306e-05
1.2743e-05
1.2766e-05
1.27788e-05
1.28019e-05
1.2815e-05
1.28383e-05
1.28518e-05
1.28752e-05
1.2889e-05
1.29125e-05
1.29268e-05
1.29386e-05
1.29576e-05
1.30784e-05
1.27417e-05
1.27683e-05
1.27796e-05
1.2802e-05
1.28137e-05
1.28362e-05
1.28484e-05
1.2871e-05
1.28837e-05
1.29065e-05
1.29197e-05
1.29426e-05
1.29563e-05
1.29794e-05
1.29935e-05
1.30168e-05
1.30314e-05
1.30432e-05
1.30623e-05
1.31244e-05
1.31243e-05
1.31243e-05
1.31242e-05
1.31242e-05
1.31242e-05
1.31242e-05
1.31241e-05
1.31242e-05
1.31241e-05
1.31241e-05
1.31241e-05
1.31241e-05
1.31241e-05
1.31241e-05
1.31241e-05
1.31241e-05
1.31241e-05
1.31241e-05
1.31241e-05
)
;

boundaryField
{
    movingWall
    {
        type            zeroGradient;
    }
    fixedWalls
    {
        type            zeroGradient;
    }
    frontAndBack
    {
        type            empty;
    }
}


// ************************************************************************* //
