/*--------------------------------*- C++ -*----------------------------------*\
| =========                 |                                                 |
| \\      /  F ield         | OpenFOAM: The Open Source CFD Toolbox           |
|  \\    /   O peration     | Version:  2506                                  |
|   \\  /    A nd           | Website:  www.openfoam.com                      |
|    \\/     M anipulation  |                                                 |
\*---------------------------------------------------------------------------*/
FoamFile
{
    version     2.0;
    format      ascii;
    arch        "LSB;label=32;scalar=64";
    class       volVectorField;
    location    "9.75";
    object      diffU;
}
// * * * * * * * * * * * * * * * * * * * * * * * * * * * * * * * * * * * * * //

dimensions      [0 1 -1 0 0 0 0];

internalField   nonuniform List<vector> 
400
(
(0 0 0)
(2.28706e-14 -2.17165e-13 0)
(1.72085e-14 -1.69518e-13 0)
(1.75415e-14 -1.80681e-13 0)
(1.73195e-14 -1.7834e-13 0)
(1.74305e-14 -1.78856e-13 0)
(1.73195e-14 -1.78683e-13 0)
(1.73195e-14 -1.7866e-13 0)
(1.70974e-14 -1.78598e-13 0)
(1.68754e-14 -1.78661e-13 0)
(1.68754e-14 -1.78676e-13 0)
(1.69864e-14 -1.78706e-13 0)
(1.68754e-14 -1.78739e-13 0)
(1.70974e-14 -1.78693e-13 0)
(1.68754e-14 -1.78645e-13 0)
(1.64313e-14 -1.78713e-13 0)
(1.66533e-14 -1.78793e-13 0)
(1.66533e-14 -1.78816e-13 0)
(1.67644e-14 -1.7871e-13 0)
(1.66533e-14 -1.78762e-13 0)
(5.00711e-14 -1.73499e-13 0)
(6.21725e-15 -1.79931e-13 0)
(1.64313e-14 -1.78211e-13 0)
(1.55431e-14 -1.78707e-13 0)
(1.57652e-14 -1.7883e-13 0)
(1.59872e-14 -1.78852e-13 0)
(1.59872e-14 -1.7873e-13 0)
(1.57652e-14 -1.78579e-13 0)
(1.62093e-14 -1.78571e-13 0)
(1.62093e-14 -1.78738e-13 0)
(1.59872e-14 -1.78817e-13 0)
(1.59872e-14 -1.78814e-13 0)
(1.59872e-14 -1.78816e-13 0)
(1.62093e-14 -1.7877e-13 0)
(1.59872e-14 -1.78572e-13 0)
(1.64313e-14 -1.78644e-13 0)
(1.64313e-14 -1.78826e-13 0)
(1.64313e-14 -1.78924e-13 0)
(1.64313e-14 -1.78874e-13 0)
(1.66533e-14 -1.7882e-13 0)
(1.17684e-14 -3.42643e-13 0)
(1.85407e-14 -1.42858e-13 0)
(1.68754e-14 -1.87176e-13 0)
(1.64313e-14 -1.76815e-13 0)
(1.67644e-14 -1.79174e-13 0)
(1.62093e-14 -1.78746e-13 0)
(1.64313e-14 -1.78846e-13 0)
(1.64313e-14 -1.78698e-13 0)
(1.67644e-14 -1.78674e-13 0)
(1.67644e-14 -1.78761e-13 0)
(1.68754e-14 -1.78808e-13 0)
(1.69864e-14 -1.7875e-13 0)
(1.68754e-14 -1.78801e-13 0)
(1.67644e-14 -1.78855e-13 0)
(1.66533e-14 -1.78787e-13 0)
(1.69864e-14 -1.78797e-13 0)
(1.69864e-14 -1.78805e-13 0)
(1.68754e-14 -1.78878e-13 0)
(1.67644e-14 -1.78999e-13 0)
(1.66533e-14 -1.78896e-13 0)
(-1.02141e-14 -4.21701e-14 0)
(2.36478e-14 -2.07916e-13 0)
(1.57652e-14 -1.71822e-13 0)
(1.68754e-14 -1.80177e-13 0)
(1.66533e-14 -1.78267e-13 0)
(1.62093e-14 -1.788e-13 0)
(1.64313e-14 -1.78849e-13 0)
(1.62093e-14 -1.78975e-13 0)
(1.67644e-14 -1.78914e-13 0)
(1.66533e-14 -1.78834e-13 0)
(1.64313e-14 -1.78823e-13 0)
(1.69864e-14 -1.78756e-13 0)
(1.69864e-14 -1.7871e-13 0)
(1.66533e-14 -1.78725e-13 0)
(1.69864e-14 -1.78859e-13 0)
(1.67644e-14 -1.78862e-13 0)
(1.67644e-14 -1.78784e-13 0)
(1.67644e-14 -1.78714e-13 0)
(1.68754e-14 -1.7882e-13 0)
(1.66533e-14 -1.78842e-13 0)
(4.94049e-14 -1.85435e-13 0)
(7.99361e-15 -1.77482e-13 0)
(1.75415e-14 -1.78802e-13 0)
(1.66533e-14 -1.78599e-13 0)
(1.70974e-14 -1.78601e-13 0)
(1.70974e-14 -1.78716e-13 0)
(1.68754e-14 -1.78856e-13 0)
(1.70974e-14 -1.78972e-13 0)
(1.67644e-14 -1.78946e-13 0)
(1.68754e-14 -1.7885e-13 0)
(1.67644e-14 -1.78932e-13 0)
(1.68754e-14 -1.78964e-13 0)
(1.66533e-14 -1.78786e-13 0)
(1.66533e-14 -1.78703e-13 0)
(1.66533e-14 -1.78754e-13 0)
(1.66533e-14 -1.78769e-13 0)
(1.64313e-14 -1.78799e-13 0)
(1.64313e-14 -1.78822e-13 0)
(1.66533e-14 -1.78823e-13 0)
(1.66533e-14 -1.78798e-13 0)
(-4.66294e-15 -3.08611e-13 0)
(2.20934e-14 -1.50264e-13 0)
(1.62093e-14 -1.85313e-13 0)
(1.70974e-14 -1.77223e-13 0)
(1.67644e-14 -1.7898e-13 0)
(1.70974e-14 -1.78602e-13 0)
(1.69864e-14 -1.78769e-13 0)
(1.70974e-14 -1.78846e-13 0)
(1.69864e-14 -1.78913e-13 0)
(1.70974e-14 -1.78849e-13 0)
(1.72085e-14 -1.788e-13 0)
(1.70974e-14 -1.788e-13 0)
(1.68754e-14 -1.78753e-13 0)
(1.66533e-14 -1.78738e-13 0)
(1.67644e-14 -1.78829e-13 0)
(1.69864e-14 -1.78753e-13 0)
(1.68754e-14 -1.78741e-13 0)
(1.67644e-14 -1.78847e-13 0)
(1.67644e-14 -1.78813e-13 0)
(1.67644e-14 -1.78759e-13 0)
(2.04281e-14 2.31974e-15 0)
(1.64313e-14 -2.17625e-13 0)
(1.74305e-14 -1.69722e-13 0)
(1.64313e-14 -1.80721e-13 0)
(1.72085e-14 -1.78305e-13 0)
(1.69864e-14 -1.78917e-13 0)
(1.69864e-14 -1.78932e-13 0)
(1.70974e-14 -1.79043e-13 0)
(1.72085e-14 -1.79031e-13 0)
(1.70974e-14 -1.78925e-13 0)
(1.68754e-14 -1.78754e-13 0)
(1.68754e-14 -1.78639e-13 0)
(1.67644e-14 -1.78621e-13 0)
(1.69864e-14 -1.78655e-13 0)
(1.66533e-14 -1.78808e-13 0)
(1.66533e-14 -1.78822e-13 0)
(1.66533e-14 -1.78801e-13 0)
(1.68754e-14 -1.78759e-13 0)
(1.67644e-14 -1.78697e-13 0)
(1.66533e-14 -1.78706e-13 0)
(2.14273e-14 -2.56284e-13 0)
(1.39888e-14 -1.62111e-13 0)
(1.57652e-14 -1.82891e-13 0)
(1.68754e-14 -1.77997e-13 0)
(1.67644e-14 -1.78972e-13 0)
(1.67644e-14 -1.78785e-13 0)
(1.66533e-14 -1.7897e-13 0)
(1.64313e-14 -1.78898e-13 0)
(1.64313e-14 -1.78753e-13 0)
(1.62093e-14 -1.78664e-13 0)
(1.62093e-14 -1.78643e-13 0)
(1.62093e-14 -1.78675e-13 0)
(1.62093e-14 -1.78695e-13 0)
(1.64313e-14 -1.78745e-13 0)
(1.66533e-14 -1.78768e-13 0)
(1.66533e-14 -1.78813e-13 0)
(1.64313e-14 -1.78767e-13 0)
(1.62093e-14 -1.78769e-13 0)
(1.66533e-14 -1.78731e-13 0)
(1.66533e-14 -1.78744e-13 0)
(1.33227e-15 -2.5311e-13 0)
(2.16493e-14 -1.63553e-13 0)
(1.67644e-14 -1.82626e-13 0)
(1.64313e-14 -1.78144e-13 0)
(1.64313e-14 -1.79045e-13 0)
(1.64313e-14 -1.78716e-13 0)
(1.66533e-14 -1.78686e-13 0)
(1.62093e-14 -1.78626e-13 0)
(1.59872e-14 -1.78633e-13 0)
(1.62093e-14 -1.78717e-13 0)
(1.66533e-14 -1.78772e-13 0)
(1.66533e-14 -1.78828e-13 0)
(1.66533e-14 -1.78881e-13 0)
(1.67644e-14 -1.78913e-13 0)
(1.66533e-14 -1.78774e-13 0)
(1.64313e-14 -1.78628e-13 0)
(1.66533e-14 -1.78645e-13 0)
(1.64313e-14 -1.78804e-13 0)
(1.66533e-14 -1.7887e-13 0)
(1.67644e-14 -1.78807e-13 0)
(2.74225e-14 1.00412e-15 0)
(1.35447e-14 -2.18369e-13 0)
(1.64313e-14 -1.69618e-13 0)
(1.59872e-14 -1.80953e-13 0)
(1.62093e-14 -1.7844e-13 0)
(1.62093e-14 -1.78873e-13 0)
(1.64313e-14 -1.7867e-13 0)
(1.64313e-14 -1.7867e-13 0)
(1.67644e-14 -1.7872e-13 0)
(1.67644e-14 -1.78887e-13 0)
(1.69864e-14 -1.78895e-13 0)
(1.67644e-14 -1.78804e-13 0)
(1.68754e-14 -1.78677e-13 0)
(1.67644e-14 -1.7866e-13 0)
(1.64313e-14 -1.78735e-13 0)
(1.64313e-14 -1.788e-13 0)
(1.66533e-14 -1.78796e-13 0)
(1.67644e-14 -1.78788e-13 0)
(1.67644e-14 -1.78829e-13 0)
(1.67644e-14 -1.78801e-13 0)
(1.62093e-14 -3.70492e-13 0)
(1.59872e-14 -1.36531e-13 0)
(1.59872e-14 -1.88629e-13 0)
(1.66533e-14 -1.7669e-13 0)
(1.62093e-14 -1.79388e-13 0)
(1.64313e-14 -1.7881e-13 0)
(1.64313e-14 -1.78948e-13 0)
(1.62093e-14 -1.78947e-13 0)
(1.67644e-14 -1.78995e-13 0)
(1.67644e-14 -1.78948e-13 0)
(1.67644e-14 -1.78793e-13 0)
(1.66533e-14 -1.78747e-13 0)
(1.64313e-14 -1.78747e-13 0)
(1.67644e-14 -1.78666e-13 0)
(1.68754e-14 -1.78693e-13 0)
(1.67644e-14 -1.78861e-13 0)
(1.68754e-14 -1.7887e-13 0)
(1.66533e-14 -1.78761e-13 0)
(1.66533e-14 -1.78717e-13 0)
(1.68754e-14 -1.7873e-13 0)
(1.77636e-14 -6.29875e-14 0)
(1.94289e-14 -2.04325e-13 0)
(1.90958e-14 -1.72856e-13 0)
(1.74305e-14 -1.7999e-13 0)
(1.74305e-14 -1.7843e-13 0)
(1.72085e-14 -1.78885e-13 0)
(1.72085e-14 -1.78778e-13 0)
(1.68754e-14 -1.78825e-13 0)
(1.66533e-14 -1.78884e-13 0)
(1.64313e-14 -1.78786e-13 0)
(1.59872e-14 -1.78706e-13 0)
(1.66533e-14 -1.78753e-13 0)
(1.66533e-14 -1.78936e-13 0)
(1.64313e-14 -1.78875e-13 0)
(1.64313e-14 -1.7872e-13 0)
(1.66533e-14 -1.78818e-13 0)
(1.66533e-14 -1.7888e-13 0)
(1.67644e-14 -1.78736e-13 0)
(1.66533e-14 -1.78653e-13 0)
(1.67644e-14 -1.78716e-13 0)
(2.08722e-14 -1.67256e-13 0)
(1.35447e-14 -1.80689e-13 0)
(1.5099e-14 -1.78135e-13 0)
(1.66533e-14 -1.78538e-13 0)
(1.62093e-14 -1.78482e-13 0)
(1.62093e-14 -1.78628e-13 0)
(1.59872e-14 -1.78653e-13 0)
(1.62093e-14 -1.78672e-13 0)
(1.59872e-14 -1.78711e-13 0)
(1.62093e-14 -1.78765e-13 0)
(1.62093e-14 -1.78875e-13 0)
(1.66533e-14 -1.78813e-13 0)
(1.66533e-14 -1.78865e-13 0)
(1.62093e-14 -1.78982e-13 0)
(1.64313e-14 -1.78949e-13 0)
(1.66533e-14 -1.78842e-13 0)
(1.67644e-14 -1.78752e-13 0)
(1.62093e-14 -1.78719e-13 0)
(1.64313e-14 -1.78761e-13 0)
(1.66533e-14 -1.78772e-13 0)
(7.10543e-15 -3.14772e-13 0)
(2.0095e-14 -1.4901e-13 0)
(1.66533e-14 -1.85592e-13 0)
(1.64313e-14 -1.77111e-13 0)
(1.67644e-14 -1.79051e-13 0)
(1.68754e-14 -1.78658e-13 0)
(1.69864e-14 -1.78743e-13 0)
(1.69864e-14 -1.7878e-13 0)
(1.69864e-14 -1.78825e-13 0)
(1.68754e-14 -1.78925e-13 0)
(1.67644e-14 -1.78994e-13 0)
(1.66533e-14 -1.78882e-13 0)
(1.68754e-14 -1.78794e-13 0)
(1.68754e-14 -1.7882e-13 0)
(1.64313e-14 -1.78833e-13 0)
(1.64313e-14 -1.78742e-13 0)
(1.64313e-14 -1.78709e-13 0)
(1.66533e-14 -1.78806e-13 0)
(1.66533e-14 -1.78919e-13 0)
(1.66533e-14 -1.78845e-13 0)
(5.32907e-15 1.43753e-14 0)
(1.89848e-14 -2.21904e-13 0)
(1.62093e-14 -1.68721e-13 0)
(1.69864e-14 -1.81002e-13 0)
(1.67644e-14 -1.78204e-13 0)
(1.67644e-14 -1.78795e-13 0)
(1.64313e-14 -1.78716e-13 0)
(1.66533e-14 -1.78768e-13 0)
(1.67644e-14 -1.78661e-13 0)
(1.66533e-14 -1.78679e-13 0)
(1.66533e-14 -1.78703e-13 0)
(1.64313e-14 -1.78775e-13 0)
(1.64313e-14 -1.78762e-13 0)
(1.64313e-14 -1.78782e-13 0)
(1.64313e-14 -1.78801e-13 0)
(1.68754e-14 -1.78784e-13 0)
(1.66533e-14 -1.78727e-13 0)
(1.66533e-14 -1.78787e-13 0)
(1.66533e-14 -1.78839e-13 0)
(1.67644e-14 -1.78805e-13 0)
(4.87388e-14 -2.91496e-13 0)
(7.32747e-15 -1.54091e-13 0)
(1.72085e-14 -1.847e-13 0)
(1.55431e-14 -1.77516e-13 0)
(1.64313e-14 -1.79061e-13 0)
(1.62093e-14 -1.78696e-13 0)
(1.66533e-14 -1.78792e-13 0)
(1.62093e-14 -1.78783e-13 0)
(1.62093e-14 -1.78769e-13 0)
(1.66533e-14 -1.78792e-13 0)
(1.66533e-14 -1.78805e-13 0)
(1.67644e-14 -1.78819e-13 0)
(1.68754e-14 -1.78852e-13 0)
(1.69864e-14 -1.78888e-13 0)
(1.69864e-14 -1.7888e-13 0)
(1.66533e-14 -1.78773e-13 0)
(1.66533e-14 -1.78732e-13 0)
(1.67644e-14 -1.7877e-13 0)
(1.66533e-14 -1.78782e-13 0)
(1.66533e-14 -1.7876e-13 0)
(-1.57652e-14 -2.19503e-13 0)
(2.63123e-14 -1.69667e-13 0)
(1.59872e-14 -1.8096e-13 0)
(1.74305e-14 -1.78416e-13 0)
(1.67644e-14 -1.79035e-13 0)
(1.68754e-14 -1.78843e-13 0)
(1.68754e-14 -1.78795e-13 0)
(1.67644e-14 -1.7885e-13 0)
(1.70974e-14 -1.78964e-13 0)
(1.72085e-14 -1.78964e-13 0)
(1.68754e-14 -1.78947e-13 0)
(1.67644e-14 -1.78879e-13 0)
(1.66533e-14 -1.78763e-13 0)
(1.67644e-14 -1.78673e-13 0)
(1.66533e-14 -1.78724e-13 0)
(1.66533e-14 -1.78727e-13 0)
(1.67644e-14 -1.78775e-13 0)
(1.66533e-14 -1.78757e-13 0)
(1.68754e-14 -1.78731e-13 0)
(1.66533e-14 -1.78767e-13 0)
(9.54792e-15 -2.68055e-14 0)
(1.79856e-14 -2.11971e-13 0)
(1.59872e-14 -1.70856e-13 0)
(1.67644e-14 -1.80637e-13 0)
(1.67644e-14 -1.78481e-13 0)
(1.68754e-14 -1.78869e-13 0)
(1.68754e-14 -1.78736e-13 0)
(1.68754e-14 -1.78722e-13 0)
(1.64313e-14 -1.78699e-13 0)
(1.64313e-14 -1.78698e-13 0)
(1.62093e-14 -1.78763e-13 0)
(1.62093e-14 -1.7885e-13 0)
(1.62093e-14 -1.78848e-13 0)
(1.64313e-14 -1.78863e-13 0)
(1.66533e-14 -1.78886e-13 0)
(1.64313e-14 -1.78831e-13 0)
(1.67644e-14 -1.78721e-13 0)
(1.64313e-14 -1.78694e-13 0)
(1.64313e-14 -1.78742e-13 0)
(1.66533e-14 -1.78752e-13 0)
(5.77316e-14 -2.3896e-13 0)
(6.21725e-15 -1.66199e-13 0)
(1.78746e-14 -1.81918e-13 0)
(1.62093e-14 -1.7842e-13 0)
(1.66533e-14 -1.79024e-13 0)
(1.62093e-14 -1.78755e-13 0)
(1.62093e-14 -1.78807e-13 0)
(1.62093e-14 -1.78748e-13 0)
(1.64313e-14 -1.78758e-13 0)
(1.67644e-14 -1.78782e-13 0)
(1.68754e-14 -1.78858e-13 0)
(1.68754e-14 -1.78908e-13 0)
(1.69864e-14 -1.7889e-13 0)
(1.68754e-14 -1.78962e-13 0)
(1.66533e-14 -1.78925e-13 0)
(1.67644e-14 -1.78787e-13 0)
(1.64313e-14 -1.7872e-13 0)
(1.67644e-14 -1.78698e-13 0)
(1.66533e-14 -1.78744e-13 0)
(1.66533e-14 -1.78797e-13 0)
(0 -2.81459e-13 0)
(2.17604e-14 -1.56564e-13 0)
(1.72085e-14 -1.84124e-13 0)
(1.73195e-14 -1.77759e-13 0)
(1.72085e-14 -1.79069e-13 0)
(1.72085e-14 -1.78762e-13 0)
(1.72085e-14 -1.7888e-13 0)
(1.70974e-14 -1.78904e-13 0)
(1.70974e-14 -1.78922e-13 0)
(1.69864e-14 -1.78879e-13 0)
(1.68754e-14 -1.78871e-13 0)
(1.66533e-14 -1.78855e-13 0)
(1.64313e-14 -1.78771e-13 0)
(1.66533e-14 -1.78797e-13 0)
(1.64313e-14 -1.78777e-13 0)
(1.64313e-14 -1.78692e-13 0)
(1.66533e-14 -1.78728e-13 0)
(1.66533e-14 -1.78752e-13 0)
(1.67644e-14 -1.78729e-13 0)
(1.67644e-14 -1.78803e-13 0)
)
;

boundaryField
{
    movingWall
    {
        type            calculated;
        value           uniform (1.66533e-14 -1.78778e-13 0);
    }
    fixedWalls
    {
        type            calculated;
        value           uniform (1.66533e-14 -1.78778e-13 0);
    }
    frontAndBack
    {
        type            empty;
    }
}


// ************************************************************************* //
