/*--------------------------------*- C++ -*----------------------------------*\
| =========                 |                                                 |
| \\      /  F ield         | OpenFOAM: The Open Source CFD Toolbox           |
|  \\    /   O peration     | Version:  2506                                  |
|   \\  /    A nd           | Website:  www.openfoam.com                      |
|    \\/     M anipulation  |                                                 |
\*---------------------------------------------------------------------------*/
FoamFile
{
    version     2.0;
    format      ascii;
    arch        "LSB;label=32;scalar=64";
    class       volScalarField;
    location    "9.75";
    object      divPhi;
}
// * * * * * * * * * * * * * * * * * * * * * * * * * * * * * * * * * * * * * //

dimensions      [0 0 -1 0 0 0 0];

internalField   nonuniform List<scalar> 
400
(
1.35525e-13
-5.6188e-15
1.2549e-14
-2.38291e-14
-1.36418e-15
1.17467e-14
-1.16471e-14
-3.43949e-19
2.29065e-14
-1.73661e-14
4.37969e-15
4.87415e-15
-5.30011e-15
6.84259e-15
-8.59109e-15
6.90252e-15
-7.74177e-16
-4.0585e-15
8.26515e-16
0
2.71051e-14
-2.70322e-14
5.55114e-15
2.35674e-15
-4.66103e-15
1.76492e-14
1.61066e-14
-1.90506e-14
2.0148e-15
-7.30971e-15
-1.58428e-15
2.55064e-15
2.20514e-15
1.65136e-14
-1.80322e-14
4.41276e-15
1.70122e-14
-2.03117e-14
-1.4716e-14
0
-2.71051e-14
8.47334e-15
1.62714e-14
-5.05183e-15
-2.58697e-14
2.50119e-15
-6.87878e-15
1.66168e-14
3.2639e-16
-1.29512e-14
1.54243e-14
-1.77809e-14
-2.09822e-14
3.96275e-15
2.33769e-14
1.07147e-14
-4.70236e-15
-2.24599e-14
1.09003e-14
0
2.71051e-14
-2.01595e-14
-1.16295e-14
1.47874e-15
-1.06823e-14
3.5995e-15
-1.57707e-14
-1.78865e-14
-9.56548e-15
-1.08515e-14
-2.20636e-14
2.66045e-14
-3.64171e-15
-1.614e-14
-1.00272e-14
2.68911e-14
-7.69637e-15
7.20081e-16
1.8272e-14
0
0
2.90761e-14
-2.93293e-14
2.30687e-14
4.3109e-15
2.66391e-15
2.1802e-14
3.07116e-16
-1.40304e-15
-2.66633e-15
-1.36925e-15
-1.87856e-14
2.11933e-17
9.39322e-15
1.05373e-14
3.18151e-15
-1.81055e-14
-1.86248e-14
9.8832e-15
0
0
-1.76381e-14
-1.11527e-14
2.33562e-14
3.05311e-15
-2.572e-14
-1.12859e-14
1.52554e-15
1.47982e-14
-1.11943e-14
-1.83533e-14
-1.0971e-14
2.39455e-15
1.7957e-14
-8.08842e-16
-3.28503e-15
4.47209e-15
2.45292e-14
7.18193e-15
0
2.71051e-14
-1.78159e-14
3.53643e-15
-2.20701e-14
-8.111e-15
-1.34874e-14
-1.22765e-14
1.19154e-14
5.37726e-15
-2.68224e-14
4.19217e-14
-8.29736e-15
-8.09605e-15
-3.11788e-14
1.2979e-14
-7.36728e-15
9.20342e-15
4.09191e-15
-2.29457e-15
-2.71051e-14
0
-8.54713e-15
1.83218e-15
-9.08156e-16
-3.14089e-14
4.7436e-15
-1.23771e-14
2.34558e-16
1.23045e-14
1.73675e-14
-2.67984e-14
7.35625e-15
-5.47068e-15
-1.84232e-14
2.44119e-14
4.20885e-15
2.99809e-15
-5.81747e-15
-1.46357e-14
2.71051e-14
-2.71051e-14
4.77107e-15
1.01546e-14
1.53757e-16
-1.18875e-14
-7.44331e-15
7.29052e-16
3.94838e-15
2.27141e-14
-2.09766e-15
9.41413e-15
-6.02364e-16
4.58793e-15
1.94865e-14
-2.98057e-15
-9.90478e-16
1.43385e-14
2.27848e-15
8.99543e-15
-2.71051e-14
2.71051e-14
2.11713e-14
-2.07281e-17
6.3316e-15
-2.62984e-14
-3.68152e-15
-1.2756e-14
1.62217e-14
-2.88871e-15
2.93724e-15
1.18011e-14
-1.30729e-14
1.9321e-14
-3.97496e-14
2.10582e-14
-2.08573e-14
-1.98243e-14
2.70411e-14
-1.88695e-14
2.71051e-14
-2.71051e-14
-2.41742e-14
7.28022e-15
-2.33349e-16
-8.45976e-15
5.83269e-15
-1.3046e-14
-8.40101e-17
-3.93134e-16
2.34216e-15
1.25546e-14
-3.5565e-14
1.85548e-15
-1.3287e-14
-1.32786e-14
-8.37218e-15
1.70467e-14
-1.72516e-14
1.63308e-14
2.71051e-14
2.71051e-14
1.41363e-14
9.90397e-15
-9.37956e-15
-1.70143e-14
6.41868e-15
-1.98035e-14
-4.91735e-15
9.59665e-15
-2.44671e-14
2.34096e-14
-1.86045e-15
-2.33315e-14
9.07588e-17
-3.47682e-15
-4.60556e-15
-2.46063e-14
2.24532e-14
-3.56054e-14
0
-2.71051e-14
-7.89854e-15
2.99069e-14
1.54313e-15
5.33737e-15
-1.48789e-15
2.15503e-14
-2.52249e-14
2.59925e-14
-1.36171e-14
-9.34876e-15
1.3402e-14
-3.35702e-15
-1.65827e-15
1.30794e-14
-1.08528e-14
2.46539e-14
-9.96642e-15
-1.93693e-14
0
0
7.84763e-15
-4.06207e-15
2.10102e-15
-1.47389e-14
9.52802e-15
-1.91486e-14
5.38041e-15
9.89771e-15
2.37012e-14
-1.48982e-14
5.45838e-15
2.02125e-14
1.23572e-15
1.14765e-14
-4.26332e-14
2.12118e-15
-6.02206e-15
1.47426e-14
0
2.71051e-14
-7.99533e-15
1.65563e-14
-3.01475e-14
3.4975e-14
-1.05497e-14
8.24149e-15
-1.22657e-14
8.09325e-15
1.03675e-14
4.12099e-14
-2.10564e-14
2.49173e-15
-8.15647e-15
3.21368e-14
1.43731e-14
-9.23786e-15
-4.63268e-15
1.20115e-14
2.71051e-14
-2.71051e-14
-5.45324e-15
2.36573e-15
-1.73863e-14
-1.74689e-18
-9.59664e-15
-8.42474e-15
7.62392e-15
-7.6383e-15
5.12034e-15
-6.49175e-15
7.16013e-15
-9.91555e-15
-5.39856e-15
1.98343e-14
-9.89306e-15
-2.23111e-14
-1.84266e-14
3.10895e-14
-2.71051e-14
0
6.33016e-15
-2.7889e-14
1.84936e-14
1.10249e-14
-8.53126e-15
4.93883e-15
1.10649e-14
-4.90189e-16
-1.37283e-14
-4.76249e-15
1.80492e-14
-2.89882e-14
-1.99777e-14
-1.16783e-16
-2.21247e-15
-2.0557e-14
3.16588e-14
-9.22942e-15
0
0
3.54049e-14
-2.40536e-14
-2.68159e-15
3.57826e-14
-1.40935e-14
2.70051e-16
1.97806e-14
-2.88162e-14
1.31956e-14
-7.08848e-15
-2.1664e-14
4.79438e-15
-5.74439e-15
-1.56293e-15
5.61873e-15
-2.28644e-14
-7.85786e-16
-1.3031e-15
0
0
8.42509e-15
7.3272e-15
-1.01704e-14
1.98824e-14
7.37598e-15
1.37965e-14
-1.18732e-14
-1.99162e-14
1.35433e-14
7.21624e-15
-1.2072e-15
1.51416e-14
-1.8637e-14
1.28843e-14
-6.19579e-17
1.57662e-14
2.09823e-15
-1.12815e-14
2.71051e-14
0
0
2.71051e-14
0
0
0
0
0
0
0
2.71051e-14
0
-2.71051e-14
0
2.71051e-14
0
0
-2.71051e-14
0
-2.71051e-14
)
;

boundaryField
{
    movingWall
    {
        type            extrapolatedCalculated;
        value           nonuniform List<scalar> 
20
(
0
0
2.71051e-14
0
0
0
0
0
0
0
2.71051e-14
0
-2.71051e-14
0
2.71051e-14
0
0
-2.71051e-14
0
-2.71051e-14
)
;
    }
    fixedWalls
    {
        type            extrapolatedCalculated;
        value           nonuniform List<scalar> 
60
(
1.35525e-13
2.71051e-14
-2.71051e-14
2.71051e-14
0
0
2.71051e-14
0
-2.71051e-14
2.71051e-14
-2.71051e-14
2.71051e-14
-2.71051e-14
0
2.71051e-14
-2.71051e-14
0
0
0
0
0
0
0
0
0
0
-2.71051e-14
2.71051e-14
-2.71051e-14
2.71051e-14
2.71051e-14
0
0
0
2.71051e-14
-2.71051e-14
0
0
2.71051e-14
-2.71051e-14
1.35525e-13
-5.6188e-15
1.2549e-14
-2.38291e-14
-1.36418e-15
1.17467e-14
-1.16471e-14
-3.43949e-19
2.29065e-14
-1.73661e-14
4.37969e-15
4.87415e-15
-5.30011e-15
6.84259e-15
-8.59109e-15
6.90252e-15
-7.74177e-16
-4.0585e-15
8.26515e-16
0
)
;
    }
    frontAndBack
    {
        type            empty;
    }
}


// ************************************************************************* //
