/*--------------------------------*- C++ -*----------------------------------*\
| =========                 |                                                 |
| \\      /  F ield         | OpenFOAM: The Open Source CFD Toolbox           |
|  \\    /   O peration     | Version:  2506                                  |
|   \\  /    A nd           | Website:  www.openfoam.com                      |
|    \\/     M anipulation  |                                                 |
\*---------------------------------------------------------------------------*/
FoamFile
{
    version     2.0;
    format      ascii;
    arch        "LSB;label=32;scalar=64";
    class       volScalarField;
    location    "9.75";
    object      divU;
}
// * * * * * * * * * * * * * * * * * * * * * * * * * * * * * * * * * * * * * //

dimensions      [0 0 -1 0 0 0 0];

internalField   nonuniform List<scalar> 
400
(
1.73472e-11
-2.21922e-12
4.67729e-13
-1.83076e-13
3.86963e-14
-4.2275e-14
1.43643e-14
4.6967e-15
-1.54089e-14
1.57571e-14
6.41212e-15
3.66421e-15
1.82826e-16
9.36234e-15
-2.01713e-14
-3.42502e-14
4.80161e-14
-1.83421e-14
-2.72923e-15
0
-3.19298e-11
4.07313e-12
-8.37268e-13
3.39035e-13
-1.75942e-14
2.29534e-14
-2.89434e-14
8.63082e-16
5.82854e-14
-7.54851e-14
-6.79421e-15
-7.80048e-16
-5.97676e-15
-6.80269e-15
4.69247e-14
1.15382e-14
-7.42094e-15
2.59609e-15
2.26426e-14
-2.71051e-14
1.28207e-11
-2.2761e-12
4.2508e-13
-1.60334e-13
1.15933e-14
1.08964e-15
-1.38018e-14
1.5496e-14
-3.13737e-15
2.32831e-14
-7.42052e-15
5.06241e-15
4.60632e-15
-2.93913e-14
-8.91514e-15
-1.02775e-14
-3.182e-15
-3.54607e-15
-2.62367e-14
0
1.36881e-11
-8.3257e-13
1.24116e-13
-6.76974e-14
-1.24311e-14
-2.29689e-14
3.93196e-14
-3.89592e-14
5.09656e-14
-3.98957e-14
-1.98662e-14
3.78829e-14
6.08078e-15
-1.42225e-14
2.14808e-14
-3.45179e-14
-2.57487e-15
2.91374e-14
-8.70072e-15
0
-2.4259e-11
2.57447e-12
-4.93174e-13
2.54829e-13
-5.66259e-14
-3.20234e-15
2.02392e-14
1.0337e-15
-3.18682e-15
-1.42476e-14
-1.755e-14
6.30553e-15
-2.53452e-14
1.15575e-14
-2.59562e-15
3.52519e-15
-5.25579e-14
4.29369e-14
-7.97564e-15
0
1.71846e-11
-1.9006e-12
3.87699e-13
-1.47149e-13
2.71327e-14
-2.33056e-14
-1.43767e-14
2.10236e-14
-3.87374e-14
3.25011e-14
5.44643e-14
-1.538e-14
-8.89678e-15
-1.07324e-14
4.6181e-14
-1.79849e-15
1.47605e-15
-3.20023e-14
4.65361e-15
-2.71051e-14
5.58364e-12
-1.48615e-12
2.50425e-13
-1.1614e-13
5.49841e-14
-4.16103e-14
1.97016e-14
1.58362e-14
-2.26652e-14
-3.19639e-15
1.59263e-14
2.42965e-14
-3.11871e-15
-1.1392e-14
-5.6119e-14
-7.76993e-15
2.60452e-14
2.94848e-15
-1.42408e-14
0
-2.53161e-11
4.84259e-12
-1.01285e-12
3.85505e-13
-1.00282e-13
3.2668e-14
-9.97133e-15
-2.38519e-14
1.70855e-14
1.75863e-14
-1.2971e-14
-2.174e-14
-1.95027e-15
1.69951e-14
1.51116e-15
1.16096e-14
-6.68204e-14
2.55254e-14
4.98047e-14
0
2.46927e-11
-4.09e-12
8.02309e-13
-3.43827e-13
6.14176e-14
-3.21052e-15
2.01037e-14
-1.08227e-15
-6.81379e-15
-4.79192e-15
1.60759e-14
-7.59378e-15
-1.4307e-16
-1.63202e-15
4.7885e-15
-4.13472e-14
3.86873e-14
-3.52853e-15
-1.42434e-14
0
-1.09775e-11
1.64805e-12
-3.94303e-13
1.54002e-13
-2.71348e-14
-1.2625e-14
-6.1055e-15
2.10804e-14
-1.59176e-14
-7.67085e-16
-1.31363e-14
5.84771e-16
-1.39066e-14
-4.01834e-15
-4.13258e-14
4.37365e-14
-1.09255e-14
2.78081e-14
2.81161e-14
-2.71051e-14
-6.47811e-12
1.34484e-12
-2.57322e-13
1.14776e-13
-2.61817e-14
1.32188e-14
-1.69651e-14
-2.1493e-14
7.61239e-14
9.39366e-15
-2.13786e-14
-4.84686e-14
4.15716e-14
2.86551e-14
1.43792e-14
-3.93217e-14
-1.93605e-14
-2.11706e-14
4.5704e-14
-2.71051e-14
2.07083e-11
-4.26366e-12
8.19174e-13
-3.41078e-13
6.44911e-14
4.29949e-15
1.25707e-14
-2.10921e-14
-5.80381e-14
5.60024e-16
-2.40197e-15
8.03673e-14
-7.85877e-14
-3.00937e-14
1.59292e-14
-1.02788e-14
1.95916e-14
1.02238e-14
1.42632e-14
-2.71051e-14
-2.50722e-11
4.98123e-12
-1.02357e-12
4.34766e-13
-7.894e-14
2.70048e-14
-3.8164e-14
6.46481e-14
2.04848e-15
-1.3315e-14
-4.0514e-15
4.03602e-14
-3.72876e-14
-2.45086e-14
5.88594e-14
2.4403e-14
-7.16832e-14
3.219e-15
1.48582e-14
0
1.7537e-11
-3.17891e-12
6.22532e-13
-2.45317e-13
8.43114e-14
-1.67753e-14
-1.73711e-14
7.94379e-16
7.04995e-15
-4.72068e-15
-4.11361e-14
4.41731e-14
2.71899e-14
-3.1581e-14
-3.48469e-14
3.13252e-15
1.21325e-14
5.05572e-14
-2.00641e-14
0
1.43657e-12
5.68532e-13
-1.01483e-13
1.23144e-14
-2.51202e-14
-2.05667e-14
4.8376e-15
5.14281e-16
3.97954e-14
-1.85703e-14
3.19048e-14
-5.79427e-14
-5.77008e-15
-1.12934e-14
4.1731e-14
2.70662e-14
-1.72517e-14
-5.50214e-17
4.78011e-14
-2.71051e-14
-2.11148e-11
2.05177e-12
-3.76652e-13
1.89533e-13
-2.69106e-14
2.88512e-14
-3.09084e-15
-3.47484e-14
9.49126e-15
3.42777e-14
7.5639e-15
-1.40836e-14
2.12606e-14
-4.51031e-16
-4.78937e-15
-4.86267e-14
3.21556e-14
-2.40905e-14
4.34109e-15
0
2.41777e-11
-2.62494e-12
4.92784e-13
-2.3094e-13
3.11203e-14
-1.55584e-14
2.51113e-15
-1.52189e-15
7.06778e-14
-1.05718e-14
-1.53322e-14
-1.72538e-14
-5.41275e-15
1.99426e-15
-3.24913e-14
2.68957e-14
-2.1038e-14
3.7732e-14
8.29367e-15
-2.71051e-14
-2.49366e-12
9.74418e-13
-1.9942e-13
9.39322e-14
3.22958e-14
2.03938e-14
1.29937e-15
-4.55509e-14
-4.43018e-14
7.60225e-15
-6.41404e-15
6.93368e-15
8.96624e-15
2.73872e-14
-2.54754e-14
-6.18452e-15
1.15775e-14
-3.76843e-14
6.12384e-14
0
-2.24159e-11
1.55491e-12
-3.336e-13
1.64865e-13
-5.35543e-14
-2.30596e-14
-1.30503e-14
1.75795e-14
4.18608e-14
1.66398e-14
9.95733e-15
6.50913e-15
1.66524e-14
-2.02073e-14
1.25734e-14
-1.93397e-14
1.08959e-14
-1.64064e-14
8.4204e-15
0
1.51246e-11
-1.76183e-12
4.06576e-13
-1.35525e-13
5.42101e-14
0
-2.71051e-14
0
0
-2.71051e-14
0
0
0
2.71051e-14
-2.71051e-14
5.42101e-14
0
2.71051e-14
0
-2.71051e-14
)
;

boundaryField
{
    movingWall
    {
        type            extrapolatedCalculated;
        value           nonuniform List<scalar> 
20
(
1.51246e-11
-1.76183e-12
4.06576e-13
-1.35525e-13
5.42101e-14
0
-2.71051e-14
0
0
-2.71051e-14
0
0
0
2.71051e-14
-2.71051e-14
5.42101e-14
0
2.71051e-14
0
-2.71051e-14
)
;
    }
    fixedWalls
    {
        type            extrapolatedCalculated;
        value           nonuniform List<scalar> 
60
(
1.73472e-11
-3.19298e-11
1.28207e-11
1.36881e-11
-2.4259e-11
1.71846e-11
5.58364e-12
-2.53161e-11
2.46927e-11
-1.09775e-11
-6.47811e-12
2.07083e-11
-2.50722e-11
1.7537e-11
1.43657e-12
-2.11148e-11
2.41777e-11
-2.49366e-12
-2.24159e-11
1.51246e-11
0
-2.71051e-14
0
0
0
-2.71051e-14
0
0
0
-2.71051e-14
-2.71051e-14
-2.71051e-14
0
0
-2.71051e-14
0
-2.71051e-14
0
0
-2.71051e-14
1.73472e-11
-2.21922e-12
4.67729e-13
-1.83076e-13
3.86963e-14
-4.2275e-14
1.43643e-14
4.6967e-15
-1.54089e-14
1.57571e-14
6.41212e-15
3.66421e-15
1.82826e-16
9.36234e-15
-2.01713e-14
-3.42502e-14
4.80161e-14
-1.83421e-14
-2.72923e-15
0
)
;
    }
    frontAndBack
    {
        type            empty;
    }
}


// ************************************************************************* //
