/*--------------------------------*- C++ -*----------------------------------*\
| =========                 |                                                 |
| \\      /  F ield         | OpenFOAM: The Open Source CFD Toolbox           |
|  \\    /   O peration     | Version:  2506                                  |
|   \\  /    A nd           | Website:  www.openfoam.com                      |
|    \\/     M anipulation  |                                                 |
\*---------------------------------------------------------------------------*/
FoamFile
{
    version     2.0;
    format      ascii;
    arch        "LSB;label=32;scalar=64";
    class       volScalarField;
    location    "9.75";
    object      enstrophyField;
}
// * * * * * * * * * * * * * * * * * * * * * * * * * * * * * * * * * * * * * //

dimensions      [0 0 -2 0 0 0 0];

internalField   nonuniform List<scalar> 
400
(
7.67033e-23
1.36425e-22
6.45936e-24
3.65549e-25
1.20596e-26
1.88905e-27
1.9332e-28
3.64894e-29
1.33843e-32
3.02216e-29
1.23804e-27
1.14663e-27
1.5409e-27
4.46656e-29
1.36247e-27
7.76112e-28
5.34718e-29
3.37935e-29
1.46953e-29
3.5386e-29
3.04179e-25
7.02908e-28
1.55944e-26
1.88843e-28
2.23192e-27
1.49057e-26
5.89955e-27
1.14639e-26
7.34557e-28
4.37948e-28
2.92081e-29
4.30933e-33
9.65505e-30
3.09012e-27
7.88511e-28
5.69629e-27
3.90898e-28
1.13117e-29
5.33721e-29
9.42691e-29
2.27806e-23
9.53844e-23
5.49259e-24
2.20923e-25
3.76679e-26
2.28519e-28
2.48506e-28
6.87669e-28
3.83444e-27
4.4817e-27
1.4139e-27
5.79917e-27
7.06114e-27
3.19386e-27
5.27221e-27
4.1832e-28
1.94044e-27
2.7085e-27
4.17486e-28
5.71378e-28
2.43567e-23
7.05786e-23
3.62491e-24
2.2554e-25
3.4888e-27
9.73598e-27
2.57188e-27
3.85225e-27
9.86189e-29
4.1195e-29
3.08217e-29
6.38702e-29
4.70734e-30
7.43176e-29
8.33566e-28
6.00584e-28
2.38244e-27
1.27743e-27
8.23449e-29
5.62023e-29
6.10791e-25
2.97779e-25
1.37528e-26
2.46675e-29
6.84273e-29
5.70984e-27
3.18366e-27
4.07832e-27
1.1221e-28
3.30208e-28
2.15155e-27
1.07234e-28
1.4176e-27
5.14694e-30
1.13479e-27
4.99548e-28
1.44334e-29
3.02903e-30
4.35348e-28
2.11051e-29
2.59525e-23
6.60052e-23
3.56121e-24
2.18072e-25
9.50995e-27
2.22556e-28
2.97404e-28
1.04071e-28
3.75535e-28
1.24341e-28
2.47957e-28
1.08816e-29
2.18184e-28
1.90801e-27
4.0805e-28
3.82922e-29
6.67243e-28
5.87271e-28
1.66738e-28
3.27665e-28
6.69189e-23
1.34333e-22
6.90991e-24
3.45483e-25
1.62795e-26
6.30197e-28
1.05238e-28
9.80206e-28
2.17722e-27
5.93737e-27
1.34683e-26
2.27806e-27
5.70869e-27
6.31425e-28
5.4042e-29
1.51052e-27
5.58846e-28
4.20071e-27
5.24516e-28
6.86275e-29
8.65031e-24
2.34708e-23
1.13588e-24
7.67761e-26
3.02473e-28
1.48129e-27
1.25353e-28
5.31399e-27
8.68821e-27
4.25508e-27
6.10862e-31
1.19958e-27
2.46073e-29
2.60766e-29
2.29456e-29
4.52139e-33
1.71708e-27
4.70786e-28
3.06724e-30
3.34867e-29
2.13472e-23
2.50316e-23
1.1864e-24
9.65343e-26
2.90989e-28
4.05821e-27
4.01551e-29
5.24393e-28
6.54184e-28
8.40165e-28
4.27176e-27
4.24771e-27
4.02976e-27
1.3484e-28
3.41997e-27
2.25111e-27
2.57697e-27
5.38674e-27
4.17702e-32
1.14367e-28
7.84802e-23
1.36458e-22
7.30725e-24
3.89078e-25
2.1647e-26
8.48817e-30
2.77377e-27
1.29659e-29
5.31105e-27
4.87567e-27
1.7655e-28
1.193e-27
8.62225e-28
1.65403e-29
2.32623e-27
1.81834e-27
3.35812e-28
5.59613e-30
8.7403e-31
2.73953e-29
9.72139e-23
1.5566e-22
9.18896e-24
2.89872e-25
5.13567e-26
2.07407e-27
7.45318e-27
5.06411e-28
4.90997e-33
1.11959e-27
8.26423e-27
1.0549e-29
3.26472e-29
5.29506e-28
1.91324e-28
1.5691e-28
4.98731e-29
1.16769e-28
4.83709e-30
5.94522e-29
3.64361e-23
5.77054e-23
3.23059e-24
1.55333e-25
3.4784e-27
2.95871e-29
1.81652e-27
2.10091e-27
6.30574e-27
2.59328e-27
3.58072e-27
2.63539e-28
7.53007e-29
2.87209e-27
1.80029e-27
1.28397e-28
6.21944e-28
2.95585e-27
2.08012e-30
1.76326e-28
2.09161e-24
6.8347e-25
1.18211e-25
1.08747e-27
4.93416e-27
6.8773e-28
1.24295e-27
1.67465e-29
6.63887e-28
2.4916e-27
3.70946e-27
4.82754e-31
9.67073e-28
1.95867e-27
9.82828e-29
2.7304e-27
7.61243e-29
4.05725e-31
1.44266e-29
3.05759e-28
4.12009e-23
7.65815e-23
4.33831e-24
2.13893e-25
2.78597e-26
3.01293e-27
2.20619e-27
6.23588e-28
7.54479e-27
9.64846e-28
1.24635e-27
1.99826e-28
5.55121e-28
7.58392e-30
3.03131e-29
8.74017e-28
1.14205e-27
2.82663e-27
7.50188e-30
2.13191e-28
5.89231e-23
1.45108e-22
8.14489e-24
3.75856e-25
3.06903e-26
1.6393e-27
3.59198e-30
3.77073e-27
6.88253e-27
2.60998e-28
4.6075e-29
1.726e-29
2.13996e-31
7.73067e-30
1.47902e-27
1.92695e-28
1.48936e-27
6.29282e-29
1.54808e-30
3.7854e-29
2.23703e-23
4.94789e-23
2.74379e-24
1.44077e-25
6.96225e-27
3.72677e-28
6.41156e-28
2.70597e-30
1.51767e-27
1.6729e-27
4.43212e-28
5.05603e-28
5.78399e-28
1.62376e-27
9.1497e-28
8.80482e-28
3.57877e-28
1.27199e-29
3.4026e-28
1.11854e-30
2.75126e-25
3.83688e-24
2.73361e-25
1.61806e-27
2.43494e-27
4.55845e-28
3.86149e-28
4.81813e-27
7.41519e-28
1.45427e-30
6.34452e-28
4.97067e-27
5.18716e-27
1.68445e-27
1.19132e-27
1.25943e-29
4.26408e-30
9.39307e-30
3.38773e-28
1.6837e-29
1.02721e-23
7.68712e-23
4.33261e-24
1.96546e-25
2.07776e-26
4.1156e-28
7.58197e-27
4.74499e-28
3.50037e-27
1.14289e-27
1.155e-28
3.58837e-29
1.5402e-27
7.24114e-30
5.10164e-30
1.35665e-28
8.34839e-28
2.22119e-30
1.67661e-29
1.95419e-29
7.26408e-24
1.43207e-23
9.21538e-25
2.16664e-26
3.8416e-27
2.339e-28
3.25354e-27
1.20452e-29
3.58937e-27
2.05647e-27
2.23012e-27
3.5759e-27
1.43669e-29
4.69284e-28
2.56717e-27
2.11784e-28
4.00845e-29
2.98054e-30
6.87717e-28
4.09981e-28
1.57201e-23
4.2241e-23
1.86207e-24
1.41866e-25
1.0608e-27
1.78138e-28
8.3015e-29
8.85024e-30
4.37419e-28
1.76025e-27
1.60486e-27
6.86476e-28
1.65257e-29
3.52637e-28
9.54044e-28
1.17458e-29
1.81227e-29
5.77129e-34
2.43036e-28
3.01492e-28
)
;

boundaryField
{
    movingWall
    {
        type            calculated;
        value           nonuniform List<scalar> 
20
(
1.08162e-22
6.93409e-23
1.80024e-24
2.98003e-25
7.41442e-27
2.90212e-26
2.15956e-26
1.50387e-26
1.62195e-26
9.57042e-27
4.16438e-27
4.94844e-29
3.45021e-27
1.50188e-31
3.06462e-27
3.52557e-27
1.81227e-29
5.77129e-34
7.74247e-28
8.76114e-28
)
;
    }
    fixedWalls
    {
        type            calculated;
        value           nonuniform List<scalar> 
60
(
2.44007e-21
4.22276e-25
1.7702e-21
1.29417e-21
5.22218e-24
1.20079e-21
2.43483e-21
4.22758e-22
4.60746e-22
2.47964e-21
2.86394e-21
1.05012e-21
1.62051e-23
1.39669e-21
2.67286e-21
9.23341e-22
7.67162e-23
1.42811e-21
2.67358e-22
7.46251e-22
2.09681e-29
1.41661e-28
1.10639e-27
3.28707e-28
3.16268e-29
6.10768e-28
1.94107e-30
9.4676e-29
1.24456e-28
4.2603e-29
1.84238e-28
3.16058e-28
3.04528e-28
3.51918e-28
5.63268e-29
2.75916e-29
9.68705e-30
5.6629e-29
1.8966e-28
6.78625e-28
2.14255e-22
1.88932e-22
5.87021e-24
7.65603e-25
3.53176e-27
5.95897e-26
3.04527e-26
3.3259e-26
1.58063e-26
4.66504e-27
4.34943e-27
9.73695e-27
3.82935e-27
1.4143e-26
4.12477e-27
2.73844e-27
5.34718e-29
3.37935e-29
7.60017e-28
3.5386e-29
)
;
    }
    frontAndBack
    {
        type            empty;
    }
}


// ************************************************************************* //
