/*--------------------------------*- C++ -*----------------------------------*\
| =========                 |                                                 |
| \\      /  F ield         | OpenFOAM: The Open Source CFD Toolbox           |
|  \\    /   O peration     | Version:  2506                                  |
|   \\  /    A nd           | Website:  www.openfoam.com                      |
|    \\/     M anipulation  |                                                 |
\*---------------------------------------------------------------------------*/
FoamFile
{
    version     2.0;
    format      ascii;
    arch        "LSB;label=32;scalar=64";
    class       volScalarField;
    location    "9.75";
    object      epsilonzeroGrad;
}
// * * * * * * * * * * * * * * * * * * * * * * * * * * * * * * * * * * * * * //

dimensions      [0 2 -3 0 0 0 0];

internalField   nonuniform List<scalar> 
400
(
6.41911e-07
6.41911e-07
6.41911e-07
6.4191e-07
6.4191e-07
6.4191e-07
6.4191e-07
6.4191e-07
6.4191e-07
6.4191e-07
6.4191e-07
6.41909e-07
6.4191e-07
6.41909e-07
6.4191e-07
6.41909e-07
6.41909e-07
6.41909e-07
6.41909e-07
6.41909e-07
6.53582e-07
6.47377e-07
6.47908e-07
6.48128e-07
6.48565e-07
6.48794e-07
6.49228e-07
6.49465e-07
6.49897e-07
6.50142e-07
6.50573e-07
6.50823e-07
6.51256e-07
6.5151e-07
6.51945e-07
6.52203e-07
6.52641e-07
6.52901e-07
6.53122e-07
6.53474e-07
6.72827e-07
6.66265e-07
6.66835e-07
6.67072e-07
6.67539e-07
6.67783e-07
6.68246e-07
6.68498e-07
6.68958e-07
6.69216e-07
6.69673e-07
6.69936e-07
6.70394e-07
6.70658e-07
6.71118e-07
6.71384e-07
6.71846e-07
6.72112e-07
6.72345e-07
6.72711e-07
6.943e-07
6.87458e-07
6.88052e-07
6.88299e-07
6.88786e-07
6.89041e-07
6.89524e-07
6.89786e-07
6.90265e-07
6.90534e-07
6.91011e-07
6.91285e-07
6.91762e-07
6.92038e-07
6.92517e-07
6.92794e-07
6.93276e-07
6.93553e-07
6.93796e-07
6.94178e-07
7.13631e-07
7.06533e-07
7.0715e-07
7.07406e-07
7.07911e-07
7.08175e-07
7.08676e-07
7.08948e-07
7.09445e-07
7.09724e-07
7.10219e-07
7.10503e-07
7.10998e-07
7.11284e-07
7.11781e-07
7.12068e-07
7.12569e-07
7.12856e-07
7.13108e-07
7.13504e-07
7.28713e-07
7.2141e-07
7.22045e-07
7.22308e-07
7.22827e-07
7.23099e-07
7.23614e-07
7.23894e-07
7.24405e-07
7.24692e-07
7.252e-07
7.25493e-07
7.26001e-07
7.26296e-07
7.26807e-07
7.27103e-07
7.27617e-07
7.27913e-07
7.28173e-07
7.28579e-07
7.3938e-07
7.31933e-07
7.32579e-07
7.32848e-07
7.33378e-07
7.33655e-07
7.3418e-07
7.34465e-07
7.34986e-07
7.35279e-07
7.35798e-07
7.36096e-07
7.36614e-07
7.36915e-07
7.37436e-07
7.37738e-07
7.38262e-07
7.38564e-07
7.38829e-07
7.39244e-07
7.46508e-07
7.38964e-07
7.39619e-07
7.39891e-07
7.40428e-07
7.40708e-07
7.4124e-07
7.41529e-07
7.42057e-07
7.42354e-07
7.42879e-07
7.43181e-07
7.43707e-07
7.44011e-07
7.44539e-07
7.44845e-07
7.45376e-07
7.45682e-07
7.4595e-07
7.4637e-07
7.51223e-07
7.43614e-07
7.44275e-07
7.44549e-07
7.4509e-07
7.45373e-07
7.45909e-07
7.46201e-07
7.46733e-07
7.47033e-07
7.47562e-07
7.47867e-07
7.48397e-07
7.48704e-07
7.49237e-07
7.49545e-07
7.50081e-07
7.50389e-07
7.50659e-07
7.51083e-07
7.54487e-07
7.46833e-07
7.47497e-07
7.47773e-07
7.48318e-07
7.48602e-07
7.49142e-07
7.49435e-07
7.4997e-07
7.50272e-07
7.50804e-07
7.51111e-07
7.51644e-07
7.51953e-07
7.52489e-07
7.52798e-07
7.53338e-07
7.53648e-07
7.5392e-07
7.54346e-07
7.56985e-07
7.49296e-07
7.49964e-07
7.50241e-07
7.50788e-07
7.51073e-07
7.51615e-07
7.5191e-07
7.52448e-07
7.5275e-07
7.53285e-07
7.53593e-07
7.54129e-07
7.54439e-07
7.54977e-07
7.55288e-07
7.5583e-07
7.56142e-07
7.56415e-07
7.56843e-07
7.59153e-07
7.51435e-07
7.52106e-07
7.52384e-07
7.52933e-07
7.53219e-07
7.53763e-07
7.54059e-07
7.54599e-07
7.54903e-07
7.5544e-07
7.55749e-07
7.56286e-07
7.56598e-07
7.57138e-07
7.5745e-07
7.57994e-07
7.58307e-07
7.58581e-07
7.59011e-07
7.61254e-07
7.53507e-07
7.5418e-07
7.54459e-07
7.5501e-07
7.55298e-07
7.55844e-07
7.56141e-07
7.56682e-07
7.56987e-07
7.57526e-07
7.57836e-07
7.58376e-07
7.58689e-07
7.59231e-07
7.59544e-07
7.6009e-07
7.60404e-07
7.60679e-07
7.61111e-07
7.63427e-07
7.55651e-07
7.56326e-07
7.56606e-07
7.5716e-07
7.57449e-07
7.57997e-07
7.58295e-07
7.58838e-07
7.59144e-07
7.59686e-07
7.59997e-07
7.60538e-07
7.60852e-07
7.61396e-07
7.61711e-07
7.62259e-07
7.62574e-07
7.6285e-07
7.63284e-07
7.65728e-07
7.5792e-07
7.58598e-07
7.58879e-07
7.59435e-07
7.59725e-07
7.60275e-07
7.60574e-07
7.6112e-07
7.61427e-07
7.61971e-07
7.62283e-07
7.62827e-07
7.63142e-07
7.63688e-07
7.64005e-07
7.64554e-07
7.64871e-07
7.65148e-07
7.65583e-07
7.68125e-07
7.60285e-07
7.60966e-07
7.61248e-07
7.61806e-07
7.62097e-07
7.6265e-07
7.6295e-07
7.63498e-07
7.63807e-07
7.64353e-07
7.64666e-07
7.65212e-07
7.65529e-07
7.66077e-07
7.66395e-07
7.66947e-07
7.67265e-07
7.67543e-07
7.6798e-07
7.705e-07
7.62628e-07
7.63311e-07
7.63595e-07
7.64155e-07
7.64447e-07
7.65002e-07
7.65304e-07
7.65854e-07
7.66164e-07
7.66712e-07
7.67027e-07
7.67575e-07
7.67893e-07
7.68444e-07
7.68762e-07
7.69317e-07
7.69636e-07
7.69916e-07
7.70354e-07
7.72645e-07
7.64745e-07
7.6543e-07
7.65715e-07
7.66276e-07
7.6657e-07
7.67126e-07
7.67429e-07
7.67981e-07
7.68292e-07
7.68842e-07
7.69158e-07
7.69709e-07
7.70027e-07
7.7058e-07
7.709e-07
7.71456e-07
7.71777e-07
7.72057e-07
7.72498e-07
7.74289e-07
7.66516e-07
7.67179e-07
7.67455e-07
7.68e-07
7.68288e-07
7.68828e-07
7.69128e-07
7.69664e-07
7.69975e-07
7.7051e-07
7.70828e-07
7.71365e-07
7.71688e-07
7.72229e-07
7.72554e-07
7.73102e-07
7.73429e-07
7.73706e-07
7.74146e-07
7.7505e-07
7.7505e-07
7.75049e-07
7.7505e-07
7.75049e-07
7.75049e-07
7.75048e-07
7.75049e-07
7.75048e-07
7.75048e-07
7.75048e-07
7.75048e-07
7.75048e-07
7.75048e-07
7.75048e-07
7.75048e-07
7.75048e-07
7.75048e-07
7.75048e-07
7.75048e-07
)
;

boundaryField
{
    movingWall
    {
        type            zeroGradient;
    }
    fixedWalls
    {
        type            zeroGradient;
    }
    frontAndBack
    {
        type            empty;
    }
}


// ************************************************************************* //
