/*--------------------------------*- C++ -*----------------------------------*\
| =========                 |                                                 |
| \\      /  F ield         | OpenFOAM: The Open Source CFD Toolbox           |
|  \\    /   O peration     | Version:  2506                                  |
|   \\  /    A nd           | Website:  www.openfoam.com                      |
|    \\/     M anipulation  |                                                 |
\*---------------------------------------------------------------------------*/
FoamFile
{
    version     2.0;
    format      ascii;
    arch        "LSB;label=32;scalar=64";
    class       volScalarField;
    location    "9.75";
    object      flowTypeField;
}
// * * * * * * * * * * * * * * * * * * * * * * * * * * * * * * * * * * * * * //

dimensions      [0 0 0 0 0 0 0];

internalField   nonuniform List<scalar> 
400
(
0.421437
0.0546128
0.0560785
0.0501448
0.164065
-0.157756
0.174447
0.734447
0.981833
0.482667
0.0868203
0.116901
-0.0237355
0.25121
0.339379
0.457164
0.753407
0.515383
0.0914437
0.0401167
0.968379
0.993418
0.881622
0.931861
0.433629
-0.0588304
-0.296122
-0.116166
0.458497
0.572782
0.428799
0.794698
0.344505
-0.3491
0.335758
-0.214291
0.000937297
0.321496
0.777434
0.250424
0.59345
0.124593
0.0420705
0.180873
-0.27067
0.598989
0.231144
0.519294
0.0519898
-0.0882467
0.0188734
0.00805942
-0.0897835
0.0663426
0.10556
0.156134
-0.143212
-0.103417
0.229703
0.00206935
0.585588
0.126932
0.0934437
0.00939534
0.478276
-0.50877
-0.147587
-0.0202814
0.78549
0.622786
0.40021
0.749556
0.078302
0.653229
0.000428505
0.107995
-0.269715
0.158582
0.560893
0.582071
0.943194
0.847247
0.863268
0.964094
0.795992
-0.185379
-0.437521
-0.0946233
0.435939
0.051838
-0.0644739
0.0408429
-0.154223
0.0608221
0.12084
-0.0698595
0.85502
0.923518
-0.0859679
0.327215
0.609287
0.120896
0.0743169
0.0151654
0.0218463
0.24701
0.0422237
0.47828
0.270699
0.545385
0.422506
0.887617
0.447427
-0.00819227
0.47341
0.128648
-0.338859
0.123609
0.365781
0.313193
0.228933
0.0495458
-0.00516779
0.0357977
0.0413166
0.474662
0.609977
0.255081
-0.0345431
-0.209665
-0.199913
-0.201557
0.0157363
0.340066
0.779113
-0.00764661
0.131268
-0.120226
0.166498
0.553748
0.797868
0.231178
0.248239
0.183599
0.746343
0.056196
0.594784
0.0478502
-0.0946793
-0.0940373
0.314083
0.140236
0.750672
0.831051
0.0938359
0.944516
0.366549
0.190177
0.924543
0.317688
0.698388
0.209834
0.225865
0.0715656
0.728935
-0.598011
0.64085
0.251417
-0.312744
0.111295
0.0856117
-0.116393
-0.102838
0.404009
-0.513143
0.128587
0.0838728
-0.273573
0.872447
0.439217
0.289606
0.0449784
-0.00697565
0.013228
0.0132175
0.831693
-0.0810597
0.878814
-0.0816015
-0.0959369
0.300511
-0.572881
0.0347476
0.782398
0.121793
0.227994
0.238459
0.814528
0.833326
0.671167
0.136128
0.0326042
-0.0636859
0.179931
-0.48557
0.416052
-0.118939
-0.00814585
0.98643
-0.485295
-0.124839
0.872519
0.814617
0.442346
0.0028023
0.400214
0.206628
0.454488
0.84829
0.569814
0.560138
0.0893966
0.0438874
0.082069
0.39221
0.805397
0.103649
0.194129
0.175897
-0.0996232
-0.0350408
0.666732
0.721126
-0.15391
0.236466
0.00690405
-0.161057
-0.405541
0.870212
0.384209
0.891329
0.742743
0.58064
0.815365
0.207197
0.35244
0.316077
0.845992
-0.292668
-0.244083
0.0471923
0.958386
0.286737
-0.0186712
0.777493
-0.165698
0.80222
0.737745
0.868279
0.163645
0.516025
0.0868148
0.0129277
0.062322
-0.350486
0.288647
-0.212083
-0.200107
-0.130757
-0.457188
0.328313
0.362858
0.157122
0.894376
0.809179
0.229378
0.117691
0.0555768
0.461169
0.011763
0.284089
0.0714275
0.0145266
0.0878154
-0.112987
0.479848
0.411888
-0.0673696
-0.0460096
0.389927
0.475782
0.844559
0.737562
0.411218
0.264582
0.441744
0.0949102
0.0440831
0.893059
0.632605
0.678922
0.179976
0.146296
0.134885
0.215821
0.528047
-0.242662
0.861609
0.172878
0.266006
0.308915
-0.0838835
0.118301
-0.0295967
0.214572
0.297139
0.275497
0.746454
0.0989193
0.477102
0.961897
0.584304
0.548902
0.814217
0.135639
0.455834
-0.00366464
-0.201186
0.339774
0.889609
0.0923627
-0.147993
-0.250387
-0.0686261
0.18218
0.750781
0.830514
0.779847
0.04806
0.716972
0.621756
0.140159
0.0614817
0.181507
-0.137234
0.469414
-0.134822
0.44549
0.151604
0.156658
0.467447
0.0492716
0.0984459
0.902034
0.764963
0.0560729
-0.440045
0.930213
0.845491
0.0860123
0.81189
0.360805
0.312241
0.472908
-0.0115611
0.358268
0.0226542
0.787068
0.145155
-0.00176613
-0.0646001
-0.0396479
0.357746
0.19647
-0.281196
0.38974
0.00267055
0.494224
-0.35615
-0.0364604
0.637842
0.117795
0.16156
-0.0152909
0.573913
0.0211934
0.630692
0.501953
0.0100975
0.0375192
0.0959269
0.15691
0.439184
0.195008
0.398204
0.867543
0.438861
0.965255
0.212087
0.324714
)
;

boundaryField
{
    movingWall
    {
        type            calculated;
        value           nonuniform List<scalar> 
20
(
0.596107
0.118073
0.34232
-0.105705
0.494826
-0.0842028
0.0841376
0.0588595
0.0345941
0.0245827
0.0832349
0.695351
0.0646732
0.801297
0.230035
0.215687
0.630842
0.96517
0.179983
0.192551
)
;
    }
    fixedWalls
    {
        type            calculated;
        value           nonuniform List<scalar> 
60
(
0.056511
0.96532
0.108681
0.11671
0.857205
0.118088
0.0392813
0.254701
0.219156
0.0348215
0.0164492
0.0903146
0.725972
0.0779934
0.0556186
0.168796
0.577978
0.12209
0.364307
0.129474
0.062851
0.194904
0.00107705
0.0620671
0.266998
0.309944
0.910159
0.173496
0.63878
0.735112
0.731506
0.452726
0.16518
0.00724599
0.705352
0.0946943
0.0139251
0.0348047
0.283821
0.275869
0.660953
0.148267
0.313302
-0.0161414
0.716689
-0.099495
0.0821709
0.0508872
0.10251
0.03959
0.046278
-0.0225707
0.0292317
0.0690431
0.206154
0.286843
0.753203
0.453299
0.231691
0.180708
)
;
    }
    frontAndBack
    {
        type            empty;
    }
}


// ************************************************************************* //
