/*--------------------------------*- C++ -*----------------------------------*\
| =========                 |                                                 |
| \\      /  F ield         | OpenFOAM: The Open Source CFD Toolbox           |
|  \\    /   O peration     | Version:  2506                                  |
|   \\  /    A nd           | Website:  www.openfoam.com                      |
|    \\/     M anipulation  |                                                 |
\*---------------------------------------------------------------------------*/
FoamFile
{
    version     2.0;
    format      ascii;
    arch        "LSB;label=32;scalar=64";
    class       surfaceScalarField;
    location    "9.75";
    object      fluxField;
}
// * * * * * * * * * * * * * * * * * * * * * * * * * * * * * * * * * * * * * //

dimensions      [0 3 -1 0 0 0 0];

oriented        oriented;

internalField   nonuniform List<scalar> 
760
(
-5e-05
4.60144e-18
-5e-05
-9.88486e-19
-5e-05
2.45681e-19
-5e-05
-4.57689e-20
-5e-05
9.67407e-21
-5e-05
-3.79249e-21
-5e-05
3.59108e-21
-5e-05
7.95044e-21
-5e-05
9.7003e-21
-5e-05
3.93926e-21
-5e-05
1.60303e-21
-5e-05
9.16052e-22
-5e-05
4.57066e-23
-5e-05
2.34059e-21
-5e-05
8.50969e-21
-5e-05
4.98997e-21
-5e-05
-1.54849e-21
-5e-05
-4.58553e-21
-5e-05
-6.82308e-22
-6.47271e-22
-5e-05
-3.96463e-18
-5e-05
8.69206e-19
-5e-05
-1.95764e-19
-5e-05
5.08775e-20
-5e-05
-1.11748e-20
-5e-05
-1.03792e-21
-5e-05
-4.59576e-22
-5e-05
6.99203e-21
-5e-05
7.7951e-21
-5e-05
1.4575e-21
-5e-05
-1.69855e-21
-5e-05
-1.95012e-22
-5e-05
-1.49419e-21
-5e-05
-1.70067e-21
-5e-05
4.95491e-21
-5e-05
2.88455e-21
-5e-05
-1.85523e-21
-5e-05
-6.12724e-21
-5e-05
-7.89188e-21
-3.99202e-21
-5e-05
-6.81398e-19
-5e-05
1.69587e-19
-5e-05
-3.60316e-20
-5e-05
1.41265e-20
-5e-05
2.89833e-21
-5e-05
2.72409e-22
-5e-05
-3.45045e-21
-5e-05
-2.90225e-21
-5e-05
-7.84342e-22
-5e-05
-9.55478e-22
-5e-05
-1.85513e-21
-5e-05
1.2656e-21
-5e-05
1.15158e-21
-5e-05
-5.71555e-22
-5e-05
-2.22879e-21
-5e-05
-2.56937e-21
-5e-05
-7.955e-22
-5e-05
-8.86518e-22
-5e-05
-6.55918e-21
-4.54252e-21
-5e-05
3.2488e-18
-5e-05
-6.96033e-19
-5e-05
1.73331e-19
-5e-05
-3.04769e-20
-5e-05
1.7221e-20
-5e-05
1.03404e-21
-5e-05
-3.72262e-21
-5e-05
-9.73979e-21
-5e-05
-7.58739e-21
-5e-05
-3.19766e-21
-5e-05
-4.96654e-21
-5e-05
-4.0818e-21
-5e-05
1.52019e-21
-5e-05
3.22064e-21
-5e-05
-1.40607e-21
-5e-05
-1.85321e-21
-5e-05
-6.43717e-22
-5e-05
5.08083e-22
-5e-05
-2.17518e-21
-2.09958e-21
-5e-05
-3.41224e-18
-5e-05
7.45261e-19
-5e-05
-1.63951e-19
-5e-05
4.33785e-20
-5e-05
-6.0394e-22
-5e-05
5.97568e-21
-5e-05
-1.71645e-21
-5e-05
-6.51784e-21
-5e-05
-7.57297e-21
-5e-05
-3.56189e-21
-5e-05
-4.38749e-21
-5e-05
-5.19988e-21
-5e-05
4.39966e-22
-5e-05
2.88938e-21
-5e-05
-6.48906e-22
-5e-05
8.81296e-22
-5e-05
4.13051e-22
-5e-05
-2.81829e-21
-5e-05
-1.99391e-21
-6.73728e-24
-5e-05
1.28163e-18
-5e-05
-2.58308e-19
-5e-05
6.30434e-20
-5e-05
-9.6822e-21
-5e-05
6.78318e-21
-5e-05
9.49864e-22
-5e-05
-3.59417e-21
-5e-05
-8.29663e-21
-5e-05
-9.68434e-21
-5e-05
-5.42725e-21
-5e-05
6.35539e-23
-5e-05
2.93127e-21
-5e-05
4.55207e-21
-5e-05
4.09316e-21
-5e-05
-2.00729e-21
-5e-05
-4.49623e-22
-5e-05
3.69012e-22
-5e-05
-1.2243e-21
-5e-05
1.1634e-21
2.30755e-21
-5e-05
2.58981e-18
-5e-05
-5.54497e-19
-5e-05
1.23593e-19
-5e-05
-2.90351e-20
-5e-05
6.96976e-21
-5e-05
-3.62631e-21
-5e-05
-8.62713e-21
-5e-05
-9.59348e-21
-5e-05
-5.66629e-21
-5e-05
-7.99098e-22
-5e-05
3.98158e-21
-5e-05
6.07412e-21
-5e-05
5.99659e-21
-5e-05
3.92827e-21
-5e-05
-4.77224e-22
-5e-05
-1.94248e-21
-5e-05
-2.64967e-22
-5e-05
7.37121e-22
-5e-05
3.21605e-21
2.67724e-21
-5e-05
-3.79593e-18
-5e-05
7.97296e-19
-5e-05
-1.99002e-19
-5e-05
3.53899e-20
-5e-05
-1.1518e-20
-5e-05
1.39074e-21
-5e-05
-2.49283e-21
-5e-05
8.13294e-22
-5e-05
4.27137e-21
-5e-05
4.39658e-21
-5e-05
3.53352e-21
-5e-05
1.34126e-21
-5e-05
-4.87568e-22
-5e-05
-2.52749e-21
-5e-05
3.77789e-22
-5e-05
2.9024e-21
-5e-05
3.62369e-21
-5e-05
-3.94915e-22
-5e-05
-1.10136e-21
1.52024e-22
-5e-05
2.63627e-18
-5e-05
-6.09149e-19
-5e-05
1.32815e-19
-5e-05
-3.8523e-20
-5e-05
1.80187e-21
-5e-05
-8.0263e-22
-5e-05
5.02592e-21
-5e-05
6.5057e-21
-5e-05
5.07282e-21
-5e-05
-1.19798e-21
-5e-05
-2.7573e-21
-5e-05
-1.89844e-21
-5e-05
-3.57674e-23
-5e-05
-4.08006e-22
-5e-05
1.19713e-21
-5e-05
3.21574e-21
-5e-05
2.89557e-21
-5e-05
-8.82134e-22
-5e-05
-3.56086e-21
-1.28493e-21
-5e-05
-2.98287e-19
-5e-05
6.6423e-20
-5e-05
-1.72606e-20
-5e-05
-2.15701e-21
-5e-05
-6.78369e-21
-5e-05
-3.15625e-21
-5e-05
-1.52637e-21
-5e-05
-1.50616e-21
-5e-05
-3.97941e-21
-5e-05
-6.96803e-21
-5e-05
-3.28409e-21
-5e-05
1.46193e-22
-5e-05
3.29961e-21
-5e-05
5.77168e-21
-5e-05
3.22107e-21
-5e-05
-2.61839e-21
-5e-05
-2.73136e-21
-5e-05
1.75765e-22
-5e-05
2.52754e-22
6.22813e-22
-5e-05
-1.89808e-18
-5e-05
4.17526e-19
-5e-05
-9.82118e-20
-5e-05
2.19176e-20
-5e-05
-6.54542e-21
-5e-05
-3.47157e-21
-5e-05
-4.24128e-21
-5e-05
-5.37324e-21
-5e-05
-8.07407e-21
-5e-05
-4.42785e-21
-5e-05
1.43161e-21
-5e-05
1.43538e-21
-5e-05
-3.15963e-21
-5e-05
3.87516e-22
-5e-05
3.5948e-21
-5e-05
-3.05416e-21
-5e-05
-4.84013e-21
-5e-05
1.4836e-21
-5e-05
4.64973e-21
2.7711e-21
-5e-05
3.18282e-18
-5e-05
-6.86445e-19
-5e-05
1.64136e-19
-5e-05
-2.42831e-20
-5e-05
1.61228e-20
-5e-05
1.07487e-21
-5e-05
3.14268e-21
-5e-05
1.50324e-21
-5e-05
-9.56989e-22
-5e-05
1.40006e-22
-5e-05
-6.00494e-22
-5e-05
-2.36971e-22
-5e-05
-6.09439e-21
-5e-05
-7.52343e-21
-5e-05
-2.79396e-21
-5e-05
-2.5697e-21
-5e-05
-1.87837e-21
-5e-05
2.55596e-21
-5e-05
3.5658e-21
1.72299e-21
-5e-05
-3.11179e-18
-5e-05
6.9643e-19
-5e-05
-1.5425e-19
-5e-05
4.77051e-20
-5e-05
5.93792e-22
-5e-05
6.7512e-21
-5e-05
4.01153e-21
-5e-05
2.60949e-21
-5e-05
5.12119e-22
-5e-05
-3.32876e-21
-5e-05
-7.78911e-21
-5e-05
-3.46248e-21
-5e-05
-2.54563e-21
-5e-05
-6.12714e-21
-5e-05
-5.61393e-21
-5e-05
-6.75522e-22
-5e-05
2.408e-21
-5e-05
8.0475e-22
-5e-05
-3.06172e-21
-1.5065e-21
-5e-05
1.429e-18
-5e-05
-3.33942e-19
-5e-05
8.10942e-20
-5e-05
-1.38955e-20
-5e-05
7.52532e-21
-5e-05
2.58244e-21
-5e-05
2.43348e-21
-5e-05
1.98595e-22
-5e-05
1.76249e-21
-5e-05
-1.18017e-21
-5e-05
-3.50777e-21
-5e-05
-2.50925e-21
-5e-05
2.12176e-23
-5e-05
-1.119e-21
-5e-05
-1.93545e-21
-5e-05
7.83131e-22
-5e-05
3.03313e-21
-5e-05
-9.1322e-22
-5e-05
-5.01603e-21
-2.32148e-21
-5e-05
2.01089e-18
-5e-05
-4.60954e-19
-5e-05
1.03378e-19
-5e-05
-2.40265e-20
-5e-05
7.27247e-21
-5e-05
1.63458e-21
-5e-05
1.2094e-21
-5e-05
1.2857e-22
-5e-05
3.17258e-21
-5e-05
2.13368e-21
-5e-05
1.19993e-21
-5e-05
-9.33139e-22
-5e-05
-1.44252e-21
-5e-05
-2.82336e-21
-5e-05
-3.11978e-21
-5e-05
-9.72582e-24
-5e-05
2.46334e-21
-5e-05
-1.37553e-23
-5e-05
-1.60225e-21
-1.99081e-22
-5e-05
-3.83607e-18
-5e-05
8.44979e-19
-5e-05
-2.02583e-19
-5e-05
4.06069e-20
-5e-05
-1.35039e-20
-5e-05
4.36535e-22
-5e-05
-7.72711e-22
-5e-05
-1.91084e-21
-5e-05
-4.40345e-21
-5e-05
-4.98311e-21
-5e-05
-4.88529e-21
-5e-05
-3.5209e-21
-5e-05
-1.46112e-21
-5e-05
-1.12758e-22
-5e-05
-1.19734e-21
-5e-05
1.39585e-21
-5e-05
1.26265e-21
-5e-05
7.53644e-22
-5e-05
1.08527e-21
7.39384e-22
-5e-05
2.7812e-18
-5e-05
-6.02026e-19
-5e-05
1.43525e-19
-5e-05
-3.74062e-20
-5e-05
1.00382e-21
-5e-05
-3.8896e-21
-5e-05
6.27784e-22
-5e-05
-3.80472e-22
-5e-05
-2.65935e-21
-5e-05
-2.64294e-21
-5e-05
-3.83306e-21
-5e-05
-4.31345e-21
-5e-05
-1.35319e-21
-5e-05
4.98566e-22
-5e-05
-1.34655e-21
-5e-05
-5.23351e-23
-5e-05
1.51677e-21
-5e-05
2.65675e-21
-5e-05
2.07342e-21
9.40242e-22
-5e-05
2.29478e-18
-5e-05
-5.15337e-19
-5e-05
1.19552e-19
-5e-05
-3.75033e-20
-5e-05
1.29768e-21
-5e-05
-1.67781e-21
-5e-05
3.24843e-22
-5e-05
2.1648e-21
-5e-05
2.47708e-21
-5e-05
1.90056e-21
-5e-05
-1.60351e-21
-5e-05
-5.04284e-21
-5e-05
-4.5347e-21
-5e-05
-6.70574e-21
-5e-05
-6.36884e-21
-5e-05
-1.54613e-21
-5e-05
2.89438e-21
-5e-05
4.13146e-21
-5e-05
1.75707e-21
1.88336e-22
-5e-05
-4.07156e-18
-5e-05
8.69843e-19
-5e-05
-2.12149e-19
-5e-05
3.444e-20
-5e-05
-1.33886e-20
-5e-05
1.01137e-21
-5e-05
-3.26257e-21
-5e-05
-2.38139e-21
-5e-05
-3.08733e-21
-5e-05
-2.6163e-21
-5e-05
-4.28693e-21
-5e-05
-5.14898e-21
-5e-05
-2.61316e-21
-5e-05
-5.05182e-21
-5e-05
-3.63293e-21
-5e-05
1.94133e-21
-5e-05
2.72398e-21
-5e-05
2.67466e-21
-5e-05
2.1051e-21
-1.0853e-21
-5e-05
-5e-05
-5e-05
-5e-05
-5e-05
-5e-05
-5e-05
-5e-05
-5e-05
-5e-05
-5e-05
-5e-05
-5e-05
-5e-05
-5e-05
-5e-05
-5e-05
-5e-05
-5e-05
)
;

boundaryField
{
    movingWall
    {
        type            calculated;
        value           uniform -0;
    }
    fixedWalls
    {
        type            calculated;
        value           nonuniform List<scalar> 
60
(
5e-05
5e-05
5e-05
5e-05
5e-05
5e-05
5e-05
5e-05
5e-05
5e-05
5e-05
5e-05
5e-05
5e-05
5e-05
5e-05
5e-05
5e-05
5e-05
5e-05
-5e-05
-5e-05
-5e-05
-5e-05
-5e-05
-5e-05
-5e-05
-5e-05
-5e-05
-5e-05
-5e-05
-5e-05
-5e-05
-5e-05
-5e-05
-5e-05
-5e-05
-5e-05
-5e-05
-5e-05
0
0
0
0
0
0
0
0
0
0
0
0
0
0
0
0
0
0
0
0
)
;
    }
    frontAndBack
    {
        type            empty;
    }
}


// ************************************************************************* //
