/*--------------------------------*- C++ -*----------------------------------*\
| =========                 |                                                 |
| \\      /  F ield         | OpenFOAM: The Open Source CFD Toolbox           |
|  \\    /   O peration     | Version:  2506                                  |
|   \\  /    A nd           | Website:  www.openfoam.com                      |
|    \\/     M anipulation  |                                                 |
\*---------------------------------------------------------------------------*/
FoamFile
{
    version     2.0;
    format      ascii;
    arch        "LSB;label=32;scalar=64";
    class       volVectorField;
    location    "9.75";
    object      gradPhi;
}
// * * * * * * * * * * * * * * * * * * * * * * * * * * * * * * * * * * * * * //

dimensions      [0 2 -1 0 0 0 0];

internalField   nonuniform List<vector> 
400
(
(-0.02 1.09958e-16 0)
(1.5551e-16 -1.5478e-16 0)
(-4.96308e-17 4.94165e-17 0)
(4.96308e-18 -6.61247e-18 0)
(0 1.28704e-18 0)
(0 -7.67917e-19 0)
(0 7.72899e-19 0)
(-1.65436e-18 1.35524e-18 0)
(-1.65436e-18 2.50058e-18 0)
(-1.65436e-18 4.86945e-19 0)
(0 2.18985e-19 0)
(0 2.43708e-19 0)
(0 -2.65006e-19 0)
(0 3.4213e-19 0)
(-1.65436e-18 2.28095e-18 0)
(-1.65436e-18 1.70038e-18 0)
(0 -3.87089e-20 0)
(1.65436e-18 -1.55818e-18 0)
(0 4.13258e-20 0)
(0 6.7148e-19 0)
(-0.02 -2.01129e-16 0)
(-2.8455e-16 2.83532e-16 0)
(8.93355e-17 -8.84413e-17 0)
(-1.48893e-17 1.48618e-17 0)
(1.65436e-18 -2.87535e-18 0)
(0 2.95126e-19 0)
(3.30872e-18 -1.32282e-18 0)
(-1.65436e-18 4.02741e-19 0)
(1.65436e-18 -1.04459e-18 0)
(-1.65436e-18 5.02822e-19 0)
(0 -2.98199e-19 0)
(0 -1.16175e-19 0)
(0 3.75263e-19 0)
(1.65436e-18 -8.71701e-19 0)
(1.65436e-18 -1.82731e-18 0)
(1.65436e-18 -1.47974e-18 0)
(0 -4.65933e-19 0)
(0 5.42595e-19 0)
(0 -2.13238e-18 0)
(1.65436e-18 -2.16395e-18 0)
(-0.02 5.76218e-17 0)
(8.43724e-17 -8.36056e-17 0)
(-3.14329e-17 3.17068e-17 0)
(4.96308e-18 -5.79144e-18 0)
(-1.65436e-18 1.65007e-18 0)
(0 5.9785e-19 0)
(0 2.05986e-19 0)
(1.65436e-18 -2.28239e-18 0)
(1.65436e-18 -1.43967e-18 0)
(1.65436e-18 -1.63733e-18 0)
(1.65436e-18 -5.04822e-19 0)
(-1.65436e-18 3.38677e-19 0)
(-1.65436e-18 1.95887e-19 0)
(0 7.27708e-19 0)
(1.65436e-18 -6.40049e-19 0)
(1.65436e-18 -1.04016e-18 0)
(0 2.69524e-19 0)
(-3.30872e-18 1.24784e-18 0)
(-1.65436e-18 1.28081e-18 0)
(0 1.83863e-19 0)
(-0.02 1.24554e-16 0)
(1.57164e-16 -1.59996e-16 0)
(-4.1359e-17 4.1973e-17 0)
(6.61744e-18 -6.44973e-18 0)
(-3.30872e-18 3.46988e-18 0)
(0 5.49156e-20 0)
(0 -4.44595e-19 0)
(0 -1.72517e-18 0)
(1.65436e-18 -1.84985e-18 0)
(0 1.04986e-19 0)
(0 -5.19143e-19 0)
(3.30872e-18 -1.84649e-18 0)
(0 -4.88229e-19 0)
(-1.65436e-18 3.50113e-19 0)
(0 -3.14953e-19 0)
(0 8.08818e-19 0)
(0 -1.497e-19 0)
(0 -1.96253e-19 0)
(0 3.68588e-19 0)
(-1.65436e-18 1.48621e-18 0)
(-0.02 -1.74654e-16 0)
(-2.31611e-16 2.32855e-16 0)
(6.61744e-17 -6.72924e-17 0)
(-9.92617e-18 1.05663e-17 0)
(4.96308e-18 -3.3161e-18 0)
(-1.65436e-18 1.30847e-18 0)
(0 5.2338e-19 0)
(-1.65436e-18 9.09682e-19 0)
(0 4.08122e-19 0)
(0 4.09259e-19 0)
(-1.65436e-18 1.03472e-18 0)
(-1.65436e-18 4.41e-19 0)
(0 1.83145e-19 0)
(0 -7.85892e-20 0)
(0 1.02822e-18 0)
(0 1.69776e-19 0)
(-1.65436e-18 8.34797e-19 0)
(0 -9.67244e-19 0)
(1.65436e-18 -4.19442e-19 0)
(0 -6.77311e-19 0)
(-0.02 1.26655e-16 0)
(1.68745e-16 -1.69032e-16 0)
(-4.63221e-17 4.56322e-17 0)
(9.92617e-18 -8.11714e-18 0)
(-1.65436e-18 1.29236e-18 0)
(0 -1.41919e-18 0)
(0 -2.99138e-19 0)
(0 6.09213e-20 0)
(1.65436e-18 -5.45193e-19 0)
(0 -1.78165e-18 0)
(0 -8.49201e-19 0)
(-1.65436e-18 1.74598e-18 0)
(-1.65436e-18 1.47392e-18 0)
(0 4.28191e-19 0)
(1.65436e-18 -1.92256e-18 0)
(0 -3.23327e-19 0)
(0 -2.26374e-19 0)
(0 8.02447e-19 0)
(-1.65436e-18 1.22019e-18 0)
(-1.65436e-18 1.38357e-18 0)
(-0.02 5.24715e-18 0)
(1.48893e-17 -1.62719e-17 0)
(-8.27181e-18 1.02212e-17 0)
(0 -2.27131e-18 0)
(0 -5.58206e-19 0)
(0 -7.43625e-19 0)
(1.65436e-18 -1.40478e-18 0)
(1.65436e-18 -8.3576e-19 0)
(0 8.84208e-19 0)
(-3.30872e-18 1.9291e-18 0)
(0 1.65849e-18 0)
(0 1.33684e-19 0)
(0 -5.2453e-19 0)
(0 2.53713e-19 0)
(-1.65436e-18 2.04465e-18 0)
(0 -2.04113e-19 0)
(1.65436e-18 -1.11869e-18 0)
(0 3.33389e-19 0)
(-1.65436e-18 8.81428e-19 0)
(0 -3.18594e-19 0)
(-0.02 -1.12365e-16 0)
(-1.65436e-16 1.64449e-16 0)
(6.12114e-17 -6.10716e-17 0)
(-8.27181e-18 7.83436e-18 0)
(1.65436e-18 -2.52015e-18 0)
(0 9.1155e-19 0)
(-1.65436e-18 1.35022e-18 0)
(-3.30872e-18 2.12646e-18 0)
(0 1.70162e-18 0)
(0 8.54245e-19 0)
(-1.65436e-18 6.29756e-19 0)
(1.65436e-18 -5.72572e-19 0)
(0 -1.22398e-18 0)
(1.65436e-18 -2.07273e-18 0)
(1.65436e-18 -7.83609e-19 0)
(0 5.78807e-19 0)
(-3.30872e-18 2.40024e-18 0)
(0 -4.95469e-19 0)
(1.65436e-18 -1.97231e-18 0)
(1.65436e-18 -3.70525e-19 0)
(-0.02 1.24144e-16 0)
(1.77017e-16 -1.76872e-16 0)
(-6.28657e-17 6.27577e-17 0)
(9.92617e-18 -9.43367e-18 0)
(-1.65436e-18 9.76067e-19 0)
(0 -6.09345e-19 0)
(-1.65436e-18 2.01056e-18 0)
(0 1.54094e-18 0)
(0 5.20479e-19 0)
(0 -9.73258e-19 0)
(3.30872e-18 -2.25513e-18 0)
(0 -3.97931e-19 0)
(0 5.02931e-19 0)
(0 5.40234e-19 0)
(0 -1.43707e-20 0)
(-1.65436e-18 1.09529e-18 0)
(1.65436e-18 -7.88232e-19 0)
(0 4.04797e-19 0)
(0 -1.73697e-19 0)
(0 -9.47694e-19 0)
(-0.02 -6.43276e-17 0)
(-9.26442e-17 9.29772e-17 0)
(2.81241e-17 -2.76138e-17 0)
(-4.96308e-18 4.37465e-18 0)
(0 -7.20545e-19 0)
(0 1.88089e-19 0)
(1.65436e-18 -2.02951e-18 0)
(3.30872e-18 -2.09684e-18 0)
(1.65436e-18 -1.28014e-18 0)
(0 -1.10351e-18 0)
(0 1.19347e-19 0)
(0 -6.23526e-19 0)
(0 7.36652e-19 0)
(-3.30872e-18 2.45921e-18 0)
(0 1.20194e-18 0)
(1.65436e-18 -2.34859e-18 0)
(1.65436e-18 -1.70814e-18 0)
(0 -1.17122e-19 0)
(-1.65436e-18 1.31726e-18 0)
(0 9.2283e-19 0)
(-0.02 -1.40591e-17 0)
(-2.81241e-17 2.75483e-17 0)
(1.65436e-17 -1.5898e-17 0)
(-4.96308e-18 3.73751e-18 0)
(0 8.91933e-19 0)
(0 -8.79542e-19 0)
(0 -1.4502e-20 0)
(1.65436e-18 -8.15287e-19 0)
(3.30872e-18 -2.58573e-18 0)
(0 -2.97539e-20 0)
(-1.65436e-18 1.39293e-18 0)
(-3.30872e-18 1.5859e-18 0)
(3.30872e-18 -2.22853e-18 0)
(3.30872e-18 -2.74263e-18 0)
(0 -3.6159e-19 0)
(-1.65436e-18 6.24254e-19 0)
(0 4.88296e-19 0)
(-1.65436e-18 4.95871e-19 0)
(0 4.04764e-19 0)
(0 5.38351e-19 0)
(-0.02 5.85071e-17 0)
(1.12497e-16 -1.11926e-16 0)
(-4.96308e-17 4.89203e-17 0)
(4.96308e-18 -4.52307e-18 0)
(-3.30872e-18 2.28278e-18 0)
(-1.65436e-18 1.38455e-18 0)
(0 1.01738e-18 0)
(-3.30872e-18 2.46884e-18 0)
(-3.30872e-18 3.20999e-18 0)
(-1.65436e-18 1.37004e-18 0)
(0 -8.12506e-19 0)
(1.65436e-18 -1.02528e-18 0)
(-1.65436e-18 9.59025e-20 0)
(1.65436e-18 -6.86364e-19 0)
(1.65436e-18 -8.65163e-19 0)
(0 1.88331e-19 0)
(0 -7.27393e-19 0)
(1.65436e-18 -7.25264e-19 0)
(-1.65436e-18 1.13693e-19 0)
(0 5.52863e-20 0)
(-0.02 -9.7738e-17 0)
(-1.52201e-16 1.52042e-16 0)
(5.9557e-17 -5.8631e-17 0)
(-8.27181e-18 8.67765e-18 0)
(0 -2.37668e-19 0)
(-1.65436e-18 9.59924e-19 0)
(0 7.12441e-19 0)
(0 -1.01538e-18 0)
(1.65436e-18 -5.3546e-19 0)
(0 -8.12755e-19 0)
(1.65436e-18 -1.63792e-18 0)
(1.65436e-18 -5.9213e-19 0)
(-1.65436e-18 9.98725e-19 0)
(0 -8.74513e-20 0)
(3.30872e-18 -1.88269e-18 0)
(0 -3.12362e-19 0)
(-1.65436e-18 2.46301e-18 0)
(-1.65436e-18 1.08952e-18 0)
(1.65436e-18 -1.8987e-18 0)
(1.65436e-18 -1.22152e-18 0)
(-0.02 8.53971e-17 0)
(1.22423e-16 -1.21185e-16 0)
(-4.30134e-17 4.30249e-17 0)
(8.27181e-18 -8.10362e-18 0)
(0 -1.00381e-18 0)
(0 -8.04457e-19 0)
(0 -6.79694e-19 0)
(0 1.75013e-19 0)
(0 5.50513e-19 0)
(0 5.10663e-19 0)
(0 1.07778e-18 0)
(0 -3.97181e-19 0)
(0 -1.76777e-19 0)
(0 1.49995e-18 0)
(-3.30872e-18 2.63036e-18 0)
(-3.30872e-18 1.12148e-18 0)
(1.65436e-18 -1.12664e-18 0)
(1.65436e-18 -1.15803e-18 0)
(0 3.50338e-19 0)
(1.65436e-18 -8.36703e-19 0)
(-0.02 3.67728e-17 0)
(4.1359e-17 -4.14497e-17 0)
(-6.61744e-18 6.45193e-18 0)
(1.65436e-18 -2.96768e-18 0)
(0 1.13044e-18 0)
(-1.65436e-18 3.51366e-19 0)
(0 1.42517e-20 0)
(0 -8.82304e-19 0)
(0 -9.02225e-20 0)
(0 6.88569e-19 0)
(0 1.45015e-18 0)
(-1.65436e-18 1.38477e-18 0)
(0 4.69215e-19 0)
(0 -4.6961e-19 0)
(1.65436e-18 -1.67749e-18 0)
(1.65436e-18 -1.21544e-18 0)
(-1.65436e-18 7.87301e-19 0)
(0 6.94692e-20 0)
(1.65436e-18 -1.36554e-19 0)
(-1.65436e-18 2.1836e-18 0)
(-0.02 -1.59575e-16 0)
(-2.18376e-16 2.18323e-16 0)
(6.12114e-17 -6.16959e-17 0)
(-9.92617e-18 1.01248e-17 0)
(3.30872e-18 -4.45934e-18 0)
(1.65436e-18 -1.3076e-18 0)
(0 -8.33311e-19 0)
(0 9.94479e-19 0)
(0 -7.86578e-19 0)
(1.65436e-18 -1.61761e-18 0)
(3.30872e-18 -2.38508e-18 0)
(0 -1.29968e-18 0)
(0 -6.20364e-19 0)
(0 1.37895e-19 0)
(0 7.40124e-19 0)
(0 1.4972e-18 0)
(0 -6.53664e-19 0)
(-1.65436e-18 6.65555e-19 0)
(0 9.53901e-19 0)
(0 -1.30994e-18 0)
(-0.02 1.69506e-16 0)
(2.33265e-16 -2.32514e-16 0)
(-6.94832e-17 6.89604e-17 0)
(1.15805e-17 -1.17585e-17 0)
(-3.30872e-18 3.26184e-18 0)
(0 5.3269e-20 0)
(0 6.68178e-19 0)
(1.65436e-18 -1.1832e-18 0)
(1.65436e-18 -9.97847e-19 0)
(-1.65436e-18 4.12823e-19 0)
(-1.65436e-18 1.44172e-18 0)
(0 5.44452e-19 0)
(0 4.0162e-19 0)
(-1.65436e-18 6.26296e-19 0)
(0 3.57701e-19 0)
(1.65436e-18 -9.71223e-19 0)
(-1.65436e-18 8.77095e-20 0)
(1.65436e-18 -2.06232e-19 0)
(-1.65436e-18 6.94559e-19 0)
(0 9.63786e-19 0)
(-0.02 8.35187e-18 0)
(3.30872e-18 -2.61202e-18 0)
(3.30872e-18 -3.87399e-18 0)
(0 -1.05876e-18 0)
(3.30872e-18 -1.47262e-18 0)
(0 -2.78111e-19 0)
(0 -2.33439e-19 0)
(-1.65436e-18 1.79103e-18 0)
(-3.30872e-18 2.64946e-18 0)
(-1.65436e-18 1.34619e-18 0)
(0 -1.16299e-19 0)
(0 -6.30404e-19 0)
(1.65436e-18 -1.02138e-18 0)
(1.65436e-18 -1.99884e-18 0)
(0 -1.42756e-18 0)
(1.65436e-18 -9.63693e-19 0)
(-1.65436e-18 -1.1537e-19 0)
(0 1.08827e-18 0)
(0 -9.58937e-19 0)
(0 -5.88308e-19 0)
(-0.02 -1.9387e-16 0)
(-2.53117e-16 2.53439e-16 0)
(6.78288e-17 -6.75488e-17 0)
(-1.32349e-17 1.18228e-17 0)
(1.65436e-18 -7.9501e-19 0)
(-1.65436e-18 1.07347e-18 0)
(1.65436e-18 -6.78929e-19 0)
(1.65436e-18 -1.58269e-18 0)
(1.65436e-18 -2.26551e-18 0)
(1.65436e-18 -1.33787e-18 0)
(0 -6.40017e-19 0)
(0 -3.32415e-19 0)
(0 5.1736e-19 0)
(0 7.1062e-19 0)
(0 7.22361e-19 0)
(-3.30872e-18 2.42647e-18 0)
(0 5.76275e-19 0)
(1.65436e-18 -1.21105e-18 0)
(-1.65436e-18 8.56335e-19 0)
(1.65436e-18 -2.08854e-19 0)
(-0.02 1.11002e-16 0)
(1.53856e-16 -1.5492e-16 0)
(-4.1359e-17 4.30017e-17 0)
(4.96308e-18 -4.91249e-18 0)
(-1.65436e-18 1.71639e-18 0)
(0 -3.68799e-19 0)
(0 6.65426e-19 0)
(0 5.93659e-19 0)
(-1.65436e-18 9.95811e-19 0)
(-1.65436e-18 6.78089e-19 0)
(0 9.94441e-19 0)
(0 1.41561e-18 0)
(-1.65436e-18 5.98173e-19 0)
(-1.65436e-18 9.31852e-19 0)
(0 7.11038e-19 0)
(1.65436e-18 -1.35215e-18 0)
(1.65436e-18 -7.8831e-19 0)
(-1.65436e-18 -1.04912e-19 0)
(1.65436e-18 -7.9118e-19 0)
(-1.65436e-18 2.54426e-19 0)
)
;

boundaryField
{
    movingWall
    {
        type            extrapolatedCalculated;
        value           nonuniform List<vector> 
20
(
(-0.02 1.11002e-16 0)
(1.53856e-16 -1.5492e-16 0)
(-4.1359e-17 4.30017e-17 0)
(4.96308e-18 -4.91249e-18 0)
(-1.65436e-18 1.71639e-18 0)
(0 -3.68799e-19 0)
(0 6.65426e-19 0)
(0 5.93659e-19 0)
(-1.65436e-18 9.95811e-19 0)
(-1.65436e-18 6.78089e-19 0)
(0 9.94441e-19 0)
(0 1.41561e-18 0)
(-1.65436e-18 5.98173e-19 0)
(-1.65436e-18 9.31852e-19 0)
(0 7.11038e-19 0)
(1.65436e-18 -1.35215e-18 0)
(1.65436e-18 -7.8831e-19 0)
(-1.65436e-18 -1.04912e-19 0)
(1.65436e-18 -7.9118e-19 0)
(-1.65436e-18 2.54426e-19 0)
)
;
    }
    fixedWalls
    {
        type            extrapolatedCalculated;
        value           nonuniform List<vector> 
60
(
(-0.02 1.09958e-16 0)
(-0.02 -2.01129e-16 0)
(-0.02 5.76218e-17 0)
(-0.02 1.24554e-16 0)
(-0.02 -1.74654e-16 0)
(-0.02 1.26655e-16 0)
(-0.02 5.24715e-18 0)
(-0.02 -1.12365e-16 0)
(-0.02 1.24144e-16 0)
(-0.02 -6.43276e-17 0)
(-0.02 -1.40591e-17 0)
(-0.02 5.85071e-17 0)
(-0.02 -9.7738e-17 0)
(-0.02 8.53971e-17 0)
(-0.02 3.67728e-17 0)
(-0.02 -1.59575e-16 0)
(-0.02 1.69506e-16 0)
(-0.02 8.35187e-18 0)
(-0.02 -1.9387e-16 0)
(-0.02 1.11002e-16 0)
(0 6.7148e-19 0)
(1.65436e-18 -2.16395e-18 0)
(0 1.83863e-19 0)
(-1.65436e-18 1.48621e-18 0)
(0 -6.77311e-19 0)
(-1.65436e-18 1.38357e-18 0)
(0 -3.18594e-19 0)
(1.65436e-18 -3.70525e-19 0)
(0 -9.47694e-19 0)
(0 9.2283e-19 0)
(0 5.38351e-19 0)
(0 5.52863e-20 0)
(1.65436e-18 -1.22152e-18 0)
(1.65436e-18 -8.36703e-19 0)
(-1.65436e-18 2.1836e-18 0)
(0 -1.30994e-18 0)
(0 9.63786e-19 0)
(0 -5.88308e-19 0)
(1.65436e-18 -2.08854e-19 0)
(-1.65436e-18 2.54426e-19 0)
(-0.02 1.09958e-16 0)
(1.5551e-16 -1.5478e-16 0)
(-4.96308e-17 4.94165e-17 0)
(4.96308e-18 -6.61247e-18 0)
(0 1.28704e-18 0)
(0 -7.67917e-19 0)
(0 7.72899e-19 0)
(-1.65436e-18 1.35524e-18 0)
(-1.65436e-18 2.50058e-18 0)
(-1.65436e-18 4.86945e-19 0)
(0 2.18985e-19 0)
(0 2.43708e-19 0)
(0 -2.65006e-19 0)
(0 3.4213e-19 0)
(-1.65436e-18 2.28095e-18 0)
(-1.65436e-18 1.70038e-18 0)
(0 -3.87089e-20 0)
(1.65436e-18 -1.55818e-18 0)
(0 4.13258e-20 0)
(0 6.7148e-19 0)
)
;
    }
    frontAndBack
    {
        type            empty;
    }
}


// ************************************************************************* //
