/*--------------------------------*- C++ -*----------------------------------*\
| =========                 |                                                 |
| \\      /  F ield         | OpenFOAM: The Open Source CFD Toolbox           |
|  \\    /   O peration     | Version:  2506                                  |
|   \\  /    A nd           | Website:  www.openfoam.com                      |
|    \\/     M anipulation  |                                                 |
\*---------------------------------------------------------------------------*/
FoamFile
{
    version     2.0;
    format      ascii;
    arch        "LSB;label=32;scalar=64";
    class       volTensorField;
    location    "9.75";
    object      gradU;
}
// * * * * * * * * * * * * * * * * * * * * * * * * * * * * * * * * * * * * * //

dimensions      [0 0 -1 0 0 0 0];

internalField   nonuniform List<tensor> 
400
(
(-1.0571e-12 1.40391e-11 0 1.65341e-12 1.84057e-11 0 0 0 0)
(1.73472e-12 -1.69518e-11 0 -4.33681e-13 -3.95394e-12 0 0 0 0)
(-5.14996e-13 3.64847e-12 0 5.42101e-14 9.82725e-13 0 0 0 0)
(0 -8.82148e-13 0 -2.71051e-14 -1.83076e-13 0 0 0 0)
(0 1.82409e-13 0 2.71051e-14 3.86963e-14 0 0 0 0)
(-2.71051e-14 -3.43613e-14 0 2.71051e-14 -1.517e-14 0 0 0 0)
(0 1.96632e-14 0 0 1.43643e-14 0 0 0 0)
(-2.71051e-14 8.54276e-15 0 0 3.18018e-14 0 0 0 0)
(-5.42101e-14 -1.63611e-16 0 0 3.88012e-14 0 0 0 0)
(0 -7.77453e-15 0 0 1.57571e-14 0 0 0 0)
(0 -4.44979e-15 0 -5.42101e-14 6.41212e-15 0 0 0 0)
(0 -6.32213e-15 0 -5.42101e-14 3.66421e-15 0 0 0 0)
(0 1.30381e-15 0 -5.42101e-14 1.82826e-16 0 0 0 0)
(0 9.45152e-15 0 0 9.36234e-15 0 0 0 0)
(-5.42101e-14 -2.00915e-15 0 -5.42101e-14 3.40388e-14 0 0 0 0)
(-5.42101e-14 -1.48118e-14 0 -5.42101e-14 1.99599e-14 0 0 0 0)
(5.42101e-14 -1.03414e-14 0 0 -6.19396e-15 0 0 0 0)
(0 8.22113e-15 0 0 -1.83421e-14 0 0 0 0)
(0 5.4213e-15 0 0 -2.72923e-15 0 0 0 0)
(0 -8.41261e-15 0 0 -2.58908e-15 0 0 0 0)
(2.33103e-12 4.1265e-13 0 1.19262e-12 -3.42643e-11 0 0 0 0)
(-3.36103e-12 -4.71175e-13 0 -4.33681e-13 7.43076e-12 0 0 0 0)
(9.21572e-13 1.22393e-13 0 -5.42101e-14 -1.76578e-12 0 0 0 0)
(-5.42101e-14 -6.1881e-14 0 -8.13152e-14 3.86586e-13 0 0 0 0)
(5.42101e-14 -1.45032e-14 0 -8.13152e-14 -8.33955e-14 0 0 0 0)
(0 1.00293e-14 0 -1.6263e-13 1.10183e-14 0 0 0 0)
(0 2.73085e-14 0 -8.13152e-14 -1.62026e-14 0 0 0 0)
(0 1.58941e-14 0 -1.35525e-13 -3.83362e-15 0 0 0 0)
(5.42101e-14 -1.58811e-14 0 -5.42101e-14 -7.62081e-15 0 0 0 0)
(-5.42101e-14 -2.46146e-14 0 -5.42101e-14 -9.92704e-15 0 0 0 0)
(0 -7.64305e-15 0 0 -1.32063e-14 0 0 0 0)
(0 9.28368e-17 0 0 -4.44426e-15 0 0 0 0)
(0 4.39433e-15 0 0 -6.15959e-15 0 0 0 0)
(0 2.44044e-14 0 -5.42101e-14 -1.6165e-14 0 0 0 0)
(5.42101e-14 1.26067e-14 0 -2.71051e-14 -1.42191e-14 0 0 0 0)
(2.71051e-14 -2.54209e-14 0 8.13152e-14 -8.42168e-15 0 0 0 0)
(0 -2.79606e-14 0 0 -1.22698e-15 0 0 0 0)
(0 -4.7564e-15 0 0 -6.16686e-15 0 0 0 0)
(5.42101e-14 1.03317e-14 0 0 -2.88383e-14 0 0 0 0)
(0 1.37309e-14 0 0 -1.3379e-14 0 0 0 0)
(-2.98156e-13 -1.27943e-11 0 -6.04443e-12 1.31329e-11 0 0 0 0)
(5.14996e-13 1.55466e-11 0 1.73472e-12 -2.79847e-12 0 0 0 0)
(-2.1684e-13 -3.39571e-12 0 -8.13152e-14 6.38931e-13 0 0 0 0)
(0 8.0024e-13 0 1.35525e-13 -1.47004e-13 0 0 0 0)
(-5.42101e-14 -1.93158e-13 0 8.13152e-14 5.62926e-14 0 0 0 0)
(0 3.28317e-14 0 5.42101e-14 5.24134e-15 0 0 0 0)
(0 4.81129e-15 0 2.71051e-14 -1.19635e-14 0 0 0 0)
(5.42101e-14 1.71246e-14 0 5.42101e-14 -3.95772e-14 0 0 0 0)
(2.71051e-14 -6.25704e-15 0 8.13152e-14 -3.43178e-14 0 0 0 0)
(2.71051e-14 -1.336e-14 0 8.13152e-14 -9.65193e-15 0 0 0 0)
(0 1.03299e-15 0 5.42101e-14 -6.26303e-16 0 0 0 0)
(0 7.24613e-16 0 1.0842e-13 5.84246e-15 0 0 0 0)
(0 -1.0417e-14 0 1.0842e-13 1.05831e-14 0 0 0 0)
(-2.71051e-14 1.39198e-15 0 8.13152e-14 4.51647e-15 0 0 0 0)
(2.71051e-14 5.7342e-15 0 1.0842e-13 -2.87348e-14 0 0 0 0)
(0 -1.81968e-15 0 2.71051e-14 -2.18157e-14 0 0 0 0)
(0 -8.08653e-15 0 5.42101e-14 4.23894e-15 0 0 0 0)
(-2.71051e-14 -1.93902e-14 0 5.42101e-14 2.09629e-14 0 0 0 0)
(-2.71051e-14 -1.79084e-15 0 2.71051e-14 5.3308e-15 0 0 0 0)
(0 3.38047e-14 0 0 -2.20198e-15 0 0 0 0)
(-2.03288e-12 1.07471e-11 0 3.7676e-12 1.57208e-11 0 0 0 0)
(2.62919e-12 -1.29652e-11 0 -1.0842e-12 -3.46248e-12 0 0 0 0)
(-7.04731e-13 2.77386e-12 0 8.13152e-14 8.37449e-13 0 0 0 0)
(1.0842e-13 -6.4452e-13 0 2.71051e-14 -1.78413e-13 0 0 0 0)
(-8.13152e-14 1.37742e-13 0 5.42101e-14 5.72907e-14 0 0 0 0)
(-2.71051e-14 -5.82268e-14 0 8.13152e-14 3.04651e-15 0 0 0 0)
(2.71051e-14 -1.75099e-14 0 5.42101e-14 -1.08868e-15 0 0 0 0)
(0 -6.46015e-15 0 8.13152e-14 -2.73502e-14 0 0 0 0)
(8.13152e-14 1.40441e-14 0 0 -2.72122e-14 0 0 0 0)
(-2.71051e-14 9.0769e-15 0 0 -8.96874e-15 0 0 0 0)
(0 7.85134e-15 0 0 -1.24457e-14 0 0 0 0)
(5.42101e-14 1.13022e-14 0 0 -2.13896e-14 0 0 0 0)
(0 3.06834e-15 0 0 1.47446e-15 0 0 0 0)
(-2.71051e-14 -1.49134e-14 0 -2.71051e-14 1.51688e-14 0 0 0 0)
(2.71051e-14 -1.37255e-14 0 2.71051e-14 3.29088e-15 0 0 0 0)
(-2.71051e-14 7.55282e-15 0 -2.71051e-14 2.86465e-15 0 0 0 0)
(0 1.48179e-14 0 -5.42101e-14 6.07132e-16 0 0 0 0)
(2.71051e-14 -3.66454e-15 0 -5.42101e-14 5.5784e-15 0 0 0 0)
(-2.71051e-14 -1.28332e-14 0 0 1.7536e-14 0 0 0 0)
(-2.71051e-14 1.06021e-14 0 0 9.77175e-15 0 0 0 0)
(2.38524e-12 -5.36046e-13 0 5.69206e-13 -2.66441e-11 0 0 0 0)
(-3.1984e-12 6.63304e-13 0 -1.0842e-13 5.76518e-12 0 0 0 0)
(8.67362e-13 -1.11638e-13 0 5.42101e-14 -1.34913e-12 0 0 0 0)
(-2.71051e-14 2.00812e-14 0 2.71051e-14 2.95421e-13 0 0 0 0)
(2.71051e-14 -1.16985e-14 0 0 -7.12998e-14 0 0 0 0)
(-2.71051e-14 -2.55477e-14 0 8.13152e-14 1.97666e-14 0 0 0 0)
(0 -2.55854e-14 0 5.42101e-14 8.02465e-15 0 0 0 0)
(0 -8.99893e-15 0 8.13152e-14 1.28878e-14 0 0 0 0)
(0 1.21244e-14 0 2.71051e-14 5.76765e-17 0 0 0 0)
(0 1.40648e-15 0 2.71051e-14 -1.4569e-15 0 0 0 0)
(-2.71051e-14 -1.13879e-14 0 5.42101e-14 2.31621e-15 0 0 0 0)
(0 1.46447e-14 0 0 -4.47231e-15 0 0 0 0)
(-2.71051e-14 2.61415e-14 0 -2.71051e-14 -4.32091e-15 0 0 0 0)
(0 3.20841e-15 0 0 -1.32504e-15 0 0 0 0)
(0 -6.56995e-15 0 -5.42101e-14 3.02864e-15 0 0 0 0)
(0 -4.50343e-15 0 2.71051e-14 1.0938e-14 0 0 0 0)
(-5.42101e-14 -5.37278e-15 0 0 4.22707e-15 0 0 0 0)
(5.42101e-14 -2.46131e-15 0 0 -1.33055e-14 0 0 0 0)
(0 2.4025e-15 0 -2.71051e-14 7.25078e-16 0 0 0 0)
(0 6.49694e-15 0 0 8.37137e-15 0 0 0 0)
(-1.5992e-12 -1.01319e-11 0 -2.92735e-12 1.87755e-11 0 0 0 0)
(2.11419e-12 1.23298e-11 0 8.40257e-13 -4.01428e-12 0 0 0 0)
(-5.14996e-13 -2.69589e-12 0 -2.71051e-14 9.07978e-13 0 0 0 0)
(5.42101e-14 6.33307e-13 0 -2.71051e-14 -2.12243e-13 0 0 0 0)
(0 -1.37913e-13 0 0 2.95485e-14 0 0 0 0)
(0 2.10977e-14 0 0 -2.01033e-14 0 0 0 0)
(0 -2.43887e-14 0 0 -7.51086e-15 0 0 0 0)
(2.71051e-14 -1.44271e-14 0 0 -7.11517e-15 0 0 0 0)
(-2.71051e-14 -3.0059e-16 0 2.71051e-14 -8.44548e-15 0 0 0 0)
(2.71051e-14 1.13354e-14 0 2.71051e-14 -7.46146e-15 0 0 0 0)
(2.71051e-14 4.83593e-15 0 2.71051e-14 1.78042e-14 0 0 0 0)
(-5.42101e-14 4.6651e-15 0 0 3.25246e-14 0 0 0 0)
(-2.71051e-14 6.21561e-15 0 2.71051e-14 1.64484e-14 0 0 0 0)
(-2.71051e-14 -7.5639e-15 0 5.42101e-14 4.81509e-15 0 0 0 0)
(5.42101e-14 -1.46241e-15 0 2.71051e-14 -5.43352e-15 0 0 0 0)
(0 8.75126e-15 0 0 -5.32368e-15 0 0 0 0)
(0 -9.42557e-15 0 2.71051e-14 -1.76154e-16 0 0 0 0)
(-2.71051e-14 -7.16653e-15 0 2.71051e-14 6.37595e-15 0 0 0 0)
(0 8.84372e-15 0 2.71051e-14 1.26293e-14 0 0 0 0)
(-2.71051e-14 1.50565e-15 0 2.71051e-14 9.25714e-15 0 0 0 0)
(3.52366e-13 1.42251e-11 0 2.6563e-12 5.23275e-12 0 0 0 0)
(-2.98156e-13 -1.72042e-11 0 -8.13152e-13 -1.18475e-12 0 0 0 0)
(0 3.6904e-12 0 -2.71051e-14 2.42196e-13 0 0 0 0)
(-2.71051e-14 -8.58348e-13 0 -2.71051e-14 -7.74116e-14 0 0 0 0)
(5.42101e-14 1.80441e-13 0 0 7.46307e-16 0 0 0 0)
(-2.71051e-14 -6.26071e-14 0 -2.71051e-14 -1.83047e-14 0 0 0 0)
(2.71051e-14 -1.25973e-14 0 -2.71051e-14 -2.01319e-14 0 0 0 0)
(2.71051e-14 -9.93356e-15 0 -5.42101e-14 -5.1874e-15 0 0 0 0)
(-2.71051e-14 1.17781e-14 0 -5.42101e-14 1.60722e-14 0 0 0 0)
(-2.71051e-14 2.76561e-14 0 -8.13152e-14 1.85126e-14 0 0 0 0)
(0 2.85982e-14 0 -1.35525e-13 1.56721e-14 0 0 0 0)
(0 1.3289e-14 0 -5.42101e-14 1.25714e-14 0 0 0 0)
(0 -1.56808e-15 0 -1.0842e-13 5.77807e-15 0 0 0 0)
(0 -1.86735e-14 0 -5.42101e-14 -6.59547e-16 0 0 0 0)
(-5.42101e-14 -1.67087e-14 0 -2.71051e-14 6.12025e-15 0 0 0 0)
(0 7.53936e-16 0 -5.42101e-14 -5.97144e-15 0 0 0 0)
(2.71051e-14 6.32685e-15 0 -2.71051e-14 -2.53592e-15 0 0 0 0)
(0 1.03441e-14 0 -8.13152e-14 7.8457e-15 0 0 0 0)
(-2.71051e-14 5.2837e-15 0 -2.71051e-14 8.2106e-15 0 0 0 0)
(0 -1.53895e-14 0 -2.71051e-14 1.47878e-15 0 0 0 0)
(2.1684e-13 -6.08386e-12 0 -1.92446e-12 -2.5543e-11 0 0 0 0)
(-5.69206e-13 7.33928e-12 0 4.87891e-13 5.40717e-12 0 0 0 0)
(2.71051e-13 -1.58855e-12 0 -8.13152e-14 -1.29038e-12 0 0 0 0)
(1.35525e-13 3.91857e-13 0 0 2.577e-13 0 0 0 0)
(-2.71051e-14 -7.88058e-14 0 -5.42101e-14 -7.39509e-14 0 0 0 0)
(0 2.19501e-16 0 -5.42101e-14 2.00682e-14 0 0 0 0)
(-2.71051e-14 -1.12714e-14 0 -2.71051e-14 2.45372e-14 0 0 0 0)
(-5.42101e-14 2.17769e-14 0 -8.13152e-14 4.16271e-14 0 0 0 0)
(-2.71051e-14 2.33994e-14 0 -1.0842e-13 3.97507e-14 0 0 0 0)
(0 1.09354e-14 0 -8.13152e-14 2.07827e-14 0 0 0 0)
(0 -1.10532e-15 0 0 -1.79224e-15 0 0 0 0)
(0 -5.22895e-15 0 -5.42101e-14 -1.89314e-14 0 0 0 0)
(2.71051e-14 -7.01532e-15 0 0 -2.59366e-14 0 0 0 0)
(5.42101e-14 -7.22172e-15 0 0 -2.5823e-14 0 0 0 0)
(0 -6.7743e-15 0 0 3.42005e-15 0 0 0 0)
(0 9.50936e-17 0 0 1.93795e-14 0 0 0 0)
(-8.13152e-14 4.39157e-15 0 -5.42101e-14 1.55546e-14 0 0 0 0)
(2.71051e-14 3.57999e-15 0 -2.71051e-14 -4.52814e-15 0 0 0 0)
(5.42101e-14 2.47679e-15 0 0 -1.72697e-14 0 0 0 0)
(0 -8.18373e-15 0 0 -1.01009e-14 0 0 0 0)
(-1.02999e-12 -5.91068e-12 0 6.23416e-13 2.57288e-11 0 0 0 0)
(1.54499e-12 7.04843e-12 0 -2.71051e-14 -5.62578e-12 0 0 0 0)
(-5.14996e-13 -1.45907e-12 0 8.13152e-14 1.32727e-12 0 0 0 0)
(-5.42101e-14 3.58081e-13 0 -8.13152e-14 -2.95652e-13 0 0 0 0)
(0 -5.71909e-14 0 -8.13152e-14 5.32793e-14 0 0 0 0)
(0 3.58811e-14 0 -5.42101e-14 -8.77348e-15 0 0 0 0)
(0 8.9616e-15 0 0 3.0075e-14 0 0 0 0)
(-2.71051e-14 5.2799e-15 0 -2.71051e-14 2.27696e-14 0 0 0 0)
(0 -9.0663e-15 0 2.71051e-14 3.20577e-15 0 0 0 0)
(2.71051e-14 -1.38868e-14 0 2.71051e-14 -2.23782e-14 0 0 0 0)
(5.42101e-14 -1.11159e-14 0 8.13152e-14 -2.51633e-14 0 0 0 0)
(0 -1.08554e-14 0 8.13152e-14 -1.29588e-14 0 0 0 0)
(0 -8.45969e-15 0 8.13152e-14 1.8072e-15 0 0 0 0)
(0 1.06831e-14 0 2.71051e-14 8.47794e-15 0 0 0 0)
(0 2.84939e-14 0 -5.42101e-14 3.27735e-15 0 0 0 0)
(-5.42101e-14 1.28885e-14 0 -5.42101e-14 1.25336e-15 0 0 0 0)
(5.42101e-14 -1.75808e-14 0 5.42101e-14 -2.91251e-15 0 0 0 0)
(0 -2.24802e-14 0 8.13152e-14 -1.94888e-15 0 0 0 0)
(0 -2.89033e-16 0 0 -9.83798e-15 0 0 0 0)
(0 1.19811e-14 0 2.71051e-14 -5.74781e-15 0 0 0 0)
(7.58942e-13 1.40192e-11 0 1.49078e-12 -1.17382e-11 0 0 0 0)
(-1.0571e-12 -1.70622e-11 0 -5.42101e-13 2.70229e-12 0 0 0 0)
(2.1684e-13 3.74158e-12 0 -8.13152e-14 -6.00301e-13 0 0 0 0)
(0 -8.82132e-13 0 0 1.45464e-13 0 0 0 0)
(0 2.08072e-13 0 0 -3.43422e-14 0 0 0 0)
(0 -2.29848e-14 0 -2.71051e-14 -9.41446e-15 0 0 0 0)
(2.71051e-14 2.02717e-14 0 -5.42101e-14 -2.62092e-14 0 0 0 0)
(5.42101e-14 -5.09234e-15 0 0 -3.20474e-14 0 0 0 0)
(2.71051e-14 -2.17484e-14 0 8.13152e-14 -3.62089e-14 0 0 0 0)
(2.71051e-14 -1.74337e-14 0 8.13152e-14 -2.30802e-14 0 0 0 0)
(0 8.31409e-15 0 2.71051e-14 -2.10715e-15 0 0 0 0)
(0 2.17415e-14 0 -2.71051e-14 8.17855e-15 0 0 0 0)
(-2.71051e-14 1.44214e-14 0 -2.71051e-14 1.33415e-14 0 0 0 0)
(-2.71051e-14 -5.75157e-15 0 0 2.47187e-14 0 0 0 0)
(-5.42101e-14 -1.39989e-14 0 5.42101e-14 8.09577e-15 0 0 0 0)
(5.42101e-14 -6.09476e-15 0 5.42101e-14 -2.33365e-14 0 0 0 0)
(0 1.18933e-15 0 2.71051e-14 -2.25077e-14 0 0 0 0)
(2.71051e-14 -3.34549e-15 0 0 4.2316e-15 0 0 0 0)
(0 -1.32214e-15 0 0 1.52544e-14 0 0 0 0)
(-2.71051e-14 7.40206e-15 0 0 7.63096e-15 0 0 0 0)
(-8.13152e-14 -1.49466e-11 0 -1.00289e-12 -6.39917e-12 0 0 0 0)
(-5.42101e-14 1.81864e-11 0 5.42101e-13 1.40441e-12 0 0 0 0)
(5.42101e-14 -4.0159e-12 0 2.71051e-13 -3.23805e-13 0 0 0 0)
(2.71051e-14 9.24039e-13 0 1.6263e-13 9.62986e-14 0 0 0 0)
(-2.71051e-14 -2.12069e-13 0 1.0842e-13 9.53108e-16 0 0 0 0)
(2.71051e-14 4.40141e-14 0 1.0842e-13 -1.26128e-15 0 0 0 0)
(0 -1.36714e-14 0 1.0842e-13 -1.08596e-14 0 0 0 0)
(0 -4.71981e-15 0 2.71051e-14 -1.54683e-14 0 0 0 0)
(8.13152e-14 -9.90956e-17 0 0 -1.63786e-14 0 0 0 0)
(0 2.0215e-14 0 -2.71051e-14 1.01607e-14 0 0 0 0)
(-2.71051e-14 2.01428e-14 0 -1.0842e-13 1.88628e-14 0 0 0 0)
(-5.42101e-14 4.59325e-15 0 0 5.15677e-15 0 0 0 0)
(5.42101e-14 8.0805e-15 0 0 -2.5837e-14 0 0 0 0)
(5.42101e-14 5.4374e-15 0 -2.71051e-14 -2.15367e-14 0 0 0 0)
(0 -1.95614e-14 0 0 1.49494e-15 0 0 0 0)
(-2.71051e-14 -1.7715e-14 0 0 -1.74305e-15 0 0 0 0)
(0 9.9873e-15 0 0 -8.43507e-15 0 0 0 0)
(-2.71051e-14 1.5282e-14 0 0 5.23135e-15 0 0 0 0)
(2.71051e-14 3.11033e-15 0 0 1.75879e-14 0 0 0 0)
(-2.71051e-14 -1.09043e-14 0 0 8.59316e-15 0 0 0 0)
(3.79471e-13 9.02441e-12 0 4.87891e-13 2.03236e-11 0 0 0 0)
(1.6263e-13 -1.09869e-11 0 -2.43945e-13 -4.41588e-12 0 0 0 0)
(-2.1684e-13 2.43346e-12 0 -1.0842e-13 1.04939e-12 0 0 0 0)
(-1.6263e-13 -5.57373e-13 0 0 -1.84803e-13 0 0 0 0)
(-2.71051e-14 1.10512e-13 0 2.71051e-14 9.06728e-14 0 0 0 0)
(-2.71051e-14 -3.47975e-14 0 -2.71051e-14 1.81858e-14 0 0 0 0)
(-2.71051e-14 6.06468e-15 0 -5.42101e-14 2.95358e-14 0 0 0 0)
(-5.42101e-14 -1.06114e-14 0 5.42101e-14 2.75059e-14 0 0 0 0)
(-8.13152e-14 3.88066e-15 0 -1.0842e-13 2.84683e-14 0 0 0 0)
(-2.71051e-14 1.78077e-14 0 -5.42101e-14 1.82714e-14 0 0 0 0)
(0 3.31011e-15 0 -8.13152e-14 -8.12839e-15 0 0 0 0)
(8.13152e-14 -2.29582e-14 0 0 -6.68942e-15 0 0 0 0)
(-5.42101e-14 -1.2272e-14 0 0 -1.1739e-14 0 0 0 0)
(0 2.15803e-14 0 -5.42101e-14 -3.16438e-14 0 0 0 0)
(5.42101e-14 5.79472e-15 0 -5.42101e-14 -2.5555e-14 0 0 0 0)
(0 -1.60248e-14 0 0 1.93781e-15 0 0 0 0)
(0 8.16374e-15 0 -2.71051e-14 1.1847e-14 0 0 0 0)
(0 2.26775e-14 0 -5.42101e-14 4.28941e-15 0 0 0 0)
(2.71051e-14 2.03966e-15 0 0 -4.33572e-15 0 0 0 0)
(-2.71051e-14 -1.8779e-14 0 0 -4.19243e-15 0 0 0 0)
(1.0842e-13 9.61091e-13 0 -1.0842e-12 -2.51784e-11 0 0 0 0)
(-5.42101e-13 -1.08785e-12 0 8.13152e-14 5.5315e-12 0 0 0 0)
(2.43945e-13 2.15182e-13 0 -2.71051e-13 -1.27354e-12 0 0 0 0)
(1.35525e-13 -3.46789e-14 0 -8.13152e-14 2.87952e-13 0 0 0 0)
(-2.71051e-14 -9.08078e-15 0 -1.0842e-13 -6.2116e-14 0 0 0 0)
(0 -1.71229e-14 0 -5.42101e-14 2.27053e-14 0 0 0 0)
(-5.42101e-14 -4.35122e-15 0 -5.42101e-14 3.4754e-15 0 0 0 0)
(5.42101e-14 -5.78731e-15 0 0 4.425e-15 0 0 0 0)
(0 -9.33359e-15 0 2.71051e-14 5.87643e-15 0 0 0 0)
(0 -1.63817e-14 0 5.42101e-14 -1.38751e-14 0 0 0 0)
(2.71051e-14 -4.81802e-15 0 8.13152e-14 -2.87545e-14 0 0 0 0)
(5.42101e-14 9.82603e-16 0 0 -1.2902e-14 0 0 0 0)
(-5.42101e-14 -1.68739e-14 0 2.71051e-14 1.4195e-14 0 0 0 0)
(-2.71051e-14 -8.3786e-15 0 5.42101e-14 5.58517e-15 0 0 0 0)
(8.13152e-14 1.40202e-14 0 0 -1.12799e-14 0 0 0 0)
(2.71051e-14 1.96871e-14 0 -5.42101e-14 7.57673e-15 0 0 0 0)
(-8.13152e-14 1.23389e-14 0 0 1.71455e-14 0 0 0 0)
(0 -9.00805e-16 0 0 -7.00483e-15 0 0 0 0)
(5.42101e-14 -5.37151e-15 0 0 -2.65101e-14 0 0 0 0)
(0 -2.37618e-15 0 -2.71051e-14 -1.2918e-14 0 0 0 0)
(-6.23416e-13 -1.06225e-11 0 -1.54499e-12 1.81632e-11 0 0 0 0)
(9.48677e-13 1.2918e-11 0 5.42101e-13 -4.12149e-12 0 0 0 0)
(-3.25261e-13 -2.81008e-12 0 1.35525e-13 9.41376e-13 0 0 0 0)
(0 6.54053e-13 0 0 -2.46402e-13 0 0 0 0)
(5.42101e-14 -1.54735e-13 0 8.13152e-14 2.77261e-14 0 0 0 0)
(0 3.07938e-14 0 1.0842e-13 -1.66751e-14 0 0 0 0)
(0 -1.22157e-14 0 5.42101e-14 -6.31219e-15 0 0 0 0)
(0 -8.21032e-15 0 2.71051e-14 -9.64357e-15 0 0 0 0)
(0 -1.44194e-14 0 1.0842e-13 5.00148e-15 0 0 0 0)
(0 -1.68232e-14 0 2.71051e-14 8.59437e-15 0 0 0 0)
(-5.42101e-14 4.28314e-15 0 5.42101e-14 1.71254e-14 0 0 0 0)
(2.71051e-14 1.99913e-14 0 0 3.81291e-15 0 0 0 0)
(2.71051e-14 6.21524e-15 0 -2.71051e-14 1.02674e-14 0 0 0 0)
(-5.42101e-14 -3.89459e-15 0 0 2.00326e-14 0 0 0 0)
(-5.42101e-14 7.78628e-15 0 0 1.47139e-14 0 0 0 0)
(0 1.24006e-14 0 5.42101e-14 5.83461e-15 0 0 0 0)
(0 -6.41782e-15 0 -5.42101e-14 2.50052e-15 0 0 0 0)
(5.42101e-14 -2.09781e-14 0 5.42101e-14 -6.87188e-15 0 0 0 0)
(0 -3.87347e-15 0 0 -7.81726e-15 0 0 0 0)
(0 2.0649e-14 0 0 -3.25996e-15 0 0 0 0)
(-8.94467e-13 1.50028e-11 0 4.14707e-12 2.32755e-12 0 0 0 0)
(1.0842e-12 -1.83096e-11 0 -1.27394e-12 -5.08051e-13 0 0 0 0)
(-1.89735e-13 4.09027e-12 0 5.42101e-14 8.91363e-14 0 0 0 0)
(5.42101e-14 -9.48329e-13 0 -8.13152e-14 -4.05239e-14 0 0 0 0)
(-2.71051e-14 2.20646e-13 0 -2.71051e-14 -1.01141e-15 0 0 0 0)
(-2.71051e-14 -5.11612e-14 0 -1.0842e-13 -3.79143e-15 0 0 0 0)
(0 2.68029e-15 0 0 -4.89631e-15 0 0 0 0)
(0 5.52636e-15 0 -8.13152e-14 -2.80099e-16 0 0 0 0)
(2.71051e-14 8.90435e-15 0 -1.0842e-13 5.64037e-15 0 0 0 0)
(-2.71051e-14 -4.25781e-15 0 -2.71051e-14 1.32554e-14 0 0 0 0)
(0 -9.59947e-15 0 0 1.88308e-14 0 0 0 0)
(-5.42101e-14 -5.87537e-15 0 0 6.30446e-15 0 0 0 0)
(0 -6.54211e-16 0 0 -5.85495e-15 0 0 0 0)
(0 -3.93209e-15 0 0 -6.81745e-15 0 0 0 0)
(5.42101e-14 -1.77768e-16 0 5.42101e-14 -4.73733e-15 0 0 0 0)
(2.71051e-14 7.47371e-15 0 2.71051e-14 -3.17143e-15 0 0 0 0)
(-2.71051e-14 -3.6758e-16 0 5.42101e-14 -2.27918e-15 0 0 0 0)
(0 -1.12186e-14 0 0 3.59786e-15 0 0 0 0)
(2.71051e-14 -1.75959e-15 0 0 1.36551e-14 0 0 0 0)
(-2.71051e-14 8.70103e-15 0 0 8.48961e-15 0 0 0 0)
(2.27682e-12 -8.80303e-12 0 -2.11419e-12 -2.33878e-11 0 0 0 0)
(-3.17129e-12 1.06796e-11 0 7.31836e-13 5.22373e-12 0 0 0 0)
(8.40257e-13 -2.34256e-12 0 0 -1.22385e-12 0 0 0 0)
(-8.13152e-14 5.63905e-13 0 2.71051e-14 2.58533e-13 0 0 0 0)
(5.42101e-14 -1.18002e-13 0 0 -8.31056e-14 0 0 0 0)
(2.71051e-14 2.69089e-14 0 5.42101e-14 -4.79217e-15 0 0 0 0)
(0 -8.70432e-15 0 2.71051e-14 -7.92845e-15 0 0 0 0)
(-2.71051e-14 2.32636e-15 0 0 -8.15764e-15 0 0 0 0)
(2.71051e-14 -8.83898e-16 0 5.42101e-14 -3.03041e-14 0 0 0 0)
(5.42101e-14 -3.6328e-15 0 5.42101e-14 -2.84672e-14 0 0 0 0)
(2.71051e-14 -2.66781e-15 0 2.71051e-14 -2.43409e-14 0 0 0 0)
(0 -4.69441e-15 0 2.71051e-14 -1.03511e-14 0 0 0 0)
(2.71051e-14 -6.90668e-15 0 2.71051e-14 -7.44179e-17 0 0 0 0)
(0 -2.77697e-15 0 5.42101e-14 1.08424e-14 0 0 0 0)
(0 1.14323e-14 0 5.42101e-14 7.68977e-15 0 0 0 0)
(-5.42101e-14 1.48588e-14 0 -2.71051e-14 5.62232e-15 0 0 0 0)
(2.71051e-14 3.51462e-16 0 2.71051e-14 -4.80276e-15 0 0 0 0)
(-2.71051e-14 -5.04379e-15 0 0 3.0696e-15 0 0 0 0)
(0 1.01829e-15 0 2.71051e-14 1.07501e-14 0 0 0 0)
(0 -1.49569e-15 0 0 3.75386e-15 0 0 0 0)
(-2.27682e-12 -3.16134e-12 0 -3.90313e-12 2.64691e-11 0 0 0 0)
(3.17129e-12 3.85436e-12 0 1.0842e-12 -5.78802e-12 0 0 0 0)
(-8.94467e-13 -8.74932e-13 0 -1.35525e-13 1.38443e-12 0 0 0 0)
(8.13152e-14 1.92412e-13 0 1.35525e-13 -3.12052e-13 0 0 0 0)
(-2.71051e-14 -4.26794e-14 0 2.71051e-14 5.8031e-14 0 0 0 0)
(0 2.40159e-14 0 5.42101e-14 -1.73046e-14 0 0 0 0)
(0 -6.85181e-16 0 2.71051e-14 5.60198e-15 0 0 0 0)
(0 -1.68493e-14 0 8.13152e-14 6.12147e-15 0 0 0 0)
(5.42101e-14 -1.14052e-14 0 2.71051e-14 6.97639e-15 0 0 0 0)
(-2.71051e-14 1.70545e-15 0 0 9.36067e-15 0 0 0 0)
(-2.71051e-14 8.51662e-15 0 -2.71051e-14 4.2089e-15 0 0 0 0)
(-2.71051e-14 1.83911e-14 0 -8.13152e-14 -3.17019e-15 0 0 0 0)
(0 2.05393e-14 0 -8.13152e-14 4.3175e-16 0 0 0 0)
(0 3.8321e-15 0 -5.42101e-14 2.44529e-15 0 0 0 0)
(-2.71051e-14 -5.39786e-15 0 -5.42101e-14 -5.96837e-16 0 0 0 0)
(2.71051e-14 -5.01882e-15 0 0 -5.79275e-15 0 0 0 0)
(-2.71051e-14 -2.9203e-15 0 0 1.01649e-15 0 0 0 0)
(2.71051e-14 4.3343e-15 0 0 7.61241e-15 0 0 0 0)
(0 -1.07533e-15 0 -2.71051e-14 3.95258e-15 0 0 0 0)
(-2.71051e-14 -5.80294e-15 0 0 8.03433e-16 0 0 0 0)
(-5.69206e-13 1.1878e-11 0 7.34547e-12 -1.94567e-12 0 0 0 0)
(6.23416e-13 -1.44051e-11 0 -2.00577e-12 3.46754e-13 0 0 0 0)
(-1.0842e-13 3.13341e-12 0 1.89735e-13 -9.58929e-14 0 0 0 0)
(8.13152e-14 -7.62496e-13 0 -1.35525e-13 -3.8853e-16 0 0 0 0)
(2.71051e-14 1.76746e-13 0 -2.71051e-14 1.17544e-15 0 0 0 0)
(0 -2.552e-14 0 -5.42101e-14 8.84718e-15 0 0 0 0)
(0 1.47217e-14 0 -1.0842e-13 -1.21176e-15 0 0 0 0)
(-5.42101e-14 3.70077e-15 0 -2.71051e-14 1.01811e-14 0 0 0 0)
(-5.42101e-14 2.3553e-15 0 -8.13152e-14 2.05457e-14 0 0 0 0)
(0 -6.40029e-15 0 -5.42101e-14 1.8174e-14 0 0 0 0)
(-2.71051e-14 -1.51987e-14 0 0 8.91821e-15 0 0 0 0)
(0 -8.47157e-15 0 0 -2.91756e-15 0 0 0 0)
(2.71051e-14 -1.29119e-15 0 5.42101e-14 -1.27261e-14 0 0 0 0)
(5.42101e-14 -3.80556e-15 0 0 -2.88172e-14 0 0 0 0)
(0 3.19426e-15 0 0 -2.00892e-14 0 0 0 0)
(0 1.64721e-14 0 0 -5.97518e-15 0 0 0 0)
(0 1.37566e-14 0 -2.71051e-14 5.51043e-15 0 0 0 0)
(-5.42101e-14 -2.1077e-15 0 0 5.89883e-15 0 0 0 0)
(5.42101e-14 -5.79069e-15 0 0 -1.2654e-15 0 0 0 0)
(0 -6.25171e-15 0 0 -3.00763e-15 0 0 0 0)
(3.06287e-12 -4.76026e-12 0 -9.48677e-13 -2.54654e-11 0 0 0 0)
(-3.98444e-12 5.70414e-12 0 3.52366e-13 5.54072e-12 0 0 0 0)
(1.00289e-12 -1.22207e-12 0 1.35525e-13 -1.3268e-12 0 0 0 0)
(-1.35525e-13 2.89481e-13 0 8.13152e-14 2.87773e-13 0 0 0 0)
(0 -3.34437e-14 0 5.42101e-14 -5.8745e-14 0 0 0 0)
(-2.71051e-14 2.16287e-14 0 0 1.07567e-14 0 0 0 0)
(0 6.48746e-16 0 8.13152e-14 -1.43497e-14 0 0 0 0)
(2.71051e-14 4.90819e-15 0 0 -1.81848e-14 0 0 0 0)
(5.42101e-14 -3.41226e-15 0 8.13152e-14 -2.22576e-14 0 0 0 0)
(2.71051e-14 -9.92207e-15 0 5.42101e-14 -1.80675e-14 0 0 0 0)
(2.71051e-14 -1.2575e-14 0 5.42101e-14 -1.07337e-14 0 0 0 0)
(0 -3.25321e-15 0 8.13152e-14 -4.24555e-16 0 0 0 0)
(0 -5.36039e-15 0 0 7.68619e-15 0 0 0 0)
(-2.71051e-14 -3.53101e-15 0 2.71051e-14 6.61567e-15 0 0 0 0)
(0 1.74442e-14 0 -5.42101e-14 1.09437e-14 0 0 0 0)
(-2.71051e-14 2.05808e-14 0 0 1.39498e-14 0 0 0 0)
(0 8.95372e-15 0 0 -6.81602e-16 0 0 0 0)
(0 -2.44153e-15 0 0 -5.8272e-15 0 0 0 0)
(0 -9.98179e-15 0 2.71051e-14 1.39212e-15 0 0 0 0)
(0 -1.52991e-15 0 2.71051e-14 -5.09452e-15 0 0 0 0)
(-1.16552e-12 -8.04661e-12 0 -2.43945e-12 1.62862e-11 0 0 0 0)
(1.70762e-12 9.73351e-12 0 5.42101e-13 -3.47937e-12 0 0 0 0)
(-4.33681e-13 -2.11954e-12 0 -1.89735e-13 8.48596e-13 0 0 0 0)
(0 5.05561e-13 0 -2.71051e-14 -1.3776e-13 0 0 0 0)
(0 -1.00271e-13 0 -5.42101e-14 5.35543e-14 0 0 0 0)
(0 1.88753e-14 0 0 -4.04549e-15 0 0 0 0)
(-2.71051e-14 -1.42198e-14 0 -2.71051e-14 1.30503e-14 0 0 0 0)
(0 -4.20719e-15 0 0 9.52556e-15 0 0 0 0)
(0 2.4726e-15 0 -2.71051e-14 1.23493e-14 0 0 0 0)
(-2.71051e-14 5.12365e-15 0 -5.42101e-14 1.04652e-14 0 0 0 0)
(-2.71051e-14 2.44424e-15 0 -5.42101e-14 1.71477e-14 0 0 0 0)
(-2.71051e-14 9.94831e-15 0 -2.71051e-14 2.05959e-14 0 0 0 0)
(0 5.74904e-15 0 0 1.04526e-14 0 0 0 0)
(0 -5.48066e-16 0 -2.71051e-14 2.02073e-14 0 0 0 0)
(-5.42101e-14 1.05284e-14 0 5.42101e-14 1.45317e-14 0 0 0 0)
(5.42101e-14 4.84682e-15 0 0 -7.76533e-15 0 0 0 0)
(0 -6.02042e-15 0 0 -1.08959e-14 0 0 0 0)
(2.71051e-14 -3.39744e-17 0 0 -1.06986e-14 0 0 0 0)
(0 -5.05802e-15 0 -2.71051e-14 -8.4204e-15 0 0 0 0)
(-2.71051e-14 -2.5493e-15 0 -2.71051e-14 4.34118e-15 0 0 0 0)
)
;

boundaryField
{
    movingWall
    {
        type            extrapolatedCalculated;
        value           nonuniform List<tensor> 
20
(
(-1.16552e-12 -8.04661e-12 0 6.66134e-12 4.10724e-11 0 0 0 0)
(1.70762e-12 9.73351e-12 0 -2.04281e-12 -8.88592e-12 0 0 0 0)
(-4.33681e-13 -2.11954e-12 0 -2.22045e-13 2.13833e-12 0 0 0 0)
(0 5.05561e-13 0 -2.66454e-13 -4.07763e-13 0 0 0 0)
(0 -1.00271e-13 0 -2.22045e-13 1.16086e-13 0 0 0 0)
(0 1.88753e-14 0 -2.22045e-13 -6.67982e-15 0 0 0 0)
(-2.71051e-14 -1.42198e-14 0 -2.22045e-13 4.05851e-14 0 0 0 0)
(0 -4.20719e-15 0 -1.77636e-13 5.01993e-14 0 0 0 0)
(0 2.4726e-15 0 -1.77636e-13 5.74139e-14 0 0 0 0)
(-2.71051e-14 5.12365e-15 0 -1.33227e-13 4.03089e-14 0 0 0 0)
(-2.71051e-14 2.44424e-15 0 -8.88178e-14 3.69193e-14 0 0 0 0)
(-2.71051e-14 9.94831e-15 0 0 3.0532e-14 0 0 0 0)
(0 5.74904e-15 0 8.88178e-14 -2.87392e-15 0 0 0 0)
(0 -5.48066e-16 0 0 7.53583e-15 0 0 0 0)
(-5.42101e-14 1.05284e-14 0 8.88178e-14 -6.81656e-16 0 0 0 0)
(5.42101e-14 4.84682e-15 0 8.88178e-14 -3.45779e-14 0 0 0 0)
(0 -6.02042e-15 0 0 -2.00689e-14 0 0 0 0)
(2.71051e-14 -3.39744e-17 0 0 -1.04963e-14 0 0 0 0)
(0 -5.05802e-15 0 -4.44089e-14 -1.9933e-14 0 0 0 0)
(-2.71051e-14 -2.5493e-15 0 -4.44089e-14 9.73582e-15 0 0 0 0)
)
;
    }
    fixedWalls
    {
        type            extrapolatedCalculated;
        value           nonuniform List<tensor> 
60
(
(-6.66134e-12 7.15113e-11 0 1.65341e-12 1.84057e-11 0 0 0 0)
(1.33671e-11 2.11162e-12 0 1.19262e-12 -3.42643e-11 0 0 0 0)
(-1.95399e-12 -6.55457e-11 0 -6.04443e-12 1.31329e-11 0 0 0 0)
(-1.0747e-11 5.46433e-11 0 3.7676e-12 1.57208e-11 0 0 0 0)
(1.31006e-11 -2.66257e-12 0 5.69206e-13 -2.66441e-11 0 0 0 0)
(-8.52651e-12 -5.19332e-11 0 -2.92735e-12 1.87755e-11 0 0 0 0)
(1.5099e-12 7.24392e-11 0 2.6563e-12 5.23275e-12 0 0 0 0)
(1.90958e-12 -3.10022e-11 0 -1.92446e-12 -2.5543e-11 0 0 0 0)
(-6.12843e-12 -2.97327e-11 0 6.23416e-13 2.57288e-11 0 0 0 0)
(4.30767e-12 7.1913e-11 0 1.49078e-12 -1.17382e-11 0 0 0 0)
(-1.77636e-13 -7.66856e-11 0 -1.00289e-12 -6.39917e-12 0 0 0 0)
(4.44089e-13 4.63163e-11 0 4.87891e-13 2.03236e-11 0 0 0 0)
(1.68754e-12 4.60879e-12 0 -1.0842e-12 -2.51784e-11 0 0 0 0)
(-3.81917e-12 -5.43974e-11 0 -1.54499e-12 1.81632e-11 0 0 0 0)
(-4.52971e-12 7.72615e-11 0 4.14707e-12 2.32755e-12 0 0 0 0)
(1.28342e-11 -4.50872e-11 0 -2.11419e-12 -2.33878e-11 0 0 0 0)
(-1.29674e-11 -1.62899e-11 0 -3.90313e-12 2.64691e-11 0 0 0 0)
(-2.84217e-12 6.07891e-11 0 7.34547e-12 -1.94567e-12 0 0 0 0)
(1.64313e-11 -2.40726e-11 0 -9.48677e-13 -2.54654e-11 0 0 0 0)
(-6.66134e-12 -4.10724e-11 0 -2.43945e-12 1.62862e-11 0 0 0 0)
(0 -6.47582e-15 0 0 -2.58908e-15 0 0 0 0)
(0 1.68322e-14 0 0 -1.3379e-14 0 0 0 0)
(0 4.70402e-14 0 0 -2.20198e-15 0 0 0 0)
(0 2.56401e-14 0 0 9.77175e-15 0 0 0 0)
(0 7.95321e-15 0 0 8.37137e-15 0 0 0 0)
(-4.44089e-14 -7.84541e-15 0 2.71051e-14 9.25714e-15 0 0 0 0)
(0 -2.90754e-14 0 -2.71051e-14 1.47878e-15 0 0 0 0)
(0 -1.37605e-14 0 0 -1.01009e-14 0 0 0 0)
(-4.44089e-14 1.13281e-14 0 2.71051e-14 -5.74781e-15 0 0 0 0)
(-4.44089e-14 9.23071e-15 0 0 7.63096e-15 0 0 0 0)
(-8.88178e-14 -1.91957e-14 0 0 8.59316e-15 0 0 0 0)
(-4.44089e-14 -2.51419e-14 0 0 -4.19243e-15 0 0 0 0)
(0 -2.42598e-15 0 -2.71051e-14 -1.2918e-14 0 0 0 0)
(0 2.65299e-14 0 0 -3.25996e-15 0 0 0 0)
(-4.44089e-14 1.06138e-14 0 0 8.48961e-15 0 0 0 0)
(0 -7.42854e-15 0 0 3.75386e-15 0 0 0 0)
(0 -4.4016e-15 0 0 8.03433e-16 0 0 0 0)
(0 -1.06423e-14 0 0 -3.00763e-15 0 0 0 0)
(0 7.6289e-15 0 2.71051e-14 -5.09452e-15 0 0 0 0)
(-4.44089e-14 9.73582e-15 0 -2.71051e-14 4.34118e-15 0 0 0 0)
(-1.0571e-12 1.40391e-11 0 -6.66134e-12 7.15113e-11 0 0 0 0)
(1.73472e-12 -1.69518e-11 0 2.4869e-12 -1.53548e-11 0 0 0 0)
(-5.14996e-13 3.64847e-12 0 2.22045e-13 3.70398e-12 0 0 0 0)
(0 -8.82148e-13 0 3.55271e-13 -7.60857e-13 0 0 0 0)
(0 1.82409e-13 0 2.66454e-13 1.75392e-13 0 0 0 0)
(-2.71051e-14 -3.43613e-14 0 3.10862e-13 -3.12217e-14 0 0 0 0)
(0 1.96632e-14 0 2.66454e-13 3.79469e-14 0 0 0 0)
(-2.71051e-14 8.54276e-15 0 2.66454e-13 4.7431e-14 0 0 0 0)
(-5.42101e-14 -1.63611e-16 0 1.77636e-13 7.2118e-14 0 0 0 0)
(0 -7.77453e-15 0 8.88178e-14 4.67766e-14 0 0 0 0)
(0 -4.44979e-15 0 8.88178e-14 4.10199e-14 0 0 0 0)
(0 -6.32213e-15 0 1.33227e-13 2.89774e-14 0 0 0 0)
(0 1.30381e-15 0 8.88178e-14 1.57313e-14 0 0 0 0)
(0 9.45152e-15 0 1.77636e-13 3.41926e-14 0 0 0 0)
(-5.42101e-14 -2.00915e-15 0 8.88178e-14 5.35374e-14 0 0 0 0)
(-5.42101e-14 -1.48118e-14 0 -8.88178e-14 2.6156e-14 0 0 0 0)
(5.42101e-14 -1.03414e-14 0 0 -5.70991e-15 0 0 0 0)
(0 8.22113e-15 0 0 -1.52094e-14 0 0 0 0)
(0 5.4213e-15 0 4.44089e-14 2.71746e-14 0 0 0 0)
(0 -8.41261e-15 0 0 6.47582e-15 0 0 0 0)
)
;
    }
    frontAndBack
    {
        type            empty;
    }
}


// ************************************************************************* //
