/*--------------------------------*- C++ -*----------------------------------*\
| =========                 |                                                 |
| \\      /  F ield         | OpenFOAM: The Open Source CFD Toolbox           |
|  \\    /   O peration     | Version:  2506                                  |
|   \\  /    A nd           | Website:  www.openfoam.com                      |
|    \\/     M anipulation  |                                                 |
\*---------------------------------------------------------------------------*/
FoamFile
{
    version     2.0;
    format      ascii;
    arch        "LSB;label=32;scalar=64";
    class       volVectorField;
    location    "9.75";
    object      LambVectorField;
}
// * * * * * * * * * * * * * * * * * * * * * * * * * * * * * * * * * * * * * //

dimensions      [0 1 -2 0 0 0 0];

internalField   nonuniform List<vector> 
400
(
(-2.2143e-24 -1.23857e-11 0)
(-6.34081e-25 1.65182e-11 -0)
(-3.32827e-26 -3.59426e-12 0)
(-1.62641e-27 8.55043e-13 -0)
(-6.80976e-29 -1.55304e-13 0)
(-4.7977e-30 6.14663e-14 -0)
(-1.86539e-30 -1.96632e-14 0)
(-1.01298e-30 -8.54276e-15 0)
(2.94983e-32 1.63611e-16 0)
(9.09164e-31 7.77453e-15 0)
(-5.1029e-30 -4.97603e-14 0)
(-3.46917e-30 -4.7888e-14 0)
(-2.18327e-30 -5.55139e-14 0)
(-8.0793e-31 -9.45152e-15 0)
(-6.98676e-30 -5.2201e-14 0)
(-2.57626e-30 -3.93983e-14 0)
(-1.47621e-31 1.03414e-14 -0)
(3.12596e-31 -8.22113e-15 -0)
(-3.68305e-31 -5.4213e-15 0)
(1.36196e-31 8.41261e-15 0)
(4.11751e-27 7.79973e-13 0)
(-4.32138e-29 3.74942e-14 -0)
(-1.00186e-28 -1.76603e-13 0)
(-1.38734e-30 -1.94342e-14 0)
(3.44196e-30 -6.6812e-14 -0)
(1.27156e-29 -1.7266e-13 -0)
(-5.29821e-30 -1.08624e-13 0)
(-3.01991e-29 -1.51419e-13 0)
(-7.96159e-30 -3.8329e-14 0)
(-1.20244e-30 -2.95956e-14 0)
(-2.93711e-31 7.64305e-15 -0)
(3.32369e-33 -9.28368e-17 -0)
(1.64788e-31 -4.39433e-15 -0)
(-6.40069e-31 -7.86145e-14 0)
(-8.20223e-30 -3.97117e-14 0)
(1.43249e-29 1.06736e-13 0)
(-1.33274e-30 2.79606e-14 -0)
(-6.91569e-31 4.7564e-15 -0)
(9.83877e-31 -1.03317e-14 -0)
(5.77803e-31 -1.37309e-14 -0)
(-1.10607e-24 6.74991e-12 -0)
(-4.96134e-25 -1.38119e-11 0)
(-2.78338e-26 3.31439e-12 -0)
(-1.30531e-27 -6.64714e-13 0)
(-1.08548e-28 2.74474e-13 -0)
(6.86856e-31 2.13784e-14 0)
(-1.49722e-30 2.22938e-14 -0)
(2.97579e-30 3.70855e-14 0)
(9.11511e-30 8.75722e-14 0)
(1.67301e-30 9.46752e-14 0)
(-1.56945e-30 5.31771e-14 -0)
(3.01558e-30 1.07696e-13 0)
(-2.64621e-30 1.18837e-13 -0)
(-6.08765e-30 7.99232e-14 -0)
(-8.57193e-31 1.02686e-13 -0)
(-5.44559e-31 2.89247e-14 -0)
(-1.65364e-30 6.22966e-14 -0)
(-7.33737e-30 7.36003e-14 -0)
(-6.36999e-30 2.88959e-14 -0)
(3.97545e-30 -3.38047e-14 -0)
(-9.53456e-25 -6.97949e-12 0)
(-3.46179e-25 1.1881e-11 -0)
(-1.8731e-26 -2.69255e-12 0)
(-9.3937e-28 6.71625e-13 -0)
(-4.2719e-29 -8.3532e-14 0)
(-2.96276e-30 1.39542e-13 -0)
(-5.08201e-30 7.17201e-14 -0)
(-1.72331e-29 8.77753e-14 -0)
(1.90243e-30 -1.40441e-14 -0)
(5.07309e-31 -9.0769e-15 -0)
(3.50888e-31 -7.85134e-15 -0)
(-2.55693e-31 -1.13022e-14 0)
(-2.09662e-31 -3.06834e-15 0)
(-6.49893e-31 -1.21916e-14 0)
(-3.29926e-30 4.08305e-14 -0)
(2.90946e-30 -3.46579e-14 -0)
(3.64155e-31 -6.90281e-14 -0)
(-3.24661e-30 -5.05456e-14 0)
(-5.37977e-31 1.28332e-14 -0)
(6.79597e-31 -1.06021e-14 -0)
(-7.35702e-27 1.10525e-12 -0)
(-1.00012e-27 -7.71724e-13 0)
(-3.87757e-30 1.65848e-13 -0)
(1.26134e-30 7.02388e-15 0)
(2.07568e-30 1.16985e-14 0)
(6.68892e-30 1.06863e-13 0)
(-6.2277e-30 7.97955e-14 -0)
(-1.74541e-29 9.03141e-14 -0)
(-2.51728e-30 1.49807e-14 -0)
(-1.85072e-30 2.56986e-14 -0)
(-1.01001e-29 6.5598e-14 -0)
(2.72239e-30 -1.46447e-14 -0)
(4.00573e-31 -5.32465e-14 -0)
(-2.42296e-31 -3.20841e-15 0)
(-1.17009e-30 -4.76402e-14 0)
(3.10387e-31 3.16085e-14 0)
(-1.09998e-31 5.37278e-15 -0)
(-1.08072e-31 2.46131e-15 -0)
(1.33039e-30 -2.95076e-14 -0)
(1.29179e-31 -6.49694e-15 -0)
(-9.35383e-25 7.20451e-12 -0)
(-3.27619e-25 -1.14896e-11 0)
(-1.74396e-26 2.66879e-12 -0)
(-1.02731e-27 -6.60413e-13 0)
(-2.78017e-29 1.37913e-13 -0)
(-3.72234e-30 -2.10977e-14 0)
(2.2895e-31 2.43887e-14 0)
(-9.73157e-31 1.44271e-14 -0)
(-3.69657e-30 2.74056e-14 -0)
(-1.11111e-30 1.57696e-14 -0)
(-4.79441e-31 2.22691e-14 -0)
(1.03098e-31 -4.6651e-15 -0)
(5.24777e-31 2.08894e-14 0)
(2.47443e-30 6.1774e-14 0)
(-1.44315e-30 2.85675e-14 -0)
(-2.22563e-31 -8.75126e-15 0)
(1.35146e-30 3.65306e-14 0)
(-2.35869e-30 3.42716e-14 -0)
(-6.33122e-31 1.82613e-14 -0)
(5.02095e-31 2.55994e-14 0)
(-2.09509e-24 -1.15688e-11 0)
(-6.36739e-25 1.6391e-11 -0)
(-3.36672e-26 -3.7175e-12 0)
(-1.61498e-27 8.31243e-13 -0)
(-8.53335e-29 -1.80441e-13 0)
(-4.91487e-30 3.5502e-14 -0)
(2.22193e-30 -1.45078e-14 -0)
(1.17072e-29 -4.42765e-14 -0)
(1.66614e-29 -6.59882e-14 -0)
(1.59786e-29 -1.08971e-13 -0)
(-3.9507e-30 -1.64123e-13 0)
(-9.40605e-30 -6.74991e-14 0)
(-1.67716e-29 -1.06852e-13 0)
(-4.39481e-30 -3.55366e-14 0)
(3.09542e-31 -1.03963e-14 -0)
(2.38638e-30 -5.4964e-14 -0)
(7.4335e-31 -3.34319e-14 -0)
(-1.81957e-30 -9.16593e-14 0)
(-2.63017e-30 -3.23888e-14 0)
(-8.51588e-31 -1.17156e-14 0)
(-3.22377e-25 4.1594e-12 -0)
(-1.14192e-25 -6.85139e-12 0)
(-6.19881e-27 1.50724e-12 -0)
(-3.06215e-28 -3.91857e-13 0)
(-4.77466e-30 2.45957e-14 -0)
(3.59966e-31 -5.44296e-14 -0)
(3.03897e-30 -1.58337e-14 -0)
(1.23017e-29 -1.03092e-13 -0)
(-3.40597e-30 -1.3182e-13 0)
(-1.05781e-29 -9.22505e-14 0)
(1.4943e-31 1.10532e-15 0)
(-5.07513e-30 -4.89812e-14 0)
(5.81586e-31 7.01532e-15 0)
(2.41644e-31 7.22172e-15 0)
(7.23844e-32 6.7743e-15 0)
(3.26002e-33 -9.50936e-17 -0)
(-6.81894e-31 -5.86017e-14 0)
(-2.95602e-31 -3.0685e-14 0)
(-1.17489e-31 -2.47679e-15 0)
(2.81531e-31 8.18373e-15 0)
(-4.85691e-25 6.5341e-12 -0)
(-1.07724e-25 -7.07554e-12 0)
(-5.92649e-27 1.54039e-12 -0)
(-2.78644e-28 -4.39396e-13 0)
(6.43135e-30 -2.41242e-14 -0)
(-5.60755e-30 -9.00912e-14 0)
(-8.26418e-31 -8.9616e-15 0)
(-4.91795e-30 -3.2385e-14 0)
(5.24545e-30 3.61714e-14 0)
(2.50854e-30 4.09918e-14 0)
(5.6837e-31 9.24311e-14 0)
(-4.60516e-30 9.21706e-14 -0)
(-9.1934e-30 8.97749e-14 -0)
(-2.20974e-30 1.64219e-14 -0)
(-3.66083e-31 -8.2704e-14 0)
(-1.00902e-29 -6.70986e-14 0)
(9.57057e-30 7.17909e-14 0)
(-2.63952e-30 1.03795e-13 -0)
(-2.64438e-32 2.89033e-16 -0)
(-4.28316e-31 1.5124e-14 -0)
(-2.25238e-24 -1.25284e-11 0)
(-6.54046e-25 1.65201e-11 -0)
(-3.50176e-26 -3.82289e-12 0)
(-1.9187e-27 8.82132e-13 -0)
(-7.04673e-29 -2.08072e-13 0)
(3.88737e-31 -4.12024e-15 -0)
(-8.10505e-30 -7.44818e-14 0)
(5.5185e-31 5.09234e-15 0)
(5.96695e-30 1.03064e-13 0)
(-1.0775e-29 9.87489e-14 -0)
(-2.18804e-30 1.8791e-14 -0)
(1.26876e-30 -4.88466e-14 -0)
(-4.19311e-30 -4.15265e-14 0)
(6.80067e-31 5.75157e-15 0)
(2.96427e-30 6.8209e-14 0)
(-1.31155e-30 6.03049e-14 -0)
(-4.5324e-31 2.59157e-14 -0)
(-3.29709e-32 3.34549e-15 -0)
(-6.7355e-32 1.32214e-15 -0)
(1.70816e-31 -7.40206e-15 -0)
(-2.67321e-24 1.39437e-11 -0)
(-7.4543e-25 -1.76443e-11 0)
(-4.22282e-26 4.28695e-12 -0)
(-1.59042e-27 -7.61409e-13 0)
(-1.95503e-28 3.20489e-13 -0)
(-2.05465e-30 6.44061e-14 -0)
(-2.07402e-29 1.22092e-13 -0)
(-5.36616e-30 3.18249e-14 -0)
(-2.15109e-32 9.90956e-17 -0)
(8.02577e-30 -4.732e-14 -0)
(1.91847e-30 -1.28563e-13 -0)
(-1.46167e-31 -4.59325e-15 0)
(-2.50578e-31 -8.0805e-15 0)
(-3.66516e-30 -3.25425e-14 0)
(1.67023e-30 1.95614e-14 0)
(-1.47011e-30 1.7715e-14 -0)
(9.1649e-31 -9.9873e-15 -0)
(-2.5805e-31 -1.5282e-14 0)
(-1.89898e-31 -3.11033e-15 0)
(5.23291e-31 1.09043e-14 0)
(-9.8845e-25 -8.53652e-12 0)
(-2.74447e-25 1.07429e-11 -0)
(-1.50529e-26 -2.54188e-12 0)
(-6.75584e-28 5.57373e-13 -0)
(-2.90423e-29 -8.34074e-14 0)
(-8.22796e-31 7.69248e-15 -0)
(-1.34501e-32 -6.02748e-14 0)
(-3.00216e-30 6.48215e-14 -0)
(1.18916e-29 -1.12301e-13 -0)
(5.40691e-31 -7.20178e-14 -0)
(-6.10881e-30 -8.46253e-14 0)
(5.87577e-31 2.29582e-14 0)
(-1.93155e-30 1.2272e-14 -0)
(7.36125e-30 -7.57904e-14 -0)
(-3.50476e-30 -6.00048e-14 0)
(-6.27838e-31 1.60248e-14 -0)
(3.59176e-30 -3.52688e-14 -0)
(-3.26451e-30 -7.68876e-14 0)
(-2.54826e-31 -2.03966e-15 0)
(1.18035e-30 1.8779e-14 0)
(-2.35658e-26 -2.04529e-12 0)
(-2.23434e-27 1.16916e-12 -0)
(-3.12892e-28 -4.86233e-13 0)
(-1.12283e-29 -4.66363e-14 0)
(-2.94753e-29 -9.93394e-14 0)
(-5.56145e-30 -3.70872e-14 0)
(-6.25649e-30 -4.98589e-14 0)
(6.16023e-31 5.78731e-15 0)
(2.46365e-30 3.64386e-14 0)
(9.25316e-31 7.05918e-14 0)
(-8.28656e-30 8.61332e-14 -0)
(3.44621e-32 -9.82603e-16 -0)
(-3.79891e-30 4.39789e-14 -0)
(-1.27563e-29 6.25887e-14 -0)
(2.38576e-30 -1.40202e-14 -0)
(4.70053e-30 -7.38972e-14 -0)
(-3.29509e-31 -1.23389e-14 0)
(5.38502e-32 9.00805e-16 0)
(9.50587e-32 5.37151e-15 0)
(-1.4998e-31 -2.47289e-14 0)
(-1.23449e-24 9.07754e-12 -0)
(-3.68409e-25 -1.23759e-11 0)
(-2.00699e-26 2.94561e-12 -0)
(-1.09059e-27 -6.54053e-13 0)
(-6.44325e-29 2.3605e-13 -0)
(9.32232e-30 7.76264e-14 0)
(2.32338e-30 6.64258e-14 0)
(-7.29035e-32 3.53154e-14 -0)
(-5.78895e-30 1.2284e-13 -0)
(-6.42488e-30 4.39283e-14 -0)
(-1.07522e-29 4.9927e-14 -0)
(2.06764e-30 -1.99913e-14 -0)
(5.14635e-31 -3.33203e-14 -0)
(-1.60748e-31 3.89459e-15 -0)
(4.23504e-31 -7.78628e-15 -0)
(1.52973e-30 4.18095e-14 0)
(-3.32707e-30 -4.77923e-14 0)
(-2.07445e-30 7.51882e-14 -0)
(-5.42927e-31 3.87347e-15 -0)
(1.36954e-30 -2.0649e-14 -0)
(-2.09682e-24 -1.08557e-11 0)
(-7.34681e-25 1.70357e-11 -0)
(-4.05917e-26 -4.03606e-12 0)
(-1.92759e-27 8.67013e-13 -0)
(-1.42203e-28 -2.47751e-13 0)
(9.61651e-31 -5.7259e-14 -0)
(-1.67148e-31 -2.68029e-15 0)
(-8.69123e-31 -8.68415e-14 0)
(-1.38004e-29 -1.17325e-13 0)
(-2.26306e-30 -2.28472e-14 0)
(7.20416e-31 9.59947e-15 0)
(1.79604e-32 5.87537e-15 0)
(1.06596e-32 6.54211e-16 0)
(-1.37042e-32 3.93209e-15 -0)
(-1.2524e-30 5.43879e-14 -0)
(-1.03318e-31 1.96313e-14 -0)
(2.82221e-30 5.45777e-14 0)
(-1.00279e-31 1.12186e-14 -0)
(-1.06413e-31 1.75959e-15 -0)
(2.30878e-31 -8.70103e-15 -0)
(-7.53953e-25 6.68884e-12 -0)
(-2.45588e-25 -9.94776e-12 0)
(-1.38729e-26 2.34256e-12 -0)
(-6.77549e-28 -5.368e-13 0)
(-3.34035e-29 1.18002e-13 -0)
(2.24355e-30 2.73012e-14 0)
(-5.00828e-31 3.58094e-14 -0)
(1.13185e-32 -2.32636e-15 -0)
(5.11141e-31 5.5094e-14 0)
(-7.92698e-31 5.78429e-14 -0)
(-8.05368e-31 2.97729e-14 -0)
(-1.28414e-30 3.17995e-14 -0)
(-2.51668e-30 3.40117e-14 -0)
(-6.23719e-30 5.69871e-14 -0)
(-4.35325e-30 4.27778e-14 -0)
(-2.04526e-31 -4.19638e-14 0)
(1.2527e-30 2.67536e-14 0)
(4.23098e-32 5.04379e-15 0)
(-9.42896e-32 2.60868e-14 -0)
(2.7777e-32 1.49569e-15 0)
(3.02092e-26 -7.4179e-13 -0)
(-2.524e-26 -2.77016e-12 0)
(-1.6128e-27 7.39407e-13 -0)
(-2.05975e-29 -5.68869e-14 0)
(-1.79403e-29 6.97845e-14 -0)
(-1.95406e-30 3.01942e-14 -0)
(-4.7028e-31 2.77902e-14 -0)
(-7.02546e-30 9.81645e-14 -0)
(-7.1404e-30 3.85102e-14 -0)
(3.16565e-31 -1.70545e-15 -0)
(5.9973e-30 -3.56217e-14 -0)
(1.00159e-29 -9.97062e-14 -0)
(-1.5838e-30 -1.01854e-13 0)
(-6.09088e-30 -5.80422e-14 0)
(-2.62954e-30 -4.88122e-14 0)
(2.5576e-31 5.01882e-15 0)
(1.07537e-32 2.9203e-15 0)
(-9.43025e-32 -4.3343e-15 0)
(-1.22406e-30 -2.60297e-14 0)
(6.38556e-32 5.80294e-15 0)
(-6.88827e-25 -4.53257e-12 0)
(-4.11562e-25 1.23993e-11 -0)
(-2.33204e-26 -2.94367e-12 0)
(-1.16512e-27 6.26971e-13 -0)
(-6.05915e-29 -2.03851e-13 0)
(2.607e-30 -2.86901e-14 -0)
(-5.17613e-30 -1.23142e-13 0)
(-1.73589e-30 -3.08058e-14 0)
(-6.61344e-30 -8.36705e-14 0)
(-3.82012e-30 -4.78098e-14 0)
(2.28567e-31 1.51987e-14 0)
(-6.10668e-31 8.47157e-15 -0)
(-3.86717e-30 5.55013e-14 -0)
(-3.23458e-31 3.80556e-15 -0)
(3.44126e-31 -3.19426e-15 -0)
(8.73906e-31 -1.64721e-14 -0)
(-2.32864e-30 -4.08617e-14 0)
(1.78127e-31 2.1077e-15 0)
(2.07952e-31 5.79069e-15 0)
(1.66331e-31 6.25171e-15 0)
(-2.29387e-25 3.81158e-12 -0)
(-6.73196e-26 -5.35177e-12 0)
(-4.26304e-27 1.3576e-12 -0)
(-7.45633e-29 -2.08165e-13 0)
(-2.15039e-29 8.76538e-14 -0)
(-5.13797e-31 -2.16287e-14 0)
(-2.34256e-30 8.06664e-14 -0)
(-1.48437e-31 -4.90819e-15 0)
(1.69809e-30 8.47274e-14 0)
(-2.4882e-31 6.41322e-14 -0)
(-5.28797e-30 6.67851e-14 -0)
(-1.09625e-29 8.45684e-14 -0)
(-5.98815e-31 5.36039e-15 -0)
(-5.61354e-30 3.06361e-14 -0)
(1.05347e-29 -7.16543e-14 -0)
(1.80937e-31 -2.05808e-14 -0)
(-5.26359e-31 -8.95372e-15 0)
(1.97143e-31 2.44153e-15 0)
(1.27473e-30 3.70868e-14 0)
(-5.46134e-31 2.8635e-14 -0)
(-5.75748e-25 5.60716e-12 -0)
(-2.04185e-25 -9.19141e-12 0)
(-1.03164e-26 1.9298e-12 -0)
(-5.43004e-28 -5.32666e-13 0)
(-1.33676e-29 4.60608e-14 -0)
(-3.15209e-31 -1.88753e-14 0)
(1.30738e-30 -1.28853e-14 -0)
(-5.27996e-31 4.20719e-15 -0)
(4.24542e-30 -2.95777e-14 -0)
(5.9792e-30 -5.93338e-14 -0)
(5.2291e-30 -5.66543e-14 -0)
(2.82828e-30 -3.70534e-14 -0)
(-4.13057e-32 -5.74904e-15 0)
(5.00322e-31 -2.6557e-14 -0)
(7.44397e-32 4.36817e-14 0)
(-4.18982e-31 -4.84682e-15 0)
(3.02058e-31 6.02042e-15 0)
(8.9151e-34 3.39744e-17 0)
(-1.09866e-30 -2.2047e-14 0)
(5.97676e-31 -2.45558e-14 -0)
)
;

boundaryField
{
    movingWall
    {
        type            calculated;
        value           nonuniform List<vector> 
20
(
(0 1.4708e-11 -0)
(0 -1.17763e-11 -0)
(0 1.89749e-12 -0)
(0 -7.72014e-13 -0)
(0 -1.21774e-13 -0)
(0 -2.4092e-13 -0)
(0 -2.07825e-13 -0)
(0 -1.73428e-13 -0)
(0 -1.80108e-13 -0)
(0 -1.3835e-13 -0)
(0 -9.12621e-14 -0)
(0 -9.94831e-15 -0)
(0 8.30688e-14 -0)
(0 5.48066e-16 -0)
(0 7.82894e-14 -0)
(0 8.3971e-14 -0)
(0 6.02042e-15 -0)
(0 3.39744e-17 -0)
(0 -3.93509e-14 -0)
(0 -4.18596e-14 -0)
)
;
    }
    fixedWalls
    {
        type            calculated;
        value           nonuniform List<vector> 
60
(
(0 -6.98579e-11 -0)
(0 -9.18995e-13 -0)
(0 5.95012e-11 -0)
(0 -5.08757e-11 -0)
(0 3.23177e-12 -0)
(0 4.90059e-11 -0)
(0 -6.97829e-11 -0)
(0 2.90778e-11 -0)
(0 3.03561e-11 -0)
(0 -7.04222e-11 -0)
(0 7.56827e-11 -0)
(0 -4.58284e-11 -0)
(0 -5.69299e-12 -0)
(0 5.28524e-11 -0)
(0 -7.31144e-11 -0)
(0 4.2973e-11 -0)
(0 1.23868e-11 -0)
(0 -5.34437e-11 -0)
(0 2.31239e-11 -0)
(0 3.86329e-11 -0)
(0 6.47582e-15 -0)
(0 -1.68322e-14 -0)
(0 -4.70402e-14 -0)
(0 -2.56401e-14 -0)
(0 -7.95321e-15 -0)
(0 3.49505e-14 -0)
(0 1.97031e-15 -0)
(0 1.37605e-14 -0)
(0 1.57769e-14 -0)
(0 -9.23071e-15 -0)
(0 1.91957e-14 -0)
(0 2.51419e-14 -0)
(0 -2.46791e-14 -0)
(0 -2.65299e-14 -0)
(0 -1.06138e-14 -0)
(0 7.42854e-15 -0)
(0 4.4016e-15 -0)
(0 1.06423e-14 -0)
(0 1.94761e-14 -0)
(0 -3.68409e-14 -0)
(0 -2.07005e-11 -0)
(0 1.94387e-11 -0)
(0 -3.42643e-12 -0)
(0 1.23742e-12 -0)
(0 8.40447e-14 -0)
(0 3.45224e-13 -0)
(0 2.4679e-13 -0)
(0 2.57911e-13 -0)
(0 1.77799e-13 -0)
(0 9.65924e-14 -0)
(0 9.32676e-14 -0)
(0 1.39549e-13 -0)
(0 8.7514e-14 -0)
(0 1.68184e-13 -0)
(0 9.0827e-14 -0)
(0 -7.4006e-14 -0)
(0 1.03414e-14 -0)
(0 -8.22113e-15 -0)
(0 3.89876e-14 -0)
(0 8.41261e-15 -0)
)
;
    }
    frontAndBack
    {
        type            empty;
    }
}


// ************************************************************************* //
