/*--------------------------------*- C++ -*----------------------------------*\
| =========                 |                                                 |
| \\      /  F ield         | OpenFOAM: The Open Source CFD Toolbox           |
|  \\    /   O peration     | Version:  2506                                  |
|   \\  /    A nd           | Website:  www.openfoam.com                      |
|    \\/     M anipulation  |                                                 |
\*---------------------------------------------------------------------------*/
FoamFile
{
    version     2.0;
    format      ascii;
    arch        "LSB;label=32;scalar=64";
    class       volScalarField;
    location    "9.75";
    object      Lambda2Field;
}
// * * * * * * * * * * * * * * * * * * * * * * * * * * * * * * * * * * * * * //

dimensions      [0 0 -2 0 0 0 0];

internalField   nonuniform List<scalar> 
400
(
2.43299e-23
1.0361e-23
4.63005e-25
2.39107e-26
4.9442e-27
-1.9668e-28
0
7.34684e-28
1.50553e-27
0
2.41224e-28
3.42723e-28
-7.06462e-29
0
1.26755e-27
1.20135e-27
3.83652e-29
0
0
0
5.92586e-24
1.15008e-23
8.4266e-25
7.9706e-27
4.11806e-27
-1.50967e-27
-1.95807e-27
-2.13936e-27
9.18992e-28
1.4329e-27
0
0
0
-1.06166e-27
0
-1.33242e-27
0
0
8.31647e-28
0
7.74233e-23
2.72343e-23
3.23142e-25
1.08453e-25
-1.25379e-26
1.77981e-27
1.3041e-28
2.49468e-27
2.25892e-28
-3.5169e-28
5.59985e-29
7.85627e-29
-1.01741e-27
1.33588e-28
1.35639e-27
0
-4.20403e-28
-3.1646e-28
0
0
4.46234e-23
2.09695e-23
7.22204e-25
0
1.07492e-26
-4.00004e-27
-2.14532e-28
0
7.40503e-28
8.04383e-29
0
4.57516e-28
0
6.34322e-28
0
0
-8.02914e-28
2.29774e-28
3.07511e-28
9.5487e-29
5.38427e-24
1.01578e-23
7.46264e-25
1.27899e-27
7.34684e-28
-1.34273e-27
-1.32259e-27
-5.65654e-28
3.28632e-28
3.81227e-29
0
0
0
0
3.56157e-28
-2.42541e-30
1.78681e-29
1.77036e-28
-6.45942e-29
0
3.22169e-23
1.483e-23
3.38293e-25
0
0
0
0
5.06256e-29
6.31787e-29
3.62921e-28
4.48067e-28
1.05785e-27
4.39025e-28
0
0
0
-2.5545e-28
0
2.39709e-28
1.26506e-28
3.79103e-23
1.40785e-23
-4.13693e-26
2.40003e-26
5.56975e-31
2.03203e-27
7.46742e-28
5.65408e-28
0
-1.51418e-27
-3.63016e-27
-5.62356e-28
1.70012e-28
1.01229e-27
4.90348e-28
-5.21287e-30
0
-7.79577e-28
0
4.17132e-28
1.17552e-23
3.90477e-24
2.02642e-25
1.83671e-26
5.00675e-27
0
9.07586e-28
0
-9.56856e-28
-4.5729e-28
0
2.83462e-28
6.72708e-28
6.6683e-28
0
0
3.87944e-30
0
2.98241e-28
0
0
2.19594e-24
1.46576e-25
0
4.65049e-27
-1.86814e-27
0
3.75343e-28
-2.35466e-28
1.24383e-28
0
-7.14779e-28
-6.84635e-28
2.89567e-28
-1.53391e-27
0
0
-1.82418e-27
0
3.24748e-28
2.14755e-23
1.03669e-23
0
0
0
6.23005e-28
-3.64247e-28
1.02704e-27
-4.57389e-28
-6.8294e-28
2.25354e-28
-5.22417e-28
0
6.11016e-28
0
2.14195e-28
3.22369e-29
1.79064e-29
0
5.82316e-29
1.49964e-23
9.86178e-24
-9.83661e-25
1.51011e-25
-2.22579e-26
4.77361e-27
-1.36432e-27
0
2.68259e-28
-4.44688e-28
-1.44921e-27
2.65923e-29
6.67548e-28
3.16447e-28
0
3.03823e-30
0
2.7367e-29
3.09335e-28
7.38424e-29
4.54693e-24
2.70665e-24
0
2.64486e-26
3.73013e-27
1.27391e-27
4.05917e-28
1.81333e-28
3.89703e-28
-2.30673e-28
-2.03091e-28
4.47484e-29
1.37805e-28
-1.68542e-28
3.38928e-28
0
-8.0926e-29
-1.21095e-27
1.87985e-29
1.75765e-29
0
2.05415e-25
1.1841e-27
2.1187e-26
1.71922e-27
9.28235e-28
2.47958e-28
1.95806e-29
-2.18455e-28
-6.95537e-28
3.42906e-28
1.66463e-28
0
0
1.27236e-28
-3.32557e-28
2.93968e-28
0
7.02785e-28
6.44064e-29
1.68003e-23
7.90285e-24
0
0
-9.64353e-27
3.33867e-27
-6.22368e-28
-1.29543e-28
-1.53834e-27
-3.82131e-28
5.25468e-28
1.45383e-29
0
4.01304e-28
2.165e-28
6.72239e-28
3.47911e-28
0
0
0
6.30177e-23
2.35835e-23
2.29679e-25
7.87557e-26
-5.24594e-27
5.56128e-27
0
-4.49299e-28
-2.30727e-28
2.91114e-28
0
3.97463e-29
0
0
1.28055e-29
2.12633e-28
0
0
1.86462e-28
7.20735e-29
2.37952e-23
1.78728e-23
7.06031e-25
2.18968e-26
2.93874e-27
1.4817e-27
-1.73071e-28
6.6547e-29
6.86768e-28
6.13444e-28
5.20166e-28
-2.00979e-29
0
-3.29821e-29
6.19747e-28
0
3.25929e-29
9.42242e-30
2.76007e-29
0
1.7523e-23
1.4236e-23
9.18646e-25
3.26889e-26
0
1.3019e-27
0
-1.33263e-27
0
8.76221e-29
0
-7.60789e-28
-1.66997e-27
-2.01759e-28
2.92975e-28
3.3556e-29
1.03324e-30
5.79488e-29
2.91468e-29
6.45505e-31
8.75738e-23
2.90135e-23
6.03714e-25
1.03338e-25
-4.05602e-27
1.38344e-27
-1.59466e-27
3.3453e-30
2.30605e-28
3.46961e-28
7.95345e-29
0
9.19574e-29
8.30431e-28
0
0
-3.42509e-28
3.47962e-29
1.60123e-30
0
1.38971e-23
1.78857e-23
8.4016e-25
4.19063e-26
0
1.15707e-28
5.27529e-29
3.30686e-28
2.17934e-28
0
0
-2.64355e-28
0
0
-8.25886e-28
1.94598e-28
0
0
-2.68619e-28
-1.55142e-29
2.09878e-23
8.19251e-24
5.9023e-25
0
5.4357e-27
0
5.55738e-28
0
0
0
1.61542e-28
1.54543e-28
0
1.48554e-29
7.81918e-28
6.03003e-29
0
1.14461e-28
1.37098e-28
8.79449e-29
)
;

boundaryField
{
    movingWall
    {
        type            calculated;
        value           nonuniform List<scalar> 
20
(
0
0
6.58711e-25
0
2.22646e-26
-4.14654e-27
3.89211e-27
7.47348e-28
0
5.20767e-29
5.17592e-28
7.34684e-28
5.10617e-28
0
9.35578e-28
1.62612e-27
0
1.10171e-28
2.24621e-28
2.07998e-28
)
;
    }
    fixedWalls
    {
        type            calculated;
        value           nonuniform List<scalar> 
60
(
1.62611e-22
1.81197e-22
4.00004e-22
3.21371e-22
1.70111e-22
2.24728e-22
1.947e-22
6.3309e-23
1.90218e-23
1.25762e-22
7.69385e-23
2.27945e-23
0
9.86294e-23
3.25826e-22
2.60039e-22
2.31735e-22
4.5031e-22
2.92825e-22
1.44568e-22
0
0
0
0
0
0
7.88089e-28
0
3.40087e-28
5.82316e-29
7.38424e-29
1.75765e-29
6.57564e-29
0
7.20735e-29
0
0
0
2.06782e-28
0
0
0
1.07534e-24
0
4.86035e-26
-9.70683e-27
5.23932e-27
3.01093e-27
2.90967e-27
0
0
-2.58754e-30
1.15801e-28
1.67893e-27
2.68781e-27
1.99969e-27
3.26031e-29
0
2.40754e-28
0
)
;
    }
    frontAndBack
    {
        type            empty;
    }
}


// ************************************************************************* //
