/*--------------------------------*- C++ -*----------------------------------*\
| =========                 |                                                 |
| \\      /  F ield         | OpenFOAM: The Open Source CFD Toolbox           |
|  \\    /   O peration     | Version:  2506                                  |
|   \\  /    A nd           | Website:  www.openfoam.com                      |
|    \\/     M anipulation  |                                                 |
\*---------------------------------------------------------------------------*/
FoamFile
{
    version     2.0;
    format      ascii;
    arch        "LSB;label=32;scalar=64";
    class       volScalarField;
    location    "9.75";
    object      QField;
}
// * * * * * * * * * * * * * * * * * * * * * * * * * * * * * * * * * * * * * //

dimensions      [0 0 -2 0 0 0 0];

internalField   nonuniform List<scalar> 
400
(
-4.26691e-23
-1.42107e-23
-7.03884e-25
-2.39107e-26
-4.9442e-27
1.34255e-27
0
-8.61988e-28
-2.10342e-27
0
-2.41224e-28
-3.42723e-28
7.06796e-29
0
-1.95416e-27
-1.88498e-27
-3.35775e-28
0
0
0
-8.03633e-23
-2.51793e-23
-1.62066e-24
-2.59887e-26
-5.70021e-27
1.63107e-27
2.2206e-27
2.15406e-27
-1.27404e-27
-7.96212e-28
0
0
0
1.32297e-27
-4.29115e-28
1.83884e-27
0
0
-1.56333e-27
0
-8.12501e-23
-2.84103e-23
-4.14668e-25
-1.08453e-25
1.26551e-26
-1.77981e-27
-1.3041e-28
-3.07381e-27
-4.21393e-28
8.24758e-28
-5.59985e-29
-7.85627e-29
1.12941e-27
-2.35609e-28
-1.40056e-27
4.93226e-29
4.38372e-28
4.82944e-28
-9.59508e-29
0
-7.24492e-23
-2.31604e-23
-8.15734e-25
-1.87388e-27
-1.21256e-26
4.65214e-27
9.19707e-28
5.25308e-28
-2.21276e-27
2.43098e-28
0
-1.15953e-27
0
-8.15381e-28
4.61229e-28
1.27073e-28
8.03282e-28
-4.74522e-29
-4.75314e-28
-2.64864e-28
-6.32476e-23
-1.83674e-23
-1.16413e-24
-8.55171e-27
-1.93258e-27
1.54164e-27
1.38699e-27
7.3175e-28
-3.28632e-28
-3.81227e-29
5.54558e-28
0
8.25684e-28
0
-3.56157e-28
1.22066e-28
-2.2915e-28
-7.21293e-28
6.512e-29
0
-5.96851e-23
-1.88472e-23
-5.40677e-25
5.66014e-27
0
0
0
-1.92857e-28
2.37063e-28
-5.09491e-28
3.51505e-28
-1.76316e-27
-6.14309e-28
2.79526e-28
-2.54913e-28
0
2.55481e-28
2.14288e-29
-2.39709e-28
-2.91726e-28
-3.59423e-23
-1.36364e-23
1.00028e-25
-2.11673e-26
4.04574e-29
-1.20082e-27
-8.87125e-28
-6.79104e-28
2.02854e-28
1.74708e-27
3.87578e-27
7.20396e-28
-1.70012e-28
-1.01229e-27
-7.8467e-28
4.0871e-29
1.02753e-28
8.41132e-28
-7.93339e-29
-4.17132e-28
-1.72469e-23
-6.65857e-24
-4.78931e-25
3.49249e-26
-2.26763e-27
1.18992e-29
-9.70594e-28
-4.85816e-28
1.45953e-27
8.89211e-28
0
-2.83462e-28
-7.03013e-28
-1.39987e-27
0
0
-1.02676e-27
-2.56998e-29
-9.3619e-28
0
-2.28156e-23
-8.50071e-24
-5.64893e-25
4.51447e-26
-4.65049e-27
1.94512e-27
0
-4.74059e-28
2.45743e-28
-2.30161e-28
-4.6021e-28
8.8271e-28
6.87901e-28
-2.89567e-28
1.54465e-27
6.30743e-28
7.9517e-28
1.82798e-27
0
-3.24748e-28
-2.98081e-23
-1.2106e-23
1.74077e-25
0
0
-6.23005e-28
3.8853e-28
-1.73729e-27
7.8703e-28
7.92033e-28
-2.25354e-28
5.89306e-28
2.92714e-29
-6.70003e-28
3.20008e-28
-9.34677e-28
-3.22369e-29
1.14698e-28
0
-2.06838e-28
-1.44694e-23
-9.93498e-24
1.07096e-24
-1.47667e-25
2.29668e-26
-4.8062e-27
1.48225e-27
1.27931e-28
-1.33183e-27
5.47928e-28
1.67261e-27
-2.79549e-28
-1.40062e-27
-1.02012e-27
0
4.72455e-29
0
-1.41796e-28
4.76722e-28
-2.32918e-28
3.30928e-24
-3.39836e-24
3.62863e-26
3.00545e-26
-5.45314e-27
-1.43612e-27
-4.71803e-28
-9.15856e-28
-1.89416e-27
4.70109e-28
2.69162e-28
-5.43952e-28
6.36375e-28
1.16987e-27
-1.07121e-27
0
2.21278e-28
1.22935e-27
-1.1752e-28
1.13636e-28
-1.68783e-24
-2.91017e-24
-2.5235e-25
3.62049e-26
6.99117e-28
-9.28235e-28
-4.24282e-28
2.3988e-28
2.52987e-28
8.88055e-28
-3.87614e-28
-6.99421e-28
-3.12146e-28
3.02819e-28
-9.17227e-28
1.27261e-27
-1.39419e-27
0
-1.43711e-27
-6.44064e-29
-2.77349e-23
-1.09128e-23
7.46448e-26
0
1.40853e-26
-3.33867e-27
6.62212e-28
2.22541e-28
1.56336e-27
4.55994e-28
-1.16056e-27
1.03349e-28
4.46763e-28
-1.08597e-27
-7.97643e-28
-6.72239e-28
-3.47911e-28
7.64699e-28
0
0
-6.42995e-23
-2.38762e-23
-2.38646e-25
-7.93103e-26
6.00804e-27
-5.44414e-27
0
4.49377e-28
1.11829e-27
-4.74697e-28
0
-3.41766e-28
0
0
-2.47174e-28
-2.88537e-28
8.17038e-29
0
3.70122e-28
-2.30111e-28
-7.18613e-23
-2.43817e-23
-1.02835e-24
-3.63074e-26
-4.50516e-27
-1.58863e-27
2.35931e-28
2.21113e-28
-7.73479e-28
-1.34627e-27
-5.87449e-28
1.27242e-28
1.85189e-28
1.5054e-28
-6.19747e-28
9.79615e-29
-1.39706e-28
-8.32016e-29
-2.76007e-29
0
-7.26046e-23
-2.25344e-23
-1.3569e-24
-5.14513e-26
-4.16104e-28
-1.3019e-27
1.85719e-29
1.3701e-27
6.87329e-28
-2.53721e-28
1.16761e-28
1.5814e-27
1.67015e-27
2.07738e-28
-2.76441e-28
-1.57013e-28
-2.75519e-29
2.06335e-28
-2.91468e-29
-2.17771e-29
-8.61423e-23
-2.86771e-23
-5.84122e-25
-1.03369e-25
4.82256e-27
-1.38344e-27
1.59613e-27
-4.51609e-28
-9.22265e-28
-3.46961e-28
-2.41729e-28
0
-2.74945e-28
-1.56218e-27
0
0
3.72874e-28
-3.19776e-28
-6.85974e-29
0
-8.25131e-23
-2.40866e-23
-1.16501e-24
-6.25397e-26
1.81299e-27
-2.91562e-28
-5.27529e-29
-4.92899e-28
-9.2912e-28
4.8157e-29
3.90752e-28
2.64535e-28
0
-8.36099e-29
9.4565e-28
-3.78111e-28
0
0
2.70557e-28
4.14683e-29
-3.86113e-23
-1.1218e-23
-7.70171e-25
1.37033e-26
-5.4357e-27
0
-7.39157e-28
0
6.70201e-29
-5.90657e-30
-3.32288e-28
-2.88604e-28
0
-1.48554e-29
-1.35851e-27
-4.20959e-28
0
-2.89987e-28
-1.37098e-28
-1.86767e-28
)
;

boundaryField
{
    movingWall
    {
        type            calculated;
        value           nonuniform List<scalar> 
20
(
5.73066e-24
4.70996e-24
-1.39798e-24
1.34708e-25
-2.22646e-26
4.19116e-27
-4.25749e-27
-7.47348e-28
4.39223e-28
-4.09969e-28
-7.83608e-28
-8.27571e-28
-5.10617e-28
0
-8.9816e-28
-2.30496e-27
0
-2.84502e-28
-2.24621e-28
-3.77102e-28
)
;
    }
    fixedWalls
    {
        type            calculated;
        value           nonuniform List<scalar> 
60
(
-2.40844e-22
-4.60532e-22
-4.21848e-22
-3.74825e-22
-3.47539e-22
-3.12116e-22
-1.84519e-22
-1.08439e-22
-1.39141e-22
-1.57771e-22
-7.57703e-23
-1.35718e-23
-3.74927e-23
-1.53412e-22
-3.30952e-22
-3.95487e-22
-4.06817e-22
-4.40995e-22
-4.41266e-22
-2.08682e-22
0
0
0
0
0
-1.98449e-28
-7.88089e-28
0
-5.17957e-29
-3.38883e-28
-7.63226e-28
1.86181e-28
-6.57564e-29
0
-3.77015e-28
0
0
0
-2.06782e-28
7.11027e-29
1.79251e-23
1.55213e-23
-2.71766e-24
3.13402e-25
-4.86035e-26
1.15279e-26
-5.23932e-27
-3.56187e-27
-3.88046e-27
6.90517e-28
3.95221e-28
8.42277e-28
-1.15801e-28
-1.67893e-27
-2.72382e-27
-2.73348e-27
-3.09535e-28
0
-2.40754e-28
0
)
;
    }
    frontAndBack
    {
        type            empty;
    }
}


// ************************************************************************* //
