/*--------------------------------*- C++ -*----------------------------------*\
| =========                 |                                                 |
| \\      /  F ield         | OpenFOAM: The Open Source CFD Toolbox           |
|  \\    /   O peration     | Version:  2506                                  |
|   \\  /    A nd           | Website:  www.openfoam.com                      |
|    \\/     M anipulation  |                                                 |
\*---------------------------------------------------------------------------*/
FoamFile
{
    version     2.0;
    format      ascii;
    arch        "LSB;label=32;scalar=64";
    class       volVectorField;
    location    "9.75";
    object      vorticityField;
}
// * * * * * * * * * * * * * * * * * * * * * * * * * * * * * * * * * * * * * //

dimensions      [0 0 -1 0 0 0 0];

internalField   nonuniform List<vector> 
400
(
(0 -0 1.23857e-11)
(0 -0 -1.65182e-11)
(0 -0 3.59426e-12)
(0 -0 -8.55043e-13)
(0 -0 1.55304e-13)
(0 -0 -6.14663e-14)
(0 -0 1.96632e-14)
(0 -0 8.54276e-15)
(0 -0 -1.63611e-16)
(0 -0 -7.77453e-15)
(0 -0 4.97603e-14)
(0 -0 4.7888e-14)
(0 -0 5.55139e-14)
(0 -0 9.45152e-15)
(0 -0 5.2201e-14)
(0 -0 3.93983e-14)
(0 -0 -1.03414e-14)
(0 -0 8.22113e-15)
(0 -0 5.4213e-15)
(0 -0 -8.41261e-15)
(0 -0 -7.79973e-13)
(0 -0 -3.74942e-14)
(0 -0 1.76603e-13)
(0 -0 1.94342e-14)
(0 -0 6.6812e-14)
(0 -0 1.7266e-13)
(0 -0 1.08624e-13)
(0 -0 1.51419e-13)
(0 -0 3.8329e-14)
(0 -0 2.95956e-14)
(0 -0 -7.64305e-15)
(0 -0 9.28368e-17)
(0 -0 4.39433e-15)
(0 -0 7.86145e-14)
(0 -0 3.97117e-14)
(0 -0 -1.06736e-13)
(0 -0 -2.79606e-14)
(0 -0 -4.7564e-15)
(0 -0 1.03317e-14)
(0 -0 1.37309e-14)
(0 -0 -6.74991e-12)
(0 -0 1.38119e-11)
(0 -0 -3.31439e-12)
(0 -0 6.64714e-13)
(0 -0 -2.74474e-13)
(0 -0 -2.13784e-14)
(0 -0 -2.22938e-14)
(0 -0 -3.70855e-14)
(0 -0 -8.75722e-14)
(0 -0 -9.46752e-14)
(0 -0 -5.31771e-14)
(0 -0 -1.07696e-13)
(0 -0 -1.18837e-13)
(0 -0 -7.99232e-14)
(0 -0 -1.02686e-13)
(0 -0 -2.89247e-14)
(0 -0 -6.22966e-14)
(0 -0 -7.36003e-14)
(0 -0 -2.88959e-14)
(0 -0 3.38047e-14)
(0 -0 6.97949e-12)
(0 -0 -1.1881e-11)
(0 -0 2.69255e-12)
(0 -0 -6.71625e-13)
(0 -0 8.3532e-14)
(0 -0 -1.39542e-13)
(0 -0 -7.17201e-14)
(0 -0 -8.77753e-14)
(0 -0 1.40441e-14)
(0 -0 9.0769e-15)
(0 -0 7.85134e-15)
(0 -0 1.13022e-14)
(0 -0 3.06834e-15)
(0 -0 1.21916e-14)
(0 -0 -4.08305e-14)
(0 -0 3.46579e-14)
(0 -0 6.90281e-14)
(0 -0 5.05456e-14)
(0 -0 -1.28332e-14)
(0 -0 1.06021e-14)
(0 -0 -1.10525e-12)
(0 -0 7.71724e-13)
(0 -0 -1.65848e-13)
(0 -0 -7.02388e-15)
(0 -0 -1.16985e-14)
(0 -0 -1.06863e-13)
(0 -0 -7.97955e-14)
(0 -0 -9.03141e-14)
(0 -0 -1.49807e-14)
(0 -0 -2.56986e-14)
(0 -0 -6.5598e-14)
(0 -0 1.46447e-14)
(0 -0 5.32465e-14)
(0 -0 3.20841e-15)
(0 -0 4.76402e-14)
(0 -0 -3.16085e-14)
(0 -0 -5.37278e-15)
(0 -0 -2.46131e-15)
(0 -0 2.95076e-14)
(0 -0 6.49694e-15)
(0 -0 -7.20451e-12)
(0 -0 1.14896e-11)
(0 -0 -2.66879e-12)
(0 -0 6.60413e-13)
(0 -0 -1.37913e-13)
(0 -0 2.10977e-14)
(0 -0 -2.43887e-14)
(0 -0 -1.44271e-14)
(0 -0 -2.74056e-14)
(0 -0 -1.57696e-14)
(0 -0 -2.22691e-14)
(0 -0 4.6651e-15)
(0 -0 -2.08894e-14)
(0 -0 -6.1774e-14)
(0 -0 -2.85675e-14)
(0 -0 8.75126e-15)
(0 -0 -3.65306e-14)
(0 -0 -3.42716e-14)
(0 -0 -1.82613e-14)
(0 -0 -2.55994e-14)
(0 -0 1.15688e-11)
(0 -0 -1.6391e-11)
(0 -0 3.7175e-12)
(0 -0 -8.31243e-13)
(0 -0 1.80441e-13)
(0 -0 -3.5502e-14)
(0 -0 1.45078e-14)
(0 -0 4.42765e-14)
(0 -0 6.59882e-14)
(0 -0 1.08971e-13)
(0 -0 1.64123e-13)
(0 -0 6.74991e-14)
(0 -0 1.06852e-13)
(0 -0 3.55366e-14)
(0 -0 1.03963e-14)
(0 -0 5.4964e-14)
(0 -0 3.34319e-14)
(0 -0 9.16593e-14)
(0 -0 3.23888e-14)
(0 -0 1.17156e-14)
(0 -0 -4.1594e-12)
(0 -0 6.85139e-12)
(0 -0 -1.50724e-12)
(0 -0 3.91857e-13)
(0 -0 -2.45957e-14)
(0 -0 5.44296e-14)
(0 -0 1.58337e-14)
(0 -0 1.03092e-13)
(0 -0 1.3182e-13)
(0 -0 9.22505e-14)
(0 -0 -1.10532e-15)
(0 -0 4.89812e-14)
(0 -0 -7.01532e-15)
(0 -0 -7.22172e-15)
(0 -0 -6.7743e-15)
(0 -0 9.50936e-17)
(0 -0 5.86017e-14)
(0 -0 3.0685e-14)
(0 -0 2.47679e-15)
(0 -0 -8.18373e-15)
(0 -0 -6.5341e-12)
(0 -0 7.07554e-12)
(0 -0 -1.54039e-12)
(0 -0 4.39396e-13)
(0 -0 2.41242e-14)
(0 -0 9.00912e-14)
(0 -0 8.9616e-15)
(0 -0 3.2385e-14)
(0 -0 -3.61714e-14)
(0 -0 -4.09918e-14)
(0 -0 -9.24311e-14)
(0 -0 -9.21706e-14)
(0 -0 -8.97749e-14)
(0 -0 -1.64219e-14)
(0 -0 8.2704e-14)
(0 -0 6.70986e-14)
(0 -0 -7.17909e-14)
(0 -0 -1.03795e-13)
(0 -0 -2.89033e-16)
(0 -0 -1.5124e-14)
(0 -0 1.25284e-11)
(0 -0 -1.65201e-11)
(0 -0 3.82289e-12)
(0 -0 -8.82132e-13)
(0 -0 2.08072e-13)
(0 -0 4.12024e-15)
(0 -0 7.44818e-14)
(0 -0 -5.09234e-15)
(0 -0 -1.03064e-13)
(0 -0 -9.87489e-14)
(0 -0 -1.8791e-14)
(0 -0 4.88466e-14)
(0 -0 4.15265e-14)
(0 -0 -5.75157e-15)
(0 -0 -6.8209e-14)
(0 -0 -6.03049e-14)
(0 -0 -2.59157e-14)
(0 -0 -3.34549e-15)
(0 -0 -1.32214e-15)
(0 -0 7.40206e-15)
(0 -0 -1.39437e-11)
(0 -0 1.76443e-11)
(0 -0 -4.28695e-12)
(0 -0 7.61409e-13)
(0 -0 -3.20489e-13)
(0 -0 -6.44061e-14)
(0 -0 -1.22092e-13)
(0 -0 -3.18249e-14)
(0 -0 -9.90956e-17)
(0 -0 4.732e-14)
(0 -0 1.28563e-13)
(0 -0 4.59325e-15)
(0 -0 8.0805e-15)
(0 -0 3.25425e-14)
(0 -0 -1.95614e-14)
(0 -0 -1.7715e-14)
(0 -0 9.9873e-15)
(0 -0 1.5282e-14)
(0 -0 3.11033e-15)
(0 -0 -1.09043e-14)
(0 -0 8.53652e-12)
(0 -0 -1.07429e-11)
(0 -0 2.54188e-12)
(0 -0 -5.57373e-13)
(0 -0 8.34074e-14)
(0 -0 -7.69248e-15)
(0 -0 6.02748e-14)
(0 -0 -6.48215e-14)
(0 -0 1.12301e-13)
(0 -0 7.20178e-14)
(0 -0 8.46253e-14)
(0 -0 -2.29582e-14)
(0 -0 -1.2272e-14)
(0 -0 7.57904e-14)
(0 -0 6.00048e-14)
(0 -0 -1.60248e-14)
(0 -0 3.52688e-14)
(0 -0 7.68876e-14)
(0 -0 2.03966e-15)
(0 -0 -1.8779e-14)
(0 -0 2.04529e-12)
(0 -0 -1.16916e-12)
(0 -0 4.86233e-13)
(0 -0 4.66363e-14)
(0 -0 9.93394e-14)
(0 -0 3.70872e-14)
(0 -0 4.98589e-14)
(0 -0 -5.78731e-15)
(0 -0 -3.64386e-14)
(0 -0 -7.05918e-14)
(0 -0 -8.61332e-14)
(0 -0 9.82603e-16)
(0 -0 -4.39789e-14)
(0 -0 -6.25887e-14)
(0 -0 1.40202e-14)
(0 -0 7.38972e-14)
(0 -0 1.23389e-14)
(0 -0 -9.00805e-16)
(0 -0 -5.37151e-15)
(0 -0 2.47289e-14)
(0 -0 -9.07754e-12)
(0 -0 1.23759e-11)
(0 -0 -2.94561e-12)
(0 -0 6.54053e-13)
(0 -0 -2.3605e-13)
(0 -0 -7.76264e-14)
(0 -0 -6.64258e-14)
(0 -0 -3.53154e-14)
(0 -0 -1.2284e-13)
(0 -0 -4.39283e-14)
(0 -0 -4.9927e-14)
(0 -0 1.99913e-14)
(0 -0 3.33203e-14)
(0 -0 -3.89459e-15)
(0 -0 7.78628e-15)
(0 -0 -4.18095e-14)
(0 -0 4.77923e-14)
(0 -0 -7.51882e-14)
(0 -0 -3.87347e-15)
(0 -0 2.0649e-14)
(0 -0 1.08557e-11)
(0 -0 -1.70357e-11)
(0 -0 4.03606e-12)
(0 -0 -8.67013e-13)
(0 -0 2.47751e-13)
(0 -0 5.7259e-14)
(0 -0 2.68029e-15)
(0 -0 8.68415e-14)
(0 -0 1.17325e-13)
(0 -0 2.28472e-14)
(0 -0 -9.59947e-15)
(0 -0 -5.87537e-15)
(0 -0 -6.54211e-16)
(0 -0 -3.93209e-15)
(0 -0 -5.43879e-14)
(0 -0 -1.96313e-14)
(0 -0 -5.45777e-14)
(0 -0 -1.12186e-14)
(0 -0 -1.75959e-15)
(0 -0 8.70103e-15)
(0 -0 -6.68884e-12)
(0 -0 9.94776e-12)
(0 -0 -2.34256e-12)
(0 -0 5.368e-13)
(0 -0 -1.18002e-13)
(0 -0 -2.73012e-14)
(0 -0 -3.58094e-14)
(0 -0 2.32636e-15)
(0 -0 -5.5094e-14)
(0 -0 -5.78429e-14)
(0 -0 -2.97729e-14)
(0 -0 -3.17995e-14)
(0 -0 -3.40117e-14)
(0 -0 -5.69871e-14)
(0 -0 -4.27778e-14)
(0 -0 4.19638e-14)
(0 -0 -2.67536e-14)
(0 -0 -5.04379e-15)
(0 -0 -2.60868e-14)
(0 -0 -1.49569e-15)
(0 -0 7.4179e-13)
(0 -0 2.77016e-12)
(0 -0 -7.39407e-13)
(0 -0 5.68869e-14)
(0 -0 -6.97845e-14)
(0 -0 -3.01942e-14)
(0 -0 -2.77902e-14)
(0 -0 -9.81645e-14)
(0 -0 -3.85102e-14)
(0 -0 1.70545e-15)
(0 -0 3.56217e-14)
(0 -0 9.97062e-14)
(0 -0 1.01854e-13)
(0 -0 5.80422e-14)
(0 -0 4.88122e-14)
(0 -0 -5.01882e-15)
(0 -0 -2.9203e-15)
(0 -0 4.3343e-15)
(0 -0 2.60297e-14)
(0 -0 -5.80294e-15)
(0 -0 4.53257e-12)
(0 -0 -1.23993e-11)
(0 -0 2.94367e-12)
(0 -0 -6.26971e-13)
(0 -0 2.03851e-13)
(0 -0 2.86901e-14)
(0 -0 1.23142e-13)
(0 -0 3.08058e-14)
(0 -0 8.36705e-14)
(0 -0 4.78098e-14)
(0 -0 -1.51987e-14)
(0 -0 -8.47157e-15)
(0 -0 -5.55013e-14)
(0 -0 -3.80556e-15)
(0 -0 3.19426e-15)
(0 -0 1.64721e-14)
(0 -0 4.08617e-14)
(0 -0 -2.1077e-15)
(0 -0 -5.79069e-15)
(0 -0 -6.25171e-15)
(0 -0 -3.81158e-12)
(0 -0 5.35177e-12)
(0 -0 -1.3576e-12)
(0 -0 2.08165e-13)
(0 -0 -8.76538e-14)
(0 -0 2.16287e-14)
(0 -0 -8.06664e-14)
(0 -0 4.90819e-15)
(0 -0 -8.47274e-14)
(0 -0 -6.41322e-14)
(0 -0 -6.67851e-14)
(0 -0 -8.45684e-14)
(0 -0 -5.36039e-15)
(0 -0 -3.06361e-14)
(0 -0 7.16543e-14)
(0 -0 2.05808e-14)
(0 -0 8.95372e-15)
(0 -0 -2.44153e-15)
(0 -0 -3.70868e-14)
(0 -0 -2.8635e-14)
(0 -0 -5.60716e-12)
(0 -0 9.19141e-12)
(0 -0 -1.9298e-12)
(0 -0 5.32666e-13)
(0 -0 -4.60608e-14)
(0 -0 1.88753e-14)
(0 -0 1.28853e-14)
(0 -0 -4.20719e-15)
(0 -0 2.95777e-14)
(0 -0 5.93338e-14)
(0 -0 5.66543e-14)
(0 -0 3.70534e-14)
(0 -0 5.74904e-15)
(0 -0 2.6557e-14)
(0 -0 -4.36817e-14)
(0 -0 4.84682e-15)
(0 -0 -6.02042e-15)
(0 -0 -3.39744e-17)
(0 -0 2.2047e-14)
(0 -0 2.45558e-14)
)
;

boundaryField
{
    movingWall
    {
        type            calculated;
        value           nonuniform List<vector> 
20
(
(0 -0 -1.4708e-11)
(0 -0 1.17763e-11)
(0 -0 -1.89749e-12)
(0 -0 7.72014e-13)
(0 -0 1.21774e-13)
(0 -0 2.4092e-13)
(0 -0 2.07825e-13)
(0 -0 1.73428e-13)
(0 -0 1.80108e-13)
(0 -0 1.3835e-13)
(0 -0 9.12621e-14)
(0 -0 9.94831e-15)
(0 -0 -8.30688e-14)
(0 -0 -5.48066e-16)
(0 -0 -7.82894e-14)
(0 -0 -8.3971e-14)
(0 -0 -6.02042e-15)
(0 -0 -3.39744e-17)
(0 -0 3.93509e-14)
(0 -0 4.18596e-14)
)
;
    }
    fixedWalls
    {
        type            calculated;
        value           nonuniform List<vector> 
60
(
(0 -0 6.98579e-11)
(0 -0 9.18995e-13)
(0 -0 -5.95012e-11)
(0 -0 5.08757e-11)
(0 -0 -3.23177e-12)
(0 -0 -4.90059e-11)
(0 -0 6.97829e-11)
(0 -0 -2.90778e-11)
(0 -0 -3.03561e-11)
(0 -0 7.04222e-11)
(0 -0 -7.56827e-11)
(0 -0 4.58284e-11)
(0 -0 5.69299e-12)
(0 -0 -5.28524e-11)
(0 -0 7.31144e-11)
(0 -0 -4.2973e-11)
(0 -0 -1.23868e-11)
(0 -0 5.34437e-11)
(0 -0 -2.31239e-11)
(0 -0 -3.86329e-11)
(0 -0 -6.47582e-15)
(0 -0 1.68322e-14)
(0 -0 4.70402e-14)
(0 -0 2.56401e-14)
(0 -0 7.95321e-15)
(0 -0 -3.49505e-14)
(0 -0 -1.97031e-15)
(0 -0 -1.37605e-14)
(0 -0 -1.57769e-14)
(0 -0 9.23071e-15)
(0 -0 -1.91957e-14)
(0 -0 -2.51419e-14)
(0 -0 2.46791e-14)
(0 -0 2.65299e-14)
(0 -0 1.06138e-14)
(0 -0 -7.42854e-15)
(0 -0 -4.4016e-15)
(0 -0 -1.06423e-14)
(0 -0 -1.94761e-14)
(0 -0 3.68409e-14)
(0 -0 2.07005e-11)
(0 -0 -1.94387e-11)
(0 -0 3.42643e-12)
(0 -0 -1.23742e-12)
(0 -0 -8.40447e-14)
(0 -0 -3.45224e-13)
(0 -0 -2.4679e-13)
(0 -0 -2.57911e-13)
(0 -0 -1.77799e-13)
(0 -0 -9.65924e-14)
(0 -0 -9.32676e-14)
(0 -0 -1.39549e-13)
(0 -0 -8.7514e-14)
(0 -0 -1.68184e-13)
(0 -0 -9.0827e-14)
(0 -0 7.4006e-14)
(0 -0 -1.03414e-14)
(0 -0 8.22113e-15)
(0 -0 -3.89876e-14)
(0 -0 -8.41261e-15)
)
;
    }
    frontAndBack
    {
        type            empty;
    }
}


// ************************************************************************* //
