/*--------------------------------*- C++ -*----------------------------------*\
| =========                 |                                                 |
| \\      /  F ield         | OpenFOAM: The Open Source CFD Toolbox           |
|  \\    /   O peration     | Version:  2506                                  |
|   \\  /    A nd           | Website:  www.openfoam.com                      |
|    \\/     M anipulation  |                                                 |
\*---------------------------------------------------------------------------*/
FoamFile
{
    version     2.0;
    format      ascii;
    arch        "LSB;label=32;scalar=64";
    class       volVectorField;
    location    "9.75";
    object      zeroGradient(U);
}
// * * * * * * * * * * * * * * * * * * * * * * * * * * * * * * * * * * * * * //

dimensions      [0 1 -1 0 0 0 0];

internalField   nonuniform List<vector> 
400
(
(-1 1.78778e-13 0)
(-1 -3.83869e-14 0)
(-1 9.25996e-15 0)
(-1 -1.90214e-15 0)
(-1 4.3848e-16 0)
(-1 -7.80542e-17 0)
(-1 9.48673e-17 0)
(-1 1.18578e-16 0)
(-1 1.80295e-16 0)
(-1 1.16941e-16 0)
(-1 1.0255e-16 0)
(-1 7.24435e-17 0)
(-1 3.93284e-17 0)
(-1 8.54816e-17 0)
(-1 1.33844e-16 0)
(-1 6.53901e-17 0)
(-1 -1.42748e-17 0)
(-1 -3.80235e-17 0)
(-1 6.79365e-17 0)
(-1 1.61896e-17 0)
(-1 5.27904e-15 0)
(-1 -1.15255e-15 0)
(-1 5.67293e-16 0)
(-1 7.13865e-17 0)
(-1 -5.15171e-17 0)
(-1 -7.36454e-17 0)
(-1 4.87758e-17 0)
(-1 1.9944e-16 0)
(-1 2.07717e-16 0)
(-1 4.06291e-17 0)
(-1 -3.84285e-17 0)
(-1 -3.58014e-17 0)
(-1 -3.75001e-17 0)
(-1 8.14187e-18 0)
(-1 2.06544e-16 0)
(-1 1.34209e-16 0)
(-1 -4.76648e-17 0)
(-1 -1.45398e-16 0)
(-1 -9.52289e-17 0)
(-1 -4.20804e-17 0)
(-1 -1.63864e-13 0)
(-1 3.59208e-14 0)
(-1 -8.39787e-15 0)
(-1 1.96371e-15 0)
(-1 -3.95476e-16 0)
(-1 3.21284e-17 0)
(-1 -6.71589e-17 0)
(-1 8.02414e-17 0)
(-1 1.04087e-16 0)
(-1 1.7671e-17 0)
(-1 -2.95137e-17 0)
(-1 2.80009e-17 0)
(-1 -2.22675e-17 0)
(-1 -7.61688e-17 0)
(-1 -8.34771e-18 0)
(-1 -1.88268e-17 0)
(-1 -2.65445e-17 0)
(-1 -9.96921e-17 0)
(-1 -2.20446e-16 0)
(-1 -1.176e-16 0)
(-1 1.36608e-13 0)
(-1 -2.91373e-14 0)
(-1 6.95661e-15 0)
(-1 -1.39865e-15 0)
(-1 5.11409e-16 0)
(-1 -2.12321e-17 0)
(-1 -7.0859e-17 0)
(-1 -1.96332e-16 0)
(-1 -1.3546e-16 0)
(-1 -5.58901e-17 0)
(-1 -4.46915e-17 0)
(-1 2.26232e-17 0)
(-1 6.83308e-17 0)
(-1 5.33066e-17 0)
(-1 -8.08037e-17 0)
(-1 -8.39481e-17 0)
(-1 -5.27546e-18 0)
(-1 6.42314e-17 0)
(-1 -4.19209e-17 0)
(-1 -6.41002e-17 0)
(-1 -6.65642e-15 0)
(-1 1.29596e-15 0)
(-1 -2.33802e-17 0)
(-1 1.79578e-16 0)
(-1 1.77431e-16 0)
(-1 6.25935e-17 0)
(-1 -7.80457e-17 0)
(-1 -1.9326e-16 0)
(-1 -1.68035e-16 0)
(-1 -7.20164e-17 0)
(-1 -1.5397e-16 0)
(-1 -1.85895e-16 0)
(-1 -7.52299e-18 0)
(-1 7.55192e-17 0)
(-1 2.45611e-17 0)
(-1 9.81973e-18 0)
(-1 -2.04732e-17 0)
(-1 -4.39081e-17 0)
(-1 -4.50864e-17 0)
(-1 -1.9883e-17 0)
(-1 -1.29833e-13 0)
(-1 2.85145e-14 0)
(-1 -6.53466e-15 0)
(-1 1.55556e-15 0)
(-1 -2.01589e-16 0)
(-1 1.76434e-16 0)
(-1 9.38754e-18 0)
(-1 -6.74533e-17 0)
(-1 -1.34884e-16 0)
(-1 -7.04592e-17 0)
(-1 -2.15294e-17 0)
(-1 -2.20999e-17 0)
(-1 2.51216e-17 0)
(-1 4.00562e-17 0)
(-1 -5.05173e-17 0)
(-1 2.54321e-17 0)
(-1 3.69952e-17 0)
(-1 -6.88236e-17 0)
(-1 -3.46701e-17 0)
(-1 1.96135e-17 0)
(-1 1.81098e-13 0)
(-1 -3.88468e-14 0)
(-1 9.0564e-15 0)
(-1 -1.94285e-15 0)
(-1 4.72916e-16 0)
(-1 -1.38439e-16 0)
(-1 -1.53154e-16 0)
(-1 -2.64412e-16 0)
(-1 -2.5249e-16 0)
(-1 -1.46631e-16 0)
(-1 2.40715e-17 0)
(-1 1.39351e-16 0)
(-1 1.56961e-16 0)
(-1 1.2367e-16 0)
(-1 -2.97741e-17 0)
(-1 -4.3417e-17 0)
(-1 -2.22348e-17 0)
(-1 1.98514e-17 0)
(-1 8.12062e-17 0)
(-1 7.26884e-17 0)
(-1 -7.75055e-14 0)
(-1 1.66669e-14 0)
(-1 -4.1127e-15 0)
(-1 7.81444e-16 0)
(-1 -1.94126e-16 0)
(-1 -6.61343e-18 0)
(-1 -1.91931e-16 0)
(-1 -1.19327e-16 0)
(-1 2.58381e-17 0)
(-1 1.14667e-16 0)
(-1 1.35192e-16 0)
(-1 1.03614e-16 0)
(-1 8.29023e-17 0)
(-1 3.34607e-17 0)
(-1 1.06851e-17 0)
(-1 -3.42823e-17 0)
(-1 1.16361e-17 0)
(-1 9.63341e-18 0)
(-1 4.7436e-17 0)
(-1 3.44013e-17 0)
(-1 -7.43317e-14 0)
(-1 1.52249e-14 0)
(-1 -3.8474e-15 0)
(-1 6.34152e-16 0)
(-1 -2.66593e-16 0)
(-1 6.22431e-17 0)
(-1 9.22177e-17 0)
(-1 1.51859e-16 0)
(-1 1.45017e-16 0)
(-1 6.1196e-17 0)
(-1 6.14912e-18 0)
(-1 -4.99635e-17 0)
(-1 -1.02405e-16 0)
(-1 -1.3456e-16 0)
(-1 4.42643e-18 0)
(-1 1.50378e-16 0)
(-1 1.33312e-16 0)
(-1 -2.543e-17 0)
(-1 -9.14904e-17 0)
(-1 -2.83203e-17 0)
(-1 1.79782e-13 0)
(-1 -3.95908e-14 0)
(-1 9.15998e-15 0)
(-1 -2.17507e-15 0)
(-1 3.38667e-16 0)
(-1 -9.43483e-17 0)
(-1 1.08819e-16 0)
(-1 1.08369e-16 0)
(-1 5.78959e-17 0)
(-1 -1.09115e-16 0)
(-1 -1.16441e-16 0)
(-1 -2.59743e-17 0)
(-1 1.00974e-16 0)
(-1 1.1824e-16 0)
(-1 4.34586e-17 0)
(-1 -2.17487e-17 0)
(-1 -1.7489e-17 0)
(-1 -9.85535e-18 0)
(-1 -5.09439e-17 0)
(-1 -2.30768e-17 0)
(-1 -1.91714e-13 0)
(-1 4.22478e-14 0)
(-1 -9.85041e-15 0)
(-1 2.08879e-15 0)
(-1 -6.10015e-16 0)
(-1 -3.19015e-17 0)
(-1 -1.69874e-16 0)
(-1 -1.68615e-16 0)
(-1 -2.17072e-16 0)
(-1 -1.69606e-16 0)
(-1 -1.49224e-17 0)
(-1 3.1822e-17 0)
(-1 3.10102e-17 0)
(-1 1.12627e-16 0)
(-1 8.53842e-17 0)
(-1 -8.29871e-17 0)
(-1 -9.17656e-17 0)
(-1 1.6886e-17 0)
(-1 6.1054e-17 0)
(-1 4.79893e-17 0)
(-1 1.15791e-13 0)
(-1 -2.55467e-14 0)
(-1 5.92193e-15 0)
(-1 -1.21209e-15 0)
(-1 3.48198e-16 0)
(-1 -1.06961e-16 0)
(-1 2.23146e-19 0)
(-1 -4.63143e-17 0)
(-1 -1.0589e-16 0)
(-1 -7.50774e-18 0)
(-1 7.21866e-17 0)
(-1 2.55934e-17 0)
(-1 -1.57395e-16 0)
(-1 -9.71264e-17 0)
(-1 5.8408e-17 0)
(-1 -3.91792e-17 0)
(-1 -1.0184e-16 0)
(-1 4.24582e-17 0)
(-1 1.24935e-16 0)
(-1 6.28548e-17 0)
(-1 1.1522e-14 0)
(-1 -1.91106e-15 0)
(-1 6.43502e-16 0)
(-1 2.40764e-16 0)
(-1 2.96713e-16 0)
(-1 1.49956e-16 0)
(-1 1.25484e-16 0)
(-1 1.06444e-16 0)
(-1 6.76108e-17 0)
(-1 1.3108e-17 0)
(-1 -9.62063e-17 0)
(-1 -3.50722e-17 0)
(-1 -8.63803e-17 0)
(-1 -2.03811e-16 0)
(-1 -1.70166e-16 0)
(-1 -6.3609e-17 0)
(-1 2.67049e-17 0)
(-1 5.97801e-17 0)
(-1 1.76968e-17 0)
(-1 6.06496e-18 0)
(-1 -1.35994e-13 0)
(-1 2.97683e-14 0)
(-1 -6.81349e-15 0)
(-1 1.66744e-15 0)
(-1 -2.72961e-16 0)
(-1 1.20092e-16 0)
(-1 3.49771e-17 0)
(-1 -2.06435e-18 0)
(-1 -4.71261e-17 0)
(-1 -1.46258e-16 0)
(-1 -2.15358e-16 0)
(-1 -1.03427e-16 0)
(-1 -1.54451e-17 0)
(-1 -4.12747e-17 0)
(-1 -5.4391e-17 0)
(-1 3.65881e-17 0)
(-1 6.96153e-17 0)
(-1 -2.75901e-17 0)
(-1 -1.40166e-16 0)
(-1 -6.63248e-17 0)
(-1 1.93154e-13 0)
(-1 -4.31259e-14 0)
(-1 1.00573e-14 0)
(-1 -2.22326e-15 0)
(-1 5.73974e-16 0)
(-1 -1.67947e-17 0)
(-1 6.2362e-17 0)
(-1 1.00081e-17 0)
(-1 1.17626e-16 0)
(-1 9.90516e-17 0)
(-1 7.50475e-17 0)
(-1 3.0569e-18 0)
(-1 1.62938e-17 0)
(-1 -3.48521e-18 0)
(-1 -2.30271e-17 0)
(-1 -5.26289e-18 0)
(-1 5.171e-17 0)
(-1 -8.93869e-18 0)
(-1 -6.04757e-17 0)
(-1 -2.65346e-17 0)
(-1 -1.12718e-13 0)
(-1 2.46878e-14 0)
(-1 -5.92213e-15 0)
(-1 1.2622e-15 0)
(-1 -2.83075e-16 0)
(-1 8.21778e-17 0)
(-1 -1.3986e-17 0)
(-1 -4.86534e-18 0)
(-1 9.27761e-18 0)
(-1 -1.37043e-17 0)
(-1 -2.70504e-17 0)
(-1 -4.03824e-17 0)
(-1 -7.39946e-17 0)
(-1 -1.09449e-16 0)
(-1 -1.01764e-16 0)
(-1 4.87386e-18 0)
(-1 4.68235e-17 0)
(-1 8.38848e-18 0)
(-1 -3.61446e-18 0)
(-1 1.85714e-17 0)
(-1 -4.07248e-14 0)
(-1 9.1114e-15 0)
(-1 -2.1812e-15 0)
(-1 3.62078e-16 0)
(-1 -2.57081e-16 0)
(-1 -6.47164e-17 0)
(-1 -1.69225e-17 0)
(-1 -7.15682e-17 0)
(-1 -1.85416e-16 0)
(-1 -1.8562e-16 0)
(-1 -1.68361e-16 0)
(-1 -1.00454e-16 0)
(-1 1.55496e-17 0)
(-1 1.04939e-16 0)
(-1 5.38706e-17 0)
(-1 5.09603e-17 0)
(-1 3.68239e-18 0)
(-1 2.17573e-17 0)
(-1 4.70254e-17 0)
(-1 1.1004e-17 0)
(-1 1.51973e-13 0)
(-1 -3.31924e-14 0)
(-1 7.92219e-15 0)
(-1 -1.85833e-15 0)
(-1 2.97234e-16 0)
(-1 -9.08677e-17 0)
(-1 4.20338e-17 0)
(-1 5.63493e-17 0)
(-1 7.90415e-17 0)
(-1 7.99023e-17 0)
(-1 1.50386e-17 0)
(-1 -7.20844e-17 0)
(-1 -6.96771e-17 0)
(-1 -8.49963e-17 0)
(-1 -1.07733e-16 0)
(-1 -5.30537e-17 0)
(-1 5.69883e-17 0)
(-1 8.45126e-17 0)
(-1 3.59114e-17 0)
(-1 2.66057e-17 0)
(-1 -6.01815e-14 0)
(-1 1.25789e-14 0)
(-1 -3.14013e-15 0)
(-1 3.58193e-16 0)
(-1 -2.45327e-16 0)
(-1 2.37554e-17 0)
(-1 -2.90401e-17 0)
(-1 3.02428e-17 0)
(-1 2.00418e-17 0)
(-1 -3.87981e-18 0)
(-1 -7.9179e-17 0)
(-1 -1.29629e-16 0)
(-1 -1.11711e-16 0)
(-1 -1.83233e-16 0)
(-1 -1.47021e-16 0)
(-1 -8.79154e-18 0)
(-1 5.87867e-17 0)
(-1 8.07456e-17 0)
(-1 3.43714e-17 0)
(-1 -1.90723e-17 0)
(-1 -1.02681e-13 0)
(-1 2.22148e-14 0)
(-1 -5.34582e-15 0)
(-1 1.01941e-15 0)
(-1 -2.90216e-16 0)
(-1 1.66995e-17 0)
(-1 -1.01463e-16 0)
(-1 -1.25498e-16 0)
(-1 -1.43535e-16 0)
(-1 -1.00772e-16 0)
(-1 -9.22983e-17 0)
(-1 -7.63299e-17 0)
(-1 7.1848e-18 0)
(-1 -1.88396e-17 0)
(-1 1.70414e-18 0)
(-1 8.64448e-17 0)
(-1 5.01723e-17 0)
(-1 2.62406e-17 0)
(-1 4.98326e-17 0)
(-1 -2.43395e-17 0)
)
;

boundaryField
{
    movingWall
    {
        type            zeroGradient;
    }
    fixedWalls
    {
        type            zeroGradient;
    }
    frontAndBack
    {
        type            empty;
    }
}


// ************************************************************************* //
