/*--------------------------------*- C++ -*----------------------------------*\
| =========                 |                                                 |
| \\      /  F ield         | OpenFOAM: The Open Source CFD Toolbox           |
|  \\    /   O peration     | Version:  2506                                  |
|   \\  /    A nd           | Website:  www.openfoam.com                      |
|    \\/     M anipulation  |                                                 |
\*---------------------------------------------------------------------------*/
FoamFile
{
    version     2.0;
    format      ascii;
    arch        "LSB;label=32;scalar=64";
    class       volVectorField;
    location    "8.625";
    object      diffU;
}
// * * * * * * * * * * * * * * * * * * * * * * * * * * * * * * * * * * * * * //

dimensions      [0 1 -1 0 0 0 0];

internalField   nonuniform List<vector> 
400
(
(0 0 0)
(1.78746e-14 -1.51986e-13 0)
(1.35447e-14 -1.18564e-13 0)
(1.37668e-14 -1.2638e-13 0)
(1.39888e-14 -1.24679e-13 0)
(1.38778e-14 -1.25023e-13 0)
(1.39888e-14 -1.24902e-13 0)
(1.38778e-14 -1.24957e-13 0)
(1.39888e-14 -1.24915e-13 0)
(1.37668e-14 -1.24886e-13 0)
(1.38778e-14 -1.24947e-13 0)
(1.36557e-14 -1.24915e-13 0)
(1.38778e-14 -1.24867e-13 0)
(1.36557e-14 -1.24792e-13 0)
(1.35447e-14 -1.24811e-13 0)
(1.33227e-14 -1.24844e-13 0)
(1.35447e-14 -1.24934e-13 0)
(1.31006e-14 -1.25031e-13 0)
(1.37668e-14 -1.25094e-13 0)
(1.33227e-14 -1.24943e-13 0)
(3.19744e-14 -1.16375e-13 0)
(7.32747e-15 -1.2652e-13 0)
(1.28786e-14 -1.2454e-13 0)
(1.24345e-14 -1.25035e-13 0)
(1.24345e-14 -1.24955e-13 0)
(1.26565e-14 -1.24987e-13 0)
(1.28786e-14 -1.24921e-13 0)
(1.24345e-14 -1.24982e-13 0)
(1.24345e-14 -1.24996e-13 0)
(1.26565e-14 -1.24958e-13 0)
(1.28786e-14 -1.2493e-13 0)
(1.28786e-14 -1.24917e-13 0)
(1.28786e-14 -1.24919e-13 0)
(1.28786e-14 -1.24886e-13 0)
(1.35447e-14 -1.2493e-13 0)
(1.33227e-14 -1.24945e-13 0)
(1.36557e-14 -1.24979e-13 0)
(1.38778e-14 -1.25012e-13 0)
(1.35447e-14 -1.25064e-13 0)
(1.33227e-14 -1.24997e-13 0)
(4.44089e-15 -2.21038e-13 0)
(1.4766e-14 -1.04858e-13 0)
(1.28786e-14 -1.29861e-13 0)
(1.28786e-14 -1.24042e-13 0)
(1.28786e-14 -1.25326e-13 0)
(1.31006e-14 -1.25004e-13 0)
(1.28786e-14 -1.24947e-13 0)
(1.31006e-14 -1.2491e-13 0)
(1.31006e-14 -1.25042e-13 0)
(1.31006e-14 -1.25187e-13 0)
(1.33227e-14 -1.2512e-13 0)
(1.36557e-14 -1.25019e-13 0)
(1.37668e-14 -1.2499e-13 0)
(1.36557e-14 -1.25033e-13 0)
(1.35447e-14 -1.25085e-13 0)
(1.36557e-14 -1.25114e-13 0)
(1.35447e-14 -1.25072e-13 0)
(1.35447e-14 -1.2496e-13 0)
(1.36557e-14 -1.24952e-13 0)
(1.35447e-14 -1.25045e-13 0)
(6.43929e-15 -5.45242e-14 0)
(1.60982e-14 -1.40727e-13 0)
(1.37668e-14 -1.21533e-13 0)
(1.39888e-14 -1.25888e-13 0)
(1.39888e-14 -1.24908e-13 0)
(1.36557e-14 -1.25046e-13 0)
(1.37668e-14 -1.24904e-13 0)
(1.36557e-14 -1.24867e-13 0)
(1.38778e-14 -1.25003e-13 0)
(1.36557e-14 -1.2519e-13 0)
(1.36557e-14 -1.25248e-13 0)
(1.33227e-14 -1.25146e-13 0)
(1.35447e-14 -1.25001e-13 0)
(1.37668e-14 -1.24956e-13 0)
(1.38778e-14 -1.24941e-13 0)
(1.37668e-14 -1.24975e-13 0)
(1.33227e-14 -1.25027e-13 0)
(1.33227e-14 -1.25023e-13 0)
(1.35447e-14 -1.25071e-13 0)
(1.35447e-14 -1.25055e-13 0)
(2.77556e-14 -1.35509e-13 0)
(1.02141e-14 -1.22416e-13 0)
(1.40998e-14 -1.25746e-13 0)
(1.38778e-14 -1.24918e-13 0)
(1.39888e-14 -1.25032e-13 0)
(1.39888e-14 -1.24955e-13 0)
(1.37668e-14 -1.24975e-13 0)
(1.38778e-14 -1.24974e-13 0)
(1.40998e-14 -1.25042e-13 0)
(1.39888e-14 -1.24989e-13 0)
(1.37668e-14 -1.25038e-13 0)
(1.37668e-14 -1.25129e-13 0)
(1.39888e-14 -1.25078e-13 0)
(1.39888e-14 -1.25023e-13 0)
(1.38778e-14 -1.24953e-13 0)
(1.37668e-14 -1.249e-13 0)
(1.37668e-14 -1.24938e-13 0)
(1.38778e-14 -1.25034e-13 0)
(1.38778e-14 -1.25049e-13 0)
(1.37668e-14 -1.24974e-13 0)
(0 -1.85616e-13 0)
(1.77636e-14 -1.12544e-13 0)
(1.37668e-14 -1.2799e-13 0)
(1.45439e-14 -1.24397e-13 0)
(1.40998e-14 -1.25067e-13 0)
(1.42109e-14 -1.24896e-13 0)
(1.39888e-14 -1.24955e-13 0)
(1.42109e-14 -1.25014e-13 0)
(1.38778e-14 -1.25019e-13 0)
(1.38778e-14 -1.24978e-13 0)
(1.39888e-14 -1.25027e-13 0)
(1.39888e-14 -1.2507e-13 0)
(1.37668e-14 -1.25082e-13 0)
(1.37668e-14 -1.25056e-13 0)
(1.37668e-14 -1.24974e-13 0)
(1.38778e-14 -1.24948e-13 0)
(1.36557e-14 -1.24912e-13 0)
(1.35447e-14 -1.24872e-13 0)
(1.35447e-14 -1.24905e-13 0)
(1.35447e-14 -1.24918e-13 0)
(2.72005e-14 -2.96666e-14 0)
(1.22125e-14 -1.45136e-13 0)
(1.4877e-14 -1.20034e-13 0)
(1.33227e-14 -1.25791e-13 0)
(1.36557e-14 -1.24661e-13 0)
(1.36557e-14 -1.24982e-13 0)
(1.36557e-14 -1.24968e-13 0)
(1.37668e-14 -1.24988e-13 0)
(1.37668e-14 -1.24934e-13 0)
(1.38778e-14 -1.24966e-13 0)
(1.37668e-14 -1.24996e-13 0)
(1.36557e-14 -1.2506e-13 0)
(1.37668e-14 -1.24971e-13 0)
(1.37668e-14 -1.2486e-13 0)
(1.33227e-14 -1.24839e-13 0)
(1.35447e-14 -1.24866e-13 0)
(1.35447e-14 -1.24904e-13 0)
(1.33227e-14 -1.24873e-13 0)
(1.37668e-14 -1.24886e-13 0)
(1.37668e-14 -1.2496e-13 0)
(1.11022e-14 -1.6665e-13 0)
(1.13243e-14 -1.15853e-13 0)
(1.17684e-14 -1.26868e-13 0)
(1.33227e-14 -1.24336e-13 0)
(1.28786e-14 -1.25027e-13 0)
(1.31006e-14 -1.24958e-13 0)
(1.28786e-14 -1.25051e-13 0)
(1.28786e-14 -1.25048e-13 0)
(1.26565e-14 -1.2501e-13 0)
(1.28786e-14 -1.25031e-13 0)
(1.28786e-14 -1.2501e-13 0)
(1.31006e-14 -1.25005e-13 0)
(1.28786e-14 -1.24926e-13 0)
(1.28786e-14 -1.24859e-13 0)
(1.31006e-14 -1.24909e-13 0)
(1.35447e-14 -1.24892e-13 0)
(1.31006e-14 -1.24989e-13 0)
(1.33227e-14 -1.25051e-13 0)
(1.35447e-14 -1.24956e-13 0)
(1.35447e-14 -1.2496e-13 0)
(1.54321e-14 -1.72004e-13 0)
(1.4877e-14 -1.15275e-13 0)
(1.4877e-14 -1.27259e-13 0)
(1.37668e-14 -1.244e-13 0)
(1.38778e-14 -1.24935e-13 0)
(1.37668e-14 -1.24878e-13 0)
(1.33227e-14 -1.25002e-13 0)
(1.35447e-14 -1.25075e-13 0)
(1.36557e-14 -1.25079e-13 0)
(1.36557e-14 -1.25125e-13 0)
(1.36557e-14 -1.25137e-13 0)
(1.36557e-14 -1.24947e-13 0)
(1.36557e-14 -1.24958e-13 0)
(1.36557e-14 -1.25009e-13 0)
(1.36557e-14 -1.24984e-13 0)
(1.37668e-14 -1.24905e-13 0)
(1.36557e-14 -1.24946e-13 0)
(1.33227e-14 -1.25099e-13 0)
(1.35447e-14 -1.25036e-13 0)
(1.36557e-14 -1.24976e-13 0)
(1.28786e-14 -3.66975e-14 0)
(1.33227e-14 -1.43654e-13 0)
(1.35447e-14 -1.20454e-13 0)
(1.37668e-14 -1.25722e-13 0)
(1.37668e-14 -1.24511e-13 0)
(1.38778e-14 -1.24846e-13 0)
(1.37668e-14 -1.24955e-13 0)
(1.37668e-14 -1.25059e-13 0)
(1.36557e-14 -1.25066e-13 0)
(1.35447e-14 -1.25062e-13 0)
(1.35447e-14 -1.24947e-13 0)
(1.33227e-14 -1.24807e-13 0)
(1.31006e-14 -1.24882e-13 0)
(1.31006e-14 -1.25003e-13 0)
(1.31006e-14 -1.25021e-13 0)
(1.31006e-14 -1.24943e-13 0)
(1.36557e-14 -1.24895e-13 0)
(1.36557e-14 -1.25027e-13 0)
(1.35447e-14 -1.25033e-13 0)
(1.35447e-14 -1.25e-13 0)
(1.15463e-14 -2.12719e-13 0)
(1.28786e-14 -1.05919e-13 0)
(1.31006e-14 -1.29237e-13 0)
(1.31006e-14 -1.23934e-13 0)
(1.35447e-14 -1.25065e-13 0)
(1.33227e-14 -1.2474e-13 0)
(1.37668e-14 -1.24871e-13 0)
(1.35447e-14 -1.24934e-13 0)
(1.33227e-14 -1.25076e-13 0)
(1.35447e-14 -1.25032e-13 0)
(1.33227e-14 -1.24869e-13 0)
(1.33227e-14 -1.24805e-13 0)
(1.35447e-14 -1.24895e-13 0)
(1.36557e-14 -1.25008e-13 0)
(1.33227e-14 -1.25046e-13 0)
(1.33227e-14 -1.25139e-13 0)
(1.33227e-14 -1.25138e-13 0)
(1.35447e-14 -1.25023e-13 0)
(1.35447e-14 -1.24973e-13 0)
(1.36557e-14 -1.25015e-13 0)
(1.9762e-14 -6.70517e-14 0)
(1.26565e-14 -1.37238e-13 0)
(1.40998e-14 -1.22311e-13 0)
(1.26565e-14 -1.25801e-13 0)
(1.36557e-14 -1.24915e-13 0)
(1.33227e-14 -1.24898e-13 0)
(1.35447e-14 -1.24789e-13 0)
(1.33227e-14 -1.24848e-13 0)
(1.33227e-14 -1.24992e-13 0)
(1.33227e-14 -1.24914e-13 0)
(1.33227e-14 -1.2491e-13 0)
(1.33227e-14 -1.24984e-13 0)
(1.37668e-14 -1.24982e-13 0)
(1.36557e-14 -1.24994e-13 0)
(1.37668e-14 -1.24969e-13 0)
(1.36557e-14 -1.2509e-13 0)
(1.36557e-14 -1.25122e-13 0)
(1.35447e-14 -1.24989e-13 0)
(1.35447e-14 -1.24941e-13 0)
(1.36557e-14 -1.24947e-13 0)
(1.9984e-15 -1.27771e-13 0)
(1.4877e-14 -1.24424e-13 0)
(1.17684e-14 -1.25195e-13 0)
(1.37668e-14 -1.25053e-13 0)
(1.31006e-14 -1.25079e-13 0)
(1.33227e-14 -1.24991e-13 0)
(1.35447e-14 -1.24845e-13 0)
(1.37668e-14 -1.24792e-13 0)
(1.33227e-14 -1.24776e-13 0)
(1.31006e-14 -1.24858e-13 0)
(1.31006e-14 -1.25033e-13 0)
(1.31006e-14 -1.25229e-13 0)
(1.31006e-14 -1.2521e-13 0)
(1.33227e-14 -1.2509e-13 0)
(1.31006e-14 -1.24998e-13 0)
(1.33227e-14 -1.25021e-13 0)
(1.31006e-14 -1.2507e-13 0)
(1.33227e-14 -1.25059e-13 0)
(1.33227e-14 -1.25047e-13 0)
(1.35447e-14 -1.24945e-13 0)
(1.28786e-14 -1.90831e-13 0)
(1.4877e-14 -1.11689e-13 0)
(1.42109e-14 -1.28161e-13 0)
(1.38778e-14 -1.2451e-13 0)
(1.39888e-14 -1.25404e-13 0)
(1.37668e-14 -1.2515e-13 0)
(1.42109e-14 -1.25014e-13 0)
(1.39888e-14 -1.24818e-13 0)
(1.43219e-14 -1.24753e-13 0)
(1.44329e-14 -1.24898e-13 0)
(1.4877e-14 -1.24974e-13 0)
(1.44329e-14 -1.24954e-13 0)
(1.42109e-14 -1.24982e-13 0)
(1.39888e-14 -1.24915e-13 0)
(1.37668e-14 -1.24924e-13 0)
(1.38778e-14 -1.25016e-13 0)
(1.37668e-14 -1.25154e-13 0)
(1.38778e-14 -1.25115e-13 0)
(1.37668e-14 -1.25015e-13 0)
(1.37668e-14 -1.24944e-13 0)
(1.85407e-14 -1.64276e-14 0)
(1.22125e-14 -1.48651e-13 0)
(1.39888e-14 -1.197e-13 0)
(1.35447e-14 -1.2628e-13 0)
(1.33227e-14 -1.24726e-13 0)
(1.28786e-14 -1.2493e-13 0)
(1.26565e-14 -1.2499e-13 0)
(1.28786e-14 -1.25001e-13 0)
(1.31006e-14 -1.2495e-13 0)
(1.28786e-14 -1.24929e-13 0)
(1.28786e-14 -1.24874e-13 0)
(1.26565e-14 -1.24824e-13 0)
(1.31006e-14 -1.24851e-13 0)
(1.33227e-14 -1.24863e-13 0)
(1.35447e-14 -1.24956e-13 0)
(1.36557e-14 -1.25015e-13 0)
(1.35447e-14 -1.2509e-13 0)
(1.33227e-14 -1.24998e-13 0)
(1.35447e-14 -1.2487e-13 0)
(1.35447e-14 -1.24869e-13 0)
(2.23155e-14 -2.01982e-13 0)
(1.06581e-14 -1.07763e-13 0)
(1.26565e-14 -1.28994e-13 0)
(1.28786e-14 -1.23931e-13 0)
(1.26565e-14 -1.25025e-13 0)
(1.28786e-14 -1.24827e-13 0)
(1.33227e-14 -1.25012e-13 0)
(1.31006e-14 -1.24988e-13 0)
(1.33227e-14 -1.24935e-13 0)
(1.33227e-14 -1.24891e-13 0)
(1.31006e-14 -1.24918e-13 0)
(1.31006e-14 -1.25092e-13 0)
(1.31006e-14 -1.25153e-13 0)
(1.33227e-14 -1.25169e-13 0)
(1.31006e-14 -1.25191e-13 0)
(1.36557e-14 -1.25126e-13 0)
(1.35447e-14 -1.24986e-13 0)
(1.36557e-14 -1.24928e-13 0)
(1.33227e-14 -1.24895e-13 0)
(1.35447e-14 -1.24913e-13 0)
(-6.43929e-15 -1.45981e-13 0)
(1.88738e-14 -1.20799e-13 0)
(1.31006e-14 -1.25785e-13 0)
(1.37668e-14 -1.24698e-13 0)
(1.38778e-14 -1.24961e-13 0)
(1.38778e-14 -1.25029e-13 0)
(1.36557e-14 -1.24964e-13 0)
(1.35447e-14 -1.25006e-13 0)
(1.36557e-14 -1.25048e-13 0)
(1.36557e-14 -1.25004e-13 0)
(1.37668e-14 -1.24911e-13 0)
(1.40998e-14 -1.24928e-13 0)
(1.38778e-14 -1.25006e-13 0)
(1.36557e-14 -1.25133e-13 0)
(1.35447e-14 -1.25159e-13 0)
(1.33227e-14 -1.25119e-13 0)
(1.33227e-14 -1.25007e-13 0)
(1.33227e-14 -1.24973e-13 0)
(1.35447e-14 -1.24989e-13 0)
(1.36557e-14 -1.2497e-13 0)
(1.70974e-14 -2.63465e-14 0)
(1.17684e-14 -1.46054e-13 0)
(1.35447e-14 -1.19982e-13 0)
(1.31006e-14 -1.26016e-13 0)
(1.33227e-14 -1.2474e-13 0)
(1.33227e-14 -1.2502e-13 0)
(1.35447e-14 -1.24924e-13 0)
(1.35447e-14 -1.25018e-13 0)
(1.33227e-14 -1.25077e-13 0)
(1.33227e-14 -1.25076e-13 0)
(1.36557e-14 -1.25029e-13 0)
(1.36557e-14 -1.24934e-13 0)
(1.35447e-14 -1.24964e-13 0)
(1.37668e-14 -1.24939e-13 0)
(1.35447e-14 -1.24832e-13 0)
(1.37668e-14 -1.24936e-13 0)
(1.35447e-14 -1.25003e-13 0)
(1.36557e-14 -1.25028e-13 0)
(1.35447e-14 -1.25032e-13 0)
(1.35447e-14 -1.24967e-13 0)
(3.03091e-14 -1.74227e-13 0)
(9.10383e-15 -1.1437e-13 0)
(1.33227e-14 -1.27529e-13 0)
(1.31006e-14 -1.24435e-13 0)
(1.33227e-14 -1.25229e-13 0)
(1.31006e-14 -1.25105e-13 0)
(1.28786e-14 -1.25041e-13 0)
(1.31006e-14 -1.24979e-13 0)
(1.31006e-14 -1.24946e-13 0)
(1.31006e-14 -1.25051e-13 0)
(1.31006e-14 -1.25148e-13 0)
(1.35447e-14 -1.25108e-13 0)
(1.35447e-14 -1.25036e-13 0)
(1.28786e-14 -1.24966e-13 0)
(1.33227e-14 -1.2499e-13 0)
(1.35447e-14 -1.25057e-13 0)
(1.36557e-14 -1.24977e-13 0)
(1.37668e-14 -1.24929e-13 0)
(1.35447e-14 -1.25006e-13 0)
(1.35447e-14 -1.25e-13 0)
(6.43929e-15 -1.86838e-13 0)
(1.66533e-14 -1.12376e-13 0)
(1.43219e-14 -1.27933e-13 0)
(1.43219e-14 -1.24328e-13 0)
(1.44329e-14 -1.25132e-13 0)
(1.42109e-14 -1.25009e-13 0)
(1.40998e-14 -1.24978e-13 0)
(1.40998e-14 -1.24973e-13 0)
(1.39888e-14 -1.24955e-13 0)
(1.40998e-14 -1.25028e-13 0)
(1.38778e-14 -1.25078e-13 0)
(1.38778e-14 -1.25053e-13 0)
(1.36557e-14 -1.24967e-13 0)
(1.37668e-14 -1.24997e-13 0)
(1.37668e-14 -1.25129e-13 0)
(1.36557e-14 -1.2511e-13 0)
(1.36557e-14 -1.25006e-13 0)
(1.35447e-14 -1.24934e-13 0)
(1.35447e-14 -1.24991e-13 0)
(1.36557e-14 -1.24997e-13 0)
)
;

boundaryField
{
    movingWall
    {
        type            calculated;
        value           uniform (1.35447e-14 -1.24958e-13 0);
    }
    fixedWalls
    {
        type            calculated;
        value           uniform (1.35447e-14 -1.24958e-13 0);
    }
    frontAndBack
    {
        type            empty;
    }
}


// ************************************************************************* //
