/*--------------------------------*- C++ -*----------------------------------*\
| =========                 |                                                 |
| \\      /  F ield         | OpenFOAM: The Open Source CFD Toolbox           |
|  \\    /   O peration     | Version:  2506                                  |
|   \\  /    A nd           | Website:  www.openfoam.com                      |
|    \\/     M anipulation  |                                                 |
\*---------------------------------------------------------------------------*/
FoamFile
{
    version     2.0;
    format      ascii;
    arch        "LSB;label=32;scalar=64";
    class       volScalarField;
    location    "8.625";
    object      divU;
}
// * * * * * * * * * * * * * * * * * * * * * * * * * * * * * * * * * * * * * //

dimensions      [0 0 -1 0 0 0 0];

internalField   nonuniform List<scalar> 
400
(
1.24412e-11
-1.50376e-12
2.7461e-13
-1.22825e-13
2.8136e-14
1.77114e-14
-1.78877e-14
-2.40136e-15
3.87405e-16
7.17167e-15
3.91476e-15
8.37992e-15
1.29222e-14
-3.04542e-14
1.74691e-14
-4.16177e-14
3.16211e-16
-1.27101e-14
2.99783e-14
0
-2.08709e-11
2.7753e-12
-6.11191e-13
2.194e-13
-3.65576e-14
-7.49762e-15
4.72944e-15
-2.48166e-14
1.48539e-14
3.12323e-14
-1.33819e-14
-2.01738e-15
6.64142e-16
5.38357e-14
1.71591e-14
-1.43817e-14
4.06778e-14
-3.27217e-14
-6.42604e-14
5.42101e-14
5.39391e-12
-5.69893e-13
1.23174e-13
-8.27481e-14
4.94666e-14
-6.76275e-14
6.06081e-14
1.38115e-14
-1.29139e-14
-1.90721e-14
3.60556e-14
2.15593e-15
1.95493e-14
-3.44525e-14
-3.81478e-14
9.77307e-15
-1.83653e-14
2.0402e-14
-3.78799e-14
-2.71051e-14
8.10441e-12
-1.0246e-12
1.55217e-13
-6.19861e-14
-2.43591e-15
-3.562e-14
3.07223e-14
-1.96841e-14
-1.29066e-14
7.43177e-16
-9.95784e-15
-8.79218e-15
1.06947e-14
2.07398e-14
2.15199e-15
-2.30115e-14
-3.20034e-14
4.00167e-14
-2.04295e-14
2.71051e-14
-1.20617e-11
1.46842e-12
-3.00759e-13
1.1424e-13
8.68276e-15
-2.06161e-14
-1.42358e-15
1.9788e-14
-1.45246e-14
-5.18382e-15
1.21644e-14
-1.24974e-15
2.96976e-14
-4.34499e-14
-1.21259e-15
6.81311e-15
6.59309e-15
2.80545e-14
2.32956e-14
-5.42101e-14
9.6765e-12
-9.11993e-13
2.7048e-13
-5.43214e-14
1.87498e-14
-2.33558e-14
-7.47032e-16
-8.70393e-15
-3.08987e-14
-2.89907e-15
4.34865e-14
-2.15245e-14
1.3334e-14
2.7079e-14
1.02654e-14
1.01851e-14
-1.71942e-14
-1.00378e-14
1.24807e-14
0
3.14419e-12
-1.56813e-12
2.20042e-13
-1.02439e-13
2.28115e-14
-2.40901e-15
1.67713e-14
-1.20388e-14
-2.91557e-15
-8.2032e-15
-3.60948e-14
3.92523e-14
2.89377e-14
-3.45023e-14
1.67867e-14
1.58151e-14
-5.19817e-14
2.6256e-14
6.16164e-14
-5.42101e-14
-1.4718e-11
3.07139e-12
-5.29619e-13
2.80591e-13
-3.17581e-14
8.0291e-15
-6.79426e-14
-2.0737e-14
-1.74187e-14
-2.41108e-14
3.10391e-14
-3.07727e-14
3.1224e-15
3.1873e-14
2.29682e-15
-1.52272e-14
-2.90367e-14
5.79403e-14
-7.65036e-15
0
1.33086e-11
-2.82578e-12
5.45453e-13
-2.37483e-13
4.68847e-14
-3.50279e-14
2.29283e-14
5.21493e-15
3.12191e-14
-1.17307e-17
1.0268e-14
1.607e-14
7.51073e-15
-9.70353e-15
1.82343e-14
6.73866e-15
-4.67046e-14
6.14932e-15
-1.53637e-14
0
-4.14707e-12
1.01004e-12
-1.67301e-13
8.02047e-14
-2.02672e-14
5.84201e-15
8.98094e-15
-7.76817e-15
-2.27075e-14
9.27854e-15
-1.70798e-14
-2.3876e-14
1.37944e-14
-9.56573e-15
-1.51252e-14
1.04864e-14
6.95724e-14
-1.34027e-14
1.809e-14
0
-3.30682e-12
7.84344e-13
-1.36166e-13
1.80627e-14
2.06783e-14
6.66175e-16
5.26806e-14
-1.37196e-14
1.17797e-14
2.40148e-14
-4.05573e-14
3.97629e-14
-2.329e-14
-8.67898e-15
-3.70421e-14
-4.18268e-15
1.97283e-14
-9.70201e-15
2.18331e-16
0
9.02598e-12
-2.44849e-12
4.03597e-13
-1.48094e-13
7.34093e-14
-2.44756e-14
1.0525e-15
-2.66534e-14
4.18391e-14
1.42899e-14
-2.98949e-14
2.44598e-14
-5.58095e-16
-1.68634e-14
-5.10647e-15
7.60737e-15
-5.29323e-16
-4.0418e-14
1.98746e-14
-2.71051e-14
-1.33899e-11
3.52159e-12
-7.23456e-13
3.06329e-13
-1.10964e-13
3.16572e-14
5.67254e-15
-2.36777e-14
-6.97815e-14
-1.12105e-14
-9.1304e-15
4.1521e-16
2.65661e-14
-8.87258e-15
2.64898e-14
-1.20896e-14
-3.78533e-15
1.2909e-15
3.95454e-14
0
1.11673e-11
-2.28928e-12
4.76478e-13
-1.41658e-13
5.65053e-15
3.77493e-14
1.82842e-14
9.6387e-15
4.83405e-14
8.88668e-15
6.80923e-15
-1.3355e-14
-1.88425e-14
-4.04637e-14
3.58826e-15
-1.15258e-14
-5.81192e-15
7.4358e-15
3.01377e-14
-5.42101e-14
-7.31836e-13
-8.06273e-14
4.08089e-14
-2.5265e-15
-3.78057e-14
-1.13368e-14
-8.62208e-15
-7.38754e-15
3.01555e-14
-4.46362e-14
-4.18267e-14
2.69645e-14
7.24305e-14
1.54481e-14
-2.30774e-14
4.55572e-15
-1.61172e-14
2.61055e-14
1.50782e-14
0
-1.2387e-11
1.86432e-12
-4.59201e-13
2.099e-13
-8.84006e-14
8.72253e-14
-6.01292e-15
1.9213e-14
-6.7247e-15
2.0333e-15
-1.8426e-14
-1.05134e-14
-2.4384e-14
-1.15068e-14
-1.62798e-14
4.83543e-14
4.64431e-14
-2.56406e-14
-2.3891e-14
0
1.61004e-11
-1.88349e-12
3.60677e-13
-1.06948e-13
2.13853e-14
-1.33375e-14
-5.14517e-14
1.62504e-14
-2.0867e-14
-1.64386e-14
5.17892e-14
5.33227e-15
-5.39018e-15
-1.56537e-14
1.9621e-14
-4.10463e-14
-9.42073e-15
4.56651e-14
1.66132e-14
-2.71051e-14
-2.62919e-12
2.5016e-13
-3.06343e-14
7.1754e-16
-5.39131e-15
-2.09169e-14
4.92287e-14
-8.09355e-15
-3.7775e-14
6.01514e-14
1.00091e-15
-3.97673e-14
1.86528e-14
2.81737e-14
9.3834e-15
1.93533e-14
-3.35138e-14
-4.12564e-15
-1.22367e-14
0
-1.47994e-11
1.6935e-12
-4.19171e-13
1.69452e-13
-7.16555e-14
7.29031e-15
-1.03196e-14
-3.56235e-15
1.50934e-15
1.077e-14
2.31925e-14
2.9628e-14
-6.3052e-14
-3.1824e-14
6.09111e-14
1.90835e-15
2.03602e-14
-2.18068e-14
-3.52774e-14
0
1.07065e-11
-1.51788e-12
3.25261e-13
-8.13152e-14
2.71051e-14
0
-2.71051e-14
-2.71051e-14
0
2.71051e-14
0
2.71051e-14
0
0
2.71051e-14
0
-2.71051e-14
0
2.71051e-14
-2.71051e-14
)
;

boundaryField
{
    movingWall
    {
        type            extrapolatedCalculated;
        value           nonuniform List<scalar> 
20
(
1.07065e-11
-1.51788e-12
3.25261e-13
-8.13152e-14
2.71051e-14
0
-2.71051e-14
-2.71051e-14
0
2.71051e-14
0
2.71051e-14
0
0
2.71051e-14
0
-2.71051e-14
0
2.71051e-14
-2.71051e-14
)
;
    }
    fixedWalls
    {
        type            extrapolatedCalculated;
        value           nonuniform List<scalar> 
60
(
1.24412e-11
-2.08709e-11
5.39391e-12
8.10441e-12
-1.20617e-11
9.6765e-12
3.14419e-12
-1.4718e-11
1.33086e-11
-4.14707e-12
-3.30682e-12
9.02598e-12
-1.33899e-11
1.11673e-11
-7.31836e-13
-1.2387e-11
1.61004e-11
-2.62919e-12
-1.47994e-11
1.07065e-11
0
5.42101e-14
-2.71051e-14
2.71051e-14
-5.42101e-14
0
-5.42101e-14
0
0
0
0
-2.71051e-14
0
-5.42101e-14
0
0
-2.71051e-14
0
0
-2.71051e-14
1.24412e-11
-1.50376e-12
2.7461e-13
-1.22825e-13
2.8136e-14
1.77114e-14
-1.78877e-14
-2.40136e-15
3.87405e-16
7.17167e-15
3.91476e-15
8.37992e-15
1.29222e-14
-3.04542e-14
1.74691e-14
-4.16177e-14
3.16211e-16
-1.27101e-14
2.99783e-14
0
)
;
    }
    frontAndBack
    {
        type            empty;
    }
}


// ************************************************************************* //
