/*--------------------------------*- C++ -*----------------------------------*\
| =========                 |                                                 |
| \\      /  F ield         | OpenFOAM: The Open Source CFD Toolbox           |
|  \\    /   O peration     | Version:  2506                                  |
|   \\  /    A nd           | Website:  www.openfoam.com                      |
|    \\/     M anipulation  |                                                 |
\*---------------------------------------------------------------------------*/
FoamFile
{
    version     2.0;
    format      ascii;
    arch        "LSB;label=32;scalar=64";
    class       volScalarField;
    location    "8.625";
    object      enstrophyField;
}
// * * * * * * * * * * * * * * * * * * * * * * * * * * * * * * * * * * * * * //

dimensions      [0 0 -2 0 0 0 0];

internalField   nonuniform List<scalar> 
400
(
4.32922e-23
6.77396e-23
3.4186e-24
1.55318e-25
1.32577e-26
5.09763e-28
2.139e-29
3.20163e-27
1.88339e-27
1.30354e-27
1.31345e-27
1.93232e-27
2.21599e-27
1.78864e-27
1.38318e-29
8.80254e-28
1.73774e-28
1.28139e-28
1.67979e-28
2.19873e-27
3.60127e-26
1.34321e-25
2.64062e-26
2.23966e-27
9.84637e-27
3.58506e-27
9.24486e-27
5.0889e-27
9.51294e-27
3.87139e-27
4.88908e-28
5.52673e-31
4.53895e-30
5.54769e-31
1.7428e-29
1.74707e-27
2.21773e-29
1.96875e-27
1.17328e-30
7.87218e-28
1.28897e-23
3.40339e-23
1.99933e-24
3.47846e-26
4.08733e-26
9.41326e-28
2.59061e-27
1.05083e-26
2.36337e-26
3.97153e-27
2.08139e-27
8.49356e-28
3.41842e-27
4.12885e-27
6.19819e-28
3.32569e-28
1.18965e-28
2.1933e-27
3.60794e-29
3.27951e-29
5.00063e-24
1.94693e-23
9.09089e-25
8.76892e-26
4.14293e-30
5.84273e-27
4.09747e-27
6.99587e-27
6.4557e-27
8.83879e-27
2.57021e-28
3.05269e-28
3.30764e-29
2.21243e-28
4.20098e-28
6.38761e-28
1.15009e-29
9.81625e-30
5.21581e-30
1.80093e-29
1.1318e-26
3.31043e-25
2.4899e-26
1.47641e-28
4.71935e-28
1.17505e-27
1.91788e-30
1.85243e-27
1.07985e-30
3.57099e-28
8.43494e-28
1.6975e-27
5.57611e-29
7.80327e-29
7.61354e-29
1.25932e-30
8.24015e-28
7.29822e-28
2.22716e-28
5.77745e-29
1.13779e-23
1.53779e-23
8.36774e-25
6.00199e-26
9.18696e-30
7.36186e-28
7.0181e-29
2.13448e-28
4.71486e-28
3.46066e-28
4.23481e-29
1.52093e-29
1.05055e-30
5.83987e-29
2.11434e-27
1.93358e-29
2.90876e-29
3.86496e-28
2.5243e-28
4.28108e-29
2.048e-23
3.51642e-23
2.31411e-24
5.35126e-26
1.7919e-26
5.48754e-27
5.81198e-27
9.64969e-27
9.48441e-27
5.23131e-27
4.90029e-27
6.14808e-27
8.25215e-27
7.39929e-27
3.2569e-27
1.13463e-27
3.24577e-27
1.57262e-27
3.73214e-29
2.46347e-29
2.19075e-24
6.87127e-24
3.59777e-25
8.43917e-27
1.93283e-27
2.8369e-30
1.63461e-28
4.84423e-28
1.33422e-30
1.7476e-33
3.55832e-30
3.48984e-29
1.06825e-28
1.48762e-30
4.618e-28
6.15654e-28
1.26708e-28
5.46352e-30
6.54079e-28
3.68377e-28
7.70688e-24
9.1794e-24
6.07512e-25
1.58793e-26
1.21957e-26
6.62604e-27
5.10628e-27
6.74283e-27
6.4329e-27
1.80129e-27
2.01865e-27
6.57799e-28
1.91035e-29
3.25244e-30
5.40343e-29
4.76218e-28
5.06509e-27
1.9993e-27
7.49027e-29
1.51744e-28
2.71066e-23
3.35047e-23
1.96607e-24
6.1782e-26
6.57665e-27
4.84731e-29
2.85318e-27
6.16795e-29
3.61421e-28
7.15842e-29
1.37899e-27
1.83733e-27
1.9193e-28
9.56487e-29
1.82806e-29
4.41189e-27
1.75675e-28
9.58404e-29
3.61293e-30
7.53216e-28
2.87048e-23
3.52999e-23
1.72182e-24
1.52772e-25
1.43247e-27
2.70937e-27
2.98001e-29
2.12769e-29
9.84397e-28
2.81082e-27
2.96137e-27
3.48396e-30
5.16358e-27
4.64684e-27
2.26529e-27
4.09988e-27
6.701e-29
1.37325e-28
3.37293e-31
1.98094e-28
1.5337e-23
1.63346e-23
8.18123e-25
4.94871e-26
1.04472e-26
7.93827e-29
5.1534e-28
2.06434e-28
2.20227e-29
3.37079e-29
2.45079e-29
1.98145e-28
3.3997e-28
4.0446e-28
9.99081e-28
1.17159e-28
2.06205e-27
1.64305e-28
8.95418e-30
3.83655e-30
8.93142e-26
8.31327e-28
1.98227e-27
7.68885e-27
1.15371e-27
4.72686e-28
5.87631e-28
1.11933e-27
6.61829e-27
8.99877e-27
1.48892e-26
1.17352e-26
8.69708e-29
1.73157e-29
1.12031e-27
5.89119e-28
1.684e-27
3.08234e-28
6.48163e-29
2.96147e-29
2.37137e-23
2.13732e-23
1.16432e-24
3.80089e-26
4.15057e-27
4.34062e-27
1.00221e-26
9.04388e-27
1.82354e-28
1.28555e-29
2.32411e-28
1.42427e-27
7.60852e-30
1.68692e-29
6.91812e-28
1.258e-27
6.84695e-28
8.42733e-28
5.00596e-29
9.23682e-30
2.83883e-23
4.92103e-23
2.87922e-24
7.76869e-26
4.42897e-26
1.51171e-27
2.00947e-28
4.8332e-28
3.9224e-27
6.73131e-27
1.06484e-26
9.49675e-27
5.46176e-27
2.50862e-27
2.18692e-27
9.32223e-29
4.16503e-28
2.42005e-28
4.43377e-27
4.50488e-29
6.08761e-24
2.21001e-23
1.17892e-24
7.87551e-26
1.46047e-26
3.20098e-27
4.74467e-27
1.88535e-28
9.90316e-28
3.16732e-27
5.14488e-27
1.2654e-26
3.954e-27
1.67737e-27
9.19263e-30
1.12888e-27
2.73823e-27
4.22753e-29
1.39061e-27
7.18051e-28
6.54789e-25
1.82641e-24
1.11041e-25
3.95778e-28
3.81e-27
3.32484e-27
2.63563e-30
1.95992e-27
2.40873e-32
9.35584e-29
1.08734e-27
2.0297e-27
2.7898e-27
8.98712e-28
1.3964e-27
1.15628e-28
1.07053e-28
1.59483e-30
4.69278e-32
9.38792e-30
8.26288e-24
3.51772e-23
2.00771e-24
7.78273e-26
1.18269e-26
1.97938e-27
3.3213e-27
7.59847e-28
1.1716e-27
3.70507e-27
7.51716e-27
5.65794e-28
1.44243e-27
4.46628e-27
1.48836e-27
9.78978e-28
4.09977e-27
1.62833e-27
1.82459e-29
6.2876e-28
3.87512e-24
8.74384e-24
6.21482e-25
4.46638e-27
1.53883e-26
1.95368e-27
2.35839e-27
2.57596e-27
1.8897e-27
8.27173e-27
1.79418e-27
1.27796e-28
8.28817e-29
1.07582e-29
2.0085e-27
9.13381e-31
8.27192e-29
2.91229e-28
2.55207e-29
1.61923e-28
7.92514e-24
1.65601e-23
6.50939e-25
5.5884e-26
9.56938e-29
9.04382e-28
6.53774e-30
4.32054e-28
1.51578e-29
1.09213e-28
3.26195e-30
2.12996e-27
5.35888e-28
2.47884e-27
6.39363e-29
7.76677e-28
1.00073e-27
4.10368e-28
1.98657e-29
5.88842e-28
)
;

boundaryField
{
    movingWall
    {
        type            calculated;
        value           nonuniform List<scalar> 
20
(
3.02027e-23
2.54469e-23
3.91035e-25
1.74622e-25
4.12497e-26
3.97276e-26
2.54614e-26
2.51632e-26
1.48143e-26
2.1991e-26
8.53766e-27
1.0409e-26
1.25209e-27
2.63662e-27
3.00388e-27
1.60838e-27
1.92458e-27
1.19112e-30
1.98657e-29
1.33238e-27
)
;
    }
    fixedWalls
    {
        type            calculated;
        value           nonuniform List<scalar> 
60
(
1.22489e-21
4.49813e-24
6.44815e-22
3.34615e-22
6.37294e-24
2.93042e-22
6.8469e-22
1.20298e-22
1.80656e-22
6.37626e-22
6.41144e-22
2.91327e-22
1.12663e-25
3.91316e-22
9.0157e-22
4.00901e-22
3.09475e-23
6.39325e-22
1.73415e-22
2.83306e-22
1.16225e-27
7.45122e-28
6.02436e-28
7.0727e-29
2.24123e-29
1.27174e-28
3.05444e-31
3.92683e-28
1.94767e-28
9.61375e-28
9.14321e-30
8.96074e-30
1.24227e-29
1.62323e-29
3.46659e-29
1.01144e-27
1.19883e-29
4.80484e-28
5.08335e-29
9.10813e-28
1.15685e-22
9.23215e-23
3.27832e-24
2.45263e-25
8.78026e-28
1.20912e-26
1.46368e-26
9.04803e-27
1.45303e-26
4.2291e-27
9.27297e-27
6.64404e-28
7.30402e-27
7.53056e-28
1.38318e-29
2.93119e-27
1.73774e-28
1.30616e-26
3.20336e-27
5.09253e-27
)
;
    }
    frontAndBack
    {
        type            empty;
    }
}


// ************************************************************************* //
