/*--------------------------------*- C++ -*----------------------------------*\
| =========                 |                                                 |
| \\      /  F ield         | OpenFOAM: The Open Source CFD Toolbox           |
|  \\    /   O peration     | Version:  2506                                  |
|   \\  /    A nd           | Website:  www.openfoam.com                      |
|    \\/     M anipulation  |                                                 |
\*---------------------------------------------------------------------------*/
FoamFile
{
    version     2.0;
    format      ascii;
    arch        "LSB;label=32;scalar=64";
    class       volScalarField;
    location    "8.625";
    object      flowTypeField;
}
// * * * * * * * * * * * * * * * * * * * * * * * * * * * * * * * * * * * * * //

dimensions      [0 0 0 0 0 0 0];

internalField   nonuniform List<scalar> 
400
(
0.396677
0.0504217
0.0244694
0.113164
-0.168439
0.455717
0.703979
0.0162047
-0.130417
0.0649446
0.0561382
-0.12951
-0.183983
0.234046
0.626292
0.417082
0.000138554
0.194285
0.657199
-0.218872
0.982969
0.866998
0.768137
0.687892
0.0777049
-0.0406893
-0.00276687
0.0953752
0.00623391
0.132882
0.0342038
0.795612
0.66216
0.97124
0.858484
0.0262971
0.831573
-0.018343
0.962587
0.443195
0.451031
0.108287
-0.0243391
0.424835
-0.403396
0.5279
0.243387
-0.0652331
-0.145314
-0.050445
0.416773
0.337298
0.0388071
-0.0512023
0.0957161
0.0524637
0.0429084
-0.0738637
0.625828
0.164858
0.639628
0.101509
0.130982
-0.186105
0.959982
0.0329241
0.185425
-0.0883503
-0.393957
-0.158462
0.377049
0.0804984
0.750192
0.405644
0.0386856
0.400675
0.871046
0.876735
0.578366
0.763077
0.983926
0.697361
0.655915
0.866003
0.237677
0.207586
0.504796
0.0289357
0.223061
0.346962
-0.0934468
-0.0630094
0.577625
0.533763
0.0328252
0.35935
-0.306842
-0.172862
0.308857
0.750888
0.536097
0.119651
0.0432416
-0.122214
0.922272
0.040332
0.00153381
0.232473
0.44756
0.0318894
0.607421
0.73433
0.762008
0.389237
-0.165819
0.104589
0.655646
0.296455
0.265457
0.011574
0.179509
0.0806421
-0.10801
0.306977
-0.594992
0.226462
0.0378842
-0.0246185
-0.0161424
0.0572625
0.111192
0.009617
-0.169184
0.0149766
0.0105219
0.123837
0.16557
0.261125
0.786451
0.819582
0.815646
0.235536
0.229807
0.472187
0.0813373
0.670478
0.640015
-0.0846627
0.801836
0.936068
0.919041
0.795272
0.00368555
0.941171
0.235638
-0.268982
0.438823
0.935328
-0.126117
0.000425147
0.65327
0.174834
0.0297526
0.360114
-0.243049
0.0540364
-0.229705
-0.0705639
-0.0126775
-0.103948
0.218639
0.357155
0.157628
0.735035
0.592947
-0.112957
-0.00577359
-0.162957
0.138293
0.353118
0.0844628
0.0285862
-0.0982173
0.140027
-0.287254
0.811108
-0.32911
0.586555
0.267861
0.18636
0.236983
0.0307319
0.0451815
4.72095e-05
0.25682
-0.0476818
0.728977
0.492888
0.496053
-0.397308
-0.003498
-0.00338663
-0.0240315
-0.31982
0.45486
-0.343981
0.771615
0.809833
0.185429
-0.307202
0.0375971
0.921005
-0.235451
-0.183871
0.128128
-0.0931222
0.74654
0.0228104
0.800456
0.269311
0.387966
0.0245068
-0.0492878
-0.0895664
-0.0900194
0.485577
-0.173428
0.593844
0.712439
0.498142
0.528546
0.668917
0.421699
-0.00331864
0.175897
0.186176
-0.171079
0.394876
0.783495
0.841424
0.952991
0.978937
0.860959
0.48227
0.423216
0.57194
0.440219
0.206158
0.154182
-0.235646
-0.269983
-0.129414
0.607168
0.81168
0.206863
0.1261
-0.067597
0.342489
0.73427
0.00103399
0.402352
0.027547
-0.0792561
0.0864672
-0.109685
-0.373214
-0.237766
-0.168398
0.634446
0.83395
0.289167
0.345065
0.905335
0.856003
-0.33859
-0.82639
-0.350212
-0.434231
0.655627
0.879752
0.119389
0.040949
-0.0697683
0.223285
-0.39126
0.432267
0.253782
0.0347589
0.1056
0.0435334
0.0034461
0.0582923
0.216219
0.274176
0.218914
0.606584
0.278891
0.214033
-0.142161
0.634644
0.705414
0.14847
0.110588
0.0757109
-0.339258
0.369761
-0.195504
0.445616
0.187666
0.0250795
-0.165717
-0.168833
-0.0719543
0.120454
0.712436
0.242268
-0.164894
0.605353
0.0482484
-0.266153
0.912489
0.54218
0.526058
0.851627
-0.311696
0.0236576
0.926221
-0.0220218
0.914343
0.354609
0.3592
-0.11903
-0.127103
0.0965163
0.227956
0.679403
0.00601692
0.93858
0.95463
0.776407
0.497566
0.106767
0.00600257
0.172853
-0.369379
0.226993
0.157143
0.277991
0.337392
0.114577
-0.0671408
0.196139
0.108393
-0.133342
0.037843
-0.525902
-0.0506713
-0.0484079
0.0346598
-0.289246
0.78648
0.278559
0.158732
0.642352
-0.376578
0.22934
0.155619
0.117504
-0.101629
-0.183684
0.0187722
0.681129
0.732081
0.765142
0.343653
0.91488
0.50397
0.346808
0.672668
0.330357
0.616654
0.0939577
0.138081
-0.0861407
0.81596
0.0685984
0.812876
0.215563
0.0311315
0.499579
0.895267
-0.0807111
-0.133734
-0.288183
0.450289
0.157282
-0.04744
-0.0354736
0.709398
0.129065
)
;

boundaryField
{
    movingWall
    {
        type            calculated;
        value           nonuniform List<scalar> 
20
(
0.63717
0.0915702
0.440724
-0.243273
0.205652
-0.0488118
-0.00803346
-0.00245984
0.0308942
0.0623136
0.0899205
-0.0383448
-0.120071
0.191395
0.283787
0.271776
-0.0662201
0.73006
0.72434
0.055548
)
;
    }
    fixedWalls
    {
        type            calculated;
        value           nonuniform List<scalar> 
60
(
0.0474888
0.834154
0.0804139
0.121647
0.706797
0.0996006
0.0397763
0.269114
0.158892
-0.00477355
-0.0159475
0.0269293
0.950594
0.0233626
0.0231789
0.15029
0.569929
0.0961021
0.267248
0.121592
0.482216
0.573736
0.0135312
0.685573
0.89065
0.00407987
0.976729
-0.0311385
0.560407
-0.563988
0.884467
0.857535
0.00235029
0.903909
0.750538
-0.441633
0.839374
-0.132037
0.613376
0.203749
0.646433
0.151409
0.271396
0.156321
0.783694
-0.116202
0.0540344
-0.00966626
0.0443462
0.0155873
-0.021508
0.221919
0.121029
0.53907
0.867049
0.298154
0.10293
0.100673
0.290055
-0.132238
)
;
    }
    frontAndBack
    {
        type            empty;
    }
}


// ************************************************************************* //
