/*--------------------------------*- C++ -*----------------------------------*\
| =========                 |                                                 |
| \\      /  F ield         | OpenFOAM: The Open Source CFD Toolbox           |
|  \\    /   O peration     | Version:  2506                                  |
|   \\  /    A nd           | Website:  www.openfoam.com                      |
|    \\/     M anipulation  |                                                 |
\*---------------------------------------------------------------------------*/
FoamFile
{
    version     2.0;
    format      ascii;
    arch        "LSB;label=32;scalar=64";
    class       surfaceScalarField;
    location    "8.625";
    object      fluxField;
}
// * * * * * * * * * * * * * * * * * * * * * * * * * * * * * * * * * * * * * //

dimensions      [0 3 -1 0 0 0 0];

oriented        oriented;

internalField   nonuniform List<scalar> 
760
(
-5e-05
3.33851e-18
-5e-05
-7.14754e-19
-5e-05
1.70296e-19
-5e-05
-3.74824e-20
-5e-05
7.034e-21
-5e-05
-2.34842e-21
-5e-05
2.30434e-21
-5e-05
-6.00339e-22
-5e-05
9.68512e-23
-5e-05
1.79292e-21
-5e-05
9.7869e-22
-5e-05
2.09498e-21
-5e-05
3.23056e-21
-5e-05
5.93898e-21
-5e-05
4.36728e-21
-5e-05
3.1481e-21
-5e-05
7.90527e-23
-5e-05
-3.17753e-21
-5e-05
-6.05795e-21
-6.00593e-22
-5e-05
-2.18745e-18
-5e-05
4.63433e-19
-5e-05
-1.1214e-19
-5e-05
2.09687e-20
-5e-05
-9.1394e-21
-5e-05
-1.8744e-21
-5e-05
1.18236e-21
-5e-05
5.72123e-22
-5e-05
-3.06278e-21
-5e-05
-5.74446e-21
-5e-05
-3.34547e-21
-5e-05
-5.04345e-22
-5e-05
1.66035e-22
-5e-05
-9.35991e-23
-5e-05
-2.48648e-21
-5e-05
-3.59543e-21
-5e-05
-3.38308e-21
-5e-05
-1.40416e-21
-5e-05
-2.51258e-21
-3.14486e-21
-5e-05
-6.41173e-19
-5e-05
1.08248e-19
-5e-05
-3.69692e-20
-5e-05
-3.58239e-22
-5e-05
-7.96215e-21
-5e-05
-3.35434e-21
-5e-05
1.59949e-21
-5e-05
3.45287e-21
-5e-05
-3.22849e-21
-5e-05
-1.15443e-20
-5e-05
-1.13149e-20
-5e-05
-6.23728e-21
-5e-05
-1.88894e-21
-5e-05
-1.83687e-21
-5e-05
-2.76069e-21
-5e-05
-4.333e-21
-5e-05
-4.59133e-21
-5e-05
-1.67575e-21
-5e-05
-2.69371e-21
-4.60686e-21
-5e-05
1.49705e-18
-5e-05
-3.30689e-19
-5e-05
6.59093e-20
-5e-05
-2.22728e-20
-5e-05
-6.08977e-22
-5e-05
-2.12873e-21
-5e-05
9.04321e-22
-5e-05
1.85523e-21
-5e-05
-3.22665e-21
-5e-05
-6.59047e-21
-5e-05
-9.26572e-21
-5e-05
-8.97431e-21
-5e-05
-4.10258e-21
-5e-05
-1.5913e-21
-5e-05
5.37997e-22
-5e-05
1.02338e-21
-5e-05
-1.22459e-21
-5e-05
-3.54835e-21
-5e-05
-5.10737e-21
-2.85585e-21
-5e-05
-1.78025e-18
-5e-05
3.73882e-19
-5e-05
-9.55184e-20
-5e-05
1.50075e-20
-5e-05
-4.60557e-21
-5e-05
1.62223e-21
-5e-05
-3.55896e-22
-5e-05
-1.82926e-21
-5e-05
-3.63115e-21
-5e-05
-1.29596e-21
-5e-05
-3.73517e-21
-5e-05
-7.0887e-21
-5e-05
-6.12812e-21
-5e-05
-4.08622e-21
-5e-05
-3.03146e-22
-5e-05
1.70328e-21
-5e-05
1.64827e-21
-5e-05
2.37369e-22
-5e-05
-9.52366e-22
5.78322e-22
-5e-05
8.65815e-19
-5e-05
-1.94117e-19
-5e-05
4.72911e-20
-5e-05
-6.80408e-21
-5e-05
4.68745e-21
-5e-05
9.37307e-22
-5e-05
-1.86758e-22
-5e-05
-2.17598e-21
-5e-05
-9.48416e-22
-5e-05
-7.24768e-22
-5e-05
-2.68089e-21
-5e-05
-5.38111e-21
-5e-05
-3.44275e-21
-5e-05
-6.51529e-24
-5e-05
2.56636e-21
-5e-05
2.54627e-21
-5e-05
2.4777e-21
-5e-05
4.26681e-21
-5e-05
3.12019e-21
9.47918e-22
-5e-05
1.33998e-18
-5e-05
-2.76837e-19
-5e-05
7.53392e-20
-5e-05
-5.28092e-21
-5e-05
5.70287e-21
-5e-05
-6.02252e-22
-5e-05
-2.58344e-21
-5e-05
-3.0097e-21
-5e-05
-7.28892e-22
-5e-05
-2.0508e-21
-5e-05
-2.24743e-21
-5e-05
-3.73946e-21
-5e-05
4.58152e-22
-5e-05
4.92696e-21
-5e-05
4.19667e-21
-5e-05
3.95377e-21
-5e-05
5.57112e-22
-5e-05
-2.12262e-22
-5e-05
1.85157e-21
-1.06307e-22
-5e-05
-2.21845e-18
-5e-05
4.69693e-19
-5e-05
-1.053e-19
-5e-05
2.94903e-20
-5e-05
-1.16326e-21
-5e-05
2.00727e-21
-5e-05
-3.43312e-21
-5e-05
-5.18425e-21
-5e-05
-4.35468e-21
-5e-05
-6.0277e-21
-5e-05
-5.79275e-21
-5e-05
-9.16913e-22
-5e-05
7.80599e-22
-5e-05
1.19198e-21
-5e-05
5.74205e-22
-5e-05
2.96946e-21
-5e-05
-4.82904e-22
-5e-05
-5.84372e-21
-5e-05
-1.91259e-21
-5.17985e-22
-5e-05
1.03035e-18
-5e-05
-2.25331e-19
-5e-05
5.50481e-20
-5e-05
-5.16077e-21
-5e-05
1.17212e-20
-5e-05
4.79555e-21
-5e-05
-1.04419e-21
-5e-05
-5.47253e-21
-5e-05
-5.74774e-21
-5e-05
-6.7792e-21
-5e-05
-4.20926e-21
-5e-05
4.01749e-21
-5e-05
1.87768e-21
-5e-05
-2.42588e-21
-5e-05
-2.21769e-21
-5e-05
1.68467e-21
-5e-05
1.87638e-21
-5e-05
-5.23893e-21
-5e-05
-3.84093e-21
-1.50704e-21
-5e-05
1.24862e-20
-5e-05
8.56485e-21
-5e-05
5.60862e-21
-5e-05
6.49864e-21
-5e-05
8.48572e-21
-5e-05
8.23677e-21
-5e-05
2.24524e-21
-5e-05
-1.94204e-21
-5e-05
-5.67687e-21
-5e-05
-4.45663e-21
-5e-05
2.50631e-21
-5e-05
7.58351e-21
-5e-05
3.4486e-21
-5e-05
-2.39143e-21
-5e-05
-3.78129e-21
-5e-05
-4.15465e-21
-5e-05
-2.93569e-21
-5e-05
-3.35066e-21
-5e-05
-2.25376e-21
-2.47331e-21
-5e-05
-7.46367e-19
-5e-05
1.68981e-19
-5e-05
-4.08177e-20
-5e-05
4.51568e-21
-5e-05
-1.60669e-21
-5e-05
6.94281e-21
-5e-05
6.39388e-21
-5e-05
3.34636e-21
-5e-05
-3.83134e-21
-5e-05
-7.72557e-22
-5e-05
3.41319e-21
-5e-05
3.16447e-21
-5e-05
9.53762e-22
-5e-05
-2.16974e-21
-5e-05
-2.48426e-21
-5e-05
-7.82193e-21
-5e-05
-8.62046e-21
-5e-05
-2.4255e-21
-5e-05
5.45827e-23
-1.16221e-21
-5e-05
1.37733e-18
-5e-05
-2.93638e-19
-5e-05
6.02418e-20
-5e-05
-2.34709e-20
-5e-05
-1.97647e-21
-5e-05
6.5737e-22
-5e-05
7.03939e-21
-5e-05
6.88917e-21
-5e-05
3.68352e-21
-5e-05
3.57246e-21
-5e-05
-6.9747e-22
-5e-05
-7.43759e-21
-5e-05
-6.91579e-21
-5e-05
-4.21585e-21
-5e-05
-1.27662e-21
-5e-05
-4.87442e-21
-5e-05
-6.90859e-21
-5e-05
-3.32825e-21
-5e-05
-1.80763e-21
5.76118e-22
-5e-05
-1.71715e-18
-5e-05
3.45071e-19
-5e-05
-8.59963e-20
-5e-05
8.81956e-21
-5e-05
-1.41884e-20
-5e-05
-5.63822e-21
-5e-05
1.41814e-21
-5e-05
7.6331e-21
-5e-05
9.65968e-21
-5e-05
3.97364e-21
-5e-05
-2.2826e-21
-5e-05
-6.67246e-21
-5e-05
-6.91099e-21
-5e-05
-2.21815e-21
-5e-05
-1.53824e-22
-5e-05
-3.02241e-21
-5e-05
-7.7226e-21
-5e-05
-6.45354e-21
-5e-05
-3.66618e-21
6.67643e-22
-5e-05
1.06642e-18
-5e-05
-2.60612e-19
-5e-05
5.13569e-20
-5e-05
-2.18619e-20
-5e-05
-5.36363e-21
-5e-05
-4.11519e-21
-5e-05
-2.20522e-21
-5e-05
2.40968e-21
-5e-05
5.30885e-21
-5e-05
2.22167e-21
-5e-05
1.70231e-21
-5e-05
3.43752e-21
-5e-05
2.06563e-21
-5e-05
3.4366e-21
-5e-05
8.97066e-22
-5e-05
-2.88146e-21
-5e-05
-8.22924e-21
-5e-05
-4.91731e-21
-5e-05
7.58159e-22
2.57059e-21
-5e-05
7.87643e-19
-5e-05
-1.62458e-19
-5e-05
3.0531e-20
-5e-05
-7.40789e-21
-5e-05
4.10111e-21
-5e-05
3.94207e-21
-5e-05
-2.15552e-21
-5e-05
-1.84689e-21
-5e-05
7.62608e-22
-5e-05
2.39349e-21
-5e-05
3.09584e-21
-5e-05
-3.5141e-23
-5e-05
-2.22117e-21
-5e-05
-2.91424e-21
-5e-05
-5.76934e-21
-5e-05
-5.63733e-21
-5e-05
-4.0293e-21
-5e-05
-2.49899e-22
-5e-05
3.76955e-21
3.33144e-21
-5e-05
-2.4512e-18
-5e-05
5.33842e-19
-5e-05
-1.21576e-19
-5e-05
3.21463e-20
-5e-05
-1.77135e-21
-5e-05
1.47753e-21
-5e-05
-1.50323e-21
-5e-05
-1.973e-21
-5e-05
-1.68118e-21
-5e-05
5.08325e-22
-5e-05
2.16975e-21
-5e-05
-2.62834e-21
-5e-05
-6.09599e-21
-5e-05
-9.65296e-21
-5e-05
-1.08462e-20
-5e-05
-8.24021e-21
-5e-05
-1.94176e-21
-5e-05
3.66125e-22
-5e-05
8.03512e-22
8.1093e-22
-5e-05
1.93969e-18
-5e-05
-4.23439e-19
-5e-05
1.03722e-19
-5e-05
-1.99607e-20
-5e-05
5.34633e-21
-5e-05
-3.33437e-21
-5e-05
6.89609e-22
-5e-05
-2.71366e-21
-5e-05
-5.21674e-21
-5e-05
-4.10965e-21
-5e-05
-6.05233e-22
-5e-05
1.33307e-21
-5e-05
-1.34755e-21
-5e-05
-3.91342e-21
-5e-05
-1.87102e-21
-5e-05
-3.4853e-21
-5e-05
-2.35518e-21
-5e-05
-2.13624e-21
-5e-05
-2.62296e-21
-5.4944e-22
-5e-05
1.23356e-18
-5e-05
-2.62721e-19
-5e-05
6.01041e-20
-5e-05
-1.33731e-20
-5e-05
-1.34783e-21
-5e-05
-5.22922e-21
-5e-05
-1.24535e-21
-5e-05
-2.02339e-21
-5e-05
-2.66749e-21
-5e-05
-5.29094e-21
-5e-05
-6.52603e-21
-5e-05
-3.16556e-21
-5e-05
-2.11307e-21
-5e-05
2.67149e-22
-5e-05
2.34585e-21
-5e-05
-1.93794e-21
-5e-05
-1.60219e-21
-5e-05
-1.03141e-21
-5e-05
-3.05917e-21
-1.30728e-21
-5e-05
-2.77874e-18
-5e-05
5.79228e-19
-5e-05
-1.38674e-19
-5e-05
2.88104e-20
-5e-05
-1.11376e-20
-5e-05
-4.95369e-21
-5e-05
-2.57991e-21
-5e-05
-8.90588e-22
-5e-05
3.77335e-22
-5e-05
-4.08376e-21
-5e-05
-7.75441e-21
-5e-05
-6.14552e-21
-5e-05
-2.21047e-21
-5e-05
-1.17974e-21
-5e-05
-5.101e-21
-5e-05
-6.29918e-21
-5e-05
-1.68622e-21
-5e-05
1.32456e-21
-5e-05
-2.04308e-21
-2.03734e-21
-5e-05
-5e-05
-5e-05
-5e-05
-5e-05
-5e-05
-5e-05
-5e-05
-5e-05
-5e-05
-5e-05
-5e-05
-5e-05
-5e-05
-5e-05
-5e-05
-5e-05
-5e-05
-5e-05
)
;

boundaryField
{
    movingWall
    {
        type            calculated;
        value           uniform -0;
    }
    fixedWalls
    {
        type            calculated;
        value           nonuniform List<scalar> 
60
(
5e-05
5e-05
5e-05
5e-05
5e-05
5e-05
5e-05
5e-05
5e-05
5e-05
5e-05
5e-05
5e-05
5e-05
5e-05
5e-05
5e-05
5e-05
5e-05
5e-05
-5e-05
-5e-05
-5e-05
-5e-05
-5e-05
-5e-05
-5e-05
-5e-05
-5e-05
-5e-05
-5e-05
-5e-05
-5e-05
-5e-05
-5e-05
-5e-05
-5e-05
-5e-05
-5e-05
-5e-05
0
0
0
0
0
0
0
0
0
0
0
0
0
0
0
0
0
0
0
0
)
;
    }
    frontAndBack
    {
        type            empty;
    }
}


// ************************************************************************* //
