/*--------------------------------*- C++ -*----------------------------------*\
| =========                 |                                                 |
| \\      /  F ield         | OpenFOAM: The Open Source CFD Toolbox           |
|  \\    /   O peration     | Version:  2506                                  |
|   \\  /    A nd           | Website:  www.openfoam.com                      |
|    \\/     M anipulation  |                                                 |
\*---------------------------------------------------------------------------*/
FoamFile
{
    version     2.0;
    format      ascii;
    arch        "LSB;label=32;scalar=64";
    class       volTensorField;
    location    "8.625";
    object      gradU;
}
// * * * * * * * * * * * * * * * * * * * * * * * * * * * * * * * * * * * * * //

dimensions      [0 0 -1 0 0 0 0];

internalField   nonuniform List<tensor> 
400
(
(-9.21572e-13 9.79297e-12 0 4.87891e-13 1.3354e-11 0 0 0 0)
(1.35525e-12 -1.18564e-11 0 -2.1684e-13 -2.85902e-12 0 0 0 0)
(-4.06576e-13 2.56059e-12 0 -5.42101e-14 6.81186e-13 0 0 0 0)
(2.71051e-14 -6.11557e-13 0 -5.42101e-14 -1.4993e-13 0 0 0 0)
(0 1.3573e-13 0 -2.71051e-14 2.8136e-14 0 0 0 0)
(2.71051e-14 -2.22801e-14 0 -5.42101e-14 -9.39366e-15 0 0 0 0)
(-2.71051e-14 6.54065e-15 0 0 9.21735e-15 0 0 0 0)
(0 -1.29483e-15 0 -8.13152e-14 -2.40136e-15 0 0 0 0)
(0 7.16396e-15 0 -5.42101e-14 3.87405e-16 0 0 0 0)
(0 -3.15059e-15 0 -5.42101e-14 7.17167e-15 0 0 0 0)
(0 -2.95673e-15 0 -5.42101e-14 3.91476e-15 0 0 0 0)
(0 7.95611e-15 0 -5.42101e-14 8.37992e-15 0 0 0 0)
(0 1.23631e-14 0 -5.42101e-14 1.29222e-14 0 0 0 0)
(-5.42101e-14 5.60025e-15 0 -5.42101e-14 2.37559e-14 0 0 0 0)
(0 -5.25963e-15 0 0 1.74691e-14 0 0 0 0)
(-5.42101e-14 -1.22517e-14 0 -5.42101e-14 1.25924e-14 0 0 0 0)
(0 -1.86426e-14 0 0 3.16211e-16 0 0 0 0)
(0 -1.60087e-14 0 0 -1.27101e-14 0 0 0 0)
(5.42101e-14 8.77591e-15 0 2.71051e-14 -2.42318e-14 0 0 0 0)
(0 1.21032e-14 0 -5.42101e-14 -2.40237e-15 0 0 0 0)
(1.24683e-12 7.02056e-13 0 4.33681e-13 -2.21038e-11 0 0 0 0)
(-1.92446e-12 -8.16463e-13 0 -2.98156e-13 4.71275e-12 0 0 0 0)
(5.14996e-13 1.48494e-13 0 -8.13152e-14 -1.12975e-12 0 0 0 0)
(-2.71051e-14 -4.14925e-14 0 -1.0842e-13 2.33805e-13 0 0 0 0)
(2.71051e-14 4.80552e-15 0 -1.35525e-13 -6.46936e-14 0 0 0 0)
(0 3.36142e-15 0 -8.13152e-14 1.89604e-15 0 0 0 0)
(0 4.51659e-16 0 -1.35525e-13 -4.48791e-15 0 0 0 0)
(-2.71051e-14 -7.53512e-15 0 -1.0842e-13 4.68985e-15 0 0 0 0)
(2.71051e-14 2.40907e-15 0 -1.35525e-13 -1.26385e-14 0 0 0 0)
(5.42101e-14 6.67795e-15 0 -8.13152e-14 -3.01495e-14 0 0 0 0)
(0 4.16498e-15 0 -2.71051e-14 -1.72966e-14 0 0 0 0)
(0 1.05135e-15 0 0 -1.03973e-14 0 0 0 0)
(0 3.01296e-15 0 0 -1.22581e-14 0 0 0 0)
(8.13152e-14 -1.05335e-15 0 0 -2.41303e-14 0 0 0 0)
(5.42101e-14 -5.9039e-15 0 0 -2.7415e-14 0 0 0 0)
(0 -4.90122e-15 0 5.42101e-14 -2.69741e-14 0 0 0 0)
(5.42101e-14 -6.65992e-15 0 0 -1.38485e-14 0 0 0 0)
(-2.71051e-14 -8.53933e-15 0 5.42101e-14 7.09348e-15 0 0 0 0)
(-8.13152e-14 1.53185e-15 0 0 1.41815e-14 0 0 0 0)
(5.42101e-14 1.45309e-14 0 5.42101e-14 -1.01771e-14 0 0 0 0)
(-7.86047e-13 -7.59811e-12 0 -2.52077e-12 6.18509e-12 0 0 0 0)
(8.40257e-13 9.11768e-12 0 8.67362e-13 -1.42074e-12 0 0 0 0)
(-1.89735e-13 -1.91835e-12 0 8.13152e-14 3.00683e-13 0 0 0 0)
(0 4.53495e-13 0 1.89735e-13 -8.53079e-14 0 0 0 0)
(5.42101e-14 -9.61781e-14 0 1.89735e-13 4.70901e-15 0 0 0 0)
(-5.42101e-14 3.79256e-14 0 8.13152e-14 -5.91973e-15 0 0 0 0)
(5.42101e-14 9.33445e-15 0 8.13152e-14 1.66852e-15 0 0 0 0)
(0 -9.44545e-15 0 1.35525e-13 1.1523e-14 0 0 0 0)
(0 -2.76754e-14 0 1.89735e-13 -6.62818e-16 0 0 0 0)
(0 -7.80871e-15 0 8.13152e-14 -2.31993e-14 0 0 0 0)
(8.13152e-14 1.67955e-14 0 8.13152e-14 -3.18776e-14 0 0 0 0)
(2.71051e-14 1.29947e-14 0 5.42101e-14 -2.29317e-14 0 0 0 0)
(2.71051e-14 -1.36997e-15 0 8.13152e-14 -8.21992e-15 0 0 0 0)
(-2.71051e-14 -9.55671e-15 0 8.13152e-14 -6.97308e-15 0 0 0 0)
(-2.71051e-14 -8.10343e-15 0 2.71051e-14 -1.09686e-15 0 0 0 0)
(0 1.3148e-15 0 2.71051e-14 -2.95026e-15 0 0 0 0)
(0 1.5425e-14 0 0 -4.83301e-15 0 0 0 0)
(2.71051e-14 1.20214e-14 0 -5.42101e-14 -1.08636e-15 0 0 0 0)
(-2.71051e-14 -8.49463e-15 0 0 -7.24543e-16 0 0 0 0)
(0 8.09878e-15 0 0 -5.84802e-15 0 0 0 0)
(-4.60786e-13 5.46641e-12 0 2.30393e-12 8.55288e-12 0 0 0 0)
(7.31836e-13 -6.70087e-12 0 -4.60786e-13 -1.75575e-12 0 0 0 0)
(-2.43945e-13 1.48392e-12 0 1.35525e-13 4.11514e-13 0 0 0 0)
(2.71051e-14 -3.37467e-13 0 8.13152e-14 -8.76582e-14 0 0 0 0)
(-2.71051e-14 8.41937e-14 0 8.13152e-14 2.94127e-14 0 0 0 0)
(-2.71051e-14 3.20937e-16 0 1.0842e-13 4.90243e-15 0 0 0 0)
(2.71051e-14 1.78944e-14 0 1.0842e-13 -2.78068e-15 0 0 0 0)
(0 -9.86646e-15 0 1.0842e-13 -6.39053e-15 0 0 0 0)
(0 -3.23132e-14 0 8.13152e-14 7.34889e-18 0 0 0 0)
(-2.71051e-14 -2.45369e-14 0 1.0842e-13 1.98153e-14 0 0 0 0)
(-2.71051e-14 4.43255e-15 0 2.71051e-14 8.19663e-15 0 0 0 0)
(0 2.47091e-14 0 0 -1.09481e-14 0 0 0 0)
(2.71051e-14 1.89716e-14 0 2.71051e-14 -8.85456e-15 0 0 0 0)
(2.71051e-14 6.06971e-15 0 2.71051e-14 9.8227e-16 0 0 0 0)
(0 -1.88108e-15 0 2.71051e-14 1.31948e-14 0 0 0 0)
(-5.42101e-14 -8.63738e-15 0 2.71051e-14 2.14255e-14 0 0 0 0)
(-5.42101e-14 -4.79603e-15 0 0 1.3467e-14 0 0 0 0)
(5.42101e-14 -4.43086e-15 0 0 -7.49039e-15 0 0 0 0)
(0 -3.2298e-15 0 0 -9.65462e-15 0 0 0 0)
(0 2.11035e-14 0 2.71051e-14 7.00404e-15 0 0 0 0)
(1.0571e-12 -8.00974e-13 0 -6.50521e-13 -1.31092e-11 0 0 0 0)
(-1.35525e-12 9.76317e-13 0 1.6263e-13 2.81828e-12 0 0 0 0)
(3.52366e-13 -2.5026e-13 0 -2.71051e-14 -6.45711e-13 0 0 0 0)
(-2.71051e-14 7.13939e-14 0 5.42101e-14 1.49121e-13 0 0 0 0)
(2.71051e-14 -3.61741e-15 0 2.71051e-14 -1.59864e-14 0 0 0 0)
(-2.71051e-14 5.73226e-15 0 5.42101e-14 1.50038e-14 0 0 0 0)
(0 -1.95851e-15 0 0 -5.04087e-15 0 0 0 0)
(2.71051e-14 -6.65742e-15 0 5.42101e-14 -1.4738e-14 0 0 0 0)
(0 -1.46959e-15 0 0 -1.61799e-15 0 0 0 0)
(-2.71051e-14 3.80571e-16 0 2.71051e-14 2.11781e-14 0 0 0 0)
(0 -1.39679e-14 0 2.71051e-14 2.21222e-14 0 0 0 0)
(0 -4.05651e-15 0 5.42101e-14 7.54244e-15 0 0 0 0)
(2.71051e-14 1.05604e-14 0 0 -8.10214e-15 0 0 0 0)
(-2.71051e-14 1.24926e-14 0 0 -9.97966e-15 0 0 0 0)
(0 1.23398e-14 0 0 -3.36457e-15 0 0 0 0)
(0 1.58702e-15 0 0 2.71959e-15 0 0 0 0)
(0 -1.34909e-14 0 2.71051e-14 1.14915e-14 0 0 0 0)
(0 -1.11002e-14 0 2.71051e-14 1.51429e-14 0 0 0 0)
(0 5.9998e-15 0 2.71051e-14 1.662e-14 0 0 0 0)
(-5.42101e-14 1.07494e-14 0 0 1.37367e-14 0 0 0 0)
(-9.21572e-13 -4.82451e-12 0 -5.42101e-14 1.05843e-11 0 0 0 0)
(1.35525e-12 5.76262e-12 0 2.1684e-13 -2.27199e-12 0 0 0 0)
(-2.98156e-13 -1.18524e-12 0 1.0842e-13 5.71238e-13 0 0 0 0)
(2.71051e-14 2.92258e-13 0 -5.42101e-14 -8.72463e-14 0 0 0 0)
(-2.71051e-14 -4.99236e-14 0 -5.42101e-14 3.71721e-14 0 0 0 0)
(-2.71051e-14 1.12665e-14 0 -2.71051e-14 -2.73969e-15 0 0 0 0)
(0 -1.18474e-14 0 0 6.7655e-16 0 0 0 0)
(0 -6.44358e-15 0 -2.71051e-14 -1.38689e-15 0 0 0 0)
(-5.42101e-14 3.6028e-15 0 -2.71051e-14 1.07309e-14 0 0 0 0)
(0 -7.96653e-16 0 -2.71051e-14 2.28475e-15 0 0 0 0)
(2.71051e-14 -9.20306e-15 0 0 4.21709e-15 0 0 0 0)
(-2.71051e-14 -5.5153e-15 0 0 6.83034e-15 0 0 0 0)
(0 1.44952e-15 0 0 1.07415e-14 0 0 0 0)
(0 1.08073e-14 0 0 1.63188e-14 0 0 0 0)
(0 1.08182e-14 0 -5.42101e-14 1.1478e-14 0 0 0 0)
(0 6.21865e-15 0 0 3.37199e-15 0 0 0 0)
(-2.71051e-14 7.62726e-15 0 0 3.31772e-15 0 0 0 0)
(-2.71051e-14 6.97694e-16 0 -2.71051e-14 1.61178e-14 0 0 0 0)
(0 -4.63599e-15 0 -2.71051e-14 1.62902e-14 0 0 0 0)
(0 -9.25319e-15 0 0 1.47838e-15 0 0 0 0)
(1.24683e-12 7.51131e-12 0 1.11131e-12 1.89667e-12 0 0 0 0)
(-1.24683e-12 -9.03672e-12 0 -6.50521e-13 -3.30879e-13 0 0 0 0)
(1.0842e-13 1.93449e-12 0 -2.1684e-13 1.12192e-13 0 0 0 0)
(-1.0842e-13 -4.62672e-13 0 -1.35525e-13 6.09262e-15 0 0 0 0)
(2.71051e-14 8.08892e-14 0 -1.0842e-13 4.0617e-15 0 0 0 0)
(0 -3.07633e-14 0 -1.35525e-13 -6.15824e-15 0 0 0 0)
(2.71051e-14 -6.05717e-16 0 -1.0842e-13 -9.58673e-15 0 0 0 0)
(0 3.39695e-15 0 -1.35525e-13 -3.33486e-15 0 0 0 0)
(0 2.20206e-15 0 -1.35525e-13 8.78099e-16 0 0 0 0)
(0 -6.13326e-15 0 -1.0842e-13 -5.30413e-15 0 0 0 0)
(-2.71051e-14 -9.42233e-15 0 -1.0842e-13 1.73387e-15 0 0 0 0)
(2.71051e-14 2.46786e-15 0 -1.0842e-13 6.56663e-15 0 0 0 0)
(0 2.00489e-14 0 -1.0842e-13 1.56036e-14 0 0 0 0)
(-5.42101e-14 1.32292e-14 0 -1.0842e-13 1.97339e-14 0 0 0 0)
(0 -6.07018e-16 0 -8.13152e-14 6.52123e-15 0 0 0 0)
(0 -6.57329e-15 0 -5.42101e-14 5.62999e-15 0 0 0 0)
(-5.42101e-14 -7.45098e-16 0 -8.13152e-14 -7.68236e-15 0 0 0 0)
(5.42101e-14 1.87224e-15 0 -5.42101e-14 -1.79163e-14 0 0 0 0)
(5.42101e-14 -8.6396e-15 0 0 -5.07445e-15 0 0 0 0)
(-5.42101e-14 -7.01922e-15 0 0 -4.2169e-15 0 0 0 0)
(-4.87891e-13 -3.25872e-12 0 -1.16552e-12 -1.42337e-11 0 0 0 0)
(8.13152e-14 3.97814e-12 0 2.71051e-13 2.98612e-12 0 0 0 0)
(1.89735e-13 -8.48265e-13 0 0 -7.22556e-13 0 0 0 0)
(1.35525e-13 1.84127e-13 0 5.42101e-14 1.39085e-13 0 0 0 0)
(0 -6.21745e-14 0 0 -2.74645e-14 0 0 0 0)
(0 -2.38198e-15 0 0 1.04381e-14 0 0 0 0)
(-5.42101e-14 -9.02406e-15 0 -2.71051e-14 -3.39871e-15 0 0 0 0)
(0 4.02125e-15 0 -2.71051e-14 -8.69821e-15 0 0 0 0)
(0 1.63354e-15 0 0 -1.45032e-14 0 0 0 0)
(0 5.91203e-17 0 0 -1.59076e-14 0 0 0 0)
(5.42101e-14 2.6677e-15 0 0 -1.41813e-14 0 0 0 0)
(-5.42101e-14 8.35445e-15 0 0 1.12902e-14 0 0 0 0)
(0 1.46168e-14 0 0 1.28979e-15 0 0 0 0)
(5.42101e-14 1.72489e-15 0 0 -1.49399e-14 0 0 0 0)
(2.71051e-14 -3.28572e-15 0 2.71051e-14 -1.44899e-14 0 0 0 0)
(0 -7.98494e-15 0 2.71051e-14 -3.93726e-15 0 0 0 0)
(-2.71051e-14 -1.5919e-14 0 0 -4.16006e-15 0 0 0 0)
(8.13152e-14 3.30561e-15 0 0 -2.25258e-14 0 0 0 0)
(0 9.06342e-15 0 -2.71051e-14 -1.50567e-14 0 0 0 0)
(0 3.8154e-17 0 -2.71051e-14 -1.64671e-15 0 0 0 0)
(3.25261e-13 -3.7363e-12 0 1.89735e-13 1.29952e-11 0 0 0 0)
(-5.42101e-14 4.47445e-12 0 1.89735e-13 -2.7801e-12 0 0 0 0)
(-1.0842e-13 -9.12546e-13 0 1.89735e-13 6.41391e-13 0 0 0 0)
(-1.0842e-13 2.32419e-13 0 5.42101e-14 -1.38604e-13 0 0 0 0)
(0 -4.77575e-14 0 1.0842e-13 5.15377e-14 0 0 0 0)
(-5.42101e-14 -6.69745e-15 0 1.0842e-13 1.11531e-14 0 0 0 0)
(0 -1.9742e-14 0 8.13152e-14 9.55572e-15 0 0 0 0)
(0 -7.70752e-15 0 1.0842e-13 -1.15313e-15 0 0 0 0)
(2.71051e-14 -5.00732e-15 0 1.0842e-13 -5.57224e-15 0 0 0 0)
(0 -5.81137e-15 0 5.42101e-14 -3.006e-15 0 0 0 0)
(0 1.77754e-14 0 8.13152e-14 6.33394e-15 0 0 0 0)
(0 1.79389e-14 0 5.42101e-14 1.97376e-14 0 0 0 0)
(0 -6.18118e-15 0 0 4.38834e-15 0 0 0 0)
(0 -2.55047e-15 0 0 -1.44715e-14 0 0 0 0)
(2.71051e-14 1.03956e-14 0 0 -1.11676e-14 0 0 0 0)
(0 3.75651e-15 0 -2.71051e-14 -5.13917e-15 0 0 0 0)
(-5.42101e-14 -1.93337e-14 0 8.13152e-14 9.43712e-15 0 0 0 0)
(0 -9.02435e-15 0 5.42101e-14 2.41913e-15 0 0 0 0)
(0 1.22395e-14 0 0 -7.71337e-15 0 0 0 0)
(0 9.68414e-15 0 2.71051e-14 -3.9562e-15 0 0 0 0)
(-8.13152e-14 6.95638e-12 0 -4.06576e-13 -4.07146e-12 0 0 0 0)
(8.13152e-14 -8.37566e-12 0 -1.89735e-13 9.35585e-13 0 0 0 0)
(2.71051e-14 1.79323e-12 0 -1.89735e-13 -1.97758e-13 0 0 0 0)
(2.71051e-14 -4.05727e-13 0 -5.42101e-14 4.66376e-14 0 0 0 0)
(0 8.75828e-14 0 -2.71051e-14 -1.29418e-14 0 0 0 0)
(0 -4.4364e-14 0 -5.42101e-14 1.37649e-14 0 0 0 0)
(0 -2.13303e-14 0 5.42101e-14 1.31577e-14 0 0 0 0)
(-2.71051e-14 -1.11067e-14 0 0 1.4122e-14 0 0 0 0)
(-2.71051e-14 -2.19342e-16 0 -2.71051e-14 2.83487e-16 0 0 0 0)
(0 1.19653e-14 0 0 9.29027e-15 0 0 0 0)
(-5.42101e-14 2.54113e-14 0 -2.71051e-14 2.68623e-14 0 0 0 0)
(-2.71051e-14 6.40885e-15 0 -5.42101e-14 1.42641e-14 0 0 0 0)
(0 -1.95923e-14 0 0 6.28367e-15 0 0 0 0)
(0 -1.3831e-14 0 0 1.37795e-16 0 0 0 0)
(0 6.04658e-15 0 0 -6.25441e-15 0 0 0 0)
(2.71051e-14 1.26198e-14 0 -8.13152e-14 -2.33573e-14 0 0 0 0)
(8.13152e-14 -8.36074e-15 0 -2.71051e-14 -1.92483e-14 0 0 0 0)
(-2.71051e-14 -1.38449e-14 0 0 7.55308e-15 0 0 0 0)
(0 2.6881e-15 0 0 6.34867e-15 0 0 0 0)
(0 1.17077e-14 0 -2.71051e-14 -3.86509e-15 0 0 0 0)
(-2.71051e-13 -6.87218e-12 0 7.04731e-13 -3.03541e-12 0 0 0 0)
(1.35525e-13 8.34815e-12 0 -5.42101e-14 6.41664e-13 0 0 0 0)
(5.42101e-14 -1.80149e-12 0 5.42101e-14 -1.85705e-13 0 0 0 0)
(2.71051e-14 4.17235e-13 0 -1.35525e-13 -7.93182e-15 0 0 0 0)
(5.42101e-14 -8.06303e-14 0 -2.71051e-14 -4.03696e-14 0 0 0 0)
(0 1.94021e-14 0 -5.42101e-14 -5.17583e-15 0 0 0 0)
(2.71051e-14 -1.93849e-14 0 -2.71051e-14 1.65946e-14 0 0 0 0)
(-2.71051e-14 -2.05817e-14 0 -2.71051e-14 2.11536e-14 0 0 0 0)
(0 -9.839e-15 0 -5.42101e-14 7.38212e-15 0 0 0 0)
(0 2.07674e-14 0 -5.42101e-14 1.47363e-14 0 0 0 0)
(-5.42101e-14 2.27492e-14 0 -5.42101e-14 3.62754e-15 0 0 0 0)
(5.42101e-14 -2.63968e-15 0 0 -1.76762e-14 0 0 0 0)
(0 -2.03075e-14 0 8.13152e-14 -9.97936e-15 0 0 0 0)
(0 -1.50885e-14 0 8.13152e-14 8.86758e-16 0 0 0 0)
(-5.42101e-14 -1.30995e-14 0 5.42101e-14 5.18815e-15 0 0 0 0)
(0 -9.23735e-15 0 8.13152e-14 -1.46691e-14 0 0 0 0)
(5.42101e-14 1.15767e-14 0 0 -2.27391e-14 0 0 0 0)
(0 1.65726e-14 0 0 3.70064e-15 0 0 0 0)
(0 8.21332e-16 0 0 9.23339e-15 0 0 0 0)
(0 7.20056e-15 0 2.71051e-14 5.24437e-15 0 0 0 0)
(5.42101e-13 4.56263e-12 0 -9.75782e-13 8.49478e-12 0 0 0 0)
(-5.96311e-13 -5.52596e-12 0 1.89735e-13 -1.85048e-12 0 0 0 0)
(0 1.14363e-12 0 -1.35525e-13 4.04238e-13 0 0 0 0)
(-2.71051e-14 -2.60391e-13 0 5.42101e-14 -1.11946e-13 0 0 0 0)
(8.13152e-14 9.03388e-14 0 -5.42101e-14 -1.47911e-15 0 0 0 0)
(0 1.26002e-14 0 0 -2.51417e-14 0 0 0 0)
(0 4.99916e-15 0 -2.71051e-14 2.58205e-15 0 0 0 0)
(-5.42101e-14 -2.03191e-14 0 0 1.41712e-14 0 0 0 0)
(0 -6.63667e-15 0 0 3.00595e-14 0 0 0 0)
(0 8.21071e-15 0 0 1.73801e-14 0 0 0 0)
(0 -7.00112e-15 0 0 -1.64426e-14 0 0 0 0)
(5.42101e-14 -7.19804e-15 0 -2.71051e-14 -4.24082e-14 0 0 0 0)
(2.71051e-14 -1.0294e-15 0 -2.71051e-14 -3.14782e-14 0 0 0 0)
(0 1.33647e-15 0 -2.71051e-14 -8.18442e-15 0 0 0 0)
(0 -9.5093e-15 0 -5.42101e-14 4.83055e-15 0 0 0 0)
(0 -1.53075e-14 0 0 1.179e-14 0 0 0 0)
(0 1.0009e-14 0 -5.42101e-14 6.84748e-15 0 0 0 0)
(-2.71051e-14 1.81276e-14 0 0 -3.61097e-15 0 0 0 0)
(2.71051e-14 4.23183e-15 0 0 -7.44884e-15 0 0 0 0)
(-2.71051e-14 -2.77004e-15 0 0 6.95333e-15 0 0 0 0)
(-1.02999e-12 -2.27877e-13 0 -6.50521e-13 -1.23779e-11 0 0 0 0)
(9.75782e-13 2.57616e-13 0 2.1684e-13 2.55484e-12 0 0 0 0)
(-1.35525e-13 -6.29646e-14 0 0 -5.84952e-13 0 0 0 0)
(1.89735e-13 1.15184e-14 0 1.35525e-13 1.29162e-13 0 0 0 0)
(-5.42101e-14 6.17442e-15 0 5.42101e-14 -4.88479e-14 0 0 0 0)
(5.42101e-14 2.34632e-14 0 5.42101e-14 -2.51823e-14 0 0 0 0)
(2.71051e-14 1.9928e-14 0 5.42101e-14 -2.2485e-14 0 0 0 0)
(-2.71051e-14 6.89568e-15 0 5.42101e-14 2.97574e-15 0 0 0 0)
(-8.13152e-14 -6.63013e-15 0 1.0842e-13 2.39047e-14 0 0 0 0)
(0 -2.57347e-14 0 1.0842e-13 1.60471e-15 0 0 0 0)
(0 -3.70391e-14 0 1.35525e-13 -6.34052e-15 0 0 0 0)
(0 -1.76752e-14 0 1.35525e-13 3.06051e-15 0 0 0 0)
(2.71051e-14 1.39164e-14 0 2.71051e-14 1.91709e-17 0 0 0 0)
(-2.71051e-14 2.12202e-14 0 2.71051e-14 7.99081e-15 0 0 0 0)
(2.71051e-14 6.87501e-15 0 5.42101e-14 4.49117e-15 0 0 0 0)
(-2.71051e-14 -7.22043e-15 0 2.71051e-14 7.40806e-15 0 0 0 0)
(0 -3.82432e-15 0 5.42101e-14 -3.25601e-15 0 0 0 0)
(2.71051e-14 2.27627e-15 0 2.71051e-14 -1.25012e-14 0 0 0 0)
(5.42101e-14 1.13856e-14 0 0 -7.43423e-15 0 0 0 0)
(0 7.69607e-15 0 0 3.661e-16 0 0 0 0)
(5.42101e-14 -5.26046e-12 0 1.6263e-12 1.11343e-11 0 0 0 0)
(1.35525e-13 6.26702e-12 0 -2.71051e-13 -2.42273e-12 0 0 0 0)
(-8.13152e-14 -1.28204e-12 0 2.43945e-13 5.49413e-13 0 0 0 0)
(-2.71051e-14 2.75713e-13 0 0 -1.22726e-13 0 0 0 0)
(-2.71051e-14 -6.40055e-14 0 2.71051e-14 3.52993e-14 0 0 0 0)
(2.71051e-14 3.89631e-14 0 -5.42101e-14 6.0921e-15 0 0 0 0)
(2.71051e-14 3.31572e-14 0 -1.0842e-13 -1.44934e-14 0 0 0 0)
(2.71051e-14 2.60705e-14 0 -1.0842e-13 -2.08937e-14 0 0 0 0)
(5.42101e-14 -8.00771e-15 0 -2.71051e-14 -1.74033e-14 0 0 0 0)
(2.71051e-14 -2.20345e-14 0 -2.71051e-14 -7.00788e-15 0 0 0 0)
(0 -5.54532e-15 0 -2.71051e-14 1.59396e-14 0 0 0 0)
(-5.42101e-14 -8.38354e-16 0 -5.42101e-14 4.04399e-14 0 0 0 0)
(-5.42101e-14 3.9009e-15 0 0 3.59065e-14 0 0 0 0)
(-5.42101e-14 5.80848e-15 0 0 2.2619e-14 0 0 0 0)
(0 -1.00921e-14 0 2.71051e-14 4.20356e-15 0 0 0 0)
(0 -2.30547e-14 0 2.71051e-14 5.63782e-16 0 0 0 0)
(0 -9.90021e-15 0 2.71051e-14 -2.0266e-15 0 0 0 0)
(0 1.39494e-14 0 -2.71051e-14 6.1449e-15 0 0 0 0)
(0 1.70991e-14 0 2.71051e-14 1.76974e-14 0 0 0 0)
(-5.42101e-14 4.2981e-15 0 0 7.61178e-15 0 0 0 0)
(3.79471e-13 8.48371e-12 0 9.48677e-13 -1.11513e-12 0 0 0 0)
(-4.60786e-13 -1.03273e-11 0 -4.06576e-13 3.92616e-13 0 0 0 0)
(1.35525e-13 2.23704e-12 0 -1.6263e-13 -8.33034e-14 0 0 0 0)
(-5.42101e-14 -5.02595e-13 0 -1.0842e-13 5.78162e-14 0 0 0 0)
(-8.13152e-14 1.34993e-13 0 -1.6263e-13 3.7859e-14 0 0 0 0)
(-5.42101e-14 -2.63295e-14 0 -8.13152e-14 3.2229e-14 0 0 0 0)
(0 -7.05778e-15 0 -2.71051e-14 1.98784e-16 0 0 0 0)
(0 3.98577e-15 0 -2.71051e-14 -1.70262e-14 0 0 0 0)
(5.42101e-14 7.25569e-15 0 -8.13152e-14 -1.8185e-14 0 0 0 0)
(-5.42101e-14 7.60828e-15 0 -1.0842e-13 6.87277e-16 0 0 0 0)
(-5.42101e-14 1.04087e-14 0 -1.35525e-13 5.57413e-15 0 0 0 0)
(5.42101e-14 2.29164e-15 0 -1.35525e-13 -1.38906e-14 0 0 0 0)
(8.13152e-14 -3.90458e-15 0 -1.0842e-13 -1.71472e-14 0 0 0 0)
(5.42101e-14 -1.04827e-14 0 -8.13152e-14 -2.54034e-14 0 0 0 0)
(0 -1.51802e-14 0 -8.13152e-14 -2.66656e-14 0 0 0 0)
(2.71051e-14 -1.34506e-14 0 -2.71051e-14 -1.10235e-14 0 0 0 0)
(-2.71051e-14 1.7568e-15 0 -2.71051e-14 1.67998e-14 0 0 0 0)
(0 2.20002e-14 0 0 1.86697e-14 0 0 0 0)
(0 1.28525e-14 0 -8.13152e-14 1.20455e-14 0 0 0 0)
(0 -1.76131e-14 0 -2.71051e-14 3.04342e-15 0 0 0 0)
(5.69206e-13 -5.98297e-12 0 -2.49366e-12 -1.29554e-11 0 0 0 0)
(-9.21572e-13 7.29884e-12 0 6.50521e-13 2.7852e-12 0 0 0 0)
(1.6263e-13 -1.61684e-12 0 -8.13152e-14 -6.0843e-13 0 0 0 0)
(5.42101e-14 3.96876e-13 0 0 1.58217e-13 0 0 0 0)
(-5.42101e-14 -8.95927e-14 0 8.13152e-14 -2.34899e-14 0 0 0 0)
(1.0842e-13 1.30293e-15 0 8.13152e-14 -9.85817e-15 0 0 0 0)
(0 -1.6098e-14 0 8.13152e-14 2.60916e-15 0 0 0 0)
(2.71051e-14 7.68675e-15 0 2.71051e-14 -5.04461e-16 0 0 0 0)
(0 9.70582e-15 0 5.42101e-14 -9.77513e-15 0 0 0 0)
(0 1.72466e-15 0 8.13152e-14 -7.54066e-15 0 0 0 0)
(-2.71051e-14 -2.01232e-14 0 8.13152e-14 -3.70435e-15 0 0 0 0)
(0 -2.35597e-14 0 1.35525e-13 -1.03728e-14 0 0 0 0)
(0 -7.6118e-15 0 8.13152e-14 -1.54993e-14 0 0 0 0)
(2.71051e-14 -3.70996e-15 0 5.42101e-14 -2.69549e-14 0 0 0 0)
(0 4.2878e-15 0 0 -2.03075e-14 0 0 0 0)
(5.42101e-14 2.04108e-14 0 -2.71051e-14 -1.04115e-14 0 0 0 0)
(2.71051e-14 1.97929e-14 0 -5.42101e-14 8.35014e-15 0 0 0 0)
(-2.71051e-14 9.19514e-15 0 0 2.46409e-15 0 0 0 0)
(0 1.47286e-15 0 5.42101e-14 -1.18641e-14 0 0 0 0)
(0 -1.07909e-14 0 2.71051e-14 -1.00821e-14 0 0 0 0)
(-1.46367e-12 -1.68647e-12 0 -5.42101e-13 1.75636e-11 0 0 0 0)
(1.95156e-12 2.01966e-12 0 1.0842e-13 -3.82912e-12 0 0 0 0)
(-5.42101e-13 -3.89941e-13 0 8.13152e-14 9.01192e-13 0 0 0 0)
(1.0842e-13 8.23447e-14 0 5.42101e-14 -2.08428e-13 0 0 0 0)
(0 -3.30825e-14 0 5.42101e-14 2.84707e-14 0 0 0 0)
(0 -2.3044e-16 0 8.13152e-14 -1.92476e-14 0 0 0 0)
(-5.42101e-14 2.29592e-15 0 0 8.77136e-15 0 0 0 0)
(2.71051e-14 -8.39853e-15 0 5.42101e-14 -2.96263e-15 0 0 0 0)
(0 2.19487e-16 0 0 -1.41423e-14 0 0 0 0)
(0 1.36791e-14 0 0 -1.84719e-14 0 0 0 0)
(5.42101e-14 7.57657e-15 0 5.42101e-14 -1.11e-14 0 0 0 0)
(0 -9.50329e-15 0 5.42101e-14 1.58456e-14 0 0 0 0)
(-2.71051e-14 -2.04866e-14 0 5.42101e-14 1.89938e-14 0 0 0 0)
(-2.71051e-14 -1.5291e-14 0 2.71051e-14 2.29582e-14 0 0 0 0)
(-2.71051e-14 1.36319e-15 0 5.42101e-14 3.59008e-14 0 0 0 0)
(-5.42101e-14 1.52071e-14 0 0 1.90196e-14 0 0 0 0)
(0 1.46324e-14 0 0 -1.65367e-15 0 0 0 0)
(5.42101e-14 1.78596e-15 0 0 -1.00095e-14 0 0 0 0)
(2.71051e-14 3.06359e-16 0 0 -1.37059e-14 0 0 0 0)
(-2.71051e-14 4.33311e-15 0 0 -5.44148e-15 0 0 0 0)
(1.89735e-13 7.75148e-12 0 3.68629e-12 -2.82453e-12 0 0 0 0)
(-3.79471e-13 -9.36353e-12 0 -9.75782e-13 6.42872e-13 0 0 0 0)
(1.35525e-13 2.00385e-12 0 0 -1.7447e-13 0 0 0 0)
(-2.71051e-14 -4.75846e-13 0 -8.13152e-14 2.63502e-14 0 0 0 0)
(2.71051e-14 9.95878e-14 0 -5.42101e-14 -2.67766e-14 0 0 0 0)
(0 -1.83964e-14 0 -8.13152e-14 -7.57938e-15 0 0 0 0)
(5.42101e-14 1.86936e-16 0 -8.13152e-14 -7.73983e-15 0 0 0 0)
(0 -1.52269e-14 0 -5.42101e-14 2.76109e-15 0 0 0 0)
(-5.42101e-14 -5.80346e-15 0 -5.42101e-14 1.0197e-14 0 0 0 0)
(5.42101e-14 4.76696e-15 0 -8.13152e-14 -4.72513e-15 0 0 0 0)
(2.71051e-14 1.41943e-14 0 -1.0842e-13 -2.36832e-14 0 0 0 0)
(-2.71051e-14 6.53404e-15 0 -2.71051e-14 -1.79945e-14 0 0 0 0)
(2.71051e-14 -4.99295e-16 0 -5.42101e-14 -3.06208e-15 0 0 0 0)
(0 1.31971e-14 0 -8.13152e-14 1.67223e-14 0 0 0 0)
(0 3.49278e-16 0 -5.42101e-14 1.68675e-14 0 0 0 0)
(0 -1.71437e-14 0 2.71051e-14 6.18943e-15 0 0 0 0)
(-2.71051e-14 -9.23615e-15 0 8.13152e-14 3.01196e-15 0 0 0 0)
(0 -2.85706e-15 0 5.42101e-14 4.41933e-15 0 0 0 0)
(0 6.04085e-15 0 0 -1.74487e-15 0 0 0 0)
(0 8.35648e-15 0 -2.71051e-14 -3.03136e-15 0 0 0 0)
(1.24683e-12 -3.86813e-12 0 -1.0842e-12 -1.60492e-11 0 0 0 0)
(-1.68051e-12 4.66972e-12 0 4.87891e-13 3.3678e-12 0 0 0 0)
(3.79471e-13 -1.00646e-12 0 1.0842e-13 -7.95112e-13 0 0 0 0)
(0 2.30039e-13 0 1.35525e-13 1.68734e-13 0 0 0 0)
(-2.71051e-14 -6.70121e-14 0 1.0842e-13 -3.91592e-14 0 0 0 0)
(0 1.88063e-14 0 8.13152e-14 1.10213e-15 0 0 0 0)
(0 1.26364e-14 0 8.13152e-14 -5.33824e-15 0 0 0 0)
(0 9.53832e-15 0 8.13152e-14 4.5312e-15 0 0 0 0)
(0 -7.26673e-15 0 5.42101e-14 1.21793e-14 0 0 0 0)
(0 -2.02012e-14 0 1.0842e-13 4.82869e-15 0 0 0 0)
(2.71051e-14 -5.69282e-15 0 5.42101e-14 -4.91351e-15 0 0 0 0)
(5.42101e-14 1.11178e-14 0 2.71051e-14 -1.19198e-14 0 0 0 0)
(-5.42101e-14 1.42301e-14 0 2.71051e-14 -3.89606e-16 0 0 0 0)
(-2.71051e-14 4.63857e-15 0 0 -5.78757e-15 0 0 0 0)
(8.13152e-14 -9.16965e-15 0 5.42101e-14 -2.97874e-14 0 0 0 0)
(2.71051e-14 1.35158e-15 0 0 -1.74449e-14 0 0 0 0)
(2.71051e-14 1.28623e-14 0 0 -3.36128e-16 0 0 0 0)
(-2.71051e-14 -2.97087e-15 0 -2.71051e-14 9.42388e-15 0 0 0 0)
(-2.71051e-14 -7.14433e-15 0 0 4.06439e-15 0 0 0 0)
(0 9.10934e-15 0 2.71051e-14 -2.92025e-15 0 0 0 0)
(-4.06576e-13 -4.92992e-12 0 -9.48677e-13 1.1115e-11 0 0 0 0)
(7.86047e-13 5.89054e-12 0 1.35525e-13 -2.31691e-12 0 0 0 0)
(-2.1684e-13 -1.19521e-12 0 -5.42101e-14 5.54696e-13 0 0 0 0)
(2.71051e-14 2.80107e-13 0 -5.42101e-14 -1.15242e-13 0 0 0 0)
(-2.71051e-14 -6.80444e-14 0 -5.42101e-14 4.45505e-14 0 0 0 0)
(-2.71051e-14 1.54245e-14 0 -2.71051e-14 1.98147e-14 0 0 0 0)
(-2.71051e-14 3.616e-15 0 0 1.03196e-14 0 0 0 0)
(-2.71051e-14 2.29066e-15 0 -2.71051e-14 3.56235e-15 0 0 0 0)
(0 -5.50597e-15 0 0 -1.50934e-15 0 0 0 0)
(0 -1.23258e-14 0 -2.71051e-14 1.6335e-14 0 0 0 0)
(-2.71051e-14 -2.55419e-15 0 0 3.10177e-14 0 0 0 0)
(0 1.1058e-14 0 -5.42101e-14 2.45821e-14 0 0 0 0)
(0 5.63294e-15 0 -2.71051e-14 8.84187e-15 0 0 0 0)
(0 -1.62007e-14 0 5.42101e-14 4.71898e-15 0 0 0 0)
(0 -1.13081e-14 0 0 2.0404e-14 0 0 0 0)
(-2.71051e-14 1.23075e-14 0 -2.71051e-14 2.51967e-14 0 0 0 0)
(-2.71051e-14 1.76327e-14 0 -2.71051e-14 6.74489e-15 0 0 0 0)
(0 1.54345e-15 0 -2.71051e-14 -5.29824e-15 0 0 0 0)
(2.71051e-14 -6.30328e-15 0 0 8.17231e-15 0 0 0 0)
(-2.71051e-14 7.21235e-15 0 -2.71051e-14 8.14937e-15 0 0 0 0)
)
;

boundaryField
{
    movingWall
    {
        type            extrapolatedCalculated;
        value           nonuniform List<tensor> 
20
(
(-4.06576e-13 -4.92992e-12 0 2.84217e-12 2.47523e-11 0 0 0 0)
(7.86047e-13 5.89054e-12 0 -1.24345e-12 -5.0326e-12 0 0 0 0)
(-2.1684e-13 -1.19521e-12 0 -3.10862e-13 1.19009e-12 0 0 0 0)
(2.71051e-14 2.80107e-13 0 -3.10862e-13 -2.51762e-13 0 0 0 0)
(-2.71051e-14 -6.80444e-14 0 -3.55271e-13 6.96642e-14 0 0 0 0)
(-2.71051e-14 1.54245e-14 0 -2.66454e-13 2.04158e-14 0 0 0 0)
(-2.71051e-14 3.616e-15 0 -2.22045e-13 7.96615e-15 0 0 0 0)
(-2.71051e-14 2.29066e-15 0 -2.22045e-13 5.95178e-15 0 0 0 0)
(0 -5.50597e-15 0 -1.77636e-13 -1.19649e-15 0 0 0 0)
(0 -1.23258e-14 0 -2.22045e-13 2.79756e-14 0 0 0 0)
(-2.71051e-14 -2.55419e-15 0 -1.33227e-13 4.81069e-14 0 0 0 0)
(0 1.1058e-14 0 -1.33227e-13 3.81924e-14 0 0 0 0)
(0 5.63294e-15 0 -4.44089e-14 3.87505e-15 0 0 0 0)
(0 -1.62007e-14 0 -8.88178e-14 1.56606e-14 0 0 0 0)
(0 -1.13081e-14 0 -8.88178e-14 6.86779e-14 0 0 0 0)
(-2.71051e-14 1.23075e-14 0 -4.44089e-14 6.0893e-14 0 0 0 0)
(-2.71051e-14 1.76327e-14 0 -4.44089e-14 1.94477e-14 0 0 0 0)
(0 1.54345e-15 0 0 -9.63767e-15 0 0 0 0)
(2.71051e-14 -6.30328e-15 0 0 1.32739e-14 0 0 0 0)
(-2.71051e-14 7.21235e-15 0 -4.44089e-14 1.55755e-14 0 0 0 0)
)
;
    }
    fixedWalls
    {
        type            extrapolatedCalculated;
        value           nonuniform List<tensor> 
60
(
(-5.41789e-12 4.99831e-11 0 4.87891e-13 1.3354e-11 0 0 0 0)
(7.37188e-12 3.43306e-12 0 4.33681e-13 -2.21038e-11 0 0 0 0)
(-3.64153e-12 -3.84322e-11 0 -2.52077e-12 6.18509e-12 0 0 0 0)
(-2.84217e-12 2.81734e-11 0 2.30393e-12 8.55288e-12 0 0 0 0)
(5.68434e-12 -4.22066e-12 0 -6.50521e-13 -1.31092e-11 0 0 0 0)
(-5.41789e-12 -2.42634e-11 0 -5.42101e-14 1.05843e-11 0 0 0 0)
(5.4623e-12 3.81164e-11 0 1.11131e-12 1.89667e-12 0 0 0 0)
(-9.76996e-13 -1.66767e-11 0 -1.16552e-12 -1.42337e-11 0 0 0 0)
(7.54952e-13 -1.88185e-11 0 1.89735e-13 1.29952e-11 0 0 0 0)
(-2.66454e-13 3.53041e-11 0 -4.06576e-13 -4.07146e-12 0 0 0 0)
(-7.99361e-13 -3.51043e-11 0 7.04731e-13 -3.03541e-12 0 0 0 0)
(2.4869e-12 2.31624e-11 0 -9.75782e-13 8.49478e-12 0 0 0 0)
(-4.61853e-12 -1.12521e-12 0 -6.50521e-13 -1.23779e-11 0 0 0 0)
(-2.66454e-13 -2.63493e-11 0 1.6263e-12 1.11343e-11 0 0 0 0)
(1.9984e-12 4.34121e-11 0 9.48677e-13 -1.11513e-12 0 0 0 0)
(3.5083e-12 -3.08098e-11 0 -2.49366e-12 -1.29554e-11 0 0 0 0)
(-7.99361e-12 -8.40944e-12 0 -5.42101e-13 1.75636e-11 0 0 0 0)
(1.42109e-12 3.94445e-11 0 3.68629e-12 -2.82453e-12 0 0 0 0)
(6.70575e-12 -1.97076e-11 0 -1.0842e-12 -1.60492e-11 0 0 0 0)
(-2.84217e-12 -2.47523e-11 0 -9.48677e-13 1.1115e-11 0 0 0 0)
(8.88178e-14 -5.99695e-15 0 -5.42101e-14 -2.40237e-15 0 0 0 0)
(8.88178e-14 1.56064e-14 0 5.42101e-14 -1.01771e-14 0 0 0 0)
(0 3.47113e-14 0 0 -5.84802e-15 0 0 0 0)
(0 3.89985e-14 0 2.71051e-14 7.00404e-15 0 0 0 0)
(-8.88178e-14 6.69512e-15 0 0 1.37367e-14 0 0 0 0)
(0 -1.59483e-14 0 0 1.47838e-15 0 0 0 0)
(-8.88178e-14 7.81593e-16 0 0 -4.2169e-15 0 0 0 0)
(0 9.19315e-16 0 -2.71051e-14 -1.64671e-15 0 0 0 0)
(-4.44089e-14 7.36845e-15 0 2.71051e-14 -3.9562e-15 0 0 0 0)
(0 1.67441e-14 0 -2.71051e-14 -3.86509e-15 0 0 0 0)
(-4.44089e-14 2.28288e-14 0 2.71051e-14 5.24437e-15 0 0 0 0)
(-4.44089e-14 -4.23338e-15 0 0 6.95333e-15 0 0 0 0)
(0 -4.98452e-15 0 0 3.661e-16 0 0 0 0)
(-8.88178e-14 -5.69778e-15 0 0 7.61178e-15 0 0 0 0)
(0 -3.54316e-14 0 -2.71051e-14 3.04342e-15 0 0 0 0)
(0 -1.78715e-14 0 2.71051e-14 -1.00821e-14 0 0 0 0)
(-4.44089e-14 4.89659e-15 0 0 -5.44148e-15 0 0 0 0)
(0 3.89444e-15 0 -2.71051e-14 -3.03136e-15 0 0 0 0)
(0 1.7022e-14 0 2.71051e-14 -2.92025e-15 0 0 0 0)
(-4.44089e-14 1.55755e-14 0 -2.71051e-14 8.14937e-15 0 0 0 0)
(-9.21572e-13 9.79297e-12 0 -5.41789e-12 4.99831e-11 0 0 0 0)
(1.35525e-12 -1.18564e-11 0 1.73195e-12 -1.08112e-11 0 0 0 0)
(-4.06576e-13 2.56059e-12 0 0 2.55754e-12 0 0 0 0)
(2.71051e-14 -6.11557e-13 0 8.88178e-14 -5.68863e-13 0 0 0 0)
(0 1.3573e-13 0 1.77636e-13 1.11308e-13 0 0 0 0)
(2.71051e-14 -2.22801e-14 0 1.33227e-13 -2.59414e-14 0 0 0 0)
(-2.71051e-14 6.54065e-15 0 1.77636e-13 2.21879e-14 0 0 0 0)
(0 -1.29483e-15 0 1.33227e-13 2.21154e-16 0 0 0 0)
(0 7.16396e-15 0 1.77636e-13 1.70086e-14 0 0 0 0)
(0 -3.15059e-15 0 8.88178e-14 2.8877e-14 0 0 0 0)
(0 -2.95673e-15 0 1.33227e-13 4.40624e-15 0 0 0 0)
(0 7.95611e-15 0 4.44089e-14 1.705e-14 0 0 0 0)
(0 1.23631e-14 0 1.33227e-13 3.62307e-14 0 0 0 0)
(-5.42101e-14 5.60025e-15 0 4.44089e-14 6.65023e-14 0 0 0 0)
(0 -5.25963e-15 0 0 5.86317e-14 0 0 0 0)
(-5.42101e-14 -1.22517e-14 0 -8.88178e-14 4.54638e-14 0 0 0 0)
(0 -1.86426e-14 0 0 9.62489e-15 0 0 0 0)
(0 -1.60087e-14 0 -1.77636e-13 -2.91067e-14 0 0 0 0)
(5.42101e-14 8.77591e-15 0 8.88178e-14 -5.44098e-14 0 0 0 0)
(0 1.21032e-14 0 -8.88178e-14 5.99695e-15 0 0 0 0)
)
;
    }
    frontAndBack
    {
        type            empty;
    }
}


// ************************************************************************* //
