/*--------------------------------*- C++ -*----------------------------------*\
| =========                 |                                                 |
| \\      /  F ield         | OpenFOAM: The Open Source CFD Toolbox           |
|  \\    /   O peration     | Version:  2506                                  |
|   \\  /    A nd           | Website:  www.openfoam.com                      |
|    \\/     M anipulation  |                                                 |
\*---------------------------------------------------------------------------*/
FoamFile
{
    version     2.0;
    format      ascii;
    arch        "LSB;label=32;scalar=64";
    class       volVectorField;
    location    "8.625";
    object      LambVectorField;
}
// * * * * * * * * * * * * * * * * * * * * * * * * * * * * * * * * * * * * * //

dimensions      [0 1 -2 0 0 0 0];

internalField   nonuniform List<vector> 
400
(
(-1.16274e-24 -9.30508e-12 0)
(-3.14595e-25 1.16396e-11 -0)
(-1.67186e-26 -2.6148e-12 0)
(-7.92636e-28 5.57347e-13 -0)
(-4.53123e-29 -1.62835e-13 0)
(2.07078e-30 -3.193e-14 -0)
(-3.62808e-31 -6.54065e-15 0)
(-4.4242e-32 -8.00203e-14 0)
(-2.60972e-30 -6.13741e-14 0)
(-3.68611e-30 -5.10595e-14 0)
(-5.64586e-31 -5.12534e-14 0)
(-2.64984e-30 -6.21662e-14 0)
(-6.02998e-30 -6.65732e-14 0)
(-9.94381e-30 -5.98104e-14 0)
(7.70952e-31 5.25963e-15 0)
(-4.76897e-30 -4.19584e-14 0)
(4.48583e-31 1.86426e-14 0)
(-1.1649e-30 1.60087e-14 -0)
(-2.49321e-30 1.83291e-14 -0)
(-9.94194e-31 -6.63133e-14 0)
(-2.30337e-27 -2.68375e-13 0)
(-8.09638e-28 5.18307e-13 -0)
(-9.60637e-29 -2.29809e-13 0)
(5.16269e-30 -6.69277e-14 -0)
(-4.33552e-31 -1.40331e-13 0)
(2.46265e-30 -8.46766e-14 -0)
(-4.99086e-30 -1.35977e-13 0)
(2.47839e-30 -1.00885e-13 -0)
(5.33081e-30 -1.37934e-13 -0)
(4.18608e-32 -8.79931e-14 -0)
(-8.79689e-31 -3.127e-14 0)
(-4.32885e-32 -1.05135e-15 0)
(-1.16437e-31 -3.01296e-15 0)
(7.51074e-32 1.05335e-15 0)
(1.65971e-31 5.9039e-15 0)
(7.2498e-31 5.91113e-14 0)
(-1.39193e-31 6.65992e-15 -0)
(-3.40946e-30 6.27494e-14 -0)
(1.62825e-31 -1.53185e-15 -0)
(-1.54813e-30 3.96792e-14 -0)
(-4.87833e-25 5.07734e-12 -0)
(-1.65826e-25 -8.25032e-12 0)
(-9.8056e-27 1.99967e-12 -0)
(-2.41574e-28 -2.6376e-13 0)
(-1.05406e-28 2.85913e-13 -0)
(-1.99128e-30 4.33895e-14 -0)
(7.62324e-31 7.19807e-14 0)
(6.87906e-30 1.44971e-13 0)
(-1.82329e-29 2.17411e-13 -0)
(-2.04364e-29 8.91239e-14 -0)
(-1.0449e-29 6.45197e-14 -0)
(-2.52848e-30 4.12154e-14 -0)
(-2.64627e-30 8.26851e-14 -0)
(-6.81972e-30 9.08719e-14 -0)
(-4.49159e-30 3.52085e-14 -0)
(-4.02539e-30 2.57903e-14 -0)
(1.76498e-30 -1.5425e-14 -0)
(1.21326e-31 -6.62315e-14 -0)
(4.9187e-32 8.49463e-15 0)
(7.02798e-31 -8.09878e-15 -0)
(-2.22744e-25 -3.16248e-12 0)
(-9.84027e-26 6.24008e-12 -0)
(-4.61806e-27 -1.3484e-12 0)
(-3.89558e-28 4.18782e-13 -0)
(-1.44443e-31 -2.87852e-15 0)
(-9.54304e-30 1.08099e-13 -0)
(4.83308e-30 9.05259e-14 0)
(1.07243e-29 1.18287e-13 0)
(-5.1446e-30 1.13628e-13 -0)
(-3.09084e-29 1.32957e-13 -0)
(-6.58963e-30 2.26725e-14 -0)
(4.64885e-30 -2.47091e-14 -0)
(-3.54241e-31 8.13344e-15 -0)
(3.30843e-32 2.10353e-14 0)
(4.96924e-31 2.89861e-14 0)
(-6.16127e-31 3.57424e-14 -0)
(-3.3203e-31 4.79603e-15 -0)
(-2.88884e-31 4.43086e-15 -0)
(-3.66708e-31 3.2298e-15 -0)
(-5.85128e-31 6.00155e-15 -0)
(-1.58752e-27 1.50453e-13 -0)
(-2.06831e-27 -8.13686e-13 0)
(-1.75952e-28 2.23155e-13 -0)
(-6.75412e-31 -1.71837e-14 0)
(-2.29001e-30 3.07225e-14 -0)
(1.51791e-31 4.84779e-14 0)
(-3.37178e-32 1.95851e-15 -0)
(-1.00151e-30 6.08675e-14 -0)
(-1.23137e-31 1.46959e-15 -0)
(-8.32464e-31 2.67245e-14 -0)
(-3.2852e-30 4.1073e-14 -0)
(-9.95363e-30 5.82666e-14 -0)
(1.27305e-30 -1.05604e-14 -0)
(8.14829e-31 -1.24926e-14 -0)
(-5.40035e-32 -1.23398e-14 0)
(-9.2322e-32 -1.58702e-15 0)
(8.21929e-31 4.05959e-14 0)
(-2.93171e-30 3.82053e-14 -0)
(-1.91543e-30 2.11053e-14 -0)
(1.79921e-31 -1.07494e-14 -0)
(-2.89359e-25 4.7703e-12 -0)
(-6.88418e-26 -5.54578e-12 0)
(-3.9227e-27 1.29366e-12 -0)
(-1.94366e-28 -3.46468e-13 0)
(4.7016e-31 -4.28648e-15 -0)
(-2.36975e-30 -3.83715e-14 0)
(3.53085e-32 1.18474e-14 0)
(1.17184e-30 -2.06615e-14 -0)
(1.88717e-30 -3.07079e-14 -0)
(5.44279e-31 -2.63084e-14 -0)
(-6.38895e-31 9.20306e-15 -0)
(-6.21679e-31 5.5153e-15 -0)
(1.80573e-31 -1.44952e-15 -0)
(1.06153e-30 -1.08073e-14 -0)
(1.07311e-30 -6.50283e-14 -0)
(-6.19248e-32 -6.21865e-15 0)
(-3.48446e-31 -7.62726e-15 0)
(-2.39745e-30 -2.78027e-14 0)
(-1.18325e-30 -2.24691e-14 0)
(3.68931e-31 9.25319e-15 0)
(-6.09863e-25 -6.4e-12 0)
(-1.69217e-25 8.3862e-12 -0)
(-1.05929e-26 -2.15133e-12 0)
(-2.72565e-28 3.27147e-13 -0)
(-5.62594e-29 -1.89309e-13 0)
(2.54213e-30 -1.04762e-13 -0)
(1.12672e-30 -1.07815e-13 -0)
(4.21252e-30 -1.38922e-13 -0)
(-3.23919e-30 -1.37727e-13 0)
(8.49218e-31 -1.02287e-13 -0)
(3.74348e-30 -9.89979e-14 -0)
(1.13689e-29 -1.10888e-13 -0)
(1.68745e-30 -1.28469e-13 -0)
(-1.19172e-29 -1.21649e-13 0)
(-9.61691e-30 -8.07081e-14 0)
(-4.37749e-30 -4.76368e-14 0)
(-4.30436e-30 -8.05701e-14 0)
(-4.73571e-30 -5.60824e-14 0)
(6.23314e-31 8.6396e-15 0)
(-1.37154e-32 7.01922e-15 -0)
(-8.72693e-26 2.0932e-12 -0)
(-3.37515e-26 -3.70709e-12 0)
(-1.62047e-27 8.48265e-13 -0)
(-8.07978e-29 -1.29917e-13 0)
(-4.29422e-30 6.21745e-14 -0)
(4.1834e-34 2.38198e-15 0)
(1.67949e-30 -1.8081e-14 -0)
(2.80339e-30 -3.11263e-14 -0)
(8.60457e-32 -1.63354e-15 -0)
(4.35892e-33 -5.91203e-17 -0)
(1.38943e-31 -2.6677e-15 -0)
(3.93099e-31 -8.35445e-15 -0)
(-4.59861e-31 -1.46168e-14 0)
(-1.70963e-31 -1.72489e-15 0)
(1.48034e-30 3.03908e-14 0)
(2.32499e-30 3.509e-14 0)
(-4.95708e-31 1.5919e-14 -0)
(3.07198e-31 -3.30561e-15 -0)
(-6.93258e-32 -3.61685e-14 0)
(6.23829e-32 -2.71432e-14 -0)
(-1.84705e-25 3.92604e-12 -0)
(-4.14896e-26 -4.28472e-12 0)
(-2.53707e-27 1.10228e-12 -0)
(-9.93856e-29 -1.78209e-13 0)
(3.51976e-30 1.56178e-13 0)
(9.22269e-30 1.15118e-13 0)
(-4.49074e-30 1.01057e-13 -0)
(-1.36224e-29 1.16128e-13 -0)
(-1.37829e-29 1.13428e-13 -0)
(-1.00463e-29 6.00215e-14 -0)
(-1.14134e-29 6.35397e-14 -0)
(3.76353e-31 3.62712e-14 0)
(-1.46639e-33 6.18118e-15 -0)
(-1.31185e-31 2.55047e-15 -0)
(2.67603e-31 -1.03956e-14 -0)
(-1.62086e-30 -3.08616e-14 0)
(1.18999e-30 1.00649e-13 0)
(-8.90443e-30 6.32345e-14 -0)
(9.59826e-31 -1.22395e-14 -0)
(-3.20913e-31 1.74209e-14 -0)
(-6.49856e-25 -7.36296e-12 0)
(-1.53048e-25 8.18593e-12 -0)
(-8.93044e-27 -1.98296e-12 0)
(-2.68601e-28 3.51517e-13 -0)
(-5.11863e-29 -1.14688e-13 0)
(-1.09988e-30 -9.84613e-15 0)
(2.01703e-31 7.55404e-14 0)
(-1.1284e-30 1.11067e-14 -0)
(2.91433e-30 -2.68857e-14 -0)
(1.24187e-30 -1.19653e-14 -0)
(-5.91127e-31 -5.25164e-14 0)
(-9.11246e-30 -6.0619e-14 0)
(1.47618e-30 1.95923e-14 0)
(-6.3069e-31 1.3831e-14 -0)
(3.80728e-31 -6.04658e-15 -0)
(-1.39645e-30 -9.39349e-14 0)
(-1.18524e-30 -1.87443e-14 0)
(-9.51714e-31 1.38449e-14 -0)
(2.0219e-31 -2.6881e-15 -0)
(1.62471e-30 -3.88128e-14 -0)
(-6.64955e-25 7.57691e-12 -0)
(-1.59973e-25 -8.40236e-12 0)
(-7.94099e-27 1.8557e-12 -0)
(-5.66064e-28 -5.52761e-13 0)
(-5.72084e-30 5.35252e-14 -0)
(-1.60301e-29 -7.36122e-14 0)
(-6.72725e-31 -7.72011e-15 0)
(-1.56003e-31 -6.52333e-15 0)
(5.26587e-30 -4.43711e-14 -0)
(5.58399e-30 -7.49775e-14 -0)
(-6.8491e-30 -7.69594e-14 0)
(4.03916e-31 2.63968e-15 0)
(6.36152e-30 1.01623e-13 0)
(-4.82575e-30 9.64037e-14 -0)
(-5.94249e-30 6.73096e-14 -0)
(-1.63947e-29 9.05525e-14 -0)
(2.09144e-30 -1.15767e-14 -0)
(1.08195e-30 -1.65726e-14 -0)
(1.22655e-32 -8.21332e-16 -0)
(-1.13599e-30 1.99045e-14 -0)
(-3.20708e-25 -5.53842e-12 0)
(-7.01874e-26 5.71569e-12 -0)
(-3.38533e-27 -1.27916e-12 0)
(-2.65347e-28 3.14602e-13 -0)
(-6.15975e-30 -1.44549e-13 0)
(-7.55362e-31 -1.26002e-14 0)
(-5.41328e-30 -3.21042e-14 0)
(2.23389e-30 2.03191e-14 0)
(-2.29468e-31 6.63667e-15 -0)
(-3.57767e-31 -8.21071e-15 0)
(3.32773e-31 7.00112e-15 0)
(5.26302e-31 -1.9907e-14 -0)
(6.37524e-31 -2.60757e-14 -0)
(1.04472e-30 -2.84415e-14 -0)
(4.95476e-31 -4.47008e-14 -0)
(-2.01791e-30 1.53075e-14 -0)
(1.05422e-29 -6.42191e-14 -0)
(5.75276e-31 -1.81276e-14 -0)
(-7.24358e-32 -4.23183e-15 0)
(2.93165e-32 2.77004e-15 0)
(1.18891e-27 -4.22644e-13 -0)
(-2.17843e-29 -4.07757e-14 0)
(-1.49136e-29 6.29646e-14 -0)
(-1.183e-29 1.24007e-13 -0)
(-5.84461e-30 4.80357e-14 -0)
(-1.03474e-30 3.07469e-14 -0)
(3.8725e-30 3.42821e-14 0)
(7.83653e-30 4.73144e-14 0)
(2.09296e-29 1.1505e-13 0)
(1.3325e-29 1.34155e-13 0)
(-1.30166e-29 1.72564e-13 -0)
(-4.15274e-29 1.53201e-13 -0)
(-3.32596e-30 1.31887e-14 -0)
(-7.76223e-31 5.88485e-15 -0)
(-1.89248e-30 4.73351e-14 -0)
(-2.16772e-30 3.43255e-14 -0)
(-6.51058e-30 5.80344e-14 -0)
(-2.51751e-30 2.48288e-14 -0)
(1.01813e-30 -1.13856e-14 -0)
(-9.59029e-32 -7.69607e-15 0)
(-4.53653e-25 6.88676e-12 -0)
(-8.67511e-26 -6.53807e-12 0)
(-4.88774e-27 1.52599e-12 -0)
(-1.23569e-28 -2.75713e-13 0)
(-4.06231e-29 9.11106e-14 -0)
(1.78776e-29 -9.31732e-14 -0)
(7.96152e-30 -1.41577e-13 -0)
(-1.8788e-29 -1.34491e-13 0)
(-3.90485e-30 -1.90973e-14 0)
(-3.0231e-31 -5.0706e-15 0)
(3.42234e-31 -2.15597e-14 -0)
(-2.22405e-31 -5.33718e-14 0)
(9.46254e-32 -3.9009e-15 -0)
(-2.50787e-31 -5.80848e-15 0)
(1.25828e-30 3.71971e-14 0)
(-2.89644e-30 5.01597e-14 -0)
(-7.27964e-30 3.70053e-14 -0)
(6.43514e-30 -4.10544e-14 -0)
(-5.72595e-31 1.0006e-14 -0)
(-6.1224e-32 -4.2981e-15 0)
(-8.17778e-25 -7.53503e-12 0)
(-2.35052e-25 9.92071e-12 -0)
(-1.26157e-26 -2.39967e-12 0)
(-5.21358e-28 3.94175e-13 -0)
(-6.88462e-29 -2.97623e-13 0)
(-1.49932e-30 -5.49857e-14 0)
(6.40998e-31 -2.00473e-14 -0)
(1.34655e-30 -3.10908e-14 -0)
(-6.98236e-31 -8.85708e-14 0)
(-3.39343e-30 -1.16028e-13 0)
(-1.22535e-29 -1.45934e-13 0)
(-1.83756e-29 -1.37817e-13 0)
(-1.11709e-29 -1.04516e-13 0)
(-6.67865e-30 -7.08324e-14 0)
(-1.35919e-31 -6.6135e-14 0)
(7.85323e-31 -1.36545e-14 -0)
(3.82277e-30 -2.88619e-14 -0)
(8.78822e-31 -2.20002e-14 -0)
(-8.24455e-30 -9.41677e-14 0)
(-8.4079e-31 -9.49197e-15 0)
(-2.68761e-25 3.4893e-12 -0)
(-1.14316e-25 -6.64832e-12 0)
(-6.19744e-27 1.53553e-12 -0)
(-4.0733e-28 -3.96876e-13 0)
(-1.1498e-29 1.70908e-13 -0)
(1.04348e-29 8.00122e-14 0)
(-5.28433e-30 9.74132e-14 -0)
(-5.93523e-31 1.94183e-14 -0)
(1.00673e-30 4.45043e-14 0)
(5.29221e-30 7.95905e-14 0)
(4.0441e-30 1.01438e-13 0)
(-2.1435e-29 1.59085e-13 -0)
(-1.74056e-29 8.8927e-14 -0)
(-1.22129e-29 5.79201e-14 -0)
(9.98325e-31 -4.2878e-15 -0)
(7.98168e-30 -4.75158e-14 -0)
(2.12547e-30 -7.40031e-14 -0)
(-2.75395e-31 -9.19514e-15 0)
(3.33458e-30 5.27372e-14 0)
(1.69314e-30 3.78959e-14 0)
(-2.40587e-26 1.14437e-12 -0)
(-7.94868e-27 -1.91124e-12 0)
(-3.89741e-28 4.71256e-13 -0)
(-7.30125e-30 -2.81346e-14 0)
(-3.12359e-31 8.72927e-14 -0)
(-5.81536e-30 8.15456e-14 -0)
(1.35062e-32 -2.29592e-15 -0)
(-3.02744e-30 6.26086e-14 -0)
(1.97249e-32 -2.19487e-16 -0)
(6.31426e-31 -1.36791e-14 -0)
(2.18817e-30 4.66335e-14 0)
(1.88628e-30 6.37134e-14 0)
(-3.59368e-30 7.46968e-14 -0)
(-7.43036e-30 4.2396e-14 -0)
(-1.06233e-29 5.28469e-14 -0)
(2.4579e-30 -1.52071e-14 -0)
(7.16244e-31 -1.46324e-14 -0)
(2.73342e-32 -1.78596e-15 -0)
(9.52457e-33 -3.06359e-16 -0)
(5.30437e-32 -4.33311e-15 -0)
(-4.00873e-25 -4.06519e-12 0)
(-1.76952e-25 8.38775e-12 -0)
(-9.97095e-27 -2.00385e-12 0)
(-4.1739e-28 3.94531e-13 -0)
(-3.34405e-29 -1.53798e-13 0)
(3.90479e-30 -6.29187e-14 -0)
(-2.72764e-30 -8.15021e-14 0)
(2.34646e-30 -3.89832e-14 -0)
(5.75079e-30 -4.84066e-14 -0)
(1.01771e-29 -8.60821e-14 -0)
(8.72182e-30 -1.22615e-13 -0)
(-7.97821e-31 -3.36391e-14 0)
(3.1107e-31 -5.37108e-14 -0)
(-1.76966e-30 -9.45123e-14 0)
(-6.88427e-30 -5.45594e-14 0)
(9.83071e-31 4.42488e-14 0)
(-4.09818e-30 9.05513e-14 -0)
(-4.00296e-30 5.70672e-14 -0)
(4.45988e-31 -6.04085e-15 -0)
(3.45257e-31 -3.54615e-14 -0)
(-1.37161e-25 2.78392e-12 -0)
(-4.42757e-26 -4.18183e-12 0)
(-2.86718e-27 1.11488e-12 -0)
(-4.94317e-29 -9.45133e-14 0)
(-4.76026e-29 1.75432e-13 -0)
(-9.19554e-30 6.25088e-14 -0)
(-5.71964e-30 6.86788e-14 -0)
(-1.48894e-30 7.17768e-14 -0)
(7.44003e-31 6.14768e-14 0)
(-1.20147e-29 1.28621e-13 -0)
(-1.13761e-29 5.99029e-14 -0)
(-2.40351e-30 1.59872e-14 -0)
(-1.01366e-30 1.28749e-14 -0)
(3.72855e-32 -4.63857e-15 -0)
(-2.05004e-30 6.33798e-14 -0)
(1.34799e-31 -1.35158e-15 -0)
(2.42191e-31 -1.28623e-14 -0)
(-6.97193e-31 -2.41342e-14 0)
(-3.46774e-31 7.14433e-15 -0)
(-7.6581e-31 1.79957e-14 -0)
(-2.46362e-25 3.98124e-12 -0)
(-7.24068e-26 -5.75502e-12 0)
(-3.39474e-27 1.141e-12 -0)
(-2.10421e-28 -3.34317e-13 0)
(-2.40939e-30 1.38343e-14 -0)
(2.17069e-30 -4.25296e-14 -0)
(7.20141e-32 -3.616e-15 -0)
(4.37392e-31 -2.93957e-14 -0)
(1.64696e-32 5.50597e-15 0)
(1.03365e-30 -1.47792e-14 -0)
(-3.07185e-31 2.55419e-15 -0)
(6.23186e-30 -6.52681e-14 -0)
(3.17154e-31 -3.2738e-14 -0)
(-2.7567e-30 7.04108e-14 -0)
(-1.94154e-30 1.13081e-14 -0)
(5.99987e-30 -3.94126e-14 -0)
(2.17512e-30 -4.47377e-14 -0)
(-6.90262e-31 -2.86485e-14 0)
(-2.09173e-31 6.30328e-15 -0)
(1.33627e-30 -3.43174e-14 -0)
)
;

boundaryField
{
    movingWall
    {
        type            calculated;
        value           nonuniform List<vector> 
20
(
(0 7.77209e-12 -0)
(0 -7.13399e-12 -0)
(0 8.84347e-13 -0)
(0 -5.90969e-13 -0)
(0 -2.87227e-13 -0)
(0 -2.81878e-13 -0)
(0 -2.25661e-13 -0)
(0 -2.24335e-13 -0)
(0 -1.7213e-13 -0)
(0 -2.09719e-13 -0)
(0 -1.30673e-13 -0)
(0 -1.44285e-13 -0)
(0 -5.00419e-14 -0)
(0 -7.26171e-14 -0)
(0 -7.75098e-14 -0)
(0 -5.67165e-14 -0)
(0 -6.20416e-14 -0)
(0 -1.54345e-15 -0)
(0 6.30328e-15 -0)
(0 -5.16213e-14 -0)
)
;
    }
    fixedWalls
    {
        type            calculated;
        value           nonuniform List<vector> 
60
(
(0 -4.94952e-11 -0)
(0 -2.99938e-12 -0)
(0 3.59114e-11 -0)
(0 -2.58695e-11 -0)
(0 3.57014e-12 -0)
(0 2.42092e-11 -0)
(0 -3.70051e-11 -0)
(0 1.55112e-11 -0)
(0 1.90082e-11 -0)
(0 -3.57107e-11 -0)
(0 3.5809e-11 -0)
(0 -2.41382e-11 -0)
(0 4.74686e-13 -0)
(0 2.79756e-11 -0)
(0 -4.24634e-11 -0)
(0 2.83161e-11 -0)
(0 7.86734e-12 -0)
(0 -3.57582e-11 -0)
(0 1.86234e-11 -0)
(0 2.38036e-11 -0)
(0 -4.82132e-14 -0)
(0 3.86037e-14 -0)
(0 -3.47113e-14 -0)
(0 -1.18934e-14 -0)
(0 -6.69512e-15 -0)
(0 1.59483e-14 -0)
(0 -7.81593e-16 -0)
(0 -2.80244e-14 -0)
(0 1.97366e-14 -0)
(0 -4.38492e-14 -0)
(0 4.27626e-15 -0)
(0 4.23338e-15 -0)
(0 4.98452e-15 -0)
(0 5.69778e-15 -0)
(0 8.32657e-15 -0)
(0 4.49765e-14 -0)
(0 -4.89659e-15 -0)
(0 -3.09995e-14 -0)
(0 1.0083e-14 -0)
(0 -4.26805e-14 -0)
(0 -1.52109e-11 -0)
(0 1.35883e-11 -0)
(0 -2.56059e-12 -0)
(0 7.00375e-13 -0)
(0 4.19053e-14 -0)
(0 1.55507e-13 -0)
(0 1.71095e-13 -0)
(0 1.34522e-13 -0)
(0 1.70472e-13 -0)
(0 9.19684e-14 -0)
(0 1.36183e-13 -0)
(0 3.64528e-14 -0)
(0 1.20864e-13 -0)
(0 3.88087e-14 -0)
(0 5.25963e-15 -0)
(0 -7.65661e-14 -0)
(0 1.86426e-14 -0)
(0 -1.61627e-13 -0)
(0 8.00419e-14 -0)
(0 -1.00921e-13 -0)
)
;
    }
    frontAndBack
    {
        type            empty;
    }
}


// ************************************************************************* //
