/*--------------------------------*- C++ -*----------------------------------*\
| =========                 |                                                 |
| \\      /  F ield         | OpenFOAM: The Open Source CFD Toolbox           |
|  \\    /   O peration     | Version:  2506                                  |
|   \\  /    A nd           | Website:  www.openfoam.com                      |
|    \\/     M anipulation  |                                                 |
\*---------------------------------------------------------------------------*/
FoamFile
{
    version     2.0;
    format      ascii;
    arch        "LSB;label=32;scalar=64";
    class       volScalarField;
    location    "8.625";
    object      QField;
}
// * * * * * * * * * * * * * * * * * * * * * * * * * * * * * * * * * * * * * //

dimensions      [0 0 -2 0 0 0 0];

internalField   nonuniform List<scalar> 
400
(
-1.70846e-23
-6.44563e-24
-1.38144e-25
-3.72164e-26
3.67898e-27
-1.46242e-27
-2.49837e-28
-1.05289e-28
3.88359e-28
-1.70794e-28
-1.60285e-28
4.31302e-28
6.70203e-28
-9.84222e-28
0
-1.3468e-27
0
0
-1.55148e-27
6.56117e-28
-2.78642e-23
-9.31292e-24
-5.6974e-25
-1.08359e-26
-1.10225e-27
2.73334e-28
6.12112e-29
-9.44078e-28
-1.60777e-29
-1.09139e-27
1.12892e-28
0
0
-1.96216e-27
-1.48617e-27
2.65696e-28
-7.50731e-28
2.70649e-28
-1.15317e-27
-1.33942e-27
-2.40148e-23
-9.10211e-24
9.89407e-26
-8.60441e-26
1.85037e-26
-2.76302e-27
-6.68582e-28
1.2801e-27
5.25101e-27
6.34967e-28
-3.95786e-27
-1.32601e-27
-1.11402e-28
9.66111e-28
2.49374e-28
-3.56378e-29
0
6.22233e-28
1.96388e-29
0
-1.65353e-23
-4.37259e-24
-3.01496e-25
2.50652e-26
-7.64346e-27
-1.67677e-28
-2.01548e-27
1.06972e-27
2.62755e-27
2.1232e-27
-3.42315e-28
0
-7.5423e-28
-1.37895e-28
5.09867e-29
-9.27363e-28
-7.30046e-28
-4.06055e-28
0
-5.72012e-28
-1.43787e-23
-3.97826e-24
-2.3431e-25
-7.91221e-27
-3.35262e-28
-7.17426e-28
0
-3.85737e-29
0
-5.84348e-28
3.78601e-28
2.19904e-28
-2.19609e-28
2.70499e-28
0
0
3.65671e-28
3.00873e-28
-1.62625e-28
-7.44668e-28
-1.00157e-23
-4.3287e-24
-4.18142e-26
1.34785e-26
-3.71392e-27
3.79637e-28
0
-1.74654e-28
-4.8407e-28
-2.15933e-29
1.14304e-28
-1.85137e-28
0
0
5.86454e-28
0
-8.9927e-29
-4.17962e-28
-1.25659e-28
0
-5.98254e-24
-5.46603e-24
4.31639e-25
-6.33643e-26
8.88011e-27
-4.1692e-27
-3.25521e-28
4.60372e-28
2.98435e-28
-6.64969e-28
-1.06857e-27
4.45555e-28
2.1737e-27
3.64534e-28
-4.93598e-29
-3.56339e-28
3.55874e-28
-8.6975e-28
-2.75087e-28
2.28598e-28
3.14641e-24
-8.35461e-25
-1.37094e-25
8.86797e-27
0
0
-6.03535e-29
1.08996e-28
0
0
-7.68769e-28
-6.12041e-28
0
-8.09893e-28
-3.03689e-28
2.16432e-28
1.12759e-28
-1.83169e-27
2.45665e-28
1.03417e-30
4.93574e-24
-6.98252e-25
1.03603e-25
2.42802e-27
5.17788e-27
1.21528e-28
1.60533e-27
8.35651e-28
3.91858e-28
3.15035e-28
-1.44541e-27
-9.72471e-28
0
0
-3.02698e-28
1.0182e-28
1.06053e-27
4.89211e-28
0
-2.62489e-28
3.15937e-24
-1.51308e-24
3.34879e-25
-2.07304e-26
2.37394e-27
-2.40498e-27
1.15632e-27
-3.82776e-28
-1.36292e-29
0
-7.67432e-28
-3.92043e-29
0
0
0
3.93078e-28
-1.79179e-27
-2.04727e-28
0
3.17339e-28
5.66579e-24
5.39516e-25
8.75921e-26
5.63309e-26
-4.37393e-27
1.05179e-27
-7.56334e-29
-1.13124e-27
-5.33373e-28
1.1258e-27
1.03659e-27
-9.58227e-28
1.6513e-27
1.22693e-27
4.28873e-28
7.51137e-28
-1.23269e-27
0
0
-1.95172e-28
9.05716e-24
2.15193e-24
1.54991e-25
1.71502e-26
4.777e-27
0
1.35503e-28
-7.68223e-28
0
0
0
-2.49406e-27
-8.8112e-28
3.62252e-29
-5.155e-28
0
5.4259e-28
9.78756e-29
-2.01901e-28
-1.8847e-28
1.26009e-23
2.4371e-24
7.92758e-26
2.29456e-26
2.31333e-27
-2.63708e-27
-1.68976e-27
-4.54473e-28
-1.22497e-27
2.79016e-27
5.01973e-27
2.39544e-27
-3.76684e-28
-7.91766e-28
-2.50961e-28
-5.08578e-30
2.07317e-28
-4.00543e-28
-4.03011e-28
0
9.15869e-24
1.37034e-24
2.68073e-25
3.32649e-27
7.78085e-28
2.27732e-27
3.20207e-27
2.26025e-27
-1.16049e-27
-7.87194e-28
-1.50306e-28
-2.2377e-27
-1.94649e-27
-1.22618e-27
2.73546e-28
6.24898e-28
2.68346e-28
3.78098e-28
-4.63472e-28
-4.12635e-28
-8.47145e-24
-4.37974e-24
3.52522e-25
-5.76257e-26
1.88754e-26
-3.88812e-27
-1.91302e-28
1.08034e-28
-3.95813e-28
7.87634e-28
1.10847e-27
-4.42439e-28
-1.81766e-27
-2.22952e-27
-1.23438e-27
-6.63371e-28
-4.07741e-28
0
1.0451e-27
-4.77404e-28
-2.22938e-23
-7.31481e-24
-2.30423e-25
8.57695e-27
8.55863e-27
-1.17477e-27
1.30901e-27
-2.22023e-28
-5.26153e-28
-1.40241e-28
1.73673e-27
3.19293e-27
6.18955e-28
-5.29496e-28
0
-1.11734e-29
1.29931e-27
-6.67894e-29
-7.9844e-29
2.92487e-28
-2.66216e-23
-7.69175e-24
-4.56829e-25
-2.70617e-26
1.79341e-27
1.87383e-29
-4.75496e-28
3.74983e-28
0
0
-1.01246e-27
5.15174e-28
5.95756e-28
-2.07819e-28
-1.04699e-27
-1.03106e-27
0
-5.42614e-28
-3.71499e-28
1.47492e-28
-2.91101e-23
-9.38072e-24
-2.36452e-26
-3.94077e-26
4.67288e-27
-1.49591e-27
-4.04377e-28
-8.2545e-28
-8.67387e-28
1.31476e-28
8.97016e-28
6.64848e-28
-1.10065e-28
1.07312e-27
1.89344e-29
4.64682e-28
6.694e-28
1.54882e-28
0
2.26503e-28
-2.42045e-23
-7.93794e-24
-1.92601e-25
-3.1176e-26
8.32688e-27
-1.52924e-27
-1.02753e-27
-7.7561e-28
3.9393e-28
2.19021e-27
1.75427e-28
-9.47524e-28
-3.64588e-28
1.56872e-28
-1.92508e-27
-4.72846e-28
-9.11076e-30
-3.3596e-28
-1.10165e-28
-2.46909e-28
-9.19597e-24
-2.61952e-24
-1.85073e-25
1.2061e-26
-4.89624e-27
-1.18998e-28
-2.79714e-28
-3.44693e-29
0
-3.34092e-28
-8.40735e-28
5.99453e-28
1.52681e-28
8.78243e-28
0
-3.49361e-28
2.95113e-28
4.18354e-29
2.21511e-28
-2.53982e-29
)
;

boundaryField
{
    movingWall
    {
        type            calculated;
        value           nonuniform List<scalar> 
20
(
3.948e-24
3.36874e-24
-6.29606e-25
8.02507e-26
-2.60625e-26
3.55654e-27
5.86991e-28
3.47306e-28
-9.78056e-28
-2.73689e-27
-1.64423e-27
1.47321e-27
2.50153e-28
-1.43891e-27
-1.00436e-27
-1.10394e-27
2.55915e-28
0
3.59791e-28
-1.01881e-28
)
;
    }
    fixedWalls
    {
        type            calculated;
        value           nonuniform List<scalar> 
60
(
-9.6737e-23
-1.64436e-22
-1.19402e-22
-8.92183e-23
-7.72628e-23
-5.86597e-23
-3.19989e-23
-5.53069e-24
1.33813e-23
1.54386e-23
2.71655e-23
4.37271e-23
5.64358e-23
3.98851e-23
-4.34125e-23
-1.22281e-22
-1.44955e-22
-1.49418e-22
-1.28989e-22
-5.50725e-23
-5.38469e-28
-1.74993e-27
0
-1.05706e-27
-1.22006e-27
0
3.74536e-28
2.49181e-29
-2.40315e-29
4.5385e-28
-8.51673e-28
-3.0879e-28
0
-6.76062e-28
-9.60376e-28
4.84407e-28
2.4165e-28
1.05559e-28
-4.61383e-28
6.02686e-29
6.99419e-24
5.8827e-24
-1.03983e-24
3.88981e-26
-2.41106e-26
2.26516e-27
-1.76326e-27
1.72506e-28
-1.27257e-27
2.79829e-28
3.93916e-28
-3.53322e-28
-1.64709e-27
-3.8538e-27
0
-3.55277e-27
0
-2.84371e-27
-3.72902e-27
1.07498e-27
)
;
    }
    frontAndBack
    {
        type            empty;
    }
}


// ************************************************************************* //
