/*--------------------------------*- C++ -*----------------------------------*\
| =========                 |                                                 |
| \\      /  F ield         | OpenFOAM: The Open Source CFD Toolbox           |
|  \\    /   O peration     | Version:  2506                                  |
|   \\  /    A nd           | Website:  www.openfoam.com                      |
|    \\/     M anipulation  |                                                 |
\*---------------------------------------------------------------------------*/
FoamFile
{
    version     2.0;
    format      ascii;
    arch        "LSB;label=32;scalar=64";
    class       volScalarField;
    location    "8.625";
    object      Uy;
}
// * * * * * * * * * * * * * * * * * * * * * * * * * * * * * * * * * * * * * //

dimensions      [0 1 -1 0 0 0 0];

internalField   nonuniform List<scalar> 
400
(
1.24958e-13
-2.70281e-14
6.39384e-15
-1.42216e-15
2.78271e-16
-6.48536e-17
5.54698e-17
5.52884e-19
4.25215e-17
7.21924e-17
1.10156e-17
4.26251e-17
9.05767e-17
1.66256e-16
1.46579e-16
1.13659e-16
2.40622e-17
-7.27667e-17
-1.36025e-16
1.49924e-17
8.58264e-15
-1.56208e-15
4.18014e-16
-7.71383e-17
3.0895e-18
-2.90831e-17
3.67037e-17
-2.45665e-17
-3.86475e-17
-4.75728e-19
2.8132e-17
4.11741e-17
3.86455e-17
7.13036e-17
2.81121e-17
1.22647e-17
-2.09001e-17
-5.43346e-17
-1.06293e-16
-3.90161e-17
-9.60804e-14
2.00994e-14
-4.90362e-15
9.15888e-16
-3.68666e-16
-4.58931e-17
1.05907e-17
4.74514e-17
-8.38638e-17
-2.29303e-16
-1.61951e-16
-6.13479e-17
-3.20041e-17
-7.50476e-17
-1.27571e-16
-1.56082e-16
-1.14423e-16
-1.83185e-18
5.79036e-18
-8.67782e-17
7.04335e-14
-1.57695e-14
3.42485e-15
-9.30217e-16
5.01796e-17
-8.82804e-17
5.33889e-17
9.06632e-17
-4.52756e-17
-2.32469e-16
-2.90644e-16
-1.88143e-16
-4.35536e-17
1.57279e-18
1.71435e-17
-1.7238e-17
-6.92302e-17
-6.51982e-17
-1.13539e-16
-9.74962e-17
-1.05516e-14
2.5419e-15
-7.88477e-16
3.93053e-17
-7.45387e-17
3.13113e-18
-1.72161e-17
-1.64539e-17
-8.37903e-17
-3.11498e-17
-7.99846e-17
-1.70829e-16
-1.2055e-16
-6.52249e-17
4.37636e-18
5.81732e-17
2.02466e-17
-7.67358e-17
-9.07559e-17
-1.67378e-17
-6.06585e-14
1.24134e-14
-3.03226e-15
5.60994e-16
-1.09684e-16
6.1758e-17
2.98026e-18
-5.67164e-17
-6.14555e-17
-2.06884e-17
-6.94221e-17
-1.12719e-16
-1.24575e-16
-9.82238e-17
-1.65022e-17
9.95791e-18
4.56843e-17
8.62306e-17
5.26613e-17
3.98707e-17
9.52911e-14
-2.0178e-14
4.9239e-15
-8.33157e-16
2.97182e-16
-2.42657e-17
-1.04506e-17
-3.03229e-17
2.35189e-17
-8.30231e-18
-3.78137e-17
-1.02526e-16
-1.31351e-17
9.79632e-17
1.19157e-16
9.1893e-17
5.34238e-17
8.4442e-17
7.21462e-17
-1.95398e-18
-4.16918e-14
9.10457e-15
-1.91034e-15
6.2192e-16
-6.90673e-17
1.75627e-19
-9.28871e-17
-9.0065e-17
-5.26745e-17
-7.37297e-17
-5.20833e-17
-4.70526e-17
3.14612e-17
9.9115e-17
4.87101e-17
6.62578e-17
-3.11393e-17
-9.29325e-17
1.91675e-18
-2.29829e-18
-4.70462e-14
9.68315e-15
-2.30166e-15
5.5769e-16
2.25369e-17
8.01153e-17
-4.44376e-17
-1.17305e-16
-1.21513e-16
-1.67378e-16
-1.79627e-16
1.03761e-17
-2.37235e-19
-5.14357e-17
-2.57419e-17
5.25204e-17
1.18232e-17
-1.40816e-16
-7.84203e-17
-1.84211e-17
8.82602e-14
-1.86964e-14
4.50358e-15
-7.64121e-16
4.4631e-16
1.11707e-16
2.67013e-18
-1.01596e-16
-1.08397e-16
-1.0379e-16
1.1256e-17
1.50324e-16
7.53446e-17
-4.55996e-17
-6.29658e-17
1.48662e-17
6.32318e-17
-6.87412e-17
-7.5217e-17
-4.18603e-17
-8.77608e-14
1.9039e-14
-4.27923e-15
1.02407e-15
-1.06881e-16
2.17764e-16
8.71393e-17
2.39146e-17
-1.18678e-16
-7.44755e-17
8.89963e-17
1.53017e-16
6.25995e-17
-5.00577e-17
-8.8286e-17
-1.81052e-16
-1.80659e-16
-6.52853e-17
-1.49336e-17
-5.7072e-17
5.79061e-14
-1.22798e-14
2.64653e-15
-8.43439e-16
4.26136e-17
5.99483e-17
1.68616e-16
1.0994e-16
-3.45757e-17
4.35732e-17
4.75314e-17
-2.6438e-17
-2.4449e-17
-3.6732e-17
-1.10843e-17
-1.31825e-16
-1.64159e-16
-3.17348e-17
1.71169e-17
1.05834e-17
-2.81302e-15
5.34248e-16
-2.36856e-16
-9.53977e-17
-1.21672e-16
-3.36535e-17
1.1296e-16
1.65627e-16
1.81917e-16
9.93253e-17
-7.54302e-17
-2.71066e-16
-2.52182e-16
-1.31902e-16
-3.99804e-17
-6.31518e-17
-1.12185e-16
-1.01395e-16
-8.9422e-17
1.24613e-17
-6.58732e-14
1.32686e-14
-3.203e-15
4.4818e-16
-4.45865e-16
-1.91875e-16
-5.62344e-17
1.39697e-16
2.04471e-16
5.96203e-17
-1.58738e-17
4.16709e-18
-2.42573e-17
4.31761e-17
3.38275e-17
-5.77444e-17
-1.96719e-16
-1.56747e-16
-5.72254e-17
1.42444e-17
1.0853e-13
-2.36931e-14
5.25727e-15
-1.32266e-15
2.3132e-16
2.72675e-17
-3.19743e-17
-4.33103e-17
7.88336e-18
2.92465e-17
8.39661e-17
1.33334e-16
1.06882e-16
9.4288e-17
2.05518e-18
-5.7514e-17
-1.32451e-16
-3.9946e-17
8.75518e-17
8.85791e-17
-7.70244e-14
1.71948e-14
-4.03603e-15
1.02634e-15
-6.72758e-17
1.30415e-16
-5.42465e-17
-3.05651e-17
2.2621e-17
6.6493e-17
3.98675e-17
-1.34739e-16
-1.95729e-16
-2.10857e-16
-2.32829e-16
-1.67979e-16
-2.87214e-17
2.99501e-17
6.32301e-17
4.46787e-17
-2.10236e-14
4.15892e-15
-8.27025e-16
2.59511e-16
-3.5783e-18
-7.13142e-17
-5.8827e-18
-4.83549e-17
-8.9868e-17
-4.61601e-17
4.69227e-17
2.96057e-17
-4.81103e-17
-1.75261e-16
-2.0102e-16
-1.61629e-16
-4.89492e-17
-1.53051e-17
-3.10896e-17
-1.22415e-17
9.86112e-14
-2.10965e-14
4.97589e-15
-1.05794e-15
2.17431e-16
-6.20608e-17
3.34671e-17
-6.01915e-17
-1.18802e-16
-1.18226e-16
-7.1132e-17
2.37171e-17
-5.79157e-18
1.87241e-17
1.26179e-16
2.22169e-17
-4.52581e-17
-7.01446e-17
-7.38287e-17
-9.7361e-18
-4.92689e-14
1.05876e-14
-2.57173e-15
5.23013e-16
-2.71344e-16
-1.47108e-16
-8.3281e-17
-2.07441e-17
1.21022e-17
-9.34114e-17
-1.89909e-16
-1.5034e-16
-7.87311e-17
-8.03814e-18
-3.23453e-17
-9.97346e-17
-1.88296e-17
2.88882e-17
-4.85383e-17
-4.25551e-17
-6.18807e-14
1.25815e-14
-2.97523e-15
6.29404e-16
-1.7416e-16
-5.10395e-17
-1.99154e-17
-1.48794e-17
2.99122e-18
-6.99391e-17
-1.20267e-16
-9.5481e-17
-9.68763e-18
-3.91516e-17
-1.71695e-16
-1.52232e-16
-4.86194e-17
2.40942e-17
-3.31848e-17
-3.89386e-17
)
;

boundaryField
{
    movingWall
    {
        type            calculated;
        value           uniform -0;
    }
    fixedWalls
    {
        type            calculated;
        value           uniform -0;
    }
    frontAndBack
    {
        type            empty;
    }
}


// ************************************************************************* //
