/*--------------------------------*- C++ -*----------------------------------*\
| =========                 |                                                 |
| \\      /  F ield         | OpenFOAM: The Open Source CFD Toolbox           |
|  \\    /   O peration     | Version:  2506                                  |
|   \\  /    A nd           | Website:  www.openfoam.com                      |
|    \\/     M anipulation  |                                                 |
\*---------------------------------------------------------------------------*/
FoamFile
{
    version     2.0;
    format      ascii;
    arch        "LSB;label=32;scalar=64";
    class       volScalarField;
    location    "8.625";
    object      zeroGradient(epsilon);
}
// * * * * * * * * * * * * * * * * * * * * * * * * * * * * * * * * * * * * * //

dimensions      [0 2 -3 0 0 0 0];

internalField   nonuniform List<scalar> 
400
(
1.00884e-06
1.00884e-06
1.00884e-06
1.00884e-06
1.00884e-06
1.00884e-06
1.00884e-06
1.00884e-06
1.00883e-06
1.00884e-06
1.00883e-06
1.00883e-06
1.00883e-06
1.00883e-06
1.00883e-06
1.00883e-06
1.00883e-06
1.00883e-06
1.00883e-06
1.00883e-06
1.03478e-06
1.02333e-06
1.0243e-06
1.0247e-06
1.02551e-06
1.02592e-06
1.02673e-06
1.02715e-06
1.02796e-06
1.0284e-06
1.0292e-06
1.02965e-06
1.03046e-06
1.03092e-06
1.03172e-06
1.0322e-06
1.033e-06
1.03349e-06
1.03389e-06
1.03454e-06
1.07644e-06
1.06417e-06
1.06523e-06
1.06567e-06
1.06654e-06
1.06698e-06
1.06786e-06
1.06831e-06
1.06919e-06
1.06965e-06
1.07052e-06
1.071e-06
1.07186e-06
1.07235e-06
1.07321e-06
1.07371e-06
1.07457e-06
1.07508e-06
1.07551e-06
1.07619e-06
1.12116e-06
1.1082e-06
1.10932e-06
1.10978e-06
1.11071e-06
1.11118e-06
1.1121e-06
1.11258e-06
1.1135e-06
1.11399e-06
1.11491e-06
1.11541e-06
1.11632e-06
1.11684e-06
1.11775e-06
1.11827e-06
1.11918e-06
1.11972e-06
1.12017e-06
1.12089e-06
1.15962e-06
1.14606e-06
1.14723e-06
1.14772e-06
1.14869e-06
1.14917e-06
1.15014e-06
1.15064e-06
1.15161e-06
1.15212e-06
1.15308e-06
1.1536e-06
1.15456e-06
1.1551e-06
1.15604e-06
1.1566e-06
1.15754e-06
1.15811e-06
1.15858e-06
1.15934e-06
1.18824e-06
1.17422e-06
1.17544e-06
1.17593e-06
1.17693e-06
1.17744e-06
1.17844e-06
1.17895e-06
1.17995e-06
1.18048e-06
1.18147e-06
1.18201e-06
1.183e-06
1.18356e-06
1.18454e-06
1.18511e-06
1.18609e-06
1.18667e-06
1.18716e-06
1.18794e-06
1.20762e-06
1.19329e-06
1.19453e-06
1.19504e-06
1.19606e-06
1.19657e-06
1.1976e-06
1.19812e-06
1.19915e-06
1.19968e-06
1.2007e-06
1.20125e-06
1.20226e-06
1.20283e-06
1.20383e-06
1.20442e-06
1.20542e-06
1.20601e-06
1.20651e-06
1.20731e-06
1.22013e-06
1.2056e-06
1.20685e-06
1.20737e-06
1.20841e-06
1.20893e-06
1.20997e-06
1.2105e-06
1.21154e-06
1.21208e-06
1.21311e-06
1.21367e-06
1.2147e-06
1.21527e-06
1.21629e-06
1.21688e-06
1.21789e-06
1.2185e-06
1.21901e-06
1.21982e-06
1.22825e-06
1.21359e-06
1.21486e-06
1.21538e-06
1.21642e-06
1.21695e-06
1.218e-06
1.21853e-06
1.21958e-06
1.22013e-06
1.22117e-06
1.22174e-06
1.22277e-06
1.22335e-06
1.22438e-06
1.22497e-06
1.226e-06
1.22661e-06
1.22712e-06
1.22793e-06
1.23389e-06
1.21914e-06
1.22041e-06
1.22094e-06
1.22199e-06
1.22252e-06
1.22357e-06
1.22411e-06
1.22516e-06
1.22572e-06
1.22676e-06
1.22733e-06
1.22837e-06
1.22896e-06
1.22999e-06
1.23059e-06
1.23162e-06
1.23223e-06
1.23275e-06
1.23357e-06
1.2383e-06
1.22348e-06
1.22476e-06
1.22528e-06
1.22634e-06
1.22687e-06
1.22794e-06
1.22848e-06
1.22953e-06
1.23009e-06
1.23114e-06
1.23171e-06
1.23276e-06
1.23335e-06
1.23438e-06
1.23499e-06
1.23602e-06
1.23664e-06
1.23715e-06
1.23798e-06
1.24225e-06
1.22736e-06
1.22865e-06
1.22918e-06
1.23024e-06
1.23077e-06
1.23184e-06
1.23238e-06
1.23344e-06
1.234e-06
1.23506e-06
1.23563e-06
1.23668e-06
1.23727e-06
1.23831e-06
1.23892e-06
1.23996e-06
1.24058e-06
1.2411e-06
1.24193e-06
1.24617e-06
1.23122e-06
1.23251e-06
1.23304e-06
1.23411e-06
1.23465e-06
1.23572e-06
1.23626e-06
1.23733e-06
1.23789e-06
1.23895e-06
1.23953e-06
1.24058e-06
1.24117e-06
1.24222e-06
1.24283e-06
1.24387e-06
1.24449e-06
1.24501e-06
1.24585e-06
1.25032e-06
1.2353e-06
1.2366e-06
1.23713e-06
1.2382e-06
1.23874e-06
1.23981e-06
1.24036e-06
1.24143e-06
1.242e-06
1.24306e-06
1.24364e-06
1.2447e-06
1.24529e-06
1.24635e-06
1.24696e-06
1.248e-06
1.24863e-06
1.24915e-06
1.24999e-06
1.25479e-06
1.2397e-06
1.241e-06
1.24153e-06
1.24261e-06
1.24315e-06
1.24423e-06
1.24478e-06
1.24586e-06
1.24643e-06
1.24749e-06
1.24808e-06
1.24914e-06
1.24974e-06
1.25079e-06
1.25141e-06
1.25246e-06
1.25309e-06
1.25362e-06
1.25446e-06
1.25953e-06
1.24437e-06
1.24568e-06
1.24622e-06
1.2473e-06
1.24784e-06
1.24893e-06
1.24948e-06
1.25056e-06
1.25113e-06
1.25221e-06
1.25279e-06
1.25386e-06
1.25446e-06
1.25552e-06
1.25614e-06
1.2572e-06
1.25783e-06
1.25836e-06
1.2592e-06
1.26434e-06
1.24909e-06
1.25041e-06
1.25095e-06
1.25204e-06
1.25258e-06
1.25367e-06
1.25423e-06
1.25532e-06
1.25589e-06
1.25697e-06
1.25756e-06
1.25863e-06
1.25924e-06
1.2603e-06
1.26092e-06
1.26199e-06
1.26262e-06
1.26315e-06
1.264e-06
1.26875e-06
1.25345e-06
1.25477e-06
1.25531e-06
1.2564e-06
1.25695e-06
1.25805e-06
1.2586e-06
1.2597e-06
1.26027e-06
1.26135e-06
1.26195e-06
1.26302e-06
1.26363e-06
1.2647e-06
1.26533e-06
1.26639e-06
1.26703e-06
1.26757e-06
1.26842e-06
1.2722e-06
1.25713e-06
1.25841e-06
1.25893e-06
1.26e-06
1.26053e-06
1.2616e-06
1.26215e-06
1.26321e-06
1.26378e-06
1.26485e-06
1.26544e-06
1.26649e-06
1.26711e-06
1.26816e-06
1.26879e-06
1.26984e-06
1.27049e-06
1.27102e-06
1.27187e-06
1.27379e-06
1.27379e-06
1.27379e-06
1.27379e-06
1.27379e-06
1.27379e-06
1.27379e-06
1.27379e-06
1.27379e-06
1.27379e-06
1.27379e-06
1.27379e-06
1.27379e-06
1.27379e-06
1.27379e-06
1.27379e-06
1.27379e-06
1.27379e-06
1.27379e-06
1.27379e-06
)
;

boundaryField
{
    movingWall
    {
        type            zeroGradient;
    }
    fixedWalls
    {
        type            zeroGradient;
    }
    frontAndBack
    {
        type            empty;
    }
}


// ************************************************************************* //
