# Histogram   
# Time        	binMidPoints  	dataCounts    	dataValues    
5.000000e-01	9.900000e+00	0	0.000000e+00
5.000000e-01	9.700000e+00	0	0.000000e+00
5.000000e-01	9.500000e+00	0	0.000000e+00
5.000000e-01	9.300000e+00	0	0.000000e+00
5.000000e-01	9.100000e+00	0	0.000000e+00
5.000000e-01	8.900000e+00	0	0.000000e+00
5.000000e-01	8.700000e+00	0	0.000000e+00
5.000000e-01	8.500000e+00	0	0.000000e+00
5.000000e-01	8.300000e+00	0	0.000000e+00
5.000000e-01	8.100000e+00	0	0.000000e+00
5.000000e-01	7.900000e+00	0	0.000000e+00
5.000000e-01	7.700000e+00	0	0.000000e+00
5.000000e-01	7.500000e+00	0	0.000000e+00
5.000000e-01	7.300000e+00	0	0.000000e+00
5.000000e-01	7.100000e+00	0	0.000000e+00
5.000000e-01	6.900000e+00	0	0.000000e+00
5.000000e-01	6.700000e+00	0	0.000000e+00
5.000000e-01	6.500000e+00	0	0.000000e+00
5.000000e-01	6.300000e+00	0	0.000000e+00
5.000000e-01	6.100000e+00	0	0.000000e+00
5.000000e-01	5.900000e+00	0	0.000000e+00
5.000000e-01	5.700000e+00	0	0.000000e+00
5.000000e-01	5.500000e+00	0	0.000000e+00
5.000000e-01	5.300000e+00	0	0.000000e+00
5.000000e-01	5.100000e+00	0	0.000000e+00
5.000000e-01	4.900000e+00	0	0.000000e+00
5.000000e-01	4.700000e+00	0	0.000000e+00
5.000000e-01	4.500000e+00	0	0.000000e+00
5.000000e-01	4.300000e+00	0	0.000000e+00
5.000000e-01	4.100000e+00	0	0.000000e+00
5.000000e-01	3.900000e+00	0	0.000000e+00
5.000000e-01	3.700000e+00	0	0.000000e+00
5.000000e-01	3.500000e+00	0	0.000000e+00
5.000000e-01	3.300000e+00	0	0.000000e+00
5.000000e-01	3.100000e+00	0	0.000000e+00
5.000000e-01	2.900000e+00	0	0.000000e+00
5.000000e-01	2.700000e+00	0	0.000000e+00
5.000000e-01	2.500000e+00	0	0.000000e+00
5.000000e-01	2.300000e+00	0	0.000000e+00
5.000000e-01	2.100000e+00	0	0.000000e+00
5.000000e-01	1.900000e+00	0	0.000000e+00
5.000000e-01	1.700000e+00	0	0.000000e+00
5.000000e-01	1.500000e+00	0	0.000000e+00
5.000000e-01	1.300000e+00	0	0.000000e+00
5.000000e-01	1.100000e+00	0	0.000000e+00
5.000000e-01	9.000000e-01	0	0.000000e+00
5.000000e-01	7.000000e-01	0	0.000000e+00
5.000000e-01	5.000000e-01	0	0.000000e+00
5.000000e-01	3.000000e-01	0	0.000000e+00
5.000000e-01	1.000000e-01	227	5.675000e-01
5.000000e-01	1.000000e-01	173	4.325000e-01
5.000000e-01	3.000000e-01	0	0.000000e+00
5.000000e-01	5.000000e-01	0	0.000000e+00
5.000000e-01	7.000000e-01	0	0.000000e+00
5.000000e-01	9.000000e-01	0	0.000000e+00
5.000000e-01	1.100000e+00	0	0.000000e+00
5.000000e-01	1.300000e+00	0	0.000000e+00
5.000000e-01	1.500000e+00	0	0.000000e+00
5.000000e-01	1.700000e+00	0	0.000000e+00
5.000000e-01	1.900000e+00	0	0.000000e+00
5.000000e-01	2.100000e+00	0	0.000000e+00
5.000000e-01	2.300000e+00	0	0.000000e+00
5.000000e-01	2.500000e+00	0	0.000000e+00
5.000000e-01	2.700000e+00	0	0.000000e+00
5.000000e-01	2.900000e+00	0	0.000000e+00
5.000000e-01	3.100000e+00	0	0.000000e+00
5.000000e-01	3.300000e+00	0	0.000000e+00
5.000000e-01	3.500000e+00	0	0.000000e+00
5.000000e-01	3.700000e+00	0	0.000000e+00
5.000000e-01	3.900000e+00	0	0.000000e+00
5.000000e-01	4.100000e+00	0	0.000000e+00
5.000000e-01	4.300000e+00	0	0.000000e+00
5.000000e-01	4.500000e+00	0	0.000000e+00
5.000000e-01	4.700000e+00	0	0.000000e+00
5.000000e-01	4.900000e+00	0	0.000000e+00
5.000000e-01	5.100000e+00	0	0.000000e+00
5.000000e-01	5.300000e+00	0	0.000000e+00
5.000000e-01	5.500000e+00	0	0.000000e+00
5.000000e-01	5.700000e+00	0	0.000000e+00
5.000000e-01	5.900000e+00	0	0.000000e+00
5.000000e-01	6.100000e+00	0	0.000000e+00
5.000000e-01	6.300000e+00	0	0.000000e+00
5.000000e-01	6.500000e+00	0	0.000000e+00
5.000000e-01	6.700000e+00	0	0.000000e+00
5.000000e-01	6.900000e+00	0	0.000000e+00
5.000000e-01	7.100000e+00	0	0.000000e+00
5.000000e-01	7.300000e+00	0	0.000000e+00
5.000000e-01	7.500000e+00	0	0.000000e+00
5.000000e-01	7.700000e+00	0	0.000000e+00
5.000000e-01	7.900000e+00	0	0.000000e+00
5.000000e-01	8.100000e+00	0	0.000000e+00
5.000000e-01	8.300000e+00	0	0.000000e+00
5.000000e-01	8.500000e+00	0	0.000000e+00
5.000000e-01	8.700000e+00	0	0.000000e+00
5.000000e-01	8.900000e+00	0	0.000000e+00
5.000000e-01	9.100000e+00	0	0.000000e+00
5.000000e-01	9.300000e+00	0	0.000000e+00
5.000000e-01	9.500000e+00	0	0.000000e+00
5.000000e-01	9.700000e+00	0	0.000000e+00
5.000000e-01	9.900000e+00	0	0.000000e+00
1.000000e+00	9.900000e+00	0	0.000000e+00
1.000000e+00	9.700000e+00	0	0.000000e+00
1.000000e+00	9.500000e+00	0	0.000000e+00
1.000000e+00	9.300000e+00	0	0.000000e+00
1.000000e+00	9.100000e+00	0	0.000000e+00
1.000000e+00	8.900000e+00	0	0.000000e+00
1.000000e+00	8.700000e+00	0	0.000000e+00
1.000000e+00	8.500000e+00	0	0.000000e+00
1.000000e+00	8.300000e+00	0	0.000000e+00
1.000000e+00	8.100000e+00	0	0.000000e+00
1.000000e+00	7.900000e+00	0	0.000000e+00
1.000000e+00	7.700000e+00	0	0.000000e+00
1.000000e+00	7.500000e+00	0	0.000000e+00
1.000000e+00	7.300000e+00	0	0.000000e+00
1.000000e+00	7.100000e+00	0	0.000000e+00
1.000000e+00	6.900000e+00	0	0.000000e+00
1.000000e+00	6.700000e+00	0	0.000000e+00
1.000000e+00	6.500000e+00	0	0.000000e+00
1.000000e+00	6.300000e+00	0	0.000000e+00
1.000000e+00	6.100000e+00	0	0.000000e+00
1.000000e+00	5.900000e+00	0	0.000000e+00
1.000000e+00	5.700000e+00	0	0.000000e+00
1.000000e+00	5.500000e+00	0	0.000000e+00
1.000000e+00	5.300000e+00	0	0.000000e+00
1.000000e+00	5.100000e+00	0	0.000000e+00
1.000000e+00	4.900000e+00	0	0.000000e+00
1.000000e+00	4.700000e+00	0	0.000000e+00
1.000000e+00	4.500000e+00	0	0.000000e+00
1.000000e+00	4.300000e+00	0	0.000000e+00
1.000000e+00	4.100000e+00	0	0.000000e+00
1.000000e+00	3.900000e+00	0	0.000000e+00
1.000000e+00	3.700000e+00	0	0.000000e+00
1.000000e+00	3.500000e+00	0	0.000000e+00
1.000000e+00	3.300000e+00	0	0.000000e+00
1.000000e+00	3.100000e+00	0	0.000000e+00
1.000000e+00	2.900000e+00	0	0.000000e+00
1.000000e+00	2.700000e+00	0	0.000000e+00
1.000000e+00	2.500000e+00	0	0.000000e+00
1.000000e+00	2.300000e+00	0	0.000000e+00
1.000000e+00	2.100000e+00	0	0.000000e+00
1.000000e+00	1.900000e+00	0	0.000000e+00
1.000000e+00	1.700000e+00	0	0.000000e+00
1.000000e+00	1.500000e+00	0	0.000000e+00
1.000000e+00	1.300000e+00	0	0.000000e+00
1.000000e+00	1.100000e+00	0	0.000000e+00
1.000000e+00	9.000000e-01	0	0.000000e+00
1.000000e+00	7.000000e-01	0	0.000000e+00
1.000000e+00	5.000000e-01	0	0.000000e+00
1.000000e+00	3.000000e-01	0	0.000000e+00
1.000000e+00	1.000000e-01	264	6.600000e-01
1.000000e+00	1.000000e-01	136	3.400000e-01
1.000000e+00	3.000000e-01	0	0.000000e+00
1.000000e+00	5.000000e-01	0	0.000000e+00
1.000000e+00	7.000000e-01	0	0.000000e+00
1.000000e+00	9.000000e-01	0	0.000000e+00
1.000000e+00	1.100000e+00	0	0.000000e+00
1.000000e+00	1.300000e+00	0	0.000000e+00
1.000000e+00	1.500000e+00	0	0.000000e+00
1.000000e+00	1.700000e+00	0	0.000000e+00
1.000000e+00	1.900000e+00	0	0.000000e+00
1.000000e+00	2.100000e+00	0	0.000000e+00
1.000000e+00	2.300000e+00	0	0.000000e+00
1.000000e+00	2.500000e+00	0	0.000000e+00
1.000000e+00	2.700000e+00	0	0.000000e+00
1.000000e+00	2.900000e+00	0	0.000000e+00
1.000000e+00	3.100000e+00	0	0.000000e+00
1.000000e+00	3.300000e+00	0	0.000000e+00
1.000000e+00	3.500000e+00	0	0.000000e+00
1.000000e+00	3.700000e+00	0	0.000000e+00
1.000000e+00	3.900000e+00	0	0.000000e+00
1.000000e+00	4.100000e+00	0	0.000000e+00
1.000000e+00	4.300000e+00	0	0.000000e+00
1.000000e+00	4.500000e+00	0	0.000000e+00
1.000000e+00	4.700000e+00	0	0.000000e+00
1.000000e+00	4.900000e+00	0	0.000000e+00
1.000000e+00	5.100000e+00	0	0.000000e+00
1.000000e+00	5.300000e+00	0	0.000000e+00
1.000000e+00	5.500000e+00	0	0.000000e+00
1.000000e+00	5.700000e+00	0	0.000000e+00
1.000000e+00	5.900000e+00	0	0.000000e+00
1.000000e+00	6.100000e+00	0	0.000000e+00
1.000000e+00	6.300000e+00	0	0.000000e+00
1.000000e+00	6.500000e+00	0	0.000000e+00
1.000000e+00	6.700000e+00	0	0.000000e+00
1.000000e+00	6.900000e+00	0	0.000000e+00
1.000000e+00	7.100000e+00	0	0.000000e+00
1.000000e+00	7.300000e+00	0	0.000000e+00
1.000000e+00	7.500000e+00	0	0.000000e+00
1.000000e+00	7.700000e+00	0	0.000000e+00
1.000000e+00	7.900000e+00	0	0.000000e+00
1.000000e+00	8.100000e+00	0	0.000000e+00
1.000000e+00	8.300000e+00	0	0.000000e+00
1.000000e+00	8.500000e+00	0	0.000000e+00
1.000000e+00	8.700000e+00	0	0.000000e+00
1.000000e+00	8.900000e+00	0	0.000000e+00
1.000000e+00	9.100000e+00	0	0.000000e+00
1.000000e+00	9.300000e+00	0	0.000000e+00
1.000000e+00	9.500000e+00	0	0.000000e+00
1.000000e+00	9.700000e+00	0	0.000000e+00
1.000000e+00	9.900000e+00	0	0.000000e+00
1.500000e+00	9.900000e+00	0	0.000000e+00
1.500000e+00	9.700000e+00	0	0.000000e+00
1.500000e+00	9.500000e+00	0	0.000000e+00
1.500000e+00	9.300000e+00	0	0.000000e+00
1.500000e+00	9.100000e+00	0	0.000000e+00
1.500000e+00	8.900000e+00	0	0.000000e+00
1.500000e+00	8.700000e+00	0	0.000000e+00
1.500000e+00	8.500000e+00	0	0.000000e+00
1.500000e+00	8.300000e+00	0	0.000000e+00
1.500000e+00	8.100000e+00	0	0.000000e+00
1.500000e+00	7.900000e+00	0	0.000000e+00
1.500000e+00	7.700000e+00	0	0.000000e+00
1.500000e+00	7.500000e+00	0	0.000000e+00
1.500000e+00	7.300000e+00	0	0.000000e+00
1.500000e+00	7.100000e+00	0	0.000000e+00
1.500000e+00	6.900000e+00	0	0.000000e+00
1.500000e+00	6.700000e+00	0	0.000000e+00
1.500000e+00	6.500000e+00	0	0.000000e+00
1.500000e+00	6.300000e+00	0	0.000000e+00
1.500000e+00	6.100000e+00	0	0.000000e+00
1.500000e+00	5.900000e+00	0	0.000000e+00
1.500000e+00	5.700000e+00	0	0.000000e+00
1.500000e+00	5.500000e+00	0	0.000000e+00
1.500000e+00	5.300000e+00	0	0.000000e+00
1.500000e+00	5.100000e+00	0	0.000000e+00
1.500000e+00	4.900000e+00	0	0.000000e+00
1.500000e+00	4.700000e+00	0	0.000000e+00
1.500000e+00	4.500000e+00	0	0.000000e+00
1.500000e+00	4.300000e+00	0	0.000000e+00
1.500000e+00	4.100000e+00	0	0.000000e+00
1.500000e+00	3.900000e+00	0	0.000000e+00
1.500000e+00	3.700000e+00	0	0.000000e+00
1.500000e+00	3.500000e+00	0	0.000000e+00
1.500000e+00	3.300000e+00	0	0.000000e+00
1.500000e+00	3.100000e+00	0	0.000000e+00
1.500000e+00	2.900000e+00	0	0.000000e+00
1.500000e+00	2.700000e+00	0	0.000000e+00
1.500000e+00	2.500000e+00	0	0.000000e+00
1.500000e+00	2.300000e+00	0	0.000000e+00
1.500000e+00	2.100000e+00	0	0.000000e+00
1.500000e+00	1.900000e+00	0	0.000000e+00
1.500000e+00	1.700000e+00	0	0.000000e+00
1.500000e+00	1.500000e+00	0	0.000000e+00
1.500000e+00	1.300000e+00	0	0.000000e+00
1.500000e+00	1.100000e+00	0	0.000000e+00
1.500000e+00	9.000000e-01	0	0.000000e+00
1.500000e+00	7.000000e-01	0	0.000000e+00
1.500000e+00	5.000000e-01	0	0.000000e+00
1.500000e+00	3.000000e-01	0	0.000000e+00
1.500000e+00	1.000000e-01	306	7.650000e-01
1.500000e+00	1.000000e-01	94	2.350000e-01
1.500000e+00	3.000000e-01	0	0.000000e+00
1.500000e+00	5.000000e-01	0	0.000000e+00
1.500000e+00	7.000000e-01	0	0.000000e+00
1.500000e+00	9.000000e-01	0	0.000000e+00
1.500000e+00	1.100000e+00	0	0.000000e+00
1.500000e+00	1.300000e+00	0	0.000000e+00
1.500000e+00	1.500000e+00	0	0.000000e+00
1.500000e+00	1.700000e+00	0	0.000000e+00
1.500000e+00	1.900000e+00	0	0.000000e+00
1.500000e+00	2.100000e+00	0	0.000000e+00
1.500000e+00	2.300000e+00	0	0.000000e+00
1.500000e+00	2.500000e+00	0	0.000000e+00
1.500000e+00	2.700000e+00	0	0.000000e+00
1.500000e+00	2.900000e+00	0	0.000000e+00
1.500000e+00	3.100000e+00	0	0.000000e+00
1.500000e+00	3.300000e+00	0	0.000000e+00
1.500000e+00	3.500000e+00	0	0.000000e+00
1.500000e+00	3.700000e+00	0	0.000000e+00
1.500000e+00	3.900000e+00	0	0.000000e+00
1.500000e+00	4.100000e+00	0	0.000000e+00
1.500000e+00	4.300000e+00	0	0.000000e+00
1.500000e+00	4.500000e+00	0	0.000000e+00
1.500000e+00	4.700000e+00	0	0.000000e+00
1.500000e+00	4.900000e+00	0	0.000000e+00
1.500000e+00	5.100000e+00	0	0.000000e+00
1.500000e+00	5.300000e+00	0	0.000000e+00
1.500000e+00	5.500000e+00	0	0.000000e+00
1.500000e+00	5.700000e+00	0	0.000000e+00
1.500000e+00	5.900000e+00	0	0.000000e+00
1.500000e+00	6.100000e+00	0	0.000000e+00
1.500000e+00	6.300000e+00	0	0.000000e+00
1.500000e+00	6.500000e+00	0	0.000000e+00
1.500000e+00	6.700000e+00	0	0.000000e+00
1.500000e+00	6.900000e+00	0	0.000000e+00
1.500000e+00	7.100000e+00	0	0.000000e+00
1.500000e+00	7.300000e+00	0	0.000000e+00
1.500000e+00	7.500000e+00	0	0.000000e+00
1.500000e+00	7.700000e+00	0	0.000000e+00
1.500000e+00	7.900000e+00	0	0.000000e+00
1.500000e+00	8.100000e+00	0	0.000000e+00
1.500000e+00	8.300000e+00	0	0.000000e+00
1.500000e+00	8.500000e+00	0	0.000000e+00
1.500000e+00	8.700000e+00	0	0.000000e+00
1.500000e+00	8.900000e+00	0	0.000000e+00
1.500000e+00	9.100000e+00	0	0.000000e+00
1.500000e+00	9.300000e+00	0	0.000000e+00
1.500000e+00	9.500000e+00	0	0.000000e+00
1.500000e+00	9.700000e+00	0	0.000000e+00
1.500000e+00	9.900000e+00	0	0.000000e+00
2.000000e+00	9.900000e+00	0	0.000000e+00
2.000000e+00	9.700000e+00	0	0.000000e+00
2.000000e+00	9.500000e+00	0	0.000000e+00
2.000000e+00	9.300000e+00	0	0.000000e+00
2.000000e+00	9.100000e+00	0	0.000000e+00
2.000000e+00	8.900000e+00	0	0.000000e+00
2.000000e+00	8.700000e+00	0	0.000000e+00
2.000000e+00	8.500000e+00	0	0.000000e+00
2.000000e+00	8.300000e+00	0	0.000000e+00
2.000000e+00	8.100000e+00	0	0.000000e+00
2.000000e+00	7.900000e+00	0	0.000000e+00
2.000000e+00	7.700000e+00	0	0.000000e+00
2.000000e+00	7.500000e+00	0	0.000000e+00
2.000000e+00	7.300000e+00	0	0.000000e+00
2.000000e+00	7.100000e+00	0	0.000000e+00
2.000000e+00	6.900000e+00	0	0.000000e+00
2.000000e+00	6.700000e+00	0	0.000000e+00
2.000000e+00	6.500000e+00	0	0.000000e+00
2.000000e+00	6.300000e+00	0	0.000000e+00
2.000000e+00	6.100000e+00	0	0.000000e+00
2.000000e+00	5.900000e+00	0	0.000000e+00
2.000000e+00	5.700000e+00	0	0.000000e+00
2.000000e+00	5.500000e+00	0	0.000000e+00
2.000000e+00	5.300000e+00	0	0.000000e+00
2.000000e+00	5.100000e+00	0	0.000000e+00
2.000000e+00	4.900000e+00	0	0.000000e+00
2.000000e+00	4.700000e+00	0	0.000000e+00
2.000000e+00	4.500000e+00	0	0.000000e+00
2.000000e+00	4.300000e+00	0	0.000000e+00
2.000000e+00	4.100000e+00	0	0.000000e+00
2.000000e+00	3.900000e+00	0	0.000000e+00
2.000000e+00	3.700000e+00	0	0.000000e+00
2.000000e+00	3.500000e+00	0	0.000000e+00
2.000000e+00	3.300000e+00	0	0.000000e+00
2.000000e+00	3.100000e+00	0	0.000000e+00
2.000000e+00	2.900000e+00	0	0.000000e+00
2.000000e+00	2.700000e+00	0	0.000000e+00
2.000000e+00	2.500000e+00	0	0.000000e+00
2.000000e+00	2.300000e+00	0	0.000000e+00
2.000000e+00	2.100000e+00	0	0.000000e+00
2.000000e+00	1.900000e+00	0	0.000000e+00
2.000000e+00	1.700000e+00	0	0.000000e+00
2.000000e+00	1.500000e+00	0	0.000000e+00
2.000000e+00	1.300000e+00	0	0.000000e+00
2.000000e+00	1.100000e+00	0	0.000000e+00
2.000000e+00	9.000000e-01	0	0.000000e+00
2.000000e+00	7.000000e-01	0	0.000000e+00
2.000000e+00	5.000000e-01	0	0.000000e+00
2.000000e+00	3.000000e-01	0	0.000000e+00
2.000000e+00	1.000000e-01	357	8.925000e-01
2.000000e+00	1.000000e-01	43	1.075000e-01
2.000000e+00	3.000000e-01	0	0.000000e+00
2.000000e+00	5.000000e-01	0	0.000000e+00
2.000000e+00	7.000000e-01	0	0.000000e+00
2.000000e+00	9.000000e-01	0	0.000000e+00
2.000000e+00	1.100000e+00	0	0.000000e+00
2.000000e+00	1.300000e+00	0	0.000000e+00
2.000000e+00	1.500000e+00	0	0.000000e+00
2.000000e+00	1.700000e+00	0	0.000000e+00
2.000000e+00	1.900000e+00	0	0.000000e+00
2.000000e+00	2.100000e+00	0	0.000000e+00
2.000000e+00	2.300000e+00	0	0.000000e+00
2.000000e+00	2.500000e+00	0	0.000000e+00
2.000000e+00	2.700000e+00	0	0.000000e+00
2.000000e+00	2.900000e+00	0	0.000000e+00
2.000000e+00	3.100000e+00	0	0.000000e+00
2.000000e+00	3.300000e+00	0	0.000000e+00
2.000000e+00	3.500000e+00	0	0.000000e+00
2.000000e+00	3.700000e+00	0	0.000000e+00
2.000000e+00	3.900000e+00	0	0.000000e+00
2.000000e+00	4.100000e+00	0	0.000000e+00
2.000000e+00	4.300000e+00	0	0.000000e+00
2.000000e+00	4.500000e+00	0	0.000000e+00
2.000000e+00	4.700000e+00	0	0.000000e+00
2.000000e+00	4.900000e+00	0	0.000000e+00
2.000000e+00	5.100000e+00	0	0.000000e+00
2.000000e+00	5.300000e+00	0	0.000000e+00
2.000000e+00	5.500000e+00	0	0.000000e+00
2.000000e+00	5.700000e+00	0	0.000000e+00
2.000000e+00	5.900000e+00	0	0.000000e+00
2.000000e+00	6.100000e+00	0	0.000000e+00
2.000000e+00	6.300000e+00	0	0.000000e+00
2.000000e+00	6.500000e+00	0	0.000000e+00
2.000000e+00	6.700000e+00	0	0.000000e+00
2.000000e+00	6.900000e+00	0	0.000000e+00
2.000000e+00	7.100000e+00	0	0.000000e+00
2.000000e+00	7.300000e+00	0	0.000000e+00
2.000000e+00	7.500000e+00	0	0.000000e+00
2.000000e+00	7.700000e+00	0	0.000000e+00
2.000000e+00	7.900000e+00	0	0.000000e+00
2.000000e+00	8.100000e+00	0	0.000000e+00
2.000000e+00	8.300000e+00	0	0.000000e+00
2.000000e+00	8.500000e+00	0	0.000000e+00
2.000000e+00	8.700000e+00	0	0.000000e+00
2.000000e+00	8.900000e+00	0	0.000000e+00
2.000000e+00	9.100000e+00	0	0.000000e+00
2.000000e+00	9.300000e+00	0	0.000000e+00
2.000000e+00	9.500000e+00	0	0.000000e+00
2.000000e+00	9.700000e+00	0	0.000000e+00
2.000000e+00	9.900000e+00	0	0.000000e+00
2.500000e+00	9.900000e+00	0	0.000000e+00
2.500000e+00	9.700000e+00	0	0.000000e+00
2.500000e+00	9.500000e+00	0	0.000000e+00
2.500000e+00	9.300000e+00	0	0.000000e+00
2.500000e+00	9.100000e+00	0	0.000000e+00
2.500000e+00	8.900000e+00	0	0.000000e+00
2.500000e+00	8.700000e+00	0	0.000000e+00
2.500000e+00	8.500000e+00	0	0.000000e+00
2.500000e+00	8.300000e+00	0	0.000000e+00
2.500000e+00	8.100000e+00	0	0.000000e+00
2.500000e+00	7.900000e+00	0	0.000000e+00
2.500000e+00	7.700000e+00	0	0.000000e+00
2.500000e+00	7.500000e+00	0	0.000000e+00
2.500000e+00	7.300000e+00	0	0.000000e+00
2.500000e+00	7.100000e+00	0	0.000000e+00
2.500000e+00	6.900000e+00	0	0.000000e+00
2.500000e+00	6.700000e+00	0	0.000000e+00
2.500000e+00	6.500000e+00	0	0.000000e+00
2.500000e+00	6.300000e+00	0	0.000000e+00
2.500000e+00	6.100000e+00	0	0.000000e+00
2.500000e+00	5.900000e+00	0	0.000000e+00
2.500000e+00	5.700000e+00	0	0.000000e+00
2.500000e+00	5.500000e+00	0	0.000000e+00
2.500000e+00	5.300000e+00	0	0.000000e+00
2.500000e+00	5.100000e+00	0	0.000000e+00
2.500000e+00	4.900000e+00	0	0.000000e+00
2.500000e+00	4.700000e+00	0	0.000000e+00
2.500000e+00	4.500000e+00	0	0.000000e+00
2.500000e+00	4.300000e+00	0	0.000000e+00
2.500000e+00	4.100000e+00	0	0.000000e+00
2.500000e+00	3.900000e+00	0	0.000000e+00
2.500000e+00	3.700000e+00	0	0.000000e+00
2.500000e+00	3.500000e+00	0	0.000000e+00
2.500000e+00	3.300000e+00	0	0.000000e+00
2.500000e+00	3.100000e+00	0	0.000000e+00
2.500000e+00	2.900000e+00	0	0.000000e+00
2.500000e+00	2.700000e+00	0	0.000000e+00
2.500000e+00	2.500000e+00	0	0.000000e+00
2.500000e+00	2.300000e+00	0	0.000000e+00
2.500000e+00	2.100000e+00	0	0.000000e+00
2.500000e+00	1.900000e+00	0	0.000000e+00
2.500000e+00	1.700000e+00	0	0.000000e+00
2.500000e+00	1.500000e+00	0	0.000000e+00
2.500000e+00	1.300000e+00	0	0.000000e+00
2.500000e+00	1.100000e+00	0	0.000000e+00
2.500000e+00	9.000000e-01	0	0.000000e+00
2.500000e+00	7.000000e-01	0	0.000000e+00
2.500000e+00	5.000000e-01	0	0.000000e+00
2.500000e+00	3.000000e-01	0	0.000000e+00
2.500000e+00	1.000000e-01	364	9.100000e-01
2.500000e+00	1.000000e-01	36	9.000000e-02
2.500000e+00	3.000000e-01	0	0.000000e+00
2.500000e+00	5.000000e-01	0	0.000000e+00
2.500000e+00	7.000000e-01	0	0.000000e+00
2.500000e+00	9.000000e-01	0	0.000000e+00
2.500000e+00	1.100000e+00	0	0.000000e+00
2.500000e+00	1.300000e+00	0	0.000000e+00
2.500000e+00	1.500000e+00	0	0.000000e+00
2.500000e+00	1.700000e+00	0	0.000000e+00
2.500000e+00	1.900000e+00	0	0.000000e+00
2.500000e+00	2.100000e+00	0	0.000000e+00
2.500000e+00	2.300000e+00	0	0.000000e+00
2.500000e+00	2.500000e+00	0	0.000000e+00
2.500000e+00	2.700000e+00	0	0.000000e+00
2.500000e+00	2.900000e+00	0	0.000000e+00
2.500000e+00	3.100000e+00	0	0.000000e+00
2.500000e+00	3.300000e+00	0	0.000000e+00
2.500000e+00	3.500000e+00	0	0.000000e+00
2.500000e+00	3.700000e+00	0	0.000000e+00
2.500000e+00	3.900000e+00	0	0.000000e+00
2.500000e+00	4.100000e+00	0	0.000000e+00
2.500000e+00	4.300000e+00	0	0.000000e+00
2.500000e+00	4.500000e+00	0	0.000000e+00
2.500000e+00	4.700000e+00	0	0.000000e+00
2.500000e+00	4.900000e+00	0	0.000000e+00
2.500000e+00	5.100000e+00	0	0.000000e+00
2.500000e+00	5.300000e+00	0	0.000000e+00
2.500000e+00	5.500000e+00	0	0.000000e+00
2.500000e+00	5.700000e+00	0	0.000000e+00
2.500000e+00	5.900000e+00	0	0.000000e+00
2.500000e+00	6.100000e+00	0	0.000000e+00
2.500000e+00	6.300000e+00	0	0.000000e+00
2.500000e+00	6.500000e+00	0	0.000000e+00
2.500000e+00	6.700000e+00	0	0.000000e+00
2.500000e+00	6.900000e+00	0	0.000000e+00
2.500000e+00	7.100000e+00	0	0.000000e+00
2.500000e+00	7.300000e+00	0	0.000000e+00
2.500000e+00	7.500000e+00	0	0.000000e+00
2.500000e+00	7.700000e+00	0	0.000000e+00
2.500000e+00	7.900000e+00	0	0.000000e+00
2.500000e+00	8.100000e+00	0	0.000000e+00
2.500000e+00	8.300000e+00	0	0.000000e+00
2.500000e+00	8.500000e+00	0	0.000000e+00
2.500000e+00	8.700000e+00	0	0.000000e+00
2.500000e+00	8.900000e+00	0	0.000000e+00
2.500000e+00	9.100000e+00	0	0.000000e+00
2.500000e+00	9.300000e+00	0	0.000000e+00
2.500000e+00	9.500000e+00	0	0.000000e+00
2.500000e+00	9.700000e+00	0	0.000000e+00
2.500000e+00	9.900000e+00	0	0.000000e+00
3.000000e+00	9.900000e+00	0	0.000000e+00
3.000000e+00	9.700000e+00	0	0.000000e+00
3.000000e+00	9.500000e+00	0	0.000000e+00
3.000000e+00	9.300000e+00	0	0.000000e+00
3.000000e+00	9.100000e+00	0	0.000000e+00
3.000000e+00	8.900000e+00	0	0.000000e+00
3.000000e+00	8.700000e+00	0	0.000000e+00
3.000000e+00	8.500000e+00	0	0.000000e+00
3.000000e+00	8.300000e+00	0	0.000000e+00
3.000000e+00	8.100000e+00	0	0.000000e+00
3.000000e+00	7.900000e+00	0	0.000000e+00
3.000000e+00	7.700000e+00	0	0.000000e+00
3.000000e+00	7.500000e+00	0	0.000000e+00
3.000000e+00	7.300000e+00	0	0.000000e+00
3.000000e+00	7.100000e+00	0	0.000000e+00
3.000000e+00	6.900000e+00	0	0.000000e+00
3.000000e+00	6.700000e+00	0	0.000000e+00
3.000000e+00	6.500000e+00	0	0.000000e+00
3.000000e+00	6.300000e+00	0	0.000000e+00
3.000000e+00	6.100000e+00	0	0.000000e+00
3.000000e+00	5.900000e+00	0	0.000000e+00
3.000000e+00	5.700000e+00	0	0.000000e+00
3.000000e+00	5.500000e+00	0	0.000000e+00
3.000000e+00	5.300000e+00	0	0.000000e+00
3.000000e+00	5.100000e+00	0	0.000000e+00
3.000000e+00	4.900000e+00	0	0.000000e+00
3.000000e+00	4.700000e+00	0	0.000000e+00
3.000000e+00	4.500000e+00	0	0.000000e+00
3.000000e+00	4.300000e+00	0	0.000000e+00
3.000000e+00	4.100000e+00	0	0.000000e+00
3.000000e+00	3.900000e+00	0	0.000000e+00
3.000000e+00	3.700000e+00	0	0.000000e+00
3.000000e+00	3.500000e+00	0	0.000000e+00
3.000000e+00	3.300000e+00	0	0.000000e+00
3.000000e+00	3.100000e+00	0	0.000000e+00
3.000000e+00	2.900000e+00	0	0.000000e+00
3.000000e+00	2.700000e+00	0	0.000000e+00
3.000000e+00	2.500000e+00	0	0.000000e+00
3.000000e+00	2.300000e+00	0	0.000000e+00
3.000000e+00	2.100000e+00	0	0.000000e+00
3.000000e+00	1.900000e+00	0	0.000000e+00
3.000000e+00	1.700000e+00	0	0.000000e+00
3.000000e+00	1.500000e+00	0	0.000000e+00
3.000000e+00	1.300000e+00	0	0.000000e+00
3.000000e+00	1.100000e+00	0	0.000000e+00
3.000000e+00	9.000000e-01	0	0.000000e+00
3.000000e+00	7.000000e-01	0	0.000000e+00
3.000000e+00	5.000000e-01	0	0.000000e+00
3.000000e+00	3.000000e-01	0	0.000000e+00
3.000000e+00	1.000000e-01	377	9.425000e-01
3.000000e+00	1.000000e-01	23	5.750000e-02
3.000000e+00	3.000000e-01	0	0.000000e+00
3.000000e+00	5.000000e-01	0	0.000000e+00
3.000000e+00	7.000000e-01	0	0.000000e+00
3.000000e+00	9.000000e-01	0	0.000000e+00
3.000000e+00	1.100000e+00	0	0.000000e+00
3.000000e+00	1.300000e+00	0	0.000000e+00
3.000000e+00	1.500000e+00	0	0.000000e+00
3.000000e+00	1.700000e+00	0	0.000000e+00
3.000000e+00	1.900000e+00	0	0.000000e+00
3.000000e+00	2.100000e+00	0	0.000000e+00
3.000000e+00	2.300000e+00	0	0.000000e+00
3.000000e+00	2.500000e+00	0	0.000000e+00
3.000000e+00	2.700000e+00	0	0.000000e+00
3.000000e+00	2.900000e+00	0	0.000000e+00
3.000000e+00	3.100000e+00	0	0.000000e+00
3.000000e+00	3.300000e+00	0	0.000000e+00
3.000000e+00	3.500000e+00	0	0.000000e+00
3.000000e+00	3.700000e+00	0	0.000000e+00
3.000000e+00	3.900000e+00	0	0.000000e+00
3.000000e+00	4.100000e+00	0	0.000000e+00
3.000000e+00	4.300000e+00	0	0.000000e+00
3.000000e+00	4.500000e+00	0	0.000000e+00
3.000000e+00	4.700000e+00	0	0.000000e+00
3.000000e+00	4.900000e+00	0	0.000000e+00
3.000000e+00	5.100000e+00	0	0.000000e+00
3.000000e+00	5.300000e+00	0	0.000000e+00
3.000000e+00	5.500000e+00	0	0.000000e+00
3.000000e+00	5.700000e+00	0	0.000000e+00
3.000000e+00	5.900000e+00	0	0.000000e+00
3.000000e+00	6.100000e+00	0	0.000000e+00
3.000000e+00	6.300000e+00	0	0.000000e+00
3.000000e+00	6.500000e+00	0	0.000000e+00
3.000000e+00	6.700000e+00	0	0.000000e+00
3.000000e+00	6.900000e+00	0	0.000000e+00
3.000000e+00	7.100000e+00	0	0.000000e+00
3.000000e+00	7.300000e+00	0	0.000000e+00
3.000000e+00	7.500000e+00	0	0.000000e+00
3.000000e+00	7.700000e+00	0	0.000000e+00
3.000000e+00	7.900000e+00	0	0.000000e+00
3.000000e+00	8.100000e+00	0	0.000000e+00
3.000000e+00	8.300000e+00	0	0.000000e+00
3.000000e+00	8.500000e+00	0	0.000000e+00
3.000000e+00	8.700000e+00	0	0.000000e+00
3.000000e+00	8.900000e+00	0	0.000000e+00
3.000000e+00	9.100000e+00	0	0.000000e+00
3.000000e+00	9.300000e+00	0	0.000000e+00
3.000000e+00	9.500000e+00	0	0.000000e+00
3.000000e+00	9.700000e+00	0	0.000000e+00
3.000000e+00	9.900000e+00	0	0.000000e+00
3.500000e+00	9.900000e+00	0	0.000000e+00
3.500000e+00	9.700000e+00	0	0.000000e+00
3.500000e+00	9.500000e+00	0	0.000000e+00
3.500000e+00	9.300000e+00	0	0.000000e+00
3.500000e+00	9.100000e+00	0	0.000000e+00
3.500000e+00	8.900000e+00	0	0.000000e+00
3.500000e+00	8.700000e+00	0	0.000000e+00
3.500000e+00	8.500000e+00	0	0.000000e+00
3.500000e+00	8.300000e+00	0	0.000000e+00
3.500000e+00	8.100000e+00	0	0.000000e+00
3.500000e+00	7.900000e+00	0	0.000000e+00
3.500000e+00	7.700000e+00	0	0.000000e+00
3.500000e+00	7.500000e+00	0	0.000000e+00
3.500000e+00	7.300000e+00	0	0.000000e+00
3.500000e+00	7.100000e+00	0	0.000000e+00
3.500000e+00	6.900000e+00	0	0.000000e+00
3.500000e+00	6.700000e+00	0	0.000000e+00
3.500000e+00	6.500000e+00	0	0.000000e+00
3.500000e+00	6.300000e+00	0	0.000000e+00
3.500000e+00	6.100000e+00	0	0.000000e+00
3.500000e+00	5.900000e+00	0	0.000000e+00
3.500000e+00	5.700000e+00	0	0.000000e+00
3.500000e+00	5.500000e+00	0	0.000000e+00
3.500000e+00	5.300000e+00	0	0.000000e+00
3.500000e+00	5.100000e+00	0	0.000000e+00
3.500000e+00	4.900000e+00	0	0.000000e+00
3.500000e+00	4.700000e+00	0	0.000000e+00
3.500000e+00	4.500000e+00	0	0.000000e+00
3.500000e+00	4.300000e+00	0	0.000000e+00
3.500000e+00	4.100000e+00	0	0.000000e+00
3.500000e+00	3.900000e+00	0	0.000000e+00
3.500000e+00	3.700000e+00	0	0.000000e+00
3.500000e+00	3.500000e+00	0	0.000000e+00
3.500000e+00	3.300000e+00	0	0.000000e+00
3.500000e+00	3.100000e+00	0	0.000000e+00
3.500000e+00	2.900000e+00	0	0.000000e+00
3.500000e+00	2.700000e+00	0	0.000000e+00
3.500000e+00	2.500000e+00	0	0.000000e+00
3.500000e+00	2.300000e+00	0	0.000000e+00
3.500000e+00	2.100000e+00	0	0.000000e+00
3.500000e+00	1.900000e+00	0	0.000000e+00
3.500000e+00	1.700000e+00	0	0.000000e+00
3.500000e+00	1.500000e+00	0	0.000000e+00
3.500000e+00	1.300000e+00	0	0.000000e+00
3.500000e+00	1.100000e+00	0	0.000000e+00
3.500000e+00	9.000000e-01	0	0.000000e+00
3.500000e+00	7.000000e-01	0	0.000000e+00
3.500000e+00	5.000000e-01	0	0.000000e+00
3.500000e+00	3.000000e-01	0	0.000000e+00
3.500000e+00	1.000000e-01	109	2.725000e-01
3.500000e+00	1.000000e-01	291	7.275000e-01
3.500000e+00	3.000000e-01	0	0.000000e+00
3.500000e+00	5.000000e-01	0	0.000000e+00
3.500000e+00	7.000000e-01	0	0.000000e+00
3.500000e+00	9.000000e-01	0	0.000000e+00
3.500000e+00	1.100000e+00	0	0.000000e+00
3.500000e+00	1.300000e+00	0	0.000000e+00
3.500000e+00	1.500000e+00	0	0.000000e+00
3.500000e+00	1.700000e+00	0	0.000000e+00
3.500000e+00	1.900000e+00	0	0.000000e+00
3.500000e+00	2.100000e+00	0	0.000000e+00
3.500000e+00	2.300000e+00	0	0.000000e+00
3.500000e+00	2.500000e+00	0	0.000000e+00
3.500000e+00	2.700000e+00	0	0.000000e+00
3.500000e+00	2.900000e+00	0	0.000000e+00
3.500000e+00	3.100000e+00	0	0.000000e+00
3.500000e+00	3.300000e+00	0	0.000000e+00
3.500000e+00	3.500000e+00	0	0.000000e+00
3.500000e+00	3.700000e+00	0	0.000000e+00
3.500000e+00	3.900000e+00	0	0.000000e+00
3.500000e+00	4.100000e+00	0	0.000000e+00
3.500000e+00	4.300000e+00	0	0.000000e+00
3.500000e+00	4.500000e+00	0	0.000000e+00
3.500000e+00	4.700000e+00	0	0.000000e+00
3.500000e+00	4.900000e+00	0	0.000000e+00
3.500000e+00	5.100000e+00	0	0.000000e+00
3.500000e+00	5.300000e+00	0	0.000000e+00
3.500000e+00	5.500000e+00	0	0.000000e+00
3.500000e+00	5.700000e+00	0	0.000000e+00
3.500000e+00	5.900000e+00	0	0.000000e+00
3.500000e+00	6.100000e+00	0	0.000000e+00
3.500000e+00	6.300000e+00	0	0.000000e+00
3.500000e+00	6.500000e+00	0	0.000000e+00
3.500000e+00	6.700000e+00	0	0.000000e+00
3.500000e+00	6.900000e+00	0	0.000000e+00
3.500000e+00	7.100000e+00	0	0.000000e+00
3.500000e+00	7.300000e+00	0	0.000000e+00
3.500000e+00	7.500000e+00	0	0.000000e+00
3.500000e+00	7.700000e+00	0	0.000000e+00
3.500000e+00	7.900000e+00	0	0.000000e+00
3.500000e+00	8.100000e+00	0	0.000000e+00
3.500000e+00	8.300000e+00	0	0.000000e+00
3.500000e+00	8.500000e+00	0	0.000000e+00
3.500000e+00	8.700000e+00	0	0.000000e+00
3.500000e+00	8.900000e+00	0	0.000000e+00
3.500000e+00	9.100000e+00	0	0.000000e+00
3.500000e+00	9.300000e+00	0	0.000000e+00
3.500000e+00	9.500000e+00	0	0.000000e+00
3.500000e+00	9.700000e+00	0	0.000000e+00
3.500000e+00	9.900000e+00	0	0.000000e+00
4.000000e+00	9.900000e+00	0	0.000000e+00
4.000000e+00	9.700000e+00	0	0.000000e+00
4.000000e+00	9.500000e+00	0	0.000000e+00
4.000000e+00	9.300000e+00	0	0.000000e+00
4.000000e+00	9.100000e+00	0	0.000000e+00
4.000000e+00	8.900000e+00	0	0.000000e+00
4.000000e+00	8.700000e+00	0	0.000000e+00
4.000000e+00	8.500000e+00	0	0.000000e+00
4.000000e+00	8.300000e+00	0	0.000000e+00
4.000000e+00	8.100000e+00	0	0.000000e+00
4.000000e+00	7.900000e+00	0	0.000000e+00
4.000000e+00	7.700000e+00	0	0.000000e+00
4.000000e+00	7.500000e+00	0	0.000000e+00
4.000000e+00	7.300000e+00	0	0.000000e+00
4.000000e+00	7.100000e+00	0	0.000000e+00
4.000000e+00	6.900000e+00	0	0.000000e+00
4.000000e+00	6.700000e+00	0	0.000000e+00
4.000000e+00	6.500000e+00	0	0.000000e+00
4.000000e+00	6.300000e+00	0	0.000000e+00
4.000000e+00	6.100000e+00	0	0.000000e+00
4.000000e+00	5.900000e+00	0	0.000000e+00
4.000000e+00	5.700000e+00	0	0.000000e+00
4.000000e+00	5.500000e+00	0	0.000000e+00
4.000000e+00	5.300000e+00	0	0.000000e+00
4.000000e+00	5.100000e+00	0	0.000000e+00
4.000000e+00	4.900000e+00	0	0.000000e+00
4.000000e+00	4.700000e+00	0	0.000000e+00
4.000000e+00	4.500000e+00	0	0.000000e+00
4.000000e+00	4.300000e+00	0	0.000000e+00