/*--------------------------------*- C++ -*----------------------------------*\
| =========                 |                                                 |
| \\      /  F ield         | OpenFOAM: The Open Source CFD Toolbox           |
|  \\    /   O peration     | Version:  2506                                  |
|   \\  /    A nd           | Website:  www.openfoam.com                      |
|    \\/     M anipulation  |                                                 |
\*---------------------------------------------------------------------------*/
FoamFile
{
    version     2.0;
    format      ascii;
    arch        "LSB;label=32;scalar=64";
    class       volScalarField;
    location    "1.875";
    object      Lambda2Field;
}
// * * * * * * * * * * * * * * * * * * * * * * * * * * * * * * * * * * * * * //

dimensions      [0 0 -2 0 0 0 0];

internalField   nonuniform List<scalar> 
400
(
0.0503152
0.24197
0.554074
0.734968
0.804254
0.825627
0.922448
1.17782
1.56048
2.00563
2.47777
3.18656
4.3052
5.62726
5.91393
4.90758
3.34487
1.55186
0.290794
0.0167841
0.257964
0.708463
1.2187
1.58041
1.80389
1.90113
1.88063
1.80639
1.7989
1.9883
2.42929
3.09429
4.16336
5.62135
7.25186
7.96337
6.2487
3.08803
0.684947
0.00810994
0.609411
1.06001
1.55127
1.93782
2.21345
2.31172
2.30148
2.45564
3.10592
4.38845
6.23405
8.52962
11.1751
14.3083
17.7914
19.3258
17.4375
10.2445
2.49506
0.235641
0.941321
1.35223
1.68799
1.98963
2.25945
2.48718
2.92611
4.12952
6.56749
10.0743
13.3414
15.2626
15.9798
17.486
21.8261
27.6379
30.6052
27.5061
11.2013
0.624831
1.21563
1.50246
1.71544
1.98286
2.29199
2.81185
4.0535
6.75292
10.9284
14.4488
13.5819
7.73245
0.903116
-2.27616
-0.0030598
9.02201
25.1914
37.3068
31.4797
1.5563
1.37558
1.48403
1.61572
1.88041
2.28649
3.11083
5.13932
9.07009
13.135
12.3467
2.86977
-12.182
-24.7146
-30.986
-32.0061
-27.3063
-10.1957
22.3993
43.025
23.7009
1.42783
1.32411
1.40548
1.67819
2.17969
3.22788
5.70008
9.84866
11.7467
4.80893
-12.0767
-30.1305
-39.2949
-39.8233
-38.678
-40.3717
-40.1968
-17.6736
33.7746
71.0998
1.40118
1.08129
1.12398
1.39118
1.93615
3.06478
5.52258
9.0307
8.06125
-2.92052
-23.7924
-39.9593
-42.1956
-36.2367
-30.1614
-29.0874
-36.9091
-40.0321
1.63284
91.1331
1.32216
0.823156
0.830151
1.07693
1.60472
2.6804
4.88391
7.51502
5.12415
-7.39032
-28.9797
-43.9556
-44.3309
-36.8956
-27.3354
-20.3105
-22.4801
-34.006
-21.0192
83.0985
1.21841
0.603813
0.576819
0.791465
1.26816
2.22756
4.05429
6.22649
4.2665
-6.90598
-27.0115
-42.3896
-45.316
-38.9248
-27.1636
-17.2221
-14.4785
-22.5946
-23.3993
58.3823
1.05791
0.45102
0.398721
0.57845
0.990875
1.80346
3.30256
5.30095
4.65585
-2.60709
-18.0863
-32.881
-38.6612
-34.2567
-22.4071
-12.8804
-9.44521
-13.5806
-18.0932
28.0548
0.776159
0.369565
0.307711
0.459316
0.813923
1.47239
2.66688
4.39911
4.89914
1.35206
-6.96015
-17.5674
-22.8501
-20.6075
-12.4504
-6.10101
-3.67569
-6.28333
-11.416
7.69149
0.445734
0.326004
0.291317
0.430626
0.744479
1.28167
2.17416
3.48504
4.47319
3.54685
0
-4.98847
-8.04702
-6.65337
-2.73551
0
1.18308
-0.194134
-2.35434
-1.57083
0.22002
0.275325
0.324501
0.473972
0.763186
1.20775
1.85317
2.73963
3.62434
3.74613
2.44213
0.377116
-0.73574
-0.0466831
1.69354
3.32287
4.38318
3.17147
0
-0.708177
-0.095697
0.157188
0.367867
0.580384
0.865902
1.24537
1.72265
2.27851
2.79484
2.97761
2.4884
1.55066
0.910439
1.38137
2.64462
3.99409
5.30833
2.92055
-3.99928
0
-0.187859
0
0.458429
0.749183
1.05919
1.40824
1.77578
2.10191
2.28949
2.20022
1.73497
0.990124
0.439219
0.610447
1.57034
2.85406
4.28113
-2.7952
-13.6462
1.70119
0
-0.185036
0
0.38474
0.845789
1.26232
1.60098
1.8177
1.82931
1.52912
0.901373
0.04546
-0.592246
-0.806109
-0.164689
0.738111
0
-16.6738
-6.26131
26.298
0
0.207768
1.10267
1.08206
1.30851
1.65747
1.92931
1.97015
1.67328
0.954642
0
-1.14054
-2.67718
-3.81816
-5.0744
-5.96651
-15.4733
-40.0356
0
258.188
8.75102
0
0
0
0
0
0
0
0
0
0
-1.37321
-3.34216
-5.64614
-8.57394
-13.6542
-27.99
-19.2206
-138.331
955.274
3238.76
-604.187
-684.996
-362.283
-167.187
-89.2513
-58.2594
-41.3333
-30.0654
-23.1576
-19.7614
-17.8404
-18.1094
-15.7203
-34.4812
0
0
0
-220.944
1605.74
)
;

boundaryField
{
    movingWall
    {
        type            calculated;
        value           nonuniform List<scalar> 
20
(
1542.46
0
0
0
0
0
0
0
0
0
0
0
0
0
0
0
-115.314
0
-1327.93
2875.46
)
;
    }
    fixedWalls
    {
        type            calculated;
        value           nonuniform List<scalar> 
60
(
0
0.061513
0.433006
0.764775
1.1125
1.49269
1.88543
2.08648
1.85023
1.49315
1.1715
0.626253
0.179384
0
-0.285977
0
0
0
27.4551
6872.37
0
0
0.0981898
0
0
10.8458
36.5799
59.843
57.2779
15.4423
0
0
0
0
0
0
54.3675
749.612
3133.56
2159.5
0
0.0492566
0.143301
0.151227
0.00298116
0
0.365289
0.86537
1.14071
1.97869
3.26923
4.93617
7.02944
8.51331
6.88856
4.73736
2.92817
0.957204
0.208385
0.0139363
)
;
    }
    frontAndBack
    {
        type            empty;
    }
}


// ************************************************************************* //
