/*--------------------------------*- C++ -*----------------------------------*\
| =========                 |                                                 |
| \\      /  F ield         | OpenFOAM: The Open Source CFD Toolbox           |
|  \\    /   O peration     | Version:  2506                                  |
|   \\  /    A nd           | Website:  www.openfoam.com                      |
|    \\/     M anipulation  |                                                 |
\*---------------------------------------------------------------------------*/
FoamFile
{
    version     2.0;
    format      ascii;
    arch        "LSB;label=32;scalar=64";
    class       volVectorField;
    location    "1.875";
    object      LambVectorField;
}
// * * * * * * * * * * * * * * * * * * * * * * * * * * * * * * * * * * * * * //

dimensions      [0 1 -2 0 0 0 0];

internalField   nonuniform List<vector> 
400
(
(-8.45032e-05 -9.37229e-05 0)
(-0.00103991 -0.00220412 0)
(-0.00305584 -0.0113636 0)
(-0.00555675 -0.0310345 0)
(-0.00874347 -0.0640978 0)
(-0.0131945 -0.113096 0)
(-0.018913 -0.179334 0)
(-0.0245642 -0.260878 0)
(-0.0280004 -0.352608 0)
(-0.027226 -0.446628 0)
(-0.0205959 -0.529563 0)
(-0.00716943 -0.577591 0)
(0.0129237 -0.564736 -0)
(0.0335665 -0.476975 -0)
(0.0449853 -0.333646 -0)
(0.0403721 -0.180721 -0)
(0.0237747 -0.0665929 -0)
(0.00733455 -0.0112484 -0)
(0.000656303 6.00602e-05 0)
(5.69402e-05 -8.21006e-05 0)
(-0.00247201 -0.00130583 0)
(-0.00524798 -0.00523017 0)
(-0.0070202 -0.0109289 0)
(-0.00896724 -0.0197935 0)
(-0.0116576 -0.0333668 0)
(-0.0142384 -0.049672 0)
(-0.0155228 -0.0647127 0)
(-0.0154055 -0.0775233 0)
(-0.0148508 -0.0926039 0)
(-0.0140341 -0.115288 0)
(-0.0113234 -0.147431 0)
(-0.00373975 -0.185842 0)
(0.0114467 -0.220821 -0)
(0.0344083 -0.240528 -0)
(0.0589996 -0.229607 -0)
(0.07495 -0.184255 -0)
(0.06945 -0.11197 -0)
(0.0388921 -0.0393292 -0)
(0.00856386 -0.00338557 -0)
(-0.000177581 0.000253579 0)
(-0.0130569 -0.00450072 0)
(-0.0111467 -0.00759235 0)
(-0.0109105 -0.011009 0)
(-0.0107252 -0.0146839 0)
(-0.0107379 -0.0187616 0)
(-0.0100511 -0.0216443 0)
(-0.0093547 -0.0245793 0)
(-0.0112459 -0.0360423 0)
(-0.0172587 -0.0678431 0)
(-0.0257153 -0.128216 0)
(-0.0301333 -0.213267 0)
(-0.0204876 -0.299449 0)
(0.00849274 -0.360065 -0)
(0.0542345 -0.396248 -0)
(0.116704 -0.420181 -0)
(0.18724 -0.415843 -0)
(0.226394 -0.337765 -0)
(0.178768 -0.175007 -0)
(0.0565916 -0.0228801 -0)
(0.000404713 0.0012421 0)
(-0.035676 -0.00858611 0)
(-0.0166629 -0.00846281 0)
(-0.0135896 -0.0101306 0)
(-0.010909 -0.0107943 0)
(-0.00766584 -0.00954976 0)
(-0.00443232 -0.00678647 0)
(-0.00582153 -0.0108526 0)
(-0.017317 -0.0386217 0)
(-0.039206 -0.102175 0)
(-0.0625868 -0.192552 0)
(-0.0645076 -0.256 0)
(-0.0352592 -0.232301 0)
(-0.0036372 -0.144705 0)
(0.0118434 -0.095668 -0)
(0.0500914 -0.170428 -0)
(0.173241 -0.355862 -0)
(0.383025 -0.53691 -0)
(0.511204 -0.511219 -0)
(0.300928 -0.188266 -0)
(0.0153249 0.00454887 0)
(-0.0727117 -0.0124659 0)
(-0.0214322 -0.00823511 0)
(-0.0142345 -0.00809762 0)
(-0.00907359 -0.00680427 0)
(-0.00351165 -0.0032913 0)
(-0.000644884 -0.000736287 0)
(-0.00876011 -0.0119375 0)
(-0.0337057 -0.0529366 0)
(-0.0648822 -0.114357 0)
(-0.0605984 -0.123497 0)
(0.0109774 0.0286481 0)
(0.0841201 0.345842 0)
(0.0492086 0.669366 0)
(-0.101209 0.843267 -0)
(-0.263341 0.803128 -0)
(-0.279285 0.505281 -0)
(0.0220036 -0.0274316 -0)
(0.612205 -0.554484 -0)
(0.88702 -0.584597 -0)
(0.178052 -0.0438737 -0)
(-0.122645 -0.0150725 0)
(-0.0254312 -0.00738244 0)
(-0.0132769 -0.00578697 0)
(-0.00612887 -0.00351585 0)
(0.000379695 0.000270457 0)
(0.000700375 0.000599698 0)
(-0.0144272 -0.0143529 0)
(-0.0424098 -0.0471644 0)
(-0.0382844 -0.0471242 0)
(0.0753202 0.107622 0)
(0.260965 0.480753 0)
(0.321604 0.934233 0)
(0.144265 1.26136 0)
(-0.186711 1.39178 -0)
(-0.546745 1.38196 -0)
(-0.841214 1.26382 -0)
(-0.848622 0.889027 -0)
(-0.121787 0.0935731 -0)
(1.20717 -0.682152 -0)
(0.953367 -0.391622 -0)
(-0.180477 -0.0156876 0)
(-0.0289274 -0.00624414 0)
(-0.0113435 -0.00373259 0)
(-0.00292292 -0.0012661 0)
(0.00337144 0.00180034 0)
(0.00126542 0.000799902 0)
(-0.0167378 -0.0119832 0)
(-0.0264179 -0.0206124 0)
(0.0623088 0.0533096 0)
(0.309764 0.30922 0)
(0.552245 0.715332 0)
(0.516561 1.06347 0)
(0.187834 1.19313 0)
(-0.225782 1.1483 -0)
(-0.600711 1.07747 -0)
(-0.979511 1.07596 -0)
(-1.384 1.10093 -0)
(-1.30529 0.784463 -0)
(0.535322 -0.234355 -0)
(2.70633 -0.845786 -0)
(-0.238919 -0.0140389 0)
(-0.032267 -0.00498752 0)
(-0.00907233 -0.00217204 0)
(4.57136e-05 1.44082e-05 0)
(0.00582932 0.00224458 0)
(0.0033635 0.00150589 0)
(-0.0108581 -0.00536226 0)
(0.0101989 0.00532755 0)
(0.186841 0.104942 0)
(0.532246 0.347043 0)
(0.762384 0.649224 0)
(0.597386 0.835482 0)
(0.150205 0.82724 0)
(-0.275506 0.72349 -0)
(-0.582878 0.61426 -0)
(-0.839412 0.561614 -0)
(-1.26589 0.643954 -0)
(-1.83782 0.766678 -0)
(-0.806455 0.253012 -0)
(4.9837 -1.03465 -0)
(-0.290164 -0.0103723 0)
(-0.0357258 -0.0036666 0)
(-0.0069833 -0.00113161 0)
(0.00276052 0.000588105 0)
(0.008606 0.00220765 0)
(0.00810932 0.00235761 0)
(0.000611352 0.000188764 0)
(0.0471324 0.0145909 0)
(0.264333 0.0829465 0)
(0.640373 0.220454 0)
(0.856432 0.378289 0)
(0.62638 0.460308 0)
(0.123855 0.450148 0)
(-0.326351 0.3921 -0)
(-0.604298 0.311032 -0)
(-0.734702 0.247689 -0)
(-0.977314 0.257071 -0)
(-1.6649 0.404205 -0)
(-1.80598 0.368419 -0)
(7.10951 -0.918065 -0)
(-0.327556 -0.00537222 0)
(-0.0394528 -0.00227527 0)
(-0.00541799 -0.000509053 0)
(0.00535305 0.000656556 0)
(0.011767 0.00168192 0)
(0.0141239 0.00216117 0)
(0.0129095 0.00191223 0)
(0.0622306 0.00767252 0)
(0.261074 0.0243822 0)
(0.610021 0.0396618 0)
(0.829239 0.0413011 0)
(0.625893 0.0354656 0)
(0.140063 0.0403086 0)
(-0.335705 0.0468869 -0)
(-0.609175 0.0446889 -0)
(-0.68099 0.050935 -0)
(-0.791827 0.0651128 -0)
(-1.3749 0.148745 -0)
(-2.20522 0.257468 -0)
(8.6053 -0.678905 -0)
(-0.347262 -8.10752e-06 0)
(-0.0433641 -0.000805298 0)
(-0.00474103 -0.000159696 0)
(0.00727586 0.000304432 0)
(0.0143801 0.000590562 0)
(0.019235 0.000565944 0)
(0.0227205 9.71279e-05 0)
(0.0559209 -0.00240319 0)
(0.202782 -0.0214 0)
(0.464441 -0.0893555 0)
(0.670106 -0.205735 0)
(0.562819 -0.314012 0)
(0.16924 -0.348077 0)
(-0.277144 -0.299692 0)
(-0.533285 -0.197669 0)
(-0.593124 -0.102282 0)
(-0.668328 -0.0479527 0)
(-1.16772 0.0104569 -0)
(-2.33357 0.128265 -0)
(9.54048 -0.516646 -0)
(-0.347821 0.00492506 0)
(-0.0475815 0.000701077 0)
(-0.00520443 9.91954e-05 0)
(0.00803948 -0.000241822 0)
(0.0157264 -0.000794076 0)
(0.0220487 -0.0018157 0)
(0.0279387 -0.00356849 0)
(0.0468165 -0.00912692 0)
(0.131748 -0.037892 0)
(0.290331 -0.122475 0)
(0.437612 -0.274924 0)
(0.404974 -0.436106 0)
(0.158331 -0.514097 0)
(-0.164388 -0.473353 0)
(-0.383418 -0.331702 0)
(-0.458284 -0.193708 0)
(-0.533875 -0.114977 0)
(-1.00291 -0.0706342 0)
(-2.4013 0.0348044 -0)
(10.022 -0.447531 -0)
(-0.333482 0.00792306 0)
(-0.0507363 0.00211644 0)
(-0.00664443 0.000425057 0)
(0.00756729 -0.000706905 0)
(0.0155562 -0.00207014 0)
(0.0223427 -0.0041275 0)
(0.0293495 -0.00736049 0)
(0.0409765 -0.0138494 0)
(0.0803173 -0.0367845 0)
(0.158953 -0.100497 0)
(0.238917 -0.218125 0)
(0.234711 -0.353221 0)
(0.109771 -0.433039 0)
(-0.0740801 -0.413992 0)
(-0.224573 -0.321478 0)
(-0.311226 -0.213084 0)
(-0.401917 -0.142079 0)
(-0.851492 -0.116749 0)
(-2.44128 -0.0250328 0)
(10.1935 -0.44066 -0)
(-0.308244 0.00910055 0)
(-0.0528801 0.00324423 0)
(-0.00889664 0.000890166 0)
(0.00575944 -0.00085234 0)
(0.013777 -0.00286246 0)
(0.0203974 -0.00572165 0)
(0.0272932 -0.0100631 0)
(0.035921 -0.0171783 0)
(0.052672 -0.0328507 0)
(0.084352 -0.0702504 0)
(0.119397 -0.139507 0)
(0.12098 -0.222645 0)
(0.0682039 -0.281895 0)
(-0.0219117 -0.289783 0)
(-0.115749 -0.253209 0)
(-0.19534 -0.193087 0)
(-0.290823 -0.145853 0)
(-0.711471 -0.141061 0)
(-2.46571 -0.062866 0)
(10.1411 -0.461397 -0)
(-0.27672 0.00811047 0)
(-0.0539181 0.00374689 0)
(-0.0118116 0.00146331 0)
(0.0022709 -0.000435531 0)
(0.00982322 -0.0026967 0)
(0.0160508 -0.0059722 0)
(0.0224133 -0.0109059 0)
(0.0295556 -0.0184283 0)
(0.0382851 -0.0305278 0)
(0.0493795 -0.0512648 0)
(0.061447 -0.0866147 0)
(0.0634632 -0.133477 0)
(0.0435165 -0.176077 0)
(0.000979496 -0.19745 0)
(-0.055389 -0.193555 0)
(-0.118078 -0.168054 0)
(-0.204811 -0.142917 0)
(-0.58582 -0.158196 0)
(-2.45841 -0.111812 0)
(9.87113 -0.46984 -0)
(-0.26167 0.002944 0)
(-0.0543846 0.00325609 0)
(-0.0158649 0.00205105 0)
(-0.00272899 0.000597758 0)
(0.00424016 -0.00139842 0)
(0.0100539 -0.00462455 0)
(0.0158274 -0.00965545 0)
(0.0219409 -0.0172037 0)
(0.0282751 -0.028137 0)
(0.0339764 -0.0432182 0)
(0.0383841 -0.0643058 0)
(0.0393194 -0.0930433 0)
(0.0314387 -0.124859 0)
(0.0105307 -0.149373 0)
(-0.0231728 -0.159847 0)
(-0.0691806 -0.154283 0)
(-0.14375 -0.146556 0)
(-0.495804 -0.195806 0)
(-2.37322 -0.236168 0)
(9.49847 -0.420314 -0)
(-0.200966 -0.00610416 0)
(-0.0536365 -0.00010626 0)
(-0.0213324 0.00196982 0)
(-0.00820365 0.00178579 0)
(-0.00031185 0.000115207 0)
(0.00653896 -0.00358019 0)
(0.0128576 -0.00965097 0)
(0.0191075 -0.0187358 0)
(0.0252945 -0.0315745 0)
(0.0307836 -0.0486541 0)
(0.0345005 -0.070155 0)
(0.0351022 -0.0962532 0)
(0.0300313 -0.123897 0)
(0.0177174 -0.150712 0)
(-0.00491756 -0.170282 0)
(-0.0421013 -0.179274 0)
(-0.112576 -0.187927 0)
(-0.471278 -0.31622 0)
(-2.17882 -0.435309 0)
(9.13206 -0.270947 -0)
(-0.427034 -0.0318297 0)
(-0.0336347 -0.00229745 0)
(0.0236599 -0.00077939 0)
(0.041291 -0.00745253 0)
(0.0500209 -0.0190836 0)
(0.0582223 -0.0369999 0)
(0.0650779 -0.0607258 0)
(0.0708229 -0.0898395 0)
(0.075223 -0.123989 0)
(0.077783 -0.162985 0)
(0.0774163 -0.205837 0)
(0.0732282 -0.251185 0)
(0.0644258 -0.29647 0)
(0.04982 -0.343312 0)
(0.0267724 -0.386519 0)
(-0.0189451 -0.436695 0)
(-0.115631 -0.447454 0)
(-0.520053 -0.714799 0)
(-1.82334 -0.545181 0)
(7.06663 0.13945 0)
(0.0291159 0.0124829 0)
(0.0645357 0.0673379 0)
(0.0890178 -0.00208598 0)
(0.144549 -0.112671 0)
(0.178677 -0.25802 0)
(0.191695 -0.417632 0)
(0.197051 -0.579668 0)
(0.200234 -0.742431 0)
(0.201023 -0.90517 0)
(0.197963 -1.06672 0)
(0.190073 -1.22513 0)
(0.176748 -1.37887 0)
(0.158284 -1.52723 0)
(0.132089 -1.67136 0)
(0.0975815 -1.80245 0)
(0.028528 -1.96145 0)
(-0.0779569 -1.94897 0)
(-0.504135 -2.52164 0)
(-1.28858 -0.909855 0)
(-2.37766 -0.751702 0)
(16.7721 -7.2998 0)
(13.9365 -12.2077 0)
(8.54102 -16.9279 0)
(5.52476 -20.6908 0)
(3.98541 -23.5221 0)
(3.10014 -25.865 0)
(2.52358 -27.9654 0)
(2.11654 -29.8837 0)
(1.81301 -31.6304 0)
(1.5791 -33.2195 0)
(1.38789 -34.6584 0)
(1.22524 -35.9475 0)
(1.08009 -37.0736 0)
(0.940004 -38.0465 0)
(0.788668 -38.7524 0)
(0.576667 -39.4897 0)
(0.345365 -38.8139 0)
(-0.510025 -41.3161 0)
(0.679321 -24.3071 0)
(-14.2867 -55.0695 0)
)
;

boundaryField
{
    movingWall
    {
        type            calculated;
        value           nonuniform List<vector> 
20
(
(0 -367.532 0)
(0 -380.49 0)
(0 -369.414 0)
(0 -358.717 0)
(0 -350.706 0)
(0 -344.261 0)
(0 -338.517 0)
(0 -333.198 0)
(0 -328.245 0)
(0 -323.63 0)
(0 -319.361 0)
(0 -315.47 0)
(0 -312.05 0)
(0 -309.118 0)
(0 -307.122 0)
(0 -305.073 0)
(0 -308.264 0)
(0 -299.133 0)
(0 -359.389 0)
(0 -239.211 0)
)
;
    }
    fixedWalls
    {
        type            calculated;
        value           uniform (-0 0 0);
    }
    frontAndBack
    {
        type            empty;
    }
}


// ************************************************************************* //
