/*--------------------------------*- C++ -*----------------------------------*\
| =========                 |                                                 |
| \\      /  F ield         | OpenFOAM: The Open Source CFD Toolbox           |
|  \\    /   O peration     | Version:  2506                                  |
|   \\  /    A nd           | Website:  www.openfoam.com                      |
|    \\/     M anipulation  |                                                 |
\*---------------------------------------------------------------------------*/
FoamFile
{
    version     2.0;
    format      ascii;
    arch        "LSB;label=32;scalar=64";
    class       volScalarField;
    location    "1";
    object      Lambda2Field;
}
// * * * * * * * * * * * * * * * * * * * * * * * * * * * * * * * * * * * * * //

dimensions      [0 0 -2 0 0 0 0];

internalField   nonuniform List<scalar> 
400
(
0.0111168
0.0457129
0.102208
0.135404
0.151533
0.152801
0.147646
0.14242
0.145534
0.165574
0.171638
0.217892
0.297018
0.348858
0.397551
0.424231
0.394995
0.308473
0.159241
0.0497588
0.0439515
0.0988118
0.140518
0.167438
0.179207
0.178678
0.16888
0.152029
0.130539
0.108351
0.0916245
0.0893303
0.114733
0.181123
0.282496
0.390854
0.455401
0.436771
0.343539
0.157925
0.0970734
0.135188
0.166926
0.182216
0.19148
0.192727
0.185695
0.171025
0.150666
0.129081
0.113151
0.116389
0.154533
0.238163
0.363221
0.499184
0.591725
0.601448
0.513182
0.324451
0.132487
0.162195
0.181195
0.192128
0.200392
0.205677
0.206445
0.202622
0.195651
0.190261
0.195135
0.224116
0.293431
0.414487
0.582963
0.757153
0.856441
0.863586
0.730746
0.454305
0.153839
0.178995
0.19371
0.202952
0.212191
0.223151
0.235078
0.248378
0.265379
0.29181
0.337947
0.419875
0.55654
0.763252
1.03765
1.31787
1.43907
1.38625
1.08273
0.643725
0.160937
0.187806
0.203552
0.213608
0.225995
0.245116
0.271819
0.308754
0.361514
0.439105
0.557482
0.740805
1.02232
1.44026
2.00328
2.62141
2.88382
2.58246
1.64772
1.09148
0.159776
0.190726
0.209395
0.222452
0.239598
0.26821
0.312469
0.379474
0.481292
0.638025
0.879224
1.25473
1.8601
2.83411
4.24695
5.92452
6.76381
5.38597
2.4003
2.36132
0.154338
0.188709
0.209893
0.225997
0.248064
0.286682
0.350594
0.453887
0.62009
0.888886
1.32792
2.07001
3.4315
5.88254
9.81345
14.6808
16.8858
11.2572
1.5798
1.50547
0.146148
0.181981
0.203678
0.22089
0.245995
0.293052
0.376413
0.519705
0.763401
1.18043
1.91993
3.34506
6.39886
12.6819
22.3726
30.5956
35.2292
29.3248
4.72834
-3.87524
0.133735
0.170519
0.189748
0.204412
0.228538
0.279852
0.378893
0.560303
0.885134
1.47247
2.61645
5.12879
10.6394
19.1869
24.5129
24.1216
31.4778
43.145
37.4167
-3.25414
0.114522
0.154469
0.167911
0.174975
0.192835
0.242305
0.349974
0.560837
0.955964
1.70802
3.20001
6.69522
12.7492
12.5509
-5.70227
-37.9285
-38.3682
6.60592
52.6965
49.687
0.0749779
0.133773
0.139499
0.133804
0.140505
0.181995
0.28954
0.515373
0.957603
1.81276
3.45631
6.72307
9.86994
-2.18876
-52.1415
-109.072
-125.339
-85.6016
20.7946
123.737
0.0290192
0.109867
0.107349
0.0864472
0.0796635
0.111768
0.21707
0.449424
0.903497
1.77029
3.40796
6.053
6.74929
-10.7973
-62.9609
-115.259
-122.849
-113.435
-45.1105
133.154
0
0.0844545
0.0780978
0.0427457
0.0264632
0.0562689
0.166338
0.409604
0.867504
1.69335
3.18165
5.5408
6.21796
-5.50219
-43.0638
-73.4613
-67.3928
-59.1882
-49.1156
98.3609
-0.0994492
0.0680404
0.0578744
0.0138497
-0.000700783
0.0393469
0.165551
0.428453
0.901858
1.68221
2.94536
4.87579
5.95744
0.275725
-14.8859
-29.2125
-25.201
-11.6853
-33.1455
57.9431
0
0
0.0268781
0.000494236
0.00297608
0.0682096
0.226193
0.512608
0.993841
1.73775
2.79973
4.12644
4.99612
2.96566
-2.13648
-7.86507
-4.2394
-0.781296
-19.594
18.8213
0
0.0573798
0
0
-0.0111991
0
0.154537
0.50692
1.05938
1.83791
2.78228
3.69812
4.06251
2.53371
-1.1371
-4.59703
-1.35698
-9.97614
0
29.7758
0
0
0
0
0
0
0
0.0565414
0.951778
2.03419
3.09171
3.58529
2.79424
0
-5.62128
-12.5618
-17.3778
-31.0392
11.9678
267.595
9.71013
0
0
0
0
0
0
0
0
0.160984
1.50406
2.27172
0.917138
-2.25657
-9.7132
-20.5415
-31.5058
-16.6106
-127.945
968.281
3227.35
-583.939
-679.594
-363.945
-169.171
-92.0337
-60.6919
-43.0639
-31.5314
-23.7244
-18.913
-15.4757
-14.9643
-13.8746
-32.9231
0
0
0
-218.654
1617.08
)
;

boundaryField
{
    movingWall
    {
        type            calculated;
        value           nonuniform List<scalar> 
20
(
1604.5
0
0
0
0
0
0
0
0
0
0
0
0
0
0
0
-99.4069
0
-1340.56
2876.13
)
;
    }
    fixedWalls
    {
        type            calculated;
        value           nonuniform List<scalar> 
60
(
0
0.0302341
0.0725384
0.0993306
0.119563
0.129664
0.135267
0.140287
0.144876
0.142998
0.124097
0.052188
0
0
-0.42217
0
0
0
31.8116
6854.14
0.0049843
0.118602
0.294056
0.470093
0.673131
1.3179
1.50279
0
0
-1.69604
20.3212
71.8587
92.8857
16.1097
0
0
54.4801
749.7
3160.34
2180.34
0
0.0325323
0.0825081
0.115465
0.138927
0.149171
0.153789
0.160519
0.18427
0.245199
0.290685
0.358293
0.535892
0.557554
0.532635
0.463315
0.351594
0.241173
0.120362
0.00425079
)
;
    }
    frontAndBack
    {
        type            empty;
    }
}


// ************************************************************************* //
