/*--------------------------------*- C++ -*----------------------------------*\
| =========                 |                                                 |
| \\      /  F ield         | OpenFOAM: The Open Source CFD Toolbox           |
|  \\    /   O peration     | Version:  2506                                  |
|   \\  /    A nd           | Website:  www.openfoam.com                      |
|    \\/     M anipulation  |                                                 |
\*---------------------------------------------------------------------------*/
FoamFile
{
    version     2.0;
    format      ascii;
    arch        "LSB;label=32;scalar=64";
    class       volScalarField;
    location    "0.9";
    object      p;
}
// * * * * * * * * * * * * * * * * * * * * * * * * * * * * * * * * * * * * * //

dimensions      [0 2 -2 0 0 0 0];

internalField   nonuniform List<scalar> 
400
(
-2.52645e-06
-0.00288544
-0.00827648
-0.0145048
-0.0195825
-0.0216532
-0.019133
-0.0108764
0.00360593
0.0238338
0.00286333
-4.55889e-05
-0.00431093
-0.00895696
-0.012671
-0.013991
-0.0115671
-0.00436581
0.00810815
0.0255121
0.00834739
0.00413442
-0.000295962
-0.00438215
-0.00741938
-0.00831156
-0.00597053
0.000467987
0.0114468
0.0267079
0.0151134
0.00886016
0.00332539
-0.00108017
-0.00412406
-0.00498333
-0.00278433
0.00317017
0.0132457
0.0272229
0.0215742
0.0130114
0.00590882
0.000706406
-0.00272905
-0.00377727
-0.00172563
0.00398105
0.0136309
0.0270211
0.0261282
0.0151352
0.00619659
-8.42157e-05
-0.00411223
-0.00541032
-0.00337678
0.00243172
0.0122337
0.0258296
0.0269747
0.0134252
0.002468
-0.00503368
-0.00969138
-0.0111254
-0.00880219
-0.00236045
0.00836225
0.0231664
0.0218106
0.00548785
-0.00763984
-0.0163682
-0.0214902
-0.0227054
-0.0195286
-0.0116646
0.0010057
0.0182949
0.00735597
-0.0121052
-0.0275504
-0.0373399
-0.0424692
-0.0427461
-0.0377605
-0.0273035
-0.0112993
0.010111
-0.0214166
-0.0446072
-0.0624765
-0.0728333
-0.0769859
-0.074972
-0.0665772
-0.0517702
-0.0305415
-0.00291323
0.0469791
0.0677985
0.0829964
0.091724
0.0943435
0.0920843
0.086712
0.0802515
0.074787
0.0719569
0.0454471
0.063354
0.0764336
0.0840361
0.086553
0.0850885
0.0811401
0.076306
0.0719825
0.0691394
0.0442075
0.0599549
0.0715227
0.0783584
0.0807998
0.0797721
0.0765019
0.0722194
0.0677276
0.0636069
0.0432923
0.0578241
0.0685854
0.0750209
0.0773629
0.0763617
0.0730406
0.0683814
0.0627484
0.0565922
0.0424854
0.0565872
0.0671459
0.073532
0.0758413
0.0746661
0.0708895
0.0653344
0.0580506
0.0495503
0.0416165
0.0561977
0.0673072
0.0741688
0.076706
0.0753622
0.0709328
0.0641589
0.0548885
0.0438508
0.040441
0.0566749
0.0693704
0.0775212
0.0808253
0.0795686
0.074494
0.0663216
0.0547822
0.0409503
0.0385346
0.0579582
0.0736859
0.0843797
0.0894234
0.0888912
0.0834676
0.0738774
0.0597746
0.0427128
0.0351987
0.0598465
0.0806543
0.0958289
0.104286
0.105747
0.100745
0.0899684
0.0729761
0.0519804
0.0294062
0.0619555
0.0907336
0.113363
0.128051
0.133877
0.130964
0.119769
0.0996213
0.0736297
-0.0706346
-0.098406
-0.11853
-0.12823
-0.129457
-0.122778
-0.108449
-0.086812
-0.057979
-0.0217351
-0.143726
-0.17708
-0.198592
-0.20508
-0.199941
-0.184917
-0.161229
-0.129895
-0.0912102
-0.0445537
-0.243565
-0.283582
-0.30415
-0.302475
-0.285227
-0.256533
-0.219256
-0.175352
-0.125234
-0.0675741
-0.379242
-0.426534
-0.440355
-0.421158
-0.382559
-0.332779
-0.276871
-0.217645
-0.155224
-0.0870515
-0.569984
-0.621008
-0.61371
-0.559988
-0.486318
-0.406313
-0.326838
-0.250601
-0.176402
-0.0996552
-0.856465
-0.891499
-0.830025
-0.71351
-0.586777
-0.467314
-0.361235
-0.268691
-0.185352
-0.103614
-1.31973
-1.2719
-1.09001
-0.870066
-0.670207
-0.504736
-0.373132
-0.268527
-0.181074
-0.0993615
-2.14123
-1.79777
-1.36973
-0.999392
-0.712901
-0.504162
-0.355958
-0.248475
-0.164485
-0.0889721
-3.78782
-2.4659
-1.54595
-1.00475
-0.659397
-0.439035
-0.299162
-0.20567
-0.136118
-0.0744755
-6.55338
-3.07046
-1.42374
-0.793499
-0.481806
-0.308749
-0.209636
-0.147195
-0.101245
-0.0589437
0.020435
0.0639361
0.104261
0.138402
0.163568
0.177731
0.180086
0.170391
0.147302
0.114975
0.00916814
0.0657551
0.120644
0.170419
0.211152
0.239169
0.251928
0.247535
0.222906
0.183062
-0.00219292
0.0678597
0.138766
0.207334
0.268772
0.317467
0.348197
0.355799
0.333169
0.285136
-0.0112183
0.0712038
0.158123
0.247553
0.334706
0.412371
0.472009
0.503122
0.49034
0.434767
-0.0160171
0.0761097
0.177272
0.287884
0.404751
0.520594
0.62421
0.698303
0.712944
0.656199
-0.0161848
0.0815402
0.193284
0.322998
0.471277
0.633973
0.80054
0.948526
1.02812
0.995763
-0.0131084
0.0850375
0.201898
0.34568
0.523251
0.738642
0.988955
1.25416
1.47032
1.53956
-0.00951769
0.0829594
0.197376
0.345797
0.543081
0.807575
1.15532
1.58779
2.07458
2.47441
-0.00837642
0.0710221
0.172415
0.308834
0.500439
0.780843
1.19725
1.82119
2.83598
4.26704
-0.0104671
0.050717
0.130594
0.238841
0.392791
0.628627
1.01797
1.75157
3.52092
7.12667
)
;

boundaryField
{
    movingWall
    {
        type            zeroGradient;
    }
    fixedWalls
    {
        type            zeroGradient;
    }
    frontAndBack
    {
        type            empty;
    }
}


// ************************************************************************* //
