/*--------------------------------*- C++ -*----------------------------------*\
| =========                 |                                                 |
| \\      /  F ield         | OpenFOAM: The Open Source CFD Toolbox           |
|  \\    /   O peration     | Version:  2506                                  |
|   \\  /    A nd           | Website:  www.openfoam.com                      |
|    \\/     M anipulation  |                                                 |
\*---------------------------------------------------------------------------*/
FoamFile
{
    version     2.0;
    format      ascii;
    arch        "LSB;label=32;scalar=64";
    class       surfaceScalarField;
    location    "0.9";
    object      phi;
}
// * * * * * * * * * * * * * * * * * * * * * * * * * * * * * * * * * * * * * //

dimensions      [0 3 -1 0 0 0 0];

oriented        oriented;

internalField   nonuniform List<scalar> 
760
(
6.59696e-09
-6.58712e-09
4.24341e-09
2.35321e-09
-1.643e-08
2.06732e-08
-5.77137e-08
4.12837e-08
-1.17732e-07
6.0018e-08
-1.91344e-07
7.3612e-08
-2.70463e-07
7.91193e-08
-3.44337e-07
7.38748e-08
-3.99965e-07
5.56274e-08
2.30238e-08
-4.22989e-07
-1.93592e-09
-4.65117e-09
-3.21472e-08
3.25642e-08
-1.06786e-07
9.53114e-08
-2.32169e-07
1.66667e-07
-4.05452e-07
2.33302e-07
-6.14528e-07
2.82688e-07
-8.38162e-07
3.02754e-07
-1.04666e-06
2.82369e-07
-1.2033e-06
2.12272e-07
8.71783e-08
-1.26745e-06
-1.98932e-08
1.5242e-08
-9.52477e-08
1.07919e-07
-2.41478e-07
2.41541e-07
-4.65402e-07
3.90591e-07
-7.62114e-07
5.30014e-07
-1.11293e-06
6.33507e-07
-1.48444e-06
6.7426e-07
-1.82895e-06
6.26875e-07
-2.08682e-06
4.70144e-07
1.92166e-07
-2.1918e-06
-4.19871e-08
5.72287e-08
-1.74863e-07
2.40794e-07
-4.10162e-07
4.7684e-07
-7.51388e-07
7.31816e-07
-1.18878e-06
9.67406e-07
-1.69552e-06
1.14025e-06
-2.22551e-06
1.20424e-06
-2.71324e-06
1.11461e-06
-3.07668e-06
8.33582e-07
3.39919e-07
-3.22443e-06
-6.68796e-08
1.24108e-07
-2.68044e-07
4.41959e-07
-6.10242e-07
8.19038e-07
-1.09085e-06
1.21242e-06
-1.69203e-06
1.56858e-06
-2.37606e-06
1.82429e-06
-3.08231e-06
1.91049e-06
-3.72668e-06
1.75897e-06
-4.20469e-06
1.31159e-06
5.3513e-07
-4.3999e-06
-9.50214e-08
2.19129e-07
-3.76101e-07
7.23038e-07
-8.45225e-07
1.28816e-06
-1.49148e-06
1.85867e-06
-2.28557e-06
2.36268e-06
-3.1753e-06
2.71402e-06
-4.0826e-06
2.81779e-06
-4.90314e-06
2.57951e-06
-5.5096e-06
1.91805e-06
7.85884e-07
-5.76035e-06
-1.27988e-07
3.47117e-07
-5.03964e-07
1.09901e-06
-1.12476e-06
1.90896e-06
-1.96876e-06
2.70266e-06
-2.99129e-06
3.38521e-06
-4.12131e-06
3.84404e-06
-5.25976e-06
3.95623e-06
-6.28024e-06
3.59999e-06
-7.03258e-06
2.67039e-06
1.10383e-06
-7.35052e-06
-1.6842e-07
5.15537e-07
-6.60265e-07
1.59086e-06
-1.4651e-06
2.7138e-06
-2.54638e-06
3.78395e-06
-3.83856e-06
4.67739e-06
-5.24625e-06
5.25174e-06
-6.6457e-06
5.35568e-06
-7.88779e-06
4.84209e-06
-8.80191e-06
3.58451e-06
1.50271e-06
-9.20079e-06
-2.20239e-07
7.35775e-07
-8.57953e-07
2.22857e-06
-1.88966e-06
3.74551e-06
-3.25545e-06
5.14973e-06
-4.85964e-06
6.28157e-06
-6.57523e-06
6.96733e-06
-8.251e-06
7.03144e-06
-9.71844e-06
6.30953e-06
-1.07956e-05
4.66165e-06
1.99281e-06
-1.12857e-05
-2.89561e-07
1.02534e-06
-1.11671e-06
3.05572e-06
-2.43121e-06
5.06001e-06
-4.13209e-06
6.85062e-06
-6.07716e-06
8.22663e-06
-8.09808e-06
8.98826e-06
-1.00173e-05
8.95063e-06
-1.16602e-05
7.95246e-06
-1.28572e-05
5.85865e-06
-1.34303e-05
2.56595e-06
-4.03186e-07
-1.9803e-08
-3.48705e-07
-5.44806e-08
-2.73834e-07
-7.48711e-08
-1.9261e-07
-8.12236e-08
-1.17022e-07
-7.55886e-08
-5.59545e-08
-6.10675e-08
-1.46992e-08
-4.12557e-08
5.25289e-09
-1.99527e-08
6.84626e-09
-1.59384e-09
6.84614e-09
-1.21081e-06
-7.6448e-08
-1.05693e-06
-2.08359e-07
-8.46275e-07
-2.85529e-07
-6.17889e-07
-3.09611e-07
-4.04263e-07
-2.89215e-07
-2.28433e-07
-2.36898e-07
-1.02869e-07
-1.6682e-07
-2.96295e-08
-9.31916e-08
-1.11141e-09
-3.01118e-08
5.73439e-09
-2.09812e-06
-1.70128e-07
-1.84463e-06
-4.61849e-07
-1.49723e-06
-6.32937e-07
-1.11884e-06
-6.87997e-07
-7.61193e-07
-6.46864e-07
-4.60398e-07
-5.37693e-07
-2.35821e-07
-3.91397e-07
-9.1399e-08
-2.37613e-07
-1.85297e-08
-1.02981e-07
-1.27956e-08
-3.09318e-06
-3.01384e-07
-2.73675e-06
-8.18271e-07
-2.24584e-06
-1.12385e-06
-1.70669e-06
-1.22715e-06
-1.19019e-06
-1.16337e-06
-7.46336e-07
-9.81548e-07
-4.03264e-07
-7.34469e-07
-1.69778e-07
-4.71099e-07
-4.00807e-08
-2.32677e-07
-5.28764e-08
-4.2307e-06
-4.70581e-07
-3.76524e-06
-1.28373e-06
-3.11846e-06
-1.77063e-06
-2.40007e-06
-1.94554e-06
-1.70152e-06
-1.86192e-06
-1.08932e-06
-1.59375e-06
-6.03802e-07
-1.21998e-06
-2.62231e-07
-8.1267e-07
-6.44522e-08
-4.30455e-07
-1.17328e-07
-5.5541e-06
-6.76829e-07
-4.97188e-06
-1.86595e-06
-4.15213e-06
-2.59038e-06
-3.2287e-06
-2.86898e-06
-2.3163e-06
-2.77431e-06
-1.50226e-06
-2.40779e-06
-8.43997e-07
-1.87825e-06
-3.7141e-07
-1.28526e-06
-9.24129e-08
-7.09452e-07
-2.09741e-07
-7.11145e-06
-9.15904e-07
-6.40635e-06
-2.57104e-06
-5.39506e-06
-3.60168e-06
-4.23567e-06
-4.02837e-06
-3.06947e-06
-3.94051e-06
-2.01038e-06
-3.46688e-06
-1.13955e-06
-2.74909e-06
-5.05096e-07
-1.91971e-06
-1.26285e-07
-1.08826e-06
-3.36026e-07
-8.94009e-06
-1.1766e-06
-8.11497e-06
-3.39617e-06
-6.90049e-06
-4.81615e-06
-5.47595e-06
-5.4529e-06
-4.01127e-06
-5.4052e-06
-2.65372e-06
-4.82443e-06
-1.51727e-06
-3.88553e-06
-6.77113e-07
-2.75986e-06
-1.70126e-07
-1.59525e-06
-5.06152e-07
-1.10271e-05
-1.43517e-06
-1.01083e-05
-4.31501e-06
-8.70445e-06
-6.21997e-06
-7.00448e-06
-7.15287e-06
-5.20352e-06
-7.20616e-06
-3.48804e-06
-6.5399e-06
-2.0175e-06
-5.35608e-06
-9.09078e-07
-3.86828e-06
-2.30327e-07
-2.274e-06
-7.36479e-07
-1.32172e-05
-1.64829e-06
-1.22809e-05
-5.25131e-06
-1.0765e-05
-7.73594e-06
-8.83767e-06
-9.08016e-06
-6.70135e-06
-9.34248e-06
-4.58086e-06
-8.66039e-06
-2.69674e-06
-7.24019e-06
-1.23384e-06
-5.33118e-06
-3.17005e-07
-3.19084e-06
-1.05349e-06
-3.56658e-07
1.382e-06
-1.35236e-06
4.05143e-06
-2.88777e-06
6.59542e-06
-4.79901e-06
8.76185e-06
-6.88657e-06
1.03142e-05
-8.94848e-06
1.10502e-05
-1.08087e-05
1.08108e-05
-1.23318e-05
9.47563e-06
-1.34176e-05
6.9444e-06
3.11792e-06
-1.39696e-05
-4.13238e-07
1.79523e-06
-1.52362e-06
5.16181e-06
-3.15127e-06
8.22306e-06
-5.04798e-06
1.06586e-05
-6.95978e-06
1.2226e-05
-8.67973e-06
1.27701e-05
-1.00797e-05
1.22108e-05
-1.1116e-05
1.0512e-05
-1.1808e-05
7.63634e-06
3.49953e-06
-1.21896e-05
-4.93941e-07
2.28918e-06
-1.73932e-06
6.40719e-06
-3.41678e-06
9.90053e-06
-5.16318e-06
1.2405e-05
-6.68102e-06
1.37438e-05
-7.79808e-06
1.38872e-05
-8.48076e-06
1.28935e-05
-8.81228e-06
1.08435e-05
-8.94893e-06
7.77299e-06
3.61247e-06
-9.06188e-06
-6.23714e-07
2.91289e-06
-2.03384e-06
7.81731e-06
-3.67853e-06
1.15452e-05
-5.06732e-06
1.37938e-05
-5.91264e-06
1.45891e-05
-6.14975e-06
1.41243e-05
-5.89347e-06
1.26372e-05
-5.37199e-06
1.0322e-05
-4.86438e-06
7.26537e-06
3.39801e-06
-4.64991e-06
-8.43261e-07
3.75615e-06
-2.42772e-06
9.40177e-06
-3.85186e-06
1.29694e-05
-4.56009e-06
1.4502e-05
-4.40185e-06
1.44309e-05
-3.51781e-06
1.32403e-05
-2.20595e-06
1.13253e-05
-8.16631e-07
8.93267e-06
3.04579e-07
6.14416e-06
2.86784e-06
8.34747e-07
-1.20085e-06
4.957e-06
-2.85746e-06
1.10584e-05
-3.66369e-06
1.37756e-05
-3.23346e-06
1.40718e-05
-1.75397e-06
1.29514e-05
3.57325e-07
1.1129e-05
2.65185e-06
9.03082e-06
4.74066e-06
6.84386e-06
6.30383e-06
4.58099e-06
2.11562e-06
7.05605e-06
-1.68514e-06
6.64214e-06
-2.9858e-06
1.2359e-05
-2.47155e-06
1.32613e-05
-4.01512e-07
1.20017e-05
2.53257e-06
1.00173e-05
5.6987e-06
7.96283e-06
8.64147e-06
6.08805e-06
1.10683e-05
4.41707e-06
1.27808e-05
2.86843e-06
1.2988e-06
1.35976e-05
-2.02583e-06
8.66797e-06
-1.81458e-06
1.21478e-05
9.58655e-07
1.04881e-05
4.88415e-06
8.07621e-06
8.92907e-06
5.97242e-06
1.25564e-05
4.33546e-06
1.55389e-05
3.10557e-06
1.78026e-05
2.15344e-06
1.93168e-05
1.35422e-06
5.94435e-07
2.00211e-05
-7.19256e-07
9.38723e-06
3.2065e-06
8.22204e-06
8.62993e-06
5.06467e-06
1.35853e-05
3.1208e-06
1.75786e-05
1.97915e-06
2.06259e-05
1.28817e-06
2.28738e-05
8.57632e-07
2.44603e-05
5.66933e-07
2.54707e-05
3.43892e-07
1.42863e-07
2.59222e-05
9.38723e-06
1.76093e-05
2.26739e-05
2.57947e-05
2.77739e-05
2.90621e-05
2.99197e-05
3.04866e-05
3.08305e-05
3.09734e-05
-1.3873e-05
-1.74487e-06
-1.31394e-05
-5.98494e-06
-1.18209e-05
-9.05436e-06
-9.9988e-06
-1.09023e-05
-7.82116e-06
-1.15201e-05
-5.50988e-06
-1.09717e-05
-3.33432e-06
-9.41575e-06
-1.56295e-06
-7.10255e-06
-4.10737e-07
-4.34305e-06
-1.46422e-06
-1.22399e-05
-1.69452e-06
-1.19126e-05
-6.31221e-06
-1.11336e-05
-9.83344e-06
-9.84273e-06
-1.21931e-05
-8.06364e-06
-1.32992e-05
-5.9433e-06
-1.3092e-05
-3.74971e-06
-1.16093e-05
-1.82343e-06
-9.02883e-06
-4.95653e-07
-5.67083e-06
-1.95988e-06
-9.23832e-06
-1.51809e-06
-9.38769e-06
-6.16284e-06
-9.3181e-06
-9.90303e-06
-8.81942e-06
-1.26918e-05
-7.74913e-06
-1.43695e-05
-6.11123e-06
-1.47299e-05
-4.10434e-06
-1.36162e-05
-2.10978e-06
-1.10234e-05
-6.03121e-07
-7.17748e-06
-2.563e-06
-4.91037e-06
-1.25763e-06
-5.53263e-06
-5.54058e-06
-6.24855e-06
-9.18711e-06
-6.73203e-06
-1.22083e-05
-6.67022e-06
-1.44313e-05
-5.86393e-06
-1.55362e-05
-4.34099e-06
-1.51392e-05
-2.4336e-06
-1.29308e-05
-7.53708e-07
-8.85738e-06
-3.3167e-06
5.39335e-07
-9.62215e-07
-4.68234e-07
-4.53301e-06
-1.90871e-06
-7.74663e-06
-3.41961e-06
-1.06974e-05
-4.57471e-06
-1.32762e-05
-4.96021e-06
-1.51507e-05
-4.32677e-06
-1.57726e-05
-2.78861e-06
-1.4469e-05
-9.83475e-07
-1.06625e-05
-4.30018e-06
6.7673e-06
-6.73463e-07
5.53489e-06
-3.3006e-06
3.58289e-06
-5.79463e-06
1.2072e-06
-8.32174e-06
-1.17418e-06
-1.08948e-05
-3.01705e-06
-1.33078e-05
-3.75716e-06
-1.50325e-05
-3.07411e-06
-1.5152e-05
-1.33037e-06
-1.24062e-05
-5.63055e-06
1.33423e-05
-4.18123e-07
1.20886e-05
-2.04687e-06
9.96469e-06
-3.67076e-06
7.11751e-06
-5.47456e-06
3.80824e-06
-7.58555e-06
5.16365e-07
-1.0016e-05
-2.01449e-06
-1.25016e-05
-2.91059e-06
-1.42559e-05
-1.75408e-06
-1.35628e-05
-7.38463e-06
1.98138e-05
-2.10828e-07
1.87449e-05
-9.77899e-07
1.68496e-05
-1.77546e-06
1.4112e-05
-2.73704e-06
1.05428e-05
-4.01626e-06
6.31518e-06
-5.78839e-06
1.97798e-06
-8.16444e-06
-1.31166e-06
-1.09663e-05
-1.93074e-06
-1.29437e-05
-9.31538e-06
2.57757e-05
-6.42912e-08
2.50599e-05
-2.62124e-07
2.37596e-05
-4.75118e-07
2.17734e-05
-7.50888e-07
1.89217e-05
-1.16457e-06
1.49854e-05
-1.85202e-06
9.87215e-06
-3.05122e-06
4.06939e-06
-5.1635e-06
-3.53436e-07
-8.52085e-06
-9.66881e-06
3.09091e-05
3.0647e-05
3.01718e-05
2.9421e-05
2.82564e-05
2.64044e-05
2.33532e-05
1.81897e-05
9.66881e-06
)
;

boundaryField
{
    movingWall
    {
        type            calculated;
        value           uniform 0;
    }
    fixedWalls
    {
        type            calculated;
        value           uniform 0;
    }
    frontAndBack
    {
        type            empty;
    }
}


// ************************************************************************* //
