/*--------------------------------*- C++ -*----------------------------------*\
| =========                 |                                                 |
| \\      /  F ield         | OpenFOAM: The Open Source CFD Toolbox           |
|  \\    /   O peration     | Version:  2506                                  |
|   \\  /    A nd           | Website:  www.openfoam.com                      |
|    \\/     M anipulation  |                                                 |
\*---------------------------------------------------------------------------*/
FoamFile
{
    version     2.0;
    format      ascii;
    arch        "LSB;label=32;scalar=64";
    class       volVectorField;
    location    "0.9";
    object      U;
}
// * * * * * * * * * * * * * * * * * * * * * * * * * * * * * * * * * * * * * //

dimensions      [0 1 -1 0 0 0 0];

internalField   nonuniform List<vector> 
400
(
(0.000129987 -0.000128927 0)
(0.000243344 -5.17586e-05 0)
(-7.32312e-05 0.000130554 0)
(-0.000976294 0.000309331 0)
(-0.00247166 0.000444582 0)
(-0.00445403 0.000518872 0)
(-0.00672841 0.000524086 0)
(-0.00901815 0.000457922 0)
(-0.0109733 0.000322608 0)
(-0.012187 0.000125862 0)
(6.00193e-05 -0.000248018 0)
(-0.000232691 0.000245693 0)
(-0.00159559 0.00109968 0)
(-0.00429611 0.00194658 0)
(-0.00837253 0.00260095 0)
(-0.0136238 0.00295541 0)
(-0.0195968 0.0029487 0)
(-0.0255978 0.00255606 0)
(-0.0307184 0.00178574 0)
(-0.0338898 0.000684555 0)
(-0.000113898 4.42597e-05 0)
(-0.00108027 0.00159673 0)
(-0.0037827 0.00375805 0)
(-0.00842264 0.00587734 0)
(-0.0149952 0.00752543 0)
(-0.0232192 0.00840366 0)
(-0.0324458 0.00831885 0)
(-0.0416526 0.00717898 0)
(-0.0494789 0.00499449 0)
(-0.0543114 0.00189699 0)
(-0.000298102 0.000926293 0)
(-0.00201215 0.00435099 0)
(-0.00620635 0.00844938 0)
(-0.0129217 0.0123402 0)
(-0.0220236 0.0153285 0)
(-0.0331153 0.016869 0)
(-0.0453642 0.0165765 0)
(-0.0574699 0.0142478 0)
(-0.0677008 0.00988448 0)
(-0.0739999 0.0037381 0)
(-0.00047267 0.00249375 0)
(-0.00294372 0.00879715 0)
(-0.00870343 0.0155654 0)
(-0.0176057 0.0217265 0)
(-0.0293248 0.0263299 0)
(-0.0432987 0.0285696 0)
(-0.058493 0.0278423 0)
(-0.0733491 0.0238124 0)
(-0.0858208 0.016471 0)
(-0.0934864 0.00622042 0)
(-0.000640769 0.00482701 0)
(-0.00387333 0.015225 0)
(-0.0112557 0.0255735 0)
(-0.0224578 0.0346004 0)
(-0.0369222 0.0411013 0)
(-0.0538731 0.0440133 0)
(-0.0720427 0.04252 0)
(-0.0896144 0.0361619 0)
(-0.104265 0.0249382 0)
(-0.113276 0.00943642 0)
(-0.000813723 0.00803715 0)
(-0.00484005 0.0239792 0)
(-0.0139355 0.0390205 0)
(-0.0275851 0.0516338 0)
(-0.0449629 0.0603446 0)
(-0.0650311 0.0638458 0)
(-0.0862526 0.0611407 0)
(-0.106549 0.0516914 0)
(-0.123357 0.0355519 0)
(-0.133732 0.0135354 0)
(-0.00100712 0.012297 0)
(-0.00590787 0.0355298 0)
(-0.0168769 0.0566035 0)
(-0.0331824 0.0736476 0)
(-0.0536714 0.0848887 0)
(-0.0769849 0.0888035 0)
(-0.101281 0.0842889 0)
(-0.12423 0.0708233 0)
(-0.143095 0.048602 0)
(-0.154817 0.0187116 0)
(-0.00124057 0.0178734 0)
(-0.00716177 0.050548 0)
(-0.0202612 0.0792503 0)
(-0.0394977 0.101653 0)
(-0.0632769 0.115666 0)
(-0.0898302 0.119623 0)
(-0.116981 0.112463 0)
(-0.142198 0.093857 0)
(-0.162717 0.0642863 0)
(-0.175579 0.0251631 0)
(-0.00154136 0.0251706 0)
(-0.00872194 0.0699967 0)
(-0.0243335 0.108187 0)
(-0.0468144 0.136828 0)
(-0.0739057 0.153552 0)
(-0.10329 0.156748 0)
(-0.132448 0.145698 0)
(-0.1588 0.120585 0)
(-0.179857 0.0824093 0)
(-0.193162 0.0329574 0)
(-0.0122396 -0.000104721 0)
(-0.0110949 -0.000314035 0)
(-0.00913965 -0.000464422 0)
(-0.00679901 -0.000539822 0)
(-0.00445991 -0.000534742 0)
(-0.0024308 -0.000453263 0)
(-0.000920907 -0.000308236 0)
(-3.14508e-05 -0.000122352 0)
(0.000260927 6.06469e-05 0)
(0.000133009 0.000131813 0)
(-0.0340056 -0.00058978 0)
(-0.0309865 -0.00174713 0)
(-0.0258683 -0.00258549 0)
(-0.0197595 -0.00302047 0)
(-0.0136477 -0.0030289 0)
(-0.00829401 -0.00264323 0)
(-0.00418152 -0.0019456 0)
(-0.00150359 -0.00106616 0)
(-0.000188393 -0.000206086 0)
(7.0147e-05 0.000265248 0)
(-0.0544734 -0.00166606 0)
(-0.0498562 -0.00489947 0)
(-0.0420407 -0.00724979 0)
(-0.0326916 -0.00849439 0)
(-0.0232749 -0.00858622 0)
(-0.0149047 -0.00763498 0)
(-0.0082732 -0.00588313 0)
(-0.0036558 -0.0036829 0)
(-0.00101563 -0.00150045 0)
(-9.81471e-05 4.8278e-06 0)
(-0.0742167 -0.00330862 0)
(-0.0682142 -0.00970241 0)
(-0.0580195 -0.0143702 0)
(-0.0457471 -0.016896 0)
(-0.0332555 -0.0172098 0)
(-0.0219621 -0.0155432 0)
(-0.0127625 -0.0123677 0)
(-0.00605571 -0.00832387 0)
(-0.00192984 -0.00417571 0)
(-0.000276753 -0.000828905 0)
(-0.0937976 -0.0054961 0)
(-0.0865774 -0.0161449 0)
(-0.0742074 -0.0239841 0)
(-0.0591674 -0.0283502 0)
(-0.0436571 -0.0291369 0)
(-0.0293891 -0.0267149 0)
(-0.0174937 -0.0218164 0)
(-0.00855387 -0.0153979 0)
(-0.00284947 -0.00852705 0)
(-0.000445706 -0.00233155 0)
(-0.11376 -0.00822928 0)
(-0.105476 -0.0243444 0)
(-0.0910703 -0.0363544 0)
(-0.0733135 -0.0432778 0)
(-0.0547186 -0.0449258 0)
(-0.0373137 -0.0417874 0)
(-0.0225186 -0.0348555 0)
(-0.0111681 -0.025417 0)
(-0.00378557 -0.0148662 0)
(-0.000610299 -0.00458676 0)
(-0.134513 -0.0114825 0)
(-0.125362 -0.0344359 0)
(-0.109076 -0.0518169 0)
(-0.0886344 -0.0622298 0)
(-0.0668337 -0.0653079 0)
(-0.046049 -0.0615857 0)
(-0.0280607 -0.052284 0)
(-0.0140356 -0.0390309 0)
(-0.0048019 -0.0235998 0)
(-0.000786581 -0.00772351 0)
(-0.156069 -0.0151583 0)
(-0.146372 -0.0464806 0)
(-0.128516 -0.0706738 0)
(-0.105549 -0.0857994 0)
(-0.0804838 -0.0911473 0)
(-0.0560565 -0.087147 0)
(-0.0344892 -0.0751574 0)
(-0.0173917 -0.057143 0)
(-0.00600275 -0.0353352 0)
(-0.000998242 -0.0119627 0)
(-0.177496 -0.0190291 0)
(-0.167829 -0.0603222 0)
(-0.1491 -0.0930084 0)
(-0.124163 -0.114455 0)
(-0.0960654 -0.123345 0)
(-0.0678595 -0.119724 0)
(-0.0422864 -0.104883 0)
(-0.0215625 -0.0810567 0)
(-0.00753378 -0.051013 0)
(-0.00127783 -0.0176739 0)
(-0.195886 -0.0226541 0)
(-0.187254 -0.0752995 0)
(-0.169106 -0.118268 0)
(-0.143622 -0.148101 0)
(-0.113486 -0.162499 0)
(-0.0818494 -0.160618 0)
(-0.0519951 -0.143242 0)
(-0.0269752 -0.112623 0)
(-0.00959935 -0.0720756 0)
(-0.00167223 -0.0254582 0)
(-0.00194204 0.0344433 0)
(-0.0107211 0.0942972 0)
(-0.0292939 0.143555 0)
(-0.0551388 0.178621 0)
(-0.0849505 0.197084 0)
(-0.115701 0.197871 0)
(-0.144632 0.181194 0)
(-0.169477 0.148273 0)
(-0.188582 0.100946 0)
(-0.200668 0.0413716 0)
(-0.00250219 0.0455108 0)
(-0.0133418 0.122481 0)
(-0.0352812 0.183052 0)
(-0.0640751 0.223055 0)
(-0.0948694 0.24071 0)
(-0.123901 0.23642 0)
(-0.148566 0.212217 0)
(-0.16757 0.170977 0)
(-0.180857 0.115612 0)
(-0.189071 0.0484994 0)
(-0.00338271 0.0584936 0)
(-0.0170439 0.15398 0)
(-0.0427296 0.224475 0)
(-0.0733016 0.265927 0)
(-0.101919 0.278622 0)
(-0.124508 0.265882 0)
(-0.139485 0.232544 0)
(-0.147447 0.183533 0)
(-0.150635 0.122754 0)
(-0.152081 0.0524416 0)
(-0.00494704 0.0744248 0)
(-0.0227493 0.189561 0)
(-0.0523075 0.266515 0)
(-0.082001 0.30351 0)
(-0.103143 0.305574 0)
(-0.112702 0.280804 0)
(-0.111589 0.237545 0)
(-0.10327 0.182581 0)
(-0.0926278 0.120202 0)
(-0.084963 0.0519315 0)
(-0.00791826 0.095315 0)
(-0.0318373 0.230082 0)
(-0.0639417 0.306324 0)
(-0.086904 0.329987 0)
(-0.0921762 0.31498 0)
(-0.0805425 0.275745 0)
(-0.0571777 0.22377 0)
(-0.0288731 0.166464 0)
(-0.00264316 0.107321 0)
(0.0148984 0.0465142 0)
(-0.0134523 0.124673 0)
(-0.0454663 0.275131 0)
(-0.0743308 0.337405 0)
(-0.0790359 0.336443 0)
(-0.0568483 0.299434 0)
(-0.016088 0.246672 0)
(0.0330217 0.190384 0)
(0.0813829 0.136262 0)
(0.121563 0.0856114 0)
(0.147344 0.0369024 0)
(-0.0222093 0.168517 0)
(-0.0611229 0.319427 0)
(-0.0707895 0.345922 0)
(-0.0385229 0.310239 0)
(0.0228624 0.252402 0)
(0.0960474 0.193085 0)
(0.168182 0.140578 0)
(0.23101 0.0963251 0)
(0.279309 0.0587389 0)
(0.309109 0.0249494 0)
(-0.0290502 0.23318 0)
(-0.0620254 0.344062 0)
(-0.0194489 0.308014 0)
(0.0711581 0.238778 0)
(0.174388 0.173476 0)
(0.271475 0.12156 0)
(0.354139 0.0828988 0)
(0.419321 0.0542015 0)
(0.466189 0.0319836 0)
(0.493961 0.0132377 0)
(0.00660633 0.28364 0)
(0.0187046 0.300474 0)
(0.154198 0.205713 0)
(0.303786 0.130515 0)
(0.425301 0.08186 0)
(0.518749 0.0514722 0)
(0.588787 0.0325259 0)
(0.639432 0.0201914 0)
(0.673765 0.0114691 0)
(0.693276 0.00451948 0)
(0.30431 0.145102 0)
(0.407631 0.125661 0)
(0.582962 0.0698436 0)
(0.708904 0.0364287 0)
(0.781804 0.0193429 0)
(0.827105 0.0106367 0)
(0.857107 0.00609529 0)
(0.877149 0.00353888 0)
(0.890018 0.00190436 0)
(0.896968 0.000674963 0)
(-0.204059 -0.0251346 0)
(-0.197995 -0.0890841 0)
(-0.183077 -0.143296 0)
(-0.160075 -0.183544 0)
(-0.130554 -0.206129 0)
(-0.0971985 -0.208557 0)
(-0.0636213 -0.19022 0)
(-0.0339126 -0.152701 0)
(-0.0123957 -0.0995837 0)
(-0.00223315 -0.0358653 0)
(-0.192464 -0.0255509 0)
(-0.190576 -0.0979558 0)
(-0.182339 -0.162083 0)
(-0.166395 -0.21341 0)
(-0.142224 -0.246743 0)
(-0.111032 -0.257173 0)
(-0.0760303 -0.241419 0)
(-0.0422187 -0.199006 0)
(-0.0160381 -0.13283 0)
(-0.00301599 -0.0489097 0)
(-0.154414 -0.0238399 0)
(-0.157758 -0.099649 0)
(-0.159351 -0.170048 0)
(-0.155446 -0.231093 0)
(-0.142707 -0.276622 0)
(-0.119627 -0.299067 0)
(-0.0876311 -0.291207 0)
(-0.0517425 -0.248441 0)
(-0.0208256 -0.170915 0)
(-0.004164 -0.0647039 0)
(-0.0851371 -0.0204844 0)
(-0.0939831 -0.0935389 0)
(-0.107471 -0.164859 0)
(-0.11993 -0.232122 0)
(-0.125165 -0.28942 0)
(-0.117973 -0.327277 0)
(-0.0960632 -0.333932 0)
(-0.0623801 -0.298241 0)
(-0.0274838 -0.213928 0)
(-0.00602785 -0.0841771 0)
(0.0175378 -0.0162167 0)
(0.00388846 -0.0803328 0)
(-0.0215566 -0.146226 0)
(-0.0524688 -0.21398 0)
(-0.0809191 -0.279644 0)
(-0.0981071 -0.333898 0)
(-0.0963249 -0.36157 0)
(-0.0729565 -0.343412 0)
(-0.0370818 -0.261507 0)
(-0.00931421 -0.109104 0)
(0.152584 -0.0117771 0)
(0.135755 -0.0620654 0)
(0.100899 -0.116452 0)
(0.0532632 -0.177461 0)
(0.000206856 -0.244524 0)
(-0.047911 -0.311523 0)
(-0.0781192 -0.363564 0)
(-0.0786598 -0.374912 0)
(-0.0501178 -0.311352 0)
(-0.0150794 -0.142577 0)
(0.315754 -0.00770641 0)
(0.298048 -0.0417165 0)
(0.258898 -0.0803225 0)
(0.201037 -0.127468 0)
(0.128561 -0.186068 0)
(0.0494119 -0.255714 0)
(-0.0221433 -0.327567 0)
(-0.0653676 -0.376987 0)
(-0.0626468 -0.355665 0)
(-0.0235076 -0.18989 0)
(0.500174 -0.00430858 0)
(0.48423 -0.0226901 0)
(0.447718 -0.0444728 0)
(0.390567 -0.0732604 0)
(0.312164 -0.113543 0)
(0.213911 -0.170135 0)
(0.103214 -0.244626 0)
(-0.000159053 -0.326678 0)
(-0.0559117 -0.372781 0)
(-0.0280096 -0.255034 0)
(0.697318 -0.00181248 0)
(0.685794 -0.00847866 0)
(0.659287 -0.0166751 0)
(0.616173 -0.0283283 0)
(0.552624 -0.0466685 0)
(0.463128 -0.0772882 0)
(0.34097 -0.128769 0)
(0.183838 -0.210942 0)
(0.0356554 -0.313831 0)
(0.014083 -0.296757 0)
(0.898071 -0.000420447 0)
(0.893383 -0.00158081 0)
(0.882982 -0.00305953 0)
(0.865784 -0.00532729 0)
(0.839065 -0.00936194 0)
(0.797362 -0.0173335 0)
(0.72803 -0.0338476 0)
(0.60314 -0.0677884 0)
(0.421851 -0.126097 0)
(0.310648 -0.147393 0)
)
;

boundaryField
{
    movingWall
    {
        type            fixedValue;
        value           uniform (1 0 0);
    }
    fixedWalls
    {
        type            noSlip;
    }
    frontAndBack
    {
        type            empty;
    }
}


// ************************************************************************* //
