/*--------------------------------*- C++ -*----------------------------------*\
| =========                 |                                                 |
| \\      /  F ield         | OpenFOAM: The Open Source CFD Toolbox           |
|  \\    /   O peration     | Version:  2506                                  |
|   \\  /    A nd           | Website:  www.openfoam.com                      |
|    \\/     M anipulation  |                                                 |
\*---------------------------------------------------------------------------*/
FoamFile
{
    version     2.0;
    format      ascii;
    arch        "LSB;label=32;scalar=64";
    class       volScalarField;
    location    "1.475";
    object      p;
}
// * * * * * * * * * * * * * * * * * * * * * * * * * * * * * * * * * * * * * //

dimensions      [0 2 -2 0 0 0 0];

internalField   nonuniform List<scalar> 
6400
(
1.52432e-06
-1.13156e-06
-6.42623e-05
-0.000184692
-0.000347445
-0.000539343
-0.000748931
-0.000966528
-0.00118421
-0.00139566
-0.00159591
-0.0017811
-0.00194827
-0.00209519
-0.00222021
-0.00232212
-0.00240006
-0.00245342
-0.0024818
-0.00248492
-0.00246261
-0.00241476
-0.00234133
-0.00224232
-0.00211775
-0.00196774
-0.00179242
-0.00159202
-0.00136688
-0.00111742
-0.000844219
-0.000548003
-0.000229684
0.00010963
0.00046862
0.000845733
0.00123918
0.00164691
0.00206664
0.00249584
0.00293172
0.00337129
0.00381136
0.00424855
0.00467935
0.00510015
0.00550726
0.00589702
0.00626579
0.00661005
0.00692643
0.00721178
0.00746325
0.00767832
0.00785488
0.00799126
0.00808629
0.00813934
0.00815032
0.00811977
0.00804881
0.0079392
0.00779327
0.00761399
0.00740488
0.00717005
0.00691413
0.00664227
0.00636007
0.00607361
0.00578939
0.00551427
0.0052555
0.00502064
0.00481743
0.00465353
0.00453583
0.00446952
0.00445677
0.00448453
6.23528e-06
2.64505e-06
-5.31962e-05
-0.000155252
-0.000291541
-0.000452611
-0.000629782
-0.000815242
-0.00100226
-0.00118525
-0.00135967
-0.00152184
-0.00166888
-0.00179852
-0.00190903
-0.00199907
-0.00206767
-0.00211408
-0.00213777
-0.00213835
-0.00211556
-0.00206921
-0.0019992
-0.00190546
-0.00178802
-0.00164694
-0.00148235
-0.00129449
-0.00108367
-0.000850321
-0.000595002
-0.000318427
-2.14737e-05
0.000294795
0.000629118
0.000980028
0.00134583
0.00172462
0.00211424
0.00251234
0.00291635
0.00332348
0.00373079
0.00413518
0.00453342
0.00492218
0.00529813
0.00565789
0.00599818
0.00631578
0.00660766
0.00687096
0.00710313
0.00730193
0.00746548
0.00759232
0.00768144
0.00773235
0.00774504
0.00772008
0.00765857
0.00756219
0.00743317
0.00727426
0.00708876
0.00688046
0.00665365
0.00641304
0.00616374
0.00591125
0.00566137
0.00542019
0.00519397
0.00498911
0.00481193
0.00466839
0.00456339
0.00450047
0.00448427
0.00451222
6.97828e-05
5.82778e-05
2.00748e-06
-9.23157e-05
-0.000214794
-0.000358006
-0.000515031
-0.000679425
-0.000845504
-0.00100842
-0.0011641
-0.0013092
-0.00144101
-0.00155737
-0.00165657
-0.00173729
-0.00179848
-0.00183938
-0.00185939
-0.00185806
-0.00183507
-0.00179019
-0.00172326
-0.00163419
-0.00152296
-0.00138961
-0.00123426
-0.00105712
-0.000858476
-0.000638737
-0.000398433
-0.000138244
0.000140993
0.000438271
0.000752401
0.00108199
0.00142545
0.00178097
0.00214654
0.00251995
0.00289877
0.00328041
0.00366211
0.00404098
0.00441398
0.00477804
0.00513003
0.00546683
0.00578537
0.00608268
0.00635593
0.00660251
0.00682004
0.00700647
0.0071601
0.0072796
0.00736407
0.0074131
0.00742674
0.00740557
0.00735067
0.00726365
0.00714664
0.00700224
0.00683357
0.00664418
0.00643807
0.00621959
0.00599348
0.00576477
0.00553871
0.00532077
0.00511649
0.00493142
0.004771
0.00464026
0.00454326
0.00448332
0.00446766
0.00449998
0.000191269
0.000160577
9.51749e-05
-6.81481e-08
-0.000118183
-0.000253015
-0.000398806
-0.000550231
-0.000702524
-0.000851538
-0.000993735
-0.00112616
-0.0012464
-0.00135246
-0.00144276
-0.00151606
-0.00157135
-0.00160788
-0.00162503
-0.00162235
-0.00159949
-0.0015562
-0.00149228
-0.00140762
-0.00130216
-0.00117592
-0.00102898
-0.000861511
-0.000673776
-0.000466138
-0.000239087
6.74559e-06
0.00027058
0.000551476
0.00084832
0.0011598
0.00148442
0.00182047
0.00216606
0.0025191
0.0028773
0.00323822
0.00359924
0.00395761
0.00431049
0.00465496
0.00498805
0.00530682
0.00560835
0.00588985
0.00614863
0.00638223
0.00658841
0.00676525
0.00691113
0.00702482
0.00710551
0.00715281
0.00716682
0.00714809
0.00709769
0.00701718
0.00690858
0.0067744
0.00661758
0.00644149
0.00624988
0.00604686
0.00583681
0.00562438
0.00541442
0.00521186
0.00502173
0.00484898
0.00469845
0.00457467
0.00448138
0.00442199
0.00440475
0.0044354
0.000357236
0.000298328
0.000217055
0.000115081
-4.39147e-06
-0.000136329
-0.000275967
-0.000419012
-0.000561563
-0.000700168
-0.000831855
-0.000954109
-0.00106483
-0.00116229
-0.00124507
-0.00131206
-0.00136236
-0.00139522
-0.0014101
-0.00140653
-0.00138418
-0.00134276
-0.00128206
-0.00120195
-0.00110233
-0.000983192
-0.00084458
-0.00068662
-0.000509524
-0.000313611
-9.93157e-05
0.000132795
0.00038201
0.000647464
0.000928121
0.00122276
0.00152998
0.00184818
0.00217557
0.00251019
0.00284987
0.00319229
0.00353497
0.00387529
0.00421055
0.00453796
0.00485468
0.00515791
0.00544486
0.00571285
0.00595932
0.0061819
0.00637847
0.00654715
0.00668644
0.00679514
0.00687249
0.00691812
0.00693214
0.0069151
0.00686803
0.00679243
0.00669024
0.00656386
0.0064161
0.00625015
0.00606957
0.0058782
0.00568015
0.00547975
0.00528144
0.00508977
0.00490927
0.00474442
0.00459958
0.00447884
0.0043857
0.00432354
0.0043001
0.00432087
0.000555407
0.000462676
0.000360588
0.000247276
0.000121821
-1.17473e-05
-0.000149518
-0.000288135
-0.00042451
-0.000555872
-0.000679812
-0.000794269
-0.000897497
-0.000988053
-0.00106476
-0.00112663
-0.0011729
-0.00120293
-0.00121619
-0.00121228
-0.00119086
-0.00115165
-0.00109443
-0.00101904
-0.000925357
-0.00081333
-0.000682959
-0.000534322
-0.000367578
-0.000182987
1.9085e-05
0.000238142
0.000473551
0.000724528
0.000990123
0.00126921
0.00156048
0.00186245
0.00217343
0.00249156
0.00281479
0.00314091
0.00346755
0.00379222
0.00411231
0.00442513
0.00472798
0.00501811
0.00529286
0.00554961
0.00578588
0.00599938
0.00618804
0.00635004
0.0064839
0.00658847
0.00666299
0.00670711
0.00672092
0.00670495
0.00666019
0.00658807
0.00649049
0.00636972
0.00622846
0.00606976
0.00589699
0.00571378
0.00552401
0.0053317
0.00514099
0.00495605
0.00478104
0.00462003
0.00447696
0.00435554
0.00425904
0.00419067
0.00415665
0.00416108
0.000774975
0.00064521
0.000518947
0.00039077
0.000255616
0.000116669
-2.28692e-05
-0.000160486
-0.000293863
-0.000420874
-0.000539643
-0.000648566
-0.000746281
-0.00083165
-0.00090373
-0.00096174
-0.00100504
-0.00103311
-0.00104551
-0.00104187
-0.00102188
-0.000985273
-0.000931828
-0.000861356
-0.000773716
-0.000668809
-0.000546591
-0.000407082
-0.000250381
-7.66771e-05
0.000113737
0.000320445
0.000542898
0.000780401
0.0010321
0.00129696
0.00157378
0.00186116
0.00215753
0.00246113
0.00277
0.00308203
0.00339496
0.00370636
0.00401373
0.00431446
0.0046059
0.0048854
0.00515032
0.00539811
0.00562634
0.00583273
0.00601524
0.00617208
0.00630176
0.00640315
0.00647546
0.00651834
0.00653184
0.00651646
0.00647315
0.00640329
0.00630868
0.00619154
0.00605444
0.0059003
0.00573236
0.00555406
0.00536907
0.00518118
0.00499426
0.00481219
0.0046388
0.00447783
0.00433285
0.00420724
0.00410406
0.0040263
0.00397809
0.00396165
0.00100641
0.000838025
0.000685449
0.000539881
0.000392239
0.000245021
0.000100828
-3.85944e-05
-0.000171625
-0.000296739
-0.000412584
-0.000518001
-0.000612008
-0.000693783
-0.000762637
-0.000817999
-0.000859392
-0.000886412
-0.000898719
-0.000896008
-0.000878001
-0.000844451
-0.000795133
-0.000729843
-0.000648408
-0.00055069
-0.000436591
-0.000306073
-0.000159163
4.02443e-06
0.000183277
0.000378267
0.000588537
0.000813485
0.00105235
0.00130421
0.00156795
0.00184228
0.00212571
0.00241659
0.00271304
0.00301305
0.00331441
0.00361479
0.00391174
0.00420271
0.00448509
0.00475626
0.00501363
0.00525465
0.0054769
0.0056781
0.0058562
0.0060094
0.00613619
0.00623539
0.00630622
0.00634825
0.00636152
0.00634646
0.00630397
0.00623538
0.00614242
0.00602721
0.00589225
0.00574036
0.00557463
0.00539837
0.00521508
0.00502836
0.00484185
0.00465921
0.00448399
0.00431966
0.00416949
0.00403655
0.00392373
0.00383377
0.00376858
0.00372822
0.00124147
0.00103392
0.000853782
0.000689106
0.000526973
0.00036931
0.000218218
7.47465e-05
-6.01148e-05
-0.000185398
-0.000300247
-0.000403942
-0.000495869
-0.00057552
-0.000642467
-0.000696353
-0.000736878
-0.000763774
-0.000776794
-0.000775706
-0.000760278
-0.000730283
-0.000685498
-0.000625705
-0.0005507
-0.000460299
-0.000354348
-0.000232744
-9.54403e-05
5.75307e-05
0.000226045
0.000409869
0.000608642
0.000821861
0.00104887
0.00128884
0.00154076
0.00180343
0.00207548
0.00235531
0.00264115
0.00293105
0.00322287
0.00351433
0.00380302
0.00408643
0.00436198
0.00462705
0.00487904
0.0051154
0.00533368
0.00553158
0.00570701
0.00585812
0.00598336
0.00608149
0.00615165
0.0061934
0.00620667
0.00619187
0.00614981
0.00608177
0.00598939
0.00587475
0.00574025
0.00558862
0.00542284
0.00524613
0.00506183
0.0048734
0.00468433
0.00449805
0.00431793
0.00414722
0.00398893
0.00384588
0.00372083
0.00361635
0.003532
0.00346578
0.001473
0.00122637
0.00101808
0.000833208
0.000655194
0.000485491
0.000325779
0.000176487
3.80299e-05
-8.91453e-05
-0.000204654
-0.000308188
-0.000399493
-0.000478365
-0.00054464
-0.00059818
-0.000638861
-0.000666549
-0.000681105
-0.000682366
-0.000670151
-0.000644258
-0.000604466
-0.000550542
-0.000482247
-0.000399349
-0.000301637
-0.000188937
-6.11225e-05
8.1862e-05
0.000239987
0.000413118
0.000600997
0.000803225
0.00101925
0.00124834
0.00148959
0.00174191
0.002004
0.00227435
0.00255127
0.00283286
0.00311703
0.00340156
0.00368406
0.00396203
0.00423288
0.00449399
0.00474274
0.00497652
0.00519284
0.00538935
0.00556388
0.00571452
0.00583963
0.00593789
0.00600839
0.00605056
0.00606429
0.00604988
0.00600811
0.00594014
0.00584758
0.00573242
0.00559699
0.00544395
0.0052762
0.00509686
0.00490918
0.00471651
0.00452221
0.00432957
0.00414182
0.00396201
0.00379301
0.0036374
0.00349789
0.00337693
0.00327181
0.00317852
0.0016947
0.00140948
0.00117291
0.000967225
0.000772414
0.000589538
0.000419925
0.000263447
0.000119979
-1.05148e-05
-0.000128085
-0.000232813
-0.00032479
-0.000404111
-0.000470868
-0.000525138
-0.000566967
-0.00059636
-0.00061328
-0.000617642
-0.000609312
-0.000588112
-0.000553824
-0.000506194
-0.000444948
-0.000369804
-0.000280489
-0.000176753
-5.83843e-05
7.47666e-05
0.00022277
0.000385595
0.000563092
0.000754968
0.000960778
0.0011799
0.00141154
0.00165469
0.00190813
0.00217046
0.00244002
0.00271499
0.00299333
0.00327282
0.0035511
0.00382565
0.00409389
0.00435314
0.00460074
0.00483401
0.0050504
0.00524747
0.00542294
0.00557481
0.00570133
0.0058011
0.00587305
0.00591656
0.0059314
0.00591778
0.00587637
0.00580828
0.00571504
0.00559856
0.00546111
0.00530529
0.00513394
0.00495011
0.00475699
0.00455785
0.00435596
0.00415453
0.00395669
0.00376539
0.00358333
0.003413
0.00325709
0.00311802
0.00299089
0.00286979
0.00190095
0.00157789
0.0013132
0.00108644
0.000874292
0.00067749
0.000497058
0.000332356
0.000182761
4.77895e-05
-7.30175e-05
-0.000180109
-0.000273905
-0.000354789
-0.000423101
-0.000479119
-0.000523058
-0.000555056
-0.000575177
-0.000583411
-0.000579671
-0.000563799
-0.000535573
-0.000494719
-0.000440924
-0.000373854
-0.000293167
-0.000198533
-8.96485e-05
3.37353e-05
0.000171793
0.000324605
0.00049213
0.000674191
0.000870455
0.00108041
0.00130337
0.00153841
0.00178442
0.00204005
0.00230372
0.00257366
0.00284785
0.00312411
0.00340006
0.00367318
0.00394084
0.00420031
0.00444884
0.00468371
0.00490222
0.00510185
0.00528019
0.00543511
0.00556473
0.00566751
0.00574227
0.00578822
0.00580504
0.00579283
0.00575214
0.00568401
0.00558986
0.00547154
0.00533128
0.0051716
0.00499531
0.00480542
0.00460508
0.00439752
0.00418596
0.00397358
0.00376345
0.00355848
0.0033613
0.00317432
0.0030003
0.0028417
0.00269156
0.00254215
0.00208663
0.00172662
0.00143421
0.00118639
0.000956648
0.000745461
0.000553583
0.000379893
0.000223306
8.29236e-05
-4.20966e-05
-0.000152556
-0.000249186
-0.000332645
-0.000403503
-0.000462234
-0.000509211
-0.000544701
-0.000568867
-0.000581766
-0.000583351
-0.000573481
-0.000551927
-0.000518391
-0.000472518
-0.000413914
-0.000342165
-0.000256854
-0.000157582
-4.39934e-05
8.41953e-05
0.000227178
0.000385033
0.000557703
0.000744971
0.000946443
0.00116153
0.00138941
0.00162907
0.00187922
0.00213835
0.00240474
0.0026764
0.00295114
0.0032266
0.0035002
0.00376927
0.00403102
0.0042826
0.00452118
0.00474395
0.00494823
0.00513148
0.00529141
0.00542597
0.00553347
0.00561256
0.00566231
0.00568223
0.0056723
0.00563296
0.00556512
0.00547013
0.00534976
0.00520617
0.00504185
0.00485957
0.00466232
0.00445325
0.00423556
0.0040125
0.00378725
0.00356286
0.00334225
0.00312806
0.00292268
0.00272901
0.00254963
0.00237561
0.0021975
0.00224705
0.00185108
0.00153149
0.00126279
0.00101545
0.000789656
0.000585933
0.000402714
0.000238484
9.19506e-05
-3.80945e-05
-0.000152786
-0.000253149
-0.000340099
-0.000414423
-0.000476781
-0.000527696
-0.000567557
-0.000596616
-0.000614991
-0.000622669
-0.000619517
-0.0006053
-0.000579687
-0.000542278
-0.000492613
-0.000430198
-0.000354525
-0.00026509
-0.000161432
-4.31486e-05
9.00747e-05
0.000238442
0.000402018
0.000580713
0.000774249
0.000982144
0.00120369
0.00143795
0.00168372
0.00193956
0.00220377
0.0024744
0.00274928
0.003026
0.00330197
0.00357443
0.00384052
0.00409728
0.00434174
0.00457097
0.0047821
0.00497244
0.00513949
0.00528103
0.00539515
0.00548034
0.00553547
0.00555989
0.00555341
0.00551632
0.00544942
0.00535394
0.00523159
0.00508445
0.00491498
0.00472593
0.0045203
0.00430123
0.00407197
0.00383581
0.00359595
0.00335552
0.0031175
0.00288457
0.00265917
0.00244442
0.0022431
0.00204436
0.0018371
0.00237779
0.00194693
0.00160083
0.00131161
0.0010468
0.000806365
0.000590587
0.000397485
0.000225133
7.18639e-05
-6.3881e-05
-0.000183548
-0.000288441
-0.000379714
-0.000458362
-0.000525219
-0.00058095
-0.000626053
-0.000660862
-0.000685544
-0.000700115
-0.000704449
-0.00069829
-0.000681276
-0.00065295
-0.000612781
-0.00056019
-0.00049457
-0.00041531
-0.000321833
-0.000213614
-9.02086e-05
4.87187e-05
0.000203366
0.00037377
0.000559779
0.000761028
0.000976917
0.0012066
0.00144896
0.00170261
0.00196592
0.00223695
0.00251352
0.00279321
0.00307337
0.00335119
0.00362369
0.0038878
0.00414039
0.00437836
0.00459867
0.00479842
0.00497489
0.00512563
0.00524854
0.00534184
0.00540422
0.0054348
0.00543322
0.00539961
0.00533459
0.0052393
0.00511534
0.00496473
0.0047899
0.00459359
0.0043788
0.00414872
0.00390667
0.00365599
0.0034
0.00314192
0.00288484
0.00263156
0.00238463
0.00214743
0.00192301
0.00169869
0.00146175
0.00247473
0.00201008
0.00163822
0.00132895
0.00104696
0.00079198
0.000564088
0.000360896
0.000180081
1.96158e-05
-0.000122388
-0.000247673
-0.000357804
-0.000454165
-0.000537946
-0.000610142
-0.000671548
-0.000722763
-0.000764187
-0.000796034
-0.00081834
-0.000830976
-0.000833663
-0.000825996
-0.000807456
-0.000777434
-0.000735259
-0.00068022
-0.000611594
-0.000528678
-0.000430816
-0.000317428
-0.000188038
-4.23086e-05
0.000119934
0.000298669
0.000493657
0.000704413
0.000930191
0.00116997
0.00142243
0.00168598
0.00195871
0.00223845
0.00252275
0.00280892
0.00309403
0.00337503
0.00364869
0.00391173
0.00416085
0.0043928
0.00460445
0.00479283
0.00495526
0.00508933
0.00519305
0.00526483
0.00530358
0.00530868
0.00528008
0.00521823
0.00512412
0.00499925
0.00484557
0.00466546
0.00446166
0.00423721
0.00399536
0.00373951
0.00347311
0.00319963
0.00292243
0.00264477
0.00236961
0.00209968
0.00183869
0.00159
0.00133915
0.0010718
0.00253393
0.00203666
0.00163987
0.00131109
0.0010123
0.000743
0.000503053
0.000289676
0.000100165
-6.78542e-05
-0.000216582
-0.000348043
-0.000464055
-0.000566216
-0.000655899
-0.00073425
-0.000802181
-0.000860378
-0.000909303
-0.000949205
-0.000980132
-0.00100194
-0.00101433
-0.00101684
-0.00100888
-0.000989761
-0.000958708
-0.000914904
-0.000857501
-0.000785665
-0.000698604
-0.000595588
-0.000475994
-0.000339336
-0.000185297
-1.37533e-05
0.000175189
0.000381171
0.000603558
0.000841423
0.00109354
0.00135834
0.00163398
0.00191828
0.00220875
0.00250266
0.00279701
0.0030886
0.00337407
0.00364996
0.00391275
0.00415895
0.00438518
0.00458819
0.004765
0.00491293
0.00502966
0.00511333
0.00516256
0.00517648
0.00515479
0.00509775
0.00500618
0.00488144
0.00472541
0.00454042
0.00432922
0.00409487
0.00384072
0.00357028
0.00328715
0.00299497
0.00269731
0.00239763
0.00209913
0.00180476
0.00151861
0.00124444
0.000965961
0.000667256
0.00255164
0.00202296
0.00160211
0.00125446
0.000939341
0.000656029
0.000404174
0.000180606
-1.77483e-05
-0.000193595
-0.000349436
-0.00048757
-0.000610053
-0.000718687
-0.000815015
-0.000900321
-0.000975622
-0.00104168
-0.00109902
-0.0011479
-0.00118839
-0.00122032
-0.00124334
-0.00125694
-0.00126045
-0.0012531
-0.001234
-0.00120221
-0.00115677
-0.00109669
-0.00102103
-0.000928909
-0.000819549
-0.000692303
-0.000546696
-0.000382453
-0.000199531
1.8488e-06
0.000221175
0.000457629
0.000710068
0.000977008
0.00125662
0.00154674
0.00184488
0.00214823
0.00245372
0.00275801
0.0030576
0.0033488
0.0036279
0.00389113
0.00413481
0.0043554
0.00454958
0.00471433
0.00484701
0.0049454
0.0050078
0.00503304
0.00502056
0.00497035
0.00488306
0.00475987
0.00460258
0.00441345
0.00419523
0.00395104
0.00368431
0.00339871
0.00309802
0.00278609
0.00246674
0.00214371
0.00182044
0.00150017
0.00118746
0.000886479
0.00057914
0.000247876
0.00252427
0.00196543
0.00152147
0.00115564
0.000824731
0.000527783
0.000264235
3.05397e-05
-0.000176736
-0.00036062
-0.000523911
-0.000669168
-0.000798674
-0.000914427
-0.00101813
-0.00111118
-0.0011947
-0.00126953
-0.00133622
-0.00139505
-0.00144609
-0.00148914
-0.00152381
-0.00154951
-0.0015655
-0.0015709
-0.00156472
-0.00154588
-0.00151329
-0.0014658
-0.00140233
-0.00132182
-0.00122333
-0.00110604
-0.0009693
-0.000812674
-0.000635957
-0.000439217
-0.000222825
1.25214e-05
0.000265783
0.000535556
0.000820063
0.00111716
0.00142434
0.00173876
0.00205725
0.00237636
0.00269239
0.00300148
0.00329963
0.00358282
0.00384704
0.0040884
0.00430323
0.0044881
0.00464
0.00475632
0.004835
0.0048745
0.00487392
0.00483301
0.00475214
0.00463234
0.00447525
0.00428308
0.00405856
0.00380488
0.00352559
0.00322449
0.0029056
0.00257302
0.00223086
0.00188318
0.00153374
0.00118611
0.000845364
0.000516147
0.000178514
-0.000186796
0.00244837
0.00186069
0.00139461
0.00101135
0.00066524
0.000355089
8.01197e-05
-0.000163583
-0.000379805
-0.000571892
-0.000742929
-0.000895728
-0.00103279
-0.00115629
-0.00126807
-0.00136967
-0.00146228
-0.0015468
-0.00162382
-0.00169363
-0.00175628
-0.00181154
-0.00185895
-0.00189787
-0.00192746
-0.00194673
-0.00195457
-0.00194978
-0.00193109
-0.00189723
-0.00184692
-0.00177894
-0.00169216
-0.00158558
-0.00145837
-0.00130991
-0.00113982
-0.000947986
-0.00073463
-0.000500307
-0.000245935
2.71768e-05
0.000317322
0.000622391
0.000939881
0.0012669
0.00160021
0.00193621
0.00227106
0.00260065
0.00292074
0.00322698
0.00351503
0.00378062
0.00401965
0.00422829
0.00440307
0.00454095
0.00463942
0.00469656
0.00471107
0.00468237
0.00461055
0.0044964
0.0043414
0.0041477
0.00391798
0.0036555
0.00336392
0.00304723
0.00270971
0.00235573
0.00198976
0.0016162
0.0012392
0.00086272
0.000492372
0.000133357
-0.000236203
-0.000637342
0.00232063
0.00170551
0.00121836
0.000818457
0.000457778
0.000134905
-0.000151168
-0.000404716
-0.000629875
-0.0008303
-0.00100935
-0.00117009
-0.00131522
-0.00144708
-0.00156767
-0.00167862
-0.00178121
-0.00187639
-0.00196476
-0.00204663
-0.00212201
-0.00219064
-0.002252
-0.00230537
-0.0023498
-0.00238419
-0.00240731
-0.00241782
-0.00241428
-0.00239526
-0.00235929
-0.00230498
-0.00223099
-0.00213613
-0.00201937
-0.00187988
-0.00171708
-0.00153068
-0.00132072
-0.00108758
-0.00083205
-0.000555313
-0.000258989
5.48685e-05
0.000383773
0.00072481
0.00107466
0.00142961
0.00178564
0.00213841
0.00248341
0.00281597
0.00313135
0.00342487
0.00369199
0.00392839
0.00413011
0.00429361
0.00441587
0.00449451
0.0045278
0.00451473
0.00445507
0.00434934
0.00419882
0.00400552
0.00377211
0.00350188
0.00319862
0.00286653
0.00251015
0.0021342
0.00174351
0.00134291
0.000936977
0.000530093
0.000128496
-0.000262018
-0.000665357
-0.00110442
0.00213792
0.0014968
0.000989677
0.000573968
0.000199405
-0.000135674
-0.000432496
-0.000695699
-0.000929761
-0.00113864
-0.00132596
-0.00149502
-0.00164872
-0.00178958
-0.0019197
-0.00204083
-0.00215432
-0.00226114
-0.00236194
-0.00245701
-0.00254633
-0.00262958
-0.00270619
-0.00277534
-0.00283599
-0.00288692
-0.00292674
-0.00295398
-0.00296703
-0.00296426
-0.00294405
-0.00290477
-0.00284491
-0.00276303
-0.0026579
-0.00252845
-0.00237391
-0.00219375
-0.00198781
-0.0017563
-0.00149983
-0.00121944
-0.000916634
-0.000593385
-0.000252144
0.00010417
0.000472174
0.000848054
0.0012276
0.00160627
0.00197924
0.0023415
0.00268792
0.00301335
0.00331275
0.00358128
0.00381442
0.00400805
0.00415861
0.00426315
0.00431944
0.004326
0.00428218
0.00418818
0.00404503
0.00385457
0.00361942
0.0033429
0.00302892
0.00268192
0.00230671
0.00190839
0.00149222
0.00106348
0.000627237
0.000188355
-0.000246241
-0.000670106
-0.0011093
-0.0015887
0.00189723
0.00123164
0.000705702
0.000275068
-0.000112662
-0.000459396
-0.000766589
-0.00103924
-0.00128215
-0.00149958
-0.00169543
-0.00187319
-0.00203597
-0.00218645
-0.00232685
-0.00245901
-0.00258434
-0.00270387
-0.00281822
-0.00292769
-0.00303222
-0.00313145
-0.00322471
-0.00331111
-0.00338949
-0.0034585
-0.00351662
-0.0035622
-0.00359347
-0.00360861
-0.00360579
-0.00358318
-0.00353902
-0.00347167
-0.00337963
-0.00326161
-0.00311658
-0.00294378
-0.00274282
-0.00251369
-0.0022568
-0.00197302
-0.0016637
-0.00133071
-0.000976432
-0.000603772
-0.000216149
0.000182526
0.000587884
0.000995151
0.00139921
0.00179469
0.00217602
0.00253758
0.00287378
0.00317918
0.00344864
0.00367742
0.00386131
0.00399672
0.00408082
0.0041116
0.00408791
0.00400955
0.00387724
0.00369262
0.0034582
0.00317731
0.00285398
0.00249289
0.00209915
0.00167828
0.001236
0.000778114
0.000310201
-0.000162315
-0.000631761
-0.00109098
-0.00156834
-0.00209082
0.00159575
0.000907283
0.000363747
-8.08876e-05
-0.000481034
-0.000838848
-0.00115602
-0.00143789
-0.00168959
-0.00191567
-0.00212027
-0.00230712
-0.00247951
-0.00264025
-0.0027917
-0.00293577
-0.00307393
-0.00320724
-0.00333633
-0.00346147
-0.00358258
-0.00369921
-0.00381065
-0.00391588
-0.00401364
-0.00410244
-0.00418062
-0.00424635
-0.00429769
-0.00433261
-0.00434907
-0.00434501
-0.00431843
-0.00426743
-0.00419026
-0.00408537
-0.00395143
-0.00378745
-0.00359277
-0.00336711
-0.00311066
-0.00282407
-0.00250852
-0.00216573
-0.00179799
-0.00140815
-0.000999648
-0.000576461
-0.000143109
0.000295417
0.000733703
0.001166
0.00158629
0.00198842
0.00236623
0.00271362
0.00302476
0.0032942
0.003517
0.00368885
0.00380622
0.00386647
0.00386787
0.00380973
0.00369238
0.0035172
0.00328654
0.00300371
0.00267287
0.00229889
0.00188725
0.00144389
0.000975043
0.000487082
-1.38235e-05
-0.000521647
-0.00102789
-0.00152463
-0.00204268
-0.00261132
0.00123084
0.000521182
-3.8683e-05
-0.00049636
-0.000908143
-0.00127644
-0.00160317
-0.00189403
-0.00215445
-0.00238927
-0.00260287
-0.0027992
-0.00298172
-0.00315339
-0.00331668
-0.00347357
-0.00362559
-0.00377381
-0.00391888
-0.00406103
-0.00420015
-0.00433573
-0.00446696
-0.00459273
-0.00471166
-0.00482212
-0.00492229
-0.00501017
-0.00508363
-0.00514043
-0.0051783
-0.00519495
-0.0051881
-0.0051556
-0.0050954
-0.00500567
-0.00488478
-0.00473143
-0.00454468
-0.00432395
-0.00406917
-0.00378073
-0.0034596
-0.0031073
-0.00272598
-0.00231842
-0.00188802
-0.00143881
-0.000975424
-0.000503072
-2.74512e-05
0.000445305
0.000908718
0.00135608
0.00178058
0.00217543
0.00253405
0.00285018
0.00311804
0.00333253
0.00348932
0.003585
0.00361717
0.00358454
0.00348699
0.00332552
0.0031023
0.00282056
0.00248454
0.00209933
0.00167078
0.00120527
0.000709602
0.00019077
-0.000344407
-0.00088924
-0.00143433
-0.0019709
-0.00253242
-0.00315061
0.00080006
7.09839e-05
-0.000503886
-0.00097361
-0.00139622
-0.00177439
-0.00211026
-0.00240985
-0.00267892
-0.00292257
-0.00314543
-0.00335164
-0.00354484
-0.00372812
-0.00390405
-0.0040747
-0.00424164
-0.00440595
-0.00456828
-0.00472886
-0.00488749
-0.00504364
-0.00519639
-0.00534453
-0.00548655
-0.00562068
-0.00574495
-0.00585718
-0.00595502
-0.00603604
-0.00609771
-0.00613748
-0.00615282
-0.00614127
-0.00610048
-0.00602829
-0.00592276
-0.00578225
-0.00560548
-0.00539156
-0.00514008
-0.00485116
-0.00452547
-0.00416434
-0.0037697
-0.00334421
-0.0028912
-0.00241472
-0.00191949
-0.00141089
-0.000894912
-0.000378059
0.000132709
0.000630104
0.00110664
0.00155477
0.00196708
0.00233642
0.00265611
0.0029201
0.00312315
0.00326097
0.00333037
0.00332935
0.0032572
0.00311449
0.00290309
0.00262612
0.00228784
0.00189358
0.00144952
0.000962545
0.000440042
-0.000110302
-0.000680962
-0.00126451
-0.00185057
-0.00242942
-0.00303742
-0.0037089
0.000301207
-0.000445446
-0.00103395
-0.00151468
-0.0019473
-0.00233469
-0.00267926
-0.00298734
-0.00326499
-0.00351757
-0.00374994
-0.00396644
-0.00417087
-0.00436645
-0.00455586
-0.00474123
-0.00492417
-0.00510579
-0.00528673
-0.00546718
-0.00564692
-0.00582533
-0.00600142
-0.00617386
-0.00634102
-0.00650099
-0.00665163
-0.00679058
-0.00691528
-0.00702307
-0.00711118
-0.00717678
-0.00721706
-0.00722923
-0.00721062
-0.00715873
-0.00707125
-0.00694618
-0.00678187
-0.00657705
-0.00633096
-0.00604335
-0.0057146
-0.00534573
-0.00493846
-0.00449523
-0.00401928
-0.0035146
-0.00298598
-0.00243895
-0.00187974
-0.00131523
-0.000752864
-0.00020053
0.000333575
0.0008411
0.00131372
0.00174331
0.00212216
0.00244318
0.00270007
0.00288755
0.00300148
0.00303902
0.00299874
0.00288066
0.00268626
0.00241846
0.00208153
0.00168096
0.00122329
0.000715912
0.000166859
-0.000415446
-0.0010227
-0.00164667
-0.00227588
-0.00289961
-0.00355731
-0.00428615
-0.000267699
-0.00103001
-0.00163071
-0.0021214
-0.00256315
-0.00295913
-0.00331196
-0.00362827
-0.00391442
-0.00417603
-0.00441816
-0.00464537
-0.00486159
-0.00507018
-0.00527391
-0.00547497
-0.00567502
-0.0058752
-0.00607612
-0.00627796
-0.00648045
-0.00668289
-0.00688421
-0.00708298
-0.00727745
-0.00746556
-0.00764499
-0.0078132
-0.00796743
-0.00810477
-0.0082222
-0.0083166
-0.00838484
-0.00842383
-0.00843053
-0.00840205
-0.00833571
-0.0082291
-0.00808015
-0.00788718
-0.00764901
-0.00736501
-0.00703517
-0.00666016
-0.00624139
-0.00578109
-0.00528228
-0.0047489
-0.0041857
-0.00359834
-0.00299326
-0.00237769
-0.00175955
-0.00114733
-0.000549982
2.32908e-05
0.000563186
0.00106052
0.00150645
0.0018927
0.00221179
0.00245727
0.00262391
0.00270787
0.00270685
0.00262019
0.00244885
0.00219547
0.00186423
0.00146076
0.000991937
0.00046568
-0.000109294
-0.000723769
-0.00136859
-0.00203463
-0.00270924
-0.00338057
-0.00409141
-0.00488199
-0.000908377
-0.00168436
-0.00229578
-0.00279533
-0.00324535
-0.00364925
-0.00400987
-0.00433416
-0.00462874
-0.00489947
-0.00515163
-0.00538995
-0.00561852
-0.00584082
-0.00605972
-0.00627746
-0.00649575
-0.00671574
-0.00693805
-0.00716281
-0.00738972
-0.00761802
-0.00784654
-0.00807376
-0.00829779
-0.00851645
-0.00872723
-0.00892741
-0.00911401
-0.00928388
-0.00943373
-0.00956014
-0.00965968
-0.00972887
-0.00976432
-0.00976274
-0.00972102
-0.00963631
-0.00950606
-0.00932817
-0.00910096
-0.00882336
-0.0084949
-0.00811587
-0.00768729
-0.00721108
-0.00669002
-0.00612788
-0.00552936
-0.00490015
-0.00424687
-0.00357708
-0.00289914
-0.00222217
-0.00155585
-0.000910298
-0.000295858
0.000277138
0.000798598
0.00125894
0.00164933
0.00196201
0.00219046
0.00232967
0.00237631
0.00232885
0.0021876
0.00195479
0.00163443
0.00123222
0.000755348
0.000212272
-0.000387582
-0.00103414
-0.00171732
-0.00242702
-0.00314928
-0.00387102
-0.00463866
-0.00549569
-0.00162227
-0.00240987
-0.0030305
-0.0035378
-0.0039952
-0.00440633
-0.0047743
-0.0051063
-0.00540922
-0.00568915
-0.00595158
-0.00620141
-0.00644289
-0.0066796
-0.0069145
-0.0071499
-0.00738755
-0.00762861
-0.00787371
-0.00812295
-0.00837598
-0.00863198
-0.00888972
-0.00914756
-0.0094035
-0.00965519
-0.0099
-0.010135
-0.0103569
-0.0105625
-0.0107481
-0.01091
-0.0110444
-0.0111474
-0.0112154
-0.0112446
-0.0112313
-0.0111724
-0.0110646
-0.0109055
-0.0106928
-0.0104249
-0.0101009
-0.00972047
-0.00928434
-0.00879397
-0.00825182
-0.00766142
-0.00702734
-0.00635524
-0.00565187
-0.00492504
-0.00418354
-0.00343708
-0.00269611
-0.00197167
-0.00127521
-0.000618285
-1.23542e-05
0.000531549
0.00100311
0.00139303
0.00169334
0.00189765
0.0020014
0.00200199
0.00189892
0.00169385
0.00139049
0.000994545
0.000513477
-4.37461e-05
-0.00066695
-0.00134515
-0.00206725
-0.00282208
-0.00359424
-0.00436931
-0.00519758
-0.00612608
-0.00241052
-0.00320764
-0.00383594
-0.00434984
-0.00481372
-0.00523141
-0.00560624
-0.00594567
-0.00625684
-0.00654604
-0.00681898
-0.00708071
-0.00733562
-0.00758741
-0.00783912
-0.00809314
-0.00835124
-0.00861461
-0.00888388
-0.00915914
-0.00943999
-0.00972556
-0.0100145
-0.0103052
-0.0105954
-0.0108827
-0.0111643
-0.011437
-0.0116975
-0.011942
-0.0121668
-0.0123678
-0.0125409
-0.0126818
-0.0127864
-0.0128504
-0.0128699
-0.0128409
-0.0127599
-0.0126237
-0.0124295
-0.0121752
-0.0118592
-0.0114807
-0.0110399
-0.0105377
-0.00997626
-0.00935872
-0.00868944
-0.00797398
-0.00721914
-0.00643291
-0.00562446
-0.00480406
-0.00398291
-0.00317301
-0.00238694
-0.00163757
-0.000937814
-0.000300305
0.000262975
0.000741033
0.00112421
0.00140452
0.00157593
0.00163456
0.0015789
0.00140983
0.00113065
0.000746931
0.000266345
-0.000301644
-0.0009461
-0.00165506
-0.00241635
-0.00321763
-0.00404189
-0.00487326
-0.00576619
-0.0067715
-0.00327397
-0.00407847
-0.00471288
-0.00523224
-0.00570167
-0.00612523
-0.00650644
-0.00685301
-0.0071723
-0.00747083
-0.00775447
-0.00802845
-0.00829728
-0.00856478
-0.00883407
-0.00910761
-0.00938721
-0.00967409
-0.00996888
-0.0102717
-0.010582
-0.010899
-0.0112212
-0.0115469
-0.0118738
-0.0121993
-0.0125204
-0.0128339
-0.013136
-0.0134229
-0.0136906