/*--------------------------------*- C++ -*----------------------------------*\
| =========                 |                                                 |
| \\      /  F ield         | OpenFOAM: The Open Source CFD Toolbox           |
|  \\    /   O peration     | Version:  2506                                  |
|   \\  /    A nd           | Website:  www.openfoam.com                      |
|    \\/     M anipulation  |                                                 |
\*---------------------------------------------------------------------------*/
FoamFile
{
    version     2.0;
    format      ascii;
    arch        "LSB;label=32;scalar=64";
    class       surfaceScalarField;
    location    "1.475";
    object      phi;
}
// * * * * * * * * * * * * * * * * * * * * * * * * * * * * * * * * * * * * * //

dimensions      [0 3 -1 0 0 0 0];

oriented        oriented;

internalField   nonuniform List<scalar> 
12640
(
2.17169e-10
-2.25061e-10
6.06813e-10
-3.89664e-10
9.1935e-10
-3.12488e-10
1.02443e-09
-1.0509e-10
8.64138e-10
1.60334e-10
4.19648e-10
4.44446e-10
-3.05894e-10
7.25532e-10
-1.29756e-09
9.9167e-10
-2.53417e-09
1.23658e-09
-3.99155e-09
1.45739e-09
-5.64462e-09
1.6531e-09
-7.46857e-09
1.82395e-09
-9.43942e-09
1.97084e-09
-1.15345e-08
2.09507e-09
-1.37326e-08
2.1981e-09
-1.6014e-08
2.28141e-09
-1.83605e-08
2.34646e-09
-2.07551e-08
2.39459e-09
-2.3182e-08
2.42697e-09
-2.56267e-08
2.44461e-09
-2.8075e-08
2.44832e-09
-3.05137e-08
2.43874e-09
-3.293e-08
2.41633e-09
-3.53115e-08
2.38142e-09
-3.76456e-08
2.33417e-09
-3.99203e-08
2.27463e-09
-4.2123e-08
2.20279e-09
-4.42416e-08
2.11857e-09
-4.62634e-08
2.02183e-09
-4.81759e-08
1.91248e-09
-4.99663e-08
1.79044e-09
-5.1622e-08
1.65568e-09
-5.31303e-08
1.50826e-09
-5.44786e-08
1.34834e-09
-5.56549e-08
1.17625e-09
-5.66473e-08
9.92435e-10
-5.74448e-08
7.9751e-10
-5.80371e-08
5.92286e-10
-5.84149e-08
3.7777e-10
-5.857e-08
1.55168e-10
-5.84959e-08
-7.41185e-11
-5.81874e-08
-3.0849e-10
-5.76413e-08
-5.46149e-10
-5.68562e-08
-7.85107e-10
-5.5833e-08
-1.02322e-09
-5.45748e-08
-1.25819e-09
-5.30871e-08
-1.48764e-09
-5.13781e-08
-1.70907e-09
-4.94581e-08
-1.91995e-09
-4.73404e-08
-2.11774e-09
-4.50405e-08
-2.29991e-09
-4.25765e-08
-2.46404e-09
-3.99686e-08
-2.60781e-09
-3.72396e-08
-2.72908e-09
-3.44136e-08
-2.82592e-09
-3.1517e-08
-2.89664e-09
-2.85772e-08
-2.93985e-09
-2.56227e-08
-2.9545e-09
-2.26828e-08
-2.93989e-09
-1.97871e-08
-2.89569e-09
-1.69651e-08
-2.82199e-09
-1.42458e-08
-2.71927e-09
-1.16573e-08
-2.58845e-09
-9.22651e-09
-2.43083e-09
-6.97836e-09
-2.24815e-09
-4.93579e-09
-2.04256e-09
-3.11919e-09
-1.8166e-09
-1.54592e-09
-1.57326e-09
-2.29965e-10
-1.31596e-09
8.18688e-10
-1.04866e-09
1.5946e-09
-7.75919e-10
2.09777e-09
-5.03169e-10
2.33481e-09
-2.37045e-10
2.32078e-09
1.40196e-11
2.08213e-09
2.38649e-10
1.66102e-09
4.21109e-10
1.12212e-09
5.389e-10
5.63403e-10
5.5872e-10
1.32207e-10
4.31193e-10
1.32207e-10
3.87764e-10
-6.12847e-10
8.86588e-10
-8.88475e-10
1.11097e-09
-5.36943e-10
8.27938e-10
1.78002e-10
-9.33151e-11
1.08157e-09
-1.71008e-09
2.06125e-09
-4.03074e-09
3.04624e-09
-7.03223e-09
3.99315e-09
-1.06722e-08
4.87658e-09
-1.48974e-08
5.68254e-09
-1.96487e-08
6.40441e-09
-2.48651e-08
7.04032e-09
-3.04857e-08
7.59145e-09
-3.64514e-08
8.06076e-09
-4.27056e-08
8.45226e-09
-4.91946e-08
8.77041e-09
-5.58678e-08
9.01971e-09
-6.26777e-08
9.20448e-09
-6.95794e-08
9.32862e-09
-7.65303e-08
9.39552e-09
-8.34901e-08
9.40806e-09
-9.04198e-08
9.36849e-09
-9.7282e-08
9.27851e-09
-1.0404e-07
9.13933e-09
-1.10657e-07
8.95169e-09
-1.17099e-07
8.71599e-09
-1.23328e-07
8.43231e-09
-1.2931e-07
8.10057e-09
-1.35009e-07
7.72061e-09
-1.40389e-07
7.29229e-09
-1.45414e-07
6.81559e-09
-1.50049e-07
6.2907e-09
-1.54259e-07
5.71817e-09
-1.5801e-07
5.09892e-09
-1.61268e-07
4.43436e-09
-1.64002e-07
3.72646e-09
-1.66182e-07
2.97781e-09
-1.67781e-07
2.19167e-09
-1.68776e-07
1.37199e-09
-1.69144e-07
5.23444e-10
-1.68869e-07
-3.48599e-10
-1.6794e-07
-1.23803e-09
-1.66348e-07
-2.13805e-09
-1.64092e-07
-3.04125e-09
-1.61175e-07
-3.93965e-09
-1.57609e-07
-4.82477e-09
-1.53409e-07
-5.68775e-09
-1.48598e-07
-6.51945e-09
-1.43208e-07
-7.31056e-09
-1.37274e-07
-8.05181e-09
-1.3084e-07
-8.73403e-09
-1.23955e-07
-9.34839e-09
-1.16676e-07
-9.88649e-09
-1.09065e-07
-1.03406e-08
-1.01187e-07
-1.07037e-08
-9.31142e-08
-1.09697e-08
-8.49202e-08
-1.11338e-08
-7.66827e-08
-1.1192e-08
-6.84805e-08
-1.11421e-08
-6.03933e-08
-1.09829e-08
-5.25005e-08
-1.07148e-08
-4.48801e-08
-1.03397e-08
-3.76074e-08
-9.86113e-09
-3.07541e-08
-9.2841e-09
-2.43871e-08
-8.61518e-09
-1.85671e-08
-7.86253e-09
-1.33477e-08
-7.03592e-09
-8.77424e-09
-6.14677e-09
-4.88193e-09
-5.20828e-09
-1.69491e-09
-4.23568e-09
7.75815e-10
-3.24666e-09
2.53462e-09
-2.26198e-09
3.60415e-09
-1.30658e-09
4.0294e-09
-4.11235e-10
3.883e-09
3.85036e-10
3.27235e-09
1.03175e-09
2.34847e-09
1.46277e-09
1.31477e-09
1.59242e-09
4.29284e-10
1.31668e-09
5.6149e-10
3.17207e-10
-9.30004e-10
5.44072e-10
-1.11537e-09
2.5395e-10
-2.46767e-10
-8.19984e-10
1.25187e-09
-2.83696e-09
3.09854e-09
-5.87369e-09
5.098e-09
-9.9462e-09
7.11874e-09
-1.50284e-08
9.07536e-09
-2.1066e-08
1.09143e-08
-2.7987e-08
1.26035e-08
-3.57088e-08
1.41261e-08
-4.41436e-08
1.54751e-08
-5.32023e-08
1.66502e-08
-6.27967e-08
1.76551e-08
-7.28409e-08
1.84965e-08
-8.32525e-08
1.9182e-08
-9.39529e-08
1.97201e-08
-1.04867e-07
2.01187e-08
-1.15924e-07
2.03855e-08
-1.27056e-07
2.05271e-08
-1.38197e-07
2.05491e-08
-1.49284e-07
2.04562e-08
-1.60258e-07
2.0252e-08
-1.71057e-07
1.9939e-08
-1.81625e-07
1.95189e-08
-1.91902e-07
1.89928e-08
-2.0183e-07
1.83612e-08
-2.11354e-07
1.76241e-08
-2.20415e-07
1.67817e-08
-2.28957e-07
1.58339e-08
-2.36922e-07
1.47813e-08
-2.44256e-07
1.36247e-08
-2.50904e-07
1.23657e-08
-2.56812e-07
1.10067e-08
-2.61929e-07
9.5512e-09
-2.66206e-07
8.00378e-09
-2.69599e-07
6.37041e-09
-2.72065e-07
4.6584e-09
-2.7357e-07
2.87648e-09
-2.74081e-07
1.03492e-09
-2.73575e-07
-8.54567e-10
-2.72035e-07
-2.77877e-09
-2.6945e-07
-4.72312e-09
-2.65819e-07
-6.67173e-09
-2.61151e-07
-8.60759e-09
-2.55463e-07
-1.05127e-08
-2.48783e-07
-1.23683e-08
-2.41147e-07
-1.41551e-08
-2.32604e-07
-1.58534e-08
-2.23212e-07
-1.74438e-08
-2.13039e-07
-1.89071e-08
-2.02163e-07
-2.02248e-08
-1.9067e-07
-2.13792e-08
-1.78656e-07
-2.23543e-08
-1.66224e-07
-2.31354e-08
-1.53484e-07
-2.371e-08
-1.4055e-07
-2.40678e-08
-1.27541e-07
-2.4201e-08
-1.14579e-07
-2.41047e-08
-1.01785e-07
-2.37766e-08
-8.92817e-08
-2.32179e-08
-7.71886e-08
-2.24328e-08
-6.56209e-08
-2.14288e-08
-5.46884e-08
-2.02167e-08
-4.44929e-08
-1.88107e-08
-3.5127e-08
-1.72284e-08
-2.6672e-08
-1.5491e-08
-1.91957e-08
-1.3623e-08
-1.27508e-08
-1.16532e-08
-7.37212e-09
-9.61436e-09
-3.07428e-09
-7.5445e-09
1.51596e-10
-5.48787e-09
2.3417e-09
-3.49668e-09
3.56408e-09
-1.63362e-09
3.92459e-09
2.45209e-11
3.57312e-09
1.38321e-09
2.71145e-09
2.32443e-09
1.59919e-09
2.70469e-09
5.57973e-10
2.35789e-09
1.11946e-09
1.12525e-10
-1.04256e-09
-1.72988e-10
-8.29763e-10
-1.25919e-09
8.39413e-10
-3.40556e-09
3.39826e-09
-6.76978e-09
6.46279e-09
-1.14288e-08
9.75699e-09
-1.73971e-08
1.30871e-08
-2.46433e-08
1.63215e-08
-3.31031e-08
1.93741e-08
-4.26905e-08
2.21908e-08
-5.33051e-08
2.47408e-08
-6.4839e-08
2.7009e-08
-7.71807e-08
2.89919e-08
-9.02187e-08
3.06931e-08
-1.03843e-07
3.21208e-08
-1.17947e-07
3.32861e-08
-1.32428e-07
3.42009e-08
-1.47187e-07
3.48776e-08
-1.62129e-07
3.53276e-08
-1.77164e-07
3.55615e-08
-1.92202e-07
3.5588e-08
-2.07161e-07
3.54147e-08
-2.21956e-07
3.50474e-08
-2.36508e-07
3.44904e-08
-2.50735e-07
3.37467e-08
-2.64561e-07
3.28184e-08
-2.77906e-07
3.17066e-08
-2.90694e-07
3.0412e-08
-3.02848e-07
2.89351e-08
-3.14291e-07
2.72768e-08
-3.24948e-07
2.54383e-08
-3.34744e-07
2.34217e-08
-3.43609e-07
2.12303e-08
-3.51471e-07
1.8869e-08
-3.58264e-07
1.63443e-08
-3.63925e-07
1.36646e-08
-3.68395e-07
1.08405e-08
-3.71622e-07
7.88501e-09
-3.73559e-07
4.81339e-09
-3.74167e-07
1.64343e-09
-3.73417e-07
-1.60467e-09
-3.71288e-07
-4.9083e-09
-3.67768e-07
-8.24262e-09
-3.62859e-07
-1.15806e-08
-3.56573e-07
-1.48936e-08
-3.48935e-07
-1.8151e-08
-3.39982e-07
-2.13214e-08
-3.29765e-07
-2.43722e-08
-3.18347e-07
-2.72708e-08
-3.05807e-07
-2.99843e-08
-2.92233e-07
-3.24807e-08
-2.77729e-07
-3.47291e-08
-2.62408e-07
-3.67004e-08
-2.46395e-07
-3.83674e-08
-2.29824e-07
-3.9706e-08
-2.12839e-07
-4.06954e-08
-1.95588e-07
-4.13186e-08
-1.78226e-07
-4.15626e-08
-1.60912e-07
-4.14192e-08
-1.43803e-07
-4.08851e-08
-1.27059e-07
-3.99623e-08
-1.10834e-07
-3.8658e-08
-9.52776e-08
-3.6985e-08
-8.05323e-08
-3.4962e-08
-6.673e-08
-3.26129e-08
-5.39903e-08
-2.9968e-08
-4.24182e-08
-2.70631e-08
-3.21008e-08
-2.39404e-08
-2.31056e-08
-2.06484e-08
-1.5477e-08
-1.7243e-08
-9.23316e-09
-1.37883e-08
-4.36282e-09
-1.03582e-08
-8.21029e-10
-7.03848e-09
1.47542e-09
-3.93008e-09
2.65289e-09
-1.15296e-09
2.88696e-09
1.14914e-09
2.40796e-09
2.80343e-09
1.50756e-09
3.60509e-09
5.47869e-10
3.31759e-09
1.66733e-09
-1.57065e-10
-8.85475e-10
-1.10442e-09
1.1755e-10
-3.17582e-09
2.91083e-09
-6.59324e-09
6.81574e-09
-1.1491e-08
1.13605e-08
-1.79307e-08
1.61967e-08
-2.59158e-08
2.10721e-08
-3.54042e-08
2.581e-08
-4.63209e-08
3.02907e-08
-5.85664e-08
3.44364e-08
-7.2026e-08
3.82003e-08
-8.65749e-08
4.1558e-08
-1.02084e-07
4.45008e-08
-1.18422e-07
4.70309e-08
-1.35459e-07
4.91578e-08
-1.53067e-07
5.0895e-08
-1.71125e-07
5.22581e-08
-1.8951e-07
5.32633e-08
-2.08109e-07
5.39265e-08
-2.26809e-07
5.42617e-08
-2.45503e-07
5.42815e-08
-2.64085e-07
5.39964e-08
-2.82452e-07
5.34147e-08
-3.00504e-07
5.25427e-08
-3.18143e-07
5.13851e-08
-3.35269e-07
4.99452e-08
-3.51788e-07
4.82251e-08
-3.67602e-07
4.62265e-08
-3.82618e-07
4.39507e-08
-3.96741e-07
4.13997e-08
-4.09879e-07
3.85762e-08
-4.21941e-07
3.54842e-08
-4.32841e-07
3.21296e-08
-4.42492e-07
2.85202e-08
-4.50815e-07
2.46668e-08
-4.57733e-07
2.05828e-08
-4.63177e-07
1.62847e-08
-4.67085e-07
1.17927e-08
-4.69401e-07
7.13015e-09
-4.70082e-07
2.32415e-09
-4.69092e-07
-2.59468e-09
-4.66408e-07
-7.59228e-09
-4.62019e-07
-1.26313e-08
-4.55929e-07
-1.76715e-08
-4.48152e-07
-2.26698e-08
-4.38722e-07
-2.7581e-08
-4.27686e-07
-3.23581e-08
-4.15105e-07
-3.69532e-08
-4.01058e-07
-4.13177e-08
-3.85639e-07
-4.54034e-08
-3.68957e-07
-4.91627e-08
-3.51135e-07
-5.25502e-08
-3.32313e-07
-5.55229e-08
-3.12639e-07
-5.8041e-08
-2.92276e-07
-6.0069e-08
-2.71395e-07
-6.15763e-08
-2.50176e-07
-6.25377e-08
-2.28804e-07
-6.29345e-08
-2.07469e-07
-6.27546e-08
-1.86361e-07
-6.19934e-08
-1.65669e-07
-6.06538e-08
-1.4558e-07
-5.87468e-08
-1.26274e-07
-5.62916e-08
-1.0792e-07
-5.3316e-08
-9.06766e-08
-4.98561e-08
-7.46877e-08
-4.59569e-08
-6.00788e-08
-4.16721e-08
-4.69547e-08
-3.70645e-08
-3.53962e-08
-3.22069e-08
-2.54573e-08
-2.7182e-08
-1.71611e-08
-2.20845e-08
-1.04969e-08
-1.70224e-08
-5.41587e-09
-1.21195e-08
-1.82698e-09
-7.51897e-09
4.07146e-10
-3.38709e-09
1.47509e-09
8.11981e-11
1.6216e-09
2.65692e-09
1.15384e-09
4.07284e-09
4.51725e-10
4.01971e-09
2.11905e-09
-4.56131e-10
-4.29364e-10
-2.1504e-09
1.81186e-09
-5.3265e-09
6.08694e-09
-1.01487e-08
1.1638e-08
-1.67119e-08
1.79238e-08
-2.50503e-08
2.45351e-08
-3.51468e-08
3.11687e-08
-4.69437e-08
3.76069e-08
-6.03513e-08
4.36983e-08
-7.52567e-08
4.93418e-08
-9.15308e-08
5.44745e-08
-1.09034e-07
5.90616e-08
-1.27622e-07
6.30887e-08
-1.47147e-07
6.65559e-08
-1.67463e-07
6.9473e-08
-1.88423e-07
7.18555e-08
-2.09888e-07
7.37224e-08
-2.31718e-07
7.50937e-08
-2.5378e-07
7.5989e-08
-2.75945e-07
7.64265e-08
-2.98086e-07
7.64221e-08
-3.20079e-07
7.59894e-08
-3.41804e-07
7.51395e-08
-3.63142e-07
7.3881e-08
-3.83977e-07
7.22202e-08
-4.04194e-07
7.0162e-08
-4.23678e-07
6.77098e-08
-4.42318e-07
6.48664e-08
-4.60002e-07
6.16348e-08
-4.76621e-07
5.80182e-08
-4.92066e-07
5.40215e-08
-5.06233e-07
4.96512e-08
-5.1902e-07
4.49164e-08
-5.30329e-07
3.98292e-08
-5.40067e-07
3.44051e-08
-5.48148e-07
2.86638e-08
-5.54493e-07
2.2629e-08
-5.59029e-07
1.63294e-08
-5.61697e-07
9.79783e-09
-5.62445e-07
3.07243e-09
-5.61236e-07
-3.80413e-09
-5.58043e-07
-1.07845e-08
-5.52858e-07
-1.7817e-08
-5.45683e-07
-2.4846e-08
-5.36541e-07
-3.18121e-08
-5.25468e-07
-3.86534e-08
-5.12521e-07
-4.53053e-08
-4.97772e-07
-5.17022e-08
-4.81312e-07
-5.77775e-08
-4.6325e-07
-6.34653e-08
-4.43712e-07
-6.87009e-08
-4.2284e-07
-7.34222e-08
-4.00793e-07
-7.75705e-08
-3.77742e-07
-8.10916e-08
-3.53874e-07
-8.39371e-08
-3.29385e-07
-8.60653e-08
-3.04481e-07
-8.74419e-08
-2.79374e-07
-8.80414e-08
-2.54281e-07
-8.78474e-08
-2.29421e-07
-8.68534e-08
-2.05011e-07
-8.50638e-08
-1.81264e-07
-8.24935e-08
-1.58387e-07
-7.91692e-08
-1.36574e-07
-7.51288e-08
-1.16008e-07
-7.04222e-08
-9.68534e-08
-6.51112e-08
-7.92557e-08
-5.92698e-08
-6.33359e-08
-5.29843e-08
-4.91885e-08
-4.63543e-08
-3.68774e-08
-3.9493e-08
-2.6433e-08
-3.25289e-08
-1.78481e-08
-2.56073e-08
-1.10746e-08
-1.8893e-08
-6.01994e-09
-1.25736e-08
-2.54341e-09
-6.86362e-09
-4.52489e-10
-2.00972e-09
5.01279e-10
1.70316e-09
6.27322e-10
3.9468e-09
3.04161e-10
4.34287e-09
2.42321e-09
-7.65804e-10
3.36449e-10
-3.25037e-09
4.29648e-09
-7.60029e-09
1.04368e-08
-1.39111e-08
1.79488e-08
-2.22275e-08
2.62402e-08
-3.25465e-08
3.48541e-08
-4.48236e-08
4.34457e-08
-5.89789e-08
5.17623e-08
-7.49053e-08
5.96246e-08
-9.2474e-08
6.69105e-08
-1.11541e-07
7.3542e-08
-1.31954e-07
7.94742e-08
-1.53552e-07
8.46871e-08
-1.76175e-07
8.91783e-08
-1.99659e-07
9.29574e-08
-2.23846e-07
9.6042e-08
-2.48577e-07
9.84538e-08
-2.737e-07
1.00216e-07
-2.99063e-07
1.01353e-07
-3.24522e-07
1.01885e-07
-3.49934e-07
1.01833e-07
-3.75158e-07
1.01214e-07
-4.00058e-07
1.0004e-07
-4.245e-07
9.83226e-08
-4.4835e-07
9.60707e-08
-4.71479e-07
9.32903e-08
-4.93756e-07
8.99867e-08
-5.15053e-07
8.61641e-08
-5.35246e-07
8.18272e-08
-5.54209e-07
7.69814e-08
-5.71821e-07
7.16339e-08
-5.87965e-07
6.57945e-08
-6.02524e-07
5.94763e-08
-6.15392e-07
5.26963e-08
-6.26462e-07
4.54759e-08
-6.3564e-07
3.78419e-08
-6.42838e-07
2.98265e-08
-6.47976e-07
2.14677e-08
-6.50988e-07
1.28097e-08
-6.51818e-07
3.9027e-09
-6.50425e-07
-5.19697e-09
-6.46783e-07
-1.44271e-08
-6.4088e-07
-2.37201e-08
-6.32723e-07
-3.3003e-08
-6.22336e-07
-4.21987e-08
-6.09763e-07
-5.12263e-08
-5.95066e-07
-6.00022e-08
-5.78328e-07
-6.84409e-08
-5.59649e-07
-7.64564e-08
-5.39151e-07
-8.3963e-08
-5.16975e-07
-9.08771e-08
-4.93279e-07
-9.71181e-08
-4.68239e-07
-1.0261e-07
-4.42048e-07
-1.07283e-07
-4.14911e-07
-1.11074e-07
-3.87047e-07
-1.13929e-07
-3.58685e-07
-1.15804e-07
-3.30061e-07
-1.16665e-07
-3.01416e-07
-1.16492e-07
-2.72995e-07
-1.15275e-07
-2.45039e-07
-1.1302e-07
-2.17785e-07
-1.09747e-07
-1.91465e-07
-1.05489e-07
-1.66297e-07
-1.00297e-07
-1.42484e-07
-9.42348e-08
-1.20213e-07
-8.73825e-08
-9.96464e-08
-7.98364e-08
-8.09221e-08
-7.17086e-08
-6.41487e-08
-6.31277e-08
-4.94018e-08
-5.42399e-08
-3.67209e-08
-4.52098e-08
-2.61058e-08
-3.62225e-08
-1.75133e-08
-2.74855e-08
-1.08544e-08
-1.92325e-08
-5.99134e-09
-1.17267e-08
-2.7347e-09
-5.26636e-09
-8.40686e-10
-1.90848e-10
-7.91371e-12
3.11402e-09
1.27259e-10
4.2077e-09
2.55048e-09
-1.0762e-09
1.41266e-09
-4.36823e-09
7.58849e-09
-9.92642e-09
1.59951e-08
-1.77727e-08
2.57951e-08
-2.78949e-08
3.63624e-08
-4.02465e-08
4.72057e-08
-5.4749e-08
5.79481e-08
-7.12962e-08
6.83095e-08
-8.97592e-08
7.80877e-08
-1.09992e-07
8.71429e-08
-1.31834e-07
9.53842e-08
-1.55118e-07
1.02758e-07
-1.7967e-07
1.0924e-07
-2.05316e-07
1.14824e-07
-2.3188e-07
1.19521e-07
-2.59187e-07
1.2335e-07
-2.87068e-07
1.26335e-07
-3.15355e-07
1.28503e-07
-3.43883e-07
1.29881e-07
-3.72492e-07
1.30495e-07
-4.01026e-07
1.30367e-07
-4.29329e-07
1.29517e-07
-4.57251e-07
1.27962e-07
-4.84642e-07
1.25714e-07
-5.11356e-07
1.22785e-07
-5.37247e-07
1.19182e-07
-5.62173e-07
1.14912e-07
-5.85991e-07
1.09982e-07
-6.08562e-07
1.04398e-07
-6.29749e-07
9.81688e-08
-6.49419e-07
9.13036e-08
-6.67441e-07
8.38163e-08
-6.83689e-07
7.57246e-08
-6.98044e-07
6.7051e-08
-7.10392e-07
5.7824e-08
-7.20628e-07
4.80782e-08
-7.28657e-07
3.78551e-08
-7.34393e-07
2.72036e-08
-7.37763e-07
1.61798e-08
-7.38708e-07
4.8475e-09
-7.37183e-07
-6.72207e-09
-7.33159e-07
-1.84505e-08
-7.26627e-07
-3.02527e-08
-7.17592e-07
-4.20374e-08
-7.06083e-07
-5.37077e-08
-6.92147e-07
-6.51625e-08
-6.75852e-07
-7.62974e-08
-6.57287e-07
-8.70055e-08
-6.36564e-07
-9.71795e-08
-6.13814e-07
-1.06713e-07
-5.89191e-07
-1.15501e-07
-5.62866e-07
-1.23443e-07
-5.35031e-07
-1.30445e-07
-5.05895e-07
-1.36419e-07
-4.75682e-07
-1.41287e-07
-4.44631e-07
-1.44981e-07
-4.1299e-07
-1.47445e-07
-3.81018e-07
-1.48638e-07
-3.48977e-07
-1.48532e-07
-3.17135e-07
-1.47117e-07
-2.85756e-07
-1.44399e-07
-2.55101e-07
-1.40402e-07
-2.25422e-07
-1.35168e-07
-1.96962e-07
-1.28758e-07
-1.69943e-07
-1.21253e-07
-1.44573e-07
-1.12753e-07
-1.21033e-07
-1.03377e-07
-9.94775e-08
-9.32639e-08
-8.00307e-08
-8.25746e-08
-6.27814e-08
-7.14892e-08
-4.77807e-08
-6.02105e-08
-3.50384e-08
-4.89648e-08
-2.45202e-08
-3.80037e-08
-1.61451e-08
-2.76076e-08
-9.78306e-09
-1.80887e-08
-5.25354e-09
-9.79587e-09
-2.32376e-09
-3.12063e-09
-7.07606e-10
1.49788e-09
-6.49025e-11
3.565e-09
2.48558e-09
-1.38225e-09
2.79491e-09
-5.4828e-09
1.1689e-08
-1.22603e-08
2.27726e-08
-2.16621e-08
3.51969e-08
-3.36158e-08
4.83161e-08
-4.80268e-08
6.16167e-08
-6.47786e-08
7.46999e-08
-8.37346e-08
8.72655e-08
-1.04741e-07
9.90944e-08
-1.27632e-07
1.10033e-07
-1.52229e-07
1.19982e-07
-1.7835e-07
1.28879e-07
-2.05808e-07
1.36697e-07
-2.34414e-07
1.4343e-07
-2.6398e-07
1.49087e-07
-2.9432e-07
1.5369e-07
-3.25252e-07
1.57266e-07
-3.56594e-07
1.59845e-07
-3.8817e-07
1.61458e-07
-4.19808e-07
1.62133e-07
-4.51337e-07
1.61896e-07
-4.82591e-07
1.60771e-07
-5.13406e-07
1.58776e-07
-5.43618e-07
1.55927e-07
-5.7307e-07
1.52236e-07
-6.01602e-07
1.47714e-07
-6.2906e-07
1.4237e-07
-6.55289e-07
1.36211e-07
-6.80137e-07
1.29247e-07
-7.03456e-07
1.21488e-07
-7.25101e-07
1.12949e-07
-7.44931e-07
1.03646e-07
-7.6281e-07
9.36037e-08
-7.78609e-07
8.28496e-08
-7.92205e-07
7.142e-08
-8.03485e-07
5.93584e-08
-8.12347e-07
4.67164e-08
-8.18697e-07
3.35544e-08
-8.22459e-07
1.99417e-08
-8.23568e-07
5.95661e-09
-8.21977e-07
-8.31371e-09
-8.17654e-07
-2.27735e-08
-8.10588e-07
-3.7319e-08
-8.00786e-07
-5.1839e-08
-7.88278e-07
-6.6216e-08
-7.73113e-07
-8.03272e-08
-7.55365e-07
-9.40458e-08
-7.35128e-07
-1.07242e-07
-7.1252e-07
-1.19787e-07
-6.87683e-07
-1.3155e-07
-6.6078e-07
-1.42404e-07
-6.31994e-07
-1.52229e-07
-6.0153e-07
-1.60909e-07
-5.69613e-07
-1.68337e-07
-5.36481e-07
-1.74418e-07
-5.02391e-07
-1.79071e-07
-4.6761e-07
-1.82225e-07
-4.32417e-07
-1.83831e-07
-3.97094e-07
-1.83855e-07
-3.61929e-07
-1.82282e-07
-3.2721e-07
-1.79119e-07
-2.93218e-07
-1.74394e-07
-2.60228e-07
-1.68158e-07
-2.28502e-07
-1.60483e-07
-1.98288e-07
-1.51468e-07
-1.6981e-07
-1.41231e-07
-1.4327e-07
-1.29917e-07
-1.1884e-07
-1.17693e-07
-9.66621e-08
-1.04753e-07
-7.68396e-08
-9.13118e-08
-5.94379e-08
-7.76122e-08
-4.44799e-08
-6.39227e-08
-3.19435e-08
-5.05402e-08
-2.17592e-08
-3.77918e-08
-1.38093e-08
-2.60386e-08
-7.92624e-09
-1.56789e-08
-3.89282e-09
-7.15404e-09
-1.44294e-09
-9.51985e-10
-2.63786e-10
2.38586e-09
2.2218e-09
-1.68141e-09
4.47633e-09
-6.58188e-09
1.65896e-08
-1.45741e-08
3.07648e-08
-2.55321e-08
4.61549e-08
-3.93223e-08
6.21063e-08
-5.57998e-08
7.80942e-08
-7.48069e-08
9.3707e-08
-9.61736e-08
1.08632e-07
-1.19719e-07
1.2264e-07
-1.45255e-07
1.35569e-07
-1.72584e-07
1.47311e-07
-2.01508e-07
1.57803e-07
-2.31826e-07
1.67015e-07
-2.63335e-07
1.74939e-07
-2.95837e-07
1.81589e-07
-3.29133e-07
1.86986e-07
-3.63029e-07
1.91162e-07
-3.97334e-07
1.9415e-07
-4.3186e-07
1.95984e-07
-4.66423e-07
1.96696e-07
-5.00843e-07
1.96315e-07
-5.3494e-07
1.94868e-07
-5.68539e-07
1.92375e-07
-6.01468e-07
1.88855e-07
-6.33554e-07
1.84323e-07
-6.64629e-07
1.78789e-07
-6.94526e-07
1.72267e-07
-7.2308e-07
1.64765e-07
-7.50129e-07
1.56295e-07
-7.75513e-07
1.46872e-07
-7.99077e-07
1.36513e-07
-8.2067e-07
1.25239e-07
-8.40147e-07
1.13081e-07
-8.5737e-07
1.00072e-07
-8.72208e-07
8.62582e-08
-8.8454e-07
7.1691e-08
-8.94257e-07
5.64332e-08
-9.0126e-07
4.05576e-08
-9.05466e-07
2.41474e-08
-9.06806e-07
7.29618e-09
-9.05227e-07
-9.89199e-09
-9.00698e-07
-2.73031e-08
-8.93203e-07
-4.48136e-08
-8.8275e-07
-6.22917e-08
-8.69369e-07
-7.95977e-08
-8.5311e-07
-9.65862e-08
-8.34049e-07
-1.13107e-07
-8.12286e-07
-1.29006e-07
-7.87944e-07
-1.44129e-07
-7.6117e-07
-1.58323e-07
-7.32136e-07
-1.71438e-07
-7.01037e-07
-1.83329e-07
-6.68087e-07
-1.93859e-07
-6.33523e-07
-2.02901e-07
-5.97599e-07
-2.10342e-07
-5.60588e-07
-2.16082e-07
-5.22773e-07
-2.2004e-07
-4.8445e-07
-2.22154e-07
-4.45923e-07
-2.22382e-07
-4.07498e-07
-2.20706e-07
-3.69485e-07
-2.17133e-07
-3.32186e-07
-2.11693e-07
-2.95899e-07
-2.04445e-07
-2.60907e-07
-1.95475e-07
-2.27478e-07
-1.84896e-07
-1.95859e-07
-1.72849e-07
-1.66273e-07
-1.59503e-07
-1.38911e-07
-1.45055e-07
-1.13933e-07
-1.29731e-07
-9.14607e-08
-1.13784e-07
-7.15763e-08
-9.74966e-08
-5.43184e-08
-8.11806e-08
-3.96801e-08
-6.51785e-08
-2.7607e-08
-4.98649e-08
-1.79966e-08
-3.5649e-08
-1.06978e-08
-2.29777e-08
-5.51216e-09
-1.23397e-08
-2.19588e-09
-4.26825e-09
-4.64464e-10
6.54446e-10
1.75734e-09
-1.97249e-09
6.44883e-09
-7.65856e-09
2.22756e-08
-1.68506e-08
3.99569e-08
-2.9352e-08
5.86563e-08
-4.49683e-08
7.77226e-08
-6.35033e-08
9.66292e-08
-8.47565e-08
1.1496e-07
-1.08523e-07
1.32398e-07
-1.34592e-07
1.48709e-07
-1.62751e-07
1.63728e-07
-1.92784e-07
1.77344e-07
-2.24475e-07
1.89494e-07
-2.57608e-07
2.00147e-07
-2.91968e-07
2.09299e-07
-3.27344e-07
2.16965e-07
-3.63527e-07
2.2317e-07
-4.00313e-07
2.27948e-07
-4.37501e-07
2.31337e-07
-4.74892e-07
2.33375e-07
-5.12292e-07
2.34097e-07
-5.49512e-07
2.33535e-07
-5.86362e-07
2.31718e-07
-6.22658e-07
2.28671e-07
-6.58215e-07
2.24413e-07
-6.92854e-07
2.18961e-07
-7.26395e-07
2.1233e-07
-7.5866e-07
2.04532e-07
-7.89476e-07
1.9558e-07
-8.1867e-07
1.85489e-07
-8.46074e-07
1.74276e-07
-8.71522e-07
1.61961e-07
-8.94856e-07
1.48573e-07
-9.15921e-07
1.34146e-07
-9.3457e-07
1.18722e-07
-9.50666e-07
1.02354e-07
-9.6408e-07
8.5105e-08
-9.74695e-07
6.70482e-08
-9.82407e-07
4.82694e-08
-9.87126e-07
2.88661e-08
-9.88778e-07
8.94806e-09
-9.87306e-07
-1.13632e-08
-9.82675e-07
-3.19346e-08
-9.74866e-07
-5.26222e-08
-9.63886e-07
-7.32723e-08
-9.49761e-07
-9.37225e-08
-9.32544e-07
-1.13803e-07
-9.12311e-07
-1.3334e-07
-8.89163e-07
-1.52153e-07
-8.63228e-07
-1.70064e-07
-8.34658e-07
-1.86893e-07
-8.0363e-07
-2.02466e-07
-7.70347e-07
-2.16612e-07
-7.35034e-07
-2.29172e-07
-6.97938e-07
-2.39997e-07
-6.59326e-07
-2.48953e-07
-6.19484e-07
-2.55924e-07
-5.78712e-07
-2.60812e-07
-5.37324e-07
-2.63543e-07
-4.9564e-07
-2.64066e-07
-4.53988e-07
-2.62358e-07
-4.12697e-07
-2.58423e-07
-3.72093e-07
-2.52297e-07
-3.32494e-07
-2.44044e-07
-2.94206e-07
-2.33763e-07
-2.57521e-07
-2.21581e-07
-2.22708e-07
-2.07662e-07
-1.9001e-07
-1.92201e-07
-1.59643e-07
-1.75423e-07
-1.31785e-07
-1.57589e-07
-1.06579e-07
-1.38989e-07
-8.41275e-08
-1.19949e-07
-6.44863e-08
-1.00822e-07
-4.76669e-08
-8.19979e-08
-3.3633e-08
-6.38989e-08
-2.22997e-08
-4.69822e-08
-1.3535e-08
-3.17424e-08
-7.1607e-09
-1.8714e-08
-2.95627e-09
-8.47267e-09
-6.64392e-10
-1.63742e-09
1.09296e-09
-2.25504e-09
8.70387e-09
-8.70889e-09
2.87294e-08
-1.90791e-08
5.03271e-08
-3.31013e-08
7.26785e-08
-5.05217e-08
9.5143e-08
-7.10928e-08
1.172e-07
-9.45706e-08
1.38438e-07
-1.20713e-07
1.58541e-07
-1.49281e-07
1.77277e-07
-1.80034e-07
1.94481e-07
-2.12737e-07
2.10047e-07
-2.47155e-07
2.23912e-07
-2.83058e-07
2.3605e-07
-3.20217e-07
2.46459e-07
-3.5841e-07
2.55158e-07
-3.97418e-07
2.62178e-07
-4.37026e-07
2.67556e-07
-4.77024e-07
2.71335e-07
-5.17206e-07
2.73557e-07
-5.57368e-07
2.74259e-07
-5.97312e-07
2.73478e-07
-6.3684e-07
2.71246e-07
-6.75758e-07
2.67589e-07
-7.13875e-07
2.6253e-07
-7.51001e-07
2.56087e-07
-7.86948e-07
2.48277e-07
-8.21529e-07
2.39114e-07
-8.54563e-07
2.28614e-07
-8.85867e-07
2.16794e-07
-9.15265e-07
2.03674e-07
-9.42584e-07
1.8928e-07
-9.67656e-07
1.73645e-07
-9.90318e-07
1.56808e-07
-1.01042e-06
1.38821e-07
-1.02781e-06
1.19743e-07
-1.04235e-06
9.96488e-08
-1.05392e-06
7.86224e-08
-1.06242e-06
5.67631e-08
-1.06774e-06
3.41833e-08
-1.0698e-06
1.1009e-08
-1.06854e-06
-1.26202e-08
-1.06392e-06
-3.65515e-08
-1.05592e-06
-6.06201e-08
-1.04455e-06
-8.46497e-08
-1.02982e-06
-1.08454e-07
-1.01178e-06
-1.3184e-07
-9.90514e-07
-1.54605e-07
-9.66122e-07
-1.76545e-07
-9.38731e-07
-1.97454e-07
-9.08498e-07
-2.17127e-07
-8.75604e-07
-2.3536e-07
-8.40257e-07
-2.51959e-07
-8.0269e-07
-2.66739e-07
-7.63159e-07
-2.79527e-07
-7.21944e-07
-2.90169e-07
-6.79342e-07
-2.98526e-07
-6.35669e-07
-3.04485e-07
-5.91254e-07
-3.07958e-07
-5.46438e-07
-3.08883e-07
-5.01566e-07
-3.07229e-07
-4.5699e-07
-3.03e-07
-4.13056e-07
-2.96231e-07
-3.70106e-07
-2.86994e-07
-3.28472e-07
-2.75397e-07
-2.88466e-07
-2.61587e-07
-2.50384e-07
-2.45745e-07
-2.14494e-07
-2.28091e-07
-1.81032e-07
-2.08884e-07
-1.50204e-07
-1.88417e-07
-1.22173e-07
-1.6702e-07
-9.70629e-08
-1.45058e-07
-7.49525e-08
-1.22932e-07
-5.58734e-08
-1.01077e-07
-3.98094e-08
-7.99629e-08
-2.66958e-08
-6.00957e-08
-1.6421e-08
-4.20172e-08
-8.82817e-09
-2.63069e-08
-3.71949e-09
-1.35813e-08
-8.62609e-10
-4.49428e-09
2.3035e-10
-2.52891e-09
1.12328e-08
-9.73066e-09
3.59312e-08
-2.12527e-08
6.18492e-08
-3.67663e-08
8.81921e-08
-5.59601e-08
1.14337e-07
-7.8536e-08
1.39776e-07
-1.04207e-07
1.64109e-07
-1.32693e-07
1.87028e-07
-1.63724e-07
2.08308e-07
-1.97035e-07
2.27792e-07
-2.32368e-07
2.4538e-07
-2.69469e-07
2.61014e-07
-3.08093e-07
2.74674e-07
-3.47999e-07
2.86365e-07
-3.88953e-07
2.96112e-07
-4.30726e-07
3.03951e-07
-4.73094e-07
3.09924e-07
-5.15839e-07
3.1408e-07
-5.58745e-07
3.16463e-07
-6.01603e-07
3.17117e-07
-6.44205e-07
3.16081e-07
-6.86348e-07
3.13389e-07
-7.27829e-07
3.0907e-07
-7.68449e-07
3.0315e-07
-8.08011e-07
2.95649e-07
-8.46319e-07
2.86585e-07
-8.83181e-07
2.75975e-07
-9.18404e-07
2.63837e-07
-9.51801e-07
2.5019e-07
-9.83186e-07
2.35059e-07
-1.01238e-06
2.18473e-07
-1.0392e-06
2.0047e-07
-1.06349e-06
1.81096e-07
-1.08508e-06
1.60409e-07
-1.10381e-06
1.38478e-07
-1.11955e-06
1.15387e-07
-1.13216e-06
9.12334e-08
-1.14153e-06
6.61283e-08
-1.14755e-06
4.01996e-08
-1.15013e-06
1.35899e-08
-1.1492e-06
-1.35427e-08
-1.14473e-06
-4.10257e-08
-1.13668e-06
-6.86726e-08
-1.12504e-06
-9.62842e-08
-1.10985e-06
-1.2365e-07
-1.09114e-06
-1.5055e-07
-1.06898e-06
-1.76758e-07
-1.04349e-06
-2.0204e-07
-1.01478e-06
-2.26163e-07
-9.83015e-07
-2.48892e-07
-9.48376e-07
-2.69999e-07
-9.11076e-07
-2.89259e-07
-8.71354e-07
-3.0646e-07
-8.29476e-07
-3.21406e-07
-7.85728e-07
-3.33916e-07
-7.40422e-07
-3.43832e-07
-6.93886e-07
-3.51021e-07
-6.46467e-07
-3.55377e-07
-5.98522e-07
-3.56828e-07
-5.50418e-07
-3.55333e-07
-5.02526e-07
-3.50892e-07
-4.55217e-07
-3.43539e-07
-4.08858e-07
-3.33353e-07
-3.63804e-07
-3.20451e-07
-3.20396e-07
-3.04995e-07
-2.78953e-07
-2.87187e-07
-2.39771e-07
-2.67274e-07
-2.03113e-07
-2.45542e-07
-1.6921e-07
-2.22321e-07
-1.38252e-07
-1.97979e-07
-1.10386e-07
-1.72924e-07
-8.57155e-08
-1.47603e-07
-6.42948e-08
-1.22498e-07
-4.61304e-08
-9.81274e-08
-3.11795e-08
-7.50466e-08
-1.93519e-08
-5.38447e-08
-1.05124e-08
-3.51464e-08
-4.48491e-09
-1.96088e-08
-1.05923e-09
-7.91996e-09
-8.28884e-10
-2.79407e-09
1.40269e-08
-1.07226e-08
4.38597e-08
-2.33671e-08
7.44937e-08
-4.03376e-08
1.05163e-07
-6.12672e-08
1.35266e-07
-8.58087e-08
1.64318e-07
-1.13632e-07
1.91932e-07
-1.44421e-07
2.17817e-07
-1.77873e-07
2.4176e-07
-2.13697e-07
2.63616e-07
-2.51612e-07
2.83295e-07
-2.91348e-07
3.0075e-07
-3.32643e-07
3.15968e-07
-3.75242e-07
3.28965e-07
-4.18902e-07
3.39771e-07
-4.63382e-07
3.48431e-07
-5.0845e-07
3.54993e-07
-5.53881e-07
3.59511e-07
-5.99452e-07
3.62034e-07
-6.44946e-07
3.62611e-07
-6.9015e-07
3.61284e-07
-7.34852e-07
3.58091e-07
-7.78846e-07
3.53064e-07
-8.21925e-07
3.46229e-07
-8.63884e-07
3.37609e-07
-9.04523e-07
3.27224e-07
-9.43641e-07
3.15093e-07
-9.8104e-07
3.01236e-07
-1.01653e-06
2.85676e-07
-1.04991e-06
2.68439e-07
-1.08099e-06
2.49559e-07
-1.1096e-06
2.29079e-07
-1.13556e-06
2.07052e-07
-1.15869e-06
1.83542e-07
-1.17884e-06
1.58627e-07
-1.19585e-06
1.32402e-07
-1.20959e-06
1.04974e-07
-1.21993e-06
7.64688e-08
-1.22676e-06
4.70295e-08
-1.22999e-06
1.68151e-08
-1.22953e-06
-1.39981e-08
-1.22534e-06
-4.52173e-08
-1.21738e-06
-7.66342e-08
-1.20564e-06
-1.08026e-07
-1.19013e-06
-1.39158e-07
-1.1709e-06
-1.69784e-07
-1.148e-06
-1.99649e-07
-1.12155e-06
-2.28492e-07
-1.09166e-06
-2.56051e-07
-1.0585e-06
-2.8206e-07
-1.02223e-06
-3.06262e-07
-9.83089e-07
-3.28403e-07
-9.41308e-07
-3.48242e-07
-8.97159e-07
-3.65554e-07
-8.50942e-07
-3.80134e-07
-8.02976e-07
-3.91798e-07
-7.53604e-07
-4.00393e-07
-7.03188e-07
-4.05793e-07
-6.52104e-07
-4.07912e-07
-6.00739e-07
-4.06699e-07
-5.49486e-07
-4.02145e-07
-4.98741e-07
-3.94285e-07
-4.48895e-07
-3.83199e-07
-4.00332e-07
-3.69015e-07
-3.5342e-07
-3.51907e-07
-3.08508e-07
-3.32099e-07
-2.6592e-07
-3.09861e-07
-2.2595e-07
-2.85512e-07
-1.88856e-07
-2.59415e-07
-1.54857e-07
-2.31978e-07
-1.24128e-07
-2.03653e-07
-9.67976e-08
-1.74933e-07
-7.29473e-08
-1.46348e-07
-5.26074e-08
-1.18467e-07
-3.57586e-08
-9.18954e-08
-2.23332e-08
-6.72702e-08
-1.22171e-08
-4.52624e-08
-5.25477e-09
-2.65711e-08
-1.25511e-09
-1.19196e-08
-2.084e-09
-3.05055e-09
1.70774e-08
-1.16838e-08
5.24929e-08
-2.5419e-08
8.82289e-08
-4.3808e-08
1.23552e-07
-6.64305e-08
1.57889e-07
-9.28918e-08
1.90779e-07
-1.2282e-07
2.21859e-07
-1.55862e-07
2.50859e-07
-1.91685e-07
2.77583e-07
-2.2997e-07
3.01902e-07
-2.70416e-07
3.23741e-07
-3.12733e-07
3.43066e-07
-3.56643e-07
3.59878e-07
-4.0188e-07
3.74202e-07
-4.48187e-07
3.86078e-07
-4.95316e-07
3.9556e-07
-5.43027e-07
4.02704e-07
-5.91086e-07
4.0757e-07
-6.39266e-07
4.10214e-07
-6.87343e-07
4.10688e-07
-7.35097e-07
4.09039e-07
-7.82312e-07
4.05307e-07
-8.28776e-07
3.99528e-07
-8.74277e-07
3.9173e-07
-9.18605e-07
3.81937e-07
-9.61554e-07
3.70172e-07
-1.00292e-06
3.56456e-07
-1.04249e-06
3.40809e-07
-1.08007e-06
3.23258e-07
-1.11547e-06
3.03832e-07
-1.14848e-06
2.82569e-07
-1.17891e-06
2.59516e-07
-1.20659e-06
2.34732e-07
-1.23134e-06
2.08288e-07
-1.25298e-06
1.80272e-07
-1.27137e-06
1.50785e-07
-1.28634e-06
1.19949e-07
-1.29778e-06
8.79018e-08
-1.30555e-06
5.48005e-08
-1.30955e-06
2.08212e-08
-1.30971e-06
-1.38416e-08
-1.30595e-06