/*--------------------------------*- C++ -*----------------------------------*\
| =========                 |                                                 |
| \\      /  F ield         | OpenFOAM: The Open Source CFD Toolbox           |
|  \\    /   O peration     | Version:  2506                                  |
|   \\  /    A nd           | Website:  www.openfoam.com                      |
|    \\/     M anipulation  |                                                 |
\*---------------------------------------------------------------------------*/
FoamFile
{
    version     2.0;
    format      ascii;
    arch        "LSB;label=32;scalar=64";
    class       volVectorField;
    location    "1.475";
    object      U;
}
// * * * * * * * * * * * * * * * * * * * * * * * * * * * * * * * * * * * * * //

dimensions      [0 1 -1 0 0 0 0];

internalField   nonuniform List<vector> 
6400
(
(8.45875e-06 -8.79486e-06 0)
(3.33228e-05 -1.59001e-05 0)
(6.33792e-05 -1.44774e-05 0)
(8.18509e-05 -8.73313e-06 0)
(8.04131e-05 -1.28027e-06 0)
(5.64194e-05 6.55635e-06 0)
(9.51669e-06 1.41312e-05 0)
(-5.94474e-05 2.11411e-05 0)
(-0.000148953 2.74578e-05 0)
(-0.000257135 3.30466e-05 0)
(-0.000381994 3.79178e-05 0)
(-0.000521515 4.21065e-05 0)
(-0.000673735 4.56598e-05 0)
(-0.000836779 4.86295e-05 0)
(-0.00100889 5.10669e-05 0)
(-0.00118843 5.30205e-05 0)
(-0.00137388 5.45359e-05 0)
(-0.00156384 5.56532e-05 0)
(-0.001757 5.6406e-05 0)
(-0.00195215 5.68228e-05 0)
(-0.00214813 5.69258e-05 0)
(-0.00234387 5.67314e-05 0)
(-0.00253832 5.62519e-05 0)
(-0.00273048 5.54942e-05 0)
(-0.00291934 5.44607e-05 0)
(-0.00310394 5.31514e-05 0)
(-0.00328328 5.1564e-05 0)
(-0.00345637 4.96938e-05 0)
(-0.00362223 4.75349e-05 0)
(-0.00377985 4.50818e-05 0)
(-0.00392821 4.23295e-05 0)
(-0.00406629 3.92744e-05 0)
(-0.00419309 3.59143e-05 0)
(-0.00430759 3.22504e-05 0)
(-0.0044088 2.82871e-05 0)
(-0.00449576 2.40328e-05 0)
(-0.00456755 1.94996e-05 0)
(-0.00462333 1.47048e-05 0)
(-0.00466229 9.67059e-06 0)
(-0.00468374 4.42446e-06 0)
(-0.00468709 -1.00087e-06 0)
(-0.00467186 -6.56753e-06 0)
(-0.00463771 -1.22324e-05 0)
(-0.00458446 -1.79473e-05 0)
(-0.00451208 -2.36596e-05 0)
(-0.00442074 -2.93127e-05 0)
(-0.00431077 -3.48471e-05 0)
(-0.00418272 -4.02006e-05 0)
(-0.00403733 -4.53098e-05 0)
(-0.00387555 -5.01101e-05 0)
(-0.00369852 -5.45376e-05 0)
(-0.0035076 -5.85304e-05 0)
(-0.00330432 -6.20292e-05 0)
(-0.0030904 -6.4979e-05 0)
(-0.00286772 -6.73299e-05 0)
(-0.00263831 -6.90384e-05 0)
(-0.00240433 -7.00683e-05 0)
(-0.00216801 -7.03917e-05 0)
(-0.00193168 -6.99896e-05 0)
(-0.0016977 -6.88527e-05 0)
(-0.00146845 -6.69819e-05 0)
(-0.00124626 -6.43878e-05 0)
(-0.00103344 -6.10916e-05 0)
(-0.000832181 -5.71242e-05 0)
(-0.000644574 -5.25267e-05 0)
(-0.000472543 -4.73494e-05 0)
(-0.000317827 -4.16521e-05 0)
(-0.000181945 -3.55039e-05 0)
(-6.61604e-05 -2.89839e-05 0)
(2.85567e-05 -2.21828e-05 0)
(0.000101574 -1.52051e-05 0)
(0.000152657 -8.17709e-06 0)
(0.000182042 -1.25801e-06 0)
(0.000190558 5.33713e-06 0)
(0.000179811 1.12981e-05 0)
(0.000152471 1.61497e-05 0)
(0.000112643 1.91465e-05 0)
(6.66262e-05 1.90731e-05 0)
(2.51444e-05 1.40998e-05 0)
(3.63057e-06 3.6431e-06 0)
(1.5816e-05 -3.38765e-05 0)
(5.36934e-05 -5.38395e-05 0)
(8.72201e-05 -4.08407e-05 0)
(8.86673e-05 -9.49617e-06 0)
(4.23291e-05 3.07271e-05 0)
(-5.85971e-05 7.41498e-05 0)
(-0.000216236 0.000117439 0)
(-0.000429733 0.000158684 0)
(-0.000696296 0.000196838 0)
(-0.00101197 0.000231382 0)
(-0.00137218 0.00026211 0)
(-0.00177207 0.000289015 0)
(-0.00220671 0.000312209 0)
(-0.00267128 0.000331869 0)
(-0.00316115 0.000348205 0)
(-0.0036719 0.000361439 0)
(-0.00419935 0.000371787 0)
(-0.00473959 0.000379453 0)
(-0.00528891 0.000384616 0)
(-0.00584383 0.000387429 0)
(-0.00640104 0.000388021 0)
(-0.00695738 0.000386491 0)
(-0.00750979 0.000382911 0)
(-0.00805532 0.000377333 0)
(-0.00859105 0.000369783 0)
(-0.00911411 0.000360275 0)
(-0.00962165 0.000348807 0)
(-0.0101108 0.000335368 0)
(-0.0105788 0.000319943 0)
(-0.0110226 0.00030252 0)
(-0.0114395 0.000283088 0)
(-0.0118266 0.000261648 0)
(-0.0121811 0.000238212 0)
(-0.0125002 0.000212812 0)
(-0.0127811 0.000185497 0)
(-0.0130214 0.000156343 0)
(-0.0132185 0.000125451 0)
(-0.0133702 9.29518e-05 0)
(-0.0134744 5.90049e-05 0)
(-0.0135293 2.38016e-05 0)
(-0.0135333 -1.24356e-05 0)
(-0.0134853 -4.9453e-05 0)
(-0.0133846 -8.69665e-05 0)
(-0.0132306 -0.000124664 0)
(-0.0130236 -0.000162209 0)
(-0.012764 -0.000199242 0)
(-0.0124529 -0.000235387 0)
(-0.012092 -0.000270254 0)
(-0.0116833 -0.000303448 0)
(-0.0112295 -0.00033457 0)
(-0.0107338 -0.000363227 0)
(-0.0102001 -0.00038904 0)
(-0.0096324 -0.000411648 0)
(-0.00903554 -0.000430717 0)
(-0.00841463 -0.000445946 0)
(-0.00777517 -0.000457072 0)
(-0.00712301 -0.000463881 0)
(-0.00646423 -0.000466208 0)
(-0.00580509 -0.000463945 0)
(-0.00515196 -0.000457043 0)
(-0.00451123 -0.000445517 0)
(-0.0038892 -0.000429444 0)
(-0.00329204 -0.000408968 0)
(-0.00272565 -0.000384297 0)
(-0.0021956 -0.000355706 0)
(-0.001707 -0.000323534 0)
(-0.00126447 -0.000288186 0)
(-0.000871972 -0.000250136 0)
(-0.000532763 -0.00020993 0)
(-0.000249253 -0.000168198 0)
(-2.28824e-05 -0.000125673 0)
(0.000146033 -8.32224e-05 0)
(0.000258509 -4.19042e-05 0)
(0.000317166 -3.05572e-06 0)
(0.000326606 3.15683e-05 0)
(0.000293909 5.95889e-05 0)
(0.000229112 7.77312e-05 0)
(0.000145922 8.14622e-05 0)
(6.48376e-05 6.49651e-05 0)
(1.39859e-05 2.50586e-05 0)
(1.47168e-05 -6.40581e-05 0)
(4.13975e-05 -8.75045e-05 0)
(4.46064e-05 -4.4108e-05 0)
(-5.51099e-06 3.8628e-05 0)
(-0.000126844 0.000142477 0)
(-0.00032815 0.000255259 0)
(-0.000612647 0.000369042 0)
(-0.000979633 0.000478838 0)
(-0.00142567 0.00058163 0)
(-0.00194553 0.000675698 0)
(-0.00253291 0.00076018 0)
(-0.00318091 0.000834781 0)
(-0.0038824 0.000899571 0)
(-0.00463024 0.000954843 0)
(-0.00541744 0.00100102 0)
(-0.00623726 0.00103859 0)
(-0.00708326 0.00106806 0)
(-0.00794929 0.00108991 0)
(-0.00882952 0.00110458 0)
(-0.00971837 0.00111247 0)
(-0.0106105 0.00111389 0)
(-0.0115009 0.00110911 0)
(-0.0123846 0.00109834 0)
(-0.0132567 0.0010817 0)
(-0.0141125 0.0010593 0)
(-0.0149474 0.00103118 0)
(-0.0157568 0.000997368 0)
(-0.016536 0.00095785 0)
(-0.0172805 0.000912618 0)
(-0.0179858 0.000861665 0)
(-0.0186472 0.000804996 0)
(-0.0192603 0.000742646 0)
(-0.0198206 0.000674686 0)
(-0.0203239 0.000601233 0)
(-0.0207658 0.000522462 0)
(-0.0211425 0.000438614 0)
(-0.0214502 0.000350001 0)
(-0.0216853 0.000257014 0)
(-0.0218448 0.000160121 0)
(-0.021926 5.98779e-05 0)
(-0.0219266 -4.30788e-05 0)
(-0.021845 -0.000148028 0)
(-0.0216801 -0.000254172 0)
(-0.0214314 -0.000360637 0)
(-0.0210992 -0.000466487 0)
(-0.0206845 -0.000570727 0)
(-0.0201891 -0.000672321 0)
(-0.0196156 -0.000770197 0)
(-0.0189674 -0.00086327 0)
(-0.0182488 -0.000950455 0)
(-0.0174647 -0.00103068 0)
(-0.0166211 -0.00110292 0)
(-0.0157246 -0.0011662 0)
(-0.0147823 -0.0012196 0)
(-0.0138024 -0.00126233 0)
(-0.0127933 -0.00129367 0)
(-0.0117641 -0.00131304 0)
(-0.010724 -0.00132002 0)
(-0.00968271 -0.00131432 0)
(-0.00865004 -0.00129582 0)
(-0.00763579 -0.00126456 0)
(-0.00664962 -0.00122078 0)
(-0.00570096 -0.00116489 0)
(-0.00479887 -0.00109748 0)
(-0.00395183 -0.00101932 0)
(-0.00316766 -0.000931391 0)
(-0.00245335 -0.00083483 0)
(-0.0018149 -0.000730992 0)
(-0.00125719 -0.000621442 0)
(-0.000783757 -0.000507981 0)
(-0.000396634 -0.000392699 0)
(-9.61178e-05 -0.000278046 0)
(0.000119509 -0.000166945 0)
(0.000254315 -6.2964e-05 0)
(0.000315152 2.9445e-05 0)
(0.000312145 0.000104626 0)
(0.00025904 0.000155388 0)
(0.000173662 0.000172712 0)
(8.16335e-05 0.000146047 0)
(1.89284e-05 6.63248e-05 0)
(9.18285e-06 -8.30598e-05 0)
(1.02645e-05 -8.92048e-05 0)
(-3.86998e-05 6.06343e-06 0)
(-0.000163858 0.000162671 0)
(-0.000381992 0.000353709 0)
(-0.000702071 0.000560217 0)
(-0.00112737 0.000769154 0)
(-0.00165692 0.000971869 0)
(-0.00228666 0.00116281 0)
(-0.0030104 0.00133861 0)
(-0.00382054 0.00149739 0)
(-0.00470865 0.00163833 0)
(-0.00566589 0.0017613 0)
(-0.00668328 0.00186662 0)
(-0.00775192 0.00195489 0)
(-0.00886313 0.00202689 0)
(-0.0100085 0.00208341 0)
(-0.01118 0.00212528 0)
(-0.0123699 0.00215325 0)
(-0.0135708 0.00216801 0)
(-0.0147754 0.00217012 0)
(-0.015977 0.00216006 0)
(-0.0171688 0.0021382 0)
(-0.0183442 0.00210482 0)
(-0.019497 0.00206009 0)
(-0.0206207 0.00200413 0)
(-0.0217091 0.001937 0)
(-0.0227559 0.00185872 0)
(-0.0237551 0.00176932 0)
(-0.0247005 0.00166881 0)
(-0.0255859 0.00155726 0)
(-0.0264055 0.00143477 0)
(-0.0271534 0.00130153 0)
(-0.0278239 0.0011578 0)
(-0.0284114 0.00100397 0)
(-0.0289107 0.000840537 0)
(-0.029317 0.000668132 0)
(-0.0296259 0.000487538 0)
(-0.0298333 0.000299682 0)
(-0.0299358 0.000105648 0)
(-0.0299306 -9.33266e-05 0)
(-0.0298157 -0.000295854 0)
(-0.0295899 -0.000500403 0)
(-0.0292526 -0.000705309 0)
(-0.0288044 -0.000908791 0)
(-0.0282468 -0.00110897 0)
(-0.0275823 -0.00130387 0)
(-0.0268143 -0.0014915 0)
(-0.0259476 -0.0016698 0)
(-0.0249876 -0.00183675 0)
(-0.0239411 -0.00199033 0)
(-0.0228159 -0.00212863 0)
(-0.0216205 -0.00224982 0)
(-0.0203645 -0.00235222 0)
(-0.0190584 -0.00243431 0)
(-0.0177133 -0.0024948 0)
(-0.0163408 -0.0025326 0)
(-0.0149532 -0.00254693 0)
(-0.0135631 -0.00253725 0)
(-0.012183 -0.00250336 0)
(-0.0108258 -0.00244537 0)
(-0.00950398 -0.00236373 0)
(-0.00822983 -0.00225922 0)
(-0.00701504 -0.00213299 0)
(-0.00587064 -0.00198652 0)
(-0.00480674 -0.00182168 0)
(-0.00383236 -0.00164067 0)
(-0.00295524 -0.00144609 0)
(-0.00218162 -0.00124095 0)
(-0.00151604 -0.0010287 0)
(-0.000961056 -0.000813321 0)
(-0.000517031 -0.000599433 0)
(-0.000181796 -0.000392453 0)
(4.96775e-05 -0.000198825 0)
(0.000185679 -2.63256e-05 0)
(0.000238203 0.000115563 0)
(0.000223177 0.000215278 0)
(0.000160805 0.000258935 0)
(7.95115e-05 0.000230504 0)
(1.92137e-05 0.000112494 0)
(1.76831e-06 -8.22165e-05 0)
(-3.08293e-05 -4.21749e-05 0)
(-0.000146138 0.000129344 0)
(-0.000362494 0.000381966 0)
(-0.000693211 0.000681081 0)
(-0.00114609 0.0010015 0)
(-0.0017235 0.00132524 0)
(-0.00242363 0.00163994 0)
(-0.00324159 0.00193734 0)
(-0.00417022 0.00221217 0)
(-0.00520081 0.00246134 0)
(-0.00632368 0.00268331 0)
(-0.00752858 0.0028776 0)
(-0.00880504 0.00304447 0)
(-0.0101426 0.00318464 0)
(-0.0115309 0.00329909 0)
(-0.01296 0.00338896 0)
(-0.01442 0.00345537 0)
(-0.0159017 0.00349942 0)
(-0.0173958 0.00352209 0)
(-0.0188937 0.00352424 0)
(-0.0203868 0.00350658 0)
(-0.0218668 0.00346967 0)
(-0.0233255 0.00341394 0)
(-0.0247551 0.00333968 0)
(-0.0261477 0.00324711 0)
(-0.0274954 0.00313635 0)
(-0.0287906 0.00300749 0)
(-0.0300257 0.00286059 0)
(-0.0311931 0.00269576 0)
(-0.0322854 0.00251314 0)
(-0.0332952 0.00231297 0)
(-0.0342153 0.00209559 0)
(-0.035039 0.00186151 0)
(-0.0357595 0.00161137 0)
(-0.0363706 0.00134605 0)
(-0.0368664 0.00106661 0)
(-0.0372416 0.00077432 0)
(-0.0374916 0.000470719 0)
(-0.0376123 0.00015756 0)
(-0.0376005 -0.000163158 0)
(-0.0374539 -0.000489208 0)
(-0.037171 -0.000818142 0)
(-0.0367517 -0.00114731 0)
(-0.0361965 -0.00147389 0)
(-0.0355075 -0.0017949 0)
(-0.0346877 -0.00210724 0)
(-0.0337416 -0.00240774 0)
(-0.0326747 -0.0026932 0)
(-0.0314941 -0.00296041 0)
(-0.0302077 -0.00320625 0)
(-0.028825 -0.00342769 0)
(-0.0273564 -0.00362189 0)
(-0.0258134 -0.00378622 0)
(-0.0242087 -0.00391832 0)
(-0.0225554 -0.00401615 0)
(-0.0208678 -0.00407805 0)
(-0.0191604 -0.00410278 0)
(-0.0174484 -0.00408954 0)
(-0.0157468 -0.004038 0)
(-0.0140711 -0.00394836 0)
(-0.0124363 -0.00382134 0)
(-0.010857 -0.00365821 0)
(-0.00934728 -0.00346078 0)
(-0.00792039 -0.00323144 0)
(-0.00658843 -0.00297314 0)
(-0.00536222 -0.00268941 0)
(-0.00425104 -0.00238439 0)
(-0.00326238 -0.00206287 0)
(-0.00240171 -0.00173031 0)
(-0.00167216 -0.001393 0)
(-0.00107432 -0.00105813 0)
(-0.000605883 -0.000734009 0)
(-0.000261335 -0.000430347 0)
(-3.16238e-05 -0.000158549 0)
(9.6222e-05 6.78653e-05 0)
(0.000139265 0.000232832 0)
(0.000118982 0.000317459 0)
(6.47742e-05 0.000299848 0)
(1.67798e-05 0.000153691 0)
(-6.31193e-06 -5.811e-05 0)
(-7.67801e-05 6.22825e-05 0)
(-0.000266993 0.000337455 0)
(-0.000585103 0.000709451 0)
(-0.00103932 0.00113736 0)
(-0.0016352 0.00159062 0)
(-0.00237337 0.00204683 0)
(-0.0032506 0.00249011 0)
(-0.00426082 0.00290956 0)
(-0.00539576 0.003298 0)
(-0.00664563 0.00365103 0)
(-0.00799958 0.00396627 0)
(-0.00944616 0.00424282 0)
(-0.0109736 0.00448077 0)
(-0.0125701 0.00468091 0)
(-0.014224 0.00484441 0)
(-0.0159238 0.00497265 0)
(-0.0176583 0.0050671 0)
(-0.0194166 0.00512916 0)
(-0.0211883 0.00516014 0)
(-0.022963 0.00516117 0)
(-0.0247308 0.00513322 0)
(-0.0264819 0.00507706 0)
(-0.0282067 0.00499328 0)
(-0.029896 0.00488233 0)
(-0.0315403 0.00474451 0)
(-0.0331307 0.00458006 0)
(-0.0346579 0.00438913 0)
(-0.036113 0.0041719 0)
(-0.0374873 0.00392857 0)
(-0.038772 0.00365943 0)
(-0.0399585 0.00336488 0)
(-0.0410387 0.0030455 0)
(-0.0420044 0.00270209 0)
(-0.0428481 0.00233567 0)
(-0.0435625 0.00194753 0)
(-0.044141 0.00153929 0)
(-0.0445775 0.00111284 0)
(-0.0448668 0.000670433 0)
(-0.0450043 0.000214629 0)
(-0.0449865 -0.000251668 0)
(-0.0448108 -0.000725237 0)
(-0.0444757 -0.00120255 0)
(-0.0439811 -0.00167981 0)
(-0.0433278 -0.00215295 0)
(-0.0425183 -0.00261774 0)
(-0.0415562 -0.00306974 0)
(-0.0404467 -0.00350446 0)
(-0.0391964 -0.00391733 0)
(-0.0378132 -0.00430381 0)
(-0.0363065 -0.00465948 0)
(-0.0346871 -0.00498004 0)
(-0.032967 -0.00526147 0)
(-0.0311595 -0.00550005 0)
(-0.029279 -0.00569245 0)
(-0.0273407 -0.00583579 0)
(-0.0253608 -0.00592774 0)
(-0.0233561 -0.00596651 0)
(-0.0213438 -0.005951 0)
(-0.0193413 -0.00588077 0)
(-0.0173662 -0.00575609 0)
(-0.0154358 -0.00557801 0)
(-0.0135668 -0.00534835 0)
(-0.0117755 -0.00506971 0)
(-0.0100768 -0.0047455 0)
(-0.00848493 -0.00437996 0)
(-0.00701219 -0.00397815 0)
(-0.00566933 -0.003546 0)
(-0.00446505 -0.00309034 0)
(-0.00340576 -0.00261895 0)
(-0.00249529 -0.00214071 0)
(-0.00173464 -0.00166569 0)
(-0.00112169 -0.00120539 0)
(-0.000650864 -0.000773003 0)
(-0.000312908 -0.000383738 0)
(-9.45483e-05 -5.52582e-05 0)
(2.16502e-05 0.000191859 0)
(5.75842e-05 0.000333739 0)
(4.2147e-05 0.000342729 0)
(1.28881e-05 0.000184656 0)
(-1.44883e-05 -9.39968e-06 0)
(-0.000124704 0.000228849 0)
(-0.000394509 0.0006375 0)
(-0.000820747 0.00115351 0)
(-0.00140553 0.00173118 0)
(-0.00215137 0.00233561 0)
(-0.00305647 0.00294066 0)
(-0.00411566 0.00352738 0)
(-0.0053213 0.00408247 0)
(-0.00666383 0.00459693 0)
(-0.00813226 0.00506509 0)
(-0.00971459 0.00548374 0)
(-0.0113982 0.0058515 0)
(-0.0131703 0.00616829 0)
(-0.0150178 0.00643487 0)
(-0.0169278 0.00665257 0)
(-0.0188876 0.00682303 0)
(-0.0208848 0.006948 0)
(-0.0229072 0.00702919 0)
(-0.024943 0.00706821 0)
(-0.0269806 0.00706648 0)
(-0.0290088 0.00702522 0)
(-0.0310165 0.0069454 0)
(-0.0329928 0.00682782 0)
(-0.0349272 0.00667306 0)
(-0.0368089 0.00648157 0)
(-0.0386277 0.00625368 0)
(-0.0403732 0.00598968 0)
(-0.0420353 0.00568985 0)
(-0.043604 0.00535454 0)
(-0.0450694 0.00498423 0)
(-0.0464219 0.00457955 0)
(-0.0476523 0.00414136 0)
(-0.0487515 0.00367083 0)
(-0.049711 0.00316942 0)
(-0.0505228 0.00263895 0)
(-0.0511795 0.00208166 0)
(-0.0516743 0.00150017 0)
(-0.0520016 0.000897558 0)
(-0.0521562 0.00027732 0)
(-0.0521344 -0.000356609 0)
(-0.0519333 -0.000999879 0)
(-0.0515515 -0.00164774 0)
(-0.0509888 -0.00229509 0)
(-0.0502464 -0.00293651 0)
(-0.049327 -0.0035663 0)
(-0.0482347 -0.00417859 0)
(-0.0469755 -0.00476734 0)
(-0.0455565 -0.00532651 0)
(-0.0439869 -0.00585006 0)
(-0.0422769 -0.00633208 0)
(-0.0404387 -0.00676692 0)
(-0.0384856 -0.0071492 0)
(-0.0364324 -0.007474 0)
(-0.0342951 -0.00773689 0)
(-0.0320906 -0.00793406 0)
(-0.0298369 -0.0080624 0)
(-0.0275527 -0.00811956 0)
(-0.0252571 -0.00810405 0)
(-0.0229697 -0.00801529 0)
(-0.0207098 -0.00785365 0)
(-0.0184967 -0.00762053 0)
(-0.0163493 -0.00731834 0)
(-0.0142855 -0.00695057 0)
(-0.0123224 -0.00652178 0)
(-0.0104756 -0.00603762 0)
(-0.00875904 -0.00550485 0)
(-0.00718494 -0.00493139 0)
(-0.00576319 -0.00432632 0)
(-0.00450121 -0.00369996 0)
(-0.00340369 -0.00306401 0)
(-0.00247226 -0.00243164 0)
(-0.00170525 -0.00181772 0)
(-0.00109743 -0.00123907 0)
(-0.000639797 -0.00071479 0)
(-0.000319296 -0.000266703 0)
(-0.000118721 8.01846e-05 0)
(-1.64373e-05 0.000297224 0)
(1.48412e-05 0.000351482 0)
(8.27837e-06 0.000202354 0)
(-2.25115e-05 6.42596e-05 0)
(-0.000173009 0.000459713 0)
(-0.000524532 0.00103338 0)
(-0.00106228 0.00171915 0)
(-0.00178175 0.00246798 0)
(-0.00268185 0.00324168 0)
(-0.00375786 0.00401118 0)
(-0.00500222 0.00475502 0)
(-0.0064054 0.00545783 0)
(-0.00795629 0.00610906 0)
(-0.00964256 0.00670188 0)
(-0.011451 0.00723235 0)
(-0.013368 0.00769862 0)
(-0.0153794 0.0081004 0)
(-0.0174713 0.00843847 0)
(-0.0196296 0.00871429 0)
(-0.0218405 0.00892971 0)
(-0.0240905 0.00908675 0)
(-0.0263663 0.00918742 0)
(-0.028655 0.00923362 0)
(-0.0309438 0.00922704 0)
(-0.0332203 0.00916914 0)
(-0.0354723 0.00906114 0)
(-0.0376878 0.00890398 0)
(-0.0398549 0.00869844 0)
(-0.041962 0.00844509 0)
(-0.0439975 0.00814441 0)
(-0.0459501 0.00779681 0)
(-0.0478084 0.00740274 0)
(-0.0495615 0.00696272 0)
(-0.0511984 0.00647745 0)
(-0.0527086 0.00594785 0)
(-0.0540819 0.00537514 0)
(-0.0553083 0.00476087 0)
(-0.0563786 0.00410704 0)
(-0.057284 0.00341608 0)
(-0.0580164 0.00269093 0)
(-0.0585685 0.00193503 0)
(-0.0589341 0.00115238 0)
(-0.0591077 0.000347522 0)
(-0.0590852 -0.000474474 0)
(-0.0588637 -0.00130801 0)
(-0.0584415 -0.00214699 0)
(-0.0578184 -0.00298488 0)
(-0.0569959 -0.00381476 0)
(-0.055977 -0.00462937 0)
(-0.0547661 -0.00542121 0)
(-0.0533698 -0.00618263 0)
(-0.0517958 -0.00690592 0)
(-0.0500541 -0.00758342 0)
(-0.0481559 -0.00820764 0)
(-0.0461143 -0.00877137 0)
(-0.0439439 -0.0092678 0)
(-0.0416608 -0.00969068 0)
(-0.0392822 -0.0100344 0)
(-0.0368268 -0.010294 0)
(-0.0343141 -0.0104657 0)
(-0.0317643 -0.0105464 0)
(-0.0291985 -0.0105341 0)
(-0.0266379 -0.0104282 0)
(-0.0241038 -0.0102291 0)
(-0.0216174 -0.00993856 0)
(-0.0191991 -0.0095596 0)
(-0.0168689 -0.00909666 0)
(-0.0146454 -0.00855552 0)
(-0.012546 -0.00794338 0)
(-0.0105862 -0.00726882 0)
(-0.0087796 -0.00654189 0)
(-0.00713737 -0.00577409 0)
(-0.00566811 -0.00497845 0)
(-0.00437748 -0.00416965 0)
(-0.00326798 -0.0033641 0)
(-0.0023387 -0.00258017 0)
(-0.00158505 -0.0018384 0)
(-0.000998642 -0.0011618 0)
(-0.000567097 -0.000576293 0)
(-0.0002739 -0.000111157 0)
(-9.81958e-05 0.000200513 0)
(-1.50331e-05 0.00032114 0)
(3.38311e-06 0.000205096 0)
(-3.02832e-05 0.00016266 0)
(-0.000220832 0.000755463 0)
(-0.000654547 0.00152674 0)
(-0.00130509 0.00240888 0)
(-0.00216115 0.00335073 0)
(-0.0032177 0.00431187 0)
(-0.00446675 0.00526107 0)
(-0.00589798 0.00617498 0)
(-0.0074997 0.00703661 0)
(-0.00925903 0.00783417 0)
(-0.0111622 0.00855991 0)
(-0.0131946 0.00920925 0)
(-0.0153415 0.00977998 0)
(-0.0175878 0.0102717 0)
(-0.0199184 0.0106851 0)
(-0.0223184 0.0110219 0)
(-0.0247729 0.0112841 0)
(-0.0272674 0.0114739 0)
(-0.0297876 0.0115938 0)
(-0.0323196 0.0116458 0)
(-0.0348497 0.0116319 0)
(-0.0373643 0.0115538 0)
(-0.0398503 0.0114129 0)
(-0.0422946 0.0112105 0)
(-0.0446844 0.0109474 0)
(-0.0470069 0.0106243 0)
(-0.0492496 0.0102418 0)
(-0.0514 0.00980064 0)
(-0.0534461 0.00930131 0)
(-0.0553758 0.0087446 0)
(-0.0571772 0.00813145 0)
(-0.058839 0.00746309 0)
(-0.06035 0.00674114 0)
(-0.0616996 0.00596765 0)
(-0.0628777 0.00514517 0)
(-0.0638749 0.00427682 0)
(-0.0646825 0.0033663 0)
(-0.0652927 0.00241797 0)
(-0.0656986 0.00143683 0)
(-0.0658946 0.000428539 0)
(-0.0658761 -0.000600578 0)
(-0.0656399 -0.00164358 0)
(-0.0651844 -0.00269293 0)
(-0.0645093 -0.00374056 0)
(-0.0636161 -0.00477792 0)
(-0.0625079 -0.00579607 0)
(-0.0611897 -0.00678579 0)
(-0.0596682 -0.00773766 0)
(-0.0579518 -0.0086422 0)
(-0.056051 -0.00949001 0)
(-0.053978 -0.0102719 0)
(-0.0517465 -0.0109789 0)
(-0.0493723 -0.0116028 0)
(-0.0468724 -0.0121358 0)
(-0.0442654 -0.012571 0)
(-0.0415714 -0.0129023 0)
(-0.0388111 -0.013125 0)
(-0.0360065 -0.0132352 0)
(-0.0331802 -0.0132305 0)
(-0.030355 -0.0131101 0)
(-0.0275539 -0.0128743 0)
(-0.0247999 -0.0125254 0)
(-0.0221153 -0.0120669 0)
(-0.0195216 -0.0115043 0)
(-0.0170393 -0.0108447 0)
(-0.0146873 -0.0100969 0)
(-0.0124828 -0.0092713 0)
(-0.0104409 -0.00838027 0)
(-0.00857411 -0.00743783 0)
(-0.00689237 -0.00645986 0)
(-0.0054025 -0.00546412 0)
(-0.00410809 -0.0044704 0)
(-0.0030092 -0.00350061 0)
(-0.00210223 -0.00257906 0)
(-0.00137969 -0.00173268 0)
(-0.00083023 -0.000991384 0)
(-0.000438371 -0.000388535 0)
(-0.000184411 3.86946e-05 0)
(-4.6146e-05 0.000248724 0)
(-1.55821e-06 0.000192074 0)
(-3.77726e-05 0.000285314 0)
(-0.000267719 0.00111571 0)
(-0.00078305 0.00211772 0)
(-0.00154623 0.0032234 0)
(-0.00253914 0.00438055 0)
(-0.00375269 0.00554744 0)
(-0.00517534 0.00669148 0)
(-0.00679382 0.00778799 0)
(-0.00859403 0.00881892 0)
(-0.0105611 0.00977156 0)
(-0.0126797 0.0106375 0)
(-0.0149338 0.0114118 0)
(-0.0173075 0.0120919 0)
(-0.0197846 0.0126774 0)
(-0.022349 0.0131691 0)
(-0.0249849 0.0135688 0)
(-0.0276764 0.0138788 0)
(-0.0304082 0.0141015 0)
(-0.0331652 0.0142397 0)
(-0.0359324 0.0142957 0)
(-0.0386953 0.0142718 0)
(-0.0414395 0.0141698 0)
(-0.0441509 0.0139915 0)
(-0.0468154 0.0137381 0)
(-0.0494194 0.0134107 0)
(-0.0519493 0.0130103 0)
(-0.0543915 0.0125376 0)
(-0.0567328 0.0119934 0)
(-0.0589601 0.0113785 0)
(-0.0610605 0.0106939 0)
(-0.0630215 0.00994073 0)
(-0.0648307 0.0091207 0)
(-0.0664764 0.00823583 0)
(-0.067947 0.00728869 0)
(-0.069232 0.00628246 0)
(-0.0703211 0.00522097 0)
(-0.0712052 0.00410878 0)
(-0.0718758 0.00295121 0)
(-0.0723257 0.00175434 0)
(-0.0725487 0.000525027 0)
(-0.07254 -0.000729089 0)
(-0.0722961 -0.00199963 0)
(-0.0718152 -0.00327754 0)
(-0.0710969 -0.0045531 0)
(-0.0701427 -0.00581605 0)
(-0.0689558 -0.00705569 0)
(-0.0675413 -0.00826093 0)
(-0.0659061 -0.00942051 0)
(-0.0640592 -0.0105231 0)
(-0.0620114 -0.0115573 0)
(-0.0597755 -0.0125122 0)
(-0.057366 -0.0133771 0)
(-0.0547995 -0.014142 0)
(-0.0520941 -0.0147975 0)
(-0.0492693 -0.0153354 0)
(-0.0463464 -0.0157484 0)
(-0.0433476 -0.0160306 0)
(-0.0402961 -0.0161774 0)
(-0.037216 -0.0161858 0)
(-0.0341318 -0.0160546 0)
(-0.0310682 -0.0157843 0)
(-0.0280497 -0.0153773 0)
(-0.0251004 -0.014838 0)
(-0.0222437 -0.0141727 0)
(-0.0195018 -0.0133899 0)
(-0.0168952 -0.0124999 0)
(-0.0144428 -0.0115152 0)
(-0.0121614 -0.0104506 0)
(-0.0100649 -0.00932261 0)
(-0.00816486 -0.00815005 0)
(-0.00646937 -0.0069539 0)
(-0.00498334 -0.00575736 0)
(-0.00370808 -0.00458598 0)
(-0.00264117 -0.00346784 0)
(-0.00177636 -0.00243375 0)
(-0.00110352 -0.00151754 0)
(-0.000608516 -0.000756454 0)
(-0.000273006 -0.000191404 0)
(-7.7709e-05 0.000132563 0)
(-6.42208e-06 0.000162996 0)
(-4.49795e-05 0.000431602 0)
(-0.000313439 0.00153946 0)
(-0.000909157 0.00280545 0)
(-0.00178382 0.00416212 0)
(-0.00291267 0.00555714 0)
(-0.00428247 0.00694825 0)
(-0.00587804 0.00830221 0)
(-0.00768298 0.00959367 0)
(-0.00968064 0.0108039 0)
(-0.0118541 0.0119199 0)
(-0.0141861 0.0129327 0)
(-0.0166594 0.0138371 0)
(-0.0192566 0.0146308 0)
(-0.0219606 0.0153132 0)
(-0.0247543 0.0158854 0)
(-0.0276208 0.0163493 0)
(-0.0305436 0.0167075 0)
(-0.0335065 0.0169628 0)
(-0.0364936 0.017118 0)
(-0.0394891 0.0171759 0)
(-0.0424777 0.017139 0)
(-0.0454442 0.0170094 0)
(-0.0483737 0.0167889 0)
(-0.0512515 0.0164791 0)
(-0.054063 0.0160812 0)
(-0.0567937 0.0155963 0)
(-0.0594295 0.0150254 0)
(-0.0619562 0.0143693 0)
(-0.06436 0.0136291 0)
(-0.0666272 0.0128061 0)
(-0.0687445 0.0119017 0)
(-0.070699 0.010918 0)
(-0.0724779 0.00985754 0)
(-0.0740693 0.00872336 0)
(-0.0754618 0.00751933 0)
(-0.0766447 0.00625007 0)
(-0.077608 0.00492103 0)
(-0.078343 0.00353853 0)
(-0.0788419 0.00210979 0)
(-0.079098 0.000642921 0)
(-0.0791061 -0.000853053 0)
(-0.0788626 -0.00236826 0)
(-0.0783651 -0.00389203 0)
(-0.0776132 -0.00541295 0)
(-0.0766082 -0.00691895 0)
(-0.0753532 -0.00839745 0)
(-0.0738534 -0.00983547 0)
(-0.0721159 -0.0112197 0)
(-0.0701498 -0.0125369 0)
(-0.0679663 -0.0137737 0)
(-0.0655786 -0.0149172 0)
(-0.0630019 -0.0159549 0)
(-0.0602533 -0.0168748 0)
(-0.0573518 -0.017666 0)
(-0.054318 -0.0183187 0)
(-0.051174 -0.0188242 0)
(-0.0479433 -0.0191754 0)
(-0.0446506 -0.0193668 0)
(-0.0413212 -0.0193949 0)
(-0.0379813 -0.019258 0)
(-0.034657 -0.0189565 0)
(-0.0313748 -0.0184932 0)
(-0.0281604 -0.0178729 0)
(-0.025039 -0.0171031 0)
(-0.0220345 -0.0161933 0)
(-0.0191694 -0.0151558 0)
(-0.0164644 -0.0140051 0)
(-0.0139378 -0.0127582 0)
(-0.0116055 -0.0114343 0)
(-0.00948056 -0.0100554 0)
(-0.00757266 -0.00864561 0)
(-0.00588823 -0.00723164 0)
(-0.00443004 -0.00584272 0)
(-0.00319709 -0.00451072 0)
(-0.00218456 -0.0032703 0)
(-0.00138381 -0.00215914 0)
(-0.000782167 -0.00121819 0)
(-0.000362779 -0.000491842 0)
(-0.000109299 -2.82142e-05 0)
(-1.11546e-05 0.000117857 0)
(-5.19175e-05 0.000600849 0)
(-0.000357885 0.00202541 0)
(-0.00103234 0.0035884 0)
(-0.00201666 0.00522358 0)
(-0.00327965 0.00687913 0)
(-0.00480398 0.00851303 0)
(-0.00657077 0.010092 0)
(-0.00856043 0.0115906 0)
(-0.0107536 0.01299 0)
(-0.0131312 0.014277 0)
(-0.0156742 0.0154429 0)
(-0.0183637 0.0164823 0)
(-0.0211811 0.0173931 0)
(-0.0241081 0.018175 0)
(-0.0271266 0.0188293 0)
(-0.030219 0.0193582 0)
(-0.0333679 0.0197645 0)
(-0.0365563 0.0200515 0)
(-0.0397676 0.0202223 0)
(-0.0429854 0.0202799 0)
(-0.0461936 0.0202269 0)
(-0.0493763 0.0200659 0)
(-0.0525181 0.0197988 0)
(-0.0556033 0.0194273 0)
(-0.0586168 0.018953 0)
(-0.0615434 0.0183769 0)
(-0.0643682 0.0177002 0)
(-0.0670765 0.016924 0)
(-0.0696536 0.0160496 0)
(-0.0720852 0.0150785 0)
(-0.0743573 0.0140125 0)
(-0.0764562 0.0128541 0)
(-0.0783687 0.0116063 0)
(-0.0800822 0.0102727 0)
(-0.0815845 0.00885787 0)
(-0.0828644 0.00736727 0)
(-0.0839115 0.00580724 0)
(-0.0847162 0.00418514 0)
(-0.0852704 0.00250938 0)
(-0.085567 0.000789379 0)
(-0.0856001 -0.00096443 0)
(-0.0853658 -0.00274062 0)
(-0.0848614 -0.00452686 0)
(-0.0840861 -0.00630995 0)
(-0.083041 -0.00807597 0)
(-0.081729 -0.0098104 0)
(-0.0801552 -0.0114982 0)
(-0.0783266 -0.0131241 0)
(-0.0762525 -0.0146726 0)
(-0.0739442 -0.0161285 0)
(-0.0714152 -0.0174766 0)
(-0.0686811 -0.0187023 0)
(-0.0657597 -0.019792 0)
(-0.0626704 -0.0207329 0)
(-0.0594348 -0.0215133 0)
(-0.056076 -0.0221231 0)
(-0.0526186 -0.0225541 0)
(-0.0490884 -0.0227995 0)
(-0.0455123 -0.0228552 0)
(-0.0419178 -0.0227188 0)
(-0.0383329 -0.0223908 0)
(-0.0347856 -0.021874 0)
(-0.0313036 -0.0211739 0)
(-0.0279138 -0.0202987 0)
(-0.0246421 -0.0192595 0)
(-0.021513 -0.01807 0)
(-0.018549 -0.0167469 0)
(-0.0157705 -0.0153094 0)
(-0.0131952 -0.0137798 0)
(-0.0108379 -0.0121829 0)
(-0.00871024 -0.0105462 0)
(-0.00682031 -0.00889994 0)
(-0.00517255 -0.00727706 0)
(-0.00376761 -0.00571325 0)
(-0.00260226 -0.00424703 0)
(-0.0016695 -0.00291985 0)
(-0.000958249 -0.00177629 0)
(-0.000453169 -0.000864045 0)
(-0.000140744 -0.000234052 0)
(-1.57441e-05 5.67805e-05 0)
(-5.8601e-05 0.000792359 0)
(-0.000401009 0.00257202 0)
(-0.0011523 0.00446463 0)
(-0.00224399 0.00640564 0)
(-0.00363869 0.00834438 0)
(-0.00531504 0.0102396 0)
(-0.00725054 0.0120587 0)
(-0.00942235 0.0137765 0)
(-0.0118084 0.0153748 0)
(-0.0143873 0.0168404 0)
(-0.0171382 0.0181651 0)
(-0.0200405 0.019344 0)
(-0.0230744 0.0203752 0)
(-0.0262204 0.0212587 0)
(-0.0294594 0.0219963 0)
(-0.0327731 0.0225906 0)
(-0.0361431 0.0230448 0)
(-0.039552 0.0233625 0)
(-0.0429822 0.0235471 0)
(-0.046417 0.0236019 0)
(-0.0498395 0.02353 0)
(-0.0532334 0.0233339 0)
(-0.0565823 0.0230159 0)
(-0.0598703 0.0225779 0)
(-0.0630816 0.0220214 0)
(-0.0662003 0.0213478 0)
(-0.0692109 0.0205585 0)
(-0.0720981 0.0196547 0)
(-0.0748466 0.0186378 0)
(-0.0774415 0.0175098 0)
(-0.0798682 0.0162728 0)
(-0.0821124 0.0149295 0)
(-0.0841602 0.0134836 0)
(-0.0859984 0.0119392 0)
(-0.0876143 0.0103016 0)
(-0.088996 0.00857712 0)
(-0.0901324 0.00677296 0)
(-0.0910137 0.00489759 0)
(-0.0916308 0.00296059 0)
(-0.0919763 0.000972724 0)
(-0.0920437 -0.00105412 0)
(-0.0918286 -0.00310692 0)
(-0.0913278 -0.00517165 0)
(-0.0905402 -0.00723328 0)
(-0.0894663 -0.00927599 0)
(-0.0881088 -0.0112832 0)
(-0.0864726 -0.0132378 0)
(-0.0845644 -0.0151224 0)
(-0.0823934 -0.0169193 0)
(-0.079971 -0.018611 0)
(-0.0773109 -0.0201803 0)
(-0.0744288 -0.0216104 0)
(-0.071343 -0.0228855 0)
(-0.0680734 -0.0239909 0)
(-0.0646424 -0.0249131 0)
(-0.0610739 -0.0256404 0)
(-0.0573934 -0.026163 0)
(-0.0536282 -0.0264732 0)
(-0.0498064 -0.0265656 0)
(-0.0459571 -0.0264374 0)
(-0.0421099 -0.0260888 0)
(-0.0382945 -0.0255226 0)
(-0.0345406 -0.0247449 0)
(-0.0308771 -0.0237646 0)
(-0.027332 -0.0225942 0)
(-0.0239318 -0.021249 0)
(-0.0207012 -0.0197476 0)
(-0.0176626 -0.018112 0)
(-0.014836 -0.0163669 0)
(-0.0122381 -0.0145403 0)
(-0.00988266 -0.0126632 0)
(-0.00777961 -0.0107693 0)
(-0.00593533 -0.00889535 0)
(-0.00435226 -0.00708094 0)
(-0.00302897 -0.00536843 0)
(-0.0019602 -0.00380306 0)
(-0.00113651 -0.00243299 0)
(-0.000544072 -0.00130917 0)
(-0.00017204 -0.000485238 0)
(-2.02055e-05 -2.00851e-05 0)
(-6.50433e-05 0.00100543 0)
(-0.000442791 0.00317764 0)
(-0.00126884 0.00543189 0)
(-0.00246528 0.00770573 0)
(-0.00398877 0.00995011 0)
(-0.00581407 0.0121252 0)
(-0.00791508 0.0141993 0)
(-0.0102658 0.0161485 0)
(-0.0128413 0.017955 0)
(-0.0156181 0.0196068 0)
(-0.0185732 0.021096 0)
(-0.0216846 0.0224186 0)
(-0.024931 0.023573 0)
(-0.0282917 0.0245601 0)
(-0.0317469 0.025382 0)
(-0.0352772 0.0260419 0)
(-0.0388638 0.0265435 0)
(-0.0424882 0.0268907 0)
(-0.0461327 0.0270874 0)
(-0.0497796 0.0271371 0)
(-0.0534118 0.0270433 0)
(-0.0570122 0.0268087 0)
(-0.0605642 0.0264358 0)
(-0.0640512 0.0259266 0)
(-0.0674568 0.0252829 0)
(-0.0707648 0.0245062 0)
(-0.073959 0.023598 0)
(-0.0770236 0.0225597 0)
(-0.0799429 0.0213931 0)
(-0.0827013 0.0201002 0)
(-0.0852836 0.0186835 0)
(-0.087675 0.0171462 0)
(-0.0898611 0.0154923 0)
(-0.0918279 0.0137268 0)
(-0.0935623 0.0118555 0)
(-0.0950517 0.00988551 0)
(-0.0962846 0.00782504 0)
(-0.0972501 0.00568362 0)
(-0.097939 0.00347204 0)
(-0.0983429 0.00120238 0)
(-0.098455 -0.00111198 0)
(-0.09827 -0.00345644 0)
(-0.0977843 -0.0058152 0)
(-0.0969961 -0.0081714 0)
(-0.0959055 -0.0105072 0)
(-0.0945147 -0.0128041 0)
(-0.0928281 -0.0150426 0)