/*--------------------------------*- C++ -*----------------------------------*\
| =========                 |                                                 |
| \\      /  F ield         | OpenFOAM: The Open Source CFD Toolbox           |
|  \\    /   O peration     | Version:  2506                                  |
|   \\  /    A nd           | Website:  www.openfoam.com                      |
|    \\/     M anipulation  |                                                 |
\*---------------------------------------------------------------------------*/
FoamFile
{
    version     2.0;
    format      ascii;
    arch        "LSB;label=32;scalar=64";
    class       volVectorField;
    location    "5.625";
    object      diffU;
}
// * * * * * * * * * * * * * * * * * * * * * * * * * * * * * * * * * * * * * //

dimensions      [0 1 -1 0 0 0 0];

internalField   nonuniform List<vector> 
400
(
(0 0 0)
(9.88098e-15 -8.88762e-14 0)
(7.54952e-15 -7.03375e-14 0)
(7.43849e-15 -7.45921e-14 0)
(7.21645e-15 -7.38511e-14 0)
(7.43849e-15 -7.39834e-14 0)
(7.54952e-15 -7.38817e-14 0)
(7.43849e-15 -7.38687e-14 0)
(7.21645e-15 -7.38658e-14 0)
(7.21645e-15 -7.3954e-14 0)
(7.43849e-15 -7.39111e-14 0)
(7.10543e-15 -7.38367e-14 0)
(7.10543e-15 -7.38056e-14 0)
(7.10543e-15 -7.38667e-14 0)
(6.88338e-15 -7.38475e-14 0)
(6.43929e-15 -7.39085e-14 0)
(6.66134e-15 -7.3961e-14 0)
(6.66134e-15 -7.40153e-14 0)
(6.66134e-15 -7.4023e-14 0)
(6.88338e-15 -7.39781e-14 0)
(1.73195e-14 -3.59115e-14 0)
(2.44249e-15 -8.25472e-14 0)
(5.55112e-15 -7.18676e-14 0)
(6.21725e-15 -7.43325e-14 0)
(5.9952e-15 -7.38053e-14 0)
(6.21725e-15 -7.40261e-14 0)
(6.21725e-15 -7.39636e-14 0)
(6.21725e-15 -7.38865e-14 0)
(6.43929e-15 -7.3868e-14 0)
(6.21725e-15 -7.402e-14 0)
(6.43929e-15 -7.39482e-14 0)
(6.21725e-15 -7.3914e-14 0)
(6.66134e-15 -7.38771e-14 0)
(6.99441e-15 -7.38035e-14 0)
(6.99441e-15 -7.37365e-14 0)
(6.66134e-15 -7.38865e-14 0)
(7.21645e-15 -7.40447e-14 0)
(6.99441e-15 -7.40304e-14 0)
(6.66134e-15 -7.40006e-14 0)
(6.88338e-15 -7.39586e-14 0)
(1.12133e-14 -1.73375e-13 0)
(5.55112e-15 -5.22567e-14 0)
(6.99441e-15 -7.90703e-14 0)
(5.9952e-15 -7.28253e-14 0)
(6.21725e-15 -7.42762e-14 0)
(6.21725e-15 -7.41298e-14 0)
(6.43929e-15 -7.41388e-14 0)
(6.43929e-15 -7.40092e-14 0)
(6.66134e-15 -7.39778e-14 0)
(6.21725e-15 -7.40067e-14 0)
(6.21725e-15 -7.40435e-14 0)
(6.66134e-15 -7.40813e-14 0)
(6.66134e-15 -7.40286e-14 0)
(6.66134e-15 -7.38523e-14 0)
(6.43929e-15 -7.38397e-14 0)
(6.43929e-15 -7.39491e-14 0)
(6.66134e-15 -7.40653e-14 0)
(6.43929e-15 -7.40792e-14 0)
(6.43929e-15 -7.40977e-14 0)
(6.66134e-15 -7.40021e-14 0)
(-4.21885e-15 -1.14204e-14 0)
(1.04361e-14 -8.69601e-14 0)
(7.21645e-15 -7.08497e-14 0)
(7.43849e-15 -7.46402e-14 0)
(7.54952e-15 -7.39988e-14 0)
(7.32747e-15 -7.41159e-14 0)
(6.99441e-15 -7.3964e-14 0)
(6.88338e-15 -7.39433e-14 0)
(7.10543e-15 -7.39795e-14 0)
(7.21645e-15 -7.39396e-14 0)
(7.10543e-15 -7.40117e-14 0)
(7.10543e-15 -7.39952e-14 0)
(6.88338e-15 -7.39328e-14 0)
(6.99441e-15 -7.38763e-14 0)
(6.99441e-15 -7.39474e-14 0)
(7.10543e-15 -7.40466e-14 0)
(7.10543e-15 -7.40672e-14 0)
(6.99441e-15 -7.40923e-14 0)
(7.10543e-15 -7.41078e-14 0)
(6.99441e-15 -7.40164e-14 0)
(7.54952e-15 -8.39539e-14 0)
(5.77316e-15 -7.22832e-14 0)
(6.66134e-15 -7.43802e-14 0)
(7.32747e-15 -7.40211e-14 0)
(7.21645e-15 -7.40815e-14 0)
(7.21645e-15 -7.39389e-14 0)
(7.21645e-15 -7.38923e-14 0)
(7.21645e-15 -7.39538e-14 0)
(7.10543e-15 -7.4049e-14 0)
(7.21645e-15 -7.39645e-14 0)
(7.10543e-15 -7.39133e-14 0)
(6.99441e-15 -7.39151e-14 0)
(7.10543e-15 -7.38793e-14 0)
(6.88338e-15 -7.39303e-14 0)
(6.99441e-15 -7.39845e-14 0)
(6.99441e-15 -7.40902e-14 0)
(7.32747e-15 -7.40306e-14 0)
(7.10543e-15 -7.39289e-14 0)
(6.99441e-15 -7.38751e-14 0)
(6.99441e-15 -7.38879e-14 0)
(1.78746e-14 -1.0503e-13 0)
(5.32907e-15 -6.77229e-14 0)
(8.43769e-15 -7.55655e-14 0)
(7.10543e-15 -7.38269e-14 0)
(7.32747e-15 -7.41288e-14 0)
(7.10543e-15 -7.39072e-14 0)
(7.21645e-15 -7.39387e-14 0)
(7.54952e-15 -7.39896e-14 0)
(7.66054e-15 -7.39451e-14 0)
(7.10543e-15 -7.3871e-14 0)
(7.32747e-15 -7.38654e-14 0)
(7.21645e-15 -7.38779e-14 0)
(6.99441e-15 -7.38438e-14 0)
(7.10543e-15 -7.38868e-14 0)
(6.88338e-15 -7.3954e-14 0)
(6.88338e-15 -7.4067e-14 0)
(6.43929e-15 -7.40754e-14 0)
(6.66134e-15 -7.3972e-14 0)
(6.66134e-15 -7.39219e-14 0)
(6.88338e-15 -7.3892e-14 0)
(2.44249e-15 -3.35036e-14 0)
(8.43769e-15 -8.13206e-14 0)
(6.88338e-15 -7.21594e-14 0)
(7.10543e-15 -7.42084e-14 0)
(6.66134e-15 -7.38676e-14 0)
(6.66134e-15 -7.41065e-14 0)
(6.88338e-15 -7.41826e-14 0)
(7.10543e-15 -7.4034e-14 0)
(7.10543e-15 -7.38553e-14 0)
(6.88338e-15 -7.38386e-14 0)
(7.21645e-15 -7.38397e-14 0)
(7.21645e-15 -7.38208e-14 0)
(7.10543e-15 -7.37668e-14 0)
(7.32747e-15 -7.36793e-14 0)
(7.10543e-15 -7.3733e-14 0)
(7.10543e-15 -7.39428e-14 0)
(6.66134e-15 -7.40096e-14 0)
(6.88338e-15 -7.39786e-14 0)
(6.66134e-15 -7.40215e-14 0)
(6.88338e-15 -7.39656e-14 0)
(4.88498e-15 -8.38724e-14 0)
(6.21725e-15 -7.19649e-14 0)
(5.9952e-15 -7.42074e-14 0)
(6.66134e-15 -7.37327e-14 0)
(6.66134e-15 -7.39695e-14 0)
(6.88338e-15 -7.41215e-14 0)
(6.66134e-15 -7.41491e-14 0)
(6.43929e-15 -7.40401e-14 0)
(6.66134e-15 -7.40189e-14 0)
(6.21725e-15 -7.39743e-14 0)
(6.66134e-15 -7.38978e-14 0)
(6.88338e-15 -7.37765e-14 0)
(6.43929e-15 -7.37742e-14 0)
(6.66134e-15 -7.37556e-14 0)
(6.66134e-15 -7.3727e-14 0)
(6.99441e-15 -7.37958e-14 0)
(6.66134e-15 -7.39249e-14 0)
(6.66134e-15 -7.40992e-14 0)
(6.99441e-15 -7.40899e-14 0)
(6.88338e-15 -7.3992e-14 0)
(9.32587e-15 -9.536e-14 0)
(6.99441e-15 -6.97995e-14 0)
(7.21645e-15 -7.50224e-14 0)
(6.88338e-15 -7.38218e-14 0)
(7.10543e-15 -7.41214e-14 0)
(6.88338e-15 -7.40458e-14 0)
(6.66134e-15 -7.39959e-14 0)
(7.10543e-15 -7.40193e-14 0)
(7.10543e-15 -7.4003e-14 0)
(7.21645e-15 -7.39443e-14 0)
(6.88338e-15 -7.3888e-14 0)
(6.88338e-15 -7.38621e-14 0)
(6.99441e-15 -7.39381e-14 0)
(7.32747e-15 -7.38493e-14 0)
(7.21645e-15 -7.37109e-14 0)
(7.32747e-15 -7.36895e-14 0)
(7.10543e-15 -7.39372e-14 0)
(7.32747e-15 -7.41507e-14 0)
(6.99441e-15 -7.40398e-14 0)
(6.99441e-15 -7.39568e-14 0)
(8.21565e-15 -5.22845e-14 0)
(6.88338e-15 -7.78346e-14 0)
(7.10543e-15 -7.29769e-14 0)
(6.88338e-15 -7.40549e-14 0)
(6.99441e-15 -7.37851e-14 0)
(6.88338e-15 -7.38472e-14 0)
(6.43929e-15 -7.40106e-14 0)
(6.21725e-15 -7.41575e-14 0)
(6.66134e-15 -7.40901e-14 0)
(6.43929e-15 -7.40095e-14 0)
(6.43929e-15 -7.39059e-14 0)
(6.66134e-15 -7.3877e-14 0)
(6.88338e-15 -7.3843e-14 0)
(6.66134e-15 -7.37856e-14 0)
(6.88338e-15 -7.37532e-14 0)
(6.99441e-15 -7.37914e-14 0)
(7.10543e-15 -7.38477e-14 0)
(6.99441e-15 -7.39026e-14 0)
(6.88338e-15 -7.39349e-14 0)
(6.88338e-15 -7.39533e-14 0)
(-1.9984e-15 -9.15195e-14 0)
(8.10463e-15 -7.0227e-14 0)
(5.9952e-15 -7.47022e-14 0)
(6.99441e-15 -7.3802e-14 0)
(6.88338e-15 -7.38625e-14 0)
(6.99441e-15 -7.37481e-14 0)
(6.99441e-15 -7.3902e-14 0)
(7.10543e-15 -7.40375e-14 0)
(6.66134e-15 -7.3993e-14 0)
(6.66134e-15 -7.39881e-14 0)
(6.43929e-15 -7.40584e-14 0)
(6.43929e-15 -7.40321e-14 0)
(6.66134e-15 -7.38587e-14 0)
(6.43929e-15 -7.38529e-14 0)
(6.99441e-15 -7.40239e-14 0)
(6.88338e-15 -7.40427e-14 0)
(6.88338e-15 -7.39218e-14 0)
(6.66134e-15 -7.38712e-14 0)
(6.88338e-15 -7.39514e-14 0)
(6.88338e-15 -7.39635e-14 0)
(1.4766e-14 -6.38172e-14 0)
(6.43929e-15 -7.56319e-14 0)
(7.88258e-15 -7.37706e-14 0)
(7.10543e-15 -7.41152e-14 0)
(7.66054e-15 -7.39908e-14 0)
(7.32747e-15 -7.40305e-14 0)
(7.54952e-15 -7.39547e-14 0)
(7.54952e-15 -7.37692e-14 0)
(7.43849e-15 -7.36777e-14 0)
(7.32747e-15 -7.37838e-14 0)
(7.32747e-15 -7.39272e-14 0)
(7.54952e-15 -7.40197e-14 0)
(7.21645e-15 -7.39659e-14 0)
(7.54952e-15 -7.3903e-14 0)
(7.43849e-15 -7.39721e-14 0)
(7.32747e-15 -7.3924e-14 0)
(6.99441e-15 -7.38673e-14 0)
(6.99441e-15 -7.38227e-14 0)
(6.99441e-15 -7.38425e-14 0)
(6.88338e-15 -7.39047e-14 0)
(-1.15463e-14 -6.49718e-14 0)
(9.65894e-15 -7.69667e-14 0)
(4.88498e-15 -7.33724e-14 0)
(6.21725e-15 -7.41558e-14 0)
(5.77316e-15 -7.39088e-14 0)
(5.9952e-15 -7.40078e-14 0)
(5.77316e-15 -7.39481e-14 0)
(5.9952e-15 -7.39029e-14 0)
(6.21725e-15 -7.39717e-14 0)
(6.43929e-15 -7.40028e-14 0)
(6.43929e-15 -7.39734e-14 0)
(6.43929e-15 -7.39496e-14 0)
(6.43929e-15 -7.40139e-14 0)
(6.43929e-15 -7.3992e-14 0)
(6.43929e-15 -7.39182e-14 0)
(6.66134e-15 -7.38189e-14 0)
(6.66134e-15 -7.38184e-14 0)
(6.66134e-15 -7.37894e-14 0)
(6.66134e-15 -7.38469e-14 0)
(6.88338e-15 -7.39447e-14 0)
(2.58682e-14 -1.07344e-13 0)
(3.77476e-15 -6.67309e-14 0)
(8.77076e-15 -7.54638e-14 0)
(6.43929e-15 -7.34259e-14 0)
(7.10543e-15 -7.40292e-14 0)
(6.99441e-15 -7.39367e-14 0)
(7.10543e-15 -7.40233e-14 0)
(7.21645e-15 -7.40915e-14 0)
(7.10543e-15 -7.41105e-14 0)
(6.88338e-15 -7.40419e-14 0)
(6.88338e-15 -7.39968e-14 0)
(6.88338e-15 -7.39494e-14 0)
(6.88338e-15 -7.39757e-14 0)
(6.66134e-15 -7.40024e-14 0)
(6.43929e-15 -7.39872e-14 0)
(6.43929e-15 -7.39776e-14 0)
(6.66134e-15 -7.39423e-14 0)
(6.88338e-15 -7.39459e-14 0)
(6.88338e-15 -7.39919e-14 0)
(6.88338e-15 -7.39979e-14 0)
(-7.54952e-15 -3.2232e-14 0)
(9.10383e-15 -8.22145e-14 0)
(5.32907e-15 -7.20975e-14 0)
(6.88338e-15 -7.44019e-14 0)
(6.66134e-15 -7.40413e-14 0)
(7.10543e-15 -7.4088e-14 0)
(7.10543e-15 -7.40127e-14 0)
(6.99441e-15 -7.39844e-14 0)
(6.88338e-15 -7.38742e-14 0)
(7.10543e-15 -7.38892e-14 0)
(6.99441e-15 -7.3888e-14 0)
(7.10543e-15 -7.38513e-14 0)
(7.21645e-15 -7.38182e-14 0)
(7.10543e-15 -7.37957e-14 0)
(7.32747e-15 -7.38612e-14 0)
(7.10543e-15 -7.40002e-14 0)
(7.10543e-15 -7.3921e-14 0)
(7.10543e-15 -7.39551e-14 0)
(7.10543e-15 -7.38957e-14 0)
(6.88338e-15 -7.39056e-14 0)
(1.0103e-14 -9.95632e-14 0)
(6.21725e-15 -6.91398e-14 0)
(6.88338e-15 -7.53137e-14 0)
(6.99441e-15 -7.39964e-14 0)
(6.88338e-15 -7.41653e-14 0)
(6.88338e-15 -7.40705e-14 0)
(6.43929e-15 -7.4002e-14 0)
(6.43929e-15 -7.39803e-14 0)
(6.21725e-15 -7.39754e-14 0)
(6.43929e-15 -7.39711e-14 0)
(6.66134e-15 -7.39585e-14 0)
(6.43929e-15 -7.39045e-14 0)
(6.21725e-15 -7.38809e-14 0)
(6.43929e-15 -7.39146e-14 0)
(6.66134e-15 -7.39117e-14 0)
(6.88338e-15 -7.39357e-14 0)
(6.66134e-15 -7.39231e-14 0)
(6.88338e-15 -7.39145e-14 0)
(6.66134e-15 -7.39064e-14 0)
(6.88338e-15 -7.38999e-14 0)
(1.9984e-15 -7.84188e-14 0)
(8.77076e-15 -7.35073e-14 0)
(7.21645e-15 -7.40787e-14 0)
(7.32747e-15 -7.40284e-14 0)
(7.10543e-15 -7.37911e-14 0)
(7.21645e-15 -7.38419e-14 0)
(7.21645e-15 -7.39946e-14 0)
(7.32747e-15 -7.3986e-14 0)
(7.43849e-15 -7.40348e-14 0)
(7.32747e-15 -7.39638e-14 0)
(7.21645e-15 -7.38519e-14 0)
(6.88338e-15 -7.38267e-14 0)
(7.10543e-15 -7.39813e-14 0)
(7.21645e-15 -7.41527e-14 0)
(7.32747e-15 -7.40834e-14 0)
(7.43849e-15 -7.3897e-14 0)
(7.43849e-15 -7.3875e-14 0)
(7.32747e-15 -7.38009e-14 0)
(6.99441e-15 -7.39104e-14 0)
(6.88338e-15 -7.39328e-14 0)
(1.16573e-14 -3.75411e-14 0)
(5.55112e-15 -8.09752e-14 0)
(7.21645e-15 -7.24771e-14 0)
(6.43929e-15 -7.42701e-14 0)
(6.66134e-15 -7.3827e-14 0)
(6.66134e-15 -7.39005e-14 0)
(6.88338e-15 -7.39719e-14 0)
(6.43929e-15 -7.39341e-14 0)
(6.21725e-15 -7.3937e-14 0)
(6.66134e-15 -7.39252e-14 0)
(6.43929e-15 -7.38716e-14 0)
(6.99441e-15 -7.3856e-14 0)
(6.88338e-15 -7.39019e-14 0)
(6.43929e-15 -7.40518e-14 0)
(6.43929e-15 -7.40288e-14 0)
(6.66134e-15 -7.39037e-14 0)
(6.43929e-15 -7.3811e-14 0)
(6.88338e-15 -7.37078e-14 0)
(6.88338e-15 -7.382e-14 0)
(6.88338e-15 -7.39269e-14 0)
(6.43929e-15 -8.2344e-14 0)
(5.9952e-15 -7.2866e-14 0)
(5.77316e-15 -7.42924e-14 0)
(6.43929e-15 -7.38764e-14 0)
(6.43929e-15 -7.39793e-14 0)
(6.43929e-15 -7.39634e-14 0)
(6.21725e-15 -7.39862e-14 0)
(6.21725e-15 -7.4022e-14 0)
(6.43929e-15 -7.40069e-14 0)
(6.43929e-15 -7.40134e-14 0)
(6.43929e-15 -7.40487e-14 0)
(6.66134e-15 -7.40049e-14 0)
(6.88338e-15 -7.38892e-14 0)
(6.88338e-15 -7.39162e-14 0)
(6.43929e-15 -7.39613e-14 0)
(6.43929e-15 -7.39869e-14 0)
(6.43929e-15 -7.40096e-14 0)
(6.66134e-15 -7.39956e-14 0)
(6.88338e-15 -7.3934e-14 0)
(6.99441e-15 -7.38907e-14 0)
(8.88178e-15 -1.38629e-13 0)
(7.32747e-15 -6.08753e-14 0)
(7.99361e-15 -7.69959e-14 0)
(7.54952e-15 -7.33381e-14 0)
(7.54952e-15 -7.40764e-14 0)
(7.66054e-15 -7.38959e-14 0)
(7.66054e-15 -7.39568e-14 0)
(7.43849e-15 -7.40242e-14 0)
(7.54952e-15 -7.40278e-14 0)
(7.43849e-15 -7.4028e-14 0)
(7.32747e-15 -7.40316e-14 0)
(7.21645e-15 -7.40092e-14 0)
(6.99441e-15 -7.39843e-14 0)
(7.10543e-15 -7.39086e-14 0)
(7.21645e-15 -7.39457e-14 0)
(7.21645e-15 -7.39957e-14 0)
(7.10543e-15 -7.40442e-14 0)
(6.99441e-15 -7.40778e-14 0)
(6.66134e-15 -7.39803e-14 0)
(6.99441e-15 -7.38862e-14 0)
)
;

boundaryField
{
    movingWall
    {
        type            calculated;
        value           uniform (6.88338e-15 -7.39486e-14 0);
    }
    fixedWalls
    {
        type            calculated;
        value           uniform (6.88338e-15 -7.39486e-14 0);
    }
    frontAndBack
    {
        type            empty;
    }
}


// ************************************************************************* //
