/*--------------------------------*- C++ -*----------------------------------*\
| =========                 |                                                 |
| \\      /  F ield         | OpenFOAM: The Open Source CFD Toolbox           |
|  \\    /   O peration     | Version:  2506                                  |
|   \\  /    A nd           | Website:  www.openfoam.com                      |
|    \\/     M anipulation  |                                                 |
\*---------------------------------------------------------------------------*/
FoamFile
{
    version     2.0;
    format      ascii;
    arch        "LSB;label=32;scalar=64";
    class       volScalarField;
    location    "5.625";
    object      divU;
}
// * * * * * * * * * * * * * * * * * * * * * * * * * * * * * * * * * * * * * //

dimensions      [0 0 -1 0 0 0 0];

internalField   nonuniform List<scalar> 
400
(
1.07878e-11
-1.56658e-12
2.98155e-13
-1.29854e-13
2.40749e-14
4.29729e-14
-2.19158e-14
-1.2903e-14
-1.07677e-14
1.94116e-14
3.78733e-15
-1.24587e-14
2.14419e-14
-4.40783e-15
-5.00019e-14
-1.68939e-14
1.62509e-14
-1.48547e-14
4.15601e-14
0
-1.66967e-11
2.50194e-12
-4.93808e-13
1.82355e-13
8.67111e-15
-2.58765e-14
-2.05226e-14
-2.69505e-14
3.2241e-14
-1.29593e-14
-9.4549e-15
-3.69247e-14
5.33546e-14
2.41384e-14
-2.21138e-14
6.15615e-15
3.29282e-14
-4.83456e-14
-2.01194e-14
0
2.73761e-12
-8.6669e-13
1.50076e-13
-1.46564e-13
4.35274e-14
4.64602e-14
6.545e-15
-5.53376e-15
-6.01776e-15
-5.91286e-14
3.84008e-14
9.17298e-15
-6.4175e-15
-1.02479e-14
-4.32054e-14
1.72495e-14
-2.35341e-14
-3.29981e-16
2.33736e-14
5.42101e-14
8.15862e-12
-8.36461e-13
1.31196e-13
-1.0352e-13
8.7905e-15
-4.28709e-14
4.08953e-15
-3.20716e-18
1.39668e-14
-6.98146e-16
2.43156e-14
-1.31356e-15
-1.8594e-14
9.05636e-15
-3.47407e-15
3.1364e-15
7.0375e-15
1.46979e-14
-8.57173e-15
-2.71051e-14
-9.45966e-12
1.8462e-12
-3.13274e-13
1.40443e-13
-3.13173e-14
3.22071e-14
6.61761e-15
-4.63098e-15
-9.70143e-15
6.16152e-15
1.18414e-14
1.04139e-14
-9.69719e-15
8.00442e-15
-4.13694e-15
2.82043e-14
6.22135e-15
-3.71255e-16
-1.70854e-14
-2.71051e-14
6.01732e-12
-1.84937e-12
4.23798e-13
-1.49331e-13
1.71802e-14
-1.16573e-14
4.68708e-15
4.1564e-14
-1.7438e-14
-3.54583e-14
4.63062e-14
-7.26088e-15
1.552e-15
6.003e-15
-6.0972e-15
-3.83709e-14
-1.87864e-14
2.17632e-14
4.95852e-14
0
1.81604e-12
3.03682e-14
-9.60094e-15
-4.38684e-15
-4.81991e-14
2.11201e-14
1.07491e-14
9.40675e-15
-2.48196e-14
8.4212e-15
-1.1144e-14
2.87631e-15
8.51191e-15
1.91206e-14
1.66078e-14
-3.83563e-14
2.33657e-14
-7.2272e-14
3.27885e-14
0
-6.47811e-12
1.2909e-12
-2.95893e-13
1.1558e-13
3.48378e-14
9.13358e-17
-5.1893e-14
1.08793e-14
-1.24795e-14
-2.15342e-15
6.53465e-14
-5.54575e-14
-8.61645e-15
-2.49845e-14
4.59231e-14
1.40829e-14
-5.07041e-14
4.60406e-14
3.85299e-15
0
3.44234e-12
-8.13955e-13
1.25311e-13
-5.2165e-14
2.61684e-14
4.1382e-16
1.61714e-14
5.33543e-14
-1.95918e-14
-5.67111e-15
-4.3888e-14
1.58112e-14
1.16066e-14
2.62309e-14
-1.09092e-14
-3.96853e-14
1.12293e-14
1.14905e-14
-7.76046e-15
-2.71051e-14
5.14996e-13
-1.51977e-13
2.18017e-14
4.0243e-15
-2.14872e-15
-2.4026e-14
-2.86476e-14
-2.68074e-15
8.51369e-15
-1.00466e-14
2.03844e-14
2.59087e-14
-3.46645e-14
-1.24303e-15
1.20086e-14
6.31008e-15
1.27614e-14
-1.47708e-14
1.07967e-15
0
-1.89735e-12
1.04408e-12
-2.20197e-13
1.06416e-13
-4.98188e-14
1.18528e-14
4.04466e-15
9.04437e-15
-4.4602e-15
-1.45767e-14
-8.8452e-15
1.16398e-14
-1.98449e-14
-1.29892e-14
4.43246e-14
-6.95089e-15
1.07994e-14
2.03233e-14
1.03222e-14
0
3.38813e-12
-1.39171e-12
2.10937e-13
-9.15907e-14
2.68636e-14
-1.41159e-14
2.65412e-14
2.25095e-14
-5.65365e-14
1.10613e-14
2.67578e-14
-7.21131e-15
1.88462e-14
2.09876e-16
-5.35342e-14
-1.16827e-14
-5.95772e-15
1.39768e-15
-6.33318e-15
0
-5.8818e-12
2.47995e-12
-5.00482e-13
1.39969e-13
-4.08544e-15
2.2372e-14
-3.45275e-14
-9.72699e-15
6.28108e-14
-1.4747e-14
-7.30651e-15
-1.84256e-16
-9.2383e-15
-9.72662e-15
2.62778e-14
-1.70412e-14
-1.34513e-14
-1.09263e-14
3.29373e-14
0
4.87891e-12
-2.24613e-12
4.13056e-13
-1.82796e-13
3.68719e-14
-3.98624e-14
1.32169e-14
-1.78827e-14
-8.76347e-15
-3.39376e-15
1.23477e-15
9.64411e-15
-4.38831e-14
9.90337e-15
-2.22327e-14
1.90435e-14
-2.37161e-14
2.67198e-14
9.57198e-16
0
-4.87891e-13
1.06374e-12
-2.22458e-13
1.39619e-13
-3.84119e-15
2.80773e-14
-1.17645e-14
2.03425e-14
4.75118e-15
3.07892e-14
5.06575e-15
1.41307e-14
1.97981e-14
1.86855e-14
1.24222e-14
-3.86946e-15
5.30747e-15
2.75301e-15
-1.75957e-14
-2.71051e-14
-4.33681e-12
5.52111e-13
-1.49526e-13
6.85509e-14
-5.92816e-15
-2.86258e-14
-3.70572e-14
-6.11263e-14
4.2902e-14
-3.76949e-15
8.67962e-15
-1.05105e-14
-7.78279e-14
1.00907e-14
7.15172e-14
-4.77577e-14
6.41221e-14
-3.60345e-14
6.22432e-14
0
5.9089e-12
-6.58535e-13
1.34142e-13
-4.01309e-14
2.79029e-14
1.54772e-14
2.017e-14
2.48183e-14
-3.45752e-14
8.21104e-16
-9.73976e-15
-3.27665e-14
2.84941e-14
-3.63126e-15
5.59798e-15
3.67542e-14
-5.98328e-15
-1.53598e-14
-3.7541e-14
0
-8.13152e-14
-3.50464e-13
5.85549e-14
-7.91437e-14
9.08531e-15
-2.37842e-14
-6.09389e-15
-3.2993e-14
-4.67278e-15
2.29673e-14
-2.94197e-14
3.07282e-14
-4.36043e-14
-7.08452e-15
1.78141e-14
6.53626e-16
7.65317e-15
4.64859e-14
-1.2793e-14
0
-1.02457e-11
1.93058e-12
-4.20436e-13
2.03789e-13
-1.58535e-14
3.78411e-15
-5.87941e-14
3.93073e-14
-1.37465e-14
-1.44254e-14
-1.8312e-14
1.5407e-14
5.65796e-14
-4.69779e-14
-2.80887e-14
-8.55119e-15
-1.56711e-14
3.6587e-14
-1.71117e-15
-2.71051e-14
7.56231e-12
-1.49078e-12
3.79471e-13
-1.35525e-13
5.42101e-14
0
-2.71051e-14
2.71051e-14
2.71051e-14
0
0
-2.71051e-14
0
0
0
0
0
0
0
0
)
;

boundaryField
{
    movingWall
    {
        type            extrapolatedCalculated;
        value           nonuniform List<scalar> 
20
(
7.56231e-12
-1.49078e-12
3.79471e-13
-1.35525e-13
5.42101e-14
0
-2.71051e-14
2.71051e-14
2.71051e-14
0
0
-2.71051e-14
0
0
0
0
0
0
0
0
)
;
    }
    fixedWalls
    {
        type            extrapolatedCalculated;
        value           nonuniform List<scalar> 
60
(
1.07878e-11
-1.66967e-11
2.73761e-12
8.15862e-12
-9.45966e-12
6.01732e-12
1.81604e-12
-6.47811e-12
3.44234e-12
5.14996e-13
-1.89735e-12
3.38813e-12
-5.8818e-12
4.87891e-12
-4.87891e-13
-4.33681e-12
5.9089e-12
-8.13152e-14
-1.02457e-11
7.56231e-12
0
0
5.42101e-14
-2.71051e-14
-2.71051e-14
0
0
0
-2.71051e-14
0
0
0
0
0
-2.71051e-14
0
0
0
-2.71051e-14
0
1.07878e-11
-1.56658e-12
2.98155e-13
-1.29854e-13
2.40749e-14
4.29729e-14
-2.19158e-14
-1.2903e-14
-1.07677e-14
1.94116e-14
3.78733e-15
-1.24587e-14
2.14419e-14
-4.40783e-15
-5.00019e-14
-1.68939e-14
1.62509e-14
-1.48547e-14
4.15601e-14
0
)
;
    }
    frontAndBack
    {
        type            empty;
    }
}


// ************************************************************************* //
