/*--------------------------------*- C++ -*----------------------------------*\
| =========                 |                                                 |
| \\      /  F ield         | OpenFOAM: The Open Source CFD Toolbox           |
|  \\    /   O peration     | Version:  2506                                  |
|   \\  /    A nd           | Website:  www.openfoam.com                      |
|    \\/     M anipulation  |                                                 |
\*---------------------------------------------------------------------------*/
FoamFile
{
    version     2.0;
    format      ascii;
    arch        "LSB;label=32;scalar=64";
    class       volScalarField;
    location    "5.625";
    object      enstrophyField;
}
// * * * * * * * * * * * * * * * * * * * * * * * * * * * * * * * * * * * * * //

dimensions      [0 0 -2 0 0 0 0];

internalField   nonuniform List<scalar> 
400
(
1.53998e-23
2.36062e-23
1.09908e-24
7.16186e-26
3.86937e-27
4.66248e-30
6.58559e-29
1.25713e-30
3.64374e-29
1.23402e-27
6.8897e-29
2.09708e-27
4.51181e-30
1.70546e-27
8.7456e-30
2.44793e-27
5.70271e-29
1.92467e-29
1.67786e-27
5.40792e-29
1.67909e-24
4.9989e-24
4.0751e-25
8.13559e-30
1.38066e-26
7.16324e-27
4.53893e-27
1.05252e-26
2.30903e-27
2.68615e-27
4.22432e-27
5.85071e-28
2.12975e-27
2.3307e-27
1.05369e-27
4.75022e-28
1.03482e-28
1.71807e-27
5.87728e-28
1.82509e-27
1.58607e-23
3.73632e-23
2.52359e-24
5.91278e-26
5.12618e-26
7.41543e-27
1.13051e-28
2.12676e-27
3.28618e-27
3.86204e-27
5.9743e-28
3.18546e-27
2.6228e-28
1.78367e-28
4.68356e-29
1.23308e-27
8.46358e-29
5.26811e-30
1.88045e-28
5.76254e-28
1.42105e-23
1.78207e-23
8.2716e-25
1.14021e-25
4.17129e-28
3.02881e-27
4.15574e-27
3.43364e-27
1.44937e-27
6.23176e-27
6.49482e-27
1.07256e-27
2.41021e-27
4.08128e-28
4.83631e-27
7.24852e-27
1.72749e-27
6.32549e-27
5.08302e-27
9.68225e-30
4.67142e-24
1.08393e-24
4.78386e-26
3.5348e-27
3.37603e-29
1.05914e-27
1.11033e-30
4.70344e-27
1.52768e-27
9.20545e-29
1.21842e-29
5.80004e-30
4.09583e-28
5.53352e-29
6.17646e-29
1.23008e-27
2.4739e-27
2.43339e-27
1.69982e-27
9.37029e-29
1.99535e-24
3.57884e-24
2.03201e-25
1.03199e-26
1.06616e-27
2.68098e-27
3.39723e-29
3.50064e-28
7.59045e-28
6.15275e-28
3.86117e-28
2.33408e-30
3.43524e-28
7.26943e-28
1.01812e-27
7.69958e-28
4.12407e-27
2.41938e-27
1.93496e-27
3.46768e-29
1.06184e-23
7.78902e-24
4.56178e-25
6.79799e-27
4.18581e-27
2.57683e-28
6.69026e-27
6.50316e-27
5.08591e-27
6.04783e-27
3.45211e-27
2.66105e-29
4.5575e-27
4.64535e-28
2.81782e-31
1.49947e-27
4.70788e-28
7.07646e-31
1.39972e-27
4.04609e-29
1.08287e-24
6.07234e-25
2.0784e-26
2.83067e-28
4.3333e-27
2.60452e-27
3.31107e-29
2.2597e-27
2.1643e-29
1.12344e-28
2.73754e-27
2.21583e-27
2.17767e-30
1.11404e-29
8.0703e-30
1.95913e-28
3.57399e-27
4.78318e-27
1.34342e-28
1.70643e-28
2.10431e-24
1.90602e-24
1.30383e-25
4.0587e-27
2.93412e-27
7.87258e-29
3.51199e-30
2.50539e-31
2.80737e-29
9.12063e-28
3.3845e-29
1.2104e-27
1.40074e-27
2.57967e-28
6.18856e-29
2.55888e-28
5.03376e-27
6.98276e-28
1.88069e-28
1.47235e-28
4.25214e-24
2.3711e-24
1.31842e-25
3.26583e-27
1.14568e-27
2.54137e-28
4.81273e-28
3.16037e-29
2.38096e-27
4.97291e-27
8.14465e-28
5.5771e-28
2.00653e-27
6.89143e-27
1.68656e-31
1.00177e-27
1.278e-28
1.03448e-27
2.42723e-28
3.43563e-28
2.1271e-24
1.50675e-24
9.62796e-26
4.42926e-28
2.35625e-28
1.69153e-27
1.35252e-26
1.0458e-26
2.91639e-27
6.60826e-27
3.67394e-27
3.91141e-27
2.00949e-27
7.80468e-27
1.06151e-27
9.68359e-28
9.78891e-28
4.37309e-30
6.60069e-28
1.58221e-30
1.65726e-24
6.39425e-25
2.71421e-26
3.73292e-27
6.83057e-27
6.27508e-27
1.30673e-26
5.94201e-27
3.2887e-28
2.32833e-30
2.78218e-28
7.48097e-30
7.51415e-28
1.97532e-31
1.35796e-27
7.06431e-28
5.13328e-29
3.07565e-30
1.78735e-28
1.12463e-28
1.32838e-25
1.61886e-25
1.99541e-26
3.83013e-28
8.78184e-28
2.68549e-28
7.06653e-28
1.34441e-27
9.77725e-28
1.45969e-27
1.7717e-27
2.98545e-27
1.2485e-27
4.12945e-27
4.86328e-27
7.0103e-27
1.63352e-27
4.07735e-30
1.20559e-28
5.56605e-29
4.49168e-24
5.16846e-24
2.61878e-25
1.93091e-27
8.76497e-27
9.1034e-27
1.14017e-26
6.86158e-27
2.91432e-27
2.4457e-27
1.01087e-27
3.13659e-27
3.75129e-27
1.5325e-27
3.10731e-27
2.5566e-28
1.3027e-27
5.14275e-28
5.21847e-28
4.29584e-29
1.19563e-23
8.94857e-24
5.25529e-25
3.0899e-26
4.92621e-28
4.48873e-28
7.05407e-27
7.47505e-27
6.95487e-27
3.30932e-28
7.18744e-30
5.8091e-28
3.77378e-27
9.25507e-30
1.13061e-27
3.80988e-27
1.01672e-29
3.21106e-30
5.13697e-28
4.59635e-29
4.50649e-24
3.07312e-24
2.66163e-25
1.83821e-27
5.95467e-28
5.81116e-29
1.0214e-27
1.32843e-27
3.2311e-27
1.43296e-30
2.21455e-29
1.91965e-27
5.06789e-31
4.72346e-30
2.22114e-30
3.98855e-28
1.35705e-27
3.2353e-28
1.07025e-30
4.12729e-29
1.75607e-25
1.19183e-25
1.35766e-27
3.44151e-27
1.04669e-27
2.28267e-29
2.35424e-27
8.08526e-30
2.46268e-30
3.88102e-29
9.3967e-29
2.25486e-27
6.48858e-27
5.21391e-29
1.38756e-27
2.17334e-28
6.74002e-28
6.2891e-30
8.71067e-29
1.45117e-29
3.13602e-24
5.19241e-24
3.24849e-25
1.44064e-27
6.99449e-27
2.23283e-27
8.73439e-27
3.59563e-27
9.30436e-27
6.608e-27
3.89216e-27
4.59629e-30
2.833e-29
8.62188e-28
4.62012e-27
1.23725e-26
8.19344e-27
5.77965e-27
2.40002e-28
8.87435e-28
1.05909e-25
2.06419e-25
1.66262e-26
2.97276e-27
6.85921e-27
5.95248e-27
6.52919e-27
3.47613e-27
1.30845e-26
6.33968e-27
3.23754e-27
1.27238e-28
1.66256e-28
3.91855e-27
3.90623e-27
3.71101e-27
3.37669e-27
1.08788e-27
2.09256e-27
2.62251e-29
1.24906e-23
1.86608e-23
7.76614e-25
5.08994e-26
4.10974e-28
2.18919e-27
1.01833e-28
2.51871e-29
3.57e-28
3.57034e-28
1.76728e-30
1.11823e-29
6.90627e-28
4.79391e-28
3.79364e-29
4.85251e-29
3.36867e-29
2.04477e-29
6.13987e-28
2.88756e-28
)
;

boundaryField
{
    movingWall
    {
        type            calculated;
        value           nonuniform List<scalar> 
20
(
9.5109e-24
2.01041e-23
3.21759e-25
1.5591e-25
2.21928e-26
5.21069e-26
4.44105e-26
2.31011e-26
3.53964e-26
2.45669e-26
1.61129e-26
9.51591e-27
1.48344e-27
4.29451e-27
7.75215e-27
7.61074e-27
3.24896e-27
1.29052e-27
2.42557e-27
8.54306e-28
)
;
    }
    fixedWalls
    {
        type            calculated;
        value           nonuniform List<scalar> 
60
(
4.27111e-22
9.94548e-23
7.07984e-22
3.22345e-22
1.93737e-23
7.13369e-23
1.52759e-22
1.07981e-23
3.95144e-23
4.80595e-23
2.96913e-23
1.2642e-23
3.07371e-24
9.43605e-23
1.66196e-22
6.23558e-23
1.95594e-24
9.98189e-23
4.76515e-24
3.30495e-22
6.98917e-29
1.69438e-27
5.3852e-28
2.30324e-34
4.05567e-30
2.5623e-28
2.31803e-29
1.51084e-28
2.83713e-28
4.20233e-28
1.78837e-29
1.5429e-28
1.18545e-30
1.94866e-28
1.47708e-28
1.89507e-28
1.9785e-29
6.40245e-28
2.67692e-28
2.28018e-30
3.74584e-23
3.38894e-23
6.75068e-25
1.64397e-25
2.61811e-27
2.53346e-26
3.25066e-26
2.43011e-26
1.00484e-26
9.48857e-27
2.21143e-26
3.06275e-27
4.21562e-27
4.32551e-27
8.7456e-30
1.38264e-26
3.05279e-27
3.4125e-27
4.28148e-27
5.40792e-29
)
;
    }
    frontAndBack
    {
        type            empty;
    }
}


// ************************************************************************* //
