/*--------------------------------*- C++ -*----------------------------------*\
| =========                 |                                                 |
| \\      /  F ield         | OpenFOAM: The Open Source CFD Toolbox           |
|  \\    /   O peration     | Version:  2506                                  |
|   \\  /    A nd           | Website:  www.openfoam.com                      |
|    \\/     M anipulation  |                                                 |
\*---------------------------------------------------------------------------*/
FoamFile
{
    version     2.0;
    format      ascii;
    arch        "LSB;label=32;scalar=64";
    class       volScalarField;
    location    "5.625";
    object      epsilonzeroGrad;
}
// * * * * * * * * * * * * * * * * * * * * * * * * * * * * * * * * * * * * * //

dimensions      [0 2 -3 0 0 0 0];

internalField   nonuniform List<scalar> 
400
(
5.36789e-06
5.36788e-06
5.36787e-06
5.36786e-06
5.36785e-06
5.36784e-06
5.36784e-06
5.36783e-06
5.36783e-06
5.36782e-06
5.36782e-06
5.36782e-06
5.36781e-06
5.36781e-06
5.36781e-06
5.36781e-06
5.36781e-06
5.36781e-06
5.36781e-06
5.36781e-06
5.88086e-06
5.76509e-06
5.77458e-06
5.77852e-06
5.7864e-06
5.79051e-06
5.79839e-06
5.80266e-06
5.81056e-06
5.81498e-06
5.8229e-06
5.82747e-06
5.83543e-06
5.84013e-06
5.84813e-06
5.85296e-06
5.86102e-06
5.86598e-06
5.87004e-06
5.8766e-06
6.6157e-06
6.47823e-06
6.48965e-06
6.49439e-06
6.50384e-06
6.50874e-06
6.51817e-06
6.52324e-06
6.53267e-06
6.53789e-06
6.54733e-06
6.55268e-06
6.56214e-06
6.56763e-06
6.57712e-06
6.58272e-06
6.59225e-06
6.59797e-06
6.60277e-06
6.61044e-06
7.29038e-06
7.13354e-06
7.14653e-06
7.15192e-06
7.16268e-06
7.16826e-06
7.179e-06
7.18478e-06
7.19551e-06
7.20147e-06
7.21221e-06
7.21832e-06
7.2291e-06
7.23536e-06
7.24617e-06
7.25257e-06
7.26343e-06
7.26996e-06
7.27543e-06
7.28418e-06
7.78183e-06
7.61029e-06
7.62447e-06
7.63036e-06
7.6421e-06
7.6482e-06
7.65993e-06
7.66624e-06
7.67797e-06
7.68447e-06
7.69621e-06
7.7029e-06
7.71467e-06
7.72152e-06
7.73333e-06
7.74034e-06
7.7522e-06
7.75935e-06
7.76533e-06
7.7749e-06
8.0955e-06
7.91437e-06
7.92932e-06
7.93553e-06
7.94792e-06
7.95436e-06
7.96672e-06
7.97339e-06
7.98576e-06
7.99262e-06
8.00501e-06
8.01207e-06
8.02448e-06
8.03172e-06
8.04418e-06
8.05158e-06
8.06411e-06
8.07166e-06
8.07798e-06
8.08808e-06
8.28348e-06
8.09655e-06
8.11197e-06
8.11838e-06
8.13115e-06
8.13779e-06
8.15055e-06
8.15742e-06
8.17018e-06
8.17727e-06
8.19004e-06
8.19732e-06
8.21014e-06
8.2176e-06
8.23046e-06
8.2381e-06
8.25102e-06
8.25882e-06
8.26533e-06
8.27576e-06
8.39647e-06
8.20605e-06
8.22175e-06
8.22827e-06
8.24128e-06
8.24804e-06
8.26103e-06
8.26803e-06
8.28102e-06
8.28824e-06
8.30125e-06
8.30867e-06
8.32172e-06
8.32932e-06
8.34242e-06
8.35021e-06
8.36336e-06
8.37131e-06
8.37794e-06
8.38857e-06
8.4696e-06
8.27693e-06
8.29281e-06
8.29941e-06
8.31257e-06
8.31941e-06
8.33255e-06
8.33964e-06
8.35278e-06
8.36008e-06
8.37324e-06
8.38075e-06
8.39395e-06
8.40165e-06
8.4149e-06
8.42277e-06
8.43609e-06
8.44413e-06
8.45084e-06
8.46159e-06
8.52378e-06
8.32944e-06
8.34545e-06
8.35211e-06
8.36537e-06
8.37228e-06
8.38553e-06
8.39267e-06
8.40593e-06
8.41329e-06
8.42657e-06
8.43414e-06
8.44745e-06
8.45522e-06
8.46858e-06
8.47652e-06
8.48995e-06
8.49807e-06
8.50483e-06
8.51568e-06
8.57052e-06
8.37474e-06
8.39087e-06
8.39757e-06
8.41094e-06
8.41789e-06
8.43124e-06
8.43844e-06
8.45179e-06
8.45921e-06
8.47258e-06
8.4802e-06
8.49361e-06
8.50143e-06
8.51489e-06
8.5229e-06
8.53642e-06
8.5446e-06
8.55142e-06
8.56234e-06
8.61613e-06
8.41895e-06
8.43519e-06
8.44194e-06
8.4554e-06
8.4624e-06
8.47584e-06
8.48309e-06
8.49653e-06
8.504e-06
8.51747e-06
8.52515e-06
8.53865e-06
8.54653e-06
8.56009e-06
8.56815e-06
8.58177e-06
8.59e-06
8.59687e-06
8.60787e-06
8.66425e-06
8.4656e-06
8.48196e-06
8.48876e-06
8.50231e-06
8.50937e-06
8.52291e-06
8.53021e-06
8.54375e-06
8.55128e-06
8.56484e-06
8.57258e-06
8.58619e-06
8.59412e-06
8.60778e-06
8.6159e-06
8.62962e-06
8.63792e-06
8.64483e-06
8.65592e-06
8.71732e-06
8.51704e-06
8.53353e-06
8.54038e-06
8.55405e-06
8.56116e-06
8.57481e-06
8.58217e-06
8.59582e-06
8.60341e-06
8.61708e-06
8.62488e-06
8.6386e-06
8.6466e-06
8.66036e-06
8.66855e-06
8.68239e-06
8.69075e-06
8.69772e-06
8.7089e-06
8.77707e-06
8.57495e-06
8.59159e-06
8.5985e-06
8.61229e-06
8.61946e-06
8.63324e-06
8.64066e-06
8.65444e-06
8.66209e-06
8.67589e-06
8.68376e-06
8.6976e-06
8.70568e-06
8.71957e-06
8.72783e-06
8.74179e-06
8.75023e-06
8.75727e-06
8.76854e-06
8.84427e-06
8.64008e-06
8.65688e-06
8.66387e-06
8.67779e-06
8.68504e-06
8.69895e-06
8.70645e-06
8.72036e-06
8.7281e-06
8.74204e-06
8.74999e-06
8.76397e-06
8.77212e-06
8.78615e-06
8.7945e-06
8.8086e-06
8.81713e-06
8.82424e-06
8.83563e-06
8.91738e-06
8.71096e-06
8.72794e-06
8.735e-06
8.74908e-06
8.7564e-06
8.77046e-06
8.77804e-06
8.79211e-06
8.79993e-06
8.81401e-06
8.82205e-06
8.83618e-06
8.84443e-06
8.85861e-06
8.86706e-06
8.88131e-06
8.88994e-06
8.89712e-06
8.90864e-06
8.99048e-06
8.78188e-06
8.79903e-06
8.80615e-06
8.82037e-06
8.82777e-06
8.84198e-06
8.84964e-06
8.86384e-06
8.87175e-06
8.88598e-06
8.89411e-06
8.90838e-06
8.91673e-06
8.93105e-06
8.9396e-06
8.954e-06
8.96272e-06
8.96998e-06
8.98162e-06
9.05185e-06
8.84566e-06
8.86229e-06
8.86922e-06
8.88307e-06
8.89034e-06
8.90419e-06
8.91179e-06
8.92568e-06
8.93357e-06
8.94753e-06
8.9557e-06
8.96974e-06
8.97818e-06
8.99232e-06
9.00102e-06
9.01528e-06
9.02422e-06
9.03144e-06
9.04316e-06
9.07917e-06
9.07913e-06
9.07912e-06
9.0791e-06
9.07909e-06
9.07907e-06
9.07906e-06
9.07905e-06
9.07904e-06
9.07904e-06
9.07903e-06
9.07903e-06
9.07902e-06
9.07902e-06
9.07902e-06
9.07902e-06
9.07902e-06
9.07902e-06
9.07902e-06
9.07902e-06
)
;

boundaryField
{
    movingWall
    {
        type            zeroGradient;
    }
    fixedWalls
    {
        type            zeroGradient;
    }
    frontAndBack
    {
        type            empty;
    }
}


// ************************************************************************* //
