/*--------------------------------*- C++ -*----------------------------------*\
| =========                 |                                                 |
| \\      /  F ield         | OpenFOAM: The Open Source CFD Toolbox           |
|  \\    /   O peration     | Version:  2506                                  |
|   \\  /    A nd           | Website:  www.openfoam.com                      |
|    \\/     M anipulation  |                                                 |
\*---------------------------------------------------------------------------*/
FoamFile
{
    version     2.0;
    format      ascii;
    arch        "LSB;label=32;scalar=64";
    class       volScalarField;
    location    "5.625";
    object      flowTypeField;
}
// * * * * * * * * * * * * * * * * * * * * * * * * * * * * * * * * * * * * * //

dimensions      [0 0 0 0 0 0 0];

internalField   nonuniform List<scalar> 
400
(
0.508556
0.0762658
0.0497977
-0.0285897
-0.291433
0.909184
0.545145
0.90097
0.666979
0.174494
0.0446819
-0.0241087
0.787272
0.0943601
0.924135
0.181474
0.584002
0.5318
0.232858
0.0596709
0.862687
0.362939
0.259667
0.979529
-0.0741009
0.120761
-0.108158
-0.0641114
0.285568
0.0994701
-0.112713
0.0761864
0.318084
-0.10165
0.227356
0.00831799
0.682862
0.218875
-0.201417
-0.111812
0.302187
0.0851593
-0.0903301
0.297149
-0.519748
0.15954
0.433924
0.197863
0.0120892
0.100449
0.389888
0.070172
0.0270552
0.0627693
0.657345
-0.0512132
0.501451
0.435377
0.462303
0.513794
0.433556
0.0622522
0.0521566
-0.347679
0.645303
0.201472
0.195905
-0.0165735
0.110933
-0.0287087
-0.0430616
0.244025
0.192941
0.243505
-0.184696
-0.0647307
-0.0808218
-0.0270913
0.110971
0.855525
0.626463
0.303917
0.390448
0.24917
0.662811
-0.197258
0.351617
-0.188735
-0.0173407
0.0982611
0.591381
0.621817
0.246164
0.00463973
0.575031
0.170406
-0.293518
-0.242674
0.0784384
0.608741
0.593999
0.162374
0.0570647
0.252086
0.197172
-0.263036
0.730555
0.506909
0.117428
0.390821
0.258957
0.870294
0.100136
0.175521
0.0797666
0.342415
-0.0539109
-0.115282
0.190808
0.231907
-0.119133
-0.00770344
-0.277117
0.32322
0.0774742
0.672705
-0.0151374
-0.291118
-0.15598
0.01985
-0.0208373
0.354518
-0.167498
-0.00581136
0.954815
0.218194
0.0162398
0.953373
0.294101
0.28595
0.712151
0.250467
0.3576
0.683329
-0.0391368
-0.315075
0.861609
-0.236426
0.512396
0.462246
0.236348
0.134816
0.799091
0.645677
0.885136
0.340158
-0.0215599
0.0271445
0.386184
0.00109307
0.391969
0.0801336
-0.198202
0.0897158
-0.297691
0.620854
0.718292
0.964874
0.235407
0.210763
0.794029
0.185659
0.124203
0.319998
0.575777
0.319352
-0.752119
-0.0682425
0.41762
0.504832
-0.544093
-0.0506234
-0.350412
0.000297081
0.0537811
0.593078
0.240048
0.0230443
-0.269141
-0.222233
0.0784393
0.421031
0.170266
-0.0822839
0.971544
0.42315
0.400399
0.398816
0.215427
0.0323535
0.00339347
0.0748622
-0.106209
0.74369
0.447813
0.0793801
-0.211167
-0.00537892
0.255584
-0.00664739
-0.0533241
0.208807
0.2256
-0.143554
0.283403
0.205126
-0.605399
0.543376
-0.236895
0.517134
0.364188
0.179248
-0.00343407
0.295133
-0.042665
-0.00430575
-0.163227
-0.311466
0.516134
0.897063
0.321235
0.799065
0.0922855
0.940809
0.294838
0.162142
0.597119
0.594616
0.473367
0.00739067
0.85797
0.663602
0.51915
0.754701
-0.501308
0.181295
0.064665
0.223684
0.596653
0.0948267
-0.0870996
0.0526283
0.0773472
-0.107393
-0.137315
-0.0900752
-0.0433825
0.675095
0.668559
0.219716
0.304159
0.117261
0.0292642
0.675212
-0.219334
0.0249248
-0.0884706
-0.0766785
0.110121
0.182979
0.176909
0.0325285
0.124484
0.0387385
0.0791198
0.416479
0.0729278
0.438008
-0.164827
0.071026
-0.280127
-0.00548599
-0.231952
0.114874
0.0779918
0.461841
-0.0596231
-0.120254
-0.078192
0.303778
0.238719
-0.229401
-0.0602106
0.468787
-0.568155
-0.0713378
0.0673416
0.284411
0.174442
0.610604
0.377546
0.0446163
-0.317166
0.495685
0.231782
0.785138
0.23868
0.295879
0.174634
0.651751
0.105464
-0.139803
0.958445
0.921509
0.954139
0.482588
0.290573
0.53143
0.945463
0.0384489
0.873462
0.584612
0.79642
-0.280335
0.0295816
0.756743
-0.105175
0.787634
0.862
0.660617
0.499842
-0.0831224
-0.292351
0.349191
-0.113637
0.348095
0.0998731
0.840392
0.702093
0.0905625
0.158482
0.0834364
-0.190334
0.638651
-0.292788
0.184264
0.0246507
0.0121574
-0.00630731
-0.0260939
-0.0519993
0.912233
0.834721
0.334823
-0.164899
-0.156864
-0.128961
0.117518
0.00554326
-0.502686
0.937685
0.647441
0.555833
0.520108
-0.0506327
-0.00631009
0.0566021
0.141057
0.00680463
-0.0335417
0.0284397
0.481011
0.639653
0.100781
-0.0230344
-0.0519064
0.0279808
0.498114
-0.0177635
0.669396
0.398806
0.0335177
0.0346962
-0.0439511
0.526605
-0.214036
0.580566
0.492392
0.112422
0.310204
0.895664
0.774244
-0.353778
-0.0963686
0.00582655
0.213916
0.673761
0.736846
0.349265
0.176579
)
;

boundaryField
{
    movingWall
    {
        type            calculated;
        value           nonuniform List<scalar> 
20
(
0.789452
0.200155
0.501029
-0.222809
0.223628
-0.035917
0.044709
0.040391
0.00836603
0.0187066
0.017443
0.00165392
-0.152707
-0.0261883
0.0650684
0.0820089
0.184962
0.280095
0.220537
0.175018
)
;
    }
    fixedWalls
    {
        type            calculated;
        value           nonuniform List<scalar> 
60
(
0.0767503
0.361045
0.0563805
0.0557977
0.364391
0.145592
-0.0638321
0.339011
0.0317933
-0.127645
0.0347247
0.134497
0.679342
0.119609
-0.0280204
0.0159413
0.650228
0.038078
0.653835
0.043245
0.0477696
-0.0717794
0.629686
0.98305
0.918535
0.0512835
0.371719
0.00123138
0.484815
-0.0674565
0.189804
0.00544483
0.723187
0.0182569
0.12029
0.00927036
0.0707936
-0.290275
0.480097
0.934569
0.657932
0.112686
0.395266
-0.192302
0.469638
0.0168953
0.0521331
0.0240292
-0.0112407
-0.0125726
0.054731
0.22417
0.123606
0.0544642
0.927071
0.0770032
0.15406
0.105405
0.13658
0.294901
)
;
    }
    frontAndBack
    {
        type            empty;
    }
}


// ************************************************************************* //
