/*--------------------------------*- C++ -*----------------------------------*\
| =========                 |                                                 |
| \\      /  F ield         | OpenFOAM: The Open Source CFD Toolbox           |
|  \\    /   O peration     | Version:  2506                                  |
|   \\  /    A nd           | Website:  www.openfoam.com                      |
|    \\/     M anipulation  |                                                 |
\*---------------------------------------------------------------------------*/
FoamFile
{
    version     2.0;
    format      ascii;
    arch        "LSB;label=32;scalar=64";
    class       surfaceScalarField;
    location    "5.625";
    object      fluxField;
}
// * * * * * * * * * * * * * * * * * * * * * * * * * * * * * * * * * * * * * //

dimensions      [0 3 -1 0 0 0 0];

oriented        oriented;

internalField   nonuniform List<scalar> 
760
(
-5e-05
2.79964e-18
-5e-05
-5.88156e-19
-5e-05
1.42301e-19
-5e-05
-2.56873e-20
-5e-05
6.01872e-21
-5e-05
-2.8093e-21
-5e-05
1.29731e-21
-5e-05
3.55051e-21
-5e-05
4.08433e-21
-5e-05
-1.92336e-21
-5e-05
9.46833e-22
-5e-05
3.6616e-21
-5e-05
5.36047e-21
-5e-05
5.67431e-21
-5e-05
7.82832e-21
-5e-05
2.55279e-21
-5e-05
-2.71354e-21
-5e-05
-3.71369e-21
-5e-05
-3.1625e-21
-9.89121e-22
-5e-05
-1.53474e-18
-5e-05
3.2733e-19
-5e-05
-7.60183e-20
-5e-05
1.84836e-20
-5e-05
-4.60849e-21
-5e-05
-6.46913e-21
-5e-05
-5.13066e-21
-5e-05
3.86292e-23
-5e-05
1.28399e-21
-5e-05
-3.23981e-21
-5e-05
-2.36373e-21
-5e-05
-2.45492e-21
-5e-05
-2.13867e-22
-5e-05
6.03459e-21
-5e-05
8.02408e-21
-5e-05
1.53904e-21
-5e-05
-5.32047e-21
-5e-05
-5.31014e-21
-5e-05
-5.02985e-21
-1.58717e-21
-5e-05
-9.22462e-19
-5e-05
2.17008e-19
-5e-05
-5.05723e-20
-5e-05
1.07928e-20
-5e-05
-9.44693e-21
-5e-05
-8.71375e-21
-5e-05
-5.14001e-21
-5e-05
-1.38344e-21
-5e-05
-1.50444e-21
-5e-05
-1.22963e-21
-5e-05
-3.95232e-21
-5e-05
-4.48302e-21
-5e-05
-1.60438e-21
-5e-05
4.21428e-21
-5e-05
2.75119e-21
-5e-05
-2.46389e-21
-5e-05
-5.88353e-21
-5e-05
-6.85876e-21
-5e-05
-7.70912e-21
-3.0324e-21
-5e-05
1.31307e-18
-5e-05
-2.83654e-19
-5e-05
6.66803e-20
-5e-05
-1.91037e-20
-5e-05
-4.57864e-21
-5e-05
-3.94147e-21
-5e-05
1.02238e-21
-5e-05
-8.0179e-25
-5e-05
-3.28456e-21
-5e-05
-1.74537e-22
-5e-05
-6.97365e-22
-5e-05
-3.2839e-22
-5e-05
2.12777e-21
-5e-05
2.26409e-21
-5e-05
-8.68518e-22
-5e-05
-5.99216e-21
-5e-05
-5.01689e-21
-5e-05
-3.10179e-21
-5e-05
-2.14293e-21
-1.79344e-22
-5e-05
-1.02716e-18
-5e-05
1.97276e-19
-5e-05
-5.12134e-20
-5e-05
1.22953e-21
-5e-05
-7.82933e-21
-5e-05
1.27552e-21
-5e-05
1.6544e-21
-5e-05
-1.15774e-21
-5e-05
-2.42536e-21
-5e-05
1.54038e-21
-5e-05
2.96035e-21
-5e-05
2.60347e-21
-5e-05
4.35197e-21
-5e-05
2.0011e-21
-5e-05
-1.03423e-21
-5e-05
-6.50146e-21
-5e-05
-5.22093e-21
-5e-05
-9.28137e-23
-5e-05
2.50492e-21
2.93091e-21
-5e-05
2.34094e-19
-5e-05
-2.86604e-20
-5e-05
4.30542e-21
-5e-05
-3.45137e-21
-5e-05
-2.4812e-21
-5e-05
-2.91432e-21
-5e-05
-5.60449e-21
-5e-05
-3.16153e-21
-5e-05
2.41675e-21
-5e-05
4.68795e-21
-5e-05
4.8003e-21
-5e-05
4.96104e-21
-5e-05
7.16426e-21
-5e-05
8.27701e-21
-5e-05
5.25196e-21
-5e-05
-2.81646e-21
-5e-05
-4.69661e-21
-5e-05
-1.33546e-21
-5e-05
-1.15624e-21
9.89294e-22
-5e-05
7.63028e-19
-5e-05
-1.34709e-19
-5e-05
3.82573e-20
-5e-05
-1.09671e-21
-5e-05
1.50276e-21
-5e-05
-8.27249e-21
-5e-05
-1.08653e-20
-5e-05
-4.42458e-21
-5e-05
5.71374e-22
-5e-05
2.1053e-21
-5e-05
3.99026e-21
-5e-05
7.49534e-21
-5e-05
8.90424e-21
-5e-05
1.15564e-20
-5e-05
1.09282e-20
-5e-05
3.96344e-21
-5e-05
-9.34838e-22
-5e-05
-4.51547e-21
-5e-05
-5.35541e-21
-1.51199e-21
-5e-05
-7.83382e-19
-5e-05
1.53319e-19
-5e-05
-3.33156e-20
-5e-05
8.56628e-21
-5e-05
-4.84308e-21
-5e-05
-6.75343e-21
-5e-05
-6.197e-21
-5e-05
-4.05645e-21
-5e-05
-3.11986e-21
-5e-05
-5.38355e-22
-5e-05
2.78409e-21
-5e-05
6.46442e-21
-5e-05
4.62215e-21
-5e-05
7.30641e-21
-5e-05
1.14808e-20
-5e-05
1.0297e-20
-5e-05
8.76494e-22
-5e-05
-8.81864e-21
-5e-05
-5.81302e-21
-1.29171e-21
-5e-05
6.31627e-21
-5e-05
6.57541e-21
-5e-05
-2.55363e-21
-5e-05
5.1128e-22
-5e-05
-2.34167e-22
-5e-05
1.03455e-22
-5e-05
-2.7334e-21
-5e-05
-6.99021e-21
-5e-05
-4.89795e-21
-5e-05
-1.41778e-21
-5e-05
2.58054e-21
-5e-05
3.95281e-21
-5e-05
2.90164e-21
-5e-05
6.55771e-21
-5e-05
1.08252e-20
-5e-05
1.04075e-20
-5e-05
2.80731e-21
-5e-05
-3.90364e-21
-5e-05
-1.94011e-21
-3.2313e-22
-5e-05
1.02327e-19
-5e-05
-4.11292e-21
-5e-05
5.45042e-21
-5e-05
1.00608e-21
-5e-05
6.23908e-21
-5e-05
7.54603e-21
-5e-05
-3.85635e-22
-5e-05
-7.44645e-21
-5e-05
-4.64784e-21
-5e-05
-2.51166e-21
-5e-05
-1.68017e-21
-5e-05
-2.99089e-22
-5e-05
4.88641e-21
-5e-05
6.46551e-21
-5e-05
3.00215e-21
-5e-05
1.57752e-21
-5e-05
3.19034e-21
-5e-05
3.08357e-21
-5e-05
2.69917e-22
-4.91645e-22
-5e-05
-1.85991e-19
-5e-05
5.09553e-20
-5e-05
-1.43917e-20
-5e-05
-5.01149e-22
-5e-05
1.09784e-21
-5e-05
2.96321e-21
-5e-05
1.01117e-21
-5e-05
2.26109e-21
-5e-05
5.66121e-21
-5e-05
3.13209e-21
-5e-05
-2.2113e-21
-5e-05
-3.8663e-21
-5e-05
1.81505e-21
-5e-05
3.52897e-21
-5e-05
-2.47138e-21
-5e-05
-1.73772e-21
-5e-05
2.69986e-21
-5e-05
5.08082e-21
-5e-05
2.58055e-21
7.24115e-22
-5e-05
4.77702e-19
-5e-05
-1.17535e-19
-5e-05
1.88529e-20
-5e-05
-9.34514e-21
-5e-05
-6.03572e-23
-5e-05
-3.52898e-21
-5e-05
-1.40957e-22
-5e-05
5.62738e-21
-5e-05
6.19467e-21
-5e-05
2.76532e-21
-5e-05
-8.68028e-23
-5e-05
-1.80283e-21
-5e-05
-2.06472e-21
-5e-05
5.24689e-23
-5e-05
1.68978e-22
-5e-05
3.8556e-21
-5e-05
5.28683e-21
-5e-05
7.12568e-21
-5e-05
5.19297e-21
1.19414e-21
-5e-05
-6.10462e-19
-5e-05
1.04991e-19
-5e-05
-2.34765e-20
-5e-05
7.88712e-21
-5e-05
-1.02136e-21
-5e-05
-1.18326e-21
-5e-05
-1.8556e-21
-5e-05
-2.43175e-21
-5e-05
-4.62608e-21
-5e-05
-3.68676e-21
-5e-05
-1.82663e-21
-5e-05
-4.60639e-23
-5e-05
-2.30957e-21
-5e-05
-2.43165e-21
-5e-05
-2.06819e-22
-5e-05
2.51596e-21
-5e-05
3.41345e-21
-5e-05
4.04468e-21
-5e-05
1.45805e-21
-1.13761e-21
-5e-05
2.08034e-19
-5e-05
-2.62065e-20
-5e-05
8.39626e-21
-5e-05
1.73491e-21
-5e-05
-4.33456e-21
-5e-05
-3.18933e-21
-5e-05
-3.47204e-21
-5e-05
-4.47067e-21
-5e-05
-2.19087e-21
-5e-05
-8.48439e-22
-5e-05
3.08693e-22
-5e-05
2.41103e-21
-5e-05
2.58175e-21
-5e-05
2.47584e-21
-5e-05
1.21809e-21
-5e-05
-2.01539e-21
-5e-05
8.47242e-22
-5e-05
-9.6307e-23
-5e-05
2.39299e-22
-1.5962e-22
-5e-05
4.02549e-19
-5e-05
-8.64301e-20
-5e-05
1.2148e-20
-5e-05
-1.25291e-20
-5e-05
-7.73656e-21
-5e-05
-6.53321e-21
-5e-05
-2.94113e-21
-5e-05
-1.69064e-21
-5e-05
1.18779e-21
-5e-05
9.21044e-22
-5e-05
1.26644e-21
-5e-05
3.53269e-21
-5e-05
4.94953e-21
-5e-05
4.67137e-21
-5e-05
3.10555e-21
-5e-05
-9.67366e-22
-5e-05
1.32687e-21
-5e-05
6.88252e-22
-5e-05
2.37733e-21
2.291e-21
-5e-05
-7.52123e-19
-5e-05
1.31252e-19
-5e-05
-3.73814e-20
-5e-05
-3.19106e-21
-5e-05
-1.48204e-21
-5e-05
-3.80197e-22
-5e-05
-2.48803e-21
-5e-05
-1.72905e-21
-5e-05
-2.82702e-21
-5e-05
-9.42374e-22
-5e-05
2.1699e-21
-5e-05
4.14864e-21
-5e-05
8.71824e-22
-5e-05
-4.25359e-21
-5e-05
-2.44949e-21
-5e-05
1.6131e-21
-5e-05
2.47801e-21
-5e-05
4.54391e-21
-5e-05
2.00828e-21
1.60992e-21
-5e-05
7.98431e-19
-5e-05
-1.64634e-19
-5e-05
3.35354e-20
-5e-05
-1.00327e-20
-5e-05
6.97571e-21
-5e-05
3.86931e-21
-5e-05
-1.73377e-21
-5e-05
-5.71677e-22
-5e-05
-1.86754e-21
-5e-05
2.05276e-22
-5e-05
4.34132e-21
-5e-05
5.3609e-21
-5e-05
3.47273e-22
-5e-05
-7.68408e-21
-5e-05
-5.37677e-21
-5e-05
2.41229e-21
-5e-05
5.28044e-21
-5e-05
9.71258e-21
-5e-05
4.16729e-21
9.35585e-22
-5e-05
7.00302e-19
-5e-05
-1.48602e-19
-5e-05
2.81912e-20
-5e-05
-6.23339e-21
-5e-05
2.27133e-21
-5e-05
8.30214e-22
-5e-05
-1.52347e-21
-5e-05
-1.47199e-21
-5e-05
-1.16819e-21
-5e-05
-1.03443e-21
-5e-05
-5.78651e-22
-5e-05
9.0578e-22
-5e-05
2.65144e-21
-5e-05
-1.77113e-21
-5e-05
-2.32275e-21
-5e-05
1.63407e-22
-5e-05
1.91329e-21
-5e-05
4.84521e-21
-5e-05
3.57802e-21
1.98858e-21
-5e-05
-1.82691e-18
-5e-05
3.53897e-19
-5e-05
-8.47801e-20
-5e-05
1.7066e-20
-5e-05
-3.96337e-21
-5e-05
9.46026e-22
-5e-05
-1.14599e-21
-5e-05
-3.72571e-21
-5e-05
-3.43662e-21
-5e-05
-3.60634e-21
-5e-05
-4.57799e-21
-5e-05
-2.92452e-21
-5e-05
5.92361e-22
-5e-05
1.80805e-21
-5e-05
-2.4592e-22
-5e-05
-2.1378e-21
-5e-05
-3.91777e-21
-5e-05
-4.40578e-21
-5e-05
-4.27792e-22
3.00674e-21
-5e-05
-5e-05
-5e-05
-5e-05
-5e-05
-5e-05
-5e-05
-5e-05
-5e-05
-5e-05
-5e-05
-5e-05
-5e-05
-5e-05
-5e-05
-5e-05
-5e-05
-5e-05
-5e-05
)
;

boundaryField
{
    movingWall
    {
        type            calculated;
        value           uniform -0;
    }
    fixedWalls
    {
        type            calculated;
        value           nonuniform List<scalar> 
60
(
5e-05
5e-05
5e-05
5e-05
5e-05
5e-05
5e-05
5e-05
5e-05
5e-05
5e-05
5e-05
5e-05
5e-05
5e-05
5e-05
5e-05
5e-05
5e-05
5e-05
-5e-05
-5e-05
-5e-05
-5e-05
-5e-05
-5e-05
-5e-05
-5e-05
-5e-05
-5e-05
-5e-05
-5e-05
-5e-05
-5e-05
-5e-05
-5e-05
-5e-05
-5e-05
-5e-05
-5e-05
0
0
0
0
0
0
0
0
0
0
0
0
0
0
0
0
0
0
0
0
)
;
    }
    frontAndBack
    {
        type            empty;
    }
}


// ************************************************************************* //
