/*--------------------------------*- C++ -*----------------------------------*\
| =========                 |                                                 |
| \\      /  F ield         | OpenFOAM: The Open Source CFD Toolbox           |
|  \\    /   O peration     | Version:  2506                                  |
|   \\  /    A nd           | Website:  www.openfoam.com                      |
|    \\/     M anipulation  |                                                 |
\*---------------------------------------------------------------------------*/
FoamFile
{
    version     2.0;
    format      ascii;
    arch        "LSB;label=32;scalar=64";
    class       volTensorField;
    location    "5.625";
    object      gradU;
}
// * * * * * * * * * * * * * * * * * * * * * * * * * * * * * * * * * * * * * //

dimensions      [0 0 -1 0 0 0 0];

internalField   nonuniform List<tensor> 
400
(
(-4.06576e-13 5.9021e-12 0 3.52366e-13 1.11986e-11 0 0 0 0)
(7.86047e-13 -7.03375e-12 0 -1.6263e-13 -2.35263e-12 0 0 0 0)
(-2.71051e-13 1.42841e-12 0 -5.42101e-14 5.69206e-13 0 0 0 0)
(-2.71051e-14 -3.51362e-13 0 2.71051e-14 -1.02749e-13 0 0 0 0)
(0 6.0865e-14 0 -2.71051e-14 2.40749e-14 0 0 0 0)
(5.42101e-14 -3.05368e-15 0 0 -1.12372e-14 0 0 0 0)
(-2.71051e-14 1.14766e-14 0 0 5.18924e-15 0 0 0 0)
(-2.71051e-14 1.58564e-15 0 0 1.4202e-14 0 0 0 0)
(-2.71051e-14 -8.53667e-15 0 0 1.63373e-14 0 0 0 0)
(2.71051e-14 -4.53075e-15 0 -5.42101e-14 -7.69345e-15 0 0 0 0)
(0 1.17386e-14 0 0 3.78733e-15 0 0 0 0)
(-2.71051e-14 1.05522e-14 0 -5.42101e-14 1.46464e-14 0 0 0 0)
(0 -3.00393e-15 0 0 2.14419e-14 0 0 0 0)
(-2.71051e-14 -4.19296e-15 0 5.42101e-14 2.26972e-14 0 0 0 0)
(-8.13152e-14 -4.18225e-15 0 0 3.13133e-14 0 0 0 0)
(-2.71051e-14 -1.13447e-14 0 -8.13152e-14 1.02111e-14 0 0 0 0)
(2.71051e-14 -1.06796e-14 0 0 -1.08542e-14 0 0 0 0)
(0 -6.2043e-15 0 0 -1.48547e-14 0 0 0 0)
(5.42101e-14 3.71841e-15 0 -5.42101e-14 -1.265e-14 0 0 0 0)
(0 1.03999e-14 0 0 -3.95648e-15 0 0 0 0)
(6.23416e-13 2.94384e-12 0 1.11131e-12 -1.73375e-11 0 0 0 0)
(-1.16552e-12 -3.59561e-12 0 -4.33681e-13 3.66195e-12 0 0 0 0)
(3.79471e-13 8.21469e-13 0 -8.13152e-14 -8.73279e-13 0 0 0 0)
(0 -1.93769e-13 0 -1.89735e-13 1.76683e-13 0 0 0 0)
(5.42101e-14 3.06469e-14 0 -1.35525e-13 -4.25088e-14 0 0 0 0)
(0 -1.5832e-14 0 -1.35525e-13 -1.46393e-14 0 0 0 0)
(0 1.39627e-14 0 -8.13152e-14 -2.57119e-14 0 0 0 0)
(0 9.56244e-15 0 -1.35525e-13 -1.40475e-14 0 0 0 0)
(5.42101e-14 -1.33588e-14 0 -8.13152e-14 -1.12014e-14 0 0 0 0)
(0 -8.01924e-15 0 -8.13152e-14 -5.2658e-15 0 0 0 0)
(0 1.06013e-14 0 -8.13152e-14 -1.32422e-14 0 0 0 0)
(0 7.10229e-15 0 -2.71051e-14 -2.44661e-14 0 0 0 0)
(8.13152e-14 1.10548e-14 0 -5.42101e-14 -2.22973e-14 0 0 0 0)
(2.71051e-14 1.40644e-14 0 -5.42101e-14 1.44114e-15 0 0 0 0)
(-2.71051e-14 -8.30383e-15 0 -5.42101e-14 7.83023e-16 0 0 0 0)
(0 -3.08228e-14 0 0 -4.055e-15 0 0 0 0)
(5.42101e-14 -1.43863e-14 0 0 -1.04277e-14 0 0 0 0)
(-5.42101e-14 4.40844e-15 0 -5.42101e-14 -6.38582e-15 0 0 0 0)
(0 7.17986e-15 0 -2.71051e-14 -7.46939e-15 0 0 0 0)
(0 6.20658e-15 0 -5.42101e-14 -2.39221e-15 0 0 0 0)
(2.98156e-13 -7.77348e-12 0 -2.1413e-12 2.44911e-12 0 0 0 0)
(-4.33681e-13 9.43049e-12 0 7.86047e-13 -4.41288e-13 0 0 0 0)
(5.42101e-14 -2.05686e-12 0 1.89735e-13 1.01784e-13 0 0 0 0)
(-1.0842e-13 4.79408e-13 0 1.35525e-13 -3.07632e-14 0 0 0 0)
(5.42101e-14 -1.30458e-13 0 1.89735e-13 -1.93538e-14 0 0 0 0)
(5.42101e-14 1.37433e-14 0 1.35525e-13 -8.97845e-15 0 0 0 0)
(0 1.20684e-14 0 2.71051e-14 -3.74188e-17 0 0 0 0)
(0 1.60961e-14 0 8.13152e-14 -5.68828e-15 0 0 0 0)
(0 2.45061e-16 0 8.13152e-14 -1.11537e-14 0 0 0 0)
(-5.42101e-14 -6.5716e-15 0 8.13152e-14 8.04073e-15 0 0 0 0)
(5.42101e-14 -7.46171e-15 0 2.71051e-14 -6.35439e-15 0 0 0 0)
(2.71051e-14 1.49715e-15 0 8.13152e-14 -8.1124e-15 0 0 0 0)
(0 2.29033e-14 0 0 -5.56203e-15 0 0 0 0)
(0 1.88874e-14 0 0 -7.28123e-15 0 0 0 0)
(-2.71051e-14 -9.67839e-15 0 0 -2.10916e-14 0 0 0 0)
(2.71051e-14 -2.25554e-14 0 2.71051e-14 -1.60117e-14 0 0 0 0)
(-2.71051e-14 -1.30104e-14 0 0 -2.25222e-15 0 0 0 0)
(0 -3.24595e-15 0 0 -6.19446e-15 0 0 0 0)
(2.71051e-14 7.71202e-15 0 2.71051e-14 -1.07171e-14 0 0 0 0)
(5.42101e-14 2.02615e-14 0 5.42101e-14 -5.78089e-15 0 0 0 0)
(-7.86047e-13 4.95166e-12 0 -3.79471e-13 8.94214e-12 0 0 0 0)
(1.16552e-12 -5.94293e-12 0 2.71051e-14 -2.00265e-12 0 0 0 0)
(-3.25261e-13 1.23199e-12 0 -5.42101e-14 4.69011e-13 0 0 0 0)
(2.71051e-14 -3.14907e-13 0 1.6263e-13 -1.19586e-13 0 0 0 0)
(0 5.24317e-14 0 8.13152e-14 1.94732e-14 0 0 0 0)
(-5.42101e-14 3.48441e-15 0 8.13152e-14 1.90891e-14 0 0 0 0)
(-2.71051e-14 1.72529e-14 0 1.0842e-13 2.46496e-14 0 0 0 0)
(0 -1.55385e-15 0 8.13152e-14 5.53056e-15 0 0 0 0)
(2.71051e-14 3.70178e-16 0 5.42101e-14 -7.12046e-15 0 0 0 0)
(0 -3.21992e-15 0 1.0842e-13 4.22038e-15 0 0 0 0)
(0 -5.55185e-15 0 1.0842e-13 1.30198e-14 0 0 0 0)
(-2.71051e-14 7.89464e-15 0 5.42101e-14 1.66185e-14 0 0 0 0)
(-2.71051e-14 1.18859e-14 0 8.13152e-14 1.49286e-14 0 0 0 0)
(2.71051e-14 -1.46514e-15 0 2.71051e-14 -7.80078e-15 0 0 0 0)
(0 -1.70343e-14 0 8.13152e-14 -1.44788e-14 0 0 0 0)
(2.71051e-14 -1.19834e-14 0 1.0842e-13 -1.41131e-14 0 0 0 0)
(0 -4.56901e-15 0 5.42101e-14 3.46656e-15 0 0 0 0)
(0 -4.0564e-15 0 1.0842e-13 1.50279e-14 0 0 0 0)
(-2.71051e-14 7.59342e-15 0 1.0842e-13 2.22647e-14 0 0 0 0)
(-2.71051e-14 2.27045e-14 0 2.71051e-14 1.14122e-14 0 0 0 0)
(-8.13152e-14 -8.33992e-13 0 2.22261e-12 -9.36094e-12 0 0 0 0)
(-8.13152e-14 9.57368e-13 0 -5.14996e-13 1.92372e-12 0 0 0 0)
(1.6263e-13 -1.73792e-13 0 1.35525e-13 -4.71575e-13 0 0 0 0)
(5.42101e-14 2.98708e-14 0 -5.42101e-14 8.13327e-14 0 0 0 0)
(-2.71051e-14 8.21709e-15 0 0 -1.30028e-14 0 0 0 0)
(0 1.89197e-14 0 -2.71051e-14 2.08679e-14 0 0 0 0)
(0 -1.49019e-15 0 0 2.52808e-15 0 0 0 0)
(0 -1.56739e-14 0 8.13152e-14 -4.62777e-15 0 0 0 0)
(0 -1.06512e-15 0 5.42101e-14 3.43679e-15 0 0 0 0)
(0 1.35687e-14 0 0 6.85966e-15 0 0 0 0)
(0 4.93643e-15 0 0 1.46308e-14 0 0 0 0)
(0 3.40589e-15 0 0 1.17275e-14 0 0 0 0)
(-2.71051e-14 -1.51601e-15 0 2.71051e-14 8.8968e-15 0 0 0 0)
(0 -1.052e-14 0 0 -1.05194e-15 0 0 0 0)
(0 -1.59907e-14 0 -2.71051e-14 -6.62865e-16 0 0 0 0)
(2.71051e-14 -4.61005e-15 0 -5.42101e-14 -2.03718e-15 0 0 0 0)
(0 1.61305e-14 0 -5.42101e-14 -8.16146e-16 0 0 0 0)
(0 1.55522e-14 0 -5.42101e-14 1.20359e-14 0 0 0 0)
(-2.71051e-14 4.09635e-15 0 -5.42101e-14 1.85914e-14 0 0 0 0)
(-2.71051e-14 -1.34154e-14 0 -2.71051e-14 1.2441e-14 0 0 0 0)
(9.48677e-13 -2.48556e-12 0 -4.87891e-13 5.04503e-12 0 0 0 0)
(-9.48677e-13 2.94644e-12 0 2.71051e-13 -9.03744e-13 0 0 0 0)
(1.89735e-13 -6.10392e-13 0 2.71051e-14 2.22075e-13 0 0 0 0)
(-1.35525e-13 1.43665e-13 0 0 -1.87236e-14 0 0 0 0)
(0 -8.03313e-15 0 -5.42101e-14 2.13925e-14 0 0 0 0)
(0 1.90153e-14 0 -5.42101e-14 -1.67593e-14 0 0 0 0)
(2.71051e-14 -8.24285e-15 0 0 -2.90356e-14 0 0 0 0)
(5.42101e-14 -6.45135e-16 0 -2.71051e-14 -8.01514e-15 0 0 0 0)
(-2.71051e-14 1.18576e-14 0 -2.71051e-14 1.93684e-14 0 0 0 0)
(-5.42101e-14 7.97413e-15 0 -2.71051e-14 1.25903e-14 0 0 0 0)
(2.71051e-14 -6.84058e-16 0 2.71051e-14 7.35981e-15 0 0 0 0)
(-2.71051e-14 2.16059e-15 0 0 9.43028e-15 0 0 0 0)
(0 -8.93463e-16 0 -2.71051e-14 1.12492e-14 0 0 0 0)
(-2.71051e-14 -1.10248e-14 0 2.71051e-14 2.51036e-14 0 0 0 0)
(-2.71051e-14 -1.80196e-14 0 2.71051e-14 2.51448e-14 0 0 0 0)
(-5.42101e-14 -1.21367e-14 0 2.71051e-14 1.474e-14 0 0 0 0)
(-2.71051e-14 9.50406e-15 0 -8.13152e-14 2.09727e-15 0 0 0 0)
(2.71051e-14 1.53512e-14 0 -5.42101e-14 -4.97058e-15 0 0 0 0)
(5.42101e-14 7.99855e-15 0 -5.42101e-14 -1.46446e-14 0 0 0 0)
(0 -8.32788e-15 0 0 -7.76647e-15 0 0 0 0)
(-2.98156e-13 3.30729e-12 0 -1.30104e-12 2.11574e-12 0 0 0 0)
(4.60786e-13 -3.86559e-12 0 8.13152e-14 -4.24196e-13 0 0 0 0)
(-1.35525e-13 7.11228e-13 0 -2.43945e-13 1.35808e-13 0 0 0 0)
(-2.71051e-14 -1.70812e-13 0 -5.42101e-14 9.41866e-15 0 0 0 0)
(-5.42101e-14 1.01814e-14 0 -8.13152e-14 1.59358e-14 0 0 0 0)
(5.42101e-14 -3.15084e-14 0 -5.42101e-14 -2.14327e-14 0 0 0 0)
(2.71051e-14 7.25401e-15 0 -1.0842e-13 -2.1043e-14 0 0 0 0)
(2.71051e-14 3.27301e-14 0 -8.13152e-14 -5.05219e-15 0 0 0 0)
(-2.71051e-14 1.95403e-14 0 -8.13152e-14 -7.38151e-15 0 0 0 0)
(2.71051e-14 1.56005e-15 0 -1.0842e-13 -1.03306e-14 0 0 0 0)
(0 1.77644e-15 0 -8.13152e-14 -3.24017e-15 0 0 0 0)
(0 7.29528e-15 0 0 1.01372e-14 0 0 0 0)
(0 1.41573e-14 0 -8.13152e-14 6.95991e-15 0 0 0 0)
(0 3.37559e-15 0 -2.71051e-14 1.31176e-14 0 0 0 0)
(0 -2.63543e-14 0 -2.71051e-14 2.2705e-14 0 0 0 0)
(-5.42101e-14 -2.76576e-14 0 2.71051e-14 2.71196e-14 0 0 0 0)
(0 -3.58004e-15 0 2.71051e-14 1.50471e-14 0 0 0 0)
(-5.42101e-14 -1.18966e-15 0 0 -1.272e-14 0 0 0 0)
(5.42101e-14 1.30046e-15 0 5.42101e-14 -1.67967e-14 0 0 0 0)
(0 8.99565e-15 0 0 -1.00051e-14 0 0 0 0)
(-2.71051e-13 -7.94019e-13 0 6.77626e-13 -6.18564e-12 0 0 0 0)
(1.35525e-13 9.66504e-13 0 -1.35525e-13 1.15211e-12 0 0 0 0)
(0 -1.76777e-13 0 2.71051e-14 -2.86292e-13 0 0 0 0)
(8.13152e-14 2.37936e-14 0 0 3.86519e-14 0 0 0 0)
(5.42101e-14 -3.88845e-14 0 5.42101e-14 -2.53834e-14 0 0 0 0)
(0 -1.79636e-14 0 5.42101e-14 6.07624e-15 0 0 0 0)
(-8.13152e-14 8.13765e-15 0 0 1.8673e-14 0 0 0 0)
(0 1.30164e-14 0 -5.42101e-14 1.47252e-15 0 0 0 0)
(0 6.57921e-15 0 0 -1.4765e-14 0 0 0 0)
(0 1.21155e-14 0 2.71051e-14 -1.05746e-14 0 0 0 0)
(8.13152e-14 1.97837e-14 0 -5.42101e-14 -4.82468e-15 0 0 0 0)
(-5.42101e-14 1.23607e-14 0 -5.42101e-14 -4.12367e-15 0 0 0 0)
(0 2.08694e-15 0 0 -1.71284e-14 0 0 0 0)
(0 4.72026e-15 0 0 -1.7e-14 0 0 0 0)
(5.42101e-14 -4.01754e-15 0 0 2.21024e-15 0 0 0 0)
(0 -1.97946e-14 0 0 2.53341e-14 0 0 0 0)
(-5.42101e-14 -3.03356e-14 0 5.42101e-14 7.24533e-15 0 0 0 0)
(5.42101e-14 -1.64926e-14 0 8.13152e-14 -1.72127e-14 0 0 0 0)
(0 1.07135e-14 0 2.71051e-14 -1.83042e-15 0 0 0 0)
(0 1.84739e-14 0 0 8.81127e-16 0 0 0 0)
(2.71051e-13 -1.72623e-12 0 3.25261e-13 3.15879e-12 0 0 0 0)
(-2.1684e-13 2.03376e-12 0 8.13152e-14 -5.86974e-13 0 0 0 0)
(0 -4.02233e-13 0 1.0842e-13 1.23048e-13 0 0 0 0)
(-2.71051e-14 9.00966e-14 0 0 -3.222e-14 0 0 0 0)
(0 -2.23943e-14 0 5.42101e-14 1.84357e-14 0 0 0 0)
(-2.71051e-14 1.2548e-14 0 0 2.74275e-14 0 0 0 0)
(0 2.65028e-15 0 0 1.38544e-14 0 0 0 0)
(5.42101e-14 -7.07869e-16 0 0 -1.17351e-14 0 0 0 0)
(0 7.49316e-15 0 0 -7.11234e-15 0 0 0 0)
(0 1.15003e-14 0 5.42101e-14 -3.51769e-15 0 0 0 0)
(-5.42101e-14 8.22739e-15 0 0 -8.142e-16 0 0 0 0)
(2.71051e-14 -5.0084e-15 0 -5.42101e-14 -1.00465e-14 0 0 0 0)
(2.71051e-14 1.28101e-15 0 5.42101e-14 -6.88202e-15 0 0 0 0)
(2.71051e-14 2.27142e-14 0 0 -2.9948e-15 0 0 0 0)
(0 1.59798e-14 0 2.71051e-14 -2.62212e-15 0 0 0 0)
(-2.71051e-14 -2.26225e-14 0 0 4.41956e-16 0 0 0 0)
(0 -4.61269e-14 0 5.42101e-14 7.72328e-15 0 0 0 0)
(0 -1.02654e-14 0 2.71051e-14 1.966e-14 0 0 0 0)
(-2.71051e-14 1.93943e-14 0 0 1.54916e-14 0 0 0 0)
(-2.71051e-14 9.94495e-15 0 2.71051e-14 3.87431e-15 0 0 0 0)
(1.35525e-13 1.7778e-12 0 -1.13841e-12 3.84042e-13 0 0 0 0)
(-1.0842e-13 -2.06924e-12 0 1.0842e-13 -4.27533e-14 0 0 0 0)
(0 3.77976e-13 0 -1.35525e-13 3.20162e-14 0 0 0 0)
(0 -8.08187e-14 0 0 1.97918e-15 0 0 0 0)
(-2.71051e-14 2.0763e-14 0 -2.71051e-14 2.5893e-14 0 0 0 0)
(-5.42101e-14 -2.25449e-14 0 0 2.97703e-14 0 0 0 0)
(-2.71051e-14 -3.10249e-14 0 0 9.39108e-15 0 0 0 0)
(0 -7.95031e-15 0 0 -1.82496e-15 0 0 0 0)
(0 1.47966e-14 0 -5.42101e-14 1.00043e-15 0 0 0 0)
(0 1.84136e-14 0 -8.13152e-14 -4.37553e-15 0 0 0 0)
(2.71051e-14 1.32549e-14 0 -2.71051e-14 -1.70428e-14 0 0 0 0)
(5.42101e-14 6.29284e-15 0 -2.71051e-14 -1.70076e-14 0 0 0 0)
(-5.42101e-14 9.13861e-15 0 -5.42101e-14 7.93905e-15 0 0 0 0)
(0 8.98017e-15 0 -1.0842e-13 -3.68829e-16 0 0 0 0)
(5.42101e-14 -5.80785e-16 0 0 -3.12923e-14 0 0 0 0)
(5.42101e-14 -9.4492e-15 0 -5.42101e-14 -3.53198e-14 0 0 0 0)
(0 -1.11176e-14 0 -2.71051e-14 1.5321e-15 0 0 0 0)
(-5.42101e-14 -8.7243e-15 0 -5.42101e-14 2.79489e-14 0 0 0 0)
(0 -5.07222e-15 0 -2.71051e-14 8.84012e-15 0 0 0 0)
(0 -8.91972e-16 0 -2.71051e-14 -6.74058e-16 0 0 0 0)
(-7.58942e-13 -1.38494e-12 0 6.77626e-13 -1.15327e-12 0 0 0 0)
(8.13152e-13 1.68173e-12 0 -5.42101e-14 2.20273e-13 0 0 0 0)
(-1.35525e-13 -3.575e-13 0 8.13152e-14 -7.93686e-14 0 0 0 0)
(1.0842e-13 8.39734e-14 0 5.42101e-14 -6.0289e-15 0 0 0 0)
(-2.71051e-14 5.39676e-15 0 2.71051e-14 -2.0565e-14 0 0 0 0)
(2.71051e-14 -3.95395e-15 0 5.42101e-14 -1.83313e-14 0 0 0 0)
(0 -2.8945e-14 0 1.35525e-13 5.5872e-15 0 0 0 0)
(-2.71051e-14 -9.09852e-15 0 1.35525e-13 3.88302e-14 0 0 0 0)
(-5.42101e-14 4.94258e-15 0 8.13152e-14 4.12362e-14 0 0 0 0)
(-2.71051e-14 -6.54293e-15 0 1.0842e-13 2.2575e-14 0 0 0 0)
(0 -4.40466e-15 0 8.13152e-14 -2.12452e-15 0 0 0 0)
(2.71051e-14 1.99735e-14 0 1.0842e-13 -1.42689e-14 0 0 0 0)
(0 1.79198e-14 0 8.13152e-14 -1.22854e-14 0 0 0 0)
(0 -1.65172e-14 0 1.0842e-13 -1.17462e-14 0 0 0 0)
(5.42101e-14 -1.89712e-14 0 2.71051e-14 -2.18941e-14 0 0 0 0)
(0 1.0202e-14 0 5.42101e-14 -1.3261e-14 0 0 0 0)
(0 1.71418e-14 0 -2.71051e-14 -1.96194e-15 0 0 0 0)
(0 -2.95739e-15 0 0 7.989e-15 0 0 0 0)
(0 -9.22865e-15 0 2.71051e-14 9.24254e-15 0 0 0 0)
(0 1.77888e-15 0 0 4.86304e-15 0 0 0 0)
(7.58942e-13 8.448e-13 0 -9.75782e-13 2.65477e-12 0 0 0 0)
(-7.04731e-13 -9.95337e-13 0 1.35525e-13 -6.73962e-13 0 0 0 0)
(8.13152e-14 1.51674e-13 0 -8.13152e-14 1.32979e-13 0 0 0 0)
(-5.42101e-14 -2.20151e-14 0 -1.0842e-13 -3.5376e-14 0 0 0 0)
(2.71051e-14 8.46066e-15 0 -1.0842e-13 -4.63278e-15 0 0 0 0)
(0 3.60726e-15 0 -1.0842e-13 -2.59688e-14 0 0 0 0)
(2.71051e-14 2.61365e-14 0 -1.35525e-13 -4.60849e-15 0 0 0 0)
(0 2.76987e-14 0 -8.13152e-14 1.34651e-14 0 0 0 0)
(-5.42101e-14 -1.45859e-15 0 -2.71051e-14 2.13381e-15 0 0 0 0)
(0 -2.49471e-14 0 -2.71051e-14 -1.4671e-15 0 0 0 0)
(2.71051e-14 -2.35889e-14 0 0 8.49799e-15 0 0 0 0)
(-2.71051e-14 -3.86807e-15 0 0 8.2539e-15 0 0 0 0)
(2.71051e-14 1.16613e-14 0 -2.71051e-14 -1.55191e-14 0 0 0 0)
(2.71051e-14 -6.28542e-16 0 0 -1.3906e-14 0 0 0 0)
(-5.42101e-14 -2.0956e-15 0 -5.42101e-14 1.05614e-14 0 0 0 0)
(-2.71051e-14 1.0483e-14 0 -2.71051e-14 2.23733e-14 0 0 0 0)
(-2.71051e-14 1.01324e-14 0 0 1.03479e-14 0 0 0 0)
(0 2.48018e-15 0 0 8.17944e-15 0 0 0 0)
(-2.71051e-14 -8.19818e-15 0 -2.71051e-14 1.04497e-14 0 0 0 0)
(0 -1.49976e-14 0 0 1.88009e-15 0 0 0 0)
(-1.54499e-12 5.95869e-13 0 1.11131e-12 -4.35266e-12 0 0 0 0)
(1.5992e-12 -8.40061e-13 0 -2.71051e-13 8.90103e-13 0 0 0 0)
(-3.25261e-13 2.81085e-13 0 8.13152e-14 -1.69318e-13 0 0 0 0)
(8.13152e-14 -5.3638e-14 0 -8.13152e-14 6.8929e-14 0 0 0 0)
(0 1.4804e-14 0 -2.71051e-14 -3.84401e-15 0 0 0 0)
(0 -3.92966e-15 0 -2.71051e-14 9.3829e-15 0 0 0 0)
(-2.71051e-14 1.04889e-14 0 -2.71051e-14 -6.85858e-15 0 0 0 0)
(2.71051e-14 -2.35622e-15 0 -5.42101e-14 -3.22365e-14 0 0 0 0)
(1.0842e-13 -9.98964e-15 0 -5.42101e-14 -4.3283e-14 0 0 0 0)
(0 -1.78746e-16 0 -5.42101e-14 -2.58083e-14 0 0 0 0)
(0 5.31634e-15 0 -5.42101e-14 -6.9593e-15 0 0 0 0)
(0 -4.04359e-15 0 -8.13152e-14 7.02705e-15 0 0 0 0)
(0 -4.24013e-15 0 -5.42101e-14 -9.79429e-16 0 0 0 0)
(0 9.56332e-15 0 -8.13152e-14 -9.9365e-15 0 0 0 0)
(2.71051e-14 1.73081e-14 0 -8.13152e-14 -1.50319e-15 0 0 0 0)
(0 9.98843e-15 0 -1.0842e-13 -5.35856e-15 0 0 0 0)
(0 2.94793e-15 0 -5.42101e-14 -7.49354e-15 0 0 0 0)
(0 -2.85564e-15 0 0 -1.2324e-14 0 0 0 0)
(5.42101e-14 -1.5528e-14 0 0 -1.49397e-14 0 0 0 0)
(0 -1.05509e-14 0 0 -9.32701e-15 0 0 0 0)
(1.5992e-12 -2.61776e-12 0 3.79471e-13 3.27399e-12 0 0 0 0)
(-1.73472e-12 3.188e-12 0 -2.71051e-14 -5.24789e-13 0 0 0 0)
(2.98156e-13 -6.695e-13 0 5.42101e-14 1.27491e-13 0 0 0 0)
(-1.6263e-13 1.43459e-13 0 8.13152e-14 -2.46089e-14 0 0 0 0)
(5.42101e-14 -5.10855e-14 0 8.13152e-14 -1.32528e-14 0 0 0 0)
(-2.71051e-14 5.92697e-16 0 1.35525e-13 -8.02428e-15 0 0 0 0)
(2.71051e-14 -1.54829e-14 0 1.35525e-13 -6.46575e-15 0 0 0 0)
(0 -8.72571e-15 0 1.0842e-13 -8.15571e-15 0 0 0 0)
(-2.71051e-14 4.9696e-15 0 8.13152e-14 9.74086e-15 0 0 0 0)
(-2.71051e-14 1.13766e-14 0 8.13152e-14 1.13533e-14 0 0 0 0)
(0 9.24644e-15 0 5.42101e-14 8.54128e-15 0 0 0 0)
(0 2.1118e-15 0 8.13152e-14 9.82836e-15 0 0 0 0)
(-5.42101e-14 -5.30224e-15 0 8.13152e-14 1.95653e-14 0 0 0 0)
(0 -1.1523e-15 0 5.42101e-14 1.963e-14 0 0 0 0)
(-2.71051e-14 2.48233e-15 0 8.13152e-14 5.69964e-15 0 0 0 0)
(2.71051e-14 4.49265e-15 0 2.71051e-14 -1.81254e-14 0 0 0 0)
(0 3.16696e-15 0 5.42101e-14 -1.02648e-14 0 0 0 0)
(5.42101e-14 -4.96596e-15 0 2.71051e-14 -1.6564e-14 0 0 0 0)
(0 -5.20119e-15 0 2.71051e-14 -4.875e-15 0 0 0 0)
(0 9.26914e-15 0 0 3.91198e-15 0 0 0 0)
(-1.24683e-12 3.34507e-12 0 -1.54499e-12 7.7806e-13 0 0 0 0)
(1.30104e-12 -3.98656e-12 0 2.43945e-13 -2.40894e-13 0 0 0 0)
(-2.43945e-13 7.81265e-13 0 -2.43945e-13 1.50071e-14 0 0 0 0)
(1.89735e-13 -1.94382e-13 0 5.42101e-14 -5.70561e-14 0 0 0 0)
(0 3.13886e-14 0 0 -1.3608e-14 0 0 0 0)
(5.42101e-14 2.85737e-15 0 -2.71051e-14 -1.33755e-14 0 0 0 0)
(-2.71051e-14 1.03575e-14 0 -1.0842e-13 2.12366e-15 0 0 0 0)
(0 1.38504e-14 0 -1.0842e-13 1.11201e-14 0 0 0 0)
(0 9.51934e-15 0 -1.0842e-13 1.35147e-14 0 0 0 0)
(2.71051e-14 -1.37833e-15 0 -2.71051e-14 7.07793e-15 0 0 0 0)
(0 3.79142e-15 0 0 3.83097e-15 0 0 0 0)
(0 6.98044e-15 0 -2.71051e-14 4.48664e-15 0 0 0 0)
(0 5.5615e-15 0 -8.13152e-14 9.47113e-15 0 0 0 0)
(0 -4.30234e-15 0 0 8.78211e-15 0 0 0 0)
(0 -2.04473e-14 0 2.71051e-14 7.54985e-15 0 0 0 0)
(0 -5.97605e-15 0 8.13152e-14 4.1921e-15 0 0 0 0)
(0 4.50938e-15 0 0 1.9185e-15 0 0 0 0)
(0 2.53419e-15 0 0 3.13824e-15 0 0 0 0)
(-2.71051e-14 4.94794e-15 0 -2.71051e-14 8.55214e-15 0 0 0 0)
(-2.71051e-14 -9.58785e-15 0 0 9.80247e-15 0 0 0 0)
(2.71051e-13 -2.08059e-12 0 9.21572e-13 -4.61869e-12 0 0 0 0)
(-3.25261e-13 2.42495e-12 0 -5.42101e-14 8.70726e-13 0 0 0 0)
(5.42101e-14 -4.85662e-13 0 2.43945e-13 -1.98118e-13 0 0 0 0)
(2.71051e-14 1.14844e-13 0 5.42101e-14 3.73523e-14 0 0 0 0)
(-2.71051e-14 -7.40487e-15 0 2.71051e-14 2.50181e-14 0 0 0 0)
(-5.42101e-14 1.63244e-14 0 2.71051e-14 2.4612e-14 0 0 0 0)
(-2.71051e-14 9.01278e-15 0 5.42101e-14 1.81239e-15 0 0 0 0)
(-5.42101e-14 2.66529e-15 0 5.42101e-14 -1.53643e-16 0 0 0 0)
(5.42101e-14 9.27387e-16 0 8.13152e-14 -1.60593e-14 0 0 0 0)
(0 1.6929e-15 0 0 -7.45367e-15 0 0 0 0)
(0 6.65515e-15 0 0 3.61387e-15 0 0 0 0)
(0 7.75195e-15 0 -5.42101e-14 2.46381e-15 0 0 0 0)
(-5.42101e-14 -1.00677e-15 0 0 -1.63108e-14 0 0 0 0)
(5.42101e-14 -3.07359e-15 0 0 -3.56998e-14 0 0 0 0)
(8.13152e-14 -2.10767e-15 0 0 -2.22202e-14 0 0 0 0)
(-5.42101e-14 -1.13869e-15 0 2.71051e-14 1.03219e-14 0 0 0 0)
(5.42101e-14 2.11309e-15 0 5.42101e-14 4.60455e-15 0 0 0 0)
(-5.42101e-14 1.66767e-15 0 2.71051e-14 1.54226e-14 0 0 0 0)
(5.42101e-14 1.46304e-15 0 0 -1.47621e-15 0 0 0 0)
(0 -9.08547e-15 0 0 -2.72431e-15 0 0 0 0)
(-2.98156e-13 -4.02898e-13 0 1.89735e-13 6.20222e-12 0 0 0 0)
(5.14996e-13 4.34017e-13 0 -5.42101e-14 -1.18354e-12 0 0 0 0)
(-1.6263e-13 -5.21087e-14 0 0 2.83667e-13 0 0 0 0)
(0 2.87539e-14 0 -5.42101e-14 -2.73667e-14 0 0 0 0)
(0 1.86483e-14 0 -2.71051e-14 3.3831e-14 0 0 0 0)
(0 -2.03483e-14 0 -2.71051e-14 1.6998e-14 0 0 0 0)
(2.71051e-14 -1.44082e-14 0 5.42101e-14 3.01705e-15 0 0 0 0)
(2.71051e-14 -4.02126e-15 0 0 4.62949e-15 0 0 0 0)
(-2.71051e-14 2.21931e-15 0 0 3.83792e-15 0 0 0 0)
(0 1.82948e-14 0 2.71051e-14 4.5906e-15 0 0 0 0)
(-2.71051e-14 1.37089e-14 0 0 8.68567e-15 0 0 0 0)
(-2.71051e-14 -1.29443e-14 0 5.42101e-14 4.84903e-15 0 0 0 0)
(2.71051e-14 -3.26021e-14 0 8.13152e-14 -2.0982e-15 0 0 0 0)
(0 -1.02117e-14 0 0 -1.3722e-14 0 0 0 0)
(2.71051e-14 2.55744e-14 0 -2.71051e-14 -1.17091e-14 0 0 0 0)
(2.71051e-14 2.08487e-14 0 0 3.19675e-15 0 0 0 0)
(-2.71051e-14 9.61013e-15 0 -2.71051e-14 1.12098e-14 0 0 0 0)
(-2.71051e-14 -3.54658e-15 0 0 2.06747e-14 0 0 0 0)
(-5.42101e-14 -1.3199e-14 0 0 8.63603e-15 0 0 0 0)
(0 -5.38734e-15 0 0 -2.69734e-15 0 0 0 0)
(3.25261e-13 2.93809e-12 0 4.33681e-13 -3.92515e-13 0 0 0 0)
(-4.06576e-13 -3.4936e-12 0 -2.71051e-13 6.41257e-14 0 0 0 0)
(8.13152e-14 6.70513e-13 0 -1.35525e-13 -2.13767e-14 0 0 0 0)
(-8.13152e-14 -1.34993e-13 0 -8.13152e-14 1.51974e-14 0 0 0 0)
(2.71051e-14 3.69598e-14 0 -8.13152e-14 -1.88175e-14 0 0 0 0)
(0 -1.44896e-14 0 -8.13152e-14 -1.21564e-14 0 0 0 0)
(0 -3.35575e-15 0 -1.35525e-13 8.41177e-16 0 0 0 0)
(-2.71051e-14 3.48616e-15 0 -8.13152e-14 -3.60125e-15 0 0 0 0)
(0 8.88499e-16 0 -1.35525e-13 2.79739e-15 0 0 0 0)
(2.71051e-14 6.54065e-15 0 -1.0842e-13 -4.95881e-15 0 0 0 0)
(0 6.91358e-15 0 -8.13152e-14 -1.96799e-14 0 0 0 0)
(5.42101e-14 -3.03193e-15 0 0 -1.78205e-14 0 0 0 0)
(-5.42101e-14 -1.95778e-14 0 -2.71051e-14 9.21667e-15 0 0 0 0)
(-2.71051e-14 -1.26845e-14 0 -5.42101e-14 2.36518e-14 0 0 0 0)
(0 1.4811e-14 0 -8.13152e-14 1.22161e-14 0 0 0 0)
(0 2.17802e-14 0 -1.35525e-13 -8.99553e-15 0 0 0 0)
(2.71051e-14 1.9591e-14 0 -1.0842e-13 -1.34686e-14 0 0 0 0)
(5.42101e-14 -9.06048e-16 0 -1.0842e-13 -1.94695e-14 0 0 0 0)
(0 -2.1909e-14 0 0 -2.35706e-15 0 0 0 0)
(0 -1.50242e-14 0 2.71051e-14 4.21197e-15 0 0 0 0)
(-1.35525e-13 -7.31287e-13 0 -2.71051e-13 -1.01088e-11 0 0 0 0)
(-8.13152e-14 8.05155e-13 0 1.6263e-13 2.01e-12 0 0 0 0)
(2.71051e-14 -1.01037e-13 0 8.13152e-14 -4.51886e-13 0 0 0 0)
(1.0842e-13 3.1313e-14 0 1.0842e-13 9.31977e-14 0 0 0 0)
(0 -8.70541e-15 0 1.0842e-13 -2.49388e-14 0 0 0 0)
(0 -6.89605e-16 0 1.0842e-13 4.6325e-16 0 0 0 0)
(-5.42101e-14 -5.85307e-15 0 1.0842e-13 1.50994e-15 0 0 0 0)
(5.42101e-14 -2.06504e-15 0 8.13152e-14 -9.01488e-15 0 0 0 0)
(0 8.61755e-16 0 1.6263e-13 -9.0737e-15 0 0 0 0)
(0 -4.18248e-15 0 1.0842e-13 -1.02877e-14 0 0 0 0)
(0 8.47241e-16 0 8.13152e-14 -1.59974e-14 0 0 0 0)
(2.71051e-14 1.59523e-14 0 0 -1.53212e-14 0 0 0 0)
(5.42101e-14 8.87014e-15 0 2.71051e-14 -8.23632e-15 0 0 0 0)
(-5.42101e-14 -7.21226e-15 0 8.13152e-14 1.43167e-14 0 0 0 0)
(-2.71051e-14 -7.0729e-15 0 8.13152e-14 8.30732e-15 0 0 0 0)
(0 -4.83601e-15 0 8.13152e-14 -9.20482e-15 0 0 0 0)
(0 -8.63808e-16 0 8.13152e-14 -2.33243e-14 0 0 0 0)
(8.13152e-14 7.56497e-15 0 5.42101e-14 -3.7004e-14 0 0 0 0)
(2.71051e-14 1.04825e-14 0 -5.42101e-14 -1.60233e-14 0 0 0 0)
(-2.71051e-14 -7.24225e-15 0 0 4.07267e-15 0 0 0 0)
(2.43945e-13 -5.16076e-12 0 -1.6263e-13 7.30763e-12 0 0 0 0)
(-8.13152e-14 6.16336e-12 0 5.42101e-14 -1.41559e-12 0 0 0 0)
(2.71051e-14 -1.24629e-12 0 0 3.39121e-13 0 0 0 0)
(-5.42101e-14 2.91954e-13 0 -2.71051e-14 -6.82642e-14 0 0 0 0)
(2.71051e-14 -5.57747e-14 0 -2.71051e-14 1.58535e-14 0 0 0 0)
(0 1.19591e-14 0 -5.42101e-14 -3.78411e-15 0 0 0 0)
(-2.71051e-14 -1.28339e-14 0 -2.71051e-14 4.58395e-15 0 0 0 0)
(0 -7.09748e-15 0 0 1.49028e-14 0 0 0 0)
(0 -3.84285e-16 0 -2.71051e-14 1.37465e-14 0 0 0 0)
(-2.71051e-14 -3.83016e-16 0 -2.71051e-14 1.44254e-14 0 0 0 0)
(-2.71051e-14 1.88004e-15 0 0 1.8312e-14 0 0 0 0)
(-2.71051e-14 4.72913e-15 0 0 1.16981e-14 0 0 0 0)
(0 1.00602e-14 0 -2.71051e-14 -2.36945e-15 0 0 0 0)
(0 3.85914e-15 0 -2.71051e-14 -7.23221e-15 0 0 0 0)
(0 -8.7105e-15 0 0 9.83679e-16 0 0 0 0)
(0 -9.85141e-15 0 0 8.55119e-15 0 0 0 0)
(-2.71051e-14 -8.20813e-15 0 0 1.56711e-14 0 0 0 0)
(-2.71051e-14 6.39495e-15 0 0 1.76231e-14 0 0 0 0)
(0 1.91677e-14 0 5.42101e-14 1.71117e-15 0 0 0 0)
(0 -3.07356e-15 0 -2.71051e-14 -1.2027e-14 0 0 0 0)
)
;

boundaryField
{
    movingWall
    {
        type            extrapolatedCalculated;
        value           nonuniform List<tensor> 
20
(
(2.43945e-13 -5.16076e-12 0 -7.99361e-13 2.58724e-11 0 0 0 0)
(-8.13152e-14 6.16336e-12 0 -1.77636e-13 -5.22933e-12 0 0 0 0)
(2.71051e-14 -1.24629e-12 0 -4.44089e-13 1.21893e-12 0 0 0 0)
(-5.42101e-14 2.91954e-13 0 -2.66454e-13 -2.44184e-13 0 0 0 0)
(2.71051e-14 -5.57747e-14 0 -2.66454e-13 5.11172e-14 0 0 0 0)
(0 1.19591e-14 0 -3.10862e-13 -2.10853e-14 0 0 0 0)
(-2.71051e-14 -1.28339e-14 0 -3.10862e-13 3.28058e-15 0 0 0 0)
(0 -7.09748e-15 0 -2.22045e-13 3.02502e-14 0 0 0 0)
(0 -3.84285e-16 0 -2.66454e-13 3.16705e-14 0 0 0 0)
(-2.71051e-14 -3.83016e-16 0 -2.22045e-13 3.17874e-14 0 0 0 0)
(-2.71051e-14 1.88004e-15 0 -1.77636e-13 3.32026e-14 0 0 0 0)
(-2.71051e-14 4.72913e-15 0 -1.33227e-13 2.42672e-14 0 0 0 0)
(0 1.00602e-14 0 -4.44089e-14 1.42861e-14 0 0 0 0)
(0 3.85914e-15 0 -8.88178e-14 -1.59735e-14 0 0 0 0)
(0 -8.7105e-15 0 -1.33227e-13 -1.1505e-15 0 0 0 0)
(0 -9.85141e-15 0 -1.33227e-13 1.88686e-14 0 0 0 0)
(-2.71051e-14 -8.20813e-15 0 -8.88178e-14 3.82551e-14 0 0 0 0)
(-2.71051e-14 6.39495e-15 0 -4.44089e-14 5.17011e-14 0 0 0 0)
(0 1.91677e-14 0 8.88178e-14 1.26753e-14 0 0 0 0)
(0 -3.07356e-15 0 -4.44089e-14 -2.49696e-14 0 0 0 0)
)
;
    }
    fixedWalls
    {
        type            extrapolatedCalculated;
        value           nonuniform List<tensor> 
60
(
(-2.75335e-12 2.95794e-11 0 3.52366e-13 1.11986e-11 0 0 0 0)
(4.17444e-12 1.52148e-11 0 1.11131e-12 -1.73375e-11 0 0 0 0)
(1.73195e-12 -3.97707e-11 0 -2.1413e-12 2.44911e-12 0 0 0 0)
(-4.44089e-12 2.50113e-11 0 -3.79471e-13 8.94214e-12 0 0 0 0)
(2.66454e-13 -4.00212e-12 0 2.22261e-12 -9.36094e-12 0 0 0 0)
(4.39648e-12 -1.24325e-11 0 -4.87891e-13 5.04503e-12 0 0 0 0)
(-1.77636e-12 1.6178e-11 0 -1.30104e-12 2.11574e-12 0 0 0 0)
(-7.99361e-13 -3.96955e-12 0 6.77626e-13 -6.18564e-12 0 0 0 0)
(9.76996e-13 -8.56456e-12 0 3.25261e-13 3.15879e-12 0 0 0 0)
(5.32907e-13 8.66562e-12 0 -1.13841e-12 3.84042e-13 0 0 0 0)
(-3.55271e-12 -7.02839e-12 0 6.77626e-13 -1.15327e-12 0 0 0 0)
(3.15303e-12 4.05253e-12 0 -9.75782e-13 2.65477e-12 0 0 0 0)
(-7.37188e-12 3.59071e-12 0 1.11131e-12 -4.35266e-12 0 0 0 0)
(7.59393e-12 -1.33581e-11 0 3.79471e-13 3.27399e-12 0 0 0 0)
(-5.77316e-12 1.66866e-11 0 -1.54499e-12 7.7806e-13 0 0 0 0)
(1.28786e-12 -1.02459e-11 0 9.21572e-13 -4.61869e-12 0 0 0 0)
(-1.95399e-12 -1.78811e-12 0 1.89735e-13 6.20222e-12 0 0 0 0)
(1.90958e-12 1.4563e-11 0 4.33681e-13 -3.92515e-13 0 0 0 0)
(-1.77636e-13 -3.35817e-12 0 -2.71051e-13 -1.01088e-11 0 0 0 0)
(7.99361e-13 -2.58724e-11 0 -1.6263e-13 7.30763e-12 0 0 0 0)
(0 1.1823e-14 0 0 -3.95648e-15 0 0 0 0)
(0 4.00294e-15 0 -5.42101e-14 -2.39221e-15 0 0 0 0)
(8.88178e-14 2.13918e-14 0 5.42101e-14 -5.78089e-15 0 0 0 0)
(-4.44089e-14 2.71265e-14 0 2.71051e-14 1.14122e-14 0 0 0 0)
(-4.44089e-14 -2.4257e-14 0 -2.71051e-14 1.2441e-14 0 0 0 0)
(0 -2.26376e-14 0 0 -7.76647e-15 0 0 0 0)
(0 6.80886e-15 0 0 -1.00051e-14 0 0 0 0)
(0 1.7383e-14 0 0 8.81127e-16 0 0 0 0)
(-4.44089e-14 3.28436e-15 0 2.71051e-14 3.87431e-15 0 0 0 0)
(0 1.88572e-15 0 -2.71051e-14 -6.74058e-16 0 0 0 0)
(0 5.98059e-15 0 0 4.86304e-15 0 0 0 0)
(0 -1.75664e-14 0 0 1.88009e-15 0 0 0 0)
(0 -1.53977e-15 0 0 -9.32701e-15 0 0 0 0)
(0 1.97416e-14 0 0 3.91198e-15 0 0 0 0)
(0 -1.71877e-14 0 0 9.80247e-15 0 0 0 0)
(0 -1.94683e-14 0 0 -2.72431e-15 0 0 0 0)
(0 -6.29047e-15 0 0 -2.69734e-15 0 0 0 0)
(0 -8.67889e-15 0 2.71051e-14 4.21197e-15 0 0 0 0)
(-4.44089e-14 -2.31384e-14 0 0 4.07267e-15 0 0 0 0)
(-4.44089e-14 -2.49696e-14 0 -2.71051e-14 -1.2027e-14 0 0 0 0)
(-4.06576e-13 5.9021e-12 0 -2.75335e-12 2.95794e-11 0 0 0 0)
(7.86047e-13 -7.03375e-12 0 1.19904e-12 -5.97104e-12 0 0 0 0)
(-2.71051e-13 1.42841e-12 0 2.66454e-13 1.44442e-12 0 0 0 0)
(-2.71051e-14 -3.51362e-13 0 2.22045e-13 -2.57407e-13 0 0 0 0)
(0 6.0865e-14 0 1.33227e-13 3.89772e-14 0 0 0 0)
(5.42101e-14 -3.05368e-15 0 2.22045e-13 -1.39473e-14 0 0 0 0)
(-2.71051e-14 1.14766e-14 0 2.66454e-13 2.67625e-14 0 0 0 0)
(-2.71051e-14 1.58564e-15 0 2.22045e-13 3.1959e-14 0 0 0 0)
(-2.71051e-14 -8.53667e-15 0 1.33227e-13 3.31051e-14 0 0 0 0)
(2.71051e-14 -4.53075e-15 0 1.33227e-13 -2.1877e-15 0 0 0 0)
(0 1.17386e-14 0 2.22045e-13 1.49821e-14 0 0 0 0)
(-2.71051e-14 1.05522e-14 0 8.88178e-14 4.47666e-14 0 0 0 0)
(0 -3.00393e-15 0 8.88178e-14 5.71911e-14 0 0 0 0)
(-2.71051e-14 -4.19296e-15 0 8.88178e-14 3.27508e-14 0 0 0 0)
(-8.13152e-14 -4.18225e-15 0 0 4.04192e-14 0 0 0 0)
(-2.71051e-14 -1.13447e-14 0 -1.77636e-13 1.60218e-14 0 0 0 0)
(2.71051e-14 -1.06796e-14 0 -8.88178e-14 -4.95946e-15 0 0 0 0)
(0 -6.2043e-15 0 -8.88178e-14 -2.66966e-14 0 0 0 0)
(5.42101e-14 3.71841e-15 0 -8.88178e-14 -2.97767e-14 0 0 0 0)
(0 1.03999e-14 0 0 -1.1823e-14 0 0 0 0)
)
;
    }
    frontAndBack
    {
        type            empty;
    }
}


// ************************************************************************* //
