/*--------------------------------*- C++ -*----------------------------------*\
| =========                 |                                                 |
| \\      /  F ield         | OpenFOAM: The Open Source CFD Toolbox           |
|  \\    /   O peration     | Version:  2506                                  |
|   \\  /    A nd           | Website:  www.openfoam.com                      |
|    \\/     M anipulation  |                                                 |
\*---------------------------------------------------------------------------*/
FoamFile
{
    version     2.0;
    format      ascii;
    arch        "LSB;label=32;scalar=64";
    class       volVectorField;
    location    "5.625";
    object      LambVectorField;
}
// * * * * * * * * * * * * * * * * * * * * * * * * * * * * * * * * * * * * * //

dimensions      [0 1 -2 0 0 0 0];

internalField   nonuniform List<vector> 
400
(
(-4.10395e-25 -5.54973e-12 0)
(-1.02569e-25 6.87112e-12 -0)
(-5.35382e-27 -1.48262e-12 0)
(-2.4355e-28 3.78467e-13 -0)
(-8.57208e-30 -8.79701e-14 0)
(-1.06477e-31 3.05368e-15 -0)
(-7.67855e-31 -1.14766e-14 0)
(-1.26689e-31 -1.58564e-15 0)
(7.06518e-31 8.53667e-15 0)
(2.71709e-31 -4.96794e-14 -0)
(-4.39671e-31 -1.17386e-14 0)
(-7.24797e-30 -6.47624e-14 0)
(4.29496e-31 3.00393e-15 0)
(4.78187e-30 5.84031e-14 0)
(4.22608e-31 4.18225e-15 0)
(-2.80264e-30 -6.99705e-14 0)
(-1.32413e-31 1.06796e-14 -0)
(-4.14085e-31 6.2043e-15 -0)
(4.3123e-30 -5.79285e-14 -0)
(3.07396e-31 -1.03999e-14 -0)
(-6.97043e-26 -1.83254e-12 0)
(-2.71884e-26 3.16193e-12 -0)
(-1.87869e-27 -9.02784e-13 0)
(-1.54885e-30 4.03376e-15 -0)
(-2.38134e-29 -1.66172e-13 0)
(9.27669e-30 -1.19693e-13 -0)
(1.43049e-30 -9.52779e-14 -0)
(-9.01329e-30 -1.45088e-13 0)
(-5.47799e-30 -6.79563e-14 0)
(5.23811e-30 -7.32959e-14 -0)
(-3.84286e-32 -9.19164e-14 0)
(-1.18178e-30 -3.42073e-14 0)
(-4.66258e-30 -6.52649e-14 0)
(-9.9063e-30 -6.82745e-14 0)
(-9.73603e-30 -4.59063e-14 0)
(1.91276e-30 3.08228e-14 0)
(-1.38314e-30 1.43863e-14 -0)
(4.79534e-30 -5.86185e-14 -0)
(1.78482e-30 -3.42849e-14 -0)
(6.04611e-31 -6.04167e-14 -0)
(-5.59989e-25 5.63218e-12 -0)
(-1.87514e-25 -8.64445e-12 0)
(-1.15064e-26 2.24659e-12 -0)
(-3.86289e-28 -3.43883e-13 0)
(-1.0491e-28 3.20193e-13 -0)
(-2.20744e-29 1.21782e-13 -0)
(-2.86017e-30 1.50367e-14 -0)
(-3.95083e-30 6.5219e-14 -0)
(-2.37139e-30 8.10701e-14 -0)
(-5.10862e-30 8.78868e-14 -0)
(-3.2827e-30 3.45668e-14 -0)
(-1.05954e-29 7.9818e-14 -0)
(1.83216e-30 -2.29033e-14 -0)
(-1.81864e-30 -1.88874e-14 0)
(1.05377e-30 9.67839e-15 0)
(-2.46008e-32 4.96605e-14 -0)
(-1.51801e-30 1.30104e-14 -0)
(-4.23921e-31 3.24595e-15 -0)
(-2.89219e-30 1.9393e-14 -0)
(-1.81556e-30 3.39486e-14 -0)
(-3.33346e-25 -5.33113e-12 0)
(-7.76794e-26 5.97004e-12 -0)
(-3.98573e-27 -1.2862e-12 0)
(-3.30267e-28 4.77537e-13 -0)
(-1.45088e-30 2.88835e-14 -0)
(-1.30202e-29 7.78308e-14 -0)
(-1.40289e-30 9.11674e-14 -0)
(4.34255e-31 8.2869e-14 0)
(-1.66509e-30 5.38399e-14 -0)
(9.98291e-31 1.1164e-13 0)
(-7.19458e-30 1.13972e-13 -0)
(-2.15721e-30 4.63155e-14 -0)
(1.09841e-30 6.94292e-14 0)
(2.06514e-30 2.85702e-14 0)
(1.14995e-31 9.83495e-14 0)
(-1.18068e-29 1.20404e-13 -0)
(-6.97503e-30 5.87791e-14 -0)
(-1.61686e-29 1.12477e-13 -0)
(-1.60546e-29 1.00827e-13 -0)
(-2.98426e-31 4.40051e-15 -0)
(-3.05823e-26 3.05661e-12 -0)
(-2.45204e-27 -1.47236e-12 0)
(-1.33508e-28 3.09317e-13 -0)
(6.09933e-30 -8.40809e-14 -0)
(1.09216e-30 -8.21709e-15 -0)
(-4.43199e-31 -4.60247e-14 0)
(8.38731e-32 1.49019e-15 0)
(-5.11358e-31 9.69891e-14 -0)
(-5.55271e-30 5.52752e-14 -0)
(2.16061e-31 -1.35687e-14 -0)
(-1.73916e-31 -4.93643e-15 0)
(-1.13896e-31 -3.40589e-15 0)
(1.98316e-30 2.86211e-14 0)
(1.92313e-31 1.052e-14 0)
(3.99117e-31 -1.11144e-14 -0)
(7.02466e-30 -4.96001e-14 -0)
(5.76867e-30 -7.03406e-14 -0)
(-1.37285e-30 -6.97623e-14 0)
(-4.28621e-30 -5.83065e-14 0)
(-8.30173e-31 -1.36896e-14 0)
(-6.20902e-26 1.99767e-12 -0)
(-1.6656e-26 -2.67538e-12 0)
(-1.03078e-27 6.37497e-13 -0)
(-1.74873e-29 -1.43665e-13 0)
(8.32386e-30 -4.6177e-14 -0)
(-3.03088e-30 -7.32254e-14 0)
(8.15439e-32 8.24285e-15 0)
(1.08585e-30 -2.64599e-14 -0)
(-1.34083e-31 -3.89627e-14 0)
(-2.71999e-30 -3.50792e-14 0)
(2.31157e-30 2.77891e-14 0)
(-1.5275e-31 -2.16059e-15 0)
(-2.74668e-30 -2.62116e-14 0)
(2.35503e-30 3.81299e-14 0)
(-2.46354e-31 4.51246e-14 -0)
(-4.64749e-30 3.92418e-14 -0)
(1.15183e-29 -9.08192e-14 -0)
(1.62715e-30 -6.95613e-14 -0)
(-1.66003e-30 -6.22087e-14 0)
(4.71308e-31 8.32788e-15 0)
(-1.86384e-25 -4.60834e-12 0)
(-2.90968e-26 3.9469e-12 -0)
(-1.70893e-27 -9.55174e-13 0)
(-3.02905e-29 1.16602e-13 -0)
(-7.41229e-30 -9.14965e-14 0)
(3.58605e-30 -2.27017e-14 -0)
(2.70761e-29 -1.15674e-13 -0)
(9.74217e-30 -1.14045e-13 -0)
(-9.40263e-30 -1.00855e-13 0)
(-1.20955e-29 -1.0998e-13 0)
(-9.0428e-30 -8.30916e-14 0)
(-9.31925e-31 -7.29528e-15 0)
(-1.73552e-29 -9.54725e-14 0)
(-8.20896e-30 -3.04806e-14 0)
(-1.61806e-31 -7.50709e-16 0)
(3.1618e-31 5.47626e-14 0)
(-1.87295e-30 3.06851e-14 -0)
(-3.57217e-32 1.18966e-15 -0)
(-3.85893e-30 5.29096e-14 -0)
(1.53125e-31 -8.99565e-15 -0)
(-1.46044e-26 1.47165e-12 -0)
(-2.18607e-27 -1.10203e-12 0)
(-5.27723e-29 2.03882e-13 -0)
(-5.13725e-30 -2.37936e-14 0)
(-1.94581e-30 9.30946e-14 -0)
(-1.24814e-29 7.21737e-14 -0)
(1.63191e-30 -8.13765e-15 -0)
(6.15521e-30 -6.72265e-14 -0)
(4.63004e-31 -6.57921e-15 -0)
(-3.8624e-31 1.49896e-14 -0)
(-3.75748e-30 -7.39938e-14 0)
(-1.14548e-29 -6.65708e-14 0)
(-3.63937e-31 -2.08694e-15 0)
(-9.10725e-31 -4.72026e-15 0)
(8.90247e-31 4.01754e-15 0)
(3.0239e-30 1.97946e-14 0)
(1.99902e-30 8.45457e-14 0)
(-1.47291e-29 9.78078e-14 -0)
(-2.31584e-30 1.63916e-14 -0)
(8.02829e-31 -1.84739e-14 -0)
(-4.39253e-26 2.05149e-12 -0)
(-8.10084e-27 -1.95245e-12 0)
(-5.48333e-28 5.10653e-13 -0)
(-1.1419e-29 -9.00966e-14 0)
(-1.32389e-29 7.66045e-14 -0)
(1.21968e-30 -1.2548e-14 -0)
(1.2547e-31 -2.65028e-15 -0)
(-5.00453e-32 7.07869e-16 -0)
(4.07784e-31 -7.49316e-15 -0)
(1.80792e-31 4.27098e-14 0)
(-4.98435e-31 -8.22739e-15 0)
(-4.25629e-30 -4.92017e-14 0)
(5.55671e-31 5.29291e-14 0)
(-2.25591e-30 -2.27142e-14 0)
(2.64381e-30 1.11252e-14 0)
(5.86183e-30 2.26225e-14 0)
(1.1454e-30 1.00337e-13 0)
(-7.55458e-30 3.73705e-14 -0)
(1.76951e-30 -1.93943e-14 -0)
(-1.409e-31 1.71601e-14 -0)
(-6.31769e-26 -2.91621e-12 0)
(-8.46251e-27 2.17766e-12 -0)
(-4.9894e-28 -5.13502e-13 0)
(-8.5903e-30 8.08187e-14 -0)
(-7.82429e-30 -4.78681e-14 0)
(2.28469e-30 2.25449e-14 0)
(-1.92336e-30 3.10249e-14 -0)
(-1.6609e-30 7.95031e-15 -0)
(9.76425e-30 -6.90067e-14 -0)
(6.07789e-30 -9.97288e-14 -0)
(-1.72091e-30 -4.036e-14 0)
(-2.39147e-30 -3.33979e-14 0)
(-6.68756e-30 -6.33487e-14 0)
(-1.91353e-29 -1.174e-13 0)
(1.13467e-31 5.80785e-16 0)
(-7.03568e-30 -4.47609e-14 0)
(-1.61277e-30 -1.59875e-14 0)
(-2.09271e-30 -4.54858e-14 0)
(-3.00396e-31 -2.20328e-14 0)
(1.23577e-31 -2.62131e-14 -0)
(-3.62414e-26 2.06257e-12 -0)
(-6.46039e-27 -1.73594e-12 0)
(-3.30703e-28 4.38816e-13 -0)
(-4.36133e-30 -2.97633e-14 0)
(1.86926e-30 2.17083e-14 0)
(1.1662e-29 5.81641e-14 0)
(7.65916e-30 1.6447e-13 0)
(-1.2864e-29 1.44624e-13 -0)
(-3.3922e-30 7.63726e-14 -0)
(-4.54361e-30 1.14963e-13 -0)
(-9.41597e-30 8.57198e-14 -0)
(-7.3914e-30 8.84467e-14 -0)
(5.69854e-30 6.33954e-14 0)
(1.19476e-29 1.24937e-13 0)
(-3.46876e-30 4.60762e-14 -0)
(-4.14041e-30 4.40081e-14 -0)
(-1.18301e-30 -4.42468e-14 0)
(2.2871e-31 2.95739e-15 0)
(-1.03092e-31 3.63337e-14 -0)
(2.65969e-32 -1.77888e-15 -0)
(-1.84449e-26 -1.82058e-12 0)
(-1.90361e-27 1.13086e-12 -0)
(-4.14621e-29 -2.3299e-13 0)
(1.43933e-29 -8.64051e-14 -0)
(4.93175e-30 -1.16881e-13 -0)
(9.18327e-30 -1.12027e-13 -0)
(9.89704e-31 -1.61662e-13 -0)
(-1.95562e-29 -1.09014e-13 0)
(-6.94673e-30 -2.56465e-14 0)
(-3.55639e-31 -2.15793e-15 0)
(5.04656e-31 2.35889e-14 0)
(-2.74955e-31 3.86807e-15 -0)
(6.7015e-31 -3.87664e-14 -0)
(2.86174e-32 6.28542e-16 0)
(1.22846e-30 -5.21145e-14 -0)
(-9.23685e-31 -3.7588e-14 0)
(-8.23335e-31 -1.01324e-14 0)
(-3.1225e-31 -2.48018e-15 0)
(-2.00525e-30 -1.89069e-14 0)
(6.58634e-31 1.49976e-14 0)
(4.62697e-27 5.15438e-13 0)
(-1.71732e-27 5.6901e-13 -0)
(-1.151e-28 -1.9977e-13 0)
(5.73542e-30 -2.76772e-14 -0)
(-1.66716e-30 -4.1909e-14 0)
(1.37166e-30 -2.31754e-14 -0)
(-1.81867e-32 -3.7594e-14 0)
(-2.36989e-30 -5.18539e-14 0)
(1.02054e-30 -4.42205e-14 -0)
(2.92813e-30 -5.40314e-14 -0)
(1.48018e-30 -5.95264e-14 -0)
(7.9581e-32 -7.72716e-14 -0)
(3.26313e-30 -4.997e-14 -0)
(3.94696e-30 -9.08785e-14 -0)
(-2.99139e-30 -9.86233e-14 0)
(-1.53517e-29 -1.18409e-13 0)
(-7.44288e-30 -5.7158e-14 0)
(4.54417e-31 2.85564e-15 0)
(1.57857e-30 1.5528e-14 0)
(4.06149e-32 1.05509e-14 0)
(-1.00093e-25 2.99723e-12 -0)
(-2.32057e-26 -3.21511e-12 0)
(-1.09658e-27 7.2371e-13 -0)
(-3.24831e-29 -6.21435e-14 0)
(-1.06761e-29 1.32401e-13 -0)
(1.59971e-30 1.34933e-13 0)
(-1.12815e-29 1.51008e-13 -0)
(-1.67487e-29 1.17146e-13 -0)
(-1.23653e-29 7.63456e-14 -0)
(-6.52367e-30 6.99386e-14 -0)
(-2.16721e-30 4.49637e-14 -0)
(-6.43663e-32 7.92034e-14 -0)
(-2.3457e-30 8.66174e-14 -0)
(-2.98044e-30 5.53624e-14 -0)
(-3.04328e-30 7.88328e-14 -0)
(-6.56025e-31 2.26124e-14 -0)
(3.22709e-31 5.10432e-14 0)
(8.52402e-32 3.2071e-14 0)
(-1.40007e-30 3.23062e-14 -0)
(4.57469e-31 -9.26914e-15 -0)
(-2.03997e-25 -4.89005e-12 0)
(-3.49692e-26 4.2305e-12 -0)
(-1.89774e-27 -1.02521e-12 0)
(-1.1269e-28 2.48592e-13 -0)
(2.91121e-30 -3.13886e-14 -0)
(4.17762e-30 -2.99624e-14 -0)
(7.62241e-30 -1.18778e-13 -0)
(4.38388e-30 -1.22271e-13 -0)
(-8.76647e-30 -1.1794e-13 0)
(-1.52661e-30 -2.57267e-14 0)
(-2.29559e-31 -3.79142e-15 0)
(-3.31494e-30 -3.40855e-14 0)
(-1.13245e-29 -8.68767e-14 0)
(6.57693e-31 4.30234e-15 0)
(4.15264e-30 4.75523e-14 0)
(-4.50457e-30 8.72912e-14 -0)
(-1.24312e-31 -4.50938e-15 0)
(1.64979e-32 -2.53419e-15 -0)
(-1.6959e-30 -3.2053e-14 0)
(4.11983e-31 9.58785e-15 0)
(-7.68993e-26 3.00216e-12 -0)
(-1.19217e-26 -2.47916e-12 0)
(-9.96024e-28 7.29607e-13 -0)
(2.90136e-30 -6.06334e-14 -0)
(-7.47882e-30 3.45099e-14 -0)
(-1.31416e-30 1.07807e-14 -0)
(-2.41676e-30 4.51973e-14 -0)
(-1.63766e-30 5.15448e-14 -0)
(-2.15587e-30 8.03878e-14 -0)
(3.80865e-32 -1.6929e-15 -0)
(6.58155e-32 -6.65515e-15 -0)
(-2.72966e-30 -6.19621e-14 0)
(6.80877e-32 1.00677e-15 0)
(1.04459e-31 3.07359e-15 0)
(7.7761e-32 2.10767e-15 0)
(3.64607e-31 2.82437e-14 0)
(1.32885e-30 5.2097e-14 0)
(8.65895e-31 2.54374e-14 0)
(-6.17171e-32 -1.46304e-15 0)
(4.42196e-31 9.08547e-15 0)
(-2.64923e-27 5.92633e-13 -0)
(-2.15452e-28 -4.88227e-13 0)
(-6.77963e-30 5.21087e-14 -0)
(6.61983e-30 -8.2964e-14 -0)
(-7.20311e-30 -4.57534e-14 0)
(-7.20886e-31 -6.75672e-15 0)
(-3.15986e-30 6.86183e-14 -0)
(-1.50356e-31 4.02126e-15 -0)
(1.91444e-31 -2.21931e-15 -0)
(-1.33891e-31 8.81025e-15 -0)
(-1.32545e-30 -1.37089e-14 0)
(8.18557e-30 6.71544e-14 0)
(-3.73161e-30 1.13917e-13 -0)
(-2.0845e-30 1.02117e-14 -0)
(7.10508e-30 -5.26795e-14 -0)
(-1.0761e-30 -2.08487e-14 0)
(-2.70271e-30 -3.67152e-14 0)
(5.23886e-31 3.54658e-15 0)
(5.03504e-31 1.3199e-14 0)
(8.47222e-32 5.38734e-15 0)
(-9.11792e-26 -2.50441e-12 0)
(-2.26437e-26 3.22255e-12 -0)
(-1.1861e-27 -8.06038e-13 0)
(-1.72583e-29 5.36775e-14 -0)
(-1.43817e-29 -1.18275e-13 0)
(-3.21302e-30 -6.68256e-14 0)
(3.07966e-30 -1.3217e-13 -0)
(-1.23159e-30 -8.48013e-14 0)
(-1.57705e-30 -1.36414e-13 0)
(-2.69103e-30 -1.14961e-13 0)
(-6.79073e-30 -8.82287e-14 0)
(2.80587e-31 3.03193e-15 0)
(-3.51133e-31 -7.52728e-15 0)
(4.28684e-30 -4.15256e-14 -0)
(7.70903e-30 -9.61262e-14 -0)
(-7.05936e-30 -1.57305e-13 0)
(-1.7615e-29 -1.28011e-13 0)
(-2.5888e-29 -1.07514e-13 0)
(2.81628e-30 2.1909e-14 0)
(9.14087e-31 4.21292e-14 0)
(-3.86388e-27 4.60236e-13 -0)
(-6.95566e-28 -6.42524e-13 0)
(-6.27058e-29 1.82352e-13 -0)
(5.56575e-30 7.71072e-14 0)
(-3.60068e-30 1.17126e-13 -0)
(-1.62269e-30 1.0911e-13 -0)
(-4.30103e-30 1.14273e-13 -0)
(-6.12034e-30 8.33802e-14 -0)
(-9.42925e-30 1.61769e-13 -0)
(-7.295e-30 1.12603e-13 -0)
(-8.05592e-30 8.04679e-14 -0)
(8.9832e-31 -1.59523e-14 -0)
(1.08333e-30 1.82349e-14 0)
(2.86727e-30 8.85274e-14 0)
(-1.12368e-30 8.83881e-14 -0)
(-3.30308e-30 8.61512e-14 -0)
(-5.01892e-30 8.2179e-14 -0)
(-2.19132e-30 4.66451e-14 -0)
(-9.42997e-31 -6.46926e-14 0)
(4.18934e-31 7.24225e-15 0)
(-3.23284e-25 4.99813e-12 -0)
(-7.98668e-26 -6.10915e-12 0)
(-3.79785e-27 1.24629e-12 -0)
(-1.94773e-28 -3.19059e-13 0)
(-3.66378e-30 2.86696e-14 -0)
(-3.48799e-30 -6.61693e-14 0)
(1.17044e-31 -1.42712e-14 -0)
(-5.36751e-31 7.09748e-15 -0)
(2.11565e-30 -2.67208e-14 -0)
(2.12356e-30 -2.6722e-14 -0)
(1.56056e-31 -1.88004e-15 -0)
(2.86907e-31 -4.72913e-15 -0)
(1.32736e-30 -3.71652e-14 -0)
(-1.23651e-30 -3.09642e-14 0)
(2.50537e-32 8.7105e-15 0)
(-4.64705e-31 9.85141e-15 -0)
(-7.85008e-31 8.20813e-15 -0)
(8.26565e-31 -6.39495e-15 -0)
(-1.11043e-30 3.50424e-14 -0)
(-1.50014e-30 -2.40315e-14 0)
)
;

boundaryField
{
    movingWall
    {
        type            calculated;
        value           nonuniform List<vector> 
20
(
(0 4.3614e-12 -0)
(0 -6.34099e-12 -0)
(0 8.02196e-13 -0)
(0 -5.58408e-13 -0)
(0 -2.10679e-13 -0)
(0 -3.22822e-13 -0)
(0 -2.98029e-13 -0)
(0 -2.14947e-13 -0)
(0 -2.66069e-13 -0)
(0 -2.21662e-13 -0)
(0 -1.79516e-13 -0)
(0 -1.37956e-13 -0)
(0 -5.44691e-14 -0)
(0 -9.2677e-14 -0)
(0 -1.24516e-13 -0)
(0 -1.23375e-13 -0)
(0 -8.06097e-14 -0)
(0 -5.08039e-14 -0)
(0 6.96502e-14 -0)
(0 -4.13354e-14 -0)
)
;
    }
    fixedWalls
    {
        type            calculated;
        value           nonuniform List<vector> 
60
(
(0 -2.92271e-11 -0)
(0 -1.41035e-11 -0)
(0 3.76294e-11 -0)
(0 -2.53907e-11 -0)
(0 6.22473e-12 -0)
(0 1.19446e-11 -0)
(0 -1.7479e-11 -0)
(0 4.64718e-12 -0)
(0 8.88982e-12 -0)
(0 -9.80403e-12 -0)
(0 7.70602e-12 -0)
(0 -5.02831e-12 -0)
(0 -2.4794e-12 -0)
(0 1.37376e-11 -0)
(0 -1.82316e-11 -0)
(0 1.11674e-11 -0)
(0 1.97785e-12 -0)
(0 -1.41293e-11 -0)
(0 3.08712e-12 -0)
(0 2.57097e-11 -0)
(0 -1.1823e-14 -0)
(0 -5.8213e-14 -0)
(0 3.28183e-14 -0)
(0 -2.14627e-17 -0)
(0 -2.84804e-15 -0)
(0 2.26376e-14 -0)
(0 -6.80886e-15 -0)
(0 -1.7383e-14 -0)
(0 2.38207e-14 -0)
(0 -2.89908e-14 -0)
(0 -5.98059e-15 -0)
(0 1.75664e-14 -0)
(0 1.53977e-15 -0)
(0 -1.97416e-14 -0)
(0 1.71877e-14 -0)
(0 1.94683e-14 -0)
(0 6.29047e-15 -0)
(0 3.57839e-14 -0)
(0 2.31384e-14 -0)
(0 -2.1355e-15 -0)
(0 -8.65545e-12 -0)
(0 8.23279e-12 -0)
(0 -1.16195e-12 -0)
(0 5.73406e-13 -0)
(0 7.23618e-14 -0)
(0 2.25098e-13 -0)
(0 2.54977e-13 -0)
(0 2.20459e-13 -0)
(0 1.41763e-13 -0)
(0 1.37758e-13 -0)
(0 2.10306e-13 -0)
(0 7.82656e-14 -0)
(0 9.18218e-14 -0)
(0 9.30108e-14 -0)
(0 4.18225e-15 -0)
(0 -1.66291e-13 -0)
(0 -7.81382e-14 -0)
(0 -8.26135e-14 -0)
(0 -9.25362e-14 -0)
(0 -1.03999e-14 -0)
)
;
    }
    frontAndBack
    {
        type            empty;
    }
}


// ************************************************************************* //
