/*--------------------------------*- C++ -*----------------------------------*\
| =========                 |                                                 |
| \\      /  F ield         | OpenFOAM: The Open Source CFD Toolbox           |
|  \\    /   O peration     | Version:  2506                                  |
|   \\  /    A nd           | Website:  www.openfoam.com                      |
|    \\/     M anipulation  |                                                 |
\*---------------------------------------------------------------------------*/
FoamFile
{
    version     2.0;
    format      ascii;
    arch        "LSB;label=32;scalar=64";
    class       volScalarField;
    location    "5.625";
    object      Lambda2Field;
}
// * * * * * * * * * * * * * * * * * * * * * * * * * * * * * * * * * * * * * //

dimensions      [0 0 -2 0 0 0 0];

internalField   nonuniform List<scalar> 
400
(
2.245e-24
1.76177e-24
0
0
-1.07015e-27
1.26275e-28
2.69282e-29
2.01698e-28
2.66908e-28
3.04802e-28
0
0
0
2.87863e-28
9.80523e-28
1.02676e-27
1.17813e-28
0
0
0
3.66016e-24
2.91778e-24
7.72002e-26
3.67649e-26
-1.21469e-27
2.14563e-27
-4.74278e-28
-1.09862e-27
1.21175e-27
6.52086e-28
-6.86688e-28
0
0
-2.77484e-29
4.50765e-28
0
1.08738e-28
0
-1.38819e-28
-3.30737e-28
1.67342e-23
7.60089e-24
-3.79898e-25
6.59183e-26
-2.18137e-26
1.94317e-27
3.27114e-28
1.30886e-27
1.99272e-29
0
0
1.87552e-28
0
0
4.44854e-28
0
5.07252e-30
0
3.2389e-28
1.1318e-27
0
1.19735e-24
3.9008e-26
-3.69126e-26
4.26349e-27
6.47729e-28
2.47816e-27
-9.57644e-29
7.07683e-29
-3.31293e-28
-4.32417e-28
7.04144e-28
1.18937e-27
2.11396e-29
-1.17551e-27
-5.64563e-28
-2.3567e-28
-2.13958e-28
1.319e-27
7.45646e-28
0
0
2.8954e-27
1.31944e-27
1.69072e-28
-7.73477e-29
0
-1.25311e-27
-4.59286e-29
0
0
0
3.80614e-29
0
4.33428e-28
2.54061e-28
-8.73771e-28
-6.98225e-28
1.23577e-28
5.18405e-28
2.11267e-24
1.61539e-24
1.94548e-26
3.50574e-28
4.35477e-28
-7.49944e-28
7.34684e-28
8.17289e-29
5.3735e-29
0
3.56254e-29
8.89302e-29
2.42174e-29
3.31365e-28
1.43839e-28
0
-3.81406e-29
-9.75036e-29
0
0
0
-1.02007e-25
-1.55057e-25
9.34844e-27
0
2.16744e-27
-5.1797e-29
-1.92677e-27
-8.54238e-28
0
-1.33953e-28
0
-1.10277e-27
0
7.14336e-28
0
0
1.618e-28
3.52627e-28
0
0
0
0
1.49397e-27
0
-9.3689e-28
3.48682e-28
-7.03452e-28
0
3.28391e-28
0
0
0
0
4.88518e-30
0
0
0
2.90389e-28
0
0
2.12395e-25
-2.84694e-26
7.34684e-28
-8.74126e-28
7.34684e-28
0
1.37711e-28
0
6.23434e-28
6.62922e-31
3.72438e-28
1.16806e-28
8.9688e-30
4.33134e-28
1.95325e-31
-2.44089e-27
0
2.3999e-28
2.84569e-28
-1.87638e-24
-2.12593e-25
-5.02003e-26
0
1.07664e-28
8.8627e-28
8.81924e-29
0
-8.01123e-28
-1.47816e-27
0
1.1869e-28
0
-9.73496e-28
9.79211e-28
1.75973e-27
3.01342e-28
1.25408e-27
1.37483e-28
2.41769e-29
0
0
-1.07031e-26
4.58855e-27
5.69198e-28
1.21692e-28
-3.89156e-27
0
2.10233e-27
0
-3.53652e-28
2.36913e-27
1.45715e-27
-1.65283e-27
0
5.53049e-28
-4.6078e-28
0
-1.64718e-28
0
0
3.19331e-25
0
3.63835e-27
-1.82622e-28
0
-2.80748e-27
-2.07102e-27
4.40884e-29
6.76193e-28
7.22159e-29
6.81269e-29
0
1.93377e-28
2.25147e-28
2.16422e-28
1.07079e-28
0
3.31408e-28
0
3.04918e-24
1.01998e-24
5.1525e-26
9.1128e-27
-3.86486e-28
1.06514e-28
0
8.62415e-28
2.41496e-27
9.68986e-30
-2.39767e-28
3.28805e-28
2.29858e-28
-6.78909e-28
-6.72729e-28
-1.05423e-27
-1.03655e-28
0
2.23194e-28
0
1.56407e-24
1.88992e-25
0
1.2271e-26
-1.21529e-27
1.44714e-28
-1.36364e-27
-8.79527e-28
4.98988e-28
1.05399e-27
5.0125e-28
1.71721e-28
0
0
2.34337e-28
4.50304e-28
1.71681e-28
1.39762e-28
-1.17213e-28
0
-3.6135e-24
0
-1.31077e-25
0
0
1.01455e-28
-3.88277e-28
-1.37801e-27
-8.49443e-28
8.74568e-29
0
-1.69075e-28
-3.62532e-28
0
-4.97224e-28
-4.6837e-28
0
0
0
9.60884e-29
0
0
-7.92243e-26
6.96037e-27
4.25196e-28
1.04823e-27
4.91869e-28
1.44509e-28
3.33311e-28
0
0
-4.14164e-28
2.66044e-28
1.27448e-27
4.93736e-28
7.56767e-29
1.35753e-28
2.8306e-28
2.1792e-30
0
1.24528e-26
2.41693e-25
2.64486e-26
-8.09818e-28
0
5.51543e-28
-4.63856e-29
2.14321e-29
1.47296e-29
4.95882e-28
7.54409e-29
0
-1.91636e-27
0
0
1.02192e-29
0
4.27442e-28
7.4581e-29
0
1.37999e-24
9.51054e-25
-8.42593e-26
1.12079e-26
-2.27071e-27
1.17822e-27
4.54788e-28
0
-1.12589e-28
0
-1.74881e-28
3.17569e-28
6.15604e-28
1.24704e-27
-1.05513e-27
-2.87085e-27
-1.38938e-27
4.77294e-28
0
-3.8949e-28
2.16583e-25
1.37555e-25
0
1.20808e-26
-3.21898e-28
-7.45525e-29
0
0
1.40148e-28
-3.4763e-28
6.88936e-29
2.34739e-28
3.08262e-28
0
0
-3.08512e-28
0
1.77939e-27
0
1.65866e-29
8.98805e-25
3.40728e-25
7.34684e-28
-3.25343e-27
1.76311e-27
-6.33987e-28
3.68875e-28
0
1.04161e-29
2.18473e-28
3.35329e-28
1.36845e-28
-2.67067e-28
-5.22973e-29
0
0
2.45583e-28
3.10575e-28
1.03908e-27
8.3309e-29
)
;

boundaryField
{
    movingWall
    {
        type            calculated;
        value           nonuniform List<scalar> 
20
(
4.18482e-24
0
5.54197e-25
-1.81664e-26
1.5596e-26
-3.27306e-27
4.00033e-27
1.57596e-27
1.02394e-28
8.19731e-28
4.00721e-28
0
-2.4267e-28
-8.76092e-29
1.16047e-27
1.31247e-27
1.46371e-27
4.50691e-28
1.70243e-27
1.36494e-28
)
;
    }
    fixedWalls
    {
        type            calculated;
        value           nonuniform List<scalar> 
60
(
1.80037e-23
3.43343e-23
8.81605e-23
1.02305e-23
0
2.53948e-23
-1.65719e-23
0
0
-9.58106e-24
0
3.09344e-24
2.2936e-23
5.64997e-24
0
0
3.47882e-24
6.46976e-24
9.41788e-25
4.84661e-24
0
-2.11277e-28
1.19307e-27
8.65504e-28
8.12267e-28
0
0
0
1.04033e-28
-5.06583e-29
0
0
0
0
0
0
0
-2.17501e-28
1.65866e-29
8.21449e-28
0
0
4.54072e-25
-1.17594e-26
8.10885e-27
0
3.77421e-27
1.08677e-27
-4.13655e-29
0
2.60649e-27
1.67191e-27
0
3.62274e-28
1.63371e-27
2.27192e-27
9.73137e-28
5.51053e-28
5.56389e-28
0
)
;
    }
    frontAndBack
    {
        type            empty;
    }
}


// ************************************************************************* //
