/*--------------------------------*- C++ -*----------------------------------*\
| =========                 |                                                 |
| \\      /  F ield         | OpenFOAM: The Open Source CFD Toolbox           |
|  \\    /   O peration     | Version:  2506                                  |
|   \\  /    A nd           | Website:  www.openfoam.com                      |
|    \\/     M anipulation  |                                                 |
\*---------------------------------------------------------------------------*/
FoamFile
{
    version     2.0;
    format      ascii;
    arch        "LSB;label=32;scalar=64";
    class       volScalarField;
    location    "5.625";
    object      p;
}
// * * * * * * * * * * * * * * * * * * * * * * * * * * * * * * * * * * * * * //

dimensions      [0 2 -2 0 0 0 0];

internalField   nonuniform List<scalar> 
400
(
7.43099e-17
3.19975e-15
2.04017e-15
2.3333e-15
2.1214e-15
2.26575e-15
2.49673e-15
2.84461e-15
3.07763e-15
2.97488e-15
3.0227e-15
3.07348e-15
2.99096e-15
3.17889e-15
3.66563e-15
3.53919e-15
3.32245e-15
3.3423e-15
3.06916e-15
3.10871e-15
2.38231e-15
0
1.88076e-15
1.87928e-15
2.20571e-15
2.35756e-15
2.46136e-15
2.8209e-15
3.10747e-15
3.11063e-15
3.06764e-15
3.03272e-15
2.92815e-15
3.22964e-15
3.46583e-15
3.42845e-15
3.3256e-15
3.45235e-15
3.261e-15
3.14827e-15
2.22191e-15
2.64728e-15
2.04471e-15
2.25083e-15
2.06351e-15
2.39457e-15
2.56305e-15
2.85718e-15
3.15755e-15
3.26303e-15
3.02517e-15
3.06584e-15
3.12414e-15
3.31178e-15
3.50937e-15
3.38717e-15
3.41745e-15
3.37552e-15
3.28268e-15
3.07504e-15
2.0159e-15
2.99886e-15
2.30467e-15
2.29305e-15
2.30388e-15
2.58151e-15
2.64391e-15
2.86032e-15
3.10525e-15
3.17099e-15
3.15217e-15
3.26002e-15
3.32136e-15
3.34872e-15
3.48108e-15
3.26804e-15
3.27777e-15
3.26392e-15
3.31361e-15
3.33921e-15
2.57858e-15
7.24337e-16
2.50178e-15
2.37198e-15
2.53232e-15
2.66107e-15
2.65102e-15
2.76756e-15
3.0603e-15
3.14094e-15
3.13604e-15
3.24156e-15
3.43613e-15
3.46402e-15
3.42466e-15
3.25267e-15
3.21877e-15
3.10087e-15
3.09077e-15
3.35642e-15
2.06805e-15
4.25978e-15
2.42484e-15
2.88559e-15
2.77399e-15
2.67625e-15
2.55853e-15
2.71062e-15
3.14577e-15
3.24043e-15
3.15871e-15
3.26569e-15
3.34935e-15
3.35686e-15
3.3625e-15
3.46275e-15
3.36925e-15
3.16298e-15
2.87686e-15
3.09425e-15
2.51417e-15
2.81447e-15
2.78795e-15
2.91945e-15
2.91494e-15
2.73588e-15
2.77422e-15
2.9456e-15
3.14644e-15
3.1433e-15
3.17031e-15
3.24942e-15
3.26248e-15
3.19762e-15
3.36149e-15
3.54329e-15
3.51448e-15
3.13076e-15
2.9199e-15
3.04955e-15
3.2828e-15
1.56365e-15
2.85998e-15
2.80831e-15
2.81798e-15
2.99967e-15
3.14167e-15
2.9939e-15
3.13063e-15
3.11382e-15
2.98234e-15
3.32722e-15
3.23755e-15
3.14298e-15
3.09812e-15
3.43647e-15
3.27115e-15
2.95361e-15
3.10233e-15
3.13454e-15
2.73955e-15
3.69594e-15
2.93414e-15
2.97304e-15
2.98445e-15
3.18466e-15
3.20953e-15
3.08494e-15
3.21712e-15
3.23416e-15
3.31212e-15
3.1739e-15
3.12553e-15
3.01564e-15
3.0021e-15
3.12883e-15
3.11748e-15
3.04398e-15
3.15586e-15
3.25177e-15
2.84801e-15
3.14608e-15
3.04284e-15
2.97767e-15
3.0707e-15
3.41132e-15
3.36221e-15
3.28807e-15
3.35384e-15
3.2888e-15
3.1434e-15
2.9969e-15
3.13575e-15
2.97885e-15
2.75332e-15
2.94884e-15
3.00394e-15
3.07044e-15
3.09936e-15
3.19236e-15
3.28064e-15
2.23483e-15
3.04424e-15
2.94799e-15
3.15147e-15
3.30499e-15
3.39286e-15
3.53923e-15
3.50879e-15
3.30794e-15
3.07012e-15
2.9863e-15
2.9898e-15
2.9149e-15
2.73894e-15
2.92176e-15
2.93086e-15
2.94007e-15
2.99978e-15
3.226e-15
3.40288e-15
4.06522e-15
2.93523e-15
3.17679e-15
3.15376e-15
3.32135e-15
3.40847e-15
3.45077e-15
3.40292e-15
3.16839e-15
3.1457e-15
3.13022e-15
2.91023e-15
2.76338e-15
2.91511e-15
3.04244e-15
2.97625e-15
2.90737e-15
3.03635e-15
3.21336e-15
3.43846e-15
1.14458e-15
3.2788e-15
3.20757e-15
3.19881e-15
3.27479e-15
3.43222e-15
3.33827e-15
3.0689e-15
3.19953e-15
3.1772e-15
3.119e-15
3.03303e-15
2.91841e-15
2.87516e-15
2.94363e-15
3.00122e-15
2.94839e-15
2.91988e-15
3.10522e-15
2.86821e-15
5.06314e-15
3.15096e-15
3.38933e-15
3.18775e-15
3.33185e-15
3.30697e-15
3.25261e-15
3.18828e-15
3.17036e-15
3.10859e-15
3.04164e-15
3.07787e-15
2.85391e-15
2.93911e-15
2.90132e-15
3.01668e-15
2.89785e-15
2.9344e-15
3.1825e-15
3.38934e-15
2.25973e-15
3.22873e-15
3.01863e-15
3.14756e-15
3.14311e-15
3.31463e-15
3.31394e-15
3.17504e-15
3.10613e-15
3.01772e-15
2.86198e-15
2.87797e-15
2.76805e-15
2.78202e-15
2.88316e-15
2.89546e-15
2.90154e-15
2.93998e-15
3.23539e-15
3.38893e-15
2.4755e-15
3.08181e-15
3.07014e-15
3.15751e-15
3.25197e-15
3.31219e-15
3.39901e-15
3.0837e-15
3.06698e-15
2.9684e-15
2.87644e-15
2.91795e-15
2.60165e-15
2.50631e-15
2.83586e-15
2.69922e-15
2.93248e-15
2.81982e-15
3.03866e-15
2.70452e-15
3.9043e-15
2.98191e-15
3.16826e-15
3.05613e-15
3.16085e-15
3.23214e-15
3.28901e-15
3.12949e-15
2.94741e-15
2.94437e-15
2.83135e-15
2.72778e-15
2.61249e-15
2.43825e-15
2.68541e-15
2.82949e-15
2.83738e-15
2.91852e-15
3.06085e-15
3.31124e-15
3.09056e-15
2.92677e-15
3.08514e-15
2.91885e-15
3.13276e-15
3.37812e-15
3.22036e-15
3.0762e-15
2.87611e-15
2.81273e-15
2.62978e-15
2.78873e-15
2.71806e-15
2.65064e-15
2.68146e-15
2.69859e-15
2.6205e-15
2.83998e-15
2.95286e-15
3.39855e-15
1.02938e-15
3.13546e-15
2.98294e-15
3.04533e-15
3.15248e-15
3.35309e-15
2.98188e-15
2.91484e-15
2.77196e-15
2.66086e-15
2.47651e-15
2.54658e-15
2.81823e-15
2.78454e-15
2.72325e-15
2.67343e-15
2.45659e-15
2.61362e-15
2.9578e-15
2.11325e-15
4.4192e-15
3.07542e-15
3.30705e-15
3.04519e-15
3.05575e-15
3.24213e-15
3.04494e-15
2.91083e-15
2.7727e-15
2.63532e-15
2.47237e-15
2.57786e-15
2.71464e-15
2.74781e-15
2.74422e-15
2.76162e-15
2.59465e-15
2.56581e-15
2.7618e-15
)
;

boundaryField
{
    movingWall
    {
        type            zeroGradient;
    }
    fixedWalls
    {
        type            zeroGradient;
    }
    frontAndBack
    {
        type            empty;
    }
}


// ************************************************************************* //
