/*--------------------------------*- C++ -*----------------------------------*\
| =========                 |                                                 |
| \\      /  F ield         | OpenFOAM: The Open Source CFD Toolbox           |
|  \\    /   O peration     | Version:  2506                                  |
|   \\  /    A nd           | Website:  www.openfoam.com                      |
|    \\/     M anipulation  |                                                 |
\*---------------------------------------------------------------------------*/
FoamFile
{
    version     2.0;
    format      ascii;
    arch        "LSB;label=32;scalar=64";
    class       volScalarField;
    location    "5.625";
    object      QField;
}
// * * * * * * * * * * * * * * * * * * * * * * * * * * * * * * * * * * * * * //

dimensions      [0 0 -2 0 0 0 0];

internalField   nonuniform List<scalar> 
400
(
-6.63276e-24
-2.99317e-24
-7.68494e-26
1.23087e-26
1.64975e-27
-6.09171e-28
-1.40655e-28
-3.84947e-28
-4.42824e-28
-4.54144e-28
0
1.75047e-28
0
-3.87908e-28
-2.54625e-27
-1.19927e-27
-2.94202e-28
0
-4.84184e-28
0
-1.408e-23
-5.82741e-24
-2.64586e-25
-3.67649e-26
1.84902e-27
-2.14563e-27
1.13538e-27
1.29595e-27
-1.6935e-27
-6.52086e-28
8.62045e-28
1.92508e-28
-1.21383e-27
8.01495e-28
-4.71376e-28
0
-5.65289e-28
5.85158e-28
1.9461e-28
3.3646e-28
-1.59151e-23
-7.22143e-24
3.95776e-25
-6.16366e-26
2.37033e-26
-2.34928e-27
-3.27114e-28
-1.30886e-27
-1.99272e-29
9.84824e-29
-1.42222e-28
-3.41628e-28
0
0
5.71688e-28
1.77368e-28
6.10467e-29
0
-4.99521e-28
-1.41176e-27
-5.14992e-24
-2.17304e-24
-8.57642e-26
4.7972e-26
-4.26349e-27
-1.31816e-27
-2.53869e-27
1.26351e-28
-2.13068e-28
3.49104e-28
6.01932e-28
-8.78415e-28
-1.37115e-27
-1.71728e-28
1.38515e-27
9.16711e-28
2.47687e-28
4.39796e-28
-1.42677e-27
-9.24736e-28
2.61483e-24
3.36613e-25
-5.31392e-26
6.02835e-27
3.52441e-28
5.12819e-28
0
1.27453e-27
5.77401e-29
0
0
0
-2.00057e-28
0
-4.33428e-28
-3.05129e-28
8.74437e-28
8.43088e-28
-2.81857e-28
-7.00841e-28
3.57342e-24
5.87282e-26
5.86802e-26
2.53752e-27
-4.35477e-28
1.03082e-27
-7.87011e-28
-4.51988e-28
-2.03581e-28
-4.66381e-28
2.18029e-28
-2.55608e-28
-2.42174e-29
-3.81608e-28
-1.93129e-28
-4.70089e-28
7.15978e-28
6.9746e-28
-3.60284e-28
0
3.67211e-24
1.18867e-25
1.55096e-25
-9.51503e-27
-3.59851e-29
-2.86994e-27
2.16108e-28
2.52451e-27
1.789e-27
-1.1087e-28
1.44452e-28
0
1.15121e-27
9.14957e-29
-7.14336e-28
-7.20498e-28
9.70372e-29
6.89555e-28
-9.81049e-28
0
2.21467e-24
2.87126e-25
4.79156e-27
3.14299e-27
7.31898e-28
9.7381e-28
-1.5184e-27
7.0562e-28
0
-3.28391e-28
6.80158e-28
8.93617e-28
0
0
1.19818e-28
0
1.25173e-27
4.07999e-28
-2.90389e-28
0
1.41767e-24
-3.8096e-26
4.36102e-26
8.73325e-28
1.214e-27
-7.43425e-28
0
-6.36158e-28
0
-6.23434e-28
4.41379e-29
-5.43816e-28
-2.55981e-28
-8.11741e-29
-4.33134e-28
-1.19792e-29
2.50054e-27
2.78245e-28
-4.19901e-28
-3.74572e-28
2.07592e-24
2.28983e-25
5.12254e-26
0
-1.39048e-28
-1.61385e-27
-2.54546e-28
0
8.02124e-28
1.49731e-27
-1.02671e-28
-7.51415e-28
6.50286e-29
9.73632e-28
-1.69636e-27
-2.42693e-27
-3.01342e-28
-1.98806e-27
-1.37483e-28
-2.41769e-29
1.81374e-24
2.70282e-25
3.98267e-26
-5.20586e-27
4.11136e-28
-2.82527e-28
3.92277e-27
1.80586e-28
-2.63733e-27
9.74893e-29
3.58166e-28
-2.55229e-27
-1.45715e-27
1.7908e-27
-6.72669e-28
-5.53049e-28
4.64629e-28
0
2.50143e-28
0
2.83916e-24
6.09855e-25
2.31466e-26
-4.69151e-28
7.91734e-28
3.911e-28
3.41725e-27
2.25233e-27
-1.55209e-28
-6.76193e-28
2.30339e-28
-2.23722e-28
-1.04565e-28
-3.76923e-28
-6.8614e-28
-3.22287e-28
-2.80481e-28
0
-5.05451e-28
0
6.06261e-24
1.19575e-24
3.22159e-26
1.24339e-27
4.01263e-28
-1.06514e-28
4.70205e-28
-1.0015e-27
-5.23429e-27
-9.68986e-30
2.88199e-28
-3.28805e-28
-2.29858e-28
7.77643e-28
1.36667e-27
1.08295e-27
1.59808e-28
0
-8.09882e-28
0
6.22911e-24
9.96774e-25
7.43059e-26
-7.66322e-27
3.43559e-27
1.37173e-28
1.92307e-27
9.46043e-28
-6.6813e-28
-1.23282e-27
-5.0125e-28
-1.71721e-28
-6.29485e-28
6.24664e-29
-3.56341e-28
-6.13064e-28
-1.71681e-28
-7.63331e-28
1.40979e-28
0
4.19798e-24
6.59089e-25
1.86925e-25
-2.881e-28
0
-6.47639e-28
1.0654e-27
1.50166e-27
1.03209e-27
1.54488e-28
0
1.89205e-28
4.52234e-28
0
5.54224e-28
4.85943e-28
0
0
-9.76921e-29
-2.65696e-28
6.65514e-25
-1.51756e-25
1.07735e-25
-5.21325e-27
-4.77407e-28
-1.77669e-27
-5.37709e-28
-1.36157e-28
-9.45985e-28
0
0
4.20234e-28
8.84213e-28
-1.93529e-27
-1.80684e-27
-5.28685e-28
1.35062e-28
-8.81264e-28
-8.00257e-29
0
-1.77278e-24
-5.85991e-25
-4.61329e-26
1.55875e-27
5.05464e-28
-5.51543e-28
8.62847e-28
1.25482e-28
-1.04027e-28
-4.95882e-28
-2.35426e-28
5.70277e-28
2.59418e-27
0
3.7582e-28
8.6648e-29
-4.33578e-29
-5.60388e-28
-4.6816e-28
0
-1.40186e-24
-9.73014e-25
8.91332e-26
-1.22127e-26
2.49534e-27
-1.17822e-27
-4.54788e-28
3.8109e-28
1.20414e-28
5.7473e-28
5.62179e-28
-9.6605e-28
-1.03029e-27
-1.32871e-27
1.20436e-27
2.95176e-27
1.759e-27
-1.15368e-27
0
4.07231e-28
1.17179e-24
-2.94386e-25
-4.03254e-27
6.70956e-27
9.43842e-28
7.47671e-29
5.52737e-28
-3.20778e-28
-1.40148e-28
4.53466e-28
-6.88936e-29
-4.15282e-28
-6.86917e-28
-1.89645e-28
3.49964e-28
3.93241e-28
7.02407e-29
-3.41908e-27
1.33943e-28
-1.1039e-28
9.43368e-25
-2.19008e-25
9.19188e-27
1.1614e-26
-1.08207e-27
6.48307e-28
-4.72111e-28
0
-1.04161e-29
-4.01382e-28
-4.96347e-28
-3.17077e-28
2.72681e-28
1.04602e-28
0
0
-4.24766e-28
-4.77676e-28
-1.03908e-27
-8.3309e-29
)
;

boundaryField
{
    movingWall
    {
        type            calculated;
        value           nonuniform List<scalar> 
20
(
2.18614e-24
1.52006e-24
-5.20423e-25
9.10294e-26
-1.34758e-26
3.71765e-27
-4.07849e-27
-1.57596e-27
-1.02394e-28
-9.46645e-28
-5.65994e-28
-2.77168e-29
4.46761e-28
3.4276e-28
-1.16047e-27
-1.31247e-27
-1.76594e-27
-1.11737e-27
-1.70243e-27
-1.36494e-28
)
;
    }
    fixedWalls
    {
        type            calculated;
        value           nonuniform List<scalar> 
60
(
-4.12564e-23
-8.92828e-23
-8.09192e-23
-3.022e-23
6.40091e-24
1.61147e-23
1.729e-23
7.63443e-24
5.87184e-24
1.00697e-23
8.85987e-24
1.2325e-23
2.80969e-23
2.99314e-23
2.12888e-23
3.49408e-24
-1.17798e-23
-7.06524e-24
8.85458e-25
1.6338e-24
0
2.17e-28
-1.6731e-27
-1.24207e-27
-1.20998e-27
0
0
0
-2.61077e-28
5.11126e-29
0
0
0
0
0
0
0
2.35242e-28
-1.80863e-28
-1.42696e-28
4.22428e-24
3.74024e-24
-7.72116e-25
8.4995e-26
-8.10885e-27
-7.80332e-29
-3.78337e-27
-1.21833e-27
2.39997e-28
5.44319e-28
-2.60649e-27
-2.15063e-27
2.66803e-28
-5.15303e-28
-3.2867e-27
-2.44949e-27
-1.08297e-27
-5.51053e-28
-1.28394e-27
0
)
;
    }
    frontAndBack
    {
        type            empty;
    }
}


// ************************************************************************* //
