/*--------------------------------*- C++ -*----------------------------------*\
| =========                 |                                                 |
| \\      /  F ield         | OpenFOAM: The Open Source CFD Toolbox           |
|  \\    /   O peration     | Version:  2506                                  |
|   \\  /    A nd           | Website:  www.openfoam.com                      |
|    \\/     M anipulation  |                                                 |
\*---------------------------------------------------------------------------*/
FoamFile
{
    version     2.0;
    format      ascii;
    arch        "LSB;label=32;scalar=64";
    class       volVectorField;
    location    "5.625";
    object      vorticityField;
}
// * * * * * * * * * * * * * * * * * * * * * * * * * * * * * * * * * * * * * //

dimensions      [0 0 -1 0 0 0 0];

internalField   nonuniform List<vector> 
400
(
(0 -0 5.54973e-12)
(0 -0 -6.87112e-12)
(0 -0 1.48262e-12)
(0 -0 -3.78467e-13)
(0 -0 8.79701e-14)
(0 -0 -3.05368e-15)
(0 -0 1.14766e-14)
(0 -0 1.58564e-15)
(0 -0 -8.53667e-15)
(0 -0 4.96794e-14)
(0 -0 1.17386e-14)
(0 -0 6.47624e-14)
(0 -0 -3.00393e-15)
(0 -0 -5.84031e-14)
(0 -0 -4.18225e-15)
(0 -0 6.99705e-14)
(0 -0 -1.06796e-14)
(0 -0 -6.2043e-15)
(0 -0 5.79285e-14)
(0 -0 1.03999e-14)
(0 -0 1.83254e-12)
(0 -0 -3.16193e-12)
(0 -0 9.02784e-13)
(0 -0 -4.03376e-15)
(0 -0 1.66172e-13)
(0 -0 1.19693e-13)
(0 -0 9.52779e-14)
(0 -0 1.45088e-13)
(0 -0 6.79563e-14)
(0 -0 7.32959e-14)
(0 -0 9.19164e-14)
(0 -0 3.42073e-14)
(0 -0 6.52649e-14)
(0 -0 6.82745e-14)
(0 -0 4.59063e-14)
(0 -0 -3.08228e-14)
(0 -0 -1.43863e-14)
(0 -0 5.86185e-14)
(0 -0 3.42849e-14)
(0 -0 6.04167e-14)
(0 -0 -5.63218e-12)
(0 -0 8.64445e-12)
(0 -0 -2.24659e-12)
(0 -0 3.43883e-13)
(0 -0 -3.20193e-13)
(0 -0 -1.21782e-13)
(0 -0 -1.50367e-14)
(0 -0 -6.5219e-14)
(0 -0 -8.10701e-14)
(0 -0 -8.78868e-14)
(0 -0 -3.45668e-14)
(0 -0 -7.9818e-14)
(0 -0 2.29033e-14)
(0 -0 1.88874e-14)
(0 -0 -9.67839e-15)
(0 -0 -4.96605e-14)
(0 -0 -1.30104e-14)
(0 -0 -3.24595e-15)
(0 -0 -1.9393e-14)
(0 -0 -3.39486e-14)
(0 -0 5.33113e-12)
(0 -0 -5.97004e-12)
(0 -0 1.2862e-12)
(0 -0 -4.77537e-13)
(0 -0 -2.88835e-14)
(0 -0 -7.78308e-14)
(0 -0 -9.11674e-14)
(0 -0 -8.2869e-14)
(0 -0 -5.38399e-14)
(0 -0 -1.1164e-13)
(0 -0 -1.13972e-13)
(0 -0 -4.63155e-14)
(0 -0 -6.94292e-14)
(0 -0 -2.85702e-14)
(0 -0 -9.83495e-14)
(0 -0 -1.20404e-13)
(0 -0 -5.87791e-14)
(0 -0 -1.12477e-13)
(0 -0 -1.00827e-13)
(0 -0 -4.40051e-15)
(0 -0 -3.05661e-12)
(0 -0 1.47236e-12)
(0 -0 -3.09317e-13)
(0 -0 8.40809e-14)
(0 -0 8.21709e-15)
(0 -0 4.60247e-14)
(0 -0 -1.49019e-15)
(0 -0 -9.69891e-14)
(0 -0 -5.52752e-14)
(0 -0 1.35687e-14)
(0 -0 4.93643e-15)
(0 -0 3.40589e-15)
(0 -0 -2.86211e-14)
(0 -0 -1.052e-14)
(0 -0 1.11144e-14)
(0 -0 4.96001e-14)
(0 -0 7.03406e-14)
(0 -0 6.97623e-14)
(0 -0 5.83065e-14)
(0 -0 1.36896e-14)
(0 -0 -1.99767e-12)
(0 -0 2.67538e-12)
(0 -0 -6.37497e-13)
(0 -0 1.43665e-13)
(0 -0 4.6177e-14)
(0 -0 7.32254e-14)
(0 -0 -8.24285e-15)
(0 -0 2.64599e-14)
(0 -0 3.89627e-14)
(0 -0 3.50792e-14)
(0 -0 -2.77891e-14)
(0 -0 2.16059e-15)
(0 -0 2.62116e-14)
(0 -0 -3.81299e-14)
(0 -0 -4.51246e-14)
(0 -0 -3.92418e-14)
(0 -0 9.08192e-14)
(0 -0 6.95613e-14)
(0 -0 6.22087e-14)
(0 -0 -8.32788e-15)
(0 -0 4.60834e-12)
(0 -0 -3.9469e-12)
(0 -0 9.55174e-13)
(0 -0 -1.16602e-13)
(0 -0 9.14965e-14)
(0 -0 2.27017e-14)
(0 -0 1.15674e-13)
(0 -0 1.14045e-13)
(0 -0 1.00855e-13)
(0 -0 1.0998e-13)
(0 -0 8.30916e-14)
(0 -0 7.29528e-15)
(0 -0 9.54725e-14)
(0 -0 3.04806e-14)
(0 -0 7.50709e-16)
(0 -0 -5.47626e-14)
(0 -0 -3.06851e-14)
(0 -0 -1.18966e-15)
(0 -0 -5.29096e-14)
(0 -0 8.99565e-15)
(0 -0 -1.47165e-12)
(0 -0 1.10203e-12)
(0 -0 -2.03882e-13)
(0 -0 2.37936e-14)
(0 -0 -9.30946e-14)
(0 -0 -7.21737e-14)
(0 -0 8.13765e-15)
(0 -0 6.72265e-14)
(0 -0 6.57921e-15)
(0 -0 -1.49896e-14)
(0 -0 7.39938e-14)
(0 -0 6.65708e-14)
(0 -0 2.08694e-15)
(0 -0 4.72026e-15)
(0 -0 -4.01754e-15)
(0 -0 -1.97946e-14)
(0 -0 -8.45457e-14)
(0 -0 -9.78078e-14)
(0 -0 -1.63916e-14)
(0 -0 1.84739e-14)
(0 -0 -2.05149e-12)
(0 -0 1.95245e-12)
(0 -0 -5.10653e-13)
(0 -0 9.00966e-14)
(0 -0 -7.66045e-14)
(0 -0 1.2548e-14)
(0 -0 2.65028e-15)
(0 -0 -7.07869e-16)
(0 -0 7.49316e-15)
(0 -0 -4.27098e-14)
(0 -0 8.22739e-15)
(0 -0 4.92017e-14)
(0 -0 -5.29291e-14)
(0 -0 2.27142e-14)
(0 -0 -1.11252e-14)
(0 -0 -2.26225e-14)
(0 -0 -1.00337e-13)
(0 -0 -3.73705e-14)
(0 -0 1.93943e-14)
(0 -0 -1.71601e-14)
(0 -0 2.91621e-12)
(0 -0 -2.17766e-12)
(0 -0 5.13502e-13)
(0 -0 -8.08187e-14)
(0 -0 4.78681e-14)
(0 -0 -2.25449e-14)
(0 -0 -3.10249e-14)
(0 -0 -7.95031e-15)
(0 -0 6.90067e-14)
(0 -0 9.97288e-14)
(0 -0 4.036e-14)
(0 -0 3.33979e-14)
(0 -0 6.33487e-14)
(0 -0 1.174e-13)
(0 -0 -5.80785e-16)
(0 -0 4.47609e-14)
(0 -0 1.59875e-14)
(0 -0 4.54858e-14)
(0 -0 2.20328e-14)
(0 -0 2.62131e-14)
(0 -0 -2.06257e-12)
(0 -0 1.73594e-12)
(0 -0 -4.38816e-13)
(0 -0 2.97633e-14)
(0 -0 -2.17083e-14)
(0 -0 -5.81641e-14)
(0 -0 -1.6447e-13)
(0 -0 -1.44624e-13)
(0 -0 -7.63726e-14)
(0 -0 -1.14963e-13)
(0 -0 -8.57198e-14)
(0 -0 -8.84467e-14)
(0 -0 -6.33954e-14)
(0 -0 -1.24937e-13)
(0 -0 -4.60762e-14)
(0 -0 -4.40081e-14)
(0 -0 4.42468e-14)
(0 -0 -2.95739e-15)
(0 -0 -3.63337e-14)
(0 -0 1.77888e-15)
(0 -0 1.82058e-12)
(0 -0 -1.13086e-12)
(0 -0 2.3299e-13)
(0 -0 8.64051e-14)
(0 -0 1.16881e-13)
(0 -0 1.12027e-13)
(0 -0 1.61662e-13)
(0 -0 1.09014e-13)
(0 -0 2.56465e-14)
(0 -0 2.15793e-15)
(0 -0 -2.35889e-14)
(0 -0 -3.86807e-15)
(0 -0 3.87664e-14)
(0 -0 -6.28542e-16)
(0 -0 5.21145e-14)
(0 -0 3.7588e-14)
(0 -0 1.01324e-14)
(0 -0 2.48018e-15)
(0 -0 1.89069e-14)
(0 -0 -1.49976e-14)
(0 -0 -5.15438e-13)
(0 -0 -5.6901e-13)
(0 -0 1.9977e-13)
(0 -0 2.76772e-14)
(0 -0 4.1909e-14)
(0 -0 2.31754e-14)
(0 -0 3.7594e-14)
(0 -0 5.18539e-14)
(0 -0 4.42205e-14)
(0 -0 5.40314e-14)
(0 -0 5.95264e-14)
(0 -0 7.72716e-14)
(0 -0 4.997e-14)
(0 -0 9.08785e-14)
(0 -0 9.86233e-14)
(0 -0 1.18409e-13)
(0 -0 5.7158e-14)
(0 -0 -2.85564e-15)
(0 -0 -1.5528e-14)
(0 -0 -1.05509e-14)
(0 -0 -2.99723e-12)
(0 -0 3.21511e-12)
(0 -0 -7.2371e-13)
(0 -0 6.21435e-14)
(0 -0 -1.32401e-13)
(0 -0 -1.34933e-13)
(0 -0 -1.51008e-13)
(0 -0 -1.17146e-13)
(0 -0 -7.63456e-14)
(0 -0 -6.99386e-14)
(0 -0 -4.49637e-14)
(0 -0 -7.92034e-14)
(0 -0 -8.66174e-14)
(0 -0 -5.53624e-14)
(0 -0 -7.88328e-14)
(0 -0 -2.26124e-14)
(0 -0 -5.10432e-14)
(0 -0 -3.2071e-14)
(0 -0 -3.23062e-14)
(0 -0 9.26914e-15)
(0 -0 4.89005e-12)
(0 -0 -4.2305e-12)
(0 -0 1.02521e-12)
(0 -0 -2.48592e-13)
(0 -0 3.13886e-14)
(0 -0 2.99624e-14)
(0 -0 1.18778e-13)
(0 -0 1.22271e-13)
(0 -0 1.1794e-13)
(0 -0 2.57267e-14)
(0 -0 3.79142e-15)
(0 -0 3.40855e-14)
(0 -0 8.68767e-14)
(0 -0 -4.30234e-15)
(0 -0 -4.75523e-14)
(0 -0 -8.72912e-14)
(0 -0 4.50938e-15)
(0 -0 2.53419e-15)
(0 -0 3.2053e-14)
(0 -0 -9.58785e-15)
(0 -0 -3.00216e-12)
(0 -0 2.47916e-12)
(0 -0 -7.29607e-13)
(0 -0 6.06334e-14)
(0 -0 -3.45099e-14)
(0 -0 -1.07807e-14)
(0 -0 -4.51973e-14)
(0 -0 -5.15448e-14)
(0 -0 -8.03878e-14)
(0 -0 1.6929e-15)
(0 -0 6.65515e-15)
(0 -0 6.19621e-14)
(0 -0 -1.00677e-15)
(0 -0 -3.07359e-15)
(0 -0 -2.10767e-15)
(0 -0 -2.82437e-14)
(0 -0 -5.2097e-14)
(0 -0 -2.54374e-14)
(0 -0 1.46304e-15)
(0 -0 -9.08547e-15)
(0 -0 -5.92633e-13)
(0 -0 4.88227e-13)
(0 -0 -5.21087e-14)
(0 -0 8.2964e-14)
(0 -0 4.57534e-14)
(0 -0 6.75672e-15)
(0 -0 -6.86183e-14)
(0 -0 -4.02126e-15)
(0 -0 2.21931e-15)
(0 -0 -8.81025e-15)
(0 -0 1.37089e-14)
(0 -0 -6.71544e-14)
(0 -0 -1.13917e-13)
(0 -0 -1.02117e-14)
(0 -0 5.26795e-14)
(0 -0 2.08487e-14)
(0 -0 3.67152e-14)
(0 -0 -3.54658e-15)
(0 -0 -1.3199e-14)
(0 -0 -5.38734e-15)
(0 -0 2.50441e-12)
(0 -0 -3.22255e-12)
(0 -0 8.06038e-13)
(0 -0 -5.36775e-14)
(0 -0 1.18275e-13)
(0 -0 6.68256e-14)
(0 -0 1.3217e-13)
(0 -0 8.48013e-14)
(0 -0 1.36414e-13)
(0 -0 1.14961e-13)
(0 -0 8.82287e-14)
(0 -0 -3.03193e-15)
(0 -0 7.52728e-15)
(0 -0 4.15256e-14)
(0 -0 9.61262e-14)
(0 -0 1.57305e-13)
(0 -0 1.28011e-13)
(0 -0 1.07514e-13)
(0 -0 -2.1909e-14)
(0 -0 -4.21292e-14)
(0 -0 -4.60236e-13)
(0 -0 6.42524e-13)
(0 -0 -1.82352e-13)
(0 -0 -7.71072e-14)
(0 -0 -1.17126e-13)
(0 -0 -1.0911e-13)
(0 -0 -1.14273e-13)
(0 -0 -8.33802e-14)
(0 -0 -1.61769e-13)
(0 -0 -1.12603e-13)
(0 -0 -8.04679e-14)
(0 -0 1.59523e-14)
(0 -0 -1.82349e-14)
(0 -0 -8.85274e-14)
(0 -0 -8.83881e-14)
(0 -0 -8.61512e-14)
(0 -0 -8.2179e-14)
(0 -0 -4.66451e-14)
(0 -0 6.46926e-14)
(0 -0 -7.24225e-15)
(0 -0 -4.99813e-12)
(0 -0 6.10915e-12)
(0 -0 -1.24629e-12)
(0 -0 3.19059e-13)
(0 -0 -2.86696e-14)
(0 -0 6.61693e-14)
(0 -0 1.42712e-14)
(0 -0 -7.09748e-15)
(0 -0 2.67208e-14)
(0 -0 2.6722e-14)
(0 -0 1.88004e-15)
(0 -0 4.72913e-15)
(0 -0 3.71652e-14)
(0 -0 3.09642e-14)
(0 -0 -8.7105e-15)
(0 -0 -9.85141e-15)
(0 -0 -8.20813e-15)
(0 -0 6.39495e-15)
(0 -0 -3.50424e-14)
(0 -0 2.40315e-14)
)
;

boundaryField
{
    movingWall
    {
        type            calculated;
        value           nonuniform List<vector> 
20
(
(0 -0 -4.3614e-12)
(0 -0 6.34099e-12)
(0 -0 -8.02196e-13)
(0 -0 5.58408e-13)
(0 -0 2.10679e-13)
(0 -0 3.22822e-13)
(0 -0 2.98029e-13)
(0 -0 2.14947e-13)
(0 -0 2.66069e-13)
(0 -0 2.21662e-13)
(0 -0 1.79516e-13)
(0 -0 1.37956e-13)
(0 -0 5.44691e-14)
(0 -0 9.2677e-14)
(0 -0 1.24516e-13)
(0 -0 1.23375e-13)
(0 -0 8.06097e-14)
(0 -0 5.08039e-14)
(0 -0 -6.96502e-14)
(0 -0 4.13354e-14)
)
;
    }
    fixedWalls
    {
        type            calculated;
        value           nonuniform List<vector> 
60
(
(0 -0 2.92271e-11)
(0 -0 1.41035e-11)
(0 -0 -3.76294e-11)
(0 -0 2.53907e-11)
(0 -0 -6.22473e-12)
(0 -0 -1.19446e-11)
(0 -0 1.7479e-11)
(0 -0 -4.64718e-12)
(0 -0 -8.88982e-12)
(0 -0 9.80403e-12)
(0 -0 -7.70602e-12)
(0 -0 5.02831e-12)
(0 -0 2.4794e-12)
(0 -0 -1.37376e-11)
(0 -0 1.82316e-11)
(0 -0 -1.11674e-11)
(0 -0 -1.97785e-12)
(0 -0 1.41293e-11)
(0 -0 -3.08712e-12)
(0 -0 -2.57097e-11)
(0 -0 1.1823e-14)
(0 -0 5.8213e-14)
(0 -0 -3.28183e-14)
(0 -0 2.14627e-17)
(0 -0 2.84804e-15)
(0 -0 -2.26376e-14)
(0 -0 6.80886e-15)
(0 -0 1.7383e-14)
(0 -0 -2.38207e-14)
(0 -0 2.89908e-14)
(0 -0 5.98059e-15)
(0 -0 -1.75664e-14)
(0 -0 -1.53977e-15)
(0 -0 1.97416e-14)
(0 -0 -1.71877e-14)
(0 -0 -1.94683e-14)
(0 -0 -6.29047e-15)
(0 -0 -3.57839e-14)
(0 -0 -2.31384e-14)
(0 -0 2.1355e-15)
(0 -0 8.65545e-12)
(0 -0 -8.23279e-12)
(0 -0 1.16195e-12)
(0 -0 -5.73406e-13)
(0 -0 -7.23618e-14)
(0 -0 -2.25098e-13)
(0 -0 -2.54977e-13)
(0 -0 -2.20459e-13)
(0 -0 -1.41763e-13)
(0 -0 -1.37758e-13)
(0 -0 -2.10306e-13)
(0 -0 -7.82656e-14)
(0 -0 -9.18218e-14)
(0 -0 -9.30108e-14)
(0 -0 -4.18225e-15)
(0 -0 1.66291e-13)
(0 -0 7.81382e-14)
(0 -0 8.26135e-14)
(0 -0 9.25362e-14)
(0 -0 1.03999e-14)
)
;
    }
    frontAndBack
    {
        type            empty;
    }
}


// ************************************************************************* //
