/*--------------------------------*- C++ -*----------------------------------*\
| =========                 |                                                 |
| \\      /  F ield         | OpenFOAM: The Open Source CFD Toolbox           |
|  \\    /   O peration     | Version:  2506                                  |
|   \\  /    A nd           | Website:  www.openfoam.com                      |
|    \\/     M anipulation  |                                                 |
\*---------------------------------------------------------------------------*/
FoamFile
{
    version     2.0;
    format      ascii;
    arch        "LSB;label=32;scalar=64";
    class       volVectorField;
    location    "5.625";
    object      zeroGradient(U);
}
// * * * * * * * * * * * * * * * * * * * * * * * * * * * * * * * * * * * * * //

dimensions      [0 1 -1 0 0 0 0];

internalField   nonuniform List<vector> 
400
(
(-1 7.39486e-14 0)
(-1 -1.49276e-14 0)
(-1 3.61106e-15 0)
(-1 -6.43518e-16 0)
(-1 9.74431e-17 0)
(-1 -3.48683e-17 0)
(-1 6.69063e-17 0)
(-1 7.98974e-17 0)
(-1 8.27627e-17 0)
(-1 -5.46926e-18 0)
(-1 3.74552e-17 0)
(-1 1.11916e-16 0)
(-1 1.42978e-16 0)
(-1 8.18771e-17 0)
(-1 1.01048e-16 0)
(-1 4.00546e-17 0)
(-1 -1.23987e-17 0)
(-1 -6.67416e-17 0)
(-1 -7.44417e-17 0)
(-1 -2.95575e-17 0)
(-1 3.80371e-14 0)
(-1 -8.59866e-15 0)
(-1 2.081e-15 0)
(-1 -3.83973e-16 0)
(-1 1.43306e-16 0)
(-1 -7.75039e-17 0)
(-1 -1.50139e-17 0)
(-1 6.21231e-17 0)
(-1 8.06105e-17 0)
(-1 -7.14652e-17 0)
(-1 4.18082e-19 0)
(-1 3.45476e-17 0)
(-1 7.14409e-17 0)
(-1 1.45095e-16 0)
(-1 2.12085e-16 0)
(-1 6.20568e-17 0)
(-1 -9.61429e-17 0)
(-1 -8.18059e-17 0)
(-1 -5.20585e-17 0)
(-1 -1.00073e-17 0)
(-1 -9.94267e-14 0)
(-1 2.16919e-14 0)
(-1 -5.12173e-15 0)
(-1 1.12332e-15 0)
(-1 -3.27645e-16 0)
(-1 -1.81261e-16 0)
(-1 -1.90212e-16 0)
(-1 -6.05779e-17 0)
(-1 -2.9251e-17 0)
(-1 -5.81273e-17 0)
(-1 -9.49671e-17 0)
(-1 -1.32744e-16 0)
(-1 -7.99956e-17 0)
(-1 9.62885e-17 0)
(-1 1.08878e-16 0)
(-1 -4.9538e-19 0)
(-1 -1.16676e-16 0)
(-1 -1.306e-16 0)
(-1 -1.49136e-16 0)
(-1 -5.34796e-17 0)
(-1 6.25282e-14 0)
(-1 -1.30115e-14 0)
(-1 3.09883e-15 0)
(-1 -6.91605e-16 0)
(-1 -5.02322e-17 0)
(-1 -1.67288e-16 0)
(-1 -1.53881e-17 0)
(-1 5.24026e-18 0)
(-1 -3.09266e-17 0)
(-1 8.94204e-18 0)
(-1 -6.31258e-17 0)
(-1 -4.65764e-17 0)
(-1 1.58206e-17 0)
(-1 7.22829e-17 0)
(-1 1.16924e-18 0)
(-1 -9.80604e-17 0)
(-1 -1.18665e-16 0)
(-1 -1.43751e-16 0)
(-1 -1.59229e-16 0)
(-1 -6.78163e-17 0)
(-1 -1.00053e-14 0)
(-1 1.66538e-15 0)
(-1 -4.31621e-16 0)
(-1 -7.25413e-17 0)
(-1 -1.32913e-16 0)
(-1 9.62958e-18 0)
(-1 5.62834e-17 0)
(-1 -5.27233e-18 0)
(-1 -1.00456e-16 0)
(-1 -1.59235e-17 0)
(-1 3.52312e-17 0)
(-1 3.34408e-17 0)
(-1 6.92901e-17 0)
(-1 1.82807e-17 0)
(-1 -3.591e-17 0)
(-1 -1.41626e-16 0)
(-1 -8.20104e-17 0)
(-1 1.9679e-17 0)
(-1 7.35118e-17 0)
(-1 6.06425e-17 0)
(-1 -3.10813e-14 0)
(-1 6.22564e-15 0)
(-1 -1.61691e-15 0)
(-1 1.21722e-16 0)
(-1 -1.8026e-16 0)
(-1 4.13911e-17 0)
(-1 9.89267e-18 0)
(-1 -4.10374e-17 0)
(-1 3.44133e-18 0)
(-1 7.75387e-17 0)
(-1 8.31827e-17 0)
(-1 7.06981e-17 0)
(-1 1.04789e-16 0)
(-1 6.17635e-17 0)
(-1 -5.45941e-18 0)
(-1 -1.18432e-16 0)
(-1 -1.26827e-16 0)
(-1 -2.33916e-17 0)
(-1 2.66849e-17 0)
(-1 5.65939e-17 0)
(-1 4.0445e-14 0)
(-1 -7.37206e-15 0)
(-1 1.78913e-15 0)
(-1 -2.59777e-16 0)
(-1 8.10117e-17 0)
(-1 -1.57964e-16 0)
(-1 -2.34072e-16 0)
(-1 -8.54237e-17 0)
(-1 9.32287e-17 0)
(-1 1.09979e-16 0)
(-1 1.08829e-16 0)
(-1 1.27744e-16 0)
(-1 1.81782e-16 0)
(-1 2.69317e-16 0)
(-1 2.15538e-16 0)
(-1 5.77364e-18 0)
(-1 -6.10378e-17 0)
(-1 -3.00268e-17 0)
(-1 -7.29344e-17 0)
(-1 -1.70222e-17 0)
(-1 -9.92387e-15 0)
(-1 1.98368e-15 0)
(-1 -2.58837e-16 0)
(-1 2.15909e-16 0)
(-1 -2.09014e-17 0)
(-1 -1.72936e-16 0)
(-1 -2.00538e-16 0)
(-1 -9.15593e-17 0)
(-1 -7.03738e-17 0)
(-1 -2.57672e-17 0)
(-1 5.0781e-17 0)
(-1 1.7207e-16 0)
(-1 1.74388e-16 0)
(-1 1.92939e-16 0)
(-1 2.2159e-16 0)
(-1 1.52764e-16 0)
(-1 2.36443e-17 0)
(-1 -1.50592e-16 0)
(-1 -1.41282e-16 0)
(-1 -4.34574e-17 0)
(-1 -2.14114e-14 0)
(-1 4.14907e-15 0)
(-1 -1.07379e-15 0)
(-1 1.26742e-16 0)
(-1 -1.72822e-16 0)
(-1 -9.72013e-17 0)
(-1 -4.73421e-17 0)
(-1 -7.06985e-17 0)
(-1 -5.44208e-17 0)
(-1 4.23304e-18 0)
(-1 6.05824e-17 0)
(-1 8.6507e-17 0)
(-1 1.04984e-17 0)
(-1 9.93171e-17 0)
(-1 2.3764e-16 0)
(-1 2.59115e-16 0)
(-1 1.14155e-17 0)
(-1 -2.02154e-16 0)
(-1 -9.12386e-17 0)
(-1 -8.21089e-18 0)
(-1 2.1664e-14 0)
(-1 -3.88605e-15 0)
(-1 9.71643e-16 0)
(-1 -1.06291e-16 0)
(-1 1.63455e-16 0)
(-1 1.0134e-16 0)
(-1 -6.19941e-17 0)
(-1 -2.0891e-16 0)
(-1 -1.41497e-16 0)
(-1 -6.09441e-17 0)
(-1 4.2639e-17 0)
(-1 7.16053e-17 0)
(-1 1.05567e-16 0)
(-1 1.62991e-16 0)
(-1 1.95369e-16 0)
(-1 1.57184e-16 0)
(-1 1.00877e-16 0)
(-1 4.60079e-17 0)
(-1 1.3634e-17 0)
(-1 -4.71431e-18 0)
(-1 -1.7571e-14 0)
(-1 3.72154e-15 0)
(-1 -7.53626e-16 0)
(-1 1.46534e-16 0)
(-1 8.61082e-17 0)
(-1 2.00502e-16 0)
(-1 4.65687e-17 0)
(-1 -8.89481e-17 0)
(-1 -4.44165e-17 0)
(-1 -3.95223e-17 0)
(-1 -1.09846e-16 0)
(-1 -8.35689e-17 0)
(-1 8.98889e-17 0)
(-1 9.56288e-17 0)
(-1 -7.5283e-17 0)
(-1 -9.40828e-17 0)
(-1 2.67366e-17 0)
(-1 7.7335e-17 0)
(-1 -2.83736e-18 0)
(-1 -1.49515e-17 0)
(-1 1.01313e-14 0)
(-1 -1.68332e-15 0)
(-1 1.77957e-16 0)
(-1 -1.6658e-16 0)
(-1 -4.21947e-17 0)
(-1 -8.19734e-17 0)
(-1 -6.12206e-18 0)
(-1 1.79392e-16 0)
(-1 2.70865e-16 0)
(-1 1.64806e-16 0)
(-1 2.13938e-17 0)
(-1 -7.10832e-17 0)
(-1 -1.72869e-17 0)
(-1 4.55299e-17 0)
(-1 -2.35723e-17 0)
(-1 2.45739e-17 0)
(-1 8.12576e-17 0)
(-1 1.25898e-16 0)
(-1 1.06059e-16 0)
(-1 4.39161e-17 0)
(-1 8.97677e-15 0)
(-1 -3.01808e-15 0)
(-1 5.7616e-16 0)
(-1 -2.07226e-16 0)
(-1 3.97804e-17 0)
(-1 -5.9186e-17 0)
(-1 4.83767e-19 0)
(-1 4.57032e-17 0)
(-1 -2.30784e-17 0)
(-1 -5.41932e-17 0)
(-1 -2.48659e-17 0)
(-1 -1.02989e-18 0)
(-1 -6.53018e-17 0)
(-1 -4.34311e-17 0)
(-1 3.03314e-17 0)
(-1 1.2965e-16 0)
(-1 1.30216e-16 0)
(-1 1.59129e-16 0)
(-1 1.01659e-16 0)
(-1 3.84943e-18 0)
(-1 -3.33953e-14 0)
(-1 7.21771e-15 0)
(-1 -1.51522e-15 0)
(-1 5.22711e-16 0)
(-1 -8.06348e-17 0)
(-1 1.18556e-17 0)
(-1 -7.47079e-17 0)
(-1 -1.42973e-16 0)
(-1 -1.61965e-16 0)
(-1 -9.32771e-17 0)
(-1 -4.81992e-17 0)
(-1 -8.12671e-19 0)
(-1 -2.70812e-17 0)
(-1 -5.38351e-17 0)
(-1 -3.86042e-17 0)
(-1 -2.90117e-17 0)
(-1 6.32229e-18 0)
(-1 2.65786e-18 0)
(-1 -4.33373e-17 0)
(-1 -4.9354e-17 0)
(-1 4.17166e-14 0)
(-1 -8.26597e-15 0)
(-1 1.85107e-15 0)
(-1 -4.53314e-16 0)
(-1 -9.27475e-17 0)
(-1 -1.39429e-16 0)
(-1 -6.41738e-17 0)
(-1 -3.58539e-17 0)
(-1 7.43302e-17 0)
(-1 5.93395e-17 0)
(-1 6.05469e-17 0)
(-1 9.72537e-17 0)
(-1 1.30351e-16 0)
(-1 1.52869e-16 0)
(-1 8.73279e-17 0)
(-1 -5.16039e-17 0)
(-1 2.75674e-17 0)
(-1 -6.51014e-18 0)
(-1 5.29093e-17 0)
(-1 4.29692e-17 0)
(-1 -2.56147e-14 0)
(-1 4.80877e-15 0)
(-1 -1.36515e-15 0)
(-1 -4.78508e-17 0)
(-1 -2.16715e-16 0)
(-1 -1.21899e-16 0)
(-1 -5.34713e-17 0)
(-1 -3.17716e-17 0)
(-1 -2.68184e-17 0)
(-1 -2.24978e-17 0)
(-1 -9.88941e-18 0)
(-1 4.40537e-17 0)
(-1 6.76301e-17 0)
(-1 3.3986e-17 0)
(-1 3.68943e-17 0)
(-1 1.29093e-17 0)
(-1 2.55073e-17 0)
(-1 3.40402e-17 0)
(-1 4.2184e-17 0)
(-1 4.86707e-17 0)
(-1 -4.47027e-15 0)
(-1 4.41295e-16 0)
(-1 -1.30106e-16 0)
(-1 -7.97916e-17 0)
(-1 1.57433e-16 0)
(-1 1.06692e-16 0)
(-1 -4.60499e-17 0)
(-1 -3.73903e-17 0)
(-1 -8.62625e-17 0)
(-1 -1.51972e-17 0)
(-1 9.66856e-17 0)
(-1 1.21892e-16 0)
(-1 -3.27571e-17 0)
(-1 -2.04129e-16 0)
(-1 -1.34874e-16 0)
(-1 5.16148e-17 0)
(-1 7.36129e-17 0)
(-1 1.47716e-16 0)
(-1 3.81472e-17 0)
(-1 1.57262e-17 0)
(-1 3.64075e-14 0)
(-1 -7.02664e-15 0)
(-1 1.47152e-15 0)
(-1 -3.21518e-16 0)
(-1 1.21595e-16 0)
(-1 4.80807e-17 0)
(-1 -2.33008e-17 0)
(-1 1.45232e-17 0)
(-1 1.15608e-17 0)
(-1 2.34082e-17 0)
(-1 7.69673e-17 0)
(-1 9.2544e-17 0)
(-1 4.66481e-17 0)
(-1 -1.03234e-16 0)
(-1 -8.0197e-17 0)
(-1 4.48768e-17 0)
(-1 1.37605e-16 0)
(-1 2.40787e-16 0)
(-1 1.28544e-16 0)
(-1 2.16972e-17 0)
(-1 -8.39542e-15 0)
(-1 1.08255e-15 0)
(-1 -3.43872e-16 0)
(-1 7.21819e-17 0)
(-1 -3.07421e-17 0)
(-1 -1.48721e-17 0)
(-1 -3.76381e-17 0)
(-1 -7.34028e-17 0)
(-1 -5.82885e-17 0)
(-1 -6.47853e-17 0)
(-1 -1.00113e-16 0)
(-1 -5.63129e-17 0)
(-1 5.94096e-17 0)
(-1 3.23885e-17 0)
(-1 -1.2713e-17 0)
(-1 -3.83405e-17 0)
(-1 -6.10731e-17 0)
(-1 -4.69786e-17 0)
(-1 1.45766e-17 0)
(-1 5.78459e-17 0)
(-1 -6.46809e-14 0)
(-1 1.30733e-14 0)
(-1 -3.04733e-15 0)
(-1 6.1046e-16 0)
(-1 -1.27793e-16 0)
(-1 5.27132e-17 0)
(-1 -8.20144e-18 0)
(-1 -7.56256e-17 0)
(-1 -7.91762e-17 0)
(-1 -7.94684e-17 0)
(-1 -8.30064e-17 0)
(-1 -6.0668e-17 0)
(-1 -3.57151e-17 0)
(-1 3.99336e-17 0)
(-1 2.87626e-18 0)
(-1 -4.71714e-17 0)
(-1 -9.56378e-17 0)
(-1 -1.29253e-16 0)
(-1 -3.16883e-17 0)
(-1 6.24239e-17 0)
)
;

boundaryField
{
    movingWall
    {
        type            zeroGradient;
    }
    fixedWalls
    {
        type            zeroGradient;
    }
    frontAndBack
    {
        type            empty;
    }
}


// ************************************************************************* //
