/*--------------------------------*- C++ -*----------------------------------*\
| =========                 |                                                 |
| \\      /  F ield         | OpenFOAM: The Open Source CFD Toolbox           |
|  \\    /   O peration     | Version:  2506                                  |
|   \\  /    A nd           | Website:  www.openfoam.com                      |
|    \\/     M anipulation  |                                                 |
\*---------------------------------------------------------------------------*/
FoamFile
{
    version     2.0;
    format      ascii;
    arch        "LSB;label=32;scalar=64";
    class       volScalarField;
    location    "2.375";
    object      Lambda2Field;
}
// * * * * * * * * * * * * * * * * * * * * * * * * * * * * * * * * * * * * * //

dimensions      [0 0 -2 0 0 0 0];

internalField   nonuniform List<scalar> 
400
(
0.0160379
0.134297
0.342728
0.414808
0.570235
1.06871
2.12401
4.52048
8.54365
12.6212
14.8651
15.4081
16.0915
18.9459
24.0412
26.0749
21.2701
11.5579
2.17984
0.221452
0.321041
0.955972
1.72624
2.02957
2.47231
3.97889
6.98778
10.5552
13.0714
13.5332
12.1421
10.3651
10.5319
14.2543
21.9621
30.0884
32.0148
24.1664
5.63743
0.0756026
0.989308
1.915
3.0883
3.92178
5.20402
7.58401
10.9658
13.9151
14.0793
10.9127
6.03926
1.89269
0.209394
1.84269
7.92329
19.529
32.237
35.7568
22.5064
2.0183
1.73048
2.80378
3.90665
5.23038
7.35673
10.2945
12.9766
12.9537
8.40357
0.132361
-8.55233
-14.8602
-18.0912
-18.7959
-17.3968
-10.1354
7.06394
32.0744
38.8986
14.892
2.47625
3.32454
4.34386
5.93551
8.58083
11.6794
12.4825
8.07228
-1.69497
-13.0176
-20.9638
-23.8803
-24.1725
-24.6595
-26.9607
-29.7239
-24.1675
1.45266
38.3826
51.4287
3.08861
3.35922
4.1576
5.95062
8.82979
11.3172
9.47299
1.12256
-11.6276
-22.008
-25.1943
-23.1083
-19.9972
-18.102
-18.9608
-24.6371
-32.8374
-25.841
19.2205
77.0273
3.40103
2.96719
3.54902
5.2681
8.05573
9.59015
5.59882
-4.9596
-18.1801
-25.7368
-25.5538
-22.1832
-18.6725
-15.0904
-12.7528
-14.4852
-23.2091
-31.4595
-6.17975
76.9906
3.36674
2.34296
2.72921
4.25006
6.79407
7.63299
2.66461
-8.49112
-21.3349
-27.4701
-27.1501
-24.8688
-21.6819
-16.9933
-12.1388
-10.3544
-14.1051
-24.2637
-17.612
62.5935
3.13782
1.71805
1.95201
3.23802
5.54807
6.10153
1.60331
-9.02885
-21.7363
-28.4365
-29.6207
-28.8299
-25.8741
-19.7773
-12.9061
-9.25905
-10.0558
-17.0337
-17.2079
40.182
2.72844
1.24555
1.3496
2.41507
4.40687
5.35046
2.13101
-6.87718
-19.0941
-27.4706
-30.5131
-30.9125
-27.8546
-20.3796
-12.3557
-7.9061
-7.54169
-11.8119
-13.7543
19.8506
2.27258
0.994483
0.985869
1.83078
3.5533
4.97802
3.44218
-2.76484
-13.0853
-22.2736
-27.1747
-28.2397
-24.8124
-17.0209
-9.38101
-5.37236
-4.62321
-7.45803
-9.81882
7.06188
1.84019
0.906543
0.842736
1.47591
2.91494
4.57722
4.58898
1.23831
-5.30323
-13.0339
-18.3448
-19.6367
-16.5469
-10.1368
-4.47823
-1.90688
-1.27623
-3.36112
-4.42599
0
1.29295
0.916171
0.857762
1.31656
2.44447
4.02567
4.95252
3.87965
0.473005
-4.05007
-7.8955
-8.97492
-6.81448
-2.8535
0
1.34979
1.72169
0
0
-4.10731
0.81937
0.899663
0.974339
1.3132
2.14063
3.39474
4.53372
4.62642
3.24629
0.884872
-1.07815
-1.82335
-0.799154
0.909805
2.48936
3.48754
3.99389
2.47421
0
-0.85646
0
0.763822
1.09978
1.46111
2.04402
2.89996
3.76974
4.14755
3.63413
2.38278
1.1234
0.547513
0.954442
2.00635
3.2012
4.14578
4.93233
1.42088
-4.88283
0
-0.125461
0.467844
1.33155
1.73569
2.17205
2.70118
3.17566
3.33699
2.97929
2.09474
1.10362
0.493123
0.612311
1.35225
2.46344
3.47238
4.17095
-4.3125
-16.2375
2.86751
0
0
0.289584
1.18843
1.8173
2.25337
2.48716
2.41698
1.97032
1.17496
0.249278
-0.304111
-0.444338
0
0.785957
1.92635
0
-18.5115
-8.42798
27.8027
0
0.410213
2.53954
2.77953
2.92335
3.00298
2.81079
2.23921
1.27817
0.0243482
-0.927216
-2.1728
-2.90222
-3.07822
-3.85258
-4.52087
-15.998
-42.0226
0
262.819
8.5106
0
0
1.94601
0.965577
0.271822
0.156121
0
0
0
-1.41286
-2.90925
-3.99369
-5.49871
-8.05383
-12.7109
-27.5672
-17.1348
-141.54
967.004
3232.59
-622.738
-680.311
-354.238
-158.7
-82.8749
-53.732
-38.3456
-28.8099
-23.4142
-20.7461
-18.9205
-18.8772
-16.3294
-34.8715
0
0
0
-224.889
1621.62
)
;

boundaryField
{
    movingWall
    {
        type            calculated;
        value           nonuniform List<scalar> 
20
(
1485.44
0
0
0
0
0
0
0
0
0
0
0
0
0
0
0
-131.989
0
-1339.78
2883
)
;
    }
    fixedWalls
    {
        type            calculated;
        value           nonuniform List<scalar> 
60
(
0.00158925
0.0471266
0.496415
1.33242
2.05154
3.12036
4.36362
4.98974
4.21914
3.24204
2.23054
1.29832
0.384639
0
0
0
-1.69518
0
26.5215
6885.62
0
0
0
0
28.7855
45.7415
52.2831
33.9649
0
0
0
0
0
0
0
0
73.2331
777.501
3150.82
2188.94
0.00920716
0
0
0
0
0
0
0.538496
6.68323
11.1308
15.6884
18.8132
20.5363
22.2227
25.3519
24.38
15.0343
5.24524
1.35793
0.175223
)
;
    }
    frontAndBack
    {
        type            empty;
    }
}


// ************************************************************************* //
