/*--------------------------------*- C++ -*----------------------------------*\
| =========                 |                                                 |
| \\      /  F ield         | OpenFOAM: The Open Source CFD Toolbox           |
|  \\    /   O peration     | Version:  2506                                  |
|   \\  /    A nd           | Website:  www.openfoam.com                      |
|    \\/     M anipulation  |                                                 |
\*---------------------------------------------------------------------------*/
FoamFile
{
    version     2.0;
    format      ascii;
    arch        "LSB;label=32;scalar=64";
    class       volVectorField;
    location    "7.75";
    object      diffU;
}
// * * * * * * * * * * * * * * * * * * * * * * * * * * * * * * * * * * * * * //

dimensions      [0 1 -1 0 0 0 0];

internalField   nonuniform List<vector> 
400
(
(0 0 0)
(-9.32587e-15 -1.89041e-14 0)
(-7.43849e-15 -1.56623e-14 0)
(-8.21565e-15 -1.64442e-14 0)
(-8.10463e-15 -1.64129e-14 0)
(-8.32667e-15 -1.63932e-14 0)
(-8.10463e-15 -1.6358e-14 0)
(-8.10463e-15 -1.62848e-14 0)
(-8.32667e-15 -1.6337e-14 0)
(-8.32667e-15 -1.63685e-14 0)
(-8.65974e-15 -1.63899e-14 0)
(-8.65974e-15 -1.6412e-14 0)
(-8.65974e-15 -1.64025e-14 0)
(-8.65974e-15 -1.64041e-14 0)
(-8.43769e-15 -1.64618e-14 0)
(-8.54872e-15 -1.63656e-14 0)
(-8.54872e-15 -1.63702e-14 0)
(-8.77076e-15 -1.63872e-14 0)
(-8.77076e-15 -1.63631e-14 0)
(-8.88178e-15 -1.63945e-14 0)
(-1.86517e-14 -1.56825e-14 0)
(-7.77156e-15 -1.62039e-14 0)
(-1.06581e-14 -1.63891e-14 0)
(-9.10383e-15 -1.64435e-14 0)
(-9.10383e-15 -1.6439e-14 0)
(-9.10383e-15 -1.64824e-14 0)
(-9.54792e-15 -1.65519e-14 0)
(-9.32587e-15 -1.64203e-14 0)
(-9.10383e-15 -1.63126e-14 0)
(-9.32587e-15 -1.62499e-14 0)
(-9.32587e-15 -1.6263e-14 0)
(-9.10383e-15 -1.62273e-14 0)
(-9.76996e-15 -1.62458e-14 0)
(-9.54792e-15 -1.64984e-14 0)
(-9.76996e-15 -1.6658e-14 0)
(-9.54792e-15 -1.65298e-14 0)
(-9.32587e-15 -1.64019e-14 0)
(-8.88178e-15 -1.63842e-14 0)
(-9.10383e-15 -1.63776e-14 0)
(-9.10383e-15 -1.64564e-14 0)
(-6.66134e-15 -3.04727e-14 0)
(-8.65974e-15 -1.40616e-14 0)
(-8.32667e-15 -1.71276e-14 0)
(-8.43769e-15 -1.63536e-14 0)
(-8.77076e-15 -1.62572e-14 0)
(-8.77076e-15 -1.63707e-14 0)
(-8.88178e-15 -1.64537e-14 0)
(-8.88178e-15 -1.63215e-14 0)
(-9.10383e-15 -1.6176e-14 0)
(-9.10383e-15 -1.61782e-14 0)
(-9.32587e-15 -1.6254e-14 0)
(-9.32587e-15 -1.62568e-14 0)
(-8.88178e-15 -1.62627e-14 0)
(-8.88178e-15 -1.64272e-14 0)
(-8.77076e-15 -1.65448e-14 0)
(-9.32587e-15 -1.66547e-14 0)
(-9.54792e-15 -1.66692e-14 0)
(-9.32587e-15 -1.65964e-14 0)
(-9.10383e-15 -1.65605e-14 0)
(-8.88178e-15 -1.65354e-14 0)
(-1.22125e-14 -7.92498e-15 0)
(-8.65974e-15 -1.83014e-14 0)
(-9.54792e-15 -1.6127e-14 0)
(-9.76996e-15 -1.64654e-14 0)
(-9.10383e-15 -1.6256e-14 0)
(-9.32587e-15 -1.62685e-14 0)
(-9.54792e-15 -1.62755e-14 0)
(-9.54792e-15 -1.62988e-14 0)
(-9.10383e-15 -1.62945e-14 0)
(-8.77076e-15 -1.63099e-14 0)
(-8.77076e-15 -1.63493e-14 0)
(-8.77076e-15 -1.64205e-14 0)
(-8.65974e-15 -1.64697e-14 0)
(-8.65974e-15 -1.63788e-14 0)
(-8.43769e-15 -1.63099e-14 0)
(-8.65974e-15 -1.64512e-14 0)
(-8.77076e-15 -1.66628e-14 0)
(-8.65974e-15 -1.66663e-14 0)
(-8.88178e-15 -1.66047e-14 0)
(-8.77076e-15 -1.64991e-14 0)
(-7.77156e-15 -1.89979e-14 0)
(-8.88178e-15 -1.63654e-14 0)
(-8.88178e-15 -1.65318e-14 0)
(-8.77076e-15 -1.65216e-14 0)
(-8.77076e-15 -1.64783e-14 0)
(-8.88178e-15 -1.63959e-14 0)
(-8.54872e-15 -1.63851e-14 0)
(-8.54872e-15 -1.64753e-14 0)
(-8.54872e-15 -1.65162e-14 0)
(-8.65974e-15 -1.6465e-14 0)
(-8.54872e-15 -1.63735e-14 0)
(-8.88178e-15 -1.64044e-14 0)
(-8.77076e-15 -1.64959e-14 0)
(-8.77076e-15 -1.64658e-14 0)
(-8.77076e-15 -1.64068e-14 0)
(-8.77076e-15 -1.64727e-14 0)
(-8.65974e-15 -1.65069e-14 0)
(-8.88178e-15 -1.64892e-14 0)
(-8.88178e-15 -1.65361e-14 0)
(-8.88178e-15 -1.64906e-14 0)
(-3.44169e-15 -2.41924e-14 0)
(-9.54792e-15 -1.47866e-14 0)
(-7.99361e-15 -1.66859e-14 0)
(-8.65974e-15 -1.62199e-14 0)
(-8.54872e-15 -1.63366e-14 0)
(-8.54872e-15 -1.6236e-14 0)
(-8.88178e-15 -1.6258e-14 0)
(-8.65974e-15 -1.62529e-14 0)
(-8.77076e-15 -1.63124e-14 0)
(-8.77076e-15 -1.63507e-14 0)
(-8.65974e-15 -1.6348e-14 0)
(-8.77076e-15 -1.64313e-14 0)
(-8.65974e-15 -1.64725e-14 0)
(-8.88178e-15 -1.6454e-14 0)
(-8.65974e-15 -1.6472e-14 0)
(-8.54872e-15 -1.65053e-14 0)
(-8.88178e-15 -1.64586e-14 0)
(-8.77076e-15 -1.63901e-14 0)
(-8.65974e-15 -1.64198e-14 0)
(-8.77076e-15 -1.64205e-14 0)
(-1.17684e-14 -6.45382e-15 0)
(-8.88178e-15 -1.79867e-14 0)
(-9.32587e-15 -1.6095e-14 0)
(-9.10383e-15 -1.63642e-14 0)
(-9.32587e-15 -1.63959e-14 0)
(-9.10383e-15 -1.64413e-14 0)
(-8.88178e-15 -1.64396e-14 0)
(-8.88178e-15 -1.6462e-14 0)
(-8.88178e-15 -1.64857e-14 0)
(-8.77076e-15 -1.63783e-14 0)
(-8.65974e-15 -1.62592e-14 0)
(-8.65974e-15 -1.62718e-14 0)
(-8.77076e-15 -1.63315e-14 0)
(-8.88178e-15 -1.64014e-14 0)
(-8.77076e-15 -1.64992e-14 0)
(-8.88178e-15 -1.6494e-14 0)
(-8.65974e-15 -1.63826e-14 0)
(-9.10383e-15 -1.63549e-14 0)
(-8.88178e-15 -1.63846e-14 0)
(-8.88178e-15 -1.63991e-14 0)
(-1.31006e-14 -1.57062e-14 0)
(-7.77156e-15 -1.70797e-14 0)
(-9.10383e-15 -1.6443e-14 0)
(-8.65974e-15 -1.64452e-14 0)
(-8.43769e-15 -1.62654e-14 0)
(-8.77076e-15 -1.63279e-14 0)
(-8.88178e-15 -1.62411e-14 0)
(-8.88178e-15 -1.63628e-14 0)
(-8.88178e-15 -1.64515e-14 0)
(-9.32587e-15 -1.6459e-14 0)
(-9.10383e-15 -1.64382e-14 0)
(-8.77076e-15 -1.63955e-14 0)
(-8.65974e-15 -1.63806e-14 0)
(-8.54872e-15 -1.64399e-14 0)
(-8.65974e-15 -1.64897e-14 0)
(-8.43769e-15 -1.64329e-14 0)
(-8.88178e-15 -1.62928e-14 0)
(-8.77076e-15 -1.62857e-14 0)
(-8.77076e-15 -1.63796e-14 0)
(-8.77076e-15 -1.63859e-14 0)
(-6.43929e-15 -2.88839e-14 0)
(-9.54792e-15 -1.44075e-14 0)
(-9.10383e-15 -1.68693e-14 0)
(-9.76996e-15 -1.63922e-14 0)
(-9.32587e-15 -1.64812e-14 0)
(-9.32587e-15 -1.64697e-14 0)
(-9.32587e-15 -1.64143e-14 0)
(-8.77076e-15 -1.64093e-14 0)
(-8.65974e-15 -1.63356e-14 0)
(-8.65974e-15 -1.63917e-14 0)
(-8.54872e-15 -1.64926e-14 0)
(-8.65974e-15 -1.6478e-14 0)
(-8.77076e-15 -1.63971e-14 0)
(-8.88178e-15 -1.63533e-14 0)
(-8.77076e-15 -1.63043e-14 0)
(-9.32587e-15 -1.62632e-14 0)
(-9.10383e-15 -1.62937e-14 0)
(-8.88178e-15 -1.63319e-14 0)
(-9.10383e-15 -1.63852e-14 0)
(-8.88178e-15 -1.63904e-14 0)
(-3.10862e-15 -9.37434e-15 0)
(-9.54792e-15 -1.71593e-14 0)
(-7.99361e-15 -1.62226e-14 0)
(-8.65974e-15 -1.64944e-14 0)
(-8.43769e-15 -1.65242e-14 0)
(-8.65974e-15 -1.64449e-14 0)
(-8.88178e-15 -1.64097e-14 0)
(-9.10383e-15 -1.64145e-14 0)
(-9.10383e-15 -1.64196e-14 0)
(-9.32587e-15 -1.64132e-14 0)
(-9.10383e-15 -1.64164e-14 0)
(-9.10383e-15 -1.64048e-14 0)
(-9.10383e-15 -1.62689e-14 0)
(-9.32587e-15 -1.61614e-14 0)
(-9.32587e-15 -1.62672e-14 0)
(-9.10383e-15 -1.63816e-14 0)
(-9.10383e-15 -1.64879e-14 0)
(-8.77076e-15 -1.65021e-14 0)
(-8.88178e-15 -1.6441e-14 0)
(-8.77076e-15 -1.64216e-14 0)
(-1.9984e-14 -1.73183e-14 0)
(-7.21645e-15 -1.62011e-14 0)
(-1.02141e-14 -1.64536e-14 0)
(-8.77076e-15 -1.63756e-14 0)
(-9.32587e-15 -1.62993e-14 0)
(-9.54792e-15 -1.63021e-14 0)
(-9.10383e-15 -1.63227e-14 0)
(-8.88178e-15 -1.62682e-14 0)
(-8.77076e-15 -1.63025e-14 0)
(-9.10383e-15 -1.63197e-14 0)
(-8.88178e-15 -1.63327e-14 0)
(-8.88178e-15 -1.63414e-14 0)
(-9.10383e-15 -1.63692e-14 0)
(-9.10383e-15 -1.63983e-14 0)
(-8.88178e-15 -1.6426e-14 0)
(-8.77076e-15 -1.64388e-14 0)
(-8.77076e-15 -1.65059e-14 0)
(-8.88178e-15 -1.65484e-14 0)
(-8.88178e-15 -1.64062e-14 0)
(-8.88178e-15 -1.63708e-14 0)
(-8.88178e-16 -1.70163e-14 0)
(-1.04361e-14 -1.65026e-14 0)
(-8.88178e-15 -1.63137e-14 0)
(-9.76996e-15 -1.64886e-14 0)
(-9.32587e-15 -1.65535e-14 0)
(-9.32587e-15 -1.65564e-14 0)
(-9.32587e-15 -1.65802e-14 0)
(-9.10383e-15 -1.64535e-14 0)
(-9.10383e-15 -1.63398e-14 0)
(-9.10383e-15 -1.63342e-14 0)
(-9.10383e-15 -1.63973e-14 0)
(-9.32587e-15 -1.64386e-14 0)
(-9.10383e-15 -1.64304e-14 0)
(-9.10383e-15 -1.64249e-14 0)
(-8.88178e-15 -1.64084e-14 0)
(-9.10383e-15 -1.64616e-14 0)
(-8.77076e-15 -1.64649e-14 0)
(-8.88178e-15 -1.6441e-14 0)
(-8.77076e-15 -1.63692e-14 0)
(-8.77076e-15 -1.6337e-14 0)
(-1.42109e-14 -1.58839e-14 0)
(-7.66054e-15 -1.58041e-14 0)
(-9.32587e-15 -1.61748e-14 0)
(-8.77076e-15 -1.62259e-14 0)
(-9.10383e-15 -1.63973e-14 0)
(-9.32587e-15 -1.64034e-14 0)
(-9.32587e-15 -1.64581e-14 0)
(-9.32587e-15 -1.65348e-14 0)
(-9.54792e-15 -1.64866e-14 0)
(-9.10383e-15 -1.64458e-14 0)
(-8.88178e-15 -1.64762e-14 0)
(-8.77076e-15 -1.63754e-14 0)
(-9.32587e-15 -1.63715e-14 0)
(-9.32587e-15 -1.64146e-14 0)
(-9.32587e-15 -1.64882e-14 0)
(-9.32587e-15 -1.65848e-14 0)
(-9.54792e-15 -1.65948e-14 0)
(-9.32587e-15 -1.65151e-14 0)
(-9.10383e-15 -1.64793e-14 0)
(-9.10383e-15 -1.64563e-14 0)
(-8.32667e-15 -1.86013e-14 0)
(-9.32587e-15 -1.57699e-14 0)
(-8.77076e-15 -1.64733e-14 0)
(-8.88178e-15 -1.62637e-14 0)
(-8.54872e-15 -1.64553e-14 0)
(-8.43769e-15 -1.65643e-14 0)
(-8.21565e-15 -1.65492e-14 0)
(-8.32667e-15 -1.65193e-14 0)
(-8.43769e-15 -1.64671e-14 0)
(-8.65974e-15 -1.64654e-14 0)
(-8.77076e-15 -1.64601e-14 0)
(-8.88178e-15 -1.62822e-14 0)
(-8.43769e-15 -1.63513e-14 0)
(-8.54872e-15 -1.64589e-14 0)
(-8.77076e-15 -1.64778e-14 0)
(-8.54872e-15 -1.6448e-14 0)
(-8.77076e-15 -1.65733e-14 0)
(-8.88178e-15 -1.66414e-14 0)
(-8.77076e-15 -1.65746e-14 0)
(-8.65974e-15 -1.65139e-14 0)
(-1.31006e-14 -8.92715e-15 0)
(-7.88258e-15 -1.80899e-14 0)
(-9.32587e-15 -1.62794e-14 0)
(-8.65974e-15 -1.65923e-14 0)
(-8.88178e-15 -1.65652e-14 0)
(-9.10383e-15 -1.6581e-14 0)
(-9.10383e-15 -1.65348e-14 0)
(-9.10383e-15 -1.64059e-14 0)
(-9.10383e-15 -1.63842e-14 0)
(-8.77076e-15 -1.64635e-14 0)
(-8.77076e-15 -1.6459e-14 0)
(-8.77076e-15 -1.64143e-14 0)
(-8.65974e-15 -1.6316e-14 0)
(-8.77076e-15 -1.6371e-14 0)
(-8.77076e-15 -1.64325e-14 0)
(-8.88178e-15 -1.64265e-14 0)
(-8.54872e-15 -1.64455e-14 0)
(-8.77076e-15 -1.64656e-14 0)
(-8.88178e-15 -1.64851e-14 0)
(-8.77076e-15 -1.63977e-14 0)
(-1.24345e-14 -2.67299e-14 0)
(-8.10463e-15 -1.49667e-14 0)
(-9.32587e-15 -1.68573e-14 0)
(-9.10383e-15 -1.65027e-14 0)
(-9.32587e-15 -1.64214e-14 0)
(-9.32587e-15 -1.63986e-14 0)
(-9.32587e-15 -1.64702e-14 0)
(-9.32587e-15 -1.653e-14 0)
(-9.32587e-15 -1.65772e-14 0)
(-9.10383e-15 -1.65436e-14 0)
(-9.32587e-15 -1.64424e-14 0)
(-9.32587e-15 -1.64192e-14 0)
(-9.10383e-15 -1.63754e-14 0)
(-9.10383e-15 -1.64343e-14 0)
(-9.10383e-15 -1.64828e-14 0)
(-9.32587e-15 -1.65726e-14 0)
(-9.10383e-15 -1.65746e-14 0)
(-9.10383e-15 -1.65157e-14 0)
(-8.77076e-15 -1.64447e-14 0)
(-8.88178e-15 -1.63777e-14 0)
(0 -6.80765e-15 0)
(-1.02141e-14 -1.81349e-14 0)
(-7.99361e-15 -1.60741e-14 0)
(-9.10383e-15 -1.65629e-14 0)
(-8.77076e-15 -1.65196e-14 0)
(-8.77076e-15 -1.65213e-14 0)
(-8.54872e-15 -1.65588e-14 0)
(-8.65974e-15 -1.66225e-14 0)
(-8.65974e-15 -1.66219e-14 0)
(-8.54872e-15 -1.65142e-14 0)
(-8.65974e-15 -1.64895e-14 0)
(-8.54872e-15 -1.64637e-14 0)
(-8.65974e-15 -1.63797e-14 0)
(-8.65974e-15 -1.63671e-14 0)
(-8.54872e-15 -1.63228e-14 0)
(-8.88178e-15 -1.64539e-14 0)
(-8.88178e-15 -1.66073e-14 0)
(-8.88178e-15 -1.6655e-14 0)
(-9.10383e-15 -1.65457e-14 0)
(-8.88178e-15 -1.64565e-14 0)
(-1.93179e-14 -9.8946e-15 0)
(-6.99441e-15 -1.74408e-14 0)
(-9.76996e-15 -1.62654e-14 0)
(-8.88178e-15 -1.65055e-14 0)
(-9.10383e-15 -1.65527e-14 0)
(-9.10383e-15 -1.65686e-14 0)
(-9.10383e-15 -1.64792e-14 0)
(-9.10383e-15 -1.64832e-14 0)
(-9.54792e-15 -1.65221e-14 0)
(-9.32587e-15 -1.64672e-14 0)
(-9.32587e-15 -1.64459e-14 0)
(-9.54792e-15 -1.63929e-14 0)
(-9.54792e-15 -1.63833e-14 0)
(-9.32587e-15 -1.64473e-14 0)
(-9.10383e-15 -1.65463e-14 0)
(-8.77076e-15 -1.65253e-14 0)
(-8.32667e-15 -1.64318e-14 0)
(-8.65974e-15 -1.64106e-14 0)
(-8.77076e-15 -1.65067e-14 0)
(-8.77076e-15 -1.64654e-14 0)
(-5.88418e-15 -2.80343e-14 0)
(-9.32587e-15 -1.50608e-14 0)
(-8.88178e-15 -1.68676e-14 0)
(-9.10383e-15 -1.64452e-14 0)
(-8.88178e-15 -1.63995e-14 0)
(-8.88178e-15 -1.65098e-14 0)
(-9.10383e-15 -1.6531e-14 0)
(-8.54872e-15 -1.65214e-14 0)
(-8.65974e-15 -1.65211e-14 0)
(-8.77076e-15 -1.64979e-14 0)
(-8.88178e-15 -1.64123e-14 0)
(-8.77076e-15 -1.64195e-14 0)
(-8.77076e-15 -1.65106e-14 0)
(-8.65974e-15 -1.6528e-14 0)
(-8.88178e-15 -1.66446e-14 0)
(-8.88178e-15 -1.66614e-14 0)
(-9.10383e-15 -1.65283e-14 0)
(-9.10383e-15 -1.64028e-14 0)
(-8.88178e-15 -1.64193e-14 0)
(-8.88178e-15 -1.64119e-14 0)
(-1.9984e-15 -1.57305e-14 0)
(-9.99201e-15 -1.69958e-14 0)
(-7.66054e-15 -1.63146e-14 0)
(-8.54872e-15 -1.64541e-14 0)
(-8.10463e-15 -1.63986e-14 0)
(-8.21565e-15 -1.65393e-14 0)
(-8.21565e-15 -1.66361e-14 0)
(-8.65974e-15 -1.65642e-14 0)
(-8.54872e-15 -1.64657e-14 0)
(-8.54872e-15 -1.64273e-14 0)
(-8.65974e-15 -1.63771e-14 0)
(-8.77076e-15 -1.64235e-14 0)
(-8.43769e-15 -1.64576e-14 0)
(-8.65974e-15 -1.64317e-14 0)
(-8.77076e-15 -1.64187e-14 0)
(-8.77076e-15 -1.65072e-14 0)
(-8.77076e-15 -1.65554e-14 0)
(-9.10383e-15 -1.65092e-14 0)
(-8.88178e-15 -1.64473e-14 0)
(-8.77076e-15 -1.64258e-14 0)
)
;

boundaryField
{
    movingWall
    {
        type            calculated;
        value           uniform (-8.88178e-15 -1.64364e-14 0);
    }
    fixedWalls
    {
        type            calculated;
        value           uniform (-8.88178e-15 -1.64364e-14 0);
    }
    frontAndBack
    {
        type            empty;
    }
}


// ************************************************************************* //
