/*--------------------------------*- C++ -*----------------------------------*\
| =========                 |                                                 |
| \\      /  F ield         | OpenFOAM: The Open Source CFD Toolbox           |
|  \\    /   O peration     | Version:  2506                                  |
|   \\  /    A nd           | Website:  www.openfoam.com                      |
|    \\/     M anipulation  |                                                 |
\*---------------------------------------------------------------------------*/
FoamFile
{
    version     2.0;
    format      ascii;
    arch        "LSB;label=32;scalar=64";
    class       volScalarField;
    location    "7.75";
    object      divPhi;
}
// * * * * * * * * * * * * * * * * * * * * * * * * * * * * * * * * * * * * * //

dimensions      [0 0 -1 0 0 0 0];

internalField   nonuniform List<scalar> 
400
(
-1.35525e-13
2.47318e-15
-8.57529e-16
3.90582e-15
6.16151e-15
-6.71121e-15
9.39132e-15
-1.25702e-14
-2.69791e-15
7.69177e-15
2.64931e-15
-1.53229e-14
2.25064e-14
-1.16795e-14
-3.93913e-15
1.66746e-14
-6.6599e-15
-1.60309e-14
1.86106e-14
0
2.71051e-14
2.21901e-14
9.89893e-15
1.4552e-14
-9.74702e-15
7.92402e-15
-6.56699e-15
9.81348e-15
-2.97378e-15
7.08719e-15
3.20694e-15
2.27073e-14
-6.30345e-15
1.12139e-14
-8.06031e-15
-4.30724e-14
2.34935e-14
-1.32308e-14
4.82774e-16
-2.71051e-14
-2.71051e-14
6.24405e-15
1.69491e-14
-2.8776e-14
-1.05448e-14
-4.59784e-15
-1.84118e-14
2.52312e-14
4.75479e-15
-6.60763e-15
3.19081e-15
-1.35258e-14
-3.54915e-14
2.90634e-14
-1.24849e-14
3.35209e-14
-1.7827e-14
-1.25141e-14
1.06465e-14
0
0
3.9976e-15
1.14683e-15
-1.45598e-15
1.69108e-17
-5.59606e-15
6.15681e-15
1.14656e-14
2.17684e-14
-2.0567e-14
-1.71314e-14
6.00022e-15
-6.89734e-15
-4.57204e-15
-2.05358e-14
-7.26276e-15
6.59078e-15
-6.13995e-16
8.98214e-15
2.71051e-14
0
-6.08007e-15
-1.49372e-15
2.47021e-14
-1.70353e-14
-1.4686e-14
1.00171e-14
4.25144e-14
-1.89566e-14
-3.38105e-16
2.06011e-14
-2.03279e-14
1.95169e-14
-2.59805e-14
5.86061e-15
-1.48425e-14
5.16591e-15
5.61671e-15
1.30105e-14
0
0
1.97204e-14
-2.14131e-14
1.94213e-14
1.2977e-14
1.32489e-14
2.59453e-14
-1.17058e-14
3.54793e-14
-4.27583e-15
1.89315e-14
-1.65734e-14
4.7765e-15
-2.50586e-15
1.08501e-14
1.77452e-14
1.00512e-14
-3.82172e-16
3.64759e-14
0
0
1.64614e-14
-2.18824e-14
-1.40191e-14
2.20184e-14
2.27222e-14
9.41169e-15
-2.54987e-14
1.42151e-14
-6.5284e-15
3.17993e-16
4.00667e-15
1.88183e-14
-1.89331e-14
2.03715e-14
1.51823e-14
1.90704e-14
-1.96016e-14
1.12183e-14
0
0
-2.21231e-14
8.77564e-15
4.44649e-15
-4.67453e-15
-1.13999e-14
1.65569e-14
-1.99155e-15
-7.1342e-15
1.17041e-14
-1.46237e-14
1.59956e-14
7.02561e-15
2.18167e-15
1.06344e-15
-1.0504e-14
-1.10998e-15
-3.46674e-15
1.11895e-14
0
0
-1.11266e-15
-1.96968e-14
1.46986e-14
-2.10972e-14
-1.16298e-14
-2.51102e-14
5.63325e-15
1.14254e-15
5.38669e-15
3.17971e-14
-1.95436e-14
2.16549e-14
8.63319e-15
4.0777e-15
-2.82044e-14
1.35292e-14
-1.80068e-14
7.28804e-15
0
-2.71051e-14
4.83385e-15
1.92287e-14
-2.05547e-14
-1.48889e-15
1.50778e-14
1.50141e-14
1.40002e-14
-6.33844e-15
1.01467e-14
6.37448e-15
4.53955e-15
-3.47976e-15
1.18987e-14
2.3332e-14
-1.95e-14
1.54672e-14
5.98936e-15
2.68377e-14
-2.71051e-14
0
1.1732e-14
1.80367e-14
9.64552e-15
-1.10959e-14
-2.29605e-14
-2.07815e-14
-1.97894e-14
-3.30267e-15
2.18455e-14
-1.64861e-14
-1.20478e-14
-1.59855e-14
2.88533e-14
-2.41321e-14
3.22636e-14
-3.54355e-14
4.34816e-15
1.06097e-14
2.71051e-14
0
1.94236e-14
-2.8519e-14
2.60501e-14
-2.69388e-15
-1.25723e-14
1.56519e-14
1.71798e-14
-2.42609e-14
-1.08703e-14
-1.05373e-14
-3.99156e-15
-2.12839e-15
1.39428e-15
-4.7491e-15
1.71097e-14
1.75076e-16
4.39461e-15
1.83174e-15
0
2.71051e-14
-1.13932e-14
-1.28676e-14
-1.84098e-14
2.27003e-14
-3.10627e-14
-8.80734e-15
-1.93041e-14
-1.31687e-14
-1.23234e-14
1.08954e-15
-1.41601e-14
-6.97474e-16
3.64749e-15
-5.74796e-15
-3.14051e-14
-2.72336e-15
1.58926e-14
9.11516e-15
0
-2.71051e-14
-1.7708e-16
-9.52651e-15
1.46908e-14
-2.04848e-14
-8.50411e-15
4.89931e-16
-2.63449e-15
-4.08323e-14
-2.40489e-14
3.29679e-14
8.58351e-15
-1.72327e-14
-2.95087e-15
-6.81282e-15
5.02699e-15
-1.82623e-15
6.40657e-15
8.18257e-15
0
2.71051e-14
-1.3643e-14
-2.2658e-14
-3.234e-14
1.38897e-14
-3.26165e-14
1.21705e-14
-1.31084e-14
3.77646e-14
5.6401e-15
2.14627e-14
9.38608e-16
2.0952e-16
-1.4642e-14
2.42193e-14
-1.56834e-14
4.19618e-15
1.96493e-15
1.94147e-14
0
0
-6.29949e-15
5.70404e-15
-6.46712e-15
-3.11431e-14
-8.78594e-16
1.88998e-14
-2.06851e-14
2.75421e-14
1.27132e-14
-3.24478e-14
2.6185e-15
3.9823e-15
5.54779e-15
2.59953e-15
-1.60947e-15
-7.23715e-15
6.28687e-15
-5.67535e-15
-2.71051e-14
0
-4.70064e-15
1.19646e-14
-1.89125e-14
2.44014e-15
1.43045e-15
-2.40612e-14
-2.15565e-15
-9.74986e-15
2.04699e-14
-4.81355e-15
-7.79536e-15
1.79241e-14
5.74111e-15
1.15418e-14
1.22696e-14
-6.97647e-15
1.42995e-14
-2.61225e-14
0
0
-2.45465e-14
1.83799e-14
7.91172e-15
-3.8035e-15
4.7915e-15
1.69416e-14
-7.93622e-15
-1.37737e-14
8.19695e-15
-1.06128e-15
-6.63034e-15
-4.28508e-15
-1.03402e-14
3.1835e-14
1.67388e-15
1.13907e-14
-1.77892e-14
-2.54448e-16
0
2.71051e-14
6.08298e-15
-1.63945e-14
1.40624e-14
5.95688e-15
1.02112e-14
-4.56803e-15
2.26968e-15
-7.62054e-15
2.6027e-14
-1.72797e-14
-5.2173e-15
1.58247e-14
-3.30124e-14
2.22844e-14
-2.14105e-14
3.0482e-14
2.22168e-14
-4.6411e-16
0
-2.71051e-14
2.71051e-14
0
0
0
2.71051e-14
-2.71051e-14
0
0
0
0
0
0
0
-2.71051e-14
0
2.71051e-14
0
0
0
)
;

boundaryField
{
    movingWall
    {
        type            extrapolatedCalculated;
        value           nonuniform List<scalar> 
20
(
-2.71051e-14
2.71051e-14
0
0
0
2.71051e-14
-2.71051e-14
0
0
0
0
0
0
0
-2.71051e-14
0
2.71051e-14
0
0
0
)
;
    }
    fixedWalls
    {
        type            extrapolatedCalculated;
        value           nonuniform List<scalar> 
60
(
-1.35525e-13
2.71051e-14
-2.71051e-14
0
0
0
0
0
0
-2.71051e-14
0
0
2.71051e-14
-2.71051e-14
2.71051e-14
0
0
0
2.71051e-14
-2.71051e-14
0
-2.71051e-14
0
2.71051e-14
0
0
0
0
0
-2.71051e-14
2.71051e-14
0
0
0
0
-2.71051e-14
0
0
0
0
-1.35525e-13
2.47318e-15
-8.57529e-16
3.90582e-15
6.16151e-15
-6.71121e-15
9.39132e-15
-1.25702e-14
-2.69791e-15
7.69177e-15
2.64931e-15
-1.53229e-14
2.25064e-14
-1.16795e-14
-3.93913e-15
1.66746e-14
-6.6599e-15
-1.60309e-14
1.86106e-14
0
)
;
    }
    frontAndBack
    {
        type            empty;
    }
}


// ************************************************************************* //
