/*--------------------------------*- C++ -*----------------------------------*\
| =========                 |                                                 |
| \\      /  F ield         | OpenFOAM: The Open Source CFD Toolbox           |
|  \\    /   O peration     | Version:  2506                                  |
|   \\  /    A nd           | Website:  www.openfoam.com                      |
|    \\/     M anipulation  |                                                 |
\*---------------------------------------------------------------------------*/
FoamFile
{
    version     2.0;
    format      ascii;
    arch        "LSB;label=32;scalar=64";
    class       volScalarField;
    location    "7.75";
    object      divU;
}
// * * * * * * * * * * * * * * * * * * * * * * * * * * * * * * * * * * * * * //

dimensions      [0 0 -1 0 0 0 0];

internalField   nonuniform List<scalar> 
400
(
2.54788e-12
-9.82467e-13
1.90549e-13
-5.57112e-14
2.08702e-15
-2.83752e-16
2.33913e-14
-1.03409e-14
-4.78922e-15
-1.67118e-15
-5.11791e-15
2.33497e-14
2.24461e-14
-2.97323e-15
2.40067e-15
-2.93647e-14
1.00665e-14
-1.69672e-14
-1.38907e-14
0
-3.90313e-12
1.31782e-12
-2.81238e-13
1.43085e-13
1.76565e-14
-2.51374e-14
-6.75004e-14
4.01998e-14
1.13091e-14
1.73641e-14
8.47544e-15
1.17591e-14
-9.91012e-14
-5.28672e-15
-5.89599e-15
2.30337e-14
6.14838e-14
-1.07766e-14
-6.53351e-15
5.42101e-14
1.02999e-12
-4.09808e-13
7.02372e-14
-4.88412e-14
-1.82575e-14
-3.74974e-15
1.43502e-14
2.52458e-14
-4.10915e-14
-4.28465e-14
-1.55088e-16
1.95424e-14
4.11409e-14
6.67271e-15
-2.52992e-14
-7.75256e-14
3.53922e-14
-1.18811e-14
2.49619e-14
-2.71051e-14
8.13152e-13
1.03377e-14
-8.70253e-14
4.27841e-14
4.0947e-14
-6.26391e-15
-6.01049e-14
3.6977e-14
6.04156e-14
9.78669e-15
-1.21039e-14
4.78585e-15
-3.63899e-14
2.81143e-15
1.56032e-14
2.19925e-14
-2.59055e-15
-1.16793e-15
2.95725e-16
0
-1.54499e-12
2.53389e-13
-6.15979e-14
4.02338e-14
-2.13194e-14
-3.01914e-15
2.29664e-14
1.44586e-14
4.41754e-15
5.70463e-15
-1.19742e-14
-5.05036e-14
1.75415e-14
-4.71183e-15
-2.77065e-14
-1.0527e-14
1.78293e-14
-6.55353e-16
1.87899e-14
0
1.73472e-12
-6.13478e-13
1.17611e-13
-2.53394e-14
1.40245e-14
-3.46737e-14
-9.58022e-15
1.57855e-14
-1.96308e-14
1.43741e-14
2.65594e-14
-1.01387e-14
6.88517e-15
1.73481e-15
1.72647e-14
-1.26525e-14
-5.10588e-14
6.69862e-14
-2.02688e-14
-2.71051e-14
5.69206e-13
2.45736e-14
6.37631e-15
6.34054e-15
-3.30608e-14
6.45608e-14
-7.89226e-15
-2.23055e-14
2.06636e-14
3.5487e-15
-9.56375e-15
-6.56033e-15
-3.81379e-14
3.14237e-15
-1.16098e-14
2.16923e-14
-7.36864e-15
2.32109e-14
1.08479e-14
0
-2.54788e-12
7.34866e-13
-1.52374e-13
5.77473e-14
-1.44885e-14
-1.95916e-14
-3.2473e-14
1.00696e-14
-4.56424e-14
-2.48982e-14
4.84076e-14
2.70275e-14
-1.75931e-14
7.94877e-15
7.87635e-15
1.76635e-14
-5.26854e-14
2.55104e-14
1.07874e-14
-2.71051e-14
8.13152e-13
-2.75979e-13
3.22967e-14
-5.55921e-14
4.09408e-14
-4.18245e-15
4.87804e-15
8.62098e-14
3.88623e-14
6.78154e-15
-3.62848e-15
-2.81082e-14
2.06751e-14
8.70177e-15
-2.40827e-14
-3.14157e-14
6.33242e-14
-7.74463e-14
4.65637e-15
5.42101e-14
1.68051e-12
-6.72184e-13
1.28078e-13
-5.39347e-14
4.92866e-15
-1.45206e-14
-1.30701e-14
-3.52089e-14
-1.20419e-14
1.39845e-14
3.94639e-14
1.26576e-14
-3.07469e-14
4.19967e-15
-9.14107e-15
5.23231e-15
4.21052e-14
-1.77823e-14
2.9663e-14
-2.71051e-14
-1.68051e-12
1.04689e-12
-2.06294e-13
8.21694e-14
-2.51077e-14
1.43351e-15
-3.01586e-15
4.22079e-14
-4.05914e-15
-5.21592e-15
1.42726e-14
-4.49362e-14
-1.97913e-14
3.20585e-14
-2.32633e-14
2.43418e-14
-3.69078e-14
1.54365e-14
9.73795e-15
2.71051e-14
7.86047e-13
-8.10756e-13
1.4685e-13
-3.83854e-14
4.6404e-14
-8.69972e-15
-1.65555e-14
-1.15589e-14
-2.24723e-14
-1.78273e-14
-2.71796e-14
5.87603e-15
7.08534e-15
3.32257e-15
-2.37899e-15
3.68473e-14
8.41115e-15
-3.54394e-14
2.95312e-14
-5.42101e-14
-5.69206e-13
5.36454e-13
-1.13055e-13
6.54167e-14
-7.93008e-14
-9.49681e-15
1.36452e-14
-1.81419e-14
-8.0995e-15
2.32638e-14
7.4959e-14
-5.98053e-14
-1.21036e-14
-8.42743e-17
-9.32212e-15
-4.31117e-14
-2.42813e-15
5.29419e-14
-1.81139e-14
5.42101e-14
7.04731e-13
-2.88444e-13
6.62161e-14
1.67564e-15
1.23309e-14
-1.48691e-16
-2.11248e-14
-5.24369e-15
-2.49596e-14
-5.60777e-15
-5.88483e-14
4.47221e-14
-6.55989e-15
4.28339e-15
-3.75468e-15
2.69272e-14
-1.46058e-14
3.68068e-15
3.55207e-14
-5.42101e-14
-1.11131e-12
4.42401e-13
-1.34813e-13
5.90936e-14
-1.13835e-14
-3.77807e-14
1.38808e-14
-6.30672e-15
4.53471e-14
1.36787e-14
-2.86413e-15
3.92256e-15
-3.60755e-14
6.74778e-15
-4.25145e-15
-1.26345e-14
3.94705e-14
-3.79555e-14
4.85015e-14
-2.71051e-14
-5.42101e-14
3.02377e-13
-8.71768e-14
3.49268e-14
-3.39324e-14
-4.70543e-15
-1.56275e-14
-2.79731e-14
-5.52445e-15
-1.85031e-14
-3.30197e-14
-1.0131e-15
1.17705e-14
7.13672e-15
-2.03858e-14
1.17337e-14
-3.81655e-15
2.44157e-14
-1.17721e-14
0
2.43945e-12
-1.05634e-12
1.61743e-13
-4.66719e-14
7.15131e-15
5.39013e-15
1.05779e-14
3.80302e-15
-1.18421e-17
1.62327e-14
-6.2645e-15
1.61447e-15
1.09777e-14
5.83391e-15
3.70294e-16
-3.77476e-14
1.04694e-14
-4.63914e-14
3.62392e-14
0
-2.98156e-12
1.25683e-12
-2.69968e-13
1.00625e-13
-3.505e-14
6.53929e-15
1.33574e-14
-1.31878e-14
-4.41462e-14
4.49677e-14
1.45637e-15
-4.81736e-14
5.20942e-14
-1.02548e-14
4.94996e-14
2.28192e-14
4.54813e-14
5.9424e-15
-5.33138e-15
-2.71051e-14
-2.98156e-13
-2.70752e-13
5.03737e-14
-2.65085e-15
7.45841e-15
9.47645e-15
2.4772e-14
5.82333e-15
-1.14016e-14
-5.24601e-15
-1.877e-14
3.00857e-14
-9.54807e-15
-8.68686e-15
-1.90551e-14
-5.66891e-14
-2.10915e-14
5.0293e-14
6.15628e-16
0
1.65341e-12
-6.23416e-13
1.6263e-13
-5.42101e-14
2.71051e-14
2.71051e-14
-2.71051e-14
0
0
0
0
0
0
0
0
2.71051e-14
0
0
2.71051e-14
-2.71051e-14
)
;

boundaryField
{
    movingWall
    {
        type            extrapolatedCalculated;
        value           nonuniform List<scalar> 
20
(
1.65341e-12
-6.23416e-13
1.6263e-13
-5.42101e-14
2.71051e-14
2.71051e-14
-2.71051e-14
0
0
0
0
0
0
0
0
2.71051e-14
0
0
2.71051e-14
-2.71051e-14
)
;
    }
    fixedWalls
    {
        type            extrapolatedCalculated;
        value           nonuniform List<scalar> 
60
(
2.54788e-12
-3.90313e-12
1.02999e-12
8.13152e-13
-1.54499e-12
1.73472e-12
5.69206e-13
-2.54788e-12
8.13152e-13
1.68051e-12
-1.68051e-12
7.86047e-13
-5.69206e-13
7.04731e-13
-1.11131e-12
-5.42101e-14
2.43945e-12
-2.98156e-12
-2.98156e-13
1.65341e-12
0
5.42101e-14
-2.71051e-14
0
0
-2.71051e-14
0
-2.71051e-14
5.42101e-14
-2.71051e-14
2.71051e-14
-5.42101e-14
5.42101e-14
-5.42101e-14
-2.71051e-14
0
0
-2.71051e-14
0
-2.71051e-14
2.54788e-12
-9.82467e-13
1.90549e-13
-5.57112e-14
2.08702e-15
-2.83752e-16
2.33913e-14
-1.03409e-14
-4.78922e-15
-1.67118e-15
-5.11791e-15
2.33497e-14
2.24461e-14
-2.97323e-15
2.40067e-15
-2.93647e-14
1.00665e-14
-1.69672e-14
-1.38907e-14
0
)
;
    }
    frontAndBack
    {
        type            empty;
    }
}


// ************************************************************************* //
