/*--------------------------------*- C++ -*----------------------------------*\
| =========                 |                                                 |
| \\      /  F ield         | OpenFOAM: The Open Source CFD Toolbox           |
|  \\    /   O peration     | Version:  2506                                  |
|   \\  /    A nd           | Website:  www.openfoam.com                      |
|    \\/     M anipulation  |                                                 |
\*---------------------------------------------------------------------------*/
FoamFile
{
    version     2.0;
    format      ascii;
    arch        "LSB;label=32;scalar=64";
    class       volScalarField;
    location    "7.75";
    object      enstrophyField;
}
// * * * * * * * * * * * * * * * * * * * * * * * * * * * * * * * * * * * * * //

dimensions      [0 0 -2 0 0 0 0];

internalField   nonuniform List<scalar> 
400
(
1.09251e-24
1.26936e-24
4.50577e-26
1.22257e-26
2.90427e-27
1.18677e-27
1.32277e-28
1.35801e-27
1.95809e-27
5.24674e-28
9.44623e-30
7.93787e-31
3.3705e-27
1.16553e-27
1.68571e-27
2.00798e-27
2.34397e-30
2.5421e-31
2.66012e-31
6.63409e-29
3.0129e-25
1.1549e-26
1.64492e-27
2.4459e-28
1.26636e-27
9.20991e-28
6.56981e-27
8.75895e-27
7.87e-27
6.42752e-27
3.4926e-27
1.56403e-27
3.67515e-28
8.49608e-28
2.87158e-28
1.3894e-27
4.59628e-27
1.60432e-27
1.10365e-27
7.511e-30
1.60129e-24
1.00229e-24
6.65134e-26
1.4172e-26
1.45799e-30
5.97027e-28
2.46109e-28
1.5056e-27
1.02754e-28
3.97018e-27
6.11536e-28
3.83148e-31
7.87007e-27
5.99718e-27
1.25255e-26
7.81892e-28
2.26163e-28
5.90028e-29
1.85797e-29
2.49054e-28
2.78225e-25
3.145e-25
3.50883e-26
1.00805e-28
1.93928e-28
1.89618e-30
4.58602e-30
4.2053e-28
1.53031e-27
5.30897e-28
7.13762e-27
4.35748e-27
2.63014e-28
6.19539e-29
2.61994e-29
1.03262e-26
8.44064e-27
2.85038e-27
7.03093e-28
7.98341e-30
6.5382e-25
6.30233e-26
1.58869e-26
5.31142e-27
8.66822e-28
4.91085e-27
3.9833e-27
7.38465e-27
1.4142e-27
8.22956e-29
1.83494e-29
7.49967e-29
2.19679e-28
1.99235e-27
2.34793e-31
5.00957e-29
3.23912e-28
4.27929e-30
3.71057e-28
9.03291e-28
2.08192e-26
2.81742e-25
6.75331e-27
1.92389e-27
1.38307e-27
1.92666e-27
3.23048e-28
2.34686e-28
9.86951e-28
2.77127e-28
3.245e-29
7.82193e-28
4.31569e-28
1.13924e-33
1.3158e-29
8.91494e-31
6.6405e-29
4.80225e-28
4.62203e-30
4.60751e-28
1.65439e-24
6.65687e-25
4.43367e-26
4.52758e-28
2.97862e-29
9.52562e-30
2.13071e-30
2.53003e-28
3.50289e-29
5.40413e-27
2.10331e-27
2.61149e-29
8.39468e-29
2.51932e-27
4.285e-29
6.79353e-29
9.66644e-29
2.02243e-32
9.75311e-30
1.65638e-28
1.28177e-25
1.89479e-28
6.60731e-28
4.90792e-27
6.87783e-29
1.60395e-27
1.28643e-27
2.21421e-28
6.74399e-28
1.39788e-27
2.01465e-29
5.39987e-28
2.56739e-28
1.31161e-28
2.4664e-31
2.7306e-27
8.74642e-28
6.4055e-28
1.46005e-28
7.15421e-28
2.09049e-24
9.67705e-25
4.70922e-26
7.53125e-28
3.00483e-29
2.23932e-29
1.82582e-29
3.10029e-29
4.16544e-28
7.41309e-28
6.38571e-28
6.72036e-28
7.83144e-28
4.10312e-27
6.8952e-27
3.39312e-27
1.12043e-27
1.61103e-28
1.16938e-27
1.5129e-28
1.97838e-24
4.31303e-25
1.52979e-26
1.37269e-26
1.22598e-29
6.561e-29
1.30948e-27
4.95136e-31
8.27666e-33
3.76055e-28
3.37535e-27
1.08738e-28
3.08495e-27
3.72214e-28
2.42545e-28
5.34495e-27
2.1954e-27
1.10318e-29
1.06536e-27
3.95399e-28
4.76216e-26
1.40763e-26
2.03921e-27
1.13948e-26
3.9314e-27
3.11784e-27
3.58684e-27
2.04694e-30
1.32372e-29
4.53878e-28
1.5896e-27
1.27853e-27
1.61965e-29
5.37378e-28
1.69698e-27
3.19371e-29
7.24532e-28
4.96571e-29
4.36241e-29
4.58343e-29
2.00864e-25
1.14873e-26
3.19275e-27
2.87657e-28
2.29711e-29
1.61735e-27
5.29095e-29
5.54969e-27
4.34748e-27
1.65279e-29
9.57875e-28
5.49869e-30
4.05442e-28
2.43425e-30
1.2772e-27
2.86243e-27
3.47539e-27
2.03428e-27
7.03246e-28
5.45752e-29
3.84939e-25
1.35496e-26
8.89873e-28
8.53741e-27
4.90659e-27
3.81939e-27
7.38917e-27
3.54191e-27
1.65622e-28
1.41342e-27
1.11255e-27
2.50909e-27
3.63289e-27
2.17015e-27
1.44778e-28
4.22994e-27
2.43057e-29
6.66435e-29
1.72972e-29
1.97561e-29
4.07193e-26
2.87785e-26
1.21917e-27
1.61092e-30
3.55091e-27
6.6592e-28
2.55473e-28
1.785e-28
2.88189e-27
1.43161e-27
3.86593e-29
7.21494e-28
2.58335e-27
2.23533e-27
3.21772e-27
2.03258e-27
8.16118e-27
1.47619e-27
8.12301e-29
5.32573e-28
5.19434e-25
3.79105e-25
1.56414e-26
1.08049e-30
6.00093e-27
6.21155e-27
1.17098e-26
7.62364e-27
5.26959e-27
1.09163e-27
3.71764e-27
2.34694e-27
1.71383e-27
9.05808e-28
2.32197e-28
5.7371e-27
1.26517e-27
7.83262e-30
2.06289e-28
1.52414e-27
2.44322e-24
7.57934e-25
4.17968e-26
4.78188e-27
5.42177e-29
5.11505e-28
4.46091e-27
4.23324e-27
3.41758e-27
9.27723e-29
8.72535e-28
1.12875e-27
1.14128e-30
5.76635e-29
9.55933e-29
4.21879e-29
1.6198e-29
8.43562e-29
8.36226e-28
1.26291e-29
1.0814e-24
5.35681e-25
2.23473e-26
4.87679e-27
1.25228e-27
1.68959e-27
5.12821e-29
1.98686e-29
2.1151e-27
8.13509e-28
1.2771e-29
2.12541e-27
2.03974e-27
1.6175e-29
3.76805e-29
3.41678e-27
2.7621e-27
2.19337e-28
1.97083e-28
8.38275e-29
6.9284e-25
2.77886e-25
1.52855e-26
4.1261e-28
1.9925e-29
1.89465e-27
1.96881e-27
9.18495e-30
1.27965e-30
1.91155e-27
1.89993e-27
1.95562e-29
1.48033e-29
1.32765e-28
3.03842e-29
6.55426e-29
7.44057e-28
1.92263e-28
1.50212e-29
4.93675e-29
3.87552e-24
1.00087e-24
6.31098e-26
1.94037e-28
3.85202e-27
7.38966e-27
6.00416e-27
1.41605e-27
5.62591e-27
4.7574e-27
2.69886e-27
4.15338e-27
7.11271e-27
2.28587e-27
8.1793e-28
1.19623e-28
1.40277e-27
2.11922e-27
4.15592e-31
4.88589e-28
5.17694e-25
1.88063e-26
1.7992e-26
1.7485e-28
2.64955e-27
4.64014e-28
1.33744e-27
2.53858e-27
2.30522e-27
1.98893e-27
3.77732e-28
1.81418e-28
1.42539e-27
1.68825e-27
1.91073e-28
9.01981e-29
1.90754e-32
9.41614e-28
3.47903e-29
3.68059e-28
)
;

boundaryField
{
    movingWall
    {
        type            calculated;
        value           nonuniform List<scalar> 
20
(
3.83093e-24
1.26255e-25
1.47244e-25
7.79026e-27
4.57054e-26
2.94533e-26
3.48382e-26
5.60337e-27
1.07923e-26
1.00944e-26
3.97819e-27
6.60738e-28
1.56323e-26
4.29807e-27
6.79051e-28
4.72321e-28
9.77421e-28
3.04231e-27
3.47903e-29
9.87251e-28
)
;
    }
    fixedWalls
    {
        type            calculated;
        value           nonuniform List<scalar> 
60
(
2.21503e-23
4.79405e-25
1.94561e-23
6.07566e-24
1.84145e-24
3.63377e-24
1.23445e-23
2.48464e-26
1.78915e-23
8.73647e-24
1.78045e-25
3.20928e-25
4.80153e-25
5.01506e-25
5.90776e-24
1.4827e-23
1.02565e-23
5.24921e-24
2.04864e-23
8.25941e-25
1.40222e-28
3.22054e-29
7.84495e-28
1.99613e-30
1.19038e-27
5.5989e-28
7.42598e-29
1.11852e-27
3.80218e-29
5.44499e-28
3.44142e-28
7.983e-29
3.16705e-29
2.6881e-28
7.49932e-28
2.74964e-28
3.2414e-29
6.7324e-29
6.81074e-28
2.6121e-28
2.32383e-24
9.64102e-25
5.4891e-26
5.83139e-26
4.67449e-26
2.34477e-26
4.50068e-26
4.76688e-26
2.65453e-26
2.58402e-26
4.3398e-27
4.05701e-27
3.87458e-27
4.48848e-27
1.51001e-26
7.69609e-27
9.16549e-27
9.54665e-28
1.01873e-27
6.63409e-29
)
;
    }
    frontAndBack
    {
        type            empty;
    }
}


// ************************************************************************* //
