/*--------------------------------*- C++ -*----------------------------------*\
| =========                 |                                                 |
| \\      /  F ield         | OpenFOAM: The Open Source CFD Toolbox           |
|  \\    /   O peration     | Version:  2506                                  |
|   \\  /    A nd           | Website:  www.openfoam.com                      |
|    \\/     M anipulation  |                                                 |
\*---------------------------------------------------------------------------*/
FoamFile
{
    version     2.0;
    format      ascii;
    arch        "LSB;label=32;scalar=64";
    class       volScalarField;
    location    "7.75";
    object      flowTypeField;
}
// * * * * * * * * * * * * * * * * * * * * * * * * * * * * * * * * * * * * * //

dimensions      [0 0 0 0 0 0 0];

internalField   nonuniform List<scalar> 
400
(
0.341016
0.0884917
-0.0498468
-0.338344
0.0624825
0.0999983
0.527705
0.159225
0.0379902
0.270273
0.817261
0.889859
0.0261877
0.109152
0.107959
-0.0333429
0.680491
0.934038
0.935863
0.016314
0.706561
0.799747
0.677447
0.790873
0.103637
0.274681
0.0566652
-0.0732059
-0.141528
-0.0292057
-0.0133513
0.00843051
0.700043
0.00154353
0.1466
0.242416
0.184316
0.0253482
0.176955
0.891652
-0.169101
-0.036721
-0.483273
-0.370539
0.90224
0.433606
0.382375
-0.512716
0.67921
-0.0331349
-0.206011
0.935896
-0.00818377
-0.322664
-0.0436405
0.488603
0.614199
0.662969
0.850248
0.0171309
0.410244
0.100833
-0.0638805
0.716865
0.61585
0.284071
0.90864
0.478785
0.41705
0.290535
-0.0940422
-0.0649623
0.322575
0.576963
0.460656
-0.297233
-0.140593
0.0782031
0.304824
0.863485
0.35301
0.20475
-0.0327317
0.0954903
0.23566
0.0857404
-0.0370888
-0.118994
0.0192262
0.516773
0.000205198
0.716267
0.40733
-0.149423
0.888729
0.107923
0.226294
0.877158
0.155929
-0.438757
0.826743
0.152066
0.296289
0.126573
0.0399395
-0.0128137
0.0774078
0.390397
0.251246
0.163577
0.661938
0.0646816
0.0716728
0.857294
0.753534
0.323564
0.735341
0.44743
0.845382
0.210961
-0.17425
-0.11934
-0.671291
0.313525
0.659658
0.916574
0.164536
0.216494
0.661797
-0.181976
-0.174347
0.0913678
0.706776
-0.3048
0.0163978
0.545658
0.53138
0.889064
0.212987
0.324168
0.729609
0.947573
0.663974
0.00293221
0.170143
0.0645386
0.153403
0.0286002
0.373965
0.120192
0.889399
0.435959
0.179525
0.398746
0.905034
-0.214915
0.302242
0.0858907
0.360158
0.0479133
-0.371973
-0.124963
-0.524272
0.374892
0.820922
0.429711
0.745293
0.862462
0.226443
0.287918
-0.304411
0.0687437
-0.288724
0.000161103
0.0482856
0.0396089
0.471622
0.659307
0.111549
0.651903
-0.015015
-0.0400405
-0.125365
-0.118924
0.652554
0.59033
0.154242
0.958296
0.958378
0.0214361
0.0557839
0.236184
-0.231449
0.00681597
0.115235
-0.159176
0.163768
0.708577
0.22373
0.241227
0.692613
0.782909
0.632599
0.0480437
-0.0303643
0.0372825
0.0308514
0.932017
0.382854
-0.0616198
-0.0389283
0.307777
0.582379
0.451387
-0.037529
0.653161
0.0449957
0.131356
0.645949
0.218547
0.255221
0.773167
0.379756
0.544717
0.826722
-0.0301796
0.342413
-0.144574
-0.113395
0.501478
0.212414
0.238654
-0.0492552
0.14464
0.0724238
0.216059
0.032027
-0.0383238
0.067949
0.687026
0.00677417
0.603725
0.579927
-0.0438148
0.142163
-0.0741313
-0.119949
-0.0312894
0.368446
0.133436
0.465583
0.352653
0.0106292
-0.209521
0.0690653
0.0622051
0.391174
0.814303
0.643206
0.842124
0.549733
0.226233
0.433461
0.926066
-0.242068
0.14518
0.188207
0.480953
0.115371
0.0132773
0.808749
0.343931
-0.311819
-0.225305
0.0155891
-0.119874
-0.124809
0.00181008
0.50689
0.530925
0.0951778
-0.0498758
0.0703027
0.967757
0.0199004
0.0854159
-0.126342
-0.137937
0.147425
0.219924
-0.0596307
-0.076893
0.0361854
0.212744
0.19985
0.0182564
0.159214
0.889154
0.447521
0.105117
-0.539932
-0.180431
-0.294944
-0.415223
0.572855
-0.143585
-0.159605
-0.0882337
0.0679126
0.490579
0.293116
0.125123
0.895205
0.000614577
0.506018
0.605922
0.582973
0.716574
-0.430955
0.290505
0.279846
0.168241
-0.0207495
-0.121098
0.179558
0.0748686
0.00366048
0.167797
-0.189677
-0.38363
0.00209234
-0.198347
-0.175762
0.0222448
0.168615
-0.00916376
-0.300711
0.596204
0.592636
0.154105
0.465565
0.337603
0.248748
0.607117
0.837699
-0.133496
-0.153738
0.786793
0.943046
0.182429
-0.122496
0.835903
0.85687
0.255847
0.87227
0.746071
0.0519533
0.51506
0.750194
0.586252
-0.407122
-0.200999
-0.525957
0.5721
-0.0586895
-0.120037
0.0284559
0.121791
0.0507068
0.100219
0.139595
-0.057018
-0.09659
-0.243405
0.0474701
0.685371
-0.492841
0.154491
0.69982
-0.135618
0.325281
0.600505
0.0571161
0.62923
0.147549
0.451819
0.332913
-0.0743794
-0.215097
-0.154998
0.0296481
0.292887
0.0293123
-0.0567497
0.488793
0.614074
0.964032
0.198632
0.63063
0.26489
)
;

boundaryField
{
    movingWall
    {
        type            calculated;
        value           nonuniform List<scalar> 
20
(
0.0202313
0.290548
-0.0614949
0.127048
0.0320055
0.0986361
0.0664157
0.0138209
-0.0975309
-0.0657306
0.0290942
0.183151
0.00571198
-0.0432909
0.275005
0.387778
0.334645
0.159179
0.634145
0.138511
)
;
    }
    fixedWalls
    {
        type            calculated;
        value           nonuniform List<scalar> 
60
(
0.125271
0.754996
-0.08482
0.0870268
0.108896
0.298714
-0.155051
0.895383
-0.163156
-0.0299354
0.828611
0.699762
0.515934
0.116162
0.0355457
-0.224171
0.171312
0.361911
-0.300801
0.535388
0.00799902
0.872394
0.00564456
0.936595
-0.581963
0.331787
0.538743
0.142062
0.662731
0.330949
0.046033
0.749581
0.87413
0.729438
0.419704
0.0287917
0.277489
0.681048
-0.331262
0.502044
0.66191
0.281689
0.480278
-0.246339
0.0168139
0.0275004
0.0429277
0.0282212
-0.0135294
-0.00860724
0.0170139
-0.0079922
0.0198915
-0.0545252
0.0339606
0.103265
0.00334444
0.196486
0.222629
0.377323
)
;
    }
    frontAndBack
    {
        type            empty;
    }
}


// ************************************************************************* //
