/*--------------------------------*- C++ -*----------------------------------*\
| =========                 |                                                 |
| \\      /  F ield         | OpenFOAM: The Open Source CFD Toolbox           |
|  \\    /   O peration     | Version:  2506                                  |
|   \\  /    A nd           | Website:  www.openfoam.com                      |
|    \\/     M anipulation  |                                                 |
\*---------------------------------------------------------------------------*/
FoamFile
{
    version     2.0;
    format      ascii;
    arch        "LSB;label=32;scalar=64";
    class       surfaceScalarField;
    location    "7.75";
    object      fluxField;
}
// * * * * * * * * * * * * * * * * * * * * * * * * * * * * * * * * * * * * * //

dimensions      [0 3 -1 0 0 0 0];

oriented        oriented;

internalField   nonuniform List<scalar> 
760
(
-5e-05
4.29757e-19
-5e-05
-5.58813e-20
-5e-05
2.05323e-20
-5e-05
-3.75263e-22
-5e-05
5.21754e-22
-5e-05
-7.09381e-23
-5e-05
-9.2844e-22
-5e-05
4.19104e-21
-5e-05
5.57896e-21
-5e-05
6.35847e-21
-5e-05
5.49678e-21
-5e-05
5.83743e-21
-5e-05
5.61153e-21
-5e-05
-7.43308e-22
-5e-05
-6.1761e-21
-5e-05
-5.64914e-22
-5e-05
2.51663e-21
-5e-05
2.53447e-21
-5e-05
3.30359e-21
5.45053e-22
-5e-05
-3.32062e-19
-5e-05
6.51801e-20
-5e-05
-1.60994e-20
-5e-05
1.88983e-21
-5e-05
4.41413e-21
-5e-05
4.9192e-22
-5e-05
-3.32257e-21
-5e-05
3.27368e-21
-5e-05
9.60354e-21
-5e-05
1.11173e-20
-5e-05
8.89512e-21
-5e-05
9.71605e-21
-5e-05
9.10602e-21
-5e-05
-1.32168e-21
-5e-05
-8.25026e-21
-5e-05
-7.7941e-21
-5e-05
-4.95784e-21
-5e-05
-2.69415e-21
-5e-05
-1.63338e-21
-2.97726e-21
-5e-05
-1.38124e-19
-5e-05
1.27446e-20
-5e-05
-9.54576e-21
-5e-05
1.34222e-21
-5e-05
8.98815e-21
-5e-05
5.83883e-21
-5e-05
3.58755e-21
-5e-05
6.31146e-21
-5e-05
1.00559e-20
-5e-05
9.61716e-21
-5e-05
6.73749e-21
-5e-05
4.88561e-21
-5e-05
3.50895e-21
-5e-05
1.66818e-21
-5e-05
4.51474e-22
-5e-05
-5.82888e-21
-5e-05
-1.14808e-20
-5e-05
-9.74654e-21
-5e-05
-7.31205e-21
-4.04484e-21
-5e-05
1.48746e-19
-5e-05
-4.48494e-20
-5e-05
5.34874e-21
-5e-05
-2.85649e-21
-5e-05
3.46048e-21
-5e-05
5.21029e-21
-5e-05
5.30257e-21
-5e-05
2.46799e-21
-5e-05
1.55137e-21
-5e-05
2.44667e-21
-5e-05
3.75028e-21
-5e-05
1.19646e-21
-5e-05
-2.32121e-21
-5e-05
7.02857e-22
-5e-05
3.9008e-21
-5e-05
-1.27814e-21
-5e-05
-7.4239e-21
-5e-05
-7.06825e-21
-5e-05
-6.70233e-21
-2.92468e-21
-5e-05
-2.5794e-19
-5e-05
4.30184e-20
-5e-05
-8.62322e-21
-5e-05
3.28219e-21
-5e-05
1.4464e-21
-5e-05
6.02148e-21
-5e-05
5.74161e-21
-5e-05
3.61466e-21
-5e-05
1.10439e-21
-5e-05
1.42616e-21
-5e-05
3.78271e-21
-5e-05
9.26634e-22
-5e-05
-2.3909e-21
-5e-05
-1.17796e-21
-5e-05
-1.5037e-22
-5e-05
-2.63175e-21
-5e-05
-2.31894e-21
-5e-05
-1.63838e-22
-5e-05
-2.0788e-21
-9.58118e-22
-5e-05
5.56628e-20
-5e-05
2.48456e-21
-5e-05
2.29772e-21
-5e-05
7.21767e-21
-5e-05
3.50614e-21
-5e-05
4.88411e-21
-5e-05
4.38121e-21
-5e-05
3.94637e-21
-5e-05
1.86857e-21
-5e-05
3.59352e-21
-5e-05
6.63986e-21
-5e-05
4.24159e-21
-5e-05
1.72129e-21
-5e-05
4.33702e-22
-5e-05
-2.46009e-21
-5e-05
-3.16314e-21
-5e-05
7.87816e-22
-5e-05
3.19401e-21
-5e-05
1.70905e-21
1.32977e-21
-5e-05
2.67819e-19
-5e-05
-5.4843e-20
-5e-05
8.37034e-21
-5e-05
1.58514e-21
-5e-05
5.28734e-21
-5e-05
2.58767e-21
-5e-05
4.8032e-21
-5e-05
1.19989e-21
-5e-05
-1.61037e-21
-5e-05
8.87175e-22
-5e-05
4.38533e-21
-5e-05
5.13618e-21
-5e-05
4.01805e-21
-5e-05
7.85591e-22
-5e-05
-2.90245e-21
-5e-05
-1.35318e-21
-5e-05
4.9341e-21
-5e-05
5.80273e-21
-5e-05
2.71197e-21
2.1944e-21
-5e-05
-2.92933e-19
-5e-05
3.46387e-20
-5e-05
-1.09884e-20
-5e-05
8.84304e-22
-5e-05
3.15415e-21
-5e-05
1.87837e-21
-5e-05
5.43427e-21
-5e-05
2.51739e-21
-5e-05
2.14192e-21
-5e-05
5.51711e-22
-5e-05
-1.45062e-21
-5e-05
-1.93844e-23
-5e-05
2.37799e-21
-5e-05
1.98719e-21
-5e-05
1.96909e-21
-5e-05
4.41587e-21
-5e-05
7.15743e-21
-5e-05
6.37759e-21
-5e-05
2.69685e-21
2.41106e-21
-5e-05
-1.34637e-19
-5e-05
3.26491e-20
-5e-05
-5.47835e-21
-5e-05
-3.45494e-22
-5e-05
-3.31734e-21
-5e-05
-1.04561e-21
-5e-05
1.21951e-21
-5e-05
1.22367e-21
-5e-05
2.93932e-21
-5e-05
1.69538e-21
-5e-05
-9.07119e-22
-5e-05
-2.50774e-22
-5e-05
5.16878e-21
-5e-05
8.95171e-21
-5e-05
7.53185e-21
-5e-05
5.69861e-21
-5e-05
2.27853e-21
-5e-05
9.6722e-22
-5e-05
1.16409e-21
1.51748e-21
-5e-05
1.54502e-19
-5e-05
-1.2192e-20
-5e-05
4.9145e-21
-5e-05
6.8857e-23
-5e-05
1.23216e-21
-5e-05
3.14612e-21
-5e-05
3.50874e-21
-5e-05
4.7503e-21
-5e-05
3.76579e-21
-5e-05
3.49613e-21
-5e-05
3.0897e-21
-5e-05
3.1644e-21
-5e-05
5.86581e-21
-5e-05
7.82618e-21
-5e-05
4.491e-21
-5e-05
1.30808e-21
-5e-05
-3.02623e-21
-5e-05
-4.44557e-21
-5e-05
6.39481e-22
2.00813e-21
-5e-05
-3.65463e-20
-5e-05
4.22525e-21
-5e-05
2.6365e-21
-5e-05
2.13566e-22
-5e-05
4.99336e-22
-5e-05
3.58378e-22
-5e-05
-7.53965e-22
-5e-05
3.7757e-21
-5e-05
5.76148e-21
-5e-05
5.47228e-21
-5e-05
3.56814e-21
-5e-05
2.31848e-21
-5e-05
1.82843e-21
-5e-05
1.23835e-21
-5e-05
9.60443e-22
-5e-05
-6.90814e-22
-5e-05
-2.4507e-21
-5e-05
-2.91715e-21
-5e-05
2.43449e-21
4.12349e-21
-5e-05
-6.83903e-22
-5e-05
1.41515e-20
-5e-05
9.60749e-21
-5e-05
3.95617e-21
-5e-05
-1.95154e-21
-5e-05
-2.17493e-21
-5e-05
-4.13887e-21
-5e-05
-2.88972e-21
-5e-05
1.15819e-21
-5e-05
2.31943e-21
-5e-05
-1.86282e-23
-5e-05
1.46901e-21
-5e-05
1.77134e-21
-5e-05
8.30642e-22
-5e-05
-5.94748e-22
-5e-05
-4.34069e-21
-5e-05
-4.67348e-21
-5e-05
-2.08359e-21
-5e-05
6.06543e-22
1.98638e-21
-5e-05
-4.03106e-20
-5e-05
3.24696e-20
-5e-05
5.61746e-21
-5e-05
9.57792e-21
-5e-05
5.03598e-22
-5e-05
-2.3742e-21
-5e-05
-3.36497e-21
-5e-05
-4.53547e-21
-5e-05
-2.02487e-21
-5e-05
-9.60317e-22
-5e-05
-1.58905e-21
-5e-05
5.37746e-21
-5e-05
3.75037e-21
-5e-05
-2.10686e-23
-5e-05
-2.33053e-21
-5e-05
-4.00167e-21
-5e-05
-7.3833e-21
-5e-05
-7.09331e-21
-5e-05
-4.52846e-21
-2.43639e-21
-5e-05
1.33607e-19
-5e-05
-2.46773e-20
-5e-05
3.00149e-21
-5e-05
4.18911e-22
-5e-05
-3.69355e-21
-5e-05
-6.81344e-21
-5e-05
-5.2812e-21
-5e-05
-1.31092e-21
-5e-05
5.36361e-22
-5e-05
-1.40194e-21
-5e-05
-1.15954e-21
-5e-05
4.40426e-21
-5e-05
5.13629e-21
-5e-05
1.07085e-21
-5e-05
-9.3867e-22
-5e-05
-4.44749e-23
-5e-05
-3.65144e-21
-5e-05
-5.85609e-21
-5e-05
-4.67234e-21
-9.71342e-22
-5e-05
-6.96066e-20
-5e-05
-4.59634e-21
-5e-05
-6.59821e-21
-5e-05
-5.5554e-21
-5e-05
-2.84588e-21
-5e-05
-2.6689e-21
-5e-05
-3.30608e-21
-5e-05
-1.57668e-21
-5e-05
-2.21574e-21
-5e-05
-3.35659e-21
-5e-05
-7.16032e-22
-5e-05
9.80641e-22
-5e-05
4.53366e-21
-5e-05
1.68694e-21
-5e-05
-1.06286e-21
-5e-05
-3.15862e-21
-5e-05
-3.6849e-21
-5e-05
-2.71261e-21
-5e-05
-1.42715e-21
2.43328e-21
-5e-05
-1.6619e-20
-5e-05
-5.72091e-21
-5e-05
-1.46541e-21
-5e-05
-4.82082e-21
-5e-05
-1.70685e-21
-5e-05
-1.17636e-21
-5e-05
-3.90687e-21
-5e-05
-6.99327e-21
-5e-05
-8.15738e-21
-5e-05
-4.62577e-21
-5e-05
-1.47867e-21
-5e-05
-2.53275e-22
-5e-05
2.94264e-21
-5e-05
1.78418e-21
-5e-05
1.6798e-21
-5e-05
-3.84284e-21
-5e-05
-7.7304e-21
-5e-05
-7.44861e-21
-5e-05
-2.94304e-21
9.62435e-22
-5e-05
4.04263e-19
-5e-05
-6.75746e-20
-5e-05
1.33308e-20
-5e-05
-4.89171e-21
-5e-05
-4.98844e-21
-5e-05
-5.42873e-21
-5e-05
-4.13178e-21
-5e-05
-5.82551e-21
-5e-05
-6.77922e-21
-5e-05
-2.71809e-21
-5e-05
-1.56613e-21
-5e-05
4.03618e-22
-5e-05
2.74441e-21
-5e-05
1.45848e-21
-5e-05
9.25736e-23
-5e-05
-2.66064e-21
-5e-05
-4.15891e-21
-5e-05
-4.82159e-21
-5e-05
-4.49272e-21
-1.22846e-21
-5e-05
-1.26404e-19
-5e-05
9.27688e-21
-5e-05
-6.50572e-21
-5e-05
-1.94889e-21
-5e-05
-1.98622e-21
-5e-05
-5.14144e-21
-5e-05
-3.43692e-21
-5e-05
-3.29695e-21
-5e-05
-4.26028e-21
-5e-05
-2.31059e-21
-5e-05
3.64094e-22
-5e-05
1.50914e-21
-5e-05
-5.28982e-22
-5e-05
-2.56369e-21
-5e-05
-7.95389e-21
-5e-05
-7.84772e-21
-5e-05
-2.18221e-21
-5e-05
1.4856e-21
-5e-05
-1.33285e-21
-1.12597e-22
-5e-05
-2.723e-19
-5e-05
2.04034e-20
-5e-05
-7.73536e-21
-5e-05
-6.62711e-22
-5e-05
1.8646e-21
-5e-05
-4.40715e-21
-5e-05
-7.35954e-21
-5e-05
-5.32043e-21
-5e-05
-2.85039e-21
-5e-05
-1.3115e-21
-5e-05
2.08376e-21
-5e-05
7.45168e-22
-5e-05
-2.38702e-21
-5e-05
-2.17172e-21
-5e-05
-4.76377e-21
-5e-05
-7.39602e-21
-5e-05
-5.27288e-21
-5e-05
-9.79278e-22
-5e-05
1.53907e-22
8.78174e-22
-5e-05
-5e-05
-5e-05
-5e-05
-5e-05
-5e-05
-5e-05
-5e-05
-5e-05
-5e-05
-5e-05
-5e-05
-5e-05
-5e-05
-5e-05
-5e-05
-5e-05
-5e-05
-5e-05
)
;

boundaryField
{
    movingWall
    {
        type            calculated;
        value           uniform -0;
    }
    fixedWalls
    {
        type            calculated;
        value           nonuniform List<scalar> 
60
(
5e-05
5e-05
5e-05
5e-05
5e-05
5e-05
5e-05
5e-05
5e-05
5e-05
5e-05
5e-05
5e-05
5e-05
5e-05
5e-05
5e-05
5e-05
5e-05
5e-05
-5e-05
-5e-05
-5e-05
-5e-05
-5e-05
-5e-05
-5e-05
-5e-05
-5e-05
-5e-05
-5e-05
-5e-05
-5e-05
-5e-05
-5e-05
-5e-05
-5e-05
-5e-05
-5e-05
-5e-05
0
0
0
0
0
0
0
0
0
0
0
0
0
0
0
0
0
0
0
0
)
;
    }
    frontAndBack
    {
        type            empty;
    }
}


// ************************************************************************* //
