/*--------------------------------*- C++ -*----------------------------------*\
| =========                 |                                                 |
| \\      /  F ield         | OpenFOAM: The Open Source CFD Toolbox           |
|  \\    /   O peration     | Version:  2506                                  |
|   \\  /    A nd           | Website:  www.openfoam.com                      |
|    \\/     M anipulation  |                                                 |
\*---------------------------------------------------------------------------*/
FoamFile
{
    version     2.0;
    format      ascii;
    arch        "LSB;label=32;scalar=64";
    class       volVectorField;
    location    "7.75";
    object      gradPhi;
}
// * * * * * * * * * * * * * * * * * * * * * * * * * * * * * * * * * * * * * //

dimensions      [0 2 -1 0 0 0 0];

internalField   nonuniform List<vector> 
400
(
(-0.02 -2.15657e-17 0)
(-3.30872e-18 2.83416e-18 0)
(-4.96308e-18 4.02288e-18 0)
(0 1.55054e-18 0)
(0 3.08076e-19 0)
(0 -3.3556e-19 0)
(0 -8.85687e-19 0)
(0 7.26742e-19 0)
(-1.65436e-18 1.22036e-18 0)
(-1.65436e-18 1.73984e-18 0)
(-1.65436e-18 1.48772e-18 0)
(-1.65436e-18 5.89108e-19 0)
(1.65436e-18 -2.29933e-19 0)
(0 -5.83975e-19 0)
(1.65436e-18 -1.55221e-18 0)
(0 8.3373e-19 0)
(-1.65436e-18 1.02226e-18 0)
(-1.65436e-18 5.53706e-19 0)
(0 9.30529e-19 0)
(0 1.0051e-18 0)
(-0.02 1.56694e-17 0)
(4.96308e-18 -3.07991e-18 0)
(6.61744e-18 -6.23844e-18 0)
(3.30872e-18 -2.1782e-18 0)
(-1.65436e-18 5.59826e-19 0)
(0 7.31761e-19 0)
(-1.65436e-18 5.57337e-19 0)
(1.65436e-18 -2.36068e-19 0)
(0 -1.37936e-20 0)
(0 -3.02292e-20 0)
(0 2.78815e-20 0)
(-1.65436e-18 1.90151e-18 0)
(-4.96308e-18 3.98052e-18 0)
(0 1.14467e-18 0)
(0 -2.06059e-19 0)
(3.30872e-18 -4.3426e-18 0)
(4.96308e-18 -2.55809e-18 0)
(0 -1.21525e-18 0)
(0 -9.0639e-19 0)
(1.65436e-18 -2.13179e-18 0)
(-0.02 -1.05859e-17 0)
(-6.61744e-18 7.33422e-18 0)
(1.65436e-18 -1.00275e-18 0)
(-1.65436e-18 5.44108e-19 0)
(-1.65436e-18 1.31536e-18 0)
(-1.65436e-18 7.2916e-19 0)
(-1.65436e-18 7.63014e-19 0)
(0 7.70885e-19 0)
(0 1.74168e-18 0)
(-1.65436e-18 6.70512e-19 0)
(0 -8.06534e-22 0)
(1.65436e-18 -1.81165e-18 0)
(1.65436e-18 -4.16991e-18 0)
(1.65436e-18 -4.62778e-19 0)
(-3.30872e-18 2.48927e-18 0)
(-1.65436e-18 3.82966e-18 0)
(0 -7.10772e-19 0)
(1.65436e-18 -1.31942e-18 0)
(1.65436e-18 -2.20232e-18 0)
(0 2.80982e-20 0)
(-0.02 1.80392e-17 0)
(1.48893e-17 -1.36648e-17 0)
(-4.96308e-18 4.6309e-18 0)
(0 1.07469e-20 0)
(3.30872e-18 -2.18242e-18 0)
(0 -4.9911e-20 0)
(-1.65436e-18 1.22843e-18 0)
(1.65436e-18 -6.8828e-19 0)
(3.30872e-18 -3.21508e-18 0)
(1.65436e-18 -2.05322e-18 0)
(0 -1.01611e-18 0)
(1.65436e-18 -3.78953e-19 0)
(0 7.44528e-20 0)
(0 -3.26518e-19 0)
(0 -4.02542e-19 0)
(0 -6.8393e-19 0)
(-1.65436e-18 1.22089e-18 0)
(0 5.95007e-19 0)
(-1.65436e-18 1.27203e-18 0)
(0 6.15302e-19 0)
(-0.02 -7.46067e-18 0)
(-9.92617e-18 8.98289e-18 0)
(3.30872e-18 -2.84253e-18 0)
(1.65436e-18 -4.73498e-20 0)
(-1.65436e-18 5.02644e-19 0)
(0 -4.54495e-19 0)
(1.65436e-18 -1.16224e-18 0)
(1.65436e-18 1.97188e-19 0)
(-1.65436e-18 6.74253e-19 0)
(0 -3.43807e-19 0)
(0 5.31373e-19 0)
(-1.65436e-18 3.88481e-20 0)
(1.65436e-18 -3.45402e-20 0)
(-1.65436e-18 2.8483e-19 0)
(0 -3.54341e-20 0)
(0 -3.78986e-19 0)
(0 -7.12435e-20 0)
(-1.65436e-18 1.66679e-18 0)
(0 2.01418e-19 0)
(0 -9.00893e-20 0)
(-0.02 -6.19657e-18 0)
(0 1.29002e-18 0)
(-1.65436e-18 1.71453e-18 0)
(-1.65436e-18 2.44647e-18 0)
(0 1.4536e-19 0)
(-1.65436e-18 1.39674e-18 0)
(0 7.9641e-19 0)
(0 -5.02362e-22 0)
(1.65436e-18 1.1292e-20 0)
(-1.65436e-18 1.15837e-18 0)
(1.65436e-18 -8.34805e-20 0)
(-1.65436e-18 1.87724e-19 0)
(0 6.18232e-19 0)
(0 -1.81521e-19 0)
(1.65436e-18 -1.10578e-18 0)
(0 2.7413e-19 0)
(-1.65436e-18 1.59952e-18 0)
(0 -2.99944e-19 0)
(0 1.17327e-18 0)
(-1.65436e-18 1.64011e-18 0)
(-0.02 1.29527e-17 0)
(9.92617e-18 -9.64972e-18 0)
(-3.30872e-18 1.33179e-18 0)
(1.65436e-18 -1.67202e-18 0)
(0 4.52071e-19 0)
(3.30872e-18 -2.23684e-18 0)
(1.65436e-18 -8.26679e-19 0)
(0 -6.89649e-19 0)
(1.65436e-18 -1.06321e-18 0)
(0 -1.46788e-18 0)
(0 4.24575e-19 0)
(0 1.029e-18 0)
(0 7.02092e-19 0)
(-1.65436e-18 5.33892e-19 0)
(0 4.7607e-19 0)
(1.65436e-18 -1.28144e-19 0)
(0 4.5096e-19 0)
(-3.30872e-18 1.74953e-18 0)
(0 9.23735e-20 0)
(1.65436e-18 -1.412e-18 0)
(-0.02 -3.74751e-18 0)
(-8.27181e-18 6.20229e-18 0)
(4.96308e-18 -3.88811e-18 0)
(1.65436e-18 -1.78723e-18 0)
(0 2.06062e-20 0)
(-1.65436e-18 1.0044e-18 0)
(-1.65436e-18 1.71251e-18 0)
(-1.65436e-18 1.17536e-18 0)
(-1.65436e-18 1.64304e-18 0)
(0 9.11628e-19 0)
(1.65436e-18 -2.10234e-18 0)
(3.30872e-18 -2.11106e-18 0)
(1.65436e-18 -5.89636e-19 0)
(0 -2.99516e-19 0)
(0 3.89849e-19 0)
(-1.65436e-18 1.42619e-18 0)
(0 3.46231e-19 0)
(0 -5.48509e-19 0)
(0 -1.44247e-21 0)
(-1.65436e-18 1.74828e-18 0)
(-0.02 -1.57912e-18 0)
(-4.96308e-18 3.76103e-18 0)
(-1.65436e-18 1.28688e-18 0)
(-1.65436e-18 1.86786e-18 0)
(1.65436e-18 -2.17639e-18 0)
(1.65436e-18 -1.36675e-18 0)
(1.65436e-18 -3.43861e-18 0)
(3.30872e-18 -2.32927e-18 0)
(1.65436e-18 -9.41416e-19 0)
(0 -3.15873e-19 0)
(0 9.65786e-19 0)
(-1.65436e-18 9.33544e-19 0)
(0 7.31464e-19 0)
(-1.65436e-18 1.67783e-18 0)
(-1.65436e-18 1.50597e-18 0)
(-1.65436e-18 4.70228e-19 0)
(1.65436e-18 -6.23296e-19 0)
(0 -7.27002e-19 0)
(0 -1.95071e-19 0)
(1.65436e-18 -1.71936e-18 0)
(-0.02 -1.1507e-17 0)
(-4.96308e-18 5.71834e-18 0)
(-1.65436e-18 1.94627e-18 0)
(0 -4.07409e-19 0)
(-1.65436e-18 9.80415e-19 0)
(0 1.33538e-18 0)
(-1.65436e-18 3.36147e-18 0)
(-3.30872e-18 3.12885e-18 0)
(-1.65436e-18 9.81204e-19 0)
(0 2.38001e-19 0)
(0 8.41219e-20 0)
(0 -1.51096e-19 0)
(0 9.85196e-20 0)
(0 1.63274e-19 0)
(1.65436e-18 -3.92537e-19 0)
(0 -9.2003e-19 0)
(1.65436e-18 -1.25835e-18 0)
(1.65436e-18 -1.5107e-18 0)
(1.65436e-18 -3.77769e-19 0)
(-1.65436e-18 6.98532e-19 0)
(-0.02 2.86554e-17 0)
(2.31611e-17 -2.26944e-17 0)
(1.65436e-18 -5.95956e-20 0)
(0 -1.2005e-18 0)
(0 8.74903e-19 0)
(0 -5.46663e-19 0)
(1.65436e-18 -3.14503e-18 0)
(1.65436e-18 -1.68948e-18 0)
(0 1.51789e-19 0)
(0 5.84941e-19 0)
(-1.65436e-18 2.12223e-19 0)
(-1.65436e-18 5.25884e-19 0)
(0 -6.25285e-19 0)
(3.30872e-18 -1.86278e-18 0)
(0 -1.01795e-18 0)
(1.65436e-18 -1.22327e-19 0)
(-1.65436e-18 1.65373e-19 0)
(0 -8.20597e-20 0)
(0 5.43854e-19 0)
(0 4.7893e-19 0)
(-0.02 -2.18595e-17 0)
(-2.48154e-17 2.61344e-17 0)
(-1.65436e-18 3.82721e-19 0)
(-1.65436e-18 2.17548e-18 0)
(3.30872e-18 -2.29041e-18 0)
(0 -8.3584e-19 0)
(0 4.66413e-19 0)
(0 -8.62045e-19 0)
(0 -1.04791e-18 0)
(0 -2.80536e-19 0)
(0 2.97439e-19 0)
(0 -9.5244e-19 0)
(0 -6.62399e-19 0)
(0 -1.76964e-20 0)
(0 -3.86104e-19 0)
(3.30872e-18 -2.11295e-18 0)
(1.65436e-18 -9.29977e-19 0)
(-1.65436e-18 1.35758e-18 0)
(0 -4.389e-19 0)
(0 6.13396e-19 0)
(-0.02 1.27035e-17 0)
(1.48893e-17 -1.37381e-17 0)
(-1.65436e-18 7.82566e-19 0)
(-1.65436e-18 4.87507e-19 0)
(-1.65436e-18 2.62496e-18 0)
(-1.65436e-18 4.30732e-19 0)
(0 1.32293e-19 0)
(0 -4.68946e-19 0)
(0 -8.00643e-19 0)
(1.65436e-18 -1.42791e-18 0)
(3.30872e-18 -2.12916e-18 0)
(-3.30872e-18 2.20208e-18 0)
(-1.65436e-18 1.4268e-18 0)
(0 1.12661e-19 0)
(0 -4.99434e-20 0)
(-1.65436e-18 1.64002e-18 0)
(0 -1.44922e-19 0)
(1.65436e-18 -2.13561e-18 0)
(1.65436e-18 -9.91082e-19 0)
(3.30872e-18 -3.33048e-18 0)
(-0.02 1.04584e-18 0)
(0 5.60808e-19 0)
(3.30872e-18 -2.54345e-18 0)
(0 -1.05548e-18 0)
(1.65436e-18 -2.15926e-18 0)
(1.65436e-18 -1.58258e-18 0)
(1.65436e-18 -8.90389e-19 0)
(-1.65436e-18 8.33483e-19 0)
(-3.30872e-18 1.32732e-18 0)
(0 7.68978e-19 0)
(0 1.59392e-18 0)
(0 -1.57333e-18 0)
(0 -8.26763e-19 0)
(0 -3.29918e-19 0)
(0 -5.32428e-20 0)
(0 4.66351e-19 0)
(0 1.40011e-18 0)
(0 8.80952e-19 0)
(0 -4.66298e-20 0)
(-1.65436e-18 1.76032e-18 0)
(-0.02 1.5629e-18 0)
(0 -6.73296e-19 0)
(0 -6.56576e-19 0)
(0 -2.35154e-18 0)
(0 3.63475e-19 0)
(-1.65436e-18 1.50489e-18 0)
(0 5.84027e-19 0)
(0 -5.23694e-19 0)
(1.65436e-18 -1.49117e-18 0)
(1.65436e-18 -1.22606e-18 0)
(1.65436e-18 -5.7526e-19 0)
(0 -3.82245e-19 0)
(-1.65436e-18 8.72113e-19 0)
(-1.65436e-18 7.70694e-19 0)
(1.65436e-18 1.96351e-19 0)
(0 -1.03552e-18 0)
(1.65436e-18 -1.05413e-18 0)
(-1.65436e-18 1.13317e-18 0)
(0 5.61604e-19 0)
(-1.65436e-18 1.08507e-18 0)
(-0.02 1.19474e-17 0)
(9.92617e-18 -1.04748e-17 0)
(-1.65436e-18 1.4181e-18 0)
(0 -6.16081e-20 0)
(-1.65436e-18 4.58865e-19 0)
(0 2.31641e-19 0)
(0 3.36469e-19 0)
(0 -3.78837e-19 0)
(1.65436e-18 -5.11121e-19 0)
(0 3.53653e-19 0)
(-1.65436e-18 1.49799e-20 0)
(0 8.39947e-20 0)
(1.65436e-18 -1.16661e-18 0)
(0 -3.45761e-19 0)
(0 2.74266e-19 0)
(0 -6.51556e-19 0)
(0 -5.71667e-19 0)
(3.30872e-18 -2.49441e-18 0)
(0 1.00753e-19 0)
(0 -6.42493e-19 0)
(-0.02 -1.81173e-17 0)
(-1.32349e-17 1.36325e-17 0)
(-1.65436e-18 1.66828e-18 0)
(-1.65436e-18 2.08824e-18 0)
(1.65436e-18 -1.03134e-18 0)
(0 -1.2398e-18 0)
(0 -7.928e-19 0)
(0 -4.2878e-19 0)
(0 -5.09347e-19 0)
(0 3.87838e-19 0)
(0 2.6461e-20 0)
(0 -5.20693e-19 0)
(0 6.97089e-19 0)
(0 9.66563e-21 0)
(0 4.47113e-19 0)
(0 2.0492e-18 0)
(-1.65436e-18 1.36829e-18 0)
(-1.65436e-18 1.75588e-18 0)
(0 -1.02236e-18 0)
(1.65436e-18 -1.37586e-18 0)
(-0.02 1.47937e-17 0)
(9.92617e-18 -1.04791e-17 0)
(3.30872e-18 -2.38974e-18 0)
(1.65436e-18 -1.36929e-18 0)
(-1.65436e-18 1.04307e-18 0)
(0 1.68052e-19 0)
(0 6.94889e-19 0)
(-1.65436e-18 1.06622e-18 0)
(-1.65436e-18 1.15406e-18 0)
(1.65436e-18 -6.13649e-19 0)
(0 1.87614e-19 0)
(-1.65436e-18 1.4135e-18 0)
(1.65436e-18 -1.11046e-18 0)
(0 -8.04063e-19 0)
(3.30872e-18 -3.0511e-18 0)
(3.30872e-18 -3.24029e-18 0)
(1.65436e-18 -4.36896e-19 0)
(-1.65436e-18 1.10607e-18 0)
(-1.65436e-18 1.2934e-18 0)
(-1.65436e-18 1.60902e-18 0)
(-0.02 -9.65828e-18 0)
(-1.15805e-17 1.23735e-17 0)
(1.65436e-18 -1.73872e-18 0)
(0 3.07535e-19 0)
(0 4.88019e-19 0)
(0 2.70984e-19 0)
(1.65436e-18 -1.07548e-18 0)
(0 -8.44958e-19 0)
(0 3.07658e-19 0)
(0 8.91504e-19 0)
(-1.65436e-18 5.44332e-19 0)
(1.65436e-18 -1.2846e-18 0)
(0 -3.49763e-19 0)
(0 2.21643e-19 0)
(-1.65436e-18 2.23298e-18 0)
(-3.30872e-18 1.55628e-18 0)
(1.65436e-18 -4.00684e-19 0)
(1.65436e-18 -7.10209e-19 0)
(0 -1.04831e-20 0)
(0 -5.96535e-19 0)
(-0.02 -5.09246e-18 0)
(4.96308e-18 -4.36991e-18 0)
(-1.65436e-18 2.17498e-18 0)
(0 6.52132e-19 0)
(0 -2.97844e-19 0)
(0 8.44694e-19 0)
(-3.30872e-18 1.58365e-18 0)
(-1.65436e-18 1.24177e-18 0)
(0 3.81027e-19 0)
(0 5.39009e-20 0)
(0 -4.91269e-19 0)
(0 2.60865e-19 0)
(0 5.64016e-19 0)
(0 2.95365e-19 0)
(0 2.41031e-19 0)
(-1.65436e-18 1.07053e-18 0)
(0 1.1864e-18 0)
(0 2.44414e-19 0)
(0 2.32055e-20 0)
(0 1.64437e-20 0)
)
;

boundaryField
{
    movingWall
    {
        type            extrapolatedCalculated;
        value           nonuniform List<vector> 
20
(
(-0.02 -5.09246e-18 0)
(4.96308e-18 -4.36991e-18 0)
(-1.65436e-18 2.17498e-18 0)
(0 6.52132e-19 0)
(0 -2.97844e-19 0)
(0 8.44694e-19 0)
(-3.30872e-18 1.58365e-18 0)
(-1.65436e-18 1.24177e-18 0)
(0 3.81027e-19 0)
(0 5.39009e-20 0)
(0 -4.91269e-19 0)
(0 2.60865e-19 0)
(0 5.64016e-19 0)
(0 2.95365e-19 0)
(0 2.41031e-19 0)
(-1.65436e-18 1.07053e-18 0)
(0 1.1864e-18 0)
(0 2.44414e-19 0)
(0 2.32055e-20 0)
(0 1.64437e-20 0)
)
;
    }
    fixedWalls
    {
        type            extrapolatedCalculated;
        value           nonuniform List<vector> 
60
(
(-0.02 -2.15657e-17 0)
(-0.02 1.56694e-17 0)
(-0.02 -1.05859e-17 0)
(-0.02 1.80392e-17 0)
(-0.02 -7.46067e-18 0)
(-0.02 -6.19657e-18 0)
(-0.02 1.29527e-17 0)
(-0.02 -3.74751e-18 0)
(-0.02 -1.57912e-18 0)
(-0.02 -1.1507e-17 0)
(-0.02 2.86554e-17 0)
(-0.02 -2.18595e-17 0)
(-0.02 1.27035e-17 0)
(-0.02 1.04584e-18 0)
(-0.02 1.5629e-18 0)
(-0.02 1.19474e-17 0)
(-0.02 -1.81173e-17 0)
(-0.02 1.47937e-17 0)
(-0.02 -9.65828e-18 0)
(-0.02 -5.09246e-18 0)
(0 1.0051e-18 0)
(1.65436e-18 -2.13179e-18 0)
(0 2.80982e-20 0)
(0 6.15302e-19 0)
(0 -9.00893e-20 0)
(-1.65436e-18 1.64011e-18 0)
(1.65436e-18 -1.412e-18 0)
(-1.65436e-18 1.74828e-18 0)
(1.65436e-18 -1.71936e-18 0)
(-1.65436e-18 6.98532e-19 0)
(0 4.7893e-19 0)
(0 6.13396e-19 0)
(3.30872e-18 -3.33048e-18 0)
(-1.65436e-18 1.76032e-18 0)
(-1.65436e-18 1.08507e-18 0)
(0 -6.42493e-19 0)
(1.65436e-18 -1.37586e-18 0)
(-1.65436e-18 1.60902e-18 0)
(0 -5.96535e-19 0)
(0 1.64437e-20 0)
(-0.02 -2.15657e-17 0)
(-3.30872e-18 2.83416e-18 0)
(-4.96308e-18 4.02288e-18 0)
(0 1.55054e-18 0)
(0 3.08076e-19 0)
(0 -3.3556e-19 0)
(0 -8.85687e-19 0)
(0 7.26742e-19 0)
(-1.65436e-18 1.22036e-18 0)
(-1.65436e-18 1.73984e-18 0)
(-1.65436e-18 1.48772e-18 0)
(-1.65436e-18 5.89108e-19 0)
(1.65436e-18 -2.29933e-19 0)
(0 -5.83975e-19 0)
(1.65436e-18 -1.55221e-18 0)
(0 8.3373e-19 0)
(-1.65436e-18 1.02226e-18 0)
(-1.65436e-18 5.53706e-19 0)
(0 9.30529e-19 0)
(0 1.0051e-18 0)
)
;
    }
    frontAndBack
    {
        type            empty;
    }
}


// ************************************************************************* //
