/*--------------------------------*- C++ -*----------------------------------*\
| =========                 |                                                 |
| \\      /  F ield         | OpenFOAM: The Open Source CFD Toolbox           |
|  \\    /   O peration     | Version:  2506                                  |
|   \\  /    A nd           | Website:  www.openfoam.com                      |
|    \\/     M anipulation  |                                                 |
\*---------------------------------------------------------------------------*/
FoamFile
{
    version     2.0;
    format      ascii;
    arch        "LSB;label=32;scalar=64";
    class       volTensorField;
    location    "7.75";
    object      gradU;
}
// * * * * * * * * * * * * * * * * * * * * * * * * * * * * * * * * * * * * * //

dimensions      [0 0 -1 0 0 0 0];

internalField   nonuniform List<tensor> 
400
(
(8.40257e-13 1.39687e-12 0 -8.13152e-14 1.71903e-12 0 0 0 0)
(-7.58942e-13 -1.56623e-12 0 2.71051e-14 -2.23525e-13 0 0 0 0)
(1.0842e-13 2.45982e-13 0 -5.42101e-14 8.21291e-14 0 0 0 0)
(-5.42101e-14 -7.50545e-14 0 8.13152e-14 -1.50105e-15 0 0 0 0)
(0 5.10133e-15 0 8.13152e-14 2.08702e-15 0 0 0 0)
(0 5.49102e-15 0 5.42101e-14 -2.83752e-16 0 0 0 0)
(2.71051e-14 1.08399e-14 0 2.71051e-14 -3.71376e-15 0 0 0 0)
(-2.71051e-14 2.09457e-15 0 5.42101e-14 1.67642e-14 0 0 0 0)
(-2.71051e-14 -8.3692e-15 0 5.42101e-14 2.23158e-14 0 0 0 0)
(-2.71051e-14 -5.28858e-15 0 2.71051e-14 2.54339e-14 0 0 0 0)
(-2.71051e-14 -4.34655e-15 0 0 2.19871e-14 0 0 0 0)
(0 -1.25999e-15 0 0 2.33497e-14 0 0 0 0)
(0 7.88476e-16 0 -8.13152e-14 2.24461e-14 0 0 0 0)
(0 -5.92896e-15 0 -5.42101e-14 -2.97323e-15 0 0 0 0)
(2.71051e-14 3.85375e-15 0 -5.42101e-14 -2.47044e-14 0 0 0 0)
(-2.71051e-14 9.16156e-15 0 -5.42101e-14 -2.25966e-15 0 0 0 0)
(0 -2.16516e-15 0 0 1.00665e-14 0 0 0 0)
(-2.71051e-14 7.13036e-16 0 0 1.01379e-14 0 0 0 0)
(-2.71051e-14 -7.294e-16 0 0 1.32144e-14 0 0 0 0)
(0 -1.15188e-14 0 0 2.18021e-15 0 0 0 0)
(-8.67362e-13 9.86339e-14 0 -6.77626e-13 -3.04727e-12 0 0 0 0)
(8.40257e-13 -7.06653e-14 0 8.13152e-14 4.84246e-13 0 0 0 0)
(-1.35525e-13 -2.3958e-14 0 -8.13152e-14 -1.46527e-13 0 0 0 0)
(1.35525e-13 -4.98764e-15 0 -2.71051e-14 9.06039e-15 0 0 0 0)
(0 -3.88403e-15 0 -5.42101e-14 1.55695e-14 0 0 0 0)
(-2.71051e-14 -1.12918e-14 0 -5.42101e-14 2.25143e-15 0 0 0 0)
(-5.42101e-14 6.20799e-15 0 -1.0842e-13 -9.57651e-15 0 0 0 0)
(5.42101e-14 2.3935e-14 0 -1.0842e-13 -3.66944e-15 0 0 0 0)
(0 1.70389e-14 0 -1.0842e-13 1.60983e-14 0 0 0 0)
(0 4.95989e-15 0 -1.0842e-13 1.90353e-14 0 0 0 0)
(0 2.26241e-15 0 -8.13152e-14 1.35934e-14 0 0 0 0)
(0 1.71898e-15 0 -5.42101e-14 1.55145e-14 0 0 0 0)
(-1.0842e-13 -2.71114e-14 0 0 1.3978e-14 0 0 0 0)
(0 -4.12216e-14 0 0 -2.31349e-15 0 0 0 0)
(0 -3.14018e-15 0 -2.71051e-14 -8.29666e-15 0 0 0 0)
(5.42101e-14 2.56093e-14 0 -2.71051e-14 -2.89168e-14 0 0 0 0)
(8.13152e-14 1.45627e-14 0 -8.13152e-14 -2.98979e-14 0 0 0 0)
(0 2.43483e-15 0 -5.42101e-14 -2.09145e-14 0 0 0 0)
(0 -7.22829e-15 0 -5.42101e-14 -1.97479e-14 0 0 0 0)
(5.42101e-14 -3.87582e-15 0 0 -1.40892e-14 0 0 0 0)
(2.43945e-13 -1.16616e-12 0 6.23416e-13 7.75749e-13 0 0 0 0)
(-1.89735e-13 1.33451e-12 0 -8.13152e-14 -2.09742e-13 0 0 0 0)
(5.42101e-14 -2.29203e-13 0 1.35525e-13 2.62145e-14 0 0 0 0)
(-5.42101e-14 8.70417e-14 0 -8.13152e-14 -2.19047e-15 0 0 0 0)
(-2.71051e-14 -1.70762e-15 0 0 1.82961e-14 0 0 0 0)
(-2.71051e-14 -1.9655e-14 0 -5.42101e-14 2.13876e-14 0 0 0 0)
(0 4.91905e-15 0 2.71051e-14 2.76405e-14 0 0 0 0)
(0 2.77694e-14 0 -2.71051e-14 1.21511e-14 0 0 0 0)
(-5.42101e-14 1.43356e-14 0 0 1.80948e-15 0 0 0 0)
(-2.71051e-14 -7.79354e-15 0 8.13152e-14 -6.00058e-15 0 0 0 0)
(0 -7.8674e-15 0 2.71051e-14 -8.63052e-15 0 0 0 0)
(2.71051e-14 -8.75384e-16 0 0 -1.93218e-14 0 0 0 0)
(5.42101e-14 -1.70395e-14 0 1.0842e-13 -2.23883e-14 0 0 0 0)
(0 -2.82036e-14 0 8.13152e-14 1.19594e-14 0 0 0 0)
(-5.42101e-14 -2.27495e-14 0 1.35525e-13 3.48069e-14 0 0 0 0)
(-8.13152e-14 -1.24397e-14 0 2.71051e-14 7.8609e-15 0 0 0 0)
(5.42101e-14 5.83711e-15 0 2.71051e-14 -2.60916e-14 0 0 0 0)
(2.71051e-14 1.0863e-14 0 0 -2.82096e-14 0 0 0 0)
(5.42101e-14 6.09585e-15 0 0 -2.27147e-14 0 0 0 0)
(0 2.23184e-14 0 0 -4.27034e-15 0 0 0 0)
(-3.25261e-13 6.64641e-13 0 -8.13152e-14 1.14748e-12 0 0 0 0)
(2.43945e-13 -8.202e-13 0 -2.71051e-14 -2.30376e-13 0 0 0 0)
(-1.35525e-13 1.83594e-13 0 -8.13152e-14 5.9578e-14 0 0 0 0)
(5.42101e-14 -1.29061e-14 0 -2.71051e-14 -1.67948e-14 0 0 0 0)
(5.42101e-14 1.96941e-14 0 0 -2.21107e-14 0 0 0 0)
(0 -1.9474e-15 0 0 -2.51417e-15 0 0 0 0)
(-5.42101e-14 -3.02854e-15 0 0 6.86008e-15 0 0 0 0)
(5.42101e-14 -1.89597e-15 0 2.71051e-14 -1.53739e-14 0 0 0 0)
(8.13152e-14 -1.11276e-15 0 5.42101e-14 -3.40181e-14 0 0 0 0)
(2.71051e-14 -5.48012e-15 0 2.71051e-14 -2.86819e-14 0 0 0 0)
(0 -1.10588e-14 0 1.0842e-13 -1.19488e-14 0 0 0 0)
(2.71051e-14 -1.20388e-14 0 8.13152e-14 -1.47566e-14 0 0 0 0)
(0 4.16978e-15 0 2.71051e-14 -2.33206e-14 0 0 0 0)
(0 1.59737e-14 0 2.71051e-14 -3.86129e-15 0 0 0 0)
(0 -7.23871e-15 0 0 1.37973e-14 0 0 0 0)
(0 -3.52892e-14 0 1.0842e-13 1.8203e-14 0 0 0 0)
(-2.71051e-14 -2.15078e-14 0 1.0842e-13 1.62274e-14 0 0 0 0)
(0 5.81178e-15 0 8.13152e-14 1.07132e-14 0 0 0 0)
(0 1.6711e-14 0 5.42101e-14 2.43887e-15 0 0 0 0)
(-2.71051e-14 2.31092e-14 0 2.71051e-14 4.48063e-15 0 0 0 0)
(8.13152e-14 -2.49054e-13 0 8.94467e-13 -1.62674e-12 0 0 0 0)
(-1.0842e-13 2.4661e-13 0 -1.0842e-13 3.51471e-13 0 0 0 0)
(0 -1.56219e-14 0 1.6263e-13 -5.58879e-14 0 0 0 0)
(2.71051e-14 5.35303e-15 0 1.0842e-13 2.45547e-14 0 0 0 0)
(0 1.25731e-14 0 5.42101e-14 -8.05631e-15 0 0 0 0)
(0 9.31575e-15 0 1.0842e-13 3.24477e-15 0 0 0 0)
(2.71051e-14 -7.94064e-15 0 8.13152e-14 1.75615e-15 0 0 0 0)
(0 -1.31088e-14 0 1.0842e-13 4.58666e-15 0 0 0 0)
(0 1.02748e-15 0 5.42101e-14 -1.78795e-15 0 0 0 0)
(0 1.42757e-14 0 2.71051e-14 -4.08206e-15 0 0 0 0)
(0 6.05796e-15 0 0 1.29717e-16 0 0 0 0)
(-5.42101e-14 -1.22472e-14 0 0 -1.07931e-15 0 0 0 0)
(2.71051e-14 -6.1442e-15 0 -2.71051e-14 -2.78759e-16 0 0 0 0)
(0 8.91438e-15 0 -5.42101e-14 -7.52325e-15 0 0 0 0)
(0 -6.85264e-16 0 0 -1.62047e-14 0 0 0 0)
(0 -1.00096e-14 0 0 -5.41447e-15 0 0 0 0)
(0 -1.65266e-15 0 -2.71051e-14 2.04198e-14 0 0 0 0)
(-2.71051e-14 -2.9255e-15 0 0 2.76176e-14 0 0 0 0)
(0 -1.36716e-16 0 2.71051e-14 1.84941e-14 0 0 0 0)
(0 1.53989e-14 0 -2.71051e-14 7.86626e-15 0 0 0 0)
(4.87891e-13 -6.10631e-13 0 -4.06576e-13 1.25441e-12 0 0 0 0)
(-4.60786e-13 7.50656e-13 0 0 -1.62135e-13 0 0 0 0)
(8.13152e-14 -1.43323e-13 0 -2.71051e-14 4.36838e-14 0 0 0 0)
(-5.42101e-14 3.49255e-14 0 -2.71051e-14 1.57419e-14 0 0 0 0)
(0 -1.61591e-15 0 -5.42101e-14 8.23894e-15 0 0 0 0)
(-2.71051e-14 7.86506e-15 0 -5.42101e-14 -4.54946e-15 0 0 0 0)
(0 -1.68664e-15 0 -2.71051e-14 -5.44159e-15 0 0 0 0)
(2.71051e-14 -5.44007e-15 0 -2.71051e-14 1.32686e-15 0 0 0 0)
(-2.71051e-14 -9.78148e-15 0 -5.42101e-14 3.05675e-15 0 0 0 0)
(0 -3.56245e-15 0 -2.71051e-14 8.66943e-15 0 0 0 0)
(2.71051e-14 -8.05605e-15 0 0 1.14286e-14 0 0 0 0)
(-2.71051e-14 -1.24473e-14 0 2.71051e-14 1.32598e-14 0 0 0 0)
(0 -2.27417e-15 0 2.71051e-14 1.64488e-14 0 0 0 0)
(0 4.77335e-17 0 0 6.44664e-15 0 0 0 0)
(2.71051e-14 -5.12992e-15 0 0 -9.2389e-15 0 0 0 0)
(0 1.33529e-15 0 0 -2.12553e-15 0 0 0 0)
(-5.42101e-14 1.15243e-14 0 0 1.2427e-14 0 0 0 0)
(5.42101e-14 3.88607e-15 0 -2.71051e-14 1.34314e-14 0 0 0 0)
(-2.71051e-14 -3.0404e-15 0 0 1.51514e-14 0 0 0 0)
(-2.71051e-14 -3.2512e-15 0 2.71051e-14 9.15154e-15 0 0 0 0)
(-2.98156e-13 8.43221e-13 0 -9.75782e-13 8.48623e-13 0 0 0 0)
(2.43945e-13 -9.64116e-13 0 1.89735e-13 -2.2931e-13 0 0 0 0)
(-2.71051e-14 1.62255e-13 0 -1.35525e-13 2.42905e-14 0 0 0 0)
(2.71051e-14 -3.00918e-14 0 0 -2.25301e-14 0 0 0 0)
(-2.71051e-14 -7.71832e-15 0 0 7.1248e-15 0 0 0 0)
(8.13152e-14 -4.36477e-15 0 0 -9.18578e-15 0 0 0 0)
(0 -2.06432e-15 0 0 1.68797e-15 0 0 0 0)
(0 -4.61047e-15 0 -2.71051e-14 -1.09859e-14 0 0 0 0)
(2.71051e-14 8.37005e-15 0 0 -1.39158e-14 0 0 0 0)
(2.71051e-14 2.26476e-14 0 -8.13152e-14 -1.08254e-14 0 0 0 0)
(0 1.06483e-14 0 -5.42101e-14 -9.01813e-15 0 0 0 0)
(0 -7.22702e-15 0 0 3.57837e-15 0 0 0 0)
(-5.42101e-14 -1.29574e-14 0 0 9.18703e-15 0 0 0 0)
(0 -1.67733e-14 0 5.42101e-14 1.40756e-15 0 0 0 0)
(0 -9.25743e-15 0 0 -1.76943e-15 0 0 0 0)
(2.71051e-14 1.16564e-14 0 0 7.23981e-15 0 0 0 0)
(-2.71051e-14 1.39043e-14 0 0 1.65851e-14 0 0 0 0)
(0 -2.01118e-16 0 0 1.04349e-14 0 0 0 0)
(0 -4.41659e-15 0 0 4.01168e-15 0 0 0 0)
(0 -8.90409e-15 0 -2.71051e-14 3.45855e-15 0 0 0 0)
(-2.98156e-13 8.68196e-15 0 5.14996e-13 -2.24301e-12 0 0 0 0)
(3.79471e-13 -7.3677e-14 0 -5.42101e-14 3.57927e-13 0 0 0 0)
(-8.13152e-14 6.3457e-14 0 2.71051e-14 -7.7435e-14 0 0 0 0)
(5.42101e-14 1.77598e-14 0 -8.13152e-14 -2.80332e-15 0 0 0 0)
(0 1.17285e-14 0 0 -8.53274e-15 0 0 0 0)
(-2.71051e-14 2.42823e-15 0 -5.42101e-14 -2.8372e-15 0 0 0 0)
(-2.71051e-14 -3.48678e-15 0 -5.42101e-14 2.5243e-15 0 0 0 0)
(0 -2.10438e-14 0 0 5.27e-15 0 0 0 0)
(-5.42101e-14 -9.62092e-15 0 2.71051e-14 1.50091e-14 0 0 0 0)
(-2.71051e-14 1.33517e-15 0 5.42101e-14 -1.34186e-15 0 0 0 0)
(8.13152e-14 6.34768e-15 0 0 -2.33438e-14 0 0 0 0)
(5.42101e-14 5.75791e-15 0 -2.71051e-14 -2.06223e-14 0 0 0 0)
(0 -4.44498e-15 0 -2.71051e-14 -6.56023e-15 0 0 0 0)
(0 -1.09087e-14 0 -2.71051e-14 4.80641e-15 0 0 0 0)
(0 7.02339e-16 0 0 1.94862e-14 0 0 0 0)
(0 1.96899e-14 0 -5.42101e-14 2.30762e-14 0 0 0 0)
(-5.42101e-14 1.47194e-14 0 -2.71051e-14 8.89331e-15 0 0 0 0)
(2.71051e-14 -8.6874e-15 0 2.71051e-14 2.29944e-15 0 0 0 0)
(0 -1.00167e-14 0 -2.71051e-14 -6.05111e-17 0 0 0 0)
(-2.71051e-14 -1.07214e-14 0 2.71051e-14 8.66641e-16 0 0 0 0)
(1.89735e-13 -1.04186e-12 0 1.00289e-12 6.33184e-13 0 0 0 0)
(-2.71051e-13 1.20145e-12 0 -1.89735e-13 -7.95839e-15 0 0 0 0)
(0 -1.98475e-13 0 1.0842e-13 2.20402e-14 0 0 0 0)
(-5.42101e-14 3.88104e-14 0 0 -4.91919e-15 0 0 0 0)
(5.42101e-14 -7.7522e-15 0 0 -2.5886e-14 0 0 0 0)
(0 6.69226e-15 0 0 -1.16959e-14 0 0 0 0)
(2.71051e-14 6.04288e-15 0 0 -1.68591e-14 0 0 0 0)
(8.13152e-14 7.87437e-15 0 0 -5.17489e-15 0 0 0 0)
(2.71051e-14 1.7582e-15 0 -2.71051e-14 3.18961e-15 0 0 0 0)
(0 -1.57053e-14 0 -5.42101e-14 4.57469e-15 0 0 0 0)
(0 -8.63206e-15 0 2.71051e-14 2.174e-15 0 0 0 0)
(-2.71051e-14 9.55653e-15 0 -2.71051e-14 -9.25559e-16 0 0 0 0)
(0 1.24713e-14 0 -2.71051e-14 1.11631e-14 0 0 0 0)
(-2.71051e-14 9.27311e-15 0 -8.13152e-14 2.78581e-14 0 0 0 0)
(-5.42101e-14 9.01235e-15 0 -1.0842e-13 2.2251e-14 0 0 0 0)
(-2.71051e-14 1.06351e-15 0 -8.13152e-14 5.13096e-15 0 0 0 0)
(8.13152e-14 -6.87248e-15 0 -5.42101e-14 -1.95156e-14 0 0 0 0)
(-5.42101e-14 -9.15494e-15 0 -2.71051e-14 -2.16415e-14 0 0 0 0)
(0 -5.84939e-15 0 -5.42101e-14 -6.13102e-15 0 0 0 0)
(5.42101e-14 -9.71022e-15 0 -2.71051e-14 -3.57433e-15 0 0 0 0)
(5.14996e-13 6.33907e-13 0 -1.35525e-12 1.15655e-12 0 0 0 0)
(-4.87891e-13 -6.84821e-13 0 2.43945e-13 -1.79365e-13 0 0 0 0)
(8.13152e-14 6.64962e-14 0 -1.0842e-13 4.15714e-14 0 0 0 0)
(-5.42101e-14 -3.01664e-14 0 1.35525e-13 1.6574e-15 0 0 0 0)
(0 4.95172e-15 0 0 1.8198e-14 0 0 0 0)
(-2.71051e-14 1.14551e-14 0 0 1.67669e-14 0 0 0 0)
(-2.71051e-14 3.03426e-15 0 5.42101e-14 9.15692e-15 0 0 0 0)
(-5.42101e-14 -9.95124e-16 0 0 1.41065e-14 0 0 0 0)
(-2.71051e-14 1.2866e-16 0 0 3.30588e-15 0 0 0 0)
(0 3.19554e-16 0 -2.71051e-14 7.20299e-15 0 0 0 0)
(2.71051e-14 8.47425e-16 0 -8.13152e-14 1.59873e-14 0 0 0 0)
(0 1.47471e-14 0 0 1.36607e-14 0 0 0 0)
(-2.71051e-14 2.43386e-14 0 -5.42101e-14 2.78812e-15 0 0 0 0)
(0 1.79167e-16 0 -2.71051e-14 -4.5021e-15 0 0 0 0)
(0 -2.20248e-14 0 0 -1.21634e-14 0 0 0 0)
(2.71051e-14 -2.20768e-14 0 8.13152e-14 -1.75621e-14 0 0 0 0)
(5.42101e-14 -1.20531e-14 0 5.42101e-14 -2.1219e-14 0 0 0 0)
(0 4.69719e-15 0 0 -2.16512e-14 0 0 0 0)
(2.71051e-14 8.05042e-15 0 5.42101e-14 -2.09844e-15 0 0 0 0)
(-2.71051e-14 -1.01607e-15 0 2.71051e-14 1.9626e-15 0 0 0 0)
(-9.21572e-13 -6.46694e-14 0 2.43945e-13 -7.64191e-13 0 0 0 0)
(9.75782e-13 8.64725e-14 0 -8.13152e-14 6.56691e-14 0 0 0 0)
(-1.89735e-13 -1.74526e-14 0 -8.13152e-14 -9.11199e-15 0 0 0 0)
(8.13152e-14 1.54371e-14 0 -1.35525e-13 5.78836e-16 0 0 0 0)
(-2.71051e-14 7.35732e-15 0 -8.13152e-14 -2.93131e-15 0 0 0 0)
(0 -2.34883e-15 0 -8.13152e-14 -1.1151e-14 0 0 0 0)
(2.71051e-14 3.38247e-15 0 -8.13152e-14 -1.70508e-14 0 0 0 0)
(5.42101e-14 2.02333e-15 0 0 -3.89837e-15 0 0 0 0)
(0 -5.14532e-15 0 0 7.98274e-15 0 0 0 0)
(0 -3.02392e-15 0 2.71051e-14 7.90461e-15 0 0 0 0)
(0 -2.17437e-15 0 5.42101e-14 1.91377e-15 0 0 0 0)
(-5.42101e-14 -3.64263e-15 0 -5.42101e-14 -3.38365e-15 0 0 0 0)
(0 -5.69148e-15 0 0 -1.61495e-14 0 0 0 0)
(5.42101e-14 -5.67841e-15 0 2.71051e-14 -2.63513e-14 0 0 0 0)
(0 -4.04767e-15 0 5.42101e-14 -1.41222e-14 0 0 0 0)
(2.71051e-14 -7.99213e-15 0 0 -7.99556e-15 0 0 0 0)
(-2.71051e-14 -1.09615e-14 0 2.71051e-14 2.30214e-15 0 0 0 0)
(0 9.96566e-15 0 0 6.1137e-15 0 0 0 0)
(0 1.77644e-14 0 2.71051e-14 7.18003e-15 0 0 0 0)
(0 -9.57438e-15 0 0 8.46145e-15 0 0 0 0)
(6.50521e-13 -6.46148e-14 0 5.69206e-13 1.4345e-13 0 0 0 0)
(-8.40257e-13 7.02587e-14 0 -8.13152e-14 3.97048e-14 0 0 0 0)
(1.0842e-13 1.40587e-15 0 8.13152e-14 2.7884e-14 0 0 0 0)
(-5.42101e-14 -2.39857e-14 0 0 1.49704e-14 0 0 0 0)
(5.42101e-14 -6.77807e-15 0 0 -9.80349e-15 0 0 0 0)
(0 -2.66438e-15 0 5.42101e-14 -1.01332e-14 0 0 0 0)
(0 1.02868e-14 0 0 -1.35396e-14 0 0 0 0)
(2.71051e-14 2.40384e-14 0 -8.13152e-14 -2.66617e-14 0 0 0 0)
(0 1.19316e-14 0 -8.13152e-14 -1.84132e-14 0 0 0 0)
(0 -5.74942e-15 0 0 -1.26114e-14 0 0 0 0)
(0 -1.04408e-14 0 -5.42101e-14 -1.43471e-14 0 0 0 0)
(0 -3.31623e-15 0 0 -3.3979e-15 0 0 0 0)
(0 1.37096e-15 0 -2.71051e-14 -2.28367e-16 0 0 0 0)
(0 2.20647e-15 0 0 -1.63084e-15 0 0 0 0)
(0 -3.669e-15 0 -5.42101e-14 -6.22076e-15 0 0 0 0)
(5.42101e-14 -5.65242e-15 0 -8.13152e-14 -1.45995e-14 0 0 0 0)
(2.71051e-14 2.0562e-15 0 -8.13152e-14 -8.89113e-15 0 0 0 0)
(-2.71051e-14 9.57508e-15 0 -5.42101e-14 3.33421e-15 0 0 0 0)
(2.71051e-14 1.03982e-14 0 -2.71051e-14 -7.31178e-15 0 0 0 0)
(-2.71051e-14 -1.66576e-14 0 -2.71051e-14 -8.54847e-15 0 0 0 0)
(-4.06576e-13 1.18485e-13 0 -7.58942e-13 -1.58507e-13 0 0 0 0)
(4.60786e-13 -2.90931e-14 0 1.35525e-13 7.32724e-14 0 0 0 0)
(-1.0842e-13 -4.2187e-14 0 0 -1.59601e-14 0 0 0 0)
(5.42101e-14 -2.22504e-14 0 1.0842e-13 2.2487e-14 0 0 0 0)
(-8.13152e-14 -1.77463e-14 0 8.13152e-14 9.82053e-15 0 0 0 0)
(0 -6.08496e-15 0 8.13152e-14 -7.97084e-16 0 0 0 0)
(0 -1.3146e-14 0 1.0842e-13 3.09558e-15 0 0 0 0)
(0 -2.85022e-15 0 8.13152e-14 -6.58299e-15 0 0 0 0)
(0 8.90495e-15 0 2.71051e-14 -1.27322e-14 0 0 0 0)
(2.71051e-14 1.04216e-15 0 5.42101e-14 -1.3119e-14 0 0 0 0)
(8.13152e-14 7.03915e-15 0 5.42101e-14 -6.28169e-15 0 0 0 0)
(-8.13152e-14 1.04761e-14 0 8.13152e-14 1.56338e-14 0 0 0 0)
(-2.71051e-14 -3.92442e-15 0 8.13152e-14 7.91615e-15 0 0 0 0)
(0 -1.16708e-14 0 5.42101e-14 -3.40684e-15 0 0 0 0)
(0 -1.70163e-14 0 0 -6.94313e-15 0 0 0 0)
(-5.42101e-14 -1.06625e-14 0 8.13152e-14 1.3561e-15 0 0 0 0)
(0 6.97219e-15 0 0 -1.08393e-14 0 0 0 0)
(8.13152e-14 1.1545e-14 0 0 -2.00389e-14 0 0 0 0)
(0 5.88171e-15 0 0 -2.054e-14 0 0 0 0)
(5.42101e-14 6.28587e-15 0 0 -1.76911e-14 0 0 0 0)
(0 -1.49849e-13 0 1.35525e-13 6.9567e-13 0 0 0 0)
(-5.42101e-14 2.12805e-13 0 -2.71051e-14 -2.28587e-13 0 0 0 0)
(8.13152e-14 -4.93795e-14 0 0 -1.04639e-14 0 0 0 0)
(2.71051e-14 1.79495e-15 0 0 -3.6636e-14 0 0 0 0)
(2.71051e-14 -3.00622e-14 0 5.42101e-14 -1.67886e-14 0 0 0 0)
(2.71051e-14 -9.38933e-15 0 2.71051e-14 -1.77569e-14 0 0 0 0)
(0 4.50092e-15 0 2.71051e-14 -7.66492e-15 0 0 0 0)
(-2.71051e-14 8.21062e-15 0 2.71051e-14 1.28982e-14 0 0 0 0)
(-2.71051e-14 5.39565e-15 0 8.13152e-14 1.02449e-14 0 0 0 0)
(0 7.0113e-16 0 5.42101e-14 -1.7665e-15 0 0 0 0)
(-5.42101e-14 1.8312e-14 0 2.71051e-14 1.71804e-15 0 0 0 0)
(5.42101e-14 1.08816e-14 0 -2.71051e-14 -3.89279e-15 0 0 0 0)
(0 -1.76697e-14 0 5.42101e-14 5.54367e-15 0 0 0 0)
(0 -1.26528e-14 0 5.42101e-14 4.36766e-15 0 0 0 0)
(0 1.09394e-15 0 8.13152e-14 5.56744e-15 0 0 0 0)
(0 -9.54858e-15 0 5.42101e-14 1.58288e-14 0 0 0 0)
(-2.71051e-14 -1.93388e-14 0 1.0842e-13 1.49274e-14 0 0 0 0)
(0 -1.25664e-16 0 5.42101e-14 4.94887e-15 0 0 0 0)
(2.71051e-14 1.2746e-14 0 0 -5.75515e-16 0 0 0 0)
(-5.42101e-14 2.15735e-14 0 5.42101e-14 5.86018e-15 0 0 0 0)
(-2.98156e-13 5.85568e-13 0 -4.33681e-13 -8.12854e-13 0 0 0 0)
(3.52366e-13 -7.35227e-13 0 1.35525e-13 8.03237e-14 0 0 0 0)
(-1.0842e-13 1.49764e-13 0 -2.71051e-14 -3.83988e-14 0 0 0 0)
(8.13152e-14 -2.85751e-14 0 -2.71051e-14 -2.38973e-14 0 0 0 0)
(-2.71051e-14 1.13276e-15 0 -1.0842e-13 3.39066e-15 0 0 0 0)
(-5.42101e-14 3.0387e-15 0 -1.0842e-13 1.65781e-14 0 0 0 0)
(0 1.75091e-14 0 -1.35525e-13 7.90051e-15 0 0 0 0)
(0 1.50596e-14 0 -1.0842e-13 -1.06303e-15 0 0 0 0)
(5.42101e-14 -5.75973e-15 0 -1.0842e-13 -1.10084e-14 0 0 0 0)
(2.71051e-14 -7.48474e-15 0 -5.42101e-14 -7.8186e-15 0 0 0 0)
(0 4.91286e-15 0 -8.13152e-14 1.77404e-15 0 0 0 0)
(2.71051e-14 1.43017e-14 0 -5.42101e-14 -1.36945e-14 0 0 0 0)
(-2.71051e-14 4.33603e-15 0 -5.42101e-14 -2.41054e-15 0 0 0 0)
(0 -1.1647e-14 0 -5.42101e-14 2.46439e-15 0 0 0 0)
(0 -5.55523e-15 0 -2.71051e-14 -4.96766e-16 0 0 0 0)
(0 -1.30251e-15 0 -1.0842e-13 -1.24566e-14 0 0 0 0)
(2.71051e-14 -3.90771e-15 0 -5.42101e-14 -1.33817e-16 0 0 0 0)
(-5.42101e-14 -3.95793e-15 0 0 1.25739e-14 0 0 0 0)
(2.71051e-14 6.79302e-15 0 2.71051e-14 1.29808e-14 0 0 0 0)
(-2.71051e-14 1.00121e-15 0 -5.42101e-14 1.36185e-14 0 0 0 0)
(-2.71051e-13 -8.8238e-13 0 1.32815e-12 2.1195e-13 0 0 0 0)
(2.98156e-13 9.87261e-13 0 -2.43945e-13 -4.49828e-15 0 0 0 0)
(-1.0842e-13 -1.536e-13 0 1.35525e-13 2.05312e-14 0 0 0 0)
(2.71051e-14 4.35844e-14 0 -5.42101e-14 2.93832e-15 0 0 0 0)
(-2.71051e-14 1.04132e-14 0 0 4.55613e-15 0 0 0 0)
(0 -4.87949e-15 0 2.71051e-14 5.97018e-15 0 0 0 0)
(0 -1.31402e-14 0 8.13152e-14 -2.40316e-15 0 0 0 0)
(0 -1.06983e-14 0 8.13152e-14 -2.16663e-14 0 0 0 0)
(2.71051e-14 -1.35992e-15 0 8.13152e-14 -2.37665e-14 0 0 0 0)
(0 1.34836e-14 0 2.71051e-14 -5.07671e-15 0 0 0 0)
(-2.71051e-14 1.24361e-14 0 5.42101e-14 -3.05053e-15 0 0 0 0)
(0 6.69703e-15 0 5.42101e-14 -4.93566e-15 0 0 0 0)
(2.71051e-14 -1.51082e-15 0 0 -6.36408e-15 0 0 0 0)
(0 -1.0739e-14 0 0 3.88948e-16 0 0 0 0)
(-2.71051e-14 -1.3827e-14 0 0 1.09707e-14 0 0 0 0)
(2.71051e-14 -9.18563e-15 0 0 -2.73689e-15 0 0 0 0)
(0 5.69175e-15 0 0 -1.6182e-14 0 0 0 0)
(5.42101e-14 1.29889e-14 0 0 -1.8944e-14 0 0 0 0)
(0 1.37906e-14 0 -2.71051e-14 -6.06356e-15 0 0 0 0)
(0 -5.02576e-15 0 0 -5.8834e-15 0 0 0 0)
(7.58942e-13 7.9302e-13 0 -6.77626e-13 1.68353e-12 0 0 0 0)
(-8.13152e-13 -9.26646e-13 0 1.0842e-13 -2.47415e-13 0 0 0 0)
(1.0842e-13 1.57201e-13 0 -5.42101e-14 5.91847e-14 0 0 0 0)
(-5.42101e-14 -4.45501e-14 0 5.42101e-14 -2.83568e-16 0 0 0 0)
(2.71051e-14 4.16462e-15 0 5.42101e-14 -1.31264e-14 0 0 0 0)
(2.71051e-14 -3.92059e-15 0 5.42101e-14 -1.70095e-14 0 0 0 0)
(0 -1.01274e-14 0 0 -8.99674e-16 0 0 0 0)
(0 -6.30375e-15 0 0 4.67103e-15 0 0 0 0)
(0 1.08299e-14 0 -5.42101e-14 5.51261e-15 0 0 0 0)
(0 1.32313e-14 0 -2.71051e-14 7.63073e-15 0 0 0 0)
(0 5.05391e-15 0 0 -3.49839e-16 0 0 0 0)
(0 1.09882e-14 0 -5.42101e-14 2.62757e-15 0 0 0 0)
(0 9.66064e-15 0 -5.42101e-14 -7.92885e-16 0 0 0 0)
(0 5.6877e-15 0 0 -1.30281e-15 0 0 0 0)
(0 -8.68107e-15 0 0 -6.34891e-15 0 0 0 0)
(-5.42101e-14 -2.84552e-14 0 5.42101e-14 4.72881e-15 0 0 0 0)
(0 -2.01148e-14 0 5.42101e-14 1.4286e-14 0 0 0 0)
(-5.42101e-14 6.16052e-15 0 2.71051e-14 1.05081e-14 0 0 0 0)
(5.42101e-14 1.98536e-14 0 0 -6.19872e-15 0 0 0 0)
(0 1.29482e-14 0 0 -8.76358e-15 0 0 0 0)
(-8.40257e-13 5.53733e-13 0 -6.23416e-13 -2.12267e-12 0 0 0 0)
(9.48677e-13 -6.37082e-13 0 1.0842e-13 3.07406e-13 0 0 0 0)
(-1.89735e-13 9.35306e-14 0 -8.13152e-14 -7.93459e-14 0 0 0 0)
(8.13152e-14 -2.87267e-14 0 0 1.17713e-14 0 0 0 0)
(-5.42101e-14 -6.31269e-15 0 0 1.20088e-14 0 0 0 0)
(0 7.3472e-15 0 -5.42101e-14 1.14916e-15 0 0 0 0)
(0 8.54028e-15 0 -5.42101e-14 2.77945e-15 0 0 0 0)
(-2.71051e-14 -4.28601e-15 0 0 1.01142e-14 0 0 0 0)
(-5.42101e-14 1.59978e-15 0 0 1.00758e-14 0 0 0 0)
(5.42101e-14 7.62113e-15 0 -5.42101e-14 1.62998e-15 0 0 0 0)
(0 7.43291e-15 0 -5.42101e-14 7.72088e-15 0 0 0 0)
(-5.42101e-14 6.25398e-15 0 0 4.42208e-15 0 0 0 0)
(5.42101e-14 -5.4412e-15 0 0 -1.30936e-14 0 0 0 0)
(0 -1.62951e-14 0 0 -1.60887e-14 0 0 0 0)
(8.13152e-14 -7.7954e-15 0 0 -3.21859e-14 0 0 0 0)
(5.42101e-14 1.14492e-14 0 0 -2.07483e-14 0 0 0 0)
(2.71051e-14 1.1471e-14 0 -2.71051e-14 7.9068e-15 0 0 0 0)
(-2.71051e-14 -7.49574e-15 0 -2.71051e-14 2.52288e-14 0 0 0 0)
(-2.71051e-14 -5.4811e-15 0 0 1.26395e-14 0 0 0 0)
(-2.71051e-14 9.93654e-15 0 0 4.46346e-15 0 0 0 0)
(2.71051e-13 -1.02224e-12 0 1.76183e-12 -5.83586e-13 0 0 0 0)
(-3.25261e-13 1.11667e-12 0 -2.98156e-13 4.45059e-14 0 0 0 0)
(5.42101e-14 -1.38434e-13 0 2.1684e-13 -4.91857e-15 0 0 0 0)
(0 4.68046e-14 0 2.71051e-14 5.14472e-15 0 0 0 0)
(0 -6.45752e-15 0 8.13152e-14 1.54033e-14 0 0 0 0)
(0 -1.315e-14 0 1.0842e-13 2.93716e-15 0 0 0 0)
(2.71051e-14 -1.1623e-15 0 1.0842e-13 -1.56905e-14 0 0 0 0)
(2.71051e-14 9.92568e-16 0 5.42101e-14 -8.09393e-15 0 0 0 0)
(-2.71051e-14 2.34564e-15 0 1.0842e-13 5.63957e-15 0 0 0 0)
(0 1.08764e-14 0 1.0842e-13 3.99637e-15 0 0 0 0)
(-2.71051e-14 7.84601e-15 0 8.13152e-14 6.87865e-15 0 0 0 0)
(2.71051e-14 -9.82629e-15 0 8.13152e-14 -3.05588e-15 0 0 0 0)
(0 -1.08501e-14 0 1.0842e-13 -7.43215e-15 0 0 0 0)
(0 -1.34046e-14 0 5.42101e-14 1.5679e-15 0 0 0 0)
(-2.71051e-14 -1.33407e-14 0 2.71051e-14 1.27605e-14 0 0 0 0)
(-5.42101e-14 1.16375e-14 0 2.71051e-14 1.80682e-15 0 0 0 0)
(0 2.58623e-14 0 -2.71051e-14 -1.23627e-14 0 0 0 0)
(5.42101e-14 1.08932e-14 0 -5.42101e-14 -9.85952e-15 0 0 0 0)
(0 -9.11693e-16 0 0 5.94701e-15 0 0 0 0)
(0 -4.15478e-15 0 2.71051e-14 3.96308e-15 0 0 0 0)
(5.69206e-13 1.4653e-14 0 -1.00289e-12 1.0892e-12 0 0 0 0)
(-5.42101e-13 -5.84144e-14 0 1.35525e-13 -8.16135e-14 0 0 0 0)
(1.35525e-13 5.41693e-14 0 -1.35525e-13 3.09415e-14 0 0 0 0)
(-5.42101e-14 -8.40478e-15 0 -2.71051e-14 2.65085e-15 0 0 0 0)
(2.71051e-14 -8.52024e-15 0 -8.13152e-14 -7.45841e-15 0 0 0 0)
(0 -2.37466e-14 0 -5.42101e-14 1.76286e-14 0 0 0 0)
(-5.42101e-14 -2.49082e-15 0 -5.42101e-14 2.94382e-14 0 0 0 0)
(-2.71051e-14 1.7044e-14 0 -5.42101e-14 2.12817e-14 0 0 0 0)
(0 1.36901e-14 0 -5.42101e-14 1.14016e-14 0 0 0 0)
(0 8.8602e-15 0 -5.42101e-14 5.24601e-15 0 0 0 0)
(0 3.80668e-16 0 -2.71051e-14 -8.33502e-15 0 0 0 0)
(0 -8.05681e-15 0 -2.71051e-14 -2.98067e-15 0 0 0 0)
(0 -8.17419e-16 0 -5.42101e-14 9.54807e-15 0 0 0 0)
(0 3.89755e-15 0 -5.42101e-14 8.68686e-15 0 0 0 0)
(-2.71051e-14 -7.55648e-15 0 -2.71051e-14 1.90551e-14 0 0 0 0)
(0 -1.36739e-14 0 -2.71051e-14 2.95841e-14 0 0 0 0)
(-2.71051e-14 -1.95322e-16 0 0 2.10915e-14 0 0 0 0)
(0 1.08139e-14 0 5.42101e-14 3.91711e-15 0 0 0 0)
(2.71051e-14 8.3415e-15 0 0 -6.15628e-16 0 0 0 0)
(-2.71051e-14 2.64523e-17 0 -2.71051e-14 -3.5127e-15 0 0 0 0)
)
;

boundaryField
{
    movingWall
    {
        type            extrapolatedCalculated;
        value           nonuniform List<tensor> 
20
(
(5.69206e-13 1.4653e-14 0 -2.75335e-12 -2.82369e-13 0 0 0 0)
(-5.42101e-13 -5.84144e-14 0 4.44089e-13 2.23757e-13 0 0 0 0)
(1.35525e-13 5.41693e-14 0 -4.88498e-13 -4.8711e-14 0 0 0 0)
(-5.42101e-14 -8.40478e-15 0 -1.33227e-13 7.07933e-15 0 0 0 0)
(2.71051e-14 -8.52024e-15 0 -3.10862e-13 -1.50919e-14 0 0 0 0)
(0 -2.37466e-14 0 -2.66454e-13 4.11603e-14 0 0 0 0)
(-5.42101e-14 -2.49082e-15 0 -2.66454e-13 7.98944e-14 0 0 0 0)
(-2.71051e-14 1.7044e-14 0 -8.88178e-14 5.11236e-14 0 0 0 0)
(0 1.36901e-14 0 -1.33227e-13 1.17183e-14 0 0 0 0)
(0 8.8602e-15 0 -1.33227e-13 -3.63675e-15 0 0 0 0)
(0 3.80668e-16 0 -8.88178e-14 -2.37225e-14 0 0 0 0)
(0 -8.05681e-15 0 -4.44089e-14 -5.15942e-15 0 0 0 0)
(0 -8.17419e-16 0 -1.77636e-13 8.5047e-15 0 0 0 0)
(0 3.89755e-15 0 -8.88178e-14 -1.88975e-15 0 0 0 0)
(-2.71051e-14 -7.55648e-15 0 -4.44089e-14 -7.0855e-15 0 0 0 0)
(0 -1.36739e-14 0 -4.44089e-14 2.83362e-14 0 0 0 0)
(-2.71051e-14 -1.95322e-16 0 -4.44089e-14 4.76101e-14 0 0 0 0)
(0 1.08139e-14 0 8.88178e-14 2.91175e-14 0 0 0 0)
(2.71051e-14 8.3415e-15 0 0 4.35435e-15 0 0 0 0)
(-2.71051e-14 2.64523e-17 0 -4.44089e-14 -4.24854e-15 0 0 0 0)
)
;
    }
    fixedWalls
    {
        type            extrapolatedCalculated;
        value           nonuniform List<tensor> 
60
(
(3.55271e-12 6.57455e-12 0 -8.13152e-14 1.71903e-12 0 0 0 0)
(-3.90799e-12 3.01562e-13 0 -6.77626e-13 -3.04727e-12 0 0 0 0)
(8.88178e-13 -5.61455e-12 0 6.23416e-13 7.75749e-13 0 0 0 0)
(-1.33227e-12 3.40456e-12 0 -8.13152e-14 1.14748e-12 0 0 0 0)
(4.44089e-13 -1.02462e-12 0 8.94467e-13 -1.62674e-12 0 0 0 0)
(2.17604e-12 -3.10241e-12 0 -4.06576e-13 1.25441e-12 0 0 0 0)
(-1.15463e-12 3.99302e-12 0 -9.75782e-13 8.48623e-13 0 0 0 0)
(-1.68754e-12 2.92077e-13 0 5.14996e-13 -2.24301e-12 0 0 0 0)
(9.76996e-13 -4.979e-12 0 1.00289e-12 6.33184e-13 0 0 0 0)
(2.30926e-12 2.82481e-12 0 -1.35525e-12 1.15655e-12 0 0 0 0)
(-4.44089e-12 -3.52788e-13 0 2.43945e-13 -7.64191e-13 0 0 0 0)
(3.19744e-12 -2.31953e-13 0 5.69206e-13 1.4345e-13 0 0 0 0)
(-2.13163e-12 2.2101e-13 0 -7.58942e-13 -1.58507e-13 0 0 0 0)
(2.22045e-13 -8.6598e-13 0 1.35525e-13 6.9567e-13 0 0 0 0)
(-1.68754e-12 3.00369e-12 0 -4.33681e-13 -8.12854e-13 0 0 0 0)
(-1.42109e-12 -4.1174e-12 0 1.32815e-12 2.1195e-13 0 0 0 0)
(3.55271e-12 3.85149e-12 0 -6.77626e-13 1.68353e-12 0 0 0 0)
(-4.17444e-12 2.61671e-12 0 -6.23416e-13 -2.12267e-12 0 0 0 0)
(1.19904e-12 -4.63917e-12 0 1.76183e-12 -5.83586e-13 0 0 0 0)
(2.75335e-12 2.82369e-13 0 -1.00289e-12 1.0892e-12 0 0 0 0)
(0 -1.67465e-14 0 0 2.18021e-15 0 0 0 0)
(8.88178e-14 8.02563e-15 0 0 -1.40892e-14 0 0 0 0)
(0 3.96105e-14 0 0 -4.27034e-15 0 0 0 0)
(-4.44089e-14 2.5107e-14 0 2.71051e-14 4.48063e-15 0 0 0 0)
(0 2.1688e-14 0 -2.71051e-14 7.86626e-15 0 0 0 0)
(-4.44089e-14 -6.35806e-15 0 2.71051e-14 9.15154e-15 0 0 0 0)
(0 -1.49182e-14 0 -2.71051e-14 3.45855e-15 0 0 0 0)
(-4.44089e-14 -2.01922e-14 0 2.71051e-14 8.66641e-16 0 0 0 0)
(0 -1.83848e-14 0 -2.71051e-14 -3.57433e-15 0 0 0 0)
(-4.44089e-14 -5.89491e-15 0 2.71051e-14 1.9626e-15 0 0 0 0)
(0 -2.62352e-14 0 0 8.46145e-15 0 0 0 0)
(-4.44089e-14 -3.97407e-14 0 -2.71051e-14 -8.54847e-15 0 0 0 0)
(8.88178e-14 7.9587e-15 0 0 -1.76911e-14 0 0 0 0)
(-8.88178e-14 3.10235e-14 0 5.42101e-14 5.86018e-15 0 0 0 0)
(-4.44089e-14 -1.5482e-14 0 -5.42101e-14 1.36185e-14 0 0 0 0)
(0 -2.34505e-14 0 0 -5.8834e-15 0 0 0 0)
(0 8.05158e-15 0 0 -8.76358e-15 0 0 0 0)
(-4.44089e-14 1.16038e-14 0 0 4.46346e-15 0 0 0 0)
(0 -9.80225e-15 0 2.71051e-14 3.96308e-15 0 0 0 0)
(-4.44089e-14 -4.24854e-15 0 -2.71051e-14 -3.5127e-15 0 0 0 0)
(8.40257e-13 1.39687e-12 0 3.55271e-12 6.57455e-12 0 0 0 0)
(-7.58942e-13 -1.56623e-12 0 -1.77636e-13 -9.87075e-13 0 0 0 0)
(1.0842e-13 2.45982e-13 0 5.77316e-13 3.09616e-13 0 0 0 0)
(-5.42101e-14 -7.50545e-14 0 2.66454e-13 -3.14618e-15 0 0 0 0)
(0 5.10133e-15 0 3.10862e-13 9.39791e-15 0 0 0 0)
(0 5.49102e-15 0 2.22045e-13 1.72592e-14 0 0 0 0)
(2.71051e-14 1.08399e-14 0 3.10862e-13 3.1362e-14 0 0 0 0)
(-2.71051e-14 2.09457e-15 0 3.10862e-13 6.06188e-14 0 0 0 0)
(-2.71051e-14 -8.3692e-15 0 2.22045e-13 3.97403e-14 0 0 0 0)
(-2.71051e-14 -5.28858e-15 0 2.22045e-13 2.7142e-14 0 0 0 0)
(-2.71051e-14 -4.34655e-15 0 8.88178e-14 1.8586e-14 0 0 0 0)
(0 -1.25999e-15 0 8.88178e-14 9.75582e-15 0 0 0 0)
(0 7.88476e-16 0 8.88178e-14 1.3546e-14 0 0 0 0)
(0 -5.92896e-15 0 8.88178e-14 1.29097e-14 0 0 0 0)
(2.71051e-14 3.85375e-15 0 1.77636e-13 -1.01698e-14 0 0 0 0)
(-2.71051e-14 9.16156e-15 0 1.33227e-13 2.83247e-14 0 0 0 0)
(0 -2.16516e-15 0 1.33227e-13 2.64764e-14 0 0 0 0)
(-2.71051e-14 7.13036e-16 0 4.44089e-14 1.96641e-14 0 0 0 0)
(-2.71051e-14 -7.294e-16 0 4.44089e-14 2.93286e-14 0 0 0 0)
(0 -1.15188e-14 0 0 1.67465e-14 0 0 0 0)
)
;
    }
    frontAndBack
    {
        type            empty;
    }
}


// ************************************************************************* //
