/*--------------------------------*- C++ -*----------------------------------*\
| =========                 |                                                 |
| \\      /  F ield         | OpenFOAM: The Open Source CFD Toolbox           |
|  \\    /   O peration     | Version:  2506                                  |
|   \\  /    A nd           | Website:  www.openfoam.com                      |
|    \\/     M anipulation  |                                                 |
\*---------------------------------------------------------------------------*/
FoamFile
{
    version     2.0;
    format      ascii;
    arch        "LSB;label=32;scalar=64";
    class       volScalarField;
    location    "7.75";
    object      magSqrP;
}
// * * * * * * * * * * * * * * * * * * * * * * * * * * * * * * * * * * * * * //

dimensions      [0 4 -4 0 0 0 0];

internalField   nonuniform List<scalar> 
400
(
1.14159e-31
9.26822e-30
7.56206e-30
8.95113e-30
1.25708e-29
1.30766e-29
1.30994e-29
1.59152e-29
1.79189e-29
1.97993e-29
1.99902e-29
2.04219e-29
2.19543e-29
2.30956e-29
2.31227e-29
2.27704e-29
2.14386e-29
2.20345e-29
2.37104e-29
2.19641e-29
4.78279e-30
1.08173e-30
7.39455e-30
8.03011e-30
1.21164e-29
1.36395e-29
1.43625e-29
1.59268e-29
1.84206e-29
1.89198e-29
1.91732e-29
2.13441e-29
2.41856e-29
2.34275e-29
2.41038e-29
2.23406e-29
2.12545e-29
2.21842e-29
2.20222e-29
2.02845e-29
6.59341e-30
8.19165e-30
7.48658e-30
9.42248e-30
1.12215e-29
1.34355e-29
1.52655e-29
1.66557e-29
1.872e-29
1.92054e-29
1.93995e-29
2.01096e-29
2.08399e-29
2.25935e-29
2.37576e-29
2.60771e-29
2.20368e-29
2.23885e-29
2.17611e-29
2.18757e-29
7.43851e-30
7.46009e-30
1.01833e-29
1.0894e-29
1.12507e-29
1.35762e-29
1.58238e-29
1.70703e-29
1.74616e-29
1.84601e-29
1.93083e-29
2.09906e-29
2.16613e-29
2.25301e-29
2.29096e-29
2.30824e-29
2.22744e-29
2.23369e-29
2.22895e-29
2.36463e-29
8.3174e-30
7.40552e-30
1.03944e-29
1.20573e-29
1.29316e-29
1.43677e-29
1.55492e-29
1.73221e-29
1.84349e-29
1.89193e-29
1.98507e-29
2.07675e-29
2.21137e-29
2.32329e-29
2.25631e-29
2.21146e-29
2.187e-29
2.17092e-29
2.14519e-29
2.41815e-29
8.34587e-30
1.40421e-29
1.06181e-29
1.35301e-29
1.35597e-29
1.52334e-29
1.67855e-29
1.73126e-29
1.91689e-29
2.0179e-29
1.96534e-29
2.06324e-29
2.24897e-29
2.26373e-29
2.19592e-29
2.17086e-29
2.27274e-29
2.04539e-29
2.19199e-29
2.48568e-29
1.11865e-29
1.05903e-29
1.11305e-29
1.25907e-29
1.4152e-29
1.39255e-29
1.62462e-29
1.66918e-29
1.89538e-29
1.99586e-29
2.01713e-29
2.09417e-29
2.24234e-29
2.30806e-29
2.23663e-29
2.14365e-29
2.16582e-29
2.0102e-29
2.1361e-29
2.31625e-29
1.29187e-29
6.70025e-30
1.20084e-29
1.20428e-29
1.37946e-29
1.49241e-29
1.62346e-29
1.67107e-29
1.93697e-29
1.95178e-29
1.7896e-29
1.98193e-29
2.2182e-29
2.24715e-29
2.23647e-29
2.23576e-29
1.9787e-29
1.78395e-29
2.04419e-29
2.33373e-29
1.13363e-29
1.39317e-29
1.2289e-29
1.34365e-29
1.31333e-29
1.46299e-29
1.49826e-29
1.64056e-29
1.80551e-29
1.85535e-29
1.85693e-29
1.96872e-29
2.13992e-29
2.18672e-29
2.25539e-29
2.12576e-29
1.88639e-29
1.68661e-29
1.92677e-29
2.12862e-29
1.16471e-29
1.66949e-29
1.28704e-29
1.32244e-29
1.38554e-29
1.51427e-29
1.60487e-29
1.70958e-29
1.77748e-29
1.76447e-29
1.74742e-29
1.90722e-29
2.05199e-29
2.08082e-29
2.11434e-29
1.9767e-29
1.76873e-29
1.58641e-29
1.79877e-29
2.13521e-29
1.53009e-29
6.66266e-30
1.26974e-29
1.30565e-29
1.39662e-29
1.41699e-29
1.37346e-29
1.56481e-29
1.68105e-29
1.67709e-29
1.7678e-29
1.9756e-29
1.90911e-29
1.80204e-29
1.90647e-29
1.83659e-29
1.67784e-29
1.5887e-29
1.75927e-29
1.99162e-29
1.31737e-29
1.72846e-29
1.19036e-29
1.37237e-29
1.41922e-29
1.46919e-29
1.47547e-29
1.49728e-29
1.58724e-29
1.60889e-29
1.69507e-29
1.85086e-29
1.85288e-29
1.78139e-29
1.70272e-29
1.61349e-29
1.66681e-29
1.71129e-29
1.69224e-29
1.84959e-29
1.3218e-29
1.01055e-29
1.28295e-29
1.38003e-29
1.55677e-29
1.41817e-29
1.40737e-29
1.46785e-29
1.56118e-29
1.52565e-29
1.52419e-29
1.80172e-29
1.69188e-29
1.64497e-29
1.71602e-29
1.75352e-29
1.67095e-29
1.57265e-29
1.68463e-29
1.64282e-29
1.48074e-29
1.46556e-29
1.31729e-29
1.33578e-29
1.41958e-29
1.42075e-29
1.36075e-29
1.46148e-29
1.53838e-29
1.48584e-29
1.63119e-29
1.49923e-29
1.57074e-29
1.60298e-29
1.57009e-29
1.55626e-29
1.60615e-29
1.5777e-29
1.60567e-29
1.84849e-29
1.55103e-29
1.08913e-29
1.49003e-29
1.30047e-29
1.4407e-29
1.50565e-29
1.40492e-29
1.44234e-29
1.36207e-29
1.39218e-29
1.58182e-29
1.46895e-29
1.54494e-29
1.5983e-29
1.53057e-29
1.40434e-29
1.42291e-29
1.50214e-29
1.52319e-29
1.84304e-29
1.35883e-29
1.27269e-29
1.49486e-29
1.35734e-29
1.43445e-29
1.47595e-29
1.48143e-29
1.50106e-29
1.42017e-29
1.40248e-29
1.49222e-29
1.45384e-29
1.42089e-29
1.50327e-29
1.53662e-29
1.38705e-29
1.41497e-29
1.38062e-29
1.47845e-29
1.70744e-29
1.24144e-29
2.15254e-29
1.43799e-29
1.44962e-29
1.41065e-29
1.36702e-29
1.42954e-29
1.46466e-29
1.44729e-29
1.38342e-29
1.45515e-29
1.45405e-29
1.39406e-29
1.44289e-29
1.47638e-29
1.54019e-29
1.43308e-29
1.49991e-29
1.38117e-29
1.58869e-29
1.62297e-29
6.61909e-30
1.44587e-29
1.29133e-29
1.43997e-29
1.387e-29
1.39043e-29
1.48344e-29
1.53586e-29
1.36197e-29
1.43463e-29
1.48006e-29
1.29727e-29
1.38824e-29
1.3495e-29
1.42293e-29
1.39521e-29
1.41557e-29
1.42332e-29
1.68848e-29
1.37651e-29
1.52342e-29
1.35193e-29
1.37262e-29
1.37886e-29
1.36911e-29
1.41787e-29
1.4604e-29
1.49795e-29
1.4394e-29
1.45174e-29
1.35082e-29
1.2878e-29
1.33053e-29
1.4756e-29
1.50712e-29
1.45763e-29
1.29451e-29
1.37562e-29
1.6192e-29
8.03691e-30
1.94281e-29
1.38239e-29
1.51096e-29
1.36415e-29
1.40806e-29
1.49281e-29
1.44454e-29
1.38155e-29
1.40788e-29
1.40297e-29
1.35019e-29
1.29781e-29
1.25632e-29
1.33641e-29
1.48511e-29
1.61868e-29
1.2822e-29
1.34406e-29
1.58512e-29
)
;

boundaryField
{
    movingWall
    {
        type            calculated;
        value           nonuniform List<scalar> 
20
(
8.03691e-30
1.94281e-29
1.38239e-29
1.51096e-29
1.36415e-29
1.40806e-29
1.49281e-29
1.44454e-29
1.38155e-29
1.40788e-29
1.40297e-29
1.35019e-29
1.29781e-29
1.25632e-29
1.33641e-29
1.48511e-29
1.61868e-29
1.2822e-29
1.34406e-29
1.58512e-29
)
;
    }
    fixedWalls
    {
        type            calculated;
        value           nonuniform List<scalar> 
60
(
1.14159e-31
4.78279e-30
6.59341e-30
7.43851e-30
8.3174e-30
8.34587e-30
1.11865e-29
1.29187e-29
1.13363e-29
1.16471e-29
1.53009e-29
1.31737e-29
1.3218e-29
1.48074e-29
1.55103e-29
1.35883e-29
1.24144e-29
1.62297e-29
1.37651e-29
8.03691e-30
2.19641e-29
2.02845e-29
2.18757e-29
2.36463e-29
2.41815e-29
2.48568e-29
2.31625e-29
2.33373e-29
2.12862e-29
2.13521e-29
1.99162e-29
1.84959e-29
1.64282e-29
1.84849e-29
1.84304e-29
1.70744e-29
1.58869e-29
1.68848e-29
1.6192e-29
1.58512e-29
1.14159e-31
9.26822e-30
7.56206e-30
8.95113e-30
1.25708e-29
1.30766e-29
1.30994e-29
1.59152e-29
1.79189e-29
1.97993e-29
1.99902e-29
2.04219e-29
2.19543e-29
2.30956e-29
2.31227e-29
2.27704e-29
2.14386e-29
2.20345e-29
2.37104e-29
2.19641e-29
)
;
    }
    frontAndBack
    {
        type            empty;
    }
}


// ************************************************************************* //
