/*--------------------------------*- C++ -*----------------------------------*\
| =========                 |                                                 |
| \\      /  F ield         | OpenFOAM: The Open Source CFD Toolbox           |
|  \\    /   O peration     | Version:  2506                                  |
|   \\  /    A nd           | Website:  www.openfoam.com                      |
|    \\/     M anipulation  |                                                 |
\*---------------------------------------------------------------------------*/
FoamFile
{
    version     2.0;
    format      ascii;
    arch        "LSB;label=32;scalar=64";
    class       volScalarField;
    location    "7.75";
    object      pzeroGrad;
}
// * * * * * * * * * * * * * * * * * * * * * * * * * * * * * * * * * * * * * //

dimensions      [0 2 -2 0 0 0 0];

internalField   nonuniform List<scalar> 
400
(
3.37875e-16
3.04438e-15
2.74992e-15
2.99184e-15
3.54553e-15
3.61616e-15
3.61931e-15
3.98938e-15
4.23308e-15
4.44964e-15
4.47104e-15
4.51906e-15
4.68554e-15
4.80579e-15
4.80861e-15
4.77183e-15
4.63019e-15
4.69409e-15
4.86933e-15
4.68658e-15
2.18696e-15
1.04006e-15
2.71929e-15
2.83375e-15
3.48087e-15
3.69317e-15
3.78979e-15
3.99084e-15
4.29192e-15
4.34968e-15
4.37872e-15
4.61996e-15
4.91789e-15
4.8402e-15
4.90956e-15
4.72659e-15
4.61026e-15
4.71001e-15
4.69278e-15
4.50384e-15
2.56776e-15
2.86211e-15
2.73616e-15
3.06961e-15
3.34986e-15
3.66544e-15
3.90711e-15
4.08114e-15
4.32666e-15
4.3824e-15
4.40448e-15
4.48437e-15
4.56508e-15
4.75326e-15
4.87418e-15
5.10658e-15
4.69434e-15
4.73164e-15
4.66488e-15
4.67715e-15
2.72736e-15
2.73132e-15
3.19113e-15
3.30061e-15
3.35421e-15
3.68459e-15
3.97792e-15
4.13162e-15
4.17871e-15
4.29652e-15
4.39412e-15
4.58155e-15
4.65417e-15
4.74658e-15
4.7864e-15
4.80441e-15
4.71958e-15
4.72619e-15
4.72118e-15
4.86275e-15
2.88399e-15
2.72131e-15
3.22403e-15
3.47237e-15
3.59606e-15
3.79047e-15
3.94325e-15
4.16198e-15
4.29358e-15
4.34964e-15
4.45541e-15
4.55714e-15
4.70253e-15
4.82005e-15
4.75006e-15
4.70261e-15
4.67654e-15
4.65931e-15
4.63162e-15
4.91747e-15
2.88892e-15
3.74727e-15
3.25854e-15
3.67833e-15
3.68234e-15
3.903e-15
4.09701e-15
4.16084e-15
4.37823e-15
4.4921e-15
4.43321e-15
4.5423e-15
4.74233e-15
4.75787e-15
4.68606e-15
4.65925e-15
4.76732e-15
4.5226e-15
4.68187e-15
4.98566e-15
3.34462e-15
3.25428e-15
3.33623e-15
3.54834e-15
3.76191e-15
3.73169e-15
4.03066e-15
4.08556e-15
4.35359e-15
4.4675e-15
4.49124e-15
4.57621e-15
4.73534e-15
4.80423e-15
4.7293e-15
4.62996e-15
4.65384e-15
4.48353e-15
4.62179e-15
4.81274e-15
3.59426e-15
2.58848e-15
3.46531e-15
3.47027e-15
3.71411e-15
3.86318e-15
4.02922e-15
4.08787e-15
4.4011e-15
4.41789e-15
4.23037e-15
4.45189e-15
4.70978e-15
4.74041e-15
4.72914e-15
4.72838e-15
4.44826e-15
4.22369e-15
4.52127e-15
4.83087e-15
3.36694e-15
3.73252e-15
3.50557e-15
3.66558e-15
3.62399e-15
3.82491e-15
3.87073e-15
4.05038e-15
4.24912e-15
4.30737e-15
4.30921e-15
4.43703e-15
4.62593e-15
4.67624e-15
4.74909e-15
4.61059e-15
4.34326e-15
4.10684e-15
4.3895e-15
4.6137e-15
3.41279e-15
4.08594e-15
3.58754e-15
3.63653e-15
3.72228e-15
3.89136e-15
4.00609e-15
4.13471e-15
4.21602e-15
4.20056e-15
4.18021e-15
4.36717e-15
4.52989e-15
4.5616e-15
4.5982e-15
4.44601e-15
4.20563e-15
3.98298e-15
4.24119e-15
4.62083e-15
3.91164e-15
2.58121e-15
3.56335e-15
3.61337e-15
3.73714e-15
3.7643e-15
3.70603e-15
3.95577e-15
4.10007e-15
4.09523e-15
4.20452e-15
4.44477e-15
4.36934e-15
4.24504e-15
4.36631e-15
4.28555e-15
4.09614e-15
3.98585e-15
4.19437e-15
4.46276e-15
3.62957e-15
4.15748e-15
3.45016e-15
3.70455e-15
3.76725e-15
3.83301e-15
3.84118e-15
3.86947e-15
3.98402e-15
4.0111e-15
4.11712e-15
4.30217e-15
4.30451e-15
4.22065e-15
4.1264e-15
4.01682e-15
4.08266e-15
4.13677e-15
4.11369e-15
4.30068e-15
3.63566e-15
3.17892e-15
3.58183e-15
3.71488e-15
3.9456e-15
3.76586e-15
3.7515e-15
3.83126e-15
3.95117e-15
3.90595e-15
3.90408e-15
4.24467e-15
4.11324e-15
4.05582e-15
4.14249e-15
4.1875e-15
4.08773e-15
3.96567e-15
4.10442e-15
4.05317e-15
3.84804e-15
3.82826e-15
3.62945e-15
3.65483e-15
3.76774e-15
3.76929e-15
3.68884e-15
3.82293e-15
3.92222e-15
3.85466e-15
4.0388e-15
3.87198e-15
3.96326e-15
4.00372e-15
3.96244e-15
3.94495e-15
4.00768e-15
3.97203e-15
4.00708e-15
4.2994e-15
3.93831e-15
3.3002e-15
3.86009e-15
3.6062e-15
3.79565e-15
3.88027e-15
3.74822e-15
3.79781e-15
3.69062e-15
3.73119e-15
3.97721e-15
3.83269e-15
3.93057e-15
3.99788e-15
3.91225e-15
3.74745e-15
3.77215e-15
3.87575e-15
3.90281e-15
4.29306e-15
3.68623e-15
3.56748e-15
3.86635e-15
3.68422e-15
3.78741e-15
3.84181e-15
3.84894e-15
3.87435e-15
3.76852e-15
3.74497e-15
3.86293e-15
3.81293e-15
3.76947e-15
3.8772e-15
3.91997e-15
3.72431e-15
3.76161e-15
3.71567e-15
3.84507e-15
4.13212e-15
3.52341e-15
4.63954e-15
3.79208e-15
3.80738e-15
3.75587e-15
3.69732e-15
3.78092e-15
3.82708e-15
3.80433e-15
3.71944e-15
3.81464e-15
3.81319e-15
3.73372e-15
3.79853e-15
3.84236e-15
3.92452e-15
3.7856e-15
3.87286e-15
3.71641e-15
3.98584e-15
4.0286e-15
2.57276e-15
3.80246e-15
3.5935e-15
3.7947e-15
3.72424e-15
3.72884e-15
3.85155e-15
3.919e-15
3.69049e-15
3.78765e-15
3.84716e-15
3.60176e-15
3.7259e-15
3.67355e-15
3.77217e-15
3.73525e-15
3.76241e-15
3.77269e-15
4.10911e-15
3.71014e-15
3.9031e-15
3.67686e-15
3.70489e-15
3.7133e-15
3.70014e-15
3.76546e-15
3.82151e-15
3.87033e-15
3.79394e-15
3.81017e-15
3.67535e-15
3.58859e-15
3.64764e-15
3.84135e-15
3.88216e-15
3.8179e-15
3.59793e-15
3.70893e-15
4.02393e-15
2.83495e-15
4.40774e-15
3.71805e-15
3.88711e-15
3.69344e-15
3.75241e-15
3.86368e-15
3.80071e-15
3.71692e-15
3.75217e-15
3.74562e-15
3.6745e-15
3.60252e-15
3.54446e-15
3.6557e-15
3.85372e-15
4.02328e-15
3.58078e-15
3.66614e-15
3.98135e-15
)
;

boundaryField
{
    movingWall
    {
        type            zeroGradient;
    }
    fixedWalls
    {
        type            zeroGradient;
    }
    frontAndBack
    {
        type            empty;
    }
}


// ************************************************************************* //
