/*--------------------------------*- C++ -*----------------------------------*\
| =========                 |                                                 |
| \\      /  F ield         | OpenFOAM: The Open Source CFD Toolbox           |
|  \\    /   O peration     | Version:  2506                                  |
|   \\  /    A nd           | Website:  www.openfoam.com                      |
|    \\/     M anipulation  |                                                 |
\*---------------------------------------------------------------------------*/
FoamFile
{
    version     2.0;
    format      ascii;
    arch        "LSB;label=32;scalar=64";
    class       volScalarField;
    location    "7.75";
    object      QField;
}
// * * * * * * * * * * * * * * * * * * * * * * * * * * * * * * * * * * * * * //

dimensions      [0 0 -2 0 0 0 0];

internalField   nonuniform List<scalar> 
400
(
1.55801e-24
2.12095e-25
2.22392e-26
6.18444e-27
-4.14816e-28
-2.97669e-28
-3.94478e-28
-5.6794e-28
-1.51176e-28
-5.46039e-28
-5.95963e-28
0
6.41151e-29
-3.21409e-28
-4.60701e-28
5.57897e-28
0
-2.74788e-28
-3.58176e-28
0
2.70993e-24
4.12637e-25
1.79099e-26
1.09272e-27
-2.10554e-28
-6.73155e-28
1.19222e-27
2.39612e-27
1.84736e-27
5.37752e-28
1.83968e-28
9.3186e-29
-1.51549e-27
0
-8.51147e-29
-8.73438e-28
-1.24698e-27
1.31993e-28
-3.91846e-28
-7.63779e-28
9.16243e-25
1.48312e-25
3.24839e-26
7.19656e-27
-4.95916e-28
-1.64521e-27
-1.33331e-28
7.52691e-28
-9.80921e-29
7.96379e-28
2.13246e-28
-5.23718e-28
6.33754e-28
2.29338e-27
1.19625e-27
-3.02033e-28
-1.57265e-27
-7.64622e-28
-1.23137e-27
0
-3.19185e-25
-7.84307e-26
6.85462e-27
-1.26027e-27
-1.19862e-27
0
-3.71885e-28
-7.82028e-28
-2.70587e-27
-6.28887e-28
1.199e-27
5.78957e-28
-1.13022e-28
-4.32967e-28
0
3.82607e-27
1.89203e-27
-4.72586e-28
-9.05903e-28
-7.47824e-28
9.04916e-26
-1.13691e-26
2.5406e-27
8.5181e-29
-6.81587e-28
-1.01002e-27
6.93295e-28
1.42126e-27
-5.56999e-29
-3.86945e-28
0
5.85095e-29
-1.74095e-28
4.8325e-28
0
0
-4.47955e-29
-7.48577e-28
3.70571e-30
4.17387e-28
3.63748e-25
7.47097e-26
-3.32627e-28
9.32857e-29
-8.75987e-29
5.49679e-28
-4.57165e-29
-1.11489e-28
-6.13108e-28
-9.65605e-29
3.09773e-28
-2.20247e-29
6.16415e-29
0
-2.50421e-28
0
-6.7367e-28
8.3345e-28
-4.1068e-28
-1.59929e-28
5.69778e-25
1.26988e-25
2.13313e-26
-6.10681e-28
-1.93118e-28
-7.46943e-28
0
-1.24967e-28
-3.77187e-28
1.54817e-27
5.77248e-28
0
-4.9803e-28
9.09281e-28
0
1.96236e-28
-4.49541e-28
0
0
-2.41346e-28
6.64294e-25
1.31829e-25
4.57663e-27
1.29217e-27
0
2.08537e-28
-2.5744e-28
0
-5.52871e-28
-3.60084e-29
-1.8982e-27
-9.61867e-28
-1.20481e-28
-2.95682e-28
0
1.06739e-27
-8.31377e-29
2.97799e-28
-2.71504e-28
2.67114e-28
1.165e-24
2.30116e-25
2.15187e-26
2.6667e-28
-1.40328e-27
0
-4.56966e-28
-4.20797e-28
1.34111e-28
-8.51387e-28
2.33972e-28
2.84118e-28
3.38035e-28
-1.0493e-30
-2.2911e-28
-5.25958e-29
-1.95947e-27
9.25042e-28
-3.17096e-28
-4.56961e-28
1.45473e-24
2.54569e-25
1.05899e-26
3.99846e-27
0
-4.54468e-28
-4.12686e-28
-7.64715e-28
-8.96061e-29
8.66153e-30
5.02245e-28
0
1.24383e-27
4.85632e-30
0
1.31915e-27
-4.96889e-28
0
-4.93293e-28
-2.56559e-29
7.20033e-25
7.11103e-26
3.09705e-28
2.13918e-27
6.77715e-28
-1.90995e-28
-1.87118e-28
-2.11331e-28
0
8.19635e-29
1.17873e-28
-1.40395e-29
0
-1.27459e-27
2.19424e-28
-2.1672e-28
2.34713e-28
0
-4.81504e-28
0
1.30096e-25
-2.76492e-26
2.90887e-27
-8.11548e-28
-5.31448e-28
1.44436e-28
0
1.23202e-27
9.70223e-28
0
-5.65998e-28
0
3.71598e-29
0
-1.98897e-28
-1.25107e-27
-7.37943e-29
4.28692e-28
8.36568e-29
-2.19797e-28
1.54368e-25
3.77057e-26
1.7304e-27
3.63142e-27
6.44488e-28
4.94799e-28
1.42529e-27
2.31766e-28
-2.41369e-28
-4.12087e-28
-8.9239e-28
-2.12313e-27
1.04547e-28
6.32676e-28
0
7.93508e-28
0
-1.62946e-27
0
-9.59034e-28
2.03083e-26
1.81598e-26
-8.50874e-28
-9.93022e-28
1.17462e-27
-2.26805e-28
-1.21998e-28
-5.72155e-28
-7.16438e-28
-3.80083e-29
-5.89481e-28
8.39184e-29
9.57875e-28
6.8591e-28
-8.89542e-29
5.17629e-28
1.69211e-27
6.81227e-30
-1.55994e-29
-1.48718e-27
4.96307e-25
1.27945e-25
8.22257e-27
-2.71774e-27
3.09105e-29
-5.69246e-28
2.37293e-27
1.63277e-27
-1.22124e-27
-6.17672e-28
3.9949e-28
4.04108e-28
3.00395e-28
-6.31387e-28
-1.50575e-28
-1.41219e-28
-2.15465e-28
-6.81635e-28
1.6772e-28
-3.14855e-28
1.11448e-24
2.39497e-25
1.85907e-26
2.44236e-27
-1.23494e-28
1.32259e-28
1.0685e-27
8.69934e-28
-5.33611e-28
-3.65473e-28
-5.91476e-28
-3.63047e-28
-1.72499e-28
0
-2.9736e-28
-7.41835e-29
0
-1.02696e-27
3.73794e-28
0
1.81507e-24
3.01653e-25
1.49387e-26
2.43044e-27
-5.81555e-28
-2.48508e-28
0
0
5.87091e-28
3.58634e-28
0
5.9567e-28
5.23704e-28
0
0
1.28621e-27
1.09043e-27
-7.36625e-28
-3.36034e-28
0
2.12879e-24
3.60701e-25
2.26602e-26
9.57185e-28
-6.51001e-28
3.98292e-28
4.62969e-28
-2.74147e-28
-5.46208e-28
5.01503e-28
4.02939e-28
-2.39721e-28
-7.09805e-28
0
-2.6172e-27
-1.12477e-27
5.25237e-28
-8.86999e-28
-3.42594e-28
-1.20982e-28
1.64283e-24
3.18467e-25
2.97514e-26
-1.26864e-27
5.25094e-28
1.42572e-27
-2.99274e-28
-2.73194e-28
-4.07176e-28
-1.17922e-27
-8.24446e-28
7.16196e-28
1.17637e-27
7.26663e-28
1.57276e-29
-4.13382e-28
7.00998e-28
5.60366e-29
0
1.12615e-28
6.34676e-25
5.21594e-26
1.15347e-26
-3.71515e-28
-8.94985e-28
-1.2873e-27
-1.73087e-27
3.47116e-28
7.42141e-28
4.80313e-28
1.0318e-29
-2.1838e-28
-4.43124e-29
2.11287e-28
-7.21308e-28
-3.70632e-28
-5.71687e-28
-5.86224e-28
-1.66866e-29
9.59288e-29
)
;

boundaryField
{
    movingWall
    {
        type            calculated;
        value           nonuniform List<scalar> 
20
(
-1.20381e-25
-9.53575e-26
1.986e-26
-1.50351e-27
-3.05769e-27
-6.32736e-27
-4.99477e-27
1.28107e-28
1.82389e-27
1.18042e-27
3.38101e-29
-3.57794e-28
-1.45203e-28
3.46172e-28
-1.43522e-28
-6.07243e-28
-1.29915e-27
-9.6047e-28
1.18025e-28
1.16332e-28
)
;
    }
    fixedWalls
    {
        type            calculated;
        value           nonuniform List<scalar> 
60
(
6.64183e-24
1.2113e-23
4.1892e-24
-1.25191e-24
1.94069e-25
1.46828e-24
2.91647e-24
3.63474e-24
5.61199e-24
6.49912e-24
3.47975e-24
5.90701e-25
5.05611e-25
2.71832e-25
2.67437e-24
5.16731e-24
8.59096e-24
1.04922e-23
7.47369e-24
3.28214e-24
0
-1.25138e-27
0
-8.79506e-28
5.87853e-28
-2.34074e-28
-4.04358e-28
5.08825e-28
-4.9832e-28
7.26247e-29
0
-6.97546e-28
-1.57128e-27
-2.20228e-27
-1.44407e-27
0
0
-1.98217e-28
2.6569e-28
4.08382e-29
5.61635e-25
4.70913e-25
-1.08441e-25
2.01691e-26
-1.58581e-27
-1.21925e-27
-2.51966e-27
-2.2942e-27
7.81174e-28
4.38615e-28
-1.17723e-28
1.1191e-28
-7.00307e-29
5.26597e-28
-9.60217e-28
-1.98831e-27
2.88458e-28
-5.64661e-28
-7.6256e-28
0
)
;
    }
    frontAndBack
    {
        type            empty;
    }
}


// ************************************************************************* //
