/*--------------------------------*- C++ -*----------------------------------*\
| =========                 |                                                 |
| \\      /  F ield         | OpenFOAM: The Open Source CFD Toolbox           |
|  \\    /   O peration     | Version:  2506                                  |
|   \\  /    A nd           | Website:  www.openfoam.com                      |
|    \\/     M anipulation  |                                                 |
\*---------------------------------------------------------------------------*/
FoamFile
{
    version     2.0;
    format      ascii;
    arch        "LSB;label=32;scalar=64";
    class       volVectorField;
    location    "7.75";
    object      vorticityField;
}
// * * * * * * * * * * * * * * * * * * * * * * * * * * * * * * * * * * * * * //

dimensions      [0 0 -1 0 0 0 0];

internalField   nonuniform List<vector> 
400
(
(0 -0 1.47818e-12)
(0 -0 -1.59334e-12)
(0 -0 3.00192e-13)
(0 -0 -1.5637e-13)
(0 -0 -7.62138e-14)
(0 -0 -4.87191e-14)
(0 -0 -1.62651e-14)
(0 -0 -5.21155e-14)
(0 -0 -6.25793e-14)
(0 -0 -3.23936e-14)
(0 -0 -4.34655e-15)
(0 -0 -1.25999e-15)
(0 -0 8.21036e-14)
(0 -0 4.82812e-14)
(0 -0 5.80639e-14)
(0 -0 6.33717e-14)
(0 -0 -2.16516e-15)
(0 -0 7.13036e-16)
(0 -0 -7.294e-16)
(0 -0 -1.15188e-14)
(0 -0 7.7626e-13)
(0 -0 -1.5198e-13)
(0 -0 5.73572e-14)
(0 -0 2.21174e-14)
(0 -0 5.03261e-14)
(0 -0 4.29183e-14)
(0 -0 1.14628e-13)
(0 -0 1.32355e-13)
(0 -0 1.25459e-13)
(0 -0 1.1338e-13)
(0 -0 8.35776e-14)
(0 -0 5.59291e-14)
(0 -0 -2.71114e-14)
(0 -0 -4.12216e-14)
(0 -0 2.39649e-14)
(0 -0 5.27144e-14)
(0 -0 9.58779e-14)
(0 -0 5.66449e-14)
(0 -0 4.69818e-14)
(0 -0 -3.87582e-15)
(0 -0 -1.78958e-12)
(0 -0 1.41583e-12)
(0 -0 -3.64728e-13)
(0 -0 1.68357e-13)
(0 -0 -1.70762e-15)
(0 -0 3.45551e-14)
(0 -0 -2.2186e-14)
(0 -0 5.48745e-14)
(0 -0 1.43356e-14)
(0 -0 -8.91087e-14)
(0 -0 -3.49725e-14)
(0 -0 -8.75384e-16)
(0 -0 -1.2546e-13)
(0 -0 -1.09519e-13)
(0 -0 -1.58275e-13)
(0 -0 -3.95447e-14)
(0 -0 -2.12679e-14)
(0 -0 1.0863e-14)
(0 -0 6.09585e-15)
(0 -0 2.23184e-14)
(0 -0 7.45956e-13)
(0 -0 -7.93095e-13)
(0 -0 2.64909e-13)
(0 -0 1.4199e-14)
(0 -0 1.96941e-14)
(0 -0 -1.9474e-15)
(0 -0 -3.02854e-15)
(0 -0 -2.9001e-14)
(0 -0 -5.53229e-14)
(0 -0 -3.25852e-14)
(0 -0 -1.19479e-13)
(0 -0 -9.33539e-14)
(0 -0 -2.29353e-14)
(0 -0 -1.11314e-14)
(0 -0 -7.23871e-15)
(0 -0 -1.43709e-13)
(0 -0 -1.29928e-13)
(0 -0 -7.55034e-14)
(0 -0 -3.74991e-14)
(0 -0 -3.99585e-15)
(0 -0 -1.14352e-12)
(0 -0 3.5503e-13)
(0 -0 -1.78252e-13)
(0 -0 -1.03067e-13)
(0 -0 -4.16371e-14)
(0 -0 -9.91045e-14)
(0 -0 -8.92558e-14)
(0 -0 -1.21529e-13)
(0 -0 -5.31826e-14)
(0 -0 -1.28293e-14)
(0 -0 6.05796e-15)
(0 -0 -1.22472e-14)
(0 -0 2.09609e-14)
(0 -0 6.31245e-14)
(0 -0 -6.85264e-16)
(0 -0 -1.00096e-14)
(0 -0 2.54524e-14)
(0 -0 -2.9255e-15)
(0 -0 -2.72418e-14)
(0 -0 4.25039e-14)
(0 -0 -2.04055e-13)
(0 -0 7.50656e-13)
(0 -0 -1.16218e-13)
(0 -0 6.20305e-14)
(0 -0 5.25942e-14)
(0 -0 6.20752e-14)
(0 -0 2.54184e-14)
(0 -0 2.1665e-14)
(0 -0 4.44286e-14)
(0 -0 2.35426e-14)
(0 -0 -8.05605e-15)
(0 -0 -3.95523e-14)
(0 -0 -2.93792e-14)
(0 -0 4.77335e-17)
(0 -0 -5.12992e-15)
(0 -0 1.33529e-15)
(0 -0 1.15243e-14)
(0 -0 3.09911e-14)
(0 -0 -3.0404e-15)
(0 -0 -3.03563e-14)
(0 -0 1.819e-12)
(0 -0 -1.15385e-12)
(0 -0 2.97781e-13)
(0 -0 -3.00918e-14)
(0 -0 -7.71832e-15)
(0 -0 -4.36477e-15)
(0 -0 -2.06432e-15)
(0 -0 2.24946e-14)
(0 -0 8.37005e-15)
(0 -0 1.03963e-13)
(0 -0 6.48585e-14)
(0 -0 -7.22702e-15)
(0 -0 -1.29574e-14)
(0 -0 -7.09834e-14)
(0 -0 -9.25743e-15)
(0 -0 1.16564e-14)
(0 -0 1.39043e-14)
(0 -0 -2.01118e-16)
(0 -0 -4.41659e-15)
(0 -0 1.8201e-14)
(0 -0 -5.06314e-13)
(0 -0 -1.94669e-14)
(0 -0 3.63519e-14)
(0 -0 9.90749e-14)
(0 -0 1.17285e-14)
(0 -0 5.66383e-14)
(0 -0 5.07233e-14)
(0 -0 -2.10438e-14)
(0 -0 -3.6726e-14)
(0 -0 -5.28749e-14)
(0 -0 6.34768e-15)
(0 -0 3.2863e-14)
(0 -0 2.26601e-14)
(0 -0 1.61963e-14)
(0 -0 7.02339e-16)
(0 -0 7.39e-14)
(0 -0 4.18244e-14)
(0 -0 -3.57924e-14)
(0 -0 1.70883e-14)
(0 -0 -3.78265e-14)
(0 -0 -2.04475e-12)
(0 -0 1.39119e-12)
(0 -0 -3.06895e-13)
(0 -0 3.88104e-14)
(0 -0 -7.7522e-15)
(0 -0 6.69226e-15)
(0 -0 6.04288e-15)
(0 -0 7.87437e-15)
(0 -0 2.88633e-14)
(0 -0 3.85048e-14)
(0 -0 -3.57371e-14)
(0 -0 3.66616e-14)
(0 -0 3.95763e-14)
(0 -0 9.05883e-14)
(0 -0 1.17433e-13)
(0 -0 8.23787e-14)
(0 -0 4.73376e-14)
(0 -0 1.79501e-14)
(0 -0 4.83607e-14)
(0 -0 1.73948e-14)
(0 -0 1.98916e-12)
(0 -0 -9.28766e-13)
(0 -0 1.74916e-13)
(0 -0 -1.65692e-13)
(0 -0 4.95172e-15)
(0 -0 1.14551e-14)
(0 -0 -5.11759e-14)
(0 -0 -9.95124e-16)
(0 -0 1.2866e-16)
(0 -0 2.74246e-14)
(0 -0 8.21626e-14)
(0 -0 1.47471e-14)
(0 -0 7.85487e-14)
(0 -0 2.72842e-14)
(0 -0 -2.20248e-14)
(0 -0 -1.03392e-13)
(0 -0 -6.62632e-14)
(0 -0 4.69719e-15)
(0 -0 -4.61597e-14)
(0 -0 -2.81211e-14)
(0 -0 -3.08615e-13)
(0 -0 1.67788e-13)
(0 -0 6.38625e-14)
(0 -0 1.50962e-13)
(0 -0 8.86725e-14)
(0 -0 7.89663e-14)
(0 -0 8.46976e-14)
(0 -0 2.02333e-15)
(0 -0 -5.14532e-15)
(0 -0 -3.0129e-14)
(0 -0 -5.63845e-14)
(0 -0 5.05675e-14)
(0 -0 -5.69148e-15)
(0 -0 -3.27835e-14)
(0 -0 -5.82578e-14)
(0 -0 -7.99213e-15)
(0 -0 -3.80666e-14)
(0 -0 9.96566e-15)
(0 -0 -9.34067e-15)
(0 -0 -9.57438e-15)
(0 -0 -6.33821e-13)
(0 -0 1.51574e-13)
(0 -0 -7.99093e-14)
(0 -0 -2.39857e-14)
(0 -0 -6.77807e-15)
(0 -0 -5.68745e-14)
(0 -0 1.02868e-14)
(0 -0 1.05354e-13)
(0 -0 9.32468e-14)
(0 -0 -5.74942e-15)
(0 -0 4.37693e-14)
(0 -0 -3.31623e-15)
(0 -0 2.8476e-14)
(0 -0 2.20647e-15)
(0 -0 5.05411e-14)
(0 -0 7.56627e-14)
(0 -0 8.33714e-14)
(0 -0 6.37852e-14)
(0 -0 3.75032e-14)
(0 -0 1.04475e-14)
(0 -0 8.77427e-13)
(0 -0 -1.64618e-13)
(0 -0 -4.2187e-14)
(0 -0 -1.30671e-13)
(0 -0 -9.90615e-14)
(0 -0 -8.74001e-14)
(0 -0 -1.21566e-13)
(0 -0 -8.41654e-14)
(0 -0 -1.82001e-14)
(0 -0 -5.31679e-14)
(0 -0 -4.7171e-14)
(0 -0 -7.08391e-14)
(0 -0 -8.52396e-14)
(0 -0 -6.58809e-14)
(0 -0 -1.70163e-14)
(0 -0 -9.19777e-14)
(0 -0 6.97219e-15)
(0 -0 1.1545e-14)
(0 -0 5.88171e-15)
(0 -0 6.28587e-15)
(0 -0 -2.85374e-13)
(0 -0 2.3991e-13)
(0 -0 -4.93795e-14)
(0 -0 1.79495e-15)
(0 -0 -8.42723e-14)
(0 -0 -3.64944e-14)
(0 -0 -2.26041e-14)
(0 -0 -1.88944e-14)
(0 -0 -7.59195e-14)
(0 -0 -5.3509e-14)
(0 -0 -8.7931e-15)
(0 -0 3.79867e-14)
(0 -0 -7.18798e-14)
(0 -0 -6.68629e-14)
(0 -0 -8.02212e-14)
(0 -0 -6.37587e-14)
(0 -0 -1.27759e-13)
(0 -0 -5.43358e-14)
(0 -0 1.2746e-14)
(0 -0 -3.26366e-14)
(0 -0 1.01925e-12)
(0 -0 -8.70753e-13)
(0 -0 1.76869e-13)
(0 -0 -1.47003e-15)
(0 -0 1.09553e-13)
(0 -0 1.11459e-13)
(0 -0 1.53034e-13)
(0 -0 1.2348e-13)
(0 -0 1.0266e-13)
(0 -0 4.67254e-14)
(0 -0 8.6228e-14)
(0 -0 6.85118e-14)
(0 -0 5.85461e-14)
(0 -0 4.25631e-14)
(0 -0 2.15498e-14)
(0 -0 1.07118e-13)
(0 -0 5.03024e-14)
(0 -0 -3.95793e-15)
(0 -0 -2.0312e-14)
(0 -0 5.52113e-14)
(0 -0 -2.21053e-12)
(0 -0 1.23121e-12)
(0 -0 -2.89126e-13)
(0 -0 9.77945e-14)
(0 -0 1.04132e-14)
(0 -0 -3.19845e-14)
(0 -0 -9.44554e-14)
(0 -0 -9.20135e-14)
(0 -0 -8.26751e-14)
(0 -0 -1.36215e-14)
(0 -0 -4.1774e-14)
(0 -0 -4.75131e-14)
(0 -0 -1.51082e-15)
(0 -0 -1.0739e-14)
(0 -0 -1.3827e-14)
(0 -0 -9.18563e-15)
(0 -0 5.69175e-15)
(0 -0 1.29889e-14)
(0 -0 4.08956e-14)
(0 -0 -5.02576e-15)
(0 -0 1.47065e-12)
(0 -0 -1.03507e-12)
(0 -0 2.11411e-13)
(0 -0 -9.87603e-14)
(0 -0 -5.00455e-14)
(0 -0 -5.81307e-14)
(0 -0 -1.01274e-14)
(0 -0 -6.30375e-15)
(0 -0 6.504e-14)
(0 -0 4.03363e-14)
(0 -0 5.05391e-15)
(0 -0 6.51983e-14)
(0 -0 6.38707e-14)
(0 -0 5.6877e-15)
(0 -0 -8.68107e-15)
(0 -0 -8.26653e-14)
(0 -0 -7.43249e-14)
(0 -0 -2.09445e-14)
(0 -0 1.98536e-14)
(0 -0 1.29482e-14)
(0 -0 1.17715e-12)
(0 -0 -7.45502e-13)
(0 -0 1.74846e-13)
(0 -0 -2.87267e-14)
(0 -0 -6.31269e-15)
(0 -0 6.15573e-14)
(0 -0 6.27504e-14)
(0 -0 -4.28601e-15)
(0 -0 1.59978e-15)
(0 -0 6.18312e-14)
(0 -0 6.1643e-14)
(0 -0 6.25398e-15)
(0 -0 -5.4412e-15)
(0 -0 -1.62951e-14)
(0 -0 -7.7954e-15)
(0 -0 1.14492e-14)
(0 -0 3.85761e-14)
(0 -0 1.96093e-14)
(0 -0 -5.4811e-15)
(0 -0 9.93654e-15)
(0 -0 -2.78407e-12)
(0 -0 1.41483e-12)
(0 -0 -3.55274e-13)
(0 -0 1.96996e-14)
(0 -0 -8.77727e-14)
(0 -0 -1.2157e-13)
(0 -0 -1.09583e-13)
(0 -0 -5.32175e-14)
(0 -0 -1.06075e-13)
(0 -0 -9.75438e-14)
(0 -0 -7.34692e-14)
(0 -0 -9.11415e-14)
(0 -0 -1.1927e-13)
(0 -0 -6.76147e-14)
(0 -0 -4.04458e-14)
(0 -0 -1.54676e-14)
(0 -0 5.29673e-14)
(0 -0 6.51033e-14)
(0 -0 -9.11693e-16)
(0 -0 -3.12598e-14)
(0 -0 1.01754e-12)
(0 -0 -1.9394e-13)
(0 -0 1.89695e-13)
(0 -0 1.87003e-14)
(0 -0 7.27949e-14)
(0 -0 3.04635e-14)
(0 -0 5.17193e-14)
(0 -0 7.12541e-14)
(0 -0 6.79002e-14)
(0 -0 6.30703e-14)
(0 -0 2.74857e-14)
(0 -0 1.90482e-14)
(0 -0 5.33927e-14)
(0 -0 5.81077e-14)
(0 -0 1.95486e-14)
(0 -0 1.34312e-14)
(0 -0 -1.95322e-16)
(0 -0 -4.33962e-14)
(0 -0 8.3415e-15)
(0 -0 2.71315e-14)
)
;

boundaryField
{
    movingWall
    {
        type            calculated;
        value           nonuniform List<vector> 
20
(
(0 -0 2.76801e-12)
(0 -0 -5.02504e-13)
(0 -0 5.42667e-13)
(0 -0 1.24822e-13)
(0 -0 3.02342e-13)
(0 -0 2.42707e-13)
(0 -0 2.63963e-13)
(0 -0 1.05862e-13)
(0 -0 1.46917e-13)
(0 -0 1.42087e-13)
(0 -0 8.91985e-14)
(0 -0 3.63521e-14)
(0 -0 1.76818e-13)
(0 -0 9.27154e-14)
(0 -0 3.68524e-14)
(0 -0 3.0735e-14)
(0 -0 4.42136e-14)
(0 -0 -7.80039e-14)
(0 -0 8.3415e-15)
(0 -0 4.44354e-14)
)
;
    }
    fixedWalls
    {
        type            calculated;
        value           nonuniform List<vector> 
60
(
(0 -0 6.65587e-12)
(0 -0 9.79188e-13)
(0 -0 -6.23796e-12)
(0 -0 3.48587e-12)
(0 -0 -1.91909e-12)
(0 -0 -2.69584e-12)
(0 -0 4.9688e-12)
(0 -0 -2.22919e-13)
(0 -0 -5.98189e-12)
(0 -0 4.18007e-12)
(0 -0 -5.96734e-13)
(0 -0 -8.01159e-13)
(0 -0 9.79952e-13)
(0 -0 -1.0015e-12)
(0 -0 3.43737e-12)
(0 -0 -5.44554e-12)
(0 -0 4.52912e-12)
(0 -0 3.24013e-12)
(0 -0 -6.401e-12)
(0 -0 1.28526e-12)
(0 -0 -1.67465e-14)
(0 -0 8.02563e-15)
(0 -0 3.96105e-14)
(0 -0 -1.99806e-15)
(0 -0 4.8793e-14)
(0 -0 -3.34631e-14)
(0 -0 1.21869e-14)
(0 -0 -4.72973e-14)
(0 -0 8.7203e-15)
(0 -0 -3.3e-14)
(0 -0 -2.62352e-14)
(0 -0 -1.26357e-14)
(0 -0 7.9587e-15)
(0 -0 -2.31866e-14)
(0 -0 3.87281e-14)
(0 -0 -2.34505e-14)
(0 -0 8.05158e-15)
(0 -0 1.16038e-14)
(0 -0 -3.69073e-14)
(0 -0 2.28565e-14)
(0 -0 -2.15584e-12)
(0 -0 -1.3886e-12)
(0 -0 -3.31334e-13)
(0 -0 -3.41508e-13)
(0 -0 -3.05761e-13)
(0 -0 -2.16554e-13)
(0 -0 -3.00023e-13)
(0 -0 -3.08768e-13)
(0 -0 -2.30414e-13)
(0 -0 -2.27333e-13)
(0 -0 -9.31644e-14)
(0 -0 -9.00778e-14)
(0 -0 -8.80294e-14)
(0 -0 -9.47468e-14)
(0 -0 -1.73782e-13)
(0 -0 -1.24065e-13)
(0 -0 -1.35392e-13)
(0 -0 -4.36959e-14)
(0 -0 -4.51383e-14)
(0 -0 -1.15188e-14)
)
;
    }
    frontAndBack
    {
        type            empty;
    }
}


// ************************************************************************* //
