/*--------------------------------*- C++ -*----------------------------------*\
| =========                 |                                                 |
| \\      /  F ield         | OpenFOAM: The Open Source CFD Toolbox           |
|  \\    /   O peration     | Version:  2506                                  |
|   \\  /    A nd           | Website:  www.openfoam.com                      |
|    \\/     M anipulation  |                                                 |
\*---------------------------------------------------------------------------*/
FoamFile
{
    version     2.0;
    format      ascii;
    arch        "LSB;label=32;scalar=64";
    class       volVectorField;
    location    "7.75";
    object      zeroGradient(U);
}
// * * * * * * * * * * * * * * * * * * * * * * * * * * * * * * * * * * * * * //

dimensions      [0 1 -1 0 0 0 0];

internalField   nonuniform List<vector> 
400
(
(-1 1.64364e-14 0)
(-1 -2.46769e-15 0)
(-1 7.74039e-16 0)
(-1 -7.86545e-18 0)
(-1 2.34948e-17 0)
(-1 4.31479e-17 0)
(-1 7.8405e-17 0)
(-1 1.51547e-16 0)
(-1 9.93507e-17 0)
(-1 6.7855e-17 0)
(-1 4.64649e-17 0)
(-1 2.43896e-17 0)
(-1 3.3865e-17 0)
(-1 3.22743e-17 0)
(-1 -2.54246e-17 0)
(-1 7.08118e-17 0)
(-1 6.6191e-17 0)
(-1 4.91602e-17 0)
(-1 7.33214e-17 0)
(-1 4.18662e-17 0)
(-1 7.53904e-16 0)
(-1 2.32434e-16 0)
(-1 4.72518e-17 0)
(-1 -7.14508e-18 0)
(-1 -2.6246e-18 0)
(-1 -4.59854e-17 0)
(-1 -1.15543e-16 0)
(-1 1.60945e-17 0)
(-1 1.23808e-16 0)
(-1 1.86484e-16 0)
(-1 1.73407e-16 0)
(-1 2.09108e-16 0)
(-1 1.90596e-16 0)
(-1 -6.20066e-17 0)
(-1 -2.21619e-16 0)
(-1 -9.34084e-17 0)
(-1 3.4474e-17 0)
(-1 5.22188e-17 0)
(-1 5.88223e-17 0)
(-1 -2.00641e-17 0)
(-1 -1.40364e-14 0)
(-1 2.37477e-15 0)
(-1 -6.91227e-16 0)
(-1 8.27385e-17 0)
(-1 1.7919e-16 0)
(-1 6.56622e-17 0)
(-1 -1.73602e-17 0)
(-1 1.14853e-16 0)
(-1 2.60334e-16 0)
(-1 2.58208e-16 0)
(-1 1.82398e-16 0)
(-1 1.79534e-16 0)
(-1 1.73645e-16 0)
(-1 9.13942e-18 0)
(-1 -1.08391e-16 0)
(-1 -2.18356e-16 0)
(-1 -2.32788e-16 0)
(-1 -1.59985e-16 0)
(-1 -1.24157e-16 0)
(-1 -9.90262e-17 0)
(-1 8.5114e-15 0)
(-1 -1.86499e-15 0)
(-1 3.09397e-16 0)
(-1 -2.90498e-17 0)
(-1 1.80336e-16 0)
(-1 1.67891e-16 0)
(-1 1.60862e-16 0)
(-1 1.37606e-16 0)
(-1 1.41902e-16 0)
(-1 1.26478e-16 0)
(-1 8.71013e-17 0)
(-1 1.589e-17 0)
(-1 -3.32865e-17 0)
(-1 5.75877e-17 0)
(-1 1.2645e-16 0)
(-1 -1.47994e-17 0)
(-1 -2.26442e-16 0)
(-1 -2.29877e-16 0)
(-1 -1.68325e-16 0)
(-1 -6.27675e-17 0)
(-1 -2.56155e-15 0)
(-1 7.10093e-17 0)
(-1 -9.54473e-17 0)
(-1 -8.521e-17 0)
(-1 -4.1917e-17 0)
(-1 4.05205e-17 0)
(-1 5.12406e-17 0)
(-1 -3.88859e-17 0)
(-1 -7.98475e-17 0)
(-1 -2.86111e-17 0)
(-1 6.29099e-17 0)
(-1 3.19685e-17 0)
(-1 -5.95618e-17 0)
(-1 -2.94735e-17 0)
(-1 2.9582e-17 0)
(-1 -3.63261e-17 0)
(-1 -7.05137e-17 0)
(-1 -5.28527e-17 0)
(-1 -9.97687e-17 0)
(-1 -5.42199e-17 0)
(-1 -7.75604e-15 0)
(-1 1.64973e-15 0)
(-1 -2.49482e-16 0)
(-1 2.16498e-16 0)
(-1 9.9773e-17 0)
(-1 2.00339e-16 0)
(-1 1.78424e-16 0)
(-1 1.83472e-16 0)
(-1 1.24023e-16 0)
(-1 8.56574e-17 0)
(-1 8.83984e-17 0)
(-1 5.09687e-18 0)
(-1 -3.60741e-17 0)
(-1 -1.76448e-17 0)
(-1 -3.55968e-17 0)
(-1 -6.8944e-17 0)
(-1 -2.22439e-17 0)
(-1 4.62992e-17 0)
(-1 1.66168e-17 0)
(-1 1.58951e-17 0)
(-1 9.98255e-15 0)
(-1 -1.55035e-15 0)
(-1 3.4139e-16 0)
(-1 7.22091e-17 0)
(-1 4.04724e-17 0)
(-1 -4.97404e-18 0)
(-1 -3.17532e-18 0)
(-1 -2.56173e-17 0)
(-1 -4.928e-17 0)
(-1 5.80833e-17 0)
(-1 1.77196e-16 0)
(-1 1.64567e-16 0)
(-1 1.04926e-16 0)
(-1 3.49929e-17 0)
(-1 -6.2807e-17 0)
(-1 -5.75814e-17 0)
(-1 5.37566e-17 0)
(-1 8.14613e-17 0)
(-1 5.17454e-17 0)
(-1 3.72955e-17 0)
(-1 7.30193e-16 0)
(-1 -6.43374e-16 0)
(-1 -6.57663e-18 0)
(-1 -8.80373e-18 0)
(-1 1.71021e-16 0)
(-1 1.08481e-16 0)
(-1 1.95303e-16 0)
(-1 7.3613e-17 0)
(-1 -1.51346e-17 0)
(-1 -2.25962e-17 0)
(-1 -1.7829e-18 0)
(-1 4.08805e-17 0)
(-1 5.57962e-17 0)
(-1 -3.56926e-18 0)
(-1 -5.32911e-17 0)
(-1 3.45412e-18 0)
(-1 1.43608e-16 0)
(-1 1.50648e-16 0)
(-1 5.67336e-17 0)
(-1 5.04806e-17 0)
(-1 -1.24475e-14 0)
(-1 2.02892e-15 0)
(-1 -4.32959e-16 0)
(-1 4.41759e-17 0)
(-1 -4.4855e-17 0)
(-1 -3.33461e-17 0)
(-1 2.20676e-17 0)
(-1 2.70827e-17 0)
(-1 1.00811e-16 0)
(-1 4.46647e-17 0)
(-1 -5.62418e-17 0)
(-1 -4.16559e-17 0)
(-1 3.93235e-17 0)
(-1 8.3057e-17 0)
(-1 1.32055e-16 0)
(-1 1.73181e-16 0)
(-1 1.4269e-16 0)
(-1 1.04456e-16 0)
(-1 5.11403e-17 0)
(-1 4.59619e-17 0)
(-1 7.06203e-15 0)
(-1 -7.22957e-16 0)
(-1 2.13825e-16 0)
(-1 -5.79956e-17 0)
(-1 -8.78386e-17 0)
(-1 -8.47845e-18 0)
(-1 2.67128e-17 0)
(-1 2.18641e-17 0)
(-1 1.67615e-17 0)
(-1 2.31507e-17 0)
(-1 1.99571e-17 0)
(-1 3.1625e-17 0)
(-1 1.67428e-16 0)
(-1 2.75011e-16 0)
(-1 1.69219e-16 0)
(-1 5.47637e-17 0)
(-1 -5.15485e-17 0)
(-1 -6.57669e-17 0)
(-1 -4.5766e-18 0)
(-1 1.47373e-17 0)
(-1 -8.8197e-16 0)
(-1 2.35276e-16 0)
(-1 -1.72454e-17 0)
(-1 6.07499e-17 0)
(-1 1.37125e-16 0)
(-1 1.34323e-16 0)
(-1 1.13637e-16 0)
(-1 1.68148e-16 0)
(-1 1.3387e-16 0)
(-1 1.16695e-16 0)
(-1 1.03631e-16 0)
(-1 9.49509e-17 0)
(-1 6.72046e-17 0)
(-1 3.8036e-17 0)
(-1 1.04206e-17 0)
(-1 -2.44063e-18 0)
(-1 -6.95007e-17 0)
(-1 -1.12056e-16 0)
(-1 3.01558e-17 0)
(-1 6.55879e-17 0)
(-1 -5.79882e-16 0)
(-1 -6.6266e-17 0)
(-1 1.22705e-16 0)
(-1 -5.22073e-17 0)
(-1 -1.17152e-16 0)
(-1 -1.19988e-16 0)
(-1 -1.43795e-16 0)
(-1 -1.71196e-17 0)
(-1 9.6589e-17 0)
(-1 1.02197e-16 0)
(-1 3.90948e-17 0)
(-1 -2.21153e-18 0)
(-1 5.93246e-18 0)
(-1 1.1498e-17 0)
(-1 2.79971e-17 0)
(-1 -2.51919e-17 0)
(-1 -2.85271e-17 0)
(-1 -4.62995e-18 0)
(-1 6.72237e-17 0)
(-1 9.93518e-17 0)
(-1 5.52525e-16 0)
(-1 6.32325e-16 0)
(-1 2.61594e-16 0)
(-1 2.10454e-16 0)
(-1 3.90903e-17 0)
(-1 3.29907e-17 0)
(-1 -2.17593e-17 0)
(-1 -9.84691e-17 0)
(-1 -5.02615e-17 0)
(-1 -9.41959e-18 0)
(-1 -3.98399e-17 0)
(-1 6.09719e-17 0)
(-1 6.4921e-17 0)
(-1 2.17277e-17 0)
(-1 -5.17871e-17 0)
(-1 -1.48436e-16 0)
(-1 -1.58412e-16 0)
(-1 -7.87138e-17 0)
(-1 -4.2962e-17 0)
(-1 -1.98968e-17 0)
(-1 -2.16495e-15 0)
(-1 6.66458e-16 0)
(-1 -3.68958e-17 0)
(-1 1.72663e-16 0)
(-1 -1.89463e-17 0)
(-1 -1.27959e-16 0)
(-1 -1.1284e-16 0)
(-1 -8.29496e-17 0)
(-1 -3.07335e-17 0)
(-1 -2.89931e-17 0)
(-1 -2.37222e-17 0)
(-1 1.54126e-16 0)
(-1 8.5094e-17 0)
(-1 -2.25704e-17 0)
(-1 -4.14341e-17 0)
(-1 -1.1631e-17 0)
(-1 -1.3692e-16 0)
(-1 -2.05019e-16 0)
(-1 -1.38177e-16 0)
(-1 -7.75587e-17 0)
(-1 7.50923e-15 0)
(-1 -1.65355e-15 0)
(-1 1.56955e-16 0)
(-1 -1.55906e-16 0)
(-1 -1.28795e-16 0)
(-1 -1.44579e-16 0)
(-1 -9.84085e-17 0)
(-1 3.05127e-17 0)
(-1 5.21879e-17 0)
(-1 -2.70846e-17 0)
(-1 -2.26595e-17 0)
(-1 2.2044e-17 0)
(-1 1.20358e-16 0)
(-1 6.54043e-17 0)
(-1 3.88733e-18 0)
(-1 9.85196e-18 0)
(-1 -9.13781e-18 0)
(-1 -2.92251e-17 0)
(-1 -4.87171e-17 0)
(-1 3.8705e-17 0)
(-1 -1.02935e-14 0)
(-1 1.46969e-15 0)
(-1 -4.20884e-16 0)
(-1 -6.63098e-17 0)
(-1 1.49603e-17 0)
(-1 3.78226e-17 0)
(-1 -3.38345e-17 0)
(-1 -9.35799e-17 0)
(-1 -1.40818e-16 0)
(-1 -1.07179e-16 0)
(-1 -5.98175e-18 0)
(-1 1.71816e-17 0)
(-1 6.09886e-17 0)
(-1 2.07347e-18 0)
(-1 -4.64018e-17 0)
(-1 -1.36197e-16 0)
(-1 -1.38258e-16 0)
(-1 -7.92792e-17 0)
(-1 -8.36872e-18 0)
(-1 5.86263e-17 0)
(-1 9.62873e-15 0)
(-1 -1.69853e-15 0)
(-1 3.62267e-16 0)
(-1 -1.26523e-16 0)
(-1 -8.32342e-17 0)
(-1 -8.48769e-17 0)
(-1 -1.2244e-16 0)
(-1 -1.86151e-16 0)
(-1 -1.85478e-16 0)
(-1 -7.78517e-17 0)
(-1 -5.31649e-17 0)
(-1 -2.73126e-17 0)
(-1 5.67169e-17 0)
(-1 6.92938e-17 0)
(-1 1.13594e-16 0)
(-1 -1.75169e-17 0)
(-1 -1.70958e-16 0)
(-1 -2.18665e-16 0)
(-1 -1.09353e-16 0)
(-1 -2.01289e-17 0)
(-1 6.54178e-15 0)
(-1 -1.00445e-15 0)
(-1 1.70963e-16 0)
(-1 -6.91455e-17 0)
(-1 -1.16303e-16 0)
(-1 -1.32272e-16 0)
(-1 -4.28313e-17 0)
(-1 -4.68696e-17 0)
(-1 -8.56914e-17 0)
(-1 -3.08718e-17 0)
(-1 -9.48014e-18 0)
(-1 4.34573e-17 0)
(-1 5.30597e-17 0)
(-1 -1.09546e-17 0)
(-1 -1.09891e-16 0)
(-1 -8.89087e-17 0)
(-1 4.60146e-18 0)
(-1 2.58015e-17 0)
(-1 -7.0356e-17 0)
(-1 -2.90095e-17 0)
(-1 -1.15979e-14 0)
(-1 1.37553e-15 0)
(-1 -4.31192e-16 0)
(-1 -8.81012e-18 0)
(-1 3.68543e-17 0)
(-1 -7.33853e-17 0)
(-1 -9.46456e-17 0)
(-1 -8.50083e-17 0)
(-1 -8.472e-17 0)
(-1 -6.15519e-17 0)
(-1 2.40439e-17 0)
(-1 1.69082e-17 0)
(-1 -7.4219e-17 0)
(-1 -9.1593e-17 0)
(-1 -2.08265e-16 0)
(-1 -2.25e-16 0)
(-1 -9.18899e-17 0)
(-1 3.36226e-17 0)
(-1 1.70421e-17 0)
(-1 2.45056e-17 0)
(-1 7.05922e-16 0)
(-1 -5.59392e-16 0)
(-1 1.21778e-16 0)
(-1 -1.76983e-17 0)
(-1 3.77298e-17 0)
(-1 -1.02901e-16 0)
(-1 -1.99736e-16 0)
(-1 -1.27809e-16 0)
(-1 -2.92957e-17 0)
(-1 9.09188e-18 0)
(-1 5.93064e-17 0)
(-1 1.28986e-17 0)
(-1 -2.12618e-17 0)
(-1 4.72437e-18 0)
(-1 1.77137e-17 0)
(-1 -7.08405e-17 0)
(-1 -1.19025e-16 0)
(-1 -7.27937e-17 0)
(-1 -1.08859e-17 0)
(-1 1.06213e-17 0)
)
;

boundaryField
{
    movingWall
    {
        type            zeroGradient;
    }
    fixedWalls
    {
        type            zeroGradient;
    }
    frontAndBack
    {
        type            empty;
    }
}


// ************************************************************************* //
