/*--------------------------------*- C++ -*----------------------------------*\
| =========                 |                                                 |
| \\      /  F ield         | OpenFOAM: The Open Source CFD Toolbox           |
|  \\    /   O peration     | Version:  2506                                  |
|   \\  /    A nd           | Website:  www.openfoam.com                      |
|    \\/     M anipulation  |                                                 |
\*---------------------------------------------------------------------------*/
FoamFile
{
    version     2.0;
    format      ascii;
    arch        "LSB;label=32;scalar=64";
    class       volScalarField;
    location    "7.75";
    object      zeroGradient(epsilon);
}
// * * * * * * * * * * * * * * * * * * * * * * * * * * * * * * * * * * * * * //

dimensions      [0 2 -3 0 0 0 0];

internalField   nonuniform List<scalar> 
400
(
1.51032e-06
1.51032e-06
1.51032e-06
1.51031e-06
1.51031e-06
1.51031e-06
1.51031e-06
1.51031e-06
1.51031e-06
1.51031e-06
1.51031e-06
1.51031e-06
1.51031e-06
1.51031e-06
1.51031e-06
1.51031e-06
1.51031e-06
1.51031e-06
1.51031e-06
1.51031e-06
1.56334e-06
1.5435e-06
1.54517e-06
1.54587e-06
1.54726e-06
1.54797e-06
1.54936e-06
1.55009e-06
1.55149e-06
1.55224e-06
1.55363e-06
1.5544e-06
1.55581e-06
1.55659e-06
1.558e-06
1.55881e-06
1.56022e-06
1.56104e-06
1.56175e-06
1.56288e-06
1.64636e-06
1.62474e-06
1.62659e-06
1.62736e-06
1.6289e-06
1.62967e-06
1.63121e-06
1.632e-06
1.63353e-06
1.63434e-06
1.63588e-06
1.6367e-06
1.63823e-06
1.63907e-06
1.64061e-06
1.64146e-06
1.643e-06
1.64386e-06
1.64464e-06
1.64584e-06
1.73222e-06
1.70909e-06
1.71107e-06
1.71189e-06
1.71353e-06
1.71436e-06
1.716e-06
1.71685e-06
1.71849e-06
1.71936e-06
1.721e-06
1.72188e-06
1.72352e-06
1.72442e-06
1.72606e-06
1.72697e-06
1.72862e-06
1.72954e-06
1.73037e-06
1.73166e-06
1.80304e-06
1.77862e-06
1.78071e-06
1.78158e-06
1.78331e-06
1.78418e-06
1.78592e-06
1.78681e-06
1.78854e-06
1.78946e-06
1.79119e-06
1.79212e-06
1.79385e-06
1.7948e-06
1.79653e-06
1.79749e-06
1.79923e-06
1.80021e-06
1.80108e-06
1.80244e-06
1.85361e-06
1.82825e-06
1.83042e-06
1.83132e-06
1.83311e-06
1.83402e-06
1.83582e-06
1.83675e-06
1.83855e-06
1.8395e-06
1.84129e-06
1.84226e-06
1.84406e-06
1.84504e-06
1.84684e-06
1.84784e-06
1.84964e-06
1.85066e-06
1.85156e-06
1.85298e-06
1.88664e-06
1.86066e-06
1.86288e-06
1.8638e-06
1.86564e-06
1.86657e-06
1.86841e-06
1.86937e-06
1.8712e-06
1.87218e-06
1.87402e-06
1.87501e-06
1.87685e-06
1.87786e-06
1.8797e-06
1.88072e-06
1.88257e-06
1.88361e-06
1.88454e-06
1.88598e-06
1.90742e-06
1.88105e-06
1.8833e-06
1.88424e-06
1.88611e-06
1.88705e-06
1.88892e-06
1.88989e-06
1.89175e-06
1.89274e-06
1.89461e-06
1.89561e-06
1.89748e-06
1.8985e-06
1.90037e-06
1.90141e-06
1.90329e-06
1.90434e-06
1.90528e-06
1.90675e-06
1.92078e-06
1.89416e-06
1.89643e-06
1.89738e-06
1.89926e-06
1.90022e-06
1.9021e-06
1.90308e-06
1.90496e-06
1.90596e-06
1.90784e-06
1.90886e-06
1.91074e-06
1.91178e-06
1.91367e-06
1.91471e-06
1.91661e-06
1.91767e-06
1.91862e-06
1.92011e-06
1.93014e-06
1.90335e-06
1.90563e-06
1.90658e-06
1.90848e-06
1.90944e-06
1.91134e-06
1.91232e-06
1.91422e-06
1.91522e-06
1.91712e-06
1.91814e-06
1.92004e-06
1.92108e-06
1.92298e-06
1.92403e-06
1.92594e-06
1.92701e-06
1.92797e-06
1.92946e-06
1.93763e-06
1.9107e-06
1.913e-06
1.91395e-06
1.91586e-06
1.91683e-06
1.91874e-06
1.91972e-06
1.92163e-06
1.92264e-06
1.92454e-06
1.92557e-06
1.92748e-06
1.92852e-06
1.93044e-06
1.9315e-06
1.93341e-06
1.93449e-06
1.93545e-06
1.93695e-06
1.94451e-06
1.91744e-06
1.91975e-06
1.92071e-06
1.92263e-06
1.9236e-06
1.92552e-06
1.92651e-06
1.92842e-06
1.92944e-06
1.93135e-06
1.93239e-06
1.9343e-06
1.93535e-06
1.93727e-06
1.93834e-06
1.94026e-06
1.94135e-06
1.94231e-06
1.94382e-06
1.95147e-06
1.92428e-06
1.9266e-06
1.92756e-06
1.92949e-06
1.93046e-06
1.93239e-06
1.93339e-06
1.93531e-06
1.93633e-06
1.93825e-06
1.93929e-06
1.94122e-06
1.94227e-06
1.9442e-06
1.94527e-06
1.94721e-06
1.94829e-06
1.94927e-06
1.95078e-06
1.95894e-06
1.93161e-06
1.93394e-06
1.93491e-06
1.93684e-06
1.93782e-06
1.93976e-06
1.94076e-06
1.9427e-06
1.94372e-06
1.94565e-06
1.9467e-06
1.94863e-06
1.94969e-06
1.95163e-06
1.95271e-06
1.95465e-06
1.95574e-06
1.95672e-06
1.95824e-06
1.9671e-06
1.93962e-06
1.94196e-06
1.94294e-06
1.94488e-06
1.94587e-06
1.94781e-06
1.94882e-06
1.95077e-06
1.95179e-06
1.95374e-06
1.95479e-06
1.95673e-06
1.9578e-06
1.95975e-06
1.96083e-06
1.96279e-06
1.96389e-06
1.96487e-06
1.9664e-06
1.97591e-06
1.94826e-06
1.95062e-06
1.9516e-06
1.95356e-06
1.95455e-06
1.95651e-06
1.95752e-06
1.95948e-06
1.96051e-06
1.96247e-06
1.96352e-06
1.96548e-06
1.96655e-06
1.96852e-06
1.9696e-06
1.97157e-06
1.97268e-06
1.97366e-06
1.97521e-06
1.98498e-06
1.95716e-06
1.95954e-06
1.96052e-06
1.96249e-06
1.96349e-06
1.96546e-06
1.96648e-06
1.96845e-06
1.96949e-06
1.97145e-06
1.97252e-06
1.97449e-06
1.97557e-06
1.97754e-06
1.97863e-06
1.98061e-06
1.98173e-06
1.98272e-06
1.98427e-06
1.99349e-06
1.96552e-06
1.9679e-06
1.96889e-06
1.97087e-06
1.97188e-06
1.97386e-06
1.97488e-06
1.97686e-06
1.97791e-06
1.97988e-06
1.98095e-06
1.98293e-06
1.98402e-06
1.986e-06
1.9871e-06
1.98909e-06
1.99021e-06
1.99121e-06
1.99277e-06
2.00022e-06
1.97268e-06
1.97498e-06
1.97594e-06
1.97787e-06
1.97885e-06
1.98078e-06
1.98179e-06
1.98372e-06
1.98476e-06
1.9867e-06
1.98776e-06
1.98971e-06
1.9908e-06
1.99275e-06
1.99387e-06
1.99583e-06
1.99697e-06
1.99796e-06
1.99953e-06
2.00331e-06
2.00331e-06
2.00331e-06
2.00331e-06
2.00331e-06
2.00331e-06
2.00331e-06
2.00331e-06
2.00331e-06
2.00331e-06
2.00331e-06
2.0033e-06
2.0033e-06
2.0033e-06
2.0033e-06
2.0033e-06
2.0033e-06
2.0033e-06
2.0033e-06
2.0033e-06
)
;

boundaryField
{
    movingWall
    {
        type            zeroGradient;
    }
    fixedWalls
    {
        type            zeroGradient;
    }
    frontAndBack
    {
        type            empty;
    }
}


// ************************************************************************* //
