/*--------------------------------*- C++ -*----------------------------------*\
| =========                 |                                                 |
| \\      /  F ield         | OpenFOAM: The Open Source CFD Toolbox           |
|  \\    /   O peration     | Version:  2506                                  |
|   \\  /    A nd           | Website:  www.openfoam.com                      |
|    \\/     M anipulation  |                                                 |
\*---------------------------------------------------------------------------*/
FoamFile
{
    version     2.0;
    format      ascii;
    arch        "LSB;label=32;scalar=64";
    class       volVectorField;
    location    "7.375";
    object      diffU;
}
// * * * * * * * * * * * * * * * * * * * * * * * * * * * * * * * * * * * * * //

dimensions      [0 1 -1 0 0 0 0];

internalField   nonuniform List<vector> 
400
(
(0 0 0)
(3.25295e-14 -2.07193e-13 0)
(2.44249e-14 -1.61031e-13 0)
(2.59792e-14 -1.71887e-13 0)
(2.57572e-14 -1.69466e-13 0)
(2.57572e-14 -1.70002e-13 0)
(2.59792e-14 -1.69846e-13 0)
(2.58682e-14 -1.69804e-13 0)
(2.59792e-14 -1.6981e-13 0)
(2.58682e-14 -1.69802e-13 0)
(2.59792e-14 -1.69816e-13 0)
(2.58682e-14 -1.69782e-13 0)
(2.59792e-14 -1.69736e-13 0)
(2.59792e-14 -1.69683e-13 0)
(2.58682e-14 -1.6969e-13 0)
(2.57572e-14 -1.69738e-13 0)
(2.57572e-14 -1.69763e-13 0)
(2.56462e-14 -1.69764e-13 0)
(2.57572e-14 -1.69764e-13 0)
(2.55351e-14 -1.69749e-13 0)
(6.60583e-14 -1.65663e-13 0)
(1.4877e-14 -1.7031e-13 0)
(2.63123e-14 -1.69606e-13 0)
(2.4869e-14 -1.69921e-13 0)
(2.53131e-14 -1.69811e-13 0)
(2.53131e-14 -1.698e-13 0)
(2.5091e-14 -1.6981e-13 0)
(2.5091e-14 -1.6992e-13 0)
(2.53131e-14 -1.69928e-13 0)
(2.53131e-14 -1.69807e-13 0)
(2.53131e-14 -1.69747e-13 0)
(2.53131e-14 -1.69746e-13 0)
(2.4869e-14 -1.69779e-13 0)
(2.4869e-14 -1.69783e-13 0)
(2.4869e-14 -1.69803e-13 0)
(2.4869e-14 -1.69802e-13 0)
(2.5091e-14 -1.6983e-13 0)
(2.5091e-14 -1.69764e-13 0)
(2.53131e-14 -1.6974e-13 0)
(2.53131e-14 -1.69785e-13 0)
(1.08802e-14 -3.15155e-13 0)
(2.9976e-14 -1.37414e-13 0)
(2.55351e-14 -1.77306e-13 0)
(2.59792e-14 -1.68228e-13 0)
(2.56462e-14 -1.7031e-13 0)
(2.57572e-14 -1.6978e-13 0)
(2.57572e-14 -1.69903e-13 0)
(2.59792e-14 -1.69939e-13 0)
(2.58682e-14 -1.69786e-13 0)
(2.58682e-14 -1.69698e-13 0)
(2.57572e-14 -1.69696e-13 0)
(2.58682e-14 -1.6976e-13 0)
(2.58682e-14 -1.69736e-13 0)
(2.59792e-14 -1.69647e-13 0)
(2.57572e-14 -1.69639e-13 0)
(2.53131e-14 -1.69748e-13 0)
(2.53131e-14 -1.69901e-13 0)
(2.53131e-14 -1.69924e-13 0)
(2.53131e-14 -1.69954e-13 0)
(2.55351e-14 -1.69903e-13 0)
(6.21725e-15 -4.03529e-14 0)
(3.01981e-14 -1.97771e-13 0)
(2.4869e-14 -1.62941e-13 0)
(2.56462e-14 -1.71205e-13 0)
(2.53131e-14 -1.69481e-13 0)
(2.5091e-14 -1.69832e-13 0)
(2.5091e-14 -1.69774e-13 0)
(2.4647e-14 -1.69798e-13 0)
(2.4869e-14 -1.69819e-13 0)
(2.4869e-14 -1.69913e-13 0)
(2.53131e-14 -1.69936e-13 0)
(2.53131e-14 -1.69833e-13 0)
(2.55351e-14 -1.69714e-13 0)
(2.53131e-14 -1.69652e-13 0)
(2.58682e-14 -1.69596e-13 0)
(2.58682e-14 -1.69647e-13 0)
(2.57572e-14 -1.69786e-13 0)
(2.57572e-14 -1.6998e-13 0)
(2.56462e-14 -1.70053e-13 0)
(2.56462e-14 -1.69862e-13 0)
(5.72875e-14 -1.8281e-13 0)
(1.73195e-14 -1.66644e-13 0)
(2.68674e-14 -1.70481e-13 0)
(2.56462e-14 -1.69496e-13 0)
(2.58682e-14 -1.69696e-13 0)
(2.59792e-14 -1.6969e-13 0)
(2.59792e-14 -1.69766e-13 0)
(2.59792e-14 -1.69826e-13 0)
(2.60902e-14 -1.69959e-13 0)
(2.60902e-14 -1.7002e-13 0)
(2.60902e-14 -1.6999e-13 0)
(2.57572e-14 -1.69867e-13 0)
(2.58682e-14 -1.69853e-13 0)
(2.57572e-14 -1.69955e-13 0)
(2.58682e-14 -1.6986e-13 0)
(2.59792e-14 -1.69637e-13 0)
(2.57572e-14 -1.69645e-13 0)
(2.56462e-14 -1.69865e-13 0)
(2.55351e-14 -1.69919e-13 0)
(2.56462e-14 -1.69837e-13 0)
(1.11022e-15 -2.84862e-13 0)
(3.30846e-14 -1.44492e-13 0)
(2.56462e-14 -1.75676e-13 0)
(2.65343e-14 -1.68386e-13 0)
(2.63123e-14 -1.69925e-13 0)
(2.63123e-14 -1.69639e-13 0)
(2.63123e-14 -1.69732e-13 0)
(2.60902e-14 -1.69749e-13 0)
(2.62013e-14 -1.69842e-13 0)
(2.59792e-14 -1.69888e-13 0)
(2.56462e-14 -1.69894e-13 0)
(2.57572e-14 -1.69829e-13 0)
(2.57572e-14 -1.69738e-13 0)
(2.58682e-14 -1.69649e-13 0)
(2.53131e-14 -1.69659e-13 0)
(2.53131e-14 -1.69683e-13 0)
(2.56462e-14 -1.69725e-13 0)
(2.56462e-14 -1.69804e-13 0)
(2.55351e-14 -1.69843e-13 0)
(2.56462e-14 -1.69848e-13 0)
(2.80886e-14 -3.77197e-15 0)
(2.4869e-14 -2.056e-13 0)
(2.53131e-14 -1.61151e-13 0)
(2.44249e-14 -1.71613e-13 0)
(2.4869e-14 -1.69363e-13 0)
(2.5091e-14 -1.69866e-13 0)
(2.53131e-14 -1.69748e-13 0)
(2.55351e-14 -1.69799e-13 0)
(2.56462e-14 -1.69796e-13 0)
(2.56462e-14 -1.69747e-13 0)
(2.53131e-14 -1.69612e-13 0)
(2.5091e-14 -1.69675e-13 0)
(2.5091e-14 -1.69681e-13 0)
(2.5091e-14 -1.6972e-13 0)
(2.53131e-14 -1.69778e-13 0)
(2.53131e-14 -1.6982e-13 0)
(2.55351e-14 -1.69834e-13 0)
(2.57572e-14 -1.69766e-13 0)
(2.55351e-14 -1.69783e-13 0)
(2.55351e-14 -1.69832e-13 0)
(3.71925e-14 -2.36004e-13 0)
(2.10942e-14 -1.54917e-13 0)
(2.4869e-14 -1.73123e-13 0)
(2.55351e-14 -1.68889e-13 0)
(2.5091e-14 -1.70049e-13 0)
(2.53131e-14 -1.69884e-13 0)
(2.5091e-14 -1.69828e-13 0)
(2.4869e-14 -1.69758e-13 0)
(2.5091e-14 -1.69681e-13 0)
(2.4647e-14 -1.69623e-13 0)
(2.4869e-14 -1.69596e-13 0)
(2.5091e-14 -1.69665e-13 0)
(2.5091e-14 -1.69726e-13 0)
(2.53131e-14 -1.6988e-13 0)
(2.53131e-14 -1.69953e-13 0)
(2.53131e-14 -1.69904e-13 0)
(2.53131e-14 -1.69893e-13 0)
(2.53131e-14 -1.69887e-13 0)
(2.55351e-14 -1.69851e-13 0)
(2.56462e-14 -1.69817e-13 0)
(8.21565e-15 -2.36695e-13 0)
(3.08642e-14 -1.54962e-13 0)
(2.5091e-14 -1.73123e-13 0)
(2.4869e-14 -1.68871e-13 0)
(2.53131e-14 -1.69927e-13 0)
(2.4869e-14 -1.69748e-13 0)
(2.4869e-14 -1.6975e-13 0)
(2.5091e-14 -1.69754e-13 0)
(2.53131e-14 -1.69796e-13 0)
(2.53131e-14 -1.69782e-13 0)
(2.55351e-14 -1.6984e-13 0)
(2.53131e-14 -1.69719e-13 0)
(2.55351e-14 -1.69791e-13 0)
(2.57572e-14 -1.69887e-13 0)
(2.57572e-14 -1.6994e-13 0)
(2.56462e-14 -1.69918e-13 0)
(2.57572e-14 -1.69886e-13 0)
(2.56462e-14 -1.69901e-13 0)
(2.55351e-14 -1.6988e-13 0)
(2.56462e-14 -1.69793e-13 0)
(2.81997e-14 -1.32431e-14 0)
(2.42029e-14 -2.03958e-13 0)
(2.55351e-14 -1.61719e-13 0)
(2.60902e-14 -1.71578e-13 0)
(2.59792e-14 -1.69326e-13 0)
(2.58682e-14 -1.69748e-13 0)
(2.57572e-14 -1.69716e-13 0)
(2.56462e-14 -1.69796e-13 0)
(2.56462e-14 -1.69801e-13 0)
(2.55351e-14 -1.69797e-13 0)
(2.55351e-14 -1.69808e-13 0)
(2.53131e-14 -1.69831e-13 0)
(2.55351e-14 -1.69976e-13 0)
(2.56462e-14 -1.69964e-13 0)
(2.57572e-14 -1.69862e-13 0)
(2.53131e-14 -1.69858e-13 0)
(2.55351e-14 -1.69892e-13 0)
(2.56462e-14 -1.69844e-13 0)
(2.56462e-14 -1.69786e-13 0)
(2.56462e-14 -1.69766e-13 0)
(2.76446e-14 -3.2751e-13 0)
(2.4869e-14 -1.35514e-13 0)
(2.57572e-14 -1.77762e-13 0)
(2.58682e-14 -1.68106e-13 0)
(2.57572e-14 -1.70142e-13 0)
(2.58682e-14 -1.69618e-13 0)
(2.59792e-14 -1.69756e-13 0)
(2.60902e-14 -1.69727e-13 0)
(2.59792e-14 -1.69653e-13 0)
(2.59792e-14 -1.69676e-13 0)
(2.59792e-14 -1.69739e-13 0)
(2.59792e-14 -1.69893e-13 0)
(2.60902e-14 -1.69961e-13 0)
(2.55351e-14 -1.69887e-13 0)
(2.56462e-14 -1.69855e-13 0)
(2.56462e-14 -1.69936e-13 0)
(2.55351e-14 -1.69963e-13 0)
(2.55351e-14 -1.69874e-13 0)
(2.55351e-14 -1.69748e-13 0)
(2.56462e-14 -1.69749e-13 0)
(3.05311e-14 -8.39831e-14 0)
(2.66454e-14 -1.88461e-13 0)
(2.78666e-14 -1.65362e-13 0)
(2.57572e-14 -1.70716e-13 0)
(2.62013e-14 -1.69521e-13 0)
(2.59792e-14 -1.69813e-13 0)
(2.59792e-14 -1.69785e-13 0)
(2.56462e-14 -1.69804e-13 0)
(2.55351e-14 -1.69812e-13 0)
(2.55351e-14 -1.69743e-13 0)
(2.56462e-14 -1.69762e-13 0)
(2.58682e-14 -1.69808e-13 0)
(2.58682e-14 -1.69724e-13 0)
(2.57572e-14 -1.69734e-13 0)
(2.58682e-14 -1.69815e-13 0)
(2.57572e-14 -1.69878e-13 0)
(2.56462e-14 -1.69845e-13 0)
(2.55351e-14 -1.69775e-13 0)
(2.55351e-14 -1.69724e-13 0)
(2.56462e-14 -1.6975e-13 0)
(2.06501e-14 -1.55111e-13 0)
(2.39808e-14 -1.72567e-13 0)
(2.37588e-14 -1.68996e-13 0)
(2.55351e-14 -1.69715e-13 0)
(2.5091e-14 -1.69631e-13 0)
(2.53131e-14 -1.69671e-13 0)
(2.5091e-14 -1.69566e-13 0)
(2.53131e-14 -1.69548e-13 0)
(2.5091e-14 -1.69657e-13 0)
(2.5091e-14 -1.69757e-13 0)
(2.4869e-14 -1.6991e-13 0)
(2.5091e-14 -1.69957e-13 0)
(2.4869e-14 -1.69847e-13 0)
(2.5091e-14 -1.69849e-13 0)
(2.53131e-14 -1.69905e-13 0)
(2.5091e-14 -1.69895e-13 0)
(2.53131e-14 -1.69826e-13 0)
(2.53131e-14 -1.69785e-13 0)
(2.5091e-14 -1.69816e-13 0)
(2.53131e-14 -1.69801e-13 0)
(2.72005e-14 -2.65321e-13 0)
(2.68674e-14 -1.48856e-13 0)
(2.68674e-14 -1.74495e-13 0)
(2.57572e-14 -1.6845e-13 0)
(2.62013e-14 -1.69946e-13 0)
(2.58682e-14 -1.69754e-13 0)
(2.59792e-14 -1.6986e-13 0)
(2.60902e-14 -1.69812e-13 0)
(2.62013e-14 -1.69826e-13 0)
(2.64233e-14 -1.69828e-13 0)
(2.66454e-14 -1.6975e-13 0)
(2.64233e-14 -1.69721e-13 0)
(2.59792e-14 -1.69789e-13 0)
(2.60902e-14 -1.69803e-13 0)
(2.59792e-14 -1.69838e-13 0)
(2.57572e-14 -1.69872e-13 0)
(2.55351e-14 -1.69854e-13 0)
(2.56462e-14 -1.69814e-13 0)
(2.57572e-14 -1.69857e-13 0)
(2.56462e-14 -1.69864e-13 0)
(1.5099e-14 -2.138e-14 0)
(2.74225e-14 -2.02423e-13 0)
(2.39808e-14 -1.62174e-13 0)
(2.56462e-14 -1.71459e-13 0)
(2.57572e-14 -1.69428e-13 0)
(2.60902e-14 -1.6991e-13 0)
(2.58682e-14 -1.6987e-13 0)
(2.59792e-14 -1.69902e-13 0)
(2.59792e-14 -1.69918e-13 0)
(2.55351e-14 -1.69808e-13 0)
(2.53131e-14 -1.69657e-13 0)
(2.56462e-14 -1.69632e-13 0)
(2.56462e-14 -1.69686e-13 0)
(2.56462e-14 -1.69744e-13 0)
(2.56462e-14 -1.6971e-13 0)
(2.58682e-14 -1.69661e-13 0)
(2.55351e-14 -1.69687e-13 0)
(2.56462e-14 -1.69794e-13 0)
(2.55351e-14 -1.69741e-13 0)
(2.58682e-14 -1.69755e-13 0)
(4.52971e-14 -2.7875e-13 0)
(1.9762e-14 -1.46324e-13 0)
(2.57572e-14 -1.75551e-13 0)
(2.5091e-14 -1.68902e-13 0)
(2.53131e-14 -1.70327e-13 0)
(2.5091e-14 -1.69902e-13 0)
(2.5091e-14 -1.69817e-13 0)
(2.53131e-14 -1.69764e-13 0)
(2.53131e-14 -1.69774e-13 0)
(2.53131e-14 -1.69762e-13 0)
(2.56462e-14 -1.69776e-13 0)
(2.57572e-14 -1.69759e-13 0)
(2.57572e-14 -1.69659e-13 0)
(2.57572e-14 -1.69682e-13 0)
(2.53131e-14 -1.6975e-13 0)
(2.5091e-14 -1.6976e-13 0)
(2.55351e-14 -1.69739e-13 0)
(2.55351e-14 -1.69791e-13 0)
(2.53131e-14 -1.698e-13 0)
(2.53131e-14 -1.69797e-13 0)
(-2.22045e-16 -1.85579e-13 0)
(3.30846e-14 -1.66411e-13 0)
(2.5091e-14 -1.70601e-13 0)
(2.58682e-14 -1.69743e-13 0)
(2.56462e-14 -1.69954e-13 0)
(2.53131e-14 -1.69947e-13 0)
(2.5091e-14 -1.6997e-13 0)
(2.53131e-14 -1.69944e-13 0)
(2.53131e-14 -1.69904e-13 0)
(2.5091e-14 -1.69973e-13 0)
(2.5091e-14 -1.69952e-13 0)
(2.5091e-14 -1.69837e-13 0)
(2.5091e-14 -1.69716e-13 0)
(2.55351e-14 -1.69604e-13 0)
(2.57572e-14 -1.6965e-13 0)
(2.57572e-14 -1.69812e-13 0)
(2.55351e-14 -1.69851e-13 0)
(2.57572e-14 -1.69711e-13 0)
(2.59792e-14 -1.69739e-13 0)
(2.57572e-14 -1.69848e-13 0)
(2.42029e-14 -4.6045e-14 0)
(2.53131e-14 -1.96762e-13 0)
(2.55351e-14 -1.6354e-13 0)
(2.58682e-14 -1.71283e-13 0)
(2.57572e-14 -1.69493e-13 0)
(2.58682e-14 -1.69803e-13 0)
(2.58682e-14 -1.69804e-13 0)
(2.59792e-14 -1.69817e-13 0)
(2.57572e-14 -1.69798e-13 0)
(2.57572e-14 -1.69932e-13 0)
(2.58682e-14 -1.69941e-13 0)
(2.57572e-14 -1.6979e-13 0)
(2.56462e-14 -1.69797e-13 0)
(2.55351e-14 -1.69817e-13 0)
(2.55351e-14 -1.69748e-13 0)
(2.56462e-14 -1.69682e-13 0)
(2.55351e-14 -1.69656e-13 0)
(2.4869e-14 -1.69705e-13 0)
(2.53131e-14 -1.69779e-13 0)
(2.55351e-14 -1.69828e-13 0)
(5.63993e-14 -2.28855e-13 0)
(1.75415e-14 -1.57501e-13 0)
(2.63123e-14 -1.73027e-13 0)
(2.4869e-14 -1.69276e-13 0)
(2.5091e-14 -1.70038e-13 0)
(2.5091e-14 -1.69854e-13 0)
(2.53131e-14 -1.69923e-13 0)
(2.5091e-14 -1.6994e-13 0)
(2.56462e-14 -1.69871e-13 0)
(2.55351e-14 -1.69761e-13 0)
(2.53131e-14 -1.69722e-13 0)
(2.5091e-14 -1.69649e-13 0)
(2.5091e-14 -1.69653e-13 0)
(2.5091e-14 -1.69805e-13 0)
(2.4869e-14 -1.69836e-13 0)
(2.53131e-14 -1.69796e-13 0)
(2.53131e-14 -1.69753e-13 0)
(2.56462e-14 -1.69785e-13 0)
(2.56462e-14 -1.69871e-13 0)
(2.56462e-14 -1.69862e-13 0)
(1.24345e-14 -2.42823e-13 0)
(2.9865e-14 -1.54378e-13 0)
(2.63123e-14 -1.73624e-13 0)
(2.63123e-14 -1.69071e-13 0)
(2.63123e-14 -1.70076e-13 0)
(2.59792e-14 -1.69912e-13 0)
(2.59792e-14 -1.69974e-13 0)
(2.58682e-14 -1.69966e-13 0)
(2.55351e-14 -1.69871e-13 0)
(2.55351e-14 -1.69733e-13 0)
(2.56462e-14 -1.69725e-13 0)
(2.56462e-14 -1.69789e-13 0)
(2.57572e-14 -1.6976e-13 0)
(2.57572e-14 -1.69814e-13 0)
(2.58682e-14 -1.69835e-13 0)
(2.57572e-14 -1.69873e-13 0)
(2.56462e-14 -1.69887e-13 0)
(2.53131e-14 -1.69803e-13 0)
(2.55351e-14 -1.69783e-13 0)
(2.56462e-14 -1.69812e-13 0)
)
;

boundaryField
{
    movingWall
    {
        type            calculated;
        value           uniform (2.55351e-14 -1.69799e-13 0);
    }
    fixedWalls
    {
        type            calculated;
        value           uniform (2.55351e-14 -1.69799e-13 0);
    }
    frontAndBack
    {
        type            empty;
    }
}


// ************************************************************************* //
