/*--------------------------------*- C++ -*----------------------------------*\
| =========                 |                                                 |
| \\      /  F ield         | OpenFOAM: The Open Source CFD Toolbox           |
|  \\    /   O peration     | Version:  2506                                  |
|   \\  /    A nd           | Website:  www.openfoam.com                      |
|    \\/     M anipulation  |                                                 |
\*---------------------------------------------------------------------------*/
FoamFile
{
    version     2.0;
    format      ascii;
    arch        "LSB;label=32;scalar=64";
    class       volScalarField;
    location    "7.375";
    object      divU;
}
// * * * * * * * * * * * * * * * * * * * * * * * * * * * * * * * * * * * * * //

dimensions      [0 0 -1 0 0 0 0];

internalField   nonuniform List<scalar> 
400
(
1.55312e-11
-1.32398e-12
2.45475e-13
-1.12627e-13
3.20568e-14
-2.04862e-14
-5.87708e-15
-1.27391e-14
1.30799e-14
-2.82961e-14
3.05092e-14
6.92434e-15
8.23911e-15
-1.39495e-14
1.03916e-14
5.68607e-15
4.60696e-16
-2.01121e-14
9.37772e-15
-2.71051e-14
-2.85145e-11
3.0248e-12
-6.50106e-13
2.80386e-13
-5.23603e-14
2.88639e-14
-3.8592e-14
-2.61976e-14
4.24956e-14
9.21102e-15
1.54549e-14
-1.79057e-14
-4.59632e-14
1.67366e-14
1.5523e-14
4.68445e-15
4.0884e-14
1.80038e-14
-9.59073e-15
5.42101e-14
1.14925e-11
-1.29347e-12
2.87495e-13
-1.1912e-13
3.48649e-14
-1.48909e-15
-7.95869e-15
4.03033e-14
-2.78971e-14
-1.31736e-15
-3.05449e-14
4.83236e-16
1.47533e-14
2.73016e-15
-4.5089e-14
-3.39849e-14
-8.8764e-15
-3.07221e-14
1.32876e-14
-2.71051e-14
1.17636e-11
-1.04521e-12
2.11039e-13
-8.32101e-14
-1.21846e-14
7.53314e-15
-4.85163e-14
-2.96958e-14
3.61758e-14
2.06871e-14
-5.79936e-15
4.39481e-14
-2.40349e-14
-2.80807e-14
4.124e-14
4.20147e-15
1.66599e-14
-2.48174e-14
1.6803e-14
0
-2.21448e-11
2.27697e-12
-4.11983e-13
1.71594e-13
-5.6526e-14
5.39285e-14
9.96109e-15
2.22247e-15
3.38735e-14
-3.97992e-15
-2.8661e-14
-3.69911e-14
7.0588e-16
-5.9317e-16
7.91077e-15
-2.64921e-14
-3.15049e-14
-7.22104e-15
1.06477e-14
0
1.62359e-11
-1.42892e-12
2.49952e-13
-1.21492e-13
3.92672e-15
-1.78563e-14
-1.53636e-14
-2.22351e-14
2.30934e-14
-3.08664e-14
9.20353e-15
3.64658e-14
1.78257e-14
-3.13667e-14
-3.81133e-14
3.65201e-14
3.86065e-15
-2.44334e-14
5.134e-14
-2.71051e-14
5.06865e-12
-1.3059e-12
2.07093e-13
-1.17561e-13
9.98798e-14
-1.51674e-14
8.33882e-14
3.11521e-14
1.21168e-14
-4.34358e-15
-4.22949e-14
2.57864e-14
-8.09461e-15
-2.74223e-14
-1.33544e-14
4.14818e-14
1.42343e-14
-5.60541e-15
-3.07567e-14
0
-2.25514e-11
3.78502e-12
-7.46154e-13
2.92228e-13
-9.21079e-14
5.08453e-14
-2.52321e-14
-4.56695e-14
1.21022e-14
-6.21247e-14
9.74819e-14
-5.78455e-15
8.02067e-15
-1.69646e-14
-2.96188e-14
-2.252e-14
-1.81429e-14
3.51614e-14
1.37596e-14
-2.71051e-14
2.10877e-11
-3.23328e-12
5.84041e-13
-2.74899e-13
6.15278e-14
-4.40063e-14
6.72876e-14
4.70403e-15
2.7193e-14
-2.52789e-14
-3.21523e-14
3.17828e-14
1.00701e-14
2.88927e-14
6.63974e-15
-1.78935e-14
3.60818e-14
-4.18802e-14
-6.80344e-15
0
-8.94467e-12
1.66598e-12
-2.86445e-13
9.96996e-14
-4.12974e-14
2.31353e-14
1.25114e-14
-1.96177e-14
-1.2719e-14
1.25128e-14
-4.91787e-14
4.14942e-14
2.0158e-14
1.79853e-15
-1.19178e-14
7.48733e-15
1.28503e-15
4.21493e-14
6.3797e-15
-2.71051e-14
-6.93889e-12
1.37251e-12
-2.44258e-13
7.7546e-14
-6.59172e-15
-1.04857e-14
3.27855e-14
3.3761e-14
-4.09895e-14
1.78764e-14
9.64189e-15
1.67699e-14
-3.5915e-14
-2.94686e-14
1.98088e-14
5.48625e-15
-2.10764e-14
-5.15631e-15
1.25508e-14
0
1.78622e-11
-4.01333e-12
8.22073e-13
-3.54368e-13
7.16037e-14
-4.28557e-14
-2.47985e-15
-2.96693e-14
1.27839e-14
-1.74094e-14
4.68357e-14
-1.66788e-14
2.60961e-15
1.38409e-15
-1.23366e-14
9.51216e-15
-7.37754e-15
-2.34261e-14
3.27942e-14
-2.71051e-14
-1.87567e-11
4.22978e-12
-7.41674e-13
3.6008e-13
-5.21783e-14
-9.86605e-15
-9.98102e-15
2.37401e-14
-1.56923e-14
1.23567e-15
-6.17208e-15
1.91179e-14
-3.89812e-15
-5.51579e-15
-1.45728e-14
3.71883e-14
-8.30647e-15
-2.73464e-14
1.94707e-14
5.42101e-14
1.36609e-11
-3.01129e-12
5.63914e-13
-2.48004e-13
2.23644e-14
-6.08975e-14
1.38342e-14
-1.1665e-14
1.24308e-14
2.32371e-14
1.91063e-14
-2.97918e-14
-1.49218e-14
4.99377e-15
-2.21794e-14
6.41449e-15
-2.14562e-14
5.30842e-14
-2.72245e-14
-2.71051e-14
-2.1684e-12
1.14503e-12
-3.0069e-13
1.13366e-13
-1.57247e-14
5.64754e-15
-9.02064e-15
-6.79196e-15
-9.426e-15
-5.15003e-14
-1.0656e-14
2.05967e-14
2.52134e-14
1.71255e-14
4.07846e-14
1.76454e-14
-3.6989e-14
1.1985e-15
5.98577e-14
-5.42101e-14
-1.50162e-11
1.65629e-12
-3.03103e-13
9.51665e-14
-4.11627e-14
1.92892e-15
-1.89929e-14
1.60578e-14
-8.05702e-15
4.04786e-14
1.40172e-14
-2.69606e-14
-4.83178e-15
-5.01141e-14
-8.86752e-14
2.59063e-15
2.79323e-14
-4.47203e-14
5.86162e-15
5.42101e-14
2.14401e-11
-2.5201e-12
4.91421e-13
-1.97097e-13
4.21625e-14
-6.9517e-14
9.42467e-15
1.06823e-14
-3.75495e-14
-3.67459e-15
-2.95687e-14
-2.98175e-15
8.48114e-15
7.19461e-14
1.99706e-14
-1.67064e-14
9.12948e-15
4.52462e-14
7.9722e-15
-5.42101e-14
-4.44523e-12
9.72923e-13
-1.57802e-13
6.64851e-14
-2.04796e-14
2.11616e-14
4.12286e-14
-1.60126e-14
-7.16257e-15
1.74998e-14
2.05631e-14
-1.12564e-14
-1.23432e-14
-2.95009e-14
-2.57707e-14
1.19708e-14
-3.53198e-14
-4.34617e-14
7.6068e-14
0
-1.74014e-11
1.25392e-12
-2.71673e-13
1.25058e-13
-5.16039e-14
-1.6773e-14
-2.99597e-14
2.3287e-14
3.97439e-14
1.03041e-14
-6.62992e-14
-1.11473e-14
-8.6762e-15
-2.14865e-15
-7.33225e-15
2.00022e-14
2.2883e-14
2.80092e-14
-5.70204e-15
-2.71051e-14
1.23057e-11
-1.35525e-12
3.52366e-13
-1.35525e-13
0
0
2.71051e-14
-2.71051e-14
0
0
0
-2.71051e-14
0
0
0
-2.71051e-14
-2.71051e-14
0
2.71051e-14
-2.71051e-14
)
;

boundaryField
{
    movingWall
    {
        type            extrapolatedCalculated;
        value           nonuniform List<scalar> 
20
(
1.23057e-11
-1.35525e-12
3.52366e-13
-1.35525e-13
0
0
2.71051e-14
-2.71051e-14
0
0
0
-2.71051e-14
0
0
0
-2.71051e-14
-2.71051e-14
0
2.71051e-14
-2.71051e-14
)
;
    }
    fixedWalls
    {
        type            extrapolatedCalculated;
        value           nonuniform List<scalar> 
60
(
1.55312e-11
-2.85145e-11
1.14925e-11
1.17636e-11
-2.21448e-11
1.62359e-11
5.06865e-12
-2.25514e-11
2.10877e-11
-8.94467e-12
-6.93889e-12
1.78622e-11
-1.87567e-11
1.36609e-11
-2.1684e-12
-1.50162e-11
2.14401e-11
-4.44523e-12
-1.74014e-11
1.23057e-11
-2.71051e-14
5.42101e-14
-2.71051e-14
0
0
-2.71051e-14
0
-2.71051e-14
0
-2.71051e-14
0
-2.71051e-14
5.42101e-14
-2.71051e-14
-5.42101e-14
5.42101e-14
-5.42101e-14
0
-2.71051e-14
-2.71051e-14
1.55312e-11
-1.32398e-12
2.45475e-13
-1.12627e-13
3.20568e-14
-2.04862e-14
-5.87708e-15
-1.27391e-14
1.30799e-14
-2.82961e-14
3.05092e-14
6.92434e-15
8.23911e-15
-1.39495e-14
1.03916e-14
5.68607e-15
4.60696e-16
-2.01121e-14
9.37772e-15
-2.71051e-14
)
;
    }
    frontAndBack
    {
        type            empty;
    }
}


// ************************************************************************* //
