/*--------------------------------*- C++ -*----------------------------------*\
| =========                 |                                                 |
| \\      /  F ield         | OpenFOAM: The Open Source CFD Toolbox           |
|  \\    /   O peration     | Version:  2506                                  |
|   \\  /    A nd           | Website:  www.openfoam.com                      |
|    \\/     M anipulation  |                                                 |
\*---------------------------------------------------------------------------*/
FoamFile
{
    version     2.0;
    format      ascii;
    arch        "LSB;label=32;scalar=64";
    class       volScalarField;
    location    "7.375";
    object      enstrophyField;
}
// * * * * * * * * * * * * * * * * * * * * * * * * * * * * * * * * * * * * * //

dimensions      [0 0 -2 0 0 0 0];

internalField   nonuniform List<scalar> 
400
(
6.9027e-23
1.23617e-22
6.4254e-24
3.33191e-25
1.30233e-26
7.25156e-28
1.9612e-28
6.82047e-30
3.60806e-28
3.85611e-28
3.15881e-28
3.22539e-29
4.97525e-29
1.04899e-29
1.18315e-27
1.10223e-27
3.20628e-30
1.4617e-27
9.91839e-31
3.52462e-29
2.60416e-25
7.59978e-27
4.66796e-27
2.79176e-27
7.2804e-29
1.11072e-32
7.26976e-29
7.01101e-29
7.37698e-28
1.02153e-27
5.52792e-28
5.10935e-30
1.27341e-27
2.94737e-30
1.81278e-30
2.98476e-28
3.62564e-27
6.53908e-28
1.35676e-27
2.63874e-29
1.40816e-23
7.49083e-23
4.25981e-24
2.08247e-25
1.20387e-26
8.29236e-28
1.2638e-28
2.1664e-27
3.06645e-27
2.00246e-27
1.8954e-29
4.84114e-28
4.71799e-27
1.51399e-28
7.02921e-27
5.77724e-27
4.89457e-27
3.75311e-27
1.35319e-27
3.35092e-28
1.5044e-23
6.03333e-23
3.17796e-24
1.96529e-25
6.06868e-27
4.30353e-28
6.05765e-30
9.88926e-30
2.15978e-27
2.17352e-27
1.83314e-28
1.21571e-27
1.02043e-27
7.55593e-28
1.44718e-31
2.67444e-27
3.83097e-27
3.27507e-27
1.16955e-28
1.08274e-29
1.1074e-25
4.36869e-25
6.71509e-26
4.08079e-30
5.07443e-27
1.01559e-26
1.11199e-26
1.65458e-26
1.20039e-26
3.56701e-27
6.96393e-29
8.17695e-28
6.44025e-28
1.50779e-27
3.69407e-27
1.17884e-27
9.25974e-30
2.85873e-32
4.48923e-28
1.24758e-28
1.84555e-23
5.18855e-23
2.54002e-24
2.33637e-25
9.69259e-28
5.05879e-27
2.47236e-27
9.32828e-28
2.27318e-27
2.40434e-28
1.80634e-27
7.6901e-27
2.61273e-27
1.92939e-27
1.28915e-27
2.78697e-27
7.36581e-29
6.98376e-29
9.53595e-30
4.409e-29
4.46008e-23
1.06177e-22
6.05523e-24
2.737e-25
4.00983e-26
4.701e-27
1.01023e-26
8.55289e-27
6.46127e-27
1.18452e-26
3.91982e-27
2.02619e-28
2.94302e-27
9.93342e-28
4.99533e-29
1.55671e-29
5.28096e-28
5.18187e-28
2.16067e-29
4.16273e-28
4.97281e-24
1.63529e-23
9.01818e-25
4.72446e-26
8.01207e-27
2.43535e-28
2.23159e-27
2.37982e-27
8.22649e-28
3.62263e-29
8.82704e-30
8.49587e-29
1.18166e-27
2.95966e-27
1.60324e-27
1.15905e-27
1.49438e-30
8.53422e-30
2.46539e-29
2.00902e-28
9.29428e-24
1.8192e-23
1.08365e-24
2.83778e-26
1.42816e-26
4.42168e-29
3.36255e-27
3.68648e-27
3.53829e-27
3.6776e-27
2.81126e-27
2.46773e-28
2.51952e-27
2.38897e-27
1.6445e-27
1.46474e-29
3.21629e-28
3.49512e-28
5.82212e-29
2.82851e-29
5.29224e-23
1.01549e-22
4.98212e-24
3.54535e-25
1.21609e-26
1.08732e-26
6.41035e-27
6.82802e-27
1.47319e-27
1.50689e-27
1.66408e-27
4.82083e-27
2.27335e-27
2.15773e-27
7.09466e-28
4.72913e-30
4.0558e-28
7.13055e-28
3.04631e-29
1.03018e-29
7.88702e-23
1.08499e-22
6.04152e-24
3.11303e-25
1.58969e-26
7.46721e-28
7.199e-28
5.3184e-29
1.29843e-29
3.7557e-29
2.36498e-28
2.91976e-27
3.50506e-28
1.35348e-28
5.11358e-28
2.1149e-27
1.91032e-29
2.32005e-28
7.76094e-29
5.04409e-29
2.75286e-23
3.22365e-23
1.92916e-24
7.55661e-26
1.04382e-26
2.68012e-31
3.37771e-27
1.32287e-27
6.56024e-27
6.44207e-27
5.19763e-27
3.61846e-27
1.02057e-26
1.61397e-28
7.93201e-28
1.31363e-27
5.28533e-29
7.30381e-29
1.60907e-27
1.09185e-28
1.11022e-24
9.63991e-25
7.74826e-26
2.01973e-27
9.65969e-30
5.64633e-28
7.577e-29
6.54244e-28
5.23109e-27
8.93339e-27
8.23451e-27
1.15109e-27
9.45708e-28
5.41622e-28
5.02496e-28
3.13025e-29
6.03957e-29
4.80651e-31
1.55637e-27
2.0461e-30
2.35414e-23
3.81091e-23
2.02736e-24
9.15027e-26
1.70398e-26
2.64427e-27
1.80115e-27
1.29304e-27
3.43206e-27
1.89023e-28
1.34749e-28
4.82369e-28
1.95053e-27
5.11106e-28
5.78495e-28
1.55996e-27
1.67619e-29
3.75748e-28
5.14041e-28
8.74319e-28
4.76622e-23
8.94411e-23
5.22268e-24
1.90329e-25
2.78923e-26
6.87728e-28
1.51479e-27
1.22265e-27
4.10844e-27
5.77105e-27
4.89187e-27
2.91302e-28
6.24538e-29
2.8575e-30
1.95565e-27
1.60061e-27
8.88493e-29
2.34257e-28
3.63623e-27
9.70517e-28
2.48996e-23
4.72735e-23
2.86405e-24
1.09634e-25
4.9961e-27
8.74467e-27
4.52669e-27
3.66967e-27
3.31991e-27
3.28627e-27
1.48509e-27
2.17419e-27
1.91674e-27
1.61314e-28
3.05006e-29
6.87227e-31
4.8565e-30
5.5174e-28
3.3569e-27
5.82978e-34
4.06845e-25
4.56738e-25
3.89447e-26
5.53493e-29
2.78196e-27
3.44222e-27
3.28215e-27
2.79259e-27
1.62817e-27
5.08547e-28
8.25127e-28
3.02946e-27
3.00791e-27
5.68521e-28
1.14745e-27
2.76027e-27
5.01576e-29
4.27472e-27
9.33614e-29
3.95791e-28
8.05661e-24
5.23433e-23
2.90972e-24
1.18529e-25
3.28659e-26
4.82999e-28
9.94966e-31
3.85305e-28
2.15909e-27
4.57471e-27
1.00978e-28
7.9159e-28
3.46849e-30
1.7455e-27
7.42773e-27
2.01353e-27
1.34872e-27
7.571e-29
1.09309e-28
4.05619e-31
6.16135e-24
1.32566e-23
7.92294e-25
2.36818e-26
1.3808e-26
6.58204e-29
6.39517e-28
1.33341e-29
2.60066e-27
8.84649e-28
6.32003e-29
1.86618e-27
2.43747e-27
2.629e-27
3.4325e-28
3.45022e-29
1.41295e-27
2.18079e-27
2.9145e-29
9.18315e-29
7.88612e-24
2.15663e-23
8.53633e-25
7.2927e-26
4.45843e-28
5.17219e-29
2.33569e-28
5.33483e-29
2.71846e-28
1.05475e-28
1.56193e-29
1.6635e-27
3.11428e-30
2.78192e-29
1.8041e-27
1.35027e-29
2.41941e-29
5.35837e-29
4.28618e-31
3.6211e-28
)
;

boundaryField
{
    movingWall
    {
        type            calculated;
        value           nonuniform List<scalar> 
20
(
6.05068e-23
3.74274e-23
6.70936e-25
2.21555e-25
2.57171e-26
1.76356e-26
1.48168e-26
1.03042e-26
2.71846e-28
1.05475e-28
7.53487e-28
8.37999e-28
3.72576e-27
3.30962e-27
8.11138e-27
3.49625e-27
1.31919e-27
3.07843e-27
4.28618e-31
9.77492e-28
)
;
    }
    fixedWalls
    {
        type            calculated;
        value           nonuniform List<scalar> 
60
(
2.20639e-21
1.62556e-25
1.35993e-21
1.10997e-21
1.09951e-23
9.29894e-22
1.97398e-21
3.0021e-22
3.3447e-22
1.84047e-21
2.00353e-21
6.13584e-22
1.90552e-23
7.0736e-22
1.65608e-21
8.85767e-22
8.69859e-24
9.60821e-22
2.5216e-22
3.75947e-22
1.94416e-28
1.46485e-29
8.62904e-28
1.5353e-30
1.16086e-28
1.93639e-28
8.20218e-28
1.97481e-28
2.61728e-30
8.44623e-29
1.96349e-28
2.9169e-29
5.04528e-31
3.94438e-28
6.68717e-28
1.34516e-31
2.73545e-29
6.80126e-29
3.1651e-28
5.30437e-28
2.75056e-22
1.78622e-22
7.89904e-24
5.21285e-25
4.96772e-27
8.05191e-27
1.24553e-26
8.38945e-27
1.57342e-26
8.96362e-27
1.54292e-26
7.83691e-27
1.4055e-26
1.49741e-26
9.63163e-27
4.61532e-27
4.17242e-27
9.92377e-28
3.8202e-27
3.52462e-29
)
;
    }
    frontAndBack
    {
        type            empty;
    }
}


// ************************************************************************* //
