/*--------------------------------*- C++ -*----------------------------------*\
| =========                 |                                                 |
| \\      /  F ield         | OpenFOAM: The Open Source CFD Toolbox           |
|  \\    /   O peration     | Version:  2506                                  |
|   \\  /    A nd           | Website:  www.openfoam.com                      |
|    \\/     M anipulation  |                                                 |
\*---------------------------------------------------------------------------*/
FoamFile
{
    version     2.0;
    format      ascii;
    arch        "LSB;label=32;scalar=64";
    class       volScalarField;
    location    "7.375";
    object      flowTypeField;
}
// * * * * * * * * * * * * * * * * * * * * * * * * * * * * * * * * * * * * * //

dimensions      [0 0 0 0 0 0 0];

internalField   nonuniform List<scalar> 
400
(
0.420375
0.0585625
0.0308106
0.0690815
0.153804
0.111824
0.03919
0.625462
0.305294
0.248419
0.30997
0.209547
0.200663
0.783517
0.115673
0.136289
0.0125692
0.107331
0.738165
0.636202
0.968259
0.978415
0.93016
0.75159
0.816792
0.948148
0.530971
0.296442
0.0390389
-0.437633
-0.10111
0.819314
0.308401
0.337092
0.517378
0.0966361
0.129609
0.139261
0.0888603
0.820203
0.647429
0.131575
0.0791368
0.0914127
0.0215689
0.00310659
0.0225051
-0.0467383
-0.207717
-0.140396
0.607684
-0.0841257
0.104825
0.396622
0.0381573
-0.0511713
-0.212587
-0.0278045
0.334303
0.0395847
0.627393
0.13436
0.0908798
0.061002
0.328356
0.0423068
0.900326
0.87772
0.16025
0.197719
0.5444
0.22475
-0.402694
0.0846339
0.970614
-0.305132
-0.350613
-0.253593
0.427921
0.860629
0.973251
0.808333
0.712748
0.984515
-0.0664152
-0.0201115
-0.0992608
-0.11749
-0.117093
-0.037899
0.646121
0.313637
-0.308726
-0.0127963
-0.306492
-0.106435
0.855238
0.973984
0.119431
0.00382829
0.644089
0.134428
0.142912
-0.0936742
0.657004
-0.199889
0.172765
0.270496
0.183067
0.606552
0.150641
-0.0870079
-0.245683
0.209887
0.308032
0.229383
0.584252
0.550374
0.792388
0.598314
0.311288
0.0760655
-0.0208469
0.102234
-0.254513
0.29187
0.0982952
0.0526659
-0.0363445
-0.0882924
0.234259
0.336257
0.0561106
0.230896
0.68929
0.860284
0.208617
-0.123964
0.689488
-0.0556843
0.828892
0.275893
0.267283
0.234721
-0.0503427
0.356226
-0.0819603
0.11128
-0.48386
0.78862
0.939536
0.0500938
-0.074906
-0.319766
0.000403337
0.12295
0.548768
0.885669
0.689268
0.432272
0.763365
0.24371
0.2042
0.396814
-0.243797
0.801093
0.155113
-0.0542512
0.0279624
-0.0301862
0.10445
0.583115
-0.0494041
-0.102369
-0.0418519
0.734441
0.302496
0.504707
0.129572
0.147946
0.300806
0.0480995
0.0362432
-0.099846
0.160341
-0.343219
-0.0440469
-0.04307
0.120507
0.00640733
0.232281
0.0243345
-0.0489985
-0.20908
0.0702042
0.100946
-0.00945322
0.0508705
0.42153
0.767082
0.111791
0.021495
-0.0588608
-0.0287564
-0.166797
0.0135793
0.0584825
0.571522
0.743312
0.131981
0.0208503
-0.20619
0.534886
0.685938
0.16386
-0.196144
0.706872
0.0452682
0.094642
0.0118199
0.544009
0.0982575
0.0123802
0.185079
-0.234163
0.957894
0.0614476
0.312383
-0.0561133
-0.0435384
0.156993
-0.0424925
-0.049997
0.333203
0.264331
0.056207
0.606562
0.53973
0.0677825
0.56793
0.890249
0.612662
0.541104
0.710323
0.845443
0.134931
0.131451
0.0776083
-0.175598
-0.226538
-0.182372
0.123304
0.199925
-0.164255
-0.160658
0.644378
0.00333294
0.917956
0.0959145
0.933254
0.499524
0.0842467
0.0306559
0.127938
-0.385767
0.172935
0.249236
0.250852
0.0723944
0.448753
0.509729
0.490678
0.0122411
-0.0868811
0.418239
0.131687
0.743734
0.488951
0.170419
0.293387
0.163542
0.0520154
-0.0410885
0.168498
-0.407976
0.559039
-0.0120312
0.0900033
-0.0503389
-0.0613911
-0.213728
0.333677
0.303891
0.70676
-0.0118897
-0.0210302
0.70216
0.198696
0.122168
0.386849
0.564816
0.119294
0.032048
0.151791
0.108853
-0.616503
-0.158368
0.00299371
-0.00193096
0.16896
0.303513
-0.122547
-0.13838
0.649354
0.863508
0.919076
0.909697
0.409882
-0.00758728
0.981291
0.94703
0.791804
0.75539
0.940452
0.317333
0.256092
0.003722
0.12451
0.0579593
0.0145401
0.273177
-0.426136
-0.186696
0.551392
-0.102718
-0.170098
0.201656
-0.0662469
0.011085
0.478637
0.608999
0.131404
0.0576683
0.184738
-0.719103
0.0407867
0.898562
0.248397
-0.206692
-0.130757
0.416754
0.347896
0.846338
-0.018077
-0.10519
-0.167834
0.296071
0.529507
0.777396
0.276147
0.781436
0.296104
0.244755
0.405695
-0.262967
0.239283
-0.0813123
0.76808
0.0838485
-0.153738
0.819156
-0.12533
-0.280217
-0.333244
0.0751365
0.685504
0.303024
-0.0572454
0.00161861
0.487838
0.671173
0.128155
0.20394
-0.0126113
0.702378
0.623579
0.416345
0.780601
0.351068
0.1657
0.753955
-0.0187351
0.872728
0.0351606
-0.0957046
0.746493
0.679252
0.00354441
0.921345
0.279029
)
;

boundaryField
{
    movingWall
    {
        type            calculated;
        value           nonuniform List<scalar> 
20
(
0.579567
0.0890328
0.421267
-0.232665
0.310538
-0.0121998
0.0945068
0.0930341
0.436651
0.453252
0.316546
0.0800231
0.0797989
0.0853247
0.0489903
0.134422
0.172755
0.115789
0.921654
0.143901
)
;
    }
    fixedWalls
    {
        type            calculated;
        value           nonuniform List<scalar> 
60
(
0.0608923
0.977509
0.124981
0.124027
0.787173
0.136808
0.0563969
0.284904
0.249357
0.0409806
0.00290228
0.0860456
0.620808
0.0688946
0.0331421
0.104559
0.797207
0.117501
0.293928
0.147933
0.0446531
0.908934
0.0163026
0.942485
0.607805
0.530868
-0.463571
0.557782
0.910534
0.652374
0.528875
0.809442
0.973476
0.562677
0.689157
0.980882
0.886604
0.00635299
0.451189
0.342907
0.607749
0.143459
0.196051
0.144005
0.539907
-0.00384309
0.115607
0.0277131
0.0129418
0.0150438
0.0228552
0.061039
0.0646913
0.0656266
0.0102779
-0.0409764
-0.0147918
0.160475
0.0271751
0.685835
)
;
    }
    frontAndBack
    {
        type            empty;
    }
}


// ************************************************************************* //
