/*--------------------------------*- C++ -*----------------------------------*\
| =========                 |                                                 |
| \\      /  F ield         | OpenFOAM: The Open Source CFD Toolbox           |
|  \\    /   O peration     | Version:  2506                                  |
|   \\  /    A nd           | Website:  www.openfoam.com                      |
|    \\/     M anipulation  |                                                 |
\*---------------------------------------------------------------------------*/
FoamFile
{
    version     2.0;
    format      ascii;
    arch        "LSB;label=32;scalar=64";
    class       surfaceScalarField;
    location    "7.375";
    object      fluxField;
}
// * * * * * * * * * * * * * * * * * * * * * * * * * * * * * * * * * * * * * //

dimensions      [0 3 -1 0 0 0 0];

oriented        oriented;

internalField   nonuniform List<scalar> 
760
(
-5e-05
4.34837e-18
-5e-05
-9.47635e-19
-5e-05
2.23999e-19
-5e-05
-5.52619e-20
-5e-05
8.01421e-21
-5e-05
-5.12154e-21
-5e-05
-1.46927e-21
-5e-05
-3.18478e-21
-5e-05
-3.50629e-21
-5e-05
-2.97771e-22
-5e-05
8.51026e-22
-5e-05
1.73108e-21
-5e-05
2.05978e-21
-5e-05
3.28888e-21
-5e-05
2.59789e-21
-5e-05
1.42152e-21
-5e-05
1.15174e-22
-5e-05
1.74825e-21
-5e-05
2.34443e-21
1.57072e-21
-5e-05
-3.53051e-18
-5e-05
7.96857e-19
-5e-05
-1.82855e-19
-5e-05
3.62153e-20
-5e-05
-1.30901e-20
-5e-05
4.3972e-22
-5e-05
-2.87174e-21
-5e-05
-6.54939e-21
-5e-05
-2.92863e-21
-5e-05
2.30276e-21
-5e-05
3.86373e-21
-5e-05
2.29983e-21
-5e-05
2.06174e-21
-5e-05
4.18414e-21
-5e-05
3.88075e-21
-5e-05
1.17111e-21
-5e-05
-3.33152e-21
-5e-05
-2.2753e-21
-5e-05
-2.39768e-21
-2.25814e-21
-5e-05
-3.97761e-19
-5e-05
1.10314e-19
-5e-05
-1.62178e-20
-5e-05
4.10131e-21
-5e-05
-4.83631e-21
-5e-05
-3.72272e-22
-5e-05
-1.98967e-21
-5e-05
-3.47671e-21
-5e-05
-1.98019e-22
-5e-05
-3.29339e-22
-5e-05
-8.59959e-22
-5e-05
1.20809e-22
-5e-05
3.68832e-21
-5e-05
7.4588e-21
-5e-05
9.05654e-21
-5e-05
5.0563e-21
-5e-05
-2.2191e-21
-5e-05
-7.68052e-21
-5e-05
-1.02306e-20
-4.18097e-21
-5e-05
2.91087e-18
-5e-05
-6.20445e-19
-5e-05
1.54404e-19
-5e-05
-2.75788e-20
-5e-05
1.05064e-20
-5e-05
1.88328e-21
-5e-05
1.42344e-21
-5e-05
-6.47684e-22
-5e-05
-4.50859e-21
-5e-05
-8.38075e-21
-5e-05
-8.2261e-21
-5e-05
-2.56551e-21
-5e-05
7.67537e-22
-5e-05
-2.43916e-22
-5e-05
3.53374e-21
-5e-05
7.82663e-21
-5e-05
4.16496e-21
-5e-05
-6.20436e-21
-5e-05
-9.35178e-21
-2.53687e-21
-5e-05
-3.20187e-18
-5e-05
7.11543e-19
-5e-05
-1.63982e-19
-5e-05
4.28984e-20
-5e-05
-5.78981e-22
-5e-05
6.70587e-21
-5e-05
2.49027e-21
-5e-05
5.55619e-22
-5e-05
-5.08415e-21
-5e-05
-7.77124e-21
-5e-05
-7.16524e-21
-5e-05
-2.47152e-21
-5e-05
1.7647e-22
-5e-05
-1.48292e-22
-5e-05
1.97769e-21
-5e-05
6.92949e-21
-5e-05
5.67631e-21
-5e-05
-1.80526e-21
-5e-05
-4.11434e-21
-2.18229e-21
-5e-05
1.27407e-18
-5e-05
-2.62362e-19
-5e-05
6.92643e-20
-5e-05
-1.00443e-20
-5e-05
7.75794e-21
-5e-05
2.31219e-21
-5e-05
2.93536e-21
-5e-05
1.21749e-21
-5e-05
-1.00292e-21
-5e-05
-9.40333e-22
-5e-05
2.30088e-21
-5e-05
2.34018e-21
-5e-05
4.45642e-21
-5e-05
5.71084e-21
-5e-05
4.02421e-21
-5e-05
2.35375e-21
-5e-05
9.65162e-22
-5e-05
6.67919e-22
-5e-05
-7.17517e-22
-2.06729e-21
-5e-05
2.49553e-18
-5e-05
-5.22986e-19
-5e-05
1.33088e-19
-5e-05
-2.2614e-20
-5e-05
4.64117e-21
-5e-05
-3.79185e-21
-5e-05
5.18247e-22
-5e-05
1.01177e-21
-5e-05
3.02919e-21
-5e-05
5.69037e-21
-5e-05
9.75506e-21
-5e-05
6.44659e-21
-5e-05
4.75261e-21
-5e-05
-7.93168e-23
-5e-05
-3.3386e-21
-5e-05
-3.18207e-21
-5e-05
-3.21769e-21
-5e-05
-1.40135e-21
-5e-05
-9.12917e-22
-1.28929e-21
-5e-05
-3.32753e-18
-5e-05
7.42968e-19
-5e-05
-1.6621e-19
-5e-05
4.5952e-20
-5e-05
-9.47446e-21
-5e-05
-8.41199e-22
-5e-05
4.68234e-22
-5e-05
2.13514e-21
-5e-05
3.02555e-21
-5e-05
4.79762e-21
-5e-05
4.04169e-21
-5e-05
5.33013e-21
-5e-05
2.00517e-21
-5e-05
-4.24115e-21
-5e-05
-7.4047e-21
-5e-05
-5.63e-21
-5e-05
-4.53572e-21
-5e-05
-4.76217e-21
-5e-05
-3.33637e-21
-3.08969e-22
-5e-05
2.2415e-18
-5e-05
-4.8306e-19
-5e-05
1.18905e-19
-5e-05
-2.1291e-20
-5e-05
8.60568e-21
-5e-05
2.55096e-21
-5e-05
3.26938e-21
-5e-05
1.17601e-21
-5e-05
2.19849e-23
-5e-05
4.56547e-22
-5e-05
-1.26181e-21
-5e-05
1.16943e-21
-5e-05
-4.25873e-21
-5e-05
-6.32935e-21
-5e-05
-5.11633e-21
-5e-05
-4.47337e-21
-5e-05
-4.53207e-21
-5e-05
-3.69378e-21
-5e-05
-1.70086e-21
9.55314e-22
-5e-05
-2.88868e-20
-5e-05
3.14289e-21
-5e-05
2.92777e-21
-5e-05
-2.18016e-21
-5e-05
3.22817e-21
-5e-05
5.78384e-21
-5e-05
3.12786e-21
-5e-05
1.87184e-21
-5e-05
3.59652e-21
-5e-05
3.12819e-21
-5e-05
1.25785e-21
-5e-05
-3.17897e-21
-5e-05
-8.51302e-21
-5e-05
-6.32663e-21
-5e-05
-2.97945e-21
-5e-05
-4.90443e-21
-5e-05
-6.45501e-21
-5e-05
-3.0152e-21
-5e-05
1.59492e-21
2.05086e-21
-5e-05
-1.79739e-18
-5e-05
3.90562e-19
-5e-05
-8.81695e-20
-5e-05
1.93865e-20
-5e-05
-1.64793e-21
-5e-05
4.15485e-21
-5e-05
1.42011e-21
-5e-05
1.66399e-21
-5e-05
3.30515e-21
-5e-05
4.4691e-21
-5e-05
2.41047e-21
-5e-05
-2.58378e-21
-5e-05
-2.20247e-21
-5e-05
-5.90876e-22
-5e-05
-1.82407e-21
-5e-05
-5.4047e-21
-5e-05
-5.26909e-21
-5e-05
-1.28908e-21
-5e-05
3.13769e-21
2.45523e-21
-5e-05
2.51259e-18
-5e-05
-5.3577e-19
-5e-05
1.30979e-19
-5e-05
-2.08294e-20
-5e-05
1.11247e-20
-5e-05
2.83861e-21
-5e-05
6.1563e-21
-5e-05
6.1352e-21
-5e-05
3.19598e-21
-5e-05
2.42392e-21
-5e-05
-1.84361e-21
-5e-05
-4.16971e-21
-5e-05
6.52402e-22
-5e-05
3.46021e-22
-5e-05
-3.08415e-21
-5e-05
-4.39822e-21
-5e-05
-1.84438e-21
-5e-05
9.19748e-22
-5e-05
1.42228e-21
1.15391e-21
-5e-05
-2.02087e-18
-5e-05
4.54357e-19
-5e-05
-9.7327e-20
-5e-05
3.581e-20
-5e-05
5.07942e-22
-5e-05
4.30975e-21
-5e-05
4.28101e-21
-5e-05
5.93503e-21
-5e-05
2.85318e-21
-5e-05
3.08918e-22
-5e-05
-1.54302e-21
-5e-05
-1.99679e-21
-5e-05
-9.74529e-22
-5e-05
-1.37895e-21
-5e-05
-3.64319e-21
-5e-05
-4.25546e-21
-5e-05
-2.07662e-21
-5e-05
-6.03378e-23
-5e-05
-1.90859e-21
-1.69548e-21
-5e-05
1.3224e-18
-5e-05
-2.92036e-19
-5e-05
7.32158e-20
-5e-05
-7.79092e-21
-5e-05
5.5911e-21
-5e-05
-1.67185e-21
-5e-05
-3.31771e-21
-5e-05
-2.91626e-21
-5e-05
-3.66857e-21
-5e-05
-9.66997e-22
-5e-05
4.77658e-21
-5e-05
6.10458e-21
-5e-05
3.04582e-21
-5e-05
1.24844e-21
-5e-05
1.23142e-21
-5e-05
1.60362e-21
-5e-05
1.4122e-21
-5e-05
-2.81475e-22
-5e-05
-2.98576e-23
-5.3025e-22
-5e-05
9.86694e-19
-5e-05
-2.28738e-19
-5e-05
4.68001e-20
-5e-05
-1.90923e-20
-5e-05
-3.93118e-21
-5e-05
-5.36438e-21
-5e-05
-2.25516e-21
-5e-05
-1.69799e-21
-5e-05
-2.3565e-21
-5e-05
6.77463e-22
-5e-05
4.11226e-21
-5e-05
5.14917e-21
-5e-05
6.30335e-21
-5e-05
4.28138e-21
-5e-05
3.41989e-21
-5e-05
4.41136e-21
-5e-05
4.30528e-21
-5e-05
2.99625e-22
-5e-05
1.41191e-21
1.13487e-21
-5e-05
-3.11829e-18
-5e-05
6.71571e-19
-5e-05
-1.63867e-19
-5e-05
2.37916e-20
-5e-05
-1.70669e-20
-5e-05
-6.29403e-21
-5e-05
-4.74823e-21
-5e-05
-2.76181e-21
-5e-05
-2.01426e-21
-5e-05
-3.43288e-21
-5e-05
-3.27196e-21
-5e-05
3.61176e-23
-5e-05
5.56832e-21
-5e-05
7.80027e-21
-5e-05
4.93626e-21
-5e-05
6.47659e-22
-5e-05
2.06805e-22
-5e-05
2.37245e-21
-5e-05
1.4654e-21
-1.19936e-21
-5e-05
2.69932e-18
-5e-05
-5.89367e-19
-5e-05
1.36408e-19
-5e-05
-3.57218e-20
-5e-05
3.76436e-21
-5e-05
-3.82671e-21
-5e-05
-4.4201e-21
-5e-05
-4.10568e-21
-5e-05
-2.61111e-21
-5e-05
-7.69491e-21
-5e-05
-7.39217e-21
-5e-05
-7.45436e-22
-5e-05
2.12029e-21
-5e-05
4.434e-21
-5e-05
4.99266e-21
-5e-05
2.59967e-21
-5e-05
2.28237e-21
-5e-05
4.53528e-21
-5e-05
1.99305e-21
-1.96072e-21
-5e-05
1.61743e-18
-5e-05
-3.66633e-19
-5e-05
7.57461e-20
-5e-05
-2.40363e-20
-5e-05
1.65637e-21
-5e-05
-1.48586e-21
-5e-05
-3.24538e-21
-5e-05
-4.00316e-21
-5e-05
-1.79064e-21
-5e-05
-2.40131e-21
-5e-05
-1.6355e-21
-5e-05
3.96216e-21
-5e-05
3.69046e-21
-5e-05
-5.98971e-22
-5e-05
3.33585e-22
-5e-05
2.9927e-21
-5e-05
4.72257e-21
-5e-05
2.6871e-21
-5e-05
-1.3118e-21
-2.30143e-21
-5e-05
-3.30201e-18
-5e-05
6.9295e-19
-5e-05
-1.76338e-19
-5e-05
3.12646e-20
-5e-05
-1.2901e-20
-5e-05
-4.19324e-21
-5e-05
-7.48993e-21
-5e-05
-7.73079e-21
-5e-05
-3.61654e-21
-5e-05
2.57604e-21
-5e-05
3.75398e-21
-5e-05
3.98945e-21
-5e-05
4.60721e-21
-5e-05
-5.37161e-22
-5e-05
-1.83306e-21
-5e-05
-1.77572e-21
-5e-05
-1.05551e-21
-5e-05
2.26048e-22
-5e-05
-1.42551e-21
-1.91412e-21
-5e-05
-5e-05
-5e-05
-5e-05
-5e-05
-5e-05
-5e-05
-5e-05
-5e-05
-5e-05
-5e-05
-5e-05
-5e-05
-5e-05
-5e-05
-5e-05
-5e-05
-5e-05
-5e-05
)
;

boundaryField
{
    movingWall
    {
        type            calculated;
        value           uniform -0;
    }
    fixedWalls
    {
        type            calculated;
        value           nonuniform List<scalar> 
60
(
5e-05
5e-05
5e-05
5e-05
5e-05
5e-05
5e-05
5e-05
5e-05
5e-05
5e-05
5e-05
5e-05
5e-05
5e-05
5e-05
5e-05
5e-05
5e-05
5e-05
-5e-05
-5e-05
-5e-05
-5e-05
-5e-05
-5e-05
-5e-05
-5e-05
-5e-05
-5e-05
-5e-05
-5e-05
-5e-05
-5e-05
-5e-05
-5e-05
-5e-05
-5e-05
-5e-05
-5e-05
0
0
0
0
0
0
0
0
0
0
0
0
0
0
0
0
0
0
0
0
)
;
    }
    frontAndBack
    {
        type            empty;
    }
}


// ************************************************************************* //
