/*--------------------------------*- C++ -*----------------------------------*\
| =========                 |                                                 |
| \\      /  F ield         | OpenFOAM: The Open Source CFD Toolbox           |
|  \\    /   O peration     | Version:  2506                                  |
|   \\  /    A nd           | Website:  www.openfoam.com                      |
|    \\/     M anipulation  |                                                 |
\*---------------------------------------------------------------------------*/
FoamFile
{
    version     2.0;
    format      ascii;
    arch        "LSB;label=32;scalar=64";
    class       volTensorField;
    location    "7.375";
    object      gradU;
}
// * * * * * * * * * * * * * * * * * * * * * * * * * * * * * * * * * * * * * //

dimensions      [0 0 -1 0 0 0 0];

internalField   nonuniform List<tensor> 
400
(
(-1.87025e-12 1.32404e-11 0 1.49078e-12 1.73935e-11 0 0 0 0)
(2.46656e-12 -1.61031e-11 0 -3.79471e-13 -3.79054e-12 0 0 0 0)
(-6.50521e-13 3.53059e-12 0 -5.42101e-14 8.95997e-13 0 0 0 0)
(1.0842e-13 -8.43427e-13 0 -2.71051e-14 -2.21047e-13 0 0 0 0)
(0 1.88495e-13 0 2.71051e-14 3.20568e-14 0 0 0 0)
(0 -3.8083e-14 0 0 -2.04862e-14 0 0 0 0)
(0 1.9805e-14 0 0 -5.87708e-15 0 0 0 0)
(0 3.69336e-15 0 0 -1.27391e-14 0 0 0 0)
(2.71051e-14 2.42207e-16 0 2.71051e-14 -1.40252e-14 0 0 0 0)
(-2.71051e-14 -6.65844e-16 0 2.71051e-14 -1.19108e-15 0 0 0 0)
(2.71051e-14 1.97016e-15 0 2.71051e-14 3.40411e-15 0 0 0 0)
(0 8.03167e-15 0 0 6.92434e-15 0 0 0 0)
(0 9.97522e-15 0 0 8.23911e-15 0 0 0 0)
(-2.71051e-14 4.58036e-15 0 0 1.31555e-14 0 0 0 0)
(0 -5.56538e-15 0 -5.42101e-14 1.03916e-14 0 0 0 0)
(0 -7.25842e-15 0 -5.42101e-14 5.68607e-15 0 0 0 0)
(0 -2.5323e-15 0 0 4.60696e-16 0 0 0 0)
(-2.71051e-14 -1.41651e-16 0 -5.42101e-14 6.993e-15 0 0 0 0)
(0 1.40843e-15 0 0 9.37772e-15 0 0 0 0)
(-2.71051e-14 -8.39597e-15 0 0 6.28287e-15 0 0 0 0)
(3.00866e-12 3.62515e-13 0 1.0842e-12 -3.15155e-11 0 0 0 0)
(-3.95734e-12 -3.94337e-13 0 -2.71051e-13 6.97797e-12 0 0 0 0)
(9.75782e-13 3.89027e-14 0 1.35525e-13 -1.62742e-12 0 0 0 0)
(-8.13152e-14 -2.05129e-14 0 5.42101e-14 3.65909e-13 0 0 0 0)
(2.71051e-14 1.20668e-14 0 0 -8.44172e-14 0 0 0 0)
(0 1.49045e-16 0 0 2.2245e-14 0 0 0 0)
(-2.71051e-14 -1.2058e-14 0 0 -5.60988e-15 0 0 0 0)
(0 -1.18415e-14 0 0 -1.34584e-14 0 0 0 0)
(2.71051e-14 1.13058e-14 0 -2.71051e-14 2.31068e-15 0 0 0 0)
(0 1.80951e-14 0 -2.71051e-14 1.04021e-14 0 0 0 0)
(0 6.14526e-15 0 -2.71051e-14 1.20508e-14 0 0 0 0)
(-2.71051e-14 -3.19667e-15 0 0 2.27499e-15 0 0 0 0)
(-5.42101e-14 -3.74402e-15 0 -5.42101e-14 7.83646e-18 0 0 0 0)
(0 -2.42791e-15 0 0 3.58103e-15 0 0 0 0)
(0 -1.90409e-15 0 0 5.13143e-15 0 0 0 0)
(0 -2.67245e-15 0 -2.71051e-14 -1.00162e-15 0 0 0 0)
(5.42101e-14 3.83924e-15 0 -8.13152e-14 -1.37868e-14 0 0 0 0)
(2.71051e-14 9.05867e-15 0 -2.71051e-14 -1.60942e-14 0 0 0 0)
(0 -2.11856e-15 0 -5.42101e-14 -1.89684e-14 0 0 0 0)
(5.42101e-14 -7.26462e-15 0 0 -1.53154e-14 0 0 0 0)
(-1.02999e-12 -1.12971e-11 0 -5.99022e-12 1.2531e-11 0 0 0 0)
(1.46367e-12 1.37849e-11 0 1.54499e-12 -2.74617e-12 0 0 0 0)
(-3.79471e-13 -3.08147e-12 0 -1.6263e-13 6.6655e-13 0 0 0 0)
(0 6.99574e-13 0 5.42101e-14 -1.28456e-13 0 0 0 0)
(0 -1.55169e-13 0 0 3.30151e-14 0 0 0 0)
(0 4.07243e-14 0 0 -3.24797e-15 0 0 0 0)
(0 -1.58984e-14 0 0 3.52827e-15 0 0 0 0)
(2.71051e-14 1.16139e-14 0 -5.42101e-14 1.22907e-14 0 0 0 0)
(-2.71051e-14 2.41028e-14 0 -5.42101e-14 1.09224e-14 0 0 0 0)
(0 9.0743e-15 0 -5.42101e-14 -1.05284e-14 0 0 0 0)
(0 -6.15695e-15 0 0 -1.88948e-14 0 0 0 0)
(0 -4.01131e-15 0 2.71051e-14 -8.71609e-15 0 0 0 0)
(0 1.12813e-14 0 1.0842e-13 6.50633e-15 0 0 0 0)
(0 9.70396e-15 0 2.71051e-14 1.30986e-14 0 0 0 0)
(-5.42101e-14 -1.0148e-14 0 1.0842e-13 2.07032e-14 0 0 0 0)
(-5.42101e-14 -2.61766e-14 0 8.13152e-14 1.55407e-14 0 0 0 0)
(0 -1.76249e-14 0 8.13152e-14 4.4497e-15 0 0 0 0)
(0 -5.32331e-15 0 8.13152e-14 -2.16208e-14 0 0 0 0)
(5.42101e-14 2.18723e-15 0 5.42101e-14 -3.13318e-14 0 0 0 0)
(0 2.58879e-14 0 0 -7.69135e-15 0 0 0 0)
(-1.49078e-12 1.01473e-11 0 4.66207e-12 1.32345e-11 0 0 0 0)
(1.87025e-12 -1.22588e-11 0 -1.27394e-12 -2.92303e-12 0 0 0 0)
(-4.60786e-13 2.65662e-12 0 1.35525e-13 6.82486e-13 0 0 0 0)
(5.42101e-14 -6.54048e-13 0 -2.71051e-14 -1.2672e-13 0 0 0 0)
(-8.13152e-14 1.37275e-13 0 2.71051e-14 6.13708e-14 0 0 0 0)
(0 -2.93378e-14 0 0 9.02222e-15 0 0 0 0)
(-5.42101e-14 3.4807e-15 0 0 1.36525e-14 0 0 0 0)
(-5.42101e-14 -4.44731e-15 0 0 1.13161e-14 0 0 0 0)
(5.42101e-14 -1.15133e-14 0 5.42101e-14 -1.72423e-14 0 0 0 0)
(5.42101e-14 -1.17221e-14 0 5.42101e-14 -3.22056e-14 0 0 0 0)
(2.71051e-14 7.95755e-15 0 2.71051e-14 -2.94646e-14 0 0 0 0)
(5.42101e-14 2.22044e-14 0 -2.71051e-14 -1.07453e-14 0 0 0 0)
(0 1.80707e-14 0 -2.71051e-14 -1.16831e-14 0 0 0 0)
(0 1.17689e-14 0 -2.71051e-14 -3.08109e-14 0 0 0 0)
(5.42101e-14 5.37992e-16 0 0 -2.20912e-14 0 0 0 0)
(0 -1.89259e-14 0 5.42101e-14 1.10813e-14 0 0 0 0)
(0 -3.33223e-14 0 5.42101e-14 2.55363e-14 0 0 0 0)
(-2.71051e-14 -2.67228e-14 0 5.42101e-14 5.90462e-15 0 0 0 0)
(0 1.18109e-14 0 2.71051e-14 3.5154e-15 0 0 0 0)
(-2.71051e-14 3.17585e-14 0 2.71051e-14 6.5764e-15 0 0 0 0)
(2.33103e-12 -9.85613e-13 0 -5.14996e-13 -2.4451e-11 0 0 0 0)
(-3.06287e-12 1.2329e-12 0 2.98156e-13 5.32795e-12 0 0 0 0)
(8.67362e-13 -2.85157e-13 0 8.13152e-14 -1.27354e-12 0 0 0 0)
(-1.0842e-13 7.84583e-14 0 8.13152e-14 2.81909e-13 0 0 0 0)
(0 -1.94264e-14 0 8.13152e-14 -4.43414e-14 0 0 0 0)
(2.71051e-14 -6.99397e-15 0 1.35525e-13 1.92903e-14 0 0 0 0)
(0 -1.36046e-14 0 1.35525e-13 4.26732e-15 0 0 0 0)
(0 -1.92808e-14 0 1.6263e-13 4.81321e-15 0 0 0 0)
(2.71051e-14 -1.9419e-14 0 1.35525e-13 -2.30224e-15 0 0 0 0)
(0 -3.148e-15 0 8.13152e-14 2.43802e-15 0 0 0 0)
(-2.71051e-14 1.53034e-14 0 2.71051e-14 4.24345e-15 0 0 0 0)
(-2.71051e-14 1.37701e-14 0 5.42101e-14 3.75944e-16 0 0 0 0)
(0 -8.78436e-15 0 2.71051e-14 -2.36427e-15 0 0 0 0)
(0 -7.04124e-16 0 5.42101e-14 3.82494e-16 0 0 0 0)
(2.71051e-14 3.17442e-14 0 -5.42101e-14 -6.22419e-15 0 0 0 0)
(-2.71051e-14 2.14508e-14 0 -2.71051e-14 -3.58855e-15 0 0 0 0)
(-2.71051e-14 -2.28016e-14 0 -2.71051e-14 6.04538e-15 0 0 0 0)
(-2.71051e-14 -2.73442e-14 0 -2.71051e-14 1.75964e-14 0 0 0 0)
(0 2.85902e-15 0 -2.71051e-14 2.09498e-14 0 0 0 0)
(0 1.57961e-14 0 0 1.41834e-15 0 0 0 0)
(-1.68051e-12 -8.97568e-12 0 -2.90024e-12 1.79038e-11 0 0 0 0)
(2.46656e-12 1.09186e-11 0 7.31836e-13 -3.89562e-12 0 0 0 0)
(-6.77626e-13 -2.38942e-12 0 -1.35525e-13 9.32986e-13 0 0 0 0)
(8.13152e-14 5.75155e-13 0 -1.0842e-13 -2.11771e-13 0 0 0 0)
(-2.71051e-14 -1.25344e-13 0 -8.13152e-14 3.33477e-14 0 0 0 0)
(0 1.9271e-14 0 -8.13152e-14 -1.75747e-14 0 0 0 0)
(-2.71051e-14 -1.09964e-14 0 -8.13152e-14 1.78034e-15 0 0 0 0)
(-2.71051e-14 -1.10169e-14 0 -5.42101e-14 2.6475e-15 0 0 0 0)
(0 -1.38885e-14 0 -8.13152e-14 1.63249e-14 0 0 0 0)
(-5.42101e-14 -5.17637e-15 0 -2.71051e-14 2.73236e-14 0 0 0 0)
(-2.71051e-14 5.89547e-15 0 -5.42101e-14 3.78645e-14 0 0 0 0)
(2.71051e-14 1.55967e-14 0 -1.0842e-13 1.92468e-14 0 0 0 0)
(0 1.80773e-14 0 -5.42101e-14 1.71198e-14 0 0 0 0)
(-5.42101e-14 7.90901e-15 0 -5.42101e-14 2.34365e-14 0 0 0 0)
(-5.42101e-14 -3.43305e-15 0 -5.42101e-14 8.18605e-15 0 0 0 0)
(5.42101e-14 -6.65636e-15 0 -8.13152e-14 -1.8303e-14 0 0 0 0)
(2.71051e-14 -1.21374e-14 0 0 -1.88446e-14 0 0 0 0)
(-2.71051e-14 -1.18184e-14 0 0 9.89271e-15 0 0 0 0)
(2.71051e-14 -4.36714e-15 0 0 1.35873e-14 0 0 0 0)
(-2.71051e-14 9.39042e-15 0 0 4.59997e-16 0 0 0 0)
(1.89735e-13 1.30225e-11 0 3.57787e-12 4.88584e-12 0 0 0 0)
(-2.71051e-13 -1.57379e-11 0 -1.16552e-12 -1.0425e-12 0 0 0 0)
(-5.42101e-14 3.39869e-12 0 -8.13152e-14 2.55296e-13 0 0 0 0)
(-5.42101e-14 -8.2118e-13 0 -8.13152e-14 -5.02785e-14 0 0 0 0)
(1.0842e-13 1.7477e-13 0 -1.0842e-13 -1.24671e-14 0 0 0 0)
(0 -3.85613e-14 0 -1.35525e-13 -2.44162e-14 0 0 0 0)
(8.13152e-14 6.61764e-15 0 -1.35525e-13 -9.66844e-15 0 0 0 0)
(2.71051e-14 -4.73622e-15 0 -1.35525e-13 -8.22883e-16 0 0 0 0)
(0 5.25717e-15 0 -1.0842e-13 1.61284e-14 0 0 0 0)
(-2.71051e-14 1.83916e-14 0 -1.35525e-13 2.65228e-14 0 0 0 0)
(-8.13152e-14 7.22657e-15 0 -8.13152e-14 2.98167e-14 0 0 0 0)
(0 -6.97455e-15 0 -2.71051e-14 1.64257e-14 0 0 0 0)
(0 -4.59461e-15 0 -8.13152e-14 1.18476e-15 0 0 0 0)
(0 -9.63788e-15 0 -5.42101e-14 -2.31606e-14 0 0 0 0)
(2.71051e-14 -9.99532e-15 0 0 -2.94512e-14 0 0 0 0)
(5.42101e-14 -5.57981e-15 0 0 -2.21433e-14 0 0 0 0)
(2.71051e-14 5.39406e-15 0 -2.71051e-14 -1.67314e-14 0 0 0 0)
(0 5.0877e-15 0 -2.71051e-14 -8.27709e-15 0 0 0 0)
(-2.71051e-14 -6.5737e-15 0 0 -7.81599e-16 0 0 0 0)
(0 1.74881e-15 0 -2.71051e-14 3.11199e-15 0 0 0 0)
(7.31836e-13 -5.13234e-12 0 -1.97867e-12 -2.32923e-11 0 0 0 0)
(-1.27394e-12 6.2881e-12 0 5.69206e-13 5.06382e-12 0 0 0 0)
(4.60786e-13 -1.3972e-12 0 -5.42101e-14 -1.19719e-12 0 0 0 0)
(2.71051e-14 3.07391e-13 0 0 2.74264e-13 0 0 0 0)
(-2.71051e-14 -9.94814e-14 0 2.71051e-14 -5.64625e-14 0 0 0 0)
(2.71051e-14 2.20696e-14 0 0 1.18026e-14 0 0 0 0)
(-2.71051e-14 1.25969e-14 0 -5.42101e-14 -2.00051e-16 0 0 0 0)
(-5.42101e-14 1.478e-14 0 -5.42101e-14 4.49348e-15 0 0 0 0)
(0 1.34572e-14 0 -2.71051e-14 -1.45827e-17 0 0 0 0)
(-5.42101e-14 8.51191e-15 0 0 -3.57099e-15 0 0 0 0)
(1.0842e-13 -4.20168e-15 0 0 -2.28535e-14 0 0 0 0)
(0 -1.30352e-14 0 0 -4.46587e-15 0 0 0 0)
(2.71051e-14 -2.1509e-14 0 2.71051e-14 -1.09898e-14 0 0 0 0)
(0 -2.2727e-14 0 5.42101e-14 -1.66473e-14 0 0 0 0)
(0 -2.41568e-15 0 5.42101e-14 -1.62644e-14 0 0 0 0)
(0 6.06345e-15 0 5.42101e-14 -9.79174e-15 0 0 0 0)
(0 1.7288e-15 0 0 -5.2721e-15 0 0 0 0)
(5.42101e-14 4.1314e-15 0 0 -1.34433e-14 0 0 0 0)
(2.71051e-14 7.02194e-15 0 0 -9.6938e-15 0 0 0 0)
(-2.71051e-14 7.06002e-15 0 2.71051e-14 3.92129e-15 0 0 0 0)
(-1.19262e-12 -5.20591e-12 0 -8.94467e-13 2.22761e-11 0 0 0 0)
(1.68051e-12 6.35718e-12 0 3.25261e-13 -4.90411e-12 0 0 0 0)
(-5.69206e-13 -1.39086e-12 0 8.13152e-14 1.14046e-12 0 0 0 0)
(0 3.19549e-13 0 8.13152e-14 -2.68972e-13 0 0 0 0)
(0 -8.76913e-14 0 8.13152e-14 7.23206e-14 0 0 0 0)
(-5.42101e-14 1.77011e-14 0 2.71051e-14 1.35686e-14 0 0 0 0)
(5.42101e-14 -6.91492e-16 0 8.13152e-14 1.12046e-14 0 0 0 0)
(0 -4.55075e-15 0 8.13152e-14 -3.83654e-15 0 0 0 0)
(2.71051e-14 -2.8073e-15 0 8.13152e-14 -1.20142e-14 0 0 0 0)
(0 -4.44735e-15 0 8.13152e-14 -1.73643e-14 0 0 0 0)
(0 6.3317e-15 0 8.13152e-14 -2.1214e-14 0 0 0 0)
(5.42101e-14 4.88916e-15 0 2.71051e-14 -1.66428e-14 0 0 0 0)
(2.71051e-14 -1.67761e-14 0 5.42101e-14 -2.50556e-14 0 0 0 0)
(2.71051e-14 -1.49125e-14 0 5.42101e-14 -8.35281e-15 0 0 0 0)
(0 -3.13972e-15 0 5.42101e-14 9.15348e-15 0 0 0 0)
(-2.71051e-14 5.41247e-15 0 0 4.62653e-15 0 0 0 0)
(2.71051e-14 1.74254e-15 0 2.71051e-14 1.4602e-17 0 0 0 0)
(-5.42101e-14 6.6601e-16 0 2.71051e-14 4.27356e-15 0 0 0 0)
(0 1.07909e-14 0 0 6.54202e-15 0 0 0 0)
(0 7.52132e-15 0 0 5.05713e-15 0 0 0 0)
(1.35525e-13 1.22397e-11 0 1.95156e-12 -9.08153e-12 0 0 0 0)
(-2.71051e-13 -1.48475e-11 0 -5.96311e-13 1.94481e-12 0 0 0 0)
(1.89735e-13 3.23793e-12 0 8.13152e-14 -4.63909e-13 0 0 0 0)
(2.71051e-14 -7.60747e-13 0 8.13152e-14 7.64434e-14 0 0 0 0)
(-2.71051e-14 1.83059e-13 0 2.71051e-14 -2.151e-14 0 0 0 0)
(0 -3.90463e-14 0 1.0842e-13 1.29315e-14 0 0 0 0)
(0 -4.80833e-15 0 1.0842e-13 -5.66087e-16 0 0 0 0)
(-2.71051e-14 -8.43884e-15 0 1.0842e-13 2.78334e-15 0 0 0 0)
(-2.71051e-14 -7.05419e-17 0 5.42101e-14 1.42981e-14 0 0 0 0)
(0 -6.87838e-16 0 5.42101e-14 1.06866e-14 0 0 0 0)
(-5.42101e-14 -3.48015e-15 0 5.42101e-14 1.00787e-14 0 0 0 0)
(5.42101e-14 -1.68768e-14 0 8.13152e-14 -1.73936e-14 0 0 0 0)
(2.71051e-14 -1.32191e-14 0 5.42101e-14 -1.70172e-14 0 0 0 0)
(0 1.14821e-14 0 -5.42101e-14 1.08916e-17 0 0 0 0)
(-2.71051e-14 1.05637e-14 0 -2.71051e-14 8.54752e-15 0 0 0 0)
(0 -3.07543e-15 0 0 -1.72425e-15 0 0 0 0)
(0 1.37582e-15 0 -2.71051e-14 -7.69176e-15 0 0 0 0)
(2.71051e-14 1.06588e-14 0 -2.71051e-14 2.71433e-15 0 0 0 0)
(0 7.80552e-15 0 0 1.31831e-14 0 0 0 0)
(-2.71051e-14 -4.53913e-15 0 0 4.38217e-15 0 0 0 0)
(1.35525e-13 -1.23426e-11 0 2.1684e-13 -7.07401e-12 0 0 0 0)
(-1.89735e-13 1.49748e-11 0 2.43945e-13 1.54968e-12 0 0 0 0)
(1.0842e-13 -3.25923e-12 0 2.1684e-13 -3.64389e-13 0 0 0 0)
(0 7.61949e-13 0 -2.71051e-14 8.62667e-14 0 0 0 0)
(0 -1.51203e-13 0 2.71051e-14 -1.95044e-14 0 0 0 0)
(0 3.86451e-14 0 0 -6.51595e-15 0 0 0 0)
(2.71051e-14 -1.08396e-14 0 2.71051e-14 -6.831e-15 0 0 0 0)
(2.71051e-14 1.03135e-14 0 0 -8.31396e-16 0 0 0 0)
(-2.71051e-14 5.09594e-15 0 0 -1.16547e-15 0 0 0 0)
(0 -8.66684e-15 0 0 5.36363e-15 0 0 0 0)
(0 -2.17485e-14 0 0 4.61047e-15 0 0 0 0)
(2.71051e-14 -2.22067e-14 0 5.42101e-14 2.38074e-15 0 0 0 0)
(-5.42101e-14 6.28408e-16 0 2.71051e-14 2.52422e-14 0 0 0 0)
(-5.42101e-14 1.06522e-14 0 2.71051e-14 2.2943e-14 0 0 0 0)
(2.71051e-14 -4.87486e-15 0 2.71051e-14 4.62151e-15 0 0 0 0)
(0 -1.08268e-14 0 5.42101e-14 -2.00108e-15 0 0 0 0)
(-2.71051e-14 6.18112e-15 0 0 4.74368e-15 0 0 0 0)
(0 2.15409e-14 0 0 6.90447e-15 0 0 0 0)
(0 1.24587e-14 0 0 6.17106e-15 0 0 0 0)
(0 -1.0044e-14 0 0 1.6175e-15 0 0 0 0)
(6.23416e-13 6.71532e-12 0 -7.04731e-13 1.72399e-11 0 0 0 0)
(-2.98156e-13 -8.13793e-12 0 -1.0842e-13 -3.70533e-12 0 0 0 0)
(-5.42101e-14 1.77452e-12 0 -1.89735e-13 8.76596e-13 0 0 0 0)
(-1.89735e-13 -4.15862e-13 0 -2.71051e-14 -1.60864e-13 0 0 0 0)
(2.71051e-14 9.02767e-14 0 -5.42101e-14 5.10904e-14 0 0 0 0)
(-2.71051e-14 -2.63729e-14 0 -2.71051e-14 -5.26496e-15 0 0 0 0)
(-2.71051e-14 8.76222e-16 0 -8.13152e-14 1.89448e-14 0 0 0 0)
(-5.42101e-14 -2.77331e-15 0 -5.42101e-14 1.78848e-14 0 0 0 0)
(0 6.12448e-15 0 -1.0842e-13 -4.36696e-16 0 0 0 0)
(0 5.08811e-15 0 -1.0842e-13 -8.18071e-15 0 0 0 0)
(5.42101e-14 -6.46304e-15 0 -1.0842e-13 -1.70163e-14 0 0 0 0)
(0 3.75488e-15 0 -8.13152e-14 -6.3437e-15 0 0 0 0)
(0 7.34321e-15 0 -1.35525e-13 1.14195e-14 0 0 0 0)
(0 -9.13859e-15 0 -2.71051e-14 3.74759e-15 0 0 0 0)
(0 -1.43804e-14 0 -5.42101e-14 -5.04033e-15 0 0 0 0)
(0 -2.95326e-15 0 -5.42101e-14 4.02591e-15 0 0 0 0)
(-2.71051e-14 1.02814e-14 0 0 1.36988e-14 0 0 0 0)
(-2.71051e-14 1.20862e-14 0 0 8.8353e-15 0 0 0 0)
(2.71051e-14 2.51856e-15 0 -5.42101e-14 -6.86164e-15 0 0 0 0)
(-2.71051e-14 -1.23277e-14 0 -2.71051e-14 -5.20528e-15 0 0 0 0)
(-6.23416e-13 1.19196e-12 0 -2.98156e-13 -1.81338e-11 0 0 0 0)
(2.71051e-13 -1.38852e-12 0 0 3.96051e-12 0 0 0 0)
(1.6263e-13 2.85236e-13 0 -1.0842e-13 -9.13226e-13 0 0 0 0)
(1.35525e-13 -6.35567e-14 0 0 2.26558e-13 0 0 0 0)
(0 4.39538e-15 0 0 -4.24669e-14 0 0 0 0)
(-2.71051e-14 6.49948e-15 0 -2.71051e-14 5.88458e-15 0 0 0 0)
(0 1.23102e-14 0 0 -7.50116e-15 0 0 0 0)
(2.71051e-14 -9.06797e-15 0 2.71051e-14 -8.00706e-16 0 0 0 0)
(-2.71051e-14 -2.09696e-14 0 8.13152e-14 -1.37119e-15 0 0 0 0)
(0 -2.52465e-14 0 1.0842e-13 -8.46002e-15 0 0 0 0)
(0 -1.99115e-14 0 1.0842e-13 1.20235e-15 0 0 0 0)
(0 6.22915e-15 0 5.42101e-14 8.69166e-15 0 0 0 0)
(0 1.07197e-14 0 5.42101e-14 -6.50773e-15 0 0 0 0)
(0 -5.80763e-15 0 2.71051e-14 -6.89988e-15 0 0 0 0)
(0 -4.59654e-15 0 2.71051e-14 -2.23615e-15 0 0 0 0)
(2.71051e-14 7.91234e-15 0 0 5.71054e-16 0 0 0 0)
(0 1.09905e-14 0 0 -9.28931e-16 0 0 0 0)
(-2.71051e-14 9.8046e-16 0 0 -3.92034e-15 0 0 0 0)
(2.71051e-14 -1.5819e-15 0 5.42101e-14 -1.33235e-14 0 0 0 0)
(5.42101e-14 2.02292e-15 0 0 -1.13976e-14 0 0 0 0)
(2.98156e-13 -7.458e-12 0 -5.96311e-13 1.33731e-11 0 0 0 0)
(-2.71051e-14 9.08267e-12 0 3.52366e-13 -2.98557e-12 0 0 0 0)
(-1.0842e-13 -1.95942e-12 0 5.42101e-14 6.82171e-13 0 0 0 0)
(-8.13152e-14 4.54896e-13 0 2.71051e-14 -1.74404e-13 0 0 0 0)
(0 -1.30396e-13 0 5.42101e-14 2.03326e-14 0 0 0 0)
(-2.71051e-14 8.59278e-15 0 8.13152e-14 -2.39264e-14 0 0 0 0)
(5.42101e-14 -5.80906e-15 0 5.42101e-14 -3.03949e-14 0 0 0 0)
(2.71051e-14 3.35667e-15 0 5.42101e-14 -3.54051e-14 0 0 0 0)
(2.71051e-14 -1.53483e-15 0 8.13152e-14 -2.6087e-14 0 0 0 0)
(2.71051e-14 7.66164e-15 0 2.71051e-14 -5.10366e-15 0 0 0 0)
(0 1.06886e-14 0 2.71051e-14 2.52784e-14 0 0 0 0)
(-5.42101e-14 -3.95519e-15 0 2.71051e-14 3.24055e-14 0 0 0 0)
(-2.71051e-14 -8.24833e-15 0 5.42101e-14 1.60814e-14 0 0 0 0)
(0 -4.86701e-15 0 2.71051e-14 1.05096e-14 0 0 0 0)
(-5.42101e-14 -6.90951e-15 0 2.71051e-14 1.94984e-14 0 0 0 0)
(-2.71051e-14 -1.64605e-15 0 5.42101e-14 2.34363e-14 0 0 0 0)
(-2.71051e-14 5.78997e-15 0 0 1.39553e-14 0 0 0 0)
(5.42101e-14 -3.08372e-16 0 2.71051e-14 -8.84549e-16 0 0 0 0)
(-2.71051e-14 -4.95868e-15 0 2.71051e-14 7.51495e-15 0 0 0 0)
(-2.71051e-14 1.23934e-14 0 5.42101e-14 4.66092e-15 0 0 0 0)
(-8.40257e-13 1.15795e-11 0 1.81604e-12 -1.34283e-12 0 0 0 0)
(8.94467e-13 -1.40794e-11 0 -7.04731e-13 2.53191e-13 0 0 0 0)
(-1.89735e-13 3.0964e-12 0 -1.35525e-13 -1.05663e-13 0 0 0 0)
(1.6263e-13 -7.25395e-13 0 -1.0842e-13 -4.52055e-14 0 0 0 0)
(2.71051e-14 1.54873e-13 0 -8.13152e-14 -3.80891e-14 0 0 0 0)
(2.71051e-14 -4.4228e-14 0 -8.13152e-14 -1.47701e-14 0 0 0 0)
(0 8.31424e-16 0 -5.42101e-14 4.2502e-15 0 0 0 0)
(0 -4.76013e-15 0 -5.42101e-14 4.87306e-15 0 0 0 0)
(-2.71051e-14 9.33187e-15 0 -8.13152e-14 5.2483e-15 0 0 0 0)
(-5.42101e-14 2.6119e-14 0 -8.13152e-14 6.57784e-15 0 0 0 0)
(0 1.75977e-14 0 -8.13152e-14 -2.65729e-15 0 0 0 0)
(2.71051e-14 -2.96785e-15 0 -2.71051e-14 -3.82161e-15 0 0 0 0)
(0 -1.11762e-14 0 0 1.30301e-14 0 0 0 0)
(0 -2.39061e-15 0 0 1.21318e-14 0 0 0 0)
(2.71051e-14 8.33022e-15 0 -5.42101e-14 8.75387e-15 0 0 0 0)
(0 2.36919e-15 0 -5.42101e-14 1.12309e-14 0 0 0 0)
(-5.42101e-14 -1.33304e-14 0 0 1.15723e-14 0 0 0 0)
(0 -5.45988e-15 0 -2.71051e-14 2.3244e-15 0 0 0 0)
(5.42101e-14 3.96358e-15 0 -8.13152e-14 5.76706e-15 0 0 0 0)
(-5.42101e-14 -1.0153e-14 0 -5.42101e-14 6.66046e-15 0 0 0 0)
(1.40946e-12 -8.54763e-12 0 -1.49078e-12 -1.64199e-11 0 0 0 0)
(-1.95156e-12 1.03198e-11 0 5.96311e-13 3.60124e-12 0 0 0 0)
(5.42101e-13 -2.25782e-12 0 1.35525e-13 -8.4267e-13 0 0 0 0)
(-8.13152e-14 5.2247e-13 0 5.42101e-14 1.71536e-13 0 0 0 0)
(0 -9.9961e-14 0 0 -5.2543e-14 0 0 0 0)
(0 5.09321e-14 0 -8.13152e-14 -3.71862e-15 0 0 0 0)
(0 1.38341e-14 0 -8.13152e-14 -9.97229e-15 0 0 0 0)
(2.71051e-14 4.35477e-15 0 -8.13152e-14 -4.25527e-15 0 0 0 0)
(0 1.6995e-16 0 -8.13152e-14 1.36897e-15 0 0 0 0)
(5.42101e-14 -2.43952e-16 0 -8.13152e-14 -1.64414e-14 0 0 0 0)
(5.42101e-14 2.8919e-16 0 -5.42101e-14 -2.95369e-14 0 0 0 0)
(0 1.17322e-14 0 -5.42101e-14 -2.04522e-14 0 0 0 0)
(0 7.70504e-15 0 -5.42101e-14 -2.9401e-15 0 0 0 0)
(-5.42101e-14 -9.14323e-15 0 -2.71051e-14 1.40756e-14 0 0 0 0)
(-8.13152e-14 -7.81032e-15 0 0 6.06549e-15 0 0 0 0)
(2.71051e-14 1.17237e-15 0 0 -1.50548e-14 0 0 0 0)
(5.42101e-14 -3.11657e-15 0 0 -1.63939e-14 0 0 0 0)
(-5.42101e-14 -6.1136e-15 0 2.71051e-14 8.29131e-15 0 0 0 0)
(0 -6.22611e-16 0 8.13152e-14 2.13986e-16 0 0 0 0)
(5.42101e-14 -3.41461e-17 0 0 -9.33692e-15 0 0 0 0)
(-1.81604e-12 -1.23925e-12 0 -2.1413e-12 2.32705e-11 0 0 0 0)
(2.52077e-12 1.49786e-12 0 5.42101e-13 -5.04375e-12 0 0 0 0)
(-7.04731e-13 -3.33297e-13 0 -5.42101e-14 1.2011e-12 0 0 0 0)
(5.42101e-14 6.47315e-14 0 5.42101e-14 -2.38054e-13 0 0 0 0)
(-5.42101e-14 -2.03816e-14 0 5.42101e-14 8.33252e-14 0 0 0 0)
(-8.13152e-14 -1.6573e-15 0 8.13152e-14 9.86929e-15 0 0 0 0)
(0 2.94773e-16 0 8.13152e-14 1.31254e-15 0 0 0 0)
(2.71051e-14 6.58114e-15 0 8.13152e-14 -5.37549e-15 0 0 0 0)
(-2.71051e-14 -2.85423e-15 0 5.42101e-14 -2.38741e-15 0 0 0 0)
(0 -4.78687e-15 0 2.71051e-14 -1.70481e-14 0 0 0 0)
(0 1.35868e-14 0 5.42101e-14 -1.64808e-14 0 0 0 0)
(0 2.36289e-14 0 -5.42101e-14 -3.12622e-15 0 0 0 0)
(2.71051e-14 2.33516e-14 0 -5.42101e-14 -1.37921e-14 0 0 0 0)
(8.13152e-14 6.61499e-15 0 -2.71051e-14 -1.34651e-14 0 0 0 0)
(2.71051e-14 -2.08001e-14 0 2.71051e-14 2.25603e-16 0 0 0 0)
(-2.71051e-14 -2.00902e-14 0 5.42101e-14 7.80803e-15 0 0 0 0)
(0 1.00157e-14 0 0 8.30226e-15 0 0 0 0)
(2.71051e-14 1.1148e-14 0 -8.13152e-14 8.6513e-15 0 0 0 0)
(0 -1.36647e-14 0 0 2.11058e-15 0 0 0 0)
(-5.42101e-14 -1.03002e-15 0 2.71051e-14 -3.04542e-15 0 0 0 0)
(-1.35525e-13 9.67908e-12 0 5.66496e-12 -4.32757e-12 0 0 0 0)
(8.13152e-14 -1.17495e-11 0 -1.51788e-12 8.90934e-13 0 0 0 0)
(8.13152e-14 2.54788e-12 0 1.35525e-13 -2.42647e-13 0 0 0 0)
(2.71051e-14 -5.95306e-13 0 -1.0842e-13 4.67419e-14 0 0 0 0)
(0 1.47962e-13 0 -1.0842e-13 -8.43192e-15 0 0 0 0)
(0 -3.10805e-14 0 0 9.3634e-15 0 0 0 0)
(2.71051e-14 -1.41065e-15 0 0 4.69886e-15 0 0 0 0)
(-2.71051e-14 6.54821e-16 0 -2.71051e-14 4.10089e-16 0 0 0 0)
(0 -1.15027e-14 0 5.42101e-14 3.28186e-15 0 0 0 0)
(0 -1.43374e-14 0 8.13152e-14 2.11744e-14 0 0 0 0)
(0 1.42111e-14 0 0 2.30267e-14 0 0 0 0)
(-2.71051e-14 1.44209e-14 0 5.42101e-14 1.88304e-14 0 0 0 0)
(-2.71051e-14 -2.63381e-15 0 0 6.28068e-15 0 0 0 0)
(0 4.8745e-15 0 -5.42101e-14 -2.01319e-14 0 0 0 0)
(0 1.34628e-14 0 -1.0842e-13 -1.86363e-14 0 0 0 0)
(0 9.24903e-15 0 -5.42101e-14 1.57215e-15 0 0 0 0)
(-5.42101e-14 -2.27331e-15 0 -5.42101e-14 9.76078e-15 0 0 0 0)
(-2.71051e-14 -1.23053e-14 0 0 -7.3927e-15 0 0 0 0)
(8.13152e-14 -1.23193e-14 0 -2.71051e-14 -1.32194e-14 0 0 0 0)
(0 9.00687e-16 0 0 -1.36285e-15 0 0 0 0)
(2.27682e-12 -4.67589e-12 0 -1.16552e-12 -1.96778e-11 0 0 0 0)
(-2.98156e-12 5.58278e-12 0 4.33681e-13 4.23833e-12 0 0 0 0)
(7.31836e-13 -1.17749e-12 0 8.13152e-14 -1.00834e-12 0 0 0 0)
(-1.0842e-13 2.98947e-13 0 8.13152e-14 2.21204e-13 0 0 0 0)
(0 -5.77602e-14 0 1.0842e-13 -5.82294e-14 0 0 0 0)
(0 1.14735e-14 0 0 -1.08295e-14 0 0 0 0)
(0 -8.65854e-15 0 2.71051e-14 -1.69782e-14 0 0 0 0)
(2.71051e-14 5.16413e-15 0 0 -1.49105e-14 0 0 0 0)
(5.42101e-14 1.79101e-14 0 -5.42101e-14 -7.30359e-15 0 0 0 0)
(0 1.4958e-14 0 -2.71051e-14 1.99094e-14 0 0 0 0)
(-8.13152e-14 1.12428e-14 0 0 2.15579e-14 0 0 0 0)
(0 6.88291e-15 0 -5.42101e-14 1.09131e-16 0 0 0 0)
(0 -1.56107e-14 0 5.42101e-14 3.66703e-15 0 0 0 0)
(0 -1.8302e-14 0 5.42101e-14 2.47238e-16 0 0 0 0)
(0 9.03918e-16 0 2.71051e-14 -8.66659e-15 0 0 0 0)
(2.71051e-14 8.30689e-15 0 0 -1.90737e-14 0 0 0 0)
(5.42101e-14 1.05089e-15 0 5.42101e-14 -2.31123e-14 0 0 0 0)
(2.71051e-14 -1.18322e-14 0 5.42101e-14 -9.84421e-15 0 0 0 0)
(0 -7.6348e-15 0 0 -4.54835e-16 0 0 0 0)
(-2.71051e-14 1.35522e-14 0 0 1.54924e-15 0 0 0 0)
(-8.94467e-13 -5.76036e-12 0 -1.78893e-12 1.32081e-11 0 0 0 0)
(1.40946e-12 6.91991e-12 0 3.52366e-13 -2.7718e-12 0 0 0 0)
(-3.52366e-13 -1.46925e-12 0 -1.6263e-13 7.05354e-13 0 0 0 0)
(0 3.54803e-13 0 -2.71051e-14 -1.25058e-13 0 0 0 0)
(-5.42101e-14 -8.40712e-14 0 -5.42101e-14 5.16039e-14 0 0 0 0)
(-2.71051e-14 1.01707e-14 0 0 1.6773e-14 0 0 0 0)
(0 -5.49166e-15 0 -2.71051e-14 2.99597e-14 0 0 0 0)
(-5.42101e-14 1.03294e-14 0 0 3.09232e-14 0 0 0 0)
(-2.71051e-14 2.33172e-14 0 0 1.44662e-14 0 0 0 0)
(0 1.45241e-14 0 0 -1.03041e-14 0 0 0 0)
(2.71051e-14 -5.58916e-15 0 0 -1.50159e-14 0 0 0 0)
(0 -3.46998e-15 0 5.42101e-14 -1.59578e-14 0 0 0 0)
(2.71051e-14 -2.49571e-15 0 0 -1.84289e-14 0 0 0 0)
(0 -7.45912e-15 0 0 2.14865e-15 0 0 0 0)
(0 -5.85813e-15 0 5.42101e-14 7.33225e-15 0 0 0 0)
(-2.71051e-14 -5.19667e-15 0 0 7.10286e-15 0 0 0 0)
(-2.71051e-14 6.95616e-15 0 0 4.22203e-15 0 0 0 0)
(0 1.03522e-14 0 0 -9.04193e-16 0 0 0 0)
(2.71051e-14 -9.25871e-16 0 0 5.70204e-15 0 0 0 0)
(-2.71051e-14 -1.93719e-16 0 -2.71051e-14 7.65647e-15 0 0 0 0)
)
;

boundaryField
{
    movingWall
    {
        type            extrapolatedCalculated;
        value           nonuniform List<tensor> 
20
(
(-8.94467e-13 -5.76036e-12 0 5.24025e-12 2.92096e-11 0 0 0 0)
(1.40946e-12 6.91991e-12 0 -1.73195e-12 -6.16818e-12 0 0 0 0)
(-3.52366e-13 -1.46925e-12 0 -3.10862e-13 1.52997e-12 0 0 0 0)
(0 3.54803e-13 0 -3.10862e-13 -2.91167e-13 0 0 0 0)
(-5.42101e-14 -8.40712e-14 0 -3.10862e-13 1.10762e-13 0 0 0 0)
(-2.71051e-14 1.01707e-14 0 -1.77636e-13 4.51174e-14 0 0 0 0)
(0 -5.49166e-15 0 -1.77636e-13 7.00789e-14 0 0 0 0)
(-5.42101e-14 1.03294e-14 0 -1.33227e-13 6.70841e-14 0 0 0 0)
(-2.71051e-14 2.33172e-14 0 0 2.87612e-14 0 0 0 0)
(0 1.45241e-14 0 0 -2.61848e-14 0 0 0 0)
(2.71051e-14 -5.58916e-15 0 -4.44089e-14 -2.93353e-14 0 0 0 0)
(0 -3.46998e-15 0 -4.44089e-14 -3.82819e-15 0 0 0 0)
(2.71051e-14 -2.49571e-15 0 -8.88178e-14 -1.54554e-14 0 0 0 0)
(0 -7.45912e-15 0 -8.88178e-14 6.15464e-15 0 0 0 0)
(0 -5.85813e-15 0 -1.33227e-13 1.43811e-14 0 0 0 0)
(-2.71051e-14 -5.19667e-15 0 -8.88178e-14 2.95872e-14 0 0 0 0)
(-2.71051e-14 6.95616e-15 0 -4.44089e-14 3.51678e-14 0 0 0 0)
(0 1.03522e-14 0 8.88178e-14 1.76253e-15 0 0 0 0)
(2.71051e-14 -9.25871e-16 0 0 -6.24089e-15 0 0 0 0)
(-2.71051e-14 -1.93719e-16 0 -4.44089e-14 5.46602e-15 0 0 0 0)
)
;
    }
    fixedWalls
    {
        type            extrapolatedCalculated;
        value           nonuniform List<tensor> 
60
(
(-1.02141e-11 6.79195e-11 0 1.49078e-12 1.73935e-11 0 0 0 0)
(1.62093e-11 1.65439e-12 0 1.0842e-12 -3.15155e-11 0 0 0 0)
(-5.86198e-12 -5.81425e-11 0 -5.99022e-12 1.2531e-11 0 0 0 0)
(-7.72715e-12 5.17783e-11 0 4.66207e-12 1.32345e-11 0 0 0 0)
(1.2701e-11 -5.20436e-12 0 -5.14996e-13 -2.4451e-11 0 0 0 0)
(-9.76996e-12 -4.60255e-11 0 -2.90024e-12 1.79038e-11 0 0 0 0)
(1.02141e-12 6.64107e-11 0 3.57787e-12 4.88584e-12 0 0 0 0)
(4.66294e-12 -2.64821e-11 0 -1.97867e-12 -2.32923e-11 0 0 0 0)
(-6.92779e-12 -2.67583e-11 0 -8.94467e-13 2.22761e-11 0 0 0 0)
(1.06581e-12 6.26223e-11 0 1.95156e-12 -9.08153e-12 0 0 0 0)
(8.43769e-13 -6.30845e-11 0 2.1684e-13 -7.07401e-12 0 0 0 0)
(1.9984e-12 3.43262e-11 0 -7.04731e-13 1.72399e-11 0 0 0 0)
(-1.95399e-12 5.87521e-12 0 -2.98156e-13 -1.81338e-11 0 0 0 0)
(6.66134e-13 -3.82091e-11 0 -5.96311e-13 1.33731e-11 0 0 0 0)
(-4.17444e-12 5.93675e-11 0 1.81604e-12 -1.34283e-12 0 0 0 0)
(7.90479e-12 -4.35804e-11 0 -1.49078e-12 -1.64199e-11 0 0 0 0)
(-1.03029e-11 -6.31229e-12 0 -2.1413e-12 2.32705e-11 0 0 0 0)
(-5.32907e-13 4.95015e-11 0 5.66496e-12 -4.32757e-12 0 0 0 0)
(1.23457e-11 -2.36226e-11 0 -1.16552e-12 -1.96778e-11 0 0 0 0)
(-5.24025e-12 -2.92096e-11 0 -1.78893e-12 1.32081e-11 0 0 0 0)
(0 -1.97188e-14 0 0 6.28287e-15 0 0 0 0)
(8.88178e-14 -5.41267e-15 0 0 -1.53154e-14 0 0 0 0)
(0 4.15428e-14 0 0 -7.69135e-15 0 0 0 0)
(-4.44089e-14 2.53527e-14 0 2.71051e-14 6.5764e-15 0 0 0 0)
(-4.44089e-14 1.52372e-14 0 0 1.41834e-15 0 0 0 0)
(-4.44089e-14 1.96794e-14 0 0 4.59997e-16 0 0 0 0)
(0 1.33972e-14 0 -2.71051e-14 3.11199e-15 0 0 0 0)
(-4.44089e-14 7.23142e-15 0 2.71051e-14 3.92129e-15 0 0 0 0)
(-4.44089e-14 -2.28792e-15 0 0 5.05713e-15 0 0 0 0)
(-4.44089e-14 -1.29971e-14 0 0 4.38217e-15 0 0 0 0)
(-4.44089e-14 -1.98166e-14 0 0 1.6175e-15 0 0 0 0)
(-4.44089e-14 -1.94671e-14 0 -2.71051e-14 -5.20528e-15 0 0 0 0)
(8.88178e-14 1.00452e-15 0 0 -1.13976e-14 0 0 0 0)
(-4.44089e-14 2.61232e-14 0 5.42101e-14 4.66092e-15 0 0 0 0)
(-1.33227e-13 -1.76392e-14 0 -5.42101e-14 6.66046e-15 0 0 0 0)
(8.88178e-14 -5.18682e-16 0 0 -9.33692e-15 0 0 0 0)
(-8.88178e-14 1.97085e-14 0 2.71051e-14 -3.04542e-15 0 0 0 0)
(0 1.1663e-14 0 0 -1.36285e-15 0 0 0 0)
(-4.44089e-14 2.51599e-14 0 0 1.54924e-15 0 0 0 0)
(-4.44089e-14 5.46602e-15 0 -2.71051e-14 7.65647e-15 0 0 0 0)
(-1.87025e-12 1.32404e-11 0 -1.02141e-11 6.79195e-11 0 0 0 0)
(2.46656e-12 -1.61031e-11 0 2.79776e-12 -1.49578e-11 0 0 0 0)
(-6.50521e-13 3.53059e-12 0 -4.44089e-13 3.50695e-12 0 0 0 0)
(1.0842e-13 -8.43427e-13 0 1.77636e-13 -8.35473e-13 0 0 0 0)
(0 1.88495e-13 0 8.88178e-14 1.33239e-13 0 0 0 0)
(0 -3.8083e-14 0 8.88178e-14 -8.14947e-14 0 0 0 0)
(0 1.9805e-14 0 1.77636e-13 -1.90929e-14 0 0 0 0)
(0 3.69336e-15 0 1.33227e-13 -2.27451e-15 0 0 0 0)
(2.71051e-14 2.42207e-16 0 1.77636e-13 -4.31943e-15 0 0 0 0)
(-2.71051e-14 -6.65844e-16 0 1.33227e-13 -1.30568e-15 0 0 0 0)
(2.71051e-14 1.97016e-15 0 1.77636e-13 -6.98281e-15 0 0 0 0)
(0 8.03167e-15 0 1.33227e-13 6.57495e-15 0 0 0 0)
(0 9.97522e-15 0 1.77636e-13 2.51439e-14 0 0 0 0)
(-2.71051e-14 4.58036e-15 0 1.77636e-13 4.64758e-14 0 0 0 0)
(0 -5.56538e-15 0 1.33227e-13 4.34653e-14 0 0 0 0)
(0 -7.25842e-15 0 8.88178e-14 2.42143e-14 0 0 0 0)
(0 -2.5323e-15 0 8.88178e-14 1.44317e-14 0 0 0 0)
(-2.71051e-14 -1.41651e-16 0 4.44089e-14 1.40851e-14 0 0 0 0)
(0 1.40843e-15 0 8.88178e-14 1.38651e-14 0 0 0 0)
(-2.71051e-14 -8.39597e-15 0 0 1.97188e-14 0 0 0 0)
)
;
    }
    frontAndBack
    {
        type            empty;
    }
}


// ************************************************************************* //
