/*--------------------------------*- C++ -*----------------------------------*\
| =========                 |                                                 |
| \\      /  F ield         | OpenFOAM: The Open Source CFD Toolbox           |
|  \\    /   O peration     | Version:  2506                                  |
|   \\  /    A nd           | Website:  www.openfoam.com                      |
|    \\/     M anipulation  |                                                 |
\*---------------------------------------------------------------------------*/
FoamFile
{
    version     2.0;
    format      ascii;
    arch        "LSB;label=32;scalar=64";
    class       volScalarField;
    location    "7.375";
    object      Lambda2Field;
}
// * * * * * * * * * * * * * * * * * * * * * * * * * * * * * * * * * * * * * //

dimensions      [0 0 -2 0 0 0 0];

internalField   nonuniform List<scalar> 
400
(
2.32363e-23
1.21946e-23
2.31784e-25
3.46161e-26
5.10915e-27
0
0
0
2.03271e-28
0
6.49892e-29
0
0
1.73068e-28
3.017e-28
3.93479e-28
0
5.6581e-29
0
3.94745e-29
9.44508e-24
1.57674e-23
9.57423e-25
5.50015e-27
7.34684e-28
0
3.14707e-29
0
0
-3.82266e-28
-2.13455e-29
5.17558e-30
2.02964e-28
0
0
7.24369e-29
0
1.3488e-29
1.14847e-28
2.34562e-28
6.87331e-23
2.34399e-23
6.45138e-25
3.7924e-26
0
0
0
0
-5.71929e-28
-3.81072e-28
0
-3.27564e-29
1.22312e-27
2.63026e-28
0
0
-1.41337e-27
0
1.10025e-27
0
4.953e-23
1.91147e-23
5.72363e-25
2.06667e-26
7.48721e-27
0
1.8639e-28
1.28054e-28
0
4.01749e-28
9.50374e-28
0
-3.53312e-28
0
4.88022e-28
-9.0318e-28
-1.15431e-27
-7.13963e-28
3.20136e-28
9.04066e-28
5.94131e-24
9.74877e-24
7.29129e-25
1.81348e-26
0
-2.13176e-28
-1.82555e-27
-3.11248e-27
-1.89708e-27
-2.50036e-28
4.32807e-28
7.46622e-28
-2.32511e-28
-3.80243e-29
-9.86172e-28
0
6.54586e-28
1.0508e-27
0
0
2.88558e-23
1.40746e-23
7.83004e-25
-1.75115e-26
1.0927e-26
-1.25815e-27
8.97345e-28
6.04235e-28
1.12934e-27
8.86887e-28
4.1509e-28
-9.56314e-28
-6.86883e-28
1.20523e-28
2.53117e-28
8.76262e-28
3.55118e-28
9.78658e-29
1.84614e-28
2.11597e-31
4.66289e-23
1.84162e-23
-2.11189e-25
6.93023e-26
-7.19364e-27
5.22604e-27
0
6.42554e-28
-3.09857e-28
-1.75784e-27
3.01406e-28
1.89045e-28
3.73612e-28
5.2247e-28
7.34684e-28
4.90325e-28
1.33734e-28
-6.93923e-29
6.10897e-31
-3.7717e-29
1.06908e-23
5.20214e-24
2.88066e-25
7.34684e-28
0
1.39302e-28
0
0
-3.64758e-28
1.2752e-29
5.22282e-28
0
0
-9.54898e-28
0
3.287e-28
0
1.80721e-28
9.39697e-29
2.06739e-28
6.07886e-24
4.89187e-24
2.10898e-25
2.59842e-26
-1.90037e-27
6.63898e-28
6.9314e-29
-3.55326e-28
0
-6.01181e-29
5.14863e-28
4.09503e-28
-1.74749e-28
-7.37234e-29
-8.64184e-29
2.14048e-29
4.72318e-29
3.63155e-29
0
0
2.39048e-23
8.92723e-24
2.99293e-25
-5.60167e-26
5.42451e-27
-4.06619e-27
-5.21e-28
-1.80257e-28
2.00613e-28
0
0
0
0
-6.22446e-28
0
0
0
0
0
1.92034e-29
0
3.68904e-24
-5.73953e-25
-1.32107e-26
-3.71795e-27
0
0
6.91219e-31
1.35833e-30
0
0
-4.69142e-28
6.54202e-28
8.15111e-28
0
-5.82918e-28
2.25025e-29
0
0
0
0
9.71213e-25
0
3.71491e-26
-2.28368e-27
7.42559e-28
2.87654e-28
4.70209e-28
-6.63827e-28
-4.8473e-28
9.90279e-28
-2.65086e-28
-8.64786e-28
2.47702e-28
7.79565e-28
1.60097e-28
1.87657e-28
7.80626e-29
0
3.61238e-28
3.32583e-26
7.34684e-26
0
1.83671e-26
0
0
0
0
-9.70463e-28
-2.66565e-27
-2.15736e-27
3.37683e-28
5.81116e-28
-1.09808e-28
-1.19589e-28
3.26103e-31
0
1.53691e-29
9.17608e-29
1.29905e-28
4.53618e-24
3.20116e-24
0
1.89421e-26
-6.65538e-27
1.2712e-27
6.08938e-28
9.16649e-28
5.55728e-28
2.33717e-28
2.89716e-28
9.42909e-28
0
-2.14696e-29
1.92906e-28
4.60029e-28
1.9475e-28
0
0
6.93571e-28
2.17348e-23
9.98631e-24
-3.83642e-25
8.0691e-26
-1.11427e-26
3.81457e-27
-2.70074e-29
2.58047e-28
-2.41382e-29
0
-1.42389e-27
9.50486e-29
0
0
0
-2.30025e-30
1.33918e-28
1.4799e-28
0
5.94754e-28
1.47292e-23
9.96244e-24
0
3.49353e-26
0
-4.12773e-27
-1.02548e-27
0
-1.19454e-29
2.90156e-28
8.5675e-28
-2.1771e-28
-4.09047e-28
4.45949e-28
3.67902e-29
2.26647e-28
2.6876e-28
0
-5.0582e-29
8.7178e-29
5.95161e-24
7.16627e-24
5.14714e-25
6.44783e-27
1.83385e-27
0
2.39695e-29
5.64042e-28
0
0
7.36542e-28
-1.27115e-27
-5.31207e-28
2.0084e-30
0
-3.54407e-28
0
-1.71817e-28
0
0
5.485e-23
1.7841e-23
3.51914e-25
6.52778e-26
-1.5971e-26
0
2.20793e-29
0
-6.12791e-28
-7.17492e-28
0
1.13634e-27
3.94469e-29
0
-1.11233e-27
-4.98919e-28
2.18509e-28
5.46521e-29
5.08669e-28
0
1.06338e-23
1.13108e-23
4.39837e-25
3.60639e-26
-2.8717e-27
0
0
2.22324e-28
0
-9.05294e-30
4.64744e-28
-3.73111e-28
-8.32812e-28
-9.92092e-28
2.45007e-29
3.63805e-28
5.91147e-28
0
0
2.40015e-30
1.1105e-23
4.42493e-24
3.63107e-25
0
7.22047e-27
2.81332e-28
1.48852e-28
9.56241e-28
2.0927e-28
0
2.25478e-28
0
3.39623e-28
0
-2.63808e-28
5.04506e-29
1.78255e-29
0
3.25132e-29
6.38724e-29
)
;

boundaryField
{
    movingWall
    {
        type            calculated;
        value           nonuniform List<scalar> 
20
(
0
0
5.80898e-25
-2.55165e-26
2.90733e-26
0
9.75515e-28
1.56258e-27
7.34684e-28
0
9.82892e-28
1.54098e-28
4.60531e-28
6.62503e-28
7.8046e-28
1.19624e-27
4.25768e-28
9.19458e-28
3.89487e-29
3.84802e-29
)
;
    }
    fixedWalls
    {
        type            calculated;
        value           nonuniform List<scalar> 
60
(
2.0558e-22
2.64534e-22
3.82649e-22
3.01103e-22
1.63994e-22
2.28937e-22
2.38652e-22
7.41424e-23
7.19287e-23
1.23347e-22
0
0
2.06636e-24
2.32282e-23
1.09617e-22
1.27454e-22
1.19666e-22
2.80708e-22
1.79948e-22
7.97143e-23
0
2.34562e-28
0
7.30437e-28
2.01168e-30
2.11597e-31
-3.53448e-28
2.11385e-28
2.55746e-29
1.92034e-29
2.61632e-30
5.54752e-28
1.29905e-28
1.43786e-27
1.00058e-27
8.7178e-29
5.43474e-28
0
2.40015e-30
0
0
0
0
0
1.67417e-26
0
3.51808e-27
4.92055e-28
6.16821e-29
0
3.9873e-28
1.07003e-27
1.77195e-27
1.54832e-27
0
-5.8344e-29
-1.66409e-29
1.92099e-28
1.25094e-28
3.88832e-28
)
;
    }
    frontAndBack
    {
        type            empty;
    }
}


// ************************************************************************* //
