/*--------------------------------*- C++ -*----------------------------------*\
| =========                 |                                                 |
| \\      /  F ield         | OpenFOAM: The Open Source CFD Toolbox           |
|  \\    /   O peration     | Version:  2506                                  |
|   \\  /    A nd           | Website:  www.openfoam.com                      |
|    \\/     M anipulation  |                                                 |
\*---------------------------------------------------------------------------*/
FoamFile
{
    version     2.0;
    format      ascii;
    arch        "LSB;label=32;scalar=64";
    class       volVectorField;
    location    "7.375";
    object      LambVectorField;
}
// * * * * * * * * * * * * * * * * * * * * * * * * * * * * * * * * * * * * * //

dimensions      [0 1 -2 0 0 0 0];

internalField   nonuniform List<vector> 
400
(
(-1.99507e-24 -1.17496e-11 0)
(-5.8798e-25 1.57237e-11 -0)
(-3.14293e-26 -3.5848e-12 0)
(-1.70504e-27 8.16322e-13 -0)
(-5.37584e-29 -1.61389e-13 0)
(-7.7589e-30 3.8083e-14 -0)
(9.45338e-31 -1.9805e-14 -0)
(2.10015e-32 -3.69336e-15 -0)
(-2.90081e-31 2.68628e-14 -0)
(-9.06501e-32 2.77709e-14 -0)
(-4.3878e-31 2.51349e-14 -0)
(-1.3202e-31 -8.03167e-15 0)
(-6.27039e-31 -9.97522e-15 0)
(-5.3219e-31 -4.58036e-15 0)
(-5.2859e-30 -4.86447e-14 0)
(-2.84226e-30 -4.69517e-14 0)
(9.13633e-32 2.5323e-15 0)
(-1.9039e-30 -5.40685e-14 0)
(-4.88199e-32 -1.40843e-15 0)
(4.13897e-31 8.39597e-15 0)
(2.98488e-27 7.21687e-13 0)
(-6.29773e-29 1.23287e-13 -0)
(1.86095e-29 9.66226e-14 0)
(-9.10074e-30 7.4723e-14 -0)
(1.51186e-31 -1.20668e-14 -0)
(1.67663e-34 -1.49045e-16 -0)
(-1.33104e-31 1.2058e-14 -0)
(-1.44116e-30 1.18415e-14 -0)
(4.97241e-30 -3.84109e-14 -0)
(3.9083e-31 -4.52002e-14 -0)
(-1.71233e-30 -3.32503e-14 0)
(1.68803e-31 3.19667e-15 0)
(-9.85672e-31 -5.04661e-14 0)
(3.73068e-32 2.42791e-15 0)
(-9.04005e-33 1.90409e-15 -0)
(8.9792e-32 -2.44326e-14 -0)
(2.68e-30 -8.51544e-14 -0)
(-1.25551e-30 -3.61637e-14 0)
(-3.07937e-30 -5.20916e-14 0)
(9.83025e-32 7.26462e-15 0)
(-7.71392e-25 5.3069e-12 -0)
(-3.96392e-25 -1.224e-11 0)
(-2.19112e-26 2.91884e-12 -0)
(-1.01348e-27 -6.45364e-13 0)
(-7.93029e-29 1.55169e-13 -0)
(-7.62104e-31 -4.07243e-14 0)
(-1.65075e-30 1.58984e-14 -0)
(9.23318e-30 -6.5824e-14 -0)
(-9.63889e-31 -7.83129e-14 0)
(-6.37634e-30 -6.32844e-14 0)
(6.34481e-31 6.15695e-15 0)
(1.21937e-30 3.11164e-14 0)
(6.11374e-30 9.7139e-14 0)
(2.64496e-30 1.74011e-14 0)
(1.89683e-29 1.18568e-13 0)
(5.43044e-30 1.07492e-13 0)
(-1.0071e-29 9.89401e-14 -0)
(-1.0893e-29 8.66385e-14 -0)
(-8.06468e-30 5.20229e-14 -0)
(2.68864e-30 -2.58879e-14 -0)
(-7.10044e-25 -5.48526e-12 0)
(-3.07274e-25 1.09848e-11 -0)
(-1.72899e-26 -2.5211e-12 0)
(-8.81702e-28 6.26943e-13 -0)
(-3.49923e-29 -1.1017e-13 0)
(-9.85884e-31 2.93378e-14 -0)
(-8.43865e-32 -3.4807e-15 0)
(5.3476e-33 4.44731e-15 0)
(-1.32952e-30 6.57234e-14 -0)
(-7.51168e-30 6.59322e-14 -0)
(-2.63182e-30 1.91475e-14 -0)
(1.69402e-30 -4.93095e-14 -0)
(-3.82163e-30 -4.51758e-14 0)
(-5.6893e-30 -3.8874e-14 0)
(-1.08827e-31 -5.37992e-16 0)
(1.10971e-29 7.3136e-14 0)
(1.14009e-30 8.75325e-14 0)
(-1.46886e-29 8.09329e-14 -0)
(-3.88782e-30 1.52941e-14 -0)
(2.94946e-31 -4.65348e-15 -0)
(-6.12315e-27 4.70617e-13 -0)
(-2.94889e-27 -9.34739e-13 0)
(-2.49916e-28 3.66472e-13 -0)
(8.66196e-31 2.85685e-15 0)
(1.03394e-29 1.00742e-13 0)
(1.55255e-29 1.42519e-13 0)
(4.87558e-30 1.4913e-13 0)
(-4.93157e-30 1.81911e-13 -0)
(-2.48088e-29 1.54944e-13 -0)
(-1.86917e-29 8.44632e-14 -0)
(-2.26113e-30 1.18016e-14 -0)
(-2.76065e-30 4.044e-14 -0)
(-1.9342e-30 3.58894e-14 -0)
(-8.5726e-30 5.49142e-14 -0)
(5.23758e-30 -8.59543e-14 -0)
(-7.83367e-30 -4.85559e-14 0)
(-6.60894e-31 -4.30343e-15 0)
(-1.59448e-32 2.39112e-16 -0)
(3.59173e-30 -2.99641e-14 -0)
(6.01721e-31 -1.57961e-14 -0)
(-6.99063e-25 6.07544e-12 -0)
(-2.57797e-25 -1.01868e-11 0)
(-1.32469e-26 2.2539e-12 -0)
(-9.65711e-28 -6.83575e-13 0)
(-5.53847e-30 4.40286e-14 -0)
(-1.60232e-29 -1.00586e-13 0)
(-4.70554e-30 -7.03187e-14 0)
(-2.13092e-30 -4.31932e-14 0)
(2.9163e-30 -6.74267e-14 -0)
(1.96372e-30 -2.19287e-14 -0)
(5.71093e-30 -6.01056e-14 -0)
(3.79436e-30 -1.24017e-13 -0)
(-4.40606e-30 -7.22874e-14 0)
(-9.32888e-30 -6.21191e-14 0)
(-7.11093e-30 -5.07771e-14 0)
(-8.64898e-30 -7.46588e-14 0)
(8.91837e-31 1.21374e-14 0)
(-6.53218e-32 1.18184e-14 -0)
(-1.95236e-31 4.36714e-15 -0)
(4.61994e-31 -9.39042e-15 -0)
(-1.56807e-24 -9.44466e-12 0)
(-5.21712e-25 1.45724e-11 -0)
(-3.00948e-26 -3.48001e-12 0)
(-1.34249e-27 7.39865e-13 -0)
(-1.23502e-28 -2.8319e-13 0)
(6.47828e-30 -9.69639e-14 -0)
(-7.17778e-30 -1.42143e-13 0)
(8.30233e-32 -1.30789e-13 -0)
(-3.5635e-31 -1.13677e-13 0)
(-7.99396e-30 -1.53917e-13 0)
(-1.65618e-29 -8.85417e-14 0)
(-2.50026e-30 -2.01305e-14 0)
(-8.99969e-30 -7.67206e-14 0)
(-3.48807e-30 -4.45722e-14 0)
(2.09162e-31 9.99532e-15 0)
(-1.21064e-31 5.57981e-15 -0)
(1.13331e-30 -3.24991e-14 -0)
(-1.03802e-30 -3.21928e-14 0)
(1.05212e-31 6.5737e-15 0)
(9.66405e-31 -2.88539e-14 -0)
(-2.0879e-25 3.15367e-12 -0)
(-8.51086e-26 -5.71889e-12 0)
(-4.46462e-27 1.34299e-12 -0)
(-2.79711e-28 -3.07391e-13 0)
(-3.17053e-29 1.26586e-13 -0)
(1.87289e-30 -2.20696e-14 -0)
(1.98865e-30 -6.6807e-14 -0)
(-2.83589e-30 -6.89901e-14 0)
(-4.78768e-30 -4.05623e-14 0)
(-1.49535e-30 -8.51191e-15 0)
(8.53579e-31 4.20168e-15 0)
(1.7423e-30 1.30352e-14 0)
(3.53908e-30 4.86141e-14 0)
(-6.26492e-30 7.69371e-14 -0)
(-8.747e-30 5.66258e-14 -0)
(-5.08361e-30 4.81467e-14 -0)
(1.62223e-31 -1.7288e-15 -0)
(3.64794e-31 -4.1314e-15 -0)
(3.68804e-31 -7.02194e-15 -0)
(-3.62385e-31 2.0045e-14 -0)
(-2.88418e-25 4.31145e-12 -0)
(-8.94938e-26 -6.03192e-12 0)
(-4.89352e-27 1.47217e-12 -0)
(-2.21112e-28 -2.38234e-13 0)
(-2.17199e-29 1.69006e-13 -0)
(4.81621e-31 9.40392e-15 0)
(3.97703e-30 8.20067e-14 0)
(3.80386e-30 8.58659e-14 0)
(2.51436e-31 8.41225e-14 0)
(1.39167e-30 8.57625e-14 0)
(-3.11066e-30 7.49835e-14 -0)
(1.76714e-30 2.22159e-14 0)
(5.25799e-31 7.09862e-14 0)
(-6.09778e-30 6.91226e-14 -0)
(-8.12749e-30 5.73498e-14 -0)
(6.47408e-31 -5.41247e-15 -0)
(-2.22158e-30 2.53625e-14 -0)
(-2.70177e-30 2.6439e-14 -0)
(8.73335e-31 -1.07909e-14 -0)
(-4.30203e-32 -7.52132e-15 0)
(-1.61066e-24 -1.02881e-11 0)
(-4.8681e-25 1.42512e-11 -0)
(-2.55062e-26 -3.15662e-12 0)
(-1.49868e-27 8.42062e-13 -0)
(-7.37261e-29 -1.55954e-13 0)
(7.49479e-30 1.47467e-13 0)
(9.31631e-30 1.13229e-13 0)
(3.20231e-31 1.16859e-13 0)
(-1.14507e-31 5.42807e-14 -0)
(1.11712e-31 5.48979e-14 0)
(-5.18514e-31 5.76903e-14 -0)
(-3.21742e-30 9.8192e-14 -0)
(-1.1986e-29 6.74292e-14 -0)
(1.08364e-29 -6.56922e-14 -0)
(2.37069e-30 -3.76687e-14 -0)
(-1.82436e-31 3.07543e-15 -0)
(2.66836e-30 -2.84809e-14 -0)
(1.72061e-30 -3.77639e-14 -0)
(-1.0068e-31 -7.80552e-15 0)
(1.47489e-31 4.53913e-15 0)
(-1.98077e-24 1.25595e-11 -0)
(-5.05045e-25 -1.47309e-11 0)
(-2.76803e-26 3.47607e-12 -0)
(-1.33552e-27 -7.89054e-13 0)
(-6.12694e-29 1.78308e-13 -0)
(-6.97659e-30 -3.86451e-14 0)
(1.62538e-30 3.79447e-14 0)
(-7.43946e-31 -1.03135e-14 0)
(-7.43857e-31 -5.09594e-15 0)
(1.06682e-30 8.66684e-15 0)
(1.28973e-30 2.17485e-14 0)
(-7.21314e-30 7.64168e-14 -0)
(-4.30946e-30 2.64766e-14 -0)
(-1.44963e-30 1.64528e-14 -0)
(-1.79863e-30 3.19799e-14 -0)
(-8.90073e-30 6.50369e-14 -0)
(1.01686e-30 -6.18112e-15 -0)
(1.61655e-30 -2.15409e-14 -0)
(-6.34128e-31 -1.24587e-14 0)
(4.97595e-31 1.0044e-14 0)
(-6.36756e-25 -7.42006e-12 0)
(-1.49849e-25 8.02951e-12 -0)
(-8.71409e-27 -1.96426e-12 0)
(-3.5653e-28 3.88757e-13 -0)
(-4.01237e-29 -1.44487e-13 0)
(1.04958e-32 -7.32136e-16 -0)
(-1.14812e-30 -8.21914e-14 0)
(2.8669e-31 -5.14368e-14 -0)
(1.57662e-30 -1.14545e-13 -0)
(-6.31914e-30 -1.13508e-13 0)
(-3.78433e-30 -1.01957e-13 0)
(7.62157e-31 -8.507e-14 -0)
(-1.06674e-29 -1.42868e-13 0)
(-1.15835e-30 -1.79665e-14 0)
(6.65961e-31 -3.98297e-14 -0)
(4.06628e-30 -5.12568e-14 -0)
(4.75543e-31 -1.02814e-14 -0)
(-2.83811e-31 -1.20862e-14 0)
(-4.23247e-30 -5.67287e-14 0)
(-7.19182e-31 -1.47774e-14 0)
(-2.18869e-26 -1.49012e-12 0)
(-3.84402e-27 1.38852e-12 -0)
(-3.16049e-28 -3.93656e-13 0)
(5.33408e-30 6.35567e-14 0)
(-7.35296e-31 -4.39538e-15 0)
(-4.29735e-30 -3.36045e-14 0)
(-2.85944e-30 -1.23102e-14 0)
(9.07877e-30 3.6173e-14 0)
(1.44839e-29 1.02285e-13 0)
(5.51852e-30 1.33667e-13 0)
(-1.4227e-29 1.28332e-13 -0)
(-7.57279e-30 4.7981e-14 -0)
(-2.11231e-30 4.34904e-14 -0)
(-1.66644e-30 3.29127e-14 -0)
(-3.38084e-30 3.17016e-14 -0)
(7.64312e-31 -7.91234e-15 -0)
(3.02487e-31 -1.09905e-14 -0)
(-1.30476e-32 -9.8046e-16 0)
(-9.88518e-31 5.5792e-14 -0)
(5.08015e-33 -2.02292e-15 -0)
(-6.55446e-25 6.86168e-12 -0)
(-1.82836e-25 -8.73031e-12 0)
(-9.45589e-27 2.01363e-12 -0)
(-5.76865e-28 -4.27791e-13 0)
(-2.71317e-29 1.84606e-13 -0)
(3.23687e-30 7.27224e-14 0)
(-3.66374e-30 6.00192e-14 -0)
(-6.90626e-31 5.08534e-14 -0)
(-2.2764e-30 8.285e-14 -0)
(-5.62478e-31 1.94434e-14 -0)
(8.06707e-31 1.64164e-14 0)
(2.42138e-30 3.10602e-14 0)
(5.98877e-31 6.24584e-14 0)
(-1.447e-31 3.19721e-14 -0)
(-1.32935e-30 3.40146e-14 -0)
(-4.11218e-30 5.58562e-14 -0)
(3.21588e-31 -5.78997e-15 -0)
(-4.30972e-31 2.74134e-14 -0)
(-1.87976e-30 3.20637e-14 -0)
(-2.73096e-30 4.18167e-14 -0)
(-1.44907e-24 -9.76342e-12 0)
(-4.36338e-25 1.33747e-11 -0)
(-2.46421e-26 -3.23193e-12 0)
(-1.02425e-27 6.16975e-13 -0)
(-8.75347e-29 -2.36188e-13 0)
(4.1309e-30 -3.70871e-14 -0)
(3.94458e-30 -5.50415e-14 -0)
(5.09679e-30 -4.945e-14 -0)
(1.08112e-29 -9.0647e-14 -0)
(1.04758e-30 -1.07434e-13 -0)
(-1.4038e-29 -9.89128e-14 0)
(-4.01222e-30 -2.41372e-14 0)
(1.25447e-30 1.11762e-14 0)
(1.30201e-31 2.39061e-15 0)
(-5.52471e-30 -6.25403e-14 0)
(-7.79469e-30 -5.65793e-14 0)
(1.4934e-30 1.33304e-14 0)
(-9.65847e-32 -2.16452e-14 0)
(-4.89769e-30 -8.52787e-14 0)
(-1.94283e-30 -4.40572e-14 0)
(-7.68851e-25 7.05685e-12 -0)
(-2.28256e-25 -9.72353e-12 0)
(-1.37679e-26 2.39335e-12 -0)
(-4.19757e-28 -4.6826e-13 0)
(-5.27656e-29 9.9961e-14 -0)
(1.36468e-29 -1.32247e-13 -0)
(1.76414e-30 -9.51493e-14 -0)
(-3.01129e-30 -8.56699e-14 0)
(-2.03769e-30 -8.14851e-14 0)
(-2.98743e-30 -8.10712e-14 0)
(-1.22991e-30 -5.44993e-14 0)
(-2.62063e-30 -6.59423e-14 0)
(-8.66127e-30 -6.19151e-14 0)
(-2.09779e-30 -1.79618e-14 0)
(3.78465e-31 7.81032e-15 0)
(-4.53573e-32 -1.17237e-15 0)
(1.87557e-31 3.11657e-15 0)
(2.49898e-31 3.32187e-14 0)
(-7.82706e-32 8.19378e-14 -0)
(4.42775e-35 3.41461e-17 0)
(1.4235e-26 -9.02047e-13 -0)
(-3.23832e-27 -9.55759e-13 0)
(-2.23864e-28 2.79087e-13 -0)
(-5.81264e-31 -1.05213e-14 0)
(-1.1548e-29 7.45917e-14 -0)
(-1.23272e-29 8.29725e-14 -0)
(-1.3886e-29 8.10204e-14 -0)
(-1.08829e-29 7.4734e-14 -0)
(-6.02469e-30 5.70643e-14 -0)
(-5.55444e-30 3.18919e-14 -0)
(-6.23348e-30 4.06233e-14 -0)
(2.98097e-30 -7.7839e-14 -0)
(-6.42547e-30 -7.75617e-14 0)
(-6.5828e-30 -3.372e-14 0)
(7.13755e-30 4.79052e-14 0)
(-9.49718e-31 7.43003e-14 -0)
(5.19903e-31 -1.00157e-14 -0)
(-8.079e-30 -9.24632e-14 0)
(8.14023e-31 1.36647e-14 0)
(-1.38625e-30 2.81351e-14 -0)
(-4.96763e-25 -4.01413e-12 0)
(-2.75875e-25 1.02316e-11 -0)
(-1.50976e-26 -2.41235e-12 0)
(-7.22595e-28 4.86885e-13 -0)
(-7.82965e-29 -2.56382e-13 0)
(-1.39814e-31 3.10805e-14 -0)
(-7.6392e-33 1.41065e-15 -0)
(5.16471e-31 -2.77599e-14 -0)
(7.44413e-32 6.57128e-14 0)
(-1.27822e-29 9.56526e-14 -0)
(2.0214e-30 -1.42111e-14 -0)
(3.37379e-31 3.97892e-14 0)
(5.18344e-33 2.63381e-15 0)
(1.05519e-30 -5.90846e-14 -0)
(-6.18106e-30 -1.21883e-13 0)
(-7.41005e-30 -6.34591e-14 0)
(-7.43753e-30 -5.19368e-14 0)
(1.15714e-30 1.23053e-14 0)
(-2.97941e-31 -1.47857e-14 0)
(2.62618e-32 -9.00687e-16 -0)
(-2.0731e-25 3.51037e-12 -0)
(-6.33214e-26 -5.1491e-12 0)
(-4.06418e-27 1.2588e-12 -0)
(-1.13749e-28 -2.17632e-13 0)
(-3.97395e-29 1.6618e-13 -0)
(6.30307e-31 -1.14735e-14 -0)
(-4.44899e-30 3.57636e-14 -0)
(7.30835e-31 -5.16413e-15 -0)
(5.24736e-30 -7.21202e-14 -0)
(-1.5807e-30 -4.2063e-14 0)
(-8.63685e-31 -1.12428e-14 0)
(-9.16441e-30 -6.1093e-14 0)
(1.01694e-29 6.98208e-14 0)
(-4.42313e-31 7.25121e-14 -0)
(-9.79128e-31 2.62011e-14 -0)
(-2.44167e-32 -8.30689e-15 0)
(2.42934e-30 5.31592e-14 0)
(8.88154e-31 6.60423e-14 0)
(-5.54459e-31 7.6348e-15 -0)
(8.52431e-31 -1.35522e-14 -0)
(-2.9001e-25 3.97143e-12 -0)
(-1.01275e-25 -6.56755e-12 0)
(-4.99775e-27 1.30662e-12 -0)
(-2.77998e-28 -3.81908e-13 0)
(-8.26868e-30 2.98611e-14 -0)
(1.14719e-30 -1.01707e-14 -0)
(3.78661e-30 -2.16134e-14 -0)
(1.73235e-30 -1.03294e-14 -0)
(1.67658e-30 -2.33172e-14 -0)
(-9.50778e-31 -1.45241e-14 0)
(4.09898e-31 5.58916e-15 0)
(5.52025e-31 5.76801e-14 0)
(9.64301e-32 2.49571e-15 0)
(-1.1477e-31 7.45912e-15 -0)
(-2.15962e-30 6.00682e-14 -0)
(-3.84387e-31 5.19667e-15 -0)
(6.11582e-31 -6.95616e-15 -0)
(4.56151e-32 -1.03522e-14 -0)
(1.44456e-32 9.25871e-16 0)
(3.67744e-31 -2.69113e-14 -0)
)
;

boundaryField
{
    movingWall
    {
        type            calculated;
        value           nonuniform List<vector> 
20
(
(0 1.10006e-11 -0)
(0 -8.65186e-12 -0)
(0 1.15839e-12 -0)
(0 -6.65666e-13 -0)
(0 -2.26791e-13 -0)
(0 -1.87806e-13 -0)
(0 -1.72144e-13 -0)
(0 -1.43556e-13 -0)
(0 -2.33172e-14 -0)
(0 -1.45241e-14 -0)
(0 -3.88198e-14 -0)
(0 -4.09389e-14 -0)
(0 -8.63221e-14 -0)
(0 -8.13587e-14 -0)
(0 -1.27369e-13 -0)
(0 -8.36212e-14 -0)
(0 -5.13651e-14 -0)
(0 7.84657e-14 -0)
(0 9.25871e-16 -0)
(0 -4.42152e-14 -0)
)
;
    }
    fixedWalls
    {
        type            calculated;
        value           nonuniform List<vector> 
60
(
(0 -6.64287e-11 -0)
(0 -5.70186e-13 -0)
(0 5.21523e-11 -0)
(0 -4.71163e-11 -0)
(0 4.68936e-12 -0)
(0 4.31253e-11 -0)
(0 -6.28328e-11 -0)
(0 2.45035e-11 -0)
(0 2.58639e-11 -0)
(0 -6.06707e-11 -0)
(0 6.33013e-11 -0)
(0 -3.5031e-11 -0)
(0 -6.17337e-12 -0)
(0 3.76128e-11 -0)
(0 -5.75515e-11 -0)
(0 4.20896e-11 -0)
(0 4.17099e-12 -0)
(0 -4.38365e-11 -0)
(0 2.24571e-11 -0)
(0 2.74207e-11 -0)
(0 1.97188e-14 -0)
(0 5.41267e-15 -0)
(0 -4.15428e-14 -0)
(0 1.75231e-15 -0)
(0 -1.52372e-14 -0)
(0 -1.96794e-14 -0)
(0 -4.05023e-14 -0)
(0 1.98736e-14 -0)
(0 2.28792e-15 -0)
(0 1.29971e-14 -0)
(0 1.98166e-14 -0)
(0 -7.63793e-15 -0)
(0 -1.00452e-15 -0)
(0 2.80869e-14 -0)
(0 -3.65709e-14 -0)
(0 5.18682e-16 -0)
(0 7.39656e-15 -0)
(0 -1.1663e-14 -0)
(0 -2.51599e-14 -0)
(0 -3.25711e-14 -0)
(0 -2.34545e-11 -0)
(0 1.89009e-11 -0)
(0 -3.97468e-12 -0)
(0 1.02106e-12 -0)
(0 -9.96767e-14 -0)
(0 1.26901e-13 -0)
(0 1.57831e-13 -0)
(0 1.29533e-13 -0)
(0 1.77393e-13 -0)
(0 1.33893e-13 -0)
(0 1.75666e-13 -0)
(0 1.25195e-13 -0)
(0 1.6766e-13 -0)
(0 1.73055e-13 -0)
(0 1.38792e-13 -0)
(0 9.60763e-14 -0)
(0 9.13501e-14 -0)
(0 4.45506e-14 -0)
(0 8.74094e-14 -0)
(0 8.39597e-15 -0)
)
;
    }
    frontAndBack
    {
        type            empty;
    }
}


// ************************************************************************* //
