/*--------------------------------*- C++ -*----------------------------------*\
| =========                 |                                                 |
| \\      /  F ield         | OpenFOAM: The Open Source CFD Toolbox           |
|  \\    /   O peration     | Version:  2506                                  |
|   \\  /    A nd           | Website:  www.openfoam.com                      |
|    \\/     M anipulation  |                                                 |
\*---------------------------------------------------------------------------*/
FoamFile
{
    version     2.0;
    format      ascii;
    arch        "LSB;label=32;scalar=64";
    class       volScalarField;
    location    "7.375";
    object      QField;
}
// * * * * * * * * * * * * * * * * * * * * * * * * * * * * * * * * * * * * * //

dimensions      [0 0 -2 0 0 0 0];

internalField   nonuniform List<scalar> 
400
(
-5.22686e-23
-1.54603e-23
-3.91471e-25
-4.68272e-26
-5.10915e-27
0
0
0
-3.86718e-28
5.03322e-29
3.88672e-29
0
0
-3.56582e-28
-3.017e-28
-3.93479e-28
0
-1.97225e-28
0
-1.70298e-28
-9.52125e-23
-2.77211e-23
-1.59328e-24
-2.86419e-26
-2.28813e-27
0
1.52056e-28
0
3.69076e-28
4.90469e-28
1.66568e-28
-6.16637e-29
-2.03388e-28
0
0
-7.24369e-29
-4.35195e-28
-1.90699e-28
-1.14847e-28
-8.3025e-28
-8.0579e-23
-2.53171e-23
-7.54077e-25
-3.7924e-26
0
0
0
9.62733e-28
1.01056e-27
4.91919e-28
0
1.08727e-28
-1.22312e-27
-2.63026e-28
-2.20704e-29
1.28609e-27
1.43317e-27
4.32866e-28
-1.81707e-27
0
-6.70373e-23
-2.10837e-23
-6.74519e-25
-2.45975e-26
-8.71121e-27
0
-7.40101e-28
-6.13447e-28
-3.1057e-28
-1.11042e-27
-1.01433e-27
1.93504e-29
4.89808e-28
3.18998e-28
-1.19757e-27
1.02598e-27
1.80641e-27
1.2886e-27
-3.20136e-28
-1.03907e-27
-5.75036e-23
-1.66864e-23
-1.08144e-24
-3.69445e-26
1.57966e-27
1.47073e-27
1.84376e-27
3.13565e-27
2.56936e-27
2.5598e-28
-5.29819e-28
-7.56671e-28
2.38101e-28
3.81706e-29
1.55215e-27
6.78694e-28
-7.819e-28
-1.21812e-27
7.74939e-29
0
-5.61192e-23
-1.75994e-23
-9.56043e-25
4.51382e-26
-1.10962e-26
1.56702e-27
-9.42432e-28
-6.68986e-28
-1.12934e-27
-1.62152e-27
-7.06725e-28
2.21268e-27
9.79971e-28
-8.41749e-28
-6.29873e-28
-1.53347e-27
-5.10783e-28
-2.68143e-28
3.68284e-28
-1.24682e-29
-4.56659e-23
-1.80602e-23
2.62526e-25
-6.40488e-26
1.75969e-26
-5.22604e-27
1.10667e-28
-6.64182e-28
5.69983e-28
1.77362e-27
-1.83692e-27
-1.89045e-28
-3.73612e-28
-5.2247e-28
-7.98277e-28
-1.20039e-27
-3.073e-28
1.37903e-28
2.11853e-29
4.74015e-29
-2.72013e-23
-1.00302e-23
-6.27392e-25
7.43393e-27
4.22687e-27
3.1991e-28
6.88299e-28
5.57633e-28
3.64758e-28
1.93584e-28
-2.47778e-27
0
2.85125e-28
1.23203e-27
1.30955e-28
-3.287e-28
0
-7.28761e-28
-2.62751e-28
-2.97649e-28
-3.12235e-23
-1.03092e-23
-5.36058e-25
-2.59842e-26
7.13063e-27
-1.21535e-27
6.63631e-28
3.70045e-28
-9.73707e-29
3.61637e-28
-5.14863e-28
-1.03473e-27
2.303e-28
5.82004e-28
1.70205e-28
-1.25402e-28
-4.68358e-29
-2.49722e-28
0
0
-2.51172e-23
-9.3809e-24
-3.51313e-25
6.39323e-26
-4.3788e-27
4.23341e-27
5.2132e-28
8.39498e-28
-3.83728e-28
3.72877e-29
-3.57706e-28
4.29434e-28
2.55356e-28
6.22446e-28
5.46475e-29
0
3.72917e-29
3.6248e-28
0
-1.18779e-28
1.71767e-24
-3.94706e-24
6.67225e-25
2.06527e-26
4.09837e-27
0
1.08654e-28
-2.2535e-29
3.15902e-29
0
0
1.26836e-27
-1.38542e-27
-1.53247e-27
2.574e-28
5.86922e-28
-1.28578e-28
0
0
0
1.54801e-23
2.22448e-25
2.8917e-25
1.92495e-26
6.27871e-27
-5.72132e-28
-4.42249e-28
-1.11988e-27
6.64018e-28
5.51654e-28
-1.62318e-27
3.05329e-28
9.95191e-28
-2.47702e-28
-7.79565e-28
-1.60097e-28
-3.71307e-28
-2.39481e-28
-4.94538e-29
-1.93053e-28
1.16603e-23
1.0735e-24
-1.17593e-25
3.07043e-26
0
1.6667e-29
0
2.24085e-28
1.74231e-27
2.73723e-27
2.15881e-27
-3.37683e-28
-5.81116e-28
1.57416e-28
1.24589e-28
1.54784e-29
0
1.06261e-28
-2.75379e-28
-6.17864e-28
-4.60031e-25
-3.1195e-24
3.22594e-26
1.85167e-27
7.0688e-27
-5.01975e-29
-1.3328e-27
-1.14162e-27
-5.82286e-28
-3.46004e-28
-2.89716e-28
-1.6495e-27
1.12554e-29
1.31921e-28
-8.69729e-28
-5.46011e-28
-3.78259e-28
-3.95931e-29
-6.92879e-29
-7.98181e-28
-1.99004e-23
-9.69574e-24
4.39689e-25
-8.59993e-26
1.15611e-26
-3.99675e-27
4.50716e-29
-2.58047e-28
6.16567e-28
1.76728e-27
1.43096e-27
-1.84029e-28
0
0
6.88857e-28
1.28434e-28
-6.27335e-28
-1.4799e-28
6.34932e-28
-9.11457e-28
-3.58859e-23
-1.31819e-23
-1.5082e-25
-4.22716e-26
0
4.14155e-27
1.12492e-27
2.38769e-28
1.38195e-29
-9.11125e-28
-1.58552e-27
6.36004e-28
4.17691e-28
-1.01087e-27
-4.93217e-28
-4.08061e-28
-8.88714e-28
-2.83763e-28
5.06277e-29
-5.06155e-28
-4.49137e-23
-1.35261e-23
-8.64521e-25
-1.6414e-26
-3.41218e-27
-6.67759e-28
-2.39695e-29
-6.80849e-28
2.19439e-28
1.29748e-28
-7.36542e-28
1.28093e-27
8.92055e-28
-9.15615e-28
5.69904e-28
8.77454e-28
0
1.141e-27
0
1.93011e-28
-5.42451e-23
-1.7762e-23
-3.65032e-25
-6.32762e-26
1.60421e-26
0
1.27363e-28
6.63347e-30
6.23562e-28
1.16585e-27
0
-1.29216e-27
-1.70238e-28
2.64247e-28
1.45964e-27
5.01391e-28
-6.52369e-28
2.0038e-28
-1.40885e-27
0
-5.02527e-23
-1.5058e-23
-6.42191e-25
-4.82919e-26
6.26237e-27
0
2.3469e-28
-4.0415e-28
5.74979e-28
4.05436e-28
-1.75299e-27
3.73123e-28
8.46259e-28
9.92153e-28
-2.45007e-29
-5.16993e-28
-1.30989e-27
3.74596e-28
0
-4.19923e-29
-2.21191e-23
-6.34509e-24
-4.87488e-25
9.61696e-27
-7.35496e-27
-4.54632e-28
-1.48852e-28
-1.67635e-27
-3.92106e-28
0
-4.07008e-28
1.88108e-28
-4.99515e-28
0
3.1757e-28
-1.92523e-28
-1.14438e-28
0
1.54554e-28
-2.1278e-28
)
;

boundaryField
{
    movingWall
    {
        type            calculated;
        value           nonuniform List<scalar> 
20
(
4.05871e-24
3.2911e-24
-9.95847e-25
1.10295e-25
-3.2139e-26
5.83775e-28
-9.75515e-28
-2.26048e-27
-7.79575e-28
0
-1.04334e-27
-1.54098e-28
-6.40581e-28
-6.62503e-28
-7.8046e-28
-1.26352e-27
-6.4431e-28
-9.19458e-28
-1.6916e-28
-1.5676e-28
)
;
    }
    fixedWalls
    {
        type            calculated;
        value           nonuniform List<scalar> 
60
(
-2.78911e-22
-5.12637e-22
-4.21743e-22
-3.4366e-22
-3.13231e-22
-3.08404e-22
-2.32618e-22
-1.6101e-22
-1.78259e-22
-1.31891e-22
7.71043e-24
5.86431e-23
3.71851e-23
-1.38762e-23
-1.02208e-22
-1.94765e-22
-2.53269e-22
-2.78118e-22
-2.70468e-22
-1.21468e-22
0
-1.36028e-27
0
-9.79238e-28
-6.29868e-29
-2.0428e-29
3.63133e-28
-3.70148e-28
-2.24582e-28
-1.94608e-28
-7.18316e-29
-2.96496e-28
-1.01231e-27
-1.62313e-27
-1.84357e-27
-8.29285e-28
-2.63713e-28
0
-6.88001e-29
-1.91859e-28
8.21193e-24
8.15834e-24
-7.13446e-25
5.92406e-26
-1.67417e-26
3.38245e-27
-3.51808e-27
-4.92055e-28
-1.60103e-28
1.24099e-28
-5.3924e-28
-1.07003e-27
-1.77195e-27
-2.07336e-27
7.41457e-28
6.44677e-28
2.24914e-28
-3.75487e-28
-1.25094e-28
-5.3448e-28
)
;
    }
    frontAndBack
    {
        type            empty;
    }
}


// ************************************************************************* //
