/*--------------------------------*- C++ -*----------------------------------*\
| =========                 |                                                 |
| \\      /  F ield         | OpenFOAM: The Open Source CFD Toolbox           |
|  \\    /   O peration     | Version:  2506                                  |
|   \\  /    A nd           | Website:  www.openfoam.com                      |
|    \\/     M anipulation  |                                                 |
\*---------------------------------------------------------------------------*/
FoamFile
{
    version     2.0;
    format      ascii;
    arch        "LSB;label=32;scalar=64";
    class       volScalarField;
    location    "7.375";
    object      Uy;
}
// * * * * * * * * * * * * * * * * * * * * * * * * * * * * * * * * * * * * * //

dimensions      [0 1 -1 0 0 0 0];

internalField   nonuniform List<scalar> 
400
(
1.69799e-13
-3.73946e-14
8.76737e-15
-2.08868e-15
3.33098e-16
-2.03737e-16
-4.77322e-17
-5.68628e-18
-1.07986e-17
-3.26421e-18
-1.7457e-17
1.64374e-17
6.28597e-17
1.1619e-16
1.08663e-16
6.05358e-17
3.60791e-17
3.52127e-17
3.46626e-17
4.92971e-17
4.13597e-15
-5.1082e-16
1.92599e-16
-1.21793e-16
-1.25291e-17
-1.12492e-18
-1.10386e-17
-1.21705e-16
-1.29453e-16
-8.64664e-18
5.14981e-17
5.2806e-17
1.95314e-17
1.53658e-17
-4.7477e-18
-3.67509e-18
-3.14722e-17
3.47173e-17
5.91145e-17
1.35317e-17
-1.45356e-13
3.23851e-14
-7.50681e-15
1.5704e-15
-5.11074e-16
1.87137e-17
-1.03831e-16
-1.40271e-16
1.23082e-17
1.00757e-16
1.03051e-16
3.91873e-17
6.29381e-17
1.52e-16
1.59978e-16
5.05196e-17
-1.01789e-16
-1.25729e-16
-1.55022e-16
-1.03857e-16
1.29446e-13
-2.79726e-14
6.8581e-15
-1.40635e-15
3.17622e-16
-3.36046e-17
2.42441e-17
1.20244e-18
-2.0229e-17
-1.1393e-16
-1.37449e-16
-3.43549e-17
8.45947e-17
1.46352e-16
2.02284e-16
1.51732e-16
1.30248e-17
-1.81491e-16
-2.54203e-16
-6.33819e-17
-1.30109e-14
3.15477e-15
-6.8195e-16
3.032e-16
1.02633e-16
1.08936e-16
3.26935e-17
-2.71098e-17
-1.60115e-16
-2.213e-16
-1.91595e-16
-6.82653e-17
-5.38932e-17
-1.56109e-16
-6.09345e-17
1.61333e-16
1.53574e-16
-6.66832e-17
-1.19868e-16
-3.80931e-17
-1.15064e-13
2.5307e-14
-5.87734e-15
1.41274e-15
-1.25792e-16
1.59299e-16
6.69173e-17
4.93345e-17
-4.32514e-17
-8.95502e-17
-9.5015e-17
-3.05955e-17
6.0952e-17
1.50177e-16
1.40042e-16
1.15847e-16
7.34785e-17
-5.52711e-18
-4.47057e-17
-4.91985e-17
1.66027e-13
-3.58014e-14
8.64791e-15
-1.81451e-15
4.3611e-16
-6.68112e-17
5.04969e-17
-6.34788e-19
3.13475e-18
5.19369e-17
1.8705e-16
1.24203e-16
1.17305e-16
7.82565e-17
2.0926e-17
-2.16968e-17
-3.4872e-17
3.22439e-17
1.6005e-17
-3.34931e-17
-6.62054e-14
1.4882e-14
-3.32437e-15
9.09951e-16
-2.50463e-16
-8.48629e-17
-2.9767e-17
4.11057e-17
1.18033e-16
1.75678e-16
2.03152e-16
1.33661e-16
7.27996e-17
-8.14291e-17
-1.5447e-16
-1.05586e-16
-9.38357e-17
-8.8298e-17
-5.25217e-17
-1.80785e-17
-6.68958e-14
1.48367e-14
-3.32401e-15
9.28128e-16
-1.28515e-16
5.12149e-17
4.84964e-17
4.43e-17
2.98893e-18
1.6227e-17
-4.14845e-17
7.95439e-17
7.40706e-18
-8.82169e-17
-1.41718e-16
-1.19614e-16
-8.75931e-17
-1.02189e-16
-8.0933e-17
5.71979e-18
1.56556e-13
-3.41591e-14
8.08021e-15
-1.77977e-15
4.72742e-16
5.08236e-17
8.22788e-17
2.74031e-18
-2.10953e-18
2.0349e-18
-8.9879e-18
-3.27666e-17
-1.77756e-16
-1.64957e-16
-6.29353e-17
-5.93207e-17
-9.36896e-17
-4.55624e-17
1.28985e-17
3.24928e-17
-1.57711e-13
3.42848e-14
-7.9631e-15
1.69256e-15
-3.43615e-16
1.8053e-16
4.28356e-17
7.21333e-17
1.4597e-16
1.23093e-16
5.93021e-17
-9.43921e-17
-1.62765e-16
-8.8108e-17
-5.62426e-17
-1.36857e-16
-1.64511e-16
-7.50454e-17
5.08984e-17
4.95415e-17
8.58156e-14
-1.86624e-14
4.43632e-15
-9.17102e-16
2.77698e-16
-1.43359e-17
1.39688e-17
-5.57364e-18
-1.37642e-17
5.56712e-17
3.71168e-17
-8.95917e-18
7.46657e-17
6.44729e-17
-1.67202e-17
-7.93315e-17
-4.62529e-17
2.34822e-17
7.46091e-17
4.86678e-17
1.4688e-14
-2.76843e-15
8.02856e-16
8.39263e-17
1.67288e-16
1.2788e-16
2.32283e-16
2.50982e-16
1.41603e-16
4.12857e-17
-1.10861e-16
-1.57829e-16
-4.85696e-17
-5.06321e-17
-1.06646e-16
-9.65975e-17
-2.75225e-17
1.33077e-17
-1.77179e-17
-2.51129e-18
-9.55227e-14
2.09427e-14
-4.69593e-15
1.34847e-15
-1.46971e-16
4.45099e-17
-6.10428e-17
-1.35807e-17
-2.74761e-17
-2.8929e-17
4.91403e-17
7.79574e-17
9.58841e-18
-4.52584e-18
-3.90817e-17
-7.36209e-17
-5.55422e-17
-1.57212e-17
-5.86259e-17
-6.53079e-17
1.48419e-13
-3.26242e-14
7.62457e-15
-1.66011e-15
3.70615e-16
-1.11384e-16
-7.16656e-17
-1.0307e-16
-1.19267e-16
-9.75088e-18
1.41923e-16
1.66226e-16
1.12244e-16
5.44636e-17
8.83384e-17
1.37766e-16
1.1203e-16
4.46218e-18
5.74316e-17
4.40979e-17
-1.08951e-13
2.34746e-14
-5.75256e-15
8.96419e-16
-5.27862e-16
-1.03191e-16
-1.85408e-17
3.51499e-17
2.50069e-17
3.68494e-17
2.25674e-17
3.97413e-17
1.39889e-16
1.16792e-16
4.8457e-17
3.86885e-17
6.01808e-17
7.52282e-18
-9.55245e-19
1.29671e-18
-1.57807e-14
3.38821e-15
-8.0213e-16
5.52462e-17
-1.54815e-16
-1.4857e-16
-1.71389e-16
-1.45622e-16
-1.05577e-16
-1.74165e-16
-1.53446e-16
-3.82966e-17
8.28434e-17
1.95219e-16
1.48993e-16
-1.27821e-17
-5.19086e-17
8.73753e-17
5.95714e-17
-4.92712e-17
1.23754e-13
-2.69629e-14
6.25844e-15
-1.48412e-15
3.0539e-16
-4.49845e-18
-5.41538e-18
-1.8605e-17
1.13283e-18
-1.33632e-16
-1.42241e-16
8.47915e-18
1.96803e-18
-1.7859e-17
5.07131e-17
1.16769e-16
1.43203e-16
9.40358e-17
2.01506e-17
-2.91575e-17
-5.90564e-14
1.22976e-14
-3.2286e-15
5.22666e-16
-2.39135e-16
-5.4936e-17
-1.244e-16
-1.41521e-16
-7.27585e-17
3.75794e-17
7.68211e-17
1.50007e-16
1.4565e-16
-6.09985e-18
-3.73697e-17
2.93933e-18
4.56992e-17
1.34483e-17
-7.26226e-17
-6.28997e-17
-7.30241e-14
1.54205e-14
-3.82494e-15
7.27919e-16
-2.76905e-16
-1.12794e-16
-1.75197e-16
-1.6771e-16
-7.19031e-17
6.5462e-17
7.33382e-17
9.57046e-18
3.86384e-17
-1.53866e-17
-3.59528e-17
-7.39679e-17
-8.79195e-17
-4.40633e-18
1.56022e-17
-1.3665e-17
)
;

boundaryField
{
    movingWall
    {
        type            calculated;
        value           uniform -0;
    }
    fixedWalls
    {
        type            calculated;
        value           uniform -0;
    }
    frontAndBack
    {
        type            empty;
    }
}


// ************************************************************************* //
