/*--------------------------------*- C++ -*----------------------------------*\
| =========                 |                                                 |
| \\      /  F ield         | OpenFOAM: The Open Source CFD Toolbox           |
|  \\    /   O peration     | Version:  2506                                  |
|   \\  /    A nd           | Website:  www.openfoam.com                      |
|    \\/     M anipulation  |                                                 |
\*---------------------------------------------------------------------------*/
FoamFile
{
    version     2.0;
    format      ascii;
    arch        "LSB;label=32;scalar=64";
    class       volVectorField;
    location    "7.375";
    object      vorticityField;
}
// * * * * * * * * * * * * * * * * * * * * * * * * * * * * * * * * * * * * * //

dimensions      [0 0 -1 0 0 0 0];

internalField   nonuniform List<vector> 
400
(
(0 -0 1.17496e-11)
(0 -0 -1.57237e-11)
(0 -0 3.5848e-12)
(0 -0 -8.16322e-13)
(0 -0 1.61389e-13)
(0 -0 -3.8083e-14)
(0 -0 1.9805e-14)
(0 -0 3.69336e-15)
(0 -0 -2.68628e-14)
(0 -0 -2.77709e-14)
(0 -0 -2.51349e-14)
(0 -0 8.03167e-15)
(0 -0 9.97522e-15)
(0 -0 4.58036e-15)
(0 -0 4.86447e-14)
(0 -0 4.69517e-14)
(0 -0 -2.5323e-15)
(0 -0 5.40685e-14)
(0 -0 1.40843e-15)
(0 -0 -8.39597e-15)
(0 -0 -7.21687e-13)
(0 -0 -1.23287e-13)
(0 -0 -9.66226e-14)
(0 -0 -7.4723e-14)
(0 -0 1.20668e-14)
(0 -0 1.49045e-16)
(0 -0 -1.2058e-14)
(0 -0 -1.18415e-14)
(0 -0 3.84109e-14)
(0 -0 4.52002e-14)
(0 -0 3.32503e-14)
(0 -0 -3.19667e-15)
(0 -0 5.04661e-14)
(0 -0 -2.42791e-15)
(0 -0 -1.90409e-15)
(0 -0 2.44326e-14)
(0 -0 8.51544e-14)
(0 -0 3.61637e-14)
(0 -0 5.20916e-14)
(0 -0 -7.26462e-15)
(0 -0 -5.3069e-12)
(0 -0 1.224e-11)
(0 -0 -2.91884e-12)
(0 -0 6.45364e-13)
(0 -0 -1.55169e-13)
(0 -0 4.07243e-14)
(0 -0 -1.58984e-14)
(0 -0 6.5824e-14)
(0 -0 7.83129e-14)
(0 -0 6.32844e-14)
(0 -0 -6.15695e-15)
(0 -0 -3.11164e-14)
(0 -0 -9.7139e-14)
(0 -0 -1.74011e-14)
(0 -0 -1.18568e-13)
(0 -0 -1.07492e-13)
(0 -0 -9.89401e-14)
(0 -0 -8.66385e-14)
(0 -0 -5.20229e-14)
(0 -0 2.58879e-14)
(0 -0 5.48526e-12)
(0 -0 -1.09848e-11)
(0 -0 2.5211e-12)
(0 -0 -6.26943e-13)
(0 -0 1.1017e-13)
(0 -0 -2.93378e-14)
(0 -0 3.4807e-15)
(0 -0 -4.44731e-15)
(0 -0 -6.57234e-14)
(0 -0 -6.59322e-14)
(0 -0 -1.91475e-14)
(0 -0 4.93095e-14)
(0 -0 4.51758e-14)
(0 -0 3.8874e-14)
(0 -0 5.37992e-16)
(0 -0 -7.3136e-14)
(0 -0 -8.75325e-14)
(0 -0 -8.09329e-14)
(0 -0 -1.52941e-14)
(0 -0 4.65348e-15)
(0 -0 -4.70617e-13)
(0 -0 9.34739e-13)
(0 -0 -3.66472e-13)
(0 -0 -2.85685e-15)
(0 -0 -1.00742e-13)
(0 -0 -1.42519e-13)
(0 -0 -1.4913e-13)
(0 -0 -1.81911e-13)
(0 -0 -1.54944e-13)
(0 -0 -8.44632e-14)
(0 -0 -1.18016e-14)
(0 -0 -4.044e-14)
(0 -0 -3.58894e-14)
(0 -0 -5.49142e-14)
(0 -0 8.59543e-14)
(0 -0 4.85559e-14)
(0 -0 4.30343e-15)
(0 -0 -2.39112e-16)
(0 -0 2.99641e-14)
(0 -0 1.57961e-14)
(0 -0 -6.07544e-12)
(0 -0 1.01868e-11)
(0 -0 -2.2539e-12)
(0 -0 6.83575e-13)
(0 -0 -4.40286e-14)
(0 -0 1.00586e-13)
(0 -0 7.03187e-14)
(0 -0 4.31932e-14)
(0 -0 6.74267e-14)
(0 -0 2.19287e-14)
(0 -0 6.01056e-14)
(0 -0 1.24017e-13)
(0 -0 7.22874e-14)
(0 -0 6.21191e-14)
(0 -0 5.07771e-14)
(0 -0 7.46588e-14)
(0 -0 -1.21374e-14)
(0 -0 -1.18184e-14)
(0 -0 -4.36714e-15)
(0 -0 9.39042e-15)
(0 -0 9.44466e-12)
(0 -0 -1.45724e-11)
(0 -0 3.48001e-12)
(0 -0 -7.39865e-13)
(0 -0 2.8319e-13)
(0 -0 9.69639e-14)
(0 -0 1.42143e-13)
(0 -0 1.30789e-13)
(0 -0 1.13677e-13)
(0 -0 1.53917e-13)
(0 -0 8.85417e-14)
(0 -0 2.01305e-14)
(0 -0 7.67206e-14)
(0 -0 4.45722e-14)
(0 -0 -9.99532e-15)
(0 -0 -5.57981e-15)
(0 -0 3.24991e-14)
(0 -0 3.21928e-14)
(0 -0 -6.5737e-15)
(0 -0 2.88539e-14)
(0 -0 -3.15367e-12)
(0 -0 5.71889e-12)
(0 -0 -1.34299e-12)
(0 -0 3.07391e-13)
(0 -0 -1.26586e-13)
(0 -0 2.20696e-14)
(0 -0 6.6807e-14)
(0 -0 6.89901e-14)
(0 -0 4.05623e-14)
(0 -0 8.51191e-15)
(0 -0 -4.20168e-15)
(0 -0 -1.30352e-14)
(0 -0 -4.86141e-14)
(0 -0 -7.69371e-14)
(0 -0 -5.66258e-14)
(0 -0 -4.81467e-14)
(0 -0 1.7288e-15)
(0 -0 4.1314e-15)
(0 -0 7.02194e-15)
(0 -0 -2.0045e-14)
(0 -0 -4.31145e-12)
(0 -0 6.03192e-12)
(0 -0 -1.47217e-12)
(0 -0 2.38234e-13)
(0 -0 -1.69006e-13)
(0 -0 -9.40392e-15)
(0 -0 -8.20067e-14)
(0 -0 -8.58659e-14)
(0 -0 -8.41225e-14)
(0 -0 -8.57625e-14)
(0 -0 -7.49835e-14)
(0 -0 -2.22159e-14)
(0 -0 -7.09862e-14)
(0 -0 -6.91226e-14)
(0 -0 -5.73498e-14)
(0 -0 5.41247e-15)
(0 -0 -2.53625e-14)
(0 -0 -2.6439e-14)
(0 -0 1.07909e-14)
(0 -0 7.52132e-15)
(0 -0 1.02881e-11)
(0 -0 -1.42512e-11)
(0 -0 3.15662e-12)
(0 -0 -8.42062e-13)
(0 -0 1.55954e-13)
(0 -0 -1.47467e-13)
(0 -0 -1.13229e-13)
(0 -0 -1.16859e-13)
(0 -0 -5.42807e-14)
(0 -0 -5.48979e-14)
(0 -0 -5.76903e-14)
(0 -0 -9.8192e-14)
(0 -0 -6.74292e-14)
(0 -0 6.56922e-14)
(0 -0 3.76687e-14)
(0 -0 -3.07543e-15)
(0 -0 2.84809e-14)
(0 -0 3.77639e-14)
(0 -0 7.80552e-15)
(0 -0 -4.53913e-15)
(0 -0 -1.25595e-11)
(0 -0 1.47309e-11)
(0 -0 -3.47607e-12)
(0 -0 7.89054e-13)
(0 -0 -1.78308e-13)
(0 -0 3.86451e-14)
(0 -0 -3.79447e-14)
(0 -0 1.03135e-14)
(0 -0 5.09594e-15)
(0 -0 -8.66684e-15)
(0 -0 -2.17485e-14)
(0 -0 -7.64168e-14)
(0 -0 -2.64766e-14)
(0 -0 -1.64528e-14)
(0 -0 -3.19799e-14)
(0 -0 -6.50369e-14)
(0 -0 6.18112e-15)
(0 -0 2.15409e-14)
(0 -0 1.24587e-14)
(0 -0 -1.0044e-14)
(0 -0 7.42006e-12)
(0 -0 -8.02951e-12)
(0 -0 1.96426e-12)
(0 -0 -3.88757e-13)
(0 -0 1.44487e-13)
(0 -0 7.32136e-16)
(0 -0 8.21914e-14)
(0 -0 5.14368e-14)
(0 -0 1.14545e-13)
(0 -0 1.13508e-13)
(0 -0 1.01957e-13)
(0 -0 8.507e-14)
(0 -0 1.42868e-13)
(0 -0 1.79665e-14)
(0 -0 3.98297e-14)
(0 -0 5.12568e-14)
(0 -0 1.02814e-14)
(0 -0 1.20862e-14)
(0 -0 5.67287e-14)
(0 -0 1.47774e-14)
(0 -0 1.49012e-12)
(0 -0 -1.38852e-12)
(0 -0 3.93656e-13)
(0 -0 -6.35567e-14)
(0 -0 4.39538e-15)
(0 -0 3.36045e-14)
(0 -0 1.23102e-14)
(0 -0 -3.6173e-14)
(0 -0 -1.02285e-13)
(0 -0 -1.33667e-13)
(0 -0 -1.28332e-13)
(0 -0 -4.7981e-14)
(0 -0 -4.34904e-14)
(0 -0 -3.29127e-14)
(0 -0 -3.17016e-14)
(0 -0 7.91234e-15)
(0 -0 1.09905e-14)
(0 -0 9.8046e-16)
(0 -0 -5.5792e-14)
(0 -0 2.02292e-15)
(0 -0 -6.86168e-12)
(0 -0 8.73031e-12)
(0 -0 -2.01363e-12)
(0 -0 4.27791e-13)
(0 -0 -1.84606e-13)
(0 -0 -7.27224e-14)
(0 -0 -6.00192e-14)
(0 -0 -5.08534e-14)
(0 -0 -8.285e-14)
(0 -0 -1.94434e-14)
(0 -0 -1.64164e-14)
(0 -0 -3.10602e-14)
(0 -0 -6.24584e-14)
(0 -0 -3.19721e-14)
(0 -0 -3.40146e-14)
(0 -0 -5.58562e-14)
(0 -0 5.78997e-15)
(0 -0 -2.74134e-14)
(0 -0 -3.20637e-14)
(0 -0 -4.18167e-14)
(0 -0 9.76342e-12)
(0 -0 -1.33747e-11)
(0 -0 3.23193e-12)
(0 -0 -6.16975e-13)
(0 -0 2.36188e-13)
(0 -0 3.70871e-14)
(0 -0 5.50415e-14)
(0 -0 4.945e-14)
(0 -0 9.0647e-14)
(0 -0 1.07434e-13)
(0 -0 9.89128e-14)
(0 -0 2.41372e-14)
(0 -0 -1.11762e-14)
(0 -0 -2.39061e-15)
(0 -0 6.25403e-14)
(0 -0 5.65793e-14)
(0 -0 -1.33304e-14)
(0 -0 2.16452e-14)
(0 -0 8.52787e-14)
(0 -0 4.40572e-14)
(0 -0 -7.05685e-12)
(0 -0 9.72353e-12)
(0 -0 -2.39335e-12)
(0 -0 4.6826e-13)
(0 -0 -9.9961e-14)
(0 -0 1.32247e-13)
(0 -0 9.51493e-14)
(0 -0 8.56699e-14)
(0 -0 8.14851e-14)
(0 -0 8.10712e-14)
(0 -0 5.44993e-14)
(0 -0 6.59423e-14)
(0 -0 6.19151e-14)
(0 -0 1.79618e-14)
(0 -0 -7.81032e-15)
(0 -0 1.17237e-15)
(0 -0 -3.11657e-15)
(0 -0 -3.32187e-14)
(0 -0 -8.19378e-14)
(0 -0 -3.41461e-17)
(0 -0 9.02047e-13)
(0 -0 9.55759e-13)
(0 -0 -2.79087e-13)
(0 -0 1.05213e-14)
(0 -0 -7.45917e-14)
(0 -0 -8.29725e-14)
(0 -0 -8.10204e-14)
(0 -0 -7.4734e-14)
(0 -0 -5.70643e-14)
(0 -0 -3.18919e-14)
(0 -0 -4.06233e-14)
(0 -0 7.7839e-14)
(0 -0 7.75617e-14)
(0 -0 3.372e-14)
(0 -0 -4.79052e-14)
(0 -0 -7.43003e-14)
(0 -0 1.00157e-14)
(0 -0 9.24632e-14)
(0 -0 -1.36647e-14)
(0 -0 -2.81351e-14)
(0 -0 4.01413e-12)
(0 -0 -1.02316e-11)
(0 -0 2.41235e-12)
(0 -0 -4.86885e-13)
(0 -0 2.56382e-13)
(0 -0 -3.10805e-14)
(0 -0 -1.41065e-15)
(0 -0 2.77599e-14)
(0 -0 -6.57128e-14)
(0 -0 -9.56526e-14)
(0 -0 1.42111e-14)
(0 -0 -3.97892e-14)
(0 -0 -2.63381e-15)
(0 -0 5.90846e-14)
(0 -0 1.21883e-13)
(0 -0 6.34591e-14)
(0 -0 5.19368e-14)
(0 -0 -1.23053e-14)
(0 -0 1.47857e-14)
(0 -0 9.00687e-16)
(0 -0 -3.51037e-12)
(0 -0 5.1491e-12)
(0 -0 -1.2588e-12)
(0 -0 2.17632e-13)
(0 -0 -1.6618e-13)
(0 -0 1.14735e-14)
(0 -0 -3.57636e-14)
(0 -0 5.16413e-15)
(0 -0 7.21202e-14)
(0 -0 4.2063e-14)
(0 -0 1.12428e-14)
(0 -0 6.1093e-14)
(0 -0 -6.98208e-14)
(0 -0 -7.25121e-14)
(0 -0 -2.62011e-14)
(0 -0 8.30689e-15)
(0 -0 -5.31592e-14)
(0 -0 -6.60423e-14)
(0 -0 -7.6348e-15)
(0 -0 1.35522e-14)
(0 -0 -3.97143e-12)
(0 -0 6.56755e-12)
(0 -0 -1.30662e-12)
(0 -0 3.81908e-13)
(0 -0 -2.98611e-14)
(0 -0 1.01707e-14)
(0 -0 2.16134e-14)
(0 -0 1.03294e-14)
(0 -0 2.33172e-14)
(0 -0 1.45241e-14)
(0 -0 -5.58916e-15)
(0 -0 -5.76801e-14)
(0 -0 -2.49571e-15)
(0 -0 -7.45912e-15)
(0 -0 -6.00682e-14)
(0 -0 -5.19667e-15)
(0 -0 6.95616e-15)
(0 -0 1.03522e-14)
(0 -0 -9.25871e-16)
(0 -0 2.69113e-14)
)
;

boundaryField
{
    movingWall
    {
        type            calculated;
        value           nonuniform List<vector> 
20
(
(0 -0 -1.10006e-11)
(0 -0 8.65186e-12)
(0 -0 -1.15839e-12)
(0 -0 6.65666e-13)
(0 -0 2.26791e-13)
(0 -0 1.87806e-13)
(0 -0 1.72144e-13)
(0 -0 1.43556e-13)
(0 -0 2.33172e-14)
(0 -0 1.45241e-14)
(0 -0 3.88198e-14)
(0 -0 4.09389e-14)
(0 -0 8.63221e-14)
(0 -0 8.13587e-14)
(0 -0 1.27369e-13)
(0 -0 8.36212e-14)
(0 -0 5.13651e-14)
(0 -0 -7.84657e-14)
(0 -0 -9.25871e-16)
(0 -0 4.42152e-14)
)
;
    }
    fixedWalls
    {
        type            calculated;
        value           nonuniform List<vector> 
60
(
(0 -0 6.64287e-11)
(0 -0 5.70186e-13)
(0 -0 -5.21523e-11)
(0 -0 4.71163e-11)
(0 -0 -4.68936e-12)
(0 -0 -4.31253e-11)
(0 -0 6.28328e-11)
(0 -0 -2.45035e-11)
(0 -0 -2.58639e-11)
(0 -0 6.06707e-11)
(0 -0 -6.33013e-11)
(0 -0 3.5031e-11)
(0 -0 6.17337e-12)
(0 -0 -3.76128e-11)
(0 -0 5.75515e-11)
(0 -0 -4.20896e-11)
(0 -0 -4.17099e-12)
(0 -0 4.38365e-11)
(0 -0 -2.24571e-11)
(0 -0 -2.74207e-11)
(0 -0 -1.97188e-14)
(0 -0 -5.41267e-15)
(0 -0 4.15428e-14)
(0 -0 -1.75231e-15)
(0 -0 1.52372e-14)
(0 -0 1.96794e-14)
(0 -0 4.05023e-14)
(0 -0 -1.98736e-14)
(0 -0 -2.28792e-15)
(0 -0 -1.29971e-14)
(0 -0 -1.98166e-14)
(0 -0 7.63793e-15)
(0 -0 1.00452e-15)
(0 -0 -2.80869e-14)
(0 -0 3.65709e-14)
(0 -0 -5.18682e-16)
(0 -0 -7.39656e-15)
(0 -0 1.1663e-14)
(0 -0 2.51599e-14)
(0 -0 3.25711e-14)
(0 -0 2.34545e-11)
(0 -0 -1.89009e-11)
(0 -0 3.97468e-12)
(0 -0 -1.02106e-12)
(0 -0 9.96767e-14)
(0 -0 -1.26901e-13)
(0 -0 -1.57831e-13)
(0 -0 -1.29533e-13)
(0 -0 -1.77393e-13)
(0 -0 -1.33893e-13)
(0 -0 -1.75666e-13)
(0 -0 -1.25195e-13)
(0 -0 -1.6766e-13)
(0 -0 -1.73055e-13)
(0 -0 -1.38792e-13)
(0 -0 -9.60763e-14)
(0 -0 -9.13501e-14)
(0 -0 -4.45506e-14)
(0 -0 -8.74094e-14)
(0 -0 -8.39597e-15)
)
;
    }
    frontAndBack
    {
        type            empty;
    }
}


// ************************************************************************* //
