/*--------------------------------*- C++ -*----------------------------------*\
| =========                 |                                                 |
| \\      /  F ield         | OpenFOAM: The Open Source CFD Toolbox           |
|  \\    /   O peration     | Version:  2506                                  |
|   \\  /    A nd           | Website:  www.openfoam.com                      |
|    \\/     M anipulation  |                                                 |
\*---------------------------------------------------------------------------*/
FoamFile
{
    version     2.0;
    format      ascii;
    arch        "LSB;label=32;scalar=64";
    class       volScalarField;
    location    "7.375";
    object      zeroGradient(epsilon);
}
// * * * * * * * * * * * * * * * * * * * * * * * * * * * * * * * * * * * * * //

dimensions      [0 2 -3 0 0 0 0];

internalField   nonuniform List<scalar> 
400
(
1.82673e-06
1.82673e-06
1.82673e-06
1.82673e-06
1.82673e-06
1.82673e-06
1.82672e-06
1.82673e-06
1.82672e-06
1.82673e-06
1.82672e-06
1.82673e-06
1.82672e-06
1.82673e-06
1.82672e-06
1.82672e-06
1.82672e-06
1.82672e-06
1.82672e-06
1.82672e-06
1.90108e-06
1.87533e-06
1.87749e-06
1.87839e-06
1.88019e-06
1.88111e-06
1.88291e-06
1.88386e-06
1.88566e-06
1.88664e-06
1.88844e-06
1.88946e-06
1.89125e-06
1.8923e-06
1.89409e-06
1.89518e-06
1.89696e-06
1.89808e-06
1.89898e-06
1.90044e-06
2.016e-06
1.98769e-06
1.9901e-06
1.99111e-06
1.9931e-06
1.99413e-06
1.99612e-06
1.99717e-06
1.99916e-06
2.00023e-06
2.00222e-06
2.00332e-06
2.0053e-06
2.00643e-06
2.00839e-06
2.00956e-06
2.01152e-06
2.01272e-06
2.01369e-06
2.01527e-06
2.13273e-06
2.10221e-06
2.10481e-06
2.1059e-06
2.10804e-06
2.10915e-06
2.1113e-06
2.11243e-06
2.11457e-06
2.11573e-06
2.11787e-06
2.11906e-06
2.12118e-06
2.12241e-06
2.12452e-06
2.12578e-06
2.12789e-06
2.12918e-06
2.13023e-06
2.13194e-06
2.22714e-06
2.19478e-06
2.19753e-06
2.19869e-06
2.20096e-06
2.20213e-06
2.20441e-06
2.2056e-06
2.20788e-06
2.2091e-06
2.21137e-06
2.21263e-06
2.21489e-06
2.21618e-06
2.21843e-06
2.21976e-06
2.222e-06
2.22337e-06
2.22448e-06
2.22629e-06
2.29329e-06
2.25961e-06
2.26247e-06
2.26367e-06
2.26604e-06
2.26725e-06
2.26962e-06
2.27087e-06
2.27323e-06
2.27451e-06
2.27687e-06
2.27818e-06
2.28053e-06
2.28188e-06
2.28421e-06
2.2856e-06
2.28792e-06
2.28935e-06
2.29051e-06
2.29239e-06
2.33582e-06
2.30129e-06
2.30422e-06
2.30545e-06
2.30787e-06
2.30912e-06
2.31155e-06
2.31282e-06
2.31525e-06
2.31656e-06
2.31897e-06
2.32032e-06
2.32273e-06
2.32411e-06
2.3265e-06
2.32793e-06
2.33031e-06
2.33178e-06
2.33297e-06
2.33489e-06
2.36231e-06
2.32724e-06
2.33021e-06
2.33146e-06
2.33393e-06
2.33519e-06
2.33766e-06
2.33895e-06
2.34141e-06
2.34274e-06
2.3452e-06
2.34656e-06
2.34901e-06
2.35041e-06
2.35284e-06
2.35429e-06
2.35671e-06
2.3582e-06
2.35941e-06
2.36136e-06
2.3793e-06
2.34388e-06
2.34689e-06
2.34815e-06
2.35063e-06
2.35191e-06
2.3544e-06
2.35571e-06
2.3582e-06
2.35954e-06
2.36202e-06
2.3634e-06
2.36586e-06
2.36728e-06
2.36974e-06
2.3712e-06
2.37364e-06
2.37514e-06
2.37636e-06
2.37834e-06
2.39127e-06
2.35562e-06
2.35864e-06
2.35991e-06
2.36241e-06
2.3637e-06
2.36621e-06
2.36752e-06
2.37003e-06
2.37138e-06
2.37387e-06
2.37526e-06
2.37774e-06
2.37918e-06
2.38164e-06
2.38312e-06
2.38557e-06
2.38709e-06
2.38831e-06
2.3903e-06
2.40097e-06
2.36512e-06
2.36816e-06
2.36944e-06
2.37195e-06
2.37325e-06
2.37577e-06
2.37709e-06
2.37961e-06
2.38096e-06
2.38347e-06
2.38487e-06
2.38737e-06
2.3888e-06
2.39129e-06
2.39277e-06
2.39524e-06
2.39676e-06
2.39799e-06
2.39999e-06
2.40996e-06
2.37393e-06
2.37698e-06
2.37827e-06
2.3808e-06
2.3821e-06
2.38463e-06
2.38596e-06
2.38849e-06
2.38985e-06
2.39237e-06
2.39378e-06
2.39629e-06
2.39773e-06
2.40023e-06
2.40172e-06
2.4042e-06
2.40573e-06
2.40697e-06
2.40898e-06
2.41914e-06
2.38293e-06
2.386e-06
2.38729e-06
2.38983e-06
2.39114e-06
2.39368e-06
2.39502e-06
2.39756e-06
2.39893e-06
2.40147e-06
2.40288e-06
2.4054e-06
2.40685e-06
2.40936e-06
2.41086e-06
2.41335e-06
2.41489e-06
2.41614e-06
2.41815e-06
2.42904e-06
2.39263e-06
2.39572e-06
2.39702e-06
2.39957e-06
2.40089e-06
2.40344e-06
2.40479e-06
2.40734e-06
2.40872e-06
2.41127e-06
2.41269e-06
2.41522e-06
2.41669e-06
2.41921e-06
2.42071e-06
2.42322e-06
2.42477e-06
2.42602e-06
2.42805e-06
2.43993e-06
2.4033e-06
2.4064e-06
2.40771e-06
2.41028e-06
2.4116e-06
2.41417e-06
2.41553e-06
2.4181e-06
2.41948e-06
2.42205e-06
2.42347e-06
2.42602e-06
2.42749e-06
2.43003e-06
2.43154e-06
2.43407e-06
2.43562e-06
2.43688e-06
2.43893e-06
2.45176e-06
2.41489e-06
2.41802e-06
2.41933e-06
2.42192e-06
2.42325e-06
2.42584e-06
2.4272e-06
2.42979e-06
2.43118e-06
2.43376e-06
2.4352e-06
2.43776e-06
2.43924e-06
2.4418e-06
2.44332e-06
2.44586e-06
2.44743e-06
2.44869e-06
2.45075e-06
2.46404e-06
2.42693e-06
2.43008e-06
2.4314e-06
2.434e-06
2.43534e-06
2.43795e-06
2.43932e-06
2.44192e-06
2.44333e-06
2.44592e-06
2.44737e-06
2.44995e-06
2.45144e-06
2.45401e-06
2.45554e-06
2.4581e-06
2.45968e-06
2.46095e-06
2.46302e-06
2.47566e-06
2.43833e-06
2.4415e-06
2.44282e-06
2.44544e-06
2.44679e-06
2.44941e-06
2.45079e-06
2.45341e-06
2.45482e-06
2.45743e-06
2.45889e-06
2.46149e-06
2.46299e-06
2.46557e-06
2.46712e-06
2.46969e-06
2.47127e-06
2.47256e-06
2.47464e-06
2.48495e-06
2.44816e-06
2.45121e-06
2.45251e-06
2.45505e-06
2.45637e-06
2.45892e-06
2.46028e-06
2.46284e-06
2.46425e-06
2.4668e-06
2.46826e-06
2.47081e-06
2.47232e-06
2.47486e-06
2.47643e-06
2.47896e-06
2.48059e-06
2.48186e-06
2.48394e-06
2.48919e-06
2.48919e-06
2.48919e-06
2.48919e-06
2.48918e-06
2.48918e-06
2.48918e-06
2.48918e-06
2.48918e-06
2.48918e-06
2.48918e-06
2.48918e-06
2.48918e-06
2.48918e-06
2.48918e-06
2.48918e-06
2.48918e-06
2.48918e-06
2.48918e-06
2.48918e-06
)
;

boundaryField
{
    movingWall
    {
        type            zeroGradient;
    }
    fixedWalls
    {
        type            zeroGradient;
    }
    frontAndBack
    {
        type            empty;
    }
}


// ************************************************************************* //
