/*--------------------------------*- C++ -*----------------------------------*\
| =========                 |                                                 |
| \\      /  F ield         | OpenFOAM: The Open Source CFD Toolbox           |
|  \\    /   O peration     | Version:  2506                                  |
|   \\  /    A nd           | Website:  www.openfoam.com                      |
|    \\/     M anipulation  |                                                 |
\*---------------------------------------------------------------------------*/
FoamFile
{
    version     2.0;
    format      ascii;
    arch        "LSB;label=32;scalar=64";
    class       volScalarField;
    location    "0.875";
    object      Ux;
}
// * * * * * * * * * * * * * * * * * * * * * * * * * * * * * * * * * * * * * //

dimensions      [0 1 -1 0 0 0 0];

internalField   nonuniform List<scalar> 
6400
(
7.24972e-06
2.98215e-05
5.93444e-05
8.06756e-05
8.55317e-05
7.06616e-05
3.49392e-05
-2.16044e-05
-9.82145e-05
-0.000193701
-0.000306618
-0.000435367
-0.000578267
-0.000733598
-0.000899629
-0.00107464
-0.00125695
-0.0014449
-0.00163688
-0.00183134
-0.00202679
-0.00222179
-0.00241496
-0.002605
-0.00279065
-0.00297073
-0.00314414
-0.00330983
-0.0034668
-0.00361416
-0.00375106
-0.00387673
-0.00399044
-0.00409157
-0.00417955
-0.00425387
-0.00431412
-0.00435994
-0.00439104
-0.00440723
-0.00440837
-0.00439442
-0.0043654
-0.00432143
-0.0042627
-0.00418947
-0.00410212
-0.00400109
-0.00388691
-0.00376021
-0.00362168
-0.00347213
-0.00331245
-0.00314359
-0.00296661
-0.00278266
-0.00259294
-0.00239876
-0.00220148
-0.00200253
-0.00180344
-0.00160575
-0.00141108
-0.00122109
-0.00103748
-0.000861961
-0.000696272
-0.000542143
-0.000401283
-0.000275356
-0.000165949
-7.45224e-05
-2.3452e-06
4.96127e-05
8.08561e-05
9.165e-05
8.34422e-05
5.98024e-05
2.92487e-05
6.87573e-06
1.44643e-05
5.15895e-05
8.98943e-05
0.000103645
7.71218e-05
2.46269e-06
-0.000124036
-0.000303292
-0.000534261
-0.000814578
-0.001141
-0.00150971
-0.00191653
-0.00235704
-0.00282674
-0.00332105
-0.00383542
-0.00436538
-0.00490652
-0.00545456
-0.00600535
-0.00655488
-0.0070993
-0.00763493
-0.00815826
-0.00866597
-0.0091549
-0.00962208
-0.0100647
-0.0104803
-0.0108663
-0.0112206
-0.0115412
-0.0118263
-0.0120742
-0.0122835
-0.0124531
-0.0125819
-0.0126691
-0.0127143
-0.0127169
-0.012677
-0.0125946
-0.01247
-0.0123039
-0.0120969
-0.0118502
-0.0115649
-0.0112428
-0.0108854
-0.0104949
-0.0100734
-0.00962354
-0.009148
-0.00864975
-0.008132
-0.00759815
-0.00705185
-0.0064969
-0.00593732
-0.00537728
-0.0048211
-0.00427323
-0.00373821
-0.00322066
-0.00272523
-0.00225657
-0.00181927
-0.00141777
-0.00105633
-0.000738893
-0.000468918
-0.000249203
-8.15765e-05
3.35337e-05
9.7718e-05
0.000115364
9.49481e-05
5.26567e-05
1.43597e-05
1.43024e-05
4.46096e-05
6.13433e-05
3.56793e-05
-5.07622e-05
-0.000208206
-0.00044199
-0.000753822
-0.00114267
-0.00160552
-0.00213796
-0.0027346
-0.00338936
-0.00409574
-0.00484697
-0.00563613
-0.00645629
-0.00730053
-0.00816204
-0.00903414
-0.00991035
-0.0107844
-0.0116502
-0.0125019
-0.0133341
-0.0141413
-0.0149187
-0.0156615
-0.0163652
-0.0170259
-0.0176395
-0.0182027
-0.0187122
-0.0191652
-0.019559
-0.0198914
-0.0201606
-0.0203649
-0.020503
-0.0205742
-0.0205779
-0.0205138
-0.0203822
-0.0201836
-0.0199189
-0.0195894
-0.0191967
-0.018743
-0.0182307
-0.0176626
-0.0170418
-0.0163721
-0.0156574
-0.0149019
-0.0141105
-0.0132882
-0.0124404
-0.0115728
-0.0106914
-0.00980256
-0.00891272
-0.00802866
-0.00715732
-0.00630574
-0.00548105
-0.00469039
-0.00394085
-0.00323936
-0.00259259
-0.00200683
-0.00148776
-0.00104027
-0.000668156
-0.000373654
-0.000156941
-1.53884e-05
5.72541e-05
7.20224e-05
4.80211e-05
1.46899e-05
1.00653e-05
2.04362e-05
-4.25043e-06
-9.0793e-05
-0.000257351
-0.000514879
-0.00086929
-0.00132254
-0.00187348
-0.00251857
-0.00325252
-0.00406872
-0.00495965
-0.00591712
-0.00693252
-0.007997
-0.00910158
-0.0102373
-0.0113953
-0.0125667
-0.0137431
-0.0149161
-0.0160778
-0.0172204
-0.0183364
-0.019419
-0.0204614
-0.0214572
-0.0224007
-0.0232862
-0.0241087
-0.0248635
-0.0255462
-0.026153
-0.0266805
-0.0271256
-0.0274859
-0.0277591
-0.0279438
-0.0280386
-0.0280428
-0.0279563
-0.0277793
-0.0275125
-0.0271572
-0.0267151
-0.0261885
-0.0255801
-0.0248933
-0.0241319
-0.0233
-0.0224026
-0.021445
-0.0204329
-0.0193727
-0.018271
-0.017135
-0.0159724
-0.0147911
-0.0135993
-0.0124058
-0.0112194
-0.0100491
-0.00890428
-0.0077941
-0.00672787
-0.00571472
-0.00476354
-0.00388279
-0.0030804
-0.00236342
-0.00173785
-0.00120821
-0.000777115
-0.00044468
-0.000207852
-5.96181e-05
1.19743e-05
2.61399e-05
1.09142e-05
4.0255e-06
-1.30006e-05
-9.19966e-05
-0.000254069
-0.000515075
-0.000885471
-0.00137084
-0.00197279
-0.00268975
-0.00351761
-0.00445026
-0.00548008
-0.00659833
-0.00779543
-0.00906124
-0.0103853
-0.0117569
-0.0131653
-0.0145998
-0.0160498
-0.0175051
-0.0189554
-0.0203911
-0.0218028
-0.0231814
-0.0245183
-0.0258053
-0.0270347
-0.0281992
-0.0292921
-0.030307
-0.0312382
-0.0320804
-0.0328288
-0.0334792
-0.034028
-0.034472
-0.0348085
-0.0350357
-0.0351521
-0.0351567
-0.0350493
-0.0348304
-0.0345007
-0.0340619
-0.033516
-0.0328661
-0.0321153
-0.0312678
-0.0303283
-0.0293021
-0.028195
-0.0270136
-0.025765
-0.0244569
-0.0230975
-0.0216956
-0.0202604
-0.0188016
-0.0173293
-0.015854
-0.0143865
-0.0129377
-0.0115186
-0.0101405
-0.00881445
-0.0075513
-0.00636158
-0.00525529
-0.00424169
-0.00332901
-0.00252418
-0.00183242
-0.00125682
-0.000797787
-0.000452448
-0.000213954
-7.06412e-05
-5.23004e-06
5.26633e-06
-2.66536e-06
-5.09489e-05
-0.000191977
-0.000438999
-0.000804141
-0.00129641
-0.00192031
-0.00267655
-0.0035628
-0.00457417
-0.0057037
-0.00694282
-0.00828169
-0.00970953
-0.0112149
-0.0127859
-0.0144103
-0.0160759
-0.0177705
-0.0194818
-0.021198
-0.0229074
-0.0245986
-0.0262609
-0.0278836
-0.0294568
-0.0309709
-0.0324169
-0.0337864
-0.0350713
-0.0362645
-0.037359
-0.0383487
-0.0392281
-0.0399922
-0.0406367
-0.041158
-0.0415531
-0.0418195
-0.0419557
-0.0419606
-0.041834
-0.0415762
-0.0411884
-0.0406723
-0.0400307
-0.0392666
-0.0383842
-0.0373882
-0.036284
-0.0350779
-0.0337767
-0.0323882
-0.0309204
-0.0293825
-0.0277839
-0.0261348
-0.0244461
-0.0227288
-0.0209948
-0.0192561
-0.017525
-0.0158142
-0.0141365
-0.0125047
-0.0109313
-0.00942879
-0.00800911
-0.00668358
-0.00546262
-0.00435555
-0.00337018
-0.00251252
-0.00178634
-0.00119269
-0.000729461
-0.000390701
-0.000165972
-4.13505e-05
-1.09578e-06
-9.44945e-06
-9.06459e-05
-0.000297793
-0.000635276
-0.00111061
-0.00173068
-0.00249829
-0.00341279
-0.00447072
-0.00566621
-0.00699133
-0.00843651
-0.00999087
-0.0116425
-0.0133788
-0.0151866
-0.0170524
-0.0189626
-0.0209036
-0.0228619
-0.024824
-0.0267771
-0.0287083
-0.0306054
-0.0324567
-0.0342508
-0.035977
-0.0376252
-0.0391857
-0.0406496
-0.0420086
-0.0432551
-0.0443821
-0.0453833
-0.0462531
-0.0469866
-0.0475798
-0.0480292
-0.0483322
-0.0484869
-0.0484921
-0.0483476
-0.0480539
-0.0476122
-0.0470246
-0.0462939
-0.045424
-0.0444194
-0.0432854
-0.0420282
-0.0406549
-0.0391732
-0.0375916
-0.0359196
-0.0341673
-0.0323453
-0.0304651
-0.0285388
-0.026579
-0.0245988
-0.0226117
-0.0206316
-0.0186725
-0.0167487
-0.0148744
-0.0130636
-0.01133
-0.00968695
-0.00814687
-0.00672135
-0.00542069
-0.00425371
-0.00322729
-0.00234614
-0.00161231
-0.00102492
-0.000579519
-0.000267584
-7.94216e-05
-7.59716e-06
-1.60651e-05
-0.000130527
-0.000405467
-0.000836135
-0.00142501
-0.00217636
-0.00309088
-0.00416615
-0.00539728
-0.00677717
-0.00829678
-0.00994547
-0.0117113
-0.0135813
-0.0155416
-0.0175781
-0.0196761
-0.0218206
-0.0239969
-0.0261902
-0.0283859
-0.0305697
-0.0327278
-0.0348466
-0.0369132
-0.0389152
-0.0408407
-0.0426786
-0.0444183
-0.04605
-0.0475644
-0.0489532
-0.0502086
-0.0513237
-0.0522923
-0.0531092
-0.0537696
-0.0542699
-0.0546071
-0.0547793
-0.054785
-0.0546241
-0.0542971
-0.0538053
-0.0531511
-0.0523377
-0.0513691
-0.0502505
-0.0489878
-0.0475877
-0.0460581
-0.0444074
-0.0426451
-0.0407816
-0.0388279
-0.0367958
-0.034698
-0.0325476
-0.0303585
-0.028145
-0.025922
-0.0237046
-0.0215083
-0.0193484
-0.0172406
-0.0152001
-0.013242
-0.0113805
-0.00962944
-0.0080014
-0.00650777
-0.0051584
-0.00396127
-0.00292221
-0.00204463
-0.00132924
-0.000773569
-0.000371432
-0.000117834
-1.39609e-05
-2.24027e-05
-0.000169745
-0.000512609
-0.00103727
-0.00174104
-0.00262532
-0.00368835
-0.00492567
-0.00633069
-0.00789488
-0.00960791
-0.011458
-0.013432
-0.015516
-0.0176949
-0.0199536
-0.0222762
-0.0246467
-0.0270492
-0.0294677
-0.0318867
-0.0342906
-0.0366645
-0.0389939
-0.0412647
-0.0434636
-0.0455776
-0.0475948
-0.0495037
-0.0512935
-0.0529544
-0.0544772
-0.0558535
-0.0570759
-0.0581376
-0.0590328
-0.0597566
-0.060305
-0.0606747
-0.0608635
-0.0608701
-0.0606941
-0.0603362
-0.0597978
-0.0590814
-0.0581906
-0.0571298
-0.0559045
-0.054521
-0.0529868
-0.0513102
-0.0495006
-0.0475681
-0.0455238
-0.0433799
-0.041149
-0.0388447
-0.0364814
-0.0340739
-0.0316378
-0.0291891
-0.026744
-0.0243191
-0.0219312
-0.019597
-0.0173329
-0.0151551
-0.0130791
-0.0111197
-0.00929076
-0.00760469
-0.00607253
-0.0047035
-0.00350481
-0.00248146
-0.0016361
-0.00096848
-0.000475067
-0.000155703
-2.00664e-05
-2.84286e-05
-0.000207873
-0.000617855
-0.00123607
-0.00205471
-0.00307219
-0.00428413
-0.00568379
-0.0072627
-0.00901069
-0.010916
-0.0129656
-0.0151452
-0.0174395
-0.0198327
-0.0223082
-0.0248494
-0.0274391
-0.0300603
-0.0326961
-0.0353299
-0.0379451
-0.0405257
-0.0430564
-0.0455222
-0.0479086
-0.0502022
-0.0523898
-0.0544592
-0.0563992
-0.058199
-0.0598488
-0.0613397
-0.0626637
-0.0638137
-0.0647833
-0.0655673
-0.0661614
-0.0665621
-0.0667671
-0.0667749
-0.0665853
-0.0661986
-0.0656167
-0.0648423
-0.0638789
-0.0627314
-0.0614056
-0.0599084
-0.0582476
-0.0564322
-0.0544722
-0.0523783
-0.0501626
-0.0478377
-0.0454174
-0.0429161
-0.0403491
-0.0377323
-0.0350822
-0.0324158
-0.0297507
-0.0271044
-0.0244947
-0.0219396
-0.0194566
-0.0170629
-0.0147753
-0.0126097
-0.010581
-0.00870302
-0.00698798
-0.00544651
-0.00408741
-0.00291747
-0.00194146
-0.00116159
-0.000577088
-0.000192577
-2.58733e-05
-3.41465e-05
-0.00024473
-0.000720498
-0.00143104
-0.00236361
-0.00351362
-0.00487398
-0.00643555
-0.00818779
-0.0101188
-0.0122152
-0.0144625
-0.0168453
-0.0193471
-0.0219509
-0.0246391
-0.0273939
-0.0301973
-0.0330312
-0.0358778
-0.0387193
-0.0415385
-0.0443185
-0.0470428
-0.0496957
-0.0522621
-0.0547274
-0.0570781
-0.0593011
-0.0613843
-0.0633167
-0.0650877
-0.0666879
-0.0681089
-0.069343
-0.0703837
-0.0712253
-0.0718632
-0.0722939
-0.0725149
-0.0725245
-0.0723224
-0.0719092
-0.0712867
-0.0704576
-0.069426
-0.0681967
-0.066776
-0.0651712
-0.0633904
-0.0614432
-0.05934
-0.0570924
-0.0547129
-0.0522149
-0.0496131
-0.0469225
-0.0441594
-0.0413406
-0.0384835
-0.0356062
-0.0327271
-0.0298648
-0.0270383
-0.0242665
-0.0215681
-0.0189615
-0.0164644
-0.0140941
-0.0118667
-0.00979729
-0.00789951
-0.00618555
-0.00466591
-0.00334936
-0.00224295
-0.00135142
-0.000676777
-0.000228269
-3.13819e-05
-3.95776e-05
-0.000280285
-0.000820251
-0.00162146
-0.00266646
-0.00394772
-0.00545542
-0.00717791
-0.00910251
-0.0112154
-0.0135016
-0.0159451
-0.0185291
-0.0212359
-0.0240473
-0.0269447
-0.0299092
-0.0329218
-0.0359635
-0.0390155
-0.0420592
-0.0450764
-0.0480495
-0.0509611
-0.0537948
-0.0565347
-0.0591655
-0.061673
-0.0640436
-0.0662645
-0.0683241
-0.0702114
-0.0719166
-0.0734306
-0.0747456
-0.0758546
-0.0767518
-0.0774322
-0.0778922
-0.078129
-0.078141
-0.0779279
-0.0774901
-0.0768296
-0.0759492
-0.0748531
-0.0735465
-0.0720358
-0.0703285
-0.0684335
-0.0663604
-0.0641204
-0.0617255
-0.0591887
-0.0565244
-0.0537475
-0.0508741
-0.0479211
-0.0449063
-0.0418478
-0.0387647
-0.0356764
-0.0326024
-0.0295629
-0.0265776
-0.0236664
-0.0208488
-0.0181439
-0.0155701
-0.0131447
-0.0108843
-0.00880408
-0.00691788
-0.00523803
-0.00377539
-0.00253937
-0.00153728
-0.000773858
-0.000262746
-3.66128e-05
-4.4751e-05
-0.000314588
-0.000917091
-0.0018071
-0.00296275
-0.00437363
-0.00602719
-0.00790929
-0.010005
-0.0122986
-0.0147732
-0.0174114
-0.0201949
-0.0231046
-0.0261212
-0.0292249
-0.0323959
-0.0356141
-0.0388596
-0.0421126
-0.0453539
-0.0485642
-0.0517253
-0.054819
-0.0578282
-0.0607362
-0.0635274
-0.0661866
-0.0686998
-0.0710537
-0.0732362
-0.0752358
-0.0770422
-0.0786462
-0.0800394
-0.0812146
-0.0821657
-0.0828876
-0.0833764
-0.0836292
-0.0836445
-0.0834215
-0.0829611
-0.082265
-0.0813363
-0.0801792
-0.0787991
-0.0772027
-0.0753978
-0.0733934
-0.0711998
-0.0688283
-0.0662916
-0.0636032
-0.0607779
-0.0578314
-0.0547805
-0.0516427
-0.0484366
-0.0451813
-0.0418965
-0.0386026
-0.0353202
-0.0320703
-0.0288739
-0.0257518
-0.0227248
-0.0198131
-0.0170365
-0.0144137
-0.0119627
-0.00970037
-0.00764232
-0.00580282
-0.00419489
-0.00283034
-0.00171903
-0.000868345
-0.000296071
-4.15964e-05
-4.96987e-05
-0.00034774
-0.00101116
-0.0019881
-0.00325248
-0.00479118
-0.00658897
-0.00862918
-0.0108947
-0.0133675
-0.0160293
-0.0188607
-0.021842
-0.0249529
-0.0281726
-0.0314804
-0.0348552
-0.0382761
-0.0417221
-0.0451728
-0.0486077
-0.0520073
-0.0553522
-0.0586237
-0.061804
-0.0648759
-0.0678229
-0.0706297
-0.0732814
-0.0757645
-0.0780662
-0.0801748
-0.0820796
-0.0837709
-0.0852402
-0.0864799
-0.0874838
-0.0882465
-0.0887639
-0.0890331
-0.0890523
-0.088821
-0.0883398
-0.0876105
-0.0866362
-0.0854213
-0.0839713
-0.082293
-0.0803945
-0.0782852
-0.0759756
-0.0734773
-0.0708035
-0.0679681
-0.0649865
-0.061875
-0.0586509
-0.0553325
-0.051939
-0.0484903
-0.045007
-0.0415103
-0.0380219
-0.0345637
-0.0311577
-0.027826
-0.0245904
-0.0214727
-0.0184936
-0.0156737
-0.0130324
-0.0105883
-0.00835884
-0.00636033
-0.00460799
-0.00311605
-0.00189689
-0.000960434
-0.000328362
-4.63675e-05
-5.4453e-05
-0.000379867
-0.0011027
-0.00216477
-0.00353603
-0.00520073
-0.00714105
-0.00933782
-0.0117716
-0.0144225
-0.0172701
-0.0202934
-0.0234712
-0.0267816
-0.0302028
-0.0337127
-0.0372892
-0.0409103
-0.0445543
-0.0481996
-0.0518253
-0.0554108
-0.058936
-0.0623819
-0.0657297
-0.0689618
-0.0720612
-0.0750119
-0.0777988
-0.0804079
-0.0828258
-0.0850407
-0.0870415
-0.0888181
-0.0903618
-0.0916648
-0.0927206
-0.0935237
-0.0940698
-0.0943558
-0.09438
-0.0941417
-0.0936415
-0.0928812
-0.0918639
-0.0905941
-0.0890775
-0.0873209
-0.0853326
-0.0831223
-0.0807006
-0.0780797
-0.0752729
-0.0722946
-0.0691607
-0.065888
-0.0624943
-0.0589986
-0.0554207
-0.0517814
-0.048102
-0.0444047
-0.0407119
-0.0370467
-0.0334322
-0.0298915
-0.026448
-0.0231243
-0.019943
-0.016926
-0.0140945
-0.0114688
-0.00906825
-0.00691128
-0.00501535
-0.00339708
-0.00207133
-0.00105044
-0.000359771
-5.09621e-05
-5.90451e-05
-0.000411107
-0.00119202
-0.00233757
-0.00381396
-0.00560295
-0.00768416
-0.010036
-0.0126367
-0.0154643
-0.0184965
-0.0217105
-0.0250835
-0.0285922
-0.0322134
-0.0359238
-0.0397003
-0.0435197
-0.0473594
-0.0511971
-0.0550109
-0.0587796
-0.0624825
-0.0660997
-0.0696121
-0.0730014
-0.0762502
-0.079342
-0.0822613
-0.0849935
-0.0875254
-0.0898443
-0.0919391
-0.0937994
-0.0954162
-0.0967816
-0.0978887
-0.098732
-0.099307
-0.0996106
-0.0996408
-0.099397
-0.0988795
-0.0980904
-0.0970327
-0.0957108
-0.0941305
-0.0922989
-0.0902243
-0.0879165
-0.0853864
-0.0826465
-0.0797103
-0.0765927
-0.0733099
-0.0698792
-0.0663189
-0.0626487
-0.0588889
-0.0550611
-0.0511875
-0.047291
-0.043395
-0.0395237
-0.0357011
-0.0319519
-0.0283003
-0.0247707
-0.021387
-0.0181727
-0.0151508
-0.0123434
-0.00977195
-0.00745691
-0.00541801
-0.00367427
-0.00224296
-0.00113874
-0.000390465
-5.54162e-05
-6.35044e-05
-0.000441603
-0.00127943
-0.00250702
-0.004087
-0.00599872
-0.00821935
-0.0107248
-0.0134912
-0.0164943
-0.01971
-0.0231136
-0.0266807
-0.0303866
-0.0342066
-0.0381162
-0.0420911
-0.0461072
-0.0501409
-0.054169
-0.0581689
-0.0621185
-0.0659966
-0.0697828
-0.0734572
-0.0770012
-0.0803968
-0.0836272
-0.0866765
-0.0895299
-0.0921735
-0.0945947
-0.0967819
-0.0987247
-0.100414
-0.101841
-0.102999
-0.103882
-0.104487
-0.104809
-0.104846
-0.104598
-0.104065
-0.10325
-0.102154
-0.100783
-0.0991415
-0.0972379
-0.0950802
-0.0926782
-0.0900431
-0.0871875
-0.0841252
-0.0808715
-0.0774428
-0.0738568
-0.0701326
-0.0662901
-0.0623505
-0.058336
-0.0542695
-0.0501748
-0.0460764
-0.0419993
-0.0379689
-0.0340109
-0.030151
-0.026415
-0.0228284
-0.0194163
-0.0162036
-0.0132143
-0.0104718
-0.00799878
-0.00581726
-0.00394862
-0.00241249
-0.00122576
-0.000420621
-5.97645e-05
-6.78584e-05
-0.000471493
-0.00136528
-0.00267371
-0.00435595
-0.00638906
-0.00874779
-0.0114057
-0.0143366
-0.0175142
-0.0209124
-0.0245047
-0.028265
-0.032167
-0.0361848
-0.0402925
-0.0444646
-0.048676
-0.0529021
-0.057119
-0.0613031
-0.0654318
-0.0694831
-0.073436
-0.0772704
-0.0809668
-0.0845071
-0.0878741
-0.0910514
-0.0940239
-0.0967776
-0.0992996
-0.101578
-0.103602
-0.105362
-0.106851
-0.10806
-0.108984
-0.109618
-0.109959
-0.110005
-0.109755
-0.109208
-0.108368
-0.107237
-0.105819
-0.10412
-0.102147
-0.0999094
-0.0974163
-0.0946794
-0.0917112
-0.0885259
-0.0851389
-0.0815671
-0.0778285
-0.0739426
-0.0699299
-0.0658121
-0.0616122
-0.0573538
-0.0530616
-0.0487611
-0.0444784
-0.0402399
-0.0360727
-0.032004
-0.0280609
-0.0242705
-0.02066
-0.0172557
-0.0140838
-0.0111699
-0.00853868
-0.00621455
-0.00422124
-0.00258068
-0.00131195
-0.000450417
-6.40406e-05
-7.21323e-05
-0.000500914
-0.0014499
-0.00283819
-0.00462163
-0.00677503
-0.0092708
-0.0120802
-0.0151746
-0.0185259
-0.0221057
-0.0258859
-0.0298386
-0.0339359
-0.0381506
-0.0424554
-0.0468236
-0.0512291
-0.0556464
-0.0600505
-0.0644173
-0.0687233
-0.072946
-0.0770638
-0.0810561
-0.0849031
-0.0885862
-0.0920878
-0.0953913
-0.0984813
-0.101344
-0.103965
-0.106333
-0.108438
-0.110269
-0.111818
-0.113078
-0.114043
-0.114708
-0.115069
-0.115125
-0.114874
-0.114316
-0.113453
-0.112289
-0.110827
-0.109073
-0.107034
-0.104719
-0.102138
-0.0993026
-0.0962249
-0.0929196
-0.0894021
-0.0856898
-0.0818009
-0.0777554
-0.0735743
-0.0692799
-0.0648957
-0.0604462
-0.0559571
-0.0514546
-0.046966
-0.0425191
-0.038142
-0.0338635
-0.0297122
-0.0257171
-0.0219069
-0.01831
-0.0149547
-0.0118685
-0.00907854
-0.00661143
-0.00449328
-0.00274832
-0.00139774
-0.000480027
-6.82761e-05
-7.63493e-05
-0.000529994
-0.00153362
-0.00300104
-0.00488487
-0.00715773
-0.00978972
-0.0127497
-0.016007
-0.0195312
-0.023292
-0.0272595
-0.0314039
-0.0356959
-0.0401066
-0.0446076
-0.049171
-0.0537696
-0.0583768
-0.0629668
-0.0675147
-0.0719964
-0.0763889
-0.0806699
-0.0848182
-0.088814
-0.092638
-0.0962724
-0.0997004
-0.102906
-0.105876
-0.108595
-0.111053
-0.113237
-0.115138
-0.116748
-0.11806
-0.119066
-0.119762
-0.120145
-0.120211
-0.119961
-0.119394
-0.118511
-0.117316
-0.115812
-0.114006
-0.111905
-0.109516
-0.10685
-0.103919
-0.100735
-0.0973121
-0.0936671
-0.0898168
-0.08578
-0.0815769
-0.0772291
-0.0727594
-0.068192
-0.0635522
-0.0588664
-0.054162
-0.0494672
-0.0448111
-0.0402232
-0.0357338
-0.0313731
-0.0271718
-0.0231606
-0.0193697
-0.0158296
-0.01257
-0.00962035
-0.00700949
-0.00476593
-0.00291621
-0.00148358
-0.000509625
-7.25011e-05
-8.05307e-05
-0.000558852
-0.00161674
-0.00316281
-0.00514649
-0.00753824
-0.0103059
-0.013416
-0.0168356
-0.0205322
-0.0244735
-0.0286277
-0.0329633
-0.0374494
-0.0420556
-0.046752
-0.0515096
-0.0563001
-0.061096
-0.0658706
-0.0705982
-0.0752541
-0.0798146
-0.084257
-0.0885597
-0.0927022
-0.0966654
-0.100431
-0.103982
-0.107302
-0.110377
-0.113194
-0.115739
-0.118002
-0.119974
-0.121644
-0.123007
-0.124055
-0.124783
-0.125188
-0.125268
-0.12502
-0.124445
-0.123545
-0.122321
-0.120779
-0.118924
-0.116763
-0.114304
-0.111556
-0.108532
-0.105245
-0.101708
-0.0979386
-0.093953
-0.0897707
-0.0854122
-0.0808995
-0.076256
-0.0715064
-0.0666769
-0.0617947
-0.0568882
-0.0519867
-0.0471206
-0.042321
-0.0376193
-0.0330477
-0.0286386
-0.0244246
-0.0204381
-0.0167115
-0.013277
-0.0101662
-0.00741033
-0.00504038
-0.00308513
-0.00156991
-0.000539374
-7.67439e-05
-8.46958e-05
-0.000587602
-0.00169956
-0.00332403
-0.00540726
-0.00791761
-0.0108206
-0.0140805
-0.0176622
-0.0215309
-0.0256524
-0.029993
-0.0345193
-0.0391989
-0.0439998
-0.0488909
-0.0538419
-0.0588233
-0.0638066
-0.0687644
-0.0736702
-0.0784986
-0.0832253
-0.0878272
-0.0922824
-0.0965699
-0.10067
-0.104565
-0.108237
-0.11167
-0.114849
-0.117762
-0.120394
-0.122736
-0.124776
-0.126508
-0.127921
-0.129012
-0.129773
-0.130202
-0.130295
-0.130052
-0.129472
-0.128557
-0.127308
-0.125731
-0.123829
-0.121611
-0.119085
-0.116259
-0.113147
-0.109759
-0.106112
-0.10222
-0.0981023
-0.093777
-0.0892654
-0.0845897
-0.0797739
-0.0748433
-0.0698249
-0.0647466
-0.0596378
-0.0545293
-0.0494524
-0.0444396
-0.0395243
-0.0347401
-0.0301213
-0.0257024
-0.0215182
-0.0176032
-0.0139917
-0.010718
-0.00781554
-0.00531779
-0.00325585
-0.00165715
-0.000569436
-8.10315e-05
-8.88624e-05
-0.000616349
-0.00178236
-0.0034852
-0.00566796
-0.00829685
-0.0113352
-0.0147448
-0.0184885
-0.0225292
-0.0268307
-0.0313573
-0.0360741
-0.0409467
-0.0459417
-0.0510266
-0.05617
-0.0613411
-0.0665106
-0.0716501
-0.0767324
-0.0817315
-0.0866226
-0.091382
-0.0959875
-0.100418
-0.104653
-0.108675
-0.112466
-0.11601
-0.119292
-0.122299
-0.125017
-0.127436
-0.129546
-0.131337
-0.132803
-0.133936
-0.134731
-0.135185
-0.135294
-0.135058
-0.134475
-0.133547
-0.132276
-0.130666
-0.128722
-0.126451
-0.123861
-0.120961
-0.117763
-0.114279
-0.110525
-0.106515
-0.102267
-0.097802
-0.0931398
-0.0883033
-0.083317
-0.0782068
-0.0730002
-0.0677263
-0.0624154
-0.0570992
-0.0518106
-0.0465836
-0.0414529
-0.0364542
-0.0316236
-0.0269977
-0.0226133
-0.0185074
-0.0147168
-0.0112778
-0.00822669
-0.0055993
-0.00342912
-0.00174571
-0.000599964
-8.53891e-05
-9.30468e-05
-0.000645191
-0.0018654
-0.00364679
-0.00592927
-0.00867693
-0.0118508
-0.0154104
-0.0193161
-0.0235289
-0.0280104
-0.0327229
-0.0376297
-0.0426948
-0.0478833
-0.0531613
-0.0584958
-0.0638554
-0.0692096
-0.0745291
-0.079786
-0.0849538
-0.090007
-0.0949217
-0.0996752
-0.104246
-0.108614
-0.112761
-0.116669
-0.120322
-0.123705
-0.126804
-0.129607
-0.132102
-0.13428
-0.136131
-0.137649
-0.138825
-0.139655
-0.140135
-0.140262
-0.140034
-0.13945
-0.138512
-0.137222
-0.135583
-0.1336
-0.13128
-0.12863
-0.12566
-0.122381
-0.118805
-0.114947
-0.110823
-0.10645
-0.101848
-0.0970376
-0.0920429
-0.0868881
-0.0815999
-0.0762064
-0.0707375
-0.0652246
-0.0597005
-0.0541994
-0.0487568
-0.0434091
-0.0381939
-0.0331491
-0.0283137
-0.0237265
-0.019427
-0.0154544
-0.0118475
-0.00864531
-0.00588604
-0.00360568
-0.00183599
-0.000631106
-8.98412e-05
-9.72639e-05
-0.000674219
-0.00194892
-0.00380925
-0.00619189
-0.00905877
-0.0123686
-0.0160785
-0.0201466
-0.0245317
-0.0291932
-0.0340916
-0.0391882
-0.0444453
-0.0498265
-0.0552965
-0.0608211
-0.0663676
-0.0719047
-0.0774022
-0.0828316
-0.0881656
-0.0933785
-0.0984458
-0.103345
-0.108053
-0.112551
-0.116821
-0.120843
-0.124602
-0.128084
-0.131274
-0.13416
-0.13673
-0.138975
-0.140886
-0.142454
-0.143674
-0.14454
-0.145047
-0.145193
-0.144976
-0.144394
-0.14345
-0.142144
-0.140479
-0.138462
-0.136096
-0.133391
-0.130355
-0.126999
-0.123336
-0.119379
-0.115144
-0.110649
-0.105914
-0.10096
-0.09581
-0.0904894
-0.0850252
-0.0794463
-0.0737834
-0.0680688
-0.0623366
-0.0566224
-0.050963
-0.0453967
-0.0399628
-0.0347015
-0.0296537
-0.0248608
-0.0203646
-0.0162069
-0.0124292
-0.00907288
-0.00617907
-0.00378623
-0.00192838
-0.000663004
-9.44108e-05
-0.000101528
-0.000703519
-0.00203316
-0.00397299
-0.00645645
-0.00944322
-0.0128896
-0.0167505
-0.0209815
-0.0255392
-0.030381
-0.0354652
-0.0407512
-0.0461999
-0.0517729
-0.0574337
-0.0631469
-0.0688786
-0.0745965
-0.0802697
-0.085869
-0.0913665
-0.096736
-0.101953
-0.106994
-0.111837
-0.116462
-0.12085
-0.124984
-0.128847
-0.132424
-0.135703
-0.138669
-0.141313
-0.143624
-0.145593
-0.147213
-0.148477
-0.149379
-0.149915
-0.150082
-0.149877
-0.149301
-0.148353
-0.147034
-0.145348
-0.1433
-0.140894
-0.138139
-0.135042
-0.131614
-0.127868
-0.123817
-0.119477
-0.114865
-0.110001
-0.104907
-0.0996052
-0.0941218
-0.0884842
-0.0827219
-0.0768663
-0.0709509
-0.0650107
-0.0590828
-0.0532056
-0.047419
-0.0417644
-0.0362839
-0.0310209
-0.0260191
-0.0213228
-0.0169765
-0.0130245
-0.00951084
-0.00647946
-0.00397146
-0.00202324
-0.000695797
-9.91202e-05
-0.000105851
-0.00073317
-0.00211832
-0.00413843
-0.00672355
-0.00983112
-0.013415
-0.0174276
-0.0218222
-0.026553
-0.0315752
-0.0368452
-0.0423204
-0.0479598
-0.0537237
-0.059574
-0.065474
-0.0713888
-0.0772851
-0.0831312
-0.0888973
-0.094555
-0.100078
-0.10544
-0.110619
-0.115593
-0.120341
-0.124845
-0.129086
-0.13305
-0.13672
-0.140084
-0.143129
-0.145845
-0.14822
-0.150247
-0.151917
-0.153225
-0.154163
-0.154729
-0.154919
-0.15473
-0.154161
-0.153212
-0.151885
-0.150182
-0.148108
-0.145667
-0.142866
-0.139714
-0.13622
-0.132397
-0.128258
-0.123818
-0.119094
-0.114107
-0.108877
-0.103428
-0.0977853
-0.0919775
-0.0860343
-0.079988
-0.0738728
-0.0677253
-0.0615835
-0.0554875
-0.0494792
-0.0436017
-0.0378995
-0.0324182
-0.027204
-0.022304
-0.0177654
-0.0136352
-0.00996059
-0.00678822
-0.00416203
-0.00212094
-0.000729616
-0.000103991
-0.000110247
-0.00076325
-0.00220463
-0.00430593
-0.00699377
-0.0102232
-0.0139457
-0.018111
-0.0226699
-0.0275744
-0.0327774
-0.0382331
-0.0438971
-0.0497265
-0.05568
-0.061718
-0.0678027
-0.0738981
-0.0799699
-0.0859857
-0.091915
-0.0977289
-0.103401
-0.108905
-0.114218
-0.119318
-0.124184
-0.128799
-0.133144
-0.137204
-0.140963
-0.144409
-0.14753
-0.150314
-0.152752
-0.154835
-0.156555
-0.157906
-0.158882
-0.159479
-0.159693
-0.159521
-0.158963
-0.158018
-0.156686
-0.154971
-0.152876
-0.150405
-0.147565
-0.144363
-0.14081
-0.136916
-0.132695
-0.128162
-0.123333
-0.118227
-0.112867
-0.107276
-0.101479
-0.0955046
-0.0893837
-0.0831492
-0.0768362
-0.0704821
-0.0641266
-0.0578114
-0.05158
-0.0454777
-0.0395511
-0.0338483
-0.0284183
-0.0233106
-0.0185756
-0.0142631
-0.0104235
-0.00710635
-0.00435859
-0.00222184
-0.000764594
-0.000109045
-0.000114726
-0.000793833
-0.00229227
-0.00447587
-0.00726769
-0.0106204
-0.0144827
-0.0188018
-0.023526
-0.0286048
-0.0339889
-0.0396302
-0.0454823
-0.0515007
-0.0576423
-0.0638661
-0.070133
-0.076406
-0.0826498
-0.0888313
-0.0949195
-0.100885
-0.106701
-0.112341
-0.117783
-0.123004
-0.127984
-0.132704
-0.137148
-0.141299
-0.145144
-0.148668
-0.15186
-0.154711
-0.157208
-0.159345
-0.161114
-0.162508
-0.163522
-0.16415
-0.16439
-0.164238
-0.163694
-0.162755
-0.161424
-0.159702
-0.157591
-0.155096
-0.152224
-0.14898
-0.145374
-0.141417
-0.137121
-0.132501
-0.127574
-0.122358
-0.116874
-0.111146
-0.1052
-0.0990639
-0.0927695
-0.0863499
-0.0798414
-0.0732824
-0.066714
-0.0601793
-0.0537238
-0.0473948
-0.0412413
-0.0353139
-0.0296642
-0.0243449
-0.019409
-0.0149099
-0.0109008
-0.0074348
-0.00456179
-0.00232627
-0.000800857
-0.000114301
-0.000119301
-0.000824993
-0.00238145
-0.00464862
-0.00754584
-0.0110232
-0.0150268
-0.019501
-0.0243916
-0.0296454
-0.0352108
-0.0410375
-0.0470772
-0.0532832
-0.0596111
-0.0660182
-0.0724644
-0.0789113
-0.085323
-0.0916657
-0.0979077
-0.10402
-0.109974
-0.115745
-0.121309
-0.126645
-0.131732
-0.136552
-0.141088
-0.145325
-0.149249
-0.152847
-0.156107
-0.159019
-0.161574
-0.163763
-0.165579
-0.167015
-0.168066
-0.168727
-0.168994
-0.168865
-0.168337
-0.16741
-0.166084
-0.164359
-0.162239
-0.159728
-0.156829
-0.153551
-0.1499
-0.145888
-0.141526
-0.136828
-0.13181
-0.126491
-0.120891
-0.115033
-0.108944
-0.102653
-0.0961896
-0.0895892
-0.0828883
-0.0761267
-0.0693465
-0.0625927
-0.0559124
-0.0493551
-0.0429724
-0.0368172
-0.0309441
-0.0254088
-0.0202676
-0.0155771
-0.0113939
-0.00777452
-0.00477223
-0.00243457
-0.000838532
-0.000119781
-0.000123983
-0.000856802
-0.00247237
-0.00482453
-0.00782877
-0.0114325
-0.0155789
-0.0202097
-0.0252677
-0.0306973
-0.0364442
-0.0424561
-0.0486824
-0.0550745
-0.0615864
-0.068174
-0.0747957
-0.0814123
-0.0879871
-0.0944855
-0.100876
-0.107127
-0.113213
-0.119108
-0.124787
-0.130231
-0.135418
-0.140331
-0.144953
-0.149269
-0.153267
-0.156932
-0.160255
-0.163225
-0.165833
-0.168071
-0.169931
-0.171408
-0.172496
-0.17319
-0.173487
-0.173382
-0.172875
-0.171963
-0.170646
-0.168926
-0.166803
-0.164282
-0.161365
-0.15806
-0.154374
-0.150316
-0.145897
-0.14113
-0.136031
-0.130617
-0.12491
-0.118931
-0.112707
-0.106267
-0.099641
-0.0928648
-0.0859758
-0.0790145
-0.0720246
-0.0650525
-0.0581473
-0.0513606
-0.0447463
-0.0383604
-0.0322602
-0.0265046
-0.0211532
-0.0162663
-0.011904
-0.00812645
-0.00499054
-0.00254709
-0.000877745
-0.000125506
-0.000128785
-0.000889336
-0.00256523
-0.00500398
-0.00811704
-0.011849
-0.0161401
-0.0209289
-0.0261556
-0.0317616
-0.0376903
-0.0438868
-0.0502985
-0.0568748
-0.063568
-0.0703325
-0.0771255
-0.0839069
-0.090639
-0.0972868
-0.103818
-0.110202
-0.116412
-0.122422
-0.128209
-0.133751
-0.13903
-0.144028
-0.148728
-0.153116
-0.15718
-0.160906
-0.164286
-0.167308
-0.169965
-0.172248
-0.174151
-0.175667
-0.176791
-0.177519
-0.177845
-0.177768
-0.177284
-0.176392
-0.175091
-0.17338
-0.171262
-0.168739
-0.165814
-0.162492
-0.158779
-0.154685
-0.150219
-0.145394
-0.140225
-0.134727
-0.128922
-0.122832
-0.116482
-0.1099
-0.103119
-0.0961737
-0.0891016
-0.0819448
-0.074748
-0.0675592
-0.0604294
-0.0534126
-0.046565
-0.0399453
-0.0336143
-0.0276339
-0.0220676
-0.016979
-0.0124323
-0.0084915
-0.00521734
-0.00266417
-0.000918623
-0.000131496
-0.000133718
-0.000922674
-0.00266024
-0.00518736
-0.00841124
-0.0122734
-0.0167111
-0.0216597
-0.0270563
-0.0328395
-0.03895
-0.0453304
-0.0519259
-0.0586841
-0.0655553
-0.0724925
-0.0794518
-0.0863921
-0.0932749
-0.100065
-0.106729
-0.113237
-0.119562
-0.125678
-0.131563
-0.137195
-0.142556
-0.147628
-0.152397
-0.156849
-0.16097
-0.164751
-0.16818
-0.171248
-0.173949
-0.176273
-0.178214
-0.179767
-0.180927
-0.181687
-0.182045
-0.181998
-0.181541
-0.180673
-0.179393
-0.1777
-0.175594
-0.173077
-0.170153
-0.166824
-0.163096
-0.158977
-0.154477
-0.149605
-0.144377
-0.138807
-0.132916
-0.126725
-0.120259
-0.113546
-0.106619
-0.0995111
-0.0922625
-0.0849152
-0.0775154
-0.0701124
-0.0627593
-0.055512
-0.0484296
-0.0415737
-0.0350082
-0.0287987
-0.0230123
-0.0177166
-0.01298
-0.0088706
-0.00545323
-0.00278614
-0.000961295
-0.000137773
-0.000138797
-0.0009569