/*--------------------------------*- C++ -*----------------------------------*\
| =========                 |                                                 |
| \\      /  F ield         | OpenFOAM: The Open Source CFD Toolbox           |
|  \\    /   O peration     | Version:  2506                                  |
|   \\  /    A nd           | Website:  www.openfoam.com                      |
|    \\/     M anipulation  |                                                 |
\*---------------------------------------------------------------------------*/
FoamFile
{
    version     2.0;
    format      ascii;
    arch        "LSB;label=32;scalar=64";
    class       volScalarField;
    location    "0.875";
    object      Uy;
}
// * * * * * * * * * * * * * * * * * * * * * * * * * * * * * * * * * * * * * //

dimensions      [0 1 -1 0 0 0 0];

internalField   nonuniform List<scalar> 
6400
(
-7.25895e-06
-1.44538e-05
-1.41839e-05
-9.741e-06
-3.43061e-06
3.54407e-06
1.05678e-05
1.73218e-05
2.36433e-05
2.94506e-05
3.47054e-05
3.93927e-05
4.35114e-05
4.70682e-05
5.00749e-05
5.25467e-05
5.45007e-05
5.59555e-05
5.69307e-05
5.74464e-05
5.75229e-05
5.71809e-05
5.64409e-05
5.53236e-05
5.38494e-05
5.20388e-05
4.99119e-05
4.7489e-05
4.47901e-05
4.1835e-05
3.86438e-05
3.52363e-05
3.16325e-05
2.78525e-05
2.39166e-05
1.98451e-05
1.5659e-05
1.13793e-05
7.02728e-06
2.62497e-06
-1.80539e-06
-6.24103e-06
-1.06587e-05
-1.50347e-05
-1.93447e-05
-2.35643e-05
-2.76681e-05
-3.16309e-05
-3.54269e-05
-3.903e-05
-4.24141e-05
-4.55531e-05
-4.84208e-05
-5.09913e-05
-5.32391e-05
-5.51389e-05
-5.66663e-05
-5.77975e-05
-5.85097e-05
-5.87813e-05
-5.85917e-05
-5.7922e-05
-5.67546e-05
-5.50742e-05
-5.28671e-05
-5.01225e-05
-4.6832e-05
-4.2991e-05
-3.85989e-05
-3.36619e-05
-2.81949e-05
-2.22276e-05
-1.58142e-05
-9.05204e-06
-2.12066e-06
4.64569e-06
1.06214e-05
1.46091e-05
1.4363e-05
6.87357e-06
-2.98312e-05
-5.15243e-05
-4.41007e-05
-1.91135e-05
1.53151e-05
5.41506e-05
9.43109e-05
0.000133905
0.000171772
0.000207195
0.000239735
0.000269131
0.000295237
0.000317988
0.000337374
0.000353422
0.000366189
0.000375752
0.000382203
0.000385645
0.000386191
0.000383957
0.000379068
0.000371647
0.000361824
0.000349729
0.000335492
0.000319247
0.000301125
0.000281261
0.000259791
0.000236848
0.000212571
0.000187098
0.000160567
0.00013312
0.000104902
7.60559e-05
4.67316e-05
1.70792e-05
-1.2748e-05
-4.25939e-05
-7.22994e-05
-0.000101703
-0.00013064
-0.000158944
-0.000186445
-0.000212973
-0.000238356
-0.000262421
-0.000284995
-0.000305905
-0.00032498
-0.000342053
-0.000356957
-0.000369531
-0.000379621
-0.000387077
-0.000391759
-0.000393537
-0.000392289
-0.00038791
-0.000380305
-0.000369402
-0.000355143
-0.000337497
-0.000316463
-0.000292071
-0.000264401
-0.000233591
-0.000199861
-0.000163552
-0.000125183
-8.55464e-05
-4.587e-05
-8.09232e-06
2.46983e-05
4.75474e-05
5.26099e-05
2.92256e-05
-5.9457e-05
-8.9956e-05
-6.0509e-05
6.71815e-06
9.62999e-05
0.000197573
0.000303299
0.000408638
0.000510362
0.000606326
0.000695113
0.000775805
0.000847835
0.000910878
0.000964791
0.00100956
0.00104526
0.00107205
0.00109015
0.00109979
0.00110126
0.00109487
0.00108095
0.00105983
0.00103186
0.000997414
0.000956848
0.000910536
0.000858854
0.000802183
0.000740908
0.000675418
0.000606106
0.000533368
0.000457607
0.00037923
0.000298652
0.000216292
0.000132577
4.79406e-05
-3.71752e-05
-0.000122322
-0.000207042
-0.000290873
-0.000373343
-0.000453977
-0.000532292
-0.000607801
-0.000680017
-0.00074845
-0.000812609
-0.00087201
-0.000926172
-0.000974621
-0.0010169
-0.00105255
-0.00108116
-0.00110231
-0.00111561
-0.00112073
-0.00111734
-0.00110516
-0.00108396
-0.00105358
-0.0010139
-0.000964895
-0.000906618
-0.000839249
-0.00076311
-0.000678711
-0.00058682
-0.00048855
-0.000385512
-0.000280026
-0.00017546
-7.67368e-05
8.94082e-06
7.11365e-05
9.50109e-05
5.98419e-05
-8.12519e-05
-0.00010447
-3.52038e-05
9.37052e-05
0.000259479
0.000445559
0.000640072
0.000834654
0.00102345
0.00120237
0.0013686
0.00152023
0.00165601
0.00177516
0.00187728
0.00196221
0.00203001
0.00208089
0.00211519
0.00213332
0.00213578
0.00212313
0.00209595
0.00205489
0.0020006
0.00193376
0.00185507
0.00176523
0.00166498
0.00155505
0.00143618
0.00130912
0.00117465
0.00103352
0.000886536
0.000734481
0.000578164
0.000418406
0.000256037
9.19049e-05
-7.31309e-05
-0.000238196
-0.000402403
-0.000564851
-0.000724626
-0.000880805
-0.00103246
-0.00117864
-0.00131841
-0.00145082
-0.00157494
-0.00168983
-0.00179457
-0.00188826
-0.00197001
-0.00203899
-0.00209438
-0.0021354
-0.00216136
-0.00217159
-0.00216553
-0.00214266
-0.00210261
-0.00204509
-0.00196995
-0.0018772
-0.00176706
-0.00163996
-0.00149665
-0.00133822
-0.0011663
-0.00098313
-0.000791872
-0.000596901
-0.000404301
-0.00022255
-6.34457e-05
5.68188e-05
0.000116297
8.39109e-05
-8.71118e-05
-7.96053e-05
4.99643e-05
0.000259822
0.000520553
0.000810084
0.00111201
0.00141432
0.0017083
0.00198766
0.0022479
0.00248588
0.00269944
0.00288719
0.00304832
0.00318243
0.00328951
0.00336977
0.00342365
0.00345176
0.00345482
0.00343366
0.00338921
0.00332243
0.00323435
0.00312606
0.00299865
0.00285327
0.00269106
0.00251321
0.00232092
0.0021154
0.0018979
0.00166965
0.00143194
0.00118605
0.000933287
0.000674984
0.000412491
0.00014718
-0.000119556
-0.000386301
-0.000651618
-0.00091405
-0.00117212
-0.00142434
-0.00166921
-0.00190521
-0.00213083
-0.00234455
-0.00254487
-0.00273029
-0.00289934
-0.00305058
-0.00318262
-0.00329411
-0.00338377
-0.0034504
-0.00349288
-0.00351021
-0.00350149
-0.003466
-0.00340316
-0.00331259
-0.00319414
-0.00304792
-0.00287439
-0.00267435
-0.00244914
-0.00220064
-0.00193156
-0.00164556
-0.00134763
-0.00104449
-0.000745182
-0.000461872
-0.000210879
-1.3826e-05
0.000100838
9.32124e-05
-7.38286e-05
-7.41385e-06
0.000205544
0.00051663
0.000890879
0.00130135
0.00172745
0.00215366
0.00256838
0.002963
0.00333121
0.00366844
0.0039715
0.00423822
0.00446729
0.00465798
0.00481012
0.00492391
0.00499985
0.00503873
0.00504151
0.00500932
0.00494344
0.00484524
0.00471616
0.00455774
0.00437155
0.00415923
0.00392245
0.00366291
0.00338236
0.00308256
0.00276531
0.00243244
0.00208579
0.00172726
0.00135874
0.000982186
0.000599565
0.000212879
-0.000175837
-0.000564519
-0.000951073
-0.00133338
-0.00170929
-0.00207664
-0.00243324
-0.00277691
-0.00310544
-0.00341664
-0.00370834
-0.00397838
-0.00422464
-0.00444505
-0.00463762
-0.00480041
-0.00493161
-0.0050295
-0.00509252
-0.00511925
-0.00510847
-0.00505919
-0.00497064
-0.00484236
-0.00467424
-0.00446656
-0.00422008
-0.00393611
-0.00361667
-0.00326463
-0.00288392
-0.00247982
-0.00205931
-0.00163158
-0.00120868
-0.00080637
-0.000445174
-0.000151572
4.04715e-05
8.43894e-05
-4.01567e-05
0.000116293
0.000437799
0.000871447
0.00137794
0.00192625
0.00249211
0.00305676
0.00360586
0.00412849
0.00461647
0.00506376
0.00546602
0.00582024
0.00612449
0.00637767
0.00657936
0.00672972
0.0068293
0.00687904
0.00688015
0.00683409
0.0067425
0.00660718
0.00643005
0.00621314
0.00595857
0.00566853
0.00534527
0.0049911
0.00460837
0.00419948
0.00376688
0.00331304
0.0028405
0.00235181
0.00184957
0.00133644
0.0008151
0.000288276
-0.000241258
-0.000770695
-0.00129718
-0.00181784
-0.00232975
-0.00282998
-0.00331555
-0.0037835
-0.00423086
-0.00465466
-0.00505195
-0.00541984
-0.00575547
-0.00605606
-0.00631893
-0.0065415
-0.00672133
-0.00685617
-0.00694393
-0.00698276
-0.00697107
-0.0069076
-0.0067914
-0.00662195
-0.0063992
-0.00612365
-0.00579642
-0.00541944
-0.00499551
-0.00452858
-0.00402393
-0.00348852
-0.00293142
-0.00236428
-0.00180205
-0.00126384
-0.000773933
-0.000362944
-6.92194e-05
5.60686e-05
1.41628e-05
0.000293346
0.000750001
0.00132846
0.00198624
0.00268908
0.00340957
0.00412612
0.00482185
0.00548367
0.00610158
0.00666805
0.00717757
0.00762623
0.00801144
0.00833166
0.00858624
0.0087752
0.00889915
0.00895917
0.00895673
0.00889361
0.00877185
0.0085937
0.00836159
0.00807811
0.00774595
0.00736791
0.0069469
0.00648589
0.0059879
0.00545604
0.00489348
0.00430343
0.00368917
0.00305401
0.00240133
0.00173458
0.00105723
0.000372825
-0.00031504
-0.00100272
-0.00168653
-0.00236273
-0.00302755
-0.00367717
-0.00430779
-0.00491555
-0.00549662
-0.00604718
-0.00656344
-0.00704167
-0.0074782
-0.00786947
-0.00821204
-0.00850262
-0.00873811
-0.00891564
-0.00903257
-0.0090866
-0.00907574
-0.00899843
-0.00885357
-0.00864056
-0.00835946
-0.00801101
-0.00759678
-0.00711933
-0.00658234
-0.00599087
-0.00535161
-0.00467326
-0.00396689
-0.00324657
-0.00252994
-0.00183911
-0.00120163
-0.00065147
-0.000230268
7.89255e-06
8.88334e-05
0.000524037
0.00114332
0.00188956
0.0027181
0.00359219
0.0044819
0.00536318
0.00621692
0.00702804
0.00778484
0.00847835
0.00910189
0.00965068
0.0101214
0.0105122
0.0108219
0.0110507
0.011199
0.0112681
0.0112597
0.011176
0.0110194
0.0107926
0.0104987
0.0101407
0.00972208
0.0092462
0.00871668
0.00813722
0.0075116
0.00684368
0.00613742
0.00539683
0.004626
0.00382909
0.00301032
0.002174
0.00132448
0.000466194
-0.000396366
-0.00125865
-0.00211603
-0.00296386
-0.00379741
-0.00461195
-0.0054027
-0.00616487
-0.0068937
-0.00758443
-0.00823234
-0.00883281
-0.00938129
-0.00987336
-0.0103048
-0.0106715
-0.0109696
-0.0111957
-0.0113466
-0.0114193
-0.0114115
-0.0113214
-0.0111477
-0.0108897
-0.0105476
-0.0101224
-0.00961612
-0.00903203
-0.00837469
-0.0076503
-0.00686697
-0.00603506
-0.00516762
-0.00428091
-0.00339507
-0.00253482
-0.00173045
-0.00101856
-0.00044314
-5.99136e-05
0.00018328
0.000807745
0.00161754
0.00255504
0.0035742
0.00463647
0.00570991
0.00676846
0.00779108
0.00876092
0.00966473
0.0104922
0.0112356
0.0118892
0.0124491
0.0129129
0.0132794
0.0135483
0.0137202
0.0137967
0.0137796
0.0136715
0.0134752
0.0131939
0.0128313
0.0123911
0.0118772
0.011294
0.0106456
0.00993663
0.00917158
0.00835518
0.0074922
0.00658754
0.00564614
0.00467309
0.00367351
0.00265262
0.00161574
0.000568254
-0.000484385
-0.00153663
-0.00258289
-0.00361749
-0.00463471
-0.00562879
-0.00659395
-0.00752439
-0.00841432
-0.00925799
-0.0100497
-0.0107839
-0.011455
-0.0120577
-0.0125869
-0.0130378
-0.0134057
-0.0136865
-0.0138762
-0.0139715
-0.0139697
-0.0138684
-0.0136664
-0.0133627
-0.0129578
-0.012453
-0.0118506
-0.0111547
-0.0103707
-0.00950595
-0.00856987
-0.00757446
-0.0065346
-0.00546858
-0.00439871
-0.00335201
-0.00236096
-0.00146422
-0.000707359
-0.000146828
0.00029681
0.00114334
0.00217163
0.00332416
0.00455412
0.00582171
0.00709348
0.00834174
0.00954383
0.0106814
0.0117398
0.0127075
0.0135758
0.0143382
0.0149902
0.0155289
0.0159528
0.0162616
0.0164561
0.0165377
0.0165087
0.0163719
0.0161308
0.0157891
0.0153509
0.0148207
0.0142032
0.0135033
0.0127261
0.011877
0.0109612
0.00998446
0.00895238
0.00787078
0.00674557
0.00558274
0.00438841
0.0031688
0.00193022
0.000679053
-0.000578194
-0.00183494
-0.00308454
-0.00432025
-0.00553529
-0.00672282
-0.00787598
-0.00898789
-0.0100517
-0.0110606
-0.0120078
-0.0128868
-0.0136909
-0.014414
-0.01505
-0.0155931
-0.016038
-0.0163796
-0.0166135
-0.0167358
-0.0167431
-0.016633
-0.0164037
-0.0160545
-0.0155858
-0.0149991
-0.0142974
-0.0134853
-0.012569
-0.011557
-0.01046
-0.00929158
-0.00806816
-0.00680993
-0.00554111
-0.00429061
-0.00309273
-0.00198764
-0.00102194
-0.000252203
0.000428708
0.00152946
0.00280406
0.00419551
0.00565669
0.00714697
0.00863181
0.0100822
0.0114743
0.0127883
0.0140085
0.0151224
0.0161202
0.0169948
0.0177412
0.018356
0.0188376
0.0191856
0.0194008
0.0194849
0.0194404
0.0192707
0.0189795
0.0185712
0.0180506
0.0174228
0.0166932
0.0158676
0.0149519
0.0139522
0.0128749
0.0117264
0.0105134
0.00924263
0.00792095
0.00655539
0.00515309
0.0037213
0.00226738
0.000798811
-0.000676842
-0.0021519
-0.00361859
-0.00506908
-0.00649544
-0.00788971
-0.00924389
-0.01055
-0.0118
-0.012986
-0.0141001
-0.0151347
-0.0160821
-0.0169352
-0.0176868
-0.0183303
-0.0188594
-0.0192684
-0.0195521
-0.019706
-0.0197262
-0.0196099
-0.0193551
-0.0189611
-0.0184281
-0.0177581
-0.0169544
-0.0160221
-0.0149684
-0.0138028
-0.0125371
-0.0111862
-0.00976817
-0.00830474
-0.00682179
-0.00534986
-0.00392467
-0.00258753
-0.00138564
-0.000375362
0.000578279
0.00196466
0.00351311
0.00516736
0.0068803
0.00861083
0.0103236
0.0119888
0.0135813
0.0150805
0.0164695
0.0177351
0.0188666
0.0198565
0.0206991
0.0213908
0.0219299
0.022316
0.0225498
0.0226334
0.0225696
0.0223622
0.0220155
0.0215345
0.0209245
0.0201915
0.0193416
0.0183814
0.0173177
0.0161575
0.0149081
0.013577
0.0121716
0.0106998
0.0091696
0.00758893
0.00596602
0.00430922
0.00262699
0.000927906
-0.000779319
-0.00248587
-0.00418282
-0.00586115
-0.00751179
-0.00912557
-0.0106933
-0.0122059
-0.013654
-0.0150287
-0.0163209
-0.0175217
-0.0186226
-0.0196152
-0.0204913
-0.0212434
-0.0218643
-0.0223475
-0.0226868
-0.0228773
-0.0229146
-0.0227953
-0.0225172
-0.0220794
-0.0214823
-0.0207279
-0.0198199
-0.0187641
-0.0175682
-0.0162428
-0.0148007
-0.013258
-0.0116342
-0.00995239
-0.00823991
-0.00652863
-0.00485542
-0.00326241
-0.00179718
-0.000515654
0.000744883
0.00244753
0.00429697
0.00623781
0.00822312
0.0102116
0.0121675
0.01406
0.0158636
0.0175566
0.0191214
0.020544
0.0218134
0.0229212
0.0238616
0.0246307
0.0252268
0.0256493
0.0258994
0.0259792
0.0258921
0.0256421
0.0252343
0.0246742
0.0239679
0.023122
0.0221436
0.0210401
0.0198191
0.0184887
0.017057
0.0155325
0.0139239
0.0122398
0.0104894
0.00868172
0.00682611
0.004932
0.00300901
0.00106686
-0.000884555
-0.00283524
-0.00477508
-0.00669386
-0.00858126
-0.0104269
-0.0122204
-0.0139513
-0.0156093
-0.017184
-0.0186652
-0.0200429
-0.0213073
-0.0224489
-0.0234586
-0.0243277
-0.0250481
-0.0256123
-0.0260136
-0.0262461
-0.0263049
-0.0261862
-0.0258874
-0.0254075
-0.0247467
-0.0239072
-0.0228931
-0.0217105
-0.0203679
-0.0188766
-0.0172504
-0.0155066
-0.0136657
-0.0117521
-0.00979445
-0.00782564
-0.0058835
-0.00401081
-0.00225532
-0.000672492
0.000927946
0.00297675
0.00515394
0.00740499
0.00968329
0.0119475
0.0141616
0.0162945
0.0183197
0.0202152
0.0219627
0.0235478
0.0249588
0.0261871
0.0272266
0.0280735
0.0287256
0.0291829
0.0294465
0.029519
0.0294042
0.0291067
0.028632
0.0279864
0.0271767
0.0262104
0.0250954
0.0238399
0.0224525
0.0209423
0.0193184
0.0175904
0.0157677
0.0138605
0.0118787
0.00983255
0.00773257
0.00558934
0.00341362
0.00121634
-0.000991413
-0.00319843
-0.00539336
-0.00756473
-0.00970099
-0.0117905
-0.0138216
-0.0157826
-0.0176618
-0.0194477
-0.0211288
-0.0226938
-0.0241318
-0.0254321
-0.0265844
-0.0275791
-0.0284069
-0.0290594
-0.0295291
-0.0298094
-0.0298946
-0.0297804
-0.0294639
-0.0289437
-0.0282201
-0.0272952
-0.0261732
-0.0248609
-0.0233672
-0.021704
-0.0198861
-0.0179316
-0.0158621
-0.0137032
-0.0114844
-0.00923964
-0.00700754
-0.00483135
-0.00275895
-0.000845363
0.00112697
0.00355115
0.00608243
0.00866711
0.011259
0.0138169
0.0163045
0.0186906
0.0209482
0.023055
0.0249923
0.0267451
0.0283016
0.0296528
0.0307927
0.0317172
0.0324244
0.0329144
0.0331887
0.0332502
0.0331032
0.0327529
0.0322055
0.0314679
0.0305478
0.0294535
0.0281937
0.0267777
0.025215
0.0235157
0.0216899
0.0197482
0.0177013
0.0155602
0.0133361
0.0110405
0.00868494
0.00628117
0.00384119
0.00137714
-0.00109868
-0.00357381
-0.00603563
-0.0084714
-0.0108683
-0.0132134
-0.0154937
-0.0176962
-0.0198079
-0.021816
-0.0237078
-0.0254707
-0.0270924
-0.0285611
-0.0298653
-0.0309942
-0.0319375
-0.0326859
-0.0332308
-0.0335649
-0.0336817
-0.0335763
-0.0332454
-0.0326873
-0.0319019
-0.0308914
-0.0296603
-0.0282154
-0.0265662
-0.0247251
-0.0227077
-0.0205328
-0.0182232
-0.015805
-0.0133089
-0.0107696
-0.00822633
-0.00572285
-0.00330712
-0.00103385
0.00134153
0.0041697
0.00708103
0.0100226
0.0129486
0.015818
0.0185947
0.021247
0.023748
0.0260749
0.028209
0.0301348
0.0318405
0.0333171
0.0345583
0.0355603
0.0363215
0.0368421
0.0371239
0.0371706
0.0369867
0.0365783
0.0359521
0.035116
0.0340784
0.0328485
0.031436
0.029851
0.0281041
0.0262065
0.0241692
0.0220041
0.0197228
0.0173377
0.0148609
0.012305
0.00968298
0.00700766
0.00429226
0.00155016
-0.00120508
-0.00395974
-0.00669992
-0.00941158
-0.0120806
-0.0146927
-0.0172335
-0.0196888
-0.0220442
-0.0242856
-0.0263988
-0.02837
-0.0301856
-0.0318325
-0.033298
-0.0345701
-0.0356374
-0.0364894
-0.0371167
-0.0375108
-0.0376648
-0.0375729
-0.0372313
-0.0366376
-0.0357919
-0.034696
-0.0333545
-0.0317742
-0.0299652
-0.0279402
-0.0257154
-0.0233104
-0.0207486
-0.0180571
-0.0152673
-0.0124146
-0.00953894
-0.00668439
-0.00389911
-0.00123761
0.00157127
0.00483154
0.00814855
0.01147
0.0147506
0.0179495
0.0210306
0.0239624
0.0267177
0.0292738
0.0316116
0.0337158
0.0355745
0.0371787
0.0385223
0.0396017
0.0404155
0.0409643
0.0412505
0.0412782
0.0410527
0.0405807
0.0398698
0.0389285
0.0377662
0.0363931
0.0348198
0.0330575
0.0311177
0.0290127
0.0267547
0.0243566
0.0218312
0.0191919
0.0164522
0.0136258
0.0107267
0.00776912
0.0047675
0.00173644
-0.00130925
-0.00435453
-0.00738422
-0.010383
-0.0133353
-0.0162256
-0.0190382
-0.0217575
-0.0243676
-0.0268531
-0.0291985
-0.0313886
-0.0334084
-0.0352435
-0.0368799
-0.0383044
-0.0395043
-0.040468
-0.041185
-0.041646
-0.0418429
-0.0417695
-0.041421
-0.0407948
-0.0398903
-0.0387093
-0.0372562
-0.035538
-0.0335648
-0.0313499
-0.0289097
-0.0262647
-0.0234386
-0.0204595
-0.0173593
-0.0141743
-0.0109448
-0.00771533
-0.00453439
-0.00145642
0.00181593
0.00553598
0.009284
0.0130083
0.0166639
0.0202102
0.0236113
0.0268358
0.0298565
0.0326507
0.0351994
0.0374874
0.0395028
0.0412369
0.0426838
0.0438401
0.0447051
0.0452797
0.0455669
0.0455715
0.0452995
0.0447583
0.0439564
0.0429033
0.0416092
0.0400853
0.0383432
0.0363952
0.034254
0.0319327
0.0294449
0.0268044
0.0240253
0.0211221
0.0181095
0.0150025
0.0118162
0.00856601
0.00526769
0.00193708
-0.00140973
-0.00475643
-0.00808651
-0.0113833
-0.01463
-0.0178095
-0.020905
-0.0238992
-0.026775
-0.0295156
-0.0321039
-0.0345235
-0.0367579
-0.0387913
-0.0406085
-0.0421946
-0.0435361
-0.0446199
-0.0454344
-0.0459692
-0.0462153
-0.0461656
-0.0458145
-0.0451589
-0.0441976
-0.042932
-0.0413664
-0.0395077
-0.0373661
-0.034955
-0.0322915
-0.0293963
-0.0262937
-0.0230124
-0.0195851
-0.0160484
-0.0124435
-0.00881533
-0.00521266
-0.00169013
0.00207529
0.00628249
0.0104866
0.0146365
0.0186874
0.0225991
0.0263358
0.0298662
0.0331634
0.0362048
0.0389716
0.0414487
0.0436246
0.0454908
0.0470417
0.0482747
0.0491893
0.0497871
0.0500719
0.0500491
0.0497255
0.0491095
0.0482103
0.0470386
0.0456055
0.0439232
0.0420044
0.0398625
0.0375113
0.034965
0.0322383
0.0293463
0.0263042
0.0231276
0.0198326
0.0164351
0.0129517
0.0093989
0.00579374
0.0021533
-0.00150502
-0.00516362
-0.00880469
-0.0124102
-0.015962
-0.0194416
-0.0228307
-0.0261108
-0.0292633
-0.0322698
-0.035112
-0.0377717
-0.0402312
-0.0424733
-0.0444812
-0.0462388
-0.0477309
-0.0489435
-0.0498636
-0.0504796
-0.0507815
-0.0507611
-0.0504121
-0.0497304
-0.0487143
-0.047365
-0.045686
-0.0436844
-0.0413702
-0.038757
-0.035862
-0.0327062
-0.0293147
-0.0257166
-0.021945
-0.0180373
-0.0140353
-0.00998436
-0.00593383
-0.00193869
0.00234922
0.0070707
0.0117559
0.016354
0.0208205
0.0251155
0.0292033
0.033053
0.036638
0.0399357
0.0429277
0.0455993
0.0479393
0.0499397
0.0515955
0.0529046
0.053867
0.0544854
0.0547641
0.0547095
0.0543292
0.0536325
0.0526298
0.0513327
0.0497533
0.047905
0.0458017
0.0434576
0.040888
0.0381081
0.0351338
0.0319813
0.028667
0.0252079
0.021621
0.0179237
0.0141335
0.0102684
0.0063466
0.0023864
-0.0015935
-0.0055742
-0.00953656
-0.0134612
-0.0173286
-0.021119
-0.0248126
-0.0283894
-0.0318294
-0.0351127
-0.0382195
-0.0411302
-0.0438255
-0.0462867
-0.0484956
-0.0504345
-0.052087
-0.0534374
-0.0544715
-0.0551764
-0.055541
-0.0555559
-0.0552138
-0.0545098
-0.0534415
-0.0520093
-0.0502165
-0.0480696
-0.0455787
-0.0427572
-0.0396225
-0.036196
-0.032503
-0.028573
-0.0244399
-0.0201416
-0.0157205
-0.0112227
-0.00669805
-0.00220212
0.00263762
0.00790038
0.0130915
0.0181604
0.0230628
0.0277589
0.0322135
0.0363959
0.0402797
0.0438428
0.0470672
0.0499385
0.0524463
0.054583
0.0563443
0.0577288
0.0587374
0.0593735
0.0596424
0.0595513
0.059109
0.0583258
0.0572132
0.0557837
0.0540508
0.0520289
0.0497331
0.0471789
0.0443824
0.0413605
0.0381299
0.0347082
0.031113
0.0273624
0.0234746
0.0194682
0.0153621
0.0111753
0.00692731
0.00263774
-0.00167348
-0.00598616
-0.0102798
-0.0145338
-0.0187272
-0.0228388
-0.0268474
-0.0307316
-0.0344699
-0.0380408
-0.0414232
-0.0445957
-0.0475377
-0.0502288
-0.0526491
-0.0547796
-0.0566022
-0.0580998
-0.0592567
-0.0600587
-0.0604933
-0.0605499
-0.06022
-0.0594979
-0.0583801
-0.0568664
-0.0549593
-0.0526651
-0.0499933
-0.0469575
-0.043575
-0.0398673
-0.0358601
-0.0315832
-0.0270711
-0.0223624
-0.0175001
-0.012531
-0.00750567
-0.00248056
0.00294048
0.00877146
0.0144934
0.0200555
0.025414
0.0305292
0.0353662
0.0398946
0.0440884
0.0479259
0.0513898
0.0544662
0.0571452
0.0594201
0.0612875
0.0627466
0.0637994
0.0644502
0.0647053
0.0645731
0.0640634
0.0631876
0.0619585
0.0603897
0.058496
0.0562929
0.0537967
0.0510243
0.0479929
0.0447206
0.0412253
0.0375259
0.0336412
0.0295903
0.0253929
0.0210687
0.0166376
0.0121202
0.00753692
0.00290872
-0.00174322
-0.00639742
-0.0110321
-0.0156253
-0.0201547
-0.0245978
-0.0289318
-0.033134
-0.0371813
-0.0410508
-0.0447196
-0.048165
-0.0513646
-0.0542963
-0.0569388
-0.0592714
-0.0612743
-0.0629289
-0.0642179
-0.0651255
-0.0656378
-0.0657429
-0.0654311
-0.0646953
-0.0635312
-0.0619375
-0.0599161
-0.0574727
-0.0546163
-0.0513603
-0.0477218
-0.0437225
-0.0393881
-0.0347492
-0.0298405
-0.0247013
-0.0193752
-0.01391
-0.00835723
-0.00277418
0.00325782
0.009684
0.0159615
0.0220395
0.0278743
0.0334266
0.0386615
0.0435492
0.048064
0.0521851
0.0558953
0.0591819
0.0620356
0.0644506
0.0664243
0.0679571
0.0690519
0.0697142
0.0699514
0.0697731
0.0691904
0.068216
0.0668637
0.0651486
0.0630867
0.0606948
0.0579905
0.0549919
0.0517175
0.0481866
0.0444185
0.0404331
0.0362504
0.0318911
0.0273756
0.022725
0.0179606
0.0131038
0.00817649
0.0032008
-0.00180087
-0.00680577
-0.0117909
-0.0167329
-0.021608
-0.0263926
-0.0310623
-0.0355928
-0.0399598
-0.0441386
-0.0481048
-0.0518341
-0.0553024
-0.058486
-0.0613617
-0.0639071
-0.0661009
-0.0679226
-0.0693533
-0.0703755
-0.0709738
-0.0711347
-0.0708472
-0.0701027
-0.0688958
-0.0672241
-0.0650887
-0.0624944
-0.0594499
-0.0559678
-0.0520653
-0.0477639
-0.0430897
-0.0380733
-0.0327501
-0.02716
-0.0213474
-0.0153611
-0.00925352
-0.00308328
0.00358971
0.0106382
0.0174961
0.0241126
0.0304441
0.0364512
0.0420997
0.0473599
0.0522069
0.0566202
0.0605838
0.0640856
0.0671171
0.0696738
0.0717539
0.0733591
0.0744936
0.0751639
0.075379
0.0751495
0.0744881
0.0734086
0.0719264
0.0700579
0.0678204
0.0652321
0.0623119
0.0590791
0.0555539
0.0517564
0.0477074
0.043428
0.0389395
0.0342635
0.029422
0.024437
0.019331
0.0141267
0.00884706
0.00351545
-0.00184453
-0.00720892
-0.0125534
-0.0178534
-0.0230838
-0.0282195
-0.0332348
-0.038104
-0.0428011
-0.0473
-0.0515747
-0.055599
-0.0593472
-0.0627938
-0.065914
-0.0686835
-0.071079
-0.0730784
-0.0746609
-0.0758072
-0.0765003
-0.0767248
-0.0764682
-0.0757205
-0.0744749
-0.0727277
-0.0704791
-0.0677327
-0.0644965
-0.0607829
-0.0566085
-0.0519947
-0.0469676
-0.0415583
-0.0358025
-0.0297408
-0.0234186
-0.0168856
-0.0101955
-0.0034082
0.00393627
0.0116343
0.0190976
0.0262754
0.0331238
0.0396038
0.0456813
0.0513272
0.0565172
0.0612317
0.0654553
0.0691769
0.0723894
0.075089
0.0772754
0.0789516
0.0801231
0.0807978
0.080986
0.0807001
0.0799539
0.0787629
0.0771439
0.0751147
0.0726941
0.0699018
0.0667579
0.0632833
0.0594993
0.0554275
0.0510899
0.0465088
0.0417067
0.0367065
0.0315312
0.0262042
0.020749
0.0151894
0.00954963
0.00385414
-0.00187227
-0.00760445
-0.0133169
-0.0189836
-0.0245784
-0.0300746
-0.0354453
-0.0406632
-0.0457008
-0.0505304
-0.0551243
-0.0594548
-0.0634942
-0.0672154
-0.0705915
-0.0735965
-0.0762051
-0.0783932
-0.0801381
-0.0814186
-0.0822157
-0.0825123
-0.082294
-0.0815492
-0.0802695
-0.0784498
-0.076089
-0.0731897
-0.069759
-0.0658085
-0.0613544
-0.0564179
-0.0510252
-0.0452073
-0.0390007
-0.0324466
-0.0255912
-0.0184854
-0.0111842
-0.00374935
0.00429766
0.0126727
0.0207668
0.0285286
0.0359143
0.042885
0.049407
0.0554517
0.0609956
0.0660197
0.0705098
0.0744559
0.0778518
0.0806954
0.0829878
0.0847331
0.0859385
0.0866136
0.0867701
0.086422
0.0855848
0.0842756
0.0825127
0.0803155
0.0777044
0.0747004
0.0713252
0.0676011
0.0635507
0.059197
0.0545632
0.049673
0.0445501
0.0392184
0.0337022
0.028026
0.0222144
0.0162923
0.0102851
0.00421833
-0.0018821
-0.00798985
-0.0140782
-0.0201201
-0.0260878
-0.0319536
-0.037689
-0.0432653
-0.0486535
-0.0538244
-0.0587484
-0.0633962
-0.0677383
-0.0717457
-0.0753896
-0.0786418
-0.0814752
-0.0838635
-0.0857819
-0.0872072
-0.0881182
-0.0884958
-0.0883238
-0.0875886
-0.0862801
-0.0843915
-0.0819203
-0.0788678
-0.0752401
-0.0710478
-0.0663066
-0.0610373
-0.055266
-0.049024
-0.042348
-0.0352802
-0.0278676
-0.0201624
-0.0122212
-0.00410722
0.00467409
0.013754
0.0225042
0.030873
0.0388164
0.0462958
0.0532778
0.0597343
0.0656426
0.0709847
0.0757475
0.0799222
0.083504
0.0864923
0.0888896
0.0907019
0.0919379
0.0926089
0.0927285
0.0923123
0.0913776
0.0899432
0.0880291
0.0856564
0.0828471
0.0796237
0.0760096
0.0720284
0.0677042
0.0630612
0.0581242
0.0529178
0.0474671
0.0417972
0.0359335
0.0299014
0.0237268
0.0174357
0.0110543
0.00460943
-0.00187199
-0.00836252
-0.0148343
-0.0212591
-0.027608
-0.0338518
-0.0399609
-0.045905
-0.0516537
-0.057176
-0.062441
-0.0674172
-0.0720736
-0.0763789
-0.0803025
-0.0838141
-0.0868844
-0.0894848
-0.0915884
-0.0931697
-0.0942052
-0.0946737
-0.0945567
-0.0938386
-0.0925072
-0.0905541
-0.0879748
-0.0847694
-0.0809426
-0.076504
-0.0714686
-0.0658566
-0.059694
-0.0530122
-0.0458483
-0.0382451
-0.0302508
-0.021919
-0.0133077
-0.00448238
0.00506579
0.0148787
0.0243108
0.0333098
0.0418315
0.0498375
0.0572948
0.0641759
0.070459
0.0761272
0.0811685
0.0855755
0.0893452
0.0924783
0.0949793
0.0968559
0.0981186
0.0987807
0.0988577
0.0983671
0.0973281
0.0957612
0.0936885
0.0911327
0.0881174
0.0846671
0.0808064
0.0765607
0.0719554
0.0670161
0.061769
0.0562398
0.0504549
0.0444405
0.038223
0.0318291
0.0252855
0.0186194
0.0118579
0.00502878
-0.00183992
-0.00871975
-0.0155818
-0.0223966
-0.0291342
-0.0357641
-0.0422553
-0.0485763
-0.054695
-0.0605789
-0.0661953
-0.071511
-0.0764931
-0.0811083
-0.0853239
-0.0891073
-0.0924269
-0.095252
-0.0975531
-0.0993022
-0.100474
-0.101043
-0.100991
-0.100298
-0.0989508
-0.0969382
-0.0942541
-0.0908968
-0.0868695
-0.0821807
-0.0768443
-0.0708801
-0.0643135
-0.0571761
-0.0495055
-0.041345
-0.0327441
-0.0237577
-0.0144456
-0.00487545
0.00547304
0.0160477
0.0261876
0.0358401
0.0449609
0.0535114
0.0614592
0.0687777
0.0754457
0.0814476
0.0867729
0.0914157
0.0953746
0.0986522
0.101255
0.103193
0.104478
0.105126
0.105154
0.104582
0.103431
0.101725
0.0994854
0.0967386
0.0935097
0.0898247
0.08571
0.0811924
0.076299
0.0710567
0.0654929
0.0596348
0.0535097
0.0471451
0.0405685
0.0338074
0.0268896
0.0198431
0.0126963
0.00547761
-0.00178389
-0.00905878
-0.0163171
-0.0235284
-0.0306616
-0.037685
-0.0445663
-0.0512726
-0.0577703
-0.0640256
-0.0700037
-0.07567
-0.0809892
-0.0859263
-0.0904462
-0.0945142
-0.0980962
-0.101159
-0.10367
-0.1056
-0.106919
-0.107602
-0.107624
-0.106966
-0.10561
-0.103544
-0.100759
-0.0972519
-0.0930235
-0.0880812
-0.0824376
-0.0761119
-0.069129
-0.0615204
-0.053324
-0.0445841
-0.035351
-0.0256813
-0.0156366
-0.0052871
0.00589615
0.0172616
0.0281359
0.0384655
0.048206
0.0573191
0.0657726
0.0735407
0.0806035
0.0869464
0.0925606
0.097442
0.101591
0.105012
0.107714
0.109709
0.111012
0.111639
0.111612
0.110952
0.109682
0.107827
0.105414
0.102468
0.0990174
0.0950899
0.0907137
0.0859172
0.0807288
0.0751771
0.0692906
0.0630978
0.0566273
0.0499074
0.0429668
0.0358339
0.0285375
0.0211064
0.0135697
0.00595701
-0.00170193
-0.00937677
-0.0170366
-0.0246501
-0.0321849
-0.0396084
-0.0468871
-0.0539866
-0.060872
-0.0675079
-0.0738579
-0.0798853
-0.0855532
-0.0908242
-0.0956611
-0.100027
-0.103884
-0.107198
-0.109934
-0.112057
-0.113537
-0.114345
-0.114454
-0.11384
-0.112485
-0.110372
-0.107492
-0.103837
-0.0994075
-0.0942089
-0.0882527
-0.0815566
-0.0741452
-0.0660499
-0.0573087
-0.0479666
-0.0380753
-0.0276928
-0.0168829
-0.00571809
0.00633547
0.0185215
0.0301569
0.0411876
0.0515687
0.0612623
0.0702365
0.0784665
0.0859333
0.0926242
0.0985317
0.103654
0.107993
0.111556
0.114354
0.116402
0.117716
0.118317
0.118227
0.11747
0.116073
0.114062
0.111466
0.108313
0.104633
0.100455
0.09581
0.0907275
0.0852377
0.0793705
0.0731557
0.0666232
0.0598024
0.052723
0.0454143
0.0379059
0.0302272
0.022408
0.0144782
0.0064679
-0.00159214
-0.00967084
-0.0177365
-0.0257567
-0.0336985
-0.0415279
-0.0492104
-0.0567104
-0.0639915
-0.0710168
-0.0777483
-0.0841474
-0.0901752
-0.0957922
-0.100959
-0.105635
-0.109782
-0.113361
-0.116335
-0.118666
-0.120321
-0.121267
-0.121475
-0.120917
-0.119572
-0.117422
-0.114451
-0.110653
-0.106024
-0.100567
-0.0942935
-0.0872189
-0.0793673
-0.0707697
-0.0614646
-0.0514975
-0.0409212
-0.0297955
-0.0181864
-0.00616923
0.0067914
0.0198283
0.0322521
0.044008
0.055051
0.0653428
0.0748526
0.0835562
0.0914362
0.0984812
0.104686
0.11005
0.114579
0.118282
0.121172
0.123267
0.124586
0.125153
0.124992
0.124131
0.122597
0.120421
0.117633
0.114265
0.110347
0.105911
0.10099
0.0956148
0.0898174
0.083629
0.0770809
0.070204
0.0630291
0.0555865
0.0479067
0.0400199
0.0319564
0.0237467
0.0154212
0.007011
-0.00145271
-0.00993809
-0.0184127
-0.0268434
-0.0351963
-0.0434365
-0.0515284
-0.0594352
-0.0671194
-0.0745423
-0.0816644
-0.0884453
-0.0948441
-0.100819
-0.106328
-0.111329
-0.11578
-0.119639
-0.122865
-0.12542
-0.127264
-0.128363
-0.128682
-0.128194
-0.12687
-0.124691
-0.121638
-0.117701
-0.112875
-0.10716
-0.100564
-0.0931034
-0.0848002
-0.0756853
-0.065797
-0.0551815
-0.0438931
-0.0319931
-0.0195498
-0.00664142
0.00726436
0.0211831
0.0344232
0.0469289
0.0586548
0.0695629
0.0796228
0.0888116
0.0971131
0.104518
0.111023
0.11663
0.121347
0.125186
0.128163
0.130299
0.131616
0.13214
0.1319
0.130924
0.129246
0.126895
0.123907
0.120314
0.116149
0.111448
0.106244
0.100569
0.0944582
0.0879435
0.0810576
0.0738326
0.0663002
0.0584918
0.0504386
0.0421717
0.0337219
0.0251203
0.0163981
0.00758673
-0.00128199
-0.0101756
-0.0190612
-0.0279048
-0.0366718
-0.0453266