/*--------------------------------*- C++ -*----------------------------------*\
| =========                 |                                                 |
| \\      /  F ield         | OpenFOAM: The Open Source CFD Toolbox           |
|  \\    /   O peration     | Version:  2506                                  |
|   \\  /    A nd           | Website:  www.openfoam.com                      |
|    \\/     M anipulation  |                                                 |
\*---------------------------------------------------------------------------*/
FoamFile
{
    version     2.0;
    format      ascii;
    arch        "LSB;label=32;scalar=64";
    class       volVectorField;
    location    "5.875";
    object      diffU;
}
// * * * * * * * * * * * * * * * * * * * * * * * * * * * * * * * * * * * * * //

dimensions      [0 1 -1 0 0 0 0];

internalField   nonuniform List<vector> 
400
(
(0 0 0)
(1.66533e-14 -1.23477e-13 0)
(1.26565e-14 -9.70995e-14 0)
(1.29896e-14 -1.0328e-13 0)
(1.32117e-14 -1.01877e-13 0)
(1.31006e-14 -1.01978e-13 0)
(1.27676e-14 -1.01875e-13 0)
(1.25455e-14 -1.01948e-13 0)
(1.23235e-14 -1.02105e-13 0)
(1.23235e-14 -1.02164e-13 0)
(1.23235e-14 -1.02089e-13 0)
(1.24345e-14 -1.0202e-13 0)
(1.23235e-14 -1.01976e-13 0)
(1.19904e-14 -1.02036e-13 0)
(1.21014e-14 -1.02106e-13 0)
(1.19904e-14 -1.02061e-13 0)
(1.19904e-14 -1.01974e-13 0)
(1.15463e-14 -1.02137e-13 0)
(1.21014e-14 -1.02219e-13 0)
(1.19904e-14 -1.0209e-13 0)
(3.18634e-14 -6.9643e-14 0)
(6.66134e-15 -1.08861e-13 0)
(1.21014e-14 -1.00514e-13 0)
(1.19904e-14 -1.02483e-13 0)
(1.15463e-14 -1.01952e-13 0)
(1.15463e-14 -1.01937e-13 0)
(1.17684e-14 -1.01929e-13 0)
(1.19904e-14 -1.01915e-13 0)
(1.21014e-14 -1.01911e-13 0)
(1.15463e-14 -1.01974e-13 0)
(1.15463e-14 -1.02093e-13 0)
(1.15463e-14 -1.021e-13 0)
(1.17684e-14 -1.0209e-13 0)
(1.19904e-14 -1.02109e-13 0)
(1.19904e-14 -1.02099e-13 0)
(1.17684e-14 -1.02016e-13 0)
(1.17684e-14 -1.02011e-13 0)
(1.23235e-14 -1.02171e-13 0)
(1.19904e-14 -1.02212e-13 0)
(1.17684e-14 -1.02157e-13 0)
(1.9984e-15 -2.20921e-13 0)
(1.39888e-14 -7.72333e-14 0)
(1.11022e-14 -1.08037e-13 0)
(1.19904e-14 -1.0076e-13 0)
(1.15463e-14 -1.02284e-13 0)
(1.15463e-14 -1.02082e-13 0)
(1.19904e-14 -1.02157e-13 0)
(1.19904e-14 -1.01975e-13 0)
(1.19904e-14 -1.01782e-13 0)
(1.21014e-14 -1.01903e-13 0)
(1.23235e-14 -1.02116e-13 0)
(1.23235e-14 -1.0212e-13 0)
(1.21014e-14 -1.02144e-13 0)
(1.21014e-14 -1.02172e-13 0)
(1.21014e-14 -1.02079e-13 0)
(1.17684e-14 -1.02028e-13 0)
(1.22125e-14 -1.02157e-13 0)
(1.17684e-14 -1.02167e-13 0)
(1.21014e-14 -1.02155e-13 0)
(1.19904e-14 -1.02256e-13 0)
(6.43929e-15 -2.84979e-14 0)
(1.36557e-14 -1.18664e-13 0)
(1.19904e-14 -9.8419e-14 0)
(1.17684e-14 -1.02975e-13 0)
(1.21014e-14 -1.01835e-13 0)
(1.19904e-14 -1.02072e-13 0)
(1.17684e-14 -1.02098e-13 0)
(1.13243e-14 -1.02202e-13 0)
(1.17684e-14 -1.0218e-13 0)
(1.23235e-14 -1.02144e-13 0)
(1.22125e-14 -1.02025e-13 0)
(1.17684e-14 -1.01956e-13 0)
(1.21014e-14 -1.01926e-13 0)
(1.17684e-14 -1.02024e-13 0)
(1.17684e-14 -1.02058e-13 0)
(1.19904e-14 -1.02126e-13 0)
(1.19904e-14 -1.02195e-13 0)
(1.19904e-14 -1.02217e-13 0)
(1.21014e-14 -1.02179e-13 0)
(1.21014e-14 -1.02186e-13 0)
(2.05391e-14 -1.02606e-13 0)
(9.32587e-15 -1.01812e-13 0)
(1.17684e-14 -1.02333e-13 0)
(1.21014e-14 -1.02246e-13 0)
(1.17684e-14 -1.02244e-13 0)
(1.21014e-14 -1.02144e-13 0)
(1.21014e-14 -1.02094e-13 0)
(1.24345e-14 -1.02177e-13 0)
(1.19904e-14 -1.02153e-13 0)
(1.21014e-14 -1.01971e-13 0)
(1.21014e-14 -1.01838e-13 0)
(1.21014e-14 -1.01889e-13 0)
(1.21014e-14 -1.02015e-13 0)
(1.22125e-14 -1.02034e-13 0)
(1.21014e-14 -1.0205e-13 0)
(1.22125e-14 -1.02161e-13 0)
(1.19904e-14 -1.02219e-13 0)
(1.19904e-14 -1.02259e-13 0)
(1.19904e-14 -1.02222e-13 0)
(1.21014e-14 -1.02144e-13 0)
(1.31006e-14 -1.61126e-13 0)
(1.35447e-14 -8.97554e-14 0)
(1.33227e-14 -1.04757e-13 0)
(1.25455e-14 -1.01386e-13 0)
(1.21014e-14 -1.02218e-13 0)
(1.22125e-14 -1.0209e-13 0)
(1.19904e-14 -1.02005e-13 0)
(1.17684e-14 -1.01982e-13 0)
(1.15463e-14 -1.02037e-13 0)
(1.17684e-14 -1.02087e-13 0)
(1.17684e-14 -1.02118e-13 0)
(1.17684e-14 -1.02079e-13 0)
(1.22125e-14 -1.02035e-13 0)
(1.23235e-14 -1.01979e-13 0)
(1.19904e-14 -1.02003e-13 0)
(1.21014e-14 -1.02138e-13 0)
(1.21014e-14 -1.02178e-13 0)
(1.19904e-14 -1.02182e-13 0)
(1.21014e-14 -1.02167e-13 0)
(1.21014e-14 -1.02112e-13 0)
(1.02141e-14 -3.45115e-14 0)
(1.19904e-14 -1.16187e-13 0)
(1.17684e-14 -9.85785e-14 0)
(1.17684e-14 -1.02559e-13 0)
(1.21014e-14 -1.01757e-13 0)
(1.19904e-14 -1.01917e-13 0)
(1.21014e-14 -1.0183e-13 0)
(1.21014e-14 -1.01842e-13 0)
(1.21014e-14 -1.01997e-13 0)
(1.19904e-14 -1.02103e-13 0)
(1.21014e-14 -1.02105e-13 0)
(1.19904e-14 -1.02121e-13 0)
(1.17684e-14 -1.02092e-13 0)
(1.19904e-14 -1.02003e-13 0)
(1.19904e-14 -1.01973e-13 0)
(1.21014e-14 -1.0206e-13 0)
(1.19904e-14 -1.02092e-13 0)
(1.19904e-14 -1.02126e-13 0)
(1.19904e-14 -1.0211e-13 0)
(1.19904e-14 -1.02083e-13 0)
(1.35447e-14 -1.19105e-13 0)
(9.54792e-15 -9.8377e-14 0)
(1.04361e-14 -1.02923e-13 0)
(1.06581e-14 -1.01841e-13 0)
(1.06581e-14 -1.02179e-13 0)
(1.06581e-14 -1.0216e-13 0)
(1.11022e-14 -1.02106e-13 0)
(1.13243e-14 -1.01988e-13 0)
(1.13243e-14 -1.02012e-13 0)
(1.15463e-14 -1.01971e-13 0)
(1.13243e-14 -1.01927e-13 0)
(1.13243e-14 -1.02075e-13 0)
(1.15463e-14 -1.02273e-13 0)
(1.15463e-14 -1.0228e-13 0)
(1.17684e-14 -1.02229e-13 0)
(1.21014e-14 -1.02134e-13 0)
(1.17684e-14 -1.02127e-13 0)
(1.19904e-14 -1.02082e-13 0)
(1.21014e-14 -1.02109e-13 0)
(1.19904e-14 -1.02159e-13 0)
(1.08802e-14 -1.38363e-13 0)
(1.38778e-14 -9.44376e-14 0)
(1.28786e-14 -1.03908e-13 0)
(1.29896e-14 -1.01639e-13 0)
(1.28786e-14 -1.02149e-13 0)
(1.28786e-14 -1.021e-13 0)
(1.24345e-14 -1.02155e-13 0)
(1.24345e-14 -1.02127e-13 0)
(1.22125e-14 -1.02071e-13 0)
(1.22125e-14 -1.01926e-13 0)
(1.23235e-14 -1.01974e-13 0)
(1.21014e-14 -1.02161e-13 0)
(1.23235e-14 -1.0225e-13 0)
(1.23235e-14 -1.02202e-13 0)
(1.17684e-14 -1.02185e-13 0)
(1.17684e-14 -1.02152e-13 0)
(1.17684e-14 -1.0217e-13 0)
(1.17684e-14 -1.02163e-13 0)
(1.17684e-14 -1.02159e-13 0)
(1.19904e-14 -1.02173e-13 0)
(1.11022e-14 -4.99158e-14 0)
(1.17684e-14 -1.13267e-13 0)
(1.17684e-14 -9.9687e-14 0)
(1.17684e-14 -1.02619e-13 0)
(1.15463e-14 -1.01882e-13 0)
(1.15463e-14 -1.0196e-13 0)
(1.17684e-14 -1.01878e-13 0)
(1.17684e-14 -1.02006e-13 0)
(1.17684e-14 -1.02046e-13 0)
(1.19904e-14 -1.01985e-13 0)
(1.22125e-14 -1.02057e-13 0)
(1.22125e-14 -1.0217e-13 0)
(1.22125e-14 -1.02141e-13 0)
(1.22125e-14 -1.02046e-13 0)
(1.22125e-14 -1.01983e-13 0)
(1.22125e-14 -1.02e-13 0)
(1.23235e-14 -1.02016e-13 0)
(1.21014e-14 -1.02174e-13 0)
(1.19904e-14 -1.02286e-13 0)
(1.21014e-14 -1.02186e-13 0)
(5.9952e-15 -1.47948e-13 0)
(1.31006e-14 -9.23896e-14 0)
(1.08802e-14 -1.04355e-13 0)
(1.15463e-14 -1.01663e-13 0)
(1.15463e-14 -1.02213e-13 0)
(1.13243e-14 -1.02108e-13 0)
(1.15463e-14 -1.02113e-13 0)
(1.19904e-14 -1.02204e-13 0)
(1.17684e-14 -1.02277e-13 0)
(1.17684e-14 -1.02253e-13 0)
(1.19904e-14 -1.02229e-13 0)
(1.19904e-14 -1.02127e-13 0)
(1.17684e-14 -1.02083e-13 0)
(1.15463e-14 -1.02173e-13 0)
(1.19904e-14 -1.02201e-13 0)
(1.19904e-14 -1.02175e-13 0)
(1.17684e-14 -1.02138e-13 0)
(1.19904e-14 -1.02151e-13 0)
(1.21014e-14 -1.02238e-13 0)
(1.23235e-14 -1.02163e-13 0)
(2.29816e-14 -7.58763e-14 0)
(1.11022e-14 -1.07148e-13 0)
(1.35447e-14 -1.00613e-13 0)
(1.21014e-14 -1.02179e-13 0)
(1.25455e-14 -1.01895e-13 0)
(1.25455e-14 -1.02066e-13 0)
(1.22125e-14 -1.02216e-13 0)
(1.25455e-14 -1.02226e-13 0)
(1.26565e-14 -1.02192e-13 0)
(1.22125e-14 -1.02214e-13 0)
(1.22125e-14 -1.02196e-13 0)
(1.22125e-14 -1.02022e-13 0)
(1.22125e-14 -1.01993e-13 0)
(1.22125e-14 -1.02064e-13 0)
(1.21014e-14 -1.02091e-13 0)
(1.21014e-14 -1.02164e-13 0)
(1.19904e-14 -1.0219e-13 0)
(1.22125e-14 -1.02174e-13 0)
(1.19904e-14 -1.0213e-13 0)
(1.19904e-14 -1.02096e-13 0)
(-3.77476e-15 -9.14292e-14 0)
(1.33227e-14 -1.04492e-13 0)
(9.54792e-15 -1.0141e-13 0)
(1.15463e-14 -1.02228e-13 0)
(1.11022e-14 -1.02118e-13 0)
(1.13243e-14 -1.0218e-13 0)
(1.17684e-14 -1.02263e-13 0)
(1.17684e-14 -1.02241e-13 0)
(1.15463e-14 -1.02151e-13 0)
(1.17684e-14 -1.02202e-13 0)
(1.15463e-14 -1.0216e-13 0)
(1.15463e-14 -1.02078e-13 0)
(1.17684e-14 -1.02034e-13 0)
(1.17684e-14 -1.02062e-13 0)
(1.15463e-14 -1.02153e-13 0)
(1.17684e-14 -1.02213e-13 0)
(1.17684e-14 -1.02224e-13 0)
(1.21014e-14 -1.02189e-13 0)
(1.19904e-14 -1.02114e-13 0)
(1.19904e-14 -1.0212e-13 0)
(1.86517e-14 -1.50047e-13 0)
(1.11022e-14 -9.23885e-14 0)
(1.32117e-14 -1.04634e-13 0)
(1.24345e-14 -1.01741e-13 0)
(1.27676e-14 -1.02325e-13 0)
(1.23235e-14 -1.0223e-13 0)
(1.24345e-14 -1.02294e-13 0)
(1.21014e-14 -1.02315e-13 0)
(1.24345e-14 -1.02279e-13 0)
(1.22125e-14 -1.0224e-13 0)
(1.22125e-14 -1.0216e-13 0)
(1.22125e-14 -1.0217e-13 0)
(1.24345e-14 -1.02121e-13 0)
(1.26565e-14 -1.02011e-13 0)
(1.25455e-14 -1.02117e-13 0)
(1.25455e-14 -1.02179e-13 0)
(1.22125e-14 -1.02264e-13 0)
(1.19904e-14 -1.02174e-13 0)
(1.21014e-14 -1.02079e-13 0)
(1.21014e-14 -1.02127e-13 0)
(7.54952e-15 -3.56864e-14 0)
(1.27676e-14 -1.16423e-13 0)
(1.15463e-14 -9.90325e-14 0)
(1.19904e-14 -1.02866e-13 0)
(1.17684e-14 -1.01986e-13 0)
(1.22125e-14 -1.02254e-13 0)
(1.21014e-14 -1.02224e-13 0)
(1.24345e-14 -1.02173e-13 0)
(1.19904e-14 -1.02085e-13 0)
(1.15463e-14 -1.02138e-13 0)
(1.17684e-14 -1.02197e-13 0)
(1.17684e-14 -1.02208e-13 0)
(1.15463e-14 -1.02182e-13 0)
(1.13243e-14 -1.02131e-13 0)
(1.17684e-14 -1.0207e-13 0)
(1.19904e-14 -1.01998e-13 0)
(1.17684e-14 -1.0205e-13 0)
(1.15463e-14 -1.0211e-13 0)
(1.19904e-14 -1.0212e-13 0)
(1.19904e-14 -1.0212e-13 0)
(1.85407e-14 -1.46537e-13 0)
(1.02141e-14 -9.29918e-14 0)
(1.19904e-14 -1.0448e-13 0)
(1.22125e-14 -1.01951e-13 0)
(1.24345e-14 -1.02495e-13 0)
(1.23235e-14 -1.024e-13 0)
(1.23235e-14 -1.02295e-13 0)
(1.19904e-14 -1.02002e-13 0)
(1.22125e-14 -1.01837e-13 0)
(1.23235e-14 -1.01908e-13 0)
(1.23235e-14 -1.02023e-13 0)
(1.21014e-14 -1.02083e-13 0)
(1.23235e-14 -1.02112e-13 0)
(1.23235e-14 -1.02246e-13 0)
(1.19904e-14 -1.02199e-13 0)
(1.21014e-14 -1.02146e-13 0)
(1.21014e-14 -1.02082e-13 0)
(1.21014e-14 -1.02164e-13 0)
(1.19904e-14 -1.02228e-13 0)
(1.19904e-14 -1.02181e-13 0)
(6.43929e-15 -1.13639e-13 0)
(1.43219e-14 -9.99972e-14 0)
(1.25455e-14 -1.02715e-13 0)
(1.21014e-14 -1.02046e-13 0)
(1.19904e-14 -1.02228e-13 0)
(1.17684e-14 -1.02184e-13 0)
(1.17684e-14 -1.0217e-13 0)
(1.15463e-14 -1.02074e-13 0)
(1.17684e-14 -1.0208e-13 0)
(1.19904e-14 -1.02138e-13 0)
(1.21014e-14 -1.02184e-13 0)
(1.21014e-14 -1.02159e-13 0)
(1.23235e-14 -1.02081e-13 0)
(1.23235e-14 -1.0205e-13 0)
(1.24345e-14 -1.02049e-13 0)
(1.23235e-14 -1.02125e-13 0)
(1.22125e-14 -1.02073e-13 0)
(1.23235e-14 -1.01996e-13 0)
(1.22125e-14 -1.02099e-13 0)
(1.22125e-14 -1.02174e-13 0)
(9.76996e-15 -3.27937e-14 0)
(1.17684e-14 -1.16434e-13 0)
(1.11022e-14 -9.88411e-14 0)
(1.17684e-14 -1.02874e-13 0)
(1.17684e-14 -1.01971e-13 0)
(1.15463e-14 -1.01973e-13 0)
(1.15463e-14 -1.02018e-13 0)
(1.15463e-14 -1.02213e-13 0)
(1.19904e-14 -1.02296e-13 0)
(1.21014e-14 -1.02231e-13 0)
(1.17684e-14 -1.0215e-13 0)
(1.19904e-14 -1.02105e-13 0)
(1.13243e-14 -1.02185e-13 0)
(1.15463e-14 -1.0215e-13 0)
(1.17684e-14 -1.0214e-13 0)
(1.19904e-14 -1.02076e-13 0)
(1.17684e-14 -1.0198e-13 0)
(1.19904e-14 -1.01946e-13 0)
(1.21014e-14 -1.02045e-13 0)
(1.21014e-14 -1.02091e-13 0)
(2.70894e-14 -1.28493e-13 0)
(7.77156e-15 -9.71203e-14 0)
(1.19904e-14 -1.03468e-13 0)
(1.13243e-14 -1.01995e-13 0)
(1.13243e-14 -1.02132e-13 0)
(1.13243e-14 -1.02096e-13 0)
(1.15463e-14 -1.02245e-13 0)
(1.15463e-14 -1.02377e-13 0)
(1.17684e-14 -1.02261e-13 0)
(1.15463e-14 -1.0213e-13 0)
(1.13243e-14 -1.02064e-13 0)
(1.17684e-14 -1.02046e-13 0)
(1.15463e-14 -1.02127e-13 0)
(1.15463e-14 -1.02181e-13 0)
(1.17684e-14 -1.02244e-13 0)
(1.17684e-14 -1.02216e-13 0)
(1.15463e-14 -1.02175e-13 0)
(1.17684e-14 -1.02173e-13 0)
(1.21014e-14 -1.02108e-13 0)
(1.19904e-14 -1.02076e-13 0)
(6.66134e-15 -1.80326e-13 0)
(1.46549e-14 -8.56414e-14 0)
(1.31006e-14 -1.06068e-13 0)
(1.27676e-14 -1.01234e-13 0)
(1.28786e-14 -1.02233e-13 0)
(1.28786e-14 -1.02151e-13 0)
(1.28786e-14 -1.02283e-13 0)
(1.25455e-14 -1.02287e-13 0)
(1.23235e-14 -1.02171e-13 0)
(1.24345e-14 -1.02175e-13 0)
(1.23235e-14 -1.02205e-13 0)
(1.21014e-14 -1.02171e-13 0)
(1.23235e-14 -1.02107e-13 0)
(1.21014e-14 -1.02132e-13 0)
(1.21014e-14 -1.02189e-13 0)
(1.21014e-14 -1.02205e-13 0)
(1.21014e-14 -1.02229e-13 0)
(1.19904e-14 -1.02188e-13 0)
(1.19904e-14 -1.02109e-13 0)
(1.21014e-14 -1.02103e-13 0)
)
;

boundaryField
{
    movingWall
    {
        type            calculated;
        value           uniform (1.19904e-14 -1.02112e-13 0);
    }
    fixedWalls
    {
        type            calculated;
        value           uniform (1.19904e-14 -1.02112e-13 0);
    }
    frontAndBack
    {
        type            empty;
    }
}


// ************************************************************************* //
