/*--------------------------------*- C++ -*----------------------------------*\
| =========                 |                                                 |
| \\      /  F ield         | OpenFOAM: The Open Source CFD Toolbox           |
|  \\    /   O peration     | Version:  2506                                  |
|   \\  /    A nd           | Website:  www.openfoam.com                      |
|    \\/     M anipulation  |                                                 |
\*---------------------------------------------------------------------------*/
FoamFile
{
    version     2.0;
    format      ascii;
    arch        "LSB;label=32;scalar=64";
    class       volScalarField;
    location    "5.875";
    object      divU;
}
// * * * * * * * * * * * * * * * * * * * * * * * * * * * * * * * * * * * * * //

dimensions      [0 0 -1 0 0 0 0];

internalField   nonuniform List<scalar> 
400
(
1.27123e-11
-1.5103e-12
3.08684e-13
-1.26721e-13
3.95582e-14
3.80911e-15
-1.21391e-14
-1.81247e-14
-6.27139e-15
8.68082e-15
4.17256e-15
3.74791e-14
-3.83516e-14
7.9765e-15
1.92328e-15
-1.24041e-14
-3.03318e-14
-8.3699e-15
3.35582e-14
0
-2.06269e-11
2.62618e-12
-5.4115e-13
2.0653e-13
-5.54403e-14
-6.50615e-15
-1.32352e-14
6.05006e-14
-2.81602e-14
7.63642e-15
1.54948e-15
3.7985e-16
-9.6838e-16
4.85539e-14
4.59492e-15
-6.33231e-14
5.97869e-14
-1.13399e-14
-6.84537e-14
2.71051e-14
3.33392e-12
-8.88117e-14
2.07602e-14
-3.24569e-14
-1.66058e-14
7.10032e-15
2.40967e-14
-2.24313e-14
-2.79669e-14
4.48576e-14
8.3425e-15
1.48594e-14
-1.16541e-14
2.83446e-15
-1.83581e-14
-2.01219e-14
-1.27692e-14
-1.58895e-14
1.61525e-14
0
1.14112e-11
-1.86906e-12
3.74331e-13
-1.53933e-13
1.45447e-14
8.92552e-16
-7.80808e-14
-1.55131e-14
4.33635e-14
3.80391e-14
-1.80579e-14
1.08438e-14
1.21878e-15
-3.75578e-14
1.16483e-14
4.78943e-14
-1.89424e-14
2.90417e-14
-1.77059e-14
0
-1.27123e-11
1.99754e-12
-3.40808e-13
1.67649e-13
-5.08198e-14
2.6152e-14
3.95844e-14
3.36834e-14
-2.36999e-14
1.66288e-14
-2.59396e-16
-1.48959e-15
-9.73756e-15
-5.90992e-15
4.4173e-14
-3.45864e-14
-1.72882e-14
5.45423e-15
1.06694e-14
0
7.10152e-12
-1.41867e-12
2.78606e-13
-1.61753e-13
5.21321e-14
-5.39059e-15
1.17913e-14
-1.40888e-14
-8.06589e-15
3.45103e-15
-2.70467e-14
2.95356e-14
3.68298e-14
-2.85524e-15
-2.93963e-14
2.66257e-15
2.24891e-14
-8.35105e-15
4.90293e-14
-2.71051e-14
4.01155e-12
-6.81632e-13
1.36717e-13
9.6138e-15
1.78936e-15
-1.2394e-14
2.88233e-14
1.24135e-14
-3.26873e-14
1.50546e-14
1.92002e-14
2.85547e-15
-1.40514e-14
-3.29824e-14
-2.48943e-14
3.1119e-15
5.16963e-16
1.58511e-15
5.94027e-16
0
-1.04626e-11
1.84571e-12
-4.23338e-13
1.28743e-13
-3.74242e-14
2.35052e-14
-3.69662e-15
3.8109e-14
4.11774e-14
5.69887e-15
-4.90023e-14
5.30837e-14
-2.75716e-15
1.30261e-15
3.52116e-14
-6.10009e-15
-7.19467e-15
2.49795e-14
-3.14935e-14
0
6.966e-12
-1.24249e-12
2.25573e-13
-8.46632e-14
1.93415e-14
-3.77461e-14
-3.51092e-14
-1.79766e-14
-1.63816e-14
4.28748e-15
-7.81374e-15
-1.07021e-14
1.04071e-14
-2.95291e-14
-2.1424e-14
7.2923e-15
3.88074e-15
-1.13159e-14
-2.20766e-14
5.42101e-14
-1.0571e-12
2.36249e-13
-3.59834e-14
-3.28715e-14
-1.41573e-14
-1.14724e-14
2.33075e-14
1.38102e-15
4.43362e-14
-1.3602e-15
-6.13816e-15
-7.33216e-15
2.70509e-14
5.71728e-16
4.11445e-15
4.97179e-15
6.9972e-15
-6.43147e-14
2.42511e-14
-2.71051e-14
-3.06287e-12
1.09208e-12
-2.91245e-13
1.46657e-13
1.169e-14
-7.63383e-14
4.36692e-14
3.36574e-14
-7.87189e-14
2.98926e-14
-2.00064e-14
-4.66759e-14
1.48371e-14
-1.23728e-15
4.75107e-14
-1.14339e-14
-1.03618e-14
1.70033e-14
3.98282e-14
-5.42101e-14
6.66784e-12
-2.17818e-12
4.36999e-13
-1.80916e-13
7.53904e-14
-5.63495e-14
1.64205e-15
5.70773e-14
-3.89951e-14
-1.91977e-14
1.39553e-14
1.24239e-14
-7.37272e-15
9.83373e-15
-2.90179e-14
-1.5223e-14
-1.8939e-14
-1.39127e-14
-1.92906e-15
0
-8.80914e-12
2.74012e-12
-5.34324e-13
1.88183e-13
-4.89308e-14
3.57066e-14
2.09772e-14
-6.02771e-15
-4.76793e-14
3.24105e-14
-3.66361e-14
-2.41304e-15
6.93428e-15
-1.19863e-14
2.25244e-14
1.03153e-14
5.49023e-14
1.32116e-14
3.16103e-15
0
6.12574e-12
-1.70556e-12
3.80998e-13
-1.19567e-13
-8.63231e-15
-5.30381e-14
-2.27381e-15
7.48294e-16
1.31287e-14
1.17251e-14
-1.31841e-14
-1.5339e-14
4.64181e-14
8.24075e-15
-2.33566e-14
-2.23707e-14
-9.02989e-15
2.11622e-14
2.4836e-15
-2.71051e-14
0
3.48303e-13
-9.14158e-14
2.20471e-14
-2.56733e-14
3.84076e-14
-2.32323e-15
3.20303e-14
-5.10983e-14
1.7891e-14
2.75619e-14
-6.61468e-15
-6.11865e-14
3.89985e-14
2.2682e-14
6.22702e-14
-7.21469e-14
2.21462e-14
4.17928e-14
0
-7.29126e-12
9.60906e-13
-1.61485e-13
1.04026e-13
4.28342e-15
-8.82248e-15
3.12091e-15
-1.22435e-14
3.06909e-14
-9.24366e-15
1.71877e-15
-1.73741e-15
3.07344e-15
1.99658e-14
-5.65976e-14
2.24295e-14
6.9453e-15
-2.06361e-14
-1.02857e-14
0
1.10589e-11
-1.73573e-12
3.2106e-13
-1.23786e-13
2.95944e-14
-2.04197e-14
3.6516e-15
-6.29255e-15
1.19026e-14
-4.1607e-14
1.6131e-14
2.3154e-14
-4.183e-15
2.46249e-15
3.0628e-14
-2.47828e-14
1.71578e-14
2.82639e-14
8.04927e-15
-5.42101e-14
-1.70762e-12
4.22216e-13
-1.33733e-13
9.81707e-14
-1.49737e-14
1.55192e-14
-3.86185e-15
-9.46172e-15
4.8089e-14
1.33869e-14
-5.31654e-14
-1.97983e-14
-8.74741e-15
-1.06919e-14
1.11221e-14
4.74517e-14
-7.44161e-14
3.76488e-14
3.42663e-14
-2.71051e-14
-1.36609e-11
1.57706e-12
-3.6853e-13
7.24823e-14
-1.41022e-14
2.4826e-14
-3.03195e-14
1.0294e-14
-2.07579e-14
1.90292e-14
-4.41236e-15
2.78018e-14
-2.8099e-14
-8.9276e-15
3.33524e-14
-4.67271e-14
-1.79666e-14
6.76398e-14
6.94984e-16
0
1.01915e-11
-1.49078e-12
3.52366e-13
-1.0842e-13
2.71051e-14
0
-2.71051e-14
0
2.71051e-14
0
-2.71051e-14
0
0
-2.71051e-14
2.71051e-14
2.71051e-14
0
2.71051e-14
2.71051e-14
-2.71051e-14
)
;

boundaryField
{
    movingWall
    {
        type            extrapolatedCalculated;
        value           nonuniform List<scalar> 
20
(
1.01915e-11
-1.49078e-12
3.52366e-13
-1.0842e-13
2.71051e-14
0
-2.71051e-14
0
2.71051e-14
0
-2.71051e-14
0
0
-2.71051e-14
2.71051e-14
2.71051e-14
0
2.71051e-14
2.71051e-14
-2.71051e-14
)
;
    }
    fixedWalls
    {
        type            extrapolatedCalculated;
        value           nonuniform List<scalar> 
60
(
1.27123e-11
-2.06269e-11
3.33392e-12
1.14112e-11
-1.27123e-11
7.10152e-12
4.01155e-12
-1.04626e-11
6.966e-12
-1.0571e-12
-3.06287e-12
6.66784e-12
-8.80914e-12
6.12574e-12
0
-7.29126e-12
1.10589e-11
-1.70762e-12
-1.36609e-11
1.01915e-11
0
2.71051e-14
0
0
0
-2.71051e-14
0
0
5.42101e-14
-2.71051e-14
-5.42101e-14
0
0
-2.71051e-14
0
0
-5.42101e-14
-2.71051e-14
0
-2.71051e-14
1.27123e-11
-1.5103e-12
3.08684e-13
-1.26721e-13
3.95582e-14
3.80911e-15
-1.21391e-14
-1.81247e-14
-6.27139e-15
8.68082e-15
4.17256e-15
3.74791e-14
-3.83516e-14
7.9765e-15
1.92328e-15
-1.24041e-14
-3.03318e-14
-8.3699e-15
3.35582e-14
0
)
;
    }
    frontAndBack
    {
        type            empty;
    }
}


// ************************************************************************* //
