/*--------------------------------*- C++ -*----------------------------------*\
| =========                 |                                                 |
| \\      /  F ield         | OpenFOAM: The Open Source CFD Toolbox           |
|  \\    /   O peration     | Version:  2506                                  |
|   \\  /    A nd           | Website:  www.openfoam.com                      |
|    \\/     M anipulation  |                                                 |
\*---------------------------------------------------------------------------*/
FoamFile
{
    version     2.0;
    format      ascii;
    arch        "LSB;label=32;scalar=64";
    class       volScalarField;
    location    "5.875";
    object      enstrophyField;
}
// * * * * * * * * * * * * * * * * * * * * * * * * * * * * * * * * * * * * * //

dimensions      [0 0 -2 0 0 0 0];

internalField   nonuniform List<scalar> 
400
(
2.65626e-23
4.63553e-23
1.87869e-24
1.71775e-25
2.35784e-28
1.4599e-27
1.31049e-27
2.98555e-27
2.86999e-27
1.2924e-30
1.03165e-28
6.44931e-29
1.19059e-30
8.48728e-29
3.21683e-30
8.66647e-29
2.87756e-29
2.98306e-28
1.10882e-29
3.53568e-29
2.83772e-24
3.88922e-24
3.20347e-25
1.95097e-27
2.35954e-26
9.50311e-27
1.58861e-27
1.56999e-27
2.25845e-28
6.45888e-28
8.02758e-29
5.40514e-32
3.65071e-31
3.92327e-28
4.2882e-29
1.98448e-27
1.19886e-28
1.11437e-27
3.30356e-28
1.05165e-28
2.36134e-23
5.60063e-23
2.76765e-24
1.98129e-25
1.26756e-26
1.02858e-28
5.66053e-29
7.05373e-27
3.91728e-27
1.00475e-26
2.88047e-27
4.48552e-28
5.21212e-28
5.6364e-28
1.03499e-28
3.04795e-29
8.38554e-28
3.32922e-27
4.00396e-29
1.73514e-28
7.46196e-24
2.15065e-23
1.10634e-24
7.83312e-26
6.53316e-28
3.23852e-27
8.53679e-29
6.23508e-28
1.72922e-29
1.19133e-28
1.76675e-28
6.86726e-28
2.34162e-29
8.67757e-29
5.24155e-29
4.51475e-27
1.6344e-28
1.38746e-27
4.65804e-30
8.44377e-29
2.2435e-25
3.71329e-28
1.15288e-26
1.02584e-27
5.26139e-29
7.70304e-28
5.57478e-30
3.80088e-27
2.11487e-28
3.67851e-27
1.94858e-27
1.58126e-28
1.04446e-28
1.66532e-27
8.10197e-29
9.67436e-28
6.82003e-28
4.38298e-32
7.46895e-28
1.00362e-28
6.60927e-24
1.4542e-23
6.76338e-25
3.22499e-26
4.75746e-27
1.16836e-27
5.90839e-29
2.85696e-28
5.52927e-29
3.29873e-29
2.96069e-31
3.4489e-29
6.89608e-28
5.12682e-30
1.27153e-28
4.63782e-29
9.42704e-30
6.59648e-31
2.44442e-29
1.44841e-29
1.38929e-23
1.81637e-23
1.3795e-24
2.72811e-27
2.57195e-26
1.20536e-26
3.94729e-27
7.05158e-28
3.42024e-28
9.39688e-28
1.37393e-27
1.54408e-27
4.33396e-27
7.2369e-27
1.17951e-27
7.14699e-29
2.08765e-28
1.46791e-30
2.59111e-28
2.86134e-28
9.52166e-25
1.05928e-24
1.03412e-25
1.86425e-27
6.41668e-27
2.73956e-27
4.83524e-29
4.37626e-29
1.42859e-30
1.04308e-27
5.41747e-29
5.99021e-28
5.18514e-27
1.24176e-27
1.07012e-28
6.98147e-28
1.7615e-27
1.60293e-30
1.87744e-28
9.63946e-30
3.34512e-24
5.12491e-24
3.66036e-25
8.16057e-28
1.19481e-26
5.95051e-27
3.52654e-27
2.65733e-27
5.81419e-28
1.51383e-28
8.70427e-27
9.24563e-27
1.70334e-27
1.13868e-27
1.20724e-27
1.18871e-30
1.53349e-27
5.1589e-31
1.41582e-27
5.88356e-29
1.04193e-23
1.18521e-23
7.86887e-25
1.61854e-27
2.03013e-26
9.24206e-27
2.93738e-27
5.31907e-29
1.58848e-27
3.37169e-28
3.63947e-29
1.74436e-28
2.22076e-27
2.45705e-27
2.5226e-28
4.63516e-28
1.52043e-28
3.63775e-28
1.53661e-27
4.33409e-28
1.14089e-23
9.73934e-24
6.23896e-25
1.7511e-26
7.92435e-27
2.54801e-27
2.03481e-27
2.49222e-27
6.42024e-27
1.18721e-29
7.93979e-29
1.05284e-28
1.02641e-29
6.87022e-29
2.96434e-32
5.55444e-28
2.78874e-30
6.87763e-28
7.21304e-31
1.00477e-27
4.7919e-24
3.127e-24
1.9997e-25
8.21154e-27
2.14687e-27
5.17123e-28
1.27138e-28
2.93455e-30
3.98631e-28
6.85947e-32
1.07441e-27
1.12516e-27
8.99173e-30
4.81625e-29
2.54627e-27
4.88796e-29
5.3005e-31
2.23495e-28
3.05868e-29
3.71163e-28
7.6491e-25
4.98035e-25
3.93842e-26
7.81701e-27
1.2192e-27
7.89098e-28
5.5303e-28
2.13599e-27
4.80945e-28
3.95405e-31
2.21654e-27
2.22842e-27
3.23966e-28
2.18069e-27
4.64829e-27
1.88185e-27
2.73758e-30
2.12925e-27
2.03958e-28
3.41476e-28
1.21641e-23
1.05589e-23
6.6365e-25
1.56201e-26
5.31438e-27
5.54865e-27
6.33037e-28
1.38874e-27
1.09448e-27
7.1192e-29
1.11368e-27
1.26476e-27
9.23912e-28
1.48653e-27
9.64043e-28
1.07947e-28
1.54801e-31
2.64533e-27
5.05742e-28
1.7042e-30
1.37214e-23
1.95519e-23
1.11191e-24
3.59721e-26
3.89929e-27
2.83768e-28
3.24268e-29
9.65236e-29
4.69955e-28
6.20524e-29
2.43197e-29
1.0898e-30
2.96329e-29
2.14086e-27
2.27871e-27
1.57501e-27
6.30973e-29
2.45936e-29
4.87821e-31
4.11829e-28
5.94838e-24
8.28345e-24
5.04359e-25
1.4678e-26
2.58834e-27
2.75862e-27
4.41705e-27
1.18844e-26
6.66779e-28
1.04538e-27
2.57343e-27
6.48526e-28
2.48551e-27
6.85523e-27
9.78451e-28
9.04559e-28
1.56774e-27
7.56357e-27
4.1587e-28
3.69864e-29
1.08923e-27
4.32218e-25
4.65388e-27
5.28928e-27
4.47705e-27
1.80508e-27
4.26191e-27
6.49047e-28
1.14228e-27
1.40327e-28
1.35944e-27
5.26771e-29
7.11789e-27
1.64857e-27
1.91992e-28
2.74622e-30
2.25389e-27
3.53466e-30
1.00907e-27
2.47288e-28
5.82267e-24
1.77263e-23
9.56559e-25
2.68396e-26
6.86332e-27
2.50719e-28
2.87694e-28
3.85812e-28
1.56836e-27
2.36609e-27
4.41174e-27
2.79232e-28
2.55946e-28
3.68172e-27
3.93247e-27
7.73752e-27
4.44878e-27
5.199e-27
7.93726e-29
1.02855e-27
1.64454e-24
2.55043e-24
2.29306e-25
3.1716e-28
7.02077e-27
7.16418e-27
1.33864e-26
6.05071e-27
3.02595e-30
5.95817e-28
1.74814e-28
1.99641e-29
4.49672e-27
7.54118e-28
1.66153e-27
1.11895e-27
2.60254e-28
1.12804e-27
6.75822e-28
4.83894e-28
1.35123e-23
2.61803e-23
1.05239e-24
8.42786e-26
2.09205e-27
2.45723e-28
8.27094e-28
7.31643e-28
7.33459e-28
5.59298e-30
1.4496e-27
4.7407e-29
7.58253e-30
1.94332e-27
2.6343e-29
8.05019e-30
1.38096e-27
7.13976e-29
3.61438e-29
3.36126e-28
)
;

boundaryField
{
    movingWall
    {
        type            calculated;
        value           nonuniform List<scalar> 
20
(
3.44942e-23
3.60538e-23
6.21746e-25
2.41036e-25
3.47113e-26
6.13673e-26
5.83907e-26
2.71894e-26
1.04289e-26
1.51887e-26
8.92349e-27
1.4659e-27
9.40108e-27
6.5798e-28
6.90077e-28
8.15934e-28
1.061e-27
7.13976e-29
3.61438e-29
9.3449e-28
)
;
    }
    fixedWalls
    {
        type            calculated;
        value           nonuniform List<scalar> 
60
(
8.02355e-22
8.18936e-23
1.01262e-21
3.80951e-22
3.59479e-25
2.5483e-22
3.63393e-22
2.34706e-23
1.01235e-22
2.27684e-22
1.90119e-22
6.57819e-23
1.09502e-23
2.05741e-22
3.53711e-22
1.56446e-22
6.90468e-24
3.28712e-22
5.22945e-23
4.5934e-22
4.01921e-29
1.62103e-28
1.65577e-27
3.10788e-30
8.05005e-29
2.67936e-32
1.18741e-28
1.78645e-28
3.00074e-28
3.01368e-28
1.13166e-27
2.11394e-28
2.83907e-28
1.72286e-29
4.54878e-28
1.58708e-31
2.96512e-30
1.04801e-27
8.59801e-28
2.76646e-28
8.28301e-23
6.69917e-23
1.53696e-24
3.84908e-25
6.42118e-26
9.85299e-26
4.73852e-26
3.00388e-26
1.19783e-26
8.66179e-27
7.06416e-27
1.38243e-26
9.08146e-27
8.48728e-29
1.10193e-27
8.66647e-29
2.87756e-29
1.17367e-26
7.88035e-28
3.53568e-29
)
;
    }
    frontAndBack
    {
        type            empty;
    }
}


// ************************************************************************* //
