/*--------------------------------*- C++ -*----------------------------------*\
| =========                 |                                                 |
| \\      /  F ield         | OpenFOAM: The Open Source CFD Toolbox           |
|  \\    /   O peration     | Version:  2506                                  |
|   \\  /    A nd           | Website:  www.openfoam.com                      |
|    \\/     M anipulation  |                                                 |
\*---------------------------------------------------------------------------*/
FoamFile
{
    version     2.0;
    format      ascii;
    arch        "LSB;label=32;scalar=64";
    class       volScalarField;
    location    "5.875";
    object      epsilonzeroGrad;
}
// * * * * * * * * * * * * * * * * * * * * * * * * * * * * * * * * * * * * * //

dimensions      [0 2 -3 0 0 0 0];

internalField   nonuniform List<scalar> 
400
(
4.49372e-06
4.49371e-06
4.4937e-06
4.4937e-06
4.49368e-06
4.49369e-06
4.49367e-06
4.49368e-06
4.49367e-06
4.49367e-06
4.49367e-06
4.49367e-06
4.49366e-06
4.49366e-06
4.49366e-06
4.49366e-06
4.49366e-06
4.49366e-06
4.49366e-06
4.49366e-06
4.86588e-06
4.77588e-06
4.78332e-06
4.78638e-06
4.79254e-06
4.79573e-06
4.80191e-06
4.80519e-06
4.81141e-06
4.81479e-06
4.82105e-06
4.82451e-06
4.83081e-06
4.83436e-06
4.8407e-06
4.84435e-06
4.85072e-06
4.85448e-06
4.85769e-06
4.86279e-06
5.40557e-06
5.30045e-06
5.30926e-06
5.31288e-06
5.32015e-06
5.32389e-06
5.33118e-06
5.335e-06
5.34232e-06
5.34622e-06
5.35357e-06
5.35755e-06
5.36493e-06
5.369e-06
5.3764e-06
5.38055e-06
5.38798e-06
5.39222e-06
5.39595e-06
5.40182e-06
5.90899e-06
5.79042e-06
5.80034e-06
5.80442e-06
5.8126e-06
5.81682e-06
5.82502e-06
5.82933e-06
5.83758e-06
5.84197e-06
5.85025e-06
5.85474e-06
5.86306e-06
5.86764e-06
5.87599e-06
5.88066e-06
5.88904e-06
5.89382e-06
5.89803e-06
5.90465e-06
6.28156e-06
6.15261e-06
6.16339e-06
6.16781e-06
6.1767e-06
6.18128e-06
6.19019e-06
6.19487e-06
6.20382e-06
6.2086e-06
6.2176e-06
6.22248e-06
6.23151e-06
6.23649e-06
6.24556e-06
6.25065e-06
6.25976e-06
6.26496e-06
6.26954e-06
6.27673e-06
6.52255e-06
6.38676e-06
6.39809e-06
6.40274e-06
6.41209e-06
6.41691e-06
6.42628e-06
6.43121e-06
6.44063e-06
6.44566e-06
6.45513e-06
6.46027e-06
6.46977e-06
6.47502e-06
6.48457e-06
6.48993e-06
6.49952e-06
6.505e-06
6.50982e-06
6.51739e-06
6.66831e-06
6.52834e-06
6.54001e-06
6.5448e-06
6.55443e-06
6.5594e-06
6.56906e-06
6.57414e-06
6.58384e-06
6.58903e-06
6.59878e-06
6.60408e-06
6.61387e-06
6.61929e-06
6.62912e-06
6.63465e-06
6.64453e-06
6.65018e-06
6.65515e-06
6.66295e-06
6.75621e-06
6.61371e-06
6.62559e-06
6.63047e-06
6.64027e-06
6.64532e-06
6.65515e-06
6.66032e-06
6.6702e-06
6.67548e-06
6.6854e-06
6.69079e-06
6.70076e-06
6.70627e-06
6.71629e-06
6.72192e-06
6.73197e-06
6.73773e-06
6.74278e-06
6.75073e-06
6.81288e-06
6.66876e-06
6.68077e-06
6.6857e-06
6.69561e-06
6.70072e-06
6.71066e-06
6.71589e-06
6.72588e-06
6.73122e-06
6.74126e-06
6.74671e-06
6.75679e-06
6.76237e-06
6.77249e-06
6.77819e-06
6.78835e-06
6.79418e-06
6.79929e-06
6.80733e-06
6.85449e-06
6.70916e-06
6.72127e-06
6.72624e-06
6.73623e-06
6.74138e-06
6.75141e-06
6.75667e-06
6.76675e-06
6.77213e-06
6.78225e-06
6.78775e-06
6.79791e-06
6.80353e-06
6.81374e-06
6.81948e-06
6.82973e-06
6.83561e-06
6.84075e-06
6.84886e-06
6.89002e-06
6.74368e-06
6.75587e-06
6.76087e-06
6.77093e-06
6.77612e-06
6.78621e-06
6.79152e-06
6.80166e-06
6.80707e-06
6.81726e-06
6.8228e-06
6.83303e-06
6.83869e-06
6.84897e-06
6.85476e-06
6.86507e-06
6.87099e-06
6.87618e-06
6.88434e-06
6.92442e-06
6.77711e-06
6.78938e-06
6.79442e-06
6.80455e-06
6.80977e-06
6.81992e-06
6.82527e-06
6.83547e-06
6.84093e-06
6.85118e-06
6.85676e-06
6.86706e-06
6.87276e-06
6.8831e-06
6.88893e-06
6.89931e-06
6.90527e-06
6.91049e-06
6.91871e-06
6.9606e-06
6.81225e-06
6.8246e-06
6.82968e-06
6.83987e-06
6.84513e-06
6.85536e-06
6.86073e-06
6.87101e-06
6.8765e-06
6.88683e-06
6.89244e-06
6.90282e-06
6.90856e-06
6.91897e-06
6.92484e-06
6.93529e-06
6.9413e-06
6.94655e-06
6.95483e-06
7.00036e-06
6.85089e-06
6.86333e-06
6.86844e-06
6.87871e-06
6.88401e-06
6.89431e-06
6.89973e-06
6.91009e-06
6.91562e-06
6.92603e-06
6.93168e-06
6.94213e-06
6.94792e-06
6.95841e-06
6.96432e-06
6.97486e-06
6.98091e-06
6.9862e-06
6.99454e-06
7.045e-06
6.89425e-06
6.9068e-06
6.91195e-06
6.92231e-06
6.92765e-06
6.93804e-06
6.9435e-06
6.95394e-06
6.95953e-06
6.97002e-06
6.97572e-06
6.98626e-06
6.99209e-06
7.00268e-06
7.00864e-06
7.01926e-06
7.02536e-06
7.0307e-06
7.03911e-06
7.09496e-06
6.94277e-06
6.95544e-06
6.96064e-06
6.97109e-06
6.97648e-06
6.98697e-06
6.99249e-06
7.00302e-06
7.00866e-06
7.01925e-06
7.02501e-06
7.03564e-06
7.04153e-06
7.05221e-06
7.05823e-06
7.06896e-06
7.07511e-06
7.0805e-06
7.08899e-06
7.1489e-06
6.99518e-06
7.00796e-06
7.01322e-06
7.02377e-06
7.02922e-06
7.03981e-06
7.04538e-06
7.05602e-06
7.06172e-06
7.07241e-06
7.07823e-06
7.08897e-06
7.09492e-06
7.10571e-06
7.11179e-06
7.12262e-06
7.12884e-06
7.13428e-06
7.14286e-06
7.2023e-06
7.04711e-06
7.06002e-06
7.06531e-06
7.07597e-06
7.08146e-06
7.09215e-06
7.09778e-06
7.10852e-06
7.11427e-06
7.12506e-06
7.13094e-06
7.14178e-06
7.14779e-06
7.15868e-06
7.16483e-06
7.17575e-06
7.18205e-06
7.18754e-06
7.1962e-06
7.24676e-06
7.09344e-06
7.10596e-06
7.1111e-06
7.12148e-06
7.12686e-06
7.1373e-06
7.14285e-06
7.15337e-06
7.15908e-06
7.16969e-06
7.17557e-06
7.18626e-06
7.19231e-06
7.20309e-06
7.20931e-06
7.22016e-06
7.22657e-06
7.23205e-06
7.24076e-06
7.26665e-06
7.26664e-06
7.2666e-06
7.26663e-06
7.26658e-06
7.26661e-06
7.26657e-06
7.26658e-06
7.26657e-06
7.26657e-06
7.26656e-06
7.26656e-06
7.26656e-06
7.26655e-06
7.26655e-06
7.26655e-06
7.26655e-06
7.26655e-06
7.26655e-06
7.26655e-06
)
;

boundaryField
{
    movingWall
    {
        type            zeroGradient;
    }
    fixedWalls
    {
        type            zeroGradient;
    }
    frontAndBack
    {
        type            empty;
    }
}


// ************************************************************************* //
