/*--------------------------------*- C++ -*----------------------------------*\
| =========                 |                                                 |
| \\      /  F ield         | OpenFOAM: The Open Source CFD Toolbox           |
|  \\    /   O peration     | Version:  2506                                  |
|   \\  /    A nd           | Website:  www.openfoam.com                      |
|    \\/     M anipulation  |                                                 |
\*---------------------------------------------------------------------------*/
FoamFile
{
    version     2.0;
    format      ascii;
    arch        "LSB;label=32;scalar=64";
    class       volScalarField;
    location    "5.875";
    object      flowTypeField;
}
// * * * * * * * * * * * * * * * * * * * * * * * * * * * * * * * * * * * * * //

dimensions      [0 0 0 0 0 0 0];

internalField   nonuniform List<scalar> 
400
(
0.485061
0.05394
0.096581
-0.153084
0.832765
0.189388
0.3719
0.113401
-0.128535
0.699436
0.0372063
0.564133
0.94568
0.132745
0.154194
0.538589
0.82187
0.0512809
0.877318
0.0311862
0.859073
0.47768
0.381942
0.743324
-0.256256
-0.0141953
0.146485
0.245345
0.627208
0.42399
0.0194905
0.869541
0.934103
0.490376
0.0358408
0.170727
0.76151
-0.687573
0.638056
0.687707
0.318804
0.0684478
0.0071136
-0.0884191
-0.168862
0.594698
0.756108
-0.327833
-0.0299886
-0.125593
-0.377546
0.0284249
0.210607
-0.164796
0.471887
0.360729
-0.165257
-0.00190623
0.0556485
0.0113899
0.652396
0.11376
0.110234
-0.0528334
0.595544
-0.460447
0.788996
-0.0151752
0.901545
0.662441
0.640143
-0.00234879
0.454963
0.707132
0.0348961
0.0444593
0.336902
0.13198
0.48122
0.624009
0.931068
0.987021
0.733756
0.67164
0.671422
0.332865
0.82172
-0.0324956
0.391526
-0.555066
-0.130625
0.161559
0.181776
-0.0598509
0.513653
-0.0502991
0.0643668
0.700264
-0.412465
0.105113
0.509649
0.0714044
0.0508294
0.116645
-0.0893858
0.0197266
0.653903
0.591281
0.609049
0.666344
0.926307
0.80725
0.357662
0.217658
0.447618
0.642747
0.58264
0.918027
0.695064
0.73783
0.208988
0.0675108
-0.203736
0.76908
-0.39223
0.0459342
-0.0257552
0.303324
0.275056
0.212333
0.0842837
-0.0247532
-0.0923984
-0.0650834
0.163634
0.00066589
0.250272
0.719904
0.171603
0.126167
0.828737
0.422218
0.277751
0.604655
-0.206701
0.235259
0.754208
0.794425
0.940443
0.191037
0.756711
0.412957
-0.220545
0.202295
0.692211
-0.26756
-0.081886
0.880885
0.450214
0.472633
0.597662
0.142066
-0.060372
0.779095
-0.344118
0.106437
0.15252
0.143713
0.367051
0.349576
-0.204643
-0.246141
-0.0438503
0.364278
0.350802
0.795159
-0.000677622
0.777215
0.0641869
0.742609
-0.0799349
0.0226039
-0.176816
0.73959
-0.481105
-0.00314524
0.102567
0.613093
0.263196
0.431287
0.767818
0.306959
-0.161148
-0.286619
0.168116
-0.115646
0.014885
0.495239
0.0885022
0.491831
-0.0337255
0.00356271
-0.167864
0.219228
-0.543063
0.252629
0.346904
0.124813
0.0699709
0.875567
0.286936
0.685362
0.618871
0.0109784
0.976185
-0.0320915
0.784182
0.0608119
0.918528
0.268703
0.452044
0.136151
-0.0399019
0.310153
0.149806
0.439695
0.479041
0.922451
0.485638
0.947177
-0.562275
-0.645105
0.281542
0.291648
0.16198
0.060262
0.762378
0.220514
0.672855
0.00702478
0.792418
0.491972
0.379167
0.234612
0.261017
0.448564
0.147876
-0.183643
0.195759
0.921789
-0.0768778
-0.175172
0.329981
-0.0672378
-0.113618
-0.129457
0.924931
-0.201158
0.258429
0.0408174
0.258658
0.026821
-0.170651
0.271133
-0.407752
0.125267
-0.286724
0.0346554
0.140678
0.108012
0.129466
0.0944442
0.298844
0.100349
-0.0289064
0.69166
0.946812
-0.316627
-0.168517
0.877355
-0.000642326
0.0148783
-0.0959581
0.107121
-0.354074
0.550031
1.73038e-05
0.526536
0.685274
0.680916
0.703793
0.898883
0.804911
0.177297
-0.0813732
0.244557
0.817732
0.674387
0.95862
-0.0361152
0.542207
0.104082
-0.00584559
0.198362
-0.137264
-0.171959
-0.69465
-0.344546
0.0711825
-0.669483
-0.318715
-0.291022
-0.267007
-0.0762509
0.382965
0.292716
-0.0316243
-0.0895688
-0.0589794
0.669113
0.994166
0.593241
0.809724
0.138465
0.218672
0.286213
-0.0176071
0.177756
0.417493
0.548312
0.147412
0.573801
-0.097118
-0.0416116
0.446267
0.859468
-0.208447
0.807717
-0.235265
0.573855
0.395464
0.0994319
-0.0175536
0.278176
-0.218091
0.203302
0.0435362
0.38755
0.262139
-0.265326
0.0520876
0.364523
0.170813
-0.0407199
-0.00531075
-0.0146737
0.0469881
0.157494
0.623063
0.243945
0.841409
0.422444
0.268702
0.864092
-0.0594988
0.0265993
-0.178869
0.0176186
0.910336
0.36104
0.312513
0.705358
-0.0925268
-0.416669
0.0515676
0.220049
0.34085
0.474549
-0.294904
-0.142672
0.51934
0.0654432
0.120514
-0.0344444
0.299329
0.179877
0.459163
0.441889
-0.0671678
0.513588
0.107488
0.00237526
0.0260294
-0.00872051
0.592029
0.717937
0.156785
0.298749
0.625582
0.293498
)
;

boundaryField
{
    movingWall
    {
        type            calculated;
        value           nonuniform List<scalar> 
20
(
0.684983
0.142687
0.459901
-0.160245
0.263266
0.0148115
0.0643858
0.0249705
-0.0656655
0.0281173
0.0504707
-0.0581316
-0.0289677
0.286791
0.285582
0.273507
0.306902
0.563718
0.625734
0.158435
)
;
    }
    fixedWalls
    {
        type            calculated;
        value           nonuniform List<scalar> 
60
(
0.0720012
0.472465
0.0595056
0.126817
0.91608
0.0791819
0.0150563
0.405135
0.109516
-0.0208196
-0.0432909
0.0956922
0.506845
-0.00545832
0.00129583
0.0927519
0.646133
0.0769392
0.419876
0.0805217
0.0277736
0.747928
0.00124962
0.928879
0.661029
0.971137
0.42652
0.0909527
0.00578799
0.613655
0.594189
0.242681
0.12277
0.813048
-0.08639
0.95564
0.955208
0.321147
-0.513311
0.490576
0.63608
0.113033
0.354095
-0.136683
0.276511
0.00932582
0.0637864
-0.0262847
-0.133593
0.0234174
0.109121
0.091062
0.117347
0.539559
-0.054564
0.569108
0.860119
0.138123
0.462291
0.271804
)
;
    }
    frontAndBack
    {
        type            empty;
    }
}


// ************************************************************************* //
