/*--------------------------------*- C++ -*----------------------------------*\
| =========                 |                                                 |
| \\      /  F ield         | OpenFOAM: The Open Source CFD Toolbox           |
|  \\    /   O peration     | Version:  2506                                  |
|   \\  /    A nd           | Website:  www.openfoam.com                      |
|    \\/     M anipulation  |                                                 |
\*---------------------------------------------------------------------------*/
FoamFile
{
    version     2.0;
    format      ascii;
    arch        "LSB;label=32;scalar=64";
    class       surfaceScalarField;
    location    "5.875";
    object      fluxField;
}
// * * * * * * * * * * * * * * * * * * * * * * * * * * * * * * * * * * * * * //

dimensions      [0 3 -1 0 0 0 0];

oriented        oriented;

internalField   nonuniform List<scalar> 
760
(
-5e-05
3.36453e-18
-5e-05
-7.02835e-19
-5e-05
1.65262e-19
-5e-05
-3.84565e-20
-5e-05
9.88955e-21
-5e-05
7.72854e-21
-5e-05
1.05177e-20
-5e-05
9.02134e-21
-5e-05
5.20842e-21
-5e-05
2.1702e-21
-5e-05
1.04314e-21
-5e-05
2.59352e-21
-5e-05
3.96464e-21
-5e-05
1.99412e-21
-5e-05
4.8082e-22
-5e-05
3.67523e-21
-5e-05
5.96957e-21
-5e-05
-2.09248e-21
-5e-05
-5.16298e-21
-5.65e-22
-5e-05
-2.15848e-18
-5e-05
4.53257e-19
-5e-05
-1.08182e-19
-5e-05
2.45275e-20
-5e-05
-3.07545e-22
-5e-05
5.14973e-21
-5e-05
3.46747e-21
-5e-05
8.3489e-21
-5e-05
1.32887e-20
-5e-05
8.68537e-21
-5e-05
3.87371e-22
-5e-05
9.49624e-23
-5e-05
-2.42095e-22
-5e-05
-1.41404e-21
-5e-05
1.14873e-21
-5e-05
4.49803e-21
-5e-05
1.39421e-21
-5e-05
-2.83498e-21
-5e-05
-3.5609e-21
-4.72198e-21
-5e-05
-1.12985e-18
-5e-05
2.0819e-19
-5e-05
-5.57963e-20
-5e-05
1.22146e-20
-5e-05
2.62482e-21
-5e-05
1.77508e-21
-5e-05
-7.52082e-22
-5e-05
1.16844e-21
-5e-05
6.56081e-21
-5e-05
4.43814e-21
-5e-05
2.08562e-21
-5e-05
3.71486e-21
-5e-05
3.86273e-21
-5e-05
7.08615e-22
-5e-05
2.18674e-21
-5e-05
1.74579e-21
-5e-05
-3.1923e-21
-5e-05
-3.97239e-21
-5e-05
-2.73813e-21
-5.44651e-21
-5e-05
1.82802e-18
-5e-05
-4.06279e-19
-5e-05
8.68065e-20
-5e-05
-2.49307e-20
-5e-05
3.63618e-21
-5e-05
2.23138e-22
-5e-05
8.08588e-22
-5e-05
-3.87828e-21
-5e-05
-2.71165e-21
-5e-05
2.73351e-21
-5e-05
9.03806e-21
-5e-05
9.48721e-21
-5e-05
7.08096e-21
-5e-05
4.16309e-21
-5e-05
2.91207e-21
-5e-05
-1.57896e-21
-5e-05
-4.73559e-21
-5e-05
-6.29211e-21
-5e-05
-4.42647e-21
-2.64293e-21
-5e-05
-1.48769e-18
-5e-05
3.16426e-19
-5e-05
-7.16494e-20
-5e-05
1.48071e-20
-5e-05
-5.92869e-21
-5e-05
-2.38254e-22
-5e-05
3.11983e-21
-5e-05
1.6446e-21
-5e-05
8.51301e-22
-5e-05
4.15719e-21
-5e-05
6.71141e-21
-5e-05
6.40387e-21
-5e-05
4.34187e-21
-5e-05
5.29878e-21
-5e-05
4.26699e-21
-5e-05
-1.87033e-21
-5e-05
-4.32205e-21
-5e-05
-5.41271e-21
-5e-05
-4.10892e-21
-7.7857e-22
-5e-05
2.14665e-19
-5e-05
-4.29593e-20
-5e-05
2.22176e-20
-5e-05
6.99558e-21
-5e-05
6.25676e-21
-5e-05
5.42862e-21
-5e-05
9.72408e-21
-5e-05
1.00303e-20
-5e-05
4.75979e-21
-5e-05
8.62757e-22
-5e-05
1.45854e-23
-5e-05
6.07638e-22
-5e-05
2.43119e-21
-5e-05
6.06245e-21
-5e-05
6.20345e-21
-5e-05
6.65643e-22
-5e-05
-1.15399e-21
-5e-05
-2.08776e-21
-5e-05
-1.2952e-21
7.45381e-22
-5e-05
1.26519e-18
-5e-05
-2.585e-19
-5e-05
6.80606e-20
-5e-05
-4.37281e-21
-5e-05
7.2236e-21
-5e-05
3.67776e-21
-5e-05
7.20582e-21
-5e-05
9.87964e-21
-5e-05
5.38071e-21
-5e-05
3.76364e-21
-5e-05
4.80004e-21
-5e-05
7.13868e-22
-5e-05
-3.51286e-21
-5e-05
-1.46934e-21
-5e-05
5.52686e-22
-5e-05
7.77976e-22
-5e-05
1.29241e-22
-5e-05
3.96277e-22
-5e-05
1.48507e-22
-4.50468e-22
-5e-05
-1.33109e-18
-5e-05
2.85245e-19
-5e-05
-6.51769e-20
-5e-05
1.86332e-20
-5e-05
-2.57979e-21
-5e-05
-8.99958e-22
-5e-05
-9.24156e-22
-5e-05
2.75098e-21
-5e-05
3.51808e-21
-5e-05
8.20098e-21
-5e-05
8.07822e-21
-5e-05
-2.81605e-22
-5e-05
-7.46555e-21
-5e-05
-6.45061e-21
-5e-05
-4.74963e-21
-5e-05
-1.52502e-21
-5e-05
-1.79867e-21
-5e-05
-5.31389e-22
-5e-05
-1.0971e-21
-2.7125e-21
-5e-05
3.98645e-19
-5e-05
-8.70067e-20
-5e-05
1.57356e-20
-5e-05
-8.37016e-22
-5e-05
4.83537e-21
-5e-05
4.11601e-21
-5e-05
4.77524e-21
-5e-05
2.28211e-21
-5e-05
2.68087e-21
-5e-05
7.84813e-21
-5e-05
4.82283e-21
-5e-05
-2.67552e-21
-5e-05
-4.17449e-21
-5e-05
-6.06014e-22
-5e-05
1.42025e-21
-5e-05
1.82307e-21
-5e-05
9.70185e-22
-5e-05
-2.82897e-21
-5e-05
-5.51916e-21
-3.38483e-21
-5e-05
1.59022e-19
-5e-05
-3.58055e-20
-5e-05
4.55668e-21
-5e-05
-1.44162e-21
-5e-05
3.23693e-21
-5e-05
3.90817e-21
-5e-05
5.82688e-21
-5e-05
3.45254e-22
-5e-05
-2.46848e-21
-5e-05
-3.4005e-22
-5e-05
-1.53454e-21
-5e-05
-1.83304e-21
-5e-05
-1.35316e-23
-5e-05
1.42932e-22
-5e-05
1.02861e-21
-5e-05
1.24295e-21
-5e-05
1.7493e-21
-5e-05
-2.52615e-21
-5e-05
-7.48974e-21
-3.13305e-21
-5e-05
-4.89991e-19
-5e-05
1.17166e-19
-5e-05
-1.8601e-20
-5e-05
9.5592e-21
-5e-05
2.92251e-21
-5e-05
1.24422e-21
-5e-05
-2.63523e-21
-5e-05
-5.13817e-21
-5e-05
-6.12721e-21
-5e-05
-6.07937e-21
-5e-05
-5.0016e-21
-5e-05
1.88355e-21
-5e-05
3.70928e-21
-5e-05
-3.09321e-22
-5e-05
-1.67484e-21
-5e-05
-2.85846e-21
-5e-05
-2.59044e-21
-5e-05
-2.52545e-21
-5e-05
-3.59547e-21
-8.70381e-22
-5e-05
9.22972e-19
-5e-05
-1.85404e-19
-5e-05
5.50397e-20
-5e-05
-4.57147e-21
-5e-05
5.29507e-21
-5e-05
-5.34851e-22
-5e-05
-6.36575e-21
-5e-05
-6.05946e-21
-5e-05
-2.97251e-21
-5e-05
-4.79944e-21
-5e-05
-3.28743e-21
-5e-05
3.10596e-21
-5e-05
4.93308e-21
-5e-05
2.45843e-21
-5e-05
-4.7821e-22
-5e-05
-3.80575e-21
-5e-05
-4.73476e-21
-5e-05
-3.47818e-21
-5e-05
-4.82265e-22
2.0419e-22
-5e-05
-9.31283e-19
-5e-05
1.83588e-19
-5e-05
-4.54897e-20
-5e-05
6.3881e-21
-5e-05
-5.45644e-21
-5e-05
-4.62586e-21
-5e-05
-8.30822e-21
-5e-05
-8.28319e-21
-5e-05
-5.14355e-21
-5e-05
-5.44989e-21
-5e-05
-2.38275e-21
-5e-05
-6.0326e-22
-5e-05
1.73357e-21
-5e-05
3.7797e-21
-5e-05
-1.14516e-21
-5e-05
-4.19745e-21
-5e-05
-6.60321e-21
-5e-05
-3.47336e-21
-5e-05
7.90258e-22
-5.71639e-22
-5e-05
4.62286e-19
-5e-05
-1.14682e-19
-5e-05
1.39344e-20
-5e-05
-9.56296e-21
-5e-05
-2.15808e-21
-5e-05
-6.48326e-21
-5e-05
-7.34472e-21
-5e-05
-6.58919e-21
-5e-05
-3.4941e-21
-5e-05
-3.84499e-21
-5e-05
-3.29604e-21
-5e-05
-3.83474e-21
-5e-05
-1.948e-21
-5e-05
2.06019e-21
-5e-05
9.37117e-22
-5e-05
1.1836e-21
-5e-05
-2.25747e-21
-5e-05
-1.48571e-21
-5e-05
6.20901e-22
-5.57947e-22
-5e-05
5.50014e-19
-5e-05
-1.29765e-19
-5e-05
1.78036e-20
-5e-05
-1.4817e-20
-5e-05
-6.41832e-21
-5e-05
-1.07269e-20
-5e-05
-7.35707e-21
-5e-05
1.23132e-21
-5e-05
7.55423e-21
-5e-05
4.47276e-21
-5e-05
1.14207e-22
-5e-05
-1.65367e-21
-5e-05
-1.74409e-21
-5e-05
-3.80291e-21
-5e-05
-1.10578e-21
-5e-05
2.01503e-21
-5e-05
2.29207e-21
-5e-05
-1.2397e-21
-5e-05
-3.10432e-21
-1.92035e-21
-5e-05
-1.39879e-18
-5e-05
2.80884e-19
-5e-05
-7.42525e-20
-5e-05
5.67767e-21
-5e-05
-1.24817e-20
-5e-05
-8.98188e-21
-5e-05
-5.99604e-21
-5e-05
3.7154e-21
-5e-05
7.67273e-21
-5e-05
4.46535e-21
-5e-05
4.29692e-22
-5e-05
-4.34354e-22
-5e-05
7.68361e-22
-5e-05
-1.78481e-21
-5e-05
-5.96868e-22
-5e-05
-1.16889e-21
-5e-05
1.73633e-21
-5e-05
1.61725e-21
-5e-05
-2.57143e-21
-3.27114e-21
-5e-05
1.4448e-18
-5e-05
-3.05182e-19
-5e-05
6.67125e-20
-5e-05
-1.73941e-20
-5e-05
6.22328e-22
-5e-05
1.67133e-21
-5e-05
9.129e-22
-5e-05
-1.57314e-21
-5e-05
-3.80063e-21
-5e-05
-3.6255e-21
-5e-05
-2.74351e-21
-5e-05
-9.87771e-22
-5e-05
-1.04575e-21
-5e-05
6.15623e-22
-5e-05
8.80726e-22
-5e-05
5.8057e-22
-5e-05
4.28944e-21
-5e-05
7.06597e-21
-5e-05
2.01232e-21
-1.01512e-21
-5e-05
1.07345e-18
-5e-05
-2.33259e-19
-5e-05
4.7882e-20
-5e-05
-1.61149e-20
-5e-05
3.03283e-21
-5e-05
3.8798e-21
-5e-05
-9.65463e-22
-5e-05
-9.14169e-21
-5e-05
-8.30654e-21
-5e-05
-3.42954e-21
-5e-05
2.61165e-22
-5e-05
1.82669e-21
-5e-05
-2.18685e-21
-5e-05
-2.67297e-21
-5e-05
-3.99575e-21
-5e-05
-1.68961e-21
-5e-05
1.72477e-21
-5e-05
2.63593e-21
-5e-05
1.79032e-21
1.42443e-21
-5e-05
-2.61485e-18
-5e-05
5.36567e-19
-5e-05
-1.3279e-19
-5e-05
2.48968e-20
-5e-05
-3.52554e-21
-5e-05
-5.69755e-22
-5e-05
-7.57988e-21
-5e-05
-1.0979e-20
-5e-05
-5.18947e-21
-5e-05
-2.01895e-21
-5e-05
-1.10309e-21
-5e-05
1.74197e-22
-5e-05
-2.48495e-22
-5e-05
-2.2319e-21
-5e-05
-5.21442e-21
-5e-05
-4.9055e-21
-5e-05
-4.49165e-21
-5e-05
-3.41885e-21
-5e-05
1.73746e-22
1.12162e-21
-5e-05
-5e-05
-5e-05
-5e-05
-5e-05
-5e-05
-5e-05
-5e-05
-5e-05
-5e-05
-5e-05
-5e-05
-5e-05
-5e-05
-5e-05
-5e-05
-5e-05
-5e-05
-5e-05
)
;

boundaryField
{
    movingWall
    {
        type            calculated;
        value           uniform -0;
    }
    fixedWalls
    {
        type            calculated;
        value           nonuniform List<scalar> 
60
(
5e-05
5e-05
5e-05
5e-05
5e-05
5e-05
5e-05
5e-05
5e-05
5e-05
5e-05
5e-05
5e-05
5e-05
5e-05
5e-05
5e-05
5e-05
5e-05
5e-05
-5e-05
-5e-05
-5e-05
-5e-05
-5e-05
-5e-05
-5e-05
-5e-05
-5e-05
-5e-05
-5e-05
-5e-05
-5e-05
-5e-05
-5e-05
-5e-05
-5e-05
-5e-05
-5e-05
-5e-05
0
0
0
0
0
0
0
0
0
0
0
0
0
0
0
0
0
0
0
0
)
;
    }
    frontAndBack
    {
        type            empty;
    }
}


// ************************************************************************* //
