/*--------------------------------*- C++ -*----------------------------------*\
| =========                 |                                                 |
| \\      /  F ield         | OpenFOAM: The Open Source CFD Toolbox           |
|  \\    /   O peration     | Version:  2506                                  |
|   \\  /    A nd           | Website:  www.openfoam.com                      |
|    \\/     M anipulation  |                                                 |
\*---------------------------------------------------------------------------*/
FoamFile
{
    version     2.0;
    format      ascii;
    arch        "LSB;label=32;scalar=64";
    class       volTensorField;
    location    "5.875";
    object      gradU;
}
// * * * * * * * * * * * * * * * * * * * * * * * * * * * * * * * * * * * * * //

dimensions      [0 0 -1 0 0 0 0];

internalField   nonuniform List<tensor> 
400
(
(-7.58942e-13 8.07474e-12 0 7.86047e-13 1.34581e-11 0 0 0 0)
(1.30104e-12 -9.70995e-12 0 -8.13152e-14 -2.81134e-12 0 0 0 0)
(-3.52366e-13 2.01971e-12 0 8.13152e-14 6.6105e-13 0 0 0 0)
(2.71051e-14 -4.77711e-13 0 1.0842e-13 -1.53826e-13 0 0 0 0)
(0 1.30136e-13 0 1.0842e-13 3.95582e-14 0 0 0 0)
(-2.71051e-14 1.75023e-16 0 5.42101e-14 3.09142e-14 0 0 0 0)
(-5.42101e-14 3.01457e-15 0 5.42101e-14 4.2071e-14 0 0 0 0)
(-5.42101e-14 -2.30628e-14 0 5.42101e-14 3.60854e-14 0 0 0 0)
(-2.71051e-14 -2.15525e-14 0 5.42101e-14 2.08337e-14 0 0 0 0)
(0 1.60773e-15 0 0 8.68082e-15 0 0 0 0)
(0 1.43642e-14 0 0 4.17256e-15 0 0 0 0)
(2.71051e-14 1.13572e-14 0 0 1.03741e-14 0 0 0 0)
(-5.42101e-14 -1.54311e-15 0 0 1.58586e-14 0 0 0 0)
(0 -1.30286e-14 0 0 7.9765e-15 0 0 0 0)
(0 -2.53646e-15 0 0 1.92328e-15 0 0 0 0)
(-2.71051e-14 1.31655e-14 0 0 1.47009e-14 0 0 0 0)
(-5.42101e-14 -7.58625e-15 0 0 2.38783e-14 0 0 0 0)
(0 -2.44257e-14 0 0 -8.3699e-15 0 0 0 0)
(5.42101e-14 4.70918e-15 0 0 -2.06519e-14 0 0 0 0)
(0 8.40914e-15 0 0 -2.26e-15 0 0 0 0)
(1.49078e-12 2.57205e-12 0 1.89735e-13 -2.20921e-11 0 0 0 0)
(-2.00577e-12 -3.08714e-12 0 -2.98156e-13 4.62437e-12 0 0 0 0)
(5.42101e-13 6.37803e-13 0 -1.6263e-13 -1.09378e-12 0 0 0 0)
(-5.42101e-14 -1.43781e-13 0 -8.13152e-14 2.51936e-13 0 0 0 0)
(-2.71051e-14 5.46042e-14 0 -1.6263e-13 -4.07884e-14 0 0 0 0)
(0 2.33777e-15 0 -1.35525e-13 -1.03153e-14 0 0 0 0)
(2.71051e-14 2.15664e-15 0 -5.42101e-14 -2.82011e-14 0 0 0 0)
(5.42101e-14 1.82546e-15 0 -5.42101e-14 -2.68978e-15 0 0 0 0)
(-5.42101e-14 -5.85206e-15 0 -2.71051e-14 3.23213e-14 0 0 0 0)
(-2.71051e-14 -1.82688e-14 0 -5.42101e-14 2.60607e-14 0 0 0 0)
(0 -1.26709e-14 0 0 -2.62308e-15 0 0 0 0)
(0 3.2879e-16 0 0 -9.99424e-15 0 0 0 0)
(2.71051e-14 -8.54484e-16 0 0 -1.68269e-14 0 0 0 0)
(5.42101e-14 -9.06631e-16 0 2.71051e-14 -1.36327e-14 0 0 0 0)
(0 9.26088e-15 0 0 2.67164e-15 0 0 0 0)
(-5.42101e-14 8.78953e-15 0 -5.42101e-14 3.29119e-15 0 0 0 0)
(8.13152e-14 -1.54846e-14 0 0 -1.83014e-14 0 0 0 0)
(0 -2.01045e-14 0 2.71051e-14 -2.97003e-15 0 0 0 0)
(-8.13152e-14 1.40073e-15 0 2.71051e-14 6.40834e-15 0 0 0 0)
(5.42101e-14 1.45028e-14 0 0 -1.66279e-14 0 0 0 0)
(-7.86047e-13 -9.39294e-12 0 -2.52077e-12 4.11451e-12 0 0 0 0)
(8.94467e-13 1.12883e-11 0 7.04731e-13 -9.80268e-13 0 0 0 0)
(-1.89735e-13 -2.35272e-12 0 0 2.09545e-13 0 0 0 0)
(2.71051e-14 5.75281e-13 0 -5.42101e-14 -4.92519e-14 0 0 0 0)
(-2.71051e-14 -1.32115e-13 0 2.71051e-14 1.17295e-14 0 0 0 0)
(2.71051e-14 1.27623e-14 0 2.71051e-14 -1.34986e-14 0 0 0 0)
(5.42101e-14 1.064e-14 0 0 -1.68782e-14 0 0 0 0)
(0 3.74596e-14 0 -8.13152e-14 -2.87218e-14 0 0 0 0)
(0 7.19794e-15 0 -8.13152e-14 -2.69117e-14 0 0 0 0)
(5.42101e-14 -3.33366e-14 0 1.0842e-13 -1.69889e-14 0 0 0 0)
(0 -2.16907e-14 0 5.42101e-14 6.79302e-15 0 0 0 0)
(0 -2.84665e-15 0 2.71051e-14 1.44796e-14 0 0 0 0)
(-2.71051e-14 -5.18154e-15 0 2.71051e-14 1.64193e-14 0 0 0 0)
(0 6.46993e-15 0 -2.71051e-14 8.49064e-15 0 0 0 0)
(-2.71051e-14 1.43874e-14 0 0 4.15202e-15 0 0 0 0)
(0 -7.80762e-15 0 0 -1.1009e-14 0 0 0 0)
(0 -1.38475e-14 0 2.71051e-14 -1.8346e-14 0 0 0 0)
(0 2.84119e-16 0 -8.13152e-14 -4.54962e-15 0 0 0 0)
(0 -8.9487e-15 0 0 3.29106e-15 0 0 0 0)
(0 1.86287e-14 0 0 -2.89812e-15 0 0 0 0)
(-4.33681e-13 5.70629e-12 0 1.84314e-12 1.18315e-11 0 0 0 0)
(5.96311e-13 -6.9921e-12 0 -4.33681e-13 -2.45788e-12 0 0 0 0)
(-1.89735e-13 1.56882e-12 0 8.13152e-14 5.70411e-13 0 0 0 0)
(0 -3.41596e-13 0 5.42101e-14 -1.48581e-13 0 0 0 0)
(0 9.03575e-14 0 5.42101e-14 4.04543e-15 0 0 0 0)
(0 -2.62699e-14 0 5.42101e-14 -6.20777e-15 0 0 0 0)
(-8.13152e-14 -1.30666e-14 0 0 6.24268e-15 0 0 0 0)
(0 -8.20806e-15 0 2.71051e-14 -2.01869e-14 0 0 0 0)
(8.13152e-14 5.88085e-15 0 0 -3.70898e-14 0 0 0 0)
(5.42101e-14 1.54359e-14 0 0 -6.81852e-15 0 0 0 0)
(-5.42101e-14 1.87976e-14 0 0 2.78097e-14 0 0 0 0)
(0 9.95506e-15 0 -2.71051e-14 2.30894e-14 0 0 0 0)
(0 -6.84342e-15 0 0 1.28729e-14 0 0 0 0)
(-5.42101e-14 -1.31739e-14 0 0 1.38179e-14 0 0 0 0)
(0 -1.02387e-14 0 0 2.90134e-15 0 0 0 0)
(5.42101e-14 -1.37085e-14 0 8.13152e-14 -1.3299e-14 0 0 0 0)
(0 -9.02524e-15 0 -2.71051e-14 -6.17316e-15 0 0 0 0)
(2.71051e-14 1.53254e-15 0 5.42101e-14 -9.27891e-15 0 0 0 0)
(0 3.05223e-15 0 0 -6.75335e-15 0 0 0 0)
(-2.71051e-14 1.41098e-14 0 2.71051e-14 1.12143e-14 0 0 0 0)
(5.69206e-13 -1.93301e-14 0 6.50521e-13 -1.32628e-11 0 0 0 0)
(-8.94467e-13 2.72518e-14 0 0 2.89082e-12 0 0 0 0)
(2.98156e-13 -4.34274e-14 0 1.0842e-13 -6.33824e-13 0 0 0 0)
(0 8.91464e-15 0 5.42101e-14 1.58951e-13 0 0 0 0)
(0 1.02581e-14 0 0 -3.82595e-14 0 0 0 0)
(2.71051e-14 1.49595e-14 0 5.42101e-14 -1.84557e-15 0 0 0 0)
(2.71051e-14 -3.33909e-15 0 0 9.24498e-15 0 0 0 0)
(0 -5.87288e-15 0 8.13152e-14 2.20915e-14 0 0 0 0)
(-2.71051e-14 2.05663e-14 0 0 1.42518e-14 0 0 0 0)
(0 3.15629e-14 0 -5.42101e-14 5.69471e-15 0 0 0 0)
(0 8.2172e-15 0 -5.42101e-14 -9.30658e-15 0 0 0 0)
(0 -1.77835e-14 0 0 -1.23334e-14 0 0 0 0)
(0 -1.44531e-14 0 0 -1.09563e-14 0 0 0 0)
(0 -3.50165e-15 0 5.42101e-14 4.54279e-15 0 0 0 0)
(2.71051e-14 -1.27295e-14 0 0 5.41968e-15 0 0 0 0)
(-2.71051e-14 -1.68821e-14 0 2.71051e-14 -1.16548e-15 0 0 0 0)
(-2.71051e-14 -9.82738e-15 0 2.71051e-14 1.65416e-15 0 0 0 0)
(0 -2.96074e-16 0 0 3.51763e-15 0 0 0 0)
(0 1.15445e-14 0 -2.71051e-14 1.27022e-15 0 0 0 0)
(0 1.41677e-14 0 0 7.45742e-15 0 0 0 0)
(2.71051e-13 -4.66572e-12 0 -1.02999e-12 6.80942e-12 0 0 0 0)
(2.71051e-14 5.63691e-12 0 2.43945e-13 -1.43754e-12 0 0 0 0)
(-1.0842e-13 -1.16305e-12 0 0 3.75468e-13 0 0 0 0)
(-1.35525e-13 2.53968e-13 0 0 -3.1246e-14 0 0 0 0)
(0 -7.04394e-14 0 2.71051e-14 4.87418e-14 0 0 0 0)
(-2.71051e-14 2.12346e-14 0 -2.71051e-14 2.26675e-14 0 0 0 0)
(-2.71051e-14 1.08705e-14 0 0 2.6417e-14 0 0 0 0)
(-5.42101e-14 -3.20125e-15 0 -2.71051e-14 3.35429e-14 0 0 0 0)
(-2.71051e-14 -1.0516e-14 0 0 1.5634e-14 0 0 0 0)
(2.71051e-14 -8.12247e-15 0 0 -1.31777e-14 0 0 0 0)
(0 7.69505e-16 0 0 -2.67873e-14 0 0 0 0)
(5.42101e-14 8.3053e-15 0 0 -2.31849e-14 0 0 0 0)
(5.42101e-14 1.00327e-14 0 -2.71051e-14 -7.64273e-15 0 0 0 0)
(0 3.20213e-15 0 0 3.05468e-15 0 0 0 0)
(-2.71051e-14 -1.5947e-14 0 0 7.74584e-15 0 0 0 0)
(0 -1.7474e-14 0 -2.71051e-14 1.01439e-14 0 0 0 0)
(0 -4.34213e-15 0 0 1.26722e-14 0 0 0 0)
(-2.71051e-14 1.14861e-15 0 0 1.32998e-14 0 0 0 0)
(2.71051e-14 6.99202e-15 0 0 1.12549e-14 0 0 0 0)
(-2.71051e-14 5.3822e-15 0 0 6.0958e-15 0 0 0 0)
(-1.89735e-13 5.35255e-12 0 8.13152e-14 4.20212e-12 0 0 0 0)
(1.89735e-13 -6.4067e-12 0 -3.79471e-13 -8.62161e-13 0 0 0 0)
(-5.42101e-14 1.36287e-12 0 -2.98156e-13 1.83372e-13 0 0 0 0)
(5.42101e-14 -3.17812e-13 0 -2.43945e-13 -4.54736e-14 0 0 0 0)
(0 6.41715e-14 0 -1.6263e-13 3.86739e-15 0 0 0 0)
(0 -7.36526e-15 0 -1.6263e-13 -7.00345e-15 0 0 0 0)
(2.71051e-14 7.53633e-15 0 -8.13152e-14 -1.00731e-14 0 0 0 0)
(0 -1.66559e-14 0 -5.42101e-14 -6.02752e-16 0 0 0 0)
(-2.71051e-14 -2.61543e-14 0 0 2.48368e-15 0 0 0 0)
(0 -1.08583e-14 0 -5.42101e-14 1.16035e-14 0 0 0 0)
(0 -1.78998e-15 0 -5.42101e-14 1.91418e-14 0 0 0 0)
(0 1.36113e-15 0 -5.42101e-14 4.24921e-16 0 0 0 0)
(0 1.17865e-14 0 -8.13152e-14 -2.37762e-14 0 0 0 0)
(0 1.18869e-14 0 -1.0842e-13 -3.01272e-14 0 0 0 0)
(0 -5.64027e-15 0 -5.42101e-14 -2.26031e-14 0 0 0 0)
(0 -1.19557e-14 0 0 4.49333e-16 0 0 0 0)
(0 -6.67149e-15 0 -2.71051e-14 5.13294e-15 0 0 0 0)
(0 -1.71342e-15 0 0 9.93615e-15 0 0 0 0)
(0 4.34055e-15 0 2.71051e-14 5.77482e-15 0 0 0 0)
(0 -3.18293e-15 0 -2.71051e-14 -4.7834e-15 0 0 0 0)
(-8.13152e-14 -1.32577e-12 0 5.42101e-14 -1.03851e-11 0 0 0 0)
(-3.25261e-13 1.61816e-12 0 1.6263e-13 2.17498e-12 0 0 0 0)
(1.0842e-13 -3.46359e-13 0 1.0842e-13 -5.3295e-13 0 0 0 0)
(2.71051e-14 7.44638e-14 0 1.35525e-13 9.20242e-14 0 0 0 0)
(0 -3.19692e-14 0 8.13152e-14 -3.92136e-14 0 0 0 0)
(5.42101e-14 7.29413e-15 0 8.13152e-14 -1.83109e-14 0 0 0 0)
(2.71051e-14 1.72712e-14 0 2.71051e-14 -3.25199e-14 0 0 0 0)
(5.42101e-14 9.35549e-15 0 0 -2.85146e-14 0 0 0 0)
(5.42101e-14 1.69032e-15 0 0 -7.45053e-15 0 0 0 0)
(0 8.53568e-15 0 5.42101e-14 1.77494e-14 0 0 0 0)
(-5.42101e-14 -1.04091e-14 0 0 1.31127e-14 0 0 0 0)
(5.42101e-14 -3.46127e-14 0 0 -3.98189e-15 0 0 0 0)
(0 -2.05194e-14 0 8.13152e-14 -1.58108e-14 0 0 0 0)
(2.71051e-14 4.37526e-15 0 5.42101e-14 -1.99251e-14 0 0 0 0)
(5.42101e-14 1.46295e-14 0 0 -2.12093e-14 0 0 0 0)
(0 1.0262e-14 0 -2.71051e-14 -9.212e-15 0 0 0 0)
(0 5.14469e-15 0 -5.42101e-14 -7.71163e-15 0 0 0 0)
(2.71051e-14 1.79049e-15 0 0 -3.71066e-15 0 0 0 0)
(-2.71051e-14 -7.72753e-15 0 -2.71051e-14 -4.98244e-15 0 0 0 0)
(0 4.39078e-15 0 0 -9.04813e-15 0 0 0 0)
(5.42101e-14 -2.8576e-12 0 -2.71051e-13 6.91893e-12 0 0 0 0)
(2.43945e-13 3.44548e-12 0 2.43945e-13 -1.48901e-12 0 0 0 0)
(-1.0842e-13 -7.20087e-13 0 1.35525e-13 3.2365e-13 0 0 0 0)
(0 1.75925e-13 0 1.35525e-13 -7.7881e-14 0 0 0 0)
(0 -4.61635e-14 0 1.0842e-13 2.96607e-14 0 0 0 0)
(-5.42101e-14 -6.71597e-16 0 1.0842e-13 2.00639e-14 0 0 0 0)
(-5.42101e-14 -2.66745e-15 0 8.13152e-14 2.27976e-14 0 0 0 0)
(-2.71051e-14 8.41345e-15 0 8.13152e-14 -1.87545e-15 0 0 0 0)
(0 2.01097e-14 0 5.42101e-14 -3.34883e-15 0 0 0 0)
(0 9.70487e-15 0 2.71051e-14 -1.41138e-15 0 0 0 0)
(0 -2.35212e-14 0 1.0842e-13 -1.30216e-14 0 0 0 0)
(0 -2.75623e-14 0 1.0842e-13 -9.57567e-15 0 0 0 0)
(0 -4.15665e-15 0 5.42101e-14 1.31643e-14 0 0 0 0)
(-5.42101e-14 6.48844e-15 0 5.42101e-14 2.33784e-14 0 0 0 0)
(-5.42101e-14 5.07281e-15 0 5.42101e-14 2.46795e-14 0 0 0 0)
(0 1.54189e-15 0 0 1.33924e-14 0 0 0 0)
(0 -1.17015e-15 0 5.42101e-14 1.10754e-14 0 0 0 0)
(0 1.01577e-15 0 0 -9.19034e-15 0 0 0 0)
(0 -9.96917e-16 0 -5.42101e-14 -1.76882e-14 0 0 0 0)
(5.42101e-14 1.08476e-14 0 0 -2.68933e-15 0 0 0 0)
(-8.13152e-14 4.10416e-12 0 -4.60786e-13 -9.58492e-13 0 0 0 0)
(2.71051e-14 -4.97712e-12 0 -1.0842e-13 2.04805e-13 0 0 0 0)
(0 1.06477e-12 0 -1.89735e-13 -4.47157e-14 0 0 0 0)
(-2.71051e-14 -2.19526e-13 0 -1.6263e-13 -2.4184e-15 0 0 0 0)
(0 6.59756e-14 0 -1.35525e-13 -6.39378e-15 0 0 0 0)
(0 4.31049e-16 0 -1.35525e-13 -8.31371e-16 0 0 0 0)
(2.71051e-14 -4.66813e-15 0 -8.13152e-14 4.20656e-15 0 0 0 0)
(0 -1.67909e-14 0 -2.71051e-14 -7.74744e-15 0 0 0 0)
(5.42101e-14 2.15439e-15 0 -5.42101e-14 -2.05974e-14 0 0 0 0)
(2.71051e-14 -1.13704e-15 0 -2.71051e-14 -3.27527e-14 0 0 0 0)
(2.71051e-14 -1.85734e-14 0 -2.71051e-14 -2.54295e-14 0 0 0 0)
(0 -8.42693e-15 0 -2.71051e-14 3.36993e-15 0 0 0 0)
(0 1.24347e-14 0 -5.42101e-14 1.66438e-14 0 0 0 0)
(0 1.58905e-14 0 -5.42101e-14 2.99579e-15 0 0 0 0)
(0 4.64355e-15 0 2.71051e-14 -1.56657e-15 0 0 0 0)
(0 -3.34216e-15 0 2.71051e-14 -2.32051e-15 0 0 0 0)
(0 -1.7438e-14 0 0 3.11646e-15 0 0 0 0)
(-5.42101e-14 -2.69731e-14 0 0 1.21131e-15 0 0 0 0)
(2.71051e-14 -1.22652e-15 0 5.42101e-14 -7.88233e-15 0 0 0 0)
(-2.71051e-14 2.47683e-14 0 5.42101e-14 1.00714e-15 0 0 0 0)
(-4.87891e-13 -3.61129e-12 0 1.16552e-12 -2.59605e-12 0 0 0 0)
(4.87891e-13 4.35925e-12 0 -5.42101e-14 6.11886e-13 0 0 0 0)
(-1.89735e-13 -9.2731e-13 0 1.89735e-13 -9.26308e-14 0 0 0 0)
(1.0842e-13 2.14247e-13 0 2.71051e-14 4.40033e-14 0 0 0 0)
(0 -4.45765e-14 0 8.13152e-14 -1.2577e-15 0 0 0 0)
(-5.42101e-14 9.92874e-15 0 8.13152e-14 -1.06558e-14 0 0 0 0)
(8.13152e-14 -9.58352e-15 0 5.42101e-14 -3.38484e-14 0 0 0 0)
(5.42101e-14 -1.63905e-14 0 5.42101e-14 -2.19337e-14 0 0 0 0)
(-5.42101e-14 -4.89561e-15 0 1.0842e-13 -1.46349e-14 0 0 0 0)
(5.42101e-14 4.87281e-15 0 0 -2.29573e-14 0 0 0 0)
(0 1.26014e-14 0 0 -1.38683e-14 0 0 0 0)
(-5.42101e-14 1.4511e-14 0 0 1.48664e-14 0 0 0 0)
(0 -4.5308e-15 0 0 1.48912e-14 0 0 0 0)
(0 -1.1722e-14 0 0 -1.80901e-15 0 0 0 0)
(5.42101e-14 -2.43489e-16 0 0 -1.08138e-14 0 0 0 0)
(0 6.22492e-15 0 -2.71051e-14 -1.64056e-14 0 0 0 0)
(0 2.36167e-15 0 0 -1.7359e-14 0 0 0 0)
(2.71051e-14 -9.98303e-15 0 2.71051e-14 2.78656e-18 0 0 0 0)
(2.71051e-14 -1.20109e-15 0 0 1.55771e-14 0 0 0 0)
(-5.42101e-14 1.77228e-14 0 -2.71051e-14 9.05066e-15 0 0 0 0)
(1.02999e-12 2.11999e-12 0 -9.75782e-13 5.65185e-12 0 0 0 0)
(-9.75782e-13 -2.4737e-12 0 2.71051e-14 -1.21028e-12 0 0 0 0)
(1.35525e-13 4.96883e-13 0 -1.35525e-13 2.94563e-13 0 0 0 0)
(-1.35525e-13 -1.28153e-13 0 0 -5.65227e-14 0 0 0 0)
(5.42101e-14 1.13165e-14 0 -5.42101e-14 9.49026e-15 0 0 0 0)
(-5.42101e-14 -3.21597e-14 0 0 -7.11627e-15 0 0 0 0)
(2.71051e-14 -1.5946e-14 0 0 -1.49221e-14 0 0 0 0)
(5.42101e-14 2.42262e-15 0 0 -3.68517e-15 0 0 0 0)
(-5.42101e-14 1.13078e-15 0 -2.71051e-14 1.26188e-14 0 0 0 0)
(-2.71051e-14 -3.70391e-16 0 0 5.11974e-15 0 0 0 0)
(0 1.92503e-14 0 -2.71051e-14 6.8567e-15 0 0 0 0)
(0 2.03326e-14 0 -2.71051e-14 4.88965e-15 0 0 0 0)
(0 -4.24069e-15 0 0 4.89521e-15 0 0 0 0)
(0 -9.81453e-15 0 0 1.1071e-14 0 0 0 0)
(-2.71051e-14 -9.95308e-15 0 -8.13152e-14 4.78654e-15 0 0 0 0)
(0 -9.88732e-15 0 0 -3.78915e-15 0 0 0 0)
(0 -1.02961e-15 0 0 -8.57724e-15 0 0 0 0)
(0 5.96292e-15 0 2.71051e-14 -3.81091e-15 0 0 0 0)
(-2.71051e-14 7.82136e-15 0 0 1.24528e-14 0 0 0 0)
(0 1.40589e-16 0 -2.71051e-14 4.29829e-15 0 0 0 0)
(-1.40946e-12 8.30283e-13 0 -4.06576e-13 -7.41702e-12 0 0 0 0)
(1.27394e-12 -9.98033e-13 0 0 1.47597e-12 0 0 0 0)
(-1.35525e-13 2.26447e-13 0 -5.42101e-14 -4.02118e-13 0 0 0 0)
(1.35525e-13 -7.0826e-14 0 5.42101e-14 4.38383e-14 0 0 0 0)
(0 4.82992e-15 0 5.42101e-14 -4.3006e-14 0 0 0 0)
(5.42101e-14 -1.44836e-14 0 -5.42101e-14 -1.63641e-14 0 0 0 0)
(2.71051e-14 -6.15242e-15 0 2.71051e-14 -7.76989e-15 0 0 0 0)
(0 1.11503e-14 0 -5.42101e-14 -8.89493e-15 0 0 0 0)
(-2.71051e-14 3.90931e-15 0 -2.71051e-14 -8.68418e-15 0 0 0 0)
(2.71051e-14 -8.89275e-16 0 0 -2.60183e-15 0 0 0 0)
(-2.71051e-14 1.23713e-14 0 -5.42101e-14 3.61869e-15 0 0 0 0)
(0 1.25495e-14 0 -5.42101e-14 -1.48369e-14 0 0 0 0)
(2.71051e-14 1.65056e-15 0 2.71051e-14 -1.27981e-14 0 0 0 0)
(-2.71051e-14 -1.18306e-14 0 5.42101e-14 5.28506e-15 0 0 0 0)
(2.71051e-14 -1.51036e-14 0 8.13152e-14 -2.6678e-15 0 0 0 0)
(0 -7.13886e-15 0 5.42101e-14 -1.56678e-15 0 0 0 0)
(5.42101e-14 2.33991e-15 0 0 -7.47384e-15 0 0 0 0)
(0 1.1047e-14 0 -5.42101e-14 1.92508e-17 0 0 0 0)
(0 6.90811e-15 0 2.71051e-14 5.09009e-15 0 0 0 0)
(0 9.71709e-16 0 2.71051e-14 -3.10332e-15 0 0 0 0)
(5.69206e-13 -3.82106e-12 0 1.11131e-12 5.57428e-12 0 0 0 0)
(-5.14996e-13 4.54121e-12 0 -5.42101e-14 -1.19308e-12 0 0 0 0)
(1.35525e-13 -9.35245e-13 0 2.1684e-13 2.37697e-13 0 0 0 0)
(-5.42101e-14 2.30959e-13 0 5.42101e-14 -6.38042e-14 0 0 0 0)
(-2.71051e-14 -4.88858e-14 0 5.42101e-14 1.31934e-14 0 0 0 0)
(-5.42101e-14 3.07645e-15 0 1.0842e-13 -7.42958e-15 0 0 0 0)
(0 -8.47689e-15 0 2.71051e-14 3.85402e-15 0 0 0 0)
(0 1.50833e-15 0 5.42101e-14 6.77601e-15 0 0 0 0)
(0 7.42389e-15 0 5.42101e-14 6.59782e-15 0 0 0 0)
(0 1.19325e-14 0 0 6.41961e-15 0 0 0 0)
(0 7.01521e-15 0 5.42101e-14 -3.65314e-15 0 0 0 0)
(0 3.91581e-15 0 5.42101e-14 -1.29259e-14 0 0 0 0)
(5.42101e-14 1.58813e-14 0 -2.71051e-14 -1.47263e-14 0 0 0 0)
(2.71051e-14 3.15723e-16 0 -5.42101e-14 -6.87805e-15 0 0 0 0)
(-2.71051e-14 -1.68049e-14 0 2.71051e-14 8.32911e-15 0 0 0 0)
(-5.42101e-14 -1.46934e-14 0 0 2.15242e-14 0 0 0 0)
(-2.71051e-14 5.56418e-16 0 0 1.7383e-14 0 0 0 0)
(0 1.85269e-14 0 -5.42101e-14 7.95062e-15 0 0 0 0)
(0 4.69879e-15 0 -2.71051e-14 -6.77429e-16 0 0 0 0)
(-2.71051e-14 -1.84619e-15 0 0 5.47666e-17 0 0 0 0)
(-3.52366e-13 5.21148e-12 0 -2.71051e-14 3.50912e-13 0 0 0 0)
(4.06576e-13 -6.33461e-12 0 -8.13152e-14 -6.03318e-14 0 0 0 0)
(-1.0842e-13 1.35572e-12 0 -1.35525e-13 1.54768e-14 0 0 0 0)
(5.42101e-14 -2.95329e-13 0 -2.71051e-14 -2.10162e-14 0 0 0 0)
(0 6.12046e-14 0 -2.71051e-14 -1.70409e-14 0 0 0 0)
(5.42101e-14 -2.3823e-14 0 0 -1.69746e-14 0 0 0 0)
(0 8.05317e-15 0 0 -4.94124e-17 0 0 0 0)
(0 1.38941e-14 0 0 3.12821e-14 0 0 0 0)
(-1.0842e-13 3.5529e-15 0 -2.71051e-14 4.41933e-14 0 0 0 0)
(-2.71051e-14 -1.11402e-14 0 0 3.3271e-14 0 0 0 0)
(2.71051e-14 -6.97419e-15 0 0 1.3641e-14 0 0 0 0)
(-2.71051e-14 1.47635e-15 0 0 8.72428e-15 0 0 0 0)
(-5.42101e-14 7.69843e-15 0 0 8.15616e-16 0 0 0 0)
(5.42101e-14 1.12247e-14 0 -5.42101e-14 -2.34524e-14 0 0 0 0)
(2.71051e-14 1.32986e-14 0 -5.42101e-14 -8.17157e-15 0 0 0 0)
(5.42101e-14 1.915e-15 0 -5.42101e-14 3.32574e-15 0 0 0 0)
(-8.13152e-14 -1.12336e-14 0 0 1.81982e-14 0 0 0 0)
(2.71051e-14 -7.01336e-15 0 0 9.84023e-16 0 0 0 0)
(5.42101e-14 -9.87745e-16 0 0 -1.49009e-14 0 0 0 0)
(0 1.59437e-15 0 -2.71051e-14 -5.4496e-15 0 0 0 0)
(4.87891e-13 -3.53048e-12 0 -8.13152e-14 -7.79522e-12 0 0 0 0)
(-6.77626e-13 4.20577e-12 0 1.35525e-13 1.6426e-12 0 0 0 0)
(2.1684e-13 -8.95929e-13 0 1.0842e-13 -3.68225e-13 0 0 0 0)
(2.71051e-14 1.98441e-13 0 2.71051e-14 8.19787e-14 0 0 0 0)
(2.71051e-14 -4.48441e-14 0 2.71051e-14 -2.42534e-14 0 0 0 0)
(-2.71051e-14 2.0068e-14 0 -5.42101e-14 6.98008e-15 0 0 0 0)
(0 3.97797e-14 0 -5.42101e-14 5.44414e-15 0 0 0 0)
(-2.71051e-14 4.57511e-14 0 -1.0842e-13 9.9363e-15 0 0 0 0)
(2.71051e-14 9.41285e-15 0 -2.71051e-14 4.74001e-16 0 0 0 0)
(0 -1.86199e-14 0 2.71051e-14 -2.96553e-17 0 0 0 0)
(0 -1.75315e-14 0 5.42101e-14 1.26194e-15 0 0 0 0)
(0 -8.90955e-15 0 2.71051e-14 4.87727e-15 0 0 0 0)
(0 -1.62954e-14 0 5.42101e-14 1.00498e-14 0 0 0 0)
(0 -8.67146e-15 0 1.0842e-13 8.07242e-15 0 0 0 0)
(-5.42101e-14 9.97321e-15 0 5.42101e-14 2.03563e-15 0 0 0 0)
(2.71051e-14 1.16764e-14 0 5.42101e-14 -1.27357e-14 0 0 0 0)
(0 -1.7853e-15 0 5.42101e-14 -2.22296e-15 0 0 0 0)
(-2.71051e-14 -1.45722e-14 0 1.0842e-13 1.14278e-14 0 0 0 0)
(0 -1.73484e-15 0 2.71051e-14 2.13158e-15 0 0 0 0)
(0 1.85043e-14 0 2.71051e-14 -5.40318e-15 0 0 0 0)
(-2.98156e-13 -9.41141e-13 0 -8.94467e-13 1.13744e-11 0 0 0 0)
(5.96311e-13 1.09238e-12 0 1.6263e-13 -2.34427e-12 0 0 0 0)
(-2.43945e-13 -2.04897e-13 0 -1.0842e-13 5.6386e-13 0 0 0 0)
(-2.71051e-14 4.86421e-14 0 -5.42101e-14 -9.2287e-14 0 0 0 0)
(-2.71051e-14 -1.37941e-14 0 -1.0842e-13 5.2416e-14 0 0 0 0)
(-5.42101e-14 5.87455e-15 0 -5.42101e-14 4.26128e-14 0 0 0 0)
(-2.71051e-14 1.10094e-14 0 -8.13152e-14 2.76357e-14 0 0 0 0)
(2.71051e-14 8.92401e-15 0 -2.71051e-14 -2.11542e-14 0 0 0 0)
(5.42101e-14 -6.41305e-15 0 -5.42101e-14 -4.58934e-14 0 0 0 0)
(0 -1.03523e-14 0 -2.71051e-14 -3.23634e-14 0 0 0 0)
(2.71051e-14 -2.06727e-15 0 -5.42101e-14 -1.26928e-14 0 0 0 0)
(2.71051e-14 1.02642e-14 0 0 -2.21367e-15 0 0 0 0)
(0 1.08936e-14 0 -1.0842e-13 -7.25644e-15 0 0 0 0)
(0 3.21055e-15 0 -5.42101e-14 9.60173e-15 0 0 0 0)
(2.71051e-14 -7.50955e-15 0 -2.71051e-14 5.91038e-15 0 0 0 0)
(-2.71051e-14 -2.3436e-15 0 0 6.99785e-15 0 0 0 0)
(0 1.29299e-14 0 -5.42101e-14 1.02125e-14 0 0 0 0)
(0 -2.65882e-15 0 0 2.17949e-14 0 0 0 0)
(0 -1.78187e-14 0 2.71051e-14 1.8335e-14 0 0 0 0)
(-5.42101e-14 4.86598e-15 0 2.71051e-14 9.02409e-15 0 0 0 0)
(-2.1684e-13 5.49962e-12 0 2.08709e-12 -1.48539e-12 0 0 0 0)
(1.35525e-13 -6.60474e-12 0 -6.50521e-13 2.87693e-13 0 0 0 0)
(-5.42101e-14 1.35605e-12 0 -2.71051e-14 -7.53219e-14 0 0 0 0)
(8.13152e-14 -3.13003e-13 0 -8.13152e-14 5.11659e-15 0 0 0 0)
(-2.71051e-14 9.00557e-14 0 -2.71051e-14 9.64201e-15 0 0 0 0)
(0 -4.71226e-15 0 -2.71051e-14 8.83388e-15 0 0 0 0)
(0 -2.39873e-14 0 0 -7.51345e-15 0 0 0 0)
(2.71051e-14 -2.77781e-14 0 0 -3.02742e-14 0 0 0 0)
(5.42101e-14 -1.79638e-15 0 5.42101e-14 -1.80237e-14 0 0 0 0)
(0 1.45808e-14 0 -5.42101e-14 7.83829e-16 0 0 0 0)
(-5.42101e-14 1.26182e-14 0 -8.13152e-14 1.20187e-14 0 0 0 0)
(-2.71051e-14 -3.4732e-15 0 -2.71051e-14 1.12578e-14 0 0 0 0)
(0 -4.48001e-15 0 -2.71051e-14 -4.56441e-15 0 0 0 0)
(0 4.49536e-15 0 -8.13152e-14 -1.31544e-14 0 0 0 0)
(2.71051e-14 7.36933e-15 0 -8.13152e-14 -1.95059e-14 0 0 0 0)
(5.42101e-14 1.59785e-14 0 -1.0842e-13 -9.08072e-15 0 0 0 0)
(-5.42101e-14 1.30117e-14 0 -8.13152e-14 -1.02587e-14 0 0 0 0)
(5.42101e-14 -6.44968e-15 0 -1.0842e-13 -1.77202e-14 0 0 0 0)
(2.71051e-14 -1.45056e-14 0 -2.71051e-14 -8.87993e-16 0 0 0 0)
(-2.71051e-14 -8.85476e-15 0 -5.42101e-14 9.75822e-15 0 0 0 0)
(1.0842e-12 -2.13884e-12 0 -3.25261e-13 -1.47532e-11 0 0 0 0)
(-1.49078e-12 2.50245e-12 0 2.43945e-13 3.07931e-12 0 0 0 0)
(3.52366e-13 -4.87474e-13 0 1.89735e-13 -7.22688e-13 0 0 0 0)
(-8.13152e-14 1.33606e-13 0 1.0842e-13 1.64047e-13 0 0 0 0)
(0 -1.00768e-14 0 1.0842e-13 -2.62335e-14 0 0 0 0)
(5.42101e-14 -1.12809e-14 0 1.0842e-13 -1.77982e-14 0 0 0 0)
(0 -2.80987e-14 0 1.35525e-13 -2.64577e-14 0 0 0 0)
(2.71051e-14 -1.58621e-15 0 1.0842e-13 -7.34934e-15 0 0 0 0)
(-2.71051e-14 2.4645e-14 0 2.71051e-14 1.24683e-14 0 0 0 0)
(0 1.96901e-14 0 5.42101e-14 5.64235e-15 0 0 0 0)
(0 8.40674e-15 0 2.71051e-14 -5.45702e-15 0 0 0 0)
(2.71051e-14 -6.31887e-15 0 0 -6.60997e-15 0 0 0 0)
(-2.71051e-14 -1.35186e-14 0 8.13152e-14 7.75343e-15 0 0 0 0)
(0 -1.17309e-14 0 2.71051e-14 1.76427e-15 0 0 0 0)
(2.71051e-14 -3.43591e-15 0 5.42101e-14 -4.87468e-15 0 0 0 0)
(-2.71051e-14 6.9036e-15 0 5.42101e-14 -1.28636e-14 0 0 0 0)
(0 4.29041e-15 0 2.71051e-14 -2.48657e-14 0 0 0 0)
(8.13152e-14 6.71189e-15 0 5.42101e-14 -2.42191e-14 0 0 0 0)
(0 9.65967e-15 0 -2.71051e-14 -6.4663e-15 0 0 0 0)
(0 -4.00425e-15 0 2.71051e-14 -1.21125e-15 0 0 0 0)
(-2.71051e-13 -6.1743e-12 0 -9.75782e-13 1.04594e-11 0 0 0 0)
(6.50521e-13 7.4258e-12 0 1.89735e-13 -2.14627e-12 0 0 0 0)
(-1.89735e-13 -1.55921e-12 0 -1.0842e-13 5.3116e-13 0 0 0 0)
(0 3.83452e-13 0 -2.71051e-14 -9.95874e-14 0 0 0 0)
(0 -9.17896e-14 0 -2.71051e-14 1.41022e-14 0 0 0 0)
(0 -4.93646e-15 0 -2.71051e-14 2.27902e-15 0 0 0 0)
(-5.42101e-14 -1.35384e-14 0 -5.42101e-14 3.03195e-14 0 0 0 0)
(-5.42101e-14 1.11479e-14 0 -2.71051e-14 4.39161e-14 0 0 0 0)
(0 1.11953e-14 0 -2.71051e-14 2.07579e-14 0 0 0 0)
(0 -3.34454e-15 0 0 8.07581e-15 0 0 0 0)
(-2.71051e-14 3.65855e-16 0 5.42101e-14 4.41236e-15 0 0 0 0)
(0 9.73725e-15 0 0 -6.96787e-16 0 0 0 0)
(0 3.89424e-15 0 0 9.93981e-16 0 0 0 0)
(-2.71051e-14 -8.13275e-15 0 5.42101e-14 8.9276e-15 0 0 0 0)
(0 -7.25851e-15 0 0 2.08577e-14 0 0 0 0)
(0 -4.01253e-15 0 0 1.9622e-14 0 0 0 0)
(-2.71051e-14 1.65621e-15 0 5.42101e-14 1.79666e-14 0 0 0 0)
(0 1.19497e-14 0 0 1.36754e-14 0 0 0 0)
(2.71051e-14 8.50221e-15 0 0 -6.94984e-16 0 0 0 0)
(-2.71051e-14 -1.17722e-15 0 -2.71051e-14 -4.48649e-15 0 0 0 0)
)
;

boundaryField
{
    movingWall
    {
        type            extrapolatedCalculated;
        value           nonuniform List<tensor> 
20
(
(-2.71051e-13 -6.1743e-12 0 2.13163e-12 3.12855e-11 0 0 0 0)
(6.50521e-13 7.4258e-12 0 -1.06581e-12 -6.58831e-12 0 0 0 0)
(-1.89735e-13 -1.55921e-12 0 -4.44089e-13 1.58232e-12 0 0 0 0)
(0 3.83452e-13 0 -3.10862e-13 -3.51474e-13 0 0 0 0)
(0 -9.17896e-14 0 -3.55271e-13 4.85081e-14 0 0 0 0)
(0 -4.93646e-15 0 -3.55271e-13 1.56848e-14 0 0 0 0)
(-5.42101e-14 -1.35384e-14 0 -3.55271e-13 6.8254e-14 0 0 0 0)
(-5.42101e-14 1.11479e-14 0 -2.22045e-13 6.98384e-14 0 0 0 0)
(0 1.11953e-14 0 -1.33227e-13 2.36625e-14 0 0 0 0)
(0 -3.34454e-15 0 -1.77636e-13 2.50571e-14 0 0 0 0)
(-2.71051e-14 3.65855e-16 0 -1.33227e-13 3.70407e-14 0 0 0 0)
(0 9.73725e-15 0 -4.44089e-14 2.35937e-14 0 0 0 0)
(0 3.89424e-15 0 -1.33227e-13 -1.9083e-15 0 0 0 0)
(-2.71051e-14 -8.13275e-15 0 -4.44089e-14 8.01675e-15 0 0 0 0)
(0 -7.25851e-15 0 -4.44089e-14 3.06227e-14 0 0 0 0)
(0 -4.01253e-15 0 -4.44089e-14 3.70508e-14 0 0 0 0)
(-2.71051e-14 1.65621e-15 0 -4.44089e-14 4.66728e-14 0 0 0 0)
(0 1.19497e-14 0 0 3.04259e-14 0 0 0 0)
(2.71051e-14 8.50221e-15 0 0 -1.12597e-15 0 0 0 0)
(-2.71051e-14 -1.17722e-15 0 -4.44089e-14 -3.58291e-15 0 0 0 0)
)
;
    }
    fixedWalls
    {
        type            extrapolatedCalculated;
        value           nonuniform List<tensor> 
60
(
(-4.79616e-12 4.08449e-11 0 7.86047e-13 1.34581e-11 0 0 0 0)
(7.9492e-12 1.29877e-11 0 1.89735e-13 -2.20921e-11 0 0 0 0)
(-3.9968e-12 -4.75234e-11 0 -2.52077e-12 4.11451e-12 0 0 0 0)
(-2.22045e-12 2.94457e-11 0 1.84314e-12 1.18315e-11 0 0 0 0)
(3.41949e-12 -1.97393e-13 0 6.50521e-13 -1.32628e-11 0 0 0 0)
(4.44089e-13 -2.36056e-11 0 -1.02999e-12 6.80942e-12 0 0 0 0)
(-7.10543e-13 2.70403e-11 0 8.13152e-14 4.20212e-12 0 0 0 0)
(6.21725e-13 -6.79715e-12 0 5.42101e-14 -1.03851e-11 0 0 0 0)
(-4.44089e-13 -1.45002e-11 0 -2.71051e-13 6.91893e-12 0 0 0 0)
(-3.55271e-13 2.08786e-11 0 -4.60786e-13 -9.58492e-13 0 0 0 0)
(-2.39808e-12 -1.83342e-11 0 1.16552e-12 -2.59605e-12 0 0 0 0)
(4.39648e-12 1.04943e-11 0 -9.75782e-13 5.65185e-12 0 0 0 0)
(-6.30607e-12 4.27321e-12 0 -4.06576e-13 -7.41702e-12 0 0 0 0)
(2.66454e-12 -1.91737e-11 0 1.11131e-12 5.57428e-12 0 0 0 0)
(-1.77636e-12 2.65703e-11 0 -2.71051e-14 3.50912e-13 0 0 0 0)
(2.62013e-12 -1.77701e-11 0 -8.13152e-14 -7.79522e-12 0 0 0 0)
(-2.22045e-12 -4.61056e-12 0 -8.94467e-13 1.13744e-11 0 0 0 0)
(-8.88178e-13 2.77274e-11 0 2.08709e-12 -1.48539e-12 0 0 0 0)
(6.03961e-12 -1.05521e-11 0 -3.25261e-13 -1.47532e-11 0 0 0 0)
(-2.13163e-12 -3.12855e-11 0 -9.75782e-13 1.04594e-11 0 0 0 0)
(0 -8.96572e-15 0 0 -2.26e-15 0 0 0 0)
(8.88178e-14 1.80057e-14 0 0 -1.66279e-14 0 0 0 0)
(0 5.75459e-14 0 0 -2.89812e-15 0 0 0 0)
(-4.44089e-14 2.95982e-14 0 2.71051e-14 1.12143e-14 0 0 0 0)
(-4.44089e-14 1.26886e-14 0 0 7.45742e-15 0 0 0 0)
(-4.44089e-14 -2.31489e-16 0 0 6.0958e-15 0 0 0 0)
(0 -1.16946e-14 0 -2.71051e-14 -4.7834e-15 0 0 0 0)
(0 1.89021e-14 0 0 -9.04813e-15 0 0 0 0)
(0 2.44979e-14 0 0 -2.68933e-15 0 0 0 0)
(-4.44089e-14 2.96594e-14 0 5.42101e-14 1.00714e-15 0 0 0 0)
(-1.33227e-13 2.04693e-14 0 -2.71051e-14 9.05066e-15 0 0 0 0)
(0 -6.54323e-15 0 -2.71051e-14 4.29829e-15 0 0 0 0)
(0 3.27619e-15 0 2.71051e-14 -3.10332e-15 0 0 0 0)
(-4.44089e-14 5.87003e-15 0 0 5.47666e-17 0 0 0 0)
(0 3.05712e-15 0 -2.71051e-14 -5.4496e-15 0 0 0 0)
(0 2.76685e-14 0 2.71051e-14 -5.40318e-15 0 0 0 0)
(-8.88178e-14 2.46698e-14 0 2.71051e-14 9.02409e-15 0 0 0 0)
(-4.44089e-14 -8.42789e-15 0 -5.42101e-14 9.75822e-15 0 0 0 0)
(0 -1.4363e-14 0 2.71051e-14 -1.21125e-15 0 0 0 0)
(-4.44089e-14 -3.58291e-15 0 -2.71051e-14 -4.48649e-15 0 0 0 0)
(-7.58942e-13 8.07474e-12 0 -4.79616e-12 4.08449e-11 0 0 0 0)
(1.30104e-12 -9.70995e-12 0 1.86517e-12 -8.5459e-12 0 0 0 0)
(-3.52366e-13 2.01971e-12 0 2.66454e-13 2.00509e-12 0 0 0 0)
(2.71051e-14 -4.77711e-13 0 3.9968e-13 -4.67056e-13 0 0 0 0)
(0 1.30136e-13 0 4.88498e-13 9.42443e-14 0 0 0 0)
(-2.71051e-14 1.75023e-16 0 4.44089e-13 5.34874e-14 0 0 0 0)
(-5.42101e-14 3.01457e-15 0 3.10862e-13 9.49444e-14 0 0 0 0)
(-5.42101e-14 -2.30628e-14 0 2.22045e-13 6.55456e-14 0 0 0 0)
(-2.71051e-14 -2.15525e-14 0 1.33227e-13 2.69335e-15 0 0 0 0)
(0 1.60773e-15 0 1.33227e-13 -2.06644e-14 0 0 0 0)
(0 1.43642e-14 0 1.33227e-13 9.12426e-15 0 0 0 0)
(2.71051e-14 1.13572e-14 0 1.77636e-13 3.67923e-14 0 0 0 0)
(-5.42101e-14 -1.54311e-15 0 1.33227e-13 5.45531e-14 0 0 0 0)
(0 -1.30286e-14 0 0 3.06199e-14 0 0 0 0)
(0 -2.53646e-15 0 4.44089e-14 2.43851e-15 0 0 0 0)
(-2.71051e-14 1.31655e-14 0 0 2.0474e-14 0 0 0 0)
(-5.42101e-14 -7.58625e-15 0 0 5.51004e-14 0 0 0 0)
(0 -2.44257e-14 0 -1.77636e-13 -9.87099e-15 0 0 0 0)
(5.42101e-14 4.70918e-15 0 4.44089e-14 -4.26023e-14 0 0 0 0)
(0 8.40914e-15 0 0 8.96572e-15 0 0 0 0)
)
;
    }
    frontAndBack
    {
        type            empty;
    }
}


// ************************************************************************* //
