/*--------------------------------*- C++ -*----------------------------------*\
| =========                 |                                                 |
| \\      /  F ield         | OpenFOAM: The Open Source CFD Toolbox           |
|  \\    /   O peration     | Version:  2506                                  |
|   \\  /    A nd           | Website:  www.openfoam.com                      |
|    \\/     M anipulation  |                                                 |
\*---------------------------------------------------------------------------*/
FoamFile
{
    version     2.0;
    format      ascii;
    arch        "LSB;label=32;scalar=64";
    class       volVectorField;
    location    "5.875";
    object      LambVectorField;
}
// * * * * * * * * * * * * * * * * * * * * * * * * * * * * * * * * * * * * * //

dimensions      [0 1 -2 0 0 0 0];

internalField   nonuniform List<vector> 
400
(
(-7.44265e-25 -7.2887e-12 0)
(-2.05713e-25 9.62863e-12 -0)
(-9.71664e-27 -1.9384e-12 0)
(-6.8439e-28 5.86131e-13 -0)
(-5.11644e-30 -2.17156e-14 0)
(7.22549e-30 5.40351e-14 0)
(1.21518e-29 5.11955e-14 0)
(1.26622e-29 7.72729e-14 0)
(5.10138e-31 7.57626e-14 0)
(8.30568e-32 -1.60773e-15 -0)
(-3.27656e-31 -1.43642e-14 0)
(-1.04464e-30 -1.13572e-14 0)
(2.10454e-31 1.54311e-15 0)
(9.97339e-31 1.30286e-14 0)
(1.5463e-32 2.53646e-15 0)
(-6.73874e-31 -1.31655e-14 0)
(1.04501e-30 7.58625e-15 0)
(-6.02763e-31 2.44257e-14 -0)
(5.01554e-31 -4.70918e-15 -0)
(-1.88485e-31 -8.40914e-15 0)
(-7.73519e-26 -2.38232e-12 0)
(-1.88219e-26 2.78899e-12 -0)
(-1.27892e-27 -8.00434e-13 0)
(-2.31509e-29 6.24656e-14 -0)
(-3.47512e-29 -2.17235e-13 0)
(-2.41844e-29 -1.37863e-13 0)
(-1.03348e-29 -5.63668e-14 0)
(-1.10384e-29 -5.60356e-14 0)
(-4.28467e-30 -2.1253e-14 0)
(-4.97676e-30 -3.59413e-14 0)
(2.39669e-31 1.26709e-14 0)
(-3.86661e-33 -3.2879e-16 0)
(1.8972e-32 8.54484e-16 0)
(9.0066e-32 2.80117e-14 0)
(-1.21656e-31 -9.26088e-15 0)
(-6.03689e-30 -6.29996e-14 0)
(1.56443e-30 1.54846e-14 0)
(-2.78638e-30 4.72096e-14 -0)
(-2.57078e-30 2.57043e-14 -0)
(6.52833e-31 -1.45028e-14 -0)
(-8.16472e-25 6.87217e-12 -0)
(-2.63309e-25 -1.05836e-11 0)
(-1.39401e-26 2.35272e-12 -0)
(-8.50895e-28 -6.29491e-13 0)
(-2.74293e-29 1.5922e-13 -0)
(4.38399e-31 1.43428e-14 0)
(4.75078e-31 -1.064e-14 -0)
(-1.62681e-29 -1.18775e-13 0)
(-2.92046e-29 -8.85131e-14 0)
(2.96195e-29 1.41757e-13 0)
(-2.59588e-31 7.59008e-14 -0)
(-2.38465e-31 2.99517e-14 -0)
(-1.02951e-30 3.22866e-14 -0)
(2.00701e-30 -3.3575e-14 -0)
(-4.7209e-31 -1.43874e-14 0)
(6.56597e-31 7.80762e-15 0)
(-1.85365e-30 4.09525e-14 -0)
(4.43718e-30 -8.15993e-14 -0)
(-3.79625e-31 8.9487e-15 -0)
(2.68001e-30 -1.86287e-14 -0)
(-2.84383e-25 -3.86315e-12 0)
(-1.08551e-25 6.55842e-12 -0)
(-5.49369e-27 -1.4875e-12 0)
(-3.41635e-28 3.95806e-13 -0)
(-1.00224e-29 -3.61474e-14 0)
(3.2544e-30 8.048e-14 0)
(1.90337e-31 1.30666e-14 0)
(-3.18625e-30 3.53131e-14 -0)
(3.97039e-31 -5.88085e-15 -0)
(4.84996e-31 -1.54359e-14 -0)
(-1.63248e-30 -1.87976e-14 0)
(-5.80198e-30 -3.70601e-14 0)
(1.27558e-30 6.84342e-15 0)
(1.16091e-30 1.31739e-14 0)
(5.59614e-31 1.02387e-14 0)
(-1.35555e-30 9.50237e-14 -0)
(1.49029e-30 -1.80798e-14 -0)
(-5.50574e-30 5.26776e-14 -0)
(2.04813e-31 -3.05223e-15 -0)
(-9.61587e-31 1.29952e-14 -0)
(-3.3056e-28 6.69851e-13 -0)
(-8.18047e-30 -2.72518e-14 0)
(-3.3553e-29 1.51848e-13 -0)
(-6.07378e-30 4.52955e-14 -0)
(1.3522e-30 -1.02581e-14 -0)
(-1.23686e-30 3.92506e-14 -0)
(5.93584e-32 3.33909e-15 0)
(-5.65875e-30 8.7188e-14 -0)
(8.42233e-31 -2.05663e-14 -0)
(-1.20735e-29 -8.5773e-14 0)
(-1.71474e-29 -6.24273e-14 0)
(3.96451e-30 1.77835e-14 0)
(1.39967e-30 1.44531e-14 0)
(4.5247e-30 5.77118e-14 0)
(7.87014e-31 1.27295e-14 0)
(-2.15066e-30 4.39872e-14 -0)
(-3.95159e-30 3.69324e-14 -0)
(-4.35722e-32 2.96074e-16 -0)
(4.24975e-30 -3.86496e-14 -0)
(4.49422e-31 -1.41677e-14 -0)
(-2.14559e-25 3.63573e-12 -0)
(-6.66399e-26 -5.39296e-12 0)
(-3.07627e-27 1.16305e-12 -0)
(-1.84476e-28 -2.53968e-13 0)
(-1.02743e-29 9.75444e-14 -0)
(-1.06259e-30 -4.83396e-14 0)
(-1.16332e-30 -1.08705e-14 0)
(-3.12391e-30 -2.39038e-14 0)
(7.88739e-31 1.0516e-14 0)
(2.07343e-31 8.12247e-15 0)
(4.78685e-33 -7.69505e-16 -0)
(-2.7592e-31 -8.3053e-15 0)
(-2.85338e-30 -3.71378e-14 0)
(-4.27643e-31 -3.20213e-15 0)
(1.73588e-30 1.5947e-14 0)
(2.49638e-31 -9.63102e-15 -0)
(-2.86089e-31 4.34213e-15 -0)
(7.96461e-32 -1.14861e-15 -0)
(3.80371e-31 -6.99202e-15 -0)
(-3.1148e-33 -5.3822e-15 0)
(-3.56339e-25 -5.27123e-12 0)
(-8.48345e-26 6.02722e-12 -0)
(-5.86958e-27 -1.66102e-12 0)
(-3.29851e-29 7.38663e-14 -0)
(-8.06506e-29 -2.26802e-13 0)
(-3.0302e-29 -1.55265e-13 0)
(-2.50514e-29 -8.88515e-14 0)
(-1.01594e-29 -3.75542e-14 0)
(3.01788e-30 2.61543e-14 0)
(-3.89436e-31 -4.33518e-14 0)
(-3.56672e-31 -5.24201e-14 0)
(4.9551e-31 -5.55712e-14 -0)
(-1.90071e-30 -9.31017e-14 0)
(-1.31073e-29 -1.20307e-13 0)
(-6.76503e-30 -4.85698e-14 0)
(6.28225e-31 1.19557e-14 0)
(-4.03094e-31 -2.04336e-14 0)
(-2.42775e-32 1.71342e-15 -0)
(5.90241e-32 2.27645e-14 0)
(-6.99399e-31 -2.39221e-14 0)
(-2.34498e-26 1.37998e-12 -0)
(-5.43673e-27 -1.45553e-12 0)
(-3.68959e-28 4.54779e-13 -0)
(1.65867e-29 6.10615e-14 0)
(-7.55101e-30 1.13284e-13 -0)
(-3.55692e-30 7.4021e-14 -0)
(6.18158e-32 9.83386e-15 0)
(-1.16625e-30 -9.35549e-15 0)
(-1.68763e-31 -1.69032e-15 0)
(6.46578e-30 4.56744e-14 0)
(1.92774e-30 1.04091e-14 0)
(1.29699e-30 3.46127e-14 0)
(-1.63882e-29 1.01835e-13 -0)
(-8.35842e-30 4.98348e-14 -0)
(1.71425e-30 -1.46295e-14 -0)
(8.00658e-31 -3.7367e-14 -0)
(8.64054e-31 -5.93548e-14 -0)
(-5.37506e-32 -1.79049e-15 0)
(-6.48655e-32 -1.93775e-14 0)
(2.07487e-31 -4.39078e-15 -0)
(-9.37639e-26 2.58655e-12 -0)
(-2.45704e-26 -3.20153e-12 0)
(-1.53649e-27 8.55612e-13 -0)
(-1.91368e-29 -4.03994e-14 0)
(-5.64791e-30 1.54584e-13 -0)
(1.31504e-30 1.09092e-13 0)
(-3.63244e-30 8.39826e-14 -0)
(-1.06583e-30 7.29017e-14 -0)
(1.3941e-30 3.41004e-14 0)
(3.24473e-30 1.74002e-14 0)
(1.81988e-29 1.31941e-13 0)
(-6.62719e-30 1.35983e-13 -0)
(-8.03666e-30 5.83668e-14 -0)
(-4.30937e-30 4.77217e-14 -0)
(-3.57759e-30 4.91373e-14 -0)
(6.10188e-32 -1.54189e-15 -0)
(-3.17823e-30 5.53803e-14 -0)
(5.2084e-32 -1.01577e-15 -0)
(2.51334e-30 -5.32132e-14 -0)
(6.64361e-31 -1.08476e-14 -0)
(-2.38273e-25 -4.56494e-12 0)
(-5.43095e-26 4.8687e-12 -0)
(-3.04243e-27 -1.2545e-12 0)
(-2.88556e-29 5.68954e-14 -0)
(-4.63354e-29 -2.01501e-13 0)
(-2.0745e-29 -1.35956e-13 0)
(-1.79555e-29 -7.6647e-14 0)
(-1.09232e-30 -1.03141e-14 0)
(-3.73993e-30 -5.63645e-14 0)
(-3.30958e-30 -2.5968e-14 0)
(-4.6909e-31 -8.53167e-15 0)
(1.08866e-30 -1.86781e-14 -0)
(1.95184e-30 -6.66448e-14 -0)
(-4.63096e-30 -7.01006e-14 0)
(2.91142e-30 2.24615e-14 0)
(3.42522e-30 3.04472e-14 0)
(1.67748e-30 1.7438e-14 0)
(-1.66919e-30 2.69731e-14 -0)
(-9.62018e-30 5.54366e-14 -0)
(-2.18306e-30 2.94418e-14 -0)
(-2.18947e-25 4.77681e-12 -0)
(-4.29104e-26 -4.41347e-12 0)
(-2.50547e-27 1.11705e-12 -0)
(-8.41212e-29 -1.87142e-13 0)
(-1.26488e-29 1.25892e-13 -0)
(2.67038e-31 7.13864e-14 0)
(-7.56991e-32 6.37936e-14 -0)
(-6.50193e-30 7.06006e-14 -0)
(-1.87075e-29 1.13316e-13 -0)
(6.87312e-31 -4.87281e-15 -0)
(1.46635e-30 -1.26014e-14 -0)
(2.18191e-31 -1.4511e-14 -0)
(1.30242e-31 4.5308e-15 0)
(-7.07353e-31 1.1722e-14 -0)
(-2.15424e-32 2.43489e-16 -0)
(2.09243e-30 -3.333e-14 -0)
(6.19337e-32 -2.36167e-15 -0)
(-1.45246e-30 3.70881e-14 -0)
(-1.51403e-31 1.20109e-15 -0)
(2.29399e-30 -4.48279e-14 -0)
(-8.12202e-26 -3.09577e-12 0)
(-1.2594e-26 2.5008e-12 -0)
(-9.47917e-28 -6.32409e-13 0)
(-8.60383e-30 1.28153e-13 -0)
(-1.42438e-29 -6.55266e-14 0)
(1.48024e-30 3.21597e-14 0)
(-1.66194e-30 1.5946e-14 -0)
(2.74803e-31 -2.42262e-15 -0)
(2.25877e-30 -2.82358e-14 -0)
(-3.78259e-32 3.70391e-16 -0)
(3.87996e-30 -4.63553e-14 -0)
(-4.28733e-30 -4.74376e-14 0)
(5.07294e-31 4.24069e-15 0)
(4.70817e-31 9.81453e-15 0)
(-1.53286e-30 -7.13621e-14 0)
(-5.09784e-31 9.88732e-15 -0)
(-7.96849e-32 1.02961e-15 -0)
(-1.30776e-30 2.11421e-14 -0)
(1.38938e-31 -7.82136e-15 -0)
(-4.45687e-31 -2.72456e-14 0)
(-1.32134e-26 -1.23686e-12 0)
(-2.37551e-27 9.98033e-13 -0)
(-1.97214e-28 -2.80657e-13 0)
(-1.44693e-29 1.25036e-13 -0)
(-2.75116e-31 4.93802e-14 -0)
(2.67844e-30 -3.97265e-14 -0)
(-5.00217e-30 3.32575e-14 -0)
(8.42798e-30 -6.53605e-14 -0)
(1.20658e-30 -3.10144e-14 -0)
(-7.99041e-32 8.89275e-16 -0)
(3.18237e-30 -6.65814e-14 -0)
(-2.26049e-30 -6.67596e-14 0)
(1.97776e-30 2.54545e-14 0)
(3.3262e-30 6.60408e-14 0)
(-3.91541e-30 9.64188e-14 -0)
(-6.17604e-30 6.1349e-14 -0)
(2.62063e-31 -2.33991e-15 -0)
(5.04252e-30 -6.52571e-14 -0)
(-3.0833e-32 2.01969e-14 -0)
(-2.14044e-31 2.61333e-14 -0)
(-2.3643e-25 4.93237e-12 -0)
(-4.46844e-26 -4.59542e-12 0)
(-2.90588e-27 1.15209e-12 -0)
(-6.56172e-29 -1.76749e-13 0)
(-2.19271e-29 1.03096e-13 -0)
(-1.23898e-29 1.05344e-13 -0)
(-6.47312e-30 3.55819e-14 -0)
(-1.06659e-29 5.27018e-14 -0)
(-7.80573e-30 4.67862e-14 -0)
(1.52906e-30 -1.19325e-14 -0)
(-2.24239e-30 4.71949e-14 -0)
(-2.9166e-30 5.02943e-14 -0)
(3.59162e-31 -4.29863e-14 -0)
(-5.49741e-30 -5.45258e-14 0)
(-2.28246e-31 4.391e-14 -0)
(-9.87793e-31 1.46934e-14 -0)
(8.46488e-32 -5.56418e-16 -0)
(4.48518e-30 -7.2737e-14 -0)
(-1.05388e-30 -3.18038e-14 0)
(-2.70929e-32 1.84619e-15 -0)
(-3.47977e-25 -5.23859e-12 0)
(-8.94907e-26 6.2533e-12 -0)
(-4.59252e-27 -1.49124e-12 0)
(-2.02177e-28 2.68224e-13 -0)
(-1.11591e-29 -8.83096e-14 0)
(-3.37614e-30 2.3823e-14 -0)
(9.00885e-31 -8.05317e-15 -0)
(8.50128e-31 -1.38941e-14 -0)
(-8.30041e-31 -3.0658e-14 0)
(-2.85825e-31 1.11402e-14 -0)
(-5.8812e-31 6.97419e-15 -0)
(1.40842e-31 -1.47635e-15 -0)
(5.35538e-31 -7.69843e-15 -0)
(1.20496e-30 -6.54348e-14 -0)
(-2.88145e-30 -6.75087e-14 0)
(-6.43031e-30 -5.61251e-14 0)
(6.94606e-31 1.12336e-14 0)
(1.56724e-32 7.01336e-15 0)
(-8.19919e-33 9.87745e-16 -0)
(2.19344e-31 -2.86994e-14 -0)
(-1.5323e-25 3.44917e-12 -0)
(-3.71222e-26 -4.07025e-12 0)
(-2.3778e-27 1.00435e-12 -0)
(-2.75993e-29 -1.71336e-13 0)
(-2.75634e-29 7.19492e-14 -0)
(2.13444e-29 -7.42781e-14 -0)
(1.71452e-29 -9.39898e-14 -0)
(-1.70265e-29 -1.54171e-13 0)
(-1.00459e-29 -3.65179e-14 0)
(9.35383e-30 4.57249e-14 0)
(6.37757e-30 7.17416e-14 0)
(1.05351e-30 3.60146e-14 0)
(-1.40381e-32 7.05055e-14 -0)
(-1.56554e-29 1.17092e-13 -0)
(-3.84479e-30 4.42369e-14 -0)
(-1.44486e-30 4.25337e-14 -0)
(1.67146e-30 5.59954e-14 0)
(-6.3738e-30 1.22992e-13 -0)
(-3.34174e-30 2.88399e-14 -0)
(-5.94923e-31 8.60074e-15 -0)
(-5.37983e-28 4.6674e-14 -0)
(-1.96642e-27 -9.29751e-13 0)
(-5.81361e-29 9.64767e-14 -0)
(-6.7907e-30 -1.02852e-13 0)
(1.09928e-29 -9.46261e-14 -0)
(4.32111e-30 -6.00847e-14 -0)
(5.30181e-30 -9.23246e-14 -0)
(-1.37548e-30 -3.60291e-14 0)
(-1.52063e-30 -4.77971e-14 0)
(4.34794e-31 -1.67528e-14 -0)
(3.73909e-30 -5.21428e-14 -0)
(4.78583e-31 -1.02642e-14 -0)
(-3.6908e-30 -1.19314e-13 0)
(-3.57785e-30 -5.74207e-14 0)
(-1.23528e-30 -1.95955e-14 0)
(-2.99651e-32 2.3436e-15 -0)
(-2.65895e-30 -6.714e-14 0)
(3.09786e-31 2.65882e-15 0)
(5.84676e-31 4.49238e-14 0)
(-1.37159e-30 2.22391e-14 -0)
(-2.36551e-25 -3.41253e-12 0)
(-8.5278e-26 5.95422e-12 -0)
(-4.52443e-27 -1.38316e-12 0)
(-1.76496e-28 2.31688e-13 -0)
(-1.65272e-29 -1.17161e-13 0)
(-3.10745e-30 -2.23928e-14 0)
(2.25341e-30 2.39873e-14 0)
(-2.80844e-30 2.77781e-14 -0)
(-1.02962e-29 5.60065e-14 -0)
(8.19067e-30 -6.87909e-14 -0)
(3.57243e-30 -9.39333e-14 -0)
(-1.68152e-31 -2.36319e-14 0)
(1.64628e-30 -2.2625e-14 -0)
(3.23373e-30 -8.58105e-14 -0)
(2.46631e-30 -8.86845e-14 -0)
(-4.47944e-30 -1.24399e-13 0)
(-1.24488e-29 -9.43269e-14 0)
(-1.694e-29 -1.01971e-13 0)
(-8.50182e-31 -1.25994e-14 0)
(-9.55625e-31 -4.53553e-14 0)
(-4.78429e-26 1.81358e-12 -0)
(-1.12743e-26 -2.25851e-12 0)
(-9.18167e-28 6.77209e-13 -0)
(-2.95151e-30 -2.51857e-14 0)
(-2.34046e-30 1.18497e-13 -0)
(1.96571e-30 1.19701e-13 0)
(-2.169e-29 1.63624e-13 -0)
(-2.91039e-29 1.10006e-13 -0)
(-3.65128e-31 2.46006e-15 -0)
(-6.25341e-31 3.45201e-14 -0)
(9.0646e-31 1.86983e-14 0)
(4.16743e-31 6.31887e-15 0)
(-1.39506e-30 9.48338e-14 -0)
(-2.68878e-30 3.8836e-14 -0)
(-7.61043e-30 5.7646e-14 -0)
(-4.90063e-30 4.73065e-14 -0)
(-1.43696e-30 2.28146e-14 -0)
(-2.88262e-30 4.74982e-14 -0)
(-1.52019e-31 -3.67647e-14 0)
(1.11706e-30 3.11093e-14 0)
(-4.06596e-25 5.19852e-12 -0)
(-1.19184e-25 -7.23606e-12 0)
(-5.73902e-27 1.45079e-12 -0)
(-3.6075e-28 -4.10557e-13 0)
(-7.84432e-30 6.46845e-14 -0)
(8.69275e-31 -2.21686e-14 -0)
(6.94001e-30 -4.06717e-14 -0)
(6.6788e-30 -3.82529e-14 -0)
(2.26571e-30 -3.83004e-14 -0)
(-2.09511e-31 3.34454e-15 -0)
(-4.98607e-30 5.38443e-14 -0)
(5.74344e-31 -9.73725e-15 -0)
(-1.85784e-32 -3.89424e-15 0)
(-1.24947e-30 6.23429e-14 -0)
(-5.55688e-31 7.25851e-15 -0)
(-3.71668e-31 4.01253e-15 -0)
(-6.1321e-30 5.25539e-14 -0)
(9.08952e-31 -1.19497e-14 -0)
(-2.39332e-32 -8.50221e-15 0)
(-2.32243e-31 -2.59278e-14 0)
)
;

boundaryField
{
    movingWall
    {
        type            calculated;
        value           nonuniform List<vector> 
20
(
(0 8.30593e-12 -0)
(0 -8.49161e-12 -0)
(0 1.11512e-12 -0)
(0 -6.94315e-13 -0)
(0 -2.63482e-13 -0)
(0 -3.50335e-13 -0)
(0 -3.41733e-13 -0)
(0 -2.33192e-13 -0)
(0 -1.44422e-13 -0)
(0 -1.74291e-13 -0)
(0 -1.33593e-13 -0)
(0 -5.41462e-14 -0)
(0 -1.37121e-13 -0)
(0 -3.62762e-14 -0)
(0 -3.71504e-14 -0)
(0 -4.03964e-14 -0)
(0 -4.60651e-14 -0)
(0 -1.19497e-14 -0)
(0 -8.50221e-15 -0)
(0 -4.32317e-14 -0)
)
;
    }
    fixedWalls
    {
        type            calculated;
        value           nonuniform List<vector> 
60
(
(0 -4.00588e-11 -0)
(0 -1.27979e-11 -0)
(0 4.50026e-11 -0)
(0 -2.76026e-11 -0)
(0 8.47914e-13 -0)
(0 2.25756e-11 -0)
(0 -2.6959e-11 -0)
(0 6.85136e-12 -0)
(0 1.42292e-11 -0)
(0 -2.13393e-11 -0)
(0 1.94997e-11 -0)
(0 -1.14701e-11 -0)
(0 -4.67978e-12 -0)
(0 2.0285e-11 -0)
(0 -2.65974e-11 -0)
(0 1.76888e-11 -0)
(0 3.71609e-12 -0)
(0 -2.56403e-11 -0)
(0 1.02269e-11 -0)
(0 3.03097e-11 -0)
(0 8.96572e-15 -0)
(0 -1.80057e-14 -0)
(0 -5.75459e-14 -0)
(0 -2.49314e-15 -0)
(0 -1.26886e-14 -0)
(0 2.31489e-16 -0)
(0 -1.54105e-14 -0)
(0 -1.89021e-14 -0)
(0 -2.44979e-14 -0)
(0 2.45507e-14 -0)
(0 -4.75744e-14 -0)
(0 -2.05618e-14 -0)
(0 2.38289e-14 -0)
(0 -5.87003e-15 -0)
(0 -3.01622e-14 -0)
(0 -5.63397e-16 -0)
(0 2.43521e-15 -0)
(0 -4.57822e-14 -0)
(0 4.14681e-14 -0)
(0 -2.35221e-14 -0)
(0 -1.28709e-11 -0)
(0 1.15751e-11 -0)
(0 -1.75326e-12 -0)
(0 8.77391e-13 -0)
(0 3.58362e-13 -0)
(0 4.43914e-13 -0)
(0 3.07848e-13 -0)
(0 2.45107e-13 -0)
(0 1.54779e-13 -0)
(0 1.31619e-13 -0)
(0 1.18863e-13 -0)
(0 1.66278e-13 -0)
(0 1.3477e-13 -0)
(0 1.30286e-14 -0)
(0 4.69454e-14 -0)
(0 -1.31655e-14 -0)
(0 7.58625e-15 -0)
(0 -1.5321e-13 -0)
(0 3.96997e-14 -0)
(0 -8.40914e-15 -0)
)
;
    }
    frontAndBack
    {
        type            empty;
    }
}


// ************************************************************************* //
