/*--------------------------------*- C++ -*----------------------------------*\
| =========                 |                                                 |
| \\      /  F ield         | OpenFOAM: The Open Source CFD Toolbox           |
|  \\    /   O peration     | Version:  2506                                  |
|   \\  /    A nd           | Website:  www.openfoam.com                      |
|    \\/     M anipulation  |                                                 |
\*---------------------------------------------------------------------------*/
FoamFile
{
    version     2.0;
    format      ascii;
    arch        "LSB;label=32;scalar=64";
    class       volScalarField;
    location    "5.875";
    object      pzeroGrad;
}
// * * * * * * * * * * * * * * * * * * * * * * * * * * * * * * * * * * * * * //

dimensions      [0 2 -2 0 0 0 0];

internalField   nonuniform List<scalar> 
400
(
1.05071e-17
2.82588e-15
1.97851e-15
2.62768e-15
2.82145e-15
3.09617e-15
3.34539e-15
3.50587e-15
3.68487e-15
3.62845e-15
3.51767e-15
3.64651e-15
3.79945e-15
3.87185e-15
3.90293e-15
4.01611e-15
4.20691e-15
4.06804e-15
3.93072e-15
3.89742e-15
2.02807e-15
0
1.96797e-15
2.49038e-15
3.11109e-15
3.14776e-15
3.31513e-15
3.35533e-15
3.65623e-15
3.75301e-15
3.65109e-15
3.76221e-15
3.78088e-15
3.70727e-15
3.8917e-15
4.02581e-15
3.8358e-15
3.994e-15
4.18833e-15
3.86412e-15
1.85611e-15
1.60891e-15
2.11608e-15
2.71554e-15
2.91642e-15
3.11174e-15
3.44325e-15
3.68016e-15
3.75584e-15
3.60277e-15
3.73755e-15
3.71556e-15
3.79257e-15
3.81438e-15
3.91528e-15
3.90775e-15
3.92941e-15
3.92469e-15
4.00175e-15
4.05159e-15
1.45886e-15
3.81311e-15
2.52955e-15
2.80498e-15
2.92386e-15
3.27423e-15
3.67121e-15
3.73971e-15
3.54391e-15
3.65335e-15
3.84861e-15
3.74071e-15
3.7043e-15
3.88988e-15
3.83556e-15
3.782e-15
3.95204e-15
3.95139e-15
3.96788e-15
4.28891e-15
2.3069e-15
7.97717e-16
2.92942e-15
2.98102e-15
3.17953e-15
3.20554e-15
3.60597e-15
3.70302e-15
3.74396e-15
3.78649e-15
3.90108e-15
3.79328e-15
3.62477e-15
3.83865e-15
3.92142e-15
3.9825e-15
3.99322e-15
3.9448e-15
3.95254e-15
4.30228e-15
2.09667e-15
4.23224e-15
3.03625e-15
3.39209e-15
3.29377e-15
3.34305e-15
3.5126e-15
3.7249e-15
3.80077e-15
3.87167e-15
4.08435e-15
3.86706e-15
3.74114e-15
3.71678e-15
3.84037e-15
3.9248e-15
3.93977e-15
4.01937e-15
4.04089e-15
4.39298e-15
2.88509e-15
3.76847e-15
3.10663e-15
3.35227e-15
3.47813e-15
3.37418e-15
3.45123e-15
3.77079e-15
3.85189e-15
3.98907e-15
4.3228e-15
4.29787e-15
3.83291e-15
3.69045e-15
3.72883e-15
3.97176e-15
4.04292e-15
4.02276e-15
4.11936e-15
4.29079e-15
3.96886e-15
1.56309e-15
3.17067e-15
3.36947e-15
3.65736e-15
3.40168e-15
3.37825e-15
3.63806e-15
3.95416e-15
4.14621e-15
4.30926e-15
4.26709e-15
3.90128e-15
3.81488e-15
3.7697e-15
3.94595e-15
4.02641e-15
4.0168e-15
4.18728e-15
4.36009e-15
3.43478e-15
4.70206e-15
3.36602e-15
3.54578e-15
3.56111e-15
3.54549e-15
3.62635e-15
3.76942e-15
4.00917e-15
4.19644e-15
4.22962e-15
4.12212e-15
4.02805e-15
4.1241e-15
4.06446e-15
3.966e-15
3.98226e-15
3.98726e-15
4.32288e-15
4.60227e-15
3.72976e-15
3.5477e-15
3.67643e-15
3.68843e-15
3.68132e-15
3.65942e-15
3.53933e-15
3.56289e-15
3.93202e-15
4.11609e-15
4.20513e-15
4.21423e-15
4.17554e-15
4.07532e-15
3.91591e-15
3.96115e-15
4.02957e-15
4.18925e-15
4.35661e-15
4.57882e-15
3.75044e-15
3.01621e-15
3.90198e-15
3.67885e-15
3.78525e-15
3.90682e-15
3.52676e-15
3.53712e-15
3.90218e-15
3.95794e-15
4.12178e-15
4.27836e-15
4.11772e-15
4.02666e-15
3.87356e-15
4.02385e-15
4.10549e-15
4.1289e-15
4.41125e-15
4.77767e-15
3.7748e-15
5.60574e-15
3.82538e-15
3.88946e-15
3.87311e-15
3.85582e-15
3.6351e-15
3.55662e-15
3.95161e-15
4.03184e-15
4.07385e-15
4.14837e-15
4.17301e-15
4.18567e-15
4.13982e-15
4.15219e-15
4.19308e-15
4.24118e-15
4.57082e-15
4.79796e-15
4.47866e-15
1.52917e-15
3.93609e-15
3.69309e-15
3.95877e-15
3.77089e-15
3.68353e-15
3.77564e-15
4.0527e-15
3.99988e-15
4.1944e-15
4.16934e-15
4.16801e-15
4.29287e-15
4.19125e-15
4.28437e-15
4.20666e-15
4.34367e-15
4.6627e-15
4.7729e-15
3.97329e-15
5.32225e-15
3.7353e-15
4.00531e-15
4.0805e-15
3.94483e-15
3.84402e-15
4.00959e-15
4.1547e-15
4.10431e-15
4.22978e-15
4.28957e-15
4.25975e-15
4.31659e-15
4.47168e-15
4.51941e-15
4.45529e-15
4.4945e-15
4.69026e-15
4.8581e-15
3.96152e-15
3.78043e-15
4.0844e-15
3.9519e-15
4.07268e-15
3.93923e-15
3.84351e-15
4.16768e-15
4.40127e-15
4.24968e-15
4.21257e-15
4.41268e-15
4.47782e-15
4.31819e-15
4.49364e-15
4.47013e-15
4.69636e-15
4.51487e-15
4.50596e-15
4.83863e-15
4.08585e-15
3.22789e-15
4.19385e-15
3.9893e-15
3.99369e-15
4.00358e-15
3.98688e-15
4.14993e-15
4.21033e-15
4.33263e-15
4.41502e-15
4.45885e-15
4.46592e-15
4.46595e-15
4.61042e-15
4.48534e-15
4.57902e-15
4.66103e-15
4.71592e-15
4.87939e-15
3.48459e-15
5.78483e-15
4.13812e-15
4.24132e-15
4.01736e-15
4.07731e-15
4.02241e-15
4.03591e-15
4.15707e-15
4.41107e-15
4.59814e-15
4.75252e-15
4.50603e-15
4.48873e-15
4.47596e-15
4.58401e-15
4.6404e-15
4.57705e-15
4.73927e-15
5.0837e-15
4.30648e-15
3.70789e-15
4.2032e-15
3.95486e-15
4.07332e-15
4.03639e-15
4.14182e-15
4.11391e-15
4.12089e-15
4.47076e-15
4.7152e-15
4.95022e-15
4.61467e-15
4.59302e-15
4.54645e-15
4.62882e-15
4.80334e-15
4.4382e-15
4.64129e-15
5.08745e-15
4.48193e-15
2.52087e-15
4.36448e-15
4.04526e-15
4.04112e-15
3.93649e-15
4.21883e-15
4.23405e-15
4.31245e-15
4.40502e-15
4.66775e-15
4.75712e-15
4.77646e-15
4.68139e-15
4.65157e-15
4.81821e-15
4.7873e-15
4.52847e-15
4.64419e-15
4.9924e-15
2.84095e-15
5.58605e-15
4.30097e-15
4.3152e-15
4.05433e-15
4.07923e-15
4.24694e-15
4.44278e-15
4.30228e-15
4.42419e-15
4.83785e-15
4.87653e-15
4.76211e-15
4.63333e-15
4.72904e-15
4.90226e-15
4.88698e-15
4.69884e-15
4.68115e-15
4.97311e-15
)
;

boundaryField
{
    movingWall
    {
        type            zeroGradient;
    }
    fixedWalls
    {
        type            zeroGradient;
    }
    frontAndBack
    {
        type            empty;
    }
}


// ************************************************************************* //
