/*--------------------------------*- C++ -*----------------------------------*\
| =========                 |                                                 |
| \\      /  F ield         | OpenFOAM: The Open Source CFD Toolbox           |
|  \\    /   O peration     | Version:  2506                                  |
|   \\  /    A nd           | Website:  www.openfoam.com                      |
|    \\/     M anipulation  |                                                 |
\*---------------------------------------------------------------------------*/
FoamFile
{
    version     2.0;
    format      ascii;
    arch        "LSB;label=32;scalar=64";
    class       volScalarField;
    location    "5.875";
    object      QField;
}
// * * * * * * * * * * * * * * * * * * * * * * * * * * * * * * * * * * * * * //

dimensions      [0 0 -2 0 0 0 0];

internalField   nonuniform List<scalar> 
400
(
-1.65611e-23
-4.44724e-24
-3.97164e-25
4.76241e-26
-1.41094e-26
-8.47418e-28
-2.44409e-27
-7.05957e-28
6.03666e-28
0
0
2.8119e-28
-8.59694e-28
0
0
-3.98469e-28
-1.29444e-27
0
-1.11954e-27
0
-3.34224e-23
-1.01959e-23
-4.89213e-25
-2.5349e-26
9.98587e-27
3.16827e-28
-6.47481e-28
-4.6855e-29
-1.91076e-27
-1.69673e-27
0
0
-4.56095e-28
-7.14454e-28
0
2.98066e-28
-1.48818e-27
5.44934e-28
-5.59062e-28
-9.01401e-28
-2.69116e-23
-8.83206e-24
-3.9758e-26
2.9851e-26
3.26307e-27
-7.11802e-28
-9.14969e-28
3.04604e-27
5.85302e-28
2.69339e-27
1.17586e-27
7.71587e-29
-3.046e-28
1.75368e-28
-1.12541e-28
0
3.75336e-28
2.31031e-29
0
0
-1.56486e-23
-4.498e-24
-2.35796e-25
1.8518e-26
-4.89829e-27
1.42409e-27
-5.07624e-28
2.2248e-28
-3.01597e-27
-3.69633e-28
-1.50757e-27
2.69832e-28
0
-7.49069e-28
0
3.9377e-28
-2.4463e-28
-3.34585e-28
0
-6.86413e-28
-7.53671e-24
-2.58574e-24
-1.8427e-25
-4.83263e-28
0
-8.60982e-28
2.50586e-28
4.77554e-28
-3.86296e-28
1.71103e-27
4.45455e-28
0
0
1.89825e-28
1.46901e-28
4.89181e-28
2.21536e-28
0
3.12915e-28
0
-2.95996e-24
-1.41406e-24
-4.07083e-26
4.23462e-27
1.90926e-27
-3.88392e-29
-7.16034e-28
-1.90513e-27
-4.23759e-28
-3.57183e-28
0
-1.25686e-27
-1.42375e-28
0
-2.09951e-28
-4.73635e-28
0
-3.60491e-28
3.05064e-28
-1.65227e-28
-1.23253e-24
-2.59474e-24
3.96405e-25
-7.99939e-26
1.04362e-26
-1.19781e-27
3.39787e-28
-9.0292e-28
-6.73204e-29
-5.88632e-28
-9.70352e-29
7.37868e-29
9.58423e-28
1.28878e-27
-3.05759e-28
0
-1.80831e-28
0
-1.17651e-28
-8.62735e-29
9.16338e-25
-9.70596e-25
-2.02303e-26
-7.59741e-27
2.59958e-27
-1.58576e-27
-1.34959e-27
-1.54578e-27
-4.03894e-28
-4.6272e-28
-7.1084e-28
-2.15859e-28
1.66854e-27
-7.77254e-28
-1.14976e-27
2.78151e-28
2.78894e-28
-1.00578e-28
-7.44059e-29
0
-3.99479e-25
-1.20375e-24
6.24998e-26
-2.38422e-26
5.00506e-27
-1.01485e-27
-1.01895e-27
-6.33307e-28
-1.09015e-27
-2.63051e-28
2.55018e-27
2.98832e-27
2.25333e-28
-1.61908e-27
-1.61288e-27
0
6.34342e-29
0
-5.4043e-29
-1.45789e-28
1.96908e-24
-5.34069e-25
2.02024e-25
-3.5636e-26
8.94136e-27
5.84181e-29
-2.65571e-28
-4.55119e-28
-9.99798e-28
-9.18584e-28
-1.1927e-27
-2.28412e-28
6.74086e-28
8.61428e-28
-1.25864e-28
9.05895e-29
0
-6.56654e-29
-1.47161e-28
-1.36999e-27
5.47561e-24
5.34849e-25
1.93519e-25
-1.03632e-27
3.62474e-27
-2.29705e-28
-2.23287e-27
-3.00495e-28
1.32414e-27
-1.24452e-27
0
-8.05907e-28
0
0
-5.86218e-28
1.68727e-28
0
2.70666e-28
4.22218e-28
-1.02593e-29
7.89001e-24
1.24802e-24
1.07261e-25
7.66025e-27
1.12794e-27
3.85774e-28
-4.04464e-28
-1.99773e-28
-6.53416e-28
-1.38771e-28
5.2178e-28
5.51115e-28
0
0
-9.39076e-28
0
0
-1.61625e-28
-3.37534e-28
3.81067e-30
1.07916e-23
1.88029e-24
6.67728e-26
9.78067e-27
-2.61831e-28
-1.67225e-27
-4.38416e-29
6.04461e-28
3.41347e-28
-7.05227e-29
5.72566e-28
6.80308e-28
-3.91631e-28
4.98089e-28
1.15584e-27
3.86998e-28
-4.05158e-28
5.98861e-28
-1.87245e-28
-2.63382e-29
7.41929e-24
8.60609e-25
2.35013e-25
-9.06148e-27
2.29249e-27
6.92087e-29
2.29767e-28
-8.17669e-29
-4.0245e-28
0
-3.80295e-28
-2.12277e-28
-3.67849e-28
-1.69315e-28
2.29737e-28
-1.16683e-27
-4.71166e-28
1.00434e-27
1.27361e-28
-1.48445e-30
1.7608e-26
-5.39629e-25
1.82056e-25
-9.1442e-27
1.65895e-27
-9.20193e-28
0
0
-4.69515e-27
-9.01813e-28
3.69739e-28
-2.36472e-28
-4.42146e-29
-6.62863e-28
4.99426e-28
2.84101e-28
-1.47979e-27
2.6672e-29
-8.07779e-28
4.32155e-29
-4.0903e-24
-1.68305e-24
1.72909e-26
-3.15672e-27
5.58112e-28
8.98692e-28
2.15646e-27
4.69101e-27
2.67984e-28
5.04692e-28
9.50387e-28
2.41494e-28
8.83376e-28
9.40162e-28
-6.51001e-28
-9.78179e-28
9.67811e-29
1.27017e-27
4.70229e-29
-5.0156e-28
-4.23315e-24
-1.57557e-24
-1.59766e-25
5.13833e-27
-2.9163e-27
-1.99159e-27
1.46162e-28
-3.31499e-28
-2.83554e-27
-2.806e-28
-4.56106e-28
-6.00016e-29
1.18108e-27
1.74044e-28
-4.33456e-29
-1.89677e-28
7.00929e-28
0
4.82978e-28
-6.21089e-28
-1.11561e-23
-4.25753e-24
4.0839e-26
-2.50358e-26
2.17962e-27
-1.27726e-28
0
-8.20584e-28
-8.79683e-28
7.90425e-28
3.74515e-28
-3.99286e-28
-1.21431e-28
3.65541e-28
7.05299e-29
1.24012e-27
1.61418e-27
-1.65989e-27
-4.17245e-28
-7.44515e-28
-1.66912e-23
-5.20102e-24
-1.6216e-25
-2.78251e-26
1.09253e-27
2.58236e-28
3.80808e-27
-2.72274e-29
-1.00596e-27
-1.0674e-27
-2.27865e-28
-1.79164e-28
8.89111e-28
3.17968e-28
5.41325e-29
-2.55774e-29
-1.16292e-28
-2.33323e-27
2.61826e-28
1.08535e-28
-8.8598e-24
-2.80513e-24
-2.6983e-25
1.03935e-26
-2.48796e-27
-1.33803e-28
-2.37754e-27
-2.07853e-27
3.0345e-28
0
-1.3943e-28
0
0
1.98894e-28
0
0
-5.76769e-28
0
-1.88376e-29
8.96978e-29
)
;

boundaryField
{
    movingWall
    {
        type            calculated;
        value           nonuniform List<scalar> 
20
(
4.68136e-24
3.62869e-24
-9.92649e-25
1.19201e-25
-3.26102e-26
-1.75378e-27
-8.50986e-27
-1.31062e-27
1.49152e-27
-5.9411e-28
-9.55248e-28
4.32421e-28
5.18816e-28
-5.78461e-28
-3.22342e-28
-1.78192e-28
-1.19152e-27
0
-3.05196e-29
4.48359e-29
)
;
    }
    fixedWalls
    {
        type            calculated;
        value           nonuniform List<scalar> 
60
(
-9.66534e-23
-1.78078e-22
-1.3624e-22
-8.05439e-23
-4.52237e-23
-2.12896e-23
-5.18457e-24
-6.08822e-24
-7.00292e-24
9.96107e-24
2.75944e-23
3.50885e-23
4.85096e-23
3.61608e-23
9.68442e-26
-2.18694e-23
-2.93802e-23
-5.65502e-23
-9.2536e-23
-5.28234e-23
0
-1.47685e-27
0
-1.30028e-27
-3.31176e-28
-2.70708e-28
-3.16983e-28
0
0
-1.65257e-27
-6.50968e-28
-1.77355e-28
-8.88013e-29
-2.43212e-30
8.28635e-29
-7.49955e-28
-1.47018e-27
-8.90229e-28
3.89311e-28
1.02125e-28
7.72892e-24
6.99216e-24
-1.24468e-24
1.78272e-25
-6.35711e-26
-1.5275e-27
-6.08406e-27
1.56773e-27
2.79837e-27
-2.14192e-28
-1.91369e-27
-1.02019e-27
-2.75175e-27
0
1.12642e-28
-5.54949e-28
-2.987e-27
-4.33887e-27
-2.5186e-27
0
)
;
    }
    frontAndBack
    {
        type            empty;
    }
}


// ************************************************************************* //
