/*--------------------------------*- C++ -*----------------------------------*\
| =========                 |                                                 |
| \\      /  F ield         | OpenFOAM: The Open Source CFD Toolbox           |
|  \\    /   O peration     | Version:  2506                                  |
|   \\  /    A nd           | Website:  www.openfoam.com                      |
|    \\/     M anipulation  |                                                 |
\*---------------------------------------------------------------------------*/
FoamFile
{
    version     2.0;
    format      ascii;
    arch        "LSB;label=32;scalar=64";
    class       volVectorField;
    location    "5.875";
    object      UNear;
}
// * * * * * * * * * * * * * * * * * * * * * * * * * * * * * * * * * * * * * //

dimensions      [0 1 -1 0 0 0 0];

internalField   nonuniform List<vector> 
400
(
(-1 1.02112e-13 0)
(-1 -2.13648e-14 0)
(-1 5.01272e-15 0)
(-1 -1.16764e-15 0)
(-1 2.35611e-16 0)
(-1 1.33718e-16 0)
(-1 2.37361e-16 0)
(-1 1.63864e-16 0)
(-1 6.73337e-18 0)
(-1 -5.1661e-17 0)
(-1 2.28107e-17 0)
(-1 9.19808e-17 0)
(-1 1.36383e-16 0)
(-1 7.65497e-17 0)
(-1 6.09628e-18 0)
(-1 5.1185e-17 0)
(-1 1.37751e-16 0)
(-1 -2.46775e-17 0)
(-1 -1.06506e-16 0)
(-1 2.24143e-17 0)
(-1 3.24692e-14 0)
(-1 -6.74865e-15 0)
(-1 1.59778e-15 0)
(-1 -3.70619e-16 0)
(-1 1.59971e-16 0)
(-1 1.75423e-16 0)
(-1 1.83349e-16 0)
(-1 1.9699e-16 0)
(-1 2.01603e-16 0)
(-1 1.38469e-16 0)
(-1 1.89149e-17 0)
(-1 1.17601e-17 0)
(-1 2.22028e-17 0)
(-1 3.2153e-18 0)
(-1 1.31365e-17 0)
(-1 9.58241e-17 0)
(-1 1.01032e-16 0)
(-1 -5.90216e-17 0)
(-1 -1.00014e-16 0)
(-1 -4.50143e-17 0)
(-1 -1.18808e-13 0)
(-1 2.48789e-14 0)
(-1 -5.92508e-15 0)
(-1 1.35172e-15 0)
(-1 -1.72273e-16 0)
(-1 3.05658e-17 0)
(-1 -4.465e-17 0)
(-1 1.36966e-16 0)
(-1 3.29946e-16 0)
(-1 2.08946e-16 0)
(-1 -3.42009e-18 0)
(-1 -7.96164e-18 0)
(-1 -3.18866e-17 0)
(-1 -5.97771e-17 0)
(-1 3.28127e-17 0)
(-1 8.40969e-17 0)
(-1 -4.52635e-17 0)
(-1 -5.43777e-17 0)
(-1 -4.24223e-17 0)
(-1 -1.43865e-16 0)
(-1 7.36143e-14 0)
(-1 -1.65513e-14 0)
(-1 3.69323e-15 0)
(-1 -8.63137e-16 0)
(-1 2.77266e-16 0)
(-1 4.04374e-17 0)
(-1 1.45667e-17 0)
(-1 -9.02285e-17 0)
(-1 -6.75138e-17 0)
(-1 -3.142e-17 0)
(-1 8.68451e-17 0)
(-1 1.56556e-16 0)
(-1 1.86396e-16 0)
(-1 8.81217e-17 0)
(-1 5.46567e-17 0)
(-1 -1.42654e-17 0)
(-1 -8.24284e-17 0)
(-1 -1.04518e-16 0)
(-1 -6.7103e-17 0)
(-1 -7.39955e-17 0)
(-1 -4.93482e-16 0)
(-1 3.00181e-16 0)
(-1 -2.20965e-16 0)
(-1 -1.34093e-16 0)
(-1 -1.31818e-16 0)
(-1 -3.15119e-17 0)
(-1 1.77768e-17 0)
(-1 -6.49028e-17 0)
(-1 -4.0952e-17 0)
(-1 1.4076e-16 0)
(-1 2.74677e-16 0)
(-1 2.22932e-16 0)
(-1 9.68426e-17 0)
(-1 7.84018e-17 0)
(-1 6.18261e-17 0)
(-1 -4.8893e-17 0)
(-1 -1.06995e-16 0)
(-1 -1.47167e-16 0)
(-1 -1.09956e-16 0)
(-1 -3.17215e-17 0)
(-1 -5.90141e-14 0)
(-1 1.23568e-14 0)
(-1 -2.64501e-15 0)
(-1 7.26376e-16 0)
(-1 -1.05329e-16 0)
(-1 2.19817e-17 0)
(-1 1.07017e-16 0)
(-1 1.30687e-16 0)
(-1 7.5004e-17 0)
(-1 2.55271e-17 0)
(-1 -6.22069e-18 0)
(-1 3.32222e-17 0)
(-1 7.68323e-17 0)
(-1 1.3355e-16 0)
(-1 1.08854e-16 0)
(-1 -2.59202e-17 0)
(-1 -6.58868e-17 0)
(-1 -6.93415e-17 0)
(-1 -5.44007e-17 0)
(-1 5.78723e-19 0)
(-1 6.76007e-14 0)
(-1 -1.40752e-14 0)
(-1 3.53372e-15 0)
(-1 -4.46552e-16 0)
(-1 3.55599e-16 0)
(-1 1.95163e-16 0)
(-1 2.81947e-16 0)
(-1 2.70526e-16 0)
(-1 1.15388e-16 0)
(-1 8.98317e-18 0)
(-1 6.80411e-18 0)
(-1 -8.91666e-18 0)
(-1 2.04154e-17 0)
(-1 1.08949e-16 0)
(-1 1.39285e-16 0)
(-1 5.25459e-17 0)
(-1 1.97271e-17 0)
(-1 -1.4169e-17 0)
(-1 2.59281e-18 0)
(-1 2.92365e-17 0)
(-1 -1.69929e-14 0)
(-1 3.73523e-15 0)
(-1 -8.11293e-16 0)
(-1 2.7164e-16 0)
(-1 -6.66553e-17 0)
(-1 -4.80528e-17 0)
(-1 6.28601e-18 0)
(-1 1.24659e-16 0)
(-1 9.98409e-17 0)
(-1 1.41562e-16 0)
(-1 1.85198e-16 0)
(-1 3.74714e-17 0)
(-1 -1.6093e-16 0)
(-1 -1.67722e-16 0)
(-1 -1.17177e-16 0)
(-1 -2.14269e-17 0)
(-1 -1.45574e-17 0)
(-1 3.00201e-17 0)
(-1 3.34746e-18 0)
(-1 -4.72552e-17 0)
(-1 -3.62506e-14 0)
(-1 7.67456e-15 0)
(-1 -1.79578e-15 0)
(-1 4.73689e-16 0)
(-1 -3.65363e-17 0)
(-1 1.20544e-17 0)
(-1 -4.32522e-17 0)
(-1 -1.46201e-17 0)
(-1 4.08822e-17 0)
(-1 1.86477e-16 0)
(-1 1.37931e-16 0)
(-1 -4.87356e-17 0)
(-1 -1.37692e-16 0)
(-1 -9.03021e-17 0)
(-1 -7.28081e-17 0)
(-1 -3.95741e-17 0)
(-1 -5.73892e-17 0)
(-1 -5.12756e-17 0)
(-1 -4.72316e-17 0)
(-1 -6.12448e-17 0)
(-1 5.21964e-14 0)
(-1 -1.11548e-14 0)
(-1 2.42521e-15 0)
(-1 -5.0717e-16 0)
(-1 2.29951e-16 0)
(-1 1.52586e-16 0)
(-1 2.34262e-16 0)
(-1 1.05905e-16 0)
(-1 6.63526e-17 0)
(-1 1.27449e-16 0)
(-1 5.49822e-17 0)
(-1 -5.82853e-17 0)
(-1 -2.92871e-17 0)
(-1 6.60616e-17 0)
(-1 1.29618e-16 0)
(-1 1.12497e-16 0)
(-1 9.61966e-17 0)
(-1 -6.18833e-17 0)
(-1 -1.73535e-16 0)
(-1 -7.41485e-17 0)
(-1 -4.58355e-14 0)
(-1 9.72261e-15 0)
(-1 -2.24294e-15 0)
(-1 4.49505e-16 0)
(-1 -1.00474e-16 0)
(-1 3.74073e-18 0)
(-1 -1.18663e-18 0)
(-1 -9.20945e-17 0)
(-1 -1.65092e-16 0)
(-1 -1.41051e-16 0)
(-1 -1.16364e-16 0)
(-1 -1.50363e-17 0)
(-1 2.87459e-17 0)
(-1 -6.03443e-17 0)
(-1 -8.84738e-17 0)
(-1 -6.27792e-17 0)
(-1 -2.62246e-17 0)
(-1 -3.91625e-17 0)
(-1 -1.26055e-16 0)
(-1 -5.11733e-17 0)
(-1 2.62359e-14 0)
(-1 -5.03597e-15 0)
(-1 1.4989e-15 0)
(-1 -6.71374e-17 0)
(-1 2.17374e-16 0)
(-1 4.60279e-17 0)
(-1 -1.04223e-16 0)
(-1 -1.13432e-16 0)
(-1 -7.99964e-17 0)
(-1 -1.02124e-16 0)
(-1 -8.37003e-17 0)
(-1 9.03784e-17 0)
(-1 1.19625e-16 0)
(-1 4.79715e-17 0)
(-1 2.148e-17 0)
(-1 -5.15594e-17 0)
(-1 -7.73932e-17 0)
(-1 -6.18555e-17 0)
(-1 -1.7764e-17 0)
(-1 1.63581e-17 0)
(-1 1.0683e-14 0)
(-1 -2.38019e-15 0)
(-1 7.02688e-16 0)
(-1 -1.15721e-16 0)
(-1 -5.57139e-18 0)
(-1 -6.7422e-17 0)
(-1 -1.50407e-16 0)
(-1 -1.28946e-16 0)
(-1 -3.8904e-17 0)
(-1 -8.98531e-17 0)
(-1 -4.77967e-17 0)
(-1 3.38602e-17 0)
(-1 7.7698e-17 0)
(-1 5.03659e-17 0)
(-1 -4.06084e-17 0)
(-1 -1.00671e-16 0)
(-1 -1.11997e-16 0)
(-1 -7.72716e-17 0)
(-1 -1.52662e-18 0)
(-1 -8.19047e-18 0)
(-1 -4.79343e-14 0)
(-1 9.72369e-15 0)
(-1 -2.52228e-15 0)
(-1 3.71245e-16 0)
(-1 -2.12686e-16 0)
(-1 -1.17613e-16 0)
(-1 -1.81922e-16 0)
(-1 -2.02382e-16 0)
(-1 -1.66838e-16 0)
(-1 -1.28143e-16 0)
(-1 -4.75134e-17 0)
(-1 -5.79906e-17 0)
(-1 -8.35527e-18 0)
(-1 1.00822e-16 0)
(-1 -5.19804e-18 0)
(-1 -6.72272e-17 0)
(-1 -1.52132e-16 0)
(-1 -6.1663e-17 0)
(-1 3.31369e-17 0)
(-1 -1.46751e-17 0)
(-1 6.64258e-14 0)
(-1 -1.4311e-14 0)
(-1 3.07965e-15 0)
(-1 -7.53763e-16 0)
(-1 1.26363e-16 0)
(-1 -1.41718e-16 0)
(-1 -1.11867e-16 0)
(-1 -6.11861e-17 0)
(-1 2.70743e-17 0)
(-1 -2.5657e-17 0)
(-1 -8.43281e-17 0)
(-1 -9.5399e-17 0)
(-1 -6.95646e-17 0)
(-1 -1.84146e-17 0)
(-1 4.26827e-17 0)
(-1 1.14571e-16 0)
(-1 6.18327e-17 0)
(-1 2.23465e-18 0)
(-1 -8.30091e-18 0)
(-1 -7.64281e-18 0)
(-1 -4.44252e-14 0)
(-1 9.12037e-15 0)
(-1 -2.36751e-15 0)
(-1 1.61083e-16 0)
(-1 -3.83096e-16 0)
(-1 -2.87358e-16 0)
(-1 -1.82416e-16 0)
(-1 1.10439e-16 0)
(-1 2.75095e-16 0)
(-1 2.04568e-16 0)
(-1 8.88964e-17 0)
(-1 2.92522e-17 0)
(-1 -1.99106e-19 0)
(-1 -1.33702e-16 0)
(-1 -8.69137e-17 0)
(-1 -3.39698e-17 0)
(-1 2.985e-17 0)
(-1 -5.18227e-17 0)
(-1 -1.15872e-16 0)
(-1 -6.91711e-17 0)
(-1 -1.15264e-14 0)
(-1 2.11499e-15 0)
(-1 -6.02592e-16 0)
(-1 6.60239e-17 0)
(-1 -1.16171e-16 0)
(-1 -7.1917e-17 0)
(-1 -5.74258e-17 0)
(-1 3.81769e-17 0)
(-1 3.18143e-17 0)
(-1 -2.59536e-17 0)
(-1 -7.17087e-17 0)
(-1 -4.66263e-17 0)
(-1 3.09335e-17 0)
(-1 6.23095e-17 0)
(-1 6.3039e-17 0)
(-1 -1.2786e-17 0)
(-1 3.9603e-17 0)
(-1 1.16513e-16 0)
(-1 1.30148e-17 0)
(-1 -6.16746e-17 0)
(-1 6.93185e-14 0)
(-1 -1.43223e-14 0)
(-1 3.27109e-15 0)
(-1 -7.61787e-16 0)
(-1 1.41064e-16 0)
(-1 1.3877e-16 0)
(-1 9.39418e-17 0)
(-1 -1.01102e-16 0)
(-1 -1.83839e-16 0)
(-1 -1.19066e-16 0)
(-1 -3.80316e-17 0)
(-1 7.11548e-18 0)
(-1 -7.27635e-17 0)
(-1 -3.76846e-17 0)
(-1 -2.781e-17 0)
(-1 3.60088e-17 0)
(-1 1.31975e-16 0)
(-1 1.66126e-16 0)
(-1 6.74779e-17 0)
(-1 2.10697e-17 0)
(-1 -2.63803e-14 0)
(-1 4.99193e-15 0)
(-1 -1.35581e-15 0)
(-1 1.1719e-16 0)
(-1 -1.97512e-17 0)
(-1 1.64218e-17 0)
(-1 -1.3256e-16 0)
(-1 -2.64565e-16 0)
(-1 -1.48422e-16 0)
(-1 -1.81153e-17 0)
(-1 4.84782e-17 0)
(-1 6.59521e-17 0)
(-1 -1.47106e-17 0)
(-1 -6.92341e-17 0)
(-1 -1.3202e-16 0)
(-1 -1.03593e-16 0)
(-1 -6.2984e-17 0)
(-1 -6.06891e-17 0)
(-1 4.13491e-18 0)
(-1 3.59076e-17 0)
(-1 -7.82138e-14 0)
(-1 1.64708e-14 0)
(-1 -3.95579e-15 0)
(-1 8.78684e-16 0)
(-1 -1.2127e-16 0)
(-1 -3.9212e-17 0)
(-1 -1.70635e-16 0)
(-1 -1.74596e-16 0)
(-1 -5.91563e-17 0)
(-1 -6.26428e-17 0)
(-1 -9.26017e-17 0)
(-1 -5.89842e-17 0)
(-1 4.77074e-18 0)
(-1 -2.00419e-17 0)
(-1 -7.65568e-17 0)
(-1 -9.26269e-17 0)
(-1 -1.16682e-16 0)
(-1 -7.60648e-17 0)
(-1 2.81493e-18 0)
(-1 8.95728e-18 0)
)
;

boundaryField
{
    movingWall
    {
        type            fixedValue;
        value           uniform (-1 -0 -0);
    }
    fixedWalls
    {
        type            calculated;
        value           nonuniform List<vector> 
60
(
(-1 4.08449e-14 0)
(-1 1.29877e-14 0)
(-1 -4.75234e-14 0)
(-1 2.94457e-14 0)
(-1 -1.97393e-16 0)
(-1 -2.36056e-14 0)
(-1 2.70403e-14 0)
(-1 -6.79715e-15 0)
(-1 -1.45002e-14 0)
(-1 2.08786e-14 0)
(-1 -1.83342e-14 0)
(-1 1.04943e-14 0)
(-1 4.27321e-15 0)
(-1 -1.91737e-14 0)
(-1 2.65703e-14 0)
(-1 -1.77701e-14 0)
(-1 -4.61056e-15 0)
(-1 2.77274e-14 0)
(-1 -1.05521e-14 0)
(-1 -3.12855e-14 0)
(-1 8.96572e-18 0)
(-1 -1.80057e-17 0)
(-1 -5.75459e-17 0)
(-1 -2.95982e-17 0)
(-1 -1.26886e-17 0)
(-1 2.31489e-19 0)
(-1 1.16946e-17 0)
(-1 -1.89021e-17 0)
(-1 -2.44979e-17 0)
(-1 -2.96594e-17 0)
(-1 -2.04693e-17 0)
(-1 6.54323e-18 0)
(-1 -3.27619e-18 0)
(-1 -5.87003e-18 0)
(-1 -3.05712e-18 0)
(-1 -2.76685e-17 0)
(-1 -2.46698e-17 0)
(-1 8.42789e-18 0)
(-1 1.4363e-17 0)
(-1 3.58291e-18 0)
(-1 4.08449e-14 0)
(-1 -8.5459e-15 0)
(-1 2.00509e-15 0)
(-1 -4.67056e-16 0)
(-1 9.42443e-17 0)
(-1 5.34874e-17 0)
(-1 9.49444e-17 0)
(-1 6.55456e-17 0)
(-1 2.69335e-18 0)
(-1 -2.06644e-17 0)
(-1 9.12426e-18 0)
(-1 3.67923e-17 0)
(-1 5.45531e-17 0)
(-1 3.06199e-17 0)
(-1 2.43851e-18 0)
(-1 2.0474e-17 0)
(-1 5.51004e-17 0)
(-1 -9.87099e-18 0)
(-1 -4.26023e-17 0)
(-1 8.96572e-18 0)
)
;
    }
    frontAndBack
    {
        type            empty;
    }
}


// ************************************************************************* //
