/*--------------------------------*- C++ -*----------------------------------*\
| =========                 |                                                 |
| \\      /  F ield         | OpenFOAM: The Open Source CFD Toolbox           |
|  \\    /   O peration     | Version:  2506                                  |
|   \\  /    A nd           | Website:  www.openfoam.com                      |
|    \\/     M anipulation  |                                                 |
\*---------------------------------------------------------------------------*/
FoamFile
{
    version     2.0;
    format      ascii;
    arch        "LSB;label=32;scalar=64";
    class       volVectorField;
    location    "5.875";
    object      vorticityField;
}
// * * * * * * * * * * * * * * * * * * * * * * * * * * * * * * * * * * * * * //

dimensions      [0 0 -1 0 0 0 0];

internalField   nonuniform List<vector> 
400
(
(0 -0 7.2887e-12)
(0 -0 -9.62863e-12)
(0 -0 1.9384e-12)
(0 -0 -5.86131e-13)
(0 -0 2.17156e-14)
(0 -0 -5.40351e-14)
(0 -0 -5.11955e-14)
(0 -0 -7.72729e-14)
(0 -0 -7.57626e-14)
(0 -0 1.60773e-15)
(0 -0 1.43642e-14)
(0 -0 1.13572e-14)
(0 -0 -1.54311e-15)
(0 -0 -1.30286e-14)
(0 -0 -2.53646e-15)
(0 -0 1.31655e-14)
(0 -0 -7.58625e-15)
(0 -0 -2.44257e-14)
(0 -0 4.70918e-15)
(0 -0 8.40914e-15)
(0 -0 2.38232e-12)
(0 -0 -2.78899e-12)
(0 -0 8.00434e-13)
(0 -0 -6.24656e-14)
(0 -0 2.17235e-13)
(0 -0 1.37863e-13)
(0 -0 5.63668e-14)
(0 -0 5.60356e-14)
(0 -0 2.1253e-14)
(0 -0 3.59413e-14)
(0 -0 -1.26709e-14)
(0 -0 3.2879e-16)
(0 -0 -8.54484e-16)
(0 -0 -2.80117e-14)
(0 -0 9.26088e-15)
(0 -0 6.29996e-14)
(0 -0 -1.54846e-14)
(0 -0 -4.72096e-14)
(0 -0 -2.57043e-14)
(0 -0 1.45028e-14)
(0 -0 -6.87217e-12)
(0 -0 1.05836e-11)
(0 -0 -2.35272e-12)
(0 -0 6.29491e-13)
(0 -0 -1.5922e-13)
(0 -0 -1.43428e-14)
(0 -0 1.064e-14)
(0 -0 1.18775e-13)
(0 -0 8.85131e-14)
(0 -0 -1.41757e-13)
(0 -0 -7.59008e-14)
(0 -0 -2.99517e-14)
(0 -0 -3.22866e-14)
(0 -0 3.3575e-14)
(0 -0 1.43874e-14)
(0 -0 -7.80762e-15)
(0 -0 -4.09525e-14)
(0 -0 8.15993e-14)
(0 -0 -8.9487e-15)
(0 -0 1.86287e-14)
(0 -0 3.86315e-12)
(0 -0 -6.55842e-12)
(0 -0 1.4875e-12)
(0 -0 -3.95806e-13)
(0 -0 3.61474e-14)
(0 -0 -8.048e-14)
(0 -0 -1.30666e-14)
(0 -0 -3.53131e-14)
(0 -0 5.88085e-15)
(0 -0 1.54359e-14)
(0 -0 1.87976e-14)
(0 -0 3.70601e-14)
(0 -0 -6.84342e-15)
(0 -0 -1.31739e-14)
(0 -0 -1.02387e-14)
(0 -0 -9.50237e-14)
(0 -0 1.80798e-14)
(0 -0 -5.26776e-14)
(0 -0 3.05223e-15)
(0 -0 -1.29952e-14)
(0 -0 -6.69851e-13)
(0 -0 2.72518e-14)
(0 -0 -1.51848e-13)
(0 -0 -4.52955e-14)
(0 -0 1.02581e-14)
(0 -0 -3.92506e-14)
(0 -0 -3.33909e-15)
(0 -0 -8.7188e-14)
(0 -0 2.05663e-14)
(0 -0 8.5773e-14)
(0 -0 6.24273e-14)
(0 -0 -1.77835e-14)
(0 -0 -1.44531e-14)
(0 -0 -5.77118e-14)
(0 -0 -1.27295e-14)
(0 -0 -4.39872e-14)
(0 -0 -3.69324e-14)
(0 -0 -2.96074e-16)
(0 -0 3.86496e-14)
(0 -0 1.41677e-14)
(0 -0 -3.63573e-12)
(0 -0 5.39296e-12)
(0 -0 -1.16305e-12)
(0 -0 2.53968e-13)
(0 -0 -9.75444e-14)
(0 -0 4.83396e-14)
(0 -0 1.08705e-14)
(0 -0 2.39038e-14)
(0 -0 -1.0516e-14)
(0 -0 -8.12247e-15)
(0 -0 7.69505e-16)
(0 -0 8.3053e-15)
(0 -0 3.71378e-14)
(0 -0 3.20213e-15)
(0 -0 -1.5947e-14)
(0 -0 9.63102e-15)
(0 -0 -4.34213e-15)
(0 -0 1.14861e-15)
(0 -0 6.99202e-15)
(0 -0 5.3822e-15)
(0 -0 5.27123e-12)
(0 -0 -6.02722e-12)
(0 -0 1.66102e-12)
(0 -0 -7.38663e-14)
(0 -0 2.26802e-13)
(0 -0 1.55265e-13)
(0 -0 8.88515e-14)
(0 -0 3.75542e-14)
(0 -0 -2.61543e-14)
(0 -0 4.33518e-14)
(0 -0 5.24201e-14)
(0 -0 5.55712e-14)
(0 -0 9.31017e-14)
(0 -0 1.20307e-13)
(0 -0 4.85698e-14)
(0 -0 -1.19557e-14)
(0 -0 2.04336e-14)
(0 -0 -1.71342e-15)
(0 -0 -2.27645e-14)
(0 -0 2.39221e-14)
(0 -0 -1.37998e-12)
(0 -0 1.45553e-12)
(0 -0 -4.54779e-13)
(0 -0 -6.10615e-14)
(0 -0 -1.13284e-13)
(0 -0 -7.4021e-14)
(0 -0 -9.83386e-15)
(0 -0 9.35549e-15)
(0 -0 1.69032e-15)
(0 -0 -4.56744e-14)
(0 -0 -1.04091e-14)
(0 -0 -3.46127e-14)
(0 -0 -1.01835e-13)
(0 -0 -4.98348e-14)
(0 -0 1.46295e-14)
(0 -0 3.7367e-14)
(0 -0 5.93548e-14)
(0 -0 1.79049e-15)
(0 -0 1.93775e-14)
(0 -0 4.39078e-15)
(0 -0 -2.58655e-12)
(0 -0 3.20153e-12)
(0 -0 -8.55612e-13)
(0 -0 4.03994e-14)
(0 -0 -1.54584e-13)
(0 -0 -1.09092e-13)
(0 -0 -8.39826e-14)
(0 -0 -7.29017e-14)
(0 -0 -3.41004e-14)
(0 -0 -1.74002e-14)
(0 -0 -1.31941e-13)
(0 -0 -1.35983e-13)
(0 -0 -5.83668e-14)
(0 -0 -4.77217e-14)
(0 -0 -4.91373e-14)
(0 -0 1.54189e-15)
(0 -0 -5.53803e-14)
(0 -0 1.01577e-15)
(0 -0 5.32132e-14)
(0 -0 1.08476e-14)
(0 -0 4.56494e-12)
(0 -0 -4.8687e-12)
(0 -0 1.2545e-12)
(0 -0 -5.68954e-14)
(0 -0 2.01501e-13)
(0 -0 1.35956e-13)
(0 -0 7.6647e-14)
(0 -0 1.03141e-14)
(0 -0 5.63645e-14)
(0 -0 2.5968e-14)
(0 -0 8.53167e-15)
(0 -0 1.86781e-14)
(0 -0 6.66448e-14)
(0 -0 7.01006e-14)
(0 -0 -2.24615e-14)
(0 -0 -3.04472e-14)
(0 -0 -1.7438e-14)
(0 -0 -2.69731e-14)
(0 -0 -5.54366e-14)
(0 -0 -2.94418e-14)
(0 -0 -4.77681e-12)
(0 -0 4.41347e-12)
(0 -0 -1.11705e-12)
(0 -0 1.87142e-13)
(0 -0 -1.25892e-13)
(0 -0 -7.13864e-14)
(0 -0 -6.37936e-14)
(0 -0 -7.06006e-14)
(0 -0 -1.13316e-13)
(0 -0 4.87281e-15)
(0 -0 1.26014e-14)
(0 -0 1.4511e-14)
(0 -0 -4.5308e-15)
(0 -0 -1.1722e-14)
(0 -0 -2.43489e-16)
(0 -0 3.333e-14)
(0 -0 2.36167e-15)
(0 -0 -3.70881e-14)
(0 -0 -1.20109e-15)
(0 -0 4.48279e-14)
(0 -0 3.09577e-12)
(0 -0 -2.5008e-12)
(0 -0 6.32409e-13)
(0 -0 -1.28153e-13)
(0 -0 6.55266e-14)
(0 -0 -3.21597e-14)
(0 -0 -1.5946e-14)
(0 -0 2.42262e-15)
(0 -0 2.82358e-14)
(0 -0 -3.70391e-16)
(0 -0 4.63553e-14)
(0 -0 4.74376e-14)
(0 -0 -4.24069e-15)
(0 -0 -9.81453e-15)
(0 -0 7.13621e-14)
(0 -0 -9.88732e-15)
(0 -0 -1.02961e-15)
(0 -0 -2.11421e-14)
(0 -0 7.82136e-15)
(0 -0 2.72456e-14)
(0 -0 1.23686e-12)
(0 -0 -9.98033e-13)
(0 -0 2.80657e-13)
(0 -0 -1.25036e-13)
(0 -0 -4.93802e-14)
(0 -0 3.97265e-14)
(0 -0 -3.32575e-14)
(0 -0 6.53605e-14)
(0 -0 3.10144e-14)
(0 -0 -8.89275e-16)
(0 -0 6.65814e-14)
(0 -0 6.67596e-14)
(0 -0 -2.54545e-14)
(0 -0 -6.60408e-14)
(0 -0 -9.64188e-14)
(0 -0 -6.1349e-14)
(0 -0 2.33991e-15)
(0 -0 6.52571e-14)
(0 -0 -2.01969e-14)
(0 -0 -2.61333e-14)
(0 -0 -4.93237e-12)
(0 -0 4.59542e-12)
(0 -0 -1.15209e-12)
(0 -0 1.76749e-13)
(0 -0 -1.03096e-13)
(0 -0 -1.05344e-13)
(0 -0 -3.55819e-14)
(0 -0 -5.27018e-14)
(0 -0 -4.67862e-14)
(0 -0 1.19325e-14)
(0 -0 -4.71949e-14)
(0 -0 -5.02943e-14)
(0 -0 4.29863e-14)
(0 -0 5.45258e-14)
(0 -0 -4.391e-14)
(0 -0 -1.46934e-14)
(0 -0 5.56418e-16)
(0 -0 7.2737e-14)
(0 -0 3.18038e-14)
(0 -0 -1.84619e-15)
(0 -0 5.23859e-12)
(0 -0 -6.2533e-12)
(0 -0 1.49124e-12)
(0 -0 -2.68224e-13)
(0 -0 8.83096e-14)
(0 -0 -2.3823e-14)
(0 -0 8.05317e-15)
(0 -0 1.38941e-14)
(0 -0 3.0658e-14)
(0 -0 -1.11402e-14)
(0 -0 -6.97419e-15)
(0 -0 1.47635e-15)
(0 -0 7.69843e-15)
(0 -0 6.54348e-14)
(0 -0 6.75087e-14)
(0 -0 5.61251e-14)
(0 -0 -1.12336e-14)
(0 -0 -7.01336e-15)
(0 -0 -9.87745e-16)
(0 -0 2.86994e-14)
(0 -0 -3.44917e-12)
(0 -0 4.07025e-12)
(0 -0 -1.00435e-12)
(0 -0 1.71336e-13)
(0 -0 -7.19492e-14)
(0 -0 7.42781e-14)
(0 -0 9.39898e-14)
(0 -0 1.54171e-13)
(0 -0 3.65179e-14)
(0 -0 -4.57249e-14)
(0 -0 -7.17416e-14)
(0 -0 -3.60146e-14)
(0 -0 -7.05055e-14)
(0 -0 -1.17092e-13)
(0 -0 -4.42369e-14)
(0 -0 -4.25337e-14)
(0 -0 -5.59954e-14)
(0 -0 -1.22992e-13)
(0 -0 -2.88399e-14)
(0 -0 -8.60074e-15)
(0 -0 -4.6674e-14)
(0 -0 9.29751e-13)
(0 -0 -9.64767e-14)
(0 -0 1.02852e-13)
(0 -0 9.46261e-14)
(0 -0 6.00847e-14)
(0 -0 9.23246e-14)
(0 -0 3.60291e-14)
(0 -0 4.77971e-14)
(0 -0 1.67528e-14)
(0 -0 5.21428e-14)
(0 -0 1.02642e-14)
(0 -0 1.19314e-13)
(0 -0 5.74207e-14)
(0 -0 1.95955e-14)
(0 -0 -2.3436e-15)
(0 -0 6.714e-14)
(0 -0 -2.65882e-15)
(0 -0 -4.49238e-14)
(0 -0 -2.22391e-14)
(0 -0 3.41253e-12)
(0 -0 -5.95422e-12)
(0 -0 1.38316e-12)
(0 -0 -2.31688e-13)
(0 -0 1.17161e-13)
(0 -0 2.23928e-14)
(0 -0 -2.39873e-14)
(0 -0 -2.77781e-14)
(0 -0 -5.60065e-14)
(0 -0 6.87909e-14)
(0 -0 9.39333e-14)
(0 -0 2.36319e-14)
(0 -0 2.2625e-14)
(0 -0 8.58105e-14)
(0 -0 8.86845e-14)
(0 -0 1.24399e-13)
(0 -0 9.43269e-14)
(0 -0 1.01971e-13)
(0 -0 1.25994e-14)
(0 -0 4.53553e-14)
(0 -0 -1.81358e-12)
(0 -0 2.25851e-12)
(0 -0 -6.77209e-13)
(0 -0 2.51857e-14)
(0 -0 -1.18497e-13)
(0 -0 -1.19701e-13)
(0 -0 -1.63624e-13)
(0 -0 -1.10006e-13)
(0 -0 -2.46006e-15)
(0 -0 -3.45201e-14)
(0 -0 -1.86983e-14)
(0 -0 -6.31887e-15)
(0 -0 -9.48338e-14)
(0 -0 -3.8836e-14)
(0 -0 -5.7646e-14)
(0 -0 -4.73065e-14)
(0 -0 -2.28146e-14)
(0 -0 -4.74982e-14)
(0 -0 3.67647e-14)
(0 -0 -3.11093e-14)
(0 -0 -5.19852e-12)
(0 -0 7.23606e-12)
(0 -0 -1.45079e-12)
(0 -0 4.10557e-13)
(0 -0 -6.46845e-14)
(0 -0 2.21686e-14)
(0 -0 4.06717e-14)
(0 -0 3.82529e-14)
(0 -0 3.83004e-14)
(0 -0 -3.34454e-15)
(0 -0 -5.38443e-14)
(0 -0 9.73725e-15)
(0 -0 3.89424e-15)
(0 -0 -6.23429e-14)
(0 -0 -7.25851e-15)
(0 -0 -4.01253e-15)
(0 -0 -5.25539e-14)
(0 -0 1.19497e-14)
(0 -0 8.50221e-15)
(0 -0 2.59278e-14)
)
;

boundaryField
{
    movingWall
    {
        type            calculated;
        value           nonuniform List<vector> 
20
(
(0 -0 -8.30593e-12)
(0 -0 8.49161e-12)
(0 -0 -1.11512e-12)
(0 -0 6.94315e-13)
(0 -0 2.63482e-13)
(0 -0 3.50335e-13)
(0 -0 3.41733e-13)
(0 -0 2.33192e-13)
(0 -0 1.44422e-13)
(0 -0 1.74291e-13)
(0 -0 1.33593e-13)
(0 -0 5.41462e-14)
(0 -0 1.37121e-13)
(0 -0 3.62762e-14)
(0 -0 3.71504e-14)
(0 -0 4.03964e-14)
(0 -0 4.60651e-14)
(0 -0 1.19497e-14)
(0 -0 8.50221e-15)
(0 -0 4.32317e-14)
)
;
    }
    fixedWalls
    {
        type            calculated;
        value           nonuniform List<vector> 
60
(
(0 -0 4.00588e-11)
(0 -0 1.27979e-11)
(0 -0 -4.50026e-11)
(0 -0 2.76026e-11)
(0 -0 -8.47914e-13)
(0 -0 -2.25756e-11)
(0 -0 2.6959e-11)
(0 -0 -6.85136e-12)
(0 -0 -1.42292e-11)
(0 -0 2.13393e-11)
(0 -0 -1.94997e-11)
(0 -0 1.14701e-11)
(0 -0 4.67978e-12)
(0 -0 -2.0285e-11)
(0 -0 2.65974e-11)
(0 -0 -1.76888e-11)
(0 -0 -3.71609e-12)
(0 -0 2.56403e-11)
(0 -0 -1.02269e-11)
(0 -0 -3.03097e-11)
(0 -0 -8.96572e-15)
(0 -0 1.80057e-14)
(0 -0 5.75459e-14)
(0 -0 2.49314e-15)
(0 -0 1.26886e-14)
(0 -0 -2.31489e-16)
(0 -0 1.54105e-14)
(0 -0 1.89021e-14)
(0 -0 2.44979e-14)
(0 -0 -2.45507e-14)
(0 -0 4.75744e-14)
(0 -0 2.05618e-14)
(0 -0 -2.38289e-14)
(0 -0 5.87003e-15)
(0 -0 3.01622e-14)
(0 -0 5.63397e-16)
(0 -0 -2.43521e-15)
(0 -0 4.57822e-14)
(0 -0 -4.14681e-14)
(0 -0 2.35221e-14)
(0 -0 1.28709e-11)
(0 -0 -1.15751e-11)
(0 -0 1.75326e-12)
(0 -0 -8.77391e-13)
(0 -0 -3.58362e-13)
(0 -0 -4.43914e-13)
(0 -0 -3.07848e-13)
(0 -0 -2.45107e-13)
(0 -0 -1.54779e-13)
(0 -0 -1.31619e-13)
(0 -0 -1.18863e-13)
(0 -0 -1.66278e-13)
(0 -0 -1.3477e-13)
(0 -0 -1.30286e-14)
(0 -0 -4.69454e-14)
(0 -0 1.31655e-14)
(0 -0 -7.58625e-15)
(0 -0 1.5321e-13)
(0 -0 -3.96997e-14)
(0 -0 8.40914e-15)
)
;
    }
    frontAndBack
    {
        type            empty;
    }
}


// ************************************************************************* //
