/*--------------------------------*- C++ -*----------------------------------*\
| =========                 |                                                 |
| \\      /  F ield         | OpenFOAM: The Open Source CFD Toolbox           |
|  \\    /   O peration     | Version:  2506                                  |
|   \\  /    A nd           | Website:  www.openfoam.com                      |
|    \\/     M anipulation  |                                                 |
\*---------------------------------------------------------------------------*/
FoamFile
{
    version     2.0;
    format      ascii;
    arch        "LSB;label=32;scalar=64";
    class       volVectorField;
    location    "8.25";
    object      diffU;
}
// * * * * * * * * * * * * * * * * * * * * * * * * * * * * * * * * * * * * * //

dimensions      [0 1 -1 0 0 0 0];

internalField   nonuniform List<vector> 
400
(
(0 0 0)
(4.66294e-15 -1.12803e-13 0)
(3.10862e-15 -8.86001e-14 0)
(2.77556e-15 -9.42556e-14 0)
(2.66454e-15 -9.30957e-14 0)
(2.55351e-15 -9.33959e-14 0)
(2.55351e-15 -9.3335e-14 0)
(2.55351e-15 -9.33086e-14 0)
(2.22045e-15 -9.33963e-14 0)
(2.22045e-15 -9.35192e-14 0)
(2.66454e-15 -9.34554e-14 0)
(2.66454e-15 -9.33386e-14 0)
(2.55351e-15 -9.32832e-14 0)
(2.33147e-15 -9.33727e-14 0)
(2.22045e-15 -9.3468e-14 0)
(2.33147e-15 -9.34655e-14 0)
(2.33147e-15 -9.33866e-14 0)
(2.22045e-15 -9.33062e-14 0)
(2.33147e-15 -9.3359e-14 0)
(1.9984e-15 -9.34153e-14 0)
(6.55032e-15 -9.29445e-14 0)
(-6.66134e-16 -9.34054e-14 0)
(8.88178e-16 -9.3134e-14 0)
(1.55431e-15 -9.3315e-14 0)
(1.77636e-15 -9.32154e-14 0)
(1.77636e-15 -9.3346e-14 0)
(1.77636e-15 -9.33758e-14 0)
(1.77636e-15 -9.33487e-14 0)
(1.9984e-15 -9.34047e-14 0)
(1.9984e-15 -9.35033e-14 0)
(1.9984e-15 -9.35212e-14 0)
(1.77636e-15 -9.34357e-14 0)
(1.9984e-15 -9.33655e-14 0)
(2.33147e-15 -9.32635e-14 0)
(1.9984e-15 -9.32779e-14 0)
(1.55431e-15 -9.33314e-14 0)
(1.77636e-15 -9.33081e-14 0)
(1.55431e-15 -9.3415e-14 0)
(1.9984e-15 -9.35372e-14 0)
(2.22045e-15 -9.34624e-14 0)
(5.10703e-15 -1.59668e-13 0)
(1.33227e-15 -7.94038e-14 0)
(1.9984e-15 -9.66775e-14 0)
(1.33227e-15 -9.26214e-14 0)
(1.55431e-15 -9.34692e-14 0)
(1.55431e-15 -9.33264e-14 0)
(1.55431e-15 -9.33632e-14 0)
(1.77636e-15 -9.34039e-14 0)
(1.77636e-15 -9.34027e-14 0)
(1.55431e-15 -9.33341e-14 0)
(1.55431e-15 -9.34388e-14 0)
(1.77636e-15 -9.35503e-14 0)
(1.77636e-15 -9.35784e-14 0)
(1.9984e-15 -9.34177e-14 0)
(1.9984e-15 -9.33111e-14 0)
(2.22045e-15 -9.3291e-14 0)
(2.22045e-15 -9.33858e-14 0)
(2.44249e-15 -9.35902e-14 0)
(2.33147e-15 -9.36334e-14 0)
(2.22045e-15 -9.34544e-14 0)
(-1.37668e-14 -4.41665e-14 0)
(5.44009e-15 -1.04113e-13 0)
(8.88178e-16 -9.10448e-14 0)
(2.22045e-15 -9.39161e-14 0)
(2.22045e-15 -9.33112e-14 0)
(2.22045e-15 -9.34268e-14 0)
(2.22045e-15 -9.34057e-14 0)
(2.44249e-15 -9.34235e-14 0)
(2.33147e-15 -9.34268e-14 0)
(2.33147e-15 -9.34558e-14 0)
(2.44249e-15 -9.35707e-14 0)
(2.33147e-15 -9.36383e-14 0)
(2.55351e-15 -9.3546e-14 0)
(2.55351e-15 -9.34582e-14 0)
(2.55351e-15 -9.34153e-14 0)
(2.55351e-15 -9.32741e-14 0)
(2.33147e-15 -9.33582e-14 0)
(2.22045e-15 -9.34562e-14 0)
(2.44249e-15 -9.34407e-14 0)
(2.33147e-15 -9.34182e-14 0)
(1.5099e-14 -1.08634e-13 0)
(-4.44089e-16 -9.08475e-14 0)
(3.10862e-15 -9.43397e-14 0)
(2.33147e-15 -9.3345e-14 0)
(2.55351e-15 -9.3433e-14 0)
(2.44249e-15 -9.33974e-14 0)
(2.55351e-15 -9.34602e-14 0)
(2.33147e-15 -9.34485e-14 0)
(2.55351e-15 -9.33895e-14 0)
(2.55351e-15 -9.33538e-14 0)
(2.55351e-15 -9.33656e-14 0)
(2.22045e-15 -9.34134e-14 0)
(1.55431e-15 -9.34748e-14 0)
(1.77636e-15 -9.34826e-14 0)
(1.9984e-15 -9.34524e-14 0)
(1.77636e-15 -9.34014e-14 0)
(2.33147e-15 -9.33666e-14 0)
(2.22045e-15 -9.34154e-14 0)
(2.22045e-15 -9.34537e-14 0)
(2.33147e-15 -9.34512e-14 0)
(-4.66294e-15 -1.19041e-13 0)
(4.77396e-15 -8.79594e-14 0)
(2.33147e-15 -9.46425e-14 0)
(2.66454e-15 -9.30443e-14 0)
(2.66454e-15 -9.33749e-14 0)
(2.22045e-15 -9.33346e-14 0)
(2.55351e-15 -9.33801e-14 0)
(2.55351e-15 -9.3433e-14 0)
(2.33147e-15 -9.34449e-14 0)
(2.22045e-15 -9.33957e-14 0)
(1.9984e-15 -9.32553e-14 0)
(2.55351e-15 -9.32271e-14 0)
(2.44249e-15 -9.33707e-14 0)
(2.44249e-15 -9.35596e-14 0)
(2.55351e-15 -9.35942e-14 0)
(2.66454e-15 -9.35527e-14 0)
(2.55351e-15 -9.34554e-14 0)
(2.33147e-15 -9.34551e-14 0)
(2.66454e-15 -9.34408e-14 0)
(2.44249e-15 -9.33687e-14 0)
(8.54872e-15 -3.81782e-14 0)
(1.33227e-15 -1.05095e-13 0)
(2.77556e-15 -9.05822e-14 0)
(2.22045e-15 -9.39464e-14 0)
(2.44249e-15 -9.31954e-14 0)
(2.44249e-15 -9.33318e-14 0)
(2.22045e-15 -9.33638e-14 0)
(2.33147e-15 -9.3393e-14 0)
(2.44249e-15 -9.3301e-14 0)
(2.33147e-15 -9.33383e-14 0)
(2.22045e-15 -9.33145e-14 0)
(2.22045e-15 -9.33177e-14 0)
(1.9984e-15 -9.33655e-14 0)
(2.22045e-15 -9.34781e-14 0)
(2.22045e-15 -9.35707e-14 0)
(1.77636e-15 -9.35098e-14 0)
(1.9984e-15 -9.34098e-14 0)
(2.22045e-15 -9.34127e-14 0)
(2.22045e-15 -9.33781e-14 0)
(2.22045e-15 -9.33361e-14 0)
(4.55191e-15 -1.22882e-13 0)
(1.11022e-15 -8.71164e-14 0)
(1.55431e-15 -9.46304e-14 0)
(1.77636e-15 -9.30132e-14 0)
(1.33227e-15 -9.34048e-14 0)
(1.77636e-15 -9.32918e-14 0)
(1.9984e-15 -9.33554e-14 0)
(1.55431e-15 -9.33559e-14 0)
(1.77636e-15 -9.32041e-14 0)
(1.55431e-15 -9.32283e-14 0)
(1.55431e-15 -9.32955e-14 0)
(1.9984e-15 -9.34232e-14 0)
(2.22045e-15 -9.3428e-14 0)
(2.22045e-15 -9.34797e-14 0)
(2.44249e-15 -9.35249e-14 0)
(1.9984e-15 -9.3602e-14 0)
(1.9984e-15 -9.35866e-14 0)
(2.22045e-15 -9.34662e-14 0)
(2.22045e-15 -9.34004e-14 0)
(2.22045e-15 -9.34056e-14 0)
(4.55191e-15 -1.29491e-13 0)
(1.9984e-15 -8.49244e-14 0)
(2.88658e-15 -9.49512e-14 0)
(1.77636e-15 -9.26682e-14 0)
(1.55431e-15 -9.3364e-14 0)
(1.55431e-15 -9.33611e-14 0)
(1.55431e-15 -9.34483e-14 0)
(1.11022e-15 -9.35333e-14 0)
(1.77636e-15 -9.36037e-14 0)
(1.77636e-15 -9.35268e-14 0)
(2.44249e-15 -9.35385e-14 0)
(2.22045e-15 -9.35687e-14 0)
(2.22045e-15 -9.36017e-14 0)
(2.55351e-15 -9.3565e-14 0)
(2.44249e-15 -9.34473e-14 0)
(2.44249e-15 -9.34763e-14 0)
(2.44249e-15 -9.34778e-14 0)
(2.44249e-15 -9.3342e-14 0)
(2.22045e-15 -9.33319e-14 0)
(2.33147e-15 -9.33883e-14 0)
(-7.77156e-15 -3.79154e-14 0)
(3.9968e-15 -1.04702e-13 0)
(1.11022e-15 -9.05472e-14 0)
(2.44249e-15 -9.37082e-14 0)
(2.22045e-15 -9.30744e-14 0)
(2.33147e-15 -9.32702e-14 0)
(2.44249e-15 -9.3251e-14 0)
(2.22045e-15 -9.33659e-14 0)
(1.9984e-15 -9.35606e-14 0)
(1.77636e-15 -9.35615e-14 0)
(1.77636e-15 -9.36327e-14 0)
(1.77636e-15 -9.36109e-14 0)
(2.22045e-15 -9.36684e-14 0)
(1.9984e-15 -9.36208e-14 0)
(1.9984e-15 -9.346e-14 0)
(1.77636e-15 -9.33997e-14 0)
(1.33227e-15 -9.34264e-14 0)
(1.77636e-15 -9.3455e-14 0)
(2.22045e-15 -9.3446e-14 0)
(2.22045e-15 -9.34037e-14 0)
(-8.88178e-16 -1.28429e-13 0)
(2.22045e-15 -8.63016e-14 0)
(1.55431e-15 -9.49576e-14 0)
(2.44249e-15 -9.30968e-14 0)
(2.55351e-15 -9.34386e-14 0)
(2.44249e-15 -9.3393e-14 0)
(2.44249e-15 -9.33929e-14 0)
(2.88658e-15 -9.33163e-14 0)
(2.66454e-15 -9.33323e-14 0)
(2.66454e-15 -9.3481e-14 0)
(2.88658e-15 -9.3542e-14 0)
(2.44249e-15 -9.36025e-14 0)
(2.55351e-15 -9.35977e-14 0)
(2.44249e-15 -9.35272e-14 0)
(1.9984e-15 -9.34459e-14 0)
(2.33147e-15 -9.34694e-14 0)
(2.66454e-15 -9.35655e-14 0)
(2.55351e-15 -9.36049e-14 0)
(2.44249e-15 -9.34464e-14 0)
(2.22045e-15 -9.34073e-14 0)
(1.58762e-14 -7.1503e-14 0)
(-2.22045e-16 -9.82933e-14 0)
(3.55271e-15 -9.25796e-14 0)
(2.22045e-15 -9.37083e-14 0)
(2.9976e-15 -9.34039e-14 0)
(2.66454e-15 -9.34221e-14 0)
(2.77556e-15 -9.33608e-14 0)
(2.77556e-15 -9.32376e-14 0)
(2.55351e-15 -9.32832e-14 0)
(2.66454e-15 -9.34053e-14 0)
(2.66454e-15 -9.34104e-14 0)
(2.88658e-15 -9.34562e-14 0)
(2.77556e-15 -9.34863e-14 0)
(2.55351e-15 -9.3416e-14 0)
(2.55351e-15 -9.33669e-14 0)
(2.55351e-15 -9.33608e-14 0)
(2.44249e-15 -9.33724e-14 0)
(1.9984e-15 -9.33295e-14 0)
(1.9984e-15 -9.33773e-14 0)
(2.33147e-15 -9.34361e-14 0)
(-1.37668e-14 -1.06423e-13 0)
(4.55191e-15 -9.10604e-14 0)
(2.22045e-16 -9.42371e-14 0)
(1.77636e-15 -9.34697e-14 0)
(1.55431e-15 -9.35526e-14 0)
(1.55431e-15 -9.34325e-14 0)
(1.55431e-15 -9.3338e-14 0)
(1.77636e-15 -9.33373e-14 0)
(1.77636e-15 -9.34156e-14 0)
(1.77636e-15 -9.34696e-14 0)
(1.55431e-15 -9.35827e-14 0)
(1.77636e-15 -9.35226e-14 0)
(1.9984e-15 -9.34354e-14 0)
(1.77636e-15 -9.34004e-14 0)
(1.77636e-15 -9.33996e-14 0)
(1.9984e-15 -9.33406e-14 0)
(2.22045e-15 -9.32579e-14 0)
(2.22045e-15 -9.32281e-14 0)
(2.33147e-15 -9.348e-14 0)
(2.22045e-15 -9.35361e-14 0)
(1.52101e-14 -1.11442e-13 0)
(2.22045e-16 -8.94172e-14 0)
(3.77476e-15 -9.44706e-14 0)
(1.9984e-15 -9.33689e-14 0)
(2.55351e-15 -9.35955e-14 0)
(2.33147e-15 -9.34694e-14 0)
(2.55351e-15 -9.3379e-14 0)
(2.44249e-15 -9.33955e-14 0)
(2.44249e-15 -9.33122e-14 0)
(2.22045e-15 -9.32731e-14 0)
(1.9984e-15 -9.34198e-14 0)
(1.9984e-15 -9.34401e-14 0)
(1.77636e-15 -9.34378e-14 0)
(1.77636e-15 -9.34686e-14 0)
(1.77636e-15 -9.35019e-14 0)
(1.77636e-15 -9.35336e-14 0)
(1.77636e-15 -9.347e-14 0)
(1.9984e-15 -9.34697e-14 0)
(2.22045e-15 -9.35081e-14 0)
(2.33147e-15 -9.34893e-14 0)
(-3.55271e-15 -3.2224e-14 0)
(2.9976e-15 -1.05791e-13 0)
(1.55431e-15 -9.07451e-14 0)
(2.33147e-15 -9.41154e-14 0)
(1.9984e-15 -9.33855e-14 0)
(1.55431e-15 -9.34253e-14 0)
(1.55431e-15 -9.33499e-14 0)
(1.77636e-15 -9.33642e-14 0)
(1.77636e-15 -9.33429e-14 0)
(2.22045e-15 -9.33348e-14 0)
(2.22045e-15 -9.33323e-14 0)
(2.22045e-15 -9.33717e-14 0)
(2.22045e-15 -9.33952e-14 0)
(2.44249e-15 -9.34179e-14 0)
(2.44249e-15 -9.34081e-14 0)
(2.44249e-15 -9.34586e-14 0)
(2.44249e-15 -9.34614e-14 0)
(2.33147e-15 -9.3534e-14 0)
(2.33147e-15 -9.34872e-14 0)
(2.22045e-15 -9.34098e-14 0)
(-6.66134e-16 -1.60623e-13 0)
(1.77636e-15 -7.97476e-14 0)
(1.55431e-15 -9.67122e-14 0)
(1.9984e-15 -9.28787e-14 0)
(1.9984e-15 -9.35736e-14 0)
(1.77636e-15 -9.33654e-14 0)
(1.9984e-15 -9.33742e-14 0)
(1.9984e-15 -9.33371e-14 0)
(1.77636e-15 -9.34416e-14 0)
(1.77636e-15 -9.3536e-14 0)
(1.77636e-15 -9.34936e-14 0)
(1.77636e-15 -9.34824e-14 0)
(1.9984e-15 -9.34578e-14 0)
(1.77636e-15 -9.34725e-14 0)
(1.9984e-15 -9.35129e-14 0)
(1.9984e-15 -9.34273e-14 0)
(1.9984e-15 -9.34494e-14 0)
(1.9984e-15 -9.34983e-14 0)
(2.22045e-15 -9.34558e-14 0)
(2.22045e-15 -9.3457e-14 0)
(0 -7.61017e-14 0)
(3.21965e-15 -9.74466e-14 0)
(2.44249e-15 -9.26221e-14 0)
(1.77636e-15 -9.37326e-14 0)
(1.9984e-15 -9.34115e-14 0)
(1.9984e-15 -9.34425e-14 0)
(1.9984e-15 -9.34578e-14 0)
(2.22045e-15 -9.3443e-14 0)
(2.55351e-15 -9.34812e-14 0)
(2.55351e-15 -9.35313e-14 0)
(2.55351e-15 -9.34579e-14 0)
(2.44249e-15 -9.34445e-14 0)
(2.22045e-15 -9.34638e-14 0)
(2.44249e-15 -9.34621e-14 0)
(2.22045e-15 -9.35584e-14 0)
(2.33147e-15 -9.35777e-14 0)
(2.44249e-15 -9.35548e-14 0)
(2.33147e-15 -9.34864e-14 0)
(1.9984e-15 -9.34642e-14 0)
(2.22045e-15 -9.34922e-14 0)
(3.10862e-15 -4.05845e-14 0)
(2.55351e-15 -1.0382e-13 0)
(2.44249e-15 -9.10099e-14 0)
(2.77556e-15 -9.39726e-14 0)
(2.66454e-15 -9.34313e-14 0)
(2.55351e-15 -9.35908e-14 0)
(2.77556e-15 -9.3644e-14 0)
(2.77556e-15 -9.35552e-14 0)
(2.77556e-15 -9.34334e-14 0)
(2.77556e-15 -9.33822e-14 0)
(2.55351e-15 -9.33165e-14 0)
(2.55351e-15 -9.32852e-14 0)
(2.44249e-15 -9.33218e-14 0)
(2.33147e-15 -9.33995e-14 0)
(2.44249e-15 -9.34648e-14 0)
(2.33147e-15 -9.35344e-14 0)
(2.22045e-15 -9.34859e-14 0)
(2.33147e-15 -9.34306e-14 0)
(2.22045e-15 -9.34311e-14 0)
(2.33147e-15 -9.34123e-14 0)
(8.88178e-15 -1.39315e-13 0)
(0 -8.40309e-14 0)
(1.9984e-15 -9.55829e-14 0)
(1.55431e-15 -9.29909e-14 0)
(1.77636e-15 -9.35599e-14 0)
(1.77636e-15 -9.35206e-14 0)
(1.77636e-15 -9.35703e-14 0)
(1.77636e-15 -9.34661e-14 0)
(1.77636e-15 -9.33625e-14 0)
(1.77636e-15 -9.33232e-14 0)
(1.77636e-15 -9.34115e-14 0)
(1.77636e-15 -9.34054e-14 0)
(2.22045e-15 -9.33785e-14 0)
(2.22045e-15 -9.34185e-14 0)
(2.22045e-15 -9.34927e-14 0)
(2.22045e-15 -9.35045e-14 0)
(2.22045e-15 -9.34729e-14 0)
(1.77636e-15 -9.34297e-14 0)
(1.9984e-15 -9.34093e-14 0)
(2.22045e-15 -9.3414e-14 0)
(2.44249e-15 -1.1515e-13 0)
(3.33067e-15 -8.96466e-14 0)
(3.66374e-15 -9.43955e-14 0)
(2.9976e-15 -9.33391e-14 0)
(3.10862e-15 -9.35079e-14 0)
(2.88658e-15 -9.35051e-14 0)
(2.88658e-15 -9.35486e-14 0)
(2.55351e-15 -9.35583e-14 0)
(2.77556e-15 -9.35141e-14 0)
(2.66454e-15 -9.34705e-14 0)
(2.66454e-15 -9.35242e-14 0)
(2.77556e-15 -9.35383e-14 0)
(2.55351e-15 -9.34944e-14 0)
(2.33147e-15 -9.34051e-14 0)
(2.22045e-15 -9.34352e-14 0)
(2.22045e-15 -9.34797e-14 0)
(2.22045e-15 -9.34279e-14 0)
(1.9984e-15 -9.33755e-14 0)
(2.33147e-15 -9.34063e-14 0)
(2.33147e-15 -9.34511e-14 0)
)
;

boundaryField
{
    movingWall
    {
        type            calculated;
        value           uniform (2.22045e-15 -9.34116e-14 0);
    }
    fixedWalls
    {
        type            calculated;
        value           uniform (2.22045e-15 -9.34116e-14 0);
    }
    frontAndBack
    {
        type            empty;
    }
}


// ************************************************************************* //
