/*--------------------------------*- C++ -*----------------------------------*\
| =========                 |                                                 |
| \\      /  F ield         | OpenFOAM: The Open Source CFD Toolbox           |
|  \\    /   O peration     | Version:  2506                                  |
|   \\  /    A nd           | Website:  www.openfoam.com                      |
|    \\/     M anipulation  |                                                 |
\*---------------------------------------------------------------------------*/
FoamFile
{
    version     2.0;
    format      ascii;
    arch        "LSB;label=32;scalar=64";
    class       volScalarField;
    location    "8.25";
    object      divPhi;
}
// * * * * * * * * * * * * * * * * * * * * * * * * * * * * * * * * * * * * * //

dimensions      [0 0 -1 0 0 0 0];

internalField   nonuniform List<scalar> 
400
(
-2.71051e-13
9.57599e-15
-6.46513e-15
-5.95773e-15
2.18353e-14
-1.82269e-14
3.27262e-15
-8.01884e-15
1.6913e-14
2.18346e-15
1.36369e-15
-2.05881e-15
4.38258e-15
-1.59409e-15
-2.38191e-15
-6.19914e-15
3.08778e-15
-1.0384e-14
3.60588e-15
0
2.71051e-14
2.86978e-14
-1.35988e-14
5.60847e-15
-6.70541e-15
1.55017e-14
1.54767e-14
3.77108e-15
-1.11317e-14
-6.82756e-15
-7.51986e-15
-1.29742e-15
5.14682e-15
-1.42742e-14
1.80931e-14
-2.81536e-14
-5.44862e-15
3.54489e-15
2.92548e-14
-2.71051e-14
-2.71051e-14
2.44407e-14
1.88298e-14
8.81155e-15
-1.53581e-15
1.77234e-15
3.53607e-15
-2.47223e-14
-1.99988e-15
1.18953e-14
-4.21545e-14
1.255e-14
8.157e-16
1.87635e-14
-2.76965e-14
2.40722e-14
-1.14191e-15
5.95505e-15
1.10272e-14
2.71051e-14
0
-5.14336e-15
-9.17741e-16
3.49702e-14
-1.86354e-14
3.42235e-15
1.94804e-14
-1.07106e-14
6.30184e-15
9.25299e-15
1.02715e-14
3.54112e-14
-4.01903e-15
-4.22882e-15
-9.00778e-15
-5.37275e-15
-1.25437e-16
2.55583e-14
2.52221e-14
-2.71051e-14
0
-6.83518e-15
-8.73141e-15
2.84876e-14
-2.05388e-15
7.60948e-15
-6.97778e-16
-9.15792e-16
-1.32946e-15
1.96414e-14
-3.99611e-15
-3.12752e-16
1.31404e-14
-3.00193e-15
9.90066e-15
-1.78312e-14
-8.59853e-15
-1.26394e-15
-1.17226e-14
-2.71051e-14
-2.71051e-14
1.86713e-14
1.41382e-14
-8.14792e-15
9.34562e-15
1.51645e-14
1.22371e-14
8.8505e-15
-1.69512e-14
-1.44373e-14
-8.02462e-15
6.36443e-15
2.45437e-15
-2.14364e-14
1.68692e-14
3.1746e-14
-2.98312e-14
-1.03325e-14
-2.83644e-14
2.71051e-14
0
-1.64959e-14
7.65355e-17
-2.63418e-14
1.71982e-14
-2.09384e-14
1.25482e-14
1.67047e-14
-4.24764e-15
2.10604e-15
8.03441e-15
2.53953e-14
-2.2744e-14
2.11895e-14
-2.719e-14
1.71953e-14
9.39245e-15
-2.82015e-14
5.37072e-15
0
2.71051e-14
1.10172e-15
-6.05795e-15
6.6879e-16
-2.72513e-14
2.35361e-15
-6.44311e-15
4.39132e-15
-3.557e-14
1.00282e-14
-3.43382e-15
-7.50084e-15
1.08414e-14
3.71018e-15
-9.95294e-15
-1.3946e-14
2.61538e-14
-1.19011e-14
5.22931e-15
0
-2.71051e-14
-1.66927e-14
9.62496e-15
-3.71567e-15
-7.51923e-15
-4.42277e-15
-1.39789e-14
3.65209e-14
-2.91004e-14
1.88911e-14
-1.69065e-14
2.00152e-15
4.21275e-15
1.47048e-14
-1.76342e-14
5.87417e-15
1.70858e-14
-2.75727e-15
-3.88809e-15
2.71051e-14
0
-7.87301e-15
2.11751e-15
-5.92292e-15
-3.89616e-15
1.58219e-14
1.00233e-15
3.17237e-14
3.6686e-15
-1.51556e-14
2.03936e-14
5.05976e-15
-1.74023e-14
-9.11742e-15
2.61358e-14
-1.21415e-14
1.83167e-14
-1.27e-14
-3.26047e-14
0
0
-4.38198e-15
-9.93543e-15
9.6788e-15
-1.26818e-14
-2.26308e-14
-3.81996e-15
3.41072e-15
2.056e-14
1.69132e-14
-6.24015e-15
1.37385e-14
-3.86299e-15
-1.08045e-14
1.49904e-15
1.59605e-14
-1.7832e-14
1.29863e-14
-1.01258e-14
0
2.71051e-14
9.26673e-15
-9.73984e-16
-2.46814e-15
-1.10016e-14
1.84343e-14
-1.40033e-14
1.83405e-14
-1.22727e-14
-3.70729e-15
-2.17157e-14
5.31114e-15
-6.00412e-15
-2.35262e-14
4.78415e-15
-1.1667e-14
2.32191e-14
3.23841e-14
-4.31098e-14
0
0
8.79426e-15
-1.82065e-14
-1.65745e-14
-6.28097e-15
-8.2898e-16
1.40929e-14
6.11765e-16
-2.12184e-14
4.71637e-15
4.88923e-15
1.41165e-14
-3.77131e-15
-4.6623e-15
1.39508e-14
-1.30574e-14
2.94489e-15
2.42135e-14
2.55406e-15
0
0
-8.72127e-15
2.7254e-14
2.25384e-14
-3.72021e-14
1.00508e-14
-1.38339e-14
1.09213e-14
-4.81181e-15
-2.20786e-14
1.34753e-14
-2.40263e-14
1.2933e-15
-4.11287e-15
-4.17525e-15
-1.01021e-14
-8.5163e-15
-7.02351e-15
1.88311e-14
0
0
-2.57509e-14
2.63248e-14
-2.07452e-14
-1.2231e-14
9.28829e-15
3.18731e-14
4.38303e-15
-3.3494e-15
1.04796e-14
-3.96612e-15
-6.7347e-15
1.77017e-14
8.45008e-15
-7.5328e-15
-5.21854e-15
1.40454e-15
-1.08421e-14
-8.09239e-15
0
0
-2.27947e-15
-2.36162e-15
4.1376e-14
-3.01891e-14
2.52937e-14
-2.80829e-14
1.47283e-14
-4.41948e-15
1.17163e-14
-6.89474e-15
-8.10595e-15
-3.35286e-15
2.76411e-14
-6.52917e-15
-1.53872e-14
9.84138e-16
-7.16113e-16
-8.02361e-15
-2.71051e-14
0
-4.18455e-15
1.34705e-14
2.76518e-15
-1.0823e-14
1.05689e-14
4.85834e-15
-2.36765e-14
-1.04455e-14
3.38668e-14
-3.81321e-15
-1.61535e-14
2.54011e-14
-3.09275e-14
-1.10746e-14
1.7335e-14
4.22008e-15
9.53034e-16
-6.33441e-15
2.71051e-14
-2.71051e-14
3.50469e-15
2.58097e-14
-1.45003e-14
-1.67201e-14
2.23026e-14
-1.87917e-14
4.60581e-15
2.33797e-15
1.99065e-14
-1.29651e-14
1.44323e-14
-3.11677e-15
-2.60835e-15
-1.62671e-14
1.30385e-14
-1.36002e-14
1.64923e-14
-3.06556e-15
-2.71051e-14
2.71051e-14
-4.05999e-15
1.21959e-14
1.49841e-15
6.65043e-15
1.00528e-14
2.5188e-14
-1.7562e-14
-8.24926e-15
1.35131e-15
-8.85385e-15
-4.21704e-14
9.65682e-15
3.40829e-15
-8.83959e-15
2.2953e-15
2.17411e-14
8.87947e-15
2.07384e-15
0
0
-2.71051e-14
2.71051e-14
0
0
0
0
0
0
0
0
0
0
0
-2.71051e-14
2.71051e-14
0
0
0
2.71051e-14
)
;

boundaryField
{
    movingWall
    {
        type            extrapolatedCalculated;
        value           nonuniform List<scalar> 
20
(
0
-2.71051e-14
2.71051e-14
0
0
0
0
0
0
0
0
0
0
0
-2.71051e-14
2.71051e-14
0
0
0
2.71051e-14
)
;
    }
    fixedWalls
    {
        type            extrapolatedCalculated;
        value           nonuniform List<scalar> 
60
(
-2.71051e-13
2.71051e-14
-2.71051e-14
0
0
-2.71051e-14
0
2.71051e-14
-2.71051e-14
0
0
2.71051e-14
0
0
0
0
0
-2.71051e-14
2.71051e-14
0
0
-2.71051e-14
2.71051e-14
-2.71051e-14
-2.71051e-14
2.71051e-14
0
0
2.71051e-14
0
0
0
0
0
0
-2.71051e-14
2.71051e-14
-2.71051e-14
0
2.71051e-14
-2.71051e-13
9.57599e-15
-6.46513e-15
-5.95773e-15
2.18353e-14
-1.82269e-14
3.27262e-15
-8.01884e-15
1.6913e-14
2.18346e-15
1.36369e-15
-2.05881e-15
4.38258e-15
-1.59409e-15
-2.38191e-15
-6.19914e-15
3.08778e-15
-1.0384e-14
3.60588e-15
0
)
;
    }
    frontAndBack
    {
        type            empty;
    }
}


// ************************************************************************* //
