/*--------------------------------*- C++ -*----------------------------------*\
| =========                 |                                                 |
| \\      /  F ield         | OpenFOAM: The Open Source CFD Toolbox           |
|  \\    /   O peration     | Version:  2506                                  |
|   \\  /    A nd           | Website:  www.openfoam.com                      |
|    \\/     M anipulation  |                                                 |
\*---------------------------------------------------------------------------*/
FoamFile
{
    version     2.0;
    format      ascii;
    arch        "LSB;label=32;scalar=64";
    class       volScalarField;
    location    "8.25";
    object      divU;
}
// * * * * * * * * * * * * * * * * * * * * * * * * * * * * * * * * * * * * * //

dimensions      [0 0 -1 0 0 0 0];

internalField   nonuniform List<scalar> 
400
(
9.40545e-12
-1.64037e-12
3.19178e-13
-1.01843e-13
-2.9917e-15
8.12949e-15
1.12482e-14
1.6594e-14
-5.19808e-14
3.42822e-14
1.1769e-14
4.89227e-15
-9.64479e-15
-3.55071e-14
7.73211e-15
2.97385e-14
1.28499e-14
-1.69045e-14
-7.30013e-15
0
-1.58022e-11
2.78377e-12
-5.69876e-13
2.78418e-13
-4.03397e-14
1.50789e-14
8.42023e-15
-2.00415e-14
2.8695e-14
2.56918e-14
-1.36784e-14
-1.6275e-14
4.21499e-14
-1.29004e-14
-5.78952e-14
-3.4134e-14
1.29291e-14
3.60116e-14
4.65749e-14
0
5.06865e-12
-1.40404e-12
2.62458e-13
-1.6116e-13
3.13932e-14
-2.01075e-14
5.96439e-14
-4.17387e-16
-6.24019e-16
-5.08761e-14
8.47586e-15
4.47802e-14
-3.01128e-14
-5.267e-15
3.6785e-14
-1.29732e-15
3.50324e-14
4.78483e-15
-2.50904e-14
0
3.79471e-12
3.51826e-13
-1.00071e-13
6.46439e-14
7.9048e-15
-1.01104e-16
2.28401e-14
2.22307e-14
-2.64115e-14
1.35845e-15
4.29081e-14
4.26376e-15
7.35273e-15
-1.17548e-14
-4.44995e-15
-1.23336e-14
-1.72508e-14
2.22616e-14
1.99914e-14
-2.71051e-14
-6.50521e-12
3.95056e-13
-5.32609e-14
4.3396e-14
1.53931e-15
9.11963e-15
-1.70676e-15
-5.82403e-15
-1.11816e-15
7.37358e-15
2.02353e-14
-9.01391e-14
-2.93243e-14
5.94197e-14
-4.94441e-14
-1.30855e-14
5.43407e-14
-4.72693e-15
-7.11705e-15
0
6.61363e-12
-7.31528e-13
1.59862e-13
-4.38569e-14
-1.80734e-15
1.56779e-14
7.9364e-15
-2.74423e-16
-1.93742e-14
-1.81813e-14
-1.7617e-15
5.49554e-14
8.71149e-15
5.65583e-15
2.0045e-14
-2.39267e-14
-3.13002e-14
-4.45492e-15
4.43952e-16
-5.42101e-14
1.6263e-13
-5.11698e-13
1.06862e-13
-1.36387e-14
2.23021e-14
-3.42497e-14
1.04085e-14
3.45364e-14
4.70851e-15
-1.44298e-15
-5.77955e-15
-1.88673e-14
2.98291e-15
1.36463e-14
-5.43398e-14
-1.75075e-15
3.68952e-14
-5.5664e-15
4.47489e-15
0
-8.99888e-12
1.69508e-12
-3.84255e-13
1.41294e-13
-2.16608e-14
4.41437e-14
1.95879e-15
-6.08093e-14
-2.55605e-14
-2.02901e-14
2.60281e-14
6.44462e-14
-2.06363e-14
4.95615e-15
-1.49015e-14
-5.2606e-14
5.72061e-14
1.5031e-15
9.08605e-15
0
8.72783e-12
-1.93371e-12
3.76423e-13
-1.72149e-13
-1.57287e-14
-7.90417e-15
-4.1817e-14
-7.59481e-15
7.43202e-14
5.98838e-16
4.65181e-14
-3.56403e-14
9.52919e-15
1.79523e-14
1.86979e-14
2.18303e-14
1.90127e-14
-2.44824e-14
-2.25788e-14
0
-6.77626e-13
6.93284e-13
-1.39208e-13
5.60392e-14
3.91329e-15
1.60042e-14
-9.16919e-15
-6.72078e-14
-6.95618e-15
5.17378e-15
-8.03716e-15
1.51905e-14
9.9241e-15
-5.36727e-15
-3.53666e-14
-5.88016e-14
-1.68705e-14
5.76467e-14
4.72887e-14
0
-3.65918e-12
8.73353e-13
-2.06913e-13
1.10236e-13
-2.9033e-14
-2.62941e-14
6.9578e-15
2.69342e-14
-6.3251e-15
4.78976e-14
-1.29092e-14
-2.35507e-14
2.81313e-14
-3.90982e-14
1.04364e-15
5.35073e-14
4.27392e-14
-1.11193e-14
-2.71485e-14
-2.71051e-14
3.33392e-12
-1.74382e-12
3.53029e-13
-1.16786e-13
4.08807e-14
-3.13514e-15
1.24426e-14
-2.93755e-14
-1.466e-14
-5.16828e-15
1.01166e-14
1.15426e-14
-9.85084e-15
-2.64205e-14
5.67365e-15
1.21778e-14
-3.49184e-14
-2.76463e-14
5.08114e-14
-2.71051e-14
-5.39391e-12
2.28798e-12
-4.866e-13
2.15308e-13
-8.6701e-14
-7.86334e-15
1.0618e-14
3.61509e-14
9.54767e-15
8.04994e-15
9.17347e-15
1.3152e-14
-4.99909e-15
-4.57412e-15
1.92804e-14
4.91154e-14
-1.75692e-14
1.25435e-14
-4.35878e-14
0
8.53809e-12
-2.62747e-12
5.40223e-13
-2.01633e-13
6.55413e-14
-7.14522e-15
9.43342e-15
6.35703e-15
-1.02864e-14
-5.57082e-15
-1.99903e-14
1.13793e-15
-9.72821e-16
-6.32349e-15
-8.67581e-15
-1.6896e-14
-1.08107e-14
6.327e-14
3.70016e-14
0
-5.39391e-12
1.48367e-12
-3.0735e-13
9.13292e-14
-6.77929e-14
-5.09587e-14
6.41236e-14
1.22014e-14
3.87493e-15
2.23514e-14
-2.62692e-16
-3.08973e-15
2.41378e-14
2.03937e-14
-9.77705e-15
2.08314e-14
-8.75608e-15
-2.09012e-14
-1.19767e-14
0
-4.74338e-12
1.04421e-12
-1.42688e-13
7.53968e-14
-1.61866e-14
1.53284e-15
2.62254e-14
-2.27864e-14
-9.9565e-15
-2.44117e-14
-1.2828e-14
-1.03689e-14
1.7276e-14
-3.82403e-14
2.29776e-15
-1.81755e-14
-1.80967e-14
6.51763e-14
-9.67734e-15
0
1.1872e-11
-2.17619e-12
4.54644e-13
-1.96621e-13
5.22552e-14
-2.10053e-14
2.6351e-14
3.67131e-14
-9.13638e-15
1.80752e-14
4.88281e-15
-1.77531e-14
3.76268e-15
-3.83437e-15
-1.99956e-14
5.24286e-14
5.36563e-15
-3.64798e-14
-7.20529e-15
0
-6.20706e-12
1.27958e-12
-3.0222e-13
1.21496e-13
-4.38994e-14
-1.71529e-15
1.51002e-14
7.29517e-15
2.73083e-15
-1.53249e-14
-1.75773e-14
1.32683e-14
-1.48126e-14
2.76321e-14
1.36771e-14
-4.86799e-14
1.35519e-14
-3.70369e-15
2.53933e-14
-2.71051e-14
-7.04731e-12
7.72473e-13
-2.07098e-13
7.64273e-14
2.65198e-15
6.85067e-15
-2.45951e-15
6.99148e-15
-5.34072e-15
2.95429e-15
-1.12426e-14
1.5068e-14
4.92485e-14
-4.01726e-17
-1.04627e-14
1.10021e-14
-3.48598e-14
1.80875e-15
5.49748e-14
0
6.91179e-12
-1.16552e-12
2.71051e-13
-8.13152e-14
0
0
-2.71051e-14
2.71051e-14
0
0
0
0
-2.71051e-14
-5.42101e-14
0
2.71051e-14
-5.42101e-14
5.42101e-14
2.71051e-14
-2.71051e-14
)
;

boundaryField
{
    movingWall
    {
        type            extrapolatedCalculated;
        value           nonuniform List<scalar> 
20
(
6.91179e-12
-1.16552e-12
2.71051e-13
-8.13152e-14
0
0
-2.71051e-14
2.71051e-14
0
0
0
0
-2.71051e-14
-5.42101e-14
0
2.71051e-14
-5.42101e-14
5.42101e-14
2.71051e-14
-2.71051e-14
)
;
    }
    fixedWalls
    {
        type            extrapolatedCalculated;
        value           nonuniform List<scalar> 
60
(
9.40545e-12
-1.58022e-11
5.06865e-12
3.79471e-12
-6.50521e-12
6.61363e-12
1.6263e-13
-8.99888e-12
8.72783e-12
-6.77626e-13
-3.65918e-12
3.33392e-12
-5.39391e-12
8.53809e-12
-5.39391e-12
-4.74338e-12
1.1872e-11
-6.20706e-12
-7.04731e-12
6.91179e-12
0
0
0
-2.71051e-14
0
-5.42101e-14
0
0
0
0
-2.71051e-14
-2.71051e-14
0
0
0
0
0
-2.71051e-14
0
-2.71051e-14
9.40545e-12
-1.64037e-12
3.19178e-13
-1.01843e-13
-2.9917e-15
8.12949e-15
1.12482e-14
1.6594e-14
-5.19808e-14
3.42822e-14
1.1769e-14
4.89227e-15
-9.64479e-15
-3.55071e-14
7.73211e-15
2.97385e-14
1.28499e-14
-1.69045e-14
-7.30013e-15
0
)
;
    }
    frontAndBack
    {
        type            empty;
    }
}


// ************************************************************************* //
