/*--------------------------------*- C++ -*----------------------------------*\
| =========                 |                                                 |
| \\      /  F ield         | OpenFOAM: The Open Source CFD Toolbox           |
|  \\    /   O peration     | Version:  2506                                  |
|   \\  /    A nd           | Website:  www.openfoam.com                      |
|    \\/     M anipulation  |                                                 |
\*---------------------------------------------------------------------------*/
FoamFile
{
    version     2.0;
    format      ascii;
    arch        "LSB;label=32;scalar=64";
    class       volScalarField;
    location    "8.25";
    object      enstrophyField;
}
// * * * * * * * * * * * * * * * * * * * * * * * * * * * * * * * * * * * * * //

dimensions      [0 0 -2 0 0 0 0];

internalField   nonuniform List<scalar> 
400
(
2.60084e-23
3.85328e-23
1.82207e-24
1.13604e-25
1.7326e-27
2.86271e-28
3.81304e-29
1.87943e-29
2.21763e-28
1.74822e-29
4.09214e-29
1.48324e-28
5.81128e-30
1.03901e-27
4.3016e-29
1.94353e-27
2.4595e-27
3.53419e-27
5.94892e-29
1.19666e-29
1.09349e-25
5.55815e-26
1.04492e-26
1.64889e-26
3.05855e-27
2.13027e-27
3.2843e-27
3.07542e-27
7.50713e-28
2.42646e-27
6.63345e-27
4.69364e-27
4.85458e-27
6.42864e-28
1.12413e-27
4.5553e-30
3.49312e-29
1.25068e-27
1.12073e-29
1.55477e-28
5.09432e-24
1.59529e-23
8.73535e-25
2.25596e-26
4.76343e-27
5.60969e-29
3.00093e-29
3.63443e-27
2.43955e-29
4.71892e-28
1.18724e-27
8.42951e-28
2.31577e-27
3.57197e-28
8.62969e-28
3.94163e-27
3.53862e-27
5.62605e-27
9.14375e-29
3.49994e-28
3.98865e-24
1.01164e-23
3.90847e-25
4.74174e-26
1.76999e-27
6.94629e-27
9.13858e-27
1.58628e-27
6.23329e-27
7.54107e-27
8.0221e-27
3.1082e-27
2.60775e-27
8.53427e-29
1.69446e-28
5.38737e-28
1.02681e-27
1.77625e-28
7.2499e-30
2.77101e-28
2.33346e-24
1.10061e-24
7.42166e-26
6.64582e-28
5.23334e-28
3.70789e-30
1.3033e-29
2.50198e-29
4.48068e-29
2.86492e-30
2.23678e-28
7.23006e-28
2.39554e-29
2.50368e-30
3.2945e-29
3.68456e-29
4.06361e-28
6.41393e-28
4.70548e-28
1.79497e-28
9.34603e-25
2.5315e-24
1.15866e-25
8.03439e-27
1.85115e-30
1.36699e-31
4.83947e-29
2.10294e-29
6.96077e-30
2.67691e-27
9.66543e-28
1.21242e-28
3.82506e-27
1.22327e-27
1.43206e-27
9.64013e-29
6.79583e-28
1.07058e-30
3.72982e-29
3.30924e-28
5.89426e-24
1.18143e-23
6.83347e-25
1.16902e-26
1.94014e-26
5.27016e-29
5.23326e-27
6.57803e-27
6.48516e-27
1.39724e-27
3.4761e-27
2.4214e-28
1.28717e-28
2.16875e-29
2.86439e-28
4.74335e-27
4.14279e-27
4.58466e-28
1.91394e-27
1.31187e-28
1.82584e-24
3.83909e-24
1.73863e-25
1.11993e-26
3.47169e-28
3.7204e-27
2.14042e-28
1.13478e-26
7.94757e-28
1.61356e-28
1.0855e-27
8.39116e-28
1.59715e-29
2.04216e-27
7.735e-28
3.82636e-27
8.25426e-28
3.60494e-29
1.83691e-29
1.4833e-30
1.18496e-24
4.97948e-24
2.59317e-25
2.99595e-27
7.62626e-27
6.31381e-28
9.82487e-28
2.43251e-27
2.11595e-31
2.12511e-29
1.70557e-27
1.99425e-29
6.9148e-32
2.42511e-27
1.98985e-27
4.62934e-30
2.28723e-27
8.68869e-28
1.06848e-29
6.99766e-28
1.24491e-23
1.39936e-23
7.62478e-25
4.71027e-26
2.08789e-27
7.94786e-27
6.96117e-27
2.43518e-26
8.18972e-27
3.91891e-27
5.13418e-28
1.66918e-27
1.52349e-27
2.17161e-28
2.91224e-27
1.65702e-27
1.52746e-29
1.92562e-30
2.41429e-28
4.42621e-28
1.33954e-23
7.04517e-24
4.26388e-25
1.60204e-26
6.15385e-27
1.04675e-29
1.88745e-28
2.83155e-27
2.49831e-27
5.2311e-27
4.36778e-27
3.77498e-27
1.91462e-28
7.61515e-28
2.85334e-27
7.24648e-27
7.43835e-27
1.15421e-28
1.09815e-27
2.89292e-28
4.43019e-24
2.70165e-24
1.60698e-25
6.26439e-31
6.04286e-27
1.71232e-27
4.97627e-27
1.02654e-26
2.08304e-27
2.35269e-27
5.33865e-27
1.08652e-27
4.84415e-28
2.18781e-27
5.32122e-28
1.43981e-27
4.57182e-28
3.26683e-27
5.68644e-29
4.83942e-31
4.84845e-25
6.77932e-25
2.90235e-26
4.56462e-27
3.61516e-27
2.86312e-27
2.03092e-27
1.07889e-27
8.39564e-28
7.02976e-28
2.88877e-27
7.58322e-27
1.09152e-26
3.60412e-27
3.80983e-27
4.55833e-27
4.2844e-27
2.4656e-28
4.74172e-28
1.85826e-28
2.89566e-24
1.78022e-24
1.40822e-25
1.91952e-29
2.06452e-27
2.34297e-28
2.72819e-29
2.23641e-29
7.4872e-29
2.11089e-27
4.80329e-27
3.45401e-27
4.48566e-28
5.61687e-28
5.64518e-28
2.85859e-28
2.03877e-29
1.6833e-27
1.91705e-30
1.51629e-28
2.0995e-23
1.82519e-23
9.58346e-25
3.48579e-26
7.59166e-27
4.70179e-28
5.51803e-28
3.86485e-28
4.51359e-28
1.52746e-27
1.27572e-27
1.14826e-27
1.06459e-29
1.5402e-27
1.69866e-27
1.77247e-27
1.90621e-27
3.34236e-30
7.7109e-29
5.94575e-28
1.62856e-23
2.0423e-23
9.7221e-25
7.80814e-26
1.18429e-27
1.98723e-28
2.94529e-28
3.87649e-27
5.12178e-27
1.76472e-27
1.19306e-27
1.28152e-27
1.41605e-27
1.52271e-29
1.01888e-29
2.01628e-29
2.51543e-29
2.01716e-31
1.70186e-27
4.00437e-29
4.24045e-25
1.50227e-24
3.45793e-26
1.28405e-26
1.36769e-27
3.69322e-27
5.88276e-27
1.59901e-27
4.06353e-27
3.11953e-27
1.03647e-27
1.50124e-27
4.16568e-28
2.02692e-27
7.47277e-28
3.57639e-28
1.6156e-28
1.62911e-28
1.50137e-27
8.87483e-29
5.60251e-24
1.11264e-23
5.39721e-25
2.93148e-26
2.13113e-27
2.26313e-28
1.66852e-27
2.83307e-27
2.55701e-27
4.32514e-27
2.04233e-27
1.44049e-27
6.52913e-29
7.96462e-28
9.10946e-29
3.12523e-28
7.0265e-28
3.76667e-27
1.57066e-27
2.01398e-30
6.37576e-24
9.32677e-24
5.32022e-25
1.53467e-26
5.74401e-27
3.96089e-28
2.34396e-28
2.15842e-28
1.02071e-28
1.19794e-29
3.37275e-29
5.44493e-30
4.0382e-28
7.42157e-28
1.71142e-28
1.95823e-30
2.80414e-29
2.02361e-29
1.38562e-27
3.67244e-28
6.2688e-25
1.88166e-24
2.73141e-26
6.71293e-27
7.07092e-28
2.65286e-28
2.37455e-28
5.94035e-30
6.43869e-28
5.07092e-31
2.29726e-29
4.44311e-30
2.27954e-27
5.45348e-28
2.78159e-29
2.65664e-31
5.43183e-29
1.35473e-27
2.85395e-29
4.65599e-28
)
;

boundaryField
{
    movingWall
    {
        type            calculated;
        value           nonuniform List<scalar> 
20
(
1.45953e-24
3.17405e-24
2.16453e-26
7.9851e-26
5.73476e-26
3.44223e-26
3.40973e-26
9.33984e-27
2.664e-26
1.55988e-26
1.45961e-26
2.53183e-26
1.07366e-26
1.26653e-27
2.78159e-29
2.65664e-31
5.43183e-29
3.75499e-27
6.79104e-28
1.14335e-27
)
;
    }
    fixedWalls
    {
        type            calculated;
        value           nonuniform List<scalar> 
60
(
6.90987e-22
5.38336e-26
2.99382e-22
1.74248e-22
2.43844e-23
4.60915e-23
2.24122e-22
6.47701e-23
8.72767e-23
2.59184e-22
1.34352e-22
5.03747e-23
1.31244e-23
3.37447e-23
3.39933e-22
3.70925e-22
2.12383e-23
2.04755e-22
1.67078e-22
3.21422e-23
1.07875e-30
2.05996e-28
1.46312e-28
2.99869e-28
6.37243e-29
4.93842e-29
4.79001e-30
2.92342e-30
6.64424e-28
2.86306e-28
4.15234e-28
4.81089e-29
1.23872e-27
4.8252e-28
3.47932e-28
1.64377e-28
5.19929e-28
3.1521e-32
3.4219e-28
9.19173e-28
3.43636e-23
4.83834e-23
1.12422e-24
2.25525e-25
4.2012e-27
1.23488e-26
7.74938e-27
9.71029e-27
2.21763e-28
1.74822e-29
1.27325e-26
1.2866e-26
9.33469e-27
1.97752e-27
4.3016e-29
6.57855e-28
4.05653e-28
3.80455e-30
1.52997e-27
3.52176e-27
)
;
    }
    frontAndBack
    {
        type            empty;
    }
}


// ************************************************************************* //
