/*--------------------------------*- C++ -*----------------------------------*\
| =========                 |                                                 |
| \\      /  F ield         | OpenFOAM: The Open Source CFD Toolbox           |
|  \\    /   O peration     | Version:  2506                                  |
|   \\  /    A nd           | Website:  www.openfoam.com                      |
|    \\/     M anipulation  |                                                 |
\*---------------------------------------------------------------------------*/
FoamFile
{
    version     2.0;
    format      ascii;
    arch        "LSB;label=32;scalar=64";
    class       volScalarField;
    location    "8.25";
    object      epsilonzeroGrad;
}
// * * * * * * * * * * * * * * * * * * * * * * * * * * * * * * * * * * * * * //

dimensions      [0 2 -3 0 0 0 0];

internalField   nonuniform List<scalar> 
400
(
1.19172e-06
1.19172e-06
1.19172e-06
1.19172e-06
1.19172e-06
1.19172e-06
1.19172e-06
1.19172e-06
1.19172e-06
1.19172e-06
1.19172e-06
1.19172e-06
1.19172e-06
1.19172e-06
1.19172e-06
1.19172e-06
1.19172e-06
1.19172e-06
1.19172e-06
1.19172e-06
1.22656e-06
1.2122e-06
1.21342e-06
1.21392e-06
1.21493e-06
1.21544e-06
1.21645e-06
1.21699e-06
1.218e-06
1.21854e-06
1.21956e-06
1.22011e-06
1.22113e-06
1.2217e-06
1.22272e-06
1.22331e-06
1.22432e-06
1.22493e-06
1.22544e-06
1.22625e-06
1.28194e-06
1.26645e-06
1.26779e-06
1.26834e-06
1.26944e-06
1.27e-06
1.2711e-06
1.27167e-06
1.27277e-06
1.27336e-06
1.27446e-06
1.27505e-06
1.27615e-06
1.27675e-06
1.27785e-06
1.27847e-06
1.27956e-06
1.28019e-06
1.28074e-06
1.2816e-06
1.34049e-06
1.32405e-06
1.32547e-06
1.32605e-06
1.32722e-06
1.32782e-06
1.32899e-06
1.32959e-06
1.33076e-06
1.33138e-06
1.33255e-06
1.33317e-06
1.33434e-06
1.33498e-06
1.33615e-06
1.3368e-06
1.33796e-06
1.33863e-06
1.33921e-06
1.34013e-06
1.39e-06
1.37273e-06
1.37422e-06
1.37483e-06
1.37606e-06
1.37668e-06
1.37791e-06
1.37854e-06
1.37977e-06
1.38042e-06
1.38164e-06
1.3823e-06
1.38353e-06
1.3842e-06
1.38542e-06
1.38611e-06
1.38733e-06
1.38803e-06
1.38864e-06
1.38961e-06
1.4262e-06
1.40832e-06
1.40986e-06
1.41049e-06
1.41176e-06
1.41241e-06
1.41368e-06
1.41434e-06
1.41561e-06
1.41628e-06
1.41755e-06
1.41823e-06
1.4195e-06
1.42019e-06
1.42146e-06
1.42217e-06
1.42343e-06
1.42416e-06
1.42479e-06
1.42579e-06
1.45034e-06
1.43205e-06
1.43362e-06
1.43427e-06
1.43557e-06
1.43623e-06
1.43753e-06
1.4382e-06
1.4395e-06
1.44019e-06
1.44149e-06
1.44219e-06
1.44348e-06
1.4442e-06
1.44549e-06
1.44622e-06
1.44751e-06
1.44825e-06
1.4489e-06
1.44992e-06
1.46575e-06
1.44719e-06
1.44879e-06
1.44945e-06
1.45077e-06
1.45144e-06
1.45276e-06
1.45344e-06
1.45476e-06
1.45545e-06
1.45677e-06
1.45748e-06
1.45879e-06
1.45952e-06
1.46083e-06
1.46157e-06
1.46288e-06
1.46363e-06
1.46429e-06
1.46532e-06
1.47571e-06
1.45698e-06
1.45859e-06
1.45926e-06
1.46059e-06
1.46126e-06
1.46259e-06
1.46328e-06
1.46461e-06
1.46531e-06
1.46664e-06
1.46736e-06
1.46869e-06
1.46942e-06
1.47074e-06
1.47149e-06
1.47281e-06
1.47357e-06
1.47423e-06
1.47528e-06
1.48264e-06
1.4638e-06
1.46542e-06
1.46609e-06
1.46742e-06
1.46811e-06
1.46944e-06
1.47014e-06
1.47148e-06
1.47218e-06
1.47352e-06
1.47424e-06
1.47558e-06
1.47631e-06
1.47764e-06
1.4784e-06
1.47973e-06
1.48049e-06
1.48116e-06
1.48221e-06
1.48812e-06
1.46918e-06
1.47081e-06
1.47148e-06
1.47283e-06
1.47351e-06
1.47485e-06
1.47555e-06
1.4769e-06
1.47761e-06
1.47895e-06
1.47967e-06
1.48102e-06
1.48176e-06
1.48309e-06
1.48385e-06
1.48519e-06
1.48596e-06
1.48663e-06
1.48768e-06
1.49307e-06
1.47404e-06
1.47568e-06
1.47636e-06
1.47771e-06
1.47839e-06
1.47974e-06
1.48045e-06
1.4818e-06
1.48251e-06
1.48386e-06
1.48459e-06
1.48593e-06
1.48668e-06
1.48802e-06
1.48878e-06
1.49012e-06
1.4909e-06
1.49157e-06
1.49263e-06
1.49803e-06
1.47892e-06
1.48057e-06
1.48124e-06
1.4826e-06
1.48329e-06
1.48465e-06
1.48535e-06
1.48671e-06
1.48742e-06
1.48878e-06
1.48951e-06
1.49086e-06
1.49161e-06
1.49296e-06
1.49372e-06
1.49507e-06
1.49585e-06
1.49652e-06
1.49759e-06
1.50331e-06
1.48411e-06
1.48576e-06
1.48644e-06
1.4878e-06
1.4885e-06
1.48986e-06
1.49057e-06
1.49193e-06
1.49265e-06
1.49401e-06
1.49475e-06
1.49611e-06
1.49686e-06
1.49821e-06
1.49898e-06
1.50033e-06
1.50111e-06
1.50179e-06
1.50286e-06
1.50903e-06
1.48973e-06
1.4914e-06
1.49208e-06
1.49345e-06
1.49415e-06
1.49551e-06
1.49623e-06
1.49759e-06
1.49832e-06
1.49969e-06
1.50043e-06
1.50179e-06
1.50255e-06
1.50391e-06
1.50468e-06
1.50604e-06
1.50683e-06
1.50751e-06
1.50858e-06
1.51515e-06
1.49575e-06
1.49742e-06
1.49811e-06
1.49949e-06
1.50019e-06
1.50156e-06
1.50228e-06
1.50365e-06
1.50438e-06
1.50576e-06
1.5065e-06
1.50787e-06
1.50863e-06
1.51e-06
1.51078e-06
1.51215e-06
1.51294e-06
1.51362e-06
1.5147e-06
1.52139e-06
1.50188e-06
1.50356e-06
1.50425e-06
1.50564e-06
1.50634e-06
1.50772e-06
1.50844e-06
1.50983e-06
1.51056e-06
1.51194e-06
1.51269e-06
1.51407e-06
1.51483e-06
1.51621e-06
1.51699e-06
1.51837e-06
1.51916e-06
1.51985e-06
1.52094e-06
1.52718e-06
1.50757e-06
1.50926e-06
1.50995e-06
1.51134e-06
1.51205e-06
1.51344e-06
1.51416e-06
1.51556e-06
1.51629e-06
1.51768e-06
1.51843e-06
1.51982e-06
1.52058e-06
1.52197e-06
1.52275e-06
1.52414e-06
1.52493e-06
1.52563e-06
1.52672e-06
1.53172e-06
1.51241e-06
1.51405e-06
1.51472e-06
1.51607e-06
1.51676e-06
1.51812e-06
1.51883e-06
1.52018e-06
1.52091e-06
1.52227e-06
1.52302e-06
1.52439e-06
1.52516e-06
1.52652e-06
1.52731e-06
1.52868e-06
1.52949e-06
1.53018e-06
1.53127e-06
1.53381e-06
1.5338e-06
1.5338e-06
1.5338e-06
1.5338e-06
1.5338e-06
1.5338e-06
1.5338e-06
1.5338e-06
1.5338e-06
1.5338e-06
1.5338e-06
1.5338e-06
1.5338e-06
1.5338e-06
1.5338e-06
1.5338e-06
1.5338e-06
1.5338e-06
1.5338e-06
)
;

boundaryField
{
    movingWall
    {
        type            zeroGradient;
    }
    fixedWalls
    {
        type            zeroGradient;
    }
    frontAndBack
    {
        type            empty;
    }
}


// ************************************************************************* //
