/*--------------------------------*- C++ -*----------------------------------*\
| =========                 |                                                 |
| \\      /  F ield         | OpenFOAM: The Open Source CFD Toolbox           |
|  \\    /   O peration     | Version:  2506                                  |
|   \\  /    A nd           | Website:  www.openfoam.com                      |
|    \\/     M anipulation  |                                                 |
\*---------------------------------------------------------------------------*/
FoamFile
{
    version     2.0;
    format      ascii;
    arch        "LSB;label=32;scalar=64";
    class       volScalarField;
    location    "8.25";
    object      flowTypeField;
}
// * * * * * * * * * * * * * * * * * * * * * * * * * * * * * * * * * * * * * //

dimensions      [0 0 0 0 0 0 0];

internalField   nonuniform List<scalar> 
400
(
0.35906
0.0321344
0.0125574
-0.0431633
0.445599
0.0504676
0.332723
0.569937
0.573366
0.851601
0.734749
0.0359603
0.837132
0.27981
0.202311
-0.0185445
-0.243634
0.0259584
0.150363
0.274017
0.959375
0.87001
0.784136
0.303797
0.119238
0.198005
0.00386507
0.0414716
0.340699
0.160571
-0.0289057
-0.144549
0.166253
-0.289841
0.467911
0.912367
4.12866e-05
0.265327
0.914716
0.0225529
0.516627
0.115748
0.0129815
0.370865
-0.0450433
0.180879
0.804145
-0.0434853
0.0417116
0.441764
-0.674797
0.333689
0.17861
0.333959
0.423313
-0.0881612
-0.290528
-0.299505
0.607328
0.0132327
0.518746
0.105091
0.185286
-0.0815889
0.448516
-0.0840425
0.0238242
0.0705551
0.00140047
-0.131642
-0.124157
0.0430126
-0.2943
0.0952565
0.186428
-0.104587
-0.0681408
0.383172
0.708039
0.345065
0.663697
0.363045
0.269869
0.694079
-0.151784
0.607041
0.0901542
0.00805456
0.0164632
0.509557
0.440129
0.677736
0.828963
0.95074
0.685806
0.716862
0.478025
-0.313189
-0.128441
0.301943
0.766209
0.211756
0.25673
0.107271
0.933523
0.780882
0.248595
0.204409
0.805514
-0.16611
-0.542732
0.686632
-0.534505
-0.802521
0.125051
0.188958
0.0699135
0.0113244
0.214671
0.521687
0.219019
0.078047
-0.0434377
0.416002
-0.402545
0.687836
0.0562588
-0.0224157
0.0049007
0.148368
-0.0239032
0.310901
0.0544499
0.743863
0.545166
-0.193398
0.0779344
-0.113157
-0.135882
0.396034
0.746994
0.190934
0.184904
0.154055
0.522068
0.112423
0.258206
-0.0220883
0.0610521
0.419871
0.279551
0.537856
0.68938
-0.0310741
0.0624383
0.101754
0.429163
0.675575
0.17351
0.546203
0.783111
0.176339
0.167706
0.589014
-0.150327
-0.297315
0.276178
-0.282665
0.98339
0.790621
0.390543
0.743621
0.959305
-0.0897011
-0.151944
0.774255
-0.181341
-0.015921
0.764072
-0.370478
-0.108677
0.00773298
-0.113644
-0.0862977
0.402366
-0.121394
-0.0517631
-0.0529084
-0.102237
-0.0861134
-0.177478
0.0481289
-0.0179884
0.0154579
-0.206048
0.228067
0.392678
0.95703
0.580429
-0.0922915
-0.0391531
-0.0959467
-0.277601
0.049438
-0.227266
0.622103
0.462184
0.125843
-0.0296765
-0.153814
-0.0464763
0.00437872
0.367828
0.462436
0.0759478
0.0120192
-0.0856837
0.570897
-0.0750377
0.334888
0.0850239
0.0741645
-0.0345254
0.982561
-0.0754248
-0.07544
-0.221356
-0.0354582
0.207863
0.155145
0.0739454
0.146245
0.23135
-0.0497296
-0.177827
0.0358772
0.49683
0.209812
0.746248
0.836055
0.721326
0.393691
0.393442
0.483425
0.137631
-0.382299
-0.172602
0.366742
0.24182
0.31936
0.0647362
-0.134853
-0.0889817
-0.0414683
-0.00360015
0.0462046
-0.127938
0.364886
0.256548
0.0341441
0.630394
0.236203
0.0767933
0.950491
0.173744
0.000532275
0.0114547
0.063655
0.530862
-0.0312401
0.0404518
0.0439236
-0.089456
-0.227285
-0.232791
0.178269
0.619432
0.388984
0.872382
0.438622
0.0874053
-0.0143811
-0.15687
0.0355357
-0.0300625
0.447742
0.405423
-0.00230861
0.234355
0.287382
0.0751939
0.116873
0.762121
0.0805193
-0.0739923
-0.0749596
-0.136267
0.84553
0.520966
-0.253528
0.166412
0.0089369
-0.0496653
-0.240215
0.119423
0.00356221
0.348374
-0.0198754
-0.219956
-0.026134
0.118461
0.0729334
0.119852
0.730272
0.791114
0.451948
0.336187
0.966024
-0.0741971
0.229344
0.897528
0.369414
0.566022
0.0917475
0.38447
-0.0170074
0.119565
0.263723
-0.107652
0.0445812
0.193348
0.131311
0.0474512
-0.159838
0.039795
0.505336
0.332628
0.641917
-0.00964403
0.04829
0.5098
0.0937792
-0.00900346
0.0629993
-0.180736
0.05785
0.0619072
-0.381529
-0.272914
-0.0460723
-0.0386154
0.0122617
0.555682
0.323426
0.0922436
0.528746
-0.289466
-0.0640634
0.0758624
0.874839
0.516554
0.0676978
-0.0577247
0.168092
-0.805708
0.0102303
0.233133
0.000103288
0.11768
0.431746
0.555409
0.860037
0.490447
-0.410155
0.312399
0.527949
0.810208
0.20744
0.283559
0.00991497
0.79636
0.197488
0.486574
-0.0696854
0.395008
0.417824
0.613259
0.752107
-0.281243
0.489748
0.412368
0.659728
-0.0879312
0.40808
0.358111
0.884785
0.752613
0.290188
0.65613
0.193005
)
;

boundaryField
{
    movingWall
    {
        type            calculated;
        value           nonuniform List<scalar> 
20
(
0.758453
0.0326478
0.68132
-0.270648
0.0544991
0.0293645
0.0570211
0.0594064
-0.0216658
0.0141456
0.0659818
0.0119322
-0.043303
0.258218
0.3234
0.929392
0.751982
0.163098
0.270029
0.114719
)
;
    }
    fixedWalls
    {
        type            calculated;
        value           nonuniform List<scalar> 
60
(
0.0347533
0.971472
0.0915677
0.119569
0.329986
0.228044
0.0478112
0.220215
0.198978
-0.00912014
-0.12778
0.0547618
0.398081
0.268153
-0.038688
0.00110236
0.479645
0.0804148
0.0826989
0.251043
0.966195
0.0172982
0.0301237
0.471693
0.7307
0.853696
0.877448
0.460762
0.279373
0.116094
-0.0537852
0.728066
0.0055566
0.393574
0.0325872
0.0833117
0.00922731
0.970714
0.0431019
0.195747
0.730523
0.157486
0.401982
-0.11745
0.56082
-0.177074
0.0872645
0.00164029
0.575073
0.874369
0.114296
0.107404
0.0582572
0.141594
0.545111
0.32462
0.364514
0.907721
-0.103527
0.0547673
)
;
    }
    frontAndBack
    {
        type            empty;
    }
}


// ************************************************************************* //
