/*--------------------------------*- C++ -*----------------------------------*\
| =========                 |                                                 |
| \\      /  F ield         | OpenFOAM: The Open Source CFD Toolbox           |
|  \\    /   O peration     | Version:  2506                                  |
|   \\  /    A nd           | Website:  www.openfoam.com                      |
|    \\/     M anipulation  |                                                 |
\*---------------------------------------------------------------------------*/
FoamFile
{
    version     2.0;
    format      ascii;
    arch        "LSB;label=32;scalar=64";
    class       surfaceScalarField;
    location    "8.25";
    object      fluxField;
}
// * * * * * * * * * * * * * * * * * * * * * * * * * * * * * * * * * * * * * //

dimensions      [0 3 -1 0 0 0 0];

oriented        oriented;

internalField   nonuniform List<scalar> 
760
(
-5e-05
2.34697e-18
-5e-05
-4.84632e-19
-5e-05
1.27228e-19
-5e-05
-1.86846e-20
-5e-05
1.28046e-20
-5e-05
2.03237e-21
-5e-05
2.81204e-21
-5e-05
4.1485e-21
-5e-05
5.57331e-22
-5e-05
-4.98198e-21
-5e-05
-3.83402e-21
-5e-05
1.22307e-21
-5e-05
4.36507e-21
-5e-05
4.67575e-21
-5e-05
1.93303e-21
-5e-05
6.58353e-22
-5e-05
3.21249e-21
-5e-05
2.55013e-21
-5e-05
-1.82503e-21
-1.3604e-21
-5e-05
-1.64473e-18
-5e-05
3.50353e-19
-5e-05
-7.47063e-20
-5e-05
2.21707e-20
-5e-05
3.46761e-21
-5e-05
3.76973e-21
-5e-05
2.10506e-21
-5e-05
1.76588e-21
-5e-05
3.97488e-22
-5e-05
-3.53318e-22
-5e-05
-3.41959e-21
-5e-05
-4.06874e-21
-5e-05
-3.01506e-21
-5e-05
3.55116e-21
-5e-05
5.85498e-21
-5e-05
5.01903e-21
-5e-05
3.23226e-21
-5e-05
-4.54962e-21
-5e-05
-8.68506e-21
-2.33774e-21
-5e-05
-4.2528e-19
-5e-05
8.26707e-20
-5e-05
-2.24769e-20
-5e-05
7.14392e-21
-5e-05
1.07205e-21
-5e-05
1.74939e-21
-5e-05
1.35844e-21
-5e-05
-1.04347e-22
-5e-05
-1.56005e-22
-5e-05
8.33511e-22
-5e-05
-4.6573e-21
-5e-05
-9.13374e-21
-5e-05
-7.52821e-21
-5e-05
-1.31675e-21
-5e-05
2.41999e-21
-5e-05
6.45193e-21
-5e-05
1.98183e-21
-5e-05
-5.58006e-21
-5e-05
-6.2726e-21
-1.23261e-21
-5e-05
8.50565e-19
-5e-05
-2.03423e-19
-5e-05
3.59686e-20
-5e-05
-1.09441e-20
-5e-05
1.9762e-21
-5e-05
-2.52761e-23
-5e-05
-1.06625e-21
-5e-05
-1.21859e-21
-5e-05
1.73376e-22
-5e-05
3.39613e-22
-5e-05
-2.82549e-21
-5e-05
-5.71032e-21
-5e-05
-4.93808e-21
-5e-05
-2.9387e-21
-5e-05
-1.11249e-21
-5e-05
3.69287e-21
-5e-05
2.46357e-21
-5e-05
-1.21086e-21
-5e-05
-1.77842e-21
-1.15195e-21
-5e-05
-1.02129e-18
-5e-05
2.00408e-19
-5e-05
-5.39728e-20
-5e-05
1.0849e-20
-5e-05
3.84827e-22
-5e-05
2.27991e-21
-5e-05
-4.26689e-22
-5e-05
-1.45601e-21
-5e-05
-2.79541e-22
-5e-05
1.84339e-21
-5e-05
5.05882e-21
-5e-05
4.57028e-21
-5e-05
-5.54823e-22
-5e-05
-5.47388e-21
-5e-05
-5.58477e-21
-5e-05
-3.27138e-21
-5e-05
3.26582e-23
-5e-05
-1.18173e-21
-5e-05
-1.77926e-21
8.44427e-23
-5e-05
7.40103e-19
-5e-05
-1.55777e-19
-5e-05
3.99654e-20
-5e-05
-4.18796e-21
-5e-05
6.32443e-21
-5e-05
3.91949e-21
-5e-05
1.9841e-21
-5e-05
-6.86057e-23
-5e-05
1.9327e-21
-5e-05
2.23095e-21
-5e-05
6.33584e-21
-5e-05
6.96259e-21
-5e-05
2.17787e-21
-5e-05
-5.36231e-21
-5e-05
-8.54127e-21
-5e-05
-5.98168e-21
-5e-05
-1.04879e-21
-5e-05
-1.11373e-21
-5e-05
1.10988e-22
2.96044e-21
-5e-05
6.44076e-19
-5e-05
-1.34701e-19
-5e-05
4.0268e-20
-5e-05
-3.40969e-21
-5e-05
5.57552e-21
-5e-05
4.99011e-21
-5e-05
2.60212e-21
-5e-05
1.85784e-21
-5e-05
7.95339e-21
-5e-05
6.41552e-21
-5e-05
5.33137e-21
-5e-05
2.05944e-21
-5e-05
7.45728e-22
-5e-05
-3.36469e-21
-5e-05
-6.80869e-21
-5e-05
-7.21395e-21
-5e-05
-4.32873e-21
-5e-05
-1.3916e-21
-5e-05
1.11872e-21
2.03864e-21
-5e-05
-1.63873e-18
-5e-05
3.69561e-19
-5e-05
-6.89587e-20
-5e-05
2.85474e-20
-5e-05
1.36106e-21
-5e-05
4.25966e-21
-5e-05
4.89697e-22
-5e-05
-1.64981e-21
-5e-05
3.8614e-22
-5e-05
1.70374e-21
-5e-05
-2.69241e-22
-5e-05
-4.21724e-21
-5e-05
-5.15908e-21
-5e-05
-5.53723e-21
-5e-05
-3.72538e-21
-5e-05
-6.37524e-21
-5e-05
-6.02726e-21
-5e-05
3.75775e-22
-5e-05
2.27151e-21
7.35396e-22
-5e-05
4.85431e-19
-5e-05
-7.00754e-20
-5e-05
3.31194e-20
-5e-05
1.1173e-20
-5e-05
9.62035e-21
-5e-05
4.80022e-21
-5e-05
3.09828e-21
-5e-05
-1.8987e-21
-5e-05
-8.52502e-21
-5e-05
-6.62655e-21
-5e-05
-8.69925e-21
-5e-05
-8.91008e-21
-5e-05
-1.11702e-20
-5e-05
-9.06445e-21
-5e-05
-2.10178e-21
-5e-05
-1.31869e-21
-5e-05
-2.0231e-21
-5e-05
6.55675e-22
-5e-05
1.13157e-21
7.82755e-22
-5e-05
5.11973e-19
-5e-05
-1.04506e-19
-5e-05
3.29606e-20
-5e-05
4.57264e-22
-5e-05
7.75459e-21
-5e-05
4.00104e-21
-5e-05
4.48397e-21
-5e-05
3.52684e-21
-5e-05
-1.73905e-21
-5e-05
-5.48282e-21
-5e-05
-8.78555e-21
-5e-05
-9.75489e-21
-5e-05
-1.10715e-20
-5e-05
-8.11808e-21
-5e-05
-2.06538e-21
-5e-05
-1.14787e-21
-5e-05
-4.21762e-21
-5e-05
-5.91711e-21
-5e-05
-1.73035e-21
3.05534e-22
-5e-05
-3.27716e-19
-5e-05
5.5708e-20
-5e-05
-1.7847e-20
-5e-05
4.53988e-22
-5e-05
-4.81981e-22
-5e-05
2.02745e-22
-5e-05
1.73945e-21
-5e-05
6.73354e-21
-5e-05
5.19499e-21
-5e-05
-1.57812e-21
-5e-05
-3.2273e-21
-5e-05
-5.88768e-21
-5e-05
-6.51969e-21
-5e-05
-2.99828e-21
-5e-05
2.60911e-22
-5e-05
-1.75698e-22
-5e-05
-2.86772e-21
-5e-05
-2.77981e-21
-5e-05
-1.08547e-23
-5.06018e-22
-5e-05
2.22424e-19
-5e-05
-6.32598e-20
-5e-05
1.65767e-22
-5e-05
-8.86779e-21
-5e-05
-3.33235e-21
-5e-05
-7.83785e-22
-5e-05
3.11065e-21
-5e-05
6.20864e-21
-5e-05
3.11126e-21
-5e-05
-1.29207e-21
-5e-05
-4.24712e-21
-5e-05
-3.89061e-21
-5e-05
-2.46271e-21
-5e-05
1.71148e-22
-5e-05
1.41841e-21
-5e-05
3.04445e-21
-5e-05
4.82293e-21
-5e-05
6.64095e-21
-5e-05
-8.49672e-22
-3.72394e-21
-5e-05
-7.76062e-19
-5e-05
1.58643e-19
-5e-05
-4.7111e-20
-5e-05
-3.82986e-22
-5e-05
-8.12272e-21
-5e-05
-1.96583e-21
-5e-05
2.65449e-21
-5e-05
2.26147e-21
-5e-05
2.38692e-21
-5e-05
2.01248e-21
-5e-05
-4.4829e-21
-5e-05
-3.48826e-21
-5e-05
-1.24977e-21
-5e-05
-1.14353e-21
-5e-05
-1.95616e-21
-5e-05
-1.27367e-21
-5e-05
2.38396e-21
-5e-05
3.13588e-21
-5e-05
-4.12069e-21
-5.05244e-21
-5e-05
1.07892e-18
-5e-05
-2.09635e-19
-5e-05
4.01881e-20
-5e-05
-1.65271e-20
-5e-05
-3.94346e-21
-5e-05
-1.7863e-21
-5e-05
2.35835e-21
-5e-05
1.58926e-21
-5e-05
4.20465e-21
-5e-05
5.38356e-21
-5e-05
1.77868e-21
-5e-05
2.84483e-22
-5e-05
-2.43205e-22
-5e-05
-1.58087e-21
-5e-05
-2.16895e-21
-5e-05
-4.224e-21
-5e-05
-2.70267e-21
-5e-05
-4.5113e-21
-5e-05
-4.30212e-21
-1.8962e-21
-5e-05
-1.50596e-19
-5e-05
3.21031e-20
-5e-05
-1.58511e-20
-5e-05
-4.27275e-21
-5e-05
-3.3957e-21
-5e-05
8.12844e-22
-5e-05
2.47836e-21
-5e-05
3.05036e-21
-5e-05
9.68731e-22
-5e-05
-1.18842e-21
-5e-05
-6.5673e-23
-5e-05
-7.72433e-22
-5e-05
-7.41808e-22
-5e-05
-1.67784e-21
-5e-05
-2.44426e-21
-5e-05
-1.56841e-21
-5e-05
-2.18902e-21
-5e-05
-5.22531e-21
-5e-05
-2.99418e-21
-1.08786e-21
-5e-05
-1.24754e-18
-5e-05
2.40724e-19
-5e-05
-6.27769e-20
-5e-05
5.29667e-21
-5e-05
-4.04664e-21
-5e-05
3.83209e-22
-5e-05
-2.19923e-22
-5e-05
1.07966e-21
-5e-05
-2.48912e-21
-5e-05
-6.10293e-21
-5e-05
-3.20699e-21
-5e-05
-2.59223e-21
-5e-05
-2.45728e-21
-5e-05
-2.78382e-21
-5e-05
-6.20182e-21
-5e-05
-4.54388e-21
-5e-05
-4.52417e-21
-5e-05
-4.03471e-21
-5e-05
-2.41934e-21
-3.14865e-21
-5e-05
1.75343e-18
-5e-05
-3.61088e-19
-5e-05
7.97796e-20
-5e-05
-2.20501e-20
-5e-05
-4.88726e-22
-5e-05
-5.25132e-21
-5e-05
-6.96477e-21
-5e-05
-4.37425e-21
-5e-05
-2.28409e-21
-5e-05
-2.25745e-21
-5e-05
1.2207e-21
-5e-05
2.33799e-21
-5e-05
9.4067e-22
-5e-05
-9.58593e-22
-5e-05
-4.99891e-21
-5e-05
-7.22163e-21
-5e-05
-5.43486e-21
-5e-05
-2.34368e-21
-5e-05
-1.80132e-21
-2.03112e-21
-5e-05
1.73099e-19
-5e-05
-2.56954e-20
-5e-05
5.76019e-21
-5e-05
-3.5073e-21
-5e-05
-4.19857e-21
-5e-05
-7.20509e-21
-5e-05
-9.77747e-21
-5e-05
-4.95247e-21
-5e-05
6.82707e-22
-5e-05
2.94504e-21
-5e-05
2.38195e-21
-5e-05
3.31708e-21
-5e-05
3.0731e-21
-5e-05
1.31766e-22
-5e-05
-3.357e-21
-5e-05
-5.3937e-21
-5e-05
-3.38828e-21
-5e-05
-9.25923e-22
-5e-05
-4.2793e-22
-7.47166e-23
-5e-05
-1.69104e-18
-5e-05
3.28643e-19
-5e-05
-7.88796e-20
-5e-05
1.23305e-20
-5e-05
-6.11327e-21
-5e-05
-5.0636e-21
-5e-05
-7.39114e-21
-5e-05
-5.02839e-21
-5e-05
-1.33518e-21
-5e-05
7.38571e-22
-5e-05
-2.81064e-21
-5e-05
-3.00927e-21
-5e-05
-1.2404e-21
-5e-05
-1.00432e-23
-5e-05
-2.61568e-21
-5e-05
-4.02575e-21
-5e-05
-1.93869e-21
-5e-05
4.52187e-22
-5e-05
1.9118e-22
-1.0447e-21
-5e-05
-5e-05
-5e-05
-5e-05
-5e-05
-5e-05
-5e-05
-5e-05
-5e-05
-5e-05
-5e-05
-5e-05
-5e-05
-5e-05
-5e-05
-5e-05
-5e-05
-5e-05
-5e-05
)
;

boundaryField
{
    movingWall
    {
        type            calculated;
        value           uniform -0;
    }
    fixedWalls
    {
        type            calculated;
        value           nonuniform List<scalar> 
60
(
5e-05
5e-05
5e-05
5e-05
5e-05
5e-05
5e-05
5e-05
5e-05
5e-05
5e-05
5e-05
5e-05
5e-05
5e-05
5e-05
5e-05
5e-05
5e-05
5e-05
-5e-05
-5e-05
-5e-05
-5e-05
-5e-05
-5e-05
-5e-05
-5e-05
-5e-05
-5e-05
-5e-05
-5e-05
-5e-05
-5e-05
-5e-05
-5e-05
-5e-05
-5e-05
-5e-05
-5e-05
0
0
0
0
0
0
0
0
0
0
0
0
0
0
0
0
0
0
0
0
)
;
    }
    frontAndBack
    {
        type            empty;
    }
}


// ************************************************************************* //
