/*--------------------------------*- C++ -*----------------------------------*\
| =========                 |                                                 |
| \\      /  F ield         | OpenFOAM: The Open Source CFD Toolbox           |
|  \\    /   O peration     | Version:  2506                                  |
|   \\  /    A nd           | Website:  www.openfoam.com                      |
|    \\/     M anipulation  |                                                 |
\*---------------------------------------------------------------------------*/
FoamFile
{
    version     2.0;
    format      ascii;
    arch        "LSB;label=32;scalar=64";
    class       volVectorField;
    location    "8.25";
    object      gradPhi;
}
// * * * * * * * * * * * * * * * * * * * * * * * * * * * * * * * * * * * * * //

dimensions      [0 2 -1 0 0 0 0];

internalField   nonuniform List<vector> 
400
(
(-0.02 2.61619e-17 0)
(6.94832e-17 -6.86391e-17 0)
(-2.64698e-17 2.54265e-17 0)
(1.65436e-18 -1.65314e-18 0)
(-1.65436e-18 2.44702e-18 0)
(-1.65436e-18 4.4391e-19 0)
(0 1.63631e-19 0)
(-1.65436e-18 9.54311e-19 0)
(0 8.45652e-19 0)
(1.65436e-18 -1.24608e-18 0)
(1.65436e-18 -1.28707e-18 0)
(0 -1.02941e-19 0)
(-1.65436e-18 1.57438e-18 0)
(-1.65436e-18 1.27555e-18 0)
(0 -1.19096e-19 0)
(0 -3.09957e-19 0)
(0 1.54389e-19 0)
(0 8.36052e-19 0)
(0 1.80294e-19 0)
(0 2.32999e-19 0)
(-0.02 -6.59223e-17 0)
(-1.07533e-16 1.08021e-16 0)
(3.97047e-17 -3.9659e-17 0)
(-3.30872e-18 3.28882e-18 0)
(1.65436e-18 -1.42703e-18 0)
(0 3.31174e-19 0)
(0 6.10202e-19 0)
(1.65436e-18 -7.65757e-19 0)
(0 -1.40224e-18 0)
(0 9.04702e-19 0)
(-1.65436e-18 9.11075e-19 0)
(0 3.80695e-20 0)
(1.65436e-18 -2.67229e-18 0)
(0 -6.34008e-19 0)
(0 2.379e-18 0)
(-3.30872e-18 1.61278e-18 0)
(-1.65436e-18 9.28433e-19 0)
(3.30872e-18 -2.01406e-18 0)
(3.30872e-18 -2.78331e-18 0)
(0 -1.34329e-18 0)
(-0.02 7.06696e-18 0)
(9.92617e-18 -8.34437e-18 0)
(-8.27181e-18 8.39769e-18 0)
(-1.65436e-18 1.51541e-18 0)
(1.65436e-18 -1.09677e-18 0)
(1.65436e-18 -6.86466e-19 0)
(1.65436e-18 -5.9703e-19 0)
(-1.65436e-18 -6.94146e-20 0)
(0 4.56593e-19 0)
(0 9.36145e-19 0)
(-1.65436e-18 -3.76479e-19 0)
(3.30872e-18 -2.01813e-18 0)
(0 -2.16556e-19 0)
(1.65436e-18 -1.05862e-18 0)
(0 -2.28948e-18 0)
(1.65436e-18 -9.92174e-20 0)
(1.65436e-18 -1.13992e-18 0)
(0 1.20508e-19 0)
(-1.65436e-18 1.79912e-18 0)
(0 9.36454e-19 0)
(-0.02 6.42096e-17 0)
(6.94832e-17 -7.05971e-17 0)
(-1.32349e-17 1.39204e-17 0)
(6.61744e-18 -5.46833e-18 0)
(-1.65436e-18 5.00274e-19 0)
(0 8.25008e-20 0)
(1.65436e-18 -5.58039e-19 0)
(0 -6.54671e-19 0)
(0 4.15086e-19 0)
(0 -1.32118e-19 0)
(0 -8.92067e-20 0)
(1.65436e-18 -2.12191e-19 0)
(0 -2.41737e-19 0)
(0 2.05637e-19 0)
(0 -4.20819e-19 0)
(0 -1.16995e-19 0)
(-1.65436e-18 1.40608e-18 0)
(0 9.80164e-19 0)
(0 7.09749e-19 0)
(-1.65436e-18 2.35081e-19 0)
(-0.02 -5.76305e-17 0)
(-7.11375e-17 7.17438e-17 0)
(1.98523e-17 -1.93642e-17 0)
(-3.30872e-18 3.74163e-18 0)
(0 -5.26178e-19 0)
(0 2.09356e-19 0)
(0 3.46346e-19 0)
(0 4.89742e-19 0)
(0 -3.81565e-19 0)
(1.65436e-18 -8.35831e-19 0)
(-3.30872e-18 1.99713e-18 0)
(-4.96308e-18 4.99006e-18 0)
(-1.65436e-18 2.21323e-18 0)
(1.65436e-18 -1.29391e-18 0)
(1.65436e-18 -4.09831e-19 0)
(0 -1.97817e-18 0)
(1.65436e-18 -1.77891e-18 0)
(0 1.41392e-20 0)
(0 -4.91985e-19 0)
(0 -8.33582e-19 0)
(-0.02 4.16069e-17 0)
(6.28657e-17 -6.24216e-17 0)
(-1.8198e-17 2.0117e-17 0)
(1.65436e-18 -1.83177e-18 0)
(-1.65436e-18 1.92523e-18 0)
(0 3.77753e-19 0)
(0 6.46744e-19 0)
(0 4.88315e-19 0)
(-1.65436e-18 5.74167e-19 0)
(-1.65436e-18 1.00657e-18 0)
(0 -2.01425e-19 0)
(3.30872e-18 -2.37665e-18 0)
(0 -5.34302e-19 0)
(-1.65436e-18 4.33531e-19 0)
(1.65436e-18 -1.00682e-18 0)
(1.65436e-18 -2.31649e-19 0)
(-1.65436e-18 2.93618e-19 0)
(0 -4.53427e-19 0)
(-1.65436e-18 5.23165e-19 0)
(-1.65436e-18 2.33138e-18 0)
(-0.02 -1.96246e-17 0)
(-1.8198e-17 1.85704e-17 0)
(1.65436e-18 -2.05834e-18 0)
(0 4.45561e-19 0)
(0 -9.62622e-19 0)
(0 9.05358e-19 0)
(0 1.55564e-20 0)
(0 -9.62541e-19 0)
(0 6.35177e-19 0)
(-1.65436e-18 8.27168e-19 0)
(0 8.02951e-19 0)
(0 9.51541e-19 0)
(-1.65436e-18 9.53325e-20 0)
(0 7.76038e-19 0)
(-1.65436e-18 5.07544e-19 0)
(1.65436e-18 -7.27535e-19 0)
(1.65436e-18 -7.49321e-19 0)
(-1.65436e-18 4.61803e-19 0)
(0 3.31501e-19 0)
(1.65436e-18 -1.41386e-18 0)
(-0.02 -3.84858e-17 0)
(-6.12114e-17 6.0511e-17 0)
(1.8198e-17 -1.92803e-17 0)
(-3.30872e-18 4.06103e-18 0)
(0 -8.67224e-19 0)
(1.65436e-18 -1.54591e-18 0)
(0 -9.49567e-19 0)
(0 7.39582e-19 0)
(-1.65436e-18 -2.10863e-19 0)
(1.65436e-18 -9.59145e-19 0)
(1.65436e-18 -1.92866e-18 0)
(1.65436e-18 -3.00006e-18 0)
(1.65436e-18 -1.03123e-18 0)
(1.65436e-18 -8.73965e-19 0)
(-1.65436e-18 8.61852e-19 0)
(-1.65436e-18 1.15344e-18 0)
(1.65436e-18 -5.17184e-19 0)
(0 -5.40232e-19 0)
(0 -7.07039e-21 0)
(0 -3.28437e-19 0)
(-0.02 2.88272e-17 0)
(4.30134e-17 -4.42578e-17 0)
(-1.65436e-17 1.84024e-17 0)
(0 -2.19223e-19 0)
(-3.30872e-18 2.34186e-18 0)
(-1.65436e-18 1.01643e-18 0)
(-1.65436e-18 9.78465e-19 0)
(3.30872e-18 -1.10403e-18 0)
(3.30872e-18 -3.74228e-18 0)
(1.65436e-18 -2.26736e-18 0)
(1.65436e-18 -2.02889e-18 0)
(0 4.75118e-19 0)
(1.65436e-18 -1.68669e-18 0)
(1.65436e-18 -8.05519e-19 0)
(0 -3.84065e-19 0)
(0 -3.64246e-19 0)
(0 9.01852e-19 0)
(-1.65436e-18 1.81244e-18 0)
(-1.65436e-18 8.99383e-19 0)
(0 9.89088e-19 0)
(-0.02 2.77062e-17 0)
(2.48154e-17 -2.53088e-17 0)
(-1.65436e-18 9.7988e-19 0)
(4.96308e-18 -4.17612e-18 0)
(1.65436e-18 -1.1741e-18 0)
(0 -3.43019e-19 0)
(0 7.4906e-19 0)
(-1.65436e-18 2.47065e-18 0)
(-3.30872e-18 2.9937e-18 0)
(-1.65436e-18 1.00817e-18 0)
(0 5.0975e-19 0)
(1.65436e-18 -1.20234e-18 0)
(-1.65436e-18 2.74501e-19 0)
(0 1.64139e-19 0)
(0 8.33249e-19 0)
(-1.65436e-18 1.80972e-18 0)
(0 6.15472e-20 0)
(3.30872e-18 -3.20764e-18 0)
(1.65436e-18 -2.79108e-18 0)
(1.65436e-18 -1.47953e-18 0)
(-0.02 -5.20579e-18 0)
(-1.32349e-17 1.37271e-17 0)
(9.92617e-18 -1.00894e-17 0)
(1.65436e-18 -5.75167e-19 0)
(0 -4.39284e-19 0)
(0 -5.67381e-19 0)
(1.65436e-18 -1.59637e-18 0)
(0 -1.41565e-18 0)
(0 8.44572e-19 0)
(0 2.48188e-19 0)
(0 1.37882e-18 0)
(-1.65436e-18 1.78919e-18 0)
(-1.65436e-18 6.76965e-19 0)
(-1.65436e-18 1.2709e-18 0)
(0 1.23415e-19 0)
(3.30872e-18 -1.30541e-18 0)
(0 -4.52185e-19 0)
(0 1.28432e-18 0)
(-3.30872e-18 2.4792e-18 0)
(0 1.1794e-18 0)
(-0.02 -2.80579e-17 0)
(-2.31611e-17 2.37217e-17 0)
(0 1.80333e-18 0)
(-1.65436e-18 7.47906e-19 0)
(1.65436e-18 -2.62649e-18 0)
(1.65436e-18 -6.57251e-19 0)
(-1.65436e-18 8.46085e-19 0)
(0 2.10174e-18 0)
(0 -2.86382e-19 0)
(0 3.24226e-19 0)
(0 -7.73778e-19 0)
(0 -4.21369e-19 0)
(0 1.2482e-18 0)
(-1.65436e-18 7.19165e-19 0)
(0 1.64255e-19 0)
(-1.65436e-18 1.32913e-18 0)
(-1.65436e-18 2.05255e-18 0)
(-1.65436e-18 2.32514e-18 0)
(0 -1.6492e-18 0)
(1.65436e-18 -1.26181e-18 0)
(-0.02 3.25667e-17 0)
(1.98523e-17 -2.03524e-17 0)
(6.61744e-18 -6.28263e-18 0)
(0 -2.06057e-18 0)
(0 1.59128e-18 0)
(0 3.92088e-19 0)
(0 4.95588e-20 0)
(1.65436e-18 -2.24169e-18 0)
(0 -4.47289e-19 0)
(0 4.21183e-19 0)
(0 -2.50056e-20 0)
(0 4.40266e-19 0)
(0 1.1164e-19 0)
(0 -4.12055e-19 0)
(1.65436e-18 -8.96919e-19 0)
(1.65436e-18 -1.42477e-18 0)
(1.65436e-18 -1.01371e-18 0)
(1.65436e-18 -4.08529e-19 0)
(-1.65436e-18 9.27938e-19 0)
(0 -8.36606e-19 0)
(-0.02 -4.42024e-18 0)
(9.92617e-18 -1.03625e-17 0)
(-1.32349e-17 1.44703e-17 0)
(0 6.00395e-19 0)
(0 -1.54605e-18 0)
(0 -8.11263e-19 0)
(0 -4.10895e-20 0)
(0 5.15476e-19 0)
(0 8.20331e-19 0)
(-3.30872e-18 1.37076e-18 0)
(-1.65436e-18 1.78456e-18 0)
(-1.65436e-18 8.03367e-19 0)
(0 2.5323e-19 0)
(0 2.74716e-20 0)
(0 4.48949e-19 0)
(0 1.47766e-19 0)
(0 -5.7306e-19 0)
(3.30872e-18 -2.9171e-18 0)
(3.30872e-18 -1.89665e-18 0)
(-1.65436e-18 1.4212e-18 0)
(-0.02 -7.63106e-18 0)
(-1.98523e-17 1.81221e-17 0)
(1.15805e-17 -9.53323e-18 0)
(-1.65436e-18 5.46324e-19 0)
(-1.65436e-18 1.24856e-18 0)
(-1.65436e-18 1.31713e-18 0)
(1.65436e-18 -4.25154e-19 0)
(0 -3.26913e-19 0)
(1.65436e-18 -1.28213e-18 0)
(1.65436e-18 -2.43785e-18 0)
(0 -8.72071e-19 0)
(0 -4.90672e-19 0)
(1.65436e-18 -5.34832e-19 0)
(1.65436e-18 -7.27105e-19 0)
(0 -1.67877e-19 0)
(0 2.44176e-19 0)
(0 4.96042e-19 0)
(-1.65436e-18 1.16432e-18 0)
(-1.65436e-18 1.36433e-18 0)
(0 3.98002e-19 0)
(-0.02 -8.09347e-18 0)
(-2.15067e-17 2.15024e-17 0)
(8.27181e-18 -9.56584e-18 0)
(1.65436e-18 3.95557e-19 0)
(-1.65436e-18 4.57347e-19 0)
(1.65436e-18 -5.54982e-19 0)
(-1.65436e-18 -2.87295e-19 0)
(0 5.17265e-19 0)
(0 -5.35042e-20 0)
(0 6.1831e-20 0)
(0 -1.46431e-19 0)
(0 -6.85628e-20 0)
(0 3.02524e-19 0)
(0 9.59552e-19 0)
(1.65436e-18 -1.30507e-18 0)
(0 -5.08433e-19 0)
(1.65436e-18 -1.37627e-18 0)
(1.65436e-18 -8.48952e-19 0)
(0 3.43907e-21 0)
(0 -1.26967e-18 0)
(-0.02 5.29723e-17 0)
(7.44463e-17 -7.46342e-17 0)
(-2.81241e-17 2.78967e-17 0)
(3.30872e-18 -1.93054e-18 0)
(0 -3.86949e-19 0)
(1.65436e-18 -7.36242e-19 0)
(1.65436e-18 -1.06344e-18 0)
(1.65436e-18 -1.92024e-18 0)
(0 -3.013e-19 0)
(0 -2.47724e-19 0)
(0 1.54077e-19 0)
(0 9.52877e-19 0)
(0 8.24455e-20 0)
(0 -2.17928e-19 0)
(-1.65436e-18 1.12798e-18 0)
(1.65436e-18 -1.07439e-18 0)
(0 1.61797e-19 0)
(-1.65436e-18 1.43871e-18 0)
(0 8.44598e-20 0)
(0 4.05956e-19 0)
(-0.02 -3.35202e-17 0)
(-3.97047e-17 4.1042e-17 0)
(1.48893e-17 -1.42908e-17 0)
(-3.30872e-18 1.84723e-18 0)
(0 -2.94855e-19 0)
(1.65436e-18 -7.68565e-19 0)
(0 -1.1825e-18 0)
(0 5.88644e-20 0)
(0 6.39173e-19 0)
(-1.65436e-18 2.01249e-18 0)
(-1.65436e-18 8.97656e-19 0)
(0 1.74037e-19 0)
(-1.65436e-18 1.28461e-18 0)
(0 6.07069e-20 0)
(0 -2.59626e-19 0)
(0 1.14043e-18 0)
(-1.65436e-18 4.64238e-19 0)
(1.65436e-18 -5.78287e-19 0)
(0 1.63443e-19 0)
(-1.65436e-18 1.22745e-18 0)
(-0.02 -4.43454e-17 0)
(-6.45201e-17 6.33186e-17 0)
(1.8198e-17 -1.69437e-17 0)
(-3.30872e-18 2.15519e-18 0)
(0 -1.86726e-19 0)
(0 7.4276e-19 0)
(0 8.43732e-19 0)
(-1.65436e-18 2.46862e-19 0)
(0 -5.29362e-19 0)
(1.65436e-18 -9.27762e-19 0)
(1.65436e-18 -1.14969e-18 0)
(0 -1.47488e-18 0)
(3.30872e-18 -2.07183e-18 0)
(0 3.00832e-19 0)
(-1.65436e-18 3.71376e-19 0)
(0 -5.37159e-19 0)
(0 4.11813e-19 0)
(0 9.74609e-19 0)
(0 2.5697e-19 0)
(1.65436e-18 -1.28711e-18 0)
(-0.02 3.18196e-17 0)
(5.45939e-17 -5.53624e-17 0)
(-1.48893e-17 1.56532e-17 0)
(0 -1.43017e-18 0)
(0 1.02273e-18 0)
(-1.65436e-18 8.52615e-19 0)
(-1.65436e-18 1.45111e-18 0)
(-1.65436e-18 8.78101e-19 0)
(0 4.12463e-19 0)
(0 -6.75653e-20 0)
(0 4.42692e-19 0)
(-1.65436e-18 7.53265e-19 0)
(0 8.72412e-19 0)
(0 -1.70415e-19 0)
(-1.65436e-18 4.4198e-19 0)
(0 1.24049e-18 0)
(0 2.68197e-19 0)
(0 -4.43974e-19 0)
(0 -1.03692e-19 0)
(0 6.96893e-19 0)
)
;

boundaryField
{
    movingWall
    {
        type            extrapolatedCalculated;
        value           nonuniform List<vector> 
20
(
(-0.02 3.18196e-17 0)
(5.45939e-17 -5.53624e-17 0)
(-1.48893e-17 1.56532e-17 0)
(0 -1.43017e-18 0)
(0 1.02273e-18 0)
(-1.65436e-18 8.52615e-19 0)
(-1.65436e-18 1.45111e-18 0)
(-1.65436e-18 8.78101e-19 0)
(0 4.12463e-19 0)
(0 -6.75653e-20 0)
(0 4.42692e-19 0)
(-1.65436e-18 7.53265e-19 0)
(0 8.72412e-19 0)
(0 -1.70415e-19 0)
(-1.65436e-18 4.4198e-19 0)
(0 1.24049e-18 0)
(0 2.68197e-19 0)
(0 -4.43974e-19 0)
(0 -1.03692e-19 0)
(0 6.96893e-19 0)
)
;
    }
    fixedWalls
    {
        type            extrapolatedCalculated;
        value           nonuniform List<vector> 
60
(
(-0.02 2.61619e-17 0)
(-0.02 -6.59223e-17 0)
(-0.02 7.06696e-18 0)
(-0.02 6.42096e-17 0)
(-0.02 -5.76305e-17 0)
(-0.02 4.16069e-17 0)
(-0.02 -1.96246e-17 0)
(-0.02 -3.84858e-17 0)
(-0.02 2.88272e-17 0)
(-0.02 2.77062e-17 0)
(-0.02 -5.20579e-18 0)
(-0.02 -2.80579e-17 0)
(-0.02 3.25667e-17 0)
(-0.02 -4.42024e-18 0)
(-0.02 -7.63106e-18 0)
(-0.02 -8.09347e-18 0)
(-0.02 5.29723e-17 0)
(-0.02 -3.35202e-17 0)
(-0.02 -4.43454e-17 0)
(-0.02 3.18196e-17 0)
(0 2.32999e-19 0)
(0 -1.34329e-18 0)
(0 9.36454e-19 0)
(-1.65436e-18 2.35081e-19 0)
(0 -8.33582e-19 0)
(-1.65436e-18 2.33138e-18 0)
(1.65436e-18 -1.41386e-18 0)
(0 -3.28437e-19 0)
(0 9.89088e-19 0)
(1.65436e-18 -1.47953e-18 0)
(0 1.1794e-18 0)
(1.65436e-18 -1.26181e-18 0)
(0 -8.36606e-19 0)
(-1.65436e-18 1.4212e-18 0)
(0 3.98002e-19 0)
(0 -1.26967e-18 0)
(0 4.05956e-19 0)
(-1.65436e-18 1.22745e-18 0)
(1.65436e-18 -1.28711e-18 0)
(0 6.96893e-19 0)
(-0.02 2.61619e-17 0)
(6.94832e-17 -6.86391e-17 0)
(-2.64698e-17 2.54265e-17 0)
(1.65436e-18 -1.65314e-18 0)
(-1.65436e-18 2.44702e-18 0)
(-1.65436e-18 4.4391e-19 0)
(0 1.63631e-19 0)
(-1.65436e-18 9.54311e-19 0)
(0 8.45652e-19 0)
(1.65436e-18 -1.24608e-18 0)
(1.65436e-18 -1.28707e-18 0)
(0 -1.02941e-19 0)
(-1.65436e-18 1.57438e-18 0)
(-1.65436e-18 1.27555e-18 0)
(0 -1.19096e-19 0)
(0 -3.09957e-19 0)
(0 1.54389e-19 0)
(0 8.36052e-19 0)
(0 1.80294e-19 0)
(0 2.32999e-19 0)
)
;
    }
    frontAndBack
    {
        type            empty;
    }
}


// ************************************************************************* //
