/*--------------------------------*- C++ -*----------------------------------*\
| =========                 |                                                 |
| \\      /  F ield         | OpenFOAM: The Open Source CFD Toolbox           |
|  \\    /   O peration     | Version:  2506                                  |
|   \\  /    A nd           | Website:  www.openfoam.com                      |
|    \\/     M anipulation  |                                                 |
\*---------------------------------------------------------------------------*/
FoamFile
{
    version     2.0;
    format      ascii;
    arch        "LSB;label=32;scalar=64";
    class       volTensorField;
    location    "8.25";
    object      gradU;
}
// * * * * * * * * * * * * * * * * * * * * * * * * * * * * * * * * * * * * * //

dimensions      [0 0 -1 0 0 0 0];

internalField   nonuniform List<tensor> 
400
(
(2.71051e-14 7.40201e-12 0 1.89735e-13 9.38788e-12 0 0 0 0)
(2.98156e-13 -8.86001e-12 0 -8.13152e-14 -1.93853e-12 0 0 0 0)
(-1.89735e-13 1.85475e-12 0 -5.42101e-14 5.08914e-13 0 0 0 0)
(-2.71051e-14 -4.49558e-13 0 2.71051e-14 -7.47383e-14 0 0 0 0)
(-5.42101e-14 8.59711e-14 0 2.71051e-14 5.12184e-14 0 0 0 0)
(0 -2.39279e-14 0 0 8.12949e-15 0 0 0 0)
(0 8.73275e-15 0 0 1.12482e-14 0 0 0 0)
(0 -6.13096e-15 0 0 1.6594e-14 0 0 0 0)
(-5.42101e-14 -2.10601e-14 0 0 2.22932e-15 0 0 0 0)
(5.42101e-14 -5.91308e-15 0 0 -1.99279e-14 0 0 0 0)
(2.71051e-14 1.80584e-14 0 2.71051e-14 -1.53361e-14 0 0 0 0)
(0 1.72235e-14 0 0 4.89227e-15 0 0 0 0)
(-2.71051e-14 -3.40919e-15 0 0 1.74603e-14 0 0 0 0)
(-5.42101e-14 -1.84802e-14 0 2.71051e-14 1.8703e-14 0 0 0 0)
(0 -9.27535e-15 0 0 7.73211e-15 0 0 0 0)
(2.71051e-14 8.13622e-15 0 -5.42101e-14 2.63341e-15 0 0 0 0)
(0 1.59255e-14 0 -5.42101e-14 1.28499e-14 0 0 0 0)
(-2.71051e-14 2.75846e-15 0 -8.13152e-14 1.02005e-14 0 0 0 0)
(0 -1.09077e-14 0 0 -7.30013e-15 0 0 0 0)
(0 -4.89216e-15 0 0 -5.44161e-15 0 0 0 0)
(1.6263e-13 4.73442e-14 0 5.14996e-13 -1.59668e-11 0 0 0 0)
(-5.69206e-13 -1.89546e-14 0 -3.52366e-13 3.33994e-12 0 0 0 0)
(2.43945e-13 9.0373e-15 0 -1.35525e-13 -8.07739e-13 0 0 0 0)
(1.0842e-13 -8.13756e-15 0 -1.89735e-13 1.63421e-13 0 0 0 0)
(0 -3.10322e-15 0 -8.13152e-14 -3.7348e-14 0 0 0 0)
(0 -1.60424e-14 0 -8.13152e-14 6.94945e-15 0 0 0 0)
(0 -2.68228e-16 0 -8.13152e-14 -2.82793e-15 0 0 0 0)
(0 -2.88788e-15 0 -8.13152e-14 -9.53047e-15 0 0 0 0)
(2.71051e-14 -1.54619e-14 0 -5.42101e-14 -6.39371e-16 0 0 0 0)
(0 -1.16523e-14 0 -8.13152e-14 1.85147e-14 0 0 0 0)
(-2.71051e-14 6.76184e-15 0 -1.0842e-13 1.6577e-15 0 0 0 0)
(0 1.55728e-14 0 -8.13152e-14 -2.11672e-14 0 0 0 0)
(8.13152e-14 1.72199e-14 0 -8.13152e-14 -2.95205e-14 0 0 0 0)
(0 8.75201e-15 0 -2.71051e-14 -4.49835e-15 0 0 0 0)
(-8.13152e-14 -6.79424e-15 0 -5.42101e-14 1.56878e-14 0 0 0 0)
(-5.42101e-14 -3.01838e-15 0 0 1.74427e-14 0 0 0 0)
(0 -8.35838e-15 0 0 7.91033e-17 0 0 0 0)
(5.42101e-14 -2.29085e-14 0 2.71051e-14 -2.8399e-14 0 0 0 0)
(8.13152e-14 -4.7344e-15 0 0 -2.74401e-14 0 0 0 0)
(0 1.76339e-14 0 0 -3.90935e-15 0 0 0 0)
(1.89735e-13 -5.22484e-12 0 -2.03288e-12 4.87779e-12 0 0 0 0)
(-3.25261e-13 6.29904e-12 0 6.50521e-13 -1.07073e-12 0 0 0 0)
(5.42101e-14 -1.32177e-12 0 0 2.08918e-13 0 0 0 0)
(-1.0842e-13 3.20833e-13 0 1.0842e-13 -6.01071e-14 0 0 0 0)
(5.42101e-14 -7.05006e-14 0 2.71051e-14 -9.58227e-15 0 0 0 0)
(0 1.05922e-14 0 0 -8.08138e-15 0 0 0 0)
(5.42101e-14 -7.74717e-15 0 0 -2.98648e-15 0 0 0 0)
(0 -3.9424e-15 0 8.13152e-14 -7.48093e-15 0 0 0 0)
(0 6.98506e-15 0 0 -2.21397e-15 0 0 0 0)
(-5.42101e-14 -3.61601e-15 0 2.71051e-14 4.74732e-15 0 0 0 0)
(0 -2.16235e-14 0 2.71051e-14 -4.95083e-15 0 0 0 0)
(5.42101e-14 -1.39547e-14 0 2.71051e-14 -2.026e-14 0 0 0 0)
(0 1.32597e-14 0 8.13152e-14 -1.80526e-14 0 0 0 0)
(2.71051e-14 2.67282e-14 0 0 -1.94717e-14 0 0 0 0)
(5.42101e-14 1.26657e-14 0 5.42101e-14 -1.374e-14 0 0 0 0)
(0 -7.47251e-15 0 8.13152e-14 5.73162e-15 0 0 0 0)
(2.71051e-14 -2.99162e-14 0 5.42101e-14 -5.00175e-15 0 0 0 0)
(0 -2.47607e-14 0 8.13152e-14 -4.12174e-15 0 0 0 0)
(-2.71051e-14 1.35819e-14 0 2.71051e-14 9.64981e-15 0 0 0 0)
(0 2.64573e-14 0 0 4.42052e-15 0 0 0 0)
(-1.32815e-12 3.8544e-12 0 1.02999e-12 5.10338e-12 0 0 0 0)
(1.49078e-12 -4.68783e-12 0 -1.89735e-13 -1.14437e-12 0 0 0 0)
(-3.25261e-13 1.01966e-12 0 1.35525e-13 2.33782e-13 0 0 0 0)
(1.35525e-13 -2.26637e-13 0 8.13152e-14 -7.2352e-14 0 0 0 0)
(0 4.89225e-14 0 1.0842e-13 3.61662e-15 0 0 0 0)
(0 -9.44659e-15 0 1.0842e-13 -7.09866e-15 0 0 0 0)
(2.71051e-14 3.32227e-16 0 1.35525e-13 -9.69874e-15 0 0 0 0)
(2.71051e-14 -2.11538e-15 0 5.42101e-14 -4.45698e-15 0 0 0 0)
(-2.71051e-14 -3.23363e-15 0 1.0842e-13 1.31752e-15 0 0 0 0)
(0 -1.43892e-14 0 1.0842e-13 -1.97559e-15 0 0 0 0)
(2.71051e-14 -1.82455e-14 0 1.0842e-13 7.32724e-15 0 0 0 0)
(0 2.47104e-15 0 8.13152e-14 1.36936e-14 0 0 0 0)
(0 1.80083e-14 0 -5.42101e-14 1.03605e-14 0 0 0 0)
(0 1.30647e-14 0 0 -6.4878e-15 0 0 0 0)
(0 1.8409e-14 0 0 -1.41299e-14 0 0 0 0)
(0 5.71985e-15 0 -2.71051e-14 -1.10362e-14 0 0 0 0)
(-2.71051e-14 -1.82117e-14 0 2.71051e-14 1.92696e-15 0 0 0 0)
(0 -8.25699e-15 0 -2.71051e-14 1.74768e-14 0 0 0 0)
(0 3.80786e-15 0 0 1.79767e-14 0 0 0 0)
(-2.71051e-14 3.56358e-15 0 2.71051e-14 3.22627e-16 0 0 0 0)
(1.00289e-12 -1.26584e-12 0 8.94467e-13 -7.48744e-12 0 0 0 0)
(-1.21973e-12 1.42944e-12 0 -5.42101e-14 1.61532e-12 0 0 0 0)
(2.98156e-13 -2.49745e-13 0 1.35525e-13 -3.59766e-13 0 0 0 0)
(-5.42101e-14 9.06678e-14 0 5.42101e-14 8.71724e-14 0 0 0 0)
(0 -5.2472e-15 0 2.71051e-14 -6.36549e-15 0 0 0 0)
(0 -2.72319e-15 0 0 9.22073e-15 0 0 0 0)
(0 -5.10549e-15 0 0 2.55822e-15 0 0 0 0)
(0 7.07386e-15 0 0 -9.4966e-16 0 0 0 0)
(0 9.46645e-15 0 0 -1.81167e-15 0 0 0 0)
(0 2.39371e-15 0 0 6.01513e-15 0 0 0 0)
(0 -5.95428e-15 0 -2.71051e-14 3.15372e-14 0 0 0 0)
(-1.35525e-13 -1.09214e-14 0 2.71051e-14 4.11224e-14 0 0 0 0)
(-5.42101e-14 -6.92176e-15 0 0 1.7533e-14 0 0 0 0)
(8.13152e-14 2.23771e-15 0 0 -1.01407e-14 0 0 0 0)
(-2.71051e-14 8.11727e-15 0 0 -1.78891e-14 0 0 0 0)
(2.71051e-14 8.58436e-15 0 0 -2.7857e-14 0 0 0 0)
(5.42101e-14 -1.40321e-15 0 2.71051e-14 -9.72363e-15 0 0 0 0)
(0 -8.71095e-15 0 2.71051e-14 1.16524e-16 0 0 0 0)
(0 -3.57222e-15 0 2.71051e-14 -3.36632e-18 0 0 0 0)
(0 8.15792e-15 0 2.71051e-14 4.94559e-15 0 0 0 0)
(-4.33681e-13 -2.01771e-12 0 -6.50521e-13 7.04559e-12 0 0 0 0)
(7.04731e-13 2.43985e-12 0 1.89735e-13 -1.42474e-12 0 0 0 0)
(-2.1684e-13 -5.08491e-13 0 -2.71051e-14 3.75753e-13 0 0 0 0)
(2.71051e-14 1.26763e-13 0 0 -6.01479e-14 0 0 0 0)
(-2.71051e-14 -2.90292e-14 0 -2.71051e-14 2.37584e-14 0 0 0 0)
(0 -5.22875e-16 0 0 6.55832e-15 0 0 0 0)
(0 -9.83817e-15 0 0 9.64315e-15 0 0 0 0)
(0 -6.48527e-15 0 0 5.5496e-15 0 0 0 0)
(-2.71051e-14 3.73116e-15 0 0 8.84898e-15 0 0 0 0)
(-2.71051e-14 1.89597e-14 0 -5.42101e-14 1.55021e-15 0 0 0 0)
(0 1.68618e-14 0 -2.71051e-14 5.10809e-15 0 0 0 0)
(5.42101e-14 -1.15332e-14 0 -2.71051e-14 9.56924e-15 0 0 0 0)
(0 -3.32549e-14 0 5.42101e-14 1.09308e-14 0 0 0 0)
(0 -2.23575e-14 0 2.71051e-14 4.46277e-16 0 0 0 0)
(2.71051e-14 6.92699e-16 0 5.42101e-14 -1.1826e-14 0 0 0 0)
(0 1.38853e-14 0 0 -1.08412e-14 0 0 0 0)
(-2.71051e-14 9.76182e-15 0 -2.71051e-14 -4.32579e-15 0 0 0 0)
(0 1.46327e-15 0 0 2.72009e-16 0 0 0 0)
(0 8.63692e-15 0 0 7.561e-15 0 0 0 0)
(-5.42101e-14 -1.37864e-15 0 -2.71051e-14 1.1504e-14 0 0 0 0)
(5.42101e-13 4.35501e-12 0 9.21572e-13 -3.84106e-13 0 0 0 0)
(-5.96311e-13 -5.24039e-12 0 -3.79471e-13 8.43049e-14 0 0 0 0)
(1.0842e-13 1.11485e-12 0 -5.42101e-14 1.2106e-15 0 0 0 0)
(-2.71051e-14 -2.61327e-13 0 -1.0842e-13 3.11312e-15 0 0 0 0)
(2.71051e-14 6.1459e-14 0 -1.35525e-13 -2.99565e-15 0 0 0 0)
(-2.71051e-14 -1.68384e-14 0 -2.71051e-14 4.28248e-15 0 0 0 0)
(0 -6.1142e-15 0 -1.0842e-13 2.47209e-15 0 0 0 0)
(2.71051e-14 6.27968e-15 0 -1.0842e-13 7.70578e-15 0 0 0 0)
(-2.71051e-14 5.46706e-15 0 -1.0842e-13 2.40828e-14 0 0 0 0)
(-2.71051e-14 -1.34718e-15 0 -5.42101e-14 1.67383e-14 0 0 0 0)
(0 2.06475e-15 0 -8.13152e-14 -4.01785e-15 0 0 0 0)
(0 -5.09871e-15 0 -2.71051e-14 -1.96126e-14 0 0 0 0)
(0 -1.60447e-14 0 0 -5.72858e-15 0 0 0 0)
(0 -2.05191e-14 0 -2.71051e-14 7.99046e-15 0 0 0 0)
(-5.42101e-14 -3.17018e-15 0 -2.71051e-14 6.9303e-15 0 0 0 0)
(0 1.60846e-14 0 -8.13152e-14 -4.9291e-15 0 0 0 0)
(5.42101e-14 9.70997e-15 0 -8.13152e-14 -1.31197e-14 0 0 0 0)
(0 3.17584e-15 0 -2.71051e-14 -1.11148e-15 0 0 0 0)
(0 7.65976e-15 0 -5.42101e-14 4.03094e-15 0 0 0 0)
(0 -1.09071e-14 0 -2.71051e-14 -3.6872e-15 0 0 0 0)
(1.35525e-13 -2.31751e-12 0 -4.06576e-13 -9.13124e-12 0 0 0 0)
(-3.25261e-13 2.82516e-12 0 5.42101e-14 2.01705e-12 0 0 0 0)
(5.42101e-14 -5.89683e-13 0 0 -4.36907e-13 0 0 0 0)
(0 1.22556e-13 0 -2.71051e-14 1.27828e-13 0 0 0 0)
(0 -2.78598e-14 0 -5.42101e-14 -1.68578e-14 0 0 0 0)
(5.42101e-14 4.94486e-15 0 -8.13152e-14 -2.92181e-15 0 0 0 0)
(0 -6.41487e-15 0 -2.71051e-14 -8.4497e-15 0 0 0 0)
(-5.42101e-14 1.51254e-14 0 -1.35525e-13 -1.40306e-14 0 0 0 0)
(0 1.27637e-14 0 -2.71051e-14 -3.0269e-14 0 0 0 0)
(0 -9.14089e-15 0 -2.71051e-14 -1.88471e-14 0 0 0 0)
(5.42101e-14 -1.9489e-14 0 2.71051e-14 -2.24025e-14 0 0 0 0)
(8.13152e-14 -1.32439e-14 0 -5.42101e-14 -2.51068e-14 0 0 0 0)
(0 -5.65181e-15 0 0 -2.36192e-14 0 0 0 0)
(2.71051e-14 -9.69861e-15 0 5.42101e-14 -8.69014e-15 0 0 0 0)
(-2.71051e-14 -1.22269e-14 0 2.71051e-14 1.23333e-14 0 0 0 0)
(-5.42101e-14 -6.1647e-15 0 8.13152e-14 3.35486e-15 0 0 0 0)
(5.42101e-14 1.35794e-14 0 5.42101e-14 -6.79413e-15 0 0 0 0)
(0 1.8614e-14 0 2.71051e-14 7.0695e-15 0 0 0 0)
(0 6.0612e-15 0 0 4.61116e-15 0 0 0 0)
(0 -1.72238e-15 0 0 -5.21297e-15 0 0 0 0)
(2.1684e-13 -2.75918e-12 0 -1.21973e-12 8.49666e-12 0 0 0 0)
(-1.6263e-13 3.45394e-12 0 2.98156e-13 -1.75855e-12 0 0 0 0)
(-2.71051e-14 -7.74372e-13 0 -5.42101e-14 4.08312e-13 0 0 0 0)
(-1.0842e-13 1.58722e-13 0 8.13152e-14 -6.94975e-14 0 0 0 0)
(-5.42101e-14 -6.9291e-14 0 5.42101e-14 3.30372e-14 0 0 0 0)
(0 -8.4303e-15 0 2.71051e-14 2.16227e-15 0 0 0 0)
(-5.42101e-14 -1.7223e-14 0 2.71051e-14 1.04343e-14 0 0 0 0)
(0 -1.55396e-14 0 5.42101e-14 -9.95589e-16 0 0 0 0)
(1.0842e-13 6.50531e-16 0 0 -3.56446e-14 0 0 0 0)
(2.71051e-14 6.51936e-15 0 0 -3.33212e-14 0 0 0 0)
(8.13152e-14 -4.1949e-15 0 5.42101e-14 -3.37201e-14 0 0 0 0)
(-2.71051e-14 -6.31546e-15 0 0 -1.87713e-14 0 0 0 0)
(2.71051e-14 3.71882e-16 0 0 -2.40446e-14 0 0 0 0)
(2.71051e-14 1.54334e-14 0 -5.42101e-14 -1.41089e-14 0 0 0 0)
(0 8.87483e-15 0 -5.42101e-14 6.49439e-15 0 0 0 0)
(0 -3.04281e-15 0 0 2.02262e-14 0 0 0 0)
(0 1.34246e-14 0 -5.42101e-14 1.60166e-14 0 0 0 0)
(-2.71051e-14 1.45811e-14 0 -2.71051e-14 1.1196e-15 0 0 0 0)
(-2.71051e-14 -4.62272e-15 0 0 -4.55977e-15 0 0 0 0)
(0 -1.03053e-14 0 2.71051e-14 1.89433e-16 0 0 0 0)
(-7.86047e-13 4.4206e-12 0 -5.69206e-13 1.06168e-13 0 0 0 0)
(8.40257e-13 -5.26318e-12 0 2.71051e-14 -1.37721e-13 0 0 0 0)
(-1.35525e-13 1.09937e-12 0 -1.35525e-13 -6.35215e-16 0 0 0 0)
(1.0842e-13 -2.52719e-13 0 5.42101e-14 -4.28628e-14 0 0 0 0)
(0 4.38e-14 0 1.0842e-13 -7.46306e-15 0 0 0 0)
(2.71051e-14 -1.7658e-14 0 1.0842e-13 -3.19673e-15 0 0 0 0)
(-2.71051e-14 -9.57272e-15 0 1.0842e-13 5.54272e-15 0 0 0 0)
(-8.13152e-14 -3.09536e-14 0 1.89735e-13 2.17022e-14 0 0 0 0)
(-2.71051e-14 -1.95619e-14 0 1.0842e-13 2.71439e-14 0 0 0 0)
(0 -7.21632e-15 0 8.13152e-14 4.57495e-15 0 0 0 0)
(0 -4.93921e-15 0 2.71051e-14 -3.45191e-16 0 0 0 0)
(2.71051e-14 -3.56844e-15 0 5.42101e-14 -3.37923e-15 0 0 0 0)
(0 -9.89363e-16 0 5.42101e-14 3.94909e-16 0 0 0 0)
(0 2.08404e-14 0 0 3.78549e-15 0 0 0 0)
(-2.71051e-14 2.21082e-14 0 -5.42101e-14 1.45607e-16 0 0 0 0)
(-5.42101e-14 3.35755e-15 0 -5.42101e-14 6.83301e-16 0 0 0 0)
(0 -5.52713e-15 0 0 -8.77808e-15 0 0 0 0)
(8.13152e-14 -1.96246e-15 0 0 -2.62912e-14 0 0 0 0)
(5.42101e-14 5.13104e-15 0 2.71051e-14 -1.14477e-14 0 0 0 0)
(0 2.64795e-15 0 -2.71051e-14 -1.90888e-15 0 0 0 0)
(-2.98156e-13 -2.79073e-12 0 2.38524e-12 -3.35876e-12 0 0 0 0)
(2.43945e-13 3.34714e-12 0 -4.06576e-13 6.40855e-13 0 0 0 0)
(0 -6.79514e-13 0 2.43945e-13 -2.03231e-13 0 0 0 0)
(1.0842e-13 1.51895e-13 0 -2.71051e-14 -1.31031e-17 0 0 0 0)
(0 -2.96249e-14 0 8.13152e-14 -3.29463e-14 0 0 0 0)
(0 4.57549e-15 0 0 -1.51932e-14 0 0 0 0)
(2.71051e-14 7.67594e-15 0 2.71051e-14 -1.09781e-14 0 0 0 0)
(2.71051e-14 6.06154e-15 0 8.13152e-14 1.28268e-14 0 0 0 0)
(-2.71051e-14 -1.64767e-14 0 5.42101e-14 2.77361e-14 0 0 0 0)
(2.71051e-14 -2.09697e-14 0 8.13152e-14 1.56188e-14 0 0 0 0)
(-2.71051e-14 -1.21491e-14 0 8.13152e-14 2.2233e-14 0 0 0 0)
(-2.71051e-14 -5.57536e-15 0 8.13152e-14 1.54689e-14 0 0 0 0)
(0 7.5366e-15 0 2.71051e-14 1.82072e-14 0 0 0 0)
(-5.42101e-14 1.51841e-14 0 5.42101e-14 2.04792e-14 0 0 0 0)
(0 5.77264e-15 0 8.13152e-14 9.30516e-15 0 0 0 0)
(5.42101e-14 -1.19665e-14 0 1.0842e-13 3.88868e-15 0 0 0 0)
(2.71051e-14 -1.35499e-14 0 1.0842e-13 5.3996e-15 0 0 0 0)
(-2.71051e-14 1.19115e-14 0 2.71051e-14 1.25492e-14 0 0 0 0)
(-2.71051e-14 1.97596e-14 0 -2.71051e-14 6.87797e-15 0 0 0 0)
(-2.71051e-14 3.0513e-15 0 2.71051e-14 -3.24621e-15 0 0 0 0)
(1.13841e-12 1.7027e-12 0 -1.27394e-12 2.20056e-12 0 0 0 0)
(-1.27394e-12 -2.10766e-12 0 2.1684e-13 -4.75871e-13 0 0 0 0)
(2.71051e-13 4.58498e-13 0 -1.0842e-13 7.20512e-14 0 0 0 0)
(-8.13152e-14 -8.24345e-14 0 -8.13152e-14 -3.72871e-14 0 0 0 0)
(5.42101e-14 2.86199e-14 0 -8.13152e-14 -1.14015e-14 0 0 0 0)
(0 4.31023e-15 0 -5.42101e-14 -3.94612e-15 0 0 0 0)
(0 1.84472e-14 0 -8.13152e-14 5.48481e-15 0 0 0 0)
(-2.71051e-14 7.76062e-15 0 -1.35525e-13 -2.09957e-15 0 0 0 0)
(0 -1.67699e-14 0 -8.13152e-14 -8.33493e-15 0 0 0 0)
(0 -1.27194e-14 0 -8.13152e-14 1.14419e-15 0 0 0 0)
(2.71051e-14 -5.08916e-15 0 -1.0842e-13 -4.07929e-15 0 0 0 0)
(0 -7.59423e-15 0 -5.42101e-14 7.98826e-15 0 0 0 0)
(-2.71051e-14 4.02098e-15 0 -2.71051e-14 1.62279e-14 0 0 0 0)
(-2.71051e-14 1.19383e-14 0 -5.42101e-14 1.26777e-14 0 0 0 0)
(0 5.51769e-15 0 -2.71051e-14 4.63001e-15 0 0 0 0)
(0 -5.48016e-16 0 -5.42101e-14 1.28806e-14 0 0 0 0)
(-5.42101e-14 3.13339e-15 0 -2.71051e-14 3.07626e-14 0 0 0 0)
(-5.42101e-14 -4.8409e-16 0 -8.13152e-14 3.76831e-14 0 0 0 0)
(5.42101e-14 -1.06644e-14 0 0 -3.35527e-15 0 0 0 0)
(0 -9.83811e-16 0 0 -1.28717e-14 0 0 0 0)
(-1.38236e-12 -1.06604e-12 0 -8.13152e-14 -3.99394e-12 0 0 0 0)
(1.40946e-12 1.21863e-12 0 5.42101e-14 8.87613e-13 0 0 0 0)
(-2.98156e-13 -2.40929e-13 0 0 -1.89107e-13 0 0 0 0)
(1.89735e-13 6.8442e-14 0 -2.71051e-14 3.39392e-14 0 0 0 0)
(-5.42101e-14 3.71612e-15 0 -8.13152e-14 -1.91615e-14 0 0 0 0)
(0 2.14618e-14 0 -5.42101e-14 -4.7282e-15 0 0 0 0)
(0 9.52249e-15 0 -5.42101e-14 -1.82465e-15 0 0 0 0)
(5.42101e-14 -7.75821e-15 0 -5.42101e-14 -1.57887e-14 0 0 0 0)
(0 -1.32329e-14 0 -5.42101e-14 -2.89735e-15 0 0 0 0)
(0 -1.67141e-14 0 -5.42101e-14 1.32182e-14 0 0 0 0)
(0 -5.30501e-15 0 -8.13152e-14 -9.43109e-16 0 0 0 0)
(0 1.47319e-14 0 -1.0842e-13 1.60939e-15 0 0 0 0)
(0 1.22261e-14 0 -1.35525e-13 4.85175e-15 0 0 0 0)
(0 3.58616e-15 0 -8.13152e-14 -5.25871e-15 0 0 0 0)
(2.71051e-14 5.97551e-15 0 -8.13152e-14 -1.34983e-14 0 0 0 0)
(5.42101e-14 1.41661e-14 0 -8.13152e-14 -1.72725e-14 0 0 0 0)
(0 1.12526e-14 0 -8.13152e-14 -9.75586e-15 0 0 0 0)
(2.71051e-14 -2.22063e-14 0 0 -1.40203e-14 0 0 0 0)
(-2.71051e-14 -3.07952e-14 0 0 -1.30841e-14 0 0 0 0)
(0 1.92783e-14 0 0 -5.31401e-15 0 0 0 0)
(1.11131e-12 -1.40363e-12 0 1.00289e-12 7.41993e-12 0 0 0 0)
(-1.16552e-12 1.69718e-12 0 -1.89735e-13 -1.47311e-12 0 0 0 0)
(1.89735e-13 -3.95176e-13 0 1.35525e-13 3.49196e-13 0 0 0 0)
(-1.35525e-13 8.75112e-14 0 8.13152e-14 -6.45763e-14 0 0 0 0)
(5.42101e-14 -1.00475e-14 0 5.42101e-14 1.6717e-14 0 0 0 0)
(0 2.1647e-14 0 0 7.18119e-16 0 0 0 0)
(0 7.38674e-15 0 0 -1.18455e-15 0 0 0 0)
(0 6.68791e-15 0 0 -2.68885e-15 0 0 0 0)
(-2.71051e-14 1.2237e-14 0 0 7.27095e-15 0 0 0 0)
(-2.71051e-14 -1.07652e-14 0 5.42101e-14 1.34843e-14 0 0 0 0)
(-5.42101e-14 -1.6698e-14 0 8.13152e-14 2.50463e-14 0 0 0 0)
(-2.71051e-14 -1.79938e-15 0 8.13152e-14 1.5091e-14 0 0 0 0)
(0 -2.84711e-15 0 2.71051e-14 4.02627e-15 0 0 0 0)
(0 -6.41171e-15 0 2.71051e-14 -1.74937e-15 0 0 0 0)
(0 -6.49607e-15 0 2.71051e-14 -8.51167e-16 0 0 0 0)
(0 3.19442e-15 0 2.71051e-14 -1.18013e-14 0 0 0 0)
(0 6.38556e-15 0 0 -2.03465e-14 0 0 0 0)
(8.13152e-14 -3.81231e-15 0 5.42101e-14 -3.05887e-14 0 0 0 0)
(2.71051e-14 -1.95808e-15 0 0 -7.25693e-16 0 0 0 0)
(-2.71051e-14 1.74143e-14 0 0 1.2625e-14 0 0 0 0)
(-4.87891e-13 4.88077e-12 0 -1.5992e-12 -4.91806e-12 0 0 0 0)
(5.14996e-13 -5.85211e-12 0 1.89735e-13 9.66951e-13 0 0 0 0)
(-8.13152e-14 1.16761e-12 0 -2.1684e-13 -2.24157e-13 0 0 0 0)
(5.42101e-14 -2.64037e-13 0 0 4.90172e-14 0 0 0 0)
(-8.13152e-14 6.90105e-14 0 -5.42101e-14 2.19103e-15 0 0 0 0)
(-5.42101e-14 3.56021e-15 0 -2.71051e-14 1.03966e-14 0 0 0 0)
(5.42101e-14 6.11552e-15 0 -2.71051e-14 4.80034e-16 0 0 0 0)
(0 6.97283e-16 0 -2.71051e-14 5.8444e-15 0 0 0 0)
(2.71051e-14 2.9402e-15 0 -2.71051e-14 -1.29437e-14 0 0 0 0)
(5.42101e-14 1.0613e-15 0 -5.42101e-14 -2.62879e-14 0 0 0 0)
(0 -3.69831e-15 0 -5.42101e-14 -7.37743e-15 0 0 0 0)
(0 -6.28818e-15 0 -5.42101e-14 -4.22766e-15 0 0 0 0)
(2.71051e-14 -4.61431e-15 0 0 -1.99441e-15 0 0 0 0)
(2.71051e-14 -1.29128e-15 0 5.42101e-14 -3.87868e-16 0 0 0 0)
(0 -4.07644e-15 0 5.42101e-14 -1.10123e-15 0 0 0 0)
(0 -5.32928e-15 0 5.42101e-14 1.06224e-14 0 0 0 0)
(0 -7.53475e-15 0 5.42101e-14 2.0546e-15 0 0 0 0)
(-2.71051e-14 -2.58548e-15 0 0 -2.85605e-15 0 0 0 0)
(-2.71051e-14 1.24185e-14 0 0 5.23174e-15 0 0 0 0)
(0 7.37901e-15 0 -2.71051e-14 3.23338e-15 0 0 0 0)
(-3.52366e-13 -5.35474e-12 0 3.52366e-13 -4.38776e-12 0 0 0 0)
(2.1684e-13 6.39108e-12 0 0 8.34483e-13 0 0 0 0)
(5.42101e-14 -1.31311e-12 0 8.13152e-14 -1.87703e-13 0 0 0 0)
(2.71051e-14 3.13859e-13 0 -8.13152e-14 3.82777e-14 0 0 0 0)
(-2.71051e-14 -4.86681e-14 0 0 -2.60376e-15 0 0 0 0)
(0 1.9936e-14 0 0 -1.71854e-15 0 0 0 0)
(2.71051e-14 2.83454e-15 0 2.71051e-14 -1.07931e-14 0 0 0 0)
(-2.71051e-14 -6.73581e-15 0 8.13152e-14 -7.88282e-15 0 0 0 0)
(0 -1.98953e-14 0 8.13152e-14 -1.38314e-14 0 0 0 0)
(0 -5.19892e-15 0 5.42101e-14 -1.9658e-14 0 0 0 0)
(0 5.36227e-15 0 5.42101e-14 -1.25653e-14 0 0 0 0)
(0 3.58364e-15 0 5.42101e-14 -7.2792e-15 0 0 0 0)
(2.71051e-14 9.92688e-16 0 5.42101e-14 -6.86187e-15 0 0 0 0)
(-2.71051e-14 -5.51854e-15 0 0 -4.42392e-15 0 0 0 0)
(2.71051e-14 4.51416e-15 0 0 -1.50302e-14 0 0 0 0)
(0 6.35025e-15 0 0 -1.19019e-14 0 0 0 0)
(0 -7.09286e-15 0 0 -9.34061e-15 0 0 0 0)
(5.42101e-14 -6.35162e-16 0 0 4.76238e-15 0 0 0 0)
(0 4.13134e-15 0 -5.42101e-14 2.29938e-15 0 0 0 0)
(0 8.94916e-15 0 0 -8.24316e-15 0 0 0 0)
(-1.35525e-13 1.32749e-12 0 4.06576e-13 1.20039e-11 0 0 0 0)
(2.43945e-13 -1.65205e-12 0 8.13152e-14 -2.40725e-12 0 0 0 0)
(-1.0842e-13 3.714e-13 0 1.0842e-13 5.70226e-13 0 0 0 0)
(-8.13152e-14 -7.8938e-14 0 8.13152e-14 -1.09387e-13 0 0 0 0)
(2.71051e-14 2.90143e-14 0 8.13152e-14 1.42317e-14 0 0 0 0)
(0 -4.62918e-15 0 8.13152e-14 -2.25381e-14 0 0 0 0)
(5.42101e-14 -4.87574e-17 0 1.0842e-13 -2.69794e-14 0 0 0 0)
(5.42101e-14 -2.341e-15 0 5.42101e-14 -2.18156e-14 0 0 0 0)
(0 -8.83502e-15 0 8.13152e-14 8.20125e-16 0 0 0 0)
(0 2.32744e-15 0 8.13152e-14 1.53819e-14 0 0 0 0)
(0 8.68054e-15 0 5.42101e-14 1.77108e-14 0 0 0 0)
(-2.71051e-14 -5.84765e-16 0 5.42101e-14 1.97209e-14 0 0 0 0)
(0 -1.75904e-15 0 2.71051e-14 1.35918e-14 0 0 0 0)
(0 -9.45966e-15 0 5.42101e-14 7.30091e-15 0 0 0 0)
(-2.71051e-14 -1.15544e-14 0 2.71051e-14 4.81167e-15 0 0 0 0)
(5.42101e-14 3.60358e-16 0 2.71051e-14 -1.0711e-14 0 0 0 0)
(0 9.12952e-15 0 2.71051e-14 -3.64273e-15 0 0 0 0)
(-5.42101e-14 9.05451e-15 0 2.71051e-14 6.76413e-15 0 0 0 0)
(0 -5.87094e-16 0 5.42101e-14 2.47205e-15 0 0 0 0)
(0 1.33228e-14 0 0 4.47012e-15 0 0 0 0)
(1.0842e-13 4.24186e-12 0 8.94467e-13 -6.32131e-12 0 0 0 0)
(-5.42101e-14 -5.04254e-12 0 -3.25261e-13 1.34157e-12 0 0 0 0)
(0 9.84752e-13 0 -5.42101e-14 -2.96078e-13 0 0 0 0)
(5.42101e-14 -2.42135e-13 0 0 7.41713e-14 0 0 0 0)
(-2.71051e-14 3.8181e-14 0 -2.71051e-14 -1.48394e-14 0 0 0 0)
(0 -2.1275e-14 0 0 -7.81508e-15 0 0 0 0)
(2.71051e-14 3.55701e-15 0 -5.42101e-14 -1.12508e-14 0 0 0 0)
(0 2.10637e-14 0 -5.42101e-14 -2.31287e-15 0 0 0 0)
(0 1.73022e-14 0 -5.42101e-14 1.18672e-14 0 0 0 0)
(-2.71051e-14 1.16917e-14 0 -8.13152e-14 2.081e-14 0 0 0 0)
(-2.71051e-14 9.70123e-15 0 -5.42101e-14 4.64499e-15 0 0 0 0)
(0 -5.35367e-16 0 -5.42101e-14 3.91636e-15 0 0 0 0)
(-2.71051e-14 -1.14273e-14 0 0 8.52973e-15 0 0 0 0)
(2.71051e-14 -1.42987e-14 0 -5.42101e-14 4.36144e-15 0 0 0 0)
(0 -1.34978e-14 0 0 6.56765e-15 0 0 0 0)
(-5.42101e-14 -2.10415e-15 0 -2.71051e-14 7.3117e-15 0 0 0 0)
(0 1.03823e-14 0 -2.71051e-14 8.18629e-15 0 0 0 0)
(0 5.47962e-15 0 -8.13152e-14 5.67103e-15 0 0 0 0)
(2.71051e-14 1.83733e-15 0 -5.42101e-14 5.49357e-15 0 0 0 0)
(-2.71051e-14 2.00698e-15 0 0 7.82561e-15 0 0 0 0)
(4.33681e-13 -3.65224e-12 0 -8.13152e-14 -7.45655e-12 0 0 0 0)
(-6.50521e-13 4.37318e-12 0 5.42101e-14 1.41736e-12 0 0 0 0)
(1.35525e-13 -8.96e-13 0 1.35525e-13 -3.38559e-13 0 0 0 0)
(0 2.023e-13 0 2.71051e-14 6.33514e-14 0 0 0 0)
(0 -5.29721e-14 0 5.42101e-14 -7.65878e-15 0 0 0 0)
(0 -1.04059e-15 0 2.71051e-14 8.56596e-15 0 0 0 0)
(0 5.45345e-15 0 2.71051e-14 9.54533e-15 0 0 0 0)
(0 2.0777e-14 0 0 -3.03694e-16 0 0 0 0)
(0 1.42878e-14 0 0 -8.07155e-15 0 0 0 0)
(0 -4.89478e-15 0 0 -8.82589e-15 0 0 0 0)
(0 -8.2131e-15 0 0 -2.07704e-14 0 0 0 0)
(2.71051e-14 3.29998e-15 0 0 -2.53054e-14 0 0 0 0)
(5.42101e-14 -1.31396e-15 0 2.71051e-14 -1.7254e-14 0 0 0 0)
(0 -1.14217e-14 0 2.71051e-14 -5.67238e-16 0 0 0 0)
(0 -8.60413e-15 0 -2.71051e-14 2.96528e-15 0 0 0 0)
(0 1.97901e-15 0 0 5.47184e-15 0 0 0 0)
(-5.42101e-14 7.48884e-15 0 0 5.79835e-15 0 0 0 0)
(0 6.36178e-15 0 0 5.51244e-15 0 0 0 0)
(5.42101e-14 1.56749e-15 0 5.42101e-14 2.47644e-15 0 0 0 0)
(0 3.60823e-18 0 2.71051e-14 -3.87995e-15 0 0 0 0)
(1.35525e-13 -1.79734e-12 0 -6.77626e-13 6.76416e-12 0 0 0 0)
(1.35525e-13 2.07546e-12 0 1.35525e-13 -1.31457e-12 0 0 0 0)
(-5.42101e-14 -3.69252e-13 0 -1.35525e-13 3.15518e-13 0 0 0 0)
(-2.71051e-14 8.8765e-14 0 -2.71051e-14 -4.93222e-14 0 0 0 0)
(-2.71051e-14 -1.66045e-14 0 -5.42101e-14 2.44531e-14 0 0 0 0)
(-2.71051e-14 -4.0709e-15 0 -2.71051e-14 2.02544e-14 0 0 0 0)
(-5.42101e-14 -5.31264e-15 0 -2.71051e-14 2.95646e-14 0 0 0 0)
(0 3.44684e-15 0 0 2.01136e-14 0 0 0 0)
(0 8.78002e-15 0 -2.71051e-14 5.34072e-15 0 0 0 0)
(0 -1.00707e-15 0 0 -2.95429e-15 0 0 0 0)
(0 -6.77829e-15 0 0 1.12426e-14 0 0 0 0)
(0 2.98098e-15 0 0 1.20371e-14 0 0 0 0)
(-2.71051e-14 1.33109e-14 0 -5.42101e-14 4.96161e-15 0 0 0 0)
(-5.42101e-14 5.92064e-15 0 -2.71051e-14 4.01726e-17 0 0 0 0)
(0 -7.45868e-15 0 0 1.04627e-14 0 0 0 0)
(0 7.28922e-16 0 0 1.6103e-14 0 0 0 0)
(-5.42101e-14 1.04229e-14 0 0 7.75478e-15 0 0 0 0)
(5.42101e-14 2.15771e-15 0 5.42101e-14 -1.80875e-15 0 0 0 0)
(2.71051e-14 -7.55506e-15 0 0 -7.64721e-16 0 0 0 0)
(-2.71051e-14 3.41049e-15 0 -2.71051e-14 4.17882e-15 0 0 0 0)
)
;

boundaryField
{
    movingWall
    {
        type            extrapolatedCalculated;
        value           nonuniform List<tensor> 
20
(
(1.35525e-13 -1.79734e-12 0 -8.88178e-14 8.69538e-12 0 0 0 0)
(1.35525e-13 2.07546e-12 0 -4.44089e-13 -1.50602e-12 0 0 0 0)
(-5.42101e-14 -3.69252e-13 0 -5.77316e-13 3.9356e-13 0 0 0 0)
(-2.71051e-14 8.8765e-14 0 -3.10862e-13 -2.90105e-14 0 0 0 0)
(-2.71051e-14 -1.66045e-14 0 -3.55271e-13 3.84996e-14 0 0 0 0)
(-2.71051e-14 -4.0709e-15 0 -2.66454e-13 3.74074e-14 0 0 0 0)
(-5.42101e-14 -5.31264e-15 0 -2.66454e-13 5.47832e-14 0 0 0 0)
(0 3.44684e-15 0 -1.33227e-13 5.8658e-14 0 0 0 0)
(0 8.78002e-15 0 -2.22045e-13 4.09958e-14 0 0 0 0)
(0 -1.00707e-15 0 -1.77636e-13 2.35379e-14 0 0 0 0)
(0 -6.77829e-15 0 -1.77636e-13 4.50241e-14 0 0 0 0)
(0 2.98098e-15 0 -2.22045e-13 5.06511e-14 0 0 0 0)
(-2.71051e-14 1.33109e-14 0 -1.33227e-13 3.31002e-14 0 0 0 0)
(-5.42101e-14 5.92064e-15 0 -4.44089e-14 -2.59249e-15 0 0 0 0)
(0 -7.45868e-15 0 0 9.41762e-15 0 0 0 0)
(0 7.28922e-16 0 0 2.72422e-14 0 0 0 0)
(-5.42101e-14 1.04229e-14 0 0 6.50193e-15 0 0 0 0)
(5.42101e-14 2.15771e-15 0 8.88178e-14 -1.44493e-14 0 0 0 0)
(2.71051e-14 -7.55506e-15 0 -4.44089e-14 -2.12893e-15 0 0 0 0)
(-2.71051e-14 3.41049e-15 0 -4.44089e-14 1.57709e-14 0 0 0 0)
)
;
    }
    fixedWalls
    {
        type            extrapolatedCalculated;
        value           nonuniform List<tensor> 
60
(
(-8.88178e-13 3.73646e-11 0 1.89735e-13 9.38788e-12 0 0 0 0)
(1.73195e-12 1.86869e-13 0 5.14996e-13 -1.59668e-11 0 0 0 0)
(1.15463e-12 -2.65025e-11 0 -2.03288e-12 4.87779e-12 0 0 0 0)
(-6.39488e-12 1.9698e-11 0 1.02999e-12 5.10338e-12 0 0 0 0)
(5.15143e-12 -6.08899e-12 0 8.94467e-13 -7.48744e-12 0 0 0 0)
(-2.75335e-12 -1.02517e-11 0 -6.50521e-13 7.04559e-12 0 0 0 0)
(2.53131e-12 2.20934e-11 0 9.21572e-13 -3.84106e-13 0 0 0 0)
(9.32587e-13 -1.17881e-11 0 -4.06576e-13 -9.13124e-12 0 0 0 0)
(9.32587e-13 -1.44316e-11 0 -1.21973e-12 8.49666e-12 0 0 0 0)
(-3.9968e-12 2.21985e-11 0 -5.69206e-13 1.06168e-13 0 0 0 0)
(-1.24345e-12 -1.40069e-11 0 2.38524e-12 -3.35876e-12 0 0 0 0)
(5.4623e-12 8.76347e-12 0 -1.27394e-12 2.20056e-12 0 0 0 0)
(-6.39488e-12 -5.20468e-12 0 -8.13152e-14 -3.99394e-12 0 0 0 0)
(5.19584e-12 -7.21231e-12 0 1.00289e-12 7.41993e-12 0 0 0 0)
(-2.30926e-12 2.4475e-11 0 -1.5992e-12 -4.91806e-12 0 0 0 0)
(-1.15463e-12 -2.68846e-11 0 3.52366e-13 -4.38776e-12 0 0 0 0)
(-8.88178e-13 6.92398e-12 0 4.06576e-13 1.20039e-11 0 0 0 0)
(3.55271e-13 2.11308e-11 0 8.94467e-13 -6.32131e-12 0 0 0 0)
(2.66454e-12 -1.83612e-11 0 -8.13152e-14 -7.45655e-12 0 0 0 0)
(8.88178e-14 -8.69538e-12 0 -6.77626e-13 6.76416e-12 0 0 0 0)
(8.88178e-14 1.46885e-15 0 0 -5.44161e-15 0 0 0 0)
(0 2.02976e-14 0 0 -3.90935e-15 0 0 0 0)
(0 1.71062e-14 0 0 4.42052e-15 0 0 0 0)
(-4.44089e-14 2.61552e-15 0 2.71051e-14 3.22627e-16 0 0 0 0)
(-4.44089e-14 1.58157e-14 0 2.71051e-14 4.94559e-15 0 0 0 0)
(-8.88178e-14 -1.71668e-14 0 -2.71051e-14 1.1504e-14 0 0 0 0)
(0 -3.02002e-14 0 -2.71051e-14 -3.6872e-15 0 0 0 0)
(0 -2.41803e-15 0 0 -5.21297e-15 0 0 0 0)
(-4.44089e-14 -9.34832e-15 0 2.71051e-14 1.89433e-16 0 0 0 0)
(0 -3.17576e-15 0 -2.71051e-14 -1.90888e-15 0 0 0 0)
(0 -1.71279e-15 0 2.71051e-14 -3.24621e-15 0 0 0 0)
(-4.44089e-14 9.80907e-15 0 0 -1.28717e-14 0 0 0 0)
(0 4.9774e-14 0 0 -5.31401e-15 0 0 0 0)
(-4.44089e-14 3.10651e-14 0 0 1.2625e-14 0 0 0 0)
(0 -7.25824e-16 0 -2.71051e-14 3.23338e-15 0 0 0 0)
(0 1.81316e-14 0 0 -8.24316e-15 0 0 0 0)
(0 3.22468e-14 0 0 4.47012e-15 0 0 0 0)
(-4.44089e-14 2.51082e-16 0 0 7.82561e-15 0 0 0 0)
(0 9.44384e-16 0 2.71051e-14 -3.87995e-15 0 0 0 0)
(-4.44089e-14 1.57709e-14 0 -2.71051e-14 4.17882e-15 0 0 0 0)
(2.71051e-14 7.40201e-12 0 -8.88178e-13 3.73646e-11 0 0 0 0)
(2.98156e-13 -8.86001e-12 0 9.76996e-13 -7.75662e-12 0 0 0 0)
(-1.89735e-13 1.85475e-12 0 3.55271e-13 1.9246e-12 0 0 0 0)
(-2.71051e-14 -4.49558e-13 0 2.22045e-13 -3.3761e-13 0 0 0 0)
(-5.42101e-14 8.59711e-14 0 1.77636e-13 1.26373e-13 0 0 0 0)
(0 -2.39279e-14 0 1.33227e-13 6.27412e-15 0 0 0 0)
(0 8.73275e-15 0 1.33227e-13 3.06616e-14 0 0 0 0)
(0 -6.13096e-15 0 1.33227e-13 4.12051e-14 0 0 0 0)
(-5.42101e-14 -2.10601e-14 0 0 6.13774e-15 0 0 0 0)
(5.42101e-14 -5.91308e-15 0 0 -4.30351e-14 0 0 0 0)
(2.71051e-14 1.80584e-14 0 1.77636e-13 -1.75146e-14 0 0 0 0)
(0 1.72235e-14 0 1.77636e-13 2.91983e-14 0 0 0 0)
(-2.71051e-14 -3.40919e-15 0 1.33227e-13 5.13794e-14 0 0 0 0)
(-5.42101e-14 -1.84802e-14 0 4.44089e-14 1.55615e-14 0 0 0 0)
(0 -9.27535e-15 0 0 -2.25412e-14 0 0 0 0)
(2.71051e-14 8.13622e-15 0 4.44089e-14 -2.15399e-14 0 0 0 0)
(0 1.59255e-14 0 4.44089e-14 1.00036e-14 0 0 0 0)
(-2.71051e-14 2.75846e-15 0 0 4.2162e-14 0 0 0 0)
(0 -1.09077e-14 0 4.44089e-14 2.10375e-14 0 0 0 0)
(0 -4.89216e-15 0 -8.88178e-14 -1.46885e-15 0 0 0 0)
)
;
    }
    frontAndBack
    {
        type            empty;
    }
}


// ************************************************************************* //
