/*--------------------------------*- C++ -*----------------------------------*\
| =========                 |                                                 |
| \\      /  F ield         | OpenFOAM: The Open Source CFD Toolbox           |
|  \\    /   O peration     | Version:  2506                                  |
|   \\  /    A nd           | Website:  www.openfoam.com                      |
|    \\/     M anipulation  |                                                 |
\*---------------------------------------------------------------------------*/
FoamFile
{
    version     2.0;
    format      ascii;
    arch        "LSB;label=32;scalar=64";
    class       volVectorField;
    location    "8.25";
    object      LambVectorField;
}
// * * * * * * * * * * * * * * * * * * * * * * * * * * * * * * * * * * * * * //

dimensions      [0 1 -2 0 0 0 0];

internalField   nonuniform List<vector> 
400
(
(-6.7371e-25 -7.21227e-12 0)
(-1.70233e-25 8.7787e-12 -0)
(-9.18499e-27 -1.90896e-12 0)
(-4.02315e-28 4.76663e-13 -0)
(-1.85977e-29 -5.8866e-14 0)
(3.75316e-31 2.39279e-14 0)
(-6.694e-31 -8.73275e-15 0)
(6.31567e-31 6.13096e-15 0)
(3.23153e-31 2.10601e-14 0)
(-6.36175e-31 5.91308e-15 -0)
(-3.96123e-31 9.0467e-15 -0)
(-1.25724e-30 -1.72235e-14 0)
(4.37905e-31 3.40919e-15 0)
(1.77344e-30 4.55852e-14 0)
(-5.22695e-31 9.27535e-15 -0)
(3.35733e-30 -6.23463e-14 -0)
(-1.75403e-30 -7.01356e-14 0)
(-8.86179e-30 -8.40736e-14 0)
(5.73677e-31 1.09077e-14 0)
(-1.79646e-32 4.89216e-15 -0)
(2.18474e-28 4.67652e-13 0)
(-2.09008e-30 -3.33411e-13 0)
(-4.01345e-29 -1.44563e-13 0)
(-1.75499e-29 -1.81598e-13 0)
(-1.53492e-29 -7.82119e-14 0)
(-4.28252e-30 -6.52728e-14 0)
(-2.90373e-30 -8.10469e-14 0)
(-4.93522e-30 -7.84273e-14 0)
(-2.69256e-31 -3.87482e-14 0)
(6.38749e-30 -6.96629e-14 -0)
(1.2621e-29 -1.15182e-13 -0)
(2.33239e-30 -9.6888e-14 -0)
(-4.5478e-30 -9.85351e-14 0)
(-5.31137e-30 -3.58571e-14 0)
(-6.33828e-30 -4.74159e-14 0)
(2.42025e-31 3.01838e-15 0)
(8.65012e-31 8.35838e-15 0)
(-1.70047e-31 5.00136e-14 -0)
(-5.94617e-31 4.7344e-15 -0)
(8.94814e-31 -1.76339e-14 -0)
(-2.11488e-25 3.19196e-12 -0)
(-7.91237e-26 -5.64852e-12 0)
(-4.31673e-27 1.32177e-12 -0)
(-1.67846e-28 -2.12413e-13 0)
(-5.61691e-30 9.76056e-14 -0)
(-9.02238e-31 -1.05922e-14 0)
(3.74767e-31 7.74717e-15 0)
(6.57171e-31 8.52576e-14 0)
(-6.25208e-32 -6.98506e-15 0)
(2.38269e-30 3.07211e-14 0)
(-1.32588e-30 4.87286e-14 -0)
(-5.69402e-30 4.10597e-14 -0)
(-1.13487e-29 6.80555e-14 -0)
(1.62499e-31 -2.67282e-14 -0)
(4.17626e-30 4.15444e-14 0)
(1.07058e-29 8.87877e-14 0)
(2.17047e-30 8.41263e-14 0)
(-1.89435e-29 1.06076e-13 -0)
(-2.99953e-30 1.35231e-14 -0)
(1.13146e-30 -2.64573e-14 -0)
(-1.39088e-25 -2.82441e-12 0)
(-4.81342e-26 4.49809e-12 -0)
(-2.09257e-27 -8.84135e-13 0)
(-1.5534e-28 3.07953e-13 -0)
(5.97529e-30 5.94978e-14 0)
(-1.79207e-30 1.17867e-13 -0)
(8.06148e-31 1.35193e-13 0)
(-6.69256e-31 5.63255e-14 -0)
(-1.69612e-30 1.11654e-13 -0)
(-5.43041e-30 1.22809e-13 -0)
(-2.01503e-29 1.26666e-13 -0)
(-1.78718e-29 7.88441e-14 -0)
(9.70414e-30 -7.22184e-14 -0)
(6.08687e-31 -1.30647e-14 -0)
(6.85835e-32 -1.8409e-14 -0)
(-4.51342e-30 -3.28249e-14 0)
(2.42322e-30 4.53168e-14 0)
(8.40951e-31 -1.88481e-14 -0)
(1.10797e-31 -3.80786e-15 -0)
(-1.53933e-31 2.35415e-14 -0)
(-3.28852e-26 2.1603e-12 -0)
(-3.80426e-27 -1.48365e-12 0)
(-3.57554e-28 3.8527e-13 -0)
(-2.43046e-30 -3.64577e-14 0)
(-6.91718e-31 3.23523e-14 -0)
(3.86507e-32 2.72319e-15 0)
(-2.48192e-31 5.10549e-15 -0)
(2.60755e-31 -7.07386e-15 -0)
(-2.09453e-31 -9.46645e-15 0)
(-1.38363e-31 -2.39371e-15 0)
(-9.74267e-31 -2.11508e-14 0)
(-6.61693e-32 3.80265e-14 -0)
(-4.37116e-31 6.92176e-15 -0)
(1.58783e-31 -2.23771e-15 -0)
(3.30973e-31 -8.11727e-15 -0)
(-8.76891e-32 -8.58436e-15 0)
(1.28486e-30 2.85083e-14 0)
(-1.36714e-31 3.5816e-14 -0)
(-1.28967e-30 3.06773e-14 -0)
(-7.49157e-31 1.89471e-14 -0)
(-3.50401e-26 1.36719e-12 -0)
(-1.22681e-26 -2.25011e-12 0)
(-5.92515e-28 4.81386e-13 -0)
(-4.65593e-29 -1.26763e-13 0)
(7.07581e-32 1.92414e-15 0)
(4.0263e-32 5.22875e-16 0)
(3.10347e-31 9.83817e-15 0)
(-1.38646e-31 6.48527e-15 -0)
(1.24276e-31 -3.73116e-15 -0)
(-1.16582e-30 -7.31698e-14 0)
(-6.87157e-30 -4.39669e-14 0)
(-2.87381e-30 -1.55719e-14 0)
(3.5824e-30 8.7465e-14 0)
(-7.32032e-30 4.94625e-14 -0)
(-9.77318e-30 5.35174e-14 -0)
(1.95881e-30 -1.38853e-14 -0)
(1.61342e-30 -3.68669e-14 -0)
(6.35823e-32 -1.46327e-15 -0)
(2.51599e-31 -8.63692e-15 -0)
(-1.1041e-30 -2.57264e-14 0)
(-1.89641e-25 -3.43344e-12 0)
(-5.67915e-26 4.86092e-12 -0)
(-3.30781e-27 -1.16906e-12 0)
(-8.17764e-29 1.52906e-13 -0)
(-4.25886e-29 -1.96984e-13 0)
(-8.19032e-31 -1.02666e-14 0)
(-4.89215e-30 -1.02306e-13 0)
(-2.13735e-30 -1.147e-13 0)
(-1.25977e-29 -1.13887e-13 0)
(-3.87511e-30 -5.28629e-14 0)
(-8.09984e-30 -8.33799e-14 0)
(-2.06755e-30 -2.20063e-14 0)
(7.40573e-31 1.60447e-14 0)
(4.37934e-31 -6.58597e-15 -0)
(3.80646e-30 -2.39349e-14 -0)
(9.56433e-30 -9.73997e-14 -0)
(-1.64913e-31 -9.10251e-14 0)
(3.32194e-32 -3.02809e-14 -0)
(-2.07698e-30 -6.18699e-14 0)
(-1.22296e-30 -1.6198e-14 0)
(-5.6316e-26 1.91094e-12 -0)
(-1.74438e-26 -2.77095e-12 0)
(-7.18674e-28 5.89683e-13 -0)
(-5.96291e-29 -1.49662e-13 0)
(-1.7964e-31 -2.63503e-14 0)
(-1.03364e-29 -8.626e-14 0)
(-1.16415e-30 -2.06902e-14 0)
(-8.38812e-30 -1.50651e-13 0)
(-8.27356e-30 -3.98687e-14 0)
(-3.29312e-30 -1.79642e-14 0)
(5.41009e-30 4.65941e-14 0)
(4.74169e-31 -4.09662e-14 -0)
(-9.22809e-32 5.65181e-15 -0)
(-4.35172e-30 6.39087e-14 -0)
(-4.45685e-30 3.93319e-14 -0)
(-1.66528e-29 8.74799e-14 -0)
(-7.10877e-30 4.06307e-14 -0)
(-4.63334e-31 8.4911e-15 -0)
(-6.77568e-32 -6.0612e-15 0)
(1.04119e-32 1.72238e-15 0)
(-5.55419e-26 1.53945e-12 -0)
(-2.67837e-26 -3.15578e-12 0)
(-1.10876e-27 7.20162e-13 -0)
(-5.75499e-29 -7.74073e-14 0)
(5.88172e-30 1.23501e-13 0)
(1.79661e-30 3.55354e-14 0)
(-1.62587e-30 4.4328e-14 -0)
(-8.48656e-30 6.97497e-14 -0)
(1.2495e-31 -6.50531e-16 -0)
(7.5081e-31 -6.51936e-15 -0)
(-7.41047e-30 5.8405e-14 -0)
(-9.92255e-31 6.31546e-15 -0)
(7.06707e-32 -3.71882e-16 -0)
(1.06831e-29 -6.96435e-14 -0)
(2.25223e-30 -6.30849e-14 -0)
(-1.96712e-31 3.04281e-15 -0)
(4.47265e-30 -6.76347e-14 -0)
(-2.90127e-30 -4.16862e-14 0)
(3.68346e-31 4.62272e-15 0)
(8.74309e-31 3.74103e-14 0)
(-2.76916e-25 -4.98981e-12 0)
(-5.97284e-26 5.29029e-12 -0)
(-3.53719e-27 -1.23489e-12 0)
(-9.10195e-29 3.06929e-13 -0)
(2.17893e-29 6.46203e-14 0)
(1.78338e-29 1.26078e-13 0)
(1.89508e-29 1.17993e-13 0)
(1.00906e-29 2.20689e-13 0)
(-1.90599e-29 1.27982e-13 -0)
(-1.32705e-29 8.85315e-14 -0)
(-7.08465e-30 3.20443e-14 -0)
(-1.15146e-29 5.77785e-14 -0)
(-1.41738e-29 5.51995e-14 -0)
(4.35943e-30 -2.08404e-14 -0)
(3.6915e-30 -7.63183e-14 -0)
(-6.85075e-31 -5.75677e-14 0)
(-8.17702e-32 5.52713e-15 -0)
(-8.51137e-32 1.96246e-15 -0)
(-7.56321e-31 2.1974e-14 -0)
(-2.36221e-31 -2.9753e-14 0)
(-1.81249e-25 5.17598e-12 -0)
(-2.66888e-26 -3.75371e-12 0)
(-1.42762e-27 9.23459e-13 -0)
(-5.63562e-29 -1.79e-13 0)
(-2.99602e-30 1.1094e-13 -0)
(-8.50625e-32 -4.57549e-15 0)
(3.64278e-31 1.94291e-14 0)
(7.17546e-30 7.52536e-14 0)
(5.61002e-30 7.06868e-14 0)
(-7.10028e-30 1.02285e-13 -0)
(-1.21814e-29 9.34642e-14 -0)
(-1.65881e-29 8.68905e-14 -0)
(-3.64142e-30 1.95685e-14 -0)
(-4.50912e-30 3.9026e-14 -0)
(-2.58698e-30 7.55425e-14 -0)
(-6.96017e-30 1.20387e-13 -0)
(-1.87725e-29 1.2197e-13 -0)
(-2.93711e-30 1.51935e-14 -0)
(1.63065e-30 -4.68646e-14 -0)
(1.02997e-31 2.40538e-14 0)
(-6.52142e-26 -2.97664e-12 0)
(-1.13474e-26 2.3245e-12 -0)
(-4.71716e-28 -5.66918e-13 0)
(-3.3208e-31 1.11932e-15 -0)
(-8.49419e-31 -1.09935e-13 0)
(6.1336e-31 -5.85203e-14 -0)
(-5.07081e-30 -9.97624e-14 0)
(-2.49305e-29 -1.43286e-13 0)
(-8.28988e-30 -6.45452e-14 0)
(-4.31606e-31 -6.85957e-14 0)
(-1.2822e-31 -1.03331e-13 0)
(2.07905e-30 -4.66159e-14 -0)
(2.32516e-30 -3.1126e-14 -0)
(2.90372e-31 -6.61484e-14 -0)
(-1.45764e-30 -3.26227e-14 0)
(-2.72534e-30 -5.36621e-14 0)
(-1.1854e-30 -3.02384e-14 0)
(-6.63793e-30 -8.08311e-14 0)
(3.66436e-31 1.06644e-14 0)
(-2.41257e-32 9.83811e-16 -0)
(-1.2813e-26 9.84729e-13 -0)
(-2.73785e-27 -1.16442e-12 0)
(-1.98873e-28 2.40929e-13 -0)
(5.54474e-30 -9.55471e-14 -0)
(1.19912e-29 -8.50313e-14 -0)
(1.57929e-30 -7.56719e-14 -0)
(-4.69054e-30 -6.37326e-14 0)
(-3.45391e-30 -4.64519e-14 0)
(1.6329e-31 -4.09772e-14 -0)
(2.17383e-30 -3.7496e-14 -0)
(1.30073e-29 -7.60102e-14 -0)
(1.3673e-29 -1.23152e-13 -0)
(3.51751e-30 -1.47751e-13 -0)
(-9.53919e-31 -8.49013e-14 0)
(-1.05226e-30 -8.72907e-14 0)
(-6.77828e-30 -9.54812e-14 0)
(-1.42291e-29 -9.25678e-14 0)
(4.07523e-30 2.22063e-14 0)
(-2.10478e-30 3.07952e-14 -0)
(2.39889e-30 -1.92783e-14 -0)
(-4.33914e-26 2.40652e-12 -0)
(-7.53722e-27 -1.88691e-12 0)
(-5.62012e-28 5.30701e-13 -0)
(-2.64644e-31 -6.196e-15 0)
(-1.18162e-29 6.42576e-14 -0)
(1.2504e-30 -2.1647e-14 -0)
(-2.40678e-31 -7.38674e-15 0)
(-1.07704e-31 -6.68791e-15 0)
(-1.21711e-30 -1.2237e-14 0)
(8.9974e-30 6.49753e-14 0)
(-8.02749e-31 9.80132e-14 -0)
(-2.36924e-30 8.31145e-14 -0)
(-7.84268e-31 2.99522e-14 -0)
(-1.90968e-30 3.35168e-14 -0)
(-3.03422e-30 3.36011e-14 -0)
(-2.9156e-30 2.39106e-14 -0)
(3.72642e-31 -6.38556e-15 -0)
(-3.37005e-30 5.80224e-14 -0)
(-1.88916e-31 1.95808e-15 -0)
(1.35244e-30 -1.74143e-14 -0)
(-3.96494e-25 -6.47997e-12 0)
(-7.47971e-26 6.04184e-12 -0)
(-3.69166e-27 -1.38445e-12 0)
(-1.85828e-28 2.64037e-13 -0)
(-3.22218e-30 -1.23221e-13 0)
(4.19779e-31 -3.06653e-14 -0)
(-2.05143e-30 -3.32206e-14 0)
(-1.31967e-30 -2.78023e-14 0)
(-2.06485e-30 -3.00453e-14 0)
(-4.24861e-30 -5.52714e-14 0)
(-4.00748e-30 -5.05118e-14 0)
(-1.91137e-30 -4.79219e-14 0)
(7.59322e-32 4.61431e-15 0)
(-3.47334e-31 5.55014e-14 -0)
(2.0651e-31 5.82865e-14 0)
(-2.79969e-30 5.95394e-14 -0)
(-3.07179e-30 6.17449e-14 -0)
(-3.16386e-31 2.58548e-15 -0)
(9.38892e-31 -1.24185e-14 -0)
(-6.25734e-32 -3.44841e-14 0)
(-3.83583e-25 5.70711e-12 -0)
(-8.73276e-26 -6.39108e-12 0)
(-4.60239e-27 1.39442e-12 -0)
(-2.10582e-28 -3.95174e-13 0)
(-7.88315e-30 4.86681e-14 -0)
(-9.21102e-31 -1.9936e-14 0)
(9.07299e-31 2.42705e-14 0)
(6.56405e-30 8.8051e-14 0)
(-3.03381e-30 1.0121e-13 -0)
(-7.39078e-30 5.9409e-14 -0)
(-4.00379e-30 4.88478e-14 -0)
(-3.58346e-30 5.06265e-14 -0)
(-2.45482e-30 5.32174e-14 -0)
(-3.35833e-31 5.51854e-15 -0)
(4.57346e-31 -4.51416e-15 -0)
(9.97865e-32 -6.35025e-15 -0)
(-2.68188e-31 7.09286e-15 -0)
(-5.5032e-32 6.35162e-16 -0)
(2.57651e-30 -5.83415e-14 -0)
(4.05656e-31 -8.94916e-15 -0)
(-1.5941e-26 -9.20918e-13 0)
(-6.99415e-27 1.73336e-12 -0)
(-2.07621e-28 -2.6298e-13 0)
(-5.14441e-29 1.60253e-13 -0)
(5.86253e-33 5.23009e-14 0)
(-2.65349e-30 8.59443e-14 -0)
(-5.00907e-30 1.08469e-13 -0)
(-1.77356e-30 5.65511e-14 -0)
(-6.27352e-30 9.01502e-14 -0)
(-9.4558e-30 7.89877e-14 -0)
(-2.10871e-30 4.55296e-14 -0)
(-1.80313e-30 5.47949e-14 -0)
(-1.50564e-30 2.88641e-14 -0)
(-3.21515e-30 6.36698e-14 -0)
(-5.67364e-30 3.86595e-14 -0)
(-4.44072e-30 2.67447e-14 -0)
(-2.5733e-30 1.79755e-14 -0)
(-1.34921e-30 1.80505e-14 -0)
(-2.88292e-30 5.47972e-14 -0)
(1.07404e-30 -1.33228e-14 -0)
(-1.76833e-25 -3.34739e-12 0)
(-4.90999e-26 4.71728e-12 -0)
(-2.49527e-27 -1.03896e-12 0)
(-1.35835e-28 2.42135e-13 -0)
(1.2836e-30 -6.5286e-14 -0)
(-3.81202e-30 2.1275e-14 -0)
(1.34257e-29 -5.77671e-14 -0)
(1.08099e-29 -7.52738e-14 -0)
(1.55711e-30 -7.15123e-14 -0)
(-2.73572e-30 -9.30069e-14 0)
(-6.08074e-30 -6.39113e-14 0)
(-6.7859e-30 -5.36747e-14 0)
(1.02605e-30 1.14273e-14 0)
(-4.85068e-31 -3.99115e-14 0)
(-7.18037e-31 1.34978e-14 -0)
(3.07071e-30 -2.50009e-14 -0)
(2.783e-30 -3.74873e-14 -0)
(1.64919e-30 -8.67948e-14 -0)
(1.08968e-30 -5.60474e-14 -0)
(1.25979e-33 -2.00698e-15 -0)
(-1.63917e-25 3.57093e-12 -0)
(-4.0515e-26 -4.31897e-12 0)
(-2.23974e-27 1.03153e-12 -0)
(-7.3704e-29 -1.75195e-13 0)
(-1.58932e-29 1.07182e-13 -0)
(-3.06859e-30 2.81456e-14 -0)
(-3.43584e-30 2.16516e-14 -0)
(1.13216e-30 -2.0777e-14 -0)
(-7.01281e-31 -1.42878e-14 0)
(4.32638e-31 4.89478e-15 0)
(1.10536e-33 8.2131e-15 0)
(-2.06469e-32 -3.29998e-15 0)
(9.41646e-31 2.8419e-14 0)
(-2.65179e-31 3.85268e-14 -0)
(1.50011e-30 -1.85009e-14 -0)
(1.83898e-31 -1.97901e-15 -0)
(4.59013e-31 -7.48884e-15 -0)
(1.1474e-31 -6.36178e-15 -0)
(1.22388e-31 5.26426e-14 0)
(-6.39855e-32 2.71014e-14 -0)
(-2.43409e-26 1.11971e-12 -0)
(-7.30392e-27 -1.93993e-12 0)
(-2.29963e-28 2.33727e-13 -0)
(-8.40362e-30 -1.1587e-13 0)
(3.6195e-30 -3.76056e-14 -0)
(2.15412e-30 -2.30341e-14 -0)
(2.98464e-30 -2.17924e-14 -0)
(5.05462e-31 -3.44684e-15 -0)
(3.67784e-30 -3.58851e-14 -0)
(-5.92606e-32 1.00707e-15 -0)
(-7.62965e-31 6.77829e-15 -0)
(3.77474e-31 -2.98098e-15 -0)
(5.58739e-30 -6.7521e-14 -0)
(-2.14047e-31 -3.30257e-14 0)
(-1.75607e-31 7.45868e-15 -0)
(4.96436e-32 -7.28922e-16 -0)
(1.69422e-31 -1.04229e-14 -0)
(1.88031e-30 5.20524e-14 0)
(4.02105e-32 7.55506e-15 0)
(1.20314e-30 -3.05155e-14 -0)
)
;

boundaryField
{
    movingWall
    {
        type            calculated;
        value           nonuniform List<vector> 
20
(
(0 1.70852e-12 -0)
(0 -2.51954e-12 -0)
(0 -2.08064e-13 -0)
(0 -3.99627e-13 -0)
(0 -3.38667e-13 -0)
(0 -2.62383e-13 -0)
(0 -2.61141e-13 -0)
(0 -1.36674e-13 -0)
(0 -2.30825e-13 -0)
(0 -1.76629e-13 -0)
(0 -1.70857e-13 -0)
(0 -2.25026e-13 -0)
(0 -1.46538e-13 -0)
(0 -5.03296e-14 -0)
(0 7.45868e-15 -0)
(0 -7.28922e-16 -0)
(0 -1.04229e-14 -0)
(0 8.66601e-14 -0)
(0 -3.68539e-14 -0)
(0 -4.78194e-14 -0)
)
;
    }
    fixedWalls
    {
        type            calculated;
        value           nonuniform List<vector> 
60
(
(0 -3.71749e-11 -0)
(0 3.28127e-13 -0)
(0 2.44696e-11 -0)
(0 -1.8668e-11 -0)
(0 6.98346e-12 -0)
(0 9.6012e-12 -0)
(0 -2.11718e-11 -0)
(0 1.13816e-11 -0)
(0 1.32119e-11 -0)
(0 -2.27677e-11 -0)
(0 1.63922e-11 -0)
(0 -1.00374e-11 -0)
(0 5.12337e-12 -0)
(0 8.2152e-12 -0)
(0 -2.60742e-11 -0)
(0 2.72369e-11 -0)
(0 -6.51741e-12 -0)
(0 -2.02364e-11 -0)
(0 1.82799e-11 -0)
(0 8.01775e-12 -0)
(0 -1.46885e-15 -0)
(0 -2.02976e-14 -0)
(0 -1.71062e-14 -0)
(0 2.44895e-14 -0)
(0 1.12893e-14 -0)
(0 -9.93823e-15 -0)
(0 3.09516e-15 -0)
(0 2.41803e-15 -0)
(0 3.64534e-14 -0)
(0 -2.39293e-14 -0)
(0 2.88178e-14 -0)
(0 -9.80907e-15 -0)
(0 -4.9774e-14 -0)
(0 -3.10651e-14 -0)
(0 -2.63792e-14 -0)
(0 -1.81316e-14 -0)
(0 -3.22468e-14 -0)
(0 -2.51082e-16 -0)
(0 2.61607e-14 -0)
(0 -4.28759e-14 -0)
(0 -8.29019e-12 -0)
(0 9.83701e-12 -0)
(0 -1.49948e-12 -0)
(0 6.71602e-13 -0)
(0 9.16646e-14 -0)
(0 1.57155e-13 -0)
(0 1.24494e-13 -0)
(0 1.39358e-13 -0)
(0 2.10601e-14 -0)
(0 5.91308e-15 -0)
(0 1.59577e-13 -0)
(0 1.60412e-13 -0)
(0 1.36636e-13 -0)
(0 6.28891e-14 -0)
(0 9.27535e-15 -0)
(0 3.62727e-14 -0)
(0 2.84834e-14 -0)
(0 -2.75846e-15 -0)
(0 5.53166e-14 -0)
(0 -8.39257e-14 -0)
)
;
    }
    frontAndBack
    {
        type            empty;
    }
}


// ************************************************************************* //
