/*--------------------------------*- C++ -*----------------------------------*\
| =========                 |                                                 |
| \\      /  F ield         | OpenFOAM: The Open Source CFD Toolbox           |
|  \\    /   O peration     | Version:  2506                                  |
|   \\  /    A nd           | Website:  www.openfoam.com                      |
|    \\/     M anipulation  |                                                 |
\*---------------------------------------------------------------------------*/
FoamFile
{
    version     2.0;
    format      ascii;
    arch        "LSB;label=32;scalar=64";
    class       volScalarField;
    location    "8.25";
    object      magSqrP;
}
// * * * * * * * * * * * * * * * * * * * * * * * * * * * * * * * * * * * * * //

dimensions      [0 4 -4 0 0 0 0];

internalField   nonuniform List<scalar> 
400
(
5.00744e-31
1.15576e-29
5.46448e-30
8.09727e-30
9.12718e-30
8.24378e-30
7.89905e-30
9.33453e-30
1.03642e-29
1.07649e-29
1.13204e-29
1.19846e-29
1.25208e-29
1.33892e-29
1.41658e-29
1.27587e-29
1.28902e-29
1.32474e-29
1.28501e-29
1.2716e-29
7.86064e-30
0
5.77171e-30
6.88167e-30
8.70581e-30
8.22361e-30
8.62597e-30
9.09584e-30
9.56937e-30
1.2095e-29
1.18733e-29
1.1692e-29
1.11384e-29
1.3328e-29
1.4534e-29
1.33937e-29
1.28475e-29
1.18906e-29
1.17562e-29
1.25826e-29
7.51251e-30
1.1695e-29
6.00326e-30
9.47809e-30
8.35049e-30
8.39135e-30
8.70688e-30
9.32667e-30
1.03629e-29
1.21796e-29
1.1208e-29
1.04259e-29
1.10081e-29
1.15286e-29
1.1601e-29
1.25947e-29
1.2606e-29
1.22973e-29
1.28258e-29
1.33004e-29
6.65017e-30
5.47128e-30
7.58674e-30
8.52781e-30
9.04005e-30
9.13766e-30
8.56871e-30
9.02268e-30
1.02068e-29
9.93861e-30
9.84781e-30
1.08202e-29
1.09716e-29
1.08202e-29
1.1494e-29
1.14577e-29
1.17915e-29
1.13228e-29
1.16344e-29
1.25311e-29
6.74361e-30
4.78884e-30
7.3985e-30
8.1644e-30
8.67687e-30
8.71618e-30
8.7905e-30
9.04849e-30
9.28029e-30
8.54296e-30
9.23636e-30
1.08147e-29
1.06393e-29
9.2671e-30
1.13434e-29
1.03971e-29
9.08174e-30
9.68989e-30
1.03658e-29
1.26874e-29
4.41028e-30
1.21611e-29
7.23511e-30
7.95782e-30
8.03089e-30
8.00272e-30
8.13872e-30
8.3386e-30
8.35774e-30
8.0707e-30
8.04361e-30
7.9524e-30
8.66562e-30
9.28022e-30
1.02915e-29
9.65326e-30
8.61439e-30
8.58137e-30
1.0119e-29
1.33513e-29
6.14238e-30
9.37036e-30
6.36525e-30
6.9457e-30
6.60578e-30
7.21554e-30
7.40595e-30
7.56903e-30
7.90907e-30
7.57399e-30
6.8865e-30
6.95584e-30
7.41502e-30
8.43374e-30
9.95852e-30
9.49803e-30
8.31423e-30
9.00009e-30
1.00882e-29
1.15706e-29
8.00711e-30
1.36552e-30
6.36622e-30
6.03069e-30
6.18822e-30
5.93143e-30
7.29397e-30
8.29814e-30
7.23399e-30
6.56949e-30
5.5147e-30
5.60618e-30
6.69081e-30
7.71778e-30
9.94171e-30
9.94207e-30
7.90753e-30
8.61143e-30
9.88627e-30
1.13882e-29
5.00772e-30
1.60961e-29
5.10437e-30
6.33786e-30
6.39036e-30
6.26549e-30
7.69375e-30
7.3158e-30
6.52543e-30
6.35703e-30
5.58776e-30
6.74223e-30
6.41984e-30
7.46687e-30
9.20243e-30
9.22893e-30
8.91678e-30
9.04627e-30
9.45433e-30
1.09279e-29
6.97539e-30
3.16894e-30
5.13959e-30
5.01091e-30
5.83693e-30
5.96514e-30
6.58923e-30
7.65659e-30
7.86001e-30
6.6641e-30
6.44968e-30
6.79183e-30
7.46908e-30
8.31879e-30
9.5827e-30
9.52958e-30
9.03325e-30
8.15236e-30
8.81745e-30
1.02103e-29
8.23453e-30
2.61923e-30
5.13574e-30
5.14772e-30
5.75556e-30
5.68827e-30
5.56267e-30
6.91581e-30
7.8291e-30
6.87901e-30
7.06873e-30
7.5682e-30
8.14544e-30
9.23715e-30
8.99255e-30
8.27408e-30
8.85797e-30
9.85861e-30
1.00741e-29
1.09628e-29
7.12166e-30
1.39084e-29
5.49919e-30
5.71704e-30
5.11733e-30
5.90668e-30
6.53746e-30
7.51298e-30
7.16101e-30
6.9589e-30
6.64549e-30
7.63622e-30
9.08749e-30
9.5708e-30
8.94539e-30
8.57484e-30
9.44065e-30
1.072e-29
9.72517e-30
1.08325e-29
6.91338e-30
7.93912e-31
6.88061e-30
5.16304e-30
6.0166e-30
6.19456e-30
6.63112e-30
6.49665e-30
6.80631e-30
7.08063e-30
7.74703e-30
8.34093e-30
8.92226e-30
9.12372e-30
8.60914e-30
8.59134e-30
9.43709e-30
1.05097e-29
1.12255e-29
1.18638e-29
5.7107e-30
2.33411e-29
6.39926e-30
6.69023e-30
5.60428e-30
6.27851e-30
6.19791e-30
6.35641e-30
6.94253e-30
7.4321e-30
8.6039e-30
8.30024e-30
8.13767e-30
8.85187e-30
9.06675e-30
9.49892e-30
1.02555e-29
9.58177e-30
1.09959e-29
1.36269e-29
1.01866e-29
1.37459e-30
7.17572e-30
5.85867e-30
6.78354e-30
6.92027e-30
5.43111e-30
6.06956e-30
6.67345e-30
6.85261e-30
8.53393e-30
8.4145e-30
8.02236e-30
8.53518e-30
9.25257e-30
9.71656e-30
1.00817e-29
1.03687e-29
1.26231e-29
1.42066e-29
9.27532e-30
1.9436e-30
7.10463e-30
6.44361e-30
7.14337e-30
6.61485e-30
5.7325e-30
6.46595e-30
7.00258e-30
7.66292e-30
8.32916e-30
8.4062e-30
8.00781e-30
8.97775e-30
8.82492e-30
9.49022e-30
8.9969e-30
1.08707e-29
1.34285e-29
1.43696e-29
4.35099e-30
2.13211e-29
6.73818e-30
7.94056e-30
6.40322e-30
6.43424e-30
5.48143e-30
5.82721e-30
7.09967e-30
8.00007e-30
8.11258e-30
7.7953e-30
7.49895e-30
8.11453e-30
9.27179e-30
8.59723e-30
9.71642e-30
1.19865e-29
1.3761e-29
1.55123e-29
7.75658e-30
2.7003e-30
7.37747e-30
6.4265e-30
6.10085e-30
5.9965e-30
5.25105e-30
5.95507e-30
7.0846e-30
8.43169e-30
8.27431e-30
7.54769e-30
7.38954e-30
6.95946e-30
8.21162e-30
9.13613e-30
9.78952e-30
1.14406e-29
1.38524e-29
1.63459e-29
9.66933e-30
2.71896e-30
7.2849e-30
6.21642e-30
6.41627e-30
5.90674e-30
5.80957e-30
6.19891e-30
7.36872e-30
8.46404e-30
8.12786e-30
7.17208e-30
6.5378e-30
6.9884e-30
7.67246e-30
8.90476e-30
1.01301e-29
1.1435e-29
1.34596e-29
1.53954e-29
3.208e-30
1.49673e-29
7.02978e-30
7.55593e-30
6.53761e-30
5.70634e-30
6.01041e-30
6.53193e-30
7.43077e-30
8.45377e-30
7.92343e-30
7.21506e-30
6.58093e-30
6.01721e-30
7.2632e-30
9.826e-30
1.01116e-29
1.03826e-29
1.33232e-29
1.64797e-29
)
;

boundaryField
{
    movingWall
    {
        type            calculated;
        value           nonuniform List<scalar> 
20
(
3.208e-30
1.49673e-29
7.02978e-30
7.55593e-30
6.53761e-30
5.70634e-30
6.01041e-30
6.53193e-30
7.43077e-30
8.45377e-30
7.92343e-30
7.21506e-30
6.58093e-30
6.01721e-30
7.2632e-30
9.826e-30
1.01116e-29
1.03826e-29
1.33232e-29
1.64797e-29
)
;
    }
    fixedWalls
    {
        type            calculated;
        value           nonuniform List<scalar> 
60
(
5.00744e-31
7.86064e-30
7.51251e-30
6.65017e-30
6.74361e-30
4.41028e-30
6.14238e-30
8.00711e-30
5.00772e-30
6.97539e-30
8.23453e-30
7.12166e-30
6.91338e-30
5.7107e-30
1.01866e-29
9.27532e-30
4.35099e-30
7.75658e-30
9.66933e-30
3.208e-30
1.2716e-29
1.25826e-29
1.33004e-29
1.25311e-29
1.26874e-29
1.33513e-29
1.15706e-29
1.13882e-29
1.09279e-29
1.02103e-29
1.09628e-29
1.08325e-29
1.18638e-29
1.36269e-29
1.42066e-29
1.43696e-29
1.55123e-29
1.63459e-29
1.53954e-29
1.64797e-29
5.00744e-31
1.15576e-29
5.46448e-30
8.09727e-30
9.12718e-30
8.24378e-30
7.89905e-30
9.33453e-30
1.03642e-29
1.07649e-29
1.13204e-29
1.19846e-29
1.25208e-29
1.33892e-29
1.41658e-29
1.27587e-29
1.28902e-29
1.32474e-29
1.28501e-29
1.2716e-29
)
;
    }
    frontAndBack
    {
        type            empty;
    }
}


// ************************************************************************* //
