/*--------------------------------*- C++ -*----------------------------------*\
| =========                 |                                                 |
| \\      /  F ield         | OpenFOAM: The Open Source CFD Toolbox           |
|  \\    /   O peration     | Version:  2506                                  |
|   \\  /    A nd           | Website:  www.openfoam.com                      |
|    \\/     M anipulation  |                                                 |
\*---------------------------------------------------------------------------*/
FoamFile
{
    version     2.0;
    format      ascii;
    arch        "LSB;label=32;scalar=64";
    class       volScalarField;
    location    "8.25";
    object      pzeroGrad;
}
// * * * * * * * * * * * * * * * * * * * * * * * * * * * * * * * * * * * * * //

dimensions      [0 2 -2 0 0 0 0];

internalField   nonuniform List<scalar> 
400
(
7.07632e-16
3.39965e-15
2.33762e-15
2.84557e-15
3.02112e-15
2.8712e-15
2.81053e-15
3.05525e-15
3.21935e-15
3.28099e-15
3.36458e-15
3.46187e-15
3.53847e-15
3.65912e-15
3.76375e-15
3.57194e-15
3.5903e-15
3.6397e-15
3.5847e-15
3.56595e-15
2.80368e-15
0
2.40244e-15
2.62329e-15
2.95056e-15
2.86768e-15
2.937e-15
3.01593e-15
3.09344e-15
3.47779e-15
3.44577e-15
3.41936e-15
3.33743e-15
3.65076e-15
3.81235e-15
3.65973e-15
3.58435e-15
3.44828e-15
3.42874e-15
3.5472e-15
2.7409e-15
3.4198e-15
2.45016e-15
3.07865e-15
2.88972e-15
2.89678e-15
2.95074e-15
3.05396e-15
3.21914e-15
3.48993e-15
3.34784e-15
3.22891e-15
3.31785e-15
3.39539e-15
3.40602e-15
3.5489e-15
3.55049e-15
3.50675e-15
3.58131e-15
3.64697e-15
2.57879e-15
2.33908e-15
2.7544e-15
2.92024e-15
3.00667e-15
3.02286e-15
2.92724e-15
3.00378e-15
3.19481e-15
3.15256e-15
3.13812e-15
3.2894e-15
3.31234e-15
3.28941e-15
3.39028e-15
3.38492e-15
3.43387e-15
3.36494e-15
3.41093e-15
3.53993e-15
2.59685e-15
2.18834e-15
2.72002e-15
2.85734e-15
2.94565e-15
2.95232e-15
2.96488e-15
3.00807e-15
3.04636e-15
2.92283e-15
3.03914e-15
3.28858e-15
3.26179e-15
3.04419e-15
3.368e-15
3.22445e-15
3.01359e-15
3.11286e-15
3.2196e-15
3.56194e-15
2.10007e-15
3.48727e-15
2.68982e-15
2.82096e-15
2.83388e-15
2.82891e-15
2.85284e-15
2.88766e-15
2.89098e-15
2.8409e-15
2.83613e-15
2.82e-15
2.94374e-15
3.04635e-15
3.20804e-15
3.10697e-15
2.93503e-15
2.9294e-15
3.18104e-15
3.65395e-15
2.47838e-15
3.0611e-15
2.52294e-15
2.63547e-15
2.57017e-15
2.68617e-15
2.72139e-15
2.75119e-15
2.81231e-15
2.75209e-15
2.62421e-15
2.63739e-15
2.72305e-15
2.90409e-15
3.15571e-15
3.08189e-15
2.88344e-15
3.00001e-15
3.17619e-15
3.40156e-15
2.82968e-15
1.16855e-15
2.52314e-15
2.45575e-15
2.48761e-15
2.43545e-15
2.70074e-15
2.88065e-15
2.68961e-15
2.5631e-15
2.34834e-15
2.36774e-15
2.58666e-15
2.77809e-15
3.15305e-15
3.1531e-15
2.81203e-15
2.93452e-15
3.14424e-15
3.37464e-15
2.23779e-15
4.012e-15
2.25928e-15
2.51751e-15
2.52792e-15
2.5031e-15
2.77376e-15
2.70477e-15
2.55449e-15
2.52131e-15
2.36384e-15
2.59658e-15
2.53374e-15
2.73256e-15
3.03355e-15
3.03792e-15
2.9861e-15
3.0077e-15
3.07479e-15
3.30573e-15
2.6411e-15
1.78015e-15
2.26707e-15
2.23851e-15
2.41597e-15
2.44236e-15
2.56695e-15
2.76705e-15
2.80357e-15
2.58149e-15
2.53962e-15
2.60611e-15
2.73296e-15
2.88423e-15
3.09559e-15
3.087e-15
3.00554e-15
2.85523e-15
2.96942e-15
3.19536e-15
2.86959e-15
1.6184e-15
2.26622e-15
2.26886e-15
2.39908e-15
2.38501e-15
2.35853e-15
2.62979e-15
2.79805e-15
2.62279e-15
2.65871e-15
2.75104e-15
2.85402e-15
3.03927e-15
2.99876e-15
2.87647e-15
2.97623e-15
3.13984e-15
3.17398e-15
3.31102e-15
2.66864e-15
3.72939e-15
2.34504e-15
2.39103e-15
2.26215e-15
2.43037e-15
2.55685e-15
2.74098e-15
2.67601e-15
2.63797e-15
2.57788e-15
2.76337e-15
3.01455e-15
3.09367e-15
2.99089e-15
2.92828e-15
3.07256e-15
3.27414e-15
3.11852e-15
3.29128e-15
2.62933e-15
8.91017e-16
2.62309e-15
2.27223e-15
2.45287e-15
2.48889e-15
2.5751e-15
2.54885e-15
2.60889e-15
2.66095e-15
2.78335e-15
2.88807e-15
2.98701e-15
3.02055e-15
2.93413e-15
2.9311e-15
3.07198e-15
3.24187e-15
3.35045e-15
3.44439e-15
2.38971e-15
4.83126e-15
2.52968e-15
2.58655e-15
2.36734e-15
2.5057e-15
2.48956e-15
2.52119e-15
2.63487e-15
2.72619e-15
2.93324e-15
2.88101e-15
2.85266e-15
2.97521e-15
3.0111e-15
3.08203e-15
3.20242e-15
3.09544e-15
3.31601e-15
3.69147e-15
3.19164e-15
1.17243e-15
2.67875e-15
2.42047e-15
2.60452e-15
2.63064e-15
2.33047e-15
2.46365e-15
2.5833e-15
2.61775e-15
2.92129e-15
2.90078e-15
2.83238e-15
2.9215e-15
3.0418e-15
3.11714e-15
3.17517e-15
3.22005e-15
3.55289e-15
3.76916e-15
3.04554e-15
1.39413e-15
2.66545e-15
2.53843e-15
2.67271e-15
2.57194e-15
2.39426e-15
2.54282e-15
2.64624e-15
2.7682e-15
2.88603e-15
2.89934e-15
2.82981e-15
2.99629e-15
2.97068e-15
3.08062e-15
2.99948e-15
3.29707e-15
3.6645e-15
3.79073e-15
2.0859e-15
4.61748e-15
2.5958e-15
2.8179e-15
2.53046e-15
2.53658e-15
2.34125e-15
2.41396e-15
2.66452e-15
2.82844e-15
2.84826e-15
2.79201e-15
2.73842e-15
2.8486e-15
3.04496e-15
2.9321e-15
3.11712e-15
3.46215e-15
3.70958e-15
3.93857e-15
2.78506e-15
1.64326e-15
2.71615e-15
2.53505e-15
2.46999e-15
2.44877e-15
2.29152e-15
2.4403e-15
2.66169e-15
2.90374e-15
2.87651e-15
2.74731e-15
2.71837e-15
2.63808e-15
2.86559e-15
3.0226e-15
3.12882e-15
3.3824e-15
3.72188e-15
4.043e-15
3.10955e-15
1.64893e-15
2.69906e-15
2.49328e-15
2.53304e-15
2.43038e-15
2.4103e-15
2.48976e-15
2.71454e-15
2.9093e-15
2.85094e-15
2.67807e-15
2.55691e-15
2.64356e-15
2.76992e-15
2.98408e-15
3.18279e-15
3.38157e-15
3.66873e-15
3.92369e-15
1.79109e-15
3.86875e-15
2.65137e-15
2.74881e-15
2.55687e-15
2.38879e-15
2.45161e-15
2.55576e-15
2.72594e-15
2.90754e-15
2.81486e-15
2.68609e-15
2.56533e-15
2.453e-15
2.69503e-15
3.13464e-15
3.17988e-15
3.2222e-15
3.65009e-15
4.05952e-15
)
;

boundaryField
{
    movingWall
    {
        type            zeroGradient;
    }
    fixedWalls
    {
        type            zeroGradient;
    }
    frontAndBack
    {
        type            empty;
    }
}


// ************************************************************************* //
