/*--------------------------------*- C++ -*----------------------------------*\
| =========                 |                                                 |
| \\      /  F ield         | OpenFOAM: The Open Source CFD Toolbox           |
|  \\    /   O peration     | Version:  2506                                  |
|   \\  /    A nd           | Website:  www.openfoam.com                      |
|    \\/     M anipulation  |                                                 |
\*---------------------------------------------------------------------------*/
FoamFile
{
    version     2.0;
    format      ascii;
    arch        "LSB;label=32;scalar=64";
    class       volScalarField;
    location    "8.25";
    object      QField;
}
// * * * * * * * * * * * * * * * * * * * * * * * * * * * * * * * * * * * * * //

dimensions      [0 0 -2 0 0 0 0];

internalField   nonuniform List<scalar> 
400
(
-1.14996e-24
-1.29844e-24
3.98743e-27
1.42111e-26
-5.10681e-27
0
0
0
-1.20852e-28
-1.08029e-27
-9.05158e-28
0
-4.73262e-28
-5.12986e-28
0
5.12444e-28
8.63322e-28
-5.21806e-29
0
0
-2.62107e-24
-1.90779e-24
-1.95819e-25
1.61742e-26
-2.52339e-28
-1.30449e-27
-2.1811e-29
-2.34829e-28
-8.5552e-28
-9.4751e-28
6.88188e-28
1.26631e-27
-1.00022e-27
2.37224e-28
-1.64398e-27
-9.45571e-28
0
-9.18575e-28
-2.2313e-27
0
-9.69598e-24
-3.74939e-24
1.13254e-26
-2.8268e-26
1.39147e-27
0
-1.61897e-28
3.20577e-28
0
-1.59341e-28
5.86107e-28
-7.20054e-28
-1.07821e-27
-5.2778e-28
-1.43145e-27
6.07628e-28
1.48619e-27
2.01342e-27
-6.29697e-28
0
-1.0748e-23
-2.59545e-24
-2.1423e-25
8.62353e-27
-5.30418e-27
1.0242e-27
-3.0791e-28
-6.13179e-30
3.14879e-28
1.56008e-27
2.17678e-27
-2.00933e-28
9.7623e-28
0
0
1.55037e-28
4.414e-28
-2.23806e-28
0
-1.05336e-28
-6.37681e-24
-1.89276e-24
-7.34194e-26
-9.64074e-27
1.42226e-28
0
0
0
0
0
-1.61391e-28
-5.2771e-27
-9.50467e-28
-8.24593e-28
4.84886e-28
-7.55066e-28
-4.89085e-28
2.36111e-28
9.68253e-29
-2.21121e-28
-4.3681e-24
-1.46698e-24
-9.52611e-26
-1.63031e-27
-1.43081e-27
0
0
0
-2.39852e-28
9.8579e-28
4.57041e-28
2.06143e-28
1.80275e-27
6.06001e-28
-3.58096e-28
0
3.81845e-28
0
0
-6.61001e-28
-4.22168e-24
-2.03885e-24
6.05672e-26
-2.84175e-26
8.24805e-27
-5.72484e-28
-6.62903e-28
8.8971e-28
-6.00246e-29
-5.26723e-28
1.67895e-28
-1.38201e-28
0
-5.56171e-28
-4.6162e-28
1.30792e-27
7.83448e-29
8.60813e-29
4.15236e-28
-2.95637e-28
-2.17976e-24
-8.09218e-25
-2.36848e-26
3.3219e-27
-1.51028e-27
2.43701e-28
-1.73875e-28
2.81047e-27
3.4596e-28
-2.47764e-28
-6.86188e-28
-2.75951e-27
0
2.90216e-28
-2.88382e-30
3.19416e-28
-1.10445e-27
-5.04532e-28
0
0
-1.52303e-24
-7.43818e-25
-5.30461e-26
-5.37161e-27
1.96532e-27
2.28504e-28
-9.88175e-29
8.42405e-28
-3.8646e-27
-9.03172e-28
-2.51455e-27
5.08798e-28
-6.5173e-28
4.54223e-28
4.81105e-28
0
7.27749e-28
3.64876e-28
1.23593e-28
2.79324e-28
2.43278e-24
2.69377e-26
1.49078e-25
9.05272e-27
-4.7488e-27
1.82783e-27
8.87641e-28
4.10827e-27
1.38517e-27
5.86796e-28
1.33878e-28
1.01851e-28
5.36335e-29
0
1.19454e-27
1.44971e-28
0
-2.13787e-27
-7.59657e-28
7.17728e-29
7.65801e-24
1.5172e-24
1.65764e-25
4.11569e-27
2.40895e-27
0
-5.05618e-28
-1.45224e-28
1.41415e-28
2.1285e-27
3.85277e-28
3.40773e-29
-2.0428e-28
-1.93331e-27
-4.69403e-28
1.50822e-27
1.61543e-27
-6.6301e-28
3.49156e-28
5.28292e-30
4.67428e-24
1.06326e-24
6.92399e-26
-3.67117e-27
1.70916e-27
2.33658e-28
1.50004e-27
1.10867e-27
-1.36365e-27
-1.03428e-27
-6.62337e-28
-4.11684e-28
-3.3087e-28
3.03548e-28
1.49557e-28
-2.9708e-29
-1.58271e-27
-2.08217e-27
-1.8189e-28
0
5.43437e-24
1.185e-24
5.63833e-26
8.29459e-27
1.34092e-27
1.16345e-27
5.16215e-28
-1.27648e-27
-7.17359e-28
-9.06071e-28
-4.31378e-28
1.59723e-27
1.65694e-27
2.91609e-28
1.20027e-28
2.15574e-28
9.15009e-28
-3.80021e-28
3.54645e-28
0
9.6535e-24
2.03895e-24
1.19811e-25
1.63573e-27
1.45091e-27
0
0
0
-1.97079e-28
2.18089e-28
3.60417e-32
-2.62725e-28
7.7171e-29
1.7379e-28
1.76076e-28
-8.65849e-29
0
-2.28066e-27
-1.96699e-29
-3.422e-28
1.02048e-23
1.60833e-24
2.71411e-25
2.65723e-27
3.5629e-27
-4.67101e-28
1.91784e-28
1.88999e-29
-2.71145e-28
-1.36754e-27
-2.00486e-28
-3.40883e-28
-5.40586e-29
5.94871e-29
2.20984e-28
2.88901e-28
4.0846e-28
7.74133e-29
-1.41807e-28
2.00008e-28
3.43293e-24
1.8095e-25
9.66003e-26
2.6559e-26
7.05749e-29
0
-3.69379e-28
7.61387e-28
1.61779e-27
2.81834e-28
-2.90689e-28
-1.9427e-28
-2.39805e-28
1.19911e-28
-4.07396e-28
0
0
2.58169e-28
2.2396e-28
0
-2.16655e-24
-4.52901e-25
-1.02091e-25
1.53137e-26
-1.97355e-27
3.76423e-28
-1.45727e-27
-1.05572e-27
7.18421e-28
-1.89256e-28
-4.70573e-28
-5.02835e-28
4.76789e-29
5.12809e-28
1.82762e-28
-5.90413e-28
-2.47456e-28
-6.12107e-28
3.18264e-29
0
-4.47956e-24
-1.71287e-24
5.33835e-26
4.02084e-27
1.43712e-27
0
-1.12128e-28
1.14187e-27
9.37955e-28
3.8666e-28
4.00002e-28
-2.90223e-29
-2.31199e-28
-6.56915e-28
0
-4.53401e-28
2.81412e-28
4.45577e-28
2.48505e-28
-2.12114e-28
-3.53075e-24
-1.15909e-24
7.55473e-26
-5.48336e-27
2.87162e-27
2.82052e-29
-1.47816e-28
0
0
0
0
-6.85904e-28
-8.99727e-28
3.09587e-28
-2.33215e-28
0
-3.14329e-28
0
4.92742e-29
-9.78014e-32
-3.01211e-25
-4.59435e-25
-6.71472e-26
3.74286e-27
-1.56293e-27
-6.59338e-28
-1.7467e-27
0
2.37983e-28
0
0
0
5.871e-28
1.58301e-28
0
0
-4.20387e-28
-2.15022e-28
-2.07278e-29
-2.08256e-29
)
;

boundaryField
{
    movingWall
    {
        type            calculated;
        value           nonuniform List<scalar> 
20
(
1.01881e-24
7.17584e-25
-2.3451e-25
2.838e-26
-6.94263e-27
-2.09864e-27
-4.38537e-27
4.59211e-28
1.94956e-27
-1.78891e-28
-1.20407e-27
6.6191e-28
8.76185e-28
4.03469e-28
0
0
-3.5247e-28
-9.74944e-28
-3.93217e-28
-2.76015e-28
)
;
    }
    fixedWalls
    {
        type            calculated;
        value           nonuniform List<scalar> 
60
(
-1.54275e-23
-2.77499e-23
-4.82444e-23
-5.29243e-23
-3.31247e-23
-2.6068e-23
-2.13329e-23
-1.33085e-23
-9.67873e-24
1.22112e-23
3.75864e-23
2.31842e-23
2.51176e-23
4.57859e-23
5.04975e-23
1.45394e-23
-1.34767e-23
-2.11466e-23
-2.13613e-23
-5.29144e-24
-4.83312e-28
0
0
-8.52213e-29
-6.48315e-28
-1.48707e-27
-8.18578e-28
0
2.44974e-28
-8.6079e-29
4.64252e-29
5.71618e-28
0
-5.6066e-28
-1.96735e-29
0
0
-3.47527e-28
-2.55976e-29
2.41894e-28
7.58707e-24
6.34352e-24
-1.02411e-24
1.08973e-25
-2.21222e-26
3.18783e-27
-1.16344e-27
8.16808e-28
-3.32728e-28
-2.33294e-27
-3.68254e-27
-3.05951e-27
-9.38447e-28
-2.29082e-29
0
-9.4516e-28
-7.07233e-28
-1.1428e-27
4.844e-28
-4.34511e-28
)
;
    }
    frontAndBack
    {
        type            empty;
    }
}


// ************************************************************************* //
