/*--------------------------------*- C++ -*----------------------------------*\
| =========                 |                                                 |
| \\      /  F ield         | OpenFOAM: The Open Source CFD Toolbox           |
|  \\    /   O peration     | Version:  2506                                  |
|   \\  /    A nd           | Website:  www.openfoam.com                      |
|    \\/     M anipulation  |                                                 |
\*---------------------------------------------------------------------------*/
FoamFile
{
    version     2.0;
    format      ascii;
    arch        "LSB;label=32;scalar=64";
    class       volVectorField;
    location    "8.25";
    object      vorticityField;
}
// * * * * * * * * * * * * * * * * * * * * * * * * * * * * * * * * * * * * * //

dimensions      [0 0 -1 0 0 0 0];

internalField   nonuniform List<vector> 
400
(
(0 -0 7.21227e-12)
(0 -0 -8.7787e-12)
(0 -0 1.90896e-12)
(0 -0 -4.76663e-13)
(0 -0 5.8866e-14)
(0 -0 -2.39279e-14)
(0 -0 8.73275e-15)
(0 -0 -6.13096e-15)
(0 -0 -2.10601e-14)
(0 -0 -5.91308e-15)
(0 -0 -9.0467e-15)
(0 -0 1.72235e-14)
(0 -0 -3.40919e-15)
(0 -0 -4.55852e-14)
(0 -0 -9.27535e-15)
(0 -0 6.23463e-14)
(0 -0 7.01356e-14)
(0 -0 8.40736e-14)
(0 -0 -1.09077e-14)
(0 -0 -4.89216e-15)
(0 -0 -4.67652e-13)
(0 -0 3.33411e-13)
(0 -0 1.44563e-13)
(0 -0 1.81598e-13)
(0 -0 7.82119e-14)
(0 -0 6.52728e-14)
(0 -0 8.10469e-14)
(0 -0 7.84273e-14)
(0 -0 3.87482e-14)
(0 -0 6.96629e-14)
(0 -0 1.15182e-13)
(0 -0 9.6888e-14)
(0 -0 9.85351e-14)
(0 -0 3.58571e-14)
(0 -0 4.74159e-14)
(0 -0 -3.01838e-15)
(0 -0 -8.35838e-15)
(0 -0 -5.00136e-14)
(0 -0 -4.7344e-15)
(0 -0 1.76339e-14)
(0 -0 -3.19196e-12)
(0 -0 5.64852e-12)
(0 -0 -1.32177e-12)
(0 -0 2.12413e-13)
(0 -0 -9.76056e-14)
(0 -0 1.05922e-14)
(0 -0 -7.74717e-15)
(0 -0 -8.52576e-14)
(0 -0 6.98506e-15)
(0 -0 -3.07211e-14)
(0 -0 -4.87286e-14)
(0 -0 -4.10597e-14)
(0 -0 -6.80555e-14)
(0 -0 2.67282e-14)
(0 -0 -4.15444e-14)
(0 -0 -8.87877e-14)
(0 -0 -8.41263e-14)
(0 -0 -1.06076e-13)
(0 -0 -1.35231e-14)
(0 -0 2.64573e-14)
(0 -0 2.82441e-12)
(0 -0 -4.49809e-12)
(0 -0 8.84135e-13)
(0 -0 -3.07953e-13)
(0 -0 -5.94978e-14)
(0 -0 -1.17867e-13)
(0 -0 -1.35193e-13)
(0 -0 -5.63255e-14)
(0 -0 -1.11654e-13)
(0 -0 -1.22809e-13)
(0 -0 -1.26666e-13)
(0 -0 -7.88441e-14)
(0 -0 7.22184e-14)
(0 -0 1.30647e-14)
(0 -0 1.8409e-14)
(0 -0 3.28249e-14)
(0 -0 -4.53168e-14)
(0 -0 1.88481e-14)
(0 -0 3.80786e-15)
(0 -0 -2.35415e-14)
(0 -0 -2.1603e-12)
(0 -0 1.48365e-12)
(0 -0 -3.8527e-13)
(0 -0 3.64577e-14)
(0 -0 -3.23523e-14)
(0 -0 -2.72319e-15)
(0 -0 -5.10549e-15)
(0 -0 7.07386e-15)
(0 -0 9.46645e-15)
(0 -0 2.39371e-15)
(0 -0 2.11508e-14)
(0 -0 -3.80265e-14)
(0 -0 -6.92176e-15)
(0 -0 2.23771e-15)
(0 -0 8.11727e-15)
(0 -0 8.58436e-15)
(0 -0 -2.85083e-14)
(0 -0 -3.5816e-14)
(0 -0 -3.06773e-14)
(0 -0 -1.89471e-14)
(0 -0 -1.36719e-12)
(0 -0 2.25011e-12)
(0 -0 -4.81386e-13)
(0 -0 1.26763e-13)
(0 -0 -1.92414e-15)
(0 -0 -5.22875e-16)
(0 -0 -9.83817e-15)
(0 -0 -6.48527e-15)
(0 -0 3.73116e-15)
(0 -0 7.31698e-14)
(0 -0 4.39669e-14)
(0 -0 1.55719e-14)
(0 -0 -8.7465e-14)
(0 -0 -4.94625e-14)
(0 -0 -5.35174e-14)
(0 -0 1.38853e-14)
(0 -0 3.68669e-14)
(0 -0 1.46327e-15)
(0 -0 8.63692e-15)
(0 -0 2.57264e-14)
(0 -0 3.43344e-12)
(0 -0 -4.86092e-12)
(0 -0 1.16906e-12)
(0 -0 -1.52906e-13)
(0 -0 1.96984e-13)
(0 -0 1.02666e-14)
(0 -0 1.02306e-13)
(0 -0 1.147e-13)
(0 -0 1.13887e-13)
(0 -0 5.28629e-14)
(0 -0 8.33799e-14)
(0 -0 2.20063e-14)
(0 -0 -1.60447e-14)
(0 -0 6.58597e-15)
(0 -0 2.39349e-14)
(0 -0 9.73997e-14)
(0 -0 9.10251e-14)
(0 -0 3.02809e-14)
(0 -0 6.18699e-14)
(0 -0 1.6198e-14)
(0 -0 -1.91094e-12)
(0 -0 2.77095e-12)
(0 -0 -5.89683e-13)
(0 -0 1.49662e-13)
(0 -0 2.63503e-14)
(0 -0 8.626e-14)
(0 -0 2.06902e-14)
(0 -0 1.50651e-13)
(0 -0 3.98687e-14)
(0 -0 1.79642e-14)
(0 -0 -4.65941e-14)
(0 -0 4.09662e-14)
(0 -0 -5.65181e-15)
(0 -0 -6.39087e-14)
(0 -0 -3.93319e-14)
(0 -0 -8.74799e-14)
(0 -0 -4.06307e-14)
(0 -0 -8.4911e-15)
(0 -0 6.0612e-15)
(0 -0 -1.72238e-15)
(0 -0 -1.53945e-12)
(0 -0 3.15578e-12)
(0 -0 -7.20162e-13)
(0 -0 7.74073e-14)
(0 -0 -1.23501e-13)
(0 -0 -3.55354e-14)
(0 -0 -4.4328e-14)
(0 -0 -6.97497e-14)
(0 -0 6.50531e-16)
(0 -0 6.51936e-15)
(0 -0 -5.8405e-14)
(0 -0 -6.31546e-15)
(0 -0 3.71882e-16)
(0 -0 6.96435e-14)
(0 -0 6.30849e-14)
(0 -0 -3.04281e-15)
(0 -0 6.76347e-14)
(0 -0 4.16862e-14)
(0 -0 -4.62272e-15)
(0 -0 -3.74103e-14)
(0 -0 4.98981e-12)
(0 -0 -5.29029e-12)
(0 -0 1.23489e-12)
(0 -0 -3.06929e-13)
(0 -0 -6.46203e-14)
(0 -0 -1.26078e-13)
(0 -0 -1.17993e-13)
(0 -0 -2.20689e-13)
(0 -0 -1.27982e-13)
(0 -0 -8.85315e-14)
(0 -0 -3.20443e-14)
(0 -0 -5.77785e-14)
(0 -0 -5.51995e-14)
(0 -0 2.08404e-14)
(0 -0 7.63183e-14)
(0 -0 5.75677e-14)
(0 -0 -5.52713e-15)
(0 -0 -1.96246e-15)
(0 -0 -2.1974e-14)
(0 -0 2.9753e-14)
(0 -0 -5.17598e-12)
(0 -0 3.75371e-12)
(0 -0 -9.23459e-13)
(0 -0 1.79e-13)
(0 -0 -1.1094e-13)
(0 -0 4.57549e-15)
(0 -0 -1.94291e-14)
(0 -0 -7.52536e-14)
(0 -0 -7.06868e-14)
(0 -0 -1.02285e-13)
(0 -0 -9.34642e-14)
(0 -0 -8.68905e-14)
(0 -0 -1.95685e-14)
(0 -0 -3.9026e-14)
(0 -0 -7.55425e-14)
(0 -0 -1.20387e-13)
(0 -0 -1.2197e-13)
(0 -0 -1.51935e-14)
(0 -0 4.68646e-14)
(0 -0 -2.40538e-14)
(0 -0 2.97664e-12)
(0 -0 -2.3245e-12)
(0 -0 5.66918e-13)
(0 -0 -1.11932e-15)
(0 -0 1.09935e-13)
(0 -0 5.85203e-14)
(0 -0 9.97624e-14)
(0 -0 1.43286e-13)
(0 -0 6.45452e-14)
(0 -0 6.85957e-14)
(0 -0 1.03331e-13)
(0 -0 4.66159e-14)
(0 -0 3.1126e-14)
(0 -0 6.61484e-14)
(0 -0 3.26227e-14)
(0 -0 5.36621e-14)
(0 -0 3.02384e-14)
(0 -0 8.08311e-14)
(0 -0 -1.06644e-14)
(0 -0 -9.83811e-16)
(0 -0 -9.84729e-13)
(0 -0 1.16442e-12)
(0 -0 -2.40929e-13)
(0 -0 9.55471e-14)
(0 -0 8.50313e-14)
(0 -0 7.56719e-14)
(0 -0 6.37326e-14)
(0 -0 4.64519e-14)
(0 -0 4.09772e-14)
(0 -0 3.7496e-14)
(0 -0 7.60102e-14)
(0 -0 1.23152e-13)
(0 -0 1.47751e-13)
(0 -0 8.49013e-14)
(0 -0 8.72907e-14)
(0 -0 9.54812e-14)
(0 -0 9.25678e-14)
(0 -0 -2.22063e-14)
(0 -0 -3.07952e-14)
(0 -0 1.92783e-14)
(0 -0 -2.40652e-12)
(0 -0 1.88691e-12)
(0 -0 -5.30701e-13)
(0 -0 6.196e-15)
(0 -0 -6.42576e-14)
(0 -0 2.1647e-14)
(0 -0 7.38674e-15)
(0 -0 6.68791e-15)
(0 -0 1.2237e-14)
(0 -0 -6.49753e-14)
(0 -0 -9.80132e-14)
(0 -0 -8.31145e-14)
(0 -0 -2.99522e-14)
(0 -0 -3.35168e-14)
(0 -0 -3.36011e-14)
(0 -0 -2.39106e-14)
(0 -0 6.38556e-15)
(0 -0 -5.80224e-14)
(0 -0 -1.95808e-15)
(0 -0 1.74143e-14)
(0 -0 6.47997e-12)
(0 -0 -6.04184e-12)
(0 -0 1.38445e-12)
(0 -0 -2.64037e-13)
(0 -0 1.23221e-13)
(0 -0 3.06653e-14)
(0 -0 3.32206e-14)
(0 -0 2.78023e-14)
(0 -0 3.00453e-14)
(0 -0 5.52714e-14)
(0 -0 5.05118e-14)
(0 -0 4.79219e-14)
(0 -0 -4.61431e-15)
(0 -0 -5.55014e-14)
(0 -0 -5.82865e-14)
(0 -0 -5.95394e-14)
(0 -0 -6.17449e-14)
(0 -0 -2.58548e-15)
(0 -0 1.24185e-14)
(0 -0 3.44841e-14)
(0 -0 -5.70711e-12)
(0 -0 6.39108e-12)
(0 -0 -1.39442e-12)
(0 -0 3.95174e-13)
(0 -0 -4.86681e-14)
(0 -0 1.9936e-14)
(0 -0 -2.42705e-14)
(0 -0 -8.8051e-14)
(0 -0 -1.0121e-13)
(0 -0 -5.9409e-14)
(0 -0 -4.88478e-14)
(0 -0 -5.06265e-14)
(0 -0 -5.32174e-14)
(0 -0 -5.51854e-15)
(0 -0 4.51416e-15)
(0 -0 6.35025e-15)
(0 -0 -7.09286e-15)
(0 -0 -6.35162e-16)
(0 -0 5.83415e-14)
(0 -0 8.94916e-15)
(0 -0 9.20918e-13)
(0 -0 -1.73336e-12)
(0 -0 2.6298e-13)
(0 -0 -1.60253e-13)
(0 -0 -5.23009e-14)
(0 -0 -8.59443e-14)
(0 -0 -1.08469e-13)
(0 -0 -5.65511e-14)
(0 -0 -9.01502e-14)
(0 -0 -7.89877e-14)
(0 -0 -4.55296e-14)
(0 -0 -5.47949e-14)
(0 -0 -2.88641e-14)
(0 -0 -6.36698e-14)
(0 -0 -3.86595e-14)
(0 -0 -2.67447e-14)
(0 -0 -1.79755e-14)
(0 -0 -1.80505e-14)
(0 -0 -5.47972e-14)
(0 -0 1.33228e-14)
(0 -0 3.34739e-12)
(0 -0 -4.71728e-12)
(0 -0 1.03896e-12)
(0 -0 -2.42135e-13)
(0 -0 6.5286e-14)
(0 -0 -2.1275e-14)
(0 -0 5.77671e-14)
(0 -0 7.52738e-14)
(0 -0 7.15123e-14)
(0 -0 9.30069e-14)
(0 -0 6.39113e-14)
(0 -0 5.36747e-14)
(0 -0 -1.14273e-14)
(0 -0 3.99115e-14)
(0 -0 -1.34978e-14)
(0 -0 2.50009e-14)
(0 -0 3.74873e-14)
(0 -0 8.67948e-14)
(0 -0 5.60474e-14)
(0 -0 2.00698e-15)
(0 -0 -3.57093e-12)
(0 -0 4.31897e-12)
(0 -0 -1.03153e-12)
(0 -0 1.75195e-13)
(0 -0 -1.07182e-13)
(0 -0 -2.81456e-14)
(0 -0 -2.16516e-14)
(0 -0 2.0777e-14)
(0 -0 1.42878e-14)
(0 -0 -4.89478e-15)
(0 -0 -8.2131e-15)
(0 -0 3.29998e-15)
(0 -0 -2.8419e-14)
(0 -0 -3.85268e-14)
(0 -0 1.85009e-14)
(0 -0 1.97901e-15)
(0 -0 7.48884e-15)
(0 -0 6.36178e-15)
(0 -0 -5.26426e-14)
(0 -0 -2.71014e-14)
(0 -0 -1.11971e-12)
(0 -0 1.93993e-12)
(0 -0 -2.33727e-13)
(0 -0 1.1587e-13)
(0 -0 3.76056e-14)
(0 -0 2.30341e-14)
(0 -0 2.17924e-14)
(0 -0 3.44684e-15)
(0 -0 3.58851e-14)
(0 -0 -1.00707e-15)
(0 -0 -6.77829e-15)
(0 -0 2.98098e-15)
(0 -0 6.7521e-14)
(0 -0 3.30257e-14)
(0 -0 -7.45868e-15)
(0 -0 7.28922e-16)
(0 -0 1.04229e-14)
(0 -0 -5.20524e-14)
(0 -0 -7.55506e-15)
(0 -0 3.05155e-14)
)
;

boundaryField
{
    movingWall
    {
        type            calculated;
        value           nonuniform List<vector> 
20
(
(0 -0 -1.70852e-12)
(0 -0 2.51954e-12)
(0 -0 2.08064e-13)
(0 -0 3.99627e-13)
(0 -0 3.38667e-13)
(0 -0 2.62383e-13)
(0 -0 2.61141e-13)
(0 -0 1.36674e-13)
(0 -0 2.30825e-13)
(0 -0 1.76629e-13)
(0 -0 1.70857e-13)
(0 -0 2.25026e-13)
(0 -0 1.46538e-13)
(0 -0 5.03296e-14)
(0 -0 -7.45868e-15)
(0 -0 7.28922e-16)
(0 -0 1.04229e-14)
(0 -0 -8.66601e-14)
(0 -0 3.68539e-14)
(0 -0 4.78194e-14)
)
;
    }
    fixedWalls
    {
        type            calculated;
        value           nonuniform List<vector> 
60
(
(0 -0 3.71749e-11)
(0 -0 -3.28127e-13)
(0 -0 -2.44696e-11)
(0 -0 1.8668e-11)
(0 -0 -6.98346e-12)
(0 -0 -9.6012e-12)
(0 -0 2.11718e-11)
(0 -0 -1.13816e-11)
(0 -0 -1.32119e-11)
(0 -0 2.27677e-11)
(0 -0 -1.63922e-11)
(0 -0 1.00374e-11)
(0 -0 -5.12337e-12)
(0 -0 -8.2152e-12)
(0 -0 2.60742e-11)
(0 -0 -2.72369e-11)
(0 -0 6.51741e-12)
(0 -0 2.02364e-11)
(0 -0 -1.82799e-11)
(0 -0 -8.01775e-12)
(0 -0 1.46885e-15)
(0 -0 2.02976e-14)
(0 -0 1.71062e-14)
(0 -0 -2.44895e-14)
(0 -0 -1.12893e-14)
(0 -0 9.93823e-15)
(0 -0 -3.09516e-15)
(0 -0 -2.41803e-15)
(0 -0 -3.64534e-14)
(0 -0 2.39293e-14)
(0 -0 -2.88178e-14)
(0 -0 9.80907e-15)
(0 -0 4.9774e-14)
(0 -0 3.10651e-14)
(0 -0 2.63792e-14)
(0 -0 1.81316e-14)
(0 -0 3.22468e-14)
(0 -0 2.51082e-16)
(0 -0 -2.61607e-14)
(0 -0 4.28759e-14)
(0 -0 8.29019e-12)
(0 -0 -9.83701e-12)
(0 -0 1.49948e-12)
(0 -0 -6.71602e-13)
(0 -0 -9.16646e-14)
(0 -0 -1.57155e-13)
(0 -0 -1.24494e-13)
(0 -0 -1.39358e-13)
(0 -0 -2.10601e-14)
(0 -0 -5.91308e-15)
(0 -0 -1.59577e-13)
(0 -0 -1.60412e-13)
(0 -0 -1.36636e-13)
(0 -0 -6.28891e-14)
(0 -0 -9.27535e-15)
(0 -0 -3.62727e-14)
(0 -0 -2.84834e-14)
(0 -0 2.75846e-15)
(0 -0 -5.53166e-14)
(0 -0 8.39257e-14)
)
;
    }
    frontAndBack
    {
        type            empty;
    }
}


// ************************************************************************* //
