/*--------------------------------*- C++ -*----------------------------------*\
| =========                 |                                                 |
| \\      /  F ield         | OpenFOAM: The Open Source CFD Toolbox           |
|  \\    /   O peration     | Version:  2506                                  |
|   \\  /    A nd           | Website:  www.openfoam.com                      |
|    \\/     M anipulation  |                                                 |
\*---------------------------------------------------------------------------*/
FoamFile
{
    version     2.0;
    format      ascii;
    arch        "LSB;label=32;scalar=64";
    class       volVectorField;
    location    "8.25";
    object      zeroGradient(U);
}
// * * * * * * * * * * * * * * * * * * * * * * * * * * * * * * * * * * * * * //

dimensions      [0 1 -1 0 0 0 0];

internalField   nonuniform List<vector> 
400
(
(-1 9.34116e-14 0)
(-1 -1.93916e-14 0)
(-1 4.81151e-15 0)
(-1 -8.44025e-16 0)
(-1 3.15933e-16 0)
(-1 1.56853e-17 0)
(-1 7.6654e-17 0)
(-1 1.03013e-16 0)
(-1 1.53444e-17 0)
(-1 -1.07588e-16 0)
(-1 -4.37864e-17 0)
(-1 7.29957e-17 0)
(-1 1.28449e-16 0)
(-1 3.89038e-17 0)
(-1 -5.63531e-17 0)
(-1 -5.38496e-17 0)
(-1 2.50091e-17 0)
(-1 1.05405e-16 0)
(-1 5.25937e-17 0)
(-1 -3.67211e-18 0)
(-1 4.67173e-16 0)
(-1 6.26878e-18 0)
(-1 2.77627e-16 0)
(-1 9.66418e-17 0)
(-1 1.96251e-16 0)
(-1 6.56096e-17 0)
(-1 3.58277e-17 0)
(-1 6.29273e-17 0)
(-1 6.94887e-18 0)
(-1 -9.16914e-17 0)
(-1 -1.09574e-16 0)
(-1 -2.4073e-17 0)
(-1 4.61541e-17 0)
(-1 1.48126e-16 0)
(-1 1.33674e-16 0)
(-1 8.01838e-17 0)
(-1 1.0349e-16 0)
(-1 -3.40002e-18 0)
(-1 -1.25595e-16 0)
(-1 -5.0744e-17 0)
(-1 -6.62563e-14 0)
(-1 1.40079e-14 0)
(-1 -3.26588e-15 0)
(-1 7.90185e-16 0)
(-1 -5.7547e-17 0)
(-1 8.51798e-17 0)
(-1 4.83746e-17 0)
(-1 7.70807e-18 0)
(-1 8.95065e-18 0)
(-1 7.75587e-17 0)
(-1 -2.72094e-17 0)
(-1 -1.38677e-16 0)
(-1 -1.66756e-16 0)
(-1 -6.07969e-18 0)
(-1 1.00525e-16 0)
(-1 1.20577e-16 0)
(-1 2.58001e-17 0)
(-1 -1.78585e-16 0)
(-1 -2.21807e-16 0)
(-1 -4.27656e-17 0)
(-1 4.92451e-14 0)
(-1 -1.0701e-14 0)
(-1 2.3668e-15 0)
(-1 -5.04429e-16 0)
(-1 1.00429e-16 0)
(-1 -1.52042e-17 0)
(-1 5.96294e-18 0)
(-1 -1.18819e-17 0)
(-1 -1.51908e-17 0)
(-1 -4.42182e-17 0)
(-1 -1.59083e-16 0)
(-1 -2.26673e-16 0)
(-1 -1.34372e-16 0)
(-1 -4.65903e-17 0)
(-1 -3.72554e-18 0)
(-1 1.375e-16 0)
(-1 5.34729e-17 0)
(-1 -4.46174e-17 0)
(-1 -2.9097e-17 0)
(-1 -6.5388e-18 0)
(-1 -1.52225e-14 0)
(-1 2.56412e-15 0)
(-1 -9.28059e-16 0)
(-1 6.66652e-17 0)
(-1 -2.13808e-17 0)
(-1 1.41932e-17 0)
(-1 -4.86127e-17 0)
(-1 -3.68617e-17 0)
(-1 2.21259e-17 0)
(-1 5.78028e-17 0)
(-1 4.6063e-17 0)
(-1 -1.74009e-18 0)
(-1 -6.3151e-17 0)
(-1 -7.09577e-17 0)
(-1 -4.07739e-17 0)
(-1 1.0215e-17 0)
(-1 4.50697e-17 0)
(-1 -3.81713e-18 0)
(-1 -4.20399e-17 0)
(-1 -3.95393e-17 0)
(-1 -2.56293e-14 0)
(-1 5.4522e-15 0)
(-1 -1.23085e-15 0)
(-1 3.67295e-16 0)
(-1 3.67739e-17 0)
(-1 7.70031e-17 0)
(-1 3.15452e-17 0)
(-1 -2.13785e-17 0)
(-1 -3.33075e-17 0)
(-1 1.5933e-17 0)
(-1 1.5629e-16 0)
(-1 1.84551e-16 0)
(-1 4.09581e-17 0)
(-1 -1.47997e-16 0)
(-1 -1.82617e-16 0)
(-1 -1.4107e-16 0)
(-1 -4.37633e-17 0)
(-1 -4.34521e-17 0)
(-1 -2.91306e-17 0)
(-1 4.29171e-17 0)
(-1 5.52334e-14 0)
(-1 -1.16833e-14 0)
(-1 2.82947e-15 0)
(-1 -5.34814e-16 0)
(-1 2.16203e-16 0)
(-1 7.97763e-17 0)
(-1 4.78188e-17 0)
(-1 1.86343e-17 0)
(-1 1.10616e-16 0)
(-1 7.33049e-17 0)
(-1 9.71438e-17 0)
(-1 9.39524e-17 0)
(-1 4.61568e-17 0)
(-1 -6.64949e-17 0)
(-1 -1.59034e-16 0)
(-1 -9.81967e-17 0)
(-1 1.81173e-18 0)
(-1 -1.09704e-18 0)
(-1 3.35701e-17 0)
(-1 7.55005e-17 0)
(-1 -2.94704e-14 0)
(-1 6.29525e-15 0)
(-1 -1.21875e-15 0)
(-1 3.98426e-16 0)
(-1 6.81739e-18 0)
(-1 1.19828e-16 0)
(-1 5.6266e-17 0)
(-1 5.56793e-17 0)
(-1 2.0752e-16 0)
(-1 1.83316e-16 0)
(-1 1.16111e-16 0)
(-1 -1.15746e-17 0)
(-1 -1.63277e-17 0)
(-1 -6.80927e-17 0)
(-1 -1.13314e-16 0)
(-1 -1.90361e-16 0)
(-1 -1.74961e-16 0)
(-1 -5.4567e-17 0)
(-1 1.11788e-17 0)
(-1 6.04506e-18 0)
(-1 -3.6079e-14 0)
(-1 8.48719e-15 0)
(-1 -1.5396e-15 0)
(-1 7.43468e-16 0)
(-1 4.76248e-17 0)
(-1 5.05583e-17 0)
(-1 -3.66782e-17 0)
(-1 -1.21672e-16 0)
(-1 -1.92074e-16 0)
(-1 -1.15166e-16 0)
(-1 -1.26881e-16 0)
(-1 -1.57115e-16 0)
(-1 -1.90035e-16 0)
(-1 -1.53396e-16 0)
(-1 -3.57015e-17 0)
(-1 -6.46481e-17 0)
(-1 -6.61295e-17 0)
(-1 6.9598e-17 0)
(-1 7.96817e-17 0)
(-1 2.33708e-17 0)
(-1 5.54962e-14 0)
(-1 -1.12902e-14 0)
(-1 2.86438e-15 0)
(-1 -2.96549e-16 0)
(-1 3.37189e-16 0)
(-1 1.41451e-16 0)
(-1 1.6061e-16 0)
(-1 4.57234e-17 0)
(-1 -1.48926e-16 0)
(-1 -1.49896e-16 0)
(-1 -2.21089e-16 0)
(-1 -1.99288e-16 0)
(-1 -2.56774e-16 0)
(-1 -2.09182e-16 0)
(-1 -4.83698e-17 0)
(-1 1.19003e-17 0)
(-1 -1.47943e-17 0)
(-1 -4.3371e-17 0)
(-1 -3.44189e-17 0)
(-1 7.93939e-18 0)
(-1 -3.50173e-14 0)
(-1 7.10998e-15 0)
(-1 -1.54595e-15 0)
(-1 3.1484e-16 0)
(-1 -2.70058e-17 0)
(-1 1.85909e-17 0)
(-1 1.87491e-17 0)
(-1 9.53503e-17 0)
(-1 7.93644e-17 0)
(-1 -6.94167e-17 0)
(-1 -1.30333e-16 0)
(-1 -1.90907e-16 0)
(-1 -1.86086e-16 0)
(-1 -1.15541e-16 0)
(-1 -3.42454e-17 0)
(-1 -5.78151e-17 0)
(-1 -1.5391e-16 0)
(-1 -1.93314e-16 0)
(-1 -3.4795e-17 0)
(-1 4.28196e-18 0)
(-1 2.19087e-14 0)
(-1 -4.88166e-15 0)
(-1 8.32071e-16 0)
(-1 -2.9668e-16 0)
(-1 7.72656e-18 0)
(-1 -1.04811e-17 0)
(-1 5.08289e-17 0)
(-1 1.73991e-16 0)
(-1 1.28435e-16 0)
(-1 6.29203e-18 0)
(-1 1.24086e-18 0)
(-1 -4.45995e-17 0)
(-1 -7.47015e-17 0)
(-1 -4.38971e-18 0)
(-1 4.46818e-17 0)
(-1 5.07871e-17 0)
(-1 3.92017e-17 0)
(-1 8.2121e-17 0)
(-1 3.43608e-17 0)
(-1 -2.45227e-17 0)
(-1 -1.30117e-14 0)
(-1 2.35126e-15 0)
(-1 -8.25441e-16 0)
(-1 -5.80315e-17 0)
(-1 -1.41021e-16 0)
(-1 -2.08703e-17 0)
(-1 7.35972e-17 0)
(-1 7.43546e-17 0)
(-1 -3.9849e-18 0)
(-1 -5.79748e-17 0)
(-1 -1.71126e-16 0)
(-1 -1.11025e-16 0)
(-1 -2.38069e-17 0)
(-1 1.12356e-17 0)
(-1 1.20547e-17 0)
(-1 7.09907e-17 0)
(-1 1.53715e-16 0)
(-1 1.83517e-16 0)
(-1 -6.83477e-17 0)
(-1 -1.24435e-16 0)
(-1 -1.80308e-14 0)
(-1 3.99447e-15 0)
(-1 -1.059e-15 0)
(-1 4.2712e-17 0)
(-1 -1.83888e-16 0)
(-1 -5.77631e-17 0)
(-1 3.25824e-17 0)
(-1 1.61042e-17 0)
(-1 9.94616e-17 0)
(-1 1.38474e-16 0)
(-1 -8.19022e-18 0)
(-1 -2.85057e-17 0)
(-1 -2.6184e-17 0)
(-1 -5.69768e-17 0)
(-1 -9.03011e-17 0)
(-1 -1.21937e-16 0)
(-1 -5.83569e-17 0)
(-1 -5.80819e-17 0)
(-1 -9.648e-17 0)
(-1 -7.76627e-17 0)
(-1 6.11876e-14 0)
(-1 -1.23799e-14 0)
(-1 2.66652e-15 0)
(-1 -7.03794e-16 0)
(-1 2.61497e-17 0)
(-1 -1.36891e-17 0)
(-1 6.17517e-17 0)
(-1 4.74661e-17 0)
(-1 6.87245e-17 0)
(-1 7.68681e-17 0)
(-1 7.93376e-17 0)
(-1 3.9885e-17 0)
(-1 1.64558e-17 0)
(-1 -6.25811e-18 0)
(-1 3.54302e-18 0)
(-1 -4.70225e-17 0)
(-1 -4.97498e-17 0)
(-1 -1.2237e-16 0)
(-1 -7.56046e-17 0)
(-1 1.81456e-18 0)
(-1 -6.72114e-14 0)
(-1 1.3664e-14 0)
(-1 -3.30057e-15 0)
(-1 5.32884e-16 0)
(-1 -1.61978e-16 0)
(-1 4.62029e-17 0)
(-1 3.73828e-17 0)
(-1 7.45483e-17 0)
(-1 -2.99753e-17 0)
(-1 -1.24405e-16 0)
(-1 -8.19645e-17 0)
(-1 -7.07823e-17 0)
(-1 -4.61281e-17 0)
(-1 -6.08554e-17 0)
(-1 -1.01313e-16 0)
(-1 -1.57138e-17 0)
(-1 -3.7811e-17 0)
(-1 -8.66424e-17 0)
(-1 -4.41626e-17 0)
(-1 -4.53289e-17 0)
(-1 1.731e-14 0)
(-1 -4.03502e-15 0)
(-1 7.89492e-16 0)
(-1 -3.21018e-16 0)
(-1 1.12093e-19 0)
(-1 -3.08745e-17 0)
(-1 -4.61797e-17 0)
(-1 -3.13621e-17 0)
(-1 -6.95897e-17 0)
(-1 -1.19712e-16 0)
(-1 -4.63153e-17 0)
(-1 -3.29069e-17 0)
(-1 -5.21629e-17 0)
(-1 -5.04973e-17 0)
(-1 -1.46759e-16 0)
(-1 -1.66041e-16 0)
(-1 -1.43156e-16 0)
(-1 -7.47461e-17 0)
(-1 -5.26108e-17 0)
(-1 -8.06171e-17 0)
(-1 5.28271e-14 0)
(-1 -1.04085e-14 0)
(-1 2.40169e-15 0)
(-1 -5.60988e-16 0)
(-1 -1.96611e-17 0)
(-1 -1.79178e-16 0)
(-1 -2.32411e-16 0)
(-1 -1.43608e-16 0)
(-1 -2.1774e-17 0)
(-1 2.94141e-17 0)
(-1 9.51434e-17 0)
(-1 1.26426e-16 0)
(-1 8.97897e-17 0)
(-1 1.21536e-17 0)
(-1 -5.31968e-17 0)
(-1 -1.22824e-16 0)
(-1 -7.42383e-17 0)
(-1 -1.9001e-17 0)
(-1 -1.94421e-17 0)
(-1 -6.27704e-19 0)
(-1 -4.59031e-14 0)
(-1 9.38069e-15 0)
(-1 -2.17129e-15 0)
(-1 4.20696e-16 0)
(-1 -1.48282e-16 0)
(-1 -1.09025e-16 0)
(-1 -1.58688e-16 0)
(-1 -5.44908e-17 0)
(-1 4.90823e-17 0)
(-1 8.83876e-17 0)
(-1 1.34585e-19 0)
(-1 6.25667e-18 0)
(-1 3.31344e-17 0)
(-1 -6.88296e-18 0)
(-1 -8.1083e-17 0)
(-1 -9.29243e-17 0)
(-1 -6.1293e-17 0)
(-1 -1.80359e-17 0)
(-1 2.32488e-18 0)
(-1 -2.36096e-18 0)
(-1 -2.17385e-14 0)
(-1 3.76504e-15 0)
(-1 -9.83899e-16 0)
(-1 7.25262e-17 0)
(-1 -9.62489e-17 0)
(-1 -9.35186e-17 0)
(-1 -1.36958e-16 0)
(-1 -1.46645e-16 0)
(-1 -1.0249e-16 0)
(-1 -5.88448e-17 0)
(-1 -1.1256e-16 0)
(-1 -1.26628e-16 0)
(-1 -8.27504e-17 0)
(-1 6.48124e-18 0)
(-1 -2.3544e-17 0)
(-1 -6.81055e-17 0)
(-1 -1.62548e-17 0)
(-1 3.61234e-17 0)
(-1 5.32233e-18 0)
(-1 -3.94272e-17 0)
)
;

boundaryField
{
    movingWall
    {
        type            zeroGradient;
    }
    fixedWalls
    {
        type            zeroGradient;
    }
    frontAndBack
    {
        type            empty;
    }
}


// ************************************************************************* //
