/*--------------------------------*- C++ -*----------------------------------*\
| =========                 |                                                 |
| \\      /  F ield         | OpenFOAM: The Open Source CFD Toolbox           |
|  \\    /   O peration     | Version:  2506                                  |
|   \\  /    A nd           | Website:  www.openfoam.com                      |
|    \\/     M anipulation  |                                                 |
\*---------------------------------------------------------------------------*/
FoamFile
{
    version     2.0;
    format      ascii;
    arch        "LSB;label=32;scalar=64";
    class       volScalarField;
    location    "1.125";
    object      Lambda2Field;
}
// * * * * * * * * * * * * * * * * * * * * * * * * * * * * * * * * * * * * * //

dimensions      [0 0 -2 0 0 0 0];

internalField   nonuniform List<scalar> 
400
(
0.0160733
0.0650528
0.14432
0.192681
0.21743
0.221925
0.217825
0.213913
0.225036
0.262916
0.274574
0.360666
0.503328
0.590792
0.6563
0.666198
0.577881
0.416006
0.190636
0.0435901
0.0627109
0.143663
0.20769
0.250949
0.273241
0.278277
0.26958
0.249226
0.219889
0.187339
0.16181
0.162396
0.21374
0.338708
0.515975
0.677295
0.72598
0.622669
0.423665
0.160489
0.136882
0.196939
0.245933
0.273344
0.293125
0.302046
0.298845
0.283155
0.256956
0.227166
0.205341
0.2188
0.297692
0.460039
0.686967
0.899437
0.971496
0.897081
0.678315
0.351479
0.188532
0.235861
0.265701
0.286333
0.305228
0.321472
0.332418
0.337277
0.338089
0.340994
0.362585
0.430466
0.577941
0.825552
1.14991
1.42553
1.49045
1.34354
0.983455
0.509719
0.220232
0.257827
0.280061
0.299063
0.320671
0.348098
0.380109
0.417934
0.465726
0.533551
0.641848
0.826413
1.13494
1.60316
2.22162
2.79148
2.81612
2.25817
1.36632
0.774191
0.231112
0.265625
0.287829
0.308418
0.336397
0.37904
0.43914
0.522912
0.642118
0.8168
1.08052
1.508
2.22042
3.37758
4.93004
6.21817
6.02388
3.98265
1.72644
1.47006
0.229858
0.262282
0.286909
0.312257
0.349157
0.409785
0.50334
0.645174
0.860997
1.19582
1.73835
2.69253
4.51706
7.64935
11.8078
15.2654
14.357
7.15108
0.0768617
0.970521
0.222606
0.249598
0.275595
0.305707
0.351781
0.431121
0.561109
0.769993
1.10642
1.66866
2.69423
4.82007
9.37014
17.4113
25.5682
30.9076
31.9053
24.1822
2.62942
-1.40711
0.211612
0.228644
0.252797
0.284795
0.337142
0.432135
0.596045
0.872238
1.34061
2.19134
3.95854
7.95948
15.416
22.9102
23.8111
23.3099
32.3173
40.8436
33.254
-1.27441
0.19511
0.200573
0.218743
0.247356
0.300529
0.404152
0.59287
0.924514
1.51451
2.65063
5.06385
10.4767
15.3239
6.62267
-17.57
-37.3366
-24.448
18.8181
52.3622
36.9963
0.170426
0.166836
0.175539
0.194423
0.242041
0.344363
0.543167
0.908178
1.58237
2.85098
5.4498
10.0244
6.40786
-20.5895
-70.1607
-102.45
-99.7456
-56.9076
33.1757
108.395
0.121043
0.128442
0.12704
0.13204
0.16773
0.262775
0.460916
0.831484
1.51055
2.78459
5.16491
7.50873
0.0867742
-34.5692
-86.7511
-109.674
-102.024
-91.146
-26.8434
127.897
0.0588263
0.0869503
0.0782572
0.0696081
0.0939393
0.182977
0.379911
0.748772
1.39732
2.5554
4.57967
6.5782
0.540506
-27.2435
-67.6285
-78.1789
-59.4643
-57.7519
-45.1012
98.1476
-0.00845259
0.0421107
0.036876
0.0202657
0.0409831
0.133136
0.336745
0.706899
1.3249
2.32542
3.95269
5.84663
3.18768
-9.91274
-32.8218
-38.4043
-25.7518
-17.3649
-31.0943
59.1906
-0.164669
0.00145656
0.0127505
6.00097e-06
0.0295198
0.136559
0.356506
0.732145
1.32136
2.17953
3.37636
4.65096
4.21761
0
-8.67435
-10.7661
-5.07421
-0.00762136
-17.8556
25.8092
0
-0.010882
0.00998759
0.0186759
0.0693618
0.202177
0.446834
0.823775
1.37614
2.12021
2.99152
3.75868
3.70246
1.54495
-1.3624
-1.68757
2.02855
0
-11.1403
6.51531
0
0
0
0
0
0.100051
0.380641
0.814871
1.40164
2.09749
2.76442
3.11697
2.68126
0.835909
-1.69003
-2.66772
0
-10.4233
0
26.607
0
0
0
0
0
0
0
0.593414
1.46466
2.32552
2.87975
2.64225
1.11551
-1.55547
-6.63423
-11.0901
-15.7801
-31.8148
7.4569
261.959
9.51142
0
0
0
0
0
0
0
0
0.584866
1.431
1.28631
0
-3.99895
-10.3073
-18.9872
-29.7093
-16.4919
-130.062
959.3
3230.85
-585.016
-680.429
-364.537
-169.651
-92.3621
-61.0091
-43.491
-31.9425
-24.1058
-19.3958
-16.3144
-16.4463
-15.4351
-32.3076
0
0
0
-218.154
1606.74
)
;

boundaryField
{
    movingWall
    {
        type            calculated;
        value           nonuniform List<scalar> 
20
(
1600.01
0
0
0
0
0
0
0
0
0
0
0
0
0
0
0
-101.881
0
-1335.05
2870.43
)
;
    }
    fixedWalls
    {
        type            calculated;
        value           nonuniform List<scalar> 
60
(
0
0.0386212
0.104028
0.145345
0.17907
0.200129
0.216986
0.236051
0.257061
0.270782
0.262573
0.191014
0.0618752
-0.00774131
-0.626444
0
0
0
30.8969
6855.41
0
0.100378
0.282579
0.488348
0.832051
1.06037
0
0
0
17.6447
59.7986
90.9743
48.4539
0
0
0
41.5661
738.225
3145.51
2161.66
0
0.041395
0.12059
0.171734
0.20888
0.226884
0.236348
0.248152
0.289012
0.389487
0.455344
0.573123
0.905359
0.953811
0.877825
0.712889
0.495872
0.316973
0.118436
0.000328071
)
;
    }
    frontAndBack
    {
        type            empty;
    }
}


// ************************************************************************* //
