/*--------------------------------*- C++ -*----------------------------------*\
| =========                 |                                                 |
| \\      /  F ield         | OpenFOAM: The Open Source CFD Toolbox           |
|  \\    /   O peration     | Version:  2506                                  |
|   \\  /    A nd           | Website:  www.openfoam.com                      |
|    \\/     M anipulation  |                                                 |
\*---------------------------------------------------------------------------*/
FoamFile
{
    version     2.0;
    format      ascii;
    arch        "LSB;label=32;scalar=64";
    class       volVectorField;
    location    "0.5";
    object      U;
}
// * * * * * * * * * * * * * * * * * * * * * * * * * * * * * * * * * * * * * //

dimensions      [0 1 -1 0 0 0 0];

internalField   nonuniform List<vector> 
6400
(
(7.71651e-05 -7.71956e-05 0)
(8.49175e-05 -7.52251e-05 0)
(0.000123151 -5.2721e-05 0)
(0.000131333 -4.81796e-05 0)
(8.93823e-05 1.62123e-05 0)
(7.67193e-05 2.55138e-05 0)
(-0.000110724 0.000105648 0)
(-0.000149773 0.000115409 0)
(-0.00049382 0.000192539 0)
(-0.000558578 0.000201228 0)
(-0.00104653 0.000267878 0)
(-0.00113352 0.00027498 0)
(-0.00174249 0.000328371 0)
(-0.00184736 0.000333775 0)
(-0.00255076 0.000373276 0)
(-0.00266891 0.000377033 0)
(-0.00343924 0.00040298 0)
(-0.00356613 0.000405202 0)
(-0.00437639 0.000418356 0)
(-0.00450768 0.000419174 0)
(-0.00533218 0.000420489 0)
(-0.00546384 0.000420037 0)
(-0.00627861 0.000410545 0)
(-0.00640693 0.000408955 0)
(-0.00719001 0.00038972 0)
(-0.00731162 0.000387118 0)
(-0.00804314 0.000359207 0)
(-0.00815504 0.000355715 0)
(-0.00881738 0.000320197 0)
(-0.00891693 0.000315935 0)
(-0.0094947 0.000273868 0)
(-0.00957962 0.000268951 0)
(-0.0100597 0.0002214 0)
(-0.0101281 0.000215944 0)
(-0.0104997 0.000163981 0)
(-0.01055 0.000158103 0)
(-0.0108047 0.00010282 0)
(-0.0108358 9.66387e-05 0)
(-0.0109677 3.91586e-05 0)
(-0.0109789 3.2796e-05 0)
(-0.0109845 -2.57187e-05 0)
(-0.0109753 -3.21352e-05 0)
(-0.0108539 -9.04763e-05 0)
(-0.0108245 -9.68135e-05 0)
(-0.0105778 -0.000153724 0)
(-0.0105286 -0.000159843 0)
(-0.0101613 -0.00021402 0)
(-0.0100933 -0.000219774 0)
(-0.00961299 -0.000269874 0)
(-0.00952765 -0.000275115 0)
(-0.00894467 -0.000319768 0)
(-0.00884386 -0.000324341 0)
(-0.00817162 -0.000362169 0)
(-0.00805772 -0.00036592 0)
(-0.00731242 -0.000395557 0)
(-0.00718825 -0.000398331 0)
(-0.00638895 -0.000418459 0)
(-0.00625779 -0.000420105 0)
(-0.00542617 -0.00042948 0)
(-0.00529171 -0.000429858 0)
(-0.00445173 -0.000427352 0)
(-0.00431804 -0.000426328 0)
(-0.0034957 -0.000410983 0)
(-0.00336715 -0.000408442 0)
(-0.00258984 -0.000379524 0)
(-0.00247101 -0.000375371 0)
(-0.00176689 -0.00033249 0)
(-0.00166245 -0.000326666 0)
(-0.00105934 -0.000269991 0)
(-0.00097385 -0.000262516 0)
(-0.000497557 -0.000193291 0)
(-0.000435166 -0.00018436 0)
(-0.000106642 -0.000106029 0)
(-7.03686e-05 -9.62459e-05 0)
(0.000100835 -1.69041e-05 0)
(0.000110978 -7.87562e-06 0)
(0.000140143 5.34794e-05 0)
(0.000130466 5.7499e-05 0)
(8.64658e-05 7.62858e-05 0)
(7.83927e-05 7.80413e-05 0)
(7.53418e-05 -8.50637e-05 0)
(8.25626e-05 -8.25643e-05 0)
(0.00011919 -5.40394e-05 0)
(0.000126731 -4.98532e-05 0)
(6.84306e-05 2.92014e-05 0)
(5.6758e-05 3.77755e-05 0)
(-0.000162506 0.000134688 0)
(-0.000198501 0.000143686 0)
(-0.000590106 0.000237004 0)
(-0.000649799 0.000245014 0)
(-0.00119996 0.000325881 0)
(-0.00128015 0.000332428 0)
(-0.00196397 0.000397396 0)
(-0.00206064 0.000402377 0)
(-0.00284898 0.000450559 0)
(-0.00295789 0.000454022 0)
(-0.00382039 0.000485723 0)
(-0.00393736 0.000487772 0)
(-0.00484413 0.000503838 0)
(-0.00496515 0.000504593 0)
(-0.00588762 0.00050614 0)
(-0.00600898 0.000505723 0)
(-0.00692046 0.000493979 0)
(-0.00703874 0.000492513 0)
(-0.00791471 0.000468763 0)
(-0.00802681 0.000466364 0)
(-0.00884509 0.000431905 0)
(-0.00894824 0.000428686 0)
(-0.00968911 0.00038483 0)
(-0.00978088 0.000380901 0)
(-0.0104271 0.000328951 0)
(-0.0105054 0.000324419 0)
(-0.0110423 0.000265689 0)
(-0.0111054 0.00026066 0)
(-0.0115209 0.000196478 0)
(-0.0115673 0.00019106 0)
(-0.0118521 0.00012278 0)
(-0.0118808 0.000117082 0)
(-0.0120282 4.60952e-05 0)
(-0.0120384 4.02303e-05 0)
(-0.0120446 -3.20232e-05 0)
(-0.0120361 -3.79378e-05 0)
(-0.0119001 -0.000109962 0)
(-0.011873 -0.000115803 0)
(-0.0115969 -0.000186043 0)
(-0.0115515 -0.000191683 0)
(-0.0111406 -0.00025853 0)
(-0.0110779 -0.000263834 0)
(-0.0105406 -0.000325631 0)
(-0.0104619 -0.000330461 0)
(-0.00980989 -0.000385522 0)
(-0.00971696 -0.000389738 0)
(-0.00896515 -0.000436368 0)
(-0.00886015 -0.000439825 0)
(-0.0080267 -0.000476353 0)
(-0.00791224 -0.000478909 0)
(-0.00701841 -0.000503723 0)
(-0.0068975 -0.000505241 0)
(-0.0059675 -0.00051683 0)
(-0.00584357 -0.000517178 0)
(-0.00490408 -0.000514184 0)
(-0.00478085 -0.00051324 0)
(-0.00386083 -0.000494521 0)
(-0.00374233 -0.000492178 0)
(-0.00287218 -0.000456891 0)
(-0.00276264 -0.000453062 0)
(-0.00197354 -0.000400803 0)
(-0.00187727 -0.000395435 0)
(-0.00119989 -0.000326506 0)
(-0.00112109 -0.000319616 0)
(-0.000583748 -0.00023564 0)
(-0.000526237 -0.000227407 0)
(-0.000151721 -0.000132618 0)
(-0.000118285 -0.000123599 0)
(8.30245e-05 -2.7583e-05 0)
(9.23744e-05 -1.92607e-05 0)
(0.000136379 5.62123e-05 0)
(0.000127459 5.99176e-05 0)
(8.42507e-05 8.38602e-05 0)
(7.67546e-05 8.61888e-05 0)
(5.44381e-05 -0.000124201 0)
(5.58509e-05 -0.000119929 0)
(2.90912e-05 -2.66922e-05 0)
(1.26433e-05 -3.15526e-06 0)
(-0.000209566 0.000206613 0)
(-0.000268192 0.000244517 0)
(-0.000760944 0.000497772 0)
(-0.000868196 0.000537913 0)
(-0.00164393 0.000785403 0)
(-0.00179897 0.000822338 0)
(-0.00283776 0.00104062 0)
(-0.00303539 0.00107182 0)
(-0.00429923 0.00124995 0)
(-0.00453195 0.00127435 0)
(-0.00597384 0.00140808 0)
(-0.00623311 0.00142542 0)
(-0.0078023 0.00151414 0)
(-0.00807924 0.00152454 0)
(-0.00972449 0.00156956 0)
(-0.0100103 0.00157335 0)
(-0.0116817 0.0015771 0)
(-0.0119681 0.00157474 0)
(-0.0136185 0.00154024 0)
(-0.0138974 0.00153225 0)
(-0.0154831 0.00146289 0)
(-0.0157474 0.00144981 0)
(-0.0172284 0.00134917 0)
(-0.0174716 0.00133157 0)
(-0.0188123 0.00120335 0)
(-0.0190287 0.00118181 0)
(-0.0201978 0.00102979 0)
(-0.0203823 0.0010049 0)
(-0.0213533 0.00083294 0)
(-0.0215018 0.00080529 0)
(-0.0222529 0.000617319 0)
(-0.0223619 0.00058752 0)
(-0.022876 0.000387564 0)
(-0.0229432 0.000356241 0)
(-0.0232083 0.000148447 0)
(-0.023232 0.000116242 0)
(-0.0232414 -9.51074e-05 0)
(-0.0232208 -0.000127528 0)
(-0.022973 -0.000338 0)
(-0.0229084 -0.000369947 0)
(-0.0224073 -0.00057496 0)
(-0.0222999 -0.00060572 0)
(-0.0215553 -0.000800557 0)
(-0.0214073 -0.000829396 0)
(-0.0204346 -0.00100924 0)
(-0.020249 -0.00103541 0)
(-0.0190696 -0.00119539 0)
(-0.0188507 -0.00121815 0)
(-0.0174916 -0.00135342 0)
(-0.0172446 -0.00137202 0)
(-0.0157385 -0.00147786 0)
(-0.0154694 -0.00149157 0)
(-0.0138545 -0.0015635 0)
(-0.0135703 -0.00157166 0)
(-0.0118897 -0.00160556 0)
(-0.0115983 -0.00160757 0)
(-0.00989931 -0.00159989 0)
(-0.00960916 -0.00159523 0)
(-0.00794256 -0.0015432 0)
(-0.00766266 -0.00153149 0)
(-0.00608126 -0.0014334 0)
(-0.00582082 -0.00141446 0)
(-0.00437784 -0.00127016 0)
(-0.00414595 -0.00124408 0)
(-0.00289264 -0.00105575 0)
(-0.00269778 -0.00102307 0)
(-0.00167982 -0.000796772 0)
(-0.00152908 -0.000758862 0)
(-0.000781237 -0.000507451 0)
(-0.000679098 -0.000467134 0)
(-0.000216159 -0.000215697 0)
(-0.000162407 -0.000178633 0)
(3.49543e-05 2.29683e-05 0)
(4.80376e-05 4.47602e-05 0)
(6.20558e-05 0.000127592 0)
(5.95134e-05 0.000130916 0)
(5.02788e-05 -0.000132879 0)
(5.20169e-05 -0.000127928 0)
(6.35527e-06 -1.03548e-05 0)
(-1.00926e-05 1.31822e-05 0)
(-0.000276217 0.000263552 0)
(-0.000334843 0.000301456 0)
(-0.000895343 0.000600695 0)
(-0.0010026 0.000640836 0)
(-0.00186939 0.000933194 0)
(-0.00202443 0.000970129 0)
(-0.00317624 0.00122837 0)
(-0.00337387 0.00125956 0)
(-0.00476989 0.00147063 0)
(-0.00500261 0.00149504 0)
(-0.00659205 0.00165369 0)
(-0.00685132 0.00167103 0)
(-0.00857912 0.00177633 0)
(-0.00885606 0.00178673 0)
(-0.0106664 0.00184008 0)
(-0.0109523 0.00184387 0)
(-0.0127907 0.00184803 0)
(-0.013077 0.00184567 0)
(-0.014892 0.00180416 0)
(-0.0151709 0.00179616 0)
(-0.0169143 0.00171297 0)
(-0.0171787 0.00169989 0)
(-0.0188069 0.00157926 0)
(-0.0190501 0.00156167 0)
(-0.0205239 0.00140802 0)
(-0.0207403 0.00138648 0)
(-0.0220255 0.00120432 0)
(-0.02221 0.00117943 0)
(-0.0232773 0.000973378 0)
(-0.0234258 0.000945729 0)
(-0.0242512 0.000720501 0)
(-0.0243603 0.000690703 0)
(-0.0249251 0.000451129 0)
(-0.0249923 0.000419805 0)
(-0.0252834 0.00017086 0)
(-0.0253071 0.000138655 0)
(-0.0253171 -0.000114523 0)
(-0.0252966 -0.000146944 0)
(-0.0250238 -0.000399039 0)
(-0.0249593 -0.000430986 0)
(-0.0244082 -0.000676508 0)
(-0.0243009 -0.000707267 0)
(-0.0234822 -0.000940568 0)
(-0.0233341 -0.000969407 0)
(-0.0222649 -0.00118472 0)
(-0.0220793 -0.00121089 0)
(-0.0207829 -0.00140241 0)
(-0.020564 -0.00142516 0)
(-0.0190702 -0.0015871 0)
(-0.0188231 -0.00160569 0)
(-0.0171677 -0.00173241 0)
(-0.0168986 -0.00174613 0)
(-0.0151235 -0.00183231 0)
(-0.0148393 -0.00184047 0)
(-0.0129918 -0.00188125 0)
(-0.0127004 -0.00188326 0)
(-0.0108321 -0.00187445 0)
(-0.010542 -0.00186979 0)
(-0.00870858 -0.00180816 0)
(-0.00842868 -0.00179645 0)
(-0.00668769 -0.00168011 0)
(-0.00642725 -0.00166116 0)
(-0.00483663 -0.00149005 0)
(-0.00460474 -0.00146396 0)
(-0.0032201 -0.00124087 0)
(-0.00302524 -0.00120819 0)
(-0.00189595 -0.000940491 0)
(-0.00174522 -0.000902581 0)
(-0.000908622 -0.000605537 0)
(-0.000806483 -0.000565221 0)
(-0.000278404 -0.000267984 0)
(-0.000224652 -0.00023092 0)
(1.42017e-05 1.00226e-05 0)
(2.7285e-05 3.18144e-05 0)
(5.87244e-05 0.000136982 0)
(5.58994e-05 0.000141102 0)
(-1.12907e-05 -9.47878e-05 0)
(-2.38556e-05 -7.34231e-05 0)
(-0.000198526 0.000209527 0)
(-0.00025509 0.000277271 0)
(-0.000784892 0.000792029 0)
(-0.000906907 0.000886217 0)
(-0.00184608 0.001482 0)
(-0.00203681 0.00158083 0)
(-0.00338618 0.00216376 0)
(-0.00364319 0.00225569 0)
(-0.00537271 0.00277459 0)
(-0.00568902 0.00285329 0)
(-0.00774537 0.00328077 0)
(-0.00811083 0.00334306 0)
(-0.0104267 0.00366631 0)
(-0.0108295 0.00371089 0)
(-0.0133309 0.00392587 0)
(-0.0137583 0.00395259 0)
(-0.0163691 0.00406055 0)
(-0.0168085 0.00406995 0)
(-0.0194534 0.0040754 0)
(-0.0198925 0.00406843 0)
(-0.0224995 0.00397792 0)
(-0.0229267 0.00395578 0)
(-0.0254285 0.00377715 0)
(-0.0258329 0.0037412 0)
(-0.0281676 0.00348305 0)
(-0.0285395 0.00343479 0)
(-0.0306517 0.00310628 0)
(-0.0309823 0.00304723 0)
(-0.0328233 0.00265789 0)
(-0.033105 0.00258964 0)
(-0.0346331 0.00214929 0)
(-0.0348596 0.00207349 0)
(-0.0360407 0.00159223 0)
(-0.0362069 0.00151055 0)
(-0.0370143 0.000998768 0)
(-0.0371166 0.000912946 0)
(-0.0375317 0.000381346 0)
(-0.0375675 0.000293165 0)
(-0.0375799 -0.000247201 0)
(-0.0375482 -0.000335898 0)
(-0.0371559 -0.000873628 0)
(-0.037057 -0.00096094 0)
(-0.0362665 -0.00148429 0)
(-0.0361023 -0.00156827 0)
(-0.034929 -0.00206522 0)
(-0.0347028 -0.00214386 0)
(-0.0331712 -0.00260219 0)
(-0.0328879 -0.00267348 0)
(-0.0310313 -0.00308093 0)
(-0.0306972 -0.00314286 0)
(-0.028558 -0.00348733 0)
(-0.0281808 -0.00353793 0)
(-0.0258099 -0.00380774 0)
(-0.0253989 -0.00384514 0)
(-0.0228552 -0.00402933 0)
(-0.0224209 -0.00405181 0)
(-0.0197707 -0.0041406 0)
(-0.0193246 -0.00414666 0)
(-0.0166405 -0.00413185 0)
(-0.0161951 -0.0041203 0)
(-0.0135539 -0.00399597 0)
(-0.0131224 -0.00396604 0)
(-0.0106034 -0.00372933 0)
(-0.010199 -0.00368086 0)
(-0.0078813 -0.00333318 0)
(-0.00751695 -0.00326684 0)
(-0.00547533 -0.00281576 0)
(-0.0051628 -0.00273348 0)
(-0.0034629 -0.0021959 0)
(-0.00321183 -0.00210156 0)
(-0.00190269 -0.00150897 0)
(-0.00171915 -0.00140954 0)
(-0.000824017 -0.000816626 0)
(-0.000709094 -0.000724106 0)
(-0.000217509 -0.000226258 0)
(-0.000166129 -0.00016236 0)
(-1.24211e-05 9.76296e-05 0)
(-1.69273e-06 0.000116642 0)
(-2.01214e-05 -8.33315e-05 0)
(-3.19956e-05 -6.28629e-05 0)
(-0.000235766 0.000267618 0)
(-0.000292329 0.000335363 0)
(-0.000879012 0.000914042 0)
(-0.00100103 0.00100823 0)
(-0.00201734 0.00167272 0)
(-0.00220807 0.00177155 0)
(-0.00365183 0.0024209 0)
(-0.00390884 0.00251282 0)
(-0.00574828 0.00309099 0)
(-0.00606459 0.00316968 0)
(-0.00824417 0.00364626 0)
(-0.00860963 0.00370855 0)
(-0.0110592 0.00406903 0)
(-0.011462 0.00411362 0)
(-0.0141044 0.00435325 0)
(-0.0145318 0.00437997 0)
(-0.0172874 0.00449991 0)
(-0.0177269 0.00450931 0)
(-0.020517 0.00451444 0)
(-0.0209562 0.00450747 0)
(-0.0237054 0.00440499 0)
(-0.0241325 0.00438285 0)
(-0.02677 0.00418144 0)
(-0.0271745 0.00414549 0)
(-0.0296354 0.00385478 0)
(-0.0300073 0.00380651 0)
(-0.0322334 0.00343673 0)
(-0.032564 0.00337767 0)
(-0.034504 0.00293951 0)
(-0.0347857 0.00287126 0)
(-0.0363958 0.00237575 0)
(-0.0366224 0.00229995 0)
(-0.0378667 0.00175845 0)
(-0.038033 0.00167677 0)
(-0.0388835 0.00110098 0)
(-0.0389857 0.00101515 0)
(-0.0394229 0.00041711 0)
(-0.0394587 0.000328929 0)
(-0.0394715 -0.000278932 0)
(-0.0394398 -0.000367629 0)
(-0.0390262 -0.000972478 0)
(-0.0389273 -0.00105979 0)
(-0.0380942 -0.00164843 0)
(-0.03793 -0.0017324 0)
(-0.0366937 -0.00229131 0)
(-0.0364675 -0.00236995 0)
(-0.0348536 -0.00288541 0)
(-0.0345703 -0.0029567 0)
(-0.032614 -0.00341496 0)
(-0.0322798 -0.00347688 0)
(-0.0300257 -0.00386437 0)
(-0.0296485 -0.00391498 0)
(-0.0271499 -0.00421861 0)
(-0.0267389 -0.00425601 0)
(-0.0240577 -0.00446357 0)
(-0.0236234 -0.00448605 0)
(-0.0208293 -0.00458659 0)
(-0.0203832 -0.00459265 0)
(-0.0175522 -0.00457711 0)
(-0.0171069 -0.00456555 0)
(-0.0143194 -0.00442741 0)
(-0.0138879 -0.00439748 0)
(-0.0112271 -0.00413368 0)
(-0.0108227 -0.00408521 0)
(-0.00837109 -0.00369755 0)
(-0.00800675 -0.00363121 0)
(-0.00584236 -0.00312837 0)
(-0.00552983 -0.00304609 0)
(-0.00372112 -0.00244707 0)
(-0.00347004 -0.00235273 0)
(-0.00206819 -0.0016925 0)
(-0.00188465 -0.00159307 0)
(-0.000914396 -0.00093152 0)
(-0.000799473 -0.000839 0)
(-0.000253027 -0.000278831 0)
(-0.000201646 -0.000214933 0)
(-2.01215e-05 8.97351e-05 0)
(-1.00465e-05 0.000108077 0)
(-9.83974e-05 9.75944e-05 0)
(-0.000127026 0.00015003 0)
(-0.00048942 0.000757818 0)
(-0.000592769 0.000894004 0)
(-0.00148509 0.00185382 0)
(-0.00167774 0.00202436 0)
(-0.00310613 0.0030879 0)
(-0.0033849 0.00326316 0)
(-0.00532414 0.0042948 0)
(-0.00568349 0.00445741 0)
(-0.0080891 0.0053761 0)
(-0.00851988 0.00551566 0)
(-0.0113242 0.00627434 0)
(-0.0118139 0.00638507 0)
(-0.0149331 0.00695939 0)
(-0.0154671 0.00703862 0)
(-0.0188091 0.00741907 0)
(-0.0193719 0.00746611 0)
(-0.0228415 0.00765287 0)
(-0.0234174 0.00766832 0)
(-0.0269196 0.00766794 0)
(-0.0274933 0.00765328 0)
(-0.0309367 0.00747645 0)
(-0.0314935 0.00743371 0)
(-0.0347919 0.00709395 0)
(-0.0353183 0.00702553 0)
(-0.0383925 0.00653819 0)
(-0.0388758 0.00644674 0)
(-0.0416542 0.00582846 0)
(-0.0420835 0.00571682 0)
(-0.0445032 0.00498512 0)
(-0.0448688 0.00485624 0)
(-0.0468759 0.00402938 0)
(-0.0471696 0.00388634 0)
(-0.0487199 0.0029832 0)
(-0.0489353 0.00282915 0)
(-0.0499943 0.00186921 0)
(-0.0501266 0.00170743 0)
(-0.0506703 0.000710792 0)
(-0.0507165 0.000544647 0)
(-0.0507315 -0.000467965 0)
(-0.0506901 -0.000634999 0)
(-0.050174 -0.00164223 0)
(-0.0500456 -0.00180658 0)
(-0.0490071 -0.0027865 0)
(-0.0487941 -0.0029445 0)
(-0.0472534 -0.00387474 0)
(-0.04696 -0.00402266 0)
(-0.0449487 -0.00488056 0)
(-0.0445812 -0.00501467 0)
(-0.0421427 -0.0057776 0)
(-0.0417091 -0.00589418 0)
(-0.038898 -0.00653997 0)
(-0.0384082 -0.00663542 0)
(-0.03529 -0.00714277 0)
(-0.0347557 -0.00721368 0)
(-0.0314061 -0.0075629 0)
(-0.0308405 -0.00760619 0)
(-0.0273442 -0.00777988 0)
(-0.026762 -0.00779291 0)
(-0.0232112 -0.00777693 0)
(-0.0226279 -0.00775771 0)
(-0.01912 -0.00754242 0)
(-0.0185521 -0.0074898 0)
(-0.0151871 -0.00707149 0)
(-0.0146509 -0.00698548 0)
(-0.0115278 -0.0063685 0)
(-0.0110392 -0.00625068 0)
(-0.00825138 -0.00545057 0)
(-0.00782494 -0.00530469 0)
(-0.00545449 -0.0043527 0)
(-0.00510222 -0.00418571 0)
(-0.00321212 -0.00313592 0)
(-0.00294215 -0.00295932 0)
(-0.00156897 -0.00189879 0)
(-0.00138523 -0.00173076 0)
(-0.000542248 -0.00079841 0)
(-0.000445614 -0.000668724 0)
(-0.000111204 -0.00010067 0)
(-8.49963e-05 -5.23972e-05 0)
(-0.000107897 0.000135051 0)
(-0.000135783 0.000184557 0)
(-0.000530295 0.000865384 0)
(-0.000633644 0.00100157 0)
(-0.00158815 0.00204651 0)
(-0.0017808 0.00221705 0)
(-0.00329082 0.00336672 0)
(-0.00356959 0.00354198 0)
(-0.00560501 0.00465479 0)
(-0.00596437 0.0048174 0)
(-0.00847822 0.00580776 0)
(-0.008909 0.00594731 0)
(-0.0118312 0.006765 0)
(-0.0123208 0.00687574 0)
(-0.015565 0.00749449 0)
(-0.016099 0.00757372 0)
(-0.0195705 0.00798309 0)
(-0.0201333 0.00803013 0)
(-0.023734 0.00823007 0)
(-0.0243099 0.00824552 0)
(-0.0279422 0.00824292 0)
(-0.0285159 0.00822826 0)
(-0.0320855 0.00803451 0)
(-0.0326424 0.00799177 0)
(-0.0360606 0.00762141 0)
(-0.036587 0.00755299 0)
(-0.039772 0.00702258 0)
(-0.0402554 0.00693113 0)
(-0.0431335 0.00625866 0)
(-0.0435627 0.00614702 0)
(-0.0460689 0.00535148 0)
(-0.0464344 0.0052226 0)
(-0.048513 0.00432378 0)
(-0.0488068 0.00418073 0)
(-0.050412 0.00319913 0)
(-0.0506275 0.00304508 0)
(-0.051724 0.00200185 0)
(-0.0518563 0.00184007 0)
(-0.0524192 0.00075704 0)
(-0.0524654 0.000590895 0)
(-0.0524809 -0.000509424 0)
(-0.0524395 -0.000676458 0)
(-0.0519052 -0.00177088 0)
(-0.0517768 -0.00193523 0)
(-0.0507015 -0.00299996 0)
(-0.0504885 -0.00315796 0)
(-0.0488932 -0.00416871 0)
(-0.0485998 -0.00431664 0)
(-0.0465172 -0.00524885 0)
(-0.0461497 -0.00538296 0)
(-0.0436244 -0.00621212 0)
(-0.0431908 -0.0063287 0)
(-0.0402793 -0.00703077 0)
(-0.0397896 -0.00712622 0)
(-0.0365594 -0.00767818 0)
(-0.0360252 -0.00774908 0)
(-0.0325544 -0.00812965 0)
(-0.0319888 -0.00817293 0)
(-0.0283647 -0.00836333 0)
(-0.0277825 -0.00837636 0)
(-0.0241001 -0.00836139 0)
(-0.0235169 -0.00834217 0)
(-0.0198765 -0.00811155 0)
(-0.0193086 -0.00805893 0)
(-0.0158131 -0.00760881 0)
(-0.015277 -0.0075228 0)
(-0.0120283 -0.00685808 0)
(-0.0115397 -0.00674025 0)
(-0.008634 -0.00587785 0)
(-0.00820756 -0.00573198 0)
(-0.00572947 -0.00470557 0)
(-0.0053772 -0.00453858 0)
(-0.00339208 -0.00340593 0)
(-0.0031221 -0.00322933 0)
(-0.00166889 -0.00208252 0)
(-0.00148516 -0.00191449 0)
(-0.000581675 -0.000898773 0)
(-0.000485041 -0.000769087 0)
(-0.000119598 -0.000131548 0)
(-9.41024e-05 -8.58949e-05 0)
(-0.000186714 0.000475313 0)
(-0.000231654 0.00057339 0)
(-0.000791798 0.00165085 0)
(-0.000943658 0.00188067 0)
(-0.00221784 0.00342009 0)
(-0.00248367 0.00368554 0)
(-0.00441875 0.00532154 0)
(-0.0047873 0.00558766 0)
(-0.00732271 0.00715241 0)
(-0.00778415 0.00739716 0)
(-0.0108559 0.00878356 0)
(-0.0113983 0.00899293 0)
(-0.0149226 0.0101352 0)
(-0.0155309 0.0103009 0)
(-0.019408 0.0111627 0)
(-0.0200651 0.0112806 0)
(-0.0241871 0.0118463 0)
(-0.0248751 0.0119151 0)
(-0.0291307 0.0121833 0)
(-0.0298313 0.0122037 0)
(-0.0341098 0.0121829 0)
(-0.0348053 0.0121568 0)
(-0.0389996 0.0118622 0)
(-0.0396729 0.0117925 0)
(-0.0436818 0.0112441 0)
(-0.044317 0.0111345 0)
(-0.0480473 0.0103556 0)
(-0.0486297 0.0102101 0)
(-0.0519968 0.00922612 0)
(-0.0525135 0.00904903 0)
(-0.0554431 0.00788732 0)
(-0.0558827 0.00768326 0)
(-0.0583111 0.00637226 0)
(-0.0586641 0.00614603 0)
(-0.0605388 0.0047154 0)
(-0.0607977 0.00447197 0)
(-0.062078 0.00295236 0)
(-0.062237 0.00269685 0)
(-0.0628945 0.00111992 0)
(-0.06295 0.00085764 0)
(-0.062969 -0.000743979 0)
(-0.0629194 -0.00100758 0)
(-0.0622969 -0.0026003 0)
(-0.062143 -0.00285961 0)
(-0.0608893 -0.00440903 0)
(-0.0606338 -0.00465832 0)
(-0.058773 -0.00612939 0)
(-0.0584209 -0.00636286 0)
(-0.0559905 -0.00772024 0)
(-0.0555491 -0.00793206 0)
(-0.0526001 -0.00914055 0)
(-0.0520788 -0.00932499 0)
(-0.0486758 -0.0103502 0)
(-0.0480863 -0.0105017 0)
(-0.0443063 -0.0113108 0)
(-0.0436622 -0.0114242 0)
(-0.0395943 -0.0119871 0)
(-0.038911 -0.0120577 0)
(-0.0346547 -0.0123481 0)
(-0.0339493 -0.0123718 0)
(-0.0296126 -0.0123687 0)
(-0.0289032 -0.0123428 0)
(-0.0246002 -0.0120324 0)
(-0.0239058 -0.0119554 0)
(-0.0197536 -0.0113333 0)
(-0.0190932 -0.0112053 0)
(-0.0152074 -0.0102795 0)
(-0.0145997 -0.0101031 0)
(-0.0110903 -0.00889808 0)
(-0.0105522 -0.0086791 0)
(-0.00751771 -0.00724129 0)
(-0.00706397 -0.00698968 0)
(-0.00458338 -0.00539539 0)
(-0.00422479 -0.00512682 0)
(-0.00235339 -0.00349244 0)
(-0.00209794 -0.00323028 0)
(-0.000882196 -0.00172981 0)
(-0.000738335 -0.00150956 0)
(-0.000212097 -0.000492005 0)
(-0.000170077 -0.00040024 0)
(-0.000195653 0.000539353 0)
(-0.000239894 0.000632421 0)
(-0.000832139 0.00181002 0)
(-0.000983999 0.00203984 0)
(-0.00232149 0.00368587 0)
(-0.00258732 0.00395131 0)
(-0.00460527 0.00568953 0)
(-0.00497381 0.00595565 0)
(-0.00760568 0.0076139 0)
(-0.00806711 0.00785865 0)
(-0.0112457 0.00932611 0)
(-0.0117881 0.00953548 0)
(-0.0154266 0.0107436 0)
(-0.0160349 0.0109093 0)
(-0.0200312 0.0118199 0)
(-0.0206884 0.0119379 0)
(-0.0249321 0.0125344 0)
(-0.0256201 0.0126032 0)
(-0.0299974 0.0128841 0)
(-0.0306981 0.0129045 0)
(-0.0350961 0.0128785 0)
(-0.0357916 0.0128524 0)
(-0.040101 0.0125356 0)
(-0.0407742 0.0124659 0)
(-0.0448916 0.0118793 0)
(-0.0455268 0.0117697 0)
(-0.0493568 0.0109381 0)
(-0.0499392 0.0107925 0)
(-0.0533957 0.00974285 0)
(-0.0539124 0.00956576 0)
(-0.0569192 0.00832699 0)
(-0.0573588 0.00812293 0)
(-0.059851 0.00672535 0)
(-0.060204 0.00649912 0)
(-0.0621278 0.00497428 0)
(-0.0623866 0.00473085 0)
(-0.0637005 0.00311137 0)
(-0.0638595 0.00285586 0)
(-0.0645345 0.00117543 0)
(-0.0645899 0.000913151 0)
(-0.0646098 -0.000793503 0)
(-0.0645602 -0.0010571 0)
(-0.063922 -0.00275424 0)
(-0.063768 -0.00301355 0)
(-0.0624823 -0.00466458 0)
(-0.0622268 -0.00491388 0)
(-0.0603181 -0.00648153 0)
(-0.059966 -0.006715 0)
(-0.0574725 -0.00816169 0)
(-0.0570311 -0.00837352 0)
(-0.0540051 -0.00966186 0)
(-0.0534839 -0.0098463 0)
(-0.0499912 -0.0109397 0)
(-0.0494018 -0.0110912 0)
(-0.0455212 -0.011955 0)
(-0.0448771 -0.0120684 0)
(-0.0406996 -0.0126705 0)
(-0.0400164 -0.012741 0)
(-0.0356435 -0.0130536 0)
(-0.0349381 -0.0130774 0)
(-0.0304801 -0.0130782 0)
(-0.0297708 -0.0130524 0)
(-0.0253443 -0.012727 0)
(-0.0246499 -0.0126499 0)
(-0.0203744 -0.0119938 0)
(-0.0197141 -0.0118657 0)
(-0.0157079 -0.0108873 0)
(-0.0151001 -0.010711 0)
(-0.0114758 -0.00943626 0)
(-0.0109377 -0.00921728 0)
(-0.00779636 -0.00769507 0)
(-0.00734262 -0.00744346 0)
(-0.00476618 -0.00575345 0)
(-0.00440759 -0.00548488 0)
(-0.00245445 -0.00374781 0)
(-0.002199 -0.00348564 0)
(-0.000921295 -0.00188039 0)
(-0.000777433 -0.00166014 0)
(-0.000220016 -0.00054657 0)
(-0.000178668 -0.000459435 0)
(-0.000269861 0.00103682 0)
(-0.000330571 0.00119529 0)
(-0.00108564 0.00289277 0)
(-0.00128534 0.00324238 0)
(-0.00294177 0.00549891 0)
(-0.0032806 0.00587827 0)
(-0.00572391 0.00818824 0)
(-0.006182 0.00855921 0)
(-0.00931162 0.0107326 0)
(-0.0098742 0.0110698 0)
(-0.0136026 0.0129794 0)
(-0.0142545 0.0132659 0)
(-0.0184792 0.0148303 0)
(-0.0192024 0.0150557 0)
(-0.023807 0.0162281 0)
(-0.0245819 0.016387 0)
(-0.0294433 0.0171461 0)
(-0.0302496 0.0172367 0)
(-0.035242 0.01758 0)
(-0.0360593 0.017603 0)
(-0.0410583 0.0175413 0)
(-0.0418667 0.0174992 0)
(-0.0467521 0.0170527 0)
(-0.0475325 0.0169495 0)
(-0.052191 0.0161455 0)
(-0.0529256 0.0159862 0)
(-0.0572523 0.0148567 0)
(-0.0579248 0.0146468 0)
(-0.0618249 0.0132274 0)
(-0.0624207 0.012973 0)
(-0.0658107 0.0113021 0)
(-0.0663173 0.0110096 0)
(-0.0691254 0.00912727 0)
(-0.069532 0.00880344 0)
(-0.0716994 0.00675177 0)
(-0.0719975 0.00640364 0)
(-0.0734783 0.00422605 0)
(-0.0736616 0.0038609 0)
(-0.0744239 0.0016023 0)
(-0.0744883 0.00122762 0)
(-0.0745142 -0.00106567 0)
(-0.0744579 -0.00144216 0)
(-0.0737439 -0.00372255 0)
(-0.0735677 -0.00409293 0)
(-0.0721255 -0.00631171 0)
(-0.0718324 -0.0066679 0)
(-0.0696886 -0.00877554 0)
(-0.0692843 -0.00910937 0)
(-0.0664808 -0.011056 0)
(-0.0659733 -0.0113593 0)
(-0.0625673 -0.0130954 0)
(-0.0619671 -0.0133601 0)
(-0.0580308 -0.0148373 0)
(-0.0573509 -0.0150556 0)
(-0.0529706 -0.0162282 0)
(-0.0522262 -0.0163929 0)
(-0.0475018 -0.0172188 0)
(-0.0467101 -0.0173234 0)
(-0.041753 -0.0177661 0)
(-0.040933 -0.0178053 0)
(-0.0358644 -0.017836 0)
(-0.0350365 -0.0178058 0)
(-0.0299848 -0.017406 0)
(-0.0291702 -0.0173044 0)
(-0.0242673 -0.0164686 0)
(-0.0234875 -0.016296 0)
(-0.0188649 -0.0150356 0)
(-0.018141 -0.0147955 0)
(-0.0139249 -0.0131436 0)
(-0.0132767 -0.0128437 0)
(-0.00958314 -0.0108608 0)
(-0.00902818 -0.0105137 0)
(-0.00595514 -0.0082959 0)
(-0.00550757 -0.00792089 0)
(-0.00313322 -0.00560897 0)
(-0.0028058 -0.00523346 0)
(-0.00121469 -0.00302751 0)
(-0.00102402 -0.00269085 0)
(-0.000307731 -0.00107607 0)
(-0.000250365 -0.000926338 0)
(-0.000277971 0.00112602 0)
(-0.000338047 0.00127752 0)
(-0.001124 0.0031028 0)
(-0.0013237 0.00345241 0)
(-0.00304245 0.00583774 0)
(-0.00338127 0.0062171 0)
(-0.00590678 0.00864552 0)
(-0.00636487 0.0090165 0)
(-0.00959012 0.0112952 0)
(-0.0101527 0.0116324 0)
(-0.0139864 0.0136314 0)
(-0.0146383 0.0139178 0)
(-0.0189747 0.0155535 0)
(-0.0196979 0.0157789 0)
(-0.0244179 0.017003 0)
(-0.0251928 0.0171619 0)
(-0.0301707 0.0179524 0)
(-0.030977 0.018043 0)
(-0.0360849 0.0183974 0)
(-0.0369022 0.0184203 0)
(-0.0420136 0.0183496 0)
(-0.042822 0.0183075 0)
(-0.0478147 0.017833 0)
(-0.0485951 0.0177299 0)
(-0.053354 0.01688 0)
(-0.0540886 0.0167207 0)
(-0.0585072 0.0155292 0)
(-0.0591797 0.0153192 0)
(-0.0631618 0.0138233 0)
(-0.0637577 0.0135688 0)
(-0.0672183 0.0118086 0)
(-0.0677249 0.0115161 0)
(-0.0705913 0.00953389 0)
(-0.0709979 0.00921005 0)
(-0.0732102 0.0070499 0)
(-0.0735084 0.00670178 0)
(-0.0750201 0.00440936 0)
(-0.0752034 0.00404421 0)
(-0.0759821 0.00166671 0)
(-0.0760465 0.00129204 0)
(-0.0760738 -0.00112189 0)
(-0.0760176 -0.00149838 0)
(-0.0752901 -0.00389874 0)
(-0.0751139 -0.00426912 0)
(-0.0736434 -0.00660475 0)
(-0.0733503 -0.00696095 0)
(-0.0711637 -0.00917985 0)
(-0.0707594 -0.00951368 0)
(-0.0678993 -0.0115635 0)
(-0.0673918 -0.0118668 0)
(-0.0639161 -0.0136955 0)
(-0.0633159 -0.0139602 0)
(-0.0592979 -0.0155172 0)
(-0.058618 -0.0157355 0)
(-0.0541454 -0.0169726 0)
(-0.053401 -0.0171373 0)
(-0.048575 -0.0180105 0)
(-0.0477833 -0.0181151 0)
(-0.0427172 -0.0185861 0)
(-0.0418972 -0.0186253 0)
(-0.0367141 -0.018664 0)
(-0.0358862 -0.0186337 0)
(-0.0307167 -0.0182207 0)
(-0.0299021 -0.018119 0)
(-0.0248804 -0.0172484 0)
(-0.0241006 -0.0170758 0)
(-0.0193605 -0.0157596 0)
(-0.0186366 -0.0155195 0)
(-0.0143073 -0.0137919 0)
(-0.013659 -0.0134919 0)
(-0.00985929 -0.0114157 0)
(-0.00930433 -0.0110686 0)
(-0.00613549 -0.0087427 0)
(-0.00568792 -0.00836768 0)
(-0.00323191 -0.00593636 0)
(-0.00290449 -0.00556085 0)
(-0.00125201 -0.00322783 0)
(-0.00106134 -0.00289117 0)
(-0.000314912 -0.00115311 0)
(-0.000258156 -0.00100993 0)
(-0.000346628 0.0017726 0)
(-0.00042232 0.00200607 0)
(-0.00136471 0.00447465 0)
(-0.00161062 0.00497039 0)
(-0.00364081 0.00808424 0)
(-0.00405115 0.00859693 0)
(-0.00699566 0.0116835 0)
(-0.00754203 0.0121734 0)
(-0.0112588 0.015029 0)
(-0.0119212 0.0154684 0)
(-0.0162966 0.0179519 0)
(-0.0170561 0.0183219 0)
(-0.0219668 0.0203401 0)
(-0.0228022 0.0206289 0)
(-0.0281138 0.0221272 0)
(-0.0290028 0.0223283 0)
(-0.0345764 0.0232817 0)
(-0.0354965 0.0233929 0)
(-0.0411926 0.0237988 0)
(-0.0421211 0.0238212 0)
(-0.0478028 0.0236934 0)
(-0.0487179 0.0236303 0)
(-0.0542534 0.0229952 0)
(-0.0551344 0.0228517 0)
(-0.0604 0.0217445 0)
(-0.0612274 0.021527 0)
(-0.0661087 0.0199897 0)
(-0.066865 0.0197055 0)
(-0.0712588 0.0177848 0)
(-0.0719281 0.0174418 0)
(-0.0757434 0.0151881 0)
(-0.076312 0.0147948 0)
(-0.0794709 0.0122611 0)
(-0.0799272 0.0118265 0)
(-0.0823655 0.00906854 0)
(-0.0827002 0.00860181 0)
(-0.084368 0.0056771 0)
(-0.0845743 0.00518787 0)
(-0.0854366 0.00215591 0)
(-0.08551 0.0016541 0)
(-0.0855472 -0.0014238 0)
(-0.0854857 -0.001928 0)
(-0.0846937 -0.00498883 0)
(-0.084498 -0.00548496 0)
(-0.0828889 -0.00846429 0)
(-0.0825624 -0.00894171 0)
(-0.0801648 -0.0117741 0)
(-0.0797133 -0.012222 0)
(-0.0765723 -0.0148415 0)
(-0.0760046 -0.0152492 0)
(-0.0721818 -0.0175906 0)
(-0.0715092 -0.0179474 0)
(-0.0670825 -0.019947 0)
(-0.066319 -0.0202428 0)
(-0.0613823 -0.0218402 0)
(-0.0605443 -0.0220654 0)
(-0.055206 -0.0232053 0)
(-0.0543122 -0.0233514 0)
(-0.0486939 -0.023986 0)
(-0.047765 -0.024046 0)
(-0.0419994 -0.0241375 0)
(-0.0410577 -0.0241062 0)
(-0.035286 -0.0236302 0)
(-0.0343549 -0.023505 0)
(-0.0287231 -0.0224538 0)
(-0.0278265 -0.0222351 0)
(-0.0224815 -0.0206225 0)
(-0.021643 -0.0203146 0)
(-0.0167285 -0.0181806 0)
(-0.0159709 -0.0177926 0)
(-0.011622 -0.0152098 0)
(-0.0109663 -0.0147567 0)
(-0.0073026 -0.0118377 0)
(-0.00676654 -0.0113416 0)
(-0.0038921 -0.00824625 0)
(-0.00349362 -0.00773761 0)
(-0.00153281 -0.004685 0)
(-0.00129663 -0.00420568 0)
(-0.000396657 -0.00184417 0)
(-0.000324642 -0.00162206 0)
(-0.00035398 0.00188527 0)
(-0.000429097 0.00210993 0)
(-0.00140088 0.00473375 0)
(-0.00164678 0.00522949 0)
(-0.00373747 0.00849465 0)
(-0.00414781 0.00900735 0)
(-0.00717297 0.0122289 0)
(-0.00771934 0.0127188 0)
(-0.0115304 0.0156914 0)
(-0.0121928 0.0161308 0)
(-0.016672 0.0187115 0)
(-0.0174314 0.0190815 0)
(-0.0224519 0.0211756 0)
(-0.0232873 0.0214643 0)
(-0.0287116 0.0230163 0)
(-0.0296007 0.0232174 0)
(-0.0352874 0.0242018 0)
(-0.0362074 0.024313 0)
(-0.0420149 0.0247274 0)
(-0.0429434 0.0247498 0)
(-0.0487325 0.0246086 0)
(-0.0496477 0.0245455 0)
(-0.0552852 0.0238762 0)
(-0.0561662 0.0237328 0)
(-0.0615266 0.0225721 0)
(-0.0623541 0.0223546 0)
(-0.0673218 0.0207461 0)
(-0.0680781 0.0204618 0)
(-0.0725487 0.0184541 0)
(-0.073218 0.0181111 0)
(-0.0770995 0.0157567 0)
(-0.077668 0.0153634 0)
(-0.0808815 0.0127175 0)
(-0.0813378 0.0122828 0)
(-0.0838183 0.0094033 0)
(-0.084153 0.00893657 0)
(-0.0858501 0.00588339 0)
(-0.0860564 0.00539417 0)
(-0.0869347 0.00222928 0)
(-0.0870081 0.00172747 0)
(-0.0870477 -0.00148528 0)
(-0.0869862 -0.00198948 0)
(-0.0861828 -0.0051845 0)
(-0.0859871 -0.00568064 0)
(-0.084353 -0.00879087 0)
(-0.0840264 -0.00926829 0)
(-0.0815902 -0.0122256 0)