/*--------------------------------*- C++ -*----------------------------------*\
| =========                 |                                                 |
| \\      /  F ield         | OpenFOAM: The Open Source CFD Toolbox           |
|  \\    /   O peration     | Version:  2506                                  |
|   \\  /    A nd           | Website:  www.openfoam.com                      |
|    \\/     M anipulation  |                                                 |
\*---------------------------------------------------------------------------*/
FoamFile
{
    version     2.0;
    format      ascii;
    arch        "LSB;label=32;scalar=64";
    class       volScalarField;
    location    "0.5";
    object      Ux;
}
// * * * * * * * * * * * * * * * * * * * * * * * * * * * * * * * * * * * * * //

dimensions      [0 1 -1 0 0 0 0];

internalField   nonuniform List<scalar> 
6400
(
7.71651e-05
8.49175e-05
0.000123151
0.000131333
8.93823e-05
7.67193e-05
-0.000110724
-0.000149773
-0.00049382
-0.000558578
-0.00104653
-0.00113352
-0.00174249
-0.00184736
-0.00255076
-0.00266891
-0.00343924
-0.00356613
-0.00437639
-0.00450768
-0.00533218
-0.00546384
-0.00627861
-0.00640693
-0.00719001
-0.00731162
-0.00804314
-0.00815504
-0.00881738
-0.00891693
-0.0094947
-0.00957962
-0.0100597
-0.0101281
-0.0104997
-0.01055
-0.0108047
-0.0108358
-0.0109677
-0.0109789
-0.0109845
-0.0109753
-0.0108539
-0.0108245
-0.0105778
-0.0105286
-0.0101613
-0.0100933
-0.00961299
-0.00952765
-0.00894467
-0.00884386
-0.00817162
-0.00805772
-0.00731242
-0.00718825
-0.00638895
-0.00625779
-0.00542617
-0.00529171
-0.00445173
-0.00431804
-0.0034957
-0.00336715
-0.00258984
-0.00247101
-0.00176689
-0.00166245
-0.00105934
-0.00097385
-0.000497557
-0.000435166
-0.000106642
-7.03686e-05
0.000100835
0.000110978
0.000140143
0.000130466
8.64658e-05
7.83927e-05
7.53418e-05
8.25626e-05
0.00011919
0.000126731
6.84306e-05
5.6758e-05
-0.000162506
-0.000198501
-0.000590106
-0.000649799
-0.00119996
-0.00128015
-0.00196397
-0.00206064
-0.00284898
-0.00295789
-0.00382039
-0.00393736
-0.00484413
-0.00496515
-0.00588762
-0.00600898
-0.00692046
-0.00703874
-0.00791471
-0.00802681
-0.00884509
-0.00894824
-0.00968911
-0.00978088
-0.0104271
-0.0105054
-0.0110423
-0.0111054
-0.0115209
-0.0115673
-0.0118521
-0.0118808
-0.0120282
-0.0120384
-0.0120446
-0.0120361
-0.0119001
-0.011873
-0.0115969
-0.0115515
-0.0111406
-0.0110779
-0.0105406
-0.0104619
-0.00980989
-0.00971696
-0.00896515
-0.00886015
-0.0080267
-0.00791224
-0.00701841
-0.0068975
-0.0059675
-0.00584357
-0.00490408
-0.00478085
-0.00386083
-0.00374233
-0.00287218
-0.00276264
-0.00197354
-0.00187727
-0.00119989
-0.00112109
-0.000583748
-0.000526237
-0.000151721
-0.000118285
8.30245e-05
9.23744e-05
0.000136379
0.000127459
8.42507e-05
7.67546e-05
5.44381e-05
5.58509e-05
2.90912e-05
1.26433e-05
-0.000209566
-0.000268192
-0.000760944
-0.000868196
-0.00164393
-0.00179897
-0.00283776
-0.00303539
-0.00429923
-0.00453195
-0.00597384
-0.00623311
-0.0078023
-0.00807924
-0.00972449
-0.0100103
-0.0116817
-0.0119681
-0.0136185
-0.0138974
-0.0154831
-0.0157474
-0.0172284
-0.0174716
-0.0188123
-0.0190287
-0.0201978
-0.0203823
-0.0213533
-0.0215018
-0.0222529
-0.0223619
-0.022876
-0.0229432
-0.0232083
-0.023232
-0.0232414
-0.0232208
-0.022973
-0.0229084
-0.0224073
-0.0222999
-0.0215553
-0.0214073
-0.0204346
-0.020249
-0.0190696
-0.0188507
-0.0174916
-0.0172446
-0.0157385
-0.0154694
-0.0138545
-0.0135703
-0.0118897
-0.0115983
-0.00989931
-0.00960916
-0.00794256
-0.00766266
-0.00608126
-0.00582082
-0.00437784
-0.00414595
-0.00289264
-0.00269778
-0.00167982
-0.00152908
-0.000781237
-0.000679098
-0.000216159
-0.000162407
3.49543e-05
4.80376e-05
6.20558e-05
5.95134e-05
5.02788e-05
5.20169e-05
6.35527e-06
-1.00926e-05
-0.000276217
-0.000334843
-0.000895343
-0.0010026
-0.00186939
-0.00202443
-0.00317624
-0.00337387
-0.00476989
-0.00500261
-0.00659205
-0.00685132
-0.00857912
-0.00885606
-0.0106664
-0.0109523
-0.0127907
-0.013077
-0.014892
-0.0151709
-0.0169143
-0.0171787
-0.0188069
-0.0190501
-0.0205239
-0.0207403
-0.0220255
-0.02221
-0.0232773
-0.0234258
-0.0242512
-0.0243603
-0.0249251
-0.0249923
-0.0252834
-0.0253071
-0.0253171
-0.0252966
-0.0250238
-0.0249593
-0.0244082
-0.0243009
-0.0234822
-0.0233341
-0.0222649
-0.0220793
-0.0207829
-0.020564
-0.0190702
-0.0188231
-0.0171677
-0.0168986
-0.0151235
-0.0148393
-0.0129918
-0.0127004
-0.0108321
-0.010542
-0.00870858
-0.00842868
-0.00668769
-0.00642725
-0.00483663
-0.00460474
-0.0032201
-0.00302524
-0.00189595
-0.00174522
-0.000908622
-0.000806483
-0.000278404
-0.000224652
1.42017e-05
2.7285e-05
5.87244e-05
5.58994e-05
-1.12907e-05
-2.38556e-05
-0.000198526
-0.00025509
-0.000784892
-0.000906907
-0.00184608
-0.00203681
-0.00338618
-0.00364319
-0.00537271
-0.00568902
-0.00774537
-0.00811083
-0.0104267
-0.0108295
-0.0133309
-0.0137583
-0.0163691
-0.0168085
-0.0194534
-0.0198925
-0.0224995
-0.0229267
-0.0254285
-0.0258329
-0.0281676
-0.0285395
-0.0306517
-0.0309823
-0.0328233
-0.033105
-0.0346331
-0.0348596
-0.0360407
-0.0362069
-0.0370143
-0.0371166
-0.0375317
-0.0375675
-0.0375799
-0.0375482
-0.0371559
-0.037057
-0.0362665
-0.0361023
-0.034929
-0.0347028
-0.0331712
-0.0328879
-0.0310313
-0.0306972
-0.028558
-0.0281808
-0.0258099
-0.0253989
-0.0228552
-0.0224209
-0.0197707
-0.0193246
-0.0166405
-0.0161951
-0.0135539
-0.0131224
-0.0106034
-0.010199
-0.0078813
-0.00751695
-0.00547533
-0.0051628
-0.0034629
-0.00321183
-0.00190269
-0.00171915
-0.000824017
-0.000709094
-0.000217509
-0.000166129
-1.24211e-05
-1.69273e-06
-2.01214e-05
-3.19956e-05
-0.000235766
-0.000292329
-0.000879012
-0.00100103
-0.00201734
-0.00220807
-0.00365183
-0.00390884
-0.00574828
-0.00606459
-0.00824417
-0.00860963
-0.0110592
-0.011462
-0.0141044
-0.0145318
-0.0172874
-0.0177269
-0.020517
-0.0209562
-0.0237054
-0.0241325
-0.02677
-0.0271745
-0.0296354
-0.0300073
-0.0322334
-0.032564
-0.034504
-0.0347857
-0.0363958
-0.0366224
-0.0378667
-0.038033
-0.0388835
-0.0389857
-0.0394229
-0.0394587
-0.0394715
-0.0394398
-0.0390262
-0.0389273
-0.0380942
-0.03793
-0.0366937
-0.0364675
-0.0348536
-0.0345703
-0.032614
-0.0322798
-0.0300257
-0.0296485
-0.0271499
-0.0267389
-0.0240577
-0.0236234
-0.0208293
-0.0203832
-0.0175522
-0.0171069
-0.0143194
-0.0138879
-0.0112271
-0.0108227
-0.00837109
-0.00800675
-0.00584236
-0.00552983
-0.00372112
-0.00347004
-0.00206819
-0.00188465
-0.000914396
-0.000799473
-0.000253027
-0.000201646
-2.01215e-05
-1.00465e-05
-9.83974e-05
-0.000127026
-0.00048942
-0.000592769
-0.00148509
-0.00167774
-0.00310613
-0.0033849
-0.00532414
-0.00568349
-0.0080891
-0.00851988
-0.0113242
-0.0118139
-0.0149331
-0.0154671
-0.0188091
-0.0193719
-0.0228415
-0.0234174
-0.0269196
-0.0274933
-0.0309367
-0.0314935
-0.0347919
-0.0353183
-0.0383925
-0.0388758
-0.0416542
-0.0420835
-0.0445032
-0.0448688
-0.0468759
-0.0471696
-0.0487199
-0.0489353
-0.0499943
-0.0501266
-0.0506703
-0.0507165
-0.0507315
-0.0506901
-0.050174
-0.0500456
-0.0490071
-0.0487941
-0.0472534
-0.04696
-0.0449487
-0.0445812
-0.0421427
-0.0417091
-0.038898
-0.0384082
-0.03529
-0.0347557
-0.0314061
-0.0308405
-0.0273442
-0.026762
-0.0232112
-0.0226279
-0.01912
-0.0185521
-0.0151871
-0.0146509
-0.0115278
-0.0110392
-0.00825138
-0.00782494
-0.00545449
-0.00510222
-0.00321212
-0.00294215
-0.00156897
-0.00138523
-0.000542248
-0.000445614
-0.000111204
-8.49963e-05
-0.000107897
-0.000135783
-0.000530295
-0.000633644
-0.00158815
-0.0017808
-0.00329082
-0.00356959
-0.00560501
-0.00596437
-0.00847822
-0.008909
-0.0118312
-0.0123208
-0.015565
-0.016099
-0.0195705
-0.0201333
-0.023734
-0.0243099
-0.0279422
-0.0285159
-0.0320855
-0.0326424
-0.0360606
-0.036587
-0.039772
-0.0402554
-0.0431335
-0.0435627
-0.0460689
-0.0464344
-0.048513
-0.0488068
-0.050412
-0.0506275
-0.051724
-0.0518563
-0.0524192
-0.0524654
-0.0524809
-0.0524395
-0.0519052
-0.0517768
-0.0507015
-0.0504885
-0.0488932
-0.0485998
-0.0465172
-0.0461497
-0.0436244
-0.0431908
-0.0402793
-0.0397896
-0.0365594
-0.0360252
-0.0325544
-0.0319888
-0.0283647
-0.0277825
-0.0241001
-0.0235169
-0.0198765
-0.0193086
-0.0158131
-0.015277
-0.0120283
-0.0115397
-0.008634
-0.00820756
-0.00572947
-0.0053772
-0.00339208
-0.0031221
-0.00166889
-0.00148516
-0.000581675
-0.000485041
-0.000119598
-9.41024e-05
-0.000186714
-0.000231654
-0.000791798
-0.000943658
-0.00221784
-0.00248367
-0.00441875
-0.0047873
-0.00732271
-0.00778415
-0.0108559
-0.0113983
-0.0149226
-0.0155309
-0.019408
-0.0200651
-0.0241871
-0.0248751
-0.0291307
-0.0298313
-0.0341098
-0.0348053
-0.0389996
-0.0396729
-0.0436818
-0.044317
-0.0480473
-0.0486297
-0.0519968
-0.0525135
-0.0554431
-0.0558827
-0.0583111
-0.0586641
-0.0605388
-0.0607977
-0.062078
-0.062237
-0.0628945
-0.06295
-0.062969
-0.0629194
-0.0622969
-0.062143
-0.0608893
-0.0606338
-0.058773
-0.0584209
-0.0559905
-0.0555491
-0.0526001
-0.0520788
-0.0486758
-0.0480863
-0.0443063
-0.0436622
-0.0395943
-0.038911
-0.0346547
-0.0339493
-0.0296126
-0.0289032
-0.0246002
-0.0239058
-0.0197536
-0.0190932
-0.0152074
-0.0145997
-0.0110903
-0.0105522
-0.00751771
-0.00706397
-0.00458338
-0.00422479
-0.00235339
-0.00209794
-0.000882196
-0.000738335
-0.000212097
-0.000170077
-0.000195653
-0.000239894
-0.000832139
-0.000983999
-0.00232149
-0.00258732
-0.00460527
-0.00497381
-0.00760568
-0.00806711
-0.0112457
-0.0117881
-0.0154266
-0.0160349
-0.0200312
-0.0206884
-0.0249321
-0.0256201
-0.0299974
-0.0306981
-0.0350961
-0.0357916
-0.040101
-0.0407742
-0.0448916
-0.0455268
-0.0493568
-0.0499392
-0.0533957
-0.0539124
-0.0569192
-0.0573588
-0.059851
-0.060204
-0.0621278
-0.0623866
-0.0637005
-0.0638595
-0.0645345
-0.0645899
-0.0646098
-0.0645602
-0.063922
-0.063768
-0.0624823
-0.0622268
-0.0603181
-0.059966
-0.0574725
-0.0570311
-0.0540051
-0.0534839
-0.0499912
-0.0494018
-0.0455212
-0.0448771
-0.0406996
-0.0400164
-0.0356435
-0.0349381
-0.0304801
-0.0297708
-0.0253443
-0.0246499
-0.0203744
-0.0197141
-0.0157079
-0.0151001
-0.0114758
-0.0109377
-0.00779636
-0.00734262
-0.00476618
-0.00440759
-0.00245445
-0.002199
-0.000921295
-0.000777433
-0.000220016
-0.000178668
-0.000269861
-0.000330571
-0.00108564
-0.00128534
-0.00294177
-0.0032806
-0.00572391
-0.006182
-0.00931162
-0.0098742
-0.0136026
-0.0142545
-0.0184792
-0.0192024
-0.023807
-0.0245819
-0.0294433
-0.0302496
-0.035242
-0.0360593
-0.0410583
-0.0418667
-0.0467521
-0.0475325
-0.052191
-0.0529256
-0.0572523
-0.0579248
-0.0618249
-0.0624207
-0.0658107
-0.0663173
-0.0691254
-0.069532
-0.0716994
-0.0719975
-0.0734783
-0.0736616
-0.0744239
-0.0744883
-0.0745142
-0.0744579
-0.0737439
-0.0735677
-0.0721255
-0.0718324
-0.0696886
-0.0692843
-0.0664808
-0.0659733
-0.0625673
-0.0619671
-0.0580308
-0.0573509
-0.0529706
-0.0522262
-0.0475018
-0.0467101
-0.041753
-0.040933
-0.0358644
-0.0350365
-0.0299848
-0.0291702
-0.0242673
-0.0234875
-0.0188649
-0.018141
-0.0139249
-0.0132767
-0.00958314
-0.00902818
-0.00595514
-0.00550757
-0.00313322
-0.0028058
-0.00121469
-0.00102402
-0.000307731
-0.000250365
-0.000277971
-0.000338047
-0.001124
-0.0013237
-0.00304245
-0.00338127
-0.00590678
-0.00636487
-0.00959012
-0.0101527
-0.0139864
-0.0146383
-0.0189747
-0.0196979
-0.0244179
-0.0251928
-0.0301707
-0.030977
-0.0360849
-0.0369022
-0.0420136
-0.042822
-0.0478147
-0.0485951
-0.053354
-0.0540886
-0.0585072
-0.0591797
-0.0631618
-0.0637577
-0.0672183
-0.0677249
-0.0705913
-0.0709979
-0.0732102
-0.0735084
-0.0750201
-0.0752034
-0.0759821
-0.0760465
-0.0760738
-0.0760176
-0.0752901
-0.0751139
-0.0736434
-0.0733503
-0.0711637
-0.0707594
-0.0678993
-0.0673918
-0.0639161
-0.0633159
-0.0592979
-0.058618
-0.0541454
-0.053401
-0.048575
-0.0477833
-0.0427172
-0.0418972
-0.0367141
-0.0358862
-0.0307167
-0.0299021
-0.0248804
-0.0241006
-0.0193605
-0.0186366
-0.0143073
-0.013659
-0.00985929
-0.00930433
-0.00613549
-0.00568792
-0.00323191
-0.00290449
-0.00125201
-0.00106134
-0.000314912
-0.000258156
-0.000346628
-0.00042232
-0.00136471
-0.00161062
-0.00364081
-0.00405115
-0.00699566
-0.00754203
-0.0112588
-0.0119212
-0.0162966
-0.0170561
-0.0219668
-0.0228022
-0.0281138
-0.0290028
-0.0345764
-0.0354965
-0.0411926
-0.0421211
-0.0478028
-0.0487179
-0.0542534
-0.0551344
-0.0604
-0.0612274
-0.0661087
-0.066865
-0.0712588
-0.0719281
-0.0757434
-0.076312
-0.0794709
-0.0799272
-0.0823655
-0.0827002
-0.084368
-0.0845743
-0.0854366
-0.08551
-0.0855472
-0.0854857
-0.0846937
-0.084498
-0.0828889
-0.0825624
-0.0801648
-0.0797133
-0.0765723
-0.0760046
-0.0721818
-0.0715092
-0.0670825
-0.066319
-0.0613823
-0.0605443
-0.055206
-0.0543122
-0.0486939
-0.047765
-0.0419994
-0.0410577
-0.035286
-0.0343549
-0.0287231
-0.0278265
-0.0224815
-0.021643
-0.0167285
-0.0159709
-0.011622
-0.0109663
-0.0073026
-0.00676654
-0.0038921
-0.00349362
-0.00153281
-0.00129663
-0.000396657
-0.000324642
-0.00035398
-0.000429097
-0.00140088
-0.00164678
-0.00373747
-0.00414781
-0.00717297
-0.00771934
-0.0115304
-0.0121928
-0.016672
-0.0174314
-0.0224519
-0.0232873
-0.0287116
-0.0296007
-0.0352874
-0.0362074
-0.0420149
-0.0429434
-0.0487325
-0.0496477
-0.0552852
-0.0561662
-0.0615266
-0.0623541
-0.0673218
-0.0680781
-0.0725487
-0.073218
-0.0770995
-0.077668
-0.0808815
-0.0813378
-0.0838183
-0.084153
-0.0858501
-0.0860564
-0.0869347
-0.0870081
-0.0870477
-0.0869862
-0.0861828
-0.0859871
-0.084353
-0.0840264
-0.0815902
-0.0811388
-0.0779461
-0.0773784
-0.0734914
-0.0728188
-0.0683164
-0.0675528
-0.0625296
-0.0616915
-0.0562572
-0.0553634
-0.0496412
-0.0487123
-0.0428365
-0.0418948
-0.0360086
-0.0350775
-0.0293292
-0.0284326
-0.0229717
-0.0221332
-0.0171062
-0.0163486
-0.0118939
-0.0112382
-0.007479
-0.00694294
-0.00398758
-0.00358909
-0.00156819
-0.00133201
-0.000403171
-0.000331709
-0.000417784
-0.000507704
-0.00162914
-0.00191948
-0.0043123
-0.00479227
-0.00822777
-0.0088608
-0.0131557
-0.0139164
-0.0189296
-0.019795
-0.0253806
-0.0263263
-0.0323305
-0.0333312
-0.0395988
-0.0406295
-0.0470072
-0.0480433
-0.0543818
-0.0553997
-0.0615571
-0.0625343
-0.0683775
-0.0692934
-0.0747
-0.0755358
-0.0803958
-0.0811346
-0.0853511
-0.0859783
-0.0894682
-0.0899715
-0.0926665
-0.0930362
-0.0948832
-0.0951118
-0.0960733
-0.096156
-0.0962104
-0.0961452
-0.0952878
-0.0950752
-0.0933181
-0.0929614
-0.0903342
-0.0898397
-0.0863894
-0.085766
-0.0815573
-0.0808172
-0.0759324
-0.0750901
-0.0696287
-0.0687017
-0.0627792
-0.0617875
-0.0555342
-0.0545001
-0.0480591
-0.0470065
-0.0405312
-0.0394856
-0.033136
-0.0321238
-0.026063
-0.0251106
-0.0195006
-0.018634
-0.0136312
-0.012875
-0.00862273
-0.00799879
-0.00462889
-0.00416044
-0.00183728
-0.0015569
-0.000479855
-0.000393817
-0.000424554
-0.000513944
-0.00166341
-0.00195376
-0.00440521
-0.00488519
-0.00839963
-0.00903266
-0.0134204
-0.0141811
-0.0192967
-0.0201621
-0.025856
-0.0268016
-0.0329167
-0.0339174
-0.0402958
-0.0413265
-0.0478126
-0.0488487
-0.0552915
-0.0563093
-0.062565
-0.0635423
-0.0694765
-0.0703924
-0.0758817
-0.0767175
-0.0816507
-0.0823895
-0.0866689
-0.0872961
-0.0908381
-0.0913414
-0.0940769
-0.0944465
-0.096322
-0.0965506
-0.0975282
-0.0976109
-0.0976687
-0.0976035
-0.0967368
-0.0965242
-0.0947449
-0.0943882
-0.0917261
-0.0912315
-0.0877336
-0.0871103
-0.0828418
-0.0821017
-0.0771455
-0.0763032
-0.0707595
-0.0698326
-0.0638179
-0.0628263
-0.0564723
-0.0554381
-0.0488896
-0.047837
-0.041249
-0.0402034
-0.0337384
-0.0327262
-0.0265498
-0.0255975
-0.0198749
-0.0190084
-0.0138996
-0.0131434
-0.00879585
-0.00817191
-0.00472173
-0.00425327
-0.00187113
-0.00159076
-0.000485882
-0.000400355
-0.000484713
-0.000588259
-0.0018817
-0.00221498
-0.00496011
-0.00550803
-0.00942458
-0.0101427
-0.0150071
-0.0158648
-0.0215078
-0.0224779
-0.0287298
-0.0297843
-0.0364709
-0.0375816
-0.0445307
-0.04567
-0.0527138
-0.053855
-0.0608327
-0.0619504
-0.06871
-0.0697804
-0.0761804
-0.0771816
-0.0830931
-0.0840052
-0.0893122
-0.0901176
-0.0947183
-0.0954019
-0.0992094
-0.0997582
-0.102701
-0.103105
-0.105127
-0.105378
-0.10644
-0.106533
-0.106612
-0.106545
-0.105634
-0.105407
-0.10352
-0.103136
-0.1003
-0.099766
-0.0960302
-0.0953551
-0.0907857
-0.089982
-0.0846643
-0.0837471
-0.0777849
-0.0767725
-0.070287
-0.0692004
-0.0623297
-0.0611925
-0.0540893
-0.0529274
-0.0457568
-0.0445977
-0.0375343
-0.0364068
-0.0296306
-0.0285641
-0.0222571
-0.0212812
-0.0156226
-0.0147657
-0.00992465
-0.00921301
-0.0053503
-0.00481255
-0.00213224
-0.00180857
-0.000559175
-0.000459532
-0.000491085
-0.000594133
-0.00191459
-0.00224787
-0.00505012
-0.00559804
-0.00959209
-0.0103102
-0.0152663
-0.0161239
-0.0218682
-0.0228383
-0.0291973
-0.0302518
-0.037048
-0.0381587
-0.0452169
-0.0463562
-0.0535065
-0.0546476
-0.0617272
-0.0628449
-0.0697001
-0.0707705
-0.0772589
-0.0782601
-0.0842513
-0.0851635
-0.090541
-0.0913465
-0.0960079
-0.0966915
-0.100549
-0.101098
-0.10408
-0.104484
-0.106534
-0.106785
-0.107864
-0.107957
-0.108041
-0.107973
-0.107056
-0.106829
-0.104922
-0.104538
-0.10167
-0.101136
-0.0973565
-0.0966814
-0.092056
-0.0912523
-0.0858669
-0.0849497
-0.0789087
-0.0778963
-0.0713216
-0.070235
-0.063266
-0.0621288
-0.0549195
-0.0537576
-0.0464752
-0.045316
-0.0381374
-0.0370098
-0.0301178
-0.0290513
-0.0226311
-0.0216551
-0.01589
-0.015033
-0.0100963
-0.00938464
-0.00544171
-0.00490397
-0.00216522
-0.00184155
-0.000564914
-0.000465758
-0.000548857
-0.00066562
-0.00212603
-0.00250118
-0.00559089
-0.00620549
-0.0105954
-0.0113975
-0.0168246
-0.0177782
-0.0240448
-0.0251186
-0.0320305
-0.0331928
-0.0405545
-0.0417739
-0.0493954
-0.0506417
-0.0583406
-0.059585
-0.0671887
-0.068404
-0.075751
-0.0769122
-0.0838534
-0.0849375
-0.091338
-0.0923242
-0.0980634
-0.0989335
-0.103906
-0.104644
-0.10876
-0.109353
-0.112538
-0.112975
-0.115172
-0.115445
-0.116612
-0.116716
-0.116828
-0.11676
-0.11581
-0.115571
-0.11357
-0.113162
-0.110137
-0.109567
-0.105568
-0.104845
-0.0999372
-0.0990734
-0.0933449
-0.0923561
-0.085913
-0.084818
-0.0777865
-0.0766073
-0.069132
-0.0678934
-0.0601361
-0.0588656
-0.0510034
-0.0497307
-0.0419529
-0.0407095
-0.0332139
-0.0320324
-0.0250227
-0.0239363
-0.0176162
-0.0166577
-0.0112235
-0.0104237
-0.00606657
-0.00545948
-0.00242315
-0.00205645
-0.000636647
-0.000523563
-0.000554999
-0.000671281
-0.00215808
-0.00253322
-0.00567905
-0.00629365
-0.01076
-0.0115622
-0.0170801
-0.0180336
-0.0244008
-0.0254746
-0.0324928
-0.0336551
-0.0411253
-0.0423448
-0.0500741
-0.0513204
-0.0591242
-0.0603685
-0.0680722
-0.0692875
-0.076728
-0.0778892
-0.0849164
-0.0860004
-0.0924785
-0.0934647
-0.0992723
-0.100142
-0.105174
-0.105912
-0.110077
-0.11067
-0.113894
-0.114331
-0.116555
-0.116829
-0.118013
-0.118117
-0.118235
-0.118167
-0.117212
-0.116973
-0.114955
-0.114547
-0.111494
-0.110924
-0.106884
-0.106161
-0.101201
-0.100338
-0.0945449
-0.093556
-0.0870373
-0.0859423
-0.0788241
-0.0776449
-0.0700731
-0.0688345
-0.0609723
-0.0597018
-0.051728
-0.0504553
-0.0425617
-0.0413183
-0.0337058
-0.0325243
-0.0254
-0.0243136
-0.0178855
-0.016927
-0.011396
-0.0105961
-0.00615807
-0.00555097
-0.00245597
-0.00208927
-0.000642288
-0.000529682
-0.000611532
-0.000741293
-0.00236585
-0.00278227
-0.00621204
-0.0068926
-0.0117512
-0.0126366
-0.0186224
-0.0196713
-0.0265576
-0.0277345
-0.0353019
-0.0365713
-0.0446024
-0.0459295
-0.0542159
-0.0555679
-0.0639125
-0.0652584
-0.0734767
-0.0747878
-0.0827091
-0.083959
-0.0914276
-0.0925924
-0.0994681
-0.100526
-0.106685
-0.107618
-0.112951
-0.113742
-0.118159
-0.118795
-0.122218
-0.122689
-0.12506
-0.125356
-0.126632
-0.126749
-0.126904
-0.126837
-0.125862
-0.125613
-0.123515
-0.123086
-0.119894
-0.119291
-0.11505
-0.114283
-0.10906
-0.10814
-0.102022
-0.100965
-0.0940609
-0.0928861
-0.0853244
-0.0840547
-0.0759861
-0.0746475
-0.0662424
-0.0648639
-0.0563111
-0.0549246
-0.0464286
-0.0450684
-0.0368462
-0.0355482
-0.0278259
-0.0266274
-0.0196354
-0.0185735
-0.0125371
-0.0116476
-0.00678928
-0.00611191
-0.00271576
-0.0023056
-0.000714246
-0.000587614
-0.000617583
-0.000746871
-0.00239754
-0.00281396
-0.00629943
-0.00697998
-0.0119147
-0.0128001
-0.0188762
-0.0199251
-0.0269115
-0.0280885
-0.0357616
-0.037031
-0.0451698
-0.0464969
-0.0548901
-0.0562421
-0.06469
-0.066036
-0.0743523
-0.0756635
-0.0836762
-0.0849261
-0.0924784
-0.0936431
-0.100594
-0.101652
-0.107877
-0.10881
-0.114201
-0.114992
-0.119456
-0.120092
-0.123553
-0.124024
-0.126423
-0.12672
-0.128014
-0.12813
-0.128293
-0.128227
-0.127248
-0.126999
-0.124888
-0.124459
-0.121242
-0.120639
-0.116362
-0.115594
-0.110323
-0.109403
-0.103225
-0.102168
-0.095191
-0.0940162
-0.0863706
-0.0851009
-0.0769377
-0.0755991
-0.0670901
-0.0657115
-0.0570473
-0.0556608
-0.0470483
-0.045688
-0.0373474
-0.0360494
-0.0282107
-0.0270122
-0.01991
-0.0188482
-0.0127128
-0.0118233
-0.00688242
-0.00620505
-0.00274911
-0.00233894
-0.000719956
-0.000593809
-0.000673876
-0.000816599
-0.00260457
-0.00306215
-0.00683086
-0.00757724
-0.0129034
-0.013872
-0.0204151
-0.0215591
-0.0290632
-0.0303429
-0.0385628
-0.0399386
-0.0486342
-0.0500681
-0.0590122
-0.0604686
-0.0694491
-0.0708949
-0.0797157
-0.0811206
-0.0896024
-0.0909387
-0.0989198
-0.100163
-0.107499
-0.108627
-0.115191
-0.116185
-0.121868
-0.122711
-0.127419
-0.128097
-0.131755
-0.132258
-0.134804
-0.135124
-0.136515
-0.136645
-0.136853
-0.13679
-0.135804
-0.135548
-0.133374
-0.132928
-0.12959
-0.128959
-0.124502
-0.123693
-0.118181
-0.117208
-0.110726
-0.109604
-0.10226
-0.101009
-0.0929348
-0.0915771
-0.0829281
-0.081491
-0.0724453
-0.0709593
-0.061717
-0.0602163
-0.0509974
-0.0495191
-0.0405606
-0.0391442
-0.0306964
-0.0293834
-0.0217046
-0.0205371
-0.0138837
-0.0129023
-0.00753018
-0.00678068
-0.0030157
-0.00256092
-0.000793794
-0.000653252
-0.000679953
-0.000822201
-0.00263636
-0.00309394
-0.00691847
-0.00766486
-0.0130673
-0.0140359
-0.0206693
-0.0218134
-0.0294175
-0.0306972
-0.0390225
-0.0403983
-0.0492008
-0.0506347
-0.0596844
-0.0611407
-0.0702229
-0.0716687
-0.0805854
-0.0819902
-0.090561
-0.0918973
-0.0999594
-0.101202
-0.108611
-0.109739
-0.116367
-0.117361
-0.123099
-0.123942
-0.128696
-0.129375
-0.133069
-0.133572
-0.136147
-0.136466
-0.137876
-0.138006
-0.138224
-0.138161
-0.137175
-0.136919
-0.134735
-0.134289
-0.13093
-0.130299
-0.125809
-0.125001
-0.119444
-0.118472
-0.111933
-0.110811
-0.103399
-0.102148
-0.0939932
-0.0926355
-0.0838944
-0.0824572
-0.0733089
-0.071823
-0.0624695
-0.0609688
-0.0516327
-0.0501543
-0.0410758
-0.0396594
-0.0310926
-0.0297796
-0.021988
-0.0208204
-0.0140652
-0.0130838
-0.00762649
-0.006877
-0.00305022
-0.00259545
-0.000799725
-0.000659687
-0.000736864
-0.000892672
-0.00284527
-0.00334434
-0.00745405
-0.00826667
-0.0140626
-0.0151147
-0.0222166
-0.023456
-0.031578
-0.0329603
-0.0418303
-0.043312
-0.0526667
-0.0542063
-0.0637995
-0.0653586
-0.074963
-0.0765065
-0.0859149
-0.0874109
-0.0964361
-0.0978559
-0.106331
-0.107649
-0.115428
-0.116622
-0.123575
-0.124627
-0.130644
-0.131537
-0.136526
-0.137245
-0.14113
-0.141666
-0.144386
-0.14473
-0.146241
-0.146386
-0.146658
-0.146601
-0.145622
-0.145362
-0.143134
-0.142673
-0.139217
-0.138561
-0.133916
-0.133072
-0.1273
-0.126279
-0.119461
-0.11828
-0.110524
-0.1092
-0.100637
-0.0991941
-0.089982
-0.0884486
-0.0787728
-0.0771805
-0.0672519
-0.065637
-0.0556914
-0.0540938
-0.0443885
-0.0428516
-0.0336626
-0.0322322
-0.023848
-0.0225714
-0.0152813
-0.0142049
-0.00830065
-0.00747628
-0.00332829
-0.00282707
-0.000876974
-0.000721911
-0.000743066
-0.000898388
-0.00287755
-0.00337662
-0.00754281
-0.00835543
-0.0142283
-0.0152804
-0.0224732
-0.0237126
-0.0319348
-0.0333171
-0.0422921
-0.0437738
-0.0532345
-0.0547741
-0.0644711
-0.0660302
-0.075734
-0.0772775
-0.086779
-0.088275
-0.0973859
-0.0988057
-0.107358
-0.108677
-0.116524
-0.117719
-0.124732
-0.125784
-0.131853
-0.132746
-0.137779
-0.138498
-0.142419
-0.142955
-0.145703
-0.146046
-0.147577
-0.147722
-0.148006
-0.147949
-0.146972
-0.146713
-0.144478
-0.144018
-0.140545
-0.139889
-0.135217
-0.134373
-0.128562
-0.127542
-0.120673
-0.119491
-0.111672
-0.110348
-0.101709
-0.100266
-0.0909652
-0.0894318
-0.0796556
-0.0780634
-0.0680245
-0.0664096
-0.0563463
-0.0547487
-0.0449217
-0.0433847
-0.0340741
-0.0326437
-0.0241432
-0.0228666
-0.015471
-0.0143946
-0.00840161
-0.00757724
-0.00336462
-0.0028634
-0.000883263
-0.000728733
-0.000801341
-0.000970502
-0.0030907
-0.00363198
-0.00808773
-0.0089675
-0.0152385
-0.0163749
-0.0240397
-0.0253748
-0.0341159
-0.0356008
-0.0451185
-0.0467053
-0.0567122
-0.058356
-0.0685865
-0.0702461
-0.0804583
-0.0820966
-0.0920725
-0.093656
-0.103202
-0.104701
-0.113646
-0.115035
-0.123231
-0.124488
-0.131806
-0.132912
-0.139244
-0.140183
-0.145437
-0.146196
-0.150298
-0.150865
-0.153756
-0.154124
-0.155758
-0.15592
-0.156268
-0.156219
-0.155265
-0.155005
-0.152747
-0.152278
-0.148733
-0.148058
-0.143261
-0.142387
-0.136391
-0.135329
-0.128213
-0.126977
-0.118843
-0.117452
-0.10843
-0.106908
-0.0971572
-0.095531
-0.0852419
-0.0835454
-0.0729387
-0.0712101
-0.0605367
-0.0588189
-0.0483573
-0.0466975
-0.0367505
-0.0351996
-0.0260879
-0.0246984
-0.0167472
-0.0155716
-0.00911155
-0.00820868
-0.00365858
-0.00310842
-0.000965349
-0.00079492
-0.000807753
-0.000976412
-0.00312383
-0.00366511
-0.00817848
-0.00905825
-0.0154073
-0.0165438
-0.0243003
-0.0256355
-0.034477
-0.0359619
-0.0455841
-0.0471709
-0.0572825
-0.0589263
-0.0692584
-0.070918
-0.0812264
-0.0828646
-0.0929297
-0.0945133
-0.10414
-0.10564
-0.114657
-0.116047
-0.124306
-0.125564
-0.132937
-0.134044
-0.140424
-0.141363
-0.146658
-0.147416
-0.151552
-0.152119
-0.155038
-0.155405
-0.15706
-0.157221
-0.157582
-0.157534
-0.156585
-0.156326
-0.154066
-0.153597
-0.150041
-0.149366
-0.144547
-0.143674
-0.137646
-0.136584
-0.129424
-0.128188
-0.119998
-0.118607
-0.109514
-0.107992
-0.0981575
-0.0965313
-0.0861454
-0.0844489
-0.0737339
-0.0720053
-0.0612144
-0.0594966
-0.0489119
-0.0472522
-0.0371808
-0.0356298
-0.0263979
-0.0250085
-0.0169474
-0.0157718
-0.00921853
-0.00831566
-0.00369729
-0.00314714
-0.000972122
-0.000802268
-0.000868068
-0.00105098
-0.00334336
-0.00392793
-0.00873756
-0.00968587
-0.01644
-0.017662
-0.0258954
-0.027327
-0.036689
-0.0382763
-0.048438
-0.0501288
-0.0607781
-0.0625239
-0.0733754
-0.0751322
-0.0859296
-0.0876584
-0.0981741
-0.0998404
-0.109875
-0.111449
-0.120829
-0.122284
-0.130863
-0.132178
-0.139829
-0.140984
-0.147602
-0.148584
-0.154081
-0.154875
-0.159179
-0.159775
-0.16283
-0.16322
-0.164981
-0.165159
-0.165594
-0.165557
-0.164647
-0.164392
-0.162133
-0.16166
-0.158064
-0.157376
-0.152467
-0.151571
-0.145398
-0.144302
-0.136935
-0.135652
-0.127187
-0.125736
-0.116297
-0.1147
-0.104446
-0.102732
-0.0918561
-0.0900587
-0.0787895
-0.0769488
-0.065552
-0.0637138
-0.0524892
-0.0507047
-0.0399831
-0.0383082
-0.0284448
-0.0269381
-0.0182973
-0.0170177
-0.00997312
-0.00898733
-0.00401135
-0.00340915
-0.0010604
-0.000873537
-0.000874768
-0.00105716
-0.00337768
-0.00396226
-0.00883107
-0.00977939
-0.0166132
-0.0178352
-0.0261615
-0.0275932
-0.0370559
-0.0386433
-0.0489087
-0.0505995
-0.0613514
-0.0630972
-0.0740471
-0.075804
-0.086693
-0.0884219
-0.0990213
-0.100688
-0.110797
-0.112371
-0.121817
-0.123273
-0.131909
-0.133224
-0.140925
-0.142081
-0.148741
-0.149723
-0.155256
-0.15605
-0.160385
-0.160981
-0.164061
-0.164451
-0.166231
-0.16641
-0.16686
-0.166822
-0.165923
-0.165667
-0.163412
-0.162939
-0.159337
-0.15865
-0.153728
-0.152832
-0.146635
-0.145539
-0.138137
-0.136855
-0.128341
-0.12689
-0.117389
-0.115792
-0.105461
-0.103747
-0.0927796
-0.0909822
-0.0796082
-0.0777675
-0.0662547
-0.0644165
-0.053068
-0.0512836
-0.040435
-0.0387601
-0.0287724
-0.0272657
-0.0185099
-0.0172304
-0.0100875
-0.00910167
-0.00405301
-0.00345081
-0.00106778
-0.000881544
-0.000937768
-0.00113497
-0.00360565
-0.00423497
-0.00940885
-0.0104275
-0.0176753
-0.0189844
-0.0277938
-0.0293227
-0.0393071
-0.0409965
-0.0517961
-0.0535893
-0.0648662
-0.066711
-0.07816
-0.0800097
-0.0913608
-0.0931745
-0.104192
-0.105934
-0.116414
-0.118055
-0.127826
-0.129339
-0.138255
-0.13962
-0.14756
-0.148759
-0.155624
-0.156642
-0.162349
-0.163175
-0.167657
-0.16828
-0.171485
-0.171897
-0.173781
-0.173978
-0.174509
-0.174485
-0.173643
-0.173396
-0.17117
-0.1707
-0.167094
-0.166401
-0.161433
-0.160523
-0.154229
-0.153109
-0.14555
-0.144231
-0.135493
-0.133992
-0.124192
-0.12253
-0.111821
-0.110027
-0.0986022
-0.0967093
-0.0848042
-0.0828547
-0.0707472
-0.0687896
-0.0568005
-0.0548899
-0.0433793
-0.0415771
-0.030937
-0.0293084
-0.0199464
-0.0185575
-0.0108952
-0.00982127
-0.00439125
-0.0037333
-0.00116357
-0.000958996
-0.000944835
-0.00114148
-0.0036415
-0.00427082
-0.00950592
-0.0105246
-0.0178541
-0.0191632
-0.0280669
-0.0295958
-0.0396812
-0.0413706
-0.0522727
-0.0540659
-0.0654425
-0.0672873
-0.0788301
-0.0806798
-0.0921165
-0.0939302
-0.105024
-0.106766
-0.117313
-0.118954
-0.128782
-0.130296
-0.139261
-0.140626
-0.148607
-0.149806
-0.156706
-0.157724
-0.163461
-0.164287
-0.168795
-0.169418
-0.172645
-0.173058
-0.174961
-0.175157
-0.175705
-0.175681
-0.174852
-0.174605
-0.172388
-0.171918
-0.168315
-0.167622
-0.16265
-0.16174
-0.155434
-0.154313
-0.14673
-0.145411
-0.136636
-0.135135
-0.125283
-0.123621
-0.112845
-0.111051
-0.0995427
-0.0976498
-0.0856455
-0.0836959
-0.0714755
-0.0695178
-0.0574053
-0.0554948
-0.0438552
-0.042053
-0.0312846
-0.029656
-0.0201736
-0.0187847
-0.0110182
-0.00994427
-0.00443642
-0.00377846
-0.00117169
-0.000967798
-0.00101119
-0.00122334
-0.00388005
-0.00455592
-0.0101071
-0.0111983
-0.0189528
-0.0203508
-0.0297445
-0.0313715
-0.0419786
-0.0437694
-0.0551971
-0.0570901
-0.0689734
-0.0709126
-0.0829266
-0.0848628
-0.0967245
-0.0986154
-0.110083
-0.111892
-0.12276
-0.124458
-0.134558
-0.13612
-0.145313
-0.146718
-0.154889
-0.156122
-0.163182
-0.164228
-0.170102
-0.170952
-0.17558
-0.176225
-0.179559
-0.179992
-0.181993
-0.182207
-0.182843
-0.182835
-0.182083
-0.181849
-0.179693
-0.179232
-0.175667
-0.174979
-0.170012
-0.169099
-0.162755
-0.161622
-0.153947
-0.152603
-0.143669
-0.14213
-0.132042
-0.130326
-0.11923
-0.117365
-0.105448
-0.103467
-0.0909677
-0.0889147
-0.0761211
-0.0740466
-0.0613
-0.0592632
-0.0469536
-0.0450214
-0.0335807
-0.0318254
-0.0217086
-0.0202045
-0.0118873
-0.0107194
-0.00480292
-0.00408492
-0.00127635
-0.00105256
-0.00101871
-0.00123027
-0.00391778
-0.00459365
-0.0102085
-0.0112998
-0.0191384
-0.0205364