/*--------------------------------*- C++ -*----------------------------------*\
| =========                 |                                                 |
| \\      /  F ield         | OpenFOAM: The Open Source CFD Toolbox           |
|  \\    /   O peration     | Version:  2506                                  |
|   \\  /    A nd           | Website:  www.openfoam.com                      |
|    \\/     M anipulation  |                                                 |
\*---------------------------------------------------------------------------*/
FoamFile
{
    version     2.0;
    format      ascii;
    arch        "LSB;label=32;scalar=64";
    class       volScalarField;
    location    "2.125";
    object      Lambda2Field;
}
// * * * * * * * * * * * * * * * * * * * * * * * * * * * * * * * * * * * * * //

dimensions      [0 0 -2 0 0 0 0];

internalField   nonuniform List<scalar> 
400
(
0.039625
0.231633
0.540481
0.670327
0.700607
0.814346
1.15038
1.74577
2.69569
4.19194
6.22447
8.15585
9.31791
10.4572
12.4855
13.0551
9.41388
4.17273
0.731345
0.0797788
0.307015
0.916852
1.64117
2.02515
2.16849
2.3256
2.819
3.8741
5.47885
7.15541
8.19013
8.64782
9.8733
13.1385
18.1993
21.2476
19.5916
10.9072
1.89881
0
0.802769
1.48905
2.33024
2.87073
3.20843
3.70507
5.00459
7.1427
9.77226
11.9504
12.7294
12.3404
12.4844
14.843
20.5675
27.58
30.7041
27.2735
10.515
0.704529
1.30589
1.98866
2.59698
3.12979
3.79871
5.10068
7.45513
10.6573
13.0649
12.2951
7.87715
1.88763
-2.28937
-3.09219
0.5166
11.1867
26.4341
36.2606
28.7279
2.60147
1.7802
2.26284
2.68938
3.22687
4.25472
6.34053
9.64661
12.6571
11.8927
4.89579
-6.54812
-17.1749
-23.6444
-25.9829
-26.1033
-21.3279
-4.5675
24.8974
41.0194
21.7417
2.11898
2.24931
2.50258
3.12932
4.38544
7.10753
10.723
11.7287
5.90156
-7.12388
-21.2392
-29.0808
-30.2082
-29.3641
-30.1936
-33.8207
-33.3487
-10.1379
34.7398
63.951
2.26268
1.98584
2.13158
2.76622
4.15836
6.98755
9.99458
8.41011
-1.33693
-17.6536
-29.8036
-31.7384
-27.7452
-23.4257
-21.1914
-24.0844
-33.3268
-33.7816
8.22912
83.7849
2.22885
1.58761
1.65995
2.25378
3.60702
6.25549
8.43338
4.94967
-6.99351
-23.7939
-33.5463
-33.1957
-28.6219
-22.9786
-17.4497
-15.2922
-20.9972
-31.7264
-15.1774
78.3227
2.08302
1.18045
1.18827
1.71264
2.9267
5.2516
6.82097
3.16096
-8.64372
-25.3286
-35.1682
-36.2761
-32.863
-26.4146
-18.118
-12.7295
-13.3092
-22.5114
-20.6455
58.5197
1.89751
0.859668
0.811673
1.24725
2.28868
4.23351
5.8284
3.27559
-6.749
-22.2598
-33.4874
-37.1216
-35.1936
-27.7778
-17.6074
-10.9528
-9.69634
-15.0309
-17.3216
32.2393
1.53389
0.669725
0.575182
0.919626
1.78109
3.39662
5.17283
4.16577
-2.31342
-14.5198
-25.8283
-31.4545
-30.7028
-23.1306
-13.4791
-7.54215
-5.95835
-9.15643
-12.584
12.7748
1.18041
0.585248
0.481396
0.74637
1.43914
2.74009
4.46195
4.80642
1.6182
-5.24929
-13.8445
-18.9901
-18.8227
-13.3153
-6.49779
-2.82288
-1.7141
-3.99581
-6.31877
1.25036
0.793296
0.56897
0.50019
0.712363
1.26084
2.25797
3.6827
4.67659
3.81956
0.577227
-3.70567
-6.85037
-6.87673
-3.73549
-0.251768
1.18598
1.85042
0
0
-3.69842
0.450426
0.539878
0.588894
0.782182
1.21861
1.94168
2.96496
3.95116
4.10447
2.90096
0.856171
-0.588879
-0.564896
0.836836
2.40162
3.58755
4.27532
2.92378
0
-1.11608
0
0.42065
0.68632
0.942736
1.30379
1.8249
2.48634
3.12084
3.38718
2.92607
1.9169
0.999286
0.944531
1.77356
2.97801
4.05758
5.0703
2.16207
-4.5441
0
-0.1823
0.17238
0.846391
1.17748
1.51733
1.90761
2.30387
2.5801
2.5831
2.17085
1.39444
0.674772
0.426957
0.967888
2.01479
3.10259
4.14571
-3.7147
-15.3139
2.21075
0
-0.12343
0.055654
0.724684
1.27152
1.68452
1.96264
2.04725
1.83822
1.30161
0.507229
-0.163584
-0.622387
-0.42014
0.156806
1.29144
0
-17.7723
-7.69846
26.9881
0
0.303364
1.77728
1.86187
2.0765
2.28999
2.33111
2.07392
1.44009
0.429978
-0.328364
-1.77997
-2.89643
-3.49978
-4.46338
-5.20272
-15.8035
-41.325
0
260.21
8.61168
0
0
0.828888
0
0
0
0
0
0
-0.4611
-2.24272
-3.7201
-5.56731
-8.24126
-13.1339
-27.8266
-18.5589
-140.088
960.516
3236.63
-613.435
-683.798
-358.89
-163.413
-86.245
-56.0154
-39.7517
-29.2766
-23.092
-20.136
-18.2656
-18.4031
-15.8971
-34.5021
0
0
0
-222.909
1612.95
)
;

boundaryField
{
    movingWall
    {
        type            calculated;
        value           nonuniform List<scalar> 
20
(
1514.93
0
0
0
0
0
0
0
0
0
0
0
0
0
0
0
-123.274
0
-1333.2
2879.07
)
;
    }
    fixedWalls
    {
        type            calculated;
        value           nonuniform List<scalar> 
60
(
0
0.044534
0.478662
1.03193
1.56302
2.25763
3.00422
3.25433
2.77605
2.23297
1.44906
0.847958
0.270477
0
-0.0841031
0
-0.731251
0
26.8892
6879.23
0
0
0
0
8.82282
34.3861
53.8207
53.4712
23.924
0
0
0
0
0
0
0
63.5895
762.707
3141.06
2172.9
0
0
0
0
0
0
0.240261
1.09375
1.80352
3.61694
7.40699
12.7011
16.6914
17.7941
17.1901
13.686
6.77109
1.69343
0.498845
0.0641655
)
;
    }
    frontAndBack
    {
        type            empty;
    }
}


// ************************************************************************* //
