/*--------------------------------*- C++ -*----------------------------------*\
| =========                 |                                                 |
| \\      /  F ield         | OpenFOAM: The Open Source CFD Toolbox           |
|  \\    /   O peration     | Version:  2506                                  |
|   \\  /    A nd           | Website:  www.openfoam.com                      |
|    \\/     M anipulation  |                                                 |
\*---------------------------------------------------------------------------*/
FoamFile
{
    version     2.0;
    format      ascii;
    arch        "LSB;label=32;scalar=64";
    class       volVectorField;
    location    "6.75";
    object      diffU;
}
// * * * * * * * * * * * * * * * * * * * * * * * * * * * * * * * * * * * * * //

dimensions      [0 1 -1 0 0 0 0];

internalField   nonuniform List<vector> 
400
(
(0 0 0)
(2.33147e-14 -1.68729e-13 0)
(1.79856e-14 -1.31181e-13 0)
(1.87628e-14 -1.39783e-13 0)
(1.85407e-14 -1.37735e-13 0)
(1.84297e-14 -1.38161e-13 0)
(1.82077e-14 -1.38147e-13 0)
(1.83187e-14 -1.38186e-13 0)
(1.82077e-14 -1.38127e-13 0)
(1.82077e-14 -1.38088e-13 0)
(1.79856e-14 -1.38141e-13 0)
(1.79856e-14 -1.38177e-13 0)
(1.79856e-14 -1.38172e-13 0)
(1.80966e-14 -1.38146e-13 0)
(1.78746e-14 -1.38094e-13 0)
(1.75415e-14 -1.38166e-13 0)
(1.77636e-14 -1.38176e-13 0)
(1.75415e-14 -1.38194e-13 0)
(1.77636e-14 -1.38268e-13 0)
(1.75415e-14 -1.3823e-13 0)
(4.91829e-14 -1.28747e-13 0)
(9.10383e-15 -1.40363e-13 0)
(1.79856e-14 -1.37621e-13 0)
(1.66533e-14 -1.38159e-13 0)
(1.68754e-14 -1.37937e-13 0)
(1.70974e-14 -1.38055e-13 0)
(1.70974e-14 -1.38194e-13 0)
(1.68754e-14 -1.38222e-13 0)
(1.70974e-14 -1.38221e-13 0)
(1.68754e-14 -1.38196e-13 0)
(1.70974e-14 -1.38269e-13 0)
(1.73195e-14 -1.38249e-13 0)
(1.73195e-14 -1.38179e-13 0)
(1.73195e-14 -1.38142e-13 0)
(1.70974e-14 -1.38093e-13 0)
(1.73195e-14 -1.38178e-13 0)
(1.73195e-14 -1.38251e-13 0)
(1.75415e-14 -1.38297e-13 0)
(1.77636e-14 -1.38398e-13 0)
(1.75415e-14 -1.38309e-13 0)
(9.76996e-15 -2.65771e-13 0)
(1.95399e-14 -1.1003e-13 0)
(1.75415e-14 -1.44678e-13 0)
(1.75415e-14 -1.36823e-13 0)
(1.78746e-14 -1.38677e-13 0)
(1.80966e-14 -1.38304e-13 0)
(1.83187e-14 -1.38325e-13 0)
(1.85407e-14 -1.38107e-13 0)
(1.84297e-14 -1.38036e-13 0)
(1.82077e-14 -1.38183e-13 0)
(1.82077e-14 -1.38315e-13 0)
(1.82077e-14 -1.38194e-13 0)
(1.79856e-14 -1.38075e-13 0)
(1.78746e-14 -1.38079e-13 0)
(1.80966e-14 -1.38177e-13 0)
(1.79856e-14 -1.38217e-13 0)
(1.79856e-14 -1.38268e-13 0)
(1.79856e-14 -1.38294e-13 0)
(1.78746e-14 -1.38362e-13 0)
(1.75415e-14 -1.38352e-13 0)
(1.77636e-15 -3.75799e-14 0)
(2.18714e-14 -1.59683e-13 0)
(1.70974e-14 -1.33145e-13 0)
(1.78746e-14 -1.39449e-13 0)
(1.75415e-14 -1.38194e-13 0)
(1.73195e-14 -1.38431e-13 0)
(1.68754e-14 -1.38227e-13 0)
(1.66533e-14 -1.38121e-13 0)
(1.68754e-14 -1.38092e-13 0)
(1.73195e-14 -1.38262e-13 0)
(1.73195e-14 -1.38314e-13 0)
(1.73195e-14 -1.38241e-13 0)
(1.77636e-14 -1.38169e-13 0)
(1.77636e-14 -1.38122e-13 0)
(1.79856e-14 -1.38187e-13 0)
(1.77636e-14 -1.38193e-13 0)
(1.79856e-14 -1.38157e-13 0)
(1.75415e-14 -1.38227e-13 0)
(1.78746e-14 -1.3827e-13 0)
(1.78746e-14 -1.38284e-13 0)
(3.88578e-14 -1.46084e-13 0)
(1.24345e-14 -1.36546e-13 0)
(1.87628e-14 -1.38503e-13 0)
(1.82077e-14 -1.37998e-13 0)
(1.85407e-14 -1.38034e-13 0)
(1.80966e-14 -1.37966e-13 0)
(1.82077e-14 -1.38038e-13 0)
(1.79856e-14 -1.38258e-13 0)
(1.78746e-14 -1.38459e-13 0)
(1.80966e-14 -1.38437e-13 0)
(1.77636e-14 -1.38313e-13 0)
(1.75415e-14 -1.38353e-13 0)
(1.77636e-14 -1.38341e-13 0)
(1.77636e-14 -1.38267e-13 0)
(1.78746e-14 -1.38257e-13 0)
(1.78746e-14 -1.38221e-13 0)
(1.77636e-14 -1.38199e-13 0)
(1.78746e-14 -1.38235e-13 0)
(1.77636e-14 -1.38269e-13 0)
(1.78746e-14 -1.38269e-13 0)
(1.77636e-15 -2.37916e-13 0)
(2.22045e-14 -1.16832e-13 0)
(1.79856e-14 -1.43204e-13 0)
(1.82077e-14 -1.37118e-13 0)
(1.82077e-14 -1.38403e-13 0)
(1.83187e-14 -1.38085e-13 0)
(1.85407e-14 -1.38123e-13 0)
(1.89848e-14 -1.38134e-13 0)
(1.84297e-14 -1.38217e-13 0)
(1.82077e-14 -1.38211e-13 0)
(1.80966e-14 -1.38141e-13 0)
(1.82077e-14 -1.38201e-13 0)
(1.77636e-14 -1.38235e-13 0)
(1.79856e-14 -1.38266e-13 0)
(1.77636e-14 -1.38248e-13 0)
(1.77636e-14 -1.38243e-13 0)
(1.79856e-14 -1.38193e-13 0)
(1.77636e-14 -1.38119e-13 0)
(1.77636e-14 -1.38233e-13 0)
(1.79856e-14 -1.38286e-13 0)
(2.23155e-14 3.33998e-15 0)
(1.73195e-14 -1.68658e-13 0)
(1.83187e-14 -1.31109e-13 0)
(1.78746e-14 -1.39843e-13 0)
(1.82077e-14 -1.37904e-13 0)
(1.80966e-14 -1.38376e-13 0)
(1.78746e-14 -1.38209e-13 0)
(1.79856e-14 -1.38109e-13 0)
(1.80966e-14 -1.38022e-13 0)
(1.78746e-14 -1.38055e-13 0)
(1.78746e-14 -1.38094e-13 0)
(1.78746e-14 -1.38161e-13 0)
(1.78746e-14 -1.38132e-13 0)
(1.78746e-14 -1.38083e-13 0)
(1.77636e-14 -1.381e-13 0)
(1.78746e-14 -1.38171e-13 0)
(1.70974e-14 -1.38259e-13 0)
(1.77636e-14 -1.38172e-13 0)
(1.77636e-14 -1.38262e-13 0)
(1.77636e-14 -1.38312e-13 0)
(2.57572e-14 -1.93567e-13 0)
(1.44329e-14 -1.26255e-13 0)
(1.64313e-14 -1.41139e-13 0)
(1.70974e-14 -1.37628e-13 0)
(1.66533e-14 -1.3829e-13 0)
(1.68754e-14 -1.38178e-13 0)
(1.66533e-14 -1.38225e-13 0)
(1.68754e-14 -1.38153e-13 0)
(1.70974e-14 -1.38116e-13 0)
(1.70974e-14 -1.38117e-13 0)
(1.73195e-14 -1.38115e-13 0)
(1.73195e-14 -1.38119e-13 0)
(1.73195e-14 -1.38208e-13 0)
(1.75415e-14 -1.38251e-13 0)
(1.77636e-14 -1.38257e-13 0)
(1.79856e-14 -1.38188e-13 0)
(1.78746e-14 -1.38241e-13 0)
(1.78746e-14 -1.38182e-13 0)
(1.78746e-14 -1.38236e-13 0)
(1.79856e-14 -1.38297e-13 0)
(1.22125e-14 -2.01292e-13 0)
(2.05391e-14 -1.24284e-13 0)
(1.83187e-14 -1.41166e-13 0)
(1.70974e-14 -1.37136e-13 0)
(1.75415e-14 -1.38214e-13 0)
(1.73195e-14 -1.38154e-13 0)
(1.73195e-14 -1.38267e-13 0)
(1.73195e-14 -1.38273e-13 0)
(1.75415e-14 -1.38339e-13 0)
(1.75415e-14 -1.38337e-13 0)
(1.75415e-14 -1.38301e-13 0)
(1.75415e-14 -1.38293e-13 0)
(1.77636e-14 -1.38397e-13 0)
(1.78746e-14 -1.38436e-13 0)
(1.77636e-14 -1.38312e-13 0)
(1.78746e-14 -1.38195e-13 0)
(1.75415e-14 -1.38129e-13 0)
(1.75415e-14 -1.3822e-13 0)
(1.77636e-14 -1.38255e-13 0)
(1.78746e-14 -1.3826e-13 0)
(1.22125e-14 -1.77985e-14 0)
(1.78746e-14 -1.64258e-13 0)
(1.66533e-14 -1.31915e-13 0)
(1.80966e-14 -1.39431e-13 0)
(1.78746e-14 -1.37932e-13 0)
(1.80966e-14 -1.38359e-13 0)
(1.83187e-14 -1.38261e-13 0)
(1.79856e-14 -1.38252e-13 0)
(1.79856e-14 -1.38328e-13 0)
(1.78746e-14 -1.3837e-13 0)
(1.78746e-14 -1.38396e-13 0)
(1.78746e-14 -1.3835e-13 0)
(1.77636e-14 -1.38201e-13 0)
(1.75415e-14 -1.38215e-13 0)
(1.73195e-14 -1.3823e-13 0)
(1.75415e-14 -1.38284e-13 0)
(1.75415e-14 -1.38278e-13 0)
(1.78746e-14 -1.38321e-13 0)
(1.77636e-14 -1.38245e-13 0)
(1.78746e-14 -1.38217e-13 0)
(1.70974e-14 -2.56507e-13 0)
(1.84297e-14 -1.12678e-13 0)
(1.82077e-14 -1.44244e-13 0)
(1.86517e-14 -1.36975e-13 0)
(1.86517e-14 -1.38484e-13 0)
(1.85407e-14 -1.38139e-13 0)
(1.84297e-14 -1.38162e-13 0)
(1.84297e-14 -1.38116e-13 0)
(1.84297e-14 -1.38125e-13 0)
(1.82077e-14 -1.38151e-13 0)
(1.79856e-14 -1.38166e-13 0)
(1.78746e-14 -1.38102e-13 0)
(1.75415e-14 -1.38148e-13 0)
(1.77636e-14 -1.38277e-13 0)
(1.77636e-14 -1.38358e-13 0)
(1.75415e-14 -1.38374e-13 0)
(1.73195e-14 -1.38368e-13 0)
(1.73195e-14 -1.38398e-13 0)
(1.77636e-14 -1.38299e-13 0)
(1.78746e-14 -1.3822e-13 0)
(1.82077e-14 -5.86366e-14 0)
(1.77636e-14 -1.56017e-13 0)
(1.79856e-14 -1.34157e-13 0)
(1.68754e-14 -1.39271e-13 0)
(1.75415e-14 -1.38099e-13 0)
(1.77636e-14 -1.38267e-13 0)
(1.79856e-14 -1.38197e-13 0)
(1.78746e-14 -1.38173e-13 0)
(1.80966e-14 -1.38099e-13 0)
(1.82077e-14 -1.38012e-13 0)
(1.80966e-14 -1.3795e-13 0)
(1.82077e-14 -1.37964e-13 0)
(1.82077e-14 -1.38156e-13 0)
(1.82077e-14 -1.38239e-13 0)
(1.79856e-14 -1.38229e-13 0)
(1.80966e-14 -1.38167e-13 0)
(1.79856e-14 -1.38246e-13 0)
(1.78746e-14 -1.38373e-13 0)
(1.77636e-14 -1.3839e-13 0)
(1.77636e-14 -1.3827e-13 0)
(2.08722e-14 -1.4169e-13 0)
(1.5099e-14 -1.37739e-13 0)
(1.62093e-14 -1.38646e-13 0)
(1.75415e-14 -1.38478e-13 0)
(1.73195e-14 -1.3859e-13 0)
(1.73195e-14 -1.38504e-13 0)
(1.70974e-14 -1.38459e-13 0)
(1.73195e-14 -1.38371e-13 0)
(1.73195e-14 -1.38197e-13 0)
(1.73195e-14 -1.38133e-13 0)
(1.73195e-14 -1.38088e-13 0)
(1.75415e-14 -1.38083e-13 0)
(1.78746e-14 -1.38047e-13 0)
(1.78746e-14 -1.38113e-13 0)
(1.78746e-14 -1.38107e-13 0)
(1.77636e-14 -1.38116e-13 0)
(1.77636e-14 -1.38209e-13 0)
(1.77636e-14 -1.38287e-13 0)
(1.78746e-14 -1.38344e-13 0)
(1.77636e-14 -1.38286e-13 0)
(1.70974e-14 -2.23179e-13 0)
(1.9873e-14 -1.19315e-13 0)
(1.88738e-14 -1.42693e-13 0)
(1.77636e-14 -1.3725e-13 0)
(1.82077e-14 -1.38535e-13 0)
(1.79856e-14 -1.38246e-13 0)
(1.79856e-14 -1.38295e-13 0)
(1.78746e-14 -1.38294e-13 0)
(1.75415e-14 -1.38236e-13 0)
(1.77636e-14 -1.38273e-13 0)
(1.78746e-14 -1.38299e-13 0)
(1.77636e-14 -1.38291e-13 0)
(1.77636e-14 -1.38111e-13 0)
(1.77636e-14 -1.38116e-13 0)
(1.77636e-14 -1.38104e-13 0)
(1.79856e-14 -1.3812e-13 0)
(1.77636e-14 -1.38183e-13 0)
(1.79856e-14 -1.38285e-13 0)
(1.78746e-14 -1.38274e-13 0)
(1.78746e-14 -1.38273e-13 0)
(4.88498e-15 -3.85673e-15 0)
(1.9873e-14 -1.67829e-13 0)
(1.64313e-14 -1.31357e-13 0)
(1.77636e-14 -1.39956e-13 0)
(1.75415e-14 -1.38082e-13 0)
(1.75415e-14 -1.38474e-13 0)
(1.73195e-14 -1.38313e-13 0)
(1.75415e-14 -1.3818e-13 0)
(1.77636e-14 -1.38171e-13 0)
(1.77636e-14 -1.38168e-13 0)
(1.78746e-14 -1.38133e-13 0)
(1.75415e-14 -1.38209e-13 0)
(1.73195e-14 -1.38219e-13 0)
(1.78746e-14 -1.3813e-13 0)
(1.77636e-14 -1.38034e-13 0)
(1.75415e-14 -1.38101e-13 0)
(1.79856e-14 -1.38228e-13 0)
(1.77636e-14 -1.38254e-13 0)
(1.77636e-14 -1.38192e-13 0)
(1.77636e-14 -1.38222e-13 0)
(4.45199e-14 -2.20006e-13 0)
(1.13243e-14 -1.20729e-13 0)
(1.89848e-14 -1.42421e-13 0)
(1.77636e-14 -1.37416e-13 0)
(1.77636e-14 -1.38445e-13 0)
(1.75415e-14 -1.38128e-13 0)
(1.70974e-14 -1.38177e-13 0)
(1.66533e-14 -1.3827e-13 0)
(1.68754e-14 -1.38356e-13 0)
(1.70974e-14 -1.38316e-13 0)
(1.73195e-14 -1.3824e-13 0)
(1.73195e-14 -1.38185e-13 0)
(1.75415e-14 -1.38239e-13 0)
(1.73195e-14 -1.38174e-13 0)
(1.75415e-14 -1.382e-13 0)
(1.75415e-14 -1.38306e-13 0)
(1.77636e-14 -1.38264e-13 0)
(1.77636e-14 -1.38205e-13 0)
(1.77636e-14 -1.38215e-13 0)
(1.77636e-14 -1.38245e-13 0)
(-6.43929e-15 -1.7396e-13 0)
(2.43139e-14 -1.30105e-13 0)
(1.73195e-14 -1.40082e-13 0)
(1.82077e-14 -1.37594e-13 0)
(1.77636e-14 -1.38068e-13 0)
(1.77636e-14 -1.37868e-13 0)
(1.78746e-14 -1.38047e-13 0)
(1.79856e-14 -1.3834e-13 0)
(1.79856e-14 -1.38494e-13 0)
(1.77636e-14 -1.3847e-13 0)
(1.79856e-14 -1.38402e-13 0)
(1.78746e-14 -1.38243e-13 0)
(1.78746e-14 -1.38181e-13 0)
(1.79856e-14 -1.38219e-13 0)
(1.80966e-14 -1.3831e-13 0)
(1.79856e-14 -1.38267e-13 0)
(1.75415e-14 -1.38131e-13 0)
(1.77636e-14 -1.38181e-13 0)
(1.77636e-14 -1.38311e-13 0)
(1.78746e-14 -1.38285e-13 0)
(8.88178e-15 -2.33789e-14 0)
(1.92069e-14 -1.6353e-13 0)
(1.64313e-14 -1.32325e-13 0)
(1.77636e-14 -1.39552e-13 0)
(1.75415e-14 -1.37814e-13 0)
(1.77636e-14 -1.38167e-13 0)
(1.82077e-14 -1.38139e-13 0)
(1.79856e-14 -1.38176e-13 0)
(1.78746e-14 -1.38175e-13 0)
(1.75415e-14 -1.38252e-13 0)
(1.75415e-14 -1.38328e-13 0)
(1.78746e-14 -1.38325e-13 0)
(1.75415e-14 -1.3829e-13 0)
(1.77636e-14 -1.3817e-13 0)
(1.78746e-14 -1.38165e-13 0)
(1.77636e-14 -1.38148e-13 0)
(1.77636e-14 -1.38127e-13 0)
(1.78746e-14 -1.38223e-13 0)
(1.77636e-14 -1.38289e-13 0)
(1.79856e-14 -1.38227e-13 0)
(4.94049e-14 -1.78317e-13 0)
(9.54792e-15 -1.29912e-13 0)
(1.87628e-14 -1.4032e-13 0)
(1.68754e-14 -1.37977e-13 0)
(1.73195e-14 -1.38318e-13 0)
(1.73195e-14 -1.38209e-13 0)
(1.73195e-14 -1.38231e-13 0)
(1.73195e-14 -1.38251e-13 0)
(1.75415e-14 -1.38192e-13 0)
(1.78746e-14 -1.38267e-13 0)
(1.77636e-14 -1.38352e-13 0)
(1.77636e-14 -1.38345e-13 0)
(1.75415e-14 -1.38282e-13 0)
(1.75415e-14 -1.38193e-13 0)
(1.75415e-14 -1.38263e-13 0)
(1.73195e-14 -1.38329e-13 0)
(1.75415e-14 -1.38262e-13 0)
(1.75415e-14 -1.38206e-13 0)
(1.77636e-14 -1.38237e-13 0)
(1.77636e-14 -1.38215e-13 0)
(3.33067e-15 -2.24955e-13 0)
(2.20934e-14 -1.19181e-13 0)
(1.84297e-14 -1.42737e-13 0)
(1.84297e-14 -1.37272e-13 0)
(1.85407e-14 -1.38457e-13 0)
(1.84297e-14 -1.38235e-13 0)
(1.84297e-14 -1.38359e-13 0)
(1.83187e-14 -1.38394e-13 0)
(1.82077e-14 -1.38318e-13 0)
(1.79856e-14 -1.38279e-13 0)
(1.79856e-14 -1.38251e-13 0)
(1.77636e-14 -1.38235e-13 0)
(1.79856e-14 -1.3821e-13 0)
(1.78746e-14 -1.3825e-13 0)
(1.78746e-14 -1.38296e-13 0)
(1.78746e-14 -1.38327e-13 0)
(1.77636e-14 -1.38287e-13 0)
(1.77636e-14 -1.38209e-13 0)
(1.77636e-14 -1.38249e-13 0)
(1.77636e-14 -1.38243e-13 0)
)
;

boundaryField
{
    movingWall
    {
        type            calculated;
        value           uniform (1.77636e-14 -1.38224e-13 0);
    }
    fixedWalls
    {
        type            calculated;
        value           uniform (1.77636e-14 -1.38224e-13 0);
    }
    frontAndBack
    {
        type            empty;
    }
}


// ************************************************************************* //
