/*--------------------------------*- C++ -*----------------------------------*\
| =========                 |                                                 |
| \\      /  F ield         | OpenFOAM: The Open Source CFD Toolbox           |
|  \\    /   O peration     | Version:  2506                                  |
|   \\  /    A nd           | Website:  www.openfoam.com                      |
|    \\/     M anipulation  |                                                 |
\*---------------------------------------------------------------------------*/
FoamFile
{
    version     2.0;
    format      ascii;
    arch        "LSB;label=32;scalar=64";
    class       volScalarField;
    location    "6.75";
    object      divPhi;
}
// * * * * * * * * * * * * * * * * * * * * * * * * * * * * * * * * * * * * * //

dimensions      [0 0 -1 0 0 0 0];

internalField   nonuniform List<scalar> 
400
(
0
-1.63116e-15
1.28869e-14
-9.06734e-15
1.52558e-14
-8.42692e-15
5.0619e-15
-1.81726e-15
-1.69567e-14
-3.76735e-15
1.368e-14
3.49005e-15
4.16419e-15
-2.09341e-14
9.317e-15
-7.18893e-15
8.31302e-16
4.5275e-15
5.21587e-15
0
2.71051e-14
2.27237e-15
1.07426e-15
1.07933e-14
-2.74317e-14
-6.31513e-15
6.30592e-15
-2.00441e-15
1.41203e-14
-4.81876e-15
-1.3174e-15
-9.54799e-15
1.65686e-14
-1.36181e-15
1.6927e-14
1.84402e-15
-7.44264e-15
9.74558e-15
-9.82173e-15
0
0
-8.2087e-15
-4.11383e-15
8.64049e-15
2.31678e-14
-9.6883e-15
7.55541e-16
-1.64178e-14
-8.67699e-15
-1.24173e-14
1.85923e-14
-1.57192e-14
4.93274e-15
5.14001e-15
-2.17633e-14
3.10918e-15
2.1686e-15
-3.60268e-15
-6.87281e-15
0
0
-1.66229e-14
-9.65693e-15
1.82327e-14
-3.44772e-15
1.02654e-15
-1.84342e-15
9.45254e-15
-1.64079e-14
-3.70595e-15
-2.58965e-14
9.01193e-15
1.47386e-14
4.04575e-16
-3.84023e-15
3.01231e-15
1.56663e-14
-3.34197e-14
-1.97915e-14
2.71051e-14
0
-3.48111e-15
-1.55003e-14
-9.32711e-15
8.87628e-15
2.46567e-14
-1.46599e-14
1.3465e-14
-1.35553e-15
3.64286e-15
-1.82775e-14
1.75469e-14
-2.0791e-14
1.93878e-14
-2.45543e-14
5.54835e-15
-2.21136e-17
-1.99887e-14
2.60626e-14
-2.71051e-14
2.71051e-14
-1.6861e-14
1.2618e-14
-1.38403e-14
1.24761e-14
-1.35358e-14
2.55474e-14
1.24984e-14
-3.30786e-14
1.652e-14
-6.26752e-15
1.03862e-14
1.6571e-14
-2.40265e-14
4.00106e-15
1.46294e-14
3.11824e-16
-9.65734e-16
-2.28267e-15
2.71051e-14
0
2.93162e-14
2.29965e-14
-9.18735e-16
1.28411e-14
-3.1727e-14
2.69967e-15
1.95135e-14
-1.49059e-14
8.43949e-15
-1.11989e-14
5.24865e-15
-1.29632e-14
-5.31539e-17
-1.33408e-14
2.44384e-14
-3.25795e-14
2.92768e-14
-3.70069e-14
0
-2.71051e-14
1.17212e-14
-6.52961e-15
1.28097e-14
1.4136e-14
-1.68212e-14
-2.19634e-15
4.44937e-15
-4.00823e-15
1.70218e-14
-2.41651e-14
-9.12007e-15
-2.12415e-14
-8.82817e-15
1.30019e-14
-2.11323e-15
1.48759e-15
-2.15606e-14
-8.38617e-16
0
-2.71051e-14
1.42618e-14
-4.27398e-15
7.77896e-15
-5.46985e-15
-6.90309e-17
-7.18859e-15
-1.6583e-14
-3.47674e-16
-1.49214e-14
1.5511e-14
-2.22526e-14
7.80646e-15
6.31901e-15
1.31661e-14
6.11583e-16
-8.14203e-15
1.84081e-14
-8.7718e-15
0
2.71051e-14
-2.41105e-14
1.40556e-14
-7.56459e-15
-5.20165e-15
8.4789e-15
-4.39415e-16
-5.25928e-15
3.12969e-14
-1.71617e-14
4.00373e-15
-1.01186e-14
-7.53294e-15
1.26237e-15
1.56578e-14
2.6549e-14
-3.50802e-14
1.30992e-15
-1.20473e-15
0
0
-7.38348e-15
-2.02343e-14
-6.80438e-15
5.39179e-15
-1.23805e-14
1.0564e-14
-2.31473e-14
-5.30973e-15
3.1287e-14
3.82343e-15
-6.03485e-15
-2.26761e-14
-1.05779e-14
1.96368e-14
-2.85475e-14
-1.18673e-14
8.68577e-15
-7.57767e-15
0
2.71051e-14
-1.92312e-14
2.02701e-14
-6.82241e-15
7.50492e-15
-8.88569e-15
1.42616e-15
2.85548e-14
-1.84128e-14
5.77621e-16
1.84687e-14
-1.18264e-14
3.78729e-14
-1.59065e-14
-1.69737e-15
9.4567e-15
5.53051e-16
-6.48838e-15
-2.46166e-16
0
-2.71051e-14
3.47073e-14
-1.93343e-14
-1.81537e-14
3.6297e-14
-3.48678e-14
8.34455e-16
-8.74205e-15
1.18333e-14
-1.64171e-14
6.08128e-15
2.59382e-16
-1.20499e-14
1.83133e-14
7.19044e-15
2.4277e-14
3.09646e-15
1.39511e-14
-1.3671e-14
-2.71051e-14
0
1.13196e-14
-1.26005e-14
3.48644e-15
1.93085e-14
7.87003e-15
-1.17445e-14
1.04759e-14
-2.42738e-14
2.72257e-14
2.78103e-15
1.49134e-14
-7.53754e-15
2.19533e-15
-1.76372e-15
-5.3978e-15
9.36415e-15
-1.51323e-14
2.57439e-14
0
0
1.11564e-14
-2.14832e-14
1.00955e-14
-3.61282e-15
2.45687e-15
-2.61986e-14
1.45093e-14
1.60925e-14
-8.29681e-15
1.27083e-14
-6.75221e-15
-2.98604e-14
1.26767e-15
-3.2983e-15
-9.96148e-15
2.36023e-14
-2.69506e-15
-1.41739e-15
0
0
3.39956e-14
-1.24797e-14
4.32792e-14
-2.77196e-15
-2.6899e-14
2.83501e-14
-3.20989e-14
9.65892e-15
-3.01652e-14
2.69723e-14
-9.49363e-15
-2.70779e-14
1.02693e-14
-7.48214e-15
-1.84252e-15
-3.52072e-15
6.64607e-15
-1.48536e-15
0
0
2.06574e-14
-8.32645e-15
-1.52087e-14
5.01927e-16
-1.54749e-14
7.8924e-15
-1.20558e-14
4.03381e-15
-8.61866e-15
2.18467e-14
-4.50158e-15
8.03691e-15
1.49717e-14
1.44107e-15
-2.21202e-14
-6.90295e-15
1.33958e-14
1.04828e-14
-2.71051e-14
-2.71051e-14
6.03901e-15
4.06514e-15
1.97901e-14
-2.22439e-14
3.15644e-14
6.3069e-15
7.18541e-15
-4.84472e-15
-2.06011e-14
-1.56613e-14
2.98144e-14
-2.62679e-15
-3.10942e-14
2.30216e-14
-2.31299e-14
1.87146e-14
-6.43916e-15
1.79511e-14
0
0
-2.0869e-14
2.03282e-14
-4.29648e-15
-6.36582e-15
3.64367e-15
-5.24874e-15
1.26771e-15
8.55525e-15
7.33309e-15
-1.72532e-14
1.23265e-14
-2.12576e-14
7.88581e-15
-3.39614e-14
2.60852e-14
-2.48982e-14
-1.85283e-14
-3.05252e-15
2.71051e-14
0
2.71051e-14
0
0
0
0
0
-2.71051e-14
0
2.71051e-14
2.71051e-14
0
0
2.71051e-14
-2.71051e-14
2.71051e-14
0
0
0
0
)
;

boundaryField
{
    movingWall
    {
        type            extrapolatedCalculated;
        value           nonuniform List<scalar> 
20
(
0
2.71051e-14
0
0
0
0
0
-2.71051e-14
0
2.71051e-14
2.71051e-14
0
0
2.71051e-14
-2.71051e-14
2.71051e-14
0
0
0
0
)
;
    }
    fixedWalls
    {
        type            extrapolatedCalculated;
        value           nonuniform List<scalar> 
60
(
0
2.71051e-14
0
0
0
2.71051e-14
0
-2.71051e-14
-2.71051e-14
2.71051e-14
0
2.71051e-14
-2.71051e-14
0
0
0
0
-2.71051e-14
0
0
0
0
0
2.71051e-14
-2.71051e-14
2.71051e-14
0
0
0
0
0
0
-2.71051e-14
0
0
0
-2.71051e-14
0
2.71051e-14
0
0
-1.63116e-15
1.28869e-14
-9.06734e-15
1.52558e-14
-8.42692e-15
5.0619e-15
-1.81726e-15
-1.69567e-14
-3.76735e-15
1.368e-14
3.49005e-15
4.16419e-15
-2.09341e-14
9.317e-15
-7.18893e-15
8.31302e-16
4.5275e-15
5.21587e-15
0
)
;
    }
    frontAndBack
    {
        type            empty;
    }
}


// ************************************************************************* //
