/*--------------------------------*- C++ -*----------------------------------*\
| =========                 |                                                 |
| \\      /  F ield         | OpenFOAM: The Open Source CFD Toolbox           |
|  \\    /   O peration     | Version:  2506                                  |
|   \\  /    A nd           | Website:  www.openfoam.com                      |
|    \\/     M anipulation  |                                                 |
\*---------------------------------------------------------------------------*/
FoamFile
{
    version     2.0;
    format      ascii;
    arch        "LSB;label=32;scalar=64";
    class       volScalarField;
    location    "6.75";
    object      divU;
}
// * * * * * * * * * * * * * * * * * * * * * * * * * * * * * * * * * * * * * //

dimensions      [0 0 -1 0 0 0 0];

internalField   nonuniform List<scalar> 
400
(
1.35254e-11
-1.44836e-12
3.30854e-13
-9.52249e-14
2.33452e-14
-4.01367e-15
1.06391e-14
3.97584e-15
-1.7102e-14
-1.07711e-14
3.80381e-15
2.19023e-15
9.68331e-15
1.59617e-14
-2.80868e-14
-4.38242e-14
5.62578e-14
-5.85266e-14
-2.18689e-14
5.42101e-14
-2.42861e-11
2.74095e-12
-5.85236e-13
2.00775e-13
-4.37192e-14
-1.83047e-14
-7.12725e-15
-4.23833e-14
1.90759e-14
3.39917e-14
4.0609e-14
4.73116e-16
1.93235e-14
-5.87007e-14
4.4932e-14
5.22622e-15
1.99891e-14
3.98682e-14
-5.83779e-14
2.71051e-14
8.51099e-12
-1.14266e-12
2.41909e-13
-6.37843e-14
3.89366e-14
-1.72048e-15
4.38331e-14
4.90005e-14
-4.93576e-14
-2.6765e-14
9.00626e-15
-2.59088e-14
-6.78587e-15
-2.52293e-15
-1.86873e-14
3.68742e-15
2.27857e-15
-7.37525e-15
-1.8528e-14
0
1.07336e-11
-1.11086e-12
2.0891e-13
-7.28562e-14
-5.16868e-15
-2.21426e-14
-3.59262e-14
-4.73967e-14
4.38663e-14
2.9071e-14
9.11764e-15
1.23935e-14
2.08148e-14
5.80596e-15
4.05164e-16
3.2676e-15
-1.80196e-14
-1.40457e-15
4.50566e-14
0
-1.84856e-11
2.27978e-12
-4.17567e-13
1.87403e-13
-2.60725e-14
-1.45884e-14
1.5129e-15
5.52035e-15
-2.28918e-14
7.01919e-15
-2.77663e-14
1.64303e-14
-1.28478e-14
1.85197e-14
-5.70433e-15
-1.68675e-15
5.53562e-15
-1.76983e-14
-5.46855e-15
0
1.37694e-11
-1.58195e-12
3.21835e-13
-1.59773e-13
4.11093e-14
-1.36065e-15
3.85919e-14
2.04657e-14
-3.33952e-14
1.81626e-14
-5.79302e-15
8.59008e-15
-1.90087e-14
9.80708e-15
-1.71201e-14
3.04849e-14
-4.56827e-16
-1.14495e-14
2.23006e-14
-5.42101e-14
4.87891e-12
-1.38584e-12
2.5726e-13
-4.8199e-14
2.53814e-14
-3.78141e-14
1.30947e-15
-8.49687e-15
3.83493e-15
-2.66451e-14
-3.23917e-15
1.68258e-14
1.07939e-14
-1.57632e-14
9.03396e-15
-4.53194e-14
-5.32747e-15
3.64392e-14
-5.01988e-15
0
-2.00035e-11
3.48529e-12
-7.21285e-13
3.03826e-13
-3.27042e-14
1.15454e-14
-4.43374e-15
-2.49286e-14
2.63667e-14
2.64221e-14
-2.39766e-14
-2.35363e-14
1.13542e-14
3.02372e-14
1.49129e-14
3.35808e-14
-1.94414e-14
4.51166e-15
2.27605e-14
-2.71051e-14
1.73201e-11
-3.21521e-12
6.07744e-13
-2.55949e-13
3.01471e-14
-6.52431e-15
-8.06555e-15
-7.75403e-15
5.16279e-15
-2.59665e-14
-2.499e-14
3.46473e-14
1.19904e-14
6.71012e-15
-9.48705e-15
-3.16967e-15
-5.0242e-14
4.48296e-14
-5.23853e-15
0
-6.07153e-12
1.6317e-12
-2.96361e-13
1.39669e-13
-2.39571e-14
2.20658e-14
2.39384e-15
-1.92129e-14
2.65656e-14
-7.31532e-15
1.56415e-14
-4.5914e-16
-1.73113e-14
2.26119e-14
-4.11998e-14
6.04418e-15
3.43408e-14
-2.71266e-14
1.74491e-14
-2.71051e-14
-4.09286e-12
9.37958e-13
-1.95269e-13
7.43792e-14
-1.34959e-14
-2.29749e-14
-1.83035e-14
1.58393e-14
-4.72024e-15
-2.57368e-14
3.32048e-14
-1.60807e-14
-3.99035e-14
4.73429e-14
1.31479e-14
-3.64892e-14
-1.66636e-14
2.19305e-14
3.00328e-14
0
1.15468e-11
-2.54392e-12
4.72873e-13
-2.38542e-13
1.11464e-13
-5.31683e-15
6.20925e-15
-3.66993e-14
1.51314e-14
3.10951e-15
-1.32542e-14
4.00257e-14
-2.66758e-15
-1.75307e-14
3.82593e-14
1.63653e-14
2.63664e-14
-4.82797e-14
-1.51273e-15
0
-1.63986e-11
3.21332e-12
-6.24729e-13
3.15965e-13
-4.05905e-14
-3.2209e-15
-5.77773e-14
3.24645e-14
-2.57263e-14
-2.30474e-14
-2.10786e-14
3.44176e-14
2.89047e-14
2.18756e-14
-3.47998e-15
-5.97492e-15
5.6412e-15
4.18069e-14
-1.70388e-14
0
1.39049e-11
-2.85862e-12
5.37864e-13
-2.11367e-13
3.73067e-14
-1.92284e-16
-1.60229e-14
-2.65923e-15
4.01007e-15
5.979e-16
1.61023e-15
-5.3089e-15
-1.54412e-14
-6.98797e-15
3.0911e-14
-4.4791e-15
3.66499e-15
-9.17454e-15
2.52703e-14
-2.71051e-14
-7.31836e-13
9.84459e-13
-1.93823e-13
1.24369e-13
-3.50352e-14
1.16097e-14
2.28819e-14
-1.93391e-16
4.62717e-14
-3.7011e-15
7.5173e-15
-7.6004e-14
2.6019e-14
4.14425e-14
-5.80193e-15
-2.31399e-14
2.2641e-14
-2.83065e-14
4.07738e-15
0
-1.49891e-11
1.20608e-12
-1.98923e-13
8.95288e-14
-6.5659e-15
-9.08434e-15
-8.60537e-14
-1.62415e-14
1.39395e-14
-3.38494e-14
3.47884e-14
1.91785e-15
2.9833e-14
-4.8676e-14
-6.23198e-15
4.16513e-14
5.24046e-15
6.14345e-15
-7.79605e-15
0
1.78893e-11
-1.88141e-12
4.04031e-13
-1.51182e-13
2.37767e-15
-1.29284e-14
5.32605e-14
2.01738e-14
-2.22225e-14
-2.81396e-16
2.59322e-14
-3.9167e-14
2.47023e-14
5.89604e-15
-2.65082e-15
-5.08967e-14
1.89253e-14
4.36025e-15
1.18679e-14
-2.71051e-14
-1.19262e-12
7.94209e-13
-1.88992e-13
1.08743e-13
-2.26385e-14
7.16357e-15
-1.93727e-14
2.00734e-15
-1.90569e-14
-3.41878e-14
5.80422e-14
-2.22056e-14
-1.25163e-14
8.44368e-15
2.91257e-14
-3.00014e-14
-2.12153e-14
1.82993e-15
4.63176e-14
-2.71051e-14
-1.7808e-11
1.38023e-12
-3.08644e-13
6.56513e-14
-5.71044e-15
2.99866e-16
-1.42764e-14
7.37941e-15
4.80301e-14
1.73455e-14
-1.55172e-14
1.38728e-14
-5.87021e-14
4.44128e-16
-3.82311e-14
6.26822e-15
-1.01178e-14
5.74701e-14
-3.90246e-15
0
1.16552e-11
-1.21973e-12
2.98156e-13
-8.13152e-14
0
0
2.71051e-14
-2.71051e-14
-2.71051e-14
0
0
0
0
0
0
0
0
0
0
0
)
;

boundaryField
{
    movingWall
    {
        type            extrapolatedCalculated;
        value           nonuniform List<scalar> 
20
(
1.16552e-11
-1.21973e-12
2.98156e-13
-8.13152e-14
0
0
2.71051e-14
-2.71051e-14
-2.71051e-14
0
0
0
0
0
0
0
0
0
0
0
)
;
    }
    fixedWalls
    {
        type            extrapolatedCalculated;
        value           nonuniform List<scalar> 
60
(
1.35254e-11
-2.42861e-11
8.51099e-12
1.07336e-11
-1.84856e-11
1.37694e-11
4.87891e-12
-2.00035e-11
1.73201e-11
-6.07153e-12
-4.09286e-12
1.15468e-11
-1.63986e-11
1.39049e-11
-7.31836e-13
-1.49891e-11
1.78893e-11
-1.19262e-12
-1.7808e-11
1.16552e-11
5.42101e-14
2.71051e-14
0
0
0
-5.42101e-14
0
-2.71051e-14
0
-2.71051e-14
0
0
0
-2.71051e-14
0
0
-2.71051e-14
-2.71051e-14
0
0
1.35254e-11
-1.44836e-12
3.30854e-13
-9.52249e-14
2.33452e-14
-4.01367e-15
1.06391e-14
3.97584e-15
-1.7102e-14
-1.07711e-14
3.80381e-15
2.19023e-15
9.68331e-15
1.59617e-14
-2.80868e-14
-4.38242e-14
5.62578e-14
-5.85266e-14
-2.18689e-14
5.42101e-14
)
;
    }
    frontAndBack
    {
        type            empty;
    }
}


// ************************************************************************* //
