/*--------------------------------*- C++ -*----------------------------------*\
| =========                 |                                                 |
| \\      /  F ield         | OpenFOAM: The Open Source CFD Toolbox           |
|  \\    /   O peration     | Version:  2506                                  |
|   \\  /    A nd           | Website:  www.openfoam.com                      |
|    \\/     M anipulation  |                                                 |
\*---------------------------------------------------------------------------*/
FoamFile
{
    version     2.0;
    format      ascii;
    arch        "LSB;label=32;scalar=64";
    class       volScalarField;
    location    "6.75";
    object      enstrophyField;
}
// * * * * * * * * * * * * * * * * * * * * * * * * * * * * * * * * * * * * * //

dimensions      [0 0 -2 0 0 0 0];

internalField   nonuniform List<scalar> 
400
(
4.43366e-23
8.1828e-23
4.03378e-24
2.32946e-25
9.11897e-27
8.47967e-28
2.95191e-30
1.58193e-27
4.76548e-29
1.39549e-27
1.02736e-27
4.86648e-30
4.81849e-30
3.05207e-29
1.36398e-27
2.67104e-27
1.31993e-27
1.01046e-27
6.43521e-30
1.75752e-27
3.62178e-26
1.15614e-25
3.77077e-26
5.40839e-27
4.20339e-27
4.05431e-28
1.39207e-28
1.61791e-27
3.36819e-30
1.16108e-29
1.38477e-29
4.04934e-29
5.6894e-29
1.97426e-27
6.46436e-30
4.72053e-27
2.18342e-27
2.37162e-27
4.00964e-28
3.35625e-28
1.34782e-23
5.84084e-23
3.37468e-24
1.07935e-25
2.63244e-26
1.80287e-28
2.73226e-27
3.45176e-27
1.08925e-27
3.3676e-27
1.53242e-27
2.86211e-28
1.22162e-28
4.18052e-27
7.46798e-27
6.5515e-28
1.91619e-27
4.50853e-29
1.68561e-29
3.77697e-28
1.2591e-23
3.89372e-23
1.78208e-24
1.56336e-25
1.13152e-27
5.18368e-30
4.80769e-28
8.22649e-28
8.56136e-29
2.46379e-28
1.58019e-27
4.58957e-27
7.61152e-28
3.20734e-28
2.52201e-29
4.51767e-28
2.81758e-28
6.3966e-29
1.61976e-29
1.34966e-28
1.9112e-25
2.47704e-25
1.98757e-26
1.96645e-28
1.30397e-27
3.34135e-27
2.39571e-26
4.09067e-26
1.63015e-26
2.22849e-27
2.65681e-27
6.18447e-27
3.70301e-29
1.73571e-28
1.72718e-27
1.63963e-29
8.52321e-31
2.40005e-29
2.80169e-28
1.63753e-28
1.89085e-23
4.03496e-23
1.94897e-24
1.2862e-25
2.42265e-27
3.92507e-28
1.21359e-27
4.44135e-29
2.94402e-29
6.04858e-28
3.40982e-28
6.65982e-28
2.12321e-29
4.04271e-28
2.72572e-30
1.51992e-29
4.39118e-27
8.30647e-30
1.39914e-28
5.88951e-28
3.76145e-23
8.0467e-23
4.55121e-24
1.63062e-25
4.78444e-26
5.51143e-27
1.79362e-26
3.45052e-26
9.92578e-27
5.12491e-27
4.78801e-27
5.47012e-27
1.9185e-27
1.64902e-27
3.83865e-29
2.46159e-27
7.61783e-33
3.74745e-28
8.43671e-28
7.98051e-29
5.46963e-24
1.22243e-23
6.46698e-25
6.70876e-26
3.16513e-31
3.85255e-27
1.6107e-27
2.11821e-27
4.70988e-28
3.70185e-28
3.62585e-28
1.59449e-28
8.73508e-29
1.23921e-29
1.9914e-29
1.27008e-30
1.4388e-27
3.83213e-28
1.21445e-28
1.72249e-28
6.32822e-24
1.60194e-23
8.61129e-25
2.28683e-26
2.81498e-26
9.91562e-27
1.08695e-26
3.9159e-27
3.851e-27
3.00724e-27
2.95584e-27
4.13569e-27
2.34847e-27
3.64406e-29
3.06919e-27
2.62611e-27
1.33537e-27
7.92229e-29
7.81069e-30
5.73454e-28
4.00621e-23
6.26618e-23
3.14949e-24
3.13203e-25
3.35776e-28
9.98775e-27
4.77594e-27
1.01132e-26
4.3321e-27
1.86172e-27
3.15736e-28
2.88629e-29
2.29179e-27
4.23238e-30
2.38908e-29
1.22034e-27
2.74368e-28
1.65836e-27
5.4317e-29
9.62868e-31
4.84419e-23
6.33204e-23
3.29024e-24
2.53113e-25
3.98793e-27
1.75619e-27
4.30712e-28
7.07317e-30
4.66528e-28
4.87324e-28
2.46972e-28
3.21441e-28
4.88479e-27
2.8267e-27
4.13782e-27
1.5223e-27
3.50293e-27
2.33414e-29
1.58017e-28
5.8824e-28
1.66629e-23
2.61129e-23
1.7378e-24
3.34558e-26
2.17975e-26
7.89552e-27
1.0511e-26
1.05629e-26
7.74951e-27
4.63198e-27
1.73968e-27
2.0846e-29
1.48925e-27
2.65337e-29
2.54785e-29
1.56514e-27
1.13358e-27
4.57554e-27
5.21132e-29
2.26327e-28
1.79947e-26
3.83184e-27
1.2048e-26
2.85997e-27
1.61792e-27
8.48624e-29
8.92921e-29
3.43354e-28
5.51765e-27
2.11902e-27
1.755e-27
3.65041e-27
1.31223e-27
1.16218e-27
3.57985e-28
1.43666e-28
5.07512e-29
9.157e-29
3.6456e-28
3.96075e-29
1.23918e-23
2.85817e-23
1.70693e-24
6.53819e-26
8.03609e-27
4.56462e-28
1.14394e-29
1.16955e-27
3.13995e-27
1.82725e-27
3.45243e-27
6.28764e-28
2.57431e-27
2.58396e-31
7.92187e-32
1.8577e-28
9.50839e-28
4.18343e-29
3.99211e-28
4.98316e-29
2.97331e-23
7.05992e-23
3.88452e-24
2.26084e-25
1.53687e-26
4.83453e-28
6.13128e-27
1.12069e-26
3.40337e-27
3.62592e-27
2.97905e-27
2.63685e-27
3.10646e-29
2.64544e-27
4.22509e-30
6.05302e-28
1.17004e-28
4.72854e-28
5.16232e-30
2.82429e-28
1.41373e-23
2.68266e-23
1.53131e-24
5.8938e-26
2.53754e-27
3.75054e-28
4.55387e-27
2.60011e-27
5.05636e-28
1.20001e-28
8.43428e-28
3.64866e-28
1.408e-27
1.26752e-27
8.81694e-29
1.83381e-27
4.18117e-27
1.19763e-29
7.82486e-30
3.35401e-28
3.55444e-25
3.38467e-24
1.14158e-25
2.02795e-26
3.601e-28
2.22694e-30
1.21163e-26
1.62468e-26
7.36081e-27
1.01134e-27
2.56025e-28
1.7557e-27
3.05573e-30
7.97037e-28
1.7419e-27
4.3076e-29
3.6736e-29
1.60754e-28
5.43975e-29
1.10021e-28
5.58825e-24
4.44715e-23
2.55891e-24
8.54129e-26
1.37162e-26
2.34736e-28
1.41751e-27
1.27851e-27
1.08893e-27
1.16912e-28
2.6674e-29
7.2847e-30
2.42876e-27
7.87165e-28
1.5928e-27
3.61829e-27
2.83109e-29
1.31736e-28
7.78786e-32
2.35861e-29
3.40324e-24
6.2255e-24
5.2354e-25
7.06607e-27
1.26066e-26
2.63623e-27
4.89725e-28
2.67871e-28
4.10483e-28
2.46682e-27
6.09838e-28
5.79522e-28
7.62321e-28
1.92901e-30
9.20872e-29
6.7575e-33
8.8028e-28
3.00018e-30
4.25537e-31
3.81338e-28
1.28075e-23
3.05381e-23
1.35558e-24
9.1592e-26
8.85799e-28
6.82306e-28
6.35139e-29
4.88046e-28
7.457e-28
1.85457e-27
4.94587e-28
8.34571e-30
1.10566e-30
3.69648e-29
2.97211e-29
1.42141e-27
7.0161e-29
7.09053e-30
5.82964e-30
9.98168e-30
)
;

boundaryField
{
    movingWall
    {
        type            calculated;
        value           nonuniform List<scalar> 
20
(
7.86498e-23
4.95376e-23
1.19002e-24
2.41133e-25
2.30184e-26
3.81678e-26
3.1405e-26
2.55792e-26
1.78887e-26
4.56113e-27
4.33976e-27
8.34571e-30
3.81333e-27
6.41203e-28
6.7341e-28
1.02609e-27
7.0161e-29
7.09053e-30
5.82964e-30
9.98168e-30
)
;
    }
    fixedWalls
    {
        type            calculated;
        value           nonuniform List<scalar> 
60
(
1.45445e-21
3.88589e-24
1.07071e-21
6.97784e-22
4.94247e-24
7.29479e-22
1.46806e-21
2.22755e-22
2.84938e-22
1.1368e-21
1.14637e-21
4.93869e-22
8.16868e-25
5.23443e-22
1.29959e-21
4.99326e-22
5.71345e-23
8.13141e-22
1.19628e-22
5.43995e-22
1.60494e-27
5.78803e-28
3.88719e-30
4.60335e-30
4.10102e-29
1.35596e-27
6.19794e-28
2.69143e-30
8.62091e-28
3.85769e-30
3.27391e-28
1.74637e-28
2.74563e-30
1.96711e-28
3.514e-28
1.75469e-28
3.02587e-28
7.92938e-31
2.83096e-28
2.90222e-29
1.59799e-22
1.17635e-22
3.93608e-24
5.56658e-25
1.10573e-26
4.73197e-26
1.62118e-26
2.42014e-26
1.40907e-26
1.60234e-26
4.77254e-27
4.22626e-27
3.6734e-27
7.86432e-27
1.07597e-27
3.24755e-27
4.00572e-30
3.16508e-27
6.43521e-30
4.40819e-27
)
;
    }
    frontAndBack
    {
        type            empty;
    }
}


// ************************************************************************* //
