/*--------------------------------*- C++ -*----------------------------------*\
| =========                 |                                                 |
| \\      /  F ield         | OpenFOAM: The Open Source CFD Toolbox           |
|  \\    /   O peration     | Version:  2506                                  |
|   \\  /    A nd           | Website:  www.openfoam.com                      |
|    \\/     M anipulation  |                                                 |
\*---------------------------------------------------------------------------*/
FoamFile
{
    version     2.0;
    format      ascii;
    arch        "LSB;label=32;scalar=64";
    class       volScalarField;
    location    "6.75";
    object      flowTypeField;
}
// * * * * * * * * * * * * * * * * * * * * * * * * * * * * * * * * * * * * * //

dimensions      [0 0 0 0 0 0 0];

internalField   nonuniform List<scalar> 
400
(
0.440035
0.0606234
0.059538
-0.011252
0.262702
0.221742
0.67127
-0.0342678
0.606299
0.147577
0.163461
0.142941
0.589289
0.485418
0.319675
0.236425
0.297996
0.374847
0.76231
0.214046
0.985811
0.903396
0.777267
0.639854
0.295641
0.480501
0.279219
0.238913
0.613748
0.868745
0.863342
0.0163104
0.226027
0.174421
0.89588
-0.190298
-0.0596325
0.117629
0.480469
0.516426
0.580395
0.119096
0.0460432
0.242056
-0.358291
0.699993
0.0643886
-0.263828
0.360564
-0.264601
-0.0174372
0.301576
0.412832
-0.123052
-0.121605
-0.323826
-0.121152
0.604626
0.739336
0.487011
0.601389
0.117126
0.119148
-0.0694239
0.632955
0.917352
0.490592
0.061178
0.816703
0.587972
-0.0365449
-0.0876376
0.375286
0.361848
0.286489
-0.10606
0.348622
0.104479
0.733736
0.530136
0.957375
0.810741
0.784517
0.888308
0.114996
0.195199
-0.151099
-0.171999
-0.10612
0.178778
0.244532
-0.0248927
0.17845
0.492188
-0.0757938
0.205223
0.490903
0.695735
0.130358
0.323902
0.58137
0.109144
0.0973613
0.01646
0.303569
0.449474
0.335893
0.403672
0.880167
0.325836
0.363757
-0.0568001
0.745692
0.123124
0.87352
0.731361
-0.147537
0.787604
0.418597
0.117068
0.265548
0.0590889
-0.0440247
0.16143
-0.745404
0.237791
-0.161192
-0.0766171
-0.0364327
0.0944675
0.0970229
0.0377049
-0.139199
0.0521811
0.00538892
0.100674
0.802883
0.491724
-0.502283
0.00365082
0.797968
0.263241
0.241244
0.0859694
0.974931
-0.038615
-0.0403724
-0.13761
0.493415
0.531561
0.191898
0.382964
0.60152
0.883999
0.752972
0.889181
0.12615
-0.00524038
0.543801
0.632441
0.756259
0.193291
0.175116
0.372888
-0.589266
-0.0295065
-0.087044
-0.0788936
0.00860695
0.0860284
0.102003
0.0938696
-0.260714
0.0697795
-0.436359
-0.30287
0.295005
0.717552
0.0207315
-0.1801
0.171348
0.0246979
-0.00318241
-0.269666
0.757657
-0.248974
0.101693
-0.0214323
-0.101159
0.0419238
0.15777
0.778929
0.159583
0.732105
0.681315
0.20207
0.576878
-0.00781035
0.572334
0.899217
0.0297326
0.000324998
-0.0509799
-0.227352
0.23767
-0.182184
0.22275
0.475154
0.28533
0.49853
0.514389
0.583665
0.00547047
0.0526457
-0.117714
0.261664
0.0240565
0.684927
0.632244
-0.227844
0.504348
0.0889436
-0.0500326
0.384136
-0.0406899
0.116516
-0.0235251
-0.0526087
-0.105932
-0.181747
0.0364939
0.792842
-0.572282
0.704663
0.649564
0.0653342
-0.333089
0.0366786
0.0752578
0.0422624
0.98377
0.966985
0.777593
0.63024
0.169535
0.0119751
0.700041
0.512642
-0.26472
-0.0658862
0.144796
0.159806
0.147055
0.128764
0.300361
0.371924
0.618589
0.504252
0.291265
0.654573
0.619046
0.115794
0.0493351
0.179489
-0.107126
0.437539
0.780528
0.220884
0.0257223
-0.111152
-0.0201828
0.35405
-0.236523
0.396004
0.946749
0.282345
-0.583072
0.0517853
0.0859516
0.588917
0.267095
0.0715303
0.00305438
0.0197868
-0.0980062
0.430146
-0.337363
-0.103937
0.15132
-0.0453304
0.0526619
0.335921
0.672069
0.0767858
0.603209
0.379471
0.46253
0.198483
0.422831
0.12426
0.653459
0.174989
0.11994
0.266742
0.000181499
0.709679
0.283667
-0.251797
0.480914
0.56512
0.448145
0.0107622
0.118667
0.166087
0.605605
0.211095
-0.114604
0.370325
0.587729
0.0663029
0.942758
0.513216
0.605492
0.295666
0.678725
0.397719
-0.224994
-0.323756
-0.0668848
0.173109
0.335965
0.305494
0.852051
-0.460737
-0.0850944
0.804803
0.404303
0.00471195
0.579245
0.458762
0.627669
0.136318
0.0585928
0.265582
-0.171614
0.698676
0.0671909
0.0777994
0.390403
0.67999
0.813814
0.549295
-0.252819
-0.440665
0.0690737
0.0109196
0.429345
0.011374
0.946935
0.687332
0.8346
0.420057
0.29832
0.605437
0.0149325
0.108946
0.103051
0.423065
0.48195
-0.127135
0.116168
-0.172365
0.44968
0.64049
0.521651
0.965331
0.248731
0.921665
0.59534
-0.0166582
0.5943
0.107424
0.152278
0.0380749
0.583692
-0.353517
0.601631
0.455762
0.0446525
-0.10216
0.220911
0.611206
0.534428
0.00122951
0.368239
0.156117
0.2114
0.196451
0.271698
0.0238165
)
;

boundaryField
{
    movingWall
    {
        type            calculated;
        value           nonuniform List<scalar> 
20
(
0.593019
0.123476
0.366435
-0.104245
0.333309
-0.0366514
0.0768985
0.0502978
-0.0286064
-0.0417905
0.00453426
0.2699
0.018449
0.208494
0.282944
0.287062
0.507458
0.38367
0.582107
0.410118
)
;
    }
    fixedWalls
    {
        type            calculated;
        value           nonuniform List<scalar> 
60
(
0.0631373
0.87507
0.107401
0.116737
0.815276
0.108466
0.0463459
0.277791
0.209546
0.0174968
-0.00822732
0.0691845
0.896294
0.112957
0.0555632
0.16598
0.540034
0.124498
0.416315
0.113035
0.41026
0.583361
0.958477
0.913311
0.77765
0.411106
0.000489808
0.957265
0.218054
0.896455
0.454653
0.053252
0.890323
0.531635
0.0265427
0.31458
0.45873
0.969436
0.120334
0.00897411
0.628221
0.145685
0.282435
-0.0675268
0.57508
-0.141456
0.0011731
0.0114334
0.08451
0.0451593
-0.0256968
-0.0122344
0.058831
0.0813741
0.419462
0.225598
0.917351
0.222919
0.718574
0.0942606
)
;
    }
    frontAndBack
    {
        type            empty;
    }
}


// ************************************************************************* //
