/*--------------------------------*- C++ -*----------------------------------*\
| =========                 |                                                 |
| \\      /  F ield         | OpenFOAM: The Open Source CFD Toolbox           |
|  \\    /   O peration     | Version:  2506                                  |
|   \\  /    A nd           | Website:  www.openfoam.com                      |
|    \\/     M anipulation  |                                                 |
\*---------------------------------------------------------------------------*/
FoamFile
{
    version     2.0;
    format      ascii;
    arch        "LSB;label=32;scalar=64";
    class       surfaceScalarField;
    location    "6.75";
    object      fluxField;
}
// * * * * * * * * * * * * * * * * * * * * * * * * * * * * * * * * * * * * * //

dimensions      [0 3 -1 0 0 0 0];

oriented        oriented;

internalField   nonuniform List<scalar> 
760
(
-5e-05
3.69251e-18
-5e-05
-8.16099e-19
-5e-05
1.91134e-19
-5e-05
-3.73587e-20
-5e-05
1.93888e-20
-5e-05
5.77285e-21
-5e-05
2.65977e-21
-5e-05
9.9396e-22
-5e-05
2.50075e-21
-5e-05
4.08349e-21
-5e-05
9.50953e-22
-5e-05
5.47558e-22
-5e-05
2.42083e-21
-5e-05
3.99043e-21
-5e-05
6.53082e-21
-5e-05
2.59648e-21
-5e-05
5.11916e-22
-5e-05
-1.07913e-21
-5e-05
-5.46723e-21
-2.27933e-21
-5e-05
-2.95176e-18
-5e-05
6.51356e-19
-5e-05
-1.46309e-19
-5e-05
3.66412e-20
-5e-05
-4.15353e-21
-5e-05
2.20008e-21
-5e-05
-1.78181e-21
-5e-05
2.95671e-21
-5e-05
4.76897e-21
-5e-05
1.72165e-21
-5e-05
-3.40029e-21
-5e-05
1.18279e-22
-5e-05
4.83087e-21
-5e-05
5.65361e-21
-5e-05
4.45675e-21
-5e-05
1.30656e-21
-5e-05
-1.77899e-21
-5e-05
-3.58547e-21
-5e-05
-7.81821e-21
-5.34034e-21
-5e-05
-6.72577e-19
-5e-05
1.68344e-19
-5e-05
-3.43905e-20
-5e-05
4.38271e-21
-5e-05
-1.05946e-20
-5e-05
-7.20638e-21
-5e-05
-2.59425e-21
-5e-05
5.47385e-21
-5e-05
7.98938e-21
-5e-05
8.50165e-23
-5e-05
-4.5247e-21
-5e-05
2.99069e-22
-5e-05
5.0798e-21
-5e-05
6.14553e-21
-5e-05
2.10444e-21
-5e-05
9.21854e-22
-5e-05
5.69642e-22
-5e-05
-1.84381e-21
-5e-05
-4.63199e-21
-4.71829e-21
-5e-05
2.31959e-18
-5e-05
-4.94554e-19
-5e-05
1.1999e-19
-5e-05
-2.49903e-20
-5e-05
5.48409e-21
-5e-05
1.2406e-21
-5e-05
4.57097e-21
-5e-05
1.70335e-21
-5e-05
-2.58595e-21
-5e-05
-6.28478e-21
-5e-05
-4.49685e-21
-5e-05
-3.67788e-21
-5e-05
-1.57257e-21
-5e-05
1.45149e-21
-5e-05
1.01291e-22
-5e-05
8.16901e-22
-5e-05
2.27136e-21
-5e-05
-3.51142e-22
-5e-05
-2.28838e-21
-2.63246e-21
-5e-05
-2.6888e-18
-5e-05
5.76722e-19
-5e-05
-1.31497e-19
-5e-05
3.32982e-20
-5e-05
2.58128e-22
-5e-05
9.90543e-21
-5e-05
7.15449e-21
-5e-05
1.38009e-21
-5e-05
-5.72294e-21
-5e-05
-5.02147e-21
-5e-05
-1.65317e-22
-5e-05
-2.66868e-21
-5e-05
-3.21195e-21
-5e-05
-2.14634e-21
-5e-05
-1.42608e-21
-5e-05
-4.21688e-22
-5e-05
1.38391e-21
-5e-05
2.35169e-21
-5e-05
-1.36714e-21
-2.68872e-21
-5e-05
1.04679e-18
-5e-05
-2.2608e-19
-5e-05
5.33536e-20
-5e-05
-1.28383e-20
-5e-05
3.50107e-21
-5e-05
-3.40163e-22
-5e-05
2.87172e-21
-5e-05
5.11642e-21
-5e-05
5.20372e-21
-5e-05
4.54064e-21
-5e-05
5.32801e-21
-5e-05
2.14752e-21
-5e-05
2.02408e-21
-5e-05
2.45177e-21
-5e-05
2.49623e-21
-5e-05
8.44973e-22
-5e-05
-1.14207e-22
-5e-05
3.9139e-21
-5e-05
-1.20112e-21
-3.76118e-21
-5e-05
2.15552e-18
-5e-05
-4.61657e-19
-5e-05
1.04973e-19
-5e-05
-2.56023e-20
-5e-05
6.34535e-21
-5e-05
-2.67727e-21
-5e-05
3.27369e-22
-5e-05
4.65205e-21
-5e-05
7.735e-21
-5e-05
6.89126e-21
-5e-05
5.96647e-21
-5e-05
4.20646e-21
-5e-05
2.69848e-21
-5e-05
2.83545e-21
-5e-05
2.25849e-21
-5e-05
2.22269e-21
-5e-05
-1.33187e-21
-5e-05
2.33353e-21
-5e-05
-1.25497e-21
-4.03956e-21
-5e-05
-2.96028e-18
-5e-05
6.47705e-19
-5e-05
-1.4644e-19
-5e-05
4.20753e-20
-5e-05
-1.39978e-21
-5e-05
2.88635e-21
-5e-05
-1.10843e-21
-5e-05
5.44108e-22
-5e-05
-1.84585e-22
-5e-05
-1.70726e-22
-5e-05
7.82101e-22
-5e-05
8.92178e-22
-5e-05
-3.93772e-21
-5e-05
-5.99322e-21
-5e-05
-3.04805e-21
-5e-05
1.61894e-21
-5e-05
1.91591e-21
-5e-05
1.12791e-21
-5e-05
-1.08613e-21
-2.74021e-21
-5e-05
1.43392e-18
-5e-05
-3.02358e-19
-5e-05
8.41733e-20
-5e-05
-3.00096e-21
-5e-05
7.53678e-21
-5e-05
-1.63108e-21
-5e-05
-2.01639e-21
-5e-05
-1.93851e-21
-5e-05
-5.48557e-21
-5e-05
-6.49163e-21
-5e-05
-6.2475e-21
-5e-05
-4.89071e-21
-5e-05
-3.77867e-21
-5e-05
-5.09873e-21
-5e-05
-2.37176e-21
-5e-05
-7.92418e-22
-5e-05
9.9203e-22
-5e-05
-2.34513e-21
-5e-05
-1.30963e-21
-7.27536e-22
-5e-05
5.35408e-20
-5e-05
-1.22025e-20
-5e-05
7.22489e-21
-5e-05
1.03599e-21
-5e-05
7.86991e-22
-5e-05
-1.25982e-21
-5e-05
5.9846e-22
-5e-05
1.97304e-21
-5e-05
-1.34854e-22
-5e-05
-1.82883e-21
-5e-05
-2.86588e-21
-5e-05
-1.14785e-22
-5e-05
2.44843e-21
-5e-05
-1.12328e-21
-5e-05
-3.52368e-21
-5e-05
-5.26522e-21
-5e-05
-4.96734e-21
-5e-05
-6.78165e-21
-5e-05
-2.414e-21
2.68374e-22
-5e-05
-9.67412e-19
-5e-05
1.93832e-19
-5e-05
-4.88172e-20
-5e-05
5.04228e-21
-5e-05
-3.37398e-21
-5e-05
1.03255e-21
-5e-05
2.2004e-21
-5e-05
3.95982e-21
-5e-05
5.5962e-21
-5e-05
7.11832e-21
-5e-05
8.30121e-21
-5e-05
9.53236e-21
-5e-05
3.57666e-21
-5e-05
-1.7168e-21
-5e-05
-3.48928e-21
-5e-05
-2.34602e-21
-5e-05
-4.16591e-21
-5e-05
-8.06991e-21
-5e-05
-6.04433e-21
-1.07328e-21
-5e-05
1.90302e-18
-5e-05
-4.32692e-19
-5e-05
9.11131e-20
-5e-05
-3.25303e-20
-5e-05
-6.0152e-21
-5e-05
-8.10547e-21
-5e-05
-5.22395e-21
-5e-05
-2.39856e-21
-5e-05
3.78285e-21
-5e-05
7.55364e-21
-5e-05
1.0239e-20
-5e-05
1.00064e-20
-5e-05
6.10937e-21
-5e-05
2.39359e-21
-5e-05
2.78856e-21
-5e-05
4.09133e-21
-5e-05
-1.84675e-22
-5e-05
-5.29365e-21
-5e-05
-7.15445e-21
-2.71566e-21
-5e-05
-2.21053e-18
-5e-05
4.84846e-19
-5e-05
-1.22301e-19
-5e-05
1.80049e-20
-5e-05
-1.69239e-20
-5e-05
-7.58149e-21
-5e-05
-7.66805e-21
-5e-05
-5.4364e-21
-5e-05
3.44684e-22
-5e-05
1.01442e-21
-5e-05
1.50662e-21
-5e-05
1.82814e-21
-5e-05
7.22617e-21
-5e-05
5.4689e-21
-5e-05
5.90627e-21
-5e-05
5.28253e-21
-5e-05
1.4103e-21
-5e-05
-3.10081e-21
-5e-05
-4.25969e-21
-2.78729e-21
-5e-05
1.23531e-18
-5e-05
-2.67422e-19
-5e-05
5.9927e-20
-5e-05
-1.89605e-20
-5e-05
-4.22585e-21
-5e-05
-6.82433e-21
-5e-05
-4.00573e-21
-5e-05
-6.64808e-22
-5e-05
1.00252e-21
-5e-05
1.49475e-22
-5e-05
4.02558e-22
-5e-05
-1.32722e-21
-5e-05
2.91596e-21
-5e-05
5.02927e-21
-5e-05
7.72776e-21
-5e-05
5.65649e-21
-5e-05
9.16247e-22
-5e-05
-2.29364e-21
-5e-05
-4.5869e-22
-1.20251e-21
-5e-05
1.31463e-18
-5e-05
-3.02763e-19
-5e-05
6.67408e-20
-5e-05
-2.31179e-20
-5e-05
-1.98254e-21
-5e-05
-3.87384e-21
-5e-05
-1.05579e-21
-5e-05
-4.83479e-23
-5e-05
-1.98459e-21
-5e-05
-9.25274e-22
-5e-05
1.87932e-21
-5e-05
1.3278e-21
-5e-05
-2.71514e-22
-5e-05
3.58437e-21
-5e-05
5.32578e-21
-5e-05
9.91283e-22
-5e-05
-1.11602e-21
-5e-05
-3.00374e-22
-5e-05
1.01934e-21
-4.86067e-22
-5e-05
-2.93796e-18
-5e-05
6.40333e-19
-5e-05
-1.51375e-19
-5e-05
3.59347e-20
-5e-05
-1.64147e-21
-5e-05
1.12814e-20
-5e-05
5.59163e-21
-5e-05
-4.06037e-21
-5e-05
-1.00677e-20
-5e-05
-8.46235e-21
-5e-05
-4.85542e-21
-5e-05
4.79462e-22
-5e-05
6.81988e-22
-5e-05
1.38352e-21
-5e-05
-1.55799e-21
-5e-05
-3.13971e-21
-5e-05
1.31012e-21
-5e-05
1.53586e-21
-5e-05
-1.94901e-21
-2.06075e-21
-5e-05
1.97771e-18
-5e-05
-4.29695e-19
-5e-05
1.01008e-19
-5e-05
-1.74668e-20
-5e-05
1.41469e-20
-5e-05
1.03204e-20
-5e-05
6.53885e-21
-5e-05
-1.73282e-21
-5e-05
-5.55562e-21
-5e-05
-6.84661e-21
-5e-05
-7.06948e-21
-5e-05
-3.01547e-21
-5e-05
-6.007e-22
-5e-05
1.47401e-21
-5e-05
-6.62706e-22
-5e-05
8.28354e-22
-5e-05
4.73133e-21
-5e-05
1.09006e-21
-5e-05
-3.80928e-21
-1.61622e-21
-5e-05
1.8688e-18
-5e-05
-4.24864e-19
-5e-05
9.50535e-20
-5e-05
-2.70244e-20
-5e-05
7.8929e-21
-5e-05
1.79089e-21
-5e-05
1.93308e-21
-5e-05
5.01836e-22
-5e-05
2.01203e-21
-5e-05
-1.77069e-21
-5e-05
-5.81825e-21
-5e-05
-5.55139e-21
-5e-05
-3.12908e-21
-5e-05
2.11092e-21
-5e-05
5.05157e-22
-5e-05
-7.24098e-22
-5e-05
1.47245e-21
-5e-05
4.57483e-22
-5e-05
-1.97312e-21
1.28184e-22
-5e-05
-3.17059e-18
-5e-05
6.8387e-19
-5e-05
-1.65252e-19
-5e-05
2.99654e-20
-5e-05
-8.20387e-21
-5e-05
7.49665e-23
-5e-05
-3.56909e-21
-5e-05
-4.93141e-21
-5e-05
-1.54501e-21
-5e-05
-2.43988e-21
-5e-05
-3.8793e-21
-5e-05
-3.30806e-21
-5e-05
-1.123e-21
-5e-05
1.11032e-22
-5e-05
-2.78151e-21
-5e-05
-5.20921e-21
-5e-05
-2.52945e-21
-5e-05
8.14999e-22
-5e-05
-9.75615e-22
-2.69277e-22
-5e-05
-5e-05
-5e-05
-5e-05
-5e-05
-5e-05
-5e-05
-5e-05
-5e-05
-5e-05
-5e-05
-5e-05
-5e-05
-5e-05
-5e-05
-5e-05
-5e-05
-5e-05
-5e-05
)
;

boundaryField
{
    movingWall
    {
        type            calculated;
        value           uniform -0;
    }
    fixedWalls
    {
        type            calculated;
        value           nonuniform List<scalar> 
60
(
5e-05
5e-05
5e-05
5e-05
5e-05
5e-05
5e-05
5e-05
5e-05
5e-05
5e-05
5e-05
5e-05
5e-05
5e-05
5e-05
5e-05
5e-05
5e-05
5e-05
-5e-05
-5e-05
-5e-05
-5e-05
-5e-05
-5e-05
-5e-05
-5e-05
-5e-05
-5e-05
-5e-05
-5e-05
-5e-05
-5e-05
-5e-05
-5e-05
-5e-05
-5e-05
-5e-05
-5e-05
0
0
0
0
0
0
0
0
0
0
0
0
0
0
0
0
0
0
0
0
)
;
    }
    frontAndBack
    {
        type            empty;
    }
}


// ************************************************************************* //
