/*--------------------------------*- C++ -*----------------------------------*\
| =========                 |                                                 |
| \\      /  F ield         | OpenFOAM: The Open Source CFD Toolbox           |
|  \\    /   O peration     | Version:  2506                                  |
|   \\  /    A nd           | Website:  www.openfoam.com                      |
|    \\/     M anipulation  |                                                 |
\*---------------------------------------------------------------------------*/
FoamFile
{
    version     2.0;
    format      ascii;
    arch        "LSB;label=32;scalar=64";
    class       volTensorField;
    location    "6.75";
    object      gradU;
}
// * * * * * * * * * * * * * * * * * * * * * * * * * * * * * * * * * * * * * //

dimensions      [0 0 -1 0 0 0 0];

internalField   nonuniform List<tensor> 
400
(
(-1.24683e-12 1.07719e-11 0 1.35525e-12 1.477e-11 0 0 0 0)
(1.81604e-12 -1.31181e-11 0 -3.25261e-13 -3.2644e-12 0 0 0 0)
(-4.33681e-13 2.89455e-12 0 5.42101e-14 7.64534e-13 0 0 0 0)
(5.42101e-14 -6.55458e-13 0 2.71051e-14 -1.49435e-13 0 0 0 0)
(-5.42101e-14 1.62153e-13 0 2.71051e-14 7.75553e-14 0 0 0 0)
(-2.71051e-14 -4.11817e-14 0 0 2.30914e-14 0 0 0 0)
(0 -2.42978e-15 0 0 1.06391e-14 0 0 0 0)
(0 2.03812e-15 0 -5.42101e-14 3.97584e-15 0 0 0 0)
(-2.71051e-14 9.76267e-15 0 0 1.0003e-14 0 0 0 0)
(-2.71051e-14 -1.38032e-15 0 -5.42101e-14 1.6334e-14 0 0 0 0)
(0 -8.8811e-15 0 -5.42101e-14 3.80381e-15 0 0 0 0)
(0 -3.11977e-15 0 0 2.19023e-15 0 0 0 0)
(0 3.10435e-15 0 0 9.68331e-15 0 0 0 0)
(0 7.81289e-15 0 0 1.59617e-14 0 0 0 0)
(-5.42101e-14 -1.98015e-15 0 -5.42101e-14 2.61233e-14 0 0 0 0)
(-5.42101e-14 -8.22565e-15 0 -8.13152e-14 1.03859e-14 0 0 0 0)
(5.42101e-14 -2.83045e-15 0 -5.42101e-14 2.04766e-15 0 0 0 0)
(-5.42101e-14 -9.25557e-15 0 -5.42101e-14 -4.3165e-15 0 0 0 0)
(0 -3.58754e-15 0 0 -2.18689e-14 0 0 0 0)
(5.42101e-14 5.07774e-15 0 -5.42101e-14 -9.11731e-15 0 0 0 0)
(2.30393e-12 7.33748e-13 0 1.00289e-12 -2.65771e-11 0 0 0 0)
(-3.11708e-12 -8.87438e-13 0 -4.06576e-13 5.86982e-12 0 0 0 0)
(7.58942e-13 2.20408e-13 0 -5.42101e-14 -1.34977e-12 0 0 0 0)
(-1.0842e-13 -3.15215e-14 0 -1.35525e-13 2.96e-13 0 0 0 0)
(5.42101e-14 1.03734e-14 0 -8.13152e-14 -9.41694e-14 0 0 0 0)
(0 -2.57345e-14 0 -5.42101e-14 -1.42911e-14 0 0 0 0)
(0 -1.66858e-14 0 0 -1.77663e-14 0 0 0 0)
(-5.42101e-14 -2.67418e-15 0 5.42101e-14 7.85099e-15 0 0 0 0)
(0 2.59545e-15 0 0 9.07289e-15 0 0 0 0)
(5.42101e-14 -4.81888e-15 0 0 -9.44735e-15 0 0 0 0)
(5.42101e-14 -5.26264e-15 0 0 -1.7405e-14 0 0 0 0)
(0 8.99927e-15 0 0 -1.71712e-15 0 0 0 0)
(0 1.06671e-14 0 0 9.64016e-15 0 0 0 0)
(-5.42101e-14 8.62707e-15 0 -5.42101e-14 6.65273e-15 0 0 0 0)
(5.42101e-14 -3.59565e-15 0 0 -8.29629e-15 0 0 0 0)
(0 -1.585e-14 0 8.13152e-14 -5.1597e-15 0 0 0 0)
(2.71051e-14 -1.1872e-14 0 5.42101e-14 -9.16364e-15 0 0 0 0)
(5.42101e-14 -1.4661e-14 0 5.42101e-14 -1.00254e-14 0 0 0 0)
(-5.42101e-14 -1.21327e-15 0 2.71051e-14 -9.40388e-15 0 0 0 0)
(5.42101e-14 2.59085e-14 0 0 -1.22441e-14 0 0 0 0)
(-6.23416e-13 -9.93535e-12 0 -4.74338e-12 9.11671e-12 0 0 0 0)
(7.86047e-13 1.21092e-11 0 1.30104e-12 -1.93205e-12 0 0 0 0)
(-2.1684e-13 -2.67927e-12 0 -8.13152e-14 4.47674e-13 0 0 0 0)
(5.42101e-14 6.00144e-13 0 1.35525e-13 -1.29034e-13 0 0 0 0)
(5.42101e-14 -1.48138e-13 0 8.13152e-14 -2.57644e-14 0 0 0 0)
(2.71051e-14 3.52213e-14 0 5.42101e-14 -3.76258e-14 0 0 0 0)
(5.42101e-14 1.97123e-14 0 -5.42101e-14 -3.24977e-15 0 0 0 0)
(2.71051e-14 2.88773e-14 0 -5.42101e-14 1.00686e-14 0 0 0 0)
(-5.42101e-14 -7.53567e-15 0 -5.42101e-14 1.28816e-14 0 0 0 0)
(-2.71051e-14 -2.78582e-14 0 5.42101e-14 -6.54655e-15 0 0 0 0)
(0 -1.15086e-15 0 5.42101e-14 -4.49764e-15 0 0 0 0)
(-2.71051e-14 2.39254e-14 0 0 7.23159e-16 0 0 0 0)
(0 1.14742e-14 0 2.71051e-14 9.95712e-16 0 0 0 0)
(0 -1.01236e-14 0 8.13152e-14 1.96767e-15 0 0 0 0)
(0 -1.37926e-14 0 1.0842e-13 -9.40921e-15 0 0 0 0)
(0 -9.093e-15 0 2.71051e-14 -1.53881e-15 0 0 0 0)
(0 -7.69611e-15 0 5.42101e-14 9.39454e-15 0 0 0 0)
(-2.71051e-14 -9.49582e-15 0 0 6.96661e-15 0 0 0 0)
(-2.71051e-14 -5.80623e-15 0 0 1.27449e-14 0 0 0 0)
(0 2.67257e-14 0 5.42101e-14 2.4882e-15 0 0 0 0)
(-1.21973e-12 7.91841e-12 0 2.90024e-12 1.19687e-11 0 0 0 0)
(1.54499e-12 -9.55648e-12 0 -7.31836e-13 -2.65159e-12 0 0 0 0)
(-4.06576e-13 2.02342e-12 0 1.35525e-13 6.17522e-13 0 0 0 0)
(5.42101e-14 -5.0496e-13 0 5.42101e-14 -1.17492e-13 0 0 0 0)
(-8.13152e-14 1.01782e-13 0 5.42101e-14 6.43149e-14 0 0 0 0)
(-5.42101e-14 -3.21984e-15 0 0 3.37879e-14 0 0 0 0)
(-5.42101e-14 3.10087e-14 0 0 2.86609e-14 0 0 0 0)
(-2.71051e-14 1.34572e-14 0 -2.71051e-14 -1.5082e-14 0 0 0 0)
(8.13152e-14 -1.40197e-14 0 -2.71051e-14 -4.23014e-14 0 0 0 0)
(5.42101e-14 -2.21982e-14 0 0 -2.54792e-14 0 0 0 0)
(0 2.00707e-15 0 -5.42101e-14 1.11384e-16 0 0 0 0)
(2.71051e-14 1.44926e-14 0 -8.13152e-14 -1.59078e-14 0 0 0 0)
(5.42101e-14 1.19117e-14 0 -2.71051e-14 -2.66095e-14 0 0 0 0)
(2.71051e-14 -1.77785e-15 0 -2.71051e-14 -1.87762e-14 0 0 0 0)
(0 -7.10213e-15 0 0 -8.01261e-15 0 0 0 0)
(0 2.9538e-15 0 -2.71051e-14 -4.19812e-16 0 0 0 0)
(-2.71051e-14 -3.36655e-15 0 -2.71051e-14 6.80688e-15 0 0 0 0)
(0 -1.13107e-14 0 0 5.97068e-15 0 0 0 0)
(2.71051e-14 -5.69168e-15 0 0 9.37442e-15 0 0 0 0)
(-2.71051e-14 1.06754e-14 0 2.71051e-14 8.34333e-15 0 0 0 0)
(1.54499e-12 -6.18255e-13 0 0 -2.00336e-11 0 0 0 0)
(-2.00577e-12 7.58063e-13 0 5.42101e-14 4.28511e-12 0 0 0 0)
(5.96311e-13 -1.45168e-13 0 5.42101e-14 -1.00595e-12 0 0 0 0)
(-5.42101e-14 4.69366e-14 0 2.71051e-14 2.33154e-13 0 0 0 0)
(0 3.14216e-15 0 5.42101e-14 -2.09039e-14 0 0 0 0)
(-5.42101e-14 -4.32666e-16 0 8.13152e-14 3.46593e-14 0 0 0 0)
(0 -2.91577e-14 0 1.89735e-13 1.03341e-14 0 0 0 0)
(0 -4.20849e-14 0 2.43945e-13 -1.29306e-15 0 0 0 0)
(0 -1.79328e-14 0 1.6263e-13 -1.25479e-14 0 0 0 0)
(0 1.45546e-14 0 8.13152e-14 5.05325e-15 0 0 0 0)
(-5.42101e-14 8.42052e-15 0 8.13152e-14 1.73261e-14 0 0 0 0)
(0 -2.79548e-15 0 1.0842e-13 4.03679e-15 0 0 0 0)
(0 8.60583e-15 0 0 -6.55752e-15 0 0 0 0)
(2.71051e-14 8.47329e-15 0 2.71051e-14 -1.43913e-14 0 0 0 0)
(0 4.56378e-15 0 -5.42101e-14 -6.10949e-15 0 0 0 0)
(0 5.72648e-15 0 0 -4.95436e-15 0 0 0 0)
(0 -1.30562e-15 0 0 -3.54982e-15 0 0 0 0)
(-2.71051e-14 -6.92828e-15 0 0 1.08113e-14 0 0 0 0)
(0 -3.43358e-15 0 -2.71051e-14 3.68498e-15 0 0 0 0)
(0 9.00794e-15 0 2.71051e-14 -2.25065e-16 0 0 0 0)
(-1.16552e-12 -7.83007e-12 0 -1.68051e-12 1.49424e-11 0 0 0 0)
(1.6263e-12 9.47116e-12 0 4.87891e-13 -3.21121e-12 0 0 0 0)
(-4.06576e-13 -2.02853e-12 0 -5.42101e-14 7.39401e-13 0 0 0 0)
(2.71051e-14 4.80083e-13 0 -2.71051e-14 -1.84546e-13 0 0 0 0)
(2.71051e-14 -9.67133e-14 0 -2.71051e-14 1.29718e-14 0 0 0 0)
(2.71051e-14 2.80181e-14 0 0 -4.09824e-14 0 0 0 0)
(5.42101e-14 -4.94371e-15 0 -5.42101e-14 -1.71311e-14 0 0 0 0)
(0 -9.4248e-15 0 0 1.49453e-14 0 0 0 0)
(-8.13152e-14 -7.67336e-15 0 0 4.37067e-14 0 0 0 0)
(-2.71051e-14 7.67593e-15 0 -2.71051e-14 3.82484e-14 0 0 0 0)
(-2.71051e-14 9.90604e-16 0 2.71051e-14 2.19733e-14 0 0 0 0)
(0 -9.39104e-15 0 2.71051e-14 1.92648e-14 0 0 0 0)
(-2.71051e-14 -6.51645e-15 0 0 2.09441e-14 0 0 0 0)
(0 -1.32983e-15 0 2.71051e-14 1.83924e-14 0 0 0 0)
(-2.71051e-14 2.33483e-15 0 0 1.56892e-14 0 0 0 0)
(2.71051e-14 5.51347e-15 0 0 5.06664e-15 0 0 0 0)
(0 1.23991e-14 0 -8.13152e-14 -5.99245e-15 0 0 0 0)
(-2.71051e-14 -4.0759e-15 0 0 6.24883e-15 0 0 0 0)
(2.71051e-14 -1.67281e-14 0 0 6.64057e-16 0 0 0 0)
(-2.71051e-14 7.21551e-15 0 -2.71051e-14 -4.28981e-15 0 0 0 0)
(4.33681e-13 1.11129e-11 0 2.43945e-12 4.43493e-12 0 0 0 0)
(-4.33681e-13 -1.34449e-11 0 -7.58942e-13 -9.42309e-13 0 0 0 0)
(5.42101e-14 2.8815e-12 0 -1.35525e-13 2.06476e-13 0 0 0 0)
(0 -6.79493e-13 0 -1.0842e-13 -5.10559e-14 0 0 0 0)
(2.71051e-14 1.46706e-13 0 -1.6263e-13 1.13771e-14 0 0 0 0)
(-2.71051e-14 -3.05355e-14 0 -1.35525e-13 -9.34843e-15 0 0 0 0)
(0 2.677e-14 0 -1.6263e-13 -1.01774e-14 0 0 0 0)
(0 1.87528e-14 0 -2.43945e-13 -1.85749e-15 0 0 0 0)
(0 5.37027e-15 0 -1.35525e-13 1.01251e-14 0 0 0 0)
(-2.71051e-14 -7.17879e-15 0 -1.0842e-13 9.40245e-15 0 0 0 0)
(0 -1.05631e-14 0 -1.0842e-13 2.55385e-15 0 0 0 0)
(0 -3.82466e-15 0 -1.0842e-13 8.23576e-15 0 0 0 0)
(0 7.73346e-15 0 -5.42101e-14 2.69758e-15 0 0 0 0)
(-2.71051e-14 3.21842e-15 0 -5.42101e-14 1.53474e-15 0 0 0 0)
(0 -8.76202e-15 0 0 -9.50964e-16 0 0 0 0)
(-5.42101e-14 -1.59552e-14 0 5.42101e-14 5.51085e-15 0 0 0 0)
(0 -1.23433e-16 0 0 -4.87064e-15 0 0 0 0)
(5.42101e-14 -2.71768e-16 0 2.71051e-14 -6.32148e-15 0 0 0 0)
(0 -1.39722e-14 0 2.71051e-14 -2.15386e-16 0 0 0 0)
(0 1.26337e-14 0 0 -1.11352e-15 0 0 0 0)
(4.60786e-13 -4.33745e-12 0 -1.02999e-12 -2.04632e-11 0 0 0 0)
(-9.48677e-13 5.24271e-12 0 2.98156e-13 4.43745e-12 0 0 0 0)
(2.71051e-13 -1.13728e-12 0 0 -1.00565e-12 0 0 0 0)
(2.71051e-14 2.84984e-13 0 -8.13152e-14 2.7071e-13 0 0 0 0)
(0 -5.50057e-14 0 -5.42101e-14 -3.09806e-14 0 0 0 0)
(0 6.46357e-15 0 -8.13152e-14 2.22545e-14 0 0 0 0)
(0 2.54723e-15 0 -5.42101e-14 -5.74321e-15 0 0 0 0)
(0 1.08777e-14 0 -5.42101e-14 -1.64318e-14 0 0 0 0)
(5.42101e-14 3.58657e-15 0 -2.71051e-14 -3.16783e-14 0 0 0 0)
(5.42101e-14 1.04685e-16 0 -2.71051e-14 -2.82479e-14 0 0 0 0)
(0 -1.76082e-16 0 -2.71051e-14 -2.07375e-14 0 0 0 0)
(0 -9.24731e-15 0 -2.71051e-14 -1.32571e-14 0 0 0 0)
(2.71051e-14 -1.32175e-14 0 0 -2.65448e-14 0 0 0 0)
(5.42101e-14 -4.97837e-15 0 0 -3.53147e-14 0 0 0 0)
(2.71051e-14 6.31095e-15 0 0 -2.12262e-14 0 0 0 0)
(2.71051e-14 1.59379e-15 0 0 -2.41498e-15 0 0 0 0)
(-2.71051e-14 5.66797e-16 0 5.42101e-14 1.29911e-14 0 0 0 0)
(0 5.7936e-16 0 -2.71051e-14 -4.82245e-15 0 0 0 0)
(2.71051e-14 -1.15201e-14 0 -2.71051e-14 6.75339e-16 0 0 0 0)
(-5.42101e-14 8.54442e-15 0 2.71051e-14 5.19739e-15 0 0 0 0)
(-2.71051e-13 -4.91284e-12 0 -1.35525e-12 1.75768e-11 0 0 0 0)
(5.96311e-13 6.01264e-12 0 3.52366e-13 -3.80025e-12 0 0 0 0)
(-3.25261e-13 -1.28524e-12 0 2.71051e-14 9.22453e-13 0 0 0 0)
(-8.13152e-14 2.95176e-13 0 8.13152e-14 -1.80305e-13 0 0 0 0)
(0 -1.0175e-13 0 1.35525e-13 3.57462e-14 0 0 0 0)
(0 -5.29817e-15 0 1.35525e-13 -1.80697e-14 0 0 0 0)
(0 -1.19162e-14 0 1.35525e-13 -3.63181e-15 0 0 0 0)
(0 -7.1823e-15 0 8.13152e-14 -9.93046e-15 0 0 0 0)
(2.71051e-14 -6.44591e-15 0 8.13152e-14 -2.12039e-14 0 0 0 0)
(0 3.76206e-15 0 8.13152e-14 -2.52836e-14 0 0 0 0)
(0 4.4277e-15 0 8.13152e-14 -2.81184e-14 0 0 0 0)
(5.42101e-14 -9.63196e-15 0 8.13152e-14 -2.31316e-14 0 0 0 0)
(0 -1.43241e-14 0 5.42101e-14 6.36199e-16 0 0 0 0)
(0 8.53705e-15 0 0 3.57793e-15 0 0 0 0)
(0 2.41377e-14 0 -5.42101e-14 2.70515e-15 0 0 0 0)
(0 1.8262e-14 0 -5.42101e-14 -9.64544e-15 0 0 0 0)
(-5.42101e-14 -2.5309e-15 0 -5.42101e-14 -3.6955e-15 0 0 0 0)
(5.42101e-14 -1.25875e-14 0 0 -1.38922e-14 0 0 0 0)
(0 -3.95239e-15 0 0 -8.93989e-16 0 0 0 0)
(0 6.76096e-15 0 -2.71051e-14 8.0507e-15 0 0 0 0)
(-5.42101e-13 9.4391e-12 0 4.87891e-13 -5.52153e-12 0 0 0 0)
(4.60786e-13 -1.14116e-11 0 -2.1684e-13 1.16062e-12 0 0 0 0)
(0 2.48267e-12 0 -2.71051e-14 -3.07793e-13 0 0 0 0)
(1.35525e-13 -6.01722e-13 0 1.89735e-13 1.61478e-14 0 0 0 0)
(0 1.07229e-13 0 8.13152e-14 -2.69991e-14 0 0 0 0)
(2.71051e-14 -3.29145e-14 0 1.0842e-13 1.48501e-15 0 0 0 0)
(0 1.06865e-14 0 1.0842e-13 1.04594e-14 0 0 0 0)
(-2.71051e-14 -6.69442e-15 0 1.35525e-13 1.56462e-14 0 0 0 0)
(0 -1.17666e-14 0 8.13152e-14 2.14028e-14 0 0 0 0)
(-2.71051e-14 -6.80981e-15 0 5.42101e-14 1.86512e-14 0 0 0 0)
(0 1.97596e-15 0 2.71051e-14 1.35265e-14 0 0 0 0)
(-2.71051e-14 1.95073e-14 0 2.71051e-14 1.91037e-14 0 0 0 0)
(-5.42101e-14 1.3492e-14 0 -5.42101e-14 2.49084e-14 0 0 0 0)
(0 -2.90942e-15 0 0 1.59018e-14 0 0 0 0)
(-2.71051e-14 -6.91242e-15 0 0 -4.60768e-15 0 0 0 0)
(2.71051e-14 -4.80686e-15 0 -5.42101e-14 -1.78912e-14 0 0 0 0)
(5.42101e-14 -3.67994e-15 0 -2.71051e-14 -2.38375e-14 0 0 0 0)
(0 3.38087e-15 0 -5.42101e-14 -1.77461e-14 0 0 0 0)
(2.71051e-14 1.04228e-14 0 0 -4.41746e-15 0 0 0 0)
(-2.71051e-14 1.38771e-15 0 0 3.98364e-15 0 0 0 0)
(0 -9.27375e-12 0 5.69206e-13 -4.08381e-12 0 0 0 0)
(1.0842e-13 1.12264e-11 0 -2.71051e-14 8.24138e-13 0 0 0 0)
(2.71051e-14 -2.42972e-12 0 1.35525e-13 -2.24168e-13 0 0 0 0)
(5.42101e-14 5.75971e-13 0 -1.35525e-13 1.60251e-14 0 0 0 0)
(0 -1.16413e-13 0 -2.71051e-14 -1.66439e-14 0 0 0 0)
(-2.71051e-14 3.21604e-14 0 -2.71051e-14 9.16949e-15 0 0 0 0)
(-2.71051e-14 2.24498e-15 0 -2.71051e-14 6.40774e-15 0 0 0 0)
(0 3.76116e-15 0 0 7.94715e-15 0 0 0 0)
(-2.71051e-14 -3.44091e-15 0 2.71051e-14 2.29242e-14 0 0 0 0)
(-5.42101e-14 -4.11429e-15 0 2.71051e-14 3.57886e-14 0 0 0 0)
(0 4.88022e-15 0 2.71051e-14 4.46683e-14 0 0 0 0)
(-5.42101e-14 1.74994e-15 0 2.71051e-14 3.85886e-14 0 0 0 0)
(-5.42101e-14 -1.7526e-14 0 8.13152e-14 4.51292e-15 0 0 0 0)
(5.42101e-14 -2.0979e-14 0 5.42101e-14 -2.37407e-15 0 0 0 0)
(0 -9.65533e-15 0 8.13152e-14 1.37602e-16 0 0 0 0)
(-5.42101e-14 -9.6776e-16 0 5.42101e-14 1.16768e-14 0 0 0 0)
(-2.71051e-14 -2.3858e-15 0 8.13152e-14 3.20572e-15 0 0 0 0)
(2.71051e-14 6.83248e-15 0 0 -5.15301e-15 0 0 0 0)
(5.42101e-14 1.77774e-14 0 0 -1.45213e-14 0 0 0 0)
(0 7.19479e-15 0 -2.71051e-14 -5.36663e-15 0 0 0 0)
(5.42101e-14 6.17943e-12 0 4.06576e-13 1.14817e-11 0 0 0 0)
(-2.71051e-14 -7.552e-12 0 -3.25261e-13 -2.5061e-12 0 0 0 0)
(-8.13152e-14 1.67456e-12 0 -1.89735e-13 5.59721e-13 0 0 0 0)
(-8.13152e-14 -3.94198e-13 0 -1.35525e-13 -1.5029e-13 0 0 0 0)
(1.35525e-13 1.00374e-13 0 -1.0842e-13 -1.05649e-14 0 0 0 0)
(2.71051e-14 -9.86284e-15 0 -1.35525e-13 -3.65521e-14 0 0 0 0)
(2.71051e-14 9.46412e-15 0 -1.35525e-13 -2.96974e-14 0 0 0 0)
(0 9.82207e-15 0 -1.35525e-13 -2.54335e-14 0 0 0 0)
(2.71051e-14 1.60749e-14 0 -1.0842e-13 -7.25343e-15 0 0 0 0)
(0 1.49343e-14 0 -8.13152e-14 1.7413e-15 0 0 0 0)
(-2.71051e-14 4.77595e-15 0 -5.42101e-14 7.75104e-15 0 0 0 0)
(2.71051e-14 -2.06481e-14 0 -2.71051e-14 1.89626e-15 0 0 0 0)
(0 -2.74706e-14 0 2.71051e-14 1.01308e-14 0 0 0 0)
(-2.71051e-14 -7.28474e-15 0 0 1.64415e-14 0 0 0 0)
(0 7.13842e-15 0 0 2.51114e-14 0 0 0 0)
(0 -1.73874e-15 0 5.42101e-14 2.57494e-14 0 0 0 0)
(0 -2.05097e-14 0 2.71051e-14 1.59249e-14 0 0 0 0)
(-5.42101e-14 -1.43462e-14 0 8.13152e-14 1.1105e-14 0 0 0 0)
(0 1.02091e-14 0 0 -4.44048e-15 0 0 0 0)
(0 2.12757e-14 0 0 -6.56951e-15 0 0 0 0)
(5.42101e-14 -2.98129e-13 0 -1.0842e-13 -1.64542e-11 0 0 0 0)
(-4.60786e-13 3.04383e-13 0 2.1684e-13 3.67015e-12 0 0 0 0)
(2.1684e-13 -7.39134e-14 0 8.13152e-14 -8.53656e-13 0 0 0 0)
(1.0842e-13 5.68481e-15 0 8.13152e-14 2.02141e-13 0 0 0 0)
(0 -2.67434e-15 0 5.42101e-14 -4.36347e-14 0 0 0 0)
(0 1.30278e-14 0 0 2.09593e-15 0 0 0 0)
(-5.42101e-14 1.33635e-14 0 0 -9.7764e-15 0 0 0 0)
(5.42101e-14 2.62051e-14 0 0 -1.21514e-14 0 0 0 0)
(0 2.37339e-14 0 -8.13152e-14 -1.37527e-14 0 0 0 0)
(0 1.08902e-14 0 -5.42101e-14 -2.61569e-14 0 0 0 0)
(2.71051e-14 5.03519e-15 0 -5.42101e-14 -3.49294e-14 0 0 0 0)
(5.42101e-14 4.12972e-15 0 -8.13152e-14 -3.27131e-14 0 0 0 0)
(2.71051e-14 -2.98071e-15 0 -5.42101e-14 4.46721e-15 0 0 0 0)
(0 -5.99849e-15 0 -5.42101e-14 1.23013e-14 0 0 0 0)
(-2.71051e-14 -3.47437e-16 0 -2.71051e-14 1.24708e-14 0 0 0 0)
(0 -1.01542e-14 0 -2.71051e-14 4.76479e-15 0 0 0 0)
(0 -1.70302e-14 0 -2.71051e-14 6.3799e-15 0 0 0 0)
(2.71051e-14 -1.35329e-14 0 0 8.77134e-15 0 0 0 0)
(-2.71051e-14 1.02819e-16 0 2.71051e-14 1.1579e-14 0 0 0 0)
(0 1.82048e-14 0 2.71051e-14 -2.86502e-16 0 0 0 0)
(1.35525e-13 -6.60461e-12 0 -1.6263e-12 1.37834e-11 0 0 0 0)
(1.6263e-13 8.04854e-12 0 4.87891e-13 -3.00907e-12 0 0 0 0)
(-1.89735e-13 -1.79345e-12 0 5.42101e-14 7.28911e-13 0 0 0 0)
(-5.42101e-14 4.15823e-13 0 5.42101e-14 -1.47862e-13 0 0 0 0)
(0 -9.9671e-14 0 2.71051e-14 5.07921e-14 0 0 0 0)
(0 2.39955e-14 0 5.42101e-14 3.02862e-15 0 0 0 0)
(-2.71051e-14 -4.78318e-15 0 0 1.46493e-14 0 0 0 0)
(-2.71051e-14 5.84582e-15 0 5.42101e-14 1.90864e-14 0 0 0 0)
(0 2.06937e-15 0 8.13152e-14 2.63133e-15 0 0 0 0)
(0 -6.24243e-15 0 5.42101e-14 -3.4598e-15 0 0 0 0)
(0 -1.78033e-15 0 8.13152e-14 -4.41625e-15 0 0 0 0)
(0 1.87485e-14 0 5.42101e-14 -1.26215e-14 0 0 0 0)
(0 1.75438e-14 0 -5.42101e-14 -1.72408e-14 0 0 0 0)
(0 7.18882e-16 0 0 -1.75853e-15 0 0 0 0)
(2.71051e-14 -3.98042e-16 0 0 7.28596e-15 0 0 0 0)
(0 -7.82967e-15 0 -2.71051e-14 1.49583e-15 0 0 0 0)
(0 -1.65032e-14 0 2.71051e-14 -1.97621e-15 0 0 0 0)
(0 -9.14705e-15 0 0 3.22871e-15 0 0 0 0)
(0 1.15129e-15 0 -2.71051e-14 1.5204e-14 0 0 0 0)
(-2.71051e-14 9.98314e-15 0 0 6.33909e-15 0 0 0 0)
(-1.0571e-12 1.04761e-11 0 2.76472e-12 3.17288e-13 0 0 0 0)
(1.13841e-12 -1.27501e-11 0 -8.67362e-13 -1.41362e-13 0 0 0 0)
(-2.1684e-13 2.7873e-12 0 0 2.72553e-14 0 0 0 0)
(1.35525e-13 -6.72434e-13 0 0 -1.66295e-14 0 0 0 0)
(-5.42101e-14 1.48216e-13 0 -2.71051e-14 8.97326e-15 0 0 0 0)
(0 -2.3115e-14 0 -5.42101e-14 1.1802e-14 0 0 0 0)
(0 2.94213e-14 0 -8.13152e-14 1.17998e-14 0 0 0 0)
(0 1.41872e-14 0 -1.35525e-13 2.46584e-15 0 0 0 0)
(5.42101e-14 1.18776e-15 0 -8.13152e-14 -1.19484e-14 0 0 0 0)
(0 3.8426e-15 0 -8.13152e-14 -4.299e-15 0 0 0 0)
(0 -4.12647e-15 0 -8.13152e-14 5.90707e-15 0 0 0 0)
(-8.13152e-14 -8.69487e-15 0 -8.13152e-14 1.06201e-14 0 0 0 0)
(2.71051e-14 7.88221e-15 0 0 -1.27499e-14 0 0 0 0)
(5.42101e-14 1.85283e-14 0 -5.42101e-14 -5.7796e-15 0 0 0 0)
(0 2.90692e-15 0 0 -9.60791e-15 0 0 0 0)
(0 -1.94164e-14 0 -5.42101e-14 -1.86608e-14 0 0 0 0)
(2.71051e-14 -1.52973e-14 0 0 -8.12905e-15 0 0 0 0)
(-2.71051e-14 3.6473e-15 0 -2.71051e-14 7.97305e-15 0 0 0 0)
(0 3.2132e-15 0 0 5.91214e-15 0 0 0 0)
(0 -3.33833e-15 0 -2.71051e-14 2.86578e-15 0 0 0 0)
(2.03288e-12 -6.42869e-12 0 -1.11131e-12 -1.70104e-11 0 0 0 0)
(-2.57498e-12 7.75851e-12 0 4.33681e-13 3.77238e-12 0 0 0 0)
(6.77626e-13 -1.66872e-12 0 8.13152e-14 -8.72463e-13 0 0 0 0)
(-1.35525e-13 3.97541e-13 0 5.42101e-14 2.36211e-13 0 0 0 0)
(0 -7.12395e-14 0 0 1.36426e-15 0 0 0 0)
(-8.13152e-14 2.6822e-14 0 5.42101e-14 6.06211e-14 0 0 0 0)
(-1.0842e-13 -1.41193e-14 0 8.13152e-14 2.65897e-14 0 0 0 0)
(0 -1.79024e-14 0 5.42101e-14 -1.60481e-14 0 0 0 0)
(5.42101e-14 -4.69546e-15 0 2.71051e-14 -3.23322e-14 0 0 0 0)
(0 1.16131e-14 0 2.71051e-14 -3.01483e-14 0 0 0 0)
(5.42101e-14 1.31387e-14 0 5.42101e-14 -2.6939e-14 0 0 0 0)
(0 9.15091e-17 0 2.71051e-14 -3.39333e-15 0 0 0 0)
(2.71051e-14 1.14409e-15 0 5.42101e-14 3.81401e-15 0 0 0 0)
(-2.71051e-14 3.86087e-15 0 5.42101e-14 -8.8034e-15 0 0 0 0)
(2.71051e-14 -1.32793e-14 0 0 -2.75351e-14 0 0 0 0)
(5.42101e-14 -6.35081e-15 0 5.42101e-14 -1.6524e-14 0 0 0 0)
(0 1.01307e-14 0 -8.13152e-14 9.70452e-15 0 0 0 0)
(0 4.89413e-15 0 0 7.34495e-15 0 0 0 0)
(0 -3.95597e-15 0 0 -1.18734e-14 0 0 0 0)
(0 1.20522e-15 0 2.71051e-14 -6.29873e-15 0 0 0 0)
(-1.78893e-12 -2.76183e-12 0 -3.60497e-12 1.96627e-11 0 0 0 0)
(2.38524e-12 3.38784e-12 0 7.86047e-13 -4.28011e-12 0 0 0 0)
(-5.96311e-13 -7.48874e-13 0 -2.71051e-13 1.00953e-12 0 0 0 0)
(5.42101e-14 2.01392e-13 0 0 -2.13606e-13 0 0 0 0)
(-5.42101e-14 -2.73736e-14 0 -5.42101e-14 6.31537e-14 0 0 0 0)
(0 2.11042e-15 0 0 -3.84404e-15 0 0 0 0)
(5.42101e-14 -4.72479e-14 0 1.0842e-13 3.78888e-15 0 0 0 0)
(0 -4.47347e-14 0 1.35525e-13 9.31016e-15 0 0 0 0)
(-2.71051e-14 -1.29125e-14 0 1.0842e-13 1.80481e-14 0 0 0 0)
(0 9.23587e-15 0 5.42101e-14 6.46297e-15 0 0 0 0)
(2.71051e-14 2.26285e-14 0 0 -8.85623e-15 0 0 0 0)
(-2.71051e-14 2.20581e-14 0 8.13152e-14 -1.39797e-14 0 0 0 0)
(2.71051e-14 2.47214e-15 0 0 -5.13075e-15 0 0 0 0)
(0 -1.28208e-14 0 2.71051e-14 3.61964e-16 0 0 0 0)
(0 -4.81364e-15 0 5.42101e-14 3.58115e-15 0 0 0 0)
(-5.42101e-14 1.78232e-14 0 2.71051e-14 1.58722e-14 0 0 0 0)
(0 8.57158e-15 0 0 1.36849e-14 0 0 0 0)
(0 -1.79306e-14 0 0 -1.7832e-15 0 0 0 0)
(2.71051e-14 -1.04305e-14 0 0 -7.44108e-15 0 0 0 0)
(-2.71051e-14 1.48338e-14 0 0 1.77811e-15 0 0 0 0)
(-7.58942e-13 8.95387e-12 0 5.61075e-12 -4.35622e-13 0 0 0 0)
(7.86047e-13 -1.08946e-11 0 -1.46367e-12 1.9324e-14 0 0 0 0)
(-1.6263e-13 2.39779e-12 0 1.35525e-13 -2.38175e-14 0 0 0 0)
(1.35525e-13 -5.48836e-13 0 -1.35525e-13 -3.82306e-14 0 0 0 0)
(0 1.38522e-13 0 -2.71051e-14 -2.50162e-14 0 0 0 0)
(5.42101e-14 -3.25428e-14 0 -5.42101e-14 -3.41182e-14 0 0 0 0)
(0 -9.65109e-16 0 -5.42101e-14 -1.84231e-14 0 0 0 0)
(0 -3.64314e-15 0 -5.42101e-14 8.93864e-15 0 0 0 0)
(-5.42101e-14 -7.54266e-15 0 -5.42101e-14 3.02706e-14 0 0 0 0)
(-5.42101e-14 -1.52913e-14 0 0 2.03037e-14 0 0 0 0)
(5.42101e-14 -7.30397e-15 0 0 5.00491e-15 0 0 0 0)
(0 3.81699e-15 0 0 -1.01437e-14 0 0 0 0)
(0 1.54858e-14 0 -5.42101e-14 -1.01135e-14 0 0 0 0)
(0 1.25728e-14 0 -2.71051e-14 2.54764e-15 0 0 0 0)
(2.71051e-14 2.23102e-15 0 -5.42101e-14 4.67145e-15 0 0 0 0)
(-2.71051e-14 3.75292e-15 0 -8.13152e-14 -6.20981e-15 0 0 0 0)
(0 -7.52475e-15 0 0 -1.30355e-14 0 0 0 0)
(0 -1.62318e-14 0 0 -2.53031e-15 0 0 0 0)
(2.71051e-14 -3.94661e-16 0 0 7.34467e-15 0 0 0 0)
(-2.71051e-14 6.8682e-15 0 0 6.97763e-15 0 0 0 0)
(2.35814e-12 -3.17813e-12 0 -5.69206e-13 -2.01576e-11 0 0 0 0)
(-3.06287e-12 3.79965e-12 0 2.71051e-13 4.43493e-12 0 0 0 0)
(7.31836e-13 -8.06429e-13 0 2.1684e-13 -1.04122e-12 0 0 0 0)
(-1.6263e-13 2.00194e-13 0 8.13152e-14 2.27959e-13 0 0 0 0)
(5.42101e-14 -2.32611e-14 0 1.35525e-13 -6.43871e-14 0 0 0 0)
(0 8.70352e-15 0 8.13152e-14 -6.8637e-15 0 0 0 0)
(0 -4.19112e-15 0 2.71051e-14 -2.20087e-14 0 0 0 0)
(2.71051e-14 3.95895e-15 0 2.71051e-14 -2.1733e-14 0 0 0 0)
(5.42101e-14 -1.54746e-15 0 2.71051e-14 -1.42281e-14 0 0 0 0)
(2.71051e-14 -1.60298e-14 0 5.42101e-14 -2.67675e-15 0 0 0 0)
(-2.71051e-14 -7.81882e-15 0 2.71051e-14 7.75579e-15 0 0 0 0)
(0 6.93969e-15 0 -2.71051e-14 8.9733e-15 0 0 0 0)
(-5.42101e-14 1.51634e-14 0 5.42101e-14 8.02432e-15 0 0 0 0)
(0 1.96418e-15 0 0 -7.99955e-15 0 0 0 0)
(-2.71051e-14 -1.35711e-14 0 0 -1.31467e-14 0 0 0 0)
(2.71051e-14 1.16254e-16 0 0 -1.79404e-14 0 0 0 0)
(0 1.22511e-14 0 5.42101e-14 -1.60076e-14 0 0 0 0)
(5.42101e-14 2.44957e-15 0 0 1.43007e-15 0 0 0 0)
(0 -9.22536e-16 0 0 3.99001e-15 0 0 0 0)
(0 5.11529e-16 0 -2.71051e-14 -1.58984e-15 0 0 0 0)
(-1.02999e-12 -6.76875e-12 0 -1.70762e-12 1.26824e-11 0 0 0 0)
(1.51788e-12 8.2217e-12 0 4.06576e-13 -2.73548e-12 0 0 0 0)
(-3.52366e-13 -1.80919e-12 0 -1.6263e-13 6.61009e-13 0 0 0 0)
(2.71051e-14 4.28e-13 0 0 -1.19861e-13 0 0 0 0)
(-2.71051e-14 -9.63005e-14 0 -5.42101e-14 3.28155e-14 0 0 0 0)
(0 9.8356e-15 0 -2.71051e-14 -2.99866e-16 0 0 0 0)
(0 -1.58344e-14 0 -2.71051e-14 1.42764e-14 0 0 0 0)
(-5.42101e-14 4.13741e-15 0 -2.71051e-14 1.97256e-14 0 0 0 0)
(-2.71051e-14 1.15136e-14 0 -2.71051e-14 6.18002e-15 0 0 0 0)
(0 6.69264e-15 0 -5.42101e-14 9.75952e-15 0 0 0 0)
(-2.71051e-14 4.34608e-15 0 -2.71051e-14 1.55172e-14 0 0 0 0)
(0 4.08551e-15 0 0 1.32323e-14 0 0 0 0)
(0 -1.48705e-15 0 0 4.492e-15 0 0 0 0)
(0 -8.59823e-15 0 0 -4.44128e-16 0 0 0 0)
(0 -7.70988e-15 0 0 1.11261e-14 0 0 0 0)
(-2.71051e-14 8.92002e-16 0 5.42101e-14 2.08368e-14 0 0 0 0)
(0 1.18458e-14 0 0 1.01178e-14 0 0 0 0)
(0 3.76577e-15 0 0 -3.26e-15 0 0 0 0)
(0 -3.41457e-15 0 0 3.90246e-15 0 0 0 0)
(0 4.46804e-15 0 0 1.07711e-15 0 0 0 0)
)
;

boundaryField
{
    movingWall
    {
        type            extrapolatedCalculated;
        value           nonuniform List<tensor> 
20
(
(-1.02999e-12 -6.76875e-12 0 5.77316e-12 3.46923e-11 0 0 0 0)
(1.51788e-12 8.2217e-12 0 -1.73195e-12 -7.6173e-12 0 0 0 0)
(-3.52366e-13 -1.80919e-12 0 -2.66454e-13 1.8055e-12 0 0 0 0)
(2.71051e-14 4.28e-13 0 -2.66454e-13 -3.80545e-13 0 0 0 0)
(-2.71051e-14 -9.63005e-14 0 -3.10862e-13 9.34963e-14 0 0 0 0)
(0 9.8356e-15 0 -2.66454e-13 4.6568e-15 0 0 0 0)
(0 -1.58344e-14 0 -2.66454e-13 5.41539e-14 0 0 0 0)
(-5.42101e-14 4.13741e-15 0 -2.22045e-13 6.79944e-14 0 0 0 0)
(-2.71051e-14 1.15136e-14 0 -1.77636e-13 3.76042e-14 0 0 0 0)
(0 6.69264e-15 0 -8.88178e-14 2.194e-14 0 0 0 0)
(-2.71051e-14 4.34608e-15 0 -8.88178e-14 1.08337e-14 0 0 0 0)
(0 4.08551e-15 0 0 4.55573e-15 0 0 0 0)
(0 -1.48705e-15 0 -8.88178e-14 -5.50835e-15 0 0 0 0)
(0 -8.59823e-15 0 -4.44089e-14 1.05039e-14 0 0 0 0)
(0 -7.70988e-15 0 -4.44089e-14 2.88846e-14 0 0 0 0)
(-2.71051e-14 8.92002e-16 0 -4.44089e-14 4.13434e-14 0 0 0 0)
(0 1.18458e-14 0 0 2.53166e-14 0 0 0 0)
(0 3.76577e-15 0 0 -6.03959e-15 0 0 0 0)
(0 -3.41457e-15 0 0 1.02535e-14 0 0 0 0)
(0 4.46804e-15 0 0 7.61868e-15 0 0 0 0)
)
;
    }
    fixedWalls
    {
        type            extrapolatedCalculated;
        value           nonuniform List<tensor> 
60
(
(-7.10543e-12 5.52895e-11 0 1.35525e-12 1.477e-11 0 0 0 0)
(1.25677e-11 3.79068e-12 0 1.00289e-12 -2.65771e-11 0 0 0 0)
(-3.19744e-12 -5.10188e-11 0 -4.74338e-12 9.11671e-12 0 0 0 0)
(-6.39488e-12 4.02575e-11 0 2.90024e-12 1.19687e-11 0 0 0 0)
(8.43769e-12 -3.14403e-12 0 0 -2.00336e-11 0 0 0 0)
(-6.39488e-12 -3.98768e-11 0 -1.68051e-12 1.49424e-11 0 0 0 0)
(1.82077e-12 5.66255e-11 0 2.43945e-12 4.43493e-12 0 0 0 0)
(3.19744e-12 -2.21371e-11 0 -1.02999e-12 -2.04632e-11 0 0 0 0)
(-2.22045e-12 -2.52273e-11 0 -1.35525e-12 1.75768e-11 0 0 0 0)
(-2.22045e-12 4.81701e-11 0 4.87891e-13 -5.52153e-12 0 0 0 0)
(-2.66454e-13 -4.73135e-11 0 5.69206e-13 -4.08381e-12 0 0 0 0)
(1.77636e-13 3.18349e-11 0 4.06576e-13 1.14817e-11 0 0 0 0)
(1.24345e-12 -1.3866e-12 0 -1.0842e-13 -1.64542e-11 0 0 0 0)
(-2.66454e-13 -3.39819e-11 0 -1.6263e-12 1.37834e-11 0 0 0 0)
(-5.15143e-12 5.37468e-11 0 2.76472e-12 3.17288e-13 0 0 0 0)
(1.07025e-11 -3.27128e-11 0 -1.11131e-12 -1.70104e-11 0 0 0 0)
(-9.68114e-12 -1.42946e-11 0 -3.60497e-12 1.96627e-11 0 0 0 0)
(-3.55271e-12 4.59379e-11 0 5.61075e-12 -4.35622e-13 0 0 0 0)
(1.26565e-11 -1.60371e-11 0 -5.69206e-13 -2.01576e-11 0 0 0 0)
(-5.77316e-12 -3.46923e-11 0 -1.70762e-12 1.26824e-11 0 0 0 0)
(8.88178e-14 2.44562e-15 0 -5.42101e-14 -9.11731e-15 0 0 0 0)
(8.88178e-14 3.40236e-14 0 0 -1.22441e-14 0 0 0 0)
(8.88178e-14 5.14218e-14 0 5.42101e-14 2.4882e-15 0 0 0 0)
(-4.44089e-14 2.40708e-14 0 2.71051e-14 8.34333e-15 0 0 0 0)
(-4.44089e-14 1.80485e-14 0 2.71051e-14 -2.25065e-16 0 0 0 0)
(-8.88178e-14 2.49711e-14 0 -2.71051e-14 -4.28981e-15 0 0 0 0)
(0 3.52078e-14 0 0 -1.11352e-15 0 0 0 0)
(-8.88178e-14 2.94252e-14 0 2.71051e-14 5.19739e-15 0 0 0 0)
(-4.44089e-14 1.44182e-14 0 -2.71051e-14 8.0507e-15 0 0 0 0)
(-4.44089e-14 -2.77766e-15 0 0 3.98364e-15 0 0 0 0)
(-4.44089e-14 -1.51633e-15 0 -2.71051e-14 -5.36663e-15 0 0 0 0)
(0 1.86889e-14 0 0 -6.56951e-15 0 0 0 0)
(0 2.47617e-14 0 2.71051e-14 -2.86502e-16 0 0 0 0)
(-4.44089e-14 1.98349e-14 0 0 6.33909e-15 0 0 0 0)
(0 -5.94664e-16 0 -2.71051e-14 2.86578e-15 0 0 0 0)
(0 8.37174e-15 0 2.71051e-14 -6.29873e-15 0 0 0 0)
(-4.44089e-14 2.46003e-14 0 0 1.77811e-15 0 0 0 0)
(-8.88178e-14 1.25932e-15 0 0 6.97763e-15 0 0 0 0)
(0 -3.31025e-15 0 -2.71051e-14 -1.58984e-15 0 0 0 0)
(0 7.61868e-15 0 0 1.07711e-15 0 0 0 0)
(-1.24683e-12 1.07719e-11 0 -7.10543e-12 5.52895e-11 0 0 0 0)
(1.81604e-12 -1.31181e-11 0 2.22045e-12 -1.22019e-11 0 0 0 0)
(-4.33681e-13 2.89455e-12 0 8.88178e-14 2.81721e-12 0 0 0 0)
(5.42101e-14 -6.55458e-13 0 3.9968e-13 -6.2369e-13 0 0 0 0)
(-5.42101e-14 1.62153e-13 0 3.10862e-13 1.95383e-13 0 0 0 0)
(-2.71051e-14 -4.11817e-14 0 2.66454e-13 2.49223e-14 0 0 0 0)
(0 -2.42978e-15 0 1.77636e-13 3.06558e-14 0 0 0 0)
(0 2.03812e-15 0 2.22045e-13 1.52032e-14 0 0 0 0)
(-2.71051e-14 9.76267e-15 0 1.77636e-13 3.88083e-14 0 0 0 0)
(-2.71051e-14 -1.38032e-15 0 1.77636e-13 5.42539e-14 0 0 0 0)
(0 -8.8811e-15 0 8.88178e-14 3.3287e-14 0 0 0 0)
(0 -3.11977e-15 0 8.88178e-14 1.87295e-14 0 0 0 0)
(0 3.10435e-15 0 8.88178e-14 2.0808e-14 0 0 0 0)
(0 7.81289e-15 0 1.33227e-13 3.11469e-14 0 0 0 0)
(-5.42101e-14 -1.98015e-15 0 4.44089e-14 5.20595e-14 0 0 0 0)
(-5.42101e-14 -8.22565e-15 0 -8.88178e-14 2.32263e-14 0 0 0 0)
(5.42101e-14 -2.83045e-15 0 0 1.91569e-14 0 0 0 0)
(-5.42101e-14 -9.25557e-15 0 -8.88178e-14 1.19045e-14 0 0 0 0)
(0 -3.58754e-15 0 0 -1.78653e-14 0 0 0 0)
(5.42101e-14 5.07774e-15 0 -8.88178e-14 -2.44562e-15 0 0 0 0)
)
;
    }
    frontAndBack
    {
        type            empty;
    }
}


// ************************************************************************* //
