/*--------------------------------*- C++ -*----------------------------------*\
| =========                 |                                                 |
| \\      /  F ield         | OpenFOAM: The Open Source CFD Toolbox           |
|  \\    /   O peration     | Version:  2506                                  |
|   \\  /    A nd           | Website:  www.openfoam.com                      |
|    \\/     M anipulation  |                                                 |
\*---------------------------------------------------------------------------*/
FoamFile
{
    version     2.0;
    format      ascii;
    arch        "LSB;label=32;scalar=64";
    class       volVectorField;
    location    "6.75";
    object      gradPhi;
}
// * * * * * * * * * * * * * * * * * * * * * * * * * * * * * * * * * * * * * //

dimensions      [0 2 -1 0 0 0 0];

internalField   nonuniform List<vector> 
400
(
(-0.02 9.50231e-17 0)
(1.35658e-16 -1.35607e-16 0)
(-3.63959e-17 3.72362e-17 0)
(4.96308e-18 -5.87438e-18 0)
(-1.65436e-18 3.4733e-18 0)
(-1.65436e-18 9.33907e-19 0)
(0 2.53095e-19 0)
(0 -9.08629e-20 0)
(-1.65436e-18 5.07417e-19 0)
(-1.65436e-18 1.16689e-18 0)
(0 6.84002e-19 0)
(0 1.74503e-19 0)
(0 2.0821e-19 0)
(-1.65436e-18 3.08548e-19 0)
(0 1.8211e-18 0)
(-1.65436e-18 9.95806e-19 0)
(0 4.15651e-20 0)
(0 2.26375e-19 0)
(1.65436e-18 -1.09446e-18 0)
(0 -4.29468e-21 0)
(-0.02 -1.74957e-16 0)
(-2.38228e-16 2.3872e-16 0)
(6.45201e-17 -6.56428e-17 0)
(-1.15805e-17 1.18351e-17 0)
(3.30872e-18 -3.48963e-18 0)
(0 1.0559e-19 0)
(0 6.22008e-20 0)
(-1.65436e-18 1.3459e-18 0)
(0 1.98599e-19 0)
(1.65436e-18 -1.40782e-18 0)
(3.30872e-18 -2.10513e-18 0)
(0 -6.51902e-19 0)
(0 6.20222e-19 0)
(-1.65436e-18 9.78615e-19 0)
(1.65436e-18 -9.74752e-19 0)
(1.65436e-18 -9.03605e-19 0)
(0 -4.13697e-19 0)
(0 -1.09435e-18 0)
(0 -7.5188e-19 0)
(1.65436e-18 -1.9148e-18 0)
(-0.02 5.26326e-17 0)
(6.78288e-17 -6.82867e-17 0)
(-2.15067e-17 2.14246e-17 0)
(4.96308e-18 -5.52865e-18 0)
(4.96308e-18 -2.89103e-18 0)
(1.65436e-18 -2.87916e-18 0)
(1.65436e-18 -1.63277e-18 0)
(0 -7.20668e-19 0)
(-1.65436e-18 1.57064e-18 0)
(0 9.75327e-19 0)
(0 9.95486e-19 0)
(-1.65436e-18 1.04669e-18 0)
(0 7.73458e-19 0)
(0 3.25091e-19 0)
(0 -5.79262e-19 0)
(0 6.32584e-20 0)
(0 4.80562e-19 0)
(-1.65436e-18 6.8784e-19 0)
(-1.65436e-18 1.5027e-18 0)
(0 1.07505e-18 0)
(-0.02 8.41081e-17 0)
(1.09188e-16 -1.08841e-16 0)
(-3.14329e-17 3.08937e-17 0)
(3.30872e-18 -3.58615e-18 0)
(-3.30872e-18 4.09023e-18 0)
(-1.65436e-18 1.89099e-18 0)
(-1.65436e-18 2.58056e-18 0)
(0 -6.1737e-20 0)
(1.65436e-18 -3.09705e-18 0)
(3.30872e-18 -2.27494e-18 0)
(0 -8.6919e-19 0)
(1.65436e-18 -1.47395e-18 0)
(1.65436e-18 -2.22021e-18 0)
(1.65436e-18 -1.59202e-18 0)
(0 -4.591e-19 0)
(0 -4.84346e-21 0)
(0 6.74883e-19 0)
(-1.65436e-18 -1.35597e-19 0)
(0 -6.45935e-19 0)
(0 5.96047e-19 0)
(-0.02 -1.22999e-16 0)
(-1.63782e-16 1.61932e-16 0)
(5.12852e-17 -5.04365e-17 0)
(-8.27181e-18 8.10878e-18 0)
(1.65436e-18 -7.39053e-19 0)
(-1.65436e-18 2.53676e-18 0)
(-1.65436e-18 7.14428e-19 0)
(0 2.00624e-19 0)
(0 -6.02636e-19 0)
(0 3.67441e-19 0)
(-3.30872e-18 1.7362e-18 0)
(0 4.26748e-19 0)
(0 -4.21224e-19 0)
(1.65436e-18 -4.06094e-19 0)
(-1.65436e-18 3.19548e-19 0)
(0 1.26802e-19 0)
(1.65436e-18 -7.84419e-19 0)
(-1.65436e-18 6.7155e-19 0)
(0 9.37453e-19 0)
(0 -4.58396e-19 0)
(-0.02 9.69212e-17 0)
(1.30695e-16 -1.32129e-16 0)
(-3.80503e-17 3.79977e-17 0)
(8.27181e-18 -7.00192e-18 0)
(0 1.79991e-19 0)
(1.65436e-18 -3.26488e-18 0)
(3.30872e-18 -2.05539e-18 0)
(0 -4.83314e-20 0)
(-4.96308e-18 2.4796e-18 0)
(0 1.99911e-18 0)
(-1.65436e-18 6.00499e-19 0)
(0 9.97218e-19 0)
(-1.65436e-18 1.8681e-18 0)
(-1.65436e-18 5.39791e-19 0)
(0 7.2517e-20 0)
(1.65436e-18 -9.01203e-19 0)
(0 1.66969e-20 0)
(-1.65436e-18 9.51147e-19 0)
(0 -6.20113e-20 0)
(0 2.79843e-19 0)
(-0.02 3.963e-18 0)
(1.48893e-17 -1.39542e-17 0)
(-8.27181e-18 8.65044e-18 0)
(1.65436e-18 -2.06443e-18 0)
(0 1.8252e-20 0)
(-1.65436e-18 4.45692e-19 0)
(0 2.12865e-19 0)
(0 3.50755e-19 0)
(0 9.08637e-19 0)
(0 9.51229e-19 0)
(0 -2.46571e-19 0)
(0 -2.56877e-19 0)
(0 -1.2146e-19 0)
(-1.65436e-18 1.19867e-18 0)
(-1.65436e-18 4.88162e-19 0)
(0 1.8457e-18 0)
(-1.65436e-18 -2.89313e-19 0)
(3.30872e-18 -1.19838e-18 0)
(-1.65436e-18 -3.80958e-19 0)
(1.65436e-18 -9.27249e-19 0)
(-0.02 -9.1812e-17 0)
(-1.38966e-16 1.38711e-16 0)
(4.96308e-17 -4.89101e-17 0)
(-9.92617e-18 1.01732e-17 0)
(0 6.47446e-20 0)
(-1.65436e-18 7.45293e-19 0)
(0 -2.448e-19 0)
(1.65436e-18 -7.53206e-19 0)
(1.65436e-18 -2.16562e-18 0)
(3.30872e-18 -2.28139e-18 0)
(0 -6.48308e-19 0)
(-1.65436e-18 6.36817e-19 0)
(1.65436e-18 -1.76917e-18 0)
(1.65436e-18 -3.14926e-18 0)
(3.30872e-18 -1.39337e-18 0)
(1.65436e-18 -1.32758e-18 0)
(0 3.48101e-19 0)
(-1.65436e-18 1.68635e-19 0)
(0 4.5316e-19 0)
(-1.65436e-18 1.29703e-18 0)
(-0.02 6.83878e-17 0)
(1.05879e-16 -1.05583e-16 0)
(-4.46678e-17 4.48361e-17 0)
(4.96308e-18 -4.31729e-18 0)
(0 3.74958e-19 0)
(0 -5.17646e-19 0)
(0 -2.49612e-19 0)
(0 -1.05162e-18 0)
(0 -1.17222e-18 0)
(0 -2.41904e-19 0)
(1.65436e-18 -7.26699e-19 0)
(1.65436e-18 -2.01188e-18 0)
(0 9.71473e-20 0)
(0 7.57359e-19 0)
(0 8.21017e-21 0)
(0 1.36241e-19 0)
(-1.65436e-18 8.73772e-19 0)
(1.65436e-18 -7.1207e-19 0)
(0 -3.96659e-19 0)
(0 -5.52022e-19 0)
(-0.02 -1.90551e-18 0)
(-1.65436e-17 1.70549e-17 0)
(1.48893e-17 -1.39913e-17 0)
(1.65436e-18 -2.12243e-18 0)
(0 -1.34184e-18 0)
(1.65436e-18 -9.27856e-19 0)
(0 3.37459e-19 0)
(-1.65436e-18 1.92144e-18 0)
(0 1.58223e-18 0)
(-1.65436e-18 -1.12014e-19 0)
(1.65436e-18 -5.75366e-19 0)
(-1.65436e-18 6.06698e-19 0)
(-3.30872e-18 1.94354e-18 0)
(-1.65436e-18 1.10242e-18 0)
(0 1.24586e-19 0)
(3.30872e-18 -1.41363e-18 0)
(1.65436e-18 -2.70216e-18 0)
(1.65436e-18 -8.54909e-19 0)
(0 3.78354e-19 0)
(-1.65436e-18 1.33789e-18 0)
(-0.02 -2.11271e-17 0)
(-2.31611e-17 2.25204e-17 0)
(1.15805e-17 -1.12013e-17 0)
(0 3.80104e-20 0)
(0 5.29672e-19 0)
(-3.30872e-18 1.66754e-18 0)
(0 5.50171e-19 0)
(0 -8.94399e-19 0)
(-1.65436e-18 8.80176e-19 0)
(0 2.42243e-18 0)
(-3.30872e-18 2.70149e-18 0)
(-3.30872e-18 2.91469e-18 0)
(0 -7.57157e-19 0)
(0 -5.92015e-19 0)
(1.65436e-18 1.98952e-19 0)
(-3.30872e-18 1.31093e-18 0)
(0 1.16065e-18 0)
(0 -9.8646e-19 0)
(1.65436e-18 -1.6739e-18 0)
(1.65436e-18 -1.40472e-18 0)
(-0.02 4.16644e-17 0)
(5.79026e-17 -5.88683e-17 0)
(-2.64698e-17 2.64198e-17 0)
(4.96308e-18 -4.06666e-18 0)
(1.65436e-18 -2.60485e-18 0)
(3.30872e-18 -2.53577e-18 0)
(1.65436e-18 -1.81215e-18 0)
(1.65436e-18 -1.25404e-19 0)
(0 -6.55155e-19 0)
(0 -1.80216e-19 0)
(0 7.32262e-19 0)
(0 -2.89577e-19 0)
(0 1.6722e-18 0)
(-1.65436e-18 1.08883e-18 0)
(0 2.88542e-19 0)
(0 5.44958e-19 0)
(0 6.21016e-19 0)
(-3.30872e-18 1.9518e-18 0)
(0 3.66575e-19 0)
(0 3.75481e-19 0)
(-0.02 -5.79407e-17 0)
(-9.5953e-17 9.75646e-17 0)
(4.1359e-17 -4.12825e-17 0)
(-8.27181e-18 6.2097e-18 0)
(1.65436e-18 8.4351e-20 0)
(-1.65436e-18 5.61474e-20 0)
(0 -2.9585e-20 0)
(1.65436e-18 -1.86484e-18 0)
(0 1.57056e-19 0)
(0 -8.49735e-19 0)
(3.30872e-18 -1.97462e-18 0)
(3.30872e-18 -2.10622e-18 0)
(0 -1.14089e-18 0)
(0 3.55734e-19 0)
(-1.65436e-18 1.79964e-18 0)
(0 7.41013e-19 0)
(0 1.2717e-19 0)
(1.65436e-18 -3.33279e-19 0)
(-1.65436e-18 6.8401e-19 0)
(0 -7.26381e-19 0)
(-0.02 4.468e-17 0)
(7.94093e-17 -7.9774e-17 0)
(-3.63959e-17 3.55733e-17 0)
(3.30872e-18 -4.339e-18 0)
(0 5.05828e-19 0)
(0 7.81639e-19 0)
(0 7.26307e-19 0)
(-1.65436e-18 2.31615e-18 0)
(-1.65436e-18 -4.50105e-19 0)
(1.65436e-18 -5.28367e-19 0)
(0 -1.65013e-19 0)
(1.65436e-18 -6.22553e-19 0)
(0 2.2562e-19 0)
(0 5.49356e-19 0)
(0 -4.47708e-19 0)
(0 -1.28485e-19 0)
(0 3.13385e-19 0)
(0 -9.89182e-20 0)
(0 6.15492e-19 0)
(-1.65436e-18 1.04059e-18 0)
(-0.02 3.40508e-17 0)
(3.30872e-17 -3.25342e-17 0)
(-3.30872e-18 2.26637e-18 0)
(3.30872e-18 -2.38005e-18 0)
(-1.65436e-18 1.56444e-18 0)
(0 -2.70658e-19 0)
(0 -7.22709e-19 0)
(1.65436e-18 -1.15358e-18 0)
(0 -6.9219e-19 0)
(0 -4.20872e-19 0)
(0 4.96363e-19 0)
(0 1.62723e-18 0)
(0 -1.11614e-18 0)
(0 -1.40164e-18 0)
(0 -7.67289e-20 0)
(0 -2.28184e-19 0)
(1.65436e-18 -6.43346e-19 0)
(-1.65436e-18 6.21863e-19 0)
(0 -2.81008e-21 0)
(0 1.63533e-19 0)
(-0.02 -1.30555e-16 0)
(-1.63782e-16 1.65128e-16 0)
(4.30134e-17 -4.42732e-17 0)
(-8.27181e-18 1.1146e-17 0)
(0 4.20428e-20 0)
(-6.61744e-18 3.95322e-18 0)
(-1.65436e-18 4.08269e-18 0)
(-1.65436e-18 3.80097e-19 0)
(3.30872e-18 -1.67693e-18 0)
(0 -1.09342e-18 0)
(1.65436e-18 -1.9973e-18 0)
(1.65436e-18 -1.49232e-18 0)
(-1.65436e-18 1.39126e-19 0)
(0 4.50079e-19 0)
(1.65436e-18 -1.56444e-18 0)
(3.30872e-18 -2.30456e-18 0)
(0 -8.97317e-22 0)
(0 4.67057e-19 0)
(0 -3.39862e-21 0)
(0 -7.35967e-19 0)
(-0.02 1.29501e-16 0)
(1.75362e-16 -1.74139e-16 0)
(-5.12852e-17 5.0352e-17 0)
(8.27181e-18 -8.34541e-18 0)
(-1.65436e-18 2.8742e-18 0)
(0 -7.8405e-19 0)
(1.65436e-18 -2.37814e-18 0)
(0 -3.53096e-19 0)
(0 1.074e-18 0)
(0 -2.77926e-19 0)
(0 -2.56284e-19 0)
(0 2.49602e-19 0)
(0 4.00486e-19 0)
(0 2.35122e-19 0)
(0 4.46161e-19 0)
(-1.65436e-18 1.69662e-18 0)
(-1.65436e-18 1.18614e-18 0)
(0 3.37484e-19 0)
(1.65436e-18 -7.56847e-19 0)
(0 -1.9655e-19 0)
(-0.02 1.78855e-17 0)
(1.32349e-17 -1.29282e-17 0)
(1.65436e-18 -7.35673e-19 0)
(3.30872e-18 -3.67107e-18 0)
(0 -1.13729e-18 0)
(3.30872e-18 -1.71379e-18 0)
(0 -7.92752e-20 0)
(0 9.62059e-19 0)
(-3.30872e-18 2.26658e-18 0)
(-1.65436e-18 2.11138e-18 0)
(-1.65436e-18 8.35109e-19 0)
(3.30872e-18 -9.94704e-19 0)
(0 -1.88844e-18 0)
(0 -9.48042e-19 0)
(1.65436e-18 -2.76226e-19 0)
(-1.65436e-18 -5.04849e-20 0)
(1.65436e-18 -7.4374e-20 0)
(0 -9.91746e-19 0)
(0 3.73417e-19 0)
(-1.65436e-18 1.40367e-18 0)
(-0.02 -1.55092e-16 0)
(-2.05141e-16 2.03298e-16 0)
(5.29396e-17 -5.20417e-17 0)
(-9.92617e-18 1.09929e-17 0)
(1.65436e-18 -3.27185e-18 0)
(0 -4.07851e-20 0)
(0 -5.77782e-19 0)
(1.65436e-18 -1.65114e-18 0)
(3.30872e-18 -2.04051e-18 0)
(1.65436e-18 -1.3138e-18 0)
(-1.65436e-18 -7.95972e-20 0)
(0 4.80857e-19 0)
(-3.30872e-18 1.77896e-18 0)
(0 5.93747e-19 0)
(-1.65436e-18 -1.38645e-19 0)
(3.30872e-18 -1.60501e-18 0)
(1.65436e-18 -2.18064e-18 0)
(-1.65436e-18 7.50795e-19 0)
(0 3.05072e-19 0)
(1.65436e-18 -1.09203e-18 0)
(-0.02 8.7571e-17 0)
(1.24077e-16 -1.22285e-16 0)
(-3.30872e-17 3.28649e-17 0)
(6.61744e-18 -5.20619e-18 0)
(-1.65436e-18 1.67354e-18 0)
(0 -1.82183e-19 0)
(0 2.62437e-19 0)
(-3.30872e-18 1.29187e-18 0)
(-1.65436e-18 9.2749e-19 0)
(0 9.88598e-19 0)
(0 8.6266e-19 0)
(0 7.38926e-19 0)
(0 -2.92371e-19 0)
(0 -3.9429e-19 0)
(0 3.42817e-19 0)
(0 1.40625e-18 0)
(-1.65436e-18 1.24491e-18 0)
(0 -4.28837e-19 0)
(0 1.52626e-19 0)
(0 4.43281e-19 0)
)
;

boundaryField
{
    movingWall
    {
        type            extrapolatedCalculated;
        value           nonuniform List<vector> 
20
(
(-0.02 8.7571e-17 0)
(1.24077e-16 -1.22285e-16 0)
(-3.30872e-17 3.28649e-17 0)
(6.61744e-18 -5.20619e-18 0)
(-1.65436e-18 1.67354e-18 0)
(0 -1.82183e-19 0)
(0 2.62437e-19 0)
(-3.30872e-18 1.29187e-18 0)
(-1.65436e-18 9.2749e-19 0)
(0 9.88598e-19 0)
(0 8.6266e-19 0)
(0 7.38926e-19 0)
(0 -2.92371e-19 0)
(0 -3.9429e-19 0)
(0 3.42817e-19 0)
(0 1.40625e-18 0)
(-1.65436e-18 1.24491e-18 0)
(0 -4.28837e-19 0)
(0 1.52626e-19 0)
(0 4.43281e-19 0)
)
;
    }
    fixedWalls
    {
        type            extrapolatedCalculated;
        value           nonuniform List<vector> 
60
(
(-0.02 9.50231e-17 0)
(-0.02 -1.74957e-16 0)
(-0.02 5.26326e-17 0)
(-0.02 8.41081e-17 0)
(-0.02 -1.22999e-16 0)
(-0.02 9.69212e-17 0)
(-0.02 3.963e-18 0)
(-0.02 -9.1812e-17 0)
(-0.02 6.83878e-17 0)
(-0.02 -1.90551e-18 0)
(-0.02 -2.11271e-17 0)
(-0.02 4.16644e-17 0)
(-0.02 -5.79407e-17 0)
(-0.02 4.468e-17 0)
(-0.02 3.40508e-17 0)
(-0.02 -1.30555e-16 0)
(-0.02 1.29501e-16 0)
(-0.02 1.78855e-17 0)
(-0.02 -1.55092e-16 0)
(-0.02 8.7571e-17 0)
(0 -4.29468e-21 0)
(1.65436e-18 -1.9148e-18 0)
(0 1.07505e-18 0)
(0 5.96047e-19 0)
(0 -4.58396e-19 0)
(0 2.79843e-19 0)
(1.65436e-18 -9.27249e-19 0)
(-1.65436e-18 1.29703e-18 0)
(0 -5.52022e-19 0)
(-1.65436e-18 1.33789e-18 0)
(1.65436e-18 -1.40472e-18 0)
(0 3.75481e-19 0)
(0 -7.26381e-19 0)
(-1.65436e-18 1.04059e-18 0)
(0 1.63533e-19 0)
(0 -7.35967e-19 0)
(0 -1.9655e-19 0)
(-1.65436e-18 1.40367e-18 0)
(1.65436e-18 -1.09203e-18 0)
(0 4.43281e-19 0)
(-0.02 9.50231e-17 0)
(1.35658e-16 -1.35607e-16 0)
(-3.63959e-17 3.72362e-17 0)
(4.96308e-18 -5.87438e-18 0)
(-1.65436e-18 3.4733e-18 0)
(-1.65436e-18 9.33907e-19 0)
(0 2.53095e-19 0)
(0 -9.08629e-20 0)
(-1.65436e-18 5.07417e-19 0)
(-1.65436e-18 1.16689e-18 0)
(0 6.84002e-19 0)
(0 1.74503e-19 0)
(0 2.0821e-19 0)
(-1.65436e-18 3.08548e-19 0)
(0 1.8211e-18 0)
(-1.65436e-18 9.95806e-19 0)
(0 4.15651e-20 0)
(0 2.26375e-19 0)
(1.65436e-18 -1.09446e-18 0)
(0 -4.29468e-21 0)
)
;
    }
    frontAndBack
    {
        type            empty;
    }
}


// ************************************************************************* //
