/*--------------------------------*- C++ -*----------------------------------*\
| =========                 |                                                 |
| \\      /  F ield         | OpenFOAM: The Open Source CFD Toolbox           |
|  \\    /   O peration     | Version:  2506                                  |
|   \\  /    A nd           | Website:  www.openfoam.com                      |
|    \\/     M anipulation  |                                                 |
\*---------------------------------------------------------------------------*/
FoamFile
{
    version     2.0;
    format      ascii;
    arch        "LSB;label=32;scalar=64";
    class       volScalarField;
    location    "6.75";
    object      Lambda2Field;
}
// * * * * * * * * * * * * * * * * * * * * * * * * * * * * * * * * * * * * * //

dimensions      [0 0 -2 0 0 0 0];

internalField   nonuniform List<scalar> 
400
(
1.61532e-23
7.56479e-24
3.44993e-25
0
7.3339e-27
5.33212e-28
0
-9.46795e-29
1.0006e-28
3.41626e-28
4.81445e-28
0
0
0
7.8977e-28
7.76738e-28
1.57632e-28
5.20378e-28
0
0
6.04396e-24
1.0077e-23
5.64044e-25
1.60269e-26
2.09522e-27
1.39507e-27
0
0
0
8.92524e-29
3.02933e-28
0
0
0
6.88284e-29
-1.26222e-27
0
0
5.55473e-29
1.49917e-28
4.75158e-23
1.63725e-23
2.64885e-25
8.42734e-26
-9.10712e-27
2.64404e-27
0
-8.30759e-28
5.74446e-28
-7.75511e-28
-4.21595e-29
5.22959e-31
3.11009e-28
-8.19327e-28
-1.40686e-27
-2.44098e-28
-3.2895e-28
4.85337e-29
1.62432e-28
1.4488e-27
2.4453e-23
9.38077e-24
4.39529e-25
-1.35696e-26
9.65399e-27
1.14163e-27
8.21447e-28
0
2.16941e-27
6.49189e-28
-1.08791e-28
-4.43786e-28
3.85197e-28
4.00733e-28
0
-7.98866e-29
1.37584e-28
0
8.78797e-29
3.58969e-28
2.38699e-24
4.06422e-24
3.47717e-25
4.21095e-27
1.70337e-28
1.16609e-27
-5.42545e-27
-1.02648e-26
-2.75897e-27
1.18351e-27
9.84912e-28
-2.86791e-28
0
4.36779e-28
-2.10077e-28
0
0
1.16885e-28
9.30675e-29
2.44161e-28
1.4517e-23
7.26576e-24
2.75271e-25
0
2.78968e-27
7.34684e-28
5.61473e-28
0
1.91027e-27
5.26627e-28
5.09676e-28
0
4.38656e-28
0
2.46153e-28
2.56709e-29
-9.72328e-28
3.90479e-29
4.40971e-31
0
2.72975e-23
1.0392e-23
-3.47883e-25
7.36708e-26
-2.31241e-26
4.22573e-27
-4.25004e-27
-4.57122e-27
-6.25289e-28
8.66732e-28
1.14525e-27
4.1467e-28
-4.11955e-28
0
0
0
0
3.25948e-29
-3.78672e-28
0
4.67986e-24
2.46313e-24
7.34684e-26
0
2.98187e-27
-3.03247e-29
-1.05101e-28
-3.19679e-28
9.06302e-28
7.95108e-28
4.77271e-30
2.50649e-28
7.04626e-28
1.24713e-27
4.5055e-28
5.83211e-30
1.99495e-28
0
3.12709e-28
2.5861e-28
6.73161e-24
2.47424e-24
7.09579e-26
3.06145e-26
-1.25119e-26
-3.91522e-28
-1.60175e-27
-4.85416e-28
0
3.05912e-28
3.60039e-28
0
-7.76106e-28
0
-1.30119e-27
-8.96952e-28
1.50857e-28
1.92992e-28
0
-1.18442e-28
4.89913e-24
2.68683e-24
0
-9.58009e-26
8.71938e-27
-2.83391e-27
1.15863e-27
-1.72578e-28
-4.98718e-28
0
5.35585e-29
8.93698e-28
0
0
2.12307e-29
5.80676e-28
6.6797e-28
0
1.9514e-29
1.58694e-29
0
0
-2.79037e-25
-7.51199e-26
3.15537e-27
-1.37024e-28
0
0
4.32254e-28
1.1693e-27
1.32279e-28
1.53651e-27
0
0
-7.85106e-28
8.38848e-29
0
2.65535e-29
2.10868e-28
-1.66214e-28
2.51535e-24
2.4571e-24
-4.43562e-27
6.00359e-26
0
2.07135e-27
-4.00693e-28
-6.84275e-28
-1.00816e-27
-1.21135e-27
0
5.63264e-28
-6.41959e-28
2.70324e-28
0
0
-3.02314e-28
0
0
0
3.5262e-26
2.78326e-25
4.10095e-26
1.22172e-26
0
0
9.55779e-29
1.47656e-28
-1.74079e-27
0
4.61726e-28
7.34341e-28
1.81541e-28
3.25179e-28
1.64939e-28
2.7523e-28
4.61605e-28
7.69365e-29
1.3686e-28
4.93442e-28
1.07595e-23
3.95326e-24
0
2.54805e-26
-1.21751e-28
1.3008e-27
2.14601e-28
6.81191e-28
1.68271e-28
-3.26433e-28
-1.25264e-28
1.01636e-27
-6.53803e-28
0
5.30852e-29
2.12224e-28
-4.43414e-28
0
0
4.01841e-29
2.90642e-23
1.10789e-23
7.42853e-28
2.76541e-28
-1.07866e-27
1.25307e-27
-2.25316e-27
-1.91664e-27
4.61826e-29
-2.9398e-28
3.35544e-28
8.19811e-28
1.6256e-28
0
0
1.05256e-27
6.60814e-29
0
0
9.04856e-29
1.12768e-23
9.99524e-24
3.23485e-25
3.99178e-26
0
5.12895e-27
0
-7.1295e-28
9.18103e-28
3.14773e-28
1.43796e-27
2.48036e-30
7.65677e-29
2.86798e-28
7.34684e-28
0
-7.29602e-28
0
0
3.26677e-29
1.31566e-23
8.35239e-24
5.5857e-25
2.93874e-27
4.42266e-27
0
-2.18389e-27
-5.97601e-27
-6.65291e-28
5.00677e-28
7.84328e-29
1.98909e-27
2.63246e-29
-3.47377e-28
-2.48123e-28
7.35028e-28
0
0
5.53697e-29
3.16166e-30
5.04277e-23
1.59466e-23
3.25528e-25
7.58427e-26
-3.12885e-27
2.9282e-27
5.23187e-29
1.97495e-28
1.3252e-27
4.12239e-28
2.50491e-29
0
-7.37203e-28
-3.34295e-28
0
0
0
0
5.39441e-29
4.86873e-29
7.36983e-24
1.04111e-23
3.60718e-25
4.27274e-26
0
7.07728e-28
0
5.7963e-28
1.60496e-28
-1.34294e-28
0
-1.0758e-28
8.86401e-28
0
1.72835e-28
3.2186e-28
6.64132e-28
2.04509e-30
0
-1.13374e-29
1.26193e-23
5.64671e-24
4.18391e-25
7.34684e-28
5.95514e-27
-2.66505e-28
4.29192e-28
2.76956e-28
0
-2.6756e-28
1.22983e-28
0
0
0
0
4.82529e-28
0
0
0
0
)
;

boundaryField
{
    movingWall
    {
        type            calculated;
        value           nonuniform List<scalar> 
20
(
0
0
6.06226e-25
0
3.06709e-26
-2.59904e-27
4.21913e-27
2.02005e-27
-6.31144e-28
-1.1306e-28
0
0
1.32077e-28
3.81838e-28
3.42387e-28
6.95071e-28
0
0
0
0
)
;
    }
    fixedWalls
    {
        type            calculated;
        value           nonuniform List<scalar> 
60
(
1.25418e-22
1.61749e-22
2.52225e-22
1.57651e-22
7.11947e-23
1.07908e-22
1.41451e-22
3.30247e-23
3.91198e-23
2.84321e-23
-1.02536e-23
1.29748e-23
1.6965e-24
5.53359e-23
1.48695e-22
1.50899e-22
1.45256e-22
2.57936e-22
1.69317e-22
9.25706e-23
0
1.49917e-28
2.79378e-27
7.22051e-28
4.89257e-28
0
0
8.24583e-28
0
1.58694e-29
6.9901e-29
0
6.71167e-28
4.01841e-29
1.61184e-29
2.26916e-28
3.16166e-30
4.86873e-29
8.97246e-29
0
0
0
4.45167e-25
0
5.3346e-26
-1.02383e-26
0
4.52554e-28
2.46888e-27
4.89489e-28
0
0
2.75722e-28
1.04089e-27
2.62226e-27
1.27005e-27
3.66988e-28
9.63777e-28
0
0
)
;
    }
    frontAndBack
    {
        type            empty;
    }
}


// ************************************************************************* //
