/*--------------------------------*- C++ -*----------------------------------*\
| =========                 |                                                 |
| \\      /  F ield         | OpenFOAM: The Open Source CFD Toolbox           |
|  \\    /   O peration     | Version:  2506                                  |
|   \\  /    A nd           | Website:  www.openfoam.com                      |
|    \\/     M anipulation  |                                                 |
\*---------------------------------------------------------------------------*/
FoamFile
{
    version     2.0;
    format      ascii;
    arch        "LSB;label=32;scalar=64";
    class       volVectorField;
    location    "6.75";
    object      LambVectorField;
}
// * * * * * * * * * * * * * * * * * * * * * * * * * * * * * * * * * * * * * //

dimensions      [0 1 -2 0 0 0 0];

internalField   nonuniform List<vector> 
400
(
(-1.3016e-24 -9.41665e-12 0)
(-3.90242e-25 1.27928e-11 -0)
(-2.00046e-26 -2.84034e-12 0)
(-1.06427e-27 6.82563e-13 -0)
(-6.59651e-29 -1.35048e-13 0)
(2.56586e-30 4.11817e-14 0)
(1.86217e-31 2.42978e-15 0)
(-2.13789e-30 -5.62482e-14 0)
(-9.47182e-31 -9.76267e-15 0)
(-7.16555e-30 -5.28298e-14 0)
(-3.77217e-30 -4.5329e-14 0)
(1.46079e-31 3.11977e-15 0)
(-1.61488e-31 -3.10435e-15 0)
(-6.08369e-31 -7.81289e-15 0)
(-6.79767e-30 -5.223e-14 0)
(-4.244e-30 -7.30895e-14 0)
(-2.46069e-30 -5.13797e-14 0)
(-1.33791e-30 -4.49545e-14 0)
(-1.60231e-31 3.58754e-15 -0)
(3.62489e-31 -5.92879e-14 -0)
(2.55055e-27 2.69139e-13 0)
(-1.02867e-27 4.80862e-13 -0)
(-1.65406e-28 -2.74618e-13 0)
(-6.74718e-30 -1.04004e-13 0)
(-2.63234e-29 -9.16885e-14 0)
(-4.80122e-30 -2.84756e-14 0)
(4.9642e-31 1.66858e-14 0)
(9.95667e-32 5.68843e-14 0)
(-7.81048e-33 -2.59545e-15 0)
(1.33507e-31 4.81888e-15 0)
(-2.37763e-31 5.26264e-15 -0)
(2.24275e-31 -8.99927e-15 -0)
(-4.78028e-31 -1.06671e-14 0)
(-5.13694e-30 -6.28372e-14 0)
(4.71332e-31 3.59565e-15 0)
(4.44952e-30 9.71651e-14 0)
(-1.81169e-30 6.60821e-14 -0)
(-5.02252e-30 6.88711e-14 -0)
(-4.92813e-30 2.83183e-14 -0)
(2.20375e-30 -2.59085e-14 -0)
(-6.62219e-25 5.19196e-12 -0)
(-3.0472e-25 -1.08082e-11 0)
(-1.67689e-26 2.59795e-12 -0)
(-6.50826e-28 -4.64619e-13 0)
(-1.03997e-28 2.29453e-13 -0)
(-1.53059e-30 1.89888e-14 -0)
(7.46791e-30 -7.39224e-14 -0)
(-9.68118e-30 -8.30874e-14 0)
(-8.76311e-30 -4.66744e-14 0)
(3.37803e-30 8.20683e-14 0)
(-5.02855e-30 5.5361e-14 -0)
(-7.0945e-31 -2.39254e-14 0)
(2.31996e-30 1.56309e-14 0)
(1.32033e-29 9.14387e-14 0)
(5.76673e-30 1.22213e-13 0)
(2.34158e-31 3.61981e-14 0)
(-2.70803e-30 6.19062e-14 -0)
(-6.69382e-31 9.49582e-15 -0)
(-8.05337e-31 5.80623e-15 -0)
(-3.53325e-30 2.74844e-14 -0)
(-5.05048e-25 -5.01817e-12 0)
(-1.89374e-25 8.82464e-12 -0)
(-9.58874e-27 -1.8879e-12 0)
(-6.85244e-28 5.5917e-13 -0)
(-1.40106e-30 -4.75714e-14 0)
(-6.68601e-31 3.21984e-15 -0)
(8.51676e-32 -3.10087e-14 -0)
(-4.15505e-30 -4.05623e-14 0)
(-1.72499e-30 -1.30854e-14 0)
(-8.38215e-31 2.21982e-14 -0)
(5.06831e-30 -5.62172e-14 -0)
(1.69483e-30 -9.58078e-14 -0)
(-2.13696e-30 -3.90167e-14 0)
(-2.56885e-30 -2.53272e-14 0)
(2.6272e-31 7.10213e-15 0)
(-9.1395e-31 -3.00589e-14 0)
(-1.57932e-30 -2.37385e-14 0)
(-3.68749e-32 1.13107e-14 -0)
(-2.65103e-31 5.69168e-15 -0)
(-9.88685e-31 1.64296e-14 -0)
(-4.85954e-27 6.18255e-13 -0)
(-1.18073e-27 -7.03853e-13 0)
(-5.57169e-29 1.99378e-13 -0)
(-4.47901e-30 -1.98315e-14 0)
(9.69841e-30 5.10679e-14 0)
(2.10316e-29 8.17478e-14 0)
(4.06233e-29 2.18893e-13 0)
(-9.81144e-30 2.8603e-13 -0)
(-4.248e-29 1.80563e-13 -0)
(-1.42621e-29 6.67606e-14 -0)
(-6.53997e-30 7.28946e-14 -0)
(-1.43941e-29 1.11216e-13 -0)
(1.01267e-30 -8.60583e-15 -0)
(-8.08005e-31 1.86318e-14 -0)
(1.93602e-30 -5.87739e-14 -0)
(-1.3003e-32 -5.72648e-15 0)
(3.17589e-32 1.30562e-15 0)
(-7.4725e-32 6.92828e-15 -0)
(1.06422e-30 -2.36715e-14 -0)
(-8.16566e-31 1.80971e-14 -0)
(-6.13062e-25 6.14956e-12 -0)
(-1.92164e-25 -8.98327e-12 0)
(-9.83293e-27 1.97432e-12 -0)
(-5.60988e-28 -5.07188e-13 0)
(-1.25007e-29 6.96082e-14 -0)
(-3.89291e-30 -2.80181e-14 0)
(-4.95592e-30 -4.92664e-14 0)
(8.43572e-31 9.4248e-15 0)
(4.86969e-32 7.67336e-15 0)
(-4.44222e-31 -3.4781e-14 0)
(2.17026e-30 2.61144e-14 0)
(8.27659e-31 3.64961e-14 0)
(-7.04095e-32 6.51645e-15 -0)
(-1.2081e-30 2.84349e-14 -0)
(5.62769e-32 -2.33483e-15 -0)
(1.05518e-31 -5.51347e-15 -0)
(-2.90809e-30 -9.37143e-14 0)
(4.2737e-31 4.0759e-15 0)
(-1.62722e-31 1.67281e-14 -0)
(2.14255e-30 -3.43206e-14 -0)
(-1.22785e-24 -8.67346e-12 0)
(-3.86092e-25 1.2686e-11 -0)
(-2.14648e-26 -3.01702e-12 0)
(-9.24914e-28 5.71073e-13 -0)
(-9.8873e-29 -3.09336e-13 0)
(1.60161e-29 -1.0499e-13 -0)
(-2.70359e-30 -1.894e-13 0)
(-3.025e-29 -2.62698e-13 0)
(-2.84331e-29 -1.40896e-13 0)
(-1.7095e-29 -1.01241e-13 0)
(-1.27229e-29 -9.78571e-14 0)
(-6.61282e-30 -1.04596e-13 0)
(-5.68445e-30 -6.19436e-14 0)
(-8.072e-30 -5.74285e-14 0)
(1.08607e-30 8.76202e-15 0)
(3.71435e-30 7.01653e-14 0)
(-4.39418e-33 1.23433e-16 -0)
(1.41546e-30 2.73768e-14 0)
(-1.57398e-30 4.10773e-14 -0)
(1.11201e-30 -1.26337e-14 -0)
(-1.83044e-25 3.30746e-12 -0)
(-5.91778e-26 -4.94455e-12 0)
(-3.31591e-27 1.13728e-12 -0)
(-2.18137e-28 -3.66299e-13 0)
(-5.23647e-32 7.95629e-16 -0)
(-3.99028e-30 -8.77787e-14 0)
(6.69584e-32 -5.67573e-14 -0)
(-4.61672e-30 -6.50878e-14 0)
(-3.30233e-30 -3.06916e-14 0)
(-2.9059e-30 -2.72097e-14 0)
(-2.92567e-30 -2.6929e-14 0)
(-1.8757e-30 -1.78577e-14 0)
(2.13739e-31 1.32175e-14 0)
(-1.35109e-31 4.97837e-15 -0)
(2.12129e-31 -6.31095e-15 -0)
(-5.7329e-32 -1.59379e-15 0)
(-9.48143e-31 5.36433e-14 -0)
(-1.15273e-30 -2.76844e-14 0)
(1.8517e-31 -1.55849e-14 -0)
(-1.36537e-30 1.85606e-14 -0)
(-2.24371e-25 3.55759e-12 -0)
(-7.89038e-26 -5.66028e-12 0)
(-3.86085e-27 1.31235e-12 -0)
(-2.32573e-28 -2.13861e-13 0)
(2.331e-30 2.37275e-13 0)
(9.857e-30 1.40823e-13 0)
(-6.36323e-30 1.47441e-13 -0)
(-4.3511e-30 8.84975e-14 -0)
(-1.00908e-29 8.77611e-14 -0)
(-8.81201e-30 7.75531e-14 -0)
(-5.94802e-30 7.68875e-14 -0)
(-6.30705e-30 9.09471e-14 -0)
(-1.1903e-29 6.85342e-14 -0)
(1.81489e-30 -8.53705e-15 -0)
(6.91883e-30 -7.83478e-14 -0)
(-2.08628e-30 -7.24721e-14 0)
(-4.87393e-30 -5.16792e-14 0)
(4.37834e-32 1.25875e-14 0)
(-1.24753e-31 3.95239e-15 -0)
(1.22072e-30 -3.3866e-14 -0)
(-1.07795e-24 -8.95121e-12 0)
(-2.91448e-25 1.11948e-11 -0)
(-1.58339e-26 -2.50978e-12 0)
(-9.55712e-28 7.91458e-13 -0)
(-7.55784e-30 -2.59143e-14 0)
(-1.91139e-29 1.41335e-13 -0)
(-3.6648e-30 9.77338e-14 -0)
(-4.03532e-30 1.4222e-13 -0)
(-9.72164e-30 9.30817e-14 -0)
(-8.91132e-30 6.10199e-14 -0)
(-4.33578e-30 2.51291e-14 -0)
(-9.59444e-31 7.59776e-15 -0)
(-1.52553e-30 -6.77021e-14 0)
(2.51379e-32 2.90942e-15 0)
(-4.53547e-32 6.91242e-15 -0)
(2.98811e-30 -4.94032e-14 -0)
(1.27971e-30 -2.34251e-14 -0)
(5.60265e-30 -5.7591e-14 -0)
(2.17015e-31 -1.04228e-14 -0)
(-9.63645e-33 -1.38771e-15 0)
(-1.16426e-24 9.84295e-12 -0)
(-2.87483e-25 -1.12535e-11 0)
(-1.54424e-26 2.56524e-12 -0)
(-8.88639e-28 -7.11496e-13 0)
(-2.32349e-29 8.93077e-14 -0)
(-5.02841e-30 -5.92654e-14 0)
(-1.80316e-30 -2.935e-14 0)
(-4.03555e-31 -3.76116e-15 0)
(3.02551e-30 3.0546e-14 0)
(2.27546e-30 3.12193e-14 0)
(1.28693e-30 2.22248e-14 0)
(3.08543e-30 2.53551e-14 0)
(7.45306e-30 9.88412e-14 0)
(-4.02798e-30 7.51891e-14 -0)
(-1.22252e-29 9.09705e-14 -0)
(-8.28356e-30 5.51779e-14 -0)
(-1.20583e-29 8.3701e-14 -0)
(1.18873e-30 -6.83248e-15 -0)
(1.34643e-30 -1.77774e-14 -0)
(-1.30025e-31 -3.42998e-14 0)
(-4.59445e-25 -5.77285e-12 0)
(-1.28584e-25 7.22674e-12 -0)
(-7.58244e-27 -1.8643e-12 0)
(-2.70903e-28 2.58673e-13 -0)
(-2.61427e-29 -2.08794e-13 0)
(5.4718e-30 -1.25662e-13 -0)
(-3.85376e-30 -1.44989e-13 0)
(-7.4269e-30 -1.45347e-13 0)
(-1.5537e-29 -1.24495e-13 0)
(-2.03901e-29 -9.62495e-14 0)
(-1.61706e-29 -5.89861e-14 0)
(-1.67626e-30 -6.45693e-15 0)
(3.6927e-30 5.45757e-14 0)
(-1.10003e-31 7.28474e-15 -0)
(3.70149e-32 -7.13842e-15 -0)
(3.14901e-30 5.59489e-14 0)
(-1.0748e-30 4.76148e-14 -0)
(-1.42357e-29 9.56613e-14 -0)
(1.69507e-30 -1.02091e-14 -0)
(9.94044e-31 -2.12757e-14 -0)
(-6.57624e-28 1.89709e-13 -0)
(-4.24758e-29 -8.75424e-14 0)
(-6.56096e-29 1.55229e-13 -0)
(-1.9205e-29 7.56303e-14 -0)
(-2.08092e-29 5.68845e-14 -0)
(3.65659e-30 -1.30278e-14 -0)
(3.14762e-30 -1.33635e-14 -0)
(3.8532e-30 -2.62051e-14 -0)
(-2.78523e-30 -1.05049e-13 0)
(-5.87851e-30 -6.51003e-14 0)
(-8.02273e-30 -5.92453e-14 0)
(-1.20179e-29 -8.54449e-14 0)
(-9.05288e-30 -5.12294e-14 0)
(-5.34397e-30 -4.82116e-14 0)
(-3.12336e-30 -2.67576e-14 0)
(-1.82001e-30 -1.69509e-14 0)
(-1.52994e-31 -1.00748e-14 0)
(-8.5166e-31 1.35329e-14 -0)
(-3.24414e-30 2.70022e-14 -0)
(-5.50965e-31 8.90028e-15 -0)
(-4.22931e-25 4.97831e-12 -0)
(-1.42962e-25 -7.56065e-12 0)
(-8.25789e-27 1.84766e-12 -0)
(-3.52257e-28 -3.61613e-13 0)
(-3.9445e-29 1.26776e-13 -0)
(-6.82376e-31 3.02146e-14 -0)
(-3.40487e-31 4.78318e-15 -0)
(-3.40562e-30 4.83643e-14 -0)
(-1.0085e-30 7.92458e-14 -0)
(-3.00584e-30 6.04525e-14 -0)
(-6.24467e-30 8.30955e-14 -0)
(-2.39457e-30 3.54616e-14 -0)
(-8.06041e-30 -7.17539e-14 0)
(-7.75761e-32 -7.18882e-16 0)
(4.75752e-32 3.98042e-16 0)
(-2.00332e-30 -1.92754e-14 0)
(1.79781e-30 4.36082e-14 0)
(-5.58886e-31 9.14705e-15 -0)
(1.41972e-30 -2.82563e-14 -0)
(4.95036e-31 -9.98314e-15 -0)
(-1.03616e-24 -7.71143e-12 0)
(-3.51794e-25 1.18827e-11 -0)
(-1.91388e-26 -2.7873e-12 0)
(-1.16502e-27 6.72434e-13 -0)
(-2.4914e-29 -1.75321e-13 0)
(7.78588e-30 -3.10951e-14 -0)
(9.86052e-30 -1.10736e-13 -0)
(-6.56096e-30 -1.49712e-13 0)
(-4.35837e-30 -8.25029e-14 0)
(-4.7434e-30 -8.51578e-14 0)
(-7.04369e-30 -7.71887e-14 0)
(-1.04839e-30 -7.26203e-14 0)
(-3.39267e-32 -7.88221e-15 0)
(-6.78349e-30 -7.27384e-14 0)
(-5.51115e-31 -2.90692e-15 0)
(-4.25624e-30 -3.47937e-14 0)
(-7.00068e-32 1.52973e-14 -0)
(9.42416e-31 -3.07524e-14 -0)
(-1.0249e-31 -3.2132e-15 0)
(-3.5333e-32 -2.37667e-14 0)
(-4.34866e-25 5.31738e-12 -0)
(-1.28148e-25 -7.32483e-12 0)
(-7.34458e-27 1.75004e-12 -0)
(-2.77353e-28 -3.43331e-13 0)
(-1.57729e-29 7.12395e-14 -0)
(2.6138e-30 2.73881e-14 0)
(4.46761e-30 9.54345e-14 0)
(-3.2997e-30 7.21125e-14 -0)
(-4.20437e-30 3.18005e-14 -0)
(-1.4363e-30 1.5492e-14 -0)
(-6.60423e-31 4.10714e-14 -0)
(1.04475e-30 2.70135e-14 0)
(-8.04735e-31 5.3066e-14 -0)
(2.5233e-30 5.03492e-14 0)
(3.11317e-31 1.32793e-14 0)
(-5.00697e-30 6.05609e-14 -0)
(3.6637e-30 -9.14459e-14 -0)
(-9.11795e-32 -4.89413e-15 0)
(3.51176e-32 3.95597e-15 0)
(-5.42067e-31 2.58998e-14 -0)
(3.0131e-26 -8.43141e-13 -0)
(-2.11222e-26 -2.6018e-12 0)
(-8.8788e-28 4.77823e-13 -0)
(-1.26788e-28 -2.01392e-13 0)
(-4.17973e-30 -2.68365e-14 0)
(-7.50935e-31 -2.11042e-15 0)
(2.75302e-29 1.55668e-13 0)
(-2.10286e-29 1.8026e-13 -0)
(-3.282e-29 1.21333e-13 -0)
(-1.10539e-29 4.49742e-14 -0)
(4.03097e-30 -2.26285e-14 -0)
(-1.15532e-30 5.9257e-14 -0)
(-1.04928e-31 -2.47214e-15 0)
(2.086e-31 3.99258e-14 0)
(-5.06209e-30 5.90237e-14 -0)
(-3.98298e-31 9.28181e-15 -0)
(-7.92604e-31 -8.57158e-15 0)
(7.67506e-31 1.79306e-14 0)
(-9.05758e-31 1.04305e-14 -0)
(9.12291e-31 -1.48338e-14 -0)
(-3.83941e-25 -3.34313e-12 0)
(-2.38661e-25 9.43096e-12 -0)
(-1.33439e-26 -2.26226e-12 0)
(-5.48971e-28 4.13311e-13 -0)
(-6.79288e-29 -1.65627e-13 0)
(-1.23493e-30 -2.16673e-14 0)
(-4.50997e-30 -5.3245e-14 0)
(-2.39404e-30 -5.0567e-14 0)
(-2.25267e-30 -4.66675e-14 0)
(-4.2942e-31 1.52913e-14 -0)
(-7.64303e-31 7.30397e-15 -0)
(3.85983e-31 -3.81699e-15 -0)
(4.63285e-30 -6.96959e-14 -0)
(-2.13211e-30 -3.96778e-14 0)
(-3.34444e-30 -5.64411e-14 0)
(-6.46907e-30 -8.50681e-14 0)
(7.2828e-31 7.52475e-15 0)
(1.29582e-32 1.62318e-14 0)
(-2.58636e-32 3.94661e-16 -0)
(2.16231e-32 -6.8682e-15 -0)
(-1.04599e-25 2.60892e-12 -0)
(-2.93281e-26 -3.5286e-12 0)
(-2.14513e-27 1.02327e-12 -0)
(-2.93929e-29 -1.18879e-13 0)
(-1.49917e-29 1.58786e-13 -0)
(1.06308e-30 7.26116e-14 0)
(-2.30937e-31 3.12962e-14 -0)
(-6.31206e-31 2.31461e-14 -0)
(9.22909e-31 2.86525e-14 0)
(-3.00241e-30 7.02399e-14 -0)
(-4.47332e-30 3.49239e-14 -0)
(4.11714e-30 -3.40447e-14 -0)
(-2.29169e-30 3.90467e-14 -0)
(-6.03026e-32 -1.96418e-15 0)
(-5.29939e-31 1.35711e-14 -0)
(1.22078e-32 -1.16254e-16 -0)
(-1.58968e-30 4.1959e-14 -0)
(-4.28698e-32 -2.44957e-15 0)
(-1.23536e-32 9.22536e-16 -0)
(-2.28545e-31 -2.76166e-14 0)
(-4.38956e-25 5.06113e-12 -0)
(-1.48825e-25 -7.81513e-12 0)
(-7.43214e-27 1.64656e-12 -0)
(-4.07183e-28 -4.28e-13 0)
(-9.83823e-30 4.20904e-14 -0)
(4.30063e-31 -3.69407e-14 -0)
(1.52588e-30 -1.12707e-14 -0)
(5.31078e-30 -3.12425e-14 -0)
(3.63056e-30 -3.86186e-14 -0)
(3.34052e-30 -6.09027e-14 -0)
(8.51831e-31 -3.14511e-14 -0)
(4.65313e-32 -4.08551e-15 -0)
(2.0478e-32 1.48705e-15 0)
(-2.25788e-31 8.59823e-15 -0)
(-5.56741e-31 7.70988e-15 -0)
(-5.51089e-30 5.33181e-14 -0)
(7.49735e-31 -1.18458e-14 -0)
(-5.68593e-32 -3.76577e-15 0)
(-8.7528e-32 3.41457e-15 -0)
(8.51014e-32 -4.46804e-15 -0)
)
;

boundaryField
{
    movingWall
    {
        type            calculated;
        value           nonuniform List<vector> 
20
(
(0 1.25419e-11 -0)
(0 -9.95365e-12 -0)
(0 1.54274e-12 -0)
(0 -6.94454e-13 -0)
(0 -2.14562e-13 -0)
(0 -2.76289e-13 -0)
(0 -2.50619e-13 -0)
(0 -2.26182e-13 -0)
(0 -1.89149e-13 -0)
(0 -9.55105e-14 -0)
(0 -9.31639e-14 -0)
(0 -4.08551e-15 -0)
(0 -8.73308e-14 -0)
(0 -3.58107e-14 -0)
(0 -3.6699e-14 -0)
(0 -4.53009e-14 -0)
(0 -1.18458e-14 -0)
(0 -3.76577e-15 -0)
(0 3.41457e-15 -0)
(0 -4.46804e-15 -0)
)
;
    }
    fixedWalls
    {
        type            calculated;
        value           nonuniform List<vector> 
60
(
(0 -5.39343e-11 -0)
(0 -2.78779e-12 -0)
(0 4.62754e-11 -0)
(0 -3.73573e-11 -0)
(0 3.14403e-12 -0)
(0 3.81963e-11 -0)
(0 -5.4186e-11 -0)
(0 2.11071e-11 -0)
(0 2.38721e-11 -0)
(0 -4.76822e-11 -0)
(0 4.78827e-11 -0)
(0 -3.14283e-11 -0)
(0 1.27818e-12 -0)
(0 3.23556e-11 -0)
(0 -5.09821e-11 -0)
(0 3.16015e-11 -0)
(0 1.06897e-11 -0)
(0 -4.03272e-11 -0)
(0 1.54679e-11 -0)
(0 3.29847e-11 -0)
(0 -5.66557e-14 -0)
(0 -3.40236e-14 -0)
(0 2.78826e-15 -0)
(0 3.03425e-15 -0)
(0 9.05652e-15 -0)
(0 -5.20761e-14 -0)
(0 -3.52078e-14 -0)
(0 -2.3201e-15 -0)
(0 -4.15233e-14 -0)
(0 2.77766e-15 -0)
(0 -2.55887e-14 -0)
(0 -1.86889e-14 -0)
(0 2.34335e-15 -0)
(0 -1.98349e-14 -0)
(0 -2.65104e-14 -0)
(0 1.87333e-14 -0)
(0 -2.46003e-14 -0)
(0 -1.25932e-15 -0)
(0 -2.37948e-14 -0)
(0 -7.61868e-15 -0)
(0 -1.78773e-11 -0)
(0 1.53385e-11 -0)
(0 -2.80574e-12 -0)
(0 1.05514e-12 -0)
(0 1.48709e-13 -0)
(0 3.07635e-13 -0)
(0 1.80065e-13 -0)
(0 2.20006e-13 -0)
(0 1.67873e-13 -0)
(0 1.79016e-13 -0)
(0 9.76989e-14 -0)
(0 9.19376e-14 -0)
(0 8.57135e-14 -0)
(0 1.25414e-13 -0)
(0 4.63891e-14 -0)
(0 -8.05922e-14 -0)
(0 2.83045e-15 -0)
(0 -7.95623e-14 -0)
(0 3.58754e-15 -0)
(0 -9.38956e-14 -0)
)
;
    }
    frontAndBack
    {
        type            empty;
    }
}


// ************************************************************************* //
