/*--------------------------------*- C++ -*----------------------------------*\
| =========                 |                                                 |
| \\      /  F ield         | OpenFOAM: The Open Source CFD Toolbox           |
|  \\    /   O peration     | Version:  2506                                  |
|   \\  /    A nd           | Website:  www.openfoam.com                      |
|    \\/     M anipulation  |                                                 |
\*---------------------------------------------------------------------------*/
FoamFile
{
    version     2.0;
    format      ascii;
    arch        "LSB;label=32;scalar=64";
    class       volScalarField;
    location    "6.75";
    object      QField;
}
// * * * * * * * * * * * * * * * * * * * * * * * * * * * * * * * * * * * * * //

dimensions      [0 0 -2 0 0 0 0];

internalField   nonuniform List<scalar> 
400
(
-3.30144e-23
-1.01951e-23
-4.88478e-25
9.66533e-27
-8.59945e-27
-6.25893e-28
0
1.10487e-28
-2.71132e-28
-5.1756e-28
-4.81445e-28
0
0
0
-1.52349e-27
-1.23189e-27
-4.24349e-29
-2.67747e-28
0
-2.18985e-28
-6.19676e-23
-1.86575e-23
-1.01245e-24
-3.63643e-26
-4.26142e-27
-1.39507e-27
0
-2.80635e-28
0
-5.12142e-28
-9.43525e-28
0
0
1.07029e-28
-4.49743e-28
1.28884e-27
3.952e-28
2.513e-28
5.42671e-28
-6.63752e-28
-5.28107e-23
-1.72733e-23
-3.14939e-25
-8.83296e-26
1.06492e-26
-2.9292e-27
8.92435e-28
1.83835e-27
-1.10682e-27
1.68764e-27
6.23883e-29
-1.96013e-29
-3.11009e-28
8.23199e-28
1.49539e-27
2.46466e-28
4.17207e-28
-1.8883e-28
-3.4545e-28
-1.4488e-27
-3.75638e-23
-1.10905e-23
-5.25295e-25
2.10047e-26
-1.07474e-26
-1.83165e-27
-1.55371e-27
7.73557e-28
-3.81975e-27
-1.38123e-27
1.08803e-28
7.47288e-28
-1.11964e-27
-5.57118e-28
0
8.00629e-29
-2.75751e-28
0
2.54094e-28
-5.15504e-28
-3.09517e-23
-8.63605e-24
-5.91988e-25
-1.39115e-26
-1.70337e-28
-1.8437e-27
5.53224e-27
1.02664e-26
2.91643e-27
-1.18351e-27
-1.62397e-27
3.03086e-28
0
-6.19746e-28
2.47403e-28
0
0
-2.93042e-28
-9.30675e-29
-2.44161e-28
-3.05741e-23
-9.8433e-24
-4.10589e-25
8.01055e-27
-2.26982e-27
-1.11083e-27
-1.19668e-27
0
-3.55401e-27
-8.2867e-28
-6.22438e-28
2.54545e-28
-5.67691e-28
3.60451e-29
-4.25258e-28
1.37332e-28
1.00824e-27
-1.69375e-28
1.79993e-29
3.11852e-28
-2.51861e-23
-9.79524e-24
4.01709e-25
-7.36708e-26
2.41672e-26
-3.88494e-27
4.35362e-27
4.57467e-27
7.27807e-28
-1.03318e-27
-1.14525e-27
-4.1467e-28
4.19232e-28
1.32872e-28
0
5.6619e-28
0
-3.35322e-28
3.78718e-28
0
-1.38967e-23
-5.77285e-24
-2.72582e-25
3.05112e-26
-2.98187e-27
5.25586e-28
1.38085e-28
5.89681e-28
-1.62007e-27
-1.52849e-27
-4.77271e-30
-2.50649e-28
-7.19498e-28
-1.91441e-27
-5.75336e-28
-6.54581e-29
-3.8285e-28
1.57036e-29
-2.93948e-28
-5.13348e-28
-1.14223e-23
-4.38478e-24
-2.65201e-25
-9.34079e-27
1.37897e-26
7.18036e-28
1.61494e-27
5.8403e-28
-5.05833e-29
-3.05912e-28
-3.60039e-28
-4.7074e-28
7.76511e-28
0
1.30851e-27
9.89987e-28
6.3133e-29
-7.53096e-28
0
1.83256e-28
-1.61203e-24
-1.93971e-24
6.7293e-26
1.16356e-25
-8.71938e-27
3.60885e-27
-1.15863e-27
4.83172e-28
9.568e-28
-1.36381e-28
-5.35585e-29
-1.04655e-27
-6.18884e-28
0
1.24891e-28
-7.45523e-28
-1.39198e-27
1.83278e-28
-1.19736e-28
-1.07977e-28
5.27867e-24
3.93645e-25
3.23212e-25
7.89273e-26
-3.15537e-27
6.23169e-28
-1.12832e-28
0
-5.28097e-28
-1.82859e-27
-1.32279e-28
-2.13932e-27
1.18048e-27
1.00858e-27
7.85125e-28
-5.80537e-28
1.0711e-28
-1.39673e-28
-7.87202e-28
1.95015e-28
-1.88998e-24
-2.38844e-24
2.72209e-25
-4.12029e-26
9.45075e-27
-2.32741e-27
4.77678e-28
1.33114e-27
1.54624e-27
1.21438e-27
4.88125e-29
-5.0827e-28
7.44593e-28
-4.45649e-28
0
9.42574e-29
5.55917e-28
5.64556e-28
0
0
-9.24307e-25
-1.75716e-24
-1.79097e-25
2.14539e-26
1.44976e-28
0
5.29979e-28
-6.58727e-28
1.92993e-27
5.90358e-28
-6.73805e-28
-1.43757e-27
-4.05008e-29
-3.25179e-28
-3.4744e-28
-2.7523e-28
-4.61605e-28
2.37748e-28
-3.16637e-28
-4.93442e-28
-8.87311e-24
-4.41618e-24
-4.1077e-26
-1.45262e-26
2.70159e-27
-1.3008e-27
-3.97069e-28
-8.34239e-28
-1.68271e-28
3.38403e-28
1.44768e-28
-1.01636e-27
9.5105e-28
0
1.97486e-28
-2.12224e-28
4.47319e-28
0
3.12058e-29
-1.71821e-28
-2.9299e-23
-1.12198e-23
-5.91006e-27
-2.25372e-27
3.53096e-27
-1.25307e-27
2.3924e-27
1.92272e-27
-5.51144e-28
3.12461e-28
-3.35544e-28
-1.5706e-27
-3.45587e-28
6.91109e-28
0
-1.05256e-27
-2.20338e-28
-1.17249e-28
0
-9.04856e-29
-4.17243e-23
-1.30785e-23
-4.55511e-25
-5.35632e-26
0
-6.38344e-27
-1.73474e-27
9.70491e-28
-1.62546e-27
-3.14773e-28
-2.17262e-27
-2.48036e-30
4.13579e-29
2.93188e-29
-7.4634e-28
-5.51488e-28
8.23779e-28
0
0
-3.26677e-29
-4.51315e-23
-1.28721e-23
-8.04977e-25
-1.15796e-26
-4.90749e-27
0
5.32803e-27
6.06269e-27
9.10779e-28
-5.00677e-28
-2.40049e-28
-1.41474e-27
-1.39069e-28
3.47508e-28
2.60948e-28
-1.34354e-27
0
0
-2.01691e-28
-4.81957e-29
-4.99073e-23
-1.5931e-23
-3.21087e-25
-7.95624e-26
3.75466e-27
-3.6137e-27
-5.23187e-29
-1.97495e-28
-2.04986e-27
-1.10066e-27
2.71317e-28
0
8.39487e-28
3.40786e-28
2.47564e-28
4.73487e-28
0
0
1.99078e-28
-1.89129e-28
-4.93434e-23
-1.46135e-23
-5.87139e-25
-5.33519e-26
-3.37965e-28
-7.07728e-28
1.136e-28
-6.96381e-28
-7.29365e-28
7.96425e-28
1.70823e-30
1.88101e-28
-1.25701e-27
0
3.56342e-28
-4.86277e-28
-6.64132e-28
7.7524e-29
0
1.3865e-29
-2.46212e-23
-7.49488e-24
-5.27146e-25
-3.24885e-27
-6.10992e-27
2.66594e-28
-4.29192e-28
-9.57185e-28
1.44566e-28
3.62808e-28
-3.02794e-28
0
0
0
0
-6.13139e-28
0
0
0
0
)
;

boundaryField
{
    movingWall
    {
        type            calculated;
        value           nonuniform List<scalar> 
20
(
3.34428e-24
2.67739e-24
-1.11826e-24
1.03727e-25
-3.24704e-26
2.62073e-27
-4.21913e-27
-2.76729e-27
1.02596e-27
5.94425e-28
9.23611e-29
0
-1.32077e-28
-3.81838e-28
-3.42387e-28
-1.081e-27
0
0
0
0
)
;
    }
    fixedWalls
    {
        type            calculated;
        value           nonuniform List<scalar> 
60
(
-1.79879e-22
-3.37815e-22
-2.71152e-22
-1.93295e-22
-1.69037e-22
-1.62568e-22
-1.3006e-22
-8.8231e-23
-7.32178e-23
-1.12415e-23
2.80193e-23
-1.09037e-23
-2.06103e-23
-5.89375e-23
-1.50229e-22
-2.18408e-22
-2.41889e-22
-2.56198e-22
-2.64253e-22
-1.32459e-22
-6.77202e-28
-1.08749e-27
-2.56659e-27
-1.02296e-27
-4.79212e-28
1.05785e-27
0
-1.25919e-27
3.32838e-29
-1.76909e-28
1.97226e-28
0
-6.71167e-28
-2.81512e-28
-1.61184e-29
-2.26916e-28
-7.89638e-29
-6.19738e-28
-8.97246e-29
0
7.6022e-24
6.96884e-24
-1.47886e-24
2.28163e-25
-6.0999e-26
1.02975e-26
4.31615e-28
-4.52554e-28
-2.7861e-27
-1.22536e-27
7.888e-28
2.77091e-28
-2.75722e-28
-1.04089e-27
-2.73422e-27
-1.98969e-27
1.0385e-27
-1.46741e-27
0
3.18417e-28
)
;
    }
    frontAndBack
    {
        type            empty;
    }
}


// ************************************************************************* //
