/*--------------------------------*- C++ -*----------------------------------*\
| =========                 |                                                 |
| \\      /  F ield         | OpenFOAM: The Open Source CFD Toolbox           |
|  \\    /   O peration     | Version:  2506                                  |
|   \\  /    A nd           | Website:  www.openfoam.com                      |
|    \\/     M anipulation  |                                                 |
\*---------------------------------------------------------------------------*/
FoamFile
{
    version     2.0;
    format      ascii;
    arch        "LSB;label=32;scalar=64";
    class       volVectorField;
    location    "6.75";
    object      UNear;
}
// * * * * * * * * * * * * * * * * * * * * * * * * * * * * * * * * * * * * * //

dimensions      [0 1 -1 0 0 0 0];

internalField   nonuniform List<vector> 
400
(
(-1 1.38224e-13 0)
(-1 -3.05048e-14 0)
(-1 7.04303e-15 0)
(-1 -1.55922e-15 0)
(-1 4.88457e-16 0)
(-1 6.23059e-17 0)
(-1 7.66396e-17 0)
(-1 3.80081e-17 0)
(-1 9.70209e-17 0)
(-1 1.35635e-16 0)
(-1 8.32176e-17 0)
(-1 4.68238e-17 0)
(-1 5.20199e-17 0)
(-1 7.78673e-17 0)
(-1 1.30149e-16 0)
(-1 5.80658e-17 0)
(-1 4.78923e-17 0)
(-1 2.97613e-17 0)
(-1 -4.46634e-17 0)
(-1 -6.11404e-18 0)
(-1 9.47669e-15 0)
(-1 -2.13921e-15 0)
(-1 6.02311e-16 0)
(-1 6.48743e-17 0)
(-1 2.87096e-16 0)
(-1 1.68608e-16 0)
(-1 2.97511e-17 0)
(-1 1.75034e-18 0)
(-1 3.00929e-18 0)
(-1 2.77049e-17 0)
(-1 -4.51795e-17 0)
(-1 -2.49215e-17 0)
(-1 4.48132e-17 0)
(-1 8.175e-17 0)
(-1 1.31084e-16 0)
(-1 4.57934e-17 0)
(-1 -2.74157e-17 0)
(-1 -7.29263e-17 0)
(-1 -1.74026e-16 0)
(-1 -8.5059e-17 0)
(-1 -1.27547e-13 0)
(-1 2.81935e-14 0)
(-1 -6.45468e-15 0)
(-1 1.40077e-15 0)
(-1 -4.53237e-16 0)
(-1 -8.06049e-17 0)
(-1 -1.01024e-16 0)
(-1 1.16518e-16 0)
(-1 1.8775e-16 0)
(-1 4.11612e-17 0)
(-1 -9.0832e-17 0)
(-1 2.96526e-17 0)
(-1 1.48422e-16 0)
(-1 1.44395e-16 0)
(-1 4.7186e-17 0)
(-1 6.4688e-18 0)
(-1 -4.37441e-17 0)
(-1 -7.04923e-17 0)
(-1 -1.38702e-16 0)
(-1 -1.28555e-16 0)
(-1 1.00644e-13 0)
(-1 -2.14597e-14 0)
(-1 5.07905e-15 0)
(-1 -1.22547e-15 0)
(-1 2.94518e-17 0)
(-1 -2.0765e-16 0)
(-1 -2.74657e-18 0)
(-1 1.02436e-16 0)
(-1 1.31826e-16 0)
(-1 -3.77606e-17 0)
(-1 -9.01559e-17 0)
(-1 -1.76899e-17 0)
(-1 5.47703e-17 0)
(-1 1.01427e-16 0)
(-1 3.69917e-17 0)
(-1 3.04054e-17 0)
(-1 6.65297e-17 0)
(-1 -3.26018e-18 0)
(-1 -4.65773e-17 0)
(-1 -6.0177e-17 0)
(-1 -7.86008e-15 0)
(-1 1.67753e-15 0)
(-1 -2.79454e-16 0)
(-1 2.25853e-16 0)
(-1 1.89912e-16 0)
(-1 2.57275e-16 0)
(-1 1.85585e-16 0)
(-1 -3.43021e-17 0)
(-1 -2.35264e-16 0)
(-1 -2.13631e-16 0)
(-1 -8.97182e-17 0)
(-1 -1.29425e-16 0)
(-1 -1.17673e-16 0)
(-1 -4.33671e-17 0)
(-1 -3.29401e-17 0)
(-1 2.27068e-18 0)
(-1 2.43247e-17 0)
(-1 -1.07855e-17 0)
(-1 -4.4958e-17 0)
(-1 -4.51213e-17 0)
(-1 -9.96921e-14 0)
(-1 2.13914e-14 0)
(-1 -4.98042e-15 0)
(-1 1.10608e-15 0)
(-1 -1.79587e-16 0)
(-1 1.38943e-16 0)
(-1 1.00594e-16 0)
(-1 8.95056e-17 0)
(-1 6.34622e-18 0)
(-1 1.2772e-17 0)
(-1 8.31055e-17 0)
(-1 2.2678e-17 0)
(-1 -1.08049e-17 0)
(-1 -4.24865e-17 0)
(-1 -2.41032e-17 0)
(-1 -1.91382e-17 0)
(-1 3.10315e-17 0)
(-1 1.04853e-16 0)
(-1 -9.72749e-18 0)
(-1 -6.24277e-17 0)
(-1 1.41564e-13 0)
(-1 -3.04346e-14 0)
(-1 7.11456e-15 0)
(-1 -1.61961e-15 0)
(-1 3.1963e-16 0)
(-1 -1.52549e-16 0)
(-1 1.42745e-17 0)
(-1 1.15151e-16 0)
(-1 2.01803e-16 0)
(-1 1.68854e-16 0)
(-1 1.30015e-16 0)
(-1 6.32227e-17 0)
(-1 9.17682e-17 0)
(-1 1.40557e-16 0)
(-1 1.23952e-16 0)
(-1 5.29371e-17 0)
(-1 -3.55998e-17 0)
(-1 5.17028e-17 0)
(-1 -3.83174e-17 0)
(-1 -8.80195e-17 0)
(-1 -5.53428e-14 0)
(-1 1.19683e-14 0)
(-1 -2.91566e-15 0)
(-1 5.95516e-16 0)
(-1 -6.58154e-17 0)
(-1 4.54584e-17 0)
(-1 -1.17973e-18 0)
(-1 7.09307e-17 0)
(-1 1.07597e-16 0)
(-1 1.06796e-16 0)
(-1 1.08644e-16 0)
(-1 1.05036e-16 0)
(-1 1.61709e-17 0)
(-1 -2.71392e-17 0)
(-1 -3.36128e-17 0)
(-1 3.59703e-17 0)
(-1 -1.76749e-17 0)
(-1 4.16383e-17 0)
(-1 -1.18813e-17 0)
(-1 -7.35629e-17 0)
(-1 -6.30683e-14 0)
(-1 1.39399e-14 0)
(-1 -2.94194e-15 0)
(-1 1.0875e-15 0)
(-1 9.82402e-18 0)
(-1 6.99955e-17 0)
(-1 -4.31577e-17 0)
(-1 -4.91664e-17 0)
(-1 -1.14981e-16 0)
(-1 -1.13625e-16 0)
(-1 -7.736e-17 0)
(-1 -6.93485e-17 0)
(-1 -1.7368e-16 0)
(-1 -2.12589e-16 0)
(-1 -8.83092e-17 0)
(-1 2.87874e-17 0)
(-1 9.43112e-17 0)
(-1 3.47832e-18 0)
(-1 -3.15641e-17 0)
(-1 -3.60456e-17 0)
(-1 1.20425e-13 0)
(-1 -2.60343e-14 0)
(-1 6.30887e-15 0)
(-1 -1.20753e-15 0)
(-1 2.91647e-16 0)
(-1 -1.35239e-16 0)
(-1 -3.74978e-17 0)
(-1 -2.83739e-17 0)
(-1 -1.04442e-16 0)
(-1 -1.4604e-16 0)
(-1 -1.7254e-16 0)
(-1 -1.2628e-16 0)
(-1 2.25329e-17 0)
(-1 8.64017e-18 0)
(-1 -6.56133e-18 0)
(-1 -6.04841e-17 0)
(-1 -5.463e-17 0)
(-1 -9.72835e-17 0)
(-1 -2.08212e-17 0)
(-1 6.94414e-18 0)
(-1 -1.18284e-13 0)
(-1 2.55462e-14 0)
(-1 -6.01987e-15 0)
(-1 1.24897e-15 0)
(-1 -2.60167e-16 0)
(-1 8.48456e-17 0)
(-1 6.14362e-17 0)
(-1 1.07295e-16 0)
(-1 9.90479e-17 0)
(-1 7.28863e-17 0)
(-1 5.7905e-17 0)
(-1 1.21689e-16 0)
(-1 7.54044e-17 0)
(-1 -5.35714e-17 0)
(-1 -1.34386e-16 0)
(-1 -1.50125e-16 0)
(-1 -1.44064e-16 0)
(-1 -1.73983e-16 0)
(-1 -7.57387e-17 0)
(-1 3.79084e-18 0)
(-1 7.95872e-14 0)
(-1 -1.77929e-14 0)
(-1 4.06719e-15 0)
(-1 -1.04728e-15 0)
(-1 1.25208e-16 0)
(-1 -4.35436e-17 0)
(-1 2.65796e-17 0)
(-1 5.10976e-17 0)
(-1 1.248e-16 0)
(-1 2.11846e-16 0)
(-1 2.74143e-16 0)
(-1 2.59606e-16 0)
(-1 6.76621e-17 0)
(-1 -1.51005e-17 0)
(-1 -5.18531e-18 0)
(-1 5.62837e-17 0)
(-1 -2.25727e-17 0)
(-1 -1.48814e-16 0)
(-1 -1.66034e-16 0)
(-1 -4.67222e-17 0)
(-1 -3.46649e-15 0)
(-1 4.85202e-16 0)
(-1 -4.22664e-16 0)
(-1 -2.53932e-16 0)
(-1 -3.65816e-16 0)
(-1 -2.80675e-16 0)
(-1 -2.35538e-16 0)
(-1 -1.4704e-16 0)
(-1 2.65136e-17 0)
(-1 9.02993e-17 0)
(-1 1.35415e-16 0)
(-1 1.40651e-16 0)
(-1 1.76713e-16 0)
(-1 1.10844e-16 0)
(-1 1.16728e-16 0)
(-1 1.0737e-16 0)
(-1 1.51857e-17 0)
(-1 -6.29325e-17 0)
(-1 -1.20144e-16 0)
(-1 -6.19043e-17 0)
(-1 -8.49548e-14 0)
(-1 1.89087e-14 0)
(-1 -4.46937e-15 0)
(-1 9.74126e-16 0)
(-1 -3.11139e-16 0)
(-1 -2.25843e-17 0)
(-1 -7.11844e-17 0)
(-1 -7.04161e-17 0)
(-1 -1.27262e-17 0)
(-1 -4.97223e-17 0)
(-1 -7.51506e-17 0)
(-1 -6.75256e-17 0)
(-1 1.12334e-16 0)
(-1 1.07912e-16 0)
(-1 1.19523e-16 0)
(-1 1.03932e-16 0)
(-1 4.12263e-17 0)
(-1 -6.11001e-17 0)
(-1 -5.02443e-17 0)
(-1 -4.95872e-17 0)
(-1 1.34367e-13 0)
(-1 -2.96055e-14 0)
(-1 6.86645e-15 0)
(-1 -1.73255e-15 0)
(-1 1.42105e-16 0)
(-1 -2.50389e-16 0)
(-1 -8.9045e-17 0)
(-1 4.38238e-17 0)
(-1 5.28269e-17 0)
(-1 5.57013e-17 0)
(-1 9.12529e-17 0)
(-1 1.44366e-17 0)
(-1 4.30422e-18 0)
(-1 9.32587e-17 0)
(-1 1.89587e-16 0)
(-1 1.22328e-16 0)
(-1 -4.57641e-18 0)
(-1 -3.06453e-17 0)
(-1 3.18966e-17 0)
(-1 1.48666e-18 0)
(-1 -8.17819e-14 0)
(-1 1.7495e-14 0)
(-1 -4.19682e-15 0)
(-1 8.07831e-16 0)
(-1 -2.21407e-16 0)
(-1 9.54354e-17 0)
(-1 4.68134e-17 0)
(-1 -4.57577e-17 0)
(-1 -1.32211e-16 0)
(-1 -9.27123e-17 0)
(-1 -1.60799e-17 0)
(-1 3.86752e-17 0)
(-1 -1.51648e-17 0)
(-1 5.0116e-17 0)
(-1 2.34439e-17 0)
(-1 -8.26766e-17 0)
(-1 -4.00642e-17 0)
(-1 1.86304e-17 0)
(-1 8.87711e-18 0)
(-1 -2.09293e-17 0)
(-1 -3.57366e-14 0)
(-1 8.1183e-15 0)
(-1 -1.85818e-15 0)
(-1 6.29558e-16 0)
(-1 1.55748e-16 0)
(-1 3.55822e-16 0)
(-1 1.76852e-16 0)
(-1 -1.16657e-16 0)
(-1 -2.70496e-16 0)
(-1 -2.45782e-16 0)
(-1 -1.78137e-16 0)
(-1 -1.94967e-17 0)
(-1 4.24443e-17 0)
(-1 5.22469e-18 0)
(-1 -8.57636e-17 0)
(-1 -4.29117e-17 0)
(-1 9.24688e-17 0)
(-1 4.28041e-17 0)
(-1 -8.68376e-17 0)
(-1 -6.15007e-17 0)
(-1 1.14845e-13 0)
(-1 -2.53061e-14 0)
(-1 5.89849e-15 0)
(-1 -1.32823e-15 0)
(-1 4.1013e-16 0)
(-1 5.6995e-17 0)
(-1 8.47022e-17 0)
(-1 4.7344e-17 0)
(-1 4.82708e-17 0)
(-1 -2.80826e-17 0)
(-1 -1.04642e-16 0)
(-1 -1.01122e-16 0)
(-1 -6.64723e-17 0)
(-1 5.37357e-17 0)
(-1 5.92554e-17 0)
(-1 7.60458e-17 0)
(-1 9.67846e-17 0)
(-1 7.98321e-19 0)
(-1 -6.55337e-17 0)
(-1 -3.14829e-18 0)
(-1 -4.00928e-14 0)
(-1 8.31154e-15 0)
(-1 -2.09635e-15 0)
(-1 2.47252e-16 0)
(-1 -9.44143e-17 0)
(-1 1.46407e-17 0)
(-1 -7.37908e-18 0)
(-1 -2.72705e-17 0)
(-1 3.22104e-17 0)
(-1 -4.27451e-17 0)
(-1 -1.28088e-16 0)
(-1 -1.20933e-16 0)
(-1 -5.86909e-17 0)
(-1 3.07011e-17 0)
(-1 -3.90491e-17 0)
(-1 -1.0501e-16 0)
(-1 -3.78866e-17 0)
(-1 1.7501e-17 0)
(-1 -1.33909e-17 0)
(-1 8.27563e-18 0)
(-1 -8.67308e-14 0)
(-1 1.90432e-14 0)
(-1 -4.51374e-15 0)
(-1 9.51363e-16 0)
(-1 -2.33741e-16 0)
(-1 -1.1642e-17 0)
(-1 -1.35385e-16 0)
(-1 -1.69986e-16 0)
(-1 -9.40106e-17 0)
(-1 -5.48501e-17 0)
(-1 -2.70843e-17 0)
(-1 -1.13893e-17 0)
(-1 1.37709e-17 0)
(-1 -2.62598e-17 0)
(-1 -7.22114e-17 0)
(-1 -1.03359e-16 0)
(-1 -6.32914e-17 0)
(-1 1.5099e-17 0)
(-1 -2.56337e-17 0)
(-1 -1.90467e-17 0)
)
;

boundaryField
{
    movingWall
    {
        type            fixedValue;
        value           uniform (-1 -0 -0);
    }
    fixedWalls
    {
        type            calculated;
        value           nonuniform List<vector> 
60
(
(-1 5.52895e-14 0)
(-1 3.79068e-15 0)
(-1 -5.10188e-14 0)
(-1 4.02575e-14 0)
(-1 -3.14403e-15 0)
(-1 -3.98768e-14 0)
(-1 5.66255e-14 0)
(-1 -2.21371e-14 0)
(-1 -2.52273e-14 0)
(-1 4.81701e-14 0)
(-1 -4.73135e-14 0)
(-1 3.18349e-14 0)
(-1 -1.3866e-15 0)
(-1 -3.39819e-14 0)
(-1 5.37468e-14 0)
(-1 -3.27128e-14 0)
(-1 -1.42946e-14 0)
(-1 4.59379e-14 0)
(-1 -1.60371e-14 0)
(-1 -3.46923e-14 0)
(-1 -2.44562e-18 0)
(-1 -3.40236e-17 0)
(-1 -5.14218e-17 0)
(-1 -2.40708e-17 0)
(-1 -1.80485e-17 0)
(-1 -2.49711e-17 0)
(-1 -3.52078e-17 0)
(-1 -2.94252e-17 0)
(-1 -1.44182e-17 0)
(-1 2.77766e-18 0)
(-1 1.51633e-18 0)
(-1 -1.86889e-17 0)
(-1 -2.47617e-17 0)
(-1 -1.98349e-17 0)
(-1 5.94664e-19 0)
(-1 -8.37174e-18 0)
(-1 -2.46003e-17 0)
(-1 -1.25932e-18 0)
(-1 3.31025e-18 0)
(-1 -7.61868e-18 0)
(-1 5.52895e-14 0)
(-1 -1.22019e-14 0)
(-1 2.81721e-15 0)
(-1 -6.2369e-16 0)
(-1 1.95383e-16 0)
(-1 2.49223e-17 0)
(-1 3.06558e-17 0)
(-1 1.52032e-17 0)
(-1 3.88083e-17 0)
(-1 5.42539e-17 0)
(-1 3.3287e-17 0)
(-1 1.87295e-17 0)
(-1 2.0808e-17 0)
(-1 3.11469e-17 0)
(-1 5.20595e-17 0)
(-1 2.32263e-17 0)
(-1 1.91569e-17 0)
(-1 1.19045e-17 0)
(-1 -1.78653e-17 0)
(-1 -2.44562e-18 0)
)
;
    }
    frontAndBack
    {
        type            empty;
    }
}


// ************************************************************************* //
