/*--------------------------------*- C++ -*----------------------------------*\
| =========                 |                                                 |
| \\      /  F ield         | OpenFOAM: The Open Source CFD Toolbox           |
|  \\    /   O peration     | Version:  2506                                  |
|   \\  /    A nd           | Website:  www.openfoam.com                      |
|    \\/     M anipulation  |                                                 |
\*---------------------------------------------------------------------------*/
FoamFile
{
    version     2.0;
    format      ascii;
    arch        "LSB;label=32;scalar=64";
    class       volScalarField;
    location    "6.75";
    object      Uy;
}
// * * * * * * * * * * * * * * * * * * * * * * * * * * * * * * * * * * * * * //

dimensions      [0 1 -1 0 0 0 0];

internalField   nonuniform List<scalar> 
400
(
1.38224e-13
-3.05048e-14
7.04303e-15
-1.55922e-15
4.88457e-16
6.23059e-17
7.66396e-17
3.80081e-17
9.70209e-17
1.35635e-16
8.32176e-17
4.68238e-17
5.20199e-17
7.78673e-17
1.30149e-16
5.80658e-17
4.78923e-17
2.97613e-17
-4.46634e-17
-6.11404e-18
9.47669e-15
-2.13921e-15
6.02311e-16
6.48743e-17
2.87096e-16
1.68608e-16
2.97511e-17
1.75034e-18
3.00929e-18
2.77049e-17
-4.51795e-17
-2.49215e-17
4.48132e-17
8.175e-17
1.31084e-16
4.57934e-17
-2.74157e-17
-7.29263e-17
-1.74026e-16
-8.5059e-17
-1.27547e-13
2.81935e-14
-6.45468e-15
1.40077e-15
-4.53237e-16
-8.06049e-17
-1.01024e-16
1.16518e-16
1.8775e-16
4.11612e-17
-9.0832e-17
2.96526e-17
1.48422e-16
1.44395e-16
4.7186e-17
6.4688e-18
-4.37441e-17
-7.04923e-17
-1.38702e-16
-1.28555e-16
1.00644e-13
-2.14597e-14
5.07905e-15
-1.22547e-15
2.94518e-17
-2.0765e-16
-2.74657e-18
1.02436e-16
1.31826e-16
-3.77606e-17
-9.01559e-17
-1.76899e-17
5.47703e-17
1.01427e-16
3.69917e-17
3.04054e-17
6.65297e-17
-3.26018e-18
-4.65773e-17
-6.0177e-17
-7.86008e-15
1.67753e-15
-2.79454e-16
2.25853e-16
1.89912e-16
2.57275e-16
1.85585e-16
-3.43021e-17
-2.35264e-16
-2.13631e-16
-8.97182e-17
-1.29425e-16
-1.17673e-16
-4.33671e-17
-3.29401e-17
2.27068e-18
2.43247e-17
-1.07855e-17
-4.4958e-17
-4.51213e-17
-9.96921e-14
2.13914e-14
-4.98042e-15
1.10608e-15
-1.79587e-16
1.38943e-16
1.00594e-16
8.95056e-17
6.34622e-18
1.2772e-17
8.31055e-17
2.2678e-17
-1.08049e-17
-4.24865e-17
-2.41032e-17
-1.91382e-17
3.10315e-17
1.04853e-16
-9.72749e-18
-6.24277e-17
1.41564e-13
-3.04346e-14
7.11456e-15
-1.61961e-15
3.1963e-16
-1.52549e-16
1.42745e-17
1.15151e-16
2.01803e-16
1.68854e-16
1.30015e-16
6.32227e-17
9.17682e-17
1.40557e-16
1.23952e-16
5.29371e-17
-3.55998e-17
5.17028e-17
-3.83174e-17
-8.80195e-17
-5.53428e-14
1.19683e-14
-2.91566e-15
5.95516e-16
-6.58154e-17
4.54584e-17
-1.17973e-18
7.09307e-17
1.07597e-16
1.06796e-16
1.08644e-16
1.05036e-16
1.61709e-17
-2.71392e-17
-3.36128e-17
3.59703e-17
-1.76749e-17
4.16383e-17
-1.18813e-17
-7.35629e-17
-6.30683e-14
1.39399e-14
-2.94194e-15
1.0875e-15
9.82402e-18
6.99955e-17
-4.31577e-17
-4.91664e-17
-1.14981e-16
-1.13625e-16
-7.736e-17
-6.93485e-17
-1.7368e-16
-2.12589e-16
-8.83092e-17
2.87874e-17
9.43112e-17
3.47832e-18
-3.15641e-17
-3.60456e-17
1.20425e-13
-2.60343e-14
6.30887e-15
-1.20753e-15
2.91647e-16
-1.35239e-16
-3.74978e-17
-2.83739e-17
-1.04442e-16
-1.4604e-16
-1.7254e-16
-1.2628e-16
2.25329e-17
8.64017e-18
-6.56133e-18
-6.04841e-17
-5.463e-17
-9.72835e-17
-2.08212e-17
6.94414e-18
-1.18284e-13
2.55462e-14
-6.01987e-15
1.24897e-15
-2.60167e-16
8.48456e-17
6.14362e-17
1.07295e-16
9.90479e-17
7.28863e-17
5.7905e-17
1.21689e-16
7.54044e-17
-5.35714e-17
-1.34386e-16
-1.50125e-16
-1.44064e-16
-1.73983e-16
-7.57387e-17
3.79084e-18
7.95872e-14
-1.77929e-14
4.06719e-15
-1.04728e-15
1.25208e-16
-4.35436e-17
2.65796e-17
5.10976e-17
1.248e-16
2.11846e-16
2.74143e-16
2.59606e-16
6.76621e-17
-1.51005e-17
-5.18531e-18
5.62837e-17
-2.25727e-17
-1.48814e-16
-1.66034e-16
-4.67222e-17
-3.46649e-15
4.85202e-16
-4.22664e-16
-2.53932e-16
-3.65816e-16
-2.80675e-16
-2.35538e-16
-1.4704e-16
2.65136e-17
9.02993e-17
1.35415e-16
1.40651e-16
1.76713e-16
1.10844e-16
1.16728e-16
1.0737e-16
1.51857e-17
-6.29325e-17
-1.20144e-16
-6.19043e-17
-8.49548e-14
1.89087e-14
-4.46937e-15
9.74126e-16
-3.11139e-16
-2.25843e-17
-7.11844e-17
-7.04161e-17
-1.27262e-17
-4.97223e-17
-7.51506e-17
-6.75256e-17
1.12334e-16
1.07912e-16
1.19523e-16
1.03932e-16
4.12263e-17
-6.11001e-17
-5.02443e-17
-4.95872e-17
1.34367e-13
-2.96055e-14
6.86645e-15
-1.73255e-15
1.42105e-16
-2.50389e-16
-8.9045e-17
4.38238e-17
5.28269e-17
5.57013e-17
9.12529e-17
1.44366e-17
4.30422e-18
9.32587e-17
1.89587e-16
1.22328e-16
-4.57641e-18
-3.06453e-17
3.18966e-17
1.48666e-18
-8.17819e-14
1.7495e-14
-4.19682e-15
8.07831e-16
-2.21407e-16
9.54354e-17
4.68134e-17
-4.57577e-17
-1.32211e-16
-9.27123e-17
-1.60799e-17
3.86752e-17
-1.51648e-17
5.0116e-17
2.34439e-17
-8.26766e-17
-4.00642e-17
1.86304e-17
8.87711e-18
-2.09293e-17
-3.57366e-14
8.1183e-15
-1.85818e-15
6.29558e-16
1.55748e-16
3.55822e-16
1.76852e-16
-1.16657e-16
-2.70496e-16
-2.45782e-16
-1.78137e-16
-1.94967e-17
4.24443e-17
5.22469e-18
-8.57636e-17
-4.29117e-17
9.24688e-17
4.28041e-17
-8.68376e-17
-6.15007e-17
1.14845e-13
-2.53061e-14
5.89849e-15
-1.32823e-15
4.1013e-16
5.6995e-17
8.47022e-17
4.7344e-17
4.82708e-17
-2.80826e-17
-1.04642e-16
-1.01122e-16
-6.64723e-17
5.37357e-17
5.92554e-17
7.60458e-17
9.67846e-17
7.98321e-19
-6.55337e-17
-3.14829e-18
-4.00928e-14
8.31154e-15
-2.09635e-15
2.47252e-16
-9.44143e-17
1.46407e-17
-7.37908e-18
-2.72705e-17
3.22104e-17
-4.27451e-17
-1.28088e-16
-1.20933e-16
-5.86909e-17
3.07011e-17
-3.90491e-17
-1.0501e-16
-3.78866e-17
1.7501e-17
-1.33909e-17
8.27563e-18
-8.67308e-14
1.90432e-14
-4.51374e-15
9.51363e-16
-2.33741e-16
-1.1642e-17
-1.35385e-16
-1.69986e-16
-9.40106e-17
-5.48501e-17
-2.70843e-17
-1.13893e-17
1.37709e-17
-2.62598e-17
-7.22114e-17
-1.03359e-16
-6.32914e-17
1.5099e-17
-2.56337e-17
-1.90467e-17
)
;

boundaryField
{
    movingWall
    {
        type            calculated;
        value           uniform -0;
    }
    fixedWalls
    {
        type            calculated;
        value           uniform -0;
    }
    frontAndBack
    {
        type            empty;
    }
}


// ************************************************************************* //
