/*--------------------------------*- C++ -*----------------------------------*\
| =========                 |                                                 |
| \\      /  F ield         | OpenFOAM: The Open Source CFD Toolbox           |
|  \\    /   O peration     | Version:  2506                                  |
|   \\  /    A nd           | Website:  www.openfoam.com                      |
|    \\/     M anipulation  |                                                 |
\*---------------------------------------------------------------------------*/
FoamFile
{
    version     2.0;
    format      ascii;
    arch        "LSB;label=32;scalar=64";
    class       volVectorField;
    location    "6.75";
    object      vorticityField;
}
// * * * * * * * * * * * * * * * * * * * * * * * * * * * * * * * * * * * * * //

dimensions      [0 0 -1 0 0 0 0];

internalField   nonuniform List<vector> 
400
(
(0 -0 9.41665e-12)
(0 -0 -1.27928e-11)
(0 -0 2.84034e-12)
(0 -0 -6.82563e-13)
(0 -0 1.35048e-13)
(0 -0 -4.11817e-14)
(0 -0 -2.42978e-15)
(0 -0 5.62482e-14)
(0 -0 9.76267e-15)
(0 -0 5.28298e-14)
(0 -0 4.5329e-14)
(0 -0 -3.11977e-15)
(0 -0 3.10435e-15)
(0 -0 7.81289e-15)
(0 -0 5.223e-14)
(0 -0 7.30895e-14)
(0 -0 5.13797e-14)
(0 -0 4.49545e-14)
(0 -0 -3.58754e-15)
(0 -0 5.92879e-14)
(0 -0 -2.69139e-13)
(0 -0 -4.80862e-13)
(0 -0 2.74618e-13)
(0 -0 1.04004e-13)
(0 -0 9.16885e-14)
(0 -0 2.84756e-14)
(0 -0 -1.66858e-14)
(0 -0 -5.68843e-14)
(0 -0 2.59545e-15)
(0 -0 -4.81888e-15)
(0 -0 -5.26264e-15)
(0 -0 8.99927e-15)
(0 -0 1.06671e-14)
(0 -0 6.28372e-14)
(0 -0 -3.59565e-15)
(0 -0 -9.71651e-14)
(0 -0 -6.60821e-14)
(0 -0 -6.88711e-14)
(0 -0 -2.83183e-14)
(0 -0 2.59085e-14)
(0 -0 -5.19196e-12)
(0 -0 1.08082e-11)
(0 -0 -2.59795e-12)
(0 -0 4.64619e-13)
(0 -0 -2.29453e-13)
(0 -0 -1.89888e-14)
(0 -0 7.39224e-14)
(0 -0 8.30874e-14)
(0 -0 4.66744e-14)
(0 -0 -8.20683e-14)
(0 -0 -5.5361e-14)
(0 -0 2.39254e-14)
(0 -0 -1.56309e-14)
(0 -0 -9.14387e-14)
(0 -0 -1.22213e-13)
(0 -0 -3.61981e-14)
(0 -0 -6.19062e-14)
(0 -0 -9.49582e-15)
(0 -0 -5.80623e-15)
(0 -0 -2.74844e-14)
(0 -0 5.01817e-12)
(0 -0 -8.82464e-12)
(0 -0 1.8879e-12)
(0 -0 -5.5917e-13)
(0 -0 4.75714e-14)
(0 -0 -3.21984e-15)
(0 -0 3.10087e-14)
(0 -0 4.05623e-14)
(0 -0 1.30854e-14)
(0 -0 -2.21982e-14)
(0 -0 5.62172e-14)
(0 -0 9.58078e-14)
(0 -0 3.90167e-14)
(0 -0 2.53272e-14)
(0 -0 -7.10213e-15)
(0 -0 3.00589e-14)
(0 -0 2.37385e-14)
(0 -0 -1.13107e-14)
(0 -0 -5.69168e-15)
(0 -0 -1.64296e-14)
(0 -0 -6.18255e-13)
(0 -0 7.03853e-13)
(0 -0 -1.99378e-13)
(0 -0 1.98315e-14)
(0 -0 -5.10679e-14)
(0 -0 -8.17478e-14)
(0 -0 -2.18893e-13)
(0 -0 -2.8603e-13)
(0 -0 -1.80563e-13)
(0 -0 -6.67606e-14)
(0 -0 -7.28946e-14)
(0 -0 -1.11216e-13)
(0 -0 8.60583e-15)
(0 -0 -1.86318e-14)
(0 -0 5.87739e-14)
(0 -0 5.72648e-15)
(0 -0 -1.30562e-15)
(0 -0 -6.92828e-15)
(0 -0 2.36715e-14)
(0 -0 -1.80971e-14)
(0 -0 -6.14956e-12)
(0 -0 8.98327e-12)
(0 -0 -1.97432e-12)
(0 -0 5.07188e-13)
(0 -0 -6.96082e-14)
(0 -0 2.80181e-14)
(0 -0 4.92664e-14)
(0 -0 -9.4248e-15)
(0 -0 -7.67336e-15)
(0 -0 3.4781e-14)
(0 -0 -2.61144e-14)
(0 -0 -3.64961e-14)
(0 -0 -6.51645e-15)
(0 -0 -2.84349e-14)
(0 -0 2.33483e-15)
(0 -0 5.51347e-15)
(0 -0 9.37143e-14)
(0 -0 -4.0759e-15)
(0 -0 -1.67281e-14)
(0 -0 3.43206e-14)
(0 -0 8.67346e-12)
(0 -0 -1.2686e-11)
(0 -0 3.01702e-12)
(0 -0 -5.71073e-13)
(0 -0 3.09336e-13)
(0 -0 1.0499e-13)
(0 -0 1.894e-13)
(0 -0 2.62698e-13)
(0 -0 1.40896e-13)
(0 -0 1.01241e-13)
(0 -0 9.78571e-14)
(0 -0 1.04596e-13)
(0 -0 6.19436e-14)
(0 -0 5.74285e-14)
(0 -0 -8.76202e-15)
(0 -0 -7.01653e-14)
(0 -0 -1.23433e-16)
(0 -0 -2.73768e-14)
(0 -0 -4.10773e-14)
(0 -0 1.26337e-14)
(0 -0 -3.30746e-12)
(0 -0 4.94455e-12)
(0 -0 -1.13728e-12)
(0 -0 3.66299e-13)
(0 -0 -7.95629e-16)
(0 -0 8.77787e-14)
(0 -0 5.67573e-14)
(0 -0 6.50878e-14)
(0 -0 3.06916e-14)
(0 -0 2.72097e-14)
(0 -0 2.6929e-14)
(0 -0 1.78577e-14)
(0 -0 -1.32175e-14)
(0 -0 -4.97837e-15)
(0 -0 6.31095e-15)
(0 -0 1.59379e-15)
(0 -0 -5.36433e-14)
(0 -0 2.76844e-14)
(0 -0 1.55849e-14)
(0 -0 -1.85606e-14)
(0 -0 -3.55759e-12)
(0 -0 5.66028e-12)
(0 -0 -1.31235e-12)
(0 -0 2.13861e-13)
(0 -0 -2.37275e-13)
(0 -0 -1.40823e-13)
(0 -0 -1.47441e-13)
(0 -0 -8.84975e-14)
(0 -0 -8.77611e-14)
(0 -0 -7.75531e-14)
(0 -0 -7.68875e-14)
(0 -0 -9.09471e-14)
(0 -0 -6.85342e-14)
(0 -0 8.53705e-15)
(0 -0 7.83478e-14)
(0 -0 7.24721e-14)
(0 -0 5.16792e-14)
(0 -0 -1.25875e-14)
(0 -0 -3.95239e-15)
(0 -0 3.3866e-14)
(0 -0 8.95121e-12)
(0 -0 -1.11948e-11)
(0 -0 2.50978e-12)
(0 -0 -7.91458e-13)
(0 -0 2.59143e-14)
(0 -0 -1.41335e-13)
(0 -0 -9.77338e-14)
(0 -0 -1.4222e-13)
(0 -0 -9.30817e-14)
(0 -0 -6.10199e-14)
(0 -0 -2.51291e-14)
(0 -0 -7.59776e-15)
(0 -0 6.77021e-14)
(0 -0 -2.90942e-15)
(0 -0 -6.91242e-15)
(0 -0 4.94032e-14)
(0 -0 2.34251e-14)
(0 -0 5.7591e-14)
(0 -0 1.04228e-14)
(0 -0 1.38771e-15)
(0 -0 -9.84295e-12)
(0 -0 1.12535e-11)
(0 -0 -2.56524e-12)
(0 -0 7.11496e-13)
(0 -0 -8.93077e-14)
(0 -0 5.92654e-14)
(0 -0 2.935e-14)
(0 -0 3.76116e-15)
(0 -0 -3.0546e-14)
(0 -0 -3.12193e-14)
(0 -0 -2.22248e-14)
(0 -0 -2.53551e-14)
(0 -0 -9.88412e-14)
(0 -0 -7.51891e-14)
(0 -0 -9.09705e-14)
(0 -0 -5.51779e-14)
(0 -0 -8.3701e-14)
(0 -0 6.83248e-15)
(0 -0 1.77774e-14)
(0 -0 3.42998e-14)
(0 -0 5.77285e-12)
(0 -0 -7.22674e-12)
(0 -0 1.8643e-12)
(0 -0 -2.58673e-13)
(0 -0 2.08794e-13)
(0 -0 1.25662e-13)
(0 -0 1.44989e-13)
(0 -0 1.45347e-13)
(0 -0 1.24495e-13)
(0 -0 9.62495e-14)
(0 -0 5.89861e-14)
(0 -0 6.45693e-15)
(0 -0 -5.45757e-14)
(0 -0 -7.28474e-15)
(0 -0 7.13842e-15)
(0 -0 -5.59489e-14)
(0 -0 -4.76148e-14)
(0 -0 -9.56613e-14)
(0 -0 1.02091e-14)
(0 -0 2.12757e-14)
(0 -0 -1.89709e-13)
(0 -0 8.75424e-14)
(0 -0 -1.55229e-13)
(0 -0 -7.56303e-14)
(0 -0 -5.68845e-14)
(0 -0 1.30278e-14)
(0 -0 1.33635e-14)
(0 -0 2.62051e-14)
(0 -0 1.05049e-13)
(0 -0 6.51003e-14)
(0 -0 5.92453e-14)
(0 -0 8.54449e-14)
(0 -0 5.12294e-14)
(0 -0 4.82116e-14)
(0 -0 2.67576e-14)
(0 -0 1.69509e-14)
(0 -0 1.00748e-14)
(0 -0 -1.35329e-14)
(0 -0 -2.70022e-14)
(0 -0 -8.90028e-15)
(0 -0 -4.97831e-12)
(0 -0 7.56065e-12)
(0 -0 -1.84766e-12)
(0 -0 3.61613e-13)
(0 -0 -1.26776e-13)
(0 -0 -3.02146e-14)
(0 -0 -4.78318e-15)
(0 -0 -4.83643e-14)
(0 -0 -7.92458e-14)
(0 -0 -6.04525e-14)
(0 -0 -8.30955e-14)
(0 -0 -3.54616e-14)
(0 -0 7.17539e-14)
(0 -0 7.18882e-16)
(0 -0 -3.98042e-16)
(0 -0 1.92754e-14)
(0 -0 -4.36082e-14)
(0 -0 -9.14705e-15)
(0 -0 2.82563e-14)
(0 -0 9.98314e-15)
(0 -0 7.71143e-12)
(0 -0 -1.18827e-11)
(0 -0 2.7873e-12)
(0 -0 -6.72434e-13)
(0 -0 1.75321e-13)
(0 -0 3.10951e-14)
(0 -0 1.10736e-13)
(0 -0 1.49712e-13)
(0 -0 8.25029e-14)
(0 -0 8.51578e-14)
(0 -0 7.71887e-14)
(0 -0 7.26203e-14)
(0 -0 7.88221e-15)
(0 -0 7.27384e-14)
(0 -0 2.90692e-15)
(0 -0 3.47937e-14)
(0 -0 -1.52973e-14)
(0 -0 3.07524e-14)
(0 -0 3.2132e-15)
(0 -0 2.37667e-14)
(0 -0 -5.31738e-12)
(0 -0 7.32483e-12)
(0 -0 -1.75004e-12)
(0 -0 3.43331e-13)
(0 -0 -7.12395e-14)
(0 -0 -2.73881e-14)
(0 -0 -9.54345e-14)
(0 -0 -7.21125e-14)
(0 -0 -3.18005e-14)
(0 -0 -1.5492e-14)
(0 -0 -4.10714e-14)
(0 -0 -2.70135e-14)
(0 -0 -5.3066e-14)
(0 -0 -5.03492e-14)
(0 -0 -1.32793e-14)
(0 -0 -6.05609e-14)
(0 -0 9.14459e-14)
(0 -0 4.89413e-15)
(0 -0 -3.95597e-15)
(0 -0 -2.58998e-14)
(0 -0 8.43141e-13)
(0 -0 2.6018e-12)
(0 -0 -4.77823e-13)
(0 -0 2.01392e-13)
(0 -0 2.68365e-14)
(0 -0 2.11042e-15)
(0 -0 -1.55668e-13)
(0 -0 -1.8026e-13)
(0 -0 -1.21333e-13)
(0 -0 -4.49742e-14)
(0 -0 2.26285e-14)
(0 -0 -5.9257e-14)
(0 -0 2.47214e-15)
(0 -0 -3.99258e-14)
(0 -0 -5.90237e-14)
(0 -0 -9.28181e-15)
(0 -0 8.57158e-15)
(0 -0 -1.79306e-14)
(0 -0 -1.04305e-14)
(0 -0 1.48338e-14)
(0 -0 3.34313e-12)
(0 -0 -9.43096e-12)
(0 -0 2.26226e-12)
(0 -0 -4.13311e-13)
(0 -0 1.65627e-13)
(0 -0 2.16673e-14)
(0 -0 5.3245e-14)
(0 -0 5.0567e-14)
(0 -0 4.66675e-14)
(0 -0 -1.52913e-14)
(0 -0 -7.30397e-15)
(0 -0 3.81699e-15)
(0 -0 6.96959e-14)
(0 -0 3.96778e-14)
(0 -0 5.64411e-14)
(0 -0 8.50681e-14)
(0 -0 -7.52475e-15)
(0 -0 -1.62318e-14)
(0 -0 -3.94661e-16)
(0 -0 6.8682e-15)
(0 -0 -2.60892e-12)
(0 -0 3.5286e-12)
(0 -0 -1.02327e-12)
(0 -0 1.18879e-13)
(0 -0 -1.58786e-13)
(0 -0 -7.26116e-14)
(0 -0 -3.12962e-14)
(0 -0 -2.31461e-14)
(0 -0 -2.86525e-14)
(0 -0 -7.02399e-14)
(0 -0 -3.49239e-14)
(0 -0 3.40447e-14)
(0 -0 -3.90467e-14)
(0 -0 1.96418e-15)
(0 -0 -1.35711e-14)
(0 -0 1.16254e-16)
(0 -0 -4.1959e-14)
(0 -0 2.44957e-15)
(0 -0 -9.22536e-16)
(0 -0 2.76166e-14)
(0 -0 -5.06113e-12)
(0 -0 7.81513e-12)
(0 -0 -1.64656e-12)
(0 -0 4.28e-13)
(0 -0 -4.20904e-14)
(0 -0 3.69407e-14)
(0 -0 1.12707e-14)
(0 -0 3.12425e-14)
(0 -0 3.86186e-14)
(0 -0 6.09027e-14)
(0 -0 3.14511e-14)
(0 -0 4.08551e-15)
(0 -0 -1.48705e-15)
(0 -0 -8.59823e-15)
(0 -0 -7.70988e-15)
(0 -0 -5.33181e-14)
(0 -0 1.18458e-14)
(0 -0 3.76577e-15)
(0 -0 -3.41457e-15)
(0 -0 4.46804e-15)
)
;

boundaryField
{
    movingWall
    {
        type            calculated;
        value           nonuniform List<vector> 
20
(
(0 -0 -1.25419e-11)
(0 -0 9.95365e-12)
(0 -0 -1.54274e-12)
(0 -0 6.94454e-13)
(0 -0 2.14562e-13)
(0 -0 2.76289e-13)
(0 -0 2.50619e-13)
(0 -0 2.26182e-13)
(0 -0 1.89149e-13)
(0 -0 9.55105e-14)
(0 -0 9.31639e-14)
(0 -0 4.08551e-15)
(0 -0 8.73308e-14)
(0 -0 3.58107e-14)
(0 -0 3.6699e-14)
(0 -0 4.53009e-14)
(0 -0 1.18458e-14)
(0 -0 3.76577e-15)
(0 -0 -3.41457e-15)
(0 -0 4.46804e-15)
)
;
    }
    fixedWalls
    {
        type            calculated;
        value           nonuniform List<vector> 
60
(
(0 -0 5.39343e-11)
(0 -0 2.78779e-12)
(0 -0 -4.62754e-11)
(0 -0 3.73573e-11)
(0 -0 -3.14403e-12)
(0 -0 -3.81963e-11)
(0 -0 5.4186e-11)
(0 -0 -2.11071e-11)
(0 -0 -2.38721e-11)
(0 -0 4.76822e-11)
(0 -0 -4.78827e-11)
(0 -0 3.14283e-11)
(0 -0 -1.27818e-12)
(0 -0 -3.23556e-11)
(0 -0 5.09821e-11)
(0 -0 -3.16015e-11)
(0 -0 -1.06897e-11)
(0 -0 4.03272e-11)
(0 -0 -1.54679e-11)
(0 -0 -3.29847e-11)
(0 -0 5.66557e-14)
(0 -0 3.40236e-14)
(0 -0 -2.78826e-15)
(0 -0 -3.03425e-15)
(0 -0 -9.05652e-15)
(0 -0 5.20761e-14)
(0 -0 3.52078e-14)
(0 -0 2.3201e-15)
(0 -0 4.15233e-14)
(0 -0 -2.77766e-15)
(0 -0 2.55887e-14)
(0 -0 1.86889e-14)
(0 -0 -2.34335e-15)
(0 -0 1.98349e-14)
(0 -0 2.65104e-14)
(0 -0 -1.87333e-14)
(0 -0 2.46003e-14)
(0 -0 1.25932e-15)
(0 -0 2.37948e-14)
(0 -0 7.61868e-15)
(0 -0 1.78773e-11)
(0 -0 -1.53385e-11)
(0 -0 2.80574e-12)
(0 -0 -1.05514e-12)
(0 -0 -1.48709e-13)
(0 -0 -3.07635e-13)
(0 -0 -1.80065e-13)
(0 -0 -2.20006e-13)
(0 -0 -1.67873e-13)
(0 -0 -1.79016e-13)
(0 -0 -9.76989e-14)
(0 -0 -9.19376e-14)
(0 -0 -8.57135e-14)
(0 -0 -1.25414e-13)
(0 -0 -4.63891e-14)
(0 -0 8.05922e-14)
(0 -0 -2.83045e-15)
(0 -0 7.95623e-14)
(0 -0 -3.58754e-15)
(0 -0 9.38956e-14)
)
;
    }
    frontAndBack
    {
        type            empty;
    }
}


// ************************************************************************* //
