/*--------------------------------*- C++ -*----------------------------------*\
| =========                 |                                                 |
| \\      /  F ield         | OpenFOAM: The Open Source CFD Toolbox           |
|  \\    /   O peration     | Version:  2506                                  |
|   \\  /    A nd           | Website:  www.openfoam.com                      |
|    \\/     M anipulation  |                                                 |
\*---------------------------------------------------------------------------*/
FoamFile
{
    version     2.0;
    format      ascii;
    arch        "LSB;label=32;scalar=64";
    class       volScalarField;
    location    "6.75";
    object      zeroGradient(epsilon);
}
// * * * * * * * * * * * * * * * * * * * * * * * * * * * * * * * * * * * * * //

dimensions      [0 2 -3 0 0 0 0];

internalField   nonuniform List<scalar> 
400
(
2.57903e-06
2.57903e-06
2.57903e-06
2.57902e-06
2.57902e-06
2.57902e-06
2.57902e-06
2.57902e-06
2.57901e-06
2.57901e-06
2.57901e-06
2.57901e-06
2.57901e-06
2.57901e-06
2.57901e-06
2.57901e-06
2.57901e-06
2.57901e-06
2.57901e-06
2.57901e-06
2.7165e-06
2.67508e-06
2.67853e-06
2.67997e-06
2.68284e-06
2.68432e-06
2.68719e-06
2.68873e-06
2.69159e-06
2.69319e-06
2.69605e-06
2.69769e-06
2.70056e-06
2.70225e-06
2.70513e-06
2.70686e-06
2.70976e-06
2.71152e-06
2.71299e-06
2.71533e-06
2.92391e-06
2.87749e-06
2.88142e-06
2.88305e-06
2.8863e-06
2.88798e-06
2.89122e-06
2.89295e-06
2.89617e-06
2.89795e-06
2.90117e-06
2.903e-06
2.90621e-06
2.90808e-06
2.9113e-06
2.91319e-06
2.91643e-06
2.91834e-06
2.91998e-06
2.92256e-06
3.12778e-06
3.07695e-06
3.08125e-06
3.08304e-06
3.0866e-06
3.08843e-06
3.09197e-06
3.09386e-06
3.09739e-06
3.09934e-06
3.10286e-06
3.10486e-06
3.10838e-06
3.11041e-06
3.11394e-06
3.11601e-06
3.11955e-06
3.12165e-06
3.12343e-06
3.12627e-06
3.28694e-06
3.23257e-06
3.23717e-06
3.23907e-06
3.24288e-06
3.24483e-06
3.24862e-06
3.25064e-06
3.25441e-06
3.2565e-06
3.26026e-06
3.2624e-06
3.26616e-06
3.26834e-06
3.27211e-06
3.27433e-06
3.27812e-06
3.28036e-06
3.28227e-06
3.2853e-06
3.39487e-06
3.33804e-06
3.34284e-06
3.34483e-06
3.34881e-06
3.35085e-06
3.35481e-06
3.35692e-06
3.36086e-06
3.36304e-06
3.36697e-06
3.3692e-06
3.37313e-06
3.37541e-06
3.37935e-06
3.38167e-06
3.38563e-06
3.38797e-06
3.38997e-06
3.39314e-06
3.46248e-06
3.40409e-06
3.40902e-06
3.41106e-06
3.41514e-06
3.41725e-06
3.42131e-06
3.42348e-06
3.42752e-06
3.42976e-06
3.4338e-06
3.43609e-06
3.44013e-06
3.44247e-06
3.44652e-06
3.4489e-06
3.45297e-06
3.45538e-06
3.45743e-06
3.46068e-06
3.50393e-06
3.44459e-06
3.4496e-06
3.45167e-06
3.45582e-06
3.45795e-06
3.46208e-06
3.46429e-06
3.4684e-06
3.47067e-06
3.47477e-06
3.47711e-06
3.48121e-06
3.48359e-06
3.4877e-06
3.49012e-06
3.49425e-06
3.4967e-06
3.49879e-06
3.5021e-06
3.53048e-06
3.47053e-06
3.47559e-06
3.47769e-06
3.48188e-06
3.48403e-06
3.4882e-06
3.49043e-06
3.49459e-06
3.49688e-06
3.50103e-06
3.50338e-06
3.50753e-06
3.50993e-06
3.51409e-06
3.51653e-06
3.52071e-06
3.52318e-06
3.52529e-06
3.52863e-06
3.54946e-06
3.48908e-06
3.49417e-06
3.49628e-06
3.5005e-06
3.50267e-06
3.50687e-06
3.50912e-06
3.5133e-06
3.51561e-06
3.51979e-06
3.52216e-06
3.52633e-06
3.52876e-06
3.53294e-06
3.5354e-06
3.53961e-06
3.5421e-06
3.54422e-06
3.54759e-06
3.56515e-06
3.50441e-06
3.50953e-06
3.51165e-06
3.5159e-06
3.51808e-06
3.52231e-06
3.52457e-06
3.52877e-06
3.5311e-06
3.5353e-06
3.53769e-06
3.54189e-06
3.54432e-06
3.54853e-06
3.55101e-06
3.55524e-06
3.55775e-06
3.55988e-06
3.56327e-06
3.57997e-06
3.51889e-06
3.52404e-06
3.52617e-06
3.53044e-06
3.53264e-06
3.53688e-06
3.53916e-06
3.54339e-06
3.54573e-06
3.54995e-06
3.55235e-06
3.55657e-06
3.55902e-06
3.56325e-06
3.56574e-06
3.57e-06
3.57252e-06
3.57466e-06
3.57807e-06
3.59529e-06
3.53386e-06
3.53904e-06
3.54119e-06
3.54548e-06
3.54769e-06
3.55196e-06
3.55424e-06
3.5585e-06
3.56085e-06
3.5651e-06
3.56751e-06
3.57176e-06
3.57422e-06
3.57848e-06
3.58098e-06
3.58526e-06
3.5878e-06
3.58996e-06
3.59338e-06
3.61196e-06
3.55015e-06
3.55536e-06
3.55752e-06
3.56184e-06
3.56406e-06
3.56836e-06
3.57066e-06
3.57494e-06
3.57731e-06
3.58158e-06
3.58401e-06
3.58828e-06
3.59076e-06
3.59504e-06
3.59756e-06
3.60186e-06
3.60442e-06
3.60659e-06
3.61004e-06
3.63045e-06
3.56822e-06
3.57346e-06
3.57564e-06
3.57998e-06
3.58222e-06
3.58655e-06
3.58886e-06
3.59317e-06
3.59556e-06
3.59986e-06
3.6023e-06
3.6066e-06
3.6091e-06
3.61341e-06
3.61595e-06
3.62028e-06
3.62285e-06
3.62504e-06
3.62851e-06
3.65079e-06
3.58809e-06
3.59338e-06
3.59557e-06
3.59995e-06
3.6022e-06
3.60656e-06
3.60889e-06
3.61323e-06
3.61563e-06
3.61996e-06
3.62243e-06
3.62676e-06
3.62928e-06
3.63362e-06
3.63618e-06
3.64054e-06
3.64313e-06
3.64533e-06
3.64883e-06
3.67223e-06
3.60904e-06
3.61437e-06
3.61657e-06
3.62099e-06
3.62326e-06
3.62765e-06
3.63e-06
3.63437e-06
3.6368e-06
3.64116e-06
3.64364e-06
3.64801e-06
3.65054e-06
3.65492e-06
3.6575e-06
3.6619e-06
3.66451e-06
3.66673e-06
3.67025e-06
3.69287e-06
3.62922e-06
3.63458e-06
3.6368e-06
3.64125e-06
3.64353e-06
3.64796e-06
3.65032e-06
3.65473e-06
3.65717e-06
3.66156e-06
3.66406e-06
3.66846e-06
3.67102e-06
3.67542e-06
3.67802e-06
3.68245e-06
3.68508e-06
3.68732e-06
3.69087e-06
3.70959e-06
3.64682e-06
3.65201e-06
3.65417e-06
3.65849e-06
3.66073e-06
3.66504e-06
3.66738e-06
3.67168e-06
3.67411e-06
3.67841e-06
3.68092e-06
3.68523e-06
3.68782e-06
3.69215e-06
3.69479e-06
3.69917e-06
3.70186e-06
3.70407e-06
3.70763e-06
3.71719e-06
3.71718e-06
3.71718e-06
3.71718e-06
3.71717e-06
3.71717e-06
3.71717e-06
3.71717e-06
3.71716e-06
3.71716e-06
3.71716e-06
3.71716e-06
3.71716e-06
3.71716e-06
3.71716e-06
3.71716e-06
3.71716e-06
3.71716e-06
3.71716e-06
3.71716e-06
)
;

boundaryField
{
    movingWall
    {
        type            zeroGradient;
    }
    fixedWalls
    {
        type            zeroGradient;
    }
    frontAndBack
    {
        type            empty;
    }
}


// ************************************************************************* //
