/*--------------------------------*- C++ -*----------------------------------*\
| =========                 |                                                 |
| \\      /  F ield         | OpenFOAM: The Open Source CFD Toolbox           |
|  \\    /   O peration     | Version:  2506                                  |
|   \\  /    A nd           | Website:  www.openfoam.com                      |
|    \\/     M anipulation  |                                                 |
\*---------------------------------------------------------------------------*/
FoamFile
{
    version     2.0;
    format      ascii;
    arch        "LSB;label=32;scalar=64";
    class       volVectorField;
    location    "5.5";
    object      ddtU;
}
// * * * * * * * * * * * * * * * * * * * * * * * * * * * * * * * * * * * * * //

dimensions      [0 1 -2 0 0 0 0];

internalField   nonuniform List<vector> 
400
(
(-4.44089e-14 1.82716e-13 0)
(6.66134e-14 -2.27961e-14 0)
(0 -1.29663e-15 0)
(4.44089e-14 -8.53079e-16 0)
(2.22045e-14 6.79202e-15 0)
(2.22045e-14 1.42164e-14 0)
(4.44089e-14 7.7886e-15 0)
(0 -9.26483e-15 0)
(2.22045e-14 -7.67153e-15 0)
(2.22045e-14 -3.81543e-15 0)
(0 6.85779e-15 0)
(4.44089e-14 1.32709e-15 0)
(0 -1.73276e-15 0)
(0 -2.48686e-15 0)
(4.44089e-14 -5.21283e-15 0)
(4.44089e-14 7.05984e-15 0)
(0 -5.12171e-15 0)
(4.44089e-14 -6.24828e-15 0)
(2.22045e-14 1.43421e-14 0)
(0 3.35581e-15 0)
(-4.44089e-14 4.02048e-14 0)
(4.44089e-14 3.39624e-14 0)
(-4.44089e-14 2.06662e-14 0)
(-4.44089e-14 2.39118e-15 0)
(-4.44089e-14 -2.04965e-14 0)
(0 -1.17371e-14 0)
(4.44089e-14 1.20489e-14 0)
(4.44089e-14 9.58711e-15 0)
(4.44089e-14 1.00283e-15 0)
(0 2.40903e-15 0)
(0 8.27309e-15 0)
(4.44089e-14 -7.94587e-15 0)
(4.44089e-14 -7.91406e-15 0)
(4.44089e-14 -9.67459e-16 0)
(0 -8.14795e-15 0)
(0 2.22027e-14 0)
(-4.44089e-14 2.64441e-14 0)
(4.44089e-14 1.04517e-14 0)
(-6.66134e-14 1.07411e-14 0)
(-4.44089e-14 -8.47702e-15 0)
(2.22045e-13 8.41284e-14 0)
(0 6.00301e-14 0)
(2.22045e-14 2.75751e-14 0)
(0 -2.19263e-15 0)
(4.44089e-14 -3.0146e-14 0)
(-2.22045e-14 -3.24119e-14 0)
(-2.22045e-14 -1.35655e-14 0)
(-4.44089e-14 5.0416e-15 0)
(0 -2.23918e-15 0)
(6.66134e-14 4.39601e-15 0)
(4.44089e-14 9.23942e-15 0)
(2.22045e-14 1.25244e-15 0)
(-2.22045e-14 1.78242e-14 0)
(-4.44089e-14 2.4603e-14 0)
(-2.22045e-14 4.39463e-16 0)
(-8.88178e-14 8.13256e-15 0)
(0 1.57082e-14 0)
(6.66134e-14 9.54816e-15 0)
(0 3.46365e-15 0)
(2.22045e-14 -7.311e-15 0)
(-1.33227e-13 4.08786e-14 0)
(6.66134e-14 2.66307e-14 0)
(8.88178e-14 2.46615e-14 0)
(6.66134e-14 1.21666e-14 0)
(0 6.28868e-15 0)
(4.44089e-14 1.44192e-15 0)
(0 -3.21886e-16 0)
(2.22045e-14 -7.03355e-15 0)
(2.22045e-14 -7.55351e-16 0)
(0 1.31775e-14 0)
(-4.44089e-14 1.05062e-14 0)
(-4.44089e-14 1.55481e-14 0)
(-4.44089e-14 1.82369e-14 0)
(6.66134e-14 2.02476e-14 0)
(-2.22045e-14 2.67328e-15 0)
(-2.22045e-14 -1.04491e-14 0)
(4.44089e-14 -1.47896e-14 0)
(2.22045e-14 3.89704e-15 0)
(-2.22045e-14 1.53238e-14 0)
(2.22045e-14 9.30157e-15 0)
(4.44089e-14 8.82197e-15 0)
(0 -1.55502e-15 0)
(0 2.98321e-14 0)
(4.44089e-14 1.77762e-14 0)
(-2.22045e-14 3.25278e-14 0)
(-4.44089e-14 1.71349e-14 0)
(-8.88178e-14 3.12798e-15 0)
(-4.44089e-14 1.40674e-15 0)
(0 1.27239e-14 0)
(-8.88178e-14 6.82391e-15 0)
(0 4.00183e-15 0)
(8.88178e-14 1.31891e-14 0)
(2.22045e-14 1.15207e-14 0)
(2.22045e-14 -1.11367e-15 0)
(4.44089e-14 4.45109e-15 0)
(0 3.92021e-15 0)
(-8.88178e-14 2.36456e-16 0)
(0 8.40099e-15 0)
(0 1.74538e-14 0)
(0 1.50038e-14 0)
(-4.44089e-14 -3.73179e-14 0)
(0 1.09443e-14 0)
(4.44089e-14 1.26891e-14 0)
(0 2.09248e-14 0)
(4.44089e-14 3.91074e-14 0)
(6.66134e-14 2.39818e-14 0)
(2.22045e-14 -3.37805e-15 0)
(2.22045e-14 3.12163e-16 0)
(2.22045e-14 -3.85724e-15 0)
(8.88178e-14 -1.0498e-14 0)
(2.22045e-14 7.39215e-15 0)
(4.44089e-14 1.32489e-14 0)
(4.44089e-14 2.35234e-14 0)
(0 5.47137e-15 0)
(2.22045e-14 8.46189e-15 0)
(2.22045e-14 8.52006e-15 0)
(4.44089e-14 -4.72021e-15 0)
(-2.22045e-14 -1.31011e-15 0)
(0 1.39203e-14 0)
(0 1.69761e-14 0)
(8.88178e-14 6.56583e-14 0)
(-8.88178e-14 -1.97373e-14 0)
(-4.44089e-14 2.94852e-15 0)
(-4.44089e-14 1.49466e-14 0)
(-2.22045e-14 2.22499e-14 0)
(2.22045e-14 2.7098e-14 0)
(-2.22045e-14 2.68101e-14 0)
(-2.22045e-14 9.7939e-15 0)
(0 -3.98874e-15 0)
(-6.66134e-14 -4.4665e-15 0)
(0 3.63123e-15 0)
(0 1.16335e-14 0)
(2.22045e-14 5.50342e-15 0)
(4.44089e-14 -7.9795e-15 0)
(4.44089e-14 -9.32053e-15 0)
(2.22045e-14 9.09058e-15 0)
(6.66134e-14 1.84618e-14 0)
(0 9.49344e-15 0)
(2.22045e-14 7.28354e-15 0)
(0 1.3652e-14 0)
(-2.22045e-14 4.92702e-14 0)
(4.44089e-14 -3.05219e-15 0)
(4.44089e-14 -5.60461e-15 0)
(0 -7.54315e-16 0)
(-4.44089e-14 5.13613e-15 0)
(0 1.79814e-14 0)
(-4.44089e-14 2.01718e-14 0)
(0 3.19671e-15 0)
(0 1.69716e-15 0)
(4.44089e-14 8.80426e-15 0)
(0 4.1362e-15 0)
(0 -4.81917e-15 0)
(0 -1.32977e-14 0)
(0 -1.11141e-14 0)
(0 -4.33339e-15 0)
(-4.44089e-14 8.17519e-15 0)
(4.44089e-14 2.65955e-14 0)
(0 1.80874e-14 0)
(-4.44089e-14 1.21441e-14 0)
(0 1.11358e-14 0)
(1.77636e-13 -4.42021e-14 0)
(-1.11022e-13 2.12158e-14 0)
(4.44089e-14 -5.68967e-15 0)
(0 6.22161e-15 0)
(-2.22045e-14 -7.27426e-15 0)
(0 -3.71128e-15 0)
(4.44089e-14 -2.23358e-15 0)
(2.22045e-14 -7.51098e-15 0)
(4.44089e-14 4.52292e-15 0)
(-2.22045e-14 1.50327e-14 0)
(4.44089e-14 1.86359e-14 0)
(0 -6.47446e-15 0)
(0 -5.26468e-15 0)
(2.22045e-14 5.13861e-15 0)
(-4.44089e-14 3.16053e-15 0)
(0 -7.35974e-15 0)
(2.22045e-14 -5.46447e-15 0)
(2.22045e-14 1.95443e-14 0)
(2.22045e-14 2.37659e-14 0)
(0 1.1481e-14 0)
(4.44089e-14 8.43502e-14 0)
(4.44089e-14 7.01058e-16 0)
(4.44089e-14 9.28622e-16 0)
(-2.22045e-14 -4.20825e-15 0)
(2.22045e-14 -9.88906e-15 0)
(0 -7.83503e-15 0)
(0 1.80744e-15 0)
(-4.44089e-14 1.43434e-14 0)
(-4.44089e-14 9.24297e-15 0)
(0 3.58454e-15 0)
(-6.66134e-14 1.28321e-14 0)
(0 4.51766e-15 0)
(-4.44089e-14 -5.67991e-15 0)
(0 9.57143e-15 0)
(-4.44089e-14 1.00038e-14 0)
(0 4.13312e-15 0)
(-4.44089e-14 -8.58589e-15 0)
(-4.44089e-14 -5.41441e-16 0)
(0 8.19196e-15 0)
(0 1.52067e-14 0)
(8.88178e-14 -1.8262e-13 0)
(0 4.80999e-14 0)
(4.44089e-14 4.25854e-16 0)
(4.44089e-14 3.46587e-15 0)
(2.22045e-14 5.9218e-15 0)
(0 1.23142e-14 0)
(0 2.07503e-14 0)
(2.22045e-14 4.18657e-14 0)
(4.44089e-14 1.45659e-14 0)
(-2.22045e-14 -1.3292e-14 0)
(-2.22045e-14 -1.12528e-14 0)
(2.22045e-14 -2.0932e-15 0)
(2.22045e-14 -1.84392e-14 0)
(-2.22045e-14 1.91595e-14 0)
(6.66134e-14 3.11536e-14 0)
(4.44089e-14 9.67897e-15 0)
(2.22045e-14 -4.30161e-15 0)
(0 -8.2488e-15 0)
(0 1.68282e-15 0)
(0 9.35674e-15 0)
(-1.9984e-13 7.86253e-14 0)
(-4.44089e-14 -1.13389e-14 0)
(-4.44089e-14 -7.15162e-15 0)
(-4.44089e-14 2.5457e-15 0)
(-4.44089e-14 1.3458e-14 0)
(0 1.4348e-14 0)
(4.44089e-14 1.434e-14 0)
(4.44089e-14 2.51877e-14 0)
(0 2.00385e-14 0)
(0 8.3931e-15 0)
(-4.44089e-14 2.19715e-15 0)
(0 6.53642e-15 0)
(-8.88178e-14 -8.0568e-15 0)
(-4.44089e-14 -1.19783e-14 0)
(0 -4.73735e-15 0)
(4.44089e-14 -1.90281e-14 0)
(0 -3.12479e-15 0)
(0 1.22399e-14 0)
(0 1.61166e-14 0)
(0 -4.39553e-15 0)
(0 1.18568e-13 0)
(0 -4.2215e-14 0)
(0 -1.02961e-14 0)
(2.22045e-14 -3.03906e-15 0)
(0 3.90145e-15 0)
(4.44089e-14 1.33645e-14 0)
(0 2.0178e-14 0)
(0 1.22536e-15 0)
(8.88178e-14 2.12934e-15 0)
(0 2.39357e-14 0)
(4.44089e-14 1.10814e-14 0)
(4.44089e-14 1.10729e-14 0)
(8.88178e-14 2.04491e-15 0)
(4.44089e-14 -2.55173e-14 0)
(0 -1.4238e-14 0)
(-2.22045e-14 2.78993e-15 0)
(0 3.37111e-15 0)
(-8.88178e-14 -6.6033e-15 0)
(4.44089e-14 4.0162e-15 0)
(0 9.75113e-15 0)
(1.11022e-13 -8.6365e-14 0)
(0 4.09695e-14 0)
(4.44089e-14 3.48457e-15 0)
(0 1.26684e-14 0)
(0 4.2729e-15 0)
(-2.22045e-14 5.11377e-15 0)
(-2.22045e-14 1.50561e-14 0)
(2.22045e-14 7.62668e-15 0)
(-4.44089e-14 3.58785e-15 0)
(-4.44089e-14 1.36465e-14 0)
(-2.22045e-14 5.2041e-15 0)
(-2.22045e-14 -9.51002e-15 0)
(0 -6.22886e-15 0)
(0 -1.13744e-15 0)
(-2.22045e-14 4.51309e-15 0)
(2.22045e-14 2.46746e-14 0)
(2.22045e-14 8.06644e-15 0)
(-2.22045e-14 -9.49697e-15 0)
(0 -1.05296e-14 0)
(-2.22045e-14 1.51234e-14 0)
(-8.88178e-14 4.83128e-14 0)
(0 2.10325e-14 0)
(4.44089e-14 1.37242e-14 0)
(4.44089e-14 1.89462e-14 0)
(4.44089e-14 2.05778e-14 0)
(0 2.46235e-14 0)
(0 1.30491e-15 0)
(0 -1.77299e-15 0)
(0 1.09453e-14 0)
(0 -3.42906e-16 0)
(4.44089e-14 -2.71714e-15 0)
(4.44089e-14 -7.92038e-15 0)
(2.22045e-14 3.15192e-15 0)
(0 7.14409e-15 0)
(-6.66134e-14 5.63939e-15 0)
(4.44089e-14 9.09723e-16 0)
(0 5.0931e-15 0)
(0 8.58485e-15 0)
(0 -1.05443e-14 0)
(0 4.80379e-15 0)
(-8.88178e-14 5.69488e-14 0)
(0 3.98737e-15 0)
(-8.88178e-14 4.3373e-15 0)
(0 5.25935e-15 0)
(-4.44089e-14 3.14732e-14 0)
(0 2.4475e-14 0)
(0 -8.82496e-15 0)
(0 -1.88767e-14 0)
(-4.44089e-14 2.02298e-15 0)
(0 -5.90468e-15 0)
(-4.44089e-14 -1.06681e-14 0)
(0 4.20225e-15 0)
(0 2.25476e-14 0)
(0 1.28078e-14 0)
(-4.44089e-14 1.02473e-14 0)
(4.44089e-14 1.12286e-14 0)
(0 5.07327e-15 0)
(0 -2.50523e-16 0)
(4.44089e-14 -5.61878e-15 0)
(0 5.60222e-15 0)
(0 -5.12583e-14 0)
(4.44089e-14 4.35426e-14 0)
(4.44089e-14 7.7177e-15 0)
(-2.22045e-14 3.78118e-16 0)
(8.88178e-14 1.23722e-14 0)
(2.22045e-14 -5.08836e-15 0)
(8.88178e-14 -6.10679e-15 0)
(-2.22045e-14 1.2543e-14 0)
(4.44089e-14 2.14892e-14 0)
(-2.22045e-14 7.09884e-15 0)
(2.22045e-14 -1.3226e-14 0)
(-2.22045e-14 1.61954e-15 0)
(-2.22045e-14 6.34166e-15 0)
(2.22045e-14 1.05375e-14 0)
(0 1.07283e-14 0)
(0 2.12753e-15 0)
(2.22045e-14 -5.00986e-15 0)
(6.66134e-14 6.27324e-15 0)
(4.44089e-14 1.49411e-14 0)
(0 1.49984e-14 0)
(-4.44089e-14 5.04871e-14 0)
(4.44089e-14 -2.26815e-14 0)
(0 2.64254e-14 0)
(4.44089e-14 2.62354e-14 0)
(0 1.52784e-14 0)
(-2.22045e-14 -7.18619e-16 0)
(0 4.94326e-15 0)
(-4.44089e-14 4.0954e-15 0)
(0 6.43296e-15 0)
(2.22045e-14 1.07861e-14 0)
(0 -4.74596e-15 0)
(-2.22045e-14 -5.40347e-15 0)
(2.22045e-14 -2.50997e-15 0)
(0 6.06588e-15 0)
(0 3.10707e-15 0)
(2.22045e-14 -8.23938e-15 0)
(0 -1.22155e-14 0)
(-4.44089e-14 -6.9127e-15 0)
(2.22045e-14 2.32655e-14 0)
(0 2.09603e-14 0)
(-2.22045e-14 -1.27755e-14 0)
(-4.44089e-14 -1.05284e-14 0)
(-4.44089e-14 1.57866e-14 0)
(-4.44089e-14 1.11112e-14 0)
(-4.44089e-14 -8.28354e-15 0)
(4.44089e-14 -7.56033e-15 0)
(8.88178e-14 1.22477e-14 0)
(0 1.00486e-14 0)
(0 -3.22462e-15 0)
(-8.88178e-14 -3.01226e-15 0)
(0 -6.44342e-15 0)
(0 -1.36027e-14 0)
(-4.44089e-14 1.15254e-15 0)
(0 -4.67615e-15 0)
(4.44089e-14 -9.39927e-15 0)
(0 6.15197e-15 0)
(4.44089e-14 3.00155e-15 0)
(0 -1.52164e-14 0)
(-4.44089e-14 4.7796e-16 0)
(0 5.70242e-15 0)
(2.22045e-14 -6.06318e-14 0)
(2.22045e-14 1.73078e-14 0)
(4.44089e-14 4.06879e-16 0)
(2.22045e-14 -1.04456e-14 0)
(0 -2.60649e-14 0)
(2.22045e-14 -7.25269e-15 0)
(0 1.43973e-14 0)
(2.22045e-14 2.49559e-14 0)
(4.44089e-14 9.57945e-15 0)
(4.44089e-14 -1.21775e-14 0)
(2.22045e-14 -1.52832e-14 0)
(0 -6.66883e-15 0)
(4.44089e-14 1.49512e-15 0)
(4.44089e-14 -3.80724e-15 0)
(4.44089e-14 -4.37691e-15 0)
(4.44089e-14 1.25174e-15 0)
(4.44089e-14 3.26786e-15 0)
(2.22045e-14 -4.96824e-16 0)
(-2.22045e-14 -6.64468e-15 0)
(-4.44089e-14 -7.23175e-16 0)
)
;

boundaryField
{
    movingWall
    {
        type            calculated;
        value           uniform (0 0 0);
    }
    fixedWalls
    {
        type            calculated;
        value           uniform (0 0 0);
    }
    frontAndBack
    {
        type            empty;
    }
}


// ************************************************************************* //
