/*--------------------------------*- C++ -*----------------------------------*\
| =========                 |                                                 |
| \\      /  F ield         | OpenFOAM: The Open Source CFD Toolbox           |
|  \\    /   O peration     | Version:  2506                                  |
|   \\  /    A nd           | Website:  www.openfoam.com                      |
|    \\/     M anipulation  |                                                 |
\*---------------------------------------------------------------------------*/
FoamFile
{
    version     2.0;
    format      ascii;
    arch        "LSB;label=32;scalar=64";
    class       volVectorField;
    location    "5.5";
    object      diffU;
}
// * * * * * * * * * * * * * * * * * * * * * * * * * * * * * * * * * * * * * //

dimensions      [0 1 -1 0 0 0 0];

internalField   nonuniform List<vector> 
400
(
(0 0 0)
(1.04361e-14 -6.59519e-14 0)
(7.99361e-15 -5.24752e-14 0)
(7.99361e-15 -5.56272e-14 0)
(7.88258e-15 -5.49995e-14 0)
(7.88258e-15 -5.50548e-14 0)
(7.99361e-15 -5.50052e-14 0)
(7.88258e-15 -5.50474e-14 0)
(7.77156e-15 -5.50958e-14 0)
(7.88258e-15 -5.51649e-14 0)
(7.66054e-15 -5.51177e-14 0)
(7.77156e-15 -5.50666e-14 0)
(7.66054e-15 -5.5043e-14 0)
(7.32747e-15 -5.50471e-14 0)
(7.32747e-15 -5.51708e-14 0)
(7.54952e-15 -5.51439e-14 0)
(7.10543e-15 -5.51363e-14 0)
(7.54952e-15 -5.51592e-14 0)
(7.43849e-15 -5.51386e-14 0)
(7.32747e-15 -5.51608e-14 0)
(2.19824e-14 -7.10284e-15 0)
(2.44249e-15 -6.53872e-14 0)
(6.66134e-15 -5.25438e-14 0)
(5.9952e-15 -5.55479e-14 0)
(5.9952e-15 -5.50823e-14 0)
(5.9952e-15 -5.53407e-14 0)
(6.43929e-15 -5.52849e-14 0)
(6.66134e-15 -5.52349e-14 0)
(6.88338e-15 -5.52328e-14 0)
(6.88338e-15 -5.51854e-14 0)
(7.10543e-15 -5.50542e-14 0)
(7.10543e-15 -5.50152e-14 0)
(7.10543e-15 -5.50025e-14 0)
(7.10543e-15 -5.50005e-14 0)
(6.88338e-15 -5.52502e-14 0)
(7.10543e-15 -5.52562e-14 0)
(6.88338e-15 -5.51219e-14 0)
(7.32747e-15 -5.51024e-14 0)
(7.10543e-15 -5.51802e-14 0)
(6.88338e-15 -5.52667e-14 0)
(3.77476e-15 -1.52372e-13 0)
(9.4369e-15 -3.34584e-14 0)
(7.54952e-15 -5.96282e-14 0)
(7.99361e-15 -5.36715e-14 0)
(7.99361e-15 -5.52513e-14 0)
(7.88258e-15 -5.5255e-14 0)
(7.66054e-15 -5.54971e-14 0)
(7.43849e-15 -5.55049e-14 0)
(7.43849e-15 -5.54788e-14 0)
(7.43849e-15 -5.53664e-14 0)
(7.54952e-15 -5.51737e-14 0)
(7.66054e-15 -5.50503e-14 0)
(7.32747e-15 -5.49731e-14 0)
(7.43849e-15 -5.49144e-14 0)
(7.43849e-15 -5.5084e-14 0)
(7.10543e-15 -5.52042e-14 0)
(7.10543e-15 -5.51915e-14 0)
(7.43849e-15 -5.52244e-14 0)
(7.43849e-15 -5.5315e-14 0)
(7.43849e-15 -5.53055e-14 0)
(-4.44089e-16 -1.2456e-15 0)
(8.54872e-15 -6.70126e-14 0)
(7.10543e-15 -5.22649e-14 0)
(7.43849e-15 -5.57287e-14 0)
(7.66054e-15 -5.49689e-14 0)
(7.77156e-15 -5.51924e-14 0)
(7.99361e-15 -5.52598e-14 0)
(7.66054e-15 -5.53062e-14 0)
(7.66054e-15 -5.52312e-14 0)
(7.54952e-15 -5.51238e-14 0)
(7.10543e-15 -5.50401e-14 0)
(6.88338e-15 -5.49442e-14 0)
(7.10543e-15 -5.49635e-14 0)
(7.43849e-15 -5.49939e-14 0)
(7.32747e-15 -5.50379e-14 0)
(7.32747e-15 -5.51438e-14 0)
(7.32747e-15 -5.52388e-14 0)
(7.54952e-15 -5.52819e-14 0)
(7.32747e-15 -5.52728e-14 0)
(7.43849e-15 -5.52233e-14 0)
(6.66134e-15 -6.1133e-14 0)
(7.10543e-15 -5.40968e-14 0)
(6.88338e-15 -5.56959e-14 0)
(7.66054e-15 -5.52402e-14 0)
(7.32747e-15 -5.52168e-14 0)
(7.10543e-15 -5.51838e-14 0)
(6.88338e-15 -5.52436e-14 0)
(6.66134e-15 -5.52158e-14 0)
(7.10543e-15 -5.51134e-14 0)
(6.66134e-15 -5.50502e-14 0)
(6.88338e-15 -5.51111e-14 0)
(7.54952e-15 -5.51121e-14 0)
(7.54952e-15 -5.50653e-14 0)
(7.54952e-15 -5.51576e-14 0)
(7.54952e-15 -5.51746e-14 0)
(7.66054e-15 -5.51551e-14 0)
(7.10543e-15 -5.51843e-14 0)
(7.32747e-15 -5.52121e-14 0)
(7.43849e-15 -5.52018e-14 0)
(7.32747e-15 -5.51766e-14 0)
(1.88738e-14 -7.77859e-14 0)
(5.77316e-15 -5.05438e-14 0)
(9.10383e-15 -5.62504e-14 0)
(7.54952e-15 -5.48933e-14 0)
(7.77156e-15 -5.5089e-14 0)
(7.88258e-15 -5.5004e-14 0)
(7.99361e-15 -5.50402e-14 0)
(7.43849e-15 -5.51293e-14 0)
(7.54952e-15 -5.52796e-14 0)
(7.88258e-15 -5.52995e-14 0)
(7.88258e-15 -5.52697e-14 0)
(7.77156e-15 -5.52503e-14 0)
(7.77156e-15 -5.51279e-14 0)
(7.43849e-15 -5.51114e-14 0)
(7.54952e-15 -5.51278e-14 0)
(7.66054e-15 -5.5065e-14 0)
(7.66054e-15 -5.51205e-14 0)
(7.43849e-15 -5.51936e-14 0)
(7.32747e-15 -5.51792e-14 0)
(7.43849e-15 -5.51188e-14 0)
(-6.66134e-16 -2.79374e-14 0)
(9.32587e-15 -6.0595e-14 0)
(6.88338e-15 -5.3974e-14 0)
(7.66054e-15 -5.54186e-14 0)
(7.32747e-15 -5.50909e-14 0)
(7.43849e-15 -5.50887e-14 0)
(7.43849e-15 -5.49297e-14 0)
(7.43849e-15 -5.50056e-14 0)
(7.66054e-15 -5.51691e-14 0)
(7.43849e-15 -5.52147e-14 0)
(7.32747e-15 -5.51675e-14 0)
(7.54952e-15 -5.51432e-14 0)
(7.66054e-15 -5.50894e-14 0)
(7.77156e-15 -5.50591e-14 0)
(7.66054e-15 -5.51352e-14 0)
(7.54952e-15 -5.51348e-14 0)
(7.77156e-15 -5.50149e-14 0)
(7.54952e-15 -5.49873e-14 0)
(7.43849e-15 -5.5043e-14 0)
(7.43849e-15 -5.50577e-14 0)
(1.35447e-14 -6.06749e-14 0)
(5.55112e-15 -5.3497e-14 0)
(7.54952e-15 -5.5469e-14 0)
(6.66134e-15 -5.5012e-14 0)
(6.88338e-15 -5.51675e-14 0)
(6.88338e-15 -5.50901e-14 0)
(6.88338e-15 -5.50751e-14 0)
(6.88338e-15 -5.51503e-14 0)
(7.10543e-15 -5.51406e-14 0)
(7.10543e-15 -5.51797e-14 0)
(7.10543e-15 -5.52328e-14 0)
(7.10543e-15 -5.5278e-14 0)
(6.88338e-15 -5.52771e-14 0)
(6.88338e-15 -5.52232e-14 0)
(7.10543e-15 -5.52013e-14 0)
(7.10543e-15 -5.51547e-14 0)
(7.10543e-15 -5.50287e-14 0)
(7.10543e-15 -5.50013e-14 0)
(7.10543e-15 -5.50266e-14 0)
(7.32747e-15 -5.508e-14 0)
(-5.32907e-15 -6.90787e-14 0)
(1.06581e-14 -5.23861e-14 0)
(6.43929e-15 -5.56886e-14 0)
(7.99361e-15 -5.50398e-14 0)
(7.32747e-15 -5.52001e-14 0)
(7.43849e-15 -5.51557e-14 0)
(7.66054e-15 -5.51831e-14 0)
(7.77156e-15 -5.5225e-14 0)
(7.77156e-15 -5.51592e-14 0)
(7.66054e-15 -5.51426e-14 0)
(7.77156e-15 -5.51522e-14 0)
(7.66054e-15 -5.52555e-14 0)
(7.43849e-15 -5.52762e-14 0)
(7.66054e-15 -5.51734e-14 0)
(7.32747e-15 -5.50498e-14 0)
(7.32747e-15 -5.50925e-14 0)
(7.43849e-15 -5.51872e-14 0)
(7.43849e-15 -5.51565e-14 0)
(7.43849e-15 -5.49996e-14 0)
(7.54952e-15 -5.50786e-14 0)
(1.53211e-14 -4.28157e-14 0)
(5.9952e-15 -5.75249e-14 0)
(8.32667e-15 -5.45198e-14 0)
(7.43849e-15 -5.52898e-14 0)
(7.54952e-15 -5.51751e-14 0)
(7.66054e-15 -5.52115e-14 0)
(7.66054e-15 -5.52067e-14 0)
(7.43849e-15 -5.51285e-14 0)
(7.32747e-15 -5.51167e-14 0)
(7.32747e-15 -5.51538e-14 0)
(7.10543e-15 -5.50895e-14 0)
(7.32747e-15 -5.50741e-14 0)
(6.88338e-15 -5.51216e-14 0)
(7.10543e-15 -5.5142e-14 0)
(7.10543e-15 -5.50366e-14 0)
(7.10543e-15 -5.51202e-14 0)
(7.10543e-15 -5.52279e-14 0)
(6.88338e-15 -5.51801e-14 0)
(7.10543e-15 -5.51013e-14 0)
(7.32747e-15 -5.51022e-14 0)
(-5.9952e-15 -6.17457e-14 0)
(1.04361e-14 -5.48386e-14 0)
(6.43929e-15 -5.52249e-14 0)
(8.21565e-15 -5.52248e-14 0)
(7.77156e-15 -5.51608e-14 0)
(7.88258e-15 -5.52088e-14 0)
(7.88258e-15 -5.51654e-14 0)
(7.99361e-15 -5.49956e-14 0)
(7.99361e-15 -5.49955e-14 0)
(7.77156e-15 -5.50359e-14 0)
(7.66054e-15 -5.50733e-14 0)
(7.43849e-15 -5.5028e-14 0)
(7.66054e-15 -5.51871e-14 0)
(7.43849e-15 -5.52057e-14 0)
(7.66054e-15 -5.50647e-14 0)
(7.77156e-15 -5.50576e-14 0)
(7.54952e-15 -5.51021e-14 0)
(7.43849e-15 -5.51384e-14 0)
(7.43849e-15 -5.51862e-14 0)
(7.54952e-15 -5.51369e-14 0)
(3.11973e-14 -5.81849e-14 0)
(1.9984e-15 -5.37162e-14 0)
(8.54872e-15 -5.53827e-14 0)
(5.9952e-15 -5.50384e-14 0)
(6.66134e-15 -5.51729e-14 0)
(6.66134e-15 -5.51692e-14 0)
(6.66134e-15 -5.51292e-14 0)
(6.66134e-15 -5.50303e-14 0)
(6.43929e-15 -5.49885e-14 0)
(6.66134e-15 -5.50065e-14 0)
(6.43929e-15 -5.50508e-14 0)
(6.66134e-15 -5.50689e-14 0)
(6.66134e-15 -5.51251e-14 0)
(6.43929e-15 -5.51114e-14 0)
(6.66134e-15 -5.51387e-14 0)
(7.10543e-15 -5.5199e-14 0)
(7.10543e-15 -5.51429e-14 0)
(7.32747e-15 -5.51034e-14 0)
(7.43849e-15 -5.50324e-14 0)
(7.32747e-15 -5.5124e-14 0)
(-1.68754e-14 -3.90102e-14 0)
(1.09912e-14 -5.79218e-14 0)
(4.88498e-15 -5.44914e-14 0)
(7.54952e-15 -5.53129e-14 0)
(6.66134e-15 -5.5211e-14 0)
(7.10543e-15 -5.51956e-14 0)
(6.88338e-15 -5.50562e-14 0)
(6.66134e-15 -5.51038e-14 0)
(7.10543e-15 -5.51953e-14 0)
(6.88338e-15 -5.51586e-14 0)
(6.88338e-15 -5.51265e-14 0)
(7.10543e-15 -5.51665e-14 0)
(7.32747e-15 -5.51892e-14 0)
(7.10543e-15 -5.53239e-14 0)
(7.10543e-15 -5.53864e-14 0)
(7.32747e-15 -5.52801e-14 0)
(7.32747e-15 -5.5191e-14 0)
(6.66134e-15 -5.52125e-14 0)
(7.10543e-15 -5.52289e-14 0)
(7.32747e-15 -5.51935e-14 0)
(2.04281e-14 -8.21438e-14 0)
(5.9952e-15 -4.9966e-14 0)
(9.4369e-15 -5.63565e-14 0)
(7.99361e-15 -5.48746e-14 0)
(8.32667e-15 -5.51317e-14 0)
(7.88258e-15 -5.50959e-14 0)
(7.88258e-15 -5.50543e-14 0)
(8.10463e-15 -5.50384e-14 0)
(7.77156e-15 -5.51185e-14 0)
(7.54952e-15 -5.50974e-14 0)
(7.66054e-15 -5.5112e-14 0)
(7.77156e-15 -5.51288e-14 0)
(7.66054e-15 -5.52078e-14 0)
(7.66054e-15 -5.53792e-14 0)
(7.66054e-15 -5.535e-14 0)
(7.77156e-15 -5.50881e-14 0)
(7.43849e-15 -5.50637e-14 0)
(7.54952e-15 -5.519e-14 0)
(7.66054e-15 -5.53027e-14 0)
(7.43849e-15 -5.52025e-14 0)
(1.77636e-15 -2.76223e-14 0)
(7.88258e-15 -6.10232e-14 0)
(6.66134e-15 -5.38281e-14 0)
(7.10543e-15 -5.54188e-14 0)
(7.10543e-15 -5.49882e-14 0)
(7.10543e-15 -5.49506e-14 0)
(7.10543e-15 -5.50052e-14 0)
(6.88338e-15 -5.51073e-14 0)
(7.10543e-15 -5.50643e-14 0)
(7.10543e-15 -5.5119e-14 0)
(7.10543e-15 -5.52125e-14 0)
(7.32747e-15 -5.51974e-14 0)
(7.54952e-15 -5.51693e-14 0)
(7.43849e-15 -5.52015e-14 0)
(7.10543e-15 -5.51756e-14 0)
(7.32747e-15 -5.51418e-14 0)
(7.43849e-15 -5.51182e-14 0)
(7.10543e-15 -5.51135e-14 0)
(7.32747e-15 -5.51607e-14 0)
(7.43849e-15 -5.51674e-14 0)
(1.16573e-14 -7.72647e-14 0)
(5.77316e-15 -4.99628e-14 0)
(6.88338e-15 -5.62658e-14 0)
(6.88338e-15 -5.48363e-14 0)
(6.43929e-15 -5.50916e-14 0)
(6.66134e-15 -5.49397e-14 0)
(6.66134e-15 -5.50417e-14 0)
(7.10543e-15 -5.5257e-14 0)
(6.88338e-15 -5.5245e-14 0)
(7.10543e-15 -5.52361e-14 0)
(7.10543e-15 -5.53227e-14 0)
(6.88338e-15 -5.53595e-14 0)
(7.10543e-15 -5.52272e-14 0)
(6.88338e-15 -5.50837e-14 0)
(6.88338e-15 -5.51133e-14 0)
(7.10543e-15 -5.52193e-14 0)
(6.88338e-15 -5.52392e-14 0)
(7.10543e-15 -5.52091e-14 0)
(7.32747e-15 -5.52346e-14 0)
(7.32747e-15 -5.51834e-14 0)
(-4.88498e-15 -5.00531e-14 0)
(9.76996e-15 -5.65465e-14 0)
(6.66134e-15 -5.47275e-14 0)
(7.43849e-15 -5.51978e-14 0)
(7.54952e-15 -5.50619e-14 0)
(7.43849e-15 -5.51688e-14 0)
(7.77156e-15 -5.52542e-14 0)
(7.66054e-15 -5.52141e-14 0)
(7.88258e-15 -5.51534e-14 0)
(7.77156e-15 -5.50776e-14 0)
(7.66054e-15 -5.51826e-14 0)
(7.43849e-15 -5.52684e-14 0)
(7.32747e-15 -5.52692e-14 0)
(7.43849e-15 -5.51366e-14 0)
(7.54952e-15 -5.51382e-14 0)
(7.43849e-15 -5.52274e-14 0)
(7.43849e-15 -5.53212e-14 0)
(7.43849e-15 -5.52528e-14 0)
(7.54952e-15 -5.51772e-14 0)
(7.43849e-15 -5.51311e-14 0)
(1.23235e-14 -3.21915e-14 0)
(6.43929e-15 -6.00188e-14 0)
(7.54952e-15 -5.42493e-14 0)
(7.32747e-15 -5.53978e-14 0)
(7.43849e-15 -5.50363e-14 0)
(7.32747e-15 -5.51237e-14 0)
(7.32747e-15 -5.51624e-14 0)
(7.10543e-15 -5.52012e-14 0)
(7.10543e-15 -5.52491e-14 0)
(7.43849e-15 -5.51807e-14 0)
(7.43849e-15 -5.51628e-14 0)
(7.32747e-15 -5.51802e-14 0)
(7.43849e-15 -5.52289e-14 0)
(7.43849e-15 -5.51925e-14 0)
(7.43849e-15 -5.51103e-14 0)
(7.77156e-15 -5.51105e-14 0)
(7.66054e-15 -5.5181e-14 0)
(7.10543e-15 -5.51775e-14 0)
(7.43849e-15 -5.51174e-14 0)
(7.32747e-15 -5.50924e-14 0)
(7.43849e-15 -5.89237e-14 0)
(5.9952e-15 -5.51047e-14 0)
(6.21725e-15 -5.53884e-14 0)
(6.88338e-15 -5.52379e-14 0)
(6.66134e-15 -5.51857e-14 0)
(6.88338e-15 -5.51873e-14 0)
(7.10543e-15 -5.51926e-14 0)
(6.88338e-15 -5.52935e-14 0)
(7.10543e-15 -5.53018e-14 0)
(6.88338e-15 -5.52687e-14 0)
(6.88338e-15 -5.52333e-14 0)
(7.10543e-15 -5.52557e-14 0)
(7.10543e-15 -5.51959e-14 0)
(6.88338e-15 -5.52088e-14 0)
(7.10543e-15 -5.52359e-14 0)
(6.88338e-15 -5.51586e-14 0)
(7.10543e-15 -5.51113e-14 0)
(7.10543e-15 -5.52061e-14 0)
(7.10543e-15 -5.52585e-14 0)
(7.32747e-15 -5.52076e-14 0)
(1.21014e-14 -1.08141e-13 0)
(7.77156e-15 -4.43749e-14 0)
(9.10383e-15 -5.77926e-14 0)
(7.99361e-15 -5.47723e-14 0)
(8.10463e-15 -5.54453e-14 0)
(8.10463e-15 -5.52784e-14 0)
(8.10463e-15 -5.52749e-14 0)
(7.99361e-15 -5.52345e-14 0)
(7.77156e-15 -5.51236e-14 0)
(7.88258e-15 -5.51357e-14 0)
(7.88258e-15 -5.5215e-14 0)
(7.54952e-15 -5.52451e-14 0)
(7.66054e-15 -5.51779e-14 0)
(7.77156e-15 -5.5191e-14 0)
(7.66054e-15 -5.52487e-14 0)
(7.77156e-15 -5.52381e-14 0)
(7.77156e-15 -5.51931e-14 0)
(7.54952e-15 -5.52222e-14 0)
(7.43849e-15 -5.52614e-14 0)
(7.43849e-15 -5.52228e-14 0)
)
;

boundaryField
{
    movingWall
    {
        type            calculated;
        value           uniform (7.32747e-15 -5.51646e-14 0);
    }
    fixedWalls
    {
        type            calculated;
        value           uniform (7.32747e-15 -5.51646e-14 0);
    }
    frontAndBack
    {
        type            empty;
    }
}


// ************************************************************************* //
