/*--------------------------------*- C++ -*----------------------------------*\
| =========                 |                                                 |
| \\      /  F ield         | OpenFOAM: The Open Source CFD Toolbox           |
|  \\    /   O peration     | Version:  2506                                  |
|   \\  /    A nd           | Website:  www.openfoam.com                      |
|    \\/     M anipulation  |                                                 |
\*---------------------------------------------------------------------------*/
FoamFile
{
    version     2.0;
    format      ascii;
    arch        "LSB;label=32;scalar=64";
    class       volScalarField;
    location    "5.5";
    object      divPhi;
}
// * * * * * * * * * * * * * * * * * * * * * * * * * * * * * * * * * * * * * //

dimensions      [0 0 -1 0 0 0 0];

internalField   nonuniform List<scalar> 
400
(
5.42101e-14
1.19016e-14
-5.29819e-15
1.66828e-14
-1.12904e-14
4.14785e-16
1.99709e-15
4.60675e-15
-8.50204e-15
9.66459e-16
1.08228e-14
-1.16752e-14
4.2314e-16
1.14034e-14
-1.27426e-14
-6.70236e-15
3.68316e-15
3.79226e-15
1.0799e-15
0
0
1.57926e-15
1.81787e-14
-7.2653e-16
6.94121e-15
-1.51452e-14
3.15162e-15
-1.60964e-14
-4.11961e-15
-2.6754e-14
2.08103e-14
3.60947e-15
5.02347e-16
1.29086e-14
-1.98359e-14
1.05277e-14
9.97201e-15
5.80553e-15
1.49313e-14
0
0
1.24553e-14
-2.07972e-14
-2.54177e-14
2.20226e-14
6.38433e-15
2.14899e-14
-1.5816e-14
2.5152e-14
1.11891e-15
-8.02468e-15
5.76454e-16
-5.2883e-16
2.08241e-14
-7.81572e-15
4.73726e-15
1.48235e-14
-1.83863e-14
-8.19702e-15
-2.71051e-14
0
1.391e-14
-5.65157e-15
7.56823e-15
-8.10436e-15
7.45834e-15
-2.16768e-14
2.67943e-14
-7.23826e-15
3.01175e-14
-2.18728e-14
-1.07902e-14
-4.50409e-15
-1.79083e-14
-1.53852e-14
2.6085e-14
-1.46333e-14
8.60866e-15
-3.66156e-15
2.71051e-14
2.71051e-14
-2.3209e-14
2.45054e-14
-6.39043e-15
-3.58356e-15
3.13824e-15
1.07687e-15
1.95026e-14
-2.65681e-14
-2.9494e-15
1.60153e-14
2.75515e-15
1.39991e-14
-1.75281e-14
4.62987e-15
1.60887e-14
-1.84795e-14
2.13009e-14
-1.14644e-14
0
-2.71051e-14
2.42592e-15
-9.56608e-15
-3.57306e-15
-1.31336e-15
1.03052e-14
-1.80313e-14
1.36695e-14
7.09182e-15
-2.69766e-14
2.05051e-14
1.38762e-14
-3.49765e-14
1.49796e-14
-2.45601e-15
1.07078e-14
-9.34975e-15
-1.64745e-14
-1.70415e-14
2.71051e-14
2.71051e-14
1.45238e-14
-3.32895e-14
5.22358e-15
-4.92298e-15
2.05297e-14
1.08418e-14
-2.03339e-14
3.69026e-14
-7.55106e-15
-1.22731e-14
-2.22073e-14
-1.27491e-14
-1.84008e-14
1.02448e-14
7.6842e-16
-2.34262e-15
-1.14222e-14
2.758e-14
-2.71051e-14
0
1.08917e-15
-2.20978e-14
1.10511e-14
-1.7223e-14
-1.70998e-14
-1.59893e-14
2.51955e-14
-3.73219e-15
1.00815e-14
-1.53629e-15
-1.68486e-14
3.32416e-15
-1.20936e-14
-3.00101e-15
4.55841e-15
-7.09188e-15
-1.12527e-14
2.31045e-15
0
-2.71051e-14
1.04138e-14
1.02027e-14
1.31086e-14
2.00106e-15
1.63319e-14
1.34646e-14
-1.71851e-14
9.33936e-15
3.06846e-15
-1.10467e-14
2.3344e-14
1.79338e-14
-2.60416e-14
3.10104e-15
1.91261e-14
-1.465e-14
-3.72046e-14
3.73154e-15
0
0
1.41808e-14
9.7734e-15
2.90029e-14
-1.30992e-14
-2.77733e-15
2.48706e-14
1.35093e-14
-4.63857e-15
1.10799e-14
-1.98855e-14
-1.07489e-15
1.34698e-14
-2.98991e-15
2.28102e-14
-1.33334e-14
2.23988e-14
-2.27038e-14
-4.46986e-15
0
2.71051e-14
-2.2726e-14
2.01464e-14
-2.62288e-15
-3.02735e-15
-6.41041e-15
-2.4228e-15
1.98725e-14
-2.21411e-14
-1.39235e-15
-1.26616e-14
-3.37385e-15
2.26075e-14
-1.78364e-14
-9.1762e-15
-1.47755e-14
1.75899e-14
-9.78334e-15
-1.62193e-14
2.71051e-14
0
1.57533e-14
-3.24012e-15
-8.68366e-15
1.83346e-15
-4.65995e-15
-1.09737e-14
-7.17413e-15
-2.55382e-15
-4.87196e-15
-7.93722e-16
-1.66232e-14
-7.28057e-15
3.10815e-14
-1.9814e-14
9.77789e-16
-1.15575e-14
-1.604e-14
1.37961e-14
-2.71051e-14
-2.71051e-14
9.03528e-15
-2.06041e-15
-2.2029e-15
4.2162e-15
2.00768e-16
-1.96425e-14
-8.47174e-15
-1.80701e-14
1.19974e-15
-1.73092e-14
2.75474e-14
1.6909e-15
1.89264e-15
-1.85443e-14
2.69889e-14
-1.27701e-14
1.15378e-14
-8.9113e-16
0
0
1.72845e-14
-1.05567e-14
5.43863e-15
-1.31108e-15
6.09859e-15
5.46975e-15
-2.95267e-14
3.09781e-14
-1.1392e-14
-1.41828e-15
5.69397e-15
1.16214e-15
2.34713e-14
2.29255e-14
-1.36203e-14
-5.95443e-15
-8.96022e-15
-7.96795e-15
0
0
-1.59936e-14
-8.58339e-15
-1.07044e-14
1.01665e-14
1.67255e-14
2.24616e-14
-3.32556e-14
3.56645e-16
-6.30763e-15
-3.23098e-15
-6.78194e-16
-6.26229e-15
9.33812e-16
-1.35646e-14
1.74046e-14
-1.15645e-14
4.47168e-15
-1.19531e-14
0
0
1.60407e-14
-2.50305e-14
1.98362e-14
-2.10668e-14
-5.65328e-15
-5.98112e-15
9.81541e-15
-1.23761e-14
2.42315e-15
-8.82532e-15
2.45594e-14
-2.66719e-14
1.62782e-14
9.45048e-15
-6.53332e-15
7.9928e-15
-1.01623e-14
-6.39998e-15
0
-2.71051e-14
-3.05552e-14
1.09826e-14
-1.39338e-14
-5.39908e-15
9.93391e-16
-1.66986e-14
3.93671e-14
-4.93519e-15
1.77377e-14
-2.15887e-14
-8.61326e-15
-1.44928e-14
1.47914e-15
1.5671e-14
-2.66517e-14
5.45167e-15
8.49085e-15
3.21935e-15
2.71051e-14
2.71051e-14
-5.9942e-15
9.49196e-16
1.839e-14
7.23629e-15
3.17659e-15
5.24079e-15
-1.80035e-15
4.47052e-15
-2.48452e-14
7.76543e-15
-9.34662e-15
2.01666e-14
-1.45063e-14
-1.36007e-14
4.86951e-15
6.92677e-15
5.66993e-17
-2.60015e-14
0
0
-1.18007e-14
-5.99969e-15
4.58175e-16
-5.93e-15
1.94249e-14
-5.6387e-15
-2.8111e-14
1.5559e-14
-6.53681e-15
1.8017e-14
7.39042e-16
-6.75747e-15
2.63736e-14
1.6488e-14
-9.22591e-15
1.71295e-15
1.83921e-14
-2.53458e-14
0
0
-2.71051e-14
-2.71051e-14
0
0
0
0
0
0
-2.71051e-14
0
2.71051e-14
0
0
0
0
0
-2.71051e-14
0
0
)
;

boundaryField
{
    movingWall
    {
        type            extrapolatedCalculated;
        value           nonuniform List<scalar> 
20
(
0
-2.71051e-14
-2.71051e-14
0
0
0
0
0
0
-2.71051e-14
0
2.71051e-14
0
0
0
0
0
-2.71051e-14
0
0
)
;
    }
    fixedWalls
    {
        type            extrapolatedCalculated;
        value           nonuniform List<scalar> 
60
(
5.42101e-14
0
0
0
2.71051e-14
-2.71051e-14
2.71051e-14
0
-2.71051e-14
0
2.71051e-14
0
-2.71051e-14
0
0
0
-2.71051e-14
2.71051e-14
0
0
0
0
-2.71051e-14
2.71051e-14
0
2.71051e-14
-2.71051e-14
0
0
0
2.71051e-14
-2.71051e-14
0
0
0
0
2.71051e-14
0
0
0
5.42101e-14
1.19016e-14
-5.29819e-15
1.66828e-14
-1.12904e-14
4.14785e-16
1.99709e-15
4.60675e-15
-8.50204e-15
9.66459e-16
1.08228e-14
-1.16752e-14
4.2314e-16
1.14034e-14
-1.27426e-14
-6.70236e-15
3.68316e-15
3.79226e-15
1.0799e-15
0
)
;
    }
    frontAndBack
    {
        type            empty;
    }
}


// ************************************************************************* //
