/*--------------------------------*- C++ -*----------------------------------*\
| =========                 |                                                 |
| \\      /  F ield         | OpenFOAM: The Open Source CFD Toolbox           |
|  \\    /   O peration     | Version:  2506                                  |
|   \\  /    A nd           | Website:  www.openfoam.com                      |
|    \\/     M anipulation  |                                                 |
\*---------------------------------------------------------------------------*/
FoamFile
{
    version     2.0;
    format      ascii;
    arch        "LSB;label=32;scalar=64";
    class       volScalarField;
    location    "5.5";
    object      divU;
}
// * * * * * * * * * * * * * * * * * * * * * * * * * * * * * * * * * * * * * //

dimensions      [0 0 -1 0 0 0 0];

internalField   nonuniform List<scalar> 
400
(
9.89334e-12
-1.28784e-12
2.87068e-13
-8.45943e-14
-2.36427e-15
2.04634e-14
-2.32039e-14
4.69358e-15
-2.70585e-14
-2.11145e-15
-1.13793e-14
5.18419e-14
-2.58469e-14
1.04831e-15
1.79187e-14
-3.42045e-14
7.09473e-15
6.09599e-14
-5.31713e-14
0
-1.42302e-11
1.71756e-12
-3.74014e-13
1.38084e-13
-2.75437e-14
2.75535e-14
-1.81779e-14
1.31483e-14
1.59584e-14
4.84271e-15
-1.69818e-14
-7.45533e-16
8.24188e-15
-1.27883e-14
-5.00596e-16
1.39809e-14
1.57992e-15
2.31126e-16
-4.37104e-14
5.42101e-14
4.33681e-13
2.26873e-13
-1.29285e-13
3.86884e-14
-1.62057e-14
-1.18243e-14
-1.56709e-14
-2.1088e-14
-1.09821e-14
3.81073e-14
1.15345e-14
6.35461e-15
-4.20625e-14
1.49739e-14
-6.37876e-15
-5.60939e-14
4.40997e-14
9.39259e-15
1.2452e-15
-2.71051e-14
8.42967e-12
-1.26776e-12
2.91045e-13
-9.10724e-14
4.14497e-14
2.23965e-14
3.6783e-14
-1.9286e-14
2.55562e-14
-1.1587e-14
-3.64142e-14
-2.69258e-14
8.42452e-14
-9.34125e-15
-4.25413e-14
3.02531e-15
1.77055e-14
1.06199e-14
1.25597e-14
0
-7.75205e-12
1.68016e-12
-3.51449e-13
1.27985e-13
-7.89791e-14
-4.00801e-14
4.53845e-15
2.55043e-14
-6.39022e-15
-2.91549e-14
-5.16439e-15
7.79968e-14
-1.35139e-14
-2.10899e-14
2.68246e-15
-1.61966e-14
-2.46735e-14
1.94484e-14
4.90183e-14
-2.71051e-14
4.3097e-12
-1.62595e-12
3.35742e-13
-1.60905e-13
6.91388e-14
2.36413e-14
-1.82853e-14
-3.47832e-14
1.51484e-14
3.57121e-14
-1.07999e-14
-3.35356e-14
-4.30234e-14
1.58621e-14
6.62075e-15
1.29311e-14
1.93714e-14
-3.93872e-14
3.78e-14
0
1.0842e-12
4.91084e-13
-7.40135e-14
4.40649e-14
-7.42382e-14
1.50312e-14
5.32872e-15
1.73251e-14
1.9411e-15
-3.36284e-14
1.99958e-14
1.78974e-14
2.33786e-14
-2.24257e-14
-2.78333e-14
3.96454e-15
1.4455e-15
-2.01532e-14
2.59607e-14
-2.71051e-14
-3.68629e-12
2.00662e-13
-2.86331e-14
-5.35859e-14
5.03675e-14
-1.8772e-14
-2.00041e-14
-3.1727e-14
3.00414e-14
6.84878e-16
-5.58818e-15
-4.7545e-14
-2.24073e-14
2.03544e-14
7.81353e-15
8.19554e-15
-1.57835e-14
-9.96794e-15
5.74047e-14
0
8.67362e-13
7.73649e-13
-2.04757e-13
8.12691e-14
-3.17131e-14
2.32975e-14
2.10405e-14
-2.43515e-15
-2.17743e-14
3.27957e-15
8.74598e-15
2.70618e-14
2.02424e-14
1.36919e-15
-2.99331e-14
1.16396e-14
1.85091e-14
-2.7854e-14
-4.28234e-15
-2.71051e-14
1.40946e-12
-9.89478e-13
2.21082e-13
-7.27531e-14
-6.76448e-16
-9.11674e-15
-4.29853e-15
-3.37023e-14
2.17003e-14
1.39474e-14
1.66436e-14
-3.14986e-14
2.04352e-15
-1.85831e-15
-4.32347e-15
1.51299e-14
-8.65876e-17
1.06852e-15
3.12701e-14
-2.71051e-14
-2.54788e-12
1.64111e-12
-2.98891e-13
1.69228e-13
-5.46631e-14
2.22194e-14
3.45342e-15
3.03267e-14
-1.96928e-14
-2.55324e-14
-3.3698e-14
-3.88009e-15
1.69123e-15
1.20221e-15
1.25695e-14
-4.69602e-14
8.40804e-15
-1.83636e-14
1.10556e-14
-2.71051e-14
4.11997e-12
-2.59745e-12
4.79183e-13
-2.19055e-13
7.58379e-14
-3.5665e-15
1.43678e-14
-6.18079e-14
4.16375e-14
-6.49101e-14
-1.19145e-14
3.64789e-14
-5.2725e-14
-1.06135e-14
8.88235e-14
1.21093e-14
-4.74881e-16
5.55326e-14
6.78164e-15
0
-4.41812e-12
2.52095e-12
-4.31351e-13
1.76792e-13
-2.84634e-14
3.7666e-15
-5.24742e-15
-8.41513e-15
-2.55673e-14
-1.97939e-14
9.06965e-15
5.7598e-14
-6.09918e-14
-3.73905e-14
4.05926e-14
2.32045e-14
-4.67653e-14
-3.44417e-14
6.10715e-14
0
2.30393e-12
-1.39416e-12
2.855e-13
-1.31948e-13
-6.1784e-15
-2.59472e-14
2.69582e-14
-3.58698e-14
-3.9568e-14
1.12781e-14
2.7569e-14
2.99174e-16
-3.18994e-14
1.95129e-15
6.16747e-14
-1.7175e-14
-1.23842e-14
2.96759e-14
1.36862e-14
-5.42101e-14
0
4.7641e-13
-8.49019e-14
3.45157e-14
-2.17015e-15
1.67772e-14
-2.59884e-14
-3.06229e-14
1.99054e-15
-2.59135e-15
3.35986e-14
4.32954e-15
-6.73598e-15
4.39926e-15
-2.30743e-14
5.10197e-14
-2.99289e-14
6.60694e-16
2.04906e-14
-2.71051e-14
-1.97867e-12
-2.45923e-14
1.49032e-14
-2.47031e-14
-6.37534e-14
2.20625e-14
3.04302e-14
-1.41967e-14
2.01868e-14
1.54579e-15
-1.76217e-14
-2.76954e-15
1.0382e-14
-1.62153e-14
7.76605e-15
-1.1752e-14
3.98705e-15
4.09394e-14
-8.26567e-15
0
3.55076e-12
1.62433e-13
-5.44982e-14
2.75627e-14
2.30965e-14
-2.34459e-14
1.83587e-14
1.84889e-14
-7.32765e-15
7.0892e-15
-1.62877e-15
-1.19442e-14
1.02152e-14
8.6745e-18
3.51695e-14
-2.79841e-14
9.8086e-15
1.69946e-14
-2.36496e-14
-2.71051e-14
-4.87891e-13
-3.43911e-13
4.2036e-14
-3.06618e-14
-1.63926e-14
1.80713e-15
-5.67982e-14
-1.65548e-14
3.20398e-14
1.50891e-14
-6.69616e-15
-1.06788e-14
1.75426e-14
-7.21466e-15
2.53977e-14
3.31105e-14
-2.34209e-14
-3.2543e-14
-4.67434e-15
0
-7.72494e-12
1.49153e-12
-3.39394e-13
1.13212e-13
2.40261e-14
-1.36556e-14
-1.3835e-14
3.43282e-14
-9.62228e-15
-7.52532e-15
-1.19165e-14
9.9362e-15
-4.46357e-15
-3.41712e-14
-1.55454e-14
2.03493e-14
2.47261e-15
-9.91434e-15
3.51408e-14
0
6.17995e-12
-1.38236e-12
3.25261e-13
-1.0842e-13
2.71051e-14
2.71051e-14
0
0
-2.71051e-14
2.71051e-14
-2.71051e-14
0
2.71051e-14
0
2.71051e-14
0
-2.71051e-14
-2.71051e-14
2.71051e-14
-2.71051e-14
)
;

boundaryField
{
    movingWall
    {
        type            extrapolatedCalculated;
        value           nonuniform List<scalar> 
20
(
6.17995e-12
-1.38236e-12
3.25261e-13
-1.0842e-13
2.71051e-14
2.71051e-14
0
0
-2.71051e-14
2.71051e-14
-2.71051e-14
0
2.71051e-14
0
2.71051e-14
0
-2.71051e-14
-2.71051e-14
2.71051e-14
-2.71051e-14
)
;
    }
    fixedWalls
    {
        type            extrapolatedCalculated;
        value           nonuniform List<scalar> 
60
(
9.89334e-12
-1.42302e-11
4.33681e-13
8.42967e-12
-7.75205e-12
4.3097e-12
1.0842e-12
-3.68629e-12
8.67362e-13
1.40946e-12
-2.54788e-12
4.11997e-12
-4.41812e-12
2.30393e-12
0
-1.97867e-12
3.55076e-12
-4.87891e-13
-7.72494e-12
6.17995e-12
0
5.42101e-14
-2.71051e-14
0
-2.71051e-14
0
-2.71051e-14
0
-2.71051e-14
-2.71051e-14
-2.71051e-14
0
0
-5.42101e-14
-2.71051e-14
0
-2.71051e-14
0
0
-2.71051e-14
9.89334e-12
-1.28784e-12
2.87068e-13
-8.45943e-14
-2.36427e-15
2.04634e-14
-2.32039e-14
4.69358e-15
-2.70585e-14
-2.11145e-15
-1.13793e-14
5.18419e-14
-2.58469e-14
1.04831e-15
1.79187e-14
-3.42045e-14
7.09473e-15
6.09599e-14
-5.31713e-14
0
)
;
    }
    frontAndBack
    {
        type            empty;
    }
}


// ************************************************************************* //
