/*--------------------------------*- C++ -*----------------------------------*\
| =========                 |                                                 |
| \\      /  F ield         | OpenFOAM: The Open Source CFD Toolbox           |
|  \\    /   O peration     | Version:  2506                                  |
|   \\  /    A nd           | Website:  www.openfoam.com                      |
|    \\/     M anipulation  |                                                 |
\*---------------------------------------------------------------------------*/
FoamFile
{
    version     2.0;
    format      ascii;
    arch        "LSB;label=32;scalar=64";
    class       volScalarField;
    location    "5.5";
    object      enstrophyField;
}
// * * * * * * * * * * * * * * * * * * * * * * * * * * * * * * * * * * * * * //

dimensions      [0 0 -2 0 0 0 0];

internalField   nonuniform List<scalar> 
400
(
6.8668e-24
1.26539e-23
5.32994e-25
1.96443e-26
6.21069e-27
3.25938e-27
2.78337e-31
4.10506e-29
6.90718e-29
4.28923e-28
4.83569e-29
1.92745e-28
1.88831e-30
8.17546e-29
9.91473e-28
5.96504e-30
1.38763e-27
3.7346e-28
1.24539e-32
1.31222e-27
5.7951e-24
9.9582e-24
5.38873e-25
3.94676e-26
2.14481e-28
2.05301e-28
2.09947e-27
1.76516e-27
1.74987e-27
4.91816e-27
1.44737e-28
5.20724e-28
1.08516e-30
3.06592e-28
3.26989e-28
2.24699e-27
9.02429e-28
2.2629e-28
1.34977e-28
6.93882e-29
1.39038e-23
3.76544e-23
2.15389e-24
5.4209e-26
5.15131e-26
1.7524e-26
1.28833e-26
5.68129e-27
4.47166e-27
1.29049e-27
4.99531e-28
2.01148e-28
9.2332e-29
7.2924e-28
6.08174e-27
5.77446e-29
4.24229e-28
7.78515e-28
6.19895e-28
1.36166e-27
7.53433e-24
1.1932e-23
7.31696e-25
3.65581e-26
5.81408e-27
3.15401e-28
9.17445e-28
6.19209e-27
1.02805e-27
5.04259e-27
2.60387e-27
1.914e-27
1.23498e-29
2.76868e-29
1.12345e-28
5.14151e-27
9.52952e-29
5.76403e-30
5.43237e-28
1.39302e-28
2.91497e-24
3.54372e-25
5.48398e-26
1.14765e-27
2.30483e-28
4.43498e-28
5.12967e-30
8.46856e-29
9.5353e-28
1.45666e-27
1.82398e-27
5.39156e-27
1.72641e-27
7.23142e-28
3.60566e-28
3.94336e-28
3.78625e-27
1.53212e-30
6.30049e-30
5.13206e-28
5.70547e-25
1.82329e-24
9.45901e-26
6.74432e-27
6.12725e-29
1.19065e-29
2.22697e-27
5.53963e-27
2.53643e-27
1.41614e-27
1.21477e-27
1.00496e-28
8.73974e-29
1.32029e-34
1.07747e-29
2.64526e-31
7.98604e-28
1.72456e-29
2.79688e-29
4.56568e-28
3.70404e-24
3.3193e-24
2.5019e-25
5.35662e-30
9.99783e-27
7.75466e-27
1.03448e-26
1.64604e-27
5.54415e-28
1.47837e-27
6.67797e-27
1.92321e-27
4.02517e-27
1.23146e-27
1.0875e-27
2.19343e-27
8.76001e-28
2.95282e-28
2.47882e-29
2.60899e-28
1.22088e-27
7.41346e-26
1.14773e-26
2.89362e-28
3.04931e-29
4.26943e-29
1.8138e-27
1.84615e-27
4.51274e-28
6.59614e-28
4.15391e-27
9.79766e-30
1.78137e-27
2.87312e-29
1.86467e-27
1.48876e-28
9.00813e-28
2.2819e-32
3.10133e-29
2.47708e-28
7.80111e-25
8.60549e-25
5.10658e-26
5.27086e-28
4.31539e-27
5.69428e-27
1.86939e-27
1.34269e-27
1.77866e-28
2.39149e-31
6.37634e-29
7.80028e-28
3.37086e-29
2.56295e-28
3.27069e-29
9.44963e-29
2.04732e-29
2.66264e-27
3.03368e-29
3.14815e-28
5.54468e-25
6.8492e-25
2.49786e-26
2.14767e-27
1.85853e-28
4.57972e-28
1.76667e-28
1.63793e-28
3.19904e-30
2.97226e-28
6.15127e-28
5.17186e-30
1.86101e-27
3.6118e-29
3.13099e-27
1.06863e-27
1.7938e-29
8.00652e-29
3.03778e-29
7.89422e-29
2.47467e-24
5.60383e-25
2.16007e-27
1.00729e-26
1.55743e-27
3.26857e-27
5.26664e-27
4.83226e-27
1.25898e-27
5.06419e-27
1.51274e-27
2.44519e-27
6.63884e-28
4.37618e-27
4.61961e-27
7.00388e-30
3.25765e-29
4.02464e-27
3.63389e-28
1.85537e-31
4.55169e-25
3.20328e-26
4.62445e-28
5.23182e-27
7.49589e-27
3.67089e-27
1.11633e-26
1.11895e-26
3.5026e-27
2.81928e-27
2.81762e-27
1.93416e-28
2.61149e-28
1.39654e-27
1.68307e-28
3.56078e-28
2.03353e-27
4.26568e-27
3.13505e-28
4.83714e-29
2.87234e-24
1.96378e-24
1.61242e-26
4.17017e-26
1.13851e-26
4.31931e-27
1.17738e-26
1.11649e-26
6.4871e-27
8.27444e-27
9.29015e-27
6.57674e-27
1.144e-26
1.6626e-26
5.41263e-27
6.00987e-28
2.77961e-27
7.19611e-30
3.17436e-28
1.58124e-28
8.19443e-24
4.21658e-24
2.5042e-25
1.11875e-26
2.9137e-27
1.87505e-28
1.65042e-29
5.61756e-28
1.73734e-29
2.10635e-31
4.92674e-30
6.73002e-28
3.13558e-28
8.53869e-28
4.23821e-28
4.09745e-28
5.19287e-29
3.05019e-27
4.0206e-28
1.54919e-28
4.69046e-24
3.43374e-24
3.686e-25
2.8734e-29
3.47566e-26
8.95349e-27
4.30149e-27
5.25495e-27
5.75157e-27
7.75509e-28
1.0751e-27
6.3557e-27
1.44719e-27
5.80976e-27
6.5425e-27
1.79668e-27
3.54036e-27
1.24826e-27
1.19132e-27
3.64514e-28
5.40087e-25
1.87648e-24
1.46642e-25
6.89344e-27
4.20048e-27
2.44424e-28
6.38984e-27
5.16575e-27
5.65264e-27
3.96852e-27
2.21474e-27
4.56099e-29
3.80477e-28
6.49017e-29
4.50057e-27
7.92433e-29
5.19374e-31
1.44484e-27
3.01026e-28
1.65935e-28
4.25268e-26
1.50563e-25
5.80664e-27
3.84161e-27
3.07469e-27
5.05484e-27
1.72503e-27
1.44834e-28
9.05388e-29
4.51008e-28
2.68544e-27
4.04708e-27
8.68422e-29
2.32693e-27
2.00299e-27
2.62849e-27
6.15585e-27
1.03651e-28
1.11549e-28
2.18038e-30
1.75325e-25
1.66771e-24
1.19659e-25
2.99799e-28
5.91052e-27
2.36012e-27
5.06743e-27
4.97538e-27
6.10259e-27
6.85007e-27
5.88211e-27
2.1005e-28
7.51668e-31
4.34065e-27
1.94719e-27
1.11128e-27
1.12891e-27
1.834e-27
1.96649e-27
1.1516e-28
5.87651e-26
2.37638e-26
1.10777e-26
1.86337e-27
2.90746e-27
5.95245e-27
7.08454e-27
7.1205e-27
3.10733e-27
2.77278e-27
3.20166e-27
7.00301e-30
2.51212e-28
1.69439e-27
2.4376e-28
7.75938e-29
5.07371e-28
2.37515e-27
1.12729e-32
9.00107e-29
6.95933e-24
1.22687e-23
4.85633e-25
3.42791e-26
2.7628e-28
2.53818e-27
1.71684e-27
8.91821e-28
6.83747e-28
1.61355e-28
1.30688e-28
6.88379e-30
5.28696e-28
2.50538e-29
2.50661e-28
1.54601e-29
4.11742e-28
2.33217e-29
1.68094e-33
9.07764e-28
)
;

boundaryField
{
    movingWall
    {
        type            calculated;
        value           nonuniform List<scalar> 
20
(
2.66593e-24
1.35849e-23
5.41848e-26
1.25593e-25
3.38652e-26
5.37595e-26
4.96913e-26
3.96441e-26
1.758e-26
2.2664e-26
2.2283e-26
4.28074e-27
9.61042e-27
1.45448e-26
8.25766e-27
1.67804e-26
1.60612e-26
3.36104e-27
9.83503e-28
1.79478e-27
)
;
    }
    fixedWalls
    {
        type            calculated;
        value           nonuniform List<scalar> 
60
(
2.2757e-22
1.77571e-22
6.70004e-22
2.25618e-22
9.29601e-24
3.45836e-23
6.53563e-23
1.56721e-24
1.62516e-23
1.24687e-23
8.95348e-24
4.68548e-27
2.82665e-23
8.01623e-23
7.09405e-23
3.35341e-23
1.92721e-24
3.17565e-23
1.09012e-24
2.143e-22
1.38845e-27
8.35062e-28
3.11583e-28
2.75978e-28
5.09639e-28
1.03128e-27
9.1308e-28
5.72135e-28
5.90853e-28
3.11595e-28
6.13117e-29
5.92682e-29
1.2092e-28
1.15018e-28
3.99126e-28
1.91658e-28
8.96637e-29
1.53092e-30
4.9116e-29
1.27014e-27
2.7149e-23
2.10664e-23
2.93388e-25
1.34617e-25
1.35801e-26
2.478e-26
3.53002e-26
2.67049e-26
1.79341e-26
2.51392e-26
7.61285e-27
1.4478e-26
8.61767e-27
8.17546e-29
4.68495e-29
3.64349e-27
3.80964e-27
3.9643e-27
9.93097e-28
4.44265e-30
)
;
    }
    frontAndBack
    {
        type            empty;
    }
}


// ************************************************************************* //
