/*--------------------------------*- C++ -*----------------------------------*\
| =========                 |                                                 |
| \\      /  F ield         | OpenFOAM: The Open Source CFD Toolbox           |
|  \\    /   O peration     | Version:  2506                                  |
|   \\  /    A nd           | Website:  www.openfoam.com                      |
|    \\/     M anipulation  |                                                 |
\*---------------------------------------------------------------------------*/
FoamFile
{
    version     2.0;
    format      ascii;
    arch        "LSB;label=32;scalar=64";
    class       volScalarField;
    location    "5.5";
    object      epsilon;
}
// * * * * * * * * * * * * * * * * * * * * * * * * * * * * * * * * * * * * * //

dimensions      [0 2 -3 0 0 0 0];

internalField   nonuniform List<scalar> 
400
(
5.88868e-06
5.88868e-06
5.88863e-06
5.88867e-06
5.8886e-06
5.88865e-06
5.88859e-06
5.88863e-06
5.88859e-06
5.8886e-06
5.88859e-06
5.88859e-06
5.88858e-06
5.88858e-06
5.88858e-06
5.88858e-06
5.88858e-06
5.88858e-06
5.88858e-06
5.88858e-06
6.49525e-06
6.36317e-06
6.37388e-06
6.37844e-06
6.38739e-06
6.39207e-06
6.40105e-06
6.40591e-06
6.41491e-06
6.41995e-06
6.42897e-06
6.4342e-06
6.44324e-06
6.44864e-06
6.45772e-06
6.4633e-06
6.4724e-06
6.47817e-06
6.48274e-06
6.49023e-06
7.35888e-06
7.20057e-06
7.21357e-06
7.2191e-06
7.22993e-06
7.23557e-06
7.24641e-06
7.25224e-06
7.26307e-06
7.26909e-06
7.27993e-06
7.28612e-06
7.29697e-06
7.30334e-06
7.31419e-06
7.32074e-06
7.33159e-06
7.33834e-06
7.34377e-06
7.3526e-06
8.14547e-06
7.96372e-06
7.97861e-06
7.98494e-06
7.99734e-06
8.00381e-06
8.01623e-06
8.02291e-06
8.03532e-06
8.04223e-06
8.05464e-06
8.06175e-06
8.07418e-06
8.0815e-06
8.09394e-06
8.10147e-06
8.1139e-06
8.12166e-06
8.12789e-06
8.13803e-06
8.71395e-06
8.51453e-06
8.53082e-06
8.53776e-06
8.55135e-06
8.55842e-06
8.57203e-06
8.57936e-06
8.59295e-06
8.60053e-06
8.61413e-06
8.62193e-06
8.63555e-06
8.64358e-06
8.65722e-06
8.66549e-06
8.67912e-06
8.68764e-06
8.69447e-06
8.7056e-06
9.07438e-06
8.86352e-06
8.88072e-06
8.88804e-06
8.9024e-06
8.90988e-06
8.92425e-06
8.93199e-06
8.94635e-06
8.95436e-06
8.96873e-06
8.97698e-06
8.99137e-06
8.99986e-06
9.01427e-06
9.02302e-06
9.03742e-06
9.04644e-06
9.05366e-06
9.06542e-06
9.28943e-06
9.07169e-06
9.08944e-06
9.09699e-06
9.1118e-06
9.11952e-06
9.13435e-06
9.14235e-06
9.15717e-06
9.16543e-06
9.18027e-06
9.18879e-06
9.20364e-06
9.21241e-06
9.22728e-06
9.23632e-06
9.25119e-06
9.26051e-06
9.26796e-06
9.28011e-06
9.41855e-06
9.19664e-06
9.21472e-06
9.22241e-06
9.2375e-06
9.24536e-06
9.26047e-06
9.26861e-06
9.28371e-06
9.29213e-06
9.30724e-06
9.31593e-06
9.33106e-06
9.34e-06
9.35515e-06
9.36436e-06
9.37951e-06
9.38901e-06
9.3966e-06
9.40898e-06
9.50232e-06
9.27771e-06
9.296e-06
9.30379e-06
9.31906e-06
9.32701e-06
9.3423e-06
9.35054e-06
9.36582e-06
9.37434e-06
9.38963e-06
9.39842e-06
9.41373e-06
9.42278e-06
9.43811e-06
9.44744e-06
9.46277e-06
9.47238e-06
9.48006e-06
9.4926e-06
9.56466e-06
9.33807e-06
9.35651e-06
9.36437e-06
9.37977e-06
9.38779e-06
9.40321e-06
9.41153e-06
9.42694e-06
9.43554e-06
9.45096e-06
9.45982e-06
9.47527e-06
9.4844e-06
9.49987e-06
9.50927e-06
9.52474e-06
9.53444e-06
9.54219e-06
9.55483e-06
9.61872e-06
9.39041e-06
9.40899e-06
9.4169e-06
9.43242e-06
9.4405e-06
9.45604e-06
9.46441e-06
9.47994e-06
9.4886e-06
9.50414e-06
9.51307e-06
9.52864e-06
9.53784e-06
9.55342e-06
9.5629e-06
9.57848e-06
9.58825e-06
9.59606e-06
9.6088e-06
9.67165e-06
9.44166e-06
9.46038e-06
9.46835e-06
9.48397e-06
9.49212e-06
9.50776e-06
9.5162e-06
9.53184e-06
9.54057e-06
9.55622e-06
9.56522e-06
9.5809e-06
9.59016e-06
9.60586e-06
9.61541e-06
9.6311e-06
9.64095e-06
9.64882e-06
9.66165e-06
9.72763e-06
9.49586e-06
9.51472e-06
9.52275e-06
9.53849e-06
9.5467e-06
9.56247e-06
9.57097e-06
9.58673e-06
9.59552e-06
9.61129e-06
9.62036e-06
9.63615e-06
9.6455e-06
9.66131e-06
9.67094e-06
9.68675e-06
9.69668e-06
9.7046e-06
9.71753e-06
9.78945e-06
9.55571e-06
9.57472e-06
9.58282e-06
9.59869e-06
9.60697e-06
9.62286e-06
9.63144e-06
9.64733e-06
9.65619e-06
9.6721e-06
9.68124e-06
9.69717e-06
9.70659e-06
9.72254e-06
9.73224e-06
9.7482e-06
9.7582e-06
9.7662e-06
9.77924e-06
9.85915e-06
9.62318e-06
9.64237e-06
9.65054e-06
9.66656e-06
9.67492e-06
9.69096e-06
9.69962e-06
9.71565e-06
9.72461e-06
9.74066e-06
9.74989e-06
9.76597e-06
9.77548e-06
9.79157e-06
9.80138e-06
9.81747e-06
9.82758e-06
9.83565e-06
9.84882e-06
9.93774e-06
9.69926e-06
9.71865e-06
9.72691e-06
9.7431e-06
9.75153e-06
9.76775e-06
9.77649e-06
9.7927e-06
9.80174e-06
9.81797e-06
9.82729e-06
9.84354e-06
9.85315e-06
9.86942e-06
9.87932e-06
9.89559e-06
9.90581e-06
9.91396e-06
9.92727e-06
1.00236e-05
9.78238e-06
9.80199e-06
9.81034e-06
9.82671e-06
9.83524e-06
9.85164e-06
9.86048e-06
9.87687e-06
9.88602e-06
9.90242e-06
9.91186e-06
9.92829e-06
9.93801e-06
9.95446e-06
9.96448e-06
9.98094e-06
9.99127e-06
9.99952e-06
1.0013e-05
1.01099e-05
9.86597e-06
9.88578e-06
9.89421e-06
9.91076e-06
9.91939e-06
9.93596e-06
9.9449e-06
9.96146e-06
9.97071e-06
9.9873e-06
9.99684e-06
1.00135e-05
1.00233e-05
1.00399e-05
1.00501e-05
1.00667e-05
1.00771e-05
1.00855e-05
1.00991e-05
1.01826e-05
9.94149e-06
9.96067e-06
9.9689e-06
9.98501e-06
9.99349e-06
1.00097e-05
1.00185e-05
1.00347e-05
1.0044e-05
1.00602e-05
1.00698e-05
1.00862e-05
1.00961e-05
1.01125e-05
1.01229e-05
1.01393e-05
1.01501e-05
1.01584e-05
1.01721e-05
1.02149e-05
1.02149e-05
1.02149e-05
1.02149e-05
1.02148e-05
1.02148e-05
1.02148e-05
1.02148e-05
1.02148e-05
1.02148e-05
1.02148e-05
1.02148e-05
1.02148e-05
1.02148e-05
1.02148e-05
1.02148e-05
1.02148e-05
1.02148e-05
1.02148e-05
1.02148e-05
)
;

boundaryField
{
    movingWall
    {
        type            epsilonWallFunction;
        blending        stepwise;
        value           nonuniform List<scalar> 
20
(
1.02149e-05
1.02149e-05
1.02149e-05
1.02149e-05
1.02148e-05
1.02148e-05
1.02148e-05
1.02148e-05
1.02148e-05
1.02148e-05
1.02148e-05
1.02148e-05
1.02148e-05
1.02148e-05
1.02148e-05
1.02148e-05
1.02148e-05
1.02148e-05
1.02148e-05
1.02148e-05
)
;
    }
    fixedWalls
    {
        type            epsilonWallFunction;
        blending        stepwise;
        value           nonuniform List<scalar> 
60
(
5.88868e-06
6.49525e-06
7.35888e-06
8.14547e-06
8.71395e-06
9.07438e-06
9.28943e-06
9.41855e-06
9.50232e-06
9.56466e-06
9.61872e-06
9.67165e-06
9.72763e-06
9.78945e-06
9.85915e-06
9.93774e-06
1.00236e-05
1.01099e-05
1.01826e-05
1.02149e-05
5.88858e-06
6.49023e-06
7.3526e-06
8.13803e-06
8.7056e-06
9.06542e-06
9.28011e-06
9.40898e-06
9.4926e-06
9.55483e-06
9.6088e-06
9.66165e-06
9.71753e-06
9.77924e-06
9.84882e-06
9.92727e-06
1.0013e-05
1.00991e-05
1.01721e-05
1.02148e-05
5.88868e-06
5.88868e-06
5.88863e-06
5.88867e-06
5.8886e-06
5.88865e-06
5.88859e-06
5.88863e-06
5.88859e-06
5.8886e-06
5.88859e-06
5.88859e-06
5.88858e-06
5.88858e-06
5.88858e-06
5.88858e-06
5.88858e-06
5.88858e-06
5.88858e-06
5.88858e-06
)
;
    }
    frontAndBack
    {
        type            empty;
    }
}


// ************************************************************************* //
