/*--------------------------------*- C++ -*----------------------------------*\
| =========                 |                                                 |
| \\      /  F ield         | OpenFOAM: The Open Source CFD Toolbox           |
|  \\    /   O peration     | Version:  2506                                  |
|   \\  /    A nd           | Website:  www.openfoam.com                      |
|    \\/     M anipulation  |                                                 |
\*---------------------------------------------------------------------------*/
FoamFile
{
    version     2.0;
    format      ascii;
    arch        "LSB;label=32;scalar=64";
    class       volScalarField;
    location    "5.5";
    object      flowTypeField;
}
// * * * * * * * * * * * * * * * * * * * * * * * * * * * * * * * * * * * * * //

dimensions      [0 0 0 0 0 0 0];

internalField   nonuniform List<scalar> 
400
(
0.61402
0.113993
0.123077
0.247614
-0.360703
0.0587472
0.928929
0.10002
0.532099
-0.0750798
0.627796
0.51225
0.941038
0.619505
0.255815
0.813587
0.0357128
0.492743
0.977893
0.0684268
0.731865
0.21283
0.169272
0.130861
0.323482
0.603866
0.164588
0.302841
0.281242
-0.109756
0.0471652
-0.183214
0.661261
0.325477
0.0505285
-0.0795927
-0.489822
0.227247
0.484159
0.808753
0.303227
0.065161
-0.0233198
0.252382
-0.766708
-0.127199
-0.155844
0.0468925
0.126927
0.396666
0.000973083
0.0540529
0.692748
0.0414691
-0.211817
0.748796
0.47139
0.0989333
-0.203359
0.380174
0.55869
0.116051
-0.00591887
0.139172
-0.467829
0.565202
0.268143
0.10196
0.0714193
0.037852
0.0824807
-0.00757386
0.907106
0.732339
0.472466
-0.241964
0.48146
0.0484682
-0.104342
0.453834
0.637789
0.470999
0.271043
0.50912
0.589157
0.474113
0.855341
0.356146
-0.539455
0.0509441
0.0692898
0.304353
-0.0341342
-0.236897
0.0566496
0.254209
-0.00350542
0.688363
0.813579
0.182773
0.675531
0.208317
0.115728
0.318821
0.743878
0.763314
0.187682
-0.0241213
-0.136102
0.290095
0.0939965
0.47496
0.606875
0.905789
0.196017
0.436696
-0.174629
0.854568
0.696524
0.22569
0.0571788
0.0566963
-0.259624
0.966605
-0.132621
-0.105237
-0.0606506
0.320049
0.394708
0.270933
-0.0317576
-0.0137802
-0.0266622
0.100553
0.220666
-0.198588
-0.391191
0.385744
0.502739
0.319517
0.983176
0.611332
0.387637
0.721475
0.80604
0.167143
-0.00148754
-0.0326939
0.199162
-0.269724
-0.119649
0.784158
-0.0365254
0.67678
-0.109564
0.0272922
-0.216995
0.927946
0.801787
0.00423373
0.412715
0.256022
0.210439
0.722162
-0.0766248
0.049312
0.0198197
0.0442459
0.460404
0.520983
0.331702
-0.0971028
0.46102
0.0555337
0.804624
0.0281485
0.74535
-0.249536
0.239242
0.287586
0.234553
0.155112
0.188012
0.225874
0.287002
-0.0910545
0.29982
0.658859
0.762293
0.152738
-0.220286
0.910669
-0.107214
0.0586933
0.0267678
-0.646137
0.357507
0.0095773
0.812451
0.084817
0.113008
0.274422
0.665645
0.243601
0.247455
0.0559165
-0.252305
-0.125961
0.176828
0.103816
0.0896258
0.138805
0.323617
-0.148266
-0.10253
0.80333
0.267179
-0.0380635
0.0345875
0.934975
0.640223
0.855716
0.90931
0.505398
0.210328
-0.0531211
-0.0980689
-0.0174532
0.150517
0.219212
0.0779762
0.620648
0.560011
0.0461218
0.792515
0.354053
-0.155896
0.0613007
0.0844439
0.625738
0.30008
0.245235
0.532103
-0.0283947
0.0837722
0.143517
0.0571321
-0.102054
-0.0424799
0.0525381
0.0145464
0.0545336
-0.028981
-0.10407
0.14515
0.365357
0.221135
0.802714
0.657397
0.354348
-0.270349
-0.0252884
-0.252791
0.0951491
-0.12602
0.641049
0.722987
0.127959
0.847185
0.648243
0.828655
-0.331719
0.288003
-0.30707
0.315625
0.282149
0.585481
-0.209152
-0.0132652
0.62543
-0.312309
0.0167505
-0.498756
0.929981
-0.214922
0.0189001
0.165738
0.0715515
0.0451774
0.28771
0.375709
0.012553
0.00810032
0.0651297
0.0720611
0.212018
-0.0109313
0.0778207
0.186513
0.266024
0.584109
0.114437
-0.0635518
0.100006
0.0673313
0.593212
-0.071554
-0.233989
0.0502399
-0.0932414
-0.0771351
0.173475
0.277263
0.550485
-0.163852
0.154995
0.931401
0.280386
0.0938398
0.324002
0.914404
0.602007
0.629271
0.23283
0.0836102
-0.196296
0.0502867
0.371977
0.490778
-0.0812084
-0.126195
-0.0224926
7.59613e-05
0.165998
-0.032933
-0.138139
-0.0217601
0.47002
0.575361
0.872908
0.697864
0.190013
-0.0193516
0.693397
-0.311987
0.153941
0.160573
0.0816784
0.091165
-0.0296617
0.000691546
0.23827
0.704292
-0.139384
-0.00751658
0.212256
0.362287
0.00894858
-0.140061
0.44361
0.938069
0.824193
0.551872
0.432034
0.255798
0.00371172
-0.0908384
-0.0640935
0.086211
0.0847483
0.0177524
0.801136
0.180534
0.0403463
0.254294
0.546311
-0.169409
-0.262108
0.978803
0.526012
0.428686
0.0392109
0.084062
-0.0400958
0.573661
-0.2563
0.0575228
0.0732825
0.0871442
0.489833
0.544897
0.825569
0.152719
0.249166
0.260653
0.304718
0.229165
0.696268
0.946197
-0.000901826
)
;

boundaryField
{
    movingWall
    {
        type            calculated;
        value           nonuniform List<scalar> 
20
(
0.859618
0.199553
0.74887
-0.330289
0.204971
-0.043022
-0.000233798
-0.0449609
-0.0382581
0.0489841
0.0593427
0.0573343
-0.0182241
0.0413145
0.0630968
-0.0170317
0.0045979
0.136271
0.225169
-0.0141092
)
;
    }
    fixedWalls
    {
        type            calculated;
        value           nonuniform List<scalar> 
60
(
0.124228
0.232894
0.0592487
0.096686
0.430841
0.207161
0.00508707
0.609204
0.241605
0.148598
0.302995
0.986238
0.335275
-0.0390889
-0.0572749
0.114236
0.661441
0.153431
0.76033
0.0584444
0.0424798
0.720621
0.711274
0.487233
-0.086321
0.179585
0.277849
0.00186153
0.577451
0.0251461
0.83003
0.58853
0.431381
0.609471
0.407019
0.275564
0.648841
0.918319
0.641928
0.121417
0.618346
0.0646701
0.451826
-0.328202
0.285346
0.0230902
0.0342196
-0.0176469
-0.0403694
-0.00980424
0.0983456
0.0728046
0.127738
0.706542
0.590972
0.0813034
0.0247331
0.135588
0.332814
0.0854497
)
;
    }
    frontAndBack
    {
        type            empty;
    }
}


// ************************************************************************* //
