/*--------------------------------*- C++ -*----------------------------------*\
| =========                 |                                                 |
| \\      /  F ield         | OpenFOAM: The Open Source CFD Toolbox           |
|  \\    /   O peration     | Version:  2506                                  |
|   \\  /    A nd           | Website:  www.openfoam.com                      |
|    \\/     M anipulation  |                                                 |
\*---------------------------------------------------------------------------*/
FoamFile
{
    version     2.0;
    format      ascii;
    arch        "LSB;label=32;scalar=64";
    class       surfaceScalarField;
    location    "5.5";
    object      fluxField;
}
// * * * * * * * * * * * * * * * * * * * * * * * * * * * * * * * * * * * * * //

dimensions      [0 3 -1 0 0 0 0];

oriented        oriented;

internalField   nonuniform List<scalar> 
760
(
-5e-05
2.58066e-18
-5e-05
-5.25249e-19
-5e-05
1.32753e-19
-5e-05
-2.11486e-20
-5e-05
6.1852e-21
-5e-05
-1.66042e-21
-5e-05
9.75284e-22
-5e-05
1.1734e-21
-5e-05
1.1642e-23
-5e-05
-5.27863e-22
-5e-05
3.93143e-21
-5e-05
6.1842e-21
-5e-05
7.09081e-21
-5e-05
7.03834e-21
-5e-05
-2.29659e-21
-5e-05
-1.77486e-21
-5e-05
1.77368e-21
-5e-05
1.68745e-21
-5e-05
2.59704e-22
-2.45958e-21
-5e-05
-1.22864e-18
-5e-05
2.87088e-19
-5e-05
-4.60697e-20
-5e-05
2.77446e-20
-5e-05
-1.09653e-22
-5e-05
-6.66416e-21
-5e-05
-1.13207e-20
-5e-05
-1.02655e-20
-5e-05
-9.56293e-21
-5e-05
-5.56559e-21
-5e-05
2.53081e-21
-5e-05
6.58988e-21
-5e-05
8.83673e-21
-5e-05
1.03555e-20
-5e-05
-1.25149e-22
-5e-05
-3.28104e-21
-5e-05
3.94981e-22
-5e-05
5.77815e-23
-5e-05
-4.15134e-21
-6.07619e-21
-5e-05
-1.08221e-18
-5e-05
2.46454e-19
-5e-05
-3.90974e-20
-5e-05
2.32246e-20
-5e-05
2.72484e-21
-5e-05
-2.95607e-21
-5e-05
-1.0694e-20
-5e-05
-1.20483e-20
-5e-05
-9.5218e-21
-5e-05
-4.0257e-21
-5e-05
2.88363e-21
-5e-05
8.36492e-21
-5e-05
9.81315e-21
-5e-05
1.05197e-20
-5e-05
5.18157e-21
-5e-05
-4.70939e-22
-5e-05
-2.5276e-21
-5e-05
-4.42812e-21
-5e-05
-6.46496e-21
-4.99035e-21
-5e-05
1.19876e-18
-5e-05
-2.69505e-19
-5e-05
5.92088e-20
-5e-05
-1.59918e-20
-5e-05
3.58616e-21
-5e-05
-1.17713e-21
-5e-05
-4.35678e-21
-5e-05
-4.82151e-21
-5e-05
-3.87212e-22
-5e-05
3.87951e-21
-5e-05
4.44897e-21
-5e-05
6.82107e-21
-5e-05
7.50877e-21
-5e-05
4.44095e-21
-5e-05
2.91719e-21
-5e-05
7.56327e-22
-5e-05
-2.34989e-21
-5e-05
-4.12128e-21
-5e-05
-3.63634e-21
-1.76968e-21
-5e-05
-7.14744e-19
-5e-05
1.42213e-19
-5e-05
-4.04285e-20
-5e-05
4.89127e-21
-5e-05
5.84004e-22
-5e-05
3.5325e-21
-5e-05
1.13461e-21
-5e-05
-4.00184e-22
-5e-05
-1.59755e-21
-5e-05
-5.12455e-22
-5e-05
-1.2911e-21
-5e-05
-8.29581e-22
-5e-05
3.3978e-21
-5e-05
1.50378e-21
-5e-05
6.70615e-22
-5e-05
2.7271e-21
-5e-05
6.07891e-22
-5e-05
-1.91415e-21
-5e-05
-1.29796e-21
8.4308e-22
-5e-05
1.15147e-19
-5e-05
-2.02415e-20
-5e-05
2.62037e-21
-5e-05
4.31359e-22
-5e-05
3.73218e-21
-5e-05
5.91031e-21
-5e-05
8.9812e-21
-5e-05
4.85673e-21
-5e-05
-2.98917e-21
-5e-05
-4.62451e-21
-5e-05
-2.69998e-21
-5e-05
-1.60762e-21
-5e-05
2.79668e-21
-5e-05
3.96552e-21
-5e-05
1.65519e-21
-5e-05
3.23276e-21
-5e-05
4.84286e-21
-5e-05
3.70572e-21
-5e-05
2.67375e-21
3.81525e-21
-5e-05
5.42922e-19
-5e-05
-9.40693e-20
-5e-05
2.21542e-20
-5e-05
-2.53631e-21
-5e-05
1.76924e-21
-5e-05
3.75781e-21
-5e-05
8.10844e-21
-5e-05
4.33127e-21
-5e-05
4.85274e-22
-5e-05
-1.63083e-21
-5e-05
-1.7773e-21
-5e-05
-2.30191e-21
-5e-05
-9.31604e-22
-5e-05
1.16985e-21
-5e-05
-1.82064e-22
-5e-05
9.91134e-22
-5e-05
7.13764e-21
-5e-05
8.51423e-21
-5e-05
6.49016e-21
4.78504e-21
-5e-05
-4.85609e-19
-5e-05
1.11152e-19
-5e-05
-2.07108e-20
-5e-05
6.93232e-21
-5e-05
-9.60661e-22
-5e-05
2.08325e-21
-5e-05
1.77525e-21
-5e-05
-1.15547e-21
-5e-05
7.3409e-22
-5e-05
1.7122e-22
-5e-05
-1.39704e-21
-5e-05
-5.10998e-21
-5e-05
-5.60183e-21
-5e-05
-1.68766e-21
-5e-05
1.95338e-21
-5e-05
2.04888e-21
-5e-05
2.83039e-21
-5e-05
4.28428e-21
-5e-05
7.5749e-21
4.26269e-21
-5e-05
-3.91314e-20
-5e-05
1.04532e-20
-5e-05
3.02091e-21
-5e-05
-1.15224e-23
-5e-05
-1.15201e-21
-5e-05
-9.51899e-22
-5e-05
-1.51613e-21
-5e-05
-6.08788e-22
-5e-05
1.33268e-21
-5e-05
8.19894e-22
-5e-05
2.1865e-21
-5e-05
-1.08239e-23
-5e-05
-1.71567e-21
-5e-05
3.42297e-22
-5e-05
6.06924e-21
-5e-05
2.9099e-21
-5e-05
-2.149e-21
-5e-05
-1.87248e-22
-5e-05
5.70568e-21
3.70873e-21
-5e-05
1.44192e-19
-5e-05
-5.08579e-20
-5e-05
1.46129e-20
-5e-05
-4.63575e-21
-5e-05
-1.69112e-22
-5e-05
-2.27918e-21
-5e-05
-1.07463e-21
-5e-05
5.12694e-21
-5e-05
5.42506e-21
-5e-05
3.48685e-21
-5e-05
4.1609e-21
-5e-05
5.67789e-21
-5e-05
5.10879e-22
-5e-05
-4.64579e-22
-5e-05
5.6954e-21
-5e-05
3.78248e-21
-5e-05
-2.16469e-23
-5e-05
2.67129e-22
-5e-05
1.04126e-21
2.25233e-21
-5e-05
-2.40036e-19
-5e-05
4.43597e-20
-5e-05
-6.96018e-21
-5e-05
1.64945e-21
-5e-05
-1.1326e-22
-5e-05
-1.22142e-21
-5e-05
8.63356e-22
-5e-05
7.58167e-21
-5e-05
8.62933e-21
-5e-05
7.16942e-21
-5e-05
5.12804e-21
-5e-05
5.80624e-21
-5e-05
4.22806e-22
-5e-05
3.00552e-22
-5e-05
3.14238e-21
-5e-05
1.81247e-21
-5e-05
2.10201e-21
-5e-05
2.18537e-21
-5e-05
2.76391e-21
1.7057e-21
-5e-05
3.28353e-19
-5e-05
-3.27224e-20
-5e-05
1.13755e-20
-5e-05
-5.53556e-22
-5e-05
-1.36933e-21
-5e-05
-8.91625e-22
-5e-05
3.59195e-21
-5e-05
4.87681e-21
-5e-05
3.63312e-21
-5e-05
4.10127e-21
-5e-05
3.79763e-21
-5e-05
2.34345e-21
-5e-05
3.71266e-22
-5e-05
-2.65338e-21
-5e-05
-4.89917e-21
-5e-05
-3.74895e-21
-5e-05
-1.1872e-22
-5e-05
3.30616e-22
-5e-05
1.69541e-21
2.91484e-22
-5e-05
-2.70621e-19
-5e-05
6.10319e-20
-5e-05
-1.29701e-20
-5e-05
3.54047e-21
-5e-05
-3.3958e-22
-5e-05
9.41651e-22
-5e-05
5.46441e-21
-5e-05
4.67248e-21
-5e-05
3.84437e-22
-5e-05
1.8278e-21
-5e-05
2.26741e-21
-5e-05
8.46964e-22
-5e-05
-1.69542e-21
-5e-05
-9.34764e-21
-5e-05
-1.01806e-20
-5e-05
-9.75128e-22
-5e-05
1.8612e-21
-5e-05
-1.83415e-21
-5e-05
-5.06093e-21
-1.67005e-21
-5e-05
1.40766e-20
-5e-05
-1.65028e-20
-5e-05
3.61241e-21
-5e-05
8.94273e-22
-5e-05
5.23166e-21
-5e-05
7.06573e-21
-5e-05
6.73955e-21
-5e-05
4.58507e-21
-5e-05
3.66052e-21
-5e-05
2.81953e-21
-5e-05
1.15996e-22
-5e-05
7.47934e-23
-5e-05
-1.19858e-21
-5e-05
-6.28844e-21
-5e-05
-4.91011e-21
-5e-05
2.48251e-21
-5e-05
3.68021e-21
-5e-05
6.42721e-22
-5e-05
-3.35471e-21
-1.0197e-21
-5e-05
1.36055e-19
-5e-05
-1.64227e-20
-5e-05
5.87958e-21
-5e-05
1.85265e-21
-5e-05
6.23373e-21
-5e-05
1.09706e-20
-5e-05
7.05543e-21
-5e-05
-8.79454e-22
-5e-05
4.97636e-22
-5e-05
-6.47836e-22
-5e-05
-5.15287e-21
-5e-05
-5.69388e-21
-5e-05
-1.684e-21
-5e-05
1.09981e-21
-5e-05
1.00769e-21
-5e-05
-7.97593e-22
-5e-05
-7.05963e-22
-5e-05
1.65173e-22
-5e-05
-1.65362e-21
-5.4218e-22
-5e-05
-4.24716e-19
-5e-05
9.54959e-20
-5e-05
-1.6603e-20
-5e-05
7.37675e-21
-5e-05
4.39043e-21
-5e-05
5.51563e-21
-5e-05
8.31295e-22
-5e-05
-3.54918e-21
-5e-05
-1.72956e-21
-5e-05
3.86448e-22
-5e-05
-4.40541e-21
-5e-05
-7.46865e-21
-5e-05
-4.18077e-21
-5e-05
2.72244e-21
-5e-05
1.94151e-21
-5e-05
-2.93801e-21
-5e-05
-5.7795e-21
-5e-05
-3.31769e-21
-5e-05
-2.06642e-21
3.66546e-22
-5e-05
7.02113e-19
-5e-05
-1.55903e-19
-5e-05
3.38093e-20
-5e-05
-6.66184e-21
-5e-05
5.77413e-21
-5e-05
9.14792e-22
-5e-05
-2.18658e-21
-5e-05
-2.15404e-21
-5e-05
-1.83191e-21
-5e-05
1.7723e-21
-5e-05
-4.07193e-22
-5e-05
-2.98604e-21
-5e-05
-4.22246e-21
-5e-05
2.16863e-24
-5e-05
2.01611e-21
-5e-05
-2.19768e-22
-5e-05
-4.32411e-21
-5e-05
-2.52761e-21
-5e-05
8.63864e-22
2.64039e-21
-5e-05
4.80347e-19
-5e-05
-1.19859e-19
-5e-05
1.72853e-20
-5e-05
-7.66544e-21
-5e-05
2.67811e-21
-5e-05
4.51783e-22
-5e-05
-6.47015e-22
-5e-05
-4.13869e-21
-5e-05
-5.54257e-21
-5e-05
-3.00399e-21
-5e-05
-1.67404e-21
-5e-05
-2.6697e-21
-5e-05
-2.39061e-21
-5e-05
-1.80367e-21
-5e-05
-4.26832e-22
-5e-05
1.50137e-21
-5e-05
9.21027e-22
-5e-05
-1.35949e-21
-5e-05
-1.16859e-21
7.28814e-22
-5e-05
-1.41839e-18
-5e-05
2.71239e-19
-5e-05
-7.12959e-20
-5e-05
7.97413e-21
-5e-05
-7.54601e-21
-5e-05
-3.41391e-21
-5e-05
-3.45874e-21
-5e-05
-4.97047e-21
-5e-05
-2.40557e-21
-5e-05
-1.88133e-21
-5e-05
-2.97912e-21
-5e-05
-4.29221e-21
-5e-05
-1.11589e-21
-5e-05
-1.76653e-21
-5e-05
-3.88636e-21
-5e-05
-1.68894e-21
-5e-05
6.18152e-22
-5e-05
-2.47858e-21
-5e-05
-4.76733e-21
-2.53062e-21
-5e-05
-5e-05
-5e-05
-5e-05
-5e-05
-5e-05
-5e-05
-5e-05
-5e-05
-5e-05
-5e-05
-5e-05
-5e-05
-5e-05
-5e-05
-5e-05
-5e-05
-5e-05
-5e-05
)
;

boundaryField
{
    movingWall
    {
        type            calculated;
        value           uniform -0;
    }
    fixedWalls
    {
        type            calculated;
        value           nonuniform List<scalar> 
60
(
5e-05
5e-05
5e-05
5e-05
5e-05
5e-05
5e-05
5e-05
5e-05
5e-05
5e-05
5e-05
5e-05
5e-05
5e-05
5e-05
5e-05
5e-05
5e-05
5e-05
-5e-05
-5e-05
-5e-05
-5e-05
-5e-05
-5e-05
-5e-05
-5e-05
-5e-05
-5e-05
-5e-05
-5e-05
-5e-05
-5e-05
-5e-05
-5e-05
-5e-05
-5e-05
-5e-05
-5e-05
0
0
0
0
0
0
0
0
0
0
0
0
0
0
0
0
0
0
0
0
)
;
    }
    frontAndBack
    {
        type            empty;
    }
}


// ************************************************************************* //
