/*--------------------------------*- C++ -*----------------------------------*\
| =========                 |                                                 |
| \\      /  F ield         | OpenFOAM: The Open Source CFD Toolbox           |
|  \\    /   O peration     | Version:  2506                                  |
|   \\  /    A nd           | Website:  www.openfoam.com                      |
|    \\/     M anipulation  |                                                 |
\*---------------------------------------------------------------------------*/
FoamFile
{
    version     2.0;
    format      ascii;
    arch        "LSB;label=32;scalar=64";
    class       volTensorField;
    location    "5.5";
    object      gradU;
}
// * * * * * * * * * * * * * * * * * * * * * * * * * * * * * * * * * * * * * //

dimensions      [0 0 -1 0 0 0 0];

internalField   nonuniform List<tensor> 
400
(
(-4.33681e-13 4.43772e-12 0 7.31836e-13 1.03226e-11 0 0 0 0)
(8.13152e-13 -5.24752e-12 0 -2.1684e-13 -2.101e-12 0 0 0 0)
(-2.43945e-13 1.03247e-12 0 0 5.31014e-13 0 0 0 0)
(0 -2.52424e-13 0 -5.42101e-14 -8.45943e-14 0 0 0 0)
(-2.71051e-14 5.72412e-14 0 -5.42101e-14 2.47408e-14 0 0 0 0)
(2.71051e-14 -5.76357e-16 0 -8.13152e-14 -6.64169e-15 0 0 0 0)
(-2.71051e-14 7.46106e-16 0 0 3.90113e-15 0 0 0 0)
(0 -9.06097e-15 0 0 4.69358e-15 0 0 0 0)
(-2.71051e-14 -1.17534e-14 0 0 4.6568e-17 0 0 0 0)
(0 -2.18395e-15 0 2.71051e-14 -2.11145e-15 0 0 0 0)
(-2.71051e-14 9.83432e-15 0 0 1.57257e-14 0 0 0 0)
(2.71051e-14 7.47114e-15 0 2.71051e-14 2.47368e-14 0 0 0 0)
(-5.42101e-14 1.94335e-15 0 0 2.83633e-14 0 0 0 0)
(-2.71051e-14 -1.27871e-14 0 0 2.81534e-14 0 0 0 0)
(2.71051e-14 -9.67983e-15 0 -5.42101e-14 -9.18637e-15 0 0 0 0)
(-2.71051e-14 3.45399e-15 0 0 -7.09946e-15 0 0 0 0)
(0 -1.52932e-15 0 -5.42101e-14 7.09473e-15 0 0 0 0)
(5.42101e-14 -2.24789e-16 0 2.71051e-14 6.74978e-15 0 0 0 0)
(-5.42101e-14 -1.57822e-16 0 0 1.03882e-15 0 0 0 0)
(0 -2.98082e-15 0 -5.42101e-14 -9.83833e-15 0 0 0 0)
(1.00289e-12 3.78391e-12 0 3.79471e-13 -1.52372e-11 0 0 0 0)
(-1.54499e-12 -4.54409e-12 0 -8.13152e-14 3.24935e-12 0 0 0 0)
(3.52366e-13 9.83935e-13 0 -5.42101e-14 -7.15292e-13 0 0 0 0)
(-5.42101e-14 -2.53849e-13 0 2.71051e-14 1.95573e-13 0 0 0 0)
(0 2.07114e-14 0 0 -2.51794e-14 0 0 0 0)
(5.42101e-14 -2.02633e-14 0 0 -2.0015e-14 0 0 0 0)
(2.71051e-14 1.05892e-14 0 -5.42101e-14 -4.9184e-14 0 0 0 0)
(5.42101e-14 5.2064e-15 0 -5.42101e-14 -4.57554e-14 0 0 0 0)
(5.42101e-14 4.94841e-15 0 -5.42101e-14 -3.82983e-14 0 0 0 0)
(2.71051e-14 1.78631e-14 0 -8.13152e-14 -2.01509e-14 0 0 0 0)
(0 1.70139e-14 0 0 -5.60249e-15 0 0 0 0)
(0 5.1664e-15 0 -2.71051e-14 1.62271e-15 0 0 0 0)
(0 1.4732e-15 0 0 6.98369e-15 0 0 0 0)
(-2.71051e-14 -2.47625e-14 0 0 1.32685e-14 0 0 0 0)
(0 -2.5573e-14 0 0 8.68577e-15 0 0 0 0)
(2.71051e-14 1.28271e-14 0 -5.42101e-14 -6.02472e-15 0 0 0 0)
(0 1.53786e-14 0 -2.71051e-14 -5.51481e-15 0 0 0 0)
(0 -5.83113e-15 0 -2.71051e-14 -6.51866e-15 0 0 0 0)
(-2.71051e-14 -1.64303e-14 0 0 -1.76442e-14 0 0 0 0)
(8.13152e-14 1.17803e-14 0 0 -1.44664e-14 0 0 0 0)
(-1.35525e-13 -7.55012e-12 0 -2.27682e-12 5.85724e-13 0 0 0 0)
(3.79471e-13 9.27438e-12 0 5.96311e-13 -1.62537e-13 0 0 0 0)
(-1.6263e-13 -2.02131e-12 0 5.42101e-14 2.78889e-14 0 0 0 0)
(5.42101e-14 4.37689e-13 0 1.0842e-13 -1.808e-14 0 0 0 0)
(-2.71051e-14 -1.58347e-13 0 1.6263e-13 1.1338e-14 0 0 0 0)
(-2.71051e-14 -2.4581e-14 0 1.6263e-13 1.48324e-14 0 0 0 0)
(-2.71051e-14 -2.49943e-14 0 1.35525e-13 2.50695e-15 0 0 0 0)
(-2.71051e-14 1.82479e-15 0 1.0842e-13 -7.13127e-15 0 0 0 0)
(0 1.38511e-14 0 1.0842e-13 1.6453e-16 0 0 0 0)
(2.71051e-14 3.05119e-14 0 8.13152e-14 6.15953e-15 0 0 0 0)
(0 3.16079e-14 0 0 1.4113e-15 0 0 0 0)
(0 2.00573e-14 0 0 7.10014e-15 0 0 0 0)
(-5.42101e-14 1.35891e-14 0 0 3.90568e-15 0 0 0 0)
(2.71051e-14 -1.1085e-14 0 2.71051e-14 6.57081e-16 0 0 0 0)
(-2.71051e-14 -2.8973e-14 0 8.13152e-14 2.12269e-14 0 0 0 0)
(-5.42101e-14 -1.07466e-14 0 0 1.12404e-14 0 0 0 0)
(5.42101e-14 -2.02326e-15 0 2.71051e-14 -1.16903e-14 0 0 0 0)
(2.71051e-14 -1.23542e-14 0 2.71051e-14 -1.79436e-14 0 0 0 0)
(0 -8.10559e-15 0 2.71051e-14 -9.25448e-15 0 0 0 0)
(-2.71051e-14 2.91298e-14 0 8.13152e-14 4.34335e-15 0 0 0 0)
(-7.04731e-13 4.2071e-12 0 3.25261e-13 9.12389e-12 0 0 0 0)
(7.86047e-13 -5.10193e-12 0 -2.1684e-13 -2.06384e-12 0 0 0 0)
(-1.0842e-13 1.12839e-12 0 -8.13152e-14 3.93225e-13 0 0 0 0)
(5.42101e-14 -2.704e-13 0 0 -1.56866e-13 0 0 0 0)
(2.71051e-14 5.36238e-14 0 -5.42101e-14 3.44527e-15 0 0 0 0)
(2.71051e-14 -2.90943e-14 0 -5.42101e-14 7.11575e-15 0 0 0 0)
(0 -1.13745e-14 0 -5.42101e-14 2.53489e-14 0 0 0 0)
(-5.42101e-14 2.86398e-15 0 -1.0842e-13 2.89071e-14 0 0 0 0)
(0 1.82392e-14 0 -2.71051e-14 3.65383e-14 0 0 0 0)
(-5.42101e-14 1.91099e-14 0 -8.13152e-14 3.16208e-14 0 0 0 0)
(-5.42101e-14 1.79546e-14 0 -5.42101e-14 6.26138e-15 0 0 0 0)
(-2.71051e-14 7.66079e-15 0 -5.42101e-14 -6.1754e-15 0 0 0 0)
(8.13152e-14 -4.96986e-15 0 0 -9.21754e-15 0 0 0 0)
(2.71051e-14 -7.44134e-15 0 0 -2.43151e-14 0 0 0 0)
(-2.71051e-14 -1.49897e-14 0 0 -9.05753e-15 0 0 0 0)
(0 -2.00901e-14 0 8.13152e-14 4.90906e-15 0 0 0 0)
(2.71051e-14 -1.38054e-14 0 0 7.10805e-16 0 0 0 0)
(0 -3.3953e-15 0 0 1.22732e-15 0 0 0 0)
(0 5.85665e-15 0 -2.71051e-14 1.13145e-14 0 0 0 0)
(-2.71051e-14 1.66915e-14 0 0 1.28827e-14 0 0 0 0)
(-1.0842e-13 -4.90067e-13 0 1.92446e-12 -7.65403e-12 0 0 0 0)
(2.71051e-14 5.43714e-13 0 -2.98156e-13 1.64687e-12 0 0 0 0)
(5.42101e-14 -1.14339e-13 0 2.1684e-13 -3.98549e-13 0 0 0 0)
(5.42101e-14 4.79093e-14 0 0 8.35324e-14 0 0 0 0)
(-5.42101e-14 5.63494e-15 0 2.71051e-14 -1.20086e-14 0 0 0 0)
(-5.42101e-14 -2.67741e-15 0 2.71051e-14 1.88385e-14 0 0 0 0)
(-2.71051e-14 -3.20302e-15 0 0 2.19656e-14 0 0 0 0)
(0 1.30143e-14 0 0 1.76853e-14 0 0 0 0)
(0 1.65648e-14 0 -2.71051e-14 -4.84137e-15 0 0 0 0)
(0 2.34888e-16 0 5.42101e-14 -1.75678e-14 0 0 0 0)
(2.71051e-14 -6.18832e-15 0 5.42101e-14 -2.29603e-14 0 0 0 0)
(1.0842e-13 4.57839e-15 0 1.0842e-13 -3.06026e-14 0 0 0 0)
(0 -4.5506e-15 0 5.42101e-14 -1.64439e-14 0 0 0 0)
(0 -1.0925e-14 0 2.71051e-14 -1.17487e-14 0 0 0 0)
(0 2.51162e-16 0 2.71051e-14 -8.9863e-15 0 0 0 0)
(-2.71051e-14 -9.78258e-16 0 2.71051e-14 7.88311e-15 0 0 0 0)
(-2.71051e-14 -5.705e-15 0 8.13152e-14 1.18311e-14 0 0 0 0)
(0 -1.7505e-15 0 0 8.82852e-15 0 0 0 0)
(2.71051e-14 3.54979e-15 0 0 9.35353e-15 0 0 0 0)
(-2.71051e-14 4.93262e-15 0 -2.71051e-14 1.0451e-14 0 0 0 0)
(1.00289e-12 -1.80006e-12 0 -7.31836e-13 3.31956e-12 0 0 0 0)
(-9.75782e-13 2.15355e-12 0 2.43945e-13 -6.49818e-13 0 0 0 0)
(1.6263e-13 -4.34949e-13 0 0 1.72195e-13 0 0 0 0)
(-1.35525e-13 1.16141e-13 0 0 -1.78396e-14 0 0 0 0)
(5.42101e-14 -1.107e-14 0 0 1.25927e-14 0 0 0 0)
(2.71051e-14 4.87985e-15 0 0 9.51126e-15 0 0 0 0)
(-5.42101e-14 -1.25277e-14 0 5.42101e-14 3.13863e-14 0 0 0 0)
(-5.42101e-14 -2.39429e-14 0 8.13152e-14 2.10276e-14 0 0 0 0)
(2.71051e-14 -1.70139e-14 0 5.42101e-14 -5.56645e-15 0 0 0 0)
(5.42101e-14 9.90942e-16 0 5.42101e-14 -1.64482e-14 0 0 0 0)
(0 4.91981e-15 0 5.42101e-14 -5.63552e-15 0 0 0 0)
(-2.71051e-14 1.41772e-14 0 0 -3.11217e-15 0 0 0 0)
(-2.71051e-14 1.38841e-14 0 2.71051e-14 -2.40446e-15 0 0 0 0)
(0 1.62499e-17 0 0 9.84695e-15 0 0 0 0)
(0 4.64212e-15 0 0 3.93829e-15 0 0 0 0)
(0 7.27359e-16 0 0 2.02264e-15 0 0 0 0)
(0 -1.286e-14 0 2.71051e-14 1.69399e-14 0 0 0 0)
(-5.42101e-14 -5.87291e-15 0 0 2.24795e-14 0 0 0 0)
(2.71051e-14 7.47915e-15 0 0 1.58868e-14 0 0 0 0)
(-2.71051e-14 -3.11309e-15 0 2.71051e-14 1.18887e-14 0 0 0 0)
(-6.23416e-13 2.17968e-12 0 -5.42101e-13 1.7111e-12 0 0 0 0)
(7.86047e-13 -2.60365e-12 0 -2.71051e-14 -2.95311e-13 0 0 0 0)
(-1.6263e-13 5.1764e-13 0 -1.89735e-13 7.81354e-14 0 0 0 0)
(5.42101e-14 -1.11693e-13 0 -1.0842e-13 -1.18707e-14 0 0 0 0)
(-5.42101e-14 3.29858e-14 0 -1.0842e-13 -7.85176e-15 0 0 0 0)
(2.71051e-14 1.61162e-14 0 -1.0842e-13 -8.61003e-15 0 0 0 0)
(0 8.31336e-15 0 -1.35525e-13 -3.49102e-15 0 0 0 0)
(2.71051e-14 -2.39385e-14 0 -8.13152e-14 -2.10182e-15 0 0 0 0)
(0 -2.0911e-14 0 -5.42101e-14 1.38978e-14 0 0 0 0)
(-5.42101e-14 1.65816e-16 0 -5.42101e-14 1.19747e-14 0 0 0 0)
(2.71051e-14 7.14771e-15 0 -1.0842e-13 3.6907e-15 0 0 0 0)
(2.71051e-14 7.80946e-15 0 -5.42101e-14 -2.77714e-15 0 0 0 0)
(2.71051e-14 8.40853e-15 0 -8.13152e-14 -1.49131e-14 0 0 0 0)
(0 -4.58224e-15 0 -5.42101e-14 -1.11827e-14 0 0 0 0)
(-2.71051e-14 -7.57315e-15 0 -5.42101e-14 -7.349e-15 0 0 0 0)
(0 1.20233e-14 0 -5.42101e-14 -8.96652e-15 0 0 0 0)
(0 1.47519e-14 0 -2.71051e-14 9.17912e-15 0 0 0 0)
(-2.71051e-14 -2.80354e-15 0 -2.71051e-14 1.9234e-14 0 0 0 0)
(0 -7.04106e-15 0 0 1.52657e-14 0 0 0 0)
(-2.71051e-14 -2.28429e-14 0 0 3.87918e-15 0 0 0 0)
(4.33681e-13 -3.84267e-13 0 -4.33681e-13 -4.11412e-12 0 0 0 0)
(-6.23416e-13 5.20583e-13 0 1.35525e-13 8.20885e-13 0 0 0 0)
(1.35525e-13 -1.51508e-13 0 0 -1.7146e-13 0 0 0 0)
(-8.13152e-14 3.01534e-14 0 5.42101e-14 3.78745e-14 0 0 0 0)
(5.42101e-14 -7.80937e-15 0 0 -1.09196e-14 0 0 0 0)
(0 9.24059e-15 0 0 -6.69821e-15 0 0 0 0)
(0 -6.01951e-15 0 5.42101e-14 -2.53328e-14 0 0 0 0)
(0 -6.55416e-15 0 5.42101e-14 -2.1947e-14 0 0 0 0)
(2.71051e-14 -2.93739e-15 0 2.71051e-14 9.95263e-16 0 0 0 0)
(0 -9.21612e-15 0 2.71051e-14 7.20819e-15 0 0 0 0)
(0 -9.83204e-15 0 8.13152e-14 1.52104e-15 0 0 0 0)
(-2.71051e-14 -4.42666e-15 0 0 -1.12323e-14 0 0 0 0)
(0 5.47851e-15 0 -5.42101e-14 -1.86809e-14 0 0 0 0)
(2.71051e-14 7.58039e-15 0 0 -1.143e-14 0 0 0 0)
(0 6.85829e-15 0 -5.42101e-14 8.54178e-15 0 0 0 0)
(0 1.72555e-14 0 0 4.231e-15 0 0 0 0)
(0 1.53405e-14 0 -2.71051e-14 -1.7229e-14 0 0 0 0)
(0 2.13631e-16 0 0 -1.69198e-14 0 0 0 0)
(5.42101e-14 -7.87569e-15 0 0 4.33896e-15 0 0 0 0)
(0 -2.22579e-14 0 0 -2.08941e-15 0 0 0 0)
(-9.21572e-13 -1.11356e-12 0 1.35525e-13 1.78591e-12 0 0 0 0)
(1.16552e-12 1.33901e-12 0 2.71051e-14 -4.02795e-13 0 0 0 0)
(-2.98156e-13 -2.6537e-13 0 5.42101e-14 9.49269e-14 0 0 0 0)
(1.0842e-13 4.88471e-14 0 8.13152e-14 -2.77754e-14 0 0 0 0)
(-2.71051e-14 -1.15869e-14 0 8.13152e-14 -7.65396e-16 0 0 0 0)
(2.71051e-14 1.70305e-15 0 1.0842e-13 -1.21406e-14 0 0 0 0)
(2.71051e-14 -6.9354e-15 0 5.42101e-14 -1.31655e-14 0 0 0 0)
(0 2.38952e-15 0 5.42101e-14 2.18675e-15 0 0 0 0)
(-2.71051e-14 8.24417e-15 0 2.71051e-14 2.39435e-15 0 0 0 0)
(0 6.91591e-16 0 0 2.5947e-15 0 0 0 0)
(0 -1.12928e-14 0 0 1.43342e-14 0 0 0 0)
(0 -1.23925e-14 0 2.71051e-14 2.03966e-14 0 0 0 0)
(0 8.2108e-15 0 0 1.55446e-14 0 0 0 0)
(0 2.26405e-14 0 0 8.11982e-15 0 0 0 0)
(-5.42101e-14 8.08788e-15 0 0 1.64634e-14 0 0 0 0)
(0 -1.37475e-14 0 0 3.44406e-15 0 0 0 0)
(2.71051e-14 -6.39893e-15 0 0 -1.99175e-14 0 0 0 0)
(0 1.87644e-14 0 -5.42101e-14 -1.78861e-14 0 0 0 0)
(0 7.78933e-15 0 0 -7.4769e-15 0 0 0 0)
(-2.71051e-14 -2.50924e-14 0 0 -2.21583e-15 0 0 0 0)
(6.77626e-13 9.9885e-13 0 -5.42101e-14 7.33293e-13 0 0 0 0)
(-7.31836e-13 -1.1704e-12 0 0 -2.45244e-13 0 0 0 0)
(1.6263e-13 2.23511e-13 0 0 4.63678e-14 0 0 0 0)
(-5.42101e-14 -6.55388e-14 0 0 -1.84969e-14 0 0 0 0)
(0 7.82537e-15 0 2.71051e-14 3.93159e-15 0 0 0 0)
(0 -3.15953e-15 0 2.71051e-14 -5.30914e-15 0 0 0 0)
(0 8.30785e-15 0 2.71051e-14 1.76599e-15 0 0 0 0)
(-5.42101e-14 9.00571e-15 0 2.71051e-14 2.29429e-14 0 0 0 0)
(0 -2.52944e-15 0 0 1.63695e-14 0 0 0 0)
(0 2.72368e-15 0 2.71051e-14 1.06678e-14 0 0 0 0)
(0 7.96991e-15 0 -2.71051e-14 7.89761e-15 0 0 0 0)
(-5.42101e-14 -3.21617e-15 0 0 2.27549e-14 0 0 0 0)
(0 -6.79831e-15 0 5.42101e-14 8.90619e-15 0 0 0 0)
(0 8.49918e-15 0 0 -3.2275e-15 0 0 0 0)
(0 2.18253e-15 0 8.13152e-14 -1.49537e-15 0 0 0 0)
(0 -1.91255e-14 0 2.71051e-14 3.49032e-15 0 0 0 0)
(0 -5.98966e-15 0 0 8.50939e-15 0 0 0 0)
(0 1.26543e-14 0 0 1.81751e-15 0 0 0 0)
(5.42101e-14 7.79459e-15 0 0 -1.86577e-14 0 0 0 0)
(0 -1.25652e-14 0 0 -5.8256e-15 0 0 0 0)
(-1.02999e-12 -6.25514e-13 0 1.5992e-12 -1.53691e-12 0 0 0 0)
(1.24683e-12 6.52086e-13 0 -4.06576e-13 3.8087e-13 0 0 0 0)
(-2.1684e-13 -3.86227e-14 0 2.71051e-14 -8.62922e-14 0 0 0 0)
(1.35525e-13 6.4109e-15 0 -1.35525e-13 2.51408e-14 0 0 0 0)
(-5.42101e-14 1.60088e-15 0 -5.42101e-14 2.2341e-16 0 0 0 0)
(2.71051e-14 -4.62557e-16 0 -8.13152e-14 4.23105e-15 0 0 0 0)
(0 2.13167e-14 0 -8.13152e-14 7.75195e-15 0 0 0 0)
(2.71051e-14 1.69931e-14 0 -8.13152e-14 9.81893e-15 0 0 0 0)
(-2.71051e-14 -4.03093e-15 0 -5.42101e-14 1.28171e-14 0 0 0 0)
(-2.71051e-14 -7.78035e-15 0 -1.0842e-13 1.47303e-14 0 0 0 0)
(-2.71051e-14 7.94252e-16 0 -5.42101e-14 3.86856e-15 0 0 0 0)
(0 -1.13839e-14 0 -8.13152e-14 5.13407e-16 0 0 0 0)
(0 -1.77716e-14 0 -5.42101e-14 -3.52291e-16 0 0 0 0)
(0 1.22389e-14 0 -8.13152e-14 3.06052e-15 0 0 0 0)
(2.71051e-14 1.48057e-14 0 -8.13152e-14 -1.02121e-14 0 0 0 0)
(-2.71051e-14 -3.74269e-15 0 0 -7.88003e-15 0 0 0 0)
(0 -8.07174e-15 0 0 8.49463e-15 0 0 0 0)
(-2.71051e-14 -8.40263e-15 0 8.13152e-14 7.67296e-15 0 0 0 0)
(0 1.4622e-16 0 2.71051e-14 6.89059e-15 0 0 0 0)
(-2.71051e-14 -6.09159e-16 0 0 -2.18654e-15 0 0 0 0)
(1.87025e-12 -1.5719e-13 0 -1.11131e-12 2.27355e-12 0 0 0 0)
(-2.27682e-12 2.80217e-13 0 2.71051e-14 -3.08329e-13 0 0 0 0)
(4.06576e-13 -1.32218e-13 0 -1.6263e-13 7.33426e-14 0 0 0 0)
(-2.1684e-13 2.09768e-14 0 -8.13152e-14 -8.81203e-15 0 0 0 0)
(8.13152e-14 -1.30844e-14 0 -1.35525e-13 -5.02427e-15 0 0 0 0)
(0 4.36902e-15 0 -8.13152e-14 1.31919e-15 0 0 0 0)
(0 1.38957e-14 0 -1.35525e-13 1.09144e-14 0 0 0 0)
(-5.42101e-14 1.40708e-14 0 -1.35525e-13 -1.08194e-14 0 0 0 0)
(5.42101e-14 2.3819e-15 0 -8.13152e-14 -1.99848e-14 0 0 0 0)
(-5.42101e-14 -6.22482e-15 0 -8.13152e-14 -1.22726e-14 0 0 0 0)
(0 -6.24696e-15 0 -8.13152e-14 -5.32165e-15 0 0 0 0)
(5.42101e-14 -7.43702e-15 0 -2.71051e-14 -1.38512e-14 0 0 0 0)
(-5.42101e-14 -4.2512e-15 0 -2.71051e-14 -2.06161e-16 0 0 0 0)
(0 -1.36059e-15 0 -5.42101e-14 -1.18157e-14 0 0 0 0)
(1.0842e-13 -8.75802e-15 0 -2.71051e-14 -3.21662e-14 0 0 0 0)
(2.71051e-14 -4.18798e-16 0 -2.71051e-14 -2.22457e-14 0 0 0 0)
(0 9.56333e-15 0 -5.42101e-14 -8.88292e-15 0 0 0 0)
(5.42101e-14 1.10502e-14 0 -8.13152e-14 -7.41901e-15 0 0 0 0)
(0 -2.06491e-15 0 -2.71051e-14 -4.274e-15 0 0 0 0)
(0 -1.72693e-14 0 -2.71051e-14 -5.65685e-15 0 0 0 0)
(-2.03288e-12 1.33971e-12 0 -1.0571e-12 -2.39589e-12 0 0 0 0)
(2.1413e-12 -1.54813e-12 0 4.33681e-13 3.75017e-13 0 0 0 0)
(-3.25261e-13 2.60894e-13 0 8.13152e-14 -9.73822e-14 0 0 0 0)
(1.6263e-13 -7.1956e-14 0 2.1684e-13 1.63761e-14 0 0 0 0)
(-2.71051e-14 1.17321e-14 0 1.6263e-13 4.11899e-15 0 0 0 0)
(0 1.54761e-14 0 1.0842e-13 7.3331e-15 0 0 0 0)
(0 9.17803e-15 0 1.6263e-13 7.48985e-15 0 0 0 0)
(0 -1.39061e-14 0 1.35525e-13 -8.17331e-16 0 0 0 0)
(0 -5.48409e-15 0 1.0842e-13 -1.29947e-14 0 0 0 0)
(0 6.88285e-15 0 1.35525e-13 -9.09387e-15 0 0 0 0)
(2.71051e-14 -7.84311e-16 0 1.35525e-13 -6.12086e-15 0 0 0 0)
(5.42101e-14 -6.26843e-15 0 1.0842e-13 -5.98594e-15 0 0 0 0)
(-5.42101e-14 -1.57361e-14 0 1.35525e-13 -8.26673e-15 0 0 0 0)
(0 -1.97212e-14 0 1.6263e-13 -2.6777e-14 0 0 0 0)
(5.42101e-14 4.37572e-15 0 1.0842e-13 -2.11259e-14 0 0 0 0)
(0 1.95406e-14 0 5.42101e-14 1.10953e-14 0 0 0 0)
(-5.42101e-14 6.75494e-15 0 8.13152e-14 7.91967e-15 0 0 0 0)
(-2.71051e-14 -3.79371e-15 0 0 -8.65909e-15 0 0 0 0)
(8.13152e-14 1.90838e-15 0 2.71051e-14 -2.70253e-14 0 0 0 0)
(0 9.32169e-15 0 2.71051e-14 -7.84613e-15 0 0 0 0)
(1.16552e-12 -2.17807e-12 0 1.87025e-12 1.13879e-12 0 0 0 0)
(-1.0842e-12 2.57873e-12 0 -3.25261e-13 -3.10139e-13 0 0 0 0)
(2.1684e-13 -4.90859e-13 0 2.1684e-13 6.633e-14 0 0 0 0)
(-1.0842e-13 1.22478e-13 0 -2.71051e-14 -1.05848e-14 0 0 0 0)
(-2.71051e-14 -2.21274e-14 0 5.42101e-14 2.2285e-14 0 0 0 0)
(-5.42101e-14 7.73988e-15 0 2.71051e-14 2.44963e-14 0 0 0 0)
(2.71051e-14 5.7453e-15 0 0 5.10057e-15 0 0 0 0)
(-2.71051e-14 -6.41377e-15 0 2.71051e-14 -3.49659e-16 0 0 0 0)
(-5.42101e-14 -5.89464e-15 0 0 1.31043e-14 0 0 0 0)
(0 6.49054e-16 0 0 3.96694e-15 0 0 0 0)
(2.71051e-14 -3.13902e-15 0 0 -8.60566e-15 0 0 0 0)
(0 -9.58289e-15 0 2.71051e-14 -3.08868e-15 0 0 0 0)
(-2.71051e-14 -2.50423e-14 0 0 1.98736e-15 0 0 0 0)
(0 -1.42197e-14 0 2.71051e-14 1.22368e-14 0 0 0 0)
(2.71051e-14 2.91143e-14 0 0 2.10821e-14 0 0 0 0)
(-2.71051e-14 2.86267e-14 0 0 1.38306e-14 0 0 0 0)
(-2.71051e-14 -1.0191e-14 0 0 7.27607e-15 0 0 0 0)
(2.71051e-14 -2.38948e-14 0 5.42101e-14 9.9075e-15 0 0 0 0)
(0 -1.25195e-15 0 2.71051e-14 6.82485e-15 0 0 0 0)
(-5.42101e-14 1.76022e-14 0 0 2.60139e-15 0 0 0 0)
(-4.87891e-13 2.16836e-12 0 -8.94467e-13 4.87912e-13 0 0 0 0)
(4.87891e-13 -2.62059e-12 0 0 3.20559e-16 0 0 0 0)
(-8.13152e-14 5.60448e-13 0 -2.98156e-13 9.06869e-15 0 0 0 0)
(2.71051e-14 -1.16001e-13 0 -1.0842e-13 3.83352e-15 0 0 0 0)
(0 4.68132e-14 0 -2.1684e-13 4.00825e-15 0 0 0 0)
(0 -1.70832e-15 0 -1.35525e-13 1.56193e-14 0 0 0 0)
(-2.71051e-14 -1.56679e-14 0 -1.0842e-13 1.26353e-15 0 0 0 0)
(0 -5.90237e-15 0 -1.0842e-13 -2.18581e-14 0 0 0 0)
(2.71051e-14 -1.16749e-15 0 -1.0842e-13 -1.26515e-14 0 0 0 0)
(0 -1.48271e-14 0 -5.42101e-14 -1.38695e-14 0 0 0 0)
(5.42101e-14 -7.83993e-15 0 -5.42101e-14 -2.10755e-14 0 0 0 0)
(2.71051e-14 4.3246e-15 0 -1.0842e-13 -2.30747e-14 0 0 0 0)
(0 -4.10637e-16 0 -5.42101e-14 -1.94168e-15 0 0 0 0)
(-2.71051e-14 -6.26383e-16 0 -1.0842e-13 2.9553e-14 0 0 0 0)
(-5.42101e-14 5.96951e-15 0 -1.0842e-13 2.36712e-14 0 0 0 0)
(5.42101e-14 5.73453e-15 0 -5.42101e-14 -1.31204e-14 0 0 0 0)
(0 2.83188e-15 0 -8.13152e-14 -1.75447e-14 0 0 0 0)
(0 -4.24493e-15 0 -5.42101e-14 -1.91019e-15 0 0 0 0)
(2.71051e-14 -5.39773e-15 0 -5.42101e-14 6.8044e-15 0 0 0 0)
(-2.71051e-14 -1.0455e-16 0 -2.71051e-14 1.91008e-15 0 0 0 0)
(2.71051e-13 -1.68984e-12 0 -6.50521e-13 -2.24308e-12 0 0 0 0)
(-4.60786e-13 2.09989e-12 0 1.6263e-13 4.47674e-13 0 0 0 0)
(1.0842e-13 -4.87346e-13 0 5.42101e-14 -8.99303e-14 0 0 0 0)
(-5.42101e-14 1.17418e-13 0 0 2.20964e-14 0 0 0 0)
(-5.42101e-14 -1.03416e-14 0 8.13152e-14 -7.37318e-15 0 0 0 0)
(5.42101e-14 4.99516e-15 0 2.71051e-14 -2.18197e-14 0 0 0 0)
(5.42101e-14 -3.17321e-14 0 8.13152e-14 -2.48966e-14 0 0 0 0)
(0 -2.03288e-14 0 8.13152e-14 -1.06789e-14 0 0 0 0)
(2.71051e-14 2.09396e-15 0 1.0842e-13 -8.90876e-15 0 0 0 0)
(0 -7.77489e-15 0 8.13152e-14 4.13714e-15 0 0 0 0)
(-2.71051e-14 -1.23442e-14 0 5.42101e-14 2.98983e-15 0 0 0 0)
(0 9.55091e-15 0 0 -7.09908e-15 0 0 0 0)
(2.71051e-14 2.75854e-14 0 0 -9.98711e-15 0 0 0 0)
(-2.71051e-14 1.13931e-14 0 0 6.4905e-15 0 0 0 0)
(0 -1.35591e-14 0 8.13152e-14 3.73529e-15 0 0 0 0)
(0 -1.25891e-14 0 0 -8.56167e-15 0 0 0 0)
(2.71051e-14 1.01919e-15 0 0 -2.02942e-14 0 0 0 0)
(5.42101e-14 4.54316e-16 0 5.42101e-14 -1.39314e-14 0 0 0 0)
(0 2.56832e-15 0 2.71051e-14 -1.65121e-15 0 0 0 0)
(0 8.88773e-15 0 2.71051e-14 3.6349e-15 0 0 0 0)
(-9.75782e-13 3.72955e-13 0 8.13152e-14 4.50732e-12 0 0 0 0)
(1.16552e-12 -4.67434e-13 0 8.13152e-14 -1.0056e-12 0 0 0 0)
(-2.43945e-13 1.3487e-13 0 2.71051e-14 2.01649e-13 0 0 0 0)
(8.13152e-14 -3.34438e-14 0 5.42101e-14 -5.61544e-14 0 0 0 0)
(2.71051e-14 2.89712e-15 0 8.13152e-14 5.5348e-15 0 0 0 0)
(0 -1.92317e-14 0 8.13152e-14 -1.84034e-14 0 0 0 0)
(2.71051e-14 -4.52715e-15 0 5.42101e-14 -1.20715e-14 0 0 0 0)
(0 1.00854e-14 0 2.71051e-14 5.58056e-15 0 0 0 0)
(0 1.36485e-14 0 2.71051e-14 -4.09427e-16 0 0 0 0)
(0 -2.92854e-15 0 2.71051e-14 5.54341e-15 0 0 0 0)
(-2.71051e-14 -1.90761e-14 0 5.42101e-14 1.59929e-14 0 0 0 0)
(-2.71051e-14 -8.65234e-15 0 8.13152e-14 1.79304e-14 0 0 0 0)
(0 1.31789e-14 0 0 -1.66753e-16 0 0 0 0)
(0 1.3096e-14 0 8.13152e-14 -1.08811e-14 0 0 0 0)
(2.71051e-14 -9.08266e-15 0 5.42101e-14 2.98401e-16 0 0 0 0)
(-2.71051e-14 -1.82949e-14 0 5.42101e-14 1.0873e-14 0 0 0 0)
(0 -2.5379e-15 0 1.0842e-13 5.82155e-15 0 0 0 0)
(2.71051e-14 1.4398e-14 0 0 3.1603e-15 0 0 0 0)
(-2.71051e-14 1.21686e-14 0 2.71051e-14 1.17211e-14 0 0 0 0)
(-2.71051e-14 -2.08824e-15 0 0 9.09536e-15 0 0 0 0)
(4.06576e-13 1.81188e-12 0 1.21973e-12 -8.87063e-13 0 0 0 0)
(-4.87891e-13 -2.20578e-12 0 -3.79471e-13 1.44177e-13 0 0 0 0)
(1.0842e-13 4.62096e-13 0 -2.71051e-14 -6.60961e-14 0 0 0 0)
(-2.71051e-14 -7.86968e-14 0 -5.42101e-14 -4.01439e-15 0 0 0 0)
(0 2.74094e-14 0 -8.13152e-14 -1.23841e-14 0 0 0 0)
(0 -1.26111e-14 0 -8.13152e-14 -1.85204e-15 0 0 0 0)
(-5.42101e-14 -7.74817e-15 0 -1.0842e-13 6.15825e-15 0 0 0 0)
(0 -8.66676e-15 0 -1.0842e-13 -7.93862e-15 0 0 0 0)
(5.42101e-14 2.05681e-15 0 -1.0842e-13 -1.48426e-14 0 0 0 0)
(2.71051e-14 8.62742e-15 0 -1.0842e-13 -1.91052e-14 0 0 0 0)
(0 4.27899e-17 0 -1.0842e-13 -5.06739e-15 0 0 0 0)
(0 -6.60873e-15 0 -2.71051e-14 1.26538e-15 0 0 0 0)
(0 -1.22611e-15 0 0 7.32742e-15 0 0 0 0)
(0 1.18583e-14 0 -8.13152e-14 -7.22334e-15 0 0 0 0)
(2.71051e-14 8.19492e-15 0 -5.42101e-14 -9.77178e-15 0 0 0 0)
(2.71051e-14 -7.06599e-15 0 -5.42101e-14 6.88455e-15 0 0 0 0)
(-5.42101e-14 -6.69349e-15 0 -5.42101e-14 2.09806e-14 0 0 0 0)
(-2.71051e-14 6.3539e-15 0 -5.42101e-14 4.67248e-15 0 0 0 0)
(0 8.50338e-15 0 -5.42101e-14 -8.1298e-15 0 0 0 0)
(0 -1.19288e-14 0 -2.71051e-14 -7.64629e-15 0 0 0 0)
(-1.35525e-13 -3.69932e-13 0 -2.71051e-14 -7.59494e-12 0 0 0 0)
(-8.13152e-14 3.53533e-13 0 1.35525e-13 1.56439e-12 0 0 0 0)
(2.71051e-14 -1.33214e-14 0 1.35525e-13 -3.54325e-13 0 0 0 0)
(5.42101e-14 2.02682e-14 0 8.13152e-14 6.25583e-14 0 0 0 0)
(5.42101e-14 5.05948e-15 0 8.13152e-14 -4.08965e-14 0 0 0 0)
(0 -6.89367e-16 0 1.0842e-13 -1.54628e-14 0 0 0 0)
(0 -1.06137e-14 0 1.0842e-13 -1.12469e-14 0 0 0 0)
(2.71051e-14 -1.09155e-14 0 1.0842e-13 -3.32711e-15 0 0 0 0)
(-2.71051e-14 2.482e-15 0 8.13152e-14 1.2548e-14 0 0 0 0)
(0 6.84671e-15 0 8.13152e-14 4.49066e-15 0 0 0 0)
(0 1.2944e-15 0 8.13152e-14 -5.22034e-15 0 0 0 0)
(2.71051e-14 3.74246e-15 0 0 -6.49007e-15 0 0 0 0)
(0 4.69022e-15 0 2.71051e-14 5.09886e-15 0 0 0 0)
(-2.71051e-14 -4.00318e-15 0 5.42101e-14 1.48529e-16 0 0 0 0)
(0 5.02522e-15 0 2.71051e-14 -1.38381e-14 0 0 0 0)
(2.71051e-14 1.24574e-14 0 0 -1.27612e-14 0 0 0 0)
(0 -4.74997e-15 0 2.71051e-14 -1.2115e-15 0 0 0 0)
(0 -1.47123e-14 0 5.42101e-14 -4.47636e-15 0 0 0 0)
(5.42101e-14 -1.50152e-16 0 0 -1.4395e-14 0 0 0 0)
(0 1.36878e-14 0 2.71051e-14 -1.30377e-14 0 0 0 0)
(5.14996e-13 -4.21866e-12 0 -4.87891e-13 5.67355e-12 0 0 0 0)
(-2.98156e-13 5.03483e-12 0 8.13152e-14 -1.08496e-12 0 0 0 0)
(2.71051e-14 -1.03974e-12 0 -5.42101e-14 2.85183e-13 0 0 0 0)
(-8.13152e-14 2.34731e-13 0 -2.71051e-14 -3.18965e-14 0 0 0 0)
(0 -5.06116e-14 0 -2.71051e-14 3.0184e-14 0 0 0 0)
(0 1.70385e-14 0 -5.42101e-14 1.36556e-14 0 0 0 0)
(-2.71051e-14 4.38747e-15 0 -5.42101e-14 1.3835e-14 0 0 0 0)
(-2.71051e-14 1.51281e-14 0 -2.71051e-14 1.98819e-14 0 0 0 0)
(-2.71051e-14 9.87458e-15 0 -2.71051e-14 9.62228e-15 0 0 0 0)
(2.71051e-14 -9.14093e-15 0 -2.71051e-14 7.52532e-15 0 0 0 0)
(-2.71051e-14 -1.09379e-14 0 -2.71051e-14 1.19165e-14 0 0 0 0)
(-2.71051e-14 3.71047e-15 0 0 1.71689e-14 0 0 0 0)
(2.71051e-14 5.4125e-15 0 -2.71051e-14 4.46357e-15 0 0 0 0)
(0 -7.07867e-15 0 0 7.06613e-15 0 0 0 0)
(0 -4.71483e-15 0 -2.71051e-14 1.55454e-14 0 0 0 0)
(0 5.5606e-15 0 0 6.75574e-15 0 0 0 0)
(-2.71051e-14 1.59137e-15 0 -2.71051e-14 -2.47261e-15 0 0 0 0)
(-2.71051e-14 -6.82959e-15 0 0 9.91434e-15 0 0 0 0)
(0 -5.79817e-17 0 0 1.90693e-14 0 0 0 0)
(-2.71051e-14 1.5504e-14 0 -2.71051e-14 1.01225e-14 0 0 0 0)
)
;

boundaryField
{
    movingWall
    {
        type            extrapolatedCalculated;
        value           nonuniform List<tensor> 
20
(
(5.14996e-13 -4.21866e-12 0 -1.90958e-12 2.11905e-11 0 0 0 0)
(-2.98156e-13 5.03483e-12 0 -1.77636e-13 -4.31588e-12 0 0 0 0)
(2.71051e-14 -1.03974e-12 0 -7.10543e-13 1.0512e-12 0 0 0 0)
(-8.13152e-14 2.34731e-13 0 -2.66454e-13 -1.5693e-13 0 0 0 0)
(0 -5.06116e-14 0 -3.10862e-13 1.12274e-13 0 0 0 0)
(0 1.70385e-14 0 -3.10862e-13 4.55167e-14 0 0 0 0)
(-2.71051e-14 4.38747e-15 0 -3.10862e-13 4.41198e-14 0 0 0 0)
(-2.71051e-14 1.51281e-14 0 -2.66454e-13 2.79668e-14 0 0 0 0)
(-2.71051e-14 9.87458e-15 0 -1.77636e-13 -1.63927e-14 0 0 0 0)
(2.71051e-14 -9.14093e-15 0 -2.22045e-13 -1.15315e-14 0 0 0 0)
(-2.71051e-14 -1.09379e-14 0 -2.22045e-13 2.0171e-14 0 0 0 0)
(-2.71051e-14 3.71047e-15 0 -8.88178e-14 3.22203e-14 0 0 0 0)
(2.71051e-14 5.4125e-15 0 -1.33227e-13 5.32912e-15 0 0 0 0)
(0 -7.07867e-15 0 -1.77636e-13 1.05703e-14 0 0 0 0)
(0 -4.71483e-15 0 -1.33227e-13 3.36438e-14 0 0 0 0)
(0 5.5606e-15 0 -1.77636e-13 2.94296e-14 0 0 0 0)
(-2.71051e-14 1.59137e-15 0 -1.77636e-13 1.14014e-14 0 0 0 0)
(-2.71051e-14 -6.82959e-15 0 -8.88178e-14 2.30641e-14 0 0 0 0)
(0 -5.79817e-17 0 -4.44089e-14 3.87198e-14 0 0 0 0)
(-2.71051e-14 1.5504e-14 0 -4.44089e-14 2.3296e-14 0 0 0 0)
)
;
    }
    fixedWalls
    {
        type            extrapolatedCalculated;
        value           nonuniform List<tensor> 
60
(
(-2.93099e-12 2.20658e-11 0 7.31836e-13 1.03226e-11 0 0 0 0)
(5.86198e-12 1.92247e-11 0 3.79471e-13 -1.52372e-11 0 0 0 0)
(-1.42109e-12 -3.88829e-11 0 -2.27682e-12 5.85724e-13 0 0 0 0)
(-3.10862e-12 2.15676e-11 0 3.25261e-13 9.12389e-12 0 0 0 0)
(-2.66454e-13 -2.38739e-12 0 1.92446e-12 -7.65403e-12 0 0 0 0)
(4.61853e-12 -9.04852e-12 0 -7.31836e-13 3.31956e-12 0 0 0 0)
(-3.19744e-12 1.08909e-11 0 -5.42101e-13 1.7111e-12 0 0 0 0)
(2.4869e-12 -2.20411e-12 0 -4.33681e-13 -4.11412e-12 0 0 0 0)
(-5.06262e-12 -5.56564e-12 0 1.35525e-13 1.78591e-12 0 0 0 0)
(3.19744e-12 4.93953e-12 0 -5.42101e-14 7.33293e-13 0 0 0 0)
(-5.32907e-12 -2.63246e-12 0 1.5992e-12 -1.53691e-12 0 0 0 0)
(9.54792e-12 -1.20811e-12 0 -1.11131e-12 2.27355e-12 0 0 0 0)
(-9.68114e-12 6.46175e-12 0 -1.0571e-12 -2.39589e-12 0 0 0 0)
(5.24025e-12 -1.07917e-11 0 1.87025e-12 1.13879e-12 0 0 0 0)
(-2.22045e-12 1.10169e-11 0 -8.94467e-13 4.87912e-13 0 0 0 0)
(1.73195e-12 -8.84004e-12 0 -6.50521e-13 -2.24308e-12 0 0 0 0)
(-4.88498e-12 2.04458e-12 0 8.13152e-14 4.50732e-12 0 0 0 0)
(1.9984e-12 9.18923e-12 0 1.21973e-12 -8.87063e-13 0 0 0 0)
(4.44089e-14 -1.50367e-12 0 -2.71051e-14 -7.59494e-12 0 0 0 0)
(1.90958e-12 -2.11905e-11 0 -4.87891e-13 5.67355e-12 0 0 0 0)
(0 -1.51384e-15 0 -5.42101e-14 -9.83833e-15 0 0 0 0)
(1.77636e-13 4.08672e-14 0 0 -1.44664e-14 0 0 0 0)
(-4.44089e-14 5.63519e-14 0 8.13152e-14 4.34335e-15 0 0 0 0)
(-4.44089e-14 2.34938e-14 0 0 1.28827e-14 0 0 0 0)
(0 4.82107e-15 0 -2.71051e-14 1.0451e-14 0 0 0 0)
(-4.44089e-14 -1.83103e-14 0 2.71051e-14 1.18887e-14 0 0 0 0)
(-4.44089e-14 -4.27336e-14 0 0 3.87918e-15 0 0 0 0)
(0 -3.38271e-14 0 0 -2.08941e-15 0 0 0 0)
(-8.88178e-14 -3.43759e-14 0 0 -2.21583e-15 0 0 0 0)
(0 -2.49638e-14 0 0 -5.8256e-15 0 0 0 0)
(-8.88178e-14 -1.10735e-14 0 0 -2.18654e-15 0 0 0 0)
(0 -1.62176e-14 0 -2.71051e-14 -5.65685e-15 0 0 0 0)
(0 1.15539e-14 0 2.71051e-14 -7.84613e-15 0 0 0 0)
(-4.44089e-14 1.51669e-14 0 0 2.60139e-15 0 0 0 0)
(-4.44089e-14 1.14829e-15 0 -2.71051e-14 1.91008e-15 0 0 0 0)
(0 7.52658e-15 0 2.71051e-14 3.6349e-15 0 0 0 0)
(-4.44089e-14 -1.33913e-14 0 0 9.09536e-15 0 0 0 0)
(0 -2.88549e-14 0 -2.71051e-14 -7.64629e-15 0 0 0 0)
(0 1.71938e-14 0 2.71051e-14 -1.30377e-14 0 0 0 0)
(-4.44089e-14 2.3296e-14 0 -2.71051e-14 1.01225e-14 0 0 0 0)
(-4.33681e-13 4.43772e-12 0 -2.93099e-12 2.20658e-11 0 0 0 0)
(8.13152e-13 -5.24752e-12 0 1.24345e-12 -4.31493e-12 0 0 0 0)
(-2.43945e-13 1.03247e-12 0 2.66454e-13 1.07574e-12 0 0 0 0)
(0 -2.52424e-13 0 2.66454e-13 -1.85064e-13 0 0 0 0)
(-2.71051e-14 5.72412e-14 0 2.22045e-13 6.60415e-14 0 0 0 0)
(2.71051e-14 -5.76357e-16 0 2.22045e-13 4.39004e-14 0 0 0 0)
(-2.71051e-14 7.46106e-16 0 2.66454e-13 6.37361e-14 0 0 0 0)
(0 -9.06097e-15 0 2.22045e-13 4.68848e-14 0 0 0 0)
(-2.71051e-14 -1.17534e-14 0 1.77636e-13 2.74922e-14 0 0 0 0)
(0 -2.18395e-15 0 2.22045e-13 -1.28988e-16 0 0 0 0)
(-2.71051e-14 9.83432e-15 0 1.33227e-13 1.87564e-14 0 0 0 0)
(2.71051e-14 7.47114e-15 0 1.77636e-13 3.92083e-14 0 0 0 0)
(-5.42101e-14 1.94335e-15 0 1.33227e-13 4.86409e-14 0 0 0 0)
(-2.71051e-14 -1.27871e-14 0 0 4.69817e-14 0 0 0 0)
(2.71051e-14 -9.67983e-15 0 0 -2.50737e-15 0 0 0 0)
(-2.71051e-14 3.45399e-15 0 8.88178e-14 8.2624e-15 0 0 0 0)
(0 -1.52932e-15 0 -8.88178e-14 1.13086e-14 0 0 0 0)
(5.42101e-14 -2.24789e-16 0 8.88178e-14 2.14513e-15 0 0 0 0)
(-5.42101e-14 -1.57822e-16 0 4.44089e-14 1.04095e-14 0 0 0 0)
(0 -2.98082e-15 0 0 1.51384e-15 0 0 0 0)
)
;
    }
    frontAndBack
    {
        type            empty;
    }
}


// ************************************************************************* //
