/*--------------------------------*- C++ -*----------------------------------*\
| =========                 |                                                 |
| \\      /  F ield         | OpenFOAM: The Open Source CFD Toolbox           |
|  \\    /   O peration     | Version:  2506                                  |
|   \\  /    A nd           | Website:  www.openfoam.com                      |
|    \\/     M anipulation  |                                                 |
\*---------------------------------------------------------------------------*/
FoamFile
{
    version     2.0;
    format      ascii;
    arch        "LSB;label=32;scalar=64";
    class       volVectorField;
    location    "5.5";
    object      gradPhi;
}
// * * * * * * * * * * * * * * * * * * * * * * * * * * * * * * * * * * * * * //

dimensions      [0 2 -1 0 0 0 0];

internalField   nonuniform List<vector> 
400
(
(-0.02 5.98498e-17 0)
(8.76811e-17 -8.61411e-17 0)
(-2.81241e-17 2.68401e-17 0)
(4.96308e-18 -3.23162e-18 0)
(-1.65436e-18 7.90732e-19 0)
(0 2.07393e-20 0)
(0 9.98545e-20 0)
(0 2.30337e-19 0)
(-1.65436e-18 9.30151e-19 0)
(0 4.83229e-20 0)
(0 5.4114e-19 0)
(-1.65436e-18 7.71493e-19 0)
(-1.65436e-18 1.37641e-18 0)
(0 1.92542e-18 0)
(0 -6.37128e-19 0)
(0 -3.35118e-19 0)
(0 1.84158e-19 0)
(0 1.89613e-19 0)
(0 5.3995e-20 0)
(0 7.12976e-20 0)
(-0.02 -9.05214e-17 0)
(-1.32349e-16 1.32299e-16 0)
(3.80503e-17 -3.67732e-17 0)
(-8.27181e-18 8.6163e-18 0)
(1.65436e-18 -4.43672e-19 0)
(1.65436e-18 -2.13325e-18 0)
(1.65436e-18 -2.65278e-18 0)
(1.65436e-18 -2.39041e-18 0)
(4.96308e-18 -3.84664e-18 0)
(0 -1.38602e-18 0)
(0 4.99375e-19 0)
(0 7.64233e-19 0)
(0 3.96034e-21 0)
(0 7.52593e-20 0)
(-1.65436e-18 1.00058e-18 0)
(1.65436e-18 -4.9375e-19 0)
(0 3.14442e-19 0)
(0 1.00663e-19 0)
(0 -6.62683e-19 0)
(1.65436e-18 -2.0959e-18 0)
(-0.02 -2.72589e-18 0)
(6.61744e-18 -6.23246e-18 0)
(-4.96308e-18 3.47222e-18 0)
(0 -1.23456e-18 0)
(0 7.54068e-19 0)
(-1.65436e-18 2.43173e-18 0)
(0 9.16915e-19 0)
(-1.65436e-18 1.4019e-20 0)
(0 1.46358e-18 0)
(0 3.83944e-20 0)
(1.65436e-18 -1.44175e-18 0)
(0 -1.51651e-19 0)
(-1.65436e-18 1.30369e-18 0)
(0 3.95776e-19 0)
(-1.65436e-18 6.01011e-19 0)
(-1.65436e-18 1.06573e-18 0)
(1.65436e-18 -1.11268e-18 0)
(0 -1.20959e-18 0)
(1.65436e-18 -1.15642e-18 0)
(-1.65436e-18 1.09474e-18 0)
(-0.02 5.96734e-17 0)
(7.11375e-17 -7.17557e-17 0)
(-1.65436e-17 1.70203e-17 0)
(6.61744e-18 -6.48222e-18 0)
(1.65436e-18 -1.50635e-18 0)
(1.65436e-18 -1.30155e-18 0)
(-1.65436e-18 5.5217e-19 0)
(0 7.75262e-19 0)
(-1.65436e-18 1.09099e-18 0)
(-1.65436e-18 2.80518e-18 0)
(-3.30872e-18 2.0181e-18 0)
(0 7.86922e-19 0)
(0 -1.55402e-18 0)
(1.65436e-18 -1.93662e-18 0)
(0 -3.78475e-19 0)
(1.65436e-18 -2.87864e-19 0)
(0 -1.17585e-19 0)
(0 -5.50711e-21 0)
(-1.65436e-18 1.58203e-18 0)
(0 5.88771e-19 0)
(-0.02 -2.10454e-17 0)
(-3.80503e-17 3.74464e-17 0)
(1.98523e-17 -1.74657e-17 0)
(-3.30872e-18 2.01257e-18 0)
(-1.65436e-18 1.58129e-18 0)
(-1.65436e-18 2.4945e-18 0)
(-1.65436e-18 1.13768e-18 0)
(0 9.90666e-19 0)
(-1.65436e-18 3.88763e-19 0)
(1.65436e-18 -1.65334e-18 0)
(1.65436e-18 -2.17135e-18 0)
(4.96308e-18 -3.38849e-18 0)
(1.65436e-18 -4.30091e-19 0)
(-1.65436e-18 1.90094e-20 0)
(0 -3.54498e-19 0)
(0 8.55438e-19 0)
(-3.30872e-18 1.16294e-18 0)
(0 6.34611e-19 0)
(0 -3.90143e-19 0)
(0 4.14234e-19 0)
(-0.02 -1.70878e-17 0)
(-4.96308e-18 3.99225e-18 0)
(-6.61744e-18 6.42794e-18 0)
(0 1.49612e-18 0)
(0 -1.24174e-18 0)
(1.65436e-18 -9.96903e-19 0)
(-1.65436e-18 1.7551e-18 0)
(-1.65436e-18 2.41885e-18 0)
(1.65436e-18 -1.02751e-18 0)
(0 -1.20136e-18 0)
(0 2.24491e-19 0)
(0 1.9113e-18 0)
(-1.65436e-18 2.61724e-19 0)
(0 2.70131e-19 0)
(0 -3.54294e-19 0)
(1.65436e-18 -2.69049e-19 0)
(-1.65436e-18 4.56488e-19 0)
(-1.65436e-18 8.21737e-19 0)
(-1.65436e-18 1.0764e-18 0)
(0 6.13872e-19 0)
(-0.02 2.66663e-17 0)
(3.30872e-17 -3.19212e-17 0)
(-6.61744e-18 5.59009e-18 0)
(1.65436e-18 -2.27067e-18 0)
(0 1.17477e-18 0)
(0 5.11222e-19 0)
(0 8.84037e-20 0)
(0 -1.70017e-18 0)
(0 1.49054e-18 0)
(0 9.71275e-19 0)
(0 -2.83657e-19 0)
(0 -1.80417e-18 0)
(1.65436e-18 -1.59914e-18 0)
(0 -3.13769e-19 0)
(0 6.35042e-19 0)
(0 -4.96967e-19 0)
(0 3.50357e-19 0)
(-1.65436e-18 1.60786e-18 0)
(0 8.75824e-19 0)
(-1.65436e-18 1.04231e-18 0)
(-0.02 -3.56987e-17 0)
(-4.63221e-17 4.81174e-17 0)
(8.27181e-18 -1.02824e-17 0)
(-1.65436e-18 3.00188e-18 0)
(1.65436e-18 -1.97025e-18 0)
(0 -5.26222e-19 0)
(0 -1.34156e-18 0)
(0 -4.34038e-19 0)
(0 -6.76486e-19 0)
(0 8.81627e-19 0)
(0 5.36839e-19 0)
(0 2.67933e-19 0)
(0 -5.51588e-19 0)
(0 -1.03989e-18 0)
(0 -6.62292e-19 0)
(0 1.89499e-19 0)
(0 -2.37463e-19 0)
(1.65436e-18 -1.34678e-18 0)
(0 9.17753e-20 0)
(1.65436e-18 -1.7353e-18 0)
(-0.02 2.80591e-17 0)
(3.47416e-17 -3.47703e-17 0)
(-6.61744e-18 7.03604e-18 0)
(3.30872e-18 -2.60763e-18 0)
(-1.65436e-18 9.61201e-19 0)
(1.65436e-18 -1.03892e-18 0)
(1.65436e-18 -1.23781e-18 0)
(0 -7.63777e-19 0)
(0 6.53578e-19 0)
(0 -3.50651e-19 0)
(-1.65436e-18 8.79733e-19 0)
(0 6.54382e-19 0)
(0 7.30481e-19 0)
(-1.65436e-18 6.57854e-19 0)
(-1.65436e-18 1.66036e-18 0)
(0 7.28383e-19 0)
(1.65436e-18 -1.73316e-18 0)
(0 -1.29759e-18 0)
(0 7.10547e-20 0)
(-1.65436e-18 1.7222e-18 0)
(-0.02 -2.24886e-17 0)
(-1.98523e-17 1.91619e-17 0)
(0 -2.1465e-20 0)
(0 7.94711e-19 0)
(0 -7.55013e-19 0)
(0 3.99792e-19 0)
(0 5.70296e-19 0)
(-1.65436e-18 2.88997e-18 0)
(-1.65436e-18 6.56356e-19 0)
(0 4.00572e-19 0)
(0 -4.41943e-19 0)
(-1.65436e-18 1.48956e-18 0)
(0 1.13205e-18 0)
(0 -2.02669e-19 0)
(1.65436e-18 -3.69796e-19 0)
(0 -2.67719e-19 0)
(0 4.9719e-19 0)
(-1.65436e-18 7.2504e-19 0)
(1.65436e-18 -1.76532e-18 0)
(1.65436e-18 -2.21044e-18 0)
(-0.02 3.11726e-17 0)
(3.30872e-17 -3.30162e-17 0)
(1.65436e-18 -2.19185e-18 0)
(1.65436e-18 -1.58129e-18 0)
(-1.65436e-18 1.85884e-18 0)
(0 -1.81654e-19 0)
(0 -9.41556e-21 0)
(1.65436e-18 -1.03709e-18 0)
(-1.65436e-18 4.80124e-19 0)
(0 7.3164e-19 0)
(-1.65436e-18 3.61197e-19 0)
(0 -1.14948e-19 0)
(1.65436e-18 -8.9837e-19 0)
(-1.65436e-18 6.12927e-19 0)
(0 -2.44066e-19 0)
(0 -7.21091e-20 0)
(0 1.11481e-18 0)
(-1.65436e-18 6.46024e-19 0)
(-1.65436e-18 7.6778e-19 0)
(0 1.39254e-18 0)
(-0.02 -4.86132e-17 0)
(-5.29396e-17 5.34236e-17 0)
(-1.65436e-18 1.54118e-18 0)
(-4.96308e-18 3.76272e-18 0)
(3.30872e-18 -2.46746e-18 0)
(0 8.75234e-20 0)
(-1.65436e-18 9.27708e-19 0)
(0 2.92198e-21 0)
(0 -3.75886e-19 0)
(0 -1.73981e-19 0)
(0 5.93393e-19 0)
(0 -6.6247e-19 0)
(0 -1.39148e-19 0)
(3.30872e-18 -1.61986e-18 0)
(1.65436e-18 -1.88714e-18 0)
(0 -1.92284e-18 0)
(1.65436e-18 -1.45737e-18 0)
(1.65436e-18 -1.66809e-18 0)
(0 1.4552e-19 0)
(0 -5.61541e-19 0)
(-0.02 5.72822e-17 0)
(4.96308e-17 -4.77697e-17 0)
(3.30872e-18 -2.65152e-18 0)
(3.30872e-18 -3.74172e-18 0)
(-1.65436e-18 1.47439e-18 0)
(0 2.43036e-19 0)
(-1.65436e-18 9.21812e-19 0)
(0 -6.48809e-20 0)
(1.65436e-18 -2.13107e-18 0)
(1.65436e-18 -1.05167e-18 0)
(0 -8.25774e-19 0)
(1.65436e-18 -5.01973e-19 0)
(0 4.48573e-19 0)
(0 -1.04191e-19 0)
(0 -1.29177e-18 0)
(0 1.30055e-18 0)
(-1.65436e-18 1.29462e-18 0)
(-1.65436e-18 1.37889e-18 0)
(3.30872e-18 -2.08962e-18 0)
(1.65436e-18 -1.5141e-18 0)
(-0.02 -4.01081e-17 0)
(-2.81241e-17 2.88728e-17 0)
(-1.65436e-18 9.30439e-19 0)
(-1.65436e-18 3.09258e-18 0)
(-1.65436e-18 1.07889e-18 0)
(-1.65436e-18 1.65014e-18 0)
(1.65436e-18 -1.45489e-18 0)
(-1.65436e-18 3.02507e-19 0)
(-1.65436e-18 2.45241e-18 0)
(-1.65436e-18 7.25666e-19 0)
(0 -5.60707e-19 0)
(0 2.62581e-19 0)
(0 -2.64379e-20 0)
(1.65436e-18 -2.76317e-19 0)
(0 7.18235e-19 0)
(-1.65436e-18 6.80046e-19 0)
(0 3.40784e-19 0)
(0 -1.0249e-18 0)
(0 1.00141e-18 0)
(-1.65436e-18 1.31952e-18 0)
(-0.02 2.12325e-17 0)
(1.98523e-17 -1.92822e-17 0)
(-3.30872e-18 2.80917e-18 0)
(1.65436e-18 -2.1624e-18 0)
(1.65436e-18 -7.81373e-19 0)
(0 5.31343e-19 0)
(-1.65436e-18 2.20484e-18 0)
(0 -1.5417e-18 0)
(1.65436e-18 -1.53107e-18 0)
(1.65436e-18 -1.10103e-18 0)
(0 -1.44589e-18 0)
(1.65436e-18 -1.67386e-18 0)
(0 -3.71221e-19 0)
(-1.65436e-18 1.58363e-18 0)
(-1.65436e-18 2.24126e-18 0)
(1.65436e-18 -1.15926e-18 0)
(0 -1.63576e-18 0)
(0 6.71595e-19 0)
(0 -1.99255e-19 0)
(0 8.05557e-20 0)
(-0.02 -1.79424e-17 0)
(-2.64698e-17 2.73515e-17 0)
(4.96308e-18 -6.24337e-18 0)
(-1.65436e-18 2.88228e-18 0)
(-1.65436e-18 1.14884e-18 0)
(1.65436e-18 -1.11894e-18 0)
(1.65436e-18 -2.77739e-18 0)
(1.65436e-18 -5.56956e-19 0)
(0 -6.36636e-19 0)
(0 4.36539e-19 0)
(-1.65436e-18 1.07554e-18 0)
(1.65436e-18 -9.33719e-20 0)
(0 -1.02048e-18 0)
(0 7.67222e-19 0)
(0 -2.045e-19 0)
(0 1.58356e-19 0)
(1.65436e-18 -3.77386e-19 0)
(0 -7.31701e-19 0)
(0 2.77654e-19 0)
(1.65436e-18 -9.42347e-19 0)
(-0.02 4.53448e-17 0)
(5.45939e-17 -5.51847e-17 0)
(-1.15805e-17 1.12874e-17 0)
(4.96308e-18 -4.399e-18 0)
(0 -5.71866e-19 0)
(0 -1.02292e-18 0)
(0 -5.35875e-19 0)
(1.65436e-18 1.2233e-19 0)
(0 3.72044e-19 0)
(0 7.65729e-19 0)
(-1.65436e-18 7.17086e-19 0)
(0 1.05187e-18 0)
(-1.65436e-18 6.08957e-19 0)
(1.65436e-18 -7.39955e-19 0)
(0 3.11025e-19 0)
(-1.65436e-18 3.49331e-19 0)
(0 -1.27057e-19 0)
(1.65436e-18 -4.22593e-19 0)
(0 4.80966e-19 0)
(-1.65436e-18 1.9457e-18 0)
(-0.02 -2.13851e-17 0)
(-2.64698e-17 2.56226e-17 0)
(3.30872e-18 -4.56743e-18 0)
(0 1.61619e-18 0)
(0 -7.23485e-19 0)
(0 1.0916e-19 0)
(0 1.09697e-18 0)
(-1.65436e-18 6.52134e-19 0)
(1.65436e-18 -8.84967e-19 0)
(0 -2.12915e-18 0)
(1.65436e-18 -1.2428e-18 0)
(0 -3.66677e-20 0)
(0 3.77716e-19 0)
(0 -7.99272e-19 0)
(1.65436e-18 -1.46358e-18 0)
(0 2.2081e-19 0)
(-1.65436e-18 1.42901e-18 0)
(-1.65436e-18 9.33545e-19 0)
(0 -1.0579e-19 0)
(0 -8.02007e-19 0)
(-0.02 -2.57186e-17 0)
(-4.63221e-17 4.71435e-17 0)
(1.48893e-17 -1.66105e-17 0)
(0 4.58661e-19 0)
(1.65436e-18 -2.01357e-18 0)
(1.65436e-18 -5.42838e-19 0)
(0 -5.43975e-19 0)
(0 -1.31553e-18 0)
(0 5.54425e-19 0)
(-1.65436e-18 9.15421e-19 0)
(0 5.1258e-19 0)
(1.65436e-18 -8.5097e-19 0)
(0 9.05021e-21 0)
(0 6.8874e-19 0)
(0 1.49182e-19 0)
(0 -7.04771e-19 0)
(0 -2.60691e-19 0)
(1.65436e-18 -4.38482e-19 0)
(0 -1.32247e-18 0)
(1.65436e-18 -1.81481e-18 0)
(-0.02 1.40545e-17 0)
(3.63959e-17 -3.7357e-17 0)
(-1.48893e-17 1.38525e-17 0)
(0 -2.29087e-20 0)
(-1.65436e-18 1.65175e-18 0)
(0 3.84008e-19 0)
(0 2.81935e-19 0)
(-1.65436e-18 1.40555e-18 0)
(0 5.77302e-19 0)
(-1.65436e-18 3.26841e-19 0)
(0 4.54402e-19 0)
(0 1.3183e-18 0)
(0 3.37874e-19 0)
(0 3.65746e-20 0)
(0 5.30851e-19 0)
(0 4.61296e-19 0)
(0 -8.56474e-20 0)
(-1.65436e-18 4.35647e-19 0)
(0 1.26729e-18 0)
(-1.65436e-18 1.39071e-18 0)
)
;

boundaryField
{
    movingWall
    {
        type            extrapolatedCalculated;
        value           nonuniform List<vector> 
20
(
(-0.02 1.40545e-17 0)
(3.63959e-17 -3.7357e-17 0)
(-1.48893e-17 1.38525e-17 0)
(0 -2.29087e-20 0)
(-1.65436e-18 1.65175e-18 0)
(0 3.84008e-19 0)
(0 2.81935e-19 0)
(-1.65436e-18 1.40555e-18 0)
(0 5.77302e-19 0)
(-1.65436e-18 3.26841e-19 0)
(0 4.54402e-19 0)
(0 1.3183e-18 0)
(0 3.37874e-19 0)
(0 3.65746e-20 0)
(0 5.30851e-19 0)
(0 4.61296e-19 0)
(0 -8.56474e-20 0)
(-1.65436e-18 4.35647e-19 0)
(0 1.26729e-18 0)
(-1.65436e-18 1.39071e-18 0)
)
;
    }
    fixedWalls
    {
        type            extrapolatedCalculated;
        value           nonuniform List<vector> 
60
(
(-0.02 5.98498e-17 0)
(-0.02 -9.05214e-17 0)
(-0.02 -2.72589e-18 0)
(-0.02 5.96734e-17 0)
(-0.02 -2.10454e-17 0)
(-0.02 -1.70878e-17 0)
(-0.02 2.66663e-17 0)
(-0.02 -3.56987e-17 0)
(-0.02 2.80591e-17 0)
(-0.02 -2.24886e-17 0)
(-0.02 3.11726e-17 0)
(-0.02 -4.86132e-17 0)
(-0.02 5.72822e-17 0)
(-0.02 -4.01081e-17 0)
(-0.02 2.12325e-17 0)
(-0.02 -1.79424e-17 0)
(-0.02 4.53448e-17 0)
(-0.02 -2.13851e-17 0)
(-0.02 -2.57186e-17 0)
(-0.02 1.40545e-17 0)
(0 7.12976e-20 0)
(1.65436e-18 -2.0959e-18 0)
(-1.65436e-18 1.09474e-18 0)
(0 5.88771e-19 0)
(0 4.14234e-19 0)
(0 6.13872e-19 0)
(-1.65436e-18 1.04231e-18 0)
(1.65436e-18 -1.7353e-18 0)
(-1.65436e-18 1.7222e-18 0)
(1.65436e-18 -2.21044e-18 0)
(0 1.39254e-18 0)
(0 -5.61541e-19 0)
(1.65436e-18 -1.5141e-18 0)
(-1.65436e-18 1.31952e-18 0)
(0 8.05557e-20 0)
(1.65436e-18 -9.42347e-19 0)
(-1.65436e-18 1.9457e-18 0)
(0 -8.02007e-19 0)
(1.65436e-18 -1.81481e-18 0)
(-1.65436e-18 1.39071e-18 0)
(-0.02 5.98498e-17 0)
(8.76811e-17 -8.61411e-17 0)
(-2.81241e-17 2.68401e-17 0)
(4.96308e-18 -3.23162e-18 0)
(-1.65436e-18 7.90732e-19 0)
(0 2.07393e-20 0)
(0 9.98545e-20 0)
(0 2.30337e-19 0)
(-1.65436e-18 9.30151e-19 0)
(0 4.83229e-20 0)
(0 5.4114e-19 0)
(-1.65436e-18 7.71493e-19 0)
(-1.65436e-18 1.37641e-18 0)
(0 1.92542e-18 0)
(0 -6.37128e-19 0)
(0 -3.35118e-19 0)
(0 1.84158e-19 0)
(0 1.89613e-19 0)
(0 5.3995e-20 0)
(0 7.12976e-20 0)
)
;
    }
    frontAndBack
    {
        type            empty;
    }
}


// ************************************************************************* //
