/*--------------------------------*- C++ -*----------------------------------*\
| =========                 |                                                 |
| \\      /  F ield         | OpenFOAM: The Open Source CFD Toolbox           |
|  \\    /   O peration     | Version:  2506                                  |
|   \\  /    A nd           | Website:  www.openfoam.com                      |
|    \\/     M anipulation  |                                                 |
\*---------------------------------------------------------------------------*/
FoamFile
{
    version     2.0;
    format      ascii;
    arch        "LSB;label=32;scalar=64";
    class       volScalarField;
    location    "5.5";
    object      initialResidual:epsilon;
}
// * * * * * * * * * * * * * * * * * * * * * * * * * * * * * * * * * * * * * //

dimensions      [0 0 0 0 0 0 0];

internalField   nonuniform List<scalar> 
400
(
0
0
0
0
0
0
0
0
0
0
0
0
0
0
0
0
0
0
0
0
0
-1.28434e-12
-1.29483e-12
-1.29233e-12
-1.2936e-12
-1.29537e-12
-1.29729e-12
-1.29895e-12
-1.30104e-12
-1.30263e-12
-1.30471e-12
-1.30654e-12
-1.30834e-12
-1.31059e-12
-1.31209e-12
-1.31466e-12
-1.31604e-12
-1.3186e-12
-2.63651e-12
0
0
-1.55611e-12
-1.57057e-12
-1.56711e-12
-1.56869e-12
-1.57103e-12
-1.57348e-12
-1.57565e-12
-1.57832e-12
-1.58039e-12
-1.58303e-12
-1.58542e-12
-1.58765e-12
-1.59062e-12
-1.59244e-12
-1.59583e-12
-1.59746e-12
-1.60084e-12
-3.20345e-12
0
0
-1.79384e-12
-1.81081e-12
-1.80683e-12
-1.80877e-12
-1.81155e-12
-1.81449e-12
-1.8171e-12
-1.82028e-12
-1.82278e-12
-1.82591e-12
-1.8288e-12
-1.83148e-12
-1.83502e-12
-1.83722e-12
-1.84126e-12
-1.84326e-12
-1.84727e-12
-3.69653e-12
0
0
-1.95637e-12
-1.97536e-12
-1.97095e-12
-1.97311e-12
-1.97622e-12
-1.97951e-12
-1.98242e-12
-1.98601e-12
-1.98876e-12
-1.99234e-12
-1.99551e-12
-1.99856e-12
-2.00248e-12
-2.005e-12
-2.00947e-12
-2.01176e-12
-2.01621e-12
-4.03468e-12
0
0
-2.05486e-12
-2.07478e-12
-2.0702e-12
-2.07257e-12
-2.07584e-12
-2.07939e-12
-2.08247e-12
-2.0863e-12
-2.08924e-12
-2.09305e-12
-2.09644e-12
-2.0997e-12
-2.10387e-12
-2.10657e-12
-2.11133e-12
-2.11378e-12
-2.11853e-12
-4.23949e-12
0
0
-2.11175e-12
-2.13225e-12
-2.12757e-12
-2.13002e-12
-2.13343e-12
-2.1371e-12
-2.14029e-12
-2.14426e-12
-2.14734e-12
-2.15125e-12
-2.1548e-12
-2.15814e-12
-2.1625e-12
-2.16527e-12
-2.17023e-12
-2.17276e-12
-2.17768e-12
-4.35792e-12
0
0
-2.14535e-12
-2.16662e-12
-2.16174e-12
-2.16422e-12
-2.16771e-12
-2.17142e-12
-2.17473e-12
-2.17874e-12
-2.1819e-12
-2.18588e-12
-2.1895e-12
-2.19294e-12
-2.19736e-12
-2.20022e-12
-2.20525e-12
-2.20787e-12
-2.21286e-12
-4.42839e-12
0
0
-2.16779e-12
-2.18918e-12
-2.18428e-12
-2.18683e-12
-2.19033e-12
-2.19414e-12
-2.19744e-12
-2.20156e-12
-2.20471e-12
-2.20879e-12
-2.21242e-12
-2.21594e-12
-2.22039e-12
-2.22332e-12
-2.22839e-12
-2.23107e-12
-2.23613e-12
-4.47494e-12
0
0
-2.18502e-12
-2.20664e-12
-2.2017e-12
-2.20427e-12
-2.20781e-12
-2.21166e-12
-2.21499e-12
-2.21913e-12
-2.22234e-12
-2.22644e-12
-2.23014e-12
-2.23366e-12
-2.23819e-12
-2.24112e-12
-2.24627e-12
-2.24896e-12
-2.25407e-12
-4.51086e-12
0
0
-2.2007e-12
-2.22221e-12
-2.21732e-12
-2.21994e-12
-2.22351e-12
-2.2274e-12
-2.23076e-12
-2.23494e-12
-2.23818e-12
-2.24231e-12
-2.24604e-12
-2.24959e-12
-2.25417e-12
-2.25712e-12
-2.26232e-12
-2.26503e-12
-2.27019e-12
-4.54312e-12
0
0
-2.21624e-12
-2.23794e-12
-2.23302e-12
-2.23566e-12
-2.23925e-12
-2.24319e-12
-2.24654e-12
-2.25082e-12
-2.25403e-12
-2.25826e-12
-2.26196e-12
-2.26561e-12
-2.27016e-12
-2.27319e-12
-2.2784e-12
-2.28116e-12
-2.28635e-12
-4.57548e-12
0
0
-2.23291e-12
-2.2548e-12
-2.24982e-12
-2.25251e-12
-2.25614e-12
-2.26009e-12
-2.26353e-12
-2.26778e-12
-2.27108e-12
-2.2753e-12
-2.27908e-12
-2.28273e-12
-2.28734e-12
-2.2904e-12
-2.29564e-12
-2.29846e-12
-2.30366e-12
-4.61016e-12
0
0
-2.25145e-12
-2.27361e-12
-2.26859e-12
-2.27126e-12
-2.27495e-12
-2.27893e-12
-2.2824e-12
-2.28672e-12
-2.29002e-12
-2.29431e-12
-2.29813e-12
-2.3018e-12
-2.30649e-12
-2.30955e-12
-2.31487e-12
-2.31769e-12
-2.32298e-12
-4.64878e-12
0
0
-2.27259e-12
-2.295e-12
-2.28989e-12
-2.29265e-12
-2.29635e-12
-2.30039e-12
-2.3039e-12
-2.30825e-12
-2.31162e-12
-2.31594e-12
-2.31979e-12
-2.32354e-12
-2.32824e-12
-2.33139e-12
-2.33673e-12
-2.33962e-12
-2.34493e-12
-4.69275e-12
0
0
-2.29695e-12
-2.31939e-12
-2.31434e-12
-2.31712e-12
-2.32088e-12
-2.32499e-12
-2.32853e-12
-2.33296e-12
-2.33635e-12
-2.34073e-12
-2.34465e-12
-2.34841e-12
-2.35321e-12
-2.35636e-12
-2.36181e-12
-2.36471e-12
-2.37012e-12
-4.74313e-12
0
0
-2.32399e-12
-2.34693e-12
-2.34176e-12
-2.34455e-12
-2.34838e-12
-2.35253e-12
-2.35612e-12
-2.36063e-12
-2.36403e-12
-2.36854e-12
-2.37245e-12
-2.37634e-12
-2.38114e-12
-2.3844e-12
-2.38988e-12
-2.39285e-12
-2.39832e-12
-4.79957e-12
0
0
-2.35258e-12
-2.37511e-12
-2.37012e-12
-2.37303e-12
-2.37687e-12
-2.38112e-12
-2.38474e-12
-2.38932e-12
-2.3928e-12
-2.39733e-12
-2.40134e-12
-2.40524e-12
-2.41016e-12
-2.41343e-12
-2.41901e-12
-2.42202e-12
-2.42757e-12
-4.85809e-12
0
0
-2.38193e-12
-2.40898e-12
-2.40225e-12
-2.40458e-12
-2.40859e-12
-2.41252e-12
-2.41631e-12
-2.4206e-12
-2.42425e-12
-2.4285e-12
-2.43274e-12
-2.43631e-12
-2.44158e-12
-2.44446e-12
-2.45049e-12
-2.45309e-12
-2.45907e-12
-4.91496e-12
0
0
0
0
0
0
0
0
0
0
0
0
0
0
0
0
0
0
0
0
0
)
;

boundaryField
{
    movingWall
    {
        type            zeroGradient;
    }
    fixedWalls
    {
        type            zeroGradient;
    }
    frontAndBack
    {
        type            empty;
    }
}


// ************************************************************************* //
