/*--------------------------------*- C++ -*----------------------------------*\
| =========                 |                                                 |
| \\      /  F ield         | OpenFOAM: The Open Source CFD Toolbox           |
|  \\    /   O peration     | Version:  2506                                  |
|   \\  /    A nd           | Website:  www.openfoam.com                      |
|    \\/     M anipulation  |                                                 |
\*---------------------------------------------------------------------------*/
FoamFile
{
    version     2.0;
    format      ascii;
    arch        "LSB;label=32;scalar=64";
    class       volScalarField;
    location    "5.5";
    object      initialResidual:k;
}
// * * * * * * * * * * * * * * * * * * * * * * * * * * * * * * * * * * * * * //

dimensions      [0 0 0 0 0 0 0];

internalField   nonuniform List<scalar> 
400
(
-1.38323e-12
-1.3866e-12
-1.38053e-12
-1.38819e-12
-1.38005e-12
-1.3877e-12
-1.38126e-12
-1.38608e-12
-1.38306e-12
-1.38417e-12
-1.38421e-12
-1.38411e-12
-1.38413e-12
-1.38411e-12
-1.38413e-12
-1.38413e-12
-1.38411e-12
-1.38412e-12
-1.38411e-12
-1.38411e-12
-1.5897e-12
-1.5906e-12
-1.58943e-12
-1.58987e-12
-1.5886e-12
-1.59442e-12
-1.5842e-12
-1.59651e-12
-1.58151e-12
-1.59417e-12
-1.58331e-12
-1.5927e-12
-1.58484e-12
-1.58926e-12
-1.5876e-12
-1.58771e-12
-1.58869e-12
-1.58816e-12
-1.58843e-12
-1.58828e-12
-1.855e-12
-1.8521e-12
-1.85623e-12
-1.85429e-12
-1.85356e-12
-1.86012e-12
-1.84842e-12
-1.8556e-12
-1.85049e-12
-1.85336e-12
-1.85257e-12
-1.85382e-12
-1.85204e-12
-1.85432e-12
-1.85152e-12
-1.85227e-12
-1.85254e-12
-1.85253e-12
-1.85252e-12
-1.8525e-12
-2.06973e-12
-2.06205e-12
-2.07332e-12
-2.0682e-12
-2.0687e-12
-2.06743e-12
-2.06911e-12
-2.06571e-12
-2.06888e-12
-2.06484e-12
-2.06748e-12
-2.06641e-12
-2.06702e-12
-2.06659e-12
-2.06659e-12
-2.06636e-12
-2.06634e-12
-2.06621e-12
-2.0664e-12
-2.06624e-12
-2.20786e-12
-2.20765e-12
-2.20929e-12
-2.20465e-12
-2.20777e-12
-2.20607e-12
-2.2065e-12
-2.20924e-12
-2.2039e-12
-2.20454e-12
-2.20679e-12
-2.20471e-12
-2.20618e-12
-2.20585e-12
-2.20524e-12
-2.20451e-12
-2.20535e-12
-2.20483e-12
-2.20519e-12
-2.205e-12
-2.28953e-12
-2.2841e-12
-2.2917e-12
-2.28869e-12
-2.2876e-12
-2.29229e-12
-2.28391e-12
-2.28627e-12
-2.28752e-12
-2.28458e-12
-2.28774e-12
-2.28593e-12
-2.28678e-12
-2.28601e-12
-2.28669e-12
-2.2856e-12
-2.28603e-12
-2.28585e-12
-2.28582e-12
-2.2858e-12
-2.33501e-12
-2.32804e-12
-2.33995e-12
-2.33195e-12
-2.33407e-12
-2.33327e-12
-2.33399e-12
-2.33057e-12
-2.33483e-12
-2.32968e-12
-2.33655e-12
-2.32856e-12
-2.33806e-12
-2.32632e-12
-2.33584e-12
-2.32777e-12
-2.33277e-12
-2.33005e-12
-2.33132e-12
-2.33136e-12
-2.36036e-12
-2.3651e-12
-2.35985e-12
-2.35826e-12
-2.36238e-12
-2.35827e-12
-2.36076e-12
-2.35876e-12
-2.36003e-12
-2.35874e-12
-2.35971e-12
-2.35833e-12
-2.35948e-12
-2.35776e-12
-2.35904e-12
-2.35769e-12
-2.35874e-12
-2.3583e-12
-2.35848e-12
-2.35818e-12
-2.37914e-12
-2.3823e-12
-2.37621e-12
-2.38194e-12
-2.37512e-12
-2.38204e-12
-2.37431e-12
-2.37649e-12
-2.37817e-12
-2.37434e-12
-2.37779e-12
-2.37606e-12
-2.377e-12
-2.37618e-12
-2.37682e-12
-2.37591e-12
-2.37621e-12
-2.37595e-12
-2.37592e-12
-2.37594e-12
-2.39301e-12
-2.39523e-12
-2.3912e-12
-2.39228e-12
-2.39239e-12
-2.3907e-12
-2.39409e-12
-2.38831e-12
-2.39311e-12
-2.38795e-12
-2.39163e-12
-2.38991e-12
-2.39216e-12
-2.38871e-12
-2.39104e-12
-2.38937e-12
-2.39041e-12
-2.38931e-12
-2.38996e-12
-2.38979e-12
-2.40602e-12
-2.40274e-12
-2.40788e-12
-2.40438e-12
-2.40599e-12
-2.40348e-12
-2.40697e-12
-2.40051e-12
-2.40514e-12
-2.40104e-12
-2.40412e-12
-2.40233e-12
-2.4056e-12
-2.40052e-12
-2.40468e-12
-2.40103e-12
-2.40354e-12
-2.4015e-12
-2.40244e-12
-2.40235e-12
-2.41877e-12
-2.41545e-12
-2.42008e-12
-2.41877e-12
-2.41555e-12
-2.42821e-12
-2.40688e-12
-2.42213e-12
-2.4101e-12
-2.41878e-12
-2.41275e-12
-2.41919e-12
-2.41264e-12
-2.41548e-12
-2.41515e-12
-2.4141e-12
-2.41586e-12
-2.41513e-12
-2.41517e-12
-2.41503e-12
-2.43177e-12
-2.43455e-12
-2.42824e-12
-2.43743e-12
-2.42561e-12
-2.4373e-12
-2.42392e-12
-2.43484e-12
-2.42518e-12
-2.43442e-12
-2.42489e-12
-2.43205e-12
-2.42646e-12
-2.43007e-12
-2.42771e-12
-2.4293e-12
-2.42825e-12
-2.42869e-12
-2.42859e-12
-2.42864e-12
-2.44745e-12
-2.44475e-12
-2.45063e-12
-2.44365e-12
-2.44724e-12
-2.44516e-12
-2.44632e-12
-2.44505e-12
-2.44665e-12
-2.44159e-12
-2.44708e-12
-2.44299e-12
-2.4484e-12
-2.44086e-12
-2.4468e-12
-2.44163e-12
-2.44482e-12
-2.44287e-12
-2.44387e-12
-2.44381e-12
-2.46114e-12
-2.48467e-12
-2.44879e-12
-2.46882e-12
-2.45715e-12
-2.4683e-12
-2.45739e-12
-2.4685e-12
-2.45657e-12
-2.4674e-12
-2.45685e-12
-2.46538e-12
-2.45828e-12
-2.46148e-12
-2.461e-12
-2.46095e-12
-2.4614e-12
-2.46112e-12
-2.46116e-12
-2.46108e-12
-2.48465e-12
-2.48071e-12
-2.48799e-12
-2.48147e-12
-2.48405e-12
-2.4832e-12
-2.48402e-12
-2.48095e-12
-2.48484e-12
-2.47867e-12
-2.48386e-12
-2.48017e-12
-2.48568e-12
-2.47769e-12
-2.48387e-12
-2.47882e-12
-2.4818e-12
-2.48004e-12
-2.48099e-12
-2.4809e-12
-2.50657e-12
-2.50809e-12
-2.50737e-12
-2.50278e-12
-2.5068e-12
-2.50459e-12
-2.50511e-12
-2.50887e-12
-2.50132e-12
-2.50487e-12
-2.50355e-12
-2.50436e-12
-2.50335e-12
-2.50532e-12
-2.50244e-12
-2.50265e-12
-2.50352e-12
-2.50301e-12
-2.50343e-12
-2.50321e-12
-2.53131e-12
-2.52054e-12
-2.53727e-12
-2.52835e-12
-2.52981e-12
-2.52826e-12
-2.53017e-12
-2.52481e-12
-2.53081e-12
-2.52455e-12
-2.53455e-12
-2.52105e-12
-2.53624e-12
-2.51862e-12
-2.53188e-12
-2.52199e-12
-2.52794e-12
-2.52494e-12
-2.52642e-12
-2.52647e-12
-2.55058e-12
-2.54856e-12
-2.55214e-12
-2.54826e-12
-2.55078e-12
-2.54764e-12
-2.54988e-12
-2.54752e-12
-2.54921e-12
-2.54715e-12
-2.54864e-12
-2.54673e-12
-2.54808e-12
-2.54661e-12
-2.54768e-12
-2.54654e-12
-2.54767e-12
-2.54698e-12
-2.54711e-12
-2.54689e-12
-2.56e-12
-2.55854e-12
-2.5589e-12
-2.55934e-12
-2.55894e-12
-2.55945e-12
-2.5589e-12
-2.55923e-12
-2.55906e-12
-2.55921e-12
-2.55917e-12
-2.55913e-12
-2.55914e-12
-2.55914e-12
-2.55914e-12
-2.55913e-12
-2.55914e-12
-2.55912e-12
-2.55913e-12
-2.55913e-12
)
;

boundaryField
{
    movingWall
    {
        type            zeroGradient;
    }
    fixedWalls
    {
        type            zeroGradient;
    }
    frontAndBack
    {
        type            empty;
    }
}


// ************************************************************************* //
