/*--------------------------------*- C++ -*----------------------------------*\
| =========                 |                                                 |
| \\      /  F ield         | OpenFOAM: The Open Source CFD Toolbox           |
|  \\    /   O peration     | Version:  2506                                  |
|   \\  /    A nd           | Website:  www.openfoam.com                      |
|    \\/     M anipulation  |                                                 |
\*---------------------------------------------------------------------------*/
FoamFile
{
    version     2.0;
    format      ascii;
    arch        "LSB;label=32;scalar=64";
    class       volScalarField;
    location    "5.5";
    object      initialResidual:p;
}
// * * * * * * * * * * * * * * * * * * * * * * * * * * * * * * * * * * * * * //

dimensions      [0 0 0 0 0 0 0];

internalField   nonuniform List<scalar> 
400
(
6.09863e-20
-1.50183e-20
4.71034e-21
1.8955e-21
-1.39467e-21
-1.02682e-20
-6.88582e-21
1.95243e-22
1.5918e-20
2.13441e-21
-4.17108e-21
1.34138e-21
-5.6588e-21
2.17411e-20
-2.46553e-21
-4.89627e-21
1.49023e-20
3.0746e-21
-3.1475e-20
-6.56769e-27
1.35526e-20
-9.12007e-21
-1.21964e-20
-3.54944e-21
1.82746e-20
-4.40329e-22
-3.46878e-21
3.51384e-21
-3.19919e-21
6.66524e-21
8.11936e-21
3.99131e-21
1.95842e-21
-1.54443e-20
-3.29848e-21
-2.92216e-21
-1.48082e-21
-1.85556e-20
-2.1408e-21
2.03288e-20
3.38815e-20
-2.80756e-20
1.32317e-21
-4.43992e-21
-1.53266e-20
-1.89101e-21
6.26188e-21
-4.39218e-21
1.75484e-20
-2.91197e-21
4.72092e-21
-7.85306e-21
-2.46366e-21
4.80276e-21
7.99633e-21
-1.23664e-21
3.325e-20
-1.11159e-20
3.79413e-21
-6.77627e-21
-1.46169e-25
2.28423e-20
-2.12802e-20
3.49589e-21
-2.69174e-21
2.02973e-21
1.44781e-21
3.98224e-21
-2.12559e-21
-4.44125e-21
-5.96628e-21
-2.73512e-20
-7.87211e-23
-5.26412e-21
9.65214e-21
7.717e-21
2.53727e-21
-4.16265e-21
-7.88307e-22
-6.77628e-21
-6.77597e-21
-2.51875e-21
-3.17564e-21
4.56414e-21
-1.64889e-20
-1.54058e-20
1.61524e-20
-1.49761e-20
-4.12321e-22
8.72363e-21
-7.58645e-21
7.88954e-23
2.42866e-21
7.46001e-21
-5.03403e-21
2.32247e-21
-8.96552e-22
5.07983e-21
3.61127e-21
-6.77626e-21
-2.1312e-25
1.65704e-20
5.77642e-21
-1.56154e-20
3.88504e-21
1.17774e-20
-4.6645e-21
-8.46882e-22
7.54158e-21
-4.9354e-21
1.00656e-20
-2.6807e-21
-3.13184e-21
1.53126e-20
-6.71453e-21
1.99848e-21
9.24265e-21
-8.12098e-23
1.40406e-20
-6.77627e-21
6.318e-26
-8.47074e-21
-1.43047e-20
-9.01062e-22
1.55149e-21
1.10088e-20
-1.6709e-20
1.51056e-20
-7.11294e-21
-1.3173e-20
9.3941e-21
2.68162e-21
-3.09028e-21
-3.15461e-22
3.86276e-21
-1.00662e-21
-1.11084e-20
2.56256e-21
8.54972e-21
-6.77625e-21
6.77639e-21
-1.05085e-20
7.40969e-21
-1.11068e-20
1.57225e-20
1.02448e-20
-2.60398e-21
3.21298e-21
7.07202e-21
-6.6746e-21
-1.16692e-20
-8.06787e-22
-1.57298e-20
7.09901e-21
-3.80925e-22
1.31629e-20
5.89098e-21
-5.63812e-21
-5.70959e-21
-7.60554e-27
-2.03287e-20
1.70439e-21
1.63805e-20
-1.7423e-21
1.33449e-20
1.08497e-20
4.69883e-21
6.08107e-21
-2.80155e-21
2.11268e-21
-1.25367e-21
-1.72081e-21
-2.46926e-21
-7.74717e-21
-1.82087e-21
-1.12969e-20
9.9736e-21
6.2125e-21
2.76319e-21
-6.77625e-21
-6.7763e-21
1.28997e-20
2.30463e-21
4.42754e-21
-1.05293e-20
1.92373e-21
-1.8405e-20
-1.58617e-20
4.18894e-21
3.72293e-22
-2.63257e-21
-6.63109e-21
-3.01482e-21
-4.63221e-21
-6.89262e-21
3.66068e-21
-4.21158e-21
1.4319e-20
-1.98529e-21
-2.92722e-27
2.71052e-20
-1.74933e-20
-5.92259e-21
-4.75269e-21
3.51107e-21
-1.44434e-20
-2.73328e-22
1.03744e-20
-1.48046e-20
9.98398e-22
-1.22188e-20
1.23104e-20
-2.60733e-21
9.56716e-22
-8.35918e-21
4.82207e-21
1.85226e-20
-1.80589e-20
-8.35179e-21
6.77629e-21
-2.71053e-20
-3.2686e-21
7.19037e-21
6.54866e-21
-1.86054e-20
1.54804e-20
3.10454e-21
5.0821e-21
-8.72326e-21
-3.72223e-20
3.42665e-21
1.63763e-20
-6.66899e-21
2.38615e-20
2.38915e-21
1.024e-20
-2.18482e-21
2.53395e-21
-1.5202e-21
1.68424e-27
-2.03284e-20
9.25179e-23
-1.32243e-20
5.70244e-21
3.53745e-20
-3.62975e-21
4.57001e-21
-3.2563e-22
-6.73322e-21
-3.22592e-21
6.97097e-21
1.84494e-20
-1.9709e-20
-1.20169e-20
1.03409e-21
-1.59379e-20
-7.5793e-21
2.52761e-20
-5.53756e-21
-6.77626e-21
-1.35526e-20
-1.60861e-20
-1.65009e-21
1.3459e-20
2.01483e-20
4.80092e-21
-5.70109e-21
-6.88073e-21
5.76976e-21
-2.98449e-21
-9.9568e-21
1.40258e-20
7.75196e-21
-1.00441e-20
-8.93138e-21
2.35464e-20
-1.13008e-20
-1.82968e-20
9.89741e-21
6.77628e-21
-2.03287e-20
3.73227e-20
-1.8244e-20
-4.16345e-21
-4.77521e-21
-4.62711e-21
-1.27427e-20
1.26266e-20
-3.71569e-22
-1.20408e-20
2.01342e-20
-1.76541e-20
-1.18834e-21
8.07503e-21
8.51457e-21
-3.52738e-21
-9.94252e-21
4.76463e-21
1.34191e-20
-6.77625e-21
-1.35524e-20
-2.35987e-21
-4.26329e-21
-6.78075e-21
2.1721e-20
1.49972e-20
-1.46607e-20
-9.07709e-21
-1.42441e-20
4.60676e-21
1.52238e-20
-2.84372e-21
-6.15203e-21
1.40049e-20
4.2543e-21
8.5276e-21
-1.4132e-20
6.39668e-21
-2.56076e-21
1.35526e-20
6.77631e-21
1.02306e-21
-9.74631e-21
-2.42922e-21
1.96399e-20
1.53392e-20
-1.45628e-20
-1.01717e-21
9.71229e-23
2.23547e-21
1.19467e-20
-3.43518e-21
1.54284e-21
2.56723e-21
8.47476e-21
2.73079e-20
-4.31265e-21
-5.9516e-21
-1.64126e-20
-6.77624e-21
-1.35524e-20
9.98513e-21
-5.96702e-21
-1.64539e-20
3.16649e-21
-1.45227e-21
3.90318e-21
1.40058e-21
1.83354e-20
-1.04746e-20
-1.37317e-21
-8.00079e-21
5.86496e-21
3.15491e-21
9.03931e-21
7.45395e-21
-8.90731e-21
2.55069e-21
1.01015e-20
6.77629e-21
2.03291e-20
-2.27561e-20
-9.92164e-21
7.79045e-21
2.60427e-20
1.05308e-20
-1.39855e-20
-1.44067e-20
8.0752e-21
2.11207e-20
-2.67336e-21
-2.73298e-21
8.38597e-23
-7.50865e-21
-5.29836e-22
6.39313e-21
-5.53202e-22
-1.51931e-20
1.99555e-20
1.49404e-26
-1.35527e-20
2.53903e-25
1.35525e-20
3.95395e-26
-1.35525e-20
-2.03288e-20
-6.77626e-21
2.03288e-20
-6.77624e-21
-6.77626e-21
6.77628e-21
2.14595e-26
1.36036e-26
1.30983e-26
1.22435e-26
6.77628e-21
1.0637e-26
5.63833e-27
7.74197e-27
1.19964e-26
)
;

boundaryField
{
    movingWall
    {
        type            zeroGradient;
    }
    fixedWalls
    {
        type            zeroGradient;
    }
    frontAndBack
    {
        type            empty;
    }
}


// ************************************************************************* //
