/*--------------------------------*- C++ -*----------------------------------*\
| =========                 |                                                 |
| \\      /  F ield         | OpenFOAM: The Open Source CFD Toolbox           |
|  \\    /   O peration     | Version:  2506                                  |
|   \\  /    A nd           | Website:  www.openfoam.com                      |
|    \\/     M anipulation  |                                                 |
\*---------------------------------------------------------------------------*/
FoamFile
{
    version     2.0;
    format      ascii;
    arch        "LSB;label=32;scalar=64";
    class       volScalarField;
    location    "5.5";
    object      initialResidual:Uy;
}
// * * * * * * * * * * * * * * * * * * * * * * * * * * * * * * * * * * * * * //

dimensions      [0 0 0 0 0 0 0];

internalField   nonuniform List<scalar> 
400
(
5.37889e-20
-1.00979e-20
3.41143e-21
-5.23523e-24
1.19063e-21
-2.7374e-22
1.17344e-21
-1.78686e-21
-4.67567e-22
-1.72304e-21
1.6963e-21
1.41056e-21
1.74759e-21
2.77446e-21
-1.84643e-21
3.43312e-21
2.89085e-21
-3.86259e-21
-4.51322e-21
-1.02026e-21
4.68009e-21
1.48796e-20
1.1292e-20
9.26437e-21
1.09483e-21
-1.06119e-20
-5.25093e-21
1.20369e-21
3.08814e-21
4.94988e-21
8.43727e-21
3.63173e-21
2.3914e-21
-2.67504e-23
-8.09989e-21
-9.06396e-22
6.35768e-21
-4.93971e-21
-7.80809e-21
-1.71618e-22
1.06901e-20
2.05293e-20
1.54437e-20
7.67236e-21
-1.16985e-21
-1.11874e-20
-1.08372e-20
1.03899e-21
1.86357e-21
5.3364e-21
1.0507e-20
8.34205e-21
7.11913e-21
5.27678e-21
-2.08164e-21
-4.66387e-21
2.64316e-21
-6.77048e-21
-5.63414e-21
2.51931e-21
1.34126e-20
8.40616e-21
9.4557e-21
4.19685e-21
3.51779e-21
1.14425e-21
2.66926e-22
3.72873e-21
4.55598e-21
2.80727e-21
3.12446e-21
2.33305e-21
1.96193e-22
6.29566e-21
7.01569e-21
2.98646e-21
-2.9131e-21
-7.52725e-21
-3.51355e-21
7.92908e-22
1.53133e-20
-5.70058e-21
6.55783e-21
4.76317e-21
5.08912e-21
4.94308e-21
3.47571e-21
1.74942e-21
4.53748e-21
4.12836e-21
-2.65113e-21
-2.37057e-21
-1.31682e-21
-2.25655e-21
3.63157e-21
5.77423e-21
-1.87148e-21
-3.59342e-21
-4.96797e-21
-1.03312e-22
-2.58222e-21
9.15436e-21
3.62052e-21
4.46333e-21
3.1197e-21
9.32998e-21
3.49707e-21
-5.59954e-21
-1.77607e-21
2.01705e-21
2.835e-22
1.47962e-21
7.152e-21
2.25281e-21
1.00388e-21
4.4099e-21
1.74608e-21
-1.70406e-21
-3.04939e-21
1.25859e-21
2.33785e-20
2.59219e-21
3.77087e-21
1.66864e-21
6.51318e-22
7.64277e-21
7.63826e-21
7.22112e-22
-1.88732e-21
-1.29588e-22
3.55152e-21
4.33839e-21
7.79651e-21
2.89587e-21
-6.73579e-21
-1.78891e-21
5.7927e-21
2.84581e-21
2.17138e-21
4.80828e-22
1.86369e-20
5.62101e-21
-5.02612e-22
-2.28004e-21
-1.6279e-21
2.32335e-21
4.98986e-21
5.3668e-21
-1.41983e-21
-2.15306e-21
3.31028e-21
8.03441e-22
6.67614e-22
4.0711e-22
-2.04672e-21
-1.65092e-21
1.78696e-21
1.96329e-21
2.12703e-21
4.8906e-22
-9.46537e-21
1.4513e-20
-3.2251e-21
4.66498e-21
5.70984e-21
3.18379e-21
4.67122e-21
7.18874e-21
3.66248e-21
1.80392e-21
2.09505e-21
-8.71779e-22
-3.33354e-21
2.40013e-21
2.2653e-21
-3.45185e-21
-9.10379e-21
-6.10512e-22
5.21546e-21
-3.33992e-22
2.14345e-20
6.58983e-21
9.54273e-21
4.11039e-21
7.73042e-21
3.48483e-21
1.50092e-21
6.36702e-21
5.79931e-21
4.72472e-21
1.60258e-21
-2.90464e-22
-9.42628e-21
-4.44158e-21
-6.27556e-22
-5.34372e-21
-7.15411e-21
1.13399e-21
2.69659e-22
-3.00239e-22
-4.83869e-20
3.40203e-20
5.92371e-21
5.77352e-21
6.48533e-21
-1.28681e-21
-3.57777e-21
4.51818e-21
1.27726e-20
6.04236e-21
-2.08069e-21
-8.41388e-21
-1.9226e-20
-1.03408e-20
4.05941e-21
-9.12804e-23
-2.46334e-21
-4.55208e-21
-5.01977e-21
1.72123e-21
3.55199e-20
-3.8024e-22
1.78254e-21
1.50877e-21
-3.0401e-21
-1.63082e-21
5.33522e-22
9.55429e-22
6.48702e-21
1.04968e-21
-4.12252e-21
-6.59082e-21
-1.91476e-21
-5.73245e-21
-3.76948e-21
-4.05782e-21
-2.46319e-21
-6.27394e-21
-1.30747e-21
6.39661e-22
4.41855e-20
-1.50657e-20
6.62291e-22
-3.52875e-21
-8.09665e-21
4.17862e-21
1.08693e-20
-4.85373e-22
-1.05252e-20
-4.05577e-21
-3.07298e-22
-2.00222e-21
1.66301e-21
-2.77701e-21
-9.55691e-21
-4.40998e-21
2.34365e-21
-2.38737e-21
-7.52501e-21
-1.74534e-21
-3.51607e-20
1.30626e-20
9.57076e-22
4.86783e-21
5.26869e-21
3.39852e-21
6.95017e-21
3.69364e-21
-4.98184e-21
-3.84311e-21
8.24923e-22
4.17229e-21
-8.16507e-21
-9.83849e-21
-1.09703e-20
-1.78377e-21
-1.17132e-21
-3.34384e-21
-8.60902e-21
-1.35298e-21
9.89383e-22
1.6611e-21
4.66967e-21
6.4585e-21
6.24506e-21
5.36293e-21
1.55687e-21
2.55015e-21
4.94789e-21
-6.03552e-21
-8.31136e-21
1.76472e-21
-5.26556e-22
-1.04221e-20
-9.47775e-21
-3.95329e-21
-6.5795e-21
-3.57293e-21
-3.02659e-21
-3.33564e-21
5.42528e-21
1.36151e-21
2.31612e-21
-2.11233e-21
5.22247e-22
6.97111e-21
5.43528e-22
-4.92394e-21
1.43987e-21
-2.30583e-21
-1.14066e-20
-7.33682e-21
5.19367e-21
2.71295e-22
-6.10505e-21
-7.19558e-21
-6.88445e-22
-3.72345e-22
-2.07403e-21
-1.22443e-21
-3.03038e-20
1.24797e-20
4.27323e-21
1.23276e-21
5.70497e-21
1.59169e-21
-1.55846e-21
-3.15371e-21
1.82517e-21
6.23865e-21
-4.18574e-21
-8.44469e-21
1.23059e-21
3.91253e-21
1.55075e-21
-2.83394e-21
-2.59271e-21
-3.67385e-21
-4.31252e-21
1.48233e-21
1.46487e-20
-1.32891e-20
2.3356e-21
4.83944e-21
6.2808e-21
5.92667e-21
5.00399e-21
7.35628e-22
-3.30489e-21
5.14461e-22
1.22831e-21
-5.15565e-21
-3.83093e-21
5.53926e-21
7.33712e-21
3.88301e-21
-2.42678e-21
-8.44067e-21
-7.61942e-21
1.24897e-22
6.71494e-22
-5.83024e-21
-6.53843e-21
-2.81235e-22
5.45497e-21
9.03099e-21
2.63261e-21
7.4549e-22
-4.97812e-22
-2.03327e-21
-1.64122e-21
-3.63875e-21
-1.98811e-21
8.89098e-22
2.85111e-22
2.82208e-21
1.69292e-21
-4.26803e-21
-4.22687e-21
2.98203e-22
-1.5387e-20
3.8405e-21
-5.79509e-21
-4.21985e-22
4.39848e-21
2.77581e-21
-2.0192e-21
1.63189e-21
6.24058e-21
1.7375e-21
-4.51263e-21
-3.08708e-21
8.33834e-22
-2.20536e-21
-1.63149e-21
4.73043e-22
-3.29317e-22
-8.94043e-22
-2.25998e-22
-3.2635e-22
)
;

boundaryField
{
    movingWall
    {
        type            zeroGradient;
    }
    fixedWalls
    {
        type            zeroGradient;
    }
    frontAndBack
    {
        type            empty;
    }
}


// ************************************************************************* //
