/*--------------------------------*- C++ -*----------------------------------*\
| =========                 |                                                 |
| \\      /  F ield         | OpenFOAM: The Open Source CFD Toolbox           |
|  \\    /   O peration     | Version:  2506                                  |
|   \\  /    A nd           | Website:  www.openfoam.com                      |
|    \\/     M anipulation  |                                                 |
\*---------------------------------------------------------------------------*/
FoamFile
{
    version     2.0;
    format      ascii;
    arch        "LSB;label=32;scalar=64";
    class       volVectorField;
    location    "5.5";
    object      LambVectorField;
}
// * * * * * * * * * * * * * * * * * * * * * * * * * * * * * * * * * * * * * //

dimensions      [0 1 -2 0 0 0 0];

internalField   nonuniform List<vector> 
400
(
(-2.04434e-25 -3.70589e-12 0)
(-5.42676e-26 5.03068e-12 -0)
(-2.77666e-27 -1.03247e-12 0)
(-9.17057e-29 1.98214e-13 -0)
(-1.8401e-29 -1.11451e-13 0)
(-8.86116e-30 -8.07388e-14 0)
(-1.18885e-31 -7.46106e-16 0)
(1.06205e-30 9.06097e-15 0)
(8.0782e-31 1.17534e-14 0)
(-9.44485e-33 2.9289e-14 -0)
(-4.61141e-31 -9.83432e-15 0)
(1.92453e-30 1.96339e-14 0)
(-2.36316e-31 -1.94335e-15 0)
(1.5019e-30 1.27871e-14 0)
(2.79135e-31 -4.45303e-14 -0)
(-7.13457e-32 -3.45399e-15 0)
(-1.48937e-30 -5.26808e-14 0)
(1.46565e-31 2.73298e-14 0)
(4.10709e-33 1.57822e-16 0)
(-1.93882e-31 -5.12293e-14 0)
(-1.63623e-25 -3.40444e-12 0)
(-4.56214e-26 4.46278e-12 -0)
(-2.72077e-27 -1.03815e-12 0)
(-1.07685e-28 2.80954e-13 -0)
(-1.70464e-30 -2.07114e-14 0)
(-3.56974e-30 2.02633e-14 -0)
(7.79722e-30 -6.47993e-14 -0)
(4.17557e-30 -5.94165e-14 -0)
(4.03844e-30 -5.91585e-14 -0)
(2.06212e-30 -9.91783e-14 -0)
(-1.87776e-30 -1.70139e-14 0)
(-4.81966e-30 -3.22715e-14 0)
(-2.38703e-31 -1.4732e-15 0)
(4.06302e-30 2.47625e-14 0)
(-2.18893e-30 2.5573e-14 -0)
(6.144e-30 -6.70372e-14 -0)
(-1.81302e-30 -4.24836e-14 0)
(-1.32186e-30 -2.12739e-14 0)
(-2.56895e-31 1.64303e-14 -0)
(1.20357e-30 -1.17803e-14 -0)
(-5.12603e-25 5.2733e-12 -0)
(-1.88367e-25 -8.67807e-12 0)
(-9.26425e-27 2.07552e-12 -0)
(-4.91621e-28 -3.29269e-13 0)
(-2.78256e-29 3.20977e-13 -0)
(-1.69237e-29 1.87211e-13 -0)
(-5.33728e-29 1.6052e-13 -0)
(-3.62789e-29 1.06595e-13 -0)
(-2.97186e-29 9.45691e-14 -0)
(-1.02537e-29 5.08033e-14 -0)
(2.88704e-31 -3.16079e-14 -0)
(-2.2915e-30 -2.00573e-14 0)
(-2.60149e-30 -1.35891e-14 0)
(9.55282e-30 3.819e-14 0)
(8.88805e-30 1.10288e-13 0)
(-4.2547e-31 1.07466e-14 -0)
(-7.8287e-31 2.91283e-14 -0)
(-2.3606e-30 3.94592e-14 -0)
(-5.29632e-30 3.52106e-14 -0)
(-7.35186e-30 5.21854e-14 -0)
(-2.09305e-25 -3.88184e-12 0)
(-5.78786e-26 4.88509e-12 -0)
(-3.50777e-27 -1.20971e-12 0)
(-1.52528e-28 2.704e-13 -0)
(-2.11014e-29 -1.07834e-13 0)
(6.99323e-31 -2.51158e-14 -0)
(4.08049e-30 -4.28356e-14 -0)
(1.57566e-29 -1.11284e-13 -0)
(3.02081e-30 -4.53443e-14 -0)
(-4.09767e-30 -1.00425e-13 0)
(-8.98299e-30 -7.21647e-14 0)
(-1.36332e-29 -6.18709e-14 0)
(9.99375e-31 4.96986e-15 0)
(1.26987e-30 7.44134e-15 0)
(1.89879e-30 1.49897e-14 0)
(2.10452e-30 1.01405e-13 0)
(-1.02474e-30 1.38054e-14 -0)
(-3.98272e-31 3.3953e-15 -0)
(3.5658e-30 -3.29617e-14 -0)
(9.80363e-31 -1.66915e-14 -0)
(-1.4411e-26 2.41453e-12 -0)
(-8.98944e-28 -8.41869e-13 0)
(-1.75965e-28 3.31179e-13 -0)
(3.62149e-30 -4.79093e-14 -0)
(-1.12155e-30 2.14701e-14 -0)
(-5.7305e-31 2.97825e-14 -0)
(-2.53076e-31 3.20302e-15 -0)
(6.6726e-31 -1.30143e-14 -0)
(-2.23289e-30 -4.36699e-14 0)
(6.17352e-30 5.39752e-14 0)
(3.2301e-30 6.03984e-14 0)
(5.45105e-30 1.03842e-13 0)
(5.83281e-30 5.87607e-14 0)
(2.65749e-31 3.803e-14 0)
(-2.68162e-31 2.68539e-14 -0)
(2.66777e-31 2.80833e-14 0)
(-1.72026e-30 8.70202e-14 -0)
(-8.32371e-32 1.7505e-15 -0)
(1.32313e-31 -3.54979e-15 -0)
(3.86139e-31 -3.20377e-14 -0)
(-2.41645e-26 1.06822e-12 -0)
(-8.82375e-27 -1.9096e-12 0)
(-4.72271e-28 4.34949e-13 -0)
(-3.15021e-29 -1.16141e-13 0)
(8.36867e-31 1.107e-14 0)
(-7.83417e-31 -4.87985e-15 0)
(8.30194e-30 6.67378e-14 0)
(3.71183e-30 1.05258e-13 0)
(-8.19313e-30 7.1224e-14 -0)
(-7.17795e-30 5.32192e-14 -0)
(-5.18158e-30 4.92903e-14 -0)
(1.21466e-30 -1.41772e-14 -0)
(4.84524e-31 1.3221e-14 0)
(-8.639e-34 -1.62499e-17 0)
(-1.70879e-31 -4.64212e-15 0)
(-7.24339e-32 -7.27359e-16 0)
(1.76183e-30 3.99651e-14 0)
(-1.70406e-31 5.87291e-15 -0)
(1.09532e-31 -7.47915e-15 -0)
(1.38326e-30 3.02181e-14 0)
(-7.41063e-26 -2.72178e-12 0)
(-1.39917e-26 2.57655e-12 -0)
(-8.42217e-28 -7.07375e-13 0)
(-8.31327e-31 3.27311e-15 -0)
(-1.04201e-29 -1.41406e-13 0)
(-9.44875e-30 -1.24536e-13 0)
(-3.37808e-29 -1.43839e-13 0)
(-9.12317e-30 -5.73766e-14 0)
(1.50961e-31 -3.32991e-14 -0)
(2.72451e-30 -5.43759e-14 -0)
(3.32296e-31 -1.15568e-13 -0)
(-1.32549e-30 -6.20196e-14 0)
(-6.74895e-30 -8.97237e-14 0)
(-5.23363e-30 -4.96279e-14 0)
(-1.37098e-30 -4.6637e-14 0)
(-1.96885e-30 -6.62334e-14 0)
(-6.26306e-30 -4.18569e-14 0)
(-4.30731e-30 -2.43015e-14 0)
(8.56156e-31 7.04106e-15 0)
(2.4404e-30 2.28429e-14 0)
(2.72286e-28 -4.94142e-14 -0)
(-6.42127e-28 -3.85057e-13 0)
(-4.61273e-29 1.51508e-13 -0)
(3.66947e-30 2.40567e-14 0)
(-2.28025e-32 7.80937e-15 -0)
(-6.87878e-31 -9.24059e-15 0)
(5.38971e-30 6.02296e-14 0)
(8.65637e-31 6.07643e-14 0)
(7.1935e-31 3.00424e-14 0)
(-5.49471e-31 3.63212e-14 -0)
(-6.21777e-30 9.11472e-14 -0)
(-5.02198e-31 4.42666e-15 -0)
(6.71398e-30 -5.96886e-14 -0)
(4.44692e-31 -7.58039e-15 -0)
(2.23996e-30 -6.10684e-14 -0)
(-1.71165e-31 -1.72555e-14 0)
(-5.76731e-30 -4.24456e-14 0)
(-3.48911e-32 -2.13631e-16 0)
(1.08694e-30 7.87569e-15 0)
(1.8823e-30 2.22579e-14 0)
(-1.73799e-26 1.24909e-12 -0)
(-3.64508e-27 -1.31191e-12 0)
(-1.67453e-28 3.1958e-13 -0)
(4.05065e-30 3.2468e-14 0)
(-3.29863e-30 9.2902e-14 -0)
(9.48635e-31 1.06717e-13 0)
(-1.12973e-30 6.11455e-14 -0)
(-3.13332e-30 5.18206e-14 -0)
(1.0221e-31 1.88609e-14 0)
(-1.5199e-32 -6.91591e-16 0)
(1.39297e-31 1.12928e-14 0)
(-3.59234e-30 3.94975e-14 -0)
(9.16241e-31 -8.2108e-15 -0)
(2.00208e-31 -2.26405e-14 -0)
(-9.28608e-31 -8.08788e-15 0)
(9.90311e-31 1.37475e-14 0)
(-1.44999e-31 6.39893e-15 -0)
(-5.87196e-31 -7.29745e-14 0)
(-1.28512e-30 -7.78933e-15 0)
(2.15644e-30 2.50924e-14 0)
(-1.30041e-26 -1.05306e-12 0)
(-2.76254e-27 1.1704e-12 -0)
(-1.44123e-28 -2.23511e-13 0)
(-8.2067e-30 6.55388e-14 -0)
(-2.03861e-31 1.92797e-14 -0)
(-1.42138e-30 3.02646e-14 -0)
(-7.92661e-31 1.87972e-14 -0)
(6.53627e-31 1.80993e-14 0)
(1.2113e-31 2.52944e-15 0)
(2.63778e-31 2.43814e-14 0)
(-2.635e-30 -3.5075e-14 0)
(2.91121e-31 3.21617e-15 0)
(2.62111e-30 6.10084e-14 0)
(-1.91527e-31 -8.49918e-15 0)
(1.01254e-29 7.91326e-14 0)
(2.05079e-30 4.62305e-14 0)
(-3.79145e-31 5.98966e-15 -0)
(1.96603e-31 -1.26543e-14 -0)
(-4.92951e-31 -7.79459e-15 0)
(7.84187e-31 1.25652e-14 0)
(-1.46412e-26 2.22471e-12 -0)
(-3.45141e-28 -1.05866e-12 0)
(-3.96336e-30 6.57278e-14 -0)
(8.54612e-30 -1.41936e-13 -0)
(-2.12605e-31 -5.5811e-14 0)
(3.57386e-30 -8.08526e-14 -0)
(8.37675e-32 -1.02632e-13 -0)
(-1.66106e-29 -9.83082e-14 0)
(-8.48603e-30 -5.01792e-14 0)
(-1.29478e-29 -1.0064e-13 0)
(-5.02251e-30 -5.50044e-14 0)
(-9.55244e-30 -6.99313e-14 0)
(8.20885e-31 -3.64386e-14 -0)
(3.84675e-30 -9.35541e-14 -0)
(-9.59872e-30 -9.61209e-14 0)
(4.0024e-31 3.74269e-15 0)
(5.03952e-31 8.07174e-15 0)
(2.35255e-30 8.97178e-14 0)
(-5.82102e-31 2.69588e-14 -0)
(1.68639e-32 6.09159e-16 0)
(2.8817e-27 -9.54117e-13 -0)
(-3.666e-28 -2.53112e-13 0)
(6.63308e-30 -3.0412e-14 -0)
(-1.29081e-29 -1.02292e-13 0)
(1.02113e-30 -1.22441e-13 -0)
(3.98835e-31 -8.56842e-14 -0)
(-5.2821e-30 -1.49421e-13 0)
(-2.00911e-29 -1.49596e-13 0)
(-1.47356e-29 -8.36971e-14 0)
(-1.18734e-29 -7.50903e-14 0)
(-8.54354e-30 -7.50682e-14 0)
(-1.88129e-30 -1.9668e-14 0)
(-9.0136e-31 -2.28539e-14 0)
(-2.80842e-30 -5.28495e-14 0)
(-4.73983e-31 -1.8347e-14 0)
(9.1908e-31 -2.66863e-14 -0)
(-1.38046e-30 -6.37734e-14 0)
(-5.65212e-30 -9.23654e-14 0)
(-3.30902e-30 -2.50401e-14 0)
(-3.98783e-31 -9.83579e-15 0)
(-3.8719e-26 -2.39681e-12 0)
(-5.46437e-27 1.98181e-12 -0)
(-1.20879e-28 -1.79579e-13 0)
(-4.28376e-29 2.88796e-13 -0)
(-7.00671e-30 1.50898e-13 -0)
(-2.88223e-30 9.29441e-14 -0)
(1.66231e-29 1.53452e-13 0)
(9.08094e-30 1.49431e-13 0)
(-3.5007e-30 1.13904e-13 -0)
(7.62728e-31 1.28642e-13 0)
(5.19267e-30 1.3631e-13 0)
(-2.19521e-31 1.14689e-13 -0)
(-3.71945e-30 1.51261e-13 -0)
(-2.9044e-29 1.82351e-13 -0)
(-2.30772e-29 1.04044e-13 -0)
(-4.00495e-30 3.46695e-14 -0)
(-1.96803e-30 7.45602e-14 -0)
(-1.81978e-31 3.79371e-15 -0)
(-1.62096e-30 2.51967e-14 -0)
(-5.13667e-31 1.77834e-14 -0)
(-1.0922e-25 4.04832e-12 -0)
(-1.50965e-26 -2.90399e-12 0)
(-8.43529e-28 7.077e-13 -0)
(-4.33716e-29 -1.49583e-13 0)
(2.5077e-30 7.63375e-14 0)
(1.32993e-30 1.93652e-14 0)
(-6.33413e-31 -5.7453e-15 0)
(4.22771e-30 3.35188e-14 0)
(2.71809e-31 5.89464e-15 0)
(-4.36053e-32 -6.49054e-16 0)
(1.65118e-31 3.13902e-15 0)
(1.31316e-30 3.66879e-14 0)
(-1.08251e-30 2.50423e-14 -0)
(-8.86956e-30 4.13248e-14 -0)
(5.3985e-30 -2.91143e-14 -0)
(-2.19031e-30 -2.86267e-14 0)
(1.0277e-30 1.0191e-14 0)
(-1.98369e-30 7.81049e-14 -0)
(-3.91624e-30 2.8357e-14 -0)
(6.67428e-31 -1.76022e-14 -0)
(-8.43574e-26 -3.06283e-12 0)
(-1.53531e-26 2.62059e-12 -0)
(-1.14746e-27 -8.58603e-13 0)
(-1.92687e-30 7.58076e-15 -0)
(-4.65128e-29 -2.63654e-13 0)
(-2.86305e-29 -1.33817e-13 0)
(-1.47785e-29 -9.27523e-14 0)
(-5.87154e-30 -1.02518e-13 0)
(-1.07585e-29 -1.07253e-13 0)
(-1.7958e-30 -3.9383e-14 0)
(2.224e-30 -4.63702e-14 -0)
(3.69813e-30 -1.12745e-13 -0)
(2.53715e-31 -5.37995e-14 -0)
(3.97837e-30 -1.07794e-13 -0)
(1.25597e-30 -1.1439e-13 -0)
(-1.36601e-30 -5.99446e-14 0)
(-3.90152e-30 -8.4147e-14 0)
(-2.55355e-30 -4.99652e-14 0)
(-1.91161e-31 -4.88124e-14 0)
(7.75113e-32 -2.70005e-14 -0)
(-2.2969e-26 1.03931e-12 -0)
(-1.00771e-26 -1.93726e-12 0)
(-5.96385e-28 5.41557e-13 -0)
(-3.85464e-29 -1.17418e-13 0)
(6.68477e-30 9.16567e-14 0)
(4.97184e-30 2.21099e-14 0)
(1.38917e-29 1.13047e-13 0)
(-9.39714e-30 1.01644e-13 -0)
(-8.54906e-30 1.06326e-13 -0)
(-6.371e-30 8.90901e-14 -0)
(-1.05258e-29 6.65543e-14 -0)
(1.86199e-30 -9.55091e-15 -0)
(1.72806e-30 -2.75854e-14 -0)
(-9.21702e-31 -1.13931e-14 0)
(4.86585e-30 9.48743e-14 0)
(-6.8852e-31 1.25891e-14 -0)
(7.60357e-32 -1.01919e-15 -0)
(-2.39211e-30 5.37558e-14 -0)
(-1.71907e-30 2.45367e-14 -0)
(-3.42786e-31 1.82173e-14 -0)
(-1.4907e-27 -2.91639e-13 0)
(-7.58324e-28 5.48749e-13 -0)
(-4.71065e-29 -1.07765e-13 0)
(-2.91146e-30 8.76539e-14 -0)
(8.05233e-30 7.8418e-14 0)
(-4.26735e-31 1.00547e-13 -0)
(-5.26476e-30 5.87373e-14 -0)
(-8.42738e-31 1.70196e-14 -0)
(1.51006e-31 1.34565e-14 0)
(2.61202e-30 3.00336e-14 0)
(-1.32381e-30 7.32863e-14 -0)
(-9.33788e-30 8.99675e-14 -0)
(1.37835e-30 -1.31789e-14 -0)
(1.90998e-30 6.82191e-14 0)
(1.66923e-30 6.32928e-14 0)
(-4.55541e-30 7.2505e-14 -0)
(-1.73734e-29 1.10958e-13 -0)
(1.27002e-30 -1.4398e-14 -0)
(-1.88137e-31 1.49364e-14 -0)
(6.99108e-32 2.08824e-15 0)
(-1.36037e-26 -5.92157e-13 0)
(-8.86532e-27 1.82631e-12 -0)
(-4.47741e-28 -4.89201e-13 0)
(-5.71173e-30 2.44867e-14 -0)
(-1.39473e-29 -1.08725e-13 0)
(-2.80558e-30 -6.8704e-14 0)
(-2.18392e-31 -1.00672e-13 0)
(3.65556e-30 -9.97535e-14 -0)
(9.33512e-30 -1.10477e-13 -0)
(1.88187e-30 -1.17048e-13 -0)
(-1.9262e-31 -1.08463e-13 0)
(3.20766e-31 -2.04963e-14 -0)
(-7.88526e-32 1.22611e-15 -0)
(2.60056e-30 -9.31734e-14 -0)
(-3.38681e-30 -6.2405e-14 0)
(-2.54758e-30 -4.71441e-14 0)
(7.78729e-31 -4.75166e-14 -0)
(7.81074e-31 -6.0564e-14 -0)
(-2.95697e-30 -6.27135e-14 0)
(-1.09477e-30 -1.51763e-14 0)
(-1.28874e-27 3.42827e-13 -0)
(-1.30487e-29 -2.18008e-13 0)
(-3.33175e-29 1.48847e-13 -0)
(-4.47836e-30 6.1047e-14 -0)
(-1.61328e-30 7.62557e-14 -0)
(-2.48382e-30 1.0911e-13 -0)
(-3.33889e-30 1.19034e-13 -0)
(-1.53826e-29 1.19336e-13 -0)
(-1.08163e-29 7.88332e-14 -0)
(-7.75082e-30 7.44685e-14 -0)
(-5.50043e-30 8.00208e-14 -0)
(3.4108e-31 -3.74246e-15 -0)
(-7.01873e-31 2.24148e-14 -0)
(-2.5751e-30 5.82133e-14 -0)
(-1.57528e-30 2.20798e-14 -0)
(-7.49512e-32 -1.24574e-14 0)
(1.69563e-30 3.1855e-14 0)
(-2.85912e-30 6.89225e-14 -0)
(-1.40984e-32 1.50152e-16 -0)
(-5.76733e-31 1.34172e-14 -0)
(-1.97643e-25 3.73077e-12 -0)
(-5.3447e-26 -4.95352e-12 0)
(-2.58996e-27 9.85528e-13 -0)
(-1.02725e-28 -2.61836e-13 0)
(-6.59793e-30 2.35066e-14 -0)
(8.1075e-30 -7.12486e-14 -0)
(6.46329e-30 -5.85976e-14 -0)
(2.95282e-30 -4.22332e-14 -0)
(-1.51549e-30 -3.69796e-14 0)
(-5.17883e-31 -1.79641e-14 0)
(8.15267e-31 -1.61671e-14 -0)
(2.98881e-31 -3.71047e-15 -0)
(4.33225e-31 -3.25176e-14 -0)
(-1.87059e-31 7.07867e-15 -0)
(1.88323e-30 -2.23902e-14 -0)
(4.09116e-31 -5.5606e-15 -0)
(8.1795e-31 -2.86964e-14 -0)
(-3.93796e-31 6.82959e-15 -0)
(-5.6126e-33 5.79817e-17 -0)
(2.48155e-30 -4.2609e-14 -0)
)
;

boundaryField
{
    movingWall
    {
        type            calculated;
        value           nonuniform List<vector> 
20
(
(0 2.30908e-12 -0)
(0 -5.21247e-12 -0)
(0 3.29195e-13 -0)
(0 -5.01185e-13 -0)
(0 -2.60251e-13 -0)
(0 -3.27901e-13 -0)
(0 -3.1525e-13 -0)
(0 -2.81582e-13 -0)
(0 -1.8751e-13 -0)
(0 -2.12904e-13 -0)
(0 -2.11107e-13 -0)
(0 -9.25283e-14 -0)
(0 -1.38639e-13 -0)
(0 -1.70557e-13 -0)
(0 -1.28512e-13 -0)
(0 -1.83196e-13 -0)
(0 -1.79227e-13 -0)
(0 -8.19882e-14 -0)
(0 -4.43509e-14 -0)
(0 -5.99129e-14 -0)
)
;
    }
    fixedWalls
    {
        type            calculated;
        value           nonuniform List<vector> 
60
(
(0 -2.1334e-11 -0)
(0 -1.88452e-11 -0)
(0 3.66061e-11 -0)
(0 -2.12423e-11 -0)
(0 4.31185e-12 -0)
(0 8.31668e-12 -0)
(0 -1.1433e-11 -0)
(0 1.77043e-12 -0)
(0 5.70116e-12 -0)
(0 -4.99374e-12 -0)
(0 4.23166e-12 -0)
(0 9.68037e-14 -0)
(0 -7.51885e-12 -0)
(0 1.26619e-11 -0)
(0 -1.19114e-11 -0)
(0 8.18952e-12 -0)
(0 -1.96327e-12 -0)
(0 -7.9695e-12 -0)
(0 1.47656e-12 -0)
(0 2.07026e-11 -0)
(0 -5.26963e-14 -0)
(0 -4.08672e-14 -0)
(0 2.49633e-14 -0)
(0 -2.34938e-14 -0)
(0 -3.19261e-14 -0)
(0 4.54154e-14 -0)
(0 4.27336e-14 -0)
(0 3.38271e-14 -0)
(0 3.43759e-14 -0)
(0 2.49638e-14 -0)
(0 1.10735e-14 -0)
(0 -1.08874e-14 -0)
(0 1.55512e-14 -0)
(0 -1.51669e-14 -0)
(0 -2.82533e-14 -0)
(0 1.95785e-14 -0)
(0 1.33913e-14 -0)
(0 1.74981e-15 -0)
(0 9.91121e-15 -0)
(0 -5.04011e-14 -0)
(0 -7.36871e-12 -0)
(0 6.49097e-12 -0)
(0 -7.66013e-13 -0)
(0 5.18877e-13 -0)
(0 1.64803e-13 -0)
(0 2.22621e-13 -0)
(0 2.65707e-13 -0)
(0 2.31106e-13 -0)
(0 1.89389e-13 -0)
(0 2.24229e-13 -0)
(0 1.23392e-13 -0)
(0 1.70165e-13 -0)
(0 1.31283e-13 -0)
(0 1.27871e-14 -0)
(0 9.67983e-15 -0)
(0 8.53638e-14 -0)
(0 -8.72885e-14 -0)
(0 8.90426e-14 -0)
(0 4.45667e-14 -0)
(0 2.98082e-15 -0)
)
;
    }
    frontAndBack
    {
        type            empty;
    }
}


// ************************************************************************* //
