/*--------------------------------*- C++ -*----------------------------------*\
| =========                 |                                                 |
| \\      /  F ield         | OpenFOAM: The Open Source CFD Toolbox           |
|  \\    /   O peration     | Version:  2506                                  |
|   \\  /    A nd           | Website:  www.openfoam.com                      |
|    \\/     M anipulation  |                                                 |
\*---------------------------------------------------------------------------*/
FoamFile
{
    version     2.0;
    format      ascii;
    arch        "LSB;label=32;scalar=64";
    class       volScalarField;
    location    "5.5";
    object      Lambda2Field;
}
// * * * * * * * * * * * * * * * * * * * * * * * * * * * * * * * * * * * * * //

dimensions      [0 0 -2 0 0 0 0];

internalField   nonuniform List<scalar> 
400
(
3.43577e-24
1.79909e-24
5.95094e-26
1.36839e-26
-2.36837e-27
9.09786e-29
1.52189e-29
0
2.16858e-33
-5.47379e-29
2.47298e-28
8.14415e-28
8.04474e-28
7.34684e-28
6.09134e-28
5.04023e-29
8.29045e-29
3.94667e-29
1.07914e-30
1.61591e-28
2.44167e-24
2.75649e-24
7.08224e-26
0
0
4.00599e-28
1.60644e-28
1.81132e-27
1.19851e-27
-7.17856e-28
0
-1.37402e-28
0
1.76052e-28
0
0
-3.86424e-28
1.58053e-28
3.11317e-28
2.09278e-28
1.72087e-23
5.55683e-24
-8.31267e-26
4.77812e-26
-2.50173e-26
-3.26293e-27
-2.65268e-27
2.48699e-28
1.50174e-27
2.51902e-27
0
0
1.52543e-29
0
-1.62126e-27
1.26347e-28
8.18226e-29
0
-1.34057e-28
2.38756e-27
1.86505e-24
1.72417e-24
0
2.93874e-27
-2.17227e-27
1.62784e-27
6.16612e-28
5.25105e-28
0
0
0
0
8.4963e-29
5.91225e-28
8.20388e-29
-1.60953e-27
5.05244e-31
0
-3.07274e-29
1.65964e-28
0
0
0
2.93874e-27
2.96943e-28
2.82318e-28
4.82486e-28
0
-4.25552e-28
1.27333e-29
1.91705e-28
1.43291e-27
0
-1.58091e-28
6.80776e-30
3.56277e-29
0
0
8.74884e-29
0
2.32313e-24
9.47612e-25
2.64486e-26
3.18252e-28
1.58576e-28
9.0464e-29
3.05974e-28
0
-1.87643e-28
3.24263e-28
2.66704e-28
9.68563e-30
3.82109e-28
0
0
0
-6.16127e-29
5.05328e-28
2.52392e-28
5.696e-29
0
1.57781e-25
-7.1766e-26
1.22507e-26
-6.37594e-28
-1.01264e-27
-1.11448e-27
1.95098e-27
1.13359e-27
1.34405e-28
-4.02724e-29
0
0
2.48403e-28
4.64549e-28
-5.71387e-28
-3.15594e-28
4.45938e-28
0
1.50481e-29
3.54728e-25
4.592e-25
1.83671e-26
3.0691e-27
1.19238e-28
0
0
0
0
-1.97845e-28
-7.9718e-28
1.26165e-28
0
1.30646e-28
-2.98827e-28
0
-1.18967e-28
0
1.88266e-29
0
6.98379e-25
1.98537e-25
0
4.74348e-27
-2.07505e-28
3.3204e-28
0
1.29536e-28
2.29192e-28
0
0
0
0
0
2.71045e-28
0
3.96708e-28
-6.97309e-28
0
4.90989e-30
4.0503e-25
6.01448e-26
2.14998e-27
3.42136e-28
2.12107e-28
-5.74522e-29
2.25185e-28
7.70478e-28
0
7.38255e-29
-1.53653e-28
5.17783e-28
-2.89217e-28
0
1.77473e-28
-5.06215e-28
0
0
3.48109e-28
0
6.0562e-26
0
6.39947e-27
0
0
5.55147e-29
-1.67327e-27
-6.47111e-28
3.82794e-28
1.06053e-27
0
9.25685e-28
9.63398e-28
-9.85841e-28
-4.69244e-28
6.20949e-29
0
0
3.96331e-30
4.78095e-30
3.67252e-24
1.02662e-25
2.68818e-26
0
1.79851e-27
-3.53527e-28
-1.7641e-27
0
2.05709e-28
6.56789e-28
5.07972e-28
3.93436e-28
1.15272e-28
7.37576e-29
1.27205e-27
5.06222e-28
-4.39523e-28
0
5.59694e-29
4.68084e-28
2.71639e-24
0
3.06979e-26
0
1.92496e-27
1.67792e-27
1.49263e-27
-1.88396e-27
-4.25723e-28
9.32799e-28
0
0
0
-2.49025e-27
9.20719e-28
1.0593e-27
6.12e-28
7.49798e-29
7.82096e-28
2.52665e-28
-2.7151e-24
0
-5.94184e-26
0
-4.64843e-28
8.09859e-28
2.60158e-29
0
1.71723e-28
0
7.40574e-29
-2.50205e-28
3.9496e-30
-2.35688e-28
4.44456e-28
1.91285e-28
5.29412e-29
-5.60655e-28
0
6.76725e-30
-1.70147e-24
1.02758e-31
-1.60489e-25
1.25915e-26
-1.01349e-26
2.31521e-28
1.70032e-27
6.39936e-28
2.86641e-28
8.03781e-28
8.69179e-28
6.35673e-29
2.22607e-29
8.02597e-28
0
0
0
2.30118e-28
3.38912e-28
6.48225e-30
1.17274e-24
5.41917e-25
-1.46642e-26
4.8825e-28
0
6.11493e-28
0
-1.539e-27
3.06394e-28
-6.15101e-28
0
0
9.97424e-29
4.21266e-29
-1.08861e-27
0
4.11853e-28
2.18714e-28
6.96145e-29
2.40903e-28
9.82477e-25
9.73216e-25
4.4318e-26
1.34032e-27
2.66214e-28
-1.22515e-27
0
2.73366e-28
3.69945e-28
-4.86489e-29
-2.99436e-28
0
0
1.0649e-27
0
-2.57085e-28
-2.41269e-28
9.9875e-30
4.67216e-28
8.27256e-29
2.37531e-24
8.57817e-25
-7.70202e-28
4.28228e-27
-2.07544e-27
1.02548e-27
8.77983e-28
9.39652e-28
0
-2.00703e-28
0
1.7913e-28
0
-9.12082e-28
0
4.30445e-28
8.03039e-28
0
-3.94876e-28
3.2333e-28
2.83941e-26
5.45249e-26
0
4.58685e-27
2.08393e-27
0
-1.02425e-27
-4.48773e-28
3.59277e-28
5.56741e-28
1.05254e-28
4.21211e-29
1.27129e-28
0
1.36209e-28
1.62849e-28
-1.2728e-28
-7.7752e-28
2.07216e-28
3.7101e-28
2.32347e-24
4.98305e-25
5.7099e-26
0
1.37183e-27
-7.37181e-28
0
0
0
3.04396e-28
4.38476e-28
2.9477e-28
0
0
1.27796e-28
0
0
9.82941e-29
0
0
)
;

boundaryField
{
    movingWall
    {
        type            calculated;
        value           nonuniform List<scalar> 
20
(
8.32111e-24
0
7.39513e-25
-3.7918e-26
1.57333e-26
-3.22485e-27
0
-3.2488e-27
-1.01939e-27
2.16267e-27
2.83558e-27
4.05128e-28
0
1.25743e-27
6.28142e-28
-1.21659e-28
0
1.13854e-27
2.5749e-30
0
)
;
    }
    fixedWalls
    {
        type            calculated;
        value           nonuniform List<scalar> 
60
(
2.47393e-23
4.1658e-23
8.88727e-23
1.66786e-23
0
1.76415e-23
0
7.14055e-24
2.4352e-24
2.69946e-25
0
6.51163e-24
0
0
-4.92388e-24
8.75028e-24
2.04822e-23
1.19952e-23
4.27292e-26
1.39852e-23
8.20654e-29
2.09278e-28
4.60113e-27
1.65964e-28
-2.14513e-29
0
1.50481e-29
0
4.90989e-30
0
4.78095e-30
4.39579e-28
3.13168e-28
6.76725e-30
0
2.04008e-28
8.27256e-29
7.82113e-28
4.6604e-28
0
0
0
3.34614e-25
-3.30104e-26
1.34448e-26
6.06707e-28
9.33486e-28
0
-1.33201e-27
-4.84918e-28
1.662e-27
2.06182e-27
2.62485e-27
7.34684e-28
6.28691e-30
3.75044e-28
1.35831e-28
0
1.01348e-28
0
)
;
    }
    frontAndBack
    {
        type            empty;
    }
}


// ************************************************************************* //
