/*--------------------------------*- C++ -*----------------------------------*\
| =========                 |                                                 |
| \\      /  F ield         | OpenFOAM: The Open Source CFD Toolbox           |
|  \\    /   O peration     | Version:  2506                                  |
|   \\  /    A nd           | Website:  www.openfoam.com                      |
|    \\/     M anipulation  |                                                 |
\*---------------------------------------------------------------------------*/
FoamFile
{
    version     2.0;
    format      ascii;
    arch        "LSB;label=32;scalar=64";
    class       volVectorField;
    location    "5.5";
    object      momentum1:momentum;
}
// * * * * * * * * * * * * * * * * * * * * * * * * * * * * * * * * * * * * * //

dimensions      [1 1 -1 0 0 0 0];

internalField   nonuniform List<vector> 
400
(
(-2.5e-07 1.37911e-20 0)
(-2.5e-07 -2.69683e-21 0)
(-2.5e-07 6.72335e-22 0)
(-2.5e-07 -1.15665e-22 0)
(-2.5e-07 4.12759e-23 0)
(-2.5e-07 2.74377e-23 0)
(-2.5e-07 3.9835e-23 0)
(-2.5e-07 2.9303e-23 0)
(-2.5e-07 1.71826e-23 0)
(-2.5e-07 -8.06177e-26 0)
(-2.5e-07 1.17227e-23 0)
(-2.5e-07 2.45052e-23 0)
(-2.5e-07 3.04006e-23 0)
(-2.5e-07 2.93636e-23 0)
(-2.5e-07 -1.56711e-24 0)
(-2.5e-07 5.164e-24 0)
(-2.5e-07 7.06788e-24 0)
(-2.5e-07 1.3407e-24 0)
(-2.5e-07 6.50591e-24 0)
(-2.5e-07 9.46149e-25 0)
(-2.5e-07 1.20154e-20 0)
(-2.5e-07 -2.55566e-21 0)
(-2.5e-07 6.55199e-22 0)
(-2.5e-07 -9.58205e-23 0)
(-2.5e-07 2.0576e-23 0)
(-2.5e-07 -4.4042e-23 0)
(-2.5e-07 -3.00822e-23 0)
(-2.5e-07 -1.7569e-23 0)
(-2.5e-07 -1.70662e-23 0)
(-2.5e-07 -5.19801e-24 0)
(-2.5e-07 2.75915e-23 0)
(-2.5e-07 3.73368e-23 0)
(-2.5e-07 4.05075e-23 0)
(-2.5e-07 4.10198e-23 0)
(-2.5e-07 -2.13988e-23 0)
(-2.5e-07 -2.29126e-23 0)
(-2.5e-07 1.0669e-23 0)
(-2.5e-07 1.55338e-23 0)
(-2.5e-07 -3.90887e-24 0)
(-2.5e-07 -2.5542e-23 0)
(-2.5e-07 -2.43018e-20 0)
(-2.5e-07 5.42654e-21 0)
(-2.5e-07 -1.1159e-21 0)
(-2.5e-07 3.73267e-22 0)
(-2.5e-07 -2.16726e-23 0)
(-2.5e-07 -2.25997e-23 0)
(-2.5e-07 -8.31251e-23 0)
(-2.5e-07 -8.50855e-23 0)
(-2.5e-07 -7.85631e-23 0)
(-2.5e-07 -5.04579e-23 0)
(-2.5e-07 -2.28348e-24 0)
(-2.5e-07 2.8562e-23 0)
(-2.5e-07 4.78598e-23 0)
(-2.5e-07 6.25348e-23 0)
(-2.5e-07 2.01473e-23 0)
(-2.5e-07 -9.89779e-24 0)
(-2.5e-07 -6.71915e-24 0)
(-2.5e-07 -1.49559e-23 0)
(-2.5e-07 -3.76046e-23 0)
(-2.5e-07 -3.52199e-23 0)
(-2.5e-07 1.34797e-20 0)
(-2.5e-07 -2.962e-21 0)
(-2.5e-07 7.24921e-22 0)
(-2.5e-07 -1.41021e-22 0)
(-2.5e-07 4.8921e-23 0)
(-2.5e-07 -6.961e-24 0)
(-2.5e-07 -2.38148e-23 0)
(-2.5e-07 -3.53972e-23 0)
(-2.5e-07 -1.66549e-23 0)
(-2.5e-07 1.02008e-23 0)
(-2.5e-07 3.11198e-23 0)
(-2.5e-07 5.50872e-23 0)
(-2.5e-07 5.02717e-23 0)
(-2.5e-07 4.26625e-23 0)
(-2.5e-07 3.16684e-23 0)
(-2.5e-07 5.1884e-24 0)
(-2.5e-07 -1.85568e-23 0)
(-2.5e-07 -2.93252e-23 0)
(-2.5e-07 -2.70451e-23 0)
(-2.5e-07 -1.46836e-23 0)
(-2.5e-07 -1.49212e-21 0)
(-2.5e-07 2.66949e-22 0)
(-2.5e-07 -1.32833e-22 0)
(-2.5e-07 -1.88977e-23 0)
(-2.5e-07 -1.30594e-23 0)
(-2.5e-07 -4.8103e-24 0)
(-2.5e-07 -1.97529e-23 0)
(-2.5e-07 -1.28179e-23 0)
(-2.5e-07 1.27828e-23 0)
(-2.5e-07 2.85943e-23 0)
(-2.5e-07 1.337e-23 0)
(-2.5e-07 1.31235e-23 0)
(-2.5e-07 2.4816e-23 0)
(-2.5e-07 1.74697e-24 0)
(-2.5e-07 -2.49649e-24 0)
(-2.5e-07 2.37487e-24 0)
(-2.5e-07 -4.94213e-24 0)
(-2.5e-07 -1.18876e-23 0)
(-2.5e-07 -9.31838e-24 0)
(-2.5e-07 -3.01317e-24 0)
(-2.5e-07 -5.65532e-21 0)
(-2.5e-07 1.15518e-21 0)
(-2.5e-07 -2.71452e-22 0)
(-2.5e-07 6.78103e-23 0)
(-2.5e-07 1.88994e-23 0)
(-2.5e-07 4.01353e-23 0)
(-2.5e-07 3.10991e-23 0)
(-2.5e-07 8.81601e-24 0)
(-2.5e-07 -2.87583e-23 0)
(-2.5e-07 -3.37188e-23 0)
(-2.5e-07 -2.62809e-23 0)
(-2.5e-07 -2.14193e-23 0)
(-2.5e-07 9.16202e-24 0)
(-2.5e-07 1.32909e-23 0)
(-2.5e-07 9.20264e-24 0)
(-2.5e-07 2.48962e-23 0)
(-2.5e-07 1.1021e-23 0)
(-2.5e-07 -7.25391e-24 0)
(-2.5e-07 -3.66124e-24 0)
(-2.5e-07 1.1444e-23 0)
(-2.5e-07 6.80679e-21 0)
(-2.5e-07 -1.3576e-21 0)
(-2.5e-07 2.97656e-22 0)
(-2.5e-07 -6.34967e-23 0)
(-2.5e-07 1.84224e-23 0)
(-2.5e-07 1.89678e-23 0)
(-2.5e-07 5.87129e-23 0)
(-2.5e-07 3.97512e-23 0)
(-2.5e-07 -1.13337e-24 0)
(-2.5e-07 -1.25263e-23 0)
(-2.5e-07 -7.18832e-25 0)
(-2.5e-07 5.34302e-24 0)
(-2.5e-07 1.88048e-23 0)
(-2.5e-07 2.63643e-23 0)
(-2.5e-07 7.34923e-24 0)
(-2.5e-07 7.43147e-24 0)
(-2.5e-07 3.74075e-23 0)
(-2.5e-07 4.43111e-23 0)
(-2.5e-07 3.03987e-23 0)
(-2.5e-07 2.67085e-23 0)
(-2.5e-07 -1.37757e-21 0)
(-2.5e-07 4.16904e-22 0)
(-2.5e-07 -7.61136e-23 0)
(-2.5e-07 3.81337e-23 0)
(-2.5e-07 -7.29974e-25 0)
(-2.5e-07 1.86102e-23 0)
(-2.5e-07 2.23715e-23 0)
(-2.5e-07 3.56146e-24 0)
(-2.5e-07 5.98611e-24 0)
(-2.5e-07 -3.78203e-24 0)
(-2.5e-07 -1.70542e-23 0)
(-2.5e-07 -2.83621e-23 0)
(-2.5e-07 -2.81208e-23 0)
(-2.5e-07 -1.46659e-23 0)
(-2.5e-07 -9.16986e-24 0)
(-2.5e-07 2.47987e-24 0)
(-2.5e-07 3.39689e-23 0)
(-2.5e-07 4.08312e-23 0)
(-2.5e-07 3.45029e-23 0)
(-2.5e-07 2.11419e-23 0)
(-2.5e-07 -3.47852e-21 0)
(-2.5e-07 6.94615e-22 0)
(-2.5e-07 -1.30995e-22 0)
(-2.5e-07 3.11895e-23 0)
(-2.5e-07 -8.87664e-24 0)
(-2.5e-07 2.22231e-24 0)
(-2.5e-07 -4.61901e-24 0)
(-2.5e-07 -1.51162e-23 0)
(-2.5e-07 1.35478e-24 0)
(-2.5e-07 5.49423e-24 0)
(-2.5e-07 3.08376e-24 0)
(-2.5e-07 -2.27377e-23 0)
(-2.5e-07 -2.78974e-23 0)
(-2.5e-07 -2.21073e-24 0)
(-2.5e-07 2.87037e-23 0)
(-2.5e-07 1.8009e-23 0)
(-2.5e-07 -5.66497e-24 0)
(-2.5e-07 2.01165e-24 0)
(-2.5e-07 4.12461e-23 0)
(-2.5e-07 2.1485e-23 0)
(-2.5e-07 3.08721e-21 0)
(-2.5e-07 -5.90083e-22 0)
(-2.5e-07 1.61204e-22 0)
(-2.5e-07 -3.13047e-23 0)
(-2.5e-07 -2.64346e-24 0)
(-2.5e-07 -1.17413e-23 0)
(-2.5e-07 -1.05423e-23 0)
(-2.5e-07 9.02832e-24 0)
(-2.5e-07 1.1972e-23 0)
(-2.5e-07 2.70471e-24 0)
(-2.5e-07 1.87812e-23 0)
(-2.5e-07 2.26295e-23 0)
(-2.5e-07 1.07408e-23 0)
(-2.5e-07 5.6337e-24 0)
(-2.5e-07 3.19887e-23 0)
(-2.5e-07 1.109e-23 0)
(-2.5e-07 -1.5825e-23 0)
(-2.5e-07 -3.88412e-24 0)
(-2.5e-07 1.58107e-23 0)
(-2.5e-07 1.56023e-23 0)
(-2.5e-07 -1.64529e-21 0)
(-2.5e-07 8.1504e-23 0)
(-2.5e-07 -1.50749e-23 0)
(-2.5e-07 -1.50527e-23 0)
(-2.5e-07 9.52345e-25 0)
(-2.5e-07 -1.10505e-23 0)
(-2.5e-07 -2.04049e-25 0)
(-2.5e-07 4.22411e-23 0)
(-2.5e-07 4.22787e-23 0)
(-2.5e-07 3.21638e-23 0)
(-2.5e-07 2.28278e-23 0)
(-2.5e-07 3.41494e-23 0)
(-2.5e-07 -5.63198e-24 0)
(-2.5e-07 -1.02795e-23 0)
(-2.5e-07 2.49652e-23 0)
(-2.5e-07 2.67348e-23 0)
(-2.5e-07 1.56085e-23 0)
(-2.5e-07 6.55541e-24 0)
(-2.5e-07 -5.39807e-24 0)
(-2.5e-07 6.92096e-24 0)
(-2.5e-07 -7.55069e-22 0)
(-2.5e-07 3.62093e-22 0)
(-2.5e-07 -5.45269e-23 0)
(-2.5e-07 3.15473e-23 0)
(-2.5e-07 -2.08494e-24 0)
(-2.5e-07 -1.16368e-24 0)
(-2.5e-07 8.83761e-24 0)
(-2.5e-07 3.35756e-23 0)
(-2.5e-07 4.40146e-23 0)
(-2.5e-07 3.95304e-23 0)
(-2.5e-07 2.84526e-23 0)
(-2.5e-07 2.3913e-23 0)
(-2.5e-07 9.86005e-24 0)
(-2.5e-07 1.3285e-23 0)
(-2.5e-07 6.45858e-24 0)
(-2.5e-07 -8.61005e-24 0)
(-2.5e-07 5.41159e-24 0)
(-2.5e-07 1.52983e-23 0)
(-2.5e-07 3.30372e-23 0)
(-2.5e-07 1.0136e-23 0)
(-2.5e-07 4.0386e-21 0)
(-2.5e-07 -6.89317e-22 0)
(-2.5e-07 1.68282e-22 0)
(-2.5e-07 -3.70828e-23 0)
(-2.5e-07 -1.16083e-23 0)
(-2.5e-07 -7.75257e-24 0)
(-2.5e-07 2.70819e-23 0)
(-2.5e-07 1.51925e-23 0)
(-2.5e-07 -7.68343e-24 0)
(-2.5e-07 1.48226e-24 0)
(-2.5e-07 9.52368e-24 0)
(-2.5e-07 -4.78515e-25 0)
(-2.5e-07 -6.14739e-24 0)
(-2.5e-07 -3.98188e-23 0)
(-2.5e-07 -5.54503e-23 0)
(-2.5e-07 -2.88795e-23 0)
(-2.5e-07 -6.59879e-24 0)
(-2.5e-07 -1.19921e-23 0)
(-2.5e-07 -1.60831e-23 0)
(-2.5e-07 -7.22117e-24 0)
(-2.5e-07 -6.74481e-21 0)
(-2.5e-07 1.29964e-21 0)
(-2.5e-07 -2.97982e-22 0)
(-2.5e-07 7.24875e-23 0)
(-2.5e-07 8.21254e-24 0)
(-2.5e-07 1.71691e-23 0)
(-2.5e-07 2.75622e-23 0)
(-2.5e-07 3.15323e-23 0)
(-2.5e-07 1.15278e-23 0)
(-2.5e-07 1.67957e-23 0)
(-2.5e-07 1.31504e-23 0)
(-2.5e-07 8.94815e-24 0)
(-2.5e-07 -1.08068e-23 0)
(-2.5e-07 -5.36576e-23 0)
(-2.5e-07 -4.63561e-23 0)
(-2.5e-07 1.91282e-23 0)
(-2.5e-07 2.52108e-23 0)
(-2.5e-07 -6.34944e-24 0)
(-2.5e-07 -3.45262e-23 0)
(-2.5e-07 -9.47932e-24 0)
(-2.5e-07 6.88557e-21 0)
(-2.5e-07 -1.46466e-21 0)
(-2.5e-07 3.34107e-22 0)
(-2.5e-07 -6.35448e-23 0)
(-2.5e-07 4.41041e-23 0)
(-2.5e-07 5.34882e-23 0)
(-2.5e-07 3.98333e-23 0)
(-2.5e-07 1.43183e-23 0)
(-2.5e-07 2.50774e-23 0)
(-2.5e-07 1.13996e-23 0)
(-2.5e-07 -1.19905e-23 0)
(-2.5e-07 -8.20022e-24 0)
(-2.5e-07 -1.17898e-24 0)
(-2.5e-07 -9.22681e-24 0)
(-2.5e-07 -2.74494e-24 0)
(-2.5e-07 5.69696e-24 0)
(-2.5e-07 1.15914e-23 0)
(-2.5e-07 1.27767e-23 0)
(-2.5e-07 9.79059e-25 0)
(-2.5e-07 -7.17684e-25 0)
(-2.5e-07 -5.52503e-21 0)
(-2.5e-07 1.30044e-21 0)
(-2.5e-07 -2.75311e-22 0)
(-2.5e-07 8.20713e-23 0)
(-2.5e-07 1.82332e-23 0)
(-2.5e-07 5.62174e-23 0)
(-2.5e-07 3.07211e-23 0)
(-2.5e-07 -2.31129e-23 0)
(-2.5e-07 -2.0101e-23 0)
(-2.5e-07 -1.7878e-23 0)
(-2.5e-07 -3.95382e-23 0)
(-2.5e-07 -4.87386e-23 0)
(-2.5e-07 -1.5661e-23 0)
(-2.5e-07 2.0225e-23 0)
(-2.5e-07 1.28218e-23 0)
(-2.5e-07 -1.36729e-23 0)
(-2.5e-07 -1.8651e-23 0)
(-2.5e-07 -1.11249e-23 0)
(-2.5e-07 -1.75152e-23 0)
(-2.5e-07 -4.70412e-24 0)
(-2.5e-07 1.27786e-21 0)
(-2.5e-07 -3.45479e-22 0)
(-2.5e-07 1.09281e-22 0)
(-2.5e-07 -8.30385e-24 0)
(-2.5e-07 2.56712e-23 0)
(-2.5e-07 -1.06103e-24 0)
(-2.5e-07 -2.24081e-23 0)
(-2.5e-07 -1.23789e-23 0)
(-2.5e-07 2.80545e-24 0)
(-2.5e-07 2.17425e-23 0)
(-2.5e-07 -4.5159e-24 0)
(-2.5e-07 -2.59479e-23 0)
(-2.5e-07 -2.61468e-23 0)
(-2.5e-07 6.99943e-24 0)
(-2.5e-07 6.59328e-24 0)
(-2.5e-07 -1.57072e-23 0)
(-2.5e-07 -3.9144e-23 0)
(-2.5e-07 -2.2052e-23 0)
(-2.5e-07 -3.14897e-24 0)
(-2.5e-07 8.36958e-24 0)
(-2.5e-07 5.74327e-21 0)
(-2.5e-07 -1.21356e-21 0)
(-2.5e-07 2.28812e-22 0)
(-2.5e-07 -5.83146e-23 0)
(-2.5e-07 3.20702e-23 0)
(-2.5e-07 1.0209e-23 0)
(-2.5e-07 5.42335e-25 0)
(-2.5e-07 -9.16148e-24 0)
(-2.5e-07 -2.11246e-23 0)
(-2.5e-07 -4.01946e-24 0)
(-2.5e-07 4.43977e-25 0)
(-2.5e-07 -3.91248e-24 0)
(-2.5e-07 -1.60779e-23 0)
(-2.5e-07 -6.97775e-24 0)
(-2.5e-07 1.35678e-23 0)
(-2.5e-07 1.35095e-23 0)
(-2.5e-07 -4.09714e-24 0)
(-2.5e-07 -3.22417e-24 0)
(-2.5e-07 1.17876e-23 0)
(-2.5e-07 1.80343e-23 0)
(-2.5e-07 -9.39793e-22 0)
(-2.5e-07 1.49636e-23 0)
(-2.5e-07 -5.59595e-23 0)
(-2.5e-07 -1.83398e-23 0)
(-2.5e-07 -5.28906e-24 0)
(-2.5e-07 -5.69112e-24 0)
(-2.5e-07 -7.01248e-24 0)
(-2.5e-07 -3.22255e-23 0)
(-2.5e-07 -3.43011e-23 0)
(-2.5e-07 -2.60205e-23 0)
(-2.5e-07 -1.71844e-23 0)
(-2.5e-07 -2.27845e-23 0)
(-2.5e-07 -7.82822e-24 0)
(-2.5e-07 -1.10589e-23 0)
(-2.5e-07 -1.78362e-23 0)
(-2.5e-07 1.50415e-24 0)
(-2.5e-07 1.33074e-23 0)
(-2.5e-07 -1.03708e-23 0)
(-2.5e-07 -2.34735e-23 0)
(-2.5e-07 -1.07462e-23 0)
(-2.5e-07 -1.32441e-20 0)
(-2.5e-07 2.69743e-21 0)
(-2.5e-07 -6.56999e-22 0)
(-2.5e-07 9.80811e-23 0)
(-2.5e-07 -7.01711e-23 0)
(-2.5e-07 -2.84479e-23 0)
(-2.5e-07 -2.75749e-23 0)
(-2.5e-07 -1.74793e-23 0)
(-2.5e-07 1.02454e-23 0)
(-2.5e-07 7.20719e-24 0)
(-2.5e-07 -1.26069e-23 0)
(-2.5e-07 -2.01377e-23 0)
(-2.5e-07 -3.3307e-24 0)
(-2.5e-07 -6.60642e-24 0)
(-2.5e-07 -2.10274e-23 0)
(-2.5e-07 -1.83935e-23 0)
(-2.5e-07 -7.12589e-24 0)
(-2.5e-07 -1.44151e-23 0)
(-2.5e-07 -2.41999e-23 0)
(-2.5e-07 -1.456e-23 0)
)
;

boundaryField
{
    movingWall
    {
        type            calculated;
        value           uniform (0 0 0);
    }
    fixedWalls
    {
        type            calculated;
        value           uniform (0 0 0);
    }
    frontAndBack
    {
        type            empty;
    }
}


// ************************************************************************* //
