/*--------------------------------*- C++ -*----------------------------------*\
| =========                 |                                                 |
| \\      /  F ield         | OpenFOAM: The Open Source CFD Toolbox           |
|  \\    /   O peration     | Version:  2506                                  |
|   \\  /    A nd           | Website:  www.openfoam.com                      |
|    \\/     M anipulation  |                                                 |
\*---------------------------------------------------------------------------*/
FoamFile
{
    version     2.0;
    format      ascii;
    arch        "LSB;label=32;scalar=64";
    class       volScalarField;
    location    "5.5";
    object      norm_k_field;
}
// * * * * * * * * * * * * * * * * * * * * * * * * * * * * * * * * * * * * * //

dimensions      [0 0 0 0 0 0 0];

internalField   nonuniform List<scalar> 
400
(
1.10227e+10
4.08064e+09
8.2892e+09
8.69412e+09
1.00106e+10
1.00812e+10
1.01138e+10
1.10226e+10
1.10226e+10
1.10226e+10
1.10225e+10
1.10225e+10
1.10225e+10
1.10225e+10
1.10225e+10
1.10225e+10
1.10225e+10
1.10225e+10
1.10225e+10
1.10225e+10
6.43686e+09
1.17649e+10
9.12701e+09
1.1324e+10
1.0721e+10
1.17624e+10
1.12122e+10
1.17614e+10
1.1761e+10
1.17606e+10
1.17603e+10
1.176e+10
1.17597e+10
1.17595e+10
1.17593e+10
1.17592e+10
1.1759e+10
1.1759e+10
1.17589e+10
1.17589e+10
9.57702e+09
1.27834e+10
1.07756e+10
1.27817e+10
1.23065e+10
1.19807e+10
1.27224e+10
1.27792e+10
1.27786e+10
1.27783e+10
1.27778e+10
1.27775e+10
1.27771e+10
1.27769e+10
1.27767e+10
1.27765e+10
1.27763e+10
1.27763e+10
1.27762e+10
1.27762e+10
1.36772e+10
6.71829e+09
1.36757e+10
1.36752e+10
1.36741e+10
1.36737e+10
1.36727e+10
1.36724e+10
1.36716e+10
1.36713e+10
1.36707e+10
1.36704e+10
1.36699e+10
1.36698e+10
1.36694e+10
1.36693e+10
1.36691e+10
1.3669e+10
1.36689e+10
1.36689e+10
1.43055e+10
1.43055e+10
1.43039e+10
1.43033e+10
1.43022e+10
1.43016e+10
1.43007e+10
1.38769e+10
1.42995e+10
1.4299e+10
1.42984e+10
1.42981e+10
1.42975e+10
1.42973e+10
1.4297e+10
1.42968e+10
1.42966e+10
1.42965e+10
1.42964e+10
1.42964e+10
1.46969e+10
7.09526e+09
1.46952e+10
1.46946e+10
1.46934e+10
1.46928e+10
1.43735e+10
1.46913e+10
1.46905e+10
1.46901e+10
1.46894e+10
1.4689e+10
1.46885e+10
1.46882e+10
1.46879e+10
1.46877e+10
1.46875e+10
1.46874e+10
1.46873e+10
1.46873e+10
1.4928e+10
1.4928e+10
1.49261e+10
1.49256e+10
1.49244e+10
1.49238e+10
1.49227e+10
1.49223e+10
1.49214e+10
1.49209e+10
1.49203e+10
1.49198e+10
1.49194e+10
1.4919e+10
1.49187e+10
1.49185e+10
1.49183e+10
1.49182e+10
1.49181e+10
1.49181e+10
1.32188e+10
1.50659e+10
1.50641e+10
1.50635e+10
1.50621e+10
1.50616e+10
1.50605e+10
1.50601e+10
1.50591e+10
1.50587e+10
1.50579e+10
1.50577e+10
1.5057e+10
1.50568e+10
1.50563e+10
1.50562e+10
1.50559e+10
1.50559e+10
1.50558e+10
1.50557e+10
1.36874e+10
1.5155e+10
1.51532e+10
1.51525e+10
1.51513e+10
1.51506e+10
1.51496e+10
1.5149e+10
1.51481e+10
1.51477e+10
1.5147e+10
1.51466e+10
1.5146e+10
1.51458e+10
1.51454e+10
1.51452e+10
1.51449e+10
1.51449e+10
1.51448e+10
1.51447e+10
1.44402e+10
9.77333e+09
1.52193e+10
1.52187e+10
1.52173e+10
1.52168e+10
1.52156e+10
1.52152e+10
1.52142e+10
1.52138e+10
1.52131e+10
1.52126e+10
1.52122e+10
1.52118e+10
1.52115e+10
1.52112e+10
1.5211e+10
1.52109e+10
1.52108e+10
1.52108e+10
1.52784e+10
1.52784e+10
1.52765e+10
1.52759e+10
1.52745e+10
1.5274e+10
1.52727e+10
1.52724e+10
1.52714e+10
1.5271e+10
1.52703e+10
1.52698e+10
1.52693e+10
1.5269e+10
1.52686e+10
1.52684e+10
1.52682e+10
1.52681e+10
1.5268e+10
1.52679e+10
1.53343e+10
4.72403e+09
1.53324e+10
1.53317e+10
1.53305e+10
1.53298e+10
1.53288e+10
1.53282e+10
1.53273e+10
1.53268e+10
1.53261e+10
1.53257e+10
1.53252e+10
1.53249e+10
1.53245e+10
1.53243e+10
1.5324e+10
1.53239e+10
1.53238e+10
1.53238e+10
9.93272e+09
1.53933e+10
1.39136e+10
1.53907e+10
1.53895e+10
1.53888e+10
1.53878e+10
1.53872e+10
1.53863e+10
1.53858e+10
1.53851e+10
1.53847e+10
1.53841e+10
1.53838e+10
1.53834e+10
1.53832e+10
1.5383e+10
1.53829e+10
1.53828e+10
1.53827e+10
1.26792e+10
7.46166e+09
1.54564e+10
1.54558e+10
1.54545e+10
1.54539e+10
1.54527e+10
1.54522e+10
1.54512e+10
1.54508e+10
1.545e+10
1.54496e+10
1.54491e+10
1.54487e+10
1.54484e+10
1.54481e+10
1.54479e+10
1.54478e+10
1.54477e+10
1.54477e+10
1.45121e+10
1.55315e+10
1.5118e+10
1.55289e+10
1.55277e+10
1.55269e+10
1.55259e+10
1.55253e+10
1.55244e+10
1.55238e+10
1.55232e+10
1.55227e+10
1.55222e+10
1.55219e+10
1.55214e+10
1.55212e+10
1.5521e+10
1.55209e+10
1.55208e+10
1.55208e+10
1.31426e+10
1.56139e+10
1.56119e+10
1.56113e+10
1.56098e+10
1.56093e+10
1.5608e+10
1.56076e+10
1.56065e+10
1.56061e+10
1.56053e+10
1.56049e+10
1.56044e+10
1.5604e+10
1.56037e+10
1.56034e+10
1.56032e+10
1.56031e+10
1.5603e+10
1.56029e+10
1.57035e+10
1.57035e+10
1.57015e+10
1.57008e+10
1.56995e+10
1.56988e+10
1.56977e+10
1.5697e+10
1.56962e+10
1.56956e+10
1.56949e+10
1.56945e+10
1.56939e+10
1.56936e+10
1.56932e+10
1.56929e+10
1.56927e+10
1.56926e+10
1.56925e+10
1.56925e+10
1.27275e+10
1.57933e+10
1.57912e+10
1.57906e+10
1.57892e+10
1.57886e+10
1.57874e+10
1.57868e+10
1.57859e+10
1.57853e+10
1.57847e+10
1.57841e+10
1.57836e+10
1.57832e+10
1.57829e+10
1.57826e+10
1.57824e+10
1.57823e+10
1.57822e+10
1.57821e+10
1.52104e+10
1.58689e+10
1.58669e+10
1.58663e+10
1.58649e+10
1.58643e+10
1.58631e+10
1.58626e+10
1.58615e+10
1.58612e+10
1.58602e+10
1.586e+10
1.58593e+10
1.58591e+10
1.58585e+10
1.58585e+10
1.58581e+10
1.58581e+10
1.58579e+10
1.58579e+10
1.59023e+10
7.54199e+09
1.59023e+10
1.59022e+10
1.59022e+10
1.59022e+10
1.59022e+10
1.59022e+10
1.59022e+10
1.59022e+10
1.59021e+10
1.59022e+10
1.59021e+10
1.59022e+10
1.59021e+10
1.59021e+10
1.59021e+10
1.59021e+10
1.59021e+10
1.59021e+10
)
;

boundaryField
{
    movingWall
    {
        type            calculated;
        value           nonuniform List<scalar> 
20
(
1.59023e+10
7.54199e+09
1.59023e+10
1.59022e+10
1.59022e+10
1.59022e+10
1.59022e+10
1.59022e+10
1.59022e+10
1.59022e+10
1.59021e+10
1.59022e+10
1.59021e+10
1.59022e+10
1.59021e+10
1.59021e+10
1.59021e+10
1.59021e+10
1.59021e+10
1.59021e+10
)
;
    }
    fixedWalls
    {
        type            calculated;
        value           nonuniform List<scalar> 
60
(
1.10227e+10
6.43686e+09
9.57702e+09
1.36772e+10
1.43055e+10
1.46969e+10
1.4928e+10
1.32188e+10
1.36874e+10
1.44402e+10
1.52784e+10
1.53343e+10
9.93272e+09
1.26792e+10
1.45121e+10
1.31426e+10
1.57035e+10
1.27275e+10
1.52104e+10
1.59023e+10
1.10225e+10
1.17589e+10
1.27762e+10
1.36689e+10
1.42964e+10
1.46873e+10
1.49181e+10
1.50557e+10
1.51447e+10
1.52108e+10
1.52679e+10
1.53238e+10
1.53827e+10
1.54477e+10
1.55208e+10
1.56029e+10
1.56925e+10
1.57821e+10
1.58579e+10
1.59021e+10
1.10227e+10
4.08064e+09
8.2892e+09
8.69412e+09
1.00106e+10
1.00812e+10
1.01138e+10
1.10226e+10
1.10226e+10
1.10226e+10
1.10225e+10
1.10225e+10
1.10225e+10
1.10225e+10
1.10225e+10
1.10225e+10
1.10225e+10
1.10225e+10
1.10225e+10
1.10225e+10
)
;
    }
    frontAndBack
    {
        type            empty;
    }
}


// ************************************************************************* //
