/*--------------------------------*- C++ -*----------------------------------*\
| =========                 |                                                 |
| \\      /  F ield         | OpenFOAM: The Open Source CFD Toolbox           |
|  \\    /   O peration     | Version:  2506                                  |
|   \\  /    A nd           | Website:  www.openfoam.com                      |
|    \\/     M anipulation  |                                                 |
\*---------------------------------------------------------------------------*/
FoamFile
{
    version     2.0;
    format      ascii;
    arch        "LSB;label=32;scalar=64";
    class       volVectorField;
    location    "5.5";
    object      norm_U_L1;
}
// * * * * * * * * * * * * * * * * * * * * * * * * * * * * * * * * * * * * * //

dimensions      [0 0 0 0 0 0 0];

internalField   nonuniform List<vector> 
400
(
(-0.0025 1.37911e-16 0)
(-0.0025 -2.69683e-17 0)
(-0.0025 6.72335e-18 0)
(-0.0025 -1.15665e-18 0)
(-0.0025 4.12759e-19 0)
(-0.0025 2.74377e-19 0)
(-0.0025 3.9835e-19 0)
(-0.0025 2.9303e-19 0)
(-0.0025 1.71826e-19 0)
(-0.0025 -8.06177e-22 0)
(-0.0025 1.17227e-19 0)
(-0.0025 2.45052e-19 0)
(-0.0025 3.04006e-19 0)
(-0.0025 2.93636e-19 0)
(-0.0025 -1.56711e-20 0)
(-0.0025 5.164e-20 0)
(-0.0025 7.06788e-20 0)
(-0.0025 1.3407e-20 0)
(-0.0025 6.50591e-20 0)
(-0.0025 9.46149e-21 0)
(-0.0025 1.20154e-16 0)
(-0.0025 -2.55566e-17 0)
(-0.0025 6.55199e-18 0)
(-0.0025 -9.58205e-19 0)
(-0.0025 2.0576e-19 0)
(-0.0025 -4.4042e-19 0)
(-0.0025 -3.00822e-19 0)
(-0.0025 -1.7569e-19 0)
(-0.0025 -1.70662e-19 0)
(-0.0025 -5.19801e-20 0)
(-0.0025 2.75915e-19 0)
(-0.0025 3.73368e-19 0)
(-0.0025 4.05075e-19 0)
(-0.0025 4.10198e-19 0)
(-0.0025 -2.13988e-19 0)
(-0.0025 -2.29126e-19 0)
(-0.0025 1.0669e-19 0)
(-0.0025 1.55338e-19 0)
(-0.0025 -3.90887e-20 0)
(-0.0025 -2.5542e-19 0)
(-0.0025 -2.43018e-16 0)
(-0.0025 5.42654e-17 0)
(-0.0025 -1.1159e-17 0)
(-0.0025 3.73267e-18 0)
(-0.0025 -2.16726e-19 0)
(-0.0025 -2.25997e-19 0)
(-0.0025 -8.31251e-19 0)
(-0.0025 -8.50855e-19 0)
(-0.0025 -7.85631e-19 0)
(-0.0025 -5.04579e-19 0)
(-0.0025 -2.28348e-20 0)
(-0.0025 2.8562e-19 0)
(-0.0025 4.78598e-19 0)
(-0.0025 6.25348e-19 0)
(-0.0025 2.01473e-19 0)
(-0.0025 -9.89779e-20 0)
(-0.0025 -6.71915e-20 0)
(-0.0025 -1.49559e-19 0)
(-0.0025 -3.76046e-19 0)
(-0.0025 -3.52199e-19 0)
(-0.0025 1.34797e-16 0)
(-0.0025 -2.962e-17 0)
(-0.0025 7.24921e-18 0)
(-0.0025 -1.41021e-18 0)
(-0.0025 4.8921e-19 0)
(-0.0025 -6.961e-20 0)
(-0.0025 -2.38148e-19 0)
(-0.0025 -3.53972e-19 0)
(-0.0025 -1.66549e-19 0)
(-0.0025 1.02008e-19 0)
(-0.0025 3.11198e-19 0)
(-0.0025 5.50872e-19 0)
(-0.0025 5.02717e-19 0)
(-0.0025 4.26625e-19 0)
(-0.0025 3.16684e-19 0)
(-0.0025 5.1884e-20 0)
(-0.0025 -1.85568e-19 0)
(-0.0025 -2.93252e-19 0)
(-0.0025 -2.70451e-19 0)
(-0.0025 -1.46836e-19 0)
(-0.0025 -1.49212e-17 0)
(-0.0025 2.66949e-18 0)
(-0.0025 -1.32833e-18 0)
(-0.0025 -1.88977e-19 0)
(-0.0025 -1.30594e-19 0)
(-0.0025 -4.8103e-20 0)
(-0.0025 -1.97529e-19 0)
(-0.0025 -1.28179e-19 0)
(-0.0025 1.27828e-19 0)
(-0.0025 2.85943e-19 0)
(-0.0025 1.337e-19 0)
(-0.0025 1.31235e-19 0)
(-0.0025 2.4816e-19 0)
(-0.0025 1.74697e-20 0)
(-0.0025 -2.49649e-20 0)
(-0.0025 2.37487e-20 0)
(-0.0025 -4.94213e-20 0)
(-0.0025 -1.18876e-19 0)
(-0.0025 -9.31838e-20 0)
(-0.0025 -3.01317e-20 0)
(-0.0025 -5.65532e-17 0)
(-0.0025 1.15518e-17 0)
(-0.0025 -2.71452e-18 0)
(-0.0025 6.78103e-19 0)
(-0.0025 1.88994e-19 0)
(-0.0025 4.01353e-19 0)
(-0.0025 3.10991e-19 0)
(-0.0025 8.81601e-20 0)
(-0.0025 -2.87583e-19 0)
(-0.0025 -3.37188e-19 0)
(-0.0025 -2.62809e-19 0)
(-0.0025 -2.14193e-19 0)
(-0.0025 9.16202e-20 0)
(-0.0025 1.32909e-19 0)
(-0.0025 9.20264e-20 0)
(-0.0025 2.48962e-19 0)
(-0.0025 1.1021e-19 0)
(-0.0025 -7.25391e-20 0)
(-0.0025 -3.66124e-20 0)
(-0.0025 1.1444e-19 0)
(-0.0025 6.80679e-17 0)
(-0.0025 -1.3576e-17 0)
(-0.0025 2.97656e-18 0)
(-0.0025 -6.34967e-19 0)
(-0.0025 1.84224e-19 0)
(-0.0025 1.89678e-19 0)
(-0.0025 5.87129e-19 0)
(-0.0025 3.97512e-19 0)
(-0.0025 -1.13337e-20 0)
(-0.0025 -1.25263e-19 0)
(-0.0025 -7.18832e-21 0)
(-0.0025 5.34302e-20 0)
(-0.0025 1.88048e-19 0)
(-0.0025 2.63643e-19 0)
(-0.0025 7.34923e-20 0)
(-0.0025 7.43147e-20 0)
(-0.0025 3.74075e-19 0)
(-0.0025 4.43111e-19 0)
(-0.0025 3.03987e-19 0)
(-0.0025 2.67085e-19 0)
(-0.0025 -1.37757e-17 0)
(-0.0025 4.16904e-18 0)
(-0.0025 -7.61136e-19 0)
(-0.0025 3.81337e-19 0)
(-0.0025 -7.29974e-21 0)
(-0.0025 1.86102e-19 0)
(-0.0025 2.23715e-19 0)
(-0.0025 3.56146e-20 0)
(-0.0025 5.98611e-20 0)
(-0.0025 -3.78203e-20 0)
(-0.0025 -1.70542e-19 0)
(-0.0025 -2.83621e-19 0)
(-0.0025 -2.81208e-19 0)
(-0.0025 -1.46659e-19 0)
(-0.0025 -9.16986e-20 0)
(-0.0025 2.47987e-20 0)
(-0.0025 3.39689e-19 0)
(-0.0025 4.08312e-19 0)
(-0.0025 3.45029e-19 0)
(-0.0025 2.11419e-19 0)
(-0.0025 -3.47852e-17 0)
(-0.0025 6.94615e-18 0)
(-0.0025 -1.30995e-18 0)
(-0.0025 3.11895e-19 0)
(-0.0025 -8.87664e-20 0)
(-0.0025 2.22231e-20 0)
(-0.0025 -4.61901e-20 0)
(-0.0025 -1.51162e-19 0)
(-0.0025 1.35478e-20 0)
(-0.0025 5.49423e-20 0)
(-0.0025 3.08376e-20 0)
(-0.0025 -2.27377e-19 0)
(-0.0025 -2.78974e-19 0)
(-0.0025 -2.21073e-20 0)
(-0.0025 2.87037e-19 0)
(-0.0025 1.8009e-19 0)
(-0.0025 -5.66497e-20 0)
(-0.0025 2.01165e-20 0)
(-0.0025 4.12461e-19 0)
(-0.0025 2.1485e-19 0)
(-0.0025 3.08721e-17 0)
(-0.0025 -5.90083e-18 0)
(-0.0025 1.61204e-18 0)
(-0.0025 -3.13047e-19 0)
(-0.0025 -2.64346e-20 0)
(-0.0025 -1.17413e-19 0)
(-0.0025 -1.05423e-19 0)
(-0.0025 9.02832e-20 0)
(-0.0025 1.1972e-19 0)
(-0.0025 2.70471e-20 0)
(-0.0025 1.87812e-19 0)
(-0.0025 2.26295e-19 0)
(-0.0025 1.07408e-19 0)
(-0.0025 5.6337e-20 0)
(-0.0025 3.19887e-19 0)
(-0.0025 1.109e-19 0)
(-0.0025 -1.5825e-19 0)
(-0.0025 -3.88412e-20 0)
(-0.0025 1.58107e-19 0)
(-0.0025 1.56023e-19 0)
(-0.0025 -1.64529e-17 0)
(-0.0025 8.1504e-19 0)
(-0.0025 -1.50749e-19 0)
(-0.0025 -1.50527e-19 0)
(-0.0025 9.52345e-21 0)
(-0.0025 -1.10505e-19 0)
(-0.0025 -2.04049e-21 0)
(-0.0025 4.22411e-19 0)
(-0.0025 4.22787e-19 0)
(-0.0025 3.21638e-19 0)
(-0.0025 2.28278e-19 0)
(-0.0025 3.41494e-19 0)
(-0.0025 -5.63198e-20 0)
(-0.0025 -1.02795e-19 0)
(-0.0025 2.49652e-19 0)
(-0.0025 2.67348e-19 0)
(-0.0025 1.56085e-19 0)
(-0.0025 6.55541e-20 0)
(-0.0025 -5.39807e-20 0)
(-0.0025 6.92096e-20 0)
(-0.0025 -7.55069e-18 0)
(-0.0025 3.62093e-18 0)
(-0.0025 -5.45269e-19 0)
(-0.0025 3.15473e-19 0)
(-0.0025 -2.08494e-20 0)
(-0.0025 -1.16368e-20 0)
(-0.0025 8.83761e-20 0)
(-0.0025 3.35756e-19 0)
(-0.0025 4.40146e-19 0)
(-0.0025 3.95304e-19 0)
(-0.0025 2.84526e-19 0)
(-0.0025 2.3913e-19 0)
(-0.0025 9.86005e-20 0)
(-0.0025 1.3285e-19 0)
(-0.0025 6.45858e-20 0)
(-0.0025 -8.61005e-20 0)
(-0.0025 5.41159e-20 0)
(-0.0025 1.52983e-19 0)
(-0.0025 3.30372e-19 0)
(-0.0025 1.0136e-19 0)
(-0.0025 4.0386e-17 0)
(-0.0025 -6.89317e-18 0)
(-0.0025 1.68282e-18 0)
(-0.0025 -3.70828e-19 0)
(-0.0025 -1.16083e-19 0)
(-0.0025 -7.75257e-20 0)
(-0.0025 2.70819e-19 0)
(-0.0025 1.51925e-19 0)
(-0.0025 -7.68343e-20 0)
(-0.0025 1.48226e-20 0)
(-0.0025 9.52368e-20 0)
(-0.0025 -4.78515e-21 0)
(-0.0025 -6.14739e-20 0)
(-0.0025 -3.98188e-19 0)
(-0.0025 -5.54503e-19 0)
(-0.0025 -2.88795e-19 0)
(-0.0025 -6.59879e-20 0)
(-0.0025 -1.19921e-19 0)
(-0.0025 -1.60831e-19 0)
(-0.0025 -7.22117e-20 0)
(-0.0025 -6.74481e-17 0)
(-0.0025 1.29964e-17 0)
(-0.0025 -2.97982e-18 0)
(-0.0025 7.24875e-19 0)
(-0.0025 8.21254e-20 0)
(-0.0025 1.71691e-19 0)
(-0.0025 2.75622e-19 0)
(-0.0025 3.15323e-19 0)
(-0.0025 1.15278e-19 0)
(-0.0025 1.67957e-19 0)
(-0.0025 1.31504e-19 0)
(-0.0025 8.94815e-20 0)
(-0.0025 -1.08068e-19 0)
(-0.0025 -5.36576e-19 0)
(-0.0025 -4.63561e-19 0)
(-0.0025 1.91282e-19 0)
(-0.0025 2.52108e-19 0)
(-0.0025 -6.34944e-20 0)
(-0.0025 -3.45262e-19 0)
(-0.0025 -9.47932e-20 0)
(-0.0025 6.88557e-17 0)
(-0.0025 -1.46466e-17 0)
(-0.0025 3.34107e-18 0)
(-0.0025 -6.35448e-19 0)
(-0.0025 4.41041e-19 0)
(-0.0025 5.34882e-19 0)
(-0.0025 3.98333e-19 0)
(-0.0025 1.43183e-19 0)
(-0.0025 2.50774e-19 0)
(-0.0025 1.13996e-19 0)
(-0.0025 -1.19905e-19 0)
(-0.0025 -8.20022e-20 0)
(-0.0025 -1.17898e-20 0)
(-0.0025 -9.22681e-20 0)
(-0.0025 -2.74494e-20 0)
(-0.0025 5.69696e-20 0)
(-0.0025 1.15914e-19 0)
(-0.0025 1.27767e-19 0)
(-0.0025 9.79059e-21 0)
(-0.0025 -7.17684e-21 0)
(-0.0025 -5.52503e-17 0)
(-0.0025 1.30044e-17 0)
(-0.0025 -2.75311e-18 0)
(-0.0025 8.20713e-19 0)
(-0.0025 1.82332e-19 0)
(-0.0025 5.62174e-19 0)
(-0.0025 3.07211e-19 0)
(-0.0025 -2.31129e-19 0)
(-0.0025 -2.0101e-19 0)
(-0.0025 -1.7878e-19 0)
(-0.0025 -3.95382e-19 0)
(-0.0025 -4.87386e-19 0)
(-0.0025 -1.5661e-19 0)
(-0.0025 2.0225e-19 0)
(-0.0025 1.28218e-19 0)
(-0.0025 -1.36729e-19 0)
(-0.0025 -1.8651e-19 0)
(-0.0025 -1.11249e-19 0)
(-0.0025 -1.75152e-19 0)
(-0.0025 -4.70412e-20 0)
(-0.0025 1.27786e-17 0)
(-0.0025 -3.45479e-18 0)
(-0.0025 1.09281e-18 0)
(-0.0025 -8.30385e-20 0)
(-0.0025 2.56712e-19 0)
(-0.0025 -1.06103e-20 0)
(-0.0025 -2.24081e-19 0)
(-0.0025 -1.23789e-19 0)
(-0.0025 2.80545e-20 0)
(-0.0025 2.17425e-19 0)
(-0.0025 -4.5159e-20 0)
(-0.0025 -2.59479e-19 0)
(-0.0025 -2.61468e-19 0)
(-0.0025 6.99943e-20 0)
(-0.0025 6.59328e-20 0)
(-0.0025 -1.57072e-19 0)
(-0.0025 -3.9144e-19 0)
(-0.0025 -2.2052e-19 0)
(-0.0025 -3.14897e-20 0)
(-0.0025 8.36958e-20 0)
(-0.0025 5.74327e-17 0)
(-0.0025 -1.21356e-17 0)
(-0.0025 2.28812e-18 0)
(-0.0025 -5.83146e-19 0)
(-0.0025 3.20702e-19 0)
(-0.0025 1.0209e-19 0)
(-0.0025 5.42335e-21 0)
(-0.0025 -9.16148e-20 0)
(-0.0025 -2.11246e-19 0)
(-0.0025 -4.01946e-20 0)
(-0.0025 4.43977e-21 0)
(-0.0025 -3.91248e-20 0)
(-0.0025 -1.60779e-19 0)
(-0.0025 -6.97775e-20 0)
(-0.0025 1.35678e-19 0)
(-0.0025 1.35095e-19 0)
(-0.0025 -4.09714e-20 0)
(-0.0025 -3.22417e-20 0)
(-0.0025 1.17876e-19 0)
(-0.0025 1.80343e-19 0)
(-0.0025 -9.39793e-18 0)
(-0.0025 1.49636e-19 0)
(-0.0025 -5.59595e-19 0)
(-0.0025 -1.83398e-19 0)
(-0.0025 -5.28906e-20 0)
(-0.0025 -5.69112e-20 0)
(-0.0025 -7.01248e-20 0)
(-0.0025 -3.22255e-19 0)
(-0.0025 -3.43011e-19 0)
(-0.0025 -2.60205e-19 0)
(-0.0025 -1.71844e-19 0)
(-0.0025 -2.27845e-19 0)
(-0.0025 -7.82822e-20 0)
(-0.0025 -1.10589e-19 0)
(-0.0025 -1.78362e-19 0)
(-0.0025 1.50415e-20 0)
(-0.0025 1.33074e-19 0)
(-0.0025 -1.03708e-19 0)
(-0.0025 -2.34735e-19 0)
(-0.0025 -1.07462e-19 0)
(-0.0025 -1.32441e-16 0)
(-0.0025 2.69743e-17 0)
(-0.0025 -6.56999e-18 0)
(-0.0025 9.80811e-19 0)
(-0.0025 -7.01711e-19 0)
(-0.0025 -2.84479e-19 0)
(-0.0025 -2.75749e-19 0)
(-0.0025 -1.74793e-19 0)
(-0.0025 1.02454e-19 0)
(-0.0025 7.20719e-20 0)
(-0.0025 -1.26069e-19 0)
(-0.0025 -2.01377e-19 0)
(-0.0025 -3.3307e-20 0)
(-0.0025 -6.60642e-20 0)
(-0.0025 -2.10274e-19 0)
(-0.0025 -1.83935e-19 0)
(-0.0025 -7.12589e-20 0)
(-0.0025 -1.44151e-19 0)
(-0.0025 -2.41999e-19 0)
(-0.0025 -1.456e-19 0)
)
;

boundaryField
{
    movingWall
    {
        type            calculated;
        value           uniform (-0.0025 -0 -0);
    }
    fixedWalls
    {
        type            calculated;
        value           uniform (-0.0025 -0 -0);
    }
    frontAndBack
    {
        type            empty;
    }
}


// ************************************************************************* //
