/*--------------------------------*- C++ -*----------------------------------*\
| =========                 |                                                 |
| \\      /  F ield         | OpenFOAM: The Open Source CFD Toolbox           |
|  \\    /   O peration     | Version:  2506                                  |
|   \\  /    A nd           | Website:  www.openfoam.com                      |
|    \\/     M anipulation  |                                                 |
\*---------------------------------------------------------------------------*/
FoamFile
{
    version     2.0;
    format      ascii;
    arch        "LSB;label=32;scalar=64";
    class       volVectorField;
    location    "5.5";
    object      norm_U_composite;
}
// * * * * * * * * * * * * * * * * * * * * * * * * * * * * * * * * * * * * * //

dimensions      [0 0 0 0 0 0 0];

internalField   nonuniform List<vector> 
400
(
(-0.5 2.75823e-14 0)
(-0.5 -5.39367e-15 0)
(-0.5 1.34467e-15 0)
(-0.5 -2.3133e-16 0)
(-0.5 8.25519e-17 0)
(-0.5 5.48755e-17 0)
(-0.5 7.96701e-17 0)
(-0.5 5.8606e-17 0)
(-0.5 3.43652e-17 0)
(-0.5 -1.61235e-19 0)
(-0.5 2.34455e-17 0)
(-0.5 4.90104e-17 0)
(-0.5 6.08012e-17 0)
(-0.5 5.87271e-17 0)
(-0.5 -3.13421e-18 0)
(-0.5 1.0328e-17 0)
(-0.5 1.41358e-17 0)
(-0.5 2.68141e-18 0)
(-0.5 1.30118e-17 0)
(-0.5 1.8923e-18 0)
(-0.5 2.40309e-14 0)
(-0.5 -5.11132e-15 0)
(-0.5 1.3104e-15 0)
(-0.5 -1.91641e-16 0)
(-0.5 4.11521e-17 0)
(-0.5 -8.80839e-17 0)
(-0.5 -6.01644e-17 0)
(-0.5 -3.51381e-17 0)
(-0.5 -3.41324e-17 0)
(-0.5 -1.0396e-17 0)
(-0.5 5.51831e-17 0)
(-0.5 7.46737e-17 0)
(-0.5 8.10151e-17 0)
(-0.5 8.20397e-17 0)
(-0.5 -4.27976e-17 0)
(-0.5 -4.58253e-17 0)
(-0.5 2.13379e-17 0)
(-0.5 3.10675e-17 0)
(-0.5 -7.81773e-18 0)
(-0.5 -5.1084e-17 0)
(-0.5 -4.86037e-14 0)
(-0.5 1.08531e-14 0)
(-0.5 -2.23179e-15 0)
(-0.5 7.46534e-16 0)
(-0.5 -4.33451e-17 0)
(-0.5 -4.51993e-17 0)
(-0.5 -1.6625e-16 0)
(-0.5 -1.70171e-16 0)
(-0.5 -1.57126e-16 0)
(-0.5 -1.00916e-16 0)
(-0.5 -4.56695e-18 0)
(-0.5 5.71239e-17 0)
(-0.5 9.57196e-17 0)
(-0.5 1.2507e-16 0)
(-0.5 4.02947e-17 0)
(-0.5 -1.97956e-17 0)
(-0.5 -1.34383e-17 0)
(-0.5 -2.99119e-17 0)
(-0.5 -7.52091e-17 0)
(-0.5 -7.04398e-17 0)
(-0.5 2.69595e-14 0)
(-0.5 -5.924e-15 0)
(-0.5 1.44984e-15 0)
(-0.5 -2.82041e-16 0)
(-0.5 9.7842e-17 0)
(-0.5 -1.3922e-17 0)
(-0.5 -4.76297e-17 0)
(-0.5 -7.07944e-17 0)
(-0.5 -3.33097e-17 0)
(-0.5 2.04016e-17 0)
(-0.5 6.22395e-17 0)
(-0.5 1.10174e-16 0)
(-0.5 1.00543e-16 0)
(-0.5 8.53251e-17 0)
(-0.5 6.33368e-17 0)
(-0.5 1.03768e-17 0)
(-0.5 -3.71136e-17 0)
(-0.5 -5.86504e-17 0)
(-0.5 -5.40901e-17 0)
(-0.5 -2.93672e-17 0)
(-0.5 -2.98423e-15 0)
(-0.5 5.33898e-16 0)
(-0.5 -2.65665e-16 0)
(-0.5 -3.77953e-17 0)
(-0.5 -2.61188e-17 0)
(-0.5 -9.6206e-18 0)
(-0.5 -3.95059e-17 0)
(-0.5 -2.56357e-17 0)
(-0.5 2.55655e-17 0)
(-0.5 5.71885e-17 0)
(-0.5 2.67399e-17 0)
(-0.5 2.62469e-17 0)
(-0.5 4.96319e-17 0)
(-0.5 3.49393e-18 0)
(-0.5 -4.99298e-18 0)
(-0.5 4.74974e-18 0)
(-0.5 -9.88427e-18 0)
(-0.5 -2.37753e-17 0)
(-0.5 -1.86368e-17 0)
(-0.5 -6.02633e-18 0)
(-0.5 -1.13106e-14 0)
(-0.5 2.31036e-15 0)
(-0.5 -5.42904e-16 0)
(-0.5 1.35621e-16 0)
(-0.5 3.77989e-17 0)
(-0.5 8.02706e-17 0)
(-0.5 6.21981e-17 0)
(-0.5 1.7632e-17 0)
(-0.5 -5.75166e-17 0)
(-0.5 -6.74376e-17 0)
(-0.5 -5.25619e-17 0)
(-0.5 -4.28385e-17 0)
(-0.5 1.8324e-17 0)
(-0.5 2.65817e-17 0)
(-0.5 1.84053e-17 0)
(-0.5 4.97924e-17 0)
(-0.5 2.20421e-17 0)
(-0.5 -1.45078e-17 0)
(-0.5 -7.32248e-18 0)
(-0.5 2.28879e-17 0)
(-0.5 1.36136e-14 0)
(-0.5 -2.71519e-15 0)
(-0.5 5.95311e-16 0)
(-0.5 -1.26993e-16 0)
(-0.5 3.68448e-17 0)
(-0.5 3.79357e-17 0)
(-0.5 1.17426e-16 0)
(-0.5 7.95025e-17 0)
(-0.5 -2.26675e-18 0)
(-0.5 -2.50525e-17 0)
(-0.5 -1.43766e-18 0)
(-0.5 1.0686e-17 0)
(-0.5 3.76096e-17 0)
(-0.5 5.27287e-17 0)
(-0.5 1.46985e-17 0)
(-0.5 1.48629e-17 0)
(-0.5 7.48151e-17 0)
(-0.5 8.86223e-17 0)
(-0.5 6.07974e-17 0)
(-0.5 5.3417e-17 0)
(-0.5 -2.75514e-15 0)
(-0.5 8.33807e-16 0)
(-0.5 -1.52227e-16 0)
(-0.5 7.62673e-17 0)
(-0.5 -1.45995e-18 0)
(-0.5 3.72204e-17 0)
(-0.5 4.4743e-17 0)
(-0.5 7.12291e-18 0)
(-0.5 1.19722e-17 0)
(-0.5 -7.56406e-18 0)
(-0.5 -3.41084e-17 0)
(-0.5 -5.67243e-17 0)
(-0.5 -5.62417e-17 0)
(-0.5 -2.93317e-17 0)
(-0.5 -1.83397e-17 0)
(-0.5 4.95974e-18 0)
(-0.5 6.79377e-17 0)
(-0.5 8.16623e-17 0)
(-0.5 6.90059e-17 0)
(-0.5 4.22838e-17 0)
(-0.5 -6.95704e-15 0)
(-0.5 1.38923e-15 0)
(-0.5 -2.61989e-16 0)
(-0.5 6.2379e-17 0)
(-0.5 -1.77533e-17 0)
(-0.5 4.44462e-18 0)
(-0.5 -9.23803e-18 0)
(-0.5 -3.02324e-17 0)
(-0.5 2.70957e-18 0)
(-0.5 1.09885e-17 0)
(-0.5 6.16752e-18 0)
(-0.5 -4.54754e-17 0)
(-0.5 -5.57949e-17 0)
(-0.5 -4.42146e-18 0)
(-0.5 5.74074e-17 0)
(-0.5 3.60179e-17 0)
(-0.5 -1.13299e-17 0)
(-0.5 4.02329e-18 0)
(-0.5 8.24922e-17 0)
(-0.5 4.29699e-17 0)
(-0.5 6.17442e-15 0)
(-0.5 -1.18017e-15 0)
(-0.5 3.22407e-16 0)
(-0.5 -6.26095e-17 0)
(-0.5 -5.28693e-18 0)
(-0.5 -2.34826e-17 0)
(-0.5 -2.10846e-17 0)
(-0.5 1.80566e-17 0)
(-0.5 2.3944e-17 0)
(-0.5 5.40942e-18 0)
(-0.5 3.75624e-17 0)
(-0.5 4.5259e-17 0)
(-0.5 2.14815e-17 0)
(-0.5 1.12674e-17 0)
(-0.5 6.39774e-17 0)
(-0.5 2.218e-17 0)
(-0.5 -3.165e-17 0)
(-0.5 -7.76825e-18 0)
(-0.5 3.16213e-17 0)
(-0.5 3.12047e-17 0)
(-0.5 -3.29058e-15 0)
(-0.5 1.63008e-16 0)
(-0.5 -3.01498e-17 0)
(-0.5 -3.01055e-17 0)
(-0.5 1.90469e-18 0)
(-0.5 -2.21011e-17 0)
(-0.5 -4.08097e-19 0)
(-0.5 8.44822e-17 0)
(-0.5 8.45573e-17 0)
(-0.5 6.43276e-17 0)
(-0.5 4.56556e-17 0)
(-0.5 6.82988e-17 0)
(-0.5 -1.1264e-17 0)
(-0.5 -2.0559e-17 0)
(-0.5 4.99305e-17 0)
(-0.5 5.34695e-17 0)
(-0.5 3.1217e-17 0)
(-0.5 1.31108e-17 0)
(-0.5 -1.07961e-17 0)
(-0.5 1.38419e-17 0)
(-0.5 -1.51014e-15 0)
(-0.5 7.24186e-16 0)
(-0.5 -1.09054e-16 0)
(-0.5 6.30945e-17 0)
(-0.5 -4.16988e-18 0)
(-0.5 -2.32736e-18 0)
(-0.5 1.76752e-17 0)
(-0.5 6.71513e-17 0)
(-0.5 8.80293e-17 0)
(-0.5 7.90608e-17 0)
(-0.5 5.69052e-17 0)
(-0.5 4.7826e-17 0)
(-0.5 1.97201e-17 0)
(-0.5 2.657e-17 0)
(-0.5 1.29172e-17 0)
(-0.5 -1.72201e-17 0)
(-0.5 1.08232e-17 0)
(-0.5 3.05965e-17 0)
(-0.5 6.60743e-17 0)
(-0.5 2.0272e-17 0)
(-0.5 8.07719e-15 0)
(-0.5 -1.37863e-15 0)
(-0.5 3.36563e-16 0)
(-0.5 -7.41657e-17 0)
(-0.5 -2.32167e-17 0)
(-0.5 -1.55051e-17 0)
(-0.5 5.41637e-17 0)
(-0.5 3.0385e-17 0)
(-0.5 -1.53669e-17 0)
(-0.5 2.96453e-18 0)
(-0.5 1.90474e-17 0)
(-0.5 -9.57029e-19 0)
(-0.5 -1.22948e-17 0)
(-0.5 -7.96375e-17 0)
(-0.5 -1.10901e-16 0)
(-0.5 -5.77589e-17 0)
(-0.5 -1.31976e-17 0)
(-0.5 -2.39842e-17 0)
(-0.5 -3.21661e-17 0)
(-0.5 -1.44423e-17 0)
(-0.5 -1.34896e-14 0)
(-0.5 2.59927e-15 0)
(-0.5 -5.95965e-16 0)
(-0.5 1.44975e-16 0)
(-0.5 1.64251e-17 0)
(-0.5 3.43382e-17 0)
(-0.5 5.51245e-17 0)
(-0.5 6.30646e-17 0)
(-0.5 2.30556e-17 0)
(-0.5 3.35914e-17 0)
(-0.5 2.63009e-17 0)
(-0.5 1.78963e-17 0)
(-0.5 -2.16135e-17 0)
(-0.5 -1.07315e-16 0)
(-0.5 -9.27122e-17 0)
(-0.5 3.82563e-17 0)
(-0.5 5.04215e-17 0)
(-0.5 -1.26989e-17 0)
(-0.5 -6.90524e-17 0)
(-0.5 -1.89586e-17 0)
(-0.5 1.37711e-14 0)
(-0.5 -2.92933e-15 0)
(-0.5 6.68213e-16 0)
(-0.5 -1.2709e-16 0)
(-0.5 8.82082e-17 0)
(-0.5 1.06976e-16 0)
(-0.5 7.96666e-17 0)
(-0.5 2.86367e-17 0)
(-0.5 5.01547e-17 0)
(-0.5 2.27992e-17 0)
(-0.5 -2.3981e-17 0)
(-0.5 -1.64004e-17 0)
(-0.5 -2.35797e-18 0)
(-0.5 -1.84536e-17 0)
(-0.5 -5.48989e-18 0)
(-0.5 1.13939e-17 0)
(-0.5 2.31828e-17 0)
(-0.5 2.55533e-17 0)
(-0.5 1.95812e-18 0)
(-0.5 -1.43537e-18 0)
(-0.5 -1.10501e-14 0)
(-0.5 2.60088e-15 0)
(-0.5 -5.50622e-16 0)
(-0.5 1.64143e-16 0)
(-0.5 3.64663e-17 0)
(-0.5 1.12435e-16 0)
(-0.5 6.14421e-17 0)
(-0.5 -4.62258e-17 0)
(-0.5 -4.0202e-17 0)
(-0.5 -3.57559e-17 0)
(-0.5 -7.90765e-17 0)
(-0.5 -9.74771e-17 0)
(-0.5 -3.1322e-17 0)
(-0.5 4.04499e-17 0)
(-0.5 2.56437e-17 0)
(-0.5 -2.73458e-17 0)
(-0.5 -3.7302e-17 0)
(-0.5 -2.22498e-17 0)
(-0.5 -3.50304e-17 0)
(-0.5 -9.40823e-18 0)
(-0.5 2.55573e-15 0)
(-0.5 -6.90957e-16 0)
(-0.5 2.18561e-16 0)
(-0.5 -1.66077e-17 0)
(-0.5 5.13423e-17 0)
(-0.5 -2.12207e-18 0)
(-0.5 -4.48162e-17 0)
(-0.5 -2.47578e-17 0)
(-0.5 5.6109e-18 0)
(-0.5 4.34849e-17 0)
(-0.5 -9.03181e-18 0)
(-0.5 -5.18958e-17 0)
(-0.5 -5.22935e-17 0)
(-0.5 1.39989e-17 0)
(-0.5 1.31866e-17 0)
(-0.5 -3.14145e-17 0)
(-0.5 -7.8288e-17 0)
(-0.5 -4.41039e-17 0)
(-0.5 -6.29794e-18 0)
(-0.5 1.67392e-17 0)
(-0.5 1.14865e-14 0)
(-0.5 -2.42711e-15 0)
(-0.5 4.57624e-16 0)
(-0.5 -1.16629e-16 0)
(-0.5 6.41403e-17 0)
(-0.5 2.04179e-17 0)
(-0.5 1.08467e-18 0)
(-0.5 -1.8323e-17 0)
(-0.5 -4.22491e-17 0)
(-0.5 -8.03891e-18 0)
(-0.5 8.87954e-19 0)
(-0.5 -7.82496e-18 0)
(-0.5 -3.21557e-17 0)
(-0.5 -1.39555e-17 0)
(-0.5 2.71357e-17 0)
(-0.5 2.70191e-17 0)
(-0.5 -8.19427e-18 0)
(-0.5 -6.44833e-18 0)
(-0.5 2.35752e-17 0)
(-0.5 3.60686e-17 0)
(-0.5 -1.87959e-15 0)
(-0.5 2.99272e-17 0)
(-0.5 -1.11919e-16 0)
(-0.5 -3.66796e-17 0)
(-0.5 -1.05781e-17 0)
(-0.5 -1.13822e-17 0)
(-0.5 -1.4025e-17 0)
(-0.5 -6.44509e-17 0)
(-0.5 -6.86023e-17 0)
(-0.5 -5.20409e-17 0)
(-0.5 -3.43687e-17 0)
(-0.5 -4.55689e-17 0)
(-0.5 -1.56564e-17 0)
(-0.5 -2.21178e-17 0)
(-0.5 -3.56723e-17 0)
(-0.5 3.00829e-18 0)
(-0.5 2.66148e-17 0)
(-0.5 -2.07415e-17 0)
(-0.5 -4.69469e-17 0)
(-0.5 -2.14923e-17 0)
(-0.5 -2.64882e-14 0)
(-0.5 5.39485e-15 0)
(-0.5 -1.314e-15 0)
(-0.5 1.96162e-16 0)
(-0.5 -1.40342e-16 0)
(-0.5 -5.68959e-17 0)
(-0.5 -5.51498e-17 0)
(-0.5 -3.49585e-17 0)
(-0.5 2.04909e-17 0)
(-0.5 1.44144e-17 0)
(-0.5 -2.52137e-17 0)
(-0.5 -4.02753e-17 0)
(-0.5 -6.6614e-18 0)
(-0.5 -1.32128e-17 0)
(-0.5 -4.20548e-17 0)
(-0.5 -3.6787e-17 0)
(-0.5 -1.42518e-17 0)
(-0.5 -2.88301e-17 0)
(-0.5 -4.83997e-17 0)
(-0.5 -2.91201e-17 0)
)
;

boundaryField
{
    movingWall
    {
        type            calculated;
        value           uniform (-0.5 -0 -0);
    }
    fixedWalls
    {
        type            calculated;
        value           uniform (-0.5 -0 -0);
    }
    frontAndBack
    {
        type            empty;
    }
}


// ************************************************************************* //
