/*--------------------------------*- C++ -*----------------------------------*\
| =========                 |                                                 |
| \\      /  F ield         | OpenFOAM: The Open Source CFD Toolbox           |
|  \\    /   O peration     | Version:  2506                                  |
|   \\  /    A nd           | Website:  www.openfoam.com                      |
|    \\/     M anipulation  |                                                 |
\*---------------------------------------------------------------------------*/
FoamFile
{
    version     2.0;
    format      ascii;
    arch        "LSB;label=32;scalar=64";
    class       volScalarField;
    location    "5.5";
    object      P_A;
}
// * * * * * * * * * * * * * * * * * * * * * * * * * * * * * * * * * * * * * //

dimensions      [1 -1 -3 0 0 0 0];

internalField   nonuniform List<scalar> 
400
(
2.95743e-31
2.95742e-31
2.95737e-31
2.9574e-31
2.95734e-31
2.95738e-31
2.95732e-31
2.95735e-31
2.95731e-31
2.95732e-31
2.95731e-31
2.95731e-31
2.9573e-31
2.9573e-31
2.9573e-31
2.95729e-31
2.95729e-31
2.95729e-31
2.95729e-31
2.95729e-31
3.83928e-31
3.76121e-31
3.7667e-31
3.76906e-31
3.77377e-31
3.77622e-31
3.78107e-31
3.78363e-31
3.78859e-31
3.7913e-31
3.79633e-31
3.79919e-31
3.8043e-31
3.80733e-31
3.81251e-31
3.81571e-31
3.82096e-31
3.82432e-31
3.82698e-31
3.83138e-31
5.35318e-31
5.238e-31
5.24613e-31
5.24966e-31
5.25663e-31
5.26026e-31
5.26745e-31
5.27123e-31
5.27852e-31
5.28252e-31
5.28988e-31
5.2941e-31
5.30158e-31
5.30599e-31
5.3136e-31
5.31821e-31
5.32593e-31
5.33075e-31
5.33464e-31
5.34103e-31
7.01603e-31
6.85949e-31
6.87035e-31
6.87524e-31
6.88455e-31
6.88959e-31
6.89905e-31
6.90442e-31
6.91404e-31
6.91966e-31
6.92952e-31
6.93532e-31
6.94538e-31
6.95143e-31
6.96167e-31
6.96801e-31
6.97841e-31
6.98503e-31
6.99027e-31
6.99897e-31
8.3976e-31
8.20536e-31
8.21874e-31
8.22456e-31
8.23612e-31
8.24207e-31
8.25388e-31
8.26019e-31
8.2722e-31
8.27891e-31
8.29102e-31
8.29811e-31
8.31044e-31
8.31786e-31
8.33043e-31
8.33818e-31
8.35097e-31
8.35906e-31
8.36551e-31
8.37618e-31
9.35543e-31
9.13801e-31
9.15304e-31
9.15962e-31
9.17258e-31
9.17936e-31
9.19269e-31
9.19983e-31
9.2133e-31
9.22092e-31
9.23464e-31
9.24257e-31
9.25658e-31
9.2649e-31
9.27912e-31
9.28788e-31
9.30234e-31
9.31149e-31
9.31879e-31
9.33086e-31
9.95807e-31
9.7247e-31
9.74062e-31
9.7479e-31
9.76166e-31
9.76905e-31
9.78312e-31
9.79097e-31
9.80533e-31
9.81345e-31
9.82829e-31
9.83663e-31
9.85186e-31
9.86063e-31
9.87604e-31
9.88531e-31
9.90091e-31
9.91069e-31
9.91853e-31
9.93149e-31
1.03313e-30
1.00878e-30
1.01046e-30
1.0112e-30
1.01263e-30
1.01341e-30
1.01487e-30
1.01569e-30
1.01718e-30
1.01805e-30
1.01956e-30
1.02047e-30
1.02201e-30
1.02297e-30
1.02454e-30
1.02553e-30
1.02714e-30
1.02817e-30
1.02898e-30
1.03034e-30
1.0578e-30
1.03278e-30
1.03452e-30
1.03526e-30
1.03675e-30
1.03752e-30
1.03905e-30
1.03987e-30
1.04141e-30
1.04229e-30
1.04386e-30
1.04478e-30
1.04638e-30
1.04734e-30
1.04897e-30
1.04998e-30
1.05164e-30
1.05269e-30
1.05353e-30
1.05492e-30
1.07639e-30
1.05089e-30
1.05265e-30
1.05341e-30
1.05492e-30
1.05573e-30
1.05725e-30
1.05812e-30
1.05968e-30
1.06057e-30
1.06218e-30
1.0631e-30
1.06476e-30
1.06571e-30
1.0674e-30
1.06841e-30
1.07011e-30
1.07118e-30
1.07204e-30
1.07345e-30
1.09268e-30
1.06675e-30
1.06852e-30
1.06932e-30
1.07083e-30
1.07167e-30
1.0732e-30
1.07409e-30
1.07568e-30
1.07659e-30
1.07823e-30
1.07916e-30
1.08084e-30
1.08182e-30
1.08353e-30
1.08456e-30
1.08629e-30
1.08738e-30
1.08825e-30
1.08969e-30
1.10878e-30
1.0824e-30
1.08422e-30
1.08501e-30
1.08657e-30
1.08739e-30
1.08901e-30
1.08986e-30
1.0915e-30
1.09241e-30
1.09407e-30
1.09503e-30
1.09673e-30
1.09773e-30
1.09946e-30
1.10052e-30
1.10227e-30
1.10338e-30
1.10426e-30
1.10573e-30
1.12596e-30
1.09912e-30
1.10098e-30
1.10177e-30
1.10338e-30
1.10419e-30
1.10584e-30
1.10671e-30
1.10838e-30
1.10929e-30
1.111e-30
1.11197e-30
1.11369e-30
1.11472e-30
1.11647e-30
1.11755e-30
1.11933e-30
1.12046e-30
1.12136e-30
1.12285e-30
1.14512e-30
1.11778e-30
1.11964e-30
1.12048e-30
1.12209e-30
1.12295e-30
1.12459e-30
1.12551e-30
1.12718e-30
1.12815e-30
1.12986e-30
1.13085e-30
1.13262e-30
1.13365e-30
1.13545e-30
1.13654e-30
1.13836e-30
1.13951e-30
1.14043e-30
1.14194e-30
1.16696e-30
1.13902e-30
1.14097e-30
1.14178e-30
1.14346e-30
1.14431e-30
1.14601e-30
1.14692e-30
1.14866e-30
1.14961e-30
1.15138e-30
1.15239e-30
1.15419e-30
1.15525e-30
1.15708e-30
1.1582e-30
1.16006e-30
1.16123e-30
1.16217e-30
1.16372e-30
1.19191e-30
1.16331e-30
1.16526e-30
1.16614e-30
1.16781e-30
1.16872e-30
1.17042e-30
1.17139e-30
1.17313e-30
1.17414e-30
1.17594e-30
1.17697e-30
1.17883e-30
1.1799e-30
1.18179e-30
1.18292e-30
1.18483e-30
1.18603e-30
1.18699e-30
1.18857e-30
1.21955e-30
1.19019e-30
1.1922e-30
1.19308e-30
1.19483e-30
1.19572e-30
1.19751e-30
1.19846e-30
1.20028e-30
1.20129e-30
1.20314e-30
1.20421e-30
1.20609e-30
1.20721e-30
1.20913e-30
1.21031e-30
1.21226e-30
1.21349e-30
1.21448e-30
1.21611e-30
1.2477e-30
1.2176e-30
1.21963e-30
1.22057e-30
1.22233e-30
1.22327e-30
1.22508e-30
1.22608e-30
1.22793e-30
1.22896e-30
1.23088e-30
1.23195e-30
1.23391e-30
1.23504e-30
1.23702e-30
1.23821e-30
1.24022e-30
1.24148e-30
1.24249e-30
1.24417e-30
1.27176e-30
1.24165e-30
1.24366e-30
1.24456e-30
1.24629e-30
1.24724e-30
1.24901e-30
1.25003e-30
1.25184e-30
1.25293e-30
1.25477e-30
1.25592e-30
1.25781e-30
1.25902e-30
1.26095e-30
1.26223e-30
1.26421e-30
1.26554e-30
1.26655e-30
1.26825e-30
1.28253e-30
1.28252e-30
1.28251e-30
1.2825e-30
1.2825e-30
1.28249e-30
1.28249e-30
1.28249e-30
1.28248e-30
1.28248e-30
1.28247e-30
1.28248e-30
1.28247e-30
1.28247e-30
1.28247e-30
1.28247e-30
1.28247e-30
1.28247e-30
1.28247e-30
1.28247e-30
)
;

boundaryField
{
    movingWall
    {
        type            calculated;
        value           nonuniform List<scalar> 
20
(
1.28253e-30
1.28252e-30
1.28251e-30
1.2825e-30
1.2825e-30
1.28249e-30
1.28249e-30
1.28249e-30
1.28248e-30
1.28248e-30
1.28247e-30
1.28248e-30
1.28247e-30
1.28247e-30
1.28247e-30
1.28247e-30
1.28247e-30
1.28247e-30
1.28247e-30
1.28247e-30
)
;
    }
    fixedWalls
    {
        type            calculated;
        value           nonuniform List<scalar> 
60
(
2.95743e-31
3.83928e-31
5.35318e-31
7.01603e-31
8.3976e-31
9.35543e-31
9.95807e-31
1.03313e-30
1.0578e-30
1.07639e-30
1.09268e-30
1.10878e-30
1.12596e-30
1.14512e-30
1.16696e-30
1.19191e-30
1.21955e-30
1.2477e-30
1.27176e-30
1.28253e-30
2.95729e-31
3.83138e-31
5.34103e-31
6.99897e-31
8.37618e-31
9.33086e-31
9.93149e-31
1.03034e-30
1.05492e-30
1.07345e-30
1.08969e-30
1.10573e-30
1.12285e-30
1.14194e-30
1.16372e-30
1.18857e-30
1.21611e-30
1.24417e-30
1.26825e-30
1.28247e-30
2.95743e-31
2.95742e-31
2.95737e-31
2.9574e-31
2.95734e-31
2.95738e-31
2.95732e-31
2.95735e-31
2.95731e-31
2.95732e-31
2.95731e-31
2.95731e-31
2.9573e-31
2.9573e-31
2.9573e-31
2.95729e-31
2.95729e-31
2.95729e-31
2.95729e-31
2.95729e-31
)
;
    }
    frontAndBack
    {
        type            empty;
    }
}


// ************************************************************************* //
