/*--------------------------------*- C++ -*----------------------------------*\
| =========                 |                                                 |
| \\      /  F ield         | OpenFOAM: The Open Source CFD Toolbox           |
|  \\    /   O peration     | Version:  2506                                  |
|   \\  /    A nd           | Website:  www.openfoam.com                      |
|    \\/     M anipulation  |                                                 |
\*---------------------------------------------------------------------------*/
FoamFile
{
    version     2.0;
    format      ascii;
    arch        "LSB;label=32;scalar=64";
    class       surfaceScalarField;
    location    "5.5";
    object      PecletNoField;
}
// * * * * * * * * * * * * * * * * * * * * * * * * * * * * * * * * * * * * * //

dimensions      [0 0 0 0 0 0 0];

oriented        oriented;

internalField   nonuniform List<scalar> 
760
(
421.694
2.51736e-12
421.694
3.61715e-12
421.694
1.12722e-12
421.694
1.35728e-13
421.694
3.3215e-14
421.694
8.71217e-16
421.694
4.19521e-15
421.694
9.67787e-15
421.694
3.9086e-14
421.694
2.03073e-15
421.694
2.27436e-14
421.694
3.24274e-14
421.694
5.78601e-14
421.694
8.09447e-14
421.694
2.6788e-14
421.694
1.4091e-14
421.694
7.74435e-15
421.694
7.97433e-15
421.694
2.27094e-15
2.99893e-15
418.838
1.28244e-12
418.204
1.92321e-12
418.295
4.14008e-13
418.373
2.24462e-13
418.453
1.44711e-14
418.531
8.8096e-14
418.61
1.06489e-13
418.689
9.01151e-14
418.768
1.21703e-13
418.846
5.58292e-14
418.925
4.34369e-14
419.004
6.41191e-14
419.083
5.7647e-14
419.161
8.35647e-14
419.24
1.51846e-14
419.319
3.46338e-14
419.397
2.08388e-14
419.452
1.21338e-14
419.515
2.54467e-14
8.46567e-14
415.954
1.38777e-12
415.265
1.65276e-12
415.366
2.67552e-13
415.453
1.71886e-13
415.54
4.56187e-14
415.626
1.32268e-14
415.713
6.78074e-14
415.799
8.89605e-14
415.885
6.02442e-14
415.971
5.38834e-14
416.057
1.66441e-14
416.142
5.74234e-14
416.228
1.11388e-13
416.312
9.94681e-14
416.398
4.0042e-14
416.482
9.83546e-15
416.567
2.55055e-14
416.625
3.81894e-14
416.693
7.33342e-14
3.86409e-14
413.548
1.08666e-12
412.818
1.31113e-12
412.924
4.35114e-13
413.017
9.61115e-14
413.109
1.67051e-14
413.201
4.05032e-14
413.293
4.47016e-14
413.385
5.65455e-14
413.476
1.49334e-14
413.567
6.2146e-14
413.658
6.67457e-14
413.749
8.96354e-14
413.84
4.66703e-14
413.93
1.89942e-14
414.02
2.42119e-14
414.109
2.10761e-15
414.199
3.02441e-14
414.261
3.82349e-14
414.333
7.57004e-15
1.41069e-14
411.916
2.15643e-13
411.156
2.30568e-13
411.266
2.83659e-13
411.363
1.31257e-14
411.459
4.83276e-14
411.555
6.21484e-14
411.651
2.21359e-15
411.746
1.56301e-14
411.841
1.10435e-15
411.936
6.06658e-15
412.031
2.28172e-14
412.125
5.01084e-14
412.22
2.88166e-14
412.314
1.97172e-14
412.408
9.53476e-15
412.501
3.31389e-14
412.594
1.77716e-14
412.659
1.19607e-14
412.734
2.36282e-14
3.01545e-15
410.922
4.87923e-13
410.143
3.93707e-13
410.257
1.96071e-14
410.355
4.82401e-14
410.454
2.69322e-15
410.552
2.11358e-14
410.651
7.42253e-14
410.748
8.36681e-14
410.846
4.10793e-14
410.943
5.53817e-14
411.04
1.35535e-14
411.137
2.85008e-14
411.234
3.95164e-14
411.33
3.07818e-14
411.426
5.04837e-15
411.522
2.20139e-14
411.617
3.65134e-14
411.684
2.18655e-14
411.76
2.07021e-14
2.82722e-14
410.343
6.08727e-13
409.554
9.13269e-13
409.669
2.09308e-13
409.768
4.48054e-14
409.869
4.54357e-14
409.968
4.20581e-14
410.068
7.77648e-14
410.167
1.38786e-14
410.266
2.00879e-14
410.364
1.54846e-14
410.463
2.51756e-14
410.561
4.55615e-14
410.659
2.61646e-14
410.757
1.78665e-14
410.854
2.10351e-14
410.951
1.57804e-15
411.048
5.08673e-14
411.116
8.79114e-14
411.193
5.66738e-14
7.10878e-14
410
8.5809e-13
409.204
1.05542e-12
409.32
2.1157e-13
409.421
7.80756e-14
409.523
3.52534e-14
409.623
2.0483e-14
409.723
2.27639e-14
409.823
3.91125e-15
409.923
7.64683e-15
410.022
2.06594e-14
410.122
3.14921e-15
410.221
3.45438e-14
410.32
4.87715e-14
410.418
2.48068e-14
410.516
6.15763e-15
410.614
9.35486e-15
410.712
4.10837e-14
410.779
3.25481e-14
410.858
6.0405e-14
2.45723e-16
409.78
2.94372e-13
408.98
3.66547e-13
409.097
7.62905e-14
409.198
2.86261e-14
409.3
4.094e-15
409.401
2.20448e-14
409.502
2.79209e-14
409.602
3.51826e-14
409.703
1.91264e-14
409.802
6.28509e-15
409.903
3.29024e-14
410.002
7.7074e-15
410.101
1.88003e-14
410.2
2.18041e-15
410.299
6.19498e-14
410.397
3.92329e-14
410.496
3.00602e-14
410.563
2.0727e-14
410.642
6.32942e-14
7.047e-14
409.617
6.28754e-13
408.814
4.16662e-13
408.932
7.53843e-14
409.034
3.88e-15
409.136
2.67899e-14
409.237
5.68102e-15
409.339
4.57213e-15
409.439
8.31179e-14
409.54
4.59927e-14
409.64
2.26864e-14
409.74
1.47868e-14
409.84
5.33238e-14
409.94
2.76018e-14
410.039
6.12793e-15
410.138
4.67644e-14
410.237
2.82393e-14
410.335
9.65311e-15
410.404
9.02922e-15
410.483
9.17138e-15
2.02859e-14
409.477
6.50472e-13
408.672
9.32254e-13
408.789
1.42195e-14
408.892
6.07571e-14
408.994
4.92257e-14
409.095
1.3108e-14
409.197
4.95574e-15
409.298
4.06555e-14
409.399
6.56283e-14
409.499
5.26297e-14
409.601
2.95727e-14
409.7
4.85979e-14
409.8
9.21323e-15
409.9
1.899e-14
410
3.67447e-14
410.098
2.52736e-14
410.197
3.60675e-14
410.266
3.55241e-14
410.345
2.23282e-14
3.68606e-14
409.34
1.34369e-12
408.533
1.24976e-12
408.651
4.87492e-14
408.753
9.30134e-14
408.856
5.16485e-14
408.957
9.52536e-15
409.06
3.29847e-14
409.161
4.07611e-14
409.262
5.02261e-14
409.363
4.54919e-14
409.464
5.38534e-14
409.564
2.14578e-14
409.665
1.4909e-14
409.765
4.7371e-14
409.865
4.05945e-14
409.964
5.35388e-14
410.063
2.36902e-14
410.132
3.28844e-14
410.211
2.82884e-14
1.38144e-14
409.197
1.00546e-12
408.386
7.00775e-13
408.504
5.95543e-14
408.607
5.98555e-14
408.71
8.61359e-15
408.812
4.10235e-16
408.915
7.06561e-14
409.016
3.80931e-14
409.118
3.69536e-14
409.219
2.45392e-15
409.321
2.00425e-14
409.421
9.05228e-16
409.522
3.46132e-15
409.622
5.16201e-14
409.722
9.34913e-14
409.822
2.37976e-16
409.922
2.93727e-14
409.991
2.36458e-14
410.07
5.73843e-14
4.82752e-14
409.039
6.38781e-13
408.225
4.77675e-13
408.344
2.15472e-14
408.447
6.64362e-14
408.551
5.26746e-14
408.653
6.78179e-14
408.756
1.11755e-14
408.858
5.0441e-14
408.96
6.33246e-14
409.061
3.2126e-14
409.164
2.90066e-15
409.264
1.16474e-14
409.365
2.37797e-15
409.466
6.29092e-14
409.566
6.4046e-14
409.666
2.76111e-14
409.766
4.33208e-14
409.835
1.83558e-14
409.916
1.63255e-14
5.82852e-15
408.862
2.31334e-13
408.045
3.08992e-13
408.164
9.30848e-14
408.268
2.18422e-14
408.371
2.07517e-14
408.474
8.94814e-14
408.578
1.01225e-13
408.68
1.25629e-14
408.783
7.2871e-16
408.884
1.28903e-14
408.987
6.20145e-14
409.088
5.68064e-14
409.189
1.2808e-14
409.29
1.91025e-15
409.391
2.77075e-14
409.491
1.98535e-14
409.592
2.36758e-14
409.661
9.15651e-15
409.742
2.44795e-14
9.12622e-15
408.663
5.03461e-13
407.843
8.06148e-13
407.962
1.61579e-13
408.066
9.57339e-14
408.171
6.76167e-14
408.274
4.37721e-14
408.378
1.22085e-14
408.481
3.52973e-14
408.584
2.52744e-14
408.686
4.94944e-15
408.789
1.80321e-14
408.89
6.0594e-14
408.992
5.45238e-14
409.094
3.32828e-14
409.195
1.93286e-14
409.296
1.33648e-14
409.397
3.91086e-14
409.466
2.07987e-14
409.547
1.31005e-14
2.94666e-14
408.448
1.35256e-12
407.624
1.44267e-12
407.744
2.98583e-13
407.848
8.36516e-14
407.953
4.42595e-14
408.057
2.02593e-15
408.161
3.40666e-14
408.265
3.02865e-14
408.368
1.00733e-14
408.471
3.62114e-14
408.574
1.12653e-14
408.676
1.75928e-14
408.779
2.96112e-14
408.88
3.02271e-15
408.982
3.20344e-14
409.083
9.26829e-16
409.185
4.42855e-14
409.255
3.8077e-14
409.336
6.58647e-15
5.01821e-14
408.233
4.77133e-13
407.406
3.98552e-13
407.526
1.12364e-13
407.631
1.77563e-14
407.737
1.47483e-14
407.841
6.47535e-15
407.946
1.06867e-14
408.049
3.67181e-15
408.154
4.61781e-14
408.256
5.06974e-14
408.36
3.94757e-14
408.463
1.90817e-14
408.566
1.41698e-14
408.668
2.96303e-14
408.77
2.77891e-14
408.872
9.95135e-15
408.974
1.41599e-14
409.044
1.15929e-16
409.125
2.25668e-15
1.73493e-14
408.072
5.74737e-13
407.257
1.52429e-12
407.374
5.65343e-13
407.475
9.35021e-16
407.578
6.74275e-14
407.679
1.56773e-14
407.781
1.1512e-14
407.882
5.73964e-14
407.984
2.35783e-14
408.086
1.33501e-14
408.188
1.85634e-14
408.289
5.38605e-14
408.391
1.38063e-14
408.492
1.49467e-15
408.594
2.16972e-14
408.695
1.88561e-14
408.797
3.50149e-15
408.867
1.78121e-14
408.948
5.18191e-14
5.68729e-14
408.895
408.895
408.896
408.896
408.896
408.896
408.896
408.896
408.896
408.896
408.896
408.896
408.896
408.896
408.896
408.896
408.896
408.896
408.896
)
;

boundaryField
{
    movingWall
    {
        type            calculated;
        value           uniform 0;
    }
    fixedWalls
    {
        type            calculated;
        value           nonuniform List<scalar> 
60
(
250
250
250
250
250
250
250
250
250
250
250
250
250
250
250
250
250
250
250
250
250
250
250
250
250
250
250
250
250
250
250
250
250
250
250
250
250
250
250
250
0
0
0
0
0
0
0
0
0
0
0
0
0
0
0
0
0
0
0
0
)
;
    }
    frontAndBack
    {
        type            empty;
    }
}


// ************************************************************************* //
