/*--------------------------------*- C++ -*----------------------------------*\
| =========                 |                                                 |
| \\      /  F ield         | OpenFOAM: The Open Source CFD Toolbox           |
|  \\    /   O peration     | Version:  2506                                  |
|   \\  /    A nd           | Website:  www.openfoam.com                      |
|    \\/     M anipulation  |                                                 |
\*---------------------------------------------------------------------------*/
FoamFile
{
    version     2.0;
    format      ascii;
    arch        "LSB;label=32;scalar=64";
    class       surfaceScalarField;
    location    "5.5";
    object      phi;
}
// * * * * * * * * * * * * * * * * * * * * * * * * * * * * * * * * * * * * * //

dimensions      [0 3 -1 0 0 0 0];

oriented        oriented;

internalField   nonuniform List<scalar> 
760
(
-5e-05
2.99249e-19
-5e-05
-4.30705e-19
-5e-05
1.34201e-19
-5e-05
-1.61581e-20
-5e-05
3.95366e-21
-5e-05
1.03696e-22
-5e-05
4.99273e-22
-5e-05
1.15169e-21
-5e-05
4.65075e-21
-5e-05
2.41615e-22
-5e-05
2.7057e-21
-5e-05
3.85747e-21
-5e-05
6.88205e-21
-5e-05
9.62712e-21
-5e-05
-3.18564e-21
-5e-05
-1.67559e-21
-5e-05
9.2079e-22
-5e-05
9.48066e-22
-5e-05
2.69975e-22
3.56488e-22
-5e-05
-1.53358e-19
-5e-05
2.30788e-19
-5e-05
-4.96654e-20
-5e-05
2.69234e-20
-5e-05
1.7353e-21
-5e-05
-1.05626e-20
-5e-05
-1.27646e-20
-5e-05
-1.08004e-20
-5e-05
-1.45824e-20
-5e-05
-6.68851e-21
-5e-05
5.20257e-21
-5e-05
7.67863e-21
-5e-05
6.90185e-21
-5e-05
1.00034e-20
-5e-05
1.81728e-21
-5e-05
-4.14434e-21
-5e-05
2.493e-21
-5e-05
1.45138e-21
-5e-05
-3.04344e-21
-1.0123e-20
-5e-05
-1.66987e-19
-5e-05
1.99625e-19
-5e-05
-3.23044e-20
-5e-05
2.07506e-20
-5e-05
5.50564e-21
-5e-05
1.59608e-21
-5e-05
-8.18005e-21
-5e-05
-1.07303e-20
-5e-05
-7.26454e-21
-5e-05
-6.49654e-21
-5e-05
-2.00617e-21
-5e-05
6.92038e-21
-5e-05
1.34203e-20
-5e-05
1.19823e-20
-5e-05
4.82233e-21
-5e-05
1.18432e-21
-5e-05
-3.07039e-21
-5e-05
-4.59656e-21
-5e-05
-8.82552e-21
-4.64933e-21
-5e-05
1.3138e-19
-5e-05
-1.59153e-19
-5e-05
5.27972e-20
-5e-05
-1.16605e-20
-5e-05
-2.02609e-21
-5e-05
-4.91168e-21
-5e-05
-5.4192e-21
-5e-05
-6.85395e-21
-5e-05
-1.80957e-21
-5e-05
7.52937e-21
-5e-05
8.08432e-21
-5e-05
1.0855e-20
-5e-05
5.65024e-21
-5e-05
2.2992e-21
-5e-05
2.92996e-21
-5e-05
-2.55006e-22
-5e-05
-3.65832e-21
-5e-05
-4.6241e-21
-5e-05
-9.15391e-22
-1.70548e-21
-5e-05
2.61531e-20
-5e-05
2.80791e-20
-5e-05
-3.45312e-20
-5e-05
-1.59761e-21
-5e-05
5.88037e-21
-5e-05
7.56082e-21
-5e-05
2.69217e-22
-5e-05
-1.90062e-21
-5e-05
1.34249e-22
-5e-05
-7.3735e-22
-5e-05
-2.77244e-21
-5e-05
-6.08748e-21
-5e-05
3.49979e-21
-5e-05
2.39425e-21
-5e-05
1.15747e-21
-5e-05
4.02218e-21
-5e-05
2.15639e-21
-5e-05
-1.45105e-21
-5e-05
-2.86611e-21
3.65692e-22
-5e-05
-5.92858e-20
-5e-05
4.80403e-20
-5e-05
-2.39152e-21
-5e-05
5.883e-21
-5e-05
-3.28339e-22
-5e-05
2.57631e-21
-5e-05
9.0447e-21
-5e-05
1.01936e-20
-5e-05
-5.00331e-21
-5e-05
-6.74414e-21
-5e-05
-1.64998e-21
-5e-05
3.46904e-21
-5e-05
4.8084e-21
-5e-05
3.7449e-21
-5e-05
-6.14002e-22
-5e-05
2.67694e-21
-5e-05
4.43883e-21
-5e-05
2.65764e-21
-5e-05
2.51588e-21
3.43505e-21
-5e-05
7.40455e-20
-5e-05
-1.11566e-19
-5e-05
2.55589e-20
-5e-05
-5.47037e-21
-5e-05
5.54552e-21
-5e-05
5.13242e-21
-5e-05
9.48672e-21
-5e-05
1.6928e-21
-5e-05
2.44938e-21
-5e-05
-1.88776e-21
-5e-05
-3.06827e-21
-5e-05
-5.55183e-21
-5e-05
-3.18728e-21
-5e-05
2.17605e-21
-5e-05
2.56121e-21
-5e-05
1.92105e-22
-5e-05
6.19061e-21
-5e-05
1.0697e-20
-5e-05
6.895e-21
8.6466e-21
-5e-05
-1.04448e-19
-5e-05
1.29021e-19
-5e-05
-2.58532e-20
-5e-05
9.53903e-21
-5e-05
-4.30574e-21
-5e-05
2.50131e-21
-5e-05
2.77894e-21
-5e-05
-4.77392e-22
-5e-05
-9.33046e-22
-5e-05
2.52037e-21
-5e-05
-3.84072e-22
-5e-05
-4.21216e-21
-5e-05
-5.94522e-21
-5e-05
-3.0234e-21
-5e-05
-7.50252e-22
-5e-05
1.1396e-21
-5e-05
5.00329e-21
-5e-05
3.96308e-21
-5e-05
7.35388e-21
-2.9908e-23
-5e-05
3.58478e-20
-5e-05
-4.48304e-20
-5e-05
9.32694e-21
-5e-05
-3.49911e-21
-5e-05
5.00265e-22
-5e-05
-2.6933e-21
-5e-05
-3.4101e-21
-5e-05
-4.29627e-21
-5e-05
2.33484e-21
-5e-05
7.67116e-22
-5e-05
4.01459e-21
-5e-05
-9.40252e-22
-5e-05
-2.29282e-21
-5e-05
2.65867e-22
-5e-05
7.55152e-21
-5e-05
4.78152e-21
-5e-05
-3.6625e-21
-5e-05
-2.52489e-21
-5e-05
7.70915e-21
8.58111e-21
-5e-05
-7.65954e-20
-5e-05
5.0979e-20
-5e-05
9.21961e-21
-5e-05
4.7445e-22
-5e-05
-3.2748e-21
-5e-05
-6.94334e-22
-5e-05
-5.58621e-22
-5e-05
1.01536e-20
-5e-05
5.61662e-21
-5e-05
2.76998e-21
-5e-05
1.80488e-21
-5e-05
6.50754e-21
-5e-05
3.36745e-21
-5e-05
-7.47477e-22
-5e-05
5.70254e-21
-5e-05
3.44292e-21
-5e-05
-1.17655e-21
-5e-05
1.10031e-21
-5e-05
-1.11747e-21
-2.4711e-21
-5e-05
7.92673e-20
-5e-05
-1.14102e-19
-5e-05
-1.73966e-21
-5e-05
-7.43198e-21
-5e-05
6.01943e-21
-5e-05
-1.6026e-21
-5e-05
-6.05699e-22
-5e-05
4.96812e-21
-5e-05
8.01724e-21
-5e-05
6.42818e-21
-5e-05
3.61087e-21
-5e-05
5.9328e-21
-5e-05
-1.1244e-21
-5e-05
2.31716e-21
-5e-05
4.48221e-21
-5e-05
3.08238e-21
-5e-05
4.39748e-21
-5e-05
4.33043e-21
-5e-05
2.72144e-21
4.4916e-21
-5e-05
-1.63799e-19
-5e-05
1.53016e-19
-5e-05
5.96623e-21
-5e-05
1.13816e-20
-5e-05
-6.3179e-21
-5e-05
-1.16499e-21
-5e-05
4.03284e-21
-5e-05
4.98273e-21
-5e-05
6.13781e-21
-5e-05
5.55827e-21
-5e-05
6.57783e-21
-5e-05
2.62045e-21
-5e-05
-1.82014e-21
-5e-05
-5.78215e-21
-5e-05
-4.9535e-21
-5e-05
-6.53182e-21
-5e-05
-2.88938e-21
-5e-05
-4.01e-21
-5e-05
3.44903e-21
1.6839e-21
-5e-05
1.22612e-19
-5e-05
-8.58326e-20
-5e-05
-7.29137e-21
-5e-05
-7.32699e-21
-5e-05
1.05405e-21
-5e-05
5.0192e-23
-5e-05
8.6419e-21
-5e-05
4.65833e-21
-5e-05
-4.51752e-21
-5e-05
2.99935e-22
-5e-05
2.44896e-21
-5e-05
1.10588e-22
-5e-05
4.22724e-22
-5e-05
-6.3031e-21
-5e-05
-1.14123e-20
-5e-05
-2.90439e-23
-5e-05
3.58374e-21
-5e-05
2.88446e-21
-5e-05
-6.99905e-21
-5.88662e-21
-5e-05
-7.79281e-20
-5e-05
5.85312e-20
-5e-05
-2.63917e-21
-5e-05
8.13592e-21
-5e-05
6.44849e-21
-5e-05
8.30091e-21
-5e-05
1.36744e-21
-5e-05
6.17086e-21
-5e-05
7.74452e-21
-5e-05
3.92827e-21
-5e-05
-3.54571e-22
-5e-05
1.42349e-21
-5e-05
2.90535e-22
-5e-05
-7.68469e-21
-5e-05
-7.82116e-21
-5e-05
3.37118e-21
-5e-05
5.28766e-21
-5e-05
-2.24005e-21
-5e-05
-1.99199e-21
7.11006e-22
-5e-05
2.82342e-20
-5e-05
-3.78797e-20
-5e-05
1.14067e-20
-5e-05
-2.6761e-21
-5e-05
2.54163e-21
-5e-05
1.09576e-20
-5e-05
1.23917e-20
-5e-05
-1.53763e-21
-5e-05
8.91613e-23
-5e-05
-1.57691e-21
-5e-05
-7.58401e-21
-5e-05
-6.94581e-21
-5e-05
-1.56557e-21
-5e-05
2.33453e-22
-5e-05
3.38512e-21
-5e-05
-2.42511e-21
-5e-05
-2.89113e-21
-5e-05
1.11792e-21
-5e-05
-2.98826e-21
1.11378e-21
-5e-05
-6.14778e-20
-5e-05
9.88779e-20
-5e-05
-1.98102e-20
-5e-05
1.17353e-20
-5e-05
8.28582e-21
-5e-05
5.36294e-21
-5e-05
-1.49528e-21
-5e-05
-4.32241e-21
-5e-05
-3.09402e-21
-5e-05
6.05787e-22
-5e-05
-2.20633e-21
-5e-05
-7.41267e-21
-5e-05
-6.66798e-21
-5e-05
4.06956e-21
-5e-05
2.36262e-21
-5e-05
-1.63333e-21
-5e-05
-4.77806e-21
-5e-05
-2.54058e-21
-5e-05
-1.6e-21
-3.59795e-21
-5e-05
1.65246e-19
-5e-05
-1.77045e-19
-5e-05
3.6627e-20
-5e-05
-1.02597e-20
-5e-05
5.42649e-21
-5e-05
2.48348e-22
-5e-05
-4.17465e-21
-5e-05
-3.71076e-21
-5e-05
-1.2338e-21
-5e-05
4.43443e-21
-5e-05
1.3791e-21
-5e-05
-2.15332e-21
-5e-05
-3.6232e-21
-5e-05
3.69786e-22
-5e-05
3.91775e-21
-5e-05
1.13328e-22
-5e-05
-5.41335e-21
-5e-05
-4.65355e-21
-5e-05
8.04837e-22
6.13053e-21
-5e-05
5.83205e-20
-5e-05
-4.89324e-20
-5e-05
1.37898e-20
-5e-05
-2.17876e-21
-5e-05
1.80907e-21
-5e-05
7.94147e-22
-5e-05
1.3102e-21
-5e-05
-4.50088e-22
-5e-05
-5.65863e-21
-5e-05
-6.21131e-21
-5e-05
-4.83491e-21
-5e-05
-2.33665e-21
-5e-05
-1.73462e-21
-5e-05
-3.62658e-21
-5e-05
-3.40017e-21
-5e-05
1.21738e-21
-5e-05
1.73169e-21
-5e-05
1.41748e-23
-5e-05
2.75887e-22
2.12049e-21
-5e-05
-7.02725e-20
-5e-05
1.86785e-19
-5e-05
-6.92626e-20
-5e-05
1.14544e-22
-5e-05
-8.25876e-21
-5e-05
-1.92004e-21
-5e-05
-1.40967e-21
-5e-05
-7.02775e-21
-5e-05
-2.88651e-21
-5e-05
-1.6342e-21
-5e-05
-2.27201e-21
-5e-05
-6.5915e-21
-5e-05
-1.68937e-21
-5e-05
-1.82873e-22
-5e-05
-2.65425e-21
-5e-05
-2.30648e-21
-5e-05
4.28237e-22
-5e-05
-2.17824e-21
-5e-05
-6.33645e-21
-6.95357e-21
-5e-05
-5e-05
-5e-05
-5e-05
-5e-05
-5e-05
-5e-05
-5e-05
-5e-05
-5e-05
-5e-05
-5e-05
-5e-05
-5e-05
-5e-05
-5e-05
-5e-05
-5e-05
-5e-05
)
;

boundaryField
{
    movingWall
    {
        type            calculated;
        value           uniform 0;
    }
    fixedWalls
    {
        type            calculated;
        value           nonuniform List<scalar> 
60
(
5e-05
5e-05
5e-05
5e-05
5e-05
5e-05
5e-05
5e-05
5e-05
5e-05
5e-05
5e-05
5e-05
5e-05
5e-05
5e-05
5e-05
5e-05
5e-05
5e-05
-5e-05
-5e-05
-5e-05
-5e-05
-5e-05
-5e-05
-5e-05
-5e-05
-5e-05
-5e-05
-5e-05
-5e-05
-5e-05
-5e-05
-5e-05
-5e-05
-5e-05
-5e-05
-5e-05
-5e-05
0
0
0
0
0
0
0
0
0
0
0
0
0
0
0
0
0
0
0
0
)
;
    }
    frontAndBack
    {
        type            empty;
    }
}


// ************************************************************************* //
