/*--------------------------------*- C++ -*----------------------------------*\
| =========                 |                                                 |
| \\      /  F ield         | OpenFOAM: The Open Source CFD Toolbox           |
|  \\    /   O peration     | Version:  2506                                  |
|   \\  /    A nd           | Website:  www.openfoam.com                      |
|    \\/     M anipulation  |                                                 |
\*---------------------------------------------------------------------------*/
FoamFile
{
    version     2.0;
    format      ascii;
    arch        "LSB;label=32;scalar=64";
    class       volScalarField;
    location    "5.5";
    object      QField;
}
// * * * * * * * * * * * * * * * * * * * * * * * * * * * * * * * * * * * * * //

dimensions      [0 0 -2 0 0 0 0];

internalField   nonuniform List<scalar> 
400
(
-7.72442e-24
-2.8463e-24
-1.29538e-25
-1.36839e-26
2.43245e-27
-2.2689e-28
-1.0574e-28
0
-1.26223e-30
5.91961e-29
-4.26246e-28
4.67987e-28
-1.53757e-27
-7.63098e-28
-7.73742e-28
1.92431e-28
-8.29045e-29
3.71999e-28
-5.63143e-29
-1.61591e-28
-1.67171e-23
-5.38971e-24
-1.98705e-25
-3.72143e-27
0
-1.08501e-27
-7.59097e-28
-2.19817e-27
-1.8079e-27
9.06349e-28
0
1.40036e-28
0
-3.59643e-28
0
5.32059e-28
4.16837e-28
-1.58053e-28
4.78247e-28
-1.17634e-27
-1.72697e-23
-5.59209e-24
1.0504e-25
-4.84345e-26
2.54446e-26
3.59558e-27
3.31941e-27
-4.55041e-30
-1.50174e-27
-2.31412e-27
0
0
-2.11727e-28
3.18269e-28
1.78059e-27
-6.09344e-28
-5.78892e-28
-1.51502e-28
2.19703e-28
-2.48642e-27
-7.79829e-24
-2.72858e-24
4.91219e-26
-8.50371e-27
3.00034e-27
-1.38433e-27
-6.16612e-28
-1.25654e-27
4.94375e-28
-1.60248e-28
6.33888e-28
5.82677e-28
-7.49526e-28
-6.59063e-28
2.45505e-28
1.63363e-27
1.92664e-29
0
1.58745e-28
-3.49186e-28
1.77297e-24
2.0675e-25
3.18783e-27
4.5283e-27
4.98254e-28
-9.48667e-28
-5.95378e-28
0
4.48991e-28
-1.27333e-29
-2.8687e-28
-3.81433e-27
2.46688e-28
2.96122e-28
-6.80776e-30
-1.87156e-28
1.43219e-28
0
2.53528e-28
-1.49577e-28
2.0118e-24
1.08732e-25
2.80042e-26
2.41772e-27
6.82652e-28
2.57803e-28
-1.02233e-27
8.07014e-28
7.71448e-28
-9.45378e-28
-2.66704e-28
8.43557e-29
-3.11155e-28
0
0
0
3.48572e-28
-1.21862e-27
4.30614e-28
-2.37863e-28
1.14877e-25
-3.02701e-25
8.55074e-26
-1.27533e-26
4.00198e-27
1.51395e-27
1.12667e-27
-2.00353e-27
-1.13359e-27
-6.40161e-28
8.74993e-28
3.48077e-28
2.79519e-28
-2.48403e-28
-2.11346e-28
6.51786e-28
3.9985e-28
-5.97329e-28
0
-1.05145e-28
-1.95087e-24
-5.82305e-25
-2.32372e-26
-4.71439e-27
-5.91953e-28
0
3.26318e-28
3.55302e-28
1.06595e-28
2.49804e-28
7.99494e-28
3.04452e-28
2.9699e-28
-3.09812e-28
3.71789e-28
0
4.15805e-28
0
2.35216e-28
0
-1.49493e-24
-5.05758e-25
-1.39172e-26
-6.98342e-27
9.62935e-28
-5.13717e-28
1.9117e-29
-1.29536e-28
-2.88358e-28
0
0
3.35899e-28
0
0
-8.92485e-28
0
-5.39866e-28
1.01722e-27
0
6.00601e-29
5.51046e-25
1.79479e-25
7.54082e-27
1.00272e-27
-2.12107e-28
8.56391e-29
-2.25185e-28
-1.48784e-27
0
-7.38255e-29
2.16025e-28
-1.23354e-27
3.68537e-28
0
-1.77473e-28
5.18397e-28
0
0
-1.01143e-27
0
2.58333e-24
7.40004e-25
1.97585e-26
4.27605e-27
7.46731e-29
7.70699e-29
1.73337e-27
1.64794e-27
-5.65924e-28
-1.24281e-27
-6.1801e-29
-9.25685e-28
-9.63398e-28
9.95208e-28
9.2713e-28
2.13589e-28
0
4.75285e-28
-3.96331e-30
5.92662e-29
4.07742e-24
6.94415e-25
8.31662e-27
3.61653e-27
-2.18181e-27
3.55267e-28
1.88322e-27
2.49347e-27
-8.89696e-28
1.59127e-28
-5.07972e-28
-9.52454e-28
-1.04053e-28
-7.37576e-29
-3.72485e-27
-6.14322e-28
5.18429e-28
4.96366e-28
-5.59694e-29
-4.68084e-28
6.28677e-24
1.47442e-24
1.046e-26
1.82662e-26
-2.01964e-27
-1.67792e-27
-1.49263e-27
1.88463e-27
5.94586e-28
-9.32799e-28
-5.96122e-29
3.55126e-28
2.58078e-27
3.20726e-27
-1.61965e-27
-1.0593e-27
-9.78605e-28
2.34705e-28
-2.2493e-27
-2.52665e-28
5.40081e-24
1.17501e-24
1.20821e-25
4.46738e-27
5.95491e-28
-1.53774e-27
1.38251e-28
1.83323e-28
-7.10387e-28
0
-2.33257e-28
2.59745e-28
-5.38675e-29
3.85427e-28
5.71432e-28
-3.74878e-28
-1.97218e-28
1.56388e-27
3.39342e-29
-1.41022e-28
1.70148e-24
1.56398e-28
1.66363e-25
-1.24729e-26
1.0151e-26
-2.31521e-28
-1.73297e-27
-6.39936e-28
-4.695e-28
-8.03781e-28
-1.56751e-27
-1.56567e-28
-2.22607e-29
-8.68949e-28
-6.36002e-28
-4.0039e-28
2.30274e-28
-2.30118e-28
-1.08178e-28
-5.46067e-29
-1.70726e-24
-5.47787e-25
1.66688e-26
-1.19785e-27
1.24063e-27
-1.31824e-27
1.23066e-27
1.65304e-27
-4.68501e-28
6.32217e-28
5.88143e-28
0
-2.70701e-28
-1.75925e-28
1.10256e-27
0
-5.50074e-28
-7.79854e-28
-6.96145e-29
-2.40903e-28
-4.42849e-24
-1.13403e-24
-5.28471e-26
-2.75321e-27
-8.55591e-29
1.56383e-27
-8.1781e-29
-2.73366e-28
-3.69945e-28
7.93783e-29
6.00632e-28
2.17561e-28
0
-1.0649e-27
5.0046e-28
6.97056e-28
2.7516e-28
8.56601e-29
-6.47533e-28
-2.4653e-28
-2.57066e-24
-9.07372e-25
5.35899e-27
-4.15735e-27
2.2288e-27
-1.02548e-27
-1.1739e-27
-9.39652e-28
-5.81621e-28
4.1754e-28
4.63929e-30
-1.7913e-28
0
9.64258e-28
1.79383e-28
-1.96442e-28
-1.50021e-27
2.17798e-28
4.60969e-28
-3.2333e-28
1.01928e-24
-1.75122e-25
-7.79861e-27
1.74318e-27
-2.62842e-27
7.47413e-29
1.15074e-27
1.09328e-27
-5.41939e-28
-5.56741e-28
-1.05254e-28
-1.75914e-28
-1.27129e-28
2.12987e-28
-1.36209e-28
-3.45894e-28
1.28748e-28
7.97558e-28
-7.80354e-28
-3.7101e-28
8.63609e-25
-8.59227e-26
-4.86344e-26
8.95608e-27
-1.37183e-27
9.23657e-28
-1.37152e-28
-1.28851e-28
6.83869e-30
-4.37913e-29
-6.19471e-28
-4.65363e-28
2.67691e-28
0
-1.27796e-28
0
1.10154e-28
-2.68729e-28
0
1.45865e-28
)
;

boundaryField
{
    movingWall
    {
        type            calculated;
        value           nonuniform List<scalar> 
20
(
2.85715e-24
2.18117e-24
-7.10286e-25
7.53057e-26
-1.57333e-26
5.29662e-27
1.68028e-28
3.2729e-27
2.1984e-27
-2.34226e-27
-2.97545e-27
-5.43776e-28
8.65536e-28
-1.25743e-27
-6.28142e-28
9.87761e-28
-2.63516e-29
-1.23174e-27
-2.5749e-30
5.70736e-29
)
;
    }
    fixedWalls
    {
        type            calculated;
        value           nonuniform List<scalar> 
60
(
-4.64041e-23
-9.66153e-23
-8.9362e-23
-3.53778e-23
6.63387e-24
8.70946e-24
4.32802e-25
-1.11873e-23
-8.2871e-24
2.61243e-24
1.24001e-23
2.03651e-23
3.00257e-23
2.61507e-23
8.77088e-24
-9.63554e-24
-2.21844e-23
-1.29811e-23
-3.7804e-25
4.95449e-25
-8.20654e-29
-2.56975e-27
-4.77515e-27
-5.72107e-28
1.30675e-28
-3.16601e-29
-1.7227e-28
0
1.96805e-28
0
1.94204e-28
-4.39579e-28
-3.13168e-28
-1.15525e-28
-5.37001e-29
-2.04008e-28
-4.03915e-28
-7.82113e-28
-4.6604e-28
1.81912e-28
3.43739e-24
3.01634e-24
-5.37526e-25
6.72592e-26
-1.45002e-26
1.3179e-27
-1.92637e-27
2.01194e-27
1.34265e-27
4.84934e-28
-1.81859e-27
-2.64398e-28
-2.89574e-27
-1.27344e-27
-6.79624e-29
-5.30729e-28
-1.35831e-28
1.36253e-28
-5.57289e-28
0
)
;
    }
    frontAndBack
    {
        type            empty;
    }
}


// ************************************************************************* //
