/*--------------------------------*- C++ -*----------------------------------*\
| =========                 |                                                 |
| \\      /  F ield         | OpenFOAM: The Open Source CFD Toolbox           |
|  \\    /   O peration     | Version:  2506                                  |
|   \\  /    A nd           | Website:  www.openfoam.com                      |
|    \\/     M anipulation  |                                                 |
\*---------------------------------------------------------------------------*/
FoamFile
{
    version     2.0;
    format      ascii;
    arch        "LSB;label=32;scalar=64";
    class       surfaceVectorField;
    location    "5.5";
    object      surfaceU;
}
// * * * * * * * * * * * * * * * * * * * * * * * * * * * * * * * * * * * * * //

dimensions      [0 1 -1 0 0 0 0];

internalField   nonuniform List<vector> 
760
(
(-1 2.21886e-14 0)
(-1 5.16132e-14 0)
(-1 -4.04899e-15 0)
(-1 -1.0505e-14 0)
(-1 1.11334e-15 0)
(-1 2.65507e-15 0)
(-1 -1.48779e-16 0)
(-1 -4.22971e-16 0)
(-1 1.37427e-16 0)
(-1 1.23704e-16 0)
(-1 1.34546e-16 0)
(-1 -3.32084e-17 0)
(-1 1.38276e-16 0)
(-1 1.95057e-17 0)
(-1 9.29712e-17 0)
(-1 2.34679e-17 0)
(-1 3.4204e-17 0)
(-1 2.3284e-19 0)
(-1 2.32842e-17 0)
(-1 -1.05573e-17 0)
(-1 7.24558e-17 0)
(-1 7.86285e-17 0)
(-1 1.09812e-16 0)
(-1 1.23684e-16 0)
(-1 1.19528e-16 0)
(-1 1.41816e-16 0)
(-1 5.55929e-17 0)
(-1 1.40767e-16 0)
(-1 7.19379e-18 0)
(-1 -4.59319e-17 0)
(-1 2.44638e-17 0)
(-1 -3.54973e-17 0)
(-1 1.68172e-17 0)
(-1 3.54737e-17 0)
(-1 1.56932e-17 0)
(-1 3.37489e-17 0)
(-1 1.49041e-17 0)
(-1 5.19408e-18 0)
(-1 -4.91917e-17 0)
(-1 1.89196e-14 0)
(-1 -2.45728e-14 0)
(-1 -3.80092e-15 0)
(-1 5.74176e-15 0)
(-1 1.11876e-15 0)
(-1 -9.21393e-16 0)
(-1 -1.50489e-16 0)
(-1 5.54893e-16 0)
(-1 -4.69318e-17 0)
(-1 -2.19307e-18 0)
(-1 -1.48248e-16 0)
(-1 -1.33283e-16 0)
(-1 -9.53025e-17 0)
(-1 -2.26415e-16 0)
(-1 -6.92705e-17 0)
(-1 -2.05309e-16 0)
(-1 -4.45284e-17 0)
(-1 -1.91259e-16 0)
(-1 4.4787e-17 0)
(-1 -1.11312e-16 0)
(-1 1.29857e-16 0)
(-1 5.06161e-17 0)
(-1 1.55689e-16 0)
(-1 1.31798e-16 0)
(-1 1.63055e-16 0)
(-1 1.76735e-16 0)
(-1 3.9242e-17 0)
(-1 2.07109e-16 0)
(-1 -8.86229e-17 0)
(-1 -2.50298e-18 0)
(-1 -2.44874e-17 0)
(-1 -6.56209e-17 0)
(-1 5.24054e-17 0)
(-1 7.89962e-18 0)
(-1 2.32498e-17 0)
(-1 1.15563e-18 0)
(-1 -5.89017e-17 0)
(-1 -8.30269e-17 0)
(-1 -1.21524e-16 0)
(-1 -3.77506e-14 0)
(-1 -2.16442e-14 0)
(-1 8.62129e-15 0)
(-1 4.92907e-15 0)
(-1 -1.48526e-15 0)
(-1 -7.81949e-16 0)
(-1 7.03189e-16 0)
(-1 4.64493e-16 0)
(-1 -8.85445e-17 0)
(-1 5.44969e-17 0)
(-1 -2.1145e-16 0)
(-1 -5.91213e-17 0)
(-1 -3.36421e-16 0)
(-1 -2.1388e-16 0)
(-1 -3.27297e-16 0)
(-1 -2.40965e-16 0)
(-1 -2.58042e-16 0)
(-1 -1.90436e-16 0)
(-1 -1.05483e-16 0)
(-1 -8.05141e-17 0)
(-1 5.2557e-17 0)
(-1 5.76726e-17 0)
(-1 1.52844e-16 0)
(-1 1.67298e-16 0)
(-1 2.20789e-16 0)
(-1 1.96263e-16 0)
(-1 1.65364e-16 0)
(-1 2.10395e-16 0)
(-1 2.04991e-17 0)
(-1 1.03631e-16 0)
(-1 -3.32339e-17 0)
(-1 -9.41879e-18 0)
(-1 -4.33502e-17 0)
(-1 -5.05519e-17 0)
(-1 -1.05121e-16 0)
(-1 -8.85623e-17 0)
(-1 -1.45649e-16 0)
(-1 -1.29299e-16 0)
(-1 -9.9807e-17 0)
(-1 2.10355e-14 0)
(-1 2.39753e-14 0)
(-1 -4.47416e-15 0)
(-1 -5.39011e-15 0)
(-1 1.1678e-15 0)
(-1 1.18418e-15 0)
(-1 -1.84199e-16 0)
(-1 -3.19836e-16 0)
(-1 8.392e-17 0)
(-1 7.17232e-17 0)
(-1 -6.15517e-17 0)
(-1 -2.35426e-17 0)
(-1 -1.18424e-16 0)
(-1 -8.71355e-17 0)
(-1 -1.04104e-16 0)
(-1 -9.64301e-17 0)
(-1 -1.29081e-17 0)
(-1 -7.74423e-18 0)
(-1 8.26412e-17 0)
(-1 7.75901e-17 0)
(-1 1.72414e-16 0)
(-1 8.89795e-17 0)
(-1 2.10718e-16 0)
(-1 1.36421e-16 0)
(-1 1.85869e-16 0)
(-1 1.50175e-16 0)
(-1 1.48662e-16 0)
(-1 8.8819e-17 0)
(-1 7.37136e-17 0)
(-1 5.83438e-17 0)
(-1 -2.67368e-17 0)
(-1 1.51265e-17 0)
(-1 -9.5764e-17 0)
(-1 -4.69979e-17 0)
(-1 -1.12741e-16 0)
(-1 -8.24257e-17 0)
(-1 -8.34573e-17 0)
(-1 -7.27269e-17 0)
(-1 -3.53935e-17 0)
(-1 -2.45034e-15 0)
(-1 -1.42949e-14 0)
(-1 2.68232e-16 0)
(-1 2.84426e-15 0)
(-1 -3.0346e-16 0)
(-1 -8.08569e-16 0)
(-1 -6.39141e-17 0)
(-1 9.78253e-17 0)
(-1 -3.57394e-17 0)
(-1 1.16801e-17 0)
(-1 -4.91265e-17 0)
(-1 7.065e-17 0)
(-1 -6.51416e-17 0)
(-1 2.26923e-17 0)
(-1 -7.02047e-20 0)
(-1 -8.00368e-18 0)
(-1 8.2754e-17 0)
(-1 -3.19511e-17 0)
(-1 8.39284e-17 0)
(-1 -1.02491e-17 0)
(-1 5.29869e-17 0)
(-1 -2.58219e-17 0)
(-1 7.58788e-17 0)
(-1 -1.65916e-17 0)
(-1 5.31258e-17 0)
(-1 6.79559e-17 0)
(-1 -1.49905e-18 0)
(-1 3.00757e-17 0)
(-1 -2.43237e-19 0)
(-1 1.34123e-17 0)
(-1 -5.13453e-18 0)
(-1 5.45421e-17 0)
(-1 -3.36595e-17 0)
(-1 1.21578e-17 0)
(-1 -4.2412e-17 0)
(-1 -3.82831e-17 0)
(-1 -2.46631e-17 0)
(-1 -2.59592e-17 0)
(-1 1.68616e-17 0)
(-1 -9.00028e-15 0)
(-1 2.30293e-15 0)
(-1 1.76746e-15 0)
(-1 -4.0483e-16 0)
(-1 -4.07283e-16 0)
(-1 5.24074e-17 0)
(-1 1.73419e-16 0)
(-1 8.62718e-18 0)
(-1 1.18069e-16 0)
(-1 7.46436e-17 0)
(-1 1.42469e-16 0)
(-1 1.18206e-16 0)
(-1 7.98302e-17 0)
(-1 1.79624e-16 0)
(-1 -3.98846e-17 0)
(-1 9.71345e-17 0)
(-1 -1.24954e-16 0)
(-1 -5.97833e-17 0)
(-1 -1.19999e-16 0)
(-1 -9.24901e-17 0)
(-1 -9.54004e-17 0)
(-1 -5.39996e-17 0)
(-1 -2.45145e-17 0)
(-1 -3.21525e-17 0)
(-1 4.49058e-17 0)
(-1 5.59337e-17 0)
(-1 4.4987e-17 0)
(-1 7.93104e-17 0)
(-1 6.81976e-17 0)
(-1 3.31037e-17 0)
(-1 7.18344e-17 0)
(-1 6.46553e-17 0)
(-1 7.53426e-18 0)
(-1 9.68572e-17 0)
(-1 -2.18303e-17 0)
(-1 7.41145e-17 0)
(-1 1.55654e-17 0)
(-1 5.34749e-17 0)
(-1 7.63049e-17 0)
(-1 1.08984e-14 0)
(-1 1.08584e-14 0)
(-1 -2.11988e-15 0)
(-1 -1.88139e-15 0)
(-1 4.68318e-16 0)
(-1 4.43084e-16 0)
(-1 -9.01487e-17 0)
(-1 -5.07261e-17 0)
(-1 7.47804e-17 0)
(-1 3.53848e-17 0)
(-1 1.55362e-16 0)
(-1 7.51561e-17 0)
(-1 1.96928e-16 0)
(-1 1.62169e-16 0)
(-1 7.72357e-17 0)
(-1 8.66254e-17 0)
(-1 -2.73193e-17 0)
(-1 9.70548e-18 0)
(-1 -2.64902e-17 0)
(-1 -3.26166e-17 0)
(-1 9.24838e-18 0)
(-1 -3.55461e-17 0)
(-1 4.82957e-17 0)
(-1 -4.60382e-17 0)
(-1 9.03383e-17 0)
(-1 -1.86321e-17 0)
(-1 6.74271e-17 0)
(-1 2.3397e-17 0)
(-1 2.95614e-17 0)
(-1 -3.64127e-18 0)
(-1 8.9678e-17 0)
(-1 1.98227e-17 0)
(-1 1.63437e-16 0)
(-1 1.42753e-16 0)
(-1 1.4942e-16 0)
(-1 1.70285e-16 0)
(-1 1.14214e-16 0)
(-1 1.29803e-16 0)
(-1 9.57008e-17 0)
(-1 -1.92133e-15 0)
(-1 -9.71219e-15 0)
(-1 6.8158e-16 0)
(-1 2.22304e-15 0)
(-1 -7.59599e-17 0)
(-1 -4.14216e-16 0)
(-1 7.48074e-17 0)
(-1 1.38646e-16 0)
(-1 3.57605e-17 0)
(-1 -1.92132e-17 0)
(-1 8.19635e-17 0)
(-1 4.16651e-17 0)
(-1 5.18659e-17 0)
(-1 3.5505e-17 0)
(-1 1.90951e-17 0)
(-1 -2.31095e-17 0)
(-1 4.40816e-18 0)
(-1 1.46818e-17 0)
(-1 -4.16725e-17 0)
(-1 3.42439e-18 0)
(-1 -9.08326e-17 0)
(-1 -2.79409e-17 0)
(-1 -1.12966e-16 0)
(-1 -1.022e-16 0)
(-1 -8.55734e-17 0)
(-1 -1.12037e-16 0)
(-1 -4.76714e-17 0)
(-1 -3.37532e-17 0)
(-1 -1.338e-17 0)
(-1 3.90676e-17 0)
(-1 7.28974e-17 0)
(-1 4.09777e-17 0)
(-1 1.496e-16 0)
(-1 5.66078e-17 0)
(-1 1.50668e-16 0)
(-1 8.56856e-17 0)
(-1 1.1129e-16 0)
(-1 1.51498e-16 0)
(-1 8.52538e-17 0)
(-1 -5.56781e-15 0)
(-1 -7.82627e-16 0)
(-1 1.12724e-15 0)
(-1 2.09064e-16 0)
(-1 -1.9961e-16 0)
(-1 6.04181e-17 0)
(-1 4.46257e-17 0)
(-1 -2.30448e-19 0)
(-1 -1.33087e-17 0)
(-1 -2.30402e-17 0)
(-1 -4.79341e-18 0)
(-1 -1.9038e-17 0)
(-1 -3.94704e-17 0)
(-1 -3.03226e-17 0)
(-1 -2.75228e-17 0)
(-1 -1.21758e-17 0)
(-1 1.3698e-17 0)
(-1 2.66535e-17 0)
(-1 1.7156e-17 0)
(-1 1.63979e-17 0)
(-1 -3.93079e-17 0)
(-1 4.37299e-17 0)
(-1 -1.0127e-16 0)
(-1 -2.16478e-19 0)
(-1 -6.02164e-17 0)
(-1 -3.43134e-17 0)
(-1 5.29859e-17 0)
(-1 6.84594e-18 0)
(-1 9.34253e-17 0)
(-1 1.21385e-16 0)
(-1 2.4688e-17 0)
(-1 5.8198e-17 0)
(-1 -7.30665e-18 0)
(-1 -4.29799e-17 0)
(-1 8.65155e-17 0)
(-1 -3.74495e-18 0)
(-1 1.25462e-16 0)
(-1 1.14114e-16 0)
(-1 7.41746e-17 0)
(-1 4.99425e-15 0)
(-1 2.88384e-15 0)
(-1 -8.57758e-16 0)
(-1 -1.01716e-15 0)
(-1 2.59798e-16 0)
(-1 2.92257e-16 0)
(-1 -6.78964e-17 0)
(-1 -9.2715e-17 0)
(-1 -2.87695e-17 0)
(-1 -3.38224e-18 0)
(-1 -4.45672e-17 0)
(-1 -4.55837e-17 0)
(-1 -3.02792e-18 0)
(-1 -2.14927e-17 0)
(-1 4.20006e-17 0)
(-1 1.02539e-16 0)
(-1 2.93534e-17 0)
(-1 1.08501e-16 0)
(-1 4.29718e-17 0)
(-1 6.9737e-17 0)
(-1 8.28214e-17 0)
(-1 8.3218e-17 0)
(-1 6.67405e-17 0)
(-1 1.13558e-16 0)
(-1 3.27489e-17 0)
(-1 1.02176e-17 0)
(-1 7.52448e-17 0)
(-1 -9.29157e-18 0)
(-1 8.61575e-17 0)
(-1 1.13908e-16 0)
(-1 -9.46992e-18 0)
(-1 7.56496e-17 0)
(-1 -3.94182e-17 0)
(-1 -4.32938e-19 0)
(-1 2.38531e-17 0)
(-1 5.34258e-18 0)
(-1 6.2826e-17 0)
(-1 2.08252e-17 0)
(-1 4.50466e-17 0)
(-1 -3.12757e-15 0)
(-1 -4.80072e-15 0)
(-1 1.32858e-16 0)
(-1 8.87194e-16 0)
(-1 -6.02553e-17 0)
(-1 -1.39204e-16 0)
(-1 -2.82008e-17 0)
(-1 3.2989e-17 0)
(-1 -2.01964e-17 0)
(-1 -2.26519e-18 0)
(-1 -2.25092e-17 0)
(-1 -2.44284e-17 0)
(-1 8.40741e-17 0)
(-1 1.72671e-17 0)
(-1 1.69039e-16 0)
(-1 1.51633e-16 0)
(-1 1.48885e-16 0)
(-1 1.72587e-16 0)
(-1 1.09983e-16 0)
(-1 1.43388e-16 0)
(-1 1.13954e-16 0)
(-1 1.02561e-16 0)
(-1 5.70348e-17 0)
(-1 1.16125e-16 0)
(-1 -3.18229e-17 0)
(-1 8.45613e-18 0)
(-1 2.93715e-17 0)
(-1 6.01103e-18 0)
(-1 1.034e-16 0)
(-1 6.28477e-17 0)
(-1 8.46866e-17 0)
(-1 3.62494e-17 0)
(-1 4.43279e-17 0)
(-1 4.20402e-17 0)
(-1 2.31469e-18 0)
(-1 4.37074e-17 0)
(-1 3.04579e-18 0)
(-1 5.52782e-17 0)
(-1 3.41139e-17 0)
(-1 -7.85952e-16 0)
(-1 6.56705e-15 0)
(-1 6.15132e-16 0)
(-1 -6.54448e-16 0)
(-1 -4.59592e-17 0)
(-1 2.27509e-16 0)
(-1 5.89247e-17 0)
(-1 -1.10711e-17 0)
(-1 -6.49724e-18 0)
(-1 -2.73866e-17 0)
(-1 1.53479e-17 0)
(-1 -1.78325e-17 0)
(-1 8.48265e-17 0)
(-1 7.18389e-17 0)
(-1 1.55181e-16 0)
(-1 9.75363e-17 0)
(-1 1.6709e-16 0)
(-1 7.26624e-17 0)
(-1 1.35966e-16 0)
(-1 8.20253e-17 0)
(-1 1.04731e-16 0)
(-1 7.59525e-17 0)
(-1 6.75461e-17 0)
(-1 4.6869e-17 0)
(-1 4.62901e-17 0)
(-1 7.42532e-18 0)
(-1 3.94872e-17 0)
(-1 -5.30675e-17 0)
(-1 -4.30295e-18 0)
(-1 -9.79834e-17 0)
(-1 -6.39694e-18 0)
(-1 -7.4979e-17 0)
(-1 4.14197e-17 0)
(-1 -2.3744e-18 0)
(-1 9.66708e-17 0)
(-1 6.61233e-18 0)
(-1 8.63463e-17 0)
(-1 3.39082e-17 0)
(-1 5.82968e-18 0)
(-1 6.69856e-15 0)
(-1 -5.41242e-15 0)
(-1 -1.04207e-15 0)
(-1 1.22064e-15 0)
(-1 2.62398e-16 0)
(-1 -2.59402e-16 0)
(-1 -9.73823e-17 0)
(-1 7.08093e-17 0)
(-1 -3.87218e-17 0)
(-1 -6.79159e-18 0)
(-1 3.86586e-17 0)
(-1 1.8833e-17 0)
(-1 8.45487e-17 0)
(-1 1.09288e-16 0)
(-1 1.50181e-17 0)
(-1 9.34496e-17 0)
(-1 -1.24023e-17 0)
(-1 7.68874e-18 0)
(-1 2.20119e-17 0)
(-1 3.6556e-17 0)
(-1 1.80903e-17 0)
(-1 4.53482e-17 0)
(-1 -1.32518e-17 0)
(-1 1.69393e-17 0)
(-1 -9.19323e-17 0)
(-1 -3.39083e-17 0)
(-1 -1.90538e-16 0)
(-1 -1.86953e-16 0)
(-1 -1.68659e-16 0)
(-1 -2.03613e-16 0)
(-1 -7.09565e-17 0)
(-1 -1.95026e-17 0)
(-1 -3.71818e-17 0)
(-1 3.72239e-17 0)
(-1 -5.61503e-17 0)
(-1 -3.66831e-17 0)
(-1 -4.66085e-17 0)
(-1 -1.01219e-16 0)
(-1 -3.3401e-17 0)
(-1 -1.08903e-14 0)
(-1 2.81533e-16 0)
(-1 2.00331e-15 0)
(-1 -3.30057e-16 0)
(-1 -4.5099e-16 0)
(-1 7.22482e-17 0)
(-1 1.614e-16 0)
(-1 1.78855e-17 0)
(-1 5.07633e-17 0)
(-1 1.04633e-16 0)
(-1 8.94626e-17 0)
(-1 1.41315e-16 0)
(-1 1.18189e-16 0)
(-1 1.34791e-16 0)
(-1 8.61203e-17 0)
(-1 9.17013e-17 0)
(-1 5.6647e-17 0)
(-1 7.32103e-17 0)
(-1 5.98923e-17 0)
(-1 5.63906e-17 0)
(-1 4.41972e-17 0)
(-1 2.31992e-18 0)
(-1 -3.71724e-18 0)
(-1 1.49587e-18 0)
(-1 -1.28929e-16 0)
(-1 -2.39715e-17 0)
(-1 -2.00027e-16 0)
(-1 -1.25769e-16 0)
(-1 -5.44559e-17 0)
(-1 -9.82021e-17 0)
(-1 8.86778e-17 0)
(-1 4.96503e-17 0)
(-1 3.77226e-17 0)
(-1 7.36043e-17 0)
(-1 -8.17513e-17 0)
(-1 1.28544e-17 0)
(-1 -8.80111e-17 0)
(-1 -6.70943e-17 0)
(-1 -2.0394e-17 0)
(-1 1.08418e-14 0)
(-1 2.72109e-15 0)
(-1 -2.26112e-15 0)
(-1 -3.28454e-16 0)
(-1 5.41124e-16 0)
(-1 1.17592e-16 0)
(-1 -3.88813e-17 0)
(-1 3.70531e-17 0)
(-1 1.95185e-16 0)
(-1 1.24675e-16 0)
(-1 1.86643e-16 0)
(-1 2.19411e-16 0)
(-1 1.08303e-16 0)
(-1 1.41109e-16 0)
(-1 7.87914e-17 0)
(-1 -1.75891e-17 0)
(-1 7.29539e-17 0)
(-1 9.95271e-18 0)
(-1 -1.18174e-18 0)
(-1 -1.29567e-17 0)
(-1 -4.03814e-17 0)
(-1 -1.03057e-16 0)
(-1 -1.87584e-17 0)
(-1 -1.13878e-16 0)
(-1 -2.08116e-17 0)
(-1 -3.36799e-17 0)
(-1 -2.39435e-17 0)
(-1 2.19963e-17 0)
(-1 5.90403e-18 0)
(-1 2.01538e-17 0)
(-1 3.45767e-17 0)
(-1 -1.59519e-17 0)
(-1 4.87361e-17 0)
(-1 -1.41193e-17 0)
(-1 2.75114e-17 0)
(-1 3.30347e-18 0)
(-1 5.22751e-19 0)
(-1 -3.30723e-17 0)
(-1 -1.08436e-17 0)
(-1 -8.44918e-15 0)
(-1 -8.49432e-15 0)
(-1 2.05025e-15 0)
(-1 1.90992e-15 0)
(-1 -3.86479e-16 0)
(-1 -3.3206e-16 0)
(-1 2.00609e-16 0)
(-1 1.47535e-16 0)
(-1 1.48901e-16 0)
(-1 8.78086e-17 0)
(-1 1.73877e-16 0)
(-1 1.10313e-16 0)
(-1 1.52164e-17 0)
(-1 1.66259e-17 0)
(-1 -8.64278e-17 0)
(-1 -7.09836e-17 0)
(-1 -7.5958e-17 0)
(-1 -3.45911e-17 0)
(-1 -1.14832e-16 0)
(-1 7.72895e-18 0)
(-1 -1.76554e-16 0)
(-1 -8.81083e-17 0)
(-1 -1.28799e-16 0)
(-1 -1.49373e-16 0)
(-1 9.12796e-18 0)
(-1 -8.36155e-17 0)
(-1 6.60936e-17 0)
(-1 5.44488e-17 0)
(-1 -1.70209e-18 0)
(-1 3.88302e-17 0)
(-1 -6.46478e-17 0)
(-1 -5.87602e-17 0)
(-1 -5.95519e-17 0)
(-1 -1.1559e-16 0)
(-1 -5.72803e-17 0)
(-1 -6.63538e-17 0)
(-1 -4.44387e-17 0)
(-1 -4.13284e-17 0)
(-1 7.33092e-18 0)
(-1 1.86477e-15 0)
(-1 1.40423e-14 0)
(-1 -4.72396e-16 0)
(-1 -3.11807e-15 0)
(-1 2.01954e-16 0)
(-1 6.76186e-16 0)
(-1 3.47346e-17 0)
(-1 -1.33237e-16 0)
(-1 4.92202e-17 0)
(-1 1.15483e-16 0)
(-1 -4.69383e-17 0)
(-1 1.82958e-17 0)
(-1 -6.95741e-17 0)
(-1 -4.37316e-17 0)
(-1 -1.91469e-17 0)
(-1 -4.30808e-17 0)
(-1 4.90958e-17 0)
(-1 -3.66382e-17 0)
(-1 3.44531e-17 0)
(-1 3.5446e-17 0)
(-1 -6.09276e-17 0)
(-1 -8.14385e-18 0)
(-1 -1.04189e-16 0)
(-1 -5.97208e-17 0)
(-1 -3.82947e-17 0)
(-1 -8.44492e-17 0)
(-1 2.71854e-17 0)
(-1 4.33725e-20 0)
(-1 -1.82279e-17 0)
(-1 4.03223e-17 0)
(-1 -1.09702e-16 0)
(-1 -4.39535e-18 0)
(-1 -1.22392e-16 0)
(-1 -8.64823e-17 0)
(-1 -5.04019e-17 0)
(-1 -5.05523e-17 0)
(-1 1.04412e-17 0)
(-1 1.72773e-17 0)
(-1 5.28077e-17 0)
(-1 9.05942e-15 0)
(-1 9.60695e-15 0)
(-1 -1.96949e-15 0)
(-1 -2.39718e-15 0)
(-1 3.40995e-16 0)
(-1 3.45705e-16 0)
(-1 -5.24888e-17 0)
(-1 -1.53309e-16 0)
(-1 8.45582e-17 0)
(-1 5.35622e-17 0)
(-1 2.15026e-17 0)
(-1 9.03565e-18 0)
(-1 -1.72383e-17 0)
(-1 -1.29403e-17 0)
(-1 -6.05721e-17 0)
(-1 -8.27739e-17 0)
(-1 -5.02881e-17 0)
(-1 -1.10851e-16 0)
(-1 -7.15096e-18 0)
(-1 -6.00799e-17 0)
(-1 -6.93701e-18 0)
(-1 -3.34808e-17 0)
(-1 -3.99807e-17 0)
(-1 -5.33939e-17 0)
(-1 -4.61112e-17 0)
(-1 -4.78122e-17 0)
(-1 1.31802e-17 0)
(-1 -3.60733e-17 0)
(-1 5.41548e-17 0)
(-1 -8.53665e-18 0)
(-1 1.88248e-17 0)
(-1 3.00274e-17 0)
(-1 -1.46426e-17 0)
(-1 1.84205e-17 0)
(-1 1.71269e-17 0)
(-1 -2.71899e-17 0)
(-1 5.96438e-17 0)
(-1 -2.33717e-17 0)
(-1 1.45763e-17 0)
(-1 -1.84966e-15 0)
(-1 -2.83678e-14 0)
(-1 -8.19918e-17 0)
(-1 5.42478e-15 0)
(-1 -1.48599e-16 0)
(-1 -1.42592e-15 0)
(-1 -4.72578e-17 0)
(-1 1.59483e-16 0)
(-1 -2.19604e-17 0)
(-1 -1.5092e-16 0)
(-1 -2.54072e-17 0)
(-1 -6.82781e-17 0)
(-1 -7.84759e-17 0)
(-1 -6.91748e-17 0)
(-1 -1.33053e-16 0)
(-1 -9.94095e-17 0)
(-1 -1.20643e-16 0)
(-1 -4.81114e-17 0)
(-1 -8.64097e-17 0)
(-1 -3.76266e-17 0)
(-1 -7.99377e-17 0)
(-1 -5.95825e-17 0)
(-1 -6.12254e-17 0)
(-1 -8.58443e-17 0)
(-1 -3.77743e-17 0)
(-1 -2.23178e-17 0)
(-1 -5.77902e-17 0)
(-1 -3.53307e-17 0)
(-1 -3.26641e-17 0)
(-1 -7.77271e-17 0)
(-1 2.96231e-17 0)
(-1 -3.37787e-17 0)
(-1 5.87328e-18 0)
(-1 1.2363e-17 0)
(-1 -6.76885e-17 0)
(-1 -4.95717e-17 0)
(-1 -6.84392e-17 0)
(-1 -9.53467e-17 0)
(-1 -5.06124e-17 0)
(-1 -2.10933e-14 0)
(-1 4.08085e-15 0)
(-1 -1.11784e-15 0)
(-1 5.58202e-17 0)
(-1 -1.97238e-16 0)
(-1 -1.12046e-16 0)
(-1 -9.01083e-17 0)
(-1 -1.44676e-17 0)
(-1 3.49053e-17 0)
(-1 -1.07994e-17 0)
(-1 -6.54891e-17 0)
(-1 -4.69367e-17 0)
(-1 -1.98743e-17 0)
(-1 -5.52676e-17 0)
(-1 -7.88418e-17 0)
(-1 -5.10388e-17 0)
(-1 -4.30819e-17 0)
(-1 -7.72299e-17 0)
(-1 -7.75198e-17 0)
)
;

boundaryField
{
    movingWall
    {
        type            calculated;
        value           uniform (-1 -0 -0);
    }
    fixedWalls
    {
        type            calculated;
        value           uniform (-1 -0 -0);
    }
    frontAndBack
    {
        type            empty;
    }
}


// ************************************************************************* //
