/*--------------------------------*- C++ -*----------------------------------*\
| =========                 |                                                 |
| \\      /  F ield         | OpenFOAM: The Open Source CFD Toolbox           |
|  \\    /   O peration     | Version:  2506                                  |
|   \\  /    A nd           | Website:  www.openfoam.com                      |
|    \\/     M anipulation  |                                                 |
\*---------------------------------------------------------------------------*/
FoamFile
{
    version     2.0;
    format      ascii;
    arch        "LSB;label=32;scalar=64";
    class       surfaceScalarField;
    location    "5.5";
    object      surfaceDivU;
}
// * * * * * * * * * * * * * * * * * * * * * * * * * * * * * * * * * * * * * //

dimensions      [0 0 -1 0 0 0 0];

internalField   nonuniform List<scalar> 
760
(
4.30275e-12
-2.1684e-12
-5.00388e-13
2.14857e-13
1.01237e-13
-4.3473e-14
-4.34793e-14
2.67447e-14
9.04955e-15
-1.4954e-14
-1.37028e-15
2.40084e-14
-9.25517e-15
-2.06909e-14
-1.11825e-14
8.92093e-15
-1.4585e-14
-5.55005e-15
-6.7454e-15
1.36563e-15
2.02313e-14
-1.41806e-14
1.29975e-14
2.55482e-14
-1.23993e-14
-8.80249e-15
9.4835e-15
-5.86998e-15
-8.14292e-15
8.70904e-15
-1.35549e-14
-1.01118e-14
3.40273e-14
4.33733e-15
3.8943e-15
3.05955e-14
-2.65856e-14
-4.84409e-14
2.71051e-14
-6.2563e-12
-6.89824e-12
6.71772e-13
9.72216e-13
-1.17965e-13
-2.51649e-13
5.527e-14
8.8386e-14
4.89507e-18
-2.18747e-14
4.6878e-15
7.86459e-15
-2.51479e-15
-1.69244e-14
1.45533e-14
-3.96988e-15
1.04005e-14
2.48812e-15
-6.06956e-15
2.1475e-14
-8.86368e-15
-2.72366e-15
3.74817e-15
2.80454e-15
-2.27319e-15
-1.69103e-14
-6.64443e-15
1.0928e-15
6.74014e-15
-3.43968e-15
7.7804e-15
-2.10565e-14
9.05525e-16
2.28398e-14
-2.17397e-14
4.81186e-15
5.24984e-15
-2.12326e-14
1.35525e-14
3.30277e-13
4.43168e-12
4.87942e-14
-5.20442e-13
-4.52981e-14
8.08804e-14
1.12414e-14
-2.6192e-14
-1.4015e-14
1.2622e-14
-1.37476e-14
5.28613e-15
-1.83795e-14
1.0556e-14
-1.60351e-14
-2.0187e-14
1.35626e-14
7.28703e-15
2.48209e-14
1.32601e-14
8.94457e-15
-1.24398e-14
-1.7854e-14
-1.02856e-14
-1.35443e-14
2.10913e-14
4.29755e-15
2.81631e-15
-3.12363e-14
-2.44601e-14
-5.99707e-15
-2.65343e-14
2.67462e-14
3.09026e-14
5.3189e-15
1.00063e-14
-1.29299e-14
6.90244e-15
-1.35525e-14
3.58096e-12
3.38813e-13
-4.88356e-13
2.06201e-13
9.99865e-14
-3.02019e-14
-2.48113e-14
1.84565e-14
3.19231e-14
-1.87647e-14
2.95898e-14
-8.84179e-15
8.74849e-15
2.06607e-14
3.13509e-15
3.10915e-15
6.98459e-15
9.58299e-15
-2.40006e-14
-2.0371e-14
-3.167e-14
-2.07893e-14
2.86597e-14
2.55355e-14
3.7452e-14
3.53657e-14
-2.59413e-14
-1.52156e-14
-1.9758e-14
-1.99294e-14
1.03654e-14
-6.58566e-15
1.41627e-14
-3.48401e-15
1.15898e-14
1.50342e-14
6.27984e-15
3.0789e-14
-1.35525e-14
-3.03594e-12
-1.72117e-12
6.64355e-13
2.71027e-14
-1.11732e-13
-7.85355e-15
2.45031e-14
-1.64598e-14
-5.95296e-14
-4.92016e-15
-1.77708e-14
-8.21943e-15
1.50214e-14
-6.87343e-15
9.55705e-15
-4.63944e-15
-1.77725e-14
4.37908e-15
-1.71596e-14
3.27861e-15
3.64162e-14
-7.98215e-15
3.22415e-14
2.22306e-14
-1.73019e-14
-2.82686e-14
-9.20373e-15
-2.61392e-15
-6.75709e-15
4.6516e-15
-2.04351e-14
-1.63279e-15
-2.61253e-15
-2.65103e-15
3.42333e-14
-9.96939e-15
1.09566e-14
4.34091e-14
-1.35525e-14
1.34187e-12
2.69695e-12
-6.45106e-13
-5.67435e-13
8.74186e-14
1.30864e-13
-4.5883e-14
-5.842e-14
4.639e-14
-2.54968e-15
2.67797e-15
1.93362e-14
-2.65343e-14
-6.47829e-15
-9.81741e-15
-8.72906e-15
2.54302e-14
8.54474e-15
1.24561e-14
1.04186e-15
-2.21677e-14
4.59797e-15
-3.82795e-14
-7.81907e-15
-1.35806e-14
-9.82237e-15
1.12414e-14
-3.28179e-15
9.7759e-15
-1.06063e-14
1.61512e-14
8.4478e-15
-1.00079e-14
1.04085e-14
-7.93588e-16
-2.97702e-14
1.89e-14
3.18803e-14
-1.35525e-14
7.87643e-13
-1.30104e-12
2.08535e-13
3.45873e-13
-1.49743e-14
-5.13233e-14
-1.50867e-14
-4.76051e-15
-2.96035e-14
-1.19354e-14
1.018e-14
-1.87041e-15
1.13269e-14
-7.33766e-15
9.63309e-15
-7.20094e-15
-1.58436e-14
1.59913e-14
-6.81626e-15
-1.64717e-14
1.89466e-14
7.20383e-15
2.0638e-14
-1.48238e-14
4.76491e-16
4.8566e-16
-2.51295e-14
-1.03562e-15
-1.19344e-14
-1.00099e-14
2.70502e-15
6.08004e-15
-9.35384e-15
-7.169e-15
2.90373e-15
-1.50606e-14
-5.72201e-16
4.16827e-14
-1.35525e-14
-1.74281e-12
-1.40946e-12
8.60144e-14
4.87156e-13
-4.11095e-14
-1.16695e-13
-1.60922e-15
1.38416e-14
1.57977e-14
9.32718e-15
-1.9388e-14
2.26271e-15
-2.58655e-14
5.18241e-16
-8.4277e-16
-1.70811e-14
1.53631e-14
4.13353e-15
-2.45165e-15
1.98223e-15
-2.65666e-14
1.5789e-15
-3.49762e-14
-1.02416e-14
-1.02645e-15
-1.08247e-15
1.4084e-14
1.08618e-14
8.00453e-15
-1.10598e-14
-3.79398e-15
9.91757e-15
-1.28757e-14
1.36279e-15
2.37184e-14
-1.8911e-14
2.87023e-14
2.65612e-14
-1.35525e-14
8.20506e-13
1.13841e-12
2.84446e-13
-1.07914e-13
-6.17439e-14
8.16249e-15
2.4778e-14
4.25798e-15
-4.20782e-15
-1.61948e-14
2.2169e-14
7.09036e-15
9.30269e-15
8.371e-15
-1.21047e-14
-1.80687e-14
-9.24739e-15
-3.70425e-17
6.01278e-15
8.61348e-15
1.79039e-14
1.26948e-14
2.36521e-14
-2.2184e-15
1.08058e-14
1.11429e-14
-1.4282e-14
-2.44563e-16
-9.14677e-15
-1.71283e-14
1.50743e-14
1.33848e-14
-4.67249e-15
9.21124e-15
-1.60682e-14
-1.33928e-14
-1.56937e-14
1.34939e-14
-2.71051e-14
2.09992e-13
-5.69206e-13
-3.84198e-13
3.25817e-13
7.41643e-14
-3.89047e-14
-3.67148e-14
4.82375e-14
-4.89659e-15
-2.76698e-14
-6.70763e-15
6.55132e-15
-1.90004e-14
-4.22554e-16
-6.00104e-15
-1.68782e-15
1.78238e-14
1.00373e-15
1.52955e-14
-5.79252e-15
-7.42748e-15
-8.52718e-15
-1.47275e-14
-1.76893e-14
9.26007e-17
1.86737e-15
-3.09089e-15
-3.28054e-16
5.40323e-15
4.12303e-15
7.52167e-15
-1.59152e-14
4.90964e-16
4.16073e-15
1.61693e-14
-8.64753e-15
2.08252e-15
2.11629e-14
-2.71051e-14
-4.53382e-13
7.86047e-13
6.7111e-13
-4.78169e-13
-6.48316e-14
9.01458e-14
5.72825e-14
-2.49133e-14
-1.62219e-14
1.05874e-14
1.28364e-14
9.32643e-15
1.68901e-14
8.9106e-15
5.31695e-15
-1.57406e-14
-2.26126e-14
1.09724e-14
-2.96152e-14
-4.52213e-14
-1.8789e-14
-2.28063e-14
-1.09443e-15
1.62994e-14
1.44672e-15
-2.55169e-14
6.88587e-15
-4.70565e-15
-1.71953e-14
5.06965e-14
-1.92761e-14
-1.74255e-14
-4.97777e-15
3.96658e-15
-3.65397e-15
1.85845e-14
-8.02471e-15
8.91863e-15
-1.35525e-14
7.61259e-13
-1.49078e-13
-1.05913e-12
-3.82488e-14
1.30064e-13
2.39158e-14
-7.16084e-14
-2.11312e-14
3.61357e-14
2.36872e-14
5.40064e-15
1.00052e-16
-2.37201e-14
4.56018e-15
-1.00852e-14
-3.51115e-14
-1.16363e-14
8.03511e-15
-3.84123e-14
-4.2352e-14
1.22822e-14
-1.42245e-15
-8.1231e-15
4.70384e-14
-3.16693e-14
-5.68584e-14
3.9105e-14
-2.4002e-14
5.04664e-14
6.47081e-14
5.81719e-15
1.76569e-14
2.75288e-14
-2.36201e-14
3.11571e-14
1.05454e-14
3.39082e-15
3.39265e-14
0
-9.48586e-13
-1.0571e-12
1.0448e-12
5.63397e-13
-1.27279e-13
-7.29255e-14
7.41644e-14
2.2422e-14
-1.23484e-14
-1.73209e-14
-7.40406e-16
-1.10903e-14
-6.83127e-15
1.08554e-14
-1.69912e-14
-2.21425e-14
-2.26806e-14
-3.25677e-14
-5.36211e-15
-4.25787e-15
3.33338e-14
1.83193e-14
-1.6969e-15
2.89486e-14
-4.91912e-14
-4.64456e-14
1.60103e-15
-1.77196e-14
3.18986e-14
5.11337e-14
-1.17804e-14
3.01477e-15
-4.06035e-14
-2.95748e-14
1.33149e-14
-2.38287e-15
3.05357e-14
3.73788e-14
-2.71051e-14
4.54885e-13
1.15196e-12
-5.54329e-13
-4.58874e-13
7.6776e-14
1.00299e-13
-6.90633e-14
-4.87163e-14
-1.60628e-14
-4.17428e-15
5.05504e-16
-4.58502e-15
-4.45582e-15
4.84919e-16
-3.77189e-14
-3.32464e-14
-1.4145e-14
-1.87887e-14
1.94236e-14
4.34339e-15
1.39341e-14
3.05838e-14
-1.58001e-14
2.31436e-15
-1.4974e-14
-1.93177e-14
3.1813e-14
3.17528e-15
2.22499e-14
1.93002e-14
-1.47796e-14
1.69224e-14
8.64587e-15
-2.11566e-14
2.16811e-14
1.51683e-14
-2.0262e-14
1.70884e-14
-4.06576e-14
2.38205e-13
-9.89334e-13
1.95754e-13
2.25909e-13
-2.51931e-14
-3.49994e-14
1.61728e-14
4.90627e-15
7.3035e-15
-3.29618e-14
-4.6056e-15
1.94198e-14
-2.83056e-14
2.22093e-15
-1.43162e-14
-2.24098e-14
-3.00402e-16
1.10887e-14
1.55036e-14
-5.22778e-16
1.89641e-14
7.98848e-15
-1.20322e-15
7.80004e-16
-1.16836e-15
1.82299e-15
-9.33752e-15
-5.90802e-15
1.39727e-14
-7.65412e-15
1.05454e-14
1.96338e-14
-1.46341e-14
-1.29709e-14
1.05756e-14
2.08e-14
-3.30723e-15
6.11246e-15
-1.35525e-14
-1.00163e-12
7.86047e-13
-4.84457e-15
6.89203e-14
-4.89998e-15
-1.97975e-14
-4.42283e-14
1.42981e-15
-2.08455e-14
-2.03285e-14
2.62464e-14
-6.9168e-16
8.11676e-15
2.43945e-14
2.99506e-15
2.14609e-15
1.08663e-14
6.42959e-15
-8.03793e-15
4.31749e-15
-1.01956e-14
-9.62521e-15
3.80621e-15
-7.35685e-15
-2.91667e-15
1.02986e-14
-4.22462e-15
-8.10331e-15
-1.993e-15
2.14678e-14
-3.8825e-15
-1.98681e-14
2.24632e-14
6.89783e-15
1.63368e-14
2.8967e-14
-4.13284e-15
-1.59576e-14
-1.35525e-14
1.8566e-12
1.53144e-12
5.39674e-14
-9.07393e-14
-1.34677e-14
-6.23109e-15
2.53296e-14
-1.54951e-15
-1.74681e-16
3.35195e-15
-2.54357e-15
-1.08194e-14
1.84238e-14
-1.92197e-14
5.58062e-15
9.67059e-16
-1.19226e-16
1.23561e-14
2.73021e-15
1.10891e-14
-6.78646e-15
-4.16246e-15
-8.64476e-16
-1.13115e-14
5.11194e-15
1.38789e-14
1.75891e-14
-3.60299e-15
3.59269e-15
3.02836e-14
-9.08776e-15
2.5632e-15
1.34016e-14
-6.80617e-15
-3.3275e-15
-7.77422e-15
-2.53773e-14
-1.4162e-14
-1.35525e-14
-4.15901e-13
-4.10642e-12
-1.50938e-13
5.7381e-13
5.68713e-15
-1.48679e-13
-2.35272e-14
4.1275e-14
-7.29274e-15
3.81672e-15
-2.74955e-14
-5.92425e-15
-3.66765e-14
-3.53166e-14
7.74252e-15
8.88672e-15
2.35645e-14
1.12088e-14
4.19646e-15
3.78188e-15
-8.68747e-15
-9.30633e-15
3.43192e-15
-3.7129e-16
5.16398e-15
6.53953e-15
9.09153e-15
-2.06929e-14
2.92541e-14
4.92615e-15
4.84479e-15
2.67299e-14
-2.7982e-14
-1.04742e-14
-1.86087e-14
-2.12287e-14
-2.33717e-15
1.52332e-14
0
-3.1167e-12
-7.72494e-13
5.76069e-13
5.45871e-14
-1.13091e-13
-7.06647e-15
6.86189e-14
2.39574e-15
5.18522e-15
2.55656e-14
-1.37453e-14
6.72472e-15
1.02466e-14
-6.91748e-15
1.2353e-14
1.71641e-14
-8.5738e-15
-1.83637e-14
-9.72091e-15
9.78987e-15
-9.90149e-16
-1.95108e-14
2.73632e-15
4.9681e-15
-1.93174e-14
1.13207e-14
-2.48583e-14
-1.70856e-14
2.40194e-15
5.77982e-15
1.1411e-14
1.01747e-14
-3.72086e-15
-1.23162e-14
1.26132e-14
-1.85097e-14
1.75704e-14
3.11229e-14
-1.35525e-14
2.3988e-12
-5.28549e-13
1.0842e-13
-4.06576e-14
2.71051e-14
1.35525e-14
0
-1.35525e-14
9.46633e-30
7.25752e-29
-1.35525e-14
1.35525e-14
1.35525e-14
1.35525e-14
1.35525e-14
-1.35525e-14
-2.71051e-14
2.1457e-28
-1.67239e-28
)
;

boundaryField
{
    movingWall
    {
        type            calculated;
        value           nonuniform List<scalar> 
20
(
6.17995e-12
-1.38236e-12
3.25261e-13
-1.0842e-13
2.71051e-14
2.71051e-14
0
0
-2.71051e-14
2.71051e-14
-2.71051e-14
0
2.71051e-14
0
2.71051e-14
0
-2.71051e-14
-2.71051e-14
2.71051e-14
-2.71051e-14
)
;
    }
    fixedWalls
    {
        type            calculated;
        value           nonuniform List<scalar> 
60
(
9.89334e-12
-1.42302e-11
4.33681e-13
8.42967e-12
-7.75205e-12
4.3097e-12
1.0842e-12
-3.68629e-12
8.67362e-13
1.40946e-12
-2.54788e-12
4.11997e-12
-4.41812e-12
2.30393e-12
0
-1.97867e-12
3.55076e-12
-4.87891e-13
-7.72494e-12
6.17995e-12
0
5.42101e-14
-2.71051e-14
0
-2.71051e-14
0
-2.71051e-14
0
-2.71051e-14
-2.71051e-14
-2.71051e-14
0
0
-5.42101e-14
-2.71051e-14
0
-2.71051e-14
0
0
-2.71051e-14
9.89334e-12
-1.28784e-12
2.87068e-13
-8.45943e-14
-2.36427e-15
2.04634e-14
-2.32039e-14
4.69358e-15
-2.70585e-14
-2.11145e-15
-1.13793e-14
5.18419e-14
-2.58469e-14
1.04831e-15
1.79187e-14
-3.42045e-14
7.09473e-15
6.09599e-14
-5.31713e-14
0
)
;
    }
    frontAndBack
    {
        type            empty;
    }
}


// ************************************************************************* //
