/*--------------------------------*- C++ -*----------------------------------*\
| =========                 |                                                 |
| \\      /  F ield         | OpenFOAM: The Open Source CFD Toolbox           |
|  \\    /   O peration     | Version:  2506                                  |
|   \\  /    A nd           | Website:  www.openfoam.com                      |
|    \\/     M anipulation  |                                                 |
\*---------------------------------------------------------------------------*/
FoamFile
{
    version     2.0;
    format      ascii;
    arch        "LSB;label=32;scalar=64";
    class       volScalarField;
    location    "5.5";
    object      turbulenceProperties:k;
}
// * * * * * * * * * * * * * * * * * * * * * * * * * * * * * * * * * * * * * //

dimensions      [0 2 -2 0 0 0 0];

internalField   nonuniform List<scalar> 
400
(
1.10227e-05
1.10226e-05
1.10226e-05
1.10226e-05
1.10226e-05
1.10226e-05
1.10226e-05
1.10226e-05
1.10226e-05
1.10226e-05
1.10225e-05
1.10225e-05
1.10225e-05
1.10225e-05
1.10225e-05
1.10225e-05
1.10225e-05
1.10225e-05
1.10225e-05
1.10225e-05
1.17649e-05
1.17649e-05
1.17639e-05
1.17635e-05
1.17627e-05
1.17624e-05
1.17618e-05
1.17614e-05
1.1761e-05
1.17606e-05
1.17603e-05
1.176e-05
1.17597e-05
1.17595e-05
1.17593e-05
1.17592e-05
1.1759e-05
1.1759e-05
1.17589e-05
1.17589e-05
1.27834e-05
1.27834e-05
1.27821e-05
1.27817e-05
1.27808e-05
1.27803e-05
1.27796e-05
1.27792e-05
1.27786e-05
1.27783e-05
1.27778e-05
1.27775e-05
1.27771e-05
1.27769e-05
1.27767e-05
1.27765e-05
1.27763e-05
1.27763e-05
1.27762e-05
1.27762e-05
1.36772e-05
1.36772e-05
1.36757e-05
1.36752e-05
1.36741e-05
1.36737e-05
1.36727e-05
1.36724e-05
1.36716e-05
1.36713e-05
1.36707e-05
1.36704e-05
1.36699e-05
1.36698e-05
1.36694e-05
1.36693e-05
1.36691e-05
1.3669e-05
1.36689e-05
1.36689e-05
1.43055e-05
1.43055e-05
1.43039e-05
1.43033e-05
1.43022e-05
1.43016e-05
1.43007e-05
1.43002e-05
1.42995e-05
1.4299e-05
1.42984e-05
1.42981e-05
1.42975e-05
1.42973e-05
1.4297e-05
1.42968e-05
1.42966e-05
1.42965e-05
1.42964e-05
1.42964e-05
1.46969e-05
1.46969e-05
1.46952e-05
1.46946e-05
1.46934e-05
1.46928e-05
1.46918e-05
1.46913e-05
1.46905e-05
1.46901e-05
1.46894e-05
1.4689e-05
1.46885e-05
1.46882e-05
1.46879e-05
1.46877e-05
1.46875e-05
1.46874e-05
1.46873e-05
1.46873e-05
1.4928e-05
1.4928e-05
1.49261e-05
1.49256e-05
1.49244e-05
1.49238e-05
1.49227e-05
1.49223e-05
1.49214e-05
1.49209e-05
1.49203e-05
1.49198e-05
1.49194e-05
1.4919e-05
1.49187e-05
1.49185e-05
1.49183e-05
1.49182e-05
1.49181e-05
1.49181e-05
1.50659e-05
1.50659e-05
1.50641e-05
1.50635e-05
1.50621e-05
1.50616e-05
1.50605e-05
1.50601e-05
1.50591e-05
1.50587e-05
1.50579e-05
1.50577e-05
1.5057e-05
1.50568e-05
1.50563e-05
1.50562e-05
1.50559e-05
1.50559e-05
1.50558e-05
1.50557e-05
1.5155e-05
1.5155e-05
1.51532e-05
1.51525e-05
1.51513e-05
1.51506e-05
1.51496e-05
1.5149e-05
1.51481e-05
1.51477e-05
1.5147e-05
1.51466e-05
1.5146e-05
1.51458e-05
1.51454e-05
1.51452e-05
1.51449e-05
1.51449e-05
1.51448e-05
1.51447e-05
1.52212e-05
1.52211e-05
1.52193e-05
1.52187e-05
1.52173e-05
1.52168e-05
1.52156e-05
1.52152e-05
1.52142e-05
1.52138e-05
1.52131e-05
1.52126e-05
1.52122e-05
1.52118e-05
1.52115e-05
1.52112e-05
1.5211e-05
1.52109e-05
1.52108e-05
1.52108e-05
1.52784e-05
1.52784e-05
1.52765e-05
1.52759e-05
1.52745e-05
1.5274e-05
1.52727e-05
1.52724e-05
1.52714e-05
1.5271e-05
1.52703e-05
1.52698e-05
1.52693e-05
1.5269e-05
1.52686e-05
1.52684e-05
1.52682e-05
1.52681e-05
1.5268e-05
1.52679e-05
1.53343e-05
1.53343e-05
1.53324e-05
1.53317e-05
1.53305e-05
1.53298e-05
1.53288e-05
1.53282e-05
1.53273e-05
1.53268e-05
1.53261e-05
1.53257e-05
1.53252e-05
1.53249e-05
1.53245e-05
1.53243e-05
1.5324e-05
1.53239e-05
1.53238e-05
1.53238e-05
1.53934e-05
1.53933e-05
1.53915e-05
1.53907e-05
1.53895e-05
1.53888e-05
1.53878e-05
1.53872e-05
1.53863e-05
1.53858e-05
1.53851e-05
1.53847e-05
1.53841e-05
1.53838e-05
1.53834e-05
1.53832e-05
1.5383e-05
1.53829e-05
1.53828e-05
1.53827e-05
1.54584e-05
1.54584e-05
1.54564e-05
1.54558e-05
1.54545e-05
1.54539e-05
1.54527e-05
1.54522e-05
1.54512e-05
1.54508e-05
1.545e-05
1.54496e-05
1.54491e-05
1.54487e-05
1.54484e-05
1.54481e-05
1.54479e-05
1.54478e-05
1.54477e-05
1.54477e-05
1.55316e-05
1.55315e-05
1.55297e-05
1.55289e-05
1.55277e-05
1.55269e-05
1.55259e-05
1.55253e-05
1.55244e-05
1.55238e-05
1.55232e-05
1.55227e-05
1.55222e-05
1.55219e-05
1.55214e-05
1.55212e-05
1.5521e-05
1.55209e-05
1.55208e-05
1.55208e-05
1.56139e-05
1.56139e-05
1.56119e-05
1.56113e-05
1.56098e-05
1.56093e-05
1.5608e-05
1.56076e-05
1.56065e-05
1.56061e-05
1.56053e-05
1.56049e-05
1.56044e-05
1.5604e-05
1.56037e-05
1.56034e-05
1.56032e-05
1.56031e-05
1.5603e-05
1.56029e-05
1.57035e-05
1.57035e-05
1.57015e-05
1.57008e-05
1.56995e-05
1.56988e-05
1.56977e-05
1.5697e-05
1.56962e-05
1.56956e-05
1.56949e-05
1.56945e-05
1.56939e-05
1.56936e-05
1.56932e-05
1.56929e-05
1.56927e-05
1.56926e-05
1.56925e-05
1.56925e-05
1.57933e-05
1.57933e-05
1.57912e-05
1.57906e-05
1.57892e-05
1.57886e-05
1.57874e-05
1.57868e-05
1.57859e-05
1.57853e-05
1.57847e-05
1.57841e-05
1.57836e-05
1.57832e-05
1.57829e-05
1.57826e-05
1.57824e-05
1.57823e-05
1.57822e-05
1.57821e-05
1.58689e-05
1.58689e-05
1.58669e-05
1.58663e-05
1.58649e-05
1.58643e-05
1.58631e-05
1.58626e-05
1.58615e-05
1.58612e-05
1.58602e-05
1.586e-05
1.58593e-05
1.58591e-05
1.58585e-05
1.58585e-05
1.58581e-05
1.58581e-05
1.58579e-05
1.58579e-05
1.59023e-05
1.59023e-05
1.59023e-05
1.59022e-05
1.59022e-05
1.59022e-05
1.59022e-05
1.59022e-05
1.59022e-05
1.59022e-05
1.59021e-05
1.59022e-05
1.59021e-05
1.59022e-05
1.59021e-05
1.59021e-05
1.59021e-05
1.59021e-05
1.59021e-05
1.59021e-05
)
;

boundaryField
{
    movingWall
    {
        type            kqRWallFunction;
        value           nonuniform List<scalar> 
20
(
1.59023e-05
1.59023e-05
1.59023e-05
1.59022e-05
1.59022e-05
1.59022e-05
1.59022e-05
1.59022e-05
1.59022e-05
1.59022e-05
1.59021e-05
1.59022e-05
1.59021e-05
1.59022e-05
1.59021e-05
1.59021e-05
1.59021e-05
1.59021e-05
1.59021e-05
1.59021e-05
)
;
    }
    fixedWalls
    {
        type            kqRWallFunction;
        value           nonuniform List<scalar> 
60
(
1.10227e-05
1.17649e-05
1.27834e-05
1.36772e-05
1.43055e-05
1.46969e-05
1.4928e-05
1.50659e-05
1.5155e-05
1.52212e-05
1.52784e-05
1.53343e-05
1.53934e-05
1.54584e-05
1.55316e-05
1.56139e-05
1.57035e-05
1.57933e-05
1.58689e-05
1.59023e-05
1.10225e-05
1.17589e-05
1.27762e-05
1.36689e-05
1.42964e-05
1.46873e-05
1.49181e-05
1.50557e-05
1.51447e-05
1.52108e-05
1.52679e-05
1.53238e-05
1.53827e-05
1.54477e-05
1.55208e-05
1.56029e-05
1.56925e-05
1.57821e-05
1.58579e-05
1.59021e-05
1.10227e-05
1.10226e-05
1.10226e-05
1.10226e-05
1.10226e-05
1.10226e-05
1.10226e-05
1.10226e-05
1.10226e-05
1.10226e-05
1.10225e-05
1.10225e-05
1.10225e-05
1.10225e-05
1.10225e-05
1.10225e-05
1.10225e-05
1.10225e-05
1.10225e-05
1.10225e-05
)
;
    }
    frontAndBack
    {
        type            empty;
    }
}


// ************************************************************************* //
