/*--------------------------------*- C++ -*----------------------------------*\
| =========                 |                                                 |
| \\      /  F ield         | OpenFOAM: The Open Source CFD Toolbox           |
|  \\    /   O peration     | Version:  2506                                  |
|   \\  /    A nd           | Website:  www.openfoam.com                      |
|    \\/     M anipulation  |                                                 |
\*---------------------------------------------------------------------------*/
FoamFile
{
    version     2.0;
    format      ascii;
    arch        "LSB;label=32;scalar=64";
    class       volScalarField;
    location    "5.5";
    object      turbulenceProperties:nuTilda;
}
// * * * * * * * * * * * * * * * * * * * * * * * * * * * * * * * * * * * * * //

dimensions      [0 2 -1 0 0 0 0];

internalField   nonuniform List<scalar> 
400
(
1.85694e-06
1.85693e-06
1.85694e-06
1.85693e-06
1.85694e-06
1.85693e-06
1.85694e-06
1.85693e-06
1.85693e-06
1.85693e-06
1.85693e-06
1.85693e-06
1.85693e-06
1.85693e-06
1.85693e-06
1.85693e-06
1.85693e-06
1.85693e-06
1.85693e-06
1.85693e-06
1.9179e-06
1.95771e-06
1.95406e-06
1.95253e-06
1.94956e-06
1.948e-06
1.94508e-06
1.94348e-06
1.94061e-06
1.93897e-06
1.93613e-06
1.93447e-06
1.93166e-06
1.92997e-06
1.92719e-06
1.92549e-06
1.92273e-06
1.921e-06
1.91963e-06
1.91741e-06
1.9986e-06
2.04254e-06
2.03844e-06
2.03673e-06
2.0334e-06
2.03167e-06
2.02842e-06
2.02665e-06
2.02344e-06
2.02165e-06
2.01849e-06
2.01669e-06
2.01357e-06
2.01174e-06
2.00868e-06
2.00683e-06
2.00382e-06
2.00195e-06
2.00045e-06
1.99804e-06
2.06691e-06
2.11408e-06
2.10966e-06
2.10785e-06
2.10425e-06
2.10242e-06
2.09886e-06
2.09702e-06
2.09352e-06
2.09165e-06
2.08823e-06
2.08631e-06
2.08294e-06
2.081e-06
2.07769e-06
2.07573e-06
2.07248e-06
2.07048e-06
2.06887e-06
2.06629e-06
2.11366e-06
2.16315e-06
2.15853e-06
2.1566e-06
2.15285e-06
2.15089e-06
2.14721e-06
2.14522e-06
2.1416e-06
2.1396e-06
2.13601e-06
2.134e-06
2.13047e-06
2.12843e-06
2.12496e-06
2.12289e-06
2.11949e-06
2.11739e-06
2.1157e-06
2.11299e-06
2.14229e-06
2.19325e-06
2.18848e-06
2.1865e-06
2.18262e-06
2.18062e-06
2.17683e-06
2.17478e-06
2.17104e-06
2.16898e-06
2.1653e-06
2.16321e-06
2.15959e-06
2.15748e-06
2.15392e-06
2.15178e-06
2.14828e-06
2.14612e-06
2.14438e-06
2.14159e-06
2.15903e-06
2.21086e-06
2.20598e-06
2.204e-06
2.20003e-06
2.19801e-06
2.19412e-06
2.19207e-06
2.18825e-06
2.18615e-06
2.18243e-06
2.18027e-06
2.17663e-06
2.17445e-06
2.17086e-06
2.16866e-06
2.16512e-06
2.16291e-06
2.16115e-06
2.15831e-06
2.16895e-06
2.22128e-06
2.21639e-06
2.21435e-06
2.21035e-06
2.20832e-06
2.20439e-06
2.20232e-06
2.19845e-06
2.19637e-06
2.19255e-06
2.19045e-06
2.18668e-06
2.18456e-06
2.18087e-06
2.1787e-06
2.17509e-06
2.17288e-06
2.17109e-06
2.16823e-06
2.17534e-06
2.22799e-06
2.22308e-06
2.22101e-06
2.21702e-06
2.21493e-06
2.21101e-06
2.2089e-06
2.20503e-06
2.20291e-06
2.1991e-06
2.19694e-06
2.1932e-06
2.19102e-06
2.18734e-06
2.18513e-06
2.18152e-06
2.17928e-06
2.17749e-06
2.17461e-06
2.18006e-06
2.23296e-06
2.22802e-06
2.22595e-06
2.22191e-06
2.21986e-06
2.21586e-06
2.21379e-06
2.20989e-06
2.20775e-06
2.20395e-06
2.20175e-06
2.19803e-06
2.1958e-06
2.19214e-06
2.18989e-06
2.18628e-06
2.18402e-06
2.18223e-06
2.17933e-06
2.18415e-06
2.23725e-06
2.23227e-06
2.23022e-06
2.22614e-06
2.2241e-06
2.22008e-06
2.218e-06
2.21408e-06
2.21194e-06
2.20812e-06
2.20591e-06
2.20218e-06
2.19994e-06
2.19626e-06
2.19401e-06
2.19038e-06
2.18812e-06
2.18631e-06
2.18341e-06
2.18812e-06
2.24142e-06
2.23643e-06
2.23435e-06
2.2303e-06
2.22819e-06
2.22424e-06
2.22208e-06
2.2182e-06
2.21601e-06
2.21218e-06
2.20998e-06
2.20621e-06
2.20399e-06
2.20027e-06
2.19803e-06
2.19438e-06
2.19211e-06
2.1903e-06
2.18738e-06
2.19231e-06
2.24581e-06
2.24083e-06
2.23871e-06
2.23467e-06
2.23254e-06
2.22857e-06
2.2264e-06
2.2225e-06
2.2203e-06
2.21647e-06
2.21425e-06
2.21047e-06
2.20823e-06
2.20451e-06
2.20225e-06
2.19859e-06
2.19631e-06
2.19449e-06
2.19156e-06
2.19692e-06
2.25066e-06
2.24561e-06
2.24354e-06
2.23943e-06
2.23734e-06
2.2333e-06
2.23117e-06
2.2272e-06
2.22505e-06
2.22116e-06
2.21894e-06
2.21516e-06
2.2129e-06
2.20917e-06
2.20689e-06
2.20323e-06
2.20093e-06
2.19911e-06
2.19616e-06
2.20208e-06
2.25606e-06
2.25106e-06
2.24891e-06
2.24483e-06
2.24268e-06
2.23867e-06
2.23648e-06
2.23255e-06
2.23033e-06
2.22646e-06
2.22422e-06
2.22041e-06
2.21815e-06
2.21439e-06
2.21212e-06
2.20842e-06
2.20612e-06
2.20429e-06
2.20133e-06
2.20789e-06
2.26218e-06
2.25707e-06
2.25499e-06
2.25083e-06
2.24872e-06
2.24462e-06
2.24249e-06
2.23847e-06
2.23629e-06
2.23238e-06
2.23012e-06
2.22631e-06
2.22402e-06
2.22026e-06
2.21796e-06
2.21425e-06
2.21194e-06
2.21009e-06
2.20712e-06
2.21418e-06
2.26877e-06
2.26367e-06
2.26153e-06
2.25739e-06
2.25522e-06
2.25116e-06
2.24895e-06
2.24497e-06
2.24274e-06
2.23881e-06
2.23656e-06
2.23269e-06
2.23042e-06
2.22661e-06
2.22432e-06
2.22058e-06
2.21825e-06
2.2164e-06
2.21341e-06
2.22047e-06
2.27537e-06
2.27019e-06
2.26809e-06
2.26389e-06
2.26175e-06
2.25762e-06
2.25545e-06
2.25142e-06
2.24916e-06
2.24525e-06
2.24295e-06
2.23909e-06
2.23678e-06
2.23298e-06
2.23065e-06
2.2269e-06
2.22456e-06
2.22269e-06
2.21969e-06
2.22574e-06
2.27973e-06
2.27478e-06
2.27271e-06
2.26864e-06
2.26656e-06
2.26254e-06
2.26042e-06
2.25645e-06
2.25428e-06
2.25037e-06
2.24816e-06
2.2443e-06
2.24205e-06
2.23825e-06
2.23594e-06
2.23221e-06
2.22983e-06
2.22799e-06
2.22497e-06
2.22807e-06
2.22807e-06
2.22806e-06
2.22806e-06
2.22806e-06
2.22806e-06
2.22806e-06
2.22806e-06
2.22805e-06
2.22806e-06
2.22805e-06
2.22806e-06
2.22805e-06
2.22806e-06
2.22805e-06
2.22805e-06
2.22805e-06
2.22805e-06
2.22805e-06
2.22805e-06
)
;

boundaryField
{
    movingWall
    {
        type            calculated;
        value           nonuniform List<scalar> 
20
(
2.22807e-06
2.22807e-06
2.22806e-06
2.22806e-06
2.22806e-06
2.22806e-06
2.22806e-06
2.22806e-06
2.22805e-06
2.22806e-06
2.22805e-06
2.22806e-06
2.22805e-06
2.22806e-06
2.22805e-06
2.22805e-06
2.22805e-06
2.22805e-06
2.22805e-06
2.22805e-06
)
;
    }
    fixedWalls
    {
        type            calculated;
        value           nonuniform List<scalar> 
60
(
1.85694e-06
1.9179e-06
1.9986e-06
2.06691e-06
2.11366e-06
2.14229e-06
2.15903e-06
2.16895e-06
2.17534e-06
2.18006e-06
2.18415e-06
2.18812e-06
2.19231e-06
2.19692e-06
2.20208e-06
2.20789e-06
2.21418e-06
2.22047e-06
2.22574e-06
2.22807e-06
1.85693e-06
1.91741e-06
1.99804e-06
2.06629e-06
2.11299e-06
2.14159e-06
2.15831e-06
2.16823e-06
2.17461e-06
2.17933e-06
2.18341e-06
2.18738e-06
2.19156e-06
2.19616e-06
2.20133e-06
2.20712e-06
2.21341e-06
2.21969e-06
2.22497e-06
2.22805e-06
1.85694e-06
1.85693e-06
1.85694e-06
1.85693e-06
1.85694e-06
1.85693e-06
1.85694e-06
1.85693e-06
1.85693e-06
1.85693e-06
1.85693e-06
1.85693e-06
1.85693e-06
1.85693e-06
1.85693e-06
1.85693e-06
1.85693e-06
1.85693e-06
1.85693e-06
1.85693e-06
)
;
    }
    frontAndBack
    {
        type            empty;
    }
}


// ************************************************************************* //
