/*--------------------------------*- C++ -*----------------------------------*\
| =========                 |                                                 |
| \\      /  F ield         | OpenFOAM: The Open Source CFD Toolbox           |
|  \\    /   O peration     | Version:  2506                                  |
|   \\  /    A nd           | Website:  www.openfoam.com                      |
|    \\/     M anipulation  |                                                 |
\*---------------------------------------------------------------------------*/
FoamFile
{
    version     2.0;
    format      ascii;
    arch        "LSB;label=32;scalar=64";
    class       volScalarField;
    location    "5.5";
    object      turbulenceProperties:L;
}
// * * * * * * * * * * * * * * * * * * * * * * * * * * * * * * * * * * * * * //

dimensions      [0 1 0 0 0 0 0];

internalField   nonuniform List<scalar> 
400
(
0.00102116
0.00102116
0.00102116
0.00102116
0.00102116
0.00102116
0.00102116
0.00102116
0.00102116
0.00102116
0.00102116
0.00102116
0.00102116
0.00102116
0.00102116
0.00102116
0.00102116
0.00102116
0.00102116
0.00102116
0.00102087
0.00104206
0.00104017
0.00103937
0.00103782
0.00103701
0.00103548
0.00103464
0.00103313
0.00103228
0.00103078
0.00102991
0.00102842
0.00102753
0.00102606
0.00102516
0.0010237
0.00102278
0.00102205
0.00102087
0.00102057
0.001043
0.00104097
0.00104011
0.00103845
0.00103758
0.00103595
0.00103506
0.00103345
0.00103255
0.00103095
0.00103004
0.00102846
0.00102754
0.00102599
0.00102505
0.00102351
0.00102256
0.0010218
0.00102057
0.00102038
0.00104367
0.00104154
0.00104067
0.00103893
0.00103804
0.00103632
0.00103543
0.00103373
0.00103281
0.00103115
0.00103021
0.00102857
0.00102762
0.001026
0.00102503
0.00102343
0.00102245
0.00102166
0.00102038
0.00102029
0.00104418
0.00104201
0.0010411
0.00103933
0.0010384
0.00103666
0.00103571
0.001034
0.00103304
0.00103134
0.00103037
0.00102869
0.00102771
0.00102605
0.00102506
0.00102342
0.00102241
0.0010216
0.00102029
0.00102025
0.00104451
0.00104231
0.00104138
0.00103958
0.00103864
0.00103687
0.00103592
0.00103416
0.0010332
0.00103147
0.00103048
0.00102878
0.00102778
0.0010261
0.00102509
0.00102343
0.0010224
0.00102158
0.00102025
0.00102023
0.00104472
0.00104248
0.00104156
0.00103973
0.00103879
0.00103699
0.00103604
0.00103427
0.00103329
0.00103155
0.00103055
0.00102884
0.00102782
0.00102614
0.00102511
0.00102344
0.0010224
0.00102157
0.00102023
0.00102021
0.00104483
0.00104259
0.00104166
0.00103982
0.00103888
0.00103707
0.00103611
0.00103433
0.00103336
0.00103159
0.00103061
0.00102886
0.00102786
0.00102615
0.00102513
0.00102344
0.0010224
0.00102156
0.00102022
0.00102021
0.0010449
0.00104266
0.00104171
0.00103988
0.00103893
0.00103712
0.00103615
0.00103437
0.00103338
0.00103163
0.00103062
0.00102889
0.00102787
0.00102616
0.00102513
0.00102345
0.0010224
0.00102156
0.00102021
0.0010202
0.00104495
0.0010427
0.00104176
0.00103991
0.00103897
0.00103714
0.00103619
0.00103439
0.00103341
0.00103165
0.00103064
0.00102891
0.00102788
0.00102618
0.00102513
0.00102345
0.0010224
0.00102156
0.0010202
0.00102019
0.001045
0.00104274
0.0010418
0.00103994
0.001039
0.00103717
0.00103621
0.00103441
0.00103343
0.00103166
0.00103065
0.00102892
0.00102789
0.00102618
0.00102514
0.00102345
0.00102239
0.00102155
0.0010202
0.00102018
0.00104503
0.00104277
0.00104183
0.00103998
0.00103902
0.00103721
0.00103622
0.00103444
0.00103344
0.00103168
0.00103066
0.00102892
0.0010279
0.00102618
0.00102514
0.00102344
0.00102239
0.00102155
0.00102019
0.00102018
0.00104507
0.00104282
0.00104186
0.00104002
0.00103905
0.00103723
0.00103625
0.00103446
0.00103346
0.00103169
0.00103068
0.00102893
0.0010279
0.00102618
0.00102514
0.00102344
0.00102239
0.00102154
0.00102018
0.00102017
0.00104512
0.00104284
0.0010419
0.00104004
0.00103909
0.00103725
0.00103628
0.00103447
0.00103348
0.0010317
0.00103069
0.00102894
0.00102791
0.00102619
0.00102514
0.00102344
0.00102238
0.00102154
0.00102017
0.00102015
0.00104516
0.0010429
0.00104193
0.00104009
0.00103911
0.00103729
0.0010363
0.0010345
0.0010335
0.00103172
0.0010307
0.00102895
0.00102792
0.00102619
0.00102514
0.00102344
0.00102237
0.00102153
0.00102016
0.00102014
0.00104523
0.00104294
0.00104199
0.00104012
0.00103916
0.00103731
0.00103634
0.00103452
0.00103352
0.00103174
0.00103071
0.00102897
0.00102792
0.0010262
0.00102514
0.00102343
0.00102237
0.00102152
0.00102015
0.00102013
0.00104528
0.00104299
0.00104203
0.00104017
0.00103919
0.00103736
0.00103636
0.00103455
0.00103354
0.00103176
0.00103073
0.00102897
0.00102793
0.00102619
0.00102514
0.00102343
0.00102236
0.00102151
0.00102013
0.00102011
0.00104533
0.00104302
0.00104208
0.00104019
0.00103923
0.00103738
0.00103639
0.00103457
0.00103356
0.00103178
0.00103074
0.00102898
0.00102793
0.0010262
0.00102514
0.00102342
0.00102235
0.00102149
0.00102011
0.00102009
0.00104484
0.00104263
0.00104171
0.00103989
0.00103895
0.00103715
0.00103619
0.00103441
0.00103343
0.00103167
0.00103066
0.00102892
0.00102788
0.00102616
0.00102511
0.00102341
0.00102232
0.00102148
0.0010201
0.00102009
0.00102009
0.00102009
0.00102009
0.00102009
0.00102009
0.00102009
0.00102009
0.00102009
0.00102009
0.00102009
0.00102009
0.00102009
0.00102009
0.00102009
0.00102009
0.00102009
0.00102009
0.00102009
0.00102009
)
;

boundaryField
{
    movingWall
    {
        type            calculated;
        value           nonuniform List<scalar> 
20
(
0.00102009
0.00102009
0.00102009
0.00102009
0.00102009
0.00102009
0.00102009
0.00102009
0.00102009
0.00102009
0.00102009
0.00102009
0.00102009
0.00102009
0.00102009
0.00102009
0.00102009
0.00102009
0.00102009
0.00102009
)
;
    }
    fixedWalls
    {
        type            calculated;
        value           nonuniform List<scalar> 
60
(
0.00102116
0.00102087
0.00102057
0.00102038
0.00102029
0.00102025
0.00102023
0.00102021
0.00102021
0.0010202
0.00102019
0.00102018
0.00102018
0.00102017
0.00102015
0.00102014
0.00102013
0.00102011
0.00102009
0.00102009
0.00102116
0.00102087
0.00102057
0.00102038
0.00102029
0.00102025
0.00102023
0.00102022
0.00102021
0.0010202
0.0010202
0.00102019
0.00102018
0.00102017
0.00102016
0.00102015
0.00102013
0.00102011
0.0010201
0.00102009
0.00102116
0.00102116
0.00102116
0.00102116
0.00102116
0.00102116
0.00102116
0.00102116
0.00102116
0.00102116
0.00102116
0.00102116
0.00102116
0.00102116
0.00102116
0.00102116
0.00102116
0.00102116
0.00102116
0.00102116
)
;
    }
    frontAndBack
    {
        type            empty;
    }
}


// ************************************************************************* //
