/*--------------------------------*- C++ -*----------------------------------*\
| =========                 |                                                 |
| \\      /  F ield         | OpenFOAM: The Open Source CFD Toolbox           |
|  \\    /   O peration     | Version:  2506                                  |
|   \\  /    A nd           | Website:  www.openfoam.com                      |
|    \\/     M anipulation  |                                                 |
\*---------------------------------------------------------------------------*/
FoamFile
{
    version     2.0;
    format      ascii;
    arch        "LSB;label=32;scalar=64";
    class       volSymmTensorField;
    location    "5.5";
    object      turbulenceProperties:R;
}
// * * * * * * * * * * * * * * * * * * * * * * * * * * * * * * * * * * * * * //

dimensions      [0 2 -2 0 0 0 0];

internalField   nonuniform List<symmTensor> 
400
(
(7.34844e-06 -9.59956e-18 -0 7.34844e-06 -0 7.34844e-06)
(7.34843e-06 1.0147e-17 -0 7.34843e-06 -0 7.34843e-06)
(7.34841e-06 -1.91723e-18 -0 7.34841e-06 -0 7.34841e-06)
(7.34842e-06 5.69397e-19 -0 7.34842e-06 -0 7.34842e-06)
(7.34839e-06 -5.62851e-21 -0 7.34839e-06 -0 7.34839e-06)
(7.3484e-06 1.52067e-19 -0 7.3484e-06 -0 7.3484e-06)
(7.34838e-06 -1.38547e-21 -0 7.34838e-06 -0 7.34838e-06)
(7.34839e-06 1.68256e-20 -0 7.34839e-06 -0 7.34839e-06)
(7.34837e-06 2.18254e-20 -0 7.34837e-06 -0 7.34837e-06)
(7.34837e-06 -4.62767e-20 -0 7.34837e-06 -0 7.34837e-06)
(7.34837e-06 -1.82616e-20 -0 7.34837e-06 -0 7.34837e-06)
(7.34836e-06 -6.42055e-20 -0 7.34836e-06 -0 7.34836e-06)
(7.34836e-06 -3.60867e-21 -0 7.34836e-06 -0 7.34836e-06)
(7.34836e-06 2.37447e-20 -0 7.34836e-06 -0 7.34836e-06)
(7.34836e-06 1.18639e-19 -0 7.34836e-06 -0 7.34836e-06)
(7.34836e-06 -6.41382e-21 -0 7.34836e-06 -0 7.34836e-06)
(7.34836e-06 1.03504e-19 -0 7.34836e-06 -0 7.34836e-06)
(7.34836e-06 -4.99147e-20 -0 7.34836e-06 -0 7.34836e-06)
(7.34836e-06 2.93064e-22 -0 7.34836e-06 -0 7.34836e-06)
(7.34836e-06 1.06199e-19 -0 7.34836e-06 -0 7.34836e-06)
(7.84329e-06 -7.98494e-18 -0 7.84329e-06 -0 7.84329e-06)
(7.84329e-06 9.0552e-18 -0 7.84329e-06 -0 7.84329e-06)
(7.84258e-06 -1.81674e-18 -0 7.84258e-06 -0 7.84258e-06)
(7.84231e-06 4.42725e-19 -0 7.84231e-06 -0 7.84231e-06)
(7.84183e-06 -4.03781e-20 -0 7.84183e-06 -0 7.84183e-06)
(7.84157e-06 3.94729e-20 -0 7.84157e-06 -0 7.84157e-06)
(7.84119e-06 8.48463e-20 -0 7.84119e-06 -0 7.84119e-06)
(7.84093e-06 9.52376e-20 -0 7.84093e-06 -0 7.84093e-06)
(7.84064e-06 9.55977e-20 -0 7.84064e-06 -0 7.84064e-06)
(7.84042e-06 1.23032e-19 -0 7.84042e-06 -0 7.84042e-06)
(7.84017e-06 -3.29412e-20 -0 7.84017e-06 -0 7.84017e-06)
(7.83999e-06 4.24396e-20 -0 7.83999e-06 -0 7.83999e-06)
(7.8398e-06 -2.84572e-21 -0 7.8398e-06 -0 7.8398e-06)
(7.83966e-06 4.77911e-20 -0 7.83966e-06 -0 7.83966e-06)
(7.83952e-06 4.9284e-20 -0 7.83952e-06 -0 7.83952e-06)
(7.83943e-06 7.96823e-20 -0 7.83943e-06 -0 7.83943e-06)
(7.83934e-06 2.25469e-20 -0 7.83934e-06 -0 7.83934e-06)
(7.8393e-06 6.32704e-20 -0 7.8393e-06 -0 7.8393e-06)
(7.83927e-06 3.15401e-20 -0 7.83927e-06 -0 7.83927e-06)
(7.83926e-06 -2.25877e-20 -0 7.83926e-06 -0 7.83926e-06)
(8.5223e-06 1.96402e-17 -0 8.5223e-06 -0 8.5223e-06)
(8.52228e-06 -2.01613e-17 -0 8.52228e-06 -0 8.52228e-06)
(8.52142e-06 4.00982e-18 -0 8.52142e-06 -0 8.52142e-06)
(8.52111e-06 -1.11228e-18 -0 8.52111e-06 -0 8.52111e-06)
(8.52052e-06 -8.71046e-21 -0 8.52052e-06 -0 8.52052e-06)
(8.52021e-06 -2.80471e-19 -0 8.52021e-06 -0 8.52021e-06)
(8.51976e-06 -2.24203e-19 -0 8.51976e-06 -0 8.51976e-06)
(8.51947e-06 -2.23428e-19 -0 8.51947e-06 -0 8.51947e-06)
(8.51909e-06 -2.47409e-19 -0 8.51909e-06 -0 8.51909e-06)
(8.51885e-06 -2.26076e-19 -0 8.51885e-06 -0 8.51885e-06)
(8.51852e-06 -6.38002e-20 -0 8.51852e-06 -0 8.51852e-06)
(8.51834e-06 -4.04493e-20 -0 8.51834e-06 -0 8.51834e-06)
(8.51808e-06 -2.73626e-20 -0 8.51808e-06 -0 8.51808e-06)
(8.51794e-06 -3.22283e-20 -0 8.51794e-06 -0 8.51794e-06)
(8.51777e-06 -1.05139e-19 -0 8.51777e-06 -0 8.51777e-06)
(8.51767e-06 2.15666e-20 -0 8.51767e-06 -0 8.51767e-06)
(8.51756e-06 -5.02593e-20 -0 8.51756e-06 -0 8.51756e-06)
(8.51752e-06 -2.95305e-20 -0 8.51752e-06 -0 8.51752e-06)
(8.51748e-06 -3.80075e-20 -0 8.51748e-06 -0 8.51748e-06)
(8.51746e-06 -2.20674e-19 -0 8.51746e-06 -0 8.51746e-06)
(9.11815e-06 -9.36799e-18 -0 9.11815e-06 -0 9.11815e-06)
(9.11815e-06 1.12443e-17 -0 9.11815e-06 -0 9.11815e-06)
(9.11711e-06 -2.20898e-18 -0 9.11711e-06 -0 9.11711e-06)
(9.11681e-06 5.69962e-19 -0 9.11681e-06 -0 9.11681e-06)
(9.11609e-06 1.23366e-21 -0 9.11609e-06 -0 9.11609e-06)
(9.11581e-06 1.75141e-19 -0 9.11581e-06 -0 9.11581e-06)
(9.11516e-06 1.37653e-19 -0 9.11516e-06 -0 9.11516e-06)
(9.11496e-06 2.21353e-19 -0 9.11496e-06 -0 9.11496e-06)
(9.1144e-06 1.85609e-20 -0 9.1144e-06 -0 9.1144e-06)
(9.11423e-06 1.30112e-19 -0 9.11423e-06 -0 9.11423e-06)
(9.1138e-06 7.57098e-20 -0 9.1138e-06 -0 9.1138e-06)
(9.11363e-06 9.71162e-20 -0 9.11363e-06 -0 9.11363e-06)
(9.1133e-06 1.03519e-20 -0 9.1133e-06 -0 9.1133e-06)
(9.11317e-06 1.54854e-20 -0 9.11317e-06 -0 9.11317e-06)
(9.11293e-06 3.11439e-20 -0 9.11293e-06 -0 9.11293e-06)
(9.11286e-06 -1.27087e-19 -0 9.11286e-06 -0 9.11286e-06)
(9.1127e-06 2.86115e-20 -0 9.1127e-06 -0 9.1127e-06)
(9.11267e-06 7.02992e-21 -0 9.11267e-06 -0 9.11267e-06)
(9.11262e-06 4.39602e-20 -0 9.11262e-06 -0 9.11262e-06)
(9.11261e-06 -3.44894e-20 -0 9.11261e-06 -0 9.11261e-06)
(9.53702e-06 -3.03181e-18 -0 9.53702e-06 -0 9.53702e-06)
(9.53699e-06 -5.3118e-19 -0 9.53699e-06 -0 9.53699e-06)
(9.53591e-06 -2.21254e-19 -0 9.53591e-06 -0 9.53591e-06)
(9.53552e-06 -1.03321e-19 -0 9.53552e-06 -0 9.53552e-06)
(9.53481e-06 -7.04844e-20 -0 9.53481e-06 -0 9.53481e-06)
(9.53441e-06 -5.25412e-20 -0 9.53441e-06 -0 9.53441e-06)
(9.53381e-06 6.87756e-21 -0 9.53381e-06 -0 9.53381e-06)
(9.53346e-06 -2.79185e-20 -0 9.53346e-06 -0 9.53346e-06)
(9.53297e-06 2.25729e-20 -0 9.53297e-06 -0 9.53297e-06)
(9.5327e-06 -1.1649e-19 -0 9.5327e-06 -0 9.5327e-06)
(9.53225e-06 -1.02575e-19 -0 9.53225e-06 -0 9.53225e-06)
(9.53206e-06 -2.41139e-19 -0 9.53206e-06 -0 9.53206e-06)
(9.5317e-06 -1.05798e-19 -0 9.5317e-06 -0 9.5317e-06)
(9.53155e-06 -3.44381e-20 -0 9.53155e-06 -0 9.53155e-06)
(9.5313e-06 -5.8131e-20 -0 9.5313e-06 -0 9.5313e-06)
(9.5312e-06 -5.54643e-20 -0 9.5312e-06 -0 9.5312e-06)
(9.53106e-06 -1.60255e-19 -0 9.53106e-06 -0 9.53106e-06)
(9.53101e-06 3.70649e-21 -0 9.53101e-06 -0 9.53101e-06)
(9.53095e-06 -7.51029e-21 -0 9.53095e-06 -0 9.53095e-06)
(9.53094e-06 4.68502e-20 -0 9.53094e-06 -0 9.53094e-06)
(9.79795e-06 5.42405e-18 -0 9.79795e-06 -0 9.79795e-06)
(9.79794e-06 -5.2583e-18 -0 9.79794e-06 -0 9.79794e-06)
(9.79678e-06 9.51878e-19 -0 9.79678e-06 -0 9.79678e-06)
(9.79637e-06 -2.53941e-19 -0 9.79637e-06 -0 9.79637e-06)
(9.79559e-06 2.41617e-20 -0 9.79559e-06 -0 9.79559e-06)
(9.79519e-06 -1.06411e-20 -0 9.79519e-06 -0 9.79519e-06)
(9.79456e-06 -9.07353e-20 -0 9.79456e-06 -0 9.79456e-06)
(9.79421e-06 -1.24772e-19 -0 9.79421e-06 -0 9.79421e-06)
(9.79365e-06 -8.07544e-20 -0 9.79365e-06 -0 9.79365e-06)
(9.79338e-06 -1.1973e-19 -0 9.79338e-06 -0 9.79338e-06)
(9.79292e-06 -1.28034e-19 -0 9.79292e-06 -0 9.79292e-06)
(9.79268e-06 -3.06682e-20 -0 9.79268e-06 -0 9.79268e-06)
(9.79234e-06 -8.85198e-20 -0 9.79234e-06 -0 9.79234e-06)
(9.79216e-06 -3.50587e-23 -0 9.79216e-06 -0 9.79216e-06)
(9.7919e-06 -9.99874e-21 -0 9.7919e-06 -0 9.7919e-06)
(9.7918e-06 -1.56512e-21 -0 9.7918e-06 -0 9.7918e-06)
(9.79165e-06 -3.06024e-20 -0 9.79165e-06 -0 9.79165e-06)
(9.79159e-06 1.2604e-20 -0 9.79159e-06 -0 9.79159e-06)
(9.79154e-06 -1.60382e-20 -0 9.79154e-06 -0 9.79154e-06)
(9.79152e-06 -5.1381e-20 -0 9.79152e-06 -0 9.79152e-06)
(9.95201e-06 -3.53557e-18 -0 9.95201e-06 -0 9.95201e-06)
(9.95203e-06 5.81623e-18 -0 9.95203e-06 -0 9.95203e-06)
(9.95076e-06 -7.2335e-19 -0 9.95076e-06 -0 9.95076e-06)
(9.95043e-06 4.85129e-19 -0 9.95043e-06 -0 9.95043e-06)
(9.94957e-06 1.65958e-19 -0 9.94957e-06 -0 9.94957e-06)
(9.94921e-06 2.02885e-19 -0 9.94921e-06 -0 9.94921e-06)
(9.94847e-06 2.79118e-19 -0 9.94847e-06 -0 9.94847e-06)
(9.94819e-06 2.30724e-19 -0 9.94819e-06 -0 9.94819e-06)
(9.94757e-06 1.64384e-19 -0 9.94757e-06 -0 9.94757e-06)
(9.94727e-06 1.18149e-19 -0 9.94727e-06 -0 9.94727e-06)
(9.94685e-06 2.2102e-19 -0 9.94685e-06 -0 9.94685e-06)
(9.94654e-06 1.01166e-19 -0 9.94654e-06 -0 9.94654e-06)
(9.94626e-06 1.58691e-19 -0 9.94626e-06 -0 9.94626e-06)
(9.94601e-06 1.27841e-19 -0 9.94601e-06 -0 9.94601e-06)
(9.94581e-06 1.34123e-19 -0 9.94581e-06 -0 9.94581e-06)
(9.94565e-06 9.14889e-20 -0 9.94565e-06 -0 9.94565e-06)
(9.94552e-06 2.67462e-20 -0 9.94552e-06 -0 9.94552e-06)
(9.94545e-06 6.46896e-20 -0 9.94545e-06 -0 9.94545e-06)
(9.94539e-06 1.52168e-20 -0 9.94539e-06 -0 9.94539e-06)
(9.94537e-06 4.9302e-20 -0 9.94537e-06 -0 9.94537e-06)
(1.00439e-05 1.77409e-18 -0 1.00439e-05 -0 1.00439e-05)
(1.00439e-05 -1.4574e-18 -0 1.00439e-05 -0 1.00439e-05)
(1.00427e-05 3.35801e-19 -0 1.00427e-05 -0 1.00427e-05)
(1.00423e-05 -1.86811e-19 -0 1.00423e-05 -0 1.00423e-05)
(1.00414e-05 1.72615e-20 -0 1.00414e-05 -0 1.00414e-05)
(1.00411e-05 -2.04062e-20 -0 1.00411e-05 -0 1.00411e-05)
(1.00403e-05 -1.06231e-19 -0 1.00403e-05 -0 1.00403e-05)
(1.004e-05 -1.04954e-19 -0 1.004e-05 -0 1.004e-05)
(1.00394e-05 -5.31314e-20 -0 1.00394e-05 -0 1.00394e-05)
(1.00392e-05 -3.92906e-20 -0 1.00392e-05 -0 1.00392e-05)
(1.00386e-05 -1.5673e-19 -0 1.00386e-05 -0 1.00386e-05)
(1.00385e-05 9.69636e-21 -0 1.00385e-05 -0 1.00385e-05)
(1.0038e-05 1.06561e-19 -0 1.0038e-05 -0 1.0038e-05)
(1.00379e-05 -1.65598e-20 -0 1.00379e-05 -0 1.00379e-05)
(1.00375e-05 1.03268e-19 -0 1.00375e-05 -0 1.00375e-05)
(1.00375e-05 -3.75945e-20 -0 1.00375e-05 -0 1.00375e-05)
(1.00373e-05 2.55889e-20 -0 1.00373e-05 -0 1.00373e-05)
(1.00373e-05 -4.64193e-22 -0 1.00373e-05 -0 1.00373e-05)
(1.00372e-05 1.70988e-20 -0 1.00372e-05 -0 1.00372e-05)
(1.00372e-05 4.82602e-20 -0 1.00372e-05 -0 1.00372e-05)
(1.01034e-05 2.12756e-18 -0 1.01034e-05 -0 1.01034e-05)
(1.01033e-05 -3.04369e-18 -0 1.01033e-05 -0 1.01033e-05)
(1.01021e-05 4.69426e-19 -0 1.01021e-05 -0 1.01021e-05)
(1.01016e-05 -2.89091e-19 -0 1.01016e-05 -0 1.01016e-05)
(1.01009e-05 -1.54589e-19 -0 1.01009e-05 -0 1.01009e-05)
(1.01004e-05 -2.43916e-19 -0 1.01004e-05 -0 1.01004e-05)
(1.00997e-05 -1.04525e-19 -0 1.00997e-05 -0 1.00997e-05)
(1.00994e-05 -1.25023e-19 -0 1.00994e-05 -0 1.00994e-05)
(1.00987e-05 -7.79461e-20 -0 1.00987e-05 -0 1.00987e-05)
(1.00985e-05 -1.52351e-21 -0 1.00985e-05 -0 1.00985e-05)
(1.0098e-05 2.4834e-20 -0 1.0098e-05 -0 1.0098e-05)
(1.00977e-05 -3.23227e-20 -0 1.00977e-05 -0 1.00977e-05)
(1.00974e-05 -1.8008e-20 -0 1.00974e-05 -0 1.00974e-05)
(1.00972e-05 -4.96057e-20 -0 1.00972e-05 -0 1.00972e-05)
(1.00969e-05 -1.76909e-20 -0 1.00969e-05 -0 1.00969e-05)
(1.00968e-05 3.004e-20 -0 1.00968e-05 -0 1.00968e-05)
(1.00966e-05 1.39594e-20 -0 1.00966e-05 -0 1.00966e-05)
(1.00966e-05 7.72461e-20 -0 1.00966e-05 -0 1.00966e-05)
(1.00965e-05 -1.69612e-20 -0 1.00965e-05 -0 1.00965e-05)
(1.00965e-05 5.45662e-20 -0 1.00965e-05 -0 1.00965e-05)
(1.01474e-05 -2.05938e-18 -0 1.01474e-05 -0 1.01474e-05)
(1.01474e-05 2.61346e-18 -0 1.01474e-05 -0 1.01474e-05)
(1.01462e-05 -4.97987e-19 -0 1.01462e-05 -0 1.01462e-05)
(1.01458e-05 1.45886e-19 -0 1.01458e-05 -0 1.01458e-05)
(1.01449e-05 -7.76123e-20 -0 1.01449e-05 -0 1.01449e-05)
(1.01445e-05 -5.31558e-20 -0 1.01445e-05 -0 1.01445e-05)
(1.01437e-05 -7.84702e-20 -0 1.01437e-05 -0 1.01437e-05)
(1.01435e-05 -7.99417e-20 -0 1.01435e-05 -0 1.01435e-05)
(1.01428e-05 5.58978e-21 -0 1.01428e-05 -0 1.01428e-05)
(1.01425e-05 -6.58545e-20 -0 1.01425e-05 -0 1.01425e-05)
(1.01421e-05 4.21729e-20 -0 1.01421e-05 -0 1.01421e-05)
(1.01417e-05 7.08119e-21 -0 1.01417e-05 -0 1.01417e-05)
(1.01414e-05 -1.04212e-19 -0 1.01414e-05 -0 1.01414e-05)
(1.01412e-05 -1.86625e-20 -0 1.01412e-05 -0 1.01412e-05)
(1.0141e-05 -1.83038e-19 -0 1.0141e-05 -0 1.0141e-05)
(1.01408e-05 -1.74744e-20 -0 1.01408e-05 -0 1.01408e-05)
(1.01407e-05 1.30951e-20 -0 1.01407e-05 -0 1.01407e-05)
(1.01406e-05 -2.76372e-20 -0 1.01406e-05 -0 1.01406e-05)
(1.01405e-05 -1.70096e-20 -0 1.01405e-05 -0 1.01405e-05)
(1.01405e-05 2.73837e-20 -0 1.01405e-05 -0 1.01405e-05)
(1.01856e-05 -2.12667e-18 -0 1.01856e-05 -0 1.01856e-05)
(1.01856e-05 -5.49269e-19 -0 1.01856e-05 -0 1.01856e-05)
(1.01843e-05 2.57105e-20 -0 1.01843e-05 -0 1.01843e-05)
(1.01839e-05 2.87954e-19 -0 1.01839e-05 -0 1.01839e-05)
(1.0183e-05 1.17116e-19 -0 1.0183e-05 -0 1.0183e-05)
(1.01827e-05 1.81882e-19 -0 1.01827e-05 -0 1.01827e-05)
(1.01818e-05 1.33201e-19 -0 1.01818e-05 -0 1.01818e-05)
(1.01816e-05 1.42667e-19 -0 1.01816e-05 -0 1.01816e-05)
(1.01809e-05 1.2895e-19 -0 1.01809e-05 -0 1.01809e-05)
(1.01806e-05 2.57029e-19 -0 1.01806e-05 -0 1.01806e-05)
(1.01802e-05 1.17949e-19 -0 1.01802e-05 -0 1.01802e-05)
(1.01799e-05 2.04486e-19 -0 1.01799e-05 -0 1.01799e-05)
(1.01796e-05 1.58516e-19 -0 1.01796e-05 -0 1.01796e-05)
(1.01793e-05 1.51964e-19 -0 1.01793e-05 -0 1.01793e-05)
(1.01791e-05 1.46072e-19 -0 1.01791e-05 -0 1.01791e-05)
(1.01789e-05 8.2115e-21 -0 1.01789e-05 -0 1.01789e-05)
(1.01788e-05 1.76802e-20 -0 1.01788e-05 -0 1.01788e-05)
(1.01787e-05 -1.59541e-19 -0 1.01787e-05 -0 1.01787e-05)
(1.01786e-05 -5.95798e-20 -0 1.01786e-05 -0 1.01786e-05)
(1.01786e-05 1.33004e-21 -0 1.01786e-05 -0 1.01786e-05)
(1.02229e-05 2.77563e-18 -0 1.02229e-05 -0 1.02229e-05)
(1.02229e-05 -6.88837e-19 -0 1.02229e-05 -0 1.02229e-05)
(1.02216e-05 6.59409e-19 -0 1.02216e-05 -0 1.02216e-05)
(1.02212e-05 1.34817e-19 -0 1.02212e-05 -0 1.02212e-05)
(1.02203e-05 3.31444e-19 -0 1.02203e-05 -0 1.02203e-05)
(1.02199e-05 1.7145e-19 -0 1.02199e-05 -0 1.02199e-05)
(1.02192e-05 2.70533e-19 -0 1.02192e-05 -0 1.02192e-05)
(1.02188e-05 2.69882e-19 -0 1.02188e-05 -0 1.02188e-05)
(1.02182e-05 1.75089e-19 -0 1.02182e-05 -0 1.02182e-05)
(1.02179e-05 1.9399e-19 -0 1.02179e-05 -0 1.02179e-05)
(1.02174e-05 1.93703e-19 -0 1.02174e-05 -0 1.02174e-05)
(1.02171e-05 7.63373e-20 -0 1.02171e-05 -0 1.02171e-05)
(1.02168e-05 6.91785e-20 -0 1.02168e-05 -0 1.02168e-05)
(1.02166e-05 1.22477e-19 -0 1.02166e-05 -0 1.02166e-05)
(1.02163e-05 7.89085e-20 -0 1.02163e-05 -0 1.02163e-05)
(1.02162e-05 6.04983e-20 -0 1.02162e-05 -0 1.02162e-05)
(1.0216e-05 9.79718e-20 -0 1.0216e-05 -0 1.0216e-05)
(1.02159e-05 1.54028e-19 -0 1.02159e-05 -0 1.02159e-05)
(1.02159e-05 6.38909e-20 -0 1.02159e-05 -0 1.02159e-05)
(1.02159e-05 9.70634e-20 -0 1.02159e-05 -0 1.02159e-05)
(1.02622e-05 -6.19578e-19 -0 1.02622e-05 -0 1.02622e-05)
(1.02622e-05 2.50283e-18 -0 1.02622e-05 -0 1.02622e-05)
(1.0261e-05 -7.66832e-19 -0 1.0261e-05 -0 1.0261e-05)
(1.02605e-05 -3.24355e-19 -0 1.02605e-05 -0 1.02605e-05)
(1.02597e-05 -3.89642e-19 -0 1.02597e-05 -0 1.02597e-05)
(1.02592e-05 -2.76603e-19 -0 1.02592e-05 -0 1.02592e-05)
(1.02585e-05 -3.82887e-19 -0 1.02585e-05 -0 1.02585e-05)
(1.02581e-05 -2.70773e-19 -0 1.02581e-05 -0 1.02581e-05)
(1.02575e-05 -2.28775e-19 -0 1.02575e-05 -0 1.02575e-05)
(1.02572e-05 -3.16189e-19 -0 1.02572e-05 -0 1.02572e-05)
(1.02567e-05 -2.98649e-19 -0 1.02567e-05 -0 1.02567e-05)
(1.02564e-05 -2.2619e-19 -0 1.02564e-05 -0 1.02564e-05)
(1.02561e-05 -2.6479e-19 -0 1.02561e-05 -0 1.02561e-05)
(1.02559e-05 -3.15577e-19 -0 1.02559e-05 -0 1.02559e-05)
(1.02556e-05 -2.4866e-19 -0 1.02556e-05 -0 1.02556e-05)
(1.02555e-05 -1.62418e-19 -0 1.02555e-05 -0 1.02555e-05)
(1.02553e-05 -1.9363e-19 -0 1.02553e-05 -0 1.02553e-05)
(1.02552e-05 8.33216e-21 -0 1.02552e-05 -0 1.02552e-05)
(1.02552e-05 -6.36698e-20 -0 1.02552e-05 -0 1.02552e-05)
(1.02552e-05 -7.98315e-20 -0 1.02552e-05 -0 1.02552e-05)
(1.03056e-05 6.76254e-19 -0 1.03056e-05 -0 1.03056e-05)
(1.03056e-05 -5.07179e-18 -0 1.03056e-05 -0 1.03056e-05)
(1.03043e-05 6.1534e-19 -0 1.03043e-05 -0 1.03043e-05)
(1.03039e-05 -2.13973e-19 -0 1.03039e-05 -0 1.03039e-05)
(1.0303e-05 -7.18471e-20 -0 1.0303e-05 -0 1.0303e-05)
(1.03026e-05 -7.79599e-20 -0 1.03026e-05 -0 1.03026e-05)
(1.03018e-05 -1.2831e-20 -0 1.03018e-05 -0 1.03018e-05)
(1.03015e-05 -4.61659e-20 -0 1.03015e-05 -0 1.03015e-05)
(1.03008e-05 1.31285e-20 -0 1.03008e-05 -0 1.03008e-05)
(1.03005e-05 -1.44418e-21 -0 1.03005e-05 -0 1.03005e-05)
(1.03e-05 6.97228e-21 -0 1.03e-05 -0 1.03e-05)
(1.02997e-05 -3.88806e-20 -0 1.02997e-05 -0 1.02997e-05)
(1.02994e-05 5.54726e-20 -0 1.02994e-05 -0 1.02994e-05)
(1.02991e-05 -2.85139e-20 -0 1.02991e-05 -0 1.02991e-05)
(1.02989e-05 -6.43186e-20 -0 1.02989e-05 -0 1.02989e-05)
(1.02988e-05 -6.31762e-20 -0 1.02988e-05 -0 1.02988e-05)
(1.02986e-05 2.24532e-20 -0 1.02986e-05 -0 1.02986e-05)
(1.02985e-05 -6.6722e-20 -0 1.02985e-05 -0 1.02985e-05)
(1.02985e-05 -5.68537e-20 -0 1.02985e-05 -0 1.02985e-05)
(1.02985e-05 -3.86574e-20 -0 1.02985e-05 -0 1.02985e-05)
(1.03544e-05 -2.80522e-18 -0 1.03544e-05 -0 1.03544e-05)
(1.03543e-05 5.91221e-18 -0 1.03543e-05 -0 1.03543e-05)
(1.03532e-05 -5.90436e-19 -0 1.03532e-05 -0 1.03532e-05)
(1.03526e-05 5.04702e-19 -0 1.03526e-05 -0 1.03526e-05)
(1.03518e-05 3.81683e-19 -0 1.03518e-05 -0 1.03518e-05)
(1.03513e-05 3.07771e-19 -0 1.03513e-05 -0 1.03513e-05)
(1.03506e-05 2.77792e-19 -0 1.03506e-05 -0 1.03506e-05)
(1.03502e-05 2.5568e-19 -0 1.03502e-05 -0 1.03502e-05)
(1.03496e-05 2.4466e-19 -0 1.03496e-05 -0 1.03496e-05)
(1.03492e-05 1.53976e-19 -0 1.03492e-05 -0 1.03492e-05)
(1.03488e-05 1.38152e-19 -0 1.03488e-05 -0 1.03488e-05)
(1.03485e-05 2.31532e-19 -0 1.03485e-05 -0 1.03485e-05)
(1.03481e-05 1.2128e-19 -0 1.03481e-05 -0 1.03481e-05)
(1.03479e-05 2.41882e-19 -0 1.03479e-05 -0 1.03479e-05)
(1.03476e-05 2.26866e-19 -0 1.03476e-05 -0 1.03476e-05)
(1.03475e-05 1.07234e-19 -0 1.03475e-05 -0 1.03475e-05)
(1.03473e-05 1.73324e-19 -0 1.03473e-05 -0 1.03473e-05)
(1.03473e-05 1.28959e-19 -0 1.03473e-05 -0 1.03473e-05)
(1.03472e-05 1.31393e-19 -0 1.03472e-05 -0 1.03472e-05)
(1.03472e-05 5.98973e-20 -0 1.03472e-05 -0 1.03472e-05)
(1.04093e-05 5.16724e-18 -0 1.04093e-05 -0 1.04093e-05)
(1.04093e-05 -5.11821e-18 -0 1.04093e-05 -0 1.04093e-05)
(1.04079e-05 9.7762e-19 -0 1.04079e-05 -0 1.04079e-05)
(1.04075e-05 -2.64775e-19 -0 1.04075e-05 -0 1.04075e-05)
(1.04066e-05 -1.59749e-19 -0 1.04066e-05 -0 1.04066e-05)
(1.04062e-05 -7.21844e-20 -0 1.04062e-05 -0 1.04062e-05)
(1.04053e-05 -1.11295e-19 -0 1.04053e-05 -0 1.04053e-05)
(1.04051e-05 -1.36761e-19 -0 1.04051e-05 -0 1.04051e-05)
(1.04043e-05 -2.47382e-19 -0 1.04043e-05 -0 1.04043e-05)
(1.04041e-05 -1.64458e-19 -0 1.04041e-05 -0 1.04041e-05)
(1.04036e-05 -9.34603e-20 -0 1.04036e-05 -0 1.04036e-05)
(1.04032e-05 -2.12997e-20 -0 1.04032e-05 -0 1.04032e-05)
(1.04029e-05 -6.14136e-20 -0 1.04029e-05 -0 1.04029e-05)
(1.04027e-05 -2.53386e-20 -0 1.04027e-05 -0 1.04027e-05)
(1.04024e-05 -1.50436e-19 -0 1.04024e-05 -0 1.04024e-05)
(1.04023e-05 2.79222e-20 -0 1.04023e-05 -0 1.04023e-05)
(1.04021e-05 -2.25675e-21 -0 1.04021e-05 -0 1.04021e-05)
(1.0402e-05 -1.20914e-19 -0 1.0402e-05 -0 1.0402e-05)
(1.0402e-05 -6.55809e-20 -0 1.0402e-05 -0 1.0402e-05)
(1.0402e-05 -7.94404e-20 -0 1.0402e-05 -0 1.0402e-05)
(1.0469e-05 -1.00584e-18 -0 1.0469e-05 -0 1.0469e-05)
(1.0469e-05 8.76012e-19 -0 1.0469e-05 -0 1.0469e-05)
(1.04677e-05 -3.66658e-19 -0 1.04677e-05 -0 1.04677e-05)
(1.04672e-05 -4.69635e-20 -0 1.04672e-05 -0 1.04672e-05)
(1.04663e-05 -1.901e-19 -0 1.04663e-05 -0 1.04663e-05)
(1.04658e-05 -1.40012e-19 -0 1.04658e-05 -0 1.04658e-05)
(1.04651e-05 -1.11844e-19 -0 1.04651e-05 -0 1.04651e-05)
(1.04647e-05 -8.36396e-20 -0 1.04647e-05 -0 1.04647e-05)
(1.04641e-05 -9.14907e-20 -0 1.04641e-05 -0 1.04641e-05)
(1.04638e-05 -5.42217e-20 -0 1.04638e-05 -0 1.04638e-05)
(1.04633e-05 -7.86582e-20 -0 1.04633e-05 -0 1.04633e-05)
(1.0463e-05 -1.62515e-19 -0 1.0463e-05 -0 1.0463e-05)
(1.04626e-05 -2.94245e-20 -0 1.04626e-05 -0 1.04626e-05)
(1.04624e-05 -2.10576e-19 -0 1.04624e-05 -0 1.04624e-05)
(1.04621e-05 -1.00481e-19 -0 1.04621e-05 -0 1.04621e-05)
(1.0462e-05 -7.98868e-20 -0 1.0462e-05 -0 1.0462e-05)
(1.04618e-05 -2.3512e-19 -0 1.04618e-05 -0 1.04618e-05)
(1.04617e-05 -3.19384e-20 -0 1.04617e-05 -0 1.04617e-05)
(1.04617e-05 -8.70461e-20 -0 1.04617e-05 -0 1.04617e-05)
(1.04616e-05 4.62214e-21 -0 1.04616e-05 -0 1.04616e-05)
(1.05289e-05 -6.73159e-18 -0 1.05289e-05 -0 1.05289e-05)
(1.05289e-05 5.8824e-18 -0 1.05289e-05 -0 1.05289e-05)
(1.05275e-05 -9.87512e-19 -0 1.05275e-05 -0 1.05275e-05)
(1.05271e-05 3.01445e-19 -0 1.05271e-05 -0 1.05271e-05)
(1.05261e-05 1.22037e-19 -0 1.05261e-05 -0 1.05261e-05)
(1.05257e-05 2.12438e-19 -0 1.05257e-05 -0 1.05257e-05)
(1.05249e-05 2.62265e-19 -0 1.05249e-05 -0 1.05249e-05)
(1.05246e-05 2.64084e-19 -0 1.05246e-05 -0 1.05246e-05)
(1.05239e-05 2.39469e-19 -0 1.05239e-05 -0 1.05239e-05)
(1.05235e-05 2.2445e-19 -0 1.05235e-05 -0 1.05235e-05)
(1.05231e-05 2.43334e-19 -0 1.05231e-05 -0 1.05231e-05)
(1.05227e-05 7.56183e-20 -0 1.05227e-05 -0 1.05227e-05)
(1.05224e-05 2.74537e-21 -0 1.05224e-05 -0 1.05224e-05)
(1.05221e-05 1.5536e-19 -0 1.05221e-05 -0 1.05221e-05)
(1.05219e-05 1.02751e-19 -0 1.05219e-05 -0 1.05219e-05)
(1.05217e-05 1.36686e-19 -0 1.05217e-05 -0 1.05217e-05)
(1.05216e-05 1.35626e-19 -0 1.05216e-05 -0 1.05216e-05)
(1.05215e-05 1.06459e-19 -0 1.05215e-05 -0 1.05215e-05)
(1.05214e-05 1.01592e-19 -0 1.05214e-05 -0 1.05214e-05)
(1.05214e-05 8.66428e-20 -0 1.05214e-05 -0 1.05214e-05)
(1.05792e-05 8.83699e-19 -0 1.05792e-05 -0 1.05792e-05)
(1.05793e-05 -1.11492e-18 -0 1.05793e-05 -0 1.05793e-05)
(1.05779e-05 -2.77987e-19 -0 1.05779e-05 -0 1.05779e-05)
(1.05775e-05 -2.3087e-19 -0 1.05775e-05 -0 1.05775e-05)
(1.05766e-05 -1.95953e-19 -0 1.05766e-05 -0 1.05766e-05)
(1.05762e-05 -2.44179e-19 -0 1.05762e-05 -0 1.05762e-05)
(1.05754e-05 -2.21291e-19 -0 1.05754e-05 -0 1.05754e-05)
(1.05751e-05 -2.20401e-19 -0 1.05751e-05 -0 1.05751e-05)
(1.05743e-05 -1.89084e-19 -0 1.05743e-05 -0 1.05743e-05)
(1.05741e-05 -1.98742e-19 -0 1.05741e-05 -0 1.05741e-05)
(1.05735e-05 -1.85902e-19 -0 1.05735e-05 -0 1.05735e-05)
(1.05733e-05 -8.41366e-21 -0 1.05733e-05 -0 1.05733e-05)
(1.05728e-05 -7.13583e-20 -0 1.05728e-05 -0 1.05728e-05)
(1.05727e-05 -1.12566e-19 -0 1.05727e-05 -0 1.05727e-05)
(1.05724e-05 -7.19156e-20 -0 1.05724e-05 -0 1.05724e-05)
(1.05723e-05 -2.7854e-20 -0 1.05723e-05 -0 1.05723e-05)
(1.05721e-05 -4.99013e-20 -0 1.05721e-05 -0 1.05721e-05)
(1.0572e-05 -8.80734e-20 -0 1.0572e-05 -0 1.0572e-05)
(1.0572e-05 3.34537e-22 -0 1.0572e-05 -0 1.0572e-05)
(1.05719e-05 -9.07632e-20 -0 1.05719e-05 -0 1.05719e-05)
(1.06015e-05 1.04865e-17 -0 1.06015e-05 -0 1.06015e-05)
(1.06015e-05 -1.13991e-17 -0 1.06015e-05 -0 1.06015e-05)
(1.06015e-05 2.43738e-18 -0 1.06015e-05 -0 1.06015e-05)
(1.06015e-05 -4.62604e-19 -0 1.06015e-05 -0 1.06015e-05)
(1.06015e-05 1.73157e-19 -0 1.06015e-05 -0 1.06015e-05)
(1.06015e-05 8.28206e-20 -0 1.06015e-05 -0 1.06015e-05)
(1.06015e-05 1.11008e-19 -0 1.06015e-05 -0 1.06015e-05)
(1.06015e-05 2.66852e-20 -0 1.06015e-05 -0 1.06015e-05)
(1.06014e-05 3.83904e-20 -0 1.06014e-05 -0 1.06014e-05)
(1.06014e-05 8.07581e-20 -0 1.06014e-05 -0 1.06014e-05)
(1.06014e-05 8.47618e-20 -0 1.06014e-05 -0 1.06014e-05)
(1.06014e-05 -8.26714e-21 -0 1.06014e-05 -0 1.06014e-05)
(1.06014e-05 4.83321e-20 -0 1.06014e-05 -0 1.06014e-05)
(1.06014e-05 1.57717e-20 -0 1.06014e-05 -0 1.06014e-05)
(1.06014e-05 7.08964e-20 -0 1.06014e-05 -0 1.06014e-05)
(1.06014e-05 -1.23893e-20 -0 1.06014e-05 -0 1.06014e-05)
(1.06014e-05 5.68458e-20 -0 1.06014e-05 -0 1.06014e-05)
(1.06014e-05 1.52167e-20 -0 1.06014e-05 -0 1.06014e-05)
(1.06014e-05 1.29186e-22 -0 1.06014e-05 -0 1.06014e-05)
(1.06014e-05 2.58479e-20 -0 1.06014e-05 -0 1.06014e-05)
)
;

boundaryField
{
    movingWall
    {
        type            kqRWallFunction;
        value           nonuniform List<symmTensor> 
20
(
(1.06015e-05 0 -0 1.06015e-05 -0 1.06015e-05)
(1.06015e-05 -0 -0 1.06015e-05 -0 1.06015e-05)
(1.06015e-05 0 -0 1.06015e-05 -0 1.06015e-05)
(1.06015e-05 0 -0 1.06015e-05 -0 1.06015e-05)
(1.06015e-05 0 -0 1.06015e-05 -0 1.06015e-05)
(1.06015e-05 0 -0 1.06015e-05 -0 1.06015e-05)
(1.06015e-05 0 -0 1.06015e-05 -0 1.06015e-05)
(1.06015e-05 0 -0 1.06015e-05 -0 1.06015e-05)
(1.06014e-05 0 -0 1.06014e-05 -0 1.06014e-05)
(1.06014e-05 0 -0 1.06014e-05 -0 1.06014e-05)
(1.06014e-05 0 -0 1.06014e-05 -0 1.06014e-05)
(1.06014e-05 0 -0 1.06014e-05 -0 1.06014e-05)
(1.06014e-05 0 -0 1.06014e-05 -0 1.06014e-05)
(1.06014e-05 0 -0 1.06014e-05 -0 1.06014e-05)
(1.06014e-05 0 -0 1.06014e-05 -0 1.06014e-05)
(1.06014e-05 0 -0 1.06014e-05 -0 1.06014e-05)
(1.06014e-05 0 -0 1.06014e-05 -0 1.06014e-05)
(1.06014e-05 0 -0 1.06014e-05 -0 1.06014e-05)
(1.06014e-05 0 -0 1.06014e-05 -0 1.06014e-05)
(1.06014e-05 0 -0 1.06014e-05 -0 1.06014e-05)
)
;
    }
    fixedWalls
    {
        type            kqRWallFunction;
        value           nonuniform List<symmTensor> 
60
(
(7.34844e-06 -0 -0 7.34844e-06 -0 7.34844e-06)
(7.84329e-06 -0 -0 7.84329e-06 -0 7.84329e-06)
(8.5223e-06 0 -0 8.5223e-06 -0 8.5223e-06)
(9.11815e-06 -0 -0 9.11815e-06 -0 9.11815e-06)
(9.53702e-06 0 -0 9.53702e-06 -0 9.53702e-06)
(9.79795e-06 0 -0 9.79795e-06 -0 9.79795e-06)
(9.95201e-06 -0 -0 9.95201e-06 -0 9.95201e-06)
(1.00439e-05 0 -0 1.00439e-05 -0 1.00439e-05)
(1.01034e-05 0 -0 1.01034e-05 -0 1.01034e-05)
(1.01474e-05 -0 -0 1.01474e-05 -0 1.01474e-05)
(1.01856e-05 0 -0 1.01856e-05 -0 1.01856e-05)
(1.02229e-05 0 -0 1.02229e-05 -0 1.02229e-05)
(1.02622e-05 -0 -0 1.02622e-05 -0 1.02622e-05)
(1.03056e-05 0 -0 1.03056e-05 -0 1.03056e-05)
(1.03544e-05 -0 -0 1.03544e-05 -0 1.03544e-05)
(1.04093e-05 0 -0 1.04093e-05 -0 1.04093e-05)
(1.0469e-05 -0 -0 1.0469e-05 -0 1.0469e-05)
(1.05289e-05 -0 -0 1.05289e-05 -0 1.05289e-05)
(1.05792e-05 0 -0 1.05792e-05 -0 1.05792e-05)
(1.06015e-05 0 -0 1.06015e-05 -0 1.06015e-05)
(7.34836e-06 0 -0 7.34836e-06 -0 7.34836e-06)
(7.83926e-06 -0 -0 7.83926e-06 -0 7.83926e-06)
(8.51746e-06 -0 -0 8.51746e-06 -0 8.51746e-06)
(9.11261e-06 -0 -0 9.11261e-06 -0 9.11261e-06)
(9.53094e-06 0 -0 9.53094e-06 -0 9.53094e-06)
(9.79152e-06 -0 -0 9.79152e-06 -0 9.79152e-06)
(9.94537e-06 0 -0 9.94537e-06 -0 9.94537e-06)
(1.00372e-05 0 -0 1.00372e-05 -0 1.00372e-05)
(1.00965e-05 0 -0 1.00965e-05 -0 1.00965e-05)
(1.01405e-05 0 -0 1.01405e-05 -0 1.01405e-05)
(1.01786e-05 0 -0 1.01786e-05 -0 1.01786e-05)
(1.02159e-05 0 -0 1.02159e-05 -0 1.02159e-05)
(1.02552e-05 -0 -0 1.02552e-05 -0 1.02552e-05)
(1.02985e-05 -0 -0 1.02985e-05 -0 1.02985e-05)
(1.03472e-05 0 -0 1.03472e-05 -0 1.03472e-05)
(1.0402e-05 -0 -0 1.0402e-05 -0 1.0402e-05)
(1.04616e-05 0 -0 1.04616e-05 -0 1.04616e-05)
(1.05214e-05 0 -0 1.05214e-05 -0 1.05214e-05)
(1.05719e-05 -0 -0 1.05719e-05 -0 1.05719e-05)
(1.06014e-05 0 -0 1.06014e-05 -0 1.06014e-05)
(7.34844e-06 -0 -0 7.34844e-06 -0 7.34844e-06)
(7.34843e-06 0 -0 7.34843e-06 -0 7.34843e-06)
(7.34841e-06 -0 -0 7.34841e-06 -0 7.34841e-06)
(7.34842e-06 -0 -0 7.34842e-06 -0 7.34842e-06)
(7.34839e-06 -0 -0 7.34839e-06 -0 7.34839e-06)
(7.3484e-06 -0 -0 7.3484e-06 -0 7.3484e-06)
(7.34838e-06 -0 -0 7.34838e-06 -0 7.34838e-06)
(7.34839e-06 -0 -0 7.34839e-06 -0 7.34839e-06)
(7.34837e-06 -0 -0 7.34837e-06 -0 7.34837e-06)
(7.34837e-06 -0 -0 7.34837e-06 -0 7.34837e-06)
(7.34837e-06 -0 -0 7.34837e-06 -0 7.34837e-06)
(7.34836e-06 -0 -0 7.34836e-06 -0 7.34836e-06)
(7.34836e-06 -0 -0 7.34836e-06 -0 7.34836e-06)
(7.34836e-06 0 -0 7.34836e-06 -0 7.34836e-06)
(7.34836e-06 0 -0 7.34836e-06 -0 7.34836e-06)
(7.34836e-06 -0 -0 7.34836e-06 -0 7.34836e-06)
(7.34836e-06 0 -0 7.34836e-06 -0 7.34836e-06)
(7.34836e-06 -0 -0 7.34836e-06 -0 7.34836e-06)
(7.34836e-06 -0 -0 7.34836e-06 -0 7.34836e-06)
(7.34836e-06 0 -0 7.34836e-06 -0 7.34836e-06)
)
;
    }
    frontAndBack
    {
        type            empty;
    }
}


// ************************************************************************* //
