/*--------------------------------*- C++ -*----------------------------------*\
| =========                 |                                                 |
| \\      /  F ield         | OpenFOAM: The Open Source CFD Toolbox           |
|  \\    /   O peration     | Version:  2506                                  |
|   \\  /    A nd           | Website:  www.openfoam.com                      |
|    \\/     M anipulation  |                                                 |
\*---------------------------------------------------------------------------*/
FoamFile
{
    version     2.0;
    format      ascii;
    arch        "LSB;label=32;scalar=64";
    class       volScalarField;
    location    "5.5";
    object      turbulenceProperties:omega;
}
// * * * * * * * * * * * * * * * * * * * * * * * * * * * * * * * * * * * * * //

dimensions      [0 0 -1 0 0 0 0];

internalField   nonuniform List<scalar> 
400
(
5.93593
5.93594
5.9359
5.93594
5.93589
5.93594
5.93589
5.93592
5.9359
5.93591
5.9359
5.9359
5.9359
5.9359
5.9359
5.9359
5.9359
5.9359
5.9359
5.9359
6.13428
6.00955
6.02021
6.02471
6.03354
6.03816
6.04693
6.05173
6.06045
6.0654
6.0741
6.07918
6.08788
6.09308
6.10177
6.10711
6.11578
6.12127
6.12561
6.13269
6.39619
6.2586
6.27053
6.27557
6.28542
6.29055
6.30031
6.30559
6.31529
6.3207
6.33037
6.33589
6.34552
6.35116
6.36073
6.3665
6.37601
6.38192
6.38667
6.39436
6.61722
6.46957
6.4824
6.48776
6.49836
6.5038
6.51436
6.51994
6.53042
6.53616
6.54656
6.55246
6.5628
6.56884
6.57912
6.5853
6.59552
6.60184
6.60695
6.6152
6.76813
6.61326
6.62666
6.63232
6.64338
6.64915
6.66014
6.66608
6.67699
6.68306
6.69395
6.70015
6.71098
6.71733
6.7281
6.73459
6.74529
6.75195
6.7573
6.76596
6.86038
6.70097
6.71477
6.72059
6.73198
6.73791
6.74921
6.75531
6.76656
6.7728
6.78399
6.79039
6.80152
6.80806
6.81914
6.82583
6.83684
6.8437
6.84919
6.85811
6.91424
6.75216
6.76623
6.77208
6.7837
6.78968
6.80123
6.80738
6.81884
6.8252
6.83653
6.84309
6.85435
6.86105
6.87227
6.87911
6.89027
6.89726
6.90285
6.91191
6.94618
6.78253
6.79667
6.80264
6.81436
6.82039
6.83205
6.83826
6.84985
6.85621
6.86776
6.87425
6.88575
6.8924
6.90382
6.91066
6.92198
6.92901
6.93466
6.94381
6.96675
6.8021
6.8163
6.82235
6.83408
6.84022
6.85188
6.85818
6.86981
6.87624
6.8878
6.89441
6.9059
6.91266
6.9241
6.93101
6.94238
6.94947
6.95514
6.96435
6.98198
6.81659
6.83088
6.83691
6.84875
6.85484
6.86666
6.8729
6.88461
6.89107
6.90265
6.90934
6.92083
6.92767
6.93911
6.9461
6.95749
6.96462
6.97032
6.97957
6.99514
6.8291
6.84348
6.8495
6.86142
6.86751
6.87938
6.88564
6.89739
6.90388
6.91551
6.92222
6.93375
6.94062
6.9521
6.95912
6.97055
6.97772
6.98344
6.99272
7.00798
6.84135
6.85575
6.86183
6.87373
6.87994
6.89171
6.89812
6.90983
6.91639
6.92806
6.93477
6.94638
6.95324
6.9648
6.97181
6.98331
6.99049
6.99623
7.00555
7.02152
6.85424
6.86867
6.87481
6.88671
6.89297
6.90479
6.91122
6.92298
6.92958
6.94127
6.94802
6.95967
6.96656
6.97816
6.98521
6.99673
7.00395
7.00972
7.01907
7.03641
6.8684
6.88295
6.88903
6.90106
6.90726
6.91923
6.9256
6.93749
6.94403
6.95583
6.9626
6.97428
6.98122
6.99284
6.99994
7.01151
7.01876
7.02455
7.03394
7.05313
6.88434
6.89885
6.90508
6.91708
6.92339
6.93533
6.94182
6.95368
6.96033
6.97213
6.97894
6.99069
6.99765
7.00935
7.01646
7.0281
7.03538
7.04119
7.05064
7.07187
6.90216
6.91686
6.923
6.93515
6.94141
6.95352
6.95993
6.97195
6.97856
6.99046
6.99731
7.00909
7.01612
7.02785
7.03503
7.0467
7.05403
7.05988
7.06937
7.09225
6.9216
6.93632
6.94256
6.95471
6.96109
6.97316
6.97972
6.9917
6.99842
7.01037
7.01723
7.02914
7.03616
7.04799
7.05518
7.06694
7.0743
7.08018
7.08973
7.11261
6.94102
6.9559
6.96208
6.97437
6.9807
6.99291
6.99943
7.01152
7.01829
7.03025
7.03721
7.04911
7.05622
7.06808
7.07534
7.08715
7.09457
7.10048
7.11008
7.12972
6.96086
6.97515
6.9812
6.9931
6.99928
7.01116
7.01756
7.0294
7.03602
7.04783
7.05466
7.06645
7.0735
7.08524
7.09253
7.10421
7.11177
7.11761
7.12723
7.13728
7.13726
7.13726
7.13726
7.13725
7.13725
7.13725
7.13724
7.13724
7.13724
7.13724
7.13723
7.13724
7.13723
7.13724
7.13723
7.13723
7.13723
7.13723
7.13723
)
;

boundaryField
{
    movingWall
    {
        type            calculated;
        value           nonuniform List<scalar> 
20
(
7.13728
7.13726
7.13726
7.13726
7.13725
7.13725
7.13725
7.13724
7.13724
7.13724
7.13724
7.13723
7.13724
7.13723
7.13724
7.13723
7.13723
7.13723
7.13723
7.13723
)
;
    }
    fixedWalls
    {
        type            calculated;
        value           nonuniform List<scalar> 
60
(
5.93593
6.13428
6.39619
6.61722
6.76813
6.86038
6.91424
6.94618
6.96675
6.98198
6.99514
7.00798
7.02152
7.03641
7.05313
7.07187
7.09225
7.11261
7.12972
7.13728
5.9359
6.13269
6.39436
6.6152
6.76596
6.85811
6.91191
6.94381
6.96435
6.97957
6.99272
7.00555
7.01907
7.03394
7.05064
7.06937
7.08973
7.11008
7.12723
7.13723
5.93593
5.93594
5.9359
5.93594
5.93589
5.93594
5.93589
5.93592
5.9359
5.93591
5.9359
5.9359
5.9359
5.9359
5.9359
5.9359
5.9359
5.9359
5.9359
5.9359
)
;
    }
    frontAndBack
    {
        type            empty;
    }
}


// ************************************************************************* //
