/*--------------------------------*- C++ -*----------------------------------*\
| =========                 |                                                 |
| \\      /  F ield         | OpenFOAM: The Open Source CFD Toolbox           |
|  \\    /   O peration     | Version:  2506                                  |
|   \\  /    A nd           | Website:  www.openfoam.com                      |
|    \\/     M anipulation  |                                                 |
\*---------------------------------------------------------------------------*/
FoamFile
{
    version     2.0;
    format      ascii;
    arch        "LSB;label=32;scalar=64";
    class       volSymmTensorField;
    location    "5.5";
    object      turbulenceProperties:devReff;
}
// * * * * * * * * * * * * * * * * * * * * * * * * * * * * * * * * * * * * * //

dimensions      [0 2 -2 0 0 0 0];

internalField   nonuniform List<symmTensor> 
400
(
(8.84527e-17 -6.12952e-17 -0 -1.66621e-16 -0 7.81685e-17)
(-2.94629e-17 6.47906e-17 -0 3.96428e-17 -0 -1.01799e-17)
(8.05406e-18 -1.22419e-17 -0 -1.03232e-17 -0 2.26917e-18)
(-6.68686e-19 3.63574e-18 -0 1.33737e-18 -0 -6.68686e-19)
(6.24077e-19 -3.59392e-20 -0 -6.05389e-19 -0 -1.86886e-20)
(-4.8101e-19 9.70982e-19 -0 3.19255e-19 -0 1.61755e-19)
(4.59348e-19 -8.84653e-21 -0 -2.75929e-19 -0 -1.83418e-19)
(3.7101e-20 1.07435e-19 -0 -7.42019e-20 -0 3.7101e-20)
(4.28878e-19 1.3936e-19 -0 -2.14991e-19 -0 -2.13887e-19)
(-1.66902e-20 -2.95488e-19 -0 3.33805e-20 -0 -1.66902e-20)
(5.52816e-19 -1.16605e-19 -0 -4.62867e-19 -0 -8.99494e-20)
(-2.32975e-19 -4.09967e-19 -0 -1.76815e-19 -0 4.0979e-19)
(1.08122e-18 -2.30422e-20 -0 -8.76912e-19 -0 -2.0431e-19)
(6.51052e-19 1.51615e-19 -0 -6.59338e-19 -0 8.28649e-21)
(-5.01125e-19 7.57538e-19 -0 3.59485e-19 -0 1.4164e-19)
(3.72392e-19 -4.09538e-20 -0 -1.02018e-19 -0 -2.70374e-19)
(5.60812e-20 6.60898e-19 -0 -1.12162e-19 -0 5.60812e-20)
(-8.03666e-19 -3.18717e-19 -0 3.21801e-19 -0 4.81865e-19)
(8.65232e-19 1.87128e-21 -0 -4.44933e-19 -0 -4.20299e-19)
(-7.77683e-20 6.78109e-19 -0 1.55537e-19 -0 -7.77683e-20)
(-1.37e-16 -4.96188e-17 -0 2.50095e-16 -0 -1.13095e-16)
(5.05359e-17 5.53093e-17 -0 -6.41227e-17 -0 1.35868e-17)
(-1.13167e-17 -1.1114e-17 -0 1.4209e-17 -0 -2.8923e-18)
(2.42233e-18 2.71017e-18 -0 -3.54875e-18 -0 1.12643e-18)
(-2.00588e-19 -2.47492e-19 -0 4.01177e-19 -0 -2.00588e-19)
(-1.02303e-18 2.42106e-19 -0 7.50653e-19 -0 2.72376e-19)
(-8.23368e-19 5.21056e-19 -0 9.99191e-19 -0 -1.75824e-19)
(-1.2276e-18 5.85275e-19 -0 1.16028e-18 -0 6.7319e-20)
(-1.16794e-18 5.88215e-19 -0 1.04127e-18 -0 1.26665e-19)
(-5.91863e-19 7.57552e-19 -0 5.36512e-19 -0 5.53503e-20)
(-4.45813e-20 -2.03081e-19 -0 8.91627e-20 -0 -4.45813e-20)
(1.29108e-20 2.61826e-19 -0 -2.58216e-20 -0 1.29108e-20)
(5.55513e-20 -1.75777e-20 -0 -1.11103e-19 -0 5.55513e-20)
(5.36679e-19 2.95417e-19 -0 -4.26632e-19 -0 -1.10047e-19)
(6.90646e-20 3.05014e-19 -0 -1.38129e-19 -0 6.90646e-20)
(-4.78886e-19 4.93512e-19 -0 3.11291e-19 -0 1.67596e-19)
(-4.38344e-20 1.39812e-19 -0 8.76688e-20 -0 -4.38344e-20)
(-5.1806e-20 3.92632e-19 -0 1.03612e-19 -0 -5.1806e-20)
(2.90568e-19 1.95843e-19 -0 6.50281e-20 -0 -3.55596e-19)
(-1.40702e-18 -1.40391e-19 -0 8.75914e-19 -0 5.31109e-19)
(6.8534e-18 1.1791e-16 -0 -1.04546e-17 -0 3.60117e-18)
(-7.39796e-18 -1.18868e-16 -0 5.65635e-18 -0 1.74162e-18)
(2.83425e-18 2.36808e-17 -0 -1.75286e-18 -0 -1.08138e-18)
(-1.0151e-18 -6.57337e-18 -0 7.25175e-19 -0 2.89925e-19)
(5.25844e-19 -5.15474e-20 -0 -3.99357e-19 -0 -1.26488e-19)
(5.53798e-19 -1.66096e-18 -0 -4.55357e-19 -0 -9.84405e-20)
(4.54811e-19 -1.32951e-18 -0 -2.5756e-19 -0 -1.97251e-19)
(3.77467e-19 -1.32588e-18 -0 -1.02968e-19 -0 -2.74499e-19)
(1.31881e-21 -1.47012e-18 -0 -2.63762e-21 -0 1.31881e-21)
(-3.85098e-19 -1.34435e-18 -0 1.18501e-19 -0 2.66597e-19)
(1.13078e-20 -3.7988e-19 -0 -2.26155e-20 -0 1.13078e-20)
(5.68801e-20 -2.41022e-19 -0 -1.1376e-19 -0 5.68801e-20)
(8.99623e-19 -1.63254e-19 -0 -4.96733e-19 -0 -4.0289e-19)
(-4.28844e-19 -1.92429e-19 -0 2.06529e-19 -0 2.22314e-19)
(6.03932e-19 -6.2856e-19 -0 -5.56873e-19 -0 -4.70594e-20)
(9.5783e-19 1.29033e-19 -0 -6.13877e-19 -0 -3.43953e-19)
(-9.6119e-19 -3.01077e-19 -0 6.20923e-19 -0 3.40267e-19)
(-5.77323e-19 -1.77039e-19 -0 5.0402e-19 -0 7.33036e-20)
(-7.40386e-20 -2.28002e-19 -0 1.48077e-19 -0 -7.40386e-20)
(4.68351e-19 -1.32512e-18 -0 -2.86287e-19 -0 -1.82064e-19)
(8.47367e-17 -5.46916e-17 -0 -1.52466e-16 -0 6.77288e-17)
(-2.9364e-17 6.4432e-17 -0 3.96835e-17 -0 -1.03195e-17)
(4.92512e-18 -1.26798e-17 -0 -7.22438e-18 -0 2.29926e-18)
(-2.14136e-18 3.27396e-18 -0 2.96999e-18 -0 -8.28627e-19)
(-4.09647e-19 7.09635e-21 -0 1.63121e-19 -0 2.46526e-19)
(-3.7997e-19 1.00819e-18 -0 1.03867e-19 -0 2.76103e-19)
(2.04462e-19 7.93499e-19 -0 -4.08923e-19 -0 2.04462e-19)
(1.1075e-18 1.27692e-18 -0 -9.0344e-19 -0 -2.04061e-19)
(2.94585e-19 1.07219e-19 -0 -5.8917e-19 -0 2.94585e-19)
(1.12888e-18 7.52165e-19 -0 -9.46791e-19 -0 -1.82094e-19)
(9.24198e-19 4.38265e-19 -0 -5.37788e-19 -0 -3.8641e-19)
(3.87041e-19 5.62609e-19 -0 -1.18883e-19 -0 -2.68159e-19)
(-1.38429e-18 6.00506e-20 -0 8.03518e-19 -0 5.80768e-19)
(-6.32442e-19 8.98989e-20 -0 6.09972e-19 -0 2.24702e-20)
(3.63559e-19 1.8104e-19 -0 -7.23856e-20 -0 -2.91174e-19)
(3.95204e-20 -7.39337e-19 -0 -7.90407e-20 -0 3.95204e-20)
(-4.30579e-19 1.66666e-19 -0 2.06709e-19 -0 2.23871e-19)
(9.87627e-21 4.09829e-20 -0 -1.97525e-20 -0 9.87627e-21)
(9.10353e-20 2.56444e-19 -0 -1.82071e-19 -0 9.10353e-20)
(5.39707e-19 -2.01404e-19 -0 -4.253e-19 -0 -1.14407e-19)
(-6.0061e-17 -1.73757e-17 -0 1.22749e-16 -0 -6.26878e-17)
(1.29145e-17 -2.98676e-18 -0 -2.64884e-17 -0 1.35739e-17)
(-4.10934e-18 -1.24627e-18 -0 6.90044e-18 -0 -2.79111e-18)
(-2.01701e-19 -5.82414e-19 -0 -9.14619e-19 -0 1.11632e-18)
(7.81117e-19 -3.97884e-19 -0 -2.4462e-19 -0 -5.36498e-19)
(1.03087e-18 -2.96818e-19 -0 -7.44341e-19 -0 -2.86531e-19)
(6.16881e-19 3.89078e-20 -0 -5.75261e-19 -0 -4.16204e-20)
(1.43194e-19 -1.58061e-19 -0 -2.86389e-19 -0 1.43194e-19)
(-3.9188e-20 1.27975e-19 -0 7.8376e-20 -0 -3.9188e-20)
(-1.42178e-19 -6.6094e-19 -0 2.84355e-19 -0 -1.42178e-19)
(-6.24361e-19 -5.82793e-19 -0 5.90827e-19 -0 3.3534e-20)
(-2.00165e-18 -1.37112e-18 -0 1.37216e-18 -0 6.29493e-19)
(-1.32981e-19 -6.02393e-19 -0 2.65963e-19 -0 -1.32981e-19)
(-9.49952e-20 -1.96239e-19 -0 1.8999e-19 -0 -9.49952e-20)
(-7.26391e-20 -3.31693e-19 -0 1.45278e-19 -0 -7.26391e-20)
(5.01833e-19 -3.16732e-19 -0 -3.46483e-19 -0 -1.5535e-19)
(5.33591e-19 -9.16357e-19 -0 -4.10183e-19 -0 -1.23408e-19)
(7.13191e-20 2.12115e-20 -0 -1.42638e-19 -0 7.13191e-20)
(-3.62313e-19 -4.30082e-20 -0 6.78318e-20 -0 2.94481e-19)
(5.2216e-19 2.68575e-19 -0 -3.87673e-19 -0 -1.34487e-19)
(1.06349e-17 3.0743e-17 -0 -4.56246e-17 -0 3.49896e-17)
(1.05817e-17 -2.92332e-17 -0 2.63256e-18 -0 -1.32142e-17)
(-1.24376e-18 5.30136e-18 -0 -1.47692e-18 -0 2.72068e-18)
(2.05717e-18 -1.41535e-18 -0 -8.11182e-19 -0 -1.24599e-18)
(-7.78287e-19 1.34862e-19 -0 2.35731e-19 -0 5.42556e-19)
(-3.62973e-19 -5.94396e-20 -0 6.56335e-20 -0 2.97339e-19)
(1.13493e-18 -5.07559e-19 -0 -9.49653e-19 -0 -1.85281e-19)
(1.05067e-18 -6.98494e-19 -0 -7.8134e-19 -0 -2.69326e-19)
(-4.85029e-19 -4.52716e-19 -0 3.10264e-19 -0 1.74765e-19)
(-1.01301e-18 -6.71741e-19 -0 7.06665e-19 -0 3.06349e-19)
(-4.57052e-20 -7.19333e-19 -0 9.14104e-20 -0 -4.57052e-20)
(4.14343e-19 -1.7244e-19 -0 -1.69318e-19 -0 -2.45026e-19)
(4.19957e-19 -4.98411e-19 -0 -1.80741e-19 -0 -2.39216e-19)
(7.98094e-20 -1.97557e-22 -0 -1.59619e-19 -0 7.98094e-20)
(3.19104e-20 -5.642e-20 -0 -6.38208e-20 -0 3.19104e-20)
(1.63858e-20 -8.83871e-21 -0 -3.27716e-20 -0 1.63858e-20)
(1.37194e-19 -1.73053e-19 -0 -2.74387e-19 -0 1.37194e-19)
(1.05995e-18 7.13331e-20 -0 -8.03013e-19 -0 -2.56936e-19)
(-3.10275e-19 -9.08297e-20 -0 -3.77983e-20 -0 3.48073e-19)
(5.3503e-19 -2.91301e-19 -0 -4.11862e-19 -0 -1.23167e-19)
(2.39771e-17 -1.99113e-17 -0 -3.27939e-17 -0 8.81679e-18)
(-1.52017e-17 3.21238e-17 -0 1.12069e-17 -0 3.99487e-18)
(3.28256e-18 -4.0024e-18 -0 -2.595e-18 -0 -6.87562e-19)
(-9.78686e-19 2.68626e-18 -0 6.34213e-19 -0 3.44474e-19)
(8.17959e-19 9.20302e-19 -0 -3.13188e-19 -0 -5.04771e-19)
(-5.10854e-19 1.12593e-18 -0 3.60452e-19 -0 1.50402e-19)
(-2.83799e-20 1.55124e-18 -0 5.67599e-20 -0 -2.83799e-20)
(-4.57706e-19 1.28326e-18 -0 2.54479e-19 -0 2.03227e-19)
(1.12926e-19 9.15595e-19 -0 -2.25853e-19 -0 1.12926e-19)
(9.781e-19 6.58592e-19 -0 -6.34976e-19 -0 -3.43125e-19)
(-4.103e-19 1.23375e-18 -0 1.60188e-19 -0 2.50111e-19)
(-4.62747e-19 5.65173e-19 -0 2.652e-19 -0 1.97547e-19)
(-5.61126e-19 8.87757e-19 -0 4.62155e-19 -0 9.89709e-20)
(-9.07621e-20 7.15764e-19 -0 1.81524e-19 -0 -9.07621e-20)
(3.80227e-19 7.51955e-19 -0 -1.0067e-19 -0 -2.79557e-19)
(-7.27404e-20 5.13357e-19 -0 1.45481e-19 -0 -7.27404e-20)
(7.44435e-20 1.50278e-19 -0 -1.48887e-19 -0 7.44435e-20)
(5.9553e-19 3.63776e-19 -0 -5.31707e-19 -0 -6.38231e-20)
(1.23765e-19 8.56273e-20 -0 -2.47531e-19 -0 1.23765e-19)
(4.70845e-19 2.77731e-19 -0 -2.82587e-19 -0 -1.88258e-19)
(-4.0413e-17 9.95356e-18 -0 7.02711e-17 -0 -2.98581e-17)
(1.68468e-17 -8.01848e-18 -0 -1.84556e-17 -0 1.60888e-18)
(-3.60392e-18 1.85088e-18 -0 3.89658e-18 -0 -2.92663e-19)
(1.63269e-18 -1.03045e-18 -0 -1.27896e-18 -0 -3.53733e-19)
(-9.71454e-19 9.53552e-20 -0 6.1906e-19 -0 3.52395e-19)
(-5.4516e-20 -1.12812e-19 -0 1.09032e-19 -0 -5.4516e-20)
(-2.06114e-19 -5.88137e-19 -0 4.12228e-19 -0 -2.06114e-19)
(-1.78536e-19 -5.81513e-19 -0 3.57072e-19 -0 -1.78536e-19)
(-4.32759e-19 -2.94808e-19 -0 2.04239e-19 -0 2.2852e-19)
(5.86092e-20 -2.1818e-19 -0 -1.17218e-19 -0 5.86092e-20)
(1.23635e-20 -8.71561e-19 -0 -2.47271e-20 -0 1.23635e-20)
(3.49279e-19 5.3963e-20 -0 -3.77128e-20 -0 -3.11566e-19)
(-1.51772e-19 5.93877e-19 -0 3.03544e-19 -0 -1.51772e-19)
(-5.33197e-19 -9.23637e-20 -0 4.05869e-19 -0 1.27329e-19)
(6.93642e-20 5.76786e-19 -0 -1.38728e-19 -0 6.93642e-20)
(3.43521e-20 -2.10149e-19 -0 -6.87041e-20 -0 3.43521e-20)
(-1.39843e-19 1.43234e-19 -0 2.79686e-19 -0 -1.39843e-19)
(-1.37308e-19 -2.6005e-21 -0 2.74617e-19 -0 -1.37308e-19)
(-8.44521e-19 9.58558e-20 -0 3.69451e-19 -0 4.75071e-19)
(-1.69496e-20 2.7084e-19 -0 3.38993e-20 -0 -1.69496e-20)
(2.94566e-17 1.19079e-17 -0 -3.64724e-17 -0 7.01575e-18)
(-2.22861e-17 -1.67048e-17 -0 1.60684e-17 -0 6.21771e-18)
(5.63271e-18 2.58103e-18 -0 -3.97665e-18 -0 -1.65605e-18)
(-1.99297e-18 -1.59071e-18 -0 1.33593e-18 -0 6.57041e-19)
(4.3529e-19 -8.51872e-19 -0 -2.08294e-19 -0 -2.26996e-19)
(-5.40313e-19 -1.34515e-18 -0 4.18453e-19 -0 1.2186e-19)
(-5.48483e-19 -5.77272e-19 -0 4.35006e-19 -0 1.13477e-19)
(1.77985e-20 -6.91019e-19 -0 -3.5597e-20 -0 1.77985e-20)
(4.60573e-19 -4.31438e-19 -0 -2.59509e-19 -0 -2.01063e-19)
(2.11086e-20 -8.43942e-21 -0 -4.22171e-20 -0 2.11086e-20)
(1.16576e-19 1.37762e-19 -0 -2.33152e-19 -0 1.16576e-19)
(1.65851e-19 -1.79448e-19 -0 -3.31702e-19 -0 1.65851e-19)
(1.26359e-19 -1.00116e-19 -0 -2.52719e-19 -0 1.26359e-19)
(6.59926e-20 -2.7601e-19 -0 -1.31985e-19 -0 6.59926e-20)
(1.01467e-18 -9.85698e-20 -0 -7.07979e-19 -0 -3.06688e-19)
(2.79776e-20 1.67515e-19 -0 -5.59551e-20 -0 2.79776e-20)
(-6.01992e-19 7.79487e-20 -0 5.43622e-19 -0 5.837e-20)
(-1.45227e-19 4.31703e-19 -0 2.90453e-19 -0 -1.45227e-19)
(-6.06999e-20 -9.48545e-20 -0 1.214e-19 -0 -6.06999e-20)
(4.22007e-19 3.05491e-19 -0 -1.84026e-19 -0 -2.3798e-19)
(-5.05034e-18 -1.15058e-17 -0 -6.40638e-18 -0 1.14567e-17)
(9.93666e-18 1.43175e-17 -0 -1.96826e-18 -0 -7.96839e-18)
(-2.27354e-18 -2.7331e-18 -0 5.69782e-19 -0 1.70376e-18)
(7.32932e-19 8.01275e-19 -0 -1.40324e-19 -0 -5.92608e-19)
(3.20344e-20 -4.26917e-19 -0 -6.40688e-20 -0 3.20344e-20)
(-4.32513e-20 -2.92611e-19 -0 8.65026e-20 -0 -4.32513e-20)
(1.4382e-20 -4.32599e-19 -0 -2.87641e-20 -0 1.4382e-20)
(1.06963e-18 -4.41049e-19 -0 -8.15034e-19 -0 -2.54594e-19)
(1.33247e-19 3.08842e-20 -0 -2.66494e-19 -0 1.33247e-19)
(8.68201e-20 -3.64142e-19 -0 -1.7364e-19 -0 8.68201e-20)
(6.42547e-20 2.33524e-19 -0 -1.28509e-19 -0 6.42547e-20)
(1.06704e-18 3.92429e-20 -0 -8.11171e-19 -0 -2.55873e-19)
(7.24253e-20 -5.7833e-19 -0 -1.44851e-19 -0 7.24253e-20)
(-2.62413e-20 -1.03654e-19 -0 5.24826e-20 -0 -2.62413e-20)
(-1.21545e-20 -1.01802e-18 -0 2.43091e-20 -0 -1.21545e-20)
(2.83644e-20 -9.72701e-20 -0 -5.67288e-20 -0 2.83644e-20)
(6.91319e-20 7.29917e-20 -0 -1.38264e-19 -0 6.91319e-20)
(1.4763e-20 -1.5418e-19 -0 -2.95261e-20 -0 1.4763e-20)
(-1.03206e-18 -9.49554e-20 -0 7.43323e-19 -0 2.88739e-19)
(-4.73013e-20 1.53036e-19 -0 9.46026e-20 -0 -4.73013e-20)
(4.2488e-18 -1.18635e-17 -0 1.66016e-17 -0 -2.08503e-17)
(-1.72365e-17 -3.00437e-18 -0 3.95746e-18 -0 1.32791e-17)
(2.8329e-18 1.40887e-19 -0 -3.60902e-19 -0 -2.472e-18)
(-2.00502e-18 1.5791e-18 -0 6.95033e-19 -0 1.30999e-18)
(8.85528e-19 6.43208e-19 -0 -4.45496e-19 -0 -4.40033e-19)
(-4.07299e-19 9.99659e-19 -0 1.51929e-19 -0 2.5537e-19)
(6.3153e-20 7.33186e-19 -0 -1.26306e-19 -0 6.3153e-20)
(-3.61581e-19 7.85887e-19 -0 6.08228e-20 -0 3.00758e-19)
(5.45783e-19 7.11361e-19 -0 -4.2944e-19 -0 -1.16343e-19)
(5.61264e-19 1.41903e-18 -0 -4.60517e-19 -0 -1.00747e-19)
(4.72687e-19 6.52107e-19 -0 -2.83572e-19 -0 -1.89116e-19)
(4.17774e-21 1.13148e-18 -0 -8.35547e-21 -0 4.17774e-21)
(-2.86581e-21 8.78333e-19 -0 5.73162e-21 -0 -2.86581e-21)
(2.48921e-20 8.42726e-19 -0 -4.97842e-20 -0 2.48921e-20)
(-5.23806e-19 8.11167e-19 -0 3.86452e-19 -0 1.37354e-19)
(3.76633e-19 4.56384e-20 -0 -9.22273e-20 -0 -2.84406e-19)
(6.90352e-20 9.83976e-20 -0 -1.3807e-19 -0 6.90352e-20)
(5.02825e-19 -8.88666e-19 -0 -3.44932e-19 -0 -1.57894e-19)
(5.59806e-20 -3.32093e-19 -0 -1.11961e-19 -0 5.59806e-20)
(4.22549e-19 7.42163e-21 -0 -1.84635e-19 -0 -2.37914e-19)
(-1.19195e-17 1.54606e-17 -0 -2.17506e-17 -0 3.36701e-17)
(3.46458e-17 -3.76206e-18 -0 -1.35485e-17 -0 -2.10973e-17)
(-6.03508e-18 3.6079e-18 -0 2.12009e-18 -0 3.91499e-18)
(3.46533e-18 7.38201e-19 -0 -1.62486e-18 -0 -1.84047e-18)
(-1.36698e-18 1.81754e-18 -0 7.44937e-19 -0 6.2204e-19)
(1.07542e-20 9.40912e-19 -0 -2.15083e-20 -0 1.07542e-20)
(8.89465e-20 1.48683e-18 -0 -1.77893e-19 -0 8.89465e-20)
(7.95256e-19 1.48443e-18 -0 -2.65392e-19 -0 -5.29864e-19)
(-1.04592e-18 9.64422e-19 -0 7.67138e-19 -0 2.78781e-19)
(7.83027e-19 1.06939e-18 -0 -2.41591e-19 -0 -5.41436e-19)
(-4.33259e-20 1.06932e-18 -0 8.66519e-20 -0 -4.33259e-20)
(-9.95287e-19 4.21758e-19 -0 6.66766e-19 -0 3.28521e-19)
(8.80589e-19 3.82741e-19 -0 -4.37778e-19 -0 -4.42811e-19)
(-9.61325e-20 6.78184e-19 -0 1.92265e-19 -0 -9.61325e-20)
(-2.0253e-18 4.37539e-19 -0 1.40509e-18 -0 6.20213e-19)
(-6.2174e-19 3.35737e-19 -0 5.82224e-19 -0 3.95165e-20)
(-7.22144e-20 5.4444e-19 -0 1.44429e-19 -0 -7.22144e-20)
(-9.4155e-19 8.56678e-19 -0 5.61228e-19 -0 3.80321e-19)
(-3.47342e-20 3.5559e-19 -0 6.94684e-20 -0 -3.47342e-20)
(-4.59615e-20 5.40807e-19 -0 9.19229e-20 -0 -4.59615e-20)
(1.3573e-17 -3.44572e-18 -0 2.2425e-17 -0 -3.5998e-17)
(-3.1901e-17 1.36473e-17 -0 1.13581e-17 -0 2.05429e-17)
(4.51392e-18 -4.18892e-18 -0 -1.06492e-18 -0 -3.449e-18)
(-2.52023e-18 -1.7732e-18 -0 1.05969e-18 -0 1.46054e-18)
(4.75758e-19 -2.13327e-18 -0 -2.88274e-19 -0 -1.87485e-19)
(5.98016e-20 -1.51557e-18 -0 -1.19603e-19 -0 5.98016e-20)
(6.10601e-20 -2.10097e-18 -0 -1.2212e-19 -0 6.10601e-20)
(-6.66201e-21 -1.48696e-18 -0 1.3324e-20 -0 -6.66201e-21)
(-1.05885e-19 -1.25814e-18 -0 2.11771e-19 -0 -1.05885e-19)
(-7.40866e-20 -1.74027e-18 -0 1.48173e-19 -0 -7.40866e-20)
(-4.91354e-19 -1.64606e-18 -0 3.20452e-19 -0 1.70902e-19)
(-9.3159e-19 -1.24771e-18 -0 5.38909e-19 -0 3.92681e-19)
(8.15281e-19 -1.46268e-18 -0 -3.067e-19 -0 -5.08581e-19)
(-2.17934e-19 -1.74467e-18 -0 4.35867e-19 -0 -2.17934e-19)
(-1.05403e-18 -1.37662e-18 -0 7.84847e-19 -0 2.69185e-19)
(9.02584e-20 -8.99925e-19 -0 -1.80517e-19 -0 9.02584e-20)
(9.46122e-19 -1.07433e-18 -0 -5.6967e-19 -0 -3.76452e-19)
(3.7037e-19 4.62693e-20 -0 -7.95759e-20 -0 -2.90794e-19)
(-1.54184e-18 -3.53804e-19 -0 1.10048e-18 -0 4.41358e-19)
(-6.37711e-20 -4.44099e-19 -0 1.27542e-19 -0 -6.37711e-20)
(-9.69447e-18 3.75445e-18 -0 -9.04251e-18 -0 1.8737e-17)
(1.51766e-17 -2.76065e-17 -0 -3.78892e-18 -0 -1.13877e-17)
(-2.99896e-18 3.35553e-18 -0 6.87228e-19 -0 2.31173e-18)
(1.68353e-18 -1.1677e-18 -0 -7.12171e-19 -0 -9.71362e-19)
(6.24171e-19 -3.92675e-19 -0 -5.84841e-19 -0 -3.933e-20)
(1.08436e-18 -4.26409e-19 -0 -8.41951e-19 -0 -2.42412e-19)
(-4.00514e-19 -7.02839e-20 -0 1.3786e-19 -0 2.62654e-19)
(4.39184e-19 -2.53079e-19 -0 -2.15315e-19 -0 -2.23869e-19)
(9.90603e-19 7.2075e-20 -0 -6.55531e-19 -0 -3.35072e-19)
(3.23307e-20 -7.93472e-21 -0 -6.46614e-20 -0 3.23307e-20)
(-5.11788e-19 3.83625e-20 -0 3.61065e-19 -0 1.50723e-19)
(-2.51603e-20 -2.14102e-19 -0 5.03206e-20 -0 -2.51603e-20)
(4.57641e-19 3.05896e-19 -0 -2.53096e-19 -0 -2.04544e-19)
(9.9631e-20 -1.57367e-19 -0 -1.99262e-19 -0 9.9631e-20)
(-2.69643e-19 -3.55462e-19 -0 -1.22574e-19 -0 3.92217e-19)
(5.5371e-19 -3.49444e-19 -0 -4.45683e-19 -0 -1.08027e-19)
(5.0022e-19 1.24364e-19 -0 -3.38901e-19 -0 -1.61318e-19)
(-3.60355e-19 -3.69875e-19 -0 5.92969e-20 -0 3.01058e-19)
(5.55047e-20 -3.15385e-19 -0 -1.11009e-19 -0 5.55047e-20)
(9.02692e-19 -2.14679e-19 -0 -4.83073e-19 -0 -4.19619e-19)
(1.19067e-17 -1.55442e-17 -0 -1.19069e-17 -0 1.7075e-22)
(-7.97021e-18 3.21181e-17 -0 3.98118e-18 -0 3.98903e-18)
(1.40233e-18 -3.21336e-18 -0 -8.12266e-19 -0 -5.90064e-19)
(-4.11372e-19 2.74891e-18 -0 1.5873e-19 -0 2.52642e-19)
(3.27202e-20 2.08196e-18 -0 -6.54404e-20 -0 3.27202e-20)
(1.27481e-19 1.68011e-18 -0 -2.54963e-19 -0 1.27481e-19)
(4.52616e-19 1.51867e-18 -0 -2.41772e-19 -0 -2.10844e-19)
(-1.78311e-19 1.39891e-18 -0 3.56621e-19 -0 -1.78311e-19)
(-5.45259e-19 1.34054e-18 -0 4.2739e-19 -0 1.17869e-19)
(-1.13086e-19 8.44348e-19 -0 2.26171e-19 -0 -1.13086e-19)
(-1.05552e-18 7.58652e-19 -0 7.85436e-19 -0 2.7008e-19)
(-6.29831e-19 1.27249e-18 -0 5.96986e-19 -0 3.28454e-20)
(-1.58188e-20 6.67488e-19 -0 3.16375e-20 -0 -1.58188e-20)
(6.82287e-19 1.33235e-18 -0 -7.02227e-19 -0 1.99398e-20)
(1.07561e-18 1.25137e-18 -0 -8.26934e-19 -0 -2.48676e-19)
(-9.89512e-19 5.91989e-19 -0 6.54984e-19 -0 3.34528e-19)
(-1.42795e-19 9.58157e-19 -0 2.85591e-19 -0 -1.42795e-19)
(-1.5544e-20 7.13509e-19 -0 3.1088e-20 -0 -1.5544e-20)
(-3.85702e-19 7.27471e-19 -0 1.09808e-19 -0 2.75894e-19)
(4.56494e-19 3.31993e-19 -0 -2.51552e-19 -0 -2.04941e-19)
(-2.26675e-17 2.85708e-17 -0 3.8717e-17 -0 -1.60496e-17)
(1.11933e-17 -2.77434e-17 -0 -1.10861e-17 -0 -1.07185e-19)
(-2.50674e-18 5.30898e-18 -0 2.35565e-18 -0 1.51088e-19)
(1.06632e-18 -1.43895e-18 -0 -8.0395e-19 -0 -2.62369e-19)
(8.25273e-19 -8.69485e-19 -0 -3.22309e-19 -0 -5.02964e-19)
(-1.06351e-18 -3.93187e-19 -0 7.99021e-19 -0 2.64494e-19)
(-1.08828e-18 -6.07126e-19 -0 8.48987e-19 -0 2.39289e-19)
(-8.71576e-20 -7.46625e-19 -0 1.74315e-19 -0 -8.71576e-20)
(-5.14986e-19 -1.35252e-18 -0 3.66522e-19 -0 1.48463e-19)
(3.37488e-20 -8.9986e-19 -0 -6.74976e-20 -0 3.37488e-20)
(4.66461e-19 -5.12119e-19 -0 -2.69803e-19 -0 -1.96658e-19)
(-5.78817e-20 -1.16809e-19 -0 1.15763e-19 -0 -5.78817e-20)
(-5.23263e-19 -3.37268e-19 -0 3.83737e-19 -0 1.39526e-19)
(4.9467e-19 -1.3927e-19 -0 -3.26675e-19 -0 -1.67995e-19)
(3.04308e-20 -8.27996e-19 -0 -6.08616e-20 -0 3.04308e-20)
(-6.97374e-20 1.53814e-19 -0 1.39475e-19 -0 -6.97374e-20)
(-6.06676e-19 -1.24486e-20 -0 5.51216e-19 -0 5.54601e-20)
(-9.961e-19 -6.67558e-19 -0 6.6818e-19 -0 3.2792e-19)
(-1.3441e-20 -3.62315e-19 -0 2.68819e-20 -0 -1.3441e-20)
(2.95811e-20 -4.39368e-19 -0 -5.91623e-20 -0 2.95811e-20)
(5.25933e-17 -5.54853e-18 -0 -8.13498e-17 -0 2.87565e-17)
(-2.72909e-17 4.7372e-18 -0 2.59829e-17 -0 1.30802e-18)
(5.63753e-18 -1.98641e-18 -0 -5.29172e-18 -0 -3.45805e-19)
(-1.78842e-18 -2.54626e-19 -0 1.58275e-18 -0 2.05673e-19)
(-3.97755e-19 -1.03222e-18 -0 1.31035e-19 -0 2.6672e-19)
(-1.50358e-19 -7.60846e-19 -0 3.00716e-19 -0 -1.50358e-19)
(-5.41351e-19 -6.08674e-19 -0 4.18565e-19 -0 1.22786e-19)
(4.55707e-20 -4.55544e-19 -0 -9.11414e-20 -0 4.55707e-20)
(-3.34228e-21 -4.99027e-19 -0 6.68457e-21 -0 -3.34228e-21)
(4.52443e-20 -2.95987e-19 -0 -9.04887e-20 -0 4.52443e-20)
(5.72801e-19 -4.29998e-19 -0 -4.82134e-19 -0 -9.06665e-20)
(5.88501e-19 -8.89143e-19 -0 -5.13658e-19 -0 -7.48439e-20)
(-1.3599e-21 -1.61214e-19 -0 2.71979e-21 -0 -1.3599e-21)
(-8.87201e-20 -1.15469e-18 -0 1.7744e-19 -0 -8.87201e-20)
(-4.39438e-19 -5.51756e-19 -0 2.16071e-19 -0 2.23368e-19)
(5.30397e-19 -4.39039e-19 -0 -3.98113e-19 -0 -1.32284e-19)
(4.74285e-20 -1.29394e-18 -0 -9.48569e-20 -0 4.74285e-20)
(-4.15826e-19 -1.75919e-19 -0 1.693e-19 -0 2.46526e-19)
(5.36961e-19 -4.79783e-19 -0 -4.11671e-19 -0 -1.25291e-19)
(5.1545e-19 2.55046e-20 -0 -3.68811e-19 -0 -1.4664e-19)
(-1.38516e-17 -3.70477e-17 -0 1.77661e-17 -0 -3.91452e-18)
(9.16527e-18 3.17349e-17 -0 -6.35246e-18 -0 -2.81281e-18)
(-2.31446e-18 -5.33742e-18 -0 1.96824e-18 -0 3.46217e-19)
(4.10537e-19 1.63051e-18 -0 -1.5602e-19 -0 -2.54518e-19)
(-1.01251e-19 6.61094e-19 -0 2.02503e-19 -0 -1.01251e-19)
(-1.51395e-20 1.1517e-18 -0 3.02789e-20 -0 -1.51395e-20)
(9.36307e-19 1.42395e-18 -0 -5.43639e-19 -0 -3.92668e-19)
(-6.48609e-20 1.43495e-18 -0 1.29722e-19 -0 -6.48609e-20)
(-1.00676e-18 1.3031e-18 -0 6.85225e-19 -0 3.21538e-19)
(-5.98701e-19 1.22238e-18 -0 5.33373e-19 -0 6.53279e-20)
(-4.13676e-20 1.32711e-18 -0 8.27352e-20 -0 -4.13676e-20)
(1.0328e-20 4.12756e-19 -0 -2.06559e-20 -0 1.0328e-20)
(5.97873e-20 1.50064e-20 -0 -1.19575e-19 -0 5.97873e-20)
(-5.89269e-20 8.49929e-19 -0 1.17854e-19 -0 -5.89269e-20)
(-5.21793e-19 5.62903e-19 -0 3.80434e-19 -0 1.41358e-19)
(-3.85882e-19 7.49447e-19 -0 1.08738e-19 -0 2.77143e-19)
(1.05478e-18 7.44662e-19 -0 -7.83918e-19 -0 -2.70863e-19)
(4.79876e-19 5.85021e-19 -0 -2.97057e-19 -0 -1.82819e-19)
(-6.62453e-20 5.58659e-19 -0 1.32491e-19 -0 -6.62453e-20)
(-6.22902e-20 4.76981e-19 -0 1.2458e-19 -0 -6.22902e-20)
(-5.96933e-17 4.85407e-18 -0 1.227e-16 -0 -6.30071e-17)
(1.41383e-17 -6.00551e-18 -0 -2.62795e-17 -0 1.21412e-17)
(-3.34311e-18 -1.50003e-18 -0 6.02081e-18 -0 -2.6777e-18)
(-3.75233e-19 -1.2467e-18 -0 -5.80143e-19 -0 9.55377e-19)
(-1.22128e-18 -1.0597e-18 -0 1.11238e-18 -0 1.08893e-19)
(-1.2645e-19 -1.32149e-18 -0 2.529e-19 -0 -1.2645e-19)
(-9.19437e-20 -1.19936e-18 -0 1.83887e-19 -0 -9.19437e-20)
(-4.70287e-19 -1.19545e-18 -0 2.75935e-19 -0 1.94352e-19)
(5.45479e-19 -1.02706e-18 -0 -4.26533e-19 -0 -1.18945e-19)
(3.66865e-20 -1.08036e-18 -0 -7.3373e-20 -0 3.66865e-20)
(-4.26341e-20 -1.012e-18 -0 8.52682e-20 -0 -4.26341e-20)
(-4.95644e-19 -4.58383e-20 -0 3.27313e-19 -0 1.6833e-19)
(4.16214e-20 -3.89311e-19 -0 -8.32427e-20 -0 4.16214e-20)
(4.43641e-19 -6.14635e-19 -0 -2.23639e-19 -0 -2.20002e-19)
(-1.12903e-19 -3.93218e-19 -0 2.25805e-19 -0 -1.12903e-19)
(-5.46305e-19 -1.52428e-19 -0 4.29298e-19 -0 1.17007e-19)
(-9.87955e-21 -2.73452e-19 -0 1.97591e-20 -0 -9.87955e-21)
(-3.64968e-20 -4.83051e-19 -0 7.29936e-20 -0 -3.64968e-20)
(-1.00119e-18 1.83606e-21 -0 6.76616e-19 -0 3.24572e-19)
(-1.06257e-19 -4.98692e-19 -0 2.12515e-19 -0 -1.06257e-19)
(3.78545e-17 5.75521e-17 -0 -8.83038e-17 -0 5.04493e-17)
(-3.98345e-18 -6.25606e-17 -0 1.52586e-17 -0 -1.12752e-17)
(1.8829e-18 1.33769e-17 -0 -4.42869e-18 -0 2.54579e-18)
(1.06575e-18 -2.53887e-18 -0 -1.42841e-19 -0 -9.22906e-19)
(2.46062e-19 9.50324e-19 -0 -4.92123e-19 -0 2.46062e-19)
(1.11321e-19 4.54537e-19 -0 -2.22642e-19 -0 1.11321e-19)
(5.54706e-19 6.09234e-19 -0 -4.46528e-19 -0 -1.08178e-19)
(6.04001e-19 1.46454e-19 -0 -5.45117e-19 -0 -5.88835e-20)
(5.20364e-19 2.10695e-19 -0 -3.77844e-19 -0 -1.4252e-19)
(-3.80576e-19 4.43218e-19 -0 9.82681e-20 -0 2.82308e-19)
(5.39066e-19 4.65192e-19 -0 -4.15249e-19 -0 -1.23818e-19)
(5.81884e-19 -4.53718e-20 -0 -5.00884e-19 -0 -8.10003e-20)
(-4.05535e-19 2.65258e-19 -0 1.48187e-19 -0 2.57348e-19)
(5.76034e-20 8.65584e-20 -0 -1.15207e-19 -0 5.76034e-20)
(1.26727e-19 3.89095e-19 -0 -2.53454e-19 -0 1.26727e-19)
(5.50731e-20 -6.79953e-20 -0 -1.10146e-19 -0 5.50731e-20)
(4.21766e-19 3.11983e-19 -0 -1.80648e-19 -0 -2.41118e-19)
(5.22745e-19 8.35126e-20 -0 -3.82605e-19 -0 -1.40139e-19)
(1.55454e-19 7.09003e-22 -0 -3.10908e-19 -0 1.55454e-19)
(5.24441e-19 1.41859e-19 -0 -3.85999e-19 -0 -1.38443e-19)
)
;

boundaryField
{
    movingWall
    {
        type            calculated;
        value           nonuniform List<symmTensor> 
20
(
(1.34404e-16 6.12825e-17 -0 -2.79107e-16 -0 1.44704e-16)
(-2.47971e-17 -4.8572e-17 -0 5.55574e-17 -0 -3.07603e-17)
(6.64659e-18 1.75028e-17 -0 -1.38353e-17 -0 7.18869e-18)
(3.80032e-20 3.17223e-19 -0 1.5503e-18 -0 -1.5883e-18)
(7.48491e-19 3.61474e-18 -0 -1.49698e-18 -0 7.48491e-19)
(3.03445e-19 2.93824e-18 -0 -6.06889e-19 -0 3.03445e-19)
(6.55533e-19 3.06475e-18 -0 -7.68965e-19 -0 1.13432e-19)
(5.47846e-19 2.51325e-18 -0 -5.53591e-19 -0 5.74515e-21)
(2.52116e-19 1.67761e-18 -0 3.78692e-20 -0 -2.89985e-19)
(-4.38277e-19 2.31186e-18 -0 3.34454e-19 -0 1.03824e-19)
(4.95874e-19 2.32983e-18 -0 -4.49647e-19 -0 -4.6227e-20)
(5.76203e-19 8.51074e-19 -0 -6.10304e-19 -0 3.41014e-20)
(-3.25873e-19 1.27814e-18 -0 1.09645e-19 -0 2.16228e-19)
(7.04685e-20 1.84714e-18 -0 -1.40937e-19 -0 7.04685e-20)
(2.24292e-19 1.37942e-18 -0 -4.48584e-19 -0 2.24292e-19)
(1.96197e-19 1.72075e-18 -0 -3.92395e-19 -0 1.96197e-19)
(4.3741e-19 1.76044e-18 -0 -3.32719e-19 -0 -1.04691e-19)
(5.15161e-19 9.56474e-19 -0 -4.88222e-19 -0 -2.69396e-20)
(2.58132e-19 4.44669e-19 -0 -5.16264e-19 -0 2.58132e-19)
(5.16708e-19 2.8905e-19 -0 -4.91314e-19 -0 -2.53934e-20)
)
;
    }
    fixedWalls
    {
        type            calculated;
        value           nonuniform List<symmTensor> 
60
(
(1.07897e-16 -2.27977e-16 -0 -1.57175e-16 -0 4.92776e-17)
(-1.79741e-16 -1.96042e-16 -0 2.42242e-16 -0 -6.25014e-17)
(2.28526e-17 4.11598e-16 -0 -1.72836e-17 -0 -5.56908e-18)
(1.02274e-16 -2.18929e-16 -0 -1.42376e-16 -0 4.01018e-17)
(-4.74741e-17 4.62928e-18 -0 1.00277e-16 -0 -5.28032e-17)
(-3.945e-17 9.78035e-17 -0 -1.34707e-17 -0 5.29206e-17)
(5.40399e-17 -1.03488e-16 -0 -4.4131e-17 -0 -9.90894e-18)
(-6.05862e-17 2.63779e-17 -0 7.14343e-17 -0 -1.08482e-17)
(7.94076e-17 5.43011e-17 -0 -5.75629e-17 -0 -2.18447e-17)
(-3.77439e-17 -4.88532e-17 -0 1.1539e-17 -0 2.62049e-17)
(6.08082e-17 1.03327e-17 -0 -1.5035e-17 -0 -4.57732e-17)
(-1.12149e-16 2.31942e-17 -0 3.33387e-17 -0 7.88098e-17)
(1.13109e-16 -5.40466e-17 -0 -3.25957e-17 -0 -8.05136e-17)
(-6.22781e-17 8.92144e-17 -0 1.97511e-17 -0 4.2527e-17)
(3.28587e-17 -1.01224e-16 -0 -2.13085e-17 -0 -1.15502e-17)
(-3.80465e-17 9.49056e-17 -0 4.14541e-17 -0 -3.40757e-18)
(9.51819e-17 -2.1259e-17 -0 -9.26641e-17 -0 -2.51776e-18)
(-3.25591e-17 -1.0409e-16 -0 2.51502e-17 -0 7.40892e-18)
(-5.12251e-17 1.53077e-17 -0 1.01562e-16 -0 -5.03369e-17)
(1.23626e-17 2.16784e-16 -0 -6.29168e-17 -0 5.05542e-17)
(-6.55889e-20 5.57239e-19 -0 1.31178e-19 -0 -6.55889e-20)
(-2.46492e-18 -4.08672e-19 -0 1.37712e-18 -0 1.0878e-18)
(6.21075e-19 -1.37667e-18 -0 -3.53971e-19 -0 -2.67104e-19)
(6.78004e-19 -2.34938e-19 -0 -4.67829e-19 -0 -2.10175e-19)
(6.96735e-20 2.2284e-19 -0 -1.39347e-19 -0 6.96735e-20)
(6.71377e-19 -8.79471e-20 -0 -4.54575e-19 -0 -2.16802e-19)
(6.1798e-19 4.27336e-19 -0 -3.47782e-19 -0 -2.70198e-19)
(-1.39294e-20 3.38271e-19 -0 2.78589e-20 -0 -1.39294e-20)
(1.16947e-18 3.43759e-19 -0 -5.62575e-19 -0 -6.06891e-19)
(-3.88373e-20 2.49638e-19 -0 7.76747e-20 -0 -3.88373e-20)
(1.16966e-18 1.10735e-19 -0 -5.62965e-19 -0 -6.06696e-19)
(-3.77123e-20 4.33227e-19 -0 7.54247e-20 -0 -3.77123e-20)
(-5.23075e-20 -3.86589e-19 -0 1.04615e-19 -0 -5.23075e-20)
(6.09462e-19 -1.51669e-19 -0 -3.30745e-19 -0 -2.78717e-19)
(6.04853e-19 2.59568e-19 -0 -3.21527e-19 -0 -2.83326e-19)
(2.42327e-20 -3.46316e-19 -0 -4.84654e-20 -0 2.42327e-20)
(6.52755e-19 1.33913e-19 -0 -4.17331e-19 -0 -2.35424e-19)
(-5.09753e-20 5.59599e-19 -0 1.01951e-19 -0 -5.09753e-20)
(-8.69182e-20 -4.42989e-19 -0 1.73836e-19 -0 -8.69182e-20)
(6.59602e-19 3.80901e-20 -0 -4.31026e-19 -0 -2.28576e-19)
(1.52888e-16 -1.50674e-17 -0 -2.97102e-16 -0 1.44214e-16)
(-3.96082e-17 4.00407e-17 -0 6.29534e-17 -0 -2.33452e-17)
(1.04242e-17 -1.29892e-17 -0 -1.59695e-17 -0 5.54527e-18)
(-1.23376e-18 -1.40298e-19 -0 2.46752e-18 -0 -1.23376e-18)
(8.01677e-19 -2.79286e-18 -0 -1.06125e-18 -0 2.59576e-19)
(-6.87315e-20 -2.21468e-18 -0 -4.04638e-19 -0 4.7337e-19)
(7.86308e-19 -2.672e-18 -0 -1.03051e-18 -0 2.44207e-19)
(3.12565e-19 -2.12984e-18 -0 -6.25131e-19 -0 3.12565e-19)
(5.44682e-19 -1.65882e-18 -0 -5.47263e-19 -0 2.58086e-21)
(-8.59922e-22 -2.19861e-18 -0 1.71984e-21 -0 -8.59922e-22)
(4.86443e-19 -1.43061e-18 -0 -4.30785e-19 -0 -5.56578e-20)
(-1.00012e-19 -1.85107e-18 -0 -3.42077e-19 -0 4.42089e-19)
(1.04707e-18 -1.3517e-18 -0 -1.00995e-18 -0 -3.71279e-20)
(6.74612e-19 1.27871e-19 -0 -8.07123e-19 -0 1.32511e-19)
(-3.78117e-19 9.67983e-20 -0 2.14132e-19 -0 1.63985e-19)
(4.16483e-19 -9.22718e-19 -0 -2.90866e-19 -0 -1.25618e-19)
(7.53907e-20 9.03472e-19 -0 -1.50781e-19 -0 7.53907e-20)
(-7.08501e-19 -8.85931e-19 -0 3.32799e-19 -0 3.75702e-19)
(7.92198e-19 -4.42511e-19 -0 -5.00193e-19 -0 -2.92004e-19)
(1.00923e-20 2.98082e-20 -0 -2.01845e-20 -0 1.00923e-20)
)
;
    }
    frontAndBack
    {
        type            empty;
    }
}


// ************************************************************************* //
