/*--------------------------------*- C++ -*----------------------------------*\
| =========                 |                                                 |
| \\      /  F ield         | OpenFOAM: The Open Source CFD Toolbox           |
|  \\    /   O peration     | Version:  2506                                  |
|   \\  /    A nd           | Website:  www.openfoam.com                      |
|    \\/     M anipulation  |                                                 |
\*---------------------------------------------------------------------------*/
FoamFile
{
    version     2.0;
    format      ascii;
    arch        "LSB;label=32;scalar=64";
    class       volScalarField;
    location    "5.5";
    object      turbulenceProperties:I;
}
// * * * * * * * * * * * * * * * * * * * * * * * * * * * * * * * * * * * * * //

dimensions      [0 0 0 0 0 0 0];

internalField   nonuniform List<scalar> 
400
(
0.0027108
0.0027108
0.0027108
0.0027108
0.00271079
0.00271079
0.00271079
0.00271079
0.00271079
0.00271079
0.00271079
0.00271079
0.00271079
0.00271079
0.00271079
0.00271079
0.00271079
0.00271079
0.00271079
0.00271079
0.00280059
0.00280059
0.00280046
0.00280041
0.00280033
0.00280028
0.00280021
0.00280017
0.00280011
0.00280007
0.00280003
0.0028
0.00279996
0.00279994
0.00279991
0.0027999
0.00279988
0.00279988
0.00279987
0.00279987
0.0029193
0.0029193
0.00291915
0.00291909
0.00291899
0.00291894
0.00291886
0.00291881
0.00291875
0.00291871
0.00291865
0.00291862
0.00291858
0.00291855
0.00291852
0.0029185
0.00291849
0.00291848
0.00291847
0.00291847
0.00301963
0.00301963
0.00301946
0.00301941
0.00301929
0.00301924
0.00301913
0.0030191
0.00301901
0.00301898
0.00301891
0.00301888
0.00301882
0.0030188
0.00301876
0.00301875
0.00301873
0.00301872
0.00301871
0.00301871
0.00308821
0.0030882
0.00308803
0.00308796
0.00308785
0.00308778
0.00308769
0.00308763
0.00308755
0.00308751
0.00308743
0.0030874
0.00308734
0.00308732
0.00308728
0.00308726
0.00308724
0.00308723
0.00308722
0.00308722
0.00313017
0.00313017
0.00312998
0.00312992
0.00312979
0.00312973
0.00312963
0.00312957
0.00312948
0.00312944
0.00312936
0.00312933
0.00312927
0.00312924
0.0031292
0.00312919
0.00312916
0.00312915
0.00312914
0.00312914
0.00315468
0.00315468
0.00315448
0.00315443
0.00315429
0.00315424
0.00315412
0.00315407
0.00315398
0.00315393
0.00315386
0.00315381
0.00315377
0.00315373
0.0031537
0.00315367
0.00315365
0.00315364
0.00315363
0.00315363
0.00316922
0.00316922
0.00316903
0.00316896
0.00316882
0.00316877
0.00316865
0.0031686
0.0031685
0.00316846
0.00316837
0.00316835
0.00316828
0.00316826
0.00316821
0.0031682
0.00316817
0.00316816
0.00316815
0.00316815
0.00317858
0.00317857
0.00317839
0.00317831
0.00317818
0.00317811
0.00317801
0.00317795
0.00317785
0.00317781
0.00317773
0.00317769
0.00317763
0.00317761
0.00317756
0.00317755
0.00317752
0.00317751
0.0031775
0.0031775
0.00318551
0.0031855
0.00318531
0.00318524
0.0031851
0.00318505
0.00318492
0.00318488
0.00318478
0.00318473
0.00318466
0.00318461
0.00318456
0.00318452
0.00318449
0.00318446
0.00318444
0.00318443
0.00318442
0.00318442
0.00319149
0.00319149
0.00319129
0.00319123
0.00319108
0.00319103
0.0031909
0.00319086
0.00319076
0.00319071
0.00319064
0.00319059
0.00319054
0.0031905
0.00319047
0.00319044
0.00319042
0.00319041
0.0031904
0.0031904
0.00319733
0.00319732
0.00319713
0.00319705
0.00319692
0.00319685
0.00319675
0.00319668
0.0031966
0.00319654
0.00319647
0.00319642
0.00319637
0.00319634
0.00319629
0.00319628
0.00319625
0.00319624
0.00319623
0.00319623
0.00320347
0.00320347
0.00320328
0.0032032
0.00320307
0.003203
0.00320289
0.00320283
0.00320274
0.00320268
0.00320261
0.00320257
0.00320251
0.00320248
0.00320244
0.00320242
0.00320239
0.00320238
0.00320237
0.00320237
0.00321023
0.00321023
0.00321003
0.00320997
0.00320982
0.00320977
0.00320964
0.00320959
0.00320948
0.00320945
0.00320936
0.00320932
0.00320927
0.00320923
0.0032092
0.00320917
0.00320915
0.00320913
0.00320913
0.00320912
0.00321782
0.00321782
0.00321763
0.00321754
0.00321742
0.00321734
0.00321724
0.00321717
0.00321708
0.00321702
0.00321695
0.0032169
0.00321685
0.00321682
0.00321677
0.00321675
0.00321673
0.00321672
0.00321671
0.0032167
0.00322634
0.00322634
0.00322613
0.00322607
0.00322592
0.00322586
0.00322573
0.00322569
0.00322557
0.00322554
0.00322545
0.00322541
0.00322536
0.00322532
0.00322528
0.00322525
0.00322523
0.00322522
0.00322521
0.00322521
0.00323559
0.00323558
0.00323538
0.0032353
0.00323517
0.0032351
0.00323499
0.00323492
0.00323483
0.00323477
0.0032347
0.00323465
0.00323459
0.00323456
0.00323452
0.0032345
0.00323447
0.00323446
0.00323445
0.00323445
0.00324482
0.00324483
0.00324461
0.00324455
0.0032444
0.00324434
0.00324421
0.00324416
0.00324406
0.003244
0.00324393
0.00324388
0.00324383
0.00324379
0.00324375
0.00324372
0.0032437
0.00324369
0.00324368
0.00324368
0.00325257
0.00325258
0.00325237
0.00325231
0.00325216
0.00325211
0.00325198
0.00325193
0.00325182
0.00325179
0.00325169
0.00325167
0.00325159
0.00325157
0.00325152
0.00325151
0.00325147
0.00325147
0.00325145
0.00325145
0.003256
0.003256
0.003256
0.00325599
0.00325599
0.00325599
0.00325599
0.00325599
0.00325599
0.00325599
0.00325598
0.00325599
0.00325598
0.00325598
0.00325598
0.00325598
0.00325598
0.00325598
0.00325598
0.00325598
)
;

boundaryField
{
    movingWall
    {
        type            calculated;
        value           nonuniform List<scalar> 
20
(
0.003256
0.003256
0.003256
0.00325599
0.00325599
0.00325599
0.00325599
0.00325599
0.00325599
0.00325599
0.00325598
0.00325599
0.00325598
0.00325598
0.00325598
0.00325598
0.00325598
0.00325598
0.00325598
0.00325598
)
;
    }
    fixedWalls
    {
        type            calculated;
        value           nonuniform List<scalar> 
60
(
0.0027108
0.00280059
0.0029193
0.00301963
0.00308821
0.00313017
0.00315468
0.00316922
0.00317858
0.00318551
0.00319149
0.00319733
0.00320347
0.00321023
0.00321782
0.00322634
0.00323559
0.00324482
0.00325257
0.003256
0.00271079
0.00279987
0.00291847
0.00301871
0.00308722
0.00312914
0.00315363
0.00316815
0.0031775
0.00318442
0.0031904
0.00319623
0.00320237
0.00320912
0.0032167
0.00322521
0.00323445
0.00324368
0.00325145
0.00325598
0.0027108
0.0027108
0.0027108
0.0027108
0.00271079
0.00271079
0.00271079
0.00271079
0.00271079
0.00271079
0.00271079
0.00271079
0.00271079
0.00271079
0.00271079
0.00271079
0.00271079
0.00271079
0.00271079
0.00271079
)
;
    }
    frontAndBack
    {
        type            empty;
    }
}


// ************************************************************************* //
