/*--------------------------------*- C++ -*----------------------------------*\
| =========                 |                                                 |
| \\      /  F ield         | OpenFOAM: The Open Source CFD Toolbox           |
|  \\    /   O peration     | Version:  2506                                  |
|   \\  /    A nd           | Website:  www.openfoam.com                      |
|    \\/     M anipulation  |                                                 |
\*---------------------------------------------------------------------------*/
FoamFile
{
    version     2.0;
    format      ascii;
    arch        "LSB;label=32;scalar=64";
    class       volVectorField;
    location    "5.5";
    object      U;
}
// * * * * * * * * * * * * * * * * * * * * * * * * * * * * * * * * * * * * * //

dimensions      [0 1 -1 0 0 0 0];

internalField   nonuniform List<vector> 
400
(
(-1 5.51646e-14 0)
(-1 -1.07873e-14 0)
(-1 2.68934e-15 0)
(-1 -4.62661e-16 0)
(-1 1.65104e-16 0)
(-1 1.09751e-16 0)
(-1 1.5934e-16 0)
(-1 1.17212e-16 0)
(-1 6.87305e-17 0)
(-1 -3.22471e-19 0)
(-1 4.6891e-17 0)
(-1 9.80207e-17 0)
(-1 1.21602e-16 0)
(-1 1.17454e-16 0)
(-1 -6.26843e-18 0)
(-1 2.0656e-17 0)
(-1 2.82715e-17 0)
(-1 5.36281e-18 0)
(-1 2.60236e-17 0)
(-1 3.7846e-18 0)
(-1 4.80617e-14 0)
(-1 -1.02226e-14 0)
(-1 2.62079e-15 0)
(-1 -3.83282e-16 0)
(-1 8.23042e-17 0)
(-1 -1.76168e-16 0)
(-1 -1.20329e-16 0)
(-1 -7.02762e-17 0)
(-1 -6.82648e-17 0)
(-1 -2.07921e-17 0)
(-1 1.10366e-16 0)
(-1 1.49347e-16 0)
(-1 1.6203e-16 0)
(-1 1.64079e-16 0)
(-1 -8.55953e-17 0)
(-1 -9.16506e-17 0)
(-1 4.26758e-17 0)
(-1 6.2135e-17 0)
(-1 -1.56355e-17 0)
(-1 -1.02168e-16 0)
(-1 -9.72074e-14 0)
(-1 2.17062e-14 0)
(-1 -4.46358e-15 0)
(-1 1.49307e-15 0)
(-1 -8.66903e-17 0)
(-1 -9.03987e-17 0)
(-1 -3.325e-16 0)
(-1 -3.40342e-16 0)
(-1 -3.14252e-16 0)
(-1 -2.01831e-16 0)
(-1 -9.1339e-18 0)
(-1 1.14248e-16 0)
(-1 1.91439e-16 0)
(-1 2.50139e-16 0)
(-1 8.05893e-17 0)
(-1 -3.95912e-17 0)
(-1 -2.68766e-17 0)
(-1 -5.98238e-17 0)
(-1 -1.50418e-16 0)
(-1 -1.4088e-16 0)
(-1 5.3919e-14 0)
(-1 -1.1848e-14 0)
(-1 2.89968e-15 0)
(-1 -5.64082e-16 0)
(-1 1.95684e-16 0)
(-1 -2.7844e-17 0)
(-1 -9.52593e-17 0)
(-1 -1.41589e-16 0)
(-1 -6.66195e-17 0)
(-1 4.08032e-17 0)
(-1 1.24479e-16 0)
(-1 2.20349e-16 0)
(-1 2.01087e-16 0)
(-1 1.7065e-16 0)
(-1 1.26674e-16 0)
(-1 2.07536e-17 0)
(-1 -7.42272e-17 0)
(-1 -1.17301e-16 0)
(-1 -1.0818e-16 0)
(-1 -5.87344e-17 0)
(-1 -5.96847e-15 0)
(-1 1.0678e-15 0)
(-1 -5.3133e-16 0)
(-1 -7.55906e-17 0)
(-1 -5.22376e-17 0)
(-1 -1.92412e-17 0)
(-1 -7.90117e-17 0)
(-1 -5.12714e-17 0)
(-1 5.1131e-17 0)
(-1 1.14377e-16 0)
(-1 5.34799e-17 0)
(-1 5.24938e-17 0)
(-1 9.92638e-17 0)
(-1 6.98786e-18 0)
(-1 -9.98596e-18 0)
(-1 9.49948e-18 0)
(-1 -1.97685e-17 0)
(-1 -4.75505e-17 0)
(-1 -3.72735e-17 0)
(-1 -1.20527e-17 0)
(-1 -2.26213e-14 0)
(-1 4.62073e-15 0)
(-1 -1.08581e-15 0)
(-1 2.71241e-16 0)
(-1 7.55978e-17 0)
(-1 1.60541e-16 0)
(-1 1.24396e-16 0)
(-1 3.52641e-17 0)
(-1 -1.15033e-16 0)
(-1 -1.34875e-16 0)
(-1 -1.05124e-16 0)
(-1 -8.56771e-17 0)
(-1 3.66481e-17 0)
(-1 5.31635e-17 0)
(-1 3.68106e-17 0)
(-1 9.95847e-17 0)
(-1 4.40842e-17 0)
(-1 -2.90156e-17 0)
(-1 -1.4645e-17 0)
(-1 4.57759e-17 0)
(-1 2.72272e-14 0)
(-1 -5.43039e-15 0)
(-1 1.19062e-15 0)
(-1 -2.53987e-16 0)
(-1 7.36895e-17 0)
(-1 7.58714e-17 0)
(-1 2.34852e-16 0)
(-1 1.59005e-16 0)
(-1 -4.53349e-18 0)
(-1 -5.0105e-17 0)
(-1 -2.87533e-18 0)
(-1 2.13721e-17 0)
(-1 7.52193e-17 0)
(-1 1.05457e-16 0)
(-1 2.93969e-17 0)
(-1 2.97259e-17 0)
(-1 1.4963e-16 0)
(-1 1.77245e-16 0)
(-1 1.21595e-16 0)
(-1 1.06834e-16 0)
(-1 -5.51028e-15 0)
(-1 1.66761e-15 0)
(-1 -3.04454e-16 0)
(-1 1.52535e-16 0)
(-1 -2.91989e-18 0)
(-1 7.44409e-17 0)
(-1 8.94861e-17 0)
(-1 1.42458e-17 0)
(-1 2.39444e-17 0)
(-1 -1.51281e-17 0)
(-1 -6.82168e-17 0)
(-1 -1.13449e-16 0)
(-1 -1.12483e-16 0)
(-1 -5.86634e-17 0)
(-1 -3.66794e-17 0)
(-1 9.91948e-18 0)
(-1 1.35875e-16 0)
(-1 1.63325e-16 0)
(-1 1.38012e-16 0)
(-1 8.45677e-17 0)
(-1 -1.39141e-14 0)
(-1 2.77846e-15 0)
(-1 -5.23978e-16 0)
(-1 1.24758e-16 0)
(-1 -3.55066e-17 0)
(-1 8.88924e-18 0)
(-1 -1.84761e-17 0)
(-1 -6.04648e-17 0)
(-1 5.41914e-18 0)
(-1 2.19769e-17 0)
(-1 1.2335e-17 0)
(-1 -9.09509e-17 0)
(-1 -1.1159e-16 0)
(-1 -8.84292e-18 0)
(-1 1.14815e-16 0)
(-1 7.20359e-17 0)
(-1 -2.26599e-17 0)
(-1 8.04659e-18 0)
(-1 1.64984e-16 0)
(-1 8.59399e-17 0)
(-1 1.23488e-14 0)
(-1 -2.36033e-15 0)
(-1 6.44814e-16 0)
(-1 -1.25219e-16 0)
(-1 -1.05739e-17 0)
(-1 -4.69652e-17 0)
(-1 -4.21691e-17 0)
(-1 3.61133e-17 0)
(-1 4.7888e-17 0)
(-1 1.08188e-17 0)
(-1 7.51248e-17 0)
(-1 9.05179e-17 0)
(-1 4.29631e-17 0)
(-1 2.25348e-17 0)
(-1 1.27955e-16 0)
(-1 4.43601e-17 0)
(-1 -6.32999e-17 0)
(-1 -1.55365e-17 0)
(-1 6.32427e-17 0)
(-1 6.24094e-17 0)
(-1 -6.58116e-15 0)
(-1 3.26016e-16 0)
(-1 -6.02996e-17 0)
(-1 -6.0211e-17 0)
(-1 3.80938e-18 0)
(-1 -4.42021e-17 0)
(-1 -8.16194e-19 0)
(-1 1.68964e-16 0)
(-1 1.69115e-16 0)
(-1 1.28655e-16 0)
(-1 9.13112e-17 0)
(-1 1.36598e-16 0)
(-1 -2.25279e-17 0)
(-1 -4.11179e-17 0)
(-1 9.9861e-17 0)
(-1 1.06939e-16 0)
(-1 6.24341e-17 0)
(-1 2.62217e-17 0)
(-1 -2.15923e-17 0)
(-1 2.76839e-17 0)
(-1 -3.02028e-15 0)
(-1 1.44837e-15 0)
(-1 -2.18107e-16 0)
(-1 1.26189e-16 0)
(-1 -8.33976e-18 0)
(-1 -4.65471e-18 0)
(-1 3.53504e-17 0)
(-1 1.34303e-16 0)
(-1 1.76059e-16 0)
(-1 1.58122e-16 0)
(-1 1.1381e-16 0)
(-1 9.5652e-17 0)
(-1 3.94402e-17 0)
(-1 5.314e-17 0)
(-1 2.58343e-17 0)
(-1 -3.44402e-17 0)
(-1 2.16463e-17 0)
(-1 6.11931e-17 0)
(-1 1.32149e-16 0)
(-1 4.0544e-17 0)
(-1 1.61544e-14 0)
(-1 -2.75727e-15 0)
(-1 6.73126e-16 0)
(-1 -1.48331e-16 0)
(-1 -4.64334e-17 0)
(-1 -3.10103e-17 0)
(-1 1.08327e-16 0)
(-1 6.077e-17 0)
(-1 -3.07337e-17 0)
(-1 5.92906e-18 0)
(-1 3.80947e-17 0)
(-1 -1.91406e-18 0)
(-1 -2.45895e-17 0)
(-1 -1.59275e-16 0)
(-1 -2.21801e-16 0)
(-1 -1.15518e-16 0)
(-1 -2.63951e-17 0)
(-1 -4.79684e-17 0)
(-1 -6.43322e-17 0)
(-1 -2.88847e-17 0)
(-1 -2.69792e-14 0)
(-1 5.19854e-15 0)
(-1 -1.19193e-15 0)
(-1 2.8995e-16 0)
(-1 3.28502e-17 0)
(-1 6.86763e-17 0)
(-1 1.10249e-16 0)
(-1 1.26129e-16 0)
(-1 4.61112e-17 0)
(-1 6.71829e-17 0)
(-1 5.26018e-17 0)
(-1 3.57926e-17 0)
(-1 -4.32271e-17 0)
(-1 -2.1463e-16 0)
(-1 -1.85424e-16 0)
(-1 7.65127e-17 0)
(-1 1.00843e-16 0)
(-1 -2.53978e-17 0)
(-1 -1.38105e-16 0)
(-1 -3.79173e-17 0)
(-1 2.75423e-14 0)
(-1 -5.85866e-15 0)
(-1 1.33643e-15 0)
(-1 -2.54179e-16 0)
(-1 1.76416e-16 0)
(-1 2.13953e-16 0)
(-1 1.59333e-16 0)
(-1 5.72734e-17 0)
(-1 1.00309e-16 0)
(-1 4.55984e-17 0)
(-1 -4.79619e-17 0)
(-1 -3.28009e-17 0)
(-1 -4.71594e-18 0)
(-1 -3.69072e-17 0)
(-1 -1.09798e-17 0)
(-1 2.27878e-17 0)
(-1 4.63655e-17 0)
(-1 5.11066e-17 0)
(-1 3.91624e-18 0)
(-1 -2.87073e-18 0)
(-1 -2.21001e-14 0)
(-1 5.20175e-15 0)
(-1 -1.10124e-15 0)
(-1 3.28285e-16 0)
(-1 7.29326e-17 0)
(-1 2.24869e-16 0)
(-1 1.22884e-16 0)
(-1 -9.24515e-17 0)
(-1 -8.0404e-17 0)
(-1 -7.15119e-17 0)
(-1 -1.58153e-16 0)
(-1 -1.94954e-16 0)
(-1 -6.26439e-17 0)
(-1 8.08998e-17 0)
(-1 5.12874e-17 0)
(-1 -5.46916e-17 0)
(-1 -7.4604e-17 0)
(-1 -4.44997e-17 0)
(-1 -7.00609e-17 0)
(-1 -1.88165e-17 0)
(-1 5.11146e-15 0)
(-1 -1.38191e-15 0)
(-1 4.37123e-16 0)
(-1 -3.32154e-17 0)
(-1 1.02685e-16 0)
(-1 -4.24414e-18 0)
(-1 -8.96324e-17 0)
(-1 -4.95157e-17 0)
(-1 1.12218e-17 0)
(-1 8.69698e-17 0)
(-1 -1.80636e-17 0)
(-1 -1.03792e-16 0)
(-1 -1.04587e-16 0)
(-1 2.79977e-17 0)
(-1 2.63731e-17 0)
(-1 -6.28289e-17 0)
(-1 -1.56576e-16 0)
(-1 -8.82079e-17 0)
(-1 -1.25959e-17 0)
(-1 3.34783e-17 0)
(-1 2.29731e-14 0)
(-1 -4.85422e-15 0)
(-1 9.15249e-16 0)
(-1 -2.33258e-16 0)
(-1 1.28281e-16 0)
(-1 4.08358e-17 0)
(-1 2.16934e-18 0)
(-1 -3.66459e-17 0)
(-1 -8.44983e-17 0)
(-1 -1.60778e-17 0)
(-1 1.77591e-18 0)
(-1 -1.56499e-17 0)
(-1 -6.43114e-17 0)
(-1 -2.7911e-17 0)
(-1 5.42714e-17 0)
(-1 5.40382e-17 0)
(-1 -1.63885e-17 0)
(-1 -1.28967e-17 0)
(-1 4.71504e-17 0)
(-1 7.21372e-17 0)
(-1 -3.75917e-15 0)
(-1 5.98543e-17 0)
(-1 -2.23838e-16 0)
(-1 -7.33593e-17 0)
(-1 -2.11563e-17 0)
(-1 -2.27645e-17 0)
(-1 -2.80499e-17 0)
(-1 -1.28902e-16 0)
(-1 -1.37205e-16 0)
(-1 -1.04082e-16 0)
(-1 -6.87375e-17 0)
(-1 -9.11379e-17 0)
(-1 -3.13129e-17 0)
(-1 -4.42356e-17 0)
(-1 -7.13447e-17 0)
(-1 6.01658e-18 0)
(-1 5.32296e-17 0)
(-1 -4.14831e-17 0)
(-1 -9.38938e-17 0)
(-1 -4.29846e-17 0)
(-1 -5.29763e-14 0)
(-1 1.07897e-14 0)
(-1 -2.628e-15 0)
(-1 3.92325e-16 0)
(-1 -2.80684e-16 0)
(-1 -1.13792e-16 0)
(-1 -1.103e-16 0)
(-1 -6.99171e-17 0)
(-1 4.09818e-17 0)
(-1 2.88287e-17 0)
(-1 -5.04275e-17 0)
(-1 -8.05507e-17 0)
(-1 -1.33228e-17 0)
(-1 -2.64257e-17 0)
(-1 -8.41095e-17 0)
(-1 -7.3574e-17 0)
(-1 -2.85035e-17 0)
(-1 -5.76603e-17 0)
(-1 -9.67995e-17 0)
(-1 -5.82401e-17 0)
)
;

boundaryField
{
    movingWall
    {
        type            fixedValue;
        value           uniform (-1 -0 -0);
    }
    fixedWalls
    {
        type            noSlip;
    }
    frontAndBack
    {
        type            empty;
    }
}


// ************************************************************************* //
