/*--------------------------------*- C++ -*----------------------------------*\
| =========                 |                                                 |
| \\      /  F ield         | OpenFOAM: The Open Source CFD Toolbox           |
|  \\    /   O peration     | Version:  2506                                  |
|   \\  /    A nd           | Website:  www.openfoam.com                      |
|    \\/     M anipulation  |                                                 |
\*---------------------------------------------------------------------------*/
FoamFile
{
    version     2.0;
    format      ascii;
    arch        "LSB;label=32;scalar=64";
    class       volVectorField;
    location    "5.5";
    object      vorticityField;
}
// * * * * * * * * * * * * * * * * * * * * * * * * * * * * * * * * * * * * * //

dimensions      [0 0 -1 0 0 0 0];

internalField   nonuniform List<vector> 
400
(
(0 -0 3.70589e-12)
(0 -0 -5.03068e-12)
(0 -0 1.03247e-12)
(0 -0 -1.98214e-13)
(0 -0 1.11451e-13)
(0 -0 8.07388e-14)
(0 -0 7.46106e-16)
(0 -0 -9.06097e-15)
(0 -0 -1.17534e-14)
(0 -0 -2.9289e-14)
(0 -0 9.83432e-15)
(0 -0 -1.96339e-14)
(0 -0 1.94335e-15)
(0 -0 -1.27871e-14)
(0 -0 4.45303e-14)
(0 -0 3.45399e-15)
(0 -0 5.26808e-14)
(0 -0 -2.73298e-14)
(0 -0 -1.57822e-16)
(0 -0 5.12293e-14)
(0 -0 3.40444e-12)
(0 -0 -4.46278e-12)
(0 -0 1.03815e-12)
(0 -0 -2.80954e-13)
(0 -0 2.07114e-14)
(0 -0 -2.02633e-14)
(0 -0 6.47993e-14)
(0 -0 5.94165e-14)
(0 -0 5.91585e-14)
(0 -0 9.91783e-14)
(0 -0 1.70139e-14)
(0 -0 3.22715e-14)
(0 -0 1.4732e-15)
(0 -0 -2.47625e-14)
(0 -0 -2.5573e-14)
(0 -0 6.70372e-14)
(0 -0 4.24836e-14)
(0 -0 2.12739e-14)
(0 -0 -1.64303e-14)
(0 -0 1.17803e-14)
(0 -0 -5.2733e-12)
(0 -0 8.67807e-12)
(0 -0 -2.07552e-12)
(0 -0 3.29269e-13)
(0 -0 -3.20977e-13)
(0 -0 -1.87211e-13)
(0 -0 -1.6052e-13)
(0 -0 -1.06595e-13)
(0 -0 -9.45691e-14)
(0 -0 -5.08033e-14)
(0 -0 3.16079e-14)
(0 -0 2.00573e-14)
(0 -0 1.35891e-14)
(0 -0 -3.819e-14)
(0 -0 -1.10288e-13)
(0 -0 -1.07466e-14)
(0 -0 -2.91283e-14)
(0 -0 -3.94592e-14)
(0 -0 -3.52106e-14)
(0 -0 -5.21854e-14)
(0 -0 3.88184e-12)
(0 -0 -4.88509e-12)
(0 -0 1.20971e-12)
(0 -0 -2.704e-13)
(0 -0 1.07834e-13)
(0 -0 2.51158e-14)
(0 -0 4.28356e-14)
(0 -0 1.11284e-13)
(0 -0 4.53443e-14)
(0 -0 1.00425e-13)
(0 -0 7.21647e-14)
(0 -0 6.18709e-14)
(0 -0 -4.96986e-15)
(0 -0 -7.44134e-15)
(0 -0 -1.49897e-14)
(0 -0 -1.01405e-13)
(0 -0 -1.38054e-14)
(0 -0 -3.3953e-15)
(0 -0 3.29617e-14)
(0 -0 1.66915e-14)
(0 -0 -2.41453e-12)
(0 -0 8.41869e-13)
(0 -0 -3.31179e-13)
(0 -0 4.79093e-14)
(0 -0 -2.14701e-14)
(0 -0 -2.97825e-14)
(0 -0 -3.20302e-15)
(0 -0 1.30143e-14)
(0 -0 4.36699e-14)
(0 -0 -5.39752e-14)
(0 -0 -6.03984e-14)
(0 -0 -1.03842e-13)
(0 -0 -5.87607e-14)
(0 -0 -3.803e-14)
(0 -0 -2.68539e-14)
(0 -0 -2.80833e-14)
(0 -0 -8.70202e-14)
(0 -0 -1.7505e-15)
(0 -0 3.54979e-15)
(0 -0 3.20377e-14)
(0 -0 -1.06822e-12)
(0 -0 1.9096e-12)
(0 -0 -4.34949e-13)
(0 -0 1.16141e-13)
(0 -0 -1.107e-14)
(0 -0 4.87985e-15)
(0 -0 -6.67378e-14)
(0 -0 -1.05258e-13)
(0 -0 -7.1224e-14)
(0 -0 -5.32192e-14)
(0 -0 -4.92903e-14)
(0 -0 1.41772e-14)
(0 -0 -1.3221e-14)
(0 -0 1.62499e-17)
(0 -0 4.64212e-15)
(0 -0 7.27359e-16)
(0 -0 -3.99651e-14)
(0 -0 -5.87291e-15)
(0 -0 7.47915e-15)
(0 -0 -3.02181e-14)
(0 -0 2.72178e-12)
(0 -0 -2.57655e-12)
(0 -0 7.07375e-13)
(0 -0 -3.27311e-15)
(0 -0 1.41406e-13)
(0 -0 1.24536e-13)
(0 -0 1.43839e-13)
(0 -0 5.73766e-14)
(0 -0 3.32991e-14)
(0 -0 5.43759e-14)
(0 -0 1.15568e-13)
(0 -0 6.20196e-14)
(0 -0 8.97237e-14)
(0 -0 4.96279e-14)
(0 -0 4.6637e-14)
(0 -0 6.62334e-14)
(0 -0 4.18569e-14)
(0 -0 2.43015e-14)
(0 -0 -7.04106e-15)
(0 -0 -2.28429e-14)
(0 -0 4.94142e-14)
(0 -0 3.85057e-13)
(0 -0 -1.51508e-13)
(0 -0 -2.40567e-14)
(0 -0 -7.80937e-15)
(0 -0 9.24059e-15)
(0 -0 -6.02296e-14)
(0 -0 -6.07643e-14)
(0 -0 -3.00424e-14)
(0 -0 -3.63212e-14)
(0 -0 -9.11472e-14)
(0 -0 -4.42666e-15)
(0 -0 5.96886e-14)
(0 -0 7.58039e-15)
(0 -0 6.10684e-14)
(0 -0 1.72555e-14)
(0 -0 4.24456e-14)
(0 -0 2.13631e-16)
(0 -0 -7.87569e-15)
(0 -0 -2.22579e-14)
(0 -0 -1.24909e-12)
(0 -0 1.31191e-12)
(0 -0 -3.1958e-13)
(0 -0 -3.2468e-14)
(0 -0 -9.2902e-14)
(0 -0 -1.06717e-13)
(0 -0 -6.11455e-14)
(0 -0 -5.18206e-14)
(0 -0 -1.88609e-14)
(0 -0 6.91591e-16)
(0 -0 -1.12928e-14)
(0 -0 -3.94975e-14)
(0 -0 8.2108e-15)
(0 -0 2.26405e-14)
(0 -0 8.08788e-15)
(0 -0 -1.37475e-14)
(0 -0 -6.39893e-15)
(0 -0 7.29745e-14)
(0 -0 7.78933e-15)
(0 -0 -2.50924e-14)
(0 -0 1.05306e-12)
(0 -0 -1.1704e-12)
(0 -0 2.23511e-13)
(0 -0 -6.55388e-14)
(0 -0 -1.92797e-14)
(0 -0 -3.02646e-14)
(0 -0 -1.87972e-14)
(0 -0 -1.80993e-14)
(0 -0 -2.52944e-15)
(0 -0 -2.43814e-14)
(0 -0 3.5075e-14)
(0 -0 -3.21617e-15)
(0 -0 -6.10084e-14)
(0 -0 8.49918e-15)
(0 -0 -7.91326e-14)
(0 -0 -4.62305e-14)
(0 -0 -5.98966e-15)
(0 -0 1.26543e-14)
(0 -0 7.79459e-15)
(0 -0 -1.25652e-14)
(0 -0 -2.22471e-12)
(0 -0 1.05866e-12)
(0 -0 -6.57278e-14)
(0 -0 1.41936e-13)
(0 -0 5.5811e-14)
(0 -0 8.08526e-14)
(0 -0 1.02632e-13)
(0 -0 9.83082e-14)
(0 -0 5.01792e-14)
(0 -0 1.0064e-13)
(0 -0 5.50044e-14)
(0 -0 6.99313e-14)
(0 -0 3.64386e-14)
(0 -0 9.35541e-14)
(0 -0 9.61209e-14)
(0 -0 -3.74269e-15)
(0 -0 -8.07174e-15)
(0 -0 -8.97178e-14)
(0 -0 -2.69588e-14)
(0 -0 -6.09159e-16)
(0 -0 9.54117e-13)
(0 -0 2.53112e-13)
(0 -0 3.0412e-14)
(0 -0 1.02292e-13)
(0 -0 1.22441e-13)
(0 -0 8.56842e-14)
(0 -0 1.49421e-13)
(0 -0 1.49596e-13)
(0 -0 8.36971e-14)
(0 -0 7.50903e-14)
(0 -0 7.50682e-14)
(0 -0 1.9668e-14)
(0 -0 2.28539e-14)
(0 -0 5.28495e-14)
(0 -0 1.8347e-14)
(0 -0 2.66863e-14)
(0 -0 6.37734e-14)
(0 -0 9.23654e-14)
(0 -0 2.50401e-14)
(0 -0 9.83579e-15)
(0 -0 2.39681e-12)
(0 -0 -1.98181e-12)
(0 -0 1.79579e-13)
(0 -0 -2.88796e-13)
(0 -0 -1.50898e-13)
(0 -0 -9.29441e-14)
(0 -0 -1.53452e-13)
(0 -0 -1.49431e-13)
(0 -0 -1.13904e-13)
(0 -0 -1.28642e-13)
(0 -0 -1.3631e-13)
(0 -0 -1.14689e-13)
(0 -0 -1.51261e-13)
(0 -0 -1.82351e-13)
(0 -0 -1.04044e-13)
(0 -0 -3.46695e-14)
(0 -0 -7.45602e-14)
(0 -0 -3.79371e-15)
(0 -0 -2.51967e-14)
(0 -0 -1.77834e-14)
(0 -0 -4.04832e-12)
(0 -0 2.90399e-12)
(0 -0 -7.077e-13)
(0 -0 1.49583e-13)
(0 -0 -7.63375e-14)
(0 -0 -1.93652e-14)
(0 -0 5.7453e-15)
(0 -0 -3.35188e-14)
(0 -0 -5.89464e-15)
(0 -0 6.49054e-16)
(0 -0 -3.13902e-15)
(0 -0 -3.66879e-14)
(0 -0 -2.50423e-14)
(0 -0 -4.13248e-14)
(0 -0 2.91143e-14)
(0 -0 2.86267e-14)
(0 -0 -1.0191e-14)
(0 -0 -7.81049e-14)
(0 -0 -2.8357e-14)
(0 -0 1.76022e-14)
(0 -0 3.06283e-12)
(0 -0 -2.62059e-12)
(0 -0 8.58603e-13)
(0 -0 -7.58076e-15)
(0 -0 2.63654e-13)
(0 -0 1.33817e-13)
(0 -0 9.27523e-14)
(0 -0 1.02518e-13)
(0 -0 1.07253e-13)
(0 -0 3.9383e-14)
(0 -0 4.63702e-14)
(0 -0 1.12745e-13)
(0 -0 5.37995e-14)
(0 -0 1.07794e-13)
(0 -0 1.1439e-13)
(0 -0 5.99446e-14)
(0 -0 8.4147e-14)
(0 -0 4.99652e-14)
(0 -0 4.88124e-14)
(0 -0 2.70005e-14)
(0 -0 -1.03931e-12)
(0 -0 1.93726e-12)
(0 -0 -5.41557e-13)
(0 -0 1.17418e-13)
(0 -0 -9.16567e-14)
(0 -0 -2.21099e-14)
(0 -0 -1.13047e-13)
(0 -0 -1.01644e-13)
(0 -0 -1.06326e-13)
(0 -0 -8.90901e-14)
(0 -0 -6.65543e-14)
(0 -0 9.55091e-15)
(0 -0 2.75854e-14)
(0 -0 1.13931e-14)
(0 -0 -9.48743e-14)
(0 -0 -1.25891e-14)
(0 -0 1.01919e-15)
(0 -0 -5.37558e-14)
(0 -0 -2.45367e-14)
(0 -0 -1.82173e-14)
(0 -0 2.91639e-13)
(0 -0 -5.48749e-13)
(0 -0 1.07765e-13)
(0 -0 -8.76539e-14)
(0 -0 -7.8418e-14)
(0 -0 -1.00547e-13)
(0 -0 -5.87373e-14)
(0 -0 -1.70196e-14)
(0 -0 -1.34565e-14)
(0 -0 -3.00336e-14)
(0 -0 -7.32863e-14)
(0 -0 -8.99675e-14)
(0 -0 1.31789e-14)
(0 -0 -6.82191e-14)
(0 -0 -6.32928e-14)
(0 -0 -7.2505e-14)
(0 -0 -1.10958e-13)
(0 -0 1.4398e-14)
(0 -0 -1.49364e-14)
(0 -0 -2.08824e-15)
(0 -0 5.92157e-13)
(0 -0 -1.82631e-12)
(0 -0 4.89201e-13)
(0 -0 -2.44867e-14)
(0 -0 1.08725e-13)
(0 -0 6.8704e-14)
(0 -0 1.00672e-13)
(0 -0 9.97535e-14)
(0 -0 1.10477e-13)
(0 -0 1.17048e-13)
(0 -0 1.08463e-13)
(0 -0 2.04963e-14)
(0 -0 -1.22611e-15)
(0 -0 9.31734e-14)
(0 -0 6.2405e-14)
(0 -0 4.71441e-14)
(0 -0 4.75166e-14)
(0 -0 6.0564e-14)
(0 -0 6.27135e-14)
(0 -0 1.51763e-14)
(0 -0 -3.42827e-13)
(0 -0 2.18008e-13)
(0 -0 -1.48847e-13)
(0 -0 -6.1047e-14)
(0 -0 -7.62557e-14)
(0 -0 -1.0911e-13)
(0 -0 -1.19034e-13)
(0 -0 -1.19336e-13)
(0 -0 -7.88332e-14)
(0 -0 -7.44685e-14)
(0 -0 -8.00208e-14)
(0 -0 3.74246e-15)
(0 -0 -2.24148e-14)
(0 -0 -5.82133e-14)
(0 -0 -2.20798e-14)
(0 -0 1.24574e-14)
(0 -0 -3.1855e-14)
(0 -0 -6.89225e-14)
(0 -0 -1.50152e-16)
(0 -0 -1.34172e-14)
(0 -0 -3.73077e-12)
(0 -0 4.95352e-12)
(0 -0 -9.85528e-13)
(0 -0 2.61836e-13)
(0 -0 -2.35066e-14)
(0 -0 7.12486e-14)
(0 -0 5.85976e-14)
(0 -0 4.22332e-14)
(0 -0 3.69796e-14)
(0 -0 1.79641e-14)
(0 -0 1.61671e-14)
(0 -0 3.71047e-15)
(0 -0 3.25176e-14)
(0 -0 -7.07867e-15)
(0 -0 2.23902e-14)
(0 -0 5.5606e-15)
(0 -0 2.86964e-14)
(0 -0 -6.82959e-15)
(0 -0 -5.79817e-17)
(0 -0 4.2609e-14)
)
;

boundaryField
{
    movingWall
    {
        type            calculated;
        value           nonuniform List<vector> 
20
(
(0 -0 -2.30908e-12)
(0 -0 5.21247e-12)
(0 -0 -3.29195e-13)
(0 -0 5.01185e-13)
(0 -0 2.60251e-13)
(0 -0 3.27901e-13)
(0 -0 3.1525e-13)
(0 -0 2.81582e-13)
(0 -0 1.8751e-13)
(0 -0 2.12904e-13)
(0 -0 2.11107e-13)
(0 -0 9.25283e-14)
(0 -0 1.38639e-13)
(0 -0 1.70557e-13)
(0 -0 1.28512e-13)
(0 -0 1.83196e-13)
(0 -0 1.79227e-13)
(0 -0 8.19882e-14)
(0 -0 4.43509e-14)
(0 -0 5.99129e-14)
)
;
    }
    fixedWalls
    {
        type            calculated;
        value           nonuniform List<vector> 
60
(
(0 -0 2.1334e-11)
(0 -0 1.88452e-11)
(0 -0 -3.66061e-11)
(0 -0 2.12423e-11)
(0 -0 -4.31185e-12)
(0 -0 -8.31668e-12)
(0 -0 1.1433e-11)
(0 -0 -1.77043e-12)
(0 -0 -5.70116e-12)
(0 -0 4.99374e-12)
(0 -0 -4.23166e-12)
(0 -0 -9.68037e-14)
(0 -0 7.51885e-12)
(0 -0 -1.26619e-11)
(0 -0 1.19114e-11)
(0 -0 -8.18952e-12)
(0 -0 1.96327e-12)
(0 -0 7.9695e-12)
(0 -0 -1.47656e-12)
(0 -0 -2.07026e-11)
(0 -0 5.26963e-14)
(0 -0 4.08672e-14)
(0 -0 -2.49633e-14)
(0 -0 2.34938e-14)
(0 -0 3.19261e-14)
(0 -0 -4.54154e-14)
(0 -0 -4.27336e-14)
(0 -0 -3.38271e-14)
(0 -0 -3.43759e-14)
(0 -0 -2.49638e-14)
(0 -0 -1.10735e-14)
(0 -0 1.08874e-14)
(0 -0 -1.55512e-14)
(0 -0 1.51669e-14)
(0 -0 2.82533e-14)
(0 -0 -1.95785e-14)
(0 -0 -1.33913e-14)
(0 -0 -1.74981e-15)
(0 -0 -9.91121e-15)
(0 -0 5.04011e-14)
(0 -0 7.36871e-12)
(0 -0 -6.49097e-12)
(0 -0 7.66013e-13)
(0 -0 -5.18877e-13)
(0 -0 -1.64803e-13)
(0 -0 -2.22621e-13)
(0 -0 -2.65707e-13)
(0 -0 -2.31106e-13)
(0 -0 -1.89389e-13)
(0 -0 -2.24229e-13)
(0 -0 -1.23392e-13)
(0 -0 -1.70165e-13)
(0 -0 -1.31283e-13)
(0 -0 -1.27871e-14)
(0 -0 -9.67983e-15)
(0 -0 -8.53638e-14)
(0 -0 8.72885e-14)
(0 -0 -8.90426e-14)
(0 -0 -4.45667e-14)
(0 -0 -2.98082e-15)
)
;
    }
    frontAndBack
    {
        type            empty;
    }
}


// ************************************************************************* //
