/*--------------------------------*- C++ -*----------------------------------*\
| =========                 |                                                 |
| \\      /  F ield         | OpenFOAM: The Open Source CFD Toolbox           |
|  \\    /   O peration     | Version:  2506                                  |
|   \\  /    A nd           | Website:  www.openfoam.com                      |
|    \\/     M anipulation  |                                                 |
\*---------------------------------------------------------------------------*/
FoamFile
{
    version     2.0;
    format      ascii;
    arch        "LSB;label=32;scalar=64";
    class       volVectorField;
    location    "5.5";
    object      wallShearStress;
}
// * * * * * * * * * * * * * * * * * * * * * * * * * * * * * * * * * * * * * //

dimensions      [0 2 -2 0 0 0 0];

internalField   uniform (0 0 0);

boundaryField
{
    movingWall
    {
        type            calculated;
        value           uniform (0 0 0);
    }
    fixedWalls
    {
        type            calculated;
        value           nonuniform List<vector> 
60
(
(1.07897e-16 -2.27977e-16 0)
(-1.79741e-16 -1.96042e-16 0)
(2.28526e-17 4.11598e-16 0)
(1.02274e-16 -2.18929e-16 0)
(-4.74741e-17 4.62928e-18 0)
(-3.945e-17 9.78035e-17 0)
(5.40399e-17 -1.03488e-16 0)
(-6.05862e-17 2.63779e-17 0)
(7.94076e-17 5.43011e-17 0)
(-3.77439e-17 -4.88532e-17 0)
(6.08082e-17 1.03327e-17 0)
(-1.12149e-16 2.31942e-17 0)
(1.13109e-16 -5.40466e-17 0)
(-6.22781e-17 8.92144e-17 0)
(3.28587e-17 -1.01224e-16 0)
(-3.80465e-17 9.49056e-17 0)
(9.51819e-17 -2.1259e-17 0)
(-3.25591e-17 -1.0409e-16 0)
(-5.12251e-17 1.53077e-17 0)
(1.23626e-17 2.16784e-16 0)
(6.55889e-20 -5.57239e-19 0)
(2.46492e-18 4.08672e-19 0)
(-6.21075e-19 1.37667e-18 0)
(-6.78004e-19 2.34938e-19 0)
(-6.96735e-20 -2.2284e-19 0)
(-6.71377e-19 8.79471e-20 0)
(-6.1798e-19 -4.27336e-19 0)
(1.39294e-20 -3.38271e-19 0)
(-1.16947e-18 -3.43759e-19 0)
(3.88373e-20 -2.49638e-19 0)
(-1.16966e-18 -1.10735e-19 0)
(3.77123e-20 -4.33227e-19 0)
(5.23075e-20 3.86589e-19 0)
(-6.09462e-19 1.51669e-19 0)
(-6.04853e-19 -2.59568e-19 0)
(-2.42327e-20 3.46316e-19 0)
(-6.52755e-19 -1.33913e-19 0)
(5.09753e-20 -5.59599e-19 0)
(8.69182e-20 4.42989e-19 0)
(-6.59602e-19 -3.80901e-20 0)
(-1.50674e-17 -2.97102e-16 0)
(4.00407e-17 6.29534e-17 0)
(-1.29892e-17 -1.59695e-17 0)
(-1.40298e-19 2.46752e-18 0)
(-2.79286e-18 -1.06125e-18 0)
(-2.21468e-18 -4.04638e-19 0)
(-2.672e-18 -1.03051e-18 0)
(-2.12984e-18 -6.25131e-19 0)
(-1.65882e-18 -5.47263e-19 0)
(-2.19861e-18 1.71984e-21 0)
(-1.43061e-18 -4.30785e-19 0)
(-1.85107e-18 -3.42077e-19 0)
(-1.3517e-18 -1.00995e-18 0)
(1.27871e-19 -8.07123e-19 0)
(9.67983e-20 2.14132e-19 0)
(-9.22718e-19 -2.90866e-19 0)
(9.03472e-19 -1.50781e-19 0)
(-8.85931e-19 3.32799e-19 0)
(-4.42511e-19 -5.00193e-19 0)
(2.98082e-20 -2.01845e-20 0)
)
;
    }
    frontAndBack
    {
        type            empty;
    }
}


// ************************************************************************* //
