/*--------------------------------*- C++ -*----------------------------------*\
| =========                 |                                                 |
| \\      /  F ield         | OpenFOAM: The Open Source CFD Toolbox           |
|  \\    /   O peration     | Version:  2506                                  |
|   \\  /    A nd           | Website:  www.openfoam.com                      |
|    \\/     M anipulation  |                                                 |
\*---------------------------------------------------------------------------*/
FoamFile
{
    version     2.0;
    format      ascii;
    arch        "LSB;label=32;scalar=64";
    class       volScalarField;
    location    "5.5";
    object      yPlus;
}
// * * * * * * * * * * * * * * * * * * * * * * * * * * * * * * * * * * * * * //

dimensions      [0 0 0 0 0 0 0];

internalField   uniform 0;

boundaryField
{
    movingWall
    {
        type            calculated;
        value           nonuniform List<scalar> 
20
(
3.64661e-06
1.64308e-06
8.90511e-07
4.39625e-07
4.54502e-07
4.43126e-07
4.42985e-07
4.09204e-07
3.33907e-07
3.7278e-07
3.73295e-07
2.43004e-07
2.88675e-07
3.33495e-07
2.93054e-07
3.35463e-07
3.33543e-07
2.39483e-07
1.91896e-07
1.77039e-07
)
;
    }
    fixedWalls
    {
        type            calculated;
        value           nonuniform List<scalar> 
60
(
3.72992e-06
3.54423e-06
4.93134e-06
3.6904e-06
1.22531e-06
2.5198e-06
2.66347e-06
1.44115e-06
2.16848e-06
1.9177e-06
1.9274e-06
2.45256e-06
2.69717e-06
2.73824e-06
2.65029e-06
2.37278e-06
1.81927e-06
2.42436e-06
9.69641e-07
3.64661e-06
3.07595e-08
3.37524e-07
2.1176e-07
1.77201e-07
5.48923e-08
1.73269e-07
1.96263e-07
1.45403e-07
2.43975e-07
1.24909e-07
2.36518e-07
1.00678e-07
8.49774e-08
1.71259e-07
1.66628e-07
6.85866e-08
1.70265e-07
1.34292e-07
1.03664e-07
1.77039e-07
3.72992e-06
1.67528e-06
8.32258e-07
4.50289e-07
3.80508e-07
3.76117e-07
4.13801e-07
3.76614e-07
3.35178e-07
3.72529e-07
2.89979e-07
3.37186e-07
2.97729e-07
1.71358e-07
3.95867e-08
2.36116e-07
2.36557e-07
2.35642e-07
1.68843e-07
3.07595e-08
)
;
    }
    frontAndBack
    {
        type            empty;
    }
}


// ************************************************************************* //
