/*--------------------------------*- C++ -*----------------------------------*\
| =========                 |                                                 |
| \\      /  F ield         | OpenFOAM: The Open Source CFD Toolbox           |
|  \\    /   O peration     | Version:  2506                                  |
|   \\  /    A nd           | Website:  www.openfoam.com                      |
|    \\/     M anipulation  |                                                 |
\*---------------------------------------------------------------------------*/
FoamFile
{
    version     2.0;
    format      ascii;
    arch        "LSB;label=32;scalar=64";
    class       volScalarField;
    location    "0.775";
    object      p;
}
// * * * * * * * * * * * * * * * * * * * * * * * * * * * * * * * * * * * * * //

dimensions      [0 2 -2 0 0 0 0];

internalField   nonuniform List<scalar> 
6400
(
-4.14668e-07
1.1452e-05
-0.000496018
-0.00152988
-0.00297362
-0.00471692
-0.00665938
-0.00871143
-0.0107958
-0.0128471
-0.0148101
-0.0166385
-0.0182939
-0.0197447
-0.020965
-0.0219339
-0.0226355
-0.0230574
-0.0231913
-0.0230315
-0.0225758
-0.0218241
-0.0207788
-0.0194447
-0.017828
-0.0159371
-0.0137817
-0.0113733
-0.00872443
-0.00584896
-0.00276192
0.000520649
0.00398173
0.00760346
0.0113672
0.0152535
0.0192423
0.0233131
0.0274448
0.0316157
0.0358042
0.0399881
0.0441452
0.0482531
0.0522896
0.0562326
0.0600602
0.0637511
0.0672844
0.0706396
0.0737975
0.0767394
0.0794481
0.0819074
0.0841026
0.0860208
0.0876508
0.0889833
0.0900114
0.0907305
0.0911386
0.0912367
0.0910287
0.0905221
0.0897279
0.0886612
0.0873412
0.0857922
0.0840436
0.0821306
0.080095
0.077986
0.0758613
0.0737877
0.0718431
0.0701159
0.0687033
0.0677095
0.0672412
0.0672789
-1.28797e-05
1.46792e-07
-0.000454044
-0.00133826
-0.00255329
-0.00401987
-0.00566206
-0.00740743
-0.0091907
-0.0109546
-0.0126493
-0.0142325
-0.0156678
-0.0169251
-0.0179793
-0.0188098
-0.0194006
-0.0197391
-0.0198162
-0.0196258
-0.0191647
-0.0184319
-0.0174291
-0.0161597
-0.0146291
-0.0128444
-0.0108144
-0.00854931
-0.00606048
-0.00336065
-0.00046362
0.00261577
0.00586174
0.00925767
0.0127861
0.0164291
0.0201677
0.0239828
0.0278545
0.0317627
0.035687
0.0396066
0.0435008
0.0473486
0.0511294
0.0548225
0.0584075
0.0618646
0.0651743
0.0683179
0.0712774
0.0740359
0.0765774
0.0788873
0.0809524
0.0827609
0.0843031
0.085571
0.0865587
0.0872627
0.0876819
0.0878182
0.0876761
0.0872636
0.0865917
0.0856757
0.0845344
0.0831913
0.0816745
0.0800173
0.0782585
0.0764432
0.0746229
0.0728561
0.0712083
0.0697508
0.0685568
0.0677012
0.0672776
0.0673164
0.0004933
0.000455368
1.08459e-06
-0.000815614
-0.00190735
-0.00321077
-0.00466467
-0.00620891
-0.00778783
-0.00935135
-0.0108552
-0.0122605
-0.0135341
-0.0146476
-0.015577
-0.0163029
-0.0168093
-0.0170839
-0.0171174
-0.0169036
-0.0164386
-0.0157212
-0.0147521
-0.0135342
-0.0120721
-0.0103722
-0.00844221
-0.00629153
-0.00393067
-0.00137139
0.00137346
0.00429003
0.00736356
0.0105784
0.0139183
0.017366
0.0209039
0.0245139
0.0281773
0.031875
0.0355877
0.0392959
0.0429799
0.04662
0.0501967
0.0536904
0.0570821
0.0603531
0.0634852
0.0664607
0.0692629
0.0718761
0.0742854
0.0764773
0.0784397
0.0801619
0.0816349
0.0828518
0.0838075
0.0844992
0.0849265
0.0850915
0.0849992
0.0846576
0.0840778
0.0832745
0.082266
0.0810747
0.0797269
0.0782539
0.0766913
0.07508
0.073466
0.0719004
0.0704391
0.0691415
0.0680668
0.0672752
0.0668524
0.0668499
0.00152681
0.00134186
0.000817753
-2.20702e-06
-0.00105125
-0.00227577
-0.00362396
-0.00504507
-0.00649144
-0.00791945
-0.00928988
-0.010568
-0.0117235
-0.0127301
-0.0135659
-0.0142123
-0.0146542
-0.0148797
-0.01488
-0.0146486
-0.0141816
-0.0134776
-0.0125368
-0.0113617
-0.00995641
-0.0083266
-0.00647949
-0.00442365
-0.0021689
0.000273771
0.00289231
0.00567368
0.00860395
0.0116684
0.0148514
0.018137
0.0215083
0.024948
0.0284384
0.0319615
0.0354988
0.0390319
0.0425419
0.0460102
0.0494183
0.0527476
0.0559801
0.0590979
0.0620839
0.0649215
0.0675949
0.0700891
0.0723904
0.074486
0.0763645
0.0780162
0.0794328
0.0806079
0.081537
0.0822177
0.08265
0.0828363
0.0827814
0.0824934
0.0819829
0.0812641
0.0803541
0.0792741
0.0780486
0.0767062
0.0752797
0.0738057
0.0723252
0.0708828
0.0695266
0.0683071
0.0672749
0.0664814
0.0659949
0.0658592
0.00297666
0.00256508
0.00191306
0.00104018
-1.62882e-05
-0.00121146
-0.0025014
-0.0038438
-0.00519835
-0.00652754
-0.00779712
-0.0089764
-0.0100382
-0.010959
-0.0117184
-0.0122994
-0.012688
-0.0128731
-0.0128462
-0.012601
-0.0121339
-0.0114431
-0.0105288
-0.00939307
-0.00803966
-0.00647377
-0.00470205
-0.00273249
-0.000574257
0.00176234
0.00426596
0.00692431
0.00972424
0.0126518
0.0156922
0.0188303
0.0220499
0.0253349
0.0286682
0.0320327
0.0354109
0.038785
0.0421374
0.0454503
0.0487058
0.0518866
0.0549753
0.057955
0.0608096
0.0635231
0.0660806
0.068468
0.0706723
0.0726815
0.0744848
0.0760733
0.077439
0.0785762
0.0794807
0.0801504
0.0805855
0.0807884
0.0807639
0.0805196
0.0800656
0.0794153
0.0785847
0.0775932
0.0764636
0.0752219
0.0738975
0.072523
0.0711345
0.0697707
0.0684726
0.0672828
0.0662444
0.0654012
0.0647944
0.0644465
0.00474062
0.00405196
0.00322884
0.00226271
0.0011574
-4.99879e-05
-0.00132215
-0.00262437
-0.00392305
-0.00518633
-0.00638472
-0.00749147
-0.00848264
-0.00933719
-0.0100369
-0.0105664
-0.0109129
-0.011066
-0.0110179
-0.010763
-0.0102976
-0.00962007
-0.0087306
-0.00763102
-0.00632475
-0.00481667
-0.00311298
-0.00122116
0.000850148
0.00309125
0.00549143
0.00803907
0.0107217
0.013526
0.0164382
0.0194436
0.022527
0.0256729
0.0288651
0.0320872
0.0353227
0.0385545
0.0417658
0.0449395
0.0480588
0.051107
0.0540675
0.0569243
0.0596618
0.0622651
0.0647198
0.0670125
0.0691309
0.0710635
0.0728003
0.0743325
0.0756529
0.0767559
0.0776377
0.0782964
0.0787321
0.0789471
0.078946
0.0787358
0.078326
0.0777289
0.0769594
0.0760353
0.0749771
0.0738082
0.0725549
0.071246
0.0699129
0.0685887
0.0673083
0.066107
0.0650218
0.0640893
0.0633195
0.0627082
0.00672793
0.0057339
0.00470983
0.0036188
0.0024307
0.00117609
-0.000113194
-0.00140909
-0.00268403
-0.00391128
-0.00506579
-0.00612455
-0.00706676
-0.00787398
-0.00853012
-0.00902145
-0.00933652
-0.00946611
-0.00940308
-0.00914232
-0.00868059
-0.00801644
-0.00715009
-0.00608332
-0.00481938
-0.00336288
-0.00171969
0.000103115
0.00209736
0.00425385
0.00656242
0.00901202
0.0115908
0.0142862
0.0170849
0.0199729
0.0229359
0.0259589
0.0290266
0.0321233
0.0352329
0.0383395
0.0414267
0.0444783
0.0474781
0.0504101
0.0532584
0.0560078
0.0586433
0.0611505
0.0635157
0.0657261
0.0677698
0.0696359
0.0713148
0.0727981
0.0740788
0.0751516
0.0760128
0.0766605
0.0770946
0.0773174
0.0773328
0.0771475
0.0767701
0.0762117
0.075486
0.0746089
0.073599
0.0724771
0.0712664
0.0699922
0.0686815
0.0673627
0.0660648
0.064817
0.0636512
0.062598
0.061635
0.0607311
0.00885917
0.00754633
0.00630218
0.00506307
0.00376609
0.00243653
0.00110184
-0.000215736
-0.00149392
-0.00271061
-0.00384481
-0.00487699
-0.00578938
-0.00656605
-0.00719302
-0.0076583
-0.00795186
-0.00806558
-0.00799321
-0.00773029
-0.00727405
-0.00662335
-0.00577856
-0.00474151
-0.00351537
-0.00210458
-0.000514786
0.00124727
0.00317378
0.00525596
0.00748414
0.00984777
0.0123355
0.0149354
0.0176347
0.0204201
0.0232777
0.0261934
0.0291523
0.0321395
0.0351395
0.0381371
0.0411164
0.044062
0.0469582
0.0497896
0.0525411
0.0551978
0.0577454
0.06017
0.0624584
0.0645982
0.066578
0.0683873
0.0700166
0.0714578
0.0727043
0.0737507
0.0745933
0.0752302
0.0756611
0.0758877
0.0759138
0.075745
0.0753893
0.0748566
0.0741592
0.0733112
0.0723294
0.0712319
0.0700393
0.0687733
0.0674572
0.0661151
0.064771
0.0634485
0.0621757
0.0609784
0.0598025
0.0585914
0.0110672
0.00943168
0.00795637
0.00655297
0.00512765
0.00370163
0.00229898
0.000936937
-0.000366868
-0.00159442
-0.00272836
-0.00375242
-0.00465162
-0.00541244
-0.00602297
-0.00647295
-0.00675378
-0.0068585
-0.00678182
-0.00652
-0.00607083
-0.00543353
-0.00460876
-0.00359844
-0.00240577
-0.00103511
0.000508055
0.00221721
0.00408486
0.00610257
0.00826104
0.0105502
0.0129591
0.0154764
0.0180897
0.0207863
0.0235531
0.0263761
0.0292413
0.0321343
0.0350402
0.0379441
0.0408311
0.043686
0.0464938
0.0492396
0.0519088
0.054487
0.0569602
0.0593151
0.0615388
0.0636193
0.0655454
0.0673069
0.0688947
0.0703007
0.0715182
0.072542
0.0733682
0.0739948
0.0744211
0.0746484
0.0746799
0.0745205
0.0741772
0.0736588
0.072976
0.0721417
0.0711702
0.0700778
0.0688821
0.067602
0.0662573
0.0648683
0.0634547
0.0620355
0.0606357
0.0592774
0.0578769
0.0563536
0.0132962
0.0113398
0.00962786
0.00804935
0.00648152
0.00494261
0.00345418
0.00202924
0.000681404
-0.000574894
-0.00172556
-0.00275726
-0.0036576
-0.00441535
-0.00502057
-0.00546467
-0.00574049
-0.00584226
-0.00576565
-0.0055077
-0.00506682
-0.0044427
-0.00363628
-0.00264971
-0.00148627
-0.000150314
0.00135277
0.00301663
0.00483398
0.00679667
0.00889573
0.0111214
0.0134633
0.0159103
0.0184506
0.021072
0.0237616
0.0265063
0.0292923
0.0321058
0.0349324
0.0377577
0.0405672
0.0433463
0.0460803
0.0487549
0.0513558
0.053869
0.056281
0.0585785
0.0607493
0.0627814
0.0646639
0.0663867
0.0679407
0.0693181
0.070512
0.0715171
0.0723295
0.0729466
0.0733675
0.073593
0.0736256
0.0734694
0.0731304
0.0726164
0.0719366
0.0711024
0.0701262
0.0690221
0.0678055
0.0664924
0.0650998
0.0636446
0.0621428
0.0606097
0.059068
0.0575371
0.0559057
0.0540711
0.0154992
0.0132272
0.011277
0.00951655
0.00779618
0.00613206
0.00454397
0.00304141
0.00163456
0.000334736
-0.000846846
-0.00189948
-0.00281317
-0.00357879
-0.00418825
-0.00463459
-0.00491203
-0.005016
-0.00494315
-0.00469132
-0.00425957
-0.0036481
-0.00285823
-0.00189235
-0.000753896
0.000552722
0.00202214
0.0036481
0.00542347
0.00734033
0.00938996
0.0115629
0.0138492
0.0162379
0.0187177
0.0212768
0.0239028
0.0265828
0.0293037
0.0320519
0.0348135
0.0375747
0.0403211
0.0430387
0.0457132
0.0483306
0.0508768
0.0533382
0.0557016
0.057954
0.0600832
0.0620776
0.0639262
0.0656191
0.0671473
0.0685027
0.0696785
0.0706691
0.0714703
0.0720793
0.0724946
0.0727165
0.0727467
0.0725887
0.0722473
0.0717293
0.0710426
0.0701969
0.0692031
0.0680733
0.0668207
0.065459
0.0640025
0.0624653
0.0608606
0.0592003
0.0575057
0.0557946
0.0539297
0.051788
0.0176368
0.0150561
0.0128685
0.0109222
0.00904247
0.00724408
0.0055457
0.00395393
0.00247602
0.00112063
-0.000103566
-0.00118822
-0.00212547
-0.00290816
-0.00352993
-0.00398535
-0.00426999
-0.00438042
-0.00431427
-0.00407022
-0.003648
-0.00304833
-0.00227295
-0.00132457
-0.000206796
0.00107583
0.00251792
0.00411325
0.00585479
0.00773478
0.00974472
0.0118754
0.014117
0.0164591
0.0188906
0.0214
0.0239754
0.0266041
0.0292735
0.0319702
0.0346809
0.0373919
0.0400893
0.0427594
0.0453882
0.0479618
0.0504666
0.0528891
0.0552163
0.0574354
0.0595343
0.0615015
0.063326
0.0649979
0.066508
0.0678483
0.0690116
0.0699922
0.0707854
0.0713881
0.0717982
0.0720155
0.0720409
0.071877
0.0715278
0.0709987
0.0702968
0.06943
0.0684078
0.0672405
0.0659394
0.0645161
0.0629827
0.0613511
0.0596317
0.0578341
0.0559787
0.0540824
0.0519838
0.0495412
0.0196756
0.0167938
0.0143711
0.0122371
0.0101935
0.00825431
0.00643764
0.00474765
0.00318916
0.00176852
0.000492193
-0.000633546
-0.00160279
-0.00241015
-0.00305088
-0.003521
-0.00381735
-0.00393761
-0.00388039
-0.00364517
-0.00323237
-0.00264328
-0.00188007
-0.00094578
0.00015572
0.00141975
0.00284083
0.00441273
0.00612849
0.00798042
0.00996018
0.0120588
0.0142666
0.0165734
0.0189684
0.0214405
0.0239779
0.0265684
0.0291994
0.0318582
0.0345315
0.037206
0.0398682
0.0425043
0.0451008
0.047644
0.0501203
0.0525166
0.0548198
0.0570174
0.0590971
0.0610475
0.0628576
0.0645173
0.0660174
0.0673495
0.0685063
0.0694816
0.0702705
0.0708692
0.0712753
0.0714877
0.0715068
0.0713341
0.0709728
0.0704273
0.0697032
0.0688075
0.0677479
0.0665335
0.0651735
0.0636781
0.0620572
0.0603211
0.0584779
0.0565353
0.0545136
0.0524291
0.0500981
0.0473609
0.0215867
0.0184115
0.0157568
0.0134346
0.0112244
0.00913987
0.007199
0.00540393
0.00375742
0.00226386
0.000927807
-0.000246317
-0.00125435
-0.00209251
-0.00275754
-0.00324682
-0.00355838
-0.00369098
-0.00364415
-0.00341821
-0.00301422
-0.00243407
-0.00168038
-0.000756556
0.000333254
0.00158417
0.00299061
0.00454628
0.00624421
0.00807679
0.0100358
0.0121123
0.0142969
0.0165796
0.0189498
0.0213966
0.0239084
0.0264733
0.0290791
0.0317131
0.0343624
0.0370138
0.039654
0.0422696
0.044847
0.0473728
0.0498335
0.0522161
0.0545074
0.056695
0.0587666
0.0607106
0.062516
0.0641726
0.0656707
0.0670019
0.0681585
0.0691338
0.0699225
0.0705203
0.0709242
0.0711323
0.0711443
0.070961
0.0705846
0.0700184
0.0692669
0.0683359
0.0672319
0.0659623
0.0645353
0.0629591
0.0612424
0.0593937
0.0574197
0.0553264
0.0531343
0.05086
0.0482984
0.0452729
0.0233452
0.0198837
0.0170003
0.0144904
0.012112
0.00987922
0.00780987
0.00590459
0.00416438
0.00259197
0.00119025
-3.79915e-05
-0.00109014
-0.0019639
-0.00265737
-0.00316918
-0.00349849
-0.00364508
-0.0036094
-0.00339253
-0.00299623
-0.00242294
-0.00167577
-0.000758515
0.000324388
0.00156783
0.00296607
0.00451273
0.0062008
0.00802267
0.00997016
0.0120345
0.0142064
0.0164759
0.0188327
0.021266
0.0237645
0.0263164
0.0289096
0.0315318
0.0341701
0.0368116
0.0394431
0.0420513
0.0446227
0.047144
0.0496018
0.051983
0.0542745
0.0564636
0.0585382
0.0604864
0.062297
0.0639596
0.0654642
0.0668021
0.067965
0.0689461
0.0697393
0.0703398
0.070744
0.0709493
0.0709546
0.0707599
0.0703664
0.0697765
0.0689936
0.0680225
0.0668684
0.0655375
0.0640367
0.062373
0.0605538
0.0585862
0.0564758
0.0542274
0.0518622
0.0493971
0.0466069
0.0432989
0.0249289
0.0211874
0.0180788
0.0153821
0.0128351
0.010452
0.00825121
0.00623197
0.00439384
0.00273809
0.00126618
-2.05326e-05
-0.00112085
-0.00203378
-0.00275871
-0.0032954
-0.00364409
-0.00380554
-0.00378103
-0.00357242
-0.00318214
-0.00261319
-0.00186917
-0.000954266
0.000126752
0.00136853
0.00276514
0.00431008
0.00599627
0.00781608
0.00976134
0.0118233
0.0139928
0.01626
0.0186147
0.0210462
0.0235434
0.0260946
0.0286879
0.031311
0.0339513
0.0365959
0.0392318
0.0418456
0.044424
0.0469536
0.0494211
0.0518132
0.0541168
0.0563192
0.0584079
0.060371
0.0621969
0.0638749
0.0653948
0.0667472
0.0679236
0.0689166
0.0697196
0.0703272
0.070735
0.0709398
0.0709396
0.0707336
0.0703222
0.0697069
0.06889
0.0678752
0.0666667
0.0652698
0.0636901
0.0619336
0.0600065
0.0579152
0.0556641
0.0532573
0.0507167
0.0480604
0.0450434
0.0414575
0.0263179
0.0223021
0.0189713
0.0160891
0.0133733
0.0108388
0.00850464
0.00636884
0.00442974
0.0026874
0.00114202
-0.000206333
-0.0013577
-0.00231231
-0.00307069
-0.00363368
-0.00400252
-0.00417889
-0.00416489
-0.00396312
-0.00357665
-0.00300906
-0.00226442
-0.00134734
-0.000262925
0.000983209
0.00238492
0.00393555
0.00562792
0.00745434
0.00940663
0.0114761
0.0136535
0.0159292
0.0182929
0.0207342
0.023242
0.0258047
0.0284105
0.0310472
0.0337023
0.0363629
0.039016
0.0416484
0.0442467
0.0467974
0.0492872
0.0517026
0.0540305
0.0562579
0.0583721
0.0603609
0.0622125
0.0639156
0.0654598
0.0668351
0.0680327
0.0690444
0.0698631
0.0704827
0.0708982
0.0711056
0.0711021
0.0708861
0.0704571
0.0698155
0.0689631
0.0679023
0.0666366
0.0651702
0.0635076
0.0616542
0.0596153
0.0573963
0.0550012
0.0524333
0.0497158
0.0468678
0.0436254
0.0397652
0.027494
0.0232085
0.0196584
0.0165918
0.0137076
0.0110212
0.0085524
0.00629831
0.00425619
0.00242503
0.000803934
-0.00060817
-0.00181245
-0.00281025
-0.00360315
-0.00419299
-0.00458195
-0.00477257
-0.00476775
-0.00457079
-0.00418539
-0.0036157
-0.00286629
-0.00194215
-0.000848759
0.000407986
0.00182171
0.00338558
0.00509229
0.00693407
0.00890268
0.0109894
0.013185
0.0154799
0.0178639
0.0203265
0.0228566
0.025443
0.0280737
0.0307366
0.0334192
0.0361087
0.038792
0.0414559
0.0440869
0.0466716
0.0491963
0.0516475
0.0540119
0.0562762
0.0584275
0.0604531
0.0623409
0.0640794
0.0656573
0.0670645
0.0682914
0.0693292
0.0701702
0.0708076
0.0712356
0.0714495
0.0714457
0.0712218
0.0707764
0.0701091
0.0692207
0.0681129
0.0667881
0.0652497
0.0635016
0.0615483
0.0593944
0.0570448
0.054503
0.0517719
0.048876
0.0458357
0.0423686
0.0382364
0.0284402
0.0238887
0.0201215
0.0168719
0.0138197
0.0109813
0.00837718
0.00600377
0.00385736
0.00193603
0.000237873
-0.00123919
-0.00249735
-0.00353897
-0.0043666
-0.00498303
-0.00539132
-0.00559482
-0.00559719
-0.00540242
-0.00501483
-0.00443912
-0.00368034
-0.00274391
-0.00163566
-0.000361785
0.00107109
0.00265592
0.00438528
0.00625126
0.00824555
0.0103594
0.0125835
0.0149083
0.0173237
0.019819
0.0223835
0.0250055
0.0276735
0.0303751
0.0330979
0.0358291
0.0385556
0.0412639
0.0439406
0.0465721
0.0491445
0.0516442
0.0540575
0.0563709
0.058571
0.0606449
0.06258
0.0643643
0.065986
0.0674344
0.0686993
0.0697712
0.0706418
0.0713034
0.0717496
0.0719749
0.0719749
0.0717462
0.0712866
0.070595
0.0696712
0.0685162
0.0671316
0.0655199
0.0636845
0.0616291
0.0593579
0.0568755
0.0541847
0.0512886
0.048213
0.0449796
0.0412879
0.0368848
0.0291403
0.0243256
0.0203433
0.0169116
0.0136919
0.0107016
0.00796198
0.00546878
0.00321747
0.00120532
-0.000570462
-0.00211288
-0.00342508
-0.00451035
-0.00537215
-0.00601416
-0.00644027
-0.00665461
-0.00666156
-0.00646579
-0.00607222
-0.00548609
-0.00471293
-0.0037586
-0.00262927
-0.00133148
0.000127912
0.00174165
0.0035021
0.00540126
0.00743069
0.00958156
0.0118446
0.0142101
0.0166679
0.0192076
0.0218181
0.0244879
0.0272054
0.0299584
0.0327342
0.0355199
0.0383024
0.0410683
0.0438038
0.046495
0.0491282
0.0516891
0.0541639
0.0565388
0.0587999
0.060934
0.0629278
0.0647688
0.0664449
0.0679444
0.0692566
0.0703714
0.0712795
0.0719727
0.0724436
0.072686
0.0726945
0.0724651
0.0719945
0.071281
0.0703235
0.0691221
0.0676779
0.0659926
0.064069
0.0619102
0.0595201
0.056903
0.0540615
0.0509986
0.0477417
0.0443141
0.0403971
0.0357227
0.0295789
0.0245029
0.0203066
0.0166936
0.013307
0.0101651
0.00728999
0.00467695
0.00232067
0.000217668
-0.00163564
-0.00324313
-0.0046088
-0.00573682
-0.00663152
-0.00729739
-0.00773913
-0.00796162
-0.00796995
-0.00776942
-0.00736556
-0.00676414
-0.00597117
-0.00499293
-0.00383598
-0.00250715
-0.00101361
0.000637174
0.00243739
0.00437885
0.00645302
0.00865096
0.0109633
0.0133804
0.0158919
0.0184874
0.0211557
0.0238856
0.026665
0.0294818
0.0323233
0.0351766
0.0380283
0.0408648
0.0436722
0.0464365
0.0491434
0.0517787
0.0543279
0.056777
0.0591117
0.0613181
0.0633826
0.0652919
0.0670333
0.0685946
0.0699641
0.0711312
0.0720857
0.0728185
0.0733215
0.0735874
0.0736103
0.0733851
0.0729078
0.0721757
0.071187
0.0699411
0.0684383
0.0666798
0.0646678
0.062405
0.059895
0.0571419
0.0541481
0.0509168
0.0474769
0.0438535
0.0397096
0.0347625
0.0297407
0.0244042
0.0199948
0.016201
0.0126479
0.00935466
0.00634443
0.00361186
0.00115097
-0.00104239
-0.00297255
-0.00464418
-0.00606211
-0.00723132
-0.00815696
-0.00884433
-0.00929888
-0.00952622
-0.00953212
-0.00932252
-0.00890354
-0.00828147
-0.00746281
-0.00645427
-0.00526278
-0.00389551
-0.0023599
-0.000663669
0.00118517
0.00317826
0.00530691
0.00756209
0.00993434
0.0124138
0.0149904
0.0176532
0.0203914
0.0231934
0.0260472
0.0289406
0.0318607
0.0347945
0.0377285
0.0406489
0.0435416
0.0463923
0.0491864
0.0519094
0.0545464
0.0570828
0.059504
0.0617954
0.0639429
0.0659327
0.0677511
0.0693853
0.070823
0.0720525
0.0730629
0.0738442
0.0743875
0.0746846
0.0747286
0.0745135
0.0740345
0.0732882
0.0722718
0.0709841
0.0694247
0.0675943
0.0654944
0.0631275
0.060497
0.0576068
0.0544595
0.051058
0.0474332
0.0436119
0.0392388
0.0340161
0.0296103
0.0240136
0.0193912
0.0154169
0.0116977
0.00825341
0.00510847
0.00225693
-0.000307823
-0.00259059
-0.00459641
-0.0063307
-0.00779907
-0.0090073
-0.00996131
-0.0106672
-0.0111311
-0.0113594
-0.0113585
-0.0111349
-0.0106955
-0.010047
-0.00919629
-0.00815064
-0.00691733
-0.00550386
-0.00391796
-0.00216762
-0.000261059
0.00179318
0.00398625
0.00630897
0.0087518
0.0113048
0.0139577
0.0166997
0.0195197
0.022406
0.0253468
0.0283295
0.0313412
0.0343688
0.0373984
0.0404162
0.0434078
0.0463585
0.0492535
0.0520777
0.0548161
0.0574534
0.0599744
0.0623641
0.0646077
0.0666905
0.0685983
0.0703174
0.0718347
0.0731376
0.0742144
0.0750541
0.0756468
0.0759834
0.0760561
0.075858
0.0753836
0.0746282
0.0735886
0.0722626
0.0706494
0.0687489
0.0665625
0.0640921
0.0613409
0.058313
0.0550106
0.0514372
0.0476254
0.0436036
0.0389981
0.0334958
0.0291725
0.023315
0.0184792
0.0143244
0.0104391
0.00684418
0.00356509
0.000595374
-0.0020722
-0.00444304
-0.00652286
-0.0083178
-0.00983424
-0.0110787
-0.0120579
-0.0127787
-0.0132479
-0.0134727
-0.01346
-0.0132172
-0.0127514
-0.0120701
-0.0111806
-0.0100906
-0.00880782
-0.00734003
-0.00569532
-0.00388191
-0.00190828
0.000216855
0.00248447
0.00488523
0.00740948
0.0100472
0.0127879
0.0156208
0.0185347
0.0215179
0.0245582
0.0276431
0.0307596
0.0338942
0.0370331
0.0401619
0.0432662
0.0463308
0.0493407
0.0522803
0.055134
0.0578861
0.0605209
0.0630227
0.0653758
0.067565
0.0695753
0.071392
0.0730012
0.0743893
0.0755437
0.0764525
0.0771047
0.0774903
0.0776004
0.0774273
0.0769643
0.0762061
0.0751486
0.0737889
0.0721254
0.0701576
0.0678864
0.0653135
0.062442
0.0592757
0.0558172
0.05207
0.0480686
0.0438433
0.0390013
0.033214
0.0284117
0.0222918
0.017242
0.0129062
0.00885478
0.00510957
0.00169695
-0.00138996
-0.00415901
-0.00661622
-0.00876795
-0.0106211
-0.0121827
-0.0134601
-0.0144607
-0.0151922
-0.0156622
-0.0158783
-0.0158484
-0.0155803
-0.0150818
-0.0143608
-0.0134253
-0.0122834
-0.010943
-0.0094124
-0.00769999
-0.00581426
-0.00376392
-0.00155791
0.000794588
0.00328408
0.00590076
0.00863449
0.0114747
0.0144106
0.0174306
0.0205231
0.0236758
0.026876
0.0301105
0.0333656
0.0366274
0.0398812
0.0431122
0.046305
0.049444
0.0525134
0.0554969
0.0583783
0.0611413
0.0637694
0.0662464
0.0685561
0.0706826
0.0726104
0.0743247
0.0758108
0.0770551
0.0780446
0.0787674
0.0792124
0.0793696
0.0792302
0.0787868
0.078033
0.0769638
0.0755757
0.0738663
0.0718348
0.0694813
0.0668074
0.0638161
0.0605112
0.0568954
0.0529723
0.0487785
0.0443461
0.0392628
0.0331842
0.0273117
0.0209275
0.0156622
0.0111449
0.00692711
0.00303179
-0.000513667
-0.00371663
-0.00658558
-0.00912711
-0.0113483
-0.0132566
-0.01486
-0.0161664
-0.0171842
-0.0179216
-0.0183871
-0.018589
-0.0185357
-0.0182358
-0.0176977
-0.0169298
-0.0159405
-0.0147384
-0.013332
-0.0117297
-0.00994041
-0.00797279
-0.00583582
-0.00353867
-0.00109071
0.0014984
0.00421873
0.00706
0.0100116
0.0130624
0.016201
0.0194155
0.0226935
0.0260221
0.0293881
0.0327775
0.0361761
0.039569
0.0429411
0.0462766
0.0495595
0.0527734
0.0559017
0.0589274
0.0618336
0.064603
0.0672187
0.0696636
0.071921
0.0739743
0.0758076
0.0774054
0.0787528
0.0798358
0.0806413
0.0811571
0.0813722
0.0812766
0.0808618
0.0801206
0.079047
0.0776367
0.0758867
0.0737955
0.0713629
0.0685901
0.06548
0.0620365
0.0582621
0.0541611
0.0497717
0.0451281
0.0397979
0.0334204
0.0258559
0.0192046
0.0137221
0.00902231
0.00463781
0.000592553
-0.003085
-0.00640274
-0.00936974
-0.0119932
-0.0142809
-0.016241
-0.0178823
-0.0192134
-0.0202435
-0.0209815
-0.0214366
-0.021618
-0.0215347
-0.021196
-0.0206107
-0.019788
-0.0187367
-0.0174659
-0.0159844
-0.0143013
-0.0124254
-0.010366
-0.00813214
-0.00573332
-0.00317907
-0.000479209
0.00235618
0.00531669
0.00839155
0.0115696
0.0148393
0.0181886
0.021605
0.0250755
0.0285866
0.0321242
0.0356738
0.0392203
0.042748
0.0462411
0.0496829
0.0530567
0.0563451
0.0595306
0.0625955
0.065522
0.068292
0.0708877
0.0732913
0.0754854
0.0774528
0.0791769
0.0806417
0.081832
0.0827335
0.0833327
0.0836174
0.0835767
0.0832007
0.0824814
0.0814117
0.0799864
0.0782019
0.076056
0.073548
0.0706789
0.0674514
0.0638693
0.0599354
0.055654
0.0510657
0.0462063
0.0406228
0.0339377
0.0240271
0.0171053
0.0114034
0.00651983
0.00196806
-0.00222703
-0.0060359
-0.00946697
-0.01253
-0.0152327
-0.0175836
-0.0195917
-0.0212664
-0.0226172
-0.0236541
-0.0243867
-0.0248251
-0.0249791
-0.0248586
-0.0244733
-0.0238329
-0.0229469
-0.0218249
-0.0204762
-0.0189103
-0.0171365
-0.0151641
-0.0130025
-0.0106613
-0.00814998
-0.00547834
-0.00265637
0.000305705
0.00339735
0.00660769
0.00992545
0.013339
0.0168361
0.0204042
0.0240301
0.0277001
0.0314
0.035115
0.0388296
0.0425281
0.0461939
0.0498102
0.0533594
0.0568238
0.0601853
0.0634252
0.0665249
0.0694657
0.0722286
0.0747948
0.0771458
0.0792633
0.0811294
0.082727
0.0840395
0.0850513
0.0857477
0.0861152
0.0861415
0.0858158
0.0851287
0.0840722
0.0826402
0.0808281
0.0786332
0.0760544
0.0730921
0.0697489
0.0660287
0.0619343
0.0574702
0.0526791
0.0475988
0.041755
0.0347525
0.0218072
0.0146109
0.00868692
0.00361807
-0.00110171
-0.00544657
-0.00938593
-0.0129287
-0.0160854
-0.0188644
-0.0212748
-0.0233265
-0.0250297
-0.0263947
-0.0274323
-0.028153
-0.0285676
-0.0286868
-0.028521
-0.0280808
-0.0273765
-0.0264183
-0.0252162
-0.0237801
-0.0221198
-0.0202452
-0.0181658
-0.0158915
-0.0134319
-0.010797
-0.00799655
-0.00504085
-0.00194023
0.00129466
0.00465282
0.00812289
0.0116931
0.0153512
0.0190844
0.0228794
0.0267224
0.0305989
0.0344939
0.0383918
0.0422762
0.0461303
0.0499369
0.0536778
0.0573346
0.0608886
0.0643204
0.0676105
0.0707392
0.0736865
0.0764325
0.0789576
0.0812423
0.0832673
0.0850142
0.086465
0.0876027
0.0884113
0.0888759
0.0889829
0.08872
0.0880766
0.0870438
0.0856143
0.0837827
0.0815455
0.078901
0.0758493
0.0723926
0.068535
0.0642792
0.0596299
0.054632
0.0493254
0.0432133
0.0358827
0.0191773
0.0117018
0.00555273
0.000296813
-0.00459187
-0.00908652
-0.0131555
-0.0168083
-0.020056
-0.0229079
-0.0253737
-0.0274642
-0.0291903
-0.0305634
-0.031595
-0.0322965
-0.0326796
-0.0327557
-0.0325361
-0.032032
-0.0312545
-0.0302144
-0.0289222
-0.0273884
-0.0256234
-0.0236373
-0.0214401
-0.0190419
-0.0164528
-0.0136827
-0.0107418
-0.00764048
-0.00438921
-0.000998766
0.00251977
0.00615494
0.00989487
0.0137272
0.0176391
0.0216172
0.0256474
0.0297151
0.033805
0.0379012
0.0419871
0.0460456
0.0500586
0.0540078
0.0578741
0.0616378
0.065279
0.0687773
0.0721118
0.0752616
0.0782058
0.0809232
0.0833931
0.085595
0.087509
0.0891155
0.0903962
0.0913334
0.0919107
0.0921131
0.0919269
0.0913402
0.0903428
0.0889263
0.0870842
0.0848122
0.082108
0.0789713
0.075404
0.0714099
0.0669919
0.0621549
0.056946
0.051407
0.0450182
0.0373475
0.0161175
0.0083576
0.00197991
-0.00346513
-0.00852378
-0.0131683
-0.0173659
-0.0211267
-0.0244627
-0.0273836
-0.0299003
-0.0320241
-0.0337671
-0.0351415
-0.0361596
-0.036834
-0.037177
-0.0372011
-0.0369183
-0.0363407
-0.0354799
-0.0343475
-0.0329547
-0.0313125
-0.0294317
-0.0273229
-0.0249965
-0.022463
-0.0197325
-0.0168155
-0.0137221
-0.010463
-0.00704879
-0.00349025
0.000201393
0.00401462
0.00793749
0.0119576
0.016062
0.0202371
0.0244689
0.0287424
0.0330424
0.0373524
0.0416558
0.0459347
0.050171
0.0543455
0.0584387
0.0624301
0.0662989
0.0700238
0.073583
0.0769545
0.0801159
0.083045
0.0857195
0.0881176
0.0902176
0.0919986
0.0934405
0.0945241
0.0952313
0.0955454
0.0954513
0.0949356
0.0939865
0.0925946
0.0907522
0.0884542
0.0856972
0.0824806
0.0788059
0.0746768
0.070096
0.0650688
0.0596443
0.0538667
0.0471918
0.0391682
0.0126069
0.00455672
-0.00205352
-0.00769003
-0.0129198
-0.0177142
-0.0220394
-0.0259062
-0.0293271
-0.032313
-0.0348754
-0.0370266
-0.0387796
-0.0401477
-0.0411443
-0.0417827
-0.0420764
-0.0420387
-0.0416826
-0.0410209
-0.0400661
-0.0388304
-0.0373257
-0.0355635
-0.0335553
-0.0313121
-0.0288446
-0.0261637
-0.0232799
-0.0202036
-0.0169455
-0.0135162
-0.00992636
-0.00618699
-0.0023093
0.00169512
0.00581429
0.0100357
0.0143465
0.0187329
0.0231807
0.0276751
0.0322004
0.03674
0.0412769
0.045793
0.0502695
0.054687
0.059025
0.0632625
0.0673779
0.0713488
0.0751524
0.0787654
0.0821643
0.0853255
0.0882252
0.0908399
0.0931465
0.0951222
0.0967452
0.0979944
0.0988501
0.0992938
0.0993087
0.0988796
0.0979934
0.0966391
0.0948079
0.0924935
0.0896918
0.0864012
0.0826231
0.0783608
0.073617
0.068397
0.0627524
0.0567292
0.0497584
0.041368
0.00862341
0.000276423
-0.00657077
-0.0124013
-0.0178037
-0.0227481
-0.0271997
-0.0311699
-0.0346723
-0.0377185
-0.0403208
-0.0424928
-0.0442483
-0.0456018
-0.0465678
-0.0471606
-0.0473948
-0.0472847
-0.0468442
-0.046087
-0.0450265
-0.0436756
-0.0420469
-0.0401527
-0.0380048
-0.0356147
-0.0329938
-0.030153
-0.0271032
-0.0238552
-0.0204196
-0.0168073
-0.0130291
-0.00909588
-0.00501903
-0.000810133
0.00351882
0.00795535
0.0124864
0.0170985
0.0217771
0.0265074
0.0312734
0.0360585
0.0408454
0.0456155
0.0503498
0.0550281
0.0596295
0.0641323
0.0685137
0.0727507
0.0768191
0.0806947
0.0843525
0.0877674
0.0909141
0.0937674
0.0963023
0.0984945
0.10032
0.101756
0.10278
0.103373
0.103515
0.10319
0.102383
0.101081
0.0992739
0.0969541
0.0941166
0.0907591
0.0868822
0.0824891
0.0775823
0.0721671
0.0662975
0.0600218
0.0527443
0.0439722
0.00414374
-0.00450732
-0.0115963
-0.0176239
-0.0232003
-0.0282948
-0.0328715
-0.0369425
-0.0405224
-0.0436235
-0.0462594
-0.0484447
-0.0501945
-0.0515242
-0.0524495
-0.0529862
-0.0531497
-0.0529555
-0.0524185
-0.0515535
-0.0503747
-0.0488959
-0.0471304
-0.0450911
-0.0427905
-0.0402406
-0.0374531
-0.0344394
-0.0312106
-0.0277778
-0.0241518
-0.0203434
-0.0163636
-0.0122234
-0.00793414
-0.00350733
0.00104503
0.00571049
0.0104761
0.0153281
0.0202523
0.0252336
0.030256
0.0353028
0.0403562
0.0453976
0.0504074
0.055365
0.0602488
0.0650363
0.0697042
0.074228
0.0785829
0.082743
0.0866821
0.0903735
0.0937903
0.0969055
0.0996923
0.102124
0.104175
0.10582
0.107036
0.107799
0.108089
0.107887
0.107177
0.105943
0.104174
0.101862
0.0989985
0.095582
0.091612
0.0870911
0.0820217
0.0764091
0.0703095
0.0637738
0.0561784
0.0470085
-0.000856827
-0.00981997
-0.0171562
-0.023384
-0.029136
-0.0343807
-0.039081
-0.0432498
-0.0469026
-0.0500529
-0.0527153
-0.0549056
-0.0566403
-0.0579359
-0.0588097
-0.0592784
-0.0593589
-0.0590678
-0.0584213
-0.0574351
-0.0561244
-0.0545039
-0.0525878
-0.0503896
-0.0479225
-0.0451989
-0.0422312
-0.0390309
-0.0356097
-0.0319786
-0.0281486
-0.0241308
-0.0199361
-0.0155756
-0.0110604
-0.00640211
-0.00161264
0.00329567
0.00830988
0.0134164
0.018601
0.0238486
0.0291431
0.0344678
0.0398046
0.0451347
0.0504381
0.0556937
0.0608794
0.0659719
0.0709471
0.0757795
0.080443
0.0849106
0.0891546
0.0931466
0.0968581
0.10026
0.103324
0.10602
0.108322
0.110201
0.111631
0.112588
0.113048
0.112991
0.112397