/*--------------------------------*- C++ -*----------------------------------*\
| =========                 |                                                 |
| \\      /  F ield         | OpenFOAM: The Open Source CFD Toolbox           |
|  \\    /   O peration     | Version:  2506                                  |
|   \\  /    A nd           | Website:  www.openfoam.com                      |
|    \\/     M anipulation  |                                                 |
\*---------------------------------------------------------------------------*/
FoamFile
{
    version     2.0;
    format      ascii;
    arch        "LSB;label=32;scalar=64";
    class       surfaceScalarField;
    location    "0.775";
    object      phi;
}
// * * * * * * * * * * * * * * * * * * * * * * * * * * * * * * * * * * * * * //

dimensions      [0 3 -1 0 0 0 0];

oriented        oriented;

internalField   nonuniform List<scalar> 
12640
(
1.90814e-10
-1.90561e-10
5.56886e-10
-3.66076e-10
8.84287e-10
-3.27394e-10
1.04744e-09
-1.63162e-10
9.84069e-10
6.33474e-11
6.67033e-10
3.17021e-10
8.94341e-11
5.77605e-10
-7.43639e-10
8.3309e-10
-1.81999e-09
1.07636e-09
-3.12316e-09
1.30316e-09
-4.63412e-09
1.51095e-09
-6.33239e-09
1.69826e-09
-8.19672e-09
1.86433e-09
-1.02056e-08
2.00884e-09
-1.23374e-08
2.13181e-09
-1.45709e-08
2.23349e-09
-1.68851e-08
2.3143e-09
-1.92599e-08
2.37475e-09
-2.16753e-08
2.41546e-09
-2.41124e-08
2.43711e-09
-2.65529e-08
2.44043e-09
-2.89791e-08
2.42618e-09
-3.13742e-08
2.39514e-09
-3.37223e-08
2.34813e-09
-3.60083e-08
2.28595e-09
-3.82177e-08
2.20944e-09
-4.03371e-08
2.11942e-09
-4.23539e-08
2.01673e-09
-4.42561e-08
1.90222e-09
-4.60328e-08
1.77673e-09
-4.76739e-08
1.6411e-09
-4.91701e-08
1.4962e-09
-5.0513e-08
1.34289e-09
-5.16951e-08
1.18203e-09
-5.27096e-08
1.0145e-09
-5.35507e-08
8.41191e-10
-5.42138e-08
6.63007e-10
-5.46946e-08
4.80862e-10
-5.49903e-08
2.95687e-10
-5.50987e-08
1.08431e-10
-5.50188e-08
-7.99427e-11
-5.47503e-08
-2.6845e-10
-5.42943e-08
-4.5609e-10
-5.36524e-08
-6.41843e-10
-5.28277e-08
-8.24672e-10
-5.18242e-08
-1.00353e-09
-5.06469e-08
-1.17734e-09
-4.93018e-08
-1.34502e-09
-4.77963e-08
-1.5055e-09
-4.61387e-08
-1.65768e-09
-4.43382e-08
-1.80046e-09
-4.24054e-08
-1.93275e-09
-4.0352e-08
-2.05346e-09
-3.81904e-08
-2.16153e-09
-3.59345e-08
-2.25592e-09
-3.35989e-08
-2.33558e-09
-3.11994e-08
-2.39954e-09
-2.87525e-08
-2.44685e-09
-2.62759e-08
-2.47661e-09
-2.37879e-08
-2.48798e-09
-2.13078e-08
-2.48019e-09
-1.88552e-08
-2.45254e-09
-1.64508e-08
-2.40443e-09
-1.41154e-08
-2.33535e-09
-1.18705e-08
-2.24494e-09
-9.73754e-09
-2.13296e-09
-7.7382e-09
-1.99933e-09
-5.894e-09
-1.8442e-09
-4.22601e-09
-1.668e-09
-2.75453e-09
-1.47148e-09
-1.49861e-09
-1.25592e-09
-4.75292e-10
-1.02331e-09
3.0142e-10
-7.76706e-10
8.2231e-10
-5.20886e-10
1.08575e-09
-2.63442e-10
1.10249e-09
-1.67476e-11
9.03646e-10
1.98839e-10
5.55064e-10
3.48583e-10
1.84101e-10
3.70973e-10
1.84112e-10
3.66609e-10
-5.57179e-10
8.88037e-10
-8.87529e-10
1.21941e-09
-6.5877e-10
1.13764e-09
-8.13904e-11
5.04968e-10
6.96031e-10
-7.52542e-10
1.57452e-09
-2.6641e-09
2.48915e-09
-5.22866e-09
3.39764e-09
-8.4248e-09
4.27249e-09
-1.22174e-08
5.0958e-09
-1.65625e-08
5.85599e-09
-2.14099e-08
6.54569e-09
-2.6706e-08
7.16047e-09
-3.23951e-08
7.69791e-09
-3.84203e-08
8.15704e-09
-4.47248e-08
8.53796e-09
-5.1252e-08
8.84154e-09
-5.79465e-08
9.06924e-09
-6.4754e-08
9.22293e-09
-7.16217e-08
9.30485e-09
-7.84987e-08
9.31746e-09
-8.5336e-08
9.26342e-09
-9.20864e-08
9.14555e-09
-9.8705e-08
8.96676e-09
-1.05149e-07
8.73005e-09
-1.11378e-07
8.4385e-09
-1.17354e-07
8.09522e-09
-1.23041e-07
7.70336e-09
-1.28405e-07
7.26612e-09
-1.33415e-07
6.78673e-09
-1.38042e-07
6.26844e-09
-1.4226e-07
5.71452e-09
-1.46046e-07
5.1283e-09
-1.49377e-07
4.51313e-09
-1.52235e-07
3.87241e-09
-1.54603e-07
3.20956e-09
-1.56468e-07
2.52809e-09
-1.57819e-07
1.83152e-09
-1.58647e-07
1.12346e-09
-1.58946e-07
4.07578e-10
-1.58713e-07
-3.12411e-10
-1.57949e-07
-1.03271e-09
-1.56656e-07
-1.74947e-09
-1.54839e-07
-2.45877e-09
-1.52507e-07
-3.15664e-09
-1.49671e-07
-3.83904e-09
-1.46347e-07
-4.50189e-09
-1.42551e-07
-5.14108e-09
-1.38304e-07
-5.75248e-09
-1.33629e-07
-6.33193e-09
-1.28554e-07
-6.87528e-09
-1.23109e-07
-7.3784e-09
-1.17325e-07
-7.83722e-09
-1.11239e-07
-8.24772e-09
-1.04889e-07
-8.60597e-09
-9.83161e-08
-8.90816e-09
-9.15651e-08
-9.15063e-09
-8.4682e-08
-9.32988e-09
-7.7716e-08
-9.44265e-09
-7.07181e-08
-9.48591e-09
-6.37413e-08
-9.45691e-09
-5.68406e-08
-9.35326e-09
-5.00721e-08
-9.17294e-09
-4.34931e-08
-8.91438e-09
-3.71615e-08
-8.57656e-09
-3.11354e-08
-8.15906e-09
-2.54724e-08
-7.66224e-09
-2.02292e-08
-7.0874e-09
-1.54602e-08
-6.43704e-09
-1.12165e-08
-5.7152e-09
-7.54432e-09
-4.92806e-09
-4.48294e-09
-4.08469e-09
-2.06125e-09
-3.1984e-09
-2.93466e-10
-2.28867e-09
8.27395e-10
-1.3843e-09
1.33904e-09
-5.28394e-10
1.3236e-09
2.14273e-10
9.25525e-10
7.4664e-10
3.70988e-10
9.25498e-10
5.55104e-10
3.30813e-10
-8.8799e-10
6.67572e-10
-1.22429e-09
6.15065e-10
-6.06261e-10
-8.78828e-11
6.21553e-10
-1.61227e-09
2.2204e-09
-4.05741e-09
4.01966e-09
-7.46777e-09
5.89951e-09
-1.18474e-08
7.77723e-09
-1.71708e-08
9.59593e-09
-2.33917e-08
1.13167e-08
-3.04486e-08
1.29129e-08
-3.827e-08
1.43671e-08
-4.67773e-08
1.56677e-08
-5.58874e-08
1.68081e-08
-6.5515e-08
1.77846e-08
-7.55733e-08
1.85963e-08
-8.59758e-08
1.9244e-08
-9.66367e-08
1.97301e-08
-1.07472e-07
2.0058e-08
-1.18399e-07
2.02318e-08
-1.29338e-07
2.02564e-08
-1.40212e-07
2.01373e-08
-1.50946e-07
1.98802e-08
-1.6147e-07
1.94911e-08
-1.71717e-07
1.89764e-08
-1.81621e-07
1.83426e-08
-1.91122e-07
1.75963e-08
-2.00163e-07
1.67444e-08
-2.08691e-07
1.57937e-08
-2.16655e-07
1.47512e-08
-2.2401e-07
1.36239e-08
-2.30715e-07
1.24191e-08
-2.36731e-07
1.11439e-08
-2.42023e-07
9.80564e-09
-2.46562e-07
8.4118e-09
-2.50323e-07
6.96987e-09
-2.53282e-07
5.48749e-09
-2.55423e-07
3.97242e-09
-2.56732e-07
2.43253e-09
-2.572e-07
8.75824e-10
-2.56823e-07
-6.89541e-10
-2.55601e-07
-2.25529e-09
-2.53537e-07
-3.81302e-09
-2.50642e-07
-5.35418e-09
-2.46928e-07
-6.87012e-09
-2.42415e-07
-8.35207e-09
-2.37126e-07
-9.79118e-09
-2.31088e-07
-1.11785e-08
-2.24336e-07
-1.25052e-08
-2.16906e-07
-1.37621e-08
-2.0884e-07
-1.49404e-08
-2.00188e-07
-1.60311e-08
-1.90999e-07
-1.70256e-08
-1.81332e-07
-1.79152e-08
-1.71246e-07
-1.86915e-08
-1.60808e-07
-1.93464e-08
-1.50087e-07
-1.98721e-08
-1.39155e-07
-2.02613e-08
-1.28091e-07
-2.05071e-08
-1.16973e-07
-2.06032e-08
-1.05886e-07
-2.05441e-08
-9.49146e-08
-2.03249e-08
-8.41459e-08
-1.99417e-08
-7.36687e-08
-1.93916e-08
-6.35722e-08
-1.8673e-08
-5.39453e-08
-1.77859e-08
-4.48757e-08
-1.67318e-08
-3.64484e-08
-1.55147e-08
-2.87443e-08
-1.41411e-08
-2.18383e-08
-1.26212e-08
-1.57967e-08
-1.09698e-08
-1.06734e-08
-9.20792e-09
-6.50638e-09
-7.36546e-09
-3.31077e-09
-5.48428e-09
-1.07149e-09
-3.62358e-09
2.67427e-10
-1.8673e-09
8.16292e-10
-3.34579e-10
7.55307e-10
8.07639e-10
3.51366e-10
1.32943e-09
9.06465e-10
1.72197e-10
-1.0602e-09
1.05482e-10
-1.15757e-09
-5.87314e-10
8.6532e-11
-2.17035e-09
2.20459e-09
-4.8209e-09
4.87095e-09
-8.64542e-09
7.84417e-09
-1.36934e-08
1.09475e-08
-1.99697e-08
1.40535e-08
-2.74449e-08
1.70712e-08
-3.6064e-08
1.99358e-08
-4.57526e-08
2.26015e-08
-5.64222e-08
2.50367e-08
-6.79746e-08
2.72202e-08
-8.0305e-08
2.91384e-08
-9.33041e-08
3.07837e-08
-1.06861e-07
3.21528e-08
-1.20862e-07
3.32458e-08
-1.35198e-07
3.40655e-08
-1.49757e-07
3.46167e-08
-1.6443e-07
3.49057e-08
-1.79114e-07
3.49403e-08
-1.93706e-07
3.47291e-08
-2.08107e-07
3.42814e-08
-2.22224e-07
3.36075e-08
-2.35965e-07
3.27179e-08
-2.49246e-07
3.16234e-08
-2.61985e-07
3.03354e-08
-2.74106e-07
2.88653e-08
-2.85538e-07
2.72251e-08
-2.96213e-07
2.54266e-08
-3.06071e-07
2.3482e-08
-3.15055e-07
2.14035e-08
-3.23115e-07
1.92038e-08
-3.30205e-07
1.68954e-08
-3.36284e-07
1.44911e-08
-3.41319e-07
1.20041e-08
-3.45279e-07
9.44745e-09
-3.48141e-07
6.83467e-09
-3.49888e-07
4.17938e-09
-3.50507e-07
1.49545e-09
-3.49994e-07
-1.20306e-09
-3.48347e-07
-3.90181e-09
-3.45574e-07
-6.58629e-09
-3.41686e-07
-9.24177e-09
-3.36703e-07
-1.18533e-08
-3.30649e-07
-1.44058e-08
-3.23556e-07
-1.68841e-08
-3.15462e-07
-1.92728e-08
-3.06411e-07
-2.15565e-08
-2.96453e-07
-2.372e-08
-2.85646e-07
-2.57478e-08
-2.74052e-07
-2.76248e-08
-2.61741e-07
-2.93361e-08
-2.4879e-07
-3.08671e-08
-2.35278e-07
-3.22034e-08
-2.21292e-07
-3.33315e-08
-2.06926e-07
-3.42382e-08
-1.92276e-07
-3.49112e-08
-1.77444e-07
-3.53391e-08
-1.62536e-07
-3.55114e-08
-1.47661e-07
-3.54192e-08
-1.32932e-07
-3.50546e-08
-1.18462e-07
-3.44116e-08
-1.04367e-07
-3.34861e-08
-9.0764e-08
-3.22762e-08
-7.77672e-08
-3.07827e-08
-6.54894e-08
-2.90096e-08
-5.40392e-08
-2.6965e-08
-4.35188e-08
-2.46615e-08
-3.4022e-08
-2.2118e-08
-2.56304e-08
-1.93614e-08
-1.84096e-08
-1.64286e-08
-1.24044e-08
-1.33707e-08
-7.63187e-09
-1.02568e-08
-4.07377e-09
-7.18168e-09
-1.66687e-09
-4.27421e-09
-2.91235e-10
-1.7102e-09
2.4247e-10
2.73942e-10
2.08131e-10
1.36376e-09
1.11459e-09
-4.72637e-11
-1.01295e-09
-6.54208e-10
-5.50616e-10
-2.15903e-09
1.59134e-09
-4.80235e-09
4.84792e-09
-8.74848e-09
8.81709e-09
-1.40969e-08
1.31926e-08
-2.08925e-08
1.77431e-08
-2.91357e-08
2.22966e-08
-3.87907e-08
2.67263e-08
-4.97938e-08
3.09388e-08
-6.20592e-08
3.48668e-08
-7.54845e-08
3.8462e-08
-8.99552e-08
4.16909e-08
-1.05348e-07
4.45315e-08
-1.21535e-07
4.69702e-08
-1.38382e-07
4.90004e-08
-1.55757e-07
5.06205e-08
-1.73525e-07
5.18334e-08
-1.91553e-07
5.26449e-08
-2.09711e-07
5.30636e-08
-2.27871e-07
5.31002e-08
-2.45909e-07
5.2767e-08
-2.63705e-07
5.20775e-08
-2.81144e-07
5.10465e-08
-2.98115e-07
4.96895e-08
-3.14514e-07
4.80227e-08
-3.30242e-07
4.60629e-08
-3.45204e-07
4.38274e-08
-3.59313e-07
4.1334e-08
-3.72487e-07
3.86005e-08
-3.8465e-07
3.56455e-08
-3.95734e-07
3.24875e-08
-4.05676e-07
2.91455e-08
-4.14419e-07
2.56387e-08
-4.21915e-07
2.19867e-08
-4.2812e-07
1.82092e-08
-4.32999e-07
1.43264e-08
-4.36523e-07
1.03588e-08
-4.38671e-07
6.32698e-09
-4.39428e-07
2.25215e-09
-4.38786e-07
-1.8443e-09
-4.36748e-07
-5.94061e-09
-4.33319e-07
-1.00147e-08
-4.28517e-07
-1.40443e-08
-4.22363e-07
-1.80066e-08
-4.1489e-07
-2.18789e-08
-4.06136e-07
-2.56381e-08
-3.96148e-07
-2.92611e-08
-3.8498e-07
-3.27246e-08
-3.72694e-07
-3.60055e-08
-3.59361e-07
-3.90807e-08
-3.45059e-07
-4.19274e-08
-3.29872e-07
-4.45232e-08
-3.13892e-07
-4.68462e-08
-2.97221e-07
-4.88752e-08
-2.79962e-07
-5.05897e-08
-2.6223e-07
-5.19703e-08
-2.44143e-07
-5.29987e-08
-2.25824e-07
-5.36583e-08
-2.07401e-07
-5.39338e-08
-1.89008e-07
-5.38122e-08
-1.7078e-07
-5.32825e-08
-1.52855e-07
-5.23364e-08
-1.35373e-07
-5.09687e-08
-1.18471e-07
-4.91778e-08
-1.02288e-07
-4.6966e-08
-8.69568e-08
-4.43408e-08
-7.2606e-08
-4.13157e-08
-5.93559e-08
-3.79115e-08
-4.7316e-08
-3.4158e-08
-3.65808e-08
-3.00965e-08
-2.72265e-08
-2.5783e-08
-1.93049e-08
-2.12923e-08
-1.2838e-08
-1.67238e-08
-7.8103e-09
-1.22093e-08
-4.16108e-09
-7.92344e-09
-1.77488e-09
-4.0964e-09
-4.72077e-10
-1.02886e-09
2.22572e-12
8.89453e-10
1.1168e-09
-2.94329e-10
-7.18641e-10
-1.51898e-09
6.74029e-10
-3.94293e-09
4.01528e-09
-7.76549e-09
8.67047e-09
-1.3124e-08
1.41756e-08
-2.01e-08
2.01685e-08
-2.87256e-08
2.63687e-08
-3.89909e-08
3.2562e-08
-5.08508e-08
3.85861e-08
-6.42313e-08
4.43192e-08
-7.90351e-08
4.96707e-08
-9.51473e-08
5.45741e-08
-1.12439e-07
5.89826e-08
-1.30771e-07
6.28637e-08
-1.49998e-07
6.6197e-08
-1.69969e-07
6.89714e-08
-1.90532e-07
7.11831e-08
-2.11532e-07
7.28341e-08
-2.32819e-07
7.39312e-08
-2.5424e-07
7.44852e-08
-2.7565e-07
7.45097e-08
-2.96904e-07
7.40209e-08
-3.17863e-07
7.30369e-08
-3.38394e-07
7.15775e-08
-3.58369e-07
6.96639e-08
-3.77664e-07
6.73183e-08
-3.96165e-07
6.45638e-08
-4.13762e-07
6.14242e-08
-4.30352e-07
5.79242e-08
-4.4584e-07
5.40887e-08
-4.60138e-07
4.99434e-08
-4.73165e-07
4.55143e-08
-4.84848e-07
4.08279e-08
-4.9512e-07
3.59112e-08
-5.03925e-07
3.07914e-08
-5.11212e-07
2.54964e-08
-5.1694e-07
2.00543e-08
-5.21075e-07
1.44939e-08
-5.23592e-07
8.84419e-09
-5.24475e-07
3.13482e-09
-5.23715e-07
-2.60422e-09
-5.21313e-07
-8.34246e-09
-5.17279e-07
-1.4049e-08
-5.1163e-07
-1.96926e-08
-5.04395e-07
-2.52416e-08
-4.9561e-07
-3.0664e-08
-4.8532e-07
-3.59278e-08
-4.73581e-07
-4.10006e-08
-4.60455e-07
-4.58501e-08
-4.46017e-07
-5.04441e-08
-4.30347e-07
-5.47505e-08
-4.13536e-07
-5.87378e-08
-3.95685e-07
-6.2375e-08
-3.76899e-07
-6.56316e-08
-3.57296e-07
-6.84783e-08
-3.36999e-07
-7.08872e-08
-3.16138e-07
-7.28315e-08
-2.9485e-07
-7.42863e-08
-2.73279e-07
-7.52289e-08
-2.51574e-07
-7.56389e-08
-2.29887e-07
-7.54988e-08
-2.08376e-07
-7.47943e-08
-1.87197e-07
-7.35147e-08
-1.66512e-07
-7.16541e-08
-1.46479e-07
-6.92112e-08
-1.27254e-07
-6.6191e-08
-1.08989e-07
-6.26052e-08
-9.18308e-08
-5.84741e-08
-7.59145e-08
-5.38278e-08
-6.13635e-08
-4.87089e-08
-4.82851e-08
-4.3175e-08
-3.67655e-08
-3.73025e-08
-2.6866e-08
-3.11918e-08
-1.86166e-08
-2.49732e-08
-1.20106e-08
-1.88153e-08
-6.9979e-09
-1.29361e-08
-3.47851e-09
-7.6158e-09
-1.29627e-09
-3.2111e-09
-2.32983e-10
-1.73836e-10
8.83812e-10
-5.50857e-10
-1.67778e-10
-2.43118e-09
2.55433e-09
-5.83427e-09
7.41836e-09
-1.09082e-08
1.37444e-08
-1.77541e-08
2.10215e-08
-2.64271e-08
2.88415e-08
-3.69399e-08
3.68815e-08
-4.92672e-08
4.48893e-08
-6.33508e-08
5.26697e-08
-7.91042e-08
6.00727e-08
-9.64183e-08
6.69847e-08
-1.15165e-07
7.33209e-08
-1.35202e-07
7.90197e-08
-1.56376e-07
8.40379e-08
-1.78527e-07
8.83472e-08
-2.01486e-07
9.19311e-08
-2.25086e-07
9.4783e-08
-2.49156e-07
9.69039e-08
-2.73526e-07
9.83011e-08
-2.98028e-07
9.89874e-08
-3.22498e-07
9.89793e-08
-3.46774e-07
9.82972e-08
-3.70701e-07
9.6964e-08
-3.94128e-07
9.5005e-08
-4.16912e-07
9.24476e-08
-4.38914e-07
8.93204e-08
-4.60004e-07
8.56536e-08
-4.80058e-07
8.14785e-08
-4.98961e-07
7.68271e-08
-5.16605e-07
7.17324e-08
-5.32889e-07
6.62282e-08
-5.47724e-07
6.03489e-08
-5.61025e-07
5.41294e-08
-5.7272e-07
4.76053e-08
-5.82741e-07
4.0813e-08
-5.91034e-07
3.37892e-08
-5.97551e-07
2.65712e-08
-6.02254e-07
1.91971e-08
-6.05115e-07
1.17054e-08
-6.06116e-07
4.13531e-09
-6.05247e-07
-3.47337e-09
-6.02509e-07
-1.10803e-08
-5.97913e-07
-1.86447e-08
-5.9148e-07
-2.61251e-08
-5.83242e-07
-3.34797e-08
-5.7324e-07
-4.06665e-08
-5.61525e-07
-4.76428e-08
-5.48159e-07
-5.43662e-08
-5.33215e-07
-6.07941e-08
-5.16775e-07
-6.68841e-08
-4.98931e-07
-7.25942e-08
-4.79787e-07
-7.78827e-08
-4.59452e-07
-8.27091e-08
-4.3805e-07
-8.70336e-08
-4.15711e-07
-9.0818e-08
-3.92572e-07
-9.40255e-08
-3.68782e-07
-9.66218e-08
-3.44494e-07
-9.85744e-08
-3.19869e-07
-9.98541e-08
-2.95073e-07
-1.00435e-07
-2.70278e-07
-1.00294e-07
-2.45657e-07
-9.94146e-08
-2.21389e-07
-9.77832e-08
-1.9765e-07
-9.5393e-08
-1.74617e-07
-9.22441e-08
-1.52464e-07
-8.8344e-08
-1.31359e-07
-8.37099e-08
-1.11464e-07
-7.83696e-08
-9.2928e-08
-7.23636e-08
-7.58886e-08
-6.57483e-08
-6.04652e-08
-5.85985e-08
-4.67557e-08
-5.1012e-08
-3.48329e-08
-4.31147e-08
-2.47388e-08
-3.50673e-08
-1.64805e-08
-2.70737e-08
-1.00253e-08
-1.93913e-08
-5.29693e-09
-1.23442e-08
-2.17197e-09
-6.33607e-09
-4.79077e-10
-1.86673e-09
4.04735e-10
-8.06992e-10
6.39229e-10
-3.35599e-09
5.10332e-09
-7.76576e-09
1.18281e-08
-1.4129e-08
2.01077e-08
-2.25049e-08
2.93973e-08
-3.29167e-08
3.92533e-08
-4.53524e-08
4.93172e-08
-5.97669e-08
5.93038e-08
-7.60854e-08
6.89881e-08
-9.42069e-08
7.81941e-08
-1.14008e-07
8.67862e-08
-1.35349e-07
9.46612e-08
-1.58072e-07
1.01743e-07
-1.82011e-07
1.07977e-07
-2.06991e-07
1.13327e-07
-2.32831e-07
1.17771e-07
-2.59346e-07
1.21298e-07
-2.86351e-07
1.23909e-07
-3.13661e-07
1.25611e-07
-3.41091e-07
1.26418e-07
-3.68463e-07
1.26351e-07
-3.95599e-07
1.25433e-07
-4.22329e-07
1.23694e-07
-4.48488e-07
1.21164e-07
-4.73917e-07
1.17876e-07
-4.98464e-07
1.13868e-07
-5.21985e-07
1.09175e-07
-5.44346e-07
1.03839e-07
-5.65417e-07
9.78983e-08
-5.8508e-07
9.13957e-08
-6.03225e-07
8.43735e-08
-6.19752e-07
7.68754e-08
-6.34568e-07
6.89456e-08
-6.47592e-07
6.06294e-08
-6.58752e-07
5.19729e-08
-6.67986e-07
4.30228e-08
-6.75241e-07
3.38266e-08
-6.80477e-07
2.44326e-08
-6.83661e-07
1.48898e-08
-6.84774e-07
5.2482e-09
-6.83805e-07
-4.44184e-09
-6.80757e-07
-1.4129e-08
-6.7564e-07
-2.37615e-08
-6.68478e-07
-3.32866e-08
-6.59307e-07
-4.26515e-08
-6.4817e-07
-5.18027e-08
-6.35127e-07
-6.06864e-08
-6.20244e-07
-6.92487e-08
-6.03602e-07
-7.74359e-08
-5.85292e-07
-8.51942e-08
-5.65416e-07
-9.24707e-08
-5.44086e-07
-9.92129e-08
-5.21425e-07
-1.0537e-07
-4.97568e-07
-1.10891e-07
-4.72657e-07
-1.15729e-07
-4.46845e-07
-1.19837e-07
-4.20294e-07
-1.23173e-07
-3.93172e-07
-1.25696e-07
-3.65656e-07
-1.2737e-07
-3.37927e-07
-1.28163e-07
-3.10175e-07
-1.28047e-07
-2.82588e-07
-1.27001e-07
-2.55361e-07
-1.2501e-07
-2.28688e-07
-1.22067e-07
-2.0276e-07
-1.18172e-07
-1.77768e-07
-1.13336e-07
-1.53895e-07
-1.07583e-07
-1.31315e-07
-1.00949e-07
-1.10195e-07
-9.34839e-08
-9.06841e-08
-8.52595e-08
-7.29146e-08
-7.63679e-08
-5.69983e-08
-6.69283e-08
-4.30215e-08
-5.70914e-08
-3.1042e-08
-4.70468e-08
-2.10851e-08
-3.70306e-08
-1.31408e-08
-2.73356e-08
-7.16194e-09
-1.83231e-08
-3.06365e-09
-1.04344e-08
-7.25801e-10
-4.20459e-09
-3.21064e-10
-1.05764e-09
1.69687e-09
-4.27315e-09
8.31882e-09
-9.69552e-09
1.72505e-08
-1.73617e-08
2.77738e-08
-2.72864e-08
3.9322e-08
-3.94573e-08
5.14242e-08
-5.3834e-08
6.36939e-08
-7.03481e-08
7.58179e-08
-8.89052e-08
8.75452e-08
-1.09387e-07
9.86763e-08
-1.31656e-07
1.09055e-07
-1.55556e-07
1.18561e-07
-1.80918e-07
1.27105e-07
-2.07561e-07
1.3462e-07
-2.35296e-07
1.41062e-07
-2.63928e-07
1.46403e-07
-2.93259e-07
1.50629e-07
-3.2309e-07
1.5374e-07
-3.53221e-07
1.55742e-07
-3.83455e-07
1.56652e-07
-4.13598e-07
1.56493e-07
-4.43459e-07
1.55295e-07
-4.72854e-07
1.53089e-07
-5.01606e-07
1.49915e-07
-5.29541e-07
1.45812e-07
-5.56497e-07
1.40823e-07
-5.82317e-07
1.34996e-07
-6.06855e-07
1.28377e-07
-6.29972e-07
1.21015e-07
-6.51539e-07
1.12963e-07
-6.71437e-07
1.04272e-07
-6.89557e-07
9.49953e-08
-7.058e-07
8.5188e-08
-7.20076e-07
7.49056e-08
-7.32308e-07
6.42046e-08
-7.42428e-07
5.31427e-08
-7.50379e-07
4.17784e-08
-7.56118e-07
3.01712e-08
-7.5961e-07
1.83815e-08
-7.60832e-07
6.4706e-09
-7.59775e-07
-5.49923e-09
-7.56439e-07
-1.74649e-08
-7.50838e-07
-2.93626e-08
-7.42996e-07
-4.11278e-08
-7.32953e-07
-5.26952e-08
-7.20756e-07
-6.39992e-08
-7.06469e-07
-7.49738e-08
-6.90165e-07
-8.55529e-08
-6.7193e-07
-9.56705e-08
-6.51863e-07
-1.05261e-07
-6.30075e-07
-1.14259e-07
-6.06687e-07
-1.22601e-07
-5.81833e-07
-1.30224e-07
-5.55657e-07
-1.37067e-07
-5.28315e-07
-1.43071e-07
-4.9997e-07
-1.48182e-07
-4.70798e-07
-1.52345e-07
-4.40981e-07
-1.55514e-07
-4.10708e-07
-1.57643e-07
-3.80177e-07
-1.58694e-07
-3.4959e-07
-1.58634e-07
-3.19153e-07
-1.57439e-07
-2.89073e-07
-1.5509e-07
-2.59559e-07
-1.5158e-07
-2.30818e-07
-1.46912e-07
-2.03056e-07
-1.41099e-07
-1.76469e-07
-1.3417e-07
-1.51247e-07
-1.2617e-07
-1.27569e-07
-1.17162e-07
-1.05599e-07
-1.07229e-07
-8.54844e-08
-9.64827e-08
-6.73513e-08
-8.50615e-08
-5.13024e-08
-7.31402e-08
-3.74142e-08
-6.09351e-08
-2.57337e-08
-4.87111e-08
-1.62774e-08
-3.67919e-08
-9.03084e-09
-2.55696e-08
-3.95042e-09
-1.55148e-08
-9.67789e-10
-7.18723e-09
-1.28885e-09
-1.30039e-09
2.99724e-09
-5.17145e-09
1.21899e-08
-1.15986e-08
2.36776e-08
-2.05649e-08
3.67401e-08
-3.20399e-08
5.0797e-08
-4.59742e-08
6.53585e-08
-6.22962e-08
8.00159e-08
-8.09118e-08
9.44334e-08
-1.01704e-07
1.08338e-07
-1.24537e-07
1.21509e-07
-1.49255e-07
1.33773e-07
-1.75686e-07
1.44993e-07
-2.03648e-07
1.55066e-07
-2.32944e-07
1.63916e-07
-2.63373e-07
1.71491e-07
-2.94727e-07
1.77757e-07
-3.26794e-07
1.82697e-07
-3.59362e-07
1.86308e-07
-3.92219e-07
1.88598e-07
-4.25153e-07
1.89586e-07
-4.57958e-07
1.89299e-07
-4.90432e-07
1.87769e-07
-5.22378e-07
1.85035e-07
-5.53606e-07
1.81142e-07
-5.83932e-07
1.76138e-07
-6.13182e-07
1.70073e-07
-6.41189e-07
1.63003e-07
-6.67796e-07
1.54983e-07
-6.92855e-07
1.46074e-07
-7.16228e-07
1.36336e-07
-7.37789e-07
1.25832e-07
-7.57419e-07
1.14626e-07
-7.75013e-07
1.02782e-07
-7.90476e-07
9.03684e-08
-8.03724e-07
7.74526e-08
-8.14685e-07
6.41038e-08
-8.23299e-07
5.03923e-08
-8.29517e-07
3.63896e-08
-8.33304e-07
2.21683e-08
-8.34635e-07
7.80198e-09
-8.335e-07
-6.63458e-09
-8.29899e-07
-2.10657e-08
-8.23847e-07
-3.54147e-08
-8.15371e-07
-4.96041e-08
-8.0451e-07
-6.35558e-08
-7.91318e-07
-7.7191e-08
-7.75861e-07
-9.04307e-08
-7.58219e-07
-1.03196e-07
-7.38482e-07
-1.15407e-07
-7.16757e-07
-1.26986e-07
-6.93161e-07
-1.37855e-07
-6.67825e-07
-1.47937e-07
-6.4089e-07
-1.57158e-07
-6.12512e-07
-1.65445e-07
-5.82855e-07
-1.72729e-07
-5.52095e-07
-1.78942e-07
-5.20418e-07
-1.84022e-07
-4.88019e-07
-1.87913e-07
-4.55101e-07
-1.90561e-07
-4.21873e-07
-1.91921e-07
-3.88551e-07
-1.91956e-07
-3.55354e-07
-1.90636e-07
-3.22504e-07
-1.8794e-07
-2.90223e-07
-1.83861e-07
-2.58734e-07
-1.78401e-07
-2.28254e-07
-1.71579e-07
-1.98995e-07
-1.63429e-07
-1.71161e-07
-1.54004e-07
-1.44946e-07
-1.43377e-07
-1.20529e-07
-1.31647e-07
-9.80714e-08
-1.1894e-07
-7.77174e-08
-1.05415e-07
-5.95882e-08
-9.12694e-08
-4.37811e-08
-7.67422e-08
-3.03676e-08
-6.21246e-08
-1.93932e-08
-4.77663e-08
-1.08782e-08
-3.40846e-08
-4.82071e-09
-2.15723e-08
-1.20247e-09
-1.08055e-08
-2.49132e-09
-1.53434e-09
4.53157e-09
-6.04539e-09
1.67009e-08
-1.34613e-08
3.10936e-08
-2.37143e-08
4.69931e-08
-3.67297e-08
6.38124e-08
-5.24202e-08
8.10489e-08
-7.06817e-08
9.82774e-08
-9.13924e-08
1.15144e-07
-1.14412e-07
1.31357e-07
-1.39583e-07
1.4668e-07
-1.66731e-07
1.60921e-07
-1.95669e-07
1.73931e-07
-2.26197e-07
1.85594e-07
-2.58106e-07
1.95826e-07
-2.9118e-07
2.04566e-07
-3.25199e-07
2.11775e-07
-3.59937e-07
2.17435e-07
-3.95169e-07
2.2154e-07
-4.30672e-07
2.24101e-07
-4.66222e-07
2.25137e-07
-5.01602e-07
2.24678e-07
-5.36596e-07
2.22763e-07
-5.70998e-07
2.19437e-07
-6.04606e-07
2.1475e-07
-6.37226e-07
2.08758e-07
-6.68674e-07
2.01521e-07
-6.98774e-07
1.93103e-07
-7.27359e-07
1.83569e-07
-7.54274e-07
1.72989e-07
-7.79372e-07
1.61434e-07
-8.02518e-07
1.48978e-07
-8.23589e-07
1.35696e-07
-8.42472e-07
1.21665e-07
-8.59067e-07
1.06963e-07
-8.73285e-07
9.16708e-08
-8.8505e-07
7.58689e-08
-8.94298e-07
5.96406e-08
-9.00978e-07
4.30698e-08
-9.05052e-07
2.6242e-08
-9.06494e-07
9.24402e-09
-9.05292e-07
-7.83634e-09
-9.01448e-07
-2.491e-08
-8.94976e-07
-4.18867e-08
-8.85905e-07
-5.86754e-08
-8.74276e-07
-7.51842e-08
-8.60147e-07
-9.13206e-08
-8.43586e-07
-1.06992e-07
-8.24677e-07
-1.22105e-07
-8.03518e-07
-1.36566e-07
-7.80219e-07
-1.50285e-07
-7.54905e-07
-1.63169e-07
-7.27713e-07
-1.75129e-07
-6.98794e-07
-1.86077e-07
-6.6831e-07
-1.95929e-07
-6.36437e-07
-2.04602e-07
-6.03359e-07
-2.12019e-07
-5.69274e-07
-2.18107e-07
-5.34387e-07
-2.228e-07
-4.98913e-07
-2.26035e-07
-4.63073e-07
-2.27762e-07
-4.27094e-07
-2.27935e-07
-3.9121e-07
-2.2652e-07
-3.55655e-07
-2.23496e-07
-3.20665e-07
-2.18851e-07
-2.86475e-07
-2.12591e-07
-2.53318e-07
-2.04737e-07
-2.21419e-07
-1.95328e-07
-1.90997e-07
-1.84426e-07
-1.6226e-07
-1.72113e-07
-1.35404e-07
-1.58503e-07
-1.10608e-07
-1.43736e-07
-8.80341e-08
-1.2799e-07
-6.78234e-08
-1.1148e-07
-5.00966e-08
-9.4469e-08
-3.49516e-08
-7.72697e-08
-2.24642e-08
-6.02536e-08
-1.26903e-08
-4.38586e-08
-5.66886e-09
-2.85937e-08
-1.42889e-09
-1.50455e-08
-3.92021e-09
-1.7595e-09
6.29106e-09
-6.89299e-09
2.18344e-08
-1.52774e-08
3.94779e-08
-2.67974e-08
5.85131e-08
-4.13358e-08
7.83509e-08
-5.87676e-08
9.84806e-08
-7.89558e-08
1.18466e-07
-1.0175e-07
1.37938e-07
-1.26983e-07
1.56591e-07
-1.54477e-07
1.74174e-07
-1.84038e-07
1.90481e-07
-2.15459e-07
2.05352e-07
-2.48526e-07
2.18661e-07
-2.83014e-07
2.30314e-07
-3.18694e-07
2.40245e-07
-3.5533e-07
2.48411e-07
-3.92687e-07
2.54791e-07
-4.30525e-07
2.59379e-07
-4.68611e-07
2.62186e-07
-5.06708e-07
2.63234e-07
-5.44589e-07
2.62559e-07
-5.82028e-07
2.60202e-07
-6.18807e-07
2.56216e-07
-6.54715e-07
2.50658e-07
-6.89549e-07
2.43593e-07
-7.23116e-07
2.35088e-07
-7.55231e-07
2.25217e-07
-7.85719e-07
2.14057e-07
-8.14416e-07
2.01686e-07
-8.4117e-07
1.88188e-07
-8.65838e-07
1.73647e-07
-8.88292e-07
1.5815e-07
-9.08412e-07
1.41786e-07
-9.26094e-07
1.24646e-07
-9.41245e-07
1.06822e-07
-9.53785e-07
8.84084e-08
-9.63646e-07
6.95015e-08
-9.70774e-07
5.01983e-08
-9.7513e-07
3.05979e-08
-9.76686e-07
1.08004e-08
-9.7543e-07
-9.09225e-09
-9.71363e-07
-2.89771e-08
-9.645e-07
-4.87497e-08
-9.54871e-07
-6.83048e-08
-9.42519e-07
-8.75361e-08
-9.27503e-07
-1.06337e-07
-9.09896e-07
-1.24599e-07
-8.89784e-07
-1.42216e-07
-8.67271e-07
-1.5908e-07
-8.42472e-07
-1.75084e-07
-8.15516e-07
-1.90125e-07
-7.86548e-07
-2.04097e-07
-7.55726e-07
-2.16899e-07
-7.23219e-07
-2.28435e-07
-6.89212e-07
-2.3861e-07
-6.53898e-07
-2.47333e-07
-6.17483e-07
-2.54522e-07
-5.80185e-07
-2.60098e-07
-5.42226e-07
-2.63994e-07
-5.03841e-07
-2.66147e-07
-4.65269e-07
-2.66507e-07
-4.26754e-07
-2.65035e-07
-3.88544e-07
-2.61706e-07
-3.50888e-07
-2.56507e-07
-3.14034e-07
-2.49445e-07
-2.78229e-07
-2.40542e-07
-2.43713e-07
-2.29844e-07
-2.10719e-07
-2.17419e-07
-1.79473e-07
-2.0336e-07
-1.50186e-07
-1.8779e-07
-1.23056e-07
-1.70866e-07
-9.82654e-08
-1.52781e-07
-7.59768e-08
-1.33769e-07
-5.63356e-08
-1.1411e-07
-3.94671e-08
-9.41381e-08
-2.54787e-08
-7.42421e-08
-1.44611e-08
-5.48762e-08
-6.49298e-09
-3.65618e-08
-1.64704e-09
-1.98914e-08
-5.56726e-09
-1.97634e-09
8.2674e-09
-7.71446e-09
2.75725e-08
-1.70452e-08
4.88087e-08
-2.98096e-08
7.12774e-08
-4.58497e-08
9.43909e-08
-6.50035e-08
1.17634e-07
-8.7101e-08
1.40563e-07
-1.11962e-07
1.62799e-07
-1.39394e-07
1.84024e-07
-1.69195e-07
2.03975e-07
-2.0115e-07
2.22436e-07
-2.35035e-07
2.39237e-07
-2.70617e-07
2.54243e-07
-3.07656e-07
2.67353e-07
-3.45907e-07
2.78497e-07
-3.85124e-07
2.87628e-07
-4.25056e-07
2.94723e-07
-4.65453e-07
2.99777e-07
-5.06069e-07
3.02801e-07
-5.46658e-07
3.03823e-07
-5.8698e-07
3.02881e-07
-6.26801e-07
3.00023e-07
-6.65893e-07
2.95308e-07
-7.04036e-07
2.88801e-07
-7.41019e-07
2.80575e-07
-7.76638e-07
2.70708e-07
-8.10703e-07
2.59282e-07
-8.43031e-07
2.46384e-07
-8.73451e-07
2.32106e-07
-9.01803e-07
2.16541e-07
-9.27942e-07
1.99785e-07
-9.5173e-07
1.81938e-07
-9.73046e-07
1.63101e-07
-9.91779e-07
1.43379e-07
-1.00783e-06
1.22875e-07
-1.02112e-06
1.01699e-07
-1.03158e-06
7.99587e-08
-1.03915e-06
5.77662e-08
-1.04378e-06
3.5234e-08
-1.04546e-06
1.24768e-08
-1.04416e-06
-1.03893e-08
-1.03989e-06
-3.32468e-08
-1.03267e-06
-5.59766e-08
-1.02251e-06
-7.84585e-08
-1.00948e-06
-1.00571e-07
-9.93621e-07
-1.22193e-07
-9.75019e-07
-1.43201e-07
-9.53762e-07
-1.63473e-07
-9.29955e-07
-1.82887e-07
-9.03718e-07
-2.01321e-07
-8.75187e-07
-2.18655e-07
-8.44512e-07
-2.34772e-07
-8.11855e-07
-2.49556e-07
-7.77395e-07
-2.62895e-07
-7.41322e-07
-2.74683e-07
-7.03838e-07
-2.84816e-07
-6.65159e-07
-2.93201e-07
-6.2551e-07
-2.99748e-07
-5.85126e-07
-3.04378e-07
-5.4425e-07
-3.07023e-07
-5.03133e-07
-3.07624e-07
-4.6203e-07
-3.06137e-07
-4.21203e-07
-3.02533e-07
-3.80912e-07
-2.96798e-07
-3.41421e-07
-2.88936e-07
-3.02988e-07
-2.78975e-07
-2.65871e-07
-2.66962e-07
-2.30317e-07
-2.52972e-07
-1.9657e-07
-2.37107e-07
-1.64858e-07
-2.19502e-07
-1.35399e-07
-2.00325e-07
-1.08395e-07
-1.79784e-07
-8.4035e-08
-1.58129e-07
-6.24879e-08
-1.35657e-07
-4.39078e-08
-1.12718e-07
-2.84333e-08
-8.97166e-08
-1.61898e-08
-6.71197e-08
-7.29357e-09
-4.54581e-08
-1.85746e-09
-2.53275e-08
-7.42473e-09
-2.18561e-09
1.0453e-08
-8.51133e-09
3.38982e-08
-1.87666e-08
5.9064e-08
-3.27518e-08
8.52626e-08
-5.02704e-08
1.1191e-07
-7.11247e-08
1.38489e-07
-9.51118e-08
1.6455e-07
-1.22022e-07
1.89709e-07
-1.51636e-07
2.13638e-07
-1.83727e-07
2.36066e-07
-2.1806e-07
2.56768e-07
-2.54389e-07
2.75566e-07
-2.92464e-07
2.92318e-07
-3.3203e-07
3.06919e-07
-3.72827e-07
3.19294e-07
-4.14592e-07
3.29394e-07
-4.57065e-07
3.37195e-07
-4.99983e-07
3.42694e-07
-5.43086e-07
3.45905e-07
-5.86121e-07
3.46858e-07
-6.28837e-07
3.45596e-07
-6.70989e-07
3.42175e-07
-7.12341e-07
3.3666e-07
-7.52665e-07
3.29125e-07
-7.91741e-07
3.19651e-07
-8.2936e-07
3.08326e-07
-8.65321e-07
2.95243e-07
-8.99436e-07
2.805e-07
-9.31529e-07
2.64199e-07
-9.61434e-07
2.46446e-07
-9.88999e-07
2.2735e-07
-1.01408e-06
2.07022e-07
-1.03656e-06
1.85578e-07
-1.05631e-06
1.63133e-07
-1.07325e-06
1.39807e-07
-1.08727e-06
1.15722e-07
-1.09831e-06
9.10004e-08
-1.10631e-06
6.57678e-08
-1.11123e-06
4.01514e-08
-1.11303e-06
1.42806e-08
-1.11171e-06
-1.17138e-08
-1.10726e-06
-3.76991e-08
-1.09969e-06
-6.35413e-08
-1.08905e-06
-8.91046e-08
-1.07537e-06
-1.14253e-07
-1.05871e-06
-1.38848e-07
-1.03916e-06
-1.62752e-07
-1.01681e-06
-1.85826e-07
-9.91759e-07
-2.07934e-07
-9.64141e-07
-2.28939e-07
-9.34093e-07
-2.48704e-07
-9.01768e-07
-2.67097e-07
-8.67336e-07
-2.83988e-07
-8.30981e-07
-2.99251e-07
-7.929e-07
-3.12764e-07
-7.53302e-07
-3.24414e-07
-7.12412e-07
-3.34091e-07
-6.70462e-07
-3.41697e-07
-6.27698e-07
-3.47142e-07
-5.84373e-07
-3.50348e-07
-5.40747e-07
-3.51249e-07
-4.9709e-07
-3.49795e-07
-4.53673e-07
-3.4595e-07
-4.10771e-07
-3.397e-07
-3.68659e-07
-3.31048e-07
-3.27613e-07
-3.20021e-07
-2.87904e-07
-3.06671e-07
-2.49798e-07
-2.91078e-07
-2.13553e-07
-2.73352e-07
-1.79419e-07
-2.53636e-07
-1.47635e-07
-2.3211e-07
-1.18424e-07
-2.08995e-07
-9.19982e-08
-1.84555e-07
-6.85545e-08
-1.59101e-07
-4.82755e-08
-1.32997e-07
-3.13307e-08
-1.06661e-07
-1.78792e-08
-8.05713e-08
-8.07262e-09
-5.52646e-08
-2.06102e-09
-3.13391e-08
-9.48576e-09
-2.38818e-09
1.28412e-08
-9.28594e-09
4.0796e-08
-2.04451e-08
7.02232e-08
-3.56282e-08
1.00446e-07
-5.46024e-08
1.30884e-07
-7.71352e-08
1.61022e-07
-1.02992e-07
1.90407e-07
-1.31932e-07
2.18649e-07
-1.63711e-07
2.45417e-07
-1.98076e-07
2.70431e-07
-2.34769e-07
2.93461e-07
-2.73526e-07
3.14322e-07
-3.14076e-07
3.32869e-07
-3.56149e-07
3.48992e-07
-3.99468e-07
3.62613e-07
-4.43758e-07
3.73683e-07
-4.88742e-07
3.8218e-07
-5.34149e-07
3.88101e-07
-5.79707e-07
3.91463e-07
-6.2515e-07
3.92302e-07
-6.70219e-07
3.90666e-07
-7.14661e-07
3.86617e-07
-7.58231e-07
3.8023e-07
-8.00691e-07
3.71586e-07
-8.41815e-07
3.60776e-07
-8.81387e-07
3.47898e-07
-9.192e-07
3.33056e-07
-9.5506e-07
3.1636e-07
-9.88785e-07
2.97924e-07
-1.0202e-06
2.77865e-07
-1.04916e-06
2.56306e-07
-1.07551e-06
2.3337e-07
-1.09912e-06
2.09187e-07
-1.11987e-06
1.83886e-07
-1.13766e-06
1.576e-07
-1.15241e-06
1.30465e-07
-1.16402e-06
1.02619e-07
-1.17246e-06
7.4201e-08