/*--------------------------------*- C++ -*----------------------------------*\
| =========                 |                                                 |
| \\      /  F ield         | OpenFOAM: The Open Source CFD Toolbox           |
|  \\    /   O peration     | Version:  2506                                  |
|   \\  /    A nd           | Website:  www.openfoam.com                      |
|    \\/     M anipulation  |                                                 |
\*---------------------------------------------------------------------------*/
FoamFile
{
    version     2.0;
    format      ascii;
    arch        "LSB;label=32;scalar=64";
    class       volVectorField;
    location    "0.775";
    object      U;
}
// * * * * * * * * * * * * * * * * * * * * * * * * * * * * * * * * * * * * * //

dimensions      [0 1 -1 0 0 0 0];

internalField   nonuniform List<vector> 
6400
(
(7.2618e-06 -7.24591e-06 0)
(2.98385e-05 -1.44457e-05 0)
(5.93515e-05 -1.41806e-05 0)
(8.06782e-05 -9.73997e-06 0)
(8.5533e-05 -3.43057e-06 0)
(7.06632e-05 3.54367e-06 0)
(3.49428e-05 1.05674e-05 0)
(-2.15973e-05 1.73211e-05 0)
(-9.82031e-05 2.36421e-05 0)
(-0.000193685 2.9449e-05 0)
(-0.000306598 3.47036e-05 0)
(-0.000435342 3.9391e-05 0)
(-0.000578237 4.35097e-05 0)
(-0.000733561 4.70664e-05 0)
(-0.000899586 5.00731e-05 0)
(-0.00107459 5.25448e-05 0)
(-0.00125689 5.44989e-05 0)
(-0.00144484 5.59539e-05 0)
(-0.00163681 5.69292e-05 0)
(-0.00183127 5.7445e-05 0)
(-0.00202672 5.75217e-05 0)
(-0.00222171 5.71798e-05 0)
(-0.00241488 5.644e-05 0)
(-0.00260491 5.53229e-05 0)
(-0.00279056 5.38489e-05 0)
(-0.00297064 5.20384e-05 0)
(-0.00314405 4.99118e-05 0)
(-0.00330973 4.74891e-05 0)
(-0.00346671 4.47903e-05 0)
(-0.00361408 4.18355e-05 0)
(-0.00375098 3.86444e-05 0)
(-0.00387664 3.52371e-05 0)
(-0.00399036 3.16335e-05 0)
(-0.00409149 2.78538e-05 0)
(-0.00417947 2.3918e-05 0)
(-0.0042538 1.98468e-05 0)
(-0.00431406 1.56608e-05 0)
(-0.00435988 1.13812e-05 0)
(-0.00439099 7.0294e-06 0)
(-0.00440719 2.62721e-06 0)
(-0.00440834 -1.80304e-06 0)
(-0.00439439 -6.23861e-06 0)
(-0.00436538 -1.06562e-05 0)
(-0.00432142 -1.50322e-05 0)
(-0.00426269 -1.93423e-05 0)
(-0.00418947 -2.35619e-05 0)
(-0.00410213 -2.76658e-05 0)
(-0.00400111 -3.16287e-05 0)
(-0.00388694 -3.54247e-05 0)
(-0.00376024 -3.9028e-05 0)
(-0.00362172 -4.24123e-05 0)
(-0.00347218 -4.55514e-05 0)
(-0.00331249 -4.84193e-05 0)
(-0.00314364 -5.09901e-05 0)
(-0.00296667 -5.32381e-05 0)
(-0.00278271 -5.51381e-05 0)
(-0.002593 -5.66658e-05 0)
(-0.00239881 -5.77972e-05 0)
(-0.00220153 -5.85097e-05 0)
(-0.00200259 -5.87815e-05 0)
(-0.00180349 -5.85922e-05 0)
(-0.0016058 -5.79226e-05 0)
(-0.00141113 -5.67555e-05 0)
(-0.00122114 -5.50752e-05 0)
(-0.00103752 -5.28684e-05 0)
(-0.000862 -5.01239e-05 0)
(-0.000696307 -4.68335e-05 0)
(-0.000542173 -4.29924e-05 0)
(-0.000401308 -3.86004e-05 0)
(-0.000275376 -3.36633e-05 0)
(-0.000165964 -2.81963e-05 0)
(-7.45327e-05 -2.22289e-05 0)
(-2.35192e-06 -1.58151e-05 0)
(4.96088e-05 -9.05264e-06 0)
(8.08547e-05 -2.12097e-06 0)
(9.16509e-05 4.64549e-06 0)
(8.34446e-05 1.06212e-05 0)
(5.98049e-05 1.46091e-05 0)
(2.92504e-05 1.43633e-05 0)
(6.8761e-06 6.87412e-06 0)
(1.4471e-05 -2.98113e-05 0)
(5.16015e-05 -5.15093e-05 0)
(8.99032e-05 -4.40935e-05 0)
(0.000103653 -1.91116e-05 0)
(7.71317e-05 1.53135e-05 0)
(2.47698e-06 5.41469e-05 0)
(-0.000124015 9.43057e-05 0)
(-0.000303262 0.000133898 0)
(-0.00053422 0.000171764 0)
(-0.000814523 0.000207185 0)
(-0.00114093 0.000239724 0)
(-0.00150963 0.00026912 0)
(-0.00191643 0.000295226 0)
(-0.00235693 0.000317977 0)
(-0.00282661 0.000337362 0)
(-0.0033209 0.000353411 0)
(-0.00383526 0.000366178 0)
(-0.00436521 0.000375742 0)
(-0.00490633 0.000382193 0)
(-0.00545436 0.000385636 0)
(-0.00600513 0.000386183 0)
(-0.00655465 0.00038395 0)
(-0.00709906 0.000379062 0)
(-0.00763468 0.000371642 0)
(-0.00815801 0.000361821 0)
(-0.00866571 0.000349726 0)
(-0.00915464 0.000335491 0)
(-0.00962182 0.000319247 0)
(-0.0100645 0.000301127 0)
(-0.01048 0.000281264 0)
(-0.0108661 0.000259795 0)
(-0.0112204 0.000236854 0)
(-0.011541 0.000212578 0)
(-0.011826 0.000187106 0)
(-0.012074 0.000160577 0)
(-0.0122833 0.000133131 0)
(-0.0124529 0.000104914 0)
(-0.0125817 7.60689e-05 0)
(-0.012669 4.67455e-05 0)
(-0.0127141 1.70938e-05 0)
(-0.0127168 -1.27328e-05 0)
(-0.0126769 -4.25782e-05 0)
(-0.0125946 -7.22834e-05 0)
(-0.01247 -0.000101687 0)
(-0.0123039 -0.000130624 0)
(-0.0120969 -0.000158928 0)
(-0.0118502 -0.000186429 0)
(-0.011565 -0.000212958 0)
(-0.0112428 -0.000238342 0)
(-0.0108855 -0.000262408 0)
(-0.0104949 -0.000284982 0)
(-0.0100735 -0.000305894 0)
(-0.00962366 -0.000324971 0)
(-0.00914813 -0.000342045 0)
(-0.00864989 -0.00035695 0)
(-0.00813215 -0.000369526 0)
(-0.00759831 -0.000379618 0)
(-0.00705201 -0.000387075 0)
(-0.00649706 -0.000391759 0)
(-0.00593748 -0.000393538 0)
(-0.00537744 -0.000392292 0)
(-0.00482125 -0.000387914 0)
(-0.00427337 -0.000380311 0)
(-0.00373834 -0.000369408 0)
(-0.00322078 -0.00035515 0)
(-0.00272535 -0.000337506 0)
(-0.00225668 -0.000316472 0)
(-0.00181935 -0.000292081 0)
(-0.00141784 -0.000264411 0)
(-0.00105639 -0.0002336 0)
(-0.000738942 -0.000199869 0)
(-0.000468955 -0.00016356 0)
(-0.000249229 -0.000125191 0)
(-8.1593e-05 -8.5552e-05 0)
(3.35244e-05 -4.58739e-05 0)
(9.7714e-05 -8.0946e-06 0)
(0.000115363 2.46971e-05 0)
(9.49498e-05 4.75473e-05 0)
(5.26589e-05 5.2611e-05 0)
(1.43606e-05 2.92269e-05 0)
(1.43049e-05 -5.94458e-05 0)
(4.46162e-05 -8.99446e-05 0)
(6.13527e-05 -6.05033e-05 0)
(3.5693e-05 6.71713e-06 0)
(-5.0742e-05 9.62926e-05 0)
(-0.000208177 0.00019756 0)
(-0.000441948 0.000303283 0)
(-0.000753765 0.000408617 0)
(-0.0011426 0.000510338 0)
(-0.00160543 0.000606299 0)
(-0.00213784 0.000695083 0)
(-0.00273445 0.000775775 0)
(-0.00338919 0.000847803 0)
(-0.00409555 0.000910846 0)
(-0.00484675 0.000964759 0)
(-0.00563589 0.00100953 0)
(-0.00645603 0.00104523 0)
(-0.00730024 0.00107202 0)
(-0.00816172 0.00109012 0)
(-0.00903381 0.00109976 0)
(-0.00991 0.00110124 0)
(-0.010784 0.00109485 0)
(-0.0116498 0.00108093 0)
(-0.0125015 0.00105981 0)
(-0.0133337 0.00103185 0)
(-0.0141409 0.000997407 0)
(-0.0149183 0.000956845 0)
(-0.0156611 0.000910536 0)
(-0.0163648 0.000858858 0)
(-0.0170255 0.000802192 0)
(-0.0176391 0.000740921 0)
(-0.0182023 0.000675435 0)
(-0.0187118 0.000606126 0)
(-0.0191648 0.000533392 0)
(-0.0195586 0.000457634 0)
(-0.0198911 0.000379261 0)
(-0.0201603 0.000298686 0)
(-0.0203646 0.000216329 0)
(-0.0205028 0.000132616 0)
(-0.020574 4.79821e-05 0)
(-0.0205777 -3.7132e-05 0)
(-0.0205137 -0.000122277 0)
(-0.0203821 -0.000206997 0)
(-0.0201835 -0.000290827 0)
(-0.0199188 -0.000373298 0)
(-0.0195894 -0.000453932 0)
(-0.0191968 -0.000532248 0)
(-0.0187431 -0.000607759 0)
(-0.0182308 -0.000679978 0)
(-0.0176627 -0.000748413 0)
(-0.017042 -0.000812575 0)
(-0.0163723 -0.000871979 0)
(-0.0156575 -0.000926145 0)
(-0.0149021 -0.000974598 0)
(-0.0141108 -0.00101688 0)
(-0.0132885 -0.00105254 0)
(-0.0124407 -0.00108115 0)
(-0.0115731 -0.0011023 0)
(-0.0106917 -0.00111561 0)
(-0.00980281 -0.00112073 0)
(-0.00891297 -0.00111734 0)
(-0.00802891 -0.00110517 0)
(-0.00715755 -0.00108398 0)
(-0.00630596 -0.0010536 0)
(-0.00548125 -0.00101392 0)
(-0.00469058 -0.000964919 0)
(-0.00394102 -0.000906644 0)
(-0.00323951 -0.000839275 0)
(-0.00259272 -0.000763136 0)
(-0.00200693 -0.000678737 0)
(-0.00148784 -0.000586844 0)
(-0.00104034 -0.000488573 0)
(-0.000668206 -0.000385532 0)
(-0.000373688 -0.000280043 0)
(-0.000156963 -0.000175474 0)
(-1.54009e-05 -7.67457e-05 0)
(5.72485e-05 8.93618e-06 0)
(7.20214e-05 7.11357e-05 0)
(4.80226e-05 9.50129e-05 0)
(1.46907e-05 5.98439e-05 0)
(1.00663e-05 -8.12455e-05 0)
(2.04408e-05 -0.000104464 0)
(-4.23949e-06 -3.52035e-05 0)
(-9.07736e-05 9.36964e-05 0)
(-0.00025732 0.000259461 0)
(-0.000514833 0.000445532 0)
(-0.000869227 0.000640038 0)
(-0.00132246 0.000834613 0)
(-0.00187337 0.0010234 0)
(-0.00251843 0.00120231 0)
(-0.00325235 0.00136854 0)
(-0.00406853 0.00152017 0)
(-0.00495942 0.00165595 0)
(-0.00591686 0.0017751 0)
(-0.00693223 0.00187722 0)
(-0.00799667 0.00196215 0)
(-0.00910122 0.00202995 0)
(-0.0102369 0.00208084 0)
(-0.0113948 0.00211513 0)
(-0.0125663 0.00213327 0)
(-0.0137426 0.00213573 0)
(-0.0149156 0.00212309 0)
(-0.0160773 0.00209592 0)
(-0.0172198 0.00205487 0)
(-0.0183359 0.00200058 0)
(-0.0194184 0.00193375 0)
(-0.0204608 0.00185506 0)
(-0.0214567 0.00176524 0)
(-0.0224001 0.00166499 0)
(-0.0232857 0.00155507 0)
(-0.0241082 0.0014362 0)
(-0.024863 0.00130915 0)
(-0.0255457 0.00117469 0)
(-0.0261525 0.00103357 0)
(-0.02668 0.000886589 0)
(-0.0271252 0.000734541 0)
(-0.0274855 0.00057823 0)
(-0.0277588 0.000418477 0)
(-0.0279434 0.000256113 0)
(-0.0280383 9.19847e-05 0)
(-0.0280426 -7.30479e-05 0)
(-0.0279561 -0.000238111 0)
(-0.0277791 -0.000402316 0)
(-0.0275124 -0.000564763 0)
(-0.0271571 -0.000724539 0)
(-0.0267151 -0.000880719 0)
(-0.0261885 -0.00103237 0)
(-0.0255802 -0.00117856 0)
(-0.0248935 -0.00131833 0)
(-0.024132 -0.00145075 0)
(-0.0233002 -0.00157487 0)
(-0.0224029 -0.00168977 0)
(-0.0214453 -0.00179452 0)
(-0.0204332 -0.00188821 0)
(-0.019373 -0.00196998 0)
(-0.0182713 -0.00203896 0)
(-0.0171354 -0.00209436 0)
(-0.0159728 -0.00213539 0)
(-0.0147914 -0.00216136 0)
(-0.0135997 -0.0021716 0)
(-0.0124062 -0.00216554 0)
(-0.0112197 -0.00214269 0)
(-0.0100494 -0.00210264 0)
(-0.00890458 -0.00204512 0)
(-0.00779438 -0.00196999 0)
(-0.00672813 -0.00187725 0)
(-0.00571495 -0.00176711 0)
(-0.00476374 -0.00164001 0)
(-0.00388297 -0.0014967 0)
(-0.00308055 -0.00133827 0)
(-0.00236354 -0.00116634 0)
(-0.00173795 -0.000983173 0)
(-0.00120829 -0.000791911 0)
(-0.00077717 -0.000596935 0)
(-0.000444718 -0.000404328 0)
(-0.000207875 -0.00022257 0)
(-5.96305e-05 -6.34574e-05 0)
(1.19694e-05 5.68143e-05 0)
(2.61395e-05 0.000116298 0)
(1.09147e-05 8.39132e-05 0)
(4.0262e-06 -8.71089e-05 0)
(-1.29959e-05 -7.96051e-05 0)
(-9.19832e-05 4.99555e-05 0)
(-0.000254044 0.000259801 0)
(-0.000515034 0.000520519 0)
(-0.00088541 0.000810038 0)
(-0.00137075 0.00111195 0)
(-0.00197268 0.00141425 0)
(-0.00268961 0.00170822 0)
(-0.00351744 0.00198757 0)
(-0.00445005 0.00224781 0)
(-0.00547984 0.00248579 0)
(-0.00659804 0.00269935 0)
(-0.0077951 0.0028871 0)
(-0.00906088 0.00304822 0)
(-0.0103849 0.00318234 0)
(-0.0117564 0.00328941 0)
(-0.0131648 0.00336968 0)
(-0.0145993 0.00342357 0)
(-0.0160493 0.00345168 0)
(-0.0175045 0.00345475 0)
(-0.0189548 0.0034336 0)
(-0.0203905 0.00338915 0)
(-0.0218022 0.00332238 0)
(-0.0231807 0.00323432 0)
(-0.0245176 0.00312604 0)
(-0.0258046 0.00299864 0)
(-0.027034 0.00285327 0)
(-0.0281985 0.00269107 0)
(-0.0292914 0.00251324 0)
(-0.0303063 0.00232096 0)
(-0.0312375 0.00211545 0)
(-0.0320797 0.00189796 0)
(-0.0328282 0.00166973 0)
(-0.0334787 0.00143203 0)
(-0.0340275 0.00118614 0)
(-0.0344715 0.000933393 0)
(-0.0348081 0.000675099 0)
(-0.0350353 0.000412613 0)
(-0.0351517 0.000147308 0)
(-0.0351564 -0.000119423 0)
(-0.0350491 -0.000386164 0)
(-0.0348302 -0.000651479 0)
(-0.0345006 -0.00091391 0)
(-0.0340618 -0.00117198 0)
(-0.0335161 -0.00142421 0)
(-0.0328661 -0.00166908 0)
(-0.0321154 -0.00190509 0)
(-0.031268 -0.00213071 0)
(-0.0303285 -0.00234444 0)
(-0.0293023 -0.00254477 0)
(-0.0281953 -0.00273019 0)
(-0.0270139 -0.00289926 0)
(-0.0257654 -0.00305051 0)
(-0.0244573 -0.00318256 0)
(-0.0230979 -0.00329407 0)
(-0.021696 -0.00338374 0)
(-0.0202608 -0.00345038 0)
(-0.018802 -0.00349288 0)
(-0.0173298 -0.00351022 0)
(-0.0158545 -0.00350152 0)
(-0.0143869 -0.00346604 0)
(-0.0129381 -0.00340321 0)
(-0.011519 -0.00331264 0)
(-0.0101409 -0.0031942 0)
(-0.00881478 -0.00304799 0)
(-0.00755159 -0.00287446 0)
(-0.00636184 -0.00267443 0)
(-0.00525552 -0.00244922 0)
(-0.00424189 -0.00220072 0)
(-0.00332918 -0.00193164 0)
(-0.00252431 -0.00164563 0)
(-0.00183253 -0.00134769 0)
(-0.0012569 -0.00104454 0)
(-0.000797841 -0.000745228 0)
(-0.000452483 -0.000461907 0)
(-0.000213973 -0.000210902 0)
(-7.06502e-05 -1.3838e-05 0)
(-5.23263e-06 0.000100835 0)
(5.2663e-06 9.32145e-05 0)
(-2.66446e-06 -7.38292e-05 0)
(-5.0943e-05 -7.42191e-06 0)
(-0.00019196 0.000205523 0)
(-0.000438968 0.000516593 0)
(-0.00080409 0.000890826 0)
(-0.00129634 0.00130128 0)
(-0.0019202 0.00172737 0)
(-0.00267642 0.00215356 0)
(-0.00356263 0.00256827 0)
(-0.00457396 0.00296288 0)
(-0.00570346 0.00333108 0)
(-0.00694254 0.00366831 0)
(-0.00828136 0.00397136 0)
(-0.00970915 0.00423808 0)
(-0.0112145 0.00446715 0)
(-0.0127854 0.00465785 0)
(-0.0144098 0.00480999 0)
(-0.0160754 0.00492378 0)
(-0.0177699 0.00499973 0)
(-0.0194812 0.00503862 0)
(-0.0211973 0.00504141 0)
(-0.0229067 0.00500924 0)
(-0.0245979 0.00494337 0)
(-0.0262601 0.00484518 0)
(-0.0278829 0.00471611 0)
(-0.029456 0.00455771 0)
(-0.0309701 0.00437154 0)
(-0.0324162 0.00415923 0)
(-0.0337856 0.00392247 0)
(-0.0350706 0.00366295 0)
(-0.0362637 0.00338242 0)
(-0.0373582 0.00308264 0)
(-0.038348 0.0027654 0)
(-0.0392274 0.00243255 0)
(-0.0399916 0.00208592 0)
(-0.0406361 0.0017274 0)
(-0.0411575 0.00135889 0)
(-0.0415526 0.000982352 0)
(-0.0418191 0.000599741 0)
(-0.0419553 0.000213065 0)
(-0.0419603 -0.000175644 0)
(-0.0418338 -0.000564321 0)
(-0.041576 -0.000950872 0)
(-0.0411883 -0.00133318 0)
(-0.0406723 -0.00170909 0)
(-0.0400307 -0.00207644 0)
(-0.0392667 -0.00243305 0)
(-0.0383843 -0.00277672 0)
(-0.0373884 -0.00310526 0)
(-0.0362843 -0.00341648 0)
(-0.0350782 -0.00370819 0)
(-0.0337771 -0.00397824 0)
(-0.0323886 -0.00422452 0)
(-0.0309208 -0.00444495 0)
(-0.0293829 -0.00463753 0)
(-0.0277844 -0.00480035 0)
(-0.0261353 -0.00493157 0)
(-0.0244466 -0.00502948 0)
(-0.0227294 -0.00509252 0)
(-0.0209953 -0.00511926 0)
(-0.0192566 -0.00510851 0)
(-0.0175255 -0.00505924 0)
(-0.0158147 -0.0049707 0)
(-0.014137 -0.00484244 0)
(-0.0125051 -0.00467434 0)
(-0.0109317 -0.00446666 0)
(-0.00942915 -0.00422018 0)
(-0.00800943 -0.00393622 0)
(-0.00668386 -0.00361678 0)
(-0.00546287 -0.00326474 0)
(-0.00435575 -0.00288403 0)
(-0.00337035 -0.00247992 0)
(-0.00251266 -0.0020594 0)
(-0.00178644 -0.00163166 0)
(-0.00119277 -0.00120875 0)
(-0.000729509 -0.000806424 0)
(-0.000390729 -0.000445212 0)
(-0.000165985 -0.000151595 0)
(-4.1355e-05 4.04623e-05 0)
(-1.09631e-06 8.43901e-05 0)
(-9.4481e-06 -4.01611e-05 0)
(-9.06385e-05 0.000116275 0)
(-0.000297773 0.000437763 0)
(-0.000635239 0.000871391 0)
(-0.00111056 0.00137786 0)
(-0.0017306 0.00192616 0)
(-0.00249817 0.00249199 0)
(-0.00341264 0.00305663 0)
(-0.00447054 0.00360571 0)
(-0.00566598 0.00412833 0)
(-0.00699106 0.00461629 0)
(-0.00843619 0.00506358 0)
(-0.0099905 0.00546583 0)
(-0.0116421 0.00582006 0)
(-0.0133783 0.0061243 0)
(-0.0151861 0.00637748 0)
(-0.0170519 0.00657919 0)
(-0.018962 0.00672955 0)
(-0.020903 0.00682914 0)
(-0.0228612 0.00687889 0)
(-0.0248233 0.00688001 0)
(-0.0267763 0.00683397 0)
(-0.0287075 0.0067424 0)
(-0.0306046 0.0066071 0)
(-0.0324559 0.00642999 0)
(-0.03425 0.0062131 0)
(-0.0359762 0.00595855 0)
(-0.0376243 0.00566854 0)
(-0.0391848 0.0053453 0)
(-0.0406488 0.00499115 0)
(-0.0420078 0.00460845 0)
(-0.0432543 0.00419958 0)
(-0.0443813 0.003767 0)
(-0.0453825 0.00331319 0)
(-0.0462524 0.00284067 0)
(-0.046986 0.00235199 0)
(-0.0475792 0.00184978 0)
(-0.0480287 0.00133666 0)
(-0.0483317 0.000815338 0)
(-0.0484865 0.000288527 0)
(-0.0484918 -0.000240998 0)
(-0.0483474 -0.000770427 0)
(-0.0480537 -0.00129691 0)
(-0.0476121 -0.00181757 0)
(-0.0470245 -0.00232948 0)
(-0.046294 -0.00282971 0)
(-0.0454242 -0.00331529 0)
(-0.0444196 -0.00378325 0)
(-0.0432857 -0.00423062 0)
(-0.0420286 -0.00465443 0)
(-0.0406553 -0.00505174 0)
(-0.0391736 -0.00541965 0)
(-0.0375921 -0.0057553 0)
(-0.0359201 -0.00605592 0)
(-0.0341678 -0.00631881 0)
(-0.0323458 -0.00654141 0)
(-0.0304657 -0.00672127 0)
(-0.0285394 -0.00685613 0)
(-0.0265796 -0.00694392 0)
(-0.0245994 -0.00698277 0)
(-0.0226123 -0.00697112 0)
(-0.0206322 -0.00690767 0)
(-0.0186731 -0.00679149 0)
(-0.0167493 -0.00662206 0)
(-0.0148749 -0.00639933 0)
(-0.013064 -0.00612378 0)
(-0.0113304 -0.00579657 0)
(-0.00968733 -0.00541959 0)
(-0.00814721 -0.00499567 0)
(-0.00672164 -0.00452874 0)
(-0.00542094 -0.00402408 0)
(-0.00425391 -0.00348867 0)
(-0.00322746 -0.00293155 0)
(-0.00234626 -0.00236439 0)
(-0.0016124 -0.00180215 0)
(-0.00102498 -0.00126392 0)
(-0.000579556 -0.00077399 0)
(-0.000267602 -0.00036298 0)
(-7.94277e-05 -6.9237e-05 0)
(-7.59808e-06 5.60665e-05 0)
(-1.60636e-05 1.41548e-05 0)
(-0.000130519 0.000293317 0)
(-0.000405445 0.000749949 0)
(-0.000836094 0.00132838 0)
(-0.00142494 0.00198614 0)
(-0.00217627 0.00268895 0)
(-0.00309075 0.00340942 0)
(-0.00416598 0.00412595 0)
(-0.00539707 0.00482166 0)
(-0.00677692 0.00548346 0)
(-0.00829649 0.00610136 0)
(-0.00994513 0.00666782 0)
(-0.0117109 0.00717734 0)
(-0.0135808 0.00762599 0)
(-0.0155412 0.0080112 0)
(-0.0175776 0.00833143 0)
(-0.0196755 0.00858601 0)
(-0.02182 0.00877498 0)
(-0.0239962 0.00889894 0)
(-0.0261895 0.00895898 0)
(-0.0283851 0.00895656 0)
(-0.0305689 0.00889346 0)
(-0.0327269 0.00877172 0)
(-0.0348457 0.00859359 0)
(-0.0369123 0.00836151 0)
(-0.0389143 0.00807806 0)
(-0.0408398 0.00774593 0)
(-0.0426777 0.00736792 0)
(-0.0444174 0.00694694 0)
(-0.0460491 0.00648596 0)
(-0.0475635 0.005988 0)
(-0.0489523 0.00545618 0)
(-0.0502078 0.00489364 0)
(-0.0513229 0.00430362 0)
(-0.0522916 0.00368938 0)
(-0.0531085 0.00305425 0)
(-0.053769 0.0024016 0)
(-0.0542694 0.00173487 0)
(-0.0546067 0.00105753 0)
(-0.0547789 0.000373147 0)
(-0.0547847 -0.000314705 0)
(-0.0546239 -0.00100238 0)
(-0.0542969 -0.00168618 0)
(-0.0538052 -0.00236238 0)
(-0.0531511 -0.0030272 0)
(-0.0523377 -0.00367683 0)
(-0.0513693 -0.00430745 0)
(-0.0502508 -0.00491523 0)
(-0.0489881 -0.00549632 0)
(-0.0475881 -0.0060469 0)
(-0.0460585 -0.00656318 0)
(-0.0444079 -0.00704143 0)
(-0.0426457 -0.00747799 0)
(-0.0407822 -0.00786929 0)
(-0.0388285 -0.00821189 0)
(-0.0367965 -0.0085025 0)
(-0.0346987 -0.00873803 0)
(-0.0325483 -0.00891559 0)
(-0.0303592 -0.00903256 0)
(-0.0281457 -0.00908662 0)
(-0.0259227 -0.0090758 0)
(-0.0237053 -0.00899852 0)
(-0.0215089 -0.00885368 0)
(-0.019349 -0.0086407 0)
(-0.0172412 -0.00835962 0)
(-0.0152007 -0.00801119 0)
(-0.0132424 -0.00759697 0)
(-0.0113809 -0.00711953 0)
(-0.00962982 -0.00658254 0)
(-0.00800174 -0.00599107 0)
(-0.00650806 -0.00535181 0)
(-0.00515864 -0.00467345 0)
(-0.00396146 -0.00396707 0)
(-0.00292236 -0.00324672 0)
(-0.00204473 -0.00253007 0)
(-0.00132932 -0.00183922 0)
(-0.000773614 -0.00120171 0)
(-0.000371454 -0.000651524 0)
(-0.000117842 -0.000230296 0)
(-1.39622e-05 7.88647e-06 0)
(-2.24013e-05 8.88214e-05 0)
(-0.000169737 0.000523998 0)
(-0.000512586 0.00114325 0)
(-0.00103723 0.00188946 0)
(-0.00174097 0.00271796 0)
(-0.00262522 0.00359203 0)
(-0.00368821 0.00448171 0)
(-0.0049255 0.00536297 0)
(-0.00633048 0.00621669 0)
(-0.00789462 0.00702779 0)
(-0.00960761 0.00778457 0)
(-0.0114576 0.00847807 0)
(-0.0134316 0.00910161 0)
(-0.0155155 0.00965039 0)
(-0.0176944 0.0101211 0)
(-0.019953 0.0105119 0)
(-0.0222756 0.0108217 0)
(-0.024646 0.0110504 0)
(-0.0270485 0.0111987 0)
(-0.029467 0.0112678 0)
(-0.0318859 0.0112595 0)
(-0.0342898 0.0111758 0)
(-0.0366637 0.0110193 0)
(-0.038993 0.0107925 0)
(-0.0412638 0.0104986 0)
(-0.0434626 0.0101407 0)
(-0.0455767 0.00972206 0)
(-0.0475939 0.00924621 0)
(-0.0495027 0.00871673 0)
(-0.0512926 0.00813731 0)
(-0.0529535 0.00751172 0)
(-0.0544763 0.00684385 0)
(-0.0558527 0.00613762 0)
(-0.0570751 0.00539707 0)
(-0.0581369 0.00462627 0)
(-0.0590322 0.00382939 0)
(-0.059756 0.00301065 0)
(-0.0603044 0.00217436 0)
(-0.0606742 0.00132486 0)
(-0.0608631 0.000466594 0)
(-0.0608698 -0.000395951 0)
(-0.0606939 -0.00125822 0)
(-0.060336 -0.0021156 0)
(-0.0597977 -0.00296342 0)
(-0.0590815 -0.00379698 0)
(-0.0581907 -0.00461152 0)
(-0.05713 -0.00540228 0)
(-0.0559048 -0.00616447 0)
(-0.0545214 -0.00689332 0)
(-0.0529872 -0.00758407 0)
(-0.0513107 -0.00823202 0)
(-0.0495011 -0.00883251 0)
(-0.0475687 -0.00938103 0)
(-0.0455245 -0.00987314 0)
(-0.0433806 -0.0103046 0)
(-0.0411497 -0.0106713 0)
(-0.0388455 -0.0109695 0)
(-0.0364822 -0.0111957 0)
(-0.0340747 -0.0113466 0)
(-0.0316386 -0.0114193 0)
(-0.0291898 -0.0114116 0)
(-0.0267447 -0.0113215 0)
(-0.0243198 -0.0111478 0)
(-0.0219319 -0.0108899 0)
(-0.0195976 -0.0105478 0)
(-0.0173335 -0.0101226 0)
(-0.0151556 -0.00961636 0)
(-0.0130796 -0.00903228 0)
(-0.0111202 -0.00837495 0)
(-0.00929114 -0.00765056 0)
(-0.00760502 -0.00686722 0)
(-0.0060728 -0.0060353 0)
(-0.00470372 -0.00516784 0)
(-0.00350498 -0.00428111 0)
(-0.00248159 -0.00339524 0)
(-0.00163619 -0.00253497 0)
(-0.000968534 -0.00173056 0)
(-0.000475095 -0.00101863 0)
(-0.000155712 -0.00044318 0)
(-2.00679e-05 -5.99244e-05 0)
(-2.84274e-05 0.000183263 0)
(-0.000207864 0.000807693 0)
(-0.000617832 0.00161745 0)
(-0.00123603 0.00255492 0)
(-0.00205464 0.00357404 0)
(-0.00307209 0.00463627 0)
(-0.00428399 0.00570968 0)
(-0.00568362 0.00676821 0)
(-0.00726249 0.0077908 0)
(-0.00901044 0.00876062 0)
(-0.0109157 0.00966441 0)
(-0.0129653 0.0104919 0)
(-0.0151448 0.0112353 0)
(-0.017439 0.0118889 0)
(-0.0198322 0.0124488 0)
(-0.0223077 0.0129126 0)
(-0.0248488 0.0132791 0)
(-0.0274384 0.0135479 0)
(-0.0300596 0.01372 0)
(-0.0326954 0.0137964 0)
(-0.0353291 0.0137794 0)
(-0.0379442 0.0136713 0)
(-0.0405249 0.013475 0)
(-0.0430556 0.0131938 0)
(-0.0455213 0.0128312 0)
(-0.0479077 0.012391 0)
(-0.0502012 0.0118772 0)
(-0.0523888 0.011294 0)
(-0.0544583 0.0106457 0)
(-0.0563983 0.00993673 0)
(-0.0581981 0.00917174 0)
(-0.0598479 0.00835538 0)
(-0.0613389 0.00749245 0)
(-0.062663 0.00658782 0)
(-0.063813 0.00564647 0)
(-0.0647826 0.00467345 0)
(-0.0655667 0.0036739 0)
(-0.0661608 0.00265305 0)
(-0.0665617 0.0016162 0)
(-0.0667667 0.000568735 0)
(-0.0667747 -0.000483885 0)
(-0.0665851 -0.00153612 0)
(-0.0661985 -0.00258237 0)
(-0.0656167 -0.00361696 0)
(-0.0648423 -0.00463419 0)
(-0.063879 -0.00562828 0)
(-0.0627316 -0.00659345 0)
(-0.061406 -0.0075239 0)
(-0.0599088 -0.00841386 0)
(-0.0582481 -0.00925756 0)
(-0.0564328 -0.0100493 0)
(-0.0544728 -0.0107835 0)
(-0.052379 -0.0114546 0)
(-0.0501633 -0.0120574 0)
(-0.0478385 -0.0125867 0)
(-0.0454182 -0.0130376 0)
(-0.0429169 -0.0134056 0)
(-0.0403499 -0.0136864 0)
(-0.0377331 -0.0138762 0)
(-0.035083 -0.0139716 0)
(-0.0324167 -0.0139698 0)
(-0.0297515 -0.0138686 0)
(-0.0271052 -0.0136665 0)
(-0.0244955 -0.013363 0)
(-0.0219403 -0.0129581 0)
(-0.0194572 -0.0124532 0)
(-0.0170635 -0.0118509 0)
(-0.0147759 -0.011155 0)
(-0.0126102 -0.010371 0)
(-0.0105815 -0.00950626 0)
(-0.0087034 -0.00857018 0)
(-0.00698829 -0.00757476 0)
(-0.00544676 -0.00653487 0)
(-0.0040876 -0.00546883 0)
(-0.00291761 -0.00439893 0)
(-0.00194156 -0.00335219 0)
(-0.00116165 -0.0023611 0)
(-0.00057712 -0.00146432 0)
(-0.000192589 -0.000707414 0)
(-2.58751e-05 -0.000146844 0)
(-3.41454e-05 0.000296788 0)
(-0.000244722 0.00114328 0)
(-0.000720476 0.00217152 0)
(-0.001431 0.00332401 0)
(-0.00236354 0.00455393 0)
(-0.00351352 0.00582148 0)
(-0.00487385 0.00709322 0)
(-0.00643538 0.00834145 0)
(-0.00818758 0.00954351 0)
(-0.0101185 0.010681 0)
(-0.0122149 0.0117394 0)
(-0.0144622 0.0127071 0)
(-0.0168449 0.0135754 0)
(-0.0193467 0.0143378 0)
(-0.0219504 0.0149898 0)
(-0.0246386 0.0155285 0)
(-0.0273933 0.0159524 0)
(-0.0301966 0.0162613 0)
(-0.0330305 0.0164557 0)
(-0.035877 0.0165374 0)
(-0.0387186 0.0165084 0)
(-0.0415377 0.0163717 0)
(-0.0443176 0.0161306 0)
(-0.047042 0.0157889 0)
(-0.0496949 0.0153508 0)
(-0.0522612 0.0148207 0)
(-0.0547265 0.0142032 0)
(-0.0570772 0.0135033 0)
(-0.0593002 0.0127262 0)
(-0.0613835 0.0118771 0)
(-0.0633158 0.0109614 0)
(-0.0650869 0.00998469 0)
(-0.0666871 0.00895267 0)
(-0.0681081 0.00787112 0)
(-0.0693423 0.00674595 0)
(-0.070383 0.00558317 0)
(-0.0712247 0.00438888 0)
(-0.0718628 0.00316931 0)
(-0.0722935 0.00193076 0)
(-0.0725145 0.000679619 0)
(-0.0725243 -0.000577606 0)
(-0.0723223 -0.00183434 0)
(-0.0719092 -0.00308393 0)
(-0.0712867 -0.00431963 0)
(-0.0704578 -0.00553468 0)
(-0.0694262 -0.00672222 0)
(-0.0681971 -0.00787539 0)
(-0.0667765 -0.00898733 0)
(-0.0651717 -0.0100512 0)
(-0.063391 -0.0110601 0)
(-0.0614438 -0.0120074 0)
(-0.0593407 -0.0128863 0)
(-0.0570932 -0.0136906 0)
(-0.0547137 -0.0144137 0)
(-0.0522158 -0.0150497 0)
(-0.049614 -0.0155929 0)
(-0.0469235 -0.0160378 0)
(-0.0441604 -0.0163795 0)
(-0.0413416 -0.0166135 0)
(-0.0384845 -0.0167358 0)
(-0.0356072 -0.0167432 0)
(-0.032728 -0.0166331 0)
(-0.0298657 -0.0164039 0)
(-0.0270392 -0.0160548 0)
(-0.0242673 -0.0155861 0)
(-0.0215688 -0.0149994 0)
(-0.0189621 -0.0142978 0)
(-0.016465 -0.0134856 0)
(-0.0140947 -0.0125694 0)
(-0.0118672 -0.0115574 0)
(-0.0097977 -0.0104604 0)
(-0.00789985 -0.00929194 0)
(-0.00618583 -0.0080685 0)
(-0.00466613 -0.00681024 0)
(-0.00334952 -0.00554138 0)
(-0.00224306 -0.00429083 0)
(-0.00135149 -0.0030929 0)
(-0.000676813 -0.00198776 0)
(-0.000228282 -0.00102201 0)
(-3.13839e-05 -0.000252225 0)
(-3.95764e-05 0.000428681 0)
(-0.000280277 0.00152938 0)
(-0.00082023 0.00280394 0)
(-0.00162142 0.00419534 0)
(-0.0026664 0.00565647 0)
(-0.00394763 0.00714672 0)
(-0.00545529 0.00863151 0)
(-0.00717775 0.0100819 0)
(-0.00910232 0.0114739 0)
(-0.0112152 0.0127879 0)
(-0.0135013 0.0140081 0)
(-0.0159448 0.0151219 0)
(-0.0185288 0.0161198 0)
(-0.0212355 0.0169944 0)
(-0.0240469 0.0177407 0)
(-0.0269442 0.0183556 0)
(-0.0299087 0.0188372 0)
(-0.0329212 0.0191852 0)
(-0.0359629 0.0194004 0)
(-0.0390148 0.0194845 0)
(-0.0420585 0.0194401 0)
(-0.0450757 0.0192704 0)
(-0.0480487 0.0189793 0)
(-0.0509603 0.018571 0)
(-0.053794 0.0180505 0)
(-0.0565338 0.0174227 0)
(-0.0591647 0.0166932 0)
(-0.0616722 0.0158677 0)
(-0.0640427 0.014952 0)
(-0.0662637 0.0139524 0)
(-0.0683233 0.0128751 0)
(-0.0702106 0.0117267 0)
(-0.0719158 0.0105138 0)
(-0.0734299 0.00924302 0)
(-0.074745 0.00792139 0)
(-0.0758541 0.00655588 0)
(-0.0767513 0.00515363 0)
(-0.0774318 0.00372188 0)
(-0.0778918 0.00226801 0)
(-0.0781287 0.000799464 0)
(-0.0781409 -0.000676163 0)
(-0.0779278 -0.0021512 0)
(-0.0774901 -0.00361788 0)
(-0.0768297 -0.00506836 0)
(-0.0759494 -0.00649473 0)
(-0.0748534 -0.00788901 0)
(-0.0735469 -0.00924321 0)
(-0.0720362 -0.0105493 0)
(-0.0703291 -0.0117994 0)
(-0.0684341 -0.0129854 0)
(-0.0663612 -0.0140996 0)
(-0.0641212 -0.0151342 0)
(-0.0617263 -0.0160817 0)
(-0.0591897 -0.0169348 0)
(-0.0565253 -0.0176865 0)
(-0.0537485 -0.01833 0)
(-0.0508751 -0.0188593 0)
(-0.0479222 -0.0192683 0)
(-0.0449073 -0.0195521 0)
(-0.0418489 -0.019706 0)
(-0.0387658 -0.0197263 0)
(-0.0356774 -0.0196101 0)
(-0.0326034 -0.0193554 0)
(-0.0295638 -0.0189614 0)
(-0.0265784 -0.0184285 0)
(-0.0236672 -0.0177585 0)
(-0.0208496 -0.0169548 0)
(-0.0181446 -0.0160225 0)
(-0.0155707 -0.0149689 0)
(-0.0131452 -0.0138032 0)
(-0.0108848 -0.0125376 0)
(-0.00880446 -0.0111866 0)
(-0.00691818 -0.00976857 0)
(-0.00523827 -0.00830511 0)
(-0.00377557 -0.00682211 0)
(-0.0025395 -0.00535013 0)
(-0.00153735 -0.00392489 0)
(-0.000773898 -0.00258768 0)
(-0.000262761 -0.00138573 0)
(-3.66149e-05 -0.00037539 0)
(-4.47499e-05 0.000578248 0)
(-0.000314581 0.00196457 0)
(-0.000917072 0.00351296 0)
(-0.00180707 0.00516717 0)
(-0.00296269 0.00688005 0)
(-0.00437354 0.00861055 0)
(-0.00602708 0.0103233 0)
(-0.00790915 0.0119884 0)
(-0.0100048 0.0135809 0)
(-0.0122984 0.0150801 0)
(-0.014773 0.0164691 0)
(-0.0174111 0.0177346 0)
(-0.0201945 0.0188662 0)
(-0.0231042 0.019856 0)
(-0.0261208 0.0206986 0)
(-0.0292245 0.0213904 0)
(-0.0323954 0.0219295 0)
(-0.0356135 0.0223155 0)
(-0.038859 0.0225494 0)
(-0.042112 0.022633 0)
(-0.0453532 0.0225693 0)
(-0.0485636 0.0223619 0)
(-0.0517246 0.0220153 0)
(-0.0548183 0.0215343 0)
(-0.0578274 0.0209244 0)
(-0.0607355 0.0201914 0)
(-0.0635266 0.0193416 0)
(-0.0661858 0.0183814 0)
(-0.068699 0.0173178 0)
(-0.071053 0.0161577 0)
(-0.0732354 0.0149084 0)
(-0.0752351 0.0135773 0)
(-0.0770416 0.012172 0)
(-0.0786456 0.0107003 0)
(-0.0800388 0.0091701 0)
(-0.0812141 0.00758948 0)
(-0.0821653 0.00596664 0)
(-0.0828873 0.00430988 0)
(-0.0833761 0.00262769 0)
(-0.083629 0.000928647 0)
(-0.0836443 -0.000778549 0)
(-0.0834215 -0.00248508 0)
(-0.0829612 -0.00418201 0)
(-0.0822652 -0.00586034 0)
(-0.0813366 -0.00751098 0)
(-0.0801796 -0.00912478 0)
(-0.0787996 -0.0106926 0)
(-0.0772033 -0.0122051 0)
(-0.0753984 -0.0136533 0)
(-0.0733941 -0.015028 0)
(-0.0712006 -0.0163203 0)
(-0.0688292 -0.0175212 0)
(-0.0662925 -0.0186221 0)
(-0.0636042 -0.0196147 0)
(-0.0607789 -0.020491 0)
(-0.0578325 -0.0212432 0)
(-0.0547816 -0.0218642 0)
(-0.0516438 -0.0223474 0)
(-0.0484377 -0.0226868 0)
(-0.0451824 -0.0228774 0)
(-0.0418976 -0.0229147 0)
(-0.0386036 -0.0227955 0)
(-0.0353212 -0.0225175 0)
(-0.0320713 -0.0220798 0)
(-0.0288748 -0.0214827 0)
(-0.0257526 -0.0207283 0)
(-0.0227256 -0.0198204 0)
(-0.0198138 -0.0187646 0)
(-0.0170371 -0.0175688 0)
(-0.0144142 -0.0162433 0)
(-0.0119632 -0.0148012 0)
(-0.00970078 -0.0132585 0)
(-0.00764265 -0.0116347 0)
(-0.00580309 -0.00995283 0)
(-0.00419509 -0.0082403 0)
(-0.00283048 -0.00652895 0)
(-0.00171911 -0.00485568 0)
(-0.000868389 -0.0032626 0)
(-0.000296087 -0.00179729 0)
(-4.15987e-05 -0.000515691 0)
(-4.96978e-05 0.000744849 0)
(-0.000347734 0.00244743 0)
(-0.00101114 0.00429682 0)
(-0.00198807 0.0062376 0)
(-0.00325243 0.00822286 0)
(-0.00479111 0.0102113 0)
(-0.00658887 0.0121671 0)
(-0.00862906 0.0140596 0)
(-0.0108945 0.0158631 0)
(-0.0133674 0.0175561 0)
(-0.0160291 0.0191209 0)
(-0.0188605 0.0205435 0)
(-0.0218417 0.0218128 0)
(-0.0249526 0.0229206 0)
(-0.0281723 0.023861 0)
(-0.03148 0.0246302 0)
(-0.0348548 0.0252263 0)
(-0.0382756 0.0256488 0)
(-0.0417216 0.0258989 0)
(-0.0451722 0.0259788 0)
(-0.0486072 0.0258917 0)
(-0.0520067 0.0256418 0)
(-0.0553515 0.025234 0)
(-0.0586231 0.0246739 0)
(-0.0618033 0.0239677 0)
(-0.0648752 0.0231219 0)
(-0.0678222 0.0221436 0)
(-0.070629 0.0210401 0)
(-0.0732807 0.0198192 0)
(-0.0757638 0.0184889 0)
(-0.0780655 0.0170573 0)
(-0.0801741 0.0155329 0)
(-0.082079 0.0139243 0)
(-0.0837703 0.0122403 0)
(-0.0852397 0.01049 0)
(-0.0864795 0.00868235 0)
(-0.0874834 0.00682679 0)
(-0.0882462 0.00493274 0)
(-0.0887637 0.00300979 0)
(-0.089033 0.00106769 0)
(-0.0890523 -0.000883694 0)
(-0.088821 -0.00283436 0)
(-0.0883399 -0.00477418 0)