/*--------------------------------*- C++ -*----------------------------------*\
| =========                 |                                                 |
| \\      /  F ield         | OpenFOAM: The Open Source CFD Toolbox           |
|  \\    /   O peration     | Version:  2506                                  |
|   \\  /    A nd           | Website:  www.openfoam.com                      |
|    \\/     M anipulation  |                                                 |
\*---------------------------------------------------------------------------*/
FoamFile
{
    version     2.0;
    format      ascii;
    arch        "LSB;label=32;scalar=64";
    class       volScalarField;
    location    "0.775";
    object      Ux;
}
// * * * * * * * * * * * * * * * * * * * * * * * * * * * * * * * * * * * * * //

dimensions      [0 1 -1 0 0 0 0];

internalField   nonuniform List<scalar> 
6400
(
7.2618e-06
2.98385e-05
5.93515e-05
8.06782e-05
8.5533e-05
7.06632e-05
3.49428e-05
-2.15973e-05
-9.82031e-05
-0.000193685
-0.000306598
-0.000435342
-0.000578237
-0.000733561
-0.000899586
-0.00107459
-0.00125689
-0.00144484
-0.00163681
-0.00183127
-0.00202672
-0.00222171
-0.00241488
-0.00260491
-0.00279056
-0.00297064
-0.00314405
-0.00330973
-0.00346671
-0.00361408
-0.00375098
-0.00387664
-0.00399036
-0.00409149
-0.00417947
-0.0042538
-0.00431406
-0.00435988
-0.00439099
-0.00440719
-0.00440834
-0.00439439
-0.00436538
-0.00432142
-0.00426269
-0.00418947
-0.00410213
-0.00400111
-0.00388694
-0.00376024
-0.00362172
-0.00347218
-0.00331249
-0.00314364
-0.00296667
-0.00278271
-0.002593
-0.00239881
-0.00220153
-0.00200259
-0.00180349
-0.0016058
-0.00141113
-0.00122114
-0.00103752
-0.000862
-0.000696307
-0.000542173
-0.000401308
-0.000275376
-0.000165964
-7.45327e-05
-2.35192e-06
4.96088e-05
8.08547e-05
9.16509e-05
8.34446e-05
5.98049e-05
2.92504e-05
6.8761e-06
1.4471e-05
5.16015e-05
8.99032e-05
0.000103653
7.71317e-05
2.47698e-06
-0.000124015
-0.000303262
-0.00053422
-0.000814523
-0.00114093
-0.00150963
-0.00191643
-0.00235693
-0.00282661
-0.0033209
-0.00383526
-0.00436521
-0.00490633
-0.00545436
-0.00600513
-0.00655465
-0.00709906
-0.00763468
-0.00815801
-0.00866571
-0.00915464
-0.00962182
-0.0100645
-0.01048
-0.0108661
-0.0112204
-0.011541
-0.011826
-0.012074
-0.0122833
-0.0124529
-0.0125817
-0.012669
-0.0127141
-0.0127168
-0.0126769
-0.0125946
-0.01247
-0.0123039
-0.0120969
-0.0118502
-0.011565
-0.0112428
-0.0108855
-0.0104949
-0.0100735
-0.00962366
-0.00914813
-0.00864989
-0.00813215
-0.00759831
-0.00705201
-0.00649706
-0.00593748
-0.00537744
-0.00482125
-0.00427337
-0.00373834
-0.00322078
-0.00272535
-0.00225668
-0.00181935
-0.00141784
-0.00105639
-0.000738942
-0.000468955
-0.000249229
-8.1593e-05
3.35244e-05
9.7714e-05
0.000115363
9.49498e-05
5.26589e-05
1.43606e-05
1.43049e-05
4.46162e-05
6.13527e-05
3.5693e-05
-5.0742e-05
-0.000208177
-0.000441948
-0.000753765
-0.0011426
-0.00160543
-0.00213784
-0.00273445
-0.00338919
-0.00409555
-0.00484675
-0.00563589
-0.00645603
-0.00730024
-0.00816172
-0.00903381
-0.00991
-0.010784
-0.0116498
-0.0125015
-0.0133337
-0.0141409
-0.0149183
-0.0156611
-0.0163648
-0.0170255
-0.0176391
-0.0182023
-0.0187118
-0.0191648
-0.0195586
-0.0198911
-0.0201603
-0.0203646
-0.0205028
-0.020574
-0.0205777
-0.0205137
-0.0203821
-0.0201835
-0.0199188
-0.0195894
-0.0191968
-0.0187431
-0.0182308
-0.0176627
-0.017042
-0.0163723
-0.0156575
-0.0149021
-0.0141108
-0.0132885
-0.0124407
-0.0115731
-0.0106917
-0.00980281
-0.00891297
-0.00802891
-0.00715755
-0.00630596
-0.00548125
-0.00469058
-0.00394102
-0.00323951
-0.00259272
-0.00200693
-0.00148784
-0.00104034
-0.000668206
-0.000373688
-0.000156963
-1.54009e-05
5.72485e-05
7.20214e-05
4.80226e-05
1.46907e-05
1.00663e-05
2.04408e-05
-4.23949e-06
-9.07736e-05
-0.00025732
-0.000514833
-0.000869227
-0.00132246
-0.00187337
-0.00251843
-0.00325235
-0.00406853
-0.00495942
-0.00591686
-0.00693223
-0.00799667
-0.00910122
-0.0102369
-0.0113948
-0.0125663
-0.0137426
-0.0149156
-0.0160773
-0.0172198
-0.0183359
-0.0194184
-0.0204608
-0.0214567
-0.0224001
-0.0232857
-0.0241082
-0.024863
-0.0255457
-0.0261525
-0.02668
-0.0271252
-0.0274855
-0.0277588
-0.0279434
-0.0280383
-0.0280426
-0.0279561
-0.0277791
-0.0275124
-0.0271571
-0.0267151
-0.0261885
-0.0255802
-0.0248935
-0.024132
-0.0233002
-0.0224029
-0.0214453
-0.0204332
-0.019373
-0.0182713
-0.0171354
-0.0159728
-0.0147914
-0.0135997
-0.0124062
-0.0112197
-0.0100494
-0.00890458
-0.00779438
-0.00672813
-0.00571495
-0.00476374
-0.00388297
-0.00308055
-0.00236354
-0.00173795
-0.00120829
-0.00077717
-0.000444718
-0.000207875
-5.96305e-05
1.19694e-05
2.61395e-05
1.09147e-05
4.0262e-06
-1.29959e-05
-9.19832e-05
-0.000254044
-0.000515034
-0.00088541
-0.00137075
-0.00197268
-0.00268961
-0.00351744
-0.00445005
-0.00547984
-0.00659804
-0.0077951
-0.00906088
-0.0103849
-0.0117564
-0.0131648
-0.0145993
-0.0160493
-0.0175045
-0.0189548
-0.0203905
-0.0218022
-0.0231807
-0.0245176
-0.0258046
-0.027034
-0.0281985
-0.0292914
-0.0303063
-0.0312375
-0.0320797
-0.0328282
-0.0334787
-0.0340275
-0.0344715
-0.0348081
-0.0350353
-0.0351517
-0.0351564
-0.0350491
-0.0348302
-0.0345006
-0.0340618
-0.0335161
-0.0328661
-0.0321154
-0.031268
-0.0303285
-0.0293023
-0.0281953
-0.0270139
-0.0257654
-0.0244573
-0.0230979
-0.021696
-0.0202608
-0.018802
-0.0173298
-0.0158545
-0.0143869
-0.0129381
-0.011519
-0.0101409
-0.00881478
-0.00755159
-0.00636184
-0.00525552
-0.00424189
-0.00332918
-0.00252431
-0.00183253
-0.0012569
-0.000797841
-0.000452483
-0.000213973
-7.06502e-05
-5.23263e-06
5.2663e-06
-2.66446e-06
-5.0943e-05
-0.00019196
-0.000438968
-0.00080409
-0.00129634
-0.0019202
-0.00267642
-0.00356263
-0.00457396
-0.00570346
-0.00694254
-0.00828136
-0.00970915
-0.0112145
-0.0127854
-0.0144098
-0.0160754
-0.0177699
-0.0194812
-0.0211973
-0.0229067
-0.0245979
-0.0262601
-0.0278829
-0.029456
-0.0309701
-0.0324162
-0.0337856
-0.0350706
-0.0362637
-0.0373582
-0.038348
-0.0392274
-0.0399916
-0.0406361
-0.0411575
-0.0415526
-0.0418191
-0.0419553
-0.0419603
-0.0418338
-0.041576
-0.0411883
-0.0406723
-0.0400307
-0.0392667
-0.0383843
-0.0373884
-0.0362843
-0.0350782
-0.0337771
-0.0323886
-0.0309208
-0.0293829
-0.0277844
-0.0261353
-0.0244466
-0.0227294
-0.0209953
-0.0192566
-0.0175255
-0.0158147
-0.014137
-0.0125051
-0.0109317
-0.00942915
-0.00800943
-0.00668386
-0.00546287
-0.00435575
-0.00337035
-0.00251266
-0.00178644
-0.00119277
-0.000729509
-0.000390729
-0.000165985
-4.1355e-05
-1.09631e-06
-9.4481e-06
-9.06385e-05
-0.000297773
-0.000635239
-0.00111056
-0.0017306
-0.00249817
-0.00341264
-0.00447054
-0.00566598
-0.00699106
-0.00843619
-0.0099905
-0.0116421
-0.0133783
-0.0151861
-0.0170519
-0.018962
-0.020903
-0.0228612
-0.0248233
-0.0267763
-0.0287075
-0.0306046
-0.0324559
-0.03425
-0.0359762
-0.0376243
-0.0391848
-0.0406488
-0.0420078
-0.0432543
-0.0443813
-0.0453825
-0.0462524
-0.046986
-0.0475792
-0.0480287
-0.0483317
-0.0484865
-0.0484918
-0.0483474
-0.0480537
-0.0476121
-0.0470245
-0.046294
-0.0454242
-0.0444196
-0.0432857
-0.0420286
-0.0406553
-0.0391736
-0.0375921
-0.0359201
-0.0341678
-0.0323458
-0.0304657
-0.0285394
-0.0265796
-0.0245994
-0.0226123
-0.0206322
-0.0186731
-0.0167493
-0.0148749
-0.013064
-0.0113304
-0.00968733
-0.00814721
-0.00672164
-0.00542094
-0.00425391
-0.00322746
-0.00234626
-0.0016124
-0.00102498
-0.000579556
-0.000267602
-7.94277e-05
-7.59808e-06
-1.60636e-05
-0.000130519
-0.000405445
-0.000836094
-0.00142494
-0.00217627
-0.00309075
-0.00416598
-0.00539707
-0.00677692
-0.00829649
-0.00994513
-0.0117109
-0.0135808
-0.0155412
-0.0175776
-0.0196755
-0.02182
-0.0239962
-0.0261895
-0.0283851
-0.0305689
-0.0327269
-0.0348457
-0.0369123
-0.0389143
-0.0408398
-0.0426777
-0.0444174
-0.0460491
-0.0475635
-0.0489523
-0.0502078
-0.0513229
-0.0522916
-0.0531085
-0.053769
-0.0542694
-0.0546067
-0.0547789
-0.0547847
-0.0546239
-0.0542969
-0.0538052
-0.0531511
-0.0523377
-0.0513693
-0.0502508
-0.0489881
-0.0475881
-0.0460585
-0.0444079
-0.0426457
-0.0407822
-0.0388285
-0.0367965
-0.0346987
-0.0325483
-0.0303592
-0.0281457
-0.0259227
-0.0237053
-0.0215089
-0.019349
-0.0172412
-0.0152007
-0.0132424
-0.0113809
-0.00962982
-0.00800174
-0.00650806
-0.00515864
-0.00396146
-0.00292236
-0.00204473
-0.00132932
-0.000773614
-0.000371454
-0.000117842
-1.39622e-05
-2.24013e-05
-0.000169737
-0.000512586
-0.00103723
-0.00174097
-0.00262522
-0.00368821
-0.0049255
-0.00633048
-0.00789462
-0.00960761
-0.0114576
-0.0134316
-0.0155155
-0.0176944
-0.019953
-0.0222756
-0.024646
-0.0270485
-0.029467
-0.0318859
-0.0342898
-0.0366637
-0.038993
-0.0412638
-0.0434626
-0.0455767
-0.0475939
-0.0495027
-0.0512926
-0.0529535
-0.0544763
-0.0558527
-0.0570751
-0.0581369
-0.0590322
-0.059756
-0.0603044
-0.0606742
-0.0608631
-0.0608698
-0.0606939
-0.060336
-0.0597977
-0.0590815
-0.0581907
-0.05713
-0.0559048
-0.0545214
-0.0529872
-0.0513107
-0.0495011
-0.0475687
-0.0455245
-0.0433806
-0.0411497
-0.0388455
-0.0364822
-0.0340747
-0.0316386
-0.0291898
-0.0267447
-0.0243198
-0.0219319
-0.0195976
-0.0173335
-0.0151556
-0.0130796
-0.0111202
-0.00929114
-0.00760502
-0.0060728
-0.00470372
-0.00350498
-0.00248159
-0.00163619
-0.000968534
-0.000475095
-0.000155712
-2.00679e-05
-2.84274e-05
-0.000207864
-0.000617832
-0.00123603
-0.00205464
-0.00307209
-0.00428399
-0.00568362
-0.00726249
-0.00901044
-0.0109157
-0.0129653
-0.0151448
-0.017439
-0.0198322
-0.0223077
-0.0248488
-0.0274384
-0.0300596
-0.0326954
-0.0353291
-0.0379442
-0.0405249
-0.0430556
-0.0455213
-0.0479077
-0.0502012
-0.0523888
-0.0544583
-0.0563983
-0.0581981
-0.0598479
-0.0613389
-0.062663
-0.063813
-0.0647826
-0.0655667
-0.0661608
-0.0665617
-0.0667667
-0.0667747
-0.0665851
-0.0661985
-0.0656167
-0.0648423
-0.063879
-0.0627316
-0.061406
-0.0599088
-0.0582481
-0.0564328
-0.0544728
-0.052379
-0.0501633
-0.0478385
-0.0454182
-0.0429169
-0.0403499
-0.0377331
-0.035083
-0.0324167
-0.0297515
-0.0271052
-0.0244955
-0.0219403
-0.0194572
-0.0170635
-0.0147759
-0.0126102
-0.0105815
-0.0087034
-0.00698829
-0.00544676
-0.0040876
-0.00291761
-0.00194156
-0.00116165
-0.00057712
-0.000192589
-2.58751e-05
-3.41454e-05
-0.000244722
-0.000720476
-0.001431
-0.00236354
-0.00351352
-0.00487385
-0.00643538
-0.00818758
-0.0101185
-0.0122149
-0.0144622
-0.0168449
-0.0193467
-0.0219504
-0.0246386
-0.0273933
-0.0301966
-0.0330305
-0.035877
-0.0387186
-0.0415377
-0.0443176
-0.047042
-0.0496949
-0.0522612
-0.0547265
-0.0570772
-0.0593002
-0.0613835
-0.0633158
-0.0650869
-0.0666871
-0.0681081
-0.0693423
-0.070383
-0.0712247
-0.0718628
-0.0722935
-0.0725145
-0.0725243
-0.0723223
-0.0719092
-0.0712867
-0.0704578
-0.0694262
-0.0681971
-0.0667765
-0.0651717
-0.063391
-0.0614438
-0.0593407
-0.0570932
-0.0547137
-0.0522158
-0.049614
-0.0469235
-0.0441604
-0.0413416
-0.0384845
-0.0356072
-0.032728
-0.0298657
-0.0270392
-0.0242673
-0.0215688
-0.0189621
-0.016465
-0.0140947
-0.0118672
-0.0097977
-0.00789985
-0.00618583
-0.00466613
-0.00334952
-0.00224306
-0.00135149
-0.000676813
-0.000228282
-3.13839e-05
-3.95764e-05
-0.000280277
-0.00082023
-0.00162142
-0.0026664
-0.00394763
-0.00545529
-0.00717775
-0.00910232
-0.0112152
-0.0135013
-0.0159448
-0.0185288
-0.0212355
-0.0240469
-0.0269442
-0.0299087
-0.0329212
-0.0359629
-0.0390148
-0.0420585
-0.0450757
-0.0480487
-0.0509603
-0.053794
-0.0565338
-0.0591647
-0.0616722
-0.0640427
-0.0662637
-0.0683233
-0.0702106
-0.0719158
-0.0734299
-0.074745
-0.0758541
-0.0767513
-0.0774318
-0.0778918
-0.0781287
-0.0781409
-0.0779278
-0.0774901
-0.0768297
-0.0759494
-0.0748534
-0.0735469
-0.0720362
-0.0703291
-0.0684341
-0.0663612
-0.0641212
-0.0617263
-0.0591897
-0.0565253
-0.0537485
-0.0508751
-0.0479222
-0.0449073
-0.0418489
-0.0387658
-0.0356774
-0.0326034
-0.0295638
-0.0265784
-0.0236672
-0.0208496
-0.0181446
-0.0155707
-0.0131452
-0.0108848
-0.00880446
-0.00691818
-0.00523827
-0.00377557
-0.0025395
-0.00153735
-0.000773898
-0.000262761
-3.66149e-05
-4.47499e-05
-0.000314581
-0.000917072
-0.00180707
-0.00296269
-0.00437354
-0.00602708
-0.00790915
-0.0100048
-0.0122984
-0.014773
-0.0174111
-0.0201945
-0.0231042
-0.0261208
-0.0292245
-0.0323954
-0.0356135
-0.038859
-0.042112
-0.0453532
-0.0485636
-0.0517246
-0.0548183
-0.0578274
-0.0607355
-0.0635266
-0.0661858
-0.068699
-0.071053
-0.0732354
-0.0752351
-0.0770416
-0.0786456
-0.0800388
-0.0812141
-0.0821653
-0.0828873
-0.0833761
-0.083629
-0.0836443
-0.0834215
-0.0829612
-0.0822652
-0.0813366
-0.0801796
-0.0787996
-0.0772033
-0.0753984
-0.0733941
-0.0712006
-0.0688292
-0.0662925
-0.0636042
-0.0607789
-0.0578325
-0.0547816
-0.0516438
-0.0484377
-0.0451824
-0.0418976
-0.0386036
-0.0353212
-0.0320713
-0.0288748
-0.0257526
-0.0227256
-0.0198138
-0.0170371
-0.0144142
-0.0119632
-0.00970078
-0.00764265
-0.00580309
-0.00419509
-0.00283048
-0.00171911
-0.000868389
-0.000296087
-4.15987e-05
-4.96978e-05
-0.000347734
-0.00101114
-0.00198807
-0.00325243
-0.00479111
-0.00658887
-0.00862906
-0.0108945
-0.0133674
-0.0160291
-0.0188605
-0.0218417
-0.0249526
-0.0281723
-0.03148
-0.0348548
-0.0382756
-0.0417216
-0.0451722
-0.0486072
-0.0520067
-0.0553515
-0.0586231
-0.0618033
-0.0648752
-0.0678222
-0.070629
-0.0732807
-0.0757638
-0.0780655
-0.0801741
-0.082079
-0.0837703
-0.0852397
-0.0864795
-0.0874834
-0.0882462
-0.0887637
-0.089033
-0.0890523
-0.088821
-0.0883399
-0.0876107
-0.0866365
-0.0854217
-0.0839718
-0.0822936
-0.0803952
-0.078286
-0.0759764
-0.0734783
-0.0708045
-0.0679692
-0.0649876
-0.0618762
-0.0586521
-0.0553337
-0.0519402
-0.0484914
-0.0450081
-0.0415115
-0.038023
-0.0345647
-0.0311586
-0.0278269
-0.0245913
-0.0214734
-0.0184943
-0.0156743
-0.0130329
-0.0105887
-0.0083592
-0.00636061
-0.0046082
-0.0031162
-0.00189698
-0.000960482
-0.000328379
-4.637e-05
-5.44524e-05
-0.000379862
-0.00110269
-0.00216474
-0.00353599
-0.00520067
-0.00714097
-0.00933773
-0.0117715
-0.0144224
-0.0172699
-0.0202932
-0.0234709
-0.0267813
-0.0302025
-0.0337124
-0.0372888
-0.0409099
-0.0445539
-0.0481992
-0.0518248
-0.0554102
-0.0589355
-0.0623813
-0.0657291
-0.0689612
-0.0720606
-0.0750113
-0.0777982
-0.0804073
-0.0828253
-0.0850402
-0.0870409
-0.0888176
-0.0903614
-0.0916645
-0.0927203
-0.0935234
-0.0940696
-0.0943558
-0.09438
-0.0941418
-0.0936417
-0.0928814
-0.0918643
-0.0905946
-0.089078
-0.0873215
-0.0853334
-0.0831231
-0.0807015
-0.0780807
-0.0752739
-0.0722958
-0.0691619
-0.0658892
-0.0624955
-0.0589998
-0.0554219
-0.0517826
-0.0481032
-0.0444058
-0.0407131
-0.0370478
-0.0334332
-0.0298925
-0.0264488
-0.0231251
-0.0199438
-0.0169267
-0.0140951
-0.0114693
-0.00906863
-0.00691158
-0.00501557
-0.00339724
-0.00207142
-0.00105049
-0.000359789
-5.09649e-05
-5.90447e-05
-0.000411104
-0.00119201
-0.00233755
-0.00381393
-0.00560291
-0.00768411
-0.0100359
-0.0126366
-0.0154642
-0.0184964
-0.0217104
-0.0250833
-0.028592
-0.0322132
-0.0359236
-0.0397
-0.0435194
-0.0473591
-0.0511967
-0.0550105
-0.0587792
-0.062482
-0.0660992
-0.0696116
-0.0730009
-0.0762497
-0.0793414
-0.0822607
-0.084993
-0.0875249
-0.0898439
-0.0919387
-0.093799
-0.0954159
-0.0967813
-0.0978885
-0.0987318
-0.0993069
-0.0996106
-0.0996409
-0.0993971
-0.0988798
-0.0980907
-0.0970331
-0.0957113
-0.0941312
-0.0922996
-0.0902251
-0.0879174
-0.0853874
-0.0826475
-0.0797114
-0.0765939
-0.0733111
-0.0698804
-0.0663202
-0.0626499
-0.0588902
-0.0550624
-0.0511887
-0.0472922
-0.0433962
-0.0395248
-0.0357022
-0.0319529
-0.0283012
-0.0247715
-0.0213877
-0.0181734
-0.0151514
-0.0123439
-0.00977235
-0.00745722
-0.00541824
-0.00367443
-0.00224306
-0.0011388
-0.000390485
-5.54191e-05
-6.35043e-05
-0.000441601
-0.00127943
-0.00250702
-0.00408699
-0.0059987
-0.00821932
-0.0107248
-0.0134911
-0.0164943
-0.0197099
-0.0231135
-0.0266806
-0.0303864
-0.0342064
-0.038116
-0.0420909
-0.046107
-0.0501407
-0.0541687
-0.0581686
-0.0621182
-0.0659963
-0.0697824
-0.0734568
-0.0770008
-0.0803964
-0.0836268
-0.0866761
-0.0895295
-0.0921731
-0.0945944
-0.0967816
-0.0987243
-0.100413
-0.10184
-0.102999
-0.103882
-0.104487
-0.104809
-0.104846
-0.104598
-0.104066
-0.10325
-0.102154
-0.100783
-0.0991422
-0.0972387
-0.095081
-0.0926791
-0.0900441
-0.0871885
-0.0841263
-0.0808726
-0.077444
-0.0738581
-0.0701339
-0.0662914
-0.0623518
-0.0583373
-0.0542707
-0.050176
-0.0460776
-0.0420004
-0.03797
-0.0340119
-0.0301519
-0.0264158
-0.0228292
-0.019417
-0.0162042
-0.0132148
-0.0104722
-0.0079991
-0.0058175
-0.00394879
-0.00241259
-0.00122582
-0.000420642
-5.97677e-05
-6.78585e-05
-0.000471493
-0.00136528
-0.00267371
-0.00435595
-0.00638906
-0.00874779
-0.0114057
-0.0143366
-0.0175142
-0.0209123
-0.0245047
-0.0282649
-0.032167
-0.0361847
-0.0402924
-0.0444644
-0.0486759
-0.052902
-0.0571188
-0.0613029
-0.0654315
-0.0694828
-0.0734358
-0.0772701
-0.0809665
-0.0845068
-0.0878737
-0.0910511
-0.0940236
-0.0967773
-0.0992992
-0.101578
-0.103602
-0.105362
-0.10685
-0.10806
-0.108984
-0.109618
-0.109959
-0.110005
-0.109755
-0.109209
-0.108368
-0.107237
-0.105819
-0.10412
-0.102148
-0.0999102
-0.0974172
-0.0946804
-0.0917123
-0.088527
-0.0851401
-0.0815683
-0.0778298
-0.0739439
-0.0699312
-0.0658134
-0.0616135
-0.0573551
-0.0530629
-0.0487623
-0.0444795
-0.040241
-0.0360738
-0.0320049
-0.0280617
-0.0242713
-0.0206607
-0.0172563
-0.0140843
-0.0111703
-0.00853901
-0.0062148
-0.00422141
-0.00258079
-0.001312
-0.000450438
-6.40438e-05
-7.21327e-05
-0.000500916
-0.00144991
-0.0028382
-0.00462165
-0.00677505
-0.00927083
-0.0120802
-0.0151746
-0.0185259
-0.0221057
-0.0258859
-0.0298386
-0.033936
-0.0381506
-0.0424553
-0.0468236
-0.0512291
-0.0556463
-0.0600504
-0.0644172
-0.0687231
-0.0729458
-0.0770637
-0.0810559
-0.0849029
-0.088586
-0.0920875
-0.095391
-0.098481
-0.101343
-0.103965
-0.106333
-0.108438
-0.110269
-0.111818
-0.113078
-0.114043
-0.114708
-0.115069
-0.115125
-0.114874
-0.114316
-0.113454
-0.112289
-0.110827
-0.109073
-0.107035
-0.10472
-0.102139
-0.0993036
-0.096226
-0.0929206
-0.0894033
-0.085691
-0.0818022
-0.0777567
-0.0735755
-0.0692811
-0.0648969
-0.0604475
-0.0559583
-0.0514558
-0.0469672
-0.0425202
-0.038143
-0.0338644
-0.0297131
-0.0257179
-0.0219076
-0.0183106
-0.0149552
-0.0118689
-0.00907887
-0.00661168
-0.00449346
-0.00274844
-0.00139779
-0.000480049
-6.82794e-05
-7.63499e-05
-0.000529997
-0.00153363
-0.00300106
-0.0048849
-0.00715777
-0.00978977
-0.0127498
-0.0160071
-0.0195313
-0.0232921
-0.0272595
-0.031404
-0.035696
-0.0401067
-0.0446077
-0.0491711
-0.0537696
-0.0583768
-0.0629668
-0.0675147
-0.0719964
-0.0763888
-0.0806698
-0.0848181
-0.0888138
-0.0926378
-0.0962722
-0.0997002
-0.102906
-0.105875
-0.108595
-0.111052
-0.113237
-0.115138
-0.116748
-0.118059
-0.119066
-0.119762
-0.120145
-0.120211
-0.119961
-0.119394
-0.118511
-0.117316
-0.115813
-0.114007
-0.111905
-0.109517
-0.106851
-0.10392
-0.100736
-0.0973132
-0.0936681
-0.0898179
-0.0857811
-0.0815781
-0.0772303
-0.0727607
-0.0681933
-0.0635535
-0.0588676
-0.0541631
-0.0494683
-0.0448121
-0.0402242
-0.0357347
-0.031374
-0.0271726
-0.0231613
-0.0193703
-0.0158301
-0.0125705
-0.00962069
-0.00700974
-0.00476611
-0.00291633
-0.00148364
-0.000509646
-7.25044e-05
-8.05316e-05
-0.000558857
-0.00161675
-0.00316284
-0.00514653
-0.0075383
-0.010306
-0.0134161
-0.0168357
-0.0205323
-0.0244737
-0.0286279
-0.0329635
-0.0374496
-0.0420557
-0.0467521
-0.0515098
-0.0563003
-0.0610961
-0.0658707
-0.0705983
-0.0752542
-0.0798146
-0.0842569
-0.0885596
-0.0927022
-0.0966652
-0.100431
-0.103982
-0.107302
-0.110377
-0.113193
-0.115739
-0.118002
-0.119974
-0.121644
-0.123007
-0.124055
-0.124783
-0.125188
-0.125268
-0.12502
-0.124445
-0.123545
-0.122322
-0.12078
-0.118925
-0.116763
-0.114304
-0.111557
-0.108533
-0.105246
-0.101709
-0.0979395
-0.093954
-0.0897717
-0.0854133
-0.0809006
-0.0762571
-0.0715076
-0.066678
-0.0617958
-0.0568893
-0.0519878
-0.0471217
-0.0423219
-0.0376202
-0.0330485
-0.0286394
-0.0244252
-0.0204386
-0.016712
-0.0132774
-0.0101665
-0.00741058
-0.00504056
-0.00308524
-0.00156996
-0.000539395
-7.67472e-05
-8.46969e-05
-0.000587609
-0.00169958
-0.00332407
-0.00540732
-0.00791768
-0.0108207
-0.0140806
-0.0176623
-0.0215311
-0.0256526
-0.0299932
-0.0345195
-0.0391991
-0.044
-0.0488911
-0.0538421
-0.0588234
-0.0638068
-0.0687646
-0.0736703
-0.0784987
-0.0832254
-0.0878273
-0.0922824
-0.0965699
-0.10067
-0.104565
-0.108237
-0.11167
-0.114849
-0.117761
-0.120394
-0.122735
-0.124776
-0.126507
-0.127921
-0.129011
-0.129773
-0.130202
-0.130295
-0.130052
-0.129472
-0.128557
-0.127308
-0.125731
-0.12383
-0.121612
-0.119085
-0.11626
-0.113147
-0.10976
-0.106113
-0.102221
-0.0981032
-0.093778
-0.0892664
-0.0845907
-0.0797749
-0.0748444
-0.0698259
-0.0647476
-0.0596389
-0.0545303
-0.0494533
-0.0444405
-0.0395251
-0.0347408
-0.030122
-0.0257031
-0.0215188
-0.0176036
-0.0139921
-0.0107183
-0.00781578
-0.00531796
-0.00325596
-0.0016572
-0.000569456
-8.10346e-05
-8.88638e-05
-0.000616358
-0.00178238
-0.00348524
-0.00566802
-0.00829694
-0.0113353
-0.014745
-0.0184886
-0.0225294
-0.0268309
-0.0313576
-0.0360743
-0.0409469
-0.045942
-0.0510269
-0.0561702
-0.0613413
-0.0665108
-0.0716503
-0.0767326
-0.0817316
-0.0866227
-0.0913821
-0.0959875
-0.100418
-0.104653
-0.108675
-0.112466
-0.11601
-0.119292
-0.122299
-0.125017
-0.127436
-0.129546
-0.131337
-0.132802
-0.133936
-0.134731
-0.135185
-0.135294
-0.135057
-0.134475
-0.133547
-0.132276
-0.130666
-0.128722
-0.126451
-0.123861
-0.120961
-0.117763
-0.11428
-0.110525
-0.106515
-0.102268
-0.0978028
-0.0931406
-0.0883042
-0.0833179
-0.0782077
-0.0730011
-0.0677272
-0.0624163
-0.0571001
-0.0518115
-0.0465844
-0.0414537
-0.0364549
-0.0316242
-0.0269983
-0.0226138
-0.0185079
-0.0147171
-0.0112781
-0.00822691
-0.00559946
-0.00342923
-0.00174576
-0.000599983
-8.53921e-05
-9.30484e-05
-0.000645201
-0.00186543
-0.00364684
-0.00592935
-0.00867704
-0.0118509
-0.0154105
-0.0193163
-0.0235291
-0.0280106
-0.0327232
-0.03763
-0.0426951
-0.0478836
-0.0531615
-0.0584961
-0.0638557
-0.0692098
-0.0745293
-0.0797862
-0.0849539
-0.0900071
-0.0949218
-0.0996752
-0.104246
-0.108614
-0.112761
-0.116669
-0.120322
-0.123705
-0.126804
-0.129607
-0.132102
-0.13428
-0.136131
-0.137648
-0.138824
-0.139655
-0.140134
-0.140261
-0.140033
-0.13945
-0.138512
-0.137222
-0.135583
-0.1336
-0.13128
-0.12863
-0.12566
-0.122381
-0.118806
-0.114947
-0.110823
-0.10645
-0.101848
-0.0970382
-0.0920435
-0.0868888
-0.0816006
-0.0762072
-0.0707383
-0.0652253
-0.0597012
-0.0542001
-0.0487575
-0.0434098
-0.0381945
-0.0331497
-0.0283142
-0.023727
-0.0194274
-0.0154547
-0.0118478
-0.00864551
-0.00588618
-0.00360577
-0.00183604
-0.000631124
-8.9844e-05
-9.72657e-05
-0.00067423
-0.00194895
-0.0038093
-0.00619197
-0.00905888
-0.0123687
-0.0160787
-0.0201468
-0.0245319
-0.0291935
-0.0340919
-0.0391885
-0.0444457
-0.0498269
-0.0552968
-0.0608214
-0.0663679
-0.0719049
-0.0774024
-0.0828318
-0.0881658
-0.0933786
-0.0984458
-0.103344
-0.108053
-0.112551
-0.11682
-0.120843
-0.124602
-0.128083
-0.131273
-0.134159
-0.136729
-0.138974
-0.140885
-0.142453
-0.143673
-0.144539
-0.145046
-0.145192
-0.144975
-0.144394
-0.143449
-0.142143
-0.140479
-0.138461
-0.136096
-0.133391
-0.130355
-0.126999
-0.123336
-0.119379
-0.115144
-0.11065
-0.105914
-0.10096
-0.0958104
-0.0904898
-0.0850257
-0.0794468
-0.0737839
-0.0680694
-0.0623372
-0.0566229
-0.0509635
-0.0453972
-0.0399633
-0.034702
-0.0296541
-0.0248612
-0.020365
-0.0162072
-0.0124294
-0.00907305
-0.0061792
-0.00378631
-0.00192842
-0.00066302
-9.44134e-05
-0.00010153
-0.00070353
-0.00203319
-0.00397305
-0.00645653
-0.00944334
-0.0128898
-0.0167507
-0.0209817
-0.0255394
-0.0303812
-0.0354655
-0.0407516
-0.0462002
-0.0517732
-0.057434
-0.0631472
-0.0688789
-0.0745967
-0.0802699
-0.0858691
-0.0913666
-0.096736
-0.101953
-0.106994
-0.111837
-0.116462
-0.12085
-0.124983
-0.128846
-0.132424
-0.135702
-0.138669
-0.141312
-0.143623
-0.145593
-0.147212
-0.148476
-0.149378
-0.149914
-0.150081
-0.149876
-0.1493
-0.148352
-0.147033
-0.145348
-0.143299
-0.140894
-0.138138
-0.135041
-0.131614
-0.127868
-0.123817
-0.119477
-0.114865
-0.110001
-0.104907
-0.0996053
-0.094122
-0.0884844
-0.0827222
-0.0768666
-0.0709512
-0.0650111
-0.0590832
-0.053206
-0.0474194
-0.0417647
-0.0362843
-0.0310212
-0.0260194
-0.0213231
-0.0169767
-0.0130246
-0.00951098
-0.00647957
-0.00397153
-0.00202328
-0.00069581
-9.91225e-05
-0.000105853
-0.000733182
-0.00211835
-0.00413849
-0.00672364
-0.00983124
-0.0134152
-0.0174278
-0.0218224
-0.0265532
-0.0315755
-0.0368455
-0.0423207
-0.0479601
-0.053724
-0.0595743
-0.0654743
-0.071389
-0.0772853
-0.0831314
-0.0888974
-0.094555
-0.100078
-0.10544
-0.110619
-0.115593
-0.120341
-0.124844
-0.129086
-0.133049
-0.136719
-0.140083
-0.143128
-0.145844
-0.148219
-0.150246
-0.151916
-0.153223
-0.154162
-0.154728
-0.154917
-0.154728
-0.154159
-0.153211
-0.151884
-0.150181
-0.148107
-0.145666
-0.142865
-0.139713
-0.13622
-0.132397
-0.128257
-0.123817
-0.119094
-0.114107
-0.108877
-0.103428
-0.0977852
-0.0919774
-0.0860343
-0.079988
-0.073873
-0.0677254
-0.0615836
-0.0554877
-0.0494794
-0.0436019
-0.0378997
-0.0324184
-0.0272042
-0.0223042
-0.0177655
-0.0136353
-0.0099607
-0.0067883
-0.00416208
-0.00212097
-0.000729627
-0.000103993
-0.000110249
-0.000763262
-0.00220466
-0.00430599
-0.00699386
-0.0102234
-0.0139459
-0.0181112
-0.0226702
-0.0275747
-0.0327777
-0.0382334
-0.0438974
-0.0497268
-0.0556803
-0.0617183
-0.067803
-0.0738983
-0.07997
-0.0859858
-0.091915
-0.0977289
-0.1034
-0.108904
-0.114217
-0.119317
-0.124184
-0.128798
-0.133143
-0.137203
-0.140962
-0.144408
-0.147529
-0.150313
-0.152751
-0.154834
-0.156554
-0.157905
-0.158881
-0.159477
-0.159691
-0.159519
-0.158961
-0.158016
-0.156685
-0.15497
-0.152874
-0.150403
-0.147563
-0.144362
-0.140809
-0.136915
-0.132694
-0.128161
-0.123332
-0.118227
-0.112867
-0.107275
-0.101478
-0.0955042
-0.0893834
-0.083149
-0.076836
-0.070482
-0.0641266
-0.0578114
-0.0515801
-0.0454777
-0.0395512
-0.0338484
-0.0284184
-0.0233107
-0.0185756
-0.0142632
-0.0104235
-0.0071064
-0.00435863
-0.00222186
-0.000764602
-0.000109046
-0.000114728
-0.000793845
-0.0022923
-0.00447593
-0.00726777
-0.0106205
-0.0144828
-0.018802
-0.0235262
-0.0286051
-0.0339891
-0.0396304
-0.0454826
-0.051501
-0.0576425
-0.0638663
-0.0701332
-0.0764061
-0.0826499
-0.0888313
-0.0949194
-0.100885
-0.106701
-0.112341
-0.117783
-0.123003
-0.127983
-0.132704
-0.137147
-0.141298
-0.145142
-0.148667
-0.151859
-0.154709
-0.157207
-0.159344
-0.161113
-0.162506
-0.16352
-0.164148
-0.164388
-0.164236
-0.163692
-0.162753
-0.161422
-0.1597
-0.157589
-0.155095
-0.152222
-0.148978
-0.145372
-0.141415
-0.13712
-0.1325
-0.127573
-0.122356
-0.116873
-0.111145
-0.105199
-0.0990632
-0.0927689
-0.0863494
-0.0798409
-0.073282
-0.0667136
-0.060179
-0.0537236
-0.0473946
-0.0412412
-0.0353138
-0.0296642
-0.0243449
-0.019409
-0.0149099
-0.0109008
-0.00743482
-0.0045618
-0.00232628
-0.000800861
-0.000114302
-0.000119303
-0.000825003
-0.00238148
-0.00464867
-0.00754592
-0.0110233
-0.0150269
-0.0195012
-0.0243917
-0.0296456
-0.035211
-0.0410377
-0.0470774
-0.0532834
-0.0596113
-0.0660184
-0.0724645
-0.0789113
-0.085323
-0.0916656
-0.0979075
-0.104019
-0.109973
-0.115744
-0.121308
-0.126644
-0.131731
-0.136551
-0.141087
-0.145324
-0.149248
-0.152845
-0.156106
-0.159018
-0.161572
-0.163761
-0.165577
-0.167013
-0.168064
-0.168725
-0.168992
-0.168862
-0.168335
-0.167408
-0.166081
-0.164357
-0.162237
-0.159725
-0.156827
-0.153548
-0.149898
-0.145886
-0.141524
-0.136826
-0.131808
-0.126489
-0.120889
-0.115032
-0.108943
-0.102652
-0.0961886
-0.0895883
-0.0828876
-0.076126
-0.0693459
-0.0625922
-0.055912
-0.0493548
-0.0429721
-0.036817
-0.030944
-0.0254087
-0.0202676
-0.0155771
-0.0113939
-0.00777451
-0.00477222
-0.00243457
-0.000838532
-0.000119782
-0.000123985
-0.000856812
-0.00247239
-0.00482458
-0.00782884
-0.0114326
-0.015579
-0.0202098
-0.0252679
-0.0306975
-0.0364444
-0.0424563
-0.0486825
-0.0550747
-0.0615865
-0.068174
-0.0747957
-0.0814123
-0.0879869
-0.0944853
-0.100875
-0.107127
-0.113213
-0.119107
-0.124787
-0.13023
-0.135417
-0.140329
-0.144951
-0.149268
-0.153265
-0.15693
-0.160253
-0.163223
-0.165831
-0.168068
-0.169929
-0.171406
-0.172493
-0.173187
-0.173484
-0.173379
-0.172872
-0.17196
-0.170643
-0.168923
-0.1668
-0.164279
-0.161363
-0.158058
-0.154372
-0.150313
-0.145894
-0.141128
-0.136029
-0.130615
-0.124908
-0.11893
-0.112706
-0.106265
-0.0996397
-0.0928636
-0.0859747
-0.0790135
-0.0720238
-0.0650518
-0.0581466
-0.0513601
-0.0447459
-0.03836
-0.0322599
-0.0265043
-0.0211531
-0.0162662
-0.0119039
-0.0081264
-0.00499051
-0.00254708
-0.000877741
-0.000125506
-0.000128786
-0.000889344
-0.00256525
-0.00500402
-0.0081171
-0.0118491
-0.0161402
-0.020929
-0.0261557
-0.0317618
-0.0376905
-0.0438869
-0.0502986
-0.0568749
-0.063568
-0.0703324
-0.0771254
-0.0839067
-0.0906387
-0.0972864
-0.103817
-0.110201
-0.116411
-0.122421
-0.128208
-0.13375
-0.139029
-0.144026
-0.148726
-0.153114
-0.157178
-0.160904
-0.164283
-0.167306
-0.169962
-0.172245
-0.174148
-0.175664
-0.176788
-0.177515
-0.177842
-0.177764
-0.17728
-0.176388
-0.175087
-0.173377
-0.171259
-0.168736
-0.16581
-0.162488
-0.158776
-0.154682
-0.150216
-0.145391
-0.140222
-0.134725
-0.12892
-0.12283
-0.11648
-0.109898
-0.103118
-0.096172
-0.0891001
-0.0819435
-0.0747468
-0.0675582
-0.0604286
-0.0534118
-0.0465643
-0.0399448
-0.0336138
-0.0276336
-0.0220673
-0.0169788
-0.0124321
-0.00849141
-0.00521728
-0.00266414
-0.000918614
-0.000131495
-0.000133719
-0.000922681
-0.00266026
-0.00518739
-0.00841128
-0.0122735
-0.0167112
-0.0216598
-0.0270563
-0.0328396
-0.0389501
-0.0453305
-0.0519259
-0.0586841
-0.0655552
-0.0724924
-0.0794516
-0.0863917
-0.0932744
-0.100064
-0.106728
-0.113236
-0.119561
-0.125677
-0.131561
-0.137193
-0.142554
-0.147626
-0.152395
-0.156846
-0.160968
-0.164748
-0.168177
-0.171245
-0.173945
-0.176269
-0.178211
-0.179764
-0.180923
-0.181684
-0.182042
-0.181994
-0.181537
-0.180669
-0.179389
-0.177695
-0.17559
-0.173073
-0.170149
-0.16682
-0.163092
-0.158974
-0.154473
-0.149602
-0.144373
-0.138804
-0.132913
-0.126723
-0.120257
-0.113544
-0.106617
-0.0995091
-0.0922606
-0.0849136
-0.0775139
-0.0701111
-0.0627581
-0.055511
-0.0484287
-0.041573
-0.0350076
-0.0287983
-0.0230119
-0.0177164
-0.0129798
-0.00887047
-0.00545315
-0.0027861
-0.000961281
-0.000137771
-0.000138798
-0.000956905