/*--------------------------------*- C++ -*----------------------------------*\
| =========                 |                                                 |
| \\      /  F ield         | OpenFOAM: The Open Source CFD Toolbox           |
|  \\    /   O peration     | Version:  2506                                  |
|   \\  /    A nd           | Website:  www.openfoam.com                      |
|    \\/     M anipulation  |                                                 |
\*---------------------------------------------------------------------------*/
FoamFile
{
    version     2.0;
    format      ascii;
    arch        "LSB;label=32;scalar=64";
    class       volScalarField;
    location    "0.775";
    object      Uy;
}
// * * * * * * * * * * * * * * * * * * * * * * * * * * * * * * * * * * * * * //

dimensions      [0 1 -1 0 0 0 0];

internalField   nonuniform List<scalar> 
6400
(
-7.24591e-06
-1.44457e-05
-1.41806e-05
-9.73997e-06
-3.43057e-06
3.54367e-06
1.05674e-05
1.73211e-05
2.36421e-05
2.9449e-05
3.47036e-05
3.9391e-05
4.35097e-05
4.70664e-05
5.00731e-05
5.25448e-05
5.44989e-05
5.59539e-05
5.69292e-05
5.7445e-05
5.75217e-05
5.71798e-05
5.644e-05
5.53229e-05
5.38489e-05
5.20384e-05
4.99118e-05
4.74891e-05
4.47903e-05
4.18355e-05
3.86444e-05
3.52371e-05
3.16335e-05
2.78538e-05
2.3918e-05
1.98468e-05
1.56608e-05
1.13812e-05
7.0294e-06
2.62721e-06
-1.80304e-06
-6.23861e-06
-1.06562e-05
-1.50322e-05
-1.93423e-05
-2.35619e-05
-2.76658e-05
-3.16287e-05
-3.54247e-05
-3.9028e-05
-4.24123e-05
-4.55514e-05
-4.84193e-05
-5.09901e-05
-5.32381e-05
-5.51381e-05
-5.66658e-05
-5.77972e-05
-5.85097e-05
-5.87815e-05
-5.85922e-05
-5.79226e-05
-5.67555e-05
-5.50752e-05
-5.28684e-05
-5.01239e-05
-4.68335e-05
-4.29924e-05
-3.86004e-05
-3.36633e-05
-2.81963e-05
-2.22289e-05
-1.58151e-05
-9.05264e-06
-2.12097e-06
4.64549e-06
1.06212e-05
1.46091e-05
1.43633e-05
6.87412e-06
-2.98113e-05
-5.15093e-05
-4.40935e-05
-1.91116e-05
1.53135e-05
5.41469e-05
9.43057e-05
0.000133898
0.000171764
0.000207185
0.000239724
0.00026912
0.000295226
0.000317977
0.000337362
0.000353411
0.000366178
0.000375742
0.000382193
0.000385636
0.000386183
0.00038395
0.000379062
0.000371642
0.000361821
0.000349726
0.000335491
0.000319247
0.000301127
0.000281264
0.000259795
0.000236854
0.000212578
0.000187106
0.000160577
0.000133131
0.000104914
7.60689e-05
4.67455e-05
1.70938e-05
-1.27328e-05
-4.25782e-05
-7.22834e-05
-0.000101687
-0.000130624
-0.000158928
-0.000186429
-0.000212958
-0.000238342
-0.000262408
-0.000284982
-0.000305894
-0.000324971
-0.000342045
-0.00035695
-0.000369526
-0.000379618
-0.000387075
-0.000391759
-0.000393538
-0.000392292
-0.000387914
-0.000380311
-0.000369408
-0.00035515
-0.000337506
-0.000316472
-0.000292081
-0.000264411
-0.0002336
-0.000199869
-0.00016356
-0.000125191
-8.5552e-05
-4.58739e-05
-8.0946e-06
2.46971e-05
4.75473e-05
5.2611e-05
2.92269e-05
-5.94458e-05
-8.99446e-05
-6.05033e-05
6.71713e-06
9.62926e-05
0.00019756
0.000303283
0.000408617
0.000510338
0.000606299
0.000695083
0.000775775
0.000847803
0.000910846
0.000964759
0.00100953
0.00104523
0.00107202
0.00109012
0.00109976
0.00110124
0.00109485
0.00108093
0.00105981
0.00103185
0.000997407
0.000956845
0.000910536
0.000858858
0.000802192
0.000740921
0.000675435
0.000606126
0.000533392
0.000457634
0.000379261
0.000298686
0.000216329
0.000132616
4.79821e-05
-3.7132e-05
-0.000122277
-0.000206997
-0.000290827
-0.000373298
-0.000453932
-0.000532248
-0.000607759
-0.000679978
-0.000748413
-0.000812575
-0.000871979
-0.000926145
-0.000974598
-0.00101688
-0.00105254
-0.00108115
-0.0011023
-0.00111561
-0.00112073
-0.00111734
-0.00110517
-0.00108398
-0.0010536
-0.00101392
-0.000964919
-0.000906644
-0.000839275
-0.000763136
-0.000678737
-0.000586844
-0.000488573
-0.000385532
-0.000280043
-0.000175474
-7.67457e-05
8.93618e-06
7.11357e-05
9.50129e-05
5.98439e-05
-8.12455e-05
-0.000104464
-3.52035e-05
9.36964e-05
0.000259461
0.000445532
0.000640038
0.000834613
0.0010234
0.00120231
0.00136854
0.00152017
0.00165595
0.0017751
0.00187722
0.00196215
0.00202995
0.00208084
0.00211513
0.00213327
0.00213573
0.00212309
0.00209592
0.00205487
0.00200058
0.00193375
0.00185506
0.00176524
0.00166499
0.00155507
0.0014362
0.00130915
0.00117469
0.00103357
0.000886589
0.000734541
0.00057823
0.000418477
0.000256113
9.19847e-05
-7.30479e-05
-0.000238111
-0.000402316
-0.000564763
-0.000724539
-0.000880719
-0.00103237
-0.00117856
-0.00131833
-0.00145075
-0.00157487
-0.00168977
-0.00179452
-0.00188821
-0.00196998
-0.00203896
-0.00209436
-0.00213539
-0.00216136
-0.0021716
-0.00216554
-0.00214269
-0.00210264
-0.00204512
-0.00196999
-0.00187725
-0.00176711
-0.00164001
-0.0014967
-0.00133827
-0.00116634
-0.000983173
-0.000791911
-0.000596935
-0.000404328
-0.00022257
-6.34574e-05
5.68143e-05
0.000116298
8.39132e-05
-8.71089e-05
-7.96051e-05
4.99555e-05
0.000259801
0.000520519
0.000810038
0.00111195
0.00141425
0.00170822
0.00198757
0.00224781
0.00248579
0.00269935
0.0028871
0.00304822
0.00318234
0.00328941
0.00336968
0.00342357
0.00345168
0.00345475
0.0034336
0.00338915
0.00332238
0.00323432
0.00312604
0.00299864
0.00285327
0.00269107
0.00251324
0.00232096
0.00211545
0.00189796
0.00166973
0.00143203
0.00118614
0.000933393
0.000675099
0.000412613
0.000147308
-0.000119423
-0.000386164
-0.000651479
-0.00091391
-0.00117198
-0.00142421
-0.00166908
-0.00190509
-0.00213071
-0.00234444
-0.00254477
-0.00273019
-0.00289926
-0.00305051
-0.00318256
-0.00329407
-0.00338374
-0.00345038
-0.00349288
-0.00351022
-0.00350152
-0.00346604
-0.00340321
-0.00331264
-0.0031942
-0.00304799
-0.00287446
-0.00267443
-0.00244922
-0.00220072
-0.00193164
-0.00164563
-0.00134769
-0.00104454
-0.000745228
-0.000461907
-0.000210902
-1.3838e-05
0.000100835
9.32145e-05
-7.38292e-05
-7.42191e-06
0.000205523
0.000516593
0.000890826
0.00130128
0.00172737
0.00215356
0.00256827
0.00296288
0.00333108
0.00366831
0.00397136
0.00423808
0.00446715
0.00465785
0.00480999
0.00492378
0.00499973
0.00503862
0.00504141
0.00500924
0.00494337
0.00484518
0.00471611
0.00455771
0.00437154
0.00415923
0.00392247
0.00366295
0.00338242
0.00308264
0.0027654
0.00243255
0.00208592
0.0017274
0.00135889
0.000982352
0.000599741
0.000213065
-0.000175644
-0.000564321
-0.000950872
-0.00133318
-0.00170909
-0.00207644
-0.00243305
-0.00277672
-0.00310526
-0.00341648
-0.00370819
-0.00397824
-0.00422452
-0.00444495
-0.00463753
-0.00480035
-0.00493157
-0.00502948
-0.00509252
-0.00511926
-0.00510851
-0.00505924
-0.0049707
-0.00484244
-0.00467434
-0.00446666
-0.00422018
-0.00393622
-0.00361678
-0.00326474
-0.00288403
-0.00247992
-0.0020594
-0.00163166
-0.00120875
-0.000806424
-0.000445212
-0.000151595
4.04623e-05
8.43901e-05
-4.01611e-05
0.000116275
0.000437763
0.000871391
0.00137786
0.00192616
0.00249199
0.00305663
0.00360571
0.00412833
0.00461629
0.00506358
0.00546583
0.00582006
0.0061243
0.00637748
0.00657919
0.00672955
0.00682914
0.00687889
0.00688001
0.00683397
0.0067424
0.0066071
0.00642999
0.0062131
0.00595855
0.00566854
0.0053453
0.00499115
0.00460845
0.00419958
0.003767
0.00331319
0.00284067
0.00235199
0.00184978
0.00133666
0.000815338
0.000288527
-0.000240998
-0.000770427
-0.00129691
-0.00181757
-0.00232948
-0.00282971
-0.00331529
-0.00378325
-0.00423062
-0.00465443
-0.00505174
-0.00541965
-0.0057553
-0.00605592
-0.00631881
-0.00654141
-0.00672127
-0.00685613
-0.00694392
-0.00698277
-0.00697112
-0.00690767
-0.00679149
-0.00662206
-0.00639933
-0.00612378
-0.00579657
-0.00541959
-0.00499567
-0.00452874
-0.00402408
-0.00348867
-0.00293155
-0.00236439
-0.00180215
-0.00126392
-0.00077399
-0.00036298
-6.9237e-05
5.60665e-05
1.41548e-05
0.000293317
0.000749949
0.00132838
0.00198614
0.00268895
0.00340942
0.00412595
0.00482166
0.00548346
0.00610136
0.00666782
0.00717734
0.00762599
0.0080112
0.00833143
0.00858601
0.00877498
0.00889894
0.00895898
0.00895656
0.00889346
0.00877172
0.00859359
0.00836151
0.00807806
0.00774593
0.00736792
0.00694694
0.00648596
0.005988
0.00545618
0.00489364
0.00430362
0.00368938
0.00305425
0.0024016
0.00173487
0.00105753
0.000373147
-0.000314705
-0.00100238
-0.00168618
-0.00236238
-0.0030272
-0.00367683
-0.00430745
-0.00491523
-0.00549632
-0.0060469
-0.00656318
-0.00704143
-0.00747799
-0.00786929
-0.00821189
-0.0085025
-0.00873803
-0.00891559
-0.00903256
-0.00908662
-0.0090758
-0.00899852
-0.00885368
-0.0086407
-0.00835962
-0.00801119
-0.00759697
-0.00711953
-0.00658254
-0.00599107
-0.00535181
-0.00467345
-0.00396707
-0.00324672
-0.00253007
-0.00183922
-0.00120171
-0.000651524
-0.000230296
7.88647e-06
8.88214e-05
0.000523998
0.00114325
0.00188946
0.00271796
0.00359203
0.00448171
0.00536297
0.00621669
0.00702779
0.00778457
0.00847807
0.00910161
0.00965039
0.0101211
0.0105119
0.0108217
0.0110504
0.0111987
0.0112678
0.0112595
0.0111758
0.0110193
0.0107925
0.0104986
0.0101407
0.00972206
0.00924621
0.00871673
0.00813731
0.00751172
0.00684385
0.00613762
0.00539707
0.00462627
0.00382939
0.00301065
0.00217436
0.00132486
0.000466594
-0.000395951
-0.00125822
-0.0021156
-0.00296342
-0.00379698
-0.00461152
-0.00540228
-0.00616447
-0.00689332
-0.00758407
-0.00823202
-0.00883251
-0.00938103
-0.00987314
-0.0103046
-0.0106713
-0.0109695
-0.0111957
-0.0113466
-0.0114193
-0.0114116
-0.0113215
-0.0111478
-0.0108899
-0.0105478
-0.0101226
-0.00961636
-0.00903228
-0.00837495
-0.00765056
-0.00686722
-0.0060353
-0.00516784
-0.00428111
-0.00339524
-0.00253497
-0.00173056
-0.00101863
-0.00044318
-5.99244e-05
0.000183263
0.000807693
0.00161745
0.00255492
0.00357404
0.00463627
0.00570968
0.00676821
0.0077908
0.00876062
0.00966441
0.0104919
0.0112353
0.0118889
0.0124488
0.0129126
0.0132791
0.0135479
0.01372
0.0137964
0.0137794
0.0136713
0.013475
0.0131938
0.0128312
0.012391
0.0118772
0.011294
0.0106457
0.00993673
0.00917174
0.00835538
0.00749245
0.00658782
0.00564647
0.00467345
0.0036739
0.00265305
0.0016162
0.000568735
-0.000483885
-0.00153612
-0.00258237
-0.00361696
-0.00463419
-0.00562828
-0.00659345
-0.0075239
-0.00841386
-0.00925756
-0.0100493
-0.0107835
-0.0114546
-0.0120574
-0.0125867
-0.0130376
-0.0134056
-0.0136864
-0.0138762
-0.0139716
-0.0139698
-0.0138686
-0.0136665
-0.013363
-0.0129581
-0.0124532
-0.0118509
-0.011155
-0.010371
-0.00950626
-0.00857018
-0.00757476
-0.00653487
-0.00546883
-0.00439893
-0.00335219
-0.0023611
-0.00146432
-0.000707414
-0.000146844
0.000296788
0.00114328
0.00217152
0.00332401
0.00455393
0.00582148
0.00709322
0.00834145
0.00954351
0.010681
0.0117394
0.0127071
0.0135754
0.0143378
0.0149898
0.0155285
0.0159524
0.0162613
0.0164557
0.0165374
0.0165084
0.0163717
0.0161306
0.0157889
0.0153508
0.0148207
0.0142032
0.0135033
0.0127262
0.0118771
0.0109614
0.00998469
0.00895267
0.00787112
0.00674595
0.00558317
0.00438888
0.00316931
0.00193076
0.000679619
-0.000577606
-0.00183434
-0.00308393
-0.00431963
-0.00553468
-0.00672222
-0.00787539
-0.00898733
-0.0100512
-0.0110601
-0.0120074
-0.0128863
-0.0136906
-0.0144137
-0.0150497
-0.0155929
-0.0160378
-0.0163795
-0.0166135
-0.0167358
-0.0167432
-0.0166331
-0.0164039
-0.0160548
-0.0155861
-0.0149994
-0.0142978
-0.0134856
-0.0125694
-0.0115574
-0.0104604
-0.00929194
-0.0080685
-0.00681024
-0.00554138
-0.00429083
-0.0030929
-0.00198776
-0.00102201
-0.000252225
0.000428681
0.00152938
0.00280394
0.00419534
0.00565647
0.00714672
0.00863151
0.0100819
0.0114739
0.0127879
0.0140081
0.0151219
0.0161198
0.0169944
0.0177407
0.0183556
0.0188372
0.0191852
0.0194004
0.0194845
0.0194401
0.0192704
0.0189793
0.018571
0.0180505
0.0174227
0.0166932
0.0158677
0.014952
0.0139524
0.0128751
0.0117267
0.0105138
0.00924302
0.00792139
0.00655588
0.00515363
0.00372188
0.00226801
0.000799464
-0.000676163
-0.0021512
-0.00361788
-0.00506836
-0.00649473
-0.00788901
-0.00924321
-0.0105493
-0.0117994
-0.0129854
-0.0140996
-0.0151342
-0.0160817
-0.0169348
-0.0176865
-0.01833
-0.0188593
-0.0192683
-0.0195521
-0.019706
-0.0197263
-0.0196101
-0.0193554
-0.0189614
-0.0184285
-0.0177585
-0.0169548
-0.0160225
-0.0149689
-0.0138032
-0.0125376
-0.0111866
-0.00976857
-0.00830511
-0.00682211
-0.00535013
-0.00392489
-0.00258768
-0.00138573
-0.00037539
0.000578248
0.00196457
0.00351296
0.00516717
0.00688005
0.00861055
0.0103233
0.0119884
0.0135809
0.0150801
0.0164691
0.0177346
0.0188662
0.019856
0.0206986
0.0213904
0.0219295
0.0223155
0.0225494
0.022633
0.0225693
0.0223619
0.0220153
0.0215343
0.0209244
0.0201914
0.0193416
0.0183814
0.0173178
0.0161577
0.0149084
0.0135773
0.012172
0.0107003
0.0091701
0.00758948
0.00596664
0.00430988
0.00262769
0.000928647
-0.000778549
-0.00248508
-0.00418201
-0.00586034
-0.00751098
-0.00912478
-0.0106926
-0.0122051
-0.0136533
-0.015028
-0.0163203
-0.0175212
-0.0186221
-0.0196147
-0.020491
-0.0212432
-0.0218642
-0.0223474
-0.0226868
-0.0228774
-0.0229147
-0.0227955
-0.0225175
-0.0220798
-0.0214827
-0.0207283
-0.0198204
-0.0187646
-0.0175688
-0.0162433
-0.0148012
-0.0132585
-0.0116347
-0.00995283
-0.0082403
-0.00652895
-0.00485568
-0.0032626
-0.00179729
-0.000515691
0.000744849
0.00244743
0.00429682
0.0062376
0.00822286
0.0102113
0.0121671
0.0140596
0.0158631
0.0175561
0.0191209
0.0205435
0.0218128
0.0229206
0.023861
0.0246302
0.0252263
0.0256488
0.0258989
0.0259788
0.0258917
0.0256418
0.025234
0.0246739
0.0239677
0.0231219
0.0221436
0.0210401
0.0198192
0.0184889
0.0170573
0.0155329
0.0139243
0.0122403
0.01049
0.00868235
0.00682679
0.00493274
0.00300979
0.00106769
-0.000883694
-0.00283436
-0.00477418
-0.00669295
-0.00858035
-0.010426
-0.0122195
-0.0139505
-0.0156085
-0.0171833
-0.0186645
-0.0200423
-0.0213068
-0.0224484
-0.0234582
-0.0243274
-0.0250479
-0.0256122
-0.0260136
-0.0262462
-0.0263051
-0.0261865
-0.0258878
-0.0254079
-0.0247471
-0.0239077
-0.0228936
-0.021711
-0.0203685
-0.0188772
-0.017251
-0.0155072
-0.0136662
-0.0117526
-0.0097949
-0.00782602
-0.00588381
-0.00401104
-0.00225546
-0.000672537
0.000927909
0.00297665
0.00515378
0.00740476
0.00968301
0.0119472
0.0141612
0.016294
0.0183192
0.0202147
0.0219622
0.0235472
0.0249582
0.0261866
0.0272261
0.0280729
0.0287251
0.0291824
0.029446
0.0295186
0.0294038
0.0291063
0.0286317
0.0279861
0.0271765
0.0262103
0.0250953
0.0238399
0.0224527
0.0209425
0.0193187
0.0175907
0.0157682
0.013861
0.0118793
0.00983323
0.00773332
0.00559015
0.00341449
0.00121726
-0.000990461
-0.00319745
-0.00539236
-0.00756372
-0.00969999
-0.0117895
-0.0138206
-0.0157817
-0.0176609
-0.0194469
-0.021128
-0.0226931
-0.0241312
-0.0254316
-0.026584
-0.0275788
-0.0284067
-0.0290593
-0.0295291
-0.0298095
-0.0298948
-0.0297807
-0.0294643
-0.0289442
-0.0282206
-0.0272957
-0.0261739
-0.0248616
-0.0233679
-0.0217047
-0.0198868
-0.0179322
-0.0158628
-0.0137038
-0.0114849
-0.00924009
-0.0070079
-0.00483161
-0.00275911
-0.000845418
0.00112693
0.00355104
0.00608226
0.00866687
0.0112587
0.0138165
0.0163041
0.0186901
0.0209478
0.0230545
0.0249918
0.0267445
0.028301
0.0296522
0.0307921
0.0317166
0.0324238
0.0329139
0.0331882
0.0332497
0.0331028
0.0327525
0.0322051
0.0314676
0.0305476
0.0294534
0.0281937
0.0267777
0.0252152
0.0235159
0.0216902
0.0197486
0.0177018
0.0155608
0.0133368
0.0110413
0.00868576
0.00628206
0.00384214
0.00137814
-0.00109764
-0.00357274
-0.00603454
-0.0084703
-0.0108672
-0.0132123
-0.0154926
-0.0176951
-0.0198069
-0.0218151
-0.023707
-0.0254699
-0.0270917
-0.0285605
-0.0298648
-0.0309938
-0.0319373
-0.0326858
-0.0332308
-0.033565
-0.0336819
-0.0335767
-0.0332459
-0.0326878
-0.0319025
-0.0308921
-0.029661
-0.0282162
-0.026567
-0.0247259
-0.0227084
-0.0205336
-0.0182239
-0.0158057
-0.0133095
-0.0107701
-0.00822675
-0.00572315
-0.00330731
-0.00103391
0.00134149
0.00416959
0.00708085
0.0100223
0.0129483
0.0158177
0.0185942
0.0212465
0.0237475
0.0260744
0.0282084
0.0301342
0.0318399
0.0333164
0.0345577
0.0355597
0.0363209
0.0368415
0.0371234
0.0371701
0.0369863
0.0365779
0.0359518
0.0351157
0.0340782
0.0328484
0.0314359
0.029851
0.0281043
0.0262067
0.0241696
0.0220045
0.0197234
0.0173383
0.0148616
0.0123058
0.00968387
0.00700862
0.00429329
0.00155124
-0.00120396
-0.00395858
-0.00669873
-0.00941039
-0.0120794
-0.0146915
-0.0172324
-0.0196877
-0.0220432
-0.0242846
-0.0263979
-0.0283692
-0.0301849
-0.0318319
-0.0332975
-0.0345697
-0.0356371
-0.0364893
-0.0371167
-0.0375109
-0.037665
-0.0375733
-0.0372317
-0.0366382
-0.0357925
-0.0346968
-0.0333553
-0.0317751
-0.029966
-0.0279411
-0.0257163
-0.0233113
-0.0207494
-0.0180579
-0.015268
-0.0124152
-0.00953942
-0.00668474
-0.00389933
-0.00123768
0.00157123
0.00483143
0.00814837
0.0114698
0.0147503
0.0179492
0.0210302
0.0239619
0.0267172
0.0292733
0.031611
0.0337152
0.0355739
0.0371781
0.0385217
0.0396011
0.0404148
0.0409636
0.0412499
0.0412777
0.0410522
0.0405803
0.0398694
0.0389282
0.037766
0.036393
0.0348197
0.0330575
0.0311179
0.0290129
0.0267551
0.024357
0.0218318
0.0191925
0.0164529
0.0136266
0.0107276
0.00777014
0.00476859
0.00173759
-0.00130804
-0.00435328
-0.00738295
-0.0103817
-0.013334
-0.0162244
-0.019037
-0.0217563
-0.0243665
-0.0268521
-0.0291976
-0.0313877
-0.0334076
-0.0352428
-0.0368794
-0.038304
-0.039504
-0.0404679
-0.041185
-0.0416461
-0.0418432
-0.0417698
-0.0414215
-0.0407954
-0.039891
-0.0387101
-0.0372571
-0.0355389
-0.0335658
-0.0313508
-0.0289107
-0.0262656
-0.0234395
-0.0204604
-0.0173601
-0.0141749
-0.0109453
-0.00771572
-0.00453464
-0.0014565
0.00181589
0.00553587
0.00928382
0.013008
0.0166636
0.0202099
0.0236109
0.0268353
0.029856
0.0326501
0.0351988
0.0374868
0.0395022
0.0412362
0.0426831
0.0438395
0.0447044
0.045279
0.0455663
0.045571
0.045299
0.0447579
0.043956
0.0429029
0.041609
0.0400852
0.0383432
0.0363953
0.0342541
0.031933
0.0294452
0.0268048
0.0240259
0.0211228
0.0181103
0.0150034
0.0118171
0.00856709
0.00526885
0.0019383
-0.00140845
-0.00475511
-0.00808516
-0.0113819
-0.0146286
-0.0178082
-0.0209036
-0.0238979
-0.0267738
-0.0295144
-0.0321029
-0.0345225
-0.0367571
-0.0387906
-0.0406079
-0.0421942
-0.0435358
-0.0446197
-0.0454344
-0.0459693
-0.0462156
-0.046166
-0.0458151
-0.0451595
-0.0441983
-0.0429329
-0.0413673
-0.0395087
-0.0373671
-0.0349561
-0.0322926
-0.0293973
-0.0262947
-0.0230134
-0.0195859
-0.0160491
-0.0124441
-0.00881577
-0.00521294
-0.00169022
0.00207526
0.00628238
0.0104865
0.0146363
0.0186871
0.0225987
0.0263354
0.0298657
0.0331629
0.0362043
0.038971
0.0414481
0.043624
0.0454901
0.0470411
0.048274
0.0491886
0.0497864
0.0500713
0.0500485
0.049725
0.049109
0.0482099
0.0470382
0.0456053
0.043923
0.0420044
0.0398625
0.0375114
0.0349652
0.0322387
0.0293468
0.0263048
0.0231284
0.0198334
0.016436
0.0129527
0.00940004
0.00579495
0.00215459
-0.00150367
-0.00516222
-0.00880326
-0.0124087
-0.0159605
-0.0194402
-0.0228293
-0.0261094
-0.029262
-0.0322686
-0.0351108
-0.0377707
-0.0402303
-0.0424725
-0.0444805
-0.0462383
-0.0477306
-0.0489434
-0.0498636
-0.0504798
-0.0507818
-0.0507615
-0.0504126
-0.0497311
-0.0487152
-0.0473659
-0.0456871
-0.0436855
-0.0413713
-0.0387581
-0.0358631
-0.0327073
-0.0293158
-0.0257176
-0.0219459
-0.0180381
-0.0140359
-0.00998484
-0.00593414
-0.00193879
0.00234918
0.00707059
0.0117558
0.0163538
0.0208202
0.0251151
0.0292029
0.0330526
0.0366375
0.0399351
0.0429271
0.0455987
0.0479386
0.049939
0.0515948
0.0529039
0.0538664
0.0544847
0.0547635
0.0547089
0.0543286
0.053632
0.0526294
0.0513323
0.049753
0.0479048
0.0458016
0.0434576
0.0408881
0.0381083
0.0351341
0.0319817
0.0286676
0.0252087
0.0216219
0.0179246
0.0141346
0.0102696
0.00634787
0.00238775
-0.00159208
-0.00557273
-0.00953506
-0.0134597
-0.0173271
-0.0211175
-0.0248111
-0.0283879
-0.031828
-0.0351114
-0.0382183
-0.0411291
-0.0438246
-0.0462859
-0.0484949
-0.050434
-0.0520866
-0.0534372
-0.0544715
-0.0551766
-0.0555413
-0.0555564
-0.0552144
-0.0545106
-0.0534424
-0.0520103
-0.0502176
-0.0480708
-0.0455799
-0.0427584
-0.0396237
-0.0361972
-0.0325041
-0.0285741
-0.0244409
-0.0201425
-0.0157212
-0.0112232
-0.00669839
-0.00220224
0.00263759
0.00790029
0.0130914
0.0181602
0.0230625
0.0277586
0.0322132
0.0363955
0.0402792
0.0438423
0.0470666
0.0499379
0.0524456
0.0545823
0.0563437
0.0577281
0.0587367
0.0593728
0.0596417
0.0595507
0.0591084
0.0583253
0.0572127
0.0557833
0.0540505
0.0520287
0.0497329
0.0471788
0.0443825
0.0413607
0.0381303
0.0347087
0.0311136
0.0273631
0.0234754
0.0194692
0.0153632
0.0111765
0.00692862
0.00263913
-0.00167202
-0.00598464
-0.0102783
-0.0145322
-0.0187256
-0.0228372
-0.0268458
-0.03073
-0.0344684
-0.0380395
-0.0414219
-0.0445946
-0.0475367
-0.0502279
-0.0526483
-0.054779
-0.0566018
-0.0580996
-0.0592567
-0.0600589
-0.0604936
-0.0605504
-0.0602207
-0.0594987
-0.0583811
-0.0568674
-0.0549605
-0.0526663
-0.0499946
-0.0469589
-0.0435764
-0.0398686
-0.0358613
-0.0315844
-0.0270722
-0.0223634
-0.0175008
-0.0125315
-0.00750603
-0.00248068
0.00294045
0.00877138
0.0144932
0.0200553
0.0254138
0.030529
0.0353659
0.0398942
0.0440879
0.0479254
0.0513892
0.0544656
0.0571446
0.0594195
0.0612868
0.0627459
0.0637987
0.0644495
0.0647046
0.0645724
0.0640628
0.0631871
0.061958
0.0603893
0.0584957
0.0562927
0.0537966
0.0510242
0.047993
0.0447207
0.0412257
0.0375264
0.0336418
0.0295911
0.0253938
0.0210697
0.0166388
0.0121214
0.00753825
0.00291015
-0.00174171
-0.00639584
-0.0110305
-0.0156237
-0.020153
-0.0245961
-0.0289302
-0.0331324
-0.0371797
-0.0410493
-0.0447182
-0.0481638
-0.0513635
-0.0542954
-0.0569381
-0.0592708
-0.0612739
-0.0629287
-0.0642178
-0.0651256
-0.0656382
-0.0657434
-0.0654318
-0.0646961
-0.0635322
-0.0619386
-0.0599173
-0.0574739
-0.0546177
-0.0513617
-0.0477232
-0.0437238
-0.0393895
-0.0347505
-0.0298416
-0.0247023
-0.019376
-0.0139106
-0.00835763
-0.00277432
0.00325779
0.00968393
0.0159613
0.0220393
0.0278741
0.0334263
0.0386612
0.0435488
0.0480636
0.0521846
0.0558948
0.0591814
0.062035
0.06445
0.0664236
0.0679564
0.0690512
0.0697134
0.0699507
0.0697724
0.0691898
0.0682154
0.0668631
0.0651481
0.0630863
0.0606945
0.0579903
0.0549918
0.0517175
0.0481867
0.0444187
0.0404335
0.036251
0.0318918
0.0273764
0.022726
0.0179617
0.013105
0.00817784
0.00320226
-0.00179932
-0.00680415
-0.0117892
-0.0167311
-0.0216063
-0.0263908
-0.0310605
-0.0355911
-0.0399582
-0.0441371
-0.0481034
-0.0518328
-0.0553012
-0.058485
-0.0613608
-0.0639065
-0.0661004
-0.0679223
-0.0693532
-0.0703757
-0.0709741
-0.0711352
-0.0708478
-0.0701035
-0.0688968
-0.0672252
-0.06509
-0.0624958
-0.0594513
-0.0559693
-0.0520668
-0.0477654
-0.0430911
-0.0380746
-0.0327513
-0.027161
-0.0213483
-0.0153617
-0.00925394
-0.00308343
0.00358969
0.0106381
0.017496
0.0241125
0.0304439
0.036451
0.0420994
0.0473595
0.0522065
0.0566198
0.0605833
0.064085
0.0671165
0.0696731
0.0717533
0.0733584
0.0744929
0.0751632
0.0753783
0.0751488
0.0744874
0.073408
0.0719258
0.0700574
0.0678199
0.0652317
0.0623116
0.059079
0.0555538
0.0517565
0.0477076
0.0434284
0.03894
0.0342642
0.0294228
0.024438
0.0193321
0.0141279
0.00884842
0.00351692
-0.00184296
-0.00720726
-0.0125517
-0.0178516
-0.023082
-0.0282177
-0.033233
-0.0381023
-0.0427995
-0.0472984
-0.0515732
-0.0555976
-0.0593459
-0.0627927
-0.0659131
-0.0686827
-0.0710785
-0.0730781
-0.0746607
-0.0758073
-0.0765006
-0.0767253
-0.0764689
-0.0757214
-0.0744759
-0.0727289
-0.0704803
-0.0677341
-0.064498
-0.0607844
-0.05661
-0.0519962
-0.0469691
-0.0415597
-0.0358038
-0.0297419
-0.0234196
-0.0168863
-0.0101959
-0.00340835
0.00393626
0.0116342
0.0190976
0.0262753
0.0331236
0.0396036
0.045681
0.0513269
0.0565168
0.0612313
0.0654548
0.0691764
0.0723888
0.0750883
0.0772748
0.0789509
0.0801223
0.080797
0.0809853
0.0806993
0.0799531
0.0787622
0.0771432
0.0751141
0.0726936
0.0699013
0.0667576
0.0632831
0.0594992
0.0554275
0.05109
0.0465091
0.0417072
0.0367071
0.031532
0.0262051
0.0207501
0.0151906
0.00955099
0.00385562
-0.00187069
-0.00760277
-0.0133151
-0.0189818
-0.0245765
-0.0300728
-0.0354434
-0.0406614
-0.045699
-0.0505287
-0.0551227
-0.0594533
-0.0634929
-0.0672143
-0.0705906
-0.0735957
-0.0762045
-0.0783928
-0.0801379
-0.0814187
-0.0822159
-0.0825127
-0.0822946
-0.08155
-0.0802705
-0.078451
-0.0760903
-0.0731911
-0.0697605
-0.06581
-0.061356
-0.0564195
-0.0510267
-0.0452088
-0.039002
-0.0324477
-0.0255921
-0.0184861
-0.0111847
-0.00374951
0.00429766
0.0126727
0.0207667
0.0285285
0.0359141
0.0428848
0.0494068
0.0554515
0.0609953
0.0660193
0.0705094
0.0744553
0.0778513
0.0806948
0.0829871
0.0847324
0.0859377
0.0866128
0.0867693
0.0864212
0.0855841
0.0842749
0.082512
0.0803148
0.0777038
0.0746998
0.0713248
0.0676008
0.0635505
0.0591969
0.0545633
0.0496732
0.0445505
0.039219
0.033703
0.0280269
0.0222154
0.0162935
0.0102865
0.00421981
-0.0018805
-0.00798816
-0.0140764
-0.0201182
-0.026086
-0.0319517
-0.0376871
-0.0432634
-0.0486517
-0.0538226
-0.0587467
-0.0633947
-0.067737
-0.0717445
-0.0753885
-0.078641
-0.0814745
-0.083863
-0.0857816
-0.0872072
-0.0881184
-0.0884963
-0.0883244
-0.0875895
-0.0862811
-0.0843927
-0.0819216
-0.0788692
-0.0752416
-0.0710493
-0.0663082
-0.0610389
-0.0552675
-0.0490255
-0.0423494
-0.0352813
-0.0278686
-0.0201632
-0.0122216
-0.0041074
0.00467409
0.013754
0.0225042
0.0308729
0.0388163
0.0462957
0.0532776
0.0597341
0.0656423
0.0709844
0.0757471
0.0799216
0.0835034
0.0864916
0.0888889
0.0907011
0.0919371
0.092608
0.0927276
0.0923114
0.0913767
0.0899424
0.0880283
0.0856557
0.0828464
0.0796231
0.0760091
0.072028
0.0677039
0.0630611
0.0581242
0.052918
0.0474674
0.0417977
0.0359341
0.0299022
0.0237278
0.0174368
0.0110556
0.00461089
-0.0018704
-0.00836082
-0.0148325
-0.0212572
-0.027606
-0.0338499
-0.0399589
-0.0459031
-0.0516518
-0.0571742
-0.0624392
-0.0674156
-0.0720721
-0.0763776
-0.0803014
-0.0838132
-0.0868836
-0.0894843
-0.0915881
-0.0931696
-0.0942053
-0.0946741
-0.0945573
-0.0938394
-0.0925082
-0.0905552
-0.0879761
-0.0847708
-0.0809441
-0.0765056
-0.0714702
-0.0658582
-0.0596956
-0.0530136
-0.0458496
-0.0382463
-0.0302518
-0.0219198
-0.0133082
-0.00448256
0.0050658
0.0148787
0.0243108
0.0333097
0.0418314
0.0498374
0.0572946
0.0641757
0.0704588
0.0761269
0.0811681
0.085575
0.0893446
0.0924777
0.0949786
0.0968551
0.0981178
0.0987799
0.0988568
0.0983662
0.0973271
0.0957603
0.0936876
0.0911318
0.0881166
0.0846663
0.0808058
0.0765602
0.071955
0.0670159
0.0617688
0.0562399
0.0504551
0.0444409
0.0382236
0.0318299
0.0252865
0.0186205
0.0118592
0.0050302
-0.00183836
-0.00871806
-0.01558
-0.0223947
-0.0291322
-0.0357621
-0.0422533
-0.0485743
-0.054693
-0.060577
-0.0661934
-0.0715093
-0.0764915
-0.0811069
-0.0853226
-0.0891062
-0.0924261
-0.0952514
-0.0975527
-0.099302
-0.100474
-0.101044
-0.100991
-0.100299
-0.0989517
-0.0969393
-0.0942553
-0.0908981
-0.0868709
-0.0821822
-0.0768459
-0.0708816
-0.064315
-0.0571776
-0.0495068
-0.0413462
-0.0327451
-0.0237585
-0.0144461
-0.00487563
0.00547305
0.0160477
0.0261876
0.0358401
0.0449608
0.0535113
0.0614591
0.0687775
0.0754454
0.0814473
0.0867725
0.0914152
0.095374
0.0986516
0.101254
0.103192
0.104477
0.105125
0.105153
0.104581
0.10343
0.101724
0.0994844
0.0967377
0.0935088
0.0898238
0.0857092
0.0811918
0.0762984
0.0710563
0.0654927
0.0596347
0.0535098
0.0471454
0.0405689
0.033808
0.0268904
0.0198442
0.0126975
0.00547898
-0.00178236
-0.00905711
-0.0163153
-0.0235265
-0.0306596
-0.037683
-0.0445642
-0.0512705
-0.0577683
-0.0640236
-0.0700018
-0.0756682
-0.0809876
-0.0859248
-0.0904449
-0.094513
-0.0980952
-0.101158
-0.10367
-0.1056
-0.106919
-0.107602
-0.107625
-0.106967
-0.105611
-0.103545
-0.100761
-0.0972533
-0.093025
-0.0880827
-0.0824392
-0.0761134
-0.0691305
-0.0615219
-0.0533254
-0.0445853
-0.035352
-0.025682
-0.0156371
-0.00528728
0.00589617
0.0172617
0.0281359
0.0384655
0.048206
0.057319
0.0657725
0.0735406
0.0806032
0.0869461
0.0925602
0.0974415
0.10159
0.105012
0.107714
0.109708
0.111011
0.111638
0.111611
0.110951
0.109681
0.107826
0.105413
0.102467
0.0990163
0.0950889
0.0907128
0.0859164
0.0807281
0.0751766
0.0692902
0.0630976
0.0566273
0.0499076
0.0429671
0.0358344
0.0285382
0.0211073
0.0135709
0.00595833
-0.00170044
-0.00937513
-0.0170349
-0.0246482
-0.0321829
-0.0396064
-0.046885
-0.0539845
-0.0608699
-0.0675058
-0.0738559
-0.0798834
-0.0855514
-0.0908226
-0.0956596
-0.100025
-0.103883
-0.107197
-0.109933
-0.112057
-0.113537
-0.114345
-0.114454
-0.113841
-0.112486
-0.110373
-0.107493
-0.103838
-0.0994088
-0.0942104
-0.0882542
-0.0815581
-0.0741467
-0.0660513
-0.0573101
-0.0479678
-0.0380763
-0.0276936
-0.0168834
-0.00571827
0.00633549
0.0185215
0.0301569
0.0411876
0.0515688
0.0612622
0.0702364
0.0784663
0.0859331
0.0926239
0.0985313
0.103653
0.107992
0.111556
0.114354
0.116401
0.117715
0.118316
0.118226
0.117469
0.116072
0.114061
0.111465
0.108312
0.104631
0.100454
0.0958089
0.0907266
0.0852369
0.0793698
0.0731552
0.0666228
0.0598022
0.052723
0.0454145
0.0379063
0.0302279
0.0224089
0.0144792
0.00646915
-0.00159071
-0.00966923
-0.0177347
-0.0257548
-0.0336965
-0.0415259
-0.0492083
-0.0567082
-0.0639894
-0.0710146
-0.0777462
-0.0841454
-0.0901733
-0.0957904
-0.100957
-0.105634
-0.109781
-0.11336
-0.116334
-0.118666
-0.120321
-0.121267
-0.121475
-0.120918
-0.119573
-0.117422
-0.114452
-0.110654
-0.106025
-0.100569
-0.0942949
-0.0872203
-0.0793687
-0.0707711
-0.0614659
-0.0514986
-0.0409222
-0.0297963
-0.0181869
-0.00616941
0.00679142
0.0198283
0.0322522
0.0440081
0.055051
0.0653428
0.0748526
0.0835561
0.091436
0.0984809
0.104685
0.11005
0.114578
0.118281
0.121171
0.123266
0.124585
0.125152
0.124991
0.124129
0.122596
0.12042
0.117632
0.114263
0.110345
0.10591
0.100989
0.0956137
0.0898163
0.0836281
0.0770802
0.0702035
0.0630287
0.0555863
0.0479067
0.0400201
0.0319569
0.0237474
0.0154222
0.00701216
-0.00145135
-0.00993654
-0.018411
-0.0268415
-0.0351943
-0.0434344
-0.0515262
-0.059433
-0.0671171
-0.07454
-0.0816622
-0.0884432
-0.0948421
-0.100817
-0.106326
-0.111327
-0.115778
-0.119638
-0.122864
-0.125419
-0.127263
-0.128362
-0.128682
-0.128194
-0.126871
-0.124692
-0.121639
-0.117702
-0.112876
-0.107161
-0.100565
-0.0931047
-0.0848016
-0.0756866
-0.0657982
-0.0551826
-0.043894
-0.0319938
-0.0195502
-0.00664159
0.00726438
0.0211832
0.0344233
0.046929
0.0586548
0.0695629
0.0796228
0.0888115
0.0971129
0.104518
0.111022
0.116629
0.121346
0.125185
0.128162
0.130297
0.131614
0.132139
0.131898
0.130923
0.129244
0.126894
0.123905
0.120312
0.116148
0.111447
0.106242
0.100568
0.0944569
0.0879424
0.0810567
0.0738319
0.0662996
0.0584915
0.0504385
0.0421718
0.0337223
0.0251209
0.016399
0.0075878
-0.00128069