/*--------------------------------*- C++ -*----------------------------------*\
| =========                 |                                                 |
| \\      /  F ield         | OpenFOAM: The Open Source CFD Toolbox           |
|  \\    /   O peration     | Version:  2506                                  |
|   \\  /    A nd           | Website:  www.openfoam.com                      |
|    \\/     M anipulation  |                                                 |
\*---------------------------------------------------------------------------*/
FoamFile
{
    version     2.0;
    format      ascii;
    arch        "LSB;label=32;scalar=64";
    class       volScalarField;
    location    "0.36";
    object      p;
}
// * * * * * * * * * * * * * * * * * * * * * * * * * * * * * * * * * * * * * //

dimensions      [0 2 -2 0 0 0 0];

internalField   nonuniform List<scalar> 
1600
(
6.36825e-06
-0.00118057
-0.00391004
-0.00758335
-0.0115277
-0.0152474
-0.0183848
-0.0206875
-0.021988
-0.0221865
-0.0212374
-0.0191388
-0.0159242
-0.0116564
-0.00642275
-0.00033098
0.00649397
0.0139127
0.0217739
0.0299167
0.0381728
0.0463698
0.0543331
0.06189
0.0688728
0.0751229
0.0804958
0.0848655
0.0881305
0.0902192
0.0910968
0.090772
0.089305
0.0868169
0.083501
0.0796365
0.0756034
0.0719103
0.0692251
0.0681088
0.00119958
8.83698e-06
-0.00220738
-0.00505839
-0.00810077
-0.0109693
-0.0133793
-0.0151179
-0.0160349
-0.0160343
-0.0150661
-0.0131187
-0.010213
-0.00639724
-0.00174244
0.0036607
0.00970502
0.0162695
0.0232219
0.0304207
0.0377181
0.0449619
0.0519992
0.0586787
0.0648544
0.0703896
0.0751609
0.0790627
0.0820121
0.0839539
0.0848663
0.0847662
0.0837154
0.081827
0.0792715
0.0762831
0.0731636
0.0702888
0.0681061
0.0669951
0.00394365
0.00221624
-3.04325e-05
-0.00258956
-0.00521802
-0.00764602
-0.00964999
-0.0110583
-0.0117453
-0.0116272
-0.0106582
-0.00882487
-0.00614266
-0.00265133
0.00158825
0.00649711
0.0119808
0.0179319
0.024232
0.0307546
0.0373665
0.0439311
0.0503107
0.0563694
0.0619766
0.0670102
0.071361
0.074936
0.0776635
0.0794969
0.0804196
0.0804494
0.0796427
0.0780982
0.0759602
0.0734195
0.0707162
0.0681321
0.0659256
0.064308
0.00770657
0.00509579
0.00245487
-0.000173891
-0.00272871
-0.00500978
-0.00684287
-0.00809627
-0.00867157
-0.00850202
-0.00755094
-0.00580894
-0.00329086
-3.29145e-05
0.00390992
0.00846629
0.0135506
0.0190653
0.0249024
0.0309461
0.0370746
0.0431622
0.0490823
0.0547099
0.0599245
0.0646138
0.0686769
0.0720281
0.0746009
0.0763517
0.0772637
0.0773502
0.0766575
0.0752674
0.0732967
0.0708974
0.0682618
0.0656051
0.0630145
0.0605463
0.0118945
0.00825544
0.00504687
0.00216647
-0.000490949
-0.00278159
-0.00457287
-0.00577018
-0.00630236
-0.00612106
-0.00520133
-0.0035402
-0.00115478
0.00191968
0.00563161
0.00991497
0.0146909
0.0198694
0.0253509
0.0310283
0.0367886
0.0425151
0.0480897
0.0533953
0.0583191
0.062755
0.0666077
0.0697952
0.072253
0.0739371
0.0748272
0.0749293
0.0742779
0.0729366
0.0709963
0.0685736
0.0658222
0.0629053
0.0597523
0.056283
0.0160812
0.011371
0.00750207
0.00425226
0.00137001
-0.00104381
-0.00289018
-0.00410718
-0.00464901
-0.00448563
-0.00360471
-0.00201124
0.000273543
0.00321336
0.00675808
0.0108449
0.0153998
0.0203382
0.0255672
0.0309862
0.036489
0.0419655
0.0473038
0.0523924
0.0571232
0.0613941
0.0651119
0.0681959
0.0705805
0.0722187
0.0730844
0.0731747
0.0725108
0.0711389
0.0691262
0.0665594
0.0635622
0.06026
0.0564447
0.051924
0.0199575
0.0141811
0.00960537
0.00591017
0.00271839
9.94896e-05
-0.00187351
-0.0031664
-0.0037561
-0.0036298
-0.00278784
-0.00124398
0.000975222
0.00383096
0.00727287
0.0112397
0.0156603
0.0204542
0.0255327
0.0308
0.0361548
0.0414913
0.0467017
0.0516778
0.0563138
0.0605088
0.0641695
0.0672135
0.0695721
0.0711927
0.0720417
0.0721058
0.0713932
0.0699332
0.0677723
0.064973
0.0616375
0.0578654
0.0533323
0.0477558
0.0232904
0.0164721
0.0111717
0.00698755
0.00343365
0.000556931
-0.00158924
-0.00299387
-0.00365377
-0.00357189
-0.00276083
-0.00124328
0.000948129
0.00377104
0.00717361
0.0110948
0.0154648
0.0202054
0.025231
0.0304487
0.0357601
0.0410622
0.0462492
0.051214
0.0558511
0.0600586
0.0637408
0.0668116
0.0691966
0.0708361
0.0716873
0.0717259
0.0709468
0.0693641
0.0670061
0.063916
0.0601815
0.0558865
0.0506069
0.0439868
0.0258979
0.0180647
0.0120365
0.00734105
0.00339535
0.000230351
-0.00211532
-0.00365012
-0.00438818
-0.00434678
-0.00355003
-0.00202953
0.000175671
0.00301895
0.00644605
0.010395
0.0147963
0.0195727
0.0246399
0.029907
0.0352768
0.0406474
0.0459132
0.0509668
0.0557009
0.0600105
0.0637959
0.0669649
0.0694358
0.0711401
0.0720246
0.072053
0.0712071
0.0694867
0.0669048
0.0634888
0.0593176
0.0544667
0.0484245
0.0407724
0.0276293
0.0188032
0.0120502
0.00683364
0.00248195
-0.000985452
-0.00354113
-0.00521008
-0.00602172
-0.00600633
-0.00519889
-0.0036397
-0.00137445
0.0015455
0.00506279
0.00911371
0.0136279
0.0185283
0.023731
0.0291451
0.034674
0.0402154
0.0456625
0.0509059
0.0558348
0.0603398
0.0643149
0.0676603
0.0702853
0.0721109
0.0730721
0.0731199
0.072223
0.0703674
0.0675524
0.0637929
0.059163
0.053735
0.0469175
0.0382357
0.0283519
0.0185462
0.011072
0.00533219
0.000570998
-0.00320071
-0.00596425
-0.00775911
-0.00862856
-0.00861491
-0.00776347
-0.00612313
-0.00374634
-0.000689537
0.00298629
0.00721504
0.0119249
0.0170379
0.0224696
0.0281288
0.0339178
0.039733
0.0454654
0.051002
0.0562275
0.0610261
0.0652842
0.0688926
0.0717498
0.0737647
0.0748592
0.0749705
0.0740535
0.0720807
0.0690388
0.064932
0.0598323
0.0538126
0.0462054
0.0364825
0.0279401
0.0171584
0.00896521
0.00270411
-0.00246263
-0.0065311
-0.0094899
-0.0113918
-0.0122931
-0.0122476
-0.0113107
-0.00953982
-0.00699428
-0.00373595
0.000170168
0.00465509
0.00964501
0.0150605
0.0208161
0.0268192
0.0329708
0.0391649
0.0452892
0.0512264
0.0568552
0.0620523
0.0666946
0.0706622
0.073841
0.076126
0.0774243
0.0776581
0.0767671
0.0747101
0.0714612
0.0670146
0.0614424
0.0548201
0.0464042
0.0356141
0.0262683
0.0145047
0.00559186
-0.00118609
-0.00674892
-0.0110989
-0.0142313
-0.0162119
-0.0171095
-0.0169895
-0.0159173
-0.0139591
-0.0111815
-0.0076519
-0.0034397
0.0013829
0.00673975
0.0125497
0.0187256
0.0251735
0.0317922
0.0384729
0.0450996
0.0515496
0.0576947
0.0634028
0.0685403
0.0729744
0.0765769
0.0792268
0.0808147
0.0812454
0.0804424
0.078349
0.0749261
0.070158
0.0641172
0.0568831
0.0476342
0.0357356
0.0232059
0.0104454
0.000808835
-0.00648012
-0.012425
-0.0170345
-0.0203104
-0.0223318
-0.0231807
-0.0229341
-0.0216683
-0.0194584
-0.0163786
-0.0125024
-0.00790368
-0.00265818
0.00315546
0.00945419
0.0161492
0.023145
0.030338
0.0376166
0.0448605
0.0519412
0.0587227
0.0650633
0.0708173
0.0758379
0.0799803
0.0831057
0.0850854
0.0858049
0.0851685
0.0831023
0.0795522
0.0744913
0.0679924
0.060139
0.0500267
0.0369637
0.0186123
0.00483143
-0.00553614
-0.013329
-0.0196377
-0.0244777
-0.0278585
-0.0298733
-0.0306183
-0.0301833
-0.0286561
-0.0261215
-0.022662
-0.0183574
-0.0132865
-0.0075287
-0.00116501
0.0057197
0.0130352
0.0206845
0.0285621
0.0365534
0.0445339
0.0523692
0.0599152
0.0670195
0.0735233
0.0792639
0.0840783
0.0878071
0.0902996
0.0914186
0.0910464
0.0890887
0.0854732
0.0801599
0.0732206
0.0647421
0.0537308
0.0394334
0.0123342
-0.00249901
-0.0136081
-0.0218964
-0.0285457
-0.0335799
-0.0370174
-0.0389675
-0.0395421
-0.0388456
-0.0369784
-0.0340366
-0.0301113
-0.0252895
-0.019655
-0.0132907
-0.00628005
0.00129081
0.00933069
0.0177416
0.0264167
0.0352391
0.0440805
0.0528006
0.0612472
0.0692568
0.0766563
0.0832658
0.0889015
0.093381
0.0965282
0.0981793
0.0981903
0.0964422
0.092841
0.0873294
0.0799761
0.0708701
0.0589191
0.0433038
0.00420178
-0.0117244
-0.0235886
-0.0323617
-0.0393228
-0.0445058
-0.0479404
-0.0497546
-0.0500791
-0.0490347
-0.0467369
-0.043294
-0.0388072
-0.0333711
-0.0270749
-0.0200049
-0.0122464
-0.00388626
0.00498418
0.014267
0.0238551
0.0336301
0.043461
0.0532021
0.0626934
0.0717603
0.0802149
0.0878581
0.0944838
0.099883
0.10385
0.106191
0.106729
0.105316
0.101829
0.09619
0.0884606
0.0787293
0.0657944
0.0487643
-0.00597472
-0.0230442
-0.03568
-0.0449243
-0.0521603
-0.0574352
-0.0607932
-0.0623849
-0.0623629
-0.0608685
-0.0580342
-0.053983
-0.0488275
-0.0426705
-0.0356071
-0.0277264
-0.0191152
-0.00985996
-5.08978e-05
0.0102156
0.0208336
0.031685
0.0426371
0.0535407
0.0642286
0.0745152
0.0841976
0.0930569
0.100862
0.107374
0.112353
0.115569
0.116808
0.115882
0.112637
0.106962
0.0989095
0.0885624
0.0745969
0.0560419
-0.0184087
-0.0366833
-0.0501106
-0.0598076
-0.0672714
-0.0725662
-0.0757554
-0.0770175
-0.0765324
-0.0744655
-0.0709706
-0.0661877
-0.0602425
-0.0532472
-0.0453024
-0.0365001
-0.0269273
-0.0166689
-0.00581204
0.00555021
0.0173153
0.0293675
0.0415749
0.0537861
0.0658286
0.0775072
0.0886038
0.0988788
0.108074
0.115918
0.122133
0.126443
0.12859
0.128341
0.125493
0.119902
0.111598
0.100656
0.0856118
0.0654081
-0.0333427
-0.0528988
-0.0671407
-0.0772652
-0.084895
-0.0901173
-0.0930213
-0.0938205
-0.092729
-0.0899425
-0.08564
-0.0799822
-0.07311
-0.0651457
-0.0561958
-0.0463545
-0.0357074
-0.024336
-0.0123223
0.000246686
0.0132745
0.0266508
0.0402471
0.0539129
0.0674727
0.0807235
0.0934332
0.105342
0.116162
0.125586
0.133293
0.138956
0.142261
0.142916
0.140664
0.135309
0.126853
0.11535
0.0991799
0.0771884
-0.0510549
-0.0719882
-0.0870715
-0.0975879
-0.105302
-0.110331
-0.112801
-0.11297
-0.111095
-0.107409
-0.102124
-0.0954237
-0.0874673
-0.0783884
-0.068299
-0.0572942
-0.0454566
-0.0328619
-0.0195839
-0.00570042
0.00870184
0.0235215
0.0386374
0.0539037
0.0691454
0.0841545
0.0986874
0.112464
0.125168
0.136452
0.145946
0.153264
0.158024
0.159865
0.158456
0.153533
0.145056
0.13305
0.11571
0.0917738
-0.0718691
-0.0943007
-0.110256
-0.121114
-0.1288
-0.133478
-0.135321
-0.134646
-0.131766
-0.126962
-0.120483
-0.112544
-0.103323
-0.0929665
-0.0815912
-0.0692915
-0.0561446
-0.0422171
-0.0275712
-0.0122711
0.00361027
0.0199853
0.0367449
0.0537528
0.0708392
0.0877954
0.10437
0.120264
0.135135
0.148592
0.16021
0.169537
0.17611
0.179479
0.179222
0.174985
0.166666
0.154242
0.135692
0.109635
-0.0961688
-0.120254
-0.137116
-0.14824
-0.155747
-0.159862
-0.160825
-0.159032
-0.154869
-0.148677
-0.14075
-0.13134
-0.120647
-0.10883
-0.0960092
-0.0822766
-0.0677003
-0.0523336
-0.0362224
-0.0194128
-0.00195839
0.0160725
0.0345888
0.0534698
0.0725569
0.0916471
0.110486
0.128761
0.146103
0.162081
0.176209
0.187958
0.19677
0.202088
0.203372
0.200149
0.192228
0.179512
0.159724
0.131343
-0.124417
-0.150358
-0.168163
-0.179442
-0.186556
-0.189821
-0.189572
-0.186309
-0.180511
-0.172595
-0.162914
-0.151759
-0.139355
-0.125873
-0.111436
-0.0961274
-0.0800022
-0.0630958
-0.0454321
-0.0270332
-0.00792716
0.0118435
0.0322128
0.053083
0.0743147
0.0957179
0.117043
0.137972
0.158111
0.176992
0.194065
0.208716
0.220279
0.228063
0.231377
0.229596
0.222396
0.209572
0.188532
0.157592
-0.157185
-0.185245
-0.204027
-0.215294
-0.221716
-0.223739
-0.221834
-0.216643
-0.208766
-0.198712
-0.186907
-0.173685
-0.159297
-0.143925
-0.127688
-0.110658
-0.0928689
-0.0743323
-0.0550436
-0.0349939
-0.0141785
0.00739332
0.029689
0.0526423
0.0761425
0.100023
0.124049
0.147904
0.171185
0.193384
0.213893
0.232006
0.246929
0.257814
0.263781
0.263998
0.25796
0.245296
0.223017
0.189238
-0.195199
-0.225724
-0.245504
-0.256504
-0.261802
-0.262043
-0.257889
-0.250175
-0.239654
-0.226955
-0.212582
-0.196918
-0.18024
-0.162733
-0.144505
-0.125609
-0.106051
-0.0858094
-0.0648438
-0.0431061
-0.020551
0.00285419
0.0271192
0.0522194
0.078084
0.104582
0.131505
0.158557
0.18533
0.211295
0.235788
0.258007
0.27702
0.29179
0.301201
0.304152
0.29988
0.287767
0.264302
0.227348
-0.239403
-0.27285
-0.293616
-0.30395
-0.307499
-0.305205
-0.298008
-0.286996
-0.273123
-0.257156
-0.23969
-0.221156
-0.201847
-0.181944
-0.161535
-0.140638
-0.119224
-0.0972267
-0.0745606
-0.0511297
-0.0268392
-0.00160553
0.0246331
0.0519051
0.0801919
0.109412
0.139404
0.169904
0.200524
0.230727
0.259807
0.286872
0.310844
0.330468
0.344337
0.350999
0.34933
0.338341
0.313819
0.273275
-0.291065
-0.328033
-0.349696
-0.358735
-0.359617
-0.353737
-0.342428
-0.327116
-0.309003
-0.289018
-0.267848
-0.245963
-0.223662
-0.2011
-0.178328
-0.155318
-0.131989
-0.108219
-0.0838657
-0.0587769
-0.0327986
-0.00578693
0.0223823
0.051802
0.08252
0.114522
0.147711
0.18188
0.216686
0.251613
0.285935
0.318691
0.348652
0.374326
0.393959
0.405643
0.407752
0.398743
0.373419
0.328774
-0.351945
-0.393207
-0.415515
-0.422249
-0.419105
-0.408163
-0.391308
-0.370407
-0.34696
-0.32207
-0.296504
-0.270752
-0.245087
-0.219617
-0.194332
-0.169135
-0.143874
-0.118361
-0.0923841
-0.0657235
-0.0381575
-0.00947283
0.0205269
0.0520109
0.085108
0.119889
0.156345
0.194356
0.233657
0.273789
0.314051
0.353441
0.390607
0.423808
0.450886
0.469363
0.476923
0.471198
0.445556
0.396178
-0.424563
-0.471088
-0.493455
-0.49625
-0.487048
-0.468969
-0.444654
-0.416528
-0.386425
-0.35561
-0.324896
-0.294749
-0.265373
-0.236791
-0.208895
-0.181496
-0.154351
-0.127187
-0.0997115
-0.0716269
-0.0426358
-0.0124474
0.019216
0.0526107
0.0879607
0.125441
0.165157
0.207109
0.251154
0.296943
0.343857
0.390918
0.4367
0.479237
0.515933
0.543611
0.55903
0.558604
0.533558
0.478695
-0.512687
-0.565593
-0.586754
-0.582925
-0.56462
-0.536494
-0.502198
-0.46481
-0.426498
-0.388634
-0.352004
-0.316972
-0.283609
-0.251793
-0.22128
-0.191754
-0.162857
-0.134214
-0.105441
-0.0761544
-0.0459732
-0.0145233
0.0185605
0.0536308
0.0910193
0.131025
0.173892
0.219781
0.268721
0.320544
0.374799
0.430627
0.486628
0.54069
0.589793
0.629954
0.656736
0.66479
0.642062
0.580926
-0.622186
-0.682491
-0.699815
-0.684926
-0.652949
-0.610737
-0.563192
-0.514083
-0.465825
-0.41976
-0.376511
-0.336219
-0.298726
-0.263695
-0.230691
-0.199234
-0.168828
-0.138979
-0.109201
-0.0790181
-0.047963
-0.0155757
0.0186003
0.0550187
0.0941287
0.136368
0.182148
0.231827
0.285668
0.343768
0.405954
0.471636
0.539608
0.60778
0.672823
0.729932
0.773205
0.794823
0.777702
0.709784
-0.762678
-0.830461
-0.838575
-0.805284
-0.752826
-0.691011
-0.626117
-0.562462
-0.502454
-0.447145
-0.396767
-0.351065
-0.309525
-0.271503
-0.236317
-0.203285
-0.171749
-0.141084
-0.110696
-0.0800162
-0.0484917
-0.0155784
0.0192696
0.0566074
0.0970051
0.14105
0.189342
0.242476
0.301009
0.3654
0.4359
0.512388
0.594113
0.679321
0.76468
0.844734
0.911999
0.955379
0.950195
0.876258
-0.950852
-1.02277
-1.01077
-0.946974
-0.864061
-0.775345
-0.688216
-0.607034
-0.533662
-0.46841
-0.410783
-0.359897
-0.314724
-0.274221
-0.237396
-0.203336
-0.171206
-0.140246
-0.109755
-0.0790746
-0.0475756
-0.0146374
0.0203668
0.0580866
0.0992092
0.144473
0.194678
0.250683
0.3134
0.383746
0.462563
0.550454
0.647505
0.752804
0.863638
0.97449
1.07659
1.15498
1.17408
1.09897
-1.21721
-1.27971
-1.22552
-1.11155
-0.984073
-0.859371
-0.744753
-0.643428
-0.555739
-0.480568
-0.416237
-0.360957
-0.313025
-0.270911
-0.233275
-0.198955
-0.16694
-0.136342
-0.106366
-0.076279
-0.045389
-0.0130153
0.0215335
0.0589855
0.10013
0.145846
0.197127
0.25511
0.321093
0.396541
0.483047
0.582233
0.695505
0.823555
0.965368
1.11672
1.26885
1.40349
1.47115
1.41127
-1.61776
-1.63096
-1.49154
-1.29672
-1.10589
-0.935006
-0.788313
-0.665546
-0.563984
-0.480141
-0.410641
-0.352516
-0.303267
-0.260831
-0.223517
-0.18993
-0.158905
-0.129454
-0.10071
-0.0718933
-0.0422714
-0.0111282
0.022268
0.0586975
0.0990244
0.144238
0.195499
0.2542
0.322024
0.401019
0.493655
0.602845
0.731858
0.883974
1.06155
1.26422
1.48651
1.71009
1.87241
1.8728
-2.2545
-2.11588
-1.81358
-1.49442
-1.21742
-0.990514
-0.809416
-0.666454
-0.553626
-0.464014
-0.392068
-0.333472
-0.284904
-0.243805
-0.208188
-0.176485
-0.147428
-0.119972
-0.0932223
-0.066382
-0.0387125
-0.00949262
0.0220174
0.0566145
0.0951967
0.138816
0.188745
0.246567
0.314289
0.394501
0.490565
0.606854
0.748987
0.923941
1.13977
1.4042
1.72093
2.07938
2.41785
2.58916
-3.35577
-2.78332
-2.17268
-1.6758
-1.29256
-1.00573
-0.794144
-0.637271
-0.519329
-0.429174
-0.358974
-0.303184
-0.25784
-0.22006
-0.187704
-0.159137
-0.13308
-0.108494
-0.0845065
-0.0603493
-0.0353144
-0.008712
0.0201672
0.0520935
0.087945
0.128768
0.17586
0.230876
0.295998
0.374169
0.469452
0.587545
0.736524
0.927887
1.17796
1.50832
1.94094
2.49105
3.15811
3.79429
-5.51936
-3.66182
-2.43101
-1.71406
-1.24173
-0.921778
-0.70484
-0.55395
-0.44548
-0.365201
-0.304182
-0.256568
-0.218402
-0.18692
-0.160129
-0.136537
-0.114989
-0.0945594
-0.0744736
-0.0540532
-0.0326735
-0.00972655
0.0154137
0.0434287
0.0750997
0.111364
0.153394
0.202712
0.261362
0.332186
0.419264
0.528659
0.669657
0.857042
1.11537
1.48384
2.01586
2.80547
4.12446
6.09002
-9.20433
-4.52038
-2.30636
-1.42116
-0.958959
-0.682936
-0.512274
-0.400598
-0.322929
-0.266427
-0.223902
-0.190922
-0.164579
-0.142863
-0.124317
-0.107844
-0.0925849
-0.0778403
-0.0630204
-0.047604
-0.0311084
-0.0130623
0.00701902
0.0296614
0.0554634
0.0851381
0.119569
0.159896
0.207637
0.264905
0.334759
0.421865
0.533771
0.683764
0.897474
1.22413
1.75389
2.7334
5.06224
9.8666
)
;

boundaryField
{
    movingWall
    {
        type            zeroGradient;
    }
    fixedWalls
    {
        type            zeroGradient;
    }
    frontAndBack
    {
        type            empty;
    }
}


// ************************************************************************* //
