/*--------------------------------*- C++ -*----------------------------------*\
| =========                 |                                                 |
| \\      /  F ield         | OpenFOAM: The Open Source CFD Toolbox           |
|  \\    /   O peration     | Version:  2506                                  |
|   \\  /    A nd           | Website:  www.openfoam.com                      |
|    \\/     M anipulation  |                                                 |
\*---------------------------------------------------------------------------*/
FoamFile
{
    version     2.0;
    format      ascii;
    arch        "LSB;label=32;scalar=64";
    class       surfaceScalarField;
    location    "0.36";
    object      phi;
}
// * * * * * * * * * * * * * * * * * * * * * * * * * * * * * * * * * * * * * //

dimensions      [0 3 -1 0 0 0 0];

oriented        oriented;

internalField   nonuniform List<scalar> 
3120
(
2.53473e-09
-2.54875e-09
4.09627e-09
-1.5615e-09
2.25327e-09
1.84306e-09
-3.5537e-09
5.80703e-09
-1.31353e-08
9.58172e-09
-2.5983e-08
1.28478e-08
-4.14572e-08
1.54743e-08
-5.88816e-08
1.74245e-08
-7.75885e-08
1.8707e-08
-9.69412e-08
1.93528e-08
-1.16345e-07
1.94043e-08
-1.35255e-07
1.89098e-08
-1.53176e-07
1.79205e-08
-1.69665e-07
1.64892e-08
-1.84334e-07
1.4669e-08
-1.96847e-07
1.25138e-08
-2.06925e-07
1.00778e-08
-2.14341e-07
7.41603e-09
-2.18926e-07
4.58472e-09
-2.20568e-07
1.64173e-09
-2.19215e-07
-1.35309e-09
-2.14877e-07
-4.33766e-09
-2.0763e-07
-7.24755e-09
-1.97613e-07
-1.00161e-08
-1.85038e-07
-1.25751e-08
-1.70184e-07
-1.48548e-08
-1.53398e-07
-1.67859e-08
-1.35098e-07
-1.82997e-08
-1.15767e-07
-1.93309e-08
-9.59492e-08
-1.98182e-08
-7.62416e-08
-1.97077e-08
-5.72873e-08
-1.89544e-08
-3.97608e-08
-1.75265e-08
-2.43499e-08
-1.5411e-08
-1.17264e-08
-1.26234e-08
-2.49631e-09
-9.22986e-09
2.89678e-09
-5.39289e-09
4.3581e-09
-1.46146e-09
2.56143e-09
1.79605e-09
2.56073e-09
1.61497e-09
-4.16366e-09
-1.17284e-09
1.22644e-09
-1.17162e-08
1.23865e-08
-3.10739e-08
2.51649e-08
-5.90447e-08
3.75526e-08
-9.46851e-08
4.84882e-08
-1.36646e-07
5.74351e-08
-1.83387e-07
6.41661e-08
-2.3331e-07
6.86298e-08
-2.84833e-07
7.08757e-08
-3.36442e-07
7.10132e-08
-3.8672e-07
6.91877e-08
-4.34365e-07
6.55663e-08
-4.78206e-07
6.03293e-08
-5.17202e-07
5.36651e-08
-5.50456e-07
4.57683e-08
-5.77216e-07
3.6838e-08
-5.96879e-07
2.70783e-08
-6.08993e-07
1.66986e-08
-6.13266e-07
5.91482e-09
-6.09569e-07
-5.05033e-09
-5.9794e-07
-1.59665e-08
-5.78591e-07
-2.65961e-08
-5.51912e-07
-3.6695e-08
-5.18473e-07
-4.60145e-08
-4.79024e-07
-5.4304e-08
-4.34494e-07
-6.13152e-08
-3.85987e-07
-6.68072e-08
-3.34766e-07
-7.05523e-08
-2.82239e-07
-7.23447e-08
-2.29938e-07
-7.20089e-08
-1.7948e-07
-6.94124e-08
-1.32526e-07
-6.44808e-08
-9.07148e-08
-5.72219e-08
-5.55749e-08
-4.77635e-08
-2.83826e-08
-3.64223e-08
-9.94847e-09
-2.38266e-08
-2.913e-10
-1.11177e-08
1.85472e-09
-3.49098e-10
4.41495e-09
-1.6682e-09
-2.49541e-09
-1.21177e-08
1.16761e-08
-3.40908e-08
3.43597e-08
-6.84502e-08
5.95244e-08
-1.14783e-07
8.3885e-08
-1.71802e-07
1.05508e-07
-2.37676e-07
1.23309e-07
-3.10267e-07
1.36757e-07
-3.87306e-07
1.45669e-07
-4.66509e-07
1.50079e-07
-5.45656e-07
1.5016e-07
-6.22645e-07
1.46177e-07
-6.95531e-07
1.38452e-07
-7.62545e-07
1.27344e-07
-8.22118e-07
1.13238e-07
-8.72889e-07
9.65393e-08
-9.13716e-07
7.76646e-08
-9.43683e-07
5.70451e-08
-9.62109e-07
3.51249e-08
-9.68556e-07
1.23618e-08
-9.62834e-07
-1.07718e-08
-9.45012e-07
-3.37886e-08
-9.15421e-07
-5.61877e-08
-8.74659e-07
-7.74566e-08
-8.23598e-07
-9.70757e-08
-7.63378e-07
-1.14524e-07
-6.95402e-07
-1.2929e-07
-6.21329e-07
-1.40881e-07
-5.43045e-07
-1.48836e-07
-4.62644e-07
-1.52746e-07
-3.82378e-07
-1.52275e-07
-3.04606e-07
-1.47184e-07
-2.31721e-07
-1.37366e-07
-1.66047e-07
-1.22896e-07
-1.09709e-07
-1.04102e-07
-6.44485e-08
-8.1683e-08
-3.13834e-08
-5.6892e-08
-1.06916e-08
-3.18093e-08
-1.23836e-09
-9.80151e-09
3.17653e-09
-5.56922e-09
3.07384e-09
-2.4979e-08
3.1086e-08
-5.96871e-08
6.90679e-08
-1.09869e-07
1.09707e-07
-1.74635e-07
1.48651e-07
-2.52278e-07
1.83151e-07
-3.40526e-07
2.11557e-07
-4.36761e-07
2.32992e-07
-5.38194e-07
2.47102e-07
-6.41995e-07
2.5388e-07
-7.45395e-07
2.53561e-07
-8.45754e-07
2.46536e-07
-9.4061e-07
2.33308e-07
-1.02772e-06
2.14455e-07
-1.10509e-06
1.90604e-07
-1.17097e-06
1.62423e-07
-1.22391e-06
1.30607e-07
-1.26274e-06
9.58764e-08
-1.2866e-06
5.89771e-08
-1.29491e-06
2.06776e-08
-1.28745e-06
-1.82289e-08
-1.26432e-06
-5.69259e-08
-1.22593e-06
-9.45758e-08
-1.17306e-06
-1.30324e-07
-1.10683e-06
-1.63308e-07
-1.02869e-06
-1.92665e-07
-9.40427e-07
-2.17553e-07
-8.44142e-07
-2.37165e-07
-7.42222e-07
-2.50756e-07
-6.37297e-07
-2.57671e-07
-5.3219e-07
-2.57383e-07
-4.29838e-07
-2.49536e-07
-3.33203e-07
-2.34e-07
-2.45148e-07
-2.1095e-07
-1.68288e-07
-1.80963e-07
-1.04799e-07
-1.45172e-07
-5.61984e-08
-1.05493e-07
-2.31013e-08
-6.49067e-08
-4.98648e-09
-2.7916e-08
-1.80976e-09
-9.46911e-09
1.2543e-08
-3.8176e-08
5.9793e-08
-8.60796e-08
1.16972e-07
-1.52394e-07
1.76021e-07
-2.3555e-07
2.31807e-07
-3.33309e-07
2.8091e-07
-4.42934e-07
3.21181e-07
-5.61358e-07
3.51416e-07
-6.85343e-07
3.71087e-07
-8.11613e-07
3.8015e-07
-9.36951e-07
3.78899e-07
-1.05828e-06
3.67868e-07
-1.17274e-06
3.47764e-07
-1.27769e-06
3.19409e-07
-1.3708e-06
2.83712e-07
-1.45002e-06
2.41645e-07
-1.51365e-06
1.94228e-07
-1.56029e-06
1.42523e-07
-1.58894e-06
8.76282e-08
-1.59894e-06
3.06795e-08
-1.59002e-06
-2.71528e-08
-1.56228e-06
-8.4665e-08
-1.51623e-06
-1.40624e-07
-1.45278e-06
-1.93775e-07
-1.37324e-06
-2.42853e-07
-1.2793e-06
-2.86598e-07
-1.17307e-06
-3.23784e-07
-1.057e-06
-3.53239e-07
-9.33866e-07
-3.7389e-07
-8.06737e-07
-3.848e-07
-6.78894e-07
-3.85226e-07
-5.53751e-07
-3.74679e-07
-4.34747e-07
-3.53005e-07
-3.25218e-07
-3.20479e-07
-2.28243e-07
-2.77937e-07
-1.46474e-07
-2.26941e-07
-8.19461e-08
-1.7002e-07
-3.59166e-08
-1.10936e-07
-8.75628e-09
-5.50764e-08
-1.05658e-08
-1.31634e-08
2.57063e-08
-5.10301e-08
9.76599e-08
-1.12098e-07
1.7804e-07
-1.94508e-07
2.58431e-07
-2.95887e-07
3.33185e-07
-4.13367e-07
3.98391e-07
-5.43691e-07
4.51505e-07
-6.83334e-07
4.91059e-07
-8.28638e-07
5.16391e-07
-9.75924e-07
5.27436e-07
-1.1216e-06
5.24572e-07
-1.26222e-06
5.08496e-07
-1.3946e-06
4.80137e-07
-1.51578e-06
4.40595e-07
-1.62316e-06
3.91089e-07
-1.71445e-06
3.32932e-07
-1.78772e-06
2.67505e-07
-1.84145e-06
1.9625e-07
-1.87449e-06
1.20663e-07
-1.8861e-06
4.22877e-08
-1.87596e-06
-3.72843e-08
-1.84421e-06
-1.16417e-07
-1.7914e-06
-1.93435e-07
-1.71854e-06
-2.66637e-07
-1.62708e-06
-3.3431e-07
-1.51893e-06
-3.94752e-07
-1.39641e-06
-4.46303e-07
-1.26226e-06
-4.87388e-07
-1.11959e-06
-5.16561e-07
-9.71818e-07
-5.32572e-07
-8.22616e-07
-5.34427e-07
-6.75812e-07
-5.21483e-07
-5.35282e-07
-4.93535e-07
-4.0482e-07
-4.50941e-07
-2.87993e-07
-3.94764e-07
-1.87987e-07
-3.26947e-07
-1.07464e-07
-2.50543e-07
-4.84549e-08
-1.69946e-07
-1.23369e-08
-9.11945e-08
-2.29026e-08
-1.66118e-08
4.23182e-08
-6.33151e-08
1.44363e-07
-1.3728e-07
2.52005e-07
-2.35562e-07
3.56714e-07
-3.54918e-07
4.52541e-07
-4.91784e-07
5.35257e-07
-6.42328e-07
6.02049e-07
-8.0254e-07
6.51272e-07
-9.68338e-07
6.82189e-07
-1.13566e-06
6.94764e-07
-1.30058e-06
6.8949e-07
-1.45935e-06
6.6726e-07
-1.60847e-06
6.29257e-07
-1.74476e-06
5.76884e-07
-1.86537e-06
5.11703e-07
-1.96783e-06
4.35393e-07
-2.05006e-06
3.49732e-07
-2.11038e-06
2.56573e-07
-2.14755e-06
1.57836e-07
-2.16078e-06
5.55089e-08
-2.1497e-06
-4.8363e-08
-2.11444e-06
-1.51677e-07
-2.05559e-06
-2.52284e-07
-1.97423e-06
-3.47997e-07
-1.87192e-06
-4.36618e-07
-1.75071e-06
-5.15962e-07
-1.61311e-06
-5.839e-07
-1.46209e-06
-6.38409e-07
-1.30102e-06
-6.77635e-07
-1.13362e-06
-6.99967e-07
-9.63924e-07
-7.04127e-07
-7.96133e-07
-6.89274e-07
-6.34554e-07
-6.55114e-07
-4.83453e-07
-6.02042e-07
-3.46926e-07
-5.31291e-07
-2.28762e-07
-4.45111e-07
-1.32329e-07
-3.46976e-07
-6.05043e-08
-2.41771e-07
-1.56899e-08
-1.36009e-07
-3.85924e-08
-1.98435e-08
6.21616e-08
-7.50348e-08
1.99555e-07
-1.6156e-07
3.3853e-07
-2.75425e-07
4.70578e-07
-4.12493e-07
5.8961e-07
-5.6846e-07
6.91223e-07
-7.38874e-07
7.72464e-07
-9.19211e-07
8.31609e-07
-1.10495e-06
8.67928e-07
-1.29166e-06
8.81475e-07
-1.47508e-06
8.72912e-07
-1.65119e-06
8.43367e-07
-1.81625e-06
7.94315e-07
-1.96686e-06
7.27494e-07
-2.09999e-06
6.44837e-07
-2.21302e-06
5.48423e-07
-2.30373e-06
4.40444e-07
-2.37035e-06
3.2319e-07
-2.41155e-06
1.99033e-07
-2.42646e-06
7.04219e-08
-2.41471e-06
-6.01183e-08
-2.37639e-06
-1.89996e-07
-2.31211e-06
-3.1656e-07
-2.22299e-06
-4.37114e-07
-2.11067e-06
-5.48942e-07
-1.97729e-06
-6.49345e-07
-1.8255e-06
-7.35686e-07
-1.65845e-06
-8.05455e-07
-1.47975e-06
-8.56343e-07
-1.29338e-06
-8.86336e-07
-1.10369e-06
-8.93816e-07
-9.15271e-07
-8.77691e-07
-7.32863e-07
-8.37521e-07
-5.61235e-07
-7.7367e-07
-4.05057e-07
-6.87469e-07
-2.68782e-07
-5.81386e-07
-1.56543e-07
-4.59215e-07
-7.2099e-08
-3.26215e-07
-1.8852e-08
-1.89256e-07
-5.74443e-08
-2.29107e-08
8.50722e-08
-8.62949e-08
2.62939e-07
-1.85074e-07
4.3731e-07
-3.14249e-07
5.99752e-07
-4.68791e-07
7.44152e-07
-6.43626e-07
8.66058e-07
-8.33654e-07
9.62492e-07
-1.03381e-06
1.03176e-06
-1.23911e-06
1.07323e-06
-1.44475e-06
1.08712e-06
-1.64616e-06
1.07432e-06
-1.83906e-06
1.03626e-06
-2.01948e-06
9.74738e-07
-2.18386e-06
8.91872e-07
-2.32901e-06
7.89993e-07
-2.4522e-06
6.71603e-07
-2.55109e-06
5.39336e-07
-2.62383e-06
3.95934e-07
-2.66903e-06
2.44233e-07
-2.68577e-06
8.7164e-08
-2.67363e-06
-7.22601e-08
-2.63269e-06
-2.30943e-07
-2.56353e-06
-3.85714e-07
-2.4673e-06
-5.33347e-07
-2.34565e-06
-6.70587e-07
-2.20081e-06
-7.94188e-07
-2.03552e-06
-9.00972e-07
-1.85308e-06
-9.87898e-07
-1.65727e-06
-1.05215e-06
-1.45234e-06
-1.09127e-06
-1.24294e-06
-1.10321e-06
-1.03405e-06
-1.08659e-06
-8.30853e-07
-1.04072e-06
-6.3866e-07
-9.65863e-07
-4.62766e-07
-8.63363e-07
-3.08341e-07
-7.35811e-07
-1.80329e-07
-5.87227e-07
-8.33876e-08
-4.23156e-07
-2.18876e-08
-2.50756e-07
-7.93318e-08
-2.58692e-08
1.10941e-07
-9.72366e-08
3.34306e-07
-2.08042e-07
5.48115e-07
-3.52318e-07
7.44029e-07
-5.24152e-07
9.15986e-07
-7.17684e-07
1.05959e-06
-9.2714e-07
1.17195e-06
-1.14688e-06
1.2515e-06
-1.37147e-06
1.29782e-06
-1.59571e-06
1.31136e-06
-1.81473e-06
1.29334e-06
-2.02398e-06
1.24552e-06
-2.21934e-06
1.17009e-06
-2.39706e-06
1.0696e-06
-2.55386e-06
9.46793e-07
-2.68689e-06
8.04632e-07
-2.79376e-06
6.46205e-07
-2.87254e-06
4.74718e-07
-2.9218e-06
2.93486e-07
-2.94055e-06
1.05919e-07
-2.92834e-06
-8.44726e-08
-2.8852e-06
-2.74081e-07
-2.8117e-06
-4.59211e-07
-2.70895e-06
-6.36094e-07
-2.57863e-06
-8.00914e-07
-2.42296e-06
-9.49856e-07
-2.24477e-06
-1.07916e-06
-2.04745e-06
-1.18522e-06
-1.83494e-06
-1.26466e-06
-1.61173e-06
-1.31447e-06
-1.38277e-06
-1.33217e-06
-1.15342e-06
-1.31594e-06
-9.29345e-07
-1.26479e-06
-7.16426e-07
-1.17878e-06
-5.20629e-07
-1.05916e-06
-3.47892e-07
-9.08548e-07
-2.04011e-07
-7.31108e-07
-9.45638e-08
-5.32603e-07
-2.48677e-08
-3.20452e-07
-1.04199e-07
-2.87712e-08
1.39712e-07
-1.08007e-07
4.13542e-07
-2.30709e-07
6.70817e-07
-3.89968e-07
9.03289e-07
-5.78985e-07
1.105e-06
-7.911e-07
1.27171e-06
-1.01985e-06
1.4007e-06
-1.259e-06
1.49066e-06
-1.50264e-06
1.54146e-06
-1.74519e-06
1.55391e-06
-1.98147e-06
1.52961e-06
-2.20671e-06
1.47076e-06
-2.4166e-06
1.37999e-06
-2.6073e-06
1.26029e-06
-2.77541e-06
1.1149e-06
-2.91802e-06
9.47247e-07
-3.0327e-06
7.60885e-07
-3.11748e-06
5.59497e-07
-3.17087e-06
3.46871e-07
-3.19185e-06
1.26902e-07
-3.17991e-06
-9.64089e-08
-3.13505e-06
-3.18948e-07
-3.05776e-06
-5.36495e-07
-2.94912e-06
-7.44731e-07
-2.81077e-06
-9.39272e-07
-2.64492e-06
-1.11571e-06
-2.45441e-06
-1.26967e-06
-2.24271e-06
-1.39692e-06
-2.0139e-06
-1.49347e-06
-1.77266e-06
-1.55572e-06
-1.52423e-06
-1.5806e-06
-1.27436e-06
-1.56581e-06
-1.02923e-06
-1.50993e-06
-7.95314e-07
-1.4127e-06
-5.79305e-07
-1.27517e-06
-3.87954e-07
-1.0999e-06
-2.27955e-07
-8.91106e-07
-1.05834e-07
-6.54725e-07
-2.78617e-08
-3.98424e-07
-1.32061e-07
-3.16628e-08
1.71375e-07
-1.18744e-07
5.00623e-07
-2.53318e-07
8.05391e-07
-4.27536e-07
1.07751e-06
-6.337e-07
1.31117e-06
-8.64338e-07
1.50234e-06
-1.11227e-06
1.64863e-06
-1.37067e-06
1.74906e-06
-1.63312e-06
1.80391e-06
-1.89367e-06
1.81446e-06
-2.14683e-06
1.78278e-06
-2.38765e-06
1.71157e-06
-2.61166e-06
1.60399e-06
-2.81491e-06
1.46354e-06
-2.99396e-06
1.29396e-06
-3.14588e-06
1.09916e-06
-3.26819e-06
8.83195e-07
-3.35891e-06
6.50215e-07
-3.41652e-06
4.04479e-07
-3.43996e-06
1.5035e-07
-3.42868e-06
-1.07689e-07
-3.3826e-06
-3.65034e-07
-3.30214e-06
-6.16947e-07
-3.18831e-06
-8.58568e-07
-3.04265e-06
-1.08493e-06
-2.86734e-06
-1.29102e-06
-2.66519e-06
-1.47182e-06
-2.43969e-06
-1.62242e-06
-2.19501e-06
-1.73815e-06
-1.93602e-06
-1.81471e-06
-1.66823e-06
-1.84839e-06
-1.39779e-06
-1.83625e-06
-1.13137e-06
-1.77634e-06
-8.76118e-07
-1.66795e-06
-6.39473e-07
-1.51181e-06
-4.29061e-07
-1.31031e-06
-2.5253e-07
-1.06764e-06
-1.174e-07
-7.89855e-07
-3.09347e-08
-4.84889e-07
-1.62996e-07
-3.45843e-08
2.05959e-07
-1.29573e-07
5.95611e-07
-2.76094e-07
9.51912e-07
-4.65336e-07
1.26675e-06
-6.88681e-07
1.53451e-06
-9.37816e-07
1.75148e-06
-1.20483e-06
1.91564e-06
-1.48227e-06
2.0265e-06
-1.76324e-06
2.08488e-06
-2.0414e-06
2.09261e-06
-2.31099e-06
2.05237e-06
-2.56686e-06
1.96744e-06
-2.80444e-06
1.84157e-06
-3.01973e-06
1.67883e-06
-3.20926e-06
1.48349e-06
-3.3701e-06
1.26e-06
-3.49979e-06
1.01288e-06
-3.59634e-06
7.46769e-07
-3.65824e-06
4.66371e-07
-3.68439e-06
1.76502e-07
-3.67417e-06
-1.17902e-07
-3.62744e-06
-4.11768e-07
-3.54453e-06
-6.99863e-07
-3.4263e-06
-9.76796e-07
-3.2742e-06
-1.23703e-06
-3.0903e-06
-1.47492e-06
-2.87734e-06
-1.68478e-06
-2.63877e-06
-1.86098e-06
-2.37882e-06
-1.9981e-06
-2.10248e-06
-2.09105e-06
-1.81553e-06
-2.13534e-06
-1.52449e-06
-2.12729e-06
-1.23657e-06
-2.06425e-06
-9.59586e-07
-1.94494e-06
-7.01786e-07
-1.76961e-06
-4.71732e-07
-1.54037e-06
-2.78092e-07
-1.26128e-06
-1.29457e-07
-9.38489e-07
-3.41472e-08
-5.80199e-07
-1.97143e-07
-3.7571e-08
2.4353e-07
-1.40607e-07
6.98647e-07
-2.99242e-07
1.11055e-06
-5.03655e-07
1.47116e-06
-7.44268e-07
1.77513e-06
-1.01189e-06
2.0191e-06
-1.29785e-06
2.20159e-06
-1.59407e-06
2.32273e-06
-1.89315e-06
2.38396e-06
-2.18838e-06
2.38784e-06
-2.47376e-06
2.33775e-06
-2.74399e-06
2.23767e-06
-2.99441e-06
2.092e-06
-3.22103e-06
1.90545e-06
-3.4204e-06
1.68287e-06
-3.58964e-06
1.42923e-06
-3.72632e-06
1.14957e-06
-3.82851e-06
8.48961e-07
-3.89469e-06
5.32555e-07
-3.92377e-06
2.05581e-07
-3.91507e-06
-1.26608e-07
-3.86833e-06
-4.58506e-07
-3.78377e-06
-7.8442e-07
-3.66212e-06
-1.09845e-06
-3.50464e-06
-1.39451e-06
-3.31324e-06
-1.66632e-06
-3.09052e-06
-1.9075e-06
-2.83985e-06
-2.11165e-06
-2.56544e-06
-2.27251e-06
-2.27237e-06
-2.38412e-06
-1.96662e-06
-2.44109e-06
-1.65509e-06
-2.43882e-06
-1.34551e-06
-2.37383e-06
-1.04639e-06
-2.24406e-06
-7.66851e-07
-2.04915e-06
-5.16454e-07
-1.79076e-06
-3.0498e-07
-1.47275e-06
-1.42187e-07
-1.10128e-06
-3.75555e-08
-6.8483e-07
-2.34698e-07
-4.0655e-08
2.84185e-07
-1.5195e-07
8.09942e-07
-3.22947e-07
1.28155e-06
-5.4275e-07
1.69096e-06
-8.00754e-07
2.03313e-06
-1.08685e-06
2.30519e-06
-1.39156e-06
2.50631e-06
-1.70617e-06
2.63734e-06
-2.02279e-06
2.70058e-06
-2.33435e-06
2.69941e-06
-2.63465e-06
2.63805e-06
-2.91826e-06
2.52128e-06
-3.18054e-06
2.35428e-06
-3.41751e-06
2.14242e-06
-3.62583e-06
1.89119e-06
-3.8027e-06
1.6061e-06
-3.94581e-06
1.29268e-06
-4.05329e-06
9.56445e-07
-4.12368e-06
6.02941e-07
-4.15587e-06
2.37771e-07
-4.14913e-06
-1.33347e-07
-4.10311e-06
-5.04525e-07
-4.01787e-06
-8.69657e-07
-3.89394e-06
-1.22238e-06
-3.73238e-06
-1.55608e-06
-3.53485e-06
-1.86385e-06
-3.30375e-06
-2.1386e-06
-3.04228e-06
-2.37312e-06
-2.75455e-06
-2.56024e-06
-2.44564e-06
-2.69303e-06
-2.12172e-06
-2.76502e-06
-1.78999e-06
-2.77055e-06
-1.45871e-06
-2.70511e-06
-1.1371e-06
-2.56566e-06
-8.35212e-07
-2.35104e-06
-5.63682e-07
-2.06229e-06
-3.33515e-07
-1.70292e-06
-1.55764e-07
-1.27903e-06
-4.12133e-08
-7.99381e-07
-2.75911e-07
-4.38666e-08
3.28052e-07
-1.637e-07
9.29775e-07
-3.47388e-07
1.46523e-06
-5.82856e-07
1.92643e-06
-8.58394e-07
2.30867e-06
-1.1629e-06
2.6097e-06
-1.48606e-06
2.82947e-06
-1.81851e-06
2.96979e-06
-2.15185e-06
3.03392e-06
-2.47872e-06
3.02628e-06
-2.79273e-06
2.95205e-06
-3.08843e-06
2.81698e-06
-3.3612e-06
2.62705e-06
-3.6072e-06
2.38842e-06
-3.82324e-06
2.10723e-06
-4.0067e-06
1.78955e-06
-4.15541e-06
1.44139e-06
-4.26765e-06
1.06868e-06
-4.34202e-06
6.77306e-07
-4.37743e-06
2.73187e-07
-4.37312e-06
-1.37654e-07
-4.32863e-06
-5.4902e-07
-4.24383e-06
-9.54458e-07
-4.11901e-06
-1.3472e-06
-3.95495e-06
-1.72014e-06
-3.75302e-06
-2.06578e-06
-3.51531e-06
-2.37631e-06
-3.24474e-06
-2.64369e-06
-2.94523e-06
-2.85975e-06
-2.6218e-06
-3.01646e-06
-2.28067e-06
-3.10615e-06
-1.92932e-06
-3.1219e-06
-1.57651e-06
-3.05792e-06
-1.23218e-06
-2.90999e-06
-9.07341e-07
-2.67588e-06
-6.1383e-07
-2.3558e-06
-3.63997e-07
-1.95275e-06
-1.70356e-07
-1.47267e-06
-4.51726e-08
-9.24564e-07
-3.21084e-07
-4.72377e-08
3.75289e-07
-1.75959e-07
1.0585e-06
-3.72741e-07
1.66202e-06
-6.24203e-07
2.17789e-06
-9.17414e-07
2.60188e-06
-1.2402e-06
2.93248e-06
-1.58136e-06
3.17064e-06
-1.93085e-06
3.31927e-06
-2.2798e-06
3.38287e-06
-2.62058e-06
3.36705e-06
-2.94668e-06
3.27816e-06
-3.2527e-06
3.12299e-06
-3.53417e-06
2.90852e-06
-3.78744e-06
2.64169e-06
-4.00957e-06
2.32936e-06
-4.19818e-06
1.97817e-06
-4.35136e-06
1.59457e-06
-4.46755e-06
1.18487e-06
-4.54549e-06
7.55244e-07
-4.58415e-06
3.11848e-07
-4.58273e-06
-1.39078e-07
-4.54064e-06
-5.91109e-07
-4.45756e-06
-1.03754e-06
-4.3335e-06
-1.47126e-06
-4.16888e-06
-1.88475e-06
-3.96469e-06
-2.26997e-06
-3.72259e-06
-2.61841e-06
-3.44515e-06
-2.92114e-06
-3.13594e-06
-3.16896e-06
-2.79979e-06
-3.3526e-06
-2.44289e-06
-3.46305e-06
-2.0729e-06
-3.49189e-06
-1.69902e-06
-3.43181e-06
-1.33192e-06
-3.27709e-06
-9.83636e-07
-3.02417e-06
-6.67279e-07
-2.67216e-06
-3.9672e-07
-2.22331e-06
-1.86128e-07
-1.68327e-06
-4.94861e-08
-1.06121e-06
-3.7057e-07
-5.08038e-08
4.26093e-07
-1.88841e-07
1.19653e-06
-3.99202e-07
1.87238e-06
-6.6703e-07
2.44572e-06
-9.7803e-07
2.91288e-06
-1.31885e-06
3.2733e-06
-1.67735e-06
3.52913e-06
-2.04277e-06
3.68469e-06
-2.40582e-06
3.74592e-06
-2.75863e-06
3.71986e-06
-3.0947e-06
3.61423e-06
-3.40874e-06
3.43704e-06
-3.69653e-06
3.19631e-06
-3.95477e-06
2.89992e-06
-4.18084e-06
2.55543e-06
-4.37273e-06
2.17006e-06
-4.52884e-06
1.75068e-06
-4.64787e-06
1.3039e-06
-4.72875e-06
8.36118e-07
-4.77053e-06
3.53631e-07
-4.7724e-06
-1.37202e-07
-4.73367e-06
-6.29841e-07
-4.65378e-06
-1.11743e-06
-4.53241e-06
-1.59264e-06
-4.36956e-06
-2.0476e-06
-4.16572e-06
-2.47381e-06
-3.92204e-06
-2.86208e-06
-3.64054e-06
-3.20263e-06
-3.32436e-06
-3.48514e-06
-2.97795e-06
-3.69902e-06
-2.60732e-06
-3.83368e-06
-2.22019e-06
-3.87902e-06
-1.82613e-06
-3.82587e-06
-1.4365e-06
-3.66671e-06
-1.06441e-06
-3.39626e-06
-7.24381e-07
-3.01219e-06
-4.31968e-07
-2.51572e-06
-2.03252e-07
-1.91198e-06
-5.42093e-08
-1.21025e-06
-4.24779e-07
-5.46086e-08
4.80702e-07
-2.02482e-07
1.34441e-06
-4.27e-07
2.09689e-06
-7.1161e-07
2.73033e-06
-1.04047e-06
3.24174e-06
-1.39892e-06
3.63175e-06
-1.7738e-06
3.90402e-06
-2.15366e-06
4.06455e-06
-2.52878e-06
4.12104e-06
-2.89117e-06
4.08226e-06
-3.23442e-06
3.95748e-06
-3.55351e-06
3.75613e-06
-3.84462e-06
3.48742e-06
-4.10486e-06
3.16017e-06
-4.33213e-06
2.78271e-06
-4.52488e-06
2.3628e-06
-4.68191e-06
1.90772e-06
-4.80229e-06
1.42428e-06
-4.88517e-06
9.19003e-07
-4.92978e-06
3.98235e-07
-4.9353e-06
-1.31679e-07
-4.90093e-06
-6.64213e-07
-4.82586e-06
-1.19249e-06
-4.70941e-06
-1.7091e-06
-4.55107e-06
-2.20594e-06
-4.35074e-06
-2.67413e-06
-4.10892e-06
-3.1039e-06
-3.82695e-06
-3.48461e-06
-3.50728e-06
-3.8048e-06
-3.15384e-06
-4.05245e-06
-2.77227e-06
-4.21526e-06
-2.37018e-06
-4.2811e-06
-1.95739e-06
-4.23867e-06
-1.5459e-06
-4.07819e-06
-1.14991e-06
-3.79225e-06
-7.85459e-07
-3.37664e-06
-4.70035e-07
-2.83115e-06
-2.21907e-07
-2.16011e-06
-5.94029e-08
-1.37275e-06
-4.84182e-07
-5.87084e-08
5.3941e-07
-2.17057e-07
1.50276e-06
-4.56423e-07
2.33626e-06
-7.58281e-07
3.03219e-06
-1.10501e-06
3.58847e-06
-1.48047e-06
4.00722e-06
-1.87042e-06
4.29396e-06
-2.26269e-06
4.45681e-06
-2.64722e-06
4.50558e-06
-3.01602e-06
4.45105e-06
-3.3629e-06
4.30436e-06
-3.68328e-06
4.0765e-06
-3.97387e-06
3.778e-06
-4.23242e-06
3.41872e-06
-4.45744e-06
3.00773e-06
-4.64799e-06
2.55334e-06
-4.8034e-06
2.06313e-06
-4.92317e-06
1.54405e-06
-5.0068e-06
1.00263e-06
-5.0537e-06
4.4513e-07
-5.06311e-06
-1.22265e-07
-5.03413e-06
-6.93195e-07
-4.9657e-06
-1.26092e-06
-4.8567e-06
-1.81809e-06
-4.70608e-06
-2.35656e-06
-4.51303e-06
-2.86719e-06
-4.27723e-06
-3.3397e-06
-3.99916e-06
-3.76268e-06
-3.68042e-06
-4.12354e-06
-3.32414e-06
-4.40873e-06
-2.93536e-06
-4.60405e-06
-2.52136e-06
-4.6951e-06
-2.09201e-06
-4.66802e-06
-1.65989e-06
-4.51032e-06
-1.24026e-06
-4.21188e-06
-8.50824e-07
-3.76607e-06
-5.11228e-07
-3.17074e-06
-2.42298e-07
-2.42904e-06
-6.51369e-08
-1.54991e-06
-5.49319e-07
-6.31786e-08
6.02589e-07
-2.32796e-07
1.67237e-06
-4.8785e-07
2.59131e-06
-8.07473e-07
3.35181e-06
-1.17197e-06
3.95296e-06
-1.56354e-06
4.39879e-06
-1.96676e-06
4.69718e-06
-2.36877e-06
4.85882e-06
-2.75929e-06
4.8961e-06
-3.13043e-06
4.8222e-06
-3.47646e-06
4.65039e-06
-3.7934e-06
4.39345e-06
-4.07874e-06
4.06334e-06
-4.33102e-06
3.671e-06
-4.54956e-06
3.22627e-06
-4.73413e-06
2.73792e-06
-4.88476e-06
2.21375e-06
-5.00148e-06
1.66077e-06
-5.08419e-06
1.08535e-06
-5.13258e-06
4.93514e-07
-5.14598e-06
-1.0886e-07
-5.12341e-06
-7.1576e-07
-5.06357e-06
-1.32077e-06
-4.96487e-06
-1.91679e-06
-4.82563e-06
-2.4958e-06
-4.64425e-06
-3.04857e-06
-4.41944e-06
-3.56451e-06
-4.15061e-06
-4.0315e-06
-3.83827e-06
-4.43588e-06
-3.48446e-06
-4.76254e-06
-3.09332e-06
-4.99519e-06
-2.67154e-06
-5.11689e-06
-2.22877e-06
-5.11078e-06
-1.77799e-06
-4.9611e-06
-1.3355e-06
-4.65437e-06
-9.20775e-07
-4.1808e-06
-5.55891e-07
-3.53563e-06
-2.64659e-07
-2.72027e-06
-7.14953e-08
-1.74308e-06
-6.20814e-07
-6.81226e-08
6.70712e-07
-2.50013e-07
1.85426e-06
-5.21786e-07
2.86309e-06
-8.59754e-07
3.68978e-06
-1.24178e-06
4.33499e-06
-1.64817e-06
4.80518e-06
-2.06224e-06
5.11126e-06
-2.4705e-06
5.26708e-06
-2.86258e-06
5.28817e-06
-3.23095e-06
5.19056e-06
-3.57052e-06
4.98996e-06
-3.87823e-06
4.70115e-06
-4.15252e-06
4.33764e-06
-4.39299e-06
3.91146e-06
-4.5999e-06
3.43319e-06
-4.77397e-06
2.91198e-06
-4.91598e-06
2.35576e-06
-5.02663e-06
1.77142e-06
-5.10633e-06
1.16505e-06
-5.15508e-06
5.42267e-07
-5.17239e-06
-9.15535e-08
-5.15722e-06
-7.30933e-07
-5.108e-06
-1.36998e-06
-5.02272e-06
-2.00208e-06
-4.899e-06
-2.61952e-06
-4.73432e-06
-3.21325e-06
-4.52631e-06
-3.77252e-06
-4.2731e-06
-4.28471e-06
-3.97381e-06
-4.73517e-06
-3.62911e-06
-5.10724e-06
-3.24185e-06
-5.38244e-06
-2.81773e-06
-5.54101e-06
-2.36589e-06
-5.56262e-06
-1.89941e-06
-5.42758e-06
-1.43555e-06
-5.11823e-06
-9.95615e-07
-4.62073e-06
-6.04421e-07
-3.92682e-06
-2.8928e-07
-3.03541e-06
-7.85832e-08
-1.95377e-06
-6.99397e-07
-7.36838e-08
7.44395e-07
-2.69135e-07
2.04972e-06
-5.58908e-07
3.15286e-06
-9.15867e-07
4.04674e-06
-1.31496e-06
4.73408e-06
-1.73436e-06
5.22458e-06
-2.15606e-06
5.53295e-06
-2.56603e-06
5.67705e-06
-2.95404e-06
5.67618e-06
-3.31321e-06
5.54973e-06
-3.63944e-06
5.31619e-06
-3.93083e-06
4.99255e-06
-4.18713e-06
4.59393e-06
-4.40915e-06
4.13348e-06
-4.59838e-06
3.62241e-06
-4.75656e-06
3.07017e-06
-4.88542e-06
2.48462e-06
-4.98641e-06
1.87241e-06
-5.06053e-06
1.23917e-06
-5.10818e-06
5.89916e-07
-5.12907e-06
-7.06648e-08
-5.12217e-06
-7.37836e-07
-5.08569e-06
-1.40646e-06
-5.01716e-06
-2.07061e-06
-4.91349e-06
-2.72319e-06
-4.7712e-06
-3.35555e-06
-4.58666e-06
-3.95706e-06
-4.35654e-06
-4.51484e-06
-4.07829e-06
-5.01342e-06
-3.75084e-06
-5.43469e-06
-3.37532e-06
-5.75796e-06
-2.95595e-06
-5.96037e-06
-2.5009e-06
-6.01768e-06
-2.02298e-06
-5.9055e-06
-1.54017e-06
-5.60104e-06
-1.07566e-06
-5.08525e-06
-6.57301e-07
-4.34518e-06
-3.16524e-07
-3.37619e-06
-8.65369e-08
-2.18376e-06
-7.85934e-07
-8.00623e-08
8.24458e-07
-2.90748e-07
2.2604e-06
-6.00125e-07
3.46224e-06
-9.7678e-07
4.4234e-06
-1.39217e-06
5.14947e-06
-1.82203e-06
5.65444e-06
-2.24704e-06
5.95796e-06
-2.65283e-06
6.08285e-06
-3.02966e-06
6.05301e-06
-3.37167e-06
5.89174e-06
-3.67615e-06
5.62067e-06
-3.94276e-06
5.25916e-06
-4.17281e-06
4.82398e-06
-4.36864e-06
4.32932e-06
-4.53313e-06
3.7869e-06
-4.66923e-06
3.20627e-06
-4.77971e-06
2.59511e-06
-4.86688e-06
1.95958e-06
-4.93238e-06
1.30467e-06
-4.97708e-06
6.34619e-07
-5.00096e-06
-4.67818e-08
-5.00305e-06
-7.35745e-07
-4.9814e-06
-1.42811e-06
-4.93309e-06
-2.11891e-06
-4.85435e-06
-2.80193e-06
-4.74068e-06
-3.46922e-06
-4.58712e-06
-4.11062e-06
-4.38868e-06
-4.71327e-06
-4.14089e-06
-5.26122e-06
-3.84049e-06
-5.73508e-06
-3.48643e-06
-6.11202e-06
-3.08088e-06
-6.36592e-06
-2.63038e-06
-6.46817e-06
-2.14696e-06
-6.38893e-06
-1.64891e-06
-6.09908e-06
-1.16123e-06
-5.57294e-06
-7.15131e-07
-4.79127e-06
-3.4687e-07
-3.74445e-06
-9.55389e-08
-2.43509e-06
-8.81473e-07
-8.75396e-08
9.11997e-07
-3.15657e-07
2.48852e-06
-6.46652e-07
3.79323e-06
-1.04372e-06
4.82047e-06
-1.47413e-06
5.57987e-06
-1.91088e-06
6.0912e-06
-2.33344e-06
6.38051e-06
-2.72746e-06
6.47687e-06
-3.08414e-06
6.40969e-06
-3.39919e-06
6.20679e-06
-3.67179e-06
5.89327e-06
-3.90358e-06
5.49095e-06
-4.0978e-06
5.01821e-06
-4.25857e-06
4.49009e-06
-4.39032e-06
3.91865e-06
-4.49738e-06
3.31332e-06
-4.58362e-06
2.68135e-06
-4.65227e-06
2.02822e-06
-4.70568e-06
1.35808e-06
-4.74523e-06
6.74169e-07
-4.77122e-06
-2.07861e-08
-4.78281e-06
-7.24157e-07
-4.77794e-06
-1.43298e-06
-4.75335e-06
-2.14351e-06
-4.7046e-06
-2.85068e-06
-4.62621e-06
-3.54761e-06
-4.51186e-06
-4.22497e-06
-4.35478e-06
-4.87035e-06
-4.14828e-06
-5.46771e-06
-3.88659e-06
-5.99678e-06
-3.56586e-06
-6.43275e-06
-3.18551e-06
-6.74627e-06
-2.74969e-06
-6.90399e-06
-2.26884e-06
-6.86978e-06
-1.761e-06
-6.60693e-06
-1.25266e-06
-6.08127e-06
-7.78677e-07
-5.26526e-06
-3.80958e-07
-4.14217e-06
-1.0584e-07
-2.71021e-06
-9.87313e-07
-9.65152e-08
1.00851e-06
-3.44973e-07
2.73698e-06
-7.00093e-07
4.14835e-06
-1.11822e-06
5.23859e-06
-1.56154e-06
6.0232e-06
-2.00016e-06
6.52982e-06
-2.41255e-06
6.7929e-06
-2.78498e-06
6.8493e-06
-3.11028e-06
6.73499e-06
-3.38643e-06
6.48294e-06
-3.6151e-06
6.12194e-06
-3.80041e-06
5.67626e-06
-3.94788e-06
5.16568e-06
-4.06365e-06
4.60586e-06
-4.15387e-06
4.00887e-06
-4.22429e-06
3.38374e-06
-4.27995e-06
2.73701e-06
-4.32499e-06
2.07326e-06
-4.36249e-06
1.39558e-06
-4.39437e-06
7.0605e-07
-4.4213e-06
6.14196e-09
-4.44261e-06
-7.02846e-07
-4.45624e-06
-1.41935e-06
-4.45869e-06
-2.14105e-06
-4.445e-06
-2.86438e-06
-4.40878e-06
-3.58383e-06
-4.34239e-06
-4.29135e-06
-4.23723e-06
-4.97551e-06
-4.08426e-06
-5.62069e-06
-3.87478e-06
-6.20626e-06
-3.60159e-06
-6.70593e-06
-3.26056e-06
-7.0873e-06
-2.85245e-06
-7.3121e-06
-2.38503e-06
-7.3372e-06
-1.87515e-06
-7.11681e-06
-1.35026e-06
-6.60616e-06
-8.4893e-07
-5.76659e-06
-4.19665e-07
-4.57143e-06
-1.17795e-07
-3.01208e-06
-1.10511e-06
-1.07564e-07
1.11608e-06
-3.80229e-07
3.00964e-06
-7.62549e-07
4.53067e-06
-1.20205e-06
5.67809e-06
-1.6549e-06
6.47605e-06
-2.08821e-06
6.96313e-06
-2.48007e-06
7.18476e-06
-2.81823e-06
7.18746e-06
-3.09818e-06
7.01494e-06
-3.32103e-06
6.70579e-06
-3.49168e-06
6.29259e-06
-3.61723e-06
5.80181e-06
-3.70584e-06
5.25428e-06
-3.76582e-06
4.66585e-06
-3.80514e-06
4.04819e-06
-3.83096e-06
3.40956e-06
-3.84945e-06
2.7555e-06
-3.86562e-06
2.08942e-06
-3.88322e-06
1.41318e-06
-3.9047e-06
7.27528e-07
-3.9311e-06
3.25491e-08
-3.96203e-06
-6.71919e-07
-3.99552e-06
-1.38586e-06
-4.02798e-06
-2.10859e-06
-4.0541e-06
-2.83826e-06
-4.06681e-06
-3.57113e-06
-4.0573e-06
-4.30086e-06
-4.01524e-06
-5.01757e-06
-3.92915e-06
-5.70677e-06
-3.78718e-06
-6.34824e-06
-3.57824e-06
-6.91487e-06
-3.29374e-06
-7.3718e-06
-2.92985e-06
-7.676e-06
-2.49028e-06
-7.77677e-06
-1.98927e-06
-7.61782e-06
-1.45422e-06
-7.14121e-06
-9.27164e-07
-6.29364e-06
-4.64209e-07
-5.03439e-06
-1.31917e-07
-3.34437e-06
-1.23702e-06
-1.21526e-07
1.2376e-06
-4.23554e-07
3.31167e-06
-8.36717e-07
4.94384e-06
-1.29715e-06
6.13852e-06
-1.75401e-06
6.93291e-06
-2.17173e-06
7.38086e-06
-2.52909e-06
7.54212e-06
-2.81672e-06
7.47509e-06
-3.03407e-06
7.23229e-06
-3.18652e-06
6.85824e-06
-3.28298e-06
6.38905e-06
-3.33405e-06
5.85289e-06
-3.35076e-06
5.27099e-06
-3.34373e-06
4.65881e-06
-3.32264e-06
4.0271e-06
-3.29597e-06
3.38289e-06
-3.27085e-06
2.73038e-06
-3.25302e-06
2.07159e-06
-3.2468e-06
1.40697e-06
-3.25509e-06
7.3582e-07
-3.27932e-06
5.67749e-08
-3.31938e-06
-6.31856e-07
-3.37356e-06
-1.33168e-06
-3.43837e-06
-2.04379e-06
-3.50841e-06
-2.76821e-06
-3.57622e-06
-3.50332e-06
-3.63216e-06
-4.24492e-06
-3.66443e-06
-4.9853e-06
-3.65929e-06
-5.71191e-06
-3.60162e-06
-6.4059e-06
-3.47603e-06
-7.04046e-06
-3.26863e-06
-7.57921e-06
-2.96962e-06
-7.975e-06
-2.57683e-06
-8.16955e-06
-2.09988e-06
-8.09477e-06
-1.56435e-06
-7.67675e-06
-1.01498e-06
-6.84301e-06
-5.1631e-07
-5.53306e-06
-1.48968e-07
-3.71171e-06
-1.38599e-06
-1.39663e-07
1.37727e-06
-4.77918e-07
3.64992e-06
-9.25965e-07
5.39188e-06
-1.40525e-06
6.6178e-06
-1.85717e-06
7.38483e-06
-2.24447e-06
7.76816e-06
-2.5485e-06
7.84615e-06
-2.76482e-06
7.6914e-06
-2.89859e-06
7.36606e-06
-2.96074e-06
6.92039e-06
-2.965e-06
6.39331e-06
-2.92588e-06
5.81377e-06
-2.85738e-06
5.2025e-06
-2.77228e-06
4.57372e-06
-2.68178e-06
3.9366e-06
-2.59538e-06
3.29649e-06
-2.5209e-06
2.6559e-06
-2.46456e-06
2.01525e-06
-2.43104e-06
1.37345e-06
-2.42355e-06
7.28329e-07
-2.44384e-06
7.7068e-08
-2.49217e-06
-5.83528e-07
-2.56717e-06
-1.25667e-06
-2.66572e-06
-1.94524e-06
-2.78267e-06
-2.65127e-06
-2.91059e-06
-3.3754e-06
-3.0395e-06
-4.11602e-06
-3.15663e-06
-4.86817e-06
-3.24639e-06
-5.62215e-06
-3.29067e-06
-6.36163e-06
-3.26959e-06
-7.06153e-06
-3.16326e-06
-7.68555e-06
-2.9545e-06
-8.18377e-06
-2.63305e-06
-8.491e-06
-2.2011e-06
-8.52671e-06
-1.67966e-06
-8.1982e-06
-1.11432e-06
-7.40835e-06
-5.78401e-07
-6.06898e-06
-1.70116e-07
-4.12e-06
-1.55611e-06
-1.63915e-07
1.54118e-06
-5.47468e-07
4.03348e-06
-1.03428e-06
5.87869e-06
-1.52712e-06
7.11064e-06
-1.95958e-06
7.8173e-06
-2.29505e-06
8.10363e-06