/*--------------------------------*- C++ -*----------------------------------*\
| =========                 |                                                 |
| \\      /  F ield         | OpenFOAM: The Open Source CFD Toolbox           |
|  \\    /   O peration     | Version:  2506                                  |
|   \\  /    A nd           | Website:  www.openfoam.com                      |
|    \\/     M anipulation  |                                                 |
\*---------------------------------------------------------------------------*/
FoamFile
{
    version     2.0;
    format      ascii;
    arch        "LSB;label=32;scalar=64";
    class       volVectorField;
    location    "0.36";
    object      U;
}
// * * * * * * * * * * * * * * * * * * * * * * * * * * * * * * * * * * * * * //

dimensions      [0 1 -1 0 0 0 0];

internalField   nonuniform List<vector> 
1600
(
(6.0484e-05 -6.05546e-05 0)
(0.000155883 -5.71633e-05 0)
(0.000156879 -7.05659e-06 0)
(6.62673e-06 5.24323e-05 0)
(-0.00030329 0.000107963 0)
(-0.000756478 0.000154824 0)
(-0.00132847 0.000191653 0)
(-0.00199229 0.000218494 0)
(-0.00272073 0.000235921 0)
(-0.00348749 0.000244682 0)
(-0.00426785 0.000245568 0)
(-0.00503894 0.000239362 0)
(-0.0057799 0.000226827 0)
(-0.00647197 0.000208697 0)
(-0.00709852 0.00018568 0)
(-0.00764506 0.000158469 0)
(-0.00809926 0.000127744 0)
(-0.00845098 9.41858e-05 0)
(-0.0086923 5.84845e-05 0)
(-0.00881758 2.13477e-05 0)
(-0.00882353 -1.64901e-05 0)
(-0.00870929 -5.4262e-05 0)
(-0.00847655 -9.11652e-05 0)
(-0.00812962 -0.000126361 0)
(-0.0076755 -0.000158977 0)
(-0.00712396 -0.000188115 0)
(-0.00648758 -0.000212863 0)
(-0.0057817 -0.000232306 0)
(-0.00502436 -0.000245543 0)
(-0.00423615 -0.00025171 0)
(-0.00344 -0.000249993 0)
(-0.00266083 -0.000239653 0)
(-0.00192518 -0.000220052 0)
(-0.00126052 -0.000190708 0)
(-0.000694441 -0.000151422 0)
(-0.000253171 -0.000102618 0)
(4.07872e-05 -4.61826e-05 0)
(0.000174303 1.26524e-05 0)
(0.00016035 6.01902e-05 0)
(6.02731e-05 6.00224e-05 0)
(5.86569e-05 -0.00015701 0)
(7.25091e-05 -6.95265e-05 0)
(-0.000178464 0.000182286 0)
(-0.000772678 0.00047689 0)
(-0.00172465 0.000760954 0)
(-0.00300782 0.00100933 0)
(-0.00457364 0.00121071 0)
(-0.00636271 0.00136119 0)
(-0.00831127 0.00146068 0)
(-0.0103551 0.00151107 0)
(-0.0124319 0.00151535 0)
(-0.0144828 0.00147707 0)
(-0.0164533 0.0014001 0)
(-0.0182937 0.0012885 0)
(-0.0199599 0.00114639 0)
(-0.0214129 0.00097799 0)
(-0.0226198 0.000787547 0)
(-0.0235534 0.000579396 0)
(-0.0241925 0.000357971 0)
(-0.0245223 0.000127833 0)
(-0.0245342 -0.000106301 0)
(-0.0242265 -0.000339548 0)
(-0.023604 -0.000566847 0)
(-0.0226788 -0.000782978 0)
(-0.02147 -0.000982595 0)
(-0.020004 -0.00116028 0)
(-0.0183146 -0.00131063 0)
(-0.0164424 -0.00142835 0)
(-0.0144349 -0.00150838 0)
(-0.0123457 -0.00154606 0)
(-0.010234 -0.00153731 0)
(-0.008163 -0.00147885 0)
(-0.00619892 -0.00136851 0)
(-0.00440846 -0.00120574 0)
(-0.00285604 -0.000992428 0)
(-0.00159939 -0.000734633 0)
(-0.00068296 -0.000445916 0)
(-0.000126885 -0.00015344 0)
(9.20167e-05 8.83716e-05 0)
(6.17653e-05 0.000160711 0)
(1.14523e-05 -0.000162804 0)
(-0.000171906 0.000178389 0)
(-0.000803972 0.000813819 0)
(-0.00193089 0.00153621 0)
(-0.00355356 0.00223855 0)
(-0.00563603 0.00286135 0)
(-0.0081135 0.00337304 0)
(-0.0109045 0.00375922 0)
(-0.0139195 0.00401572 0)
(-0.0170664 0.0041445 0)
(-0.0202547 0.00415124 0)
(-0.0233973 0.00404394 0)
(-0.0264131 0.00383202 0)
(-0.0292275 0.00352579 0)
(-0.0317737 0.00313618 0)
(-0.0339929 0.00267448 0)
(-0.0358349 0.00215233 0)
(-0.0372586 0.00158169 0)
(-0.038232 0.000974856 0)
(-0.0387325 0.00034448 0)
(-0.0387476 -0.000296363 0)
(-0.0382748 -0.000934178 0)
(-0.0373219 -0.00155506 0)
(-0.0359076 -0.00214474 0)
(-0.0340613 -0.00268873 0)
(-0.0318231 -0.00317245 0)
(-0.0292442 -0.00358149 0)
(-0.0263858 -0.00390194 0)
(-0.0233191 -0.00412069 0)
(-0.020124 -0.00422601 0)
(-0.016888 -0.004208 0)
(-0.0137039 -0.00405941 0)
(-0.0106676 -0.00377654 0)
(-0.00787456 -0.00336066 0)
(-0.00541519 -0.00282021 0)
(-0.00336901 -0.00217451 0)
(-0.00179567 -0.00146022 0)
(-0.000723081 -0.000741126 0)
(-0.000138848 -0.000126446 0)
(1.76834e-05 0.000180035 0)
(-4.54112e-05 -2.20269e-05 0)
(-0.00046435 0.00076794 0)
(-0.00153529 0.00194126 0)
(-0.0032416 0.00322643 0)
(-0.00555419 0.00446782 0)
(-0.00842208 0.00557056 0)
(-0.0117643 0.00647962 0)
(-0.0154809 0.00716692 0)
(-0.0194621 0.00762181 0)
(-0.0235945 0.007845 0)
(-0.0277654 0.00784461 0)
(-0.0318658 0.00763366 0)
(-0.0357934 0.00722842 0)
(-0.0394537 0.00664728 0)
(-0.0427617 0.00591011 0)
(-0.0456425 0.00503784 0)
(-0.048032 0.0040522 0)
(-0.0498776 0.00297568 0)
(-0.0511383 0.00183145 0)
(-0.0517856 0.000643434 0)
(-0.0518035 -0.000563701 0)
(-0.051189 -0.00176453 0)
(-0.0499525 -0.00293295 0)
(-0.0481181 -0.00404226 0)
(-0.0457234 -0.00506548 0)
(-0.0428199 -0.00597559 0)
(-0.0394726 -0.00674609 0)
(-0.0357595 -0.00735153 0)
(-0.0317706 -0.0077683 0)
(-0.0276067 -0.00797552 0)
(-0.0233775 -0.00795616 0)
(-0.0191991 -0.00769844 0)
(-0.0151905 -0.00719765 0)
(-0.0114694 -0.00645856 0)
(-0.00814719 -0.00549908 0)
(-0.00532184 -0.00435565 0)
(-0.00306877 -0.00309182 0)
(-0.00142983 -0.00180979 0)
(-0.00042004 -0.000669523 0)
(-3.66902e-05 5.97931e-05 0)
(-0.000100496 0.000278568 0)
(-0.000761174 0.00172907 0)
(-0.00228971 0.00359178 0)
(-0.00459337 0.00555571 0)
(-0.00760264 0.00742818 0)
(-0.0112455 0.00908408 0)
(-0.0154222 0.0104465 0)
(-0.0200147 0.0114733 0)
(-0.0248954 0.0121467 0)
(-0.0299328 0.0124655 0)
(-0.0349963 0.0124401 0)
(-0.0399593 0.012089 0)
(-0.0447023 0.011436 0)
(-0.0491152 0.0105089 0)
(-0.0530982 0.00933807 0)
(-0.0565634 0.00795595 0)
(-0.0594356 0.00639639 0)
(-0.0616529 0.00469462 0)
(-0.0631671 0.00288703 0)
(-0.0639448 0.00101124 0)
(-0.0639671 -0.000893996 0)
(-0.0632308 -0.00278878 0)
(-0.0617481 -0.00463221 0)
(-0.0595471 -0.00638263 0)
(-0.0566722 -0.00799798 0)
(-0.0531838 -0.00943638 0)
(-0.049158 -0.0106569 0)
(-0.0446859 -0.0116204 0)
(-0.0398727 -0.0122909 0)
(-0.0348359 -0.0126371 0)
(-0.0297032 -0.0126337 0)
(-0.0246094 -0.012264 0)
(-0.0196927 -0.0115226 0)
(-0.0150899 -0.0104185 0)
(-0.0109312 -0.00898003 0)
(-0.00733312 -0.0072616 0)
(-0.00438989 -0.00535274 0)
(-0.00216359 -0.00338985 0)
(-0.000707242 -0.00157331 0)
(-8.96335e-05 -0.000214688 0)
(-0.000150748 0.000732597 0)
(-0.0010459 0.00306253 0)
(-0.00302957 0.00577267 0)
(-0.00593043 0.0085314 0)
(-0.0096334 0.0111206 0)
(-0.0140406 0.013392 0)
(-0.0190307 0.0152505 0)
(-0.024466 0.0166418 0)
(-0.0302017 0.0175417 0)
(-0.0360898 0.0179476 0)
(-0.041984 0.0178726 0)
(-0.0477431 0.0173412 0)
(-0.0532337 0.0163857 0)
(-0.0583326 0.0150444 0)
(-0.0629282 0.0133594 0)
(-0.0669224 0.0113762 0)
(-0.0702308 0.00914239 0)
(-0.0727842 0.00670776 0)
(-0.0745288 0.00412381 0)
(-0.0754269 0.00144374 0)
(-0.0754573 -0.00127757 0)
(-0.0746163 -0.00398373 0)
(-0.0729172 -0.006617 0)
(-0.0703915 -0.00911864 0)
(-0.0670884 -0.0114295 0)
(-0.0630752 -0.0134908 0)
(-0.0584365 -0.0152452 0)
(-0.0532741 -0.0166382 0)
(-0.0477053 -0.0176199 0)
(-0.0418611 -0.0181468 0)
(-0.0358842 -0.0181846 0)
(-0.0299257 -0.0177109 0)
(-0.0241407 -0.0167189 0)
(-0.018684 -0.0152217 0)
(-0.0137044 -0.0132576 0)
(-0.00933896 -0.0108974 0)
(-0.00570394 -0.00825375 0)
(-0.0028867 -0.0054912 0)
(-0.000983684 -0.00284032 0)
(-0.000137922 -0.000637744 0)
(-0.000196067 0.00132973 0)
(-0.00131418 0.00475694 0)
(-0.00374103 0.00847629 0)
(-0.00722958 0.0121479 0)
(-0.0116175 0.015538 0)
(-0.0167782 0.0184821 0)
(-0.0225656 0.020872 0)
(-0.0288213 0.0226444 0)
(-0.0353823 0.0237705 0)
(-0.0420847 0.0242479 0)
(-0.048768 0.0240935 0)
(-0.0552778 0.0233386 0)
(-0.0614688 0.0220253 0)
(-0.067207 0.0202033 0)
(-0.0723716 0.0179278 0)
(-0.0768558 0.0152585 0)
(-0.0805682 0.0122582 0)
(-0.0834337 0.00899263 0)
(-0.0853938 0.00552975 0)
(-0.0864074 0.00193993 0)
(-0.0864514 -0.00170437 0)
(-0.085521 -0.00532865 0)
(-0.0836305 -0.00885673 0)
(-0.0808132 -0.0122112 0)
(-0.0771219 -0.0153141 0)
(-0.0726288 -0.0180881 0)
(-0.0674254 -0.0204578 0)
(-0.0616215 -0.0223516 0)
(-0.0553442 -0.0237041 0)
(-0.0487363 -0.0244582 0)
(-0.0419533 -0.0245693 0)
(-0.0351609 -0.0240078 0)
(-0.0285306 -0.0227645 0)
(-0.0222351 -0.020855 0)
(-0.0164431 -0.0183257 0)
(-0.0113142 -0.0152615 0)
(-0.00698989 -0.0117939 0)
(-0.0035863 -0.00810963 0)
(-0.00124521 -0.00446123 0)
(-0.000181435 -0.00119967 0)
(-0.000237385 0.00206027 0)
(-0.00156721 0.00679772 0)
(-0.00442303 0.0116892 0)
(-0.00848662 0.0163937 0)
(-0.0135488 0.0206691 0)
(-0.0194523 0.0243415 0)
(-0.0260248 0.0272944 0)
(-0.0330852 0.0294593 0)
(-0.0404516 0.030806 0)
(-0.0479441 0.0313343 0)
(-0.0553882 0.0310666 0)
(-0.0626175 0.0300428 0)
(-0.0694764 0.0283158 0)
(-0.0758218 0.0259479 0)
(-0.0815249 0.0230088 0)
(-0.0864723 0.0195734 0)
(-0.090567 0.0157209 0)
(-0.093729 0.0115338 0)
(-0.0958962 0.00709784 0)
(-0.0970245 0.00250157 0)
(-0.0970891 -0.0021638 0)
(-0.096084 -0.00680458 0)
(-0.0940235 -0.011325 0)
(-0.090942 -0.0156275 0)
(-0.0868943 -0.0196143 0)
(-0.0819563 -0.0231878 0)
(-0.076224 -0.0262533 0)
(-0.0698138 -0.0287203 0)
(-0.0628608 -0.0305061 0)
(-0.0555176 -0.0315388 0)
(-0.0479518 -0.031761 0)
(-0.0403431 -0.0311346 0)
(-0.032879 -0.0296457 0)
(-0.025751 -0.0273101 0)
(-0.0191492 -0.0241799 0)
(-0.0132581 -0.0203505 0)
(-0.00824706 -0.0159681 0)
(-0.00426314 -0.0112365 0)
(-0.00149366 -0.00642435 0)
(-0.000221189 -0.00189161 0)
(-0.000275837 0.00291642 0)
(-0.00180833 0.00917151 0)
(-0.0050805 0.0153979 0)
(-0.00970723 0.0212568 0)
(-0.0154336 0.0265035 0)
(-0.0220708 0.0309596 0)
(-0.0294189 0.0345055 0)
(-0.0372729 0.0370718 0)
(-0.045431 0.0386302 0)
(-0.0536969 0.0391854 0)
(-0.0618823 0.0387678 0)
(-0.0698096 0.0374277 0)
(-0.0773135 0.0352304 0)
(-0.0842433 0.0322525 0)
(-0.0904635 0.028579 0)
(-0.0958555 0.0243012 0)
(-0.100318 0.0195155 0)
(-0.103767 0.0143223 0)
(-0.106137 0.00882566 0)
(-0.107383 0.00313311 0)
(-0.107476 -0.00264471 0)
(-0.106411 -0.00839413 0)
(-0.1042 -0.0139989 0)
(-0.100879 -0.0193406 0)
(-0.0965019 -0.0243002 0)
(-0.0911474 -0.028759 0)
(-0.0849146 -0.032601 0)
(-0.0779248 -0.0357157 0)
(-0.0703196 -0.0380012 0)
(-0.0622604 -0.0393682 0)
(-0.0539258 -0.0397449 0)
(-0.0455091 -0.0390817 0)
(-0.0372148 -0.0373575 0)
(-0.0292539 -0.0345856 0)
(-0.0218398 -0.0308202 0)
(-0.015184 -0.0261636 0)
(-0.00948568 -0.0207728 0)
(-0.00492464 -0.0148647 0)
(-0.00173329 -0.00872025 0)
(-0.000258479 -0.00270701 0)
(-0.00031248 0.00389268 0)
(-0.00204143 0.011868 0)
(-0.00572073 0.0195913 0)
(-0.0109016 0.0267275 0)
(-0.0172845 0.0330325 0)
(-0.0246486 0.0383285 0)
(-0.0327654 0.0424969 0)
(-0.0414049 0.0454718 0)
(-0.0503448 0.0472306 0)
(-0.0593718 0.0477862 0)
(-0.068284 0.0471799 0)
(-0.0768928 0.0454746 0)
(-0.0850243 0.0427501 0)
(-0.0925209 0.0390985 0)
(-0.099242 0.0346216 0)
(-0.105065 0.0294282 0)
(-0.109884 0.0236325 0)
(-0.113614 0.0173535 0)
(-0.116187 0.0107141 0)
(-0.117554 0.00384108 0)
(-0.117687 -0.00313504 0)
(-0.116577 -0.0100802 0)
(-0.114236 -0.0168572 0)
(-0.110697 -0.0233262 0)
(-0.106016 -0.029346 0)
(-0.100271 -0.0347755 0)
(-0.0935627 -0.0394763 0)
(-0.0860159 -0.043316 0)
(-0.0777773 -0.0461713 0)
(-0.069016 -0.0479335 0)
(-0.0599212 -0.0485132 0)
(-0.0506998 -0.0478465 0)
(-0.0415734 -0.0459017 0)
(-0.0327742 -0.0426858 0)
(-0.0245404 -0.0382516 0)
(-0.0171123 -0.0327046 0)
(-0.0107213 -0.026209 0)
(-0.0055811 -0.0189916 0)
(-0.00196917 -0.0113439 0)
(-0.000294567 -0.00364219 0)
(-0.000348215 0.00498577 0)
(-0.0022703 0.0148807 0)
(-0.00635158 0.0242622 0)
(-0.0120815 0.032799 0)
(-0.0191163 0.0402503 0)
(-0.0272031 0.0464423 0)
(-0.0360837 0.0512622 0)
(-0.0455027 0.0546515 0)
(-0.0552162 0.0565975 0)
(-0.0649939 0.0571251 0)
(-0.0746201 0.0562893 0)
(-0.0838958 0.0541685 0)
(-0.0926392 0.050859 0)
(-0.100687 0.0464707 0)
(-0.107895 0.0411232 0)
(-0.114136 0.0349437 0)
(-0.119304 0.0280652 0)
(-0.12331 0.0206253 0)
(-0.126086 0.012766 0)
(-0.127581 0.00463361 0)
(-0.127764 -0.00362159 0)
(-0.126626 -0.0118451 0)
(-0.124175 -0.0198786 0)
(-0.120443 -0.0275604 0)
(-0.115484 -0.0347264 0)
(-0.109374 -0.0412125 0)
(-0.102216 -0.0468564 0)
(-0.094134 -0.0515017 0)
(-0.0852801 -0.0550017 0)
(-0.0758295 -0.0572251 0)
(-0.0659811 -0.0580619 0)
(-0.0559557 -0.0574303 0)
(-0.0459924 -0.0552839 0)
(-0.0363454 -0.0516194 0)
(-0.0272798 -0.0464841 0)
(-0.0190668 -0.0399827 0)
(-0.0119718 -0.0322833 0)
(-0.00624379 -0.0236205 0)
(-0.00220641 -0.0142958 0)
(-0.000330594 -0.00469629 0)
(-0.000383791 0.00619437 0)
(-0.00249835 0.0182069 0)
(-0.00698062 0.0294075 0)
(-0.0132586 0.0394684 0)
(-0.0209444 0.048154 0)
(-0.029752 0.0552979 0)
(-0.0393934 0.0607969 0)
(-0.0495864 0.0646045 0)
(-0.0600654 0.0667221 0)
(-0.0705826 0.0671905 0)
(-0.0809091 0.0660823 0)
(-0.0908358 0.0634942 0)
(-0.100174 0.0595418 0)
(-0.108756 0.0543542 0)
(-0.116434 0.0480707 0)
(-0.123081 0.0408376 0)
(-0.128587 0.0328071 0)
(-0.132865 0.0241359 0)
(-0.135845 0.0149851 0)
(-0.137474 0.00551989 0)
(-0.13772 -0.00408984 0)
(-0.136571 -0.0136695 0)
(-0.134033 -0.0230399 0)
(-0.130135 -0.0320172 0)
(-0.124926 -0.0404146 0)
(-0.118482 -0.0480436 0)
(-0.110901 -0.0547169 0)
(-0.10231 -0.060252 0)
(-0.0928617 -0.0644765 0)
(-0.0827365 -0.0672332 0)
(-0.0721426 -0.0683878 0)
(-0.0613139 -0.0678361 0)
(-0.0505076 -0.0655127 0)
(-0.0400012 -0.0613992 0)
(-0.030088 -0.0555326 0)
(-0.0210721 -0.0480129 0)
(-0.0132552 -0.0390091 0)
(-0.00692398 -0.0287615 0)
(-0.00244989 -0.0175818 0)
(-0.000367576 -0.00587121 0)
(-0.000419836 0.00751892 0)
(-0.00272864 0.0218473 0)
(-0.00761481 0.0350283 0)
(-0.014444 0.0467366 0)
(-0.0227828 0.0567437 0)
(-0.0323118 0.0648936 0)
(-0.0427115 0.071097 0)
(-0.0536725 0.0753237 0)
(-0.0649071 0.077594 0)
(-0.0761501 0.0779691 0)
(-0.0871595 0.0765428 0)
(-0.0977173 0.0734339 0)
(-0.107629 0.0687798 0)
(-0.116724 0.0627311 0)
(-0.124852 0.055448 0)
(-0.131886 0.0470971 0)
(-0.137719 0.0378502 0)
(-0.142261 0.0278829 0)
(-0.145443 0.0173747 0)
(-0.147213 0.00650959 0)
(-0.147535 -0.00452394 0)
(-0.146395 -0.0155319 0)
(-0.143796 -0.0263148 0)
(-0.139762 -0.0366672 0)
(-0.134338 -0.0463792 0)
(-0.127594 -0.0552375 0)
(-0.119626 -0.0630284 0)
(-0.110557 -0.0695417 0)
(-0.100541 -0.0745759 0)
(-0.0897613 -0.0779448 0)
(-0.0784341 -0.0794854 0)
(-0.0668057 -0.0790662 0)
(-0.0551516 -0.0765974 0)
(-0.0437731 -0.0720401 0)
(-0.0329933 -0.0654161 0)
(-0.0231518 -0.056816 0)
(-0.0145892 -0.0464062 0)
(-0.0076325 -0.0344312 0)
(-0.00270422 -0.0212134 0)
(-0.000406426 -0.00717135 0)
(-0.000456882 0.00896135 0)
(-0.00296385 0.0258062 0)
(-0.00826045 0.0411295 0)
(-0.0156475 0.054608 0)
(-0.0246446 0.0660219 0)
(-0.0348968 0.075229 0)
(-0.0460521 0.082158 0)
(-0.0577733 0.0868003 0)
(-0.06975 0.0891999 0)
(-0.0816997 0.0894431 0)
(-0.0933684 0.0876497 0)
(-0.10453 0.0839641 0)
(-0.114986 0.0785485 0)
(-0.124564 0.0715775 0)
(-0.133116 0.0632336 0)
(-0.140514 0.0537048 0)
(-0.146654 0.0431823 0)
(-0.151449 0.0318604 0)
(-0.154829 0.0199366 0)
(-0.156743 0.00761215 0)
(-0.157155 -0.0049068 0)
(-0.156046 -0.0174082 0)
(-0.153416 -0.0296731 0)
(-0.149282 -0.0414754 0)
(-0.143683 -0.0525824 0)
(-0.136683 -0.0627556 0)
(-0.128371 -0.071754 0)
(-0.118866 -0.0793374 0)
(-0.108318 -0.0852727 0)
(-0.0969133 -0.0893405 0)
(-0.0848727 -0.0913442 0)
(-0.0724541 -0.0911195 0)
(-0.0599507 -0.0885462 0)
(-0.0476885 -0.0835586 0)
(-0.036022 -0.076157 0)
(-0.0253284 -0.0664178 0)
(-0.0159905 -0.0545008 0)
(-0.00837964 -0.0406528 0)
(-0.0029737 -0.0252072 0)
(-0.000447979 -0.00860344 0)
(-0.000495403 0.0105249 0)
(-0.00320646 0.0300906 0)
(-0.00892332 0.0477195 0)
(-0.0168784 0.0630901 0)
(-0.0265411 0.0759931 0)
(-0.0375189 0.0863039 0)
(-0.0494259 0.093974 0)
(-0.0618958 0.0990218 0)
(-0.0745952 0.101521 0)
(-0.0872251 0.101588 0)
(-0.0995203 0.0993735 0)
(-0.111249 0.0950521 0)
(-0.12221 0.0888142 0)
(-0.132231 0.0808605 0)
(-0.141167 0.0713978 0)
(-0.148896 0.0606356 0)
(-0.155317 0.048785 0)
(-0.160345 0.0360582 0)
(-0.163915 0.0226694 0)
(-0.165976 0.00883594 0)
(-0.16649 -0.00522035 0)
(-0.165436 -0.0192709 0)
(-0.162808 -0.0330793 0)
(-0.158617 -0.0463998 0)
(-0.152894 -0.0589777 0)
(-0.145692 -0.0705495 0)
(-0.137091 -0.0808458 0)
(-0.127204 -0.0895949 0)
(-0.116174 -0.0965289 0)
(-0.104185 -0.101391 0)
(-0.091462 -0.103945 0)
(-0.0782718 -0.103989 0)
(-0.0649243 -0.101364 0)
(-0.0517702 -0.0959702 0)
(-0.0391969 -0.0877798 0)
(-0.0276223 -0.0768484 0)
(-0.017475 -0.0633248 0)
(-0.00917514 -0.0474554 0)
(-0.00326244 -0.0295847 0)
(-0.000493028 -0.0101764 0)
(-0.000535853 0.0122141 0)
(-0.00345881 0.0347103 0)
(-0.00960896 0.0548098 0)
(-0.0181452 0.0721927 0)
(-0.0284826 0.0866627 0)
(-0.0401883 0.0981169 0)
(-0.0528401 0.106535 0)
(-0.0660415 0.11197 0)
(-0.0794361 0.114529 0)
(-0.0927091 0.114368 0)
(-0.105586 0.111673 0)
(-0.11783 0.106653 0)
(-0.129241 0.0995307 0)
(-0.139652 0.0905352 0)
(-0.148922 0.079899 0)
(-0.156935 0.0678542 0)
(-0.163598 0.0546311 0)
(-0.168832 0.0404591 0)
(-0.172577 0.0255675 0)
(-0.174781 0.0101873 0)
(-0.17541 -0.00544595 0)
(-0.174436 -0.0210897 0)
(-0.17185 -0.036492 0)
(-0.167652 -0.0513899 0)
(-0.161864 -0.0655077 0)
(-0.154527 -0.0785577 0)
(-0.145709 -0.0902418 0)
(-0.13551 -0.100255 0)
(-0.124064 -0.108292 0)
(-0.111549 -0.114053 0)
(-0.0981897 -0.117258 0)
(-0.0842592 -0.117658 0)
(-0.0700826 -0.115049 0)
(-0.0560349 -0.109287 0)
(-0.0425375 -0.100309 0)
(-0.0300519 -0.088141 0)
(-0.0190573 -0.072915 0)
(-0.0100284 -0.0548737 0)
(-0.00357444 -0.0343721 0)
(-0.000542356 -0.0119013 0)
(-0.000578702 0.0140347 0)
(-0.00372337 0.0396779 0)
(-0.010323 0.0624152 0)
(-0.0194563 0.0819282 0)
(-0.0304789 0.0980366 0)
(-0.0429133 0.110665 0)
(-0.0562985 0.119828 0)
(-0.0702064 0.125618 0)
(-0.0842577 0.128188 0)
(-0.0981229 0.127737 0)
(-0.11152 0.124494 0)
(-0.124212 0.118708 0)
(-0.136002 0.110636 0)
(-0.146729 0.100541 0)
(-0.156263 0.088681 0)
(-0.164499 0.0753117 0)
(-0.171352 0.0606821 0)
(-0.176754 0.045037 0)
(-0.180648 0.0286185 0)
(-0.182988 0.0116691 0)
(-0.18374 -0.00556504 0)
(-0.182874 -0.0228306 0)
(-0.180372 -0.0398634 0)
(-0.176228 -0.0563853 0)
(-0.170447 -0.0721024 0)
(-0.163058 -0.0867038 0)
(-0.154111 -0.099863 0)
(-0.14369 -0.11124 0)
(-0.131915 -0.12049 0)
(-0.118954 -0.127266 0)
(-0.105024 -0.131236 0)
(-0.0904021 -0.132097 0)
(-0.0754256 -0.12959 0)
(-0.0604924 -0.123517 0)
(-0.0460591 -0.113768 0)
(-0.0326337 -0.10033 0)
(-0.0207514 -0.0833124 0)
(-0.0109487 -0.0629478 0)
(-0.00391374 -0.0396005 0)
(-0.000596766 -0.0137911 0)
(-0.000624489 0.0159938 0)
(-0.00400289 0.0450089 0)
(-0.0110719 0.0705532 0)
(-0.0208211 0.0923104 0)
(-0.0325398 0.11012 0)
(-0.0457012 0.12394 0)
(-0.059802 0.133829 0)
(-0.0743809 0.139929 0)
(-0.0890361 0.142446 0)
(-0.103425 0.14163 0)
(-0.117261 0.137762 0)
(-0.130311 0.131135 0)
(-0.142385 0.122048 0)
(-0.153335 0.110797 0)
(-0.163044 0.0976691 0)
(-0.171421 0.0829429 0)
(-0.178395 0.0668852 0)
(-0.183909 0.0497541 0)
(-0.187917 0.0318022 0)
(-0.190379 0.0132798 0)
(-0.19126 -0.00556003 0)
(-0.190529 -0.024457 0)
(-0.188161 -0.0431384 0)
(-0.184137 -0.0613149 0)
(-0.17845 -0.0786771 0)
(-0.171108 -0.0948933 0)
(-0.162142 -0.109609 0)
(-0.151614 -0.122451 0)
(-0.139623 -0.133028 0)
(-0.126319 -0.140945 0)
(-0.11191 -0.145811 0)
(-0.0966688 -0.147258 0)
(-0.0809406 -0.14496 0)
(-0.0651446 -0.138656 0)
(-0.0497725 -0.128173 0)
(-0.0353822 -0.113451 0)
(-0.0225708 -0.094561 0)
(-0.0119452 -0.0717224 0)
(-0.00428455 -0.0453049 0)
(-0.000657128 -0.0158613 0)
(-0.000673881 0.0180998 0)
(-0.00430073 0.0507219 0)
(-0.0118629 0.079245 0)
(-0.0222503 0.103355 0)
(-0.0346766 0.122917 0)
(-0.0485593 0.137931 0)
(-0.063349 0.148508 0)
(-0.0785497 0.154852 0)
(-0.0937376 0.157232 0)
(-0.10856 0.155962 0)
(-0.12273 0.151379 0)
(-0.13602 0.14383 0)
(-0.148257 0.133659 0)
(-0.159309 0.121199 0)
(-0.169077 0.106767 0)
(-0.177491 0.0906625 0)
(-0.184497 0.0731703 0)
(-0.190054 0.054559 0)
(-0.194127 0.0350879 0)
(-0.196684 0.0150114 0)
(-0.197694 -0.00541531 0)
(-0.197125 -0.0259295 0)
(-0.194944 -0.0462548 0)
(-0.19112 -0.0660954 0)
(-0.185627 -0.0851306 0)
(-0.178452 -0.103011 0)
(-0.1696 -0.119357 0)
(-0.159106 -0.13376 0)
(-0.147041 -0.145784 0)
(-0.133532 -0.154979 0)
(-0.118766 -0.160887 0)
(-0.103007 -0.163068 0)
(-0.0866006 -0.161115 0)
(-0.0699839 -0.154688 0)
(-0.0536835 -0.143536 0)
(-0.03831 -0.127534 0)
(-0.024529 -0.106707 0)
(-0.013028 -0.0812468 0)
(-0.00469151 -0.0515256 0)
(-0.000724428 -0.0181292 0)
(-0.000727752 0.0203633 0)
(-0.00462125 0.05684 0)
(-0.0127059 0.0885159 0)
(-0.0237573 0.11508 0)
(-0.0369025 0.13643 0)
(-0.0514955 0.152617 0)
(-0.0669357 0.16382 0)
(-0.0826913 0.170317 0)
(-0.0983174 0.172455 0)
(-0.113455 0.170622 0)
(-0.127822 0.165222 0)
(-0.141206 0.156662 0)
(-0.153452 0.145335 0)
(-0.164453 0.131615 0)
(-0.174137 0.11585 0)
(-0.182456 0.0983618 0)
(-0.18938 0.0794471 0)
(-0.194889 0.0593833 0)
(-0.198962 0.0384324 0)
(-0.201579 0.0168476 0)
(-0.202713 -0.00511869 0)
(-0.202332 -0.0272072 0)
(-0.200394 -0.0491438 0)
(-0.196856 -0.0706317 0)
(-0.191673 -0.0913443 0)
(-0.184806 -0.110919 0)
(-0.176228 -0.128955 0)
(-0.165941 -0.145009 0)
(-0.153982 -0.158601 0)
(-0.140442 -0.16922 0)
(-0.12548 -0.176337 0)
(-0.109339 -0.179425 0)
(-0.0923606 -0.177985 0)
(-0.0749921 -0.171576 0)
(-0.0577926 -0.159854 0)
(-0.0414279 -0.142608 0)
(-0.0266397 -0.119797 0)
(-0.0142079 -0.0915746 0)
(-0.00513989 -0.0583074 0)
(-0.000799828 -0.0206151 0)
(-0.000787288 0.0227976 0)
(-0.00497025 0.0633914 0)
(-0.0136133 0.098396 0)
(-0.0253596 0.127505 0)
(-0.0392346 0.150657 0)
(-0.0545191 0.167969 0)
(-0.0705563 0.179704 0)
(-0.0867767 0.186233 0)
(-0.102718 0.187995 0)
(-0.118019 0.185466 0)
(-0.13241 0.179129 0)
(-0.145702 0.16946 0)
(-0.157767 0.156905 0)
(-0.168529 0.141882 0)
(-0.17795 0.124768 0)
(-0.186012 0.105905 0)
(-0.192716 0.0856021 0)
(-0.198063 0.0641398 0)
(-0.202053 0.0417775 0)
(-0.20468 0.0187622 0)
(-0.205923 -0.00466288 0)
(-0.205751 -0.0282486 0)
(-0.204117 -0.0517298 0)
(-0.200963 -0.0748157 0)
(-0.19622 -0.0971806 0)
(-0.189823 -0.118455 0)
(-0.181708 -0.138221 0)
(-0.171837 -0.156005 0)
(-0.160201 -0.171283 0)
(-0.146848 -0.183481 0)
(-0.131897 -0.191991 0)
(-0.115557 -0.196188 0)
(-0.0981541 -0.195464 0)
(-0.0801372 -0.189259 0)
(-0.0620934 -0.177108 0)
(-0.0447451 -0.158691 0)
(-0.0289176 -0.133877 0)
(-0.0154973 -0.102764 0)
(-0.00563605 -0.065701 0)
(-0.000884764 -0.0233422 0)
(-0.00085414 0.0254191 0)
(-0.00535565 0.0704116 0)
(-0.0146023 0.108922 0)
(-0.0270803 0.140652 0)
(-0.0416949 0.165591 0)
(-0.0576418 0.183944 0)
(-0.0742018 0.196078 0)
(-0.0907679 0.202478 0)
(-0.106864 0.203696 0)
(-0.122135 0.200313 0)
(-0.136334 0.192903 0)
(-0.149302 0.182016 0)
(-0.160951 0.168161 0)
(-0.171247 0.151797 0)
(-0.180189 0.133332 0)
(-0.187801 0.113126 0)
(-0.194114 0.0914959 0)
(-0.199162 0.0687194 0)
(-0.202966 0.0450485 0)
(-0.205538 0.0207173 0)
(-0.206866 -0.00404722 0)
(-0.206922 -0.0290132 0)
(-0.205652 -0.0539323 0)
(-0.202983 -0.078528 0)
(-0.198828 -0.102483 0)
(-0.193084 -0.12543 0)
(-0.185652 -0.14694 0)
(-0.176442 -0.166515 0)
(-0.165394 -0.183589 0)
(-0.152497 -0.197524 0)
(-0.137817 -0.207628 0)
(-0.121517 -0.213168 0)
(-0.103888 -0.213407 0)
(-0.0853705 -0.20764 0)
(-0.0665717 -0.195255 0)
(-0.0482692 -0.175788 0)
(-0.0313793 -0.14899 0)
(-0.0169113 -0.114876 0)
(-0.00618788 -0.0737638 0)
(-0.000981072 -0.0263372 0)
(-0.000930629 0.0282494 0)
(-0.00578841 0.0779455 0)
(-0.015696 0.120141 0)
(-0.0289503 0.154545 0)
(-0.044312 0.181221 0)
(-0.0608774 0.200481 0)
(-0.077859 0.212831 0)
(-0.0946135 0.218894 0)
(-0.110658 0.219361 0)
(-0.125656 0.214934 0)
(-0.139393 0.206294 0)
(-0.151756 0.194075 0)
(-0.162706 0.178848 0)
(-0.17226 0.161117 0)
(-0.180469 0.14132 0)
(-0.187399 0.119828 0)
(-0.193124 0.0969614 0)
(-0.197708 0.0729904 0)
(-0.201203 0.0481523 0)
(-0.203638 0.0226612 0)
(-0.205015 -0.00327946 0)
(-0.205308 -0.0294634 0)
(-0.204462 -0.0556677 0)
(-0.202389 -0.0816389 0)
(-0.198978 -0.107079 0)
(-0.194094 -0.13163 0)
(-0.187592 -0.154862 0)
(-0.179329 -0.176262 0)
(-0.169181 -0.195226 0)
(-0.157068 -0.211057 0)
(-0.142983 -0.222971 0)
(-0.127025 -0.230118 0)
(-0.109434 -0.231612 0)
(-0.0906214 -0.226578 0)
(-0.0712025 -0.214219 0)
(-0.0520054 -0.193888 0)
(-0.0340441 -0.165176 0)
(-0.0184688 -0.127979 0)
(-0.00680558 -0.0825609 0)
(-0.00109118 -0.0296319 0)
(-0.00102006 0.0313166 0)
(-0.00628373 0.0860515 0)
(-0.0169258 0.132108 0)
(-0.0310104 0.169212 0)
(-0.0471221 0.197521 0)
(-0.0642409 0.217497 0)
(-0.0815058 0.229814 0)
(-0.098242 0.235275 0)
(-0.113972 0.234736 0)
(-0.12839 0.229044 0)
(-0.141334 0.218999 0)
(-0.15275 0.205326 0)
(-0.162665 0.188662 0)
(-0.171156 0.169556 0)
(-0.178333 0.148468 0)
(-0.184316 0.125779 0)
(-0.189222 0.101803 0)
(-0.193155 0.0767971 0)
(-0.196195 0.0509766 0)
(-0.198394 0.0245278 0)
(-0.199771 -0.00237739 0)
(-0.200304 -0.0295665 0)
(-0.199937 -0.0568511 0)
(-0.198571 -0.0840112 0)
(-0.196071 -0.110777 0)
(-0.19227 -0.136814 0)
(-0.186975 -0.161703 0)
(-0.179983 -0.184925 0)
(-0.171097 -0.205848 0)
(-0.160156 -0.22372 0)
(-0.147064 -0.23767 0)
(-0.13183 -0.246718 0)
(-0.114619 -0.249811 0)
(-0.0957904 -0.245874 0)
(-0.0759465 -0.233881 0)
(-0.0559565 -0.212953 0)
(-0.0369352 -0.182463 0)
(-0.0201942 -0.142143 0)
(-0.00750278 -0.0921681 0)
(-0.0012184 -0.0332642 0)
(-0.0011272 0.0346582 0)
(-0.00686294 0.0948058 0)
(-0.0183345 0.144896 0)
(-0.0333142 0.184682 0)
(-0.0501697 0.214455 0)
(-0.0677456 0.234872 0)
(-0.085105 0.246831 0)
(-0.101551 0.251357 0)
(-0.116629 0.249505 0)
(-0.130088 0.242292 0)
(-0.141836 0.23065 0)
(-0.151899 0.215401 0)
(-0.160382 0.197249 0)
(-0.167438 0.176781 0)
(-0.173245 0.154476 0)
(-0.17798 0.130714 0)
(-0.18181 0.105798 0)
(-0.18488 0.0799616 0)
(-0.187302 0.0533906 0)
(-0.189152 0.0262358 0)
(-0.190466 -0.00137019 0)
(-0.191231 -0.0292973 0)
(-0.191392 -0.0574009 0)
(-0.19084 -0.085504 0)
(-0.189422 -0.113379 0)
(-0.186938 -0.140724 0)
(-0.183149 -0.167147 0)
(-0.177788 -0.192137 0)
(-0.170579 -0.215049 0)
(-0.161265 -0.235087 0)
(-0.14964 -0.251295 0)
(-0.135604 -0.262562 0)
(-0.119211 -0.267652 0)
(-0.100737 -0.265254 0)
(-0.0807437 -0.254065 0)
(-0.0601203 -0.232907 0)
(-0.040081 -0.200869 0)
(-0.0221197 -0.157446 0)
(-0.00829812 -0.102674 0)
(-0.00136738 -0.0372803 0)
(-0.00125899 0.0383252 0)
(-0.00755603 0.104309 0)
(-0.0199804 0.158595 0)
(-0.0359309 0.200983 0)
(-0.0535063 0.231957 0)
(-0.0713962 0.252439 0)
(-0.0885906 0.263618 0)
(-0.10439 0.266796 0)
(-0.118389 0.263268 0)
(-0.130418 0.254245 0)
(-0.140484 0.240804 0)
(-0.148715 0.223866 0)
(-0.155312 0.204197 0)
(-0.160515 0.182415 0)
(-0.164575 0.159005 0)
(-0.167734 0.134341 0)
(-0.17021 0.1087 0)
(-0.172188 0.0822866 0)
(-0.173813 0.0552473 0)
(-0.175187 0.0276902 0)
(-0.176363 -0.000299111 0)
(-0.177341 -0.0286406 0)
(-0.178067 -0.0572418 0)
(-0.17843 -0.0859792 0)
(-0.178261 -0.114677 0)
(-0.177332 -0.143085 0)
(-0.175361 -0.17085 0)
(-0.172018 -0.197491 0)
(-0.166944 -0.222367 0)
(-0.159776 -0.244655 0)
(-0.150181 -0.263327 0)
(-0.137917 -0.277145 0)
(-0.122895 -0.284676 0)
(-0.105266 -0.284344 0)
(-0.0855024 -0.274511 0)
(-0.0644857 -0.253624 0)
(-0.0435162 -0.220388 0)
(-0.0242886 -0.17397 0)
(-0.00921776 -0.114187 0)
(-0.00154485 -0.0417386 0)
(-0.00142581 0.0423875 0)
(-0.00840577 0.114694 0)
(-0.0219423 0.173315 0)
(-0.0389477 0.218139 0)
(-0.0571865 0.249924 0)
(-0.075176 0.269963 0)
(-0.091847 0.279821 0)
(-0.106529 0.281148 0)
(-0.118906 0.275526 0)
(-0.12893 0.26438 0)
(-0.136739 0.24894 0)
(-0.142586 0.230222 0)
(-0.146787 0.209043 0)
(-0.149677 0.18604 0)
(-0.151588 0.16169 0)
(-0.152824 0.136345 0)
(-0.153655 0.110248 0)
(-0.154304 0.0835626 0)
(-0.154948 0.0563888 0)
(-0.155712 0.0287848 0)
(-0.156666 0.000782835 0)
(-0.157824 -0.0275933 0)
(-0.159139 -0.0563108 0)
(-0.160502 -0.0853083 0)
(-0.161734 -0.114474 0)
(-0.162589 -0.143621 0)
(-0.162747 -0.172457 0)
(-0.161824 -0.200548 0)
(-0.159378 -0.227286 0)
(-0.154932 -0.251844 0)
(-0.148014 -0.273147 0)
(-0.138211 -0.289842 0)
(-0.125249 -0.3003 0)
(-0.109095 -0.302647 0)
(-0.0900819 -0.294857 0)
(-0.0690247 -0.274903 0)
(-0.0472817 -0.240984 0)
(-0.0267598 -0.191799 0)
(-0.0102992 -0.126837 0)
(-0.00176086 -0.0467139 0)
(-0.00164355 0.0469426 0)
(-0.00947386 0.126138 0)
(-0.0243267 0.189194 0)
(-0.042471 0.236152 0)
(-0.061257 0.268189 0)
(-0.0790222 0.287105 0)
(-0.0946718 0.294964 0)
(-0.107618 0.293845 0)
(-0.117691 0.285659 0)
(-0.125013 0.272068 0)
(-0.129893 0.254451 0)
(-0.132736 0.233905 0)
(-0.133983 0.211281 0)
(-0.134076 0.18721 0)
(-0.133423 0.162148 0)
(-0.13239 0.136404 0)
(-0.131291 0.110177 0)
(-0.130382 0.083578 0)
(-0.129865 0.056654 0)
(-0.129884 0.0294073 0)
(-0.130528 0.0018126 0)
(-0.131822 -0.0261669 0)
(-0.133732 -0.0545627 0)
(-0.136155 -0.0833822 0)
(-0.138914 -0.112587 0)
(-0.141755 -0.142068 0)
(-0.144336 -0.17161 0)
(-0.146226 -0.200854 0)
(-0.146912 -0.229251 0)
(-0.145808 -0.256009 0)
(-0.142291 -0.280038 0)
(-0.135753 -0.299901 0)
(-0.12569 -0.313785 0)
(-0.111824 -0.319508 0)
(-0.0942628 -0.314593 0)
(-0.0736767 -0.296434 0)
(-0.0514228 -0.262563 0)
(-0.0296134 -0.211021 0)
(-0.0115975 -0.140789 0)
(-0.00203092 -0.0523064 0)
(-0.0019373 0.0521287 0)
(-0.0108508 0.13888 0)
(-0.027277 0.206387 0)
(-0.0466223 0.254984 0)
(-0.0657326 0.286478 0)
(-0.082782 0.303379 0)
(-0.0967171 0.308405 0)
(-0.107116 0.304152 0)
(-0.114035 0.292906 0)
(-0.117828 0.276569 0)
(-0.119015 0.25665 0)
(-0.118176 0.234302 0)
(-0.115891 0.210375 0)
(-0.1127 0.185473 0)
(-0.109086 0.16 0)
(-0.105462 0.134209 0)
(-0.102175 0.108237 0)
(-0.0995041 0.082135 0)
(-0.0976675 0.0558908 0)
(-0.0968223 0.0294476 0)
(-0.097068 0.00272065 0)
(-0.0984453 -0.0243883 0)
(-0.100933 -0.0519763 0)
(-0.104445 -0.080123 0)
(-0.108816 -0.10887 0)
(-0.113798 -0.138195 0)
(-0.119046 -0.167979 0)
(-0.124106 -0.197963 0)
(-0.12841 -0.227693 0)
(-0.13128 -0.256453 0)
(-0.131943 -0.283189 0)
(-0.129583 -0.306429 0)
(-0.123424 -0.324215 0)
(-0.112869 -0.334066 0)
(-0.0976978 -0.333013 0)
(-0.0783183 -0.317751 0)
(-0.0559802 -0.284946 0)
(-0.0329579 -0.231714 0)
(-0.0131948 -0.156252 0)