/*--------------------------------*- C++ -*----------------------------------*\
| =========                 |                                                 |
| \\      /  F ield         | OpenFOAM: The Open Source CFD Toolbox           |
|  \\    /   O peration     | Version:  2506                                  |
|   \\  /    A nd           | Website:  www.openfoam.com                      |
|    \\/     M anipulation  |                                                 |
\*---------------------------------------------------------------------------*/
FoamFile
{
    version     2.0;
    format      ascii;
    arch        "LSB;label=32;scalar=64";
    class       volVectorField;
    location    "5.125";
    object      diffU;
}
// * * * * * * * * * * * * * * * * * * * * * * * * * * * * * * * * * * * * * //

dimensions      [0 1 -1 0 0 0 0];

internalField   nonuniform List<vector> 
400
(
(0 0 0)
(3.21965e-15 -2.79645e-14 0)
(2.77556e-15 -2.2463e-14 0)
(2.33147e-15 -2.38273e-14 0)
(2.33147e-15 -2.36182e-14 0)
(2.22045e-15 -2.36183e-14 0)
(1.9984e-15 -2.36154e-14 0)
(1.55431e-15 -2.35921e-14 0)
(1.55431e-15 -2.36019e-14 0)
(1.55431e-15 -2.36801e-14 0)
(1.33227e-15 -2.37718e-14 0)
(1.55431e-15 -2.38718e-14 0)
(1.33227e-15 -2.38824e-14 0)
(1.33227e-15 -2.38834e-14 0)
(1.77636e-15 -2.38297e-14 0)
(1.88738e-15 -2.37124e-14 0)
(1.55431e-15 -2.3696e-14 0)
(1.77636e-15 -2.37483e-14 0)
(1.55431e-15 -2.37221e-14 0)
(1.55431e-15 -2.38037e-14 0)
(1.03251e-14 1.53114e-14 0)
(-1.11022e-15 -3.0902e-14 0)
(1.33227e-15 -2.20944e-14 0)
(1.33227e-15 -2.39987e-14 0)
(1.33227e-15 -2.36504e-14 0)
(1.33227e-15 -2.35626e-14 0)
(1.55431e-15 -2.35787e-14 0)
(1.33227e-15 -2.36388e-14 0)
(1.88738e-15 -2.36817e-14 0)
(1.77636e-15 -2.37227e-14 0)
(1.77636e-15 -2.37408e-14 0)
(1.9984e-15 -2.37476e-14 0)
(1.77636e-15 -2.37297e-14 0)
(1.11022e-15 -2.38433e-14 0)
(1.33227e-15 -2.3823e-14 0)
(1.55431e-15 -2.37477e-14 0)
(1.55431e-15 -2.37627e-14 0)
(1.55431e-15 -2.38355e-14 0)
(1.55431e-15 -2.38114e-14 0)
(1.88738e-15 -2.38456e-14 0)
(-2.66454e-14 -8.19218e-14 0)
(7.32747e-15 -1.32877e-14 0)
(-6.66134e-16 -2.61272e-14 0)
(2.22045e-15 -2.32901e-14 0)
(1.33227e-15 -2.37554e-14 0)
(1.88738e-15 -2.36853e-14 0)
(1.77636e-15 -2.37251e-14 0)
(1.9984e-15 -2.3771e-14 0)
(1.88738e-15 -2.37654e-14 0)
(1.9984e-15 -2.37206e-14 0)
(1.77636e-15 -2.36957e-14 0)
(1.55431e-15 -2.36441e-14 0)
(1.77636e-15 -2.36362e-14 0)
(1.77636e-15 -2.37541e-14 0)
(1.77636e-15 -2.38466e-14 0)
(1.88738e-15 -2.38723e-14 0)
(2.10942e-15 -2.3851e-14 0)
(1.88738e-15 -2.37832e-14 0)
(1.88738e-15 -2.3836e-14 0)
(1.77636e-15 -2.38467e-14 0)
(4.30767e-14 7.33669e-15 0)
(-6.43929e-15 -3.0173e-14 0)
(5.44009e-15 -2.24942e-14 0)
(1.11022e-15 -2.41993e-14 0)
(2.55351e-15 -2.38048e-14 0)
(2.44249e-15 -2.39022e-14 0)
(2.55351e-15 -2.38277e-14 0)
(2.33147e-15 -2.36996e-14 0)
(2.10942e-15 -2.3646e-14 0)
(2.22045e-15 -2.36324e-14 0)
(1.88738e-15 -2.3678e-14 0)
(2.10942e-15 -2.36989e-14 0)
(1.88738e-15 -2.37502e-14 0)
(1.9984e-15 -2.38061e-14 0)
(2.10942e-15 -2.39048e-14 0)
(1.88738e-15 -2.38734e-14 0)
(1.9984e-15 -2.37655e-14 0)
(1.55431e-15 -2.3658e-14 0)
(1.77636e-15 -2.3707e-14 0)
(1.9984e-15 -2.38333e-14 0)
(-4.30767e-14 -3.16672e-14 0)
(1.07692e-14 -2.20208e-14 0)
(-1.77636e-15 -2.45134e-14 0)
(2.9976e-15 -2.40417e-14 0)
(1.77636e-15 -2.41252e-14 0)
(2.33147e-15 -2.39577e-14 0)
(1.9984e-15 -2.37175e-14 0)
(2.10942e-15 -2.35193e-14 0)
(1.88738e-15 -2.34935e-14 0)
(2.10942e-15 -2.35407e-14 0)
(1.9984e-15 -2.35737e-14 0)
(2.10942e-15 -2.35744e-14 0)
(1.9984e-15 -2.36876e-14 0)
(1.88738e-15 -2.37772e-14 0)
(1.9984e-15 -2.38306e-14 0)
(1.77636e-15 -2.3725e-14 0)
(1.88738e-15 -2.36371e-14 0)
(1.55431e-15 -2.36863e-14 0)
(1.88738e-15 -2.37831e-14 0)
(1.77636e-15 -2.37846e-14 0)
(4.9849e-14 -2.72235e-14 0)
(-7.99361e-15 -2.33806e-14 0)
(5.32907e-15 -2.39004e-14 0)
(4.44089e-16 -2.37772e-14 0)
(1.33227e-15 -2.38785e-14 0)
(8.88178e-16 -2.38583e-14 0)
(1.11022e-15 -2.37002e-14 0)
(1.11022e-15 -2.36577e-14 0)
(1.33227e-15 -2.37015e-14 0)
(1.77636e-15 -2.37244e-14 0)
(1.77636e-15 -2.37173e-14 0)
(1.88738e-15 -2.37252e-14 0)
(1.88738e-15 -2.37097e-14 0)
(1.88738e-15 -2.37385e-14 0)
(1.77636e-15 -2.36551e-14 0)
(1.55431e-15 -2.3584e-14 0)
(1.33227e-15 -2.36194e-14 0)
(1.77636e-15 -2.38106e-14 0)
(1.88738e-15 -2.386e-14 0)
(1.77636e-15 -2.37336e-14 0)
(-4.68514e-14 -1.68366e-14 0)
(1.09912e-14 -2.54179e-14 0)
(-2.44249e-15 -2.36943e-14 0)
(2.10942e-15 -2.3981e-14 0)
(1.33227e-15 -2.39155e-14 0)
(1.55431e-15 -2.39524e-14 0)
(1.33227e-15 -2.39928e-14 0)
(1.77636e-15 -2.4038e-14 0)
(1.88738e-15 -2.3877e-14 0)
(1.9984e-15 -2.36953e-14 0)
(1.88738e-15 -2.36694e-14 0)
(1.88738e-15 -2.37369e-14 0)
(1.77636e-15 -2.36757e-14 0)
(1.88738e-15 -2.35789e-14 0)
(1.88738e-15 -2.35191e-14 0)
(1.88738e-15 -2.35615e-14 0)
(1.88738e-15 -2.35987e-14 0)
(1.88738e-15 -2.37848e-14 0)
(1.77636e-15 -2.37844e-14 0)
(1.77636e-15 -2.37419e-14 0)
(4.90719e-14 -2.98285e-14 0)
(-7.54952e-15 -2.26899e-14 0)
(5.32907e-15 -2.41243e-14 0)
(8.88178e-16 -2.38966e-14 0)
(1.88738e-15 -2.3911e-14 0)
(1.55431e-15 -2.37859e-14 0)
(1.55431e-15 -2.37889e-14 0)
(1.33227e-15 -2.38035e-14 0)
(8.88178e-16 -2.37395e-14 0)
(8.88178e-16 -2.37407e-14 0)
(1.33227e-15 -2.3727e-14 0)
(1.55431e-15 -2.37065e-14 0)
(1.33227e-15 -2.37209e-14 0)
(1.11022e-15 -2.36688e-14 0)
(1.55431e-15 -2.36836e-14 0)
(1.55431e-15 -2.371e-14 0)
(1.55431e-15 -2.37379e-14 0)
(1.77636e-15 -2.37303e-14 0)
(1.77636e-15 -2.37359e-14 0)
(1.77636e-15 -2.37874e-14 0)
(-4.06342e-14 -1.53114e-14 0)
(9.88098e-15 -2.55303e-14 0)
(-1.77636e-15 -2.33788e-14 0)
(2.66454e-15 -2.39535e-14 0)
(1.55431e-15 -2.39017e-14 0)
(1.55431e-15 -2.3827e-14 0)
(1.88738e-15 -2.3783e-14 0)
(1.88738e-15 -2.37456e-14 0)
(2.33147e-15 -2.38368e-14 0)
(2.22045e-15 -2.39532e-14 0)
(2.22045e-15 -2.39162e-14 0)
(2.10942e-15 -2.38233e-14 0)
(2.10942e-15 -2.37658e-14 0)
(2.22045e-15 -2.37383e-14 0)
(2.10942e-15 -2.36761e-14 0)
(1.9984e-15 -2.37101e-14 0)
(1.88738e-15 -2.37916e-14 0)
(2.10942e-15 -2.36932e-14 0)
(1.9984e-15 -2.36586e-14 0)
(1.77636e-15 -2.37514e-14 0)
(4.45199e-14 -3.07394e-14 0)
(-6.21725e-15 -2.23346e-14 0)
(5.32907e-15 -2.41211e-14 0)
(1.33227e-15 -2.37322e-14 0)
(2.10942e-15 -2.38313e-14 0)
(1.77636e-15 -2.37719e-14 0)
(1.9984e-15 -2.38051e-14 0)
(2.22045e-15 -2.38277e-14 0)
(1.9984e-15 -2.38215e-14 0)
(1.9984e-15 -2.37878e-14 0)
(1.9984e-15 -2.37184e-14 0)
(1.77636e-15 -2.36994e-14 0)
(1.55431e-15 -2.36689e-14 0)
(1.55431e-15 -2.37153e-14 0)
(1.11022e-15 -2.37596e-14 0)
(1.55431e-15 -2.37923e-14 0)
(1.55431e-15 -2.37769e-14 0)
(1.55431e-15 -2.37225e-14 0)
(1.55431e-15 -2.36504e-14 0)
(1.77636e-15 -2.36692e-14 0)
(-3.57492e-14 -1.4511e-14 0)
(8.54872e-15 -2.5808e-14 0)
(-1.55431e-15 -2.33865e-14 0)
(2.33147e-15 -2.38657e-14 0)
(1.33227e-15 -2.37929e-14 0)
(1.55431e-15 -2.39486e-14 0)
(1.55431e-15 -2.40387e-14 0)
(2.10942e-15 -2.4064e-14 0)
(2.33147e-15 -2.39513e-14 0)
(2.33147e-15 -2.37919e-14 0)
(2.44249e-15 -2.35803e-14 0)
(2.33147e-15 -2.34328e-14 0)
(2.33147e-15 -2.34607e-14 0)
(2.10942e-15 -2.36663e-14 0)
(2.10942e-15 -2.3811e-14 0)
(1.9984e-15 -2.3809e-14 0)
(1.88738e-15 -2.37872e-14 0)
(1.88738e-15 -2.38048e-14 0)
(1.55431e-15 -2.37536e-14 0)
(1.88738e-15 -2.37184e-14 0)
(4.01901e-14 -3.11741e-14 0)
(-5.10703e-15 -2.22882e-14 0)
(5.21805e-15 -2.39147e-14 0)
(1.11022e-15 -2.3663e-14 0)
(2.22045e-15 -2.37794e-14 0)
(1.88738e-15 -2.38992e-14 0)
(1.55431e-15 -2.39825e-14 0)
(1.11022e-15 -2.40709e-14 0)
(8.88178e-16 -2.40395e-14 0)
(1.11022e-15 -2.3895e-14 0)
(1.11022e-15 -2.37739e-14 0)
(1.11022e-15 -2.3635e-14 0)
(1.33227e-15 -2.35878e-14 0)
(2.22045e-15 -2.36191e-14 0)
(1.9984e-15 -2.36861e-14 0)
(1.88738e-15 -2.36709e-14 0)
(1.88738e-15 -2.36093e-14 0)
(1.88738e-15 -2.36376e-14 0)
(1.88738e-15 -2.3671e-14 0)
(1.88738e-15 -2.37206e-14 0)
(-2.81997e-14 -1.69812e-14 0)
(6.55032e-15 -2.46094e-14 0)
(-1.11022e-15 -2.34045e-14 0)
(2.10942e-15 -2.37046e-14 0)
(1.33227e-15 -2.36128e-14 0)
(1.33227e-15 -2.36252e-14 0)
(1.55431e-15 -2.36726e-14 0)
(1.55431e-15 -2.37975e-14 0)
(1.55431e-15 -2.39477e-14 0)
(1.55431e-15 -2.39716e-14 0)
(1.77636e-15 -2.39787e-14 0)
(1.33227e-15 -2.39235e-14 0)
(1.33227e-15 -2.38842e-14 0)
(1.55431e-15 -2.3777e-14 0)
(1.55431e-15 -2.37487e-14 0)
(1.33227e-15 -2.37719e-14 0)
(1.55431e-15 -2.36727e-14 0)
(1.77636e-15 -2.36882e-14 0)
(1.55431e-15 -2.37323e-14 0)
(1.55431e-15 -2.37617e-14 0)
(2.95319e-14 -2.66399e-14 0)
(-3.33067e-15 -2.32236e-14 0)
(4.21885e-15 -2.40326e-14 0)
(1.55431e-15 -2.37647e-14 0)
(2.10942e-15 -2.38341e-14 0)
(1.9984e-15 -2.39322e-14 0)
(2.22045e-15 -2.39415e-14 0)
(2.10942e-15 -2.38848e-14 0)
(1.9984e-15 -2.38796e-14 0)
(2.22045e-15 -2.3819e-14 0)
(2.22045e-15 -2.37508e-14 0)
(1.9984e-15 -2.37553e-14 0)
(1.9984e-15 -2.38159e-14 0)
(1.9984e-15 -2.38355e-14 0)
(1.9984e-15 -2.37999e-14 0)
(1.9984e-15 -2.3755e-14 0)
(1.88738e-15 -2.36647e-14 0)
(1.9984e-15 -2.37546e-14 0)
(1.9984e-15 -2.38327e-14 0)
(1.88738e-15 -2.38179e-14 0)
(-2.19824e-14 -1.88008e-14 0)
(6.88338e-15 -2.48346e-14 0)
(0 -2.35079e-14 0)
(2.55351e-15 -2.37427e-14 0)
(1.9984e-15 -2.36521e-14 0)
(1.9984e-15 -2.36829e-14 0)
(1.55431e-15 -2.37784e-14 0)
(1.77636e-15 -2.38232e-14 0)
(1.77636e-15 -2.38593e-14 0)
(1.77636e-15 -2.39254e-14 0)
(1.55431e-15 -2.39596e-14 0)
(1.88738e-15 -2.39251e-14 0)
(1.88738e-15 -2.38005e-14 0)
(1.9984e-15 -2.3682e-14 0)
(1.9984e-15 -2.35795e-14 0)
(1.55431e-15 -2.36547e-14 0)
(1.55431e-15 -2.37506e-14 0)
(1.77636e-15 -2.37138e-14 0)
(1.77636e-15 -2.37522e-14 0)
(1.77636e-15 -2.37413e-14 0)
(2.44249e-14 -3.0347e-14 0)
(-3.33067e-15 -2.26907e-14 0)
(3.10862e-15 -2.38832e-14 0)
(6.66134e-16 -2.36857e-14 0)
(1.55431e-15 -2.37309e-14 0)
(1.55431e-15 -2.37298e-14 0)
(1.77636e-15 -2.37282e-14 0)
(1.77636e-15 -2.37771e-14 0)
(1.77636e-15 -2.37805e-14 0)
(1.77636e-15 -2.38579e-14 0)
(1.77636e-15 -2.39385e-14 0)
(1.55431e-15 -2.39347e-14 0)
(1.33227e-15 -2.38368e-14 0)
(1.11022e-15 -2.37082e-14 0)
(1.33227e-15 -2.3645e-14 0)
(1.88738e-15 -2.37823e-14 0)
(1.88738e-15 -2.39202e-14 0)
(1.77636e-15 -2.37925e-14 0)
(1.77636e-15 -2.37712e-14 0)
(1.77636e-15 -2.37424e-14 0)
(-1.53211e-14 -1.7776e-14 0)
(4.55191e-15 -2.47386e-14 0)
(2.22045e-16 -2.37881e-14 0)
(2.33147e-15 -2.39096e-14 0)
(2.10942e-15 -2.39179e-14 0)
(1.9984e-15 -2.39847e-14 0)
(1.88738e-15 -2.39506e-14 0)
(2.10942e-15 -2.38732e-14 0)
(2.10942e-15 -2.37983e-14 0)
(2.10942e-15 -2.37657e-14 0)
(1.9984e-15 -2.37501e-14 0)
(1.88738e-15 -2.37327e-14 0)
(1.88738e-15 -2.37146e-14 0)
(1.88738e-15 -2.37885e-14 0)
(1.88738e-15 -2.38953e-14 0)
(2.10942e-15 -2.38274e-14 0)
(1.88738e-15 -2.37373e-14 0)
(1.77636e-15 -2.37165e-14 0)
(1.77636e-15 -2.37389e-14 0)
(1.77636e-15 -2.37682e-14 0)
(1.55431e-14 -2.52738e-14 0)
(-2.22045e-16 -2.36585e-14 0)
(3.44169e-15 -2.40788e-14 0)
(1.77636e-15 -2.38473e-14 0)
(2.10942e-15 -2.38036e-14 0)
(1.77636e-15 -2.38796e-14 0)
(1.9984e-15 -2.39393e-14 0)
(1.88738e-15 -2.38129e-14 0)
(1.88738e-15 -2.36887e-14 0)
(1.88738e-15 -2.37089e-14 0)
(1.77636e-15 -2.36791e-14 0)
(1.55431e-15 -2.36498e-14 0)
(1.55431e-15 -2.36209e-14 0)
(1.55431e-15 -2.37285e-14 0)
(1.55431e-15 -2.38745e-14 0)
(1.55431e-15 -2.38285e-14 0)
(1.55431e-15 -2.37646e-14 0)
(1.77636e-15 -2.37528e-14 0)
(1.77636e-15 -2.37681e-14 0)
(1.88738e-15 -2.37656e-14 0)
(-5.9952e-15 -1.42407e-14 0)
(2.55351e-15 -2.60332e-14 0)
(8.88178e-16 -2.34302e-14 0)
(1.33227e-15 -2.39047e-14 0)
(1.55431e-15 -2.37977e-14 0)
(1.55431e-15 -2.38298e-14 0)
(1.33227e-15 -2.38601e-14 0)
(1.33227e-15 -2.37928e-14 0)
(1.11022e-15 -2.36806e-14 0)
(1.33227e-15 -2.36387e-14 0)
(1.33227e-15 -2.36761e-14 0)
(1.55431e-15 -2.3803e-14 0)
(1.88738e-15 -2.38588e-14 0)
(1.9984e-15 -2.38457e-14 0)
(2.33147e-15 -2.37562e-14 0)
(2.10942e-15 -2.3813e-14 0)
(1.9984e-15 -2.38207e-14 0)
(1.77636e-15 -2.38796e-14 0)
(1.77636e-15 -2.38069e-14 0)
(1.77636e-15 -2.37743e-14 0)
(7.66054e-15 -4.93648e-14 0)
(1.55431e-15 -1.8921e-14 0)
(2.88658e-15 -2.50413e-14 0)
(2.10942e-15 -2.36546e-14 0)
(2.33147e-15 -2.386e-14 0)
(2.22045e-15 -2.37852e-14 0)
(2.10942e-15 -2.38392e-14 0)
(2.22045e-15 -2.384e-14 0)
(2.10942e-15 -2.38304e-14 0)
(2.22045e-15 -2.37929e-14 0)
(2.33147e-15 -2.38473e-14 0)
(1.9984e-15 -2.39137e-14 0)
(1.9984e-15 -2.39248e-14 0)
(1.55431e-15 -2.38277e-14 0)
(1.55431e-15 -2.36609e-14 0)
(1.88738e-15 -2.37136e-14 0)
(1.55431e-15 -2.37214e-14 0)
(1.77636e-15 -2.38034e-14 0)
(1.77636e-15 -2.37602e-14 0)
(1.77636e-15 -2.37766e-14 0)
)
;

boundaryField
{
    movingWall
    {
        type            calculated;
        value           uniform (1.77636e-15 -2.37622e-14 0);
    }
    fixedWalls
    {
        type            calculated;
        value           uniform (1.77636e-15 -2.37622e-14 0);
    }
    frontAndBack
    {
        type            empty;
    }
}


// ************************************************************************* //
