/*--------------------------------*- C++ -*----------------------------------*\
| =========                 |                                                 |
| \\      /  F ield         | OpenFOAM: The Open Source CFD Toolbox           |
|  \\    /   O peration     | Version:  2506                                  |
|   \\  /    A nd           | Website:  www.openfoam.com                      |
|    \\/     M anipulation  |                                                 |
\*---------------------------------------------------------------------------*/
FoamFile
{
    version     2.0;
    format      ascii;
    arch        "LSB;label=32;scalar=64";
    class       volScalarField;
    location    "5.125";
    object      divU;
}
// * * * * * * * * * * * * * * * * * * * * * * * * * * * * * * * * * * * * * //

dimensions      [0 0 -1 0 0 0 0];

internalField   nonuniform List<scalar> 
400
(
6.23416e-12
-8.36048e-13
2.15392e-13
-8.43564e-14
-1.52118e-15
7.24494e-15
-2.11694e-14
-2.48505e-14
2.40888e-14
1.21736e-14
-2.59162e-14
-9.50078e-15
-8.76124e-15
6.87976e-15
4.13918e-14
6.43855e-15
-4.76343e-14
4.82792e-14
-5.51067e-14
5.42101e-14
-7.58942e-12
5.50319e-13
-9.68148e-14
5.06794e-14
-1.52416e-14
5.48538e-16
2.20718e-14
-1.56345e-14
3.48467e-14
8.12046e-15
3.59065e-14
1.32724e-14
-6.54543e-14
-7.28951e-15
-1.45166e-14
1.75584e-14
-8.92054e-15
-9.42673e-15
4.19202e-14
-2.71051e-14
-3.08998e-12
2.6561e-12
-5.43372e-13
1.9325e-13
-5.77843e-14
2.08036e-14
-2.8335e-15
3.24898e-14
1.13092e-14
-9.9611e-15
-1.20272e-14
-3.60672e-14
4.09151e-14
-3.57383e-15
4.4087e-15
3.20906e-14
-9.2018e-15
-1.87786e-14
-2.89572e-14
0
8.32125e-12
-4.614e-12
8.91945e-13
-3.69801e-13
9.49734e-14
-3.35386e-14
-2.07553e-15
-2.36545e-14
1.13955e-14
8.03203e-15
1.67402e-16
-1.98671e-15
-4.55412e-14
2.12159e-14
6.01635e-15
-7.3958e-15
-1.49233e-14
1.8024e-14
3.05411e-14
0
-7.10152e-12
4.82017e-12
-9.02085e-13
4.0424e-13
-1.02136e-13
2.50575e-14
-1.64263e-14
7.64315e-15
5.84792e-15
-1.1671e-15
-3.76045e-15
-4.61745e-15
1.27157e-14
8.75786e-16
3.88368e-15
-5.56516e-15
2.67893e-14
-2.43464e-14
1.52417e-14
-2.71051e-14
5.3397e-12
-4.81657e-12
9.14547e-13
-4.02842e-13
8.14635e-14
-1.5252e-15
-1.68483e-14
-4.42264e-14
4.88128e-14
3.7576e-14
-1.33217e-14
6.23742e-15
1.39032e-14
-6.40259e-15
-1.91759e-14
1.07887e-14
3.52772e-15
4.71176e-14
-1.19954e-14
0
-4.22839e-12
4.52242e-12
-9.23881e-13
3.98366e-13
-8.44097e-14
5.72147e-15
2.84879e-14
7.67183e-14
1.79058e-14
8.84761e-15
-4.13968e-14
-1.89986e-14
1.27847e-14
5.70095e-16
5.07474e-15
-1.80567e-15
-8.31441e-15
-2.6169e-14
4.11118e-16
0
3.95734e-12
-4.37928e-12
8.69495e-13
-3.57826e-13
7.96039e-14
-3.59454e-14
-4.7494e-15
-2.95756e-14
-5.93915e-14
3.72707e-14
4.23338e-14
-5.35495e-16
-5.04284e-14
3.88495e-14
1.64761e-14
-1.66695e-14
2.66091e-14
1.00919e-14
1.29932e-14
0
-3.52366e-12
3.9233e-12
-7.29384e-13
3.36248e-13
-1.0216e-13
4.67628e-14
2.07361e-14
2.22165e-14
1.37175e-14
5.45415e-15
-3.81233e-14
1.83403e-16
8.97948e-15
3.4195e-14
-4.53383e-14
2.20157e-15
-4.40362e-15
1.08747e-14
-5.56212e-15
-2.71051e-14
3.55076e-12
-3.93783e-12
7.33524e-13
-2.78393e-13
4.42377e-14
-1.96038e-14
-4.82787e-15
-3.67214e-14
-2.48417e-14
2.15828e-14
-4.53177e-15
1.21279e-14
-1.47221e-14
-1.2822e-14
-4.61739e-15
1.942e-14
-3.97197e-15
-2.81413e-16
3.91442e-14
2.71051e-14
-3.08998e-12
3.41227e-12
-6.01084e-13
2.97734e-13
-1.13204e-13
2.18836e-14
3.16442e-14
4.73787e-14
7.57482e-15
1.0865e-14
-1.00827e-14
-8.53895e-15
-6.61516e-15
-3.03084e-14
2.73367e-15
4.45803e-15
-1.43123e-14
-1.88918e-14
9.98181e-15
-2.71051e-14
2.90024e-12
-3.37966e-12
6.43942e-13
-3.36675e-13
1.21647e-13
-2.70933e-14
-4.01722e-14
-8.86038e-14
6.21498e-14
-7.10838e-15
-4.99223e-14
-3.39649e-15
3.23453e-14
3.99421e-14
-1.81413e-14
8.16828e-15
2.42443e-14
1.98721e-14
1.21125e-14
-2.71051e-14
-2.08709e-12
2.62544e-12
-4.79158e-13
2.49459e-13
-7.35603e-14
-3.29065e-15
1.81367e-14
1.13224e-14
2.39292e-14
4.91323e-16
6.60038e-15
-4.25388e-14
9.53929e-15
-8.79593e-15
-2.95154e-14
2.68588e-14
-8.39961e-15
-1.89366e-14
-4.05581e-15
5.42101e-14
2.11419e-12
-2.57414e-12
4.86284e-13
-2.15141e-13
5.80377e-14
-9.0662e-15
-1.95493e-14
8.75602e-15
5.66697e-15
3.22246e-14
-1.85887e-14
1.15122e-14
1.79111e-14
7.00607e-16
1.45056e-14
-1.56308e-14
-1.61867e-14
3.2707e-14
-3.31472e-14
-2.71051e-14
-2.24972e-12
2.24963e-12
-3.93241e-13
1.99338e-13
-4.00613e-14
-4.30354e-14
2.88873e-14
1.95246e-14
1.55739e-14
1.22286e-15
-1.02538e-14
2.0677e-14
1.58245e-14
1.34241e-14
-5.13237e-14
-4.5465e-14
3.95738e-14
1.81472e-15
1.05498e-16
0
1.87025e-12
-2.10467e-12
3.64793e-13
-1.69718e-13
4.1777e-14
3.52055e-14
-1.54341e-14
-1.25834e-14
-5.43754e-15
1.71885e-14
-4.35166e-14
1.28022e-14
-2.97905e-14
-5.14377e-14
5.26258e-14
7.2786e-14
-1.3305e-14
1.55054e-15
1.43639e-15
0
-8.94467e-13
1.43062e-12
-1.96874e-13
1.39381e-13
-4.68092e-14
-6.88489e-15
-9.44159e-15
-1.61613e-14
3.74795e-15
4.98946e-15
3.66292e-14
1.41904e-14
1.88957e-14
7.40786e-16
2.57294e-15
-1.31443e-14
-5.19547e-14
5.51652e-15
1.7459e-15
0
1.51788e-12
-1.35513e-12
2.72595e-13
-1.58284e-13
4.65325e-14
-1.84947e-14
-3.93379e-16
1.89807e-14
1.55155e-14
1.76906e-14
-1.01864e-14
-7.41455e-14
-2.26307e-14
-4.98005e-15
1.64785e-14
-1.17037e-14
-6.08492e-15
4.34183e-14
2.20487e-14
-2.71051e-14
-3.11708e-12
1.1786e-12
-2.30225e-13
1.04938e-13
-1.33235e-14
-9.053e-15
9.61811e-15
-6.50428e-14
2.84495e-14
-1.78213e-14
-2.70014e-14
6.20932e-14
1.19791e-15
1.22134e-14
3.78431e-14
-2.73203e-14
-2.88646e-14
-4.29534e-14
-4.26745e-15
0
2.1413e-12
-7.04731e-13
1.6263e-13
-8.13152e-14
0
0
2.71051e-14
-2.71051e-14
2.71051e-14
0
0
0
-2.71051e-14
-2.71051e-14
5.42101e-14
0
0
2.71051e-14
0
0
)
;

boundaryField
{
    movingWall
    {
        type            extrapolatedCalculated;
        value           nonuniform List<scalar> 
20
(
2.1413e-12
-7.04731e-13
1.6263e-13
-8.13152e-14
0
0
2.71051e-14
-2.71051e-14
2.71051e-14
0
0
0
-2.71051e-14
-2.71051e-14
5.42101e-14
0
0
2.71051e-14
0
0
)
;
    }
    fixedWalls
    {
        type            extrapolatedCalculated;
        value           nonuniform List<scalar> 
60
(
6.23416e-12
-7.58942e-12
-3.08998e-12
8.32125e-12
-7.10152e-12
5.3397e-12
-4.22839e-12
3.95734e-12
-3.52366e-12
3.55076e-12
-3.08998e-12
2.90024e-12
-2.08709e-12
2.11419e-12
-2.24972e-12
1.87025e-12
-8.94467e-13
1.51788e-12
-3.11708e-12
2.1413e-12
5.42101e-14
-2.71051e-14
0
0
-2.71051e-14
0
0
0
-2.71051e-14
2.71051e-14
-2.71051e-14
-2.71051e-14
5.42101e-14
-2.71051e-14
0
0
0
-2.71051e-14
0
0
6.23416e-12
-8.36048e-13
2.15392e-13
-8.43564e-14
-1.52118e-15
7.24494e-15
-2.11694e-14
-2.48505e-14
2.40888e-14
1.21736e-14
-2.59162e-14
-9.50078e-15
-8.76124e-15
6.87976e-15
4.13918e-14
6.43855e-15
-4.76343e-14
4.82792e-14
-5.51067e-14
5.42101e-14
)
;
    }
    frontAndBack
    {
        type            empty;
    }
}


// ************************************************************************* //
