/*--------------------------------*- C++ -*----------------------------------*\
| =========                 |                                                 |
| \\      /  F ield         | OpenFOAM: The Open Source CFD Toolbox           |
|  \\    /   O peration     | Version:  2506                                  |
|   \\  /    A nd           | Website:  www.openfoam.com                      |
|    \\/     M anipulation  |                                                 |
\*---------------------------------------------------------------------------*/
FoamFile
{
    version     2.0;
    format      ascii;
    arch        "LSB;label=32;scalar=64";
    class       volScalarField;
    location    "5.125";
    object      enstrophyField;
}
// * * * * * * * * * * * * * * * * * * * * * * * * * * * * * * * * * * * * * //

dimensions      [0 0 -2 0 0 0 0];

internalField   nonuniform List<scalar> 
400
(
8.17114e-25
2.17084e-24
6.4625e-26
1.0171e-26
5.54947e-28
3.9711e-32
3.44296e-30
1.54332e-27
3.86947e-29
6.92667e-28
6.13582e-28
6.11766e-29
1.40729e-27
3.74904e-27
2.54262e-27
8.93298e-29
1.28138e-27
3.39375e-30
1.18409e-27
8.73169e-33
1.72683e-23
8.59944e-24
5.15716e-25
1.21061e-26
1.15553e-26
1.88407e-27
2.89904e-29
5.30397e-29
6.2991e-28
3.8041e-27
1.60774e-27
6.1745e-31
2.03376e-27
6.63879e-28
4.57267e-29
1.81674e-29
1.98408e-27
1.18445e-29
1.52479e-27
8.78392e-29
3.26054e-23
1.87368e-23
9.89563e-25
4.24529e-26
1.53208e-26
8.77706e-27
1.97058e-27
9.73793e-27
2.43459e-28
2.02718e-28
2.92387e-29
1.76906e-29
6.0443e-29
5.23871e-27
4.33711e-27
3.79139e-28
1.02636e-27
1.12169e-30
5.59626e-28
6.36164e-29
8.49637e-24
5.47259e-24
2.68569e-25
2.86752e-26
4.41219e-28
1.59628e-27
2.34637e-29
1.65137e-28
2.25821e-29
4.5923e-28
5.69638e-28
1.88658e-27
7.15439e-28
9.0599e-28
5.7225e-28
9.69718e-29
1.18331e-27
1.80372e-27
4.5786e-29
1.25808e-30
8.37198e-25
3.62026e-25
2.04194e-26
4.32717e-27
6.8236e-27
2.65661e-26
1.60859e-26
1.24706e-26
5.64785e-27
1.81985e-28
5.68052e-30
6.48383e-29
1.12294e-27
8.20449e-29
5.22415e-28
1.07876e-27
3.62885e-27
2.36725e-27
6.82429e-28
4.94029e-28
2.55709e-27
4.65731e-26
1.05811e-28
3.48642e-27
1.8035e-28
1.00985e-27
1.11233e-27
3.63869e-28
2.22529e-29
3.2573e-28
3.65184e-28
3.88193e-28
3.32274e-28
1.49239e-29
9.05268e-28
6.34214e-30
2.56696e-28
2.89323e-28
6.05649e-28
2.39199e-29
1.85026e-25
2.73788e-25
1.45856e-26
1.21155e-27
2.94061e-28
6.06655e-28
6.35728e-28
1.20523e-28
1.88305e-27
8.34403e-27
1.25282e-27
3.5023e-28
4.71483e-27
4.70284e-27
1.52409e-30
3.1704e-29
2.92904e-27
1.7248e-28
9.2024e-30
1.66461e-32
6.30355e-25
2.49178e-25
2.0399e-26
5.40398e-28
9.302e-28
7.44794e-29
1.56665e-27
1.22196e-29
2.16718e-28
3.34229e-28
1.29019e-27
1.86178e-31
1.27173e-27
1.27425e-27
8.49406e-30
1.4722e-29
2.07112e-30
3.62115e-28
5.38291e-28
6.44331e-33
6.37389e-25
4.69841e-25
1.24322e-26
5.67055e-27
7.99753e-29
7.03546e-29
1.79918e-28
6.47475e-27
1.22117e-26
6.77047e-27
8.49497e-28
7.26892e-29
3.61461e-29
1.64495e-28
1.6258e-27
6.66531e-29
1.4309e-30
8.83871e-29
2.26561e-28
6.55165e-29
5.72387e-25
3.39862e-25
1.39223e-26
3.46094e-27
7.90786e-30
1.33111e-27
2.31729e-28
4.13225e-28
7.96964e-30
1.40959e-28
1.66751e-28
2.45424e-28
1.55716e-27
1.62548e-28
2.96539e-29
1.49582e-30
2.437e-29
7.90268e-28
1.7728e-27
2.09858e-28
6.97775e-25
5.23337e-25
2.44934e-26
8.26104e-28
3.43122e-29
3.01939e-28
9.10341e-28
1.04054e-26
1.32408e-26
7.01111e-27
6.87113e-27
2.18956e-27
4.76053e-28
6.76819e-27
7.52608e-27
1.34344e-27
3.55985e-28
2.8191e-28
1.03856e-27
5.23105e-28
9.14931e-25
4.44416e-25
1.83711e-26
2.29441e-27
2.7898e-28
5.74508e-28
1.47479e-28
2.2912e-28
9.99039e-28
5.81823e-27
5.75816e-27
4.99231e-27
3.43617e-27
9.84774e-28
1.20214e-27
6.74009e-27
4.63236e-28
1.9041e-29
3.44506e-29
9.54426e-29
1.36204e-24
3.23981e-25
1.9781e-26
5.21685e-27
3.15369e-29
1.78849e-29
4.85569e-27
5.92089e-27
4.87378e-27
6.21883e-27
8.5422e-27
1.55858e-28
2.22218e-27
8.26582e-28
1.28927e-31
1.08641e-27
3.50356e-29
1.77655e-29
2.70409e-29
4.6236e-30
3.67496e-25
2.13256e-26
1.32093e-26
2.63046e-29
2.51737e-27
7.09986e-27
1.12296e-29
2.18674e-28
2.10567e-28
1.01172e-28
5.60024e-28
6.60455e-27
1.93576e-27
1.38384e-27
1.06575e-27
9.13855e-29
9.62446e-34
1.41128e-28
5.58853e-28
1.05063e-28
4.33381e-25
1.10784e-25
2.36773e-26
4.41826e-27
1.81143e-27
8.64264e-28
8.55836e-29
1.80958e-28
1.42553e-28
9.75903e-28
3.68173e-28
2.45809e-27
8.80797e-27
8.51753e-27
1.62119e-27
1.46316e-28
1.75008e-29
3.63018e-28
2.96766e-28
2.88132e-28
7.55157e-25
3.72578e-25
1.1814e-26
1.15993e-28
4.96533e-28
3.58964e-32
5.06838e-28
1.76671e-27
1.94014e-27
2.45049e-27
6.05055e-28
5.17442e-29
2.56566e-28
1.83817e-28
1.09509e-27
3.34001e-27
3.95345e-28
1.11032e-28
1.25447e-29
5.9082e-31
9.73646e-25
4.04422e-25
1.55605e-27
7.36983e-27
5.99071e-28
4.61291e-28
1.27212e-28
1.15961e-28
5.77667e-29
1.163e-29
5.4292e-30
6.31249e-30
1.78725e-27
2.6124e-27
1.68786e-27
9.20446e-28
7.29578e-28
1.2857e-32
1.33558e-29
1.51467e-30
5.93464e-25
5.65611e-26
1.05734e-27
9.24076e-27
1.2994e-27
9.15508e-29
6.62337e-27
8.90923e-27
7.05937e-27
5.98129e-27
3.80374e-27
1.80171e-27
3.0988e-29
3.2144e-28
2.0611e-27
6.03562e-29
2.86297e-29
6.09379e-32
8.24055e-31
4.32636e-31
1.14172e-24
6.1459e-25
2.87877e-26
4.13674e-27
1.09113e-27
5.56189e-28
1.27583e-27
6.57457e-28
1.18777e-28
1.44509e-27
4.77673e-27
2.62615e-27
1.71038e-27
5.25745e-29
4.61342e-28
5.62813e-28
2.21451e-29
9.49032e-31
5.53741e-29
1.61199e-29
2.56708e-24
3.09149e-24
9.95707e-26
6.97667e-27
8.46426e-28
4.25997e-28
1.49922e-29
3.89856e-31
1.22544e-27
1.42899e-30
1.12889e-28
3.00167e-29
1.97303e-27
3.48241e-28
7.4154e-28
1.15959e-27
4.0303e-29
7.54893e-30
3.59282e-30
7.60787e-31
)
;

boundaryField
{
    movingWall
    {
        type            calculated;
        value           nonuniform List<scalar> 
20
(
3.85146e-26
2.74607e-24
4.28322e-28
3.15887e-26
2.18361e-26
1.61496e-26
8.16015e-27
1.59345e-26
9.5124e-27
1.54783e-26
2.20428e-26
3.28615e-27
4.74585e-27
1.94856e-27
2.99632e-27
7.35616e-28
4.78202e-27
7.54893e-30
3.59282e-30
7.60787e-31
)
;
    }
    fixedWalls
    {
        type            calculated;
        value           nonuniform List<scalar> 
60
(
3.89603e-23
1.6768e-22
3.53e-22
9.9306e-23
7.37138e-24
5.05034e-25
4.06577e-24
4.65101e-24
7.3771e-24
5.46432e-24
8.6581e-24
6.93287e-24
7.10458e-24
1.57441e-24
3.19202e-24
5.48316e-24
5.40858e-24
1.20638e-24
1.05555e-23
5.44004e-23
1.37798e-28
5.56402e-28
2.24143e-29
4.0434e-28
6.50529e-28
6.54236e-29
3.31803e-29
5.06666e-29
9.39872e-30
6.92981e-28
9.95852e-28
5.44925e-29
2.08245e-32
1.17639e-29
1.75242e-28
3.15264e-29
2.82276e-30
9.33523e-31
1.17184e-29
1.64463e-29
3.55521e-24
3.9864e-24
9.86089e-29
5.6975e-26
2.02306e-26
1.57272e-26
3.71468e-27
4.0649e-27
3.20166e-27
2.57962e-27
1.25542e-26
3.02304e-27
1.55723e-26
1.67284e-26
1.46217e-28
4.8182e-28
3.63221e-27
3.39375e-30
3.46709e-27
3.95605e-27
)
;
    }
    frontAndBack
    {
        type            empty;
    }
}


// ************************************************************************* //
