/*--------------------------------*- C++ -*----------------------------------*\
| =========                 |                                                 |
| \\      /  F ield         | OpenFOAM: The Open Source CFD Toolbox           |
|  \\    /   O peration     | Version:  2506                                  |
|   \\  /    A nd           | Website:  www.openfoam.com                      |
|    \\/     M anipulation  |                                                 |
\*---------------------------------------------------------------------------*/
FoamFile
{
    version     2.0;
    format      ascii;
    arch        "LSB;label=32;scalar=64";
    class       volScalarField;
    location    "5.125";
    object      flowTypeField;
}
// * * * * * * * * * * * * * * * * * * * * * * * * * * * * * * * * * * * * * //

dimensions      [0 0 0 0 0 0 0];

internalField   nonuniform List<scalar> 
400
(
0.757486
0.167869
0.27947
-0.0673033
0.462039
0.968891
0.929017
0.291965
0.58127
0.322041
0.400667
0.212262
0.0331312
0.0182106
0.0986864
0.0906758
0.308662
0.9184
0.329601
0.979076
0.328499
-0.00111485
-0.156349
0.0531724
-0.381555
-0.121018
0.674148
0.435976
0.392298
-0.0706323
0.0693857
0.895348
0.333048
0.114473
0.014251
0.742698
-0.109334
0.156628
0.260827
0.0454115
-0.370168
0.00770543
-0.198123
0.102659
-0.166856
0.11017
0.048367
-0.00833184
0.186926
0.439727
0.660014
0.8426
0.739704
-0.254817
-0.13748
0.495859
0.162128
0.90956
0.155354
0.569279
0.348121
0.292728
0.223866
0.289735
0.737815
0.0664437
0.728327
0.643915
0.763625
0.0691357
-0.11299
-0.120945
0.0550409
-0.0281824
-0.239
0.521253
0.00496788
-0.0876728
0.707628
0.891715
0.691223
0.750388
0.691246
0.685746
0.132631
-0.198413
-0.278107
-0.163781
0.0208481
0.317233
0.277147
0.0239026
-0.666948
0.523344
0.268157
0.0972167
-0.030259
-0.205439
0.12072
0.192572
0.97571
0.908134
0.974861
0.746882
0.64129
-0.640433
-0.0862817
0.480789
0.891018
0.530191
0.0567441
0.295929
0.0485328
0.774322
0.350247
0.699141
0.0135701
0.537234
-0.276788
0.129707
0.804676
0.790181
0.762286
0.840446
0.654769
-0.221978
0.107271
0.768118
-0.215422
-0.190091
0.163081
0.278008
-0.121394
-0.185695
0.350903
0.399732
-0.355591
0.398148
0.579478
0.80666
0.654116
0.795001
0.709024
0.875232
0.504075
0.723068
0.119834
0.879256
0.594024
0.545081
0.332303
0.815259
0.31269
0.320177
0.806958
0.570347
0.935358
0.056411
-0.0802661
0.430072
0.621298
0.701066
0.737331
0.622854
0.841327
0.723384
0.45723
-0.01687
-0.12434
-0.0717245
0.30128
0.541151
0.129371
0.480837
0.0647242
0.165282
0.46005
0.00163979
0.410811
0.567626
0.641885
0.740857
0.722874
0.669147
0.800184
0.0691457
0.476489
0.28055
0.574513
0.43582
0.580872
0.533638
0.29237
0.487536
0.433555
0.889197
0.00172929
-0.293425
0.211703
0.0122082
0.57192
0.653694
0.603705
0.822431
0.889968
0.325364
0.414426
0.0947174
-0.154601
-0.32154
-0.431954
-0.0670781
0.471946
-0.305106
-0.127781
0.0649443
0.322956
0.352912
0.157746
-0.163785
0.534699
0.681152
0.655474
0.759685
0.733024
0.543475
0.75482
0.759745
0.263878
-0.279993
-0.151087
0.0945271
0.29305
0.38618
0.182423
-0.0697437
-0.0276095
0.453904
0.0285777
0.592348
0.37733
0.655091
0.531668
0.581809
0.86149
0.107285
-0.135242
-0.287519
-0.184283
-0.0258733
0.0355006
0.508404
0.235844
-0.0953035
0.944137
0.222488
0.145577
0.465865
0.508274
0.909033
0.582705
0.891647
0.618685
0.950084
0.0921824
-0.096726
0.501481
0.22539
0.26634
0.581832
0.129877
-0.05966
-0.130514
0.0430391
0.179589
0.516354
0.879561
0.418586
0.130635
0.572844
0.487108
0.739074
0.450356
0.515222
0.205757
0.431129
0.57894
0.328626
0.395117
0.184406
0.1622
-0.0782529
-0.177563
-0.192362
0.247706
0.633335
0.856471
0.0149803
0.118272
0.139764
0.340556
0.555281
0.555715
0.871646
0.586984
0.978193
0.0184995
-0.0902322
-0.138887
-0.21943
0.411644
0.464344
0.334688
0.606463
0.489481
0.19059
0.240822
0.00014997
0.0290429
0.44434
0.213778
0.414208
0.675805
0.345014
0.120159
0.0238806
0.494422
0.0250401
0.210587
0.603045
0.807283
0.85962
-0.0199857
-0.327712
0.0994927
-0.520316
0.356738
0.758555
0.00157208
0.288196
0.271613
0.675158
0.764285
0.282972
0.16308
0.620211
-0.0572774
-0.225361
-0.0883263
-0.00189308
-0.0114109
0.204224
0.449112
0.0235933
-0.138695
0.00794464
0.28035
0.974183
0.905734
0.919539
0.402776
0.117803
0.110265
0.134575
0.140511
0.152784
0.0815666
0.483053
0.669514
0.0195975
-0.170167
0.268275
0.130239
0.592149
0.278041
0.158729
0.689706
0.900272
0.00261855
0.0159012
0.147882
0.00118341
0.0862976
0.164538
0.255467
-0.0184375
0.616198
0.927037
0.171619
0.706572
0.434314
0.702227
0.209229
0.514265
0.344404
0.110213
0.0171731
0.672501
0.366691
0.410614
)
;

boundaryField
{
    movingWall
    {
        type            calculated;
        value           nonuniform List<scalar> 
20
(
0.963966
0.234405
0.950238
-0.313587
0.0720348
-0.0103228
0.0641992
0.0207959
0.00579657
0.0118043
0.0644992
0.246865
0.192116
0.390273
0.281435
0.196593
-0.0805026
0.682128
0.0327757
0.64234
)
;
    }
    fixedWalls
    {
        type            calculated;
        value           nonuniform List<scalar> 
60
(
0.211112
-0.00768357
-0.0175817
0.308972
0.742254
0.92902
0.812931
0.795721
0.72569
0.760341
0.675305
0.708687
0.637838
0.796979
0.685169
0.592945
0.497917
0.668158
0.158835
0.0187579
0.762804
0.358131
0.785559
0.633258
-0.216608
0.0582045
0.144756
0.00414824
0.561961
0.00381875
0.175624
0.748523
0.98576
0.871047
0.320631
0.0475906
0.214381
0.936788
0.0212084
0.0794034
0.670052
0.0193373
0.973606
-0.423457
0.125505
0.0582409
0.254078
0.250701
0.247917
0.231672
0.116879
0.202328
0.040106
0.0173903
0.663481
0.343606
0.190871
0.918347
0.19396
0.145801
)
;
    }
    frontAndBack
    {
        type            empty;
    }
}


// ************************************************************************* //
