/*--------------------------------*- C++ -*----------------------------------*\
| =========                 |                                                 |
| \\      /  F ield         | OpenFOAM: The Open Source CFD Toolbox           |
|  \\    /   O peration     | Version:  2506                                  |
|   \\  /    A nd           | Website:  www.openfoam.com                      |
|    \\/     M anipulation  |                                                 |
\*---------------------------------------------------------------------------*/
FoamFile
{
    version     2.0;
    format      ascii;
    arch        "LSB;label=32;scalar=64";
    class       surfaceScalarField;
    location    "5.125";
    object      fluxField;
}
// * * * * * * * * * * * * * * * * * * * * * * * * * * * * * * * * * * * * * //

dimensions      [0 3 -1 0 0 0 0];

oriented        oriented;

internalField   nonuniform List<scalar> 
760
(
-5e-05
1.5709e-18
-5e-05
-2.83551e-19
-5e-05
7.41767e-20
-5e-05
-7.53656e-21
-5e-05
6.39597e-21
-5e-05
8.5875e-21
-5e-05
8.26018e-21
-5e-05
7.3399e-21
-5e-05
6.02219e-21
-5e-05
3.04339e-21
-5e-05
2.9721e-22
-5e-05
-2.3752e-21
-5e-05
-2.19031e-21
-5e-05
-5.05632e-21
-5e-05
-3.20459e-21
-5e-05
1.60964e-21
-5e-05
1.64396e-21
-5e-05
-1.48274e-21
-5e-05
-2.24142e-22
-3.12249e-21
-5e-05
-4.77149e-19
-5e-05
8.33698e-20
-5e-05
-1.74274e-20
-5e-05
5.89359e-21
-5e-05
2.96587e-21
-5e-05
6.9134e-21
-5e-05
5.51796e-21
-5e-05
2.86763e-21
-5e-05
1.93541e-21
-5e-05
2.03011e-21
-5e-05
2.20035e-21
-5e-05
3.31809e-21
-5e-05
3.96522e-21
-5e-05
-1.82238e-21
-5e-05
-3.62914e-21
-5e-05
-2.38666e-21
-5e-05
-2.23013e-21
-5e-05
-2.35668e-21
-5e-05
-3.07247e-21
-4.19745e-21
-5e-05
-6.76516e-19
-5e-05
1.01595e-19
-5e-05
-2.74227e-20
-5e-05
8.78665e-22
-5e-05
-8.93553e-22
-5e-05
-1.57536e-21
-5e-05
-7.08376e-22
-5e-05
1.34617e-21
-5e-05
2.82731e-21
-5e-05
4.28599e-21
-5e-05
3.76946e-21
-5e-05
4.53572e-21
-5e-05
3.45251e-21
-5e-05
-8.93458e-22
-5e-05
-5.67409e-21
-5e-05
-5.52988e-21
-5e-05
-2.30045e-21
-5e-05
2.08162e-21
-5e-05
-4.63025e-22
-3.88986e-21
-5e-05
5.79848e-19
-5e-05
-1.16733e-19
-5e-05
1.29222e-20
-5e-05
-1.79114e-20
-5e-05
-1.0138e-20
-5e-05
-8.38464e-21
-5e-05
-5.18882e-22
-5e-05
7.63891e-21
-5e-05
9.62514e-21
-5e-05
8.78427e-21
-5e-05
6.81811e-21
-5e-05
6.27959e-21
-5e-05
2.16722e-21
-5e-05
-1.47229e-21
-5e-05
-5.27218e-21
-5e-05
-1.84895e-21
-5e-05
3.04543e-21
-5e-05
4.50601e-21
-5e-05
8.5901e-22
-2.33765e-21
-5e-05
-2.84156e-19
-5e-05
5.30771e-20
-5e-05
-2.22333e-20
-5e-05
-7.36015e-21
-5e-05
-1.19815e-20
-5e-05
-7.28815e-21
-5e-05
2.6697e-21
-5e-05
8.68705e-21
-5e-05
8.23824e-21
-5e-05
6.48449e-21
-5e-05
5.83615e-21
-5e-05
5.6219e-21
-5e-05
3.17892e-21
-5e-05
2.18946e-22
-5e-05
9.70921e-22
-5e-05
5.38497e-21
-5e-05
6.69731e-21
-5e-05
6.89674e-22
-5e-05
-2.96585e-21
1.54607e-22
-5e-05
8.66112e-20
-5e-05
-3.18498e-20
-5e-05
-1.75631e-21
-5e-05
-5.84278e-21
-5e-05
-6.73918e-21
-5e-05
-7.15756e-21
-5e-05
-4.21208e-21
-5e-05
-4.28034e-21
-5e-05
-1.34934e-21
-5e-05
2.61773e-21
-5e-05
3.44584e-21
-5e-05
1.55936e-21
-5e-05
3.47579e-21
-5e-05
5.17562e-21
-5e-05
8.75855e-21
-5e-05
9.47343e-21
-5e-05
7.65819e-21
-5e-05
-1.77312e-21
-5e-05
-2.99884e-21
1.22407e-21
-5e-05
2.14855e-20
-5e-05
-1.4584e-20
-5e-05
-7.35359e-21
-5e-05
-8.82879e-21
-5e-05
-7.54989e-21
-5e-05
-5.3459e-21
-5e-05
-6.43056e-21
-5e-05
-7.92547e-21
-5e-05
-2.2998e-21
-5e-05
2.2119e-21
-5e-05
3.20333e-21
-5e-05
2.02662e-21
-5e-05
3.19617e-21
-5e-05
6.91879e-21
-5e-05
8.04495e-21
-5e-05
6.32485e-21
-5e-05
4.69766e-21
-5e-05
2.34025e-22
-5e-05
1.02779e-22
-1.20015e-22
-5e-05
5.96143e-20
-5e-05
-1.7395e-20
-5e-05
5.33378e-22
-5e-05
-8.14132e-21
-5e-05
-7.20409e-21
-5e-05
-2.2101e-21
-5e-05
-1.18735e-21
-5e-05
-6.1764e-22
-5e-05
-1.29535e-21
-5e-05
-4.23485e-21
-5e-05
-2.96907e-21
-5e-05
-1.33874e-22
-5e-05
9.45424e-22
-5e-05
2.9361e-21
-5e-05
4.11902e-21
-5e-05
2.60888e-21
-5e-05
-1.23999e-22
-5e-05
2.52299e-21
-5e-05
3.2483e-21
-3.58177e-22
-5e-05
3.68424e-20
-5e-05
-8.51007e-21
-5e-05
6.131e-22
-5e-05
-4.02939e-21
-5e-05
-5.21109e-21
-5e-05
-1.86182e-21
-5e-05
-1.59223e-21
-5e-05
-1.22214e-21
-5e-05
-3.34689e-21
-5e-05
-5.41273e-21
-5e-05
-2.75456e-21
-5e-05
4.58507e-23
-5e-05
2.24487e-21
-5e-05
1.77249e-21
-5e-05
2.21796e-21
-5e-05
5.50392e-22
-5e-05
-1.1009e-21
-5e-05
2.71866e-21
-5e-05
5.38573e-21
2.59776e-21
-5e-05
5.68522e-20
-5e-05
-1.54514e-20
-5e-05
4.21815e-22
-5e-05
-1.83572e-21
-5e-05
-2.49309e-21
-5e-05
-4.90094e-21
-5e-05
-7.98323e-21
-5e-05
-9.18035e-21
-5e-05
-6.21043e-21
-5e-05
-1.38058e-21
-5e-05
5.64332e-21
-5e-05
9.80823e-21
-5e-05
9.872e-21
-5e-05
3.57077e-21
-5e-05
-1.15435e-21
-5e-05
-1.92128e-21
-5e-05
-9.92992e-22
-5e-05
-7.03532e-23
-5e-05
3.00978e-21
3.422e-21
-5e-05
4.59848e-20
-5e-05
-1.42933e-20
-5e-05
5.58314e-21
-5e-05
-1.05344e-22
-5e-05
-1.19603e-21
-5e-05
-8.08164e-21
-5e-05
-1.24177e-20
-5e-05
-1.52604e-20
-5e-05
-1.16588e-20
-5e-05
-4.06e-21
-5e-05
4.25558e-21
-5e-05
1.14178e-20
-5e-05
1.18987e-20
-5e-05
5.97542e-21
-5e-05
6.83417e-22
-5e-05
1.11451e-21
-5e-05
3.19818e-21
-5e-05
2.05332e-21
-5e-05
2.49545e-21
2.13681e-21
-5e-05
-1.57704e-20
-5e-05
1.56705e-20
-5e-05
5.13155e-21
-5e-05
3.92277e-21
-5e-05
3.30664e-21
-5e-05
2.94512e-24
-5e-05
-3.26679e-21
-5e-05
-8.59842e-21
-5e-05
-1.15676e-20
-5e-05
-8.55336e-21
-5e-05
-5.7043e-21
-5e-05
-8.49124e-22
-5e-05
1.31006e-21
-5e-05
3.20927e-21
-5e-05
2.24095e-21
-5e-05
2.04207e-21
-5e-05
6.06108e-21
-5e-05
4.96802e-21
-5e-05
3.02812e-21
1.05435e-21
-5e-05
9.75832e-20
-5e-05
-7.71269e-21
-5e-05
2.18333e-21
-5e-05
1.37831e-21
-5e-05
1.93871e-21
-5e-05
-8.22663e-22
-5e-05
-2.24208e-21
-5e-05
-3.94567e-21
-5e-05
-7.57023e-21
-5e-05
-6.65343e-21
-5e-05
-5.12617e-21
-5e-05
-3.85843e-21
-5e-05
-4.39144e-21
-5e-05
-2.19898e-21
-5e-05
-6.02596e-22
-5e-05
-6.15628e-23
-5e-05
4.67636e-21
-5e-05
2.04212e-21
-5e-05
-1.01395e-21
-1.37815e-21
-5e-05
5.20932e-20
-5e-05
-1.33434e-20
-5e-05
-4.01704e-22
-5e-05
4.24878e-22
-5e-05
9.569e-22
-5e-05
-2.26655e-21
-5e-05
-4.88733e-21
-5e-05
-4.58726e-21
-5e-05
-5.35952e-21
-5e-05
-5.49638e-21
-5e-05
-4.64717e-21
-5e-05
-3.89821e-21
-5e-05
-2.29848e-21
-5e-05
1.75152e-22
-5e-05
3.62639e-21
-5e-05
2.86856e-21
-5e-05
2.72959e-21
-5e-05
1.40048e-21
-5e-05
-1.51052e-21
-8.66918e-22
-5e-05
-4.05844e-20
-5e-05
-2.12122e-23
-5e-05
3.33378e-21
-5e-05
2.40064e-21
-5e-05
3.53721e-21
-5e-05
2.79368e-21
-5e-05
4.45557e-22
-5e-05
-1.89512e-21
-5e-05
-2.88279e-21
-5e-05
-6.47055e-21
-5e-05
-9.33972e-21
-5e-05
-8.38328e-21
-5e-05
-2.82013e-21
-5e-05
3.35602e-21
-5e-05
7.49786e-21
-5e-05
2.18627e-21
-5e-05
-3.65907e-21
-5e-05
4.53679e-22
-5e-05
2.63744e-23
1.02027e-21
-5e-05
-1.49649e-20
-5e-05
2.38121e-21
-5e-05
-3.66935e-21
-5e-05
-1.7719e-21
-5e-05
-3.10827e-21
-5e-05
-4.75115e-21
-5e-05
-3.85852e-21
-5e-05
-3.14586e-21
-5e-05
-1.35939e-21
-5e-05
-2.47913e-21
-5e-05
-4.10288e-21
-5e-05
-3.57572e-21
-5e-05
-6.71354e-22
-5e-05
6.93107e-22
-5e-05
-3.96086e-22
-5e-05
-2.13229e-21
-5e-05
-3.32626e-21
-5e-05
3.87636e-22
-5e-05
3.59098e-22
3.47784e-22
-5e-05
1.11865e-19
-5e-05
-2.18149e-20
-5e-05
-8.56097e-21
-5e-05
-5.81229e-21
-5e-05
-4.92603e-21
-5e-05
-8.49749e-21
-5e-05
-9.13666e-21
-5e-05
-4.04033e-21
-5e-05
9.36986e-22
-5e-05
1.24736e-21
-5e-05
2.38105e-21
-5e-05
3.54759e-21
-5e-05
4.72392e-21
-5e-05
1.85197e-22
-5e-05
-6.13303e-21
-5e-05
-3.28608e-21
-5e-05
5.63842e-22
-5e-05
1.37913e-21
-5e-05
4.36476e-22
-2.33902e-22
-5e-05
2.00249e-19
-5e-05
-5.41803e-20
-5e-05
3.86096e-22
-5e-05
-5.6896e-21
-5e-05
-1.9194e-21
-5e-05
-4.62367e-21
-5e-05
-6.87461e-21
-5e-05
-2.03109e-21
-5e-05
3.87888e-21
-5e-05
4.42264e-21
-5e-05
4.22966e-21
-5e-05
1.79241e-21
-5e-05
1.11858e-21
-5e-05
-1.24501e-21
-5e-05
-2.65663e-21
-5e-05
-2.92593e-21
-5e-05
-1.52123e-21
-5e-05
-2.69795e-21
-5e-05
-1.26408e-21
-3.87972e-22
-5e-05
-4.02026e-19
-5e-05
6.42579e-20
-5e-05
-2.36748e-20
-5e-05
-8.70638e-22
-5e-05
-3.33088e-21
-5e-05
-2.26325e-21
-5e-05
-4.37174e-21
-5e-05
-2.70818e-21
-5e-05
3.36106e-22
-5e-05
2.32095e-21
-5e-05
2.59038e-23
-5e-05
-4.80548e-21
-5e-05
-6.47679e-21
-5e-05
-3.7229e-21
-5e-05
2.68451e-21
-5e-05
-5.38045e-23
-5e-05
-4.39888e-22
-5e-05
-3.9621e-21
-5e-05
-1.06686e-21
-6.61023e-22
-5e-05
-5e-05
-5e-05
-5e-05
-5e-05
-5e-05
-5e-05
-5e-05
-5e-05
-5e-05
-5e-05
-5e-05
-5e-05
-5e-05
-5e-05
-5e-05
-5e-05
-5e-05
-5e-05
)
;

boundaryField
{
    movingWall
    {
        type            calculated;
        value           uniform -0;
    }
    fixedWalls
    {
        type            calculated;
        value           nonuniform List<scalar> 
60
(
5e-05
5e-05
5e-05
5e-05
5e-05
5e-05
5e-05
5e-05
5e-05
5e-05
5e-05
5e-05
5e-05
5e-05
5e-05
5e-05
5e-05
5e-05
5e-05
5e-05
-5e-05
-5e-05
-5e-05
-5e-05
-5e-05
-5e-05
-5e-05
-5e-05
-5e-05
-5e-05
-5e-05
-5e-05
-5e-05
-5e-05
-5e-05
-5e-05
-5e-05
-5e-05
-5e-05
-5e-05
0
0
0
0
0
0
0
0
0
0
0
0
0
0
0
0
0
0
0
0
)
;
    }
    frontAndBack
    {
        type            empty;
    }
}


// ************************************************************************* //
