/*--------------------------------*- C++ -*----------------------------------*\
| =========                 |                                                 |
| \\      /  F ield         | OpenFOAM: The Open Source CFD Toolbox           |
|  \\    /   O peration     | Version:  2506                                  |
|   \\  /    A nd           | Website:  www.openfoam.com                      |
|    \\/     M anipulation  |                                                 |
\*---------------------------------------------------------------------------*/
FoamFile
{
    version     2.0;
    format      ascii;
    arch        "LSB;label=32;scalar=64";
    class       volTensorField;
    location    "5.125";
    object      gradU;
}
// * * * * * * * * * * * * * * * * * * * * * * * * * * * * * * * * * * * * * //

dimensions      [0 0 -1 0 0 0 0];

internalField   nonuniform List<tensor> 
400
(
(-5.42101e-14 1.956e-12 0 6.77626e-13 6.28359e-12 0 0 0 0)
(2.98156e-13 -2.2463e-12 0 -1.6263e-13 -1.1342e-12 0 0 0 0)
(-8.13152e-14 4.13724e-13 0 5.42101e-14 2.96707e-13 0 0 0 0)
(-5.42101e-14 -1.1552e-13 0 2.71051e-14 -3.01462e-14 0 0 0 0)
(-2.71051e-14 2.0895e-14 0 5.42101e-14 2.55839e-14 0 0 0 0)
(-2.71051e-14 2.81819e-16 0 0 3.435e-14 0 0 0 0)
(-5.42101e-14 2.62411e-15 0 0 3.30407e-14 0 0 0 0)
(-5.42101e-14 1.34752e-15 0 -5.42101e-14 2.93596e-14 0 0 0 0)
(0 -8.79712e-15 0 0 2.40888e-14 0 0 0 0)
(0 -1.699e-14 0 -5.42101e-14 1.21736e-14 0 0 0 0)
(-2.71051e-14 -1.91792e-14 0 -5.42101e-14 1.18884e-15 0 0 0 0)
(0 -1.10613e-14 0 0 -9.50078e-15 0 0 0 0)
(0 -1.15745e-15 0 -5.42101e-14 -8.76124e-15 0 0 0 0)
(2.71051e-14 5.27624e-15 0 -8.13152e-14 -2.02253e-14 0 0 0 0)
(5.42101e-14 1.71007e-14 0 -5.42101e-14 -1.28183e-14 0 0 0 0)
(0 1.33664e-14 0 0 6.43855e-15 0 0 0 0)
(-5.42101e-14 -3.58632e-15 0 -5.42101e-14 6.57584e-15 0 0 0 0)
(5.42101e-14 -2.60528e-15 0 0 -5.93094e-15 0 0 0 0)
(-5.42101e-14 -5.54612e-15 0 -5.42101e-14 -8.96567e-16 0 0 0 0)
(5.42101e-14 1.32149e-16 0 0 -1.249e-14 0 0 0 0)
(5.96311e-13 3.19339e-12 0 -2.6834e-12 -8.19218e-12 0 0 0 0)
(-9.21572e-13 -3.74058e-12 0 4.06576e-13 1.46768e-12 0 0 0 0)
(2.71051e-13 6.90334e-13 0 -3.25261e-13 -3.66416e-13 0 0 0 0)
(0 -1.55603e-13 0 0 5.37206e-14 0 0 0 0)
(0 4.36012e-14 0 -1.0842e-13 -1.37204e-14 0 0 0 0)
(0 7.17503e-15 0 -5.42101e-14 -6.6964e-15 0 0 0 0)
(2.71051e-14 -7.61451e-15 0 0 -1.09689e-14 0 0 0 0)
(0 -1.02995e-14 0 0 -1.78891e-14 0 0 0 0)
(5.42101e-14 -8.3889e-15 0 2.71051e-14 -1.63471e-14 0 0 0 0)
(0 -5.90988e-15 0 8.13152e-14 -4.05311e-15 0 0 0 0)
(2.71051e-14 -2.49513e-15 0 5.42101e-14 7.61257e-15 0 0 0 0)
(0 1.11126e-15 0 0 2.27732e-14 0 0 0 0)
(-8.13152e-14 -9.56707e-15 0 5.42101e-14 2.46221e-14 0 0 0 0)
(-2.71051e-14 -9.33335e-15 0 2.71051e-14 1.29358e-14 0 0 0 0)
(0 9.56313e-15 0 0 -1.69821e-15 0 0 0 0)
(2.71051e-14 6.02783e-15 0 0 -1.59852e-14 0 0 0 0)
(0 -8.78318e-15 0 5.42101e-14 -1.54964e-14 0 0 0 0)
(0 -4.86713e-15 0 0 -3.49579e-15 0 0 0 0)
(5.42101e-14 -1.01289e-15 0 5.42101e-14 -1.13933e-14 0 0 0 0)
(0 1.32544e-14 0 0 -4.29984e-15 0 0 0 0)
(-2.27682e-12 -4.7685e-12 0 3.30682e-12 -7.9747e-13 0 0 0 0)
(2.57498e-12 5.57946e-12 0 -5.42101e-13 7.2902e-14 0 0 0 0)
(-5.14996e-13 -1.00024e-12 0 4.06576e-13 -3.99811e-14 0 0 0 0)
(2.1684e-13 2.37176e-13 0 -5.42101e-14 -2.00597e-14 0 0 0 0)
(-5.42101e-14 -3.9522e-14 0 1.35525e-13 -1.54377e-14 0 0 0 0)
(5.42101e-14 3.03334e-15 0 1.35525e-13 -3.3955e-14 0 0 0 0)
(2.71051e-14 -8.56855e-15 0 5.42101e-14 -2.49053e-14 0 0 0 0)
(2.71051e-14 -4.0307e-15 0 1.35525e-13 -6.08583e-15 0 0 0 0)
(0 5.03882e-15 0 2.71051e-14 3.56759e-15 0 0 0 0)
(-2.71051e-14 6.96963e-15 0 2.71051e-14 9.0235e-15 0 0 0 0)
(-2.71051e-14 7.64705e-15 0 0 6.27641e-15 0 0 0 0)
(-5.42101e-14 5.94821e-15 0 0 4.87051e-15 0 0 0 0)
(5.42101e-14 -1.09948e-14 0 0 -2.05084e-15 0 0 0 0)
(0 -2.10441e-14 0 8.13152e-14 3.71568e-15 0 0 0 0)
(0 -1.18203e-14 0 8.13152e-14 -8.17979e-15 0 0 0 0)
(5.42101e-14 -4.3181e-16 0 2.71051e-14 -1.25729e-14 0 0 0 0)
(0 8.9031e-15 0 5.42101e-14 -2.81259e-16 0 0 0 0)
(-2.71051e-14 1.49779e-15 0 0 1.77532e-14 0 0 0 0)
(-2.71051e-14 -6.35017e-15 0 2.71051e-14 1.04378e-14 0 0 0 0)
(0 1.58253e-14 0 2.71051e-14 1.23036e-15 0 0 0 0)
(3.27971e-12 2.46882e-12 0 -1.65341e-12 5.02546e-12 0 0 0 0)
(-3.7405e-12 -2.98309e-12 0 3.25261e-13 -8.73312e-13 0 0 0 0)
(7.31836e-13 5.97372e-13 0 -1.35525e-13 1.6138e-13 0 0 0 0)
(-2.98156e-13 -1.31059e-13 0 1.0842e-13 -7.51601e-14 0 0 0 0)
(1.35525e-13 2.97059e-14 0 0 -3.69776e-14 0 0 0 0)
(0 -2.29263e-15 0 5.42101e-14 -2.72371e-14 0 0 0 0)
(0 2.02547e-14 0 2.71051e-14 7.57976e-16 0 0 0 0)
(-5.42101e-14 1.81734e-14 0 0 2.51709e-14 0 0 0 0)
(-2.71051e-14 6.72044e-15 0 0 2.71913e-14 0 0 0 0)
(0 -3.20105e-15 0 2.71051e-14 1.79931e-14 0 0 0 0)
(0 -6.64812e-15 0 2.71051e-14 1.21946e-14 0 0 0 0)
(0 -7.216e-15 0 5.42101e-14 6.97546e-15 0 0 0 0)
(-2.71051e-14 -1.07219e-14 0 2.71051e-14 -5.14114e-15 0 0 0 0)
(2.71051e-14 -1.54623e-14 0 2.71051e-14 -2.31531e-15 0 0 0 0)
(0 -6.72542e-15 0 2.71051e-14 1.60764e-15 0 0 0 0)
(-2.71051e-14 1.39264e-14 0 0 1.47237e-14 0 0 0 0)
(-2.71051e-14 2.15429e-14 0 -2.71051e-14 2.13835e-14 0 0 0 0)
(0 5.8519e-15 0 -5.42101e-14 9.69758e-15 0 0 0 0)
(2.71051e-14 -1.75357e-14 0 -2.71051e-14 5.28814e-15 0 0 0 0)
(-2.71051e-14 1.58624e-15 0 0 6.20883e-15 0 0 0 0)
(-3.63208e-12 -6.16358e-13 0 6.77626e-13 -3.45601e-12 0 0 0 0)
(4.14707e-12 7.15387e-13 0 -1.35525e-13 6.7924e-13 0 0 0 0)
(-7.58942e-13 -2.02086e-13 0 0 -1.40622e-13 0 0 0 0)
(3.52366e-13 3.88186e-14 0 -5.42101e-14 4.22048e-14 0 0 0 0)
(-8.13152e-14 8.401e-15 0 -1.0842e-13 -7.37424e-15 0 0 0 0)
(2.71051e-14 4.07689e-14 0 -1.89735e-13 4.38597e-15 0 0 0 0)
(-2.71051e-14 4.38395e-14 0 -1.35525e-13 1.27543e-14 0 0 0 0)
(0 2.24026e-14 0 -1.35525e-13 4.19258e-15 0 0 0 0)
(0 -2.13898e-15 0 -1.0842e-13 -5.54758e-15 0 0 0 0)
(0 -8.02704e-15 0 -2.71051e-14 -9.19912e-15 0 0 0 0)
(0 -3.37061e-15 0 0 -3.92785e-15 0 0 0 0)
(0 -1.13876e-14 0 0 -2.63075e-15 0 0 0 0)
(0 -2.02856e-14 0 2.71051e-14 4.04678e-15 0 0 0 0)
(0 -1.42953e-14 0 -2.71051e-14 6.76493e-15 0 0 0 0)
(-2.71051e-14 5.21876e-15 0 -2.71051e-14 2.49724e-14 0 0 0 0)
(-2.71051e-14 1.93441e-14 0 -2.71051e-14 2.89357e-14 0 0 0 0)
(0 3.87695e-15 0 -8.13152e-14 1.46075e-14 0 0 0 0)
(0 -1.45976e-14 0 5.42101e-14 -1.52653e-14 0 0 0 0)
(2.71051e-14 -9.83892e-15 0 2.71051e-14 -1.52994e-14 0 0 0 0)
(-2.71051e-14 4.32833e-15 0 -2.71051e-14 9.96903e-15 0 0 0 0)
(3.84892e-12 -3.07957e-13 0 -3.79471e-13 1.48307e-12 0 0 0 0)
(-4.47233e-12 3.32304e-13 0 2.71051e-14 -3.39708e-13 0 0 0 0)
(8.40257e-13 -3.96629e-14 0 -5.42101e-14 8.19078e-14 0 0 0 0)
(-4.06576e-13 2.18837e-15 0 -8.13152e-14 6.06949e-15 0 0 0 0)
(5.42101e-14 -8.11298e-15 0 -2.71051e-14 2.09694e-14 0 0 0 0)
(0 1.78359e-14 0 -2.71051e-14 5.22331e-16 0 0 0 0)
(0 2.00613e-14 0 -2.71051e-14 -2.75271e-14 0 0 0 0)
(0 -1.28452e-16 0 -2.71051e-14 -5.18696e-14 0 0 0 0)
(8.13152e-14 -6.67126e-15 0 0 -3.83503e-14 0 0 0 0)
(5.42101e-14 -1.58133e-15 0 -2.71051e-14 -1.5467e-14 0 0 0 0)
(0 -7.97423e-17 0 -2.71051e-14 -9.56124e-15 0 0 0 0)
(2.71051e-14 7.58637e-16 0 -2.71051e-14 -1.62502e-14 0 0 0 0)
(0 -1.32623e-15 0 -2.71051e-14 1.18749e-15 0 0 0 0)
(-2.71051e-14 5.46331e-15 0 0 1.98267e-14 0 0 0 0)
(-5.42101e-14 1.54453e-14 0 -2.71051e-14 3.11505e-14 0 0 0 0)
(0 3.5615e-15 0 0 1.63538e-14 0 0 0 0)
(0 -2.26582e-14 0 0 3.84352e-15 0 0 0 0)
(5.42101e-14 -2.40551e-14 0 0 -9.85117e-15 0 0 0 0)
(0 7.69865e-15 0 -2.71051e-14 -1.31968e-16 0 0 0 0)
(0 6.91664e-15 0 0 4.27783e-15 0 0 0 0)
(-3.95734e-12 5.27003e-13 0 -8.13152e-14 -2.60503e-13 0 0 0 0)
(4.44523e-12 -6.85774e-13 0 5.42101e-14 6.9063e-14 0 0 0 0)
(-8.94467e-13 1.43691e-13 0 -2.71051e-14 -2.23891e-14 0 0 0 0)
(4.06576e-13 -2.21199e-14 0 2.71051e-14 -1.19441e-14 0 0 0 0)
(-8.13152e-14 2.85384e-15 0 2.71051e-14 -3.24287e-15 0 0 0 0)
(0 -7.72754e-15 0 2.71051e-14 7.24666e-15 0 0 0 0)
(2.71051e-14 -8.55242e-15 0 2.71051e-14 -8.87393e-15 0 0 0 0)
(8.13152e-14 1.15794e-14 0 2.71051e-14 -1.45805e-14 0 0 0 0)
(2.71051e-14 3.42636e-14 0 -2.71051e-14 -3.80186e-15 0 0 0 0)
(0 2.0762e-14 0 -1.0842e-13 -1.62333e-15 0 0 0 0)
(-2.71051e-14 -4.15377e-15 0 -5.42101e-14 -9.7004e-16 0 0 0 0)
(-2.71051e-14 -6.38832e-16 0 -2.71051e-14 1.86904e-15 0 0 0 0)
(2.71051e-14 1.57913e-14 0 -8.13152e-14 -1.11847e-15 0 0 0 0)
(0 1.56677e-14 0 -8.13152e-14 6.97268e-15 0 0 0 0)
(0 1.7459e-15 0 0 -2.8544e-15 0 0 0 0)
(0 -7.96291e-15 0 0 -1.25943e-14 0 0 0 0)
(0 -2.2328e-14 0 5.42101e-14 -1.18421e-14 0 0 0 0)
(-2.71051e-14 -1.85731e-14 0 0 8.02857e-15 0 0 0 0)
(0 4.29008e-15 0 0 1.24065e-14 0 0 0 0)
(0 1.82462e-16 0 0 -5.37632e-15 0 0 0 0)
(3.79471e-12 -4.99397e-13 0 6.23416e-13 1.52515e-13 0 0 0 0)
(-4.36391e-12 5.70418e-13 0 -1.35525e-13 -1.12437e-14 0 0 0 0)
(8.40257e-13 -1.2067e-13 0 8.13152e-14 3.15479e-14 0 0 0 0)
(-3.52366e-13 2.13346e-14 0 5.42101e-14 2.74989e-15 0 0 0 0)
(8.13152e-14 1.10778e-14 0 5.42101e-14 1.38321e-15 0 0 0 0)
(-5.42101e-14 1.22049e-14 0 0 1.25432e-14 0 0 0 0)
(-2.71051e-14 -1.76587e-15 0 5.42101e-14 2.09728e-14 0 0 0 0)
(-5.42101e-14 4.94361e-15 0 0 2.92313e-14 0 0 0 0)
(-5.42101e-14 6.28591e-15 0 2.71051e-14 4.01781e-15 0 0 0 0)
(5.42101e-14 1.2505e-15 0 2.71051e-14 -2.5787e-14 0 0 0 0)
(5.42101e-14 3.41263e-15 0 5.42101e-14 -2.46896e-14 0 0 0 0)
(0 6.1021e-16 0 0 -8.64196e-15 0 0 0 0)
(-5.42101e-14 3.77741e-15 0 5.42101e-14 -9.003e-15 0 0 0 0)
(5.42101e-14 3.72738e-15 0 5.42101e-14 -1.59307e-14 0 0 0 0)
(2.71051e-14 -4.12167e-15 0 0 -1.57037e-14 0 0 0 0)
(0 -5.42623e-15 0 0 -1.48639e-14 0 0 0 0)
(5.42101e-14 -2.03525e-15 0 0 -1.92866e-14 0 0 0 0)
(0 1.93547e-16 0 2.71051e-14 9.15584e-15 0 0 0 0)
(0 -5.70624e-15 0 2.71051e-14 1.25821e-14 0 0 0 0)
(0 -1.13519e-16 0 0 -9.52649e-16 0 0 0 0)
(-3.41524e-12 6.68275e-13 0 -4.60786e-13 -9.10876e-14 0 0 0 0)
(3.87602e-12 -8.06741e-13 0 1.6263e-13 3.55395e-14 0 0 0 0)
(-7.31836e-13 1.57684e-13 0 0 3.18887e-16 0 0 0 0)
(3.25261e-13 -5.22845e-14 0 5.42101e-14 1.64478e-14 0 0 0 0)
(-1.0842e-13 1.26472e-14 0 0 7.97198e-15 0 0 0 0)
(5.42101e-14 1.18621e-14 0 0 1.3931e-15 0 0 0 0)
(2.71051e-14 8.13569e-15 0 2.71051e-14 -1.61953e-15 0 0 0 0)
(2.71051e-14 -5.37561e-15 0 1.0842e-13 -2.418e-15 0 0 0 0)
(2.71051e-14 -2.07547e-14 0 1.35525e-13 -8.20614e-15 0 0 0 0)
(0 -7.94536e-15 0 1.0842e-13 -4.71151e-15 0 0 0 0)
(-2.71051e-14 1.29913e-14 0 5.42101e-14 8.58033e-16 0 0 0 0)
(0 1.50478e-14 0 2.71051e-14 7.18898e-16 0 0 0 0)
(0 8.50248e-15 0 0 5.19778e-15 0 0 0 0)
(2.71051e-14 8.96698e-15 0 2.71051e-14 -4.65444e-15 0 0 0 0)
(-2.71051e-14 2.81277e-15 0 -5.42101e-14 -7.60421e-15 0 0 0 0)
(0 -1.15458e-14 0 0 -8.23394e-15 0 0 0 0)
(0 1.69169e-15 0 0 -3.90762e-15 0 0 0 0)
(0 1.32956e-14 0 0 7.82712e-16 0 0 0 0)
(-2.71051e-14 -5.81841e-15 0 -2.71051e-14 8.54974e-15 0 0 0 0)
(-2.71051e-14 -1.1447e-14 0 0 1.18237e-14 0 0 0 0)
(3.46945e-12 -5.54945e-13 0 5.14996e-13 8.00389e-14 0 0 0 0)
(-3.90313e-12 6.61824e-13 0 -1.6263e-13 -2.77653e-14 0 0 0 0)
(7.31836e-13 -1.39762e-13 0 2.71051e-14 -7.6514e-16 0 0 0 0)
(-2.98156e-13 2.89877e-14 0 -5.42101e-14 8.77465e-15 0 0 0 0)
(2.71051e-14 -3.9769e-15 0 0 1.0872e-14 0 0 0 0)
(0 2.61336e-15 0 5.42101e-14 -1.21565e-14 0 0 0 0)
(2.71051e-14 -5.57697e-15 0 -2.71051e-14 -2.5564e-14 0 0 0 0)
(0 -1.643e-15 0 2.71051e-14 -3.18328e-14 0 0 0 0)
(0 3.9924e-15 0 0 -1.14542e-14 0 0 0 0)
(0 1.03147e-14 0 2.71051e-14 1.61286e-14 0 0 0 0)
(-2.71051e-14 8.84304e-15 0 2.71051e-14 3.35915e-14 0 0 0 0)
(-2.71051e-14 4.94996e-15 0 2.71051e-14 3.90495e-14 0 0 0 0)
(-5.42101e-14 -1.59593e-15 0 5.42101e-14 3.05085e-14 0 0 0 0)
(-2.71051e-14 -9.07461e-15 0 -2.71051e-14 7.19313e-15 0 0 0 0)
(0 -7.70116e-15 0 0 -1.34892e-14 0 0 0 0)
(2.71051e-14 -1.72964e-15 0 0 -9.88667e-15 0 0 0 0)
(0 6.9814e-15 0 0 4.31649e-16 0 0 0 0)
(0 1.26509e-14 0 -2.71051e-14 -1.11561e-14 0 0 0 0)
(5.42101e-14 5.33478e-15 0 -5.42101e-14 -9.50383e-15 0 0 0 0)
(0 -2.0487e-14 0 0 3.29696e-15 0 0 0 0)
(-3.06287e-12 7.20548e-13 0 -4.60786e-13 -4.34694e-14 0 0 0 0)
(3.41524e-12 -8.87545e-13 0 1.35525e-13 4.63246e-15 0 0 0 0)
(-6.23416e-13 1.94224e-13 0 -2.71051e-14 2.06453e-14 0 0 0 0)
(2.98156e-13 -4.06474e-14 0 0 6.92151e-15 0 0 0 0)
(-1.0842e-13 -8.28398e-15 0 0 5.18825e-15 0 0 0 0)
(2.71051e-14 -2.45739e-14 0 0 -1.27228e-14 0 0 0 0)
(5.42101e-14 -1.15407e-14 0 -5.42101e-14 -1.77381e-14 0 0 0 0)
(8.13152e-14 8.73421e-15 0 -1.35525e-13 -2.43201e-14 0 0 0 0)
(2.71051e-14 2.72067e-14 0 -1.35525e-13 -2.17936e-14 0 0 0 0)
(2.71051e-14 3.71003e-14 0 -8.13152e-14 -1.07177e-14 0 0 0 0)
(0 3.59122e-14 0 -8.13152e-14 -5.55095e-15 0 0 0 0)
(-2.71051e-14 1.19647e-14 0 -5.42101e-14 6.43823e-15 0 0 0 0)
(-2.71051e-14 -2.33539e-14 0 -5.42101e-14 8.10696e-15 0 0 0 0)
(-2.71051e-14 -3.50308e-14 0 8.13152e-14 9.61857e-15 0 0 0 0)
(0 -1.4267e-14 0 1.0842e-13 7.35105e-15 0 0 0 0)
(0 2.37506e-15 0 5.42101e-14 1.21431e-14 0 0 0 0)
(-2.71051e-14 4.22291e-16 0 2.71051e-14 1.67647e-14 0 0 0 0)
(-2.71051e-14 3.36017e-15 0 2.71051e-14 8.49469e-15 0 0 0 0)
(0 8.63462e-15 0 5.42101e-14 -2.0573e-15 0 0 0 0)
(0 -5.24011e-15 0 2.71051e-14 -5.14076e-15 0 0 0 0)
(3.14419e-12 -5.93782e-13 0 7.58942e-13 -2.47021e-13 0 0 0 0)
(-3.49655e-12 7.25939e-13 0 -2.1684e-13 1.19855e-13 0 0 0 0)
(6.50521e-13 -1.37473e-13 0 5.42101e-14 -1.80636e-15 0 0 0 0)
(-3.52366e-13 1.35307e-14 0 -5.42101e-14 1.61124e-14 0 0 0 0)
(1.0842e-13 -2.36212e-14 0 0 1.80107e-14 0 0 0 0)
(-5.42101e-14 -2.0313e-14 0 -5.42101e-14 3.23383e-14 0 0 0 0)
(-8.13152e-14 -1.71743e-14 0 0 3.66038e-14 0 0 0 0)
(-1.0842e-13 -5.69851e-15 0 -2.71051e-14 2.66479e-14 0 0 0 0)
(5.42101e-14 1.75948e-14 0 -2.71051e-14 3.64829e-16 0 0 0 0)
(0 2.65573e-14 0 -8.13152e-14 -1.79734e-14 0 0 0 0)
(0 2.5999e-14 0 -8.13152e-14 -3.98395e-14 0 0 0 0)
(5.42101e-14 1.86079e-14 0 -8.13152e-14 -4.90676e-14 0 0 0 0)
(8.13152e-14 1.58442e-15 0 -8.13152e-14 -4.23547e-14 0 0 0 0)
(5.42101e-14 -9.83052e-15 0 -5.42101e-14 -1.10646e-14 0 0 0 0)
(-2.71051e-14 -5.1766e-15 0 -5.42101e-14 6.23012e-15 0 0 0 0)
(0 7.68398e-15 0 -1.0842e-13 3.71025e-15 0 0 0 0)
(0 3.33295e-15 0 -2.71051e-14 1.14516e-14 0 0 0 0)
(0 -6.17106e-15 0 0 1.16588e-14 0 0 0 0)
(0 -8.30067e-15 0 0 2.13066e-15 0 0 0 0)
(-2.71051e-14 -1.32889e-14 0 -2.71051e-14 -4.32985e-15 0 0 0 0)
(-2.52077e-12 5.93383e-13 0 -1.0571e-12 4.53414e-13 0 0 0 0)
(2.71051e-12 -6.42331e-13 0 1.6263e-13 -9.35327e-14 0 0 0 0)
(-4.60786e-13 9.04818e-14 0 -1.0842e-13 -1.17929e-14 0 0 0 0)
(2.71051e-13 -2.08303e-14 0 8.13152e-14 -1.01778e-14 0 0 0 0)
(-8.13152e-14 7.9419e-15 0 0 -5.47172e-15 0 0 0 0)
(0 -5.98079e-15 0 0 -3.30243e-15 0 0 0 0)
(2.71051e-14 -1.72311e-14 0 8.13152e-14 4.09885e-15 0 0 0 0)
(0 -2.75048e-14 0 8.13152e-14 1.8611e-14 0 0 0 0)
(0 -1.74146e-14 0 8.13152e-14 1.59896e-14 0 0 0 0)
(0 -3.10405e-15 0 1.0842e-13 7.5997e-15 0 0 0 0)
(0 4.81795e-15 0 1.35525e-13 2.31255e-15 0 0 0 0)
(-2.71051e-14 9.44958e-15 0 2.71051e-14 -1.20372e-14 0 0 0 0)
(2.71051e-14 1.46492e-14 0 8.13152e-14 -2.2806e-14 0 0 0 0)
(0 1.35541e-14 0 -2.71051e-14 -2.1633e-14 0 0 0 0)
(-2.71051e-14 5.07793e-16 0 0 -1.13742e-14 0 0 0 0)
(2.71051e-14 7.59655e-15 0 5.42101e-14 -8.41453e-15 0 0 0 0)
(0 8.37085e-15 0 0 -5.53887e-15 0 0 0 0)
(0 -5.96078e-15 0 0 -1.17036e-14 0 0 0 0)
(0 -7.35404e-15 0 0 -1.61683e-14 0 0 0 0)
(5.42101e-14 -3.04092e-15 0 0 -9.72999e-15 0 0 0 0)
(2.27682e-12 -2.33901e-13 0 6.23416e-13 -1.8196e-13 0 0 0 0)
(-2.54788e-12 2.60732e-13 0 5.42101e-14 -2.2523e-14 0 0 0 0)
(4.87891e-13 -5.41178e-14 0 1.0842e-13 -1.03401e-14 0 0 0 0)
(-2.1684e-13 1.98518e-14 0 2.71051e-14 -3.81371e-15 0 0 0 0)
(5.42101e-14 -1.67458e-14 0 5.42101e-14 -3.92725e-15 0 0 0 0)
(0 -1.07424e-14 0 1.0842e-13 -5.77554e-15 0 0 0 0)
(0 4.73912e-15 0 0 -1.0581e-14 0 0 0 0)
(0 6.1922e-15 0 2.71051e-14 -2.56638e-15 0 0 0 0)
(0 6.5835e-15 0 2.71051e-14 8.84282e-15 0 0 0 0)
(2.71051e-14 1.28803e-14 0 2.71051e-14 4.62821e-15 0 0 0 0)
(-2.71051e-14 6.36205e-15 0 -2.71051e-14 1.916e-15 0 0 0 0)
(0 -6.51067e-15 0 1.0842e-13 -1.59119e-16 0 0 0 0)
(0 -8.01137e-15 0 5.42101e-14 8.37185e-15 0 0 0 0)
(0 1.6013e-15 0 5.42101e-14 9.49654e-15 0 0 0 0)
(0 8.04189e-15 0 5.42101e-14 1.6916e-14 0 0 0 0)
(-2.71051e-14 1.35193e-14 0 0 1.17205e-14 0 0 0 0)
(0 4.38736e-17 0 0 -7.78707e-15 0 0 0 0)
(2.71051e-14 -1.68005e-14 0 0 -2.56655e-15 0 0 0 0)
(-2.71051e-14 -6.32705e-15 0 2.71051e-14 -1.98629e-15 0 0 0 0)
(-2.71051e-14 1.26093e-14 0 2.71051e-14 2.04493e-15 0 0 0 0)
(-1.87025e-12 3.889e-13 0 -5.42101e-13 -3.7071e-13 0 0 0 0)
(2.19551e-12 -4.70711e-13 0 0 5.32889e-14 0 0 0 0)
(-4.06576e-13 1.09191e-13 0 -1.0842e-13 1.49419e-14 0 0 0 0)
(1.89735e-13 -1.44174e-14 0 -1.0842e-13 7.90304e-15 0 0 0 0)
(-5.42101e-14 5.98007e-15 0 -5.42101e-14 1.03212e-14 0 0 0 0)
(-5.42101e-14 -1.26345e-14 0 -5.42101e-14 2.02409e-14 0 0 0 0)
(0 -1.4022e-14 0 -2.71051e-14 2.13316e-14 0 0 0 0)
(0 -8.08095e-15 0 -2.71051e-14 1.07686e-14 0 0 0 0)
(0 -1.022e-14 0 -2.71051e-14 9.90691e-15 0 0 0 0)
(0 -1.00309e-14 0 -5.42101e-14 -3.89667e-15 0 0 0 0)
(0 3.06287e-17 0 -2.71051e-14 -1.87702e-14 0 0 0 0)
(2.71051e-14 1.59054e-14 0 -5.42101e-14 -1.79403e-14 0 0 0 0)
(2.71051e-14 2.43048e-14 0 -1.0842e-13 -2.0866e-15 0 0 0 0)
(0 2.20982e-14 0 -1.0842e-13 1.27235e-14 0 0 0 0)
(-5.42101e-14 2.73176e-15 0 -5.42101e-14 1.54859e-14 0 0 0 0)
(-5.42101e-14 -1.71065e-14 0 0 -2.72918e-15 0 0 0 0)
(5.42101e-14 -5.91621e-15 0 0 -2.55547e-14 0 0 0 0)
(0 -1.60001e-16 0 -2.71051e-14 -3.78721e-15 0 0 0 0)
(0 -2.74255e-15 0 -2.71051e-14 6.1476e-15 0 0 0 0)
(0 -3.09956e-15 0 -2.71051e-14 7.54877e-15 0 0 0 0)
(1.76183e-12 -5.51322e-13 0 6.77626e-13 1.02478e-13 0 0 0 0)
(-2.11419e-12 6.46384e-13 0 -2.1684e-13 9.60969e-15 0 0 0 0)
(3.79471e-13 -9.95036e-14 0 5.42101e-14 -2.80125e-14 0 0 0 0)
(-1.6263e-13 1.52311e-14 0 0 -1.66901e-14 0 0 0 0)
(8.13152e-14 -4.40789e-15 0 2.71051e-14 -2.65819e-14 0 0 0 0)
(5.42101e-14 2.67942e-16 0 0 -3.01793e-14 0 0 0 0)
(0 -4.73323e-15 0 2.71051e-14 -1.72163e-14 0 0 0 0)
(0 -5.23244e-15 0 5.42101e-14 -5.00298e-15 0 0 0 0)
(0 -8.08174e-15 0 5.42101e-14 6.09363e-15 0 0 0 0)
(0 -1.57968e-14 0 5.42101e-14 1.59657e-14 0 0 0 0)
(-5.42101e-14 -7.68157e-15 0 2.71051e-14 2.09474e-14 0 0 0 0)
(0 1.01729e-14 0 0 1.92302e-14 0 0 0 0)
(-2.71051e-14 2.26524e-14 0 0 8.59509e-15 0 0 0 0)
(-5.42101e-14 1.91738e-14 0 0 -1.06517e-14 0 0 0 0)
(8.13152e-14 -7.41078e-15 0 -5.42101e-14 -3.15758e-14 0 0 0 0)
(8.13152e-14 -2.75212e-14 0 5.42101e-14 -1.72742e-14 0 0 0 0)
(-2.71051e-14 -1.01415e-15 0 2.71051e-14 1.33125e-15 0 0 0 0)
(0 1.49018e-14 0 0 -2.64174e-16 0 0 0 0)
(0 5.00893e-15 0 0 1.33089e-15 0 0 0 0)
(0 -1.08703e-15 0 0 -2.68996e-15 0 0 0 0)
(-1.40946e-12 5.00988e-13 0 -8.94467e-13 5.07321e-13 0 0 0 0)
(1.51788e-12 -6.01202e-13 0 2.98156e-13 -9.67845e-14 0 0 0 0)
(-1.89735e-13 8.28912e-14 0 2.71051e-14 -1.95665e-14 0 0 0 0)
(1.6263e-13 -1.29868e-14 0 1.0842e-13 -1.61616e-14 0 0 0 0)
(-2.71051e-14 -7.50913e-15 0 2.71051e-14 -7.27106e-15 0 0 0 0)
(0 -3.26897e-15 0 2.71051e-14 -1.49853e-14 0 0 0 0)
(0 1.11544e-14 0 2.71051e-14 -2.11126e-14 0 0 0 0)
(0 1.5229e-14 0 0 -3.57788e-15 0 0 0 0)
(0 1.07486e-14 0 0 9.18549e-15 0 0 0 0)
(0 4.82287e-15 0 0 1.4906e-14 0 0 0 0)
(0 3.29521e-15 0 0 2.59357e-14 0 0 0 0)
(-2.71051e-14 3.55317e-15 0 0 2.84932e-14 0 0 0 0)
(0 -5.57708e-15 0 5.42101e-14 2.15811e-14 0 0 0 0)
(0 -1.80727e-14 0 5.42101e-14 -2.03164e-15 0 0 0 0)
(2.71051e-14 -3.89079e-15 0 5.42101e-14 -2.29478e-14 0 0 0 0)
(0 1.58006e-14 0 -2.71051e-14 -4.61518e-15 0 0 0 0)
(-5.42101e-14 1.10938e-14 0 -2.71051e-14 1.55604e-14 0 0 0 0)
(0 -1.60356e-16 0 0 3.96597e-15 0 0 0 0)
(0 -5.16834e-15 0 0 3.09512e-16 0 0 0 0)
(0 -1.7405e-15 0 0 -2.32674e-15 0 0 0 0)
(1.16552e-12 -1.40785e-13 0 9.48677e-13 3.53535e-13 0 0 0 0)
(-1.21973e-12 1.19496e-13 0 -2.1684e-13 -1.29462e-13 0 0 0 0)
(2.43945e-13 -1.88807e-14 0 2.71051e-14 3.57883e-14 0 0 0 0)
(-1.6263e-13 2.75265e-14 0 -1.0842e-13 4.90736e-16 0 0 0 0)
(2.71051e-14 -3.23167e-15 0 -5.42101e-14 1.20265e-14 0 0 0 0)
(-2.71051e-14 -1.35736e-14 0 -2.71051e-14 1.54952e-14 0 0 0 0)
(0 6.67423e-15 0 -1.0842e-13 9.04821e-15 0 0 0 0)
(0 2.50656e-14 0 -1.0842e-13 8.03694e-15 0 0 0 0)
(0 1.04021e-14 0 -1.0842e-13 1.17676e-14 0 0 0 0)
(0 9.53376e-16 0 -1.0842e-13 1.27011e-14 0 0 0 0)
(-2.71051e-14 5.90569e-15 0 -8.13152e-14 7.39445e-15 0 0 0 0)
(-5.42101e-14 5.81831e-15 0 -5.42101e-14 -7.0207e-15 0 0 0 0)
(0 -7.87248e-15 0 0 -1.44214e-14 0 0 0 0)
(0 -2.53551e-14 0 0 -5.72084e-15 0 0 0 0)
(0 -9.99432e-15 0 5.42101e-14 1.39056e-14 0 0 0 0)
(0 1.09869e-14 0 0 1.44061e-15 0 0 0 0)
(0 7.567e-15 0 0 -8.34029e-15 0 0 0 0)
(5.42101e-14 -3.49107e-16 0 0 -1.63083e-14 0 0 0 0)
(2.71051e-14 -1.28379e-15 0 0 -6.80223e-15 0 0 0 0)
(-2.71051e-14 9.30199e-16 0 0 -6.16282e-16 0 0 0 0)
(-7.04731e-13 7.25061e-13 0 -7.86047e-13 -2.4091e-12 0 0 0 0)
(7.04731e-13 -9.18948e-13 0 1.89735e-13 4.73753e-13 0 0 0 0)
(-1.35525e-13 2.12844e-13 0 -2.71051e-14 -9.62436e-14 0 0 0 0)
(8.13152e-14 -3.67485e-14 0 5.42101e-14 1.92759e-14 0 0 0 0)
(0 7.49538e-15 0 5.42101e-14 -5.64593e-15 0 0 0 0)
(-2.71051e-14 -6.24727e-15 0 2.71051e-14 9.4417e-15 0 0 0 0)
(0 3.69609e-15 0 5.42101e-14 1.00115e-14 0 0 0 0)
(-5.42101e-14 1.79484e-14 0 5.42101e-14 -2.70833e-15 0 0 0 0)
(5.42101e-14 1.54128e-14 0 0 -1.41711e-14 0 0 0 0)
(0 4.49745e-16 0 5.42101e-14 -8.40677e-15 0 0 0 0)
(0 -1.64266e-14 0 8.13152e-14 -1.6815e-14 0 0 0 0)
(8.13152e-14 -1.82626e-14 0 5.42101e-14 -2.63916e-14 0 0 0 0)
(2.71051e-14 -4.27722e-15 0 5.42101e-14 -3.03815e-14 0 0 0 0)
(2.71051e-14 1.02542e-14 0 0 -9.91156e-15 0 0 0 0)
(2.71051e-14 3.27066e-15 0 -2.71051e-14 2.13646e-14 0 0 0 0)
(-2.71051e-14 -6.44531e-15 0 2.71051e-14 1.14885e-14 0 0 0 0)
(-2.71051e-14 -6.65509e-15 0 0 4.32537e-15 0 0 0 0)
(-2.71051e-14 1.3777e-15 0 0 -5.0566e-15 0 0 0 0)
(0 1.05237e-14 0 0 7.88882e-16 0 0 0 0)
(0 5.67802e-15 0 0 -1.0922e-15 0 0 0 0)
(5.42101e-13 -2.07613e-12 0 1.89735e-13 1.6081e-12 0 0 0 0)
(-4.60786e-13 2.43235e-12 0 -5.42101e-14 -2.57032e-13 0 0 0 0)
(8.13152e-14 -4.73358e-13 0 -2.71051e-14 9.46993e-14 0 0 0 0)
(-8.13152e-14 1.18124e-13 0 0 3.48255e-15 0 0 0 0)
(0 -1.30658e-14 0 -5.42101e-14 1.33235e-14 0 0 0 0)
(0 2.08387e-15 0 -2.71051e-14 9.053e-15 0 0 0 0)
(0 -5.4758e-15 0 0 1.74869e-14 0 0 0 0)
(-2.71051e-14 8.83013e-16 0 0 1.08327e-14 0 0 0 0)
(2.71051e-14 4.70368e-15 0 5.42101e-14 -1.34442e-15 0 0 0 0)
(0 -1.69055e-15 0 0 -9.28379e-15 0 0 0 0)
(0 -1.20791e-14 0 -2.71051e-14 -1.03615e-16 0 0 0 0)
(-2.71051e-14 -7.74812e-15 0 0 1.92219e-14 0 0 0 0)
(-5.42101e-14 8.60754e-15 0 -5.42101e-14 2.59071e-14 0 0 0 0)
(-5.42101e-14 2.6391e-14 0 0 1.48916e-14 0 0 0 0)
(5.42101e-14 1.14057e-14 0 -2.71051e-14 -1.0738e-14 0 0 0 0)
(0 -6.05227e-15 0 -5.42101e-14 2.15218e-16 0 0 0 0)
(0 -8.97809e-15 0 0 1.75955e-15 0 0 0 0)
(0 -3.8856e-15 0 0 1.58484e-14 0 0 0 0)
(0 2.68061e-15 0 0 4.26745e-15 0 0 0 0)
(0 1.23352e-15 0 0 2.64409e-15 0 0 0 0)
)
;

boundaryField
{
    movingWall
    {
        type            extrapolatedCalculated;
        value           nonuniform List<tensor> 
20
(
(5.42101e-13 -2.07613e-12 0 -2.35367e-12 1.0241e-11 0 0 0 0)
(-4.60786e-13 2.43235e-12 0 8.88178e-14 -1.9365e-12 0 0 0 0)
(8.13152e-14 -4.73358e-13 0 -4.44089e-13 5.11621e-13 0 0 0 0)
(-8.13152e-14 1.18124e-13 0 -1.33227e-13 -4.30699e-14 0 0 0 0)
(0 -1.30658e-14 0 -2.22045e-13 3.9124e-14 0 0 0 0)
(0 2.08387e-15 0 -1.77636e-13 9.19343e-15 0 0 0 0)
(0 -5.4758e-15 0 -1.33227e-13 3.07885e-14 0 0 0 0)
(-2.71051e-14 8.83013e-16 0 -1.77636e-13 3.10966e-14 0 0 0 0)
(2.71051e-14 4.70368e-15 0 -1.33227e-13 2.72565e-14 0 0 0 0)
(0 -1.69055e-15 0 -1.77636e-13 1.22819e-14 0 0 0 0)
(0 -1.20791e-14 0 -2.22045e-13 3.40187e-14 0 0 0 0)
(-2.71051e-14 -7.74812e-15 0 -8.88178e-14 6.05984e-14 0 0 0 0)
(-5.42101e-14 8.60754e-15 0 -8.88178e-14 6.50112e-14 0 0 0 0)
(-5.42101e-14 2.6391e-14 0 8.88178e-14 2.61682e-14 0 0 0 0)
(5.42101e-14 1.14057e-14 0 8.88178e-14 -4.05526e-14 0 0 0 0)
(0 -6.05227e-15 0 -4.44089e-14 -1.94547e-14 0 0 0 0)
(0 -8.97809e-15 0 8.88178e-14 -1.63435e-14 0 0 0 0)
(0 -3.8856e-15 0 0 1.64576e-14 0 0 0 0)
(0 2.68061e-15 0 0 -8.0113e-16 0 0 0 0)
(0 1.23352e-15 0 0 5.73521e-15 0 0 0 0)
)
;
    }
    fixedWalls
    {
        type            extrapolatedCalculated;
        value           nonuniform List<tensor> 
60
(
(-7.10543e-13 9.50489e-12 0 6.77626e-13 6.28359e-12 0 0 0 0)
(3.41949e-12 1.56294e-11 0 -2.6834e-12 -8.19218e-12 0 0 0 0)
(-1.13687e-11 -2.32638e-11 0 3.30682e-12 -7.9747e-13 0 0 0 0)
(1.65201e-11 1.24396e-11 0 -1.65341e-12 5.02546e-12 0 0 0 0)
(-1.79412e-11 -3.162e-12 0 6.77626e-13 -3.45601e-12 0 0 0 0)
(1.92291e-11 -1.38449e-12 0 -3.79471e-13 1.48307e-12 0 0 0 0)
(-1.94511e-11 2.77027e-12 0 -8.13152e-14 -2.60503e-13 0 0 0 0)
(1.89182e-11 -2.4265e-12 0 6.23416e-13 1.52515e-13 0 0 0 0)
(-1.69642e-11 3.38033e-12 0 -4.60786e-13 -9.10876e-14 0 0 0 0)
(1.70974e-11 -2.79085e-12 0 5.14996e-13 8.00389e-14 0 0 0 0)
(-1.50102e-11 3.70049e-12 0 -4.60786e-13 -4.34694e-14 0 0 0 0)
(1.53655e-11 -2.96473e-12 0 7.58942e-13 -2.47021e-13 0 0 0 0)
(-1.19904e-11 2.71241e-12 0 -1.0571e-12 4.53414e-13 0 0 0 0)
(1.11022e-11 -1.15107e-12 0 6.23416e-13 -1.8196e-13 0 0 0 0)
(-9.50351e-12 1.98457e-12 0 -5.42101e-13 -3.7071e-13 0 0 0 0)
(9.05942e-12 -2.63392e-12 0 6.77626e-13 1.02478e-13 0 0 0 0)
(-6.83897e-12 2.39448e-12 0 -8.94467e-13 5.07321e-13 0 0 0 0)
(5.50671e-12 -6.04631e-13 0 9.48677e-13 3.53535e-13 0 0 0 0)
(-3.10862e-12 3.80862e-12 0 -7.86047e-13 -2.4091e-12 0 0 0 0)
(2.35367e-12 -1.0241e-11 0 1.89735e-13 1.6081e-12 0 0 0 0)
(8.88178e-14 1.66011e-14 0 0 -1.249e-14 0 0 0 0)
(-4.44089e-14 3.33587e-14 0 0 -4.29984e-15 0 0 0 0)
(0 3.38005e-14 0 2.71051e-14 1.23036e-15 0 0 0 0)
(-8.88178e-14 2.84373e-14 0 0 6.20883e-15 0 0 0 0)
(0 8.96513e-15 0 -2.71051e-14 9.96903e-15 0 0 0 0)
(0 -1.14388e-14 0 0 4.27783e-15 0 0 0 0)
(0 -8.1462e-15 0 0 -5.37632e-15 0 0 0 0)
(0 1.00664e-14 0 0 -9.52649e-16 0 0 0 0)
(0 -4.3356e-15 0 0 1.18237e-14 0 0 0 0)
(0 -3.72285e-14 0 0 3.29696e-15 0 0 0 0)
(-4.44089e-14 -1.75235e-14 0 2.71051e-14 -5.14076e-15 0 0 0 0)
(-4.44089e-14 -1.66655e-14 0 -2.71051e-14 -4.32985e-15 0 0 0 0)
(8.88178e-14 -2.04081e-16 0 0 -9.72999e-15 0 0 0 0)
(-4.44089e-14 2.22545e-14 0 2.71051e-14 2.04493e-15 0 0 0 0)
(0 -8.38382e-15 0 -2.71051e-14 7.54877e-15 0 0 0 0)
(0 -7.94058e-15 0 0 -2.68996e-15 0 0 0 0)
(0 2.37603e-15 0 0 -2.32674e-15 0 0 0 0)
(-4.44089e-14 1.3664e-15 0 0 -6.16282e-16 0 0 0 0)
(0 4.84116e-15 0 0 -1.0922e-15 0 0 0 0)
(0 5.73521e-15 0 0 2.64409e-15 0 0 0 0)
(-5.42101e-14 1.956e-12 0 -7.10543e-13 9.50489e-12 0 0 0 0)
(2.98156e-13 -2.2463e-12 0 5.77316e-13 -1.68091e-12 0 0 0 0)
(-8.13152e-14 4.13724e-13 0 3.9968e-13 5.19692e-13 0 0 0 0)
(-5.42101e-14 -1.1552e-13 0 2.22045e-13 -2.60157e-14 0 0 0 0)
(-2.71051e-14 2.0895e-14 0 2.22045e-13 5.76114e-14 0 0 0 0)
(-2.71051e-14 2.81819e-16 0 1.77636e-13 5.75645e-14 0 0 0 0)
(-5.42101e-14 2.62411e-15 0 8.88178e-14 5.87387e-14 0 0 0 0)
(-5.42101e-14 1.34752e-15 0 -8.88178e-14 6.80609e-14 0 0 0 0)
(0 -8.79712e-15 0 -8.88178e-14 6.41287e-14 0 0 0 0)
(0 -1.699e-14 0 -8.88178e-14 3.28724e-14 0 0 0 0)
(-2.71051e-14 -1.91792e-14 0 -1.77636e-13 -3.83144e-15 0 0 0 0)
(0 -1.10613e-14 0 -8.88178e-14 -4.38444e-14 0 0 0 0)
(0 -1.15745e-15 0 -1.77636e-13 -4.80768e-14 0 0 0 0)
(2.71051e-14 5.27624e-15 0 -1.77636e-13 -4.84742e-14 0 0 0 0)
(5.42101e-14 1.71007e-14 0 0 -2.69718e-14 0 0 0 0)
(0 1.33664e-14 0 4.44089e-14 1.99287e-14 0 0 0 0)
(-5.42101e-14 -3.58632e-15 0 -8.88178e-14 2.64936e-14 0 0 0 0)
(5.42101e-14 -2.60528e-15 0 0 5.58339e-15 0 0 0 0)
(-5.42101e-14 -5.54612e-15 0 -8.88178e-14 1.60725e-14 0 0 0 0)
(5.42101e-14 1.32149e-16 0 -8.88178e-14 -1.66011e-14 0 0 0 0)
)
;
    }
    frontAndBack
    {
        type            empty;
    }
}


// ************************************************************************* //
