/*--------------------------------*- C++ -*----------------------------------*\
| =========                 |                                                 |
| \\      /  F ield         | OpenFOAM: The Open Source CFD Toolbox           |
|  \\    /   O peration     | Version:  2506                                  |
|   \\  /    A nd           | Website:  www.openfoam.com                      |
|    \\/     M anipulation  |                                                 |
\*---------------------------------------------------------------------------*/
FoamFile
{
    version     2.0;
    format      ascii;
    arch        "LSB;label=32;scalar=64";
    class       volScalarField;
    location    "5.125";
    object      Lambda2Field;
}
// * * * * * * * * * * * * * * * * * * * * * * * * * * * * * * * * * * * * * //

dimensions      [0 0 -2 0 0 0 0];

internalField   nonuniform List<scalar> 
400
(
1.32837e-24
4.54213e-25
2.90402e-26
-1.92444e-28
1.78726e-27
7.34684e-28
1.09169e-27
7.88936e-28
0
9.21032e-28
1.04112e-27
0
6.27453e-29
0
0
0
2.37656e-28
3.51761e-29
3.0146e-28
1.55999e-28
0
0
-9.02775e-26
0
-4.539e-27
-3.44117e-28
1.20317e-28
0
3.98464e-29
-4.64135e-28
0
0
8.76167e-29
0
0
2.55527e-28
-2.35999e-28
0
7.48984e-29
0
-1.05846e-23
0
-1.41452e-25
0
-2.41749e-27
1.56404e-27
1.55774e-28
0
1.36578e-28
2.70336e-28
3.93934e-29
2.37219e-29
4.20595e-30
-1.6974e-27
-8.94259e-28
1.46373e-28
4.82638e-28
3.15176e-28
0
4.28946e-28
6.67454e-24
0
0
0
1.36734e-27
0
5.49004e-28
6.33576e-28
7.34684e-28
0
-3.14886e-29
-3.42523e-28
0
0
-1.79708e-28
2.16788e-28
0
-2.23189e-28
5.03271e-28
3.85496e-29
1.15264e-23
3.64414e-25
1.97745e-26
0
0
-7.00063e-27
-5.20667e-27
-3.01854e-27
2.31909e-28
2.17573e-28
0
0
-5.33466e-28
3.87475e-28
4.82165e-28
2.10362e-28
-1.01875e-28
-5.58306e-28
0
0
2.31635e-24
1.24408e-25
8.85902e-27
0
6.59617e-28
-4.83171e-28
0
3.48169e-30
1.47075e-27
2.82091e-28
2.16142e-30
2.43505e-28
3.59475e-29
3.93097e-28
5.51707e-28
0
0
9.70455e-29
-2.08655e-28
0
2.50085e-26
0
0
0
8.78696e-29
-1.56941e-28
0
5.26452e-28
-1.94032e-28
-2.24839e-27
2.26117e-28
2.08089e-29
-5.49386e-28
-1.2254e-27
0
0
-1.07017e-27
6.4458e-29
0
0
0
0
0
1.16412e-27
6.02439e-28
1.57332e-28
3.44132e-28
8.5447e-28
1.86523e-28
6.98864e-28
7.94575e-28
0
2.85828e-28
4.5585e-28
2.46607e-28
0
3.71975e-28
5.24609e-30
0
0
0
0
1.01689e-31
0
6.35525e-29
1.94074e-30
2.23141e-28
0
-2.07811e-27
-8.39239e-28
7.04994e-28
4.0787e-28
0
2.64714e-28
0
0
0
0
2.30806e-28
1.39801e-28
0
0
0
0
1.18201e-28
1.4167e-28
8.04682e-28
0
0
2.7958e-28
9.74375e-28
8.68853e-28
8.44254e-28
2.97709e-28
0
9.77462e-29
0
-2.18446e-28
0
0
0
0
0
4.79073e-29
2.69179e-29
1.61869e-28
9.4026e-28
0
-2.95251e-27
-2.28214e-27
-2.88939e-27
0
1.33174e-27
-2.11385e-27
-1.4928e-27
1.28752e-28
2.92501e-28
1.63237e-28
4.68084e-28
-1.15606e-28
0
0
0
0
3.24385e-28
2.14693e-27
1.33984e-27
8.64567e-28
0
-1.83647e-27
-5.26922e-28
8.94533e-28
1.66508e-27
6.55338e-28
3.19438e-28
-8.19333e-28
0
0
0
3.78945e-28
0
0
0
0
2.99397e-29
0
-6.66468e-28
-1.89019e-27
-1.1604e-27
-2.78786e-28
6.52954e-28
4.01026e-28
1.71131e-27
0
1.29372e-28
4.82614e-28
0
0
0
9.46728e-29
0
1.46416e-26
0
5.52629e-28
0
-1.13133e-27
0
1.6784e-28
1.78446e-28
3.70541e-28
0
-7.05863e-28
-3.64209e-28
8.68068e-29
4.35952e-28
1.3737e-28
0
6.5872e-30
0
3.45959e-28
0
2.8397e-27
0
1.6256e-27
0
1.09461e-27
3.80066e-28
2.19035e-28
2.77013e-28
5.43775e-28
0
-1.27551e-28
-1.90045e-27
-2.234e-27
9.17232e-29
7.44845e-30
6.5304e-28
4.33682e-30
7.43369e-29
8.40138e-29
0
0
0
2.78561e-28
5.87121e-28
9.10792e-28
0
-2.58622e-28
-4.0098e-28
-6.01446e-28
2.30583e-28
0
7.38757e-29
1.13458e-28
1.39877e-27
0
0
0
0
0
0
0
2.62962e-27
0
0
0
3.02341e-28
0
0
0
0
7.34684e-28
0
-9.75596e-28
3.1568e-28
-4.06975e-28
0
0
0
0
0
0
7.69038e-28
0
3.19826e-28
6.08015e-28
-6.41751e-28
-2.65302e-27
-9.89325e-28
0
0
0
0
0
-3.48428e-28
0
0
2.65961e-28
4.62704e-29
3.79804e-31
0
5.00848e-26
3.4937e-27
0
4.06325e-28
0
2.00365e-28
9.80317e-28
2.0082e-28
2.43807e-29
-1.05299e-27
0
5.02815e-28
9.82391e-29
3.67793e-28
0
1.87088e-29
2.55692e-29
0
0
0
0
1.94425e-26
1.21282e-29
7.083e-28
0
0
1.17348e-28
2.56795e-28
0
3.27405e-28
3.69483e-28
2.04565e-28
2.2176e-28
0
3.28094e-28
0
0
0
0
)
;

boundaryField
{
    movingWall
    {
        type            calculated;
        value           nonuniform List<scalar> 
20
(
5.18041e-24
4.2836e-25
2.16825e-25
-9.12516e-27
2.9012e-27
-2.8565e-28
7.29523e-28
5.77829e-28
1.08027e-28
3.00303e-28
2.6821e-27
1.42286e-27
2.17423e-27
3.02876e-27
2.65755e-27
2.68775e-28
-5.30304e-28
0
0
0
)
;
    }
    fixedWalls
    {
        type            calculated;
        value           nonuniform List<scalar> 
60
(
6.94564e-24
0
0
4.68752e-24
9.80138e-24
2.72487e-24
0
0
0
0
0
0
0
0
0
0
0
0
2.81001e-24
6.42907e-25
1.55999e-28
1.84886e-29
9.16164e-28
3.85496e-29
-1.43619e-28
0
0
0
0
0
0
4.70466e-28
9.46728e-29
6.07391e-28
2.27244e-28
0
0
3.79804e-31
0
0
0
0
1.71969e-25
-2.27119e-26
5.37432e-27
7.84745e-28
3.1718e-27
2.81905e-27
7.81342e-28
1.50902e-27
3.42159e-27
9.82444e-28
2.05604e-28
0
7.27479e-28
5.93586e-28
1.02044e-27
3.11743e-29
7.5092e-28
2.63859e-28
)
;
    }
    frontAndBack
    {
        type            empty;
    }
}


// ************************************************************************* //
