/*--------------------------------*- C++ -*----------------------------------*\
| =========                 |                                                 |
| \\      /  F ield         | OpenFOAM: The Open Source CFD Toolbox           |
|  \\    /   O peration     | Version:  2506                                  |
|   \\  /    A nd           | Website:  www.openfoam.com                      |
|    \\/     M anipulation  |                                                 |
\*---------------------------------------------------------------------------*/
FoamFile
{
    version     2.0;
    format      ascii;
    arch        "LSB;label=32;scalar=64";
    class       volScalarField;
    location    "5.125";
    object      QField;
}
// * * * * * * * * * * * * * * * * * * * * * * * * * * * * * * * * * * * * * //

dimensions      [0 0 -2 0 0 0 0];

internalField   nonuniform List<scalar> 
400
(
-1.66607e-24
-7.03486e-25
-4.65548e-26
4.76541e-27
-1.82618e-27
-9.31058e-28
-1.79114e-27
-1.51854e-27
0
-9.21032e-28
-1.07193e-27
0
-6.27453e-29
-1.19169e-28
2.32148e-28
0
-5.50892e-28
-3.21517e-28
-2.52053e-28
-6.77082e-28
3.68404e-24
1.68253e-25
1.25221e-25
0
4.72725e-27
3.88959e-28
-2.97312e-28
0
-6.58797e-28
4.80563e-28
3.416e-28
0
-1.48352e-27
-9.76442e-29
0
-4.3328e-28
4.76137e-28
0
-5.62723e-28
0
1.75843e-23
3.21235e-24
4.27263e-25
8.50757e-27
6.1931e-27
-2.2518e-27
-2.10559e-28
3.81305e-28
-1.36578e-28
-4.33495e-28
-1.70123e-28
-2.64031e-28
-1.11176e-28
1.7112e-27
9.61168e-28
-6.69872e-28
-4.82638e-28
-4.81201e-28
-1.10795e-28
-4.28946e-28
2.0564e-23
4.2369e-24
1.99063e-25
3.66189e-26
-5.0114e-27
1.24284e-28
-5.49004e-28
-1.36452e-27
-7.37022e-28
8.67647e-29
1.80198e-28
3.9118e-28
4.29969e-28
3.5635e-28
1.82293e-28
-3.99087e-28
4.31972e-30
3.17232e-28
-3.31972e-28
-1.68291e-28
1.29702e-23
2.91381e-24
1.06724e-25
1.69759e-26
1.51048e-27
7.85419e-27
5.59565e-27
3.03612e-27
-2.31909e-28
-2.17573e-28
0
0
5.49842e-28
-3.87475e-28
-5.35423e-28
-2.59982e-28
3.15255e-28
7.91337e-28
-1.48008e-28
-1.52892e-28
5.59135e-24
1.51028e-24
6.66735e-26
-2.28976e-27
9.16849e-28
4.83444e-28
5.43763e-28
-3.48169e-30
-3.11846e-27
-8.81331e-28
-2.16142e-30
-4.19899e-28
-3.59475e-29
-5.37403e-28
-1.27003e-27
0
0
-5.34033e-28
2.08672e-28
0
1.07375e-24
3.44177e-25
2.39211e-26
-4.25661e-27
1.86341e-28
2.09455e-28
-8.71454e-30
-1.49948e-27
8.25666e-28
2.25103e-27
-1.98883e-28
-6.79761e-29
1.25375e-27
1.27402e-27
0
0
1.21041e-27
-2.17615e-28
0
0
8.90084e-25
1.26373e-25
3.63206e-26
-2.12552e-27
-4.8805e-28
-6.79969e-28
-4.72742e-28
-1.58463e-27
-3.88186e-28
-1.43181e-27
-1.52342e-27
0
2.8328e-28
-1.06567e-27
-4.2565e-28
0
-1.04553e-27
-5.24609e-30
1.54668e-28
0
6.19017e-25
2.68953e-25
-2.33373e-28
8.18416e-27
-8.64324e-28
7.55203e-29
-2.64416e-28
5.17285e-28
2.59036e-27
8.61438e-28
-7.27515e-28
-4.0787e-28
0
-3.69209e-28
3.58593e-28
0
0
0
-3.89449e-28
-3.20483e-28
5.63485e-25
2.16004e-25
3.22829e-27
-1.04478e-27
2.94686e-28
-1.4167e-28
-8.44078e-28
4.45337e-29
0
-2.7958e-28
-1.15019e-27
-1.19261e-27
-1.56735e-27
-4.40938e-28
0
-2.67979e-28
0
3.42904e-28
-2.26004e-28
0
4.6516e-25
1.36106e-25
-7.60616e-27
2.06369e-27
-5.62511e-28
-3.44852e-28
-1.5872e-27
-7.93888e-28
3.09648e-27
2.72632e-27
2.92021e-27
4.74102e-28
-1.48576e-27
2.58782e-27
1.54683e-27
-1.28752e-28
-4.65854e-28
-3.21327e-28
-4.68084e-28
1.42033e-28
-3.26033e-25
-2.61667e-25
6.27733e-27
-4.94397e-27
1.95272e-27
-2.85423e-27
-2.97645e-27
-3.04363e-27
4.96686e-28
2.15951e-27
2.11411e-27
-1.14686e-27
-3.31524e-27
-1.13273e-27
-4.49492e-28
8.33099e-28
9.03399e-29
0
0
-2.42837e-28
-5.1569e-25
-1.49058e-25
1.5244e-26
-1.06489e-27
4.44934e-28
0
1.51225e-27
2.23656e-27
1.41607e-27
3.36542e-28
-6.52954e-28
7.01385e-29
-1.80936e-27
3.67384e-28
3.08297e-28
-6.39886e-28
0
0
0
-5.27464e-28
-2.68474e-25
4.32514e-26
8.22598e-28
2.88881e-28
6.94894e-28
1.16469e-27
0
-1.6784e-28
-1.78446e-28
-2.23673e-28
1.2051e-28
7.05888e-28
4.34297e-28
-8.68068e-29
-4.35952e-28
-3.17685e-28
0
-6.95666e-29
2.25333e-28
-3.97205e-28
9.04143e-25
1.16996e-25
5.76348e-27
-6.3653e-29
-2.35335e-28
-1.78218e-27
-3.80066e-28
-2.19035e-28
-2.77013e-28
-5.43775e-28
8.30192e-31
3.75963e-28
2.57858e-27
2.39589e-27
-6.91402e-28
1.47949e-28
-1.38532e-27
-4.33682e-30
-7.43369e-29
-8.40138e-29
5.54139e-25
1.19845e-25
-5.23583e-27
2.71432e-27
-2.04203e-27
-1.63603e-27
1.28294e-28
2.83651e-28
4.38112e-28
8.56348e-28
-9.27349e-28
0
-2.32971e-28
5.77428e-28
-2.96933e-27
8.72739e-29
-8.59507e-30
0
0
0
-2.66934e-25
3.23441e-26
1.46569e-27
-1.22033e-27
4.00618e-28
8.86057e-29
-3.02341e-28
0
0
0
0
-7.72311e-28
3.02334e-28
9.79724e-28
-4.1108e-28
4.28275e-28
-5.42832e-28
0
0
0
5.45611e-25
1.83819e-25
9.24215e-27
2.90463e-27
1.5079e-28
-7.87911e-28
7.23621e-28
2.71762e-27
1.1278e-27
1.03365e-28
2.79795e-28
6.96004e-28
0
0
5.41793e-28
0
0
-8.84075e-28
-1.84375e-28
1.67044e-29
2.2677e-24
5.08226e-25
1.88126e-26
3.55956e-27
-4.06325e-28
-8.65851e-29
-2.00365e-28
-8.26163e-28
-7.68216e-28
-2.43807e-29
1.33573e-27
-1.15602e-27
-5.91622e-28
-2.68653e-28
6.67739e-28
-1.36696e-28
-1.17239e-28
1.37059e-28
0
0
1.26567e-24
2.50295e-25
-5.1299e-27
-2.83184e-28
-7.083e-28
5.64834e-29
0
-2.93621e-28
-2.91428e-28
0
-3.27405e-28
-5.21011e-28
-9.37813e-28
-8.07276e-28
-2.72957e-28
-3.28094e-28
0
0
0
0
)
;

boundaryField
{
    movingWall
    {
        type            calculated;
        value           nonuniform List<scalar> 
20
(
6.65137e-25
6.76276e-25
-1.6861e-25
1.92395e-26
-2.9012e-27
3.70169e-28
-7.29523e-28
-6.86021e-28
1.36545e-27
-3.00303e-28
-2.6821e-27
-2.33069e-27
-2.75976e-27
-3.76257e-27
-3.21139e-27
-2.68775e-28
7.97414e-28
0
0
0
)
;
    }
    fixedWalls
    {
        type            calculated;
        value           nonuniform List<scalar> 
60
(
-1.09055e-23
1.3927e-23
8.59954e-23
1.03589e-22
6.41477e-23
2.79927e-23
5.29234e-24
4.39804e-24
3.10284e-24
2.80574e-24
2.35762e-24
-1.54554e-24
-2.56935e-24
-1.30256e-24
4.59888e-24
2.7132e-24
-1.32778e-24
2.52041e-24
1.04827e-23
5.72803e-24
-1.10933e-27
1.90951e-28
-9.16164e-28
-5.51455e-28
2.43e-28
0
0
0
0
0
7.0327e-28
-2.59435e-28
-8.64197e-28
-6.94023e-28
-2.27244e-28
0
0
2.73684e-29
0
0
8.74557e-25
7.95652e-25
-2.07616e-25
2.70609e-26
-6.20119e-27
-1.61035e-27
-3.4173e-27
-3.56991e-27
-7.81342e-28
-1.50902e-27
-3.30306e-27
-9.82444e-28
-2.05604e-28
-3.76648e-28
-1.46215e-27
-5.93586e-28
-1.75475e-27
3.02676e-28
-1.36389e-27
-8.8821e-28
)
;
    }
    frontAndBack
    {
        type            empty;
    }
}


// ************************************************************************* //
