/*--------------------------------*- C++ -*----------------------------------*\
| =========                 |                                                 |
| \\      /  F ield         | OpenFOAM: The Open Source CFD Toolbox           |
|  \\    /   O peration     | Version:  2506                                  |
|   \\  /    A nd           | Website:  www.openfoam.com                      |
|    \\/     M anipulation  |                                                 |
\*---------------------------------------------------------------------------*/
FoamFile
{
    version     2.0;
    format      ascii;
    arch        "LSB;label=32;scalar=64";
    class       volVectorField;
    location    "5.125";
    object      UNear;
}
// * * * * * * * * * * * * * * * * * * * * * * * * * * * * * * * * * * * * * //

dimensions      [0 1 -1 0 0 0 0];

internalField   nonuniform List<vector> 
400
(
(-1 2.37622e-14 0)
(-1 -4.20228e-15 0)
(-1 1.29923e-15 0)
(-1 -6.50392e-17 0)
(-1 1.44028e-16 0)
(-1 1.43911e-16 0)
(-1 1.46847e-16 0)
(-1 1.70152e-16 0)
(-1 1.60322e-16 0)
(-1 8.21811e-17 0)
(-1 -9.57861e-18 0)
(-1 -1.09611e-16 0)
(-1 -1.20192e-16 0)
(-1 -1.21186e-16 0)
(-1 -6.74296e-17 0)
(-1 4.98216e-17 0)
(-1 6.62341e-17 0)
(-1 1.39585e-17 0)
(-1 4.01813e-17 0)
(-1 -4.15027e-17 0)
(-1 3.90736e-14 0)
(-1 -7.13976e-15 0)
(-1 1.66784e-15 0)
(-1 -2.36423e-16 0)
(-1 1.1181e-16 0)
(-1 1.99589e-16 0)
(-1 1.83561e-16 0)
(-1 1.23444e-16 0)
(-1 8.05658e-17 0)
(-1 3.95546e-17 0)
(-1 2.1467e-17 0)
(-1 1.46033e-17 0)
(-1 3.25796e-17 0)
(-1 -8.10674e-17 0)
(-1 -6.07539e-17 0)
(-1 1.45639e-17 0)
(-1 -4.75632e-19 0)
(-1 -7.32679e-17 0)
(-1 -4.91469e-17 0)
(-1 -8.33968e-17 0)
(-1 -5.81596e-14 0)
(-1 1.04746e-14 0)
(-1 -2.36493e-15 0)
(-1 4.72167e-16 0)
(-1 6.82435e-18 0)
(-1 7.69473e-17 0)
(-1 3.71578e-17 0)
(-1 -8.73821e-18 0)
(-1 -3.14921e-18 0)
(-1 4.165e-17 0)
(-1 6.65471e-17 0)
(-1 1.1812e-16 0)
(-1 1.26029e-16 0)
(-1 8.17232e-18 0)
(-1 -8.44116e-17 0)
(-1 -1.1003e-16 0)
(-1 -8.87297e-17 0)
(-1 -2.09994e-17 0)
(-1 -7.37518e-17 0)
(-1 -8.45012e-17 0)
(-1 3.10989e-14 0)
(-1 -6.41074e-15 0)
(-1 1.26803e-15 0)
(-1 -4.3702e-16 0)
(-1 -4.25665e-17 0)
(-1 -1.39962e-16 0)
(-1 -6.54928e-17 0)
(-1 6.25852e-17 0)
(-1 1.16242e-16 0)
(-1 1.2979e-16 0)
(-1 8.42311e-17 0)
(-1 6.33084e-17 0)
(-1 1.20712e-17 0)
(-1 -4.39106e-17 0)
(-1 -1.42552e-16 0)
(-1 -1.11165e-16 0)
(-1 -3.28822e-18 0)
(-1 1.04264e-16 0)
(-1 5.52308e-17 0)
(-1 -7.10932e-17 0)
(-1 -7.90501e-15 0)
(-1 1.74143e-15 0)
(-1 -7.51138e-16 0)
(-1 -2.79434e-16 0)
(-1 -3.62952e-16 0)
(-1 -1.95424e-16 0)
(-1 4.47376e-17 0)
(-1 2.42971e-16 0)
(-1 2.68764e-16 0)
(-1 2.21581e-16 0)
(-1 1.88493e-16 0)
(-1 1.87875e-16 0)
(-1 7.46178e-17 0)
(-1 -1.49808e-17 0)
(-1 -6.83352e-17 0)
(-1 3.72068e-17 0)
(-1 1.25105e-16 0)
(-1 7.59764e-17 0)
(-1 -2.08704e-17 0)
(-1 -2.24128e-17 0)
(-1 -3.46123e-15 0)
(-1 3.81656e-16 0)
(-1 -1.38193e-16 0)
(-1 -1.49723e-17 0)
(-1 -1.16309e-16 0)
(-1 -9.6102e-17 0)
(-1 6.20504e-17 0)
(-1 1.04511e-16 0)
(-1 6.07659e-17 0)
(-1 3.77984e-17 0)
(-1 4.49526e-17 0)
(-1 3.70009e-17 0)
(-1 5.2539e-17 0)
(-1 2.37387e-17 0)
(-1 1.07172e-16 0)
(-1 1.78192e-16 0)
(-1 1.42787e-16 0)
(-1 -4.83894e-17 0)
(-1 -9.77635e-17 0)
(-1 2.85971e-17 0)
(-1 6.92568e-15 0)
(-1 -1.65565e-15 0)
(-1 6.79403e-17 0)
(-1 -2.18739e-16 0)
(-1 -1.53258e-16 0)
(-1 -1.90201e-16 0)
(-1 -2.30534e-16 0)
(-1 -2.75725e-16 0)
(-1 -1.14739e-16 0)
(-1 6.6911e-17 0)
(-1 9.2881e-17 0)
(-1 2.53733e-17 0)
(-1 8.64927e-17 0)
(-1 1.83286e-16 0)
(-1 2.4317e-16 0)
(-1 2.00745e-16 0)
(-1 1.63541e-16 0)
(-1 -2.25353e-17 0)
(-1 -2.21901e-17 0)
(-1 2.03655e-17 0)
(-1 -6.06626e-15 0)
(-1 1.07229e-15 0)
(-1 -3.62084e-16 0)
(-1 -1.34413e-16 0)
(-1 -1.48738e-16 0)
(-1 -2.36354e-17 0)
(-1 -2.66889e-17 0)
(-1 -4.12941e-17 0)
(-1 2.27472e-17 0)
(-1 2.1565e-17 0)
(-1 3.52522e-17 0)
(-1 5.56914e-17 0)
(-1 4.13543e-17 0)
(-1 9.34655e-17 0)
(-1 7.86281e-17 0)
(-1 5.22488e-17 0)
(-1 2.43658e-17 0)
(-1 3.18963e-17 0)
(-1 2.63013e-17 0)
(-1 -2.51661e-17 0)
(-1 8.45083e-15 0)
(-1 -1.76808e-15 0)
(-1 3.83419e-16 0)
(-1 -1.9124e-16 0)
(-1 -1.39426e-16 0)
(-1 -6.47684e-17 0)
(-1 -2.08052e-17 0)
(-1 1.65885e-17 0)
(-1 -7.45613e-17 0)
(-1 -1.90959e-16 0)
(-1 -1.54015e-16 0)
(-1 -6.10463e-17 0)
(-1 -3.53731e-18 0)
(-1 2.39785e-17 0)
(-1 8.61325e-17 0)
(-1 5.21062e-17 0)
(-1 -2.93258e-17 0)
(-1 6.90231e-17 0)
(-1 1.03631e-16 0)
(-1 1.0839e-17 0)
(-1 -6.97713e-15 0)
(-1 1.42768e-15 0)
(-1 -3.58895e-16 0)
(-1 3.00646e-17 0)
(-1 -6.90177e-17 0)
(-1 -9.70436e-18 0)
(-1 -4.28841e-17 0)
(-1 -6.54741e-17 0)
(-1 -5.93142e-17 0)
(-1 -2.55501e-17 0)
(-1 4.38325e-17 0)
(-1 6.28803e-17 0)
(-1 9.33321e-17 0)
(-1 4.69211e-17 0)
(-1 2.58597e-18 0)
(-1 -3.00905e-17 0)
(-1 -1.47104e-17 0)
(-1 3.97234e-17 0)
(-1 1.11799e-16 0)
(-1 9.30713e-17 0)
(-1 9.25122e-15 0)
(-1 -2.04574e-15 0)
(-1 3.75768e-16 0)
(-1 -1.03493e-16 0)
(-1 -3.0706e-17 0)
(-1 -1.86333e-16 0)
(-1 -2.76445e-16 0)
(-1 -3.0174e-16 0)
(-1 -1.89103e-16 0)
(-1 -2.96729e-17 0)
(-1 1.819e-16 0)
(-1 3.29449e-16 0)
(-1 3.01548e-16 0)
(-1 9.59099e-17 0)
(-1 -4.87598e-17 0)
(-1 -4.67605e-17 0)
(-1 -2.50093e-17 0)
(-1 -4.25376e-17 0)
(-1 8.5924e-18 0)
(-1 4.38087e-17 0)
(-1 -7.41183e-15 0)
(-1 1.47401e-15 0)
(-1 -1.52442e-16 0)
(-1 9.92797e-17 0)
(-1 -1.71352e-17 0)
(-1 -1.36932e-16 0)
(-1 -2.20265e-16 0)
(-1 -3.08675e-16 0)
(-1 -2.7725e-16 0)
(-1 -1.32727e-16 0)
(-1 -1.1677e-17 0)
(-1 1.27263e-16 0)
(-1 1.74402e-16 0)
(-1 1.43107e-16 0)
(-1 7.60965e-17 0)
(-1 9.13408e-17 0)
(-1 1.52936e-16 0)
(-1 1.2467e-16 0)
(-1 9.12257e-17 0)
(-1 4.16637e-17 0)
(-1 6.78101e-15 0)
(-1 -8.47187e-16 0)
(-1 3.57704e-16 0)
(-1 5.76309e-17 0)
(-1 1.49401e-16 0)
(-1 1.3705e-16 0)
(-1 8.9593e-17 0)
(-1 -3.52614e-17 0)
(-1 -1.85455e-16 0)
(-1 -2.09407e-16 0)
(-1 -2.16495e-16 0)
(-1 -1.61228e-16 0)
(-1 -1.21999e-16 0)
(-1 -1.47359e-17 0)
(-1 1.35413e-17 0)
(-1 -9.65798e-18 0)
(-1 8.95068e-17 0)
(-1 7.40506e-17 0)
(-1 2.9899e-17 0)
(-1 5.10202e-19 0)
(-1 -2.87769e-15 0)
(-1 5.38679e-16 0)
(-1 -2.70371e-16 0)
(-1 -2.4987e-18 0)
(-1 -7.18524e-17 0)
(-1 -1.69956e-16 0)
(-1 -1.79276e-16 0)
(-1 -1.22565e-16 0)
(-1 -1.17354e-16 0)
(-1 -5.67302e-17 0)
(-1 1.14485e-17 0)
(-1 6.89028e-18 0)
(-1 -5.36582e-17 0)
(-1 -7.32234e-17 0)
(-1 -3.76452e-17 0)
(-1 7.19547e-18 0)
(-1 9.75476e-17 0)
(-1 7.6342e-18 0)
(-1 -7.04571e-17 0)
(-1 -5.56363e-17 0)
(-1 4.96141e-15 0)
(-1 -1.07242e-15 0)
(-1 2.54303e-16 0)
(-1 1.94938e-17 0)
(-1 1.10128e-16 0)
(-1 7.92945e-17 0)
(-1 -1.62169e-17 0)
(-1 -6.09251e-17 0)
(-1 -9.70265e-17 0)
(-1 -1.63125e-16 0)
(-1 -1.97335e-16 0)
(-1 -1.62819e-16 0)
(-1 -3.82809e-17 0)
(-1 8.02295e-17 0)
(-1 1.82701e-16 0)
(-1 1.07547e-16 0)
(-1 1.16361e-17 0)
(-1 4.8385e-17 0)
(-1 1.00361e-17 0)
(-1 2.09595e-17 0)
(-1 -6.58479e-15 0)
(-1 1.07157e-15 0)
(-1 -1.20951e-16 0)
(-1 7.65317e-17 0)
(-1 3.13598e-17 0)
(-1 3.24528e-17 0)
(-1 3.40392e-17 0)
(-1 -1.48795e-17 0)
(-1 -1.82852e-17 0)
(-1 -9.56969e-17 0)
(-1 -1.76253e-16 0)
(-1 -1.72513e-16 0)
(-1 -7.45242e-17 0)
(-1 5.40114e-17 0)
(-1 1.17214e-16 0)
(-1 -2.00964e-17 0)
(-1 -1.57999e-16 0)
(-1 -3.02379e-17 0)
(-1 -8.98112e-18 0)
(-1 1.98514e-17 0)
(-1 5.9862e-15 0)
(-1 -9.7632e-16 0)
(-1 -2.58225e-17 0)
(-1 -1.47408e-16 0)
(-1 -1.5569e-16 0)
(-1 -2.22499e-16 0)
(-1 -1.8838e-16 0)
(-1 -1.10955e-16 0)
(-1 -3.60902e-17 0)
(-1 -3.46843e-18 0)
(-1 1.21384e-17 0)
(-1 2.94837e-17 0)
(-1 4.76701e-17 0)
(-1 -2.62872e-17 0)
(-1 -1.33057e-16 0)
(-1 -6.51951e-17 0)
(-1 2.49486e-17 0)
(-1 4.57433e-17 0)
(-1 2.3345e-17 0)
(-1 -5.94007e-18 0)
(-1 -1.51158e-15 0)
(-1 1.03723e-16 0)
(-1 -3.16616e-16 0)
(-1 -8.50839e-17 0)
(-1 -4.13508e-17 0)
(-1 -1.17401e-16 0)
(-1 -1.77086e-16 0)
(-1 -5.06583e-17 0)
(-1 7.35697e-17 0)
(-1 5.3363e-17 0)
(-1 8.31034e-17 0)
(-1 1.1242e-16 0)
(-1 1.41287e-16 0)
(-1 3.3695e-17 0)
(-1 -1.12264e-16 0)
(-1 -6.62481e-17 0)
(-1 -2.39492e-18 0)
(-1 9.42188e-18 0)
(-1 -5.886e-18 0)
(-1 -3.416e-18 0)
(-1 9.52154e-15 0)
(-1 -2.27094e-15 0)
(-1 3.3206e-16 0)
(-1 -1.425e-16 0)
(-1 -3.54253e-17 0)
(-1 -6.75464e-17 0)
(-1 -9.78981e-17 0)
(-1 -3.05855e-17 0)
(-1 8.15855e-17 0)
(-1 1.23543e-16 0)
(-1 8.60829e-17 0)
(-1 -4.07233e-17 0)
(-1 -9.65434e-17 0)
(-1 -8.34955e-17 0)
(-1 5.99875e-18 0)
(-1 -5.07889e-17 0)
(-1 -5.84543e-17 0)
(-1 -1.1734e-16 0)
(-1 -4.46773e-17 0)
(-1 -1.21029e-17 0)
(-1 -2.56026e-14 0)
(-1 4.84125e-15 0)
(-1 -1.27905e-15 0)
(-1 1.07675e-16 0)
(-1 -9.78101e-17 0)
(-1 -2.29836e-17 0)
(-1 -7.69714e-17 0)
(-1 -7.77416e-17 0)
(-1 -6.81412e-17 0)
(-1 -3.07047e-17 0)
(-1 -8.50468e-17 0)
(-1 -1.51496e-16 0)
(-1 -1.62528e-16 0)
(-1 -6.54206e-17 0)
(-1 1.01382e-16 0)
(-1 4.86368e-17 0)
(-1 4.08588e-17 0)
(-1 -4.11441e-17 0)
(-1 2.00282e-18 0)
(-1 -1.4338e-17 0)
)
;

boundaryField
{
    movingWall
    {
        type            fixedValue;
        value           uniform (-1 -0 -0);
    }
    fixedWalls
    {
        type            calculated;
        value           nonuniform List<vector> 
60
(
(-1 9.50489e-15 0)
(-1 1.56294e-14 0)
(-1 -2.32638e-14 0)
(-1 1.24396e-14 0)
(-1 -3.162e-15 0)
(-1 -1.38449e-15 0)
(-1 2.77027e-15 0)
(-1 -2.4265e-15 0)
(-1 3.38033e-15 0)
(-1 -2.79085e-15 0)
(-1 3.70049e-15 0)
(-1 -2.96473e-15 0)
(-1 2.71241e-15 0)
(-1 -1.15107e-15 0)
(-1 1.98457e-15 0)
(-1 -2.63392e-15 0)
(-1 2.39448e-15 0)
(-1 -6.04631e-16 0)
(-1 3.80862e-15 0)
(-1 -1.0241e-14 0)
(-1 -1.66011e-17 0)
(-1 -3.33587e-17 0)
(-1 -3.38005e-17 0)
(-1 -2.84373e-17 0)
(-1 -8.96513e-18 0)
(-1 1.14388e-17 0)
(-1 8.1462e-18 0)
(-1 -1.00664e-17 0)
(-1 4.3356e-18 0)
(-1 3.72285e-17 0)
(-1 1.75235e-17 0)
(-1 1.66655e-17 0)
(-1 2.04081e-19 0)
(-1 -2.22545e-17 0)
(-1 8.38382e-18 0)
(-1 7.94058e-18 0)
(-1 -2.37603e-18 0)
(-1 -1.3664e-18 0)
(-1 -4.84116e-18 0)
(-1 -5.73521e-18 0)
(-1 9.50489e-15 0)
(-1 -1.68091e-15 0)
(-1 5.19692e-16 0)
(-1 -2.60157e-17 0)
(-1 5.76114e-17 0)
(-1 5.75645e-17 0)
(-1 5.87387e-17 0)
(-1 6.80609e-17 0)
(-1 6.41287e-17 0)
(-1 3.28724e-17 0)
(-1 -3.83144e-18 0)
(-1 -4.38444e-17 0)
(-1 -4.80768e-17 0)
(-1 -4.84742e-17 0)
(-1 -2.69718e-17 0)
(-1 1.99287e-17 0)
(-1 2.64936e-17 0)
(-1 5.58339e-18 0)
(-1 1.60725e-17 0)
(-1 -1.66011e-17 0)
)
;
    }
    frontAndBack
    {
        type            empty;
    }
}


// ************************************************************************* //
