/*--------------------------------*- C++ -*----------------------------------*\
| =========                 |                                                 |
| \\      /  F ield         | OpenFOAM: The Open Source CFD Toolbox           |
|  \\    /   O peration     | Version:  2506                                  |
|   \\  /    A nd           | Website:  www.openfoam.com                      |
|    \\/     M anipulation  |                                                 |
\*---------------------------------------------------------------------------*/
FoamFile
{
    version     2.0;
    format      ascii;
    arch        "LSB;label=32;scalar=64";
    class       volVectorField;
    location    "5.125";
    object      vorticityField;
}
// * * * * * * * * * * * * * * * * * * * * * * * * * * * * * * * * * * * * * //

dimensions      [0 0 -1 0 0 0 0];

internalField   nonuniform List<vector> 
400
(
(0 -0 1.27837e-12)
(0 -0 -2.08367e-12)
(0 -0 3.59514e-13)
(0 -0 -1.42625e-13)
(0 -0 -3.33151e-14)
(0 -0 2.81819e-16)
(0 -0 2.62411e-15)
(0 -0 5.55576e-14)
(0 -0 -8.79712e-15)
(0 -0 3.72201e-14)
(0 -0 3.50309e-14)
(0 -0 -1.10613e-14)
(0 -0 5.30527e-14)
(0 -0 8.65914e-14)
(0 -0 7.13108e-14)
(0 -0 1.33664e-14)
(0 -0 5.06238e-14)
(0 -0 -2.60528e-15)
(0 -0 4.8664e-14)
(0 -0 1.32149e-16)
(0 -0 5.87679e-12)
(0 -0 -4.14715e-12)
(0 -0 1.01559e-12)
(0 -0 -1.55603e-13)
(0 -0 1.52021e-13)
(0 -0 6.13851e-14)
(0 -0 -7.61451e-15)
(0 -0 -1.02995e-14)
(0 -0 -3.54939e-14)
(0 -0 -8.7225e-14)
(0 -0 -5.67052e-14)
(0 -0 1.11126e-15)
(0 -0 -6.37772e-14)
(0 -0 -3.64384e-14)
(0 -0 9.56313e-15)
(0 -0 6.02783e-15)
(0 -0 -6.29933e-14)
(0 -0 -4.86713e-15)
(0 -0 -5.5223e-14)
(0 -0 1.32544e-14)
(0 -0 -8.07532e-12)
(0 -0 6.12156e-12)
(0 -0 -1.40681e-12)
(0 -0 2.91386e-13)
(0 -0 -1.75047e-13)
(0 -0 -1.32492e-13)
(0 -0 -6.27787e-14)
(0 -0 -1.39556e-13)
(0 -0 -2.20662e-14)
(0 -0 -2.01354e-14)
(0 -0 7.64705e-15)
(0 -0 5.94821e-15)
(0 -0 -1.09948e-14)
(0 -0 -1.02359e-13)
(0 -0 -9.31354e-14)
(0 -0 -2.75369e-14)
(0 -0 -4.5307e-14)
(0 -0 1.49779e-15)
(0 -0 -3.34552e-14)
(0 -0 -1.12798e-14)
(0 -0 4.12223e-12)
(0 -0 -3.30835e-12)
(0 -0 7.32897e-13)
(0 -0 -2.39479e-13)
(0 -0 2.97059e-14)
(0 -0 -5.65027e-14)
(0 -0 -6.85036e-15)
(0 -0 1.81734e-14)
(0 -0 6.72044e-15)
(0 -0 -3.03061e-14)
(0 -0 -3.37532e-14)
(0 -0 -6.14261e-14)
(0 -0 -3.7827e-14)
(0 -0 -4.25674e-14)
(0 -0 -3.38305e-14)
(0 -0 1.39264e-14)
(0 -0 4.86479e-14)
(0 -0 6.0062e-14)
(0 -0 9.56933e-15)
(0 -0 1.58624e-15)
(0 -0 -1.29398e-12)
(0 -0 8.50913e-13)
(0 -0 -2.02086e-13)
(0 -0 9.30287e-14)
(0 -0 1.16821e-13)
(0 -0 2.30504e-13)
(0 -0 1.79365e-13)
(0 -0 1.57928e-13)
(0 -0 1.06281e-13)
(0 -0 1.9078e-14)
(0 -0 -3.37061e-15)
(0 -0 -1.13876e-14)
(0 -0 -4.73906e-14)
(0 -0 1.28098e-14)
(0 -0 3.23238e-14)
(0 -0 4.64491e-14)
(0 -0 8.51921e-14)
(0 -0 -6.88077e-14)
(0 -0 -3.6944e-14)
(0 -0 3.14334e-14)
(0 -0 7.15135e-14)
(0 -0 3.05199e-13)
(0 -0 1.45473e-14)
(0 -0 8.35035e-14)
(0 -0 1.89921e-14)
(0 -0 4.4941e-14)
(0 -0 4.71664e-14)
(0 -0 2.69766e-14)
(0 -0 -6.67126e-15)
(0 -0 2.55237e-14)
(0 -0 2.70253e-14)
(0 -0 2.78637e-14)
(0 -0 2.57788e-14)
(0 -0 5.46331e-15)
(0 -0 4.25504e-14)
(0 -0 3.5615e-15)
(0 -0 -2.26582e-14)
(0 -0 -2.40551e-14)
(0 -0 3.48037e-14)
(0 -0 6.91664e-15)
(0 -0 6.08318e-13)
(0 -0 -7.39984e-13)
(0 -0 1.70796e-13)
(0 -0 -4.92249e-14)
(0 -0 -2.42512e-14)
(0 -0 -3.48326e-14)
(0 -0 -3.56575e-14)
(0 -0 -1.55256e-14)
(0 -0 6.13686e-14)
(0 -0 1.29182e-13)
(0 -0 5.00563e-14)
(0 -0 2.64662e-14)
(0 -0 9.71064e-14)
(0 -0 9.69829e-14)
(0 -0 1.7459e-15)
(0 -0 -7.96291e-15)
(0 -0 -7.65381e-14)
(0 -0 -1.85731e-14)
(0 -0 4.29008e-15)
(0 -0 1.82462e-16)
(0 -0 -1.12281e-12)
(0 -0 7.05943e-13)
(0 -0 -2.01985e-13)
(0 -0 -3.28755e-14)
(0 -0 -4.31324e-14)
(0 -0 1.22049e-14)
(0 -0 -5.5976e-14)
(0 -0 4.94361e-15)
(0 -0 -2.08191e-14)
(0 -0 -2.58546e-14)
(0 -0 -5.07975e-14)
(0 -0 6.1021e-16)
(0 -0 -5.04327e-14)
(0 -0 -5.04827e-14)
(0 -0 -4.12167e-15)
(0 -0 -5.42623e-15)
(0 -0 -2.03525e-15)
(0 -0 -2.69115e-14)
(0 -0 -3.28113e-14)
(0 -0 -1.13519e-16)
(0 -0 1.12906e-12)
(0 -0 -9.69372e-13)
(0 -0 1.57684e-13)
(0 -0 -1.06495e-13)
(0 -0 1.26472e-14)
(0 -0 1.18621e-14)
(0 -0 -1.89694e-14)
(0 -0 -1.13796e-13)
(0 -0 -1.5628e-13)
(0 -0 -1.16366e-13)
(0 -0 -4.12188e-14)
(0 -0 -1.20573e-14)
(0 -0 8.50248e-15)
(0 -0 -1.81381e-14)
(0 -0 5.70229e-14)
(0 -0 -1.15458e-14)
(0 -0 1.69169e-15)
(0 -0 1.32956e-14)
(0 -0 2.12866e-14)
(0 -0 -1.1447e-14)
(0 -0 -1.06994e-12)
(0 -0 8.24454e-13)
(0 -0 -1.66867e-13)
(0 -0 8.31979e-14)
(0 -0 -3.9769e-15)
(0 -0 -5.15968e-14)
(0 -0 2.15281e-14)
(0 -0 -2.87481e-14)
(0 -0 3.9924e-15)
(0 -0 -1.67904e-14)
(0 -0 -1.8262e-14)
(0 -0 -2.21551e-14)
(0 -0 -5.5806e-14)
(0 -0 1.80304e-14)
(0 -0 -7.70116e-15)
(0 -0 -1.72964e-15)
(0 -0 6.9814e-15)
(0 -0 3.9756e-14)
(0 -0 5.95449e-14)
(0 -0 -2.0487e-14)
(0 -0 1.18133e-12)
(0 -0 -1.02307e-12)
(0 -0 2.2133e-13)
(0 -0 -4.06474e-14)
(0 -0 -8.28398e-15)
(0 -0 -2.45739e-14)
(0 -0 4.26694e-14)
(0 -0 1.44259e-13)
(0 -0 1.62732e-13)
(0 -0 1.18415e-13)
(0 -0 1.17227e-13)
(0 -0 6.61749e-14)
(0 -0 3.08562e-14)
(0 -0 -1.16346e-13)
(0 -0 -1.22687e-13)
(0 -0 -5.18351e-14)
(0 -0 -2.66828e-14)
(0 -0 -2.37449e-14)
(0 -0 -4.55755e-14)
(0 -0 -3.23452e-14)
(0 -0 -1.35272e-12)
(0 -0 9.42779e-13)
(0 -0 -1.91683e-13)
(0 -0 6.77408e-14)
(0 -0 -2.36212e-14)
(0 -0 3.38972e-14)
(0 -0 -1.71743e-14)
(0 -0 2.14065e-14)
(0 -0 4.46999e-14)
(0 -0 1.07872e-13)
(0 -0 1.07314e-13)
(0 -0 9.9923e-14)
(0 -0 8.28996e-14)
(0 -0 4.43796e-14)
(0 -0 4.90335e-14)
(0 -0 1.16104e-13)
(0 -0 3.0438e-14)
(0 -0 -6.17106e-15)
(0 -0 -8.30067e-15)
(0 -0 1.38161e-14)
(0 -0 1.65048e-12)
(0 -0 -8.04961e-13)
(0 -0 1.98902e-13)
(0 -0 -1.02145e-13)
(0 -0 7.9419e-15)
(0 -0 -5.98079e-15)
(0 -0 -9.85463e-14)
(0 -0 -1.0882e-13)
(0 -0 -9.87297e-14)
(0 -0 -1.11524e-13)
(0 -0 -1.30707e-13)
(0 -0 -1.76555e-14)
(0 -0 -6.6666e-14)
(0 -0 4.06591e-14)
(0 -0 5.07793e-16)
(0 -0 -4.66136e-14)
(0 -0 8.37085e-15)
(0 -0 -5.96078e-15)
(0 -0 -7.35404e-15)
(0 -0 -3.04092e-15)
(0 -0 -8.57317e-13)
(0 -0 2.06522e-13)
(0 -0 -1.62538e-13)
(0 -0 -7.25322e-15)
(0 -0 -7.09559e-14)
(0 -0 -1.19163e-13)
(0 -0 4.73912e-15)
(0 -0 -2.09129e-14)
(0 -0 -2.05216e-14)
(0 -0 -1.42248e-14)
(0 -0 3.34671e-14)
(0 -0 -1.14931e-13)
(0 -0 -6.22215e-14)
(0 -0 -5.26088e-14)
(0 -0 -4.61682e-14)
(0 -0 1.35193e-14)
(0 -0 4.38736e-17)
(0 -0 -1.68005e-14)
(0 -0 -3.34321e-14)
(0 -0 -1.44957e-14)
(0 -0 9.31001e-13)
(0 -0 -4.70711e-13)
(0 -0 2.17611e-13)
(0 -0 9.40028e-14)
(0 -0 6.01902e-14)
(0 -0 4.15756e-14)
(0 -0 1.30831e-14)
(0 -0 1.90241e-14)
(0 -0 1.68851e-14)
(0 -0 4.41792e-14)
(0 -0 2.71357e-14)
(0 -0 7.01155e-14)
(0 -0 1.32725e-13)
(0 -0 1.30518e-13)
(0 -0 5.69419e-14)
(0 -0 -1.71065e-14)
(0 -0 -5.91621e-15)
(0 -0 2.69451e-14)
(0 -0 2.43625e-14)
(0 -0 2.40055e-14)
(0 -0 -1.22895e-12)
(0 -0 8.63224e-13)
(0 -0 -1.53714e-13)
(0 -0 1.52311e-14)
(0 -0 -3.15129e-14)
(0 -0 2.67942e-16)
(0 -0 -3.18383e-14)
(0 -0 -5.94426e-14)
(0 -0 -6.22918e-14)
(0 -0 -7.00069e-14)
(0 -0 -3.47866e-14)
(0 -0 1.01729e-14)
(0 -0 2.26524e-14)
(0 -0 1.91738e-14)
(0 -0 4.67993e-14)
(0 -0 -8.17314e-14)
(0 -0 -2.81192e-14)
(0 -0 1.49018e-14)
(0 -0 5.00893e-15)
(0 -0 -1.08703e-15)
(0 -0 1.39545e-12)
(0 -0 -8.99357e-13)
(0 -0 5.57862e-14)
(0 -0 -1.21407e-13)
(0 -0 -3.46142e-14)
(0 -0 -3.0374e-14)
(0 -0 -1.59507e-14)
(0 -0 1.5229e-14)
(0 -0 1.07486e-14)
(0 -0 4.82287e-15)
(0 -0 3.29521e-15)
(0 -0 3.55317e-15)
(0 -0 -5.97872e-14)
(0 -0 -7.22828e-14)
(0 -0 -5.81009e-14)
(0 -0 4.29056e-14)
(0 -0 3.81989e-14)
(0 -0 -1.60356e-16)
(0 -0 -5.16834e-15)
(0 -0 -1.7405e-15)
(0 -0 -1.08946e-12)
(0 -0 3.36336e-13)
(0 -0 -4.59857e-14)
(0 -0 1.35947e-13)
(0 -0 5.09784e-14)
(0 -0 1.35315e-14)
(0 -0 1.15094e-13)
(0 -0 1.33486e-13)
(0 -0 1.18822e-13)
(0 -0 1.09374e-13)
(0 -0 8.72208e-14)
(0 -0 6.00284e-14)
(0 -0 -7.87248e-15)
(0 -0 -2.53551e-14)
(0 -0 -6.42044e-14)
(0 -0 1.09869e-14)
(0 -0 7.567e-15)
(0 -0 -3.49107e-16)
(0 -0 -1.28379e-15)
(0 -0 9.30199e-16)
(0 -0 1.51111e-12)
(0 -0 -1.10868e-12)
(0 -0 2.39949e-13)
(0 -0 -9.09586e-14)
(0 -0 -4.67147e-14)
(0 -0 -3.33523e-14)
(0 -0 -5.0514e-14)
(0 -0 -3.62618e-14)
(0 -0 1.54128e-14)
(0 -0 -5.37604e-14)
(0 -0 -9.77418e-14)
(0 -0 -7.24727e-14)
(0 -0 -5.84873e-14)
(0 -0 1.02542e-14)
(0 -0 3.03757e-14)
(0 -0 -3.35504e-14)
(0 -0 -6.65509e-15)
(0 -0 1.3777e-15)
(0 -0 1.05237e-14)
(0 -0 5.67802e-15)
(0 -0 -2.26587e-12)
(0 -0 2.48656e-12)
(0 -0 -4.46253e-13)
(0 -0 1.18124e-13)
(0 -0 4.11443e-14)
(0 -0 2.91889e-14)
(0 -0 -5.4758e-15)
(0 -0 8.83013e-16)
(0 -0 -4.95064e-14)
(0 -0 -1.69055e-15)
(0 -0 1.50259e-14)
(0 -0 -7.74812e-15)
(0 -0 6.28176e-14)
(0 -0 2.6391e-14)
(0 -0 3.85108e-14)
(0 -0 4.81578e-14)
(0 -0 -8.97809e-15)
(0 -0 -3.8856e-15)
(0 -0 2.68061e-15)
(0 -0 1.23352e-15)
)
;

boundaryField
{
    movingWall
    {
        type            calculated;
        value           nonuniform List<vector> 
20
(
(0 -0 2.77541e-13)
(0 -0 2.34353e-12)
(0 -0 -2.92685e-14)
(0 -0 2.51351e-13)
(0 -0 2.08979e-13)
(0 -0 1.7972e-13)
(0 -0 1.27751e-13)
(0 -0 1.78519e-13)
(0 -0 1.3793e-13)
(0 -0 1.75945e-13)
(0 -0 2.09965e-13)
(0 -0 8.10697e-14)
(0 -0 9.74254e-14)
(0 -0 -6.24269e-14)
(0 -0 -7.74121e-14)
(0 -0 3.83566e-14)
(0 -0 -9.77959e-14)
(0 -0 -3.8856e-15)
(0 -0 2.68061e-15)
(0 -0 1.23352e-15)
)
;
    }
    fixedWalls
    {
        type            calculated;
        value           nonuniform List<vector> 
60
(
(0 -0 8.82727e-12)
(0 -0 1.83128e-11)
(0 -0 -2.65706e-11)
(0 -0 1.4093e-11)
(0 -0 -3.83963e-12)
(0 -0 -1.00502e-12)
(0 -0 2.85159e-12)
(0 -0 -3.04992e-12)
(0 -0 3.84112e-12)
(0 -0 -3.30585e-12)
(0 -0 4.16127e-12)
(0 -0 -3.72367e-12)
(0 -0 3.7695e-12)
(0 -0 -1.77449e-12)
(0 -0 2.52667e-12)
(0 -0 -3.31154e-12)
(0 -0 3.28894e-12)
(0 -0 -1.55331e-12)
(0 -0 4.59466e-12)
(0 -0 -1.04308e-11)
(0 -0 1.66011e-14)
(0 -0 3.33587e-14)
(0 -0 6.69541e-15)
(0 -0 2.84373e-14)
(0 -0 3.60702e-14)
(0 -0 -1.14388e-14)
(0 -0 -8.1462e-15)
(0 -0 1.00664e-14)
(0 -0 -4.3356e-15)
(0 -0 -3.72285e-14)
(0 -0 -4.46285e-14)
(0 -0 1.04396e-14)
(0 -0 -2.04081e-16)
(0 -0 -4.85054e-15)
(0 -0 1.87212e-14)
(0 -0 -7.94058e-15)
(0 -0 2.37603e-15)
(0 -0 1.3664e-15)
(0 -0 4.84116e-15)
(0 -0 5.73521e-15)
(0 -0 2.66654e-12)
(0 -0 -2.82362e-12)
(0 -0 1.40434e-14)
(0 -0 -3.37565e-13)
(0 -0 -2.0115e-13)
(0 -0 -1.77354e-13)
(0 -0 -8.61937e-14)
(0 -0 9.01654e-14)
(0 -0 8.00207e-14)
(0 -0 7.18278e-14)
(0 -0 1.58456e-13)
(0 -0 7.77565e-14)
(0 -0 1.76478e-13)
(0 -0 1.82912e-13)
(0 -0 1.71007e-14)
(0 -0 -3.10426e-14)
(0 -0 8.52315e-14)
(0 -0 -2.60528e-15)
(0 -0 8.32717e-14)
(0 -0 8.895e-14)
)
;
    }
    frontAndBack
    {
        type            empty;
    }
}


// ************************************************************************* //
