/*--------------------------------*- C++ -*----------------------------------*\
| =========                 |                                                 |
| \\      /  F ield         | OpenFOAM: The Open Source CFD Toolbox           |
|  \\    /   O peration     | Version:  2506                                  |
|   \\  /    A nd           | Website:  www.openfoam.com                      |
|    \\/     M anipulation  |                                                 |
\*---------------------------------------------------------------------------*/
FoamFile
{
    version     2.0;
    format      ascii;
    arch        "LSB;label=32;scalar=64";
    class       volScalarField;
    location    "5.125";
    object      zeroGradient(epsilon);
}
// * * * * * * * * * * * * * * * * * * * * * * * * * * * * * * * * * * * * * //

dimensions      [0 2 -3 0 0 0 0];

internalField   nonuniform List<scalar> 
400
(
7.90309e-06
7.90305e-06
7.90303e-06
7.90301e-06
7.90299e-06
7.90297e-06
7.90296e-06
7.90294e-06
7.90294e-06
7.90292e-06
7.90293e-06
7.90291e-06
7.90291e-06
7.9029e-06
7.9029e-06
7.9029e-06
7.9029e-06
7.9029e-06
7.90289e-06
7.90289e-06
8.93881e-06
8.73701e-06
8.75329e-06
8.76009e-06
8.7737e-06
8.78078e-06
8.7944e-06
8.8018e-06
8.81544e-06
8.82312e-06
8.83683e-06
8.84478e-06
8.85856e-06
8.86677e-06
8.88063e-06
8.8891e-06
8.90304e-06
8.91177e-06
8.9188e-06
8.93024e-06
1.03875e-05
1.01373e-05
1.01577e-05
1.01662e-05
1.01832e-05
1.0192e-05
1.0209e-05
1.02182e-05
1.02352e-05
1.02447e-05
1.02617e-05
1.02714e-05
1.02885e-05
1.02985e-05
1.03157e-05
1.03259e-05
1.03431e-05
1.03537e-05
1.03623e-05
1.03763e-05
1.16759e-05
1.13824e-05
1.14062e-05
1.14162e-05
1.14361e-05
1.14464e-05
1.14663e-05
1.1477e-05
1.14969e-05
1.1508e-05
1.15279e-05
1.15394e-05
1.15594e-05
1.15711e-05
1.15912e-05
1.16033e-05
1.16234e-05
1.16358e-05
1.16459e-05
1.16623e-05
1.25856e-05
1.226e-05
1.22864e-05
1.22974e-05
1.23195e-05
1.23309e-05
1.23529e-05
1.23648e-05
1.23868e-05
1.23991e-05
1.24212e-05
1.24338e-05
1.2456e-05
1.2469e-05
1.24913e-05
1.25047e-05
1.2527e-05
1.25407e-05
1.2552e-05
1.25702e-05
1.31514e-05
1.28055e-05
1.28335e-05
1.28451e-05
1.28685e-05
1.28806e-05
1.2904e-05
1.29166e-05
1.294e-05
1.2953e-05
1.29765e-05
1.29899e-05
1.30134e-05
1.30273e-05
1.30509e-05
1.30651e-05
1.30889e-05
1.31035e-05
1.31154e-05
1.31347e-05
1.34849e-05
1.31268e-05
1.31558e-05
1.31678e-05
1.3192e-05
1.32046e-05
1.32287e-05
1.32418e-05
1.32659e-05
1.32794e-05
1.33037e-05
1.33176e-05
1.33419e-05
1.33563e-05
1.33807e-05
1.33954e-05
1.342e-05
1.34351e-05
1.34475e-05
1.34674e-05
1.36846e-05
1.33192e-05
1.33487e-05
1.33611e-05
1.33857e-05
1.33985e-05
1.34231e-05
1.34364e-05
1.34611e-05
1.34749e-05
1.34996e-05
1.35138e-05
1.35386e-05
1.35532e-05
1.35781e-05
1.35932e-05
1.36182e-05
1.36337e-05
1.36463e-05
1.36667e-05
1.38152e-05
1.34451e-05
1.3475e-05
1.34875e-05
1.35125e-05
1.35254e-05
1.35504e-05
1.35639e-05
1.35888e-05
1.36028e-05
1.36278e-05
1.36422e-05
1.36673e-05
1.36821e-05
1.37074e-05
1.37226e-05
1.3748e-05
1.37636e-05
1.37764e-05
1.37971e-05
1.39141e-05
1.35404e-05
1.35706e-05
1.35832e-05
1.36084e-05
1.36214e-05
1.36466e-05
1.36602e-05
1.36854e-05
1.36995e-05
1.37248e-05
1.37393e-05
1.37647e-05
1.37796e-05
1.38051e-05
1.38205e-05
1.38461e-05
1.38619e-05
1.38748e-05
1.38957e-05
1.40011e-05
1.36243e-05
1.36547e-05
1.36674e-05
1.36928e-05
1.3706e-05
1.37314e-05
1.37451e-05
1.37705e-05
1.37847e-05
1.38102e-05
1.38249e-05
1.38504e-05
1.38655e-05
1.38912e-05
1.39067e-05
1.39325e-05
1.39485e-05
1.39615e-05
1.39825e-05
1.40873e-05
1.37073e-05
1.3738e-05
1.37508e-05
1.37764e-05
1.37897e-05
1.38153e-05
1.38291e-05
1.38547e-05
1.38691e-05
1.38947e-05
1.39095e-05
1.39353e-05
1.39505e-05
1.39764e-05
1.39921e-05
1.40181e-05
1.40342e-05
1.40473e-05
1.40685e-05
1.41789e-05
1.37957e-05
1.38266e-05
1.38395e-05
1.38653e-05
1.38787e-05
1.39045e-05
1.39185e-05
1.39443e-05
1.39588e-05
1.39847e-05
1.39996e-05
1.40256e-05
1.40409e-05
1.40671e-05
1.40829e-05
1.41091e-05
1.41253e-05
1.41385e-05
1.41599e-05
1.42805e-05
1.38936e-05
1.39248e-05
1.39378e-05
1.39639e-05
1.39774e-05
1.40035e-05
1.40176e-05
1.40436e-05
1.40582e-05
1.40844e-05
1.40994e-05
1.41257e-05
1.41412e-05
1.41675e-05
1.41835e-05
1.421e-05
1.42264e-05
1.42397e-05
1.42613e-05
1.43956e-05
1.40045e-05
1.4036e-05
1.40492e-05
1.40756e-05
1.40892e-05
1.41155e-05
1.41298e-05
1.41561e-05
1.41709e-05
1.41973e-05
1.42125e-05
1.4239e-05
1.42547e-05
1.42813e-05
1.42975e-05
1.43242e-05
1.43408e-05
1.43543e-05
1.43761e-05
1.45263e-05
1.41305e-05
1.41624e-05
1.41757e-05
1.42024e-05
1.42162e-05
1.42428e-05
1.42572e-05
1.42839e-05
1.42988e-05
1.43255e-05
1.43409e-05
1.43678e-05
1.43837e-05
1.44106e-05
1.44269e-05
1.4454e-05
1.44708e-05
1.44844e-05
1.45065e-05
1.4671e-05
1.42699e-05
1.43022e-05
1.43157e-05
1.43427e-05
1.43567e-05
1.43837e-05
1.43983e-05
1.44253e-05
1.44404e-05
1.44675e-05
1.44831e-05
1.45103e-05
1.45263e-05
1.45537e-05
1.45702e-05
1.45976e-05
1.46146e-05
1.46284e-05
1.46508e-05
1.48187e-05
1.44124e-05
1.44451e-05
1.44588e-05
1.44861e-05
1.45003e-05
1.45276e-05
1.45424e-05
1.45697e-05
1.4585e-05
1.46125e-05
1.46283e-05
1.46558e-05
1.46721e-05
1.46998e-05
1.47165e-05
1.47443e-05
1.47616e-05
1.47756e-05
1.47982e-05
1.49453e-05
1.45431e-05
1.45748e-05
1.45881e-05
1.46148e-05
1.46287e-05
1.46554e-05
1.46701e-05
1.46968e-05
1.47122e-05
1.47391e-05
1.4755e-05
1.47822e-05
1.47987e-05
1.4826e-05
1.48431e-05
1.48707e-05
1.48884e-05
1.49023e-05
1.49252e-05
1.50008e-05
1.50006e-05
1.50007e-05
1.50005e-05
1.50007e-05
1.50004e-05
1.50006e-05
1.50004e-05
1.50005e-05
1.50004e-05
1.50004e-05
1.50004e-05
1.50004e-05
1.50004e-05
1.50004e-05
1.50004e-05
1.50004e-05
1.50004e-05
1.50004e-05
1.50004e-05
)
;

boundaryField
{
    movingWall
    {
        type            zeroGradient;
    }
    fixedWalls
    {
        type            zeroGradient;
    }
    frontAndBack
    {
        type            empty;
    }
}


// ************************************************************************* //
