/*--------------------------------*- C++ -*----------------------------------*\
| =========                 |                                                 |
| \\      /  F ield         | OpenFOAM: The Open Source CFD Toolbox           |
|  \\    /   O peration     | Version:  2506                                  |
|   \\  /    A nd           | Website:  www.openfoam.com                      |
|    \\/     M anipulation  |                                                 |
\*---------------------------------------------------------------------------*/
FoamFile
{
    version     2.0;
    format      ascii;
    arch        "LSB;label=32;scalar=64";
    class       volVectorField;
    location    "4";
    object      ddtU;
}
// * * * * * * * * * * * * * * * * * * * * * * * * * * * * * * * * * * * * * //

dimensions      [0 1 -2 0 0 0 0];

internalField   nonuniform List<vector> 
400
(
(-6.13554e-10 -1.92084e-07 0)
(1.42775e-11 4.53975e-08 0)
(4.84057e-12 -1.07643e-08 0)
(-1.08136e-11 2.54668e-09 0)
(5.9508e-12 -6.02125e-10 0)
(-8.21565e-13 1.42594e-10 0)
(1.28786e-12 -3.36112e-11 0)
(4.44089e-13 8.00631e-12 0)
(5.32907e-13 -1.82313e-12 0)
(3.9968e-13 4.73977e-13 0)
(4.21885e-13 -8.38581e-14 0)
(3.33067e-13 5.05673e-14 0)
(2.44249e-13 1.65742e-14 0)
(2.66454e-13 1.34839e-14 0)
(2.44249e-13 8.46009e-15 0)
(1.77636e-13 1.10326e-14 0)
(2.22045e-13 1.1618e-14 0)
(1.77636e-13 5.56269e-15 0)
(1.33227e-13 -2.80101e-14 0)
(1.77636e-13 9.88884e-14 0)
(3.06812e-09 1.92097e-07 0)
(-6.67133e-10 -4.53359e-08 0)
(2.82085e-10 1.07328e-08 0)
(-6.6791e-11 -2.53381e-09 0)
(2.26041e-11 5.972e-10 0)
(-5.79536e-12 -1.408e-10 0)
(2.62013e-12 3.33555e-11 0)
(1.11022e-13 -7.57521e-12 0)
(6.43929e-13 1.99132e-12 0)
(3.55271e-13 -3.28048e-13 0)
(3.9968e-13 1.6451e-13 0)
(2.66454e-13 4.01527e-14 0)
(2.22045e-13 5.83744e-14 0)
(2.44249e-13 2.1654e-14 0)
(2.44249e-13 1.33982e-14 0)
(2.22045e-13 1.51485e-14 0)
(2.22045e-13 4.84207e-14 0)
(2.22045e-13 3.06208e-14 0)
(1.55431e-13 -7.67762e-14 0)
(1.77636e-13 3.12074e-13 0)
(-5.35494e-09 -1.92189e-07 0)
(1.19349e-09 4.53005e-08 0)
(-4.91251e-10 -1.07317e-08 0)
(1.21192e-10 2.52994e-09 0)
(-3.5727e-11 -5.9647e-10 0)
(1.25233e-11 1.41425e-10 0)
(-2.26485e-12 -3.27259e-11 0)
(1.5099e-12 8.17952e-12 0)
(2.22045e-13 -1.56349e-12 0)
(5.10703e-13 6.15839e-13 0)
(3.55271e-13 3.94698e-14 0)
(2.44249e-13 1.48896e-13 0)
(1.77636e-13 7.25528e-14 0)
(1.77636e-13 1.17653e-14 0)
(1.9984e-13 4.58762e-16 0)
(1.9984e-13 2.16579e-14 0)
(1.55431e-13 6.57018e-14 0)
(1.33227e-13 3.28818e-14 0)
(2.22045e-13 -1.25161e-13 0)
(1.77636e-13 5.16042e-13 0)
(8.20366e-09 1.92321e-07 0)
(-1.77045e-09 -4.52747e-08 0)
(7.52021e-10 1.07289e-08 0)
(-1.70353e-10 -2.52217e-09 0)
(5.83533e-11 5.96852e-10 0)
(-1.60538e-11 -1.39526e-10 0)
(5.19584e-12 3.3686e-11 0)
(-9.10383e-13 -7.26058e-12 0)
(7.77156e-13 2.19595e-12 0)
(2.22045e-13 -1.51123e-13 0)
(2.88658e-13 2.91045e-13 0)
(2.66454e-13 1.39217e-13 0)
(2.66454e-13 1.17725e-13 0)
(1.9984e-13 1.30573e-14 0)
(1.9984e-13 -8.99214e-15 0)
(2.22045e-13 2.87663e-14 0)
(2.44249e-13 9.2331e-14 0)
(1.11022e-13 4.3105e-14 0)
(1.9984e-13 -1.84101e-13 0)
(1.33227e-13 7.08119e-13 0)
(-1.11161e-08 -1.92678e-07 0)
(2.41003e-09 4.53665e-08 0)
(-1.01974e-09 -1.07418e-08 0)
(2.33324e-10 2.53052e-09 0)
(-7.72271e-11 -5.94713e-10 0)
(2.30482e-11 1.41962e-10 0)
(-5.75096e-12 -3.21542e-11 0)
(2.22045e-12 8.40509e-12 0)
(-2.88658e-13 -1.36807e-12 0)
(3.9968e-13 7.65788e-13 0)
(1.77636e-13 1.37825e-13 0)
(1.55431e-13 1.97461e-13 0)
(1.77636e-13 1.26017e-13 0)
(1.33227e-13 4.20169e-14 0)
(1.33227e-13 -7.29149e-15 0)
(1.55431e-13 3.38428e-15 0)
(1.55431e-13 1.01215e-13 0)
(1.9984e-13 5.50958e-14 0)
(1.33227e-13 -2.11412e-13 0)
(1.77636e-13 8.89783e-13 0)
(1.38682e-08 1.93198e-07 0)
(-2.94678e-09 -4.54793e-08 0)
(1.25917e-09 1.07797e-08 0)
(-2.78044e-10 -2.53223e-09 0)
(9.58345e-11 6.00438e-10 0)
(-2.75113e-11 -1.39753e-10 0)
(7.50511e-12 3.41977e-11 0)
(-2.30926e-12 -7.07074e-12 0)
(6.21725e-13 2.34306e-12 0)
(-1.55431e-13 -9.63016e-14 0)
(1.33227e-13 3.61903e-13 0)
(6.66134e-14 1.79852e-13 0)
(1.55431e-13 1.47339e-13 0)
(1.11022e-13 4.7876e-14 0)
(1.33227e-13 -2.69471e-14 0)
(6.66134e-14 -1.07632e-14 0)
(1.11022e-13 9.8461e-14 0)
(1.11022e-13 5.1245e-14 0)
(1.33227e-13 -2.42409e-13 0)
(8.88178e-14 1.03645e-12 0)
(-1.65456e-08 -1.94028e-07 0)
(3.52811e-09 4.57239e-08 0)
(-1.51399e-09 -1.08275e-08 0)
(3.33111e-10 2.5533e-09 0)
(-1.16263e-10 -6.00325e-10 0)
(3.20632e-11 1.4356e-10 0)
(-9.19265e-12 -3.24336e-11 0)
(2.53131e-12 8.64101e-12 0)
(-8.21565e-13 -1.33985e-12 0)
(1.77636e-13 7.68043e-13 0)
(-1.33227e-13 1.34821e-13 0)
(0 2.01905e-13 0)
(8.88178e-14 1.21193e-13 0)
(8.88178e-14 3.17967e-14 0)
(8.88178e-14 -5.05788e-14 0)
(1.11022e-13 -3.42562e-15 0)
(1.11022e-13 1.11534e-13 0)
(8.88178e-14 4.08318e-14 0)
(1.33227e-13 -2.7011e-13 0)
(8.88178e-14 1.17512e-12 0)
(1.85917e-08 1.95025e-07 0)
(-3.89986e-09 -4.59859e-08 0)
(1.67755e-09 1.09002e-08 0)
(-3.64153e-10 -2.56624e-09 0)
(1.26166e-10 6.08763e-10 0)
(-3.68372e-11 -1.42165e-10 0)
(9.10383e-12 3.46802e-11 0)
(-3.5083e-12 -7.35893e-12 0)
(5.77316e-13 2.34448e-12 0)
(-4.88498e-13 -1.14018e-13 0)
(-8.88178e-14 3.14748e-13 0)
(-1.33227e-13 1.09491e-13 0)
(-8.88178e-14 8.63793e-14 0)
(0 -1.13581e-14 0)
(0 -6.42993e-14 0)
(0 -6.93643e-15 0)
(4.44089e-14 1.17368e-13 0)
(0 2.62885e-14 0)
(1.33227e-13 -3.01349e-13 0)
(4.44089e-14 1.29276e-12 0)
(-2.05201e-08 -1.96319e-07 0)
(4.31939e-09 4.63608e-08 0)
(-1.87139e-09 -1.09826e-08 0)
(4.02434e-10 2.59506e-09 0)
(-1.43818e-10 -6.1204e-10 0)
(3.81473e-11 1.46005e-10 0)
(-1.15907e-11 -3.35544e-11 0)
(2.57572e-12 8.5657e-12 0)
(-1.33227e-12 -1.56407e-12 0)
(-8.88178e-14 6.92347e-13 0)
(-3.10862e-13 3.76605e-14 0)
(-8.88178e-14 1.17317e-13 0)
(-1.77636e-13 3.33555e-14 0)
(-4.44089e-14 -6.44381e-14 0)
(-4.44089e-14 -1.17449e-13 0)
(0 -3.16489e-14 0)
(4.44089e-14 1.32036e-13 0)
(0 2.79327e-14 0)
(4.44089e-14 -3.40234e-13 0)
(0 1.34355e-12 0)
(2.14852e-08 1.97774e-07 0)
(-4.45277e-09 -4.67601e-08 0)
(1.92841e-09 1.1084e-08 0)
(-4.13025e-10 -2.61941e-09 0)
(1.43396e-10 6.21082e-10 0)
(-4.22107e-11 -1.46301e-10 0)
(9.9476e-12 3.51288e-11 0)
(-4.19664e-12 -7.95067e-12 0)
(3.55271e-13 2.12835e-12 0)
(-5.9952e-13 -3.46144e-13 0)
(-1.33227e-13 1.56855e-13 0)
(-2.22045e-13 9.09393e-16 0)
(-8.88178e-14 7.88629e-15 0)
(-8.88178e-14 -8.33872e-14 0)
(-8.88178e-14 -1.33575e-13 0)
(-4.44089e-14 -7.19587e-14 0)
(-4.44089e-14 9.51577e-14 0)
(8.88178e-14 1.74383e-14 0)
(0 -3.44046e-13 0)
(0 1.36926e-12 0)
(-2.23249e-08 -1.99448e-07 0)
(4.6438e-09 4.72329e-08 0)
(-2.02736e-09 -1.11951e-08 0)
(4.29523e-10 2.65193e-09 0)
(-1.54809e-10 -6.28173e-10 0)
(4.04121e-11 1.49011e-10 0)
(-1.24789e-11 -3.52294e-11 0)
(2.62013e-12 8.39449e-12 0)
(-1.59872e-12 -1.98256e-12 0)
(-1.33227e-13 4.45097e-13 0)
(-3.9968e-13 -1.70807e-13 0)
(-2.22045e-13 -2.48904e-14 0)
(-1.77636e-13 -4.79118e-14 0)
(-1.33227e-13 -9.96158e-14 0)
(-8.88178e-14 -1.56036e-13 0)
(-4.44089e-14 -1.14631e-13 0)
(0 6.34485e-14 0)
(4.44089e-14 6.60023e-15 0)
(0 -3.34071e-13 0)
(-4.44089e-14 1.38222e-12 0)
(2.2023e-08 2.0125e-07 0)
(-4.51024e-09 -4.77334e-08 0)
(1.96692e-09 1.13156e-08 0)
(-4.16489e-10 -2.68548e-09 0)
(1.4464e-10 6.36355e-10 0)
(-4.24327e-11 -1.51485e-10 0)
(9.81437e-12 3.55897e-11 0)
(-4.26326e-12 -8.74038e-12 0)
(3.10862e-13 1.85443e-12 0)
(-7.10543e-13 -6.41655e-13 0)
(-2.66454e-13 -2.75523e-14 0)
(-2.66454e-13 -1.35692e-13 0)
(-2.22045e-13 -9.99699e-14 0)
(-1.33227e-13 -1.72266e-13 0)
(-8.88178e-14 -2.14069e-13 0)
(-1.33227e-13 -1.19548e-13 0)
(-1.33227e-13 5.39563e-14 0)
(-4.44089e-14 -9.89976e-15 0)
(-4.44089e-14 -3.39115e-13 0)
(-8.88178e-14 1.3659e-12 0)
(-2.16265e-08 -2.03131e-07 0)
(4.44853e-09 4.82504e-08 0)
(-1.95528e-09 -1.14436e-08 0)
(4.10338e-10 2.71745e-09 0)
(-1.47393e-10 -6.4661e-10 0)
(3.85025e-11 1.52525e-10 0)
(-1.1724e-11 -3.70715e-11 0)
(2.39808e-12 8.20125e-12 0)
(-1.39888e-12 -2.42543e-12 0)
(-1.33227e-13 2.04721e-13 0)
(-3.55271e-13 -3.36444e-13 0)
(-1.33227e-13 -1.46536e-13 0)
(-1.77636e-13 -1.67317e-13 0)
(-8.88178e-14 -2.04216e-13 0)
(-8.88178e-14 -2.0396e-13 0)
(-1.77636e-13 -1.05296e-13 0)
(-1.33227e-13 2.75082e-14 0)
(-8.88178e-14 -4.09011e-14 0)
(-6.66134e-14 -3.4545e-13 0)
(-2.22045e-14 1.29665e-12 0)
(2.00812e-08 2.05066e-07 0)
(-4.06641e-09 -4.87904e-08 0)
(1.78622e-09 1.15681e-08 0)
(-3.74256e-10 -2.75583e-09 0)
(1.30029e-10 6.52833e-10 0)
(-3.77254e-11 -1.56764e-10 0)
(8.9706e-12 3.61662e-11 0)
(-3.59712e-12 -9.48581e-12 0)
(3.55271e-13 1.58667e-12 0)
(-5.9952e-13 -8.90089e-13 0)
(-1.77636e-13 -1.69344e-13 0)
(-1.77636e-13 -2.64422e-13 0)
(-1.33227e-13 -1.87124e-13 0)
(-1.33227e-13 -2.34513e-13 0)
(-1.33227e-13 -2.08401e-13 0)
(-1.33227e-13 -1.15671e-13 0)
(-4.44089e-14 4.4593e-14 0)
(-8.88178e-14 -3.46268e-14 0)
(-1.11022e-13 -3.4144e-13 0)
(-1.11022e-13 1.17928e-12 0)
(-1.84915e-08 -2.06899e-07 0)
(3.76681e-09 4.92813e-08 0)
(-1.66469e-09 -1.16947e-08 0)
(3.47322e-10 2.78305e-09 0)
(-1.23235e-10 -6.64615e-10 0)
(3.27738e-11 1.56137e-10 0)
(-9.4369e-12 -3.87175e-11 0)
(2.39808e-12 8.14368e-12 0)
(-1.02141e-12 -2.74709e-12 0)
(0 4.50337e-14 0)
(-2.22045e-13 -4.72194e-13 0)
(-8.88178e-14 -2.26918e-13 0)
(-8.88178e-14 -2.0135e-13 0)
(-1.33227e-13 -2.25993e-13 0)
(-1.77636e-13 -2.14838e-13 0)
(-2.22045e-13 -1.14186e-13 0)
(-1.33227e-13 3.80248e-14 0)
(-8.88178e-14 -2.37876e-14 0)
(-6.66134e-14 -3.19329e-13 0)
(-1.33227e-13 1.06951e-12 0)
(1.59132e-08 2.08682e-07 0)
(-3.18885e-09 -4.97814e-08 0)
(1.41118e-09 1.18047e-08 0)
(-2.92499e-10 -2.82043e-09 0)
(1.02096e-10 6.68249e-10 0)
(-2.87992e-11 -1.61326e-10 0)
(7.37188e-12 3.69048e-11 0)
(-2.44249e-12 -9.98607e-12 0)
(5.32907e-13 1.51879e-12 0)
(-2.22045e-13 -1.00956e-12 0)
(-4.44089e-14 -2.46469e-13 0)
(-8.88178e-14 -2.85489e-13 0)
(-8.88178e-14 -1.60427e-13 0)
(-8.88178e-14 -1.90873e-13 0)
(-1.77636e-13 -1.89295e-13 0)
(-1.77636e-13 -1.19176e-13 0)
(-1.77636e-13 6.00948e-15 0)
(-1.33227e-13 -4.86385e-14 0)
(-1.33227e-13 -2.73684e-13 0)
(-1.77636e-13 9.23598e-13 0)
(-1.33297e-08 -2.10185e-07 0)
(2.69504e-09 5.01708e-08 0)
(-1.19458e-09 -1.19097e-08 0)
(2.50155e-10 2.8391e-09 0)
(-8.59757e-11 -6.79218e-10 0)
(2.41585e-11 1.59505e-10 0)
(-5.973e-12 -3.97497e-11 0)
(2.08722e-12 8.31497e-12 0)
(-4.21885e-13 -2.80634e-12 0)
(2.22045e-13 8.00933e-14 0)
(-8.88178e-14 -4.78722e-13 0)
(4.44089e-14 -2.02495e-13 0)
(-4.44089e-14 -1.80847e-13 0)
(-4.44089e-14 -1.70379e-13 0)
(-8.88178e-14 -1.65099e-13 0)
(-1.33227e-13 -8.47621e-14 0)
(-1.77636e-13 2.06388e-14 0)
(-1.33227e-13 -5.1302e-14 0)
(-1.77636e-13 -2.39645e-13 0)
(-1.55431e-13 7.34099e-13 0)
(1.00619e-08 2.11513e-07 0)
(-1.99591e-09 -5.05451e-08 0)
(8.90221e-10 1.19897e-08 0)
(-1.82565e-10 -2.8686e-09 0)
(6.46594e-11 6.80594e-10 0)
(-1.7053e-11 -1.6429e-10 0)
(5.37348e-12 3.78131e-11 0)
(-9.99201e-13 -1.00489e-11 0)
(6.66134e-13 1.69819e-12 0)
(6.66134e-14 -9.34356e-13 0)
(1.33227e-13 -1.90789e-13 0)
(4.44089e-14 -2.5544e-13 0)
(0 -1.6833e-13 0)
(0 -1.47525e-13 0)
(-8.88178e-14 -1.27269e-13 0)
(-1.77636e-13 -7.9598e-14 0)
(-1.33227e-13 1.43494e-14 0)
(-1.55431e-13 -2.44573e-14 0)
(-1.55431e-13 -1.83974e-13 0)
(-1.77636e-13 5.37468e-13 0)
(-7.00475e-09 -2.12445e-07 0)
(1.42708e-09 5.07776e-08 0)
(-6.19726e-10 -1.2054e-08 0)
(1.32605e-10 2.8743e-09 0)
(-4.14335e-11 -6.87307e-10 0)
(1.35003e-11 1.62078e-10 0)
(-2.02061e-12 -3.96417e-11 0)
(1.59872e-12 8.84761e-12 0)
(2.66454e-13 -2.50124e-12 0)
(3.9968e-13 3.06166e-13 0)
(1.77636e-13 -2.69451e-13 0)
(1.33227e-13 -8.08178e-14 0)
(4.44089e-14 -8.19921e-14 0)
(-4.44089e-14 -6.52198e-14 0)
(-4.44089e-14 -5.32295e-14 0)
(-1.33227e-13 -2.49271e-14 0)
(-1.77636e-13 4.96029e-14 0)
(-8.88178e-14 2.07565e-14 0)
(-2.22045e-13 -1.13561e-13 0)
(-1.77636e-13 3.30547e-13 0)
(3.17737e-09 2.13201e-07 0)
(-7.5806e-10 -5.11342e-08 0)
(3.47145e-10 1.21419e-08 0)
(-8.11795e-11 -2.91064e-09 0)
(3.23297e-11 6.95027e-10 0)
(-6.92779e-12 -1.66426e-10 0)
(3.77476e-12 3.97186e-11 0)
(-2.22045e-14 -9.65989e-12 0)
(7.99361e-13 2.24817e-12 0)
(2.88658e-13 -5.8159e-13 0)
(2.22045e-13 1.33949e-13 0)
(1.55431e-13 -2.72115e-14 0)
(4.44089e-14 1.5245e-14 0)
(0 -3.11872e-15 0)
(-8.88178e-14 7.74742e-15 0)
(-1.33227e-13 3.57386e-14 0)
(-1.33227e-13 5.08675e-14 0)
(-4.44089e-14 2.24335e-14 0)
(-1.55431e-13 -3.97873e-14 0)
(-1.9984e-13 1.11615e-13 0)
)
;

boundaryField
{
    movingWall
    {
        type            calculated;
        value           uniform (0 0 0);
    }
    fixedWalls
    {
        type            calculated;
        value           uniform (0 0 0);
    }
    frontAndBack
    {
        type            empty;
    }
}


// ************************************************************************* //
