/*--------------------------------*- C++ -*----------------------------------*\
| =========                 |                                                 |
| \\      /  F ield         | OpenFOAM: The Open Source CFD Toolbox           |
|  \\    /   O peration     | Version:  2506                                  |
|   \\  /    A nd           | Website:  www.openfoam.com                      |
|    \\/     M anipulation  |                                                 |
\*---------------------------------------------------------------------------*/
FoamFile
{
    version     2.0;
    format      ascii;
    arch        "LSB;label=32;scalar=64";
    class       volVectorField;
    location    "4";
    object      diffU;
}
// * * * * * * * * * * * * * * * * * * * * * * * * * * * * * * * * * * * * * //

dimensions      [0 1 -1 0 0 0 0];

internalField   nonuniform List<vector> 
400
(
(0 0 0)
(7.48837e-11 -7.66533e-08 0)
(8.98059e-12 -5.8468e-08 0)
(3.83078e-11 -6.2785e-08 0)
(2.60951e-11 -6.17609e-08 0)
(2.97687e-11 -6.20041e-08 0)
(2.82818e-11 -6.19465e-08 0)
(2.8596e-11 -6.19602e-08 0)
(2.84058e-11 -6.1957e-08 0)
(2.84053e-11 -6.19578e-08 0)
(2.8367e-11 -6.19576e-08 0)
(2.83522e-11 -6.19576e-08 0)
(2.83378e-11 -6.19576e-08 0)
(2.83285e-11 -6.19576e-08 0)
(2.83215e-11 -6.19576e-08 0)
(2.8316e-11 -6.19576e-08 0)
(2.83122e-11 -6.19576e-08 0)
(2.83091e-11 -6.19576e-08 0)
(2.83067e-11 -6.19576e-08 0)
(2.83067e-11 -6.19576e-08 0)
(-1.48134e-10 -1.23898e-07 0)
(7.01817e-11 -4.72686e-08 0)
(1.21851e-11 -6.54369e-08 0)
(3.35421e-11 -6.11315e-08 0)
(2.72178e-11 -6.21524e-08 0)
(2.91004e-11 -6.19111e-08 0)
(2.8367e-11 -6.19684e-08 0)
(2.85061e-11 -6.19549e-08 0)
(2.83993e-11 -6.19582e-08 0)
(2.83886e-11 -6.19574e-08 0)
(2.83615e-11 -6.19576e-08 0)
(2.83472e-11 -6.19576e-08 0)
(2.83349e-11 -6.19576e-08 0)
(2.83266e-11 -6.19576e-08 0)
(2.83201e-11 -6.19576e-08 0)
(2.83155e-11 -6.19576e-08 0)
(2.8312e-11 -6.19576e-08 0)
(2.83095e-11 -6.19576e-08 0)
(2.8307e-11 -6.19576e-08 0)
(2.83069e-11 -6.19576e-08 0)
(3.26209e-10 -7.86312e-11 0)
(-4.58895e-11 -7.66138e-08 0)
(5.56702e-11 -5.84809e-08 0)
(2.03277e-11 -6.27802e-08 0)
(3.06186e-11 -6.1762e-08 0)
(2.76559e-11 -6.20035e-08 0)
(2.862e-11 -6.19465e-08 0)
(2.83341e-11 -6.19601e-08 0)
(2.83992e-11 -6.19569e-08 0)
(2.83581e-11 -6.19577e-08 0)
(2.83515e-11 -6.19575e-08 0)
(2.83384e-11 -6.19576e-08 0)
(2.83302e-11 -6.19576e-08 0)
(2.83231e-11 -6.19576e-08 0)
(2.83183e-11 -6.19576e-08 0)
(2.83146e-11 -6.19576e-08 0)
(2.83112e-11 -6.19576e-08 0)
(2.83085e-11 -6.19576e-08 0)
(2.83069e-11 -6.19576e-08 0)
(2.83069e-11 -6.19576e-08 0)
(-5.80666e-10 -1.23801e-07 0)
(1.69036e-10 -4.73224e-08 0)
(-2.79738e-11 -6.54269e-08 0)
(4.22639e-11 -6.1136e-08 0)
(2.38023e-11 -6.21516e-08 0)
(2.96505e-11 -6.19113e-08 0)
(2.79474e-11 -6.19683e-08 0)
(2.84581e-11 -6.19549e-08 0)
(2.83088e-11 -6.19581e-08 0)
(2.83492e-11 -6.19574e-08 0)
(2.83307e-11 -6.19576e-08 0)
(2.83291e-11 -6.19576e-08 0)
(2.83233e-11 -6.19576e-08 0)
(2.83192e-11 -6.19576e-08 0)
(2.83156e-11 -6.19576e-08 0)
(2.83127e-11 -6.19576e-08 0)
(2.83108e-11 -6.19576e-08 0)
(2.83085e-11 -6.19576e-08 0)
(2.83072e-11 -6.19576e-08 0)
(2.83071e-11 -6.19576e-08 0)
(9.62824e-10 -1.40129e-10 0)
(-1.82647e-10 -7.65805e-08 0)
(1.13438e-10 -5.84905e-08 0)
(7.42051e-12 -6.27775e-08 0)
(3.47454e-11 -6.17632e-08 0)
(2.62508e-11 -6.20034e-08 0)
(2.88211e-11 -6.19466e-08 0)
(2.81344e-11 -6.19601e-08 0)
(2.83616e-11 -6.19569e-08 0)
(2.83042e-11 -6.19577e-08 0)
(2.83232e-11 -6.19575e-08 0)
(2.83168e-11 -6.19576e-08 0)
(2.83163e-11 -6.19576e-08 0)
(2.83141e-11 -6.19576e-08 0)
(2.83125e-11 -6.19576e-08 0)
(2.83106e-11 -6.19576e-08 0)
(2.83091e-11 -6.19576e-08 0)
(2.83079e-11 -6.19576e-08 0)
(2.83067e-11 -6.19576e-08 0)
(2.83071e-11 -6.19576e-08 0)
(-1.26421e-09 -1.23775e-07 0)
(3.1287e-10 -4.73363e-08 0)
(-8.96483e-11 -6.54238e-08 0)
(5.5503e-11 -6.11375e-08 0)
(1.92184e-11 -6.21515e-08 0)
(3.08434e-11 -6.19115e-08 0)
(2.75306e-11 -6.19683e-08 0)
(2.84973e-11 -6.19549e-08 0)
(2.8229e-11 -6.19581e-08 0)
(2.83191e-11 -6.19574e-08 0)
(2.83007e-11 -6.19576e-08 0)
(2.83101e-11 -6.19576e-08 0)
(2.83091e-11 -6.19576e-08 0)
(2.83097e-11 -6.19576e-08 0)
(2.83091e-11 -6.19576e-08 0)
(2.83086e-11 -6.19576e-08 0)
(2.83079e-11 -6.19576e-08 0)
(2.83072e-11 -6.19576e-08 0)
(2.83067e-11 -6.19576e-08 0)
(2.83067e-11 -6.19576e-08 0)
(1.65577e-09 -1.18337e-10 0)
(-3.26266e-10 -7.65864e-08 0)
(1.76056e-10 -5.84894e-08 0)
(-5.74962e-12 -6.2778e-08 0)
(3.93442e-11 -6.17633e-08 0)
(2.49374e-11 -6.20035e-08 0)
(2.91236e-11 -6.19466e-08 0)
(2.79872e-11 -6.19601e-08 0)
(2.83551e-11 -6.19569e-08 0)
(2.82674e-11 -6.19577e-08 0)
(2.83034e-11 -6.19575e-08 0)
(2.82996e-11 -6.19576e-08 0)
(2.83049e-11 -6.19576e-08 0)
(2.83056e-11 -6.19576e-08 0)
(2.83067e-11 -6.19576e-08 0)
(2.8307e-11 -6.19576e-08 0)
(2.83075e-11 -6.19576e-08 0)
(2.83069e-11 -6.19576e-08 0)
(2.83065e-11 -6.19576e-08 0)
(2.83069e-11 -6.19576e-08 0)
(-1.89739e-09 -1.23845e-07 0)
(4.42869e-10 -4.73133e-08 0)
(-1.4646e-10 -6.54296e-08 0)
(6.74287e-11 -6.1136e-08 0)
(1.50768e-11 -6.21521e-08 0)
(3.19927e-11 -6.19115e-08 0)
(2.72078e-11 -6.19684e-08 0)
(2.85708e-11 -6.1955e-08 0)
(2.81819e-11 -6.19582e-08 0)
(2.83069e-11 -6.19574e-08 0)
(2.82825e-11 -6.19576e-08 0)
(2.8298e-11 -6.19576e-08 0)
(2.82989e-11 -6.19576e-08 0)
(2.83025e-11 -6.19576e-08 0)
(2.83042e-11 -6.19576e-08 0)
(2.83056e-11 -6.19576e-08 0)
(2.8306e-11 -6.19576e-08 0)
(2.8306e-11 -6.19576e-08 0)
(2.83067e-11 -6.19576e-08 0)
(2.83069e-11 -6.19576e-08 0)
(2.20969e-09 4.3477e-13 0)
(-4.38979e-10 -7.66249e-08 0)
(2.25854e-10 -5.84801e-08 0)
(-1.59643e-11 -6.27808e-08 0)
(4.3022e-11 -6.17626e-08 0)
(2.39502e-11 -6.20038e-08 0)
(2.93894e-11 -6.19466e-08 0)
(2.78955e-11 -6.19602e-08 0)
(2.83658e-11 -6.1957e-08 0)
(2.82485e-11 -6.19577e-08 0)
(2.82943e-11 -6.19575e-08 0)
(2.829e-11 -6.19576e-08 0)
(2.82974e-11 -6.19576e-08 0)
(2.83e-11 -6.19576e-08 0)
(2.83025e-11 -6.19576e-08 0)
(2.83038e-11 -6.19576e-08 0)
(2.83056e-11 -6.19576e-08 0)
(2.83058e-11 -6.19576e-08 0)
(2.83065e-11 -6.19576e-08 0)
(2.83067e-11 -6.19576e-08 0)
(-2.33523e-09 -1.24008e-07 0)
(5.30825e-10 -4.72615e-08 0)
(-1.85487e-10 -6.54422e-08 0)
(7.54193e-11 -6.11323e-08 0)
(1.22828e-11 -6.21531e-08 0)
(3.27802e-11 -6.19112e-08 0)
(2.70113e-11 -6.19686e-08 0)
(2.86334e-11 -6.1955e-08 0)
(2.8161e-11 -6.19582e-08 0)
(2.83067e-11 -6.19574e-08 0)
(2.82754e-11 -6.19576e-08 0)
(2.82929e-11 -6.19576e-08 0)
(2.82947e-11 -6.19576e-08 0)
(2.82991e-11 -6.19576e-08 0)
(2.83016e-11 -6.19576e-08 0)
(2.8304e-11 -6.19576e-08 0)
(2.83047e-11 -6.19576e-08 0)
(2.8306e-11 -6.19576e-08 0)
(2.83065e-11 -6.19576e-08 0)
(2.8307e-11 -6.19576e-08 0)
(2.52059e-09 2.00831e-10 0)
(-5.00171e-10 -7.66877e-08 0)
(2.53483e-10 -5.84648e-08 0)
(-2.14138e-11 -6.27853e-08 0)
(4.50154e-11 -6.17614e-08 0)
(2.3439e-11 -6.20041e-08 0)
(2.95389e-11 -6.19466e-08 0)
(2.78579e-11 -6.19602e-08 0)
(2.83777e-11 -6.1957e-08 0)
(2.82445e-11 -6.19577e-08 0)
(2.82934e-11 -6.19576e-08 0)
(2.82872e-11 -6.19576e-08 0)
(2.82954e-11 -6.19576e-08 0)
(2.82978e-11 -6.19576e-08 0)
(2.83009e-11 -6.19576e-08 0)
(2.83031e-11 -6.19576e-08 0)
(2.83051e-11 -6.19576e-08 0)
(2.83058e-11 -6.19576e-08 0)
(2.83067e-11 -6.19576e-08 0)
(2.83067e-11 -6.19576e-08 0)
(-2.49972e-09 -1.24238e-07 0)
(5.61278e-10 -4.71899e-08 0)
(-1.9973e-10 -6.54595e-08 0)
(7.80931e-11 -6.11272e-08 0)
(1.13549e-11 -6.21545e-08 0)
(3.30462e-11 -6.19109e-08 0)
(2.69593e-11 -6.19687e-08 0)
(2.86587e-11 -6.1955e-08 0)
(2.81597e-11 -6.19582e-08 0)
(2.83089e-11 -6.19575e-08 0)
(2.82749e-11 -6.19576e-08 0)
(2.82927e-11 -6.19576e-08 0)
(2.82936e-11 -6.19576e-08 0)
(2.82985e-11 -6.19576e-08 0)
(2.83011e-11 -6.19576e-08 0)
(2.83034e-11 -6.19576e-08 0)
(2.83047e-11 -6.19576e-08 0)
(2.83056e-11 -6.19576e-08 0)
(2.83067e-11 -6.19576e-08 0)
(2.83067e-11 -6.19576e-08 0)
(2.53332e-09 4.52783e-10 0)
(-4.99044e-10 -7.6765e-08 0)
(2.54042e-10 -5.84461e-08 0)
(-2.11609e-11 -6.27908e-08 0)
(4.49446e-11 -6.176e-08 0)
(2.34839e-11 -6.20045e-08 0)
(2.95337e-11 -6.19465e-08 0)
(2.78697e-11 -6.19603e-08 0)
(2.83813e-11 -6.1957e-08 0)
(2.82483e-11 -6.19578e-08 0)
(2.82951e-11 -6.19576e-08 0)
(2.82885e-11 -6.19576e-08 0)
(2.8296e-11 -6.19576e-08 0)
(2.8298e-11 -6.19576e-08 0)
(2.83016e-11 -6.19576e-08 0)
(2.83031e-11 -6.19576e-08 0)
(2.83045e-11 -6.19576e-08 0)
(2.83058e-11 -6.19576e-08 0)
(2.83067e-11 -6.19576e-08 0)
(2.83069e-11 -6.19576e-08 0)
(-2.35761e-09 -1.24501e-07 0)
(5.28067e-10 -4.71097e-08 0)
(-1.86311e-10 -6.5479e-08 0)
(7.49184e-11 -6.11217e-08 0)
(1.24885e-11 -6.2156e-08 0)
(3.27353e-11 -6.19105e-08 0)
(2.70606e-11 -6.19688e-08 0)
(2.86385e-11 -6.1955e-08 0)
(2.81746e-11 -6.19582e-08 0)
(2.83119e-11 -6.19575e-08 0)
(2.82794e-11 -6.19576e-08 0)
(2.82949e-11 -6.19576e-08 0)
(2.82956e-11 -6.19576e-08 0)
(2.82994e-11 -6.19576e-08 0)
(2.83011e-11 -6.19576e-08 0)
(2.83031e-11 -6.19576e-08 0)
(2.83049e-11 -6.19576e-08 0)
(2.83058e-11 -6.19576e-08 0)
(2.83067e-11 -6.19576e-08 0)
(2.83069e-11 -6.19576e-08 0)
(2.23711e-09 7.16377e-10 0)
(-4.34105e-10 -7.68445e-08 0)
(2.26706e-10 -5.84268e-08 0)
(-1.5081e-11 -6.27963e-08 0)
(4.27816e-11 -6.17585e-08 0)
(2.40963e-11 -6.20049e-08 0)
(2.93752e-11 -6.19464e-08 0)
(2.79323e-11 -6.19603e-08 0)
(2.83756e-11 -6.1957e-08 0)
(2.82596e-11 -6.19578e-08 0)
(2.82994e-11 -6.19576e-08 0)
(2.82927e-11 -6.19576e-08 0)
(2.82989e-11 -6.19576e-08 0)
(2.83003e-11 -6.19576e-08 0)
(2.8302e-11 -6.19576e-08 0)
(2.83038e-11 -6.19576e-08 0)
(2.83049e-11 -6.19576e-08 0)
(2.83062e-11 -6.19576e-08 0)
(2.83071e-11 -6.19576e-08 0)
(2.8307e-11 -6.19576e-08 0)
(-1.92247e-09 -1.24754e-07 0)
(4.3469e-10 -4.7034e-08 0)
(-1.4659e-10 -6.54974e-08 0)
(6.62282e-11 -6.11165e-08 0)
(1.55567e-11 -6.21574e-08 0)
(3.18944e-11 -6.19102e-08 0)
(2.73079e-11 -6.19689e-08 0)
(2.85793e-11 -6.1955e-08 0)
(2.82057e-11 -6.19583e-08 0)
(2.83151e-11 -6.19575e-08 0)
(2.8288e-11 -6.19577e-08 0)
(2.82994e-11 -6.19576e-08 0)
(2.82991e-11 -6.19576e-08 0)
(2.83018e-11 -6.19576e-08 0)
(2.83027e-11 -6.19576e-08 0)
(2.83042e-11 -6.19576e-08 0)
(2.83047e-11 -6.19576e-08 0)
(2.8306e-11 -6.19576e-08 0)
(2.83072e-11 -6.19576e-08 0)
(2.83071e-11 -6.19576e-08 0)
(1.6682e-09 9.48065e-10 0)
(-3.13412e-10 -7.6913e-08 0)
(1.74914e-10 -5.84104e-08 0)
(-3.86291e-12 -6.28009e-08 0)
(3.88486e-11 -6.17574e-08 0)
(2.52198e-11 -6.20053e-08 0)
(2.90973e-11 -6.19463e-08 0)
(2.80447e-11 -6.19603e-08 0)
(2.8364e-11 -6.1957e-08 0)
(2.8278e-11 -6.19578e-08 0)
(2.83045e-11 -6.19576e-08 0)
(2.82987e-11 -6.19576e-08 0)
(2.83018e-11 -6.19576e-08 0)
(2.83025e-11 -6.19576e-08 0)
(2.83038e-11 -6.19576e-08 0)
(2.83049e-11 -6.19576e-08 0)
(2.8306e-11 -6.19576e-08 0)
(2.83065e-11 -6.19576e-08 0)
(2.83072e-11 -6.19576e-08 0)
(2.83071e-11 -6.19576e-08 0)
(-1.25718e-09 -1.24953e-07 0)
(2.94458e-10 -4.6976e-08 0)
(-8.62075e-11 -6.55122e-08 0)
(5.32616e-11 -6.11127e-08 0)
(2.01259e-11 -6.21586e-08 0)
(3.06869e-11 -6.191e-08 0)
(2.7681e-11 -6.1969e-08 0)
(2.85003e-11 -6.19549e-08 0)
(2.82507e-11 -6.19583e-08 0)
(2.83189e-11 -6.19575e-08 0)
(2.82985e-11 -6.19577e-08 0)
(2.83042e-11 -6.19576e-08 0)
(2.83027e-11 -6.19576e-08 0)
(2.8304e-11 -6.19576e-08 0)
(2.83047e-11 -6.19576e-08 0)
(2.83051e-11 -6.19576e-08 0)
(2.83058e-11 -6.19576e-08 0)
(2.83065e-11 -6.19576e-08 0)
(2.83076e-11 -6.19576e-08 0)
(2.8307e-11 -6.19576e-08 0)
(9.3003e-10 1.1121e-09 0)
(-1.6051e-10 -7.69609e-08 0)
(1.07856e-10 -5.84002e-08 0)
(1.11322e-11 -6.28033e-08 0)
(3.38807e-11 -6.17569e-08 0)
(2.67661e-11 -6.20053e-08 0)
(2.87336e-11 -6.19463e-08 0)
(2.81972e-11 -6.19603e-08 0)
(2.83445e-11 -6.1957e-08 0)
(2.82994e-11 -6.19578e-08 0)
(2.83081e-11 -6.19576e-08 0)
(2.83038e-11 -6.19576e-08 0)
(2.83047e-11 -6.19576e-08 0)
(2.8304e-11 -6.19576e-08 0)
(2.83051e-11 -6.19576e-08 0)
(2.83054e-11 -6.19576e-08 0)
(2.83054e-11 -6.19576e-08 0)
(2.83067e-11 -6.19576e-08 0)
(2.83074e-11 -6.19576e-08 0)
(2.83072e-11 -6.19576e-08 0)
(-4.57433e-10 -1.25089e-07 0)
(1.69541e-10 -4.69142e-08 0)
(-3.32385e-11 -6.55293e-08 0)
(4.6262e-11 -6.1107e-08 0)
(2.24913e-11 -6.21603e-08 0)
(3.02222e-11 -6.19094e-08 0)
(2.77995e-11 -6.19691e-08 0)
(2.84961e-11 -6.19549e-08 0)
(2.82674e-11 -6.19583e-08 0)
(2.83252e-11 -6.19575e-08 0)
(2.83025e-11 -6.19577e-08 0)
(2.8307e-11 -6.19576e-08 0)
(2.83045e-11 -6.19576e-08 0)
(2.83045e-11 -6.19576e-08 0)
(2.83051e-11 -6.19576e-08 0)
(2.83054e-11 -6.19576e-08 0)
(2.83056e-11 -6.19576e-08 0)
(2.83067e-11 -6.19576e-08 0)
(2.83077e-11 -6.19576e-08 0)
(2.83074e-11 -6.19576e-08 0)
)
;

boundaryField
{
    movingWall
    {
        type            calculated;
        value           uniform (2.83069e-11 -6.19576e-08 0);
    }
    fixedWalls
    {
        type            calculated;
        value           uniform (2.83069e-11 -6.19576e-08 0);
    }
    frontAndBack
    {
        type            empty;
    }
}


// ************************************************************************* //
