/*--------------------------------*- C++ -*----------------------------------*\
| =========                 |                                                 |
| \\      /  F ield         | OpenFOAM: The Open Source CFD Toolbox           |
|  \\    /   O peration     | Version:  2506                                  |
|   \\  /    A nd           | Website:  www.openfoam.com                      |
|    \\/     M anipulation  |                                                 |
\*---------------------------------------------------------------------------*/
FoamFile
{
    version     2.0;
    format      ascii;
    arch        "LSB;label=32;scalar=64";
    class       volScalarField;
    location    "4";
    object      divPhi;
}
// * * * * * * * * * * * * * * * * * * * * * * * * * * * * * * * * * * * * * //

dimensions      [0 0 -1 0 0 0 0];

internalField   nonuniform List<scalar> 
400
(
1.13841e-12
2.40251e-14
5.6912e-14
4.2394e-14
3.51883e-14
3.01749e-14
7.02877e-15
3.89104e-14
6.02677e-15
1.56273e-14
-5.91586e-16
3.30015e-14
-1.10422e-15
7.7879e-15
2.2842e-14
1.06581e-14
-4.98325e-15
1.24528e-14
3.47526e-14
0
5.42101e-14
5.04815e-14
3.15815e-14
3.2208e-14
3.877e-14
3.59078e-14
1.66194e-14
4.51721e-14
1.83589e-14
-9.21064e-15
1.83811e-14
1.46992e-14
1.04891e-14
8.16104e-15
3.50422e-14
-7.41751e-15
2.42196e-14
2.22788e-14
3.25774e-14
0
-5.42101e-14
-1.93451e-14
2.56852e-14
4.1375e-14
2.79649e-14
-5.18687e-15
2.79392e-14
9.99918e-15
-6.6668e-15
2.42051e-14
-1.28599e-14
-1.78342e-14
4.15093e-14
3.27747e-14
2.50429e-14
-2.8157e-14
1.34875e-15
1.85254e-14
7.99964e-15
0
5.42101e-14
-1.07132e-14
3.16381e-14
-9.07305e-15
1.39584e-14
6.47496e-15
1.56071e-14
2.76739e-14
-4.81201e-15
7.63967e-15
6.53036e-15
1.99221e-15
2.3034e-14
4.75268e-15
1.7485e-14
2.43712e-14
1.19405e-16
1.50698e-15
1.41318e-14
0
-5.42101e-14
-1.45125e-14
-8.77531e-15
2.16084e-14
1.45465e-15
2.25369e-15
4.36317e-15
3.2373e-14
1.99422e-14
2.51332e-15
3.72661e-14
1.41077e-14
7.57675e-15
1.98888e-14
-1.56278e-14
2.973e-14
-1.58015e-14
-2.93659e-15
1.58673e-14
0
2.71051e-14
3.85341e-15
-2.83384e-14
2.4538e-14
-2.49285e-14
2.00803e-15
2.86119e-14
1.89052e-14
1.13678e-14
-6.41522e-15
1.6701e-14
-3.69545e-15
2.21615e-14
-1.30391e-14
4.91425e-15
1.33778e-14
2.12653e-14
-1.6663e-14
1.61238e-14
0
-5.42101e-14
4.6251e-15
2.4171e-15
1.2089e-14
-2.78791e-14
-1.40795e-15
2.58021e-15
5.84246e-15
2.90903e-14
5.15933e-15
-2.89094e-14
1.87576e-14
4.06619e-15
-1.67579e-14
7.62289e-15
2.15324e-14
8.67735e-15
-1.07945e-16
-1.31553e-14
0
2.71051e-14
-5.06993e-15
1.00888e-14
3.69431e-14
-8.31911e-15
2.38625e-14
7.12049e-15
-7.39664e-15
8.03844e-15
3.56946e-15
-1.34282e-14
-3.61079e-15
1.97608e-14
-6.72063e-15
-8.70046e-15
-3.16053e-16
1.25087e-14
-2.5104e-15
2.88065e-15
2.71051e-14
-2.71051e-14
-2.93611e-15
-6.75036e-15
-7.31213e-15
-1.52044e-14
4.41022e-15
-6.84584e-15
-7.43993e-15
2.27637e-14
-6.90237e-15
-3.25852e-14
1.05523e-14
-3.07875e-14
-8.02361e-15
2.06786e-14
-5.43679e-15
1.50299e-14
-3.12852e-14
1.86693e-14
-2.71051e-14
0
-2.45945e-14
-1.85728e-15
-2.56915e-14
3.86784e-15
2.08293e-15
-2.1353e-14
-8.93305e-16
1.60584e-14
-3.61006e-15
-2.90918e-14
7.61322e-15
7.7405e-15
3.64167e-15
-2.34497e-14
-1.47719e-14
-1.13138e-14
-1.6352e-14
-9.48908e-15
0
-2.71051e-14
-1.23538e-14
-1.65421e-14
-1.63235e-14
-7.80262e-15
3.61071e-15
2.45378e-14
-3.60477e-14
-1.04065e-14
-1.2771e-14
1.15909e-14
-1.20665e-14
-4.63069e-15
-4.62259e-15
-1.11683e-14
2.40664e-14
-3.95154e-15
9.53854e-15
-1.1735e-14
0
0
-2.07056e-14
7.40173e-15
-3.39507e-14
-2.50452e-14
-1.80279e-14
-1.07155e-14
-2.09965e-14
-3.26071e-14
-3.84315e-14
1.62536e-14
8.08594e-15
-2.40826e-14
-1.72262e-14
-1.69089e-14
-2.94582e-14
-2.60478e-14
7.26464e-15
-3.65314e-14
2.71051e-14
-5.42101e-14
-2.70777e-14
9.47041e-15
-3.08029e-14
-2.60888e-14
4.43821e-15
-4.38614e-14
1.92272e-14
-1.84999e-14
-2.46922e-14
-1.78349e-14
-7.44172e-15
1.35145e-14
2.08023e-15
-2.3166e-14
-1.96258e-14
1.21755e-14
-9.9441e-15
5.28555e-15
-2.71051e-14
-2.71051e-14
-1.35496e-14
-3.36132e-14
4.9633e-15
-2.33319e-14
1.06717e-14
-9.95113e-16
-2.67042e-14
-1.46801e-14
-4.46924e-15
-1.14246e-14
-1.91023e-14
9.74912e-15
-2.53253e-14
1.45062e-14
6.89722e-15
-1.33396e-14
-3.1462e-14
9.42917e-15
0
0
-3.55088e-14
-2.73004e-14
-1.05307e-14
-1.04358e-14
4.41897e-18
9.02914e-16
-2.84222e-14
5.87201e-15
-1.40379e-14
-2.97581e-14
9.75501e-16
1.87728e-15
-2.75103e-14
-2.0299e-14
2.49333e-14
-4.34074e-14
-1.35058e-14
2.31772e-14
0
-5.42101e-14
-3.46331e-14
1.50269e-15
-4.8049e-14
-1.97921e-15
-1.38749e-14
-2.57974e-14
-2.06914e-14
-2.58524e-14
1.21809e-14
-2.61605e-14
-1.17645e-14
-2.51096e-14
-7.24985e-15
1.12143e-14
-2.92548e-14
1.37667e-14
-3.97585e-14
-7.40278e-15
-2.71051e-14
-2.71051e-14
-4.74192e-14
-1.25177e-14
7.16664e-15
-4.85344e-14
2.26779e-14
-3.7559e-14
-6.37863e-15
-7.29903e-15
2.12221e-15
-6.3522e-15
-4.4703e-14
-1.18171e-14
-1.21e-14
4.53013e-15
1.34963e-15
-3.12715e-14
-2.5908e-14
5.43045e-15
0
-2.71051e-14
-1.37734e-14
-3.20227e-14
1.74586e-15
-2.01791e-14
-3.39612e-14
-2.31059e-14
-3.06686e-14
6.97776e-15
-2.1987e-14
-1.62786e-14
-1.11082e-14
-1.69451e-14
-1.53956e-14
-3.57736e-14
-5.53013e-17
9.75156e-15
-2.51453e-14
-1.89171e-14
0
-5.42101e-14
-6.03932e-15
-2.12143e-14
-2.89087e-14
1.44784e-14
-3.16188e-14
-2.80196e-14
-1.3787e-14
-1.68946e-14
4.86012e-15
1.85542e-15
-2.77873e-14
-1.04262e-14
-3.73972e-15
-4.14986e-14
-8.32789e-15
-1.19659e-14
-8.38931e-15
-6.7288e-15
-2.71051e-14
0
-2.71051e-14
0
0
-2.71051e-14
-2.71051e-14
2.71051e-14
-2.71051e-14
2.71051e-14
0
0
0
-2.71051e-14
0
0
-2.71051e-14
-2.71051e-14
0
-2.71051e-14
0
)
;

boundaryField
{
    movingWall
    {
        type            extrapolatedCalculated;
        value           nonuniform List<scalar> 
20
(
0
-2.71051e-14
0
0
-2.71051e-14
-2.71051e-14
2.71051e-14
-2.71051e-14
2.71051e-14
0
0
0
-2.71051e-14
0
0
-2.71051e-14
-2.71051e-14
0
-2.71051e-14
0
)
;
    }
    fixedWalls
    {
        type            extrapolatedCalculated;
        value           nonuniform List<scalar> 
60
(
1.13841e-12
5.42101e-14
-5.42101e-14
5.42101e-14
-5.42101e-14
2.71051e-14
-5.42101e-14
2.71051e-14
-2.71051e-14
0
-2.71051e-14
0
-5.42101e-14
-2.71051e-14
0
-5.42101e-14
-2.71051e-14
-2.71051e-14
-5.42101e-14
0
0
0
0
0
0
0
0
2.71051e-14
-2.71051e-14
0
0
2.71051e-14
-2.71051e-14
0
0
-2.71051e-14
0
0
-2.71051e-14
0
1.13841e-12
2.40251e-14
5.6912e-14
4.2394e-14
3.51883e-14
3.01749e-14
7.02877e-15
3.89104e-14
6.02677e-15
1.56273e-14
-5.91586e-16
3.30015e-14
-1.10422e-15
7.7879e-15
2.2842e-14
1.06581e-14
-4.98325e-15
1.24528e-14
3.47526e-14
0
)
;
    }
    frontAndBack
    {
        type            empty;
    }
}


// ************************************************************************* //
