/*--------------------------------*- C++ -*----------------------------------*\
| =========                 |                                                 |
| \\      /  F ield         | OpenFOAM: The Open Source CFD Toolbox           |
|  \\    /   O peration     | Version:  2506                                  |
|   \\  /    A nd           | Website:  www.openfoam.com                      |
|    \\/     M anipulation  |                                                 |
\*---------------------------------------------------------------------------*/
FoamFile
{
    version     2.0;
    format      ascii;
    arch        "LSB;label=32;scalar=64";
    class       volScalarField;
    location    "4";
    object      divU;
}
// * * * * * * * * * * * * * * * * * * * * * * * * * * * * * * * * * * * * * //

dimensions      [0 0 -1 0 0 0 0];

internalField   nonuniform List<scalar> 
400
(
3.53062e-09
2.36831e-10
-2.61795e-09
1.57956e-09
-6.60713e-10
2.21643e-10
-8.01437e-11
2.26369e-11
-8.39751e-12
1.95221e-12
-8.62379e-13
1.04646e-13
-1.33356e-13
2.67854e-14
1.38999e-14
-3.91548e-14
1.19068e-14
-4.47876e-14
3.7681e-14
5.42101e-14
-2.13197e-08
1.99843e-08
-4.95041e-09
1.98535e-09
-5.56918e-10
1.78118e-10
-5.7145e-11
1.71961e-11
-5.62999e-12
1.59936e-12
-5.37679e-13
3.42895e-14
-5.39153e-14
-5.68022e-15
-2.22346e-14
2.63862e-14
2.78411e-14
1.43475e-14
-4.37724e-15
-2.71051e-14
3.20494e-08
-3.24353e-08
7.61692e-09
-2.95075e-09
8.09771e-10
-2.23e-10
7.68427e-11
-1.88566e-11
6.40663e-12
-1.62712e-12
5.24117e-13
-1.48804e-13
4.40324e-14
-2.96427e-15
3.83077e-14
-7.81694e-15
-7.43813e-14
1.24708e-14
5.55967e-14
0
-5.29742e-08
5.85922e-08
-1.36429e-08
5.44547e-09
-1.38007e-09
4.28459e-10
-1.31182e-10
3.75241e-11
-1.07967e-11
3.53508e-12
-8.122e-13
3.88928e-13
-4.44784e-14
5.14554e-14
-1.47251e-14
4.47445e-14
-1.30636e-14
1.05058e-14
6.00317e-14
-2.71051e-14
7.49605e-08
-8.63336e-08
1.9316e-08
-8.02338e-09
1.89506e-09
-6.13623e-10
1.83946e-10
-4.98306e-11
1.57281e-11
-4.20531e-12
1.40361e-12
-3.42899e-13
1.52662e-13
3.87818e-14
4.62104e-14
-1.59023e-14
-5.0028e-14
2.47293e-14
7.08784e-14
-2.71051e-14
-9.8616e-08
1.16864e-07
-2.56223e-08
1.08384e-08
-2.47099e-09
8.18469e-10
-2.40681e-10
6.54255e-11
-2.01435e-11
5.82301e-12
-1.53415e-12
5.86842e-13
-1.05337e-13
8.39752e-14
-2.83842e-15
2.88149e-14
8.74407e-15
4.24048e-15
9.44767e-15
2.71051e-14
1.20279e-07
-1.45671e-07
3.14766e-08
-1.35173e-08
3.01168e-09
-1.01763e-09
2.95384e-10
-7.99761e-11
2.49181e-11
-6.88696e-12
2.06771e-12
-4.97629e-13
2.15693e-13
-1.20102e-13
6.99265e-14
1.4963e-14
3.79167e-14
-4.34764e-14
2.91955e-14
0
-1.39236e-07
1.71247e-07
-3.66129e-08
1.58702e-08
-3.47455e-09
1.18696e-09
-3.41278e-10
9.2155e-11
-2.86852e-11
7.94832e-12
-2.22e-12
7.08246e-13
-2.00462e-13
9.3679e-14
-8.43039e-16
-6.36059e-15
-5.54246e-14
9.13163e-14
5.8274e-14
-2.71051e-14
1.55188e-07
-1.93205e-07
4.10395e-08
-1.79144e-08
3.8862e-09
-1.34073e-09
3.83069e-10
-1.03491e-10
3.22234e-11
-8.92306e-12
2.62292e-12
-6.98004e-13
2.0355e-13
-4.14148e-14
1.76524e-14
3.24743e-14
-3.35281e-14
4.00115e-14
-1.31951e-14
2.71051e-14
-1.66062e-07
2.08696e-07
-4.40172e-08
1.93279e-08
-4.14679e-09
1.438e-09
-4.08704e-10
1.09911e-10
-3.42377e-11
9.46892e-12
-2.7703e-12
7.84298e-13
-2.1118e-13
7.87887e-14
9.12478e-14
-2.63424e-14
-6.35204e-14
1.45513e-14
-2.47465e-14
0
1.73325e-07
-2.19549e-07
4.61402e-08
-2.03404e-08
4.34811e-09
-1.5142e-09
4.29429e-10
-1.15717e-10
3.59903e-11
-9.88193e-12
2.84154e-12
-8.38781e-13
2.07815e-13
-7.26979e-14
5.18535e-14
4.12975e-14
2.835e-14
-6.31162e-14
-2.25272e-14
2.71051e-14
-1.7431e-07
2.22272e-07
-4.64451e-08
2.05657e-08
-4.36206e-09
1.52054e-09
-4.30188e-10
1.15256e-10
-3.59897e-11
9.8051e-12
-2.79949e-12
8.11831e-13
-2.271e-13
1.2036e-13
-1.40296e-14
-1.84919e-14
-4.24629e-14
-4.42306e-14
3.56256e-15
2.71051e-14
1.71453e-07
-2.19902e-07
4.58438e-08
-2.03506e-08
4.31413e-09
-1.50407e-09
4.25742e-10
-1.14186e-10
3.54827e-11
-9.79913e-12
2.88245e-12
-8.34265e-13
1.88815e-13
-6.74152e-14
5.81921e-14
-6.70539e-14
1.64151e-14
1.94493e-14
5.76311e-15
-5.42101e-14
-1.62256e-07
2.09179e-07
-4.33892e-08
1.9329e-08
-4.07542e-09
1.41697e-09
-4.01279e-10
1.06903e-10
-3.33833e-11
9.0774e-12
-2.6109e-12
8.32251e-13
-2.18273e-13
-6.6944e-15
-2.51806e-14
-1.06971e-14
-9.54401e-15
-4.47063e-14
3.17548e-14
0
1.49377e-07
-1.93472e-07
4.00606e-08
-1.78777e-08
3.7762e-09
-1.30777e-09
3.7145e-10
-9.90511e-11
3.07708e-11
-8.47305e-12
2.42925e-12
-7.31747e-13
2.0742e-13
-1.29842e-13
3.24933e-14
-5.87797e-14
9.66146e-15
8.49157e-15
-1.99499e-14
0
-1.31271e-07
1.70737e-07
-3.51986e-08
1.57473e-08
-3.31845e-09
1.14054e-09
-3.2534e-10
8.61149e-11
-2.68224e-11
7.2996e-12
-2.17111e-12
5.83293e-13
-2.39177e-13
2.40658e-14
-7.58827e-14
-3.18882e-14
-2.2074e-14
4.22289e-14
1.56033e-14
-2.71051e-14
1.09875e-07
-1.43533e-07
2.9471e-08
-1.32255e-08
2.79222e-09
-9.49105e-10
2.72991e-10
-7.18366e-11
2.22318e-11
-6.15053e-12
1.72752e-12
-5.59702e-13
1.15177e-13
-1.06686e-13
-1.2268e-14
7.20325e-14
-3.68162e-14
-3.91157e-14
-3.27475e-14
0
-8.553e-08
1.12307e-07
-2.31015e-08
1.0401e-08
-2.20729e-09
7.47878e-10
-2.1728e-10
5.75363e-11
-1.79752e-11
5.02616e-12
-1.44878e-12
3.68653e-13
-1.17816e-13
1.25417e-14
-2.94491e-14
-3.36472e-14
-9.63961e-14
3.94362e-14
-3.75869e-14
0
5.77774e-08
-7.60298e-08
1.54593e-08
-6.82981e-09
1.39421e-09
-4.60758e-10
1.30675e-10
-3.28402e-11
9.95782e-12
-2.72277e-12
5.66669e-13
-2.7529e-13
-1.83865e-14
-1.0726e-13
4.18996e-14
-1.60449e-13
-4.88923e-14
4.51181e-14
-5.58363e-14
2.71051e-14
-2.8328e-08
3.83983e-08
-1.09057e-08
5.07756e-09
-1.40984e-09
4.80844e-10
-1.49539e-10
4.33139e-11
-1.39862e-11
3.71339e-12
-1.32815e-12
2.98156e-13
-2.43945e-13
0
0
0
0
-2.71051e-14
-5.42101e-14
0
)
;

boundaryField
{
    movingWall
    {
        type            extrapolatedCalculated;
        value           nonuniform List<scalar> 
20
(
-2.8328e-08
3.83983e-08
-1.09057e-08
5.07756e-09
-1.40984e-09
4.80844e-10
-1.49539e-10
4.33139e-11
-1.39862e-11
3.71339e-12
-1.32815e-12
2.98156e-13
-2.43945e-13
0
0
0
0
-2.71051e-14
-5.42101e-14
0
)
;
    }
    fixedWalls
    {
        type            extrapolatedCalculated;
        value           nonuniform List<scalar> 
60
(
3.53062e-09
-2.13197e-08
3.20494e-08
-5.29742e-08
7.49605e-08
-9.8616e-08
1.20279e-07
-1.39236e-07
1.55188e-07
-1.66062e-07
1.73325e-07
-1.7431e-07
1.71453e-07
-1.62256e-07
1.49377e-07
-1.31271e-07
1.09875e-07
-8.553e-08
5.77774e-08
-2.8328e-08
5.42101e-14
-2.71051e-14
0
-2.71051e-14
-2.71051e-14
2.71051e-14
0
-2.71051e-14
2.71051e-14
0
2.71051e-14
2.71051e-14
-5.42101e-14
0
0
-2.71051e-14
0
0
2.71051e-14
0
3.53062e-09
2.36831e-10
-2.61795e-09
1.57956e-09
-6.60713e-10
2.21643e-10
-8.01437e-11
2.26369e-11
-8.39751e-12
1.95221e-12
-8.62379e-13
1.04646e-13
-1.33356e-13
2.67854e-14
1.38999e-14
-3.91548e-14
1.19068e-14
-4.47876e-14
3.7681e-14
5.42101e-14
)
;
    }
    frontAndBack
    {
        type            empty;
    }
}


// ************************************************************************* //
