/*--------------------------------*- C++ -*----------------------------------*\
| =========                 |                                                 |
| \\      /  F ield         | OpenFOAM: The Open Source CFD Toolbox           |
|  \\    /   O peration     | Version:  2506                                  |
|   \\  /    A nd           | Website:  www.openfoam.com                      |
|    \\/     M anipulation  |                                                 |
\*---------------------------------------------------------------------------*/
FoamFile
{
    version     2.0;
    format      ascii;
    arch        "LSB;label=32;scalar=64";
    class       volScalarField;
    location    "4";
    object      dpdt2;
}
// * * * * * * * * * * * * * * * * * * * * * * * * * * * * * * * * * * * * * //

dimensions      [0 4 -6 0 0 0 0];

internalField   nonuniform List<scalar> 
400
(
2.67726e-26
7.70681e-21
8.23812e-21
8.98183e-21
1.21692e-20
1.41272e-20
1.60954e-20
1.75587e-20
1.87991e-20
1.98185e-20
2.06523e-20
2.13199e-20
2.19311e-20
2.2509e-20
2.30494e-20
2.35683e-20
2.40429e-20
2.44333e-20
2.48128e-20
2.50749e-20
2.13379e-20
2.96918e-20
8.84005e-21
7.92434e-21
1.36973e-20
1.49008e-20
1.69214e-20
1.82321e-20
1.94239e-20
2.03586e-20
2.11217e-20
2.1756e-20
2.23216e-20
2.28535e-20
2.3375e-20
2.38708e-20
2.43144e-20
2.47041e-20
2.50644e-20
2.53204e-20
1.06276e-20
2.35106e-19
7.55994e-21
1.76484e-20
1.35537e-20
1.70621e-20
1.82792e-20
1.96925e-20
2.06488e-20
2.14547e-20
2.20785e-20
2.26088e-20
2.3099e-20
2.35558e-20
2.40158e-20
2.44521e-20
2.48689e-20
2.52471e-20
2.55821e-20
2.58242e-20
1.12165e-19
2.73328e-19
1.57617e-20
8.18215e-21
1.98074e-20
1.91134e-20
2.10257e-20
2.17523e-20
2.25496e-20
2.3102e-20
2.35547e-20
2.39299e-20
2.42667e-20
2.45987e-20
2.49714e-20
2.53445e-20
2.56913e-20
2.603e-20
2.63272e-20
2.65605e-20
2.51221e-20
9.71926e-19
1.69203e-20
3.86236e-20
1.97329e-20
2.40085e-20
2.38036e-20
2.47126e-20
2.50248e-20
2.53393e-20
2.55129e-20
2.56698e-20
2.58377e-20
2.60019e-20
2.62553e-20
2.65094e-20
2.67872e-20
2.70704e-20
2.73286e-20
2.75435e-20
2.407e-19
8.34687e-19
2.7872e-20
9.84236e-21
3.10322e-20
2.71697e-20
2.86146e-20
2.81525e-20
2.82173e-20
2.80892e-20
2.79783e-20
2.78602e-20
2.7781e-20
2.77465e-20
2.78313e-20
2.7954e-20
2.81378e-20
2.83539e-20
2.8549e-20
2.87458e-20
3.4484e-20
2.16e-18
3.3504e-20
7.15925e-20
2.99641e-20
3.48992e-20
3.25867e-20
3.26338e-20
3.18829e-20
3.13701e-20
3.08655e-20
3.044e-20
3.00758e-20
2.98196e-20
2.97031e-20
2.96628e-20
2.97216e-20
2.98544e-20
3.00043e-20
3.01555e-20
3.56766e-19
1.5521e-18
4.23684e-20
1.32212e-20
4.63016e-20
3.85261e-20
3.92877e-20
3.72848e-20
3.62373e-20
3.50899e-20
3.41707e-20
3.33466e-20
3.26753e-20
3.21693e-20
3.18327e-20
3.16187e-20
3.15344e-20
3.15692e-20
3.16609e-20
3.17742e-20
3.114e-20
3.38423e-18
5.49324e-20
1.09089e-19
4.32189e-20
4.86867e-20
4.40129e-20
4.28794e-20
4.08497e-20
3.925e-20
3.77906e-20
3.6571e-20
3.55563e-20
3.47563e-20
3.41767e-20
3.37825e-20
3.35395e-20
3.34384e-20
3.34683e-20
3.35512e-20
4.17839e-19
2.09217e-18
5.71563e-20
1.91304e-20
6.36284e-20
5.22227e-20
5.19861e-20
4.82782e-20
4.59594e-20
4.36186e-20
4.16893e-20
4.00228e-20
3.86371e-20
3.7517e-20
3.66834e-20
3.61015e-20
3.57054e-20
3.54562e-20
3.53821e-20
3.54216e-20
1.45781e-20
4.14663e-18
7.83475e-20
1.41706e-19
5.81421e-20
6.37195e-20
5.68702e-20
5.44272e-20
5.10116e-20
4.82382e-20
4.57256e-20
4.36186e-20
4.18415e-20
4.04205e-20
3.93172e-20
3.85033e-20
3.79421e-20
3.7554e-20
3.74221e-20
3.73834e-20
4.1061e-19
2.15797e-18
7.15043e-20
2.87408e-20
8.06649e-20
6.65941e-20
6.52047e-20
5.9943e-20
5.63307e-20
5.28138e-20
4.98185e-20
4.72365e-20
4.51156e-20
4.33805e-20
4.19723e-20
4.09439e-20
4.02356e-20
3.97134e-20
3.94706e-20
3.93811e-20
8.68015e-22
4.10877e-18
9.99492e-20
1.61768e-19
7.31405e-20
7.79692e-20
6.9627e-20
6.59187e-20
6.12883e-20
5.73647e-20
5.38367e-20
5.08468e-20
4.83308e-20
4.62932e-20
4.46283e-20
4.33878e-20
4.24787e-20
4.18344e-20
4.15195e-20
4.1384e-20
3.55222e-19
1.68603e-18
8.48899e-20
4.27637e-20
9.49548e-20
7.99725e-20
7.72972e-20
7.0868e-20
6.61481e-20
6.16219e-20
5.76858e-20
5.42707e-20
5.14186e-20
4.90748e-20
4.71794e-20
4.57438e-20
4.46628e-20
4.38879e-20
4.34829e-20
4.32768e-20
5.95714e-21
3.27588e-18
1.15942e-19
1.65924e-19
8.65665e-20
8.96851e-20
8.07094e-20
7.59443e-20
7.03795e-20
6.55607e-20
6.12292e-20
5.74647e-20
5.42915e-20
5.16575e-20
4.95646e-20
4.79369e-20
4.67168e-20
4.58173e-20
4.53052e-20
4.50488e-20
2.80429e-19
9.06609e-19
9.63105e-20
6.11175e-20
1.04749e-19
9.06682e-20
8.6728e-20
7.97551e-20
7.42334e-20
6.89687e-20
6.43631e-20
6.02985e-20
5.68826e-20
5.40205e-20
5.17044e-20
4.99192e-20
4.8532e-20
4.75758e-20
4.69627e-20
4.66676e-20
3.3803e-20
2.00554e-18
1.23901e-19
1.54964e-19
9.68619e-20
9.74751e-20
8.8913e-20
8.32993e-20
7.72408e-20
7.18675e-20
6.69868e-20
6.27099e-20
5.91032e-20
5.60329e-20
5.35537e-20
5.16037e-20
5.01247e-20
4.90535e-20
4.83859e-20
4.80168e-20
2.0919e-19
2.21406e-19
1.06317e-19
8.25944e-20
1.09297e-19
9.75799e-20
9.25853e-20
8.55967e-20
7.96888e-20
7.40629e-20
6.90135e-20
6.46153e-20
6.08416e-20
5.76478e-20
5.50422e-20
5.29874e-20
5.13888e-20
5.02496e-20
4.95148e-20
4.90859e-20
7.68478e-20
8.03615e-19
1.24901e-19
1.3358e-19
1.03445e-19
1.00664e-19
9.33019e-20
8.72885e-20
8.11596e-20
7.54881e-20
7.03735e-20
6.58887e-20
6.20415e-20
5.87792e-20
5.60879e-20
5.39294e-20
5.22953e-20
5.10991e-20
5.03016e-20
4.98337e-20
1.41771e-19
7.19471e-21
1.22457e-19
1.00395e-19
1.08828e-19
9.97892e-20
9.4424e-20
8.7831e-20
8.18463e-20
7.61359e-20
7.10271e-20
6.65052e-20
6.2623e-20
5.93187e-20
5.66065e-20
5.4442e-20
5.27256e-20
5.15121e-20
5.07238e-20
5.02411e-20
)
;

boundaryField
{
    movingWall
    {
        type            calculated;
        value           nonuniform List<scalar> 
20
(
1.41771e-19
7.19471e-21
1.22457e-19
1.00395e-19
1.08828e-19
9.97892e-20
9.4424e-20
8.7831e-20
8.18463e-20
7.61359e-20
7.10271e-20
6.65052e-20
6.2623e-20
5.93187e-20
5.66065e-20
5.4442e-20
5.27256e-20
5.15121e-20
5.07238e-20
5.02411e-20
)
;
    }
    fixedWalls
    {
        type            calculated;
        value           nonuniform List<scalar> 
60
(
2.67726e-26
2.13379e-20
1.06276e-20
1.12165e-19
2.51221e-20
2.407e-19
3.4484e-20
3.56766e-19
3.114e-20
4.17839e-19
1.45781e-20
4.1061e-19
8.68015e-22
3.55222e-19
5.95714e-21
2.80429e-19
3.3803e-20
2.0919e-19
7.68478e-20
1.41771e-19
2.50749e-20
2.53204e-20
2.58242e-20
2.65605e-20
2.75435e-20
2.87458e-20
3.01555e-20
3.17742e-20
3.35512e-20
3.54216e-20
3.73834e-20
3.93811e-20
4.1384e-20
4.32768e-20
4.50488e-20
4.66676e-20
4.80168e-20
4.90859e-20
4.98337e-20
5.02411e-20
2.67726e-26
7.70681e-21
8.23812e-21
8.98183e-21
1.21692e-20
1.41272e-20
1.60954e-20
1.75587e-20
1.87991e-20
1.98185e-20
2.06523e-20
2.13199e-20
2.19311e-20
2.2509e-20
2.30494e-20
2.35683e-20
2.40429e-20
2.44333e-20
2.48128e-20
2.50749e-20
)
;
    }
    frontAndBack
    {
        type            empty;
    }
}


// ************************************************************************* //
