/*--------------------------------*- C++ -*----------------------------------*\
| =========                 |                                                 |
| \\      /  F ield         | OpenFOAM: The Open Source CFD Toolbox           |
|  \\    /   O peration     | Version:  2506                                  |
|   \\  /    A nd           | Website:  www.openfoam.com                      |
|    \\/     M anipulation  |                                                 |
\*---------------------------------------------------------------------------*/
FoamFile
{
    version     2.0;
    format      ascii;
    arch        "LSB;label=32;scalar=64";
    class       volScalarField;
    location    "4";
    object      dUdt2;
}
// * * * * * * * * * * * * * * * * * * * * * * * * * * * * * * * * * * * * * //

dimensions      [0 2 -4 0 0 0 0];

internalField   nonuniform List<scalar> 
400
(
3.68965e-14
2.06093e-15
1.1587e-16
6.48572e-18
3.6259e-19
2.03337e-20
1.13137e-21
6.42983e-23
3.6078e-24
3.84398e-25
1.85019e-25
1.13491e-25
5.99323e-26
7.11793e-26
5.97292e-26
3.16762e-26
4.94388e-26
3.15854e-26
1.85339e-26
4.13334e-26
3.69107e-14
2.05579e-15
1.15273e-16
6.42467e-18
3.57159e-19
1.98583e-20
1.11945e-21
5.73961e-23
4.37998e-24
2.33834e-25
1.86808e-25
7.26097e-26
5.27114e-26
6.01265e-26
5.98371e-26
4.95333e-26
5.16484e-26
5.02414e-26
3.00534e-26
1.28944e-25
3.69653e-14
2.05356e-15
1.15411e-16
6.41529e-18
3.57053e-19
2.01579e-20
1.07611e-21
6.91844e-23
2.49382e-24
6.40075e-25
1.27776e-25
8.18275e-26
3.68183e-26
3.16929e-26
3.99363e-26
4.04051e-26
2.84756e-26
1.88306e-26
6.4969e-26
2.97854e-25
3.70546e-14
2.05294e-15
1.15675e-16
6.39035e-18
3.59638e-19
1.97253e-20
1.16174e-21
5.35449e-23
5.42617e-24
7.21421e-26
1.6803e-25
9.03788e-26
8.48566e-26
4.01066e-26
4.00169e-26
5.01313e-26
6.81826e-26
1.4184e-26
7.38293e-26
5.19183e-25
3.72484e-14
2.06393e-15
1.16426e-16
6.45795e-18
3.59647e-19
2.06846e-20
1.06697e-21
7.55758e-23
1.95495e-24
7.46175e-25
5.05501e-26
6.31498e-26
4.74347e-26
1.95148e-26
1.78025e-26
2.41703e-26
3.44034e-26
4.29716e-26
6.24444e-26
8.23268e-25
3.75178e-14
2.07705e-15
1.17787e-16
6.4895e-18
3.6971e-19
2.02877e-20
1.22581e-21
5.53281e-23
5.87646e-24
3.34329e-26
1.48723e-25
3.67843e-26
4.58677e-26
1.46181e-26
1.84755e-26
4.55319e-27
2.20205e-26
1.4952e-26
7.65116e-26
1.08212e-24
3.79207e-14
2.10312e-15
1.19527e-16
6.6303e-18
3.73908e-19
2.16375e-20
1.13644e-21
8.10745e-23
2.47016e-24
6.21444e-25
3.5926e-26
4.07657e-26
2.25764e-26
8.89964e-27
1.04468e-26
1.23377e-26
2.47657e-26
9.55584e-27
9.07088e-26
1.3888e-24
3.83803e-14
2.12991e-15
1.21629e-16
6.71818e-18
3.8651e-19
2.15679e-20
1.2856e-21
6.6462e-23
5.82988e-24
2.51631e-25
1.06955e-25
2.97376e-26
1.535e-26
1.29006e-28
4.1344e-27
4.81141e-29
1.57474e-26
6.91083e-28
1.08561e-25
1.6732e-24
3.89624e-14
2.16798e-15
1.2412e-16
6.89627e-18
3.95277e-19
2.27725e-20
1.26024e-21
8.00055e-23
4.22124e-24
4.87234e-25
9.80538e-26
2.16519e-26
3.2667e-26
6.12442e-27
1.57664e-26
1.00165e-27
1.94057e-26
7.80237e-28
1.17731e-25
1.80512e-24
3.95763e-14
2.20633e-15
1.26573e-16
7.03188e-18
4.06305e-19
2.31858e-20
1.33298e-21
8.08249e-23
4.65608e-24
4.7924e-25
4.2353e-26
4.93046e-26
7.9508e-27
1.4842e-26
2.57309e-26
7.1502e-27
1.10271e-26
8.1927e-27
1.18368e-25
1.87488e-24
4.0278e-14
2.25251e-15
1.29441e-16
7.21722e-18
4.18567e-19
2.38374e-20
1.39683e-21
7.73325e-23
6.48644e-24
2.15861e-25
1.88919e-25
4.99233e-26
3.385e-26
2.76727e-26
3.22359e-26
1.51125e-26
4.02571e-27
2.01572e-27
1.11603e-25
1.91251e-24
4.09868e-14
2.29882e-15
1.31911e-16
7.38524e-18
4.25869e-19
2.47481e-20
1.36295e-21
9.45695e-23
3.53556e-24
9.16592e-25
7.17566e-26
8.94098e-26
5.92978e-26
4.74249e-26
5.37141e-26
3.20411e-26
2.06606e-26
2.07016e-27
1.16971e-25
1.87358e-24
4.17298e-14
2.34789e-15
1.34779e-16
7.55292e-18
4.3983e-19
2.47464e-20
1.51174e-21
7.30114e-23
7.8396e-24
5.96601e-26
2.39412e-25
3.92221e-26
5.95493e-26
4.95929e-26
4.94883e-26
4.26417e-26
1.85061e-26
9.56151e-27
1.23773e-25
1.68179e-24
4.24554e-14
2.39704e-15
1.37012e-16
7.73466e-18
4.43099e-19
2.59981e-20
1.38846e-21
1.0292e-22
2.64374e-24
1.15168e-24
6.02318e-26
1.01474e-25
5.27646e-26
7.27456e-26
6.11803e-26
3.1129e-26
3.96069e-27
9.08762e-27
1.28907e-25
1.40302e-24
4.31492e-14
2.44283e-15
1.39538e-16
7.86601e-18
4.569e-19
2.54529e-20
1.5881e-21
7.20703e-23
8.58979e-24
2.02804e-27
2.72271e-25
5.93805e-26
4.84304e-26
6.88223e-26
7.77097e-26
6.23423e-26
1.91953e-26
8.45446e-27
1.06408e-25
1.16159e-24
4.38013e-14
2.48836e-15
1.41343e-16
8.04036e-18
4.5698e-19
2.68556e-20
1.41631e-21
1.05687e-22
2.5907e-24
1.06852e-24
6.27193e-26
8.93927e-26
3.36256e-26
4.4321e-26
6.73872e-26
4.57574e-26
3.15906e-26
2.01151e-26
9.26522e-26
8.84588e-25
4.43554e-14
2.52437e-15
1.43268e-16
8.12308e-18
4.68728e-19
2.60254e-20
1.61571e-21
7.34953e-23
8.05352e-24
5.57187e-26
2.37063e-25
4.29763e-26
3.46777e-26
3.10012e-26
3.51464e-26
2.4934e-26
3.19804e-26
2.03813e-26
8.89839e-26
5.63061e-25
4.48388e-14
2.55879e-15
1.44545e-16
8.26222e-18
4.67389e-19
2.7282e-20
1.45871e-21
1.01978e-22
3.32759e-24
8.77459e-25
5.41498e-26
6.72219e-26
2.8335e-26
2.17636e-26
2.40859e-26
3.78903e-26
1.79553e-26
2.4757e-26
5.80053e-26
3.20426e-25
4.51819e-14
2.58041e-15
1.45683e-16
8.27921e-18
4.74108e-19
2.64516e-20
1.57555e-21
8.08361e-23
6.32719e-24
2.53482e-25
1.04158e-25
2.42809e-26
8.69486e-27
6.22577e-27
4.80554e-27
1.83707e-26
3.40149e-26
8.31944e-27
6.21999e-26
1.40816e-25
4.5465e-14
2.61528e-15
1.47545e-16
8.47844e-18
4.84107e-19
2.77456e-20
1.59181e-21
9.33139e-23
5.69323e-24
4.2157e-25
6.72462e-26
2.48993e-26
2.20456e-27
9.72642e-30
7.94863e-27
1.90266e-26
2.03369e-26
2.47541e-27
2.57419e-26
5.23941e-26
)
;

boundaryField
{
    movingWall
    {
        type            calculated;
        value           uniform 0;
    }
    fixedWalls
    {
        type            calculated;
        value           uniform 0;
    }
    frontAndBack
    {
        type            empty;
    }
}


// ************************************************************************* //
