/*--------------------------------*- C++ -*----------------------------------*\
| =========                 |                                                 |
| \\      /  F ield         | OpenFOAM: The Open Source CFD Toolbox           |
|  \\    /   O peration     | Version:  2506                                  |
|   \\  /    A nd           | Website:  www.openfoam.com                      |
|    \\/     M anipulation  |                                                 |
\*---------------------------------------------------------------------------*/
FoamFile
{
    version     2.0;
    format      ascii;
    arch        "LSB;label=32;scalar=64";
    class       volScalarField;
    location    "4";
    object      enstrophyField;
}
// * * * * * * * * * * * * * * * * * * * * * * * * * * * * * * * * * * * * * //

dimensions      [0 0 -2 0 0 0 0];

internalField   nonuniform List<scalar> 
400
(
1.12654e-11
1.71443e-11
9.66565e-13
5.47192e-14
3.07473e-15
1.76417e-16
9.63405e-18
6.02533e-19
2.56693e-20
3.06089e-21
1.39139e-24
7.72733e-23
1.48846e-23
1.04069e-23
4.23533e-24
1.88857e-24
6.77803e-25
1.74693e-25
9.00739e-27
2.25567e-27
1.13182e-11
1.71593e-11
9.67392e-13
5.45301e-14
3.07374e-15
1.73232e-16
9.76645e-18
5.49851e-19
3.11153e-20
1.72279e-21
1.03462e-22
4.65281e-24
5.46689e-25
5.75032e-28
4.49063e-26
2.57439e-26
1.01347e-26
3.13749e-26
8.08815e-26
2.04954e-26
1.13552e-11
1.71119e-11
9.624e-13
5.41171e-14
3.04286e-15
1.71094e-16
9.61717e-18
5.41116e-19
3.03131e-20
1.73095e-21
9.21908e-23
6.56613e-24
5.38086e-26
2.04249e-25
6.95561e-26
6.00073e-26
5.45999e-26
6.15743e-26
2.15208e-25
6.07079e-26
1.14458e-11
1.71178e-11
9.62075e-13
5.40604e-14
3.03761e-15
1.7066e-16
9.59014e-18
5.38197e-19
3.03688e-20
1.67397e-21
1.01413e-22
4.12624e-24
7.34718e-25
4.96955e-26
1.11454e-25
5.6268e-26
5.34268e-26
1.81985e-25
3.50678e-25
1.00667e-25
1.14616e-11
1.71079e-11
9.61147e-13
5.39871e-14
3.03218e-15
1.70309e-16
9.56108e-18
5.37679e-19
3.00292e-20
1.72078e-21
8.79663e-23
6.96127e-24
4.66725e-26
2.53529e-25
1.16768e-25
1.00765e-25
4.61063e-26
1.627e-25
3.98068e-25
1.09082e-25
1.1467e-11
1.71084e-11
9.61027e-13
5.39713e-14
3.03093e-15
1.70188e-16
9.55915e-18
5.36046e-19
3.02603e-20
1.65857e-21
1.02353e-22
3.6374e-24
9.626e-25
7.89069e-26
1.80853e-25
1.32447e-25
1.22988e-25
2.20387e-25
5.52193e-25
1.27155e-25
1.14451e-11
1.71119e-11
9.61226e-13
5.39832e-14
3.0315e-15
1.70249e-16
9.55673e-18
5.37327e-19
2.99746e-20
1.72867e-21
8.66487e-23
7.4902e-24
3.41214e-26
3.2103e-25
1.59639e-25
1.26872e-25
6.8033e-26
2.02522e-25
7.00045e-25
1.85542e-25
1.1423e-11
1.7128e-11
9.62227e-13
5.40444e-14
3.0354e-15
1.70461e-16
9.57624e-18
5.37034e-19
3.03307e-20
1.66546e-21
1.02778e-22
3.63438e-24
8.71561e-25
7.01147e-26
1.80559e-25
8.93571e-26
6.7416e-26
2.08805e-25
6.61192e-25
1.45746e-25
1.13901e-11
1.71513e-11
9.63701e-13
5.41373e-14
3.04106e-15
1.70838e-16
9.59271e-18
5.39603e-19
3.01262e-20
1.74076e-21
8.63506e-23
7.50751e-24
3.38586e-27
3.71933e-25
1.39974e-25
9.90068e-26
4.32386e-26
2.28922e-25
6.86237e-25
1.18395e-25
1.13597e-11
1.71855e-11
9.65827e-13
5.42683e-14
3.04926e-15
1.71314e-16
9.62896e-18
5.4014e-19
3.05272e-20
1.671e-21
1.04118e-22
3.8745e-24
9.4843e-25
7.23969e-26
1.58219e-25
1.12127e-25
4.34252e-26
2.16665e-25
6.37023e-25
8.45568e-26
1.13254e-11
1.72262e-11
9.68358e-13
5.44254e-14
3.05883e-15
1.71929e-16
9.66017e-18
5.43572e-19
3.03957e-20
1.74235e-21
8.92755e-23
7.1266e-24
6.00295e-26
2.63914e-25
1.34362e-25
8.5305e-26
3.39858e-26
1.36595e-25
5.81519e-25
4.4622e-26
1.12934e-11
1.7274e-11
9.71322e-13
5.46075e-14
3.07011e-15
1.72596e-16
9.70611e-18
5.45175e-19
3.07871e-20
1.69788e-21
1.02157e-22
4.21501e-24
7.94967e-25
3.63694e-26
1.42117e-25
4.14951e-26
1.00615e-26
8.93243e-26
4.7133e-25
3.83024e-26
1.12627e-11
1.73258e-11
9.74516e-13
5.48042e-14
3.08209e-15
1.73348e-16
9.74725e-18
5.48765e-19
3.07371e-20
1.75762e-21
9.20397e-23
6.61706e-24
9.41474e-26
1.49725e-25
2.62507e-26
1.07941e-26
5.07258e-27
1.15192e-25
3.96145e-25
2.7353e-26
1.12336e-11
1.73799e-11
9.77852e-13
5.50086e-14
3.09467e-15
1.741e-16
9.79726e-18
5.5081e-19
3.11065e-20
1.72605e-21
1.02724e-22
4.51268e-24
6.39301e-25
2.13869e-26
3.33847e-26
9.63182e-27
1.60853e-27
6.87929e-26
3.63923e-25
5.83833e-27
1.12111e-11
1.74344e-11
9.81185e-13
5.52125e-14
3.10705e-15
1.7487e-16
9.84076e-18
5.54287e-19
3.11191e-20
1.77367e-21
9.50287e-23
6.45537e-24
1.15942e-25
1.22293e-25
2.12986e-26
1.45915e-26
2.95834e-27
3.52191e-26
2.83257e-25
6.76562e-27
1.11883e-11
1.74853e-11
9.84307e-13
5.54028e-14
3.11871e-15
1.75564e-16
9.88605e-18
5.56263e-19
3.13988e-20
1.75014e-21
1.02027e-22
5.16638e-24
3.65871e-25
1.17995e-27
3.50193e-26
7.57087e-27
4.13721e-27
3.17773e-26
1.54942e-25
3.5237e-28
1.11794e-11
1.7534e-11
9.87243e-13
5.55803e-14
3.12937e-15
1.76222e-16
9.92265e-18
5.59144e-19
3.14479e-20
1.78646e-21
9.71358e-23
6.04837e-24
2.28261e-25
5.08694e-26
4.00168e-27
1.01249e-28
3.0392e-28
1.96244e-26
1.15569e-25
5.34091e-30
1.11751e-11
1.75755e-11
9.89769e-13
5.57329e-14
3.1386e-15
1.7677e-16
9.95728e-18
5.60883e-19
3.16154e-20
1.7776e-21
1.00848e-22
5.45248e-24
4.05247e-25
6.0726e-27
9.57667e-27
7.51884e-28
1.23955e-26
7.57418e-27
7.07328e-26
7.64443e-30
1.11707e-11
1.76343e-11
9.94704e-13
5.61032e-14
3.16468e-15
1.78538e-16
1.00731e-17
5.68399e-19
3.2065e-20
1.81053e-21
1.02848e-22
5.80679e-24
3.32287e-25
1.23816e-26
5.9313e-29
3.39079e-28
3.06247e-27
6.1084e-28
3.18712e-26
3.83335e-28
1.13629e-11
1.77082e-11
1.00463e-12
5.67772e-14
3.22111e-15
1.83389e-16
1.03738e-17
5.99009e-19
3.34726e-20
1.997e-21
1.11863e-22
5.57049e-24
8.42018e-25
5.26344e-26
7.57934e-26
3.18424e-26
2.53262e-26
1.4208e-27
1.18216e-27
3.17008e-27
)
;

boundaryField
{
    movingWall
    {
        type            calculated;
        value           nonuniform List<scalar> 
20
(
1.25152e-11
1.80746e-11
1.04243e-12
5.91963e-14
3.40853e-15
1.9761e-16
1.12805e-17
6.75437e-19
3.7636e-20
2.41106e-21
1.35066e-22
6.77258e-24
1.59634e-24
2.88304e-25
2.79392e-25
1.65846e-25
1.18544e-25
3.86447e-27
2.50794e-26
1.54784e-26
)
;
    }
    fixedWalls
    {
        type            calculated;
        value           nonuniform List<scalar> 
60
(
3.07607e-10
3.0774e-10
3.07392e-10
3.07549e-10
3.07405e-10
3.07431e-10
3.07496e-10
3.07781e-10
3.0819e-10
3.08789e-10
3.09503e-10
3.10342e-10
3.1125e-10
3.12197e-10
3.13152e-10
3.14044e-10
3.14898e-10
3.15621e-10
3.16209e-10
3.17792e-10
3.08134e-28
2.68387e-28
1.46016e-29
4.93589e-29
2.02321e-27
8.33662e-27
6.83312e-27
2.60631e-26
5.91578e-26
1.0447e-25
1.57567e-25
1.62524e-25
1.79905e-25
2.53258e-25
1.99702e-25
1.88551e-25
1.50061e-25
9.42175e-26
3.62137e-26
2.06386e-26
1.1222e-11
1.72016e-11
9.72394e-13
5.55416e-14
3.11838e-15
1.83229e-16
9.69354e-18
6.78123e-19
2.12485e-20
4.95912e-21
5.93137e-23
2.41677e-22
7.10431e-23
4.10199e-23
1.77804e-23
7.20513e-24
2.50619e-24
4.91413e-25
1.03064e-27
2.34391e-28
)
;
    }
    frontAndBack
    {
        type            empty;
    }
}


// ************************************************************************* //
