/*--------------------------------*- C++ -*----------------------------------*\
| =========                 |                                                 |
| \\      /  F ield         | OpenFOAM: The Open Source CFD Toolbox           |
|  \\    /   O peration     | Version:  2506                                  |
|   \\  /    A nd           | Website:  www.openfoam.com                      |
|    \\/     M anipulation  |                                                 |
\*---------------------------------------------------------------------------*/
FoamFile
{
    version     2.0;
    format      ascii;
    arch        "LSB;label=32;scalar=64";
    class       volScalarField;
    location    "4";
    object      epsilon;
}
// * * * * * * * * * * * * * * * * * * * * * * * * * * * * * * * * * * * * * //

dimensions      [0 2 -3 0 0 0 0];

internalField   nonuniform List<scalar> 
400
(
2.29752e-05
2.29747e-05
2.29748e-05
2.29743e-05
2.29744e-05
2.29739e-05
2.29741e-05
2.29737e-05
2.29738e-05
2.29735e-05
2.29736e-05
2.29734e-05
2.29734e-05
2.29733e-05
2.29733e-05
2.29733e-05
2.29733e-05
2.29732e-05
2.29732e-05
2.29732e-05
3.05377e-05
2.95171e-05
2.95952e-05
2.9628e-05
2.96942e-05
2.97284e-05
2.97952e-05
2.9831e-05
2.98983e-05
2.99359e-05
3.00036e-05
3.00431e-05
3.01112e-05
3.01525e-05
3.02211e-05
3.02643e-05
3.03333e-05
3.03784e-05
3.04132e-05
3.0471e-05
4.10043e-05
3.94625e-05
3.95805e-05
3.96302e-05
3.97301e-05
3.97817e-05
3.98824e-05
3.99363e-05
4.00377e-05
4.0094e-05
4.0196e-05
4.02549e-05
4.03574e-05
4.0419e-05
4.05219e-05
4.05862e-05
4.06895e-05
4.07566e-05
4.08087e-05
4.08947e-05
4.98938e-05
4.78655e-05
4.80189e-05
4.80837e-05
4.82138e-05
4.82811e-05
4.84125e-05
4.8483e-05
4.86154e-05
4.86893e-05
4.88225e-05
4.88999e-05
4.90339e-05
4.9115e-05
4.92497e-05
4.93346e-05
4.94699e-05
4.95586e-05
4.96268e-05
4.974e-05
5.58446e-05
5.34708e-05
5.3649e-05
5.37243e-05
5.38757e-05
5.39541e-05
5.4107e-05
5.41893e-05
5.43434e-05
5.44298e-05
5.45849e-05
5.46756e-05
5.48317e-05
5.49268e-05
5.50837e-05
5.51834e-05
5.53412e-05
5.54455e-05
5.55251e-05
5.56576e-05
5.93819e-05
5.67971e-05
5.69904e-05
5.7072e-05
5.72363e-05
5.73215e-05
5.74874e-05
5.75768e-05
5.77441e-05
5.78381e-05
5.80066e-05
5.81053e-05
5.82748e-05
5.83785e-05
5.8549e-05
5.86577e-05
5.88292e-05
5.89429e-05
5.90295e-05
5.91738e-05
6.14187e-05
5.87111e-05
5.89131e-05
5.89983e-05
5.91701e-05
5.92592e-05
5.94327e-05
5.95262e-05
5.97012e-05
5.97996e-05
5.99757e-05
6.00792e-05
6.02565e-05
6.03652e-05
6.05435e-05
6.06575e-05
6.08369e-05
6.09562e-05
6.10468e-05
6.11979e-05
6.26511e-05
5.98688e-05
6.00759e-05
6.01635e-05
6.03398e-05
6.04312e-05
6.06093e-05
6.07054e-05
6.0885e-05
6.0986e-05
6.11669e-05
6.12732e-05
6.14552e-05
6.15669e-05
6.175e-05
6.18671e-05
6.20514e-05
6.21741e-05
6.22671e-05
6.24224e-05
6.34943e-05
6.0661e-05
6.08717e-05
6.09608e-05
6.11402e-05
6.12332e-05
6.14144e-05
6.15122e-05
6.1695e-05
6.17979e-05
6.19819e-05
6.20902e-05
6.22754e-05
6.23891e-05
6.25756e-05
6.26948e-05
6.28825e-05
6.30073e-05
6.31021e-05
6.32602e-05
6.41711e-05
6.12967e-05
6.15104e-05
6.16007e-05
6.17825e-05
6.18768e-05
6.20605e-05
6.21597e-05
6.2345e-05
6.24493e-05
6.2636e-05
6.27457e-05
6.29336e-05
6.30489e-05
6.3238e-05
6.3359e-05
6.35493e-05
6.3676e-05
6.37721e-05
6.39325e-05
6.47974e-05
6.18854e-05
6.21017e-05
6.21931e-05
6.23771e-05
6.24727e-05
6.26587e-05
6.27592e-05
6.29468e-05
6.30525e-05
6.32415e-05
6.33527e-05
6.35429e-05
6.36598e-05
6.38513e-05
6.39739e-05
6.41666e-05
6.4295e-05
6.43924e-05
6.45549e-05
6.54376e-05
6.2487e-05
6.2706e-05
6.27985e-05
6.29849e-05
6.30817e-05
6.32701e-05
6.33719e-05
6.35619e-05
6.3669e-05
6.38604e-05
6.3973e-05
6.41658e-05
6.42841e-05
6.44781e-05
6.46024e-05
6.47976e-05
6.49277e-05
6.50263e-05
6.5191e-05
6.61314e-05
6.3139e-05
6.3361e-05
6.34548e-05
6.36437e-05
6.37418e-05
6.39327e-05
6.40359e-05
6.42285e-05
6.43371e-05
6.45311e-05
6.46454e-05
6.48408e-05
6.49609e-05
6.51575e-05
6.52836e-05
6.54815e-05
6.56135e-05
6.57135e-05
6.58805e-05
6.69095e-05
6.38701e-05
6.40954e-05
6.41906e-05
6.43824e-05
6.4482e-05
6.46758e-05
6.47806e-05
6.49761e-05
6.50864e-05
6.52834e-05
6.53995e-05
6.55978e-05
6.57198e-05
6.59194e-05
6.60475e-05
6.62485e-05
6.63827e-05
6.64842e-05
6.66538e-05
6.78019e-05
6.47082e-05
6.49373e-05
6.50341e-05
6.52291e-05
6.53305e-05
6.55276e-05
6.56342e-05
6.5833e-05
6.59453e-05
6.61457e-05
6.62639e-05
6.64656e-05
6.65898e-05
6.67929e-05
6.69233e-05
6.71278e-05
6.72644e-05
6.73677e-05
6.75404e-05
6.88397e-05
6.56826e-05
6.5916e-05
6.60148e-05
6.62136e-05
6.6317e-05
6.6518e-05
6.66267e-05
6.68295e-05
6.6944e-05
6.71483e-05
6.72689e-05
6.74747e-05
6.76015e-05
6.78086e-05
6.79417e-05
6.81503e-05
6.82898e-05
6.83952e-05
6.85714e-05
7.00408e-05
6.68103e-05
6.70489e-05
6.71499e-05
6.73532e-05
6.74588e-05
6.76643e-05
6.77755e-05
6.79828e-05
6.81e-05
6.83089e-05
6.84324e-05
6.86427e-05
6.87725e-05
6.89843e-05
6.91206e-05
6.93339e-05
6.94767e-05
6.95845e-05
6.97648e-05
7.13543e-05
6.80444e-05
6.82884e-05
6.83916e-05
6.85995e-05
6.87077e-05
6.89179e-05
6.90318e-05
6.92439e-05
6.9364e-05
6.95778e-05
6.97043e-05
6.99197e-05
7.00528e-05
7.02697e-05
7.04094e-05
7.06279e-05
7.07743e-05
7.08848e-05
7.10696e-05
7.25615e-05
6.92576e-05
6.94955e-05
6.95966e-05
6.98008e-05
6.99075e-05
7.01147e-05
7.0228e-05
7.04378e-05
7.05584e-05
7.07705e-05
7.08986e-05
7.11129e-05
7.12488e-05
7.14654e-05
7.16092e-05
7.18281e-05
7.19799e-05
7.2091e-05
7.22794e-05
7.30426e-05
7.30408e-05
7.30412e-05
7.30392e-05
7.30402e-05
7.30381e-05
7.30393e-05
7.30373e-05
7.30386e-05
7.30369e-05
7.30378e-05
7.30368e-05
7.30372e-05
7.30369e-05
7.30369e-05
7.30368e-05
7.30368e-05
7.30368e-05
7.30368e-05
7.30368e-05
)
;

boundaryField
{
    movingWall
    {
        type            epsilonWallFunction;
        blending        stepwise;
        value           nonuniform List<scalar> 
20
(
7.30426e-05
7.30408e-05
7.30412e-05
7.30392e-05
7.30402e-05
7.30381e-05
7.30393e-05
7.30373e-05
7.30386e-05
7.30369e-05
7.30378e-05
7.30368e-05
7.30372e-05
7.30369e-05
7.30369e-05
7.30368e-05
7.30368e-05
7.30368e-05
7.30368e-05
7.30368e-05
)
;
    }
    fixedWalls
    {
        type            epsilonWallFunction;
        blending        stepwise;
        value           nonuniform List<scalar> 
60
(
2.29752e-05
3.05377e-05
4.10043e-05
4.98938e-05
5.58446e-05
5.93819e-05
6.14187e-05
6.26511e-05
6.34943e-05
6.41711e-05
6.47974e-05
6.54376e-05
6.61314e-05
6.69095e-05
6.78019e-05
6.88397e-05
7.00408e-05
7.13543e-05
7.25615e-05
7.30426e-05
2.29732e-05
3.0471e-05
4.08947e-05
4.974e-05
5.56576e-05
5.91738e-05
6.11979e-05
6.24224e-05
6.32602e-05
6.39325e-05
6.45549e-05
6.5191e-05
6.58805e-05
6.66538e-05
6.75404e-05
6.85714e-05
6.97648e-05
7.10696e-05
7.22794e-05
7.30368e-05
2.29752e-05
2.29747e-05
2.29748e-05
2.29743e-05
2.29744e-05
2.29739e-05
2.29741e-05
2.29737e-05
2.29738e-05
2.29735e-05
2.29736e-05
2.29734e-05
2.29734e-05
2.29733e-05
2.29733e-05
2.29733e-05
2.29733e-05
2.29732e-05
2.29732e-05
2.29732e-05
)
;
    }
    frontAndBack
    {
        type            empty;
    }
}


// ************************************************************************* //
