/*--------------------------------*- C++ -*----------------------------------*\
| =========                 |                                                 |
| \\      /  F ield         | OpenFOAM: The Open Source CFD Toolbox           |
|  \\    /   O peration     | Version:  2506                                  |
|   \\  /    A nd           | Website:  www.openfoam.com                      |
|    \\/     M anipulation  |                                                 |
\*---------------------------------------------------------------------------*/
FoamFile
{
    version     2.0;
    format      ascii;
    arch        "LSB;label=32;scalar=64";
    class       volScalarField;
    location    "4";
    object      flowTypeField;
}
// * * * * * * * * * * * * * * * * * * * * * * * * * * * * * * * * * * * * * //

dimensions      [0 0 0 0 0 0 0];

internalField   nonuniform List<scalar> 
400
(
-0.00433205
-0.0015128
-0.00255227
-0.00461329
-0.00416335
-0.012082
0.0011869
-0.0464096
0.0812435
-0.286527
0.881427
-0.241827
0.17864
0.038492
0.104329
0.120254
0.176821
0.324696
0.602796
0.210354
-0.00689814
-0.00206186
-0.00336398
-0.00546265
-0.00578542
-0.0114554
-0.00761329
-0.0254774
0.003996
-0.0781946
0.140877
0.279053
0.642411
0.978461
0.776589
0.764288
0.80568
0.61241
0.244676
4.48559e-05
-0.00914582
-0.00168146
-0.00289122
-0.00262801
-0.0043521
-0.00292204
-0.00952054
0.00481589
-0.0380806
0.0665922
-0.220974
0.394597
0.834548
0.662069
0.705119
0.654247
0.592988
0.496426
0.0444031
-0.0840954
-0.0134338
-0.00229758
-0.00413919
-0.00381472
-0.0051878
-0.00740273
-0.00421997
-0.0190038
0.0158694
-0.100764
0.171803
-0.0952383
0.570842
0.788479
0.642696
0.635363
0.553418
0.229145
0.0370338
-0.0548623
-0.0143624
-0.00235853
-0.00437251
-0.00375396
-0.00562176
-0.00597662
-0.00865572
-0.00280281
-0.0308714
0.0509518
-0.276715
0.34494
0.793659
0.585981
0.590921
0.518412
0.554151
0.251069
0.0956447
0.103985
-0.0144474
-0.00225776
-0.00436175
-0.00346736
-0.00542809
-0.00612958
-0.00548978
-0.0120134
0.00536924
-0.0586516
0.124705
-0.304617
0.450702
0.685789
0.500427
0.413655
0.243124
0.135336
0.0285499
0.102892
-0.0130376
-0.00190449
-0.00384271
-0.00276584
-0.00455471
-0.00470076
-0.00494274
-0.00432266
-0.0124726
0.0238147
-0.104472
0.241416
0.78129
0.472849
0.471061
0.393482
0.37034
0.184298
-0.0232772
-0.089005
-0.0111983
-0.00147874
-0.00323114
-0.00189716
-0.00369055
-0.00318008
-0.00299924
-0.0043665
0.00149934
-0.0165848
0.0668818
0.0167244
0.394076
0.662997
0.435873
0.438982
0.315261
0.151621
0.0254966
0.0031788
-0.00858423
-0.000927169
-0.00234964
-0.000879829
-0.00226972
-0.00152731
-0.000406422
-0.00113701
0.00199181
0.00768604
0.0084583
0.136375
0.915325
0.348593
0.431664
0.395147
0.389069
0.0645744
0.0029126
0.0200134
-0.00577516
-0.000370089
-0.00145084
0.00015141
-0.00105682
0.000414494
0.00106548
0.00250344
0.00392223
0.0129354
0.0179861
0.151239
0.247374
0.600433
0.416189
0.287774
0.338443
0.0200865
0.00590537
0.0132288
-0.00259467
0.000228004
-0.000430265
0.00118491
0.000460566
0.00204577
0.00384519
0.00376399
0.0115435
0.00675043
0.0507023
0.0437396
0.686955
0.338451
0.383731
0.372285
0.405706
0.117771
-0.0173889
0.164015
0.000626529
0.000784395
0.000561156
0.00210883
0.00173862
0.00374464
0.00503154
0.00764141
0.00839053
0.0256366
0.000366223
0.200436
0.167481
0.683222
0.336648
0.453065
0.568776
0.206408
0.0188825
0.0264534
0.00385676
0.00131161
0.00154418
0.0029384
0.00304611
0.00505108
0.00713617
0.00787055
0.0172564
0.00619245
0.0737062
-0.0254682
0.630969
0.383197
0.630107
0.640383
0.687401
0.0803745
0.0218073
-0.266757
0.00699654
0.00177543
0.00247218
0.00360774
0.00416155
0.00626588
0.007758
0.0113796
0.0106352
0.0335228
-0.0192588
0.217197
0.0513083
0.686042
0.5356
0.669215
0.80829
0.130673
-0.0419197
0.00273189
0.00977436
0.0021549
0.00327029
0.0041208
0.00509181
0.00698849
0.0091802
0.00994995
0.020331
0.00288336
0.0810745
-0.117839
0.587098
0.192015
0.562368
0.523257
0.742135
0.314264
-0.0570453
-0.37749
0.0124028
0.00248431
0.004018
0.00452755
0.00588087
0.00787435
0.00891215
0.0140033
0.00990398
0.0382852
-0.0295135
0.18641
-0.0381647
0.891148
0.336515
0.59384
0.661987
0.308369
0.0327863
0.555755
0.0142391
0.00267767
0.00451777
0.00469324
0.0064028
0.00770194
0.0102421
0.0097519
0.0215324
-0.00178042
0.0806143
-0.151762
0.406267
0.176421
0.69966
0.9393
0.871799
0.223495
-0.0370822
0.923822
0.0155981
0.00276561
0.00488796
0.0049692
0.00662695
0.00893718
0.00924497
0.0155666
0.0102173
0.0370527
-0.0196311
0.145213
-0.438102
0.680215
0.391991
0.795402
0.251978
0.520465
-0.0580554
0.924815
0.0167486
0.00219457
0.00381503
0.00232838
0.00315709
0.00282651
0.00314431
0.00108507
0.00738017
-0.00891762
0.0280202
-0.0785423
0.1453
0.114783
0.937452
0.783118
0.578391
0.837953
-0.0541828
0.658081
0.00867656
0.000824466
0.00130659
-9.37039e-05
-9.8895e-05
-0.00156804
-0.00104153
-0.00636607
0.00151948
-0.0157645
-0.0116098
0.0837228
-0.442388
0.405277
-0.0536825
0.203168
0.302212
0.763311
0.700669
0.48109
)
;

boundaryField
{
    movingWall
    {
        type            calculated;
        value           nonuniform List<scalar> 
20
(
0.756022
0.265316
0.25935
0.257994
0.253472
0.246362
0.24535
0.228821
0.238164
0.19736
0.216625
0.24289
-0.128948
0.235187
-0.041239
0.0827195
0.131752
0.65645
0.328767
0.247535
)
;
    }
    fixedWalls
    {
        type            calculated;
        value           nonuniform List<scalar> 
60
(
-0.000826054
-0.0013125
-0.00173579
-0.00252473
-0.00264948
-0.00258267
-0.00221188
-0.00175167
-0.00114526
-0.000526075
0.000142447
0.00077194
0.00137311
0.00190943
0.00235434
0.0027452
0.00298208
0.00313655
0.00327178
0.00167683
0.671395
0.00331347
0.816576
0.860537
0.353767
0.0386054
0.328088
0.0172462
0.0430928
0.008541
-0.0866402
0.0138022
0.0840294
6.36678e-05
0.0812336
0.0117508
0.0159715
0.0152308
0.183203
0.182641
0.763725
0.267647
0.266528
0.262045
0.263377
0.249471
0.271023
0.197202
0.386282
-0.124007
0.617833
-0.193908
0.0772151
-0.0167158
0.0208451
0.0218917
0.0455118
0.148488
0.85381
0.776841
)
;
    }
    frontAndBack
    {
        type            empty;
    }
}


// ************************************************************************* //
