/*--------------------------------*- C++ -*----------------------------------*\
| =========                 |                                                 |
| \\      /  F ield         | OpenFOAM: The Open Source CFD Toolbox           |
|  \\    /   O peration     | Version:  2506                                  |
|   \\  /    A nd           | Website:  www.openfoam.com                      |
|    \\/     M anipulation  |                                                 |
\*---------------------------------------------------------------------------*/
FoamFile
{
    version     2.0;
    format      ascii;
    arch        "LSB;label=32;scalar=64";
    class       surfaceScalarField;
    location    "4";
    object      fluxField;
}
// * * * * * * * * * * * * * * * * * * * * * * * * * * * * * * * * * * * * * //

dimensions      [0 3 -1 0 0 0 0];

oriented        oriented;

internalField   nonuniform List<scalar> 
760
(
-5e-05
4.25908e-16
-5e-05
-1.65303e-16
-5e-05
2.59909e-16
-5e-05
-3.29766e-17
-5e-05
4.83011e-17
-5e-05
7.46627e-19
-5e-05
9.2782e-18
-5e-05
2.55569e-18
-5e-05
2.67111e-18
-5e-05
1.45706e-18
-5e-05
1.11255e-18
-5e-05
7.57998e-19
-5e-05
5.62972e-19
-5e-05
4.13272e-19
-5e-05
3.08407e-19
-5e-05
2.27381e-19
-5e-05
1.72383e-19
-5e-05
1.31105e-19
-5e-05
7.04066e-20
-2.99957e-21
-5e-05
-1.53987e-15
-5e-05
8.22788e-16
-5e-05
-6.17044e-17
-5e-05
8.7553e-17
-5e-05
2.01144e-17
-5e-05
1.65435e-17
-5e-05
9.85081e-18
-5e-05
6.04051e-18
-5e-05
4.20325e-18
-5e-05
2.79864e-18
-5e-05
2.00688e-18
-5e-05
1.43836e-18
-5e-05
1.06395e-18
-5e-05
7.84627e-19
-5e-05
5.83976e-19
-5e-05
4.33501e-19
-5e-05
3.32221e-19
-5e-05
2.54309e-19
-5e-05
1.34431e-19
-3.47984e-21
-5e-05
8.79859e-16
-5e-05
-5.22586e-16
-5e-05
1.87091e-16
-5e-05
-2.3843e-17
-5e-05
3.93516e-17
-5e-05
1.07591e-17
-5e-05
1.21091e-17
-5e-05
6.83938e-18
-5e-05
5.20663e-18
-5e-05
3.57766e-18
-5e-05
2.63147e-18
-5e-05
1.93469e-18
-5e-05
1.45435e-18
-5e-05
1.08346e-18
-5e-05
8.09176e-19
-5e-05
6.07909e-19
-5e-05
4.69296e-19
-5e-05
3.6226e-19
-5e-05
1.90082e-19
-4.34686e-21
-5e-05
-6.5758e-16
-5e-05
3.08145e-16
-5e-05
-5.43255e-17
-5e-05
4.31132e-17
-5e-05
9.66683e-18
-5e-05
1.42462e-17
-5e-05
9.12248e-18
-5e-05
7.18552e-18
-5e-05
5.22904e-18
-5e-05
3.91276e-18
-5e-05
2.92758e-18
-5e-05
2.2182e-18
-5e-05
1.6965e-18
-5e-05
1.2868e-18
-5e-05
9.72101e-19
-5e-05
7.36246e-19
-5e-05
5.72717e-19
-5e-05
4.4986e-19
-5e-05
2.38625e-19
-2.90263e-21
-5e-05
-6.52782e-18
-5e-05
-4.05866e-17
-5e-05
2.29806e-17
-5e-05
4.57643e-18
-5e-05
1.26671e-17
-5e-05
8.95344e-18
-5e-05
8.01232e-18
-5e-05
6.21094e-18
-5e-05
4.92135e-18
-5e-05
3.81403e-18
-5e-05
2.96654e-18
-5e-05
2.3063e-18
-5e-05
1.79999e-18
-5e-05
1.39205e-18
-5e-05
1.06865e-18
-5e-05
8.15952e-19
-5e-05
6.38014e-19
-5e-05
5.07626e-19
-5e-05
2.75218e-19
-5.26976e-21
-5e-05
5.38276e-16
-5e-05
-1.88577e-16
-5e-05
5.15742e-17
-5e-05
-7.50275e-18
-5e-05
1.14158e-17
-5e-05
5.76103e-18
-5e-05
6.48798e-18
-5e-05
5.11455e-18
-5e-05
4.33569e-18
-5e-05
3.48186e-18
-5e-05
2.80808e-18
-5e-05
2.24058e-18
-5e-05
1.7897e-18
-5e-05
1.41013e-18
-5e-05
1.09705e-18
-5e-05
8.4746e-19
-5e-05
6.73036e-19
-5e-05
5.43161e-19
-5e-05
2.93741e-19
-1.53767e-20
-5e-05
-1.21437e-15
-5e-05
3.86653e-16
-5e-05
-9.21966e-17
-5e-05
3.09578e-17
-5e-05
-2.83562e-18
-5e-05
6.86418e-18
-5e-05
4.09113e-18
-5e-05
4.32599e-18
-5e-05
3.56646e-18
-5e-05
3.05553e-18
-5e-05
2.5227e-18
-5e-05
2.0711e-18
-5e-05
1.687e-18
-5e-05
1.35233e-18
-5e-05
1.0678e-18
-5e-05
8.37221e-19
-5e-05
6.80329e-19
-5e-05
5.58337e-19
-5e-05
2.98678e-19
-2.4964e-20
-5e-05
1.75492e-15
-5e-05
-5.7478e-16
-5e-05
1.40588e-16
-5e-05
-3.99075e-17
-5e-05
1.44304e-17
-5e-05
3.26253e-19
-5e-05
4.33035e-18
-5e-05
3.00134e-18
-5e-05
2.98632e-18
-5e-05
2.53596e-18
-5e-05
2.18939e-18
-5e-05
1.83725e-18
-5e-05
1.52875e-18
-5e-05
1.24315e-18
-5e-05
9.959e-19
-5e-05
7.91233e-19
-5e-05
6.56994e-19
-5e-05
5.51378e-19
-5e-05
2.92395e-19
-3.57676e-20
-5e-05
-2.30061e-15
-5e-05
7.19801e-16
-5e-05
-1.74916e-16
-5e-05
5.22764e-17
-5e-05
-1.18891e-17
-5e-05
5.96234e-18
-5e-05
1.46209e-18
-5e-05
2.72314e-18
-5e-05
2.2147e-18
-5e-05
2.09249e-18
-5e-05
1.81447e-18
-5e-05
1.57378e-18
-5e-05
1.33838e-18
-5e-05
1.10773e-18
-5e-05
8.9888e-19
-5e-05
7.19626e-19
-5e-05
6.08258e-19
-5e-05
5.24999e-19
-5e-05
2.74528e-19
-5.00668e-20
-5e-05
2.70928e-15
-5e-05
-8.49697e-16
-5e-05
2.05928e-16
-5e-05
-5.99896e-17
-5e-05
1.73839e-17
-5e-05
-2.75269e-18
-5e-05
2.95772e-18
-5e-05
1.46361e-18
-5e-05
1.82181e-18
-5e-05
1.59474e-18
-5e-05
1.46905e-18
-5e-05
1.29383e-18
-5e-05
1.13305e-18
-5e-05
9.54822e-19
-5e-05
7.8853e-19
-5e-05
6.37159e-19
-5e-05
5.4655e-19
-5e-05
4.84753e-19
-5e-05
2.51311e-19
-6.0266e-20
-5e-05
-3.0546e-15
-5e-05
9.40727e-16
-5e-05
-2.27952e-16
-5e-05
6.66183e-17
-5e-05
-1.69215e-17
-5e-05
5.61683e-18
-5e-05
-1.61682e-19
-5e-05
1.57071e-18
-5e-05
1.15066e-18
-5e-05
1.22936e-18
-5e-05
1.11696e-18
-5e-05
1.03036e-18
-5e-05
9.26092e-19
-5e-05
7.94977e-19
-5e-05
6.63485e-19
-5e-05
5.45649e-19
-5e-05
4.81426e-19
-5e-05
4.38231e-19
-5e-05
2.24761e-19
-6.73304e-20
-5e-05
3.24421e-15
-5e-05
-9.90908e-16
-5e-05
2.40406e-16
-5e-05
-6.90909e-17
-5e-05
1.87325e-17
-5e-05
-4.35003e-18
-5e-05
1.97085e-18
-5e-05
3.80735e-19
-5e-05
9.02697e-19
-5e-05
7.97866e-19
-5e-05
8.1801e-19
-5e-05
7.72164e-19
-5e-05
7.22495e-19
-5e-05
6.33177e-19
-5e-05
5.38594e-19
-5e-05
4.56163e-19
-5e-05
4.16289e-19
-5e-05
3.88742e-19
-5e-05
1.90626e-19
-7.65114e-20
-5e-05
-3.33423e-15
-5e-05
1.01561e-15
-5e-05
-2.45741e-16
-5e-05
7.06796e-17
-5e-05
-1.88551e-17
-5e-05
4.90321e-18
-5e-05
-1.23929e-18
-5e-05
6.45631e-19
-5e-05
3.05486e-19
-5e-05
5.11446e-19
-5e-05
5.241e-19
-5e-05
5.43599e-19
-5e-05
5.28318e-19
-5e-05
4.77813e-19
-5e-05
4.21124e-19
-5e-05
3.69484e-19
-5e-05
3.49693e-19
-5e-05
3.36899e-19
-5e-05
1.57295e-19
-8.53595e-20
-5e-05
3.25563e-15
-5e-05
-9.72035e-16
-5e-05
2.35672e-16
-5e-05
-6.70616e-17
-5e-05
1.68699e-17
-5e-05
-5.1579e-18
-5e-05
8.63295e-19
-5e-05
-4.8098e-19
-5e-05
1.24503e-19
-5e-05
1.61932e-19
-5e-05
2.89175e-19
-5e-05
3.36812e-19
-5e-05
3.6556e-19
-5e-05
3.43916e-19
-5e-05
3.12189e-19
-5e-05
2.81929e-19
-5e-05
2.82217e-19
-5e-05
2.86979e-19
-5e-05
1.29911e-19
-8.73683e-20
-5e-05
-3.05998e-15
-5e-05
9.2e-16
-5e-05
-2.24762e-16
-5e-05
6.1621e-17
-5e-05
-1.85105e-17
-5e-05
3.06177e-18
-5e-05
-2.1747e-18
-5e-05
-2.53018e-19
-5e-05
-3.71043e-19
-5e-05
-4.47268e-20
-5e-05
6.52123e-20
-5e-05
1.69429e-19
-5e-05
2.28038e-19
-5e-05
2.3859e-19
-5e-05
2.24964e-19
-5e-05
2.08922e-19
-5e-05
2.19256e-19
-5e-05
2.32516e-19
-5e-05
1.03433e-19
-8.12676e-20
-5e-05
2.7322e-15
-5e-05
-7.92795e-16
-5e-05
1.87115e-16
-5e-05
-5.52135e-17
-5e-05
1.02243e-17
-5e-05
-5.58606e-18
-5e-05
-6.36597e-19
-5e-05
-1.15822e-18
-5e-05
-4.84986e-19
-5e-05
-2.75741e-19
-5e-05
-8.19921e-20
-5e-05
3.74029e-20
-5e-05
1.16389e-19
-5e-05
1.48318e-19
-5e-05
1.50436e-19
-5e-05
1.47882e-19
-5e-05
1.63888e-19
-5e-05
1.79964e-19
-5e-05
7.84397e-20
-7.26201e-20
-5e-05
-2.25328e-15
-5e-05
6.56078e-16
-5e-05
-1.83848e-16
-5e-05
4.00275e-17
-5e-05
-1.87784e-17
-5e-05
9.23039e-19
-5e-05
-3.01142e-18
-5e-05
-7.88097e-19
-5e-05
-7.64295e-19
-5e-05
-3.24681e-19
-5e-05
-1.71209e-19
-5e-05
-3.15053e-20
-5e-05
4.23467e-20
-5e-05
8.17487e-20
-5e-05
9.18007e-20
-5e-05
9.93233e-20
-5e-05
1.19545e-19
-5e-05
1.39299e-19
-5e-05
5.95758e-20
-6.13704e-20
-5e-05
1.84764e-15
-5e-05
-5.4162e-16
-5e-05
7.06971e-17
-5e-05
-1.80698e-17
-5e-05
-6.23183e-18
-5e-05
-9.90388e-19
-5e-05
-2.65776e-18
-5e-05
-6.4569e-19
-5e-05
-7.19417e-19
-5e-05
-2.68118e-19
-5e-05
-1.65683e-19
-5e-05
-4.33621e-20
-5e-05
1.12036e-20
-5e-05
4.3793e-20
-5e-05
5.36241e-20
-5e-05
5.93508e-20
-5e-05
7.75449e-20
-5e-05
9.79505e-20
-5e-05
4.48134e-20
-4.5645e-20
-5e-05
-1.53065e-15
-5e-05
1.00529e-15
-5e-05
-3.55543e-16
-5e-05
1.23852e-16
-5e-05
-4.85289e-17
-5e-05
1.25025e-17
-5e-05
-5.76611e-18
-5e-05
8.63378e-19
-5e-05
-7.76705e-19
-5e-05
-4.37238e-20
-5e-05
-1.29383e-19
-5e-05
-2.13887e-20
-5e-05
-4.59661e-21
-5e-05
1.38427e-20
-5e-05
1.72512e-20
-5e-05
2.08742e-20
-5e-05
3.52108e-20
-5e-05
5.19371e-20
-5e-05
2.66985e-20
-2.61301e-20
-5e-05
-5e-05
-5e-05
-5e-05
-5e-05
-5e-05
-5e-05
-5e-05
-5e-05
-5e-05
-5e-05
-5e-05
-5e-05
-5e-05
-5e-05
-5e-05
-5e-05
-5e-05
-5e-05
)
;

boundaryField
{
    movingWall
    {
        type            calculated;
        value           uniform -0;
    }
    fixedWalls
    {
        type            calculated;
        value           nonuniform List<scalar> 
60
(
5e-05
5e-05
5e-05
5e-05
5e-05
5e-05
5e-05
5e-05
5e-05
5e-05
5e-05
5e-05
5e-05
5e-05
5e-05
5e-05
5e-05
5e-05
5e-05
5e-05
-5e-05
-5e-05
-5e-05
-5e-05
-5e-05
-5e-05
-5e-05
-5e-05
-5e-05
-5e-05
-5e-05
-5e-05
-5e-05
-5e-05
-5e-05
-5e-05
-5e-05
-5e-05
-5e-05
-5e-05
0
0
0
0
0
0
0
0
0
0
0
0
0
0
0
0
0
0
0
0
)
;
    }
    frontAndBack
    {
        type            empty;
    }
}


// ************************************************************************* //
