/*--------------------------------*- C++ -*----------------------------------*\
| =========                 |                                                 |
| \\      /  F ield         | OpenFOAM: The Open Source CFD Toolbox           |
|  \\    /   O peration     | Version:  2506                                  |
|   \\  /    A nd           | Website:  www.openfoam.com                      |
|    \\/     M anipulation  |                                                 |
\*---------------------------------------------------------------------------*/
FoamFile
{
    version     2.0;
    format      ascii;
    arch        "LSB;label=32;scalar=64";
    class       volTensorField;
    location    "4";
    object      gradU;
}
// * * * * * * * * * * * * * * * * * * * * * * * * * * * * * * * * * * * * * //

dimensions      [0 0 -1 0 0 0 0];

internalField   nonuniform List<tensor> 
400
(
(1.82699e-09 4.7262e-06 0 -2.04748e-08 1.70363e-09 0 0 0 0)
(8.98045e-10 -5.8468e-06 0 8.84514e-09 -6.61214e-10 0 0 0 0)
(-3.65758e-09 1.38683e-06 0 -3.5448e-09 1.03963e-09 0 0 0 0)
(1.71147e-09 -3.29291e-07 0 1.52363e-09 -1.31906e-10 0 0 0 0)
(-8.53918e-10 7.80884e-08 0 -3.30058e-10 1.93204e-10 0 0 0 0)
(2.18656e-10 -1.85584e-08 0 2.25541e-10 2.98651e-12 0 0 0 0)
(-1.17256e-10 4.39304e-09 0 3.49655e-12 3.71128e-11 0 0 0 0)
(1.24141e-11 -1.04894e-09 0 4.88162e-11 1.02228e-11 0 0 0 0)
(-1.9082e-11 2.45717e-10 0 1.91362e-11 1.06844e-11 0 0 0 0)
(-3.87602e-12 -6.02441e-11 0 1.79978e-11 5.82823e-12 0 0 0 0)
(-5.31259e-12 1.31336e-11 0 1.14654e-11 4.45021e-12 0 0 0 0)
(-2.92735e-12 -3.86648e-12 0 8.5652e-12 3.03199e-12 0 0 0 0)
(-2.38524e-12 4.25685e-13 0 5.8818e-12 2.25189e-12 0 0 0 0)
(-1.6263e-12 -4.42248e-13 0 4.11997e-12 1.65309e-12 0 0 0 0)
(-1.21973e-12 -1.45723e-13 0 2.76472e-12 1.23363e-12 0 0 0 0)
(-9.48677e-13 -1.54555e-13 0 1.78893e-12 9.09522e-13 0 0 0 0)
(-6.77626e-13 -1.07207e-13 0 1.0571e-12 6.89533e-13 0 0 0 0)
(-5.69206e-13 -1.03198e-13 0 4.87891e-13 5.24419e-13 0 0 0 0)
(-2.43945e-13 -1.34219e-13 0 0 2.81627e-13 0 0 0 0)
(5.42101e-14 -6.71665e-14 0 0 -1.19983e-14 0 0 0 0)
(-1.34566e-08 -4.72515e-06 0 3.26209e-08 -7.86312e-09 0 0 0 0)
(1.60319e-08 5.84613e-06 0 -1.20773e-08 3.95237e-09 0 0 0 0)
(-3.66395e-09 -1.3863e-06 0 4.66895e-09 -1.28645e-09 0 0 0 0)
(1.50325e-09 3.28445e-07 0 -1.79801e-09 4.82118e-10 0 0 0 0)
(-4.44171e-10 -7.79535e-08 0 4.52356e-10 -1.12747e-10 0 0 0 0)
(1.14925e-10 1.84023e-08 0 -2.11284e-10 6.31874e-11 0 0 0 0)
(-5.94414e-11 -4.3858e-09 0 3.38e-11 2.29046e-12 0 0 0 0)
(3.25261e-12 1.02251e-09 0 -2.61564e-11 1.39393e-11 0 0 0 0)
(-1.17636e-11 -2.50111e-10 0 -6.50521e-13 6.12855e-12 0 0 0 0)
(-3.7676e-12 5.40098e-11 0 -4.68917e-12 5.36632e-12 0 0 0 0)
(-4.11997e-12 -1.59298e-11 0 -1.54499e-12 3.57731e-12 0 0 0 0)
(-2.6834e-12 1.66815e-12 0 -1.38236e-12 2.72146e-12 0 0 0 0)
(-2.05998e-12 -1.80459e-12 0 -7.58942e-13 2.0039e-12 0 0 0 0)
(-1.49078e-12 -5.76014e-13 0 -5.42101e-13 1.48542e-12 0 0 0 0)
(-1.11131e-12 -5.97843e-13 0 -2.98156e-13 1.10228e-12 0 0 0 0)
(-7.86047e-13 -3.8954e-13 0 -1.6263e-13 8.24482e-13 0 0 0 0)
(-6.23416e-13 -2.77896e-13 0 -1.35525e-13 6.3935e-13 0 0 0 0)
(-4.87891e-13 -3.04709e-13 0 -5.42101e-14 4.92816e-13 0 0 0 0)
(-2.71051e-13 -4.02198e-13 0 0 2.56097e-13 0 0 0 0)
(0 -2.02462e-13 0 0 -1.92107e-15 0 0 0 0)
(2.23705e-08 4.72229e-06 0 -4.32532e-08 9.67893e-09 0 0 0 0)
(-2.70538e-08 -5.84022e-06 0 9.88546e-09 -5.3815e-09 0 0 0 0)
(6.62174e-09 1.38336e-06 0 -4.01588e-09 9.95181e-10 0 0 0 0)
(-2.50516e-09 -3.28117e-07 0 8.72214e-10 -4.45584e-10 0 0 0 0)
(7.32812e-10 7.76695e-08 0 -3.41551e-10 7.69491e-11 0 0 0 0)
(-1.99873e-10 -1.84433e-08 0 5.49962e-11 -2.31377e-11 0 0 0 0)
(6.78168e-11 4.34379e-09 0 -4.19044e-11 9.03331e-12 0 0 0 0)
(-2.20635e-11 -1.0451e-09 0 -4.79759e-12 3.19549e-12 0 0 0 0)
(2.38524e-12 2.37144e-10 0 -9.08019e-12 4.01353e-12 0 0 0 0)
(-4.74338e-12 -6.27953e-11 0 -3.95734e-12 3.1161e-12 0 0 0 0)
(-1.97867e-12 1.04887e-11 0 -3.08998e-12 2.49836e-12 0 0 0 0)
(-2.1413e-12 -5.43988e-12 0 -1.81604e-12 1.98531e-12 0 0 0 0)
(-1.51788e-12 -8.10362e-13 0 -1.13841e-12 1.56162e-12 0 0 0 0)
(-1.19262e-12 -1.34387e-12 0 -7.04731e-13 1.19534e-12 0 0 0 0)
(-8.67362e-13 -8.06658e-13 0 -4.33681e-13 9.00799e-13 0 0 0 0)
(-7.04731e-13 -6.17482e-13 0 -2.71051e-13 6.97633e-13 0 0 0 0)
(-6.23416e-13 -4.38874e-13 0 -1.0842e-13 5.48299e-13 0 0 0 0)
(-4.06576e-13 -4.86451e-13 0 -1.35525e-13 4.31804e-13 0 0 0 0)
(-1.6263e-13 -6.28956e-13 0 2.71051e-14 2.22604e-13 0 0 0 0)
(0 -3.21343e-13 0 2.71051e-14 -3.46809e-15 0 0 0 0)
(-4.68244e-08 -4.72086e-06 0 6.36616e-08 -6.14976e-09 0 0 0 0)
(5.52693e-08 5.83745e-06 0 -1.36758e-08 3.32292e-09 0 0 0 0)
(-1.26773e-08 -1.38136e-06 0 5.77671e-09 -9.65666e-10 0 0 0 0)
(5.17763e-09 3.27526e-07 0 -1.29077e-09 2.67825e-10 0 0 0 0)
(-1.26133e-09 -7.75311e-08 0 4.12674e-10 -1.18739e-10 0 0 0 0)
(4.14518e-10 1.83344e-08 0 -1.40485e-10 1.39485e-11 0 0 0 0)
(-1.19235e-10 -4.35947e-09 0 2.00577e-11 -1.19466e-11 0 0 0 0)
(3.6131e-11 1.01749e-09 0 -2.00035e-11 1.38455e-12 0 0 0 0)
(-1.08962e-11 -2.5019e-10 0 -3.7405e-12 8.96458e-14 0 0 0 0)
(2.19551e-12 5.24947e-11 0 -5.3668e-12 1.34039e-12 0 0 0 0)
(-2.00577e-12 -1.70606e-11 0 -2.81893e-12 1.18445e-12 0 0 0 0)
(-7.31836e-13 7.31412e-13 0 -2.1413e-12 1.13404e-12 0 0 0 0)
(-1.00289e-12 -2.59456e-12 0 -1.38236e-12 9.68586e-13 0 0 0 0)
(-7.58942e-13 -1.23684e-12 0 -9.21572e-13 8.13361e-13 0 0 0 0)
(-6.77626e-13 -1.09555e-12 0 -6.23416e-13 6.51699e-13 0 0 0 0)
(-4.60786e-13 -7.4204e-13 0 -4.06576e-13 5.13347e-13 0 0 0 0)
(-4.33681e-13 -5.43725e-13 0 -2.1684e-13 4.13683e-13 0 0 0 0)
(-3.52366e-13 -6.30404e-13 0 -2.71051e-14 3.50401e-13 0 0 0 0)
(-1.35525e-13 -8.3747e-13 0 0 1.9417e-13 0 0 0 0)
(-5.42101e-14 -4.21598e-13 0 2.71051e-14 5.77693e-15 0 0 0 0)
(7.23563e-08 4.71946e-06 0 -6.83543e-08 2.60421e-09 0 0 0 0)
(-8.49387e-08 -5.83504e-06 0 1.43834e-08 -1.39493e-09 0 0 0 0)
(1.90068e-08 1.3803e-06 0 -6.16743e-09 3.09225e-10 0 0 0 0)
(-7.86925e-09 -3.2727e-07 0 1.32392e-09 -1.54147e-10 0 0 0 0)
(1.88307e-09 7.74156e-08 0 -4.58374e-10 1.20011e-11 0 0 0 0)
(-5.92462e-10 -1.83365e-08 0 1.19289e-10 -2.11709e-11 0 0 0 0)
(1.8838e-10 4.33123e-09 0 -4.16605e-11 -4.44063e-12 0 0 0 0)
(-4.59431e-11 -1.03306e-09 0 3.93023e-12 -3.89831e-12 0 0 0 0)
(1.69678e-11 2.37099e-10 0 -7.96889e-12 -1.23077e-12 0 0 0 0)
(-3.82181e-12 -6.17005e-11 0 -3.03577e-12 -3.94922e-13 0 0 0 0)
(1.24683e-12 1.02824e-11 0 -2.98156e-12 1.55827e-13 0 0 0 0)
(-7.04731e-13 -5.65575e-12 0 -1.92446e-12 3.52375e-13 0 0 0 0)
(-2.71051e-13 -1.13104e-12 0 -1.43657e-12 4.13981e-13 0 0 0 0)
(-3.79471e-13 -1.66076e-12 0 -9.48677e-13 4.21007e-13 0 0 0 0)
(-3.52366e-13 -1.10667e-12 0 -6.23416e-13 3.86196e-13 0 0 0 0)
(-3.25261e-13 -8.55497e-13 0 -4.06576e-13 3.18824e-13 0 0 0 0)
(-2.98156e-13 -6.01821e-13 0 -2.98156e-13 2.61191e-13 0 0 0 0)
(-2.1684e-13 -7.05964e-13 0 -1.35525e-13 2.31064e-13 0 0 0 0)
(-8.13152e-14 -9.7358e-13 0 -8.13152e-14 1.46372e-13 0 0 0 0)
(0 -5.2129e-13 0 -5.42101e-14 -9.46852e-15 0 0 0 0)
(-1.00795e-07 -4.71965e-06 0 6.92949e-08 2.17922e-09 0 0 0 0)
(1.17456e-07 5.83516e-06 0 -1.43619e-08 -5.9196e-10 0 0 0 0)
(-2.57367e-08 -1.38012e-06 0 6.26181e-09 1.14374e-10 0 0 0 0)
(1.08867e-08 3.27229e-07 0 -1.31698e-09 -4.83168e-11 0 0 0 0)
(-2.46599e-09 -7.73981e-08 0 4.59837e-10 -5.00526e-12 0 0 0 0)
(8.31231e-10 1.83179e-08 0 -1.31378e-10 -1.27696e-11 0 0 0 0)
(-2.34594e-10 -4.3422e-09 0 3.02492e-11 -6.09736e-12 0 0 0 0)
(6.98226e-11 1.0207e-09 0 -1.4718e-11 -4.38557e-12 0 0 0 0)
(-1.7808e-11 -2.46687e-10 0 -6.77626e-13 -2.34262e-12 0 0 0 0)
(7.15573e-12 5.38813e-11 0 -3.71339e-12 -1.32869e-12 0 0 0 0)
(-8.94467e-13 -1.63133e-11 0 -2.00577e-12 -6.33835e-13 0 0 0 0)
(8.40257e-13 9.89566e-13 0 -1.70762e-12 -2.62881e-13 0 0 0 0)
(-5.42101e-14 -2.52593e-12 0 -1.13841e-12 -4.11579e-14 0 0 0 0)
(0 -1.26462e-12 0 -8.67362e-13 7.22984e-14 0 0 0 0)
(-1.0842e-13 -1.19773e-12 0 -5.96311e-13 1.13582e-13 0 0 0 0)
(-1.0842e-13 -8.67045e-13 0 -3.52366e-13 1.26032e-13 0 0 0 0)
(-1.35525e-13 -6.31485e-13 0 -1.35525e-13 1.40087e-13 0 0 0 0)
(-1.35525e-13 -7.45223e-13 0 -8.13152e-14 1.42142e-13 0 0 0 0)
(-5.42101e-14 -1.078e-12 0 -2.71051e-14 7.40945e-14 0 0 0 0)
(5.42101e-14 -5.58501e-13 0 -5.42101e-14 -4.04279e-14 0 0 0 0)
(1.27289e-07 4.72105e-06 0 -6.33177e-08 -7.01058e-09 0 0 0 0)
(-1.47972e-07 -5.8371e-06 0 1.29999e-08 2.30092e-09 0 0 0 0)
(3.20517e-08 1.38084e-06 0 -5.68117e-09 -5.75083e-10 0 0 0 0)
(-1.36712e-08 -3.2739e-07 0 1.19257e-09 1.53842e-10 0 0 0 0)
(3.0687e-09 7.74512e-08 0 -4.14138e-10 -5.70057e-11 0 0 0 0)
(-1.02205e-09 -1.83376e-08 0 1.14953e-10 4.41261e-12 0 0 0 0)
(3.04959e-10 4.33961e-09 0 -3.22821e-11 -9.58738e-12 0 0 0 0)
(-7.68157e-11 -1.02931e-09 0 7.34547e-12 -3.15423e-12 0 0 0 0)
(2.79995e-11 2.40156e-10 0 -4.68917e-12 -3.07694e-12 0 0 0 0)
(-5.17707e-12 -5.99917e-11 0 -1.19262e-12 -1.70532e-12 0 0 0 0)
(3.1984e-12 1.13482e-11 0 -1.81604e-12 -1.14152e-12 0 0 0 0)
(1.89735e-13 -5.06307e-12 0 -1.19262e-12 -6.77895e-13 0 0 0 0)
(6.23416e-13 -7.95864e-13 0 -1.0571e-12 -4.10807e-13 0 0 0 0)
(1.0842e-13 -1.50602e-12 0 -7.04731e-13 -2.31182e-13 0 0 0 0)
(1.89735e-13 -1.05294e-12 0 -4.87891e-13 -1.1697e-13 0 0 0 0)
(5.42101e-14 -8.28991e-13 0 -3.25261e-13 -4.09569e-14 0 0 0 0)
(0 -5.85712e-13 0 -2.1684e-13 2.91727e-14 0 0 0 0)
(-1.0842e-13 -7.71957e-13 0 -1.35525e-13 6.07033e-14 0 0 0 0)
(0 -1.15615e-12 0 2.71051e-14 1.97479e-14 0 0 0 0)
(5.42101e-14 -5.54957e-13 0 5.42101e-14 -3.83492e-14 0 0 0 0)
(-1.51113e-07 -4.72436e-06 0 5.53916e-08 1.18771e-08 0 0 0 0)
(1.75093e-07 5.84159e-06 0 -1.12713e-08 -3.84573e-09 0 0 0 0)
(-3.7544e-08 -1.38227e-06 0 4.97979e-09 9.3114e-10 0 0 0 0)
(1.61537e-08 3.27747e-07 0 -1.02151e-09 -2.83461e-10 0 0 0 0)
(-3.54361e-09 -7.75475e-08 0 3.67788e-10 6.9064e-11 0 0 0 0)
(1.21311e-09 1.83653e-08 0 -9.87437e-11 -2.61517e-11 0 0 0 0)
(-3.42228e-10 -4.34977e-09 0 2.65901e-11 9.56852e-13 0 0 0 0)
(9.74427e-11 1.02721e-09 0 -9.16151e-12 -5.2986e-12 0 0 0 0)
(-2.63732e-11 -2.45238e-10 0 1.0571e-12 -2.32056e-12 0 0 0 0)
(1.00289e-11 5.58167e-11 0 -1.89735e-12 -2.07828e-12 0 0 0 0)
(-8.94467e-13 -1.52859e-11 0 -9.48677e-13 -1.33326e-12 0 0 0 0)
(1.65341e-12 1.72028e-12 0 -9.75782e-13 -9.35424e-13 0 0 0 0)
(4.33681e-13 -2.07922e-12 0 -7.58942e-13 -6.32995e-13 0 0 0 0)
(5.42101e-13 -9.70783e-13 0 -5.96311e-13 -4.36741e-13 0 0 0 0)
(2.98156e-13 -1.00751e-12 0 -4.06576e-13 -2.8761e-13 0 0 0 0)
(1.89735e-13 -7.20902e-13 0 -2.98156e-13 -1.83954e-13 0 0 0 0)
(2.71051e-14 -5.29825e-13 0 -1.6263e-13 -9.33413e-14 0 0 0 0)
(1.0842e-13 -7.54648e-13 0 -1.0842e-13 -2.78376e-14 0 0 0 0)
(8.13152e-14 -1.17706e-12 0 -2.71051e-14 -2.51317e-14 0 0 0 0)
(0 -5.399e-13 0 0 -4.32144e-14 0 0 0 0)
(1.7141e-07 4.72908e-06 0 -4.3784e-08 -1.62221e-08 0 0 0 0)
(-1.98384e-07 -5.84805e-06 0 8.79556e-09 5.17833e-09 0 0 0 0)
(4.23015e-08 1.38441e-06 0 -3.90275e-09 -1.26202e-09 0 0 0 0)
(-1.82832e-08 -3.28252e-07 0 7.99084e-10 3.68735e-10 0 0 0 0)
(3.99149e-09 7.77085e-08 0 -2.79426e-10 -1.05278e-10 0 0 0 0)
(-1.36328e-09 -1.84057e-08 0 7.87673e-11 2.25444e-11 0 0 0 0)
(3.94541e-10 4.36047e-09 0 -1.96512e-11 -1.1473e-11 0 0 0 0)
(-1.02376e-10 -1.03259e-09 0 6.26127e-12 -1.11282e-12 0 0 0 0)
(3.53179e-11 2.43377e-10 0 -2.08709e-12 -3.08648e-12 0 0 0 0)
(-7.15573e-12 -5.90044e-11 0 0 -1.77386e-12 0 0 0 0)
(4.11997e-12 1.24911e-11 0 -6.50521e-13 -1.49967e-12 0 0 0 0)
(3.52366e-13 -4.36281e-12 0 -4.87891e-13 -1.05388e-12 0 0 0 0)
(9.75782e-13 -2.9718e-13 0 -3.79471e-13 -7.61506e-13 0 0 0 0)
(4.87891e-13 -1.16063e-12 0 -2.98156e-13 -5.4167e-13 0 0 0 0)
(4.06576e-13 -8.00151e-13 0 -2.71051e-13 -3.8808e-13 0 0 0 0)
(3.25261e-13 -6.34723e-13 0 -1.89735e-13 -2.86426e-13 0 0 0 0)
(1.6263e-13 -4.29595e-13 0 -1.35525e-13 -1.94944e-13 0 0 0 0)
(1.35525e-13 -7.03747e-13 0 -2.71051e-14 -1.05515e-13 0 0 0 0)
(5.42101e-14 -1.17153e-12 0 0 -7.14691e-14 0 0 0 0)
(8.13152e-14 -4.86611e-13 0 0 -5.71968e-14 0 0 0 0)
(-1.86102e-07 -4.7354e-06 0 3.109e-08 2.00396e-08 0 0 0 0)
(2.14974e-07 5.85655e-06 0 -6.11921e-09 -6.27799e-09 0 0 0 0)
(-4.55405e-08 -1.38708e-06 0 2.76304e-09 1.52338e-09 0 0 0 0)
(1.9777e-08 3.28904e-07 0 -5.4492e-10 -4.49064e-10 0 0 0 0)
(-4.2639e-09 -7.78937e-08 0 1.99358e-10 1.17092e-10 0 0 0 0)
(1.47286e-09 1.84591e-08 0 -5.1093e-11 -3.48601e-11 0 0 0 0)
(-4.1468e-10 -4.37342e-09 0 1.4962e-11 5.98252e-12 0 0 0 0)
(1.14953e-10 1.0356e-09 0 -3.7676e-12 -5.03812e-12 0 0 0 0)
(-3.26616e-11 -2.45899e-10 0 1.19262e-12 -1.57157e-12 0 0 0 0)
(1.14654e-11 5.74035e-11 0 -4.06576e-13 -1.99102e-12 0 0 0 0)
(-1.38236e-12 -1.45659e-11 0 -1.35525e-13 -1.38167e-12 0 0 0 0)
(1.89735e-12 2.45844e-12 0 -3.25261e-13 -1.11978e-12 0 0 0 0)
(6.23416e-13 -1.567e-12 0 -1.89735e-13 -8.21306e-13 0 0 0 0)
(6.77626e-13 -5.97358e-13 0 -2.1684e-13 -6.11633e-13 0 0 0 0)
(5.42101e-13 -7.52263e-13 0 -1.89735e-13 -4.41401e-13 0 0 0 0)
(2.98156e-13 -5.27765e-13 0 -5.42101e-14 -3.29867e-13 0 0 0 0)
(1.89735e-13 -3.48914e-13 0 -5.42101e-14 -2.46833e-13 0 0 0 0)
(1.6263e-13 -6.31173e-13 0 2.71051e-14 -1.60985e-13 0 0 0 0)
(8.13152e-14 -1.12874e-12 0 0 -9.28666e-14 0 0 0 0)
(5.42101e-14 -4.11234e-13 0 0 -4.07967e-14 0 0 0 0)
(1.9638e-07 4.74284e-06 0 -1.64492e-08 -2.30555e-08 0 0 0 0)
(-2.26711e-07 -5.86657e-06 0 3.04533e-09 7.1617e-09 0 0 0 0)
(4.78758e-08 1.39024e-06 0 -1.42432e-09 -1.73552e-09 0 0 0 0)
(-2.08468e-08 -3.29658e-07 0 2.67364e-10 5.06432e-10 0 0 0 0)
(4.48532e-09 7.81227e-08 0 -9.27806e-11 -1.37222e-10 0 0 0 0)
(-1.54767e-09 -1.85168e-08 0 2.6563e-11 3.34781e-11 0 0 0 0)
(4.41894e-10 4.39029e-09 0 -5.20417e-12 -1.24776e-11 0 0 0 0)
(-1.16145e-10 -1.04014e-09 0 2.52077e-12 4.28415e-13 0 0 0 0)
(3.86789e-11 2.46424e-10 0 -1.35525e-13 -2.6846e-12 0 0 0 0)
(-8.42967e-12 -5.88145e-11 0 2.1684e-13 -1.46151e-12 0 0 0 0)
(4.25549e-12 1.33623e-11 0 0 -1.40837e-12 0 0 0 0)
(2.1684e-13 -3.80245e-12 0 -2.71051e-14 -1.05387e-12 0 0 0 0)
(1.02999e-12 2.1097e-13 0 -1.35525e-13 -8.27837e-13 0 0 0 0)
(5.69206e-13 -7.80728e-13 0 -5.42101e-14 -6.39378e-13 0 0 0 0)
(5.42101e-13 -5.18386e-13 0 0 -5.0018e-13 0 0 0 0)
(4.06576e-13 -4.40155e-13 0 -2.71051e-14 -3.66041e-13 0 0 0 0)
(2.98156e-13 -2.60713e-13 0 0 -2.60495e-13 0 0 0 0)
(1.35525e-13 -5.49781e-13 0 -2.71051e-14 -1.86088e-13 0 0 0 0)
(8.13152e-14 -1.05134e-12 0 2.71051e-14 -1.06201e-13 0 0 0 0)
(5.42101e-14 -3.52947e-13 0 -5.42101e-14 -2.82577e-14 0 0 0 0)
(-1.99505e-07 -4.75129e-06 0 1.27323e-09 2.51952e-08 0 0 0 0)
(2.29999e-07 5.87787e-06 0 1.12676e-10 -7.72654e-09 0 0 0 0)
(-4.83186e-08 -1.39373e-06 0 5.57822e-11 1.87343e-09 0 0 0 0)
(2.11085e-08 3.30502e-07 0 2.5289e-11 -5.42837e-10 0 0 0 0)
(-4.50467e-09 -7.83667e-08 0 -7.10152e-12 1.42616e-10 0 0 0 0)
(1.56041e-09 1.85839e-08 0 4.52654e-12 -3.98674e-11 0 0 0 0)
(-4.38722e-10 -4.40647e-09 0 -5.42101e-13 8.53013e-12 0 0 0 0)
(1.20021e-10 1.04539e-09 0 1.19262e-12 -4.75991e-12 0 0 0 0)
(-3.49926e-11 -2.47789e-10 0 3.52366e-13 -9.91843e-13 0 0 0 0)
(1.15196e-11 5.86797e-11 0 4.06576e-13 -1.72597e-12 0 0 0 0)
(-1.5992e-12 -1.41583e-11 0 1.35525e-13 -1.1958e-12 0 0 0 0)
(1.84314e-12 3.03897e-12 0 1.35525e-13 -1.03279e-12 0 0 0 0)
(5.96311e-13 -1.15251e-12 0 1.0842e-13 -8.14386e-13 0 0 0 0)
(7.58942e-13 -2.69701e-13 0 0 -6.47199e-13 0 0 0 0)
(4.87891e-13 -4.78926e-13 0 5.42101e-14 -4.99564e-13 0 0 0 0)
(3.52366e-13 -2.8808e-13 0 0 -3.57945e-13 0 0 0 0)
(2.1684e-13 -1.68961e-13 0 -2.71051e-14 -2.60548e-13 0 0 0 0)
(1.6263e-13 -4.76878e-13 0 -5.42101e-14 -1.97955e-13 0 0 0 0)
(1.35525e-13 -9.70907e-13 0 0 -1.36541e-13 0 0 0 0)
(5.42101e-14 -2.76776e-13 0 0 -3.67239e-14 0 0 0 0)
(1.97766e-07 4.76031e-06 0 1.42107e-08 -2.63137e-08 0 0 0 0)
(-2.27928e-07 -5.88989e-06 0 -3.32113e-09 8.02609e-09 0 0 0 0)
(4.77884e-08 1.39742e-06 0 1.34192e-09 -1.94459e-09 0 0 0 0)
(-2.09097e-08 -3.31389e-07 0 -3.17482e-10 5.59082e-10 0 0 0 0)
(4.46447e-09 7.86256e-08 0 1.1338e-10 -1.5035e-10 0 0 0 0)
(-1.54108e-09 -1.86509e-08 0 -3.11437e-11 3.7013e-11 0 0 0 0)
(4.38587e-10 4.4254e-09 0 1.01373e-11 -1.28405e-11 0 0 0 0)
(-1.15251e-10 -1.04966e-09 0 -2.03288e-12 1.05959e-12 0 0 0 0)
(3.78658e-11 2.49458e-10 0 1.51788e-12 -2.38884e-12 0 0 0 0)
(-8.64651e-12 -5.90185e-11 0 2.71051e-13 -1.14568e-12 0 0 0 0)
(4.06576e-12 1.40555e-11 0 4.87891e-13 -1.17564e-12 0 0 0 0)
(8.13152e-14 -3.42103e-12 0 2.1684e-13 -9.1426e-13 0 0 0 0)
(9.75782e-13 5.9656e-13 0 1.6263e-13 -7.76708e-13 0 0 0 0)
(5.42101e-13 -4.65905e-13 0 8.13152e-14 -6.21456e-13 0 0 0 0)
(5.14996e-13 -2.29132e-13 0 0 -4.69879e-13 0 0 0 0)
(2.71051e-13 -2.01139e-13 0 -5.42101e-14 -3.46718e-13 0 0 0 0)
(2.71051e-13 -1.00723e-13 0 0 -2.66383e-13 0 0 0 0)
(2.1684e-13 -4.25773e-13 0 5.42101e-14 -2.07371e-13 0 0 0 0)
(1.35525e-13 -8.90106e-13 0 0 -1.33325e-13 0 0 0 0)
(0 -1.79683e-13 0 5.42101e-14 -3.53923e-14 0 0 0 0)
(-1.88616e-07 -4.76958e-06 0 -2.96211e-08 2.63594e-08 0 0 0 0)
(2.1713e-07 5.90224e-06 0 6.49396e-09 -7.9506e-09 0 0 0 0)
(-4.53149e-08 -1.4012e-06 0 -2.73357e-09 1.92565e-09 0 0 0 0)
(1.988e-08 3.32296e-07 0 6.07993e-10 -5.50965e-10 0 0 0 0)
(-4.21833e-09 -7.88887e-08 0 -2.16325e-10 1.429e-10 0 0 0 0)
(1.45722e-09 1.87214e-08 0 6.12574e-11 -4.02444e-11 0 0 0 0)
(-4.09693e-10 -4.44243e-09 0 -1.58565e-11 8.41033e-12 0 0 0 0)
(1.11402e-10 1.05584e-09 0 6.26127e-12 -4.50645e-12 0 0 0 0)
(-3.26616e-11 -2.49994e-10 0 -5.69206e-13 -7.23934e-13 0 0 0 0)
(1.04626e-11 5.98929e-11 0 1.13841e-12 -1.39805e-12 0 0 0 0)
(-1.68051e-12 -1.39269e-11 0 4.06576e-13 -9.39699e-13 0 0 0 0)
(1.65341e-12 3.43791e-12 0 4.33681e-13 -8.27149e-13 0 0 0 0)
(4.33681e-13 -8.59702e-13 0 2.71051e-13 -6.51033e-13 0 0 0 0)
(5.42101e-13 3.71271e-14 0 2.43945e-13 -5.3559e-13 0 0 0 0)
(4.06576e-13 -2.04188e-13 0 5.42101e-14 -4.35738e-13 0 0 0 0)
(3.52366e-13 -8.45834e-14 0 5.42101e-14 -3.50219e-13 0 0 0 0)
(2.71051e-13 -2.9614e-14 0 2.71051e-14 -2.69905e-13 0 0 0 0)
(1.6263e-13 -3.43821e-13 0 2.71051e-14 -1.99681e-13 0 0 0 0)
(1.35525e-13 -7.98928e-13 0 5.42101e-14 -1.09534e-13 0 0 0 0)
(0 -1.08059e-13 0 0 -8.03553e-15 0 0 0 0)
(1.74639e-07 4.77872e-06 0 4.35141e-08 -2.52625e-08 0 0 0 0)
(-2.0104e-07 -5.91432e-06 0 -9.33777e-09 7.56814e-09 0 0 0 0)
(4.19024e-08 1.40482e-06 0 3.97211e-09 -1.84174e-09 0 0 0 0)
(-1.83924e-08 -3.33172e-07 0 -8.69042e-10 5.1473e-10 0 0 0 0)
(3.91774e-09 7.91364e-08 0 3.06829e-10 -1.41522e-10 0 0 0 0)
(-1.34064e-09 -1.87854e-08 0 -8.40799e-11 3.28787e-11 0 0 0 0)
(3.83591e-10 4.46113e-09 0 2.47469e-11 -1.2152e-11 0 0 0 0)
(-9.99634e-11 -1.0588e-09 0 -5.9089e-12 9.11849e-13 0 0 0 0)
(3.27429e-11 2.52566e-10 0 3.08998e-12 -1.98218e-12 0 0 0 0)
(-7.64363e-12 -5.92342e-11 0 3.25261e-13 -8.26637e-13 0 0 0 0)
(3.33392e-12 1.46264e-11 0 8.40257e-13 -8.95851e-13 0 0 0 0)
(-5.42101e-14 -3.13237e-12 0 4.60786e-13 -6.69531e-13 0 0 0 0)
(7.58942e-13 8.88118e-13 0 4.06576e-13 -5.50089e-13 0 0 0 0)
(2.98156e-13 -2.50611e-13 0 2.43945e-13 -4.21303e-13 0 0 0 0)
(3.79471e-13 -4.37604e-14 0 1.6263e-13 -3.48902e-13 0 0 0 0)
(2.43945e-13 -3.53053e-14 0 1.35525e-13 -2.92028e-13 0 0 0 0)
(2.71051e-13 4.98149e-14 0 -2.71051e-14 -2.51845e-13 0 0 0 0)
(2.1684e-13 -2.65402e-13 0 0 -2.17853e-13 0 0 0 0)
(8.13152e-14 -6.98461e-13 0 5.42101e-14 -1.05915e-13 0 0 0 0)
(-2.71051e-14 -6.21138e-14 0 5.42101e-14 2.44031e-14 0 0 0 0)
(-1.54439e-07 -4.78728e-06 0 -5.6891e-08 2.31687e-08 0 0 0 0)
(1.77588e-07 5.92566e-06 0 1.20693e-08 -6.85118e-09 0 0 0 0)
(-3.68461e-08 -1.40825e-06 0 -5.17923e-09 1.64751e-09 0 0 0 0)
(1.62147e-08 3.33997e-07 0 1.12182e-09 -4.67338e-10 0 0 0 0)
(-3.4334e-09 -7.93706e-08 0 -3.93294e-10 1.14939e-10 0 0 0 0)
(1.17514e-09 1.88508e-08 0 1.1235e-10 -3.45913e-11 0 0 0 0)
(-3.31495e-10 -4.47439e-09 0 -2.78098e-11 6.15241e-12 0 0 0 0)
(8.97448e-11 1.06601e-09 0 1.12486e-11 -3.62079e-12 0 0 0 0)
(-2.63732e-11 -2.51733e-10 0 -1.13841e-12 -4.55774e-13 0 0 0 0)
(8.21283e-12 6.09793e-11 0 1.81604e-12 -9.24055e-13 0 0 0 0)
(-1.57209e-12 -1.37698e-11 0 5.14996e-13 -5.88818e-13 0 0 0 0)
(1.11131e-12 3.78367e-12 0 5.69206e-13 -5.28104e-13 0 0 0 0)
(2.1684e-13 -6.11474e-13 0 2.43945e-13 -4.46597e-13 0 0 0 0)
(3.79471e-13 2.38314e-13 0 1.89735e-13 -3.61088e-13 0 0 0 0)
(2.1684e-13 -7.49127e-14 0 1.89735e-13 -2.98111e-13 0 0 0 0)
(2.1684e-13 1.24735e-14 0 1.35525e-13 -2.44159e-13 0 0 0 0)
(1.89735e-13 4.45614e-14 0 1.35525e-13 -2.21471e-13 0 0 0 0)
(2.43945e-13 -1.9789e-13 0 5.42101e-14 -2.10208e-13 0 0 0 0)
(1.0842e-13 -5.56673e-13 0 0 -9.9972e-14 0 0 0 0)
(-5.42101e-14 -2.65469e-14 0 0 3.459e-14 0 0 0 0)
(1.29817e-07 4.79503e-06 0 6.65289e-08 -1.99419e-08 0 0 0 0)
(-1.49329e-07 -5.93584e-06 0 -1.40231e-08 5.79549e-09 0 0 0 0)
(3.09549e-08 1.4112e-06 0 6.03827e-09 -1.48385e-09 0 0 0 0)
(-1.36065e-08 -3.34704e-07 0 -1.29665e-09 3.80964e-10 0 0 0 0)
(2.90824e-09 7.95691e-08 0 4.5691e-10 -1.16011e-10 0 0 0 0)
(-9.75131e-10 -1.88942e-08 0 -1.20726e-10 2.60364e-11 0 0 0 0)
(2.82489e-10 4.4921e-09 0 3.72966e-11 -9.49929e-12 0 0 0 0)
(-7.33192e-11 -1.06541e-09 0 -7.91468e-12 1.48048e-12 0 0 0 0)
(2.33375e-11 2.55263e-10 0 4.47233e-12 -1.11724e-12 0 0 0 0)
(-5.96311e-12 -5.93673e-11 0 4.06576e-13 -1.9576e-13 0 0 0 0)
(2.08709e-12 1.50223e-11 0 1.0842e-12 -3.56866e-13 0 0 0 0)
(-2.71051e-13 -2.99015e-12 0 4.87891e-13 -2.75633e-13 0 0 0 0)
(4.06576e-13 1.05513e-12 0 3.79471e-13 -2.96167e-13 0 0 0 0)
(1.6263e-13 -1.02125e-13 0 2.1684e-13 -2.66277e-13 0 0 0 0)
(2.1684e-13 7.31688e-14 0 1.6263e-13 -2.34541e-13 0 0 0 0)
(2.71051e-13 4.13352e-14 0 2.71051e-14 -1.94235e-13 0 0 0 0)
(1.35525e-13 8.37658e-14 0 1.0842e-13 -1.77373e-13 0 0 0 0)
(1.35525e-13 -1.43903e-13 0 5.42101e-14 -1.6266e-13 0 0 0 0)
(5.42101e-14 -4.53663e-13 0 2.71051e-14 -7.54559e-14 0 0 0 0)
(-5.42101e-14 3.2683e-15 0 0 4.49989e-14 0 0 0 0)
(-1.01934e-07 -4.80142e-06 0 -7.3817e-08 1.64037e-08 0 0 0 0)
(1.17097e-07 5.94412e-06 0 1.52902e-08 -4.7908e-09 0 0 0 0)
(-2.41197e-08 -1.41367e-06 0 -6.70582e-09 1.01818e-09 0 0 0 0)
(1.06334e-08 3.35365e-07 0 1.49951e-09 -2.32389e-10 0 0 0 0)
(-2.25747e-09 -7.97255e-08 0 -4.96781e-10 5.01862e-11 0 0 0 0)
(7.55526e-10 1.89573e-08 0 1.54634e-10 -7.65371e-12 0 0 0 0)
(-2.18684e-10 -4.49895e-09 0 -3.6375e-11 1.41464e-12 0 0 0 0)
(5.69748e-11 1.07439e-09 0 1.52601e-11 5.69629e-13 0 0 0 0)
(-1.81604e-11 -2.53409e-10 0 -1.95156e-12 1.79511e-13 0 0 0 0)
(4.79759e-12 6.17396e-11 0 2.11419e-12 2.2625e-13 0 0 0 0)
(-1.46367e-12 -1.38496e-11 0 3.52366e-13 2.21026e-14 0 0 0 0)
(4.06576e-13 3.84437e-12 0 5.42101e-13 -4.74275e-14 0 0 0 0)
(0 -6.02119e-13 0 2.98156e-13 -1.24573e-13 0 0 0 0)
(1.6263e-13 2.99941e-13 0 1.89735e-13 -1.51823e-13 0 0 0 0)
(1.35525e-13 -2.87031e-15 0 1.35525e-13 -1.52706e-13 0 0 0 0)
(1.35525e-13 6.96418e-14 0 1.0842e-13 -1.5989e-13 0 0 0 0)
(8.13152e-14 7.61366e-14 0 -8.13152e-14 -1.68e-13 0 0 0 0)
(2.1684e-13 -9.59736e-14 0 2.71051e-14 -1.65394e-13 0 0 0 0)
(2.71051e-14 -3.49014e-13 0 2.71051e-14 -5.90495e-14 0 0 0 0)
(-5.42101e-14 3.9101e-15 0 0 6.29016e-14 0 0 0 0)
(7.12906e-08 4.80665e-06 0 7.99748e-08 -1.35132e-08 0 0 0 0)
(-8.22174e-08 -5.95123e-06 0 -1.24917e-08 6.18765e-09 0 0 0 0)
(1.71642e-08 1.41576e-06 0 5.2969e-09 -1.70496e-09 0 0 0 0)
(-7.39751e-09 -3.35672e-07 0 -6.99961e-10 5.67687e-10 0 0 0 0)
(1.56339e-09 7.97938e-08 0 2.36519e-10 -1.69188e-10 0 0 0 0)
(-5.14725e-10 -1.8943e-08 0 -4.65123e-11 5.39714e-11 0 0 0 0)
(1.43115e-10 4.50033e-09 0 1.1872e-11 -1.24334e-11 0 0 0 0)
(-3.88686e-11 -1.06664e-09 0 -4.33681e-13 6.03627e-12 0 0 0 0)
(1.01915e-11 2.54919e-10 0 1.68051e-12 -2.29149e-13 0 0 0 0)
(-3.63208e-12 -5.95247e-11 0 6.50521e-13 8.97577e-13 0 0 0 0)
(4.33681e-13 1.47487e-11 0 4.06576e-13 1.45199e-13 0 0 0 0)
(-3.52366e-13 -3.13682e-12 0 2.71051e-13 8.78936e-14 0 0 0 0)
(5.42101e-14 9.50739e-13 0 1.35525e-13 -6.32007e-14 0 0 0 0)
(0 -1.30258e-13 0 2.71051e-14 -1.19801e-13 0 0 0 0)
(1.89735e-13 6.51017e-14 0 5.42101e-14 -1.45492e-13 0 0 0 0)
(0 2.60415e-14 0 0 -1.53907e-13 0 0 0 0)
(1.0842e-13 7.8262e-14 0 0 -1.69337e-13 0 0 0 0)
(2.1684e-13 -3.49525e-14 0 0 -1.84053e-13 0 0 0 0)
(2.71051e-14 -2.25368e-13 0 2.71051e-14 -7.24595e-14 0 0 0 0)
(-5.42101e-14 -5.83744e-16 0 2.71051e-14 7.80596e-14 0 0 0 0)
(-3.44506e-08 -4.80875e-06 0 -4.15983e-08 6.12261e-09 0 0 0 0)
(4.24195e-08 5.95593e-06 0 4.75829e-09 -4.02117e-09 0 0 0 0)
(-1.23279e-08 -1.41929e-06 0 -1.80032e-09 1.42217e-09 0 0 0 0)
(5.57296e-09 3.369e-07 0 -7.80355e-11 -4.95408e-10 0 0 0 0)
(-1.60397e-09 -8.02392e-08 0 2.42048e-11 1.94116e-10 0 0 0 0)
(5.30852e-10 1.9114e-08 0 -3.74321e-11 -5.00098e-11 0 0 0 0)
(-1.72605e-10 -4.54688e-09 0 8.07731e-12 2.30644e-11 0 0 0 0)
(4.67562e-11 1.0866e-09 0 -7.94178e-12 -3.45351e-12 0 0 0 0)
(-1.71033e-11 -2.58548e-10 0 1.89735e-13 3.10682e-12 0 0 0 0)
(3.55076e-12 6.2114e-11 0 -1.0842e-12 1.74895e-13 0 0 0 0)
(-1.84314e-12 -1.46593e-11 0 2.98156e-13 5.17533e-13 0 0 0 0)
(2.1684e-13 3.63597e-12 0 2.98156e-13 8.55549e-14 0 0 0 0)
(-2.71051e-13 -8.09813e-13 0 4.87891e-13 1.83865e-14 0 0 0 0)
(5.42101e-14 2.17649e-13 0 5.42101e-13 -5.53708e-14 0 0 0 0)
(8.13152e-14 -3.69758e-14 0 3.52366e-13 -6.90046e-14 0 0 0 0)
(8.13152e-14 4.5797e-14 0 2.98156e-13 -8.34967e-14 0 0 0 0)
(1.35525e-13 4.59898e-14 0 2.71051e-13 -1.40843e-13 0 0 0 0)
(1.89735e-13 9.03505e-16 0 5.42101e-14 -2.07748e-13 0 0 0 0)
(5.42101e-14 -8.6901e-14 0 -1.35525e-13 -1.06794e-13 0 0 0 0)
(-1.0842e-13 -1.69006e-15 0 -8.13152e-14 1.0452e-13 0 0 0 0)
)
;

boundaryField
{
    movingWall
    {
        type            extrapolatedCalculated;
        value           nonuniform List<tensor> 
20
(
(-3.44506e-08 -4.80875e-06 0 1.94296e-07 2.52524e-05 0 0 0 0)
(4.24195e-08 5.95593e-06 0 -5.64937e-08 -6.01739e-06 0 0 0 0)
(-1.23279e-08 -1.41929e-06 0 2.46182e-08 1.42867e-06 0 0 0 0)
(5.57296e-09 3.369e-07 0 -7.18203e-09 -3.40241e-07 0 0 0 0)
(-1.60397e-09 -8.02392e-08 0 2.32623e-09 8.10664e-08 0 0 0 0)
(5.30852e-10 1.9114e-08 0 -7.66098e-10 -1.92838e-08 0 0 0 0)
(-1.72605e-10 -4.54688e-09 0 2.02949e-10 4.61032e-09 0 0 0 0)
(4.67562e-11 1.0866e-09 0 -7.56728e-11 -1.09626e-09 0 0 0 0)
(-1.71033e-11 -2.58548e-10 0 1.58096e-11 2.63929e-10 0 0 0 0)
(3.55076e-12 6.2114e-11 0 -7.32747e-12 -6.20662e-11 0 0 0 0)
(-1.84314e-12 -1.46593e-11 0 1.77636e-12 1.54727e-11 0 0 0 0)
(2.1684e-13 3.63597e-12 0 -4.44089e-14 -3.42895e-12 0 0 0 0)
(-2.71051e-13 -8.09813e-13 0 9.76996e-13 9.28787e-13 0 0 0 0)
(5.42101e-14 2.17649e-13 0 9.76996e-13 -1.89695e-13 0 0 0 0)
(8.13152e-14 -3.69758e-14 0 7.10543e-13 5.81892e-14 0 0 0 0)
(8.13152e-14 4.5797e-14 0 6.21725e-13 -4.17924e-14 0 0 0 0)
(1.35525e-13 4.59898e-14 0 5.32907e-13 -1.24999e-13 0 0 0 0)
(1.89735e-13 9.03505e-16 0 8.88178e-14 -2.25752e-13 0 0 0 0)
(5.42101e-14 -8.6901e-14 0 -3.10862e-13 -1.28613e-13 0 0 0 0)
(-1.0842e-13 -1.69006e-15 0 -1.77636e-13 1.21853e-13 0 0 0 0)
)
;
    }
    fixedWalls
    {
        type            extrapolatedCalculated;
        value           nonuniform List<tensor> 
60
(
(-1.13228e-08 2.4783e-05 0 -2.04748e-08 1.70363e-09 0 0 0 0)
(-7.05763e-08 -2.47762e-05 0 3.26209e-08 -7.86312e-09 0 0 0 0)
(1.19161e-07 2.47516e-05 0 -4.32532e-08 9.67893e-09 0 0 0 0)
(-2.43589e-07 -2.47375e-05 0 6.36616e-08 -6.14976e-09 0 0 0 0)
(3.73807e-07 2.4727e-05 0 -6.83543e-08 2.60421e-09 0 0 0 0)
(-5.17006e-07 -2.47271e-05 0 6.92949e-08 2.17922e-09 0 0 0 0)
(6.50987e-07 2.47357e-05 0 -6.33177e-08 -7.01058e-09 0 0 0 0)
(-7.70277e-07 -2.47551e-05 0 5.53916e-08 1.18771e-08 0 0 0 0)
(8.72553e-07 2.47832e-05 0 -4.3784e-08 -1.62221e-08 0 0 0 0)
(-9.45413e-07 -2.482e-05 0 3.109e-08 2.00396e-08 0 0 0 0)
(9.96913e-07 2.48634e-05 0 -1.64492e-08 -2.30555e-08 0 0 0 0)
(-1.01121e-06 -2.49123e-05 0 1.27323e-09 2.51952e-08 0 0 0 0)
(1.00201e-06 2.49642e-05 0 1.42107e-08 -2.63137e-08 0 0 0 0)
(-9.54367e-07 -2.50175e-05 0 -2.96211e-08 2.63594e-08 0 0 0 0)
(8.83521e-07 2.50696e-05 0 4.35141e-08 -2.52625e-08 0 0 0 0)
(-7.80311e-07 -2.51186e-05 0 -5.6891e-08 2.31687e-08 0 0 0 0)
(6.55957e-07 2.51623e-05 0 6.65289e-08 -1.99419e-08 0 0 0 0)
(-5.14195e-07 -2.51983e-05 0 -7.3817e-08 1.64037e-08 0 0 0 0)
(3.60689e-07 2.52279e-05 0 7.99748e-08 -1.35132e-08 0 0 0 0)
(-1.94296e-07 -2.52524e-05 0 -4.15983e-08 6.12261e-09 0 0 0 0)
(8.88178e-14 2.48248e-14 0 0 -1.19983e-14 0 0 0 0)
(0 2.31684e-14 0 0 -1.92107e-15 0 0 0 0)
(0 3.2509e-14 0 2.71051e-14 -3.46809e-15 0 0 0 0)
(-8.88178e-14 3.70407e-14 0 2.71051e-14 5.77693e-15 0 0 0 0)
(-8.88178e-14 9.40133e-15 0 -5.42101e-14 -9.46852e-15 0 0 0 0)
(8.88178e-14 7.49148e-14 0 -5.42101e-14 -4.04279e-14 0 0 0 0)
(0 1.71113e-13 0 5.42101e-14 -3.83492e-14 0 0 0 0)
(0 2.28312e-13 0 0 -4.32144e-14 0 0 0 0)
(8.88178e-14 3.4397e-13 0 0 -5.71968e-14 0 0 0 0)
(-4.44089e-14 4.57099e-13 0 0 -4.07967e-14 0 0 0 0)
(8.88178e-14 5.07157e-13 0 -5.42101e-14 -2.82577e-14 0 0 0 0)
(8.88178e-14 5.7013e-13 0 0 -3.67239e-14 0 0 0 0)
(0 6.54052e-13 0 5.42101e-14 -3.53923e-14 0 0 0 0)
(0 7.11699e-13 0 0 -8.03553e-15 0 0 0 0)
(-4.44089e-14 6.86195e-13 0 5.42101e-14 2.44031e-14 0 0 0 0)
(-8.88178e-14 6.14086e-13 0 0 3.459e-14 0 0 0 0)
(-8.88178e-14 5.47835e-13 0 0 4.49989e-14 0 0 0 0)
(-4.44089e-14 4.34091e-13 0 0 6.29016e-14 0 0 0 0)
(-1.33227e-13 2.96228e-13 0 2.71051e-14 7.80596e-14 0 0 0 0)
(-1.77636e-13 1.21853e-13 0 -8.13152e-14 1.0452e-13 0 0 0 0)
(1.82699e-09 4.7262e-06 0 -1.13228e-08 2.4783e-05 0 0 0 0)
(8.98045e-10 -5.8468e-06 0 1.86307e-08 -5.87826e-06 0 0 0 0)
(-3.65758e-09 1.38683e-06 0 -7.73053e-09 1.39585e-06 0 0 0 0)
(1.71147e-09 -3.29291e-07 0 4.00036e-09 -3.30961e-07 0 0 0 0)
(-8.53918e-10 7.80884e-08 0 -8.84715e-10 7.86887e-08 0 0 0 0)
(2.18656e-10 -1.85584e-08 0 5.84732e-10 -1.86077e-08 0 0 0 0)
(-1.17256e-10 4.39304e-09 0 -1.00364e-11 4.45529e-09 0 0 0 0)
(1.24141e-11 -1.04894e-09 0 1.15641e-10 -1.03558e-09 0 0 0 0)
(-1.9082e-11 2.45717e-10 0 3.95683e-11 2.59536e-10 0 0 0 0)
(-3.87602e-12 -6.02441e-11 0 3.93463e-11 -5.27134e-11 0 0 0 0)
(-5.31259e-12 1.31336e-11 0 2.40252e-11 1.85594e-11 0 0 0 0)
(-2.92735e-12 -3.86648e-12 0 1.81188e-11 -1.78963e-13 0 0 0 0)
(-2.38524e-12 4.25685e-13 0 1.23457e-11 3.09349e-12 0 0 0 0)
(-1.6263e-12 -4.42248e-13 0 8.61533e-12 1.52378e-12 0 0 0 0)
(-1.21973e-12 -1.45723e-13 0 5.81757e-12 1.3245e-12 0 0 0 0)
(-9.48677e-13 -1.54555e-13 0 3.64153e-12 9.40882e-13 0 0 0 0)
(-6.77626e-13 -1.07207e-13 0 2.13163e-12 7.06281e-13 0 0 0 0)