/*--------------------------------*- C++ -*----------------------------------*\
| =========                 |                                                 |
| \\      /  F ield         | OpenFOAM: The Open Source CFD Toolbox           |
|  \\    /   O peration     | Version:  2506                                  |
|   \\  /    A nd           | Website:  www.openfoam.com                      |
|    \\/     M anipulation  |                                                 |
\*---------------------------------------------------------------------------*/
FoamFile
{
    version     2.0;
    format      ascii;
    arch        "LSB;label=32;scalar=64";
    class       volVectorField;
    location    "4";
    object      gradPhi;
}
// * * * * * * * * * * * * * * * * * * * * * * * * * * * * * * * * * * * * * //

dimensions      [0 2 -1 0 0 0 0];

internalField   nonuniform List<vector> 
400
(
(-0.02 -1.3492e-13 0)
(-6.54945e-14 6.54951e-14 0)
(-5.66089e-14 5.66118e-14 0)
(1.14151e-15 -1.139e-15 0)
(-9.43648e-15 9.43838e-15 0)
(-4.74802e-16 4.75847e-16 0)
(-1.92237e-15 1.9221e-15 0)
(-5.691e-16 5.72507e-16 0)
(-5.54211e-16 5.53244e-16 0)
(-3.01094e-16 3.03003e-16 0)
(-2.28302e-16 2.27653e-16 0)
(-1.53856e-16 1.54794e-16 0)
(-1.12497e-16 1.13786e-16 0)
(-8.27181e-17 8.30598e-17 0)
(-6.12114e-17 6.21285e-17 0)
(-4.63221e-17 4.66115e-17 0)
(-3.47416e-17 3.49874e-17 0)
(-2.64698e-17 2.63724e-17 0)
(-1.15805e-17 1.39349e-17 0)
(1.65436e-18 -1.1633e-18 0)
(-0.02 1.22638e-13 0)
(8.8639e-14 -8.86363e-14 0)
(4.21118e-14 -4.21103e-14 0)
(-2.74789e-15 2.7493e-15 0)
(-9.16516e-16 9.1904e-16 0)
(-1.97034e-15 1.97082e-15 0)
(-6.51818e-16 6.52356e-16 0)
(-5.5752e-16 5.60032e-16 0)
(-3.50725e-16 3.51627e-16 0)
(-2.59735e-16 2.58967e-16 0)
(-1.83634e-16 1.85263e-16 0)
(-1.35658e-16 1.35965e-16 0)
(-1.0257e-16 1.02224e-16 0)
(-7.61006e-17 7.59128e-17 0)
(-5.29396e-17 5.61754e-17 0)
(-4.1359e-17 3.97538e-17 0)
(-2.97785e-17 3.12757e-17 0)
(-2.48154e-17 2.48858e-17 0)
(-1.15805e-17 1.34438e-17 0)
(-1.65436e-18 1.42475e-18 0)
(-0.02 -2.87406e-13 0)
(-2.91854e-13 2.91854e-13 0)
(1.96803e-14 -1.96799e-14 0)
(-2.6344e-14 2.63466e-14 0)
(1.32332e-14 -1.32332e-14 0)
(-1.94057e-15 1.94138e-15 0)
(1.1018e-15 -1.0999e-15 0)
(-5.12852e-16 5.13237e-16 0)
(-8.60268e-17 8.54849e-17 0)
(-1.88597e-16 1.90051e-16 0)
(-1.14151e-16 1.1499e-16 0)
(-1.04225e-16 1.04083e-16 0)
(-7.61006e-17 7.74452e-17 0)
(-5.79026e-17 5.95066e-17 0)
(-4.46678e-17 4.42234e-17 0)
(-3.80503e-17 3.69101e-17 0)
(-2.81241e-17 2.8672e-17 0)
(-1.98523e-17 2.14964e-17 0)
(-1.15805e-17 1.09684e-17 0)
(1.65436e-18 -2.02647e-18 0)
(-0.02 8.39987e-13 0)
(8.21023e-13 -8.21025e-13 0)
(-3.72016e-14 3.72047e-14 0)
(7.20656e-14 -7.20667e-14 0)
(-1.90632e-14 1.9065e-14 0)
(4.89525e-15 -4.89459e-15 0)
(-1.8016e-15 1.80187e-15 0)
(5.49248e-16 -5.47994e-16 0)
(-1.68745e-16 1.68144e-16 0)
(-3.30872e-18 4.59274e-18 0)
(-7.11375e-17 7.14427e-17 0)
(-4.79765e-17 4.84252e-17 0)
(-4.79765e-17 4.92206e-17 0)
(-4.1359e-17 4.06117e-17 0)
(-3.14329e-17 3.35034e-17 0)
(-2.31611e-17 2.43105e-17 0)
(-2.15067e-17 2.02673e-17 0)
(-1.65436e-17 1.81226e-17 0)
(-9.92617e-18 9.79338e-18 0)
(-1.65436e-18 1.95093e-18 0)
(-0.02 -1.46159e-12 0)
(-1.43877e-12 1.43877e-12 0)
(6.83119e-14 -6.83122e-14 0)
(-1.19615e-13 1.19617e-13 0)
(3.19656e-14 -3.19656e-14 0)
(-6.76303e-15 6.7625e-15 0)
(3.70908e-15 -3.70853e-15 0)
(-5.82335e-16 5.84349e-16 0)
(3.19292e-16 -3.17247e-16 0)
(-5.29396e-17 5.25985e-17 0)
(1.48893e-17 -1.47262e-17 0)
(-2.31611e-17 2.50003e-17 0)
(-1.8198e-17 1.82007e-17 0)
(-1.98523e-17 2.10856e-17 0)
(-1.98523e-17 1.86732e-17 0)
(-1.48893e-17 1.6531e-17 0)
(-1.32349e-17 1.27565e-17 0)
(-9.92617e-18 1.06198e-17 0)
(-6.61744e-18 6.86304e-18 0)
(0 -3.3282e-19 0)
(-0.02 2.15949e-12 0)
(2.10288e-12 -2.10288e-12 0)
(-8.38083e-14 8.38078e-14 0)
(1.72806e-13 -1.72805e-13 0)
(-4.00422e-14 4.0041e-14 0)
(1.07682e-14 -1.07689e-14 0)
(-4.2881e-15 4.29059e-15 0)
(1.20603e-15 -1.20549e-15 0)
(-2.05141e-16 2.0557e-16 0)
(1.6709e-16 -1.67143e-16 0)
(8.27181e-18 -7.80452e-18 0)
(2.31611e-17 -2.39295e-17 0)
(1.65436e-18 -6.26015e-19 0)
(-1.65436e-18 2.41936e-18 0)
(-6.61744e-18 5.09286e-18 0)
(-4.96308e-18 5.95865e-18 0)
(-6.61744e-18 7.27435e-18 0)
(-8.27181e-18 7.4452e-18 0)
(-3.30872e-18 4.07858e-18 0)
(3.30872e-18 -3.05057e-18 0)
(-0.02 -2.81461e-12 0)
(-2.73761e-12 2.73761e-12 0)
(9.86578e-14 -9.86581e-14 0)
(-2.18917e-13 2.18917e-13 0)
(5.00891e-14 -5.00903e-14 0)
(-1.26095e-14 1.26105e-14 0)
(6.12445e-15 -6.12433e-15 0)
(-1.01578e-15 1.01579e-15 0)
(5.52557e-16 -5.52057e-16 0)
(-3.14329e-17 3.17495e-17 0)
(8.93355e-17 -8.90167e-17 0)
(2.48154e-17 -2.46271e-17 0)
(2.48154e-17 -2.39441e-17 0)
(9.92617e-18 -1.1028e-17 0)
(6.61744e-18 -5.28558e-18 0)
(1.65436e-18 -2.30278e-18 0)
(0 7.25854e-19 0)
(-3.30872e-18 3.53826e-18 0)
(-1.65436e-18 1.24655e-18 0)
(3.30872e-18 -1.98639e-18 0)
(-0.02 3.4228e-12 0)
(3.31395e-12 -3.31395e-12 0)
(-1.07001e-13 1.07e-13 0)
(2.61789e-13 -2.61788e-13 0)
(-5.66817e-14 5.66817e-14 0)
(1.56999e-14 -1.56993e-14 0)
(-6.6373e-15 6.63825e-15 0)
(1.60308e-15 -1.60393e-15 0)
(-3.45761e-16 3.45892e-16 0)
(2.39882e-16 -2.39959e-16 0)
(3.14329e-17 -3.1752e-17 0)
(5.79026e-17 -5.8039e-17 0)
(2.97785e-17 -2.90308e-17 0)
(2.31611e-17 -2.38927e-17 0)
(1.48893e-17 -1.57239e-17 0)
(9.92617e-18 -9.22394e-18 0)
(3.30872e-18 -3.87419e-18 0)
(3.30872e-18 -2.83063e-18 0)
(1.65436e-18 -1.90871e-18 0)
(1.65436e-18 -8.18551e-19 0)
(-0.02 -3.93149e-12 0)
(-3.80228e-12 3.80228e-12 0)
(1.13392e-13 -1.13392e-13 0)
(-2.96107e-13 2.96106e-13 0)
(6.3281e-14 -6.32798e-14 0)
(-1.71739e-14 1.71741e-14 0)
(7.93432e-15 -7.9357e-15 0)
(-1.41944e-15 1.41895e-15 0)
(6.70016e-16 -6.68759e-16 0)
(-6.28657e-17 6.1818e-17 0)
(1.14151e-16 -1.14799e-16 0)
(4.30134e-17 -4.13047e-17 0)
(3.97047e-17 -4.18297e-17 0)
(2.64698e-17 -2.5815e-17 0)
(1.98523e-17 -1.88598e-17 0)
(1.48893e-17 -1.51638e-17 0)
(1.15805e-17 -1.0716e-17 0)
(1.65436e-18 -4.14924e-18 0)
(4.96308e-18 -3.27633e-18 0)
(3.30872e-18 -4.824e-18 0)
(-0.02 4.33358e-12 0)
(4.18166e-12 -4.18166e-12 0)
(-1.16015e-13 1.16015e-13 0)
(3.22686e-13 -3.22687e-13 0)
(-6.73408e-14 6.73394e-14 0)
(1.89871e-14 -1.89872e-14 0)
(-8.23541e-15 8.23515e-15 0)
(1.82145e-15 -1.82113e-15 0)
(-4.73147e-16 4.74003e-16 0)
(2.61389e-16 -2.61399e-16 0)
(2.64698e-17 -2.69304e-17 0)
(6.94832e-17 -6.92648e-17 0)
(3.80503e-17 -3.73759e-17 0)
(3.14329e-17 -3.19428e-17 0)
(2.15067e-17 -2.25352e-17 0)
(1.48893e-17 -1.53745e-17 0)
(1.32349e-17 -1.21592e-17 0)
(8.27181e-18 -8.74011e-18 0)
(4.96308e-18 -5.47368e-18 0)
(1.65436e-18 -1.26755e-18 0)
(-0.02 -4.60389e-12 0)
(-4.43958e-12 4.43958e-12 0)
(1.16373e-13 -1.16374e-13 0)
(-3.39665e-13 3.39665e-13 0)
(7.04162e-14 -7.04168e-14 0)
(-1.96042e-14 1.96038e-14 0)
(8.90377e-15 -8.90307e-15 0)
(-1.64609e-15 1.64487e-15 0)
(7.09721e-16 -7.08765e-16 0)
(-9.5953e-17 9.44096e-17 0)
(1.15805e-16 -1.14518e-16 0)
(3.80503e-17 -3.89311e-17 0)
(4.46678e-17 -4.53419e-17 0)
(2.97785e-17 -3.02288e-17 0)
(2.48154e-17 -2.51357e-17 0)
(1.98523e-17 -1.97421e-17 0)
(1.32349e-17 -1.31844e-17 0)
(9.92617e-18 -9.5475e-18 0)
(3.30872e-18 -4.17805e-18 0)
(1.65436e-18 -1.10719e-18 0)
(-0.02 4.73363e-12 0)
(4.55905e-12 -4.55905e-12 0)
(-1.13716e-13 1.13715e-13 0)
(3.46508e-13 -3.46511e-13 0)
(-7.12897e-14 7.12895e-14 0)
(2.00608e-14 -2.00615e-14 0)
(-8.80616e-15 8.80602e-15 0)
(1.86943e-15 -1.87085e-15 0)
(-5.3105e-16 5.30149e-16 0)
(2.53117e-16 -2.54715e-16 0)
(1.65436e-17 -1.60299e-17 0)
(6.78288e-17 -6.6755e-17 0)
(3.63959e-17 -3.75644e-17 0)
(3.47416e-17 -3.45115e-17 0)
(2.31611e-17 -2.46816e-17 0)
(1.65436e-17 -1.7584e-17 0)
(1.32349e-17 -1.33021e-17 0)
(8.27181e-18 -9.60046e-18 0)
(6.61744e-18 -8.01609e-18 0)
(3.30872e-18 -2.0493e-18 0)
(-0.02 -4.71381e-12 0)
(-4.53912e-12 4.53912e-12 0)
(1.09004e-13 -1.09004e-13 0)
(-3.43042e-13 3.4304e-13 0)
(7.07785e-14 -7.07795e-14 0)
(-1.95016e-14 1.95005e-14 0)
(8.87068e-15 -8.87179e-15 0)
(-1.64774e-15 1.64864e-15 0)
(6.84906e-16 -6.86408e-16 0)
(-1.07533e-16 1.06397e-16 0)
(1.0257e-16 -1.01993e-16 0)
(2.97785e-17 -3.05919e-17 0)
(4.30134e-17 -4.28435e-17 0)
(2.97785e-17 -3.02055e-17 0)
(2.31611e-17 -2.47074e-17 0)
(1.65436e-17 -1.71267e-17 0)
(1.32349e-17 -1.29966e-17 0)
(9.92617e-18 -1.03472e-17 0)
(6.61744e-18 -6.04067e-18 0)
(1.65436e-18 -2.43869e-18 0)
(-0.02 4.54302e-12 0)
(4.37149e-12 -4.37149e-12 0)
(-1.01596e-13 1.01593e-13 0)
(3.29021e-13 -3.2902e-13 0)
(-6.79942e-14 6.79932e-14 0)
(1.86992e-14 -1.86995e-14 0)
(-8.25195e-15 8.25157e-15 0)
(1.73873e-15 -1.73973e-15 0)
(-4.99617e-16 4.97569e-16 0)
(2.26647e-16 -2.26671e-16 0)
(6.61744e-18 -6.45575e-18 0)
(5.45939e-17 -5.61484e-17 0)
(2.81241e-17 -2.86486e-17 0)
(2.81241e-17 -2.84753e-17 0)
(2.15067e-17 -2.11557e-17 0)
(1.8198e-17 -1.76474e-17 0)
(1.15805e-17 -1.3473e-17 0)
(9.92617e-18 -1.05627e-17 0)
(6.61744e-18 -6.56908e-18 0)
(0 -3.17326e-19 0)
(-0.02 -4.22303e-12 0)
(-4.06562e-12 4.06562e-12 0)
(9.30297e-14 -9.3031e-14 0)
(-3.04639e-13 3.04638e-13 0)
(6.39957e-14 -6.39957e-14 0)
(-1.68579e-14 1.68575e-14 0)
(7.80197e-15 -7.80209e-15 0)
(-1.43599e-15 1.43377e-15 0)
(5.87298e-16 -5.87152e-16 0)
(-1.00916e-16 1.01166e-16 0)
(8.27181e-17 -8.35871e-17 0)
(2.15067e-17 -2.20354e-17 0)
(3.14329e-17 -3.15644e-17 0)
(1.65436e-17 -1.90828e-17 0)
(1.8198e-17 -1.80033e-17 0)
(1.65436e-17 -1.53612e-17 0)
(1.15805e-17 -1.37007e-17 0)
(9.92617e-18 -9.94421e-18 0)
(3.30872e-18 -3.37836e-18 0)
(-1.65436e-18 1.75325e-18 0)
(-0.02 3.77116e-12 0)
(3.62869e-12 -3.62869e-12 0)
(-8.13036e-14 8.13031e-14 0)
(2.71454e-13 -2.71456e-13 0)
(-5.73187e-14 5.73195e-14 0)
(1.50034e-14 -1.50047e-14 0)
(-6.6555e-15 6.65431e-15 0)
(1.41117e-15 -1.41179e-15 0)
(-4.03664e-16 4.02279e-16 0)
(1.72054e-16 -1.72161e-16 0)
(-4.96308e-18 4.24564e-18 0)
(3.47416e-17 -3.58736e-17 0)
(1.8198e-17 -1.89676e-17 0)
(1.8198e-17 -1.93158e-17 0)
(1.32349e-17 -1.33321e-17 0)
(9.92617e-18 -1.08409e-17 0)
(9.92617e-18 -9.33857e-18 0)
(9.92617e-18 -1.21547e-17 0)
(6.61744e-18 -6.95001e-18 0)
(-1.65436e-18 1.55859e-18 0)
(-0.02 -3.1875e-12 0)
(-3.07293e-12 3.07293e-12 0)
(7.10499e-14 -7.10512e-14 0)
(-2.28949e-13 2.28948e-13 0)
(5.04051e-14 -5.04069e-14 0)
(-1.21893e-14 1.21896e-14 0)
(5.79192e-15 -5.79429e-15 0)
(-1.1018e-15 1.10118e-15 0)
(4.06973e-16 -4.07003e-16 0)
(-9.5953e-17 9.572e-17 0)
(4.46678e-17 -4.50882e-17 0)
(3.30872e-18 -4.35743e-18 0)
(1.65436e-17 -1.69537e-17 0)
(1.15805e-17 -1.24398e-17 0)
(1.32349e-17 -1.38867e-17 0)
(1.15805e-17 -1.06671e-17 0)
(8.27181e-18 -1.03834e-17 0)
(6.61744e-18 -6.08374e-18 0)
(1.65436e-18 -2.06884e-18 0)
(-1.65436e-18 1.87741e-18 0)
(-0.02 2.53504e-12 0)
(2.4429e-12 -2.4429e-12 0)
(-5.34425e-14 5.34421e-14 0)
(1.79171e-13 -1.79171e-13 0)
(-3.8899e-14 3.88985e-14 0)
(8.94348e-15 -8.94479e-15 0)
(-4.2484e-15 4.24673e-15 0)
(7.94093e-16 -7.95393e-16 0)
(-2.77933e-16 2.78541e-16 0)
(7.44463e-17 -7.57444e-17 0)
(-2.15067e-17 2.11877e-17 0)
(1.15805e-17 -1.18728e-17 0)
(4.96308e-18 -5.67741e-18 0)
(8.27181e-18 -8.2963e-18 0)
(4.96308e-18 -6.08095e-18 0)
(6.61744e-18 -8.20176e-18 0)
(8.27181e-18 -7.43562e-18 0)
(8.27181e-18 -9.44864e-18 0)
(3.30872e-18 -3.92788e-18 0)
(-4.96308e-18 4.24151e-18 0)
(-0.02 -1.86597e-12 0)
(-1.85329e-12 1.85329e-12 0)
(1.06417e-13 -1.06418e-13 0)
(-1.48378e-13 1.48377e-13 0)
(3.54033e-14 -3.54029e-14 0)
(-8.97326e-15 8.97053e-15 0)
(3.61643e-15 -3.61742e-15 0)
(-8.95009e-16 8.95311e-16 0)
(2.11758e-16 -2.13968e-16 0)
(-1.05879e-16 1.05697e-16 0)
(8.27181e-18 -8.58007e-18 0)
(-1.15805e-17 1.13633e-17 0)
(1.65436e-18 -2.38456e-18 0)
(3.30872e-18 -4.83822e-18 0)
(4.96308e-18 -7.06251e-18 0)
(6.61744e-18 -5.83464e-18 0)
(6.61744e-18 -7.86213e-18 0)
(8.27181e-18 -8.64897e-18 0)
(1.65436e-18 -3.45634e-18 0)
(-1.65436e-18 2.44131e-18 0)
(-0.02 7.6287e-13 0)
(7.96262e-13 -7.96264e-13 0)
(-8.73387e-14 8.73376e-14 0)
(7.17629e-14 -7.17619e-14 0)
(-2.05869e-14 2.05856e-14 0)
(4.99617e-15 -4.99659e-15 0)
(-2.35746e-15 2.35819e-15 0)
(3.90429e-16 -3.92334e-16 0)
(-2.48154e-16 2.48856e-16 0)
(8.27181e-18 -8.37452e-18 0)
(-3.63959e-17 3.64991e-17 0)
(-3.30872e-18 4.09987e-18 0)
(-3.30872e-18 1.87657e-18 0)
(3.30872e-18 -2.52352e-18 0)
(1.65436e-18 -3.34608e-18 0)
(4.96308e-18 -5.00462e-18 0)
(6.61744e-18 -7.53322e-18 0)
(9.92617e-18 -1.04226e-17 0)
(4.96308e-18 -5.08457e-18 0)
(-6.61744e-18 6.13438e-18 0)
)
;

boundaryField
{
    movingWall
    {
        type            extrapolatedCalculated;
        value           nonuniform List<vector> 
20
(
(-0.02 7.6287e-13 0)
(7.96262e-13 -7.96264e-13 0)
(-8.73387e-14 8.73376e-14 0)
(7.17629e-14 -7.17619e-14 0)
(-2.05869e-14 2.05856e-14 0)
(4.99617e-15 -4.99659e-15 0)
(-2.35746e-15 2.35819e-15 0)
(3.90429e-16 -3.92334e-16 0)
(-2.48154e-16 2.48856e-16 0)
(8.27181e-18 -8.37452e-18 0)
(-3.63959e-17 3.64991e-17 0)
(-3.30872e-18 4.09987e-18 0)
(-3.30872e-18 1.87657e-18 0)
(3.30872e-18 -2.52352e-18 0)
(1.65436e-18 -3.34608e-18 0)
(4.96308e-18 -5.00462e-18 0)
(6.61744e-18 -7.53322e-18 0)
(9.92617e-18 -1.04226e-17 0)
(4.96308e-18 -5.08457e-18 0)
(-6.61744e-18 6.13438e-18 0)
)
;
    }
    fixedWalls
    {
        type            extrapolatedCalculated;
        value           nonuniform List<vector> 
60
(
(-0.02 -1.3492e-13 0)
(-0.02 1.22638e-13 0)
(-0.02 -2.87406e-13 0)
(-0.02 8.39987e-13 0)
(-0.02 -1.46159e-12 0)
(-0.02 2.15949e-12 0)
(-0.02 -2.81461e-12 0)
(-0.02 3.4228e-12 0)
(-0.02 -3.93149e-12 0)
(-0.02 4.33358e-12 0)
(-0.02 -4.60389e-12 0)
(-0.02 4.73363e-12 0)
(-0.02 -4.71381e-12 0)
(-0.02 4.54302e-12 0)
(-0.02 -4.22303e-12 0)
(-0.02 3.77116e-12 0)
(-0.02 -3.1875e-12 0)
(-0.02 2.53504e-12 0)
(-0.02 -1.86597e-12 0)
(-0.02 7.6287e-13 0)
(1.65436e-18 -1.1633e-18 0)
(-1.65436e-18 1.42475e-18 0)
(1.65436e-18 -2.02647e-18 0)
(-1.65436e-18 1.95093e-18 0)
(0 -3.3282e-19 0)
(3.30872e-18 -3.05057e-18 0)
(3.30872e-18 -1.98639e-18 0)
(1.65436e-18 -8.18551e-19 0)
(3.30872e-18 -4.824e-18 0)
(1.65436e-18 -1.26755e-18 0)
(1.65436e-18 -1.10719e-18 0)
(3.30872e-18 -2.0493e-18 0)
(1.65436e-18 -2.43869e-18 0)
(0 -3.17326e-19 0)
(-1.65436e-18 1.75325e-18 0)
(-1.65436e-18 1.55859e-18 0)
(-1.65436e-18 1.87741e-18 0)
(-4.96308e-18 4.24151e-18 0)
(-1.65436e-18 2.44131e-18 0)
(-6.61744e-18 6.13438e-18 0)
(-0.02 -1.3492e-13 0)
(-6.54945e-14 6.54951e-14 0)
(-5.66089e-14 5.66118e-14 0)
(1.14151e-15 -1.139e-15 0)
(-9.43648e-15 9.43838e-15 0)
(-4.74802e-16 4.75847e-16 0)
(-1.92237e-15 1.9221e-15 0)
(-5.691e-16 5.72507e-16 0)
(-5.54211e-16 5.53244e-16 0)
(-3.01094e-16 3.03003e-16 0)
(-2.28302e-16 2.27653e-16 0)
(-1.53856e-16 1.54794e-16 0)
(-1.12497e-16 1.13786e-16 0)
(-8.27181e-17 8.30598e-17 0)
(-6.12114e-17 6.21285e-17 0)
(-4.63221e-17 4.66115e-17 0)
(-3.47416e-17 3.49874e-17 0)
(-2.64698e-17 2.63724e-17 0)
(-1.15805e-17 1.39349e-17 0)
(1.65436e-18 -1.1633e-18 0)
)
;
    }
    frontAndBack
    {
        type            empty;
    }
}


// ************************************************************************* //
