/*--------------------------------*- C++ -*----------------------------------*\
| =========                 |                                                 |
| \\      /  F ield         | OpenFOAM: The Open Source CFD Toolbox           |
|  \\    /   O peration     | Version:  2506                                  |
|   \\  /    A nd           | Website:  www.openfoam.com                      |
|    \\/     M anipulation  |                                                 |
\*---------------------------------------------------------------------------*/
FoamFile
{
    version     2.0;
    format      ascii;
    arch        "LSB;label=32;scalar=64";
    class       volScalarField;
    location    "4";
    object      initialResidual:Uy;
}
// * * * * * * * * * * * * * * * * * * * * * * * * * * * * * * * * * * * * * //

dimensions      [0 0 0 0 0 0 0];

internalField   nonuniform List<scalar> 
400
(
-6.01734e-14
2.57171e-14
-6.08824e-15
1.4414e-15
-3.41213e-16
8.03551e-17
-1.9336e-17
4.25495e-18
-1.28643e-18
4.95702e-20
-2.37784e-19
-1.47146e-19
-1.44546e-19
-1.25727e-19
-1.18236e-19
-1.04861e-19
-9.23746e-20
-7.62211e-20
-1.59194e-19
-4.71197e-20
6.02342e-14
-2.57114e-14
6.07686e-15
-1.4374e-15
3.37845e-16
-8.07827e-17
1.80124e-17
-5.15005e-18
3.75652e-19
-8.41163e-19
-4.76171e-19
-4.89291e-19
-4.21497e-19
-3.80322e-19
-3.49096e-19
-3.14933e-19
-2.67696e-19
-2.38849e-19
-4.67897e-19
-1.37063e-19
-6.0262e-14
2.57032e-14
-6.0764e-15
1.43338e-15
-3.39905e-16
7.84376e-17
-2.01472e-17
3.21404e-18
-2.13687e-18
-7.40883e-19
-9.38992e-19
-7.64534e-19
-7.00323e-19
-6.30783e-19
-5.75872e-19
-5.16375e-19
-4.46107e-19
-3.90819e-19
-7.58401e-19
-2.22464e-19
6.02962e-14
-2.57067e-14
6.0698e-15
-1.43513e-15
3.35524e-16
-8.16596e-17
1.68899e-17
-6.09371e-18
-4.8223e-19
-1.60193e-18
-1.16448e-18
-1.09041e-18
-9.55633e-19
-8.7128e-19
-7.95078e-19
-7.11457e-19
-6.01114e-19
-5.33077e-19
-1.03694e-18
-3.02801e-19
-6.04221e-14
2.5752e-14
-6.0863e-15
1.43233e-15
-3.41011e-16
7.71552e-17
-2.11462e-17
2.27136e-18
-2.95665e-18
-1.46895e-18
-1.58896e-18
-1.35004e-18
-1.21262e-18
-1.08166e-18
-9.83689e-19
-8.96637e-19
-7.6219e-19
-6.65069e-19
-1.28763e-18
-3.75222e-19
6.05754e-14
-2.58301e-14
6.09631e-15
-1.44361e-15
3.35674e-16
-8.33051e-17
1.59504e-17
-7.00814e-18
-1.24584e-18
-2.28721e-18
-1.7605e-18
-1.6229e-18
-1.42502e-18
-1.27499e-18
-1.16207e-18
-1.0623e-18
-9.01228e-19
-7.82929e-19
-1.51121e-18
-4.41547e-19
-6.0861e-14
2.59473e-14
-6.13854e-15
1.44293e-15
-3.45844e-16
7.67564e-17
-2.23888e-17
1.49037e-18
-3.68423e-18
-2.08282e-18
-2.124e-18
-1.8045e-18
-1.61507e-18
-1.44437e-18
-1.32357e-18
-1.19537e-18
-1.01211e-18
-8.88522e-19
-1.70983e-18
-4.99034e-19
6.11621e-14
-2.61091e-14
6.1638e-15
-1.46401e-15
3.38944e-16
-8.57616e-17
1.53277e-17
-7.88897e-18
-1.87074e-18
-2.82161e-18
-2.20181e-18
-2.00745e-18
-1.76858e-18
-1.5848e-18
-1.441e-18
-1.30744e-18
-1.10414e-18
-9.73741e-19
-1.86175e-18
-5.41135e-19
-6.16044e-14
2.62903e-14
-6.23022e-15
1.46412e-15
-3.53587e-16
7.72247e-17
-2.36787e-17
9.14193e-19
-4.26515e-18
-2.50868e-18
-2.48246e-18
-2.11452e-18
-1.88853e-18
-1.68298e-18
-1.53488e-18
-1.39719e-18
-1.17216e-18
-1.024e-18
-1.96201e-18
-5.70283e-19
6.20477e-14
-2.65312e-14
6.26845e-15
-1.49411e-15
3.45008e-16
-8.87094e-17
1.51024e-17
-8.57579e-18
-2.25542e-18
-3.17109e-18
-2.47896e-18
-2.23424e-18
-1.94771e-18
-1.73735e-18
-1.58432e-18
-1.44139e-18
-1.21734e-18
-1.06372e-18
-2.02404e-18
-5.85517e-19
-6.26186e-14
2.67615e-14
-6.35444e-15
1.49422e-15
-3.63218e-16
7.85599e-17
-2.48437e-17
6.60451e-19
-4.60182e-18
-2.72919e-18
-2.66167e-18
-2.2409e-18
-1.98874e-18
-1.75514e-18
-1.59011e-18
-1.4524e-18
-1.2338e-18
-1.08045e-18
-2.03413e-18
-5.86875e-19
6.31703e-14
-2.70611e-14
6.40171e-15
-1.53058e-15
3.53378e-16
-9.169e-17
1.53326e-17
-8.9892e-18
-2.37674e-18
-3.28568e-18
-2.5344e-18
-2.25601e-18
-1.96243e-18
-1.74489e-18
-1.5838e-18
-1.43549e-18
-1.2095e-18
-1.06425e-18
-2.00198e-18
-5.7537e-19
-6.38104e-14
2.73148e-14
-6.49813e-15
1.53016e-15
-3.73444e-16
8.07124e-17
-2.56669e-17
7.64149e-19
-4.65235e-18
-2.6872e-18
-2.60545e-18
-2.16646e-18
-1.90627e-18
-1.68479e-18
-1.52909e-18
-1.37401e-18
-1.15557e-18
-1.03024e-18
-1.92945e-18
-5.47791e-19
6.4405e-14
-2.76369e-14
6.54821e-15
-1.56867e-15
3.63142e-16
-9.41907e-17
1.60877e-17
-9.01358e-18
-2.16244e-18
-3.11465e-18
-2.34425e-18
-2.08651e-18
-1.79438e-18
-1.58998e-18
-1.43449e-18
-1.28781e-18
-1.08183e-18
-9.58593e-19
-1.79921e-18
-5.10762e-19
-6.50278e-14
2.78797e-14
-6.64185e-15
1.56736e-15
-3.82678e-16
8.35373e-17
-2.58896e-17
1.31211e-18
-4.31811e-18
-2.32285e-18
-2.29298e-18
-1.88449e-18
-1.6467e-18
-1.4504e-18
-1.30839e-18
-1.17119e-18
-9.75194e-19
-8.69829e-19
-1.62743e-18
-4.63286e-19
6.55769e-14
-2.81774e-14
6.68677e-15
-1.60273e-15
3.73126e-16
-9.56521e-17
1.74006e-17
-8.49503e-18
-1.52423e-18
-2.59895e-18
-1.88641e-18
-1.68529e-18
-1.43416e-18
-1.26309e-18
-1.13477e-18
-1.02031e-18
-8.56766e-19
-7.59356e-19
-1.40847e-18
-3.96945e-19
-6.60868e-14
2.83709e-14
-6.7636e-15
1.60044e-15
-3.89254e-16
8.68265e-17
-2.53181e-17
2.38684e-18
-3.53506e-18
-1.6075e-18
-1.68313e-18
-1.35551e-18
-1.19143e-18
-1.04368e-18
-9.45236e-19
-8.40969e-19
-6.92172e-19
-6.1844e-19
-1.15412e-18
-3.22765e-19
6.64974e-14
-2.85934e-14
6.7968e-15
-1.6269e-15
3.82082e-16
-9.57016e-17
1.92474e-17
-7.44666e-18
-4.99419e-19
-1.74914e-18
-1.15019e-18
-1.0625e-18
-9.00945e-19
-7.9735e-19
-7.13905e-19
-6.3994e-19
-5.26403e-19
-4.61867e-19
-8.6529e-19
-2.43971e-19
-6.68076e-14
2.87129e-14
-6.84254e-15
1.62441e-15
-3.91446e-16
9.00763e-17
-2.39168e-17
3.79674e-18
-2.41052e-18
-6.45238e-19
-8.54963e-19
-6.49144e-19
-5.74736e-19
-4.99516e-19
-4.50169e-19
-4.04011e-19
-3.17926e-19
-2.76805e-19
-5.53029e-19
-1.58317e-19
6.69916e-14
-2.88624e-14
6.88395e-15
-1.6444e-15
3.92177e-16
-9.48173e-17
2.18166e-17
-5.93878e-18
8.75015e-19
-6.49811e-19
-1.98396e-19
-2.44951e-19
-1.8693e-19
-1.72036e-19
-1.56441e-19
-1.32626e-19
-9.34719e-20
-8.41289e-20
-1.98313e-19
-5.80376e-20
)
;

boundaryField
{
    movingWall
    {
        type            zeroGradient;
    }
    fixedWalls
    {
        type            zeroGradient;
    }
    frontAndBack
    {
        type            empty;
    }
}


// ************************************************************************* //
