/*--------------------------------*- C++ -*----------------------------------*\
| =========                 |                                                 |
| \\      /  F ield         | OpenFOAM: The Open Source CFD Toolbox           |
|  \\    /   O peration     | Version:  2506                                  |
|   \\  /    A nd           | Website:  www.openfoam.com                      |
|    \\/     M anipulation  |                                                 |
\*---------------------------------------------------------------------------*/
FoamFile
{
    version     2.0;
    format      ascii;
    arch        "LSB;label=32;scalar=64";
    class       volScalarField;
    location    "4";
    object      initialResidual:Ux;
}
// * * * * * * * * * * * * * * * * * * * * * * * * * * * * * * * * * * * * * //

dimensions      [0 0 0 0 0 0 0];

internalField   nonuniform List<scalar> 
400
(
-1.6763e-16
-3.63208e-18
8.19928e-19
-1.30036e-17
-3.00188e-18
-5.2516e-18
-2.99511e-18
-2.57498e-18
-1.94479e-18
-1.57887e-18
-1.23328e-18
-1.02322e-18
-9.01243e-19
-7.52165e-19
-6.50521e-19
-5.69206e-19
-4.60786e-19
-3.79471e-19
-2.50722e-19
0
9.99215e-16
-4.04706e-16
1.23653e-16
-4.66004e-17
5.42101e-18
-7.81981e-18
-2.22939e-18
-2.75116e-18
-1.82959e-18
-1.53144e-18
-1.2265e-18
-1.01644e-18
-8.67362e-19
-7.45389e-19
-6.23416e-19
-5.42101e-19
-4.33681e-19
-3.79471e-19
-2.57498e-19
-2.71051e-20
-1.75122e-15
7.02062e-16
-2.4177e-16
6.19215e-17
-2.49434e-17
1.71439e-18
-4.85858e-18
-1.87025e-18
-1.97867e-18
-1.38913e-18
-1.13164e-18
-9.48677e-19
-8.26704e-19
-6.97955e-19
-5.96311e-19
-4.87891e-19
-4.40457e-19
-3.65918e-19
-2.30393e-19
-1.35525e-20
2.65897e-15
-1.06799e-15
3.42208e-16
-1.08745e-16
2.34188e-17
-1.31527e-17
-5.01444e-19
-2.94767e-18
-1.47045e-18
-1.36881e-18
-1.00966e-18
-8.3348e-19
-6.77626e-19
-5.96311e-19
-5.35325e-19
-4.5401e-19
-3.38813e-19
-3.38813e-19
-2.10064e-19
-4.06576e-20
-3.60867e-15
1.43777e-15
-4.86136e-16
1.30341e-16
-4.46149e-17
8.0231e-18
-6.1664e-18
-1.04354e-18
-1.79571e-18
-1.04354e-18
-8.74138e-19
-7.11508e-19
-5.35325e-19
-5.0822e-19
-4.47233e-19
-3.79471e-19
-3.52366e-19
-2.77827e-19
-1.89735e-19
-1.35525e-20
4.47617e-15
-1.78066e-15
5.76226e-16
-1.72944e-16
4.26363e-17
-1.8445e-17
1.56532e-18
-2.97478e-18
-9.28348e-19
-1.01644e-18
-6.30193e-19
-5.35325e-19
-4.06576e-19
-3.52366e-19
-2.98156e-19
-3.11708e-19
-2.77827e-19
-2.1684e-19
-1.49078e-19
-1.35525e-20
-5.3488e-15
2.11934e-15
-7.11331e-16
1.933e-16
-6.19283e-17
1.42234e-17
-6.97955e-18
-3.38813e-20
-1.33492e-18
-5.21772e-19
-4.87891e-19
-3.45589e-19
-2.37169e-19
-2.23617e-19
-1.89735e-19
-1.76183e-19
-1.82959e-19
-2.03288e-19
-9.48677e-20
-4.06576e-20
5.98345e-15
-2.36115e-15
7.68049e-16
-2.23637e-16
5.88925e-17
-2.205e-17
3.65241e-18
-2.58853e-18
-1.35525e-19
-4.60786e-19
-1.21973e-19
-9.48677e-20
-7.45389e-20
-4.74338e-20
-4.74338e-20
-9.48677e-20
-1.21973e-19
-1.28749e-19
-6.09864e-20
-2.71051e-20
-6.61292e-15
2.60726e-15
-8.70431e-16
2.38978e-16
-7.2811e-17
1.93056e-17
-6.87791e-18
1.17229e-18
-6.43745e-19
1.76183e-19
7.45389e-20
1.82959e-19
1.21973e-19
1.28749e-19
7.45389e-20
4.74338e-20
2.71051e-20
-4.74338e-20
-4.06576e-20
-1.35525e-20
6.89765e-15
-2.70079e-15
8.82629e-16
-2.51047e-16
6.95041e-17
-2.29648e-17
5.64463e-18
-1.69407e-18
8.13152e-19
2.84603e-19
5.14996e-19
4.20128e-19
4.06576e-19
3.25261e-19
2.43945e-19
1.6263e-19
6.77626e-20
8.80914e-20
-1.35525e-20
-2.71051e-20
-7.17367e-15
2.81564e-15
-9.3425e-16
2.59924e-16
-7.50336e-17
2.27005e-17
-5.61752e-18
2.48011e-18
2.98156e-19
1.03677e-18
7.72494e-19
7.2506e-19
6.36969e-19
5.28549e-19
4.06576e-19
2.91379e-19
2.03288e-19
1.49078e-19
3.38813e-20
1.35525e-20
7.05414e-15
-2.73991e-15
9.0043e-16
-2.50166e-16
7.296e-17
-2.07421e-17
7.35902e-18
-3.25261e-19
1.87703e-18
1.18585e-18
1.23328e-18
1.01644e-18
8.67362e-19
7.31836e-19
6.09864e-19
3.998e-19
2.71051e-19
2.03288e-19
9.48677e-20
-1.35525e-20
-6.92978e-15
2.70966e-15
-8.92434e-16
2.53005e-16
-6.80879e-17
2.40693e-17
-3.39491e-18
3.79471e-18
1.49078e-18
1.93801e-18
1.52466e-18
1.37558e-18
1.10453e-18
9.69006e-19
7.58942e-19
5.48877e-19
4.13352e-19
2.64274e-19
1.35525e-19
1.35525e-20
6.41936e-15
-2.47277e-15
8.19386e-16
-2.20988e-16
6.89688e-17
-1.57751e-17
8.72783e-18
1.40946e-18
3.01544e-18
2.10742e-18
1.97867e-18
1.66018e-18
1.38913e-18
1.12486e-18
9.08019e-19
6.77626e-19
5.35325e-19
3.38813e-19
1.82959e-19
2.71051e-20
-5.90946e-15
2.30556e-15
-7.51494e-16
2.19212e-16
-5.3092e-17
2.32968e-17
-4.40457e-19
5.13641e-18
2.76472e-18
2.84603e-18
2.27005e-18
1.95834e-18
1.64663e-18
1.29427e-18
1.02322e-18
7.72494e-19
6.03087e-19
4.13352e-19
2.43945e-19
1.35525e-20
5.07898e-15
-1.93847e-15
6.5103e-16
-1.67943e-16
5.83707e-17
-8.72783e-18
9.5071e-18
3.23905e-18
4.06576e-18
3.06965e-18
2.6563e-18
2.22261e-18
1.81604e-18
1.49078e-18
1.17229e-18
8.80914e-19
6.84403e-19
4.87891e-19
2.71051e-19
0
-4.24844e-15
1.65936e-15
-5.30792e-16
1.63633e-16
-3.22821e-17
2.05592e-17
2.90024e-18
6.09864e-18
3.93701e-18
3.5982e-18
2.90702e-18
2.47334e-18
2.0261e-18
1.6263e-18
1.3146e-18
1.02322e-18
7.31836e-19
5.35325e-19
2.91379e-19
2.71051e-20
3.20962e-15
-1.20836e-15
4.17601e-16
-9.81406e-17
4.25956e-17
-6.7085e-19
9.66295e-18
4.93312e-18
4.81115e-18
3.75405e-18
3.18484e-18
2.59531e-18
2.1413e-18
1.76183e-18
1.38913e-18
1.0842e-18
8.19928e-19
5.89535e-19
3.11708e-19
5.42101e-20
-2.22524e-15
8.85116e-16
-2.67418e-16
9.40681e-17
-9.05986e-18
1.6114e-17
5.97666e-18
6.52554e-18
4.83148e-18
4.08609e-18
3.32037e-18
2.78504e-18
2.26327e-18
1.84314e-18
1.484e-18
1.13164e-18
8.47033e-19
6.43745e-19
3.45589e-19
4.06576e-20
1.05143e-15
-4.55284e-16
1.81861e-16
-3.46606e-17
2.7803e-17
5.35325e-18
9.37157e-18
5.93601e-18
5.2516e-18
4.16063e-18
3.47622e-18
2.86636e-18
2.30393e-18
1.91768e-18
1.47723e-18
1.16552e-18
8.67362e-19
6.64074e-19
3.86247e-19
4.06576e-20
)
;

boundaryField
{
    movingWall
    {
        type            zeroGradient;
    }
    fixedWalls
    {
        type            zeroGradient;
    }
    frontAndBack
    {
        type            empty;
    }
}


// ************************************************************************* //
