/*--------------------------------*- C++ -*----------------------------------*\
| =========                 |                                                 |
| \\      /  F ield         | OpenFOAM: The Open Source CFD Toolbox           |
|  \\    /   O peration     | Version:  2506                                  |
|   \\  /    A nd           | Website:  www.openfoam.com                      |
|    \\/     M anipulation  |                                                 |
\*---------------------------------------------------------------------------*/
FoamFile
{
    version     2.0;
    format      ascii;
    arch        "LSB;label=32;scalar=64";
    class       volScalarField;
    location    "4";
    object      initialResidual:p;
}
// * * * * * * * * * * * * * * * * * * * * * * * * * * * * * * * * * * * * * //

dimensions      [0 0 0 0 0 0 0];

internalField   nonuniform List<scalar> 
400
(
-5.31936e-17
4.89911e-17
-1.49033e-18
-7.59698e-20
7.9051e-19
2.77873e-19
2.81134e-19
4.95916e-20
-2.23607e-20
-7.92893e-20
-8.90093e-20
-1.37231e-19
-1.27748e-19
-1.21652e-19
-1.20354e-19
-9.42677e-20
-5.54048e-20
-6.42088e-20
-4.70747e-20
2.84926e-20
1.57606e-16
-2.09968e-16
3.8666e-17
-9.72009e-18
4.74371e-18
-4.90275e-19
5.63572e-19
-3.70436e-20
5.97797e-21
-8.00705e-20
-9.51238e-20
-1.1489e-19
-1.33159e-19
-1.3158e-19
-9.00415e-20
-8.60895e-20
-6.49875e-20
-7.31198e-20
-5.2165e-20
3.63948e-20
-2.9084e-16
3.71822e-16
-6.65466e-17
1.94562e-17
-6.39173e-18
2.03059e-18
-2.31915e-19
2.40611e-19
-6.85937e-20
-6.09908e-20
-1.21858e-19
-1.33737e-19
-1.16063e-19
-1.3324e-19
-1.14385e-19
-8.98457e-20
-6.43296e-20
-3.31464e-20
-5.45601e-20
4.14869e-20
3.78829e-16
-5.60119e-16
9.80789e-17
-2.85769e-17
1.09406e-17
-1.76111e-18
1.02901e-18
-1.12782e-19
5.64428e-20
-9.04286e-20
-1.0818e-19
-1.21587e-19
-1.21393e-19
-1.32464e-19
-1.12982e-19
-7.22392e-20
-7.21328e-20
-4.60716e-20
-6.98367e-20
3.62637e-20
-5.03922e-16
7.52868e-16
-1.30528e-16
4.14906e-17
-1.31826e-17
3.47127e-18
-7.67776e-19
3.91345e-19
-6.60702e-20
-3.21706e-20
-1.11991e-19
-1.3343e-19
-1.12027e-19
-1.32566e-19
-9.06589e-20
-1.01705e-19
-7.9798e-20
-5.33434e-20
-3.21421e-20
2.04878e-20
5.69155e-16
-9.37679e-16
1.59982e-16
-5.06296e-17
1.74286e-17
-3.0687e-18
1.55573e-18
-2.64953e-19
1.14155e-19
-8.30471e-20
-7.82112e-20
-1.12204e-19
-1.1042e-19
-1.40961e-19
-1.17301e-19
-8.81963e-20
-6.34401e-20
-5.01272e-20
-5.64748e-20
2.90727e-20
-6.7092e-16
1.11424e-15
-1.88911e-16
6.29187e-17
-1.95873e-17
4.72573e-18
-1.28179e-18
5.40573e-19
-1.12779e-19
-1.59477e-20
-1.06323e-19
-8.74226e-20
-1.12867e-19
-1.08874e-19
-1.06422e-19
-1.06058e-19
-7.75223e-20
-5.08353e-20
-5.19805e-20
1.30046e-20
7.02613e-16
-1.2557e-15
2.10719e-16
-6.92719e-17
2.27249e-17
-4.20367e-18
1.95218e-18
-3.69444e-19
1.36819e-19
-1.02435e-19
-7.09609e-20
-1.00922e-19
-1.15797e-19
-1.14982e-19
-1.00325e-19
-9.8597e-20
-7.72135e-20
-4.45107e-20
-4.06419e-20
2.16393e-20
-7.64101e-16
1.3801e-15
-2.30464e-16
7.81986e-17
-2.43484e-17
5.49309e-18
-1.70325e-18
5.85663e-19
-1.38474e-19
-4.64592e-21
-1.07614e-19
-9.20531e-20
-1.04435e-19
-1.02611e-19
-9.95489e-20
-9.33008e-20
-8.29689e-20
-5.77354e-20
-2.64473e-20
1.23179e-20
7.55995e-16
-1.45187e-15
2.40487e-16
-8.01934e-17
2.56893e-17
-4.95663e-18
2.06393e-18
-4.7213e-19
1.32329e-19
-1.26454e-19
-7.50248e-20
-1.00189e-19
-9.80571e-20
-1.19977e-19
-9.30086e-20
-9.67596e-20
-5.58584e-20
-6.16889e-20
-5.67816e-20
7.2599e-21
-7.64501e-16
1.50073e-15
-2.47812e-16
8.40955e-17
-2.65993e-17
5.61066e-18
-1.98646e-18
5.21617e-19
-1.86525e-19
-4.45543e-20
-1.1463e-19
-9.44198e-20
-1.1683e-19
-1.10496e-19
-9.04802e-20
-6.95302e-20
-7.3718e-20
-8.77664e-20
-4.15386e-22
-8.5983e-21
7.23512e-16
-1.48945e-15
2.44106e-16
-8.136e-17
2.57326e-17
-5.2779e-18
1.89791e-18
-5.98559e-19
6.39395e-20
-1.56888e-19
-1.08332e-19
-1.4119e-19
-9.29347e-20
-8.84042e-20
-1.29037e-19
-8.83632e-20
-5.3591e-20
-6.41553e-20
-3.78541e-20
-1.39271e-20
-6.79544e-16
1.45295e-15
-2.37871e-16
7.97109e-17
-2.5911e-17
5.0118e-18
-2.08165e-18
3.74634e-19
-2.54184e-19
-8.31643e-20
-1.39052e-19
-1.06319e-19
-1.24422e-19
-1.06517e-19
-1.16728e-19
-8.88322e-20
-5.47355e-20
-7.24171e-20
-1.03375e-20
-1.57198e-20
6.20341e-16
-1.35907e-15
2.20724e-16
-7.29976e-17
2.28291e-17
-4.9942e-18
1.49936e-18
-6.50279e-19
-2.85432e-20
-1.78037e-19
-1.31779e-19
-1.36775e-19
-1.29245e-19
-1.13912e-19
-1.14482e-19
-6.84047e-20
-5.72716e-20
-8.90008e-20
-7.35215e-21
-2.82215e-20
-5.32885e-16
1.24091e-15
-2.01549e-16
6.61892e-17
-2.23659e-17
3.87199e-18
-1.9541e-18
1.83288e-19
-2.87516e-19
-1.19235e-19
-1.56533e-19
-1.27362e-19
-1.52172e-19
-1.2518e-19
-8.3808e-20
-7.90834e-20
-6.37614e-20
-8.09554e-20
-8.78012e-21
-3.60743e-20
4.6899e-16
-1.07767e-15
1.73256e-16
-5.63985e-17
1.74729e-17
-4.18766e-18
9.14317e-19
-6.57835e-19
-1.00501e-19
-2.20417e-19
-1.39428e-19
-1.45793e-19
-1.28029e-19
-1.13633e-19
-1.05215e-19
-6.13017e-20
-7.038e-20
-4.42379e-20
-1.25786e-20
-2.88005e-20
-3.48968e-16
8.93033e-16
-1.43776e-16
4.55568e-17
-1.65145e-17
2.33314e-18
-1.62844e-18
-7.68883e-20
-3.28979e-19
-1.61049e-19
-1.57424e-19
-1.39764e-19
-1.19029e-19
-1.15847e-19
-1.03655e-19
-8.56187e-20
-5.14366e-20
-5.18053e-20
-9.35396e-21
-5.64155e-20
2.96871e-16
-6.80841e-16
1.0891e-16
-3.40985e-17
1.04385e-17
-3.11296e-18
2.28077e-19
-6.63211e-19
-2.0695e-19
-2.24668e-19
-1.61602e-19
-1.4294e-19
-1.29272e-19
-1.05361e-19
-6.43221e-20
-6.1451e-20
-5.26549e-20
-6.89146e-20
-1.72229e-20
-4.27713e-20
-1.43828e-16
4.53362e-16
-7.20692e-17
2.16049e-17
-8.71155e-18
6.83379e-19
-1.16028e-18
-2.65856e-19
-3.21422e-19
-2.04714e-19
-1.50877e-19
-1.26882e-19
-9.32677e-20
-8.17271e-20
-8.04048e-20
-6.84069e-20
-2.55277e-20
-3.57805e-20
6.97084e-22
-6.97699e-20
8.81847e-17
-1.90157e-16
4.02069e-17
-1.23779e-17
3.78621e-18
-1.6424e-18
-7.67913e-20
-4.42713e-19
-2.12256e-19
-1.64761e-19
-1.17291e-19
-9.69102e-20
-7.65566e-20
-7.65067e-20
-3.57231e-20
-2.19499e-20
-4.9004e-20
-1.54544e-20
2.5098e-20
-5.42102e-20
)
;

boundaryField
{
    movingWall
    {
        type            zeroGradient;
    }
    fixedWalls
    {
        type            zeroGradient;
    }
    frontAndBack
    {
        type            empty;
    }
}


// ************************************************************************* //
