/*--------------------------------*- C++ -*----------------------------------*\
| =========                 |                                                 |
| \\      /  F ield         | OpenFOAM: The Open Source CFD Toolbox           |
|  \\    /   O peration     | Version:  2506                                  |
|   \\  /    A nd           | Website:  www.openfoam.com                      |
|    \\/     M anipulation  |                                                 |
\*---------------------------------------------------------------------------*/
FoamFile
{
    version     2.0;
    format      ascii;
    arch        "LSB;label=32;scalar=64";
    class       volScalarField;
    location    "4";
    object      initialResidual:k;
}
// * * * * * * * * * * * * * * * * * * * * * * * * * * * * * * * * * * * * * //

dimensions      [0 0 0 0 0 0 0];

internalField   nonuniform List<scalar> 
400
(
-5.01359e-12
-4.99197e-12
-5.01384e-12
-4.99024e-12
-5.01394e-12
-4.9904e-12
-5.01286e-12
-4.99364e-12
-5.00809e-12
-4.99781e-12
-5.00224e-12
-5.00224e-12
-5.00195e-12
-5.00232e-12
-5.00218e-12
-5.00218e-12
-5.00219e-12
-5.00218e-12
-5.00211e-12
-5.00207e-12
-7.42319e-12
-7.40994e-12
-7.43255e-12
-7.41628e-12
-7.42327e-12
-7.40472e-12
-7.42265e-12
-7.40123e-12
-7.41762e-12
-7.40181e-12
-7.41375e-12
-7.4001e-12
-7.41413e-12
-7.3953e-12
-7.40616e-12
-7.39944e-12
-7.40692e-12
-7.39724e-12
-7.4012e-12
-7.40113e-12
-1.04576e-11
-1.0412e-11
-1.0479e-11
-1.04463e-11
-1.04519e-11
-1.04255e-11
-1.045e-11
-1.04183e-11
-1.04428e-11
-1.04156e-11
-1.04345e-11
-1.04168e-11
-1.04531e-11
-1.03917e-11
-1.04354e-11
-1.0403e-11
-1.04171e-11
-1.04156e-11
-1.04161e-11
-1.04158e-11
-1.27614e-11
-1.27567e-11
-1.27604e-11
-1.27384e-11
-1.27581e-11
-1.27209e-11
-1.27542e-11
-1.27105e-11
-1.27465e-11
-1.27074e-11
-1.27587e-11
-1.26839e-11
-1.27532e-11
-1.26767e-11
-1.27343e-11
-1.26901e-11
-1.27088e-11
-1.27062e-11
-1.27075e-11
-1.2707e-11
-1.41888e-11
-1.41425e-11
-1.42081e-11
-1.41669e-11
-1.41734e-11
-1.41633e-11
-1.41561e-11
-1.41354e-11
-1.41582e-11
-1.4127e-11
-1.41479e-11
-1.41246e-11
-1.41383e-11
-1.41239e-11
-1.41294e-11
-1.41219e-11
-1.41238e-11
-1.41212e-11
-1.4121e-11
-1.41207e-11
-1.49919e-11
-1.49295e-11
-1.50216e-11
-1.49688e-11
-1.49737e-11
-1.49658e-11
-1.49555e-11
-1.49441e-11
-1.49496e-11
-1.49324e-11
-1.49392e-11
-1.49324e-11
-1.49253e-11
-1.49332e-11
-1.4916e-11
-1.49252e-11
-1.49151e-11
-1.49183e-11
-1.49169e-11
-1.49172e-11
-1.5446e-11
-1.5343e-11
-1.5503e-11
-1.54221e-11
-1.54221e-11
-1.5427e-11
-1.53969e-11
-1.54047e-11
-1.53856e-11
-1.54002e-11
-1.53714e-11
-1.53799e-11
-1.5374e-11
-1.53801e-11
-1.53651e-11
-1.53708e-11
-1.53642e-11
-1.53656e-11
-1.53648e-11
-1.53647e-11
-1.57179e-11
-1.56725e-11
-1.57414e-11
-1.56876e-11
-1.56967e-11
-1.56759e-11
-1.56875e-11
-1.5662e-11
-1.56766e-11
-1.56492e-11
-1.5667e-11
-1.56448e-11
-1.56555e-11
-1.56407e-11
-1.56469e-11
-1.56463e-11
-1.56351e-11
-1.56382e-11
-1.56362e-11
-1.56369e-11
-1.59112e-11
-1.58784e-11
-1.59256e-11
-1.58778e-11
-1.58936e-11
-1.58643e-11
-1.58828e-11
-1.58476e-11
-1.58767e-11
-1.58324e-11
-1.58698e-11
-1.5827e-11
-1.58563e-11
-1.58304e-11
-1.58413e-11
-1.583e-11
-1.58261e-11
-1.58358e-11
-1.58269e-11
-1.58284e-11
-1.60748e-11
-1.60038e-11
-1.61125e-11
-1.60464e-11
-1.6055e-11
-1.60204e-11
-1.605e-11
-1.60036e-11
-1.604e-11
-1.59896e-11
-1.60263e-11
-1.59884e-11
-1.60113e-11
-1.59941e-11
-1.59898e-11
-1.59922e-11
-1.59913e-11
-1.59898e-11
-1.59872e-11
-1.59872e-11
-1.62226e-11
-1.61808e-11
-1.62429e-11
-1.61926e-11
-1.62057e-11
-1.61812e-11
-1.61945e-11
-1.61575e-11
-1.6189e-11
-1.61433e-11
-1.61772e-11
-1.6138e-11
-1.61614e-11
-1.61418e-11
-1.61486e-11
-1.61411e-11
-1.61403e-11
-1.61385e-11
-1.61387e-11
-1.61377e-11
-1.63812e-11
-1.63237e-11
-1.64117e-11
-1.63502e-11
-1.63631e-11
-1.63331e-11
-1.6359e-11
-1.63055e-11
-1.63536e-11
-1.62945e-11
-1.63363e-11
-1.62937e-11
-1.63318e-11
-1.62845e-11
-1.63275e-11
-1.62744e-11
-1.63084e-11
-1.6282e-11
-1.62933e-11
-1.62936e-11
-1.65518e-11
-1.64974e-11
-1.65736e-11
-1.65253e-11
-1.65343e-11
-1.6512e-11
-1.6513e-11
-1.65008e-11
-1.65036e-11
-1.64749e-11
-1.6501e-11
-1.64696e-11
-1.64861e-11
-1.6471e-11
-1.64703e-11
-1.64672e-11
-1.64656e-11
-1.64647e-11
-1.64639e-11
-1.64636e-11
-1.67466e-11
-1.66484e-11
-1.68059e-11
-1.67127e-11
-1.67252e-11
-1.67023e-11
-1.67122e-11
-1.66844e-11
-1.6697e-11
-1.66752e-11
-1.66833e-11
-1.667e-11
-1.66683e-11
-1.66692e-11
-1.66565e-11
-1.66663e-11
-1.66512e-11
-1.66563e-11
-1.66539e-11
-1.66547e-11
-1.69639e-11
-1.69189e-11
-1.69797e-11
-1.69679e-11
-1.69149e-11
-1.69519e-11
-1.68986e-11
-1.69501e-11
-1.68751e-11
-1.69438e-11
-1.68565e-11
-1.69176e-11
-1.6862e-11
-1.68835e-11
-1.68771e-11
-1.68774e-11
-1.68768e-11
-1.68753e-11
-1.68745e-11
-1.68739e-11
-1.72206e-11
-1.72141e-11
-1.72122e-11
-1.72094e-11
-1.71922e-11
-1.71681e-11
-1.71868e-11
-1.71802e-11
-1.71666e-11
-1.71397e-11
-1.7173e-11
-1.71328e-11
-1.71566e-11
-1.71352e-11
-1.71435e-11
-1.71347e-11
-1.71311e-11
-1.71313e-11
-1.71304e-11
-1.71304e-11
-1.75306e-11
-1.74515e-11
-1.75745e-11
-1.74979e-11
-1.75031e-11
-1.75095e-11
-1.74721e-11
-1.74679e-11
-1.74739e-11
-1.74567e-11
-1.74596e-11
-1.74538e-11
-1.74418e-11
-1.74583e-11
-1.74276e-11
-1.74474e-11
-1.74269e-11
-1.74345e-11
-1.74318e-11
-1.74329e-11
-1.78795e-11
-1.77988e-11
-1.79202e-11
-1.78481e-11
-1.78549e-11
-1.78144e-11
-1.78469e-11
-1.7797e-11
-1.7836e-11
-1.77799e-11
-1.78226e-11
-1.77754e-11
-1.78058e-11
-1.7782e-11
-1.77775e-11
-1.77799e-11
-1.77896e-11
-1.77691e-11
-1.77765e-11
-1.77751e-11
-1.82017e-11
-1.81073e-11
-1.8271e-11
-1.8172e-11
-1.81841e-11
-1.81562e-11
-1.81663e-11
-1.81378e-11
-1.81469e-11
-1.81565e-11
-1.81133e-11
-1.81422e-11
-1.81035e-11
-1.81265e-11
-1.81032e-11
-1.81055e-11
-1.81096e-11
-1.8106e-11
-1.81063e-11
-1.81051e-11
-1.83462e-11
-1.8287e-11
-1.83549e-11
-1.8275e-11
-1.83634e-11
-1.82716e-11
-1.83638e-11
-1.82744e-11
-1.83556e-11
-1.82862e-11
-1.83413e-11
-1.83033e-11
-1.83244e-11
-1.8315e-11
-1.83176e-11
-1.83178e-11
-1.83178e-11
-1.83177e-11
-1.83177e-11
-1.83177e-11
)
;

boundaryField
{
    movingWall
    {
        type            zeroGradient;
    }
    fixedWalls
    {
        type            zeroGradient;
    }
    frontAndBack
    {
        type            empty;
    }
}


// ************************************************************************* //
