/*--------------------------------*- C++ -*----------------------------------*\
| =========                 |                                                 |
| \\      /  F ield         | OpenFOAM: The Open Source CFD Toolbox           |
|  \\    /   O peration     | Version:  2506                                  |
|   \\  /    A nd           | Website:  www.openfoam.com                      |
|    \\/     M anipulation  |                                                 |
\*---------------------------------------------------------------------------*/
FoamFile
{
    version     2.0;
    format      ascii;
    arch        "LSB;label=32;scalar=64";
    class       volScalarField;
    location    "4";
    object      initialResidual:epsilon;
}
// * * * * * * * * * * * * * * * * * * * * * * * * * * * * * * * * * * * * * //

dimensions      [0 0 0 0 0 0 0];

internalField   nonuniform List<scalar> 
400
(
0
0
0
0
0
0
0
0
0
0
0
0
0
0
0
0
0
0
0
0
0
-9.93349e-12
-9.97853e-12
-9.978e-12
-1.00043e-11
-1.00193e-11
-1.00474e-11
-1.00644e-11
-1.00911e-11
-1.01104e-11
-1.01365e-11
-1.01573e-11
-1.01834e-11
-1.02054e-11
-1.02315e-11
-1.02548e-11
-1.02809e-11
-1.03049e-11
-2.06117e-11
0
0
-1.53361e-11
-1.54165e-11
-1.54169e-11
-1.54636e-11
-1.54899e-11
-1.55394e-11
-1.55691e-11
-1.56162e-11
-1.56499e-11
-1.56959e-11
-1.57322e-11
-1.57782e-11
-1.58166e-11
-1.58625e-11
-1.5903e-11
-1.59492e-11
-1.59906e-11
-3.20013e-11
0
0
-1.99083e-11
-2.00197e-11
-2.00218e-11
-2.00874e-11
-2.01244e-11
-2.01941e-11
-2.02357e-11
-2.03025e-11
-2.03495e-11
-2.04148e-11
-2.04657e-11
-2.05308e-11
-2.0585e-11
-2.06501e-11
-2.07074e-11
-2.07728e-11
-2.08317e-11
-4.16908e-11
0
0
-2.29258e-11
-2.30543e-11
-2.30594e-11
-2.31385e-11
-2.3183e-11
-2.3267e-11
-2.33165e-11
-2.33975e-11
-2.34533e-11
-2.35329e-11
-2.35933e-11
-2.3673e-11
-2.37372e-11
-2.3817e-11
-2.38851e-11
-2.39653e-11
-2.40355e-11
-4.81066e-11
0
0
-2.4695e-11
-2.48315e-11
-2.48391e-11
-2.49267e-11
-2.49757e-11
-2.50681e-11
-2.51228e-11
-2.52119e-11
-2.52734e-11
-2.53613e-11
-2.54275e-11
-2.55159e-11
-2.55862e-11
-2.56748e-11
-2.57496e-11
-2.58384e-11
-2.59159e-11
-5.18727e-11
0
0
-2.57084e-11
-2.58511e-11
-2.58599e-11
-2.5952e-11
-2.60035e-11
-2.61009e-11
-2.61584e-11
-2.62524e-11
-2.63171e-11
-2.64099e-11
-2.64796e-11
-2.65728e-11
-2.6647e-11
-2.67405e-11
-2.68192e-11
-2.69131e-11
-2.69946e-11
-5.40336e-11
0
0
-2.63213e-11
-2.64812e-11
-2.64861e-11
-2.65794e-11
-2.6633e-11
-2.67329e-11
-2.67927e-11
-2.68895e-11
-2.69563e-11
-2.70519e-11
-2.71239e-11
-2.722e-11
-2.72965e-11
-2.73929e-11
-2.74742e-11
-2.7571e-11
-2.76553e-11
-5.53566e-11
0
0
-2.67535e-11
-2.69223e-11
-2.69255e-11
-2.70202e-11
-2.70751e-11
-2.7177e-11
-2.72382e-11
-2.73369e-11
-2.74052e-11
-2.75029e-11
-2.75766e-11
-2.76743e-11
-2.77532e-11
-2.78506e-11
-2.79347e-11
-2.80325e-11
-2.81195e-11
-5.62855e-11
0
0
-2.71215e-11
-2.72788e-11
-2.72868e-11
-2.73847e-11
-2.744e-11
-2.75439e-11
-2.76061e-11
-2.77062e-11
-2.77759e-11
-2.78746e-11
-2.79503e-11
-2.8049e-11
-2.81298e-11
-2.82289e-11
-2.8314e-11
-2.84141e-11
-2.8502e-11
-5.70519e-11
0
0
-2.74625e-11
-2.76208e-11
-2.76293e-11
-2.77291e-11
-2.77854e-11
-2.78909e-11
-2.79536e-11
-2.80558e-11
-2.81261e-11
-2.82269e-11
-2.83031e-11
-2.8404e-11
-2.84856e-11
-2.85865e-11
-2.8673e-11
-2.87747e-11
-2.8864e-11
-5.77765e-11
0
0
-2.78194e-11
-2.79726e-11
-2.79837e-11
-2.80858e-11
-2.81428e-11
-2.82501e-11
-2.83137e-11
-2.84175e-11
-2.84893e-11
-2.85911e-11
-2.86693e-11
-2.87708e-11
-2.88547e-11
-2.89564e-11
-2.90451e-11
-2.91478e-11
-2.9239e-11
-5.85269e-11
0
0
-2.8208e-11
-2.83578e-11
-2.83709e-11
-2.84757e-11
-2.85333e-11
-2.86426e-11
-2.87069e-11
-2.88131e-11
-2.88853e-11
-2.899e-11
-2.90682e-11
-2.91731e-11
-2.92567e-11
-2.93617e-11
-2.94505e-11
-2.95563e-11
-2.96483e-11
-5.93467e-11
0
0
-2.86375e-11
-2.87977e-11
-2.88093e-11
-2.89144e-11
-2.89739e-11
-2.90847e-11
-2.91509e-11
-2.92584e-11
-2.93323e-11
-2.94389e-11
-2.95185e-11
-2.96257e-11
-2.97105e-11
-2.98181e-11
-2.99082e-11
-3.00164e-11
-3.01099e-11
-6.0271e-11
0
0
-2.914e-11
-2.92994e-11
-2.93121e-11
-2.94207e-11
-2.94806e-11
-2.95944e-11
-2.96616e-11
-2.9772e-11
-2.9847e-11
-2.99565e-11
-3.00372e-11
-3.01472e-11
-3.02336e-11
-3.03436e-11
-3.04357e-11
-3.05463e-11
-3.06419e-11
-6.1336e-11
0
0
-2.97182e-11
-2.98956e-11
-2.99043e-11
-3.00139e-11
-3.0076e-11
-3.0192e-11
-3.0261e-11
-3.03744e-11
-3.04511e-11
-3.05633e-11
-3.06464e-11
-3.07586e-11
-3.08479e-11
-3.09602e-11
-3.10549e-11
-3.11681e-11
-3.12662e-11
-6.25856e-11
0
0
-3.04131e-11
-3.05912e-11
-3.06021e-11
-3.07146e-11
-3.07784e-11
-3.08981e-11
-3.0969e-11
-3.1085e-11
-3.11646e-11
-3.12795e-11
-3.13653e-11
-3.1481e-11
-3.15722e-11
-3.16885e-11
-3.17854e-11
-3.19025e-11
-3.20031e-11
-6.40608e-11
0
0
-3.12013e-11
-3.13761e-11
-3.13901e-11
-3.15069e-11
-3.15722e-11
-3.16954e-11
-3.17691e-11
-3.18884e-11
-3.19707e-11
-3.20888e-11
-3.21779e-11
-3.22963e-11
-3.23917e-11
-3.25104e-11
-3.26112e-11
-3.27312e-11
-3.28357e-11
-6.57266e-11
0
0
-3.20844e-11
-3.22688e-11
-3.22752e-11
-3.23898e-11
-3.24552e-11
-3.25761e-11
-3.26505e-11
-3.27673e-11
-3.28519e-11
-3.29681e-11
-3.30598e-11
-3.31773e-11
-3.32757e-11
-3.33939e-11
-3.34995e-11
-3.36188e-11
-3.37288e-11
-6.74191e-11
0
0
0
0
0
0
0
0
0
0
0
0
0
0
0
0
0
0
0
0
0
)
;

boundaryField
{
    movingWall
    {
        type            zeroGradient;
    }
    fixedWalls
    {
        type            zeroGradient;
    }
    frontAndBack
    {
        type            empty;
    }
}


// ************************************************************************* //
