/*--------------------------------*- C++ -*----------------------------------*\
| =========                 |                                                 |
| \\      /  F ield         | OpenFOAM: The Open Source CFD Toolbox           |
|  \\    /   O peration     | Version:  2506                                  |
|   \\  /    A nd           | Website:  www.openfoam.com                      |
|    \\/     M anipulation  |                                                 |
\*---------------------------------------------------------------------------*/
FoamFile
{
    version     2.0;
    format      ascii;
    arch        "LSB;label=32;scalar=64";
    class       volScalarField;
    location    "4";
    object      k2;
}
// * * * * * * * * * * * * * * * * * * * * * * * * * * * * * * * * * * * * * //

dimensions      [0 4 -4 0 0 0 0];

internalField   nonuniform List<scalar> 
400
(
7.47277e-10
7.47262e-10
7.47259e-10
7.47242e-10
7.47243e-10
7.47228e-10
7.4723e-10
7.47216e-10
7.47218e-10
7.47209e-10
7.47209e-10
7.47204e-10
7.47203e-10
7.47199e-10
7.47199e-10
7.47197e-10
7.47197e-10
7.47195e-10
7.47195e-10
7.47195e-10
1.09118e-09
1.09117e-09
1.09062e-09
1.0904e-09
1.09002e-09
1.08982e-09
1.08952e-09
1.08931e-09
1.08909e-09
1.08889e-09
1.08873e-09
1.08854e-09
1.08845e-09
1.0883e-09
1.08822e-09
1.08813e-09
1.08808e-09
1.08803e-09
1.08801e-09
1.088e-09
1.61529e-09
1.61525e-09
1.61426e-09
1.61386e-09
1.61317e-09
1.61281e-09
1.61226e-09
1.6119e-09
1.61148e-09
1.61113e-09
1.61084e-09
1.61051e-09
1.61032e-09
1.61006e-09
1.60993e-09
1.60976e-09
1.60968e-09
1.6096e-09
1.60956e-09
1.60954e-09
2.09755e-09
2.09749e-09
2.096e-09
2.09541e-09
2.09439e-09
2.09384e-09
2.09302e-09
2.09247e-09
2.09186e-09
2.09131e-09
2.0909e-09
2.0904e-09
2.09013e-09
2.08974e-09
2.08954e-09
2.08928e-09
2.08916e-09
2.08904e-09
2.08898e-09
2.08895e-09
2.43716e-09
2.43709e-09
2.43521e-09
2.43448e-09
2.43316e-09
2.43252e-09
2.43139e-09
2.43083e-09
2.42989e-09
2.4294e-09
2.42867e-09
2.42824e-09
2.4277e-09
2.42736e-09
2.42698e-09
2.42677e-09
2.42653e-09
2.42643e-09
2.42634e-09
2.42631e-09
2.64492e-09
2.64486e-09
2.64271e-09
2.64189e-09
2.64038e-09
2.63967e-09
2.63836e-09
2.63775e-09
2.63664e-09
2.63614e-09
2.63524e-09
2.63484e-09
2.63415e-09
2.63383e-09
2.63335e-09
2.63313e-09
2.63285e-09
2.63273e-09
2.63263e-09
2.6326e-09
2.76646e-09
2.7664e-09
2.76407e-09
2.76321e-09
2.76159e-09
2.76082e-09
2.75941e-09
2.75876e-09
2.75758e-09
2.75703e-09
2.75608e-09
2.75564e-09
2.7549e-09
2.75456e-09
2.75404e-09
2.75381e-09
2.75351e-09
2.75338e-09
2.75327e-09
2.75323e-09
2.84063e-09
2.84056e-09
2.83814e-09
2.83723e-09
2.83556e-09
2.83476e-09
2.83329e-09
2.83262e-09
2.83138e-09
2.83082e-09
2.82981e-09
2.82936e-09
2.82858e-09
2.82824e-09
2.82769e-09
2.82745e-09
2.82714e-09
2.82701e-09
2.8269e-09
2.82686e-09
2.89167e-09
2.89158e-09
2.88911e-09
2.88816e-09
2.88646e-09
2.8856e-09
2.88415e-09
2.88339e-09
2.88221e-09
2.88151e-09
2.88063e-09
2.87997e-09
2.87939e-09
2.8788e-09
2.87846e-09
2.87803e-09
2.87783e-09
2.87763e-09
2.87755e-09
2.8775e-09
2.93279e-09
2.93269e-09
2.93017e-09
2.92919e-09
2.92745e-09
2.92656e-09
2.92511e-09
2.92427e-09
2.92314e-09
2.92234e-09
2.92154e-09
2.92077e-09
2.92026e-09
2.91959e-09
2.91929e-09
2.91883e-09
2.91864e-09
2.91843e-09
2.91834e-09
2.9183e-09
2.97096e-09
2.97087e-09
2.9683e-09
2.96731e-09
2.96553e-09
2.96464e-09
2.9631e-09
2.96233e-09
2.96108e-09
2.96037e-09
2.95943e-09
2.95877e-09
2.95814e-09
2.95756e-09
2.95715e-09
2.95676e-09
2.95651e-09
2.95633e-09
2.95623e-09
2.95619e-09
3.01011e-09
3.01001e-09
3.0074e-09
3.00637e-09
3.00458e-09
3.00363e-09
3.00212e-09
3.00126e-09
3.00008e-09
2.99923e-09
2.99842e-09
2.9976e-09
2.99708e-09
2.9964e-09
2.99606e-09
2.9956e-09
2.99538e-09
2.99518e-09
2.99508e-09
2.99504e-09
3.05268e-09
3.05259e-09
3.04992e-09
3.04889e-09
3.04701e-09
3.04611e-09
3.04449e-09
3.04372e-09
3.04235e-09
3.0417e-09
3.0406e-09
3.04005e-09
3.03922e-09
3.03881e-09
3.03822e-09
3.03795e-09
3.0376e-09
3.03745e-09
3.03733e-09
3.03729e-09
3.1006e-09
3.10052e-09
3.09775e-09
3.09672e-09
3.09482e-09
3.09386e-09
3.09222e-09
3.09142e-09
3.09003e-09
3.08937e-09
3.08822e-09
3.0877e-09
3.08682e-09
3.08642e-09
3.08581e-09
3.08553e-09
3.08517e-09
3.08502e-09
3.08489e-09
3.08485e-09
3.15577e-09
3.15568e-09
3.15286e-09
3.15178e-09
3.14982e-09
3.14887e-09
3.14717e-09
3.14635e-09
3.14492e-09
3.14423e-09
3.14308e-09
3.14252e-09
3.14163e-09
3.14121e-09
3.14059e-09
3.1403e-09
3.13993e-09
3.13977e-09
3.13965e-09
3.1396e-09
3.22024e-09
3.22014e-09
3.21724e-09
3.21613e-09
3.21409e-09
3.21312e-09
3.21137e-09
3.21053e-09
3.20905e-09
3.20835e-09
3.20716e-09
3.20655e-09
3.20568e-09
3.20519e-09
3.20458e-09
3.20427e-09
3.2039e-09
3.20374e-09
3.20361e-09
3.20356e-09
3.29526e-09
3.29517e-09
3.29214e-09
3.291e-09
3.2889e-09
3.2879e-09
3.28606e-09
3.28522e-09
3.28366e-09
3.28296e-09
3.2817e-09
3.28113e-09
3.28017e-09
3.27973e-09
3.27905e-09
3.27875e-09
3.27835e-09
3.27819e-09
3.27805e-09
3.278e-09
3.37777e-09
3.37765e-09
3.37453e-09
3.37332e-09
3.37117e-09
3.37008e-09
3.36827e-09
3.36725e-09
3.36583e-09
3.36486e-09
3.36384e-09
3.36292e-09
3.36227e-09
3.36146e-09
3.36107e-09
3.36052e-09
3.36027e-09
3.36002e-09
3.35991e-09
3.35985e-09
3.45403e-09
3.45405e-09
3.45088e-09
3.44972e-09
3.44758e-09
3.44649e-09
3.44465e-09
3.44372e-09
3.44215e-09
3.44139e-09
3.4401e-09
3.43948e-09
3.43848e-09
3.43801e-09
3.4373e-09
3.43697e-09
3.43656e-09
3.43638e-09
3.43624e-09
3.43618e-09
3.48453e-09
3.48444e-09
3.48444e-09
3.48434e-09
3.48437e-09
3.48427e-09
3.48431e-09
3.48422e-09
3.48427e-09
3.48419e-09
3.48423e-09
3.48418e-09
3.48419e-09
3.48418e-09
3.48418e-09
3.48417e-09
3.48417e-09
3.48417e-09
3.48417e-09
3.48417e-09
)
;

boundaryField
{
    movingWall
    {
        type            calculated;
        value           nonuniform List<scalar> 
20
(
3.48453e-09
3.48444e-09
3.48444e-09
3.48434e-09
3.48437e-09
3.48427e-09
3.48431e-09
3.48422e-09
3.48427e-09
3.48419e-09
3.48423e-09
3.48418e-09
3.48419e-09
3.48418e-09
3.48418e-09
3.48417e-09
3.48417e-09
3.48417e-09
3.48417e-09
3.48417e-09
)
;
    }
    fixedWalls
    {
        type            calculated;
        value           nonuniform List<scalar> 
60
(
7.47277e-10
1.09118e-09
1.61529e-09
2.09755e-09
2.43716e-09
2.64492e-09
2.76646e-09
2.84063e-09
2.89167e-09
2.93279e-09
2.97096e-09
3.01011e-09
3.05268e-09
3.1006e-09
3.15577e-09
3.22024e-09
3.29526e-09
3.37777e-09
3.45403e-09
3.48453e-09
7.47195e-10
1.088e-09
1.60954e-09
2.08895e-09
2.42631e-09
2.6326e-09
2.75323e-09
2.82686e-09
2.8775e-09
2.9183e-09
2.95619e-09
2.99504e-09
3.03729e-09
3.08485e-09
3.1396e-09
3.20356e-09
3.278e-09
3.35985e-09
3.43618e-09
3.48417e-09
7.47277e-10
7.47262e-10
7.47259e-10
7.47242e-10
7.47243e-10
7.47228e-10
7.4723e-10
7.47216e-10
7.47218e-10
7.47209e-10
7.47209e-10
7.47204e-10
7.47203e-10
7.47199e-10
7.47199e-10
7.47197e-10
7.47197e-10
7.47195e-10
7.47195e-10
7.47195e-10
)
;
    }
    frontAndBack
    {
        type            empty;
    }
}


// ************************************************************************* //
