/*--------------------------------*- C++ -*----------------------------------*\
| =========                 |                                                 |
| \\      /  F ield         | OpenFOAM: The Open Source CFD Toolbox           |
|  \\    /   O peration     | Version:  2506                                  |
|   \\  /    A nd           | Website:  www.openfoam.com                      |
|    \\/     M anipulation  |                                                 |
\*---------------------------------------------------------------------------*/
FoamFile
{
    version     2.0;
    format      ascii;
    arch        "LSB;label=32;scalar=64";
    class       volScalarField;
    location    "4";
    object      kDiff;
}
// * * * * * * * * * * * * * * * * * * * * * * * * * * * * * * * * * * * * * //

dimensions      [0 2 -2 0 0 0 0];

internalField   nonuniform List<scalar> 
400
(
-9.98328e-08
-9.96873e-08
-9.98271e-08
-9.967e-08
-9.98276e-08
-9.96697e-08
-9.98235e-08
-9.96846e-08
-9.97862e-08
-9.97097e-08
-9.97458e-08
-9.97608e-08
-9.97286e-08
-9.97756e-08
-9.97262e-08
-9.97691e-08
-9.9736e-08
-9.97553e-08
-9.97463e-08
-9.97474e-08
-1.47762e-07
-1.47734e-07
-1.47894e-07
-1.47711e-07
-1.4763e-07
-1.4764e-07
-1.47581e-07
-1.47573e-07
-1.47513e-07
-1.47554e-07
-1.47463e-07
-1.4748e-07
-1.47483e-07
-1.4732e-07
-1.47469e-07
-1.47359e-07
-1.47444e-07
-1.47306e-07
-1.47405e-07
-1.47379e-07
-2.07864e-07
-2.07615e-07
-2.08368e-07
-2.07743e-07
-2.07694e-07
-2.0766e-07
-2.07597e-07
-2.0751e-07
-2.07513e-07
-2.07408e-07
-2.07479e-07
-2.07391e-07
-2.07581e-07
-2.06878e-07
-2.07567e-07
-2.0697e-07
-2.07349e-07
-2.07188e-07
-2.07244e-07
-2.07227e-07
-2.53735e-07
-2.53806e-07
-2.5353e-07
-2.53583e-07
-2.53339e-07
-2.53331e-07
-2.53271e-07
-2.53088e-07
-2.5326e-07
-2.52945e-07
-2.53351e-07
-2.52419e-07
-2.53372e-07
-2.52244e-07
-2.53205e-07
-2.52375e-07
-2.52888e-07
-2.52663e-07
-2.5275e-07
-2.52722e-07
-2.81968e-07
-2.81624e-07
-2.82438e-07
-2.81536e-07
-2.81807e-07
-2.8156e-07
-2.81271e-07
-2.8132e-07
-2.81267e-07
-2.81102e-07
-2.81123e-07
-2.8102e-07
-2.80976e-07
-2.80951e-07
-2.80859e-07
-2.80868e-07
-2.80817e-07
-2.80813e-07
-2.80801e-07
-2.80798e-07
-2.97896e-07
-2.9733e-07
-2.98728e-07
-2.97172e-07
-2.98001e-07
-2.97202e-07
-2.97485e-07
-2.96971e-07
-2.97334e-07
-2.9677e-07
-2.97157e-07
-2.96753e-07
-2.96862e-07
-2.96799e-07
-2.96612e-07
-2.96746e-07
-2.96567e-07
-2.9666e-07
-2.96608e-07
-2.96619e-07
-3.06787e-07
-3.05906e-07
-3.0837e-07
-3.0588e-07
-3.07077e-07
-3.06229e-07
-3.06284e-07
-3.06088e-07
-3.0602e-07
-3.05984e-07
-3.05667e-07
-3.05812e-07
-3.05701e-07
-3.05711e-07
-3.0551e-07
-3.05614e-07
-3.05485e-07
-3.05537e-07
-3.05504e-07
-3.05507e-07
-3.12373e-07
-3.11937e-07
-3.12916e-07
-3.11513e-07
-3.12319e-07
-3.11406e-07
-3.12061e-07
-3.11147e-07
-3.11838e-07
-3.10939e-07
-3.11655e-07
-3.10862e-07
-3.11397e-07
-3.10862e-07
-3.11201e-07
-3.10942e-07
-3.10902e-07
-3.10939e-07
-3.10901e-07
-3.10913e-07
-3.16221e-07
-3.15971e-07
-3.16433e-07
-3.15598e-07
-3.15883e-07
-3.15508e-07
-3.15518e-07
-3.15327e-07
-3.15297e-07
-3.15106e-07
-3.1517e-07
-3.14945e-07
-3.15005e-07
-3.14889e-07
-3.14789e-07
-3.14807e-07
-3.14656e-07
-3.14871e-07
-3.1466e-07
-3.14716e-07
-3.19337e-07
-3.18855e-07
-3.20162e-07
-3.18738e-07
-3.19032e-07
-3.18744e-07
-3.18678e-07
-3.18556e-07
-3.18366e-07
-3.18373e-07
-3.18129e-07
-3.18316e-07
-3.17909e-07
-3.18267e-07
-3.17639e-07
-3.18224e-07
-3.17749e-07
-3.17986e-07
-3.17836e-07
-3.17867e-07
-3.22381e-07
-3.22075e-07
-3.22767e-07
-3.21793e-07
-3.22109e-07
-3.2177e-07
-3.21646e-07
-3.21536e-07
-3.21424e-07
-3.2132e-07
-3.21188e-07
-3.21211e-07
-3.20963e-07
-3.21207e-07
-3.20777e-07
-3.21106e-07
-3.20742e-07
-3.20952e-07
-3.20845e-07
-3.20855e-07
-3.25439e-07
-3.25159e-07
-3.25971e-07
-3.25029e-07
-3.24995e-07
-3.25097e-07
-3.24602e-07
-3.2473e-07
-3.24525e-07
-3.24392e-07
-3.24401e-07
-3.24236e-07
-3.24373e-07
-3.23914e-07
-3.24354e-07
-3.23629e-07
-3.24207e-07
-3.23719e-07
-3.24023e-07
-3.23949e-07
-3.28873e-07
-3.28417e-07
-3.29452e-07
-3.28244e-07
-3.28753e-07
-3.28116e-07
-3.28284e-07
-3.27986e-07
-3.27952e-07
-3.27647e-07
-3.27938e-07
-3.27436e-07
-3.2773e-07
-3.27394e-07
-3.27443e-07
-3.27378e-07
-3.2735e-07
-3.27339e-07
-3.27325e-07
-3.27323e-07
-3.32618e-07
-3.31813e-07
-3.34093e-07
-3.31546e-07
-3.32865e-07
-3.31678e-07
-3.32404e-07
-3.3142e-07
-3.32107e-07
-3.3128e-07
-3.318e-07
-3.31223e-07
-3.31477e-07
-3.31253e-07
-3.31195e-07
-3.31254e-07
-3.31043e-07
-3.31169e-07
-3.31096e-07
-3.31114e-07
-3.37108e-07
-3.36729e-07
-3.37643e-07
-3.36735e-07
-3.36458e-07
-3.36783e-07
-3.36053e-07
-3.36685e-07
-3.35576e-07
-3.36544e-07
-3.35166e-07
-3.36248e-07
-3.35156e-07
-3.35806e-07
-3.35457e-07
-3.35567e-07
-3.35499e-07
-3.35485e-07
-3.35471e-07
-3.35465e-07
-3.42312e-07
-3.42188e-07
-3.4217e-07
-3.4189e-07
-3.41649e-07
-3.41381e-07
-3.41705e-07
-3.41316e-07
-3.41094e-07
-3.40912e-07
-3.41231e-07
-3.40613e-07
-3.4104e-07
-3.40602e-07
-3.40788e-07
-3.40572e-07
-3.40571e-07
-3.40571e-07
-3.40553e-07
-3.40554e-07
-3.48251e-07
-3.47525e-07
-3.49383e-07
-3.47181e-07
-3.48427e-07
-3.47392e-07
-3.47522e-07
-3.47035e-07
-3.47526e-07
-3.46744e-07
-3.47273e-07
-3.46703e-07
-3.469e-07
-3.46812e-07
-3.46509e-07
-3.46763e-07
-3.46431e-07
-3.46628e-07
-3.4653e-07
-3.46554e-07
-3.55097e-07
-3.54564e-07
-3.55993e-07
-3.54462e-07
-3.54646e-07
-3.54424e-07
-3.54231e-07
-3.54246e-07
-3.53869e-07
-3.54016e-07
-3.53631e-07
-3.5387e-07
-3.53427e-07
-3.53761e-07
-3.53108e-07
-3.53742e-07
-3.53323e-07
-3.53291e-07
-3.5338e-07
-3.53342e-07
-3.6154e-07
-3.60781e-07
-3.63137e-07
-3.60393e-07
-3.61824e-07
-3.60459e-07
-3.61288e-07
-3.60273e-07
-3.60976e-07
-3.60454e-07
-3.60147e-07
-3.60451e-07
-3.59846e-07
-3.60265e-07
-3.59772e-07
-3.59994e-07
-3.59938e-07
-3.59892e-07
-3.599e-07
-3.59883e-07
-3.6429e-07
-3.63911e-07
-3.64335e-07
-3.63825e-07
-3.64402e-07
-3.63795e-07
-3.64408e-07
-3.638e-07
-3.64363e-07
-3.63873e-07
-3.64274e-07
-3.63981e-07
-3.6415e-07
-3.6407e-07
-3.64096e-07
-3.64099e-07
-3.64097e-07
-3.64097e-07
-3.64097e-07
-3.64097e-07
)
;

boundaryField
{
    movingWall
    {
        type            calculated;
        value           nonuniform List<scalar> 
20
(
-3.6429e-07
-3.63911e-07
-3.64335e-07
-3.63825e-07
-3.64402e-07
-3.63795e-07
-3.64408e-07
-3.638e-07
-3.64363e-07
-3.63873e-07
-3.64274e-07
-3.63981e-07
-3.6415e-07
-3.6407e-07
-3.64096e-07
-3.64099e-07
-3.64097e-07
-3.64097e-07
-3.64097e-07
-3.64097e-07
)
;
    }
    fixedWalls
    {
        type            calculated;
        value           nonuniform List<scalar> 
60
(
-9.98328e-08
-1.47762e-07
-2.07864e-07
-2.53735e-07
-2.81968e-07
-2.97896e-07
-3.06787e-07
-3.12373e-07
-3.16221e-07
-3.19337e-07
-3.22381e-07
-3.25439e-07
-3.28873e-07
-3.32618e-07
-3.37108e-07
-3.42312e-07
-3.48251e-07
-3.55097e-07
-3.6154e-07
-3.6429e-07
-9.97474e-08
-1.47379e-07
-2.07227e-07
-2.52722e-07
-2.80798e-07
-2.96619e-07
-3.05507e-07
-3.10913e-07
-3.14716e-07
-3.17867e-07
-3.20855e-07
-3.23949e-07
-3.27323e-07
-3.31114e-07
-3.35465e-07
-3.40554e-07
-3.46554e-07
-3.53342e-07
-3.59883e-07
-3.64097e-07
-9.98328e-08
-9.96873e-08
-9.98271e-08
-9.967e-08
-9.98276e-08
-9.96697e-08
-9.98235e-08
-9.96846e-08
-9.97862e-08
-9.97097e-08
-9.97458e-08
-9.97608e-08
-9.97286e-08
-9.97756e-08
-9.97262e-08
-9.97691e-08
-9.9736e-08
-9.97553e-08
-9.97463e-08
-9.97474e-08
)
;
    }
    frontAndBack
    {
        type            empty;
    }
}


// ************************************************************************* //
