/*--------------------------------*- C++ -*----------------------------------*\
| =========                 |                                                 |
| \\      /  F ield         | OpenFOAM: The Open Source CFD Toolbox           |
|  \\    /   O peration     | Version:  2506                                  |
|   \\  /    A nd           | Website:  www.openfoam.com                      |
|    \\/     M anipulation  |                                                 |
\*---------------------------------------------------------------------------*/
FoamFile
{
    version     2.0;
    format      ascii;
    arch        "LSB;label=32;scalar=64";
    class       volScalarField;
    location    "4";
    object      kTotal;
}
// * * * * * * * * * * * * * * * * * * * * * * * * * * * * * * * * * * * * * //

dimensions      [0 2 -2 0 0 0 0];

internalField   nonuniform List<scalar> 
400
(
5.46728e-05
5.46723e-05
5.46722e-05
5.46716e-05
5.46716e-05
5.4671e-05
5.46711e-05
5.46706e-05
5.46707e-05
5.46703e-05
5.46703e-05
5.46701e-05
5.46701e-05
5.467e-05
5.467e-05
5.46699e-05
5.46699e-05
5.46698e-05
5.46698e-05
5.46698e-05
6.60661e-05
6.60659e-05
6.60492e-05
6.60426e-05
6.60312e-05
6.60251e-05
6.60159e-05
6.60097e-05
6.60029e-05
6.59968e-05
6.5992e-05
6.59863e-05
6.59834e-05
6.59788e-05
6.59767e-05
6.59737e-05
6.59722e-05
6.59709e-05
6.59703e-05
6.597e-05
8.03815e-05
8.03806e-05
8.03559e-05
8.03461e-05
8.03289e-05
8.032e-05
8.03061e-05
8.02972e-05
8.02868e-05
8.0278e-05
8.02709e-05
8.02626e-05
8.02579e-05
8.02515e-05
8.02482e-05
8.02439e-05
8.02418e-05
8.02398e-05
8.02389e-05
8.02384e-05
9.15983e-05
9.1597e-05
9.15646e-05
9.15517e-05
9.15294e-05
9.15174e-05
9.14994e-05
9.14875e-05
9.14741e-05
9.14621e-05
9.14531e-05
9.14422e-05
9.14363e-05
9.14277e-05
9.14234e-05
9.14177e-05
9.14149e-05
9.14123e-05
9.14111e-05
9.14105e-05
9.87355e-05
9.87342e-05
9.8696e-05
9.86812e-05
9.86546e-05
9.86415e-05
9.86186e-05
9.86073e-05
9.85882e-05
9.85783e-05
9.85635e-05
9.85548e-05
9.85438e-05
9.8537e-05
9.85291e-05
9.85249e-05
9.85201e-05
9.85179e-05
9.85162e-05
9.85156e-05
0.000102858
0.000102857
0.000102815
0.000102799
0.00010277
0.000102756
0.00010273
0.000102719
0.000102697
0.000102687
0.00010267
0.000102662
0.000102648
0.000102642
0.000102633
0.000102629
0.000102623
0.000102621
0.000102619
0.000102618
0.000105195
0.000105194
0.000105149
0.000105133
0.000105102
0.000105087
0.000105061
0.000105048
0.000105026
0.000105015
0.000104997
0.000104989
0.000104975
0.000104968
0.000104958
0.000104954
0.000104948
0.000104946
0.000104944
0.000104943
0.000106596
0.000106594
0.000106549
0.000106532
0.0001065
0.000106485
0.000106458
0.000106445
0.000106422
0.000106411
0.000106392
0.000106384
0.000106369
0.000106363
0.000106353
0.000106348
0.000106342
0.00010634
0.000106338
0.000106337
0.000107549
0.000107547
0.000107501
0.000107484
0.000107452
0.000107436
0.000107409
0.000107395
0.000107373
0.00010736
0.000107343
0.000107331
0.00010732
0.000107309
0.000107303
0.000107295
0.000107291
0.000107288
0.000107286
0.000107285
0.000108311
0.000108309
0.000108263
0.000108244
0.000108212
0.000108196
0.000108169
0.000108154
0.000108133
0.000108118
0.000108103
0.000108089
0.000108079
0.000108067
0.000108061
0.000108053
0.000108049
0.000108045
0.000108044
0.000108043
0.000109014
0.000109012
0.000108965
0.000108946
0.000108914
0.000108897
0.000108869
0.000108855
0.000108832
0.000108819
0.000108802
0.00010879
0.000108778
0.000108767
0.00010876
0.000108753
0.000108748
0.000108745
0.000108743
0.000108742
0.000109729
0.000109728
0.00010968
0.000109661
0.000109629
0.000109611
0.000109584
0.000109568
0.000109547
0.000109531
0.000109516
0.000109501
0.000109492
0.000109479
0.000109473
0.000109465
0.000109461
0.000109457
0.000109455
0.000109454
0.000110503
0.000110501
0.000110453
0.000110434
0.0001104
0.000110384
0.000110354
0.00011034
0.000110315
0.000110304
0.000110284
0.000110274
0.000110259
0.000110251
0.000110241
0.000110236
0.000110229
0.000110227
0.000110225
0.000110224
0.000111367
0.000111365
0.000111315
0.000111297
0.000111263
0.000111245
0.000111216
0.000111202
0.000111176
0.000111165
0.000111144
0.000111135
0.000111119
0.000111112
0.000111101
0.000111096
0.000111089
0.000111086
0.000111084
0.000111083
0.000112353
0.000112351
0.000112301
0.000112282
0.000112247
0.00011223
0.0001122
0.000112185
0.00011216
0.000112147
0.000112127
0.000112117
0.000112101
0.000112094
0.000112082
0.000112077
0.000112071
0.000112068
0.000112066
0.000112065
0.000113495
0.000113493
0.000113442
0.000113422
0.000113386
0.000113369
0.000113338
0.000113324
0.000113297
0.000113285
0.000113264
0.000113253
0.000113238
0.000113229
0.000113218
0.000113213
0.000113207
0.000113204
0.000113201
0.000113201
0.000114809
0.000114808
0.000114755
0.000114735
0.000114698
0.000114681
0.000114649
0.000114634
0.000114607
0.000114595
0.000114573
0.000114563
0.000114546
0.000114538
0.000114527
0.000114521
0.000114514
0.000114511
0.000114509
0.000114508
0.000116238
0.000116236
0.000116182
0.000116161
0.000116124
0.000116105
0.000116074
0.000116057
0.000116032
0.000116015
0.000115998
0.000115982
0.000115971
0.000115957
0.00011595
0.000115941
0.000115936
0.000115932
0.00011593
0.000115929
0.000117543
0.000117543
0.000117489
0.000117469
0.000117433
0.000117414
0.000117383
0.000117367
0.00011734
0.000117327
0.000117305
0.000117295
0.000117278
0.00011727
0.000117258
0.000117252
0.000117245
0.000117242
0.000117239
0.000117238
0.00011806
0.000118059
0.000118059
0.000118057
0.000118058
0.000118056
0.000118057
0.000118055
0.000118056
0.000118055
0.000118055
0.000118054
0.000118055
0.000118054
0.000118054
0.000118054
0.000118054
0.000118054
0.000118054
0.000118054
)
;

boundaryField
{
    movingWall
    {
        type            calculated;
        value           nonuniform List<scalar> 
20
(
0.00011806
0.000118059
0.000118059
0.000118057
0.000118058
0.000118056
0.000118057
0.000118055
0.000118056
0.000118055
0.000118055
0.000118054
0.000118055
0.000118054
0.000118054
0.000118054
0.000118054
0.000118054
0.000118054
0.000118054
)
;
    }
    fixedWalls
    {
        type            calculated;
        value           nonuniform List<scalar> 
60
(
5.46728e-05
6.60661e-05
8.03815e-05
9.15983e-05
9.87355e-05
0.000102858
0.000105195
0.000106596
0.000107549
0.000108311
0.000109014
0.000109729
0.000110503
0.000111367
0.000112353
0.000113495
0.000114809
0.000116238
0.000117543
0.00011806
5.46698e-05
6.597e-05
8.02384e-05
9.14105e-05
9.85156e-05
0.000102618
0.000104943
0.000106337
0.000107285
0.000108043
0.000108742
0.000109454
0.000110224
0.000111083
0.000112065
0.000113201
0.000114508
0.000115929
0.000117238
0.000118054
5.46728e-05
5.46723e-05
5.46722e-05
5.46716e-05
5.46716e-05
5.4671e-05
5.46711e-05
5.46706e-05
5.46707e-05
5.46703e-05
5.46703e-05
5.46701e-05
5.46701e-05
5.467e-05
5.467e-05
5.46699e-05
5.46699e-05
5.46698e-05
5.46698e-05
5.46698e-05
)
;
    }
    frontAndBack
    {
        type            empty;
    }
}


// ************************************************************************* //
