/*--------------------------------*- C++ -*----------------------------------*\
| =========                 |                                                 |
| \\      /  F ield         | OpenFOAM: The Open Source CFD Toolbox           |
|  \\    /   O peration     | Version:  2506                                  |
|   \\  /    A nd           | Website:  www.openfoam.com                      |
|    \\/     M anipulation  |                                                 |
\*---------------------------------------------------------------------------*/
FoamFile
{
    version     2.0;
    format      ascii;
    arch        "LSB;label=32;scalar=64";
    class       volVectorField;
    location    "4";
    object      kU;
}
// * * * * * * * * * * * * * * * * * * * * * * * * * * * * * * * * * * * * * //

dimensions      [0 3 -3 0 0 0 0];

internalField   nonuniform List<vector> 
400
(
(-2.72865e-05 1.69061e-12 0)
(-2.72863e-05 -4.0099e-13 0)
(-2.72862e-05 9.52187e-14 0)
(-2.72859e-05 -2.25765e-14 0)
(-2.72859e-05 5.36773e-15 0)
(-2.72857e-05 -1.26931e-15 0)
(-2.72856e-05 3.03914e-16 0)
(-2.72855e-05 -7.06407e-17 0)
(-2.72854e-05 1.77039e-17 0)
(-2.72853e-05 -3.59575e-18 0)
(-2.72853e-05 1.266e-18 0)
(-2.72852e-05 -1.22076e-20 0)
(-2.72852e-05 2.11016e-19 0)
(-2.72851e-05 1.03941e-19 0)
(-2.72851e-05 9.03478e-20 0)
(-2.72851e-05 6.418e-20 0)
(-2.72851e-05 4.81773e-20 0)
(-2.7285e-05 3.49284e-20 0)
(-2.7285e-05 2.00198e-20 0)
(-2.7285e-05 -1.69336e-21 0)
(-3.29592e-05 -2.04151e-12 0)
(-3.29591e-05 4.84138e-13 0)
(-3.29506e-05 -1.14643e-13 0)
(-3.29474e-05 2.72174e-14 0)
(-3.29418e-05 -6.41672e-15 0)
(-3.29387e-05 1.53327e-15 0)
(-3.29341e-05 -3.54605e-16 0)
(-3.29311e-05 8.86233e-17 0)
(-3.29277e-05 -1.78466e-17 0)
(-3.29246e-05 6.25784e-18 0)
(-3.29223e-05 -6.24334e-20 0)
(-3.29194e-05 1.01284e-18 0)
(-3.2918e-05 4.86697e-19 0)
(-3.29158e-05 4.18736e-19 0)
(-3.29146e-05 2.97055e-19 0)
(-3.29132e-05 2.21934e-19 0)
(-3.29124e-05 1.68828e-19 0)
(-3.29118e-05 1.30464e-19 0)
(-3.29114e-05 6.85393e-20 0)
(-3.29113e-05 -1.90625e-21 0)
(-4.00868e-05 2.48053e-12 0)
(-4.00865e-05 -5.87513e-13 0)
(-4.00738e-05 1.39327e-13 0)
(-4.00692e-05 -3.29602e-14 0)
(-4.00606e-05 7.83563e-15 0)
(-4.00562e-05 -1.83808e-15 0)
(-4.00492e-05 4.46995e-16 0)
(-4.00448e-05 -9.8092e-17 0)
(-4.00397e-05 2.84331e-17 0)
(-4.00353e-05 -3.12757e-18 0)
(-4.00317e-05 3.28947e-18 0)
(-4.00276e-05 1.07143e-18 0)
(-4.00252e-05 1.11161e-18 0)
(-4.00223e-05 7.46961e-19 0)
(-4.00203e-05 5.73653e-19 0)
(-4.00185e-05 4.24077e-19 0)
(-4.00172e-05 3.26509e-19 0)
(-4.00163e-05 2.48433e-19 0)
(-4.00158e-05 1.3184e-19 0)
(-4.00156e-05 -3.25217e-21 0)
(-4.56723e-05 -2.82455e-12 0)
(-4.56716e-05 6.68415e-13 0)
(-4.56555e-05 -1.58392e-13 0)
(-4.5649e-05 3.75066e-14 0)
(-4.5638e-05 -8.8547e-15 0)
(-4.56321e-05 2.11358e-15 0)
(-4.56231e-05 -4.87107e-16 0)
(-4.56172e-05 1.24222e-16 0)
(-4.56104e-05 -2.289e-17 0)
(-4.56046e-05 1.0089e-17 0)
(-4.55999e-05 1.05278e-18 0)
(-4.55949e-05 2.30803e-18 0)
(-4.55914e-05 1.38604e-18 0)
(-4.55877e-05 1.12487e-18 0)
(-4.55851e-05 8.22036e-19 0)
(-4.55826e-05 6.25364e-19 0)
(-4.5581e-05 4.83734e-19 0)
(-4.55798e-05 3.77497e-19 0)
(-4.55792e-05 1.96382e-19 0)
(-4.55789e-05 -4.22069e-21 0)
(-4.92268e-05 3.04308e-12 0)
(-4.92263e-05 -7.19832e-13 0)
(-4.92068e-05 1.70605e-13 0)
(-4.91999e-05 -4.03392e-14 0)
(-4.91864e-05 9.56218e-15 0)
(-4.918e-05 -2.24988e-15 0)
(-4.91686e-05 5.42904e-16 0)
(-4.9163e-05 -1.19747e-16 0)
(-4.91535e-05 3.49492e-17 0)
(-4.91486e-05 -3.18072e-18 0)
(-4.91412e-05 4.62006e-18 0)
(-4.91369e-05 1.87249e-18 0)
(-4.91314e-05 1.84039e-18 0)
(-4.9128e-05 1.31649e-18 0)
(-4.91241e-05 1.02429e-18 0)
(-4.9122e-05 7.72714e-19 0)
(-4.91196e-05 6.03977e-19 0)
(-4.91186e-05 4.77054e-19 0)
(-4.91177e-05 2.572e-19 0)
(-4.91174e-05 -1.15442e-21 0)
(-5.12801e-05 -3.17002e-12 0)
(-5.12798e-05 7.49776e-13 0)
(-5.12581e-05 -1.7767e-13 0)
(-5.1251e-05 4.20303e-14 0)
(-5.12359e-05 -9.93465e-15 0)
(-5.12294e-05 2.36199e-15 0)
(-5.12164e-05 -5.491e-16 0)
(-5.12108e-05 1.37457e-16 0)
(-5.11998e-05 -2.63253e-17 0)
(-5.11952e-05 1.11236e-17 0)
(-5.11863e-05 1.26151e-18 0)
(-5.11825e-05 2.77123e-18 0)
(-5.11757e-05 1.76767e-18 0)
(-5.11727e-05 1.47812e-18 0)
(-5.11681e-05 1.12032e-18 0)
(-5.11659e-05 8.65092e-19 0)
(-5.11633e-05 6.7661e-19 0)
(-5.1162e-05 5.41946e-19 0)
(-5.11611e-05 2.95317e-19 0)
(-5.11608e-05 -9.58174e-21 0)
(-5.2444e-05 3.2431e-12 0)
(-5.24438e-05 -7.67191e-13 0)
(-5.24205e-05 1.81808e-13 0)
(-5.24135e-05 -4.29994e-14 0)
(-5.23975e-05 1.01838e-14 0)
(-5.23906e-05 -2.40345e-15 0)
(-5.23772e-05 5.75138e-16 0)
(-5.23711e-05 -1.29858e-16 0)
(-5.23599e-05 3.60024e-17 0)
(-5.23547e-05 -4.08383e-18 0)
(-5.23458e-05 4.58956e-18 0)
(-5.23415e-05 1.85701e-18 0)
(-5.23345e-05 1.93884e-18 0)
(-5.23312e-05 1.44017e-18 0)
(-5.23264e-05 1.15049e-18 0)
(-5.23241e-05 8.8903e-19 0)
(-5.23213e-05 7.16641e-19 0)
(-5.23201e-05 5.82517e-19 0)
(-5.23191e-05 3.1273e-19 0)
(-5.23187e-05 -2.2381e-20 0)
(-5.31416e-05 -3.28882e-12 0)
(-5.31411e-05 7.78214e-13 0)
(-5.3118e-05 -1.84423e-13 0)
(-5.31101e-05 4.36367e-14 0)
(-5.3094e-05 -1.03252e-14 0)
(-5.3087e-05 2.44998e-15 0)
(-5.30729e-05 -5.74092e-16 0)
(-5.30671e-05 1.40766e-16 0)
(-5.3055e-05 -2.89116e-17 0)
(-5.30502e-05 1.06219e-17 0)
(-5.30404e-05 7.0174e-19 0)
(-5.30365e-05 2.51209e-18 0)
(-5.30289e-05 1.61384e-18 0)
(-5.3026e-05 1.40906e-18 0)
(-5.30207e-05 1.09887e-18 0)
(-5.30186e-05 8.74701e-19 0)
(-5.30156e-05 7.16573e-19 0)
(-5.30144e-05 5.93749e-19 0)
(-5.30134e-05 3.16478e-19 0)
(-5.3013e-05 -3.02587e-20 0)
(-5.36164e-05 3.32197e-12 0)
(-5.36157e-05 -7.86396e-13 0)
(-5.35925e-05 1.86371e-13 0)
(-5.3584e-05 -4.41115e-14 0)
(-5.35681e-05 1.04483e-14 0)
(-5.35603e-05 -2.47112e-15 0)
(-5.35468e-05 5.88493e-16 0)
(-5.35398e-05 -1.35592e-16 0)
(-5.35288e-05 3.5564e-17 0)
(-5.35224e-05 -5.28727e-18 0)
(-5.35142e-05 3.97852e-18 0)
(-5.35081e-05 1.39788e-18 0)
(-5.35027e-05 1.64344e-18 0)
(-5.34972e-05 1.23861e-18 0)
(-5.34941e-05 1.02231e-18 0)
(-5.34901e-05 8.10444e-19 0)
(-5.34883e-05 6.82699e-19 0)
(-5.34864e-05 5.80612e-19 0)
(-5.34857e-05 3.06261e-19 0)
(-5.34852e-05 -4.59933e-20 0)
(-5.39958e-05 -3.35044e-12 0)
(-5.39952e-05 7.93517e-13 0)
(-5.39712e-05 -1.88066e-13 0)
(-5.39628e-05 4.45362e-14 0)
(-5.39467e-05 -1.05478e-14 0)
(-5.39386e-05 2.50144e-15 0)
(-5.39252e-05 -5.89498e-16 0)
(-5.39175e-05 1.42422e-16 0)
(-5.39071e-05 -3.10398e-17 0)
(-5.38997e-05 9.83592e-18 0)
(-5.38924e-05 -9.51935e-20 0)
(-5.38852e-05 1.9844e-18 0)
(-5.38807e-05 1.22945e-18 0)
(-5.38743e-05 1.13979e-18 0)
(-5.38719e-05 9.07443e-19 0)
(-5.38673e-05 7.34415e-19 0)
(-5.38658e-05 6.23056e-19 0)
(-5.38637e-05 5.46427e-19 0)
(-5.3863e-05 2.83055e-19 0)
(-5.38626e-05 -6.15513e-20 0)
(-5.43456e-05 3.37804e-12 0)
(-5.43449e-05 -8.00504e-13 0)
(-5.4321e-05 1.89732e-13 0)
(-5.43123e-05 -4.4955e-14 0)
(-5.42958e-05 1.06538e-14 0)
(-5.42878e-05 -2.52361e-15 0)
(-5.42738e-05 5.9973e-16 0)
(-5.42668e-05 -1.40167e-16 0)
(-5.42553e-05 3.5194e-17 0)
(-5.42488e-05 -6.43913e-18 0)
(-5.42403e-05 3.28308e-18 0)
(-5.42342e-05 8.09541e-19 0)
(-5.42285e-05 1.22036e-18 0)
(-5.42231e-05 9.23771e-19 0)
(-5.42196e-05 7.9685e-19 0)
(-5.42157e-05 6.42598e-19 0)
(-5.42137e-05 5.58139e-19 0)
(-5.42119e-05 5.01215e-19 0)
(-5.42111e-05 2.6007e-19 0)
(-5.42106e-05 -6.87333e-20 0)
(-5.4702e-05 -3.40688e-12 0)
(-5.47013e-05 8.07811e-13 0)
(-5.4677e-05 -1.91474e-13 0)
(-5.46681e-05 4.53951e-14 0)
(-5.46518e-05 -1.07607e-14 0)
(-5.46431e-05 2.55241e-15 0)
(-5.46296e-05 -6.04015e-16 0)
(-5.46216e-05 1.44516e-16 0)
(-5.4611e-05 -3.29112e-17 0)
(-5.46033e-05 9.16628e-18 0)
(-5.45959e-05 -8.65348e-19 0)
(-5.45884e-05 1.435e-18 0)
(-5.45837e-05 7.93629e-19 0)
(-5.45776e-05 8.05709e-19 0)
(-5.45743e-05 6.46305e-19 0)
(-5.45705e-05 5.44251e-19 0)
(-5.45682e-05 4.89033e-19 0)
(-5.45666e-05 4.52016e-19 0)
(-5.45656e-05 2.28798e-19 0)
(-5.45652e-05 -7.77731e-20 0)
(-5.50869e-05 3.43799e-12 0)
(-5.50863e-05 -8.15681e-13 0)
(-5.50616e-05 1.93351e-13 0)
(-5.50529e-05 -4.58668e-14 0)
(-5.50356e-05 1.08775e-14 0)
(-5.50278e-05 -2.57995e-15 0)
(-5.5013e-05 6.12591e-16 0)
(-5.50061e-05 -1.44695e-16 0)
(-5.49937e-05 3.51275e-17 0)
(-5.4988e-05 -7.47594e-18 0)
(-5.49779e-05 2.6703e-18 0)
(-5.49732e-05 2.52815e-19 0)
(-5.49655e-05 7.89312e-19 0)
(-5.49619e-05 5.80644e-19 0)
(-5.49566e-05 5.33138e-19 0)
(-5.49542e-05 4.54645e-19 0)
(-5.4951e-05 4.22556e-19 0)
(-5.49497e-05 3.99261e-19 0)
(-5.49486e-05 1.88581e-19 0)
(-5.49482e-05 -8.98475e-20 0)
(-5.5517e-05 -3.47224e-12 0)
(-5.55167e-05 8.24309e-13 0)
(-5.54906e-05 -1.95403e-13 0)
(-5.54826e-05 4.63817e-14 0)
(-5.54649e-05 -1.10042e-14 0)
(-5.54569e-05 2.61095e-15 0)
(-5.54418e-05 -6.20114e-16 0)
(-5.5435e-05 1.47255e-16 0)
(-5.54222e-05 -3.4724e-17 0)
(-5.54167e-05 8.66793e-18 0)
(-5.54061e-05 -1.52957e-18 0)
(-5.54018e-05 9.49867e-19 0)
(-5.53937e-05 3.75159e-19 0)
(-5.53902e-05 4.73479e-19 0)
(-5.53847e-05 3.95661e-19 0)
(-5.53822e-05 3.60326e-19 0)
(-5.5379e-05 3.48779e-19 0)
(-5.53776e-05 3.43897e-19 0)
(-5.53765e-05 1.58368e-19 0)
(-5.53761e-05 -9.85278e-20 0)
(-5.60079e-05 3.51024e-12 0)
(-5.60073e-05 -8.33772e-13 0)
(-5.59818e-05 1.9766e-13 0)
(-5.59726e-05 -4.69414e-14 0)
(-5.59553e-05 1.11392e-14 0)
(-5.59467e-05 -2.64555e-15 0)
(-5.59319e-05 6.27527e-16 0)
(-5.59242e-05 -1.49631e-16 0)
(-5.59121e-05 3.53094e-17 0)
(-5.59054e-05 -8.38226e-18 0)
(-5.58958e-05 2.18963e-18 0)
(-5.58903e-05 -2.05263e-19 0)
(-5.5883e-05 4.3867e-19 0)
(-5.58789e-05 2.91049e-19 0)
(-5.58735e-05 2.98571e-19 0)
(-5.58708e-05 2.66558e-19 0)
(-5.58676e-05 2.78815e-19 0)
(-5.58662e-05 2.94366e-19 0)
(-5.58651e-05 1.30536e-19 0)
(-5.58646e-05 -9.5835e-20 0)
(-5.65763e-05 -3.55279e-12 0)
(-5.65755e-05 8.44312e-13 0)
(-5.65499e-05 -2.00174e-13 0)
(-5.65402e-05 4.75569e-14 0)
(-5.65224e-05 -1.1294e-14 0)
(-5.6514e-05 2.67929e-15 0)
(-5.64984e-05 -6.38798e-16 0)
(-5.64912e-05 1.50576e-16 0)
(-5.64782e-05 -3.65051e-17 0)
(-5.64721e-05 8.36619e-18 0)
(-5.64614e-05 -2.06451e-18 0)
(-5.64564e-05 5.89956e-19 0)
(-5.64485e-05 7.17862e-20 0)
(-5.64444e-05 2.44688e-19 0)
(-5.64388e-05 2.06276e-19 0)
(-5.64362e-05 2.02375e-19 0)
(-5.6433e-05 2.13294e-19 0)
(-5.64316e-05 2.27505e-19 0)
(-5.64304e-05 1.01613e-19 0)
(-5.643e-05 -8.66323e-20 0)
(-5.72305e-05 3.60012e-12 0)
(-5.723e-05 -8.55895e-13 0)
(-5.72027e-05 2.02913e-13 0)
(-5.71939e-05 -4.8233e-14 0)
(-5.7175e-05 1.14477e-14 0)
(-5.71668e-05 -2.72302e-15 0)
(-5.71507e-05 6.44718e-16 0)
(-5.71436e-05 -1.54962e-16 0)
(-5.71297e-05 3.5818e-17 0)
(-5.7124e-05 -9.09283e-18 0)
(-5.71127e-05 1.90101e-18 0)
(-5.71081e-05 -5.11326e-19 0)
(-5.70996e-05 1.93215e-19 0)
(-5.70958e-05 9.12217e-20 0)
(-5.709e-05 1.3488e-19 0)
(-5.70872e-05 1.32978e-19 0)
(-5.7084e-05 1.58461e-19 0)
(-5.70824e-05 1.80782e-19 0)
(-5.70813e-05 7.63122e-20 0)
(-5.70808e-05 -7.81771e-20 0)
(-5.79413e-05 -3.65006e-12 0)
(-5.79405e-05 8.68041e-13 0)
(-5.7913e-05 -2.05859e-13 0)
(-5.79033e-05 4.89239e-14 0)
(-5.78847e-05 -1.16333e-14 0)
(-5.78754e-05 2.75891e-15 0)
(-5.786e-05 -6.59689e-16 0)
(-5.78512e-05 1.55057e-16 0)
(-5.78391e-05 -3.8031e-17 0)
(-5.78307e-05 8.45426e-18 0)
(-5.78221e-05 -2.32061e-18 0)
(-5.78141e-05 4.44789e-19 0)
(-5.78086e-05 -9.76944e-20 0)
(-5.78015e-05 9.66585e-20 0)
(-5.77985e-05 7.56839e-20 0)
(-5.77934e-05 9.49862e-20 0)
(-5.77915e-05 1.15922e-19 0)
(-5.77893e-05 1.38978e-19 0)
(-5.77883e-05 6.04539e-20 0)
(-5.77878e-05 -6.27129e-20 0)
(-5.85905e-05 3.69529e-12 0)
(-5.8591e-05 -8.79057e-13 0)
(-5.85629e-05 2.08334e-13 0)
(-5.85544e-05 -4.95164e-14 0)
(-5.85354e-05 1.17495e-14 0)
(-5.85269e-05 -2.79228e-15 0)
(-5.85108e-05 6.60889e-16 0)
(-5.85034e-05 -1.58316e-16 0)
(-5.84897e-05 3.67756e-17 0)
(-5.84834e-05 -9.17689e-18 0)
(-5.84725e-05 1.9592e-18 0)
(-5.84671e-05 -5.51224e-19 0)
(-5.84589e-05 1.24991e-19 0)
(-5.84547e-05 4.64535e-21 0)
(-5.84489e-05 4.88352e-20 0)
(-5.8446e-05 4.2694e-20 0)
(-5.84425e-05 6.40491e-20 0)
(-5.8441e-05 8.84273e-20 0)
(-5.84397e-05 4.36199e-20 0)
(-5.84393e-05 -4.32784e-20 0)
(-5.8848e-05 -3.71513e-12 0)
(-5.88474e-05 8.8527e-13 0)
(-5.88472e-05 -2.10183e-13 0)
(-5.88467e-05 5.00551e-14 0)
(-5.88466e-05 -1.19262e-14 0)
(-5.88461e-05 2.83694e-15 0)
(-5.88462e-05 -6.78249e-16 0)
(-5.88457e-05 1.61275e-16 0)
(-5.88458e-05 -3.88277e-17 0)
(-5.88454e-05 9.13078e-18 0)
(-5.88455e-05 -2.27624e-18 0)
(-5.88452e-05 5.04443e-19 0)
(-5.88453e-05 -1.36637e-19 0)
(-5.88452e-05 2.79066e-20 0)
(-5.88451e-05 -8.56039e-21 0)
(-5.88451e-05 6.14819e-21 0)
(-5.88451e-05 1.83889e-20 0)
(-5.88451e-05 3.32109e-20 0)
(-5.88451e-05 1.89206e-20 0)
(-5.88451e-05 -1.79261e-20 0)
)
;

boundaryField
{
    movingWall
    {
        type            calculated;
        value           nonuniform List<vector> 
20
(
(-5.8848e-05 -0 -0)
(-5.88474e-05 -0 -0)
(-5.88472e-05 -0 -0)
(-5.88467e-05 -0 -0)
(-5.88466e-05 -0 -0)
(-5.88461e-05 -0 -0)
(-5.88462e-05 -0 -0)
(-5.88457e-05 -0 -0)
(-5.88458e-05 -0 -0)
(-5.88454e-05 -0 -0)
(-5.88455e-05 -0 -0)
(-5.88452e-05 -0 -0)
(-5.88453e-05 -0 -0)
(-5.88452e-05 -0 -0)
(-5.88451e-05 -0 -0)
(-5.88451e-05 -0 -0)
(-5.88451e-05 -0 -0)
(-5.88451e-05 -0 -0)
(-5.88451e-05 -0 -0)
(-5.88451e-05 -0 -0)
)
;
    }
    fixedWalls
    {
        type            calculated;
        value           nonuniform List<vector> 
60
(
(-2.72865e-05 -0 -0)
(-3.29592e-05 -0 -0)
(-4.00868e-05 -0 -0)
(-4.56723e-05 -0 -0)
(-4.92268e-05 -0 -0)
(-5.12801e-05 -0 -0)
(-5.2444e-05 -0 -0)
(-5.31416e-05 -0 -0)
(-5.36164e-05 -0 -0)
(-5.39958e-05 -0 -0)
(-5.43456e-05 -0 -0)
(-5.4702e-05 -0 -0)
(-5.50869e-05 -0 -0)
(-5.5517e-05 -0 -0)
(-5.60079e-05 -0 -0)
(-5.65763e-05 -0 -0)
(-5.72305e-05 -0 -0)
(-5.79413e-05 -0 -0)
(-5.85905e-05 -0 -0)
(-5.8848e-05 -0 -0)
(-2.7285e-05 -0 -0)
(-3.29113e-05 -0 -0)
(-4.00156e-05 -0 -0)
(-4.55789e-05 -0 -0)
(-4.91174e-05 -0 -0)
(-5.11608e-05 -0 -0)
(-5.23187e-05 -0 -0)
(-5.3013e-05 -0 -0)
(-5.34852e-05 -0 -0)
(-5.38626e-05 -0 -0)
(-5.42106e-05 -0 -0)
(-5.45652e-05 -0 -0)
(-5.49482e-05 -0 -0)
(-5.53761e-05 -0 -0)
(-5.58646e-05 -0 -0)
(-5.643e-05 -0 -0)
(-5.70808e-05 -0 -0)
(-5.77878e-05 -0 -0)
(-5.84393e-05 -0 -0)
(-5.88451e-05 -0 -0)
(-2.72865e-05 -0 -0)
(-2.72863e-05 -0 -0)
(-2.72862e-05 -0 -0)
(-2.72859e-05 -0 -0)
(-2.72859e-05 -0 -0)
(-2.72857e-05 -0 -0)
(-2.72856e-05 -0 -0)
(-2.72855e-05 -0 -0)
(-2.72854e-05 -0 -0)
(-2.72853e-05 -0 -0)
(-2.72853e-05 -0 -0)
(-2.72852e-05 -0 -0)
(-2.72852e-05 -0 -0)
(-2.72851e-05 -0 -0)
(-2.72851e-05 -0 -0)
(-2.72851e-05 -0 -0)
(-2.72851e-05 -0 -0)
(-2.7285e-05 -0 -0)
(-2.7285e-05 -0 -0)
(-2.7285e-05 -0 -0)
)
;
    }
    frontAndBack
    {
        type            empty;
    }
}


// ************************************************************************* //
