/*--------------------------------*- C++ -*----------------------------------*\
| =========                 |                                                 |
| \\      /  F ield         | OpenFOAM: The Open Source CFD Toolbox           |
|  \\    /   O peration     | Version:  2506                                  |
|   \\  /    A nd           | Website:  www.openfoam.com                      |
|    \\/     M anipulation  |                                                 |
\*---------------------------------------------------------------------------*/
FoamFile
{
    version     2.0;
    format      ascii;
    arch        "LSB;label=32;scalar=64";
    class       volTensorField;
    location    "4";
    object      kU2;
}
// * * * * * * * * * * * * * * * * * * * * * * * * * * * * * * * * * * * * * //

dimensions      [0 4 -4 0 0 0 0];

internalField   nonuniform List<tensor> 
400
(
(2.72865e-05 -1.71681e-12 -0 -1.69061e-12 1.0637e-19 0 -0 0 0)
(2.72863e-05 4.07184e-13 -0 4.0099e-13 5.98383e-21 -0 -0 -0 0)
(2.72862e-05 -9.66873e-14 -0 -9.52187e-14 3.37403e-22 0 -0 0 0)
(2.72859e-05 2.29239e-14 -0 2.25765e-14 1.89673e-23 -0 -0 -0 0)
(2.72859e-05 -5.44988e-15 -0 -5.36773e-15 1.07211e-24 0 -0 0 0)
(2.72857e-05 1.28877e-15 -0 1.26931e-15 5.99526e-26 -0 -0 -0 0)
(2.72856e-05 -3.08499e-16 -0 -3.03914e-16 3.43614e-27 0 -0 0 0)
(2.72855e-05 7.17329e-17 -0 7.06407e-17 1.85713e-28 -0 -0 -0 0)
(2.72854e-05 -1.79526e-17 -0 -1.77039e-17 1.16483e-29 0 -0 0 0)
(2.72853e-05 3.66042e-18 -0 3.59575e-18 4.82382e-31 -0 -0 -0 0)
(2.72853e-05 -1.27744e-18 -0 -1.266e-18 5.92712e-32 0 -0 0 0)
(2.72852e-05 1.91063e-20 -0 1.22076e-20 8.54833e-36 -0 -0 -0 0)
(2.72852e-05 -2.08755e-19 -0 -2.11016e-19 1.61446e-33 0 -0 0 0)
(2.72851e-05 -1.02101e-19 -0 -1.03941e-19 3.88949e-34 0 -0 0 0)
(2.72851e-05 -8.91936e-20 -0 -9.03478e-20 2.95342e-34 0 -0 0 0)
(2.72851e-05 -6.26749e-20 -0 -6.418e-20 1.47424e-34 0 -0 0 0)
(2.72851e-05 -4.65923e-20 -0 -4.81773e-20 8.22682e-35 0 -0 0 0)
(2.7285e-05 -3.41695e-20 -0 -3.49284e-20 4.37414e-35 0 -0 0 0)
(2.7285e-05 -2.3841e-20 -0 -2.00198e-20 1.74928e-35 0 -0 0 0)
(2.7285e-05 1.51842e-20 -0 1.69336e-21 9.42362e-37 -0 -0 -0 0)
(3.29592e-05 2.07317e-12 -0 2.04151e-12 1.28413e-19 -0 -0 -0 0)
(3.29591e-05 -4.91609e-13 -0 -4.84138e-13 7.22127e-21 0 -0 0 0)
(3.29506e-05 1.16411e-13 -0 1.14643e-13 4.05022e-22 -0 -0 -0 0)
(3.29474e-05 -2.76348e-14 -0 -2.72174e-14 2.28287e-23 0 -0 0 0)
(3.29418e-05 6.51508e-15 -0 6.41672e-15 1.26907e-24 -0 -0 -0 0)
(3.29387e-05 -1.55646e-15 -0 -1.53327e-15 7.2452e-26 0 -0 0 0)
(3.29341e-05 3.60098e-16 -0 3.54605e-16 3.87721e-27 -0 -0 -0 0)
(3.29311e-05 -8.98706e-17 -0 -8.86233e-17 2.41858e-28 0 -0 0 0)
(3.29277e-05 1.81745e-17 -0 1.78466e-17 9.85048e-30 -0 -0 -0 0)
(3.29246e-05 -6.31184e-18 -0 -6.25784e-18 1.19966e-30 0 -0 0 0)
(3.29223e-05 8.95137e-20 -0 6.24334e-20 1.69753e-34 -0 -0 -0 0)
(3.29194e-05 -1.00623e-18 -0 -1.01284e-18 3.09591e-32 0 -0 0 0)
(3.2918e-05 -4.77089e-19 -0 -4.86697e-19 7.05384e-33 0 -0 0 0)
(3.29158e-05 -4.15172e-19 -0 -4.18736e-19 5.28159e-33 0 -0 0 0)
(3.29146e-05 -2.9485e-19 -0 -2.97055e-19 2.66103e-33 0 -0 0 0)
(3.29132e-05 -2.19441e-19 -0 -2.21934e-19 1.47969e-33 0 -0 0 0)
(3.29124e-05 -1.6086e-19 -0 -1.68828e-19 8.25153e-34 0 -0 0 0)
(3.29118e-05 -1.25425e-19 -0 -1.30464e-19 4.97193e-34 0 -0 0 0)
(3.29114e-05 -8.11734e-20 -0 -6.85393e-20 1.69047e-34 0 -0 0 0)
(3.29113e-05 5.326e-20 -0 1.90625e-21 3.08487e-36 -0 -0 -0 0)
(4.00868e-05 -2.51905e-12 -0 -2.48053e-12 1.55877e-19 0 -0 0 0)
(4.00865e-05 5.96593e-13 -0 5.87513e-13 8.74375e-21 -0 -0 -0 0)
(4.00738e-05 -1.41478e-13 -0 -1.39327e-13 4.91884e-22 0 -0 0 0)
(4.00692e-05 3.34671e-14 -0 3.29602e-14 2.75294e-23 -0 -0 -0 0)
(4.00606e-05 -7.95511e-15 -0 -7.83563e-15 1.55597e-24 0 -0 0 0)
(4.00562e-05 1.8664e-15 -0 1.83808e-15 8.56445e-26 -0 -0 -0 0)
(4.00492e-05 -4.53548e-16 -0 -4.46995e-16 5.06211e-27 0 -0 0 0)
(4.00448e-05 9.97298e-17 -0 9.8092e-17 2.44294e-28 -0 -0 -0 0)
(4.00397e-05 -2.87462e-17 -0 -2.84331e-17 2.04134e-29 0 -0 0 0)
(4.00353e-05 3.25084e-18 -0 3.12757e-18 2.53957e-31 -0 -0 -0 0)
(4.00317e-05 -3.28157e-18 -0 -3.28947e-18 2.69652e-31 0 -0 0 0)
(4.00276e-05 -1.04163e-18 -0 -1.07143e-18 2.78815e-32 0 -0 0 0)
(4.00252e-05 -1.09709e-18 -0 -1.11161e-18 3.04691e-32 0 -0 0 0)
(4.00223e-05 -7.44606e-19 -0 -7.46961e-19 1.3897e-32 0 -0 0 0)
(4.00203e-05 -5.73561e-19 -0 -5.73653e-19 8.22144e-33 0 -0 0 0)
(4.00185e-05 -4.19743e-19 -0 -4.24077e-19 4.44803e-33 0 -0 0 0)
(4.00172e-05 -3.13363e-19 -0 -3.26509e-19 2.55679e-33 0 -0 0 0)
(4.00163e-05 -2.41854e-19 -0 -2.48433e-19 1.5015e-33 0 -0 0 0)
(4.00158e-05 -1.56882e-19 -0 -1.3184e-19 5.16879e-34 0 -0 0 0)
(4.00156e-05 1.06501e-19 -0 3.25217e-21 8.6556e-36 -0 -0 -0 0)
(4.56723e-05 2.86847e-12 -0 2.82455e-12 1.77397e-19 -0 -0 -0 0)
(4.56716e-05 -6.78754e-13 -0 -6.68415e-13 9.93372e-21 0 -0 0 0)
(4.56555e-05 1.60841e-13 -0 1.58392e-13 5.58004e-22 -0 -0 -0 0)
(4.5649e-05 -3.80822e-14 -0 -3.75066e-14 3.12894e-23 0 -0 0 0)
(4.5638e-05 8.9909e-15 -0 8.8547e-15 1.74442e-24 -0 -0 -0 0)
(4.56321e-05 -2.14541e-15 -0 -2.11358e-15 9.93709e-26 0 -0 0 0)
(4.56231e-05 4.94791e-16 -0 4.87107e-16 5.28277e-27 -0 -0 -0 0)
(4.56172e-05 -1.25878e-16 -0 -1.24222e-16 3.42781e-28 0 -0 0 0)
(4.56104e-05 2.33908e-17 -0 2.289e-17 1.17389e-29 -0 -0 -0 0)
(4.56046e-05 -1.01234e-17 -0 -1.0089e-17 2.23957e-30 0 -0 0 0)
(4.55999e-05 -9.86417e-19 -0 -1.05278e-18 2.27737e-32 0 -0 0 0)
(4.55949e-05 -2.2763e-18 -0 -2.30803e-18 1.15227e-31 0 -0 0 0)
(4.55914e-05 -1.35921e-18 -0 -1.38604e-18 4.13217e-32 0 -0 0 0)
(4.55877e-05 -1.12189e-18 -0 -1.12487e-18 2.76825e-32 0 -0 0 0)
(4.55851e-05 -8.24086e-19 -0 -8.22036e-19 1.48608e-32 0 -0 0 0)
(4.55826e-05 -6.18808e-19 -0 -6.25364e-19 8.48964e-33 0 -0 0 0)
(4.5581e-05 -4.62691e-19 -0 -4.83734e-19 4.91037e-33 0 -0 0 0)
(4.55798e-05 -3.67673e-19 -0 -3.77497e-19 3.0451e-33 0 -0 0 0)
(4.55792e-05 -2.38337e-19 -0 -1.96382e-19 1.0269e-33 0 -0 0 0)
(4.55789e-05 1.65597e-19 -0 4.22069e-21 1.53346e-35 -0 -0 -0 0)
(4.92268e-05 -3.0905e-12 -0 -3.04308e-12 1.91047e-19 0 -0 0 0)
(4.92263e-05 7.30998e-13 -0 7.19832e-13 1.06893e-20 -0 -0 -0 0)
(4.92068e-05 -1.73248e-13 -0 -1.70605e-13 6.00671e-22 0 -0 0 0)
(4.91999e-05 4.09617e-14 -0 4.03392e-14 3.35846e-23 -0 -0 -0 0)
(4.91864e-05 -9.70843e-15 -0 -9.56218e-15 1.88739e-24 0 -0 0 0)
(4.918e-05 2.28479e-15 -0 2.24988e-15 1.04525e-25 -0 -0 -0 0)
(4.91686e-05 -5.50809e-16 -0 -5.42904e-16 6.08185e-27 0 -0 0 0)
(4.9163e-05 1.21813e-16 -0 1.19747e-16 2.96701e-28 -0 -0 -0 0)
(4.91535e-05 -3.52854e-17 -0 -3.49492e-17 2.50887e-29 0 -0 0 0)
(4.91486e-05 3.3689e-18 -0 3.18072e-18 2.18023e-31 -0 -0 -0 0)
(4.91412e-05 -4.5862e-18 -0 -4.62006e-18 4.31176e-31 0 -0 0 0)
(4.91369e-05 -1.82398e-18 -0 -1.87249e-18 6.95076e-32 0 -0 0 0)
(4.91314e-05 -1.80944e-18 -0 -1.84039e-18 6.77789e-32 0 -0 0 0)
(4.9128e-05 -1.30617e-18 -0 -1.31649e-18 3.50018e-32 0 -0 0 0)
(4.91241e-05 -1.02608e-18 -0 -1.02429e-18 2.13948e-32 0 -0 0 0)
(4.9122e-05 -7.71883e-19 -0 -7.72714e-19 1.21421e-32 0 -0 0 0)
(4.91196e-05 -5.79119e-19 -0 -6.03977e-19 7.12087e-33 0 -0 0 0)
(4.91186e-05 -4.63523e-19 -0 -4.77054e-19 4.50187e-33 0 -0 0 0)
(4.91177e-05 -3.0912e-19 -0 -2.572e-19 1.61868e-33 0 -0 0 0)
(4.91174e-05 2.19673e-19 -0 1.15442e-21 5.16306e-36 -0 -0 -0 0)
(5.12801e-05 3.21955e-12 -0 3.17002e-12 1.99026e-19 -0 -0 -0 0)
(5.12798e-05 -7.61437e-13 -0 -7.49776e-13 1.11332e-20 0 -0 0 0)
(5.12581e-05 1.80433e-13 -0 1.7767e-13 6.25416e-22 -0 -0 -0 0)
(5.1251e-05 -4.26792e-14 -0 -4.20303e-14 3.50006e-23 0 -0 0 0)
(5.12359e-05 1.00885e-14 -0 9.93465e-15 1.95616e-24 -0 -0 -0 0)
(5.12294e-05 -2.39778e-15 -0 -2.36199e-15 1.10553e-25 0 -0 0 0)
(5.12164e-05 5.57857e-16 -0 5.491e-16 5.98089e-27 -0 -0 -0 0)
(5.12108e-05 -1.39268e-16 -0 -1.37457e-16 3.73815e-28 0 -0 0 0)
(5.11998e-05 2.69251e-17 -0 2.63253e-17 1.3844e-29 -0 -0 -0 0)
(5.11952e-05 -1.11482e-17 -0 -1.11236e-17 2.42226e-30 0 -0 0 0)
(5.11863e-05 -1.16889e-18 -0 -1.26151e-18 2.88079e-32 0 -0 0 0)
(5.11825e-05 -2.72521e-18 -0 -2.77123e-18 1.47554e-31 0 -0 0 0)
(5.11757e-05 -1.72997e-18 -0 -1.76767e-18 5.97552e-32 0 -0 0 0)
(5.11727e-05 -1.46587e-18 -0 -1.47812e-18 4.23415e-32 0 -0 0 0)
(5.11681e-05 -1.12722e-18 -0 -1.12032e-18 2.46804e-32 0 -0 0 0)
(5.11659e-05 -8.67845e-19 -0 -8.65092e-19 1.46732e-32 0 -0 0 0)
(5.11633e-05 -6.51422e-19 -0 -6.7661e-19 8.61475e-33 0 -0 0 0)
(5.1162e-05 -5.28837e-19 -0 -5.41946e-19 5.60183e-33 0 -0 0 0)
(5.11611e-05 -3.57327e-19 -0 -2.95317e-19 2.0626e-33 0 -0 0 0)
(5.11608e-05 2.7471e-19 -0 9.58174e-21 5.14496e-35 -0 -0 -0 0)
(5.2444e-05 -3.29398e-12 -0 -3.2431e-12 2.03697e-19 0 -0 0 0)
(5.24438e-05 7.79181e-13 -0 7.67191e-13 1.13985e-20 -0 -0 -0 0)
(5.24205e-05 -1.84645e-13 -0 -1.81808e-13 6.40398e-22 0 -0 0 0)
(5.24135e-05 4.36685e-14 -0 4.29994e-14 3.58251e-23 -0 -0 -0 0)
(5.23975e-05 -1.03411e-14 -0 -1.01838e-14 2.00987e-24 0 -0 0 0)
(5.23906e-05 2.44106e-15 -0 2.40345e-15 1.11985e-25 -0 -0 -0 0)
(5.23772e-05 -5.83632e-16 -0 -5.75138e-16 6.40869e-27 0 -0 0 0)
(5.23711e-05 1.3212e-16 -0 1.29858e-16 3.27601e-28 -0 -0 -0 0)
(5.23599e-05 -3.63532e-17 -0 -3.60024e-17 2.49963e-29 0 -0 0 0)
(5.23547e-05 4.28489e-18 -0 4.08383e-18 3.34235e-31 -0 -0 -0 0)
(5.23458e-05 -4.55427e-18 -0 -4.58956e-18 3.99308e-31 0 -0 0 0)
(5.23415e-05 -1.80417e-18 -0 -1.85701e-18 6.401e-32 0 -0 0 0)
(5.23345e-05 -1.90712e-18 -0 -1.93884e-18 7.06532e-32 0 -0 0 0)
(5.23312e-05 -1.43185e-18 -0 -1.44017e-18 3.94047e-32 0 -0 0 0)
(5.23264e-05 -1.16373e-18 -0 -1.15049e-18 2.55866e-32 0 -0 0 0)
(5.23241e-05 -8.89927e-19 -0 -8.8903e-19 1.51206e-32 0 -0 0 0)
(5.23213e-05 -6.87463e-19 -0 -7.16641e-19 9.41612e-33 0 -0 0 0)
(5.23201e-05 -5.71835e-19 -0 -5.82517e-19 6.36665e-33 0 -0 0 0)
(5.23191e-05 -3.83389e-19 -0 -3.1273e-19 2.29165e-33 0 -0 0 0)
(5.23187e-05 3.29785e-19 -0 2.2381e-20 1.41076e-34 -0 -0 -0 0)
(5.31416e-05 3.34064e-12 -0 3.28882e-12 2.06745e-19 -0 -0 -0 0)
(5.31411e-05 -7.90433e-13 -0 -7.78214e-13 1.15753e-20 0 -0 0 0)
(5.3118e-05 1.87318e-13 -0 1.84423e-13 6.50356e-22 -0 -0 -0 0)
(5.31101e-05 -4.43181e-14 -0 -4.36367e-14 3.64129e-23 0 -0 0 0)
(5.3094e-05 1.04868e-14 -0 1.03252e-14 2.03938e-24 -0 -0 -0 0)
(5.3087e-05 -2.48771e-15 -0 -2.44998e-15 1.14809e-25 0 -0 0 0)
(5.30729e-05 5.83295e-16 -0 5.74092e-16 6.30953e-27 -0 -0 -0 0)
(5.30671e-05 -1.42719e-16 -0 -1.40766e-16 3.78576e-28 0 -0 0 0)
(5.3055e-05 2.95335e-17 -0 2.89116e-17 1.60939e-29 -0 -0 -0 0)
(5.30502e-05 -1.06522e-17 -0 -1.06219e-17 2.13283e-30 0 -0 0 0)
(5.30404e-05 -6.18268e-19 -0 -7.0174e-19 8.17987e-33 0 -0 0 0)
(5.30365e-05 -2.48305e-18 -0 -2.51209e-18 1.1761e-31 0 -0 0 0)
(5.30289e-05 -1.59093e-18 -0 -1.61384e-18 4.8417e-32 0 -0 0 0)
(5.3026e-05 -1.41208e-18 -0 -1.40906e-18 3.75232e-32 0 -0 0 0)
(5.30207e-05 -1.11591e-18 -0 -1.09887e-18 2.31276e-32 0 -0 0 0)
(5.30186e-05 -8.7654e-19 -0 -8.74701e-19 1.44612e-32 0 -0 0 0)
(5.30156e-05 -6.85461e-19 -0 -7.16573e-19 9.26487e-33 0 -0 0 0)
(5.30144e-05 -5.8678e-19 -0 -5.93749e-19 6.57181e-33 0 -0 0 0)
(5.30134e-05 -3.96356e-19 -0 -3.16478e-19 2.36616e-33 0 -0 0 0)
(5.3013e-05 3.72924e-19 -0 3.02587e-20 2.12857e-34 -0 -0 -0 0)
(5.36164e-05 -3.3746e-12 -0 -3.32197e-12 2.09083e-19 0 -0 0 0)
(5.36157e-05 7.98824e-13 -0 7.86396e-13 1.17166e-20 -0 -0 -0 0)
(5.35925e-05 -1.89314e-13 -0 -1.86371e-13 6.58353e-22 0 -0 0 0)
(5.3584e-05 4.48068e-14 -0 4.41115e-14 3.68859e-23 -0 -0 -0 0)
(5.35681e-05 -1.06123e-14 -0 -1.04483e-14 2.06989e-24 0 -0 0 0)
(5.35603e-05 2.51022e-15 -0 2.47112e-15 1.15815e-25 -0 -0 -0 0)
(5.35468e-05 -5.97477e-16 -0 -5.88493e-16 6.56643e-27 0 -0 0 0)
(5.35398e-05 1.37885e-16 -0 1.35592e-16 3.49202e-28 -0 -0 -0 0)
(5.35288e-05 -3.59826e-17 -0 -3.5564e-17 2.39064e-29 0 -0 0 0)
(5.35224e-05 5.47255e-18 -0 5.28727e-18 5.40611e-31 -0 -0 -0 0)
(5.35142e-05 -3.96844e-18 -0 -3.97852e-18 2.95035e-31 0 -0 0 0)
(5.35081e-05 -1.36649e-18 -0 -1.39788e-18 3.56991e-32 0 -0 0 0)
(5.35027e-05 -1.63452e-18 -0 -1.64344e-18 5.02077e-32 0 -0 0 0)
(5.34972e-05 -1.25585e-18 -0 -1.23861e-18 2.90764e-32 0 -0 0 0)
(5.34941e-05 -1.05372e-18 -0 -1.02231e-18 2.01374e-32 0 -0 0 0)
(5.34901e-05 -8.18908e-19 -0 -8.10444e-19 1.24075e-32 0 -0 0 0)
(5.34883e-05 -6.47387e-19 -0 -6.82699e-19 8.26292e-33 0 -0 0 0)
(5.34864e-05 -5.73142e-19 -0 -5.80612e-19 6.22165e-33 0 -0 0 0)
(5.34857e-05 -3.97249e-19 -0 -3.06261e-19 2.27466e-33 0 -0 0 0)
(5.34852e-05 4.05293e-19 -0 4.59933e-20 3.48522e-34 -0 -0 -0 0)
(5.39958e-05 3.40384e-12 -0 3.35044e-12 2.11208e-19 -0 -0 -0 0)
(5.39952e-05 -8.06141e-13 -0 -7.93517e-13 1.18471e-20 0 -0 0 0)
(5.39712e-05 1.91057e-13 -0 1.88066e-13 6.6575e-22 -0 -0 -0 0)
(5.39628e-05 -4.5243e-14 -0 -4.45362e-14 3.73396e-23 0 -0 0 0)
(5.39467e-05 1.07153e-14 -0 1.05478e-14 2.0951e-24 -0 -0 -0 0)
(5.39386e-05 -2.5409e-15 -0 -2.50144e-15 1.17836e-25 0 -0 0 0)
(5.39252e-05 5.9897e-16 -0 5.89498e-16 6.5478e-27 -0 -0 -0 0)
(5.39175e-05 -1.44565e-16 -0 -1.42422e-16 3.81866e-28 0 -0 0 0)
(5.39071e-05 3.16135e-17 -0 3.10398e-17 1.82031e-29 -0 -0 -0 0)
(5.38997e-05 -9.92921e-18 -0 -9.83592e-18 1.81194e-30 0 -0 0 0)
(5.38924e-05 1.3746e-19 -0 9.51935e-20 2.42804e-34 -0 -0 -0 0)
(5.38852e-05 -1.98415e-18 -0 -1.9844e-18 7.30692e-32 0 -0 0 0)
(5.38807e-05 -1.22733e-18 -0 -1.22945e-18 2.80052e-32 0 -0 0 0)
(5.38743e-05 -1.16225e-18 -0 -1.13979e-18 2.4589e-32 0 -0 0 0)
(5.38719e-05 -9.43422e-19 -0 -9.07443e-19 1.58914e-32 0 -0 0 0)
(5.38673e-05 -7.53796e-19 -0 -7.34415e-19 1.02771e-32 0 -0 0 0)
(5.38658e-05 -5.97427e-19 -0 -6.23056e-19 6.91033e-33 0 -0 0 0)
(5.38637e-05 -5.4173e-19 -0 -5.46427e-19 5.49565e-33 0 -0 0 0)
(5.3863e-05 -3.75712e-19 -0 -2.83055e-19 1.9744e-33 0 -0 0 0)
(5.38626e-05 4.30312e-19 -0 6.15513e-20 4.91737e-34 -0 -0 -0 0)
(5.43456e-05 -3.43223e-12 -0 -3.37804e-12 2.13342e-19 0 -0 0 0)
(5.43449e-05 8.13339e-13 -0 8.00504e-13 1.19805e-20 -0 -0 -0 0)
(5.4321e-05 -1.92773e-13 -0 -1.89732e-13 6.73317e-22 0 -0 0 0)
(5.43123e-05 4.56752e-14 -0 4.4955e-14 3.78059e-23 -0 -0 -0 0)
(5.42958e-05 -1.08244e-14 -0 -1.06538e-14 2.12394e-24 0 -0 0 0)
(5.42878e-05 2.56406e-15 -0 2.52361e-15 1.19192e-25 -0 -0 -0 0)
(5.42738e-05 -6.0929e-16 -0 -5.9973e-16 6.73271e-27 0 -0 0 0)
(5.42668e-05 1.42445e-16 -0 1.40167e-16 3.67926e-28 -0 -0 -0 0)
(5.42553e-05 -3.57318e-17 -0 -3.5194e-17 2.31783e-29 0 -0 0 0)
(5.42488e-05 6.55986e-18 -0 6.43913e-18 7.78631e-31 -0 -0 -0 0)
(5.42403e-05 -3.32941e-18 -0 -3.28308e-18 2.01524e-31 0 -0 0 0)
(5.42342e-05 -8.16291e-19 -0 -8.09541e-19 1.21846e-32 0 -0 0 0)
(5.42285e-05 -1.23335e-18 -0 -1.22036e-18 2.77553e-32 0 -0 0 0)
(5.42231e-05 -9.50778e-19 -0 -9.23771e-19 1.61979e-32 0 -0 0 0)
(5.42196e-05 -8.39151e-19 -0 -7.9685e-19 1.23328e-32 0 -0 0 0)
(5.42157e-05 -6.73672e-19 -0 -6.42598e-19 7.98478e-33 0 -0 0 0)
(5.42137e-05 -5.4094e-19 -0 -5.58139e-19 5.56907e-33 0 -0 0 0)
(5.42119e-05 -4.99426e-19 -0 -5.01215e-19 4.61743e-33 0 -0 0 0)
(5.42111e-05 -3.50622e-19 -0 -2.6007e-19 1.68206e-33 0 -0 0 0)
(5.42106e-05 4.43389e-19 -0 6.87333e-20 5.6217e-34 -0 -0 -0 0)
(5.4702e-05 3.46192e-12 -0 3.40688e-12 2.15611e-19 -0 -0 -0 0)
(5.47013e-05 -8.20867e-13 -0 -8.07811e-13 1.21223e-20 0 -0 0 0)
(5.4677e-05 1.94568e-13 -0 1.91474e-13 6.81361e-22 -0 -0 -0 0)
(5.46681e-05 -4.61292e-14 -0 -4.53951e-14 3.83046e-23 0 -0 0 0)
(5.46518e-05 1.09346e-14 -0 1.07607e-14 2.15297e-24 -0 -0 -0 0)
(5.46431e-05 -2.59379e-15 -0 -2.55241e-15 1.21157e-25 0 -0 0 0)
(5.46296e-05 6.13736e-16 -0 6.04015e-16 6.78581e-27 -0 -0 -0 0)
(5.46216e-05 -1.46903e-16 -0 -1.44516e-16 3.8867e-28 0 -0 0 0)
(5.4611e-05 3.34175e-17 -0 3.29112e-17 2.0139e-29 -0 -0 -0 0)
(5.46033e-05 -9.34146e-18 -0 -9.16628e-18 1.56816e-30 0 -0 0 0)
(5.45959e-05 8.57826e-19 -0 8.65348e-19 1.35966e-32 -0 -0 -0 0)
(5.45884e-05 -1.47204e-18 -0 -1.435e-18 3.86965e-32 0 -0 0 0)
(5.45837e-05 -8.20913e-19 -0 -7.93629e-19 1.19358e-32 0 -0 0 0)
(5.45776e-05 -8.52718e-19 -0 -8.05709e-19 1.25883e-32 0 -0 0 0)
(5.45743e-05 -7.04719e-19 -0 -6.46305e-19 8.34575e-33 0 -0 0 0)
(5.45705e-05 -5.7687e-19 -0 -5.44251e-19 5.75333e-33 0 -0 0 0)
(5.45682e-05 -4.74312e-19 -0 -4.89033e-19 4.25072e-33 0 -0 0 0)
(5.45666e-05 -4.54717e-19 -0 -4.52016e-19 3.76676e-33 0 -0 0 0)
(5.45656e-05 -3.21318e-19 -0 -2.28798e-19 1.34731e-33 0 -0 0 0)
(5.45652e-05 4.50427e-19 -0 7.77731e-20 6.42004e-34 -0 -0 -0 0)
(5.50869e-05 -3.49394e-12 -0 -3.43799e-12 2.18058e-19 0 -0 0 0)
(5.50863e-05 8.28971e-13 -0 8.15681e-13 1.22748e-20 -0 -0 -0 0)
(5.50616e-05 -1.96501e-13 -0 -1.93351e-13 6.9002e-22 0 -0 0 0)
(5.50529e-05 4.66148e-14 -0 4.58668e-14 3.88367e-23 -0 -0 -0 0)
(5.50356e-05 -1.10554e-14 -0 -1.08775e-14 2.18504e-24 0 -0 0 0)
(5.50278e-05 2.62191e-15 -0 2.57995e-15 1.22927e-25 -0 -0 -0 0)
(5.5013e-05 -6.22788e-16 -0 -6.12591e-16 6.93499e-27 0 -0 0 0)
(5.50061e-05 1.46951e-16 -0 1.44695e-16 3.86559e-28 -0 -0 -0 0)
(5.49937e-05 -3.57945e-17 -0 -3.51275e-17 2.28639e-29 0 -0 0 0)
(5.4988e-05 7.53223e-18 -0 7.47594e-18 1.02405e-30 -0 -0 -0 0)
(5.49779e-05 -2.76279e-18 -0 -2.6703e-18 1.3419e-31 0 -0 0 0)
(5.49732e-05 -2.93093e-19 -0 -2.52815e-19 1.3479e-33 0 -0 0 0)
(5.49655e-05 -8.35296e-19 -0 -7.89312e-19 1.1995e-32 0 -0 0 0)
(5.49619e-05 -6.36765e-19 -0 -5.80644e-19 6.72709e-33 0 -0 0 0)
(5.49566e-05 -5.89183e-19 -0 -5.33138e-19 5.71571e-33 0 -0 0 0)
(5.49542e-05 -4.83577e-19 -0 -4.54645e-19 4.00071e-33 0 -0 0 0)
(5.4951e-05 -4.14998e-19 -0 -4.22556e-19 3.19121e-33 0 -0 0 0)
(5.49497e-05 -4.10498e-19 -0 -3.99261e-19 2.98265e-33 0 -0 0 0)
(5.49486e-05 -2.83491e-19 -0 -1.88581e-19 9.72931e-34 0 -0 0 0)
(5.49482e-05 4.46089e-19 -0 8.98475e-20 7.29415e-34 -0 -0 -0 0)
(5.5517e-05 3.52916e-12 -0 3.47224e-12 2.20727e-19 -0 -0 -0 0)
(5.55167e-05 -8.37852e-13 -0 -8.24309e-13 1.24404e-20 0 -0 0 0)
(5.54906e-05 1.98612e-13 -0 1.95403e-13 6.99386e-22 -0 -0 -0 0)
(5.54826e-05 -4.71462e-14 -0 -4.63817e-14 3.94127e-23 0 -0 0 0)
(5.54649e-05 1.11852e-14 -0 1.10042e-14 2.21914e-24 -0 -0 -0 0)
(5.54569e-05 -2.65441e-15 -0 -2.61095e-15 1.24971e-25 0 -0 0 0)
(5.54418e-05 6.3014e-16 -0 6.20114e-16 7.04809e-27 -0 -0 -0 0)
(5.5435e-05 -1.49885e-16 -0 -1.47255e-16 3.98147e-28 0 -0 0 0)
(5.54222e-05 3.51637e-17 -0 3.4724e-17 2.20313e-29 -0 -0 -0 0)
(5.54167e-05 -8.91456e-18 -0 -8.66793e-18 1.39436e-30 0 -0 0 0)
(5.54061e-05 1.48265e-18 -0 1.52957e-18 4.09308e-32 -0 -0 -0 0)
(5.54018e-05 -1.02311e-18 -0 -9.49867e-19 1.75414e-32 0 -0 0 0)
(5.53937e-05 -4.26987e-19 -0 -3.75159e-19 2.89181e-33 0 -0 0 0)
(5.53902e-05 -5.38427e-19 -0 -4.73479e-19 4.60251e-33 0 -0 0 0)
(5.53847e-05 -4.53372e-19 -0 -3.95661e-19 3.23883e-33 0 -0 0 0)
(5.53822e-05 -3.92357e-19 -0 -3.60326e-19 2.55274e-33 0 -0 0 0)
(5.5379e-05 -3.36432e-19 -0 -3.48779e-19 2.11886e-33 0 -0 0 0)
(5.53776e-05 -3.53485e-19 -0 -3.43897e-19 2.19515e-33 0 -0 0 0)
(5.53765e-05 -2.52906e-19 -0 -1.58368e-19 7.2327e-34 0 -0 0 0)
(5.53761e-05 4.25047e-19 -0 9.85278e-20 7.56263e-34 -0 -0 -0 0)
(5.60079e-05 -3.56818e-12 -0 -3.51024e-12 2.23632e-19 0 -0 0 0)
(5.60073e-05 8.47573e-13 -0 8.33772e-13 1.26177e-20 -0 -0 -0 0)
(5.59818e-05 -2.00933e-13 -0 -1.9766e-13 7.09454e-22 0 -0 0 0)
(5.59726e-05 4.77203e-14 -0 4.69414e-14 4.00207e-23 -0 -0 -0 0)
(5.59553e-05 -1.13252e-14 -0 -1.11392e-14 2.25454e-24 0 -0 0 0)
(5.59467e-05 2.68922e-15 -0 2.64555e-15 1.27165e-25 -0 -0 -0 0)
(5.59319e-05 -6.38355e-16 -0 -6.27527e-16 7.16202e-27 0 -0 0 0)
(5.59242e-05 1.51908e-16 -0 1.49631e-16 4.06444e-28 -0 -0 -0 0)
(5.59121e-05 -3.60773e-17 -0 -3.53094e-17 2.27834e-29 0 -0 0 0)
(5.59054e-05 8.39484e-18 -0 8.38226e-18 1.25869e-30 -0 -0 -0 0)
(5.58958e-05 -2.3216e-18 -0 -2.18963e-18 9.09452e-32 0 -0 0 0)
(5.58903e-05 1.4185e-19 -0 2.05263e-19 5.20961e-34 -0 -0 -0 0)
(5.5883e-05 -4.9493e-19 -0 -4.3867e-19 3.88511e-33 0 -0 0 0)
(5.58789e-05 -3.54191e-19 -0 -2.91049e-19 1.84483e-33 0 -0 0 0)
(5.58735e-05 -3.58589e-19 -0 -2.98571e-19 1.91619e-33 0 -0 0 0)
(5.58708e-05 -2.98457e-19 -0 -2.66558e-19 1.42393e-33 0 -0 0 0)
(5.58676e-05 -2.68193e-19 -0 -2.78815e-19 1.33846e-33 0 -0 0 0)
(5.58662e-05 -3.0101e-19 -0 -2.94366e-19 1.58606e-33 0 -0 0 0)
(5.58651e-05 -2.19732e-19 -0 -1.30536e-19 5.13432e-34 0 -0 0 0)
(5.58646e-05 3.94573e-19 -0 9.5835e-20 6.76884e-34 -0 -0 -0 0)
(5.65763e-05 3.61182e-12 -0 3.55279e-12 2.26809e-19 -0 -0 -0 0)
(5.65755e-05 -8.58394e-13 -0 -8.44312e-13 1.28104e-20 0 -0 0 0)
(5.65499e-05 2.03512e-13 -0 2.00174e-13 7.20388e-22 -0 -0 -0 0)
(5.65402e-05 -4.83542e-14 -0 -4.75569e-14 4.06715e-23 0 -0 0 0)
(5.65224e-05 1.14828e-14 -0 1.1294e-14 2.29443e-24 -0 -0 -0 0)
(5.6514e-05 -2.72488e-15 -0 -2.67929e-15 1.29185e-25 0 -0 0 0)
(5.64984e-05 6.49223e-16 -0 6.38798e-16 7.34043e-27 -0 -0 -0 0)
(5.64912e-05 -1.53396e-16 -0 -1.50576e-16 4.08874e-28 0 -0 0 0)
(5.64782e-05 3.6934e-17 -0 3.65051e-17 2.38726e-29 -0 -0 -0 0)
(5.64721e-05 -8.65125e-18 -0 -8.36619e-18 1.28166e-30 0 -0 0 0)
(5.64614e-05 1.99493e-18 -0 2.06451e-18 7.29445e-32 -0 -0 -0 0)
(5.64564e-05 -6.70544e-19 -0 -5.89956e-19 7.00703e-33 0 -0 0 0)
(5.64485e-05 -1.17066e-19 -0 -7.17862e-20 1.48874e-34 0 -0 0 0)
(5.64444e-05 -2.98556e-19 -0 -2.44688e-19 1.29425e-33 0 -0 0 0)
(5.64388e-05 -2.59694e-19 -0 -2.06276e-19 9.49143e-34 0 -0 0 0)
(5.64362e-05 -2.36004e-19 -0 -2.02375e-19 8.46285e-34 0 -0 0 0)
(5.6433e-05 -2.11598e-19 -0 -2.13294e-19 7.99753e-34 0 -0 0 0)
(5.64316e-05 -2.41228e-19 -0 -2.27505e-19 9.72514e-34 0 -0 0 0)
(5.64304e-05 -1.78834e-19 -0 -1.01613e-19 3.22024e-34 0 -0 0 0)
(5.643e-05 3.47225e-19 -0 8.66323e-20 5.33066e-34 -0 -0 -0 0)
(5.72305e-05 -3.66027e-12 -0 -3.60012e-12 2.30252e-19 0 -0 0 0)
(5.723e-05 8.70252e-13 -0 8.55895e-13 1.30149e-20 -0 -0 -0 0)
(5.72027e-05 -2.0632e-13 -0 -2.02913e-13 7.3187e-22 0 -0 0 0)
(5.71939e-05 4.90449e-14 -0 4.8233e-14 4.13607e-23 -0 -0 -0 0)
(5.7175e-05 -1.16419e-14 -0 -1.14477e-14 2.33098e-24 0 -0 0 0)
(5.71668e-05 2.76861e-15 -0 2.72302e-15 1.31877e-25 -0 -0 -0 0)
(5.71507e-05 -6.56076e-16 -0 -6.44718e-16 7.40121e-27 0 -0 0 0)
(5.71436e-05 1.57338e-16 -0 1.54962e-16 4.2667e-28 -0 -0 -0 0)
(5.71297e-05 -3.66196e-17 -0 -3.5818e-17 2.29589e-29 0 -0 0 0)
(5.7124e-05 9.11571e-18 -0 9.09283e-18 1.45101e-30 -0 -0 -0 0)
(5.71127e-05 -2.03772e-18 -0 -1.90101e-18 6.78261e-32 0 -0 0 0)
(5.71081e-05 4.53505e-19 -0 5.11326e-19 4.06052e-33 -0 -0 -0 0)
(5.70996e-05 -2.44847e-19 -0 -1.93215e-19 8.28519e-34 0 -0 0 0)
(5.70958e-05 -1.39861e-19 -0 -9.12217e-20 2.23456e-34 0 -0 0 0)
(5.709e-05 -1.82008e-19 -0 -1.3488e-19 4.30008e-34 0 -0 0 0)
(5.70872e-05 -1.57172e-19 -0 -1.32978e-19 3.66114e-34 0 -0 0 0)
(5.7084e-05 -1.52571e-19 -0 -1.58461e-19 4.23526e-34 0 -0 0 0)
(5.70824e-05 -1.95425e-19 -0 -1.80782e-19 6.18918e-34 0 -0 0 0)
(5.70813e-05 -1.44708e-19 -0 -7.63122e-20 1.93461e-34 0 -0 0 0)
(5.70808e-05 2.87692e-19 -0 7.81771e-20 3.94019e-34 -0 -0 -0 0)
(5.79413e-05 3.71133e-12 -0 3.65006e-12 2.33799e-19 -0 -0 -0 0)
(5.79405e-05 -8.82684e-13 -0 -8.68041e-13 1.3224e-20 0 -0 0 0)
(5.7913e-05 2.0933e-13 -0 2.05859e-13 7.4409e-22 -0 -0 -0 0)
(5.79033e-05 -4.97544e-14 -0 -4.89239e-14 4.20388e-23 0 -0 0 0)
(5.78847e-05 1.18303e-14 -0 1.16333e-14 2.37759e-24 -0 -0 -0 0)
(5.78754e-05 -2.80645e-15 -0 -2.75891e-15 1.33783e-25 0 -0 0 0)
(5.786e-05 6.70628e-16 -0 6.59689e-16 7.64615e-27 -0 -0 -0 0)
(5.78512e-05 -1.57964e-16 -0 -1.55057e-16 4.23388e-28 0 -0 0 0)
(5.78391e-05 3.85221e-17 -0 3.8031e-17 2.53294e-29 -0 -0 -0 0)
(5.78307e-05 -8.72443e-18 -0 -8.45426e-18 1.27542e-30 0 -0 0 0)
(5.78221e-05 2.26545e-18 -0 2.32061e-18 9.09208e-32 -0 -0 -0 0)
(5.78141e-05 -5.18629e-19 -0 -4.44789e-19 3.99004e-33 0 -0 0 0)
(5.78086e-05 4.90397e-20 -0 9.76944e-20 8.28752e-35 -0 -0 -0 0)
(5.78015e-05 -1.39294e-19 -0 -9.66585e-20 2.32935e-34 0 -0 0 0)
(5.77985e-05 -1.12464e-19 -0 -7.56839e-20 1.47265e-34 0 -0 0 0)
(5.77934e-05 -1.17987e-19 -0 -9.49862e-20 1.93918e-34 0 -0 0 0)
(5.77915e-05 -1.11775e-19 -0 -1.15922e-19 2.24206e-34 0 -0 0 0)
(5.77893e-05 -1.46045e-19 -0 -1.38978e-19 3.51226e-34 0 -0 0 0)
(5.77883e-05 -1.13612e-19 -0 -6.04539e-20 1.18852e-34 0 -0 0 0)
(5.77878e-05 2.18008e-19 -0 6.27129e-20 2.36589e-34 -0 -0 -0 0)
(5.85905e-05 -3.75752e-12 -0 -3.69529e-12 2.36986e-19 0 -0 0 0)
(5.8591e-05 8.93932e-13 -0 8.79057e-13 1.34119e-20 -0 -0 -0 0)
(5.85629e-05 -2.11864e-13 -0 -2.08334e-13 7.53695e-22 0 -0 0 0)
(5.85544e-05 5.03579e-14 -0 4.95164e-14 4.2585e-23 -0 -0 -0 0)
(5.85354e-05 -1.19507e-14 -0 -1.17495e-14 2.3988e-24 0 -0 0 0)
(5.85269e-05 2.83971e-15 -0 2.79228e-15 1.35481e-25 -0 -0 -0 0)
(5.85108e-05 -6.72486e-16 -0 -6.60889e-16 7.59584e-27 0 -0 0 0)
(5.85034e-05 1.60905e-16 -0 1.58316e-16 4.35425e-28 -0 -0 -0 0)
(5.84897e-05 -3.7507e-17 -0 -3.67756e-17 2.35827e-29 0 -0 0 0)
(5.84834e-05 9.26642e-18 -0 9.17689e-18 1.45404e-30 -0 -0 -0 0)
(5.84725e-05 -2.03798e-18 -0 -1.9592e-18 6.8285e-32 0 -0 0 0)
(5.84671e-05 5.27598e-19 -0 5.51224e-19 4.97415e-33 -0 -0 -0 0)
(5.84589e-05 -1.48957e-19 -0 -1.24991e-19 3.18486e-34 0 -0 0 0)
(5.84547e-05 -2.37073e-20 -0 -4.64535e-21 1.88401e-36 0 -0 0 0)
(5.84489e-05 -6.43912e-20 -0 -4.88352e-20 5.38001e-35 0 -0 0 0)
(5.8446e-05 -4.99784e-20 -0 -4.2694e-20 3.65085e-35 0 -0 0 0)
(5.84425e-05 -4.95545e-20 -0 -6.40491e-20 5.43085e-35 0 -0 0 0)
(5.8441e-05 -8.23622e-20 -0 -8.84273e-20 1.24623e-34 0 -0 0 0)
(5.84397e-05 -7.68022e-20 -0 -4.36199e-20 5.73258e-35 0 -0 0 0)
(5.84393e-05 1.39863e-19 -0 4.32784e-20 1.03579e-34 -0 -0 -0 0)
(5.8848e-05 3.77787e-12 -0 3.71513e-12 2.385e-19 -0 -0 -0 0)
(5.88474e-05 -9.00315e-13 -0 -8.8527e-13 1.35439e-20 0 -0 0 0)
(5.88472e-05 2.13755e-13 -0 2.10183e-13 7.63464e-22 -0 -0 -0 0)
(5.88467e-05 -5.09115e-14 -0 -5.00551e-14 4.33054e-23 0 -0 0 0)
(5.88466e-05 1.21307e-14 -0 1.19262e-14 2.45848e-24 -0 -0 -0 0)
(5.88461e-05 -2.88591e-15 -0 -2.83694e-15 1.39128e-25 0 -0 0 0)
(5.88462e-05 6.89936e-16 -0 6.78249e-16 7.95207e-27 -0 -0 -0 0)
(5.88457e-05 -1.64117e-16 -0 -1.61275e-16 4.49787e-28 0 -0 0 0)
(5.88458e-05 3.94892e-17 -0 3.88277e-17 2.60558e-29 -0 -0 -0 0)
(5.88454e-05 -9.3019e-18 -0 -9.13078e-18 1.44333e-30 0 -0 0 0)
(5.88455e-05 2.31565e-18 -0 2.27624e-18 8.95732e-32 -0 -0 -0 0)
(5.88452e-05 -5.12449e-19 -0 -5.04443e-19 4.39291e-33 0 -0 0 0)
(5.88453e-05 1.41122e-19 -0 1.36637e-19 3.27681e-34 -0 -0 -0 0)
(5.88452e-05 -2.88243e-20 -0 -2.79066e-20 1.36696e-35 0 -0 0 0)
(5.88451e-05 1.08399e-20 -0 8.56039e-21 1.57691e-36 -0 -0 -0 0)
(5.88451e-05 4.36703e-21 -0 -6.14819e-21 -4.56271e-37 0 -0 -0 0)
(5.88451e-05 -3.4224e-21 -0 -1.83889e-20 1.06949e-36 0 -0 0 0)
(5.88451e-05 -2.66104e-20 -0 -3.32109e-20 1.50184e-35 0 -0 0 0)
(5.88451e-05 -3.0627e-20 -0 -1.89206e-20 9.84756e-36 0 -0 0 0)
(5.88451e-05 5.07662e-20 -0 1.79261e-20 1.5465e-35 -0 -0 -0 0)
)
;

boundaryField
{
    movingWall
    {
        type            calculated;
        value           nonuniform List<tensor> 
20
(
(5.8848e-05 0 0 0 0 0 0 0 0)
(5.88474e-05 0 0 0 0 0 0 0 0)
(5.88472e-05 0 0 0 0 0 0 0 0)
(5.88467e-05 0 0 0 0 0 0 0 0)
(5.88466e-05 0 0 0 0 0 0 0 0)
(5.88461e-05 0 0 0 0 0 0 0 0)
(5.88462e-05 0 0 0 0 0 0 0 0)
(5.88457e-05 0 0 0 0 0 0 0 0)
(5.88458e-05 0 0 0 0 0 0 0 0)
(5.88454e-05 0 0 0 0 0 0 0 0)
(5.88455e-05 0 0 0 0 0 0 0 0)
(5.88452e-05 0 0 0 0 0 0 0 0)
(5.88453e-05 0 0 0 0 0 0 0 0)
(5.88452e-05 0 0 0 0 0 0 0 0)
(5.88451e-05 0 0 0 0 0 0 0 0)
(5.88451e-05 0 0 0 0 0 0 0 0)
(5.88451e-05 0 0 0 0 0 0 0 0)
(5.88451e-05 0 0 0 0 0 0 0 0)
(5.88451e-05 0 0 0 0 0 0 0 0)
(5.88451e-05 0 0 0 0 0 0 0 0)
)
;
    }
    fixedWalls
    {
        type            calculated;
        value           nonuniform List<tensor> 
60
(
(2.72865e-05 0 0 0 0 0 0 0 0)
(3.29592e-05 0 0 0 0 0 0 0 0)
(4.00868e-05 0 0 0 0 0 0 0 0)
(4.56723e-05 0 0 0 0 0 0 0 0)
(4.92268e-05 0 0 0 0 0 0 0 0)
(5.12801e-05 0 0 0 0 0 0 0 0)
(5.2444e-05 0 0 0 0 0 0 0 0)
(5.31416e-05 0 0 0 0 0 0 0 0)
(5.36164e-05 0 0 0 0 0 0 0 0)
(5.39958e-05 0 0 0 0 0 0 0 0)
(5.43456e-05 0 0 0 0 0 0 0 0)
(5.4702e-05 0 0 0 0 0 0 0 0)
(5.50869e-05 0 0 0 0 0 0 0 0)
(5.5517e-05 0 0 0 0 0 0 0 0)
(5.60079e-05 0 0 0 0 0 0 0 0)
(5.65763e-05 0 0 0 0 0 0 0 0)
(5.72305e-05 0 0 0 0 0 0 0 0)
(5.79413e-05 0 0 0 0 0 0 0 0)
(5.85905e-05 0 0 0 0 0 0 0 0)
(5.8848e-05 0 0 0 0 0 0 0 0)
(2.7285e-05 0 0 0 0 0 0 0 0)
(3.29113e-05 0 0 0 0 0 0 0 0)
(4.00156e-05 0 0 0 0 0 0 0 0)
(4.55789e-05 0 0 0 0 0 0 0 0)
(4.91174e-05 0 0 0 0 0 0 0 0)
(5.11608e-05 0 0 0 0 0 0 0 0)
(5.23187e-05 0 0 0 0 0 0 0 0)
(5.3013e-05 0 0 0 0 0 0 0 0)
(5.34852e-05 0 0 0 0 0 0 0 0)
(5.38626e-05 0 0 0 0 0 0 0 0)
(5.42106e-05 0 0 0 0 0 0 0 0)
(5.45652e-05 0 0 0 0 0 0 0 0)
(5.49482e-05 0 0 0 0 0 0 0 0)
(5.53761e-05 0 0 0 0 0 0 0 0)
(5.58646e-05 0 0 0 0 0 0 0 0)
(5.643e-05 0 0 0 0 0 0 0 0)
(5.70808e-05 0 0 0 0 0 0 0 0)
(5.77878e-05 0 0 0 0 0 0 0 0)
(5.84393e-05 0 0 0 0 0 0 0 0)
(5.88451e-05 0 0 0 0 0 0 0 0)
(2.72865e-05 0 0 0 0 0 0 0 0)
(2.72863e-05 0 0 0 0 0 0 0 0)
(2.72862e-05 0 0 0 0 0 0 0 0)
(2.72859e-05 0 0 0 0 0 0 0 0)
(2.72859e-05 0 0 0 0 0 0 0 0)
(2.72857e-05 0 0 0 0 0 0 0 0)
(2.72856e-05 0 0 0 0 0 0 0 0)
(2.72855e-05 0 0 0 0 0 0 0 0)
(2.72854e-05 0 0 0 0 0 0 0 0)
(2.72853e-05 0 0 0 0 0 0 0 0)
(2.72853e-05 0 0 0 0 0 0 0 0)
(2.72852e-05 0 0 0 0 0 0 0 0)
(2.72852e-05 0 0 0 0 0 0 0 0)
(2.72851e-05 0 0 0 0 0 0 0 0)
(2.72851e-05 0 0 0 0 0 0 0 0)
(2.72851e-05 0 0 0 0 0 0 0 0)
(2.72851e-05 0 0 0 0 0 0 0 0)
(2.7285e-05 0 0 0 0 0 0 0 0)
(2.7285e-05 0 0 0 0 0 0 0 0)
(2.7285e-05 0 0 0 0 0 0 0 0)
)
;
    }
    frontAndBack
    {
        type            empty;
    }
}


// ************************************************************************* //
