/*--------------------------------*- C++ -*----------------------------------*\
| =========                 |                                                 |
| \\      /  F ield         | OpenFOAM: The Open Source CFD Toolbox           |
|  \\    /   O peration     | Version:  2506                                  |
|   \\  /    A nd           | Website:  www.openfoam.com                      |
|    \\/     M anipulation  |                                                 |
\*---------------------------------------------------------------------------*/
FoamFile
{
    version     2.0;
    format      ascii;
    arch        "LSB;label=32;scalar=64";
    class       volScalarField;
    location    "4";
    object      Lambda2Field;
}
// * * * * * * * * * * * * * * * * * * * * * * * * * * * * * * * * * * * * * //

dimensions      [0 0 -2 0 0 0 0];

internalField   nonuniform List<scalar> 
400
(
-9.67645e-14
-5.17149e-14
-4.90264e-15
-4.98788e-16
-2.50446e-17
-4.13786e-18
1.67379e-20
-5.10511e-20
4.81623e-21
-1.05029e-21
1.70387e-22
-2.39242e-23
7.5748e-24
8.22814e-25
1.08485e-24
5.50743e-25
3.45849e-25
2.24666e-25
5.95094e-26
1.43959e-28
-1.53957e-13
-7.03487e-14
-6.45913e-15
-5.88288e-16
-3.50655e-17
-3.8749e-18
-1.44707e-19
-2.65509e-20
2.00262e-22
-2.24464e-22
3.74085e-23
4.89465e-24
5.38519e-24
2.51872e-24
1.39327e-24
6.8122e-25
4.2631e-25
2.54556e-25
6.55858e-26
0
-2.03754e-13
-5.70014e-14
-5.51155e-15
-2.79913e-16
-2.59911e-17
-9.74363e-19
-1.77425e-19
5.02418e-21
-2.1372e-21
2.58212e-22
-2.61682e-23
1.38205e-23
3.22649e-24
2.36942e-24
1.10215e-24
6.54061e-25
3.48215e-25
2.3123e-25
9.40073e-27
-8.69798e-27
-2.98345e-13
-7.67771e-14
-7.81901e-15
-3.95953e-16
-3.04041e-17
-2.40389e-18
-7.32241e-20
-1.9048e-20
9.35845e-22
-2.76908e-22
4.94956e-23
-2.80118e-25
4.52477e-24
1.71582e-24
1.10769e-24
5.14019e-25
2.89036e-25
1.39868e-25
1.83671e-26
-8.4887e-27
-3.1736e-13
-7.67133e-14
-8.15165e-15
-3.71355e-16
-3.19393e-17
-1.83634e-18
-1.44954e-19
-1.94942e-21
-1.60151e-21
1.87464e-22
-2.9103e-23
1.10084e-23
1.69829e-24
1.71952e-24
8.14079e-25
4.49473e-25
2.47657e-25
1.42696e-25
8.5779e-26
2.82592e-26
-3.16888e-13
-7.00079e-14
-7.97967e-15
-3.12435e-16
-2.95094e-17
-1.71563e-18
-7.63138e-20
-1.01475e-20
1.7265e-22
-1.48878e-22
3.31226e-23
-9.8377e-25
2.87724e-24
1.09688e-24
7.25976e-25
3.17272e-25
1.03949e-25
7.8965e-26
3.21581e-26
3.19108e-26
-2.82723e-13
-5.3986e-14
-6.81749e-15
-2.03534e-16
-2.26586e-17
-1.06337e-18
-4.70919e-20
-1.66011e-21
-3.42161e-22
7.44556e-23
-1.0379e-23
6.07434e-24
1.01007e-24
1.07309e-24
5.27401e-25
2.71316e-25
1.27006e-25
1.08305e-25
-3.09475e-26
-2.71455e-26
-2.38854e-13
-3.51848e-14
-5.47385e-15
-7.38556e-17
-1.59639e-17
-3.41816e-19
0
0
0
-5.32576e-24
1.53015e-23
0
1.76608e-24
7.69631e-25
4.92347e-25
2.4878e-25
8.69003e-26
8.2594e-26
3.25357e-26
0
-1.77677e-13
-1.20808e-14
-3.61357e-15
0
-5.78177e-18
0
0
0
0
3.14659e-24
0
2.25274e-24
6.92662e-25
5.84087e-25
3.67488e-25
2.02469e-25
8.46696e-26
3.02085e-26
2.93874e-27
3.27147e-27
-1.1259e-13
0
-1.7586e-15
0
0
0
0
0
0
0
3.88306e-24
4.54281e-25
6.85963e-25
5.03626e-25
3.37565e-25
1.17507e-25
5.49142e-26
8.80835e-27
6.61216e-27
1.66437e-27
-3.94507e-14
0
0
0
0
0
0
0
0
0
1.98351e-24
1.50085e-25
6.56723e-25
3.66319e-25
2.5018e-25
1.45916e-25
6.78578e-26
3.32689e-26
-1.72179e-26
1.99318e-26
0
7.21993e-16
0
8.65275e-18
5.76862e-19
8.57102e-20
2.46152e-21
1.26941e-21
0
2.68367e-23
0
1.47851e-24
2.30632e-25
4.18867e-25
2.12075e-25
1.24162e-25
5.15995e-26
5.23003e-26
1.83671e-26
1.34864e-27
6.83395e-14
1.96255e-14
1.879e-15
1.05522e-16
8.93721e-18
5.82229e-19
4.50264e-20
2.13496e-21
3.84354e-22
0
8.23967e-24
0
7.00294e-25
2.55988e-25
2.20787e-25
8.43722e-26
7.09597e-26
1.99214e-26
1.77755e-26
-8.48801e-27
1.41975e-13
3.83922e-14
3.83399e-15
2.02338e-16
1.70861e-17
1.14844e-18
7.05119e-20
6.63122e-21
1.42822e-22
7.01374e-23
-2.8382e-24
2.17513e-24
0
2.95914e-25
1.54235e-25
1.18068e-25
7.20458e-26
1.71293e-26
-2.49429e-26
0
2.0858e-13
5.52839e-14
5.58349e-15
2.89805e-16
2.43014e-17
1.58056e-18
1.10547e-19
6.25716e-21
7.84352e-22
0
1.30925e-23
-9.95078e-25
6.63685e-25
2.77614e-26
1.14616e-25
5.47246e-26
6.20757e-26
4.70198e-26
-2.66457e-26
-2.63251e-27
2.7289e-13
7.15656e-14
7.29638e-15
3.74904e-16
3.12292e-17
2.11909e-18
1.2447e-19
1.20043e-20
2.86783e-22
1.11595e-22
-4.6199e-24
2.43258e-24
0
1.75601e-25
3.28062e-26
4.87102e-26
4.20387e-26
3.34598e-26
9.99441e-27
1.19646e-27
3.19406e-13
8.32726e-14
8.52343e-15
4.3414e-16
3.63694e-17
2.2817e-18
1.6763e-19
8.43453e-21
1.14287e-21
0
1.64146e-23
-1.38289e-24
4.88108e-25
4.30385e-27
5.89192e-26
3.88476e-26
2.7449e-26
1.05661e-26
-6.60297e-27
2.0249e-27
3.54695e-13
9.09096e-14
9.48083e-15
5.02935e-16
3.96087e-17
2.9315e-18
1.63651e-19
1.63957e-20
4.94576e-22
1.30581e-22
-2.7378e-24
2.08628e-24
-1.64007e-25
7.99595e-26
1.79781e-26
2.59177e-26
4.21095e-28
2.47537e-26
-5.9732e-27
2.93874e-27
3.84593e-13
7.43793e-14
7.50205e-15
2.3528e-16
1.89014e-17
8.83994e-19
5.35825e-20
4.99018e-22
4.28448e-22
-2.55301e-23
6.01753e-24
-7.26075e-25
1.31788e-25
0
2.4697e-26
0
1.17549e-26
3.38757e-26
-8.58226e-28
2.92291e-27
2.00073e-13
2.83562e-14
2.55719e-15
0
0
-4.33673e-19
-6.93409e-21
-6.44338e-21
0
-5.47362e-23
-9.73579e-25
1.0914e-24
-3.21632e-25
1.20927e-25
-6.41683e-27
2.02668e-26
3.08327e-26
3.60485e-26
1.4716e-26
1.10619e-26
)
;

boundaryField
{
    movingWall
    {
        type            calculated;
        value           nonuniform List<scalar> 
20
(
0
0
0
0
0
0
0
0
0
0
0
0
0
2.15581e-25
-1.96607e-26
3.02197e-26
4.0133e-26
3.60798e-26
2.9953e-26
1.20552e-26
)
;
    }
    fixedWalls
    {
        type            calculated;
        value           nonuniform List<scalar> 
60
(
-5.07299e-13
-8.03241e-13
-1.05639e-12
-1.51549e-12
-1.55046e-12
-1.44617e-12
-1.14242e-12
-7.779e-13
-3.23761e-13
0
0
0
3.5545e-13
7.41742e-13
1.09152e-12
1.42956e-12
1.67442e-12
1.86033e-12
2.01778e-12
1.05049e-12
1.43959e-28
0
8.8116e-28
1.03736e-27
0
0
9.27604e-27
0
3.27147e-27
1.66437e-27
-1.96044e-26
1.34864e-27
3.54563e-26
0
3.77942e-26
1.19646e-27
2.0249e-27
1.97215e-27
1.41226e-26
1.01602e-27
0
0
0
0
0
0
0
0
1.00867e-20
0
3.43761e-22
-6.14867e-23
1.09448e-23
-1.16525e-24
6.39979e-25
3.22443e-25
2.30651e-25
1.70539e-25
7.14305e-26
6.58185e-27
)
;
    }
    frontAndBack
    {
        type            empty;
    }
}


// ************************************************************************* //
