/*--------------------------------*- C++ -*----------------------------------*\
| =========                 |                                                 |
| \\      /  F ield         | OpenFOAM: The Open Source CFD Toolbox           |
|  \\    /   O peration     | Version:  2506                                  |
|   \\  /    A nd           | Website:  www.openfoam.com                      |
|    \\/     M anipulation  |                                                 |
\*---------------------------------------------------------------------------*/
FoamFile
{
    version     2.0;
    format      ascii;
    arch        "LSB;label=32;scalar=64";
    class       volVectorField;
    location    "4";
    object      LambVectorField;
}
// * * * * * * * * * * * * * * * * * * * * * * * * * * * * * * * * * * * * * //

dimensions      [0 1 -2 0 0 0 0];

internalField   nonuniform List<vector> 
400
(
(-2.94092e-13 -4.74667e-06 0)
(-8.60526e-14 5.85564e-06 -0)
(-4.85188e-15 -1.39037e-06 0)
(-2.73717e-16 3.30815e-07 -0)
(-1.54266e-17 -7.84185e-08 0)
(-8.73815e-19 1.87839e-08 -0)
(-4.88918e-20 -4.38954e-09 0)
(-2.84203e-21 1.09776e-09 -0)
(-1.47014e-22 -2.2658e-10 0)
(-1.0311e-23 7.82418e-11 -0)
(-7.74003e-26 -1.66816e-12 0)
(-5.56204e-27 1.24317e-11 -0)
(4.21961e-26 5.45611e-12 0)
(1.73795e-26 4.56222e-12 0)
(9.63718e-27 2.91044e-12 0)
(4.57148e-27 1.94349e-12 0)
(2.05582e-27 1.1643e-12 0)
(7.5667e-28 5.91089e-13 0)
(9.84801e-29 1.34219e-13 0)
(-4.16848e-30 6.71665e-14 -0)
(-2.94699e-13 4.75777e-06 -0)
(-8.60516e-14 -5.85821e-06 0)
(-4.8395e-15 1.39097e-06 -0)
(-2.72808e-16 -3.30243e-07 0)
(-1.52727e-17 7.84059e-08 -0)
(-8.66446e-19 -1.86136e-08 0)
(-4.75863e-20 4.4196e-09 -0)
(-2.82215e-21 -1.04867e-09 0)
(-1.35206e-22 2.49461e-10 -0)
(-1.11567e-23 -5.8699e-11 0)
(-2.72792e-26 1.43849e-11 -0)
(-9.38561e-26 -3.05051e-12 0)
(1.54601e-26 1.04565e-12 0)
(4.31417e-28 3.39126e-14 0)
(2.70469e-27 2.99688e-13 0)
(1.53005e-27 2.26909e-13 0)
(7.30309e-28 1.42371e-13 0)
(9.92992e-28 2.50499e-13 0)
(8.37592e-28 4.02198e-13 0)
(-1.17268e-29 2.02462e-13 -0)
(-2.94887e-13 -4.76554e-06 0)
(-8.574e-14 5.85011e-06 -0)
(-4.82357e-15 -1.38737e-06 0)
(-2.70621e-16 3.2899e-07 -0)
(-1.52585e-17 -7.8011e-08 0)
(-8.48841e-19 1.84983e-08 -0)
(-4.89494e-20 -4.3857e-09 0)
(-2.54828e-21 1.0403e-09 -0)
(-1.7485e-22 -2.46224e-10 0)
(-4.59644e-24 5.8838e-11 -0)
(-1.11578e-24 -1.35787e-11 0)
(9.70003e-26 3.62385e-12 0)
(-9.11086e-27 -3.28051e-13 0)
(1.19286e-26 6.39138e-13 0)
(5.34627e-27 3.72977e-13 0)
(3.67114e-27 3.46431e-13 0)
(2.69624e-27 3.30454e-13 0)
(2.17865e-27 3.50925e-13 0)
(2.16152e-27 6.56061e-13 0)
(-2.83193e-29 3.48448e-13 -0)
(-2.95893e-13 4.78452e-06 -0)
(-8.56326e-14 -5.85113e-06 0)
(-4.81237e-15 1.38714e-06 -0)
(-2.70166e-16 -3.28817e-07 0)
(-1.51227e-17 7.79438e-08 -0)
(-8.55715e-19 -1.84748e-08 0)
(-4.67592e-20 4.37953e-09 -0)
(-2.82523e-21 -1.03749e-09 0)
(-1.23683e-22 2.4645e-10 -0)
(-1.28005e-23 -5.78615e-11 0)
(3.28802e-25 1.42417e-11 0)
(-1.45418e-25 -2.87271e-12 0)
(3.68526e-26 1.2122e-12 0)
(7.77907e-27 3.15263e-13 0)
(8.51396e-27 4.72132e-13 0)
(4.60235e-27 3.35464e-13 0)
(3.4691e-27 3.26885e-13 0)
(4.99658e-27 6.03299e-13 0)
(3.60831e-27 8.3747e-13 0)
(-4.15507e-29 4.48703e-13 -0)
(-2.95971e-13 -4.78781e-06 0)
(-8.55356e-14 5.84942e-06 -0)
(-4.80704e-15 -1.38647e-06 0)
(-2.69416e-16 3.28594e-07 -0)
(-1.51392e-17 -7.7874e-08 0)
(-8.44317e-19 1.84558e-08 -0)
(-4.8284e-20 -4.37289e-09 0)
(-2.52582e-21 1.03699e-09 -0)
(-1.74249e-22 -2.45068e-10 0)
(-3.79657e-24 5.86647e-11 -0)
(-1.24703e-24 -1.3264e-11 0)
(1.42191e-25 3.73129e-12 0)
(-1.14445e-26 -3.05524e-13 0)
(1.90818e-26 7.1208e-13 0)
(1.00764e-26 4.83256e-13 0)
(7.06176e-27 4.48921e-13 0)
(3.73388e-27 3.03665e-13 0)
(5.54027e-27 5.70438e-13 0)
(4.67226e-27 8.92265e-13 0)
(-1.09779e-29 4.6708e-13 -0)
(-2.96042e-13 4.78894e-06 -0)
(-8.55275e-14 -5.84952e-06 0)
(-4.80546e-15 1.38638e-06 -0)
(-2.69436e-16 -3.28546e-07 0)
(-1.50967e-17 7.78579e-08 -0)
(-8.50625e-19 -1.84493e-08 0)
(-4.68778e-20 4.37245e-09 -0)
(-2.77922e-21 -1.03542e-09 0)
(-1.2649e-22 2.46009e-10 -0)
(-1.2514e-23 -5.75947e-11 0)
(3.52617e-25 1.43076e-11 0)
(-1.46037e-25 -2.69718e-12 0)
(4.79264e-26 1.38752e-12 0)
(1.14748e-26 3.97258e-13 0)
(1.31681e-26 6.0142e-13 0)
(8.70198e-27 5.14679e-13 0)
(6.55884e-27 4.9596e-13 0)
(7.0326e-27 6.63908e-13 0)
(6.0661e-27 1.0509e-12 0)
(-9.44472e-29 5.04291e-13 -0)
(-2.95862e-13 -4.78436e-06 0)
(-8.55801e-14 5.8501e-06 -0)
(-4.80882e-15 -1.38653e-06 0)
(-2.69565e-16 3.28582e-07 -0)
(-1.51337e-17 -7.78653e-08 0)
(-8.46525e-19 1.84526e-08 -0)
(-4.80064e-20 -4.37189e-09 0)
(-2.57046e-21 1.03666e-09 -0)
(-1.68354e-22 -2.44845e-10 0)
(-4.58652e-24 5.87991e-11 -0)
(-1.15421e-24 -1.31642e-11 0)
(1.37319e-25 3.87045e-12 0)
(-9.67791e-27 -2.61233e-13 0)
(2.20516e-26 8.01286e-13 0)
(1.24236e-26 5.65047e-13 0)
(8.5588e-27 5.03731e-13 0)
(5.0524e-27 3.68871e-13 0)
(7.08584e-27 6.36431e-13 0)
(7.07272e-27 1.18325e-12 0)
(-2.60591e-28 6.09167e-13 -0)
(-2.95808e-13 4.77975e-06 -0)
(-8.5711e-14 -5.85286e-06 0)
(-4.81644e-15 1.38725e-06 -0)
(-2.70125e-16 -3.28769e-07 0)
(-1.51522e-17 7.79153e-08 -0)
(-8.52122e-19 -1.84641e-08 0)
(-4.73393e-20 4.37636e-09 -0)
(-2.74909e-21 -1.03637e-09 0)
(-1.34215e-22 2.46295e-10 -0)
(-1.15558e-23 -5.7714e-11 0)
(1.89686e-25 1.43372e-11 0)
(-1.277e-25 -2.69606e-12 0)
(4.018e-26 1.32027e-12 0)
(9.95088e-27 3.74472e-13 0)
(1.24545e-26 6.00931e-13 0)
(6.97447e-27 4.22746e-13 0)
(4.9631e-27 3.67195e-13 0)
(7.2376e-27 6.46227e-13 0)
(6.86495e-27 1.14995e-12 0)
(-3.08164e-28 5.399e-13 -0)
(-2.95717e-13 -4.77286e-06 0)
(-8.5904e-14 5.85684e-06 -0)
(-4.82794e-15 -1.38831e-06 0)
(-2.70882e-16 3.29051e-07 -0)
(-1.52113e-17 -7.79879e-08 0)
(-8.52823e-19 1.84845e-08 -0)
(-4.81386e-20 -4.38012e-09 0)
(-2.63094e-21 1.03885e-09 -0)
(-1.63083e-22 -2.45464e-10 0)
(-5.82881e-24 5.90044e-11 -0)
(-9.77013e-25 -1.31416e-11 0)
(1.01231e-25 3.87492e-12 0)
(-2.52772e-27 -8.22905e-14 0)
(1.99688e-26 8.62477e-13 0)
(1.01115e-26 5.29101e-13 0)
(6.74213e-27 4.44987e-13 0)
(3.75336e-27 2.9407e-13 0)
(7.34517e-27 6.76642e-13 0)
(6.70819e-27 1.17153e-12 0)
(-4.18449e-28 4.86611e-13 -0)
(-2.95761e-13 4.76649e-06 -0)
(-8.61583e-14 -5.86267e-06 0)
(-4.84298e-15 1.38984e-06 -0)
(-2.71898e-16 -3.29449e-07 0)
(-1.5269e-17 7.80931e-08 -0)
(-8.58425e-19 -1.85102e-08 0)
(-4.79729e-20 4.38838e-09 -0)
(-2.74546e-21 -1.03937e-09 0)
(-1.42276e-22 2.47092e-10 -0)
(-1.05495e-23 -5.78101e-11 0)
(-2.54893e-26 1.44304e-11 -0)
(-1.02514e-25 -2.7837e-12 0)
(3.14265e-26 1.37727e-12 0)
(8.05038e-27 3.80518e-13 0)
(9.47547e-27 5.62527e-13 0)
(6.45634e-27 4.73555e-13 0)
(3.40879e-27 2.94704e-13 0)
(6.67798e-27 6.58278e-13 0)
(5.93161e-27 1.12874e-12 0)
(-4.69937e-28 4.11234e-13 -0)
(-2.9583e-13 -4.75929e-06 0)
(-8.64597e-14 5.86961e-06 -0)
(-4.86079e-15 -1.39166e-06 0)
(-2.73083e-16 3.29925e-07 -0)
(-1.53473e-17 -7.82154e-08 0)
(-8.62005e-19 1.85434e-08 -0)
(-4.85706e-20 -4.39549e-09 0)
(-2.69313e-21 1.04266e-09 -0)
(-1.59936e-22 -2.46559e-10 0)
(-7.0068e-24 5.90314e-11 -0)
(-8.088e-25 -1.33623e-11 0)
(5.63537e-26 3.77534e-12 0)
(-7.79753e-27 -3.46495e-13 0)
(1.23773e-26 7.26517e-13 0)
(7.61857e-27 5.18386e-13 0)
(4.89572e-27 4.1305e-13 0)
(2.68409e-27 2.60713e-13 0)
(4.83239e-27 5.22676e-13 0)
(5.17368e-27 1.07844e-12 0)
(-3.78767e-28 2.98737e-13 -0)
(-2.95993e-13 4.75257e-06 -0)
(-8.6801e-14 -5.87776e-06 0)
(-4.88093e-15 1.39379e-06 -0)
(-2.74421e-16 -3.30477e-07 0)
(-1.54286e-17 7.83596e-08 -0)
(-8.67851e-19 -1.85794e-08 0)
(-4.87144e-20 4.40593e-09 -0)
(-2.7627e-21 -1.0442e-09 0)
(-1.49542e-22 2.48141e-10 -0)
(-9.78234e-24 -5.82731e-11 0)
(-2.26558e-25 1.42938e-11 -0)
(-7.63249e-26 -2.90345e-12 0)
(1.83335e-26 1.26093e-12 0)
(3.98149e-27 2.69701e-13 0)
(6.31376e-27 5.33136e-13 0)
(2.87312e-27 2.8808e-13 0)
(1.27129e-27 1.41856e-13 0)
(3.50128e-27 4.22668e-13 0)
(4.07109e-27 9.70907e-13 0)
(-3.94495e-28 2.76776e-13 -0)
(-2.96206e-13 -4.7461e-06 0)
(-8.71643e-14 5.88657e-06 -0)
(-4.90237e-15 -1.39608e-06 0)
(-2.75829e-16 3.31071e-07 -0)
(-1.55175e-17 -7.85123e-08 0)
(-8.72979e-19 1.86198e-08 -0)
(-4.91656e-20 -4.41526e-09 0)
(-2.75583e-21 1.04763e-09 -0)
(-1.58373e-22 -2.4794e-10 0)
(-8.06076e-24 5.92895e-11 -0)
(-6.58984e-25 -1.35676e-11 0)
(1.67302e-26 3.63787e-12 0)
(-6.23128e-27 -4.33929e-13 0)
(5.7811e-27 5.4722e-13 0)
(2.22283e-27 2.29132e-13 0)
(1.21557e-27 1.46929e-13 0)
(7.7453e-28 1.00723e-13 0)
(3.48752e-27 4.79983e-13 0)
(3.05481e-27 8.90106e-13 0)
(-3.82446e-28 2.33893e-13 -0)
(-2.96455e-13 4.73996e-06 -0)
(-8.75398e-14 -5.89575e-06 0)
(-4.9245e-15 1.39847e-06 -0)
(-2.77281e-16 -3.31689e-07 0)
(-1.56085e-17 7.86724e-08 -0)
(-8.7853e-19 -1.86601e-08 0)
(-4.9511e-20 4.42657e-09 -0)
(-2.78806e-21 -1.04958e-09 0)
(-1.56274e-22 2.49425e-10 -0)
(-9.19001e-24 -5.87545e-11 0)
(-3.95695e-25 1.43334e-11 -0)
(-5.15077e-26 -3.00422e-12 0)
(7.65814e-27 1.13075e-12 0)
(1.76789e-27 2.06818e-13 0)
(1.84596e-27 2.58398e-13 0)
(9.03015e-28 1.38793e-13 0)
(3.57219e-28 5.67191e-14 0)
(2.30346e-27 3.70926e-13 0)
(2.43983e-27 8.53139e-13 0)
(-1.92263e-28 1.08059e-13 -0)
(-2.96774e-13 -4.7352e-06 0)
(-8.79065e-14 5.90498e-06 -0)
(-4.9461e-15 -1.40085e-06 0)
(-2.78686e-16 3.32303e-07 -0)
(-1.56929e-17 -7.88295e-08 0)
(-8.84329e-19 1.87013e-08 -0)
(-4.9774e-20 -4.43639e-09 0)
(-2.81711e-21 1.05289e-09 -0)
(-1.57548e-22 -2.49476e-10 0)
(-8.93014e-24 5.95595e-11 -0)
(-5.4005e-25 -1.37861e-11 0)
(-1.31962e-26 3.59315e-12 -0)
(-3.78002e-27 -4.81543e-13 0)
(2.57594e-27 4.94556e-13 0)
(1.10289e-27 2.06391e-13 0)
(8.15028e-28 1.70831e-13 0)
(-3.8388e-28 -7.692e-14 0)
(1.39844e-27 2.65402e-13 0)
(1.75871e-27 7.52671e-13 0)
(-1.99552e-28 1.16324e-13 -0)
(-2.97051e-13 4.73039e-06 -0)
(-8.82523e-14 -5.91359e-06 0)
(-4.96657e-15 1.40307e-06 -0)
(-2.79986e-16 -3.32875e-07 0)
(-1.57808e-17 7.89773e-08 -0)
(-8.88377e-19 -1.87384e-08 0)
(-5.02752e-20 4.44658e-09 -0)
(-2.81145e-21 -1.05476e-09 0)
(-1.61974e-22 2.50594e-10 -0)
(-8.76488e-24 -5.91632e-11 0)
(-5.22322e-25 1.42848e-11 -0)
(-3.35904e-26 -3.21446e-12 0)
(1.08785e-27 8.5542e-13 0)
(-2.1059e-28 -4.85789e-14 0)
(9.6725e-28 2.64648e-13 0)
(4.41251e-28 1.23052e-13 0)
(3.43806e-28 9.09638e-14 0)
(1.01635e-27 2.521e-13 0)
(1.00239e-27 5.56673e-13 0)
(-4.07553e-29 2.65469e-14 -0)
(-2.9745e-13 -4.7285e-06 0)
(-8.85629e-14 5.92182e-06 -0)
(-4.98449e-15 -1.40516e-06 0)
(-2.81171e-16 3.33408e-07 -0)
(-1.58401e-17 -7.91122e-08 0)
(-8.94234e-19 1.87735e-08 -0)
(-5.02548e-20 -4.45481e-09 0)
(-2.86771e-21 1.05749e-09 -0)
(-1.57235e-22 -2.5079e-10 0)
(-9.51462e-24 5.97739e-11 -0)
(-4.63935e-25 -1.39381e-11 0)
(-3.11411e-26 3.47804e-12 -0)
(-2.28633e-27 -6.75663e-13 0)
(5.09609e-28 3.18965e-13 0)
(2.1136e-28 8.94615e-14 0)
(-3.31476e-29 -1.42302e-14 0)
(6.84391e-29 2.46544e-14 0)
(6.27433e-28 1.98113e-13 0)
(6.4274e-28 4.80768e-13 0)
(4.47623e-30 -3.2683e-15 -0)
(-2.97819e-13 4.72761e-06 -0)
(-8.88233e-14 -5.92883e-06 0)
(-5.00121e-15 1.40696e-06 -0)
(-2.82091e-16 -3.33865e-07 0)
(-1.59229e-17 7.92287e-08 -0)
(-8.96317e-19 -1.88026e-08 0)
(-5.08799e-20 4.46257e-09 -0)
(-2.83878e-21 -1.05913e-09 0)
(-1.65341e-22 2.51458e-10 -0)
(-8.71663e-24 -5.96254e-11 0)
(-5.69978e-25 1.4202e-11 -0)
(-2.54058e-26 -3.30227e-12 0)
(-1.52143e-27 9.00274e-13 -0)
(-1.84291e-28 -1.10205e-13 0)
(1.81221e-28 1.38396e-13 0)
(6.37342e-29 3.87784e-14 0)
(-3.15827e-28 -1.57452e-13 0)
(2.95994e-28 1.23079e-13 0)
(3.93468e-28 3.76119e-13 0)
(4.24335e-30 -3.9101e-15 -0)
(-2.9811e-13 -4.72667e-06 0)
(-8.91004e-14 5.93874e-06 -0)
(-5.01765e-15 -1.41046e-06 0)
(-2.83269e-16 3.34972e-07 -0)
(-1.59691e-17 -7.95573e-08 0)
(-9.01538e-19 1.88965e-08 -0)
(-5.06978e-20 -4.48846e-09 0)
(-2.88527e-21 1.06621e-09 -0)
(-1.59225e-22 -2.53239e-10 0)
(-9.44236e-24 6.01752e-11 -0)
(-4.8055e-25 -1.43421e-11 0)
(-3.21291e-26 3.40787e-12 -0)
(-1.74301e-27 -8.15214e-13 0)
(1.25056e-29 1.57363e-13 0)
(-9.1001e-30 -1.08916e-14 0)
(-1.90229e-29 -2.60415e-14 0)
(-8.57699e-29 -7.8262e-14 0)
(5.28869e-29 3.49525e-14 0)
(1.88448e-28 2.52473e-13 0)
(-2.05055e-29 2.76888e-14 -0)
(-3.00955e-13 4.76715e-06 -0)
(-8.95262e-14 -5.95117e-06 0)
(-5.06279e-15 1.41749e-06 -0)
(-2.86634e-16 -3.36978e-07 0)
(-1.62667e-17 8.02634e-08 -0)
(-9.23282e-19 -1.91515e-08 0)
(-5.24996e-20 4.55496e-09 -0)
(-2.99975e-21 -1.09454e-09 0)
(-1.70721e-22 2.58738e-10 -0)
(-9.80618e-24 -6.31982e-11 0)
(-5.7858e-25 1.49575e-11 -0)
(-2.8613e-26 -3.33781e-12 0)
(-3.01323e-27 1.2977e-12 -0)
(1.53867e-28 3.24452e-13 0)
(-5.66387e-29 3.89341e-13 -0)
(2.63667e-29 2.52359e-13 0)
(7.03308e-29 2.25061e-13 0)
(3.00851e-29 5.33066e-14 0)
(-1.56342e-29 -4.86243e-14 0)
(2.42563e-29 -7.96251e-14 -0)
)
;

boundaryField
{
    movingWall
    {
        type            calculated;
        value           nonuniform List<vector> 
20
(
(0 5.00304e-06 -0)
(0 -6.01242e-06 -0)
(0 1.4439e-06 -0)
(0 -3.44082e-07 -0)
(0 8.25655e-08 -0)
(0 -1.98801e-08 -0)
(0 4.74983e-09 -0)
(0 -1.16227e-09 -0)
(0 2.74357e-10 -0)
(0 -6.94414e-11 -0)
(0 1.64357e-11 -0)
(0 -3.68038e-12 -0)
(0 1.78681e-12 -0)
(0 7.59347e-13 -0)
(0 7.47518e-13 -0)
(0 5.75928e-13 -0)
(0 4.86917e-13 -0)
(0 8.79143e-14 -0)
(0 -2.23961e-13 -0)
(0 -1.75946e-13 -0)
)
;
    }
    fixedWalls
    {
        type            calculated;
        value           nonuniform List<vector> 
60
(
(0 -2.48035e-05 -0)
(0 2.48089e-05 -0)
(0 -2.47948e-05 -0)
(0 2.48012e-05 -0)
(0 -2.47954e-05 -0)
(0 2.47964e-05 -0)
(0 -2.4799e-05 -0)
(0 2.48105e-05 -0)
(0 -2.4827e-05 -0)
(0 2.48511e-05 -0)
(0 -2.48798e-05 -0)
(0 2.49135e-05 -0)
(0 -2.495e-05 -0)
(0 2.49879e-05 -0)
(0 -2.50261e-05 -0)
(0 2.50617e-05 -0)
(0 -2.50957e-05 -0)
(0 2.51245e-05 -0)
(0 -2.51479e-05 -0)
(0 2.52108e-05 -0)
(0 -2.48248e-14 -0)
(0 -2.31684e-14 -0)
(0 -5.40399e-15 -0)
(0 -9.93568e-15 -0)
(0 -6.36114e-14 -0)
(0 -1.29125e-13 -0)
(0 -1.16903e-13 -0)
(0 -2.28312e-13 -0)
(0 -3.4397e-13 -0)
(0 -4.57099e-13 -0)
(0 -5.61367e-13 -0)
(0 -5.7013e-13 -0)
(0 -5.99842e-13 -0)
(0 -7.11699e-13 -0)
(0 -6.31984e-13 -0)
(0 -6.14086e-13 -0)
(0 -5.47835e-13 -0)
(0 -4.34091e-13 -0)
(0 -2.69123e-13 -0)
(0 -2.03168e-13 -0)
(0 -4.73752e-06 -0)
(0 5.86543e-06 -0)
(0 -1.39456e-06 -0)
(0 3.33291e-07 -0)
(0 -7.89731e-08 -0)
(0 1.91431e-08 -0)
(0 -4.40308e-09 -0)
(0 1.16458e-09 -0)
(0 -2.06148e-10 -0)
(0 9.95904e-11 -0)
(0 1.08916e-11 -0)
(0 2.19853e-11 -0)
(0 1.192e-11 -0)
(0 9.05758e-12 -0)
(0 5.96329e-12 -0)
(0 3.79609e-12 -0)
(0 2.23884e-12 -0)
(0 9.91376e-13 -0)
(0 4.54013e-14 -0)
(0 -2.16514e-14 -0)
)
;
    }
    frontAndBack
    {
        type            empty;
    }
}


// ************************************************************************* //
