/*--------------------------------*- C++ -*----------------------------------*\
| =========                 |                                                 |
| \\      /  F ield         | OpenFOAM: The Open Source CFD Toolbox           |
|  \\    /   O peration     | Version:  2506                                  |
|   \\  /    A nd           | Website:  www.openfoam.com                      |
|    \\/     M anipulation  |                                                 |
\*---------------------------------------------------------------------------*/
FoamFile
{
    version     2.0;
    format      ascii;
    arch        "LSB;label=32;scalar=64";
    class       volScalarField;
    location    "4";
    object      magSqrP;
}
// * * * * * * * * * * * * * * * * * * * * * * * * * * * * * * * * * * * * * //

dimensions      [0 4 -4 0 0 0 0];

internalField   nonuniform List<scalar> 
400
(
0
0
8.35432e-23
8.43266e-24
1.86889e-23
1.15985e-23
1.22181e-23
1.12832e-23
1.11726e-23
1.09858e-23
1.09173e-23
1.08697e-23
1.08451e-23
1.08285e-23
1.08189e-23
1.08118e-23
1.08047e-23
1.07967e-23
1.07853e-23
1.0779e-23
2.0234e-22
0
3.0045e-23
6.45834e-24
1.43704e-23
1.10278e-23
1.15205e-23
1.10492e-23
1.10006e-23
1.08949e-23
1.08556e-23
1.08287e-23
1.08166e-23
1.08081e-23
1.08023e-23
1.07975e-23
1.07935e-23
1.07865e-23
1.07773e-23
1.07723e-23
0
4.84966e-22
1.92611e-26
1.4631e-23
7.34548e-24
1.07046e-23
1.0401e-23
1.07402e-23
1.07139e-23
1.07441e-23
1.0746e-23
1.07567e-23
1.07632e-23
1.07683e-23
1.07709e-23
1.07735e-23
1.07727e-23
1.07668e-23
1.07599e-23
1.07566e-23
8.68894e-22
0
2.63009e-23
9.98047e-26
1.27403e-23
8.63718e-24
1.03506e-23
1.01872e-23
1.04788e-23
1.05428e-23
1.06188e-23
1.06601e-23
1.06936e-23
1.07156e-23
1.07292e-23
1.07373e-23
1.07426e-23
1.07404e-23
1.07361e-23
1.07356e-23
0
4.87941e-21
0
4.16764e-23
3.9944e-24
1.0148e-23
9.0696e-24
1.0081e-23
1.01736e-23
1.03841e-23
1.04812e-23
1.05633e-23
1.06151e-23
1.06541e-23
1.06787e-23
1.0696e-23
1.07055e-23
1.07068e-23
1.07063e-23
1.07064e-23
1.91734e-21
0
2.20894e-23
0
1.51989e-23
7.31763e-24
1.00217e-23
9.59135e-24
1.0075e-23
1.02074e-23
1.03678e-23
1.04639e-23
1.0538e-23
1.05896e-23
1.06252e-23
1.06499e-23
1.06648e-23
1.06702e-23
1.06729e-23
1.0672e-23
0
1.54576e-20
1.76875e-25
9.5205e-23
2.29072e-24
1.05736e-23
8.36556e-24
9.77943e-24
9.83505e-24
1.01278e-23
1.02605e-23
1.03826e-23
1.04655e-23
1.05274e-23
1.05718e-23
1.06022e-23
1.06217e-23
1.06305e-23
1.06352e-23
1.06362e-23
3.0239e-21
0
1.7644e-23
0
1.85192e-23
6.65609e-24
1.01692e-23
9.33409e-24
9.88972e-24
1.00117e-23
1.01969e-23
1.03117e-23
1.0405e-23
1.04709e-23
1.05205e-23
1.05552e-23
1.05784e-23
1.05892e-23
1.05954e-23
1.05979e-23
0
2.85085e-20
1.35311e-24
1.58706e-22
1.51975e-24
1.13856e-23
8.11073e-24
9.75997e-24
9.71185e-24
1.00138e-23
1.01374e-23
1.02645e-23
1.03545e-23
1.0424e-23
1.04746e-23
1.05107e-23
1.05355e-23
1.05504e-23
1.05566e-23
1.05584e-23
3.77142e-21
0
1.42955e-23
0
2.16069e-23
6.52154e-24
1.05503e-23
9.34853e-24
9.89093e-24
9.95699e-24
1.01271e-23
1.0229e-23
1.03191e-23
1.03854e-23
1.04348e-23
1.04712e-23
1.04958e-23
1.05117e-23
1.05197e-23
1.05227e-23
0
3.79093e-20
3.92878e-24
2.05107e-22
1.37904e-24
1.22655e-23
8.2272e-24
9.9381e-24
9.77155e-24
1.00301e-23
1.01147e-23
1.02198e-23
1.02946e-23
1.03558e-23
1.04014e-23
1.04362e-23
1.04609e-23
1.04771e-23
1.04847e-23
1.04881e-23
3.82441e-21
0
1.2419e-23
0
2.3782e-23
6.90062e-24
1.10371e-23
9.57791e-24
1.00388e-23
1.00281e-23
1.0152e-23
1.02197e-23
1.0285e-23
1.03346e-23
1.03766e-23
1.04089e-23
1.043e-23
1.04453e-23
1.04524e-23
1.04555e-23
0
3.89087e-20
7.62717e-24
2.12598e-22
1.80867e-24
1.30266e-23
8.68201e-24
1.02622e-23
9.97846e-24
1.01552e-23
1.01814e-23
1.02436e-23
1.02864e-23
1.03252e-23
1.0359e-23
1.03865e-23
1.04051e-23
1.04179e-23
1.04244e-23
1.04263e-23
3.14745e-21
0
1.21575e-23
0
2.45505e-23
7.78869e-24
1.15519e-23
9.98577e-24
1.02987e-23
1.02021e-23
1.02544e-23
1.02718e-23
1.03011e-23
1.03256e-23
1.03496e-23
1.03695e-23
1.03839e-23
1.03944e-23
1.04008e-23
1.04029e-23
0
3.07445e-20
1.14348e-23
1.77137e-22
3.00031e-24
1.35615e-23
9.44847e-24
1.0689e-23
1.0306e-23
1.03642e-23
1.03149e-23
1.032e-23
1.03217e-23
1.03345e-23
1.03463e-23
1.03579e-23
1.03672e-23
1.03753e-23
1.03818e-23
1.03836e-23
2.02105e-21
0
1.35001e-23
0
2.37285e-23
9.16853e-24
1.20423e-23
1.05283e-23
1.06354e-23
1.04455e-23
1.04084e-23
1.03676e-23
1.03503e-23
1.0345e-23
1.03471e-23
1.03514e-23
1.0357e-23
1.03592e-23
1.03644e-23
1.03666e-23
0
1.73229e-20
1.45242e-23
1.15189e-22
5.36308e-24
1.3856e-23
1.04831e-23
1.11683e-23
1.06975e-23
1.0607e-23
1.04815e-23
1.04216e-23
1.03786e-23
1.03588e-23
1.03495e-23
1.03474e-23
1.03475e-23
1.03491e-23
1.03519e-23
1.03538e-23
8.81919e-22
0
1.70825e-23
0
2.19278e-23
1.0992e-23
1.25014e-23
1.11211e-23
1.09754e-23
1.06924e-23
1.05662e-23
1.04653e-23
1.0407e-23
1.03718e-23
1.03549e-23
1.03454e-23
1.03418e-23
1.03392e-23
1.03415e-23
1.03453e-23
0
5.06196e-21
2.58318e-23
5.4648e-23
1.04054e-23
1.3821e-23
1.1725e-23
1.1559e-23
1.10593e-23
1.08137e-23
1.06251e-23
1.05085e-23
1.04311e-23
1.03837e-23
1.03593e-23
1.03463e-23
1.03378e-23
1.0334e-23
1.03358e-23
1.03393e-23
1.09401e-22
0
8.25885e-23
9.52991e-25
2.2579e-23
1.17285e-23
1.30087e-23
1.14924e-23
1.12289e-23
1.08557e-23
1.0671e-23
1.05321e-23
1.04463e-23
1.03923e-23
1.03633e-23
1.03458e-23
1.0337e-23
1.03329e-23
1.03334e-23
1.03372e-23
)
;

boundaryField
{
    movingWall
    {
        type            calculated;
        value           nonuniform List<scalar> 
20
(
1.09401e-22
0
8.25885e-23
9.52991e-25
2.2579e-23
1.17285e-23
1.30087e-23
1.14924e-23
1.12289e-23
1.08557e-23
1.0671e-23
1.05321e-23
1.04463e-23
1.03923e-23
1.03633e-23
1.03458e-23
1.0337e-23
1.03329e-23
1.03334e-23
1.03372e-23
)
;
    }
    fixedWalls
    {
        type            calculated;
        value           nonuniform List<scalar> 
60
(
0
2.0234e-22
0
8.68894e-22
0
1.91734e-21
0
3.0239e-21
0
3.77142e-21
0
3.82441e-21
0
3.14745e-21
0
2.02105e-21
0
8.81919e-22
0
1.09401e-22
1.0779e-23
1.07723e-23
1.07566e-23
1.07356e-23
1.07064e-23
1.0672e-23
1.06362e-23
1.05979e-23
1.05584e-23
1.05227e-23
1.04881e-23
1.04555e-23
1.04263e-23
1.04029e-23
1.03836e-23
1.03666e-23
1.03538e-23
1.03453e-23
1.03393e-23
1.03372e-23
0
0
8.35432e-23
8.43266e-24
1.86889e-23
1.15985e-23
1.22181e-23
1.12832e-23
1.11726e-23
1.09858e-23
1.09173e-23
1.08697e-23
1.08451e-23
1.08285e-23
1.08189e-23
1.08118e-23
1.08047e-23
1.07967e-23
1.07853e-23
1.0779e-23
)
;
    }
    frontAndBack
    {
        type            empty;
    }
}


// ************************************************************************* //
