/*--------------------------------*- C++ -*----------------------------------*\
| =========                 |                                                 |
| \\      /  F ield         | OpenFOAM: The Open Source CFD Toolbox           |
|  \\    /   O peration     | Version:  2506                                  |
|   \\  /    A nd           | Website:  www.openfoam.com                      |
|    \\/     M anipulation  |                                                 |
\*---------------------------------------------------------------------------*/
FoamFile
{
    version     2.0;
    format      ascii;
    arch        "LSB;label=32;scalar=64";
    class       volVectorField;
    location    "4";
    object      momentum1:momentum;
}
// * * * * * * * * * * * * * * * * * * * * * * * * * * * * * * * * * * * * * //

dimensions      [1 1 -1 0 0 0 0];

internalField   nonuniform List<vector> 
400
(
(-2.5e-07 1.54894e-14 0)
(-2.5e-07 -3.67392e-15 0)
(-2.5e-07 8.72408e-16 0)
(-2.5e-07 -2.06851e-16 0)
(-2.5e-07 4.91805e-17 0)
(-2.5e-07 -1.16298e-17 0)
(-2.5e-07 2.78456e-18 0)
(-2.5e-07 -6.47237e-19 0)
(-2.5e-07 1.6221e-19 0)
(-2.5e-07 -3.29459e-20 0)
(-2.5e-07 1.15996e-20 0)
(-2.5e-07 -1.11852e-22 0)
(-2.5e-07 1.93343e-21 0)
(-2.5e-07 9.5236e-22 0)
(-2.5e-07 8.27812e-22 0)
(-2.5e-07 5.88051e-22 0)
(-2.5e-07 4.41426e-22 0)
(-2.5e-07 3.20032e-22 0)
(-2.5e-07 1.83432e-22 0)
(-2.5e-07 -1.55155e-23 0)
(-2.5e-07 -1.54851e-14 0)
(-2.5e-07 3.67226e-15 0)
(-2.5e-07 -8.69809e-16 0)
(-2.5e-07 2.06521e-16 0)
(-2.5e-07 -4.86974e-17 0)
(-2.5e-07 1.16373e-17 0)
(-2.5e-07 -2.69178e-18 0)
(-2.5e-07 6.72794e-19 0)
(-2.5e-07 -1.35499e-19 0)
(-2.5e-07 4.75164e-20 0)
(-2.5e-07 -4.74097e-22 0)
(-2.5e-07 7.69183e-21 0)
(-2.5e-07 3.69629e-21 0)
(-2.5e-07 3.18036e-21 0)
(-2.5e-07 2.25626e-21 0)
(-2.5e-07 1.68575e-21 0)
(-2.5e-07 1.28241e-21 0)
(-2.5e-07 9.91014e-22 0)
(-2.5e-07 5.20635e-22 0)
(-2.5e-07 -1.44802e-23 0)
(-2.5e-07 1.54697e-14 0)
(-2.5e-07 -3.66403e-15 0)
(-2.5e-07 8.69192e-16 0)
(-2.5e-07 -2.05646e-16 0)
(-2.5e-07 4.88986e-17 0)
(-2.5e-07 -1.14719e-17 0)
(-2.5e-07 2.79028e-18 0)
(-2.5e-07 -6.12389e-19 0)
(-2.5e-07 1.77531e-19 0)
(-2.5e-07 -1.95301e-20 0)
(-2.5e-07 2.05429e-20 0)
(-2.5e-07 6.69181e-21 0)
(-2.5e-07 6.94318e-21 0)
(-2.5e-07 4.6659e-21 0)
(-2.5e-07 3.58351e-21 0)
(-2.5e-07 2.64926e-21 0)
(-2.5e-07 2.0398e-21 0)
(-2.5e-07 1.55207e-21 0)
(-2.5e-07 8.23675e-22 0)
(-2.5e-07 -2.03182e-23 0)
(-2.5e-07 -1.54609e-14 0)
(-2.5e-07 3.65881e-15 0)
(-2.5e-07 -8.67321e-16 0)
(-2.5e-07 2.05407e-16 0)
(-2.5e-07 -4.85051e-17 0)
(-2.5e-07 1.15795e-17 0)
(-2.5e-07 -2.66919e-18 0)
(-2.5e-07 6.80783e-19 0)
(-2.5e-07 -1.25465e-19 0)
(-2.5e-07 5.53067e-20 0)
(-2.5e-07 5.77181e-21 0)
(-2.5e-07 1.26551e-20 0)
(-2.5e-07 7.60034e-21 0)
(-2.5e-07 6.16871e-21 0)
(-2.5e-07 4.50825e-21 0)
(-2.5e-07 3.42984e-21 0)
(-2.5e-07 2.65315e-21 0)
(-2.5e-07 2.07052e-21 0)
(-2.5e-07 1.07715e-21 0)
(-2.5e-07 -2.31505e-23 0)
(-2.5e-07 1.54544e-14 0)
(-2.5e-07 -3.65573e-15 0)
(-2.5e-07 8.66778e-16 0)
(-2.5e-07 -2.04976e-16 0)
(-2.5e-07 4.86017e-17 0)
(-2.5e-07 -1.1437e-17 0)
(-2.5e-07 2.76042e-18 0)
(-2.5e-07 -6.08928e-19 0)
(-2.5e-07 1.77755e-19 0)
(-2.5e-07 -1.61791e-20 0)
(-2.5e-07 2.3504e-20 0)
(-2.5e-07 9.52692e-21 0)
(-2.5e-07 9.36465e-21 0)
(-2.5e-07 6.69931e-21 0)
(-2.5e-07 5.21275e-21 0)
(-2.5e-07 3.93263e-21 0)
(-2.5e-07 3.07401e-21 0)
(-2.5e-07 2.42807e-21 0)
(-2.5e-07 1.3091e-21 0)
(-2.5e-07 -5.87583e-24 0)
(-2.5e-07 -1.54544e-14 0)
(-2.5e-07 3.65532e-15 0)
(-2.5e-07 -8.66548e-16 0)
(-2.5e-07 2.05022e-16 0)
(-2.5e-07 -4.84751e-17 0)
(-2.5e-07 1.15265e-17 0)
(-2.5e-07 -2.68029e-18 0)
(-2.5e-07 6.71037e-19 0)
(-2.5e-07 -1.28542e-19 0)
(-2.5e-07 5.43194e-20 0)
(-2.5e-07 6.16138e-21 0)
(-2.5e-07 1.3536e-20 0)
(-2.5e-07 8.63529e-21 0)
(-2.5e-07 7.22123e-21 0)
(-2.5e-07 5.47374e-21 0)
(-2.5e-07 4.2269e-21 0)
(-2.5e-07 3.30613e-21 0)
(-2.5e-07 2.64818e-21 0)
(-2.5e-07 1.44308e-21 0)
(-2.5e-07 -4.68218e-23 0)
(-2.5e-07 1.54598e-14 0)
(-2.5e-07 -3.65721e-15 0)
(-2.5e-07 8.67064e-16 0)
(-2.5e-07 -2.05097e-16 0)
(-2.5e-07 4.85892e-17 0)
(-2.5e-07 -1.14689e-17 0)
(-2.5e-07 2.74517e-18 0)
(-2.5e-07 -6.19891e-19 0)
(-2.5e-07 1.71899e-19 0)
(-2.5e-07 -1.95008e-20 0)
(-2.5e-07 2.19194e-20 0)
(-2.5e-07 8.86971e-21 0)
(-2.5e-07 9.26175e-21 0)
(-2.5e-07 6.88005e-21 0)
(-2.5e-07 5.49671e-21 0)
(-2.5e-07 4.24771e-21 0)
(-2.5e-07 3.42423e-21 0)
(-2.5e-07 2.78343e-21 0)
(-2.5e-07 1.49434e-21 0)
(-2.5e-07 -1.06945e-22 0)
(-2.5e-07 -1.5472e-14 0)
(-2.5e-07 3.66107e-15 0)
(-2.5e-07 -8.67986e-16 0)
(-2.5e-07 2.05406e-16 0)
(-2.5e-07 -4.86176e-17 0)
(-2.5e-07 1.15376e-17 0)
(-2.5e-07 -2.70426e-18 0)
(-2.5e-07 6.63151e-19 0)
(-2.5e-07 -1.36234e-19 0)
(-2.5e-07 5.00561e-20 0)
(-2.5e-07 3.30757e-21 0)
(-2.5e-07 1.18413e-20 0)
(-2.5e-07 7.60828e-21 0)
(-2.5e-07 6.64327e-21 0)
(-2.5e-07 5.18132e-21 0)
(-2.5e-07 4.12451e-21 0)
(-2.5e-07 3.37906e-21 0)
(-2.5e-07 2.79994e-21 0)
(-2.5e-07 1.49245e-21 0)
(-2.5e-07 -1.42695e-22 0)
(-2.5e-07 1.54895e-14 0)
(-2.5e-07 -3.66682e-15 0)
(-2.5e-07 8.69392e-16 0)
(-2.5e-07 -2.05805e-16 0)
(-2.5e-07 4.87619e-17 0)
(-2.5e-07 -1.15343e-17 0)
(-2.5e-07 2.74757e-18 0)
(-2.5e-07 -6.33138e-19 0)
(-2.5e-07 1.66097e-19 0)
(-2.5e-07 -2.46965e-20 0)
(-2.5e-07 1.85863e-20 0)
(-2.5e-07 6.53115e-21 0)
(-2.5e-07 7.67926e-21 0)
(-2.5e-07 5.7882e-21 0)
(-2.5e-07 4.77768e-21 0)
(-2.5e-07 3.78782e-21 0)
(-2.5e-07 3.19088e-21 0)
(-2.5e-07 2.71383e-21 0)
(-2.5e-07 1.43151e-21 0)
(-2.5e-07 -2.14981e-22 0)
(-2.5e-07 -1.55125e-14 0)
(-2.5e-07 3.67402e-15 0)
(-2.5e-07 -8.71141e-16 0)
(-2.5e-07 2.06328e-16 0)
(-2.5e-07 -4.88808e-17 0)
(-2.5e-07 1.15939e-17 0)
(-2.5e-07 -2.73294e-18 0)
(-2.5e-07 6.60369e-19 0)
(-2.5e-07 -1.4395e-19 0)
(-2.5e-07 4.56214e-20 0)
(-2.5e-07 -4.4159e-22 0)
(-2.5e-07 9.2066e-21 0)
(-2.5e-07 5.70451e-21 0)
(-2.5e-07 5.2891e-21 0)
(-2.5e-07 4.21112e-21 0)
(-2.5e-07 3.40844e-21 0)
(-2.5e-07 2.8917e-21 0)
(-2.5e-07 2.53616e-21 0)
(-2.5e-07 1.31377e-21 0)
(-2.5e-07 -2.85687e-22 0)
(-2.5e-07 1.55396e-14 0)
(-2.5e-07 -3.68252e-15 0)
(-2.5e-07 8.732e-16 0)
(-2.5e-07 -2.06928e-16 0)
(-2.5e-07 4.90546e-17 0)
(-2.5e-07 -1.16215e-17 0)
(-2.5e-07 2.76252e-18 0)
(-2.5e-07 -6.45733e-19 0)
(-2.5e-07 1.62168e-19 0)
(-2.5e-07 -2.96741e-20 0)
(-2.5e-07 1.51321e-20 0)
(-2.5e-07 3.73169e-21 0)
(-2.5e-07 5.626e-21 0)
(-2.5e-07 4.25912e-21 0)
(-2.5e-07 3.67418e-21 0)
(-2.5e-07 2.96315e-21 0)
(-2.5e-07 2.57379e-21 0)
(-2.5e-07 2.31137e-21 0)
(-2.5e-07 1.19934e-21 0)
(-2.5e-07 -3.16973e-22 0)
(-2.5e-07 -1.55702e-14 0)
(-2.5e-07 3.69192e-15 0)
(-2.5e-07 -8.75479e-16 0)
(-2.5e-07 2.07594e-16 0)
(-2.5e-07 -4.92238e-17 0)
(-2.5e-07 1.16776e-17 0)
(-2.5e-07 -2.76414e-18 0)
(-2.5e-07 6.6144e-19 0)
(-2.5e-07 -1.50662e-19 0)
(-2.5e-07 4.19676e-20 0)
(-2.5e-07 -3.96251e-21 0)
(-2.5e-07 6.57192e-21 0)
(-2.5e-07 3.63492e-21 0)
(-2.5e-07 3.69065e-21 0)
(-2.5e-07 2.96067e-21 0)
(-2.5e-07 2.49334e-21 0)
(-2.5e-07 2.24047e-21 0)
(-2.5e-07 2.07094e-21 0)
(-2.5e-07 1.04827e-21 0)
(-2.5e-07 -3.56331e-22 0)
(-2.5e-07 1.56026e-14 0)
(-2.5e-07 -3.70183e-15 0)
(-2.5e-07 8.77884e-16 0)
(-2.5e-07 -2.08285e-16 0)
(-2.5e-07 4.94112e-17 0)
(-2.5e-07 -1.17211e-17 0)
(-2.5e-07 2.78385e-18 0)
(-2.5e-07 -6.57633e-19 0)
(-2.5e-07 1.59689e-19 0)
(-2.5e-07 -3.3989e-20 0)
(-2.5e-07 1.21426e-20 0)
(-2.5e-07 1.14972e-21 0)
(-2.5e-07 3.59003e-21 0)
(-2.5e-07 2.64112e-21 0)
(-2.5e-07 2.42527e-21 0)
(-2.5e-07 2.06829e-21 0)
(-2.5e-07 1.92242e-21 0)
(-2.5e-07 1.81648e-21 0)
(-2.5e-07 8.5799e-22 0)
(-2.5e-07 -4.08783e-22 0)
(-2.5e-07 -1.56359e-14 0)
(-2.5e-07 3.71199e-15 0)
(-2.5e-07 -8.80341e-16 0)
(-2.5e-07 2.08992e-16 0)
(-2.5e-07 -4.95997e-17 0)
(-2.5e-07 1.17702e-17 0)
(-2.5e-07 -2.79624e-18 0)
(-2.5e-07 6.64089e-19 0)
(-2.5e-07 -1.56634e-19 0)
(-2.5e-07 3.91034e-20 0)
(-2.5e-07 -6.90161e-21 0)
(-2.5e-07 4.28627e-21 0)
(-2.5e-07 1.69315e-21 0)
(-2.5e-07 2.13701e-21 0)
(-2.5e-07 1.78597e-21 0)
(-2.5e-07 1.62654e-21 0)
(-2.5e-07 1.57451e-21 0)
(-2.5e-07 1.55251e-21 0)
(-2.5e-07 7.14958e-22 0)
(-2.5e-07 -4.44812e-22 0)
(-2.5e-07 1.56685e-14 0)
(-2.5e-07 -3.72171e-15 0)
(-2.5e-07 8.82698e-16 0)
(-2.5e-07 -2.09663e-16 0)
(-2.5e-07 4.97684e-17 0)
(-2.5e-07 -1.18217e-17 0)
(-2.5e-07 2.80487e-18 0)
(-2.5e-07 -6.68899e-19 0)
(-2.5e-07 1.57879e-19 0)
(-2.5e-07 -3.74841e-20 0)
(-2.5e-07 9.79336e-21 0)
(-2.5e-07 -9.18151e-22 0)
(-2.5e-07 1.96245e-21 0)
(-2.5e-07 1.30214e-21 0)
(-2.5e-07 1.33592e-21 0)
(-2.5e-07 1.19274e-21 0)
(-2.5e-07 1.24766e-21 0)
(-2.5e-07 1.31728e-21 0)
(-2.5e-07 5.84156e-22 0)
(-2.5e-07 -4.28872e-22 0)
(-2.5e-07 -1.56991e-14 0)
(-2.5e-07 3.73091e-15 0)
(-2.5e-07 -8.84945e-16 0)
(-2.5e-07 2.10279e-16 0)
(-2.5e-07 -4.99535e-17 0)
(-2.5e-07 1.18524e-17 0)
(-2.5e-07 -2.82662e-18 0)
(-2.5e-07 6.66369e-19 0)
(-2.5e-07 -1.61589e-19 0)
(-2.5e-07 3.70368e-20 0)
(-2.5e-07 -9.14124e-21 0)
(-2.5e-07 2.61244e-21 0)
(-2.5e-07 3.17928e-22 0)
(-2.5e-07 1.08376e-21 0)
(-2.5e-07 9.13713e-22 0)
(-2.5e-07 8.96474e-22 0)
(-2.5e-07 9.44897e-22 0)
(-2.5e-07 1.00788e-21 0)
(-2.5e-07 4.50171e-22 0)
(-2.5e-07 -3.83804e-22 0)
(-2.5e-07 1.57264e-14 0)
(-2.5e-07 -3.73884e-15 0)
(-2.5e-07 8.86816e-16 0)
(-2.5e-07 -2.10831e-16 0)
(-2.5e-07 5.00558e-17 0)
(-2.5e-07 -1.19082e-17 0)
(-2.5e-07 2.82025e-18 0)
(-2.5e-07 -6.77951e-19 0)
(-2.5e-07 1.5674e-19 0)
(-2.5e-07 -3.97943e-20 0)
(-2.5e-07 8.32132e-21 0)
(-2.5e-07 -2.23841e-21 0)
(-2.5e-07 8.45958e-22 0)
(-2.5e-07 3.99424e-22 0)
(-2.5e-07 5.90646e-22 0)
(-2.5e-07 5.82346e-22 0)
(-2.5e-07 6.93984e-22 0)
(-2.5e-07 7.9176e-22 0)
(-2.5e-07 3.34226e-22 0)
(-2.5e-07 -3.42397e-22 0)
(-2.5e-07 -1.5749e-14 0)
(-2.5e-07 3.7454e-15 0)
(-2.5e-07 -8.88655e-16 0)
(-2.5e-07 2.11231e-16 0)
(-2.5e-07 -5.02435e-17 0)
(-2.5e-07 1.19174e-17 0)
(-2.5e-07 -2.85037e-18 0)
(-2.5e-07 6.7007e-19 0)
(-2.5e-07 -1.64382e-19 0)
(-2.5e-07 3.65474e-20 0)
(-2.5e-07 -1.00334e-20 0)
(-2.5e-07 1.92336e-21 0)
(-2.5e-07 -4.2249e-22 0)
(-2.5e-07 4.18063e-22 0)
(-2.5e-07 3.27361e-22 0)
(-2.5e-07 4.10887e-22 0)
(-2.5e-07 5.01466e-22 0)
(-2.5e-07 6.01228e-22 0)
(-2.5e-07 2.61532e-22 0)
(-2.5e-07 -2.71307e-22 0)
(-2.5e-07 1.57674e-14 0)
(-2.5e-07 -3.75081e-15 0)
(-2.5e-07 8.89362e-16 0)
(-2.5e-07 -2.11412e-16 0)
(-2.5e-07 5.01812e-17 0)
(-2.5e-07 -1.19273e-17 0)
(-2.5e-07 2.82379e-18 0)
(-2.5e-07 -6.76527e-19 0)
(-2.5e-07 1.57188e-19 0)
(-2.5e-07 -3.92286e-20 0)
(-2.5e-07 8.37658e-21 0)
(-2.5e-07 -2.35698e-21 0)
(-2.5e-07 5.34526e-22 0)
(-2.5e-07 1.98673e-23 0)
(-2.5e-07 2.0888e-22 0)
(-2.5e-07 1.82621e-22 0)
(-2.5e-07 2.73983e-22 0)
(-2.5e-07 3.78276e-22 0)
(-2.5e-07 1.86602e-22 0)
(-2.5e-07 -1.85143e-22 0)
(-2.5e-07 -1.57827e-14 0)
(-2.5e-07 3.76087e-15 0)
(-2.5e-07 -8.92917e-16 0)
(-2.5e-07 2.1265e-16 0)
(-2.5e-07 -5.06665e-17 0)
(-2.5e-07 1.20524e-17 0)
(-2.5e-07 -2.88145e-18 0)
(-2.5e-07 6.85161e-19 0)
(-2.5e-07 -1.64955e-19 0)
(-2.5e-07 3.87914e-20 0)
(-2.5e-07 -9.67041e-21 0)
(-2.5e-07 2.14309e-21 0)
(-2.5e-07 -5.80492e-22 0)
(-2.5e-07 1.1856e-22 0)
(-2.5e-07 -3.63683e-23 0)
(-2.5e-07 2.61202e-23 0)
(-2.5e-07 7.81242e-23 0)
(-2.5e-07 1.41095e-22 0)
(-2.5e-07 8.0383e-23 0)
(-2.5e-07 -7.61578e-23 0)
)
;

boundaryField
{
    movingWall
    {
        type            calculated;
        value           uniform (0 0 0);
    }
    fixedWalls
    {
        type            calculated;
        value           uniform (0 0 0);
    }
    frontAndBack
    {
        type            empty;
    }
}


// ************************************************************************* //
