/*--------------------------------*- C++ -*----------------------------------*\
| =========                 |                                                 |
| \\      /  F ield         | OpenFOAM: The Open Source CFD Toolbox           |
|  \\    /   O peration     | Version:  2506                                  |
|   \\  /    A nd           | Website:  www.openfoam.com                      |
|    \\/     M anipulation  |                                                 |
\*---------------------------------------------------------------------------*/
FoamFile
{
    version     2.0;
    format      ascii;
    arch        "LSB;label=32;scalar=64";
    class       volScalarField;
    location    "4";
    object      norm_k_field;
}
// * * * * * * * * * * * * * * * * * * * * * * * * * * * * * * * * * * * * * //

dimensions      [0 0 0 0 0 0 0];

internalField   nonuniform List<scalar> 
400
(
2.72865e+10
2.72863e+10
2.98497e+06
9.39306e+06
6.31024e+06
8.00952e+06
7.80384e+06
8.12057e+06
8.16064e+06
8.22968e+06
8.25542e+06
8.27344e+06
8.28284e+06
8.28914e+06
8.29284e+06
8.29553e+06
8.29825e+06
8.30133e+06
8.30569e+06
8.30814e+06
2.31689e+06
3.29591e+10
6.01033e+06
1.29596e+07
8.68757e+06
9.9159e+06
9.70026e+06
9.90397e+06
9.92483e+06
9.97187e+06
9.9892e+06
1.00007e+07
1.00059e+07
1.00092e+07
1.00115e+07
1.00132e+07
1.00149e+07
1.00179e+07
1.00221e+07
1.00244e+07
4.00868e+10
1.82021e+06
2.86683e+08
1.04727e+07
1.47757e+07
1.22392e+07
1.24143e+07
1.22154e+07
1.22288e+07
1.22103e+07
1.22081e+07
1.22008e+07
1.21964e+07
1.21926e+07
1.21905e+07
1.21885e+07
1.21885e+07
1.21916e+07
1.21954e+07
1.21972e+07
1.54937e+06
4.56716e+10
8.90068e+06
1.4404e+08
1.27825e+07
1.55216e+07
1.41764e+07
1.42878e+07
1.40856e+07
1.4041e+07
1.39892e+07
1.39605e+07
1.39376e+07
1.39222e+07
1.39126e+07
1.39065e+07
1.39026e+07
1.39037e+07
1.39063e+07
1.39065e+07
4.92268e+10
704705
4.92068e+10
7.61994e+06
2.45981e+07
1.54334e+07
1.63211e+07
1.54792e+07
1.54057e+07
1.52473e+07
1.51742e+07
1.51138e+07
1.50753e+07
1.50466e+07
1.5028e+07
1.50153e+07
1.50079e+07
1.50066e+07
1.50067e+07
1.50065e+07
1.17109e+06
5.12798e+10
1.09038e+07
5.1251e+10
1.31388e+07
1.8931e+07
1.61734e+07
1.65303e+07
1.61254e+07
1.6019e+07
1.58919e+07
1.58176e+07
1.57598e+07
1.57205e+07
1.56927e+07
1.56738e+07
1.56621e+07
1.56577e+07
1.56554e+07
1.5656e+07
5.2444e+10
421813
1.24347e+08
5.37117e+06
3.4597e+07
1.61068e+07
1.81028e+07
1.67416e+07
1.66906e+07
1.6446e+07
1.63366e+07
1.62389e+07
1.61724e+07
1.61238e+07
1.60884e+07
1.60646e+07
1.6049e+07
1.6042e+07
1.60381e+07
1.60373e+07
966370
5.31411e+10
1.26427e+07
5.31101e+10
1.23349e+07
2.05689e+07
1.66377e+07
1.73639e+07
1.68654e+07
1.67609e+07
1.66049e+07
1.6511e+07
1.64346e+07
1.63819e+07
1.63416e+07
1.6314e+07
1.62952e+07
1.62865e+07
1.62814e+07
1.62794e+07
5.36164e+10
317543
4.60325e+07
4.25309e+06
4.34178e+07
1.58685e+07
1.87954e+07
1.71322e+07
1.71711e+07
1.69082e+07
1.68023e+07
1.66961e+07
1.66217e+07
1.65645e+07
1.65236e+07
1.64939e+07
1.64739e+07
1.64617e+07
1.64566e+07
1.64551e+07
879226
5.39952e+10
1.42708e+07
5.39628e+10
1.16031e+07
2.11132e+07
1.65968e+07
1.76285e+07
1.71352e+07
1.70759e+07
1.69297e+07
1.68429e+07
1.67678e+07
1.67123e+07
1.66719e+07
1.66415e+07
1.66216e+07
1.66083e+07
1.66018e+07
1.65993e+07
5.43456e+10
279115
2.73917e+07
3.79209e+06
4.61965e+07
1.54966e+07
1.89153e+07
1.72086e+07
1.73509e+07
1.71238e+07
1.70494e+07
1.69597e+07
1.68961e+07
1.68445e+07
1.68064e+07
1.67772e+07
1.67568e+07
1.67432e+07
1.67369e+07
1.67341e+07
884533
5.47013e+10
1.5511e+07
5.46681e+10
1.12045e+07
2.07934e+07
1.64388e+07
1.76437e+07
1.72307e+07
1.72374e+07
1.71296e+07
1.70705e+07
1.70147e+07
1.6972e+07
1.69366e+07
1.69092e+07
1.68913e+07
1.68784e+07
1.68724e+07
1.68697e+07
5.50869e+10
279266
1.99301e+07
3.77546e+06
4.08923e+07
1.52421e+07
1.86641e+07
1.71654e+07
1.74038e+07
1.72499e+07
1.72246e+07
1.71707e+07
1.71326e+07
1.70992e+07
1.70697e+07
1.70463e+07
1.70301e+07
1.70193e+07
1.70136e+07
1.7012e+07
989553
5.55167e+10
1.59101e+07
5.54826e+10
1.11918e+07
1.9864e+07
1.63073e+07
1.7537e+07
1.72646e+07
1.73444e+07
1.72969e+07
1.72809e+07
1.72537e+07
1.72321e+07
1.72104e+07
1.71932e+07
1.71803e+07
1.71712e+07
1.71655e+07
1.71637e+07
5.60079e+10
319418
1.65502e+07
4.20522e+06
3.22855e+07
1.51881e+07
1.81902e+07
1.71001e+07
1.7411e+07
1.73601e+07
1.73985e+07
1.73925e+07
1.73888e+07
1.73767e+07
1.73651e+07
1.73546e+07
1.73458e+07
1.73386e+07
1.73328e+07
1.73312e+07
1.25845e+06
5.65755e+10
1.53867e+07
5.65402e+10
1.1601e+07
1.86579e+07
1.62763e+07
1.74047e+07
1.7313e+07
1.74677e+07
1.74955e+07
1.75282e+07
1.75405e+07
1.75437e+07
1.75402e+07
1.75357e+07
1.753e+07
1.75277e+07
1.75229e+07
1.7521e+07
5.72305e+10
434820
1.50057e+07
5.3285e+06
2.46781e+07
1.53535e+07
1.76458e+07
1.7094e+07
1.74617e+07
1.75343e+07
1.76354e+07
1.76847e+07
1.77186e+07
1.77343e+07
1.77405e+07
1.77414e+07
1.77403e+07
1.77385e+07
1.77357e+07
1.77339e+07
1.95101e+06
5.79405e+10
1.40086e+07
5.79033e+10
1.23587e+07
1.74511e+07
1.63597e+07
1.73424e+07
1.74534e+07
1.76803e+07
1.77828e+07
1.78658e+07
1.79141e+07
1.79422e+07
1.79559e+07
1.79626e+07
1.79651e+07
1.79667e+07
1.79644e+07
1.7961e+07
5.85905e+10
823504
1.15202e+07
7.91978e+06
1.81407e+07
1.57387e+07
1.70825e+07
1.72025e+07
1.75827e+07
1.77793e+07
1.79329e+07
1.80305e+07
1.80947e+07
1.81347e+07
1.81542e+07
1.81647e+07
1.8171e+07
1.81739e+07
1.8172e+07
1.81687e+07
5.62573e+06
5.88474e+10
6.47468e+06
6.02189e+07
1.23816e+07
1.71779e+07
1.6311e+07
1.73533e+07
1.75557e+07
1.78547e+07
1.80085e+07
1.81267e+07
1.8201e+07
1.82482e+07
1.82737e+07
1.82891e+07
1.8297e+07
1.83006e+07
1.83001e+07
1.82967e+07
)
;

boundaryField
{
    movingWall
    {
        type            calculated;
        value           nonuniform List<scalar> 
20
(
5.62573e+06
5.88474e+10
6.47468e+06
6.02189e+07
1.23816e+07
1.71779e+07
1.6311e+07
1.73533e+07
1.75557e+07
1.78547e+07
1.80085e+07
1.81267e+07
1.8201e+07
1.82482e+07
1.82737e+07
1.82891e+07
1.8297e+07
1.83006e+07
1.83001e+07
1.82967e+07
)
;
    }
    fixedWalls
    {
        type            calculated;
        value           nonuniform List<scalar> 
60
(
2.72865e+10
2.31689e+06
4.00868e+10
1.54937e+06
4.92268e+10
1.17109e+06
5.2444e+10
966370
5.36164e+10
879226
5.43456e+10
884533
5.50869e+10
989553
5.60079e+10
1.25845e+06
5.72305e+10
1.95101e+06
5.85905e+10
5.62573e+06
8.30814e+06
1.00244e+07
1.21972e+07
1.39065e+07
1.50065e+07
1.5656e+07
1.60373e+07
1.62794e+07
1.64551e+07
1.65993e+07
1.67341e+07
1.68697e+07
1.7012e+07
1.71637e+07
1.73312e+07
1.7521e+07
1.77339e+07
1.7961e+07
1.81687e+07
1.82967e+07
2.72865e+10
2.72863e+10
2.98497e+06
9.39306e+06
6.31024e+06
8.00952e+06
7.80384e+06
8.12057e+06
8.16064e+06
8.22968e+06
8.25542e+06
8.27344e+06
8.28284e+06
8.28914e+06
8.29284e+06
8.29553e+06
8.29825e+06
8.30133e+06
8.30569e+06
8.30814e+06
)
;
    }
    frontAndBack
    {
        type            empty;
    }
}


// ************************************************************************* //
