/*--------------------------------*- C++ -*----------------------------------*\
| =========                 |                                                 |
| \\      /  F ield         | OpenFOAM: The Open Source CFD Toolbox           |
|  \\    /   O peration     | Version:  2506                                  |
|   \\  /    A nd           | Website:  www.openfoam.com                      |
|    \\/     M anipulation  |                                                 |
\*---------------------------------------------------------------------------*/
FoamFile
{
    version     2.0;
    format      ascii;
    arch        "LSB;label=32;scalar=64";
    class       volVectorField;
    location    "4";
    object      norm_U_composite;
}
// * * * * * * * * * * * * * * * * * * * * * * * * * * * * * * * * * * * * * //

dimensions      [0 0 0 0 0 0 0];

internalField   nonuniform List<vector> 
400
(
(-0.5 3.09788e-08 0)
(-0.5 -7.34783e-09 0)
(-0.5 1.74482e-09 0)
(-0.5 -4.13702e-10 0)
(-0.5 9.83609e-11 0)
(-0.5 -2.32597e-11 0)
(-0.5 5.56912e-12 0)
(-0.5 -1.29447e-12 0)
(-0.5 3.2442e-13 0)
(-0.5 -6.58917e-14 0)
(-0.5 2.31992e-14 0)
(-0.5 -2.23704e-16 0)
(-0.5 3.86686e-15 0)
(-0.5 1.90472e-15 0)
(-0.5 1.65562e-15 0)
(-0.5 1.1761e-15 0)
(-0.5 8.82851e-16 0)
(-0.5 6.40065e-16 0)
(-0.5 3.66863e-16 0)
(-0.5 -3.10309e-17 0)
(-0.5 -3.09703e-08 0)
(-0.5 7.34452e-09 0)
(-0.5 -1.73962e-09 0)
(-0.5 4.13042e-10 0)
(-0.5 -9.73949e-11 0)
(-0.5 2.32746e-11 0)
(-0.5 -5.38355e-12 0)
(-0.5 1.34559e-12 0)
(-0.5 -2.70997e-13 0)
(-0.5 9.50329e-14 0)
(-0.5 -9.48194e-16 0)
(-0.5 1.53837e-14 0)
(-0.5 7.39258e-15 0)
(-0.5 6.36072e-15 0)
(-0.5 4.51251e-15 0)
(-0.5 3.37151e-15 0)
(-0.5 2.56481e-15 0)
(-0.5 1.98203e-15 0)
(-0.5 1.04127e-15 0)
(-0.5 -2.89605e-17 0)
(-0.5 3.09395e-08 0)
(-0.5 -7.32807e-09 0)
(-0.5 1.73838e-09 0)
(-0.5 -4.11291e-10 0)
(-0.5 9.77972e-11 0)
(-0.5 -2.29437e-11 0)
(-0.5 5.58057e-12 0)
(-0.5 -1.22478e-12 0)
(-0.5 3.55062e-13 0)
(-0.5 -3.90601e-14 0)
(-0.5 4.10858e-14 0)
(-0.5 1.33836e-14 0)
(-0.5 1.38864e-14 0)
(-0.5 9.33181e-15 0)
(-0.5 7.16701e-15 0)
(-0.5 5.29851e-15 0)
(-0.5 4.0796e-15 0)
(-0.5 3.10414e-15 0)
(-0.5 1.64735e-15 0)
(-0.5 -4.06363e-17 0)
(-0.5 -3.09219e-08 0)
(-0.5 7.31762e-09 0)
(-0.5 -1.73464e-09 0)
(-0.5 4.10814e-10 0)
(-0.5 -9.70101e-11 0)
(-0.5 2.31589e-11 0)
(-0.5 -5.33838e-12 0)
(-0.5 1.36157e-12 0)
(-0.5 -2.5093e-13 0)
(-0.5 1.10613e-13 0)
(-0.5 1.15436e-14 0)
(-0.5 2.53102e-14 0)
(-0.5 1.52007e-14 0)
(-0.5 1.23374e-14 0)
(-0.5 9.01651e-15 0)
(-0.5 6.85968e-15 0)
(-0.5 5.30631e-15 0)
(-0.5 4.14105e-15 0)
(-0.5 2.15429e-15 0)
(-0.5 -4.63009e-17 0)
(-0.5 3.09087e-08 0)
(-0.5 -7.31145e-09 0)
(-0.5 1.73356e-09 0)
(-0.5 -4.09952e-10 0)
(-0.5 9.72035e-11 0)
(-0.5 -2.2874e-11 0)
(-0.5 5.52083e-12 0)
(-0.5 -1.21786e-12 0)
(-0.5 3.55511e-13 0)
(-0.5 -3.23582e-14 0)
(-0.5 4.70081e-14 0)
(-0.5 1.90538e-14 0)
(-0.5 1.87293e-14 0)
(-0.5 1.33986e-14 0)
(-0.5 1.04255e-14 0)
(-0.5 7.86525e-15 0)
(-0.5 6.14802e-15 0)
(-0.5 4.85615e-15 0)
(-0.5 2.6182e-15 0)
(-0.5 -1.17517e-17 0)
(-0.5 -3.09089e-08 0)
(-0.5 7.31064e-09 0)
(-0.5 -1.7331e-09 0)
(-0.5 4.10044e-10 0)
(-0.5 -9.69501e-11 0)
(-0.5 2.30531e-11 0)
(-0.5 -5.36059e-12 0)
(-0.5 1.34207e-12 0)
(-0.5 -2.57084e-13 0)
(-0.5 1.08639e-13 0)
(-0.5 1.23228e-14 0)
(-0.5 2.70721e-14 0)
(-0.5 1.72706e-14 0)
(-0.5 1.44425e-14 0)
(-0.5 1.09475e-14 0)
(-0.5 8.45379e-15 0)
(-0.5 6.61227e-15 0)
(-0.5 5.29637e-15 0)
(-0.5 2.88615e-15 0)
(-0.5 -9.36435e-17 0)
(-0.5 3.09196e-08 0)
(-0.5 -7.31441e-09 0)
(-0.5 1.73413e-09 0)
(-0.5 -4.10194e-10 0)
(-0.5 9.71785e-11 0)
(-0.5 -2.29378e-11 0)
(-0.5 5.49035e-12 0)
(-0.5 -1.23978e-12 0)
(-0.5 3.43797e-13 0)
(-0.5 -3.90016e-14 0)
(-0.5 4.38389e-14 0)
(-0.5 1.77394e-14 0)
(-0.5 1.85235e-14 0)
(-0.5 1.37601e-14 0)
(-0.5 1.09934e-14 0)
(-0.5 8.49541e-15 0)
(-0.5 6.84846e-15 0)
(-0.5 5.56686e-15 0)
(-0.5 2.98867e-15 0)
(-0.5 -2.13891e-16 0)
(-0.5 -3.09439e-08 0)
(-0.5 7.32215e-09 0)
(-0.5 -1.73597e-09 0)
(-0.5 4.10813e-10 0)
(-0.5 -9.72352e-11 0)
(-0.5 2.30751e-11 0)
(-0.5 -5.40852e-12 0)
(-0.5 1.3263e-12 0)
(-0.5 -2.72468e-13 0)
(-0.5 1.00112e-13 0)
(-0.5 6.61515e-15 0)
(-0.5 2.36826e-14 0)
(-0.5 1.52166e-14 0)
(-0.5 1.32865e-14 0)
(-0.5 1.03626e-14 0)
(-0.5 8.24901e-15 0)
(-0.5 6.75813e-15 0)
(-0.5 5.59989e-15 0)
(-0.5 2.98489e-15 0)
(-0.5 -2.8539e-16 0)
(-0.5 3.0979e-08 0)
(-0.5 -7.33364e-09 0)
(-0.5 1.73878e-09 0)
(-0.5 -4.11611e-10 0)
(-0.5 9.75238e-11 0)
(-0.5 -2.30686e-11 0)
(-0.5 5.49513e-12 0)
(-0.5 -1.26628e-12 0)
(-0.5 3.32195e-13 0)
(-0.5 -4.9393e-14 0)
(-0.5 3.71726e-14 0)
(-0.5 1.30623e-14 0)
(-0.5 1.53585e-14 0)
(-0.5 1.15764e-14 0)
(-0.5 9.55536e-15 0)
(-0.5 7.57564e-15 0)
(-0.5 6.38175e-15 0)
(-0.5 5.42767e-15 0)
(-0.5 2.86302e-15 0)
(-0.5 -4.29963e-16 0)
(-0.5 -3.1025e-08 0)
(-0.5 7.34804e-09 0)
(-0.5 -1.74228e-09 0)
(-0.5 4.12656e-10 0)
(-0.5 -9.77616e-11 0)
(-0.5 2.31879e-11 0)
(-0.5 -5.46589e-12 0)
(-0.5 1.32074e-12 0)
(-0.5 -2.87901e-13 0)
(-0.5 9.12428e-14 0)
(-0.5 -8.83181e-16 0)
(-0.5 1.84132e-14 0)
(-0.5 1.1409e-14 0)
(-0.5 1.05782e-14 0)
(-0.5 8.42223e-15 0)
(-0.5 6.81688e-15 0)
(-0.5 5.78341e-15 0)
(-0.5 5.07231e-15 0)
(-0.5 2.62754e-15 0)
(-0.5 -5.71374e-16 0)
(-0.5 3.10792e-08 0)
(-0.5 -7.36503e-09 0)
(-0.5 1.7464e-09 0)
(-0.5 -4.13856e-10 0)
(-0.5 9.81092e-11 0)
(-0.5 -2.32429e-11 0)
(-0.5 5.52504e-12 0)
(-0.5 -1.29147e-12 0)
(-0.5 3.24337e-13 0)
(-0.5 -5.93481e-14 0)
(-0.5 3.02642e-14 0)
(-0.5 7.46339e-15 0)
(-0.5 1.1252e-14 0)
(-0.5 8.51824e-15 0)
(-0.5 7.34836e-15 0)
(-0.5 5.92631e-15 0)
(-0.5 5.14759e-15 0)
(-0.5 4.62274e-15 0)
(-0.5 2.39868e-15 0)
(-0.5 -6.33946e-16 0)
(-0.5 -3.11403e-08 0)
(-0.5 7.38385e-09 0)
(-0.5 -1.75096e-09 0)
(-0.5 4.15189e-10 0)
(-0.5 -9.84477e-11 0)
(-0.5 2.33552e-11 0)
(-0.5 -5.52828e-12 0)
(-0.5 1.32288e-12 0)
(-0.5 -3.01324e-13 0)
(-0.5 8.39353e-14 0)
(-0.5 -7.92503e-15 0)
(-0.5 1.31438e-14 0)
(-0.5 7.26984e-15 0)
(-0.5 7.38131e-15 0)
(-0.5 5.92133e-15 0)
(-0.5 4.98668e-15 0)
(-0.5 4.48093e-15 0)
(-0.5 4.14187e-15 0)
(-0.5 2.09654e-15 0)
(-0.5 -7.12662e-16 0)
(-0.5 3.12052e-08 0)
(-0.5 -7.40367e-09 0)
(-0.5 1.75577e-09 0)
(-0.5 -4.1657e-10 0)
(-0.5 9.88223e-11 0)
(-0.5 -2.34422e-11 0)
(-0.5 5.56769e-12 0)
(-0.5 -1.31527e-12 0)
(-0.5 3.19378e-13 0)
(-0.5 -6.7978e-14 0)
(-0.5 2.42852e-14 0)
(-0.5 2.29944e-15 0)
(-0.5 7.18007e-15 0)
(-0.5 5.28224e-15 0)
(-0.5 4.85054e-15 0)
(-0.5 4.13658e-15 0)
(-0.5 3.84484e-15 0)
(-0.5 3.63297e-15 0)
(-0.5 1.71598e-15 0)
(-0.5 -8.17566e-16 0)
(-0.5 -3.12719e-08 0)
(-0.5 7.42398e-09 0)
(-0.5 -1.76068e-09 0)
(-0.5 4.17984e-10 0)
(-0.5 -9.91994e-11 0)
(-0.5 2.35403e-11 0)
(-0.5 -5.59248e-12 0)
(-0.5 1.32818e-12 0)
(-0.5 -3.13268e-13 0)
(-0.5 7.82069e-14 0)
(-0.5 -1.38032e-14 0)
(-0.5 8.57254e-15 0)
(-0.5 3.3863e-15 0)
(-0.5 4.27403e-15 0)
(-0.5 3.57194e-15 0)
(-0.5 3.25309e-15 0)
(-0.5 3.14902e-15 0)
(-0.5 3.10502e-15 0)
(-0.5 1.42992e-15 0)
(-0.5 -8.89624e-16 0)
(-0.5 3.1337e-08 0)
(-0.5 -7.44342e-09 0)
(-0.5 1.7654e-09 0)
(-0.5 -4.19325e-10 0)
(-0.5 9.95368e-11 0)
(-0.5 -2.36435e-11 0)
(-0.5 5.60975e-12 0)
(-0.5 -1.3378e-12 0)
(-0.5 3.15758e-13 0)
(-0.5 -7.49682e-14 0)
(-0.5 1.95867e-14 0)
(-0.5 -1.8363e-15 0)
(-0.5 3.9249e-15 0)
(-0.5 2.60429e-15 0)
(-0.5 2.67185e-15 0)
(-0.5 2.38549e-15 0)
(-0.5 2.49532e-15 0)
(-0.5 2.63456e-15 0)
(-0.5 1.16831e-15 0)
(-0.5 -8.57743e-16 0)
(-0.5 -3.13982e-08 0)
(-0.5 7.46182e-09 0)
(-0.5 -1.76989e-09 0)
(-0.5 4.20558e-10 0)
(-0.5 -9.9907e-11 0)
(-0.5 2.37047e-11 0)
(-0.5 -5.65324e-12 0)
(-0.5 1.33274e-12 0)
(-0.5 -3.23179e-13 0)
(-0.5 7.40737e-14 0)
(-0.5 -1.82825e-14 0)
(-0.5 5.22488e-15 0)
(-0.5 6.35856e-16 0)
(-0.5 2.16751e-15 0)
(-0.5 1.82743e-15 0)
(-0.5 1.79295e-15 0)
(-0.5 1.88979e-15 0)
(-0.5 2.01576e-15 0)
(-0.5 9.00343e-16 0)
(-0.5 -7.67608e-16 0)
(-0.5 3.14528e-08 0)
(-0.5 -7.47767e-09 0)
(-0.5 1.77363e-09 0)
(-0.5 -4.21662e-10 0)
(-0.5 1.00112e-10 0)
(-0.5 -2.38164e-11 0)
(-0.5 5.64051e-12 0)
(-0.5 -1.3559e-12 0)
(-0.5 3.13479e-13 0)
(-0.5 -7.95885e-14 0)
(-0.5 1.66426e-14 0)
(-0.5 -4.47682e-15 0)
(-0.5 1.69192e-15 0)
(-0.5 7.98848e-16 0)
(-0.5 1.18129e-15 0)
(-0.5 1.16469e-15 0)
(-0.5 1.38797e-15 0)
(-0.5 1.58352e-15 0)
(-0.5 6.68452e-16 0)
(-0.5 -6.84793e-16 0)
(-0.5 -3.14979e-08 0)
(-0.5 7.4908e-09 0)
(-0.5 -1.77731e-09 0)
(-0.5 4.22462e-10 0)
(-0.5 -1.00487e-10 0)
(-0.5 2.38349e-11 0)
(-0.5 -5.70074e-12 0)
(-0.5 1.34014e-12 0)
(-0.5 -3.28765e-13 0)
(-0.5 7.30949e-14 0)
(-0.5 -2.00668e-14 0)
(-0.5 3.84672e-15 0)
(-0.5 -8.44981e-16 0)
(-0.5 8.36125e-16 0)
(-0.5 6.54723e-16 0)
(-0.5 8.21774e-16 0)
(-0.5 1.00293e-15 0)
(-0.5 1.20246e-15 0)
(-0.5 5.23063e-16 0)
(-0.5 -5.42614e-16 0)
(-0.5 3.15349e-08 0)
(-0.5 -7.50163e-09 0)
(-0.5 1.77872e-09 0)
(-0.5 -4.22824e-10 0)
(-0.5 1.00362e-10 0)
(-0.5 -2.38547e-11 0)
(-0.5 5.64758e-12 0)
(-0.5 -1.35305e-12 0)
(-0.5 3.14377e-13 0)
(-0.5 -7.84573e-14 0)
(-0.5 1.67532e-14 0)
(-0.5 -4.71396e-15 0)
(-0.5 1.06905e-15 0)
(-0.5 3.97346e-17 0)
(-0.5 4.1776e-16 0)
(-0.5 3.65243e-16 0)
(-0.5 5.47967e-16 0)
(-0.5 7.56553e-16 0)
(-0.5 3.73204e-16 0)
(-0.5 -3.70286e-16 0)
(-0.5 -3.15655e-08 0)
(-0.5 7.52173e-09 0)
(-0.5 -1.78583e-09 0)
(-0.5 4.25301e-10 0)
(-0.5 -1.01333e-10 0)
(-0.5 2.41047e-11 0)
(-0.5 -5.7629e-12 0)
(-0.5 1.37032e-12 0)
(-0.5 -3.29911e-13 0)
(-0.5 7.75828e-14 0)
(-0.5 -1.93408e-14 0)
(-0.5 4.28619e-15 0)
(-0.5 -1.16098e-15 0)
(-0.5 2.37119e-16 0)
(-0.5 -7.27365e-17 0)
(-0.5 5.22405e-17 0)
(-0.5 1.56248e-16 0)
(-0.5 2.82189e-16 0)
(-0.5 1.60766e-16 0)
(-0.5 -1.52316e-16 0)
)
;

boundaryField
{
    movingWall
    {
        type            calculated;
        value           uniform (-0.5 -0 -0);
    }
    fixedWalls
    {
        type            calculated;
        value           uniform (-0.5 -0 -0);
    }
    frontAndBack
    {
        type            empty;
    }
}


// ************************************************************************* //
