/*--------------------------------*- C++ -*----------------------------------*\
| =========                 |                                                 |
| \\      /  F ield         | OpenFOAM: The Open Source CFD Toolbox           |
|  \\    /   O peration     | Version:  2506                                  |
|   \\  /    A nd           | Website:  www.openfoam.com                      |
|    \\/     M anipulation  |                                                 |
\*---------------------------------------------------------------------------*/
FoamFile
{
    version     2.0;
    format      ascii;
    arch        "LSB;label=32;scalar=64";
    class       volVectorField;
    location    "4";
    object      norm_U_L1;
}
// * * * * * * * * * * * * * * * * * * * * * * * * * * * * * * * * * * * * * //

dimensions      [0 0 0 0 0 0 0];

internalField   nonuniform List<vector> 
400
(
(-0.0025 1.54894e-10 0)
(-0.0025 -3.67392e-11 0)
(-0.0025 8.72408e-12 0)
(-0.0025 -2.06851e-12 0)
(-0.0025 4.91805e-13 0)
(-0.0025 -1.16298e-13 0)
(-0.0025 2.78456e-14 0)
(-0.0025 -6.47237e-15 0)
(-0.0025 1.6221e-15 0)
(-0.0025 -3.29459e-16 0)
(-0.0025 1.15996e-16 0)
(-0.0025 -1.11852e-18 0)
(-0.0025 1.93343e-17 0)
(-0.0025 9.5236e-18 0)
(-0.0025 8.27812e-18 0)
(-0.0025 5.88051e-18 0)
(-0.0025 4.41426e-18 0)
(-0.0025 3.20032e-18 0)
(-0.0025 1.83432e-18 0)
(-0.0025 -1.55155e-19 0)
(-0.0025 -1.54851e-10 0)
(-0.0025 3.67226e-11 0)
(-0.0025 -8.69809e-12 0)
(-0.0025 2.06521e-12 0)
(-0.0025 -4.86974e-13 0)
(-0.0025 1.16373e-13 0)
(-0.0025 -2.69178e-14 0)
(-0.0025 6.72794e-15 0)
(-0.0025 -1.35499e-15 0)
(-0.0025 4.75164e-16 0)
(-0.0025 -4.74097e-18 0)
(-0.0025 7.69183e-17 0)
(-0.0025 3.69629e-17 0)
(-0.0025 3.18036e-17 0)
(-0.0025 2.25626e-17 0)
(-0.0025 1.68575e-17 0)
(-0.0025 1.28241e-17 0)
(-0.0025 9.91014e-18 0)
(-0.0025 5.20635e-18 0)
(-0.0025 -1.44802e-19 0)
(-0.0025 1.54697e-10 0)
(-0.0025 -3.66403e-11 0)
(-0.0025 8.69192e-12 0)
(-0.0025 -2.05646e-12 0)
(-0.0025 4.88986e-13 0)
(-0.0025 -1.14719e-13 0)
(-0.0025 2.79028e-14 0)
(-0.0025 -6.12389e-15 0)
(-0.0025 1.77531e-15 0)
(-0.0025 -1.95301e-16 0)
(-0.0025 2.05429e-16 0)
(-0.0025 6.69181e-17 0)
(-0.0025 6.94318e-17 0)
(-0.0025 4.6659e-17 0)
(-0.0025 3.58351e-17 0)
(-0.0025 2.64926e-17 0)
(-0.0025 2.0398e-17 0)
(-0.0025 1.55207e-17 0)
(-0.0025 8.23675e-18 0)
(-0.0025 -2.03182e-19 0)
(-0.0025 -1.54609e-10 0)
(-0.0025 3.65881e-11 0)
(-0.0025 -8.67321e-12 0)
(-0.0025 2.05407e-12 0)
(-0.0025 -4.85051e-13 0)
(-0.0025 1.15795e-13 0)
(-0.0025 -2.66919e-14 0)
(-0.0025 6.80783e-15 0)
(-0.0025 -1.25465e-15 0)
(-0.0025 5.53067e-16 0)
(-0.0025 5.77181e-17 0)
(-0.0025 1.26551e-16 0)
(-0.0025 7.60034e-17 0)
(-0.0025 6.16871e-17 0)
(-0.0025 4.50825e-17 0)
(-0.0025 3.42984e-17 0)
(-0.0025 2.65315e-17 0)
(-0.0025 2.07052e-17 0)
(-0.0025 1.07715e-17 0)
(-0.0025 -2.31505e-19 0)
(-0.0025 1.54544e-10 0)
(-0.0025 -3.65573e-11 0)
(-0.0025 8.66778e-12 0)
(-0.0025 -2.04976e-12 0)
(-0.0025 4.86017e-13 0)
(-0.0025 -1.1437e-13 0)
(-0.0025 2.76042e-14 0)
(-0.0025 -6.08928e-15 0)
(-0.0025 1.77755e-15 0)
(-0.0025 -1.61791e-16 0)
(-0.0025 2.3504e-16 0)
(-0.0025 9.52692e-17 0)
(-0.0025 9.36465e-17 0)
(-0.0025 6.69931e-17 0)
(-0.0025 5.21275e-17 0)
(-0.0025 3.93263e-17 0)
(-0.0025 3.07401e-17 0)
(-0.0025 2.42807e-17 0)
(-0.0025 1.3091e-17 0)
(-0.0025 -5.87583e-20 0)
(-0.0025 -1.54544e-10 0)
(-0.0025 3.65532e-11 0)
(-0.0025 -8.66548e-12 0)
(-0.0025 2.05022e-12 0)
(-0.0025 -4.84751e-13 0)
(-0.0025 1.15265e-13 0)
(-0.0025 -2.68029e-14 0)
(-0.0025 6.71037e-15 0)
(-0.0025 -1.28542e-15 0)
(-0.0025 5.43194e-16 0)
(-0.0025 6.16138e-17 0)
(-0.0025 1.3536e-16 0)
(-0.0025 8.63529e-17 0)
(-0.0025 7.22123e-17 0)
(-0.0025 5.47374e-17 0)
(-0.0025 4.2269e-17 0)
(-0.0025 3.30613e-17 0)
(-0.0025 2.64818e-17 0)
(-0.0025 1.44308e-17 0)
(-0.0025 -4.68218e-19 0)
(-0.0025 1.54598e-10 0)
(-0.0025 -3.65721e-11 0)
(-0.0025 8.67064e-12 0)
(-0.0025 -2.05097e-12 0)
(-0.0025 4.85892e-13 0)
(-0.0025 -1.14689e-13 0)
(-0.0025 2.74517e-14 0)
(-0.0025 -6.19891e-15 0)
(-0.0025 1.71899e-15 0)
(-0.0025 -1.95008e-16 0)
(-0.0025 2.19194e-16 0)
(-0.0025 8.86971e-17 0)
(-0.0025 9.26175e-17 0)
(-0.0025 6.88005e-17 0)
(-0.0025 5.49671e-17 0)
(-0.0025 4.24771e-17 0)
(-0.0025 3.42423e-17 0)
(-0.0025 2.78343e-17 0)
(-0.0025 1.49434e-17 0)
(-0.0025 -1.06945e-18 0)
(-0.0025 -1.5472e-10 0)
(-0.0025 3.66107e-11 0)
(-0.0025 -8.67986e-12 0)
(-0.0025 2.05406e-12 0)
(-0.0025 -4.86176e-13 0)
(-0.0025 1.15376e-13 0)
(-0.0025 -2.70426e-14 0)
(-0.0025 6.63151e-15 0)
(-0.0025 -1.36234e-15 0)
(-0.0025 5.00561e-16 0)
(-0.0025 3.30757e-17 0)
(-0.0025 1.18413e-16 0)
(-0.0025 7.60828e-17 0)
(-0.0025 6.64327e-17 0)
(-0.0025 5.18132e-17 0)
(-0.0025 4.12451e-17 0)
(-0.0025 3.37906e-17 0)
(-0.0025 2.79994e-17 0)
(-0.0025 1.49245e-17 0)
(-0.0025 -1.42695e-18 0)
(-0.0025 1.54895e-10 0)
(-0.0025 -3.66682e-11 0)
(-0.0025 8.69392e-12 0)
(-0.0025 -2.05805e-12 0)
(-0.0025 4.87619e-13 0)
(-0.0025 -1.15343e-13 0)
(-0.0025 2.74757e-14 0)
(-0.0025 -6.33138e-15 0)
(-0.0025 1.66097e-15 0)
(-0.0025 -2.46965e-16 0)
(-0.0025 1.85863e-16 0)
(-0.0025 6.53115e-17 0)
(-0.0025 7.67926e-17 0)
(-0.0025 5.7882e-17 0)
(-0.0025 4.77768e-17 0)
(-0.0025 3.78782e-17 0)
(-0.0025 3.19088e-17 0)
(-0.0025 2.71383e-17 0)
(-0.0025 1.43151e-17 0)
(-0.0025 -2.14981e-18 0)
(-0.0025 -1.55125e-10 0)
(-0.0025 3.67402e-11 0)
(-0.0025 -8.71141e-12 0)
(-0.0025 2.06328e-12 0)
(-0.0025 -4.88808e-13 0)
(-0.0025 1.15939e-13 0)
(-0.0025 -2.73294e-14 0)
(-0.0025 6.60369e-15 0)
(-0.0025 -1.4395e-15 0)
(-0.0025 4.56214e-16 0)
(-0.0025 -4.4159e-18 0)
(-0.0025 9.2066e-17 0)
(-0.0025 5.70451e-17 0)
(-0.0025 5.2891e-17 0)
(-0.0025 4.21112e-17 0)
(-0.0025 3.40844e-17 0)
(-0.0025 2.8917e-17 0)
(-0.0025 2.53616e-17 0)
(-0.0025 1.31377e-17 0)
(-0.0025 -2.85687e-18 0)
(-0.0025 1.55396e-10 0)
(-0.0025 -3.68252e-11 0)
(-0.0025 8.732e-12 0)
(-0.0025 -2.06928e-12 0)
(-0.0025 4.90546e-13 0)
(-0.0025 -1.16215e-13 0)
(-0.0025 2.76252e-14 0)
(-0.0025 -6.45733e-15 0)
(-0.0025 1.62168e-15 0)
(-0.0025 -2.96741e-16 0)
(-0.0025 1.51321e-16 0)
(-0.0025 3.73169e-17 0)
(-0.0025 5.626e-17 0)
(-0.0025 4.25912e-17 0)
(-0.0025 3.67418e-17 0)
(-0.0025 2.96315e-17 0)
(-0.0025 2.57379e-17 0)
(-0.0025 2.31137e-17 0)
(-0.0025 1.19934e-17 0)
(-0.0025 -3.16973e-18 0)
(-0.0025 -1.55702e-10 0)
(-0.0025 3.69192e-11 0)
(-0.0025 -8.75479e-12 0)
(-0.0025 2.07594e-12 0)
(-0.0025 -4.92238e-13 0)
(-0.0025 1.16776e-13 0)
(-0.0025 -2.76414e-14 0)
(-0.0025 6.6144e-15 0)
(-0.0025 -1.50662e-15 0)
(-0.0025 4.19676e-16 0)
(-0.0025 -3.96251e-17 0)
(-0.0025 6.57192e-17 0)
(-0.0025 3.63492e-17 0)
(-0.0025 3.69065e-17 0)
(-0.0025 2.96067e-17 0)
(-0.0025 2.49334e-17 0)
(-0.0025 2.24047e-17 0)
(-0.0025 2.07094e-17 0)
(-0.0025 1.04827e-17 0)
(-0.0025 -3.56331e-18 0)
(-0.0025 1.56026e-10 0)
(-0.0025 -3.70183e-11 0)
(-0.0025 8.77884e-12 0)
(-0.0025 -2.08285e-12 0)
(-0.0025 4.94112e-13 0)
(-0.0025 -1.17211e-13 0)
(-0.0025 2.78385e-14 0)
(-0.0025 -6.57633e-15 0)
(-0.0025 1.59689e-15 0)
(-0.0025 -3.3989e-16 0)
(-0.0025 1.21426e-16 0)
(-0.0025 1.14972e-17 0)
(-0.0025 3.59003e-17 0)
(-0.0025 2.64112e-17 0)
(-0.0025 2.42527e-17 0)
(-0.0025 2.06829e-17 0)
(-0.0025 1.92242e-17 0)
(-0.0025 1.81648e-17 0)
(-0.0025 8.5799e-18 0)
(-0.0025 -4.08783e-18 0)
(-0.0025 -1.56359e-10 0)
(-0.0025 3.71199e-11 0)
(-0.0025 -8.80341e-12 0)
(-0.0025 2.08992e-12 0)
(-0.0025 -4.95997e-13 0)
(-0.0025 1.17702e-13 0)
(-0.0025 -2.79624e-14 0)
(-0.0025 6.64089e-15 0)
(-0.0025 -1.56634e-15 0)
(-0.0025 3.91034e-16 0)
(-0.0025 -6.90161e-17 0)
(-0.0025 4.28627e-17 0)
(-0.0025 1.69315e-17 0)
(-0.0025 2.13701e-17 0)
(-0.0025 1.78597e-17 0)
(-0.0025 1.62654e-17 0)
(-0.0025 1.57451e-17 0)
(-0.0025 1.55251e-17 0)
(-0.0025 7.14958e-18 0)
(-0.0025 -4.44812e-18 0)
(-0.0025 1.56685e-10 0)
(-0.0025 -3.72171e-11 0)
(-0.0025 8.82698e-12 0)
(-0.0025 -2.09663e-12 0)
(-0.0025 4.97684e-13 0)
(-0.0025 -1.18217e-13 0)
(-0.0025 2.80487e-14 0)
(-0.0025 -6.68899e-15 0)
(-0.0025 1.57879e-15 0)
(-0.0025 -3.74841e-16 0)
(-0.0025 9.79336e-17 0)
(-0.0025 -9.18151e-18 0)
(-0.0025 1.96245e-17 0)
(-0.0025 1.30214e-17 0)
(-0.0025 1.33592e-17 0)
(-0.0025 1.19274e-17 0)
(-0.0025 1.24766e-17 0)
(-0.0025 1.31728e-17 0)
(-0.0025 5.84156e-18 0)
(-0.0025 -4.28872e-18 0)
(-0.0025 -1.56991e-10 0)
(-0.0025 3.73091e-11 0)
(-0.0025 -8.84945e-12 0)
(-0.0025 2.10279e-12 0)
(-0.0025 -4.99535e-13 0)
(-0.0025 1.18524e-13 0)
(-0.0025 -2.82662e-14 0)
(-0.0025 6.66369e-15 0)
(-0.0025 -1.61589e-15 0)
(-0.0025 3.70368e-16 0)
(-0.0025 -9.14124e-17 0)
(-0.0025 2.61244e-17 0)
(-0.0025 3.17928e-18 0)
(-0.0025 1.08376e-17 0)
(-0.0025 9.13713e-18 0)
(-0.0025 8.96474e-18 0)
(-0.0025 9.44897e-18 0)
(-0.0025 1.00788e-17 0)
(-0.0025 4.50171e-18 0)
(-0.0025 -3.83804e-18 0)
(-0.0025 1.57264e-10 0)
(-0.0025 -3.73884e-11 0)
(-0.0025 8.86816e-12 0)
(-0.0025 -2.10831e-12 0)
(-0.0025 5.00558e-13 0)
(-0.0025 -1.19082e-13 0)
(-0.0025 2.82025e-14 0)
(-0.0025 -6.77951e-15 0)
(-0.0025 1.5674e-15 0)
(-0.0025 -3.97943e-16 0)
(-0.0025 8.32132e-17 0)
(-0.0025 -2.23841e-17 0)
(-0.0025 8.45958e-18 0)
(-0.0025 3.99424e-18 0)
(-0.0025 5.90646e-18 0)
(-0.0025 5.82346e-18 0)
(-0.0025 6.93984e-18 0)
(-0.0025 7.9176e-18 0)
(-0.0025 3.34226e-18 0)
(-0.0025 -3.42397e-18 0)
(-0.0025 -1.5749e-10 0)
(-0.0025 3.7454e-11 0)
(-0.0025 -8.88655e-12 0)
(-0.0025 2.11231e-12 0)
(-0.0025 -5.02435e-13 0)
(-0.0025 1.19174e-13 0)
(-0.0025 -2.85037e-14 0)
(-0.0025 6.7007e-15 0)
(-0.0025 -1.64382e-15 0)
(-0.0025 3.65474e-16 0)
(-0.0025 -1.00334e-16 0)
(-0.0025 1.92336e-17 0)
(-0.0025 -4.2249e-18 0)
(-0.0025 4.18063e-18 0)
(-0.0025 3.27361e-18 0)
(-0.0025 4.10887e-18 0)
(-0.0025 5.01466e-18 0)
(-0.0025 6.01228e-18 0)
(-0.0025 2.61532e-18 0)
(-0.0025 -2.71307e-18 0)
(-0.0025 1.57674e-10 0)
(-0.0025 -3.75081e-11 0)
(-0.0025 8.89362e-12 0)
(-0.0025 -2.11412e-12 0)
(-0.0025 5.01812e-13 0)
(-0.0025 -1.19273e-13 0)
(-0.0025 2.82379e-14 0)
(-0.0025 -6.76527e-15 0)
(-0.0025 1.57188e-15 0)
(-0.0025 -3.92286e-16 0)
(-0.0025 8.37658e-17 0)
(-0.0025 -2.35698e-17 0)
(-0.0025 5.34526e-18 0)
(-0.0025 1.98673e-19 0)
(-0.0025 2.0888e-18 0)
(-0.0025 1.82621e-18 0)
(-0.0025 2.73983e-18 0)
(-0.0025 3.78276e-18 0)
(-0.0025 1.86602e-18 0)
(-0.0025 -1.85143e-18 0)
(-0.0025 -1.57827e-10 0)
(-0.0025 3.76087e-11 0)
(-0.0025 -8.92917e-12 0)
(-0.0025 2.1265e-12 0)
(-0.0025 -5.06665e-13 0)
(-0.0025 1.20524e-13 0)
(-0.0025 -2.88145e-14 0)
(-0.0025 6.85161e-15 0)
(-0.0025 -1.64955e-15 0)
(-0.0025 3.87914e-16 0)
(-0.0025 -9.67041e-17 0)
(-0.0025 2.14309e-17 0)
(-0.0025 -5.80492e-18 0)
(-0.0025 1.1856e-18 0)
(-0.0025 -3.63683e-19 0)
(-0.0025 2.61202e-19 0)
(-0.0025 7.81242e-19 0)
(-0.0025 1.41095e-18 0)
(-0.0025 8.0383e-19 0)
(-0.0025 -7.61578e-19 0)
)
;

boundaryField
{
    movingWall
    {
        type            calculated;
        value           uniform (-0.0025 -0 -0);
    }
    fixedWalls
    {
        type            calculated;
        value           uniform (-0.0025 -0 -0);
    }
    frontAndBack
    {
        type            empty;
    }
}


// ************************************************************************* //
