/*--------------------------------*- C++ -*----------------------------------*\
| =========                 |                                                 |
| \\      /  F ield         | OpenFOAM: The Open Source CFD Toolbox           |
|  \\    /   O peration     | Version:  2506                                  |
|   \\  /    A nd           | Website:  www.openfoam.com                      |
|    \\/     M anipulation  |                                                 |
\*---------------------------------------------------------------------------*/
FoamFile
{
    version     2.0;
    format      ascii;
    arch        "LSB;label=32;scalar=64";
    class       volScalarField;
    location    "4";
    object      nut;
}
// * * * * * * * * * * * * * * * * * * * * * * * * * * * * * * * * * * * * * //

dimensions      [0 2 -1 0 0 0 0];

internalField   nonuniform List<scalar> 
400
(
2.91662e-06
2.91663e-06
2.9166e-06
2.91661e-06
2.91658e-06
2.9166e-06
2.91657e-06
2.91658e-06
2.91657e-06
2.91657e-06
2.91657e-06
2.91656e-06
2.91656e-06
2.91655e-06
2.91656e-06
2.91655e-06
2.91655e-06
2.91655e-06
2.91655e-06
2.91655e-06
3.20154e-06
3.31223e-06
3.30179e-06
3.29749e-06
3.28901e-06
3.28462e-06
3.27635e-06
3.27179e-06
3.26377e-06
3.25905e-06
3.25124e-06
3.2464e-06
3.23877e-06
3.2339e-06
3.22634e-06
3.22145e-06
3.21397e-06
3.20908e-06
3.20533e-06
3.19924e-06
3.52709e-06
3.66483e-06
3.65158e-06
3.64617e-06
3.63545e-06
3.62993e-06
3.61951e-06
3.61383e-06
3.60374e-06
3.5979e-06
3.58813e-06
3.58214e-06
3.57261e-06
3.56666e-06
3.55725e-06
3.55128e-06
3.54204e-06
3.53605e-06
3.53145e-06
3.52399e-06
3.76272e-06
3.92205e-06
3.90676e-06
3.90039e-06
3.88799e-06
3.88155e-06
3.86949e-06
3.86287e-06
3.85121e-06
3.84438e-06
3.8331e-06
3.82619e-06
3.81516e-06
3.80823e-06
3.79739e-06
3.79044e-06
3.77981e-06
3.77284e-06
3.76755e-06
3.75893e-06
3.90539e-06
4.07869e-06
4.06191e-06
4.05508e-06
4.04147e-06
4.03454e-06
4.02129e-06
4.01426e-06
4.00133e-06
3.99418e-06
3.98163e-06
3.97433e-06
3.96214e-06
3.95473e-06
3.94284e-06
3.93538e-06
3.92378e-06
3.91622e-06
3.91047e-06
3.90111e-06
3.98552e-06
4.16685e-06
4.14921e-06
4.14213e-06
4.1278e-06
4.12062e-06
4.10665e-06
4.09938e-06
4.08575e-06
4.07837e-06
4.06511e-06
4.0576e-06
4.04473e-06
4.03707e-06
4.02459e-06
4.01679e-06
4.00466e-06
3.99674e-06
3.99074e-06
3.98095e-06
4.03026e-06
4.2161e-06
4.19791e-06
4.19072e-06
4.17602e-06
4.16863e-06
4.15434e-06
4.14684e-06
4.13292e-06
4.1253e-06
4.11178e-06
4.10402e-06
4.09086e-06
4.08299e-06
4.07021e-06
4.06221e-06
4.04979e-06
4.04168e-06
4.03553e-06
4.0255e-06
4.0568e-06
4.24525e-06
4.22693e-06
4.21953e-06
4.20465e-06
4.19718e-06
4.18262e-06
4.17508e-06
4.16088e-06
4.15324e-06
4.13942e-06
4.13164e-06
4.11822e-06
4.1103e-06
4.09728e-06
4.0892e-06
4.0766e-06
4.06837e-06
4.06213e-06
4.05197e-06
4.07476e-06
4.26497e-06
4.24653e-06
4.23899e-06
4.22404e-06
4.21639e-06
4.20184e-06
4.19406e-06
4.17992e-06
4.17196e-06
4.15829e-06
4.15011e-06
4.13692e-06
4.12854e-06
4.11575e-06
4.10731e-06
4.09479e-06
4.08637e-06
4.08013e-06
4.06986e-06
4.08906e-06
4.2807e-06
4.26205e-06
4.25448e-06
4.23942e-06
4.23169e-06
4.21706e-06
4.20914e-06
4.19501e-06
4.18685e-06
4.17325e-06
4.16484e-06
4.15171e-06
4.14313e-06
4.13036e-06
4.12179e-06
4.10921e-06
4.10071e-06
4.09442e-06
4.08409e-06
4.10217e-06
4.29509e-06
4.27636e-06
4.26872e-06
4.25354e-06
4.24578e-06
4.23098e-06
4.22312e-06
4.20875e-06
4.20069e-06
4.18682e-06
4.17853e-06
4.16515e-06
4.15668e-06
4.14367e-06
4.13514e-06
4.12241e-06
4.11391e-06
4.10756e-06
4.09716e-06
4.11549e-06
4.30971e-06
4.29085e-06
4.28312e-06
4.26791e-06
4.26e-06
4.24522e-06
4.23716e-06
4.22286e-06
4.21456e-06
4.20078e-06
4.19224e-06
4.17893e-06
4.17031e-06
4.15725e-06
4.14869e-06
4.13584e-06
4.1273e-06
4.12089e-06
4.11042e-06
4.12982e-06
4.32546e-06
4.30643e-06
4.29871e-06
4.28326e-06
4.27545e-06
4.2604e-06
4.25247e-06
4.23781e-06
4.22977e-06
4.2155e-06
4.20733e-06
4.19349e-06
4.18518e-06
4.17174e-06
4.16332e-06
4.15026e-06
4.14171e-06
4.13524e-06
4.1247e-06
4.14578e-06
4.34302e-06
4.3237e-06
4.31603e-06
4.30044e-06
4.29255e-06
4.27736e-06
4.2694e-06
4.25458e-06
4.24652e-06
4.2321e-06
4.22391e-06
4.20992e-06
4.20157e-06
4.18802e-06
4.17951e-06
4.16636e-06
4.15773e-06
4.15122e-06
4.14059e-06
4.1639e-06
4.36288e-06
4.34352e-06
4.33563e-06
4.31999e-06
4.31197e-06
4.29672e-06
4.28856e-06
4.27376e-06
4.26546e-06
4.25109e-06
4.24267e-06
4.22868e-06
4.22017e-06
4.20652e-06
4.19793e-06
4.18466e-06
4.17595e-06
4.16938e-06
4.15865e-06
4.18477e-06
4.3858e-06
4.36632e-06
4.35829e-06
4.34247e-06
4.33441e-06
4.31892e-06
4.31077e-06
4.29572e-06
4.28744e-06
4.27278e-06
4.26436e-06
4.25017e-06
4.24158e-06
4.22779e-06
4.21912e-06
4.20573e-06
4.19693e-06
4.19029e-06
4.17946e-06
4.20868e-06
4.41212e-06
4.39222e-06
4.38427e-06
4.36814e-06
4.36004e-06
4.34436e-06
4.33615e-06
4.32084e-06
4.31254e-06
4.29765e-06
4.2892e-06
4.27478e-06
4.26614e-06
4.25219e-06
4.24339e-06
4.22985e-06
4.22093e-06
4.21422e-06
4.20326e-06
4.23446e-06
4.44033e-06
4.42026e-06
4.41211e-06
4.39591e-06
4.38758e-06
4.37187e-06
4.36333e-06
4.34815e-06
4.33935e-06
4.32474e-06
4.31568e-06
4.30158e-06
4.29235e-06
4.27865e-06
4.26942e-06
4.25592e-06
4.24679e-06
4.24003e-06
4.22894e-06
4.25785e-06
4.46105e-06
4.44151e-06
4.43377e-06
4.41794e-06
4.40991e-06
4.39446e-06
4.38625e-06
4.37114e-06
4.36274e-06
4.34805e-06
4.33939e-06
4.32509e-06
4.31622e-06
4.30229e-06
4.29322e-06
4.27962e-06
4.27037e-06
4.26362e-06
4.25243e-06
4.26707e-06
4.26709e-06
4.26704e-06
4.26707e-06
4.26701e-06
4.26706e-06
4.26699e-06
4.26704e-06
4.26698e-06
4.26702e-06
4.26698e-06
4.267e-06
4.26699e-06
4.26699e-06
4.26699e-06
4.26699e-06
4.26699e-06
4.26699e-06
4.26699e-06
4.26699e-06
)
;

boundaryField
{
    movingWall
    {
        type            nutkWallFunction;
        blending        stepwise;
        value           uniform 0;
    }
    fixedWalls
    {
        type            nutkWallFunction;
        blending        stepwise;
        value           uniform 0;
    }
    frontAndBack
    {
        type            empty;
    }
}


// ************************************************************************* //
