/*--------------------------------*- C++ -*----------------------------------*\
| =========                 |                                                 |
| \\      /  F ield         | OpenFOAM: The Open Source CFD Toolbox           |
|  \\    /   O peration     | Version:  2506                                  |
|   \\  /    A nd           | Website:  www.openfoam.com                      |
|    \\/     M anipulation  |                                                 |
\*---------------------------------------------------------------------------*/
FoamFile
{
    version     2.0;
    format      ascii;
    arch        "LSB;label=32;scalar=64";
    class       volScalarField;
    location    "4";
    object      p;
}
// * * * * * * * * * * * * * * * * * * * * * * * * * * * * * * * * * * * * * //

dimensions      [0 2 -2 0 0 0 0];

internalField   nonuniform List<scalar> 
400
(
0
0
9.1402e-12
2.9039e-12
4.32307e-12
3.40565e-12
3.49544e-12
3.35904e-12
3.34254e-12
3.31448e-12
3.30414e-12
3.29692e-12
3.29318e-12
3.29067e-12
3.2892e-12
3.28813e-12
3.28705e-12
3.28583e-12
3.2841e-12
3.28313e-12
1.42246e-11
0
5.48134e-12
2.54133e-12
3.79083e-12
3.32081e-12
3.39418e-12
3.32404e-12
3.31671e-12
3.30075e-12
3.29479e-12
3.2907e-12
3.28886e-12
3.28757e-12
3.28668e-12
3.28596e-12
3.28535e-12
3.28428e-12
3.28287e-12
3.28212e-12
0
2.2022e-11
1.38784e-13
3.82505e-12
2.71025e-12
3.27178e-12
3.22507e-12
3.27722e-12
3.27321e-12
3.27781e-12
3.27812e-12
3.27974e-12
3.28072e-12
3.28151e-12
3.2819e-12
3.2823e-12
3.28219e-12
3.28129e-12
3.28023e-12
3.27972e-12
2.9477e-11
0
5.12844e-12
3.15919e-13
3.56936e-12
2.93891e-12
3.21724e-12
3.19175e-12
3.2371e-12
3.24697e-12
3.25865e-12
3.26499e-12
3.27011e-12
3.27347e-12
3.27554e-12
3.27679e-12
3.27759e-12
3.27725e-12
3.2766e-12
3.27652e-12
0
6.98528e-11
0
6.45573e-12
1.9986e-12
3.1856e-12
3.01158e-12
3.17506e-12
3.1896e-12
3.22243e-12
3.23747e-12
3.25013e-12
3.25807e-12
3.26406e-12
3.26783e-12
3.27047e-12
3.27193e-12
3.27213e-12
3.27205e-12
3.27206e-12
4.37874e-11
0
4.69994e-12
0
3.89857e-12
2.70511e-12
3.1657e-12
3.09699e-12
3.17411e-12
3.1949e-12
3.2199e-12
3.23479e-12
3.24623e-12
3.25416e-12
3.25963e-12
3.26342e-12
3.26569e-12
3.26652e-12
3.26695e-12
3.2668e-12
0
1.24329e-10
4.20565e-13
9.75731e-12
1.51351e-12
3.2517e-12
2.89233e-12
3.12721e-12
3.13609e-12
3.18242e-12
3.2032e-12
3.22221e-12
3.23504e-12
3.24459e-12
3.25143e-12
3.25611e-12
3.2591e-12
3.26045e-12
3.26117e-12
3.26131e-12
5.499e-11
0
4.20047e-12
0
4.30339e-12
2.57994e-12
3.18892e-12
3.05517e-12
3.14479e-12
3.16413e-12
3.19325e-12
3.21119e-12
3.22567e-12
3.23587e-12
3.24352e-12
3.24888e-12
3.25245e-12
3.25411e-12
3.25506e-12
3.25544e-12
0
1.68844e-10
1.16323e-12
1.25979e-11
1.23278e-12
3.37426e-12
2.84793e-12
3.12409e-12
3.11638e-12
3.16446e-12
3.18393e-12
3.20383e-12
3.21784e-12
3.22863e-12
3.23644e-12
3.24202e-12
3.24585e-12
3.24814e-12
3.24909e-12
3.24937e-12
6.14119e-11
0
3.78094e-12
0
4.64832e-12
2.55373e-12
3.24812e-12
3.05754e-12
3.14498e-12
3.15547e-12
3.18231e-12
3.19828e-12
3.21234e-12
3.22264e-12
3.23029e-12
3.23593e-12
3.23971e-12
3.24218e-12
3.24341e-12
3.24387e-12
0
1.94703e-10
1.98212e-12
1.43215e-11
1.17432e-12
3.50221e-12
2.86831e-12
3.15248e-12
3.12595e-12
3.16703e-12
3.18037e-12
3.19684e-12
3.20853e-12
3.21804e-12
3.22512e-12
3.23052e-12
3.23433e-12
3.23684e-12
3.23801e-12
3.23853e-12
6.18418e-11
0
3.52406e-12
0
4.87668e-12
2.6269e-12
3.32221e-12
3.09482e-12
3.1684e-12
3.16671e-12
3.18622e-12
3.19682e-12
3.20703e-12
3.21475e-12
3.22127e-12
3.22628e-12
3.22954e-12
3.23192e-12
3.23301e-12
3.2335e-12
0
1.97253e-10
2.76173e-12
1.45807e-11
1.34487e-12
3.60924e-12
2.94653e-12
3.20347e-12
3.15887e-12
3.18672e-12
3.19083e-12
3.20056e-12
3.20725e-12
3.21329e-12
3.21854e-12
3.22282e-12
3.2257e-12
3.22767e-12
3.22868e-12
3.22897e-12
5.61021e-11
0
3.48676e-12
0
4.95485e-12
2.79082e-12
3.39881e-12
3.16003e-12
3.20916e-12
3.19408e-12
3.20225e-12
3.20496e-12
3.20954e-12
3.21335e-12
3.21709e-12
3.22016e-12
3.2224e-12
3.22403e-12
3.22503e-12
3.22535e-12
0
1.75341e-10
3.38154e-12
1.33093e-11
1.73214e-12
3.68259e-12
3.07384e-12
3.2694e-12
3.2103e-12
3.21934e-12
3.21168e-12
3.21247e-12
3.21274e-12
3.21473e-12
3.21657e-12
3.21837e-12
3.21982e-12
3.22107e-12
3.22209e-12
3.22236e-12
4.49561e-11
0
3.67424e-12
0
4.87119e-12
3.02796e-12
3.4702e-12
3.24474e-12
3.26119e-12
3.23194e-12
3.2262e-12
3.21988e-12
3.21718e-12
3.21636e-12
3.21668e-12
3.21736e-12
3.21823e-12
3.21857e-12
3.21938e-12
3.21972e-12
0
1.31617e-10
3.81106e-12
1.07326e-11
2.31583e-12
3.72237e-12
3.23776e-12
3.3419e-12
3.27071e-12
3.25684e-12
3.23752e-12
3.22824e-12
3.22158e-12
3.21851e-12
3.21707e-12
3.21674e-12
3.21675e-12
3.217e-12
3.21744e-12
3.21774e-12
2.96971e-11
0
4.13309e-12
0
4.68272e-12
3.31543e-12
3.53574e-12
3.33483e-12
3.31291e-12
3.26992e-12
3.25057e-12
3.23501e-12
3.22599e-12
3.22053e-12
3.2179e-12
3.21643e-12
3.21587e-12
3.21546e-12
3.21582e-12
3.21641e-12
0
7.11475e-11
5.0825e-12
7.39243e-12
3.22574e-12
3.71766e-12
3.42418e-12
3.39986e-12
3.32555e-12
3.28842e-12
3.25962e-12
3.24168e-12
3.22973e-12
3.22237e-12
3.21858e-12
3.21656e-12
3.21524e-12
3.21465e-12
3.21493e-12
3.21547e-12
1.04595e-11
0
9.08782e-12
9.76213e-13
4.75174e-12
3.42469e-12
3.60676e-12
3.39004e-12
3.35095e-12
3.2948e-12
3.26665e-12
3.24532e-12
3.23208e-12
3.22371e-12
3.21921e-12
3.21649e-12
3.21511e-12
3.21448e-12
3.21456e-12
3.21515e-12
)
;

boundaryField
{
    movingWall
    {
        type            zeroGradient;
    }
    fixedWalls
    {
        type            zeroGradient;
    }
    frontAndBack
    {
        type            empty;
    }
}


// ************************************************************************* //
