/*--------------------------------*- C++ -*----------------------------------*\
| =========                 |                                                 |
| \\      /  F ield         | OpenFOAM: The Open Source CFD Toolbox           |
|  \\    /   O peration     | Version:  2506                                  |
|   \\  /    A nd           | Website:  www.openfoam.com                      |
|    \\/     M anipulation  |                                                 |
\*---------------------------------------------------------------------------*/
FoamFile
{
    version     2.0;
    format      ascii;
    arch        "LSB;label=32;scalar=64";
    class       volScalarField;
    location    "4";
    object      P_A;
}
// * * * * * * * * * * * * * * * * * * * * * * * * * * * * * * * * * * * * * //

dimensions      [1 -1 -3 0 0 0 0];

internalField   nonuniform List<scalar> 
400
(
1.11252e-29
1.11248e-29
1.11247e-29
1.11242e-29
1.11242e-29
1.11238e-29
1.11238e-29
1.11234e-29
1.11235e-29
1.11232e-29
1.11232e-29
1.11231e-29
1.1123e-29
1.11229e-29
1.11229e-29
1.11228e-29
1.11228e-29
1.11228e-29
1.11228e-29
1.11228e-29
2.37115e-29
2.29188e-29
2.29647e-29
2.29846e-29
2.3026e-29
2.30472e-29
2.3091e-29
2.31133e-29
2.31596e-29
2.31832e-29
2.32316e-29
2.32571e-29
2.33072e-29
2.33353e-29
2.33863e-29
2.34172e-29
2.34692e-29
2.35031e-29
2.35294e-29
2.35738e-29
5.19415e-29
4.99874e-29
5.00971e-29
5.01456e-29
5.02452e-29
5.02964e-29
5.0402e-29
5.04561e-29
5.0568e-29
5.06253e-29
5.07427e-29
5.0804e-29
5.09256e-29
5.09942e-29
5.11177e-29
5.11929e-29
5.13192e-29
5.1401e-29
5.1465e-29
5.15728e-29
8.75707e-29
8.40077e-29
8.42027e-29
8.42863e-29
8.44635e-29
8.45537e-29
8.47421e-29
8.48382e-29
8.50384e-29
8.51403e-29
8.53511e-29
8.54632e-29
8.56811e-29
8.58054e-29
8.60281e-29
8.61649e-29
8.63935e-29
8.65428e-29
8.66587e-29
8.68552e-29
1.18213e-28
1.13185e-28
1.1345e-28
1.13569e-28
1.13811e-28
1.1394e-28
1.14197e-28
1.14338e-28
1.14607e-28
1.14761e-28
1.15045e-28
1.15211e-28
1.15507e-28
1.15688e-28
1.15995e-28
1.16193e-28
1.16511e-28
1.16724e-28
1.16887e-28
1.17164e-28
1.39222e-28
1.33159e-28
1.33472e-28
1.33616e-28
1.33902e-28
1.34059e-28
1.34362e-28
1.34534e-28
1.34853e-28
1.35042e-28
1.35376e-28
1.35581e-28
1.35932e-28
1.36154e-28
1.36521e-28
1.36759e-28
1.37141e-28
1.37398e-28
1.37594e-28
1.37928e-28
1.52307e-28
1.45592e-28
1.4593e-28
1.46093e-28
1.46406e-28
1.46578e-28
1.46913e-28
1.47102e-28
1.47455e-28
1.47661e-28
1.48034e-28
1.48258e-28
1.48647e-28
1.48891e-28
1.49297e-28
1.49562e-28
1.49984e-28
1.50269e-28
1.50485e-28
1.50855e-28
1.60582e-28
1.53447e-28
1.5381e-28
1.53977e-28
1.54311e-28
1.54494e-28
1.54846e-28
1.55049e-28
1.5542e-28
1.55643e-28
1.56032e-28
1.56275e-28
1.56683e-28
1.56946e-28
1.57373e-28
1.57656e-28
1.58104e-28
1.58407e-28
1.58636e-28
1.59029e-28
1.66402e-28
1.58971e-28
1.59351e-28
1.59522e-28
1.59872e-28
1.60057e-28
1.6043e-28
1.60633e-28
1.61027e-28
1.61248e-28
1.61665e-28
1.61902e-28
1.62344e-28
1.62599e-28
1.63061e-28
1.63341e-28
1.63817e-28
1.64127e-28
1.64368e-28
1.64777e-28
1.71167e-28
1.63495e-28
1.63883e-28
1.6406e-28
1.64421e-28
1.6461e-28
1.64996e-28
1.65202e-28
1.65614e-28
1.65834e-28
1.66274e-28
1.6651e-28
1.66973e-28
1.6723e-28
1.67712e-28
1.67997e-28
1.6849e-28
1.68809e-28
1.69059e-28
1.6948e-28
1.7565e-28
1.67751e-28
1.68152e-28
1.68333e-28
1.68703e-28
1.68899e-28
1.69292e-28
1.69509e-28
1.69926e-28
1.7016e-28
1.70603e-28
1.70855e-28
1.71323e-28
1.71596e-28
1.72084e-28
1.72384e-28
1.72887e-28
1.73219e-28
1.73474e-28
1.73908e-28
1.80308e-28
1.72172e-28
1.72584e-28
1.72768e-28
1.73153e-28
1.7335e-28
1.7376e-28
1.73976e-28
1.74412e-28
1.74644e-28
1.7511e-28
1.75359e-28
1.75849e-28
1.76125e-28
1.7663e-28
1.76939e-28
1.77455e-28
1.77798e-28
1.7806e-28
1.78508e-28
1.85442e-28
1.77046e-28
1.77469e-28
1.77662e-28
1.78051e-28
1.78262e-28
1.78676e-28
1.78909e-28
1.79346e-28
1.79602e-28
1.80061e-28
1.80342e-28
1.80823e-28
1.81129e-28
1.81633e-28
1.81964e-28
1.8249e-28
1.82847e-28
1.83116e-28
1.83578e-28
1.91308e-28
1.82615e-28
1.83044e-28
1.8325e-28
1.83651e-28
1.83869e-28
1.84296e-28
1.84538e-28
1.84988e-28
1.85256e-28
1.85728e-28
1.86022e-28
1.86518e-28
1.86836e-28
1.87356e-28
1.87699e-28
1.88243e-28
1.88612e-28
1.88892e-28
1.8937e-28
1.98174e-28
1.89126e-28
1.8958e-28
1.89784e-28
1.90206e-28
1.90428e-28
1.90877e-28
1.91122e-28
1.91597e-28
1.91866e-28
1.92367e-28
1.92663e-28
1.93186e-28
1.93512e-28
1.94055e-28
1.94411e-28
1.94977e-28
1.95361e-28
1.95651e-28
1.96149e-28
2.0635e-28
1.9688e-28
1.97356e-28
1.97567e-28
1.98007e-28
1.98242e-28
1.98705e-28
1.98967e-28
1.99457e-28
1.99745e-28
2.0026e-28
2.00575e-28
2.01119e-28
2.0146e-28
2.02028e-28
2.02401e-28
2.02993e-28
2.03396e-28
2.03699e-28
2.0422e-28
2.16073e-28
2.06103e-28
2.06592e-28
2.06824e-28
2.07278e-28
2.07529e-28
2.08014e-28
2.08292e-28
2.08802e-28
2.0911e-28
2.09648e-28
2.09984e-28
2.10551e-28
2.10914e-28
2.1151e-28
2.11902e-28
2.12526e-28
2.12949e-28
2.13269e-28
2.13817e-28
2.27023e-28
2.16485e-28
2.17004e-28
2.17241e-28
2.17726e-28
2.17982e-28
2.18503e-28
2.18781e-28
2.19339e-28
2.1964e-28
2.20235e-28
2.20559e-28
2.21188e-28
2.2154e-28
2.22198e-28
2.22591e-28
2.23263e-28
2.23704e-28
2.24044e-28
2.24623e-28
2.37386e-28
2.26582e-28
2.27088e-28
2.27335e-28
2.27818e-28
2.28083e-28
2.28601e-28
2.28899e-28
2.29448e-28
2.29779e-28
2.30363e-28
2.30727e-28
2.31343e-28
2.31743e-28
2.32389e-28
2.32828e-28
2.33505e-28
2.33983e-28
2.34332e-28
2.3494e-28
2.41594e-28
2.41582e-28
2.41581e-28
2.41569e-28
2.41572e-28
2.41559e-28
2.41564e-28
2.41552e-28
2.41558e-28
2.41548e-28
2.41552e-28
2.41546e-28
2.41548e-28
2.41546e-28
2.41546e-28
2.41545e-28
2.41545e-28
2.41545e-28
2.41545e-28
2.41545e-28
)
;

boundaryField
{
    movingWall
    {
        type            calculated;
        value           nonuniform List<scalar> 
20
(
2.41594e-28
2.41582e-28
2.41581e-28
2.41569e-28
2.41572e-28
2.41559e-28
2.41564e-28
2.41552e-28
2.41558e-28
2.41548e-28
2.41552e-28
2.41546e-28
2.41548e-28
2.41546e-28
2.41546e-28
2.41545e-28
2.41545e-28
2.41545e-28
2.41545e-28
2.41545e-28
)
;
    }
    fixedWalls
    {
        type            calculated;
        value           nonuniform List<scalar> 
60
(
1.11252e-29
2.37115e-29
5.19415e-29
8.75707e-29
1.18213e-28
1.39222e-28
1.52307e-28
1.60582e-28
1.66402e-28
1.71167e-28
1.7565e-28
1.80308e-28
1.85442e-28
1.91308e-28
1.98174e-28
2.0635e-28
2.16073e-28
2.27023e-28
2.37386e-28
2.41594e-28
1.11228e-29
2.35738e-29
5.15728e-29
8.68552e-29
1.17164e-28
1.37928e-28
1.50855e-28
1.59029e-28
1.64777e-28
1.6948e-28
1.73908e-28
1.78508e-28
1.83578e-28
1.8937e-28
1.96149e-28
2.0422e-28
2.13817e-28
2.24623e-28
2.3494e-28
2.41545e-28
1.11252e-29
1.11248e-29
1.11247e-29
1.11242e-29
1.11242e-29
1.11238e-29
1.11238e-29
1.11234e-29
1.11235e-29
1.11232e-29
1.11232e-29
1.11231e-29
1.1123e-29
1.11229e-29
1.11229e-29
1.11228e-29
1.11228e-29
1.11228e-29
1.11228e-29
1.11228e-29
)
;
    }
    frontAndBack
    {
        type            empty;
    }
}


// ************************************************************************* //
