/*--------------------------------*- C++ -*----------------------------------*\
| =========                 |                                                 |
| \\      /  F ield         | OpenFOAM: The Open Source CFD Toolbox           |
|  \\    /   O peration     | Version:  2506                                  |
|   \\  /    A nd           | Website:  www.openfoam.com                      |
|    \\/     M anipulation  |                                                 |
\*---------------------------------------------------------------------------*/
FoamFile
{
    version     2.0;
    format      ascii;
    arch        "LSB;label=32;scalar=64";
    class       surfaceScalarField;
    location    "4";
    object      PecletNoField;
}
// * * * * * * * * * * * * * * * * * * * * * * * * * * * * * * * * * * * * * //

dimensions      [0 0 0 0 0 0 0];

oriented        oriented;

internalField   nonuniform List<scalar> 
760
(
387.098
5.16574e-09
387.098
2.49706e-09
387.099
2.15924e-09
387.099
4.345e-11
387.099
3.60167e-10
387.099
1.81613e-11
387.099
7.33824e-11
387.1
2.18611e-11
387.1
2.11321e-11
387.1
1.15758e-11
387.1
8.69973e-12
387.1
5.91652e-12
387.1
4.35039e-12
387.1
3.17623e-12
387.1
2.3765e-12
387.1
1.78329e-12
387.1
1.33895e-12
387.1
1.00945e-12
387.1
5.33457e-13
4.45439e-14
377.163
4.59491e-10
375.742
8.57808e-10
375.95
5.38019e-10
376.131
5.97653e-11
376.313
3.84685e-10
376.492
9.09052e-11
376.674
9.57194e-11
376.853
4.21243e-11
377.034
3.3679e-11
377.212
2.09245e-11
377.392
1.53847e-11
377.57
1.08377e-11
377.748
8.05664e-12
377.926
5.93169e-12
378.104
4.41703e-12
378.28
3.22587e-12
378.457
2.47657e-12
378.581
1.91655e-12
378.722
1.02401e-12
9.78372e-15
367.756
1.09817e-08
366.08
9.74061e-09
366.331
1.8791e-10
366.547
1.0149e-09
366.765
1.04486e-10
366.98
1.59499e-10
367.197
5.36417e-11
367.41
5.98972e-11
367.625
3.6072e-11
367.836
2.74037e-11
368.049
1.92517e-11
368.26
1.44059e-11
368.47
1.07148e-11
368.678
7.98101e-12
368.888
5.94149e-12
369.095
4.50869e-12
369.302
3.4747e-12
369.447
2.66414e-12
369.611
1.40471e-12
6.46931e-14
361.209
1.95279e-08
359.34
1.97249e-08
359.62
1.14507e-09
359.863
1.57786e-09
360.107
5.79646e-10
360.347
1.81451e-11
360.59
1.17473e-10
360.827
3.93793e-11
361.068
4.15941e-11
361.305
2.71786e-11
361.542
2.15479e-11
361.777
1.59446e-11
362.012
1.23365e-11
362.245
9.33225e-12
362.479
7.06666e-12
362.71
5.32305e-12
362.941
4.1584e-12
363.103
3.28206e-12
363.287
1.7393e-12
6.72118e-15
357.346
3.3032e-08
355.358
3.1384e-08
355.657
1.28623e-09
355.916
2.67784e-09
356.176
5.60058e-10
356.432
2.22196e-10
356.69
1.53622e-11
356.944
5.98333e-11
357.2
2.99516e-11
357.452
2.88257e-11
357.705
2.08446e-11
357.955
1.67048e-11
358.206
1.28853e-11
358.454
1.00092e-11
358.703
7.67692e-12
358.948
5.87135e-12
359.195
4.58167e-12
359.367
3.6362e-12
359.562
1.97136e-12
5.26906e-15
355.21
4.41964e-08
353.156
4.28574e-08
353.465
1.67643e-09
353.733
3.4341e-09
354.002
8.57289e-10
354.267
1.59527e-10
354.534
1.3653e-10
354.797
1.68744e-11
355.062
3.70968e-11
355.322
2.27654e-11
355.585
2.04713e-11
355.842
1.57781e-11
356.103
1.28041e-11
356.358
1.00496e-11
356.616
7.82339e-12
356.87
6.05704e-12
357.125
4.82039e-12
357.303
3.88547e-12
357.504
2.1081e-12
1.14169e-13
354.028
5.6126e-08
351.939
5.34477e-08
352.254
1.799e-09
352.526
4.28084e-09
352.8
9.09976e-10
353.07
2.85469e-10
353.342
7.99611e-11
353.61
5.26951e-11
353.879
1.74867e-11
354.144
2.38279e-11
354.411
1.72666e-11
354.674
1.48646e-11
354.939
1.19219e-11
355.199
9.63236e-12
355.462
7.61555e-12
355.72
5.95966e-12
355.98
4.83386e-12
356.161
4.00144e-12
356.366
2.1471e-12
1.84627e-13
353.331
6.56338e-08
351.22
6.28812e-08
351.538
1.96197e-09
351.813
4.92534e-09
352.09
1.08538e-09
352.363
2.6754e-10
352.638
1.54042e-10
352.908
3.93035e-12
353.181
2.96625e-11
353.449
1.53171e-11
353.719
1.61161e-11
353.984
1.27882e-11
354.252
1.0875e-11
354.515
8.77073e-12
354.78
7.04593e-12
355.041
5.62299e-12
355.303
4.68862e-12
355.486
3.89455e-12
355.693
2.07588e-12
2.13444e-13
352.861
7.40348e-08
350.736
7.03967e-08
351.056
2.01792e-09
351.333
5.47275e-09
351.612
1.13914e-09
351.887
3.36486e-10
352.164
1.25385e-10
352.436
4.60317e-11
352.71
6.05817e-12
352.98
1.74788e-11
353.252
1.20449e-11
353.519
1.13144e-11
353.789
9.38347e-12
354.054
7.84744e-12
354.32
6.36998e-12
354.584
5.07933e-12
354.847
4.30326e-12
355.032
3.74287e-12
355.24
1.95721e-12
3.84544e-13
352.488
7.9758e-08
350.352
7.60133e-08
350.674
2.04942e-09
350.952
5.84608e-09
351.233
1.22541e-09
351.509
3.30607e-10
351.788
1.64224e-10
352.061
1.8067e-11
352.338
2.27401e-11
352.608
8.25285e-12
352.882
1.10832e-11
353.15
8.8593e-12
353.421
8.0542e-12
353.688
6.71091e-12
353.955
5.56667e-12
354.221
4.53023e-12
354.485
3.86835e-12
354.671
3.42945e-12
354.88
1.76122e-12
4.2915e-13
352.147
8.3473e-08
350
7.92678e-08
350.323
2.02632e-09
350.603
6.05621e-09
350.886
1.24472e-09
351.164
3.57435e-10
351.443
1.48588e-10
351.718
3.97462e-11
351.996
2.21099e-12
352.268
1.15673e-11
352.543
7.03834e-12
352.812
7.47852e-12
353.085
6.44677e-12
353.353
5.63733e-12
353.622
4.67322e-12
353.888
3.82792e-12
354.154
3.39814e-12
354.34
3.08815e-12
354.551
1.61156e-12
4.68e-13
351.801
8.41985e-08
349.644
8.00279e-08
349.969
1.95224e-09
350.25
6.0736e-09
350.534
1.25348e-09
350.813
3.45975e-10
351.094
1.60488e-10
351.37
2.59625e-11
351.649
1.64187e-11
351.923
2.60061e-12
352.199
6.46713e-12
352.47
5.12037e-12
352.743
5.11635e-12
353.013
4.41457e-12
353.283
3.79734e-12
353.55
3.20303e-12
353.818
2.92452e-12
354.005
2.7455e-12
354.217
1.32629e-12
5.40124e-13
351.429
8.2601e-08
349.261
7.83964e-08
349.587
1.85733e-09
349.871
5.92162e-09
350.156
1.22417e-09
350.436
3.37018e-10
350.719
1.50572e-10
350.997
3.18696e-11
351.277
7.6905e-12
351.552
6.33402e-12
351.83
2.87471e-12
352.103
4.03867e-12
352.377
3.60237e-12
352.648
3.34563e-12
352.92
2.92201e-12
353.187
2.59528e-12
353.457
2.46239e-12
353.645
2.37692e-12
353.858
1.11131e-12
6.25826e-13
351.015
7.79743e-08
348.837
7.39913e-08
349.165
1.68895e-09
349.449
5.56945e-09
349.736
1.15309e-09
350.019
3.17136e-10
350.303
1.38397e-10
350.582
2.909e-11
350.864
9.7604e-12
351.141
1.62395e-12
351.42
2.64447e-12
351.694
2.06122e-12
351.97
2.59053e-12
352.242
2.33963e-12
352.516
2.17336e-12
352.785
1.97023e-12
353.056
1.98418e-12
353.245
2.00125e-12
353.459
8.78019e-13
6.36288e-13
350.548
7.11005e-08
348.354
6.75382e-08
348.685
1.55395e-09
348.972
5.05558e-09
349.26
1.08134e-09
349.544
2.71795e-10
349.83
1.34455e-10
350.112
2.10852e-11
350.395
1.08054e-11
350.674
1.92147e-12
350.954
2.89728e-13
351.23
1.28532e-12
351.508
1.47853e-12
351.782
1.66587e-12
352.058
1.53717e-12
352.329
1.42692e-12
352.602
1.49885e-12
352.792
1.648e-12
353.007
7.57683e-13
5.73546e-13
350.01
6.18296e-08
347.8
5.85826e-08
348.133
1.27578e-09
348.423
4.39738e-09
348.713
9.16933e-10
349
2.51574e-10
349.288
9.7923e-11
349.571
2.82322e-11
349.856
3.26996e-12
350.137
4.10133e-12
350.42
1.40654e-13
350.698
2.68628e-14
350.979
8.11187e-13
351.255
9.85621e-13
351.532
1.06658e-12
351.805
1.04376e-12
352.08
1.16806e-12
352.271
1.21768e-12
352.488
5.11807e-13
5.17731e-13
349.396
5.0344e-08
347.17
4.80331e-08
347.506
1.1926e-09
347.797
3.56143e-09
348.09
8.37198e-10
348.379
1.72913e-10
348.669
1.04035e-10
348.955
1.01889e-11
349.243
1.09327e-11
349.526
7.53107e-13
349.811
1.71567e-12
350.091
1.25517e-13
350.374
2.16452e-13
350.652
5.48279e-13
350.932
5.77955e-13
351.207
6.67806e-13
351.484
8.01487e-13
351.677
1.00184e-12
351.896
4.38205e-13
4.50799e-13
348.738
3.87156e-08
346.493
3.65735e-08
346.832
6.61095e-10
347.125
2.65601e-09
347.421
5.14243e-10
347.712
1.37996e-10
348.005
4.37744e-11
348.293
1.74951e-11
348.584
1.21478e-12
348.869
3.39077e-12
349.157
9.7371e-13
349.439
5.39632e-13
349.725
1.77456e-14
350.005
2.57326e-13
350.286
3.6418e-13
350.566
3.79491e-13
350.844
5.39515e-13
351.039
6.68773e-13
351.26
2.99643e-13
3.01098e-13
348.203
2.6744e-08
345.99
2.77172e-08
346.317
3.04222e-09
346.6
2.50034e-09
346.887
7.17643e-10
347.17
1.74237e-10
347.455
8.22773e-11
347.737
1.36925e-11
348.021
8.68967e-12
348.301
2.92511e-13
348.585
1.27552e-12
348.864
1.4332e-13
349.146
6.56323e-14
349.424
8.82868e-14
349.705
1.17122e-13
349.983
1.7523e-13
350.263
2.63892e-13
350.459
3.65225e-13
350.68
1.78215e-13
2.15095e-13
350.457
350.457
350.458
350.458
350.458
350.459
350.459
350.459
350.459
350.459
350.459
350.459
350.459
350.459
350.459
350.459
350.459
350.459
350.459
)
;

boundaryField
{
    movingWall
    {
        type            calculated;
        value           uniform 0;
    }
    fixedWalls
    {
        type            calculated;
        value           nonuniform List<scalar> 
60
(
250
250
250
250
250
250
250
250
250
250
250
250
250
250
250
250
250
250
250
250
250
250
250
250
250
250
250
250
250
250
250
250
250
250
250
250
250
250
250
250
0
0
0
0
0
0
0
0
0
0
0
0
0
0
0
0
0
0
0
0
)
;
    }
    frontAndBack
    {
        type            empty;
    }
}


// ************************************************************************* //
