/*--------------------------------*- C++ -*----------------------------------*\
| =========                 |                                                 |
| \\      /  F ield         | OpenFOAM: The Open Source CFD Toolbox           |
|  \\    /   O peration     | Version:  2506                                  |
|   \\  /    A nd           | Website:  www.openfoam.com                      |
|    \\/     M anipulation  |                                                 |
\*---------------------------------------------------------------------------*/
FoamFile
{
    version     2.0;
    format      ascii;
    arch        "LSB;label=32;scalar=64";
    class       surfaceScalarField;
    location    "4";
    object      phi;
}
// * * * * * * * * * * * * * * * * * * * * * * * * * * * * * * * * * * * * * //

dimensions      [0 3 -1 0 0 0 0];

oriented        oriented;

internalField   nonuniform List<scalar> 
760
(
-5e-05
-6.74599e-16
-5e-05
3.27476e-16
-5e-05
2.83059e-16
-5e-05
-5.69502e-18
-5e-05
4.71919e-17
-5e-05
2.37924e-18
-5e-05
9.6105e-18
-5e-05
2.86253e-18
-5e-05
2.76622e-18
-5e-05
1.51501e-18
-5e-05
1.13826e-18
-5e-05
7.73968e-19
-5e-05
5.6893e-19
-5e-05
4.15299e-19
-5e-05
3.10642e-19
-5e-05
2.33057e-19
-5e-05
1.74937e-19
-5e-05
1.31862e-19
-5e-05
6.96745e-20
-5.81649e-21
-5e-05
-6.14079e-17
-5e-05
-1.15706e-16
-5e-05
7.25071e-17
-5e-05
8.05148e-18
-5e-05
5.17871e-17
-5e-05
1.22334e-17
-5e-05
1.28723e-17
-5e-05
5.6627e-18
-5e-05
4.52436e-18
-5e-05
2.80985e-18
-5e-05
2.06458e-18
-5e-05
1.4538e-18
-5e-05
1.08005e-18
-5e-05
7.94863e-19
-5e-05
5.91519e-19
-5e-05
4.31826e-19
-5e-05
3.31316e-19
-5e-05
2.56291e-19
-5e-05
1.36893e-19
1.30726e-21
-5e-05
-1.49844e-15
-5e-05
1.34357e-15
-5e-05
-2.58925e-17
-5e-05
1.39784e-16
-5e-05
-1.4379e-17
-5e-05
2.19402e-17
-5e-05
7.37278e-18
-5e-05
8.22888e-18
-5e-05
4.95178e-18
-5e-05
3.7601e-18
-5e-05
2.63953e-18
-5e-05
1.97421e-18
-5e-05
1.46727e-18
-5e-05
1.0924e-18
-5e-05
8.12636e-19
-5e-05
6.16377e-19
-5e-05
4.74676e-19
-5e-05
3.63773e-19
-5e-05
1.91735e-19
-8.82508e-21
-5e-05
2.70149e-15
-5e-05
-2.76156e-15
-5e-05
1.60131e-16
-5e-05
-2.20549e-16
-5e-05
8.0946e-17
-5e-05
-2.5327e-18
-5e-05
1.63821e-17
-5e-05
5.48892e-18
-5e-05
5.7925e-18
-5e-05
3.78306e-18
-5e-05
2.99674e-18
-5e-05
2.21634e-18
-5e-05
1.71338e-18
-5e-05
1.29545e-18
-5e-05
9.80153e-19
-5e-05
7.37929e-19
-5e-05
5.76012e-19
-5e-05
4.54386e-19
-5e-05
2.40702e-19
9.29541e-22
-5e-05
-4.60646e-15
-5e-05
4.43229e-15
-5e-05
-1.8143e-16
-5e-05
3.77538e-16
-5e-05
-7.88821e-17
-5e-05
3.12798e-17
-5e-05
-2.16054e-18
-5e-05
8.41066e-18
-5e-05
4.20627e-18
-5e-05
4.04606e-18
-5e-05
2.92311e-18
-5e-05
2.34134e-18
-5e-05
1.80438e-18
-5e-05
1.40088e-18
-5e-05
1.07352e-18
-5e-05
8.20584e-19
-5e-05
6.39795e-19
-5e-05
5.07486e-19
-5e-05
2.75017e-19
-7.34561e-22
-5e-05
6.19098e-15
-5e-05
-6.0821e-15
-5e-05
2.37609e-16
-5e-05
-4.86489e-16
-5e-05
1.21323e-16
-5e-05
-2.25645e-17
-5e-05
1.92924e-17
-5e-05
2.38319e-18
-5e-05
5.23412e-18
-5e-05
3.21035e-18
-5e-05
2.88409e-18
-5e-05
2.22169e-18
-5e-05
1.80125e-18
-5e-05
1.41298e-18
-5e-05
1.09898e-18
-5e-05
8.50377e-19
-5e-05
6.76166e-19
-5e-05
5.44712e-19
-5e-05
2.9541e-19
-1.59874e-20
-5e-05
-7.88207e-15
-5e-05
7.60596e-15
-5e-05
-2.55681e-16
-5e-05
6.08098e-16
-5e-05
-1.29129e-16
-5e-05
4.04878e-17
-5e-05
-1.13293e-17
-5e-05
7.46213e-18
-5e-05
2.47383e-18
-5e-05
3.36909e-18
-5e-05
2.439e-18
-5e-05
2.09855e-18
-5e-05
1.68153e-18
-5e-05
1.35784e-18
-5e-05
1.07256e-18
-5e-05
8.38864e-19
-5e-05
6.79796e-19
-5e-05
5.62403e-19
-5e-05
3.01643e-19
-2.59194e-20
-5e-05
9.23191e-15
-5e-05
-8.96379e-15
-5e-05
2.7932e-16
-5e-05
-7.00839e-16
-5e-05
1.5428e-16
-5e-05
-3.80089e-17
-5e-05
2.1862e-17
-5e-05
-5.57503e-19
-5e-05
4.20329e-18
-5e-05
2.1693e-18
-5e-05
2.28024e-18
-5e-05
1.80836e-18
-5e-05
1.53638e-18
-5e-05
1.23838e-18
-5e-05
9.93936e-19
-5e-05
7.92744e-19
-5e-05
6.60425e-19
-5e-05
5.4825e-19
-5e-05
2.92099e-19
-3.00121e-20
-5e-05
-1.04255e-14
-5e-05
1.00476e-14
-5e-05
-2.87641e-16
-5e-05
7.79689e-16
-5e-05
-1.62119e-16
-5e-05
4.78619e-17
-5e-05
-1.78165e-17
-5e-05
6.53723e-18
-5e-05
8.595e-19
-5e-05
2.47839e-18
-5e-05
1.70625e-18
-5e-05
1.60184e-18
-5e-05
1.32723e-18
-5e-05
1.1093e-18
-5e-05
8.99636e-19
-5e-05
7.16925e-19
-5e-05
6.06845e-19
-5e-05
5.27504e-19
-5e-05
2.75718e-19
-5.41321e-20
-5e-05
1.12424e-14
-5e-05
-1.08607e-14
-5e-05
2.92436e-16
-5e-05
-8.33744e-16
-5e-05
1.74578e-16
-5e-05
-4.70742e-17
-5e-05
2.33592e-17
-5e-05
-2.56843e-18
-5e-05
3.22952e-18
-5e-05
1.17139e-18
-5e-05
1.5716e-18
-5e-05
1.25551e-18
-5e-05
1.14035e-18
-5e-05
9.49587e-19
-5e-05
7.8696e-19
-5e-05
6.40052e-19
-5e-05
5.46049e-19
-5e-05
4.83803e-19
-5e-05
2.48349e-19
-6.04699e-20
-5e-05
-1.17771e-14
-5e-05
1.13372e-14
-5e-05
-2.89432e-16
-5e-05
8.64579e-16
-5e-05
-1.77506e-16
-5e-05
5.09449e-17
-5e-05
-2.11561e-17
-5e-05
5.65594e-18
-5e-05
-3.1431e-19
-5e-05
1.64344e-18
-5e-05
9.99008e-19
-5e-05
1.06086e-18
-5e-05
9.13638e-19
-5e-05
7.98443e-19
-5e-05
6.61282e-19
-5e-05
5.41341e-19
-5e-05
4.80127e-19
-5e-05
4.36066e-19
-5e-05
2.27459e-19
-6.60058e-20
-5e-05
1.18911e-14
-5e-05
-1.14581e-14
-5e-05
2.79143e-16
-5e-05
-8.67973e-16
-5e-05
1.78941e-16
-5e-05
-4.93628e-17
-5e-05
2.2874e-17
-5e-05
-3.69831e-18
-5e-05
2.33644e-18
-5e-05
3.69863e-19
-5e-05
9.18859e-19
-5e-05
7.27082e-19
-5e-05
7.25816e-19
-5e-05
6.25886e-19
-5e-05
5.37874e-19
-5e-05
4.53421e-19
-5e-05
4.13616e-19
-5e-05
3.88063e-19
-5e-05
1.87379e-19
-7.62523e-20
-5e-05
-1.1678e-14
-5e-05
1.12375e-14
-5e-05
-2.65878e-16
-5e-05
8.47229e-16
-5e-05
-1.74956e-16
-5e-05
4.81397e-17
-5e-05
-2.14849e-17
-5e-05
4.5449e-18
-5e-05
-1.0956e-18
-5e-05
9.01846e-19
-5e-05
4.08893e-19
-5e-05
5.74122e-19
-5e-05
5.11598e-19
-5e-05
4.74859e-19
-5e-05
4.14337e-19
-5e-05
3.67788e-19
-5e-05
3.48633e-19
-5e-05
3.36327e-19
-5e-05
1.57175e-19
-8.84457e-20
-5e-05
1.10371e-14
-5e-05
-1.06199e-14
-5e-05
2.42087e-16
-5e-05
-7.9787e-16
-5e-05
1.6501e-16
-5e-05
-4.53576e-17
-5e-05
1.97729e-17
-5e-05
-4.15375e-18
-5e-05
1.39224e-18
-5e-05
-2.3151e-19
-5e-05
3.76615e-19
-5e-05
2.9338e-19
-5e-05
3.68356e-19
-5e-05
3.32482e-19
-5e-05
3.08558e-19
-5e-05
2.79551e-19
-5e-05
2.81268e-19
-5e-05
2.83514e-19
-5e-05
1.2433e-19
-9.00323e-20
-5e-05
-1.0078e-14
-5e-05
9.70817e-15
-5e-05
-2.23068e-16
-5e-05
7.25322e-16
-5e-05
-1.54969e-16
-5e-05
3.89296e-17
-5e-05
-1.92376e-17
-5e-05
3.01511e-18
-5e-05
-1.54352e-18
-5e-05
2.74317e-19
-5e-05
-4.13209e-20
-5e-05
1.83203e-19
-5e-05
2.10533e-19
-5e-05
2.37068e-19
-5e-05
2.18542e-19
-5e-05
2.02745e-19
-5e-05
2.12765e-19
-5e-05
2.33793e-19
-5e-05
1.07438e-19
-8.12661e-20
-5e-05
8.77778e-15
-5e-05
-8.43528e-15
-5e-05
1.83447e-16
-5e-05
-6.3196e-16
-5e-05
1.31628e-16
-5e-05
-3.60938e-17
-5e-05
1.4034e-17
-5e-05
-4.04383e-18
-5e-05
4.67875e-19
-5e-05
-5.8649e-19
-5e-05
-2.00927e-20
-5e-05
3.83514e-21
-5e-05
1.15695e-19
-5e-05
1.40489e-19
-5e-05
1.51881e-19
-5e-05
1.4854e-19
-5e-05
1.66072e-19
-5e-05
1.73019e-19
-5e-05
7.26882e-20
-7.34731e-20
-5e-05
-7.15971e-15
-5e-05
6.92936e-15
-5e-05
-1.71809e-16
-5e-05
5.12782e-16
-5e-05
-1.20406e-16
-5e-05
2.48542e-17
-5e-05
-1.49375e-17
-5e-05
1.46208e-18
-5e-05
-1.56714e-18
-5e-05
-1.0789e-19
-5e-05
-2.45534e-19
-5e-05
-1.7952e-20
-5e-05
3.0927e-20
-5e-05
7.82902e-20
-5e-05
8.24477e-20
-5e-05
9.52051e-20
-5e-05
1.14155e-19
-5e-05
1.42601e-19
-5e-05
6.2344e-20
-6.40861e-20
-5e-05
5.51549e-15
-5e-05
-5.28513e-15
-5e-05
9.54018e-17
-5e-05
-3.83075e-16
-5e-05
7.40866e-17
-5e-05
-1.98697e-17
-5e-05
6.29615e-18
-5e-05
-2.51488e-18
-5e-05
-1.74438e-19
-5e-05
-4.86611e-19
-5e-05
-1.39595e-19
-5e-05
-7.73159e-20
-5e-05
2.53999e-21
-5e-05
3.68087e-20
-5e-05
5.2043e-20
-5e-05
5.41963e-20
-5e-05
7.69768e-20
-5e-05
9.53576e-20
-5e-05
4.27046e-20
-4.28785e-20
-5e-05
-3.81435e-15
-5e-05
3.98132e-15
-5e-05
-4.36688e-16
-5e-05
3.58809e-16
-5e-05
-1.02928e-16
-5e-05
2.4983e-17
-5e-05
-1.17909e-17
-5e-05
1.96167e-18
-5e-05
-1.24428e-18
-5e-05
4.18726e-20
-5e-05
-1.82495e-19
-5e-05
-2.04994e-20
-5e-05
-9.38283e-21
-5e-05
1.26176e-20
-5e-05
1.67304e-20
-5e-05
2.50231e-20
-5e-05
3.76661e-20
-5e-05
5.21128e-20
-5e-05
2.54229e-20
-3.06719e-20
-5e-05
-5e-05
-5e-05
-5e-05
-5e-05
-5e-05
-5e-05
-5e-05
-5e-05
-5e-05
-5e-05
-5e-05
-5e-05
-5e-05
-5e-05
-5e-05
-5e-05
-5e-05
-5e-05
)
;

boundaryField
{
    movingWall
    {
        type            calculated;
        value           uniform 0;
    }
    fixedWalls
    {
        type            calculated;
        value           nonuniform List<scalar> 
60
(
5e-05
5e-05
5e-05
5e-05
5e-05
5e-05
5e-05
5e-05
5e-05
5e-05
5e-05
5e-05
5e-05
5e-05
5e-05
5e-05
5e-05
5e-05
5e-05
5e-05
-5e-05
-5e-05
-5e-05
-5e-05
-5e-05
-5e-05
-5e-05
-5e-05
-5e-05
-5e-05
-5e-05
-5e-05
-5e-05
-5e-05
-5e-05
-5e-05
-5e-05
-5e-05
-5e-05
-5e-05
0
0
0
0
0
0
0
0
0
0
0
0
0
0
0
0
0
0
0
0
)
;
    }
    frontAndBack
    {
        type            empty;
    }
}


// ************************************************************************* //
