/*--------------------------------*- C++ -*----------------------------------*\
| =========                 |                                                 |
| \\      /  F ield         | OpenFOAM: The Open Source CFD Toolbox           |
|  \\    /   O peration     | Version:  2506                                  |
|   \\  /    A nd           | Website:  www.openfoam.com                      |
|    \\/     M anipulation  |                                                 |
\*---------------------------------------------------------------------------*/
FoamFile
{
    version     2.0;
    format      ascii;
    arch        "LSB;label=32;scalar=64";
    class       volScalarField;
    location    "4";
    object      QField;
}
// * * * * * * * * * * * * * * * * * * * * * * * * * * * * * * * * * * * * * //

dimensions      [0 0 -2 0 0 0 0];

internalField   nonuniform List<scalar> 
400
(
9.67709e-14
5.17152e-14
4.91222e-15
5.01492e-16
2.56087e-17
4.18633e-18
-1.97122e-20
5.13321e-20
-4.90595e-21
1.06167e-21
-1.74225e-22
2.42414e-23
-7.8751e-24
-8.66376e-25
-1.10181e-24
-5.86355e-25
-3.53917e-25
-2.48153e-25
-6.87015e-26
-6.50428e-28
1.54244e-13
7.06691e-14
6.47727e-15
5.91273e-16
3.53128e-17
3.89536e-18
1.48104e-19
2.67905e-20
-2.34796e-22
2.33043e-22
-3.93498e-23
-4.99679e-24
-5.49758e-24
-2.52669e-24
-1.40322e-24
-7.11433e-25
-4.36243e-25
-2.56959e-25
-6.94153e-26
0
2.04471e-13
5.78789e-14
5.56199e-15
2.87305e-16
2.65845e-17
1.01894e-18
1.82637e-19
-5.08447e-21
2.16288e-21
-2.63283e-22
2.74665e-23
-1.41302e-23
-3.29288e-24
-2.37265e-24
-1.13115e-24
-6.59013e-25
-3.89401e-25
-2.41488e-25
-1.91543e-26
8.71001e-27
3.00825e-13
8.00155e-14
7.99196e-15
4.24148e-16
3.21449e-17
2.58149e-18
8.88656e-20
2.04034e-20
-9.36813e-22
2.84671e-22
-5.04684e-23
7.36238e-25
-4.55799e-24
-1.75713e-24
-1.12459e-24
-5.38239e-25
-2.97308e-25
-1.40556e-25
-2.6315e-26
1.11143e-26
3.22784e-13
8.40464e-14
8.51878e-15
4.34493e-16
3.55079e-17
2.1999e-18
1.79604e-19
4.23929e-21
1.86853e-21
-1.85799e-22
3.08518e-23
-1.11326e-23
-1.73703e-24
-1.73528e-24
-8.26e-25
-4.51525e-25
-2.57312e-25
-1.4578e-25
-9.10691e-26
-2.82592e-26
3.26828e-13
8.37343e-14
8.6391e-15
4.30428e-16
3.56029e-17
2.39596e-18
1.32779e-19
1.47165e-20
-1.25444e-22
1.90575e-22
-3.21539e-23
1.46891e-24
-2.87332e-24
-1.09688e-24
-7.26535e-25
-3.19181e-25
-1.04568e-25
-7.98617e-26
-3.3236e-26
-3.2468e-26
2.98033e-13
7.55412e-14
7.82637e-15
3.88331e-16
3.19005e-17
2.10345e-18
1.37168e-19
7.80306e-21
1.03998e-21
-6.27189e-23
1.69577e-23
-6.16696e-24
-1.09741e-24
-1.0864e-24
-5.35912e-25
-2.71859e-25
-1.27006e-25
-1.11201e-25
3.13375e-26
2.80053e-26
2.59895e-13
6.51689e-14
6.84845e-15
3.30218e-16
2.82764e-17
1.78174e-18
1.15333e-19
8.8945e-21
3.20441e-22
8.50612e-23
-1.33088e-23
1.31981e-25
-1.85252e-24
-8.15647e-25
-4.9538e-25
-2.49843e-25
-8.86956e-26
-8.48372e-26
-3.39477e-26
0
2.04277e-13
5.04096e-14
5.3496e-15
2.55559e-16
2.12936e-17
1.41904e-18
8.11617e-20
6.57923e-21
3.98941e-22
1.26933e-23
1.94713e-24
-2.49993e-24
-8.55835e-25
-6.10325e-25
-3.74666e-25
-2.13592e-25
-8.99248e-26
-3.3375e-26
-3.87435e-27
-4.65097e-27
1.43494e-13
3.44879e-14
3.76317e-15
1.70345e-16
1.50294e-17
8.91789e-19
6.29543e-20
3.32258e-21
3.44595e-22
5.10931e-25
-6.40887e-26
-1.32499e-24
-8.09331e-25
-5.4399e-25
-3.82015e-25
-1.26962e-25
-6.57476e-26
-9.07315e-27
-7.55146e-27
-2.21159e-27
7.34883e-14
1.6242e-14
1.89705e-15
7.75813e-17
6.63278e-18
4.40049e-19
1.7334e-20
2.5722e-21
-7.04406e-23
2.50734e-23
-5.99331e-24
-3.31588e-25
-8.24074e-25
-4.06261e-25
-2.71148e-25
-1.60754e-25
-7.76681e-26
-4.01214e-26
1.98608e-26
-2.06652e-26
1.02292e-15
-2.43939e-15
-1.27762e-17
-1.98166e-17
-1.19896e-18
-1.4633e-19
-6.13111e-21
-1.81805e-21
1.2202e-22
-4.37403e-23
3.83113e-24
-2.31544e-24
-3.60673e-25
-4.91186e-25
-2.1777e-25
-1.26128e-25
-6.10771e-26
-5.80451e-26
-1.85047e-26
-1.9908e-27
-7.28511e-14
-2.13904e-14
-1.96815e-15
-1.169e-16
-9.58585e-18
-6.37899e-19
-5.04932e-20
-2.25596e-21
-4.69103e-22
2.59031e-23
-1.16374e-23
6.67475e-25
-8.54916e-25
-2.99007e-25
-2.41986e-25
-1.04882e-25
-7.22032e-26
-2.18852e-26
-1.80689e-26
9.74063e-27
-1.46252e-13
-4.00553e-14
-3.91754e-15
-2.12987e-16
-1.76684e-17
-1.20547e-18
-7.38868e-20
-7.11294e-21
-1.18654e-22
-8.281e-23
7.2415e-24
-2.85857e-24
-4.93177e-26
-2.99401e-25
-1.66092e-25
-1.1882e-25
-7.23551e-26
-2.31549e-26
2.84654e-26
0
-2.12353e-13
-5.67481e-14
-5.65727e-15
-2.99007e-16
-2.48358e-17
-1.62355e-18
-1.15061e-19
-6.34748e-21
-8.45325e-22
2.55851e-23
-1.52766e-23
1.47965e-24
-7.78573e-25
-6.44785e-26
-1.25281e-25
-6.64542e-26
-6.69125e-26
-4.72393e-26
2.92512e-26
2.70575e-27
-2.75931e-13
-7.27353e-14
-7.35437e-15
-3.82263e-16
-3.16106e-17
-2.15854e-18
-1.26471e-19
-1.23161e-20
-2.74556e-22
-1.1833e-22
8.01705e-24
-2.74057e-24
5.23259e-26
-1.82239e-25
-5.0429e-26
-5.4634e-26
-4.80601e-26
-4.05517e-26
-1.0839e-26
-1.87513e-27
-3.21597e-13
-8.41045e-14
-8.56716e-15
-4.39178e-16
-3.66933e-17
-2.30641e-18
-1.70223e-19
-8.54089e-21
-1.16769e-21
2.53046e-23
-1.70321e-23
1.53358e-24
-5.20807e-25
-2.116e-26
-6.27574e-26
-5.37679e-26
-3.31204e-26
-1.42435e-26
8.20608e-27
-2.43939e-27
-3.56098e-13
-9.14476e-14
-9.50435e-15
-5.05352e-16
-3.97195e-17
-2.93723e-18
-1.63959e-19
-1.6363e-20
-4.97804e-22
-1.29444e-22
4.84779e-24
-2.10332e-24
1.79525e-25
-8.16003e-26
-2.03066e-26
-2.92197e-26
-7.4699e-27
-3.32627e-26
7.85951e-27
-3.4099e-27
-3.85374e-13
-7.48498e-14
-7.5284e-15
-2.39157e-16
-1.91372e-17
-9.08861e-19
-5.52073e-20
-6.97204e-22
-4.30731e-22
3.5462e-23
-5.93348e-24
8.19266e-25
-1.32275e-25
3.53066e-27
-3.11341e-26
0
-1.83595e-26
-3.99102e-26
4.14458e-27
-4.2158e-27
-2.00247e-13
-2.85106e-14
-2.5727e-15
2.35293e-17
1.63082e-18
6.8893e-19
3.27455e-20
8.46806e-21
-4.08115e-24
6.79651e-23
3.41687e-24
-1.06553e-24
3.90117e-25
-1.2099e-25
7.41787e-27
-2.04442e-26
-3.15534e-26
-3.94662e-26
-1.75666e-26
-1.14695e-26
)
;

boundaryField
{
    movingWall
    {
        type            calculated;
        value           nonuniform List<scalar> 
20
(
6.43607e-14
8.12179e-14
1.73278e-14
5.2348e-16
5.66268e-17
4.40637e-18
1.2702e-19
3.09691e-20
-4.26515e-22
2.34756e-22
-2.47815e-24
-5.82065e-25
5.39436e-25
-2.22926e-25
3.10045e-26
-3.18715e-26
-4.14488e-26
-4.29133e-26
-3.39864e-26
-1.35115e-26
)
;
    }
    fixedWalls
    {
        type            calculated;
        value           nonuniform List<scalar> 
60
(
5.07408e-13
8.08777e-13
1.07174e-12
1.57633e-12
1.69117e-12
1.71233e-12
1.56164e-12
1.36208e-12
1.07095e-12
7.52709e-13
3.85999e-13
6.24142e-15
-3.81124e-13
-7.66204e-13
-1.1132e-12
-1.4471e-12
-1.6871e-12
-1.8685e-12
-2.02247e-12
-1.05165e-12
-1.06566e-27
0
-8.8116e-28
-1.51709e-27
1.35062e-27
4.70424e-28
-9.27604e-27
0
-5.0801e-27
1.81174e-27
2.49832e-26
-3.26173e-27
-3.54563e-26
0
-3.82824e-26
-3.07221e-27
-3.9967e-27
-2.79339e-27
-1.84289e-26
-8.65807e-27
9.8792e-14
1.03651e-13
5.61545e-15
7.50852e-16
1.89226e-18
6.78297e-18
-4.78321e-19
1.08444e-19
-1.4675e-20
2.5747e-21
-4.14136e-22
7.058e-23
-1.26341e-23
1.33199e-24
-7.67772e-25
-3.29778e-25
-2.50068e-25
-1.99805e-25
-8.35168e-26
-7.31133e-27
)
;
    }
    frontAndBack
    {
        type            empty;
    }
}


// ************************************************************************* //
