/*--------------------------------*- C++ -*----------------------------------*\
| =========                 |                                                 |
| \\      /  F ield         | OpenFOAM: The Open Source CFD Toolbox           |
|  \\    /   O peration     | Version:  2506                                  |
|   \\  /    A nd           | Website:  www.openfoam.com                      |
|    \\/     M anipulation  |                                                 |
\*---------------------------------------------------------------------------*/
FoamFile
{
    version     2.0;
    format      ascii;
    arch        "LSB;label=32;scalar=64";
    class       surfaceScalarField;
    location    "4";
    object      surfaceDivU;
}
// * * * * * * * * * * * * * * * * * * * * * * * * * * * * * * * * * * * * * //

dimensions      [0 0 -1 0 0 0 0];

internalField   nonuniform List<scalar> 
760
(
1.88373e-09
-8.89454e-09
-1.19056e-09
1.01105e-08
-5.19194e-10
-3.78418e-09
4.59424e-10
1.78246e-09
-2.19535e-10
-6.08816e-10
7.07497e-11
1.9988e-10
-2.87534e-11
-6.86443e-11
7.11968e-12
1.99165e-11
-3.22265e-12
-7.01375e-12
5.44914e-13
1.77578e-12
-3.78867e-13
-7.00029e-13
-1.43547e-14
6.94679e-14
-5.32851e-14
-9.36355e-14
2.03427e-14
1.05526e-14
-1.26275e-14
-4.16737e-15
-1.3624e-14
-6.38432e-15
-1.64404e-14
1.98739e-14
-3.55327e-15
-1.522e-14
4.59456e-14
1.66519e-14
1.35525e-14
-6.67719e-10
5.36486e-09
7.51692e-09
-6.22553e-09
-1.48253e-09
1.33325e-09
7.14217e-10
-4.82701e-10
-1.894e-10
1.26427e-10
6.04864e-11
-2.2441e-11
-1.99745e-11
9.84885e-12
5.78303e-12
-8.30266e-13
-2.01532e-12
3.88321e-13
5.30841e-13
-1.38818e-14
-2.51695e-13
-6.78111e-15
-9.81289e-15
-5.72573e-14
-2.97977e-14
-4.94146e-15
-1.39574e-14
-4.32225e-15
2.07578e-15
8.03655e-15
2.71136e-14
9.28461e-15
2.10943e-14
-2.32701e-14
4.98512e-15
1.34092e-14
-1.57411e-14
2.56097e-14
-1.35525e-14
-1.92948e-10
-1.04624e-08
-1.24092e-08
1.30784e-08
2.33308e-09
-3.013e-09
-1.07049e-09
1.24736e-09
2.93386e-10
-2.85147e-10
-7.30786e-11
1.0273e-10
2.8993e-11
-2.71696e-11
-6.22497e-12
9.33377e-12
2.38975e-12
-2.19506e-12
-5.51504e-13
9.53976e-13
1.87656e-13
-1.44042e-13
-5.23859e-14
1.20062e-13
2.0534e-14
-2.23047e-16
1.76717e-14
2.42456e-14
1.52454e-14
1.17913e-14
-4.10991e-14
1.84638e-14
-3.09552e-14
-4.37224e-14
3.40338e-14
1.14883e-14
2.77984e-14
5.78142e-14
-1.35525e-14
2.80899e-09
1.09931e-08
2.24746e-08
-1.38707e-08
-4.09873e-09
2.83656e-09
2.0327e-09
-1.28896e-09
-4.75803e-10
2.57497e-10
1.48639e-10
-9.25819e-11
-4.68289e-11
2.6382e-11
1.33637e-11
-6.15326e-12
-3.63083e-12
2.46566e-12
1.36144e-12
-3.35119e-13
-2.11636e-13
2.95706e-13
1.72225e-13
2.30145e-14
3.48849e-15
5.40916e-14
1.83652e-14
4.51186e-14
1.50097e-14
1.57427e-14
1.58405e-14
1.44211e-14
-1.27891e-15
-3.15458e-14
3.52687e-14
1.76175e-14
1.64633e-14
6.54551e-14
-2.71051e-14
-5.68655e-09
-1.18278e-08
-3.35088e-08
1.52653e-08
5.64633e-09
-3.15314e-09
-3.06416e-09
1.40749e-09
6.40718e-10
-2.87964e-10
-2.14839e-10
1.02423e-10
6.70577e-11
-2.83672e-11
-1.70513e-11
7.79742e-12
5.76137e-12
-2.20773e-12
-1.40085e-12
8.08849e-13
5.30356e-13
-6.52714e-14
-9.51187e-14
1.21971e-13
9.57217e-14
2.36625e-14
4.24961e-14
6.13785e-14
1.51541e-14
2.1686e-14
-3.29652e-14
6.45631e-15
-1.26494e-14
-2.0642e-14
4.78039e-14
1.44849e-14
2.18867e-14
4.01631e-14
1.26218e-29
9.12405e-09
1.08314e-08
4.56209e-08
-1.44034e-08
-7.39198e-09
2.92713e-09
4.18368e-09
-1.33949e-09
-8.26259e-10
2.70349e-10
2.88894e-10
-9.95819e-11
-8.76275e-11
2.73517e-11
2.2641e-11
-7.27529e-12
-7.16025e-12
2.38731e-12
2.14443e-12
-5.31972e-13
-4.73656e-13
2.66778e-13
2.40753e-13
4.46064e-14
-1.06808e-14
5.51783e-14
4.05684e-14
-1.80632e-14
1.29882e-14
3.35441e-14
1.87795e-14
2.1889e-14
6.49228e-15
2.33304e-14
6.84408e-15
-1.9618e-14
1.82764e-14
1.93216e-14
1.35525e-14
-1.2696e-08
-9.4786e-09
-5.70971e-08
1.2788e-08
8.97963e-09
-2.56814e-09
-5.25282e-09
1.17643e-09
9.97026e-10
-2.31435e-10
-3.61124e-10
8.46643e-11
1.07704e-10
-2.29473e-11
-2.7529e-11
6.08948e-12
9.01558e-12
-1.88354e-12
-2.40962e-12
5.30682e-13
7.8504e-13
-7.61457e-14
-1.40968e-13
1.05309e-13
4.77958e-14
7.61576e-15
-2.50875e-14
-1.32113e-14
4.24448e-14
3.45418e-14
2.64399e-14
4.30123e-15
-2.77984e-15
-8.75391e-15
-7.14044e-15
2.392e-14
1.45978e-14
4.37348e-14
-1.35525e-14
1.60055e-08
7.9758e-09
6.7317e-08
-1.09792e-08
-1.03713e-08
2.21329e-09
6.19782e-09
-1.02213e-09
-1.1438e-09
2.05823e-10
4.22841e-10
-7.6883e-11
-1.24562e-10
2.08955e-11
3.17349e-11
-5.66788e-12
-1.03684e-11
1.76908e-12
2.86416e-12
-4.87368e-13
-7.55877e-13
2.01458e-13
2.53892e-13
5.12106e-15
-5.33913e-14
1.54421e-15
4.6418e-14
2.61321e-14
-3.60181e-15
8.40468e-15
-3.08926e-14
1.30568e-14
1.79459e-14
-4.44763e-14
7.47952e-14
6.56639e-14
1.55845e-14
2.25394e-14
-3.78653e-29
-1.90089e-08
-5.43721e-09
-7.60829e-08
7.74533e-09
1.15625e-08
-1.48885e-09
-7.01412e-09
7.0672e-10
1.27274e-09
-1.30295e-10
-4.78829e-10
4.86354e-11
1.39789e-10
-1.28173e-11
-3.56337e-11
3.20998e-12
1.16501e-11
-1.00718e-12
-3.15007e-12
2.72933e-13
9.62456e-13
-7.36926e-14
-2.47227e-13
4.31469e-14
8.10677e-14
-3.8148e-15
-1.18812e-14
1.8687e-14
2.50633e-14
5.44501e-14
-5.269e-16
3.06592e-15
3.2417e-15
-4.85243e-14
1.34082e-14
2.72814e-14
6.95498e-15
-1.89708e-14
1.35525e-14
2.1317e-08
3.63145e-09
8.23394e-08
-5.42649e-09
-1.23446e-08
1.06154e-09
7.59055e-09
-5.06252e-10
-1.3544e-09
1.00658e-10
5.14647e-10
-3.81006e-11
-1.49397e-10
1.03626e-11
3.78365e-11
-2.90313e-12
-1.23844e-11
8.76284e-13
3.34931e-12
-2.06502e-13
-9.93002e-13
3.56179e-14
2.86559e-13
-2.72414e-14
-6.61955e-14
-1.68213e-15
8.50182e-14
3.04543e-15
3.24527e-14
7.15506e-14
-4.49314e-14
7.47752e-15
-2.44846e-14
-1.75852e-14
-5.09761e-15
-2.42825e-14
-1.23732e-14
-2.36368e-14
1.35525e-14
-2.3112e-08
-4.92648e-10
-8.67043e-08
1.36169e-09
1.28999e-08
-1.52439e-10
-7.99614e-09
1.12664e-10
1.41695e-09
-6.97598e-12
-5.42385e-10
3.17057e-12
1.56856e-10
-3.79662e-13
-3.98634e-11
-2.30625e-13
1.30542e-11
2.93834e-16
-3.52019e-12
-3.84146e-14
1.00138e-12
2.10221e-14
-3.15483e-13
-1.34747e-14
6.75588e-14
-9.64234e-15
-1.04222e-14
2.3831e-14
4.65755e-14
1.8912e-14
3.48238e-14
1.14028e-14
-1.73831e-14
-7.05643e-15
-4.28217e-14
-5.36734e-14
2.28894e-15
-9.48231e-15
2.71051e-14
2.39811e-08
-1.42878e-09
8.79136e-08
1.18518e-09
-1.29397e-08
-3.00679e-10
8.10183e-09
1.07545e-10
-1.42076e-09
-2.3962e-11
5.45176e-10
8.23499e-12
-1.57466e-10
-2.22316e-12
3.9633e-11
5.34848e-13
-1.30923e-11
-2.53481e-13
3.5028e-12
2.98561e-15
-9.93831e-13
4.14764e-14
2.92366e-13
-1.12169e-14
-5.33701e-14
-1.91428e-14
5.31651e-14
2.64723e-14
-1.62608e-14
2.20812e-14
-3.04774e-14
-4.27729e-14
-4.33467e-14
-1.30239e-14
-2.0334e-14
-1.23906e-14
1.53338e-14
4.66284e-15
-1.35525e-14
-2.42247e-08
4.59811e-09
-8.70291e-08
-5.36123e-09
1.27466e-08
1.22727e-09
-8.01824e-09
-5.10796e-10
1.40503e-09
1.19358e-10
-5.39164e-10
-4.35522e-11
1.55778e-10
1.22313e-11
-3.93517e-11
-3.64159e-12
1.28418e-11
1.04971e-12
-3.45834e-12
-3.60862e-13
1.02409e-12
1.35772e-13
-3.22725e-13
-1.00702e-15
6.06997e-14
-1.47291e-14
-4.61157e-15
-3.70548e-14
-4.43091e-15
1.65057e-14
-2.53194e-14
-3.88755e-14
1.79322e-14
3.43554e-15
1.26062e-14
-1.26285e-14
-2.42235e-14
1.8759e-14
-2.71051e-14
2.34615e-08
-6.43985e-09
8.28951e-08
7.85359e-09
-1.20301e-08
-1.66429e-09
7.62681e-09
7.25671e-10
-1.32923e-09
-1.49608e-10
5.07843e-10
5.45986e-11
-1.47188e-10
-1.4915e-11
3.67598e-11
3.92591e-12
-1.2153e-11
-1.30623e-12
3.23325e-12
3.02174e-13
-8.89325e-13
-9.08241e-14
3.06989e-13
5.0252e-14
-1.12484e-13
-5.42623e-15
-1.59375e-14
-6.82682e-14
-1.79389e-14
3.65635e-15
-1.01206e-14
-3.47384e-14
-2.71252e-14
5.87285e-17
-6.47576e-15
-1.81074e-14
1.58774e-14
5.90248e-15
0
-2.20478e-08
9.05297e-09
-7.67058e-08
-1.13677e-08
1.10915e-08
2.43102e-09
-7.05074e-09
-1.06518e-09
1.23422e-09
2.28877e-10
-4.6816e-10
-8.36126e-11
1.36199e-10
2.30546e-11
-3.41401e-11
-6.4681e-12
1.11489e-11
1.97423e-12
-3.0219e-12
-5.86725e-13
8.48753e-13
1.29071e-13
-2.62163e-13
-7.42272e-14
3.87891e-14
-1.58785e-14
-4.86744e-14
-5.28881e-14
-1.31432e-14
-2.16947e-14
-2.45591e-14
-4.5334e-14
9.07651e-15
-6.20627e-15
-5.72916e-15
2.53602e-14
-9.97494e-15
-2.17327e-15
-1.35525e-14
1.97331e-08
-1.06977e-08
6.77691e-08
1.36019e-08
-9.72564e-09
-2.86378e-09
6.21444e-09
1.2609e-09
-1.08895e-09
-2.63114e-10
4.07602e-10
9.57196e-11
-1.19613e-10
-2.61747e-11
2.96462e-11
7.13913e-12
-9.76139e-12
-2.29527e-12
2.56425e-12
5.74539e-13
-7.9391e-13
-2.21799e-13
1.72058e-13
1.17954e-14
-1.07556e-13
-6.20002e-14
-2.59085e-14
-4.13102e-14
-5.38855e-14
-4.40753e-14
-2.69811e-14
2.00721e-14
1.00774e-14
-2.94451e-14
2.89161e-14
1.5566e-15
-5.75085e-15
-8.57207e-15
-1.35525e-14
-1.68288e-08
1.21727e-08
-5.7031e-08
-1.56132e-08
8.12276e-09
3.18476e-09
-5.21665e-09
-1.41228e-09
9.21559e-10
2.92465e-10
-3.38057e-10
-1.00613e-10
1.00577e-10
2.78555e-11
-2.48024e-11
-7.15017e-12
8.04065e-12
2.12833e-12
-2.21151e-12
-5.62181e-13
5.83907e-13
1.39368e-13
-2.22263e-13
-9.55247e-14
4.24528e-15
-1.31965e-15
-5.94771e-14
-4.70723e-14
2.98822e-14
-2.08585e-14
1.76081e-14
1.91926e-14
-3.7966e-14
-6.66062e-14
-3.59316e-14
1.6027e-16
-1.63737e-14
-3.51672e-14
0
1.33883e-08
-1.38763e-08
4.46025e-08
1.81384e-08
-6.35027e-09
-3.82113e-09
4.09684e-09
1.78558e-09
-7.29706e-10
-4.06539e-10
2.65299e-10
1.4356e-10
-7.98719e-11
-4.33023e-11
1.97805e-11
1.2348e-11
-6.47451e-12
-4.00868e-12
1.78869e-12
1.1517e-12
-5.40063e-13
-4.41055e-13
1.25418e-13
4.66811e-14
-5.26372e-14
-6.81013e-14
-8.45369e-15
-4.73589e-14
-3.15481e-14
6.22525e-15
-6.50217e-14
-9.7048e-14
-2.848e-14
-7.26442e-14
9.24648e-16
4.22772e-14
-1.87935e-14
-4.67116e-14
1.35525e-14
-9.12618e-09
1.47247e-08
-3.02853e-08
-1.88157e-08
4.31472e-09
2.27677e-09
-2.7178e-09
-8.76126e-10
4.66728e-10
-7.81451e-12
-1.65041e-10
1.00429e-11
4.89176e-11
-9.43158e-12
-1.14412e-11
5.23686e-12
3.61752e-12
-2.0142e-12
-1.07805e-12
4.95311e-13
1.4569e-13
-3.80739e-13
-1.46838e-13
1.14327e-14
-6.2823e-14
-1.31166e-13
-3.268e-14
-5.36298e-14
-5.92746e-14
2.09498e-14
-1.04671e-13
-8.02244e-14
-1.8871e-15
-2.44462e-14
-5.35909e-15
9.00653e-15
-1.43656e-14
-5.50232e-14
1.35525e-14
5.03516e-09
1.37463e-08
-2.91408e-09
1.83386e-09
-4.64499e-10
1.65653e-10
-5.31124e-11
1.46638e-11
-5.13641e-12
1.19262e-12
-5.14996e-13
2.71051e-14
-1.21973e-13
0
0
0
-1.35525e-14
-4.06576e-14
-2.71051e-14
)
;

boundaryField
{
    movingWall
    {
        type            calculated;
        value           nonuniform List<scalar> 
20
(
-2.8328e-08
3.83983e-08
-1.09057e-08
5.07756e-09
-1.40984e-09
4.80844e-10
-1.49539e-10
4.33139e-11
-1.39862e-11
3.71339e-12
-1.32815e-12
2.98156e-13
-2.43945e-13
0
0
0
0
-2.71051e-14
-5.42101e-14
0
)
;
    }
    fixedWalls
    {
        type            calculated;
        value           nonuniform List<scalar> 
60
(
3.53062e-09
-2.13197e-08
3.20494e-08
-5.29742e-08
7.49605e-08
-9.8616e-08
1.20279e-07
-1.39236e-07
1.55188e-07
-1.66062e-07
1.73325e-07
-1.7431e-07
1.71453e-07
-1.62256e-07
1.49377e-07
-1.31271e-07
1.09875e-07
-8.553e-08
5.77774e-08
-2.8328e-08
5.42101e-14
-2.71051e-14
0
-2.71051e-14
-2.71051e-14
2.71051e-14
0
-2.71051e-14
2.71051e-14
0
2.71051e-14
2.71051e-14
-5.42101e-14
0
0
-2.71051e-14
0
0
2.71051e-14
0
3.53062e-09
2.36831e-10
-2.61795e-09
1.57956e-09
-6.60713e-10
2.21643e-10
-8.01437e-11
2.26369e-11
-8.39751e-12
1.95221e-12
-8.62379e-13
1.04646e-13
-1.33356e-13
2.67854e-14
1.38999e-14
-3.91548e-14
1.19068e-14
-4.47876e-14
3.7681e-14
5.42101e-14
)
;
    }
    frontAndBack
    {
        type            empty;
    }
}


// ************************************************************************* //
