/*--------------------------------*- C++ -*----------------------------------*\
| =========                 |                                                 |
| \\      /  F ield         | OpenFOAM: The Open Source CFD Toolbox           |
|  \\    /   O peration     | Version:  2506                                  |
|   \\  /    A nd           | Website:  www.openfoam.com                      |
|    \\/     M anipulation  |                                                 |
\*---------------------------------------------------------------------------*/
FoamFile
{
    version     2.0;
    format      ascii;
    arch        "LSB;label=32;scalar=64";
    class       surfaceVectorField;
    location    "4";
    object      surfaceU;
}
// * * * * * * * * * * * * * * * * * * * * * * * * * * * * * * * * * * * * * //

dimensions      [0 1 -1 0 0 0 0];

internalField   nonuniform List<vector> 
760
(
(-1 2.3631e-08 0)
(-1 8.51815e-12 0)
(-1 -5.60301e-09 0)
(-1 -3.30607e-12 0)
(-1 1.33111e-09 0)
(-1 5.19817e-12 0)
(-1 -3.15341e-10 0)
(-1 -6.59532e-13 0)
(-1 7.51012e-11 0)
(-1 9.66022e-13 0)
(-1 -1.76906e-11 0)
(-1 1.49325e-14 0)
(-1 4.27464e-12 0)
(-1 1.85564e-13 0)
(-1 -9.70055e-13 0)
(-1 5.11138e-14 0)
(-1 2.58528e-13 0)
(-1 5.34222e-14 0)
(-1 -4.26925e-14 0)
(-1 2.91411e-14 0)
(-1 2.29755e-14 0)
(-1 2.22511e-14 0)
(-1 3.64316e-15 0)
(-1 1.516e-14 0)
(-1 5.77158e-15 0)
(-1 1.12594e-14 0)
(-1 3.56034e-15 0)
(-1 8.26544e-15 0)
(-1 2.83173e-15 0)
(-1 6.16814e-15 0)
(-1 2.05895e-15 0)
(-1 4.54761e-15 0)
(-1 1.52292e-15 0)
(-1 3.44767e-15 0)
(-1 1.00693e-15 0)
(-1 2.62209e-15 0)
(-1 3.35832e-16 0)
(-1 1.40813e-15 0)
(-1 -5.99914e-17 0)
(-1 -2.36258e-08 0)
(-1 -3.07975e-11 0)
(-1 5.60491e-09 0)
(-1 1.64558e-11 0)
(-1 -1.32658e-09 0)
(-1 -1.23409e-12 0)
(-1 3.15647e-10 0)
(-1 1.75106e-12 0)
(-1 -7.41203e-11 0)
(-1 4.02287e-13 0)
(-1 1.78911e-11 0)
(-1 3.3087e-13 0)
(-1 -4.03796e-12 0)
(-1 1.97016e-13 0)
(-1 1.07459e-12 0)
(-1 1.2081e-13 0)
(-1 -1.75964e-13 0)
(-1 8.4065e-14 0)
(-1 9.40847e-14 0)
(-1 5.59727e-14 0)
(-1 1.44355e-14 0)
(-1 4.01376e-14 0)
(-1 2.27762e-14 0)
(-1 2.87673e-14 0)
(-1 1.37533e-14 0)
(-1 2.12789e-14 0)
(-1 1.08732e-14 0)
(-1 1.56925e-14 0)
(-1 7.88402e-15 0)
(-1 1.16795e-14 0)
(-1 5.93632e-15 0)
(-1 8.67002e-15 0)
(-1 4.54684e-15 0)
(-1 6.64442e-15 0)
(-1 3.0233e-15 0)
(-1 5.08617e-15 0)
(-1 1.01231e-15 0)
(-1 2.68862e-15 0)
(-1 -6.95968e-17 0)
(-1 2.36114e-08 0)
(-1 1.75972e-11 0)
(-1 -5.58969e-09 0)
(-1 -1.04517e-11 0)
(-1 1.32709e-09 0)
(-1 3.74182e-12 0)
(-1 -3.13494e-10 0)
(-1 -4.76859e-13 0)
(-1 7.48534e-11 0)
(-1 7.87033e-13 0)
(-1 -1.73632e-11 0)
(-1 2.15181e-13 0)
(-1 4.35579e-12 0)
(-1 2.42183e-13 0)
(-1 -8.69715e-13 0)
(-1 1.36788e-13 0)
(-1 3.16002e-13 0)
(-1 1.04133e-13 0)
(-1 2.02567e-15 0)
(-1 7.15532e-14 0)
(-1 5.44694e-14 0)
(-1 5.26294e-14 0)
(-1 2.727e-14 0)
(-1 3.86938e-14 0)
(-1 2.32182e-14 0)
(-1 2.9087e-14 0)
(-1 1.64988e-14 0)
(-1 2.16692e-14 0)
(-1 1.24655e-14 0)
(-1 1.61835e-14 0)
(-1 9.37812e-15 0)
(-1 1.21582e-14 0)
(-1 7.18375e-15 0)
(-1 9.38591e-15 0)
(-1 4.75149e-15 0)
(-1 7.24519e-15 0)
(-1 1.60671e-15 0)
(-1 3.80164e-15 0)
(-1 -8.69372e-17 0)
(-1 -2.36043e-08 0)
(-1 -1.31516e-11 0)
(-1 5.58298e-09 0)
(-1 6.16289e-12 0)
(-1 -1.32383e-09 0)
(-1 -1.08651e-12 0)
(-1 3.13804e-10 0)
(-1 8.62265e-13 0)
(-1 -7.38512e-11 0)
(-1 1.93337e-13 0)
(-1 1.78205e-11 0)
(-1 2.84923e-13 0)
(-1 -3.97682e-12 0)
(-1 1.8245e-13 0)
(-1 1.11064e-12 0)
(-1 1.4371e-13 0)
(-1 -1.40316e-13 0)
(-1 1.04581e-13 0)
(-1 1.22157e-13 0)
(-1 7.82552e-14 0)
(-1 3.68538e-14 0)
(-1 5.85517e-14 0)
(-1 4.05109e-14 0)
(-1 4.43641e-14 0)
(-1 2.75381e-14 0)
(-1 3.393e-14 0)
(-1 2.13539e-14 0)
(-1 2.5736e-14 0)
(-1 1.58762e-14 0)
(-1 1.9442e-14 0)
(-1 1.2166e-14 0)
(-1 1.47249e-14 0)
(-1 9.44736e-15 0)
(-1 1.14543e-14 0)
(-1 6.29534e-15 0)
(-1 8.9972e-15 0)
(-1 2.10799e-15 0)
(-1 4.77249e-15 0)
(-1 -5.80526e-17 0)
(-1 2.35973e-08 0)
(-1 -1.30556e-13 0)
(-1 -5.5779e-09 0)
(-1 -8.11733e-13 0)
(-1 1.3236e-09 0)
(-1 4.59612e-13 0)
(-1 -3.12749e-10 0)
(-1 9.15287e-14 0)
(-1 7.43295e-11 0)
(-1 2.53342e-13 0)
(-1 -1.73532e-11 0)
(-1 1.79069e-13 0)
(-1 4.30298e-12 0)
(-1 1.60246e-13 0)
(-1 -8.62344e-13 0)
(-1 1.24219e-13 0)
(-1 3.23152e-13 0)
(-1 9.8427e-14 0)
(-1 1.46499e-14 0)
(-1 7.62806e-14 0)
(-1 6.60619e-14 0)
(-1 5.93308e-14 0)
(-1 3.77831e-14 0)
(-1 4.61259e-14 0)
(-1 3.21279e-14 0)
(-1 3.59999e-14 0)
(-1 2.38241e-14 0)
(-1 2.78411e-14 0)
(-1 1.82908e-14 0)
(-1 2.1373e-14 0)
(-1 1.40133e-14 0)
(-1 1.6319e-14 0)
(-1 1.10042e-14 0)
(-1 1.27603e-14 0)
(-1 7.47435e-15 0)
(-1 1.01525e-14 0)
(-1 2.60645e-15 0)
(-1 5.50435e-15 0)
(-1 -1.05395e-16 0)
(-1 -2.35982e-08 0)
(-1 1.07655e-11 0)
(-1 5.57755e-09 0)
(-1 -3.77153e-12 0)
(-1 -1.32305e-09 0)
(-1 1.03148e-12 0)
(-1 3.13093e-10 0)
(-1 -1.50055e-13 0)
(-1 -7.38971e-11 0)
(-1 2.28316e-13 0)
(-1 1.76925e-11 0)
(-1 1.15221e-13 0)
(-1 -4.01851e-12 0)
(-1 1.2976e-13 0)
(-1 1.08499e-12 0)
(-1 1.02291e-13 0)
(-1 -1.48445e-13 0)
(-1 8.67139e-14 0)
(-1 1.20962e-13 0)
(-1 6.96371e-14 0)
(-1 3.93949e-14 0)
(-1 5.61616e-14 0)
(-1 4.43427e-14 0)
(-1 4.48115e-14 0)
(-1 3.1713e-14 0)
(-1 3.57941e-14 0)
(-1 2.53899e-14 0)
(-1 2.82026e-14 0)
(-1 1.94013e-14 0)
(-1 2.19409e-14 0)
(-1 1.50661e-14 0)
(-1 1.69492e-14 0)
(-1 1.19086e-14 0)
(-1 1.34607e-14 0)
(-1 8.18252e-15 0)
(-1 1.08632e-14 0)
(-1 2.79251e-15 0)
(-1 5.87483e-15 0)
(-1 -3.07534e-16 0)
(-1 2.36052e-08 0)
(-1 -2.42874e-11 0)
(-1 -5.58029e-09 0)
(-1 7.73306e-12 0)
(-1 1.32393e-09 0)
(-1 -1.84393e-12 0)
(-1 -3.13015e-10 0)
(-1 6.19156e-13 0)
(-1 7.42406e-11 0)
(-1 -5.67124e-14 0)
(-1 -1.74475e-11 0)
(-1 1.37284e-13 0)
(-1 4.25056e-12 0)
(-1 8.18227e-14 0)
(-1 -8.95985e-13 0)
(-1 8.65199e-14 0)
(-1 3.04796e-13 0)
(-1 7.13292e-14 0)
(-1 4.83725e-15 0)
(-1 6.11105e-14 0)
(-1 6.15783e-14 0)
(-1 5.0454e-14 0)
(-1 3.62629e-14 0)
(-1 4.1422e-14 0)
(-1 3.22836e-14 0)
(-1 3.37401e-14 0)
(-1 2.47535e-14 0)
(-1 2.70466e-14 0)
(-1 1.94888e-14 0)
(-1 2.1356e-14 0)
(-1 1.53439e-14 0)
(-1 1.67444e-14 0)
(-1 1.24153e-14 0)
(-1 1.36066e-14 0)
(-1 8.55553e-15 0)
(-1 1.11667e-14 0)
(-1 2.77478e-15 0)
(-1 5.97356e-15 0)
(-1 -4.99281e-16 0)
(-1 -2.36218e-08 0)
(-1 3.50983e-11 0)
(-1 5.58618e-09 0)
(-1 -1.14956e-11 0)
(-1 -1.32516e-09 0)
(-1 2.81177e-12 0)
(-1 3.13578e-10 0)
(-1 -7.9815e-13 0)
(-1 -7.416e-11 0)
(-1 2.88608e-13 0)
(-1 1.76666e-11 0)
(-1 6.52507e-15 0)
(-1 -4.08222e-12 0)
(-1 8.66069e-14 0)
(-1 1.05383e-12 0)
(-1 6.00269e-14 0)
(-1 -1.72356e-13 0)
(-1 5.97264e-14 0)
(-1 1.06727e-13 0)
(-1 5.07192e-14 0)
(-1 3.02978e-14 0)
(-1 4.37877e-14 0)
(-1 3.88992e-14 0)
(-1 3.67449e-14 0)
(-1 2.85031e-14 0)
(-1 3.05751e-14 0)
(-1 2.36492e-14 0)
(-1 2.48629e-14 0)
(-1 1.86116e-14 0)
(-1 1.9918e-14 0)
(-1 1.50071e-14 0)
(-1 1.58247e-14 0)
(-1 1.2358e-14 0)
(-1 1.31399e-14 0)
(-1 8.58478e-15 0)
(-1 1.10276e-14 0)
(-1 2.6995e-15 0)
(-1 5.84791e-15 0)
(-1 -7.15352e-16 0)
(-1 2.36454e-08 0)
(-1 -4.60122e-11 0)
(-1 -5.59486e-09 0)
(-1 1.4396e-11 0)
(-1 1.32717e-09 0)
(-1 -3.49832e-12 0)
(-1 -3.14087e-10 0)
(-1 1.04553e-12 0)
(-1 7.44552e-11 0)
(-1 -2.37782e-13 0)
(-1 -1.75735e-11 0)
(-1 1.19247e-13 0)
(-1 4.22886e-12 0)
(-1 2.92419e-14 0)
(-1 -9.34081e-13 0)
(-1 5.44628e-14 0)
(-1 2.82802e-13 0)
(-1 4.4294e-14 0)
(-1 -1.22204e-14 0)
(-1 4.18498e-14 0)
(-1 5.02349e-14 0)
(-1 3.62894e-14 0)
(-1 2.84208e-14 0)
(-1 3.14755e-14 0)
(-1 2.69349e-14 0)
(-1 2.67676e-14 0)
(-1 2.11318e-14 0)
(-1 2.21546e-14 0)
(-1 1.7131e-14 0)
(-1 1.79776e-14 0)
(-1 1.39574e-14 0)
(-1 1.43925e-14 0)
(-1 1.18094e-14 0)
(-1 1.21652e-14 0)
(-1 8.29068e-15 0)
(-1 1.05e-14 0)
(-1 2.43305e-15 0)
(-1 5.49056e-15 0)
(-1 -1.00134e-15 0)
(-1 -2.3677e-08 0)
(-1 5.41857e-11 0)
(-1 5.60576e-09 0)
(-1 -1.69939e-11 0)
(-1 -1.32962e-09 0)
(-1 4.11855e-12 0)
(-1 3.14895e-10 0)
(-1 -1.19979e-12 0)
(-1 -7.45737e-11 0)
(-1 3.47679e-13 0)
(-1 1.7722e-11 0)
(-1 -5.50538e-14 0)
(-1 -4.14515e-12 0)
(-1 5.91545e-14 0)
(-1 1.03284e-12 0)
(-1 2.92722e-14 0)
(-1 -1.96658e-13 0)
(-1 3.64361e-14 0)
(-1 9.03597e-14 0)
(-1 3.18947e-14 0)
(-1 1.753e-14 0)
(-1 2.93811e-14 0)
(-1 2.98222e-14 0)
(-1 2.58766e-14 0)
(-1 2.19872e-14 0)
(-1 2.2661e-14 0)
(-1 1.90004e-14 0)
(-1 1.90964e-14 0)
(-1 1.52391e-14 0)
(-1 1.57706e-14 0)
(-1 1.26003e-14 0)
(-1 1.27432e-14 0)
(-1 1.08557e-14 0)
(-1 1.0931e-14 0)
(-1 7.69986e-15 0)
(-1 9.69505e-15 0)
(-1 2.05617e-15 0)
(-1 5.02623e-15 0)
(-1 -1.20532e-15 0)
(-1 2.37142e-08 0)
(-1 -6.10921e-11 0)
(-1 -5.61863e-09 0)
(-1 1.88145e-11 0)
(-1 1.33254e-09 0)
(-1 -4.55904e-12 0)
(-1 -3.15747e-10 0)
(-1 1.33237e-12 0)
(-1 7.48663e-11 0)
(-1 -3.3843e-13 0)
(-1 -1.77179e-11 0)
(-1 1.12337e-13 0)
(-1 4.23358e-12 0)
(-1 -3.23365e-15 0)
(-1 -9.6713e-13 0)
(-1 3.14143e-14 0)
(-1 2.64989e-13 0)
(-1 2.30132e-14 0)
(-1 -2.90839e-14 0)
(-1 2.45872e-14 0)
(-1 3.77276e-14 0)
(-1 2.23392e-14 0)
(-1 1.87154e-14 0)
(-1 2.06072e-14 0)
(-1 1.97702e-14 0)
(-1 1.85218e-14 0)
(-1 1.58666e-14 0)
(-1 1.58995e-14 0)
(-1 1.32747e-14 0)
(-1 1.32697e-14 0)
(-1 1.10739e-14 0)
(-1 1.0913e-14 0)
(-1 9.77033e-15 0)
(-1 9.62852e-15 0)
(-1 7.02142e-15 0)
(-1 8.76461e-15 0)
(-1 1.76474e-15 0)
(-1 4.49522e-15 0)
(-1 -1.34661e-15 0)
(-1 -2.37565e-08 0)
(-1 6.48841e-11 0)
(-1 5.63289e-09 0)
(-1 -1.98182e-11 0)
(-1 -1.33577e-09 0)
(-1 4.80813e-12 0)
(-1 3.16741e-10 0)
(-1 -1.38182e-12 0)
(-1 -7.50924e-11 0)
(-1 3.74651e-13 0)
(-1 1.7827e-11 0)
(-1 -8.70006e-14 0)
(-1 -4.2054e-12 0)
(-1 3.9417e-14 0)
(-1 1.02156e-12 0)
(-1 7.61469e-15 0)
(-1 -2.17388e-13 0)
(-1 1.80539e-14 0)
(-1 7.60102e-14 0)
(-1 1.59573e-14 0)
(-1 5.21881e-15 0)
(-1 1.63602e-14 0)
(-1 2.04137e-14 0)
(-1 1.54433e-14 0)
(-1 1.46511e-14 0)
(-1 1.44499e-14 0)
(-1 1.33026e-14 0)
(-1 1.26635e-14 0)
(-1 1.0908e-14 0)
(-1 1.07719e-14 0)
(-1 9.46761e-15 0)
(-1 9.12326e-15 0)
(-1 8.6228e-15 0)
(-1 8.32578e-15 0)
(-1 6.23841e-15 0)
(-1 7.77484e-15 0)
(-1 1.38388e-15 0)
(-1 3.81252e-15 0)
(-1 -1.53023e-15 0)
(-1 2.38015e-08 0)
(-1 -6.66845e-11 0)
(-1 -5.6479e-09 0)
(-1 2.03123e-11 0)
(-1 1.3392e-09 0)
(-1 -4.91481e-12 0)
(-1 -3.17748e-10 0)
(-1 1.41359e-12 0)
(-1 7.53801e-11 0)
(-1 -3.77102e-13 0)
(-1 -1.78745e-11 0)
(-1 9.80642e-14 0)
(-1 4.25243e-12 0)
(-1 -2.47858e-14 0)
(-1 -9.95888e-13 0)
(-1 1.29126e-14 0)
(-1 2.514e-13 0)
(-1 6.10973e-15 0)
(-1 -4.36927e-14 0)
(-1 1.02289e-14 0)
(-1 2.65847e-14 0)
(-1 1.0482e-14 0)
(-1 9.47951e-15 0)
(-1 1.0872e-14 0)
(-1 1.24623e-14 0)
(-1 1.05664e-14 0)
(-1 1.01328e-14 0)
(-1 9.55627e-15 0)
(-1 8.98712e-15 0)
(-1 8.42248e-15 0)
(-1 7.98143e-15 0)
(-1 7.38967e-15 0)
(-1 7.47781e-15 0)
(-1 6.99386e-15 0)
(-1 5.34895e-15 0)
(-1 6.73798e-15 0)
(-1 8.98414e-16 0)
(-1 3.1459e-15 0)
(-1 -1.70719e-15 0)
(-1 -2.38479e-08 0)
(-1 6.51127e-11 0)
(-1 5.6633e-09 0)
(-1 -1.94407e-11 0)
(-1 -1.3427e-09 0)
(-1 4.71345e-12 0)
(-1 3.18785e-10 0)
(-1 -1.34123e-12 0)
(-1 -7.56591e-11 0)
(-1 3.37397e-13 0)
(-1 1.79478e-11 0)
(-1 -1.03158e-13 0)
(-1 -4.2643e-12 0)
(-1 1.72659e-14 0)
(-1 1.01491e-12 0)
(-1 -9.61961e-15 0)
(-1 -2.35061e-13 0)
(-1 2.49006e-15 0)
(-1 6.44036e-14 0)
(-1 3.23865e-15 0)
(-1 -5.23069e-15 0)
(-1 5.7835e-15 0)
(-1 1.19588e-14 0)
(-1 6.73624e-15 0)
(-1 7.66033e-15 0)
(-1 7.3112e-15 0)
(-1 7.84596e-15 0)
(-1 6.87832e-15 0)
(-1 6.82503e-15 0)
(-1 6.24378e-15 0)
(-1 6.40211e-15 0)
(-1 5.63858e-15 0)
(-1 6.25404e-15 0)
(-1 5.64434e-15 0)
(-1 4.53494e-15 0)
(-1 5.73958e-15 0)
(-1 5.40293e-16 0)
(-1 2.59823e-15 0)
(-1 -1.74737e-15 0)
(-1 2.38936e-08 0)
(-1 -6.11996e-11 0)
(-1 -5.67802e-09 0)
(-1 1.84e-11 0)
(-1 1.34607e-09 0)
(-1 -4.49524e-12 0)
(-1 -3.19788e-10 0)
(-1 1.23242e-12 0)
(-1 7.58934e-11 0)
(-1 -3.7021e-13 0)
(-1 -1.80337e-11 0)
(-1 6.12354e-14 0)
(-1 4.27195e-12 0)
(-1 -4.3494e-14 0)
(-1 -1.02204e-12 0)
(-1 -5.06036e-15 0)
(-1 2.4079e-13 0)
(-1 -7.42085e-15 0)
(-1 -5.53815e-14 0)
(-1 -8.94536e-16 0)
(-1 1.77504e-14 0)
(-1 1.30425e-15 0)
(-1 2.0886e-15 0)
(-1 3.38858e-15 0)
(-1 6.52919e-15 0)
(-1 4.56076e-15 0)
(-1 5.27614e-15 0)
(-1 4.7718e-15 0)
(-1 5.05734e-15 0)
(-1 4.49928e-15 0)
(-1 4.88081e-15 0)
(-1 4.17844e-15 0)
(-1 5.12988e-15 0)
(-1 4.38512e-15 0)
(-1 3.80287e-15 0)
(-1 4.65032e-15 0)
(-1 3.10569e-16 0)
(-1 2.06865e-15 0)
(-1 -1.62535e-15 0)
(-1 -2.39364e-08 0)
(-1 5.46441e-11 0)
(-1 5.69193e-09 0)
(-1 -1.58559e-11 0)
(-1 -1.34933e-09 0)
(-1 3.74229e-12 0)
(-1 3.20651e-10 0)
(-1 -1.10427e-12 0)
(-1 -7.62023e-11 0)
(-1 2.04487e-13 0)
(-1 1.80515e-11 0)
(-1 -1.11721e-13 0)
(-1 -4.3205e-12 0)
(-1 -1.27319e-14 0)
(-1 1.00956e-12 0)
(-1 -2.31643e-14 0)
(-1 -2.49105e-13 0)
(-1 -9.69972e-15 0)
(-1 5.57912e-14 0)
(-1 -5.51481e-15 0)
(-1 -1.30576e-14 0)
(-1 -1.63984e-15 0)
(-1 5.86074e-15 0)
(-1 7.48059e-16 0)
(-1 2.80337e-15 0)
(-1 2.32777e-15 0)
(-1 3.99494e-15 0)
(-1 2.96636e-15 0)
(-1 3.62038e-15 0)
(-1 3.00872e-15 0)
(-1 3.68274e-15 0)
(-1 2.95764e-15 0)
(-1 3.90555e-15 0)
(-1 3.27776e-15 0)
(-1 2.9161e-15 0)
(-1 3.59928e-15 0)
(-1 1.32735e-16 0)
(-1 1.56879e-15 0)
(-1 -1.4524e-15 0)
(-1 2.39752e-08 0)
(-1 -4.50655e-11 0)
(-1 -5.70404e-09 0)
(-1 1.31216e-11 0)
(-1 1.35197e-09 0)
(-1 -3.67696e-12 0)
(-1 -3.2155e-10 0)
(-1 8.0055e-13 0)
(-1 7.62951e-11 0)
(-1 -3.75568e-13 0)
(-1 -1.81759e-11 0)
(-1 1.84608e-14 0)
(-1 4.28461e-12 0)
(-1 -6.02284e-14 0)
(-1 -1.04242e-12 0)
(-1 -1.57619e-14 0)
(-1 2.33891e-13 0)
(-1 -1.52859e-14 0)
(-1 -6.29459e-14 0)
(-1 -6.49361e-15 0)
(-1 1.21658e-14 0)
(-1 -3.42417e-15 0)
(-1 -2.78491e-15 0)
(-1 -6.30105e-16 0)
(-1 2.49076e-15 0)
(-1 8.46935e-16 0)
(-1 1.98014e-15 0)
(-1 1.63497e-15 0)
(-1 2.34598e-15 0)
(-1 1.83601e-15 0)
(-1 2.55266e-15 0)
(-1 1.98647e-15 0)
(-1 2.97149e-15 0)
(-1 2.3909e-15 0)
(-1 2.25197e-15 0)
(-1 2.78598e-15 0)
(-1 -1.63415e-17 0)
(-1 1.19152e-15 0)
(-1 -1.22741e-15 0)
(-1 -2.40071e-08 0)
(-1 3.69529e-11 0)
(-1 5.71349e-09 0)
(-1 -1.08324e-11 0)
(-1 -1.35485e-09 0)
(-1 1.41394e-12 0)
(-1 3.21975e-10 0)
(-1 -3.61396e-13 0)
(-1 -7.66522e-11 0)
(-1 -1.24637e-13 0)
(-1 1.81341e-11 0)
(-1 -1.98078e-14 0)
(-1 -4.3606e-12 0)
(-1 -5.31552e-14 0)
(-1 1.01138e-12 0)
(-1 -1.29138e-14 0)
(-1 -2.5567e-13 0)
(-1 -1.43883e-14 0)
(-1 5.30281e-14 0)
(-1 -5.36236e-15 0)
(-1 -1.62201e-14 0)
(-1 -3.31366e-15 0)
(-1 3.00174e-15 0)
(-1 -8.67243e-16 0)
(-1 -8.85532e-18 0)
(-1 2.24071e-16 0)
(-1 1.49085e-15 0)
(-1 8.7586e-16 0)
(-1 1.4765e-15 0)
(-1 1.07248e-15 0)
(-1 1.82471e-15 0)
(-1 1.18702e-15 0)
(-1 2.20539e-15 0)
(-1 1.5509e-15 0)
(-1 1.72552e-15 0)
(-1 1.95901e-15 0)
(-1 -1.95505e-17 0)
(-1 8.96268e-16 0)
(-1 -9.12899e-16 0)
(-1 2.40332e-08 0)
(-1 -3.06131e-11 0)
(-1 -5.7229e-09 0)
(-1 2.01059e-11 0)
(-1 1.3559e-09 0)
(-1 -7.11086e-12 0)
(-1 -3.22461e-10 0)
(-1 2.47704e-12 0)
(-1 7.65078e-11 0)
(-1 -9.70579e-13 0)
(-1 -1.82071e-11 0)
(-1 2.50049e-13 0)
(-1 4.29453e-12 0)
(-1 -1.15322e-13 0)
(-1 -1.03868e-12 0)
(-1 1.72676e-14 0)
(-1 2.35919e-13 0)
(-1 -1.55341e-14 0)
(-1 -6.17041e-14 0)
(-1 -8.74477e-16 0)
(-1 1.20392e-14 0)
(-1 -2.58766e-15 0)
(-1 -3.64491e-15 0)
(-1 -4.27775e-16 0)
(-1 1.10879e-15 0)
(-1 -9.19323e-17 0)
(-1 4.57494e-16 0)
(-1 2.76854e-16 0)
(-1 7.83003e-16 0)
(-1 3.45023e-16 0)
(-1 9.1321e-16 0)
(-1 4.17483e-16 0)
(-1 1.30452e-15 0)
(-1 7.04215e-16 0)
(-1 1.12976e-15 0)
(-1 1.03874e-15 0)
(-1 2.91872e-18 0)
(-1 5.3397e-16 0)
(-1 -5.22601e-16 0)
(-1 -2.40437e-08 0)
(-1 5.7359e-09 0)
(-1 -1.36053e-09 0)
(-1 3.23968e-10 0)
(-1 -7.72283e-11 0)
(-1 1.83418e-11 0)
(-1 -4.39258e-12 0)
(-1 1.04041e-12 0)
(-1 -2.52328e-13 0)
(-1 5.8242e-14 0)
(-1 -1.50546e-14 0)
(-1 3.1252e-15 0)
(-1 -9.23865e-16 0)
(-1 1.64383e-16 0)
(-1 -2.04961e-17 0)
(-1 2.08489e-16 0)
(-1 4.38438e-16 0)
(-1 4.42955e-16 0)
(-1 8.45029e-18 0)
)
;

boundaryField
{
    movingWall
    {
        type            calculated;
        value           uniform (-1 -0 -0);
    }
    fixedWalls
    {
        type            calculated;
        value           uniform (-1 -0 -0);
    }
    frontAndBack
    {
        type            empty;
    }
}


// ************************************************************************* //
