/*--------------------------------*- C++ -*----------------------------------*\
| =========                 |                                                 |
| \\      /  F ield         | OpenFOAM: The Open Source CFD Toolbox           |
|  \\    /   O peration     | Version:  2506                                  |
|   \\  /    A nd           | Website:  www.openfoam.com                      |
|    \\/     M anipulation  |                                                 |
\*---------------------------------------------------------------------------*/
FoamFile
{
    version     2.0;
    format      ascii;
    arch        "LSB;label=32;scalar=64";
    class       surfaceScalarField;
    location    "4";
    object      surfaceK;
}
// * * * * * * * * * * * * * * * * * * * * * * * * * * * * * * * * * * * * * //

dimensions      [0 2 -2 0 0 0 0];

internalField   nonuniform List<scalar> 
760
(
2.72864e-05
3.01228e-05
2.72862e-05
3.01227e-05
2.72861e-05
3.01184e-05
2.72859e-05
3.01167e-05
2.72858e-05
3.01138e-05
2.72857e-05
3.01122e-05
2.72856e-05
3.01099e-05
2.72855e-05
3.01083e-05
2.72854e-05
3.01066e-05
2.72853e-05
3.0105e-05
2.72852e-05
3.01038e-05
2.72852e-05
3.01023e-05
2.72851e-05
3.01016e-05
2.72851e-05
3.01004e-05
2.72851e-05
3.00999e-05
2.72851e-05
3.00991e-05
2.72851e-05
3.00987e-05
2.7285e-05
3.00984e-05
2.7285e-05
3.00982e-05
3.00982e-05
3.29591e-05
3.6523e-05
3.29549e-05
3.65228e-05
3.2949e-05
3.65122e-05
3.29446e-05
3.65083e-05
3.29402e-05
3.65012e-05
3.29364e-05
3.64974e-05
3.29326e-05
3.64917e-05
3.29294e-05
3.64879e-05
3.29262e-05
3.64837e-05
3.29234e-05
3.64799e-05
3.29209e-05
3.6477e-05
3.29187e-05
3.64735e-05
3.29169e-05
3.64716e-05
3.29152e-05
3.6469e-05
3.29139e-05
3.64675e-05
3.29128e-05
3.64658e-05
3.29121e-05
3.64648e-05
3.29116e-05
3.64641e-05
3.29114e-05
3.64636e-05
3.64635e-05
4.00867e-05
4.28796e-05
4.00801e-05
4.28791e-05
4.00715e-05
4.28646e-05
4.00649e-05
4.28591e-05
4.00584e-05
4.28493e-05
4.00527e-05
4.28441e-05
4.0047e-05
4.28361e-05
4.00422e-05
4.2831e-05
4.00375e-05
4.2825e-05
4.00335e-05
4.28199e-05
4.00296e-05
4.28158e-05
4.00264e-05
4.28112e-05
4.00237e-05
4.28083e-05
4.00213e-05
4.2805e-05
4.00194e-05
4.28027e-05
4.00178e-05
4.28006e-05
4.00168e-05
4.27991e-05
4.00161e-05
4.27981e-05
4.00157e-05
4.27975e-05
4.27973e-05
4.5672e-05
4.74495e-05
4.56636e-05
4.7449e-05
4.56523e-05
4.74312e-05
4.56435e-05
4.74244e-05
4.5635e-05
4.74122e-05
4.56276e-05
4.7406e-05
4.56201e-05
4.73959e-05
4.56138e-05
4.73901e-05
4.56075e-05
4.7382e-05
4.56022e-05
4.73766e-05
4.55974e-05
4.73705e-05
4.55932e-05
4.73659e-05
4.55896e-05
4.73614e-05
4.55864e-05
4.73579e-05
4.55839e-05
4.73546e-05
4.55818e-05
4.73523e-05
4.55804e-05
4.73503e-05
4.55795e-05
4.73492e-05
4.5579e-05
4.73484e-05
4.73481e-05
4.92265e-05
5.02534e-05
4.92165e-05
5.0253e-05
4.92033e-05
5.02324e-05
4.91931e-05
5.02254e-05
4.91832e-05
5.02111e-05
4.91743e-05
5.02047e-05
4.91658e-05
5.01925e-05
4.91582e-05
5.01869e-05
4.9151e-05
5.01766e-05
4.91449e-05
5.01719e-05
4.9139e-05
5.01637e-05
4.91341e-05
5.01597e-05
4.91297e-05
5.01536e-05
4.91261e-05
5.01504e-05
4.91231e-05
5.01461e-05
4.91208e-05
5.0144e-05
4.91191e-05
5.01414e-05
4.91181e-05
5.01403e-05
4.91175e-05
5.01394e-05
5.01391e-05
5.12799e-05
5.1862e-05
5.12689e-05
5.18618e-05
5.12545e-05
5.18393e-05
5.12434e-05
5.18322e-05
5.12326e-05
5.18167e-05
5.12229e-05
5.181e-05
5.12136e-05
5.17968e-05
5.12053e-05
5.17909e-05
5.11975e-05
5.17799e-05
5.11907e-05
5.17749e-05
5.11844e-05
5.1766e-05
5.11791e-05
5.1762e-05
5.11742e-05
5.17551e-05
5.11704e-05
5.1752e-05
5.1167e-05
5.17473e-05
5.11646e-05
5.1745e-05
5.11626e-05
5.17423e-05
5.11616e-05
5.17411e-05
5.11609e-05
5.17401e-05
5.17397e-05
5.24439e-05
5.27928e-05
5.24321e-05
5.27925e-05
5.2417e-05
5.27692e-05
5.24055e-05
5.27618e-05
5.23941e-05
5.27458e-05
5.23839e-05
5.27388e-05
5.23741e-05
5.2725e-05
5.23655e-05
5.27191e-05
5.23573e-05
5.27075e-05
5.23502e-05
5.27025e-05
5.23436e-05
5.26931e-05
5.2338e-05
5.2689e-05
5.23329e-05
5.26817e-05
5.23288e-05
5.26786e-05
5.23253e-05
5.26735e-05
5.23227e-05
5.26713e-05
5.23207e-05
5.26685e-05
5.23196e-05
5.26672e-05
5.23189e-05
5.26662e-05
5.26658e-05
5.31414e-05
5.3379e-05
5.31295e-05
5.33784e-05
5.31141e-05
5.33552e-05
5.31021e-05
5.33471e-05
5.30905e-05
5.33311e-05
5.30799e-05
5.33236e-05
5.307e-05
5.33098e-05
5.3061e-05
5.33034e-05
5.30526e-05
5.32919e-05
5.30453e-05
5.32863e-05
5.30384e-05
5.32773e-05
5.30327e-05
5.32723e-05
5.30275e-05
5.32658e-05
5.30233e-05
5.32616e-05
5.30196e-05
5.32574e-05
5.30171e-05
5.32543e-05
5.3015e-05
5.3252e-05
5.30139e-05
5.32504e-05
5.30132e-05
5.32495e-05
5.32491e-05
5.3616e-05
5.38061e-05
5.36041e-05
5.38054e-05
5.35882e-05
5.37818e-05
5.35761e-05
5.37734e-05
5.35642e-05
5.37574e-05
5.35535e-05
5.37494e-05
5.35433e-05
5.3736e-05
5.35343e-05
5.37287e-05
5.35256e-05
5.3718e-05
5.35183e-05
5.37111e-05
5.35111e-05
5.37033e-05
5.35054e-05
5.36967e-05
5.35e-05
5.36917e-05
5.34957e-05
5.36858e-05
5.34921e-05
5.3683e-05
5.34892e-05
5.36787e-05
5.34874e-05
5.36771e-05
5.3486e-05
5.3675e-05
5.34854e-05
5.36743e-05
5.36739e-05
5.39955e-05
5.41707e-05
5.39832e-05
5.417e-05
5.3967e-05
5.41461e-05
5.39548e-05
5.41376e-05
5.39426e-05
5.41213e-05
5.39319e-05
5.41132e-05
5.39213e-05
5.40995e-05
5.39123e-05
5.40921e-05
5.39034e-05
5.40812e-05
5.38961e-05
5.40743e-05
5.38888e-05
5.40664e-05
5.3883e-05
5.40597e-05
5.38775e-05
5.40546e-05
5.38731e-05
5.40487e-05
5.38696e-05
5.40457e-05
5.38666e-05
5.40415e-05
5.38648e-05
5.40397e-05
5.38633e-05
5.40378e-05
5.38628e-05
5.4037e-05
5.40366e-05
5.43453e-05
5.45238e-05
5.43329e-05
5.45231e-05
5.43167e-05
5.4499e-05
5.43041e-05
5.44902e-05
5.42918e-05
5.44738e-05
5.42808e-05
5.44655e-05
5.42703e-05
5.44517e-05
5.4261e-05
5.44442e-05
5.42521e-05
5.44331e-05
5.42446e-05
5.4426e-05
5.42372e-05
5.44181e-05
5.42313e-05
5.44113e-05
5.42258e-05
5.44061e-05
5.42213e-05
5.44004e-05
5.42177e-05
5.43969e-05
5.42147e-05
5.43931e-05
5.42128e-05
5.43909e-05
5.42115e-05
5.43893e-05
5.42108e-05
5.43883e-05
5.43879e-05
5.47016e-05
5.48944e-05
5.46891e-05
5.48938e-05
5.46725e-05
5.48693e-05
5.466e-05
5.48605e-05
5.46475e-05
5.48437e-05
5.46364e-05
5.48354e-05
5.46256e-05
5.48213e-05
5.46163e-05
5.48139e-05
5.46071e-05
5.48024e-05
5.45996e-05
5.47956e-05
5.45921e-05
5.47869e-05
5.4586e-05
5.47808e-05
5.45807e-05
5.47746e-05
5.4576e-05
5.47698e-05
5.45724e-05
5.47654e-05
5.45694e-05
5.47623e-05
5.45674e-05
5.47596e-05
5.45661e-05
5.47581e-05
5.45654e-05
5.47571e-05
5.47567e-05
5.50866e-05
5.53019e-05
5.50739e-05
5.53015e-05
5.50572e-05
5.52761e-05
5.50442e-05
5.52677e-05
5.50317e-05
5.52503e-05
5.50204e-05
5.52423e-05
5.50096e-05
5.52274e-05
5.49999e-05
5.52206e-05
5.49909e-05
5.5208e-05
5.49829e-05
5.52023e-05
5.49755e-05
5.5192e-05
5.49694e-05
5.51875e-05
5.49637e-05
5.51796e-05
5.49593e-05
5.51761e-05
5.49554e-05
5.51706e-05
5.49526e-05
5.51682e-05
5.49504e-05
5.5165e-05
5.49491e-05
5.51636e-05
5.49484e-05
5.51626e-05
5.51621e-05
5.55168e-05
5.57625e-05
5.55036e-05
5.5762e-05
5.54866e-05
5.57362e-05
5.54738e-05
5.57276e-05
5.54609e-05
5.57101e-05
5.54494e-05
5.57018e-05
5.54384e-05
5.56868e-05
5.54286e-05
5.56796e-05
5.54194e-05
5.56671e-05
5.54114e-05
5.5661e-05
5.54039e-05
5.5651e-05
5.53977e-05
5.5646e-05
5.5392e-05
5.56383e-05
5.53875e-05
5.56345e-05
5.53834e-05
5.56291e-05
5.53806e-05
5.56265e-05
5.53783e-05
5.56233e-05
5.53771e-05
5.56219e-05
5.53763e-05
5.56208e-05
5.56204e-05
5.60076e-05
5.62921e-05
5.59946e-05
5.62914e-05
5.59772e-05
5.62659e-05
5.59639e-05
5.62564e-05
5.5951e-05
5.62388e-05
5.59393e-05
5.62303e-05
5.5928e-05
5.62151e-05
5.59181e-05
5.62077e-05
5.59087e-05
5.61951e-05
5.59006e-05
5.61887e-05
5.58931e-05
5.61786e-05
5.58866e-05
5.61734e-05
5.58809e-05
5.61657e-05
5.58762e-05
5.61616e-05
5.58721e-05
5.61562e-05
5.58692e-05
5.61535e-05
5.58669e-05
5.61503e-05
5.58656e-05
5.61489e-05
5.58648e-05
5.61478e-05
5.61473e-05
5.65759e-05
5.69034e-05
5.65627e-05
5.69028e-05
5.65451e-05
5.68763e-05
5.65313e-05
5.68671e-05
5.65182e-05
5.68487e-05
5.65062e-05
5.68404e-05
5.64948e-05
5.68245e-05
5.64847e-05
5.68174e-05
5.64751e-05
5.6804e-05
5.64667e-05
5.6798e-05
5.64589e-05
5.67871e-05
5.64524e-05
5.67822e-05
5.64464e-05
5.6774e-05
5.64416e-05
5.67701e-05
5.64375e-05
5.67644e-05
5.64346e-05
5.67617e-05
5.64323e-05
5.67585e-05
5.6431e-05
5.6757e-05
5.64302e-05
5.67559e-05
5.67554e-05
5.72303e-05
5.75859e-05
5.72164e-05
5.75853e-05
5.71983e-05
5.75578e-05
5.71844e-05
5.75486e-05
5.71709e-05
5.75298e-05
5.71587e-05
5.75211e-05
5.71471e-05
5.75053e-05
5.71367e-05
5.74974e-05
5.71269e-05
5.74844e-05
5.71184e-05
5.74774e-05
5.71104e-05
5.74674e-05
5.71038e-05
5.74611e-05
5.70977e-05
5.74541e-05
5.70929e-05
5.74486e-05
5.70886e-05
5.74443e-05
5.70856e-05
5.74403e-05
5.70832e-05
5.74377e-05
5.70818e-05
5.74358e-05
5.7081e-05
5.74348e-05
5.74343e-05
5.79409e-05
5.82659e-05
5.79267e-05
5.82658e-05
5.79081e-05
5.82379e-05
5.7894e-05
5.82288e-05
5.78801e-05
5.82101e-05
5.78677e-05
5.82012e-05
5.78556e-05
5.81854e-05
5.78452e-05
5.81773e-05
5.78349e-05
5.81644e-05
5.78264e-05
5.8157e-05
5.78181e-05
5.81473e-05
5.78113e-05
5.81406e-05
5.78051e-05
5.81338e-05
5.78e-05
5.81281e-05
5.77959e-05
5.81237e-05
5.77924e-05
5.81197e-05
5.77904e-05
5.8117e-05
5.77888e-05
5.81151e-05
5.7788e-05
5.8114e-05
5.81135e-05
5.85908e-05
5.87193e-05
5.8577e-05
5.87192e-05
5.85586e-05
5.87051e-05
5.85449e-05
5.87005e-05
5.85312e-05
5.8691e-05
5.85188e-05
5.86865e-05
5.85071e-05
5.86785e-05
5.84965e-05
5.86745e-05
5.84865e-05
5.86677e-05
5.8478e-05
5.86644e-05
5.84698e-05
5.8659e-05
5.8463e-05
5.86562e-05
5.84568e-05
5.86521e-05
5.84518e-05
5.86499e-05
5.84474e-05
5.8647e-05
5.84442e-05
5.86455e-05
5.84417e-05
5.86438e-05
5.84404e-05
5.8643e-05
5.84395e-05
5.86424e-05
5.86422e-05
5.88477e-05
5.88473e-05
5.8847e-05
5.88467e-05
5.88464e-05
5.88461e-05
5.88459e-05
5.88457e-05
5.88456e-05
5.88454e-05
5.88454e-05
5.88452e-05
5.88452e-05
5.88452e-05
5.88451e-05
5.88451e-05
5.88451e-05
5.88451e-05
5.88451e-05
)
;

boundaryField
{
    movingWall
    {
        type            calculated;
        value           nonuniform List<scalar> 
20
(
5.8848e-05
5.88474e-05
5.88472e-05
5.88467e-05
5.88466e-05
5.88461e-05
5.88462e-05
5.88457e-05
5.88458e-05
5.88454e-05
5.88455e-05
5.88452e-05
5.88453e-05
5.88452e-05
5.88451e-05
5.88451e-05
5.88451e-05
5.88451e-05
5.88451e-05
5.88451e-05
)
;
    }
    fixedWalls
    {
        type            calculated;
        value           nonuniform List<scalar> 
60
(
2.72865e-05
3.29592e-05
4.00868e-05
4.56723e-05
4.92268e-05
5.12801e-05
5.2444e-05
5.31416e-05
5.36164e-05
5.39958e-05
5.43456e-05
5.4702e-05
5.50869e-05
5.5517e-05
5.60079e-05
5.65763e-05
5.72305e-05
5.79413e-05
5.85905e-05
5.8848e-05
2.7285e-05
3.29113e-05
4.00156e-05
4.55789e-05
4.91174e-05
5.11608e-05
5.23187e-05
5.3013e-05
5.34852e-05
5.38626e-05
5.42106e-05
5.45652e-05
5.49482e-05
5.53761e-05
5.58646e-05
5.643e-05
5.70808e-05
5.77878e-05
5.84393e-05
5.88451e-05
2.72865e-05
2.72863e-05
2.72862e-05
2.72859e-05
2.72859e-05
2.72857e-05
2.72856e-05
2.72855e-05
2.72854e-05
2.72853e-05
2.72853e-05
2.72852e-05
2.72852e-05
2.72851e-05
2.72851e-05
2.72851e-05
2.72851e-05
2.7285e-05
2.7285e-05
2.7285e-05
)
;
    }
    frontAndBack
    {
        type            empty;
    }
}


// ************************************************************************* //
