/*--------------------------------*- C++ -*----------------------------------*\
| =========                 |                                                 |
| \\      /  F ield         | OpenFOAM: The Open Source CFD Toolbox           |
|  \\    /   O peration     | Version:  2506                                  |
|   \\  /    A nd           | Website:  www.openfoam.com                      |
|    \\/     M anipulation  |                                                 |
\*---------------------------------------------------------------------------*/
FoamFile
{
    version     2.0;
    format      ascii;
    arch        "LSB;label=32;scalar=64";
    class       surfaceScalarField;
    location    "4";
    object      surfaceP;
}
// * * * * * * * * * * * * * * * * * * * * * * * * * * * * * * * * * * * * * //

dimensions      [0 2 -2 0 0 0 0];

internalField   nonuniform List<scalar> 
760
(
0
7.11232e-12
4.5701e-12
0
6.02205e-12
7.31077e-12
3.61349e-12
2.72262e-12
3.86436e-12
4.05695e-12
3.45055e-12
3.36323e-12
3.42724e-12
3.44481e-12
3.35079e-12
3.34154e-12
3.32851e-12
3.32963e-12
3.30931e-12
3.30761e-12
3.30053e-12
3.29946e-12
3.29505e-12
3.29381e-12
3.29193e-12
3.29102e-12
3.28993e-12
3.28912e-12
3.28866e-12
3.28794e-12
3.28759e-12
3.28704e-12
3.28644e-12
3.2862e-12
3.28497e-12
3.28506e-12
3.28362e-12
3.28349e-12
3.28263e-12
7.11232e-12
7.11232e-12
2.74067e-12
1.1011e-11
4.01133e-12
2.81006e-12
3.16608e-12
3.18319e-12
3.55582e-12
3.25054e-12
3.35749e-12
3.2963e-12
3.35911e-12
3.30962e-12
3.32037e-12
3.30063e-12
3.30873e-12
3.29496e-12
3.29777e-12
3.28928e-12
3.29275e-12
3.28645e-12
3.28978e-12
3.28522e-12
3.28821e-12
3.28479e-12
3.28712e-12
3.28454e-12
3.28632e-12
3.28429e-12
3.28566e-12
3.28413e-12
3.28482e-12
3.28377e-12
3.28358e-12
3.28278e-12
3.2825e-12
3.28155e-12
3.28092e-12
1.1011e-11
1.47385e-11
1.10804e-11
1.1011e-11
1.98192e-12
2.63361e-12
3.26765e-12
2.07048e-12
2.99102e-12
3.13981e-12
3.24842e-12
3.10534e-12
3.25114e-12
3.22115e-12
3.27522e-12
3.23448e-12
3.27551e-12
3.25516e-12
3.27796e-12
3.26239e-12
3.27893e-12
3.26838e-12
3.28023e-12
3.27236e-12
3.28112e-12
3.27542e-12
3.28171e-12
3.27749e-12
3.2821e-12
3.27872e-12
3.28224e-12
3.27954e-12
3.28174e-12
3.27989e-12
3.28076e-12
3.27927e-12
3.27997e-12
3.27841e-12
3.27812e-12
1.47385e-11
1.47385e-11
2.56422e-12
3.49264e-11
2.72218e-12
2.56422e-12
1.94264e-12
3.38582e-12
3.25414e-12
2.78398e-12
3.07807e-12
3.06225e-12
3.20449e-12
3.11441e-12
3.21442e-12
3.1834e-12
3.24203e-12
3.21335e-12
3.25281e-12
3.2347e-12
3.26182e-12
3.24806e-12
3.26755e-12
3.25756e-12
3.27179e-12
3.26409e-12
3.2745e-12
3.26876e-12
3.27616e-12
3.27169e-12
3.27719e-12
3.27363e-12
3.27742e-12
3.27476e-12
3.27693e-12
3.27469e-12
3.27656e-12
3.27433e-12
3.27429e-12
3.49264e-11
2.18937e-11
3.49264e-11
3.49264e-11
3.22786e-12
2.34997e-12
4.22716e-12
3.22786e-12
2.5921e-12
2.94859e-12
3.09859e-12
2.94536e-12
3.09332e-12
3.08864e-12
3.18233e-12
3.13602e-12
3.20602e-12
3.18186e-12
3.22995e-12
3.20866e-12
3.2438e-12
3.22868e-12
3.2541e-12
3.24246e-12
3.26107e-12
3.25215e-12
3.26594e-12
3.25911e-12
3.26915e-12
3.26373e-12
3.2712e-12
3.26695e-12
3.27203e-12
3.26881e-12
3.27209e-12
3.26933e-12
3.27206e-12
3.2695e-12
3.26943e-12
2.18937e-11
2.18937e-11
2.34997e-12
6.21643e-11
2.34997e-12
2.56025e-12
1.94929e-12
4.87865e-12
3.30184e-12
2.70604e-12
2.93541e-12
2.97841e-12
3.13135e-12
3.02901e-12
3.13555e-12
3.1121e-12
3.1845e-12
3.1551e-12
3.2074e-12
3.18866e-12
3.22735e-12
3.21155e-12
3.24051e-12
3.2285e-12
3.2502e-12
3.24064e-12
3.2569e-12
3.24938e-12
3.26153e-12
3.25553e-12
3.26456e-12
3.25976e-12
3.26611e-12
3.26239e-12
3.26674e-12
3.26349e-12
3.26687e-12
3.26406e-12
3.26406e-12
6.21643e-11
2.7495e-11
6.23746e-11
6.21643e-11
5.08894e-12
2.31052e-12
5.63541e-12
4.87865e-12
2.38261e-12
2.90845e-12
3.07201e-12
2.91582e-12
3.00977e-12
3.04062e-12
3.13165e-12
3.09119e-12
3.15926e-12
3.14044e-12
3.19281e-12
3.17327e-12
3.21271e-12
3.19823e-12
3.22863e-12
3.2167e-12
3.23982e-12
3.23036e-12
3.24801e-12
3.24023e-12
3.25377e-12
3.24748e-12
3.2576e-12
3.2525e-12
3.25977e-12
3.25577e-12
3.26081e-12
3.25728e-12
3.26124e-12
3.25812e-12
3.25838e-12
2.7495e-11
2.7495e-11
2.10024e-12
8.44222e-11
2.10024e-12
2.68185e-12
2.1517e-12
6.29893e-12
3.44167e-12
2.76809e-12
2.88443e-12
2.9771e-12
3.12205e-12
3.01843e-12
3.09998e-12
3.08963e-12
3.15446e-12
3.13059e-12
3.17869e-12
3.1643e-12
3.20222e-12
3.18859e-12
3.21843e-12
3.20751e-12
3.23077e-12
3.22176e-12
3.2397e-12
3.23225e-12
3.2462e-12
3.23998e-12
3.25067e-12
3.24545e-12
3.25328e-12
3.24915e-12
3.25459e-12
3.25112e-12
3.25525e-12
3.25208e-12
3.2524e-12
8.44222e-11
3.07059e-11
8.50038e-11
8.44222e-11
6.88055e-12
2.47208e-12
6.91532e-12
6.29893e-12
2.30352e-12
2.94055e-12
3.1111e-12
2.964e-12
2.98601e-12
3.04803e-12
3.12024e-12
3.09082e-12
3.14042e-12
3.13068e-12
3.1742e-12
3.15997e-12
3.19388e-12
3.18312e-12
3.21084e-12
3.20105e-12
3.22323e-12
3.21509e-12
3.23253e-12
3.22563e-12
3.23923e-12
3.23337e-12
3.24393e-12
3.23897e-12
3.24699e-12
3.24278e-12
3.24862e-12
3.24516e-12
3.24923e-12
3.24625e-12
3.24662e-12
3.07059e-11
3.07059e-11
1.89047e-12
9.73516e-11
1.89047e-12
2.88153e-12
2.32416e-12
7.16077e-12
3.60102e-12
2.91132e-12
2.90093e-12
3.02797e-12
3.15283e-12
3.05822e-12
3.10126e-12
3.10501e-12
3.15023e-12
3.13547e-12
3.16889e-12
3.16125e-12
3.19029e-12
3.18134e-12
3.20531e-12
3.19756e-12
3.21749e-12
3.21043e-12
3.22647e-12
3.22034e-12
3.23311e-12
3.2277e-12
3.23782e-12
3.23322e-12
3.24095e-12
3.23702e-12
3.2428e-12
3.23951e-12
3.24364e-12
3.24071e-12
3.2412e-12
9.73516e-11
3.09209e-11
9.83426e-11
9.73516e-11
8.15183e-12
2.75309e-12
7.74794e-12
7.16077e-12
2.33827e-12
3.0255e-12
3.18526e-12
3.06456e-12
3.01039e-12
3.09526e-12
3.13921e-12
3.12365e-12
3.14649e-12
3.14717e-12
3.1737e-12
3.16687e-12
3.1886e-12
3.18329e-12
3.20268e-12
3.19683e-12
3.21328e-12
3.20778e-12
3.22158e-12
3.21639e-12
3.22782e-12
3.22319e-12
3.23242e-12
3.2284e-12
3.23558e-12
3.23194e-12
3.23743e-12
3.23438e-12
3.23827e-12
3.23551e-12
3.23602e-12
3.09209e-11
3.09209e-11
1.76203e-12
9.86265e-11
1.76203e-12
3.1429e-12
2.43834e-12
7.29037e-12
3.75179e-12
3.11077e-12
2.97456e-12
3.11807e-12
3.20852e-12
3.13437e-12
3.13161e-12
3.14915e-12
3.16756e-12
3.16363e-12
3.17646e-12
3.17672e-12
3.19152e-12
3.18852e-12
3.20192e-12
3.19869e-12
3.21089e-12
3.20714e-12
3.21801e-12
3.21402e-12
3.22377e-12
3.2199e-12
3.22791e-12
3.22455e-12
3.23073e-12
3.22762e-12
3.23247e-12
3.2298e-12
3.23326e-12
3.23085e-12
3.23124e-12
9.86265e-11
2.80511e-11
1.00007e-10
9.86265e-11
8.67124e-12
3.12425e-12
7.96281e-12
7.29037e-12
2.47705e-12
3.14986e-12
3.27788e-12
3.20003e-12
3.075e-12
3.17267e-12
3.18117e-12
3.18175e-12
3.17279e-12
3.18401e-12
3.18877e-12
3.1904e-12
3.19569e-12
3.19654e-12
3.2039e-12
3.20276e-12
3.21027e-12
3.20839e-12
3.21591e-12
3.21332e-12
3.22068e-12
3.21781e-12
3.22426e-12
3.22149e-12
3.22669e-12
3.22405e-12
3.22818e-12
3.22585e-12
3.22883e-12
3.22686e-12
3.22716e-12
2.80511e-11
2.80511e-11
1.74338e-12
8.76705e-11
1.74338e-12
3.43415e-12
2.47742e-12
6.65464e-12
3.87284e-12
3.34349e-12
3.09482e-12
3.23671e-12
3.27942e-12
3.23632e-12
3.18459e-12
3.21471e-12
3.20162e-12
3.20973e-12
3.19816e-12
3.20671e-12
3.2036e-12
3.20696e-12
3.20725e-12
3.20871e-12
3.21145e-12
3.21114e-12
3.21522e-12
3.21404e-12
3.21862e-12
3.21683e-12
3.22128e-12
3.21927e-12
3.22322e-12
3.22111e-12
3.22453e-12
3.22255e-12
3.22519e-12
3.22356e-12
3.22386e-12
8.76705e-11
2.2478e-11
8.93613e-11
8.76705e-11
8.3454e-12
3.52789e-12
7.52071e-12
6.65464e-12
2.70737e-12
3.30167e-12
3.37821e-12
3.35528e-12
3.17162e-12
3.27202e-12
3.23985e-12
3.25707e-12
3.21482e-12
3.23575e-12
3.21551e-12
3.22564e-12
3.21208e-12
3.21894e-12
3.21261e-12
3.21618e-12
3.21373e-12
3.21496e-12
3.21565e-12
3.21554e-12
3.21747e-12
3.21663e-12
3.21909e-12
3.21786e-12
3.22044e-12
3.21902e-12
3.22158e-12
3.21982e-12
3.22222e-12
3.22073e-12
3.22104e-12
2.2478e-11
2.2478e-11
1.83712e-12
6.58083e-11
1.83712e-12
3.74265e-12
2.4356e-12
5.3663e-12
3.94958e-12
3.59351e-12
3.24908e-12
3.37516e-12
3.35747e-12
3.35398e-12
3.25297e-12
3.29332e-12
3.24657e-12
3.26595e-12
3.22907e-12
3.24439e-12
3.22304e-12
3.23186e-12
3.21853e-12
3.22406e-12
3.21677e-12
3.21938e-12
3.21652e-12
3.21744e-12
3.21702e-12
3.21688e-12
3.2178e-12
3.21705e-12
3.2184e-12
3.21749e-12
3.21897e-12
3.21779e-12
3.21955e-12
3.21841e-12
3.21873e-12
6.58083e-11
1.48486e-11
6.77139e-11
6.58083e-11
7.27183e-12
3.97208e-12
6.52422e-12
5.3663e-12
3.0191e-12
3.49927e-12
3.48007e-12
3.5189e-12
3.28983e-12
3.38675e-12
3.30631e-12
3.33837e-12
3.26378e-12
3.29181e-12
3.24718e-12
3.26338e-12
3.23288e-12
3.24405e-12
3.22491e-12
3.23163e-12
3.22004e-12
3.22378e-12
3.21779e-12
3.21952e-12
3.21691e-12
3.21749e-12
3.21675e-12
3.21659e-12
3.21688e-12
3.21631e-12
3.21722e-12
3.21623e-12
3.21759e-12
3.21663e-12
3.21707e-12
1.48486e-11
1.48486e-11
2.06655e-12
3.55737e-11
2.06655e-12
4.6078e-12
2.34136e-12
3.69622e-12
3.99907e-12
3.95423e-12
3.42558e-12
3.51654e-12
3.43528e-12
3.47996e-12
3.32387e-12
3.36734e-12
3.29141e-12
3.31923e-12
3.26025e-12
3.27917e-12
3.24279e-12
3.2551e-12
3.2305e-12
3.23835e-12
3.22326e-12
3.22786e-12
3.21922e-12
3.22145e-12
3.21717e-12
3.21824e-12
3.21615e-12
3.2165e-12
3.21567e-12
3.21556e-12
3.21564e-12
3.21506e-12
3.21611e-12
3.21537e-12
3.21594e-12
3.55737e-11
5.22976e-12
3.8115e-11
3.55737e-11
6.23746e-12
7.08516e-12
5.30909e-12
4.18432e-12
3.4717e-12
3.98874e-12
3.57092e-12
3.57117e-12
3.41202e-12
3.51547e-12
3.36271e-12
3.39495e-12
3.30698e-12
3.33825e-12
3.27402e-12
3.29161e-12
3.25065e-12
3.26313e-12
3.2357e-12
3.2435e-12
3.22605e-12
3.2309e-12
3.22048e-12
3.22304e-12
3.21757e-12
3.2189e-12
3.2159e-12
3.21652e-12
3.21495e-12
3.21518e-12
3.21479e-12
3.21457e-12
3.2152e-12
3.21474e-12
3.21531e-12
5.22976e-12
4.54391e-12
5.03202e-12
2.86398e-12
4.08821e-12
3.51572e-12
3.4984e-12
3.37049e-12
3.32287e-12
3.28072e-12
3.25598e-12
3.2387e-12
3.22789e-12
3.22146e-12
3.21785e-12
3.2158e-12
3.2148e-12
3.21452e-12
3.21486e-12
)
;

boundaryField
{
    movingWall
    {
        type            calculated;
        value           nonuniform List<scalar> 
20
(
1.04595e-11
0
9.08782e-12
9.76213e-13
4.75174e-12
3.42469e-12
3.60676e-12
3.39004e-12
3.35095e-12
3.2948e-12
3.26665e-12
3.24532e-12
3.23208e-12
3.22371e-12
3.21921e-12
3.21649e-12
3.21511e-12
3.21448e-12
3.21456e-12
3.21515e-12
)
;
    }
    fixedWalls
    {
        type            calculated;
        value           nonuniform List<scalar> 
60
(
0
1.42246e-11
0
2.9477e-11
0
4.37874e-11
0
5.499e-11
0
6.14119e-11
0
6.18418e-11
0
5.61021e-11
0
4.49561e-11
0
2.96971e-11
0
1.04595e-11
3.28313e-12
3.28212e-12
3.27972e-12
3.27652e-12
3.27206e-12
3.2668e-12
3.26131e-12
3.25544e-12
3.24937e-12
3.24387e-12
3.23853e-12
3.2335e-12
3.22897e-12
3.22535e-12
3.22236e-12
3.21972e-12
3.21774e-12
3.21641e-12
3.21547e-12
3.21515e-12
0
0
9.1402e-12
2.9039e-12
4.32307e-12
3.40565e-12
3.49544e-12
3.35904e-12
3.34254e-12
3.31448e-12
3.30414e-12
3.29692e-12
3.29318e-12
3.29067e-12
3.2892e-12
3.28813e-12
3.28705e-12
3.28583e-12
3.2841e-12
3.28313e-12
)
;
    }
    frontAndBack
    {
        type            empty;
    }
}


// ************************************************************************* //
