/*--------------------------------*- C++ -*----------------------------------*\
| =========                 |                                                 |
| \\      /  F ield         | OpenFOAM: The Open Source CFD Toolbox           |
|  \\    /   O peration     | Version:  2506                                  |
|   \\  /    A nd           | Website:  www.openfoam.com                      |
|    \\/     M anipulation  |                                                 |
\*---------------------------------------------------------------------------*/
FoamFile
{
    version     2.0;
    format      ascii;
    arch        "LSB;label=32;scalar=64";
    class       volScalarField;
    location    "4";
    object      turbulenceProperties:nuEff;
}
// * * * * * * * * * * * * * * * * * * * * * * * * * * * * * * * * * * * * * //

dimensions      [0 2 -1 0 0 0 0];

internalField   nonuniform List<scalar> 
400
(
1.29166e-05
1.29166e-05
1.29166e-05
1.29166e-05
1.29166e-05
1.29166e-05
1.29166e-05
1.29166e-05
1.29166e-05
1.29166e-05
1.29166e-05
1.29166e-05
1.29166e-05
1.29166e-05
1.29166e-05
1.29165e-05
1.29166e-05
1.29166e-05
1.29166e-05
1.29166e-05
1.32015e-05
1.33122e-05
1.33018e-05
1.32975e-05
1.3289e-05
1.32846e-05
1.32763e-05
1.32718e-05
1.32638e-05
1.32591e-05
1.32512e-05
1.32464e-05
1.32388e-05
1.32339e-05
1.32263e-05
1.32214e-05
1.3214e-05
1.32091e-05
1.32053e-05
1.31992e-05
1.35271e-05
1.36648e-05
1.36516e-05
1.36462e-05
1.36354e-05
1.36299e-05
1.36195e-05
1.36138e-05
1.36037e-05
1.35979e-05
1.35881e-05
1.35821e-05
1.35726e-05
1.35667e-05
1.35573e-05
1.35513e-05
1.3542e-05
1.35361e-05
1.35315e-05
1.3524e-05
1.37627e-05
1.3922e-05
1.39068e-05
1.39004e-05
1.3888e-05
1.38815e-05
1.38695e-05
1.38629e-05
1.38512e-05
1.38444e-05
1.38331e-05
1.38262e-05
1.38152e-05
1.38082e-05
1.37974e-05
1.37904e-05
1.37798e-05
1.37728e-05
1.37675e-05
1.37589e-05
1.39054e-05
1.40787e-05
1.40619e-05
1.40551e-05
1.40415e-05
1.40345e-05
1.40213e-05
1.40143e-05
1.40013e-05
1.39942e-05
1.39816e-05
1.39743e-05
1.39621e-05
1.39547e-05
1.39428e-05
1.39354e-05
1.39238e-05
1.39162e-05
1.39105e-05
1.39011e-05
1.39855e-05
1.41669e-05
1.41492e-05
1.41421e-05
1.41278e-05
1.41206e-05
1.41067e-05
1.40994e-05
1.40857e-05
1.40784e-05
1.40651e-05
1.40576e-05
1.40447e-05
1.40371e-05
1.40246e-05
1.40168e-05
1.40047e-05
1.39967e-05
1.39907e-05
1.3981e-05
1.40303e-05
1.42161e-05
1.41979e-05
1.41907e-05
1.4176e-05
1.41686e-05
1.41543e-05
1.41468e-05
1.41329e-05
1.41253e-05
1.41118e-05
1.4104e-05
1.40909e-05
1.4083e-05
1.40702e-05
1.40622e-05
1.40498e-05
1.40417e-05
1.40355e-05
1.40255e-05
1.40568e-05
1.42453e-05
1.42269e-05
1.42195e-05
1.42047e-05
1.41972e-05
1.41826e-05
1.41751e-05
1.41609e-05
1.41532e-05
1.41394e-05
1.41316e-05
1.41182e-05
1.41103e-05
1.40973e-05
1.40892e-05
1.40766e-05
1.40684e-05
1.40621e-05
1.4052e-05
1.40748e-05
1.4265e-05
1.42465e-05
1.4239e-05
1.4224e-05
1.42164e-05
1.42018e-05
1.41941e-05
1.41799e-05
1.4172e-05
1.41583e-05
1.41501e-05
1.41369e-05
1.41285e-05
1.41158e-05
1.41073e-05
1.40948e-05
1.40864e-05
1.40801e-05
1.40699e-05
1.40891e-05
1.42807e-05
1.4262e-05
1.42545e-05
1.42394e-05
1.42317e-05
1.42171e-05
1.42091e-05
1.4195e-05
1.41869e-05
1.41732e-05
1.41648e-05
1.41517e-05
1.41431e-05
1.41304e-05
1.41218e-05
1.41092e-05
1.41007e-05
1.40944e-05
1.40841e-05
1.41022e-05
1.42951e-05
1.42764e-05
1.42687e-05
1.42535e-05
1.42458e-05
1.4231e-05
1.42231e-05
1.42088e-05
1.42007e-05
1.41868e-05
1.41785e-05
1.41651e-05
1.41567e-05
1.41437e-05
1.41351e-05
1.41224e-05
1.41139e-05
1.41076e-05
1.40972e-05
1.41155e-05
1.43097e-05
1.42908e-05
1.42831e-05
1.42679e-05
1.426e-05
1.42452e-05
1.42372e-05
1.42229e-05
1.42146e-05
1.42008e-05
1.41922e-05
1.41789e-05
1.41703e-05
1.41573e-05
1.41487e-05
1.41358e-05
1.41273e-05
1.41209e-05
1.41104e-05
1.41298e-05
1.43255e-05
1.43064e-05
1.42987e-05
1.42833e-05
1.42754e-05
1.42604e-05
1.42525e-05
1.42378e-05
1.42298e-05
1.42155e-05
1.42073e-05
1.41935e-05
1.41852e-05
1.41717e-05
1.41633e-05
1.41503e-05
1.41417e-05
1.41352e-05
1.41247e-05
1.41458e-05
1.4343e-05
1.43237e-05
1.4316e-05
1.43004e-05
1.42926e-05
1.42774e-05
1.42694e-05
1.42546e-05
1.42465e-05
1.42321e-05
1.42239e-05
1.42099e-05
1.42016e-05
1.4188e-05
1.41795e-05
1.41664e-05
1.41577e-05
1.41512e-05
1.41406e-05
1.41639e-05
1.43629e-05
1.43435e-05
1.43356e-05
1.432e-05
1.4312e-05
1.42967e-05
1.42886e-05
1.42738e-05
1.42655e-05
1.42511e-05
1.42427e-05
1.42287e-05
1.42202e-05
1.42065e-05
1.41979e-05
1.41847e-05
1.41759e-05
1.41694e-05
1.41587e-05
1.41848e-05
1.43858e-05
1.43663e-05
1.43583e-05
1.43425e-05
1.43344e-05
1.43189e-05
1.43108e-05
1.42957e-05
1.42874e-05
1.42728e-05
1.42644e-05
1.42502e-05
1.42416e-05
1.42278e-05
1.42191e-05
1.42057e-05
1.41969e-05
1.41903e-05
1.41795e-05
1.42087e-05
1.44121e-05
1.43922e-05
1.43843e-05
1.43681e-05
1.436e-05
1.43444e-05
1.43362e-05
1.43208e-05
1.43125e-05
1.42977e-05
1.42892e-05
1.42748e-05
1.42661e-05
1.42522e-05
1.42434e-05
1.42299e-05
1.42209e-05
1.42142e-05
1.42033e-05
1.42345e-05
1.44403e-05
1.44203e-05
1.44121e-05
1.43959e-05
1.43876e-05
1.43719e-05
1.43633e-05
1.43481e-05
1.43394e-05
1.43247e-05
1.43157e-05
1.43016e-05
1.42923e-05
1.42787e-05
1.42694e-05
1.42559e-05
1.42468e-05
1.424e-05
1.42289e-05
1.42579e-05
1.44611e-05
1.44415e-05
1.44338e-05
1.44179e-05
1.44099e-05
1.43945e-05
1.43863e-05
1.43711e-05
1.43627e-05
1.4348e-05
1.43394e-05
1.43251e-05
1.43162e-05
1.43023e-05
1.42932e-05
1.42796e-05
1.42704e-05
1.42636e-05
1.42524e-05
1.42671e-05
1.42671e-05
1.4267e-05
1.42671e-05
1.4267e-05
1.42671e-05
1.4267e-05
1.4267e-05
1.4267e-05
1.4267e-05
1.4267e-05
1.4267e-05
1.4267e-05
1.4267e-05
1.4267e-05
1.4267e-05
1.4267e-05
1.4267e-05
1.4267e-05
1.4267e-05
)
;

boundaryField
{
    movingWall
    {
        type            calculated;
        value           uniform 1e-05;
    }
    fixedWalls
    {
        type            calculated;
        value           uniform 1e-05;
    }
    frontAndBack
    {
        type            empty;
    }
}


// ************************************************************************* //
