/*--------------------------------*- C++ -*----------------------------------*\
| =========                 |                                                 |
| \\      /  F ield         | OpenFOAM: The Open Source CFD Toolbox           |
|  \\    /   O peration     | Version:  2506                                  |
|   \\  /    A nd           | Website:  www.openfoam.com                      |
|    \\/     M anipulation  |                                                 |
\*---------------------------------------------------------------------------*/
FoamFile
{
    version     2.0;
    format      ascii;
    arch        "LSB;label=32;scalar=64";
    class       volScalarField;
    location    "4";
    object      turbulenceProperties:omega;
}
// * * * * * * * * * * * * * * * * * * * * * * * * * * * * * * * * * * * * * //

dimensions      [0 0 -1 0 0 0 0];

internalField   nonuniform List<scalar> 
400
(
9.35553
9.35542
9.35547
9.35535
9.35542
9.35531
9.35538
9.35528
9.35533
9.35527
9.35528
9.35527
9.35526
9.35527
9.35524
9.35526
9.35524
9.35525
9.35524
9.35524
10.2948
9.95073
9.97963
9.99168
10.0157
10.0282
10.0521
10.0651
10.0889
10.1025
10.1261
10.1403
10.1637
10.1784
10.2018
10.2169
10.2404
10.2558
10.2677
10.2872
11.3654
10.9382
10.9744
10.9894
11.0194
11.035
11.0648
11.081
11.1106
11.1274
11.1567
11.1742
11.2033
11.2212
11.2503
11.2687
11.2978
11.3167
11.3313
11.3552
12.1381
11.6448
11.6863
11.7037
11.7382
11.7561
11.7905
11.8091
11.8432
11.8627
11.8964
11.9165
11.9501
11.9708
12.0043
12.0257
12.0591
12.081
12.0978
12.1255
12.6048
12.0692
12.1142
12.1329
12.1704
12.1897
12.2271
12.2471
12.2843
12.305
12.342
12.3636
12.4002
12.4226
12.4591
12.4822
12.5185
12.5423
12.5605
12.5906
12.8666
12.3066
12.3537
12.3731
12.4124
12.4324
12.4716
12.4923
12.5313
12.5529
12.5916
12.614
12.6524
12.6757
12.7139
12.738
12.7759
12.8009
12.82
12.8514
13.0126
12.4389
12.4873
12.507
12.5473
12.5678
12.6078
12.6292
12.669
12.6911
12.7307
12.7537
12.793
12.8169
12.8559
12.8807
12.9195
12.9451
12.9646
12.9968
13.0994
12.5178
12.5666
12.5867
12.6274
12.6483
12.6889
12.7104
12.7509
12.7732
12.8135
12.8367
12.8767
12.9008
12.9404
12.9655
13.0049
13.0309
13.0506
13.0833
13.1582
12.5712
12.6203
12.6408
12.6817
12.7029
12.7437
12.7656
12.8062
12.8291
12.8693
12.8932
12.933
12.9579
12.9974
13.0231
13.0626
13.089
13.1088
13.1418
13.205
12.6136
12.6632
12.6838
12.725
12.7464
12.7874
12.8096
12.8503
12.8736
12.9138
12.9381
12.978
13.0033
13.0429
13.0689
13.1086
13.1352
13.1552
13.1884
13.248
12.6528
12.7026
12.7233
12.7649
12.7863
12.8277
12.8499
12.8911
12.9143
12.955
12.9792
13.0196
13.0448
13.0849
13.111
13.151
13.1777
13.1979
13.2313
13.2917
12.6926
12.7427
12.7636
12.8053
12.827
12.8685
12.8911
12.9322
12.9559
12.9966
13.0213
13.0617
13.0872
13.1275
13.1537
13.194
13.2209
13.2412
13.2748
13.3388
12.7354
12.7859
12.8068
12.849
12.8706
12.9127
12.9351
12.9769
13.0002
13.0418
13.0661
13.1074
13.1325
13.1735
13.1996
13.2404
13.2674
13.2879
13.3217
13.3912
12.783
12.8341
12.855
12.8975
12.9193
12.9617
12.9843
13.0265
13.0499
13.0919
13.1162
13.1579
13.1832
13.2246
13.2509
13.2919
13.3192
13.3398
13.374
13.4508
12.8372
12.8886
12.9099
12.9526
12.9747
13.0173
13.0403
13.0827
13.1065
13.1486
13.1734
13.2152
13.2409
13.2826
13.3091
13.3506
13.3781
13.3989
13.4333
13.5196
12.8997
12.9514
12.973
13.0162
13.0385
13.0816
13.1047
13.1476
13.1715
13.2142
13.2391
13.2815
13.3074
13.3495
13.3763
13.4181
13.4459
13.467
13.5018
13.5982
12.9711
13.0237
13.0453
13.0891
13.1115
13.1551
13.1784
13.2219
13.246
13.2893
13.3144
13.3573
13.3835
13.426
13.4532
13.4955
13.5237
13.5449
13.5801
13.6833
13.0487
13.1017
13.1237
13.1678
13.1907
13.2346
13.2585
13.302
13.327
13.3701
13.3963
13.4389
13.4662
13.5086
13.5366
13.5791
13.6077
13.6292
13.6648
13.7606
13.1339
13.1854
13.2064
13.2495
13.2717
13.3147
13.3379
13.3809
13.4052
13.448
13.4736
13.5162
13.543
13.5855
13.6136
13.656
13.6852
13.7066
13.7426
13.7912
13.791
13.7911
13.7909
13.7911
13.7908
13.791
13.7907
13.791
13.7907
13.7909
13.7908
13.7908
13.7908
13.7908
13.7908
13.7908
13.7908
13.7908
13.7908
)
;

boundaryField
{
    movingWall
    {
        type            calculated;
        value           nonuniform List<scalar> 
20
(
13.7912
13.791
13.7911
13.7909
13.7911
13.7908
13.791
13.7907
13.791
13.7907
13.7909
13.7908
13.7908
13.7908
13.7908
13.7908
13.7908
13.7908
13.7908
13.7908
)
;
    }
    fixedWalls
    {
        type            calculated;
        value           nonuniform List<scalar> 
60
(
9.35553
10.2948
11.3654
12.1381
12.6048
12.8666
13.0126
13.0994
13.1582
13.205
13.248
13.2917
13.3388
13.3912
13.4508
13.5196
13.5982
13.6833
13.7606
13.7912
9.35524
10.2872
11.3552
12.1255
12.5906
12.8514
12.9968
13.0833
13.1418
13.1884
13.2313
13.2748
13.3217
13.374
13.4333
13.5018
13.5801
13.6648
13.7426
13.7908
9.35553
9.35542
9.35547
9.35535
9.35542
9.35531
9.35538
9.35528
9.35533
9.35527
9.35528
9.35527
9.35526
9.35527
9.35524
9.35526
9.35524
9.35525
9.35524
9.35524
)
;
    }
    frontAndBack
    {
        type            empty;
    }
}


// ************************************************************************* //
