/*--------------------------------*- C++ -*----------------------------------*\
| =========                 |                                                 |
| \\      /  F ield         | OpenFOAM: The Open Source CFD Toolbox           |
|  \\    /   O peration     | Version:  2506                                  |
|   \\  /    A nd           | Website:  www.openfoam.com                      |
|    \\/     M anipulation  |                                                 |
\*---------------------------------------------------------------------------*/
FoamFile
{
    version     2.0;
    format      ascii;
    arch        "LSB;label=32;scalar=64";
    class       volSymmTensorField;
    location    "4";
    object      turbulenceProperties:R;
}
// * * * * * * * * * * * * * * * * * * * * * * * * * * * * * * * * * * * * * //

dimensions      [0 2 -2 0 0 0 0];

internalField   nonuniform List<symmTensor> 
400
(
(1.8191e-05 -1.37248e-11 -0 1.8191e-05 -0 1.8191e-05)
(1.81909e-05 1.70271e-11 -0 1.81909e-05 -0 1.81909e-05)
(1.81908e-05 -4.03448e-12 -0 1.81908e-05 -0 1.81908e-05)
(1.81906e-05 9.5597e-13 -0 1.81906e-05 -0 1.81906e-05)
(1.81906e-05 -2.26789e-13 -0 1.81906e-05 -0 1.81906e-05)
(1.81905e-05 5.34695e-14 -0 1.81905e-05 -0 1.81905e-05)
(1.81904e-05 -1.28228e-14 -0 1.81904e-05 -0 1.81904e-05)
(1.81903e-05 2.91694e-15 -0 1.81903e-05 -0 1.81903e-05)
(1.81903e-05 -7.7246e-16 -0 1.81903e-05 -0 1.81903e-05)
(1.81902e-05 1.23214e-16 -0 1.81902e-05 -0 1.81902e-05)
(1.81902e-05 -7.17447e-17 -0 1.81902e-05 -0 1.81902e-05)
(1.81901e-05 -1.37041e-17 -0 1.81901e-05 -0 1.81901e-05)
(1.81901e-05 -1.83962e-17 -0 1.81901e-05 -0 1.81901e-05)
(1.81901e-05 -1.07263e-17 -0 1.81901e-05 -0 1.81901e-05)
(1.81901e-05 -7.63845e-18 -0 1.81901e-05 -0 1.81901e-05)
(1.819e-05 -4.76675e-18 -0 1.819e-05 -0 1.819e-05)
(1.819e-05 -2.77041e-18 -0 1.819e-05 -0 1.819e-05)
(1.819e-05 -1.12198e-18 -0 1.819e-05 -0 1.819e-05)
(1.819e-05 3.91457e-19 -0 1.819e-05 -0 1.819e-05)
(1.819e-05 1.95894e-19 -0 1.819e-05 -0 1.819e-05)
(2.19728e-05 1.50233e-11 -0 2.19728e-05 -0 2.19728e-05)
(2.19727e-05 -1.93237e-11 -0 2.19727e-05 -0 2.19727e-05)
(2.19671e-05 4.56184e-12 -0 2.19671e-05 -0 2.19671e-05)
(2.1965e-05 -1.07711e-12 -0 2.1965e-05 -0 2.1965e-05)
(2.19612e-05 2.54902e-13 -0 2.19612e-05 -0 2.19612e-05)
(2.19591e-05 -5.97504e-14 -0 2.19591e-05 -0 2.19591e-05)
(2.19561e-05 1.42587e-14 -0 2.19561e-05 -0 2.19561e-05)
(2.1954e-05 -3.25987e-15 -0 2.1954e-05 -0 2.1954e-05)
(2.19518e-05 8.18427e-16 -0 2.19518e-05 -0 2.19518e-05)
(2.19497e-05 -1.60739e-16 -0 2.19497e-05 -0 2.19497e-05)
(2.19482e-05 5.68148e-17 -0 2.19482e-05 -0 2.19482e-05)
(2.19463e-05 -9.27813e-19 -0 2.19463e-05 -0 2.19463e-05)
(2.19453e-05 8.30268e-18 -0 2.19453e-05 -0 2.19453e-05)
(2.19438e-05 3.61587e-18 -0 2.19438e-05 -0 2.19438e-05)
(2.19431e-05 2.89079e-18 -0 2.19431e-05 -0 2.19431e-05)
(2.19421e-05 1.77879e-18 -0 2.19421e-05 -0 2.19421e-05)
(2.19416e-05 1.32873e-18 -0 2.19416e-05 -0 2.19416e-05)
(2.19412e-05 1.1518e-18 -0 2.19412e-05 -0 2.19412e-05)
(2.1941e-05 1.28918e-18 -0 2.1941e-05 -0 2.1941e-05)
(2.19409e-05 6.47723e-19 -0 2.19409e-05 -0 2.19409e-05)
(2.67246e-05 -1.65034e-11 -0 2.67246e-05 -0 2.67246e-05)
(2.67243e-05 2.13672e-11 -0 2.67243e-05 -0 2.67243e-05)
(2.67158e-05 -5.03677e-12 -0 2.67159e-05 -0 2.67159e-05)
(2.67128e-05 1.19319e-12 -0 2.67128e-05 -0 2.67128e-05)
(2.67071e-05 -2.81122e-13 -0 2.67071e-05 -0 2.67071e-05)
(2.67041e-05 6.67484e-14 -0 2.67041e-05 -0 2.67041e-05)
(2.66995e-05 -1.55707e-14 -0 2.66995e-05 -0 2.66995e-05)
(2.66966e-05 3.79416e-15 -0 2.66966e-05 -0 2.66966e-05)
(2.66931e-05 -8.21882e-16 -0 2.66931e-05 -0 2.66931e-05)
(2.66902e-05 2.40169e-16 -0 2.66902e-05 -0 2.66902e-05)
(2.66878e-05 -2.65477e-17 -0 2.66878e-05 -0 2.66878e-05)
(2.66851e-05 2.59917e-17 -0 2.66851e-05 -0 2.66851e-05)
(2.66834e-05 6.96221e-18 -0 2.66834e-05 -0 2.66834e-05)
(2.66815e-05 7.30665e-18 -0 2.66815e-05 -0 2.66815e-05)
(2.66802e-05 4.4122e-18 -0 2.66802e-05 -0 2.66802e-05)
(2.6679e-05 3.15543e-18 -0 2.6679e-05 -0 2.6679e-05)
(2.66782e-05 1.93854e-18 -0 2.66782e-05 -0 2.66782e-05)
(2.66775e-05 2.19934e-18 -0 2.66775e-05 -0 2.66775e-05)
(2.66772e-05 2.12541e-18 -0 2.66772e-05 -0 2.66772e-05)
(2.66771e-05 1.03689e-18 -0 2.66771e-05 -0 2.66771e-05)
(3.04482e-05 1.75237e-11 -0 3.04482e-05 -0 3.04482e-05)
(3.04477e-05 -2.28411e-11 -0 3.04477e-05 -0 3.04477e-05)
(3.0437e-05 5.37407e-12 -0 3.0437e-05 -0 3.0437e-05)
(3.04327e-05 -1.27245e-12 -0 3.04327e-05 -0 3.04327e-05)
(3.04254e-05 2.99835e-13 -0 3.04254e-05 -0 3.04254e-05)
(3.04214e-05 -7.06204e-14 -0 3.04214e-05 -0 3.04214e-05)
(3.04154e-05 1.67913e-14 -0 3.04154e-05 -0 3.04154e-05)
(3.04115e-05 -3.85317e-15 -0 3.04115e-05 -0 3.04115e-05)
(3.0407e-05 9.77941e-16 -0 3.0407e-05 -0 3.0407e-05)
(3.04031e-05 -1.81177e-16 -0 3.04031e-05 -0 3.04031e-05)
(3.03999e-05 7.62002e-17 -0 3.03999e-05 -0 3.03999e-05)
(3.03966e-05 5.39449e-18 -0 3.03966e-05 -0 3.03966e-05)
(3.03943e-05 1.51726e-17 -0 3.03943e-05 -0 3.03943e-05)
(3.03918e-05 8.21972e-18 -0 3.03918e-05 -0 3.03918e-05)
(3.03901e-05 6.52757e-18 -0 3.03901e-05 -0 3.03901e-05)
(3.03884e-05 4.35376e-18 -0 3.03884e-05 -0 3.03884e-05)
(3.03873e-05 2.87479e-18 -0 3.03873e-05 -0 3.03873e-05)
(3.03866e-05 2.48068e-18 -0 3.03866e-05 -0 3.03866e-05)
(3.03861e-05 3.15521e-18 -0 3.03861e-05 -0 3.03861e-05)
(3.03859e-05 1.48287e-18 -0 3.03859e-05 -0 3.03859e-05)
(3.28178e-05 -1.81644e-11 -0 3.28178e-05 -0 3.28178e-05)
(3.28175e-05 2.37406e-11 -0 3.28175e-05 -0 3.28175e-05)
(3.28045e-05 -5.58161e-12 -0 3.28045e-05 -0 3.28045e-05)
(3.27999e-05 1.32174e-12 -0 3.27999e-05 -0 3.27999e-05)
(3.27909e-05 -3.1102e-13 -0 3.27909e-05 -0 3.27909e-05)
(3.27866e-05 7.34983e-14 -0 3.27866e-05 -0 3.27866e-05)
(3.27791e-05 -1.72496e-14 -0 3.27791e-05 -0 3.27791e-05)
(3.27753e-05 4.13121e-15 -0 3.27753e-05 -0 3.27753e-05)
(3.2769e-05 -9.16826e-16 -0 3.2769e-05 -0 3.2769e-05)
(3.27657e-05 2.58569e-16 -0 3.27657e-05 -0 3.27657e-05)
(3.27608e-05 -2.90693e-17 -0 3.27608e-05 -0 3.27608e-05)
(3.27579e-05 3.01263e-17 -0 3.27579e-05 -0 3.27579e-05)
(3.27543e-05 1.01732e-17 -0 3.27543e-05 -0 3.27543e-05)
(3.2752e-05 1.03196e-17 -0 3.2752e-05 -0 3.2752e-05)
(3.27494e-05 6.82146e-18 -0 3.27494e-05 -0 3.27494e-05)
(3.2748e-05 4.96673e-18 -0 3.2748e-05 -0 3.2748e-05)
(3.27464e-05 3.53131e-18 -0 3.27464e-05 -0 3.27464e-05)
(3.27457e-05 3.29546e-18 -0 3.27457e-05 -0 3.27457e-05)
(3.27451e-05 4.12514e-18 -0 3.27451e-05 -0 3.27451e-05)
(3.27449e-05 2.24509e-18 -0 3.27449e-05 -0 3.27449e-05)
(3.41867e-05 1.85341e-11 -0 3.41867e-05 -0 3.41867e-05)
(3.41865e-05 -2.42544e-11 -0 3.41865e-05 -0 3.41865e-05)
(3.41721e-05 5.70043e-12 -0 3.41721e-05 -0 3.41721e-05)
(3.41673e-05 -1.34997e-12 -0 3.41673e-05 -0 3.41673e-05)
(3.41572e-05 3.17586e-13 -0 3.41572e-05 -0 3.41572e-05)
(3.41529e-05 -7.49398e-14 -0 3.41529e-05 -0 3.41529e-05)
(3.41443e-05 1.77077e-14 -0 3.41443e-05 -0 3.41443e-05)
(3.41405e-05 -4.1239e-15 -0 3.41405e-05 -0 3.41405e-05)
(3.41332e-05 1.01067e-15 -0 3.41332e-05 -0 3.41332e-05)
(3.41301e-05 -2.04603e-16 -0 3.41301e-05 -0 3.41301e-05)
(3.41242e-05 7.44692e-17 -0 3.41242e-05 -0 3.41242e-05)
(3.41217e-05 2.91357e-18 -0 3.41217e-05 -0 3.41217e-05)
(3.41172e-05 1.48213e-17 -0 3.41172e-05 -0 3.41172e-05)
(3.41151e-05 8.60695e-18 -0 3.41151e-05 -0 3.41151e-05)
(3.41121e-05 7.22028e-18 -0 3.41121e-05 -0 3.41121e-05)
(3.41106e-05 4.89811e-18 -0 3.41106e-05 -0 3.41106e-05)
(3.41088e-05 3.07162e-18 -0 3.41088e-05 -0 3.41088e-05)
(3.4108e-05 3.30346e-18 -0 3.4108e-05 -0 3.4108e-05)
(3.41074e-05 4.4102e-18 -0 3.41074e-05 -0 3.41074e-05)
(3.41072e-05 2.43918e-18 -0 3.41072e-05 -0 3.41072e-05)
(3.49626e-05 -1.87718e-11 -0 3.49626e-05 -0 3.49626e-05)
(3.49625e-05 2.4555e-11 -0 3.49625e-05 -0 3.49625e-05)
(3.4947e-05 -5.77281e-12 -0 3.4947e-05 -0 3.4947e-05)
(3.49423e-05 1.367e-12 -0 3.49423e-05 -0 3.49423e-05)
(3.49317e-05 -3.21708e-13 -0 3.49317e-05 -0 3.49317e-05)
(3.4927e-05 7.59636e-14 -0 3.4927e-05 -0 3.4927e-05)
(3.49181e-05 -1.78941e-14 -0 3.49181e-05 -0 3.49181e-05)
(3.49141e-05 4.23792e-15 -0 3.49141e-05 -0 3.49141e-05)
(3.49066e-05 -9.73167e-16 -0 3.49066e-05 -0 3.49066e-05)
(3.49031e-05 2.52404e-16 -0 3.49031e-05 -0 3.49031e-05)
(3.48972e-05 -3.91942e-17 -0 3.48972e-05 -0 3.48972e-05)
(3.48943e-05 2.56735e-17 -0 3.48943e-05 -0 3.48943e-05)
(3.48897e-05 7.58021e-18 -0 3.48897e-05 -0 3.48897e-05)
(3.48875e-05 9.02646e-18 -0 3.48875e-05 -0 3.48875e-05)
(3.48843e-05 6.2715e-18 -0 3.48843e-05 -0 3.48843e-05)
(3.48828e-05 4.68881e-18 -0 3.48828e-05 -0 3.48828e-05)
(3.48809e-05 3.25017e-18 -0 3.48809e-05 -0 3.48809e-05)
(3.48801e-05 3.66775e-18 -0 3.48801e-05 -0 3.48801e-05)
(3.48794e-05 4.55629e-18 -0 3.48794e-05 -0 3.48794e-05)
(3.48792e-05 2.01576e-18 -0 3.48792e-05 -0 3.48792e-05)
(3.54278e-05 1.89411e-11 -0 3.54278e-05 -0 3.54278e-05)
(3.54274e-05 -2.47512e-11 -0 3.54274e-05 -0 3.54274e-05)
(3.5412e-05 5.8217e-12 -0 3.5412e-05 -0 3.5412e-05)
(3.54068e-05 -1.37863e-12 -0 3.54068e-05 -0 3.54068e-05)
(3.5396e-05 3.24514e-13 -0 3.5396e-05 -0 3.5396e-05)
(3.53913e-05 -7.66682e-14 -0 3.53913e-05 -0 3.53913e-05)
(3.53819e-05 1.80822e-14 -0 3.53819e-05 -0 3.53819e-05)
(3.5378e-05 -4.25044e-15 -0 3.5378e-05 -0 3.5378e-05)
(3.537e-05 1.01601e-15 -0 3.537e-05 -0 3.537e-05)
(3.53668e-05 -2.2394e-16 -0 3.53668e-05 -0 3.53668e-05)
(3.53602e-05 6.72017e-17 -0 3.53602e-05 -0 3.53602e-05)
(3.53577e-05 -3.076e-18 -0 3.53577e-05 -0 3.53577e-05)
(3.53526e-05 1.16882e-17 -0 3.53526e-05 -0 3.53526e-05)
(3.53507e-05 6.44122e-18 -0 3.53507e-05 -0 3.53507e-05)
(3.53471e-05 5.7939e-18 -0 3.53471e-05 -0 3.53471e-05)
(3.53457e-05 4.16713e-18 -0 3.53457e-05 -0 3.53457e-05)
(3.53437e-05 2.82286e-18 -0 3.53437e-05 -0 3.53437e-05)
(3.53429e-05 3.51128e-18 -0 3.53429e-05 -0 3.53429e-05)
(3.53422e-05 4.89146e-18 -0 3.53422e-05 -0 3.53422e-05)
(3.5342e-05 2.18766e-18 -0 3.5342e-05 -0 3.5342e-05)
(3.57442e-05 -1.90915e-11 -0 3.57443e-05 -0 3.57443e-05)
(3.57438e-05 2.49042e-11 -0 3.57438e-05 -0 3.57438e-05)
(3.57283e-05 -5.86236e-12 -0 3.57283e-05 -0 3.57283e-05)
(3.57227e-05 1.38807e-12 -0 3.57227e-05 -0 3.57227e-05)
(3.57121e-05 -3.27064e-13 -0 3.57121e-05 -0 3.57121e-05)
(3.57069e-05 7.72737e-14 -0 3.57069e-05 -0 3.57069e-05)
(3.56979e-05 -1.82394e-14 -0 3.56979e-05 -0 3.56979e-05)
(3.56932e-05 4.30447e-15 -0 3.56932e-05 -0 3.56932e-05)
(3.56859e-05 -1.00857e-15 -0 3.56859e-05 -0 3.56859e-05)
(3.56816e-05 2.46164e-16 -0 3.56816e-05 -0 3.56816e-05)
(3.56761e-05 -4.92364e-17 -0 3.56761e-05 -0 3.56761e-05)
(3.56721e-05 2.01309e-17 -0 3.56721e-05 -0 3.56721e-05)
(3.56685e-05 2.79925e-18 -0 3.56685e-05 -0 3.56685e-05)
(3.56648e-05 6.02266e-18 -0 3.56648e-05 -0 3.56648e-05)
(3.56627e-05 4.4088e-18 -0 3.56627e-05 -0 3.56627e-05)
(3.56601e-05 3.38631e-18 -0 3.56601e-05 -0 3.56601e-05)
(3.56589e-05 2.31405e-18 -0 3.56589e-05 -0 3.56589e-05)
(3.56576e-05 2.98653e-18 -0 3.56576e-05 -0 3.56576e-05)
(3.56571e-05 4.77997e-18 -0 3.56571e-05 -0 3.56571e-05)
(3.56568e-05 1.98044e-18 -0 3.56568e-05 -0 3.56568e-05)
(3.59972e-05 1.92362e-11 -0 3.59972e-05 -0 3.59972e-05)
(3.59968e-05 -2.50439e-11 -0 3.59968e-05 -0 3.59968e-05)
(3.59808e-05 5.90001e-12 -0 3.59808e-05 -0 3.59808e-05)
(3.59752e-05 -1.397e-12 -0 3.59752e-05 -0 3.59752e-05)
(3.59644e-05 3.29379e-13 -0 3.59644e-05 -0 3.59644e-05)
(3.59591e-05 -7.78971e-14 -0 3.59591e-05 -0 3.59591e-05)
(3.59501e-05 1.83799e-14 -0 3.59501e-05 -0 3.59501e-05)
(3.5945e-05 -4.34312e-15 -0 3.5945e-05 -0 3.5945e-05)
(3.59381e-05 1.02655e-15 -0 3.59381e-05 -0 3.59381e-05)
(3.59331e-05 -2.38638e-16 -0 3.59331e-05 -0 3.59331e-05)
(3.59283e-05 6.13528e-17 -0 3.59283e-05 -0 3.59283e-05)
(3.59235e-05 -8.88435e-18 -0 3.59235e-05 -0 3.59235e-05)
(3.59205e-05 7.29345e-18 -0 3.59205e-05 -0 3.59205e-05)
(3.59162e-05 3.37333e-18 -0 3.59162e-05 -0 3.59162e-05)
(3.59146e-05 3.89079e-18 -0 3.59146e-05 -0 3.59146e-05)
(3.59116e-05 2.39878e-18 -0 3.59116e-05 -0 3.59116e-05)
(3.59105e-05 1.65652e-18 -0 3.59105e-05 -0 3.59105e-05)
(3.59091e-05 2.47711e-18 -0 3.59091e-05 -0 3.59091e-05)
(3.59087e-05 4.62153e-18 -0 3.59087e-05 -0 3.59087e-05)
(3.59084e-05 1.67952e-18 -0 3.59084e-05 -0 3.59084e-05)
(3.62304e-05 -1.93885e-11 -0 3.62304e-05 -0 3.62304e-05)
(3.623e-05 2.51844e-11 -0 3.62299e-05 -0 3.62299e-05)
(3.6214e-05 -5.93906e-12 -0 3.6214e-05 -0 3.6214e-05)
(3.62082e-05 1.40608e-12 -0 3.62082e-05 -0 3.62082e-05)
(3.61972e-05 -3.31903e-13 -0 3.61972e-05 -0 3.61972e-05)
(3.61919e-05 7.85056e-14 -0 3.61919e-05 -0 3.61919e-05)
(3.61825e-05 -1.85532e-14 -0 3.61825e-05 -0 3.61825e-05)
(3.61778e-05 4.382e-15 -0 3.61778e-05 -0 3.61778e-05)
(3.61702e-05 -1.03657e-15 -0 3.61702e-05 -0 3.61702e-05)
(3.61659e-05 2.46151e-16 -0 3.61659e-05 -0 3.61659e-05)
(3.61602e-05 -5.59456e-17 -0 3.61602e-05 -0 3.61602e-05)
(3.61561e-05 1.60019e-17 -0 3.61561e-05 -0 3.61561e-05)
(3.61523e-05 -3.14239e-19 -0 3.61523e-05 -0 3.61523e-05)
(3.61487e-05 3.47057e-18 -0 3.61487e-05 -0 3.61487e-05)
(3.61464e-05 2.14802e-18 -0 3.61464e-05 -0 3.61464e-05)
(3.61438e-05 1.93219e-18 -0 3.61438e-05 -0 3.61438e-05)
(3.61424e-05 1.07477e-18 -0 3.61424e-05 -0 3.61424e-05)
(3.61413e-05 2.37326e-18 -0 3.61413e-05 -0 3.61413e-05)
(3.61407e-05 4.2071e-18 -0 3.61407e-05 -0 3.61407e-05)
(3.61404e-05 1.66819e-18 -0 3.61404e-05 -0 3.61404e-05)
(3.6468e-05 1.95487e-11 -0 3.6468e-05 -0 3.6468e-05)
(3.64675e-05 -2.53324e-11 -0 3.64675e-05 -0 3.64675e-05)
(3.64513e-05 5.98005e-12 -0 3.64513e-05 -0 3.64513e-05)
(3.64454e-05 -1.41569e-12 -0 3.64454e-05 -0 3.64454e-05)
(3.64346e-05 3.34492e-13 -0 3.64346e-05 -0 3.64346e-05)
(3.64287e-05 -7.91867e-14 -0 3.64287e-05 -0 3.64287e-05)
(3.64197e-05 1.87087e-14 -0 3.64197e-05 -0 3.64197e-05)
(3.64144e-05 -4.43455e-15 -0 3.64144e-05 -0 3.64144e-05)
(3.64073e-05 1.04489e-15 -0 3.64073e-05 -0 3.64073e-05)
(3.64022e-05 -2.49023e-16 -0 3.64022e-05 -0 3.64022e-05)
(3.63972e-05 5.89066e-17 -0 3.63972e-05 -0 3.63972e-05)
(3.63923e-05 -1.33083e-17 -0 3.63923e-05 -0 3.63923e-05)
(3.63891e-05 4.36316e-18 -0 3.63891e-05 -0 3.63891e-05)
(3.63851e-05 1.12474e-18 -0 3.63851e-05 -0 3.63851e-05)
(3.63829e-05 1.76565e-18 -0 3.63829e-05 -0 3.63829e-05)
(3.63804e-05 1.19515e-18 -0 3.63804e-05 -0 3.63804e-05)
(3.63788e-05 8.10897e-19 -0 3.63788e-05 -0 3.63788e-05)
(3.63777e-05 2.19196e-18 -0 3.63777e-05 -0 3.63777e-05)
(3.6377e-05 4.001e-18 -0 3.6377e-05 -0 3.6377e-05)
(3.63768e-05 1.13766e-18 -0 3.63768e-05 -0 3.63768e-05)
(3.67246e-05 -1.97179e-11 -0 3.67246e-05 -0 3.67246e-05)
(3.67242e-05 2.54908e-11 -0 3.67242e-05 -0 3.67242e-05)
(3.67077e-05 -6.02367e-12 -0 3.67077e-05 -0 3.67077e-05)
(3.67019e-05 1.42591e-12 -0 3.67019e-05 -0 3.67019e-05)
(3.66904e-05 -3.37259e-13 -0 3.66904e-05 -0 3.66904e-05)
(3.66852e-05 7.98742e-14 -0 3.66852e-05 -0 3.66852e-05)
(3.66753e-05 -1.88971e-14 -0 3.66753e-05 -0 3.66753e-05)
(3.66708e-05 4.4723e-15 -0 3.66708e-05 -0 3.66708e-05)
(3.66625e-05 -1.06359e-15 -0 3.66625e-05 -0 3.66625e-05)
(3.66587e-05 2.48488e-16 -0 3.66587e-05 -0 3.66587e-05)
(3.66519e-05 -6.13076e-17 -0 3.66519e-05 -0 3.66519e-05)
(3.66488e-05 1.34811e-17 -0 3.66488e-05 -0 3.66488e-05)
(3.66437e-05 -3.18365e-18 -0 3.66437e-05 -0 3.66437e-05)
(3.66413e-05 1.60958e-18 -0 3.66413e-05 -0 3.66413e-05)
(3.66377e-05 9.55879e-19 -0 3.66377e-05 -0 3.66377e-05)
(3.66361e-05 1.0631e-18 -0 3.66361e-05 -0 3.66361e-05)
(3.6634e-05 4.18028e-19 -0 3.6634e-05 -0 3.6634e-05)
(3.66331e-05 1.5389e-18 -0 3.66331e-05 -0 3.66331e-05)
(3.66324e-05 3.68081e-18 -0 3.66324e-05 -0 3.66324e-05)
(3.66321e-05 5.17537e-19 -0 3.66321e-05 -0 3.66321e-05)
(3.70113e-05 1.98964e-11 -0 3.70113e-05 -0 3.70113e-05)
(3.70111e-05 -2.56617e-11 -0 3.70111e-05 -0 3.70111e-05)
(3.69938e-05 6.07018e-12 -0 3.69938e-05 -0 3.69938e-05)
(3.69884e-05 -1.43683e-12 -0 3.69884e-05 -0 3.69884e-05)
(3.69766e-05 3.40186e-13 -0 3.69766e-05 -0 3.69766e-05)
(3.69713e-05 -8.06254e-14 -0 3.69713e-05 -0 3.69713e-05)
(3.69612e-05 1.90697e-14 -0 3.69612e-05 -0 3.69612e-05)
(3.69567e-05 -4.53454e-15 -0 3.69567e-05 -0 3.69567e-05)
(3.69481e-05 1.06604e-15 -0 3.69481e-05 -0 3.69481e-05)
(3.69445e-05 -2.59171e-16 -0 3.69445e-05 -0 3.69445e-05)
(3.69374e-05 5.72192e-17 -0 3.69374e-05 -0 3.69374e-05)
(3.69345e-05 -1.63533e-17 -0 3.69345e-05 -0 3.69345e-05)
(3.69291e-05 2.47818e-18 -0 3.69291e-05 -0 3.69291e-05)
(3.69268e-05 -1.18095e-18 -0 3.69268e-05 -0 3.69268e-05)
(3.69231e-05 6.28109e-19 -0 3.69231e-05 -0 3.69231e-05)
(3.69214e-05 1.26945e-19 -0 3.69214e-05 -0 3.69214e-05)
(3.69194e-05 1.04533e-20 -0 3.69194e-05 -0 3.69194e-05)
(3.69184e-05 1.31682e-18 -0 3.69184e-05 -0 3.69184e-05)
(3.69177e-05 3.09149e-18 -0 3.69177e-05 -0 3.69177e-05)
(3.69174e-05 4.47426e-19 -0 3.69174e-05 -0 3.69174e-05)
(3.73386e-05 -2.00793e-11 -0 3.73386e-05 -0 3.73386e-05)
(3.73382e-05 2.58442e-11 -0 3.73382e-05 -0 3.73382e-05)
(3.73212e-05 -6.11912e-12 -0 3.73212e-05 -0 3.73212e-05)
(3.73151e-05 1.44828e-12 -0 3.73151e-05 -0 3.73151e-05)
(3.73035e-05 -3.43194e-13 -0 3.73035e-05 -0 3.73035e-05)
(3.72978e-05 8.13646e-14 -0 3.72978e-05 -0 3.72978e-05)
(3.72879e-05 -1.92746e-14 -0 3.72879e-05 -0 3.72879e-05)
(3.72828e-05 4.56606e-15 -0 3.72828e-05 -0 3.72828e-05)
(3.72747e-05 -1.09261e-15 -0 3.72747e-05 -0 3.72747e-05)
(3.72703e-05 2.51274e-16 -0 3.72703e-05 -0 3.72703e-05)
(3.72639e-05 -6.57501e-17 -0 3.72639e-05 -0 3.72639e-05)
(3.72602e-05 1.13346e-17 -0 3.72602e-05 -0 3.72602e-05)
(3.72553e-05 -5.47484e-18 -0 3.72553e-05 -0 3.72553e-05)
(3.72526e-05 2.8129e-20 -0 3.72526e-05 -0 3.72526e-05)
(3.7249e-05 -5.00029e-19 -0 3.7249e-05 -0 3.7249e-05)
(3.72472e-05 -4.20716e-19 -0 3.72472e-05 -0 3.72472e-05)
(3.72451e-05 -9.50329e-20 -0 3.72451e-05 -0 3.72451e-05)
(3.72441e-05 1.1083e-18 -0 3.72441e-05 -0 3.72441e-05)
(3.72434e-05 2.68612e-18 -0 3.72434e-05 -0 3.72434e-05)
(3.72431e-05 3.28687e-20 -0 3.72431e-05 -0 3.72431e-05)
(3.77175e-05 2.02717e-11 -0 3.77175e-05 -0 3.77175e-05)
(3.7717e-05 -2.60417e-11 -0 3.7717e-05 -0 3.7717e-05)
(3.76999e-05 6.17149e-12 -0 3.76999e-05 -0 3.76999e-05)
(3.76935e-05 -1.46054e-12 -0 3.76935e-05 -0 3.76935e-05)
(3.76816e-05 3.46372e-13 -0 3.76816e-05 -0 3.76816e-05)
(3.7676e-05 -8.21938e-14 -0 3.7676e-05 -0 3.7676e-05)
(3.76656e-05 1.94447e-14 -0 3.76656e-05 -0 3.76656e-05)
(3.76608e-05 -4.64383e-15 -0 3.76608e-05 -0 3.76608e-05)
(3.76521e-05 1.08626e-15 -0 3.76521e-05 -0 3.76521e-05)
(3.7648e-05 -2.69231e-16 -0 3.7648e-05 -0 3.7648e-05)
(3.76409e-05 5.66347e-17 -0 3.76409e-05 -0 3.76409e-05)
(3.76376e-05 -1.85622e-17 -0 3.76376e-05 -0 3.76376e-05)
(3.76323e-05 1.56206e-18 -0 3.76323e-05 -0 3.76323e-05)
(3.76296e-05 -1.81561e-18 -0 3.76296e-05 -0 3.76296e-05)
(3.76259e-05 -4.85447e-19 -0 3.76259e-05 -0 3.76259e-05)
(3.76242e-05 -6.24425e-19 -0 3.76242e-05 -0 3.76242e-05)
(3.7622e-05 -7.57395e-19 -0 3.7622e-05 -0 3.7622e-05)
(3.76211e-05 6.03015e-19 -0 3.76211e-05 -0 3.76211e-05)
(3.76203e-05 2.33262e-18 -0 3.76203e-05 -0 3.76203e-05)
(3.762e-05 1.10952e-19 -0 3.762e-05 -0 3.762e-05)
(3.81536e-05 -2.04608e-11 -0 3.81536e-05 -0 3.81536e-05)
(3.81534e-05 2.62515e-11 -0 3.81534e-05 -0 3.81534e-05)
(3.81351e-05 -6.22483e-12 -0 3.81351e-05 -0 3.81351e-05)
(3.81293e-05 1.47312e-12 -0 3.81293e-05 -0 3.81293e-05)
(3.81166e-05 -3.49565e-13 -0 3.81166e-05 -0 3.81166e-05)
(3.81112e-05 8.29059e-14 -0 3.81112e-05 -0 3.81112e-05)
(3.81004e-05 -1.96773e-14 -0 3.81004e-05 -0 3.81004e-05)
(3.80957e-05 4.65408e-15 -0 3.80957e-05 -0 3.80957e-05)
(3.80865e-05 -1.12227e-15 -0 3.80865e-05 -0 3.80865e-05)
(3.80827e-05 2.5427e-16 -0 3.80827e-05 -0 3.80827e-05)
(3.80752e-05 -6.92203e-17 -0 3.80752e-05 -0 3.80752e-05)
(3.80721e-05 1.07327e-17 -0 3.80721e-05 -0 3.80721e-05)
(3.80664e-05 -6.13262e-18 -0 3.80664e-05 -0 3.80664e-05)
(3.80639e-05 -4.89394e-19 -0 3.80639e-05 -0 3.80639e-05)
(3.806e-05 -1.00266e-18 -0 3.806e-05 -0 3.806e-05)
(3.80582e-05 -2.90419e-19 -0 3.80582e-05 -0 3.80582e-05)
(3.8056e-05 -8.12918e-19 -0 3.8056e-05 -0 3.8056e-05)
(3.80549e-05 3.78588e-19 -0 3.80549e-05 -0 3.80549e-05)
(3.80542e-05 1.79761e-18 -0 3.80542e-05 -0 3.80542e-05)
(3.80539e-05 -1.37375e-20 -0 3.80539e-05 -0 3.80539e-05)
(3.86275e-05 2.0644e-11 -0 3.86275e-05 -0 3.86275e-05)
(3.8627e-05 -2.64617e-11 -0 3.8627e-05 -0 3.8627e-05)
(3.86087e-05 6.27842e-12 -0 3.86087e-05 -0 3.86087e-05)
(3.86022e-05 -1.48628e-12 -0 3.86022e-05 -0 3.86022e-05)
(3.85898e-05 3.5265e-13 -0 3.85898e-05 -0 3.85898e-05)
(3.85836e-05 -8.38551e-14 -0 3.85836e-05 -0 3.85836e-05)
(3.85733e-05 1.98278e-14 -0 3.85733e-05 -0 3.85733e-05)
(3.85675e-05 -4.75452e-15 -0 3.85675e-05 -0 3.85675e-05)
(3.85594e-05 1.11035e-15 -0 3.85594e-05 -0 3.85594e-05)
(3.85538e-05 -2.77084e-16 -0 3.85538e-05 -0 3.85538e-05)
(3.85481e-05 5.83721e-17 -0 3.85481e-05 -0 3.85481e-05)
(3.85427e-05 -1.89306e-17 -0 3.85427e-05 -0 3.85427e-05)
(3.85391e-05 1.30752e-18 -0 3.85391e-05 -0 3.85391e-05)
(3.85343e-05 -2.10186e-18 -0 3.85343e-05 -0 3.85343e-05)
(3.85323e-05 -5.67585e-19 -0 3.85323e-05 -0 3.85323e-05)
(3.85289e-05 -7.60221e-19 -0 3.85289e-05 -0 3.85289e-05)
(3.85276e-05 2.20395e-20 -0 3.85276e-05 -0 3.85276e-05)
(3.85262e-05 2.92471e-19 -0 3.85262e-05 -0 3.85262e-05)
(3.85255e-05 1.3649e-18 -0 3.85255e-05 -0 3.85255e-05)
(3.85252e-05 -1.65356e-20 -0 3.85252e-05 -0 3.85252e-05)
(3.90603e-05 -2.08065e-11 -0 3.90603e-05 -0 3.90603e-05)
(3.90607e-05 2.66045e-11 -0 3.90607e-05 -0 3.90607e-05)
(3.90419e-05 -6.31164e-12 -0 3.90419e-05 -0 3.90419e-05)
(3.90362e-05 1.4914e-12 -0 3.90362e-05 -0 3.90362e-05)
(3.90236e-05 -3.53569e-13 -0 3.90236e-05 -0 3.90236e-05)
(3.90179e-05 8.3742e-14 -0 3.90179e-05 -0 3.90179e-05)
(3.90072e-05 -1.98287e-14 -0 3.90072e-05 -0 3.90072e-05)
(3.90023e-05 4.68046e-15 -0 3.90023e-05 -0 3.90023e-05)
(3.89931e-05 -1.12163e-15 -0 3.89931e-05 -0 3.89931e-05)
(3.89889e-05 2.56852e-16 -0 3.89889e-05 -0 3.89889e-05)
(3.89817e-05 -6.58957e-17 -0 3.89817e-05 -0 3.89817e-05)
(3.89781e-05 1.24357e-17 -0 3.89781e-05 -0 3.89781e-05)
(3.89726e-05 -4.6982e-18 -0 3.89726e-05 -0 3.89726e-05)
(3.89698e-05 4.45232e-19 -0 3.89698e-05 -0 3.89698e-05)
(3.89659e-05 -5.13313e-19 -0 3.89659e-05 -0 3.89659e-05)
(3.8964e-05 -1.11802e-19 -0 3.8964e-05 -0 3.8964e-05)
(3.89617e-05 -3.34932e-19 -0 3.89617e-05 -0 3.89617e-05)
(3.89606e-05 1.4926e-19 -0 3.89606e-05 -0 3.89606e-05)
(3.89598e-05 8.45316e-19 -0 3.89598e-05 -0 3.89598e-05)
(3.89595e-05 -1.1278e-19 -0 3.89595e-05 -0 3.89595e-05)
(3.9232e-05 2.06968e-11 -0 3.9232e-05 -0 3.9232e-05)
(3.92316e-05 -2.54348e-11 -0 3.92316e-05 -0 3.92316e-05)
(3.92315e-05 6.06384e-12 -0 3.92315e-05 -0 3.92315e-05)
(3.92311e-05 -1.43725e-12 -0 3.92311e-05 -0 3.92311e-05)
(3.92311e-05 3.42278e-13 -0 3.92311e-05 -0 3.92311e-05)
(3.92307e-05 -8.14009e-14 -0 3.92307e-05 -0 3.92307e-05)
(3.92308e-05 1.93671e-14 -0 3.92308e-05 -0 3.92308e-05)
(3.92304e-05 -4.60267e-15 -0 3.92304e-05 -0 3.92304e-05)
(3.92305e-05 1.10241e-15 -0 3.92305e-05 -0 3.92305e-05)
(3.92303e-05 -2.60415e-16 -0 3.92303e-05 -0 3.92303e-05)
(3.92303e-05 6.12788e-17 -0 3.92303e-05 -0 3.92303e-05)
(3.92301e-05 -1.67869e-17 -0 3.92301e-05 -0 3.92301e-05)
(3.92302e-05 1.37364e-18 -0 3.92302e-05 -0 3.92302e-05)
(3.92301e-05 -3.24185e-18 -0 3.92301e-05 -0 3.92301e-05)
(3.92301e-05 -1.34577e-18 -0 3.92301e-05 -0 3.92301e-05)
(3.92301e-05 -1.46764e-18 -0 3.92301e-05 -0 3.92301e-05)
(3.92301e-05 -1.35281e-18 -0 3.92301e-05 -0 3.92301e-05)
(3.92301e-05 -2.35169e-19 -0 3.92301e-05 -0 3.92301e-05)
(3.92301e-05 9.4909e-19 -0 3.92301e-05 -0 3.92301e-05)
(3.92301e-05 3.54182e-19 -0 3.92301e-05 -0 3.92301e-05)
)
;

boundaryField
{
    movingWall
    {
        type            kqRWallFunction;
        value           nonuniform List<symmTensor> 
20
(
(3.9232e-05 0 -0 3.9232e-05 -0 3.9232e-05)
(3.92316e-05 -0 -0 3.92316e-05 -0 3.92316e-05)
(3.92315e-05 0 -0 3.92315e-05 -0 3.92315e-05)
(3.92311e-05 -0 -0 3.92311e-05 -0 3.92311e-05)
(3.92311e-05 0 -0 3.92311e-05 -0 3.92311e-05)
(3.92307e-05 -0 -0 3.92307e-05 -0 3.92307e-05)
(3.92308e-05 0 -0 3.92308e-05 -0 3.92308e-05)
(3.92304e-05 -0 -0 3.92304e-05 -0 3.92304e-05)
(3.92305e-05 0 -0 3.92305e-05 -0 3.92305e-05)
(3.92303e-05 -0 -0 3.92303e-05 -0 3.92303e-05)
(3.92303e-05 0 -0 3.92303e-05 -0 3.92303e-05)
(3.92301e-05 -0 -0 3.92301e-05 -0 3.92301e-05)
(3.92302e-05 -0 -0 3.92302e-05 -0 3.92302e-05)
(3.92301e-05 -0 -0 3.92301e-05 -0 3.92301e-05)
(3.92301e-05 -0 -0 3.92301e-05 -0 3.92301e-05)
(3.92301e-05 -0 -0 3.92301e-05 -0 3.92301e-05)
(3.92301e-05 -0 -0 3.92301e-05 -0 3.92301e-05)
(3.92301e-05 -0 -0 3.92301e-05 -0 3.92301e-05)
(3.92301e-05 0 -0 3.92301e-05 -0 3.92301e-05)
(3.92301e-05 0 -0 3.92301e-05 -0 3.92301e-05)
)
;
    }
    fixedWalls
    {
        type            kqRWallFunction;
        value           nonuniform List<symmTensor> 
60
(
(1.8191e-05 -0 -0 1.8191e-05 -0 1.8191e-05)
(2.19728e-05 0 -0 2.19728e-05 -0 2.19728e-05)
(2.67246e-05 -0 -0 2.67246e-05 -0 2.67246e-05)
(3.04482e-05 0 -0 3.04482e-05 -0 3.04482e-05)
(3.28178e-05 -0 -0 3.28178e-05 -0 3.28178e-05)
(3.41867e-05 0 -0 3.41867e-05 -0 3.41867e-05)
(3.49626e-05 -0 -0 3.49626e-05 -0 3.49626e-05)
(3.54278e-05 0 -0 3.54278e-05 -0 3.54278e-05)
(3.57443e-05 -0 -0 3.57443e-05 -0 3.57443e-05)
(3.59972e-05 0 -0 3.59972e-05 -0 3.59972e-05)
(3.62304e-05 -0 -0 3.62304e-05 -0 3.62304e-05)
(3.6468e-05 0 -0 3.6468e-05 -0 3.6468e-05)
(3.67246e-05 -0 -0 3.67246e-05 -0 3.67246e-05)
(3.70113e-05 0 -0 3.70113e-05 -0 3.70113e-05)
(3.73386e-05 -0 -0 3.73386e-05 -0 3.73386e-05)
(3.77175e-05 0 -0 3.77175e-05 -0 3.77175e-05)
(3.81536e-05 -0 -0 3.81536e-05 -0 3.81536e-05)
(3.86275e-05 0 -0 3.86275e-05 -0 3.86275e-05)
(3.90603e-05 -0 -0 3.90603e-05 -0 3.90603e-05)
(3.9232e-05 0 -0 3.9232e-05 -0 3.9232e-05)
(1.819e-05 -0 -0 1.819e-05 -0 1.819e-05)
(2.19409e-05 -0 -0 2.19409e-05 -0 2.19409e-05)
(2.66771e-05 -0 -0 2.66771e-05 -0 2.66771e-05)
(3.03859e-05 -0 -0 3.03859e-05 -0 3.03859e-05)
(3.27449e-05 0 -0 3.27449e-05 -0 3.27449e-05)
(3.41072e-05 -0 -0 3.41072e-05 -0 3.41072e-05)
(3.48792e-05 -0 -0 3.48792e-05 -0 3.48792e-05)
(3.5342e-05 -0 -0 3.5342e-05 -0 3.5342e-05)
(3.56568e-05 -0 -0 3.56568e-05 -0 3.56568e-05)
(3.59084e-05 -0 -0 3.59084e-05 -0 3.59084e-05)
(3.61404e-05 -0 -0 3.61404e-05 -0 3.61404e-05)
(3.63768e-05 -0 -0 3.63768e-05 -0 3.63768e-05)
(3.66321e-05 -0 -0 3.66321e-05 -0 3.66321e-05)
(3.69174e-05 -0 -0 3.69174e-05 -0 3.69174e-05)
(3.72431e-05 -0 -0 3.72431e-05 -0 3.72431e-05)
(3.762e-05 -0 -0 3.762e-05 -0 3.762e-05)
(3.80539e-05 -0 -0 3.80539e-05 -0 3.80539e-05)
(3.85252e-05 -0 -0 3.85252e-05 -0 3.85252e-05)
(3.89595e-05 -0 -0 3.89595e-05 -0 3.89595e-05)
(3.92301e-05 -0 -0 3.92301e-05 -0 3.92301e-05)
(1.8191e-05 -0 -0 1.8191e-05 -0 1.8191e-05)
(1.81909e-05 0 -0 1.81909e-05 -0 1.81909e-05)
(1.81908e-05 -0 -0 1.81908e-05 -0 1.81908e-05)
(1.81906e-05 0 -0 1.81906e-05 -0 1.81906e-05)
(1.81906e-05 -0 -0 1.81906e-05 -0 1.81906e-05)
(1.81905e-05 0 -0 1.81905e-05 -0 1.81905e-05)
(1.81904e-05 -0 -0 1.81904e-05 -0 1.81904e-05)
(1.81903e-05 0 -0 1.81903e-05 -0 1.81903e-05)
(1.81903e-05 -0 -0 1.81903e-05 -0 1.81903e-05)
(1.81902e-05 0 -0 1.81902e-05 -0 1.81902e-05)
(1.81902e-05 -0 -0 1.81902e-05 -0 1.81902e-05)
(1.81901e-05 -0 -0 1.81901e-05 -0 1.81901e-05)
(1.81901e-05 -0 -0 1.81901e-05 -0 1.81901e-05)
(1.81901e-05 -0 -0 1.81901e-05 -0 1.81901e-05)
(1.81901e-05 -0 -0 1.81901e-05 -0 1.81901e-05)
(1.819e-05 -0 -0 1.819e-05 -0 1.819e-05)
(1.819e-05 -0 -0 1.819e-05 -0 1.819e-05)
(1.819e-05 -0 -0 1.819e-05 -0 1.819e-05)
(1.819e-05 0 -0 1.819e-05 -0 1.819e-05)
(1.819e-05 0 -0 1.819e-05 -0 1.819e-05)
)
;
    }
    frontAndBack
    {
        type            empty;
    }
}


// ************************************************************************* //
