/*--------------------------------*- C++ -*----------------------------------*\
| =========                 |                                                 |
| \\      /  F ield         | OpenFOAM: The Open Source CFD Toolbox           |
|  \\    /   O peration     | Version:  2506                                  |
|   \\  /    A nd           | Website:  www.openfoam.com                      |
|    \\/     M anipulation  |                                                 |
\*---------------------------------------------------------------------------*/
FoamFile
{
    version     2.0;
    format      ascii;
    arch        "LSB;label=32;scalar=64";
    class       volScalarField;
    location    "4";
    object      turbulenceProperties:I;
}
// * * * * * * * * * * * * * * * * * * * * * * * * * * * * * * * * * * * * * //

dimensions      [0 0 0 0 0 0 0];

internalField   nonuniform List<scalar> 
400
(
0.00426509
0.00426507
0.00426507
0.00426505
0.00426504
0.00426503
0.00426502
0.00426501
0.00426501
0.004265
0.004265
0.00426499
0.00426499
0.00426498
0.00426498
0.00426498
0.00426498
0.00426498
0.00426498
0.00426498
0.00468751
0.00468751
0.00468691
0.00468668
0.00468628
0.00468606
0.00468573
0.00468551
0.00468528
0.00468505
0.00468489
0.00468469
0.00468458
0.00468442
0.00468434
0.00468424
0.00468419
0.00468414
0.00468412
0.00468411
0.00516958
0.00516956
0.00516874
0.00516844
0.00516789
0.0051676
0.00516716
0.00516687
0.00516654
0.00516626
0.00516602
0.00516576
0.0051656
0.00516542
0.00516529
0.00516517
0.00516509
0.00516503
0.005165
0.00516499
0.00551799
0.00551795
0.00551697
0.00551658
0.00551592
0.00551556
0.00551501
0.00551466
0.00551425
0.0055139
0.00551361
0.00551331
0.0055131
0.00551288
0.00551272
0.00551257
0.00551247
0.0055124
0.00551236
0.00551234
0.00572869
0.00572866
0.00572752
0.00572712
0.00572634
0.00572596
0.0057253
0.00572497
0.00572442
0.00572414
0.0057237
0.00572345
0.00572313
0.00572294
0.00572271
0.00572259
0.00572245
0.00572239
0.00572234
0.00572232
0.00584694
0.00584692
0.00584569
0.00584528
0.00584442
0.00584405
0.00584331
0.00584299
0.00584236
0.0058421
0.00584159
0.00584137
0.00584099
0.00584082
0.00584055
0.00584043
0.00584028
0.00584021
0.00584016
0.00584013
0.00591292
0.00591291
0.0059116
0.0059112
0.0059103
0.00590991
0.00590916
0.00590881
0.00590818
0.00590789
0.00590738
0.00590714
0.00590675
0.00590656
0.00590629
0.00590616
0.005906
0.00590593
0.00590588
0.00590586
0.00595212
0.00595209
0.0059508
0.00595036
0.00594945
0.00594906
0.00594827
0.00594794
0.00594727
0.005947
0.00594645
0.00594623
0.00594581
0.00594564
0.00594534
0.00594523
0.00594506
0.00594499
0.00594493
0.00594491
0.00597865
0.00597861
0.00597732
0.00597685
0.00597596
0.00597552
0.00597477
0.00597438
0.00597376
0.00597341
0.00597295
0.00597261
0.00597231
0.005972
0.00597183
0.00597161
0.00597151
0.0059714
0.00597136
0.00597133
0.00599977
0.00599973
0.0059984
0.00599794
0.00599704
0.00599659
0.00599584
0.00599542
0.00599484
0.00599443
0.00599402
0.00599362
0.00599337
0.00599302
0.00599288
0.00599263
0.00599254
0.00599242
0.00599238
0.00599236
0.00601917
0.00601913
0.00601781
0.00601733
0.00601641
0.00601597
0.00601519
0.0060148
0.00601417
0.00601381
0.00601334
0.006013
0.00601268
0.00601238
0.00601219
0.00601197
0.00601186
0.00601176
0.00601171
0.00601169
0.00603887
0.00603883
0.00603749
0.006037
0.0060361
0.00603562
0.00603488
0.00603444
0.00603385
0.00603342
0.00603301
0.0060326
0.00603234
0.00603201
0.00603182
0.00603161
0.00603149
0.0060314
0.00603134
0.00603132
0.00606008
0.00606005
0.00605869
0.00605821
0.00605726
0.00605683
0.00605602
0.00605564
0.00605496
0.00605464
0.00605408
0.00605382
0.0060534
0.0060532
0.00605291
0.00605278
0.0060526
0.00605253
0.00605247
0.00605245
0.00608369
0.00608368
0.00608225
0.00608181
0.00608084
0.0060804
0.00607957
0.0060792
0.0060785
0.0060782
0.00607762
0.00607738
0.00607693
0.00607674
0.00607644
0.0060763
0.00607613
0.00607605
0.00607599
0.00607597
0.00611053
0.0061105
0.00610911
0.00610861
0.00610766
0.00610719
0.00610638
0.00610596
0.0061053
0.00610494
0.00610442
0.00610411
0.00610371
0.00610349
0.00610319
0.00610305
0.00610287
0.0061028
0.00610273
0.00610271
0.00614146
0.00614141
0.00614003
0.0061395
0.00613853
0.00613808
0.00613723
0.00613684
0.00613613
0.0061358
0.00613522
0.00613495
0.00613452
0.0061343
0.006134
0.00613385
0.00613368
0.0061336
0.00613354
0.00613351
0.00617686
0.00617684
0.00617537
0.00617489
0.00617387
0.00617342
0.00617256
0.00617217
0.00617143
0.00617112
0.00617051
0.00617026
0.0061698
0.00616959
0.00616928
0.00616913
0.00616895
0.00616887
0.00616881
0.00616878
0.0062151
0.00621506
0.00621359
0.00621307
0.00621207
0.00621157
0.00621074
0.00621027
0.00620962
0.00620917
0.00620871
0.00620828
0.00620799
0.0062076
0.00620744
0.00620717
0.00620706
0.00620695
0.00620689
0.00620687
0.00624983
0.00624986
0.00624835
0.0062479
0.00624689
0.00624643
0.00624557
0.00624518
0.00624445
0.00624411
0.00624353
0.00624324
0.0062428
0.00624258
0.00624227
0.00624211
0.00624193
0.00624185
0.00624178
0.00624176
0.00626355
0.00626352
0.0062635
0.00626347
0.00626347
0.00626344
0.00626345
0.00626342
0.00626343
0.00626341
0.00626341
0.0062634
0.0062634
0.00626339
0.00626339
0.00626339
0.00626339
0.00626339
0.00626339
0.00626339
)
;

boundaryField
{
    movingWall
    {
        type            calculated;
        value           nonuniform List<scalar> 
20
(
0.00626355
0.00626352
0.0062635
0.00626347
0.00626347
0.00626344
0.00626345
0.00626342
0.00626343
0.00626341
0.00626341
0.0062634
0.0062634
0.00626339
0.00626339
0.00626339
0.00626339
0.00626339
0.00626339
0.00626339
)
;
    }
    fixedWalls
    {
        type            calculated;
        value           nonuniform List<scalar> 
60
(
0.00426509
0.00468751
0.00516958
0.00551799
0.00572869
0.00584694
0.00591292
0.00595212
0.00597865
0.00599977
0.00601917
0.00603887
0.00606008
0.00608369
0.00611053
0.00614146
0.00617686
0.0062151
0.00624983
0.00626355
0.00426498
0.00468411
0.00516499
0.00551234
0.00572232
0.00584013
0.00590586
0.00594491
0.00597133
0.00599236
0.00601169
0.00603132
0.00605245
0.00607597
0.00610271
0.00613351
0.00616878
0.00620687
0.00624176
0.00626339
0.00426509
0.00426507
0.00426507
0.00426505
0.00426504
0.00426503
0.00426502
0.00426501
0.00426501
0.004265
0.004265
0.00426499
0.00426499
0.00426498
0.00426498
0.00426498
0.00426498
0.00426498
0.00426498
0.00426498
)
;
    }
    frontAndBack
    {
        type            empty;
    }
}


// ************************************************************************* //
