/*--------------------------------*- C++ -*----------------------------------*\
| =========                 |                                                 |
| \\      /  F ield         | OpenFOAM: The Open Source CFD Toolbox           |
|  \\    /   O peration     | Version:  2506                                  |
|   \\  /    A nd           | Website:  www.openfoam.com                      |
|    \\/     M anipulation  |                                                 |
\*---------------------------------------------------------------------------*/
FoamFile
{
    version     2.0;
    format      ascii;
    arch        "LSB;label=32;scalar=64";
    class       volScalarField;
    location    "4";
    object      turbulenceProperties:L;
}
// * * * * * * * * * * * * * * * * * * * * * * * * * * * * * * * * * * * * * //

dimensions      [0 1 0 0 0 0 0];

internalField   nonuniform List<scalar> 
400
(
0.0010194
0.00101941
0.0010194
0.00101941
0.0010194
0.00101941
0.0010194
0.00101941
0.0010194
0.00101941
0.0010194
0.0010194
0.00101941
0.0010194
0.00101941
0.0010194
0.00101941
0.0010194
0.0010194
0.0010194
0.00101815
0.00105335
0.00105016
0.00104885
0.00104624
0.00104489
0.00104233
0.00104093
0.00103843
0.00103698
0.00103453
0.00103304
0.00103063
0.00102911
0.00102673
0.00102519
0.00102283
0.00102128
0.00102009
0.00101815
0.00101708
0.0010568
0.00105315
0.00105165
0.00104867
0.00104714
0.00104422
0.00104264
0.0010398
0.00103817
0.00103539
0.00103372
0.001031
0.00102932
0.00102663
0.00102493
0.00102228
0.00102056
0.00101924
0.00101709
0.00101652
0.00105957
0.00105562
0.00105398
0.00105075
0.00104908
0.00104593
0.0010442
0.00104113
0.00103935
0.00103635
0.00103454
0.0010316
0.00102977
0.00102686
0.00102501
0.00102216
0.00102029
0.00101886
0.00101653
0.00101626
0.00106136
0.0010572
0.0010555
0.0010521
0.00105036
0.00104703
0.00104526
0.001042
0.00104019
0.001037
0.00103514
0.00103202
0.00103013
0.00102707
0.00102515
0.00102215
0.0010202
0.00101871
0.00101627
0.00101613
0.00106237
0.00105809
0.00105636
0.00105286
0.0010511
0.00104767
0.00104587
0.0010425
0.00104067
0.00103737
0.00103549
0.00103228
0.00103035
0.00102721
0.00102525
0.00102218
0.00102017
0.00101864
0.00101615
0.00101607
0.00106293
0.00105858
0.00105683
0.00105329
0.00105149
0.00104802
0.00104619
0.00104279
0.00104092
0.0010376
0.00103568
0.00103243
0.00103047
0.0010273
0.0010253
0.00102219
0.00102016
0.00101861
0.00101609
0.00101603
0.00106323
0.00105887
0.0010571
0.00105353
0.00105173
0.00104822
0.00104639
0.00104294
0.00104108
0.00103771
0.0010358
0.00103251
0.00103055
0.00102734
0.00102533
0.0010222
0.00102015
0.00101859
0.00101605
0.001016
0.00106343
0.00105906
0.00105727
0.00105369
0.00105186
0.00104836
0.00104649
0.00104307
0.00104115
0.00103781
0.00103583
0.00103259
0.00103055
0.00102739
0.00102532
0.00102221
0.00102013
0.00101858
0.00101602
0.00101597
0.0010636
0.0010592
0.0010574
0.00105381
0.00105197
0.00104846
0.00104657
0.00104316
0.0010412
0.00103789
0.00103586
0.00103264
0.00103057
0.00102742
0.00102533
0.00102221
0.00102012
0.00101856
0.00101599
0.00101595
0.00106373
0.00105933
0.00105752
0.00105392
0.00105207
0.00104854
0.00104666
0.00104321
0.00104127
0.00103792
0.00103592
0.00103266
0.00103061
0.00102742
0.00102534
0.0010222
0.00102011
0.00101854
0.00101597
0.00101592
0.00106387
0.00105945
0.00105763
0.00105403
0.00105216
0.00104864
0.00104672
0.00104329
0.00104131
0.00103798
0.00103594
0.0010327
0.00103062
0.00102743
0.00102535
0.00102219
0.0010201
0.00101852
0.00101594
0.00101589
0.00106402
0.00105958
0.00105776
0.00105412
0.00105228
0.00104871
0.00104683
0.00104334
0.00104141
0.00103799
0.00103603
0.00103269
0.00103068
0.00102742
0.00102537
0.00102218
0.00102008
0.0010185
0.00101591
0.00101586
0.00106419
0.0010597
0.0010579
0.00105425
0.00105239
0.00104881
0.00104692
0.00104341
0.00104148
0.00103805
0.00103608
0.00103272
0.00103071
0.00102743
0.00102537
0.00102217
0.00102007
0.00101848
0.00101587
0.00101582
0.00106436
0.00105988
0.00105804
0.00105439
0.00105251
0.00104893
0.00104701
0.00104351
0.00104155
0.00103813
0.00103612
0.00103277
0.00103073
0.00102745
0.00102537
0.00102216
0.00102005
0.00101845
0.00101584
0.00101577
0.00106457
0.00106008
0.00105822
0.00105455
0.00105267
0.00104905
0.00104714
0.0010436
0.00104165
0.00103818
0.00103618
0.00103281
0.00103076
0.00102746
0.00102537
0.00102215
0.00102002
0.00101842
0.00101579
0.00101571
0.00106482
0.00106027
0.00105843
0.00105471
0.00105283
0.00104919
0.00104727
0.0010437
0.00104175
0.00103825
0.00103626
0.00103285
0.0010308
0.00102748
0.00102538
0.00102213
0.00101999
0.00101838
0.00101574
0.00101565
0.00106503
0.00106047
0.00105861
0.00105489
0.00105297
0.00104934
0.00104737
0.00104384
0.0010418
0.00103837
0.00103627
0.00103293
0.00103078
0.00102752
0.00102534
0.00102212
0.00101995
0.00101833
0.00101567
0.00101559
0.00106405
0.00105964
0.00105787
0.00105427
0.00105243
0.00104888
0.00104699
0.00104351
0.00104155
0.00103814
0.00103612
0.00103278
0.0010307
0.00102743
0.00102529
0.00102207
0.00101987
0.00101827
0.0010156
0.00101556
0.00101557
0.00101555
0.00101557
0.00101555
0.00101557
0.00101555
0.00101557
0.00101555
0.00101557
0.00101556
0.00101556
0.00101556
0.00101556
0.00101556
0.00101556
0.00101556
0.00101556
0.00101556
0.00101556
)
;

boundaryField
{
    movingWall
    {
        type            calculated;
        value           nonuniform List<scalar> 
20
(
0.00101556
0.00101557
0.00101555
0.00101557
0.00101555
0.00101557
0.00101555
0.00101557
0.00101555
0.00101557
0.00101556
0.00101556
0.00101556
0.00101556
0.00101556
0.00101556
0.00101556
0.00101556
0.00101556
0.00101556
)
;
    }
    fixedWalls
    {
        type            calculated;
        value           nonuniform List<scalar> 
60
(
0.0010194
0.00101815
0.00101708
0.00101652
0.00101626
0.00101613
0.00101607
0.00101603
0.001016
0.00101597
0.00101595
0.00101592
0.00101589
0.00101586
0.00101582
0.00101577
0.00101571
0.00101565
0.00101559
0.00101556
0.0010194
0.00101815
0.00101709
0.00101653
0.00101627
0.00101615
0.00101609
0.00101605
0.00101602
0.00101599
0.00101597
0.00101594
0.00101591
0.00101587
0.00101584
0.00101579
0.00101574
0.00101567
0.0010156
0.00101556
0.0010194
0.00101941
0.0010194
0.00101941
0.0010194
0.00101941
0.0010194
0.00101941
0.0010194
0.00101941
0.0010194
0.0010194
0.00101941
0.0010194
0.00101941
0.0010194
0.00101941
0.0010194
0.0010194
0.0010194
)
;
    }
    frontAndBack
    {
        type            empty;
    }
}


// ************************************************************************* //
