/*--------------------------------*- C++ -*----------------------------------*\
| =========                 |                                                 |
| \\      /  F ield         | OpenFOAM: The Open Source CFD Toolbox           |
|  \\    /   O peration     | Version:  2506                                  |
|   \\  /    A nd           | Website:  www.openfoam.com                      |
|    \\/     M anipulation  |                                                 |
\*---------------------------------------------------------------------------*/
FoamFile
{
    version     2.0;
    format      ascii;
    arch        "LSB;label=32;scalar=64";
    class       volSymmTensorField;
    location    "4";
    object      turbulenceProperties:devReff;
}
// * * * * * * * * * * * * * * * * * * * * * * * * * * * * * * * * * * * * * //

dimensions      [0 2 -2 0 0 0 0];

internalField   nonuniform List<symmTensor> 
400
(
(-1.67946e-14 -6.0782e-11 -0 -1.36078e-14 -0 3.04024e-14)
(-2.116e-14 7.54067e-11 -0 1.91207e-14 -0 2.03937e-15)
(7.19437e-14 -1.78673e-11 -0 -4.94004e-14 -0 -2.25433e-14)
(-3.0611e-14 4.23364e-12 -0 1.70093e-14 -0 1.36017e-14)
(1.637e-14 -1.00437e-12 -0 -1.06805e-14 -0 -5.68944e-15)
(-3.74001e-15 2.36798e-13 -0 1.83143e-15 -0 1.90858e-15)
(2.33898e-15 -5.67882e-14 -0 -1.64886e-15 -0 -6.90121e-16)
(-1.25769e-16 1.29182e-14 -0 -6.91588e-17 -0 1.94927e-16)
(4.20635e-16 -3.42099e-15 -0 -3.48324e-16 -0 -7.23113e-17)
(1.1694e-16 5.45678e-16 -0 -1.33751e-16 -0 1.68105e-17)
(1.29815e-16 -3.17735e-16 -0 -1.22389e-16 -0 -7.42599e-18)
(7.65236e-17 -6.06913e-17 -0 -7.74247e-17 -0 9.01114e-19)
(6.047e-17 -8.1471e-17 -0 -5.93217e-17 -0 -1.14833e-18)
(4.22431e-17 -4.75035e-17 -0 -4.24738e-17 -0 2.3065e-19)
(3.16291e-17 -3.38284e-17 -0 -3.17487e-17 -0 1.19692e-19)
(2.41701e-17 -2.11105e-17 -0 -2.38329e-17 -0 -3.37163e-19)
(1.76077e-17 -1.22693e-17 -0 -1.77103e-17 -0 1.0253e-19)
(1.43187e-17 -4.96891e-18 -0 -1.3933e-17 -0 -3.85667e-19)
(6.62634e-18 1.73365e-18 -0 -6.95081e-18 -0 3.24473e-19)
(-1.03693e-18 8.67559e-19 -0 6.7344e-19 -0 3.63487e-19)
(1.6766e-13 6.19487e-11 -0 1.99755e-14 -0 -1.87635e-13)
(-2.49484e-13 -7.76643e-11 -0 7.21272e-14 -0 1.77357e-13)
(5.35748e-14 1.83781e-11 -0 -9.67527e-15 -0 -4.38995e-14)
(-2.23786e-14 -4.34358e-12 -0 4.77831e-15 -0 1.76002e-14)
(6.87125e-15 1.02991e-12 -0 -1.93733e-15 -0 -4.93392e-15)
(-1.47604e-15 -2.4166e-13 -0 -1.01401e-16 -0 1.57744e-15)
(1.07249e-15 5.77787e-14 -0 -5.66655e-16 -0 -5.05837e-16)
(6.57757e-17 -1.32234e-14 -0 -2.17887e-16 -0 1.52112e-16)
(2.62231e-16 3.32604e-15 -0 -2.12403e-16 -0 -4.9828e-17)
(1.14041e-16 -6.53945e-16 -0 -1.28173e-16 -0 1.41317e-17)
(1.04395e-16 2.31563e-16 -0 -9.96015e-17 -0 -4.79396e-18)
(7.14269e-17 -3.78579e-18 -0 -7.17631e-17 -0 3.36135e-19)
(5.40483e-17 3.3938e-17 -0 -5.35533e-17 -0 -4.94996e-19)
(3.94103e-17 1.4797e-17 -0 -3.9363e-17 -0 -4.72945e-20)
(2.93174e-17 1.18508e-17 -0 -2.92378e-17 -0 -7.96175e-20)
(2.11241e-17 7.30049e-18 -0 -2.14629e-17 -0 3.38786e-19)
(1.6616e-17 5.46294e-18 -0 -1.67564e-17 -0 1.4037e-19)
(1.29325e-17 4.74099e-18 -0 -1.29759e-17 -0 4.33692e-20)
(7.02698e-18 5.31116e-18 -0 -6.89534e-18 -0 -1.31641e-19)
(-1.69045e-20 2.67234e-18 -0 3.3809e-20 -0 -1.69045e-20)
(-3.16192e-13 -6.32937e-11 -0 2.71683e-14 -0 2.89024e-13)
(4.4389e-13 7.96706e-11 -0 -1.48408e-13 -0 -2.95482e-13)
(-1.11472e-13 -1.88302e-11 -0 4.21504e-14 -0 6.9322e-14)
(4.15274e-14 4.46564e-12 -0 -1.46832e-14 -0 -2.68442e-14)
(-1.26235e-14 -1.0544e-12 -0 5.2625e-15 -0 7.36097e-15)
(3.42209e-15 2.50632e-13 -0 -1.39568e-15 -0 -2.02641e-15)
(-1.14949e-15 -5.85896e-14 -0 4.51716e-16 -0 6.97774e-16)
(4.29494e-16 1.42931e-14 -0 -2.5825e-16 -0 -1.71244e-16)
(-6.86499e-18 -3.10252e-15 -0 -5.11665e-17 -0 5.80315e-17)
(1.14248e-16 9.07696e-16 -0 -9.94966e-17 -0 -1.47518e-17)
(5.84806e-17 -1.00535e-16 -0 -6.31884e-17 -0 4.70778e-18)
(5.67544e-17 9.8551e-17 -0 -5.5342e-17 -0 -1.41244e-18)
(4.1599e-17 2.645e-17 -0 -4.19948e-17 -0 3.95755e-19)
(3.23844e-17 2.77927e-17 -0 -3.24089e-17 -0 2.45643e-20)
(2.38203e-17 1.68156e-17 -0 -2.41225e-17 -0 3.02212e-19)
(1.90359e-17 1.20408e-17 -0 -1.89718e-17 -0 -6.4125e-20)
(1.62065e-17 7.41148e-18 -0 -1.55283e-17 -0 -6.78161e-19)
(1.12345e-17 8.4191e-18 -0 -1.14622e-17 -0 2.27662e-19)
(4.94227e-18 8.14392e-18 -0 -5.4833e-18 -0 5.41023e-19)
(-3.12682e-20 3.97927e-18 -0 6.25365e-20 -0 -3.12682e-20)
(8.02817e-13 6.40957e-11 -0 -3.16771e-13 -0 -4.86046e-13)
(-9.95107e-13 -8.10789e-11 -0 4.51292e-13 -0 5.43815e-13)
(2.26113e-13 1.91299e-11 -0 -9.96273e-14 -0 -1.26486e-13)
(-9.34796e-14 -4.5348e-12 -0 4.30169e-14 -0 5.04627e-14)
(2.22571e-14 1.07102e-12 -0 -9.47952e-15 -0 -1.27776e-14)
(-7.54311e-15 -2.52559e-13 -0 3.57793e-15 -0 3.96518e-15)
(2.09451e-15 6.01854e-14 -0 -8.81562e-16 -0 -1.21295e-15)
(-6.55044e-16 -1.3828e-14 -0 3.08328e-16 -0 3.46716e-16)
(2.02062e-16 3.51725e-15 -0 -1.02273e-16 -0 -9.97895e-17)
(-2.81561e-17 -6.52456e-16 -0 -4.4788e-18 -0 3.26349e-17)
(4.79179e-17 2.74996e-16 -0 -4.03436e-17 -0 -7.57427e-18)
(2.39443e-17 1.94934e-17 -0 -2.76517e-17 -0 3.70733e-18)
(2.73942e-17 5.49418e-17 -0 -2.70783e-17 -0 -3.15913e-19)
(2.14602e-17 2.98038e-17 -0 -2.19612e-17 -0 5.0096e-19)
(1.84605e-17 2.37172e-17 -0 -1.8222e-17 -0 -2.3849e-19)
(1.31921e-17 1.58399e-17 -0 -1.36753e-17 -0 4.83231e-19)
(1.17684e-17 1.04804e-17 -0 -1.15847e-17 -0 -1.83708e-19)
(9.68811e-18 9.05577e-18 -0 -9.67007e-18 -0 -1.80431e-20)
(4.26997e-18 1.15299e-17 -0 -4.80823e-18 -0 5.38266e-19)
(1.04749e-18 5.4278e-18 -0 -6.03228e-19 -0 -4.44259e-19)
(-1.31738e-12 -6.46754e-11 -0 6.22478e-13 -0 6.94903e-13)
(1.58134e-12 8.19472e-11 -0 -7.71032e-13 -0 -8.10309e-13)
(-3.53464e-13 -1.93229e-11 -0 1.72384e-13 -0 1.8108e-13)
(1.46026e-13 4.5812e-12 -0 -7.08465e-14 -0 -7.51796e-14)
(-3.51424e-14 -1.08059e-12 -0 1.74027e-14 -0 1.77397e-14)
(1.08885e-14 2.55671e-13 -0 -5.14713e-15 -0 -5.74137e-15)
(-3.56329e-15 -6.01453e-14 -0 1.84391e-15 -0 1.71938e-15)
(8.22056e-16 1.44226e-14 -0 -3.56396e-16 -0 -4.6566e-16)
(-3.2825e-16 -3.20813e-15 -0 1.81357e-16 -0 1.46893e-16)
(6.76265e-17 9.05931e-16 -0 -2.82866e-17 -0 -3.93398e-17)
(-2.17912e-17 -1.02078e-16 -0 8.71689e-18 -0 1.30743e-17)
(1.64137e-17 1.05928e-16 -0 -1.3131e-17 -0 -3.28263e-18)
(8.89929e-18 3.58493e-17 -0 -1.02297e-17 -0 1.33041e-18)
(1.09772e-17 3.64139e-17 -0 -1.13637e-17 -0 3.8642e-19)
(1.01404e-17 2.41223e-17 -0 -1.04549e-17 -0 3.14461e-19)
(9.00546e-18 1.75875e-17 -0 -8.94566e-18 -0 -5.97987e-20)
(7.95978e-18 1.25311e-17 -0 -7.61666e-18 -0 -3.43123e-19)
(6.16716e-18 1.17104e-17 -0 -6.29912e-18 -0 1.31958e-19)
(2.86558e-18 1.46741e-17 -0 -3.46889e-18 -0 6.03314e-19)
(-8.77486e-20 8.00009e-18 -0 1.75497e-19 -0 -8.77486e-20)
(1.89988e-12 6.50376e-11 -0 -9.80419e-13 -0 -9.19465e-13)
(-2.22423e-12 -8.24623e-11 -0 1.1205e-12 -0 1.10373e-12)
(4.86618e-13 1.9439e-11 -0 -2.44927e-13 -0 -2.41691e-13)
(-2.05736e-13 -4.60909e-12 -0 1.03551e-13 -0 1.02185e-13)
(4.64049e-14 1.08697e-12 -0 -2.31317e-14 -0 -2.32732e-14)
(-1.57702e-14 -2.56805e-13 -0 8.06542e-15 -0 7.70479e-15)
(4.35511e-15 6.08272e-14 -0 -2.09154e-15 -0 -2.26357e-15)
(-1.35383e-15 -1.41837e-14 -0 7.38749e-16 -0 6.15081e-16)
(3.12454e-16 3.48432e-15 -0 -1.23229e-16 -0 -1.89225e-16)
(-1.46792e-16 -7.06282e-16 -0 9.21018e-17 -0 5.46902e-17)
(1.08311e-17 2.5766e-16 -0 3.49943e-18 -0 -1.43305e-17)
(-1.8213e-17 1.00941e-17 -0 1.2802e-17 -0 5.41101e-18)
(6.29788e-19 5.14647e-17 -0 2.63158e-19 -0 -8.92945e-19)
(6.76572e-19 2.99268e-17 -0 -1.35314e-18 -0 6.76572e-19)
(3.08935e-18 2.51607e-17 -0 -3.13761e-18 -0 4.82566e-20)
(3.20398e-18 1.70922e-17 -0 -3.36856e-18 -0 1.64577e-19)
(3.83856e-18 1.07417e-17 -0 -3.88116e-18 -0 4.25928e-20)
(3.85556e-18 1.15688e-17 -0 -3.9173e-18 -0 6.17374e-20)
(1.70234e-18 1.54613e-17 -0 -1.88781e-18 -0 1.85465e-19)
(-1.38736e-18 8.56629e-18 -0 1.2589e-18 -0 1.28459e-19)
(-2.44678e-12 -6.53491e-11 -0 1.32175e-12 -0 1.12503e-12)
(2.82658e-12 8.2796e-11 -0 -1.446e-12 -0 -1.38058e-12)
(-6.12199e-13 -1.95244e-11 -0 3.14264e-13 -0 2.97934e-13)
(2.60127e-13 4.62897e-12 -0 -1.32247e-13 -0 -1.2788e-13)
(-5.85413e-14 -1.09208e-12 -0 3.00788e-14 -0 2.84625e-14)
(1.93498e-14 2.5819e-13 -0 -9.7374e-15 -0 -9.61235e-15)
(-5.84579e-15 -6.09674e-14 -0 3.0586e-15 -0 2.78719e-15)
(1.41918e-15 1.44576e-14 -0 -6.6497e-16 -0 -7.54215e-16)
(-5.56611e-16 -3.32784e-15 -0 3.21792e-16 -0 2.34819e-16)
(8.14447e-17 8.64247e-16 -0 -1.66342e-17 -0 -6.48105e-17)
(-7.09194e-17 -1.34516e-16 -0 5.15686e-17 -0 1.93508e-17)
(-9.94207e-18 8.82305e-17 -0 1.45321e-17 -0 -4.59001e-18)
(-1.55717e-17 2.61098e-17 -0 1.35745e-17 -0 1.99724e-18)
(-4.20633e-18 3.1134e-17 -0 5.35889e-18 -0 -1.15257e-18)
(-4.65669e-18 2.16798e-17 -0 3.97414e-18 -0 6.82546e-19)
(-1.40038e-18 1.62313e-17 -0 1.27614e-18 -0 1.24246e-19)
(2.73247e-19 1.12757e-17 -0 -5.46493e-19 -0 2.73247e-19)
(2.59812e-18 1.27426e-17 -0 -2.15144e-18 -0 -4.46684e-19)
(1.84781e-19 1.58467e-17 -0 -3.69562e-19 -0 1.84781e-19)
(-1.37234e-18 7.02322e-18 -0 1.22404e-18 -0 1.48305e-19)
(2.94353e-12 6.56307e-11 -0 -1.63872e-12 -0 -1.30481e-12)
(-3.36217e-12 -8.30544e-11 -0 1.73587e-12 -0 1.6263e-12)
(7.21013e-13 1.95946e-11 -0 -3.73754e-13 -0 -3.47259e-13)
(-3.08951e-13 -4.64589e-12 -0 1.58506e-13 -0 1.50445e-13)
(6.77683e-14 1.09631e-12 -0 -3.48652e-14 -0 -3.29031e-14)
(-2.32112e-14 -2.59334e-13 -0 1.19769e-14 -0 1.12343e-14)
(6.48064e-15 6.1314e-14 -0 -3.25389e-15 -0 -3.22675e-15)
(-1.89175e-15 -1.44309e-14 -0 1.02098e-15 -0 8.70767e-16)
(4.7605e-16 3.45782e-15 -0 -2.05164e-16 -0 -2.70886e-16)
(-2.08864e-16 -7.63133e-16 -0 1.33846e-16 -0 7.50178e-17)
(4.29532e-18 2.29548e-16 -0 1.67038e-17 -0 -2.09992e-17)
(-3.99665e-17 -1.0521e-17 -0 3.32023e-17 -0 6.76419e-18)
(-1.41216e-17 4.00697e-17 -0 1.59976e-17 -0 -1.87598e-18)
(-1.43073e-17 2.21122e-17 -0 1.33162e-17 -0 9.91111e-19)
(-8.30726e-18 1.99347e-17 -0 8.20815e-18 -0 9.91093e-20)
(-5.29214e-18 1.43577e-17 -0 5.23783e-18 -0 5.43038e-20)
(-1.38468e-18 9.74742e-18 -0 2.00627e-18 -0 -6.21588e-19)
(-2.29481e-18 1.2142e-17 -0 1.53904e-18 -0 7.55778e-19)
(-1.76022e-18 1.69331e-17 -0 1.23352e-18 -0 5.26706e-19)
(-4.04831e-19 7.58666e-18 -0 8.09663e-19 -0 -4.04831e-19)
(-3.36895e-12 -6.59444e-11 -0 1.9128e-12 -0 1.45615e-12)
(3.82249e-12 8.32968e-11 -0 -1.98512e-12 -0 -1.83738e-12)
(-8.15519e-13 -1.96674e-11 -0 4.25739e-13 -0 3.8978e-13)
(3.50612e-13 4.6626e-12 -0 -1.80556e-13 -0 -1.70056e-13)
(-7.66985e-14 -1.10135e-12 -0 3.98467e-14 -0 3.68518e-14)
(2.60548e-14 2.60543e-13 -0 -1.33479e-14 -0 -1.27069e-14)
(-7.57957e-15 -6.16475e-14 -0 3.95272e-15 -0 3.62685e-15)
(1.92697e-15 1.45677e-14 -0 -9.47691e-16 -0 -9.79282e-16)
(-6.96917e-16 -3.42146e-15 -0 3.92224e-16 -0 3.04692e-16)
(1.18455e-16 8.36208e-16 -0 -3.40884e-17 -0 -8.43666e-17)
(-9.19307e-17 -1.67642e-16 -0 6.71981e-17 -0 2.47327e-17)
(-1.65897e-17 6.8638e-17 -0 2.32074e-17 -0 -6.61771e-18)
(-2.55696e-17 9.56576e-18 -0 2.35502e-17 -0 2.01947e-18)
(-1.42929e-17 2.06105e-17 -0 1.47995e-17 -0 -5.06542e-19)
(-1.13042e-17 1.51208e-17 -0 1.11301e-17 -0 1.74051e-19)
(-8.81187e-18 1.16309e-17 -0 8.44663e-18 -0 3.65237e-19)
(-4.88811e-18 7.96525e-18 -0 5.19175e-18 -0 -3.03636e-19)
(-3.53629e-18 1.02951e-17 -0 3.25447e-18 -0 2.81824e-19)
(-1.68858e-18 1.64952e-17 -0 1.85058e-18 -0 -1.62006e-19)
(-2.06196e-18 6.84654e-18 -0 1.83573e-18 -0 2.26228e-19)
(3.68422e-12 6.62793e-11 -0 -2.12445e-12 -0 -1.55977e-12)
(-4.15307e-12 -8.35483e-11 -0 2.16619e-12 -0 1.98688e-12)
(8.80486e-13 1.97431e-11 -0 -4.61969e-13 -0 -4.18516e-13)
(-3.80148e-13 -4.68059e-12 -0 1.96475e-13 -0 1.83673e-13)
(8.20654e-14 1.10632e-12 -0 -4.27e-14 -0 -3.93654e-14)
(-2.82792e-14 -2.61978e-13 -0 1.46357e-14 -0 1.36435e-14)
(7.91742e-15 6.19645e-14 -0 -4.04376e-15 -0 -3.87365e-15)
(-2.22556e-15 -1.46614e-14 -0 1.18437e-15 -0 1.04119e-15)
(6.03303e-16 3.47361e-15 -0 -2.79343e-16 -0 -3.2396e-16)
(-2.35709e-16 -8.08607e-16 -0 1.46101e-16 -0 8.96081e-17)
(1.30682e-17 2.08367e-16 -0 1.30487e-17 -0 -2.61168e-17)
(-4.64086e-17 -3.02162e-17 -0 3.90659e-17 -0 7.34277e-18)
(-1.95118e-17 2.48608e-17 -0 2.13788e-17 -0 -1.86698e-18)
(-1.85453e-17 1.15153e-17 -0 1.7923e-17 -0 6.22235e-19)
(-1.43715e-17 1.33108e-17 -0 1.34229e-17 -0 9.48622e-19)
(-8.71953e-18 8.21853e-18 -0 9.01808e-18 -0 -2.9855e-19)
(-5.8911e-18 5.68776e-18 -0 6.42816e-18 -0 -5.37066e-19)
(-4.57095e-18 8.51779e-18 -0 4.55548e-18 -0 1.54622e-20)
(-2.40072e-18 1.59089e-17 -0 2.50926e-18 -0 -1.0854e-19)
(-1.40106e-18 5.79186e-18 -0 1.27511e-18 -0 1.25944e-19)
(-3.90928e-12 -6.66523e-11 -0 2.27977e-12 -0 1.6295e-12)
(4.38938e-12 8.38196e-11 -0 -2.29707e-12 -0 -2.09231e-12)
(-9.2784e-13 -1.98272e-11 -0 4.88697e-13 -0 4.39143e-13)
(4.01427e-13 4.69998e-12 -0 -2.0794e-13 -0 -1.93488e-13)
(-8.65461e-14 -1.1122e-12 -0 4.5229e-14 -0 4.13172e-14)
(2.9715e-14 2.63408e-13 -0 -1.53344e-14 -0 -1.43806e-14)
(-8.50316e-15 -6.24041e-14 -0 4.42915e-15 -0 4.07401e-15)
(2.20666e-15 1.47582e-14 -0 -1.10942e-15 -0 -1.09724e-15)
(-7.58202e-16 -3.49945e-15 -0 4.17246e-16 -0 3.40956e-16)
(1.45773e-16 8.32127e-16 -0 -5.21321e-17 -0 -9.36411e-17)
(-9.38161e-17 -1.89569e-16 -0 6.68883e-17 -0 2.69278e-17)
(-1.40609e-17 5.42974e-17 -0 2.19728e-17 -0 -7.91192e-18)
(-2.72709e-17 -1.06869e-18 -0 2.53619e-17 -0 1.90903e-18)
(-1.67784e-17 1.18199e-17 -0 1.74407e-17 -0 -6.62263e-19)
(-1.49393e-17 7.33188e-18 -0 1.4544e-17 -0 3.95277e-19)
(-1.1112e-17 6.60478e-18 -0 1.07301e-17 -0 3.81977e-19)
(-8.06678e-18 3.6819e-18 -0 7.71221e-18 -0 3.5457e-19)
(-4.30134e-18 8.14211e-18 -0 4.77709e-18 -0 -4.75756e-19)
(-2.52837e-18 1.44494e-17 -0 2.76242e-18 -0 -2.34051e-19)
(-1.28451e-18 5.73976e-18 -0 1.04061e-18 -0 2.43903e-19)
(3.99192e-12 6.70489e-11 -0 -2.3516e-12 -0 -1.64032e-12)
(-4.462e-12 -8.41122e-11 -0 2.34156e-12 -0 2.12043e-12)
(9.38533e-13 1.99168e-11 -0 -4.96039e-13 -0 -4.42493e-13)
(-4.07164e-13 -4.72097e-12 -0 2.11335e-13 -0 1.95828e-13)
(8.70529e-14 1.11823e-12 -0 -4.55613e-14 -0 -4.14916e-14)
(-3.00476e-14 -2.65071e-13 -0 1.55923e-14 -0 1.44553e-14)
(8.41394e-15 6.27789e-14 -0 -4.32848e-15 -0 -4.08545e-15)
(-2.32353e-15 -1.49004e-14 -0 1.22953e-15 -0 1.094e-15)
(6.54189e-16 3.51926e-15 -0 -3.12988e-16 -0 -3.41201e-16)
(-2.34685e-16 -8.39886e-16 -0 1.41876e-16 -0 9.28085e-17)
(1.89589e-17 1.99134e-16 -0 7.50185e-18 -0 -2.64608e-17)
(-4.46495e-17 -4.50533e-17 -0 3.69823e-17 -0 7.66717e-18)
(-1.89715e-17 1.4804e-17 -0 2.10329e-17 -0 -2.06138e-18)
(-2.04533e-17 3.82175e-18 -0 1.93976e-17 -0 1.05562e-18)
(-1.39246e-17 6.01281e-18 -0 1.40347e-17 -0 -1.10172e-19)
(-1.00236e-17 4.07596e-18 -0 1.00763e-17 -0 -5.26265e-20)
(-6.54234e-18 2.77156e-18 -0 6.95424e-18 -0 -4.11898e-19)
(-4.92775e-18 7.50285e-18 -0 5.26044e-18 -0 -3.32693e-19)
(-3.83703e-18 1.37101e-17 -0 3.84659e-18 -0 -9.5582e-21)
(-1.36536e-18 3.90542e-18 -0 1.20087e-18 -0 1.64492e-19)
(-3.97374e-12 -6.74631e-11 -0 2.35868e-12 -0 1.61506e-12)
(4.43022e-12 8.44229e-11 -0 -2.33009e-12 -0 -2.10013e-12)
(-9.30121e-13 -2.00113e-11 -0 4.92881e-13 -0 4.3724e-13)
(4.03972e-13 4.74297e-12 -0 -2.0998e-13 -0 -1.93992e-13)
(-8.64546e-14 -1.12465e-12 -0 4.53748e-14 -0 4.10798e-14)
(2.96852e-14 2.66695e-13 -0 -1.5371e-14 -0 -1.43142e-14)
(-8.4613e-15 -6.32524e-14 -0 4.41376e-15 -0 4.04754e-15)
(2.20021e-15 1.49893e-14 -0 -1.11521e-15 -0 -1.085e-15)
(-7.41509e-16 -3.57334e-15 -0 4.04766e-16 -0 3.36742e-16)
(1.53182e-16 8.35962e-16 -0 -6.02882e-17 -0 -9.28938e-17)
(-8.82039e-17 -2.06741e-16 -0 6.08143e-17 -0 2.73897e-17)
(-1.01998e-17 4.5523e-17 -0 1.80891e-17 -0 -7.88928e-18)
(-2.58158e-17 -1.07756e-17 -0 2.39321e-17 -0 1.8837e-18)
(-1.613e-17 5.45548e-18 -0 1.68805e-17 -0 -7.50442e-19)
(-1.41705e-17 3.2472e-18 -0 1.37443e-17 -0 4.26254e-19)
(-8.39241e-18 3.61659e-18 -0 9.10688e-18 -0 -7.14464e-19)
(-7.62684e-18 1.42526e-18 -0 7.5828e-18 -0 4.40344e-20)
(-6.04371e-18 5.25453e-18 -0 5.95443e-18 -0 8.92787e-20)
(-3.81063e-18 1.25819e-17 -0 3.78989e-18 -0 2.07369e-20)
(-3.33271e-19 1.77226e-18 -0 6.66541e-19 -0 -3.33271e-19)
(3.80607e-12 6.78885e-11 -0 -2.27591e-12 -0 -1.53016e-12)
(-4.22842e-12 -8.47491e-11 -0 2.22825e-12 -0 2.00018e-12)
(8.83824e-13 2.01095e-11 -0 -4.69494e-13 -0 -4.14329e-13)
(-3.84728e-13 -4.76587e-12 -0 2.00252e-13 -0 1.84477e-13)
(8.17943e-14 1.13124e-12 -0 -4.29407e-14 -0 -3.88536e-14)
(-2.81534e-14 -2.68452e-13 -0 1.46519e-14 -0 1.35015e-14)
(7.87916e-15 6.36525e-14 -0 -4.05966e-15 -0 -3.8195e-15)
(-2.16238e-15 -1.51556e-14 -0 1.1455e-15 -0 1.01689e-15)
(6.1389e-16 3.57168e-15 -0 -2.96626e-16 -0 -3.17264e-16)
(-2.12018e-16 -8.69484e-16 -0 1.25926e-16 -0 8.60917e-17)
(2.29737e-17 1.92422e-16 -0 1.88703e-18 -0 -2.48607e-17)
(-3.92008e-17 -5.50691e-17 -0 3.13657e-17 -0 7.83509e-18)
(-1.43842e-17 8.36469e-18 -0 1.64432e-17 -0 -2.05904e-18)
(-1.53357e-17 -3.99167e-18 -0 1.52741e-17 -0 6.16417e-20)
(-1.18128e-17 2.12789e-18 -0 1.20887e-17 -0 -2.75839e-19)
(-9.97245e-18 4.30678e-19 -0 9.95216e-18 -0 2.02928e-20)
(-7.66878e-18 3.55432e-20 -0 7.65796e-18 -0 1.08228e-20)
(-4.95465e-18 4.48397e-18 -0 5.30435e-18 -0 -3.49701e-19)
(-3.59049e-18 1.05387e-17 -0 3.34528e-18 -0 2.4521e-19)
(-7.57514e-20 1.52801e-18 -0 1.51503e-19 -0 -7.57514e-20)
(-3.53664e-12 -6.83016e-11 -0 2.12613e-12 -0 1.4105e-12)
(3.92249e-12 8.50808e-11 -0 -2.06995e-12 -0 -1.85255e-12)
(-8.18982e-13 -2.0207e-11 -0 4.35908e-13 -0 3.83074e-13)
(3.56476e-13 4.78869e-12 -0 -1.85617e-13 -0 -1.70859e-13)
(-7.61537e-14 -1.13763e-12 -0 4.01034e-14 -0 3.60503e-14)
(2.58967e-14 2.7006e-13 -0 -1.34189e-14 -0 -1.24778e-14)
(-7.42794e-15 -6.41334e-14 -0 3.88771e-15 -0 3.54024e-15)
(1.91313e-15 1.52131e-14 -0 -9.69595e-16 -0 -9.43537e-16)
(-6.42015e-16 -3.64917e-15 -0 3.493e-16 -0 2.92714e-16)
(1.37525e-16 8.40364e-16 -0 -5.69701e-17 -0 -8.05548e-17)
(-7.18606e-17 -2.20416e-16 -0 4.86972e-17 -0 2.31634e-17)
(-5.32781e-18 3.80504e-17 -0 1.21998e-17 -0 -6.872e-18)
(-1.96163e-17 -1.84218e-17 -0 1.76352e-17 -0 1.98113e-18)
(-9.6471e-18 9.47827e-20 -0 1.08146e-17 -0 -1.16745e-18)
(-1.04924e-17 -1.68873e-18 -0 1.02029e-17 -0 2.89518e-19)
(-7.38216e-18 -1.42292e-18 -0 7.83727e-18 -0 -4.55116e-19)
(-7.5079e-18 -3.22131e-19 -0 7.32629e-18 -0 1.81615e-19)
(-6.1574e-18 3.76232e-18 -0 6.16697e-18 -0 -9.56591e-21)
(-2.53674e-18 9.12863e-18 -0 2.76912e-18 -0 -2.32374e-19)
(7.42038e-19 1.11905e-19 -0 -7.16535e-19 -0 -2.55038e-20)
(3.14001e-12 6.87134e-11 -0 -1.89865e-12 -0 -1.24136e-12)
(-3.47203e-12 -8.5419e-11 -0 1.83458e-12 -0 1.63746e-12)
(7.2157e-13 2.03058e-11 -0 -3.84454e-13 -0 -3.37116e-13)
(-3.14894e-13 -4.81173e-12 -0 1.64157e-13 -0 1.50737e-13)
(6.67569e-14 1.14401e-12 -0 -3.50269e-14 -0 -3.17299e-14)
(-2.27905e-14 -2.71825e-13 -0 1.18911e-14 -0 1.08994e-14)
(6.3876e-15 6.44667e-14 -0 -3.28189e-15 -0 -3.1057e-15)
(-1.74697e-15 -1.54164e-14 -0 9.253e-16 -0 8.21668e-16)
(4.98355e-16 3.61498e-15 -0 -2.42662e-16 -0 -2.55693e-16)
(-1.65255e-16 -8.97184e-16 -0 9.583e-17 -0 6.94253e-17)
(2.43148e-17 1.89182e-16 -0 -3.75334e-18 -0 -2.05615e-17)
(-2.61582e-17 -6.2091e-17 -0 2.06121e-17 -0 5.54601e-18)
(-8.36274e-18 5.23734e-18 -0 1.05455e-17 -0 -2.18272e-18)
(-1.0634e-17 -6.0961e-18 -0 1.04595e-17 -0 1.74531e-19)
(-6.94119e-18 -1.63367e-18 -0 7.71206e-18 -0 -7.70871e-19)
(-6.42553e-18 -2.10441e-18 -0 6.68449e-18 -0 -2.58965e-19)
(-5.69121e-18 -2.55826e-18 -0 5.99176e-18 -0 -3.0055e-19)
(-6.60724e-18 2.03982e-18 -0 6.28793e-18 -0 3.19311e-19)
(-2.99711e-18 7.89935e-18 -0 2.91719e-18 -0 7.99213e-20)
(1.35187e-18 3.76421e-19 -0 -1.1664e-18 -0 -1.85469e-19)
(-2.64828e-12 -6.90764e-11 -0 1.60749e-12 -0 1.04079e-12)
(2.9252e-12 8.57501e-11 -0 -1.54613e-12 -0 -1.37908e-12)
(-6.0825e-13 -2.03972e-11 -0 3.25481e-13 -0 2.82769e-13)
(2.64613e-13 4.83313e-12 -0 -1.37786e-13 -0 -1.26826e-13)
(-5.68258e-14 -1.14982e-12 -0 3.00798e-14 -0 2.67461e-14)
(1.89198e-14 2.73055e-13 -0 -9.8338e-15 -0 -9.08603e-15)
(-5.49367e-15 -6.49713e-14 -0 2.8831e-15 -0 2.61057e-15)
(1.41564e-15 1.53873e-14 -0 -7.29042e-16 -0 -6.86594e-16)
(-4.56282e-16 -3.71962e-15 -0 2.44141e-16 -0 2.12141e-16)
(1.11928e-16 8.43877e-16 -0 -5.31624e-17 -0 -5.87661e-17)
(-4.31889e-17 -2.30286e-16 -0 2.66968e-17 -0 1.64921e-17)
(2.53841e-18 3.57552e-17 -0 2.66937e-18 -0 -5.20778e-18)
(-1.05569e-17 -2.04787e-17 -0 9.50615e-18 -0 1.05071e-18)
(-5.62598e-18 -1.63655e-18 -0 6.61174e-18 -0 -9.85762e-19)
(-6.34908e-18 -3.36065e-18 -0 6.51726e-18 -0 -1.6818e-19)
(-6.99195e-18 -9.74822e-19 -0 6.26254e-18 -0 7.2941e-19)
(-4.254e-18 -2.73478e-18 -0 4.65098e-18 -0 -3.96987e-19)
(-4.11184e-18 1.27552e-18 -0 4.36909e-18 -0 -2.57251e-19)
(-1.74244e-18 6.06319e-18 -0 1.94377e-18 -0 -2.01328e-19)
(1.4527e-18 -4.64206e-20 -0 -1.36548e-18 -0 -8.72199e-20)
(2.09029e-12 6.93964e-11 -0 -1.27864e-12 -0 -8.11649e-13)
(-2.30069e-12 -8.60558e-11 -0 1.21952e-12 -0 1.08116e-12)
(4.73538e-13 2.04821e-11 -0 -2.51452e-13 -0 -2.22087e-13)
(-2.06565e-13 -4.85492e-12 -0 1.06632e-13 -0 9.99334e-14)
(4.38128e-14 1.15487e-12 -0 -2.26289e-14 -0 -2.11839e-14)
(-1.4567e-14 -2.74974e-13 -0 7.39362e-15 -0 7.17339e-15)
(4.20408e-15 6.51811e-14 -0 -2.12237e-15 -0 -2.08171e-15)
(-1.08568e-15 -1.56511e-14 -0 5.34656e-16 -0 5.5102e-16)
(3.49141e-16 3.66395e-15 -0 -1.77146e-16 -0 -1.71995e-16)
(-8.9563e-17 -9.15623e-16 -0 4.15372e-17 -0 4.80258e-17)
(2.81667e-17 1.93345e-16 -0 -1.44e-17 -0 -1.37667e-17)
(-8.21318e-18 -6.27953e-17 -0 4.78555e-18 -0 3.42764e-18)
(-1.18772e-18 4.34715e-18 -0 2.37545e-18 -0 -1.18772e-18)
(-4.54576e-18 -6.99862e-18 -0 4.44278e-18 -0 1.02978e-19)
(-4.03379e-18 -1.89413e-18 -0 4.19733e-18 -0 -1.63549e-19)
(-4.09951e-18 -2.54084e-18 -0 4.33129e-18 -0 -2.31778e-19)
(-3.14229e-18 7.3825e-20 -0 3.96614e-18 -0 -8.23849e-19)
(-5.68993e-18 9.81156e-19 -0 5.20129e-18 -0 4.88635e-19)
(-1.07521e-18 4.584e-18 -0 1.37847e-18 -0 -3.0326e-19)
(1.62515e-18 -5.56365e-20 -0 -1.7076e-18 -0 8.2447e-20)
(-1.48371e-12 -6.96727e-11 -0 9.34526e-13 -0 5.49188e-13)
(1.64492e-12 8.62417e-11 -0 -9.11941e-13 -0 -7.32981e-13)
(-3.46918e-13 -2.05222e-11 -0 1.98081e-13 -0 1.48837e-13)
(1.47828e-13 4.85512e-12 -0 -8.21078e-14 -0 -6.57201e-14)
(-3.16808e-14 -1.15387e-12 -0 1.82797e-14 -0 1.3401e-14)
(1.0408e-14 2.73637e-13 -0 -5.98173e-15 -0 -4.42628e-15)
(-2.86606e-15 -6.49507e-14 -0 1.612e-15 -0 1.25406e-15)
(8.03459e-16 1.53512e-14 -0 -4.88569e-16 -0 -3.1489e-16)
(-1.9748e-16 -3.68763e-15 -0 1.02033e-16 -0 9.54469e-17)
(7.81499e-17 8.45594e-16 -0 -5.19666e-17 -0 -2.61833e-17)
(-6.90775e-18 -2.17448e-16 -0 1.37055e-18 -0 5.5372e-18)
(7.57717e-18 4.10934e-17 -0 -5.04893e-18 -0 -2.52825e-18)
(-1.63899e-18 -1.55608e-17 -0 1.72485e-18 -0 -8.58605e-20)
(-1.1434e-18 1.47677e-18 -0 2.2868e-18 -0 -1.1434e-18)
(-5.00544e-18 -1.70643e-18 -0 4.58359e-18 -0 4.21856e-19)
(-1.46655e-18 -3.72216e-19 -0 2.9331e-18 -0 -1.46655e-18)
(-3.67631e-18 -1.11755e-18 -0 4.25622e-18 -0 -5.79909e-19)
(-5.87687e-18 4.98786e-19 -0 5.56495e-18 -0 3.11921e-19)
(-1.20451e-18 2.82794e-18 -0 1.63579e-18 -0 -4.31279e-19)
(1.77186e-18 -3.77993e-19 -0 -1.99847e-18 -0 2.26609e-19)
(7.13581e-13 6.92003e-11 -0 -4.44142e-13 -0 -2.69439e-13)
(-8.45184e-13 -8.50417e-11 -0 4.79962e-13 -0 3.65222e-13)
(2.48037e-13 2.02747e-11 -0 -1.44309e-13 -0 -1.03728e-13)
(-1.10725e-13 -4.80547e-12 -0 6.24306e-14 -0 4.82946e-14)
(3.23581e-14 1.14443e-12 -0 -1.89485e-14 -0 -1.34096e-14)
(-1.05739e-14 -2.72167e-13 -0 6.00046e-15 -0 4.57347e-15)
(3.50278e-15 6.47551e-14 -0 -2.08045e-15 -0 -1.42233e-15)
(-9.22278e-16 -1.53892e-14 -0 5.1041e-16 -0 4.11868e-16)
(3.549e-16 3.68599e-15 -0 -2.21775e-16 -0 -1.33125e-16)
(-6.58816e-17 -8.70713e-16 -0 3.04456e-17 -0 3.5436e-17)
(3.99839e-17 2.0489e-16 -0 -2.73756e-17 -0 -1.26083e-17)
(-3.31114e-18 -5.61281e-17 -0 4.34959e-19 -0 2.87618e-18)
(5.33098e-18 4.59286e-18 -0 -2.92781e-18 -0 -2.40317e-18)
(-1.55787e-18 -1.08394e-17 -0 1.56891e-18 -0 -1.10396e-20)
(-2.20316e-18 -4.49966e-18 -0 2.08607e-18 -0 1.1709e-19)
(-2.34099e-18 -4.90717e-18 -0 2.36174e-18 -0 -2.07492e-20)
(-3.91765e-18 -4.52321e-18 -0 3.96823e-18 -0 -5.05794e-20)
(-5.58523e-18 -7.86305e-19 -0 5.75656e-18 -0 -1.71328e-19)
(-2.04697e-18 3.17335e-18 -0 2.54712e-18 -0 -5.00143e-19)
(3.05657e-18 1.18423e-18 -0 -3.01947e-18 -0 -3.7094e-20)
)
;

boundaryField
{
    movingWall
    {
        type            calculated;
        value           nonuniform List<symmTensor> 
20
(
(1.68809e-10 4.61445e-11 -0 -3.36928e-10 -0 1.6812e-10)
(-4.06815e-11 -5.89943e-11 -0 8.05146e-11 -0 -3.98331e-11)
(9.68882e-12 1.39467e-11 -0 -1.91311e-11 -0 9.44227e-12)
(-2.34258e-12 -3.29718e-12 -0 4.5737e-12 -0 -2.23112e-12)
(5.61829e-13 7.7913e-13 -0 -1.09158e-12 -0 5.2975e-13)
(-1.35637e-13 -1.83479e-13 -0 2.60656e-13 -0 -1.2502e-13)
(3.30369e-14 4.34393e-14 -0 -6.26217e-14 -0 2.95848e-14)
(-7.9318e-15 -1.01093e-14 -0 1.49285e-14 -0 -6.99667e-15)
(1.98757e-15 2.42738e-15 -0 -3.63307e-15 -0 1.6455e-15)
(-4.61118e-16 -5.47865e-16 -0 8.51221e-16 -0 -3.90103e-16)
(1.27726e-16 1.2883e-16 -0 -2.1859e-16 -0 9.08634e-17)
(-2.57509e-17 -3.59156e-17 -0 4.71649e-17 -0 -2.14141e-17)
(9.80592e-18 -1.67183e-18 -0 -1.41908e-17 -0 4.38491e-18)
(-1.98744e-18 -1.19465e-17 -0 2.89067e-18 -0 -9.03235e-19)
(-6.96274e-19 -6.73567e-18 -0 -2.33755e-19 -0 9.30029e-19)
(-1.36282e-18 -6.67522e-18 -0 1.09933e-18 -0 2.63485e-19)
(-2.64033e-18 -5.78897e-18 -0 2.57015e-18 -0 7.01769e-20)
(-4.03482e-18 -8.97213e-19 -0 4.27492e-18 -0 -2.40108e-19)
(-1.58022e-18 3.97763e-18 -0 2.07624e-18 -0 -4.96018e-19)
(2.25795e-18 1.79326e-18 -0 -2.3475e-18 -0 8.95487e-20)
)
;
    }
    fixedWalls
    {
        type            calculated;
        value           nonuniform List<symmTensor> 
60
(
(1.62328e-13 -2.47626e-10 -0 -9.82002e-14 -0 -6.41276e-14)
(8.88597e-13 2.47436e-10 -0 -3.65667e-13 -0 -5.2293e-13)
(-1.52428e-12 -2.47083e-10 -0 6.65352e-13 -0 8.5893e-13)
(3.20686e-12 2.46739e-10 -0 -1.54193e-12 -0 -1.66493e-12)
(-4.96673e-12 -2.46586e-10 -0 2.45732e-12 -0 2.50941e-12)
(6.90795e-12 2.46578e-10 -0 -3.47577e-12 -0 -3.43218e-12)
(-8.72656e-12 -2.46724e-10 -0 4.43338e-12 -0 4.29317e-12)
(1.03495e-11 2.46998e-10 -0 -5.29354e-12 -0 -5.056e-12)
(-1.17422e-11 -2.47394e-10 -0 6.03331e-12 -0 5.70887e-12)
(1.27391e-11 2.47889e-10 -0 -6.56995e-12 -0 -6.16916e-12)
(-1.34459e-11 -2.48469e-10 -0 6.95349e-12 -0 6.49238e-12)
(1.36508e-11 2.4911e-10 -0 -7.07734e-12 -0 -6.57343e-12)
(-1.35355e-11 -2.49784e-10 -0 7.03089e-12 -0 6.50461e-12)
(1.29006e-11 2.50471e-10 -0 -6.71391e-12 -0 -6.18672e-12)
(-1.19487e-11 -2.51131e-10 -0 6.22697e-12 -0 5.72173e-12)
(1.05586e-11 2.51755e-10 -0 -5.51099e-12 -0 -5.04761e-12)
(-8.87904e-12 -2.52288e-10 -0 4.63894e-12 -0 4.2401e-12)
(6.96529e-12 2.52721e-10 -0 -3.64668e-12 -0 -3.31861e-12)
(-4.89928e-12 -2.53079e-10 -0 2.58477e-12 -0 2.31451e-12)
(2.63143e-12 2.5294e-10 -0 -1.37694e-12 -0 -1.25449e-12)
(-1.26423e-18 -2.48248e-19 -0 7.52096e-19 -0 5.1213e-19)
(-1.28072e-20 -2.31684e-19 -0 2.56143e-20 -0 -1.28072e-20)
(-2.31206e-20 -5.96141e-19 -0 4.62411e-20 -0 -2.31206e-20)
(1.22275e-18 -6.41458e-19 -0 -6.69145e-19 -0 -5.53606e-19)
(1.12111e-18 4.48088e-19 -0 -4.65872e-19 -0 -6.55242e-19)
(-1.45376e-18 -2.07047e-19 -0 1.13116e-18 -0 3.226e-19)
(-2.55661e-19 -2.25323e-18 -0 5.11323e-19 -0 -2.55661e-19)
(-2.88096e-19 -2.28312e-18 -0 5.76192e-19 -0 -2.88096e-19)
(-1.56555e-18 -3.4397e-18 -0 1.35474e-18 -0 2.10807e-19)
(3.20141e-19 -4.57099e-18 -0 2.47896e-19 -0 -5.68037e-19)
(-1.37262e-18 -4.52947e-18 -0 9.68889e-19 -0 4.03734e-19)
(-1.42906e-18 -5.7013e-18 -0 1.08177e-18 -0 3.47293e-19)
(-2.35949e-19 -7.08263e-18 -0 4.71898e-19 -0 -2.35949e-19)
(-5.35702e-20 -7.11699e-18 -0 1.0714e-19 -0 -5.35702e-20)
(7.54806e-19 -7.40405e-18 -0 -6.21434e-19 -0 -1.33372e-19)
(1.41484e-18 -6.14086e-18 -0 -1.05332e-18 -0 -3.61519e-19)
(1.48423e-18 -5.47835e-18 -0 -1.1921e-18 -0 -2.92127e-19)
(1.01146e-18 -4.34091e-18 -0 -1.13475e-18 -0 1.23284e-19)
(2.29675e-18 -3.23333e-18 -0 -1.92897e-18 -0 -3.67781e-19)
(3.06528e-18 -4.05374e-19 -0 -2.57784e-18 -0 -4.87436e-19)
(1.65196e-10 -4.71487e-11 -0 -3.30428e-10 -0 1.65233e-10)
(-3.92004e-11 5.82817e-11 -0 7.83828e-11 -0 -3.91824e-11)
(9.35445e-12 -1.3791e-11 -0 -1.86358e-11 -0 9.2813e-12)
(-2.22923e-12 3.25291e-12 -0 4.42423e-12 -0 -2.195e-12)
(5.35977e-13 -7.72037e-13 -0 -1.05488e-12 -0 5.18899e-13)
(-1.26967e-13 1.79736e-13 -0 2.49561e-13 -0 -1.22594e-13)
(3.12654e-14 -4.383e-14 -0 -6.01856e-14 -0 2.89202e-14)
(-7.06938e-15 9.33298e-15 -0 1.38905e-14 -0 -6.8211e-15)
(1.98466e-15 -2.85285e-15 -0 -3.58769e-15 -0 1.60302e-15)
(-2.99742e-16 2.08978e-16 -0 6.77005e-16 -0 -3.77263e-16)
(1.94564e-16 -3.71588e-16 -0 -2.82876e-16 -0 8.83121e-17)
(3.78382e-17 -1.42524e-16 -0 -1.71295e-17 -0 -2.07087e-17)
(5.24265e-17 -1.27714e-16 -0 -5.71482e-17 -0 4.72164e-18)
(3.18425e-17 -8.17308e-17 -0 -3.1159e-17 -0 -6.83519e-19)
(2.5093e-17 -5.67185e-17 -0 -2.57915e-17 -0 6.98477e-19)
(1.89216e-17 -3.48698e-17 -0 -1.88696e-17 -0 -5.19686e-20)
(1.37436e-17 -2.02442e-17 -0 -1.39346e-17 -0 1.9103e-19)
(1.10031e-17 -7.84981e-18 -0 -1.06221e-17 -0 -3.81029e-19)
(5.20921e-18 2.23037e-18 -0 -5.53951e-18 -0 3.30301e-19)
(-8.883e-19 1.55984e-18 -0 6.92397e-19 -0 1.95902e-19)
)
;
    }
    frontAndBack
    {
        type            empty;
    }
}


// ************************************************************************* //
