/*--------------------------------*- C++ -*----------------------------------*\
| =========                 |                                                 |
| \\      /  F ield         | OpenFOAM: The Open Source CFD Toolbox           |
|  \\    /   O peration     | Version:  2506                                  |
|   \\  /    A nd           | Website:  www.openfoam.com                      |
|    \\/     M anipulation  |                                                 |
\*---------------------------------------------------------------------------*/
FoamFile
{
    version     2.0;
    format      ascii;
    arch        "LSB;label=32;scalar=64";
    class       volScalarField;
    location    "4";
    object      turbulenceProperties:k;
}
// * * * * * * * * * * * * * * * * * * * * * * * * * * * * * * * * * * * * * //

dimensions      [0 2 -2 0 0 0 0];

internalField   nonuniform List<scalar> 
400
(
2.72865e-05
2.72863e-05
2.72862e-05
2.72859e-05
2.72859e-05
2.72857e-05
2.72856e-05
2.72855e-05
2.72854e-05
2.72853e-05
2.72853e-05
2.72852e-05
2.72852e-05
2.72851e-05
2.72851e-05
2.72851e-05
2.72851e-05
2.7285e-05
2.7285e-05
2.7285e-05
3.29592e-05
3.29591e-05
3.29506e-05
3.29474e-05
3.29418e-05
3.29387e-05
3.29341e-05
3.29311e-05
3.29277e-05
3.29246e-05
3.29223e-05
3.29194e-05
3.2918e-05
3.29158e-05
3.29146e-05
3.29132e-05
3.29124e-05
3.29118e-05
3.29114e-05
3.29113e-05
4.00868e-05
4.00865e-05
4.00738e-05
4.00692e-05
4.00606e-05
4.00562e-05
4.00492e-05
4.00448e-05
4.00397e-05
4.00353e-05
4.00317e-05
4.00276e-05
4.00252e-05
4.00223e-05
4.00203e-05
4.00185e-05
4.00172e-05
4.00163e-05
4.00158e-05
4.00156e-05
4.56723e-05
4.56716e-05
4.56555e-05
4.5649e-05
4.5638e-05
4.56321e-05
4.56231e-05
4.56172e-05
4.56104e-05
4.56046e-05
4.55999e-05
4.55949e-05
4.55914e-05
4.55877e-05
4.55851e-05
4.55826e-05
4.5581e-05
4.55798e-05
4.55792e-05
4.55789e-05
4.92268e-05
4.92263e-05
4.92068e-05
4.91999e-05
4.91864e-05
4.918e-05
4.91686e-05
4.9163e-05
4.91535e-05
4.91486e-05
4.91412e-05
4.91369e-05
4.91314e-05
4.9128e-05
4.91241e-05
4.9122e-05
4.91196e-05
4.91186e-05
4.91177e-05
4.91174e-05
5.12801e-05
5.12798e-05
5.12581e-05
5.1251e-05
5.12359e-05
5.12294e-05
5.12164e-05
5.12108e-05
5.11998e-05
5.11952e-05
5.11863e-05
5.11825e-05
5.11757e-05
5.11727e-05
5.11681e-05
5.11659e-05
5.11633e-05
5.1162e-05
5.11611e-05
5.11608e-05
5.2444e-05
5.24438e-05
5.24205e-05
5.24135e-05
5.23975e-05
5.23906e-05
5.23772e-05
5.23711e-05
5.23599e-05
5.23547e-05
5.23458e-05
5.23415e-05
5.23345e-05
5.23312e-05
5.23264e-05
5.23241e-05
5.23213e-05
5.23201e-05
5.23191e-05
5.23187e-05
5.31416e-05
5.31411e-05
5.3118e-05
5.31101e-05
5.3094e-05
5.3087e-05
5.30729e-05
5.30671e-05
5.3055e-05
5.30502e-05
5.30404e-05
5.30365e-05
5.30289e-05
5.3026e-05
5.30207e-05
5.30186e-05
5.30156e-05
5.30144e-05
5.30134e-05
5.3013e-05
5.36164e-05
5.36157e-05
5.35925e-05
5.3584e-05
5.35681e-05
5.35603e-05
5.35468e-05
5.35398e-05
5.35288e-05
5.35224e-05
5.35142e-05
5.35081e-05
5.35027e-05
5.34972e-05
5.34941e-05
5.34901e-05
5.34883e-05
5.34864e-05
5.34857e-05
5.34852e-05
5.39958e-05
5.39952e-05
5.39712e-05
5.39628e-05
5.39467e-05
5.39386e-05
5.39252e-05
5.39175e-05
5.39071e-05
5.38997e-05
5.38924e-05
5.38852e-05
5.38807e-05
5.38743e-05
5.38719e-05
5.38673e-05
5.38658e-05
5.38637e-05
5.3863e-05
5.38626e-05
5.43456e-05
5.43449e-05
5.4321e-05
5.43123e-05
5.42958e-05
5.42878e-05
5.42738e-05
5.42668e-05
5.42553e-05
5.42488e-05
5.42403e-05
5.42342e-05
5.42285e-05
5.42231e-05
5.42196e-05
5.42157e-05
5.42137e-05
5.42119e-05
5.42111e-05
5.42106e-05
5.4702e-05
5.47013e-05
5.4677e-05
5.46681e-05
5.46518e-05
5.46431e-05
5.46296e-05
5.46216e-05
5.4611e-05
5.46033e-05
5.45959e-05
5.45884e-05
5.45837e-05
5.45776e-05
5.45743e-05
5.45705e-05
5.45682e-05
5.45666e-05
5.45656e-05
5.45652e-05
5.50869e-05
5.50863e-05
5.50616e-05
5.50529e-05
5.50356e-05
5.50278e-05
5.5013e-05
5.50061e-05
5.49937e-05
5.4988e-05
5.49779e-05
5.49732e-05
5.49655e-05
5.49619e-05
5.49566e-05
5.49542e-05
5.4951e-05
5.49497e-05
5.49486e-05
5.49482e-05
5.5517e-05
5.55167e-05
5.54906e-05
5.54826e-05
5.54649e-05
5.54569e-05
5.54418e-05
5.5435e-05
5.54222e-05
5.54167e-05
5.54061e-05
5.54018e-05
5.53937e-05
5.53902e-05
5.53847e-05
5.53822e-05
5.5379e-05
5.53776e-05
5.53765e-05
5.53761e-05
5.60079e-05
5.60073e-05
5.59818e-05
5.59726e-05
5.59553e-05
5.59467e-05
5.59319e-05
5.59242e-05
5.59121e-05
5.59054e-05
5.58958e-05
5.58903e-05
5.5883e-05
5.58789e-05
5.58735e-05
5.58708e-05
5.58676e-05
5.58662e-05
5.58651e-05
5.58646e-05
5.65763e-05
5.65755e-05
5.65499e-05
5.65402e-05
5.65224e-05
5.6514e-05
5.64984e-05
5.64912e-05
5.64782e-05
5.64721e-05
5.64614e-05
5.64564e-05
5.64485e-05
5.64444e-05
5.64388e-05
5.64362e-05
5.6433e-05
5.64316e-05
5.64304e-05
5.643e-05
5.72305e-05
5.723e-05
5.72027e-05
5.71939e-05
5.7175e-05
5.71668e-05
5.71507e-05
5.71436e-05
5.71297e-05
5.7124e-05
5.71127e-05
5.71081e-05
5.70996e-05
5.70958e-05
5.709e-05
5.70872e-05
5.7084e-05
5.70824e-05
5.70813e-05
5.70808e-05
5.79413e-05
5.79405e-05
5.7913e-05
5.79033e-05
5.78847e-05
5.78754e-05
5.786e-05
5.78512e-05
5.78391e-05
5.78307e-05
5.78221e-05
5.78141e-05
5.78086e-05
5.78015e-05
5.77985e-05
5.77934e-05
5.77915e-05
5.77893e-05
5.77883e-05
5.77878e-05
5.85905e-05
5.8591e-05
5.85629e-05
5.85544e-05
5.85354e-05
5.85269e-05
5.85108e-05
5.85034e-05
5.84897e-05
5.84834e-05
5.84725e-05
5.84671e-05
5.84589e-05
5.84547e-05
5.84489e-05
5.8446e-05
5.84425e-05
5.8441e-05
5.84397e-05
5.84393e-05
5.8848e-05
5.88474e-05
5.88472e-05
5.88467e-05
5.88466e-05
5.88461e-05
5.88462e-05
5.88457e-05
5.88458e-05
5.88454e-05
5.88455e-05
5.88452e-05
5.88453e-05
5.88452e-05
5.88451e-05
5.88451e-05
5.88451e-05
5.88451e-05
5.88451e-05
5.88451e-05
)
;

boundaryField
{
    movingWall
    {
        type            kqRWallFunction;
        value           nonuniform List<scalar> 
20
(
5.8848e-05
5.88474e-05
5.88472e-05
5.88467e-05
5.88466e-05
5.88461e-05
5.88462e-05
5.88457e-05
5.88458e-05
5.88454e-05
5.88455e-05
5.88452e-05
5.88453e-05
5.88452e-05
5.88451e-05
5.88451e-05
5.88451e-05
5.88451e-05
5.88451e-05
5.88451e-05
)
;
    }
    fixedWalls
    {
        type            kqRWallFunction;
        value           nonuniform List<scalar> 
60
(
2.72865e-05
3.29592e-05
4.00868e-05
4.56723e-05
4.92268e-05
5.12801e-05
5.2444e-05
5.31416e-05
5.36164e-05
5.39958e-05
5.43456e-05
5.4702e-05
5.50869e-05
5.5517e-05
5.60079e-05
5.65763e-05
5.72305e-05
5.79413e-05
5.85905e-05
5.8848e-05
2.7285e-05
3.29113e-05
4.00156e-05
4.55789e-05
4.91174e-05
5.11608e-05
5.23187e-05
5.3013e-05
5.34852e-05
5.38626e-05
5.42106e-05
5.45652e-05
5.49482e-05
5.53761e-05
5.58646e-05
5.643e-05
5.70808e-05
5.77878e-05
5.84393e-05
5.88451e-05
2.72865e-05
2.72863e-05
2.72862e-05
2.72859e-05
2.72859e-05
2.72857e-05
2.72856e-05
2.72855e-05
2.72854e-05
2.72853e-05
2.72853e-05
2.72852e-05
2.72852e-05
2.72851e-05
2.72851e-05
2.72851e-05
2.72851e-05
2.7285e-05
2.7285e-05
2.7285e-05
)
;
    }
    frontAndBack
    {
        type            empty;
    }
}


// ************************************************************************* //
