/*--------------------------------*- C++ -*----------------------------------*\
| =========                 |                                                 |
| \\      /  F ield         | OpenFOAM: The Open Source CFD Toolbox           |
|  \\    /   O peration     | Version:  2506                                  |
|   \\  /    A nd           | Website:  www.openfoam.com                      |
|    \\/     M anipulation  |                                                 |
\*---------------------------------------------------------------------------*/
FoamFile
{
    version     2.0;
    format      ascii;
    arch        "LSB;label=32;scalar=64";
    class       volTensorField;
    location    "4";
    object      U2;
}
// * * * * * * * * * * * * * * * * * * * * * * * * * * * * * * * * * * * * * //

dimensions      [0 2 -2 0 0 0 0];

internalField   nonuniform List<tensor> 
400
(
(1 -6.2918e-08 -0 -6.19576e-08 3.89825e-15 0 -0 0 0)
(1 1.49226e-08 -0 1.46957e-08 2.19298e-16 -0 -0 -0 0)
(1 -3.54345e-09 -0 -3.48963e-09 1.23653e-17 0 -0 0 0)
(1 8.40137e-10 -0 8.27404e-10 6.95132e-19 -0 -0 -0 0)
(1 -1.99732e-10 -0 -1.96722e-10 3.92917e-20 0 -0 0 0)
(1 4.72323e-11 -0 4.65194e-11 2.19722e-21 -0 -0 -0 0)
(1 -1.13063e-11 -0 -1.11382e-11 1.25932e-22 0 -0 0 0)
(1 2.62898e-12 -0 2.58895e-12 6.80629e-24 -0 -0 -0 0)
(1 -6.57955e-13 -0 -6.48839e-13 4.26907e-25 0 -0 0 0)
(1 1.34153e-13 -0 1.31783e-13 1.76792e-26 -0 -0 -0 0)
(1 -4.68178e-14 -0 -4.63985e-14 2.17228e-27 0 -0 0 0)
(1 7.00245e-16 -0 4.47408e-16 3.13295e-31 -0 -0 -0 0)
(1 -7.65086e-15 -0 -7.73373e-15 5.91697e-29 0 -0 0 0)
(1 -3.74202e-15 -0 -3.80944e-15 1.4255e-29 0 -0 0 0)
(1 -3.26895e-15 -0 -3.31125e-15 1.08243e-29 0 -0 0 0)
(1 -2.29704e-15 -0 -2.3522e-15 5.40311e-30 0 -0 0 0)
(1 -1.70761e-15 -0 -1.7657e-15 3.01513e-30 0 -0 0 0)
(1 -1.25232e-15 -0 -1.28013e-15 1.60313e-30 0 -0 0 0)
(1 -8.73777e-16 -0 -7.33726e-16 6.41113e-31 0 -0 0 0)
(1 5.56504e-16 -0 6.20619e-17 3.45377e-32 -0 -0 -0 0)
(1 6.29011e-08 -0 6.19406e-08 3.89613e-15 -0 -0 -0 0)
(1 -1.49157e-08 -0 -1.4689e-08 2.19098e-16 0 -0 0 0)
(1 3.5329e-09 -0 3.47924e-09 1.22918e-17 -0 -0 -0 0)
(1 -8.38754e-10 -0 -8.26084e-10 6.92881e-19 0 -0 0 0)
(1 1.97776e-10 -0 1.9479e-10 3.85247e-20 -0 -0 -0 0)
(1 -4.72532e-11 -0 -4.65492e-11 2.1996e-21 0 -0 0 0)
(1 1.09339e-11 -0 1.07671e-11 1.17726e-22 -0 -0 -0 0)
(1 -2.72905e-12 -0 -2.69118e-12 7.34436e-24 0 -0 0 0)
(1 5.51951e-13 -0 5.41995e-13 2.99155e-25 -0 -0 -0 0)
(1 -1.91706e-13 -0 -1.90066e-13 3.64367e-26 0 -0 0 0)
(1 2.71894e-15 -0 1.89639e-15 5.15616e-30 -0 -0 -0 0)
(1 -3.05666e-14 -0 -3.07673e-14 9.40452e-28 0 -0 0 0)
(1 -1.44933e-14 -0 -1.47852e-14 2.14286e-28 0 -0 0 0)
(1 -1.26132e-14 -0 -1.27214e-14 1.60458e-28 0 -0 0 0)
(1 -8.95803e-15 -0 -9.02503e-15 8.08465e-29 0 -0 0 0)
(1 -6.66727e-15 -0 -6.74302e-15 4.49575e-29 0 -0 0 0)
(1 -4.88753e-15 -0 -5.12963e-15 2.50712e-29 0 -0 0 0)
(1 -3.81095e-15 -0 -3.96406e-15 1.51068e-29 0 -0 0 0)
(1 -2.46642e-15 -0 -2.08254e-15 5.13641e-30 0 -0 0 0)
(1 1.61829e-15 -0 5.7921e-17 9.37329e-32 -0 -0 -0 0)
(1 -6.28399e-08 -0 -6.1879e-08 3.88847e-15 0 -0 0 0)
(1 1.48826e-08 -0 1.46561e-08 2.18122e-16 -0 -0 -0 0)
(1 -3.53043e-09 -0 -3.47677e-09 1.22745e-17 0 -0 0 0)
(1 8.35232e-10 -0 8.22582e-10 6.87047e-19 -0 -0 -0 0)
(1 -1.98577e-10 -0 -1.95594e-10 3.88405e-20 0 -0 0 0)
(1 4.65946e-11 -0 4.58875e-11 2.13811e-21 -0 -0 -0 0)
(1 -1.13248e-11 -0 -1.11611e-11 1.26397e-22 0 -0 0 0)
(1 2.49045e-12 -0 2.44956e-12 6.1005e-24 -0 -0 -0 0)
(1 -7.17942e-13 -0 -7.10125e-13 5.09828e-25 0 -0 0 0)
(1 8.11994e-14 -0 7.81202e-14 6.34332e-27 -0 -0 -0 0)
(1 -8.19742e-14 -0 -8.21716e-14 6.73595e-27 0 -0 0 0)
(1 -2.60228e-14 -0 -2.67672e-14 6.96557e-28 0 -0 0 0)
(1 -2.741e-14 -0 -2.77727e-14 7.61249e-28 0 -0 0 0)
(1 -1.86048e-14 -0 -1.86636e-14 3.47233e-28 0 -0 0 0)
(1 -1.43317e-14 -0 -1.4334e-14 2.05431e-28 0 -0 0 0)
(1 -1.04887e-14 -0 -1.0597e-14 1.11149e-28 0 -0 0 0)
(1 -7.8307e-15 -0 -8.15921e-15 6.38923e-29 0 -0 0 0)
(1 -6.04388e-15 -0 -6.20829e-15 3.75222e-29 0 -0 0 0)
(1 -3.9205e-15 -0 -3.2947e-15 1.29169e-29 0 -0 0 0)
(1 2.66148e-15 -0 8.12726e-17 2.16306e-31 -0 -0 -0 0)
(1 6.28054e-08 -0 6.18438e-08 3.88412e-15 -0 -0 -0 0)
(1 -1.48616e-08 -0 -1.46352e-08 2.17503e-16 0 -0 0 0)
(1 3.52293e-09 -0 3.46928e-09 1.2222e-17 -0 -0 -0 0)
(1 -8.34239e-10 -0 -8.21629e-10 6.85435e-19 0 -0 0 0)
(1 1.97005e-10 -0 1.9402e-10 3.82229e-20 -0 -0 -0 0)
(1 -4.70155e-11 -0 -4.63178e-11 2.17766e-21 0 -0 0 0)
(1 1.08452e-11 -0 1.06768e-11 1.15792e-22 -0 -0 -0 0)
(1 -2.75943e-12 -0 -2.72313e-12 7.5143e-24 0 -0 0 0)
(1 5.12839e-13 -0 5.01859e-13 2.57373e-25 -0 -0 -0 0)
(1 -2.21982e-13 -0 -2.21227e-13 4.91084e-26 0 -0 0 0)
(1 -2.1632e-14 -0 -2.30872e-14 4.99424e-28 0 -0 0 0)
(1 -4.99244e-14 -0 -5.06204e-14 2.52719e-27 0 -0 0 0)
(1 -2.98127e-14 -0 -3.04014e-14 9.06348e-28 0 -0 0 0)
(1 -2.46095e-14 -0 -2.46748e-14 6.07236e-28 0 -0 0 0)
(1 -1.8078e-14 -0 -1.8033e-14 3.26e-28 0 -0 0 0)
(1 -1.35755e-14 -0 -1.37194e-14 1.86247e-28 0 -0 0 0)
(1 -1.0151e-14 -0 -1.06126e-14 1.07728e-28 0 -0 0 0)
(1 -8.06657e-15 -0 -8.2821e-15 6.68082e-29 0 -0 0 0)
(1 -5.22909e-15 -0 -4.30858e-15 2.25299e-29 0 -0 0 0)
(1 3.6332e-15 -0 9.26018e-17 3.36441e-31 -0 -0 -0 0)
(1 -6.27809e-08 -0 -6.18175e-08 3.88096e-15 0 -0 0 0)
(1 1.48497e-08 -0 1.46229e-08 2.17146e-16 -0 -0 -0 0)
(1 -3.52082e-09 -0 -3.46711e-09 1.22071e-17 0 -0 0 0)
(1 8.32557e-10 -0 8.19904e-10 6.82617e-19 -0 -0 -0 0)
(1 -1.97381e-10 -0 -1.94407e-10 3.83722e-20 0 -0 0 0)
(1 4.64578e-11 -0 4.5748e-11 2.12535e-21 -0 -0 -0 0)
(1 -1.12024e-11 -0 -1.10417e-11 1.23694e-22 0 -0 0 0)
(1 2.47774e-12 -0 2.43571e-12 6.03505e-24 -0 -0 -0 0)
(1 -7.17861e-13 -0 -7.11021e-13 5.10415e-25 0 -0 0 0)
(1 6.85453e-14 -0 6.47164e-14 4.436e-27 -0 -0 -0 0)
(1 -9.3327e-14 -0 -9.40161e-14 8.77424e-27 0 -0 0 0)
(1 -3.71204e-14 -0 -3.81077e-14 1.41457e-27 0 -0 0 0)
(1 -3.68285e-14 -0 -3.74586e-14 1.37954e-27 0 -0 0 0)
(1 -2.65871e-14 -0 -2.67972e-14 7.12462e-28 0 -0 0 0)
(1 -2.08875e-14 -0 -2.0851e-14 4.35525e-28 0 -0 0 0)
(1 -1.57136e-14 -0 -1.57305e-14 2.47183e-28 0 -0 0 0)
(1 -1.179e-14 -0 -1.2296e-14 1.4497e-28 0 -0 0 0)
(1 -9.43682e-15 -0 -9.7123e-15 9.16531e-29 0 -0 0 0)
(1 -6.29346e-15 -0 -5.2364e-15 3.29551e-29 0 -0 0 0)
(1 4.47242e-15 -0 2.35033e-17 1.05117e-31 -0 -0 -0 0)
(1 6.27837e-08 -0 6.18178e-08 3.88115e-15 -0 -0 -0 0)
(1 -1.48487e-08 -0 -1.46213e-08 2.17107e-16 0 -0 0 0)
(1 3.52009e-09 -0 3.46619e-09 1.22013e-17 -0 -0 -0 0)
(1 -8.32748e-10 -0 -8.20087e-10 6.82926e-19 0 -0 0 0)
(1 1.96902e-10 -0 1.939e-10 3.81794e-20 -0 -0 -0 0)
(1 -4.68049e-11 -0 -4.61061e-11 2.15799e-21 0 -0 0 0)
(1 1.08922e-11 -0 1.07212e-11 1.16777e-22 -0 -0 -0 0)
(1 -2.7195e-12 -0 -2.68415e-12 7.29954e-24 0 -0 0 0)
(1 5.25882e-13 -0 5.14167e-13 2.70391e-25 -0 -0 -0 0)
(1 -2.17759e-13 -0 -2.17277e-13 4.73141e-26 0 -0 0 0)
(1 -2.2836e-14 -0 -2.46455e-14 5.62805e-28 0 -0 0 0)
(1 -5.32449e-14 -0 -5.41442e-14 2.8829e-27 0 -0 0 0)
(1 -3.38045e-14 -0 -3.45412e-14 1.16765e-27 0 -0 0 0)
(1 -2.86455e-14 -0 -2.88849e-14 8.27423e-28 0 -0 0 0)
(1 -2.20297e-14 -0 -2.1895e-14 4.8234e-28 0 -0 0 0)
(1 -1.69614e-14 -0 -1.69076e-14 2.86776e-28 0 -0 0 0)
(1 -1.27322e-14 -0 -1.32245e-14 1.68378e-28 0 -0 0 0)
(1 -1.03365e-14 -0 -1.05927e-14 1.09492e-28 0 -0 0 0)
(1 -6.98435e-15 -0 -5.7723e-15 4.03158e-29 0 -0 0 0)
(1 5.36955e-15 -0 1.87287e-16 1.00565e-30 -0 -0 -0 0)
(1 -6.28094e-08 -0 -6.18393e-08 3.88409e-15 0 -0 0 0)
(1 1.48574e-08 -0 1.46288e-08 2.17347e-16 -0 -0 -0 0)
(1 -3.52239e-09 -0 -3.46825e-09 1.22166e-17 0 -0 0 0)
(1 8.33154e-10 -0 8.20387e-10 6.83509e-19 -0 -0 -0 0)
(1 -1.97359e-10 -0 -1.94357e-10 3.8358e-20 0 -0 0 0)
(1 4.65935e-11 -0 4.58757e-11 2.13751e-21 -0 -0 -0 0)
(1 -1.11429e-11 -0 -1.09807e-11 1.22356e-22 0 -0 0 0)
(1 2.52277e-12 -0 2.47957e-12 6.25538e-24 -0 -0 -0 0)
(1 -6.94294e-13 -0 -6.87595e-13 4.77393e-25 0 -0 0 0)
(1 8.18435e-14 -0 7.80032e-14 6.38406e-27 -0 -0 -0 0)
(1 -8.70036e-14 -0 -8.76778e-14 7.62828e-27 0 -0 0 0)
(1 -3.44693e-14 -0 -3.54788e-14 1.22293e-27 0 -0 0 0)
(1 -3.6441e-14 -0 -3.7047e-14 1.35003e-27 0 -0 0 0)
(1 -2.73612e-14 -0 -2.75202e-14 7.52987e-28 0 -0 0 0)
(1 -2.22397e-14 -0 -2.19868e-14 4.88981e-28 0 -0 0 0)
(1 -1.7008e-14 -0 -1.69908e-14 2.88979e-28 0 -0 0 0)
(1 -1.31392e-14 -0 -1.36969e-14 1.79967e-28 0 -0 0 0)
(1 -1.09296e-14 -0 -1.11337e-14 1.21686e-28 0 -0 0 0)
(1 -7.3279e-15 -0 -5.97735e-15 4.38014e-29 0 -0 0 0)
(1 6.30338e-15 -0 4.27782e-16 2.69647e-30 -0 -0 -0 0)
(1 6.2863e-08 -0 6.18879e-08 3.89046e-15 -0 -0 -0 0)
(1 -1.48742e-08 -0 -1.46443e-08 2.17823e-16 0 -0 0 0)
(1 3.52644e-09 -0 3.47194e-09 1.22436e-17 -0 -0 -0 0)
(1 -8.34457e-10 -0 -8.21626e-10 6.85611e-19 0 -0 0 0)
(1 1.97514e-10 -0 1.9447e-10 3.84106e-20 -0 -0 -0 0)
(1 -4.68611e-11 -0 -4.61503e-11 2.16265e-21 0 -0 0 0)
(1 1.09905e-11 -0 1.0817e-11 1.18884e-22 -0 -0 -0 0)
(1 -2.6894e-12 -0 -2.65261e-12 7.13392e-24 0 -0 0 0)
(1 5.56659e-13 -0 5.44937e-13 3.03344e-25 -0 -0 -0 0)
(1 -2.00794e-13 -0 -2.00224e-13 4.02039e-26 0 -0 0 0)
(1 -1.16566e-14 -0 -1.32303e-14 1.5422e-28 0 -0 0 0)
(1 -4.68178e-14 -0 -4.73652e-14 2.21754e-27 0 -0 0 0)
(1 -3.00012e-14 -0 -3.04331e-14 9.1303e-28 0 -0 0 0)
(1 -2.66299e-14 -0 -2.65731e-14 7.07638e-28 0 -0 0 0)
(1 -2.10468e-14 -0 -2.07253e-14 4.362e-28 0 -0 0 0)
(1 -1.65327e-14 -0 -1.6498e-14 2.72757e-28 0 -0 0 0)
(1 -1.29294e-14 -0 -1.35163e-14 1.74757e-28 0 -0 0 0)
(1 -1.10683e-14 -0 -1.11998e-14 1.23963e-28 0 -0 0 0)
(1 -7.47653e-15 -0 -5.96978e-15 4.46332e-29 0 -0 0 0)
(1 7.03457e-15 -0 5.70779e-16 4.01519e-30 -0 -0 -0 0)
(1 -6.29397e-08 -0 -6.19581e-08 3.89962e-15 0 -0 0 0)
(1 1.48991e-08 -0 1.46673e-08 2.18529e-16 -0 -0 -0 0)
(1 -3.53248e-09 -0 -3.47757e-09 1.22844e-17 0 -0 0 0)
(1 8.36197e-10 -0 8.23222e-10 6.88376e-19 -0 -0 -0 0)
(1 -1.98108e-10 -0 -1.95048e-10 3.86404e-20 0 -0 0 0)
(1 4.68672e-11 -0 4.61372e-11 2.16232e-21 -0 -0 -0 0)
(1 -1.1158e-11 -0 -1.09903e-11 1.2263e-22 0 -0 0 0)
(1 2.57538e-12 -0 2.53255e-12 6.52228e-24 -0 -0 -0 0)
(1 -6.7221e-13 -0 -6.64389e-13 4.46609e-25 0 -0 0 0)
(1 1.02248e-13 -0 9.8786e-14 1.01006e-26 -0 -0 -0 0)
(1 -7.41569e-14 -0 -7.43452e-14 5.51321e-27 0 -0 0 0)
(1 -2.5538e-14 -0 -2.61246e-14 6.67171e-28 0 -0 0 0)
(1 -3.05503e-14 -0 -3.07171e-14 9.38414e-28 0 -0 0 0)
(1 -2.3475e-14 -0 -2.31528e-14 5.43512e-28 0 -0 0 0)
(1 -1.9698e-14 -0 -1.91107e-14 3.76443e-28 0 -0 0 0)
(1 -1.53095e-14 -0 -1.51513e-14 2.31959e-28 0 -0 0 0)
(1 -1.21033e-14 -0 -1.27635e-14 1.54481e-28 0 -0 0 0)
(1 -1.07157e-14 -0 -1.08553e-14 1.16322e-28 0 -0 0 0)
(1 -7.4272e-15 -0 -5.72603e-15 4.25284e-29 0 -0 0 0)
(1 7.57767e-15 -0 8.59926e-16 6.51623e-30 -0 -0 -0 0)
(1 6.3039e-08 -0 6.20501e-08 3.91157e-15 -0 -0 -0 0)
(1 -1.49299e-08 -0 -1.46961e-08 2.19411e-16 0 -0 0 0)
(1 3.53998e-09 -0 3.48456e-09 1.23353e-17 -0 -0 -0 0)
(1 -8.3841e-10 -0 -8.25313e-10 6.91951e-19 0 -0 0 0)
(1 1.98629e-10 -0 1.95523e-10 3.88365e-20 -0 -0 -0 0)
(1 -4.71072e-11 -0 -4.63757e-11 2.18463e-21 0 -0 0 0)
(1 1.11074e-11 -0 1.09318e-11 1.21424e-22 -0 -0 -0 0)
(1 -2.68123e-12 -0 -2.64148e-12 7.08241e-24 0 -0 0 0)
(1 5.86443e-13 -0 5.75801e-13 3.37675e-25 -0 -0 -0 0)
(1 -1.84216e-13 -0 -1.82486e-13 3.36169e-26 0 -0 0 0)
(1 2.55064e-15 -0 1.76636e-15 4.50535e-30 -0 -0 -0 0)
(1 -3.68218e-14 -0 -3.68264e-14 1.35602e-27 0 -0 0 0)
(1 -2.27786e-14 -0 -2.28181e-14 5.19764e-28 0 -0 0 0)
(1 -2.15733e-14 -0 -2.11564e-14 4.56414e-28 0 -0 0 0)
(1 -1.75123e-14 -0 -1.68445e-14 2.94986e-28 0 -0 0 0)
(1 -1.39936e-14 -0 -1.36338e-14 1.90785e-28 0 -0 0 0)
(1 -1.1091e-14 -0 -1.15668e-14 1.28288e-28 0 -0 0 0)
(1 -1.00574e-14 -0 -1.01446e-14 1.02029e-28 0 -0 0 0)
(1 -6.97532e-15 -0 -5.25509e-15 3.66559e-29 0 -0 0 0)
(1 7.98907e-15 -0 1.14275e-15 9.12948e-30 -0 -0 -0 0)
(1 -6.31557e-08 -0 -6.21585e-08 3.92566e-15 0 -0 0 0)
(1 1.49662e-08 -0 1.47301e-08 2.20454e-16 -0 -0 -0 0)
(1 -3.54878e-09 -0 -3.4928e-09 1.23952e-17 0 -0 0 0)
(1 8.40972e-10 -0 8.27713e-10 6.96083e-19 -0 -0 -0 0)
(1 -1.99359e-10 -0 -1.96218e-10 3.9118e-20 0 -0 0 0)
(1 4.72309e-11 -0 4.64858e-11 2.19557e-21 -0 -0 -0 0)
(1 -1.12262e-11 -0 -1.10501e-11 1.24051e-22 0 -0 0 0)
(1 2.62491e-12 -0 2.58293e-12 6.77995e-24 -0 -0 -0 0)
(1 -6.58586e-13 -0 -6.48674e-13 4.27208e-25 0 -0 0 0)
(1 1.20922e-13 -0 1.18696e-13 1.4353e-26 -0 -0 -0 0)
(1 -6.13825e-14 -0 -6.05285e-14 3.71539e-27 0 -0 0 0)
(1 -1.50512e-14 -0 -1.49268e-14 2.24666e-28 0 -0 0 0)
(1 -2.27436e-14 -0 -2.2504e-14 5.11821e-28 0 -0 0 0)
(1 -1.75346e-14 -0 -1.70365e-14 2.98727e-28 0 -0 0 0)
(1 -1.54769e-14 -0 -1.46967e-14 2.2746e-28 0 -0 0 0)
(1 -1.24258e-14 -0 -1.18526e-14 1.47278e-28 0 -0 0 0)
(1 -9.97793e-15 -0 -1.02952e-14 1.02725e-28 0 -0 0 0)
(1 -9.21248e-15 -0 -9.24548e-15 8.51738e-29 0 -0 0 0)
(1 -6.46772e-15 -0 -4.79737e-15 3.1028e-29 0 -0 0 0)
(1 8.17901e-15 -0 1.26789e-15 1.03701e-29 -0 -0 -0 0)
(1 6.32869e-08 -0 6.22806e-08 3.94155e-15 -0 -0 -0 0)
(1 -1.50064e-08 -0 -1.47677e-08 2.21609e-16 0 -0 0 0)
(1 3.5585e-09 -0 3.50192e-09 1.24616e-17 -0 -0 -0 0)
(1 -8.43805e-10 -0 -8.30377e-10 7.00676e-19 0 -0 0 0)
(1 2.00077e-10 -0 1.96895e-10 3.93943e-20 -0 -0 -0 0)
(1 -4.74679e-11 -0 -4.67105e-11 2.21725e-21 0 -0 0 0)
(1 1.12345e-11 -0 1.10566e-11 1.24215e-22 -0 -0 -0 0)
(1 -2.68946e-12 -0 -2.64576e-12 7.11568e-24 0 -0 0 0)
(1 6.11919e-13 -0 6.02647e-13 3.68772e-25 -0 -0 -0 0)
(1 -1.71079e-13 -0 -1.67871e-13 2.87191e-26 0 -0 0 0)
(1 1.57123e-14 -0 1.58501e-14 2.49041e-28 -0 -0 -0 0)
(1 -2.69661e-14 -0 -2.62877e-14 7.08877e-28 0 -0 0 0)
(1 -1.50395e-14 -0 -1.45397e-14 2.1867e-28 0 -0 0 0)
(1 -1.56239e-14 -0 -1.47626e-14 2.3065e-28 0 -0 0 0)
(1 -1.2913e-14 -0 -1.18427e-14 1.52924e-28 0 -0 0 0)
(1 -1.05711e-14 -0 -9.97335e-15 1.05429e-28 0 -0 0 0)
(1 -8.69208e-15 -0 -8.96187e-15 7.78973e-29 0 -0 0 0)
(1 -8.33324e-15 -0 -8.28374e-15 6.90305e-29 0 -0 0 0)
(1 -5.88865e-15 -0 -4.19308e-15 2.46916e-29 0 -0 0 0)
(1 8.25483e-15 -0 1.42532e-15 1.17658e-29 -0 -0 -0 0)
(1 -6.34261e-08 -0 -6.24104e-08 3.95845e-15 0 -0 0 0)
(1 1.50486e-08 -0 1.48073e-08 2.22829e-16 -0 -0 -0 0)
(1 -3.56875e-09 -0 -3.51153e-09 1.25318e-17 0 -0 0 0)
(1 8.46728e-10 -0 8.33141e-10 7.05444e-19 -0 -0 -0 0)
(1 -2.00878e-10 -0 -1.97645e-10 3.97024e-20 0 -0 0 0)
(1 4.76471e-11 -0 4.68845e-11 2.23391e-21 -0 -0 -0 0)
(1 -1.13207e-11 -0 -1.11354e-11 1.26061e-22 0 -0 0 0)
(1 2.67154e-12 -0 2.63053e-12 7.02757e-24 -0 -0 -0 0)
(1 -6.50882e-13 -0 -6.38755e-13 4.15754e-25 0 -0 0 0)
(1 1.3698e-13 -0 1.35956e-13 1.86232e-26 -0 -0 -0 0)
(1 -5.02527e-14 -0 -4.85704e-14 2.44079e-27 0 -0 0 0)
(1 -5.33156e-15 -0 -4.59888e-15 2.45192e-29 0 -0 0 0)
(1 -1.51967e-14 -0 -1.43601e-14 2.18227e-28 0 -0 0 0)
(1 -1.15856e-14 -0 -1.05645e-14 1.22395e-28 0 -0 0 0)
(1 -1.07209e-14 -0 -9.70108e-15 1.04004e-28 0 -0 0 0)
(1 -8.79964e-15 -0 -8.27316e-15 7.28009e-29 0 -0 0 0)
(1 -7.55215e-15 -0 -7.68969e-15 5.80737e-29 0 -0 0 0)
(1 -7.47044e-15 -0 -7.26593e-15 5.42797e-29 0 -0 0 0)
(1 -5.15921e-15 -0 -3.43196e-15 1.77062e-29 0 -0 0 0)
(1 8.11836e-15 -0 1.63513e-15 1.32746e-29 -0 -0 -0 0)
(1 6.35691e-08 -0 6.25438e-08 3.97585e-15 -0 -0 -0 0)
(1 -1.50919e-08 -0 -1.4848e-08 2.24084e-16 0 -0 0 0)
(1 3.5792e-09 -0 3.52136e-09 1.26037e-17 -0 -0 -0 0)
(1 -8.49747e-10 -0 -8.35968e-10 7.10362e-19 0 -0 0 0)
(1 2.01663e-10 -0 1.98399e-10 4.00097e-20 -0 -0 -0 0)
(1 -4.78644e-11 -0 -4.70806e-11 2.25349e-21 0 -0 0 0)
(1 1.13658e-11 -0 1.1185e-11 1.27126e-22 -0 -0 -0 0)
(1 -2.70379e-12 -0 -2.65636e-12 7.18222e-24 0 -0 0 0)
(1 6.34469e-13 -0 6.26536e-13 3.97517e-25 -0 -0 -0 0)
(1 -1.60864e-13 -0 -1.56414e-13 2.51614e-26 0 -0 0 0)
(1 2.67597e-14 -0 2.76065e-14 7.38741e-28 -0 -0 -0 0)
(1 -1.84672e-14 -0 -1.71451e-14 3.16621e-28 0 -0 0 0)
(1 -7.70822e-15 -0 -6.7726e-15 5.22047e-29 0 -0 0 0)
(1 -9.72062e-15 -0 -8.54806e-15 8.30924e-29 0 -0 0 0)
(1 -8.18588e-15 -0 -7.14387e-15 5.84789e-29 0 -0 0 0)
(1 -7.08453e-15 -0 -6.50618e-15 4.60932e-29 0 -0 0 0)
(1 -6.07507e-15 -0 -6.29804e-15 3.82611e-29 0 -0 0 0)
(1 -6.38317e-15 -0 -6.21004e-15 3.96397e-29 0 -0 0 0)
(1 -4.56703e-15 -0 -2.85983e-15 1.3061e-29 0 -0 0 0)
(1 7.67563e-15 -0 1.77925e-15 1.36569e-29 -0 -0 -0 0)
(1 -6.37085e-08 -0 -6.2674e-08 3.99287e-15 0 -0 0 0)
(1 1.51332e-08 -0 1.48868e-08 2.25286e-16 -0 -0 -0 0)
(1 -3.58926e-09 -0 -3.53079e-09 1.26729e-17 0 -0 0 0)
(1 8.52566e-10 -0 8.38651e-10 7.15005e-19 -0 -0 -0 0)
(1 -2.02397e-10 -0 -1.99074e-10 4.02919e-20 0 -0 0 0)
(1 4.80676e-11 -0 4.72869e-11 2.27297e-21 -0 -0 -0 0)
(1 -1.14131e-11 -0 -1.12195e-11 1.28049e-22 0 -0 0 0)
(1 2.71631e-12 -0 2.6756e-12 7.26776e-24 -0 -0 -0 0)
(1 -6.45251e-13 -0 -6.31516e-13 4.07486e-25 0 -0 0 0)
(1 1.50162e-13 -0 1.49936e-13 2.25147e-26 -0 -0 -0 0)
(1 -4.15344e-14 -0 -3.91735e-14 1.62705e-27 0 -0 0 0)
(1 2.53801e-15 -0 3.67261e-15 9.32113e-30 -0 -0 -0 0)
(1 -8.85655e-15 -0 -7.84981e-15 6.95222e-29 0 -0 0 0)
(1 -6.33854e-15 -0 -5.20858e-15 3.30148e-29 0 -0 0 0)
(1 -6.41789e-15 -0 -5.3437e-15 3.42952e-29 0 -0 0 0)
(1 -5.34191e-15 -0 -4.77097e-15 2.54861e-29 0 -0 0 0)
(1 -4.80052e-15 -0 -4.99064e-15 2.39577e-29 0 -0 0 0)
(1 -5.38806e-15 -0 -5.26912e-15 2.83904e-29 0 -0 0 0)
(1 -3.93327e-15 -0 -2.33662e-15 9.19057e-30 0 -0 0 0)
(1 7.06301e-15 -0 1.71549e-15 1.21165e-29 -0 -0 -0 0)
(1 6.38398e-08 -0 6.27964e-08 4.00891e-15 -0 -0 -0 0)
(1 -1.51725e-08 -0 -1.49236e-08 2.2643e-16 0 -0 0 0)
(1 3.5988e-09 -0 3.53978e-09 1.2739e-17 -0 -0 -0 0)
(1 -8.55217e-10 -0 -8.41115e-10 7.19337e-19 0 -0 0 0)
(1 2.03155e-10 -0 1.99814e-10 4.05933e-20 -0 -0 -0 0)
(1 -4.8216e-11 -0 -4.74094e-11 2.28589e-21 0 -0 0 0)
(1 1.1491e-11 -0 1.13065e-11 1.29923e-22 -0 -0 -0 0)
(1 -2.71541e-12 -0 -2.66548e-12 7.23785e-24 0 -0 0 0)
(1 6.53951e-13 -0 6.46358e-13 4.22686e-25 -0 -0 -0 0)
(1 -1.53195e-13 -0 -1.48147e-13 2.26955e-26 0 -0 0 0)
(1 3.53326e-14 -0 3.6565e-14 1.29194e-27 -0 -0 -0 0)
(1 -1.18772e-14 -0 -1.04498e-14 1.24114e-28 0 -0 0 0)
(1 -2.07385e-15 -0 -1.27171e-15 2.63734e-30 0 -0 0 0)
(1 -5.28939e-15 -0 -4.33502e-15 2.29296e-29 0 -0 0 0)
(1 -4.60133e-15 -0 -3.65485e-15 1.68172e-29 0 -0 0 0)
(1 -4.18178e-15 -0 -3.5859e-15 1.49954e-29 0 -0 0 0)
(1 -3.74954e-15 -0 -3.77959e-15 1.41717e-29 0 -0 0 0)
(1 -4.2747e-15 -0 -4.03151e-15 1.72335e-29 0 -0 0 0)
(1 -3.1691e-15 -0 -1.80069e-15 5.70656e-30 0 -0 0 0)
(1 6.15321e-15 -0 1.53522e-15 9.4465e-30 -0 -0 -0 0)
(1 -6.39566e-08 -0 -6.29057e-08 4.02323e-15 0 -0 0 0)
(1 1.52062e-08 -0 1.49553e-08 2.27414e-16 -0 -0 -0 0)
(1 -3.60681e-09 -0 -3.54727e-09 1.27943e-17 0 -0 0 0)
(1 8.57519e-10 -0 8.43324e-10 7.23167e-19 -0 -0 -0 0)
(1 -2.03619e-10 -0 -2.00223e-10 4.07692e-20 0 -0 0 0)
(1 4.84304e-11 -0 4.76328e-11 2.30688e-21 -0 -0 -0 0)
(1 -1.14798e-11 -0 -1.1281e-11 1.29503e-22 0 -0 0 0)
(1 2.75338e-12 -0 2.7118e-12 7.46663e-24 -0 -0 -0 0)
(1 -6.4099e-13 -0 -6.26958e-13 4.01874e-25 0 -0 0 0)
(1 1.59577e-13 -0 1.59177e-13 2.54011e-26 -0 -0 -0 0)
(1 -3.56789e-14 -0 -3.32853e-14 1.18758e-27 0 -0 0 0)
(1 7.94117e-15 -0 8.95365e-15 7.11024e-29 -0 -0 -0 0)
(1 -4.28806e-15 -0 -3.38383e-15 1.45101e-29 0 -0 0 0)
(1 -2.44959e-15 -0 -1.5977e-15 3.9137e-30 0 -0 0 0)
(1 -3.18808e-15 -0 -2.36258e-15 7.5321e-30 0 -0 0 0)
(1 -2.75319e-15 -0 -2.32938e-15 6.41324e-30 0 -0 0 0)
(1 -2.67274e-15 -0 -2.77594e-15 7.41936e-30 0 -0 0 0)
(1 -3.42355e-15 -0 -3.16704e-15 1.08425e-29 0 -0 0 0)
(1 -2.53513e-15 -0 -1.3369e-15 3.38922e-30 0 -0 0 0)
(1 5.04008e-15 -0 1.36959e-15 6.90283e-30 -0 -0 -0 0)
(1 6.40534e-08 -0 6.29958e-08 4.0351e-15 -0 -0 -0 0)
(1 -1.52343e-08 -0 -1.49816e-08 2.28234e-16 0 -0 0 0)
(1 3.61457e-09 -0 3.55462e-09 1.28484e-17 -0 -0 -0 0)
(1 -8.59268e-10 -0 -8.44925e-10 7.26017e-19 0 -0 0 0)
(1 2.04377e-10 -0 2.00974e-10 4.10745e-20 -0 -0 -0 0)
(1 -4.84912e-11 -0 -4.76698e-11 2.31156e-21 0 -0 0 0)
(1 1.15905e-11 -0 1.14015e-11 1.32149e-22 -0 -0 -0 0)
(1 -2.73053e-12 -0 -2.68028e-12 7.31857e-24 0 -0 0 0)
(1 6.66021e-13 -0 6.5753e-13 4.37929e-25 -0 -0 -0 0)
(1 -1.50862e-13 -0 -1.4619e-13 2.20544e-26 0 -0 0 0)
(1 3.91797e-14 -0 4.01336e-14 1.57242e-27 -0 -0 -0 0)
(1 -8.97064e-15 -0 -7.69344e-15 6.9015e-29 0 -0 0 0)
(1 8.48311e-16 -0 1.68996e-15 1.43361e-30 -0 -0 -0 0)
(1 -2.40988e-15 -0 -1.67225e-15 4.02992e-30 0 -0 0 0)
(1 -1.94579e-15 -0 -1.30945e-15 2.5479e-30 0 -0 0 0)
(1 -2.04154e-15 -0 -1.64355e-15 3.35536e-30 0 -0 0 0)
(1 -1.93412e-15 -0 -2.00586e-15 3.87957e-30 0 -0 0 0)
(1 -2.5272e-15 -0 -2.40491e-15 6.0777e-30 0 -0 0 0)
(1 -1.966e-15 -0 -1.04613e-15 2.05668e-30 0 -0 0 0)
(1 3.77257e-15 -0 1.08523e-15 4.09409e-30 -0 -0 -0 0)
(1 -6.41319e-08 -0 -6.30697e-08 4.04478e-15 0 -0 0 0)
(1 1.52571e-08 -0 1.50033e-08 2.28907e-16 -0 -0 -0 0)
(1 -3.61772e-09 -0 -3.55745e-09 1.28698e-17 0 -0 0 0)
(1 8.60019e-10 -0 8.45648e-10 7.27273e-19 -0 -0 -0 0)
(1 -2.04161e-10 -0 -2.00725e-10 4.09803e-20 0 -0 0 0)
(1 4.85198e-11 -0 4.77094e-11 2.31485e-21 -0 -0 -0 0)
(1 -1.14934e-11 -0 -1.12952e-11 1.2982e-22 0 -0 0 0)
(1 2.75035e-12 -0 2.70611e-12 7.44273e-24 -0 -0 -0 0)
(1 -6.41259e-13 -0 -6.28753e-13 4.03194e-25 0 -0 0 0)
(1 1.58445e-13 -0 1.56915e-13 2.48624e-26 -0 -0 -0 0)
(1 -3.48536e-14 -0 -3.35063e-14 1.16781e-27 0 -0 0 0)
(1 9.02383e-15 -0 9.42792e-15 8.5076e-29 -0 -0 -0 0)
(1 -2.54806e-15 -0 -2.1381e-15 5.44802e-30 0 -0 0 0)
(1 -4.05568e-16 -0 -7.94693e-17 3.22302e-32 0 -0 0 0)
(1 -1.10167e-15 -0 -8.35519e-16 9.20464e-31 0 -0 0 0)
(1 -8.55121e-16 -0 -7.30486e-16 6.24654e-31 0 -0 0 0)
(1 -8.47919e-16 -0 -1.09593e-15 9.29264e-31 0 -0 0 0)
(1 -1.40932e-15 -0 -1.51311e-15 2.13245e-30 0 -0 0 0)
(1 -1.31421e-15 -0 -7.46409e-16 9.80939e-31 0 -0 0 0)
(1 2.39331e-15 -0 7.40571e-16 1.77241e-30 -0 -0 -0 0)
(1 6.4197e-08 -0 6.31309e-08 4.05281e-15 -0 -0 -0 0)
(1 -1.52991e-08 -0 -1.50435e-08 2.30152e-16 0 -0 0 0)
(1 3.63238e-09 -0 3.57167e-09 1.29737e-17 -0 -0 -0 0)
(1 -8.65155e-10 -0 -8.50602e-10 7.35903e-19 0 -0 0 0)
(1 2.06141e-10 -0 2.02666e-10 4.17778e-20 -0 -0 -0 0)
(1 -4.90416e-11 -0 -4.82095e-11 2.36427e-21 0 -0 0 0)
(1 1.17244e-11 -0 1.15258e-11 1.35133e-22 -0 -0 -0 0)
(1 -2.78894e-12 -0 -2.74064e-12 7.6435e-24 0 -0 0 0)
(1 6.71062e-13 -0 6.59821e-13 4.42781e-25 -0 -0 -0 0)
(1 -1.58074e-13 -0 -1.55166e-13 2.45276e-26 0 -0 0 0)
(1 3.93514e-14 -0 3.86816e-14 1.52218e-27 -0 -0 -0 0)
(1 -8.70843e-15 -0 -8.57237e-15 7.46519e-29 0 -0 0 0)
(1 2.39819e-15 -0 2.32197e-15 5.56853e-30 -0 -0 -0 0)
(1 -4.89832e-16 -0 -4.74239e-16 2.32297e-31 0 -0 0 0)
(1 1.8421e-16 -0 1.45473e-16 2.67976e-32 -0 -0 -0 0)
(1 7.42122e-17 -0 -1.04481e-16 -7.75376e-33 0 -0 -0 0)
(1 -5.81595e-17 -0 -3.12497e-16 1.81747e-32 0 -0 0 0)
(1 -4.52211e-16 -0 -5.64379e-16 2.55219e-31 0 -0 0 0)
(1 -5.20468e-16 -0 -3.21532e-16 1.67347e-31 0 -0 0 0)
(1 8.62709e-16 -0 3.04631e-16 2.62808e-31 -0 -0 -0 0)
)
;

boundaryField
{
    movingWall
    {
        type            calculated;
        value           uniform (1 0 0 0 0 0 0 0 0);
    }
    fixedWalls
    {
        type            calculated;
        value           uniform (1 0 0 0 0 0 0 0 0);
    }
    frontAndBack
    {
        type            empty;
    }
}


// ************************************************************************* //
