/*--------------------------------*- C++ -*----------------------------------*\
| =========                 |                                                 |
| \\      /  F ield         | OpenFOAM: The Open Source CFD Toolbox           |
|  \\    /   O peration     | Version:  2506                                  |
|   \\  /    A nd           | Website:  www.openfoam.com                      |
|    \\/     M anipulation  |                                                 |
\*---------------------------------------------------------------------------*/
FoamFile
{
    version     2.0;
    format      ascii;
    arch        "LSB;label=32;scalar=64";
    class       volScalarField;
    location    "4";
    object      Uy;
}
// * * * * * * * * * * * * * * * * * * * * * * * * * * * * * * * * * * * * * //

dimensions      [0 1 -1 0 0 0 0];

internalField   nonuniform List<scalar> 
400
(
6.19576e-08
-1.46957e-08
3.48963e-09
-8.27404e-10
1.96722e-10
-4.65194e-11
1.11382e-11
-2.58895e-12
6.48839e-13
-1.31783e-13
4.63985e-14
-4.47408e-16
7.73373e-15
3.80944e-15
3.31125e-15
2.3522e-15
1.7657e-15
1.28013e-15
7.33726e-16
-6.20619e-17
-6.19406e-08
1.4689e-08
-3.47924e-09
8.26084e-10
-1.9479e-10
4.65492e-11
-1.07671e-11
2.69118e-12
-5.41995e-13
1.90066e-13
-1.89639e-15
3.07673e-14
1.47852e-14
1.27214e-14
9.02503e-15
6.74302e-15
5.12963e-15
3.96406e-15
2.08254e-15
-5.7921e-17
6.1879e-08
-1.46561e-08
3.47677e-09
-8.22582e-10
1.95594e-10
-4.58875e-11
1.11611e-11
-2.44956e-12
7.10125e-13
-7.81202e-14
8.21716e-14
2.67672e-14
2.77727e-14
1.86636e-14
1.4334e-14
1.0597e-14
8.15921e-15
6.20829e-15
3.2947e-15
-8.12726e-17
-6.18438e-08
1.46352e-08
-3.46928e-09
8.21629e-10
-1.9402e-10
4.63178e-11
-1.06768e-11
2.72313e-12
-5.01859e-13
2.21227e-13
2.30872e-14
5.06204e-14
3.04014e-14
2.46748e-14
1.8033e-14
1.37194e-14
1.06126e-14
8.2821e-15
4.30858e-15
-9.26018e-17
6.18175e-08
-1.46229e-08
3.46711e-09
-8.19904e-10
1.94407e-10
-4.5748e-11
1.10417e-11
-2.43571e-12
7.11021e-13
-6.47164e-14
9.40161e-14
3.81077e-14
3.74586e-14
2.67972e-14
2.0851e-14
1.57305e-14
1.2296e-14
9.7123e-15
5.2364e-15
-2.35033e-17
-6.18178e-08
1.46213e-08
-3.46619e-09
8.20087e-10
-1.939e-10
4.61061e-11
-1.07212e-11
2.68415e-12
-5.14167e-13
2.17277e-13
2.46455e-14
5.41442e-14
3.45412e-14
2.88849e-14
2.1895e-14
1.69076e-14
1.32245e-14
1.05927e-14
5.7723e-15
-1.87287e-16
6.18393e-08
-1.46288e-08
3.46825e-09
-8.20387e-10
1.94357e-10
-4.58757e-11
1.09807e-11
-2.47957e-12
6.87595e-13
-7.80032e-14
8.76778e-14
3.54788e-14
3.7047e-14
2.75202e-14
2.19868e-14
1.69908e-14
1.36969e-14
1.11337e-14
5.97735e-15
-4.27782e-16
-6.18879e-08
1.46443e-08
-3.47194e-09
8.21626e-10
-1.9447e-10
4.61503e-11
-1.0817e-11
2.65261e-12
-5.44937e-13
2.00224e-13
1.32303e-14
4.73652e-14
3.04331e-14
2.65731e-14
2.07253e-14
1.6498e-14
1.35163e-14
1.11998e-14
5.96978e-15
-5.70779e-16
6.19581e-08
-1.46673e-08
3.47757e-09
-8.23222e-10
1.95048e-10
-4.61372e-11
1.09903e-11
-2.53255e-12
6.64389e-13
-9.8786e-14
7.43452e-14
2.61246e-14
3.07171e-14
2.31528e-14
1.91107e-14
1.51513e-14
1.27635e-14
1.08553e-14
5.72603e-15
-8.59926e-16
-6.20501e-08
1.46961e-08
-3.48456e-09
8.25313e-10
-1.95523e-10
4.63757e-11
-1.09318e-11
2.64148e-12
-5.75801e-13
1.82486e-13
-1.76636e-15
3.68264e-14
2.28181e-14
2.11564e-14
1.68445e-14
1.36338e-14
1.15668e-14
1.01446e-14
5.25509e-15
-1.14275e-15
6.21585e-08
-1.47301e-08
3.4928e-09
-8.27713e-10
1.96218e-10
-4.64858e-11
1.10501e-11
-2.58293e-12
6.48674e-13
-1.18696e-13
6.05285e-14
1.49268e-14
2.2504e-14
1.70365e-14
1.46967e-14
1.18526e-14
1.02952e-14
9.24548e-15
4.79737e-15
-1.26789e-15
-6.22806e-08
1.47677e-08
-3.50192e-09
8.30377e-10
-1.96895e-10
4.67105e-11
-1.10566e-11
2.64576e-12
-6.02647e-13
1.67871e-13
-1.58501e-14
2.62877e-14
1.45397e-14
1.47626e-14
1.18427e-14
9.97335e-15
8.96187e-15
8.28374e-15
4.19308e-15
-1.42532e-15
6.24104e-08
-1.48073e-08
3.51153e-09
-8.33141e-10
1.97645e-10
-4.68845e-11
1.11354e-11
-2.63053e-12
6.38755e-13
-1.35956e-13
4.85704e-14
4.59888e-15
1.43601e-14
1.05645e-14
9.70108e-15
8.27316e-15
7.68969e-15
7.26593e-15
3.43196e-15
-1.63513e-15
-6.25438e-08
1.4848e-08
-3.52136e-09
8.35968e-10
-1.98399e-10
4.70806e-11
-1.1185e-11
2.65636e-12
-6.26536e-13
1.56414e-13
-2.76065e-14
1.71451e-14
6.7726e-15
8.54806e-15
7.14387e-15
6.50618e-15
6.29804e-15
6.21004e-15
2.85983e-15
-1.77925e-15
6.2674e-08
-1.48868e-08
3.53079e-09
-8.38651e-10
1.99074e-10
-4.72869e-11
1.12195e-11
-2.6756e-12
6.31516e-13
-1.49936e-13
3.91735e-14
-3.67261e-15
7.84981e-15
5.20858e-15
5.3437e-15
4.77097e-15
4.99064e-15
5.26912e-15
2.33662e-15
-1.71549e-15
-6.27964e-08
1.49236e-08
-3.53978e-09
8.41115e-10
-1.99814e-10
4.74094e-11
-1.13065e-11
2.66548e-12
-6.46358e-13
1.48147e-13
-3.6565e-14
1.04498e-14
1.27171e-15
4.33502e-15
3.65485e-15
3.5859e-15
3.77959e-15
4.03151e-15
1.80069e-15
-1.53522e-15
6.29057e-08
-1.49553e-08
3.54727e-09
-8.43324e-10
2.00223e-10
-4.76328e-11
1.1281e-11
-2.7118e-12
6.26958e-13
-1.59177e-13
3.32853e-14
-8.95365e-15
3.38383e-15
1.5977e-15
2.36258e-15
2.32938e-15
2.77594e-15
3.16704e-15
1.3369e-15
-1.36959e-15
-6.29958e-08
1.49816e-08
-3.55462e-09
8.44925e-10
-2.00974e-10
4.76698e-11
-1.14015e-11
2.68028e-12
-6.5753e-13
1.4619e-13
-4.01336e-14
7.69344e-15
-1.68996e-15
1.67225e-15
1.30945e-15
1.64355e-15
2.00586e-15
2.40491e-15
1.04613e-15
-1.08523e-15
6.30697e-08
-1.50033e-08
3.55745e-09
-8.45648e-10
2.00725e-10
-4.77094e-11
1.12952e-11
-2.70611e-12
6.28753e-13
-1.56915e-13
3.35063e-14
-9.42792e-15
2.1381e-15
7.94693e-17
8.35519e-16
7.30486e-16
1.09593e-15
1.51311e-15
7.46409e-16
-7.40571e-16
-6.31309e-08
1.50435e-08
-3.57167e-09
8.50602e-10
-2.02666e-10
4.82095e-11
-1.15258e-11
2.74064e-12
-6.59821e-13
1.55166e-13
-3.86816e-14
8.57237e-15
-2.32197e-15
4.74239e-16
-1.45473e-16
1.04481e-16
3.12497e-16
5.64379e-16
3.21532e-16
-3.04631e-16
)
;

boundaryField
{
    movingWall
    {
        type            calculated;
        value           uniform -0;
    }
    fixedWalls
    {
        type            calculated;
        value           uniform -0;
    }
    frontAndBack
    {
        type            empty;
    }
}


// ************************************************************************* //
