/*--------------------------------*- C++ -*----------------------------------*\
| =========                 |                                                 |
| \\      /  F ield         | OpenFOAM: The Open Source CFD Toolbox           |
|  \\    /   O peration     | Version:  2506                                  |
|   \\  /    A nd           | Website:  www.openfoam.com                      |
|    \\/     M anipulation  |                                                 |
\*---------------------------------------------------------------------------*/
FoamFile
{
    version     2.0;
    format      ascii;
    arch        "LSB;label=32;scalar=64";
    class       volVectorField;
    location    "4";
    object      vorticityField;
}
// * * * * * * * * * * * * * * * * * * * * * * * * * * * * * * * * * * * * * //

dimensions      [0 0 -1 0 0 0 0];

internalField   nonuniform List<vector> 
400
(
(0 -0 4.74667e-06)
(0 -0 -5.85564e-06)
(0 -0 1.39037e-06)
(0 -0 -3.30815e-07)
(0 -0 7.84185e-08)
(0 -0 -1.87839e-08)
(0 -0 4.38954e-09)
(0 -0 -1.09776e-09)
(0 -0 2.2658e-10)
(0 -0 -7.82418e-11)
(0 -0 1.66816e-12)
(0 -0 -1.24317e-11)
(0 -0 -5.45611e-12)
(0 -0 -4.56222e-12)
(0 -0 -2.91044e-12)
(0 -0 -1.94349e-12)
(0 -0 -1.1643e-12)
(0 -0 -5.91089e-13)
(0 -0 -1.34219e-13)
(0 -0 -6.71665e-14)
(0 -0 -4.75777e-06)
(0 -0 5.85821e-06)
(0 -0 -1.39097e-06)
(0 -0 3.30243e-07)
(0 -0 -7.84059e-08)
(0 -0 1.86136e-08)
(0 -0 -4.4196e-09)
(0 -0 1.04867e-09)
(0 -0 -2.49461e-10)
(0 -0 5.8699e-11)
(0 -0 -1.43849e-11)
(0 -0 3.05051e-12)
(0 -0 -1.04565e-12)
(0 -0 -3.39126e-14)
(0 -0 -2.99688e-13)
(0 -0 -2.26909e-13)
(0 -0 -1.42371e-13)
(0 -0 -2.50499e-13)
(0 -0 -4.02198e-13)
(0 -0 -2.02462e-13)
(0 -0 4.76554e-06)
(0 -0 -5.85011e-06)
(0 -0 1.38737e-06)
(0 -0 -3.2899e-07)
(0 -0 7.8011e-08)
(0 -0 -1.84983e-08)
(0 -0 4.3857e-09)
(0 -0 -1.0403e-09)
(0 -0 2.46224e-10)
(0 -0 -5.8838e-11)
(0 -0 1.35787e-11)
(0 -0 -3.62385e-12)
(0 -0 3.28051e-13)
(0 -0 -6.39138e-13)
(0 -0 -3.72977e-13)
(0 -0 -3.46431e-13)
(0 -0 -3.30454e-13)
(0 -0 -3.50925e-13)
(0 -0 -6.56061e-13)
(0 -0 -3.48448e-13)
(0 -0 -4.78452e-06)
(0 -0 5.85113e-06)
(0 -0 -1.38714e-06)
(0 -0 3.28817e-07)
(0 -0 -7.79438e-08)
(0 -0 1.84748e-08)
(0 -0 -4.37953e-09)
(0 -0 1.03749e-09)
(0 -0 -2.4645e-10)
(0 -0 5.78615e-11)
(0 -0 -1.42417e-11)
(0 -0 2.87271e-12)
(0 -0 -1.2122e-12)
(0 -0 -3.15263e-13)
(0 -0 -4.72132e-13)
(0 -0 -3.35464e-13)
(0 -0 -3.26885e-13)
(0 -0 -6.03299e-13)
(0 -0 -8.3747e-13)
(0 -0 -4.48703e-13)
(0 -0 4.78781e-06)
(0 -0 -5.84942e-06)
(0 -0 1.38647e-06)
(0 -0 -3.28594e-07)
(0 -0 7.7874e-08)
(0 -0 -1.84558e-08)
(0 -0 4.37289e-09)
(0 -0 -1.03699e-09)
(0 -0 2.45068e-10)
(0 -0 -5.86647e-11)
(0 -0 1.3264e-11)
(0 -0 -3.73129e-12)
(0 -0 3.05524e-13)
(0 -0 -7.1208e-13)
(0 -0 -4.83256e-13)
(0 -0 -4.48921e-13)
(0 -0 -3.03665e-13)
(0 -0 -5.70438e-13)
(0 -0 -8.92265e-13)
(0 -0 -4.6708e-13)
(0 -0 -4.78894e-06)
(0 -0 5.84952e-06)
(0 -0 -1.38638e-06)
(0 -0 3.28546e-07)
(0 -0 -7.78579e-08)
(0 -0 1.84493e-08)
(0 -0 -4.37245e-09)
(0 -0 1.03542e-09)
(0 -0 -2.46009e-10)
(0 -0 5.75947e-11)
(0 -0 -1.43076e-11)
(0 -0 2.69718e-12)
(0 -0 -1.38752e-12)
(0 -0 -3.97258e-13)
(0 -0 -6.0142e-13)
(0 -0 -5.14679e-13)
(0 -0 -4.9596e-13)
(0 -0 -6.63908e-13)
(0 -0 -1.0509e-12)
(0 -0 -5.04291e-13)
(0 -0 4.78436e-06)
(0 -0 -5.8501e-06)
(0 -0 1.38653e-06)
(0 -0 -3.28582e-07)
(0 -0 7.78653e-08)
(0 -0 -1.84526e-08)
(0 -0 4.37189e-09)
(0 -0 -1.03666e-09)
(0 -0 2.44845e-10)
(0 -0 -5.87991e-11)
(0 -0 1.31642e-11)
(0 -0 -3.87045e-12)
(0 -0 2.61233e-13)
(0 -0 -8.01286e-13)
(0 -0 -5.65047e-13)
(0 -0 -5.03731e-13)
(0 -0 -3.68871e-13)
(0 -0 -6.36431e-13)
(0 -0 -1.18325e-12)
(0 -0 -6.09167e-13)
(0 -0 -4.77975e-06)
(0 -0 5.85286e-06)
(0 -0 -1.38725e-06)
(0 -0 3.28769e-07)
(0 -0 -7.79153e-08)
(0 -0 1.84641e-08)
(0 -0 -4.37636e-09)
(0 -0 1.03637e-09)
(0 -0 -2.46295e-10)
(0 -0 5.7714e-11)
(0 -0 -1.43372e-11)
(0 -0 2.69606e-12)
(0 -0 -1.32027e-12)
(0 -0 -3.74472e-13)
(0 -0 -6.00931e-13)
(0 -0 -4.22746e-13)
(0 -0 -3.67195e-13)
(0 -0 -6.46227e-13)
(0 -0 -1.14995e-12)
(0 -0 -5.399e-13)
(0 -0 4.77286e-06)
(0 -0 -5.85684e-06)
(0 -0 1.38831e-06)
(0 -0 -3.29051e-07)
(0 -0 7.79879e-08)
(0 -0 -1.84845e-08)
(0 -0 4.38012e-09)
(0 -0 -1.03885e-09)
(0 -0 2.45464e-10)
(0 -0 -5.90044e-11)
(0 -0 1.31416e-11)
(0 -0 -3.87492e-12)
(0 -0 8.22905e-14)
(0 -0 -8.62477e-13)
(0 -0 -5.29101e-13)
(0 -0 -4.44987e-13)
(0 -0 -2.9407e-13)
(0 -0 -6.76642e-13)
(0 -0 -1.17153e-12)
(0 -0 -4.86611e-13)
(0 -0 -4.76649e-06)
(0 -0 5.86267e-06)
(0 -0 -1.38984e-06)
(0 -0 3.29449e-07)
(0 -0 -7.80931e-08)
(0 -0 1.85102e-08)
(0 -0 -4.38838e-09)
(0 -0 1.03937e-09)
(0 -0 -2.47092e-10)
(0 -0 5.78101e-11)
(0 -0 -1.44304e-11)
(0 -0 2.7837e-12)
(0 -0 -1.37727e-12)
(0 -0 -3.80518e-13)
(0 -0 -5.62527e-13)
(0 -0 -4.73555e-13)
(0 -0 -2.94704e-13)
(0 -0 -6.58278e-13)
(0 -0 -1.12874e-12)
(0 -0 -4.11234e-13)
(0 -0 4.75929e-06)
(0 -0 -5.86961e-06)
(0 -0 1.39166e-06)
(0 -0 -3.29925e-07)
(0 -0 7.82154e-08)
(0 -0 -1.85434e-08)
(0 -0 4.39549e-09)
(0 -0 -1.04266e-09)
(0 -0 2.46559e-10)
(0 -0 -5.90314e-11)
(0 -0 1.33623e-11)
(0 -0 -3.77534e-12)
(0 -0 3.46495e-13)
(0 -0 -7.26517e-13)
(0 -0 -5.18386e-13)
(0 -0 -4.1305e-13)
(0 -0 -2.60713e-13)
(0 -0 -5.22676e-13)
(0 -0 -1.07844e-12)
(0 -0 -2.98737e-13)
(0 -0 -4.75257e-06)
(0 -0 5.87776e-06)
(0 -0 -1.39379e-06)
(0 -0 3.30477e-07)
(0 -0 -7.83596e-08)
(0 -0 1.85794e-08)
(0 -0 -4.40593e-09)
(0 -0 1.0442e-09)
(0 -0 -2.48141e-10)
(0 -0 5.82731e-11)
(0 -0 -1.42938e-11)
(0 -0 2.90345e-12)
(0 -0 -1.26093e-12)
(0 -0 -2.69701e-13)
(0 -0 -5.33136e-13)
(0 -0 -2.8808e-13)
(0 -0 -1.41856e-13)
(0 -0 -4.22668e-13)
(0 -0 -9.70907e-13)
(0 -0 -2.76776e-13)
(0 -0 4.7461e-06)
(0 -0 -5.88657e-06)
(0 -0 1.39608e-06)
(0 -0 -3.31071e-07)
(0 -0 7.85123e-08)
(0 -0 -1.86198e-08)
(0 -0 4.41526e-09)
(0 -0 -1.04763e-09)
(0 -0 2.4794e-10)
(0 -0 -5.92895e-11)
(0 -0 1.35676e-11)
(0 -0 -3.63787e-12)
(0 -0 4.33929e-13)
(0 -0 -5.4722e-13)
(0 -0 -2.29132e-13)
(0 -0 -1.46929e-13)
(0 -0 -1.00723e-13)
(0 -0 -4.79983e-13)
(0 -0 -8.90106e-13)
(0 -0 -2.33893e-13)
(0 -0 -4.73996e-06)
(0 -0 5.89575e-06)
(0 -0 -1.39847e-06)
(0 -0 3.31689e-07)
(0 -0 -7.86724e-08)
(0 -0 1.86601e-08)
(0 -0 -4.42657e-09)
(0 -0 1.04958e-09)
(0 -0 -2.49425e-10)
(0 -0 5.87545e-11)
(0 -0 -1.43334e-11)
(0 -0 3.00422e-12)
(0 -0 -1.13075e-12)
(0 -0 -2.06818e-13)
(0 -0 -2.58398e-13)
(0 -0 -1.38793e-13)
(0 -0 -5.67191e-14)
(0 -0 -3.70926e-13)
(0 -0 -8.53139e-13)
(0 -0 -1.08059e-13)
(0 -0 4.7352e-06)
(0 -0 -5.90498e-06)
(0 -0 1.40085e-06)
(0 -0 -3.32303e-07)
(0 -0 7.88295e-08)
(0 -0 -1.87013e-08)
(0 -0 4.43639e-09)
(0 -0 -1.05289e-09)
(0 -0 2.49476e-10)
(0 -0 -5.95595e-11)
(0 -0 1.37861e-11)
(0 -0 -3.59315e-12)
(0 -0 4.81543e-13)
(0 -0 -4.94556e-13)
(0 -0 -2.06391e-13)
(0 -0 -1.70831e-13)
(0 -0 7.692e-14)
(0 -0 -2.65402e-13)
(0 -0 -7.52671e-13)
(0 -0 -1.16324e-13)
(0 -0 -4.73039e-06)
(0 -0 5.91359e-06)
(0 -0 -1.40307e-06)
(0 -0 3.32875e-07)
(0 -0 -7.89773e-08)
(0 -0 1.87384e-08)
(0 -0 -4.44658e-09)
(0 -0 1.05476e-09)
(0 -0 -2.50594e-10)
(0 -0 5.91632e-11)
(0 -0 -1.42848e-11)
(0 -0 3.21446e-12)
(0 -0 -8.5542e-13)
(0 -0 4.85789e-14)
(0 -0 -2.64648e-13)
(0 -0 -1.23052e-13)
(0 -0 -9.09638e-14)
(0 -0 -2.521e-13)
(0 -0 -5.56673e-13)
(0 -0 -2.65469e-14)
(0 -0 4.7285e-06)
(0 -0 -5.92182e-06)
(0 -0 1.40516e-06)
(0 -0 -3.33408e-07)
(0 -0 7.91122e-08)
(0 -0 -1.87735e-08)
(0 -0 4.45481e-09)
(0 -0 -1.05749e-09)
(0 -0 2.5079e-10)
(0 -0 -5.97739e-11)
(0 -0 1.39381e-11)
(0 -0 -3.47804e-12)
(0 -0 6.75663e-13)
(0 -0 -3.18965e-13)
(0 -0 -8.94615e-14)
(0 -0 1.42302e-14)
(0 -0 -2.46544e-14)
(0 -0 -1.98113e-13)
(0 -0 -4.80768e-13)
(0 -0 3.2683e-15)
(0 -0 -4.72761e-06)
(0 -0 5.92883e-06)
(0 -0 -1.40696e-06)
(0 -0 3.33865e-07)
(0 -0 -7.92287e-08)
(0 -0 1.88026e-08)
(0 -0 -4.46257e-09)
(0 -0 1.05913e-09)
(0 -0 -2.51458e-10)
(0 -0 5.96254e-11)
(0 -0 -1.4202e-11)
(0 -0 3.30227e-12)
(0 -0 -9.00274e-13)
(0 -0 1.10205e-13)
(0 -0 -1.38396e-13)
(0 -0 -3.87784e-14)
(0 -0 1.57452e-13)
(0 -0 -1.23079e-13)
(0 -0 -3.76119e-13)
(0 -0 3.9101e-15)
(0 -0 4.72667e-06)
(0 -0 -5.93874e-06)
(0 -0 1.41046e-06)
(0 -0 -3.34972e-07)
(0 -0 7.95573e-08)
(0 -0 -1.88965e-08)
(0 -0 4.48846e-09)
(0 -0 -1.06621e-09)
(0 -0 2.53239e-10)
(0 -0 -6.01752e-11)
(0 -0 1.43421e-11)
(0 -0 -3.40787e-12)
(0 -0 8.15214e-13)
(0 -0 -1.57363e-13)
(0 -0 1.08916e-14)
(0 -0 2.60415e-14)
(0 -0 7.8262e-14)
(0 -0 -3.49525e-14)
(0 -0 -2.52473e-13)
(0 -0 -2.76888e-14)
(0 -0 -4.76715e-06)
(0 -0 5.95117e-06)
(0 -0 -1.41749e-06)
(0 -0 3.36978e-07)
(0 -0 -8.02634e-08)
(0 -0 1.91515e-08)
(0 -0 -4.55496e-09)
(0 -0 1.09454e-09)
(0 -0 -2.58738e-10)
(0 -0 6.31982e-11)
(0 -0 -1.49575e-11)
(0 -0 3.33781e-12)
(0 -0 -1.2977e-12)
(0 -0 -3.24452e-13)
(0 -0 -3.89341e-13)
(0 -0 -2.52359e-13)
(0 -0 -2.25061e-13)
(0 -0 -5.33066e-14)
(0 -0 4.86243e-14)
(0 -0 7.96251e-14)
)
;

boundaryField
{
    movingWall
    {
        type            calculated;
        value           nonuniform List<vector> 
20
(
(0 -0 -5.00304e-06)
(0 -0 6.01242e-06)
(0 -0 -1.4439e-06)
(0 -0 3.44082e-07)
(0 -0 -8.25655e-08)
(0 -0 1.98801e-08)
(0 -0 -4.74983e-09)
(0 -0 1.16227e-09)
(0 -0 -2.74357e-10)
(0 -0 6.94414e-11)
(0 -0 -1.64357e-11)
(0 -0 3.68038e-12)
(0 -0 -1.78681e-12)
(0 -0 -7.59347e-13)
(0 -0 -7.47518e-13)
(0 -0 -5.75928e-13)
(0 -0 -4.86917e-13)
(0 -0 -8.79143e-14)
(0 -0 2.23961e-13)
(0 -0 1.75946e-13)
)
;
    }
    fixedWalls
    {
        type            calculated;
        value           nonuniform List<vector> 
60
(
(0 -0 2.48035e-05)
(0 -0 -2.48089e-05)
(0 -0 2.47948e-05)
(0 -0 -2.48012e-05)
(0 -0 2.47954e-05)
(0 -0 -2.47964e-05)
(0 -0 2.4799e-05)
(0 -0 -2.48105e-05)
(0 -0 2.4827e-05)
(0 -0 -2.48511e-05)
(0 -0 2.48798e-05)
(0 -0 -2.49135e-05)
(0 -0 2.495e-05)
(0 -0 -2.49879e-05)
(0 -0 2.50261e-05)
(0 -0 -2.50617e-05)
(0 -0 2.50957e-05)
(0 -0 -2.51245e-05)
(0 -0 2.51479e-05)
(0 -0 -2.52108e-05)
(0 -0 2.48248e-14)
(0 -0 2.31684e-14)
(0 -0 5.40399e-15)
(0 -0 9.93568e-15)
(0 -0 6.36114e-14)
(0 -0 1.29125e-13)
(0 -0 1.16903e-13)
(0 -0 2.28312e-13)
(0 -0 3.4397e-13)
(0 -0 4.57099e-13)
(0 -0 5.61367e-13)
(0 -0 5.7013e-13)
(0 -0 5.99842e-13)
(0 -0 7.11699e-13)
(0 -0 6.31984e-13)
(0 -0 6.14086e-13)
(0 -0 5.47835e-13)
(0 -0 4.34091e-13)
(0 -0 2.69123e-13)
(0 -0 2.03168e-13)
(0 -0 4.73752e-06)
(0 -0 -5.86543e-06)
(0 -0 1.39456e-06)
(0 -0 -3.33291e-07)
(0 -0 7.89731e-08)
(0 -0 -1.91431e-08)
(0 -0 4.40308e-09)
(0 -0 -1.16458e-09)
(0 -0 2.06148e-10)
(0 -0 -9.95904e-11)
(0 -0 -1.08916e-11)
(0 -0 -2.19853e-11)
(0 -0 -1.192e-11)
(0 -0 -9.05758e-12)
(0 -0 -5.96329e-12)
(0 -0 -3.79609e-12)
(0 -0 -2.23884e-12)
(0 -0 -9.91376e-13)
(0 -0 -4.54013e-14)
(0 -0 2.16514e-14)
)
;
    }
    frontAndBack
    {
        type            empty;
    }
}


// ************************************************************************* //
