/*--------------------------------*- C++ -*----------------------------------*\
| =========                 |                                                 |
| \\      /  F ield         | OpenFOAM: The Open Source CFD Toolbox           |
|  \\    /   O peration     | Version:  2506                                  |
|   \\  /    A nd           | Website:  www.openfoam.com                      |
|    \\/     M anipulation  |                                                 |
\*---------------------------------------------------------------------------*/
FoamFile
{
    version     2.0;
    format      ascii;
    arch        "LSB;label=32;scalar=64";
    class       volVectorField;
    location    "4";
    object      wallShearStress;
}
// * * * * * * * * * * * * * * * * * * * * * * * * * * * * * * * * * * * * * //

dimensions      [0 2 -2 0 0 0 0];

internalField   uniform (0 0 0);

boundaryField
{
    movingWall
    {
        type            calculated;
        value           uniform (0 0 0);
    }
    fixedWalls
    {
        type            calculated;
        value           nonuniform List<vector> 
60
(
(1.62328e-13 -2.47626e-10 0)
(8.88597e-13 2.47436e-10 0)
(-1.52428e-12 -2.47083e-10 0)
(3.20686e-12 2.46739e-10 0)
(-4.96673e-12 -2.46586e-10 0)
(6.90795e-12 2.46578e-10 0)
(-8.72656e-12 -2.46724e-10 0)
(1.03495e-11 2.46998e-10 0)
(-1.17422e-11 -2.47394e-10 0)
(1.27391e-11 2.47889e-10 0)
(-1.34459e-11 -2.48469e-10 0)
(1.36508e-11 2.4911e-10 0)
(-1.35355e-11 -2.49784e-10 0)
(1.29006e-11 2.50471e-10 0)
(-1.19487e-11 -2.51131e-10 0)
(1.05586e-11 2.51755e-10 0)
(-8.87904e-12 -2.52288e-10 0)
(6.96529e-12 2.52721e-10 0)
(-4.89928e-12 -2.53079e-10 0)
(2.63143e-12 2.5294e-10 0)
(1.26423e-18 2.48248e-19 0)
(1.28072e-20 2.31684e-19 0)
(2.31206e-20 5.96141e-19 0)
(-1.22275e-18 6.41458e-19 0)
(-1.12111e-18 -4.48088e-19 0)
(1.45376e-18 2.07047e-19 0)
(2.55661e-19 2.25323e-18 0)
(2.88096e-19 2.28312e-18 0)
(1.56555e-18 3.4397e-18 0)
(-3.20141e-19 4.57099e-18 0)
(1.37262e-18 4.52947e-18 0)
(1.42906e-18 5.7013e-18 0)
(2.35949e-19 7.08263e-18 0)
(5.35702e-20 7.11699e-18 0)
(-7.54806e-19 7.40405e-18 0)
(-1.41484e-18 6.14086e-18 0)
(-1.48423e-18 5.47835e-18 0)
(-1.01146e-18 4.34091e-18 0)
(-2.29675e-18 3.23333e-18 0)
(-3.06528e-18 4.05374e-19 0)
(-4.71487e-11 -3.30428e-10 0)
(5.82817e-11 7.83828e-11 0)
(-1.3791e-11 -1.86358e-11 0)
(3.25291e-12 4.42423e-12 0)
(-7.72037e-13 -1.05488e-12 0)
(1.79736e-13 2.49561e-13 0)
(-4.383e-14 -6.01856e-14 0)
(9.33298e-15 1.38905e-14 0)
(-2.85285e-15 -3.58769e-15 0)
(2.08978e-16 6.77005e-16 0)
(-3.71588e-16 -2.82876e-16 0)
(-1.42524e-16 -1.71295e-17 0)
(-1.27714e-16 -5.71482e-17 0)
(-8.17308e-17 -3.1159e-17 0)
(-5.67185e-17 -2.57915e-17 0)
(-3.48698e-17 -1.88696e-17 0)
(-2.02442e-17 -1.39346e-17 0)
(-7.84981e-18 -1.06221e-17 0)
(2.23037e-18 -5.53951e-18 0)
(1.55984e-18 6.92397e-19 0)
)
;
    }
    frontAndBack
    {
        type            empty;
    }
}


// ************************************************************************* //
