/*--------------------------------*- C++ -*----------------------------------*\
| =========                 |                                                 |
| \\      /  F ield         | OpenFOAM: The Open Source CFD Toolbox           |
|  \\    /   O peration     | Version:  2506                                  |
|   \\  /    A nd           | Website:  www.openfoam.com                      |
|    \\/     M anipulation  |                                                 |
\*---------------------------------------------------------------------------*/
FoamFile
{
    version     2.0;
    format      ascii;
    arch        "LSB;label=32;scalar=64";
    class       volScalarField;
    location    "4";
    object      yPlus;
}
// * * * * * * * * * * * * * * * * * * * * * * * * * * * * * * * * * * * * * //

dimensions      [0 0 0 0 0 0 0];

internalField   uniform 0;

boundaryField
{
    movingWall
    {
        type            calculated;
        value           nonuniform List<scalar> 
20
(
0.00397281
0.00193934
0.000945013
0.000461192
0.000225139
0.000109827
5.37051e-05
2.62067e-05
1.2855e-05
6.24986e-06
3.11992e-06
1.46399e-06
9.17886e-07
7.88686e-07
6.67515e-07
6.24063e-07
5.84899e-07
3.89387e-07
4.58542e-07
3.66923e-07
)
;
    }
    fixedWalls
    {
        type            calculated;
        value           nonuniform List<scalar> 
60
(
0.00393566
0.00393513
0.00393318
0.00393214
0.00393143
0.00393164
0.00393258
0.00393439
0.00393689
0.00394002
0.00394361
0.00394753
0.0039516
0.00395567
0.00395957
0.00396316
0.00396633
0.00396891
0.00397103
0.00397281
2.40081e-07
1.20334e-07
1.42542e-07
2.45245e-07
2.36265e-07
2.69482e-07
3.27025e-07
3.7775e-07
4.71203e-07
5.35754e-07
5.67272e-07
6.00524e-07
6.39361e-07
6.66942e-07
6.55568e-07
6.22734e-07
5.88955e-07
5.22229e-07
4.50561e-07
3.66923e-07
0.00393566
0.00191675
0.000934035
0.000454825
0.000221774
0.000107868
5.2769e-05
2.55198e-05
1.28095e-05
6.41184e-06
4.35595e-06
3.36524e-06
2.82039e-06
2.33841e-06
1.93107e-06
1.5332e-06
1.18469e-06
8.00473e-07
4.37775e-07
2.40081e-07
)
;
    }
    frontAndBack
    {
        type            empty;
    }
}


// ************************************************************************* //
