/*--------------------------------*- C++ -*----------------------------------*\
| =========                 |                                                 |
| \\      /  F ield         | OpenFOAM: The Open Source CFD Toolbox           |
|  \\    /   O peration     | Version:  2506                                  |
|   \\  /    A nd           | Website:  www.openfoam.com                      |
|    \\/     M anipulation  |                                                 |
\*---------------------------------------------------------------------------*/
FoamFile
{
    version     2.0;
    format      ascii;
    arch        "LSB;label=32;scalar=64";
    class       volVectorField;
    location    "9.625";
    object      diffU;
}
// * * * * * * * * * * * * * * * * * * * * * * * * * * * * * * * * * * * * * //

dimensions      [0 1 -1 0 0 0 0];

internalField   nonuniform List<vector> 
400
(
(0 0 0)
(3.05311e-14 -2.13042e-13 0)
(2.28706e-14 -1.65561e-13 0)
(2.37588e-14 -1.7665e-13 0)
(2.36478e-14 -1.74252e-13 0)
(2.34257e-14 -1.74787e-13 0)
(2.34257e-14 -1.74667e-13 0)
(2.34257e-14 -1.74571e-13 0)
(2.32037e-14 -1.7453e-13 0)
(2.26485e-14 -1.747e-13 0)
(2.28706e-14 -1.74787e-13 0)
(2.28706e-14 -1.74767e-13 0)
(2.28706e-14 -1.74725e-13 0)
(2.28706e-14 -1.74775e-13 0)
(2.28706e-14 -1.74836e-13 0)
(2.30926e-14 -1.74874e-13 0)
(2.30926e-14 -1.74735e-13 0)
(2.26485e-14 -1.74736e-13 0)
(2.32037e-14 -1.74838e-13 0)
(2.30926e-14 -1.74823e-13 0)
(6.23945e-14 -1.63115e-13 0)
(1.17684e-14 -1.7726e-13 0)
(2.35367e-14 -1.73872e-13 0)
(2.24265e-14 -1.74806e-13 0)
(2.24265e-14 -1.74653e-13 0)
(2.26485e-14 -1.74734e-13 0)
(2.26485e-14 -1.74762e-13 0)
(2.26485e-14 -1.74638e-13 0)
(2.30926e-14 -1.74514e-13 0)
(2.28706e-14 -1.74643e-13 0)
(2.28706e-14 -1.74755e-13 0)
(2.28706e-14 -1.74805e-13 0)
(2.28706e-14 -1.74905e-13 0)
(2.26485e-14 -1.74976e-13 0)
(2.30926e-14 -1.75012e-13 0)
(2.33147e-14 -1.74877e-13 0)
(2.33147e-14 -1.74633e-13 0)
(2.32037e-14 -1.74687e-13 0)
(2.28706e-14 -1.74926e-13 0)
(2.30926e-14 -1.74852e-13 0)
(1.55431e-14 -3.37144e-13 0)
(2.56462e-14 -1.39149e-13 0)
(2.33147e-14 -1.83168e-13 0)
(2.33147e-14 -1.72927e-13 0)
(2.33147e-14 -1.75183e-13 0)
(2.34257e-14 -1.74687e-13 0)
(2.34257e-14 -1.74751e-13 0)
(2.33147e-14 -1.74698e-13 0)
(2.34257e-14 -1.74588e-13 0)
(2.36478e-14 -1.74586e-13 0)
(2.34257e-14 -1.74674e-13 0)
(2.38698e-14 -1.74775e-13 0)
(2.34257e-14 -1.74891e-13 0)
(2.33147e-14 -1.74956e-13 0)
(2.30926e-14 -1.74976e-13 0)
(2.28706e-14 -1.74826e-13 0)
(2.26485e-14 -1.74792e-13 0)
(2.30926e-14 -1.74799e-13 0)
(2.34257e-14 -1.74844e-13 0)
(2.30926e-14 -1.74818e-13 0)
(-1.55431e-15 -5.18785e-14 0)
(2.91989e-14 -2.01246e-13 0)
(2.19824e-14 -1.68512e-13 0)
(2.30926e-14 -1.76112e-13 0)
(2.24265e-14 -1.74482e-13 0)
(2.28706e-14 -1.74821e-13 0)
(2.28706e-14 -1.747e-13 0)
(2.26485e-14 -1.74786e-13 0)
(2.30926e-14 -1.74785e-13 0)
(2.32037e-14 -1.74758e-13 0)
(2.30926e-14 -1.74825e-13 0)
(2.35367e-14 -1.74807e-13 0)
(2.33147e-14 -1.74678e-13 0)
(2.33147e-14 -1.74649e-13 0)
(2.30926e-14 -1.7467e-13 0)
(2.30926e-14 -1.7475e-13 0)
(2.28706e-14 -1.74871e-13 0)
(2.26485e-14 -1.7495e-13 0)
(2.32037e-14 -1.749e-13 0)
(2.30926e-14 -1.74856e-13 0)
(5.07372e-14 -1.71424e-13 0)
(1.5099e-14 -1.758e-13 0)
(2.36478e-14 -1.74583e-13 0)
(2.32037e-14 -1.74873e-13 0)
(2.34257e-14 -1.74773e-13 0)
(2.34257e-14 -1.74795e-13 0)
(2.34257e-14 -1.74764e-13 0)
(2.33147e-14 -1.74846e-13 0)
(2.28706e-14 -1.74983e-13 0)
(2.30926e-14 -1.74877e-13 0)
(2.28706e-14 -1.74837e-13 0)
(2.26485e-14 -1.74878e-13 0)
(2.28706e-14 -1.74912e-13 0)
(2.28706e-14 -1.74882e-13 0)
(2.33147e-14 -1.74717e-13 0)
(2.36478e-14 -1.74634e-13 0)
(2.33147e-14 -1.74691e-13 0)
(2.33147e-14 -1.74881e-13 0)
(2.32037e-14 -1.74941e-13 0)
(2.30926e-14 -1.74845e-13 0)
(7.99361e-15 -2.97663e-13 0)
(2.86438e-14 -1.48038e-13 0)
(2.36478e-14 -1.81102e-13 0)
(2.38698e-14 -1.73521e-13 0)
(2.34257e-14 -1.75167e-13 0)
(2.35367e-14 -1.7464e-13 0)
(2.34257e-14 -1.74659e-13 0)
(2.36478e-14 -1.746e-13 0)
(2.35367e-14 -1.7464e-13 0)
(2.34257e-14 -1.74608e-13 0)
(2.33147e-14 -1.74618e-13 0)
(2.32037e-14 -1.74705e-13 0)
(2.32037e-14 -1.74865e-13 0)
(2.28706e-14 -1.75001e-13 0)
(2.26485e-14 -1.74937e-13 0)
(2.28706e-14 -1.74838e-13 0)
(2.32037e-14 -1.74856e-13 0)
(2.30926e-14 -1.74825e-13 0)
(2.32037e-14 -1.74773e-13 0)
(2.33147e-14 -1.74776e-13 0)
(2.95319e-14 -1.06199e-14 0)
(2.26485e-14 -2.09554e-13 0)
(2.35367e-14 -1.66374e-13 0)
(2.30926e-14 -1.76449e-13 0)
(2.28706e-14 -1.74289e-13 0)
(2.26485e-14 -1.74752e-13 0)
(2.28706e-14 -1.74783e-13 0)
(2.28706e-14 -1.74847e-13 0)
(2.28706e-14 -1.74723e-13 0)
(2.32037e-14 -1.74704e-13 0)
(2.35367e-14 -1.7463e-13 0)
(2.34257e-14 -1.74586e-13 0)
(2.34257e-14 -1.74641e-13 0)
(2.35367e-14 -1.74788e-13 0)
(2.33147e-14 -1.74895e-13 0)
(2.32037e-14 -1.74902e-13 0)
(2.34257e-14 -1.7488e-13 0)
(2.30926e-14 -1.74803e-13 0)
(2.30926e-14 -1.7475e-13 0)
(2.32037e-14 -1.74766e-13 0)
(2.67564e-14 -2.47596e-13 0)
(1.95399e-14 -1.58911e-13 0)
(2.13163e-14 -1.78237e-13 0)
(2.26485e-14 -1.73638e-13 0)
(2.24265e-14 -1.74711e-13 0)
(2.24265e-14 -1.74724e-13 0)
(2.24265e-14 -1.74816e-13 0)
(2.24265e-14 -1.74881e-13 0)
(2.24265e-14 -1.749e-13 0)
(2.26485e-14 -1.74896e-13 0)
(2.24265e-14 -1.74805e-13 0)
(2.26485e-14 -1.74762e-13 0)
(2.28706e-14 -1.74809e-13 0)
(2.30926e-14 -1.7473e-13 0)
(2.28706e-14 -1.74703e-13 0)
(2.26485e-14 -1.74735e-13 0)
(2.26485e-14 -1.74822e-13 0)
(2.26485e-14 -1.74854e-13 0)
(2.30926e-14 -1.74855e-13 0)
(2.30926e-14 -1.74812e-13 0)
(1.37668e-14 -2.43118e-13 0)
(2.68674e-14 -1.59821e-13 0)
(2.35367e-14 -1.78143e-13 0)
(2.28706e-14 -1.73867e-13 0)
(2.30926e-14 -1.74916e-13 0)
(2.28706e-14 -1.74814e-13 0)
(2.28706e-14 -1.74829e-13 0)
(2.28706e-14 -1.74766e-13 0)
(2.28706e-14 -1.74792e-13 0)
(2.26485e-14 -1.74849e-13 0)
(2.28706e-14 -1.74911e-13 0)
(2.28706e-14 -1.74909e-13 0)
(2.30926e-14 -1.74856e-13 0)
(2.26485e-14 -1.7476e-13 0)
(2.26485e-14 -1.74803e-13 0)
(2.30926e-14 -1.74874e-13 0)
(2.30926e-14 -1.74942e-13 0)
(2.32037e-14 -1.74944e-13 0)
(2.30926e-14 -1.74882e-13 0)
(2.33147e-14 -1.74841e-13 0)
(2.95319e-14 -4.79886e-15 0)
(2.10942e-14 -2.11463e-13 0)
(2.33147e-14 -1.66137e-13 0)
(2.34257e-14 -1.76554e-13 0)
(2.32037e-14 -1.74265e-13 0)
(2.34257e-14 -1.74732e-13 0)
(2.34257e-14 -1.74677e-13 0)
(2.34257e-14 -1.74652e-13 0)
(2.34257e-14 -1.74634e-13 0)
(2.34257e-14 -1.74822e-13 0)
(2.35367e-14 -1.74937e-13 0)
(2.33147e-14 -1.74944e-13 0)
(2.34257e-14 -1.74764e-13 0)
(2.33147e-14 -1.74679e-13 0)
(2.33147e-14 -1.7478e-13 0)
(2.30926e-14 -1.74907e-13 0)
(2.33147e-14 -1.74925e-13 0)
(2.30926e-14 -1.74908e-13 0)
(2.30926e-14 -1.74847e-13 0)
(2.30926e-14 -1.74861e-13 0)
(1.79856e-14 -3.61241e-13 0)
(2.32037e-14 -1.33839e-13 0)
(2.19824e-14 -1.84214e-13 0)
(2.26485e-14 -1.72534e-13 0)
(2.22045e-14 -1.75274e-13 0)
(2.22045e-14 -1.74834e-13 0)
(2.26485e-14 -1.74912e-13 0)
(2.26485e-14 -1.74799e-13 0)
(2.28706e-14 -1.74859e-13 0)
(2.30926e-14 -1.74969e-13 0)
(2.32037e-14 -1.74967e-13 0)
(2.32037e-14 -1.74874e-13 0)
(2.32037e-14 -1.74723e-13 0)
(2.28706e-14 -1.74678e-13 0)
(2.32037e-14 -1.74753e-13 0)
(2.33147e-14 -1.74885e-13 0)
(2.34257e-14 -1.74891e-13 0)
(2.30926e-14 -1.74841e-13 0)
(2.33147e-14 -1.74819e-13 0)
(2.33147e-14 -1.7484e-13 0)
(2.39808e-14 -5.84598e-14 0)
(2.59792e-14 -2.0011e-13 0)
(2.52021e-14 -1.68628e-13 0)
(2.38698e-14 -1.75938e-13 0)
(2.4647e-14 -1.7437e-13 0)
(2.42029e-14 -1.74714e-13 0)
(2.34257e-14 -1.7461e-13 0)
(2.32037e-14 -1.74763e-13 0)
(2.32037e-14 -1.75001e-13 0)
(2.32037e-14 -1.74956e-13 0)
(2.26485e-14 -1.74808e-13 0)
(2.26485e-14 -1.74742e-13 0)
(2.26485e-14 -1.74824e-13 0)
(2.26485e-14 -1.74952e-13 0)
(2.34257e-14 -1.74963e-13 0)
(2.32037e-14 -1.74855e-13 0)
(2.30926e-14 -1.74755e-13 0)
(2.28706e-14 -1.7477e-13 0)
(2.30926e-14 -1.74771e-13 0)
(2.32037e-14 -1.74738e-13 0)
(2.35367e-14 -1.67554e-13 0)
(1.9984e-14 -1.76149e-13 0)
(2.10942e-14 -1.74239e-13 0)
(2.26485e-14 -1.74852e-13 0)
(2.22045e-14 -1.74562e-13 0)
(2.22045e-14 -1.74398e-13 0)
(2.26485e-14 -1.74427e-13 0)
(2.28706e-14 -1.74527e-13 0)
(2.26485e-14 -1.74704e-13 0)
(2.24265e-14 -1.74679e-13 0)
(2.26485e-14 -1.74712e-13 0)
(2.24265e-14 -1.74807e-13 0)
(2.26485e-14 -1.74964e-13 0)
(2.28706e-14 -1.75064e-13 0)
(2.26485e-14 -1.75079e-13 0)
(2.26485e-14 -1.75011e-13 0)
(2.28706e-14 -1.74833e-13 0)
(2.30926e-14 -1.74718e-13 0)
(2.28706e-14 -1.74755e-13 0)
(2.28706e-14 -1.74847e-13 0)
(2.08722e-14 -3.08e-13 0)
(2.5091e-14 -1.45274e-13 0)
(2.40918e-14 -1.81292e-13 0)
(2.28706e-14 -1.73085e-13 0)
(2.26485e-14 -1.74966e-13 0)
(2.26485e-14 -1.74749e-13 0)
(2.24265e-14 -1.74928e-13 0)
(2.28706e-14 -1.7485e-13 0)
(2.33147e-14 -1.74772e-13 0)
(2.30926e-14 -1.74739e-13 0)
(2.33147e-14 -1.7479e-13 0)
(2.35367e-14 -1.74818e-13 0)
(2.33147e-14 -1.74871e-13 0)
(2.32037e-14 -1.74928e-13 0)
(2.33147e-14 -1.74947e-13 0)
(2.30926e-14 -1.74958e-13 0)
(2.24265e-14 -1.7499e-13 0)
(2.28706e-14 -1.74925e-13 0)
(2.30926e-14 -1.7488e-13 0)
(2.32037e-14 -1.74939e-13 0)
(7.99361e-15 2.01477e-14 0)
(2.55351e-14 -2.17345e-13 0)
(2.19824e-14 -1.64519e-13 0)
(2.28706e-14 -1.76646e-13 0)
(2.30926e-14 -1.73962e-13 0)
(2.32037e-14 -1.74749e-13 0)
(2.34257e-14 -1.74779e-13 0)
(2.32037e-14 -1.74979e-13 0)
(2.32037e-14 -1.74913e-13 0)
(2.32037e-14 -1.74911e-13 0)
(2.30926e-14 -1.74893e-13 0)
(2.34257e-14 -1.74864e-13 0)
(2.34257e-14 -1.7487e-13 0)
(2.33147e-14 -1.74882e-13 0)
(2.32037e-14 -1.74803e-13 0)
(2.30926e-14 -1.74693e-13 0)
(2.34257e-14 -1.74881e-13 0)
(2.32037e-14 -1.74978e-13 0)
(2.30926e-14 -1.74945e-13 0)
(2.32037e-14 -1.74828e-13 0)
(5.72875e-14 -2.88298e-13 0)
(1.39888e-14 -1.49877e-13 0)
(2.43139e-14 -1.80806e-13 0)
(2.26485e-14 -1.73491e-13 0)
(2.33147e-14 -1.75066e-13 0)
(2.33147e-14 -1.74752e-13 0)
(2.32037e-14 -1.74935e-13 0)
(2.35367e-14 -1.74941e-13 0)
(2.33147e-14 -1.74863e-13 0)
(2.32037e-14 -1.74848e-13 0)
(2.28706e-14 -1.74871e-13 0)
(2.30926e-14 -1.74859e-13 0)
(2.32037e-14 -1.74866e-13 0)
(2.32037e-14 -1.74843e-13 0)
(2.32037e-14 -1.74791e-13 0)
(2.32037e-14 -1.74715e-13 0)
(2.32037e-14 -1.74788e-13 0)
(2.30926e-14 -1.74844e-13 0)
(2.30926e-14 -1.7491e-13 0)
(2.30926e-14 -1.74824e-13 0)
(-1.19904e-14 -2.18622e-13 0)
(3.26406e-14 -1.64882e-13 0)
(2.22045e-14 -1.77027e-13 0)
(2.36478e-14 -1.74181e-13 0)
(2.28706e-14 -1.7495e-13 0)
(2.32037e-14 -1.74836e-13 0)
(2.30926e-14 -1.74858e-13 0)
(2.26485e-14 -1.74845e-13 0)
(2.28706e-14 -1.74862e-13 0)
(2.28706e-14 -1.74873e-13 0)
(2.26485e-14 -1.74885e-13 0)
(2.26485e-14 -1.74941e-13 0)
(2.28706e-14 -1.74983e-13 0)
(2.26485e-14 -1.74868e-13 0)
(2.24265e-14 -1.74754e-13 0)
(2.28706e-14 -1.74748e-13 0)
(2.28706e-14 -1.74754e-13 0)
(2.30926e-14 -1.74878e-13 0)
(2.30926e-14 -1.74945e-13 0)
(2.30926e-14 -1.74859e-13 0)
(1.68754e-14 -2.21305e-14 0)
(2.40918e-14 -2.08087e-13 0)
(2.24265e-14 -1.67e-13 0)
(2.33147e-14 -1.76524e-13 0)
(2.30926e-14 -1.74356e-13 0)
(2.33147e-14 -1.74757e-13 0)
(2.30926e-14 -1.74657e-13 0)
(2.32037e-14 -1.74818e-13 0)
(2.33147e-14 -1.74882e-13 0)
(2.32037e-14 -1.74825e-13 0)
(2.30926e-14 -1.74744e-13 0)
(2.32037e-14 -1.74779e-13 0)
(2.30926e-14 -1.74766e-13 0)
(2.26485e-14 -1.74792e-13 0)
(2.26485e-14 -1.74955e-13 0)
(2.28706e-14 -1.75084e-13 0)
(2.28706e-14 -1.74925e-13 0)
(2.32037e-14 -1.74862e-13 0)
(2.32037e-14 -1.74834e-13 0)
(2.30926e-14 -1.74795e-13 0)
(5.85088e-14 -2.32512e-13 0)
(1.39888e-14 -1.62962e-13 0)
(2.40918e-14 -1.77908e-13 0)
(2.24265e-14 -1.74309e-13 0)
(2.26485e-14 -1.74917e-13 0)
(2.26485e-14 -1.74783e-13 0)
(2.28706e-14 -1.74839e-13 0)
(2.30926e-14 -1.74871e-13 0)
(2.28706e-14 -1.74941e-13 0)
(2.28706e-14 -1.74891e-13 0)
(2.30926e-14 -1.74788e-13 0)
(2.32037e-14 -1.74691e-13 0)
(2.30926e-14 -1.74633e-13 0)
(2.34257e-14 -1.74736e-13 0)
(2.33147e-14 -1.74893e-13 0)
(2.32037e-14 -1.75033e-13 0)
(2.30926e-14 -1.74989e-13 0)
(2.30926e-14 -1.74884e-13 0)
(2.30926e-14 -1.74778e-13 0)
(2.30926e-14 -1.74805e-13 0)
(9.10383e-15 -2.76775e-13 0)
(2.79776e-14 -1.53113e-13 0)
(2.38698e-14 -1.79939e-13 0)
(2.37588e-14 -1.73669e-13 0)
(2.39808e-14 -1.75029e-13 0)
(2.39808e-14 -1.74812e-13 0)
(2.37588e-14 -1.74861e-13 0)
(2.36478e-14 -1.74815e-13 0)
(2.37588e-14 -1.74901e-13 0)
(2.34257e-14 -1.74939e-13 0)
(2.33147e-14 -1.74925e-13 0)
(2.34257e-14 -1.7487e-13 0)
(2.35367e-14 -1.74849e-13 0)
(2.33147e-14 -1.74838e-13 0)
(2.34257e-14 -1.74751e-13 0)
(2.32037e-14 -1.74759e-13 0)
(2.32037e-14 -1.74822e-13 0)
(2.30926e-14 -1.74835e-13 0)
(2.30926e-14 -1.74802e-13 0)
(2.32037e-14 -1.7482e-13 0)
)
;

boundaryField
{
    movingWall
    {
        type            calculated;
        value           uniform (2.30926e-14 -1.74778e-13 0);
    }
    fixedWalls
    {
        type            calculated;
        value           uniform (2.30926e-14 -1.74778e-13 0);
    }
    frontAndBack
    {
        type            empty;
    }
}


// ************************************************************************* //
