/*--------------------------------*- C++ -*----------------------------------*\
| =========                 |                                                 |
| \\      /  F ield         | OpenFOAM: The Open Source CFD Toolbox           |
|  \\    /   O peration     | Version:  2506                                  |
|   \\  /    A nd           | Website:  www.openfoam.com                      |
|    \\/     M anipulation  |                                                 |
\*---------------------------------------------------------------------------*/
FoamFile
{
    version     2.0;
    format      ascii;
    arch        "LSB;label=32;scalar=64";
    class       volScalarField;
    location    "9.625";
    object      divU;
}
// * * * * * * * * * * * * * * * * * * * * * * * * * * * * * * * * * * * * * //

dimensions      [0 0 -1 0 0 0 0];

internalField   nonuniform List<scalar> 
400
(
1.71033e-11
-1.79792e-12
3.34568e-13
-1.08792e-13
1.08723e-14
-2.36717e-14
1.26256e-14
3.46161e-14
-5.72701e-14
-5.8579e-15
2.84001e-14
-1.68963e-15
-7.54993e-15
-1.96284e-14
-2.93078e-14
3.46023e-14
-3.55199e-14
1.32276e-14
3.33606e-14
0
-3.08998e-11
3.47724e-12
-6.94264e-13
2.90661e-13
-2.80082e-14
1.34306e-14
4.24227e-15
2.18368e-14
4.53327e-14
-4.87122e-14
1.2651e-14
-2.5194e-15
-2.4138e-14
-1.05931e-14
6.50983e-14
3.93983e-14
-4.12374e-14
-2.01358e-14
5.62064e-15
0
1.06252e-11
-1.6047e-12
3.0256e-13
-1.3807e-13
1.6137e-14
4.68803e-15
1.03563e-14
-2.0065e-14
-8.8558e-15
-6.05942e-15
3.27153e-14
-2.69425e-15
-2.8488e-14
-5.02259e-15
1.7998e-14
-5.62949e-14
1.62463e-14
8.90404e-14
-1.89019e-14
-2.71051e-14
1.46909e-11
-1.28542e-12
2.66523e-13
-1.70079e-13
2.87551e-15
2.09697e-14
9.05104e-15
-7.74299e-15
5.82063e-15
-8.03942e-15
1.64321e-14
-1.29621e-14
-3.44604e-15
-2.46901e-14
-1.03487e-14
1.70953e-14
-5.49339e-14
-4.96665e-16
5.27667e-14
-2.71051e-14
-2.26327e-11
2.57167e-12
-4.50406e-13
2.51582e-13
-6.55555e-14
1.20114e-14
1.32064e-14
-4.32795e-14
2.02717e-14
7.01367e-15
-4.42029e-14
-2.98591e-14
4.91132e-15
2.1465e-14
4.42629e-14
-1.87981e-14
-2.62751e-14
1.19875e-14
-1.58652e-14
0
1.50975e-11
-1.77948e-12
3.43454e-13
-1.77039e-13
9.91615e-15
-1.07596e-14
3.8441e-14
3.79449e-14
-7.9202e-15
-2.77032e-15
3.06998e-14
-6.5442e-16
4.84812e-15
-7.76271e-14
-5.93458e-16
3.56935e-14
8.99161e-15
-7.28416e-15
8.44894e-14
-5.42101e-14
5.61075e-12
-1.67414e-12
3.31777e-13
-5.32275e-14
-2.58114e-14
-1.91294e-14
2.27519e-14
-1.73156e-14
2.03337e-14
2.25698e-14
-1.50878e-14
-6.44275e-15
3.75717e-14
3.62434e-15
2.28295e-14
1.88881e-14
-1.46848e-14
-3.72677e-14
2.21009e-14
-2.71051e-14
-2.3229e-11
4.41045e-12
-8.45132e-13
3.94712e-13
-1.15608e-13
1.78086e-15
-8.98331e-15
1.79465e-14
4.06132e-14
-1.90321e-14
-1.61082e-14
-1.16026e-14
4.31892e-14
-4.77204e-14
-2.21656e-14
-5.3702e-15
6.25285e-15
2.8023e-15
3.60922e-14
0
2.37169e-11
-4.26003e-12
7.98614e-13
-3.84781e-13
3.73858e-14
8.97908e-16
4.90135e-15
1.37097e-14
1.30067e-14
1.55721e-14
2.49315e-14
2.44442e-14
-6.0682e-14
-1.54456e-14
2.4292e-14
3.16302e-14
-4.106e-15
-2.53886e-15
3.69083e-14
-5.42101e-14
-1.13841e-11
1.97027e-12
-3.50592e-13
1.27951e-13
-2.54831e-14
-1.11301e-15
-3.35847e-15
-1.67178e-14
6.23548e-15
-2.34965e-14
-7.77931e-15
8.01389e-16
6.85702e-15
1.98759e-14
-2.49401e-14
3.42799e-15
1.02403e-15
-1.93846e-14
1.60313e-14
0
-5.85469e-12
1.53349e-12
-3.55806e-13
1.08303e-13
-6.3144e-14
5.49088e-14
5.75365e-14
-7.00879e-16
5.08404e-14
-9.81898e-15
3.21844e-14
2.10168e-14
-2.62547e-14
-3.45338e-14
3.81344e-14
8.61577e-15
1.80402e-14
-5.64615e-15
2.35476e-14
-2.71051e-14
1.97596e-11
-4.10696e-12
7.77224e-13
-3.13172e-13
1.16502e-13
-9.124e-14
-2.95599e-14
-6.372e-16
1.21853e-14
-6.22049e-14
3.43065e-15
6.46862e-16
-2.32796e-14
3.52774e-14
3.26401e-14
-3.1081e-14
-3.03659e-14
6.65406e-15
2.99866e-14
-2.71051e-14
-2.52348e-11
5.27976e-12
-1.05832e-12
4.329e-13
-1.05681e-13
4.07809e-14
1.99487e-14
1.78287e-14
7.90623e-15
-4.0557e-14
5.27287e-15
4.72958e-14
2.61536e-14
-1.65168e-14
7.08653e-15
1.28552e-14
-2.67435e-14
-8.79949e-15
-7.98621e-15
2.71051e-14
1.87838e-11
-3.82724e-12
7.53863e-13
-3.42879e-13
6.27432e-14
-4.85412e-14
-4.23475e-14
2.69e-14
1.40317e-14
-3.66675e-14
1.42733e-14
-1.25963e-14
-1.86767e-14
2.88049e-14
3.47197e-14
-6.38158e-14
-4.42085e-15
4.65375e-14
1.31596e-16
-2.71051e-14
6.50521e-13
9.70885e-13
-2.27514e-13
5.02309e-14
5.27249e-14
5.95814e-14
1.11494e-14
-3.64195e-14
-2.21821e-14
-2.04444e-14
6.14281e-15
-1.66993e-14
8.92561e-15
-1.69801e-14
2.32033e-14
1.46604e-14
4.28177e-14
-5.38446e-14
2.42874e-14
0
-2.13588e-11
1.93461e-12
-3.94054e-13
1.07038e-13
8.12074e-15
-3.32726e-15
3.31867e-15
4.03337e-15
-1.70311e-14
-1.65762e-14
6.95317e-15
2.6247e-15
2.47548e-14
1.14691e-14
9.59855e-16
-1.79226e-14
-2.58257e-14
1.03917e-14
-2.84442e-15
0
2.40422e-11
-2.36848e-12
4.71499e-13
-1.96346e-13
2.49139e-14
-3.80575e-15
-2.30524e-14
1.63518e-14
8.2352e-15
1.27979e-14
-7.37782e-15
1.05754e-14
7.69063e-15
1.65837e-14
-1.53643e-14
-5.38278e-16
4.17982e-14
8.62686e-15
4.71807e-15
0
-1.92446e-12
7.78001e-13
-1.85856e-13
6.19276e-14
1.05576e-15
1.53313e-15
5.89526e-15
-1.33032e-14
2.74201e-14
-1.61387e-14
-2.47047e-14
3.55862e-14
-1.1468e-14
-2.43893e-14
-2.19747e-15
-1.95366e-15
1.8263e-14
3.50805e-14
-5.69747e-15
0
-2.28225e-11
2.0741e-12
-4.49761e-13
1.57733e-13
-6.61957e-14
-3.9466e-15
6.67684e-14
-6.72168e-14
-1.59628e-15
-3.45372e-16
3.84178e-14
2.65309e-14
-1.98022e-14
2.51998e-14
-8.91031e-15
3.36019e-15
1.47865e-15
1.06455e-14
-2.50105e-15
0
1.50704e-11
-1.92446e-12
4.60786e-13
-1.6263e-13
5.42101e-14
-2.71051e-14
0
0
-2.71051e-14
0
2.71051e-14
0
0
0
0
0
0
2.71051e-14
2.71051e-14
-2.71051e-14
)
;

boundaryField
{
    movingWall
    {
        type            extrapolatedCalculated;
        value           nonuniform List<scalar> 
20
(
1.50704e-11
-1.92446e-12
4.60786e-13
-1.6263e-13
5.42101e-14
-2.71051e-14
0
0
-2.71051e-14
0
2.71051e-14
0
0
0
0
0
0
2.71051e-14
2.71051e-14
-2.71051e-14
)
;
    }
    fixedWalls
    {
        type            extrapolatedCalculated;
        value           nonuniform List<scalar> 
60
(
1.71033e-11
-3.08998e-11
1.06252e-11
1.46909e-11
-2.26327e-11
1.50975e-11
5.61075e-12
-2.3229e-11
2.37169e-11
-1.13841e-11
-5.85469e-12
1.97596e-11
-2.52348e-11
1.87838e-11
6.50521e-13
-2.13588e-11
2.40422e-11
-1.92446e-12
-2.28225e-11
1.50704e-11
0
0
-2.71051e-14
-2.71051e-14
0
-5.42101e-14
-2.71051e-14
0
-5.42101e-14
0
-2.71051e-14
-2.71051e-14
2.71051e-14
-2.71051e-14
0
0
0
0
0
-2.71051e-14
1.71033e-11
-1.79792e-12
3.34568e-13
-1.08792e-13
1.08723e-14
-2.36717e-14
1.26256e-14
3.46161e-14
-5.72701e-14
-5.8579e-15
2.84001e-14
-1.68963e-15
-7.54993e-15
-1.96284e-14
-2.93078e-14
3.46023e-14
-3.55199e-14
1.32276e-14
3.33606e-14
0
)
;
    }
    frontAndBack
    {
        type            empty;
    }
}


// ************************************************************************* //
