/*--------------------------------*- C++ -*----------------------------------*\
| =========                 |                                                 |
| \\      /  F ield         | OpenFOAM: The Open Source CFD Toolbox           |
|  \\    /   O peration     | Version:  2506                                  |
|   \\  /    A nd           | Website:  www.openfoam.com                      |
|    \\/     M anipulation  |                                                 |
\*---------------------------------------------------------------------------*/
FoamFile
{
    version     2.0;
    format      ascii;
    arch        "LSB;label=32;scalar=64";
    class       volScalarField;
    location    "9.625";
    object      enstrophyField;
}
// * * * * * * * * * * * * * * * * * * * * * * * * * * * * * * * * * * * * * //

dimensions      [0 0 -2 0 0 0 0];

internalField   nonuniform List<scalar> 
400
(
7.23003e-23
1.29966e-22
6.5235e-24
4.01572e-25
1.26794e-26
8.63416e-28
2.33697e-28
9.42406e-29
8.01038e-28
1.54457e-27
1.12766e-27
1.82481e-27
1.42453e-27
9.30806e-28
4.83417e-29
1.45005e-28
8.89048e-29
9.64887e-28
3.78495e-29
5.60832e-29
1.9659e-25
1.72766e-25
2.38412e-26
2.8379e-28
1.88503e-27
5.94236e-29
4.57296e-29
3.12096e-27
1.00396e-31
8.78345e-27
2.47998e-27
7.62206e-27
4.8433e-27
2.10628e-27
4.85444e-29
2.1143e-27
1.06583e-27
6.11329e-27
9.50053e-28
2.4679e-28
1.95301e-23
9.29673e-23
5.2563e-24
2.57177e-25
1.54881e-26
9.31055e-28
3.99378e-28
1.32758e-28
6.28798e-29
6.36058e-28
2.67295e-27
5.31041e-27
1.02055e-27
1.96564e-27
8.49295e-29
2.63408e-27
3.53063e-27
2.89688e-27
4.2175e-28
5.74772e-29
1.85581e-23
5.62461e-23
3.09091e-24
1.62409e-25
8.3235e-27
2.38225e-28
4.68617e-28
3.52949e-29
4.46898e-28
2.65138e-28
1.21898e-27
1.12912e-26
2.44687e-27
1.51117e-27
6.91928e-28
8.26177e-27
5.13352e-27
1.62763e-27
6.65627e-28
2.02341e-28
2.56061e-25
4.16983e-26
2.44566e-27
5.02967e-27
5.06063e-27
3.23344e-27
1.75984e-27
1.23967e-26
4.55804e-28
7.70816e-29
3.89863e-33
1.08989e-27
6.77302e-32
2.71193e-27
1.3458e-27
3.49408e-30
1.34115e-27
1.35642e-27
6.60039e-30
8.34818e-30
2.79254e-23
5.96699e-23
3.24693e-24
1.76161e-25
3.59182e-27
8.72175e-27
1.69631e-27
4.20469e-28
3.43761e-31
2.31507e-30
2.04093e-27
8.85768e-27
3.514e-27
3.9166e-27
2.48418e-27
1.94337e-27
3.33949e-28
6.26222e-28
5.13916e-28
3.84457e-28
6.09495e-23
1.07367e-22
6.31699e-24
2.15203e-25
3.86811e-26
5.11241e-28
2.57572e-27
1.00083e-26
7.53308e-27
6.93646e-27
7.22588e-27
1.40647e-27
5.7683e-28
1.3761e-27
2.15078e-27
1.5491e-27
2.05962e-27
2.25879e-27
6.59779e-30
2.70325e-28
8.49986e-24
2.1139e-23
1.08447e-24
7.21165e-26
9.19673e-27
5.53137e-29
1.24026e-28
3.50559e-29
1.19161e-30
6.67236e-28
8.20425e-28
3.27543e-27
5.14105e-30
7.08459e-27
1.44426e-27
7.03374e-29
8.94363e-28
5.51835e-30
9.02636e-30
6.2033e-29
1.5733e-23
2.00656e-23
1.27094e-24
2.91184e-26
1.1084e-26
2.63482e-27
2.9265e-27
3.00743e-27
4.01811e-27
4.34795e-27
6.54289e-27
2.87662e-27
7.73206e-28
1.19384e-27
2.152e-27
2.3216e-27
3.90118e-27
2.83193e-27
5.30937e-29
1.39922e-28
8.31482e-23
1.24099e-22
6.5755e-24
3.30335e-25
3.47207e-26
8.45361e-29
3.20124e-29
9.44224e-30
1.43022e-28
3.57509e-27
7.74809e-28
4.76616e-29
3.52175e-28
1.42353e-30
1.24748e-27
8.6412e-28
3.6865e-28
6.11026e-28
2.51071e-28
1.15761e-28
9.77663e-23
1.48176e-22
8.12923e-24
3.52606e-25
6.67865e-26
1.01648e-27
6.12057e-30
1.76765e-27
1.44007e-28
1.33396e-28
6.94705e-27
5.58781e-27
8.19971e-27
3.06626e-27
1.14306e-27
8.35749e-28
9.42064e-30
2.55935e-29
1.31207e-32
5.39131e-29
3.63745e-23
5.74452e-23
3.05406e-24
1.6486e-25
7.48432e-27
2.87198e-28
1.19967e-29
4.34868e-27
6.11028e-28
5.05369e-27
1.17554e-27
3.27206e-28
1.87553e-29
9.69016e-29
2.03892e-27
8.34761e-27
1.96643e-27
1.38144e-27
4.59217e-28
2.54524e-28
4.14467e-25
1.41997e-25
2.8351e-26
5.32783e-27
2.76386e-26
1.54985e-26
7.51614e-27
3.53369e-28
1.15678e-28
3.78284e-31
7.93862e-28
1.36721e-27
5.72657e-27
4.30492e-27
1.40925e-29
3.03182e-28
6.11041e-27
3.03382e-29
8.34112e-29
1.11519e-29
3.89573e-23
7.32245e-23
4.09658e-24
1.83298e-25
3.06923e-26
3.00587e-27
4.17226e-27
7.46024e-28
2.46966e-27
1.56653e-27
3.97309e-27
1.03202e-26
2.1264e-27
6.01976e-28
1.6389e-27
1.70847e-27
2.82798e-28
9.34947e-28
9.91023e-31
2.57913e-31
6.73225e-23
1.50605e-22
8.28206e-24
4.45782e-25
5.87704e-27
1.80853e-26
8.62852e-27
2.28651e-27
2.07922e-28
3.15001e-28
5.08723e-28
4.32262e-28
1.63008e-30
2.06569e-28
1.05555e-27
3.03504e-29
9.37286e-27
2.05786e-29
1.12644e-28
1.19402e-27
2.36898e-23
5.01738e-23
2.91751e-24
1.35062e-25
4.90701e-27
8.5608e-29
6.25349e-28
1.88484e-27
2.01437e-27
3.46363e-28
3.22147e-27
5.93018e-27
1.55319e-27
6.71857e-27
4.42873e-27
4.513e-32
8.53051e-28
7.33854e-29
2.06868e-30
1.59419e-28
2.07207e-25
4.98213e-24
2.73905e-25
7.98673e-27
2.14578e-27
6.59683e-28
4.04572e-31
1.44603e-27
3.82755e-30
2.72715e-30
5.76707e-28
4.79077e-29
1.89295e-27
1.25109e-27
7.65366e-28
1.4704e-27
8.49523e-28
1.82671e-28
1.73021e-30
3.10316e-28
1.19388e-23
7.99331e-23
4.40002e-24
1.80046e-25
2.66678e-26
4.42288e-30
1.15979e-27
2.94148e-27
3.09757e-31
9.55995e-29
1.22887e-27
3.49141e-27
1.54132e-27
5.0182e-27
6.10034e-27
1.31465e-27
5.1374e-28
4.17592e-29
2.22604e-29
2.75288e-29
7.24215e-24
1.30458e-23
8.06719e-25
2.99848e-26
1.21391e-26
1.07631e-27
6.86892e-27
2.074e-27
1.58251e-27
6.89402e-29
2.53449e-29
6.75157e-29
1.72074e-27
3.22268e-27
3.52364e-27
6.72822e-28
7.47451e-29
2.22833e-28
3.11465e-29
2.94349e-28
1.73574e-23
4.27801e-23
1.74077e-24
1.20562e-25
1.80454e-27
2.51626e-27
1.45467e-27
1.26255e-27
8.74238e-28
3.03843e-28
5.77863e-28
1.91089e-27
1.64354e-27
2.05247e-27
1.92873e-27
1.99339e-28
1.90358e-28
2.02923e-30
1.19847e-30
5.70642e-28
)
;

boundaryField
{
    movingWall
    {
        type            calculated;
        value           nonuniform List<scalar> 
20
(
9.28715e-23
6.77163e-23
1.52209e-24
2.86901e-25
2.90371e-26
6.91926e-26
3.54263e-26
2.37805e-26
3.22728e-26
8.55079e-27
4.58008e-27
9.91756e-27
1.63368e-26
4.86863e-27
9.95816e-27
6.94556e-28
6.77701e-28
2.02923e-30
1.19847e-30
1.30493e-27
)
;
    }
    fixedWalls
    {
        type            calculated;
        value           nonuniform List<scalar> 
60
(
2.3314e-21
4.86712e-24
1.71244e-21
1.04008e-21
7.70632e-26
1.10511e-21
2.03303e-21
3.79644e-22
3.81082e-22
2.28203e-21
2.73921e-21
1.05606e-21
5.16661e-24
1.33872e-21
2.76307e-21
9.43055e-22
9.11128e-23
1.45862e-21
2.48817e-22
7.47203e-22
1.65595e-28
4.39072e-28
1.30932e-28
4.98141e-28
5.13443e-32
3.8563e-28
2.54451e-28
9.34488e-29
3.20694e-28
5.52612e-28
3.08995e-28
6.47502e-29
3.91172e-28
7.00046e-28
1.11798e-27
1.73031e-28
5.33774e-28
2.52686e-29
1.27292e-28
9.69354e-28
2.61939e-22
1.9074e-22
6.94894e-24
6.44715e-25
6.37064e-28
1.52744e-26
6.22811e-27
7.13988e-27
1.64335e-27
1.15369e-26
3.37003e-27
4.51438e-27
3.87063e-27
3.02285e-27
3.11932e-27
5.07565e-29
9.48137e-29
1.40038e-26
1.41031e-27
5.60832e-29
)
;
    }
    frontAndBack
    {
        type            empty;
    }
}


// ************************************************************************* //
