/*--------------------------------*- C++ -*----------------------------------*\
| =========                 |                                                 |
| \\      /  F ield         | OpenFOAM: The Open Source CFD Toolbox           |
|  \\    /   O peration     | Version:  2506                                  |
|   \\  /    A nd           | Website:  www.openfoam.com                      |
|    \\/     M anipulation  |                                                 |
\*---------------------------------------------------------------------------*/
FoamFile
{
    version     2.0;
    format      ascii;
    arch        "LSB;label=32;scalar=64";
    class       volScalarField;
    location    "9.625";
    object      flowTypeField;
}
// * * * * * * * * * * * * * * * * * * * * * * * * * * * * * * * * * * * * * //

dimensions      [0 0 0 0 0 0 0];

internalField   nonuniform List<scalar> 
400
(
0.435116
0.0612703
0.0572445
-0.00272699
0.210948
0.152317
0.125703
0.562456
0.614943
0.355259
0.202776
-0.11233
0.0242909
0.240578
0.60851
0.671685
0.733963
0.206415
0.797061
0.292969
0.974133
0.905915
0.860323
0.915441
0.441103
0.230416
0.216283
-0.20771
0.970743
-0.0701395
-0.258016
-0.137845
-0.178717
-0.123646
0.835475
-0.230473
-0.0705393
-0.255723
-0.591648
0.000249366
0.596784
0.124856
0.0537494
0.11239
0.00462499
0.0194097
-0.0159874
0.231222
0.649192
-0.17716
-0.157225
-0.265072
0.295296
0.0914601
0.645594
0.251332
0.0540659
0.403272
0.221793
0.559968
0.632088
0.142933
0.0834609
0.0903028
0.0631961
0.355536
-0.124718
0.436809
0.526488
0.46504
0.197756
-0.104737
-0.285413
0.0945551
0.195694
-0.162711
-0.0105185
-0.0395006
0.368324
0.00824561
0.959763
0.933902
0.93596
0.573197
0.199966
0.03399
-0.0896965
-0.0599646
0.0212657
0.56784
0.980961
0.224224
0.955565
0.13958
0.396779
0.600269
-0.145288
-0.481221
0.817341
0.862308
0.54856
0.104244
0.0617932
0.033824
0.304416
-0.452024
0.0402943
0.221267
0.944523
0.883567
-0.0894167
-0.136609
-0.168368
0.215269
-0.0837302
0.216347
0.35206
0.107845
0.443187
0.487658
0.197053
0.0619648
-0.0692173
0.172785
-0.312393
0.602826
0.168156
-0.0212969
0.0161729
0.0556364
-0.0903659
0.0266888
0.419698
0.0158555
-0.0944148
-0.00830944
-0.0437927
-0.0862521
0.808193
0.354193
0.781801
0.222258
0.212837
0.160644
0.0253339
0.123753
0.038193
0.244618
0.943899
-0.14548
0.0185989
0.110001
0.910186
0.021666
0.115987
0.0257619
0.221057
0.832459
0.882912
0.15092
0.721778
0.228127
0.15422
0.417743
-0.328488
0.106395
0.0711593
0.0791782
0.0053593
-0.13993
-0.0151466
0.218299
0.44457
0.183884
-0.0565694
0.136765
-0.076151
0.0756759
0.571765
0.423948
0.253472
0.0362666
-0.0205116
0.0130791
-0.398802
0.75045
0.261185
0.168956
0.0668055
-0.48
-0.391192
0.62534
0.0993771
0.677372
-0.118628
-0.517581
0.0151887
0.126445
0.186378
2.80378e-05
0.0954098
0.029745
-0.0393532
0.0642953
-0.496359
0.509842
0.897715
-0.071665
0.757326
0.433084
-0.0449195
-0.246003
-0.136773
0.0836737
0.25564
-0.446383
0.665796
0.698415
0.957969
0.756445
0.546073
0.0885338
0.0567838
0.0777003
0.179116
0.78369
0.920065
-0.244383
0.369081
0.152408
0.0428974
0.0802913
0.794544
0.795971
0.218415
-0.140047
-0.0200808
0.0528104
0.202793
0.368519
0.949667
0.871986
0.767744
0.642714
-0.121873
-0.0238691
0.169725
0.542045
0.538597
0.962826
-0.451999
0.191699
-0.221993
-0.0750066
0.0349333
0.314061
-0.280769
0.475599
0.208099
0.876623
0.534477
0.0891731
0.0309058
0.102081
-0.345343
0.11826
-0.0245511
0.58363
0.193293
0.0494851
-0.013488
-0.0587866
-0.0472636
-0.03479
0.0579627
0.479367
0.131073
0.516643
0.914797
0.958078
0.245638
0.0631162
0.00227823
0.00458545
0.443059
-0.399676
-0.210234
-0.0804983
0.272369
0.131691
0.175938
-0.0697387
0.0256157
0.433615
-0.315962
0.617164
-0.189308
0.833582
0.456177
-0.0747675
0.676261
0.181073
0.13276
0.176977
0.443259
0.150178
0.348105
-0.0945318
-0.0317621
0.283619
0.0128161
-0.00187679
0.0913067
-0.0686253
-0.153622
0.787157
0.311616
0.203084
6.44296e-05
0.014288
0.967108
0.549796
0.556685
0.619116
0.367051
-0.331133
0.963693
0.0317587
0.129136
0.211616
0.157917
0.196063
-0.111993
-0.69678
-0.169516
0.215272
0.427249
0.00407676
0.636613
0.00638479
0.592493
0.127944
0.0609684
0.188328
-0.305192
0.881381
0.110586
-0.406914
0.929091
0.481593
0.179505
0.0178024
0.307737
-0.138545
-0.326189
0.215045
0.553296
0.60593
0.724617
0.164855
0.811595
0.359484
0.307658
0.3981
-0.158425
0.146031
0.137725
0.155603
-0.0366389
0.574653
0.846702
0.656369
-0.06772
-0.248933
-0.216194
0.254992
0.554693
0.00761939
0.065365
0.105408
0.616123
0.102099
0.162339
0.0468043
0.499563
-0.134963
0.12618
0.0954827
0.442689
0.424426
-0.0590965
-0.138507
-0.0470141
-0.17866
-0.126554
0.500496
0.518978
0.796838
0.891281
0.135072
)
;

boundaryField
{
    movingWall
    {
        type            calculated;
        value           nonuniform List<scalar> 
20
(
0.618189
0.113953
0.370173
-0.0641452
0.341854
-0.043019
0.013713
0.0199078
0.0785608
0.123561
0.0998954
-0.0174305
-0.00436801
-0.0673511
-0.0553806
0.267801
0.302464
0.849571
0.89689
0.0699058
)
;
    }
    fixedWalls
    {
        type            calculated;
        value           nonuniform List<scalar> 
60
(
0.0622632
0.888735
0.111481
0.13089
0.97961
0.0938985
0.0323405
0.240762
0.229331
0.0215163
0.0105328
0.0848932
0.833408
0.081561
0.0495877
0.170776
0.55891
0.116279
0.36205
0.119598
0.149461
0.000141284
0.000425741
0.00342484
0.963829
0.639562
0.507516
0.11138
0.664227
6.01857e-06
0.671134
0.727833
0.644109
0.491504
0.157551
0.0132137
0.00375653
0.174519
0.402569
0.185384
0.624405
0.137428
0.262342
0.0375692
0.867181
-0.273047
0.197671
0.221397
0.568169
0.163515
0.112488
-0.0680121
0.0349234
0.123618
0.135785
0.796638
0.70052
0.0614919
0.261472
0.432773
)
;
    }
    frontAndBack
    {
        type            empty;
    }
}


// ************************************************************************* //
