/*--------------------------------*- C++ -*----------------------------------*\
| =========                 |                                                 |
| \\      /  F ield         | OpenFOAM: The Open Source CFD Toolbox           |
|  \\    /   O peration     | Version:  2506                                  |
|   \\  /    A nd           | Website:  www.openfoam.com                      |
|    \\/     M anipulation  |                                                 |
\*---------------------------------------------------------------------------*/
FoamFile
{
    version     2.0;
    format      ascii;
    arch        "LSB;label=32;scalar=64";
    class       surfaceScalarField;
    location    "9.625";
    object      fluxField;
}
// * * * * * * * * * * * * * * * * * * * * * * * * * * * * * * * * * * * * * //

dimensions      [0 3 -1 0 0 0 0];

oriented        oriented;

internalField   nonuniform List<scalar> 
760
(
-5e-05
4.661e-18
-5e-05
-1.01869e-18
-5e-05
2.53049e-19
-5e-05
-4.75267e-20
-5e-05
1.62706e-20
-5e-05
8.58346e-22
-5e-05
3.15639e-21
-5e-05
8.65403e-21
-5e-05
1.27875e-20
-5e-05
5.31179e-21
-5e-05
3.2376e-22
-5e-05
-4.22409e-22
-5e-05
-1.88748e-21
-5e-05
-4.9071e-21
-5e-05
-7.32696e-21
-5e-05
-4.90195e-21
-5e-05
4.67254e-21
-5e-05
3.30691e-21
-5e-05
-5.21237e-21
-2.98951e-21
-5e-05
-3.76759e-18
-5e-05
8.28653e-19
-5e-05
-1.87119e-19
-5e-05
4.55601e-20
-5e-05
-7.00205e-21
-5e-05
3.35765e-21
-5e-05
1.06057e-21
-5e-05
5.45919e-21
-5e-05
1.13332e-20
-5e-05
8.15074e-21
-5e-05
3.16276e-21
-5e-05
-6.29849e-22
-5e-05
-6.0345e-21
-5e-05
-9.42454e-21
-5e-05
-1.08305e-20
-5e-05
-3.70295e-21
-5e-05
3.24317e-21
-5e-05
1.74231e-21
-5e-05
-5.3711e-21
-2.86348e-21
-5e-05
-9.86678e-19
-5e-05
2.29018e-19
-5e-05
-5.3109e-20
-5e-05
1.29164e-20
-5e-05
-2.74202e-21
-5e-05
1.17201e-21
-5e-05
2.58909e-21
-5e-05
1.76001e-21
-5e-05
4.56231e-21
-5e-05
5.26141e-21
-5e-05
1.40256e-21
-5e-05
-6.73562e-22
-5e-05
-3.45729e-22
-5e-05
-1.25565e-21
-5e-05
-2.27676e-21
-5e-05
-5.21188e-22
-5e-05
-2.71469e-21
-5e-05
-4.84495e-21
-5e-05
-4.72546e-21
-2.98413e-21
-5e-05
3.1563e-18
-5e-05
-6.87274e-19
-5e-05
1.61498e-19
-5e-05
-3.57436e-20
-5e-05
7.49514e-21
-5e-05
-1.53384e-21
-5e-05
2.26276e-21
-5e-05
-1.93575e-21
-5e-05
-5.32111e-21
-5e-05
-2.00985e-21
-5e-05
-2.66824e-21
-5e-05
-3.24052e-21
-5e-05
-8.61509e-22
-5e-05
6.03739e-22
-5e-05
4.1891e-21
-5e-05
4.27383e-21
-5e-05
-1.80957e-22
-5e-05
-6.90043e-21
-5e-05
-7.13713e-21
-3.64678e-21
-5e-05
-2.98831e-18
-5e-05
6.42917e-19
-5e-05
-1.53259e-19
-5e-05
2.90143e-20
-5e-05
-9.61261e-21
-5e-05
3.00286e-21
-5e-05
3.30161e-21
-5e-05
2.73265e-21
-5e-05
-1.70835e-21
-5e-05
1.75342e-21
-5e-05
2.5018e-21
-5e-05
-6.885e-22
-5e-05
-5.54843e-21
-5e-05
-8.18628e-21
-5e-05
-2.48681e-21
-5e-05
2.07674e-21
-5e-05
2.07486e-22
-5e-05
-3.77939e-21
-5e-05
-3.96629e-21
-1.63238e-21
-5e-05
1.0318e-18
-5e-05
-2.00924e-19
-5e-05
5.19821e-20
-5e-05
-1.03784e-20
-5e-05
2.47904e-21
-5e-05
4.08636e-21
-5e-05
2.83398e-21
-5e-05
2.70997e-21
-5e-05
4.79621e-21
-5e-05
6.08368e-21
-5e-05
7.67495e-21
-5e-05
6.61266e-21
-5e-05
1.21203e-21
-5e-05
-5.85424e-21
-5e-05
-6.92463e-21
-5e-05
-4.62915e-21
-5e-05
-4.52836e-21
-5e-05
-1.82104e-21
-5e-05
7.93555e-22
3.25794e-22
-5e-05
2.28349e-18
-5e-05
-4.72744e-19
-5e-05
1.23602e-19
-5e-05
-1.33069e-20
-5e-05
1.38759e-20
-5e-05
1.99391e-21
-5e-05
-1.08828e-21
-5e-05
-4.32889e-21
-5e-05
-1.69283e-21
-5e-05
-1.13383e-21
-5e-05
3.00431e-21
-5e-05
5.16558e-21
-5e-05
2.61666e-21
-5e-05
9.06084e-22
-5e-05
-1.06889e-21
-5e-05
-2.05425e-21
-5e-05
-3.6712e-21
-5e-05
-2.54066e-21
-5e-05
-1.25103e-21
-5.70303e-22
-5e-05
-3.52897e-18
-5e-05
7.70576e-19
-5e-05
-1.70625e-19
-5e-05
5.12443e-20
-5e-05
-1.79706e-21
-5e-05
4.45215e-22
-5e-05
-2.24583e-21
-5e-05
-2.28963e-21
-5e-05
-3.39923e-21
-5e-05
-4.75802e-21
-5e-05
-4.02706e-21
-5e-05
-2.90064e-21
-5e-05
-2.75522e-21
-5e-05
1.62242e-21
-5e-05
1.23486e-21
-5e-05
-1.34255e-21
-5e-05
-5.21305e-21
-5e-05
-6.07569e-21
-5e-05
-4.52947e-21
-2.43729e-21
-5e-05
2.54095e-18
-5e-05
-5.43234e-19
-5e-05
1.31891e-19
-5e-05
-2.16564e-20
-5e-05
9.34645e-21
-5e-05
2.24477e-22
-5e-05
1.22534e-21
-5e-05
3.42743e-21
-5e-05
3.25167e-21
-5e-05
-2.88323e-21
-5e-05
-7.31965e-21
-5e-05
-7.44147e-21
-5e-05
-1.61797e-21
-5e-05
2.91485e-21
-5e-05
-7.03255e-22
-5e-05
-5.64498e-21
-5e-05
-7.80276e-21
-5e-05
-7.41098e-21
-5e-05
-4.32544e-21
-3.66066e-21
-5e-05
-4.12125e-19
-5e-05
1.0632e-19
-5e-05
-1.98854e-20
-5e-05
1.1659e-20
-5e-05
4.05496e-22
-5e-05
-2.78253e-22
-5e-05
-8.39618e-22
-5e-05
2.59682e-21
-5e-05
1.55887e-21
-5e-05
-5.87414e-21
-5e-05
-8.72109e-21
-5e-05
-6.57592e-21
-5e-05
1.71425e-21
-5e-05
4.96898e-21
-5e-05
5.4123e-22
-5e-05
-5.91927e-21
-5e-05
-6.52026e-21
-5e-05
-4.84615e-21
-5e-05
-2.76843e-21
-3.63152e-21
-5e-05
-1.75365e-18
-5e-05
3.9015e-19
-5e-05
-8.21752e-20
-5e-05
2.70759e-20
-5e-05
-2.23348e-21
-5e-05
1.74671e-22
-5e-05
8.31608e-22
-5e-05
-1.7522e-22
-5e-05
-7.61868e-21
-5e-05
-9.23101e-21
-5e-05
-5.50644e-21
-5e-05
-1.52205e-21
-5e-05
2.12593e-22
-5e-05
-1.85718e-21
-5e-05
-4.01893e-21
-5e-05
-4.62232e-21
-5e-05
-2.26622e-21
-5e-05
-1.41154e-21
-5e-05
-8.89363e-22
-5.70885e-22
-5e-05
3.08852e-18
-5e-05
-6.67597e-19
-5e-05
1.67201e-19
-5e-05
-3.08592e-20
-5e-05
1.55731e-20
-5e-05
1.10713e-20
-5e-05
1.29388e-20
-5e-05
6.61696e-21
-5e-05
-3.72995e-21
-5e-05
-1.99869e-21
-5e-05
8.57662e-22
-5e-05
1.61716e-22
-5e-05
-5.81991e-21
-5e-05
-1.15094e-20
-5e-05
-1.21688e-20
-5e-05
-7.77026e-21
-5e-05
-8.15212e-22
-5e-05
1.66352e-21
-5e-05
7.2039e-22
-7.65323e-22
-5e-05
-3.14998e-18
-5e-05
7.03301e-19
-5e-05
-1.49385e-19
-5e-05
4.04623e-20
-5e-05
6.84855e-22
-5e-05
1.01952e-20
-5e-05
4.98718e-21
-5e-05
4.45716e-21
-5e-05
1.97656e-21
-5e-05
3.41328e-21
-5e-05
1.31822e-21
-5e-05
-1.72858e-21
-5e-05
-7.01413e-21
-5e-05
-1.09055e-20
-5e-05
-1.17809e-20
-5e-05
-1.03387e-20
-5e-05
-6.68589e-21
-5e-05
-2.19987e-21
-5e-05
-1.99655e-21
-5.78083e-21
-5e-05
1.54257e-18
-5e-05
-3.26616e-19
-5e-05
9.35981e-20
-5e-05
-4.40459e-21
-5e-05
1.56858e-20
-5e-05
1.41723e-21
-5e-05
-3.81062e-21
-5e-05
-6.82754e-21
-5e-05
-3.26835e-21
-5e-05
-2.39061e-21
-5e-05
-3.20794e-21
-5e-05
-3.14907e-21
-5e-05
-4.66918e-21
-5e-05
-6.35131e-21
-5e-05
-4.8726e-21
-5e-05
-2.40141e-21
-5e-05
-7.88148e-21
-5e-05
-8.69441e-21
-5e-05
-6.74336e-21
-5.29398e-21
-5e-05
2.03513e-18
-5e-05
-4.41681e-19
-5e-05
1.05752e-19
-5e-05
-1.45473e-20
-5e-05
1.31812e-20
-5e-05
1.34282e-21
-5e-05
-3.9889e-21
-5e-05
-9.10487e-21
-5e-05
-5.54552e-21
-5e-05
-5.1111e-21
-5e-05
-5.24056e-21
-5e-05
-4.17483e-21
-5e-05
-4.54486e-21
-5e-05
-4.24503e-21
-5e-05
-9.75436e-22
-5e-05
3.66509e-21
-5e-05
-2.8481e-21
-5e-05
-6.68488e-21
-5e-05
-7.48067e-21
-2.42397e-21
-5e-05
-3.93411e-18
-5e-05
8.699e-19
-5e-05
-2.06934e-19
-5e-05
4.70884e-20
-5e-05
-1.15223e-20
-5e-05
-8.31814e-22
-5e-05
-5.9466e-21
-5e-05
-5.76792e-21
-5e-05
-4.25776e-21
-5e-05
-4.14405e-21
-5e-05
-5.03797e-21
-5e-05
-6.12009e-21
-5e-05
-7.36384e-21
-5e-05
-3.909e-21
-5e-05
2.39964e-22
-5e-05
2.29561e-21
-5e-05
3.19836e-22
-5e-05
-4.17833e-21
-5e-05
-7.48737e-21
-3.20476e-21
-5e-05
2.72007e-18
-5e-05
-5.85344e-19
-5e-05
1.38204e-19
-5e-05
-2.87577e-20
-5e-05
6.22847e-21
-5e-05
-9.51438e-22
-5e-05
1.01317e-21
-5e-05
-2.68832e-21
-5e-05
-4.71746e-21
-5e-05
-3.57679e-21
-5e-05
-1.84446e-21
-5e-05
-4.1324e-21
-5e-05
-4.85361e-21
-5e-05
-2.63034e-21
-5e-05
-3.84108e-21
-5e-05
-6.91083e-21
-5e-05
-3.10298e-21
-5e-05
-4.61955e-21
-5e-05
-5.59675e-21
-2.48639e-21
-5e-05
2.37282e-18
-5e-05
-5.37336e-19
-5e-05
1.16166e-19
-5e-05
-3.19519e-20
-5e-05
7.0402e-21
-5e-05
3.83282e-22
-5e-05
1.47381e-21
-5e-05
-3.3258e-21
-5e-05
-6.69749e-21
-5e-05
-4.03467e-21
-5e-05
6.00081e-22
-5e-05
2.12029e-21
-5e-05
3.90925e-21
-5e-05
6.78936e-22
-5e-05
-7.32563e-21
-5e-05
-1.40409e-20
-5e-05
-8.98678e-21
-5e-05
-4.78239e-21
-5e-05
-1.42437e-21
-1.14115e-21
-5e-05
-3.99329e-18
-5e-05
8.3701e-19
-5e-05
-2.07308e-19
-5e-05
3.94333e-20
-5e-05
-9.77265e-21
-5e-05
-9.8665e-22
-5e-05
-3.63669e-21
-5e-05
-3.25168e-21
-5e-05
-7.17533e-21
-5e-05
-6.86261e-21
-5e-05
-3.94808e-21
-5e-05
-1.43534e-22
-5e-05
1.82572e-21
-5e-05
-4.76322e-22
-5e-05
-2.22758e-21
-5e-05
-5.93622e-21
-5e-05
-6.4066e-21
-5e-05
-4.11489e-21
-5e-05
-6.25262e-22
-1.75469e-21
-5e-05
-5e-05
-5e-05
-5e-05
-5e-05
-5e-05
-5e-05
-5e-05
-5e-05
-5e-05
-5e-05
-5e-05
-5e-05
-5e-05
-5e-05
-5e-05
-5e-05
-5e-05
-5e-05
)
;

boundaryField
{
    movingWall
    {
        type            calculated;
        value           uniform -0;
    }
    fixedWalls
    {
        type            calculated;
        value           nonuniform List<scalar> 
60
(
5e-05
5e-05
5e-05
5e-05
5e-05
5e-05
5e-05
5e-05
5e-05
5e-05
5e-05
5e-05
5e-05
5e-05
5e-05
5e-05
5e-05
5e-05
5e-05
5e-05
-5e-05
-5e-05
-5e-05
-5e-05
-5e-05
-5e-05
-5e-05
-5e-05
-5e-05
-5e-05
-5e-05
-5e-05
-5e-05
-5e-05
-5e-05
-5e-05
-5e-05
-5e-05
-5e-05
-5e-05
0
0
0
0
0
0
0
0
0
0
0
0
0
0
0
0
0
0
0
0
)
;
    }
    frontAndBack
    {
        type            empty;
    }
}


// ************************************************************************* //
