/*--------------------------------*- C++ -*----------------------------------*\
| =========                 |                                                 |
| \\      /  F ield         | OpenFOAM: The Open Source CFD Toolbox           |
|  \\    /   O peration     | Version:  2506                                  |
|   \\  /    A nd           | Website:  www.openfoam.com                      |
|    \\/     M anipulation  |                                                 |
\*---------------------------------------------------------------------------*/
FoamFile
{
    version     2.0;
    format      ascii;
    arch        "LSB;label=32;scalar=64";
    class       volTensorField;
    location    "9.625";
    object      gradU;
}
// * * * * * * * * * * * * * * * * * * * * * * * * * * * * * * * * * * * * * //

dimensions      [0 0 -1 0 0 0 0];

internalField   nonuniform List<tensor> 
400
(
(-1.54499e-12 1.36513e-11 0 1.6263e-12 1.8644e-11 0 0 0 0)
(2.27682e-12 -1.65561e-11 0 -4.33681e-13 -4.07474e-12 0 0 0 0)
(-6.77626e-13 3.63917e-12 0 2.71051e-14 1.01219e-12 0 0 0 0)
(8.13152e-14 -8.69078e-13 0 2.71051e-14 -1.90107e-13 0 0 0 0)
(-5.42101e-14 1.8635e-13 0 2.71051e-14 6.50824e-14 0 0 0 0)
(-2.71051e-14 -4.15552e-14 0 0 3.43339e-15 0 0 0 0)
(0 2.16193e-14 0 0 1.26256e-14 0 0 0 0)
(0 1.37288e-14 0 0 3.46161e-14 0 0 0 0)
(-1.0842e-13 -1.29209e-14 0 2.71051e-14 5.11502e-14 0 0 0 0)
(-2.71051e-14 -2.57351e-14 0 -8.13152e-14 2.12472e-14 0 0 0 0)
(2.71051e-14 -6.71996e-15 0 -5.42101e-14 1.29504e-15 0 0 0 0)
(0 6.2019e-15 0 -5.42101e-14 -1.68963e-15 0 0 0 0)
(0 -8.33448e-16 0 -5.42101e-14 -7.54993e-15 0 0 0 0)
(0 -1.10637e-14 0 -5.42101e-14 -1.96284e-14 0 0 0 0)
(0 -9.83277e-15 0 0 -2.93078e-14 0 0 0 0)
(5.42101e-14 1.00754e-14 0 2.71051e-14 -1.96078e-14 0 0 0 0)
(-5.42101e-14 1.37705e-14 0 2.71051e-14 1.86902e-14 0 0 0 0)
(0 -1.02809e-14 0 -5.42101e-14 1.32276e-14 0 0 0 0)
(5.42101e-14 -8.70051e-15 0 0 -2.08495e-14 0 0 0 0)
(0 1.05909e-14 0 0 -1.1958e-14 0 0 0 0)
(2.81893e-12 9.17947e-13 0 1.54499e-12 -3.37144e-11 0 0 0 0)
(-3.90313e-12 -1.07571e-12 0 -4.87891e-13 7.38936e-12 0 0 0 0)
(1.0571e-12 2.45468e-13 0 2.71051e-14 -1.76067e-12 0 0 0 0)
(-8.13152e-14 -7.80341e-14 0 -5.42101e-14 3.72348e-13 0 0 0 0)
(5.42101e-14 7.1907e-15 0 -5.42101e-14 -9.30906e-14 0 0 0 0)
(0 -1.09017e-14 0 0 9.99719e-15 0 0 0 0)
(0 9.56343e-15 0 0 -8.3833e-15 0 0 0 0)
(2.71051e-14 2.47958e-14 0 -5.42101e-14 -1.27793e-14 0 0 0 0)
(5.42101e-14 -4.48098e-16 0 0 -5.81746e-15 0 0 0 0)
(-5.42101e-14 -2.412e-14 0 1.0842e-13 1.13558e-14 0 0 0 0)
(0 -1.62168e-14 0 5.42101e-14 1.1356e-14 0 0 0 0)
(0 -1.50469e-14 0 1.0842e-13 -8.29763e-16 0 0 0 0)
(0 -1.71053e-14 0 8.13152e-14 -1.65881e-14 0 0 0 0)
(0 -1.06942e-14 0 5.42101e-14 -1.80698e-14 0 0 0 0)
(8.13152e-14 9.85336e-15 0 0 -1.40141e-14 0 0 0 0)
(2.71051e-14 3.79226e-14 0 -2.71051e-14 4.79601e-15 0 0 0 0)
(-2.71051e-14 1.90649e-14 0 -2.71051e-14 -5.71748e-15 0 0 0 0)
(-2.71051e-14 -2.92587e-14 0 8.13152e-14 -6.25839e-15 0 0 0 0)
(0 -1.64852e-14 0 2.71051e-14 -6.34931e-16 0 0 0 0)
(0 2.22166e-14 0 0 5.04111e-16 0 0 0 0)
(-4.87891e-13 -1.26737e-11 0 -6.4239e-12 1.11237e-11 0 0 0 0)
(7.86047e-13 1.53976e-11 0 1.76183e-12 -2.39854e-12 0 0 0 0)
(-2.43945e-13 -3.37784e-12 0 -1.35525e-13 5.36038e-13 0 0 0 0)
(0 7.985e-13 0 8.13152e-14 -1.30575e-13 0 0 0 0)
(0 -1.76001e-13 0 0 1.70401e-14 0 0 0 0)
(0 4.31522e-14 0 0 -8.74255e-15 0 0 0 0)
(0 -1.15723e-15 0 2.71051e-14 6.11408e-15 0 0 0 0)
(0 1.62947e-14 0 0 -1.47968e-14 0 0 0 0)
(2.71051e-14 1.12143e-14 0 0 -2.70835e-14 0 0 0 0)
(0 -8.56169e-15 0 2.71051e-14 -1.15573e-14 0 0 0 0)
(2.71051e-14 -1.89055e-14 0 5.42101e-14 -7.04081e-15 0 0 0 0)
(0 -2.17422e-14 0 8.13152e-14 -1.74852e-16 0 0 0 0)
(-5.42101e-14 -1.80734e-14 0 2.71051e-14 2.27551e-14 0 0 0 0)
(-2.71051e-14 -8.48978e-15 0 5.42101e-14 3.26756e-14 0 0 0 0)
(-2.71051e-14 1.3033e-14 0 0 3.42149e-14 0 0 0 0)
(-8.13152e-14 1.8372e-14 0 -5.42101e-14 1.27271e-14 0 0 0 0)
(2.71051e-14 2.71613e-15 0 -8.13152e-14 -2.38314e-14 0 0 0 0)
(1.0842e-13 -5.19836e-15 0 -8.13152e-14 -2.63491e-14 0 0 0 0)
(-2.71051e-14 -1.93802e-15 0 2.71051e-14 2.58255e-15 0 0 0 0)
(-2.71051e-14 1.07217e-14 0 0 -4.82616e-16 0 0 0 0)
(-1.89735e-12 9.64307e-12 0 3.55076e-12 1.65719e-11 0 0 0 0)
(2.38524e-12 -1.16633e-11 0 -1.0571e-12 -3.66517e-12 0 0 0 0)
(-5.96311e-13 2.51343e-12 0 2.71051e-14 8.5843e-13 0 0 0 0)
(2.71051e-14 -5.97032e-13 0 -2.71051e-14 -1.9464e-13 0 0 0 0)
(-2.71051e-14 1.29023e-13 0 0 4.09486e-14 0 0 0 0)
(2.71051e-14 -2.18277e-14 0 0 -1.08234e-14 0 0 0 0)
(0 3.50922e-15 0 -2.71051e-14 -1.3053e-15 0 0 0 0)
(0 -8.40178e-15 0 0 -1.4783e-14 0 0 0 0)
(5.42101e-14 2.79136e-15 0 -2.71051e-14 -3.95337e-14 0 0 0 0)
(2.71051e-14 -4.07734e-15 0 -2.71051e-14 -2.90851e-14 0 0 0 0)
(2.71051e-14 -4.83438e-15 0 -5.42101e-14 -1.62832e-14 0 0 0 0)
(0 1.4749e-14 0 -1.35525e-13 -1.02678e-14 0 0 0 0)
(0 1.57451e-14 0 -5.42101e-14 -2.06312e-15 0 0 0 0)
(-2.71051e-14 7.65666e-16 0 -5.42101e-14 7.43755e-15 0 0 0 0)
(-2.71051e-14 -1.00952e-14 0 2.71051e-14 2.58634e-14 0 0 0 0)
(0 -2.01237e-14 0 1.0842e-13 1.91801e-14 0 0 0 0)
(-5.42101e-14 -2.00112e-14 0 8.13152e-14 1.01349e-14 0 0 0 0)
(0 -2.84474e-15 0 5.42101e-14 -8.2219e-15 0 0 0 0)
(5.42101e-14 9.38129e-15 0 -2.71051e-14 -9.64665e-15 0 0 0 0)
(0 2.01167e-14 0 0 -2.6506e-15 0 0 0 0)
(1.95156e-12 2.3305e-13 0 9.48677e-13 -2.45785e-11 0 0 0 0)
(-2.73761e-12 -3.1589e-13 0 -2.71051e-14 5.32077e-12 0 0 0 0)
(8.13152e-13 9.26923e-14 0 1.6263e-13 -1.25903e-12 0 0 0 0)
(0 -1.89811e-14 0 8.13152e-14 2.59031e-13 0 0 0 0)
(0 7.8157e-15 0 1.0842e-13 -6.8431e-14 0 0 0 0)
(0 8.98219e-16 0 8.13152e-14 1.81468e-14 0 0 0 0)
(0 -5.11684e-15 0 5.42101e-14 4.15539e-15 0 0 0 0)
(-5.42101e-14 -2.19337e-14 0 1.35525e-13 1.86736e-14 0 0 0 0)
(0 -3.08778e-15 0 2.71051e-14 1.4451e-14 0 0 0 0)
(0 1.46888e-14 0 2.71051e-14 1.50531e-14 0 0 0 0)
(-5.42101e-14 -8.83021e-17 0 0 2.06802e-14 0 0 0 0)
(-2.71051e-14 -7.5221e-15 0 -5.42101e-14 1.02081e-14 0 0 0 0)
(2.71051e-14 -3.6805e-16 0 0 -1.87477e-14 0 0 0 0)
(5.42101e-14 1.94368e-14 0 -5.42101e-14 -3.51601e-14 0 0 0 0)
(8.13152e-14 2.47755e-14 0 -2.71051e-14 -2.67036e-14 0 0 0 0)
(0 2.64351e-15 0 0 -8.78837e-15 0 0 0 0)
(-2.71051e-14 -2.46859e-14 0 2.71051e-14 1.55377e-15 0 0 0 0)
(0 -2.49799e-14 0 2.71051e-14 1.24841e-14 0 0 0 0)
(-2.71051e-14 3.63329e-15 0 0 1.26833e-14 0 0 0 0)
(-2.71051e-14 2.30189e-14 0 2.71051e-14 8.05761e-15 0 0 0 0)
(-9.75782e-13 -9.61464e-12 0 -2.1413e-12 1.60805e-11 0 0 0 0)
(1.5992e-12 1.16561e-11 0 7.31836e-13 -3.37536e-12 0 0 0 0)
(-4.87891e-13 -2.5483e-12 0 0 8.20964e-13 0 0 0 0)
(-2.71051e-14 5.93567e-13 0 0 -1.57571e-13 0 0 0 0)
(-2.71051e-14 -1.11861e-13 0 -2.71051e-14 4.83666e-14 0 0 0 0)
(-2.71051e-14 5.07587e-14 0 -8.13152e-14 4.33399e-15 0 0 0 0)
(2.71051e-14 4.03602e-15 0 -5.42101e-14 -1.87052e-15 0 0 0 0)
(2.71051e-14 1.89387e-15 0 -2.71051e-14 -9.07439e-17 0 0 0 0)
(-2.71051e-14 -8.2917e-16 0 0 2.60182e-14 0 0 0 0)
(-2.71051e-14 2.15178e-15 0 0 1.73211e-14 0 0 0 0)
(0 -9.67936e-15 0 5.42101e-14 2.06926e-14 0 0 0 0)
(-2.71051e-14 -2.46788e-14 0 1.0842e-13 2.92046e-14 0 0 0 0)
(-2.71051e-14 -2.96231e-14 0 5.42101e-14 2.70419e-14 0 0 0 0)
(-8.13152e-14 -7.19025e-15 0 8.13152e-14 9.32814e-15 0 0 0 0)
(2.71051e-14 1.62765e-14 0 -5.42101e-14 -1.77513e-14 0 0 0 0)
(5.42101e-14 8.13365e-15 0 -5.42101e-14 -2.68236e-14 0 0 0 0)
(2.71051e-14 1.26132e-15 0 2.71051e-14 -1.89434e-14 0 0 0 0)
(-2.71051e-14 8.28484e-15 0 -2.71051e-14 7.83342e-15 0 0 0 0)
(5.42101e-14 4.95476e-15 0 -2.71051e-14 1.90394e-14 0 0 0 0)
(-5.42101e-14 -6.24249e-16 0 2.71051e-14 7.8327e-15 0 0 0 0)
(5.96311e-13 1.29381e-11 0 1.89735e-12 5.00676e-12 0 0 0 0)
(-5.96311e-13 -1.55754e-11 0 -9.21572e-13 -1.08728e-12 0 0 0 0)
(5.42101e-14 3.31049e-12 0 -2.43945e-13 2.86479e-13 0 0 0 0)
(-5.42101e-14 -7.91579e-13 0 -1.35525e-13 -1.17137e-14 0 0 0 0)
(-8.13152e-14 1.69721e-13 0 -1.0842e-13 4.55876e-14 0 0 0 0)
(0 -4.93389e-14 0 -8.13152e-14 -8.36978e-15 0 0 0 0)
(2.71051e-14 -9.54157e-15 0 -8.13152e-14 -1.5689e-14 0 0 0 0)
(0 5.95508e-15 0 -1.35525e-13 -2.81554e-14 0 0 0 0)
(5.42101e-14 1.4324e-14 0 -1.0842e-13 -2.59562e-14 0 0 0 0)
(5.42101e-14 9.36318e-15 0 -1.0842e-13 -2.887e-14 0 0 0 0)
(0 1.17953e-14 0 -1.0842e-13 -1.86826e-14 0 0 0 0)
(0 -1.17286e-15 0 -5.42101e-14 -5.78833e-15 0 0 0 0)
(2.71051e-14 -2.02445e-14 0 -5.42101e-14 5.61853e-15 0 0 0 0)
(-2.71051e-14 -2.53564e-14 0 2.71051e-14 2.70413e-14 0 0 0 0)
(0 -1.13762e-14 0 5.42101e-14 2.34229e-14 0 0 0 0)
(0 1.45142e-15 0 -5.42101e-14 1.02996e-14 0 0 0 0)
(-2.71051e-14 9.97113e-15 0 -5.42101e-14 3.42865e-15 0 0 0 0)
(-2.71051e-14 1.30028e-14 0 -5.42101e-14 -2.87848e-15 0 0 0 0)
(2.71051e-14 3.63257e-15 0 0 -8.17835e-15 0 0 0 0)
(-2.71051e-14 -3.85315e-15 0 -2.71051e-14 -3.58439e-15 0 0 0 0)
(2.71051e-14 -5.69517e-12 0 -1.57209e-12 -2.32498e-11 0 0 0 0)
(-5.69206e-13 6.93583e-12 0 4.33681e-13 4.97328e-12 0 0 0 0)
(3.25261e-13 -1.47274e-12 0 0 -1.17691e-12 0 0 0 0)
(1.35525e-13 3.52675e-13 0 -2.71051e-14 2.58205e-13 0 0 0 0)
(-5.42101e-14 -1.08517e-13 0 2.71051e-14 -6.2692e-14 0 0 0 0)
(0 -1.0518e-14 0 0 -6.19479e-15 0 0 0 0)
(0 -1.57496e-14 0 0 -4.63019e-15 0 0 0 0)
(0 -8.37328e-15 0 0 8.15704e-15 0 0 0 0)
(5.42101e-14 -1.54377e-15 0 0 -6.82558e-15 0 0 0 0)
(0 9.42538e-15 0 -2.71051e-14 -1.44968e-14 0 0 0 0)
(0 1.34023e-14 0 -2.71051e-14 -2.81255e-14 0 0 0 0)
(2.71051e-14 -3.7772e-16 0 -8.13152e-14 -3.22649e-14 0 0 0 0)
(5.42101e-14 3.20657e-15 0 0 -2.14875e-14 0 0 0 0)
(-5.42101e-14 1.06142e-14 0 -1.0842e-13 2.86533e-15 0 0 0 0)
(-2.71051e-14 -4.65147e-16 0 -5.42101e-14 9.215e-15 0 0 0 0)
(0 -1.18606e-14 0 0 2.84679e-15 0 0 0 0)
(0 -1.19168e-14 0 -5.42101e-14 -6.16741e-15 0 0 0 0)
(2.71051e-14 -3.32215e-15 0 0 -1.41401e-14 0 0 0 0)
(5.42101e-14 4.24885e-15 0 0 -1.31137e-14 0 0 0 0)
(0 1.11385e-14 0 0 -7.46796e-15 0 0 0 0)
(-5.69206e-13 -5.33841e-12 0 2.71051e-13 2.42797e-11 0 0 0 0)
(1.00289e-12 6.49755e-12 0 1.6263e-13 -5.25524e-12 0 0 0 0)
(-4.06576e-13 -1.40459e-12 0 1.89735e-13 1.21007e-12 0 0 0 0)
(-8.13152e-14 3.22638e-13 0 8.13152e-14 -2.91603e-13 0 0 0 0)
(0 -9.46788e-14 0 5.42101e-14 4.4574e-14 0 0 0 0)
(0 8.7229e-15 0 8.13152e-14 -8.82953e-16 0 0 0 0)
(0 4.81025e-15 0 8.13152e-14 1.38847e-14 0 0 0 0)
(0 3.75968e-15 0 8.13152e-14 2.28682e-14 0 0 0 0)
(-2.71051e-14 -8.32979e-15 0 8.13152e-14 2.66036e-14 0 0 0 0)
(0 -1.19367e-14 0 8.13152e-14 7.49918e-15 0 0 0 0)
(2.71051e-14 -5.97284e-15 0 1.0842e-13 -1.31704e-14 0 0 0 0)
(5.42101e-14 5.46505e-15 0 8.13152e-14 -1.81633e-14 0 0 0 0)
(-5.42101e-14 1.48857e-14 0 5.42101e-14 4.54903e-15 0 0 0 0)
(-2.71051e-14 5.34616e-15 0 5.42101e-14 5.16974e-15 0 0 0 0)
(2.71051e-14 -1.13947e-14 0 5.42101e-14 -7.75244e-15 0 0 0 0)
(5.42101e-14 -1.3931e-14 0 5.42101e-14 -1.72097e-14 0 0 0 0)
(0 -7.01578e-15 0 8.13152e-14 -1.03588e-14 0 0 0 0)
(0 6.05649e-15 0 8.13152e-14 -5.34116e-15 0 0 0 0)
(2.71051e-14 1.03047e-14 0 0 8.16108e-16 0 0 0 0)
(-2.71051e-14 1.67286e-14 0 0 -4.89347e-15 0 0 0 0)
(4.33681e-13 1.33293e-11 0 4.33681e-13 -1.18123e-11 0 0 0 0)
(-6.23416e-13 -1.61338e-11 0 -3.79471e-13 2.59822e-12 0 0 0 0)
(2.43945e-13 3.4909e-12 0 -1.35525e-13 -6.07105e-13 0 0 0 0)
(0 -8.12816e-13 0 0 1.33261e-13 0 0 0 0)
(0 1.82202e-13 0 -8.13152e-14 -3.57638e-14 0 0 0 0)
(0 -4.12073e-14 0 -5.42101e-14 -2.01092e-15 0 0 0 0)
(0 8.00155e-15 0 0 -8.25983e-15 0 0 0 0)
(0 4.34563e-15 0 0 -3.32244e-15 0 0 0 0)
(0 -1.69128e-14 0 0 -6.77119e-15 0 0 0 0)
(0 -3.03486e-14 0 5.42101e-14 -1.19636e-14 0 0 0 0)
(0 -1.22601e-14 0 2.71051e-14 -5.60576e-15 0 0 0 0)
(0 1.73417e-14 0 2.71051e-14 3.46221e-15 0 0 0 0)
(0 2.65396e-14 0 0 1.33289e-14 0 0 0 0)
(0 -1.68732e-15 0 0 8.21651e-15 0 0 0 0)
(-2.71051e-14 -2.28446e-14 0 2.71051e-14 4.97794e-15 0 0 0 0)
(0 -1.4467e-14 0 2.71051e-14 -1.09713e-15 0 0 0 0)
(0 -4.8203e-17 0 2.71051e-14 5.13003e-15 0 0 0 0)
(-2.71051e-14 7.8528e-15 0 -2.71051e-14 1.02593e-14 0 0 0 0)
(0 4.69655e-15 0 2.71051e-14 6.22805e-15 0 0 0 0)
(0 1.52158e-14 0 0 1.16563e-16 0 0 0 0)
(-4.87891e-13 -1.45525e-11 0 -5.69206e-13 -5.3661e-12 0 0 0 0)
(4.06576e-13 1.77027e-11 0 4.87891e-13 1.13532e-12 0 0 0 0)
(-1.0842e-13 -3.86955e-12 0 1.6263e-13 -2.49159e-13 0 0 0 0)
(5.42101e-14 8.9398e-13 0 5.42101e-14 6.16676e-14 0 0 0 0)
(-5.42101e-14 -2.29951e-13 0 1.35525e-13 -1.05559e-14 0 0 0 0)
(5.42101e-14 3.62269e-14 0 8.13152e-14 1.8117e-15 0 0 0 0)
(5.42101e-14 3.49873e-15 0 0 6.6849e-15 0 0 0 0)
(0 5.24832e-15 0 -5.42101e-14 -1.10881e-14 0 0 0 0)
(8.13152e-14 -1.6971e-14 0 0 -3.67102e-14 0 0 0 0)
(0 -1.07713e-14 0 -2.71051e-14 -1.34275e-14 0 0 0 0)
(2.71051e-14 9.45301e-15 0 -1.0842e-13 1.28586e-14 0 0 0 0)
(0 2.43997e-14 0 -8.13152e-14 2.02155e-14 0 0 0 0)
(-2.71051e-14 1.964e-14 0 -1.0842e-13 -6.00664e-15 0 0 0 0)
(0 -3.00478e-15 0 -8.13152e-14 -2.73046e-14 0 0 0 0)
(5.42101e-14 -2.07084e-14 0 2.71051e-14 -1.82406e-14 0 0 0 0)
(0 -1.37789e-14 0 2.71051e-14 5.18778e-15 0 0 0 0)
(0 4.34065e-15 0 0 1.70162e-14 0 0 0 0)
(-2.71051e-14 7.15451e-15 0 0 1.37385e-14 0 0 0 0)
(2.71051e-14 1.61992e-16 0 0 7.51626e-15 0 0 0 0)
(-5.42101e-14 1.03839e-14 0 0 1.22425e-14 0 0 0 0)
(3.79471e-13 9.09851e-12 0 5.69206e-13 1.93687e-11 0 0 0 0)
(1.35525e-13 -1.10169e-11 0 -2.98156e-13 -4.23099e-12 0 0 0 0)
(-2.1684e-13 2.41725e-12 0 -5.42101e-14 9.97505e-13 0 0 0 0)
(-8.13152e-14 -5.74213e-13 0 0 -2.3174e-13 0 0 0 0)
(5.42101e-14 1.22346e-13 0 0 7.12262e-14 0 0 0 0)
(-1.35525e-13 -2.39665e-14 0 0 4.35866e-14 0 0 0 0)
(-8.13152e-14 -4.8983e-15 0 0 4.84288e-14 0 0 0 0)
(-2.71051e-14 -3.90495e-14 0 5.42101e-14 2.71687e-14 0 0 0 0)
(0 -1.92522e-14 0 -5.42101e-14 1.55549e-14 0 0 0 0)
(-8.13152e-14 1.92203e-14 0 -8.13152e-14 2.89293e-14 0 0 0 0)
(-2.71051e-14 2.13828e-14 0 -2.71051e-14 2.54564e-14 0 0 0 0)
(0 -1.52357e-15 0 -2.71051e-14 6.73507e-15 0 0 0 0)
(0 -2.09805e-14 0 -2.71051e-14 -2.413e-14 0 0 0 0)
(8.13152e-14 -1.39213e-14 0 0 -3.86091e-14 0 0 0 0)
(5.42101e-14 9.64779e-15 0 -5.42101e-14 -3.25993e-14 0 0 0 0)
(-2.71051e-14 2.07898e-14 0 -1.0842e-13 -1.25918e-14 0 0 0 0)
(-2.71051e-14 8.50248e-15 0 -5.42101e-14 5.80402e-15 0 0 0 0)
(0 -1.6471e-15 0 -5.42101e-14 1.23002e-14 0 0 0 0)
(2.71051e-14 3.20062e-15 0 -2.71051e-14 6.43901e-15 0 0 0 0)
(-2.71051e-14 -4.54295e-15 0 -2.71051e-14 -7.77751e-16 0 0 0 0)
(-2.71051e-13 5.85197e-13 0 -3.25261e-13 -2.4954e-11 0 0 0 0)
(-2.1684e-13 -6.68436e-13 0 -1.35525e-13 5.48359e-12 0 0 0 0)
(2.1684e-13 1.29702e-13 0 -1.0842e-13 -1.26634e-12 0 0 0 0)
(1.35525e-13 -3.2299e-14 0 -1.35525e-13 2.85286e-13 0 0 0 0)
(-5.42101e-14 4.53757e-14 0 -1.89735e-13 -5.95528e-14 0 0 0 0)
(5.42101e-14 1.34295e-14 0 -1.6263e-13 -3.50431e-15 0 0 0 0)
(5.42101e-14 -1.29191e-14 0 -1.35525e-13 -3.18065e-14 0 0 0 0)
(2.71051e-14 -2.76256e-14 0 -5.42101e-14 -8.6392e-15 0 0 0 0)
(-2.71051e-14 -1.52104e-14 0 0 2.2826e-14 0 0 0 0)
(-5.42101e-14 -8.69809e-16 0 0 2.16479e-14 0 0 0 0)
(0 -1.27412e-14 0 2.71051e-14 1.84222e-15 0 0 0 0)
(5.42101e-14 -2.51867e-14 0 2.71051e-14 -7.56117e-15 0 0 0 0)
(2.71051e-14 -2.57042e-14 0 8.13152e-14 -4.77689e-15 0 0 0 0)
(-2.71051e-14 -1.14741e-14 0 8.13152e-14 2.41593e-15 0 0 0 0)
(0 5.30895e-15 0 0 1.55148e-15 0 0 0 0)
(2.71051e-14 2.46244e-14 0 0 -1.02739e-14 0 0 0 0)
(0 2.92326e-14 0 -8.13152e-14 -2.34827e-14 0 0 0 0)
(0 7.7895e-15 0 0 -1.54536e-14 0 0 0 0)
(0 -1.2916e-14 0 0 -1.08678e-14 0 0 0 0)
(5.42101e-14 4.72268e-15 0 0 -2.0062e-14 0 0 0 0)
(0 -1.03719e-11 0 -1.54499e-12 1.87702e-11 0 0 0 0)
(2.98156e-13 1.26708e-11 0 5.69206e-13 -4.11967e-12 0 0 0 0)
(-2.1684e-13 -2.78106e-12 0 8.13152e-14 9.71931e-13 0 0 0 0)
(-1.6263e-13 6.32577e-13 0 2.71051e-14 -1.79468e-13 0 0 0 0)
(0 -1.66444e-13 0 8.13152e-14 6.00038e-14 0 0 0 0)
(0 3.77976e-15 0 8.13152e-14 -3.5112e-14 0 0 0 0)
(0 -1.00332e-14 0 8.13152e-14 -3.51912e-14 0 0 0 0)
(8.13152e-14 1.55831e-14 0 5.42101e-14 -4.51388e-14 0 0 0 0)
(2.71051e-14 1.10349e-14 0 8.13152e-14 -2.09796e-14 0 0 0 0)
(0 -1.76355e-15 0 5.42101e-14 -2.32156e-14 0 0 0 0)
(2.71051e-14 -7.82623e-15 0 8.13152e-14 -1.81046e-14 0 0 0 0)
(0 -8.14268e-15 0 1.35525e-13 -5.68198e-15 0 0 0 0)
(-2.71051e-14 -1.10034e-14 0 5.42101e-14 9.37983e-15 0 0 0 0)
(0 -7.59295e-15 0 2.71051e-14 1.82166e-14 0 0 0 0)
(0 -3.042e-15 0 5.42101e-14 2.76332e-14 0 0 0 0)
(-1.0842e-13 -4.24441e-15 0 5.42101e-14 3.17492e-14 0 0 0 0)
(0 3.32279e-15 0 2.71051e-14 -4.78236e-15 0 0 0 0)
(8.13152e-14 1.09678e-14 0 5.42101e-14 -2.59782e-14 0 0 0 0)
(2.71051e-14 -1.40785e-15 0 0 -1.89873e-14 0 0 0 0)
(-2.71051e-14 2.63868e-14 0 2.71051e-14 1.9474e-15 0 0 0 0)
(-1.30104e-12 1.52357e-11 0 3.63208e-12 1.97023e-12 0 0 0 0)
(1.43657e-12 -1.84667e-11 0 -1.11131e-12 -4.6026e-13 0 0 0 0)
(-2.71051e-13 4.0699e-12 0 0 4.86152e-14 0 0 0 0)
(8.13152e-14 -9.44227e-13 0 0 -4.05709e-14 0 0 0 0)
(5.42101e-14 1.89731e-13 0 8.13152e-14 -1.00183e-14 0 0 0 0)
(5.42101e-14 -8.17654e-14 0 1.0842e-13 -2.97634e-16 0 0 0 0)
(0 -2.29459e-14 0 1.0842e-13 -7.13134e-16 0 0 0 0)
(-2.71051e-14 -1.3414e-14 0 5.42101e-14 -9.10935e-15 0 0 0 0)
(0 6.71282e-15 0 2.71051e-14 -9.10866e-15 0 0 0 0)
(0 2.00521e-15 0 2.71051e-14 -1.0882e-14 0 0 0 0)
(2.71051e-14 4.79236e-15 0 -2.71051e-14 -8.1305e-15 0 0 0 0)
(0 2.29772e-15 0 -2.71051e-14 -4.10302e-15 0 0 0 0)
(0 -1.80559e-15 0 0 4.97262e-16 0 0 0 0)
(-2.71051e-14 6.77923e-15 0 2.71051e-14 8.42512e-15 0 0 0 0)
(0 1.88416e-14 0 -2.71051e-14 1.55887e-14 0 0 0 0)
(0 -7.79107e-15 0 0 2.4266e-14 0 0 0 0)
(2.71051e-14 -2.84948e-14 0 1.0842e-13 2.01335e-14 0 0 0 0)
(-5.42101e-14 -6.41539e-15 0 0 8.03812e-15 0 0 0 0)
(2.71051e-14 1.50096e-14 0 0 -2.94921e-15 0 0 0 0)
(-2.71051e-14 2.17625e-14 0 -2.71051e-14 1.148e-14 0 0 0 0)
(2.52077e-12 -8.86195e-12 0 -1.97867e-12 -2.3877e-11 0 0 0 0)
(-3.30682e-12 1.07492e-11 0 7.31836e-13 5.24632e-12 0 0 0 0)
(8.67362e-13 -2.36137e-12 0 5.42101e-14 -1.25074e-12 0 0 0 0)
(-1.35525e-13 5.73944e-13 0 5.42101e-14 2.46543e-13 0 0 0 0)
(1.0842e-13 -1.26171e-13 0 -2.71051e-14 -9.88142e-14 0 0 0 0)
(0 1.3085e-14 0 0 -8.69854e-15 0 0 0 0)
(0 -1.88449e-14 0 -5.42101e-14 -7.83076e-15 0 0 0 0)
(0 7.18754e-15 0 -5.42101e-14 1.33478e-14 0 0 0 0)
(-2.71051e-14 9.26227e-15 0 -5.42101e-14 5.15101e-15 0 0 0 0)
(-2.71051e-14 -7.85383e-16 0 -2.71051e-14 3.8682e-15 0 0 0 0)
(0 -1.04727e-15 0 -8.13152e-14 8.10358e-16 0 0 0 0)
(0 4.85077e-16 0 -1.0842e-13 -7.78105e-15 0 0 0 0)
(2.71051e-14 1.52476e-15 0 -5.42101e-14 -1.12759e-14 0 0 0 0)
(0 7.49846e-15 0 -1.0842e-13 1.34415e-15 0 0 0 0)
(0 1.27989e-14 0 -8.13152e-14 4.8616e-15 0 0 0 0)
(0 3.00433e-16 0 0 -5.47793e-15 0 0 0 0)
(-2.71051e-14 -1.29051e-14 0 -5.42101e-14 1.26717e-14 0 0 0 0)
(0 -1.21149e-14 0 0 1.00262e-14 0 0 0 0)
(0 2.03405e-15 0 0 -2.68064e-17 0 0 0 0)
(0 1.7856e-14 0 0 -3.12314e-15 0 0 0 0)
(-2.57498e-12 -3.3949e-12 0 -4.03865e-12 2.66167e-11 0 0 0 0)
(3.44234e-12 4.15951e-12 0 1.00289e-12 -5.82097e-12 0 0 0 0)
(-9.21572e-13 -9.29878e-13 0 -1.89735e-13 1.38055e-12 0 0 0 0)
(1.0842e-13 2.07701e-13 0 8.13152e-14 -3.03384e-13 0 0 0 0)
(-5.42101e-14 -6.551e-14 0 0 7.10033e-14 0 0 0 0)
(0 9.21803e-15 0 -2.71051e-14 -4.78494e-16 0 0 0 0)
(-5.42101e-14 -8.99524e-16 0 0 2.78391e-14 0 0 0 0)
(0 -4.32217e-16 0 -5.42101e-14 1.23184e-14 0 0 0 0)
(0 -2.76678e-15 0 0 -1.8388e-15 0 0 0 0)
(0 -2.33544e-15 0 0 2.26903e-15 0 0 0 0)
(-2.71051e-14 -6.85688e-15 0 2.71051e-14 1.27741e-14 0 0 0 0)
(0 -9.78854e-15 0 0 7.95075e-15 0 0 0 0)
(0 7.3196e-15 0 -5.42101e-14 1.00409e-14 0 0 0 0)
(0 2.29167e-14 0 -2.71051e-14 5.11464e-15 0 0 0 0)
(0 1.20195e-14 0 -2.71051e-14 -1.63242e-14 0 0 0 0)
(2.71051e-14 1.90563e-17 0 -5.42101e-14 -3.68258e-14 0 0 0 0)
(5.42101e-14 -1.29906e-14 0 -5.42101e-14 -1.36913e-14 0 0 0 0)
(0 -1.91139e-14 0 0 -1.76489e-15 0 0 0 0)
(0 1.86022e-15 0 0 7.56249e-15 0 0 0 0)
(0 2.49125e-14 0 0 2.87345e-15 0 0 0 0)
(-5.42101e-13 1.19338e-11 0 7.04731e-12 -1.389e-12 0 0 0 0)
(5.96311e-13 -1.4487e-11 0 -1.84314e-12 1.92031e-13 0 0 0 0)
(-1.0842e-13 3.15622e-12 0 1.89735e-13 -8.81488e-14 0 0 0 0)
(8.13152e-14 -7.35601e-13 0 -1.35525e-13 -1.27769e-14 0 0 0 0)
(0 1.76735e-13 0 -5.42101e-14 3.24692e-15 0 0 0 0)
(0 -3.00792e-14 0 -2.71051e-14 5.33888e-15 0 0 0 0)
(0 -6.04802e-15 0 -5.42101e-14 1.84257e-15 0 0 0 0)
(0 -2.24903e-14 0 5.42101e-14 -2.54989e-15 0 0 0 0)
(2.71051e-14 -7.87092e-16 0 0 -7.92011e-15 0 0 0 0)
(-2.71051e-14 1.38275e-14 0 0 -1.83149e-15 0 0 0 0)
(-2.71051e-14 4.63445e-15 0 5.42101e-14 9.77814e-15 0 0 0 0)
(0 -2.24806e-15 0 8.13152e-14 2.50108e-14 0 0 0 0)
(-5.42101e-14 -1.31134e-15 0 5.42101e-14 3.50514e-14 0 0 0 0)
(-2.71051e-14 -1.88667e-14 0 8.13152e-14 1.32371e-14 0 0 0 0)
(0 -2.91415e-14 0 8.13152e-14 -1.39382e-14 0 0 0 0)
(2.71051e-14 2.93337e-15 0 5.42101e-14 -2.85204e-14 0 0 0 0)
(5.42101e-14 2.21558e-14 0 5.42101e-14 -2.35352e-14 0 0 0 0)
(2.71051e-14 9.13884e-15 0 0 -6.51367e-16 0 0 0 0)
(-2.71051e-14 6.67239e-15 0 0 1.66895e-14 0 0 0 0)
(0 7.42008e-15 0 0 5.381e-15 0 0 0 0)
(2.62919e-12 -4.59187e-12 0 -7.86047e-13 -2.54644e-11 0 0 0 0)
(-3.41524e-12 5.46036e-12 0 3.52366e-13 5.49739e-12 0 0 0 0)
(8.40257e-13 -1.13469e-12 0 1.35525e-13 -1.2939e-12 0 0 0 0)
(-1.35525e-13 2.99097e-13 0 5.42101e-14 2.85541e-13 0 0 0 0)
(0 -4.73942e-14 0 1.0842e-13 -6.72514e-14 0 0 0 0)
(0 7.81368e-15 0 5.42101e-14 -5.47973e-15 0 0 0 0)
(8.13152e-14 -8.78829e-15 0 1.0842e-13 -2.0442e-14 0 0 0 0)
(-5.42101e-14 -1.01949e-14 0 5.42101e-14 2.96466e-16 0 0 0 0)
(0 -2.04839e-15 0 5.42101e-14 -1.91138e-15 0 0 0 0)
(0 1.53628e-14 0 2.71051e-14 -1.13118e-14 0 0 0 0)
(5.42101e-14 1.99854e-14 0 2.71051e-14 -1.81926e-14 0 0 0 0)
(2.71051e-14 1.54848e-14 0 2.71051e-14 -9.0553e-15 0 0 0 0)
(0 -4.45407e-15 0 5.42101e-14 -8.33413e-15 0 0 0 0)
(2.71051e-14 -2.60729e-14 0 5.42101e-14 -4.62103e-15 0 0 0 0)
(-2.71051e-14 -2.9738e-14 0 5.42101e-14 2.03922e-14 0 0 0 0)
(-2.71051e-14 -9.57796e-15 0 2.71051e-14 3.24189e-14 0 0 0 0)
(0 1.48784e-14 0 2.71051e-14 1.03207e-14 0 0 0 0)
(0 2.11108e-14 0 0 2.67e-15 0 0 0 0)
(0 7.89259e-15 0 0 3.19643e-15 0 0 0 0)
(0 2.84197e-15 0 2.71051e-14 -2.45419e-15 0 0 0 0)
(-8.94467e-13 -8.03323e-12 0 -2.1413e-12 1.59731e-11 0 0 0 0)
(1.43657e-12 9.68356e-12 0 4.33681e-13 -3.34804e-12 0 0 0 0)
(-3.79471e-13 -2.05562e-12 0 -1.89735e-13 8.29232e-13 0 0 0 0)
(0 4.91044e-13 0 0 -1.57733e-13 0 0 0 0)
(2.71051e-14 -1.14286e-13 0 -5.42101e-14 3.90906e-14 0 0 0 0)
(-2.71051e-14 1.67302e-14 0 -5.42101e-14 3.9466e-15 0 0 0 0)
(-2.71051e-14 -2.71825e-16 0 -5.42101e-14 1.45468e-14 0 0 0 0)
(0 -3.95968e-15 0 -5.42101e-14 1.30067e-14 0 0 0 0)
(-5.42101e-14 -1.23953e-14 0 -5.42101e-14 2.87013e-14 0 0 0 0)
(-2.71051e-14 -2.45378e-15 0 -2.71051e-14 2.74504e-14 0 0 0 0)
(0 6.89092e-15 0 -2.71051e-14 1.57923e-14 0 0 0 0)
(0 7.61045e-15 0 -5.42101e-14 5.74135e-16 0 0 0 0)
(0 3.12292e-15 0 -5.42101e-14 -7.30288e-15 0 0 0 0)
(0 9.8597e-15 0 -5.42101e-14 1.90529e-15 0 0 0 0)
(0 7.89842e-15 0 -5.42101e-14 8.91031e-15 0 0 0 0)
(-2.71051e-14 -7.13814e-15 0 -2.71051e-14 2.37449e-14 0 0 0 0)
(-2.71051e-14 -7.59313e-15 0 -2.71051e-14 2.56264e-14 0 0 0 0)
(0 2.01456e-15 0 0 1.64596e-14 0 0 0 0)
(2.71051e-14 1.54821e-15 0 0 2.50105e-15 0 0 0 0)
(-2.71051e-14 6.67785e-15 0 -2.71051e-14 7.01877e-15 0 0 0 0)
)
;

boundaryField
{
    movingWall
    {
        type            extrapolatedCalculated;
        value           nonuniform List<tensor> 
20
(
(-8.94467e-13 -8.03323e-12 0 5.59552e-12 4.07988e-11 0 0 0 0)
(1.43657e-12 9.68356e-12 0 -1.95399e-12 -8.6659e-12 0 0 0 0)
(-3.79471e-13 -2.05562e-12 0 -3.10862e-13 2.06462e-12 0 0 0 0)
(0 4.91044e-13 0 -2.66454e-13 -4.43416e-13 0 0 0 0)
(2.71051e-14 -1.14286e-13 0 -3.55271e-13 1.00439e-13 0 0 0 0)
(-2.71051e-14 1.67302e-14 0 -3.55271e-13 1.37265e-14 0 0 0 0)
(-2.71051e-14 -2.71825e-16 0 -2.66454e-13 3.35181e-14 0 0 0 0)
(0 -3.95968e-15 0 -2.22045e-13 1.48138e-14 0 0 0 0)
(-5.42101e-14 -1.23953e-14 0 -2.66454e-13 4.93568e-14 0 0 0 0)
(-2.71051e-14 -2.45378e-15 0 -1.33227e-13 6.43951e-14 0 0 0 0)
(0 6.89092e-15 0 -8.88178e-14 5.91719e-14 0 0 0 0)
(0 7.61045e-15 0 -1.33227e-13 3.68314e-14 0 0 0 0)
(0 3.12292e-15 0 -1.77636e-13 2.87302e-14 0 0 0 0)
(0 9.8597e-15 0 -8.88178e-14 2.43397e-14 0 0 0 0)
(0 7.89842e-15 0 -1.33227e-13 -1.07086e-14 0 0 0 0)
(-2.71051e-14 -7.13814e-15 0 -4.44089e-14 -7.25398e-15 0 0 0 0)
(-2.71051e-14 -7.59313e-15 0 -4.44089e-14 1.78439e-14 0 0 0 0)
(0 2.01456e-15 0 0 2.31185e-14 0 0 0 0)
(2.71051e-14 1.54821e-15 0 0 9.78568e-15 0 0 0 0)
(-2.71051e-14 6.67785e-15 0 -4.44089e-14 1.69257e-14 0 0 0 0)
)
;
    }
    fixedWalls
    {
        type            extrapolatedCalculated;
        value           nonuniform List<tensor> 
60
(
(-9.23706e-12 6.9911e-11 0 1.6263e-12 1.8644e-11 0 0 0 0)
(1.57208e-11 4.66496e-12 0 1.54499e-12 -3.37144e-11 0 0 0 0)
(-3.01981e-12 -6.49465e-11 0 -6.4239e-12 1.11237e-11 0 0 0 0)
(-9.85878e-12 4.91596e-11 0 3.55076e-12 1.65719e-11 0 0 0 0)
(1.10578e-11 1.34127e-12 0 9.48677e-13 -2.45785e-11 0 0 0 0)
(-6.03961e-12 -4.91543e-11 0 -2.1413e-12 1.60805e-11 0 0 0 0)
(2.57572e-12 6.56631e-11 0 1.89735e-12 5.00676e-12 0 0 0 0)
(1.46549e-12 -2.91273e-11 0 -1.57209e-12 -2.32498e-11 0 0 0 0)
(-3.73035e-12 -2.73363e-11 0 2.71051e-13 2.42797e-11 0 0 0 0)
(2.57572e-12 6.79915e-11 0 4.33681e-13 -1.18123e-11 0 0 0 0)
(-2.04281e-12 -7.45855e-11 0 -5.69206e-13 -5.3661e-12 0 0 0 0)
(3.55271e-13 4.65271e-11 0 5.69206e-13 1.93687e-11 0 0 0 0)
(1.77636e-13 2.88927e-12 0 -3.25261e-13 -2.4954e-11 0 0 0 0)
(-8.88178e-13 -5.32889e-11 0 -1.54499e-12 1.87702e-11 0 0 0 0)
(-6.03961e-12 7.79701e-11 0 3.63208e-12 1.97023e-12 0 0 0 0)
(1.36779e-11 -4.5408e-11 0 -1.97867e-12 -2.3877e-11 0 0 0 0)
(-1.40332e-11 -1.75377e-11 0 -4.03865e-12 2.66167e-11 0 0 0 0)
(-2.4869e-12 6.10588e-11 0 7.04731e-12 -1.389e-12 0 0 0 0)
(1.41664e-11 -2.30937e-11 0 -7.86047e-13 -2.54644e-11 0 0 0 0)
(-5.59552e-12 -4.07988e-11 0 -2.1413e-12 1.59731e-11 0 0 0 0)
(0 1.81987e-14 0 0 -1.1958e-14 0 0 0 0)
(0 2.96335e-14 0 0 5.04111e-16 0 0 0 0)
(0 1.61822e-14 0 0 -4.82616e-16 0 0 0 0)
(0 3.15639e-14 0 0 -2.6506e-15 0 0 0 0)
(0 2.67846e-14 0 2.71051e-14 8.05761e-15 0 0 0 0)
(-8.88178e-14 -6.66509e-16 0 2.71051e-14 7.8327e-15 0 0 0 0)
(-4.44089e-14 -4.5462e-15 0 -2.71051e-14 -3.58439e-15 0 0 0 0)
(0 1.3671e-14 0 0 -7.46796e-15 0 0 0 0)
(-8.88178e-14 2.53256e-14 0 0 -4.89347e-15 0 0 0 0)
(0 3.32449e-14 0 0 1.16563e-16 0 0 0 0)
(-8.88178e-14 2.48594e-14 0 0 1.22425e-14 0 0 0 0)
(-4.44089e-14 -1.57252e-14 0 -2.71051e-14 -7.77751e-16 0 0 0 0)
(8.88178e-14 2.79704e-14 0 0 -2.0062e-14 0 0 0 0)
(-4.44089e-14 6.45229e-14 0 2.71051e-14 1.9474e-15 0 0 0 0)
(-4.44089e-14 2.01808e-14 0 -2.71051e-14 1.148e-14 0 0 0 0)
(0 1.86028e-14 0 0 -3.12314e-15 0 0 0 0)
(0 3.26734e-14 0 0 2.87345e-15 0 0 0 0)
(0 7.10895e-15 0 0 5.381e-15 0 0 0 0)
(0 1.11494e-14 0 2.71051e-14 -2.45419e-15 0 0 0 0)
(-4.44089e-14 1.69257e-14 0 -2.71051e-14 7.01877e-15 0 0 0 0)
(-1.54499e-12 1.36513e-11 0 -9.23706e-12 6.9911e-11 0 0 0 0)
(2.27682e-12 -1.65561e-11 0 2.9754e-12 -1.53058e-11 0 0 0 0)
(-6.77626e-13 3.63917e-12 0 -8.88178e-14 3.68666e-12 0 0 0 0)
(8.13152e-14 -8.69078e-13 0 2.66454e-13 -7.49126e-13 0 0 0 0)
(-5.42101e-14 1.8635e-13 0 2.22045e-13 2.10351e-13 0 0 0 0)
(-2.71051e-14 -4.15552e-14 0 1.33227e-13 -3.72775e-15 0 0 0 0)
(0 2.16193e-14 0 1.33227e-13 4.41299e-14 0 0 0 0)
(0 1.37288e-14 0 1.33227e-13 8.27495e-14 0 0 0 0)
(-1.0842e-13 -1.29209e-14 0 4.44089e-14 9.90453e-14 0 0 0 0)
(-2.71051e-14 -2.57351e-14 0 -1.77636e-13 3.1066e-14 0 0 0 0)
(2.71051e-14 -6.71996e-15 0 -8.88178e-14 -3.89534e-15 0 0 0 0)
(0 6.2019e-15 0 -8.88178e-14 4.18618e-15 0 0 0 0)
(0 -8.33448e-16 0 -8.88178e-14 2.09123e-14 0 0 0 0)
(0 -1.10637e-14 0 -8.88178e-14 8.52392e-16 0 0 0 0)
(0 -9.83277e-15 0 -8.88178e-14 -2.33426e-14 0 0 0 0)
(5.42101e-14 1.00754e-14 0 0 -3.84787e-14 0 0 0 0)
(-5.42101e-14 1.37705e-14 0 0 1.69589e-14 0 0 0 0)
(0 -1.02809e-14 0 -1.77636e-13 1.66034e-14 0 0 0 0)
(5.42101e-14 -8.70051e-15 0 4.44089e-14 -2.41648e-14 0 0 0 0)
(0 1.05909e-14 0 0 -1.81987e-14 0 0 0 0)
)
;
    }
    frontAndBack
    {
        type            empty;
    }
}


// ************************************************************************* //
