/*--------------------------------*- C++ -*----------------------------------*\
| =========                 |                                                 |
| \\      /  F ield         | OpenFOAM: The Open Source CFD Toolbox           |
|  \\    /   O peration     | Version:  2506                                  |
|   \\  /    A nd           | Website:  www.openfoam.com                      |
|    \\/     M anipulation  |                                                 |
\*---------------------------------------------------------------------------*/
FoamFile
{
    version     2.0;
    format      ascii;
    arch        "LSB;label=32;scalar=64";
    class       volVectorField;
    location    "9.625";
    object      LambVectorField;
}
// * * * * * * * * * * * * * * * * * * * * * * * * * * * * * * * * * * * * * //

dimensions      [0 1 -2 0 0 0 0];

internalField   nonuniform List<vector> 
400
(
(-2.1017e-24 -1.2025e-11 0)
(-6.16916e-25 1.61224e-11 -0)
(-3.32911e-26 -3.61206e-12 0)
(-1.67839e-27 8.96183e-13 -0)
(-8.3743e-29 -1.59245e-13 0)
(-3.87268e-31 4.15552e-14 -0)
(-2.38514e-30 -2.16193e-14 0)
(-2.84014e-30 -1.37288e-14 0)
(9.91095e-30 4.00259e-14 0)
(-4.31662e-30 -5.558e-14 0)
(4.62476e-31 -4.74902e-14 -0)
(-6.32239e-31 -6.0412e-14 0)
(-2.79057e-30 -5.33767e-14 0)
(-9.19441e-32 -4.31464e-14 0)
(-5.73806e-31 9.83277e-15 -0)
(-1.6382e-30 1.70297e-14 -0)
(5.65346e-31 1.33345e-14 0)
(-1.82343e-30 -4.39292e-14 0)
(-5.25615e-31 8.70051e-15 -0)
(4.81849e-31 -1.05909e-14 -0)
(7.31281e-27 6.27041e-13 0)
(-1.45952e-27 5.8782e-13 -0)
(-1.97681e-28 -2.18363e-13 0)
(-6.73116e-31 2.3824e-14 -0)
(-7.67191e-30 -6.14008e-14 0)
(4.75895e-31 1.09017e-14 0)
(-1.52355e-31 -9.56343e-15 0)
(-1.10045e-29 -7.90059e-14 0)
(1.18248e-31 4.48098e-16 0)
(1.78673e-29 1.3254e-13 0)
(1.5979e-30 7.04269e-14 0)
(-3.37828e-30 1.23467e-13 -0)
(-1.25762e-29 9.84205e-14 -0)
(-1.2878e-29 6.49043e-14 -0)
(2.3128e-30 -9.85336e-15 -0)
(6.49505e-30 -6.50277e-14 -0)
(-6.67177e-30 -4.617e-14 0)
(1.00366e-29 1.10574e-13 0)
(-6.45496e-30 4.35902e-14 -0)
(1.64589e-30 -2.22166e-14 -0)
(-1.01476e-24 6.24981e-12 -0)
(-4.8583e-25 -1.36358e-11 0)
(-2.72031e-26 3.24231e-12 -0)
(-1.32726e-27 -7.17185e-13 0)
(-7.12856e-29 1.76001e-13 -0)
(-3.91186e-30 -4.31522e-14 0)
(7.48716e-31 2.82623e-14 0)
(-1.28859e-30 -1.62947e-14 0)
(-2.12441e-30 -1.12143e-14 0)
(6.8203e-30 3.56667e-14 0)
(7.59099e-30 7.31156e-14 0)
(2.23411e-31 1.03057e-13 0)
(-5.13228e-30 4.51785e-14 -0)
(-1.11961e-29 6.26999e-14 -0)
(2.58702e-30 -1.3033e-14 -0)
(3.50112e-30 -7.25821e-14 -0)
(1.24179e-30 -8.40313e-14 -0)
(1.60419e-30 -7.61168e-14 -0)
(-1.93895e-30 2.90431e-14 -0)
(4.33751e-31 -1.07217e-14 -0)
(-7.48739e-25 -6.09231e-12 0)
(-2.80729e-25 1.06062e-11 -0)
(-1.55785e-26 -2.48633e-12 0)
(-7.60286e-28 5.69927e-13 -0)
(-3.81069e-29 -1.29023e-13 0)
(-9.5545e-31 2.18277e-14 -0)
(-2.3595e-30 -3.06143e-14 0)
(-7.29279e-32 8.40178e-15 -0)
(2.07661e-31 -2.98964e-14 -0)
(-4.42903e-31 -2.30277e-14 0)
(2.35618e-30 -4.93757e-14 -0)
(4.37453e-30 -1.50274e-13 -0)
(-6.97949e-30 -6.99552e-14 0)
(-7.05563e-30 -5.49758e-14 0)
(3.99633e-30 3.72002e-14 0)
(3.52071e-30 1.28544e-13 0)
(-9.50541e-30 1.01326e-13 -0)
(-9.85467e-30 5.70548e-14 -0)
(4.46072e-30 -3.64863e-14 -0)
(1.58741e-30 -2.01167e-14 -0)
(2.39961e-27 7.15626e-13 0)
(-2.95329e-28 2.88785e-13 -0)
(1.35867e-29 6.9938e-14 0)
(-9.60221e-30 1.00296e-13 -0)
(4.48339e-31 1.00605e-13 0)
(-1.41385e-30 8.04169e-14 -0)
(7.97273e-31 5.93269e-14 0)
(-1.08253e-29 1.57459e-13 -0)
(-6.21665e-30 3.01928e-14 -0)
(-1.237e-30 1.24163e-14 -0)
(-5.21073e-33 8.83021e-17 -0)
(4.69264e-30 -4.6688e-14 -0)
(-4.94037e-32 3.6805e-16 -0)
(7.67335e-30 -7.36469e-14 -0)
(-3.11992e-30 -5.18806e-14 0)
(-3.79514e-31 -2.64351e-15 0)
(4.48362e-30 5.17909e-14 0)
(-5.38009e-30 5.2085e-14 -0)
(5.93054e-31 -3.63329e-15 -0)
(-2.73613e-31 4.08612e-15 -0)
(-9.18367e-25 7.47334e-12 -0)
(-2.92108e-25 -1.09243e-11 0)
(-1.61171e-26 2.5483e-12 -0)
(-7.45703e-28 -5.93567e-13 0)
(-3.29669e-29 8.47563e-14 -0)
(-1.8186e-29 -1.32074e-13 0)
(-6.90949e-30 -5.82461e-14 0)
(-5.16343e-30 -2.89989e-14 0)
(1.14064e-31 8.2917e-16 0)
(-3.65295e-31 -2.15178e-15 0)
(1.01637e-29 6.38895e-14 0)
(9.71233e-30 1.33099e-13 0)
(-7.35269e-30 8.38332e-14 -0)
(-1.97597e-29 8.85054e-14 -0)
(1.12503e-29 -7.04866e-14 -0)
(3.77146e-30 -6.23438e-14 -0)
(-2.02285e-30 2.58437e-14 -0)
(1.69452e-30 -3.53899e-14 -0)
(-1.46713e-31 -3.20598e-14 0)
(4.62046e-32 2.77293e-14 0)
(-1.81243e-24 -1.10408e-11 0)
(-5.09605e-25 1.46538e-11 -0)
(-2.98711e-26 -3.55443e-12 0)
(-1.09656e-27 6.56053e-13 -0)
(-1.35767e-28 -2.78141e-13 0)
(-8.2366e-31 -3.19763e-14 0)
(3.78003e-31 -7.17736e-14 -0)
(9.85513e-30 -1.4148e-13 -0)
(-6.66307e-30 -1.22744e-13 0)
(-8.66686e-30 -1.17783e-13 0)
(-1.77818e-29 -1.20215e-13 0)
(-1.01585e-29 -5.30373e-14 0)
(-4.62568e-30 -3.39656e-14 0)
(-5.7234e-31 5.24614e-14 -0)
(-7.69829e-30 6.55863e-14 -0)
(6.93941e-30 -5.56615e-14 -0)
(6.60182e-30 -6.41812e-14 -0)
(1.67765e-30 -6.72129e-14 -0)
(-9.86825e-32 -3.63257e-15 0)
(-2.6427e-31 -2.32519e-14 0)
(-3.00235e-25 4.12307e-12 -0)
(-1.03167e-25 -6.50215e-12 0)
(-5.09543e-27 1.47274e-12 -0)
(-4.32635e-28 -3.7978e-13 0)
(9.07517e-30 1.35622e-13 0)
(5.67949e-31 1.0518e-14 0)
(-6.02654e-31 1.57496e-14 -0)
(-8.66622e-31 8.37328e-15 -0)
(-1.88335e-31 1.54377e-15 -0)
(4.34479e-30 -3.65304e-14 -0)
(1.12382e-30 -4.05074e-14 -0)
(-1.22113e-30 -8.09374e-14 0)
(1.01074e-31 -3.20657e-15 -0)
(-5.61284e-30 -1.19034e-13 0)
(-4.01049e-30 -5.3745e-14 0)
(5.04096e-31 1.18606e-14 0)
(1.8603e-30 -4.22933e-14 -0)
(-2.54697e-31 3.32215e-15 -0)
(3.28042e-31 -4.24885e-15 -0)
(3.80687e-31 -1.11385e-14 -0)
(-3.83354e-25 5.60946e-12 -0)
(-9.47483e-26 -6.33492e-12 0)
(-5.3652e-27 1.59433e-12 -0)
(-2.19749e-28 -2.41323e-13 0)
(-2.06654e-29 1.48889e-13 -0)
(-2.62707e-30 7.25923e-14 -0)
(-3.94524e-30 7.65049e-14 -0)
(9.23929e-31 7.75555e-14 0)
(-1.25249e-30 8.96449e-14 -0)
(-6.65676e-30 9.32519e-14 -0)
(-1.5253e-29 1.14393e-13 -0)
(-9.94495e-30 7.58501e-14 -0)
(-3.09437e-30 3.93244e-14 -0)
(8.67023e-31 4.88639e-14 0)
(-1.65498e-30 6.56048e-14 -0)
(-6.55542e-30 6.81411e-14 -0)
(-1.45336e-29 8.83309e-14 -0)
(-1.25201e-29 7.52587e-14 -0)
(1.0714e-30 -1.03047e-14 -0)
(1.05915e-30 -1.67286e-14 -0)
(-2.19198e-24 -1.28956e-11 0)
(-5.77961e-25 1.57543e-11 -0)
(-3.13353e-26 -3.62643e-12 0)
(-1.44426e-27 8.12816e-13 -0)
(-1.35094e-28 -2.63517e-13 0)
(-5.87316e-31 -1.30028e-14 0)
(-8.04812e-31 -8.00155e-15 0)
(-5.44003e-31 -4.34563e-15 0)
(2.4361e-30 1.69128e-14 0)
(-3.71588e-30 8.45587e-14 -0)
(-6.27668e-30 3.93652e-14 -0)
(-1.62605e-30 9.76336e-15 -0)
(-3.70744e-31 -2.65396e-14 0)
(1.66793e-31 1.68732e-15 0)
(-1.45041e-31 4.99497e-14 -0)
(-5.38757e-30 4.15721e-14 -0)
(-4.00712e-30 2.71533e-14 -0)
(4.54724e-30 -3.49579e-14 -0)
(-1.54722e-30 2.24085e-14 -0)
(1.26462e-30 -1.52158e-14 -0)
(-2.60738e-24 1.39833e-11 -0)
(-7.04754e-25 -1.72149e-11 0)
(-3.80486e-26 4.03218e-12 -0)
(-1.88378e-27 -8.3977e-13 0)
(-1.81435e-28 3.65476e-13 -0)
(-2.53841e-30 4.50883e-14 -0)
(4.69414e-31 -3.49873e-15 -0)
(1.26713e-30 -5.94584e-14 -0)
(-1.38625e-30 1.6971e-14 -0)
(3.1201e-30 -1.63338e-14 -0)
(2.23247e-29 -1.17873e-13 -0)
(1.02005e-29 -1.05715e-13 -0)
(-6.99218e-30 -1.2806e-13 0)
(-7.82389e-30 -7.83104e-14 0)
(1.17396e-30 4.78134e-14 0)
(-4.38173e-30 4.08839e-14 -0)
(4.91518e-31 -4.34065e-15 -0)
(4.56232e-31 -7.15451e-15 -0)
(6.75359e-33 -1.61992e-16 -0)
(6.45346e-31 -1.03839e-14 -0)
(-9.92109e-25 -8.5293e-12 0)
(-2.71533e-25 1.07187e-11 -0)
(-1.51976e-26 -2.47146e-12 0)
(-6.6619e-28 5.74213e-13 -0)
(-4.98068e-29 -1.22346e-13 0)
(1.51673e-30 2.39665e-14 0)
(8.20127e-31 4.8983e-15 0)
(1.33384e-30 9.32596e-14 0)
(7.79785e-30 -3.49579e-14 -0)
(1.79174e-29 -1.00535e-13 -0)
(1.4964e-30 -4.84879e-14 -0)
(-9.10928e-31 -2.55815e-14 0)
(2.82325e-31 -6.12459e-15 -0)
(-2.42504e-30 1.39213e-14 -0)
(1.18335e-29 -6.38579e-14 -0)
(1.00419e-29 -1.2921e-13 -0)
(-1.41651e-30 -6.27126e-14 0)
(-3.84071e-31 -5.2563e-14 0)
(-1.85362e-31 -3.03057e-14 0)
(-8.86986e-31 -2.25621e-14 0)
(-6.5764e-27 -9.10458e-13 0)
(-7.30731e-28 5.32911e-13 -0)
(-1.28304e-28 -2.38122e-13 0)
(7.65835e-30 -1.03226e-13 -0)
(-5.07431e-29 -2.35111e-13 0)
(-6.68265e-29 -1.7606e-13 0)
(-4.29271e-29 -1.22606e-13 0)
(-6.65613e-30 -2.65845e-14 0)
(1.12353e-30 1.52104e-14 0)
(8.54778e-32 8.69809e-16 0)
(2.59669e-30 3.98463e-14 0)
(-1.52379e-30 5.22918e-14 -0)
(-1.99804e-29 1.07019e-13 -0)
(-2.65546e-29 9.27893e-14 -0)
(1.60033e-30 -5.30895e-15 -0)
(5.73977e-30 -2.46244e-14 -0)
(6.10178e-30 -1.10548e-13 -0)
(-4.61401e-31 -7.7895e-15 0)
(2.93182e-31 1.2916e-14 0)
(3.30238e-31 -4.72268e-15 -0)
(-1.17594e-24 8.82692e-12 -0)
(-3.57037e-25 -1.21016e-11 0)
(-1.86461e-26 2.86237e-12 -0)
(-1.02487e-27 -6.05472e-13 0)
(-4.66857e-29 2.47759e-13 -0)
(2.18978e-30 7.75354e-14 0)
(-1.37602e-29 9.13483e-14 -0)
(-2.7846e-30 3.8627e-14 -0)
(3.65204e-31 7.02803e-14 0)
(2.14152e-30 5.59737e-14 0)
(-1.10884e-30 8.91414e-14 -0)
(-5.74712e-30 1.43668e-13 -0)
(-6.12132e-30 6.52135e-14 -0)
(-5.20597e-30 3.4698e-14 -0)
(-9.72115e-30 5.72521e-14 -0)
(-1.05485e-29 5.84545e-14 -0)
(-5.04754e-30 2.37823e-14 -0)
(-6.3665e-30 4.32423e-14 -0)
(-1.44391e-31 1.40785e-15 -0)
(-1.15853e-31 7.18211e-16 -0)
(-2.26185e-24 -1.16037e-11 0)
(-7.38783e-25 1.73554e-11 -0)
(-4.17496e-26 -4.0699e-12 0)
(-1.76463e-27 9.44227e-13 -0)
(-8.84529e-29 -1.08416e-13 0)
(5.41018e-30 1.90186e-13 0)
(-2.35218e-31 1.31366e-13 -0)
(-1.35932e-29 6.76241e-14 -0)
(-2.77192e-30 2.03922e-14 -0)
(-3.36046e-30 2.50998e-14 -0)
(3.69622e-30 -3.18974e-14 -0)
(2.52746e-30 -2.94028e-14 -0)
(-1.67741e-31 1.80559e-15 -0)
(-2.11421e-30 2.03258e-14 -0)
(1.15366e-30 -4.59467e-14 -0)
(6.57566e-31 7.79107e-15 0)
(-1.41049e-29 1.36915e-13 -0)
(-1.28659e-30 6.41539e-15 -0)
(2.5092e-30 -1.50096e-14 -0)
(2.46547e-30 -4.88676e-14 -0)
(-7.81391e-25 6.88328e-12 -0)
(-2.49439e-25 -1.00174e-11 0)
(-1.45612e-26 2.41558e-12 -0)
(-6.68884e-28 -5.19734e-13 0)
(-2.85919e-29 9.90658e-14 -0)
(-3.30605e-31 -1.3085e-14 0)
(5.57941e-30 -3.53652e-14 -0)
(1.00191e-29 -6.13977e-14 -0)
(5.45166e-30 -6.34724e-14 -0)
(1.85712e-30 -2.63197e-14 -0)
(7.52464e-30 -8.02679e-14 -0)
(8.82493e-30 -1.08905e-13 -0)
(4.95446e-30 -5.57349e-14 -0)
(7.62576e-30 -1.15919e-13 -0)
(1.309e-30 -9.41141e-14 -0)
(-1.8688e-32 -3.00433e-16 0)
(4.50404e-31 -4.1305e-14 -0)
(-8.0985e-31 1.21149e-14 -0)
(2.68603e-31 -2.03405e-15 -0)
(8.30428e-31 -1.7856e-14 -0)
(2.82248e-26 -6.43751e-13 -0)
(-3.12358e-26 -3.15662e-12 0)
(-1.6648e-27 7.40143e-13 -0)
(-7.53971e-29 -1.26386e-13 0)
(-1.1286e-29 6.551e-14 -0)
(2.1263e-30 -3.63231e-14 -0)
(-7.20503e-32 8.99524e-16 -0)
(3.63183e-30 -5.37779e-14 -0)
(-2.33573e-31 2.76678e-15 -0)
(-2.22338e-31 2.33544e-15 -0)
(-3.66024e-30 3.39619e-14 -0)
(-1.60307e-30 9.78854e-15 -0)
(1.26542e-29 -6.15297e-14 -0)
(4.5307e-30 -5.00218e-14 -0)
(-9.1971e-31 -3.91246e-14 0)
(-1.60631e-30 -5.42292e-14 0)
(-9.7681e-31 -4.12195e-14 0)
(-1.91685e-30 1.91139e-14 -0)
(3.11478e-31 -1.86022e-15 -0)
(2.03494e-30 -2.49125e-14 -0)
(-7.45907e-25 -4.88648e-12 0)
(-4.21154e-25 1.26438e-11 -0)
(-2.30717e-26 -2.96649e-12 0)
(-1.04825e-27 6.00076e-13 -0)
(-9.73243e-29 -2.30945e-13 0)
(6.09145e-32 2.97418e-15 0)
(-5.80955e-30 -4.81621e-14 0)
(-3.06795e-30 7.67004e-14 -0)
(-8.20766e-32 7.87092e-16 -0)
(6.61921e-31 -1.38275e-14 -0)
(1.6854e-30 4.95757e-14 0)
(-1.27477e-31 8.35632e-14 -0)
(6.39379e-31 5.55215e-14 0)
(-1.46656e-30 1.00182e-13 -0)
(-1.95675e-29 1.10457e-13 -0)
(-1.56935e-29 5.12767e-14 -0)
(-4.73817e-30 3.20543e-14 -0)
(7.72199e-31 -9.13884e-15 -0)
(3.76513e-31 -6.67239e-15 -0)
(1.31873e-31 -7.42008e-15 -0)
(-2.19727e-25 3.80582e-12 -0)
(-6.03543e-26 -5.10799e-12 0)
(-3.97675e-27 1.27021e-12 -0)
(-1.14801e-28 -2.44887e-13 0)
(-2.17843e-29 1.55814e-13 -0)
(-2.38934e-31 4.63964e-14 -0)
(-7.22853e-30 1.17209e-13 -0)
(-5.99177e-30 6.4405e-14 -0)
(-9.20509e-30 5.62585e-14 -0)
(-1.33294e-30 1.17422e-14 -0)
(-7.11492e-32 7.11968e-15 -0)
(1.00326e-30 1.16203e-14 0)
(8.49776e-30 5.86642e-14 0)
(3.35554e-30 8.0283e-14 0)
(-9.72746e-30 8.39481e-14 -0)
(-9.37558e-30 3.6683e-14 -0)
(-2.58782e-30 1.22266e-14 -0)
(2.25462e-30 -2.11108e-14 -0)
(4.31138e-33 -7.89259e-15 -0)
(-6.76295e-31 2.42631e-14 -0)
(-6.0096e-25 5.89193e-12 -0)
(-2.00396e-25 -9.24987e-12 0)
(-9.63084e-27 1.86589e-12 -0)
(-5.44342e-28 -4.91044e-13 0)
(-1.50848e-29 6.00755e-14 -0)
(2.4344e-30 -7.09403e-14 -0)
(4.51977e-30 -5.39383e-14 -0)
(1.861e-30 -5.02504e-14 -0)
(5.15961e-30 -4.18148e-14 -0)
(3.96855e-30 -2.46513e-14 -0)
(5.02902e-30 -3.3996e-14 -0)
(5.69234e-30 -6.18206e-14 -0)
(4.11797e-30 -5.7333e-14 -0)
(3.8986e-30 -6.40698e-14 -0)
(-1.66274e-30 -6.21085e-14 0)
(-3.62099e-31 -1.99669e-14 0)
(8.70424e-31 -1.95119e-14 -0)
(1.16434e-31 -2.01456e-15 -0)
(3.78757e-32 -1.54821e-15 -0)
(1.4295e-30 -3.37829e-14 -0)
)
;

boundaryField
{
    movingWall
    {
        type            calculated;
        value           nonuniform List<vector> 
20
(
(0 1.36288e-11 -0)
(0 -1.16375e-11 -0)
(0 1.74476e-12 -0)
(0 -7.57498e-13 -0)
(0 -2.40986e-13 -0)
(0 -3.72002e-13 -0)
(0 -2.66182e-13 -0)
(0 -2.18085e-13 -0)
(0 -2.54058e-13 -0)
(0 -1.30773e-13 -0)
(0 -9.57088e-14 -0)
(0 -1.40837e-13 -0)
(0 -1.80759e-13 -0)
(0 -9.86775e-14 -0)
(0 -1.41125e-13 -0)
(0 -3.72708e-14 -0)
(0 -3.68158e-14 -0)
(0 -2.01456e-15 -0)
(0 -1.54821e-15 -0)
(0 -5.10868e-14 -0)
)
;
    }
    fixedWalls
    {
        type            calculated;
        value           nonuniform List<vector> 
60
(
(0 -6.82847e-11 -0)
(0 -3.11997e-12 -0)
(0 5.85226e-11 -0)
(0 -4.56088e-11 -0)
(0 -3.92589e-13 -0)
(0 4.7013e-11 -0)
(0 -6.37657e-11 -0)
(0 2.75552e-11 -0)
(0 2.76073e-11 -0)
(0 -6.75578e-11 -0)
(0 7.40163e-11 -0)
(0 -4.59579e-11 -0)
(0 -3.21453e-12 -0)
(0 5.1744e-11 -0)
(0 -7.4338e-11 -0)
(0 4.34294e-11 -0)
(0 1.34991e-11 -0)
(0 -5.40115e-11 -0)
(0 2.23077e-11 -0)
(0 3.86575e-11 -0)
(0 -1.81987e-14 -0)
(0 -2.96335e-14 -0)
(0 -1.61822e-14 -0)
(0 -3.15639e-14 -0)
(0 3.20451e-16 -0)
(0 2.77716e-14 -0)
(0 -2.25589e-14 -0)
(0 -1.3671e-14 -0)
(0 -2.53256e-14 -0)
(0 -3.32449e-14 -0)
(0 -2.48594e-14 -0)
(0 -1.13798e-14 -0)
(0 -2.79704e-14 -0)
(0 -3.74178e-14 -0)
(0 -4.72859e-14 -0)
(0 -1.86028e-14 -0)
(0 -3.26734e-14 -0)
(0 -7.10895e-15 -0)
(0 1.59557e-14 -0)
(0 -4.40308e-14 -0)
(0 -2.28884e-11 -0)
(0 1.95315e-11 -0)
(0 -3.72799e-12 -0)
(0 1.13553e-12 -0)
(0 3.56949e-14 -0)
(0 1.74782e-13 -0)
(0 1.11607e-13 -0)
(0 1.19498e-13 -0)
(0 5.73298e-14 -0)
(0 -1.51901e-13 -0)
(0 -8.20979e-14 -0)
(0 -9.50197e-14 -0)
(0 -8.79844e-14 -0)
(0 -7.77541e-14 -0)
(0 -7.89851e-14 -0)
(0 -1.00754e-14 -0)
(0 -1.37705e-14 -0)
(0 -1.67355e-13 -0)
(0 5.31094e-14 -0)
(0 -1.05909e-14 -0)
)
;
    }
    frontAndBack
    {
        type            empty;
    }
}


// ************************************************************************* //
