/*--------------------------------*- C++ -*----------------------------------*\
| =========                 |                                                 |
| \\      /  F ield         | OpenFOAM: The Open Source CFD Toolbox           |
|  \\    /   O peration     | Version:  2506                                  |
|   \\  /    A nd           | Website:  www.openfoam.com                      |
|    \\/     M anipulation  |                                                 |
\*---------------------------------------------------------------------------*/
FoamFile
{
    version     2.0;
    format      ascii;
    arch        "LSB;label=32;scalar=64";
    class       volScalarField;
    location    "9.625";
    object      p;
}
// * * * * * * * * * * * * * * * * * * * * * * * * * * * * * * * * * * * * * //

dimensions      [0 2 -2 0 0 0 0];

internalField   nonuniform List<scalar> 
400
(
0
3.31985e-15
2.30102e-15
2.69092e-15
2.77082e-15
2.84427e-15
2.68621e-15
2.84795e-15
3.1627e-15
3.06271e-15
2.91814e-15
3.06917e-15
3.13229e-15
3.11652e-15
2.939e-15
3.20169e-15
3.59034e-15
3.37109e-15
3.1939e-15
3.30431e-15
2.21205e-15
0
2.4138e-15
2.30235e-15
2.83817e-15
2.77283e-15
2.82432e-15
2.81047e-15
2.90291e-15
3.1361e-15
2.98291e-15
3.05171e-15
3.19709e-15
3.12082e-15
2.88484e-15
3.2878e-15
3.44756e-15
3.35588e-15
3.2994e-15
3.41472e-15
1.44932e-15
3.28793e-15
2.40458e-15
2.81164e-15
2.72314e-15
2.67463e-15
2.85945e-15
2.93086e-15
2.89098e-15
3.03942e-15
3.04083e-15
3.08595e-15
3.33339e-15
3.23661e-15
3.24282e-15
3.56296e-15
3.46702e-15
3.15142e-15
3.30914e-15
3.36797e-15
1.63306e-15
3.36497e-15
2.55581e-15
2.79313e-15
2.75419e-15
2.70503e-15
2.85237e-15
3.02959e-15
2.92061e-15
3.11695e-15
3.31561e-15
3.40596e-15
3.35531e-15
3.27569e-15
3.35726e-15
3.55964e-15
3.60241e-15
3.29926e-15
3.18904e-15
3.38009e-15
2.84344e-15
0
2.66086e-15
2.64856e-15
2.88134e-15
2.91583e-15
2.9819e-15
3.13292e-15
3.1294e-15
3.25247e-15
3.48727e-15
3.50099e-15
3.38424e-15
3.26173e-15
3.39411e-15
3.62708e-15
3.46531e-15
3.28114e-15
3.29523e-15
3.58335e-15
1.74634e-15
4.42728e-15
2.92979e-15
3.04439e-15
2.99411e-15
3.06296e-15
2.88766e-15
2.93855e-15
3.37318e-15
3.4557e-15
3.4922e-15
3.52506e-15
3.55991e-15
3.65396e-15
3.504e-15
3.50989e-15
3.29598e-15
3.16147e-15
3.23165e-15
3.52989e-15
2.4692e-15
4.02877e-15
2.79193e-15
3.09521e-15
3.29475e-15
3.17972e-15
3.03757e-15
2.98641e-15
3.30992e-15
3.57132e-15
3.57995e-15
3.54092e-15
3.4558e-15
3.64293e-15
3.53095e-15
3.34002e-15
3.3352e-15
3.23825e-15
3.22583e-15
3.50233e-15
3.80043e-15
0
2.8798e-15
2.90531e-15
3.39332e-15
3.34406e-15
3.17142e-15
3.1558e-15
3.26702e-15
3.58484e-15
3.52385e-15
3.53214e-15
3.46596e-15
3.7273e-15
3.59988e-15
3.40677e-15
3.3145e-15
3.27053e-15
3.24251e-15
3.4789e-15
2.60721e-15
6.50511e-15
2.80946e-15
3.14354e-15
3.22553e-15
3.38489e-15
3.11482e-15
3.25911e-15
3.57471e-15
3.57283e-15
3.42192e-15
3.3893e-15
3.66654e-15
3.654e-15
3.48708e-15
3.37307e-15
3.48027e-15
3.437e-15
3.50639e-15
3.69195e-15
3.55202e-15
1.425e-15
2.96601e-15
2.94563e-15
3.27775e-15
3.31598e-15
3.25809e-15
3.41577e-15
3.56757e-15
3.60341e-15
3.49064e-15
3.4787e-15
3.58174e-15
3.56988e-15
3.56211e-15
3.44063e-15
3.48529e-15
3.58999e-15
3.67025e-15
3.81818e-15
3.76708e-15
1.96227e-15
3.1353e-15
2.79285e-15
3.24004e-15
3.34511e-15
3.34523e-15
3.49889e-15
3.43288e-15
3.66187e-15
3.49998e-15
3.53274e-15
3.75771e-15
3.6817e-15
3.47632e-15
3.57972e-15
3.54615e-15
3.65789e-15
3.80462e-15
4.0924e-15
3.1472e-15
6.71442e-15
3.16576e-15
2.99671e-15
3.01378e-15
3.53552e-15
3.52684e-15
3.43481e-15
3.65166e-15
3.87148e-15
3.63138e-15
3.57858e-15
3.69644e-15
3.55277e-15
3.57978e-15
3.70587e-15
3.74561e-15
3.7793e-15
3.93459e-15
4.10956e-15
4.22908e-15
0
3.4538e-15
2.74695e-15
3.46088e-15
3.24734e-15
3.27881e-15
3.35795e-15
3.84472e-15
3.92567e-15
3.74145e-15
3.48778e-15
3.57554e-15
3.74746e-15
3.66223e-15
3.73978e-15
3.75852e-15
3.96449e-15
4.12146e-15
4.02928e-15
3.1279e-15
6.54039e-15
3.30676e-15
3.54174e-15
3.2143e-15
3.3308e-15
3.42163e-15
3.26094e-15
3.69556e-15
3.7822e-15
3.64426e-15
3.57123e-15
3.72656e-15
3.83179e-15
3.79193e-15
4.00546e-15
3.83833e-15
3.82864e-15
4.0515e-15
4.40175e-15
3.70781e-15
2.73374e-15
3.60146e-15
3.46092e-15
3.19589e-15
3.31824e-15
3.45407e-15
3.50682e-15
3.72221e-15
3.70964e-15
3.63839e-15
3.61899e-15
3.77304e-15
3.87093e-15
3.81438e-15
3.69131e-15
3.88456e-15
4.16348e-15
4.20484e-15
4.57965e-15
4.19803e-15
1.63098e-15
3.70283e-15
3.51969e-15
3.31552e-15
3.39739e-15
3.51509e-15
3.65612e-15
3.74545e-15
3.75718e-15
3.69354e-15
3.68539e-15
3.72529e-15
3.96056e-15
3.90153e-15
3.68247e-15
4.03549e-15
4.33594e-15
4.44938e-15
4.58757e-15
3.05656e-15
6.00542e-15
3.75615e-15
3.61781e-15
3.39018e-15
3.47623e-15
3.5895e-15
3.56507e-15
3.63842e-15
3.70968e-15
3.86847e-15
3.86044e-15
3.88382e-15
4.01703e-15
3.98491e-15
3.83934e-15
4.1795e-15
4.30632e-15
4.50098e-15
4.73373e-15
3.94463e-15
3.00427e-15
3.70503e-15
3.32894e-15
3.48497e-15
3.58413e-15
3.55966e-15
3.65789e-15
3.60753e-15
3.70965e-15
3.88676e-15
3.95845e-15
4.19468e-15
4.13914e-15
4.08496e-15
3.90803e-15
4.2167e-15
4.39131e-15
4.67972e-15
4.84027e-15
4.30678e-15
1.68659e-15
3.85945e-15
3.44865e-15
3.66279e-15
3.58967e-15
3.45651e-15
3.79404e-15
3.74203e-15
3.83335e-15
3.74467e-15
4.04764e-15
4.1775e-15
4.15099e-15
4.08343e-15
4.17489e-15
4.35407e-15
4.43859e-15
4.65793e-15
4.83496e-15
2.25359e-15
5.7253e-15
4.04968e-15
3.92681e-15
3.46485e-15
3.62233e-15
3.54e-15
3.54121e-15
3.83443e-15
3.94762e-15
3.90265e-15
4.01572e-15
4.09686e-15
4.09732e-15
4.04408e-15
4.22396e-15
4.45293e-15
4.50833e-15
4.63348e-15
5.00683e-15
)
;

boundaryField
{
    movingWall
    {
        type            zeroGradient;
    }
    fixedWalls
    {
        type            zeroGradient;
    }
    frontAndBack
    {
        type            empty;
    }
}


// ************************************************************************* //
