/*--------------------------------*- C++ -*----------------------------------*\
| =========                 |                                                 |
| \\      /  F ield         | OpenFOAM: The Open Source CFD Toolbox           |
|  \\    /   O peration     | Version:  2506                                  |
|   \\  /    A nd           | Website:  www.openfoam.com                      |
|    \\/     M anipulation  |                                                 |
\*---------------------------------------------------------------------------*/
FoamFile
{
    version     2.0;
    format      ascii;
    arch        "LSB;label=32;scalar=64";
    class       volScalarField;
    location    "9.625";
    object      QField;
}
// * * * * * * * * * * * * * * * * * * * * * * * * * * * * * * * * * * * * * //

dimensions      [0 0 -2 0 0 0 0];

internalField   nonuniform List<scalar> 
400
(
-5.10059e-23
-1.64575e-23
-7.84529e-25
8.09781e-27
-8.57914e-27
-9.30621e-29
0
0
-5.19549e-27
-2.66856e-27
-3.29187e-28
3.36206e-28
-4.51813e-29
-5.99765e-28
0
-1.33603e-27
-1.38645e-27
-5.57329e-28
-1.13025e-27
0
-9.64565e-23
-2.93664e-23
-1.86785e-24
-3.45077e-26
-4.65664e-27
0
0
9.97795e-28
-3.15365e-28
1.99949e-27
8.79116e-28
1.63139e-27
1.39092e-27
5.79733e-28
-1.13956e-27
1.15789e-27
6.71728e-28
2.54881e-27
4.46831e-28
0
-8.68417e-23
-2.90133e-23
-5.88547e-25
-6.49302e-26
0
0
3.13668e-29
0
-7.34098e-28
2.32065e-28
8.34028e-28
1.76797e-27
-7.43674e-28
-4.25441e-28
-9.27398e-28
-3.89531e-29
-4.2509e-28
-3.27948e-27
-1.74702e-29
1.30813e-29
-6.56831e-23
-2.10716e-23
-5.80018e-25
-2.14583e-26
-1.10992e-27
-2.93369e-28
9.51177e-29
0
-2.06747e-27
-8.98868e-28
-7.03429e-28
1.99887e-27
8.53544e-28
-1.60088e-28
-4.274e-28
2.18182e-27
1.0778e-27
1.54214e-28
-2.68666e-28
0
-4.81876e-23
-1.45748e-23
-1.03886e-24
1.54345e-27
-8.47379e-28
-7.30388e-29
2.77384e-28
1.96027e-27
8.36945e-29
-3.98141e-28
-1.12107e-27
-6.84465e-28
-5.08157e-28
-8.52362e-28
-1.49987e-27
0
6.26997e-28
6.77083e-28
-3.43783e-28
-8.42332e-28
-3.62788e-23
-1.39282e-23
-4.00541e-25
4.27097e-27
-4.34299e-27
4.00997e-27
1.68092e-28
4.88738e-29
-7.05226e-28
-4.69489e-28
5.24719e-28
1.88409e-27
8.72899e-28
-1.73843e-28
4.01203e-28
-1.01318e-27
-5.4765e-28
1.22358e-29
1.16643e-27
-4.07691e-28
-2.15626e-23
-1.37055e-23
8.23108e-25
-1.06644e-25
1.46942e-26
-4.012e-27
-1.20113e-27
8.07063e-28
1.45927e-28
-5.4989e-28
1.27884e-27
-6.35808e-29
-9.45168e-28
-4.567e-29
6.16704e-28
7.86818e-29
4.47602e-28
7.82906e-28
-2.21675e-28
-7.28482e-30
-9.58352e-24
-5.83876e-24
-3.82802e-25
4.45525e-26
6.33991e-27
0
0
0
-3.70015e-28
2.55475e-28
3.63271e-28
-9.05256e-28
-1.16484e-27
9.95459e-28
-2.74989e-28
0
-6.46009e-28
-3.83269e-28
-7.10898e-28
0
-1.23732e-23
-6.32711e-24
-2.25482e-25
-2.52366e-27
5.13255e-27
-7.09304e-28
-3.91147e-28
-3.05719e-28
-4.37534e-29
9.70635e-28
2.90593e-28
-1.42903e-27
-1.05356e-27
-4.29942e-28
4.07579e-28
-1.77741e-28
5.70489e-28
-4.92484e-28
2.21207e-29
1.32638e-28
-1.09034e-23
-7.74207e-24
3.25005e-25
0
1.48158e-26
-2.23385e-27
0
0
0
1.6452e-27
3.32312e-28
-4.70047e-28
0
0
4.84277e-28
3.9213e-28
1.30654e-30
-6.52282e-29
-1.273e-28
0
-5.6653e-24
-8.17542e-24
6.56319e-25
-4.51197e-26
3.17364e-26
-2.84758e-27
3.62389e-28
2.84512e-28
-2.9851e-27
-2.91956e-28
1.37343e-27
1.98406e-27
2.29218e-27
-2.44334e-28
-4.27526e-28
3.73478e-28
0
-3.72382e-28
2.03729e-28
-6.63669e-28
2.17093e-24
-3.85814e-24
-8.526e-26
1.8844e-26
3.86118e-27
-5.90708e-27
-3.938e-27
1.38047e-27
-1.04366e-27
-7.89492e-28
-1.10415e-28
-4.12964e-29
-5.68677e-28
-3.1395e-27
-1.24421e-27
2.59533e-27
3.03602e-28
-8.92892e-29
2.61283e-28
-1.02056e-28
6.95414e-24
-1.27965e-24
-2.60532e-25
3.42862e-26
1.18377e-26
1.99408e-27
-3.4751e-27
-1.73175e-27
-6.18701e-28
-1.17353e-27
3.45351e-28
2.72796e-28
1.96066e-27
8.67534e-28
0
-2.78474e-28
2.37706e-27
0
0
-1.08756e-27
-1.60245e-23
-8.44061e-24
1.5388e-26
1.20408e-26
1.35344e-26
-3.07352e-28
8.1585e-28
-4.51523e-27
-1.46596e-27
9.56021e-29
1.45665e-28
1.10354e-27
3.42253e-28
2.05807e-28
1.64907e-28
-3.21217e-27
-9.00643e-29
-2.70699e-27
-5.1465e-28
-7.68001e-28
-5.79007e-23
-2.11834e-23
-1.31772e-26
-3.29903e-27
-1.59711e-26
8.84889e-27
2.4878e-27
9.74083e-28
-1.81951e-28
-5.43512e-29
-9.04803e-29
6.22799e-29
0
-4.12115e-28
5.10702e-28
0
3.63513e-27
-4.35748e-28
-7.99384e-29
2.78708e-28
-7.77232e-23
-2.52153e-23
-9.56836e-25
-6.45264e-26
-1.41333e-26
0
-1.02158e-27
3.89637e-28
3.6249e-28
-1.26136e-28
-8.51593e-29
5.25922e-29
-2.22976e-28
8.12985e-28
1.04075e-27
0
-1.04306e-27
0
0
0
-8.22484e-23
-2.42093e-23
-1.44871e-24
-4.97823e-26
-3.84909e-27
2.49855e-28
-1.50916e-27
-2.34305e-29
0
0
-1.60385e-28
0
3.96796e-28
6.21159e-28
3.2579e-28
-9.97131e-28
-1.44643e-27
0
0
0
-8.33482e-23
-2.6587e-23
-5.8929e-25
-1.00732e-25
9.58083e-27
-8.15299e-28
-3.27864e-28
1.2192e-27
-2.14675e-28
4.96427e-29
-5.16271e-28
1.82802e-28
-1.82905e-27
1.17535e-27
2.36965e-27
-9.32066e-28
-2.47691e-27
-1.76553e-29
-4.5237e-28
0
-7.05602e-23
-2.06989e-23
-9.33427e-25
-5.49121e-26
5.13849e-27
-4.23581e-28
-7.09418e-28
5.36595e-28
1.11043e-28
-4.1641e-28
-1.52793e-27
-6.65159e-28
2.41456e-28
1.28816e-27
1.05937e-27
-6.19105e-28
-4.03281e-28
0
0
-7.70317e-29
-3.1489e-23
-9.00926e-24
-7.04693e-25
0
-5.13588e-27
7.99971e-28
-4.09027e-28
-2.14655e-28
-2.22785e-27
-8.10555e-28
1.86779e-28
4.12563e-28
1.69294e-28
5.34495e-28
4.28174e-28
-8.37086e-28
-9.00417e-28
0
6.7791e-29
-9.2407e-30
)
;

boundaryField
{
    movingWall
    {
        type            calculated;
        value           nonuniform List<scalar> 
20
(
8.45695e-24
6.47244e-24
-1.42248e-24
1.3084e-25
-3.788e-26
5.57169e-27
-9.80938e-28
-8.79225e-28
-5.97842e-27
-2.07234e-27
6.12036e-28
1.01392e-27
5.54742e-28
8.75717e-28
1.05228e-27
-1.20377e-28
-8.20863e-28
0
2.65241e-28
-1.62216e-28
)
;
    }
    fixedWalls
    {
        type            calculated;
        value           nonuniform List<scalar> 
60
(
-2.85912e-22
-5.37223e-22
-4.50801e-22
-3.37933e-22
-2.73057e-22
-2.02374e-22
-1.1169e-22
-7.98633e-23
-8.31622e-23
-5.99118e-23
-3.14926e-23
-1.96024e-23
-3.49296e-24
-9.90021e-23
-2.95093e-22
-4.16435e-22
-4.44347e-22
-4.26846e-22
-3.78893e-22
-1.76741e-22
0
0
0
0
-7.25998e-28
-6.77618e-28
3.59538e-29
0
4.34627e-28
0
-1.08736e-27
-3.91694e-28
-1.78187e-27
-1.83538e-27
3.7186e-29
0
0
0
-3.02204e-28
1.47076e-28
1.80862e-23
1.44123e-23
-2.17496e-24
1.70653e-25
-5.27811e-26
5.6373e-27
-2.88027e-27
-1.82905e-27
-1.01647e-26
-5.41353e-27
-7.02435e-28
5.5084e-28
-7.4025e-29
-9.82656e-28
-8.73326e-28
-2.08593e-27
-9.19341e-28
-1.82626e-27
-9.23596e-28
0
)
;
    }
    frontAndBack
    {
        type            empty;
    }
}


// ************************************************************************* //
