/*--------------------------------*- C++ -*----------------------------------*\
| =========                 |                                                 |
| \\      /  F ield         | OpenFOAM: The Open Source CFD Toolbox           |
|  \\    /   O peration     | Version:  2506                                  |
|   \\  /    A nd           | Website:  www.openfoam.com                      |
|    \\/     M anipulation  |                                                 |
\*---------------------------------------------------------------------------*/
FoamFile
{
    version     2.0;
    format      ascii;
    arch        "LSB;label=32;scalar=64";
    class       volVectorField;
    location    "9.625";
    object      UzeroGrad;
}
// * * * * * * * * * * * * * * * * * * * * * * * * * * * * * * * * * * * * * //

dimensions      [0 1 -1 0 0 0 0];

internalField   nonuniform List<vector> 
400
(
(-1 1.74778e-13 0)
(-1 -3.82645e-14 0)
(-1 9.21665e-15 0)
(-1 -1.87282e-15 0)
(-1 5.25876e-16 0)
(-1 -9.31938e-18 0)
(-1 1.10325e-16 0)
(-1 2.06874e-16 0)
(-1 2.47613e-16 0)
(-1 7.7665e-17 0)
(-1 -9.73835e-18 0)
(-1 1.04655e-17 0)
(-1 5.22807e-17 0)
(-1 2.13098e-18 0)
(-1 -5.83565e-17 0)
(-1 -9.61968e-17 0)
(-1 4.23971e-17 0)
(-1 4.15085e-17 0)
(-1 -6.0412e-17 0)
(-1 -4.54966e-17 0)
(-1 1.16624e-14 0)
(-1 -2.48293e-15 0)
(-1 9.05289e-16 0)
(-1 -2.82538e-17 0)
(-1 1.24948e-16 0)
(-1 4.36532e-17 0)
(-1 1.5931e-17 0)
(-1 1.39288e-16 0)
(-1 2.63889e-16 0)
(-1 1.34807e-16 0)
(-1 2.26887e-17 0)
(-1 -2.73618e-17 0)
(-1 -1.2778e-16 0)
(-1 -1.98415e-16 0)
(-1 -2.34722e-16 0)
(-1 -9.98813e-17 0)
(-1 1.44505e-16 0)
(-1 9.07678e-17 0)
(-1 -1.48083e-16 0)
(-1 -7.40837e-17 0)
(-1 -1.62366e-13 0)
(-1 3.56291e-14 0)
(-1 -8.39003e-15 0)
(-1 1.85066e-15 0)
(-1 -4.0503e-16 0)
(-1 9.06526e-17 0)
(-1 2.64917e-17 0)
(-1 7.90803e-17 0)
(-1 1.89439e-16 0)
(-1 1.91223e-16 0)
(-1 1.03822e-16 0)
(-1 2.16783e-18 0)
(-1 -1.136e-16 0)
(-1 -1.78567e-16 0)
(-1 -1.98498e-16 0)
(-1 -4.82367e-17 0)
(-1 -1.47777e-17 0)
(-1 -2.10754e-17 0)
(-1 -6.67613e-17 0)
(-1 -4.04555e-17 0)
(-1 1.22899e-13 0)
(-1 -2.64683e-14 0)
(-1 6.26567e-15 0)
(-1 -1.334e-15 0)
(-1 2.95349e-16 0)
(-1 -4.37723e-17 0)
(-1 7.70718e-17 0)
(-1 -8.68006e-18 0)
(-1 -6.94601e-18 0)
(-1 1.92335e-17 0)
(-1 -4.77194e-17 0)
(-1 -2.91103e-17 0)
(-1 9.97708e-17 0)
(-1 1.28341e-16 0)
(-1 1.07427e-16 0)
(-1 2.73892e-17 0)
(-1 -9.38099e-17 0)
(-1 -1.72723e-16 0)
(-1 -1.22257e-16 0)
(-1 -7.89099e-17 0)
(-1 3.35317e-15 0)
(-1 -1.02266e-15 0)
(-1 1.94268e-16 0)
(-1 -9.57384e-17 0)
(-1 4.45645e-18 0)
(-1 -1.75815e-17 0)
(-1 1.34386e-17 0)
(-1 -6.87498e-17 0)
(-1 -2.05898e-16 0)
(-1 -9.96276e-17 0)
(-1 -5.90102e-17 0)
(-1 -1.00511e-16 0)
(-1 -1.34231e-16 0)
(-1 -1.04191e-16 0)
(-1 6.01365e-17 0)
(-1 1.43564e-16 0)
(-1 8.65716e-17 0)
(-1 -1.03294e-16 0)
(-1 -1.63228e-16 0)
(-1 -6.69615e-17 0)
(-1 -1.22886e-13 0)
(-1 2.67394e-14 0)
(-1 -6.32463e-15 0)
(-1 1.25631e-15 0)
(-1 -3.88961e-16 0)
(-1 1.37696e-16 0)
(-1 1.18626e-16 0)
(-1 1.78056e-16 0)
(-1 1.37564e-16 0)
(-1 1.69764e-16 0)
(-1 1.59082e-16 0)
(-1 7.29707e-17 0)
(-1 -8.77062e-17 0)
(-1 -2.2326e-16 0)
(-1 -1.59609e-16 0)
(-1 -6.04946e-17 0)
(-1 -7.82722e-17 0)
(-1 -4.78813e-17 0)
(-1 4.57621e-18 0)
(-1 1.66627e-18 0)
(-1 1.64158e-13 0)
(-1 -3.47763e-14 0)
(-1 8.40391e-15 0)
(-1 -1.67145e-15 0)
(-1 4.88122e-16 0)
(-1 2.57585e-17 0)
(-1 -5.26661e-18 0)
(-1 -6.96573e-17 0)
(-1 5.42842e-17 0)
(-1 7.35831e-17 0)
(-1 1.47916e-16 0)
(-1 1.91536e-16 0)
(-1 1.36187e-16 0)
(-1 -1.09097e-17 0)
(-1 -1.17376e-16 0)
(-1 -1.24672e-16 0)
(-1 -1.02862e-16 0)
(-1 -2.49602e-17 0)
(-1 2.7166e-17 0)
(-1 1.13655e-17 0)
(-1 -7.28182e-14 0)
(-1 1.58665e-14 0)
(-1 -3.45984e-15 0)
(-1 1.13917e-15 0)
(-1 6.6915e-17 0)
(-1 5.3998e-17 0)
(-1 -3.82646e-17 0)
(-1 -1.03498e-16 0)
(-1 -1.21997e-16 0)
(-1 -1.18936e-16 0)
(-1 -2.77436e-17 0)
(-1 1.50874e-17 0)
(-1 -3.15208e-17 0)
(-1 4.71531e-17 0)
(-1 7.46207e-17 0)
(-1 4.25016e-17 0)
(-1 -4.39857e-17 0)
(-1 -7.66661e-17 0)
(-1 -7.72073e-17 0)
(-1 -3.41776e-17 0)
(-1 -6.83407e-14 0)
(-1 1.49565e-14 0)
(-1 -3.36518e-15 0)
(-1 9.10599e-16 0)
(-1 -1.38797e-16 0)
(-1 -3.61894e-17 0)
(-1 -5.15685e-17 0)
(-1 1.19131e-17 0)
(-1 -1.39716e-17 0)
(-1 -7.13847e-17 0)
(-1 -1.33339e-16 0)
(-1 -1.31113e-16 0)
(-1 -7.86881e-17 0)
(-1 1.77436e-17 0)
(-1 -2.52265e-17 0)
(-1 -9.62036e-17 0)
(-1 -1.64536e-16 0)
(-1 -1.66361e-16 0)
(-1 -1.03971e-16 0)
(-1 -6.33141e-17 0)
(-1 1.69979e-13 0)
(-1 -3.66859e-14 0)
(-1 8.64082e-15 0)
(-1 -1.77685e-15 0)
(-1 5.12655e-16 0)
(-1 4.51685e-17 0)
(-1 1.00582e-16 0)
(-1 1.25184e-16 0)
(-1 1.44038e-16 0)
(-1 -4.39444e-17 0)
(-1 -1.59447e-16 0)
(-1 -1.66546e-16 0)
(-1 1.39695e-17 0)
(-1 9.88505e-17 0)
(-1 -2.90375e-18 0)
(-1 -1.29596e-16 0)
(-1 -1.47574e-16 0)
(-1 -1.30078e-16 0)
(-1 -6.90462e-17 0)
(-1 -8.31123e-17 0)
(-1 -1.86464e-13 0)
(-1 4.09387e-14 0)
(-1 -9.43623e-15 0)
(-1 2.24321e-15 0)
(-1 -4.96436e-16 0)
(-1 -5.62986e-17 0)
(-1 -1.34167e-16 0)
(-1 -2.13113e-17 0)
(-1 -8.16835e-17 0)
(-1 -1.91021e-16 0)
(-1 -1.89396e-16 0)
(-1 -9.6491e-17 0)
(-1 5.46007e-17 0)
(-1 9.99087e-17 0)
(-1 2.45529e-17 0)
(-1 -1.07175e-16 0)
(-1 -1.13236e-16 0)
(-1 -6.37684e-17 0)
(-1 -4.16909e-17 0)
(-1 -6.21485e-17 0)
(-1 1.16318e-13 0)
(-1 -2.53327e-14 0)
(-1 6.14923e-15 0)
(-1 -1.16018e-15 0)
(-1 4.07096e-16 0)
(-1 6.32854e-17 0)
(-1 1.67431e-16 0)
(-1 1.43025e-17 0)
(-1 -2.23064e-16 0)
(-1 -1.78219e-16 0)
(-1 -3.08613e-17 0)
(-1 3.56089e-17 0)
(-1 -4.6097e-17 0)
(-1 -1.74196e-16 0)
(-1 -1.8531e-16 0)
(-1 -7.77179e-17 0)
(-1 2.25873e-17 0)
(-1 7.30686e-18 0)
(-1 6.1164e-18 0)
(-1 3.93131e-17 0)
(-1 7.22318e-15 0)
(-1 -1.37121e-15 0)
(-1 5.38816e-16 0)
(-1 -7.41899e-17 0)
(-1 2.15826e-16 0)
(-1 3.79567e-16 0)
(-1 3.50122e-16 0)
(-1 2.50376e-16 0)
(-1 7.38659e-17 0)
(-1 9.82719e-17 0)
(-1 6.51678e-17 0)
(-1 -2.91402e-17 0)
(-1 -1.86699e-16 0)
(-1 -2.86182e-16 0)
(-1 -3.0144e-16 0)
(-1 -2.33092e-16 0)
(-1 -5.51958e-17 0)
(-1 5.92338e-17 0)
(-1 2.26992e-17 0)
(-1 -6.9926e-17 0)
(-1 -1.33222e-13 0)
(-1 2.95032e-14 0)
(-1 -6.51421e-15 0)
(-1 1.69268e-15 0)
(-1 -1.88432e-16 0)
(-1 2.82424e-17 0)
(-1 -1.50634e-16 0)
(-1 -7.20895e-17 0)
(-1 5.19639e-18 0)
(-1 3.82595e-17 0)
(-1 -1.24391e-17 0)
(-1 -4.00028e-17 0)
(-1 -9.38659e-17 0)
(-1 -1.50037e-16 0)
(-1 -1.69795e-16 0)
(-1 -1.80457e-16 0)
(-1 -2.1224e-16 0)
(-1 -1.47229e-16 0)
(-1 -1.02561e-16 0)
(-1 -1.61307e-16 0)
(-1 1.94925e-13 0)
(-1 -4.25679e-14 0)
(-1 1.02581e-14 0)
(-1 -1.86887e-15 0)
(-1 8.15864e-16 0)
(-1 2.84468e-17 0)
(-1 -1.79055e-18 0)
(-1 -2.01012e-16 0)
(-1 -1.3593e-16 0)
(-1 -1.33884e-16 0)
(-1 -1.15878e-16 0)
(-1 -8.59601e-17 0)
(-1 -9.29011e-17 0)
(-1 -1.04016e-16 0)
(-1 -2.51088e-17 0)
(-1 8.44e-17 0)
(-1 -1.03019e-16 0)
(-1 -2.00548e-16 0)
(-1 -1.67173e-16 0)
(-1 -5.0452e-17 0)
(-1 -1.1352e-13 0)
(-1 2.49006e-14 0)
(-1 -6.02805e-15 0)
(-1 1.28697e-15 0)
(-1 -2.88615e-16 0)
(-1 2.5266e-17 0)
(-1 -1.57766e-16 0)
(-1 -1.63183e-16 0)
(-1 -8.58902e-17 0)
(-1 -7.05603e-17 0)
(-1 -9.37441e-17 0)
(-1 -8.1033e-17 0)
(-1 -8.88933e-17 0)
(-1 -6.57854e-17 0)
(-1 -1.39087e-17 0)
(-1 6.22037e-17 0)
(-1 -1.09043e-17 0)
(-1 -6.68474e-17 0)
(-1 -1.32053e-16 0)
(-1 -4.65069e-17 0)
(-1 -4.38444e-14 0)
(-1 9.89534e-15 0)
(-1 -2.24929e-15 0)
(-1 5.96562e-16 0)
(-1 -1.72279e-16 0)
(-1 -5.85386e-17 0)
(-1 -8.00982e-17 0)
(-1 -6.75338e-17 0)
(-1 -8.44203e-17 0)
(-1 -9.52017e-17 0)
(-1 -1.07775e-16 0)
(-1 -1.63771e-16 0)
(-1 -2.0566e-16 0)
(-1 -9.05745e-17 0)
(-1 2.35072e-17 0)
(-1 2.96207e-17 0)
(-1 2.36978e-17 0)
(-1 -1.00286e-16 0)
(-1 -1.67441e-16 0)
(-1 -8.16834e-17 0)
(-1 1.52647e-13 0)
(-1 -3.33091e-14 0)
(-1 7.77743e-15 0)
(-1 -1.74687e-15 0)
(-1 4.21417e-16 0)
(-1 2.04811e-17 0)
(-1 1.20625e-16 0)
(-1 -3.99991e-17 0)
(-1 -1.04278e-16 0)
(-1 -4.787e-17 0)
(-1 3.39965e-17 0)
(-1 -1.52552e-18 0)
(-1 1.15159e-17 0)
(-1 -1.46389e-17 0)
(-1 -1.77151e-16 0)
(-1 -3.06054e-16 0)
(-1 -1.47817e-16 0)
(-1 -8.44963e-17 0)
(-1 -5.64285e-17 0)
(-1 -1.77724e-17 0)
(-1 -5.77344e-14 0)
(-1 1.18157e-14 0)
(-1 -3.13078e-15 0)
(-1 4.68792e-16 0)
(-1 -1.39809e-16 0)
(-1 -5.14983e-18 0)
(-1 -6.16724e-17 0)
(-1 -9.30327e-17 0)
(-1 -1.63621e-16 0)
(-1 -1.13517e-16 0)
(-1 -9.99331e-18 0)
(-1 8.63371e-17 0)
(-1 1.44854e-16 0)
(-1 4.17964e-17 0)
(-1 -1.15875e-16 0)
(-1 -2.55584e-16 0)
(-1 -2.11654e-16 0)
(-1 -1.06799e-16 0)
(-1 -5.46257e-19 0)
(-1 -2.78734e-17 0)
(-1 -1.01997e-13 0)
(-1 2.16648e-14 0)
(-1 -5.16154e-15 0)
(-1 1.10854e-15 0)
(-1 -2.51097e-16 0)
(-1 -3.43162e-17 0)
(-1 -8.37952e-17 0)
(-1 -3.70344e-17 0)
(-1 -1.23392e-16 0)
(-1 -1.60988e-16 0)
(-1 -1.4793e-16 0)
(-1 -9.20785e-17 0)
(-1 -7.18254e-17 0)
(-1 -6.08493e-17 0)
(-1 2.67716e-17 0)
(-1 1.8135e-17 0)
(-1 -4.46098e-17 0)
(-1 -5.77963e-17 0)
(-1 -2.44642e-17 0)
(-1 -4.23143e-17 0)
)
;

boundaryField
{
    movingWall
    {
        type            zeroGradient;
    }
    fixedWalls
    {
        type            zeroGradient;
    }
    frontAndBack
    {
        type            empty;
    }
}


// ************************************************************************* //
