/*--------------------------------*- C++ -*----------------------------------*\
| =========                 |                                                 |
| \\      /  F ield         | OpenFOAM: The Open Source CFD Toolbox           |
|  \\    /   O peration     | Version:  2506                                  |
|   \\  /    A nd           | Website:  www.openfoam.com                      |
|    \\/     M anipulation  |                                                 |
\*---------------------------------------------------------------------------*/
FoamFile
{
    version     2.0;
    format      ascii;
    arch        "LSB;label=32;scalar=64";
    class       volVectorField;
    location    "9.625";
    object      vorticityField;
}
// * * * * * * * * * * * * * * * * * * * * * * * * * * * * * * * * * * * * * //

dimensions      [0 0 -1 0 0 0 0];

internalField   nonuniform List<vector> 
400
(
(0 -0 1.2025e-11)
(0 -0 -1.61224e-11)
(0 -0 3.61206e-12)
(0 -0 -8.96183e-13)
(0 -0 1.59245e-13)
(0 -0 -4.15552e-14)
(0 -0 2.16193e-14)
(0 -0 1.37288e-14)
(0 -0 -4.00259e-14)
(0 -0 5.558e-14)
(0 -0 4.74902e-14)
(0 -0 6.0412e-14)
(0 -0 5.33767e-14)
(0 -0 4.31464e-14)
(0 -0 -9.83277e-15)
(0 -0 -1.70297e-14)
(0 -0 -1.33345e-14)
(0 -0 4.39292e-14)
(0 -0 -8.70051e-15)
(0 -0 1.05909e-14)
(0 -0 -6.27041e-13)
(0 -0 -5.8782e-13)
(0 -0 2.18363e-13)
(0 -0 -2.3824e-14)
(0 -0 6.14008e-14)
(0 -0 -1.09017e-14)
(0 -0 9.56343e-15)
(0 -0 7.90059e-14)
(0 -0 -4.48098e-16)
(0 -0 -1.3254e-13)
(0 -0 -7.04269e-14)
(0 -0 -1.23467e-13)
(0 -0 -9.84205e-14)
(0 -0 -6.49043e-14)
(0 -0 9.85336e-15)
(0 -0 6.50277e-14)
(0 -0 4.617e-14)
(0 -0 -1.10574e-13)
(0 -0 -4.35902e-14)
(0 -0 2.22166e-14)
(0 -0 -6.24981e-12)
(0 -0 1.36358e-11)
(0 -0 -3.24231e-12)
(0 -0 7.17185e-13)
(0 -0 -1.76001e-13)
(0 -0 4.31522e-14)
(0 -0 -2.82623e-14)
(0 -0 1.62947e-14)
(0 -0 1.12143e-14)
(0 -0 -3.56667e-14)
(0 -0 -7.31156e-14)
(0 -0 -1.03057e-13)
(0 -0 -4.51785e-14)
(0 -0 -6.26999e-14)
(0 -0 1.3033e-14)
(0 -0 7.25821e-14)
(0 -0 8.40313e-14)
(0 -0 7.61168e-14)
(0 -0 -2.90431e-14)
(0 -0 1.07217e-14)
(0 -0 6.09231e-12)
(0 -0 -1.06062e-11)
(0 -0 2.48633e-12)
(0 -0 -5.69927e-13)
(0 -0 1.29023e-13)
(0 -0 -2.18277e-14)
(0 -0 3.06143e-14)
(0 -0 -8.40178e-15)
(0 -0 2.98964e-14)
(0 -0 2.30277e-14)
(0 -0 4.93757e-14)
(0 -0 1.50274e-13)
(0 -0 6.99552e-14)
(0 -0 5.49758e-14)
(0 -0 -3.72002e-14)
(0 -0 -1.28544e-13)
(0 -0 -1.01326e-13)
(0 -0 -5.70548e-14)
(0 -0 3.64863e-14)
(0 -0 2.01167e-14)
(0 -0 -7.15626e-13)
(0 -0 -2.88785e-13)
(0 -0 -6.9938e-14)
(0 -0 -1.00296e-13)
(0 -0 -1.00605e-13)
(0 -0 -8.04169e-14)
(0 -0 -5.93269e-14)
(0 -0 -1.57459e-13)
(0 -0 -3.01928e-14)
(0 -0 -1.24163e-14)
(0 -0 -8.83021e-17)
(0 -0 4.6688e-14)
(0 -0 -3.6805e-16)
(0 -0 7.36469e-14)
(0 -0 5.18806e-14)
(0 -0 2.64351e-15)
(0 -0 -5.17909e-14)
(0 -0 -5.2085e-14)
(0 -0 3.63329e-15)
(0 -0 -4.08612e-15)
(0 -0 -7.47334e-12)
(0 -0 1.09243e-11)
(0 -0 -2.5483e-12)
(0 -0 5.93567e-13)
(0 -0 -8.47563e-14)
(0 -0 1.32074e-13)
(0 -0 5.82461e-14)
(0 -0 2.89989e-14)
(0 -0 -8.2917e-16)
(0 -0 2.15178e-15)
(0 -0 -6.38895e-14)
(0 -0 -1.33099e-13)
(0 -0 -8.38332e-14)
(0 -0 -8.85054e-14)
(0 -0 7.04866e-14)
(0 -0 6.23438e-14)
(0 -0 -2.58437e-14)
(0 -0 3.53899e-14)
(0 -0 3.20598e-14)
(0 -0 -2.77293e-14)
(0 -0 1.10408e-11)
(0 -0 -1.46538e-11)
(0 -0 3.55443e-12)
(0 -0 -6.56053e-13)
(0 -0 2.78141e-13)
(0 -0 3.19763e-14)
(0 -0 7.17736e-14)
(0 -0 1.4148e-13)
(0 -0 1.22744e-13)
(0 -0 1.17783e-13)
(0 -0 1.20215e-13)
(0 -0 5.30373e-14)
(0 -0 3.39656e-14)
(0 -0 -5.24614e-14)
(0 -0 -6.55863e-14)
(0 -0 5.56615e-14)
(0 -0 6.41812e-14)
(0 -0 6.72129e-14)
(0 -0 3.63257e-15)
(0 -0 2.32519e-14)
(0 -0 -4.12307e-12)
(0 -0 6.50215e-12)
(0 -0 -1.47274e-12)
(0 -0 3.7978e-13)
(0 -0 -1.35622e-13)
(0 -0 -1.0518e-14)
(0 -0 -1.57496e-14)
(0 -0 -8.37328e-15)
(0 -0 -1.54377e-15)
(0 -0 3.65304e-14)
(0 -0 4.05074e-14)
(0 -0 8.09374e-14)
(0 -0 3.20657e-15)
(0 -0 1.19034e-13)
(0 -0 5.3745e-14)
(0 -0 -1.18606e-14)
(0 -0 4.22933e-14)
(0 -0 -3.32215e-15)
(0 -0 4.24885e-15)
(0 -0 1.11385e-14)
(0 -0 -5.60946e-12)
(0 -0 6.33492e-12)
(0 -0 -1.59433e-12)
(0 -0 2.41323e-13)
(0 -0 -1.48889e-13)
(0 -0 -7.25923e-14)
(0 -0 -7.65049e-14)
(0 -0 -7.75555e-14)
(0 -0 -8.96449e-14)
(0 -0 -9.32519e-14)
(0 -0 -1.14393e-13)
(0 -0 -7.58501e-14)
(0 -0 -3.93244e-14)
(0 -0 -4.88639e-14)
(0 -0 -6.56048e-14)
(0 -0 -6.81411e-14)
(0 -0 -8.83309e-14)
(0 -0 -7.52587e-14)
(0 -0 1.03047e-14)
(0 -0 1.67286e-14)
(0 -0 1.28956e-11)
(0 -0 -1.57543e-11)
(0 -0 3.62643e-12)
(0 -0 -8.12816e-13)
(0 -0 2.63517e-13)
(0 -0 1.30028e-14)
(0 -0 8.00155e-15)
(0 -0 4.34563e-15)
(0 -0 -1.69128e-14)
(0 -0 -8.45587e-14)
(0 -0 -3.93652e-14)
(0 -0 -9.76336e-15)
(0 -0 2.65396e-14)
(0 -0 -1.68732e-15)
(0 -0 -4.99497e-14)
(0 -0 -4.15721e-14)
(0 -0 -2.71533e-14)
(0 -0 3.49579e-14)
(0 -0 -2.24085e-14)
(0 -0 1.52158e-14)
(0 -0 -1.39833e-11)
(0 -0 1.72149e-11)
(0 -0 -4.03218e-12)
(0 -0 8.3977e-13)
(0 -0 -3.65476e-13)
(0 -0 -4.50883e-14)
(0 -0 3.49873e-15)
(0 -0 5.94584e-14)
(0 -0 -1.6971e-14)
(0 -0 1.63338e-14)
(0 -0 1.17873e-13)
(0 -0 1.05715e-13)
(0 -0 1.2806e-13)
(0 -0 7.83104e-14)
(0 -0 -4.78134e-14)
(0 -0 -4.08839e-14)
(0 -0 4.34065e-15)
(0 -0 7.15451e-15)
(0 -0 1.61992e-16)
(0 -0 1.03839e-14)
(0 -0 8.5293e-12)
(0 -0 -1.07187e-11)
(0 -0 2.47146e-12)
(0 -0 -5.74213e-13)
(0 -0 1.22346e-13)
(0 -0 -2.39665e-14)
(0 -0 -4.8983e-15)
(0 -0 -9.32596e-14)
(0 -0 3.49579e-14)
(0 -0 1.00535e-13)
(0 -0 4.84879e-14)
(0 -0 2.55815e-14)
(0 -0 6.12459e-15)
(0 -0 -1.39213e-14)
(0 -0 6.38579e-14)
(0 -0 1.2921e-13)
(0 -0 6.27126e-14)
(0 -0 5.2563e-14)
(0 -0 3.03057e-14)
(0 -0 2.25621e-14)
(0 -0 9.10458e-13)
(0 -0 -5.32911e-13)
(0 -0 2.38122e-13)
(0 -0 1.03226e-13)
(0 -0 2.35111e-13)
(0 -0 1.7606e-13)
(0 -0 1.22606e-13)
(0 -0 2.65845e-14)
(0 -0 -1.52104e-14)
(0 -0 -8.69809e-16)
(0 -0 -3.98463e-14)
(0 -0 -5.22918e-14)
(0 -0 -1.07019e-13)
(0 -0 -9.27893e-14)
(0 -0 5.30895e-15)
(0 -0 2.46244e-14)
(0 -0 1.10548e-13)
(0 -0 7.7895e-15)
(0 -0 -1.2916e-14)
(0 -0 4.72268e-15)
(0 -0 -8.82692e-12)
(0 -0 1.21016e-11)
(0 -0 -2.86237e-12)
(0 -0 6.05472e-13)
(0 -0 -2.47759e-13)
(0 -0 -7.75354e-14)
(0 -0 -9.13483e-14)
(0 -0 -3.8627e-14)
(0 -0 -7.02803e-14)
(0 -0 -5.59737e-14)
(0 -0 -8.91414e-14)
(0 -0 -1.43668e-13)
(0 -0 -6.52135e-14)
(0 -0 -3.4698e-14)
(0 -0 -5.72521e-14)
(0 -0 -5.84545e-14)
(0 -0 -2.37823e-14)
(0 -0 -4.32423e-14)
(0 -0 -1.40785e-15)
(0 -0 -7.18211e-16)
(0 -0 1.16037e-11)
(0 -0 -1.73554e-11)
(0 -0 4.0699e-12)
(0 -0 -9.44227e-13)
(0 -0 1.08416e-13)
(0 -0 -1.90186e-13)
(0 -0 -1.31366e-13)
(0 -0 -6.76241e-14)
(0 -0 -2.03922e-14)
(0 -0 -2.50998e-14)
(0 -0 3.18974e-14)
(0 -0 2.94028e-14)
(0 -0 -1.80559e-15)
(0 -0 -2.03258e-14)
(0 -0 4.59467e-14)
(0 -0 -7.79107e-15)
(0 -0 -1.36915e-13)
(0 -0 -6.41539e-15)
(0 -0 1.50096e-14)
(0 -0 4.88676e-14)
(0 -0 -6.88328e-12)
(0 -0 1.00174e-11)
(0 -0 -2.41558e-12)
(0 -0 5.19734e-13)
(0 -0 -9.90658e-14)
(0 -0 1.3085e-14)
(0 -0 3.53652e-14)
(0 -0 6.13977e-14)
(0 -0 6.34724e-14)
(0 -0 2.63197e-14)
(0 -0 8.02679e-14)
(0 -0 1.08905e-13)
(0 -0 5.57349e-14)
(0 -0 1.15919e-13)
(0 -0 9.41141e-14)
(0 -0 3.00433e-16)
(0 -0 4.1305e-14)
(0 -0 -1.21149e-14)
(0 -0 2.03405e-15)
(0 -0 1.7856e-14)
(0 -0 6.43751e-13)
(0 -0 3.15662e-12)
(0 -0 -7.40143e-13)
(0 -0 1.26386e-13)
(0 -0 -6.551e-14)
(0 -0 3.63231e-14)
(0 -0 -8.99524e-16)
(0 -0 5.37779e-14)
(0 -0 -2.76678e-15)
(0 -0 -2.33544e-15)
(0 -0 -3.39619e-14)
(0 -0 -9.78854e-15)
(0 -0 6.15297e-14)
(0 -0 5.00218e-14)
(0 -0 3.91246e-14)
(0 -0 5.42292e-14)
(0 -0 4.12195e-14)
(0 -0 -1.91139e-14)
(0 -0 1.86022e-15)
(0 -0 2.49125e-14)
(0 -0 4.88648e-12)
(0 -0 -1.26438e-11)
(0 -0 2.96649e-12)
(0 -0 -6.00076e-13)
(0 -0 2.30945e-13)
(0 -0 -2.97418e-15)
(0 -0 4.81621e-14)
(0 -0 -7.67004e-14)
(0 -0 -7.87092e-16)
(0 -0 1.38275e-14)
(0 -0 -4.95757e-14)
(0 -0 -8.35632e-14)
(0 -0 -5.55215e-14)
(0 -0 -1.00182e-13)
(0 -0 -1.10457e-13)
(0 -0 -5.12767e-14)
(0 -0 -3.20543e-14)
(0 -0 9.13884e-15)
(0 -0 6.67239e-15)
(0 -0 7.42008e-15)
(0 -0 -3.80582e-12)
(0 -0 5.10799e-12)
(0 -0 -1.27021e-12)
(0 -0 2.44887e-13)
(0 -0 -1.55814e-13)
(0 -0 -4.63964e-14)
(0 -0 -1.17209e-13)
(0 -0 -6.4405e-14)
(0 -0 -5.62585e-14)
(0 -0 -1.17422e-14)
(0 -0 -7.11968e-15)
(0 -0 -1.16203e-14)
(0 -0 -5.86642e-14)
(0 -0 -8.0283e-14)
(0 -0 -8.39481e-14)
(0 -0 -3.6683e-14)
(0 -0 -1.22266e-14)
(0 -0 2.11108e-14)
(0 -0 7.89259e-15)
(0 -0 -2.42631e-14)
(0 -0 -5.89193e-12)
(0 -0 9.24987e-12)
(0 -0 -1.86589e-12)
(0 -0 4.91044e-13)
(0 -0 -6.00755e-14)
(0 -0 7.09403e-14)
(0 -0 5.39383e-14)
(0 -0 5.02504e-14)
(0 -0 4.18148e-14)
(0 -0 2.46513e-14)
(0 -0 3.3996e-14)
(0 -0 6.18206e-14)
(0 -0 5.7333e-14)
(0 -0 6.40698e-14)
(0 -0 6.21085e-14)
(0 -0 1.99669e-14)
(0 -0 1.95119e-14)
(0 -0 2.01456e-15)
(0 -0 1.54821e-15)
(0 -0 3.37829e-14)
)
;

boundaryField
{
    movingWall
    {
        type            calculated;
        value           nonuniform List<vector> 
20
(
(0 -0 -1.36288e-11)
(0 -0 1.16375e-11)
(0 -0 -1.74476e-12)
(0 -0 7.57498e-13)
(0 -0 2.40986e-13)
(0 -0 3.72002e-13)
(0 -0 2.66182e-13)
(0 -0 2.18085e-13)
(0 -0 2.54058e-13)
(0 -0 1.30773e-13)
(0 -0 9.57088e-14)
(0 -0 1.40837e-13)
(0 -0 1.80759e-13)
(0 -0 9.86775e-14)
(0 -0 1.41125e-13)
(0 -0 3.72708e-14)
(0 -0 3.68158e-14)
(0 -0 2.01456e-15)
(0 -0 1.54821e-15)
(0 -0 5.10868e-14)
)
;
    }
    fixedWalls
    {
        type            calculated;
        value           nonuniform List<vector> 
60
(
(0 -0 6.82847e-11)
(0 -0 3.11997e-12)
(0 -0 -5.85226e-11)
(0 -0 4.56088e-11)
(0 -0 3.92589e-13)
(0 -0 -4.7013e-11)
(0 -0 6.37657e-11)
(0 -0 -2.75552e-11)
(0 -0 -2.76073e-11)
(0 -0 6.75578e-11)
(0 -0 -7.40163e-11)
(0 -0 4.59579e-11)
(0 -0 3.21453e-12)
(0 -0 -5.1744e-11)
(0 -0 7.4338e-11)
(0 -0 -4.34294e-11)
(0 -0 -1.34991e-11)
(0 -0 5.40115e-11)
(0 -0 -2.23077e-11)
(0 -0 -3.86575e-11)
(0 -0 1.81987e-14)
(0 -0 2.96335e-14)
(0 -0 1.61822e-14)
(0 -0 3.15639e-14)
(0 -0 -3.20451e-16)
(0 -0 -2.77716e-14)
(0 -0 2.25589e-14)
(0 -0 1.3671e-14)
(0 -0 2.53256e-14)
(0 -0 3.32449e-14)
(0 -0 2.48594e-14)
(0 -0 1.13798e-14)
(0 -0 2.79704e-14)
(0 -0 3.74178e-14)
(0 -0 4.72859e-14)
(0 -0 1.86028e-14)
(0 -0 3.26734e-14)
(0 -0 7.10895e-15)
(0 -0 -1.59557e-14)
(0 -0 4.40308e-14)
(0 -0 2.28884e-11)
(0 -0 -1.95315e-11)
(0 -0 3.72799e-12)
(0 -0 -1.13553e-12)
(0 -0 -3.56949e-14)
(0 -0 -1.74782e-13)
(0 -0 -1.11607e-13)
(0 -0 -1.19498e-13)
(0 -0 -5.73298e-14)
(0 -0 1.51901e-13)
(0 -0 8.20979e-14)
(0 -0 9.50197e-14)
(0 -0 8.79844e-14)
(0 -0 7.77541e-14)
(0 -0 7.89851e-14)
(0 -0 1.00754e-14)
(0 -0 1.37705e-14)
(0 -0 1.67355e-13)
(0 -0 -5.31094e-14)
(0 -0 1.05909e-14)
)
;
    }
    frontAndBack
    {
        type            empty;
    }
}


// ************************************************************************* //
