/*--------------------------------*- C++ -*----------------------------------*\
| =========                 |                                                 |
| \\      /  F ield         | OpenFOAM: The Open Source CFD Toolbox           |
|  \\    /   O peration     | Version:  2506                                  |
|   \\  /    A nd           | Website:  www.openfoam.com                      |
|    \\/     M anipulation  |                                                 |
\*---------------------------------------------------------------------------*/
FoamFile
{
    version     2.0;
    format      ascii;
    arch        "LSB;label=32;scalar=64";
    class       volScalarField;
    location    "9.625";
    object      zeroGradient(epsilon);
}
// * * * * * * * * * * * * * * * * * * * * * * * * * * * * * * * * * * * * * //

dimensions      [0 2 -3 0 0 0 0];

internalField   nonuniform List<scalar> 
400
(
6.72866e-07
6.72865e-07
6.72865e-07
6.72865e-07
6.72865e-07
6.72865e-07
6.72865e-07
6.72864e-07
6.72864e-07
6.72864e-07
6.72864e-07
6.72864e-07
6.72864e-07
6.72864e-07
6.72864e-07
6.72864e-07
6.72864e-07
6.72864e-07
6.72864e-07
6.72864e-07
6.85549e-07
6.78934e-07
6.79501e-07
6.79734e-07
6.80203e-07
6.8044e-07
6.80912e-07
6.81153e-07
6.81627e-07
6.81873e-07
6.82347e-07
6.82599e-07
6.83074e-07
6.83333e-07
6.83807e-07
6.84073e-07
6.84545e-07
6.84821e-07
6.85056e-07
6.85431e-07
7.06407e-07
6.99402e-07
7.00013e-07
7.00263e-07
7.00766e-07
7.01018e-07
7.01524e-07
7.01778e-07
7.02285e-07
7.02542e-07
7.03049e-07
7.03311e-07
7.03816e-07
7.04083e-07
7.04587e-07
7.04861e-07
7.0536e-07
7.05642e-07
7.0589e-07
7.0628e-07
7.29589e-07
7.22278e-07
7.22915e-07
7.23176e-07
7.23701e-07
7.23964e-07
7.24492e-07
7.24757e-07
7.25286e-07
7.25555e-07
7.26083e-07
7.26356e-07
7.26884e-07
7.27163e-07
7.27688e-07
7.27974e-07
7.28495e-07
7.28789e-07
7.29048e-07
7.29456e-07
7.50362e-07
7.42771e-07
7.43433e-07
7.43703e-07
7.44249e-07
7.44522e-07
7.45069e-07
7.45345e-07
7.45894e-07
7.46173e-07
7.46722e-07
7.47005e-07
7.47553e-07
7.47842e-07
7.48388e-07
7.48684e-07
7.49226e-07
7.49531e-07
7.498e-07
7.50223e-07
7.66487e-07
7.58675e-07
7.59356e-07
7.59634e-07
7.60195e-07
7.60476e-07
7.6104e-07
7.61323e-07
7.61888e-07
7.62175e-07
7.6274e-07
7.63032e-07
7.63595e-07
7.63893e-07
7.64454e-07
7.6476e-07
7.65317e-07
7.65631e-07
7.65908e-07
7.66343e-07
7.77842e-07
7.69871e-07
7.70565e-07
7.70849e-07
7.71422e-07
7.71708e-07
7.72283e-07
7.72572e-07
7.73148e-07
7.73441e-07
7.74017e-07
7.74315e-07
7.7489e-07
7.75194e-07
7.75766e-07
7.76078e-07
7.76646e-07
7.76967e-07
7.77249e-07
7.77693e-07
7.85399e-07
7.77324e-07
7.78028e-07
7.78315e-07
7.78895e-07
7.79185e-07
7.79768e-07
7.80061e-07
7.80644e-07
7.80941e-07
7.81525e-07
7.81826e-07
7.82409e-07
7.82717e-07
7.83296e-07
7.83612e-07
7.84188e-07
7.84513e-07
7.84799e-07
7.85249e-07
7.90386e-07
7.82242e-07
7.82951e-07
7.83241e-07
7.83826e-07
7.84119e-07
7.84706e-07
7.85002e-07
7.8559e-07
7.85889e-07
7.86478e-07
7.86782e-07
7.8737e-07
7.8768e-07
7.88265e-07
7.88584e-07
7.89164e-07
7.89492e-07
7.89781e-07
7.90234e-07
7.93838e-07
7.85646e-07
7.86359e-07
7.86651e-07
7.87239e-07
7.87534e-07
7.88125e-07
7.88422e-07
7.89014e-07
7.89315e-07
7.89907e-07
7.90213e-07
7.90804e-07
7.91116e-07
7.91704e-07
7.92025e-07
7.92609e-07
7.92939e-07
7.93229e-07
7.93685e-07
7.96486e-07
7.88256e-07
7.88973e-07
7.89266e-07
7.89857e-07
7.90152e-07
7.90746e-07
7.91044e-07
7.91639e-07
7.91941e-07
7.92536e-07
7.92844e-07
7.93437e-07
7.93751e-07
7.94342e-07
7.94664e-07
7.9525e-07
7.95582e-07
7.95873e-07
7.96331e-07
7.98791e-07
7.9053e-07
7.91249e-07
7.91543e-07
7.92137e-07
7.92434e-07
7.93029e-07
7.93329e-07
7.93926e-07
7.94229e-07
7.94827e-07
7.95135e-07
7.95731e-07
7.96046e-07
7.96639e-07
7.96962e-07
7.97551e-07
7.97884e-07
7.98176e-07
7.98637e-07
8.01031e-07
7.92738e-07
7.93461e-07
7.93756e-07
7.94351e-07
7.94649e-07
7.95247e-07
7.95548e-07
7.96147e-07
7.96452e-07
7.97051e-07
7.97361e-07
7.97959e-07
7.98275e-07
7.98871e-07
7.99195e-07
7.99786e-07
8.0012e-07
8.00413e-07
8.00875e-07
8.03354e-07
7.95029e-07
7.95754e-07
7.96051e-07
7.96649e-07
7.96948e-07
7.97548e-07
7.9785e-07
7.98451e-07
7.98757e-07
7.99359e-07
7.9967e-07
8.0027e-07
8.00588e-07
8.01185e-07
8.01511e-07
8.02104e-07
8.02439e-07
8.02734e-07
8.03198e-07
8.05819e-07
7.97459e-07
7.98187e-07
7.98485e-07
7.99085e-07
7.99385e-07
7.99988e-07
8.00291e-07
8.00895e-07
8.01202e-07
8.01806e-07
8.02118e-07
8.02721e-07
8.0304e-07
8.0364e-07
8.03967e-07
8.04563e-07
8.04899e-07
8.05195e-07
8.05661e-07
8.08393e-07
7.99997e-07
8.00728e-07
8.01027e-07
8.0163e-07
8.01931e-07
8.02537e-07
8.02841e-07
8.03448e-07
8.03756e-07
8.04363e-07
8.04676e-07
8.05281e-07
8.05602e-07
8.06204e-07
8.06532e-07
8.07131e-07
8.07469e-07
8.07766e-07
8.08234e-07
8.10946e-07
8.02517e-07
8.03251e-07
8.03551e-07
8.04156e-07
8.04459e-07
8.05067e-07
8.05372e-07
8.05981e-07
8.06291e-07
8.069e-07
8.07215e-07
8.07823e-07
8.08144e-07
8.0875e-07
8.09079e-07
8.0968e-07
8.10019e-07
8.10318e-07
8.10788e-07
8.13258e-07
8.04798e-07
8.05534e-07
8.05835e-07
8.06442e-07
8.06746e-07
8.07356e-07
8.07663e-07
8.08274e-07
8.08585e-07
8.09196e-07
8.09512e-07
8.10122e-07
8.10445e-07
8.11052e-07
8.11383e-07
8.11986e-07
8.12327e-07
8.12626e-07
8.13098e-07
8.15034e-07
8.06709e-07
8.07421e-07
8.07712e-07
8.08303e-07
8.08599e-07
8.09194e-07
8.09494e-07
8.10092e-07
8.10399e-07
8.10998e-07
8.11312e-07
8.11912e-07
8.12235e-07
8.12834e-07
8.13168e-07
8.13763e-07
8.1411e-07
8.14406e-07
8.14878e-07
8.15855e-07
8.15854e-07
8.15854e-07
8.15854e-07
8.15854e-07
8.15853e-07
8.15853e-07
8.15853e-07
8.15853e-07
8.15852e-07
8.15853e-07
8.15852e-07
8.15853e-07
8.15852e-07
8.15853e-07
8.15852e-07
8.15852e-07
8.15852e-07
8.15852e-07
8.15852e-07
)
;

boundaryField
{
    movingWall
    {
        type            zeroGradient;
    }
    fixedWalls
    {
        type            zeroGradient;
    }
    frontAndBack
    {
        type            empty;
    }
}


// ************************************************************************* //
