/*--------------------------------*- C++ -*----------------------------------*\
| =========                 |                                                 |
| \\      /  F ield         | OpenFOAM: The Open Source CFD Toolbox           |
|  \\    /   O peration     | Version:  2506                                  |
|   \\  /    A nd           | Website:  www.openfoam.com                      |
|    \\/     M anipulation  |                                                 |
\*---------------------------------------------------------------------------*/
FoamFile
{
    version     2.0;
    format      ascii;
    arch        "LSB;label=32;scalar=64";
    class       volVectorField;
    location    "2.25";
    object      LambVectorField;
}
// * * * * * * * * * * * * * * * * * * * * * * * * * * * * * * * * * * * * * //

dimensions      [0 1 -2 0 0 0 0];

internalField   nonuniform List<vector> 
400
(
(1.27544e-05 -1.38681e-05 -0)
(-0.000655673 -0.00172033 0)
(-0.00240826 -0.0108079 0)
(-0.00524588 -0.0314483 0)
(-0.0104596 -0.0686784 0)
(-0.0197013 -0.132312 0)
(-0.0349582 -0.241839 0)
(-0.0591776 -0.426867 0)
(-0.0895358 -0.709064 0)
(-0.110884 -1.07395 0)
(-0.103905 -1.45617 0)
(-0.0604218 -1.74367 0)
(0.005979 -1.82861 -0)
(0.0723996 -1.64853 -0)
(0.121821 -1.23554 -0)
(0.13148 -0.737088 -0)
(0.0953609 -0.313883 -0)
(0.0349006 -0.0600784 -0)
(0.00251775 0.00176723 0)
(0.000567108 -0.000913246 0)
(-0.00215377 -0.00135871 0)
(-0.00689338 -0.00761341 0)
(-0.0106405 -0.0190036 0)
(-0.0159385 -0.0399525 0)
(-0.0245216 -0.0737404 0)
(-0.0385025 -0.124838 0)
(-0.0602967 -0.200526 0)
(-0.0844466 -0.294536 0)
(-0.0986106 -0.387577 0)
(-0.0940733 -0.456066 0)
(-0.0699718 -0.479552 0)
(-0.034811 -0.464934 0)
(0.00259886 -0.440922 -0)
(0.0436485 -0.446473 -0)
(0.100304 -0.48544 -0)
(0.17003 -0.498305 -0)
(0.222528 -0.430621 -0)
(0.194661 -0.255581 -0)
(0.0658897 -0.0425328 -0)
(-0.00323461 0.00215117 0)
(-0.0160023 -0.00616989 0)
(-0.0174898 -0.0127891 0)
(-0.0185774 -0.0207528 0)
(-0.0233248 -0.0359553 0)
(-0.0364912 -0.0683927 0)
(-0.0617011 -0.125895 0)
(-0.094821 -0.20214 0)
(-0.118019 -0.269586 0)
(-0.10969 -0.286492 0)
(-0.0665505 -0.218593 0)
(-0.0157503 -0.0748582 0)
(0.00944558 0.089029 0)
(-0.00168838 0.19635 -0)
(-0.0293314 0.212986 -0)
(-0.0241657 0.0846218 -0)
(0.0799273 -0.174254 -0)
(0.302257 -0.452238 -0)
(0.501638 -0.539074 -0)
(0.361344 -0.272441 -0)
(0.0187711 -0.00151255 -0)
(-0.0500165 -0.0135113 0)
(-0.0287278 -0.0157253 0)
(-0.0250879 -0.0204291 0)
(-0.0288902 -0.0314826 0)
(-0.0474433 -0.0618143 0)
(-0.0802588 -0.113834 0)
(-0.108487 -0.163213 0)
(-0.0966433 -0.158922 0)
(-0.0179544 -0.034252 0)
(0.0961979 0.231677 0)
(0.164037 0.570003 0)
(0.126349 0.866591 0)
(-0.00799257 1.04686 -0)
(-0.186303 1.07664 -0)
(-0.351138 0.990222 -0)
(-0.401302 0.714689 -0)
(-0.16378 0.203985 -0)
(0.437756 -0.396714 -0)
(0.899393 -0.602096 -0)
(0.242078 -0.0993264 -0)
(-0.11005 -0.0212843 0)
(-0.038229 -0.0158526 0)
(-0.027632 -0.0169171 0)
(-0.0309576 -0.024883 0)
(-0.0538895 -0.0510828 0)
(-0.0871639 -0.0899412 0)
(-0.0869547 -0.09596 0)
(0.00853782 0.0104159 0)
(0.193938 0.278229 0)
(0.355904 0.653653 0)
(0.366738 0.991886 0)
(0.214395 1.1832 0)
(-0.0238874 1.2303 -0)
(-0.280449 1.21319 -0)
(-0.543816 1.18825 -0)
(-0.808531 1.14731 -0)
(-0.907786 0.919093 -0)
(-0.372868 0.27656 -0)
(0.969715 -0.522373 -0)
(1.19901 -0.478844 -0)
(-0.194516 -0.026555 0)
(-0.0450573 -0.013969 0)
(-0.0269413 -0.012355 0)
(-0.0305617 -0.0181828 0)
(-0.0558121 -0.0387173 0)
(-0.0766692 -0.0576186 0)
(-0.016667 -0.0134341 0)
(0.184505 0.16592 0)
(0.450667 0.481604 0)
(0.582843 0.810593 0)
(0.467636 0.992348 0)
(0.200505 0.992414 0)
(-0.0696838 0.905942 -0)
(-0.299865 0.825952 -0)
(-0.522871 0.785727 -0)
(-0.814143 0.826964 -0)
(-1.21063 0.912819 -0)
(-1.3044 0.74136 -0)
(0.2099 -0.0849868 -0)
(2.92174 -0.812948 -0)
(-0.293918 -0.0273253 0)
(-0.0500077 -0.0112463 0)
(-0.0243439 -0.00815979 0)
(-0.0275537 -0.0118843 0)
(-0.0508398 -0.0252711 0)
(-0.0493488 -0.0262599 0)
(0.0769844 0.0437105 0)
(0.368113 0.233565 0)
(0.657927 0.499647 0)
(0.705771 0.712781 0)
(0.47349 0.771305 0)
(0.153574 0.716324 0)
(-0.1182 0.631098 -0)
(-0.3271 0.538871 -0)
(-0.485126 0.457697 -0)
(-0.670076 0.434232 -0)
(-1.05493 0.521229 -0)
(-1.62426 0.643206 -0)
(-0.90108 0.259024 -0)
(5.02628 -0.917092 -0)
(-0.392915 -0.0231527 0)
(-0.0541465 -0.00836686 0)
(-0.0200112 -0.0046614 0)
(-0.0211812 -0.00629565 0)
(-0.0394799 -0.0133004 0)
(-0.019387 -0.00681135 0)
(0.153908 0.0562063 0)
(0.492664 0.195935 0)
(0.77661 0.368688 0)
(0.762371 0.48735 0)
(0.476752 0.513211 0)
(0.135338 0.488787 0)
(-0.160968 0.438918 -0)
(-0.383804 0.36327 -0)
(-0.504309 0.277135 -0)
(-0.588512 0.222809 -0)
(-0.834799 0.239778 -0)
(-1.48812 0.365342 -0)
(-1.66428 0.31447 -0)
(6.92325 -0.798208 -0)
(-0.474932 -0.0149507 0)
(-0.0580769 -0.00551052 0)
(-0.0145262 -0.00211279 0)
(-0.0124886 -0.00228979 0)
(-0.0259825 -0.00521648 0)
(0.00285496 0.000556385 0)
(0.186673 0.0344381 0)
(0.519173 0.0938257 0)
(0.802607 0.162193 0)
(0.786549 0.207851 0)
(0.499792 0.226966 0)
(0.142302 0.232568 0)
(-0.193309 0.216864 -0)
(-0.439963 0.173079 -0)
(-0.533549 0.124137 -0)
(-0.557217 0.0939212 -0)
(-0.698416 0.0949056 -0)
(-1.29513 0.172082 -0)
(-2.02187 0.231871 -0)
(8.34415 -0.610642 -0)
(-0.52734 -0.00457247 0)
(-0.0626553 -0.00271692 0)
(-0.0096959 -0.000669676 0)
(-0.00304925 -0.000255602 0)
(-0.0111606 -0.000908112 0)
(0.0115 0.000648079 0)
(0.165709 0.00342827 0)
(0.456733 -0.00949662 0)
(0.733104 -0.0423645 0)
(0.760061 -0.07835 0)
(0.514572 -0.0880081 0)
(0.162727 -0.0804494 0)
(-0.194725 -0.0686158 0)
(-0.448827 -0.0553402 0)
(-0.523351 -0.0309704 0)
(-0.517385 -0.0102365 0)
(-0.612193 0.00593173 -0)
(-1.15105 0.0558663 -0)
(-2.18925 0.137683 -0)
(9.30892 -0.483716 -0)
(-0.543962 0.00602889 0)
(-0.0683986 9.55103e-05 0)
(-0.00665946 -1.44055e-05 0)
(0.00509914 -1.96395e-05 0)
(0.00188323 -4.75338e-05 0)
(0.0130693 -0.00089406 0)
(0.11761 -0.015073 0)
(0.334729 -0.0687659 0)
(0.570397 -0.171605 0)
(0.645478 -0.288091 0)
(0.482785 -0.359742 0)
(0.178623 -0.376744 0)
(-0.155877 -0.343747 0)
(-0.388497 -0.261232 0)
(-0.454697 -0.161227 0)
(-0.447231 -0.0904628 0)
(-0.522913 -0.0554603 0)
(-1.03265 -0.0196997 0)
(-2.29986 0.0643983 -0)
(9.87358 -0.422734 -0)
(-0.526696 0.0144393 0)
(-0.0746724 0.00294799 0)
(-0.00601406 0.000339359 0)
(0.0109036 -0.000890762 0)
(0.0125368 -0.00152104 0)
(0.0163681 -0.00297072 0)
(0.0718655 -0.0189933 0)
(0.206581 -0.0770691 0)
(0.370127 -0.19339 0)
(0.452984 -0.342395 0)
(0.376431 -0.464769 0)
(0.163511 -0.511776 0)
(-0.0889953 -0.474225 0)
(-0.272507 -0.361106 0)
(-0.341203 -0.230908 0)
(-0.354321 -0.13813 0)
(-0.42866 -0.0933271 0)
(-0.917815 -0.071096 0)
(-2.38122 0.0110016 -0)
(10.1542 -0.409836 -0)
(-0.482095 0.0195232 0)
(-0.0806226 0.00575611 0)
(-0.0078588 0.000842012 0)
(0.0138461 -0.00208822 0)
(0.0197929 -0.00413706 0)
(0.0222701 -0.00637989 0)
(0.045245 -0.0176579 0)
(0.113101 -0.0597883 0)
(0.204526 -0.147889 0)
(0.263379 -0.270515 0)
(0.236775 -0.3869 0)
(0.119582 -0.442729 0)
(-0.0323351 -0.418144 0)
(-0.153723 -0.333565 0)
(-0.222329 -0.233809 0)
(-0.257471 -0.153029 0)
(-0.336685 -0.111764 0)
(-0.802568 -0.10501 0)
(-2.44444 -0.0265722 0)
(10.2597 -0.426195 -0)
(-0.422744 0.0206328 0)
(-0.0846297 0.0081288 0)
(-0.0115982 0.00173613 0)
(0.0136591 -0.00290209 0)
(0.0228147 -0.00663104 0)
(0.0267248 -0.0103679 0)
(0.0356487 -0.0182746 0)
(0.061732 -0.0418657 0)
(0.10269 -0.0933127 0)
(0.13475 -0.170452 0)
(0.128034 -0.248108 0)
(0.0761884 -0.294432 0)
(0.000217611 -0.293265 0)
(-0.0726847 -0.256759 0)
(-0.131323 -0.203822 0)
(-0.176242 -0.148696 0)
(-0.255019 -0.118219 0)
(-0.685596 -0.126497 0)
(-2.48723 -0.0544456 0)
(10.2098 -0.455031 -0)
(-0.355123 0.0179502 0)
(-0.0856487 0.00943428 0)
(-0.0163113 0.00297703 0)
(0.0100183 -0.00267827 0)
(0.021124 -0.00779647 0)
(0.0266832 -0.0131041 0)
(0.031766 -0.0203594 0)
(0.0401103 -0.0334297 0)
(0.0537298 -0.0588274 0)
(0.0669132 -0.0994492 0)
(0.0667915 -0.14504 0)
(0.0474751 -0.181054 0)
(0.0126927 -0.195703 0)
(-0.0288524 -0.190932 0)
(-0.0722837 -0.170949 0)
(-0.115748 -0.140137 0)
(-0.187349 -0.120966 0)
(-0.576081 -0.1451 0)
(-2.49113 -0.101406 0)
(9.96236 -0.463162 -0)
(-0.313083 0.0105302 0)
(-0.08373 0.00908334 0)
(-0.0221333 0.00446714 0)
(0.00257163 -0.000805557 0)
(0.0141882 -0.00631975 0)
(0.0211058 -0.0126853 0)
(0.0262195 -0.0206086 0)
(0.0305745 -0.0309941 0)
(0.0348113 -0.0455923 0)
(0.0387804 -0.067091 0)
(0.0392896 -0.094633 0)
(0.032478 -0.12287 0)
(0.0165707 -0.143417 0)
(-0.00674963 -0.152844 0)
(-0.0364741 -0.151227 0)
(-0.0731942 -0.138072 0)
(-0.138379 -0.131172 0)
(-0.498742 -0.187574 0)
(-2.40888 -0.228887 0)
(9.60927 -0.409558 -0)
(-0.219674 -0.00247316 0)
(-0.0792986 0.00497112 0)
(-0.0341863 0.0064804 0)
(-0.0118024 0.00403816 0)
(0.00212549 -0.00110347 0)
(0.012097 -0.00878116 0)
(0.0194391 -0.0187805 0)
(0.0251719 -0.0314544 0)
(0.0296576 -0.0474339 0)
(0.0325551 -0.067271 0)
(0.0332502 -0.0917005 0)
(0.0292963 -0.116474 0)
(0.0205984 -0.13969 0)
(0.00610584 -0.159048 0)
(-0.0157285 -0.169136 0)
(-0.0488574 -0.17189 0)
(-0.11568 -0.180594 0)
(-0.48564 -0.316953 0)
(-2.2171 -0.432044 0)
(9.25652 -0.254742 -0)
(-0.432659 -0.030565 0)
(-0.0655953 -0.00169056 0)
(0.00412057 -0.000469085 0)
(0.031711 -0.00961301 0)
(0.0458011 -0.0249966 0)
(0.0569627 -0.047863 0)
(0.0651181 -0.0769421 0)
(0.0705963 -0.111034 0)
(0.0734838 -0.149415 0)
(0.0733275 -0.190986 0)
(0.0697488 -0.234396 0)
(0.0628897 -0.277772 0)
(0.0524207 -0.321587 0)
(0.0376783 -0.365131 0)
(0.0154595 -0.40377 0)
(-0.02901 -0.448683 0)
(-0.1254 -0.456915 0)
(-0.541622 -0.733948 0)
(-1.86035 -0.5453 0)
(7.17352 0.158931 0)
(0.0276964 0.0139274 0)
(0.0601131 0.0633402 0)
(0.0917416 -0.0129116 0)
(0.147905 -0.137816 0)
(0.183258 -0.296179 0)
(0.196945 -0.467012 0)
(0.201423 -0.638423 0)
(0.201987 -0.807995 0)
(0.198743 -0.974665 0)
(0.190834 -1.13712 0)
(0.17816 -1.29371 0)
(0.161665 -1.4448 0)
(0.141547 -1.58916 0)
(0.116137 -1.73004 0)
(0.0840434 -1.85945 0)
(0.0169556 -2.01532 0)
(-0.088277 -2.00178 0)
(-0.516532 -2.57196 0)
(-1.32204 -0.922298 0)
(-2.34869 -0.747293 0)
(16.8136 -7.26524 0)
(13.8606 -12.0634 0)
(8.4449 -16.8153 0)
(5.44626 -20.6399 0)
(3.93415 -23.5506 0)
(3.07315 -25.9902 0)
(2.51574 -28.189 0)
(2.12317 -30.1914 0)
(1.82898 -31.9985 0)
(1.59852 -33.6196 0)
(1.40836 -35.0615 0)
(1.24445 -36.3298 0)
(1.09738 -37.4175 0)
(0.955283 -38.3455 0)
(0.799594 -39.0119 0)
(0.586084 -39.7167 0)
(0.351513 -39.0264 0)
(-0.502354 -41.472 0)
(0.648734 -24.5803 0)
(-14.3029 -55.1059 0)
)
;

boundaryField
{
    movingWall
    {
        type            calculated;
        value           nonuniform List<vector> 
20
(
(0 -367.642 0)
(0 -380.864 0)
(0 -369.618 0)
(0 -358.713 0)
(0 -350.452 0)
(0 -343.709 0)
(0 -337.649 0)
(0 -332.048 0)
(0 -326.88 0)
(0 -322.142 0)
(0 -317.851 0)
(0 -314.036 0)
(0 -310.765 0)
(0 -308.018 0)
(0 -306.196 0)
(0 -304.287 0)
(0 -307.569 0)
(0 -298.604 0)
(0 -358.818 0)
(0 -238.866 0)
)
;
    }
    fixedWalls
    {
        type            calculated;
        value           uniform (-0 0 0);
    }
    frontAndBack
    {
        type            empty;
    }
}


// ************************************************************************* //
