/*--------------------------------*- C++ -*----------------------------------*\
| =========                 |                                                 |
| \\      /  F ield         | OpenFOAM: The Open Source CFD Toolbox           |
|  \\    /   O peration     | Version:  2506                                  |
|   \\  /    A nd           | Website:  www.openfoam.com                      |
|    \\/     M anipulation  |                                                 |
\*---------------------------------------------------------------------------*/
FoamFile
{
    version     2.0;
    format      ascii;
    arch        "LSB;label=32;scalar=64";
    class       volScalarField;
    location    "2.25";
    object      Lambda2Field;
}
// * * * * * * * * * * * * * * * * * * * * * * * * * * * * * * * * * * * * * //

dimensions      [0 0 -2 0 0 0 0];

internalField   nonuniform List<scalar> 
400
(
0.0283285
0.192051
0.458196
0.546933
0.596129
0.845043
1.46081
2.66644
4.85031
7.8763
10.5139
11.7811
12.1543
14.0242
17.8773
19.2669
14.7502
7.03963
1.2653
0.13816
0.319145
0.969364
1.73728
2.0686
2.25415
2.82801
4.25735
6.60955
9.10782
10.5597
10.7961
10.6927
11.4926
14.9924
21.3204
26.4403
26.2024
17.371
3.45651
0.0429061
0.896208
1.70582
2.71446
3.34314
3.99242
5.35607
7.7172
10.6993
13.05
13.0982
10.7825
8.02308
7.21728
8.97366
14.931
24.8687
33.2434
32.5552
16.4117
1.06632
1.50356
2.36284
3.17066
3.9869
5.2771
7.52757
10.5872
13.0088
12.3803
7.50053
-0.161864
-7.60845
-12.3329
-12.939
-10.1152
-0.408003
17.6377
35.4158
35.492
7.58029
2.10214
2.73479
3.38363
4.3182
6.11451
9.03775
12.062
12.0713
6.28549
-4.63214
-15.9582
-23.2256
-26.2397
-27.3197
-28.5198
-27.8696
-16.4907
12.4175
40.414
37.4529
2.56668
2.73748
3.18457
4.24354
6.39112
9.64494
11.5033
7.84505
-2.88396
-16.7229
-25.894
-27.409
-24.9789
-23.2751
-24.1764
-29.3921
-34.39
-20.2627
26.8218
73.5928
2.78723
2.41529
2.71535
3.76427
5.95976
8.96272
9.26904
2.57231
-10.9225
-24.163
-28.9992
-26.4989
-22.3166
-18.3713
-16.033
-18.3138
-27.6565
-33.2834
-0.315721
81.3489
2.75139
1.92084
2.09696
3.05463
5.08851
7.67259
6.87036
-0.928878
-15.5484
-27.6701
-30.8251
-28.4416
-24.6101
-19.6299
-14.3811
-12.3005
-16.8046
-27.3921
-17.2112
70.5521
2.56415
1.41785
1.49224
2.32469
4.10948
6.35195
5.32404
-2.22832
-16.3826
-28.6044
-32.7212
-32.153
-29.0031
-22.8011
-15.1912
-10.7307
-11.3624
-19.2192
-18.8224
48.1754
2.27933
1.03178
1.01843
1.70098
3.222
5.31689
4.94073
-1.16287
-13.6374
-26.239
-32.4949
-33.8412
-31.2071
-23.6161
-14.5687
-9.16653
-8.42121
-13.1267
-15.2858
24.6291
1.87044
0.813249
0.734619
1.26285
2.52554
4.50581
5.02874
1.23148
-7.7096
-19.1593
-27.1136
-29.8995
-27.5103
-19.5826
-10.9996
-6.21158
-5.12293
-8.09084
-10.9263
9.23821
1.48004
0.723431
0.624225
1.0229
2.03226
3.74042
4.94923
3.58613
-1.26138
-9.3195
-16.4191
-19.4116
-17.5031
-11.3296
-5.16565
-2.18591
-1.3732
-3.52781
-5.09399
0
1.0146
0.723544
0.646314
0.948655
1.72793
3.08037
4.48831
4.65576
2.52009
-1.33419
-5.77125
-7.87117
-6.63825
-3.07943
0
1.35941
1.84888
0
0
-4.01622
0.611857
0.704256
0.756714
0.999107
1.5848
2.56108
3.75285
4.46353
3.89788
2.05794
0
-1.13478
-0.637901
0.925433
2.48194
3.56232
4.14877
2.72168
0
-1.03735
0
0.580246
0.875326
1.16857
1.61188
2.27471
3.06298
3.65123
3.59711
2.73241
1.56638
0.785281
0.960533
1.91606
3.10112
4.09933
4.9893
1.78244
-4.73351
0
-0.153677
0.312844
1.07435
1.43213
1.80447
2.24791
2.68182
2.92057
2.78035
2.14877
1.25112
0.571962
0.502381
1.16255
2.24629
3.27988
4.13708
-4.04976
-15.8594
2.52234
0
-0.0332357
0.155776
0.937484
1.52146
1.93844
2.19463
2.20345
1.8847
1.22854
0.36557
-0.253439
-0.5574
-0.186922
0.468495
1.59825
0
-18.1818
-8.13882
27.3813
0
0.353953
2.14628
2.29943
2.47996
2.62537
2.5511
2.14277
1.34652
0.210235
-0.646511
-1.99608
-2.91807
-3.29387
-4.1551
-4.86241
-15.9285
-41.7479
0
261.452
8.55207
0
0
1.36573
0.321327
0
0
0
0
0
-0.948206
-2.59453
-3.86812
-5.52884
-8.13545
-12.918
-27.7139
-17.9348
-140.863
963.632
3234.79
-618.072
-682.28
-356.755
-161.159
-84.5664
-54.8396
-38.9937
-28.9851
-23.2056
-20.4307
-18.5762
-18.6118
-16.095
-34.6617
0
0
0
-223.925
1617.14
)
;

boundaryField
{
    movingWall
    {
        type            calculated;
        value           nonuniform List<scalar> 
20
(
1500.54
0
0
0
0
0
0
0
0
0
0
0
0
0
0
0
-127.608
0
-1336.43
2881
)
;
    }
    fixedWalls
    {
        type            calculated;
        value           nonuniform List<scalar> 
60
(
0
0.0412752
0.487626
1.16868
1.7878
2.66304
3.64825
4.03522
3.41371
2.67891
1.7979
1.02835
0.300168
0
0
0
-1.19186
0
26.6721
6882.3
0
0
0
0
22.4682
41.4815
53.8755
44.3715
9.30844
0
0
0
0
0
0
0
68.3902
769.953
3145.72
2180.67
0
0
0
0
0
0
0
0.534957
3.87908
7.78452
13.5586
18.8883
20.7076
20.3778
21.461
19.0518
10.3254
2.8442
0.788481
0.114639
)
;
    }
    frontAndBack
    {
        type            empty;
    }
}


// ************************************************************************* //
