/*--------------------------------*- C++ -*----------------------------------*\
| =========                 |                                                 |
| \\      /  F ield         | OpenFOAM: The Open Source CFD Toolbox           |
|  \\    /   O peration     | Version:  2506                                  |
|   \\  /    A nd           | Website:  www.openfoam.com                      |
|    \\/     M anipulation  |                                                 |
\*---------------------------------------------------------------------------*/
FoamFile
{
    version     2.0;
    format      ascii;
    arch        "LSB;label=32;scalar=64";
    class       volScalarField;
    location    "0.5";
    object      Lambda2Field;
}
// * * * * * * * * * * * * * * * * * * * * * * * * * * * * * * * * * * * * * //

dimensions      [0 0 -2 0 0 0 0];

internalField   nonuniform List<scalar> 
400
(
0.00397443
0.0125923
0.0259011
0.0312729
0.0322003
0.0298769
0.0267023
0.024271
0.023396
0.0227673
0.024801
0.0279866
0.0309358
0.0357233
0.0417215
0.0468357
0.0474236
0.0411008
0.0228588
0.00940077
0.0123661
0.0231934
0.0289672
0.03102
0.0295976
0.0257688
0.0208044
0.0157322
0.0113309
0.00829225
0.00696141
0.00788176
0.0117784
0.0186008
0.0276975
0.0373422
0.0447024
0.0467788
0.041591
0.0250247
0.0259475
0.0300757
0.0344123
0.0341373
0.0321987
0.0284067
0.0233819
0.0180235
0.0132225
0.0097769
0.00841367
0.00984783
0.014464
0.0222231
0.0322392
0.0429396
0.0521398
0.0580328
0.0554762
0.0485675
0.0332236
0.0362806
0.0386347
0.0380288
0.0358275
0.0323893
0.0280347
0.0233521
0.0191712
0.0163355
0.0156526
0.0177954
0.0231511
0.0316499
0.0424861
0.0542028
0.0651524
0.0725077
0.0725313
0.0630178
0.0372376
0.0423561
0.044974
0.043942
0.0417158
0.038805
0.0353465
0.0317556
0.0287386
0.0271057
0.0276611
0.0310939
0.0377552
0.0476157
0.0600219
0.0738433
0.087863
0.0979201
0.0968678
0.074611
0.0383432
0.0491104
0.0534873
0.0526981
0.0506064
0.0483445
0.0458709
0.0435798
0.0421067
0.0422267
0.0447531
0.0502607
0.059467
0.0723228
0.0884583
0.107027
0.126841
0.140671
0.135421
0.0855787
0.0382113
0.0574209
0.0645546
0.0646085
0.0628493
0.0611743
0.059764
0.0589595
0.0594128
0.061943
0.0674506
0.076702
0.0905361
0.109298
0.133121
0.16146
0.192607
0.213744
0.200883
0.101841
0.0379812
0.068143
0.0787788
0.0799551
0.0785738
0.0774147
0.0769659
0.0777677
0.0805252
0.0862443
0.0961814
0.111306
0.133047
0.162917
0.201846
0.250063
0.305073
0.344009
0.318532
0.134004
0.0381626
0.0822145
0.0969741
0.099214
0.0979025
0.0969001
0.0971049
0.0993498
0.104687
0.114475
0.130428
0.154357
0.189623
0.239494
0.307413
0.396576
0.504781
0.591053
0.54248
0.205584
0.0386305
0.100828
0.120287
0.122984
0.120832
0.119079
0.119145
0.12228
0.130008
0.144393
0.168254
0.205419
0.262403
0.346979
0.470703
0.647232
0.882014
1.0967
0.996568
0.380289
0.0385815
0.125701
0.150205
0.151808
0.146844
0.142544
0.140891
0.14363
0.152848
0.17159
0.204695
0.260156
0.34992
0.494279
0.728542
1.10384
1.66931
2.26017
1.99566
1.04006
0.0334947
0.159445
0.188548
0.185703
0.174437
0.16456
0.158637
0.15873
0.16741
0.188791
0.23036
0.306503
0.444168
0.693584
1.15952
2.02251
3.48098
5.30416
4.67499
1.61453
0.0290844
0.206132
0.236404
0.222868
0.199579
0.179727
0.166023
0.16035
0.165267
0.185653
0.231992
0.328183
0.529213
0.9533
1.91249
4.01538
7.81851
12.7645
12.4637
-1.72103
0
0.271356
0.293158
0.254566
0.211857
0.177286
0.152601
0.138586
0.13678
0.151794
0.196702
0.307292
0.582737
1.2951
3.21973
8.46467
17.5071
29.3957
31.7356
0
0.0903663
0.356358
0.340723
0.259299
0.18971
0.138794
0.103786
0.0829352
0.0756723
0.0854562
0.127541
0.251683
0.614938
1.72804
4.9579
10.5393
9.84433
5.90375
36.5274
58.9645
0
0.35757
0.277291
0.164924
0.0815298
0.0243231
-0.00678242
-0.0254921
-0.0280737
-0.010095
0.0516141
0.238703
0.800412
2.28214
5.93608
0.336741
-44.2695
-120.374
-41.2692
128.407
0
0.428194
0.0814563
0
-0.0786423
-0.190949
-0.231342
-0.232263
-0.206916
-0.134941
0
0.385441
1.41797
3.62627
6.15927
0
-60.5275
-200.711
-130.603
163.009
0
0
0
-0.22111
-0.585018
-0.687949
-0.656944
-0.579823
-0.475572
-0.29482
0
0.0797176
2.57501
7.33344
11.4459
1.50537
-30.6673
-112.31
-85.1523
356.95
10.4143
0
0
0
0
0
0
0
0
0
0
0
0
3.32091
3.66116
0
-46.0838
-60.1495
-166.083
1018.89
3211.65
-591.77
-677.839
-359.949
-163.933
-85.8369
-52.9806
-33.7161
-21.9553
-16.3924
-15.328
-16.4561
-19.4959
-15.7346
-28.627
0
0
0
-236.514
1686.67
)
;

boundaryField
{
    movingWall
    {
        type            calculated;
        value           nonuniform List<scalar> 
20
(
1601.23
0
0
0
0
0
0
0
0
0
0
0
0
0
0
0
-43.7236
0
-1302.9
3161.74
)
;
    }
    fixedWalls
    {
        type            calculated;
        value           nonuniform List<scalar> 
60
(
0.000405027
0.00866856
0.0172275
0.0204968
0.0205575
0.0158608
0.00713781
0
0
0
0
0
0
0
0
0
0
0
35.3172
6871.86
0.00240491
0.0174619
0.0320612
0.035849
0.0301008
0.00922803
0
0
0
0
0.918295
0
-9.38171
-31.8382
0
97.04
284.089
880.541
3259.34
2309.23
0.000467555
0.00902599
0.0188981
0.024289
0.0277089
0.0284558
0.0285996
0.0300954
0.0343043
0.0388281
0.0445875
0.0497658
0.0490847
0.0487296
0.0480915
0.0456164
0.0394217
0.030827
0.0165652
0.00212275
)
;
    }
    frontAndBack
    {
        type            empty;
    }
}


// ************************************************************************* //
