/*--------------------------------*- C++ -*----------------------------------*\
| =========                 |                                                 |
| \\      /  F ield         | OpenFOAM: The Open Source CFD Toolbox           |
|  \\    /   O peration     | Version:  2506                                  |
|   \\  /    A nd           | Website:  www.openfoam.com                      |
|    \\/     M anipulation  |                                                 |
\*---------------------------------------------------------------------------*/
FoamFile
{
    version     2.0;
    format      ascii;
    arch        "LSB;label=32;scalar=64";
    class       volVectorField;
    location    "6.5";
    object      ddtU;
}
// * * * * * * * * * * * * * * * * * * * * * * * * * * * * * * * * * * * * * //

dimensions      [0 1 -2 0 0 0 0];

internalField   nonuniform List<vector> 
400
(
(8.88178e-14 -5.36746e-14 0)
(-1.33227e-13 -1.64735e-14 0)
(-6.66134e-14 -1.90627e-14 0)
(-4.44089e-14 -2.77834e-15 0)
(-4.44089e-14 4.77874e-16 0)
(-2.22045e-14 3.87241e-15 0)
(-6.66134e-14 -1.05804e-15 0)
(-4.44089e-14 -3.50716e-15 0)
(-4.44089e-14 -1.19134e-14 0)
(0 -1.5263e-14 0)
(4.44089e-14 3.45587e-15 0)
(-6.66134e-14 -3.72071e-16 0)
(0 -1.75639e-15 0)
(0 3.75997e-15 0)
(-2.22045e-14 7.6615e-15 0)
(-2.22045e-14 1.30733e-14 0)
(-4.44089e-14 3.67407e-15 0)
(0 -6.11367e-15 0)
(0 -1.15231e-14 0)
(-4.44089e-14 -8.28401e-15 0)
(-2.22045e-14 -1.71826e-13 0)
(-4.44089e-14 -3.58241e-14 0)
(-4.44089e-14 -5.23464e-14 0)
(0 -2.42367e-14 0)
(-4.44089e-14 -7.89209e-15 0)
(4.44089e-14 2.06887e-15 0)
(0 -6.19759e-15 0)
(4.44089e-14 -1.58381e-14 0)
(8.88178e-14 -1.53377e-14 0)
(-2.22045e-14 -1.73212e-14 0)
(-8.88178e-14 -3.57071e-15 0)
(4.44089e-14 -4.89113e-15 0)
(0 2.42718e-15 0)
(0 9.71433e-15 0)
(-4.44089e-14 3.80695e-15 0)
(-4.44089e-14 8.71662e-15 0)
(4.44089e-14 1.29622e-14 0)
(0 -3.41353e-16 0)
(-4.44089e-14 -2.02466e-14 0)
(6.66134e-14 -1.04952e-17 0)
(-4.44089e-14 -1.41998e-13 0)
(2.22045e-14 -4.86078e-14 0)
(-4.44089e-14 -4.2672e-14 0)
(0 -3.98167e-14 0)
(0 -2.19429e-14 0)
(0 -4.78483e-15 0)
(0 -3.54786e-15 0)
(-2.22045e-14 -6.63457e-15 0)
(-2.22045e-14 -3.23027e-15 0)
(0 -3.8706e-15 0)
(2.22045e-14 -8.43781e-15 0)
(2.22045e-14 4.40703e-15 0)
(-2.22045e-14 -3.6337e-15 0)
(0 -1.3054e-14 0)
(4.44089e-14 6.92556e-15 0)
(-4.44089e-14 2.0039e-14 0)
(-2.22045e-14 2.55901e-14 0)
(0 -2.1635e-15 0)
(-2.22045e-14 -1.82363e-14 0)
(0 4.04719e-15 0)
(-4.44089e-14 -7.60481e-14 0)
(-4.44089e-14 -6.5536e-14 0)
(0 -4.23755e-14 0)
(0 -4.47781e-14 0)
(-4.44089e-14 -3.41516e-14 0)
(0 -2.317e-14 0)
(4.44089e-14 -1.22281e-14 0)
(0 -6.73116e-15 0)
(0 -5.87113e-16 0)
(0 4.45036e-15 0)
(-4.44089e-14 -3.93035e-15 0)
(4.44089e-14 8.5003e-15 0)
(0 1.17269e-14 0)
(0 7.90252e-15 0)
(-4.44089e-14 2.88398e-14 0)
(-4.44089e-14 1.09669e-14 0)
(0 1.1108e-15 0)
(4.44089e-14 -3.04263e-15 0)
(0 -2.15836e-14 0)
(0 -8.89972e-15 0)
(0 -6.12343e-14 0)
(-8.88178e-14 -5.69709e-14 0)
(0 -4.15604e-14 0)
(-2.22045e-14 -3.14426e-14 0)
(0 -3.5358e-14 0)
(0 -3.74886e-14 0)
(2.22045e-14 -2.1573e-14 0)
(-2.22045e-14 -2.02349e-14 0)
(0 -6.39993e-15 0)
(0 2.46138e-15 0)
(2.22045e-14 2.98942e-15 0)
(-2.22045e-14 8.68721e-15 0)
(2.22045e-14 3.98331e-14 0)
(-2.22045e-14 3.64635e-14 0)
(0 8.25276e-16 0)
(4.44089e-14 -2.48613e-14 0)
(0 -1.86785e-14 0)
(2.22045e-14 7.69861e-15 0)
(0 -1.27866e-14 0)
(0 -8.16045e-15 0)
(4.44089e-14 -1.49154e-14 0)
(0 -1.3285e-14 0)
(-4.44089e-14 -4.09882e-14 0)
(0 -4.20545e-14 0)
(2.22045e-14 -5.02366e-14 0)
(2.22045e-14 -3.90396e-14 0)
(-2.22045e-14 -1.85564e-14 0)
(2.22045e-14 1.40209e-15 0)
(-2.22045e-14 1.31986e-14 0)
(-6.66134e-14 -1.12126e-15 0)
(-4.44089e-14 -4.36425e-15 0)
(-6.66134e-14 7.60956e-15 0)
(-4.44089e-14 8.32755e-15 0)
(0 4.78014e-15 0)
(4.44089e-14 -1.83159e-14 0)
(2.22045e-14 -1.54879e-15 0)
(-2.22045e-14 3.89696e-15 0)
(0 9.09061e-16 0)
(-2.22045e-14 6.37598e-15 0)
(2.22045e-14 -5.60309e-15 0)
(-4.44089e-14 9.47096e-15 0)
(4.44089e-14 -4.86007e-14 0)
(0 -4.74538e-14 0)
(8.88178e-14 -3.74845e-14 0)
(2.22045e-14 -1.15933e-14 0)
(-2.22045e-14 -8.73422e-15 0)
(-4.44089e-14 -2.36447e-14 0)
(-2.22045e-14 -1.19505e-14 0)
(-2.22045e-14 9.00144e-15 0)
(2.22045e-14 2.11074e-15 0)
(-2.22045e-14 -2.64948e-15 0)
(0 -8.85782e-15 0)
(-2.22045e-14 -1.89995e-14 0)
(0 -1.67868e-14 0)
(0 -9.7885e-15 0)
(-2.22045e-14 -9.25861e-15 0)
(0 3.83598e-15 0)
(2.22045e-14 8.1861e-15 0)
(-2.22045e-14 6.77108e-15 0)
(0 -3.08419e-15 0)
(-4.44089e-14 -4.59822e-14 0)
(4.44089e-14 -3.55936e-14 0)
(0 -3.34591e-14 0)
(-8.88178e-14 -2.63733e-14 0)
(0 -1.73657e-14 0)
(4.44089e-14 -1.47079e-14 0)
(4.44089e-14 -6.04957e-15 0)
(-4.44089e-14 -1.14053e-14 0)
(-4.44089e-14 -4.45556e-15 0)
(0 1.60296e-14 0)
(-8.88178e-14 9.73507e-15 0)
(0 -3.05077e-14 0)
(0 -3.03371e-14 0)
(4.44089e-14 -5.70653e-15 0)
(0 8.56255e-15 0)
(-2.22045e-14 -3.91784e-15 0)
(-8.88178e-14 -2.05834e-14 0)
(-4.44089e-14 -9.58436e-15 0)
(4.44089e-14 -1.30719e-16 0)
(0 2.88102e-15 0)
(-8.88178e-14 -2.8484e-14 0)
(4.44089e-14 -2.46827e-14 0)
(0 -2.47593e-14 0)
(-4.44089e-14 -3.07992e-14 0)
(6.66134e-14 -2.43907e-14 0)
(-4.44089e-14 2.15678e-16 0)
(0 2.02166e-14 0)
(-4.44089e-14 1.42242e-14 0)
(4.44089e-14 -1.03158e-14 0)
(-2.22045e-14 -1.14965e-14 0)
(4.44089e-14 -1.70295e-14 0)
(4.44089e-14 -1.49936e-14 0)
(2.22045e-14 -9.87823e-15 0)
(0 -9.99441e-17 0)
(2.22045e-14 8.75229e-15 0)
(4.44089e-14 2.80012e-14 0)
(2.22045e-14 9.36954e-16 0)
(-2.22045e-14 -8.34086e-15 0)
(-2.22045e-14 -4.30438e-15 0)
(0 6.16426e-15 0)
(6.66134e-14 -4.2163e-14 0)
(0 -3.59868e-14 0)
(4.44089e-14 -5.45021e-15 0)
(-2.22045e-14 2.60193e-16 0)
(-4.44089e-14 1.39466e-14 0)
(-4.44089e-14 7.66656e-15 0)
(0 -1.04522e-14 0)
(8.88178e-14 -1.11075e-14 0)
(6.66134e-14 -6.39519e-15 0)
(4.44089e-14 -6.57378e-15 0)
(4.44089e-14 -3.26886e-15 0)
(-6.66134e-14 3.96362e-15 0)
(4.44089e-14 1.48451e-14 0)
(-2.22045e-14 -3.60362e-15 0)
(-2.22045e-14 -7.35391e-15 0)
(-2.22045e-14 1.46746e-14 0)
(0 2.99698e-14 0)
(0 8.34945e-15 0)
(0 -1.16168e-14 0)
(2.22045e-14 2.47762e-15 0)
(-4.44089e-14 -1.94542e-14 0)
(-4.44089e-14 -2.35262e-14 0)
(-4.44089e-14 -3.01248e-15 0)
(-4.44089e-14 -1.68947e-15 0)
(0 -1.70335e-14 0)
(0 -2.08608e-14 0)
(0 -1.09183e-14 0)
(-4.44089e-14 -9.16645e-15 0)
(-4.44089e-14 4.27463e-15 0)
(-8.88178e-14 1.61176e-14 0)
(8.88178e-14 1.51907e-14 0)
(0 -2.93043e-15 0)
(0 -1.44119e-14 0)
(4.44089e-14 8.74103e-16 0)
(-2.22045e-14 3.28957e-14 0)
(0 2.37658e-14 0)
(-2.22045e-14 -6.49811e-15 0)
(2.22045e-14 -1.66605e-14 0)
(4.44089e-14 4.16167e-16 0)
(2.22045e-14 1.09337e-14 0)
(2.22045e-13 6.13539e-14 0)
(2.22045e-14 -3.96425e-14 0)
(6.66134e-14 -1.79228e-14 0)
(6.66134e-14 -6.6305e-15 0)
(2.22045e-14 -6.27421e-15 0)
(4.44089e-14 2.58198e-14 0)
(-2.22045e-14 3.44604e-14 0)
(-2.22045e-14 8.63952e-15 0)
(0 -1.15009e-14 0)
(0 -6.57884e-15 0)
(0 6.49225e-16 0)
(-4.44089e-14 6.54897e-15 0)
(0 -3.01064e-14 0)
(-2.22045e-14 -8.81804e-15 0)
(-4.44089e-14 2.33787e-14 0)
(4.44089e-14 9.60264e-15 0)
(4.44089e-14 -1.70508e-14 0)
(0 -6.75991e-15 0)
(-2.22045e-14 7.96675e-15 0)
(0 1.50662e-14 0)
(4.44089e-14 -1.48457e-13 0)
(0 2.30369e-14 0)
(0 2.68118e-15 0)
(-4.44089e-14 8.87167e-15 0)
(-4.44089e-14 4.18183e-15 0)
(0 1.43709e-14 0)
(4.44089e-14 1.33815e-14 0)
(4.44089e-14 1.05022e-14 0)
(0 -4.23316e-16 0)
(0 -2.28118e-15 0)
(0 9.93258e-15 0)
(0 1.15917e-14 0)
(4.44089e-14 7.96222e-15 0)
(-4.44089e-14 -3.05116e-15 0)
(-8.88178e-14 -2.05829e-14 0)
(0 -2.99146e-14 0)
(4.44089e-14 -3.31711e-15 0)
(0 9.83269e-15 0)
(4.44089e-14 2.75388e-15 0)
(0 3.23746e-15 0)
(-1.11022e-13 1.39495e-15 0)
(-6.66134e-14 3.1813e-16 0)
(-4.44089e-14 1.30596e-14 0)
(0 -2.74638e-15 0)
(-2.22045e-14 6.46927e-15 0)
(-2.22045e-14 -7.79371e-15 0)
(2.22045e-14 -2.50087e-15 0)
(2.22045e-14 2.27293e-14 0)
(-6.66134e-14 8.84952e-15 0)
(2.22045e-14 1.34161e-15 0)
(0 5.60826e-15 0)
(0 5.75741e-15 0)
(6.66134e-14 2.77218e-14 0)
(2.22045e-14 1.48923e-15 0)
(2.22045e-14 -1.79924e-14 0)
(2.22045e-14 -1.93974e-14 0)
(0 -4.84874e-15 0)
(0 3.01893e-15 0)
(2.22045e-14 2.47802e-15 0)
(-2.22045e-14 9.81322e-16 0)
(-4.44089e-14 1.2884e-13 0)
(-2.22045e-14 -1.63683e-14 0)
(0 -2.74596e-15 0)
(0 -1.26514e-14 0)
(-4.44089e-14 5.13014e-15 0)
(0 1.1445e-14 0)
(-4.44089e-14 -6.27687e-15 0)
(0 6.38769e-15 0)
(8.88178e-14 2.46649e-14 0)
(-4.44089e-14 2.01454e-14 0)
(-4.44089e-14 -5.50539e-15 0)
(0 -4.73097e-15 0)
(0 5.50961e-16 0)
(4.44089e-14 8.40727e-15 0)
(2.22045e-14 1.47332e-14 0)
(-4.44089e-14 -1.43063e-17 0)
(-2.22045e-14 -4.9871e-15 0)
(2.22045e-14 -1.52185e-15 0)
(-2.22045e-14 5.80258e-15 0)
(2.22045e-14 1.14984e-15 0)
(-6.66134e-14 -6.19291e-14 0)
(0 2.65358e-14 0)
(0 4.41503e-15 0)
(-4.44089e-14 -1.62529e-16 0)
(-4.44089e-14 -4.08383e-15 0)
(4.44089e-14 -1.0032e-14 0)
(4.44089e-14 -9.01692e-15 0)
(-4.44089e-14 2.00269e-15 0)
(-4.44089e-14 2.52552e-14 0)
(0 2.30599e-14 0)
(6.66134e-14 1.42844e-14 0)
(2.22045e-14 1.18812e-14 0)
(-2.22045e-14 2.23965e-15 0)
(-2.22045e-14 6.5396e-15 0)
(-4.44089e-14 -7.79749e-15 0)
(4.44089e-14 -7.92963e-15 0)
(-2.22045e-14 -1.13037e-15 0)
(0 2.39557e-15 0)
(-2.22045e-14 4.25919e-15 0)
(0 -5.27743e-15 0)
(0 2.95626e-14 0)
(0 4.32612e-15 0)
(0 1.30429e-14 0)
(0 5.47922e-15 0)
(0 -5.79922e-15 0)
(0 -1.39287e-14 0)
(-4.44089e-14 7.88668e-15 0)
(-4.44089e-14 1.10011e-14 0)
(-2.22045e-14 2.76992e-15 0)
(0 1.62402e-15 0)
(-2.22045e-14 1.56979e-14 0)
(0 1.62237e-14 0)
(0 6.77543e-15 0)
(2.22045e-14 -2.98793e-16 0)
(6.66134e-14 -2.10493e-14 0)
(0 -4.11099e-16 0)
(2.22045e-14 -6.45942e-15 0)
(-2.22045e-14 -5.25082e-15 0)
(0 -7.40414e-15 0)
(2.22045e-14 -3.46831e-15 0)
(4.44089e-14 6.82932e-14 0)
(-2.22045e-14 1.14141e-15 0)
(0 9.24303e-15 0)
(2.22045e-14 6.37002e-15 0)
(-2.22045e-14 -2.49715e-15 0)
(0 7.6926e-15 0)
(-4.44089e-14 6.81571e-15 0)
(0 -2.84642e-15 0)
(-2.22045e-14 -2.00041e-15 0)
(-2.22045e-14 -6.04477e-16 0)
(-2.22045e-14 -3.63346e-15 0)
(2.22045e-14 -7.87928e-16 0)
(-2.22045e-14 -1.5254e-15 0)
(0 -1.49755e-14 0)
(-2.22045e-14 -8.15221e-15 0)
(0 -7.77101e-16 0)
(4.44089e-14 3.34876e-15 0)
(0 -5.67988e-15 0)
(0 -1.03165e-14 0)
(0 -5.5669e-15 0)
(-6.66134e-14 1.36895e-14 0)
(0 8.58631e-15 0)
(-2.22045e-14 1.4576e-15 0)
(0 -1.56746e-15 0)
(0 1.96109e-15 0)
(0 3.51184e-15 0)
(4.44089e-14 4.60215e-15 0)
(4.44089e-14 1.10067e-15 0)
(0 -4.04336e-16 0)
(0 3.38162e-15 0)
(0 -1.05194e-14 0)
(4.44089e-14 -4.37799e-15 0)
(-4.44089e-14 2.51322e-15 0)
(-4.44089e-14 -2.24345e-14 0)
(-4.44089e-14 -2.45094e-14 0)
(0 -1.7089e-14 0)
(2.22045e-14 2.19553e-14 0)
(2.22045e-14 1.14796e-14 0)
(-2.22045e-14 -1.74469e-14 0)
(-2.22045e-14 -1.49222e-14 0)
(0 9.34808e-15 0)
(6.66134e-14 -1.34616e-15 0)
(0 2.22454e-15 0)
(0 -3.13881e-15 0)
(-2.22045e-14 -1.99846e-15 0)
(0 -7.17942e-16 0)
(0 2.66563e-15 0)
(-2.22045e-14 4.83036e-15 0)
(2.22045e-14 1.06585e-15 0)
(2.22045e-14 2.77601e-16 0)
(2.22045e-14 -8.44219e-15 0)
(-4.44089e-14 -3.41922e-15 0)
(4.44089e-14 3.5889e-15 0)
(-4.44089e-14 -3.62149e-15 0)
(-2.22045e-14 -9.03949e-15 0)
(0 -6.97399e-15 0)
(-6.66134e-14 8.54094e-15 0)
(4.44089e-14 7.92597e-15 0)
(0 -1.32845e-14 0)
(4.44089e-14 -8.41135e-15 0)
)
;

boundaryField
{
    movingWall
    {
        type            calculated;
        value           uniform (0 0 0);
    }
    fixedWalls
    {
        type            calculated;
        value           uniform (0 0 0);
    }
    frontAndBack
    {
        type            empty;
    }
}


// ************************************************************************* //
