/*--------------------------------*- C++ -*----------------------------------*\
| =========                 |                                                 |
| \\      /  F ield         | OpenFOAM: The Open Source CFD Toolbox           |
|  \\    /   O peration     | Version:  2506                                  |
|   \\  /    A nd           | Website:  www.openfoam.com                      |
|    \\/     M anipulation  |                                                 |
\*---------------------------------------------------------------------------*/
FoamFile
{
    version     2.0;
    format      ascii;
    arch        "LSB;label=32;scalar=64";
    class       volVectorField;
    location    "6.5";
    object      diffU;
}
// * * * * * * * * * * * * * * * * * * * * * * * * * * * * * * * * * * * * * //

dimensions      [0 1 -1 0 0 0 0];

internalField   nonuniform List<vector> 
400
(
(0 0 0)
(2.07612e-14 -1.55824e-13 0)
(1.55431e-14 -1.21681e-13 0)
(1.60982e-14 -1.29705e-13 0)
(1.60982e-14 -1.27912e-13 0)
(1.60982e-14 -1.28168e-13 0)
(1.59872e-14 -1.28117e-13 0)
(1.57652e-14 -1.28215e-13 0)
(1.56541e-14 -1.28265e-13 0)
(1.56541e-14 -1.28294e-13 0)
(1.59872e-14 -1.28246e-13 0)
(1.55431e-14 -1.2821e-13 0)
(1.57652e-14 -1.28241e-13 0)
(1.56541e-14 -1.28233e-13 0)
(1.55431e-14 -1.28227e-13 0)
(1.55431e-14 -1.28174e-13 0)
(1.53211e-14 -1.28152e-13 0)
(1.55431e-14 -1.28224e-13 0)
(1.55431e-14 -1.28321e-13 0)
(1.53211e-14 -1.28362e-13 0)
(4.01901e-14 -1.10005e-13 0)
(7.77156e-15 -1.32141e-13 0)
(1.5099e-14 -1.27291e-13 0)
(1.5099e-14 -1.28616e-13 0)
(1.4877e-14 -1.28273e-13 0)
(1.53211e-14 -1.28177e-13 0)
(1.55431e-14 -1.28123e-13 0)
(1.53211e-14 -1.28235e-13 0)
(1.55431e-14 -1.28259e-13 0)
(1.55431e-14 -1.28273e-13 0)
(1.4877e-14 -1.28278e-13 0)
(1.53211e-14 -1.28245e-13 0)
(1.5099e-14 -1.28256e-13 0)
(1.53211e-14 -1.28208e-13 0)
(1.4877e-14 -1.28255e-13 0)
(1.5099e-14 -1.28289e-13 0)
(1.53211e-14 -1.28257e-13 0)
(1.53211e-14 -1.2829e-13 0)
(1.53211e-14 -1.28377e-13 0)
(1.56541e-14 -1.28389e-13 0)
(7.54952e-15 -2.54919e-13 0)
(1.70974e-14 -1.01192e-13 0)
(1.5099e-14 -1.35006e-13 0)
(1.53211e-14 -1.27112e-13 0)
(1.53211e-14 -1.28821e-13 0)
(1.55431e-14 -1.28287e-13 0)
(1.55431e-14 -1.28251e-13 0)
(1.56541e-14 -1.28203e-13 0)
(1.57652e-14 -1.28134e-13 0)
(1.59872e-14 -1.28052e-13 0)
(1.57652e-14 -1.28142e-13 0)
(1.58762e-14 -1.28099e-13 0)
(1.56541e-14 -1.28189e-13 0)
(1.56541e-14 -1.28317e-13 0)
(1.58762e-14 -1.28409e-13 0)
(1.57652e-14 -1.28336e-13 0)
(1.57652e-14 -1.28239e-13 0)
(1.56541e-14 -1.28317e-13 0)
(1.56541e-14 -1.28405e-13 0)
(1.55431e-14 -1.2835e-13 0)
(-6.43929e-15 -4.16073e-14 0)
(2.05391e-14 -1.47851e-13 0)
(1.39888e-14 -1.24019e-13 0)
(1.5099e-14 -1.2946e-13 0)
(1.44329e-14 -1.28215e-13 0)
(1.44329e-14 -1.28469e-13 0)
(1.46549e-14 -1.28416e-13 0)
(1.4877e-14 -1.28393e-13 0)
(1.46549e-14 -1.28317e-13 0)
(1.5099e-14 -1.28232e-13 0)
(1.4877e-14 -1.28243e-13 0)
(1.55431e-14 -1.28226e-13 0)
(1.55431e-14 -1.28276e-13 0)
(1.56541e-14 -1.28331e-13 0)
(1.55431e-14 -1.28259e-13 0)
(1.5099e-14 -1.28234e-13 0)
(1.53211e-14 -1.28219e-13 0)
(1.57652e-14 -1.283e-13 0)
(1.55431e-14 -1.28378e-13 0)
(1.55431e-14 -1.28369e-13 0)
(4.26326e-14 -1.2468e-13 0)
(8.65974e-15 -1.29544e-13 0)
(1.67644e-14 -1.28161e-13 0)
(1.55431e-14 -1.28364e-13 0)
(1.56541e-14 -1.28266e-13 0)
(1.57652e-14 -1.28456e-13 0)
(1.58762e-14 -1.28502e-13 0)
(1.57652e-14 -1.2853e-13 0)
(1.56541e-14 -1.28481e-13 0)
(1.57652e-14 -1.28437e-13 0)
(1.59872e-14 -1.28342e-13 0)
(1.56541e-14 -1.2836e-13 0)
(1.56541e-14 -1.28219e-13 0)
(1.55431e-14 -1.28112e-13 0)
(1.53211e-14 -1.28135e-13 0)
(1.55431e-14 -1.28366e-13 0)
(1.55431e-14 -1.2848e-13 0)
(1.56541e-14 -1.28359e-13 0)
(1.55431e-14 -1.28349e-13 0)
(1.56541e-14 -1.28379e-13 0)
(4.44089e-15 -2.21533e-13 0)
(1.93179e-14 -1.07535e-13 0)
(1.56541e-14 -1.32952e-13 0)
(1.59872e-14 -1.27154e-13 0)
(1.59872e-14 -1.28617e-13 0)
(1.60982e-14 -1.28422e-13 0)
(1.59872e-14 -1.2849e-13 0)
(1.59872e-14 -1.28449e-13 0)
(1.57652e-14 -1.28318e-13 0)
(1.53211e-14 -1.28245e-13 0)
(1.53211e-14 -1.28235e-13 0)
(1.53211e-14 -1.28242e-13 0)
(1.53211e-14 -1.28202e-13 0)
(1.55431e-14 -1.28217e-13 0)
(1.57652e-14 -1.28341e-13 0)
(1.58762e-14 -1.28387e-13 0)
(1.55431e-14 -1.28378e-13 0)
(1.56541e-14 -1.28315e-13 0)
(1.57652e-14 -1.28256e-13 0)
(1.56541e-14 -1.28303e-13 0)
(1.69864e-14 -5.49594e-15 0)
(1.55431e-14 -1.54616e-13 0)
(1.60982e-14 -1.22214e-13 0)
(1.62093e-14 -1.29799e-13 0)
(1.63203e-14 -1.28114e-13 0)
(1.60982e-14 -1.28383e-13 0)
(1.60982e-14 -1.28333e-13 0)
(1.60982e-14 -1.28348e-13 0)
(1.59872e-14 -1.28246e-13 0)
(1.62093e-14 -1.28175e-13 0)
(1.60982e-14 -1.2815e-13 0)
(1.59872e-14 -1.2821e-13 0)
(1.58762e-14 -1.28249e-13 0)
(1.58762e-14 -1.28268e-13 0)
(1.57652e-14 -1.28284e-13 0)
(1.55431e-14 -1.2837e-13 0)
(1.55431e-14 -1.28318e-13 0)
(1.56541e-14 -1.2824e-13 0)
(1.55431e-14 -1.28162e-13 0)
(1.55431e-14 -1.28236e-13 0)
(2.12053e-14 -1.70826e-13 0)
(1.28786e-14 -1.19059e-13 0)
(1.4877e-14 -1.30598e-13 0)
(1.4877e-14 -1.27923e-13 0)
(1.46549e-14 -1.28469e-13 0)
(1.5099e-14 -1.28376e-13 0)
(1.5099e-14 -1.2841e-13 0)
(1.4877e-14 -1.28351e-13 0)
(1.46549e-14 -1.28341e-13 0)
(1.4877e-14 -1.28234e-13 0)
(1.4877e-14 -1.28074e-13 0)
(1.5099e-14 -1.28113e-13 0)
(1.5099e-14 -1.28287e-13 0)
(1.53211e-14 -1.28328e-13 0)
(1.53211e-14 -1.28236e-13 0)
(1.55431e-14 -1.28195e-13 0)
(1.5099e-14 -1.28299e-13 0)
(1.5099e-14 -1.28336e-13 0)
(1.55431e-14 -1.28292e-13 0)
(1.55431e-14 -1.28262e-13 0)
(9.99201e-15 -1.84419e-13 0)
(1.75415e-14 -1.1642e-13 0)
(1.59872e-14 -1.31281e-13 0)
(1.53211e-14 -1.27918e-13 0)
(1.59872e-14 -1.28716e-13 0)
(1.59872e-14 -1.28429e-13 0)
(1.58762e-14 -1.28288e-13 0)
(1.55431e-14 -1.2817e-13 0)
(1.57652e-14 -1.28262e-13 0)
(1.55431e-14 -1.28316e-13 0)
(1.53211e-14 -1.283e-13 0)
(1.55431e-14 -1.28275e-13 0)
(1.58762e-14 -1.28363e-13 0)
(1.55431e-14 -1.28431e-13 0)
(1.57652e-14 -1.28389e-13 0)
(1.55431e-14 -1.28186e-13 0)
(1.58762e-14 -1.28267e-13 0)
(1.56541e-14 -1.28331e-13 0)
(1.56541e-14 -1.28272e-13 0)
(1.55431e-14 -1.28261e-13 0)
(1.60982e-14 -2.73105e-14 0)
(1.5099e-14 -1.50957e-13 0)
(1.55431e-14 -1.23414e-13 0)
(1.56541e-14 -1.29701e-13 0)
(1.53211e-14 -1.28187e-13 0)
(1.5099e-14 -1.28345e-13 0)
(1.5099e-14 -1.28165e-13 0)
(1.55431e-14 -1.28208e-13 0)
(1.56541e-14 -1.28227e-13 0)
(1.58762e-14 -1.28217e-13 0)
(1.58762e-14 -1.28181e-13 0)
(1.53211e-14 -1.28291e-13 0)
(1.58762e-14 -1.28264e-13 0)
(1.57652e-14 -1.28233e-13 0)
(1.55431e-14 -1.28251e-13 0)
(1.55431e-14 -1.28255e-13 0)
(1.55431e-14 -1.28193e-13 0)
(1.53211e-14 -1.28213e-13 0)
(1.53211e-14 -1.28284e-13 0)
(1.56541e-14 -1.28296e-13 0)
(1.88738e-14 -2.30787e-13 0)
(1.42109e-14 -1.05594e-13 0)
(1.53211e-14 -1.33608e-13 0)
(1.4877e-14 -1.27108e-13 0)
(1.5099e-14 -1.2868e-13 0)
(1.5099e-14 -1.28408e-13 0)
(1.53211e-14 -1.28456e-13 0)
(1.4877e-14 -1.28466e-13 0)
(1.5099e-14 -1.28425e-13 0)
(1.46549e-14 -1.28311e-13 0)
(1.5099e-14 -1.28286e-13 0)
(1.55431e-14 -1.28361e-13 0)
(1.55431e-14 -1.28455e-13 0)
(1.53211e-14 -1.28399e-13 0)
(1.55431e-14 -1.28233e-13 0)
(1.53211e-14 -1.28144e-13 0)
(1.55431e-14 -1.28141e-13 0)
(1.56541e-14 -1.28263e-13 0)
(1.57652e-14 -1.28336e-13 0)
(1.59872e-14 -1.28243e-13 0)
(1.31006e-14 -5.38507e-14 0)
(1.85407e-14 -1.44132e-13 0)
(1.66533e-14 -1.24656e-13 0)
(1.65423e-14 -1.29195e-13 0)
(1.63203e-14 -1.28287e-13 0)
(1.63203e-14 -1.28291e-13 0)
(1.60982e-14 -1.28098e-13 0)
(1.58762e-14 -1.28149e-13 0)
(1.58762e-14 -1.28255e-13 0)
(1.56541e-14 -1.28335e-13 0)
(1.58762e-14 -1.28443e-13 0)
(1.56541e-14 -1.28344e-13 0)
(1.56541e-14 -1.28388e-13 0)
(1.55431e-14 -1.28388e-13 0)
(1.5099e-14 -1.28342e-13 0)
(1.53211e-14 -1.28271e-13 0)
(1.55431e-14 -1.28275e-13 0)
(1.56541e-14 -1.28237e-13 0)
(1.55431e-14 -1.2819e-13 0)
(1.55431e-14 -1.2816e-13 0)
(1.55431e-14 -1.27433e-13 0)
(1.37668e-14 -1.29261e-13 0)
(1.44329e-14 -1.27998e-13 0)
(1.53211e-14 -1.28307e-13 0)
(1.4877e-14 -1.28193e-13 0)
(1.4877e-14 -1.28215e-13 0)
(1.4877e-14 -1.28223e-13 0)
(1.53211e-14 -1.28243e-13 0)
(1.5099e-14 -1.28288e-13 0)
(1.53211e-14 -1.28407e-13 0)
(1.53211e-14 -1.28438e-13 0)
(1.53211e-14 -1.28311e-13 0)
(1.55431e-14 -1.28145e-13 0)
(1.53211e-14 -1.28099e-13 0)
(1.5099e-14 -1.28251e-13 0)
(1.53211e-14 -1.28388e-13 0)
(1.53211e-14 -1.28386e-13 0)
(1.53211e-14 -1.2831e-13 0)
(1.53211e-14 -1.28291e-13 0)
(1.53211e-14 -1.28268e-13 0)
(2.28706e-14 -2.14693e-13 0)
(1.53211e-14 -1.09096e-13 0)
(1.68754e-14 -1.32686e-13 0)
(1.55431e-14 -1.2717e-13 0)
(1.59872e-14 -1.28379e-13 0)
(1.57652e-14 -1.28252e-13 0)
(1.59872e-14 -1.28442e-13 0)
(1.60982e-14 -1.28277e-13 0)
(1.56541e-14 -1.28307e-13 0)
(1.59872e-14 -1.28371e-13 0)
(1.55431e-14 -1.28348e-13 0)
(1.55431e-14 -1.28296e-13 0)
(1.56541e-14 -1.28141e-13 0)
(1.56541e-14 -1.28155e-13 0)
(1.59872e-14 -1.28249e-13 0)
(1.57652e-14 -1.28312e-13 0)
(1.58762e-14 -1.28338e-13 0)
(1.57652e-14 -1.28328e-13 0)
(1.56541e-14 -1.28424e-13 0)
(1.55431e-14 -1.28379e-13 0)
(-3.77476e-15 -1.0508e-14 0)
(1.83187e-14 -1.53279e-13 0)
(1.33227e-14 -1.22455e-13 0)
(1.5099e-14 -1.29666e-13 0)
(1.46549e-14 -1.2804e-13 0)
(1.5099e-14 -1.28323e-13 0)
(1.4877e-14 -1.28301e-13 0)
(1.4877e-14 -1.28315e-13 0)
(1.55431e-14 -1.28234e-13 0)
(1.5099e-14 -1.28135e-13 0)
(1.4877e-14 -1.28193e-13 0)
(1.53211e-14 -1.28342e-13 0)
(1.53211e-14 -1.28396e-13 0)
(1.55431e-14 -1.28394e-13 0)
(1.56541e-14 -1.28213e-13 0)
(1.55431e-14 -1.2815e-13 0)
(1.55431e-14 -1.2823e-13 0)
(1.56541e-14 -1.2828e-13 0)
(1.56541e-14 -1.28298e-13 0)
(1.57652e-14 -1.28286e-13 0)
(3.19744e-14 -1.9318e-13 0)
(1.08802e-14 -1.14817e-13 0)
(1.55431e-14 -1.31574e-13 0)
(1.5099e-14 -1.2774e-13 0)
(1.4877e-14 -1.28542e-13 0)
(1.5099e-14 -1.28387e-13 0)
(1.5099e-14 -1.28435e-13 0)
(1.5099e-14 -1.28517e-13 0)
(1.5099e-14 -1.28434e-13 0)
(1.53211e-14 -1.28358e-13 0)
(1.58762e-14 -1.2833e-13 0)
(1.57652e-14 -1.28337e-13 0)
(1.55431e-14 -1.28322e-13 0)
(1.55431e-14 -1.28272e-13 0)
(1.5099e-14 -1.28275e-13 0)
(1.55431e-14 -1.28336e-13 0)
(1.55431e-14 -1.28345e-13 0)
(1.55431e-14 -1.28323e-13 0)
(1.55431e-14 -1.28211e-13 0)
(1.55431e-14 -1.28232e-13 0)
(-1.33227e-15 -1.61562e-13 0)
(2.09832e-14 -1.21265e-13 0)
(1.57652e-14 -1.29966e-13 0)
(1.63203e-14 -1.27882e-13 0)
(1.59872e-14 -1.28393e-13 0)
(1.60982e-14 -1.28417e-13 0)
(1.58762e-14 -1.28435e-13 0)
(1.58762e-14 -1.28375e-13 0)
(1.57652e-14 -1.28403e-13 0)
(1.57652e-14 -1.28467e-13 0)
(1.55431e-14 -1.28407e-13 0)
(1.56541e-14 -1.28307e-13 0)
(1.56541e-14 -1.2822e-13 0)
(1.56541e-14 -1.28227e-13 0)
(1.58762e-14 -1.28362e-13 0)
(1.58762e-14 -1.28325e-13 0)
(1.57652e-14 -1.28262e-13 0)
(1.55431e-14 -1.28264e-13 0)
(1.55431e-14 -1.28262e-13 0)
(1.56541e-14 -1.28272e-13 0)
(1.4877e-14 -2.21543e-14 0)
(1.58762e-14 -1.51056e-13 0)
(1.55431e-14 -1.22878e-13 0)
(1.58762e-14 -1.2946e-13 0)
(1.57652e-14 -1.28074e-13 0)
(1.59872e-14 -1.28372e-13 0)
(1.56541e-14 -1.28291e-13 0)
(1.57652e-14 -1.2832e-13 0)
(1.57652e-14 -1.2833e-13 0)
(1.58762e-14 -1.28301e-13 0)
(1.57652e-14 -1.28321e-13 0)
(1.57652e-14 -1.28275e-13 0)
(1.55431e-14 -1.28255e-13 0)
(1.56541e-14 -1.28327e-13 0)
(1.55431e-14 -1.28257e-13 0)
(1.53211e-14 -1.28182e-13 0)
(1.55431e-14 -1.28199e-13 0)
(1.56541e-14 -1.28211e-13 0)
(1.55431e-14 -1.28265e-13 0)
(1.55431e-14 -1.28293e-13 0)
(4.17444e-14 -1.66473e-13 0)
(8.43769e-15 -1.20082e-13 0)
(1.60982e-14 -1.30241e-13 0)
(1.5099e-14 -1.27942e-13 0)
(1.5099e-14 -1.28447e-13 0)
(1.5099e-14 -1.28349e-13 0)
(1.5099e-14 -1.28314e-13 0)
(1.53211e-14 -1.28372e-13 0)
(1.53211e-14 -1.28367e-13 0)
(1.5099e-14 -1.2832e-13 0)
(1.4877e-14 -1.28351e-13 0)
(1.53211e-14 -1.28296e-13 0)
(1.53211e-14 -1.28229e-13 0)
(1.5099e-14 -1.2824e-13 0)
(1.5099e-14 -1.28281e-13 0)
(1.53211e-14 -1.28394e-13 0)
(1.56541e-14 -1.28322e-13 0)
(1.56541e-14 -1.28218e-13 0)
(1.55431e-14 -1.2824e-13 0)
(1.55431e-14 -1.28318e-13 0)
(3.33067e-15 -2.13151e-13 0)
(1.9762e-14 -1.09989e-13 0)
(1.60982e-14 -1.32637e-13 0)
(1.60982e-14 -1.27362e-13 0)
(1.60982e-14 -1.28542e-13 0)
(1.60982e-14 -1.2834e-13 0)
(1.58762e-14 -1.28347e-13 0)
(1.58762e-14 -1.28335e-13 0)
(1.58762e-14 -1.28314e-13 0)
(1.57652e-14 -1.28344e-13 0)
(1.59872e-14 -1.28402e-13 0)
(1.55431e-14 -1.28399e-13 0)
(1.57652e-14 -1.28313e-13 0)
(1.56541e-14 -1.28261e-13 0)
(1.57652e-14 -1.28318e-13 0)
(1.57652e-14 -1.28372e-13 0)
(1.53211e-14 -1.28293e-13 0)
(1.55431e-14 -1.28252e-13 0)
(1.55431e-14 -1.28258e-13 0)
(1.57652e-14 -1.28294e-13 0)
)
;

boundaryField
{
    movingWall
    {
        type            calculated;
        value           uniform (1.55431e-14 -1.28276e-13 0);
    }
    fixedWalls
    {
        type            calculated;
        value           uniform (1.55431e-14 -1.28276e-13 0);
    }
    frontAndBack
    {
        type            empty;
    }
}


// ************************************************************************* //
