/*--------------------------------*- C++ -*----------------------------------*\
| =========                 |                                                 |
| \\      /  F ield         | OpenFOAM: The Open Source CFD Toolbox           |
|  \\    /   O peration     | Version:  2506                                  |
|   \\  /    A nd           | Website:  www.openfoam.com                      |
|    \\/     M anipulation  |                                                 |
\*---------------------------------------------------------------------------*/
FoamFile
{
    version     2.0;
    format      ascii;
    arch        "LSB;label=32;scalar=64";
    class       volScalarField;
    location    "6.5";
    object      divPhi;
}
// * * * * * * * * * * * * * * * * * * * * * * * * * * * * * * * * * * * * * //

dimensions      [0 0 -1 0 0 0 0];

internalField   nonuniform List<scalar> 
400
(
-2.71051e-13
6.28394e-15
8.43644e-15
-5.8333e-15
1.60146e-14
-2.55025e-16
-1.50911e-14
1.27736e-14
-2.0408e-14
1.97364e-14
-1.24956e-15
-1.77301e-14
9.04076e-15
-1.26464e-14
8.46312e-15
8.62086e-15
-4.02414e-15
6.66505e-15
-6.39968e-15
0
2.71051e-14
1.0839e-14
1.90676e-14
-4.90485e-16
-2.02024e-15
9.76901e-16
1.38024e-14
-2.24731e-14
1.39639e-14
-3.20941e-14
9.36827e-15
-1.36642e-14
2.43811e-15
2.68809e-15
-5.9368e-15
-6.33656e-15
-4.93443e-15
1.59878e-14
-3.42871e-15
0
-2.71051e-14
3.39829e-14
-1.12978e-14
2.44156e-14
-1.69549e-14
1.27708e-15
-1.29881e-14
2.86396e-14
-2.48632e-14
8.50328e-15
1.96949e-14
1.11561e-14
1.95282e-14
-1.97856e-15
3.16528e-15
-3.76521e-15
-2.44651e-15
6.49663e-15
-2.19213e-14
0
2.71051e-14
-2.17742e-15
-1.78187e-14
2.15925e-14
9.00289e-15
5.54811e-16
-9.35992e-15
-1.22679e-14
1.37121e-14
1.35514e-14
-6.2542e-16
-1.52782e-14
-5.22749e-15
-6.95041e-15
1.39625e-15
-3.38478e-15
4.74137e-15
1.06227e-15
-1.76562e-14
0
0
2.08682e-14
1.73157e-14
5.52648e-16
7.9087e-15
-9.80334e-15
1.00748e-14
-1.73304e-14
-3.40524e-14
3.81522e-15
2.59787e-14
4.55572e-16
-2.56944e-14
-1.18665e-14
6.49027e-15
7.68332e-15
1.45815e-14
5.94069e-17
2.08376e-14
0
0
-8.6992e-15
6.88061e-15
3.31946e-15
-2.23709e-14
-3.78953e-15
1.31442e-15
3.35747e-14
-1.99794e-14
2.29942e-14
7.93773e-15
-1.75698e-14
-2.07455e-15
-3.68576e-15
1.01815e-14
3.87368e-15
2.06506e-16
-8.90795e-15
1.44179e-14
2.71051e-14
-2.71051e-14
1.39017e-15
9.22583e-15
-5.49746e-16
8.99411e-15
-9.42194e-15
7.69045e-15
-2.02588e-14
1.46348e-14
-1.69245e-14
1.92379e-14
1.6845e-14
-2.31713e-14
-3.55322e-15
1.75517e-14
-8.86242e-17
7.05577e-15
-2.47172e-14
-8.52266e-15
-2.71051e-14
2.71051e-14
9.71143e-15
1.70609e-14
-9.5508e-15
2.16238e-14
-2.58803e-15
9.97355e-15
8.06403e-16
-2.74106e-14
2.97085e-14
-2.18321e-14
-5.49268e-15
-1.45605e-14
2.35446e-15
-1.81543e-14
-1.06618e-14
9.10013e-15
1.33582e-14
1.01942e-14
0
-2.71051e-14
2.14808e-14
-2.83062e-14
-8.94758e-15
7.55367e-15
1.25958e-15
1.2747e-14
7.27744e-15
-1.647e-14
1.38471e-15
3.00175e-14
-5.98856e-15
4.24686e-15
2.5164e-14
1.52437e-14
-1.47078e-14
-1.18292e-15
2.02959e-14
1.26217e-14
0
0
2.34205e-14
-7.78795e-15
3.09677e-15
2.63921e-14
-1.88519e-14
4.19554e-14
-7.44276e-15
7.62613e-15
-8.23015e-15
2.0602e-15
-2.47961e-14
5.04354e-15
-1.43929e-14
-1.23144e-14
1.64278e-14
1.07238e-14
-5.30468e-15
1.26514e-14
0
0
-6.86833e-15
-5.68192e-15
1.12692e-14
-2.32869e-14
1.07372e-14
-1.50932e-15
-2.32031e-14
1.85922e-14
1.1593e-15
-3.98634e-15
2.8626e-14
-2.94194e-15
2.79849e-14
-3.40384e-14
-1.03268e-14
4.66162e-15
-7.64208e-16
3.49021e-15
2.71051e-14
0
1.3505e-15
-5.19661e-15
1.64084e-14
-1.11153e-14
3.29097e-14
-1.53353e-14
-3.60457e-15
-2.92225e-14
1.01647e-14
-1.81822e-15
-6.45498e-15
-3.17963e-15
-1.64714e-14
-6.13874e-16
-1.9568e-14
1.16791e-14
-3.91965e-15
9.10142e-15
0
0
-8.23005e-15
1.14203e-14
-3.6774e-14
-3.49605e-15
3.38904e-14
7.42484e-15
-9.23943e-15
3.69846e-15
6.01378e-15
-5.00993e-15
1.23465e-14
1.7759e-15
2.57004e-15
7.02416e-15
1.72842e-14
4.11495e-14
-9.04295e-15
6.58592e-15
-2.71051e-14
-2.71051e-14
5.03384e-15
1.80655e-14
-5.27252e-15
1.11493e-14
1.01478e-14
-2.1592e-15
-2.25046e-14
-8.93336e-16
2.37123e-14
-2.37255e-14
2.68347e-14
9.05431e-15
7.12506e-15
5.94519e-15
3.18773e-15
-5.8735e-15
-1.90023e-14
-8.32196e-15
0
0
2.29194e-14
-6.75193e-15
-2.8323e-14
3.10884e-14
2.23873e-16
-8.21994e-15
-5.75482e-15
1.28707e-14
-1.46359e-14
1.50065e-14
1.45739e-14
5.31077e-15
2.54466e-14
-1.31764e-15
1.94325e-14
-1.82257e-14
1.2184e-14
-4.31517e-15
2.71051e-14
0
-5.69502e-15
-1.72988e-14
1.00916e-14
3.30373e-14
4.10194e-17
-2.7151e-14
-3.95095e-16
2.47265e-14
2.00925e-14
1.2795e-15
-3.30605e-14
-2.51213e-15
-6.95326e-15
9.02018e-15
-2.05611e-14
1.01454e-14
1.89145e-14
-1.45835e-14
0
2.71051e-14
5.17591e-15
-1.27485e-14
2.66744e-14
-1.86657e-14
8.75685e-15
-1.33895e-15
-1.96514e-14
1.7674e-14
-1.23538e-14
1.10905e-14
-1.30291e-14
1.29311e-14
-2.57191e-14
3.8492e-15
2.67332e-14
1.24428e-14
-1.13553e-14
1.23443e-15
0
0
-7.95266e-15
-2.49684e-14
3.50386e-15
1.99252e-14
1.21619e-14
1.29555e-15
-1.42668e-14
3.64721e-16
-1.77482e-14
-1.76377e-14
9.28508e-15
1.09491e-14
-1.54891e-14
6.10355e-15
1.3423e-14
7.42143e-15
-1.76185e-14
5.63136e-15
0
0
-6.00088e-15
1.11495e-14
2.24784e-14
-5.97255e-15
6.58863e-15
-1.28613e-14
1.28208e-14
-7.56797e-15
2.26973e-14
9.25615e-15
1.61306e-15
-8.88207e-15
4.21905e-14
-2.89857e-16
1.94696e-14
1.63136e-14
-1.93041e-14
5.16798e-15
0
0
-2.71051e-14
0
0
-2.71051e-14
2.71051e-14
0
0
0
0
2.71051e-14
0
0
0
0
-2.71051e-14
0
0
0
0
)
;

boundaryField
{
    movingWall
    {
        type            extrapolatedCalculated;
        value           nonuniform List<scalar> 
20
(
0
-2.71051e-14
0
0
-2.71051e-14
2.71051e-14
0
0
0
0
2.71051e-14
0
0
0
0
-2.71051e-14
0
0
0
0
)
;
    }
    fixedWalls
    {
        type            extrapolatedCalculated;
        value           nonuniform List<scalar> 
60
(
-2.71051e-13
2.71051e-14
-2.71051e-14
2.71051e-14
0
0
-2.71051e-14
2.71051e-14
-2.71051e-14
0
0
0
0
-2.71051e-14
0
0
2.71051e-14
0
0
0
0
0
0
0
0
2.71051e-14
-2.71051e-14
0
0
0
2.71051e-14
0
-2.71051e-14
0
2.71051e-14
0
0
0
0
0
-2.71051e-13
6.28394e-15
8.43644e-15
-5.8333e-15
1.60146e-14
-2.55025e-16
-1.50911e-14
1.27736e-14
-2.0408e-14
1.97364e-14
-1.24956e-15
-1.77301e-14
9.04076e-15
-1.26464e-14
8.46312e-15
8.62086e-15
-4.02414e-15
6.66505e-15
-6.39968e-15
0
)
;
    }
    frontAndBack
    {
        type            empty;
    }
}


// ************************************************************************* //
