/*--------------------------------*- C++ -*----------------------------------*\
| =========                 |                                                 |
| \\      /  F ield         | OpenFOAM: The Open Source CFD Toolbox           |
|  \\    /   O peration     | Version:  2506                                  |
|   \\  /    A nd           | Website:  www.openfoam.com                      |
|    \\/     M anipulation  |                                                 |
\*---------------------------------------------------------------------------*/
FoamFile
{
    version     2.0;
    format      ascii;
    arch        "LSB;label=32;scalar=64";
    class       volScalarField;
    location    "6.5";
    object      divU;
}
// * * * * * * * * * * * * * * * * * * * * * * * * * * * * * * * * * * * * * //

dimensions      [0 0 -1 0 0 0 0];

internalField   nonuniform List<scalar> 
400
(
1.36338e-11
-1.5692e-12
2.70093e-13
-1.22673e-13
3.66864e-14
-6.42868e-15
4.07546e-15
1.01703e-14
-2.42947e-14
2.55493e-14
2.77107e-15
-1.73856e-14
5.43097e-15
-1.6029e-14
6.95871e-15
8.86709e-15
-3.98643e-14
5.79326e-14
-6.88233e-14
2.71051e-14
-2.37982e-11
2.94528e-12
-5.74511e-13
2.1793e-13
-2.7136e-14
8.78971e-15
4.49277e-14
-4.28762e-14
7.00871e-14
-5.86412e-14
1.3147e-14
2.07932e-14
1.06156e-14
2.67125e-15
-1.11953e-14
-7.37112e-15
5.57703e-15
-5.57926e-15
5.82449e-14
0
6.23416e-12
-8.48326e-13
1.32167e-13
-5.62623e-14
5.99446e-14
-2.04273e-14
-3.85907e-14
2.26892e-14
1.00141e-14
-3.24811e-16
1.66415e-14
-4.40297e-15
-1.84615e-14
1.74978e-14
-1.15649e-14
-1.87099e-15
-1.77403e-14
-6.57169e-15
-2.31233e-14
0
1.13028e-11
-8.1034e-13
1.39016e-13
-7.30303e-14
-2.00788e-14
-1.01674e-14
-9.50198e-15
1.71286e-14
-2.46892e-14
1.5383e-14
-3.0424e-14
5.07995e-14
5.72608e-15
3.8003e-14
-6.54792e-14
-3.19287e-14
6.66475e-14
1.63818e-14
-1.75129e-14
0
-1.5992e-11
1.4323e-12
-1.85108e-13
1.03346e-13
-6.05846e-15
2.16432e-14
-1.68588e-14
-1.55856e-14
2.35808e-15
-1.29931e-14
-2.49143e-15
-3.21561e-14
1.31379e-14
-5.90539e-14
3.46895e-14
-2.00775e-14
2.36548e-14
-3.93299e-14
2.18176e-14
2.71051e-14
1.11673e-11
-1.346e-12
2.46926e-13
-1.21478e-13
3.62424e-14
-2.52686e-14
2.70883e-14
2.57277e-15
-2.82834e-14
-4.10646e-14
1.6675e-14
9.98191e-15
6.42572e-14
6.64344e-15
1.97999e-14
6.57134e-15
-4.14802e-14
5.38944e-14
-1.36849e-14
-2.71051e-14
5.23128e-12
-1.25151e-12
2.92615e-13
-6.28685e-14
2.39782e-14
-2.06868e-14
7.91044e-15
-1.47043e-14
2.36293e-14
4.1355e-14
-4.85778e-14
2.29395e-14
-2.55411e-14
-4.37821e-15
-2.38943e-14
-1.3951e-15
4.76877e-14
-2.94733e-14
9.78993e-15
0
-1.75912e-11
3.16438e-12
-6.95393e-13
1.79463e-13
-6.33066e-14
5.60329e-14
1.24399e-14
-2.39898e-14
-5.11205e-15
-2.68828e-14
4.49058e-14
-1.06663e-14
1.73233e-14
-2.06869e-14
4.68878e-14
-3.71931e-14
-2.84949e-14
1.55687e-14
5.30319e-14
0
1.39862e-11
-2.60045e-12
5.10883e-13
-1.88046e-13
7.33141e-14
4.91654e-15
9.8385e-15
-9.70553e-15
6.22629e-15
-2.5194e-14
-1.99478e-14
2.57124e-14
-7.46686e-15
-1.11935e-14
-8.87386e-15
-1.60924e-14
3.63419e-14
-2.63437e-14
-3.96517e-16
-2.71051e-14
-4.63496e-12
1.03008e-12
-1.8256e-13
8.27109e-14
-8.56507e-14
6.92988e-15
2.01619e-14
4.20451e-14
1.70819e-14
2.39231e-15
-4.5677e-14
-1.00292e-14
3.75075e-14
-3.50531e-14
-2.03756e-14
1.52525e-14
2.18227e-14
-4.66358e-14
4.74133e-14
0
-2.46656e-12
3.03172e-13
-8.57424e-15
-2.20182e-15
3.97956e-14
1.23259e-14
-1.74184e-16
-6.05086e-14
-1.27943e-14
-9.37085e-15
6.36057e-14
3.88732e-14
-1.99669e-15
-2.35008e-14
-2.33696e-15
-6.76126e-14
4.06889e-14
5.9392e-14
2.62067e-15
-2.71051e-14
1.04083e-11
-1.98224e-12
3.35543e-13
-1.4925e-13
3.42743e-14
4.59076e-15
-3.10357e-14
-1.1141e-14
8.75265e-16
-1.9005e-14
-5.83762e-15
-1.03607e-14
1.97526e-15
-2.0678e-14
-4.16541e-15
-3.78488e-14
1.61608e-14
4.53007e-16
7.08202e-15
-2.71051e-14
-1.62901e-11
3.41872e-12
-6.57204e-13
2.70081e-13
-5.62279e-14
8.48215e-15
1.5873e-14
3.14526e-15
-3.13799e-14
3.15411e-14
3.68014e-15
4.8626e-14
-2.75905e-14
2.60494e-15
3.22283e-14
-1.48703e-14
-1.72149e-14
-8.62896e-15
-1.63208e-14
5.42101e-14
1.24141e-11
-2.99462e-12
5.74708e-13
-2.18173e-13
1.32163e-14
-2.3646e-15
3.50808e-14
-5.82488e-14
1.15549e-15
3.16369e-14
-2.60338e-14
-8.62692e-15
1.49412e-15
2.84905e-16
9.00579e-15
3.60642e-14
2.54969e-14
-3.27135e-14
-1.70476e-14
0
4.87891e-13
1.1224e-12
-2.08573e-13
7.71942e-14
-3.0704e-15
3.83178e-14
-4.55757e-14
2.62161e-14
1.55164e-14
-2.12768e-14
2.85171e-15
1.44225e-14
3.75867e-14
1.57428e-14
6.46412e-15
-2.0496e-14
-2.33856e-15
2.19763e-14
5.8503e-14
-5.42101e-14
-1.3932e-11
1.61328e-12
-3.6335e-13
1.47218e-13
-3.83331e-14
1.81079e-15
-4.72619e-15
-6.85453e-15
-1.43095e-15
2.68324e-14
3.5704e-14
-3.63414e-14
9.90267e-16
-4.89441e-14
-8.43942e-15
4.33544e-14
-5.52039e-15
-3.50559e-15
7.92461e-15
0
1.59378e-11
-1.92933e-12
3.97828e-13
-1.0608e-13
-1.86418e-14
3.39413e-15
-1.74195e-14
1.27842e-14
9.02702e-15
-2.16681e-14
-1.757e-14
2.40494e-14
7.6864e-15
2.68582e-14
-6.65524e-15
4.47997e-15
-1.79728e-14
-1.94058e-14
2.95762e-14
-2.71051e-14
-5.42101e-13
2.21859e-13
-6.33667e-14
2.33598e-14
3.06341e-15
1.01737e-14
2.18401e-14
1.30237e-14
1.26298e-14
2.0164e-14
1.51422e-14
-2.90174e-14
6.76101e-15
-2.85811e-14
1.437e-15
-2.41769e-15
3.08364e-15
1.22836e-14
4.7052e-15
0
-1.72117e-11
1.53675e-12
-2.80273e-13
9.76332e-14
-4.37641e-14
1.33789e-14
1.62096e-14
1.15647e-14
-1.29703e-14
-1.11789e-14
-2.00604e-14
1.28314e-14
9.73357e-16
-2.20064e-14
2.24546e-14
3.28468e-14
2.07617e-14
-1.8987e-14
5.45628e-15
0
1.15196e-11
-1.40946e-12
2.71051e-13
-1.35525e-13
5.42101e-14
0
-2.71051e-14
2.71051e-14
0
0
2.71051e-14
0
0
2.71051e-14
0
-2.71051e-14
0
0
2.71051e-14
-2.71051e-14
)
;

boundaryField
{
    movingWall
    {
        type            extrapolatedCalculated;
        value           nonuniform List<scalar> 
20
(
1.15196e-11
-1.40946e-12
2.71051e-13
-1.35525e-13
5.42101e-14
0
-2.71051e-14
2.71051e-14
0
0
2.71051e-14
0
0
2.71051e-14
0
-2.71051e-14
0
0
2.71051e-14
-2.71051e-14
)
;
    }
    fixedWalls
    {
        type            extrapolatedCalculated;
        value           nonuniform List<scalar> 
60
(
1.36338e-11
-2.37982e-11
6.23416e-12
1.13028e-11
-1.5992e-11
1.11673e-11
5.23128e-12
-1.75912e-11
1.39862e-11
-4.63496e-12
-2.46656e-12
1.04083e-11
-1.62901e-11
1.24141e-11
4.87891e-13
-1.3932e-11
1.59378e-11
-5.42101e-13
-1.72117e-11
1.15196e-11
2.71051e-14
0
0
0
2.71051e-14
-2.71051e-14
0
0
-2.71051e-14
0
-2.71051e-14
-2.71051e-14
5.42101e-14
0
-5.42101e-14
0
-2.71051e-14
0
0
-2.71051e-14
1.36338e-11
-1.5692e-12
2.70093e-13
-1.22673e-13
3.66864e-14
-6.42868e-15
4.07546e-15
1.01703e-14
-2.42947e-14
2.55493e-14
2.77107e-15
-1.73856e-14
5.43097e-15
-1.6029e-14
6.95871e-15
8.86709e-15
-3.98643e-14
5.79326e-14
-6.88233e-14
2.71051e-14
)
;
    }
    frontAndBack
    {
        type            empty;
    }
}


// ************************************************************************* //
