/*--------------------------------*- C++ -*----------------------------------*\
| =========                 |                                                 |
| \\      /  F ield         | OpenFOAM: The Open Source CFD Toolbox           |
|  \\    /   O peration     | Version:  2506                                  |
|   \\  /    A nd           | Website:  www.openfoam.com                      |
|    \\/     M anipulation  |                                                 |
\*---------------------------------------------------------------------------*/
FoamFile
{
    version     2.0;
    format      ascii;
    arch        "LSB;label=32;scalar=64";
    class       volScalarField;
    location    "6.5";
    object      enstrophyField;
}
// * * * * * * * * * * * * * * * * * * * * * * * * * * * * * * * * * * * * * //

dimensions      [0 0 -2 0 0 0 0];

internalField   nonuniform List<scalar> 
400
(
4.18726e-23
7.04475e-23
3.55397e-24
2.11407e-25
8.01004e-27
2.79038e-27
1.73237e-27
1.09457e-28
6.13137e-28
3.17776e-28
3.55753e-29
1.18286e-31
2.70234e-30
9.69343e-31
3.8022e-27
1.90777e-27
1.2102e-27
1.42518e-28
9.49272e-29
8.53808e-29
2.51133e-25
9.46984e-25
7.20677e-26
9.6582e-28
7.8374e-27
7.61486e-27
1.16915e-27
9.21327e-29
7.26911e-30
4.21639e-28
1.62737e-27
2.36209e-30
1.67571e-27
9.16314e-33
6.19591e-28
1.47875e-27
1.47654e-27
7.29141e-29
4.84768e-29
2.30018e-28
1.40124e-23
5.71409e-23
3.01716e-24
2.08358e-25
2.00275e-27
3.54316e-27
4.02426e-27
2.16738e-27
7.63517e-27
1.42655e-27
1.11437e-29
1.73549e-27
5.31671e-27
1.20302e-27
6.09029e-27
1.4357e-28
1.85081e-30
9.53817e-28
4.62576e-28
2.07242e-28
5.07433e-24
2.71866e-23
1.40525e-24
9.97735e-26
1.00863e-27
2.01709e-28
1.89969e-28
4.87183e-29
1.28691e-28
1.89933e-27
2.06587e-31
1.29628e-27
1.37765e-28
1.50991e-30
2.04108e-27
1.6933e-27
2.1943e-29
9.2543e-28
2.0552e-28
1.89701e-28
3.62428e-25
2.87227e-26
2.57639e-27
7.07619e-27
1.04663e-26
1.73312e-26
1.0217e-26
5.65765e-27
7.96435e-27
8.10555e-28
2.7119e-27
7.61134e-29
3.07879e-28
6.29315e-28
3.22661e-28
1.02114e-26
2.62898e-31
8.07072e-28
4.24702e-28
4.49044e-29
1.09354e-23
3.34593e-23
1.7683e-24
7.19449e-26
1.63745e-26
1.03068e-28
3.64957e-30
4.93518e-29
2.07699e-28
1.05348e-27
3.59969e-28
2.83547e-28
3.11949e-30
2.32123e-27
2.53085e-27
6.66742e-30
2.5401e-29
7.43774e-29
7.95736e-31
2.19084e-31
3.17084e-23
6.07347e-23
3.21539e-24
1.15965e-25
3.12679e-26
1.76498e-27
3.59155e-27
4.05797e-27
7.90234e-27
2.03235e-27
1.28896e-27
1.47677e-28
1.7031e-29
1.28948e-27
9.66614e-28
1.2899e-27
2.26468e-27
4.69616e-27
3.77879e-28
6.83413e-29
3.52633e-24
7.34621e-24
3.4633e-25
4.32974e-26
4.0056e-29
5.4249e-28
3.23714e-30
3.89497e-27
7.5128e-28
3.27065e-27
4.36568e-27
5.43043e-28
2.30726e-28
1.28707e-29
8.74466e-29
1.99385e-29
2.33065e-27
2.54518e-31
2.71925e-29
2.68351e-32
7.65892e-24
1.28518e-23
7.91518e-25
1.53451e-26
8.7623e-27
9.16237e-28
3.34191e-28
3.09744e-27
1.12614e-26
6.29169e-27
2.98187e-27
2.00228e-29
2.43981e-27
4.41618e-28
3.44761e-30
7.49983e-29
2.35983e-27
1.4967e-27
2.43523e-29
1.74962e-30
2.42281e-23
4.28555e-23
2.3758e-24
8.94729e-26
2.35277e-26
3.48215e-27
4.51726e-27
2.81966e-27
5.77625e-27
6.39655e-27
2.73328e-29
1.9535e-27
5.42798e-28
4.00792e-28
3.08315e-28
1.719e-29
1.70812e-27
4.1693e-29
3.48223e-29
1.31779e-27
2.95278e-23
4.3857e-23
2.49252e-24
7.3883e-26
2.23426e-26
3.70317e-27
9.97579e-27
2.87166e-28
7.49431e-28
8.39469e-28
1.264e-29
1.43477e-28
7.07685e-30
2.4697e-28
3.17475e-27
2.01231e-27
7.10032e-29
1.08545e-27
3.15903e-28
3.71636e-30
1.92777e-23
2.48754e-23
1.24029e-24
7.61451e-26
4.08527e-27
1.06216e-27
2.34034e-27
2.4479e-27
1.72372e-28
5.01003e-27
3.93211e-28
1.53871e-29
2.57722e-28
1.0306e-29
7.54069e-28
2.23847e-29
5.76645e-30
6.34741e-28
6.06736e-28
5.7739e-28
5.17202e-25
4.37475e-26
2.33047e-27
6.73723e-27
4.10004e-27
1.31226e-27
4.0105e-30
5.65968e-28
7.14737e-28
8.87803e-28
4.13119e-27
3.49286e-27
1.74971e-29
5.70387e-29
6.07374e-27
2.29028e-27
1.86328e-28
4.51392e-29
8.8527e-30
2.85297e-31
1.15161e-23
2.97434e-23
1.44335e-24
9.27453e-26
5.85447e-27
1.82675e-27
1.33672e-27
8.24241e-28
2.02392e-27
2.64221e-28
5.98843e-28
5.62335e-28
8.49118e-28
7.1899e-28
2.4423e-27
6.47044e-28
4.10824e-28
1.97302e-27
5.19473e-28
1.98158e-30
3.51292e-23
5.76089e-23
3.11703e-24
1.41189e-25
2.32408e-26
1.52373e-27
3.90202e-28
3.88111e-27
2.60593e-27
3.64216e-27
1.14081e-27
2.05055e-28
1.34825e-29
1.03205e-27
8.81451e-27
3.21552e-28
8.48798e-28
1.12234e-27
3.52604e-28
5.17987e-30
1.45178e-23
1.75032e-23
1.18002e-24
1.40597e-26
2.00525e-26
2.49247e-27
4.4413e-27
3.29846e-27
7.36167e-28
2.51396e-27
5.64662e-27
1.4276e-27
2.12101e-29
1.133e-29
1.83575e-27
1.87684e-27
3.33714e-28
9.06325e-29
4.16072e-29
6.00132e-29
3.98592e-25
3.49701e-24
2.18892e-25
5.31669e-27
5.80775e-27
6.3427e-27
1.24715e-27
1.30094e-27
2.01405e-27
1.4899e-27
9.28623e-28
1.04998e-27
1.82706e-28
8.52638e-28
2.04474e-27
6.87508e-28
1.84812e-29
1.7068e-34
3.27086e-31
1.57841e-30
7.98925e-24
3.89453e-23
2.27385e-24
8.45297e-26
2.35987e-26
3.7625e-27
6.44602e-27
1.26756e-27
1.57473e-27
1.51776e-27
3.52269e-27
5.65863e-28
2.89824e-27
3.29375e-27
7.55048e-27
3.79552e-27
4.09092e-30
5.69453e-28
3.36708e-29
3.84375e-28
1.73329e-24
5.26064e-24
3.53015e-25
1.16034e-26
7.4439e-27
8.90461e-29
1.59517e-27
5.26674e-28
2.39254e-28
1.32364e-30
1.34178e-27
7.42704e-29
1.18066e-27
1.33764e-29
2.4233e-27
1.70381e-27
9.97558e-28
6.25492e-28
5.0205e-29
3.50819e-28
1.37782e-23
3.00568e-23
1.32657e-24
9.52823e-26
2.49634e-27
1.90585e-28
1.052e-31
4.61488e-28
3.4417e-28
3.79947e-29
1.51348e-29
3.91264e-29
9.46065e-29
1.49394e-27
6.1102e-29
3.05495e-30
7.10397e-29
6.24965e-30
8.7774e-30
3.67869e-28
)
;

boundaryField
{
    movingWall
    {
        type            calculated;
        value           nonuniform List<scalar> 
20
(
6.66303e-23
4.7424e-23
1.14795e-24
1.99381e-25
7.72283e-27
2.91776e-26
8.9359e-27
9.31643e-27
8.75931e-27
3.20806e-27
1.4815e-26
3.91264e-29
5.26064e-27
9.66129e-28
3.02356e-27
4.1669e-27
2.95666e-27
6.24965e-30
8.7774e-30
3.94603e-27
)
;
    }
    fixedWalls
    {
        type            calculated;
        value           nonuniform List<scalar> 
60
(
1.26951e-21
2.16244e-23
1.05778e-21
4.84967e-22
6.27145e-26
6.03005e-22
1.12487e-21
1.33539e-22
2.40735e-22
7.80868e-22
8.28505e-22
4.53681e-22
2.21475e-25
5.32759e-22
1.06781e-21
3.43366e-22
6.7047e-23
7.26256e-22
9.99739e-23
5.29448e-22
5.9202e-28
1.02158e-27
4.42433e-28
6.88532e-28
1.00262e-28
5.77312e-29
6.08568e-29
1.51066e-29
1.66577e-29
1.05881e-27
8.43114e-29
2.94241e-29
4.57176e-30
9.96034e-29
7.69244e-30
1.56624e-28
1.17408e-30
5.74618e-28
5.12885e-29
5.95028e-28
1.32683e-22
1.01607e-22
3.41091e-24
3.57166e-25
2.33717e-27
2.94126e-26
1.66144e-26
5.36789e-27
1.3688e-27
9.03721e-28
1.43144e-26
1.18286e-31
4.15349e-27
9.25212e-28
1.73342e-29
2.85761e-29
3.51166e-27
1.42518e-28
9.49272e-29
5.19032e-27
)
;
    }
    frontAndBack
    {
        type            empty;
    }
}


// ************************************************************************* //
