/*--------------------------------*- C++ -*----------------------------------*\
| =========                 |                                                 |
| \\      /  F ield         | OpenFOAM: The Open Source CFD Toolbox           |
|  \\    /   O peration     | Version:  2506                                  |
|   \\  /    A nd           | Website:  www.openfoam.com                      |
|    \\/     M anipulation  |                                                 |
\*---------------------------------------------------------------------------*/
FoamFile
{
    version     2.0;
    format      ascii;
    arch        "LSB;label=32;scalar=64";
    class       volScalarField;
    location    "6.5";
    object      epsilonzeroGrad;
}
// * * * * * * * * * * * * * * * * * * * * * * * * * * * * * * * * * * * * * //

dimensions      [0 2 -3 0 0 0 0];

internalField   nonuniform List<scalar> 
400
(
2.99381e-06
2.99381e-06
2.9938e-06
2.9938e-06
2.9938e-06
2.9938e-06
2.99379e-06
2.9938e-06
2.99378e-06
2.9938e-06
2.99377e-06
2.9938e-06
2.99377e-06
2.9938e-06
2.99378e-06
2.99379e-06
2.99378e-06
2.99378e-06
2.99378e-06
2.99378e-06
3.17329e-06
3.12233e-06
3.12658e-06
3.12833e-06
3.13186e-06
3.13367e-06
3.13721e-06
3.13907e-06
3.14261e-06
3.14454e-06
3.14809e-06
3.15008e-06
3.15363e-06
3.15568e-06
3.15924e-06
3.16135e-06
3.16493e-06
3.16708e-06
3.16889e-06
3.17178e-06
3.4412e-06
3.38354e-06
3.38843e-06
3.39043e-06
3.39447e-06
3.39652e-06
3.40057e-06
3.40267e-06
3.40671e-06
3.40888e-06
3.41291e-06
3.41513e-06
3.41916e-06
3.42143e-06
3.42547e-06
3.42779e-06
3.43183e-06
3.43419e-06
3.43622e-06
3.43944e-06
3.70081e-06
3.63722e-06
3.6426e-06
3.6448e-06
3.64926e-06
3.65152e-06
3.65597e-06
3.65829e-06
3.66274e-06
3.66513e-06
3.66957e-06
3.67202e-06
3.67646e-06
3.67897e-06
3.68341e-06
3.68597e-06
3.69042e-06
3.69303e-06
3.69527e-06
3.69882e-06
3.9005e-06
3.83219e-06
3.83796e-06
3.84033e-06
3.84511e-06
3.84753e-06
3.85231e-06
3.85481e-06
3.85958e-06
3.86214e-06
3.86691e-06
3.86954e-06
3.87431e-06
3.877e-06
3.88177e-06
3.88452e-06
3.88931e-06
3.89211e-06
3.89451e-06
3.89832e-06
4.03412e-06
3.96257e-06
3.96861e-06
3.97109e-06
3.97609e-06
3.97863e-06
3.98363e-06
3.98624e-06
3.99124e-06
3.99392e-06
3.99891e-06
4.00167e-06
4.00665e-06
4.00948e-06
4.01447e-06
4.01735e-06
4.02236e-06
4.02529e-06
4.02781e-06
4.0318e-06
4.11695e-06
4.04339e-06
4.04959e-06
4.05213e-06
4.05728e-06
4.05988e-06
4.06503e-06
4.06771e-06
4.07284e-06
4.07561e-06
4.08073e-06
4.08357e-06
4.08869e-06
4.0916e-06
4.09673e-06
4.09969e-06
4.10484e-06
4.10786e-06
4.11045e-06
4.11455e-06
4.16745e-06
4.09266e-06
4.09897e-06
4.10155e-06
4.10678e-06
4.10943e-06
4.11466e-06
4.11739e-06
4.12261e-06
4.12541e-06
4.13063e-06
4.13351e-06
4.13872e-06
4.14167e-06
4.14689e-06
4.1499e-06
4.15514e-06
4.15821e-06
4.16084e-06
4.16501e-06
4.19984e-06
4.12426e-06
4.13063e-06
4.13324e-06
4.13852e-06
4.1412e-06
4.14649e-06
4.14924e-06
4.15452e-06
4.15735e-06
4.16262e-06
4.16553e-06
4.1708e-06
4.17378e-06
4.17905e-06
4.1821e-06
4.18738e-06
4.19049e-06
4.19315e-06
4.19736e-06
4.22314e-06
4.14699e-06
4.15341e-06
4.15604e-06
4.16136e-06
4.16406e-06
4.16938e-06
4.17216e-06
4.17747e-06
4.18033e-06
4.18563e-06
4.18857e-06
4.19387e-06
4.19688e-06
4.20219e-06
4.20526e-06
4.21059e-06
4.21371e-06
4.21639e-06
4.22064e-06
4.24257e-06
4.16595e-06
4.17241e-06
4.17506e-06
4.18041e-06
4.18313e-06
4.18848e-06
4.19127e-06
4.19662e-06
4.1995e-06
4.20483e-06
4.20779e-06
4.21313e-06
4.21615e-06
4.22149e-06
4.22458e-06
4.22994e-06
4.23309e-06
4.23578e-06
4.24006e-06
4.26107e-06
4.184e-06
4.19049e-06
4.19315e-06
4.19854e-06
4.20127e-06
4.20665e-06
4.20946e-06
4.21484e-06
4.21773e-06
4.2231e-06
4.22607e-06
4.23144e-06
4.23448e-06
4.23986e-06
4.24296e-06
4.24835e-06
4.25152e-06
4.25423e-06
4.25853e-06
4.28028e-06
4.20274e-06
4.20928e-06
4.21195e-06
4.21737e-06
4.22012e-06
4.22554e-06
4.22836e-06
4.23377e-06
4.23668e-06
4.24208e-06
4.24507e-06
4.25047e-06
4.25353e-06
4.25894e-06
4.26206e-06
4.26748e-06
4.27067e-06
4.2734e-06
4.27772e-06
4.30125e-06
4.2232e-06
4.22978e-06
4.23247e-06
4.23793e-06
4.24069e-06
4.24614e-06
4.24898e-06
4.25443e-06
4.25736e-06
4.26279e-06
4.2658e-06
4.27124e-06
4.27432e-06
4.27976e-06
4.28291e-06
4.28836e-06
4.29157e-06
4.29431e-06
4.29867e-06
4.32458e-06
4.24598e-06
4.2526e-06
4.25531e-06
4.2608e-06
4.26359e-06
4.26908e-06
4.27194e-06
4.27743e-06
4.28038e-06
4.28585e-06
4.28888e-06
4.29435e-06
4.29746e-06
4.30294e-06
4.30611e-06
4.3116e-06
4.31483e-06
4.3176e-06
4.32198e-06
4.35039e-06
4.27115e-06
4.27783e-06
4.28056e-06
4.28609e-06
4.2889e-06
4.29443e-06
4.29732e-06
4.30285e-06
4.30582e-06
4.31134e-06
4.31439e-06
4.31991e-06
4.32304e-06
4.32856e-06
4.33176e-06
4.33729e-06
4.34055e-06
4.34334e-06
4.34776e-06
4.37775e-06
4.29786e-06
4.30459e-06
4.30735e-06
4.31292e-06
4.31575e-06
4.32133e-06
4.32424e-06
4.32982e-06
4.33281e-06
4.33838e-06
4.34146e-06
4.34702e-06
4.35017e-06
4.35574e-06
4.35897e-06
4.36455e-06
4.36783e-06
4.37064e-06
4.3751e-06
4.4043e-06
4.32378e-06
4.33056e-06
4.33333e-06
4.33895e-06
4.3418e-06
4.34743e-06
4.35036e-06
4.35597e-06
4.35899e-06
4.3646e-06
4.36771e-06
4.37331e-06
4.37649e-06
4.3821e-06
4.38535e-06
4.39098e-06
4.39429e-06
4.39712e-06
4.40161e-06
4.42595e-06
4.34651e-06
4.35308e-06
4.35577e-06
4.36125e-06
4.36403e-06
4.36952e-06
4.37241e-06
4.3779e-06
4.38091e-06
4.3864e-06
4.38951e-06
4.39502e-06
4.39823e-06
4.40376e-06
4.40706e-06
4.41262e-06
4.41601e-06
4.41882e-06
4.42333e-06
4.43577e-06
4.43574e-06
4.43577e-06
4.43572e-06
4.43577e-06
4.4357e-06
4.43577e-06
4.4357e-06
4.43576e-06
4.43571e-06
4.43574e-06
4.43572e-06
4.43573e-06
4.43572e-06
4.43572e-06
4.43572e-06
4.43572e-06
4.43572e-06
4.43572e-06
4.43572e-06
)
;

boundaryField
{
    movingWall
    {
        type            zeroGradient;
    }
    fixedWalls
    {
        type            zeroGradient;
    }
    frontAndBack
    {
        type            empty;
    }
}


// ************************************************************************* //
