/*--------------------------------*- C++ -*----------------------------------*\
| =========                 |                                                 |
| \\      /  F ield         | OpenFOAM: The Open Source CFD Toolbox           |
|  \\    /   O peration     | Version:  2506                                  |
|   \\  /    A nd           | Website:  www.openfoam.com                      |
|    \\/     M anipulation  |                                                 |
\*---------------------------------------------------------------------------*/
FoamFile
{
    version     2.0;
    format      ascii;
    arch        "LSB;label=32;scalar=64";
    class       volScalarField;
    location    "6.5";
    object      flowTypeField;
}
// * * * * * * * * * * * * * * * * * * * * * * * * * * * * * * * * * * * * * //

dimensions      [0 0 0 0 0 0 0];

internalField   nonuniform List<scalar> 
400
(
0.439533
0.0612736
0.0346914
0.000526276
0.194606
-0.117621
0.129686
0.158471
0.101076
0.306478
0.045216
0.944001
0.484532
0.905085
-0.0676247
-0.120762
0.332774
0.637224
0.697521
0.716538
0.961557
0.728344
0.704461
0.801427
0.103653
-0.0925604
0.341336
0.692418
0.89261
0.611308
-0.032404
0.703005
-0.0619185
0.874599
-0.0475149
0.0378256
0.106286
0.18442
0.764099
0.00142586
0.536501
0.116744
0.0616733
-0.0328034
0.493955
-0.242511
-0.0333695
-0.0339343
-0.099024
0.0172252
0.162962
-0.0849471
-0.184033
-0.0716582
-0.0178209
0.0459399
0.874981
-0.593167
0.191045
0.00472608
0.73877
0.168324
0.167622
-0.0105667
0.63999
0.210306
0.517061
0.791225
0.515125
0.258195
0.910877
0.445206
0.38026
0.904588
0.335977
0.0416939
0.885563
-0.031375
0.429046
0.0103256
0.935666
0.931732
0.915291
0.531701
-0.00315405
-0.125769
-0.0528511
0.0200334
0.0683853
0.254127
0.0935372
0.517633
0.0399316
0.531617
0.518348
-0.297705
0.938501
0.00847975
0.0213987
0.640052
0.613732
0.114984
0.0927007
0.165142
-0.359836
0.581671
0.757268
0.717324
0.608898
0.390421
0.175143
0.213083
0.920614
-0.064167
-0.10522
0.00644652
0.823673
0.722639
0.920086
0.939748
0.254669
0.0600889
-0.0169373
0.190024
-0.72481
0.297341
-0.0368411
-0.0393364
-0.118585
-0.0393034
0.317059
0.402682
0.726437
0.0797454
0.266606
0.185934
-0.0793427
-0.119107
-0.00504733
0.557288
0.812137
0.286479
0.320934
0.00432125
0.863279
0.410643
0.400695
0.107722
-0.414779
-0.403799
0.0597502
0.390122
0.36308
0.615941
0.703102
0.842099
-0.0978248
0.933306
0.814966
0.645417
0.684451
0.174101
0.0832434
0.411435
-0.181144
0.00255589
0.375407
0.0901685
-0.102527
-0.00305099
0.057427
0.841362
-0.283248
0.225412
0.880261
0.0929743
-0.0902445
0.108761
0.00562842
0.877154
0.220127
0.0425033
-0.0189371
0.124609
-0.259389
-0.025737
-0.0777231
0.332014
0.0469334
-0.0429336
0.811288
-0.134568
0.414616
0.238481
0.356242
0.161073
-0.0478405
0.777282
0.792866
0.0527928
0.0840874
0.0392412
-0.0346385
0.226795
-0.39184
0.205709
-0.0406758
0.543996
0.28287
-0.309778
0.909957
0.636993
0.613228
0.164707
-0.428344
0.16566
0.724931
0.243947
0.11693
0.917522
0.431047
0.0550034
0.0228495
-0.0154258
0.139473
0.0180309
0.148705
-0.053735
0.176053
-0.218129
0.0923544
0.729985
0.48208
0.887934
-0.416249
0.658436
0.907822
-0.279665
-0.255332
0.368816
0.914431
0.88748
0.887646
0.483251
0.0781363
0.0565339
0.925562
0.164054
0.357527
-0.0192319
-0.108368
-0.0163363
0.87314
0.642702
-0.247156
-0.240577
0.294543
0.240771
0.747858
0.965539
0.591285
0.0968414
0.0984812
0.0596685
0.00965609
-0.0897793
0.297109
0.314601
-0.164467
0.359129
0.422981
0.377158
0.131118
0.213371
-0.280978
0.0309689
0.0798172
-0.024938
0.153703
0.903097
0.129253
0.0527925
-0.0457626
0.0779979
-0.574447
0.411385
0.481096
0.119274
-0.12723
0.005419
-0.728148
0.359035
0.865309
-0.031264
-0.222741
0.303638
0.236925
0.204384
0.35127
0.906688
0.606184
0.159517
0.01592
0.502297
-0.394328
0.135623
-0.139865
0.00379028
0.365388
0.286554
0.128787
0.112832
0.733099
0.873596
-0.0728741
0.205527
0.0517236
0.00680883
0.0641026
0.00716976
0.929989
0.437094
0.398979
0.523591
-0.0308597
-0.0384574
0.1843
0.10988
-0.143878
0.0978124
-0.037454
-0.0643293
0.302988
-0.00120257
-0.176571
-0.14282
0.736389
0.966182
0.926647
0.883194
0.520877
0.123877
0.0127025
0.209315
-0.926168
0.1999
-0.0401751
0.0702977
-0.0324525
0.0189181
-0.0294616
0.125862
0.0632162
0.0514853
-0.128966
-0.0667705
0.463303
-0.216907
0.0318876
-0.0079062
0.872952
0.419773
0.375821
0.439846
-0.220415
0.0259525
0.0696072
-0.190283
0.385386
0.495396
0.0537093
0.55117
0.106809
0.746402
-0.114047
0.238548
-0.0338972
0.0969642
0.0026098
0.0221839
0.570844
0.091719
0.128821
-0.018015
0.324949
0.406138
0.946014
0.0317135
0.118083
0.331251
0.653273
0.649275
0.00236962
0.0959757
0.0713888
0.926351
0.106136
0.499769
0.782015
0.270078
)
;

boundaryField
{
    movingWall
    {
        type            calculated;
        value           nonuniform List<scalar> 
20
(
0.612622
0.115097
0.35576
-0.0689416
0.478421
-0.0714876
0.036815
-0.00853338
0.0129814
0.132562
0.0657548
0.787911
-0.135232
0.148979
0.136783
0.164625
0.135373
0.545294
0.784882
0.0450313
)
;
    }
    fixedWalls
    {
        type            calculated;
        value           nonuniform List<scalar> 
60
(
0.060487
0.714401
0.10109
0.173136
0.976472
0.114926
0.039208
0.31024
0.168163
0.0277246
0.00984242
0.0437358
0.943184
0.104696
0.0325633
0.139477
0.443571
0.102235
0.423441
0.102976
0.584577
0.259612
0.00224887
0.00293729
0.726895
0.710149
0.580766
0.0812326
0.119617
0.312887
0.897316
0.847522
0.944255
0.64668
0.930237
0.00283776
0.932508
-0.221744
0.610421
0.568965
0.633801
0.134667
0.276238
0.0345655
0.722673
-0.062331
0.0427979
-0.117482
0.00896662
0.175996
0.0493271
0.957002
-0.0135486
0.197152
0.627469
0.753608
0.249703
0.655373
0.701565
0.0738747
)
;
    }
    frontAndBack
    {
        type            empty;
    }
}


// ************************************************************************* //
