/*--------------------------------*- C++ -*----------------------------------*\
| =========                 |                                                 |
| \\      /  F ield         | OpenFOAM: The Open Source CFD Toolbox           |
|  \\    /   O peration     | Version:  2506                                  |
|   \\  /    A nd           | Website:  www.openfoam.com                      |
|    \\/     M anipulation  |                                                 |
\*---------------------------------------------------------------------------*/
FoamFile
{
    version     2.0;
    format      ascii;
    arch        "LSB;label=32;scalar=64";
    class       surfaceScalarField;
    location    "6.5";
    object      fluxField;
}
// * * * * * * * * * * * * * * * * * * * * * * * * * * * * * * * * * * * * * //

dimensions      [0 3 -1 0 0 0 0];

oriented        oriented;

internalField   nonuniform List<scalar> 
760
(
-5e-05
3.66366e-18
-5e-05
-7.85323e-19
-5e-05
1.89496e-19
-5e-05
-4.42207e-20
-5e-05
9.17159e-21
-5e-05
5.16909e-21
-5e-05
7.79513e-21
-5e-05
2.54257e-21
-5e-05
7.02589e-22
-5e-05
-3.88945e-22
-5e-05
6.92767e-22
-5e-05
2.42987e-21
-5e-05
1.35774e-21
-5e-05
2.76902e-21
-5e-05
1.73968e-21
-5e-05
2.21677e-21
-5e-05
3.58644e-21
-5e-05
9.30612e-22
-5e-05
-3.6533e-21
-4.9757e-21
-5e-05
-2.70931e-18
-5e-05
5.80467e-19
-5e-05
-1.43628e-19
-5e-05
2.06012e-20
-5e-05
-1.35603e-20
-5e-05
2.19743e-21
-5e-05
4.45566e-21
-5e-05
2.83347e-21
-5e-05
3.96924e-21
-5e-05
5.6685e-21
-5e-05
3.28676e-21
-5e-05
5.19831e-21
-5e-05
2.6539e-21
-5e-05
6.67813e-22
-5e-05
-2.79882e-21
-5e-05
-1.84278e-21
-5e-05
1.39426e-21
-5e-05
-1.39482e-21
-5e-05
-5.76758e-21
-4.68426e-21
-5e-05
-9.99359e-19
-5e-05
1.87718e-19
-5e-05
-6.1826e-20
-5e-05
-5.13055e-22
-5e-05
-1.21189e-20
-5e-05
-5.10683e-21
-5e-05
-2.87142e-21
-5e-05
-1.10398e-21
-5e-05
2.50353e-21
-5e-05
6.69506e-21
-5e-05
4.16039e-21
-5e-05
5.67552e-21
-5e-05
2.16089e-21
-5e-05
-2.4018e-21
-5e-05
-2.89123e-21
-5e-05
-4.67747e-22
-5e-05
2.34118e-21
-5e-05
-1.64292e-21
-5e-05
-5.78082e-21
-4.17847e-21
-5e-05
2.25661e-18
-5e-05
-5.21069e-19
-5e-05
1.09293e-19
-5e-05
-3.18101e-20
-5e-05
1.75655e-21
-5e-05
-9.31811e-21
-5e-05
-9.15176e-21
-5e-05
-9.27037e-21
-5e-05
-6.17231e-21
-5e-05
-2.93052e-21
-5e-05
-8.2973e-22
-5e-05
-8.5266e-22
-5e-05
1.43152e-21
-5e-05
2.72448e-21
-5e-05
3.95899e-21
-5e-05
-1.20592e-21
-5e-05
-3.66692e-21
-5e-05
-2.6808e-21
-5e-05
-4.37823e-21
-4.89841e-21
-5e-05
-2.24152e-18
-5e-05
4.86824e-19
-5e-05
-1.1404e-19
-5e-05
2.58365e-20
-5e-05
-8.29088e-21
-5e-05
-8.14172e-21
-5e-05
-1.0991e-20
-5e-05
-1.06727e-20
-5e-05
-6.18674e-21
-5e-05
-3.24826e-21
-5e-05
-6.22858e-22
-5e-05
-1.26275e-21
-5e-05
3.28448e-21
-5e-05
5.56532e-21
-5e-05
1.89612e-21
-5e-05
-5.01937e-21
-5e-05
-7.63884e-21
-5e-05
-3.0562e-21
-5e-05
-1.32187e-21
-3.25069e-21
-5e-05
7.38084e-19
-5e-05
-1.39987e-19
-5e-05
3.46265e-20
-5e-05
-1.00408e-20
-5e-05
-4.49193e-21
-5e-05
-6.31714e-21
-5e-05
-6.78045e-21
-5e-05
-6.13307e-21
-5e-05
-2.94584e-22
-5e-05
3.28637e-21
-5e-05
4.16875e-21
-5e-05
2.49548e-21
-5e-05
2.51177e-21
-5e-05
1.66086e-21
-5e-05
-1.82629e-21
-5e-05
-5.13343e-21
-5e-05
-3.5938e-21
-5e-05
-7.89227e-23
-5e-05
3.35504e-21
3.32958e-22
-5e-05
2.00574e-18
-5e-05
-4.28074e-19
-5e-05
9.34825e-20
-5e-05
-2.92697e-20
-5e-05
-7.81722e-22
-5e-05
-5.17169e-21
-5e-05
-4.79865e-21
-5e-05
-3.67609e-21
-5e-05
-8.68932e-22
-5e-05
3.56248e-21
-5e-05
8.18435e-21
-5e-05
5.73488e-21
-5e-05
3.90976e-22
-5e-05
-1.09455e-21
-5e-05
8.02694e-22
-5e-05
-3.48776e-22
-5e-05
-1.63059e-21
-5e-05
-5.92069e-22
-5e-05
2.44748e-21
1.34808e-21
-5e-05
-2.46735e-18
-5e-05
5.2682e-19
-5e-05
-1.33191e-19
-5e-05
1.77607e-20
-5e-05
-1.58266e-20
-5e-05
-6.32056e-21
-5e-05
-3.66629e-21
-5e-05
7.78819e-22
-5e-05
-1.27801e-21
-5e-05
5.55706e-23
-5e-05
4.45018e-21
-5e-05
4.10969e-21
-5e-05
-2.44543e-21
-5e-05
-5.17172e-21
-5e-05
-1.83058e-21
-5e-05
4.25425e-21
-5e-05
-3.47461e-22
-5e-05
-2.88408e-21
-5e-05
-2.94548e-22
7.04287e-22
-5e-05
1.12055e-18
-5e-05
-2.70642e-19
-5e-05
4.64056e-20
-5e-05
-2.66827e-20
-5e-05
-8.77654e-21
-5e-05
-5.54713e-21
-5e-05
2.45963e-21
-5e-05
4.34988e-21
-5e-05
1.55657e-21
-5e-05
4.77761e-22
-5e-05
1.78931e-21
-5e-05
-3.48159e-22
-5e-05
-1.86671e-21
-5e-05
-2.79838e-21
-5e-05
-2.21846e-21
-5e-05
2.75316e-21
-5e-05
2.30922e-21
-5e-05
1.90338e-22
-5e-05
-9.91292e-23
-1.51281e-22
-5e-05
-3.86488e-20
-5e-05
2.31702e-23
-5e-05
-1.17586e-20
-5e-05
-6.42732e-21
-5e-05
-7.86014e-21
-5e-05
-5.04379e-21
-5e-05
-1.73579e-21
-5e-05
-3.04125e-21
-5e-05
-2.50578e-21
-5e-05
5.98076e-22
-5e-05
2.13327e-21
-5e-05
-2.50731e-21
-5e-05
-4.17564e-21
-5e-05
-1.98702e-21
-5e-05
1.68235e-21
-5e-05
3.81313e-21
-5e-05
5.45567e-21
-5e-05
1.89358e-21
-5e-05
-1.69921e-21
2.99566e-22
-5e-05
-7.02155e-19
-5e-05
1.70661e-19
-5e-05
-4.28011e-20
-5e-05
6.22581e-21
-5e-05
-1.03799e-20
-5e-05
-3.69479e-21
-5e-05
-4.3546e-23
-5e-05
-1.57462e-21
-5e-05
-3.19856e-21
-5e-05
-2.34271e-21
-5e-05
-4.42738e-21
-5e-05
-3.83424e-21
-5e-05
-7.27544e-21
-5e-05
-5.87519e-21
-5e-05
-5.84239e-22
-5e-05
3.42564e-21
-5e-05
3.39596e-21
-5e-05
1.29548e-21
-5e-05
6.55169e-22
3.72027e-21
-5e-05
1.88171e-18
-5e-05
-4.21021e-19
-5e-05
9.74384e-20
-5e-05
-2.37599e-20
-5e-05
1.79231e-21
-5e-05
1.14769e-21
-5e-05
5.7936e-21
-5e-05
3.99102e-21
-5e-05
2.18816e-22
-5e-05
-4.75124e-21
-5e-05
-8.23567e-21
-5e-05
-2.59018e-21
-5e-05
4.93815e-22
-5e-05
1.60676e-21
-5e-05
-1.04135e-21
-5e-05
-2.68593e-21
-5e-05
-2.73605e-21
-5e-05
1.13252e-22
-5e-05
1.7705e-21
3.09767e-21
-5e-05
-2.13934e-18
-5e-05
4.5488e-19
-5e-05
-1.03315e-19
-5e-05
2.68627e-20
-5e-05
-5.04459e-22
-5e-05
2.12054e-21
-5e-05
-2.80801e-21
-5e-05
7.86315e-22
-5e-05
-1.06871e-21
-5e-05
-5.66726e-21
-5e-05
-5.85623e-21
-5e-05
-1.39602e-21
-5e-05
6.65489e-21
-5e-05
7.4275e-21
-5e-05
1.28081e-21
-5e-05
-3.71758e-21
-5e-05
-4.30374e-21
-5e-05
-2.15724e-21
-5e-05
-4.08021e-21
-2.38721e-21
-5e-05
7.83778e-19
-5e-05
-1.45569e-19
-5e-05
3.52567e-20
-5e-05
-7.10938e-21
-5e-05
3.30406e-21
-5e-05
-5.91149e-22
-5e-05
-4.78232e-21
-5e-05
-1.00967e-21
-5e-05
2.88872e-22
-5e-05
1.13297e-21
-5e-05
2.67824e-22
-5e-05
-2.15673e-21
-5e-05
3.73529e-22
-5e-05
7.12264e-23
-5e-05
2.25145e-21
-5e-05
2.23979e-21
-5e-05
-4.0204e-22
-5e-05
-1.40211e-21
-5e-05
-4.26189e-21
-2.82134e-21
-5e-05
1.3216e-18
-5e-05
-2.88606e-19
-5e-05
6.30531e-20
-5e-05
-2.1359e-20
-5e-05
-7.67601e-22
-5e-05
-3.97307e-21
-5e-05
-4.61767e-21
-5e-05
-6.9985e-21
-5e-05
-2.89716e-21
-5e-05
1.45706e-21
-5e-05
7.12928e-22
-5e-05
-3.17063e-21
-5e-05
-4.15586e-21
-5e-05
-2.84056e-21
-5e-05
1.61603e-21
-5e-05
1.65225e-21
-5e-05
-5.84641e-22
-5e-05
-1.28219e-21
-5e-05
1.07322e-21
8.61029e-22
-5e-05
-2.45477e-18
-5e-05
5.1174e-19
-5e-05
-1.24719e-19
-5e-05
2.32519e-20
-5e-05
-9.58327e-21
-5e-05
-6.32357e-21
-5e-05
-7.95781e-21
-5e-05
-8.4899e-21
-5e-05
-7.134e-21
-5e-05
-6.84442e-21
-5e-05
-4.62652e-21
-5e-05
-2.30908e-21
-5e-05
2.47567e-22
-5e-05
1.31651e-21
-5e-05
-2.10986e-21
-5e-05
-2.71392e-21
-5e-05
-1.3801e-21
-5e-05
-8.76398e-22
-5e-05
1.98115e-21
1.20195e-21
-5e-05
1.82088e-18
-5e-05
-3.9424e-19
-5e-05
9.26808e-20
-5e-05
-1.97438e-20
-5e-05
2.11581e-21
-5e-05
-5.92773e-21
-5e-05
-4.35486e-21
-5e-05
-3.58023e-21
-5e-05
-4.51951e-21
-5e-05
-5.41701e-21
-5e-05
-4.3925e-21
-5e-05
-7.63922e-22
-5e-05
1.9216e-21
-5e-05
-6.17222e-23
-5e-05
-1.66381e-21
-5e-05
1.11999e-21
-5e-05
2.28307e-21
-5e-05
1.92481e-21
-5e-05
6.17795e-22
-3.28935e-22
-5e-05
1.69812e-18
-5e-05
-3.64663e-19
-5e-05
8.58023e-20
-5e-05
-2.12651e-20
-5e-05
7.65853e-22
-5e-05
-4.23284e-21
-5e-05
-1.31623e-21
-5e-05
-3.52033e-21
-5e-05
-3.61882e-21
-5e-05
-1.73527e-21
-5e-05
-2.9907e-21
-5e-05
-4.7809e-22
-5e-05
1.69025e-21
-5e-05
-3.69023e-22
-5e-05
3.5925e-22
-5e-05
-6.04424e-22
-5e-05
7.70909e-22
-5e-05
3.0709e-21
-5e-05
1.1763e-21
-1.48577e-21
-5e-05
-3.0768e-18
-5e-05
6.62013e-19
-5e-05
-1.5816e-19
-5e-05
3.11846e-20
-5e-05
-1.0941e-20
-5e-05
-3.43153e-21
-5e-05
-2.72387e-21
-5e-05
-3.88509e-21
-5e-05
-3.24257e-21
-5e-05
-2.79473e-21
-5e-05
-5.01511e-21
-5e-05
-3.56841e-21
-5e-05
2.43339e-22
-5e-05
1.27465e-21
-5e-05
-1.1626e-21
-5e-05
-5.34083e-21
-5e-05
-1.58584e-21
-5e-05
2.02951e-21
-5e-05
1.36407e-21
-1.52307e-21
-5e-05
-5e-05
-5e-05
-5e-05
-5e-05
-5e-05
-5e-05
-5e-05
-5e-05
-5e-05
-5e-05
-5e-05
-5e-05
-5e-05
-5e-05
-5e-05
-5e-05
-5e-05
-5e-05
)
;

boundaryField
{
    movingWall
    {
        type            calculated;
        value           uniform -0;
    }
    fixedWalls
    {
        type            calculated;
        value           nonuniform List<scalar> 
60
(
5e-05
5e-05
5e-05
5e-05
5e-05
5e-05
5e-05
5e-05
5e-05
5e-05
5e-05
5e-05
5e-05
5e-05
5e-05
5e-05
5e-05
5e-05
5e-05
5e-05
-5e-05
-5e-05
-5e-05
-5e-05
-5e-05
-5e-05
-5e-05
-5e-05
-5e-05
-5e-05
-5e-05
-5e-05
-5e-05
-5e-05
-5e-05
-5e-05
-5e-05
-5e-05
-5e-05
-5e-05
0
0
0
0
0
0
0
0
0
0
0
0
0
0
0
0
0
0
0
0
)
;
    }
    frontAndBack
    {
        type            empty;
    }
}


// ************************************************************************* //
