/*--------------------------------*- C++ -*----------------------------------*\
| =========                 |                                                 |
| \\      /  F ield         | OpenFOAM: The Open Source CFD Toolbox           |
|  \\    /   O peration     | Version:  2506                                  |
|   \\  /    A nd           | Website:  www.openfoam.com                      |
|    \\/     M anipulation  |                                                 |
\*---------------------------------------------------------------------------*/
FoamFile
{
    version     2.0;
    format      ascii;
    arch        "LSB;label=32;scalar=64";
    class       volVectorField;
    location    "6.5";
    object      gradPhi;
}
// * * * * * * * * * * * * * * * * * * * * * * * * * * * * * * * * * * * * * //

dimensions      [0 2 -1 0 0 0 0];

internalField   nonuniform List<vector> 
400
(
(-0.02 7.62653e-17 0)
(1.27386e-16 -1.2708e-16 0)
(-3.63959e-17 3.83689e-17 0)
(6.61744e-18 -7.06793e-18 0)
(0 8.0073e-19 0)
(-1.65436e-18 1.3425e-18 0)
(-3.30872e-18 1.95595e-18 0)
(0 6.38679e-19 0)
(-1.65436e-18 3.34854e-19 0)
(1.65436e-18 -3.68434e-19 0)
(0 -6.24778e-20 0)
(-1.65436e-18 4.68748e-19 0)
(0 4.52038e-19 0)
(0 7.22935e-19 0)
(0 4.23156e-19 0)
(0 4.31043e-19 0)
(-1.65436e-18 1.15405e-18 0)
(0 3.33253e-19 0)
(0 -3.19984e-19 0)
(1.65436e-18 -1.57235e-18 0)
(-0.02 -1.52347e-16 0)
(-2.15067e-16 2.15713e-16 0)
(6.78288e-17 -6.72311e-17 0)
(-9.92617e-18 9.75391e-18 0)
(3.30872e-18 -2.25699e-18 0)
(0 -1.29366e-18 0)
(1.65436e-18 -1.26583e-18 0)
(-1.65436e-18 -4.07081e-19 0)
(0 3.63339e-19 0)
(-1.65436e-18 1.47424e-18 0)
(0 5.30891e-19 0)
(-1.65436e-18 2.03296e-19 0)
(0 -3.30133e-19 0)
(1.65436e-18 -5.8853e-19 0)
(0 -7.19996e-19 0)
(0 -7.47871e-19 0)
(1.65436e-18 -1.40077e-18 0)
(0 -8.89113e-19 0)
(1.65436e-18 -1.2067e-18 0)
(0 8.23106e-19 0)
(-0.02 3.98872e-17 0)
(4.96308e-17 -4.89872e-17 0)
(-1.65436e-17 1.61e-17 0)
(4.96308e-18 -2.82045e-18 0)
(0 -2.10198e-18 0)
(1.65436e-18 -1.34024e-18 0)
(1.65436e-18 -1.33952e-18 0)
(1.65436e-18 -1.54869e-19 0)
(0 -5.86098e-19 0)
(0 6.74615e-19 0)
(0 5.16332e-19 0)
(-1.65436e-18 1.24102e-18 0)
(0 8.54503e-19 0)
(0 -2.33332e-19 0)
(1.65436e-18 -9.00149e-19 0)
(0 1.28567e-19 0)
(-1.65436e-18 1.47965e-18 0)
(0 8.80692e-19 0)
(-1.65436e-18 4.30623e-19 0)
(0 -2.06495e-19 0)
(-0.02 1.06708e-16 0)
(1.25731e-16 -1.26491e-16 0)
(-3.47416e-17 3.49105e-17 0)
(6.61744e-18 -5.56217e-18 0)
(-3.30872e-18 4.00839e-18 0)
(0 -3.61136e-20 0)
(1.65436e-18 -1.17385e-18 0)
(0 -2.04538e-18 0)
(1.65436e-18 -7.81743e-19 0)
(3.30872e-18 -2.4581e-18 0)
(1.65436e-18 -1.01602e-18 0)
(0 -2.67697e-18 0)
(1.65436e-18 -1.23778e-18 0)
(0 -2.48592e-19 0)
(-1.65436e-18 2.62205e-18 0)
(0 1.90217e-20 0)
(1.65436e-18 -2.35111e-18 0)
(1.65436e-18 -1.62697e-18 0)
(-1.65436e-18 2.13257e-19 0)
(0 2.15324e-19 0)
(-0.02 -1.26222e-16 0)
(-1.63782e-16 1.65138e-16 0)
(4.63221e-17 -4.56771e-17 0)
(-9.92617e-18 9.79003e-18 0)
(1.65436e-18 -1.40996e-18 0)
(0 -5.17907e-19 0)
(1.65436e-18 -3.83514e-19 0)
(0 -2.53125e-19 0)
(0 -1.03297e-18 0)
(0 -4.86811e-19 0)
(1.65436e-18 -2.50464e-20 0)
(-1.65436e-18 7.86687e-19 0)
(-3.30872e-18 1.68716e-18 0)
(-1.65436e-18 2.4647e-18 0)
(0 -1.10055e-18 0)
(1.65436e-18 -8.01848e-19 0)
(1.65436e-18 -8.63248e-19 0)
(-1.65436e-18 1.30511e-18 0)
(0 5.69434e-19 0)
(0 -6.18014e-19 0)
(-0.02 7.59339e-17 0)
(1.07533e-16 -1.07188e-16 0)
(-3.14329e-17 3.20043e-17 0)
(4.96308e-18 -5.28267e-18 0)
(0 -1.58728e-19 0)
(0 3.00691e-19 0)
(-1.65436e-18 9.17232e-19 0)
(0 1.19e-18 0)
(-3.30872e-18 2.0589e-18 0)
(-1.65436e-18 2.3142e-18 0)
(0 4.53204e-19 0)
(-1.65436e-18 4.53986e-19 0)
(1.65436e-18 -1.52951e-18 0)
(3.30872e-18 -2.30147e-18 0)
(1.65436e-18 -1.17069e-18 0)
(0 -1.90482e-19 0)
(-1.65436e-18 1.99176e-18 0)
(0 -4.48368e-19 0)
(0 1.03427e-18 0)
(-1.65436e-18 2.08976e-18 0)
(-0.02 1.53112e-17 0)
(2.64698e-17 -2.66006e-17 0)
(-8.27181e-18 8.24878e-18 0)
(4.96308e-18 -4.25922e-18 0)
(0 2.12999e-19 0)
(-1.65436e-18 1.07363e-18 0)
(0 3.18801e-19 0)
(-1.65436e-18 1.88329e-20 0)
(1.65436e-18 -9.79795e-19 0)
(0 -6.40685e-19 0)
(-1.65436e-18 1.92026e-18 0)
(0 3.65485e-19 0)
(-1.65436e-18 3.00418e-19 0)
(0 6.62704e-21 0)
(0 1.72376e-18 0)
(-1.65436e-18 1.15714e-18 0)
(1.65436e-18 -1.01279e-18 0)
(-1.65436e-18 5.64789e-19 0)
(0 2.08223e-19 0)
(0 -4.47042e-19 0)
(-0.02 -7.79608e-17 0)
(-1.19114e-16 1.19678e-16 0)
(4.1359e-17 -4.16211e-17 0)
(-8.27181e-18 7.68146e-18 0)
(1.65436e-18 -7.23766e-19 0)
(1.65436e-18 -1.01356e-18 0)
(0 1.14155e-19 0)
(-1.65436e-18 1.05326e-18 0)
(-1.65436e-18 6.08235e-19 0)
(1.65436e-18 -3.78857e-19 0)
(1.65436e-18 -2.0535e-18 0)
(0 2.3837e-19 0)
(0 -9.24715e-19 0)
(0 -1.05987e-18 0)
(1.65436e-18 -1.7853e-18 0)
(-1.65436e-18 8.26594e-19 0)
(0 1.45747e-18 0)
(0 -8.06736e-19 0)
(3.30872e-18 -1.77466e-18 0)
(0 -4.47618e-19 0)
(-0.02 6.20354e-17 0)
(9.09899e-17 -9.02135e-17 0)
(-3.30872e-17 3.29682e-17 0)
(6.61744e-18 -6.7461e-18 0)
(3.30872e-18 -2.05876e-18 0)
(0 1.9238e-19 0)
(-1.65436e-18 1.49392e-18 0)
(-1.65436e-18 1.6788e-18 0)
(-1.65436e-18 5.47031e-19 0)
(0 -6.09344e-20 0)
(1.65436e-18 -1.18025e-19 0)
(1.65436e-18 -1.38005e-18 0)
(-1.65436e-18 9.40368e-19 0)
(0 1.14048e-18 0)
(0 3.14645e-19 0)
(0 -2.02299e-19 0)
(0 -5.14153e-19 0)
(0 3.46887e-19 0)
(-1.65436e-18 1.47663e-18 0)
(0 6.55246e-19 0)
(-0.02 -1.30188e-17 0)
(-1.8198e-17 2.04258e-17 0)
(8.27181e-18 -9.81611e-18 0)
(-1.65436e-18 3.31272e-18 0)
(-3.30872e-18 3.65243e-18 0)
(-1.65436e-18 3.49679e-19 0)
(3.30872e-18 -1.25008e-18 0)
(3.30872e-18 -3.44652e-18 0)
(0 -1.5057e-18 0)
(0 -4.80743e-19 0)
(0 1.31264e-18 0)
(-1.65436e-18 4.14873e-19 0)
(1.65436e-18 -1.31542e-18 0)
(0 -6.22592e-19 0)
(-1.65436e-18 1.3326e-18 0)
(0 2.01525e-19 0)
(-1.65436e-18 1.95059e-18 0)
(-1.65436e-18 1.43048e-18 0)
(1.65436e-18 -1.35377e-18 0)
(1.65436e-18 -1.29909e-18 0)
(-0.02 -1.02249e-17 0)
(-2.15067e-17 2.15249e-17 0)
(6.61744e-18 -6.67096e-18 0)
(-1.65436e-18 1.76388e-18 0)
(1.65436e-18 -2.48395e-18 0)
(0 1.24202e-19 0)
(0 5.3727e-19 0)
(-3.30872e-18 1.92249e-18 0)
(0 5.48303e-19 0)
(0 4.69472e-19 0)
(3.30872e-18 -3.01283e-18 0)
(1.65436e-18 -1.39465e-18 0)
(0 -3.99274e-19 0)
(1.65436e-18 -5.91617e-19 0)
(0 -1.0862e-18 0)
(0 1.75244e-20 0)
(1.65436e-18 -1.65836e-18 0)
(1.65436e-18 -1.12823e-18 0)
(-1.65436e-18 8.97192e-19 0)
(-1.65436e-18 2.06298e-18 0)
(-0.02 2.78416e-17 0)
(6.12114e-17 -6.05754e-17 0)
(-2.81241e-17 2.71293e-17 0)
(4.96308e-18 -3.8088e-18 0)
(-3.30872e-18 1.96383e-18 0)
(0 1.10863e-18 0)
(-1.65436e-18 2.01921e-18 0)
(-1.65436e-18 9.79926e-19 0)
(-1.65436e-18 3.19771e-19 0)
(1.65436e-18 -9.04981e-19 0)
(0 1.08406e-19 0)
(-1.65436e-18 9.56456e-19 0)
(-1.65436e-18 1.34337e-18 0)
(-3.30872e-18 1.84294e-18 0)
(0 3.15972e-19 0)
(1.65436e-18 -1.81731e-18 0)
(1.65436e-18 -1.00438e-18 0)
(0 -1.57772e-19 0)
(0 2.8056e-19 0)
(0 1.49106e-19 0)
(-0.02 -5.18236e-17 0)
(-8.93355e-17 8.89677e-17 0)
(3.97047e-17 -3.84715e-17 0)
(-8.27181e-18 6.82765e-18 0)
(-1.65436e-18 1.73622e-18 0)
(1.65436e-18 4.90367e-20 0)
(1.65436e-18 -2.92775e-18 0)
(1.65436e-18 -1.637e-18 0)
(0 2.90794e-19 0)
(0 -2.07547e-19 0)
(0 -1.59586e-19 0)
(1.65436e-18 -4.15179e-19 0)
(-1.65436e-18 1.60303e-18 0)
(-1.65436e-18 9.52072e-19 0)
(0 3.81902e-19 0)
(0 4.87358e-19 0)
(1.65436e-18 1.18264e-19 0)
(0 -2.56165e-19 0)
(1.65436e-18 -1.48103e-18 0)
(1.65436e-18 -2.64379e-18 0)
(-0.02 1.99105e-17 0)
(4.46678e-17 -4.40601e-17 0)
(-2.48154e-17 2.60821e-17 0)
(3.30872e-18 -3.84594e-18 0)
(1.65436e-18 -6.22985e-19 0)
(0 1.6812e-19 0)
(0 -4.79202e-19 0)
(-1.65436e-18 6.91996e-19 0)
(0 -2.2959e-19 0)
(0 8.84925e-19 0)
(-1.65436e-18 1.77473e-18 0)
(0 7.24409e-19 0)
(1.65436e-18 -9.91332e-19 0)
(0 -1.1275e-18 0)
(0 -5.39486e-20 0)
(0 6.50429e-19 0)
(0 3.59356e-19 0)
(0 8.57287e-19 0)
(-1.65436e-18 6.09859e-19 0)
(0 -3.80899e-20 0)
(-0.02 5.96845e-17 0)
(5.62483e-17 -5.46711e-17 0)
(-6.61744e-18 6.89064e-18 0)
(3.30872e-18 -3.86303e-18 0)
(1.65436e-18 -1.71355e-18 0)
(1.65436e-18 -1.85145e-18 0)
(-1.65436e-18 1.05222e-18 0)
(1.65436e-18 -1.87302e-18 0)
(1.65436e-18 -6.67051e-19 0)
(-1.65436e-18 7.93095e-19 0)
(0 5.81346e-19 0)
(1.65436e-18 -6.13042e-19 0)
(1.65436e-18 -1.54243e-18 0)
(1.65436e-18 -1.79443e-18 0)
(0 -3.63142e-19 0)
(0 8.1224e-19 0)
(-1.65436e-18 7.37641e-19 0)
(1.65436e-18 -1.15119e-18 0)
(0 2.00339e-19 0)
(-1.65436e-18 2.44816e-18 0)
(-0.02 -9.63762e-17 0)
(-1.32349e-16 1.32739e-16 0)
(3.80503e-17 -3.84744e-17 0)
(-8.27181e-18 7.34174e-18 0)
(1.65436e-18 9.74436e-20 0)
(0 -9.1427e-21 0)
(0 -9.46554e-19 0)
(0 2.67986e-19 0)
(1.65436e-18 -7.62465e-19 0)
(3.30872e-18 -2.32934e-18 0)
(1.65436e-18 -2.0416e-18 0)
(0 3.28787e-19 0)
(-1.65436e-18 9.64108e-19 0)
(-3.30872e-18 2.44577e-18 0)
(0 5.16891e-19 0)
(1.65436e-18 -1.99968e-18 0)
(1.65436e-18 -1.29195e-18 0)
(0 3.36526e-19 0)
(-1.65436e-18 8.41834e-19 0)
(1.65436e-18 -1.30601e-18 0)
(-0.02 9.83213e-17 0)
(1.42275e-16 -1.41758e-16 0)
(-4.46678e-17 4.35956e-17 0)
(6.61744e-18 -5.94712e-18 0)
(-3.30872e-18 1.48061e-18 0)
(0 4.35791e-19 0)
(0 -6.46493e-20 0)
(-1.65436e-18 3.92436e-19 0)
(0 1.00263e-18 0)
(0 1.08819e-18 0)
(0 4.90552e-19 0)
(0 -3.53681e-19 0)
(0 7.72164e-19 0)
(0 -9.38293e-19 0)
(0 -1.6138e-18 0)
(0 1.00946e-18 0)
(0 1.47012e-18 0)
(-1.65436e-18 1.19702e-18 0)
(0 -5.64354e-19 0)
(0 3.0655e-19 0)
(-0.02 -1.37432e-18 0)
(0 -6.56428e-19 0)
(0 -6.10995e-19 0)
(1.65436e-18 -1.15853e-18 0)
(1.65436e-18 -7.80958e-19 0)
(0 1.70253e-19 0)
(-1.65436e-18 1.48698e-18 0)
(-1.65436e-18 2.69231e-19 0)
(1.65436e-18 -8.65463e-19 0)
(0 -2.69718e-19 0)
(-1.65436e-18 -8.11608e-20 0)
(0 1.11571e-18 0)
(0 -9.9103e-20 0)
(0 -8.43752e-19 0)
(-1.65436e-18 1.46797e-18 0)
(0 6.8974e-19 0)
(0 -2.51067e-19 0)
(0 -3.13161e-19 0)
(0 2.19847e-19 0)
(0 -6.83803e-19 0)
(-0.02 -1.32716e-16 0)
(-1.78671e-16 1.78991e-16 0)
(4.96308e-17 -4.96937e-17 0)
(-8.27181e-18 9.08024e-18 0)
(1.65436e-18 -1.29489e-18 0)
(0 -2.78664e-19 0)
(0 -7.07841e-19 0)
(0 -8.73948e-22 0)
(-1.65436e-18 9.58618e-19 0)
(0 6.67021e-19 0)
(0 -1.05582e-20 0)
(1.65436e-18 -1.73885e-18 0)
(0 -9.91558e-19 0)
(0 1.52873e-18 0)
(0 -3.1967e-19 0)
(3.30872e-18 -2.40818e-18 0)
(1.65436e-18 -9.10643e-19 0)
(-1.65436e-18 -8.42798e-20 0)
(0 -2.31694e-20 0)
(0 2.35877e-19 0)
(-0.02 8.01637e-17 0)
(1.14151e-16 -1.14896e-16 0)
(-3.14329e-17 3.19686e-17 0)
(4.96308e-18 -5.18968e-18 0)
(-3.30872e-18 1.65388e-18 0)
(0 1.02582e-18 0)
(0 6.43064e-19 0)
(-1.65436e-18 7.14214e-19 0)
(0 3.78398e-19 0)
(0 2.20389e-19 0)
(0 8.92445e-19 0)
(0 1.2746e-18 0)
(0 4.44104e-19 0)
(0 -7.54272e-19 0)
(0 1.44928e-20 0)
(-1.65436e-18 1.73703e-18 0)
(0 5.39571e-19 0)
(0 -3.90049e-19 0)
(0 -2.58399e-19 0)
(0 2.76206e-19 0)
)
;

boundaryField
{
    movingWall
    {
        type            extrapolatedCalculated;
        value           nonuniform List<vector> 
20
(
(-0.02 8.01637e-17 0)
(1.14151e-16 -1.14896e-16 0)
(-3.14329e-17 3.19686e-17 0)
(4.96308e-18 -5.18968e-18 0)
(-3.30872e-18 1.65388e-18 0)
(0 1.02582e-18 0)
(0 6.43064e-19 0)
(-1.65436e-18 7.14214e-19 0)
(0 3.78398e-19 0)
(0 2.20389e-19 0)
(0 8.92445e-19 0)
(0 1.2746e-18 0)
(0 4.44104e-19 0)
(0 -7.54272e-19 0)
(0 1.44928e-20 0)
(-1.65436e-18 1.73703e-18 0)
(0 5.39571e-19 0)
(0 -3.90049e-19 0)
(0 -2.58399e-19 0)
(0 2.76206e-19 0)
)
;
    }
    fixedWalls
    {
        type            extrapolatedCalculated;
        value           nonuniform List<vector> 
60
(
(-0.02 7.62653e-17 0)
(-0.02 -1.52347e-16 0)
(-0.02 3.98872e-17 0)
(-0.02 1.06708e-16 0)
(-0.02 -1.26222e-16 0)
(-0.02 7.59339e-17 0)
(-0.02 1.53112e-17 0)
(-0.02 -7.79608e-17 0)
(-0.02 6.20354e-17 0)
(-0.02 -1.30188e-17 0)
(-0.02 -1.02249e-17 0)
(-0.02 2.78416e-17 0)
(-0.02 -5.18236e-17 0)
(-0.02 1.99105e-17 0)
(-0.02 5.96845e-17 0)
(-0.02 -9.63762e-17 0)
(-0.02 9.83213e-17 0)
(-0.02 -1.37432e-18 0)
(-0.02 -1.32716e-16 0)
(-0.02 8.01637e-17 0)
(1.65436e-18 -1.57235e-18 0)
(0 8.23106e-19 0)
(0 -2.06495e-19 0)
(0 2.15324e-19 0)
(0 -6.18014e-19 0)
(-1.65436e-18 2.08976e-18 0)
(0 -4.47042e-19 0)
(0 -4.47618e-19 0)
(0 6.55246e-19 0)
(1.65436e-18 -1.29909e-18 0)
(-1.65436e-18 2.06298e-18 0)
(0 1.49106e-19 0)
(1.65436e-18 -2.64379e-18 0)
(0 -3.80899e-20 0)
(-1.65436e-18 2.44816e-18 0)
(1.65436e-18 -1.30601e-18 0)
(0 3.0655e-19 0)
(0 -6.83803e-19 0)
(0 2.35877e-19 0)
(0 2.76206e-19 0)
(-0.02 7.62653e-17 0)
(1.27386e-16 -1.2708e-16 0)
(-3.63959e-17 3.83689e-17 0)
(6.61744e-18 -7.06793e-18 0)
(0 8.0073e-19 0)
(-1.65436e-18 1.3425e-18 0)
(-3.30872e-18 1.95595e-18 0)
(0 6.38679e-19 0)
(-1.65436e-18 3.34854e-19 0)
(1.65436e-18 -3.68434e-19 0)
(0 -6.24778e-20 0)
(-1.65436e-18 4.68748e-19 0)
(0 4.52038e-19 0)
(0 7.22935e-19 0)
(0 4.23156e-19 0)
(0 4.31043e-19 0)
(-1.65436e-18 1.15405e-18 0)
(0 3.33253e-19 0)
(0 -3.19984e-19 0)
(1.65436e-18 -1.57235e-18 0)
)
;
    }
    frontAndBack
    {
        type            empty;
    }
}


// ************************************************************************* //
