/*--------------------------------*- C++ -*----------------------------------*\
| =========                 |                                                 |
| \\      /  F ield         | OpenFOAM: The Open Source CFD Toolbox           |
|  \\    /   O peration     | Version:  2506                                  |
|   \\  /    A nd           | Website:  www.openfoam.com                      |
|    \\/     M anipulation  |                                                 |
\*---------------------------------------------------------------------------*/
FoamFile
{
    version     2.0;
    format      ascii;
    arch        "LSB;label=32;scalar=64";
    class       volTensorField;
    location    "6.5";
    object      gradU;
}
// * * * * * * * * * * * * * * * * * * * * * * * * * * * * * * * * * * * * * //

dimensions      [0 0 -1 0 0 0 0];

internalField   nonuniform List<tensor> 
400
(
(-1.02999e-12 1.00728e-11 0 9.21572e-13 1.46546e-11 0 0 0 0)
(1.57209e-12 -1.21681e-11 0 -2.98156e-13 -3.14129e-12 0 0 0 0)
(-4.87891e-13 2.61186e-12 0 -5.42101e-14 7.57984e-13 0 0 0 0)
(5.42101e-14 -6.23137e-13 0 2.71051e-14 -1.76883e-13 0 0 0 0)
(0 1.53675e-13 0 2.71051e-14 3.66864e-14 0 0 0 0)
(-2.71051e-14 -2.04944e-14 0 5.42101e-14 2.06764e-14 0 0 0 0)
(-2.71051e-14 -4.65191e-15 0 5.42101e-14 3.11805e-14 0 0 0 0)
(0 -1.47957e-14 0 0 1.01703e-14 0 0 0 0)
(-2.71051e-14 -7.91315e-15 0 2.71051e-14 2.81035e-15 0 0 0 0)
(2.71051e-14 1.89491e-15 0 2.71051e-14 -1.55578e-15 0 0 0 0)
(0 8.43508e-15 0 0 2.77107e-15 0 0 0 0)
(-2.71051e-14 4.86386e-16 0 0 9.71948e-15 0 0 0 0)
(0 -2.3248e-15 0 0 5.43097e-15 0 0 0 0)
(-2.71051e-14 1.39237e-15 0 0 1.10761e-14 0 0 0 0)
(0 5.88799e-15 0 -8.13152e-14 6.95871e-15 0 0 0 0)
(0 7.55991e-15 0 -5.42101e-14 8.86709e-15 0 0 0 0)
(-5.42101e-14 -5.01254e-15 0 -5.42101e-14 1.43458e-14 0 0 0 0)
(5.42101e-14 -1.6883e-14 0 0 3.72245e-15 0 0 0 0)
(-5.42101e-14 -1.37788e-14 0 0 -1.46132e-14 0 0 0 0)
(5.42101e-14 1.30676e-14 0 0 -1.99028e-14 0 0 0 0)
(1.70762e-12 1.44054e-12 0 7.31836e-13 -2.54919e-11 0 0 0 0)
(-2.52077e-12 -1.72858e-12 0 -3.52366e-13 5.46316e-12 0 0 0 0)
(7.58942e-13 3.52547e-13 0 -2.71051e-14 -1.33249e-12 0 0 0 0)
(-5.42101e-14 -9.81605e-14 0 -5.42101e-14 2.59288e-13 0 0 0 0)
(5.42101e-14 4.38838e-14 0 -8.13152e-14 -9.09275e-14 0 0 0 0)
(2.71051e-14 1.49885e-14 0 -1.0842e-13 -1.18867e-14 0 0 0 0)
(5.42101e-14 -5.8542e-15 0 -5.42101e-14 -1.33579e-14 0 0 0 0)
(-5.42101e-14 -1.35744e-14 0 0 1.1636e-15 0 0 0 0)
(5.42101e-14 -3.8129e-15 0 0 1.30666e-14 0 0 0 0)
(-8.13152e-14 -1.93419e-15 0 2.71051e-14 2.42298e-14 0 0 0 0)
(0 2.84018e-15 0 -5.42101e-14 1.0376e-14 0 0 0 0)
(0 2.17352e-15 0 0 1.10737e-14 0 0 0 0)
(0 3.68138e-15 0 -5.42101e-14 5.18463e-15 0 0 0 0)
(0 1.35375e-16 0 0 -8.40481e-15 0 0 0 0)
(0 -8.09697e-15 0 2.71051e-14 -1.8154e-14 0 0 0 0)
(0 -1.72849e-16 0 5.42101e-14 -1.62382e-14 0 0 0 0)
(2.71051e-14 -1.32093e-16 0 5.42101e-14 -8.76873e-15 0 0 0 0)
(0 -1.20759e-14 0 0 -9.30171e-15 0 0 0 0)
(5.42101e-14 -9.8465e-15 0 0 -8.45712e-15 0 0 0 0)
(0 2.14484e-14 0 0 1.1658e-15 0 0 0 0)
(-6.23416e-13 -9.95592e-12 0 -4.66207e-12 6.83981e-12 0 0 0 0)
(7.31836e-13 1.19913e-11 0 1.30104e-12 -1.57099e-12 0 0 0 0)
(-1.89735e-13 -2.59201e-12 0 -1.35525e-13 3.27207e-13 0 0 0 0)
(2.71051e-14 6.1843e-13 0 -2.71051e-14 -8.44572e-14 0 0 0 0)
(5.42101e-14 -1.17499e-13 0 -5.42101e-14 5.76547e-15 0 0 0 0)
(0 5.70752e-14 0 -2.71051e-14 -2.9217e-14 0 0 0 0)
(0 8.39836e-15 0 -8.13152e-14 -2.93083e-14 0 0 0 0)
(2.71051e-14 1.16288e-14 0 -5.42101e-14 -1.57498e-14 0 0 0 0)
(2.71051e-14 1.5153e-14 0 -1.0842e-13 -5.86288e-15 0 0 0 0)
(0 -7.95748e-16 0 -5.42101e-14 4.10625e-15 0 0 0 0)
(0 -4.72095e-15 0 0 3.49451e-15 0 0 0 0)
(0 -4.70496e-15 0 5.42101e-14 1.90886e-15 0 0 0 0)
(-2.71051e-14 -2.18034e-14 0 8.13152e-14 -1.97203e-15 0 0 0 0)
(2.71051e-14 -2.19463e-14 0 2.71051e-14 -1.22785e-14 0 0 0 0)
(0 -1.9454e-15 0 1.0842e-13 -3.69638e-16 0 0 0 0)
(0 1.69452e-14 0 0 5.50014e-15 0 0 0 0)
(-2.71051e-14 1.92396e-15 0 0 3.78769e-15 0 0 0 0)
(0 -1.65714e-14 0 2.71051e-14 -9.92425e-16 0 0 0 0)
(-2.71051e-14 -3.31126e-15 0 2.71051e-14 -5.29499e-17 0 0 0 0)
(0 2.03589e-14 0 0 2.02314e-15 0 0 0 0)
(-1.70762e-12 6.70935e-12 0 3.52366e-12 1.30239e-11 0 0 0 0)
(2.03288e-12 -8.24118e-12 0 -8.67362e-13 -2.83515e-12 0 0 0 0)
(-5.42101e-13 1.83908e-12 0 1.6263e-13 6.84475e-13 0 0 0 0)
(5.42101e-14 -4.19602e-13 0 2.71051e-14 -1.25188e-13 0 0 0 0)
(-8.13152e-14 9.9124e-14 0 5.42101e-14 5.55018e-14 0 0 0 0)
(0 -2.00852e-14 0 0 -1.68451e-14 0 0 0 0)
(2.71051e-14 7.61306e-15 0 2.71051e-14 -2.51214e-14 0 0 0 0)
(5.42101e-14 9.871e-15 0 0 -3.26656e-14 0 0 0 0)
(0 1.60431e-14 0 0 -3.47033e-14 0 0 0 0)
(5.42101e-14 7.42319e-15 0 -5.42101e-14 -3.85023e-14 0 0 0 0)
(0 6.42787e-16 0 0 -1.99605e-14 0 0 0 0)
(8.13152e-14 -3.29302e-15 0 -5.42101e-14 -2.61127e-14 0 0 0 0)
(0 -1.05059e-14 0 -2.71051e-14 -2.91749e-15 0 0 0 0)
(2.71051e-14 1.73777e-15 0 0 2.05051e-14 0 0 0 0)
(-8.13152e-14 9.68163e-15 0 -5.42101e-14 2.74009e-14 0 0 0 0)
(-2.71051e-14 3.98448e-15 0 -5.42101e-14 -2.95268e-15 0 0 0 0)
(8.13152e-14 -6.62465e-15 0 0 -2.40324e-14 0 0 0 0)
(2.71051e-14 -1.59166e-14 0 2.71051e-14 -4.15152e-15 0 0 0 0)
(-2.71051e-14 -6.83093e-15 0 -2.71051e-14 5.61034e-15 0 0 0 0)
(0 1.94782e-14 0 0 -2.87974e-15 0 0 0 0)
(2.00577e-12 2.32818e-13 0 1.0842e-12 -1.79925e-11 0 0 0 0)
(-2.60209e-12 -3.48098e-13 0 -1.0842e-13 4.03157e-12 0 0 0 0)
(7.04731e-13 1.17953e-13 0 1.89735e-13 -8.9333e-13 0 0 0 0)
(-1.35525e-13 -1.05435e-14 0 1.0842e-13 2.30586e-13 0 0 0 0)
(2.71051e-14 -9.15606e-15 0 1.35525e-13 -4.01897e-14 0 0 0 0)
(2.71051e-14 -2.3548e-14 0 1.6263e-13 4.70556e-15 0 0 0 0)
(0 -7.42208e-15 0 1.35525e-13 -7.35684e-15 0 0 0 0)
(0 2.04681e-15 0 1.0842e-13 -5.60919e-15 0 0 0 0)
(0 9.31628e-15 0 1.35525e-13 -5.77531e-17 0 0 0 0)
(0 1.39471e-14 0 5.42101e-14 -1.27099e-15 0 0 0 0)
(0 7.66864e-15 0 8.13152e-14 8.2749e-16 0 0 0 0)
(-2.71051e-14 1.2338e-14 0 0 -1.64038e-15 0 0 0 0)
(0 2.48145e-14 0 0 7.41182e-15 0 0 0 0)
(-8.13152e-14 8.37211e-15 0 -2.71051e-14 1.13634e-14 0 0 0 0)
(5.42101e-14 -2.54032e-14 0 0 -8.25148e-15 0 0 0 0)
(0 -3.44881e-14 0 1.0842e-13 -1.52538e-14 0 0 0 0)
(2.71051e-14 7.25118e-16 0 0 -1.58876e-14 0 0 0 0)
(-2.71051e-14 1.30713e-14 0 -2.71051e-14 -1.5016e-15 0 0 0 0)
(0 -2.03948e-15 0 2.71051e-14 1.22254e-14 0 0 0 0)
(0 1.76283e-14 0 2.71051e-14 6.59087e-15 0 0 0 0)
(-7.58942e-13 -7.25159e-12 0 -2.57498e-12 1.19184e-11 0 0 0 0)
(1.16552e-12 8.85801e-12 0 6.77626e-13 -2.50725e-12 0 0 0 0)
(-3.52366e-13 -1.9619e-12 0 -8.13152e-14 5.94664e-13 0 0 0 0)
(2.71051e-14 4.33538e-13 0 5.42101e-14 -1.43509e-13 0 0 0 0)
(2.71051e-14 -1.26757e-13 0 5.42101e-14 1.51958e-14 0 0 0 0)
(-2.71051e-14 1.27476e-14 0 2.71051e-14 7.29833e-15 0 0 0 0)
(0 -2.70169e-15 0 0 1.68421e-14 0 0 0 0)
(-2.71051e-14 1.71701e-14 0 2.71051e-14 1.81584e-14 0 0 0 0)
(-5.42101e-14 2.03813e-14 0 0 2.35686e-14 0 0 0 0)
(-5.42101e-14 8.30844e-15 0 5.42101e-14 2.61385e-14 0 0 0 0)
(0 2.73396e-16 0 2.71051e-14 1.91664e-14 0 0 0 0)
(0 3.29131e-15 0 2.71051e-14 1.50329e-14 0 0 0 0)
(5.42101e-14 2.49779e-15 0 0 -3.09081e-15 0 0 0 0)
(2.71051e-14 -1.39255e-14 0 5.42101e-14 -1.56178e-14 0 0 0 0)
(2.71051e-14 -1.69355e-14 0 5.42101e-14 -1.48897e-14 0 0 0 0)
(0 -3.65169e-15 0 0 -4.56234e-16 0 0 0 0)
(-5.42101e-14 7.12756e-15 0 0 1.61802e-14 0 0 0 0)
(5.42101e-14 1.21965e-14 0 0 1.19091e-14 0 0 0 0)
(-2.71051e-14 1.26154e-15 0 0 1.87076e-14 0 0 0 0)
(-2.71051e-14 6.61943e-16 0 0 1.43346e-14 0 0 0 0)
(1.6263e-13 9.64398e-12 0 1.68051e-12 5.07063e-12 0 0 0 0)
(-1.0842e-13 -1.16718e-11 0 -6.50521e-13 -1.15235e-12 0 0 0 0)
(5.42101e-14 2.48169e-12 0 -5.42101e-14 2.35424e-13 0 0 0 0)
(2.71051e-14 -5.90012e-13 0 -1.0842e-13 -7.69153e-14 0 0 0 0)
(0 1.41651e-13 0 -1.0842e-13 1.48408e-14 0 0 0 0)
(-2.71051e-14 -2.19017e-14 0 -8.13152e-14 4.58179e-15 0 0 0 0)
(0 3.43796e-15 0 -8.13152e-14 7.92717e-15 0 0 0 0)
(-2.71051e-14 8.77336e-15 0 -8.13152e-14 9.82794e-15 0 0 0 0)
(2.71051e-14 1.72964e-14 0 -1.0842e-13 -2.29739e-15 0 0 0 0)
(2.71051e-14 9.54488e-15 0 -5.42101e-14 1.10444e-15 0 0 0 0)
(-5.42101e-14 -3.43696e-15 0 -5.42101e-14 1.60624e-14 0 0 0 0)
(0 -9.9192e-15 0 -2.71051e-14 1.29576e-14 0 0 0 0)
(-2.71051e-14 -5.83626e-15 0 0 -8.48319e-15 0 0 0 0)
(0 -3.42673e-15 0 -5.42101e-14 -1.10216e-14 0 0 0 0)
(-2.71051e-14 -1.02416e-14 0 -5.42101e-14 1.0516e-14 0 0 0 0)
(-2.71051e-14 -3.41832e-15 0 -5.42101e-14 1.91386e-14 0 0 0 0)
(2.71051e-14 1.30905e-14 0 -5.42101e-14 7.85281e-15 0 0 0 0)
(-2.71051e-14 1.55988e-14 0 -8.13152e-14 -2.05258e-15 0 0 0 0)
(0 3.85988e-16 0 -2.71051e-14 -3.63022e-15 0 0 0 0)
(0 -1.54139e-14 0 -2.71051e-14 4.0605e-15 0 0 0 0)
(2.98156e-13 -3.33331e-12 0 -6.77626e-13 -1.78924e-11 0 0 0 0)
(-6.50521e-13 4.02281e-12 0 1.89735e-13 3.81958e-12 0 0 0 0)
(2.1684e-13 -8.86472e-13 0 -5.42101e-14 -9.06693e-13 0 0 0 0)
(0 2.12955e-13 0 -8.13152e-14 1.88121e-13 0 0 0 0)
(0 -4.52596e-14 0 -5.42101e-14 -6.01797e-14 0 0 0 0)
(5.42101e-14 5.83397e-15 0 -2.71051e-14 -4.59549e-15 0 0 0 0)
(0 2.54446e-15 0 0 4.52944e-15 0 0 0 0)
(-5.42101e-14 6.94552e-15 0 -8.13152e-14 1.78196e-14 0 0 0 0)
(0 1.16578e-14 0 -2.71051e-14 -1.63632e-15 0 0 0 0)
(0 2.66682e-14 0 -5.42101e-14 -1.40276e-14 0 0 0 0)
(5.42101e-14 1.21266e-14 0 -8.13152e-14 -1.49366e-14 0 0 0 0)
(0 -2.12543e-14 0 -5.42101e-14 -6.50073e-15 0 0 0 0)
(2.71051e-14 -2.14815e-14 0 0 -1.13456e-14 0 0 0 0)
(0 5.0736e-15 0 0 -1.63087e-14 0 0 0 0)
(5.42101e-14 1.32247e-14 0 0 -1.05331e-14 0 0 0 0)
(-5.42101e-14 -6.31483e-15 0 0 1.84121e-14 0 0 0 0)
(-2.71051e-14 -1.40636e-14 0 5.42101e-14 5.13252e-15 0 0 0 0)
(2.71051e-14 7.13468e-16 0 0 -9.16806e-15 0 0 0 0)
(5.42101e-14 7.37462e-15 0 0 -1.09681e-14 0 0 0 0)
(0 2.31668e-16 0 0 -2.57518e-15 0 0 0 0)
(-3.52366e-13 -4.4288e-12 0 -5.14996e-13 1.43516e-11 0 0 0 0)
(5.96311e-13 5.31382e-12 0 2.43945e-13 -3.18985e-12 0 0 0 0)
(-2.1684e-13 -1.14977e-12 0 1.0842e-13 7.18385e-13 0 0 0 0)
(0 2.56502e-13 0 8.13152e-14 -1.77773e-13 0 0 0 0)
(5.42101e-14 -5.10654e-14 0 8.13152e-14 2.82004e-14 0 0 0 0)
(0 4.28074e-14 0 0 3.09374e-15 0 0 0 0)
(-2.71051e-14 2.58531e-14 0 0 2.45037e-14 0 0 0 0)
(-2.71051e-14 2.6076e-15 0 8.13152e-14 1.42843e-14 0 0 0 0)
(0 -1.45508e-14 0 1.35525e-13 1.13383e-14 0 0 0 0)
(-2.71051e-14 -3.75545e-15 0 1.0842e-13 1.68876e-15 0 0 0 0)
(0 4.08994e-15 0 8.13152e-14 -1.06435e-14 0 0 0 0)
(5.42101e-14 -6.32817e-15 0 0 -1.78314e-14 0 0 0 0)
(0 -1.56442e-14 0 5.42101e-14 2.31485e-15 0 0 0 0)
(-2.71051e-14 -2.61422e-15 0 2.71051e-14 9.49336e-15 0 0 0 0)
(0 2.44792e-14 0 2.71051e-14 -1.55153e-15 0 0 0 0)
(0 1.22473e-14 0 0 -6.00438e-15 0 0 0 0)
(2.71051e-14 -1.44897e-14 0 5.42101e-14 1.06267e-14 0 0 0 0)
(-2.71051e-14 -5.01812e-16 0 5.42101e-14 1.22977e-14 0 0 0 0)
(0 6.97886e-15 0 0 7.81673e-16 0 0 0 0)
(-2.71051e-14 -1.87062e-15 0 0 -3.42227e-15 0 0 0 0)
(0 7.82841e-12 0 8.67362e-13 -4.63678e-12 0 0 0 0)
(-5.42101e-14 -9.61038e-12 0 -3.52366e-13 1.08266e-12 0 0 0 0)
(5.42101e-14 2.12561e-12 0 -5.42101e-14 -2.32657e-13 0 0 0 0)
(0 -4.7723e-13 0 -5.42101e-14 8.10214e-14 0 0 0 0)
(-8.13152e-14 1.35608e-13 0 -8.13152e-14 3.66562e-15 0 0 0 0)
(0 2.13726e-15 0 -8.13152e-14 2.01335e-15 0 0 0 0)
(2.71051e-14 1.3735e-14 0 -8.13152e-14 -1.67817e-14 0 0 0 0)
(8.13152e-14 -6.21982e-15 0 -8.13152e-14 -2.95645e-14 0 0 0 0)
(2.71051e-14 -9.37671e-16 0 -1.0842e-13 -1.62494e-14 0 0 0 0)
(0 4.6864e-15 0 -1.0842e-13 4.81263e-16 0 0 0 0)
(-5.42101e-14 -7.39362e-15 0 0 1.37582e-15 0 0 0 0)
(0 -8.29593e-15 0 5.42101e-14 -8.63661e-15 0 0 0 0)
(5.42101e-14 5.84332e-15 0 -2.71051e-14 -9.2357e-15 0 0 0 0)
(-2.71051e-14 1.20722e-15 0 -2.71051e-14 3.24546e-15 0 0 0 0)
(-2.71051e-14 -2.27302e-15 0 -2.71051e-14 1.56033e-14 0 0 0 0)
(0 5.86345e-15 0 0 4.23991e-15 0 0 0 0)
(0 4.23843e-15 0 -5.42101e-14 1.25858e-14 0 0 0 0)
(-5.42101e-14 -9.1316e-15 0 0 6.81297e-15 0 0 0 0)
(5.42101e-14 -8.34534e-15 0 0 -6.40031e-15 0 0 0 0)
(0 2.87227e-15 0 5.42101e-14 1.80339e-15 0 0 0 0)
(1.89735e-13 -7.98292e-12 0 -2.98156e-13 -2.65402e-12 0 0 0 0)
(-3.79471e-13 9.71795e-12 0 3.52366e-13 6.8255e-13 0 0 0 0)
(1.0842e-13 -2.15141e-12 0 8.13152e-14 -1.2417e-13 0 0 0 0)
(-5.42101e-14 4.92824e-13 0 1.0842e-13 5.06125e-14 0 0 0 0)
(5.42101e-14 -1.30073e-13 0 8.13152e-14 -1.0079e-14 0 0 0 0)
(0 2.23601e-14 0 1.0842e-13 5.39603e-15 0 0 0 0)
(0 -5.72479e-15 0 1.35525e-13 6.76898e-15 0 0 0 0)
(-5.42101e-14 3.13984e-15 0 2.71051e-14 5.86648e-15 0 0 0 0)
(0 1.5495e-14 0 5.42101e-14 -2.77112e-15 0 0 0 0)
(0 1.38698e-14 0 -2.71051e-14 -1.17632e-14 0 0 0 0)
(8.13152e-14 -5.02793e-15 0 0 -2.62426e-14 0 0 0 0)
(5.42101e-14 -1.69397e-14 0 0 -5.30771e-15 0 0 0 0)
(0 -3.76214e-15 0 0 -1.23992e-14 0 0 0 0)
(0 2.22247e-14 0 0 -1.55527e-14 0 0 0 0)
(0 2.54736e-14 0 -5.42101e-14 -9.06637e-15 0 0 0 0)
(-5.42101e-14 9.22981e-15 0 -5.42101e-14 -1.54999e-15 0 0 0 0)
(5.42101e-14 -1.19166e-14 0 0 -8.23882e-15 0 0 0 0)
(5.42101e-14 -1.94879e-14 0 2.71051e-14 -2.3924e-15 0 0 0 0)
(0 1.96928e-15 0 2.71051e-14 9.4175e-15 0 0 0 0)
(-5.42101e-14 2.7263e-15 0 0 1.36828e-14 0 0 0 0)
(5.42101e-14 5.85694e-12 0 -3.52366e-13 1.03355e-11 0 0 0 0)
(3.79471e-13 -7.08053e-12 0 -2.71051e-14 -2.36673e-12 0 0 0 0)
(-2.1684e-13 1.49367e-12 0 -8.13152e-14 5.60958e-13 0 0 0 0)
(-2.71051e-14 -3.63139e-13 0 2.71051e-14 -1.19943e-13 0 0 0 0)
(-2.71051e-14 9.03911e-14 0 0 4.86888e-14 0 0 0 0)
(-2.71051e-14 1.89852e-14 0 -2.71051e-14 1.93699e-14 0 0 0 0)
(-5.42101e-14 1.42054e-14 0 -5.42101e-14 2.33486e-14 0 0 0 0)
(-2.71051e-14 -1.57599e-14 0 5.42101e-14 2.22626e-14 0 0 0 0)
(0 -1.85673e-14 0 0 1.36695e-14 0 0 0 0)
(0 -1.8785e-14 0 8.13152e-14 -9.63413e-15 0 0 0 0)
(0 -9.38177e-16 0 2.71051e-14 -1.52332e-14 0 0 0 0)
(-2.71051e-14 5.54745e-15 0 0 4.97622e-15 0 0 0 0)
(-2.71051e-14 -4.40168e-15 0 -2.71051e-14 3.1077e-14 0 0 0 0)
(-5.42101e-14 4.54004e-15 0 0 2.99278e-14 0 0 0 0)
(0 1.17297e-14 0 -2.71051e-14 -1.82845e-15 0 0 0 0)
(0 6.69099e-15 0 0 -2.44463e-14 0 0 0 0)
(5.42101e-14 3.39601e-15 0 0 -2.45281e-14 0 0 0 0)
(0 8.52473e-15 0 -2.71051e-14 -4.72891e-15 0 0 0 0)
(0 7.72988e-15 0 -2.71051e-14 4.46134e-15 0 0 0 0)
(0 -2.02281e-14 0 -5.42101e-14 -2.49041e-15 0 0 0 0)
(-1.89735e-13 -1.41699e-14 0 1.00289e-12 -1.60842e-11 0 0 0 0)
(-8.13152e-14 -5.65703e-14 0 -3.52366e-13 3.50361e-12 0 0 0 0)
(1.35525e-13 9.53761e-14 0 2.71051e-14 -8.03012e-13 0 0 0 0)
(5.42101e-14 -1.94457e-14 0 -1.35525e-13 2.0249e-13 0 0 0 0)
(-5.42101e-14 9.23908e-15 0 -8.13152e-14 -9.18707e-15 0 0 0 0)
(0 -2.98007e-15 0 -5.42101e-14 3.89139e-15 0 0 0 0)
(5.42101e-14 -2.83214e-15 0 0 -3.44064e-14 0 0 0 0)
(2.71051e-14 -6.53921e-15 0 2.71051e-14 -1.28188e-14 0 0 0 0)
(-2.71051e-14 -1.64017e-14 0 -5.42101e-14 -5.15009e-15 0 0 0 0)
(2.71051e-14 -1.50329e-14 0 2.71051e-14 -3.66406e-15 0 0 0 0)
(0 9.58242e-15 0 -8.13152e-14 9.51776e-15 0 0 0 0)
(5.42101e-14 2.93705e-14 0 -5.42101e-14 4.77666e-15 0 0 0 0)
(-5.42101e-14 2.11895e-14 0 2.71051e-14 2.46443e-14 0 0 0 0)
(-2.71051e-14 -1.06807e-14 0 0 2.3283e-14 0 0 0 0)
(2.71051e-14 -2.89005e-14 0 8.13152e-14 9.28863e-15 0 0 0 0)
(0 -1.34698e-14 0 5.42101e-14 -4.12659e-15 0 0 0 0)
(0 7.80073e-15 0 2.71051e-14 -6.27074e-15 0 0 0 0)
(0 9.5015e-15 0 0 -9.08197e-15 0 0 0 0)
(0 4.20778e-15 0 0 -2.34029e-14 0 0 0 0)
(5.42101e-14 7.55376e-16 0 0 -2.19395e-14 0 0 0 0)
(7.04731e-13 -6.72365e-12 0 -1.92446e-12 1.16925e-11 0 0 0 0)
(-5.96311e-13 8.20066e-12 0 4.87891e-13 -2.4018e-12 0 0 0 0)
(2.71051e-14 -1.80745e-12 0 -1.0842e-13 5.54285e-13 0 0 0 0)
(-8.13152e-14 4.30686e-13 0 0 -1.35888e-13 0 0 0 0)
(0 -1.08208e-13 0 0 1.52341e-14 0 0 0 0)
(0 -6.23416e-15 0 5.42101e-14 -1.08467e-14 0 0 0 0)
(5.42101e-14 -2.50475e-15 0 -5.42101e-14 -7.89721e-15 0 0 0 0)
(-5.42101e-14 1.34964e-14 0 -2.71051e-14 -7.18394e-15 0 0 0 0)
(0 -9.41257e-15 0 5.42101e-14 5.43031e-15 0 0 0 0)
(0 -4.1172e-15 0 -2.71051e-14 2.72009e-14 0 0 0 0)
(-5.42101e-14 7.50254e-15 0 -2.71051e-14 2.44962e-14 0 0 0 0)
(0 2.0674e-14 0 5.42101e-14 -3.04284e-15 0 0 0 0)
(2.71051e-14 1.41046e-14 0 -2.71051e-14 -2.51255e-14 0 0 0 0)
(2.71051e-14 -1.08156e-14 0 2.71051e-14 -2.94251e-14 0 0 0 0)
(0 -1.56798e-14 0 5.42101e-14 3.88257e-15 0 0 0 0)
(0 -8.86838e-15 0 2.71051e-14 2.38295e-14 0 0 0 0)
(0 -1.55936e-15 0 2.71051e-14 1.56068e-14 0 0 0 0)
(-2.71051e-14 -8.60739e-15 0 5.42101e-14 3.02054e-15 0 0 0 0)
(-2.71051e-14 -5.12764e-15 0 2.71051e-14 -7.26732e-16 0 0 0 0)
(0 2.51143e-14 0 2.71051e-14 -1.73655e-15 0 0 0 0)
(-1.65341e-12 9.27649e-12 0 8.94467e-13 2.15127e-12 0 0 0 0)
(1.70762e-12 -1.11947e-11 0 -4.60786e-13 -5.72148e-13 0 0 0 0)
(-3.25261e-13 2.36128e-12 0 -1.35525e-13 1.11186e-13 0 0 0 0)
(1.35525e-13 -5.58497e-13 0 -2.71051e-14 -5.69986e-14 0 0 0 0)
(0 1.34281e-13 0 -8.13152e-14 -1.62867e-14 0 0 0 0)
(5.42101e-14 -2.61114e-14 0 -8.13152e-14 -1.35277e-14 0 0 0 0)
(-5.42101e-14 8.30667e-16 0 -2.71051e-14 6.586e-16 0 0 0 0)
(5.42101e-14 6.78832e-15 0 -8.13152e-14 -2.39553e-14 0 0 0 0)
(2.71051e-14 1.79831e-14 0 -5.42101e-14 -1.27441e-14 0 0 0 0)
(-2.71051e-14 4.03301e-15 0 -8.13152e-14 1.29634e-15 0 0 0 0)
(0 -2.06613e-14 0 2.71051e-14 1.78042e-15 0 0 0 0)
(2.71051e-14 -2.02512e-14 0 0 -4.0556e-15 0 0 0 0)
(5.42101e-14 -5.19279e-15 0 0 -1.81176e-14 0 0 0 0)
(2.71051e-14 1.83273e-14 0 -2.71051e-14 -1.16471e-14 0 0 0 0)
(0 2.43541e-14 0 -1.0842e-13 -2.54167e-15 0 0 0 0)
(-2.71051e-14 -1.74557e-15 0 -2.71051e-14 -2.35014e-15 0 0 0 0)
(0 -1.30082e-14 0 -5.42101e-14 -7.30401e-16 0 0 0 0)
(2.71051e-14 -6.83202e-15 0 -5.42101e-14 4.79648e-16 0 0 0 0)
(2.71051e-14 -5.49304e-16 0 -2.71051e-14 2.13405e-14 0 0 0 0)
(-5.42101e-14 3.21865e-15 0 0 1.47295e-14 0 0 0 0)
(1.16552e-12 -5.14453e-12 0 2.43945e-13 -1.51054e-11 0 0 0 0)
(-1.5992e-12 6.16057e-12 0 2.43945e-13 3.20138e-12 0 0 0 0)
(3.79471e-13 -1.2923e-12 0 2.43945e-13 -7.51088e-13 0 0 0 0)
(-2.71051e-14 3.03214e-13 0 1.35525e-13 1.78444e-13 0 0 0 0)
(0 -6.47369e-14 0 1.35525e-13 -3.52627e-14 0 0 0 0)
(0 1.07111e-14 0 8.13152e-14 -9.402e-15 0 0 0 0)
(0 -1.29324e-14 0 8.13152e-14 -1.33606e-14 0 0 0 0)
(0 9.37208e-17 0 8.13152e-14 -5.96558e-15 0 0 0 0)
(2.71051e-14 1.58391e-14 0 5.42101e-14 -1.69474e-14 0 0 0 0)
(5.42101e-14 1.04073e-14 0 8.13152e-14 -3.32059e-14 0 0 0 0)
(5.42101e-14 2.15061e-15 0 1.0842e-13 -2.13578e-14 0 0 0 0)
(-2.71051e-14 7.7603e-16 0 5.42101e-14 3.44619e-15 0 0 0 0)
(-2.71051e-14 6.51307e-15 0 0 1.76137e-14 0 0 0 0)
(-5.42101e-14 4.76025e-15 0 0 1.66283e-14 0 0 0 0)
(0 -6.38286e-15 0 5.42101e-14 -1.49035e-14 0 0 0 0)
(5.42101e-14 -7.05711e-15 0 5.42101e-14 -1.74647e-14 0 0 0 0)
(0 1.27043e-15 0 2.71051e-14 -3.18183e-15 0 0 0 0)
(0 1.34635e-14 0 0 1.62319e-15 0 0 0 0)
(0 9.1222e-15 0 0 3.63172e-15 0 0 0 0)
(0 -1.09557e-14 0 0 1.36368e-15 0 0 0 0)
(-1.16552e-12 -2.62758e-12 0 -1.73472e-12 1.71026e-11 0 0 0 0)
(1.70762e-12 3.15962e-12 0 5.14996e-13 -3.62392e-12 0 0 0 0)
(-4.60786e-13 -6.61653e-13 0 0 8.69599e-13 0 0 0 0)
(5.42101e-14 1.57328e-13 0 5.42101e-14 -1.71983e-13 0 0 0 0)
(-5.42101e-14 -5.35651e-14 0 5.42101e-14 4.67963e-14 0 0 0 0)
(0 -4.20925e-15 0 1.0842e-13 1.58334e-15 0 0 0 0)
(-2.71051e-14 4.26709e-15 0 5.42101e-14 1.44118e-14 0 0 0 0)
(0 3.20151e-15 0 5.42101e-14 1.96387e-14 0 0 0 0)
(0 -9.25717e-15 0 5.42101e-14 1.0458e-14 0 0 0 0)
(-2.71051e-14 -3.77386e-16 0 5.42101e-14 5.70961e-15 0 0 0 0)
(-2.71051e-14 1.59907e-14 0 -2.71051e-14 9.36071e-16 0 0 0 0)
(2.71051e-14 1.87203e-14 0 -2.71051e-14 6.18064e-15 0 0 0 0)
(0 7.9893e-15 0 2.71051e-14 6.69613e-15 0 0 0 0)
(2.71051e-14 -1.41899e-14 0 2.71051e-14 -5.51293e-15 0 0 0 0)
(0 -9.73889e-15 0 5.42101e-14 1.78419e-15 0 0 0 0)
(0 9.97614e-15 0 -2.71051e-14 1.53357e-14 0 0 0 0)
(-2.71051e-14 6.07968e-15 0 0 1.46527e-14 0 0 0 0)
(-2.71051e-14 -1.84759e-17 0 0 1.12049e-14 0 0 0 0)
(2.71051e-14 -8.08809e-16 0 0 -5.45342e-15 0 0 0 0)
(-2.71051e-14 -1.77674e-15 0 0 -6.12354e-15 0 0 0 0)
(-5.42101e-14 8.33412e-12 0 4.33681e-12 -4.9102e-13 0 0 0 0)
(1.0842e-13 -1.00724e-11 0 -1.24683e-12 1.18308e-13 0 0 0 0)
(-2.71051e-14 2.15964e-12 0 2.71051e-14 -2.75143e-14 0 0 0 0)
(2.71051e-14 -5.19588e-13 0 -1.0842e-13 -6.08516e-15 0 0 0 0)
(0 1.08829e-13 0 -1.0842e-13 -5.39982e-15 0 0 0 0)
(0 -2.16734e-14 0 -1.0842e-13 6.77958e-15 0 0 0 0)
(0 5.12294e-15 0 -1.0842e-13 1.21545e-14 0 0 0 0)
(0 -3.86009e-15 0 -5.42101e-14 2.3959e-16 0 0 0 0)
(0 1.91001e-15 0 -5.42101e-14 3.60275e-15 0 0 0 0)
(0 8.85427e-16 0 -5.42101e-14 1.4727e-14 0 0 0 0)
(0 2.62164e-15 0 -8.13152e-14 5.60718e-15 0 0 0 0)
(-2.71051e-14 6.53609e-15 0 -2.71051e-14 1.14333e-15 0 0 0 0)
(0 -5.1805e-15 0 -8.13152e-14 -9.25388e-16 0 0 0 0)
(-2.71051e-14 -1.51701e-16 0 -8.13152e-14 -1.2292e-15 0 0 0 0)
(0 1.44657e-14 0 -1.0842e-13 8.09224e-15 0 0 0 0)
(0 5.81138e-15 0 -8.13152e-14 -6.89767e-15 0 0 0 0)
(0 -2.86039e-15 0 0 -6.04865e-15 0 0 0 0)
(0 -6.64263e-15 0 2.71051e-14 4.58432e-15 0 0 0 0)
(0 -8.20619e-15 0 0 2.23401e-15 0 0 0 0)
(0 6.21303e-16 0 -2.71051e-14 -4.62735e-15 0 0 0 0)
(1.89735e-12 -3.00029e-12 0 -1.13841e-12 -1.90997e-11 0 0 0 0)
(-2.57498e-12 3.62312e-12 0 3.79471e-13 4.10671e-12 0 0 0 0)
(7.04731e-13 -7.86046e-13 0 5.42101e-14 -9.75848e-13 0 0 0 0)
(-1.0842e-13 1.79443e-13 0 2.71051e-14 2.09799e-13 0 0 0 0)
(0 -4.07004e-14 0 8.13152e-14 -4.68275e-14 0 0 0 0)
(0 1.33451e-14 0 0 3.20521e-15 0 0 0 0)
(2.71051e-14 -2.2729e-15 0 5.42101e-14 -5.63055e-15 0 0 0 0)
(0 -5.35028e-15 0 2.71051e-14 -1.45903e-15 0 0 0 0)
(-2.71051e-14 5.23022e-15 0 2.71051e-14 1.50499e-15 0 0 0 0)
(0 1.62704e-15 0 0 -4.23785e-15 0 0 0 0)
(0 2.40708e-15 0 5.42101e-14 -8.09762e-15 0 0 0 0)
(2.71051e-14 1.21877e-14 0 0 -1.23613e-14 0 0 0 0)
(0 5.61676e-15 0 5.42101e-14 -5.78765e-15 0 0 0 0)
(-2.71051e-14 -5.17231e-15 0 0 6.5747e-15 0 0 0 0)
(2.71051e-14 -1.54073e-14 0 5.42101e-14 -6.08742e-15 0 0 0 0)
(5.42101e-14 -4.16474e-15 0 5.42101e-14 -1.89456e-14 0 0 0 0)
(2.71051e-14 1.75617e-14 0 -2.71051e-14 -9.42698e-15 0 0 0 0)
(-2.71051e-14 8.26419e-15 0 -2.71051e-14 -4.16555e-15 0 0 0 0)
(0 -1.00205e-14 0 0 7.51085e-16 0 0 0 0)
(0 6.1659e-16 0 2.71051e-14 -1.49201e-16 0 0 0 0)
(-7.86047e-13 -6.65887e-12 0 -1.40946e-12 1.23072e-11 0 0 0 0)
(1.24683e-12 8.05145e-12 0 2.98156e-13 -2.64805e-12 0 0 0 0)
(-3.52366e-13 -1.73727e-12 0 -1.0842e-13 6.32639e-13 0 0 0 0)
(0 4.09432e-13 0 -2.71051e-14 -1.24738e-13 0 0 0 0)
(0 -9.7764e-14 0 -2.71051e-14 4.37641e-14 0 0 0 0)
(-2.71051e-14 1.95236e-14 0 0 1.37261e-14 0 0 0 0)
(-2.71051e-14 4.58694e-16 0 0 1.08955e-14 0 0 0 0)
(0 3.27545e-15 0 -2.71051e-14 1.55403e-14 0 0 0 0)
(0 -8.68802e-16 0 -2.71051e-14 1.29703e-14 0 0 0 0)
(0 -8.71719e-15 0 0 1.11789e-14 0 0 0 0)
(0 -5.50178e-15 0 0 2.00604e-14 0 0 0 0)
(-2.71051e-14 8.84606e-15 0 0 1.42736e-14 0 0 0 0)
(0 1.37555e-14 0 0 -9.73357e-16 0 0 0 0)
(2.71051e-14 -4.51464e-16 0 5.42101e-14 -5.09861e-15 0 0 0 0)
(0 -1.10546e-14 0 0 4.65042e-15 0 0 0 0)
(-5.42101e-14 2.47182e-15 0 0 2.13633e-14 0 0 0 0)
(0 1.19197e-14 0 0 6.34334e-15 0 0 0 0)
(0 3.53543e-15 0 0 -8.11804e-15 0 0 0 0)
(2.71051e-14 -4.18984e-15 0 0 -5.45628e-15 0 0 0 0)
(-2.71051e-14 1.94186e-17 0 -2.71051e-14 6.09229e-15 0 0 0 0)
)
;

boundaryField
{
    movingWall
    {
        type            extrapolatedCalculated;
        value           nonuniform List<tensor> 
20
(
(-7.86047e-13 -6.65887e-12 0 4.88498e-12 3.39502e-11 0 0 0 0)
(1.24683e-12 8.05145e-12 0 -1.68754e-12 -7.31466e-12 0 0 0 0)
(-3.52366e-13 -1.73727e-12 0 -2.22045e-13 1.74435e-12 0 0 0 0)
(0 4.09432e-13 0 -2.22045e-13 -3.65589e-13 0 0 0 0)
(0 -9.7764e-14 0 -2.22045e-13 1.0662e-13 0 0 0 0)
(-2.71051e-14 1.95236e-14 0 -2.22045e-13 2.54675e-14 0 0 0 0)
(-2.71051e-14 4.58694e-16 0 -1.33227e-13 2.8526e-14 0 0 0 0)
(0 3.27545e-15 0 -1.33227e-13 2.36327e-14 0 0 0 0)
(0 -8.68802e-16 0 -1.33227e-13 1.54242e-14 0 0 0 0)
(0 -8.71719e-15 0 -8.88178e-14 2.7108e-14 0 0 0 0)
(0 -5.50178e-15 0 -1.77636e-13 5.02929e-14 0 0 0 0)
(-2.71051e-14 8.84606e-15 0 0 4.91151e-14 0 0 0 0)
(0 1.37555e-14 0 -8.88178e-14 1.49087e-14 0 0 0 0)
(2.71051e-14 -4.51464e-16 0 -4.44089e-14 -5.90682e-15 0 0 0 0)
(0 -1.10546e-14 0 -8.88178e-14 1.67146e-14 0 0 0 0)
(-5.42101e-14 2.47182e-15 0 -8.88178e-14 3.83116e-14 0 0 0 0)
(0 1.19197e-14 0 8.88178e-14 6.82728e-15 0 0 0 0)
(0 3.53543e-15 0 0 -9.36725e-15 0 0 0 0)
(2.71051e-14 -4.18984e-15 0 0 -7.31445e-15 0 0 0 0)
(-2.71051e-14 1.94186e-17 0 -8.88178e-14 7.39213e-15 0 0 0 0)
)
;
    }
    fixedWalls
    {
        type            extrapolatedCalculated;
        value           nonuniform List<tensor> 
60
(
(-6.21725e-12 5.13104e-11 0 9.21572e-13 1.46546e-11 0 0 0 0)
(9.85878e-12 7.30821e-12 0 7.31836e-13 -2.54919e-11 0 0 0 0)
(-3.19744e-12 -5.06572e-11 0 -4.66207e-12 6.83981e-12 0 0 0 0)
(-8.79297e-12 3.46674e-11 0 3.52366e-12 1.30239e-11 0 0 0 0)
(1.08358e-11 1.43836e-12 0 1.0842e-12 -1.79925e-11 0 0 0 0)
(-4.44089e-12 -3.73026e-11 0 -2.57498e-12 1.19184e-11 0 0 0 0)
(5.77316e-13 4.9112e-11 0 1.68051e-12 5.07063e-12 0 0 0 0)
(2.26485e-12 -1.70201e-11 0 -6.77626e-13 -1.78924e-11 0 0 0 0)
(-2.22045e-12 -2.24574e-11 0 -5.14996e-13 1.43516e-11 0 0 0 0)
(2.22045e-13 4.03862e-11 0 8.67362e-13 -4.63678e-12 0 0 0 0)
(1.33227e-12 -4.10046e-11 0 -2.98156e-13 -2.65402e-12 0 0 0 0)
(-9.76996e-13 2.97701e-11 0 -3.52366e-13 1.03355e-11 0 0 0 0)
(0 3.37342e-13 0 1.00289e-12 -1.60842e-11 0 0 0 0)
(2.93099e-12 -3.45667e-11 0 -1.92446e-12 1.16925e-11 0 0 0 0)
(-7.72715e-12 4.71072e-11 0 8.94467e-13 2.15127e-12 0 0 0 0)
(6.57252e-12 -2.59616e-11 0 2.43945e-13 -1.51054e-11 0 0 0 0)
(-6.75016e-12 -1.33146e-11 0 -1.73472e-12 1.71026e-11 0 0 0 0)
(-2.66454e-13 4.24487e-11 0 4.33681e-12 -4.9102e-13 0 0 0 0)
(1.04805e-11 -1.52787e-11 0 -1.13841e-12 -1.90997e-11 0 0 0 0)
(-4.88498e-12 -3.39502e-11 0 -1.40946e-12 1.23072e-11 0 0 0 0)
(8.88178e-14 3.44099e-14 0 0 -1.99028e-14 0 0 0 0)
(-4.44089e-14 4.52014e-14 0 0 1.1658e-15 0 0 0 0)
(0 2.97467e-14 0 0 2.02314e-15 0 0 0 0)
(0 3.71088e-14 0 0 -2.87974e-15 0 0 0 0)
(-4.44089e-14 4.12657e-14 0 2.71051e-14 6.59087e-15 0 0 0 0)
(-4.44089e-14 1.07453e-14 0 0 1.43346e-14 0 0 0 0)
(0 -1.60727e-14 0 -2.71051e-14 4.0605e-15 0 0 0 0)
(0 -5.49665e-15 0 0 -2.57518e-15 0 0 0 0)
(0 -5.77194e-15 0 0 -3.42227e-15 0 0 0 0)
(-4.44089e-14 8.19243e-15 0 5.42101e-14 1.80339e-15 0 0 0 0)
(-1.77636e-13 -1.29855e-14 0 0 1.36828e-14 0 0 0 0)
(0 -4.65389e-14 0 -5.42101e-14 -2.49041e-15 0 0 0 0)
(8.88178e-14 -3.02383e-15 0 0 -2.19395e-14 0 0 0 0)
(0 4.12191e-14 0 2.71051e-14 -1.73655e-15 0 0 0 0)
(-8.88178e-14 3.92236e-15 0 0 1.47295e-14 0 0 0 0)
(0 -1.76988e-14 0 0 1.36368e-15 0 0 0 0)
(-4.44089e-14 -1.53237e-15 0 0 -6.12354e-15 0 0 0 0)
(0 6.79533e-15 0 -2.71051e-14 -4.62735e-15 0 0 0 0)
(0 1.6977e-14 0 2.71051e-14 -1.49201e-16 0 0 0 0)
(-8.88178e-14 7.39213e-15 0 -2.71051e-14 6.09229e-15 0 0 0 0)
(-1.02999e-12 1.00728e-11 0 -6.21725e-12 5.13104e-11 0 0 0 0)
(1.57209e-12 -1.21681e-11 0 2.08722e-12 -1.10191e-11 0 0 0 0)
(-4.87891e-13 2.61186e-12 0 0 2.63805e-12 0 0 0 0)
(5.42101e-14 -6.23137e-13 0 2.22045e-13 -5.71679e-13 0 0 0 0)
(0 1.53675e-13 0 2.22045e-13 1.45498e-13 0 0 0 0)
(-2.71051e-14 -2.04944e-14 0 2.22045e-13 4.30225e-14 0 0 0 0)
(-2.71051e-14 -4.65191e-15 0 1.77636e-13 6.35203e-14 0 0 0 0)
(0 -1.47957e-14 0 8.88178e-14 2.44148e-14 0 0 0 0)
(-2.71051e-14 -7.91315e-15 0 4.44089e-14 4.33743e-15 0 0 0 0)
(2.71051e-14 1.89491e-15 0 4.44089e-14 -7.23777e-15 0 0 0 0)
(0 8.43508e-15 0 1.77636e-13 1.19171e-14 0 0 0 0)
(-2.71051e-14 4.86386e-16 0 0 2.65026e-14 0 0 0 0)
(0 -2.3248e-15 0 8.88178e-14 1.38626e-14 0 0 0 0)
(-2.71051e-14 1.39237e-15 0 4.44089e-14 1.72034e-14 0 0 0 0)
(0 5.88799e-15 0 0 1.94321e-14 0 0 0 0)
(0 7.55991e-15 0 0 4.07553e-14 0 0 0 0)
(-5.42101e-14 -5.01254e-15 0 -8.88178e-14 4.96717e-14 0 0 0 0)
(5.42101e-14 -1.6883e-14 0 0 2.07052e-14 0 0 0 0)
(-5.42101e-14 -1.37788e-14 0 0 -1.78604e-14 0 0 0 0)
(5.42101e-14 1.30676e-14 0 -8.88178e-14 -3.44099e-14 0 0 0 0)
)
;
    }
    frontAndBack
    {
        type            empty;
    }
}


// ************************************************************************* //
