/*--------------------------------*- C++ -*----------------------------------*\
| =========                 |                                                 |
| \\      /  F ield         | OpenFOAM: The Open Source CFD Toolbox           |
|  \\    /   O peration     | Version:  2506                                  |
|   \\  /    A nd           | Website:  www.openfoam.com                      |
|    \\/     M anipulation  |                                                 |
\*---------------------------------------------------------------------------*/
FoamFile
{
    version     2.0;
    format      ascii;
    arch        "LSB;label=32;scalar=64";
    class       volScalarField;
    location    "6.5";
    object      initialResidual:Uy;
}
// * * * * * * * * * * * * * * * * * * * * * * * * * * * * * * * * * * * * * //

dimensions      [0 0 0 0 0 0 0];

internalField   nonuniform List<scalar> 
400
(
6.6193e-21
1.95894e-21
-1.78072e-21
-3.05774e-21
5.14666e-21
-5.50505e-22
-5.38431e-21
-2.90585e-21
2.0112e-21
-1.54027e-21
-1.81879e-21
-5.82745e-22
-5.90481e-22
2.22061e-21
-5.77153e-22
2.0377e-21
-9.22947e-22
-9.44291e-22
-3.93351e-21
5.02561e-22
-1.2784e-20
4.36233e-21
-1.0178e-20
-3.91565e-21
4.6047e-21
1.30961e-21
-2.89877e-21
-1.75792e-21
1.46865e-21
4.06074e-22
-5.02198e-21
-4.14216e-21
-2.18112e-21
1.89118e-21
-3.68038e-21
-6.78746e-21
-1.61971e-21
3.35507e-21
-5.08174e-21
-2.32442e-21
-1.79349e-20
-5.53265e-21
-1.16739e-21
-1.43915e-21
-1.9944e-21
3.74593e-21
5.41094e-21
3.68298e-21
5.21643e-21
3.0155e-21
-4.56028e-21
-3.97143e-21
-5.47036e-21
-1.35818e-20
-1.09422e-20
-7.59101e-21
1.19047e-21
1.85301e-21
-3.90867e-21
-2.52484e-21
-1.1506e-22
-9.83479e-21
3.61944e-21
-7.72352e-22
-6.85694e-21
-2.83321e-21
1.36102e-21
2.33077e-21
3.63284e-21
-4.02837e-22
-2.88285e-21
-8.45923e-21
-7.6303e-21
-9.07124e-21
-5.90263e-21
2.27212e-22
-3.76037e-21
-1.75783e-21
-3.62197e-21
-2.24402e-21
-5.6207e-21
-4.77943e-21
-5.01662e-22
1.79144e-21
-4.05995e-21
-4.01121e-21
-2.30765e-21
-1.3842e-21
-1.79084e-21
-2.88362e-21
-3.9285e-21
-7.90752e-21
-2.04216e-21
7.14389e-21
-1.18113e-21
-7.76032e-21
-9.49142e-21
6.57287e-22
-4.62606e-21
-2.7317e-21
-2.46648e-21
4.88677e-21
-1.0942e-21
-4.68255e-21
-4.55006e-21
-1.9243e-21
-4.16917e-21
-4.89945e-23
5.7832e-21
6.88198e-22
-9.28007e-21
-4.71322e-21
-3.35564e-21
-1.15303e-22
-3.90472e-21
-6.88481e-21
-2.28351e-21
-1.86686e-22
-2.80643e-21
3.96713e-22
2.21338e-20
-1.35573e-20
-5.72218e-21
-1.06602e-20
-4.33766e-21
7.42122e-21
2.07506e-21
-1.42869e-21
-3.65022e-22
4.90635e-21
-5.37433e-21
-6.5461e-21
-4.34858e-21
-3.42944e-21
-3.79037e-21
-6.57686e-21
7.33878e-22
-1.27344e-21
2.59171e-21
3.34741e-22
-3.41769e-23
-1.01425e-20
-6.14121e-21
-3.82154e-21
-4.10451e-21
-5.61572e-21
-2.67415e-21
-2.26603e-21
-5.92409e-21
4.20403e-21
1.50764e-20
-2.08364e-21
-1.22909e-20
-8.88285e-21
9.60155e-22
-2.73746e-22
-6.37225e-21
-7.30125e-21
-1.35624e-21
-6.3473e-22
-1.07173e-20
-7.31349e-21
-3.26992e-21
-5.45982e-21
-4.30743e-21
-8.22397e-21
-2.36888e-22
4.80885e-22
-2.6015e-21
-5.05069e-21
3.0188e-21
-3.56724e-21
-1.08837e-20
-1.05815e-20
-4.92132e-21
2.52212e-22
-3.96139e-21
-8.51408e-22
-4.73938e-21
-4.70495e-21
-1.08079e-20
-1.66009e-20
-6.16081e-21
-3.20488e-21
-6.50696e-22
3.87405e-21
1.70993e-21
-7.25554e-21
-4.21356e-21
-4.89301e-21
-1.14685e-20
-8.25194e-21
-1.40436e-21
2.9827e-22
-9.20929e-21
-6.77721e-21
-7.81267e-23
6.74529e-22
-8.25182e-21
-4.39903e-21
-2.20496e-22
-1.75079e-20
-1.1738e-20
-5.02374e-21
-5.37849e-21
-5.84082e-21
-7.78242e-21
-8.31302e-21
-5.64769e-21
-5.61482e-21
-7.79182e-21
-8.80108e-21
-5.6772e-21
-3.32859e-21
5.29545e-22
9.75423e-21
1.73945e-21
-8.85628e-21
-1.01367e-20
4.37847e-22
2.04203e-20
-1.99182e-20
-1.37926e-20
-1.6391e-20
-1.12942e-20
-6.65606e-21
-1.30352e-21
-1.6359e-21
-8.04318e-21
-1.05464e-20
-8.97254e-21
-1.07034e-21
1.13564e-22
-9.13611e-21
-1.53857e-21
5.85063e-21
-7.16862e-22
-3.17878e-21
-1.13392e-21
3.77219e-22
-4.61777e-20
5.26525e-21
-1.15613e-20
-4.23544e-21
-9.94018e-21
-1.37607e-20
-7.41378e-21
-5.63853e-21
-7.58812e-21
-7.49844e-21
-1.55339e-21
6.17937e-21
9.27886e-21
-1.844e-21
-5.59817e-21
-9.98266e-21
-8.10166e-21
2.37024e-22
5.12904e-21
1.14974e-21
-6.30122e-21
-1.32829e-20
-1.04459e-21
-1.18799e-22
-8.26287e-21
-1.34169e-20
-1.27923e-20
-5.36186e-21
-1.68076e-21
-2.66087e-21
-1.06549e-21
1.40856e-22
3.14438e-21
2.6155e-21
-1.96631e-21
-7.54143e-21
-3.25152e-21
-1.93644e-21
1.41207e-23
2.34196e-21
2.74336e-20
-2.27034e-20
-5.19651e-21
-1.19408e-20
-1.05231e-20
-5.78204e-21
-8.78375e-21
-7.16133e-21
9.20835e-22
5.6692e-22
-3.9923e-21
-8.36485e-21
-1.06814e-20
6.58004e-22
7.33798e-21
1.14269e-21
1.12702e-21
-3.18554e-22
2.78213e-23
1.23671e-21
-3.28481e-20
-4.16039e-21
-1.22847e-20
-1.0932e-20
-5.66561e-21
-7.01925e-21
-8.04503e-21
-9.49089e-21
-6.46544e-21
-2.74103e-21
-9.0008e-22
1.7817e-22
-2.24271e-21
2.41412e-21
3.29948e-21
1.40772e-22
8.04517e-22
3.29647e-21
5.73716e-21
1.06282e-21
-9.0401e-21
-7.82629e-21
-6.41001e-21
-5.42782e-21
-5.1506e-21
-1.00535e-20
-7.52706e-21
-4.26218e-21
-1.0446e-20
-8.379e-21
-5.32959e-21
2.6679e-21
6.46908e-21
5.47134e-21
2.61762e-21
3.73167e-21
2.1313e-21
1.57058e-21
2.93683e-21
1.59067e-21
1.24778e-20
-8.77869e-21
-2.5246e-21
-3.85712e-21
-3.91457e-21
-2.24894e-21
-5.08156e-21
-5.35985e-21
-7.17163e-21
-6.34611e-21
-5.21094e-21
-2.70114e-21
3.64891e-21
6.95276e-21
6.54614e-21
3.62344e-21
3.3332e-21
3.86e-21
1.70391e-21
-6.19427e-22
1.38133e-21
-2.11745e-21
-2.90538e-21
-1.75535e-21
-4.18988e-21
1.7925e-21
-3.82442e-22
-2.03192e-21
-3.53195e-21
-2.56381e-22
1.65151e-21
8.865e-22
7.28414e-21
8.63805e-21
-1.65274e-21
-6.50768e-21
-1.14418e-21
1.06343e-20
6.13322e-21
-2.18448e-21
1.26229e-22
-7.21064e-22
-5.05785e-22
6.14392e-22
-3.93402e-21
-6.24631e-22
1.50976e-21
1.83574e-21
-1.16802e-21
-4.19841e-22
1.2734e-23
1.10755e-21
5.53176e-21
4.34062e-21
-2.76426e-21
-3.08089e-21
-2.67476e-21
5.92358e-21
4.19848e-21
-8.35433e-22
)
;

boundaryField
{
    movingWall
    {
        type            zeroGradient;
    }
    fixedWalls
    {
        type            zeroGradient;
    }
    frontAndBack
    {
        type            empty;
    }
}


// ************************************************************************* //
