/*--------------------------------*- C++ -*----------------------------------*\
| =========                 |                                                 |
| \\      /  F ield         | OpenFOAM: The Open Source CFD Toolbox           |
|  \\    /   O peration     | Version:  2506                                  |
|   \\  /    A nd           | Website:  www.openfoam.com                      |
|    \\/     M anipulation  |                                                 |
\*---------------------------------------------------------------------------*/
FoamFile
{
    version     2.0;
    format      ascii;
    arch        "LSB;label=32;scalar=64";
    class       volScalarField;
    location    "6.5";
    object      initialResidual:epsilon;
}
// * * * * * * * * * * * * * * * * * * * * * * * * * * * * * * * * * * * * * //

dimensions      [0 0 0 0 0 0 0];

internalField   nonuniform List<scalar> 
400
(
0
0
0
0
0
0
0
0
0
0
0
0
0
0
0
0
0
0
0
0
0
-5.00752e-13
-4.99204e-13
-4.99816e-13
-5.00695e-13
-5.01244e-13
-5.01735e-13
-5.02389e-13
-5.02925e-13
-5.03462e-13
-5.04176e-13
-5.04548e-13
-5.05434e-13
-5.05684e-13
-5.06683e-13
-5.06869e-13
-5.07913e-13
-5.08072e-13
-1.01646e-12
0
0
-5.68943e-13
-5.6699e-13
-5.67761e-13
-5.68826e-13
-5.69511e-13
-5.70056e-13
-5.70882e-13
-5.7148e-13
-5.72148e-13
-5.72983e-13
-5.73422e-13
-5.74488e-13
-5.74753e-13
-5.75973e-13
-5.76142e-13
-5.77423e-13
-5.77547e-13
-1.15661e-12
0
0
-6.32111e-13
-6.3006e-13
-6.30895e-13
-6.32096e-13
-6.32869e-13
-6.33507e-13
-6.34431e-13
-6.35129e-13
-6.3588e-13
-6.36838e-13
-6.37336e-13
-6.38551e-13
-6.38857e-13
-6.40243e-13
-6.40442e-13
-6.41897e-13
-6.42045e-13
-1.28576e-12
0
0
-6.77774e-13
-6.75447e-13
-6.76399e-13
-6.77724e-13
-6.78569e-13
-6.7926e-13
-6.80279e-13
-6.81034e-13
-6.81863e-13
-6.829e-13
-6.83455e-13
-6.84775e-13
-6.85118e-13
-6.86626e-13
-6.86851e-13
-6.88436e-13
-6.88606e-13
-1.37902e-12
0
0
-7.06391e-13
-7.04111e-13
-7.05065e-13
-7.06445e-13
-7.07342e-13
-7.08069e-13
-7.09144e-13
-7.09942e-13
-7.10815e-13
-7.11911e-13
-7.12497e-13
-7.13884e-13
-7.14258e-13
-7.15838e-13
-7.16088e-13
-7.17752e-13
-7.1794e-13
-1.43778e-12
0
0
-7.23376e-13
-7.20977e-13
-7.21983e-13
-7.23415e-13
-7.24329e-13
-7.25096e-13
-7.26189e-13
-7.27024e-13
-7.27918e-13
-7.29052e-13
-7.29657e-13
-7.31087e-13
-7.31472e-13
-7.33102e-13
-7.33361e-13
-7.35075e-13
-7.35274e-13
-1.47251e-12
0
0
-7.33437e-13
-7.31028e-13
-7.32041e-13
-7.33503e-13
-7.34424e-13
-7.35213e-13
-7.3632e-13
-7.37177e-13
-7.38081e-13
-7.39244e-13
-7.39851e-13
-7.41319e-13
-7.417e-13
-7.4337e-13
-7.43627e-13
-7.45376e-13
-7.45576e-13
-1.49316e-12
0
0
-7.39946e-13
-7.37498e-13
-7.38533e-13
-7.40004e-13
-7.40948e-13
-7.41735e-13
-7.42864e-13
-7.43721e-13
-7.44645e-13
-7.4581e-13
-7.46437e-13
-7.47909e-13
-7.48307e-13
-7.49983e-13
-7.50254e-13
-7.52015e-13
-7.52224e-13
-1.50647e-12
0
0
-7.44809e-13
-7.42304e-13
-7.43361e-13
-7.44848e-13
-7.458e-13
-7.46589e-13
-7.47731e-13
-7.48591e-13
-7.49525e-13
-7.50703e-13
-7.51331e-13
-7.52821e-13
-7.53218e-13
-7.54914e-13
-7.55181e-13
-7.56963e-13
-7.5717e-13
-1.51638e-12
0
0
-7.49045e-13
-7.46485e-13
-7.47562e-13
-7.49066e-13
-7.50022e-13
-7.50817e-13
-7.51968e-13
-7.52834e-13
-7.53774e-13
-7.54962e-13
-7.55594e-13
-7.57095e-13
-7.57494e-13
-7.59203e-13
-7.59472e-13
-7.61267e-13
-7.61475e-13
-1.52501e-12
0
0
-7.53121e-13
-7.50657e-13
-7.51704e-13
-7.53214e-13
-7.54167e-13
-7.54985e-13
-7.56127e-13
-7.57012e-13
-7.57952e-13
-7.59148e-13
-7.59787e-13
-7.61292e-13
-7.61701e-13
-7.63414e-13
-7.63694e-13
-7.65492e-13
-7.65711e-13
-1.53348e-12
0
0
-7.57545e-13
-7.55017e-13
-7.56089e-13
-7.57604e-13
-7.58575e-13
-7.59384e-13
-7.60547e-13
-7.61433e-13
-7.62382e-13
-7.63588e-13
-7.64231e-13
-7.65748e-13
-7.66159e-13
-7.67885e-13
-7.68165e-13
-7.6998e-13
-7.70196e-13
-1.54247e-12
0
0
-7.6235e-13
-7.59896e-13
-7.60946e-13
-7.62469e-13
-7.63442e-13
-7.6427e-13
-7.6543e-13
-7.66331e-13
-7.67283e-13
-7.68499e-13
-7.69147e-13
-7.70677e-13
-7.7109e-13
-7.72832e-13
-7.73114e-13
-7.74942e-13
-7.75163e-13
-1.55242e-12
0
0
-7.67901e-13
-7.65322e-13
-7.66419e-13
-7.67962e-13
-7.68947e-13
-7.69772e-13
-7.70952e-13
-7.71855e-13
-7.72819e-13
-7.74047e-13
-7.74697e-13
-7.76246e-13
-7.76659e-13
-7.78419e-13
-7.78702e-13
-7.80548e-13
-7.80771e-13
-1.56365e-12
0
0
-7.74059e-13
-7.71513e-13
-7.72602e-13
-7.74161e-13
-7.75149e-13
-7.75995e-13
-7.77176e-13
-7.78095e-13
-7.79065e-13
-7.80302e-13
-7.80965e-13
-7.8252e-13
-7.82947e-13
-7.84715e-13
-7.8501e-13
-7.86866e-13
-7.87098e-13
-1.57632e-12
0
0
-7.80805e-13
-7.78246e-13
-7.79341e-13
-7.80918e-13
-7.81912e-13
-7.8277e-13
-7.83961e-13
-7.84894e-13
-7.8587e-13
-7.87128e-13
-7.87792e-13
-7.89369e-13
-7.89796e-13
-7.91588e-13
-7.9188e-13
-7.93763e-13
-7.93991e-13
-1.59013e-12
0
0
-7.8755e-13
-7.8498e-13
-7.86093e-13
-7.87676e-13
-7.88683e-13
-7.89547e-13
-7.90751e-13
-7.91694e-13
-7.92677e-13
-7.9395e-13
-7.94619e-13
-7.96212e-13
-7.96647e-13
-7.9845e-13
-7.98757e-13
-8.00644e-13
-8.00893e-13
-1.60393e-12
0
0
-7.958e-13
-7.9261e-13
-7.93816e-13
-7.95422e-13
-7.96482e-13
-7.9721e-13
-7.98516e-13
-7.9933e-13
-8.00385e-13
-8.01596e-13
-8.02273e-13
-8.03872e-13
-8.04265e-13
-8.06128e-13
-8.06357e-13
-8.08337e-13
-8.08484e-13
-1.61738e-12
0
0
0
0
0
0
0
0
0
0
0
0
0
0
0
0
0
0
0
0
0
)
;

boundaryField
{
    movingWall
    {
        type            zeroGradient;
    }
    fixedWalls
    {
        type            zeroGradient;
    }
    frontAndBack
    {
        type            empty;
    }
}


// ************************************************************************* //
