/*--------------------------------*- C++ -*----------------------------------*\
| =========                 |                                                 |
| \\      /  F ield         | OpenFOAM: The Open Source CFD Toolbox           |
|  \\    /   O peration     | Version:  2506                                  |
|   \\  /    A nd           | Website:  www.openfoam.com                      |
|    \\/     M anipulation  |                                                 |
\*---------------------------------------------------------------------------*/
FoamFile
{
    version     2.0;
    format      ascii;
    arch        "LSB;label=32;scalar=64";
    class       volScalarField;
    location    "6.5";
    object      initialResidual:p;
}
// * * * * * * * * * * * * * * * * * * * * * * * * * * * * * * * * * * * * * //

dimensions      [0 0 0 0 0 0 0];

internalField   nonuniform List<scalar> 
400
(
-3.38815e-20
-4.98761e-21
1.86901e-20
4.80624e-21
2.76551e-21
-9.83321e-22
-1.06907e-20
-1.98871e-21
7.37834e-21
1.10151e-20
-1.64973e-20
-8.54358e-22
-5.55243e-22
8.23205e-21
-9.36636e-21
-8.24136e-21
-1.45764e-20
1.35554e-20
3.19839e-21
1.20424e-26
-4.74334e-20
2.40292e-20
1.96089e-21
2.00622e-20
1.07598e-21
8.0264e-21
8.26715e-21
8.78317e-21
6.95033e-21
-2.00783e-20
-4.28248e-21
-5.27724e-21
-5.55104e-21
-6.41831e-21
-3.27729e-21
-1.09133e-20
6.1933e-21
-1.40949e-20
2.5814e-20
-2.03288e-20
-2.0329e-20
1.5246e-20
7.7208e-21
1.94277e-20
-8.4395e-21
8.82376e-21
-3.23924e-21
-5.32213e-21
9.00427e-21
-8.82081e-21
7.75726e-21
-6.10287e-21
-6.13168e-21
4.82894e-21
-8.61794e-21
-3.41921e-21
-7.61189e-21
5.55799e-21
-3.74057e-21
1.35525e-20
-6.77628e-21
1.10186e-20
6.052e-21
5.30281e-21
-3.81277e-21
-2.50288e-21
1.2745e-20
4.12177e-22
-8.72269e-21
-1.78983e-20
2.86861e-21
2.81256e-22
8.88399e-21
-2.74858e-21
-9.53809e-21
1.11868e-20
2.86974e-21
-1.94827e-21
5.23193e-21
2.87902e-26
-1.35526e-20
-8.32203e-21
-1.68525e-21
4.33468e-21
1.10741e-20
1.23213e-20
-8.93058e-21
-1.63055e-21
-2.94253e-22
3.78935e-21
1.51431e-21
-1.00204e-20
1.23919e-20
7.65012e-22
2.36797e-20
-5.68299e-21
-3.16782e-20
1.97512e-20
3.51537e-21
-6.77626e-21
6.77617e-21
-9.72586e-21
3.62034e-21
2.3231e-21
-2.19408e-21
-7.11053e-21
6.44806e-21
7.49227e-22
-1.22628e-20
-1.36198e-21
-1.07882e-22
-1.17492e-20
1.69368e-20
1.00357e-20
3.28733e-21
-1.04494e-20
3.38029e-22
6.82251e-21
1.83954e-22
3.11165e-26
6.77606e-21
-9.11343e-21
4.45449e-22
-5.95909e-21
-9.67115e-21
-1.0906e-20
7.65767e-21
5.31354e-21
5.14167e-21
3.46018e-21
-7.30463e-22
1.40533e-20
7.52296e-21
4.31671e-21
-2.06726e-21
2.23856e-21
4.35774e-21
-9.57586e-21
8.01176e-21
-6.77627e-21
-2.03285e-20
1.93733e-22
-1.0821e-20
-3.25074e-21
3.10647e-20
-2.01946e-20
-1.85253e-20
-1.53688e-20
1.20078e-20
-7.56111e-21
4.9208e-21
3.43549e-21
4.545e-21
-1.54086e-20
-2.60691e-21
7.04043e-21
-2.46626e-20
1.70924e-20
-3.71504e-21
-6.77625e-21
6.77597e-21
-8.50702e-21
-3.16727e-21
-3.37639e-21
-2.74724e-21
-8.1283e-21
2.12346e-20
-9.67848e-21
2.8989e-21
-4.79913e-21
-1.46393e-20
-7.63877e-21
8.50974e-21
1.68653e-20
1.42372e-21
-4.16669e-21
-8.84775e-21
-1.49242e-20
4.67098e-21
-1.59977e-26
2.03288e-20
-1.74331e-20
-2.08289e-20
-3.53782e-21
3.51491e-21
3.96647e-21
1.93699e-21
1.33138e-20
-5.13477e-21
-6.57494e-21
-1.98618e-20
2.59274e-21
1.62839e-20
4.45873e-21
-1.34174e-21
1.35676e-20
-2.70803e-21
-5.4452e-21
-6.92299e-21
6.77627e-21
1.35524e-20
-1.64178e-20
2.54654e-21
-1.57633e-20
1.4246e-20
2.09733e-21
-1.96513e-20
-6.24876e-21
-1.3585e-21
-2.33352e-22
6.25535e-21
-5.55466e-21
2.53534e-20
-2.02237e-21
-1.26398e-20
3.74369e-21
7.01107e-21
1.65761e-20
-3.2759e-21
-6.77628e-21
6.77614e-21
-6.99981e-21
-3.84237e-21
-1.05101e-20
-4.19445e-21
-9.4622e-21
-4.27662e-21
1.77062e-21
7.6426e-21
1.44121e-21
5.51268e-21
-4.7286e-21
1.36729e-20
-1.13974e-20
1.73467e-20
1.11849e-20
-1.74662e-20
-1.39374e-20
1.59302e-20
-6.52872e-27
-1.35525e-20
6.59822e-21
-1.38572e-20
1.55491e-20
-8.93813e-22
1.04546e-20
1.33408e-20
-4.75454e-21
-1.15851e-20
4.37846e-21
-6.45938e-21
9.80405e-21
3.15896e-21
-8.54221e-21
8.35599e-21
5.16152e-22
-2.74397e-21
1.37582e-22
-4.8157e-21
6.77623e-21
-6.77651e-21
-4.19218e-21
1.62756e-20
-3.0644e-22
-3.42608e-21
5.942e-21
-1.82209e-21
3.88429e-21
7.81712e-21
-8.30436e-21
-9.21499e-21
1.08512e-20
-8.7127e-21
1.41215e-21
2.12623e-20
-9.61131e-21
-6.56201e-22
1.98753e-23
-7.17138e-21
-1.44203e-26
6.77622e-21
-4.30382e-21
-1.60257e-20
-1.03923e-20
1.34235e-20
-5.09604e-22
5.91739e-22
1.37296e-20
-3.45708e-21
-2.23821e-20
-2.0855e-21
-3.72096e-21
9.97102e-21
-6.30861e-21
2.58302e-21
3.14627e-21
2.26029e-21
-4.80487e-21
8.86246e-21
-1.73256e-26
-6.77617e-21
-8.18791e-21
4.34283e-21
5.68359e-21
-6.78991e-21
2.64244e-20
-1.31355e-20
-5.66622e-21
1.39756e-21
4.08365e-21
5.79321e-21
9.80887e-21
3.58554e-21
4.82014e-21
1.0272e-20
6.84304e-21
-2.64955e-20
8.52897e-21
9.72382e-21
-2.00115e-26
2.71047e-20
-5.34389e-21
2.3076e-21
-4.18573e-21
1.54568e-21
-1.34987e-22
-1.37965e-20
7.84913e-21
6.22605e-21
-5.1923e-21
-8.94151e-21
1.30801e-21
1.22741e-20
4.52854e-21
-1.0346e-20
-2.70903e-21
4.13053e-21
2.19034e-21
7.41529e-23
-6.77629e-21
2.03287e-20
-1.17334e-20
-2.42358e-21
3.14202e-21
3.98372e-21
6.1149e-21
1.03123e-20
-3.78208e-21
1.01537e-20
5.37772e-21
7.24906e-22
1.59388e-20
-2.45227e-21
-2.15736e-21
2.17407e-21
7.64607e-21
-1.86529e-20
4.66704e-21
-4.29249e-21
-2.31704e-26
-6.77618e-21
1.26938e-20
4.93954e-21
-2.33985e-22
-2.22153e-21
-1.92377e-22
7.72484e-21
6.61133e-21
1.29992e-20
-5.85911e-21
1.91283e-21
3.24869e-21
5.22801e-21
-1.73814e-20
-9.47745e-21
-2.16737e-21
1.3749e-21
-8.32851e-21
9.45286e-21
-1.75956e-26
6.77609e-21
1.05023e-25
6.77622e-21
-6.77629e-21
6.77624e-21
-2.04839e-26
-6.77629e-21
2.03288e-20
-1.9147e-26
-2.28631e-26
-6.77629e-21
-1.79696e-26
-2.19489e-26
-2.03288e-20
-2.035e-26
-1.77343e-26
6.77626e-21
-6.77628e-21
-2.03288e-20
3.45028e-27
)
;

boundaryField
{
    movingWall
    {
        type            zeroGradient;
    }
    fixedWalls
    {
        type            zeroGradient;
    }
    frontAndBack
    {
        type            empty;
    }
}


// ************************************************************************* //
