/*--------------------------------*- C++ -*----------------------------------*\
| =========                 |                                                 |
| \\      /  F ield         | OpenFOAM: The Open Source CFD Toolbox           |
|  \\    /   O peration     | Version:  2506                                  |
|   \\  /    A nd           | Website:  www.openfoam.com                      |
|    \\/     M anipulation  |                                                 |
\*---------------------------------------------------------------------------*/
FoamFile
{
    version     2.0;
    format      ascii;
    arch        "LSB;label=32;scalar=64";
    class       volScalarField;
    location    "6.5";
    object      initialResidual:k;
}
// * * * * * * * * * * * * * * * * * * * * * * * * * * * * * * * * * * * * * //

dimensions      [0 0 0 0 0 0 0];

internalField   nonuniform List<scalar> 
400
(
-7.16555e-13
-7.16989e-13
-7.16308e-13
-7.17163e-13
-7.15978e-13
-7.17497e-13
-7.1545e-13
-7.18567e-13
-7.14396e-13
-7.19131e-13
-7.14253e-13
-7.18844e-13
-7.14882e-13
-7.17963e-13
-7.15891e-13
-7.17066e-13
-7.16506e-13
-7.16719e-13
-7.1666e-13
-7.16673e-13
-7.78424e-13
-7.77965e-13
-7.78222e-13
-7.80771e-13
-7.76181e-13
-7.7987e-13
-7.76645e-13
-7.79248e-13
-7.77044e-13
-7.79029e-13
-7.76945e-13
-7.7948e-13
-7.76391e-13
-7.7981e-13
-7.76187e-13
-7.79246e-13
-7.76687e-13
-7.7793e-13
-7.77731e-13
-7.77891e-13
-8.63077e-13
-8.59314e-13
-8.65637e-13
-8.62749e-13
-8.63102e-13
-8.62354e-13
-8.62738e-13
-8.62249e-13
-8.62493e-13
-8.62507e-13
-8.62612e-13
-8.6257e-13
-8.62467e-13
-8.62595e-13
-8.62276e-13
-8.62103e-13
-8.62473e-13
-8.6225e-13
-8.62361e-13
-8.62303e-13
-9.36241e-13
-9.35486e-13
-9.36808e-13
-9.35867e-13
-9.35838e-13
-9.38233e-13
-9.33892e-13
-9.37998e-13
-9.33533e-13
-9.39154e-13
-9.32491e-13
-9.39305e-13
-9.32318e-13
-9.3823e-13
-9.33126e-13
-9.37056e-13
-9.3416e-13
-9.35485e-13
-9.35418e-13
-9.35555e-13
-9.86827e-13
-9.82496e-13
-9.89661e-13
-9.86599e-13
-9.86906e-13
-9.86117e-13
-9.86679e-13
-9.86035e-13
-9.86582e-13
-9.85869e-13
-9.86298e-13
-9.85967e-13
-9.86303e-13
-9.85852e-13
-9.86242e-13
-9.85756e-13
-9.86131e-13
-9.85976e-13
-9.86047e-13
-9.85952e-13
-1.01722e-12
-1.01881e-12
-1.01691e-12
-1.01559e-12
-1.01783e-12
-1.01646e-12
-1.01708e-12
-1.01704e-12
-1.01681e-12
-1.01647e-12
-1.01675e-12
-1.0161e-12
-1.01663e-12
-1.01643e-12
-1.01685e-12
-1.01647e-12
-1.01684e-12
-1.01655e-12
-1.01656e-12
-1.01648e-12
-1.03485e-12
-1.03244e-12
-1.03653e-12
-1.03441e-12
-1.03464e-12
-1.03537e-12
-1.0341e-12
-1.03395e-12
-1.035e-12
-1.03375e-12
-1.03459e-12
-1.03382e-12
-1.03424e-12
-1.03394e-12
-1.03422e-12
-1.03438e-12
-1.03383e-12
-1.03393e-12
-1.034e-12
-1.03399e-12
-1.04528e-12
-1.04371e-12
-1.04507e-12
-1.04974e-12
-1.04051e-12
-1.04896e-12
-1.04063e-12
-1.04817e-12
-1.04086e-12
-1.04895e-12
-1.03983e-12
-1.04954e-12
-1.03944e-12
-1.04808e-12
-1.04086e-12
-1.04616e-12
-1.0424e-12
-1.0445e-12
-1.04378e-12
-1.04424e-12
-1.05177e-12
-1.04816e-12
-1.05464e-12
-1.05096e-12
-1.05172e-12
-1.05141e-12
-1.05174e-12
-1.05086e-12
-1.05166e-12
-1.0508e-12
-1.05126e-12
-1.05098e-12
-1.05108e-12
-1.05068e-12
-1.05111e-12
-1.05051e-12
-1.05102e-12
-1.05085e-12
-1.05092e-12
-1.05083e-12
-1.05689e-12
-1.05191e-12
-1.06013e-12
-1.05649e-12
-1.05697e-12
-1.05598e-12
-1.0565e-12
-1.05574e-12
-1.05613e-12
-1.05596e-12
-1.05615e-12
-1.05597e-12
-1.0562e-12
-1.05591e-12
-1.056e-12
-1.05551e-12
-1.05607e-12
-1.05573e-12
-1.05587e-12
-1.05579e-12
-1.0612e-12
-1.05628e-12
-1.06458e-12
-1.06089e-12
-1.0613e-12
-1.0603e-12
-1.06089e-12
-1.06003e-12
-1.06044e-12
-1.06044e-12
-1.06061e-12
-1.0603e-12
-1.0606e-12
-1.06008e-12
-1.06056e-12
-1.05985e-12
-1.06048e-12
-1.06013e-12
-1.06025e-12
-1.06017e-12
-1.06541e-12
-1.06436e-12
-1.06566e-12
-1.06766e-12
-1.06332e-12
-1.06511e-12
-1.06532e-12
-1.06414e-12
-1.06525e-12
-1.06453e-12
-1.06486e-12
-1.06529e-12
-1.06404e-12
-1.06581e-12
-1.06355e-12
-1.06557e-12
-1.0637e-12
-1.06444e-12
-1.06447e-12
-1.06452e-12
-1.07012e-12
-1.06671e-12
-1.07315e-12
-1.06929e-12
-1.07009e-12
-1.06928e-12
-1.06973e-12
-1.06946e-12
-1.06973e-12
-1.06939e-12
-1.06975e-12
-1.06919e-12
-1.06956e-12
-1.06879e-12
-1.06944e-12
-1.06888e-12
-1.06937e-12
-1.06918e-12
-1.06924e-12
-1.06915e-12
-1.07525e-12
-1.07459e-12
-1.07559e-12
-1.07461e-12
-1.07508e-12
-1.07546e-12
-1.07454e-12
-1.07404e-12
-1.07505e-12
-1.07419e-12
-1.07468e-12
-1.07505e-12
-1.07396e-12
-1.07534e-12
-1.07359e-12
-1.07494e-12
-1.0737e-12
-1.07431e-12
-1.0742e-12
-1.07429e-12
-1.08122e-12
-1.07625e-12
-1.08475e-12
-1.08064e-12
-1.08113e-12
-1.08021e-12
-1.08056e-12
-1.08039e-12
-1.08056e-12
-1.08051e-12
-1.08053e-12
-1.08015e-12
-1.08046e-12
-1.08022e-12
-1.08028e-12
-1.07996e-12
-1.08026e-12
-1.08002e-12
-1.08018e-12
-1.0801e-12
-1.08778e-12
-1.08514e-12
-1.0891e-12
-1.08746e-12
-1.08735e-12
-1.08806e-12
-1.08683e-12
-1.08656e-12
-1.08783e-12
-1.08629e-12
-1.087e-12
-1.08678e-12
-1.08692e-12
-1.08722e-12
-1.08651e-12
-1.08733e-12
-1.08635e-12
-1.08661e-12
-1.08669e-12
-1.08669e-12
-1.09505e-12
-1.09287e-12
-1.09558e-12
-1.09692e-12
-1.09249e-12
-1.09703e-12
-1.09187e-12
-1.0962e-12
-1.09241e-12
-1.09571e-12
-1.09257e-12
-1.09633e-12
-1.09181e-12
-1.09683e-12
-1.09137e-12
-1.09624e-12
-1.09188e-12
-1.09397e-12
-1.09364e-12
-1.09391e-12
-1.1022e-12
-1.09836e-12
-1.10532e-12
-1.10165e-12
-1.10217e-12
-1.10141e-12
-1.10173e-12
-1.10151e-12
-1.10164e-12
-1.10251e-12
-1.10061e-12
-1.10221e-12
-1.10056e-12
-1.10181e-12
-1.10083e-12
-1.10144e-12
-1.10098e-12
-1.10107e-12
-1.10123e-12
-1.10118e-12
-1.10861e-12
-1.10308e-12
-1.11172e-12
-1.10809e-12
-1.10841e-12
-1.10766e-12
-1.10781e-12
-1.10747e-12
-1.1073e-12
-1.11188e-12
-1.10417e-12
-1.10995e-12
-1.10518e-12
-1.1087e-12
-1.10611e-12
-1.10828e-12
-1.10656e-12
-1.10724e-12
-1.1073e-12
-1.10733e-12
-1.11254e-12
-1.10829e-12
-1.11438e-12
-1.10684e-12
-1.11543e-12
-1.10633e-12
-1.11533e-12
-1.10693e-12
-1.11424e-12
-1.10841e-12
-1.11253e-12
-1.1101e-12
-1.11126e-12
-1.11078e-12
-1.11096e-12
-1.11091e-12
-1.11092e-12
-1.11092e-12
-1.11092e-12
-1.11092e-12
)
;

boundaryField
{
    movingWall
    {
        type            zeroGradient;
    }
    fixedWalls
    {
        type            zeroGradient;
    }
    frontAndBack
    {
        type            empty;
    }
}


// ************************************************************************* //
