/*--------------------------------*- C++ -*----------------------------------*\
| =========                 |                                                 |
| \\      /  F ield         | OpenFOAM: The Open Source CFD Toolbox           |
|  \\    /   O peration     | Version:  2506                                  |
|   \\  /    A nd           | Website:  www.openfoam.com                      |
|    \\/     M anipulation  |                                                 |
\*---------------------------------------------------------------------------*/
FoamFile
{
    version     2.0;
    format      ascii;
    arch        "LSB;label=32;scalar=64";
    class       volScalarField;
    location    "6.5";
    object      Lambda2Field;
}
// * * * * * * * * * * * * * * * * * * * * * * * * * * * * * * * * * * * * * //

dimensions      [0 0 -2 0 0 0 0];

internalField   nonuniform List<scalar> 
400
(
1.03437e-23
6.09946e-24
9.64483e-26
0
4.16538e-27
-3.76319e-28
4.82504e-28
0
0
5.3782e-29
0
9.44683e-29
0
1.22679e-28
-4.30359e-28
-3.31198e-28
4.77532e-28
1.38566e-29
2.13545e-28
3.96122e-28
3.9702e-24
6.96337e-24
5.66436e-25
8.26003e-27
0
-8.90377e-28
4.95789e-28
1.35396e-30
1.70737e-28
5.34655e-28
-4.63056e-29
0
-1.72688e-28
0
0
0
6.97299e-29
0
7.15229e-29
0
4.68038e-23
1.61368e-23
3.87282e-25
-9.62956e-27
6.40288e-27
-6.93392e-28
0
0
-9.0821e-28
4.31376e-29
0
-2.51412e-28
-1.03826e-27
0
-2.10785e-28
0
1.43466e-29
-4.48184e-28
0
0
2.65574e-23
1.12807e-23
5.92965e-25
0
8.45398e-27
0
8.37435e-28
1.06704e-27
0
1.08002e-27
0
8.60389e-28
2.84764e-28
4.2046e-28
2.25966e-28
0
5.77557e-28
0
2.16629e-28
0
4.27555e-24
6.80859e-24
5.19026e-25
1.7224e-26
0
-3.09493e-27
-9.51757e-28
2.21916e-28
1.26259e-27
7.56074e-28
6.23577e-28
2.69084e-30
0
0
6.80869e-29
-3.50653e-27
2.52417e-28
0
0
4.77816e-28
1.92487e-23
7.36085e-24
2.83694e-25
2.42368e-26
-6.13681e-27
3.98791e-28
0
7.95123e-28
5.55481e-28
1.13362e-27
7.41042e-30
8.92113e-29
9.55309e-30
-2.0221e-29
-1.83394e-28
0
2.61798e-28
1.41827e-28
3.49976e-28
2.0548e-28
1.62333e-23
7.60454e-24
-7.9108e-26
6.47039e-26
-1.51376e-26
1.80193e-27
-2.16719e-28
0
-1.1406e-27
0
4.44319e-28
2.6886e-28
7.19645e-29
1.85764e-28
6.65784e-28
5.51594e-28
0
-5.33737e-28
0
4.17795e-28
2.34764e-24
1.18645e-24
9.50755e-26
0
2.45353e-27
0
0
0
-3.13308e-28
-1.24891e-27
0
1.1522e-27
1.28723e-28
0
1.10946e-28
3.39006e-28
-2.77076e-29
8.40533e-29
1.203e-28
0
2.40497e-24
1.65187e-24
0
2.08575e-26
-1.21365e-27
0
6.0043e-28
4.16077e-28
-1.84345e-27
0
3.32574e-28
3.17959e-28
-8.42716e-28
1.92652e-29
6.63509e-28
0
-5.08043e-29
1.2403e-28
0
1.17119e-29
6.79007e-24
3.38931e-24
-6.11002e-26
2.58707e-26
-4.4148e-27
-1.69738e-28
-3.82178e-28
1.37983e-27
3.65706e-28
-5.07869e-28
1.89288e-30
-3.75132e-28
0
0
3.05072e-28
0
-7.1364e-29
4.64165e-29
4.0964e-29
1.55706e-28
2.41615e-24
3.56827e-24
-1.59524e-25
5.59937e-26
-7.63821e-27
2.42429e-27
-7.30035e-28
1.19521e-28
8.39983e-28
-2.3757e-28
6.88672e-28
2.81718e-29
0
0
-1.29873e-27
0
6.78782e-29
0
5.33775e-29
1.8722e-28
0
3.35916e-25
0
0
7.34684e-28
0
0
-1.19662e-28
0
-1.43469e-27
0
2.47628e-29
8.53992e-28
8.95675e-28
-3.14591e-28
0
6.01625e-28
-2.08701e-28
-1.89615e-28
1.09657e-27
2.17887e-26
2.65456e-26
2.09523e-26
5.57412e-27
0
1.6155e-28
1.1838e-27
0
9.15663e-28
0
-6.88608e-28
0
1.18168e-27
5.42096e-28
-1.61536e-27
-7.1317e-28
2.11439e-28
0
0
4.81341e-28
1.3436e-23
4.35661e-24
1.96698e-25
6.61216e-27
0
-2.20303e-28
1.98149e-28
0
-4.80768e-28
1.11597e-28
3.96708e-28
1.12074e-27
2.48982e-28
4.41525e-28
-8.34932e-28
0
0
0
0
6.80724e-28
1.10313e-23
5.48573e-24
-2.14219e-25
1.83869e-26
-1.06538e-26
2.30625e-27
0
2.1864e-29
-2.40184e-28
0
-5.56857e-28
1.64479e-29
3.28246e-28
0
-2.63402e-27
5.28371e-29
7.05177e-28
3.70595e-28
4.70304e-28
2.16958e-28
1.03446e-25
4.06028e-24
0
4.18278e-26
-7.53003e-27
8.70974e-28
-8.73096e-28
7.62092e-30
1.14585e-27
1.9489e-27
6.89324e-28
5.39449e-29
3.10243e-28
2.76499e-28
-1.239e-28
0
3.4435e-29
0
0
0
5.91655e-24
4.54315e-24
2.12324e-25
1.14675e-26
0
-4.5386e-28
4.39019e-28
1.73554e-28
-3.92463e-28
1.21415e-29
0
0
2.1655e-28
0
-5.24763e-28
-3.52212e-29
2.14701e-28
1.25549e-28
2.97398e-29
3.74977e-29
3.61464e-23
1.25704e-23
5.92718e-26
5.63709e-26
-1.17702e-26
2.34984e-27
-4.07697e-28
2.09256e-28
-9.05622e-29
0
-1.81739e-28
0
4.21253e-28
1.38465e-29
-1.50289e-27
-4.24976e-28
0
-1.59033e-28
0
0
7.01552e-24
8.00539e-24
4.54035e-25
1.66188e-26
-1.11674e-27
0
0
-1.42891e-28
1.4403e-28
0
1.30488e-28
1.52801e-28
3.04485e-28
4.32267e-29
-1.0055e-28
1.33166e-28
0
0
0
1.67127e-29
1.00033e-23
3.95518e-24
3.12517e-25
0
2.6499e-27
1.88407e-28
1.18711e-28
0
2.35489e-29
0
0
2.03736e-28
0
1.52191e-30
0
4.56392e-28
0
0
2.9771e-29
3.65896e-29
)
;

boundaryField
{
    movingWall
    {
        type            calculated;
        value           nonuniform List<scalar> 
20
(
0
0
5.09913e-25
0
2.1708e-26
-3.60042e-27
6.73574e-28
0
1.15748e-28
7.74242e-28
9.77313e-28
7.34684e-28
-9.99462e-28
5.49395e-29
9.81845e-28
1.24823e-27
1.05868e-27
0
5.35012e-29
5.29189e-29
)
;
    }
    fixedWalls
    {
        type            calculated;
        value           nonuniform List<scalar> 
60
(
8.59404e-23
1.02544e-22
2.46391e-22
1.99472e-22
1.18974e-22
1.15775e-22
8.28666e-23
1.66629e-23
1.64959e-23
3.50787e-23
1.40007e-23
0
3.38315e-25
7.51129e-23
4.67638e-23
3.68648e-23
6.86618e-23
1.84163e-22
1.27234e-22
7.17145e-23
3.96122e-28
1.35908e-30
0
0
1.16195e-27
2.0548e-28
4.35651e-28
0
0
4.47365e-28
1.8722e-28
2.52288e-27
4.81341e-28
1.11725e-27
2.16958e-28
0
3.74977e-29
-1.62775e-28
4.60163e-28
0
0
0
2.38038e-25
0
3.41228e-26
-2.69974e-27
0
-7.1804e-28
0
1.36536e-28
1.49837e-27
7.02385e-28
-1.43118e-29
3.5779e-28
0
0
2.91248e-27
4.28704e-28
3.18994e-28
2.34064e-29
)
;
    }
    frontAndBack
    {
        type            empty;
    }
}


// ************************************************************************* //
