/*--------------------------------*- C++ -*----------------------------------*\
| =========                 |                                                 |
| \\      /  F ield         | OpenFOAM: The Open Source CFD Toolbox           |
|  \\    /   O peration     | Version:  2506                                  |
|   \\  /    A nd           | Website:  www.openfoam.com                      |
|    \\/     M anipulation  |                                                 |
\*---------------------------------------------------------------------------*/
FoamFile
{
    version     2.0;
    format      ascii;
    arch        "LSB;label=32;scalar=64";
    class       volVectorField;
    location    "6.5";
    object      LambVectorField;
}
// * * * * * * * * * * * * * * * * * * * * * * * * * * * * * * * * * * * * * //

dimensions      [0 1 -2 0 0 0 0];

internalField   nonuniform List<vector> 
400
(
(-1.17388e-24 -9.15124e-12 0)
(-3.2699e-25 1.18699e-11 -0)
(-1.7583e-26 -2.66607e-12 0)
(-9.29325e-28 6.50242e-13 -0)
(-4.60393e-29 -1.2657e-13 0)
(8.03493e-30 7.47045e-14 0)
(9.34733e-30 5.8862e-14 0)
(9.03088e-31 1.47957e-14 0)
(3.79723e-31 3.50182e-14 0)
(-4.56163e-31 2.52101e-14 -0)
(-2.51303e-31 -8.43508e-15 0)
(-3.22262e-32 -4.86386e-16 0)
(8.05692e-32 2.3248e-15 0)
(-5.98835e-32 -1.39237e-15 0)
(-4.23634e-30 -8.72032e-14 0)
(-6.29365e-30 -6.177e-14 0)
(-6.10931e-30 -4.91976e-14 0)
(8.73915e-31 1.6883e-14 0)
(-6.15236e-31 1.37788e-14 -0)
(1.12413e-30 -1.30676e-14 -0)
(-1.29484e-26 -7.08707e-13 0)
(-5.31921e-27 1.37621e-12 -0)
(-3.73852e-28 -3.79652e-13 0)
(-1.49269e-29 4.39504e-14 -0)
(-3.90495e-31 -1.25199e-13 0)
(-1.22431e-29 -1.23409e-13 0)
(-7.39867e-30 -4.83559e-14 0)
(5.52013e-31 1.35744e-14 0)
(6.58106e-32 3.8129e-15 0)
(7.36615e-32 2.90392e-14 0)
(1.18776e-31 -5.70503e-14 -0)
(-6.72452e-32 -2.17352e-15 0)
(-1.13775e-30 -5.78915e-14 0)
(-9.17193e-33 -1.35375e-16 0)
(7.39488e-31 3.5202e-14 0)
(-7.18807e-31 5.4383e-14 -0)
(1.04764e-30 5.43422e-14 0)
(-1.75565e-31 1.20759e-14 -0)
(-9.99232e-31 9.8465e-15 -0)
(2.42375e-30 -2.14484e-14 -0)
(-6.70429e-25 5.29385e-12 -0)
(-2.89533e-25 -1.06903e-11 0)
(-1.65317e-26 2.45648e-12 -0)
(-7.51196e-28 -6.45535e-13 0)
(-3.4526e-29 6.3289e-14 -0)
(9.52126e-31 -8.41803e-14 -0)
(-2.26277e-30 -8.97135e-14 0)
(-4.78471e-30 -6.58389e-14 0)
(-1.74868e-29 -1.23573e-13 0)
(-1.19757e-29 -5.34144e-14 0)
(6.30493e-31 4.72095e-15 0)
(1.04276e-29 5.89151e-14 0)
(8.92004e-30 1.03119e-13 0)
(-2.01305e-30 4.90513e-14 -0)
(-1.46742e-29 1.10366e-13 -0)
(1.02508e-30 -1.69452e-14 -0)
(-7.02088e-32 -1.92396e-15 0)
(-1.80184e-30 4.36765e-14 -0)
(-3.93046e-30 3.04163e-14 -0)
(1.51403e-30 -2.03589e-14 -0)
(-2.761e-25 -3.1857e-12 0)
(-1.44343e-25 7.37382e-12 -0)
(-7.13632e-27 -1.67645e-12 0)
(-5.28991e-28 4.46707e-13 -0)
(-2.72958e-30 -4.49139e-14 0)
(-3.8757e-30 2.00852e-14 -0)
(-2.73042e-30 1.9492e-14 -0)
(1.15325e-30 -9.871e-15 -0)
(6.63685e-31 -1.60431e-14 -0)
(-2.68716e-30 -6.16333e-14 0)
(-2.1124e-32 -6.42787e-16 0)
(-2.54723e-30 -5.09171e-14 0)
(1.1131e-33 -1.65991e-14 -0)
(9.56335e-32 -1.73777e-15 -0)
(-1.106e-30 -6.38917e-14 0)
(-2.43159e-30 -5.81946e-14 0)
(3.78635e-31 6.62465e-15 0)
(-1.05242e-30 4.30216e-14 -0)
(2.06817e-30 -2.02741e-14 -0)
(1.80704e-30 -1.94782e-14 -0)
(3.0615e-27 8.51384e-13 0)
(-3.03846e-28 2.39678e-13 -0)
(8.24955e-30 7.17828e-14 0)
(-1.04928e-29 1.18964e-13 -0)
(1.37281e-30 1.44681e-13 0)
(-3.34678e-29 1.86178e-13 -0)
(-3.23049e-29 1.42947e-13 -0)
(-2.7017e-29 1.06373e-13 -0)
(-2.59389e-29 1.26209e-13 -0)
(-6.47509e-30 4.0263e-14 -0)
(-4.86452e-30 7.36465e-14 -0)
(1.03804e-30 -1.2338e-14 -0)
(-1.42256e-30 -2.48145e-14 0)
(-5.81866e-30 -3.54772e-14 0)
(3.5831e-30 2.54032e-14 0)
(-1.28647e-29 1.42908e-13 -0)
(1.47803e-31 -7.25118e-16 -0)
(3.32538e-30 -4.01764e-14 -0)
(-2.13102e-30 2.91445e-14 -0)
(-9.77661e-31 9.47675e-15 -0)
(-4.36125e-25 4.67661e-12 -0)
(-1.69667e-25 -8.18038e-12 0)
(-8.79458e-27 1.88059e-12 -0)
(-4.25477e-28 -3.79328e-13 0)
(-6.17321e-29 1.80967e-13 -0)
(-2.09485e-30 1.43574e-14 -0)
(-5.77209e-31 2.70169e-15 -0)
(-1.71799e-30 9.93497e-15 -0)
(8.54922e-31 -2.03813e-14 -0)
(1.41787e-30 4.59017e-14 0)
(1.1038e-30 2.68317e-14 0)
(8.00695e-31 2.38137e-14 0)
(-1.84965e-31 -2.49779e-15 0)
(3.99283e-30 6.81356e-14 0)
(-4.639e-30 7.11457e-14 -0)
(-4.0444e-31 3.65169e-15 -0)
(7.25023e-31 -7.12756e-15 -0)
(4.81502e-31 -1.21965e-14 -0)
(-2.55384e-32 -1.26154e-15 0)
(1.7782e-32 -6.61943e-16 -0)
(-9.77754e-25 -7.96346e-12 0)
(-2.90303e-25 1.10213e-11 -0)
(-1.53715e-26 -2.5359e-12 0)
(-7.33605e-28 4.81592e-13 -0)
(-4.03731e-29 -2.50072e-13 0)
(6.34408e-30 -5.94135e-14 -0)
(4.87929e-30 -8.47531e-14 -0)
(6.52231e-30 -9.00885e-14 -0)
(-3.79199e-30 -1.25717e-13 0)
(-6.41155e-30 -6.3755e-14 0)
(-6.37771e-30 -5.07731e-14 0)
(-1.13763e-30 -1.71859e-14 0)
(1.54193e-31 5.83626e-15 0)
(-3.97797e-31 -5.07834e-14 0)
(3.45045e-31 -4.39685e-14 -0)
(4.80404e-30 -5.07918e-14 -0)
(2.82869e-30 -6.73006e-14 -0)
(-3.52009e-30 -9.6914e-14 0)
(-3.13281e-30 -2.7491e-14 0)
(-4.69769e-31 -1.16911e-14 0)
(-1.13e-25 2.65568e-12 -0)
(-3.53303e-26 -3.83307e-12 0)
(-1.93273e-27 8.32261e-13 -0)
(-1.03732e-28 -2.9427e-13 0)
(1.7249e-30 -8.95053e-15 -0)
(3.29684e-30 -3.2939e-14 -0)
(3.41913e-31 -2.54446e-15 -0)
(6.58818e-30 -8.82607e-14 -0)
(2.5165e-30 -3.87629e-14 -0)
(-3.39153e-30 -8.08783e-14 0)
(-1.8853e-29 -9.34417e-14 0)
(-5.37837e-30 -3.29558e-14 0)
(-2.31586e-31 2.14815e-14 -0)
(2.61876e-31 -5.0736e-15 -0)
(-5.28397e-31 -1.32247e-14 0)
(5.09176e-31 6.31483e-15 0)
(-1.58347e-30 6.82738e-14 -0)
(4.28113e-32 -7.13468e-16 -0)
(1.18424e-31 -7.37462e-15 -0)
(-3.1835e-33 -2.31668e-16 0)
(-2.19735e-25 3.9138e-12 -0)
(-6.01063e-26 -5.06987e-12 0)
(-3.78131e-27 1.25819e-12 -0)
(-6.27028e-29 -1.75186e-13 0)
(-5.82938e-29 1.32381e-13 -0)
(6.53812e-30 -4.28074e-14 -0)
(3.17378e-31 -2.58531e-14 -0)
(8.32705e-30 7.87076e-14 0)
(2.07102e-30 1.50076e-13 0)
(-4.45459e-30 1.12176e-13 -0)
(-1.83446e-30 7.72252e-14 -0)
(7.52118e-33 6.32817e-15 0)
(-6.07986e-30 6.98543e-14 -0)
(-4.61402e-30 2.97193e-14 -0)
(-2.97193e-31 2.62588e-15 -0)
(-1.0966e-30 -1.22473e-14 0)
(6.38532e-31 6.86998e-14 0)
(-3.02879e-30 5.47119e-14 -0)
(-2.98444e-32 -6.97886e-15 0)
(2.69928e-32 1.87062e-15 0)
(-7.02826e-25 -6.96105e-12 0)
(-2.09984e-25 9.25802e-12 -0)
(-1.05974e-26 -2.17982e-12 0)
(-6.029e-28 4.2302e-13 -0)
(-1.93687e-29 -2.16923e-13 0)
(5.77088e-30 -8.34524e-14 -0)
(-1.05184e-29 -9.50501e-14 0)
(-5.12135e-30 -7.50953e-14 0)
(-5.20894e-30 -1.07483e-13 0)
(-6.65308e-30 -1.13107e-13 0)
(7.04812e-31 7.39362e-15 0)
(-9.44772e-31 6.2506e-14 -0)
(-4.07497e-31 -3.29484e-14 0)
(-1.22644e-30 -2.83123e-14 0)
(-6.06894e-31 -2.4832e-14 0)
(-1.20717e-31 -5.86345e-15 0)
(-4.85558e-30 -5.84485e-14 0)
(5.75038e-31 9.1316e-15 0)
(-6.87786e-32 8.34534e-15 -0)
(-1.05145e-30 5.13378e-14 -0)
(-7.87776e-25 7.68476e-12 -0)
(-2.12432e-25 -9.36558e-12 0)
(-1.19047e-26 2.23272e-12 -0)
(-4.49035e-28 -3.84403e-13 0)
(-8.53364e-29 2.11389e-13 -0)
(-1.14116e-29 8.60601e-14 -0)
(-2.54381e-29 1.4125e-13 -0)
(-4.54974e-30 2.39652e-14 -0)
(-5.75673e-30 3.87151e-14 -0)
(1.42995e-30 -4.09749e-14 -0)
(-5.02616e-32 5.02793e-15 -0)
(-1.44288e-30 1.69397e-14 -0)
(-6.74903e-31 3.76214e-15 -0)
(2.72918e-30 -2.22247e-14 -0)
(-3.41478e-30 -7.96837e-14 0)
(-8.37009e-30 -6.34399e-14 0)
(1.61056e-30 1.19166e-14 0)
(5.95032e-31 4.65929e-14 0)
(-1.50128e-30 2.51358e-14 -0)
(-8.85059e-32 -2.7263e-15 0)
(-4.62129e-25 -6.20931e-12 0)
(-1.11838e-25 7.05343e-12 -0)
(-5.70126e-27 -1.57498e-12 0)
(-3.58674e-28 3.90244e-13 -0)
(1.03959e-30 -9.03911e-14 -0)
(7.0018e-31 -4.60903e-14 -0)
(-1.2202e-29 -6.84155e-14 0)
(8.8766e-30 6.997e-14 0)
(3.85307e-31 1.85673e-14 0)
(-5.88692e-30 1.001e-13 -0)
(-4.68598e-30 2.80432e-14 -0)
(3.78292e-31 -5.54745e-15 -0)
(2.53424e-30 -2.27034e-14 -0)
(5.09433e-31 -4.54004e-15 -0)
(2.57178e-30 -3.88348e-14 -0)
(-3.40448e-32 -6.69099e-15 0)
(-2.33037e-33 -3.39601e-15 0)
(-1.39128e-30 -3.56298e-14 0)
(-2.99349e-30 -3.48349e-14 0)
(-3.95371e-30 -3.3982e-14 0)
(8.57739e-28 1.01706e-12 0)
(2.91374e-28 -2.95795e-13 -0)
(-1.89555e-29 -6.8271e-14 0)
(3.63233e-30 -1.1608e-13 -0)
(-7.53352e-30 -9.05542e-14 0)
(-3.13011e-30 -5.123e-14 0)
(1.51216e-31 2.83214e-15 0)
(1.10278e-30 3.36443e-14 0)
(4.53673e-31 -3.78084e-14 -0)
(-5.53016e-30 4.21379e-14 -0)
(1.47552e-29 -9.08976e-14 -0)
(2.96004e-30 -8.35806e-14 -0)
(7.77171e-31 5.91559e-15 0)
(1.88492e-30 1.06807e-14 0)
(2.70796e-30 1.10216e-13 0)
(-7.61572e-30 6.76799e-14 -0)
(-2.12595e-30 1.93043e-14 -0)
(3.27975e-31 -9.5015e-15 -0)
(6.35935e-32 -4.20778e-15 -0)
(-5.71032e-33 -7.55376e-16 0)
(-4.14731e-25 4.7992e-12 -0)
(-1.47933e-25 -7.71277e-12 0)
(-7.4931e-27 1.69903e-12 -0)
(-4.76253e-28 -4.30686e-13 0)
(-1.11856e-29 1.08208e-13 -0)
(1.43388e-30 6.04443e-14 0)
(8.56827e-30 -5.17054e-14 -0)
(5.38032e-32 -4.06015e-14 -0)
(-1.95633e-30 6.36227e-14 -0)
(2.19421e-30 -2.29879e-14 -0)
(2.48901e-30 -3.46076e-14 -0)
(-6.84989e-31 3.35361e-14 -0)
(-5.55585e-30 -4.12097e-14 0)
(4.57402e-30 3.79207e-14 0)
(1.86345e-30 6.989e-14 0)
(-1.30144e-30 3.59734e-14 -0)
(-1.7778e-30 2.86644e-14 -0)
(-3.25215e-30 6.28175e-14 -0)
(-4.7735e-30 3.22327e-14 -0)
(-2.05144e-31 1.99077e-15 -0)
(-9.87134e-25 -8.38203e-12 0)
(-2.68381e-25 1.0734e-11 -0)
(-1.45327e-26 -2.49681e-12 0)
(-7.38728e-28 5.31392e-13 -0)
(-5.07802e-29 -2.15596e-13 0)
(2.61491e-30 -5.52038e-14 -0)
(7.14577e-31 -2.79357e-14 -0)
(3.44147e-30 -8.81035e-14 -0)
(-3.05405e-30 -7.21932e-14 0)
(-1.20144e-29 -8.53482e-14 0)
(3.94713e-30 4.77664e-14 0)
(-1.33341e-30 2.02512e-14 -0)
(-6.225e-31 5.19279e-15 -0)
(5.35064e-30 -4.54324e-14 -0)
(-8.41727e-30 -1.32774e-13 0)
(-3.18944e-30 -2.53595e-14 0)
(-1.8928e-30 -4.12019e-14 0)
(2.04334e-31 -4.73781e-14 -0)
(5.94335e-31 -2.65558e-14 -0)
(3.15618e-32 -3.21865e-15 -0)
(-3.49734e-25 5.38847e-12 -0)
(-7.96306e-26 -5.91662e-12 0)
(-5.06711e-27 1.53624e-12 -0)
(-8.985e-29 -1.67689e-13 0)
(-5.33175e-29 2.00262e-13 -0)
(-7.87619e-30 7.06041e-14 -0)
(-1.49974e-29 9.42476e-14 -0)
(-1.95645e-29 8.12214e-14 -0)
(-6.06992e-30 3.8371e-14 -0)
(-5.84901e-30 7.09078e-14 -0)
(-5.75098e-30 1.0627e-13 -0)
(-3.25848e-30 5.34341e-14 -0)
(3.01924e-31 -6.51307e-15 -0)
(-1.9752e-32 -4.76025e-15 0)
(7.54931e-32 6.0593e-14 0)
(-3.65638e-30 6.12672e-14 -0)
(-1.79099e-30 2.58346e-14 -0)
(6.32445e-31 -1.34635e-14 -0)
(-5.95766e-31 -9.1222e-15 0)
(4.84756e-31 1.09557e-14 0)
(-2.972e-26 8.92852e-13 -0)
(-1.85409e-26 -2.64462e-12 0)
(-1.11844e-27 6.61653e-13 -0)
(-4.06557e-29 -1.03118e-13 0)
(-1.26197e-29 1.07775e-13 -0)
(-1.59245e-29 1.12629e-13 -0)
(-7.95018e-30 4.9943e-14 -0)
(-5.03544e-30 5.10086e-14 -0)
(-8.07113e-30 6.34673e-14 -0)
(-1.0442e-29 5.45875e-14 -0)
(5.64312e-30 -4.30958e-14 -0)
(1.43809e-30 -4.58254e-14 -0)
(1.07544e-30 1.91158e-14 0)
(2.00326e-30 4.1295e-14 0)
(-5.4766e-30 6.3949e-14 -0)
(1.81245e-30 -3.70812e-14 -0)
(-8.58529e-32 -6.07968e-15 0)
(2.20215e-34 1.84759e-17 0)
(1.1272e-32 8.08809e-16 0)
(6.80656e-33 1.77674e-15 0)
(-4.24201e-25 -3.99731e-12 0)
(-2.0105e-25 8.82557e-12 -0)
(-1.15106e-26 -2.13253e-12 0)
(-4.86829e-28 4.11168e-13 -0)
(-4.38247e-29 -2.1725e-13 0)
(8.30348e-30 -8.67468e-14 -0)
(1.70423e-30 -1.13543e-13 -0)
(2.24015e-30 -5.035e-14 -0)
(3.00862e-30 -5.61201e-14 -0)
(1.39895e-30 -5.50955e-14 -0)
(3.75669e-30 -8.39368e-14 -0)
(-2.77538e-32 -3.36411e-14 0)
(-1.56874e-30 -7.61347e-14 0)
(4.13771e-30 -8.11635e-14 -0)
(-2.34562e-30 -1.22886e-13 0)
(-8.1618e-30 -8.71265e-14 0)
(2.20827e-31 2.86039e-15 0)
(2.19608e-30 3.37477e-14 0)
(8.84241e-32 8.20619e-15 0)
(4.71024e-31 -2.77264e-14 -0)
(-7.11176e-26 1.86188e-12 -0)
(-2.65781e-26 -3.24365e-12 0)
(-1.65154e-27 8.40256e-13 -0)
(-5.07911e-29 -1.52338e-13 0)
(-2.08757e-29 1.22016e-13 -0)
(9.82101e-31 -1.33451e-14 -0)
(-2.126e-30 5.6483e-14 -0)
(-3.12615e-30 3.24553e-14 -0)
(-1.99373e-30 2.18748e-14 -0)
(7.16215e-32 -1.62704e-15 -0)
(-3.8786e-30 5.1803e-14 -0)
(2.43128e-31 -1.21877e-14 -0)
(2.28415e-30 4.85933e-14 0)
(1.87336e-31 5.17231e-15 0)
(-3.2844e-31 6.96175e-14 -0)
(-6.87974e-30 5.83749e-14 -0)
(2.07098e-30 -4.46667e-14 -0)
(-2.04301e-30 -3.53692e-14 0)
(3.6351e-31 1.00205e-14 0)
(-1.12424e-30 2.64885e-14 -0)
(-4.45546e-25 5.24941e-12 -0)
(-1.41782e-25 -7.7533e-12 0)
(-7.1032e-27 1.62885e-12 -0)
(-3.98982e-28 -4.36537e-13 0)
(-1.88342e-29 7.0659e-14 -0)
(1.24304e-30 -1.95236e-14 -0)
(3.27118e-32 -4.58694e-16 -0)
(1.79494e-30 -3.03805e-14 -0)
(1.01168e-30 -2.62363e-14 -0)
(-5.90763e-31 8.71719e-15 -0)
(-6.91752e-31 5.50178e-15 -0)
(1.08619e-30 -8.84606e-15 -0)
(5.12691e-31 -1.37555e-14 -0)
(8.0719e-31 5.46616e-14 0)
(-4.61932e-31 1.10546e-14 -0)
(2.36748e-31 -2.47182e-15 -0)
(2.03448e-31 -1.19197e-14 -0)
(-8.27932e-32 -3.53543e-15 0)
(7.66161e-32 4.18984e-15 0)
(5.01269e-31 -2.71245e-14 -0)
)
;

boundaryField
{
    movingWall
    {
        type            calculated;
        value           nonuniform List<vector> 
20
(
(0 1.15439e-11 -0)
(0 -9.73899e-12 -0)
(0 1.51522e-12 -0)
(0 -6.31477e-13 -0)
(0 -1.24281e-13 -0)
(0 -2.41568e-13 -0)
(0 -1.33685e-13 -0)
(0 -1.36502e-13 -0)
(0 -1.32358e-13 -0)
(0 -8.01007e-14 -0)
(0 -1.72134e-13 -0)
(0 -8.84606e-15 -0)
(0 -1.02573e-13 -0)
(0 -4.39575e-14 -0)
(0 -7.77632e-14 -0)
(0 -9.12897e-14 -0)
(0 7.68981e-14 -0)
(0 -3.53543e-15 -0)
(0 4.18984e-15 -0)
(0 -8.88373e-14 -0)
)
;
    }
    fixedWalls
    {
        type            calculated;
        value           nonuniform List<vector> 
60
(
(0 -5.03888e-11 -0)
(0 -6.57638e-12 -0)
(0 4.59951e-11 -0)
(0 -3.11438e-11 -0)
(0 -3.5416e-13 -0)
(0 3.47277e-11 -0)
(0 -4.74315e-11 -0)
(0 1.63425e-11 -0)
(0 2.19424e-11 -0)
(0 -3.95188e-11 -0)
(0 4.07064e-11 -0)
(0 -3.01224e-11 -0)
(0 6.65546e-13 -0)
(0 3.26423e-11 -0)
(0 -4.62127e-11 -0)
(0 2.62056e-11 -0)
(0 1.15799e-11 -0)
(0 -3.81118e-11 -0)
(0 1.41403e-11 -0)
(0 3.25407e-11 -0)
(0 -3.44099e-14 -0)
(0 -4.52014e-14 -0)
(0 -2.97467e-14 -0)
(0 -3.71088e-14 -0)
(0 -1.41606e-14 -0)
(0 -1.07453e-14 -0)
(0 -1.10324e-14 -0)
(0 5.49665e-15 -0)
(0 5.77194e-15 -0)
(0 4.60177e-14 -0)
(0 1.29855e-14 -0)
(0 -7.67126e-15 -0)
(0 3.02383e-15 -0)
(0 -1.41141e-14 -0)
(0 -3.92236e-15 -0)
(0 1.76988e-14 -0)
(0 1.53237e-15 -0)
(0 -3.39004e-14 -0)
(0 1.0128e-14 -0)
(0 -3.44972e-14 -0)
(0 -1.62901e-11 -0)
(0 1.42553e-11 -0)
(0 -2.61186e-12 -0)
(0 8.45182e-13 -0)
(0 6.83691e-14 -0)
(0 2.42539e-13 -0)
(0 1.82288e-13 -0)
(0 1.03614e-13 -0)
(0 5.23221e-14 -0)
(0 4.2514e-14 -0)
(0 1.69201e-13 -0)
(0 -4.86386e-16 -0)
(0 9.11426e-14 -0)
(0 4.30166e-14 -0)
(0 -5.88799e-15 -0)
(0 -7.55991e-15 -0)
(0 -8.38053e-14 -0)
(0 1.6883e-14 -0)
(0 1.37788e-14 -0)
(0 -1.01885e-13 -0)
)
;
    }
    frontAndBack
    {
        type            empty;
    }
}


// ************************************************************************* //
