/*--------------------------------*- C++ -*----------------------------------*\
| =========                 |                                                 |
| \\      /  F ield         | OpenFOAM: The Open Source CFD Toolbox           |
|  \\    /   O peration     | Version:  2506                                  |
|   \\  /    A nd           | Website:  www.openfoam.com                      |
|    \\/     M anipulation  |                                                 |
\*---------------------------------------------------------------------------*/
FoamFile
{
    version     2.0;
    format      ascii;
    arch        "LSB;label=32;scalar=64";
    class       volScalarField;
    location    "6.5";
    object      magSqrP;
}
// * * * * * * * * * * * * * * * * * * * * * * * * * * * * * * * * * * * * * //

dimensions      [0 4 -4 0 0 0 0];

internalField   nonuniform List<scalar> 
400
(
4.74415e-31
1.51379e-29
7.50031e-30
9.20547e-30
8.98952e-30
1.15328e-29
1.4373e-29
1.41534e-29
1.49108e-29
1.62259e-29
1.69805e-29
1.76465e-29
1.91413e-29
2.15322e-29
2.28324e-29
2.23629e-29
2.2717e-29
2.0165e-29
1.83344e-29
1.607e-29
1.29839e-29
0
7.90033e-30
8.14277e-30
1.0599e-29
1.12225e-29
1.35464e-29
1.41892e-29
1.52449e-29
1.78537e-29
1.72114e-29
1.75897e-29
1.90759e-29
2.07774e-29
2.2032e-29
2.19524e-29
2.08813e-29
2.00708e-29
1.82185e-29
1.8326e-29
1.23187e-29
1.31385e-29
9.59158e-30
1.08027e-29
1.11424e-29
1.27712e-29
1.42397e-29
1.54918e-29
1.60848e-29
1.77565e-29
1.77976e-29
1.78017e-29
1.89832e-29
1.94305e-29
2.08048e-29
2.12859e-29
2.07626e-29
1.99091e-29
1.94879e-29
1.84296e-29
1.10884e-29
1.8619e-29
1.19672e-29
1.2989e-29
1.39746e-29
1.45816e-29
1.50317e-29
1.55632e-29
1.73982e-29
1.72297e-29
1.76717e-29
1.57066e-29
1.70561e-29
1.83987e-29
2.05452e-29
2.01526e-29
1.83796e-29
1.94296e-29
2.01176e-29
1.9856e-29
1.53417e-29
6.81072e-30
1.43714e-29
1.47754e-29
1.49761e-29
1.47048e-29
1.59153e-29
1.66901e-29
1.7202e-29
1.69441e-29
1.67193e-29
1.54869e-29
1.62476e-29
1.86083e-29
1.78886e-29
1.98191e-29
1.97299e-29
1.98976e-29
2.05471e-29
2.10661e-29
1.08502e-29
3.06346e-29
1.67697e-29
1.69565e-29
1.52352e-29
1.63366e-29
1.66241e-29
1.77558e-29
1.82443e-29
1.80795e-29
1.64408e-29
1.52334e-29
1.45523e-29
1.62747e-29
1.77187e-29
1.99514e-29
2.02994e-29
1.88155e-29
2.02682e-29
2.28528e-29
1.71248e-29
2.64725e-29
1.67688e-29
1.78647e-29
1.75506e-29
1.8115e-29
1.73919e-29
1.81041e-29
1.74475e-29
1.72379e-29
1.70473e-29
1.46581e-29
1.51747e-29
1.66678e-29
1.83398e-29
1.98874e-29
1.89764e-29
1.97737e-29
1.93432e-29
2.21334e-29
2.6882e-29
2.35568e-30
2.07199e-29
1.92273e-29
1.83196e-29
1.77337e-29
1.88652e-29
2.00402e-29
1.84475e-29
1.78799e-29
1.59385e-29
1.55622e-29
1.56707e-29
1.73184e-29
1.75955e-29
2.02709e-29
2.00103e-29
1.91884e-29
1.89706e-29
2.17426e-29
1.86282e-29
4.27116e-29
1.97723e-29
2.20081e-29
1.87965e-29
1.92129e-29
1.88657e-29
1.96408e-29
1.82848e-29
1.77091e-29
1.70903e-29
1.567e-29
1.60706e-29
1.72387e-29
1.81988e-29
1.87678e-29
1.89468e-29
2.03702e-29
1.99455e-29
2.16795e-29
1.80249e-29
1.43849e-29
2.20311e-29
2.18493e-29
2.18004e-29
1.97638e-29
1.90752e-29
1.75588e-29
1.79906e-29
1.87906e-29
1.76372e-29
1.50432e-29
1.42352e-29
1.62153e-29
1.83463e-29
1.73133e-29
1.85302e-29
2.03225e-29
1.9189e-29
2.08574e-29
1.91706e-29
1.90802e-29
2.10377e-29
2.15404e-29
2.02803e-29
2.03449e-29
1.95201e-29
1.90204e-29
1.79956e-29
1.85796e-29
1.46022e-29
1.3918e-29
1.42869e-29
1.66344e-29
1.73514e-29
1.65246e-29
1.62997e-29
1.87801e-29
1.97829e-29
2.17567e-29
1.92022e-29
3.77478e-29
2.09226e-29
2.09165e-29
2.18084e-29
2.06937e-29
1.80847e-29
1.74824e-29
1.73544e-29
1.64267e-29
1.43248e-29
1.39443e-29
1.51678e-29
1.71216e-29
1.60203e-29
1.57644e-29
1.7571e-29
1.94712e-29
1.9367e-29
1.96553e-29
2.47972e-29
3.01116e-30
2.16409e-29
1.78179e-29
2.21124e-29
1.90444e-29
1.52782e-29
1.60093e-29
1.67529e-29
1.50304e-29
1.45729e-29
1.39898e-29
1.65291e-29
1.62823e-29
1.54275e-29
1.67164e-29
1.82227e-29
1.93149e-29
1.94687e-29
1.79361e-29
1.86302e-29
5.15666e-29
1.96226e-29
1.90179e-29
1.91758e-29
1.75205e-29
1.53364e-29
1.52465e-29
1.47679e-29
1.43971e-29
1.52216e-29
1.48554e-29
1.53533e-29
1.54139e-29
1.51812e-29
1.73649e-29
1.8286e-29
1.87809e-29
1.94604e-29
1.94e-29
2.29273e-29
1.23688e-29
1.97801e-29
1.79664e-29
1.73694e-29
1.54082e-29
1.57565e-29
1.37785e-29
1.40514e-29
1.45925e-29
1.4214e-29
1.39853e-29
1.39956e-29
1.51389e-29
1.59108e-29
1.73563e-29
1.81921e-29
1.7391e-29
1.85466e-29
2.08588e-29
2.34791e-29
6.72098e-30
1.79472e-29
1.70888e-29
1.84919e-29
1.47591e-29
1.47824e-29
1.38585e-29
1.30132e-29
1.29555e-29
1.27632e-29
1.32013e-29
1.44423e-29
1.60098e-29
1.57635e-29
1.60923e-29
1.79456e-29
1.81608e-29
1.84544e-29
1.9761e-29
1.09408e-29
3.47282e-29
1.69822e-29
1.83513e-29
1.63842e-29
1.53371e-29
1.35052e-29
1.2409e-29
1.23727e-29
1.296e-29
1.26667e-29
1.30751e-29
1.44164e-29
1.46843e-29
1.58736e-29
1.75463e-29
1.8445e-29
1.85926e-29
1.81931e-29
2.00082e-29
1.34196e-29
1.38991e-29
1.62502e-29
1.5948e-29
1.57849e-29
1.44833e-29
1.33225e-29
1.21271e-29
1.1584e-29
1.21568e-29
1.26059e-29
1.36963e-29
1.41158e-29
1.50822e-29
1.74583e-29
1.75047e-29
1.86565e-29
1.83317e-29
1.85654e-29
1.96783e-29
1.80126e-29
4.91776e-30
1.50781e-29
1.50426e-29
1.58782e-29
1.4216e-29
1.28665e-29
1.21359e-29
1.2323e-29
1.27307e-29
1.34152e-29
1.36176e-29
1.38628e-29
1.74552e-29
1.81609e-29
1.72492e-29
1.77226e-29
1.86696e-29
1.82943e-29
2.04874e-29
7.75276e-30
2.54005e-29
1.4992e-29
1.64483e-29
1.49884e-29
1.4796e-29
1.31424e-29
1.18487e-29
1.21815e-29
1.23763e-29
1.42002e-29
1.4836e-29
1.4625e-29
1.73918e-29
1.79462e-29
1.82925e-29
1.73798e-29
1.84251e-29
1.9251e-29
2.10981e-29
)
;

boundaryField
{
    movingWall
    {
        type            calculated;
        value           nonuniform List<scalar> 
20
(
7.75276e-30
2.54005e-29
1.4992e-29
1.64483e-29
1.49884e-29
1.4796e-29
1.31424e-29
1.18487e-29
1.21815e-29
1.23763e-29
1.42002e-29
1.4836e-29
1.4625e-29
1.73918e-29
1.79462e-29
1.82925e-29
1.73798e-29
1.84251e-29
1.9251e-29
2.10981e-29
)
;
    }
    fixedWalls
    {
        type            calculated;
        value           nonuniform List<scalar> 
60
(
4.74415e-31
1.29839e-29
1.23187e-29
1.10884e-29
1.53417e-29
1.08502e-29
1.71248e-29
2.6882e-29
1.86282e-29
1.80249e-29
1.91706e-29
1.92022e-29
2.47972e-29
1.86302e-29
2.29273e-29
2.34791e-29
1.09408e-29
1.34196e-29
1.80126e-29
7.75276e-30
1.607e-29
1.8326e-29
1.84296e-29
1.9856e-29
2.10661e-29
2.28528e-29
2.21334e-29
2.17426e-29
2.16795e-29
2.08574e-29
2.17567e-29
1.96553e-29
1.79361e-29
1.94e-29
2.08588e-29
1.9761e-29
2.00082e-29
1.96783e-29
2.04874e-29
2.10981e-29
4.74415e-31
1.51379e-29
7.50031e-30
9.20547e-30
8.98952e-30
1.15328e-29
1.4373e-29
1.41534e-29
1.49108e-29
1.62259e-29
1.69805e-29
1.76465e-29
1.91413e-29
2.15322e-29
2.28324e-29
2.23629e-29
2.2717e-29
2.0165e-29
1.83344e-29
1.607e-29
)
;
    }
    frontAndBack
    {
        type            empty;
    }
}


// ************************************************************************* //
