/*--------------------------------*- C++ -*----------------------------------*\
| =========                 |                                                 |
| \\      /  F ield         | OpenFOAM: The Open Source CFD Toolbox           |
|  \\    /   O peration     | Version:  2506                                  |
|   \\  /    A nd           | Website:  www.openfoam.com                      |
|    \\/     M anipulation  |                                                 |
\*---------------------------------------------------------------------------*/
FoamFile
{
    version     2.0;
    format      ascii;
    arch        "LSB;label=32;scalar=64";
    class       volVectorField;
    location    "6.5";
    object      momentum1:momentum;
}
// * * * * * * * * * * * * * * * * * * * * * * * * * * * * * * * * * * * * * //

dimensions      [1 1 -1 0 0 0 0];

internalField   nonuniform List<vector> 
400
(
(-2.5e-07 3.2069e-20 0)
(-2.5e-07 -6.88695e-21 0)
(-2.5e-07 1.64878e-21 0)
(-2.5e-07 -3.573e-22 0)
(-2.5e-07 9.09362e-23 0)
(-2.5e-07 2.6889e-23 0)
(-2.5e-07 3.97002e-23 0)
(-2.5e-07 1.52593e-23 0)
(-2.5e-07 2.71089e-24 0)
(-2.5e-07 -4.52361e-24 0)
(-2.5e-07 7.44816e-24 0)
(-2.5e-07 1.65641e-23 0)
(-2.5e-07 8.66412e-24 0)
(-2.5e-07 1.07521e-23 0)
(-2.5e-07 1.2145e-23 0)
(-2.5e-07 2.54721e-23 0)
(-2.5e-07 3.10448e-23 0)
(-2.5e-07 1.29407e-23 0)
(-2.5e-07 -1.11628e-23 0)
(-2.5e-07 -2.15062e-23 0)
(-2.5e-07 4.56763e-21 0)
(-2.5e-07 -9.66275e-22 0)
(-2.5e-07 2.46181e-22 0)
(-2.5e-07 -8.49077e-23 0)
(-2.5e-07 7.79748e-25 0)
(-2.5e-07 2.48019e-23 0)
(-2.5e-07 3.82511e-23 0)
(-2.5e-07 1.01664e-23 0)
(-2.5e-07 4.31499e-24 0)
(-2.5e-07 6.34155e-25 0)
(-2.5e-07 -5.20488e-25 0)
(-2.5e-07 7.7346e-24 0)
(-2.5e-07 4.91331e-24 0)
(-2.5e-07 1.69381e-23 0)
(-2.5e-07 5.25174e-24 0)
(-2.5e-07 -3.30437e-24 0)
(-2.5e-07 4.81962e-24 0)
(-2.5e-07 -3.63461e-24 0)
(-2.5e-07 -2.53702e-23 0)
(-2.5e-07 -2.82509e-23 0)
(-2.5e-07 -3.16607e-20 0)
(-2.5e-07 6.77094e-21 0)
(-2.5e-07 -1.68246e-21 0)
(-2.5e-07 2.9092e-22 0)
(-2.5e-07 -1.36382e-22 0)
(-2.5e-07 -2.82764e-24 0)
(-2.5e-07 6.30553e-24 0)
(-2.5e-07 1.81683e-23 0)
(-2.5e-07 3.53775e-23 0)
(-2.5e-07 5.60508e-23 0)
(-2.5e-07 3.33881e-23 0)
(-2.5e-07 4.42485e-23 0)
(-2.5e-07 2.16257e-23 0)
(-2.5e-07 -1.02599e-23 0)
(-2.5e-07 -3.324e-23 0)
(-2.5e-07 -1.51234e-23 0)
(-2.5e-07 9.12297e-24 0)
(-2.5e-07 -1.03135e-23 0)
(-2.5e-07 -3.23056e-23 0)
(-2.5e-07 -1.85917e-23 0)
(-2.5e-07 2.16671e-20 0)
(-2.5e-07 -4.89376e-21 0)
(-2.5e-07 1.0642e-21 0)
(-2.5e-07 -2.96051e-22 0)
(-2.5e-07 1.51934e-23 0)
(-2.5e-07 -4.82407e-23 0)
(-2.5e-07 -3.50197e-23 0)
(-2.5e-07 -2.9208e-23 0)
(-2.5e-07 -1.03422e-23 0)
(-2.5e-07 1.08998e-23 0)
(-2.5e-07 8.21578e-24 0)
(-2.5e-07 1.25068e-23 0)
(-2.5e-07 -1.67644e-26 0)
(-2.5e-07 -1.37581e-23 0)
(-2.5e-07 4.32765e-24 0)
(-2.5e-07 1.0446e-23 0)
(-2.5e-07 1.42888e-23 0)
(-2.5e-07 -6.11567e-24 0)
(-2.5e-07 -2.55026e-23 0)
(-2.5e-07 -2.3193e-23 0)
(-2.5e-07 8.98976e-22 0)
(-2.5e-07 -3.16932e-22 0)
(-2.5e-07 2.87309e-23 0)
(-2.5e-07 -2.20503e-23 0)
(-2.5e-07 2.37212e-24 0)
(-2.5e-07 -4.49405e-23 0)
(-2.5e-07 -5.64979e-23 0)
(-2.5e-07 -6.34957e-23 0)
(-2.5e-07 -5.13809e-23 0)
(-2.5e-07 -4.0205e-23 0)
(-2.5e-07 -1.65131e-23 0)
(-2.5e-07 -2.10334e-23 0)
(-2.5e-07 1.4332e-23 0)
(-2.5e-07 4.10029e-23 0)
(-2.5e-07 3.52622e-23 0)
(-2.5e-07 -2.25051e-23 0)
(-2.5e-07 -5.09581e-23 0)
(-2.5e-07 -2.06924e-23 0)
(-2.5e-07 -1.82797e-23 0)
(-2.5e-07 -2.57911e-23 0)
(-2.5e-07 -2.33142e-20 0)
(-2.5e-07 5.18517e-21 0)
(-2.5e-07 -1.16913e-21 0)
(-2.5e-07 2.80415e-22 0)
(-2.5e-07 -8.52809e-23 0)
(-2.5e-07 -3.64768e-23 0)
(-2.5e-07 -5.34118e-23 0)
(-2.5e-07 -4.3231e-23 0)
(-2.5e-07 -1.04866e-23 0)
(-2.5e-07 7.72232e-24 0)
(-2.5e-07 1.02845e-23 0)
(-2.5e-07 8.40581e-24 0)
(-2.5e-07 1.85128e-23 0)
(-2.5e-07 1.46503e-23 0)
(-2.5e-07 -1.63011e-23 0)
(-2.5e-07 -2.76886e-23 0)
(-2.5e-07 -2.54303e-23 0)
(-2.5e-07 -9.86968e-24 0)
(-2.5e-07 5.06098e-24 0)
(-2.5e-07 -6.71584e-24 0)
(-2.5e-07 3.0695e-20 0)
(-2.5e-07 -6.58504e-21 0)
(-2.5e-07 1.51539e-21 0)
(-2.5e-07 -3.80823e-22 0)
(-2.5e-07 4.03616e-23 0)
(-2.5e-07 -2.66946e-23 0)
(-2.5e-07 -1.43927e-23 0)
(-2.5e-07 -1.80997e-23 0)
(-2.5e-07 7.54074e-24 0)
(-2.5e-07 2.51414e-23 0)
(-2.5e-07 3.14029e-23 0)
(-2.5e-07 1.6549e-23 0)
(-2.5e-07 6.60495e-24 0)
(-2.5e-07 1.9583e-24 0)
(-2.5e-07 -1.96189e-24 0)
(-2.5e-07 -2.36457e-23 0)
(-2.5e-07 -1.05077e-23 0)
(-2.5e-07 9.08045e-24 0)
(-2.5e-07 2.84894e-23 0)
(-2.5e-07 1.00454e-23 0)
(-2.5e-07 -1.06376e-20 0)
(-2.5e-07 2.30431e-21 0)
(-2.5e-07 -5.80566e-22 0)
(-2.5e-07 8.81267e-23 0)
(-2.5e-07 -4.81788e-23 0)
(-2.5e-07 -2.50223e-23 0)
(-2.5e-07 -3.35939e-23 0)
(-2.5e-07 -1.86611e-23 0)
(-2.5e-07 -1.62301e-23 0)
(-2.5e-07 1.04834e-23 0)
(-2.5e-07 5.04405e-23 0)
(-2.5e-07 4.07998e-23 0)
(-2.5e-07 -2.69518e-24 0)
(-2.5e-07 -1.29038e-23 0)
(-2.5e-07 9.98882e-24 0)
(-2.5e-07 2.0158e-23 0)
(-2.5e-07 -5.79824e-24 0)
(-2.5e-07 -1.50011e-23 0)
(-2.5e-07 -4.01457e-24 0)
(-2.5e-07 3.4354e-24 0)
(-2.5e-07 -1.40359e-20 0)
(-2.5e-07 2.9639e-21 0)
(-2.5e-07 -7.51341e-22 0)
(-2.5e-07 8.94801e-23 0)
(-2.5e-07 -1.10088e-22 0)
(-2.5e-07 -3.81834e-23 0)
(-2.5e-07 -3.06906e-24 0)
(-2.5e-07 2.64493e-23 0)
(-2.5e-07 3.44994e-24 0)
(-2.5e-07 -9.92772e-24 0)
(-2.5e-07 -5.93867e-24 0)
(-2.5e-07 2.97131e-25 0)
(-2.5e-07 -2.17591e-23 0)
(-2.5e-07 -3.88134e-23 0)
(-2.5e-07 -2.82946e-23 0)
(-2.5e-07 2.23846e-23 0)
(-2.5e-07 2.32363e-24 0)
(-2.5e-07 -1.38397e-23 0)
(-2.5e-07 1.0691e-24 0)
(-2.5e-07 3.60746e-24 0)
(-2.5e-07 2.52414e-20 0)
(-2.5e-07 -5.67032e-21 0)
(-2.5e-07 1.2154e-21 0)
(-2.5e-07 -3.56307e-22 0)
(-2.5e-07 2.23222e-23 0)
(-2.5e-07 -1.72879e-23 0)
(-2.5e-07 2.76653e-23 0)
(-2.5e-07 1.70495e-23 0)
(-2.5e-07 1.21158e-23 0)
(-2.5e-07 1.47053e-23 0)
(-2.5e-07 2.38318e-23 0)
(-2.5e-07 -3.77872e-24 0)
(-2.5e-07 3.09194e-24 0)
(-2.5e-07 1.08296e-23 0)
(-2.5e-07 6.10999e-24 0)
(-2.5e-07 5.14701e-24 0)
(-2.5e-07 2.07686e-23 0)
(-2.5e-07 1.57431e-23 0)
(-2.5e-07 -2.06039e-24 0)
(-2.5e-07 -5.12027e-24 0)
(-2.5e-07 -2.56278e-20 0)
(-2.5e-07 5.67055e-21 0)
(-2.5e-07 -1.33298e-21 0)
(-2.5e-07 2.92034e-22 0)
(-2.5e-07 -1.00924e-22 0)
(-2.5e-07 -3.315e-23 0)
(-2.5e-07 -4.50232e-23 0)
(-2.5e-07 -4.7462e-23 0)
(-2.5e-07 -3.71736e-23 0)
(-2.5e-07 -8.72456e-24 0)
(-2.5e-07 -2.49912e-24 0)
(-2.5e-07 -2.12944e-23 0)
(-2.5e-07 -4.48483e-23 0)
(-2.5e-07 -3.06997e-23 0)
(-2.5e-07 1.07135e-23 0)
(-2.5e-07 3.29843e-23 0)
(-2.5e-07 3.37881e-23 0)
(-2.5e-07 3.19272e-24 0)
(-2.5e-07 -1.49317e-23 0)
(-2.5e-07 8.11593e-24 0)
(-2.5e-07 1.86063e-20 0)
(-2.5e-07 -3.96395e-21 0)
(-2.5e-07 9.04971e-22 0)
(-2.5e-07 -2.29776e-22 0)
(-2.5e-07 -2.87527e-24 0)
(-2.5e-07 -3.79788e-24 0)
(-2.5e-07 4.45878e-23 0)
(-2.5e-07 3.17157e-23 0)
(-2.5e-07 5.18798e-24 0)
(-2.5e-07 -1.47026e-23 0)
(-2.5e-07 -4.17746e-23 0)
(-2.5e-07 -1.7048e-23 0)
(-2.5e-07 -2.7906e-23 0)
(-2.5e-07 -2.80522e-23 0)
(-2.5e-07 -1.65559e-23 0)
(-2.5e-07 1.27204e-24 0)
(-2.5e-07 1.71552e-25 0)
(-2.5e-07 9.76207e-24 0)
(-2.5e-07 2.14834e-23 0)
(-2.5e-07 2.90868e-23 0)
(-2.5e-07 2.10838e-22 0)
(-2.5e-07 -2.46263e-22 0)
(-2.5e-07 6.94126e-23 0)
(-2.5e-07 -7.82293e-24 0)
(-2.5e-07 2.07984e-23 0)
(-2.5e-07 1.52748e-23 0)
(-2.5e-07 1.33482e-23 0)
(-2.5e-07 8.19444e-24 0)
(-2.5e-07 -2.99982e-24 0)
(-2.5e-07 -3.28099e-23 0)
(-2.5e-07 -4.0582e-23 0)
(-2.5e-07 -8.85384e-24 0)
(-2.5e-07 3.28442e-23 0)
(-2.5e-07 4.41198e-23 0)
(-2.5e-07 6.14241e-24 0)
(-2.5e-07 -2.81314e-23 0)
(-2.5e-07 -2.75321e-23 0)
(-2.5e-07 -8.62955e-24 0)
(-2.5e-07 -3.77833e-24 0)
(-2.5e-07 1.88989e-24 0)
(-2.5e-07 -2.16042e-20 0)
(-2.5e-07 4.79507e-21 0)
(-2.5e-07 -1.10256e-21 0)
(-2.5e-07 2.7645e-22 0)
(-2.5e-07 -2.58429e-23 0)
(-2.5e-07 5.93059e-24 0)
(-2.5e-07 -4.14283e-23 0)
(-2.5e-07 -3.31288e-25 0)
(-2.5e-07 -7.68724e-24 0)
(-2.5e-07 -2.38627e-23 0)
(-2.5e-07 -1.79803e-23 0)
(-2.5e-07 -5.10636e-24 0)
(-2.5e-07 3.37048e-23 0)
(-2.5e-07 3.01552e-23 0)
(-2.5e-07 6.66565e-24 0)
(-2.5e-07 -9.04444e-24 0)
(-2.5e-07 -1.55053e-23 0)
(-2.5e-07 -1.29428e-23 0)
(-2.5e-07 -3.70238e-23 0)
(-2.5e-07 -2.57619e-23 0)
(-2.5e-07 2.9442e-20 0)
(-2.5e-07 -6.25075e-21 0)
(-2.5e-07 1.45513e-21 0)
(-2.5e-07 -3.47544e-22 0)
(-2.5e-07 5.88836e-23 0)
(-2.5e-07 -1.18421e-23 0)
(-2.5e-07 -6.39484e-24 0)
(-2.5e-07 -9.76541e-24 0)
(-2.5e-07 1.0576e-23 0)
(-2.5e-07 3.51924e-23 0)
(-2.5e-07 2.06585e-23 0)
(-2.5e-07 -1.64609e-23 0)
(-2.5e-07 -2.99695e-23 0)
(-2.5e-07 -2.94429e-23 0)
(-2.5e-07 1.58488e-23 0)
(-2.5e-07 3.14423e-23 0)
(-2.5e-07 1.14849e-23 0)
(-2.5e-07 -1.07821e-24 0)
(-2.5e-07 -5.59516e-24 0)
(-2.5e-07 -2.45147e-24 0)
(-2.5e-07 -1.6226e-20 0)
(-2.5e-07 3.3647e-21 0)
(-2.5e-07 -8.24594e-22 0)
(-2.5e-07 1.33954e-22 0)
(-2.5e-07 -6.65596e-23 0)
(-2.5e-07 -2.78886e-23 0)
(-2.5e-07 -3.97818e-23 0)
(-2.5e-07 -6.02196e-23 0)
(-2.5e-07 -3.95475e-23 0)
(-2.5e-07 -2.06219e-23 0)
(-2.5e-07 -1.35292e-23 0)
(-2.5e-07 -1.52453e-23 0)
(-2.5e-07 -1.15891e-23 0)
(-2.5e-07 1.03734e-24 0)
(-2.5e-07 3.11476e-25 0)
(-2.5e-07 -1.49198e-23 0)
(-2.5e-07 -1.73313e-23 0)
(-2.5e-07 -1.17437e-23 0)
(-2.5e-07 1.63274e-23 0)
(-2.5e-07 1.10618e-23 0)
(-2.5e-07 -8.32164e-21 0)
(-2.5e-07 1.7527e-21 0)
(-2.5e-07 -4.22594e-22 0)
(-2.5e-07 9.85657e-23 0)
(-2.5e-07 -2.92732e-23 0)
(-2.5e-07 -3.53471e-23 0)
(-2.5e-07 -3.97963e-23 0)
(-2.5e-07 -2.46794e-23 0)
(-2.5e-07 -3.17925e-23 0)
(-2.5e-07 -4.78223e-23 0)
(-2.5e-07 -3.27359e-23 0)
(-2.5e-07 -7.84547e-24 0)
(-2.5e-07 1.40648e-23 0)
(-2.5e-07 1.21278e-23 0)
(-2.5e-07 -2.141e-23 0)
(-2.5e-07 -1.22194e-23 0)
(-2.5e-07 3.53032e-24 0)
(-2.5e-07 2.97975e-24 0)
(-2.5e-07 3.48413e-24 0)
(-2.5e-07 9.5773e-25 0)
(-2.5e-07 2.65304e-20 0)
(-2.5e-07 -5.6951e-21 0)
(-2.5e-07 1.3494e-21 0)
(-2.5e-07 -2.96004e-22 0)
(-2.5e-07 5.04312e-23 0)
(-2.5e-07 -2.39302e-23 0)
(-2.5e-07 -3.75237e-24 0)
(-2.5e-07 -1.11229e-23 0)
(-2.5e-07 -1.34026e-23 0)
(-2.5e-07 -6.34785e-24 0)
(-2.5e-07 -1.1189e-23 0)
(-2.5e-07 2.06249e-25 0)
(-2.5e-07 5.15119e-24 0)
(-2.5e-07 -1.2745e-23 0)
(-2.5e-07 4.77194e-24 0)
(-2.5e-07 2.34194e-23 0)
(-2.5e-07 1.93004e-23 0)
(-2.5e-07 1.62684e-23 0)
(-2.5e-07 2.69382e-24 0)
(-2.5e-07 -4.24708e-24 0)
(-2.5e-07 -9.54919e-21 0)
(-2.5e-07 2.04847e-21 0)
(-2.5e-07 -4.9138e-22 0)
(-2.5e-07 8.33528e-23 0)
(-2.5e-07 -4.27727e-23 0)
(-2.5e-07 -1.83981e-23 0)
(-2.5e-07 -9.4099e-24 0)
(-2.5e-07 -2.40804e-23 0)
(-2.5e-07 -2.27856e-23 0)
(-2.5e-07 -1.10049e-23 0)
(-2.5e-07 -1.8718e-23 0)
(-2.5e-07 -4.98714e-24 0)
(-2.5e-07 1.17513e-23 0)
(-2.5e-07 9.05476e-24 0)
(-2.5e-07 -1.17945e-24 0)
(-2.5e-07 -2.94636e-23 0)
(-2.5e-07 -1.15913e-23 0)
(-2.5e-07 1.44406e-23 0)
(-2.5e-07 9.06917e-24 0)
(-2.5e-07 -1.06106e-23 0)
(-2.5e-07 -2.12188e-20 0)
(-2.5e-07 4.57167e-21 0)
(-2.5e-07 -1.09022e-21 0)
(-2.5e-07 2.28493e-22 0)
(-2.5e-07 -6.66377e-23 0)
(-2.5e-07 -1.59172e-23 0)
(-2.5e-07 -1.78288e-23 0)
(-2.5e-07 -1.47705e-23 0)
(-2.5e-07 -9.64012e-24 0)
(-2.5e-07 -1.69425e-23 0)
(-2.5e-07 -3.14331e-23 0)
(-2.5e-07 -3.06969e-23 0)
(-2.5e-07 -9.31794e-24 0)
(-2.5e-07 3.69176e-24 0)
(-2.5e-07 -1.04466e-23 0)
(-2.5e-07 -2.39447e-23 0)
(-2.5e-07 -4.26705e-24 0)
(-2.5e-07 5.85453e-24 0)
(-2.5e-07 4.57153e-24 0)
(-2.5e-07 -4.62008e-24 0)
)
;

boundaryField
{
    movingWall
    {
        type            calculated;
        value           uniform (0 0 0);
    }
    fixedWalls
    {
        type            calculated;
        value           uniform (0 0 0);
    }
    frontAndBack
    {
        type            empty;
    }
}


// ************************************************************************* //
