/*--------------------------------*- C++ -*----------------------------------*\
| =========                 |                                                 |
| \\      /  F ield         | OpenFOAM: The Open Source CFD Toolbox           |
|  \\    /   O peration     | Version:  2506                                  |
|   \\  /    A nd           | Website:  www.openfoam.com                      |
|    \\/     M anipulation  |                                                 |
\*---------------------------------------------------------------------------*/
FoamFile
{
    version     2.0;
    format      ascii;
    arch        "LSB;label=32;scalar=64";
    class       volVectorField;
    location    "6.5";
    object      norm_U_composite;
}
// * * * * * * * * * * * * * * * * * * * * * * * * * * * * * * * * * * * * * //

dimensions      [0 0 0 0 0 0 0];

internalField   nonuniform List<vector> 
400
(
(-0.5 6.41379e-14 0)
(-0.5 -1.37739e-14 0)
(-0.5 3.29756e-15 0)
(-0.5 -7.14599e-16 0)
(-0.5 1.81872e-16 0)
(-0.5 5.37781e-17 0)
(-0.5 7.94004e-17 0)
(-0.5 3.05186e-17 0)
(-0.5 5.42179e-18 0)
(-0.5 -9.04721e-18 0)
(-0.5 1.48963e-17 0)
(-0.5 3.31282e-17 0)
(-0.5 1.73282e-17 0)
(-0.5 2.15042e-17 0)
(-0.5 2.42901e-17 0)
(-0.5 5.09442e-17 0)
(-0.5 6.20896e-17 0)
(-0.5 2.58815e-17 0)
(-0.5 -2.23255e-17 0)
(-0.5 -4.30124e-17 0)
(-0.5 9.13526e-15 0)
(-0.5 -1.93255e-15 0)
(-0.5 4.92362e-16 0)
(-0.5 -1.69815e-16 0)
(-0.5 1.5595e-18 0)
(-0.5 4.96038e-17 0)
(-0.5 7.65022e-17 0)
(-0.5 2.03328e-17 0)
(-0.5 8.62999e-18 0)
(-0.5 1.26831e-18 0)
(-0.5 -1.04098e-18 0)
(-0.5 1.54692e-17 0)
(-0.5 9.82661e-18 0)
(-0.5 3.38761e-17 0)
(-0.5 1.05035e-17 0)
(-0.5 -6.60875e-18 0)
(-0.5 9.63924e-18 0)
(-0.5 -7.26922e-18 0)
(-0.5 -5.07404e-17 0)
(-0.5 -5.65017e-17 0)
(-0.5 -6.33215e-14 0)
(-0.5 1.35419e-14 0)
(-0.5 -3.36491e-15 0)
(-0.5 5.8184e-16 0)
(-0.5 -2.72765e-16 0)
(-0.5 -5.65528e-18 0)
(-0.5 1.26111e-17 0)
(-0.5 3.63365e-17 0)
(-0.5 7.07549e-17 0)
(-0.5 1.12102e-16 0)
(-0.5 6.67762e-17 0)
(-0.5 8.84969e-17 0)
(-0.5 4.32514e-17 0)
(-0.5 -2.05199e-17 0)
(-0.5 -6.648e-17 0)
(-0.5 -3.02469e-17 0)
(-0.5 1.82459e-17 0)
(-0.5 -2.06271e-17 0)
(-0.5 -6.46111e-17 0)
(-0.5 -3.71834e-17 0)
(-0.5 4.33343e-14 0)
(-0.5 -9.78752e-15 0)
(-0.5 2.1284e-15 0)
(-0.5 -5.92101e-16 0)
(-0.5 3.03868e-17 0)
(-0.5 -9.64813e-17 0)
(-0.5 -7.00394e-17 0)
(-0.5 -5.8416e-17 0)
(-0.5 -2.06844e-17 0)
(-0.5 2.17996e-17 0)
(-0.5 1.64316e-17 0)
(-0.5 2.50135e-17 0)
(-0.5 -3.35288e-20 0)
(-0.5 -2.75162e-17 0)
(-0.5 8.6553e-18 0)
(-0.5 2.08919e-17 0)
(-0.5 2.85777e-17 0)
(-0.5 -1.22313e-17 0)
(-0.5 -5.10052e-17 0)
(-0.5 -4.6386e-17 0)
(-0.5 1.79795e-15 0)
(-0.5 -6.33863e-16 0)
(-0.5 5.74619e-17 0)
(-0.5 -4.41007e-17 0)
(-0.5 4.74424e-18 0)
(-0.5 -8.98809e-17 0)
(-0.5 -1.12996e-16 0)
(-0.5 -1.26991e-16 0)
(-0.5 -1.02762e-16 0)
(-0.5 -8.04099e-17 0)
(-0.5 -3.30262e-17 0)
(-0.5 -4.20667e-17 0)
(-0.5 2.86639e-17 0)
(-0.5 8.20057e-17 0)
(-0.5 7.05245e-17 0)
(-0.5 -4.50103e-17 0)
(-0.5 -1.01916e-16 0)
(-0.5 -4.13847e-17 0)
(-0.5 -3.65594e-17 0)
(-0.5 -5.15821e-17 0)
(-0.5 -4.66283e-14 0)
(-0.5 1.03703e-14 0)
(-0.5 -2.33825e-15 0)
(-0.5 5.6083e-16 0)
(-0.5 -1.70562e-16 0)
(-0.5 -7.29535e-17 0)
(-0.5 -1.06824e-16 0)
(-0.5 -8.6462e-17 0)
(-0.5 -2.09732e-17 0)
(-0.5 1.54446e-17 0)
(-0.5 2.0569e-17 0)
(-0.5 1.68116e-17 0)
(-0.5 3.70256e-17 0)
(-0.5 2.93006e-17 0)
(-0.5 -3.26021e-17 0)
(-0.5 -5.53771e-17 0)
(-0.5 -5.08606e-17 0)
(-0.5 -1.97394e-17 0)
(-0.5 1.0122e-17 0)
(-0.5 -1.34317e-17 0)
(-0.5 6.139e-14 0)
(-0.5 -1.31701e-14 0)
(-0.5 3.03078e-15 0)
(-0.5 -7.61647e-16 0)
(-0.5 8.07231e-17 0)
(-0.5 -5.33893e-17 0)
(-0.5 -2.87853e-17 0)
(-0.5 -3.61995e-17 0)
(-0.5 1.50815e-17 0)
(-0.5 5.02827e-17 0)
(-0.5 6.28059e-17 0)
(-0.5 3.30979e-17 0)
(-0.5 1.32099e-17 0)
(-0.5 3.9166e-18 0)
(-0.5 -3.92377e-18 0)
(-0.5 -4.72915e-17 0)
(-0.5 -2.10154e-17 0)
(-0.5 1.81609e-17 0)
(-0.5 5.69788e-17 0)
(-0.5 2.00908e-17 0)
(-0.5 -2.12752e-14 0)
(-0.5 4.60861e-15 0)
(-0.5 -1.16113e-15 0)
(-0.5 1.76253e-16 0)
(-0.5 -9.63576e-17 0)
(-0.5 -5.00446e-17 0)
(-0.5 -6.71877e-17 0)
(-0.5 -3.73223e-17 0)
(-0.5 -3.24601e-17 0)
(-0.5 2.09668e-17 0)
(-0.5 1.00881e-16 0)
(-0.5 8.15996e-17 0)
(-0.5 -5.39037e-18 0)
(-0.5 -2.58077e-17 0)
(-0.5 1.99776e-17 0)
(-0.5 4.03159e-17 0)
(-0.5 -1.15965e-17 0)
(-0.5 -3.00023e-17 0)
(-0.5 -8.02915e-18 0)
(-0.5 6.87081e-18 0)
(-0.5 -2.80718e-14 0)
(-0.5 5.9278e-15 0)
(-0.5 -1.50268e-15 0)
(-0.5 1.7896e-16 0)
(-0.5 -2.20175e-16 0)
(-0.5 -7.63667e-17 0)
(-0.5 -6.13812e-18 0)
(-0.5 5.28986e-17 0)
(-0.5 6.89989e-18 0)
(-0.5 -1.98554e-17 0)
(-0.5 -1.18773e-17 0)
(-0.5 5.94263e-19 0)
(-0.5 -4.35182e-17 0)
(-0.5 -7.76268e-17 0)
(-0.5 -5.65893e-17 0)
(-0.5 4.47691e-17 0)
(-0.5 4.64726e-18 0)
(-0.5 -2.76794e-17 0)
(-0.5 2.1382e-18 0)
(-0.5 7.21493e-18 0)
(-0.5 5.04827e-14 0)
(-0.5 -1.13406e-14 0)
(-0.5 2.43079e-15 0)
(-0.5 -7.12614e-16 0)
(-0.5 4.46443e-17 0)
(-0.5 -3.45759e-17 0)
(-0.5 5.53306e-17 0)
(-0.5 3.4099e-17 0)
(-0.5 2.42316e-17 0)
(-0.5 2.94106e-17 0)
(-0.5 4.76635e-17 0)
(-0.5 -7.55745e-18 0)
(-0.5 6.18388e-18 0)
(-0.5 2.16591e-17 0)
(-0.5 1.222e-17 0)
(-0.5 1.0294e-17 0)
(-0.5 4.15372e-17 0)
(-0.5 3.14862e-17 0)
(-0.5 -4.12078e-18 0)
(-0.5 -1.02405e-17 0)
(-0.5 -5.12557e-14 0)
(-0.5 1.13411e-14 0)
(-0.5 -2.66597e-15 0)
(-0.5 5.84067e-16 0)
(-0.5 -2.01847e-16 0)
(-0.5 -6.63e-17 0)
(-0.5 -9.00464e-17 0)
(-0.5 -9.49239e-17 0)
(-0.5 -7.43472e-17 0)
(-0.5 -1.74491e-17 0)
(-0.5 -4.99824e-18 0)
(-0.5 -4.25888e-17 0)
(-0.5 -8.96967e-17 0)
(-0.5 -6.13995e-17 0)
(-0.5 2.14271e-17 0)
(-0.5 6.59686e-17 0)
(-0.5 6.75761e-17 0)
(-0.5 6.38543e-18 0)
(-0.5 -2.98634e-17 0)
(-0.5 1.62319e-17 0)
(-0.5 3.72126e-14 0)
(-0.5 -7.92789e-15 0)
(-0.5 1.80994e-15 0)
(-0.5 -4.59551e-16 0)
(-0.5 -5.75053e-18 0)
(-0.5 -7.59575e-18 0)
(-0.5 8.91755e-17 0)
(-0.5 6.34314e-17 0)
(-0.5 1.0376e-17 0)
(-0.5 -2.94051e-17 0)
(-0.5 -8.35493e-17 0)
(-0.5 -3.4096e-17 0)
(-0.5 -5.5812e-17 0)
(-0.5 -5.61044e-17 0)
(-0.5 -3.31118e-17 0)
(-0.5 2.54408e-18 0)
(-0.5 3.43104e-19 0)
(-0.5 1.95241e-17 0)
(-0.5 4.29667e-17 0)
(-0.5 5.81736e-17 0)
(-0.5 4.21677e-16 0)
(-0.5 -4.92526e-16 0)
(-0.5 1.38825e-16 0)
(-0.5 -1.56459e-17 0)
(-0.5 4.15967e-17 0)
(-0.5 3.05496e-17 0)
(-0.5 2.66964e-17 0)
(-0.5 1.63889e-17 0)
(-0.5 -5.99964e-18 0)
(-0.5 -6.56198e-17 0)
(-0.5 -8.11641e-17 0)
(-0.5 -1.77077e-17 0)
(-0.5 6.56883e-17 0)
(-0.5 8.82396e-17 0)
(-0.5 1.22848e-17 0)
(-0.5 -5.62628e-17 0)
(-0.5 -5.50642e-17 0)
(-0.5 -1.72591e-17 0)
(-0.5 -7.55666e-18 0)
(-0.5 3.77978e-18 0)
(-0.5 -4.32084e-14 0)
(-0.5 9.59014e-15 0)
(-0.5 -2.20512e-15 0)
(-0.5 5.529e-16 0)
(-0.5 -5.16859e-17 0)
(-0.5 1.18612e-17 0)
(-0.5 -8.28567e-17 0)
(-0.5 -6.62577e-19 0)
(-0.5 -1.53745e-17 0)
(-0.5 -4.77254e-17 0)
(-0.5 -3.59605e-17 0)
(-0.5 -1.02127e-17 0)
(-0.5 6.74095e-17 0)
(-0.5 6.03104e-17 0)
(-0.5 1.33313e-17 0)
(-0.5 -1.80889e-17 0)
(-0.5 -3.10106e-17 0)
(-0.5 -2.58857e-17 0)
(-0.5 -7.40475e-17 0)
(-0.5 -5.15239e-17 0)
(-0.5 5.8884e-14 0)
(-0.5 -1.25015e-14 0)
(-0.5 2.91025e-15 0)
(-0.5 -6.95088e-16 0)
(-0.5 1.17767e-16 0)
(-0.5 -2.36842e-17 0)
(-0.5 -1.27897e-17 0)
(-0.5 -1.95308e-17 0)
(-0.5 2.11519e-17 0)
(-0.5 7.03849e-17 0)
(-0.5 4.1317e-17 0)
(-0.5 -3.29219e-17 0)
(-0.5 -5.99389e-17 0)
(-0.5 -5.88858e-17 0)
(-0.5 3.16976e-17 0)
(-0.5 6.28847e-17 0)
(-0.5 2.29698e-17 0)
(-0.5 -2.15642e-18 0)
(-0.5 -1.11903e-17 0)
(-0.5 -4.90294e-18 0)
(-0.5 -3.2452e-14 0)
(-0.5 6.72939e-15 0)
(-0.5 -1.64919e-15 0)
(-0.5 2.67907e-16 0)
(-0.5 -1.33119e-16 0)
(-0.5 -5.57772e-17 0)
(-0.5 -7.95637e-17 0)
(-0.5 -1.20439e-16 0)
(-0.5 -7.90951e-17 0)
(-0.5 -4.12437e-17 0)
(-0.5 -2.70584e-17 0)
(-0.5 -3.04907e-17 0)
(-0.5 -2.31783e-17 0)
(-0.5 2.07468e-18 0)
(-0.5 6.22952e-19 0)
(-0.5 -2.98396e-17 0)
(-0.5 -3.46626e-17 0)
(-0.5 -2.34875e-17 0)
(-0.5 3.26548e-17 0)
(-0.5 2.21235e-17 0)
(-0.5 -1.66433e-14 0)
(-0.5 3.5054e-15 0)
(-0.5 -8.45188e-16 0)
(-0.5 1.97131e-16 0)
(-0.5 -5.85463e-17 0)
(-0.5 -7.06942e-17 0)
(-0.5 -7.95925e-17 0)
(-0.5 -4.93587e-17 0)
(-0.5 -6.3585e-17 0)
(-0.5 -9.56446e-17 0)
(-0.5 -6.54719e-17 0)
(-0.5 -1.56909e-17 0)
(-0.5 2.81296e-17 0)
(-0.5 2.42555e-17 0)
(-0.5 -4.28201e-17 0)
(-0.5 -2.44389e-17 0)
(-0.5 7.06064e-18 0)
(-0.5 5.9595e-18 0)
(-0.5 6.96826e-18 0)
(-0.5 1.91546e-18 0)
(-0.5 5.30608e-14 0)
(-0.5 -1.13902e-14 0)
(-0.5 2.6988e-15 0)
(-0.5 -5.92008e-16 0)
(-0.5 1.00862e-16 0)
(-0.5 -4.78605e-17 0)
(-0.5 -7.50475e-18 0)
(-0.5 -2.22458e-17 0)
(-0.5 -2.68052e-17 0)
(-0.5 -1.26957e-17 0)
(-0.5 -2.23781e-17 0)
(-0.5 4.12498e-19 0)
(-0.5 1.03024e-17 0)
(-0.5 -2.549e-17 0)
(-0.5 9.54388e-18 0)
(-0.5 4.68387e-17 0)
(-0.5 3.86008e-17 0)
(-0.5 3.25368e-17 0)
(-0.5 5.38765e-18 0)
(-0.5 -8.49416e-18 0)
(-0.5 -1.90984e-14 0)
(-0.5 4.09694e-15 0)
(-0.5 -9.8276e-16 0)
(-0.5 1.66706e-16 0)
(-0.5 -8.55454e-17 0)
(-0.5 -3.67963e-17 0)
(-0.5 -1.88198e-17 0)
(-0.5 -4.81608e-17 0)
(-0.5 -4.55712e-17 0)
(-0.5 -2.20097e-17 0)
(-0.5 -3.7436e-17 0)
(-0.5 -9.97429e-18 0)
(-0.5 2.35027e-17 0)
(-0.5 1.81095e-17 0)
(-0.5 -2.35889e-18 0)
(-0.5 -5.89272e-17 0)
(-0.5 -2.31826e-17 0)
(-0.5 2.88811e-17 0)
(-0.5 1.81383e-17 0)
(-0.5 -2.12213e-17 0)
(-0.5 -4.24377e-14 0)
(-0.5 9.14333e-15 0)
(-0.5 -2.18043e-15 0)
(-0.5 4.56986e-16 0)
(-0.5 -1.33275e-16 0)
(-0.5 -3.18344e-17 0)
(-0.5 -3.56575e-17 0)
(-0.5 -2.95409e-17 0)
(-0.5 -1.92802e-17 0)
(-0.5 -3.38849e-17 0)
(-0.5 -6.28662e-17 0)
(-0.5 -6.13939e-17 0)
(-0.5 -1.86359e-17 0)
(-0.5 7.38352e-18 0)
(-0.5 -2.08932e-17 0)
(-0.5 -4.78895e-17 0)
(-0.5 -8.5341e-18 0)
(-0.5 1.17091e-17 0)
(-0.5 9.14307e-18 0)
(-0.5 -9.24016e-18 0)
)
;

boundaryField
{
    movingWall
    {
        type            calculated;
        value           uniform (-0.5 -0 -0);
    }
    fixedWalls
    {
        type            calculated;
        value           uniform (-0.5 -0 -0);
    }
    frontAndBack
    {
        type            empty;
    }
}


// ************************************************************************* //
