/*--------------------------------*- C++ -*----------------------------------*\
| =========                 |                                                 |
| \\      /  F ield         | OpenFOAM: The Open Source CFD Toolbox           |
|  \\    /   O peration     | Version:  2506                                  |
|   \\  /    A nd           | Website:  www.openfoam.com                      |
|    \\/     M anipulation  |                                                 |
\*---------------------------------------------------------------------------*/
FoamFile
{
    version     2.0;
    format      ascii;
    arch        "LSB;label=32;scalar=64";
    class       volScalarField;
    location    "6.5";
    object      norm_k_field;
}
// * * * * * * * * * * * * * * * * * * * * * * * * * * * * * * * * * * * * * //

dimensions      [0 0 0 0 0 0 0];

internalField   nonuniform List<scalar> 
400
(
4.15963e+09
1.43632e+09
1.87893e+09
1.74135e+09
1.75694e+09
1.59797e+09
1.46617e+09
1.47512e+09
1.44497e+09
1.39707e+09
1.3718e+09
1.35069e+09
1.30689e+09
1.24545e+09
1.21569e+09
1.22617e+09
1.21824e+09
1.27941e+09
1.32996e+09
1.40248e+09
1.58626e+09
7.30206e+09
1.91607e+09
1.89474e+09
1.71568e+09
1.6784e+09
1.55983e+09
1.53155e+09
1.48855e+09
1.39711e+09
1.41789e+09
1.4055e+09
1.36002e+09
1.31336e+09
1.28207e+09
1.28398e+09
1.31065e+09
1.33206e+09
1.38559e+09
1.38229e+09
1.70887e+09
1.66642e+09
1.88091e+09
1.79764e+09
1.77631e+09
1.68475e+09
1.61416e+09
1.56102e+09
1.53773e+09
1.47775e+09
1.47634e+09
1.47618e+09
1.43819e+09
1.42461e+09
1.38534e+09
1.37239e+09
1.38647e+09
1.41049e+09
1.42285e+09
1.45552e+09
1.86814e+09
1.52191e+09
1.8138e+09
1.75677e+09
1.70692e+09
1.67844e+09
1.65825e+09
1.63543e+09
1.56388e+09
1.57e+09
1.554e+09
1.62932e+09
1.57633e+09
1.52878e+09
1.46154e+09
1.47311e+09
1.52939e+09
1.49523e+09
1.47414e+09
1.48204e+09
1.70374e+09
2.32068e+09
1.74838e+09
1.72925e+09
1.71993e+09
1.73241e+09
1.67864e+09
1.64692e+09
1.62699e+09
1.63687e+09
1.64566e+09
1.69683e+09
1.6646e+09
1.57595e+09
1.60133e+09
1.53599e+09
1.53882e+09
1.5335e+09
1.51348e+09
1.49807e+09
1.99514e+09
1.31098e+09
1.68132e+09
1.67381e+09
1.74699e+09
1.69891e+09
1.68701e+09
1.64279e+09
1.62481e+09
1.63075e+09
1.69437e+09
1.74676e+09
1.77876e+09
1.70119e+09
1.64397e+09
1.56656e+09
1.55552e+09
1.60441e+09
1.55649e+09
1.48151e+09
1.69006e+09
1.41313e+09
1.70428e+09
1.6613e+09
1.67317e+09
1.65186e+09
1.67921e+09
1.65216e+09
1.67695e+09
1.68512e+09
1.69263e+09
1.79786e+09
1.77326e+09
1.70795e+09
1.6433e+09
1.59e+09
1.62066e+09
1.59371e+09
1.60807e+09
1.52166e+09
1.41552e+09
3.45378e+09
1.57677e+09
1.62563e+09
1.65781e+09
1.67972e+09
1.63808e+09
1.59819e+09
1.65295e+09
1.67397e+09
1.75311e+09
1.76988e+09
1.76496e+09
1.69555e+09
1.6847e+09
1.5905e+09
1.59893e+09
1.6265e+09
1.63407e+09
1.54538e+09
1.65537e+09
1.16782e+09
1.61557e+09
1.54608e+09
1.6491e+09
1.63442e+09
1.64653e+09
1.61972e+09
1.66748e+09
1.68915e+09
1.71353e+09
1.77414e+09
1.75631e+09
1.70748e+09
1.67048e+09
1.64973e+09
1.64337e+09
1.59551e+09
1.60931e+09
1.55522e+09
1.6838e+09
1.84289e+09
1.55115e+09
1.55642e+09
1.55779e+09
1.62166e+09
1.64521e+09
1.70133e+09
1.68466e+09
1.65516e+09
1.69814e+09
1.80989e+09
1.84989e+09
1.75645e+09
1.67117e+09
1.71077e+09
1.6644e+09
1.60293e+09
1.64092e+09
1.58596e+09
1.64724e+09
1.65041e+09
1.58571e+09
1.57037e+09
1.60961e+09
1.60747e+09
1.63483e+09
1.65213e+09
1.68963e+09
1.66786e+09
1.83703e+09
1.87217e+09
1.85291e+09
1.74388e+09
1.71451e+09
1.74849e+09
1.75812e+09
1.66043e+09
1.62562e+09
1.56346e+09
1.65091e+09
1.24375e+09
1.5939e+09
1.59405e+09
1.56685e+09
1.60096e+09
1.69123e+09
1.71451e+09
1.71953e+09
1.75792e+09
1.85639e+09
1.87621e+09
1.81469e+09
1.72876e+09
1.77549e+09
1.78694e+09
1.71074e+09
1.64093e+09
1.64452e+09
1.63464e+09
1.49037e+09
3.25815e+09
1.57666e+09
1.70673e+09
1.56262e+09
1.66114e+09
1.81515e+09
1.78155e+09
1.74937e+09
1.82684e+09
1.84935e+09
1.87941e+09
1.75869e+09
1.7693e+09
1.80783e+09
1.75069e+09
1.69079e+09
1.65127e+09
1.64594e+09
1.70166e+09
1.68181e+09
1.09289e+09
1.64654e+09
1.66763e+09
1.66194e+09
1.72385e+09
1.81829e+09
1.82253e+09
1.8457e+09
1.86437e+09
1.82356e+09
1.84127e+09
1.81725e+09
1.81438e+09
1.82538e+09
1.72969e+09
1.69392e+09
1.67565e+09
1.65159e+09
1.65368e+09
1.55025e+09
1.98658e+09
1.6471e+09
1.71272e+09
1.73616e+09
1.82154e+09
1.8053e+09
1.90392e+09
1.88919e+09
1.86113e+09
1.88053e+09
1.89259e+09
1.892e+09
1.83403e+09
1.79798e+09
1.73628e+09
1.70358e+09
1.73486e+09
1.69029e+09
1.61117e+09
1.54115e+09
2.50769e+09
1.72029e+09
1.75462e+09
1.69946e+09
1.86034e+09
1.85909e+09
1.90712e+09
1.95477e+09
1.95815e+09
1.96957e+09
1.94371e+09
1.87606e+09
1.80067e+09
1.81184e+09
1.79693e+09
1.7198e+09
1.71152e+09
1.70043e+09
1.65375e+09
2.10008e+09
1.31241e+09
1.76644e+09
1.71194e+09
1.79193e+09
1.8398e+09
1.9347e+09
1.9998e+09
2.00202e+09
1.96607e+09
1.98368e+09
1.95919e+09
1.88525e+09
1.87152e+09
1.81437e+09
1.74278e+09
1.70791e+09
1.70238e+09
1.71744e+09
1.65225e+09
1.94777e+09
1.92105e+09
1.80521e+09
1.81879e+09
1.82618e+09
1.88973e+09
1.95291e+09
2.0259e+09
2.0621e+09
2.02386e+09
1.99542e+09
1.93156e+09
1.90868e+09
1.85923e+09
1.75338e+09
1.75149e+09
1.70687e+09
1.71907e+09
1.71025e+09
1.67021e+09
1.7377e+09
2.83215e+09
1.86605e+09
1.86777e+09
1.82785e+09
1.90994e+09
1.98622e+09
2.03196e+09
2.01984e+09
1.99433e+09
1.9538e+09
1.94229e+09
1.92865e+09
1.75928e+09
1.7313e+09
1.76768e+09
1.74846e+09
1.71197e+09
1.72613e+09
1.64832e+09
2.41153e+09
1.51097e+09
1.87319e+09
1.80513e+09
1.87338e+09
1.88301e+09
1.97311e+09
2.05441e+09
2.03245e+09
2.01994e+09
1.9139e+09
1.88099e+09
1.8917e+09
1.76508e+09
1.74285e+09
1.72941e+09
1.76557e+09
1.72436e+09
1.69391e+09
1.63162e+09
)
;

boundaryField
{
    movingWall
    {
        type            calculated;
        value           nonuniform List<scalar> 
20
(
2.41153e+09
1.51097e+09
1.87319e+09
1.80513e+09
1.87338e+09
1.88301e+09
1.97311e+09
2.05441e+09
2.03245e+09
2.01994e+09
1.9139e+09
1.88099e+09
1.8917e+09
1.76508e+09
1.74285e+09
1.72941e+09
1.76557e+09
1.72436e+09
1.69391e+09
1.63162e+09
)
;
    }
    fixedWalls
    {
        type            calculated;
        value           nonuniform List<scalar> 
60
(
4.15963e+09
1.58626e+09
1.70887e+09
1.86814e+09
1.70374e+09
1.99514e+09
1.69006e+09
1.41552e+09
1.65537e+09
1.6838e+09
1.64724e+09
1.65091e+09
1.49037e+09
1.68181e+09
1.55025e+09
1.54115e+09
2.10008e+09
1.94777e+09
1.7377e+09
2.41153e+09
1.40248e+09
1.38229e+09
1.45552e+09
1.48204e+09
1.49807e+09
1.48151e+09
1.52166e+09
1.54538e+09
1.55522e+09
1.58596e+09
1.56346e+09
1.63464e+09
1.70166e+09
1.65368e+09
1.61117e+09
1.65375e+09
1.65225e+09
1.67021e+09
1.64832e+09
1.63162e+09
4.15963e+09
1.43632e+09
1.87893e+09
1.74135e+09
1.75694e+09
1.59797e+09
1.46617e+09
1.47512e+09
1.44497e+09
1.39707e+09
1.3718e+09
1.35069e+09
1.30689e+09
1.24545e+09
1.21569e+09
1.22617e+09
1.21824e+09
1.27941e+09
1.32996e+09
1.40248e+09
)
;
    }
    frontAndBack
    {
        type            empty;
    }
}


// ************************************************************************* //
