/*--------------------------------*- C++ -*----------------------------------*\
| =========                 |                                                 |
| \\      /  F ield         | OpenFOAM: The Open Source CFD Toolbox           |
|  \\    /   O peration     | Version:  2506                                  |
|   \\  /    A nd           | Website:  www.openfoam.com                      |
|    \\/     M anipulation  |                                                 |
\*---------------------------------------------------------------------------*/
FoamFile
{
    version     2.0;
    format      ascii;
    arch        "LSB;label=32;scalar=64";
    class       volVectorField;
    location    "6.5";
    object      norm_U_L1;
}
// * * * * * * * * * * * * * * * * * * * * * * * * * * * * * * * * * * * * * //

dimensions      [0 0 0 0 0 0 0];

internalField   nonuniform List<vector> 
400
(
(-0.0025 3.2069e-16 0)
(-0.0025 -6.88695e-17 0)
(-0.0025 1.64878e-17 0)
(-0.0025 -3.573e-18 0)
(-0.0025 9.09362e-19 0)
(-0.0025 2.6889e-19 0)
(-0.0025 3.97002e-19 0)
(-0.0025 1.52593e-19 0)
(-0.0025 2.71089e-20 0)
(-0.0025 -4.52361e-20 0)
(-0.0025 7.44816e-20 0)
(-0.0025 1.65641e-19 0)
(-0.0025 8.66412e-20 0)
(-0.0025 1.07521e-19 0)
(-0.0025 1.2145e-19 0)
(-0.0025 2.54721e-19 0)
(-0.0025 3.10448e-19 0)
(-0.0025 1.29407e-19 0)
(-0.0025 -1.11628e-19 0)
(-0.0025 -2.15062e-19 0)
(-0.0025 4.56763e-17 0)
(-0.0025 -9.66275e-18 0)
(-0.0025 2.46181e-18 0)
(-0.0025 -8.49077e-19 0)
(-0.0025 7.79748e-21 0)
(-0.0025 2.48019e-19 0)
(-0.0025 3.82511e-19 0)
(-0.0025 1.01664e-19 0)
(-0.0025 4.31499e-20 0)
(-0.0025 6.34155e-21 0)
(-0.0025 -5.20488e-21 0)
(-0.0025 7.7346e-20 0)
(-0.0025 4.91331e-20 0)
(-0.0025 1.69381e-19 0)
(-0.0025 5.25174e-20 0)
(-0.0025 -3.30437e-20 0)
(-0.0025 4.81962e-20 0)
(-0.0025 -3.63461e-20 0)
(-0.0025 -2.53702e-19 0)
(-0.0025 -2.82509e-19 0)
(-0.0025 -3.16607e-16 0)
(-0.0025 6.77094e-17 0)
(-0.0025 -1.68246e-17 0)
(-0.0025 2.9092e-18 0)
(-0.0025 -1.36382e-18 0)
(-0.0025 -2.82764e-20 0)
(-0.0025 6.30553e-20 0)
(-0.0025 1.81683e-19 0)
(-0.0025 3.53775e-19 0)
(-0.0025 5.60508e-19 0)
(-0.0025 3.33881e-19 0)
(-0.0025 4.42485e-19 0)
(-0.0025 2.16257e-19 0)
(-0.0025 -1.02599e-19 0)
(-0.0025 -3.324e-19 0)
(-0.0025 -1.51234e-19 0)
(-0.0025 9.12297e-20 0)
(-0.0025 -1.03135e-19 0)
(-0.0025 -3.23056e-19 0)
(-0.0025 -1.85917e-19 0)
(-0.0025 2.16671e-16 0)
(-0.0025 -4.89376e-17 0)
(-0.0025 1.0642e-17 0)
(-0.0025 -2.96051e-18 0)
(-0.0025 1.51934e-19 0)
(-0.0025 -4.82407e-19 0)
(-0.0025 -3.50197e-19 0)
(-0.0025 -2.9208e-19 0)
(-0.0025 -1.03422e-19 0)
(-0.0025 1.08998e-19 0)
(-0.0025 8.21578e-20 0)
(-0.0025 1.25068e-19 0)
(-0.0025 -1.67644e-22 0)
(-0.0025 -1.37581e-19 0)
(-0.0025 4.32765e-20 0)
(-0.0025 1.0446e-19 0)
(-0.0025 1.42888e-19 0)
(-0.0025 -6.11567e-20 0)
(-0.0025 -2.55026e-19 0)
(-0.0025 -2.3193e-19 0)
(-0.0025 8.98976e-18 0)
(-0.0025 -3.16932e-18 0)
(-0.0025 2.87309e-19 0)
(-0.0025 -2.20503e-19 0)
(-0.0025 2.37212e-20 0)
(-0.0025 -4.49405e-19 0)
(-0.0025 -5.64979e-19 0)
(-0.0025 -6.34957e-19 0)
(-0.0025 -5.13809e-19 0)
(-0.0025 -4.0205e-19 0)
(-0.0025 -1.65131e-19 0)
(-0.0025 -2.10334e-19 0)
(-0.0025 1.4332e-19 0)
(-0.0025 4.10029e-19 0)
(-0.0025 3.52622e-19 0)
(-0.0025 -2.25051e-19 0)
(-0.0025 -5.09581e-19 0)
(-0.0025 -2.06924e-19 0)
(-0.0025 -1.82797e-19 0)
(-0.0025 -2.57911e-19 0)
(-0.0025 -2.33142e-16 0)
(-0.0025 5.18517e-17 0)
(-0.0025 -1.16913e-17 0)
(-0.0025 2.80415e-18 0)
(-0.0025 -8.52809e-19 0)
(-0.0025 -3.64768e-19 0)
(-0.0025 -5.34118e-19 0)
(-0.0025 -4.3231e-19 0)
(-0.0025 -1.04866e-19 0)
(-0.0025 7.72232e-20 0)
(-0.0025 1.02845e-19 0)
(-0.0025 8.40581e-20 0)
(-0.0025 1.85128e-19 0)
(-0.0025 1.46503e-19 0)
(-0.0025 -1.63011e-19 0)
(-0.0025 -2.76886e-19 0)
(-0.0025 -2.54303e-19 0)
(-0.0025 -9.86968e-20 0)
(-0.0025 5.06098e-20 0)
(-0.0025 -6.71584e-20 0)
(-0.0025 3.0695e-16 0)
(-0.0025 -6.58504e-17 0)
(-0.0025 1.51539e-17 0)
(-0.0025 -3.80823e-18 0)
(-0.0025 4.03616e-19 0)
(-0.0025 -2.66946e-19 0)
(-0.0025 -1.43927e-19 0)
(-0.0025 -1.80997e-19 0)
(-0.0025 7.54074e-20 0)
(-0.0025 2.51414e-19 0)
(-0.0025 3.14029e-19 0)
(-0.0025 1.6549e-19 0)
(-0.0025 6.60495e-20 0)
(-0.0025 1.9583e-20 0)
(-0.0025 -1.96189e-20 0)
(-0.0025 -2.36457e-19 0)
(-0.0025 -1.05077e-19 0)
(-0.0025 9.08045e-20 0)
(-0.0025 2.84894e-19 0)
(-0.0025 1.00454e-19 0)
(-0.0025 -1.06376e-16 0)
(-0.0025 2.30431e-17 0)
(-0.0025 -5.80566e-18 0)
(-0.0025 8.81267e-19 0)
(-0.0025 -4.81788e-19 0)
(-0.0025 -2.50223e-19 0)
(-0.0025 -3.35939e-19 0)
(-0.0025 -1.86611e-19 0)
(-0.0025 -1.62301e-19 0)
(-0.0025 1.04834e-19 0)
(-0.0025 5.04405e-19 0)
(-0.0025 4.07998e-19 0)
(-0.0025 -2.69518e-20 0)
(-0.0025 -1.29038e-19 0)
(-0.0025 9.98882e-20 0)
(-0.0025 2.0158e-19 0)
(-0.0025 -5.79824e-20 0)
(-0.0025 -1.50011e-19 0)
(-0.0025 -4.01457e-20 0)
(-0.0025 3.4354e-20 0)
(-0.0025 -1.40359e-16 0)
(-0.0025 2.9639e-17 0)
(-0.0025 -7.51341e-18 0)
(-0.0025 8.94801e-19 0)
(-0.0025 -1.10088e-18 0)
(-0.0025 -3.81834e-19 0)
(-0.0025 -3.06906e-20 0)
(-0.0025 2.64493e-19 0)
(-0.0025 3.44994e-20 0)
(-0.0025 -9.92772e-20 0)
(-0.0025 -5.93867e-20 0)
(-0.0025 2.97131e-21 0)
(-0.0025 -2.17591e-19 0)
(-0.0025 -3.88134e-19 0)
(-0.0025 -2.82946e-19 0)
(-0.0025 2.23846e-19 0)
(-0.0025 2.32363e-20 0)
(-0.0025 -1.38397e-19 0)
(-0.0025 1.0691e-20 0)
(-0.0025 3.60746e-20 0)
(-0.0025 2.52414e-16 0)
(-0.0025 -5.67032e-17 0)
(-0.0025 1.2154e-17 0)
(-0.0025 -3.56307e-18 0)
(-0.0025 2.23222e-19 0)
(-0.0025 -1.72879e-19 0)
(-0.0025 2.76653e-19 0)
(-0.0025 1.70495e-19 0)
(-0.0025 1.21158e-19 0)
(-0.0025 1.47053e-19 0)
(-0.0025 2.38318e-19 0)
(-0.0025 -3.77872e-20 0)
(-0.0025 3.09194e-20 0)
(-0.0025 1.08296e-19 0)
(-0.0025 6.10999e-20 0)
(-0.0025 5.14701e-20 0)
(-0.0025 2.07686e-19 0)
(-0.0025 1.57431e-19 0)
(-0.0025 -2.06039e-20 0)
(-0.0025 -5.12027e-20 0)
(-0.0025 -2.56278e-16 0)
(-0.0025 5.67055e-17 0)
(-0.0025 -1.33298e-17 0)
(-0.0025 2.92034e-18 0)
(-0.0025 -1.00924e-18 0)
(-0.0025 -3.315e-19 0)
(-0.0025 -4.50232e-19 0)
(-0.0025 -4.7462e-19 0)
(-0.0025 -3.71736e-19 0)
(-0.0025 -8.72456e-20 0)
(-0.0025 -2.49912e-20 0)
(-0.0025 -2.12944e-19 0)
(-0.0025 -4.48483e-19 0)
(-0.0025 -3.06997e-19 0)
(-0.0025 1.07135e-19 0)
(-0.0025 3.29843e-19 0)
(-0.0025 3.37881e-19 0)
(-0.0025 3.19272e-20 0)
(-0.0025 -1.49317e-19 0)
(-0.0025 8.11593e-20 0)
(-0.0025 1.86063e-16 0)
(-0.0025 -3.96395e-17 0)
(-0.0025 9.04971e-18 0)
(-0.0025 -2.29776e-18 0)
(-0.0025 -2.87527e-20 0)
(-0.0025 -3.79788e-20 0)
(-0.0025 4.45878e-19 0)
(-0.0025 3.17157e-19 0)
(-0.0025 5.18798e-20 0)
(-0.0025 -1.47026e-19 0)
(-0.0025 -4.17746e-19 0)
(-0.0025 -1.7048e-19 0)
(-0.0025 -2.7906e-19 0)
(-0.0025 -2.80522e-19 0)
(-0.0025 -1.65559e-19 0)
(-0.0025 1.27204e-20 0)
(-0.0025 1.71552e-21 0)
(-0.0025 9.76207e-20 0)
(-0.0025 2.14834e-19 0)
(-0.0025 2.90868e-19 0)
(-0.0025 2.10838e-18 0)
(-0.0025 -2.46263e-18 0)
(-0.0025 6.94126e-19 0)
(-0.0025 -7.82293e-20 0)
(-0.0025 2.07984e-19 0)
(-0.0025 1.52748e-19 0)
(-0.0025 1.33482e-19 0)
(-0.0025 8.19444e-20 0)
(-0.0025 -2.99982e-20 0)
(-0.0025 -3.28099e-19 0)
(-0.0025 -4.0582e-19 0)
(-0.0025 -8.85384e-20 0)
(-0.0025 3.28442e-19 0)
(-0.0025 4.41198e-19 0)
(-0.0025 6.14241e-20 0)
(-0.0025 -2.81314e-19 0)
(-0.0025 -2.75321e-19 0)
(-0.0025 -8.62955e-20 0)
(-0.0025 -3.77833e-20 0)
(-0.0025 1.88989e-20 0)
(-0.0025 -2.16042e-16 0)
(-0.0025 4.79507e-17 0)
(-0.0025 -1.10256e-17 0)
(-0.0025 2.7645e-18 0)
(-0.0025 -2.58429e-19 0)
(-0.0025 5.93059e-20 0)
(-0.0025 -4.14283e-19 0)
(-0.0025 -3.31288e-21 0)
(-0.0025 -7.68724e-20 0)
(-0.0025 -2.38627e-19 0)
(-0.0025 -1.79803e-19 0)
(-0.0025 -5.10636e-20 0)
(-0.0025 3.37048e-19 0)
(-0.0025 3.01552e-19 0)
(-0.0025 6.66565e-20 0)
(-0.0025 -9.04444e-20 0)
(-0.0025 -1.55053e-19 0)
(-0.0025 -1.29428e-19 0)
(-0.0025 -3.70238e-19 0)
(-0.0025 -2.57619e-19 0)
(-0.0025 2.9442e-16 0)
(-0.0025 -6.25075e-17 0)
(-0.0025 1.45513e-17 0)
(-0.0025 -3.47544e-18 0)
(-0.0025 5.88836e-19 0)
(-0.0025 -1.18421e-19 0)
(-0.0025 -6.39484e-20 0)
(-0.0025 -9.76541e-20 0)
(-0.0025 1.0576e-19 0)
(-0.0025 3.51924e-19 0)
(-0.0025 2.06585e-19 0)
(-0.0025 -1.64609e-19 0)
(-0.0025 -2.99695e-19 0)
(-0.0025 -2.94429e-19 0)
(-0.0025 1.58488e-19 0)
(-0.0025 3.14423e-19 0)
(-0.0025 1.14849e-19 0)
(-0.0025 -1.07821e-20 0)
(-0.0025 -5.59516e-20 0)
(-0.0025 -2.45147e-20 0)
(-0.0025 -1.6226e-16 0)
(-0.0025 3.3647e-17 0)
(-0.0025 -8.24594e-18 0)
(-0.0025 1.33954e-18 0)
(-0.0025 -6.65596e-19 0)
(-0.0025 -2.78886e-19 0)
(-0.0025 -3.97818e-19 0)
(-0.0025 -6.02196e-19 0)
(-0.0025 -3.95475e-19 0)
(-0.0025 -2.06219e-19 0)
(-0.0025 -1.35292e-19 0)
(-0.0025 -1.52453e-19 0)
(-0.0025 -1.15891e-19 0)
(-0.0025 1.03734e-20 0)
(-0.0025 3.11476e-21 0)
(-0.0025 -1.49198e-19 0)
(-0.0025 -1.73313e-19 0)
(-0.0025 -1.17437e-19 0)
(-0.0025 1.63274e-19 0)
(-0.0025 1.10618e-19 0)
(-0.0025 -8.32164e-17 0)
(-0.0025 1.7527e-17 0)
(-0.0025 -4.22594e-18 0)
(-0.0025 9.85657e-19 0)
(-0.0025 -2.92732e-19 0)
(-0.0025 -3.53471e-19 0)
(-0.0025 -3.97963e-19 0)
(-0.0025 -2.46794e-19 0)
(-0.0025 -3.17925e-19 0)
(-0.0025 -4.78223e-19 0)
(-0.0025 -3.27359e-19 0)
(-0.0025 -7.84547e-20 0)
(-0.0025 1.40648e-19 0)
(-0.0025 1.21278e-19 0)
(-0.0025 -2.141e-19 0)
(-0.0025 -1.22194e-19 0)
(-0.0025 3.53032e-20 0)
(-0.0025 2.97975e-20 0)
(-0.0025 3.48413e-20 0)
(-0.0025 9.5773e-21 0)
(-0.0025 2.65304e-16 0)
(-0.0025 -5.6951e-17 0)
(-0.0025 1.3494e-17 0)
(-0.0025 -2.96004e-18 0)
(-0.0025 5.04312e-19 0)
(-0.0025 -2.39302e-19 0)
(-0.0025 -3.75237e-20 0)
(-0.0025 -1.11229e-19 0)
(-0.0025 -1.34026e-19 0)
(-0.0025 -6.34785e-20 0)
(-0.0025 -1.1189e-19 0)
(-0.0025 2.06249e-21 0)
(-0.0025 5.15119e-20 0)
(-0.0025 -1.2745e-19 0)
(-0.0025 4.77194e-20 0)
(-0.0025 2.34194e-19 0)
(-0.0025 1.93004e-19 0)
(-0.0025 1.62684e-19 0)
(-0.0025 2.69382e-20 0)
(-0.0025 -4.24708e-20 0)
(-0.0025 -9.54919e-17 0)
(-0.0025 2.04847e-17 0)
(-0.0025 -4.9138e-18 0)
(-0.0025 8.33528e-19 0)
(-0.0025 -4.27727e-19 0)
(-0.0025 -1.83981e-19 0)
(-0.0025 -9.4099e-20 0)
(-0.0025 -2.40804e-19 0)
(-0.0025 -2.27856e-19 0)
(-0.0025 -1.10049e-19 0)
(-0.0025 -1.8718e-19 0)
(-0.0025 -4.98714e-20 0)
(-0.0025 1.17513e-19 0)
(-0.0025 9.05476e-20 0)
(-0.0025 -1.17945e-20 0)
(-0.0025 -2.94636e-19 0)
(-0.0025 -1.15913e-19 0)
(-0.0025 1.44406e-19 0)
(-0.0025 9.06917e-20 0)
(-0.0025 -1.06106e-19 0)
(-0.0025 -2.12188e-16 0)
(-0.0025 4.57167e-17 0)
(-0.0025 -1.09022e-17 0)
(-0.0025 2.28493e-18 0)
(-0.0025 -6.66377e-19 0)
(-0.0025 -1.59172e-19 0)
(-0.0025 -1.78288e-19 0)
(-0.0025 -1.47705e-19 0)
(-0.0025 -9.64012e-20 0)
(-0.0025 -1.69425e-19 0)
(-0.0025 -3.14331e-19 0)
(-0.0025 -3.06969e-19 0)
(-0.0025 -9.31794e-20 0)
(-0.0025 3.69176e-20 0)
(-0.0025 -1.04466e-19 0)
(-0.0025 -2.39447e-19 0)
(-0.0025 -4.26705e-20 0)
(-0.0025 5.85453e-20 0)
(-0.0025 4.57153e-20 0)
(-0.0025 -4.62008e-20 0)
)
;

boundaryField
{
    movingWall
    {
        type            calculated;
        value           uniform (-0.0025 -0 -0);
    }
    fixedWalls
    {
        type            calculated;
        value           uniform (-0.0025 -0 -0);
    }
    frontAndBack
    {
        type            empty;
    }
}


// ************************************************************************* //
