/*--------------------------------*- C++ -*----------------------------------*\
| =========                 |                                                 |
| \\      /  F ield         | OpenFOAM: The Open Source CFD Toolbox           |
|  \\    /   O peration     | Version:  2506                                  |
|   \\  /    A nd           | Website:  www.openfoam.com                      |
|    \\/     M anipulation  |                                                 |
\*---------------------------------------------------------------------------*/
FoamFile
{
    version     2.0;
    format      ascii;
    arch        "LSB;label=32;scalar=64";
    class       volScalarField;
    location    "6.5";
    object      nut;
}
// * * * * * * * * * * * * * * * * * * * * * * * * * * * * * * * * * * * * * //

dimensions      [0 2 -1 0 0 0 0];

internalField   nonuniform List<scalar> 
400
(
1.48345e-06
1.48345e-06
1.48345e-06
1.48345e-06
1.48345e-06
1.48345e-06
1.48345e-06
1.48344e-06
1.48345e-06
1.48344e-06
1.48345e-06
1.48344e-06
1.48345e-06
1.48344e-06
1.48345e-06
1.48344e-06
1.48345e-06
1.48345e-06
1.48345e-06
1.48345e-06
1.51225e-06
1.53693e-06
1.53467e-06
1.53374e-06
1.53191e-06
1.53096e-06
1.52914e-06
1.52817e-06
1.52637e-06
1.52538e-06
1.5236e-06
1.5226e-06
1.52084e-06
1.51982e-06
1.51807e-06
1.51704e-06
1.5153e-06
1.51426e-06
1.51339e-06
1.51201e-06
1.55333e-06
1.57981e-06
1.57732e-06
1.57634e-06
1.57432e-06
1.57331e-06
1.57133e-06
1.5703e-06
1.56835e-06
1.5673e-06
1.56537e-06
1.56431e-06
1.56241e-06
1.56135e-06
1.55947e-06
1.55839e-06
1.55653e-06
1.55545e-06
1.55452e-06
1.55307e-06
1.59121e-06
1.61903e-06
1.61643e-06
1.61538e-06
1.61326e-06
1.6122e-06
1.61012e-06
1.60903e-06
1.60699e-06
1.60587e-06
1.60386e-06
1.60274e-06
1.60075e-06
1.59962e-06
1.59765e-06
1.59652e-06
1.59457e-06
1.59343e-06
1.59246e-06
1.59093e-06
1.6192e-06
1.64807e-06
1.64535e-06
1.64428e-06
1.64208e-06
1.64097e-06
1.63882e-06
1.63767e-06
1.63557e-06
1.6344e-06
1.63233e-06
1.63114e-06
1.6291e-06
1.62791e-06
1.62589e-06
1.62469e-06
1.62268e-06
1.62149e-06
1.62049e-06
1.6189e-06
1.63742e-06
1.66697e-06
1.66422e-06
1.66309e-06
1.66086e-06
1.6597e-06
1.65752e-06
1.65633e-06
1.65418e-06
1.65298e-06
1.65087e-06
1.64965e-06
1.64756e-06
1.64634e-06
1.64427e-06
1.64304e-06
1.64098e-06
1.63976e-06
1.63873e-06
1.63711e-06
1.64852e-06
1.67852e-06
1.6757e-06
1.67458e-06
1.67229e-06
1.67114e-06
1.66889e-06
1.66773e-06
1.6655e-06
1.66432e-06
1.66214e-06
1.66094e-06
1.65879e-06
1.65758e-06
1.65545e-06
1.65423e-06
1.65213e-06
1.6509e-06
1.64985e-06
1.6482e-06
1.65522e-06
1.68547e-06
1.68264e-06
1.68149e-06
1.67921e-06
1.67803e-06
1.67578e-06
1.67458e-06
1.67236e-06
1.67115e-06
1.66897e-06
1.66774e-06
1.66559e-06
1.66435e-06
1.66222e-06
1.66098e-06
1.65886e-06
1.65762e-06
1.65656e-06
1.6549e-06
1.65949e-06
1.68991e-06
1.68705e-06
1.68591e-06
1.6836e-06
1.68242e-06
1.68015e-06
1.67895e-06
1.67673e-06
1.67549e-06
1.67332e-06
1.67206e-06
1.66991e-06
1.66866e-06
1.66653e-06
1.66527e-06
1.66315e-06
1.6619e-06
1.66084e-06
1.65916e-06
1.66255e-06
1.69308e-06
1.6902e-06
1.68906e-06
1.68674e-06
1.68556e-06
1.68329e-06
1.68208e-06
1.67985e-06
1.67862e-06
1.67642e-06
1.67518e-06
1.673e-06
1.67176e-06
1.6696e-06
1.66835e-06
1.66622e-06
1.66496e-06
1.6639e-06
1.66222e-06
1.66509e-06
1.69571e-06
1.69283e-06
1.69168e-06
1.68936e-06
1.68816e-06
1.6859e-06
1.68467e-06
1.68245e-06
1.6812e-06
1.67901e-06
1.67774e-06
1.67558e-06
1.67431e-06
1.67217e-06
1.6709e-06
1.66877e-06
1.66751e-06
1.66644e-06
1.66475e-06
1.66749e-06
1.69821e-06
1.69533e-06
1.69417e-06
1.69183e-06
1.69066e-06
1.68834e-06
1.68716e-06
1.68488e-06
1.68368e-06
1.68143e-06
1.68021e-06
1.678e-06
1.67676e-06
1.67459e-06
1.67333e-06
1.67118e-06
1.66992e-06
1.66885e-06
1.66716e-06
1.66998e-06
1.70079e-06
1.6979e-06
1.69674e-06
1.69441e-06
1.6932e-06
1.69092e-06
1.68969e-06
1.68745e-06
1.68619e-06
1.68398e-06
1.68272e-06
1.68054e-06
1.67926e-06
1.67711e-06
1.67583e-06
1.67369e-06
1.67242e-06
1.67134e-06
1.66965e-06
1.67269e-06
1.7036e-06
1.7007e-06
1.69955e-06
1.69718e-06
1.69601e-06
1.69367e-06
1.69249e-06
1.69019e-06
1.68898e-06
1.68672e-06
1.68549e-06
1.68327e-06
1.68202e-06
1.67983e-06
1.67857e-06
1.67641e-06
1.67514e-06
1.67406e-06
1.67236e-06
1.6757e-06
1.70673e-06
1.7038e-06
1.70265e-06
1.70028e-06
1.69909e-06
1.69677e-06
1.69556e-06
1.69327e-06
1.69204e-06
1.68978e-06
1.68854e-06
1.68631e-06
1.68506e-06
1.68286e-06
1.6816e-06
1.67942e-06
1.67815e-06
1.67707e-06
1.67536e-06
1.679e-06
1.71016e-06
1.70723e-06
1.70607e-06
1.70368e-06
1.7025e-06
1.70015e-06
1.69895e-06
1.69663e-06
1.69542e-06
1.69314e-06
1.6919e-06
1.68966e-06
1.68841e-06
1.6862e-06
1.68493e-06
1.68275e-06
1.68147e-06
1.68038e-06
1.67867e-06
1.6825e-06
1.71377e-06
1.71084e-06
1.70966e-06
1.70729e-06
1.70608e-06
1.70375e-06
1.70252e-06
1.70022e-06
1.69897e-06
1.6967e-06
1.69544e-06
1.69321e-06
1.69193e-06
1.68972e-06
1.68844e-06
1.68626e-06
1.68497e-06
1.68388e-06
1.68216e-06
1.68587e-06
1.71728e-06
1.71431e-06
1.71315e-06
1.71074e-06
1.70955e-06
1.70719e-06
1.70598e-06
1.70364e-06
1.70241e-06
1.70012e-06
1.69887e-06
1.69662e-06
1.69534e-06
1.69312e-06
1.69184e-06
1.68964e-06
1.68835e-06
1.68726e-06
1.68553e-06
1.68861e-06
1.71949e-06
1.71662e-06
1.71551e-06
1.71317e-06
1.71201e-06
1.70971e-06
1.70852e-06
1.70625e-06
1.70502e-06
1.7028e-06
1.70153e-06
1.69933e-06
1.69805e-06
1.69587e-06
1.69457e-06
1.6924e-06
1.69109e-06
1.69001e-06
1.68828e-06
1.68985e-06
1.68985e-06
1.68984e-06
1.68985e-06
1.68984e-06
1.68985e-06
1.68984e-06
1.68985e-06
1.68984e-06
1.68985e-06
1.68984e-06
1.68984e-06
1.68984e-06
1.68984e-06
1.68984e-06
1.68984e-06
1.68984e-06
1.68984e-06
1.68984e-06
1.68984e-06
)
;

boundaryField
{
    movingWall
    {
        type            nutkWallFunction;
        blending        stepwise;
        value           uniform 0;
    }
    fixedWalls
    {
        type            nutkWallFunction;
        blending        stepwise;
        value           uniform 0;
    }
    frontAndBack
    {
        type            empty;
    }
}


// ************************************************************************* //
