/*--------------------------------*- C++ -*----------------------------------*\
| =========                 |                                                 |
| \\      /  F ield         | OpenFOAM: The Open Source CFD Toolbox           |
|  \\    /   O peration     | Version:  2506                                  |
|   \\  /    A nd           | Website:  www.openfoam.com                      |
|    \\/     M anipulation  |                                                 |
\*---------------------------------------------------------------------------*/
FoamFile
{
    version     2.0;
    format      ascii;
    arch        "LSB;label=32;scalar=64";
    class       volScalarField;
    location    "6.5";
    object      P_A;
}
// * * * * * * * * * * * * * * * * * * * * * * * * * * * * * * * * * * * * * //

dimensions      [1 -1 -3 0 0 0 0];

internalField   nonuniform List<scalar> 
400
(
4.87499e-32
4.87497e-32
4.87495e-32
4.87495e-32
4.87492e-32
4.87493e-32
4.8749e-32
4.87493e-32
4.87486e-32
4.87493e-32
4.87484e-32
4.87492e-32
4.87484e-32
4.8749e-32
4.87485e-32
4.87488e-32
4.87486e-32
4.87487e-32
4.87487e-32
4.87487e-32
5.69251e-32
5.6011e-32
5.60794e-32
5.61076e-32
5.61661e-32
5.61952e-32
5.62545e-32
5.62852e-32
5.63451e-32
5.63774e-32
5.64381e-32
5.64718e-32
5.65334e-32
5.65686e-32
5.6631e-32
5.66676e-32
5.67309e-32
5.6769e-32
5.6801e-32
5.68526e-32
7.06409e-32
6.94576e-32
6.9546e-32
6.95842e-32
6.96597e-32
6.96982e-32
6.97753e-32
6.98151e-32
6.98931e-32
6.99346e-32
7.00132e-32
7.00566e-32
7.01359e-32
7.0181e-32
7.02614e-32
7.03079e-32
7.03893e-32
7.04373e-32
7.04784e-32
7.05442e-32
8.57442e-32
8.42708e-32
8.43818e-32
8.44281e-32
8.45219e-32
8.45696e-32
8.46655e-32
8.47146e-32
8.48118e-32
8.48628e-32
8.49612e-32
8.50143e-32
8.51137e-32
8.5169e-32
8.52695e-32
8.53269e-32
8.54285e-32
8.5488e-32
8.55392e-32
8.56211e-32
9.86336e-32
9.69066e-32
9.7035e-32
9.70899e-32
9.71999e-32
9.72549e-32
9.73677e-32
9.74242e-32
9.7539e-32
9.75976e-32
9.7714e-32
9.77749e-32
9.78926e-32
9.79561e-32
9.80749e-32
9.81413e-32
9.82611e-32
9.83303e-32
9.83906e-32
9.84865e-32
1.07897e-31
1.05983e-31
1.06127e-31
1.06186e-31
1.06309e-31
1.06369e-31
1.06495e-31
1.06556e-31
1.06684e-31
1.06748e-31
1.06877e-31
1.06945e-31
1.07075e-31
1.07145e-31
1.07277e-31
1.0735e-31
1.07483e-31
1.07559e-31
1.07626e-31
1.07732e-31
1.13904e-31
1.11869e-31
1.12021e-31
1.12085e-31
1.12213e-31
1.12279e-31
1.1241e-31
1.12479e-31
1.12611e-31
1.12683e-31
1.12817e-31
1.12891e-31
1.13027e-31
1.13104e-31
1.13242e-31
1.13322e-31
1.13461e-31
1.13544e-31
1.13614e-31
1.13728e-31
1.17667e-31
1.15556e-31
1.15714e-31
1.15778e-31
1.15914e-31
1.1598e-31
1.16118e-31
1.16187e-31
1.16326e-31
1.16399e-31
1.1654e-31
1.16615e-31
1.16758e-31
1.16837e-31
1.1698e-31
1.17063e-31
1.17208e-31
1.17293e-31
1.17366e-31
1.17484e-31
1.20122e-31
1.1796e-31
1.1812e-31
1.18188e-31
1.18326e-31
1.18394e-31
1.18534e-31
1.18605e-31
1.18748e-31
1.18821e-31
1.18966e-31
1.19042e-31
1.19189e-31
1.19269e-31
1.19417e-31
1.19501e-31
1.1965e-31
1.19737e-31
1.19812e-31
1.19932e-31
1.21906e-31
1.19708e-31
1.1987e-31
1.1994e-31
1.20079e-31
1.20149e-31
1.20292e-31
1.20364e-31
1.20509e-31
1.20584e-31
1.20731e-31
1.2081e-31
1.20957e-31
1.2104e-31
1.21189e-31
1.21275e-31
1.21426e-31
1.21515e-31
1.21591e-31
1.21713e-31
1.23407e-31
1.21179e-31
1.21343e-31
1.21413e-31
1.21555e-31
1.21625e-31
1.21771e-31
1.21843e-31
1.21992e-31
1.22066e-31
1.22216e-31
1.22294e-31
1.22446e-31
1.22528e-31
1.22681e-31
1.22766e-31
1.22921e-31
1.2301e-31
1.23088e-31
1.23211e-31
1.24846e-31
1.22587e-31
1.22755e-31
1.22826e-31
1.22969e-31
1.23042e-31
1.23186e-31
1.23263e-31
1.23408e-31
1.23489e-31
1.23636e-31
1.2372e-31
1.2387e-31
1.23956e-31
1.24108e-31
1.24197e-31
1.24352e-31
1.24443e-31
1.24522e-31
1.24647e-31
1.26351e-31
1.24063e-31
1.24232e-31
1.24304e-31
1.2445e-31
1.24521e-31
1.24671e-31
1.24745e-31
1.24897e-31
1.24974e-31
1.25127e-31
1.25208e-31
1.25363e-31
1.25448e-31
1.25605e-31
1.25693e-31
1.25851e-31
1.25943e-31
1.26023e-31
1.2615e-31
1.28007e-31
1.25685e-31
1.25857e-31
1.2593e-31
1.26076e-31
1.26152e-31
1.263e-31
1.26379e-31
1.26528e-31
1.26612e-31
1.26763e-31
1.26849e-31
1.27003e-31
1.27091e-31
1.27248e-31
1.27339e-31
1.27499e-31
1.27593e-31
1.27674e-31
1.27803e-31
1.29866e-31
1.27507e-31
1.2768e-31
1.27755e-31
1.27904e-31
1.2798e-31
1.28132e-31
1.28211e-31
1.28364e-31
1.28447e-31
1.28602e-31
1.28689e-31
1.28846e-31
1.28935e-31
1.29095e-31
1.29188e-31
1.29349e-31
1.29445e-31
1.29527e-31
1.29658e-31
1.31941e-31
1.29538e-31
1.29716e-31
1.29792e-31
1.29943e-31
1.30021e-31
1.30174e-31
1.30256e-31
1.3041e-31
1.30496e-31
1.30653e-31
1.30742e-31
1.30901e-31
1.30993e-31
1.31155e-31
1.31249e-31
1.31414e-31
1.31512e-31
1.31595e-31
1.31728e-31
1.34164e-31
1.31715e-31
1.31898e-31
1.31973e-31
1.32129e-31
1.32207e-31
1.32365e-31
1.32446e-31
1.32606e-31
1.32691e-31
1.32853e-31
1.32941e-31
1.33105e-31
1.33197e-31
1.33364e-31
1.33459e-31
1.33627e-31
1.33726e-31
1.33811e-31
1.33947e-31
1.36342e-31
1.33851e-31
1.34033e-31
1.34113e-31
1.34269e-31
1.3435e-31
1.34509e-31
1.34594e-31
1.34754e-31
1.34843e-31
1.35006e-31
1.35097e-31
1.35263e-31
1.35358e-31
1.35526e-31
1.35624e-31
1.35795e-31
1.35896e-31
1.35982e-31
1.36121e-31
1.38135e-31
1.35658e-31
1.35835e-31
1.35914e-31
1.36066e-31
1.36147e-31
1.36303e-31
1.36387e-31
1.36546e-31
1.36634e-31
1.36796e-31
1.36887e-31
1.37053e-31
1.37148e-31
1.37316e-31
1.37416e-31
1.37586e-31
1.3769e-31
1.37777e-31
1.37917e-31
1.38953e-31
1.38951e-31
1.38952e-31
1.3895e-31
1.38952e-31
1.38948e-31
1.38951e-31
1.38948e-31
1.38951e-31
1.38948e-31
1.3895e-31
1.38949e-31
1.38949e-31
1.38949e-31
1.38949e-31
1.38949e-31
1.38949e-31
1.38949e-31
1.38949e-31
1.38949e-31
)
;

boundaryField
{
    movingWall
    {
        type            calculated;
        value           nonuniform List<scalar> 
20
(
1.38953e-31
1.38951e-31
1.38952e-31
1.3895e-31
1.38952e-31
1.38948e-31
1.38951e-31
1.38948e-31
1.38951e-31
1.38948e-31
1.3895e-31
1.38949e-31
1.38949e-31
1.38949e-31
1.38949e-31
1.38949e-31
1.38949e-31
1.38949e-31
1.38949e-31
1.38949e-31
)
;
    }
    fixedWalls
    {
        type            calculated;
        value           nonuniform List<scalar> 
60
(
4.87499e-32
5.69251e-32
7.06409e-32
8.57442e-32
9.86336e-32
1.07897e-31
1.13904e-31
1.17667e-31
1.20122e-31
1.21906e-31
1.23407e-31
1.24846e-31
1.26351e-31
1.28007e-31
1.29866e-31
1.31941e-31
1.34164e-31
1.36342e-31
1.38135e-31
1.38953e-31
4.87487e-32
5.68526e-32
7.05442e-32
8.56211e-32
9.84865e-32
1.07732e-31
1.13728e-31
1.17484e-31
1.19932e-31
1.21713e-31
1.23211e-31
1.24647e-31
1.2615e-31
1.27803e-31
1.29658e-31
1.31728e-31
1.33947e-31
1.36121e-31
1.37917e-31
1.38949e-31
4.87499e-32
4.87497e-32
4.87495e-32
4.87495e-32
4.87492e-32
4.87493e-32
4.8749e-32
4.87493e-32
4.87486e-32
4.87493e-32
4.87484e-32
4.87492e-32
4.87484e-32
4.8749e-32
4.87485e-32
4.87488e-32
4.87486e-32
4.87487e-32
4.87487e-32
4.87487e-32
)
;
    }
    frontAndBack
    {
        type            empty;
    }
}


// ************************************************************************* //
