/*--------------------------------*- C++ -*----------------------------------*\
| =========                 |                                                 |
| \\      /  F ield         | OpenFOAM: The Open Source CFD Toolbox           |
|  \\    /   O peration     | Version:  2506                                  |
|   \\  /    A nd           | Website:  www.openfoam.com                      |
|    \\/     M anipulation  |                                                 |
\*---------------------------------------------------------------------------*/
FoamFile
{
    version     2.0;
    format      ascii;
    arch        "LSB;label=32;scalar=64";
    class       surfaceScalarField;
    location    "6.5";
    object      PecletNoField;
}
// * * * * * * * * * * * * * * * * * * * * * * * * * * * * * * * * * * * * * //

dimensions      [0 0 0 0 0 0 0];

oriented        oriented;

internalField   nonuniform List<scalar> 
760
(
435.409
3.3165e-12
435.409
5.52031e-12
435.409
1.6669e-12
435.409
3.07072e-13
435.409
3.47911e-14
435.409
5.83331e-14
435.409
8.49949e-14
435.409
2.77546e-14
435.409
1.45527e-14
435.409
1.60127e-14
435.409
2.71559e-15
435.409
2.0375e-14
435.409
1.96502e-14
435.409
3.14275e-14
435.409
1.83969e-14
435.409
1.87406e-14
435.409
5.01786e-14
435.409
1.44907e-14
435.409
1.39143e-14
6.83763e-14
433.855
3.29848e-12
433.433
3.83416e-12
433.493
1.2488e-12
433.545
1.16226e-13
433.598
6.30248e-14
433.65
2.11411e-15
433.702
2.98747e-14
433.754
1.00265e-14
433.807
3.02317e-14
433.859
4.78854e-14
433.911
2.02873e-14
433.963
2.91093e-14
434.015
5.28112e-15
434.068
5.82313e-15
434.12
1.28627e-14
434.172
1.37301e-14
434.225
1.06936e-14
434.261
2.40948e-14
434.303
6.61823e-14
3.24837e-14
432.28
1.56383e-12
431.832
1.70897e-12
431.897
5.50242e-13
431.953
5.79821e-15
432.01
1.53455e-13
432.066
5.56985e-14
432.122
2.80139e-14
432.177
3.31022e-15
432.233
4.8368e-15
432.289
7.68309e-14
432.345
4.25023e-14
432.4
8.25767e-14
432.456
4.21535e-14
432.511
4.27132e-15
432.566
5.16899e-14
432.621
8.13048e-15
432.676
5.32557e-14
432.714
1.40323e-14
432.758
4.73524e-14
4.12951e-14
430.844
3.03801e-12
430.377
3.73253e-12
430.444
9.52135e-13
430.503
2.44915e-13
430.562
1.93566e-14
430.62
5.70895e-14
430.679
7.84229e-14
430.737
8.4685e-14
430.796
2.88113e-14
430.854
2.91597e-14
430.912
1.34579e-15
430.97
3.28791e-14
431.028
1.12517e-14
431.085
1.49616e-14
431.143
6.1363e-14
431.2
7.28811e-15
431.258
4.81618e-14
431.297
5.60906e-14
431.343
3.80309e-14
3.19007e-14
429.788
2.39536e-12
429.306
3.35804e-12
429.376
1.0094e-12
429.436
1.75626e-13
429.497
4.11887e-14
429.557
7.92003e-14
429.618
9.47258e-14
429.678
9.53796e-14
429.738
7.31059e-14
429.798
5.00053e-14
429.858
2.4188e-15
429.918
9.78429e-16
429.978
6.12538e-14
430.037
9.09666e-14
430.097
1.39455e-14
430.156
4.17353e-14
430.215
8.51728e-14
430.256
1.27695e-16
430.304
1.34732e-14
5.84118e-14
429.104
8.68589e-13
428.611
1.23772e-12
428.682
3.63135e-13
428.744
5.09597e-14
428.806
4.79381e-14
428.868
6.62097e-14
428.93
5.5282e-14
428.991
4.42364e-14
429.053
1.52782e-14
429.114
4.93072e-14
429.175
1.70243e-14
429.236
2.04527e-14
429.297
4.45061e-15
429.358
7.90803e-15
429.418
3.6317e-14
429.479
4.98586e-14
429.539
4.43277e-16
429.581
1.91234e-14
429.63
3.09549e-14
3.14075e-14
428.687
1.52495e-12
428.188
2.37527e-12
428.26
7.15989e-13
428.323
2.3328e-13
428.386
3.8779e-14
428.448
2.01762e-14
428.511
4.15825e-14
428.573
4.3395e-14
428.636
2.67168e-14
428.698
2.18134e-14
428.76
9.93157e-14
428.821
3.61036e-14
428.883
8.43281e-15
428.945
7.61777e-15
429.006
3.7636e-14
429.067
1.90057e-16
429.129
4.30039e-14
429.171
5.12224e-15
429.22
3.98654e-14
1.21997e-14
428.436
1.81961e-12
427.934
2.74573e-12
428.007
1.06534e-12
428.069
9.5559e-14
428.133
6.97396e-14
428.196
6.35542e-14
428.259
3.66748e-14
428.322
1.72651e-15
428.384
6.54293e-16
428.447
5.57553e-15
428.509
1.12949e-14
428.572
4.62994e-14
428.634
3.11982e-14
428.696
5.30377e-14
428.758
3.89097e-14
428.819
3.52463e-14
428.881
1.95097e-14
428.923
2.94751e-14
428.974
3.62622e-14
7.00546e-15
428.276
8.40906e-13
427.772
1.11325e-12
427.845
3.4527e-13
427.908
1.93076e-13
427.972
1.5781e-13
428.035
5.53011e-14
428.099
2.72797e-14
428.161
7.35894e-14
428.225
2.27668e-14
428.287
2.96459e-15
428.35
6.23662e-15
428.413
1.2825e-14
428.475
9.09668e-15
428.537
4.15806e-15
428.6
2.54142e-14
428.662
2.65653e-14
428.724
2.53527e-15
428.766
1.45951e-14
428.816
2.70566e-14
2.10931e-14
428.162
2.82621e-13
427.656
2.39655e-13
427.729
7.46118e-14
427.793
5.1342e-14
427.857
1.52496e-15
427.92
4.03271e-14
427.984
2.62198e-14
428.047
7.39252e-14
428.11
4.16888e-14
428.173
1.7616e-14
428.236
6.24378e-14
428.299
4.94351e-15
428.362
4.72438e-14
428.424
3.0825e-14
428.487
3.16829e-14
428.549
3.51935e-14
428.611
8.10561e-14
428.654
4.67168e-14
428.704
3.09761e-14
3.46026e-14
428.068
1.55662e-13
427.56
6.80502e-13
427.633
3.59824e-13
427.697
2.40941e-14
427.761
1.07762e-13
427.825
3.50057e-14
427.889
3.22859e-15
427.952
8.34757e-15
428.015
1.82153e-14
428.078
2.48086e-15
428.142
6.65471e-14
428.205
5.47653e-14
428.267
6.43306e-14
428.33
5.61542e-14
428.393
1.48486e-14
428.455
3.59367e-14
428.517
9.98636e-15
428.56
1.6373e-15
428.611
7.4784e-15
5.38233e-14
427.978
1.03737e-12
427.469
1.90845e-12
427.542
7.99963e-13
427.606
1.38744e-13
427.67
2.37646e-14
427.734
1.24117e-14
427.798
8.31395e-14
427.862
5.02644e-14
427.926
4.52978e-15
427.989
3.62439e-14
428.052
6.18933e-14
428.115
1.38146e-14
428.178
6.80614e-15
428.241
2.27642e-14
428.304
1.31441e-15
428.366
4.1903e-14
428.429
3.30392e-14
428.472
8.396e-15
428.522
1.94973e-14
6.02013e-14
427.885
1.18298e-12
427.374
1.89331e-12
427.448
8.444e-13
427.512
1.53114e-13
427.577
5.04647e-14
427.641
1.45054e-14
427.705
4.20794e-14
427.768
1.97574e-14
427.832
7.91026e-15
427.896
4.51147e-14
427.959
6.87078e-14
428.023
3.15783e-14
428.086
6.1807e-14
428.149
6.35134e-14
428.212
1.50366e-14
428.274
2.10257e-14
428.337
2.7967e-14
428.38
1.9366e-14
428.431
4.39468e-14
5.30755e-14
427.784
3.29938e-13
427.272
1.07513e-14
427.346
2.70217e-13
427.41
1.1265e-14
427.475
2.38259e-14
427.539
2.16879e-14
427.603
6.2556e-14
427.667
9.83512e-15
427.731
1.91019e-15
427.795
7.25539e-15
427.859
7.2286e-15
427.922
5.78345e-16
427.985
1.9372e-14
428.048
1.52459e-14
428.112
1.27237e-14
428.174
6.823e-15
428.237
1.2574e-14
428.28
1.73483e-14
428.331
1.78192e-14
5.46939e-14
427.672
2.22572e-12
427.158
2.32394e-12
427.233
5.64475e-13
427.297
1.76287e-13
427.362
4.9397e-14
427.426
5.74345e-14
427.491
1.75663e-14
427.555
7.02299e-14
427.619
3.04284e-14
427.683
2.66577e-14
427.747
3.20886e-14
427.81
2.67985e-14
427.874
4.66169e-14
427.937
6.15303e-14
428.001
2.8192e-15
428.064
4.1582e-14
428.127
1.90036e-14
428.17
3.19378e-14
428.221
9.23726e-15
5.01491e-14
427.548
1.90036e-12
427.033
3.34359e-12
427.108
1.07863e-12
427.173
1.37305e-13
427.238
4.52199e-14
427.302
5.78079e-14
427.367
5.80053e-14
427.431
5.87573e-14
427.496
6.30077e-14
427.559
7.29183e-14
427.624
5.52068e-14
427.687
1.27322e-14
427.751
5.37173e-15
427.815
4.30956e-14
427.878
1.92938e-14
427.942
4.39839e-14
428.005
3.62867e-14
428.048
1.75263e-14
428.1
2.67963e-14
5.77165e-15
427.419
2.30766e-12
426.901
2.70744e-12
426.976
7.82753e-13
427.041
1.1664e-13
427.106
1.80189e-14
427.171
3.91794e-14
427.236
6.07494e-14
427.301
4.1975e-14
427.365
2.01485e-14
427.43
2.63955e-14
427.494
3.42237e-14
427.558
2.78467e-14
427.622
2.76427e-14
427.686
2.963e-15
427.75
4.97285e-14
427.813
7.95174e-16
427.876
2.66145e-14
427.92
3.36918e-14
427.972
2.64093e-15
7.34857e-15
427.293
2.24826e-12
426.774
2.73478e-12
426.85
7.56484e-13
426.915
1.6606e-13
426.98
1.53259e-14
427.045
3.19004e-14
427.11
2.76627e-15
427.175
3.04658e-14
427.24
5.71133e-14
427.304
3.79115e-14
427.369
3.76828e-14
427.433
1.98396e-14
427.497
2.33995e-14
427.561
3.31057e-14
427.625
1.30479e-14
427.689
2.86982e-14
427.753
1.58699e-14
427.796
2.02883e-14
427.848
1.20445e-14
2.19084e-14
427.203
3.42896e-12
426.692
4.90814e-12
426.765
1.3658e-12
426.827
2.2173e-13
426.891
7.06696e-14
426.954
4.3835e-14
427.018
2.74819e-14
427.081
3.05241e-14
427.145
1.61736e-14
427.208
9.4204e-15
427.271
3.81507e-14
427.335
5.44902e-14
427.398
1.89876e-14
427.462
3.22506e-14
427.525
6.1973e-16
427.588
7.42814e-14
427.652
2.30761e-14
427.696
1.66823e-14
427.747
1.10522e-14
1.18147e-14
427.722
427.722
427.722
427.722
427.722
427.722
427.722
427.722
427.722
427.722
427.722
427.722
427.722
427.722
427.722
427.722
427.722
427.722
427.722
)
;

boundaryField
{
    movingWall
    {
        type            calculated;
        value           uniform 0;
    }
    fixedWalls
    {
        type            calculated;
        value           nonuniform List<scalar> 
60
(
250
250
250
250
250
250
250
250
250
250
250
250
250
250
250
250
250
250
250
250
250
250
250
250
250
250
250
250
250
250
250
250
250
250
250
250
250
250
250
250
0
0
0
0
0
0
0
0
0
0
0
0
0
0
0
0
0
0
0
0
)
;
    }
    frontAndBack
    {
        type            empty;
    }
}


// ************************************************************************* //
