/*--------------------------------*- C++ -*----------------------------------*\
| =========                 |                                                 |
| \\      /  F ield         | OpenFOAM: The Open Source CFD Toolbox           |
|  \\    /   O peration     | Version:  2506                                  |
|   \\  /    A nd           | Website:  www.openfoam.com                      |
|    \\/     M anipulation  |                                                 |
\*---------------------------------------------------------------------------*/
FoamFile
{
    version     2.0;
    format      ascii;
    arch        "LSB;label=32;scalar=64";
    class       surfaceScalarField;
    location    "6.5";
    object      phi;
}
// * * * * * * * * * * * * * * * * * * * * * * * * * * * * * * * * * * * * * //

dimensions      [0 3 -1 0 0 0 0];

oriented        oriented;

internalField   nonuniform List<scalar> 
760
(
-5e-05
3.81327e-19
-5e-05
-6.35398e-19
-5e-05
1.91844e-19
-5e-05
-3.53396e-20
-5e-05
4.00365e-21
-5e-05
6.71251e-21
-5e-05
9.77976e-21
-5e-05
3.19339e-21
-5e-05
1.67427e-21
-5e-05
-1.84217e-21
-5e-05
-3.12389e-22
-5e-05
2.34374e-21
-5e-05
2.26019e-21
-5e-05
3.61467e-21
-5e-05
2.11578e-21
-5e-05
2.15521e-21
-5e-05
5.77023e-21
-5e-05
1.66626e-21
-5e-05
-1.59992e-21
-7.86173e-21
-5e-05
-3.80407e-19
-5e-05
4.43167e-19
-5e-05
-1.44311e-19
-5e-05
1.34299e-20
-5e-05
-7.28132e-21
-5e-05
2.44225e-22
-5e-05
3.45059e-21
-5e-05
1.15799e-21
-5e-05
3.49097e-21
-5e-05
5.52901e-21
-5e-05
2.34207e-21
-5e-05
3.36022e-21
-5e-05
6.09527e-22
-5e-05
6.72023e-22
-5e-05
-1.4842e-21
-5e-05
-1.58414e-21
-5e-05
-1.23361e-21
-5e-05
-2.7793e-21
-5e-05
-7.63344e-21
-3.7462e-21
-5e-05
-1.80971e-19
-5e-05
1.98231e-19
-5e-05
-6.38108e-20
-5e-05
-6.72352e-22
-5e-05
-1.77912e-20
-5e-05
-6.45699e-21
-5e-05
-3.24701e-21
-5e-05
3.83644e-22
-5e-05
5.60473e-22
-5e-05
8.90208e-21
-5e-05
4.92373e-21
-5e-05
9.5653e-21
-5e-05
4.88204e-21
-5e-05
-4.94639e-22
-5e-05
-5.98494e-21
-5e-05
-9.41303e-22
-5e-05
6.16463e-21
-5e-05
1.62416e-21
-5e-05
-5.48033e-21
-4.77867e-21
-5e-05
3.52568e-19
-5e-05
-4.34225e-19
-5e-05
1.10742e-19
-5e-05
-2.84832e-20
-5e-05
2.25072e-21
-5e-05
-6.63756e-21
-5e-05
-9.11624e-21
-5e-05
-9.84324e-21
-5e-05
-3.34824e-21
-5e-05
-3.3884e-21
-5e-05
-1.56355e-22
-5e-05
-3.81954e-21
-5e-05
-1.30687e-21
-5e-05
-1.7376e-21
-5e-05
7.12533e-21
-5e-05
-8.46194e-22
-5e-05
-5.59092e-21
-5e-05
-6.5107e-21
-5e-05
-4.41404e-21
-3.70205e-21
-5e-05
-2.7854e-19
-5e-05
3.91464e-19
-5e-05
-1.17644e-19
-5e-05
2.0467e-20
-5e-05
-4.79909e-21
-5e-05
-9.2271e-21
-5e-05
-1.10338e-20
-5e-05
-1.11089e-20
-5e-05
-8.51309e-21
-5e-05
-5.82246e-21
-5e-05
-2.81587e-22
-5e-05
1.13893e-22
-5e-05
7.12892e-21
-5e-05
1.05859e-20
-5e-05
1.62257e-21
-5e-05
-4.85543e-21
-5e-05
-9.90716e-21
-5e-05
1.48517e-23
-5e-05
-1.56687e-21
-6.79212e-21
-5e-05
1.0113e-19
-5e-05
-1.44476e-19
-5e-05
4.23777e-20
-5e-05
-5.9464e-21
-5e-05
-5.59273e-21
-5e-05
-7.72364e-21
-5e-05
-6.44766e-21
-5e-05
-5.15886e-21
-5e-05
1.78142e-21
-5e-05
5.74856e-21
-5e-05
1.98443e-21
-5e-05
2.38382e-21
-5e-05
-5.18637e-22
-5e-05
-9.21441e-22
-5e-05
-4.23088e-21
-5e-05
-5.80784e-21
-5e-05
5.16266e-23
-5e-05
-2.22699e-21
-5e-05
3.60448e-21
3.65667e-21
-5e-05
1.77686e-19
-5e-05
-2.77479e-19
-5e-05
8.36216e-20
-5e-05
-2.72425e-20
-5e-05
-4.52774e-21
-5e-05
-2.35548e-21
-5e-05
-4.85365e-21
-5e-05
-5.0647e-21
-5e-05
-3.11756e-21
-5e-05
2.54513e-21
-5e-05
1.15857e-20
-5e-05
4.21125e-21
-5e-05
9.8345e-22
-5e-05
-8.88305e-22
-5e-05
4.38792e-21
-5e-05
-2.2156e-23
-5e-05
-5.01232e-21
-5e-05
5.96959e-22
-5e-05
4.6456e-21
1.42146e-21
-5e-05
-2.12119e-19
-5e-05
3.20912e-19
-5e-05
-1.24484e-19
-5e-05
1.11648e-20
-5e-05
-8.14657e-21
-5e-05
-7.42327e-21
-5e-05
-4.28288e-21
-5e-05
2.01601e-22
-5e-05
-7.63857e-23
-5e-05
6.50849e-22
-5e-05
1.31824e-21
-5e-05
5.40309e-21
-5e-05
-3.64012e-21
-5e-05
-6.18765e-21
-5e-05
-4.53857e-21
-5e-05
4.11081e-21
-5e-05
2.27503e-21
-5e-05
-3.43672e-21
-5e-05
-4.22771e-21
-8.16629e-22
-5e-05
9.80582e-20
-5e-05
-1.30155e-19
-5e-05
4.03573e-20
-5e-05
-2.25657e-20
-5e-05
-1.84404e-20
-5e-05
-6.46137e-21
-5e-05
3.18674e-21
-5e-05
8.59562e-21
-5e-05
2.65877e-21
-5e-05
3.46177e-22
-5e-05
7.28118e-22
-5e-05
-1.49714e-21
-5e-05
1.06172e-21
-5e-05
-4.85254e-22
-5e-05
-2.96535e-21
-5e-05
3.09932e-21
-5e-05
-2.95731e-22
-5e-05
-1.70229e-21
-5e-05
3.15544e-21
2.4596e-21
-5e-05
3.29643e-20
-5e-05
-2.80262e-20
-5e-05
-8.72325e-21
-5e-05
-6.00207e-21
-5e-05
-1.78239e-22
-5e-05
-4.71297e-21
-5e-05
-3.06368e-21
-5e-05
-8.63695e-21
-5e-05
-4.86973e-21
-5e-05
-2.05754e-21
-5e-05
7.29131e-21
-5e-05
5.77227e-22
-5e-05
-5.51538e-21
-5e-05
-3.59821e-21
-5e-05
3.69767e-21
-5e-05
4.10695e-21
-5e-05
9.45721e-21
-5e-05
5.45009e-21
-5e-05
-3.61341e-21
-4.03587e-21
-5e-05
-1.816e-20
-5e-05
7.95981e-20
-5e-05
-4.20781e-20
-5e-05
2.81731e-21
-5e-05
-1.2598e-20
-5e-05
-4.09196e-21
-5e-05
-3.7733e-22
-5e-05
9.7549e-22
-5e-05
-2.12821e-21
-5e-05
2.89825e-22
-5e-05
-7.77285e-21
-5e-05
-6.39602e-21
-5e-05
-7.51175e-21
-5e-05
-6.5563e-21
-5e-05
-1.73333e-21
-5e-05
4.19457e-21
-5e-05
1.16541e-21
-5e-05
-1.91052e-22
-5e-05
8.72553e-22
6.279e-21
-5e-05
1.21048e-19
-5e-05
-2.23279e-19
-5e-05
9.35685e-20
-5e-05
-1.62267e-20
-5e-05
-2.77882e-21
-5e-05
1.45116e-21
-5e-05
9.7187e-21
-5e-05
5.87512e-21
-5e-05
-5.29357e-22
-5e-05
-4.23508e-21
-5e-05
-7.23082e-21
-5e-05
-1.61375e-21
-5e-05
-7.94907e-22
-5e-05
2.65841e-21
-5e-05
-1.53468e-22
-5e-05
-4.892e-21
-5e-05
-3.85648e-21
-5e-05
-9.79912e-22
-5e-05
2.27535e-21
7.02453e-21
-5e-05
-1.3807e-19
-5e-05
2.21559e-19
-5e-05
-9.87889e-20
-5e-05
1.79115e-20
-5e-05
5.90225e-21
-5e-05
1.69635e-21
-5e-05
-4.92005e-21
-5e-05
-2.30986e-21
-5e-05
9.24615e-22
-5e-05
-5.27282e-21
-5e-05
-8.02875e-21
-5e-05
-3.68964e-21
-5e-05
7.22024e-21
-5e-05
7.41877e-21
-5e-05
1.75604e-21
-5e-05
-2.45521e-21
-5e-05
-3.26516e-21
-5e-05
-2.26074e-21
-5e-05
-5.12978e-21
-6.19444e-21
-5e-05
-3.85176e-20
-5e-05
1.25846e-21
-5e-05
3.16214e-20
-5e-05
-1.31813e-21
-5e-05
2.78733e-21
-5e-05
2.53695e-21
-5e-05
-7.31606e-21
-5e-05
1.15012e-21
-5e-05
-2.23334e-22
-5e-05
-8.48192e-22
-5e-05
8.44896e-22
-5e-05
-6.75913e-23
-5e-05
2.26358e-21
-5e-05
1.78126e-21
-5e-05
1.4863e-21
-5e-05
7.96932e-22
-5e-05
-1.46838e-21
-5e-05
2.0257e-21
-5e-05
-2.08049e-21
-6.38489e-21
-5e-05
2.59905e-19
-5e-05
-2.72097e-19
-5e-05
6.60747e-20
-5e-05
-2.06333e-20
-5e-05
-5.78043e-21
-5e-05
-6.7203e-21
-5e-05
-2.05499e-21
-5e-05
-8.21497e-21
-5e-05
-3.55859e-21
-5e-05
3.11728e-21
-5e-05
3.75163e-21
-5e-05
-3.1328e-21
-5e-05
-5.44857e-21
-5e-05
-7.19088e-21
-5e-05
-3.2941e-22
-5e-05
4.85813e-21
-5e-05
2.21983e-21
-5e-05
-3.73027e-21
-5e-05
-1.07879e-21
5.85591e-21
-5e-05
-2.21976e-19
-5e-05
3.916e-19
-5e-05
-1.26297e-19
-5e-05
1.60754e-20
-5e-05
-5.29321e-21
-5e-05
-6.76601e-21
-5e-05
-6.78775e-21
-5e-05
-6.87504e-21
-5e-05
-7.37091e-21
-5e-05
-8.52939e-21
-5e-05
-6.45639e-21
-5e-05
-1.48886e-21
-5e-05
-6.28032e-22
-5e-05
5.03795e-21
-5e-05
2.25505e-21
-5e-05
-5.14027e-21
-5e-05
-4.23992e-21
-5e-05
-2.04764e-21
-5e-05
3.13038e-21
-6.74153e-22
-5e-05
2.69631e-19
-5e-05
-3.1719e-19
-5e-05
9.16806e-20
-5e-05
-1.36602e-20
-5e-05
2.10983e-21
-5e-05
-4.58705e-21
-5e-05
-7.111e-21
-5e-05
-4.91286e-21
-5e-05
-2.35777e-21
-5e-05
-3.08846e-21
-5e-05
-4.00363e-21
-5e-05
-3.25727e-21
-5e-05
3.23279e-21
-5e-05
3.46482e-22
-5e-05
-5.81396e-21
-5e-05
-9.29569e-23
-5e-05
3.11069e-21
-5e-05
3.93745e-21
-5e-05
3.08607e-22
8.58596e-22
-5e-05
2.62759e-19
-5e-05
-3.20473e-19
-5e-05
8.86256e-20
-5e-05
-1.94528e-20
-5e-05
-1.79496e-21
-5e-05
-3.73579e-21
-5e-05
3.23887e-22
-5e-05
-3.5667e-21
-5e-05
-6.68508e-21
-5e-05
-4.43705e-21
-5e-05
-4.40943e-21
-5e-05
2.32127e-21
-5e-05
2.73727e-21
-5e-05
-3.87228e-21
-5e-05
1.52589e-21
-5e-05
3.35574e-21
-5e-05
1.85536e-21
-5e-05
2.37164e-21
-5e-05
1.40784e-21
-2.56042e-21
-5e-05
-4.00819e-19
-5e-05
5.74482e-19
-5e-05
-1.59843e-19
-5e-05
2.59484e-20
-5e-05
-8.2694e-21
-5e-05
-5.12911e-21
-5e-05
-3.21532e-21
-5e-05
-3.57107e-21
-5e-05
-1.89199e-21
-5e-05
-1.10194e-21
-5e-05
-4.46223e-21
-5e-05
-6.373e-21
-5e-05
-2.22052e-21
-5e-05
3.77136e-21
-5e-05
-7.24642e-23
-5e-05
-8.68514e-21
-5e-05
-2.69786e-21
-5e-05
1.95024e-21
-5e-05
1.29199e-21
-1.38103e-21
-5e-05
-5e-05
-5e-05
-5e-05
-5e-05
-5e-05
-5e-05
-5e-05
-5e-05
-5e-05
-5e-05
-5e-05
-5e-05
-5e-05
-5e-05
-5e-05
-5e-05
-5e-05
-5e-05
)
;

boundaryField
{
    movingWall
    {
        type            calculated;
        value           uniform 0;
    }
    fixedWalls
    {
        type            calculated;
        value           nonuniform List<scalar> 
60
(
5e-05
5e-05
5e-05
5e-05
5e-05
5e-05
5e-05
5e-05
5e-05
5e-05
5e-05
5e-05
5e-05
5e-05
5e-05
5e-05
5e-05
5e-05
5e-05
5e-05
-5e-05
-5e-05
-5e-05
-5e-05
-5e-05
-5e-05
-5e-05
-5e-05
-5e-05
-5e-05
-5e-05
-5e-05
-5e-05
-5e-05
-5e-05
-5e-05
-5e-05
-5e-05
-5e-05
-5e-05
0
0
0
0
0
0
0
0
0
0
0
0
0
0
0
0
0
0
0
0
)
;
    }
    frontAndBack
    {
        type            empty;
    }
}


// ************************************************************************* //
