/*--------------------------------*- C++ -*----------------------------------*\
| =========                 |                                                 |
| \\      /  F ield         | OpenFOAM: The Open Source CFD Toolbox           |
|  \\    /   O peration     | Version:  2506                                  |
|   \\  /    A nd           | Website:  www.openfoam.com                      |
|    \\/     M anipulation  |                                                 |
\*---------------------------------------------------------------------------*/
FoamFile
{
    version     2.0;
    format      ascii;
    arch        "LSB;label=32;scalar=64";
    class       volScalarField;
    location    "6.5";
    object      pNear;
}
// * * * * * * * * * * * * * * * * * * * * * * * * * * * * * * * * * * * * * //

dimensions      [0 2 -2 0 0 0 0];

internalField   nonuniform List<scalar> 
400
(
6.88778e-16
3.89074e-15
2.73867e-15
3.03405e-15
2.99825e-15
3.396e-15
3.79118e-15
3.7621e-15
3.86145e-15
4.02814e-15
4.12074e-15
4.20078e-15
4.37508e-15
4.64028e-15
4.77833e-15
4.72894e-15
4.76624e-15
4.49055e-15
4.28187e-15
4.00873e-15
3.60332e-15
0
2.81075e-15
2.85355e-15
3.25561e-15
3.35001e-15
3.68055e-15
3.76686e-15
3.90447e-15
4.22536e-15
4.14867e-15
4.194e-15
4.3676e-15
4.55822e-15
4.69383e-15
4.68534e-15
4.5696e-15
4.48005e-15
4.26831e-15
4.28089e-15
3.5098e-15
3.6247e-15
3.09703e-15
3.28674e-15
3.33802e-15
3.57369e-15
3.77356e-15
3.93596e-15
4.01059e-15
4.21385e-15
4.21872e-15
4.21921e-15
4.35698e-15
4.408e-15
4.56123e-15
4.61367e-15
4.5566e-15
4.46196e-15
4.41451e-15
4.29297e-15
3.32993e-15
4.31497e-15
3.45937e-15
3.60402e-15
3.73827e-15
3.81858e-15
3.87707e-15
3.94503e-15
4.17111e-15
4.15086e-15
4.20378e-15
3.96315e-15
4.1299e-15
4.28937e-15
4.53268e-15
4.48916e-15
4.28714e-15
4.4079e-15
4.48527e-15
4.45601e-15
3.91685e-15
2.60974e-15
3.79096e-15
3.84388e-15
3.8699e-15
3.83469e-15
3.9894e-15
4.08536e-15
4.14753e-15
4.11633e-15
4.08892e-15
3.93534e-15
4.03083e-15
4.31374e-15
4.22949e-15
4.45187e-15
4.44183e-15
4.46067e-15
4.53289e-15
4.58978e-15
3.29396e-15
5.53485e-15
4.09508e-15
4.11783e-15
3.90323e-15
4.04186e-15
4.07727e-15
4.21376e-15
4.27134e-15
4.252e-15
4.05472e-15
3.903e-15
3.81474e-15
4.03419e-15
4.20936e-15
4.4667e-15
4.50548e-15
4.33768e-15
4.50202e-15
4.78046e-15
4.13821e-15
5.14514e-15
4.09498e-15
4.22666e-15
4.18934e-15
4.25618e-15
4.17036e-15
4.25489e-15
4.17702e-15
4.15186e-15
4.12884e-15
3.82859e-15
3.89548e-15
4.08262e-15
4.2825e-15
4.45953e-15
4.35619e-15
4.44676e-15
4.39809e-15
4.70462e-15
5.18478e-15
1.53482e-15
4.55191e-15
4.38489e-15
4.28015e-15
4.21114e-15
4.34341e-15
4.47663e-15
4.29506e-15
4.22846e-15
3.9923e-15
3.9449e-15
3.95863e-15
4.16154e-15
4.1947e-15
4.50232e-15
4.47328e-15
4.38046e-15
4.35553e-15
4.6629e-15
4.31605e-15
6.53541e-15
4.4466e-15
4.69127e-15
4.33549e-15
4.38325e-15
4.34346e-15
4.43179e-15
4.27607e-15
4.20822e-15
4.13404e-15
3.95853e-15
4.00882e-15
4.15195e-15
4.266e-15
4.33219e-15
4.35279e-15
4.51334e-15
4.46604e-15
4.65613e-15
4.24558e-15
3.79274e-15
4.69373e-15
4.67432e-15
4.66908e-15
4.44564e-15
4.36752e-15
4.19033e-15
4.24153e-15
4.33481e-15
4.19967e-15
3.87855e-15
3.77296e-15
4.02682e-15
4.28326e-15
4.16092e-15
4.30467e-15
4.50805e-15
4.38053e-15
4.56699e-15
4.37843e-15
4.36809e-15
4.58669e-15
4.64116e-15
4.50337e-15
4.51054e-15
4.41815e-15
4.36124e-15
4.24213e-15
4.3104e-15
3.82128e-15
3.73068e-15
3.7798e-15
4.07853e-15
4.1655e-15
4.06505e-15
4.03729e-15
4.3336e-15
4.44779e-15
4.6644e-15
4.38203e-15
6.14392e-15
4.57412e-15
4.57346e-15
4.66995e-15
4.54903e-15
4.25261e-15
4.1812e-15
4.16586e-15
4.05298e-15
3.78481e-15
3.7342e-15
3.89459e-15
4.13782e-15
4.00254e-15
3.97044e-15
4.19178e-15
4.41262e-15
4.4008e-15
4.43343e-15
4.97967e-15
1.73527e-15
4.65197e-15
4.22112e-15
4.70238e-15
4.36399e-15
3.90873e-15
4.00116e-15
4.09303e-15
3.87691e-15
3.81745e-15
3.7403e-15
4.0656e-15
4.03513e-15
3.92778e-15
4.08857e-15
4.26881e-15
4.39487e-15
4.41233e-15
4.2351e-15
4.31627e-15
7.18099e-15
4.42974e-15
4.36095e-15
4.37902e-15
4.18574e-15
3.91618e-15
3.90467e-15
3.8429e-15
3.79435e-15
3.90148e-15
3.85427e-15
3.91832e-15
3.92606e-15
3.89631e-15
4.16713e-15
4.27621e-15
4.33369e-15
4.41139e-15
4.40454e-15
4.78824e-15
3.51693e-15
4.44749e-15
4.23867e-15
4.16767e-15
3.92532e-15
3.96945e-15
3.71194e-15
3.74852e-15
3.82002e-15
3.77014e-15
3.73969e-15
3.74107e-15
3.89088e-15
3.98884e-15
4.16609e-15
4.26522e-15
4.17025e-15
4.30657e-15
4.56714e-15
4.84552e-15
2.59249e-15
4.23641e-15
4.13386e-15
4.30022e-15
3.84176e-15
3.84479e-15
3.72269e-15
3.60739e-15
3.59937e-15
3.57256e-15
3.63336e-15
3.8003e-15
4.00122e-15
3.97032e-15
4.01153e-15
4.23623e-15
4.26154e-15
4.29586e-15
4.44533e-15
3.30769e-15
5.89306e-15
4.12094e-15
4.28384e-15
4.04773e-15
3.91626e-15
3.67494e-15
3.52264e-15
3.51749e-15
3.6e-15
3.55903e-15
3.61595e-15
3.79689e-15
3.83201e-15
3.98417e-15
4.18884e-15
4.29476e-15
4.31191e-15
4.26534e-15
4.47305e-15
3.66327e-15
3.72815e-15
4.03115e-15
3.99349e-15
3.97302e-15
3.8057e-15
3.65001e-15
3.48239e-15
3.40352e-15
3.48667e-15
3.55048e-15
3.70086e-15
3.75711e-15
3.88358e-15
4.17831e-15
4.18387e-15
4.31931e-15
4.28156e-15
4.30876e-15
4.43602e-15
4.24412e-15
2.2176e-15
3.88305e-15
3.87849e-15
3.98475e-15
3.77042e-15
3.58699e-15
3.48366e-15
3.51041e-15
3.56801e-15
3.66267e-15
3.6902e-15
3.72328e-15
4.17794e-15
4.26157e-15
4.15322e-15
4.20982e-15
4.32084e-15
4.27718e-15
4.5263e-15
2.78438e-15
5.03989e-15
3.87196e-15
4.05565e-15
3.87148e-15
3.84655e-15
3.62524e-15
3.44219e-15
3.4902e-15
3.518e-15
3.76831e-15
3.85175e-15
3.82427e-15
4.17035e-15
4.2363e-15
4.27697e-15
4.16891e-15
4.29245e-15
4.38759e-15
4.59327e-15
)
;

boundaryField
{
    movingWall
    {
        type            zeroGradient;
    }
    fixedWalls
    {
        type            calculated;
        value           nonuniform List<scalar> 
60
(
1.12596e-15
3.15211e-15
3.49685e-15
3.44495e-15
3.73538e-15
3.51403e-15
4.16856e-15
4.89749e-15
4.43579e-15
4.27607e-15
4.35904e-15
4.47114e-15
4.79052e-15
4.48658e-15
4.72604e-15
4.60625e-15
3.5917e-15
3.69706e-15
3.93803e-15
3.00334e-15
4.04956e-15
4.24188e-15
4.31562e-15
4.45162e-15
4.59831e-15
4.74048e-15
4.70974e-15
4.66814e-15
4.64377e-15
4.59498e-15
4.61515e-15
4.43832e-15
4.29026e-15
4.40352e-15
4.52448e-15
4.46776e-15
4.46334e-15
4.45511e-15
4.5228e-15
4.58323e-15
1.16907e-15
3.23764e-15
2.95579e-15
2.98437e-15
3.06328e-15
3.39561e-15
3.72754e-15
3.78136e-15
3.87155e-15
4.01703e-15
4.11885e-15
4.21492e-15
4.38871e-15
4.6212e-15
4.75021e-15
4.74194e-15
4.71929e-15
4.5006e-15
4.2722e-15
4.0497e-15
)
;
    }
    frontAndBack
    {
        type            empty;
    }
}


// ************************************************************************* //
