/*--------------------------------*- C++ -*----------------------------------*\
| =========                 |                                                 |
| \\      /  F ield         | OpenFOAM: The Open Source CFD Toolbox           |
|  \\    /   O peration     | Version:  2506                                  |
|   \\  /    A nd           | Website:  www.openfoam.com                      |
|    \\/     M anipulation  |                                                 |
\*---------------------------------------------------------------------------*/
FoamFile
{
    version     2.0;
    format      ascii;
    arch        "LSB;label=32;scalar=64";
    class       volScalarField;
    location    "6.5";
    object      QField;
}
// * * * * * * * * * * * * * * * * * * * * * * * * * * * * * * * * * * * * * //

dimensions      [0 0 -2 0 0 0 0];

internalField   nonuniform List<scalar> 
400
(
-2.4377e-23
-8.56638e-24
-2.28224e-25
7.30132e-27
-4.16538e-27
5.50569e-28
-5.92969e-28
0
1.38312e-28
-9.3531e-29
0
-2.63447e-28
0
-3.00217e-28
4.78783e-28
4.09823e-28
-1.04942e-27
2.01794e-28
7.92183e-28
-1.07893e-27
-4.45847e-23
-1.43805e-23
-1.00173e-24
-1.93773e-26
-1.36077e-27
1.30287e-27
-1.04149e-27
-6.30787e-29
7.08343e-28
-1.91782e-27
1.53966e-28
0
1.99568e-28
0
2.19469e-28
9.37018e-30
-2.30516e-28
0
-4.58462e-28
0
-5.06792e-23
-1.67509e-23
-4.13365e-25
1.44734e-26
-6.05709e-27
1.54703e-27
6.82914e-28
2.03498e-28
1.48398e-27
-4.31376e-29
0
2.55056e-28
1.82639e-27
2.62046e-28
2.10921e-28
0
-1.02666e-28
4.49169e-28
9.11871e-29
0
-4.58813e-23
-1.29116e-23
-6.70146e-25
4.58686e-27
-9.88666e-27
0
-8.87268e-28
-1.7708e-27
0
-1.6848e-27
0
-2.30188e-27
-2.84764e-28
5.55792e-28
-1.70327e-27
2.96032e-28
-1.9542e-27
3.18892e-28
-3.37221e-28
0
-3.63414e-23
-1.05282e-23
-6.51937e-25
-3.01071e-26
1.51532e-28
3.95716e-27
1.00588e-27
-2.21916e-28
-1.26259e-27
-7.56074e-28
-6.23577e-28
4.44625e-29
0
-6.97087e-28
-4.47314e-28
3.73921e-27
-4.30636e-28
3.95001e-28
5.52802e-29
-4.77816e-28
-2.77181e-23
-8.92466e-24
-3.69072e-25
-2.7392e-26
7.28338e-27
-5.43347e-28
0
-9.5758e-28
-1.27766e-27
-1.86737e-27
-7.41042e-30
-8.92113e-29
-1.67553e-28
3.31583e-28
5.14493e-28
0
-8.77128e-28
6.45595e-28
-5.07072e-28
-3.8854e-28
-1.53822e-23
-7.46784e-24
1.47295e-25
-6.6054e-26
1.53579e-26
-1.90513e-27
2.79559e-28
4.4702e-28
1.81301e-27
5.47365e-28
-1.05706e-27
-2.6886e-28
2.29937e-28
-1.85764e-28
-8.40234e-28
-7.0406e-28
9.22487e-28
1.32406e-27
1.04622e-29
-4.17795e-28
-7.59344e-24
-3.24798e-24
-2.44663e-25
1.73165e-26
-2.45353e-27
-9.09918e-29
0
-4.01227e-28
3.15986e-28
1.44569e-27
1.76356e-28
-1.1522e-27
-3.07523e-28
0
-5.71001e-28
-9.98123e-28
6.23274e-28
-2.48501e-28
-5.94583e-28
0
-7.33782e-24
-3.19843e-24
-3.1117e-26
-2.08575e-26
5.68114e-27
0
-6.64173e-28
-5.99213e-28
1.972e-27
3.61392e-28
-3.32574e-28
-9.66643e-28
8.48074e-28
-1.86459e-28
-6.63509e-28
0
1.07353e-27
-3.06126e-28
0
9.27608e-29
-6.79007e-24
-3.44506e-24
1.02617e-25
-2.58707e-26
1.07289e-26
1.73792e-28
6.61994e-28
-2.90981e-27
-5.42104e-28
5.081e-28
-7.45834e-29
4.49723e-28
-3.42285e-28
-5.52465e-29
-4.84538e-28
0
2.29766e-28
-3.69332e-28
-3.46962e-28
-1.55706e-28
-2.88371e-24
-3.68328e-24
1.61479e-25
-5.61758e-26
1.00306e-26
-2.42429e-27
7.75854e-28
-4.03128e-28
-8.39983e-28
3.75942e-28
-2.13392e-27
-2.87732e-28
0
0
1.38093e-27
5.84374e-28
-4.46627e-28
3.98528e-28
-5.33775e-29
-7.41747e-28
2.62407e-24
-1.09002e-24
-1.80523e-28
1.30939e-26
-1.31971e-27
-1.04272e-29
-4.9565e-28
2.50919e-28
0
1.52751e-27
2.54293e-29
-1.34881e-28
-9.61652e-28
-1.62239e-27
3.17934e-28
0
-1.32967e-27
2.31063e-28
2.09519e-28
-1.09657e-27
3.06595e-24
-3.0483e-25
-1.11414e-25
8.34164e-27
1.24931e-27
-1.6155e-28
-1.86518e-27
-1.70209e-28
-7.49546e-28
3.08153e-28
7.79196e-28
1.85112e-27
-1.91031e-27
-6.31086e-28
2.60182e-27
7.30199e-28
-2.11439e-28
0
0
-1.18934e-27
-4.69935e-24
-2.56881e-24
-1.8094e-25
1.10498e-26
0
3.37954e-28
-5.63892e-28
7.55264e-28
5.10256e-28
-1.11597e-28
-1.12459e-27
-1.12074e-27
-2.98721e-28
-5.0441e-28
8.50006e-28
2.40378e-28
4.22666e-29
3.84736e-28
1.58683e-28
-6.80724e-28
-1.18545e-23
-6.13539e-24
2.83849e-25
-2.28628e-26
1.09191e-26
-2.85659e-27
-1.31875e-29
-7.46627e-28
6.29438e-28
2.92808e-28
5.60027e-28
-1.09927e-28
-9.82155e-28
1.81067e-28
2.64048e-27
1.63868e-29
-7.05177e-28
-3.57364e-28
5.63545e-28
-7.98487e-28
-1.63507e-23
-6.62249e-24
3.02342e-26
-4.59299e-26
8.77349e-27
-8.70974e-28
1.0516e-27
-7.62092e-30
-1.318e-27
-2.64637e-27
-1.39098e-27
-1.35478e-28
-4.7742e-28
-9.0142e-28
3.46015e-28
-5.64197e-28
-3.4435e-29
0
0
0
-2.44915e-23
-7.81546e-24
-4.00699e-25
-1.7852e-26
3.66937e-28
4.56367e-28
-6.21952e-28
-1.73554e-28
5.01832e-28
-1.34301e-28
4.08057e-28
6.74941e-28
-2.1655e-28
2.35191e-28
5.27946e-28
2.70404e-28
-3.97162e-28
-3.03708e-28
-1.47815e-28
1.65979e-28
-3.61169e-23
-1.25458e-23
-5.77914e-26
-5.64988e-26
1.17993e-26
-2.34984e-27
5.5543e-28
-2.09256e-28
1.03542e-28
4.79991e-29
2.13179e-28
1.46171e-28
-4.21253e-28
2.0982e-29
1.56838e-27
4.72553e-28
0
1.80049e-28
0
1.68404e-29
-3.96545e-23
-1.19496e-23
-6.45099e-25
-2.76102e-26
3.30956e-27
0
-2.9402e-29
1.4502e-28
-1.82558e-28
0
-1.30488e-28
-3.35053e-28
-3.04485e-28
-1.78208e-28
6.70234e-28
-8.01274e-28
2.20491e-28
3.36909e-28
0
-1.67127e-29
-1.90595e-23
-5.70226e-24
-4.11275e-25
1.10977e-26
-2.6499e-27
-3.72048e-28
-2.95322e-28
8.87813e-29
-2.35489e-29
0
0
-3.86887e-28
0
-1.13724e-28
0
-1.15811e-27
0
0
-1.47893e-28
-1.64605e-28
)
;

boundaryField
{
    movingWall
    {
        type            calculated;
        value           nonuniform List<scalar> 
20
(
5.84207e-24
4.46698e-24
-1.0004e-24
9.09122e-26
-2.1708e-26
3.6448e-27
-7.12088e-28
4.36378e-28
-1.15748e-28
-7.74242e-28
-9.77313e-28
-1.33127e-27
1.22173e-27
-1.80154e-28
-9.81845e-28
-1.85733e-27
-1.05868e-27
0
-1.98259e-28
-1.98639e-28
)
;
    }
    fixedWalls
    {
        type            calculated;
        value           nonuniform List<scalar> 
60
(
-1.38398e-22
-2.56667e-22
-2.58037e-22
-2.36675e-22
-1.96522e-22
-1.48982e-22
-7.9606e-23
-5.20569e-23
-4.34324e-23
-3.6059e-23
-1.57616e-23
3.92236e-25
-3.38315e-25
-3.22518e-23
-5.8759e-23
-9.29477e-23
-1.38542e-22
-1.83961e-22
-2.17568e-22
-1.07972e-22
-1.76773e-27
-5.17717e-29
0
0
-1.4112e-27
-6.36584e-28
-4.35651e-28
0
0
-5.24199e-28
-2.43056e-27
-2.52288e-27
-1.94862e-27
-1.11725e-27
-1.30824e-27
0
2.7194e-28
1.84188e-28
-4.60163e-28
-3.4074e-28
9.7759e-24
8.07436e-24
-1.28708e-24
1.07373e-25
-3.41228e-26
3.38454e-27
-8.95377e-28
1.31412e-27
2.33848e-28
-2.80331e-28
-1.49837e-27
-7.18353e-28
2.06483e-28
-5.28132e-28
0
0
-3.13791e-27
1.12243e-27
9.68215e-28
-7.0473e-28
)
;
    }
    frontAndBack
    {
        type            empty;
    }
}


// ************************************************************************* //
