/*--------------------------------*- C++ -*----------------------------------*\
| =========                 |                                                 |
| \\      /  F ield         | OpenFOAM: The Open Source CFD Toolbox           |
|  \\    /   O peration     | Version:  2506                                  |
|   \\  /    A nd           | Website:  www.openfoam.com                      |
|    \\/     M anipulation  |                                                 |
\*---------------------------------------------------------------------------*/
FoamFile
{
    version     2.0;
    format      ascii;
    arch        "LSB;label=32;scalar=64";
    class       surfaceScalarField;
    location    "6.5";
    object      surfaceP;
}
// * * * * * * * * * * * * * * * * * * * * * * * * * * * * * * * * * * * * * //

dimensions      [0 2 -2 0 0 0 0];

internalField   nonuniform List<scalar> 
760
(
2.28976e-15
2.14605e-15
3.31471e-15
1.94537e-15
2.88636e-15
2.77471e-15
3.01615e-15
2.9438e-15
3.19713e-15
3.12693e-15
3.59359e-15
3.373e-15
3.77664e-15
3.73586e-15
3.81177e-15
3.76448e-15
3.94479e-15
3.88296e-15
4.07444e-15
4.12675e-15
4.16076e-15
4.1347e-15
4.28793e-15
4.19739e-15
4.50768e-15
4.37134e-15
4.7093e-15
4.59925e-15
4.75363e-15
4.73608e-15
4.74759e-15
4.70714e-15
4.62839e-15
4.66792e-15
4.38621e-15
4.4853e-15
4.1453e-15
4.27509e-15
4.14481e-15
1.80166e-15
3.55656e-15
1.40538e-15
1.81235e-15
2.83215e-15
2.95389e-15
3.05458e-15
3.07015e-15
3.30281e-15
3.29681e-15
3.51528e-15
3.46185e-15
3.7237e-15
3.72705e-15
3.83566e-15
3.85141e-15
4.06491e-15
3.95753e-15
4.18701e-15
4.2196e-15
4.17134e-15
4.18369e-15
4.2808e-15
4.20661e-15
4.46291e-15
4.36229e-15
4.62603e-15
4.48311e-15
4.68958e-15
4.62753e-15
4.62747e-15
4.6495e-15
4.52482e-15
4.5631e-15
4.37418e-15
4.471e-15
4.2746e-15
4.34141e-15
4.28693e-15
3.56725e-15
3.41987e-15
3.36087e-15
3.96984e-15
3.19189e-15
3.2782e-15
3.31238e-15
3.44538e-15
3.45585e-15
3.53814e-15
3.67362e-15
3.69614e-15
3.85476e-15
3.82531e-15
3.97327e-15
3.9405e-15
4.11222e-15
4.09085e-15
4.21628e-15
4.18236e-15
4.21896e-15
4.21125e-15
4.28809e-15
4.09118e-15
4.38249e-15
4.24344e-15
4.48462e-15
4.34868e-15
4.58745e-15
4.54696e-15
4.58513e-15
4.55142e-15
4.50928e-15
4.42187e-15
4.43824e-15
4.43493e-15
4.35374e-15
4.44989e-15
4.37449e-15
3.82245e-15
3.62339e-15
3.88717e-15
3.46235e-15
3.53169e-15
3.62517e-15
3.67114e-15
3.72395e-15
3.77842e-15
3.80408e-15
3.84783e-15
3.82663e-15
3.91105e-15
3.93323e-15
4.05807e-15
4.01519e-15
4.16099e-15
4.15932e-15
4.17732e-15
4.1336e-15
4.08346e-15
4.14635e-15
4.04653e-15
3.94924e-15
4.20963e-15
4.08037e-15
4.41102e-15
4.30155e-15
4.51092e-15
4.38108e-15
4.38815e-15
4.47052e-15
4.34752e-15
4.36449e-15
4.44658e-15
4.43429e-15
4.47064e-15
4.50908e-15
4.52289e-15
3.26329e-15
3.60541e-15
3.20035e-15
4.07229e-15
3.81742e-15
3.94302e-15
3.85689e-15
3.98085e-15
3.85229e-15
3.88656e-15
3.91204e-15
3.93827e-15
4.03738e-15
4.03334e-15
4.11644e-15
4.14956e-15
4.13193e-15
4.20943e-15
4.10262e-15
4.18416e-15
4.01213e-15
4.07182e-15
3.98308e-15
3.91917e-15
4.17228e-15
3.92279e-15
4.27161e-15
4.17396e-15
4.34068e-15
4.21942e-15
4.44685e-15
4.45929e-15
4.45125e-15
4.47366e-15
4.49678e-15
4.39918e-15
4.56133e-15
4.51745e-15
4.68512e-15
4.41441e-15
3.71609e-15
4.81497e-15
5.34e-15
4.10645e-15
4.09503e-15
4.01053e-15
4.17224e-15
3.97255e-15
4.04629e-15
4.05956e-15
4.14902e-15
4.14552e-15
4.12381e-15
4.24255e-15
4.23432e-15
4.26167e-15
4.22418e-15
4.15336e-15
4.20193e-15
3.97886e-15
4.09178e-15
3.85887e-15
3.8658e-15
3.92447e-15
3.85511e-15
4.12177e-15
4.0584e-15
4.33803e-15
4.24593e-15
4.48609e-15
4.46312e-15
4.42158e-15
4.43084e-15
4.41985e-15
4.39222e-15
4.64124e-15
4.45006e-15
4.74254e-15
4.64168e-15
4.6615e-15
4.62006e-15
3.33998e-15
4.16082e-15
4.32344e-15
4.208e-15
4.30577e-15
4.22276e-15
4.23474e-15
4.21327e-15
4.23366e-15
4.21262e-15
4.25689e-15
4.21595e-15
4.36576e-15
4.16444e-15
4.23604e-15
4.14035e-15
4.19016e-15
3.97872e-15
4.06057e-15
3.86203e-15
3.88675e-15
3.98905e-15
3.92705e-15
4.18256e-15
4.12208e-15
4.37101e-15
4.2386e-15
4.40786e-15
4.48092e-15
4.40148e-15
4.41474e-15
4.42243e-15
4.41361e-15
4.55136e-15
4.37681e-15
4.68376e-15
3.3598e-15
4.75041e-15
3.04336e-15
4.03512e-15
4.4684e-15
4.49925e-15
4.33252e-15
4.53808e-15
4.24564e-15
4.30782e-15
4.27728e-15
4.2972e-15
4.41002e-15
4.34344e-15
4.38585e-15
4.45421e-15
4.26176e-15
4.28557e-15
4.11038e-15
4.21834e-15
3.9686e-15
4.06317e-15
3.95176e-15
3.95172e-15
4.06008e-15
3.98372e-15
4.17812e-15
4.15674e-15
4.34851e-15
4.23035e-15
4.4878e-15
4.41725e-15
4.42687e-15
4.41304e-15
4.36799e-15
4.4469e-15
4.50921e-15
4.41078e-15
4.65951e-15
5.42573e-15
4.28081e-15
5.49101e-15
5.16408e-15
4.56894e-15
4.57016e-15
4.51338e-15
4.6828e-15
4.35937e-15
4.50229e-15
4.36336e-15
4.41445e-15
4.38763e-15
4.35549e-15
4.35393e-15
4.31106e-15
4.24215e-15
4.2588e-15
4.17113e-15
4.27151e-15
4.04629e-15
4.16685e-15
3.98368e-15
3.91854e-15
4.08038e-15
3.89089e-15
4.20898e-15
4.08939e-15
4.29909e-15
4.27463e-15
4.34249e-15
4.24655e-15
4.43306e-15
4.32873e-15
4.48969e-15
4.51069e-15
4.56108e-15
4.42328e-15
4.61156e-15
4.01916e-15
4.312e-15
4.24324e-15
4.08042e-15
4.68403e-15
4.64021e-15
4.6717e-15
4.65774e-15
4.55736e-15
4.58623e-15
4.40658e-15
4.47809e-15
4.27892e-15
4.39283e-15
4.21593e-15
4.27578e-15
4.28817e-15
4.24183e-15
4.26724e-15
4.32261e-15
4.03911e-15
4.01048e-15
3.82576e-15
3.80462e-15
3.89989e-15
3.77638e-15
4.15504e-15
4.05268e-15
4.22209e-15
4.22438e-15
4.2328e-15
4.11298e-15
4.40636e-15
4.17098e-15
4.44429e-15
4.42083e-15
4.47376e-15
4.41416e-15
4.6157e-15
4.37326e-15
4.38023e-15
4.47739e-15
5.25601e-15
4.61392e-15
4.58041e-15
4.57226e-15
4.60731e-15
4.50695e-15
4.58666e-15
4.46434e-15
4.52978e-15
4.3897e-15
4.33538e-15
4.30168e-15
4.27122e-15
4.27626e-15
4.20399e-15
4.06584e-15
4.18169e-15
3.77598e-15
3.80305e-15
3.75524e-15
3.73244e-15
3.92917e-15
3.8372e-15
4.12202e-15
4.10818e-15
4.11527e-15
4.08402e-15
4.05117e-15
4.01774e-15
4.18544e-15
4.11453e-15
4.3907e-15
4.37311e-15
4.5561e-15
4.42429e-15
4.54892e-15
5.26298e-15
4.68085e-15
5.35902e-15
3.9396e-15
4.57379e-15
4.61305e-15
4.6217e-15
4.39729e-15
4.60949e-15
4.68616e-15
4.40082e-15
4.45651e-15
4.2169e-15
4.08067e-15
4.17353e-15
4.09118e-15
4.10942e-15
4.12945e-15
3.91889e-15
3.96495e-15
3.75951e-15
3.80113e-15
3.8144e-15
3.73725e-15
4.01621e-15
3.9801e-15
4.07018e-15
4.08647e-15
3.98649e-15
3.96516e-15
4.08111e-15
4.0295e-15
4.3022e-15
4.23029e-15
4.40671e-15
4.40375e-15
4.41711e-15
4.40656e-15
4.33426e-15
3.35747e-15
4.64797e-15
3.19362e-15
4.45813e-15
4.43655e-15
4.54086e-15
4.46175e-15
4.29104e-15
4.53319e-15
4.5407e-15
4.13636e-15
4.27487e-15
3.95495e-15
3.91246e-15
4.04709e-15
3.95292e-15
3.98497e-15
3.96797e-15
3.84718e-15
3.83563e-15
3.77887e-15
3.85947e-15
3.90295e-15
3.79729e-15
4.05037e-15
3.99196e-15
3.98146e-15
3.98059e-15
4.00817e-15
3.91204e-15
4.17869e-15
4.12785e-15
4.33184e-15
4.27251e-15
4.4036e-15
4.36428e-15
4.32371e-15
4.41186e-15
4.31982e-15
5.74863e-15
4.55226e-15
5.80536e-15
5.34896e-15
4.39534e-15
4.43861e-15
4.36999e-15
4.29981e-15
4.28238e-15
4.27334e-15
4.05096e-15
4.05553e-15
3.91042e-15
3.94281e-15
3.87379e-15
3.80831e-15
3.81863e-15
3.79571e-15
3.84792e-15
3.80719e-15
3.87788e-15
3.83581e-15
3.8863e-15
3.79698e-15
3.92219e-15
3.8297e-15
3.91118e-15
3.90847e-15
4.03172e-15
3.94257e-15
4.22167e-15
4.16661e-15
4.30495e-15
4.27072e-15
4.37254e-15
4.25197e-15
4.40797e-15
4.35898e-15
4.48584e-15
4.15259e-15
4.81688e-15
3.98221e-15
3.05471e-15
4.34308e-15
4.34195e-15
4.20317e-15
4.18627e-15
4.04649e-15
4.23394e-15
3.94739e-15
3.88354e-15
3.84069e-15
3.90712e-15
3.73023e-15
3.71732e-15
3.78427e-15
3.67795e-15
3.79508e-15
3.70969e-15
3.75492e-15
3.67135e-15
3.74038e-15
3.68652e-15
3.81597e-15
3.77068e-15
3.93986e-15
3.94605e-15
4.07746e-15
3.97958e-15
4.21566e-15
4.08881e-15
4.21774e-15
4.25072e-15
4.23841e-15
4.2159e-15
4.43686e-15
4.30122e-15
4.50624e-15
3.719e-15
4.07661e-15
3.41445e-15
4.24277e-15
4.18514e-15
4.17868e-15
4.21704e-15
4.20885e-15
4.07099e-15
4.17398e-15
3.84327e-15
3.87901e-15
3.78374e-15
3.75986e-15
3.66504e-15
3.62267e-15
3.60338e-15
3.56244e-15
3.58597e-15
3.59968e-15
3.60296e-15
3.5658e-15
3.71683e-15
3.62465e-15
3.90076e-15
3.79859e-15
3.98577e-15
3.91662e-15
3.99092e-15
3.97724e-15
4.12388e-15
4.10018e-15
4.24889e-15
4.26549e-15
4.2787e-15
4.28673e-15
4.3706e-15
4.2806e-15
4.45919e-15
4.60038e-15
3.48548e-15
5.007e-15
4.81061e-15
4.20239e-15
4.07605e-15
4.16579e-15
4.13867e-15
3.982e-15
4.01038e-15
3.7956e-15
3.86098e-15
3.59879e-15
3.66247e-15
3.52006e-15
3.50252e-15
3.55874e-15
3.4605e-15
3.57952e-15
3.54333e-15
3.58749e-15
3.55476e-15
3.70642e-15
3.65841e-15
3.81445e-15
3.777e-15
3.90809e-15
3.85779e-15
4.0865e-15
4.08124e-15
4.2418e-15
4.18635e-15
4.30333e-15
4.30704e-15
4.28862e-15
4.29673e-15
4.36919e-15
4.28705e-15
4.45453e-15
3.69571e-15
3.9537e-15
3.87965e-15
2.97288e-15
4.01232e-15
3.9571e-15
3.98326e-15
3.93599e-15
3.88936e-15
3.97889e-15
3.72785e-15
3.78806e-15
3.5662e-15
3.6185e-15
3.44296e-15
3.48303e-15
3.44509e-15
3.45697e-15
3.51857e-15
3.52734e-15
3.62567e-15
3.60658e-15
3.72898e-15
3.69553e-15
3.82034e-15
3.74019e-15
4.03094e-15
4.03076e-15
4.18109e-15
4.21994e-15
4.25159e-15
4.16854e-15
4.30044e-15
4.26457e-15
4.29516e-15
4.3012e-15
4.37239e-15
4.29297e-15
4.48116e-15
3.23086e-15
3.51425e-15
3.05033e-15
3.62875e-15
3.88077e-15
3.8775e-15
3.93162e-15
3.96707e-15
3.87758e-15
3.92812e-15
3.6787e-15
3.80848e-15
3.53533e-15
3.60612e-15
3.49704e-15
3.46293e-15
3.53921e-15
3.50031e-15
3.61534e-15
3.54301e-15
3.67644e-15
3.71549e-15
3.70674e-15
3.77098e-15
3.95061e-15
3.77378e-15
4.21975e-15
4.17415e-15
4.20739e-15
4.24893e-15
4.18152e-15
4.21509e-15
4.26533e-15
4.18936e-15
4.29901e-15
4.30664e-15
4.40174e-15
4.33239e-15
4.55978e-15
3.91213e-15
4.45592e-15
3.9638e-15
3.96357e-15
3.85902e-15
3.7359e-15
3.53372e-15
3.4662e-15
3.5041e-15
3.64315e-15
3.81003e-15
3.83801e-15
3.99731e-15
4.20333e-15
4.25664e-15
4.22294e-15
4.23068e-15
4.34002e-15
4.49043e-15
)
;

boundaryField
{
    movingWall
    {
        type            calculated;
        value           nonuniform List<scalar> 
20
(
2.78438e-15
5.03989e-15
3.87196e-15
4.05565e-15
3.87148e-15
3.84655e-15
3.62524e-15
3.44219e-15
3.4902e-15
3.518e-15
3.76831e-15
3.85175e-15
3.82427e-15
4.17035e-15
4.2363e-15
4.27697e-15
4.16891e-15
4.29245e-15
4.38759e-15
4.59327e-15
)
;
    }
    fixedWalls
    {
        type            calculated;
        value           nonuniform List<scalar> 
60
(
6.88778e-16
3.60332e-15
3.5098e-15
3.32993e-15
3.91685e-15
3.29396e-15
4.13821e-15
5.18478e-15
4.31605e-15
4.24558e-15
4.37843e-15
4.38203e-15
4.97967e-15
4.31627e-15
4.78824e-15
4.84552e-15
3.30769e-15
3.66327e-15
4.24412e-15
2.78438e-15
4.00873e-15
4.28089e-15
4.29297e-15
4.45601e-15
4.58978e-15
4.78046e-15
4.70462e-15
4.6629e-15
4.65613e-15
4.56699e-15
4.6644e-15
4.43343e-15
4.2351e-15
4.40454e-15
4.56714e-15
4.44533e-15
4.47305e-15
4.43602e-15
4.5263e-15
4.59327e-15
6.88778e-16
3.89074e-15
2.73867e-15
3.03405e-15
2.99825e-15
3.396e-15
3.79118e-15
3.7621e-15
3.86145e-15
4.02814e-15
4.12074e-15
4.20078e-15
4.37508e-15
4.64028e-15
4.77833e-15
4.72894e-15
4.76624e-15
4.49055e-15
4.28187e-15
4.00873e-15
)
;
    }
    frontAndBack
    {
        type            empty;
    }
}


// ************************************************************************* //
