/*--------------------------------*- C++ -*----------------------------------*\
| =========                 |                                                 |
| \\      /  F ield         | OpenFOAM: The Open Source CFD Toolbox           |
|  \\    /   O peration     | Version:  2506                                  |
|   \\  /    A nd           | Website:  www.openfoam.com                      |
|    \\/     M anipulation  |                                                 |
\*---------------------------------------------------------------------------*/
FoamFile
{
    version     2.0;
    format      ascii;
    arch        "LSB;label=32;scalar=64";
    class       surfaceVectorField;
    location    "6.5";
    object      surfaceU;
}
// * * * * * * * * * * * * * * * * * * * * * * * * * * * * * * * * * * * * * //

dimensions      [0 1 -1 0 0 0 0];

internalField   nonuniform List<vector> 
760
(
(-1 5.0364e-14 0)
(-1 7.32732e-14 0)
(-1 -1.04763e-14 0)
(-1 -1.57065e-14 0)
(-1 2.58296e-15 0)
(-1 3.78992e-15 0)
(-1 -5.32727e-16 0)
(-1 -8.84415e-16 0)
(-1 2.3565e-16 0)
(-1 1.83432e-16 0)
(-1 1.33178e-16 0)
(-1 1.03382e-16 0)
(-1 1.09919e-16 0)
(-1 1.55903e-16 0)
(-1 3.59403e-17 0)
(-1 5.08514e-17 0)
(-1 -3.62543e-18 0)
(-1 1.40518e-17 0)
(-1 5.8491e-18 0)
(-1 -7.7789e-18 0)
(-1 4.80245e-17 0)
(-1 1.38553e-17 0)
(-1 5.04564e-17 0)
(-1 4.85974e-17 0)
(-1 3.88325e-17 0)
(-1 2.71549e-17 0)
(-1 4.57943e-17 0)
(-1 5.53803e-17 0)
(-1 7.52343e-17 0)
(-1 3.47936e-17 0)
(-1 1.13034e-16 0)
(-1 4.43354e-17 0)
(-1 8.79711e-17 0)
(-1 7.17288e-17 0)
(-1 3.55594e-18 0)
(-1 1.86122e-17 0)
(-1 -6.53379e-17 0)
(-1 -7.30659e-17 0)
(-1 -9.95141e-17 0)
(-1 7.20272e-15 0)
(-1 -5.41862e-14 0)
(-1 -1.44019e-15 0)
(-1 1.16093e-14 0)
(-1 3.22547e-16 0)
(-1 -2.87255e-15 0)
(-1 -1.68256e-16 0)
(-1 4.12025e-16 0)
(-1 5.11633e-17 0)
(-1 -2.71205e-16 0)
(-1 1.26106e-16 0)
(-1 4.39485e-17 0)
(-1 9.6835e-17 0)
(-1 8.91133e-17 0)
(-1 2.89628e-17 0)
(-1 5.66693e-17 0)
(-1 9.8983e-18 0)
(-1 7.93849e-17 0)
(-1 2.27333e-19 0)
(-1 1.1337e-16 0)
(-1 1.44282e-17 0)
(-1 6.57352e-17 0)
(-1 2.52958e-17 0)
(-1 1.03966e-16 0)
(-1 4.37027e-17 0)
(-1 5.3078e-17 0)
(-1 4.43796e-17 0)
(-1 1.33563e-17 0)
(-1 3.89474e-18 0)
(-1 -5.59765e-17 0)
(-1 3.03049e-18 0)
(-1 -3.68556e-17 0)
(-1 2.37003e-18 0)
(-1 2.78852e-17 0)
(-1 -5.80096e-17 0)
(-1 -2.78963e-17 0)
(-1 -1.07242e-16 0)
(-1 -1.15352e-16 0)
(-1 -9.36851e-17 0)
(-1 -4.97796e-14 0)
(-1 -1.99872e-14 0)
(-1 1.0177e-14 0)
(-1 3.75436e-15 0)
(-1 -2.78307e-15 0)
(-1 -1.23652e-15 0)
(-1 3.09075e-16 0)
(-1 -1.02611e-17 0)
(-1 -2.7842e-16 0)
(-1 -2.42378e-16 0)
(-1 6.95579e-18 0)
(-1 -1.02137e-16 0)
(-1 4.89476e-17 0)
(-1 -5.74283e-17 0)
(-1 1.07091e-16 0)
(-1 -2.20795e-17 0)
(-1 1.82857e-16 0)
(-1 5.00705e-17 0)
(-1 1.78878e-16 0)
(-1 1.33901e-16 0)
(-1 1.55273e-16 0)
(-1 8.32077e-17 0)
(-1 1.31748e-16 0)
(-1 1.1351e-16 0)
(-1 2.27315e-17 0)
(-1 4.32178e-17 0)
(-1 -8.69998e-17 0)
(-1 -4.80361e-17 0)
(-1 -9.67268e-17 0)
(-1 -5.78247e-17 0)
(-1 -1.20009e-17 0)
(-1 -9.35494e-18 0)
(-1 -2.38115e-18 0)
(-1 4.68236e-17 0)
(-1 -8.52382e-17 0)
(-1 -3.28584e-17 0)
(-1 -1.01795e-16 0)
(-1 -1.15616e-16 0)
(-1 -8.35694e-17 0)
(-1 3.35468e-14 0)
(-1 4.51322e-14 0)
(-1 -7.65913e-15 0)
(-1 -1.04214e-14 0)
(-1 1.53629e-15 0)
(-1 2.18586e-15 0)
(-1 -5.61714e-16 0)
(-1 -6.36202e-16 0)
(-1 -6.60945e-17 0)
(-1 3.51311e-17 0)
(-1 -1.66521e-16 0)
(-1 -1.86362e-16 0)
(-1 -1.28455e-16 0)
(-1 -1.83035e-16 0)
(-1 -7.91004e-17 0)
(-1 -1.85407e-16 0)
(-1 1.11518e-18 0)
(-1 -1.23446e-16 0)
(-1 3.82311e-17 0)
(-1 -5.86104e-17 0)
(-1 4.14451e-17 0)
(-1 -1.65946e-17 0)
(-1 2.498e-17 0)
(-1 -1.70532e-17 0)
(-1 -2.75498e-17 0)
(-1 2.86304e-17 0)
(-1 -1.88609e-17 0)
(-1 5.44895e-17 0)
(-1 2.95472e-17 0)
(-1 7.91798e-17 0)
(-1 4.94696e-17 0)
(-1 -2.41184e-17 0)
(-1 1.63463e-17 0)
(-1 -7.33385e-17 0)
(-1 -6.32365e-17 0)
(-1 -5.3616e-17 0)
(-1 -9.73912e-17 0)
(-1 -8.75646e-17 0)
(-1 -9.79681e-17 0)
(-1 1.16409e-15 0)
(-1 -4.48304e-14 0)
(-1 -5.76401e-16 0)
(-1 9.73648e-15 0)
(-1 1.33612e-17 0)
(-1 -2.28079e-15 0)
(-1 -3.93564e-17 0)
(-1 5.16729e-16 0)
(-1 -8.51367e-17 0)
(-1 -1.65818e-16 0)
(-1 -2.02877e-16 0)
(-1 -1.62834e-16 0)
(-1 -2.39987e-16 0)
(-1 -2.19819e-16 0)
(-1 -2.29753e-16 0)
(-1 -2.13453e-16 0)
(-1 -1.83172e-16 0)
(-1 -1.23735e-16 0)
(-1 -1.13436e-16 0)
(-1 -6.49653e-17 0)
(-1 -7.50929e-17 0)
(-1 -1.24572e-17 0)
(-1 -1.34028e-17 0)
(-1 -2.52551e-17 0)
(-1 1.1067e-16 0)
(-1 6.56895e-17 0)
(-1 1.5253e-16 0)
(-1 1.11306e-16 0)
(-1 2.55142e-17 0)
(-1 3.79224e-17 0)
(-1 -1.46926e-16 0)
(-1 -1.00387e-16 0)
(-1 -1.43301e-16 0)
(-1 -1.52777e-16 0)
(-1 -7.79441e-17 0)
(-1 -6.11241e-17 0)
(-1 -8.81415e-17 0)
(-1 -2.64375e-17 0)
(-1 -6.50138e-17 0)
(-1 -3.6258e-14 0)
(-1 1.47617e-14 0)
(-1 8.03209e-15 0)
(-1 -2.79975e-15 0)
(-1 -1.77742e-15 0)
(-1 6.92529e-16 0)
(-1 3.90268e-16 0)
(-1 -2.00817e-16 0)
(-1 -2.43515e-16 0)
(-1 -8.98387e-17 0)
(-1 -1.79777e-16 0)
(-1 -1.26343e-16 0)
(-1 -1.93286e-16 0)
(-1 -1.35609e-16 0)
(-1 -1.07435e-16 0)
(-1 -1.22661e-16 0)
(-1 -5.52852e-18 0)
(-1 -5.89168e-18 0)
(-1 3.60137e-17 0)
(-1 6.57274e-17 0)
(-1 3.73806e-17 0)
(-1 8.33749e-17 0)
(-1 5.38372e-17 0)
(-1 4.99095e-17 0)
(-1 6.63262e-17 0)
(-1 5.02355e-17 0)
(-1 -3.30151e-18 0)
(-1 3.32172e-17 0)
(-1 -8.79792e-17 0)
(-1 -3.65259e-17 0)
(-1 -1.06238e-16 0)
(-1 -1.02669e-16 0)
(-1 -7.05999e-17 0)
(-1 -7.18759e-17 0)
(-1 -9.61739e-18 0)
(-1 -1.57845e-18 0)
(-1 -3.30971e-18 0)
(-1 6.71007e-17 0)
(-1 6.65916e-18 0)
(-1 4.82199e-14 0)
(-1 4.01148e-14 0)
(-1 -1.01393e-14 0)
(-1 -8.56148e-15 0)
(-1 2.26914e-15 0)
(-1 1.86965e-15 0)
(-1 -6.80923e-16 0)
(-1 -5.85393e-16 0)
(-1 2.73339e-17 0)
(-1 -1.56344e-17 0)
(-1 -8.21746e-17 0)
(-1 -1.03434e-16 0)
(-1 -6.49848e-17 0)
(-1 -9.59731e-17 0)
(-1 -2.1118e-17 0)
(-1 -7.35217e-17 0)
(-1 6.53642e-17 0)
(-1 -1.73786e-17 0)
(-1 1.13089e-16 0)
(-1 7.12496e-17 0)
(-1 9.59038e-17 0)
(-1 1.63687e-16 0)
(-1 4.63078e-17 0)
(-1 1.14698e-16 0)
(-1 1.71265e-17 0)
(-1 7.81952e-18 0)
(-1 -7.16859e-21 0)
(-1 -2.1891e-17 0)
(-1 -5.12152e-17 0)
(-1 1.60539e-17 0)
(-1 -6.83068e-17 0)
(-1 -6.97552e-18 0)
(-1 -2.85446e-18 0)
(-1 -3.26118e-17 0)
(-1 7.51397e-17 0)
(-1 -1.18414e-17 0)
(-1 7.70696e-17 0)
(-1 4.89496e-17 0)
(-1 2.69616e-17 0)
(-1 -1.66665e-14 0)
(-1 -4.93469e-14 0)
(-1 3.44748e-15 0)
(-1 1.05364e-14 0)
(-1 -9.84878e-16 0)
(-1 -2.66381e-15 0)
(-1 7.98958e-17 0)
(-1 3.55214e-16 0)
(-1 -1.46402e-16 0)
(-1 -3.16533e-16 0)
(-1 -1.17232e-16 0)
(-1 -1.26411e-16 0)
(-1 -1.0451e-16 0)
(-1 -7.33259e-17 0)
(-1 -6.97824e-17 0)
(-1 1.55764e-17 0)
(-1 -1.14933e-17 0)
(-1 -2.55602e-17 0)
(-1 1.21848e-16 0)
(-1 1.11141e-18 0)
(-1 1.82481e-16 0)
(-1 8.90037e-17 0)
(-1 7.62093e-17 0)
(-1 8.21939e-17 0)
(-1 -3.1198e-17 0)
(-1 -4.89085e-17 0)
(-1 -5.83e-18 0)
(-1 -1.03434e-16 0)
(-1 6.02936e-17 0)
(-1 -3.66116e-17 0)
(-1 2.87195e-17 0)
(-1 8.50851e-17 0)
(-1 -4.15988e-17 0)
(-1 -6.94923e-18 0)
(-1 -3.80314e-17 0)
(-1 -5.76817e-17 0)
(-1 -1.15834e-18 0)
(-1 -5.89095e-18 0)
(-1 1.40857e-17 0)
(-1 -2.2144e-14 0)
(-1 2.24109e-14 0)
(-1 4.42511e-15 0)
(-1 -5.41285e-15 0)
(-1 -1.32372e-15 0)
(-1 9.28111e-16 0)
(-1 -4.1215e-17 0)
(-1 -5.33654e-16 0)
(-1 -2.96542e-16 0)
(-1 -1.75531e-16 0)
(-1 -8.25048e-17 0)
(-1 -1.10943e-16 0)
(-1 4.67605e-17 0)
(-1 4.91925e-17 0)
(-1 5.97985e-17 0)
(-1 8.69976e-17 0)
(-1 -1.29556e-17 0)
(-1 3.11314e-17 0)
(-1 -3.17328e-17 0)
(-1 9.55521e-18 0)
(-1 -1.12831e-17 0)
(-1 3.57862e-17 0)
(-1 -4.29239e-17 0)
(-1 -6.96318e-18 0)
(-1 -1.21145e-16 0)
(-1 -3.73343e-17 0)
(-1 -1.34216e-16 0)
(-1 -5.59676e-17 0)
(-1 -1.18202e-17 0)
(-1 -4.43693e-17 0)
(-1 4.94164e-17 0)
(-1 5.50631e-17 0)
(-1 -2.30321e-17 0)
(-1 4.61845e-17 0)
(-1 -2.55412e-17 0)
(-1 3.80676e-18 0)
(-1 9.35312e-18 0)
(-1 -1.98258e-18 0)
(-1 -3.02562e-18 0)
(-1 3.91421e-14 0)
(-1 -7.72976e-16 0)
(-1 -8.90985e-15 0)
(-1 4.63405e-19 0)
(-1 1.71818e-15 0)
(-1 -2.35171e-16 0)
(-1 -6.67969e-16 0)
(-1 -1.28546e-16 0)
(-1 1.00685e-17 0)
(-1 -1.57203e-16 0)
(-1 2.07547e-17 0)
(-1 -1.00876e-16 0)
(-1 8.94296e-17 0)
(-1 -3.47158e-17 0)
(-1 5.83306e-17 0)
(-1 -6.08249e-17 0)
(-1 5.36422e-17 0)
(-1 -5.01157e-17 0)
(-1 7.70742e-17 0)
(-1 1.19615e-17 0)
(-1 4.01061e-17 0)
(-1 4.26653e-17 0)
(-1 -1.37357e-18 0)
(-1 -5.01462e-17 0)
(-1 2.7843e-17 0)
(-1 -8.35128e-17 0)
(-1 3.38791e-17 0)
(-1 -3.97404e-17 0)
(-1 2.2514e-17 0)
(-1 3.3647e-17 0)
(-1 5.18312e-17 0)
(-1 7.62627e-17 0)
(-1 7.30234e-17 0)
(-1 1.09113e-16 0)
(-1 2.73654e-17 0)
(-1 3.78716e-17 0)
(-1 -1.43613e-17 0)
(-1 -3.39841e-17 0)
(-1 5.99131e-18 0)
(-1 -3.99146e-14 0)
(-1 -1.40431e-14 0)
(-1 8.67514e-15 0)
(-1 3.41321e-15 0)
(-1 -2.0819e-15 0)
(-1 -8.56023e-16 0)
(-1 3.8222e-16 0)
(-1 1.24516e-16 0)
(-1 -2.68147e-16 0)
(-1 -2.07598e-16 0)
(-1 -1.56346e-16 0)
(-1 -7.38957e-17 0)
(-1 -1.8497e-16 0)
(-1 -8.70921e-19 0)
(-1 -1.69271e-16 0)
(-1 -3.14925e-17 0)
(-1 -9.17964e-17 0)
(-1 -6.39713e-17 0)
(-1 -2.24474e-17 0)
(-1 -4.68542e-17 0)
(-1 -4.7587e-17 0)
(-1 -8.85475e-17 0)
(-1 -1.32285e-16 0)
(-1 -7.66848e-17 0)
(-1 -1.51096e-16 0)
(-1 -1.45509e-16 0)
(-1 -3.99724e-17 0)
(-1 -1.17504e-16 0)
(-1 8.73957e-17 0)
(-1 -1.16848e-17 0)
(-1 1.33545e-16 0)
(-1 6.85127e-17 0)
(-1 7.39615e-17 0)
(-1 6.79192e-17 0)
(-1 -2.34779e-17 0)
(-1 2.59096e-17 0)
(-1 -1.36315e-17 0)
(-1 1.31034e-17 0)
(-1 7.44054e-17 0)
(-1 2.92847e-14 0)
(-1 3.76343e-14 0)
(-1 -6.11795e-15 0)
(-1 -8.42042e-15 0)
(-1 1.35039e-15 0)
(-1 1.94877e-15 0)
(-1 -4.65302e-16 0)
(-1 -4.75197e-16 0)
(-1 -1.33463e-17 0)
(-1 3.58462e-17 0)
(-1 8.15798e-17 0)
(-1 2.29538e-17 0)
(-1 1.52607e-16 0)
(-1 1.15872e-16 0)
(-1 7.38074e-17 0)
(-1 7.98203e-17 0)
(-1 -1.90292e-17 0)
(-1 4.37632e-18 0)
(-1 -1.12954e-16 0)
(-1 -9.50249e-17 0)
(-1 -1.17645e-16 0)
(-1 -1.64713e-16 0)
(-1 -8.9908e-17 0)
(-1 -5.18037e-17 0)
(-1 -1.11916e-16 0)
(-1 9.8763e-18 0)
(-1 -8.92163e-17 0)
(-1 3.21352e-17 0)
(-1 -3.05678e-17 0)
(-1 -2.0827e-17 0)
(-1 2.88718e-18 0)
(-1 -5.37187e-17 0)
(-1 1.98672e-17 0)
(-1 -5.4721e-17 0)
(-1 6.24909e-17 0)
(-1 2.26504e-18 0)
(-1 1.0114e-16 0)
(-1 3.54101e-17 0)
(-1 6.19533e-17 0)
(-1 -7.08493e-17 0)
(-1 -4.27867e-14 0)
(-1 -3.53701e-16 0)
(-1 9.09761e-15 0)
(-1 1.23179e-16 0)
(-1 -2.06629e-15 0)
(-1 2.59509e-17 0)
(-1 5.37254e-16 0)
(-1 7.21463e-17 0)
(-1 -1.00892e-17 0)
(-1 5.7246e-17 0)
(-1 4.24107e-17 0)
(-1 4.30853e-17 0)
(-1 -5.61603e-17 0)
(-1 1.03892e-17 0)
(-1 1.57263e-17 0)
(-1 -7.16194e-17 0)
(-1 -2.13741e-17 0)
(-1 -1.46784e-16 0)
(-1 -1.13345e-16 0)
(-1 -9.88718e-17 0)
(-1 -1.17125e-16 0)
(-1 4.79807e-17 0)
(-1 -2.79204e-17 0)
(-1 1.53928e-16 0)
(-1 1.33098e-16 0)
(-1 1.00524e-16 0)
(-1 1.4855e-16 0)
(-1 -4.39779e-17 0)
(-1 2.56161e-17 0)
(-1 -1.11327e-16 0)
(-1 -7.43516e-17 0)
(-1 -7.23233e-17 0)
(-1 -8.60747e-17 0)
(-1 -2.48158e-17 0)
(-1 -4.31448e-17 0)
(-1 -3.77688e-18 0)
(-1 -8.16042e-17 0)
(-1 -4.77441e-17 0)
(-1 -3.36183e-14 0)
(-1 1.56756e-14 0)
(-1 7.38502e-15 0)
(-1 -2.91137e-15 0)
(-1 -1.65222e-15 0)
(-1 7.05134e-16 0)
(-1 5.01214e-16 0)
(-1 -1.42188e-16 0)
(-1 -3.98247e-17 0)
(-1 6.60813e-17 0)
(-1 -7.09955e-17 0)
(-1 -1.1823e-17 0)
(-1 -8.35193e-17 0)
(-1 -9.56464e-17 0)
(-1 -1.60371e-17 0)
(-1 -2.01934e-17 0)
(-1 -6.30999e-17 0)
(-1 5.77745e-18 0)
(-1 -8.36859e-17 0)
(-1 2.26594e-17 0)
(-1 -4.61732e-17 0)
(-1 5.35648e-18 0)
(-1 5.71968e-17 0)
(-1 -4.31346e-17 0)
(-1 1.2772e-16 0)
(-1 7.47058e-18 0)
(-1 7.36416e-17 0)
(-1 1.42453e-18 0)
(-1 -4.75758e-18 0)
(-1 4.50289e-17 0)
(-1 -4.90995e-17 0)
(-1 4.47958e-17 0)
(-1 -5.68963e-17 0)
(-1 -8.04081e-18 0)
(-1 -9.99332e-17 0)
(-1 -2.80421e-17 0)
(-1 -1.25571e-16 0)
(-1 -8.52379e-17 0)
(-1 -5.64268e-17 0)
(-1 4.63825e-14 0)
(-1 2.64319e-14 0)
(-1 -9.59125e-15 0)
(-1 -5.77211e-15 0)
(-1 2.21516e-15 0)
(-1 1.26106e-15 0)
(-1 -5.77321e-16 0)
(-1 -4.2718e-16 0)
(-1 9.4083e-17 0)
(-1 -1.5352e-17 0)
(-1 -3.64738e-17 0)
(-1 -7.94613e-17 0)
(-1 -3.23205e-17 0)
(-1 -9.23534e-17 0)
(-1 1.62111e-18 0)
(-1 -1.3997e-16 0)
(-1 9.15368e-17 0)
(-1 -5.79431e-17 0)
(-1 1.11702e-16 0)
(-1 2.91411e-17 0)
(-1 8.3951e-18 0)
(-1 1.42586e-17 0)
(-1 -9.28608e-17 0)
(-1 -6.34126e-17 0)
(-1 -1.18825e-16 0)
(-1 -8.31172e-17 0)
(-1 -2.71882e-17 0)
(-1 -5.68111e-17 0)
(-1 9.45823e-17 0)
(-1 3.23206e-17 0)
(-1 8.58544e-17 0)
(-1 3.30451e-17 0)
(-1 2.08133e-17 0)
(-1 -1.16928e-17 0)
(-1 -1.33467e-17 0)
(-1 -2.56439e-17 0)
(-1 -1.60933e-17 0)
(-1 2.14644e-17 0)
(-1 1.72206e-17 0)
(-1 -2.57226e-14 0)
(-1 -4.90953e-14 0)
(-1 5.0802e-15 0)
(-1 1.02348e-14 0)
(-1 -1.38128e-15 0)
(-1 -2.49438e-15 0)
(-1 1.34788e-16 0)
(-1 4.65039e-16 0)
(-1 -1.88896e-16 0)
(-1 -1.91665e-16 0)
(-1 -1.35341e-16 0)
(-1 -1.26471e-16 0)
(-1 -2.00003e-16 0)
(-1 -1.59156e-16 0)
(-1 -1.99534e-16 0)
(-1 -1.69798e-16 0)
(-1 -1.20339e-16 0)
(-1 -1.4268e-16 0)
(-1 -6.83021e-17 0)
(-1 -1.36888e-16 0)
(-1 -5.75491e-17 0)
(-1 -9.25303e-17 0)
(-1 -5.3669e-17 0)
(-1 -4.61816e-17 0)
(-1 -2.11036e-17 0)
(-1 4.95133e-18 0)
(-1 2.69763e-18 0)
(-1 2.63302e-17 0)
(-1 -2.92166e-17 0)
(-1 -4.21971e-17 0)
(-1 -6.45022e-17 0)
(-1 -5.42785e-17 0)
(-1 -5.815e-17 0)
(-1 -2.76019e-17 0)
(-1 9.16731e-18 0)
(-1 -1.7528e-17 0)
(-1 5.47783e-17 0)
(-1 3.9623e-17 0)
(-1 2.4039e-17 0)
(-1 -1.31379e-14 0)
(-1 3.64175e-14 0)
(-1 2.66021e-15 0)
(-1 -7.88481e-15 0)
(-1 -6.48057e-16 0)
(-1 1.85362e-15 0)
(-1 1.38585e-16 0)
(-1 -3.94876e-16 0)
(-1 -1.2924e-16 0)
(-1 4.23161e-17 0)
(-1 -1.50287e-16 0)
(-1 -1.18555e-16 0)
(-1 -1.28951e-16 0)
(-1 -8.70973e-17 0)
(-1 -1.12944e-16 0)
(-1 -7.16045e-17 0)
(-1 -1.5923e-16 0)
(-1 -9.03902e-17 0)
(-1 -1.61116e-16 0)
(-1 -1.0834e-16 0)
(-1 -8.11628e-17 0)
(-1 -8.785e-17 0)
(-1 1.24387e-17 0)
(-1 -1.52784e-17 0)
(-1 5.23851e-17 0)
(-1 3.8432e-17 0)
(-1 -1.85645e-17 0)
(-1 -1.23444e-18 0)
(-1 -6.7259e-17 0)
(-1 -3.32762e-17 0)
(-1 -1.73782e-17 0)
(-1 2.23999e-17 0)
(-1 1.30201e-17 0)
(-1 4.56614e-17 0)
(-1 1.29278e-17 0)
(-1 3.84963e-17 0)
(-1 8.88372e-18 0)
(-1 1.23559e-17 0)
(-1 -6.5787e-18 0)
(-1 4.16706e-14 0)
(-1 3.39624e-14 0)
(-1 -8.6914e-15 0)
(-1 -7.29327e-15 0)
(-1 2.1068e-15 0)
(-1 1.71605e-15 0)
(-1 -4.91145e-16 0)
(-1 -4.25302e-16 0)
(-1 5.3002e-17 0)
(-1 1.53171e-17 0)
(-1 -5.53652e-17 0)
(-1 -8.46567e-17 0)
(-1 -2.97505e-17 0)
(-1 -2.63245e-17 0)
(-1 -4.9051e-17 0)
(-1 -7.04066e-17 0)
(-1 -3.95009e-17 0)
(-1 -7.23764e-17 0)
(-1 -3.50738e-17 0)
(-1 -3.47054e-17 0)
(-1 -2.19656e-17 0)
(-1 -5.98141e-17 0)
(-1 1.07149e-17 0)
(-1 -9.56179e-18 0)
(-1 -1.51876e-17 0)
(-1 3.38051e-17 0)
(-1 -1.59461e-17 0)
(-1 -7.38046e-18 0)
(-1 5.63826e-17 0)
(-1 7.18499e-18 0)
(-1 8.54395e-17 0)
(-1 -1.20885e-17 0)
(-1 7.11376e-17 0)
(-1 1.54182e-17 0)
(-1 3.79244e-17 0)
(-1 6.14179e-17 0)
(-1 -3.10651e-18 0)
(-1 2.3526e-17 0)
(-1 -2.97154e-17 0)
(-1 -1.50014e-14 0)
(-1 -6.15361e-14 0)
(-1 3.11418e-15 0)
(-1 1.32403e-14 0)
(-1 -8.16054e-16 0)
(-1 -3.16319e-15 0)
(-1 8.11602e-17 0)
(-1 6.23691e-16 0)
(-1 -1.22342e-16 0)
(-1 -2.18821e-16 0)
(-1 -5.56161e-17 0)
(-1 -6.86307e-17 0)
(-1 -6.69806e-17 0)
(-1 -5.44773e-17 0)
(-1 -9.3732e-17 0)
(-1 -7.77017e-17 0)
(-1 -6.75809e-17 0)
(-1 -6.48514e-17 0)
(-1 -5.94457e-17 0)
(-1 -5.58946e-17 0)
(-1 -4.74103e-17 0)
(-1 -1.00302e-16 0)
(-1 1.35284e-17 0)
(-1 -7.13681e-17 0)
(-1 4.16122e-17 0)
(-1 4.86678e-18 0)
(-1 1.57506e-17 0)
(-1 2.5493e-17 0)
(-1 -6.12861e-17 0)
(-1 -2.32521e-17 0)
(-1 -8.21098e-17 0)
(-1 -1.06817e-16 0)
(-1 5.69851e-18 0)
(-1 -3.17167e-17 0)
(-1 4.70195e-17 0)
(-1 4.05902e-17 0)
(-1 -3.08295e-18 0)
(-1 2.72814e-17 0)
(-1 -3.04614e-17 0)
(-1 -3.32944e-14 0)
(-1 6.9629e-15 0)
(-1 -1.72345e-15 0)
(-1 3.2371e-16 0)
(-1 -1.6511e-16 0)
(-1 -6.74919e-17 0)
(-1 -6.51984e-17 0)
(-1 -4.88212e-17 0)
(-1 -5.31652e-17 0)
(-1 -9.67511e-17 0)
(-1 -1.2426e-16 0)
(-1 -8.00297e-17 0)
(-1 -1.12524e-17 0)
(-1 -1.35097e-17 0)
(-1 -6.87827e-17 0)
(-1 -5.64236e-17 0)
(-1 3.17496e-18 0)
(-1 2.08521e-17 0)
(-1 -9.70932e-20 0)
)
;

boundaryField
{
    movingWall
    {
        type            calculated;
        value           uniform (-1 -0 -0);
    }
    fixedWalls
    {
        type            calculated;
        value           uniform (-1 -0 -0);
    }
    frontAndBack
    {
        type            empty;
    }
}


// ************************************************************************* //
