/*--------------------------------*- C++ -*----------------------------------*\
| =========                 |                                                 |
| \\      /  F ield         | OpenFOAM: The Open Source CFD Toolbox           |
|  \\    /   O peration     | Version:  2506                                  |
|   \\  /    A nd           | Website:  www.openfoam.com                      |
|    \\/     M anipulation  |                                                 |
\*---------------------------------------------------------------------------*/
FoamFile
{
    version     2.0;
    format      ascii;
    arch        "LSB;label=32;scalar=64";
    class       surfaceScalarField;
    location    "6.5";
    object      surfaceK;
}
// * * * * * * * * * * * * * * * * * * * * * * * * * * * * * * * * * * * * * //

dimensions      [0 2 -2 0 0 0 0];

internalField   nonuniform List<scalar> 
760
(
7.02469e-06
7.16338e-06
7.02468e-06
7.16337e-06
7.02468e-06
7.16317e-06
7.02468e-06
7.16308e-06
7.02467e-06
7.16295e-06
7.02467e-06
7.16287e-06
7.02467e-06
7.16276e-06
7.02466e-06
7.16269e-06
7.02466e-06
7.16259e-06
7.02466e-06
7.16253e-06
7.02466e-06
7.16245e-06
7.02466e-06
7.16241e-06
7.02465e-06
7.16235e-06
7.02465e-06
7.16231e-06
7.02465e-06
7.16227e-06
7.02465e-06
7.16224e-06
7.02465e-06
7.16222e-06
7.02465e-06
7.16221e-06
7.02465e-06
7.1622e-06
7.16219e-06
7.30206e-06
7.50436e-06
7.30186e-06
7.50437e-06
7.30157e-06
7.5039e-06
7.30136e-06
7.50376e-06
7.30115e-06
7.50346e-06
7.30096e-06
7.5033e-06
7.30078e-06
7.50306e-06
7.30062e-06
7.50292e-06
7.30046e-06
7.50272e-06
7.30033e-06
7.50259e-06
7.3002e-06
7.50243e-06
7.3001e-06
7.50233e-06
7.30001e-06
7.5022e-06
7.29993e-06
7.50212e-06
7.29986e-06
7.50204e-06
7.29981e-06
7.50198e-06
7.29977e-06
7.50193e-06
7.29975e-06
7.50191e-06
7.29974e-06
7.50188e-06
7.50188e-06
7.70667e-06
7.89779e-06
7.70641e-06
7.8978e-06
7.70609e-06
7.89728e-06
7.70586e-06
7.89712e-06
7.70561e-06
7.89678e-06
7.7054e-06
7.89661e-06
7.7052e-06
7.89634e-06
7.70502e-06
7.89618e-06
7.70484e-06
7.89596e-06
7.70469e-06
7.89581e-06
7.70455e-06
7.89564e-06
7.70443e-06
7.89552e-06
7.70432e-06
7.89538e-06
7.70423e-06
7.8953e-06
7.70416e-06
7.8952e-06
7.7041e-06
7.89514e-06
7.70406e-06
7.89508e-06
7.70404e-06
7.89505e-06
7.70402e-06
7.89503e-06
7.89502e-06
8.08893e-06
8.23297e-06
8.08867e-06
8.23298e-06
8.08831e-06
8.23242e-06
8.08804e-06
8.23224e-06
8.08777e-06
8.23187e-06
8.08755e-06
8.23168e-06
8.08732e-06
8.2314e-06
8.08712e-06
8.2312e-06
8.08693e-06
8.23099e-06
8.08676e-06
8.2308e-06
8.08661e-06
8.23065e-06
8.08647e-06
8.23048e-06
8.08636e-06
8.23037e-06
8.08626e-06
8.23024e-06
8.08618e-06
8.23016e-06
8.08612e-06
8.23008e-06
8.08607e-06
8.23003e-06
8.08604e-06
8.22999e-06
8.08603e-06
8.22997e-06
8.22996e-06
8.37703e-06
8.47205e-06
8.37673e-06
8.47205e-06
8.37634e-06
8.47146e-06
8.37607e-06
8.47126e-06
8.37578e-06
8.47089e-06
8.37553e-06
8.47066e-06
8.37528e-06
8.47039e-06
8.37507e-06
8.47014e-06
8.37486e-06
8.46995e-06
8.37469e-06
8.46972e-06
8.37452e-06
8.46959e-06
8.37438e-06
8.46939e-06
8.37425e-06
8.4693e-06
8.37415e-06
8.46914e-06
8.37406e-06
8.46908e-06
8.37399e-06
8.46897e-06
8.37395e-06
8.46893e-06
8.37391e-06
8.46888e-06
8.3739e-06
8.46886e-06
8.46885e-06
8.56707e-06
8.62548e-06
8.56677e-06
8.62547e-06
8.56638e-06
8.62487e-06
8.56608e-06
8.62466e-06
8.56577e-06
8.62427e-06
8.56552e-06
8.62405e-06
8.56525e-06
8.62374e-06
8.56503e-06
8.62352e-06
8.56482e-06
8.62328e-06
8.56463e-06
8.62309e-06
8.56446e-06
8.6229e-06
8.56432e-06
8.62274e-06
8.56419e-06
8.62261e-06
8.56407e-06
8.62247e-06
8.56398e-06
8.62238e-06
8.56391e-06
8.62229e-06
8.56386e-06
8.62223e-06
8.56382e-06
8.62219e-06
8.56381e-06
8.62217e-06
8.62216e-06
8.68388e-06
8.7193e-06
8.68357e-06
8.7193e-06
8.68316e-06
8.71868e-06
8.68285e-06
8.71846e-06
8.68254e-06
8.71807e-06
8.68227e-06
8.71784e-06
8.68201e-06
8.71752e-06
8.68177e-06
8.71732e-06
8.68155e-06
8.71704e-06
8.68136e-06
8.71687e-06
8.68118e-06
8.71666e-06
8.68103e-06
8.71651e-06
8.68089e-06
8.71635e-06
8.68078e-06
8.71624e-06
8.68068e-06
8.71612e-06
8.68062e-06
8.71605e-06
8.68056e-06
8.71598e-06
8.68053e-06
8.71594e-06
8.68051e-06
8.71592e-06
8.7159e-06
8.75471e-06
8.77736e-06
8.75441e-06
8.77736e-06
8.75398e-06
8.77673e-06
8.75368e-06
8.77651e-06
8.75337e-06
8.77613e-06
8.75309e-06
8.77587e-06
8.75283e-06
8.77557e-06
8.75259e-06
8.77533e-06
8.75236e-06
8.77509e-06
8.75217e-06
8.77488e-06
8.75199e-06
8.7747e-06
8.75183e-06
8.77451e-06
8.7517e-06
8.77439e-06
8.75158e-06
8.77424e-06
8.75148e-06
8.77415e-06
8.75141e-06
8.77406e-06
8.75136e-06
8.774e-06
8.75132e-06
8.77395e-06
8.75131e-06
8.77393e-06
8.77392e-06
8.80001e-06
8.81625e-06
8.79968e-06
8.81626e-06
8.79926e-06
8.81559e-06
8.79896e-06
8.8154e-06
8.79863e-06
8.81499e-06
8.79835e-06
8.81475e-06
8.79807e-06
8.81443e-06
8.79784e-06
8.8142e-06
8.7976e-06
8.81396e-06
8.79741e-06
8.81374e-06
8.79723e-06
8.81356e-06
8.79707e-06
8.81337e-06
8.79693e-06
8.81324e-06
8.79681e-06
8.8131e-06
8.79672e-06
8.813e-06
8.79665e-06
8.81291e-06
8.7966e-06
8.81285e-06
8.79656e-06
8.81281e-06
8.79654e-06
8.81278e-06
8.81277e-06
8.8325e-06
8.84602e-06
8.83217e-06
8.84604e-06
8.83174e-06
8.84536e-06
8.83144e-06
8.84517e-06
8.83111e-06
8.84475e-06
8.83083e-06
8.84451e-06
8.83056e-06
8.8442e-06
8.83032e-06
8.84395e-06
8.83009e-06
8.84373e-06
8.82989e-06
8.84349e-06
8.82971e-06
8.84333e-06
8.82954e-06
8.84313e-06
8.8294e-06
8.843e-06
8.82929e-06
8.84285e-06
8.82919e-06
8.84276e-06
8.82912e-06
8.84266e-06
8.82906e-06
8.84261e-06
8.82903e-06
8.84256e-06
8.82901e-06
8.84254e-06
8.84252e-06
8.85956e-06
8.8724e-06
8.85923e-06
8.87241e-06
8.85879e-06
8.87175e-06
8.85849e-06
8.87154e-06
8.85815e-06
8.87112e-06
8.85788e-06
8.87089e-06
8.8576e-06
8.87055e-06
8.85737e-06
8.87034e-06
8.85714e-06
8.87007e-06
8.85693e-06
8.86988e-06
8.85675e-06
8.86967e-06
8.85658e-06
8.8695e-06
8.85644e-06
8.86935e-06
8.85632e-06
8.86921e-06
8.85623e-06
8.86911e-06
8.85615e-06
8.86902e-06
8.8561e-06
8.86896e-06
8.85606e-06
8.86891e-06
8.85605e-06
8.86889e-06
8.86888e-06
8.88525e-06
8.89858e-06
8.88493e-06
8.89858e-06
8.8845e-06
8.89792e-06
8.88417e-06
8.89771e-06
8.88386e-06
8.8973e-06
8.88356e-06
8.89706e-06
8.88329e-06
8.89671e-06
8.88304e-06
8.89651e-06
8.88281e-06
8.89622e-06
8.88261e-06
8.89604e-06
8.88242e-06
8.89582e-06
8.88226e-06
8.89566e-06
8.88212e-06
8.8955e-06
8.88201e-06
8.89537e-06
8.8819e-06
8.89527e-06
8.88183e-06
8.89518e-06
8.88178e-06
8.89512e-06
8.88174e-06
8.89507e-06
8.88172e-06
8.89505e-06
8.89504e-06
8.91191e-06
8.92643e-06
8.91158e-06
8.92644e-06
8.91114e-06
8.92577e-06
8.91083e-06
8.92557e-06
8.9105e-06
8.92512e-06
8.91022e-06
8.92491e-06
8.90994e-06
8.92455e-06
8.90969e-06
8.92435e-06
8.90946e-06
8.92406e-06
8.90925e-06
8.92388e-06
8.90906e-06
8.92365e-06
8.9089e-06
8.9235e-06
8.90876e-06
8.92334e-06
8.90864e-06
8.92321e-06
8.90855e-06
8.9231e-06
8.90847e-06
8.92301e-06
8.90842e-06
8.92295e-06
8.90838e-06
8.9229e-06
8.90836e-06
8.92288e-06
8.92287e-06
8.94095e-06
8.95709e-06
8.94063e-06
8.9571e-06
8.9402e-06
8.95641e-06
8.93986e-06
8.95623e-06
8.93954e-06
8.95576e-06
8.93925e-06
8.95558e-06
8.93897e-06
8.95519e-06
8.93872e-06
8.95502e-06
8.93848e-06
8.95469e-06
8.93828e-06
8.95455e-06
8.93809e-06
8.95427e-06
8.93793e-06
8.95416e-06
8.93778e-06
8.95396e-06
8.93767e-06
8.95386e-06
8.93757e-06
8.95373e-06
8.93749e-06
8.95366e-06
8.93744e-06
8.95358e-06
8.9374e-06
8.95354e-06
8.93738e-06
8.95352e-06
8.9535e-06
8.97324e-06
8.99103e-06
8.97289e-06
8.99105e-06
8.97245e-06
8.99035e-06
8.97214e-06
8.99017e-06
8.9718e-06
8.9897e-06
8.97152e-06
8.9895e-06
8.97124e-06
8.98912e-06
8.97098e-06
8.98894e-06
8.97075e-06
8.98861e-06
8.97054e-06
8.98847e-06
8.97035e-06
8.9882e-06
8.97019e-06
8.98808e-06
8.97004e-06
8.98787e-06
8.96992e-06
8.98778e-06
8.96982e-06
8.98764e-06
8.96974e-06
8.98758e-06
8.96969e-06
8.98749e-06
8.96965e-06
8.98746e-06
8.96963e-06
8.98743e-06
8.98742e-06
9.00884e-06
9.02768e-06
9.0085e-06
9.02768e-06
9.00807e-06
9.02701e-06
9.00773e-06
9.02679e-06
9.0074e-06
9.02635e-06
9.00711e-06
9.02613e-06
9.00682e-06
9.02576e-06
9.00657e-06
9.02557e-06
9.00633e-06
9.02524e-06
9.00613e-06
9.02509e-06
9.00593e-06
9.02483e-06
9.00577e-06
9.0247e-06
9.00562e-06
9.02451e-06
9.0055e-06
9.0244e-06
9.0054e-06
9.02427e-06
9.00532e-06
9.02419e-06
9.00527e-06
9.02412e-06
9.00523e-06
9.02408e-06
9.00521e-06
9.02405e-06
9.02404e-06
9.04652e-06
9.06476e-06
9.04619e-06
9.06477e-06
9.04574e-06
9.06407e-06
9.04541e-06
9.06387e-06
9.04508e-06
9.06342e-06
9.04479e-06
9.0632e-06
9.0445e-06
9.06282e-06
9.04425e-06
9.06263e-06
9.04401e-06
9.06231e-06
9.0438e-06
9.06215e-06
9.0436e-06
9.0619e-06
9.04344e-06
9.06175e-06
9.04329e-06
9.06157e-06
9.04317e-06
9.06145e-06
9.04307e-06
9.06133e-06
9.04299e-06
9.06125e-06
9.04293e-06
9.06117e-06
9.0429e-06
9.06113e-06
9.04288e-06
9.0611e-06
9.06109e-06
9.08301e-06
9.09785e-06
9.08266e-06
9.09789e-06
9.08221e-06
9.09714e-06
9.08188e-06
9.097e-06
9.08154e-06
9.0965e-06
9.08124e-06
9.09633e-06
9.08095e-06
9.09592e-06
9.0807e-06
9.09576e-06
9.08045e-06
9.09541e-06
9.08025e-06
9.09526e-06
9.08005e-06
9.09501e-06
9.07989e-06
9.09487e-06
9.07973e-06
9.09468e-06
9.07961e-06
9.09457e-06
9.07951e-06
9.09444e-06
9.07943e-06
9.09436e-06
9.07937e-06
9.09429e-06
9.07934e-06
9.09424e-06
9.07932e-06
9.09422e-06
9.0942e-06
9.11272e-06
9.11941e-06
9.11237e-06
9.11943e-06
9.11194e-06
9.11906e-06
9.11162e-06
9.11898e-06
9.11129e-06
9.11874e-06
9.111e-06
9.11864e-06
9.11072e-06
9.11845e-06
9.11047e-06
9.11836e-06
9.11022e-06
9.1182e-06
9.11003e-06
9.11811e-06
9.10983e-06
9.118e-06
9.10967e-06
9.11791e-06
9.10952e-06
9.11783e-06
9.1094e-06
9.11777e-06
9.10929e-06
9.1177e-06
9.10922e-06
9.11766e-06
9.10916e-06
9.11763e-06
9.10912e-06
9.11761e-06
9.1091e-06
9.11759e-06
9.11759e-06
9.12613e-06
9.12612e-06
9.12611e-06
9.12611e-06
9.1261e-06
9.12609e-06
9.12609e-06
9.12609e-06
9.12608e-06
9.12608e-06
9.12608e-06
9.12608e-06
9.12608e-06
9.12608e-06
9.12607e-06
9.12607e-06
9.12607e-06
9.12607e-06
9.12607e-06
)
;

boundaryField
{
    movingWall
    {
        type            calculated;
        value           nonuniform List<scalar> 
20
(
9.12613e-06
9.12612e-06
9.12612e-06
9.1261e-06
9.12612e-06
9.12608e-06
9.12611e-06
9.12607e-06
9.1261e-06
9.12607e-06
9.12609e-06
9.12607e-06
9.12608e-06
9.12608e-06
9.12608e-06
9.12607e-06
9.12607e-06
9.12607e-06
9.12607e-06
9.12607e-06
)
;
    }
    fixedWalls
    {
        type            calculated;
        value           nonuniform List<scalar> 
60
(
7.0247e-06
7.30206e-06
7.70666e-06
8.08893e-06
8.37702e-06
8.56708e-06
8.68388e-06
8.75472e-06
8.8e-06
8.8325e-06
8.85955e-06
8.88525e-06
8.91191e-06
8.94095e-06
8.97323e-06
9.00883e-06
9.04652e-06
9.083e-06
9.11269e-06
9.12613e-06
7.02465e-06
7.29973e-06
7.70402e-06
8.08602e-06
8.37389e-06
8.5638e-06
8.68051e-06
8.7513e-06
8.79654e-06
8.82901e-06
8.85604e-06
8.88172e-06
8.90836e-06
8.93738e-06
8.96963e-06
9.00521e-06
9.04287e-06
9.07931e-06
9.1091e-06
9.12607e-06
7.0247e-06
7.02469e-06
7.02468e-06
7.02468e-06
7.02467e-06
7.02467e-06
7.02466e-06
7.02467e-06
7.02465e-06
7.02467e-06
7.02465e-06
7.02466e-06
7.02465e-06
7.02466e-06
7.02465e-06
7.02465e-06
7.02465e-06
7.02465e-06
7.02465e-06
7.02465e-06
)
;
    }
    frontAndBack
    {
        type            empty;
    }
}


// ************************************************************************* //
